Protein in water t=   0.00000 step= 0
325744
    1DG5    H5T    1   3.229  10.922  13.616
    1DG5    O5'    2   3.236  10.830  13.642
    1DG5    C5'    3   3.157  10.739  13.572
    1DG5   H5'1    4   3.056  10.782  13.572
    1DG5   H5'2    5   3.148  10.636  13.605
    1DG5    C4'    6   3.200  10.746  13.423
    1DG5    H4'    7   3.132  10.696  13.353
    1DG5    O4'    8   3.218  10.878  13.373
    1DG5    C1'    9   3.333  10.875  13.291
    1DG5    H1'   10   3.313  10.826  13.196
    1DG5     N9   11   3.398  11.002  13.258
    1DG5     C8   12   3.507  11.061  13.318
    1DG5     H8   13   3.555  11.024  13.407
    1DG5     N7   14   3.553  11.169  13.256
    1DG5     C5   15   3.469  11.182  13.142
    1DG5     C6   16   3.467  11.270  13.028
    1DG5     O6   17   3.532  11.370  13.008
    1DG5     N1   18   3.355  11.253  12.951
    1DG5     H1   19   3.338  11.315  12.872
    1DG5     C2   20   3.265  11.152  12.969
    1DG5     N2   21   3.155  11.161  12.895
    1DG5    H21   22   3.146  11.247  12.843
    1DG5    H22   23   3.076  11.100  12.915
    1DG5     N3   24   3.268  11.064  13.066
    1DG5     C4   25   3.376  11.080  13.144
    1DG5    C3'   26   3.324  10.666  13.396
    1DG5    H3'   27   3.361  10.613  13.484
    1DG5    C2'   28   3.422  10.778  13.369
    1DG5   H2'1   29   3.450  10.826  13.463
    1DG5   H2'2   30   3.511  10.746  13.314
    1DG5    O3'   31   3.311  10.575  13.286
    2DC       P   32   3.235  10.432  13.290
    2DC     O1P   33   3.131  10.433  13.388
    2DC     O2P   34   3.342  10.332  13.298
    2DC     O5'   35   3.160  10.417  13.151
    2DC     C5'   36   3.057  10.507  13.111
    2DC    H5'1   37   3.021  10.575  13.189
    2DC    H5'2   38   2.965  10.453  13.089
    2DC     C4'   39   3.091  10.592  12.987
    2DC     H4'   40   2.999  10.633  12.946
    2DC     O4'   41   3.185  10.696  13.016
    2DC     C1'   42   3.277  10.698  12.912
    2DC     H1'   43   3.226  10.741  12.825
    2DC      N1   44   3.402  10.783  12.926
    2DC      C6   45   3.496  10.732  13.015
    2DC      H6   46   3.469  10.643  13.070
    2DC      C5   47   3.612  10.799  13.036
    2DC      H5   48   3.692  10.765  13.100
    2DC      C4   49   3.625  10.910  12.956
    2DC      N4   50   3.736  10.981  12.962
    2DC     H41   51   3.766  11.041  12.886
    2DC     H42   52   3.807  10.944  13.023
    2DC      N3   53   3.543  10.950  12.866
    2DC      C2   54   3.427  10.887  12.846
    2DC      O2   55   3.349  10.922  12.758
    2DC     C3'   56   3.156  10.508  12.874
    2DC     H3'   57   3.147  10.402  12.896
    2DC     C2'   58   3.297  10.551  12.887
    2DC    H2'1   59   3.341  10.509  12.977
    2DC    H2'2   60   3.353  10.532  12.795
    2DC     O3'   61   3.089  10.531  12.747
    3DA       P   62   3.118  10.435  12.622
    3DA     O1P   63   2.992  10.371  12.577
    3DA     O2P   64   3.230  10.349  12.652
    3DA     O5'   65   3.172  10.519  12.502
    3DA     C5'   66   3.078  10.583  12.419
    3DA    H5'1   67   3.014  10.649  12.477
    3DA    H5'2   68   3.022  10.502  12.371
    3DA     C4'   69   3.143  10.657  12.307
    3DA     H4'   70   3.055  10.701  12.259
    3DA     O4'   71   3.227  10.766  12.348
    3DA     C1'   72   3.365  10.731  12.333
    3DA     H1'   73   3.402  10.786  12.247
    3DA      N9   74   3.447  10.760  12.455
    3DA      C8   75   3.459  10.687  12.573
    3DA      H8   76   3.391  10.607  12.599
    3DA      N7   77   3.560  10.715  12.653
    3DA      C5   78   3.625  10.819  12.582
    3DA      C6   79   3.741  10.895  12.604
    3DA      N6   80   3.831  10.886  12.703
    3DA     H61   81   3.913  10.946  12.705
    3DA     H62   82   3.802  10.835  12.785
    3DA      N1   83   3.778  10.983  12.515
    3DA      C2   84   3.704  11.007  12.405
    3DA      H2   85   3.744  11.085  12.342
    3DA      N3   86   3.591  10.941  12.369
    3DA      C4   87   3.554  10.851  12.465
    3DA     C3'   88   3.223  10.568  12.219
    3DA     H3'   89   3.190  10.465  12.218
    3DA     C2'   90   3.362  10.585  12.282
    3DA    H2'1   91   3.367  10.513  12.364
    3DA    H2'2   92   3.444  10.569  12.212
    3DA     O3'   93   3.215  10.630  12.091
    4DT       P   94   3.301  10.584  11.964
    4DT     O1P   95   3.213  10.628  11.855
    4DT     O2P   96   3.331  10.439  11.968
    4DT     O5'   97   3.430  10.678  11.969
    4DT     C5'   98   3.420  10.819  11.942
    4DT    H5'1   99   3.365  10.862  12.026
    4DT    H5'2  100   3.359  10.826  11.852
    4DT     C4'  101   3.551  10.898  11.922
    4DT     H4'  102   3.522  10.997  11.886
    4DT     O4'  103   3.629  10.913  12.040
    4DT     C1'  104   3.761  10.870  12.012
    4DT     H1'  105   3.825  10.952  11.980
    4DT      N1  106   3.827  10.806  12.128
    4DT      C6  107   3.780  10.693  12.189
    4DT      H6  108   3.698  10.643  12.140
    4DT      C5  109   3.822  10.655  12.316
    4DT      C7  110   3.772  10.530  12.383
    4DT     H71  111   3.830  10.443  12.352
    4DT     H72  112   3.771  10.544  12.491
    4DT     H73  113   3.668  10.522  12.350
    4DT      C4  114   3.919  10.736  12.379
    4DT      O4  115   3.955  10.728  12.497
    4DT      N3  116   3.974  10.839  12.313
    4DT      H3  117   4.029  10.903  12.368
    4DT      C2  118   3.929  10.882  12.190
    4DT      O2  119   3.966  10.992  12.150
    4DT     C3'  120   3.639  10.841  11.807
    4DT     H3'  121   3.590  10.768  11.743
    4DT     C2'  122   3.738  10.764  11.901
    4DT    H2'1  123   3.686  10.672  11.928
    4DT    H2'2  124   3.827  10.741  11.843
    4DT     O3'  125   3.693  10.945  11.732
    5DG       P  126   3.779  10.920  11.595
    5DG     O1P  127   3.777  11.049  11.519
    5DG     O2P  128   3.732  10.796  11.523
    5DG     O5'  129   3.933  10.883  11.635
    5DG     C5'  130   4.019  10.994  11.655
    5DG    H5'1  131   3.971  11.078  11.704
    5DG    H5'2  132   4.042  11.043  11.560
    5DG     C4'  133   4.143  10.951  11.735
    5DG     H4'  134   4.203  11.040  11.757
    5DG     O4'  135   4.098  10.891  11.857
    5DG     C1'  136   4.217  10.814  11.892
    5DG     H1'  137   4.303  10.877  11.914
    5DG      N9  138   4.199  10.721  12.002
    5DG      C8  139   4.109  10.618  12.017
    5DG      H8  140   4.042  10.595  11.936
    5DG      N7  141   4.119  10.555  12.133
    5DG      C5  142   4.212  10.633  12.206
    5DG      C6  143   4.268  10.620  12.335
    5DG      O6  144   4.238  10.542  12.421
    5DG      N1  145   4.381  10.697  12.360
    5DG      H1  146   4.422  10.681  12.451
    5DG      C2  147   4.421  10.794  12.270
    5DG      N2  148   4.520  10.867  12.306
    5DG     H21  149   4.559  10.850  12.398
    5DG     H22  150   4.535  10.953  12.255
    5DG      N3  151   4.366  10.820  12.152
    5DG      C4  152   4.271  10.727  12.123
    5DG     C3'  153   4.224  10.853  11.649
    5DG     H3'  154   4.169  10.812  11.564
    5DG     C2'  155   4.251  10.745  11.759
    5DG    H2'1  156   4.191  10.655  11.749
    5DG    H2'2  157   4.359  10.729  11.764
    5DG     O3'  158   4.346  10.919  11.608
    6DT       P  159   4.446  10.861  11.503
    6DT     O1P  160   4.471  10.964  11.397
    6DT     O2P  161   4.421  10.723  11.463
    6DT     O5'  162   4.573  10.848  11.599
    6DT     C5'  163   4.633  10.965  11.662
    6DT    H5'1  164   4.551  11.009  11.719
    6DT    H5'2  165   4.674  11.034  11.588
    6DT     C4'  166   4.747  10.929  11.765
    6DT     H4'  167   4.792  11.018  11.808
    6DT     O4'  168   4.680  10.864  11.873
    6DT     C1'  169   4.769  10.758  11.911
    6DT     H1'  170   4.852  10.786  11.976
    6DT      N1  171   4.685  10.658  11.983
    6DT      C6  172   4.590  10.590  11.921
    6DT      H6  173   4.578  10.595  11.814
    6DT      C5  174   4.508  10.504  11.986
    6DT      C7  175   4.390  10.430  11.922
    6DT     H71  176   4.417  10.327  11.897
    6DT     H72  177   4.303  10.425  11.988
    6DT     H73  178   4.373  10.473  11.824
    6DT      C4  179   4.531  10.474  12.125
    6DT      O4  180   4.460  10.407  12.195
    6DT      N3  181   4.639  10.539  12.184
    6DT      H3  182   4.664  10.512  12.278
    6DT      C2  183   4.719  10.621  12.115
    6DT      O2  184   4.819  10.665  12.177
    6DT     C3'  185   4.852  10.841  11.699
    6DT     H3'  186   4.828  10.811  11.597
    6DT     C2'  187   4.835  10.713  11.777
    6DT    H2'1  188   4.767  10.645  11.727
    6DT    H2'2  189   4.930  10.664  11.798
    6DT     O3'  190   4.978  10.900  11.706
    7DG       P  191   5.107  10.847  11.626
    7DG     O1P  192   5.200  10.962  11.613
    7DG     O2P  193   5.065  10.772  11.505
    7DG     O5'  194   5.174  10.739  11.724
    7DG     C5'  195   5.203  10.774  11.861
    7DG    H5'1  196   5.141  10.852  11.904
    7DG    H5'2  197   5.303  10.817  11.858
    7DG     C4'  198   5.211  10.653  11.951
    7DG     H4'  199   5.270  10.674  12.040
    7DG     O4'  200   5.077  10.613  11.994
    7DG     C1'  201   5.078  10.469  11.995
    7DG     H1'  202   5.146  10.437  12.074
    7DG      N9  203   4.943  10.400  11.999
    7DG      C8  204   4.855  10.369  11.898
    7DG      H8  205   4.860  10.417  11.801
    7DG      N7  206   4.758  10.288  11.936
    7DG      C5  207   4.795  10.251  12.066
    7DG      C6  208   4.738  10.152  12.157
    7DG      O6  209   4.639  10.083  12.138
    7DG      N1  210   4.800  10.145  12.283
    7DG      H1  211   4.753  10.097  12.358
    7DG      C2  212   4.897  10.235  12.317
    7DG      N2  213   4.939  10.226  12.443
    7DG     H21  214   4.878  10.171  12.502
    7DG     H22  215   5.005  10.289  12.487
    7DG      N3  216   4.958  10.318  12.228
    7DG      C4  217   4.896  10.330  12.107
    7DG     C3'  218   5.277  10.526  11.892
    7DG     H3'  219   5.336  10.552  11.805
    7DG     C2'  220   5.160  10.432  11.870
    7DG    H2'1  221   5.109  10.453  11.777
    7DG    H2'2  222   5.193  10.328  11.870
    7DG     O3'  223   5.353  10.460  11.992
    8DC       P  224   5.510  10.474  12.012
    8DC     O1P  225   5.536  10.619  12.029
    8DC     O2P  226   5.581  10.396  11.915
    8DC     O5'  227   5.529  10.394  12.156
    8DC     C5'  228   5.528  10.458  12.279
    8DC    H5'1  229   5.441  10.523  12.285
    8DC    H5'2  230   5.619  10.511  12.304
    8DC     C4'  231   5.511  10.349  12.390
    8DC     H4'  232   5.501  10.397  12.488
    8DC     O4'  233   5.389  10.278  12.364
    8DC     C1'  234   5.406  10.139  12.338
    8DC     H1'  235   5.380  10.077  12.423
    8DC      N1  236   5.304  10.106  12.233
    8DC      C6  237   5.327  10.129  12.097
    8DC      H6  238   5.411  10.190  12.068
    8DC      C5  239   5.234  10.098  12.001
    8DC      H5  240   5.245  10.129  11.899
    8DC      C4  241   5.115  10.032  12.046
    8DC      N4  242   5.025   9.999  11.958
    8DC     H41  243   4.950   9.944  11.996
    8DC     H42  244   5.048  10.027  11.864
    8DC      N3  245   5.097   9.994  12.169
    8DC      C2  246   5.192  10.026  12.263
    8DC      O2  247   5.170   9.995  12.381
    8DC     C3'  248   5.615  10.236  12.389
    8DC     H3'  249   5.702  10.264  12.329
    8DC     C2'  250   5.550  10.126  12.303
    8DC    H2'1  251   5.562  10.146  12.197
    8DC    H2'2  252   5.587  10.023  12.307
    8DC     O3'  253   5.653  10.201  12.516
    9DG       P  254   5.756  10.092  12.557
    9DG     O1P  255   5.815  10.124  12.692
    9DG     O2P  256   5.847  10.060  12.441
    9DG     O5'  257   5.657   9.973  12.562
    9DG     C5'  258   5.660   9.865  12.660
    9DG    H5'1  259   5.588   9.878  12.741
    9DG    H5'2  260   5.761   9.854  12.697
    9DG     C4'  261   5.635   9.728  12.596
    9DG     H4'  262   5.617   9.649  12.669
    9DG     O4'  263   5.520   9.734  12.496
    9DG     C1'  264   5.562   9.664  12.383
    9DG     H1'  265   5.557   9.557  12.404
    9DG      N9  266   5.475   9.690  12.269
    9DG      C8  267   5.490   9.788  12.171
    9DG      H8  268   5.574   9.855  12.167
    9DG      N7  269   5.400   9.782  12.076
    9DG      C5  270   5.314   9.687  12.125
    9DG      C6  271   5.185   9.644  12.075
    9DG      O6  272   5.131   9.668  11.967
    9DG      N1  273   5.129   9.546  12.147
    9DG      H1  274   5.038   9.520  12.113
    9DG      C2  275   5.196   9.484  12.246
    9DG      N2  276   5.138   9.382  12.305
    9DG     H21  277   5.047   9.356  12.268
    9DG     H22  278   5.161   9.378  12.403
    9DG      N3  279   5.308   9.520  12.306
    9DG      C4  280   5.358   9.628  12.237
    9DG     C3'  281   5.749   9.681  12.515
    9DG     H3'  282   5.843   9.731  12.537
    9DG     C2'  283   5.708   9.702  12.371
    9DG    H2'1  284   5.714   9.806  12.338
    9DG    H2'2  285   5.753   9.637  12.296
    9DG     O3'  286   5.768   9.537  12.534
   10DT       P  287   5.889   9.472  12.618
   10DT     O1P  288   5.898   9.524  12.754
   10DT     O2P  289   6.011   9.486  12.535
   10DT     O5'  290   5.840   9.319  12.627
   10DT     C5'  291   5.736   9.294  12.721
   10DT    H5'1  292   5.675   9.384  12.737
   10DT    H5'2  293   5.772   9.273  12.821
   10DT     C4'  294   5.650   9.178  12.667
   10DT     H4'  295   5.568   9.164  12.738
   10DT     O4'  296   5.583   9.224  12.546
   10DT     C1'  297   5.571   9.114  12.462
   10DT     H1'  298   5.492   9.043  12.486
   10DT      N1  299   5.541   9.174  12.333
   10DT      C6  300   5.637   9.247  12.261
   10DT      H6  301   5.729   9.274  12.311
   10DT      C5  302   5.592   9.318  12.153
   10DT      C7  303   5.676   9.422  12.089
   10DT     H71  304   5.693   9.404  11.983
   10DT     H72  305   5.626   9.519  12.091
   10DT     H73  306   5.769   9.433  12.144
   10DT      C4  307   5.455   9.306  12.101
   10DT      O4  308   5.408   9.369  12.010
   10DT      N3  309   5.377   9.212  12.162
   10DT      H3  310   5.283   9.211  12.125
   10DT      C2  311   5.415   9.148  12.281
   10DT      O2  312   5.335   9.075  12.335
   10DT     C3'  313   5.733   9.055  12.634
   10DT     H3'  314   5.840   9.062  12.649
   10DT     C2'  315   5.717   9.051  12.480
   10DT    H2'1  316   5.799   9.099  12.429
   10DT    H2'2  317   5.718   8.950  12.438
   10DT     O3'  318   5.671   8.941  12.682
   11DA       P  319   5.729   8.795  12.675
   11DA     O1P  320   5.673   8.724  12.800
   11DA     O2P  321   5.871   8.792  12.660
   11DA     O5'  322   5.657   8.721  12.543
   11DA     C5'  323   5.519   8.702  12.539
   11DA    H5'1  324   5.473   8.797  12.514
   11DA    H5'2  325   5.479   8.670  12.634
   11DA     C4'  326   5.459   8.606  12.431
   11DA     H4'  327   5.358   8.570  12.455
   11DA     O4'  328   5.425   8.679  12.313
   11DA     C1'  329   5.528   8.657  12.216
   11DA     H1'  330   5.488   8.605  12.129
   11DA      N9  331   5.579   8.782  12.161
   11DA      C8  332   5.693   8.855  12.197
   11DA      H8  333   5.770   8.821  12.263
   11DA      N7  334   5.712   8.956  12.114
   11DA      C5  335   5.605   8.948  12.020
   11DA      C6  336   5.558   9.035  11.920
   11DA      N6  337   5.616   9.150  11.879
   11DA     H61  338   5.563   9.201  11.809
   11DA     H62  339   5.703   9.181  11.920
   11DA      N1  340   5.444   9.014  11.859
   11DA      C2  341   5.376   8.905  11.895
   11DA      H2  342   5.277   8.899  11.853
   11DA      N3  343   5.400   8.813  11.987
   11DA      C4  344   5.522   8.840  12.051
   11DA     C3'  345   5.553   8.492  12.386
   11DA     H3'  346   5.608   8.468  12.477
   11DA     C2'  347   5.631   8.558  12.271
   11DA    H2'1  348   5.714   8.613  12.315
   11DA    H2'2  349   5.661   8.475  12.208
   11DA     O3'  350   5.482   8.373  12.347
   12DT       P  351   5.552   8.230  12.300
   12DT     O1P  352   5.456   8.124  12.338
   12DT     O2P  353   5.684   8.229  12.355
   12DT     O5'  354   5.557   8.243  12.142
   12DT     C5'  355   5.435   8.225  12.068
   12DT    H5'1  356   5.348   8.271  12.115
   12DT    H5'2  357   5.416   8.120  12.046
   12DT     C4'  358   5.449   8.278  11.934
   12DT     H4'  359   5.354   8.275  11.880
   12DT     O4'  360   5.494   8.414  11.929
   12DT     C1'  361   5.581   8.429  11.814
   12DT     H1'  362   5.526   8.425  11.720
   12DT      N1  363   5.661   8.558  11.827
   12DT      C6  364   5.781   8.570  11.898
   12DT      H6  365   5.825   8.492  11.958
   12DT      C5  366   5.861   8.682  11.870
   12DT      C7  367   5.999   8.685  11.934
   12DT     H71  368   6.066   8.679  11.848
   12DT     H72  369   6.007   8.786  11.974
   12DT     H73  370   6.017   8.612  12.013
   12DT      C4  371   5.817   8.791  11.781
   12DT      O4  372   5.877   8.895  11.760
   12DT      N3  373   5.693   8.770  11.726
   12DT      H3  374   5.675   8.822  11.641
   12DT      C2  375   5.612   8.660  11.747
   12DT      O2  376   5.505   8.655  11.697
   12DT     C3'  377   5.544   8.199  11.850
   12DT     H3'  378   5.594   8.114  11.897
   12DT     C2'  379   5.656   8.299  11.823
   12DT    H2'1  380   5.720   8.314  11.910
   12DT    H2'2  381   5.714   8.265  11.737
   12DT     O3'  382   5.471   8.168  11.734
   13DG       P  383   5.478   8.021  11.666
   13DG     O1P  384   5.385   7.931  11.732
   13DG     O2P  385   5.620   7.980  11.654
   13DG     O5'  386   5.421   8.056  11.522
   13DG     C5'  387   5.290   8.107  11.488
   13DG    H5'1  388   5.265   8.183  11.562
   13DG    H5'2  389   5.212   8.030  11.492
   13DG     C4'  390   5.302   8.164  11.348
   13DG     H4'  391   5.202   8.185  11.310
   13DG     O4'  392   5.374   8.288  11.348
   13DG     C1'  393   5.489   8.282  11.264
   13DG     H1'  394   5.471   8.325  11.166
   13DG      N9  395   5.597   8.348  11.343
   13DG      C8  396   5.658   8.310  11.455
   13DG      H8  397   5.620   8.219  11.499
   13DG      N7  398   5.747   8.392  11.507
   13DG      C5  399   5.754   8.488  11.403
   13DG      C6  400   5.829   8.608  11.404
   13DG      O6  401   5.888   8.655  11.498
   13DG      N1  402   5.801   8.686  11.296
   13DG      H1  403   5.834   8.781  11.285
   13DG      C2  404   5.724   8.646  11.190
   13DG      N2  405   5.720   8.739  11.093
   13DG     H21  406   5.762   8.830  11.105
   13DG     H22  407   5.645   8.716  11.028
   13DG      N3  408   5.645   8.540  11.190
   13DG      C4  409   5.663   8.464  11.305
   13DG     C3'  410   5.374   8.074  11.253
   13DG     H3'  411   5.395   7.973  11.288
   13DG     C2'  412   5.511   8.136  11.227
   13DG    H2'1  413   5.575   8.085  11.299
   13DG    H2'2  414   5.547   8.127  11.125
   13DG     O3'  415   5.303   8.060  11.132
   14DC       P  416   5.327   7.940  11.015
   14DC     O1P  417   5.206   7.934  10.934
   14DC     O2P  418   5.369   7.812  11.085
   14DC     O5'  419   5.454   7.991  10.935
   14DC     C5'  420   5.445   8.091  10.831
   14DC    H5'1  421   5.392   8.181  10.862
   14DC    H5'2  422   5.403   8.049  10.740
   14DC     C4'  423   5.588   8.130  10.789
   14DC     H4'  424   5.582   8.201  10.707
   14DC     O4'  425   5.653   8.191  10.899
   14DC     C1'  426   5.789   8.162  10.889
   14DC     H1'  427   5.818   8.218  10.800
   14DC      N1  428   5.858   8.201  11.012
   14DC      C6  429   5.866   8.123  11.122
   14DC      H6  430   5.818   8.026  11.120
   14DC      C5  431   5.938   8.167  11.226
   14DC      H5  432   5.946   8.107  11.316
   14DC      C4  433   6.007   8.294  11.221
   14DC      N4  434   6.062   8.337  11.328
   14DC     H41  435   6.098   8.431  11.323
   14DC     H42  436   6.088   8.282  11.409
   14DC      N3  437   5.989   8.374  11.127
   14DC      C2  438   5.909   8.333  11.022
   14DC      O2  439   5.889   8.417  10.933
   14DC     C3'  440   5.680   8.020  10.746
   14DC     H3'  441   5.640   7.920  10.731
   14DC     C2'  442   5.787   8.017  10.850
   14DC    H2'1  443   5.765   7.948  10.932
   14DC    H2'2  444   5.874   7.970  10.803
   14DC     O3'  445   5.743   8.061  10.629
   15DG       P  446   5.690   8.017  10.485
   15DG     O1P  447   5.542   8.039  10.475
   15DG     O2P  448   5.742   7.882  10.451
   15DG     O5'  449   5.768   8.124  10.389
   15DG     C5'  450   5.770   8.264  10.408
   15DG    H5'1  451   5.693   8.295  10.479
   15DG    H5'2  452   5.738   8.314  10.317
   15DG     C4'  453   5.904   8.319  10.450
   15DG     H4'  454   5.903   8.428  10.447
   15DG     O4'  455   5.943   8.270  10.578
   15DG     C1'  456   6.076   8.316  10.601
   15DG     H1'  457   6.077   8.423  10.620
   15DG      N9  458   6.132   8.251  10.718
   15DG      C8  459   6.119   8.122  10.766
   15DG      H8  460   6.072   8.039  10.715
   15DG      N7  461   6.174   8.112  10.883
   15DG      C5  462   6.230   8.233  10.914
   15DG      C6  463   6.307   8.276  11.027
   15DG      O6  464   6.336   8.223  11.132
   15DG      N1  465   6.372   8.395  11.002
   15DG      H1  466   6.434   8.428  11.074
   15DG      C2  467   6.338   8.476  10.897
   15DG      N2  468   6.397   8.588  10.890
   15DG     H21  469   6.473   8.610  10.952
   15DG     H22  470   6.383   8.644  10.807
   15DG      N3  471   6.252   8.448  10.797
   15DG      C4  472   6.203   8.320  10.810
   15DG     C3'  473   6.029   8.277  10.372
   15DG     H3'  474   6.037   8.173  10.343
   15DG     C2'  475   6.150   8.284  10.474
   15DG    H2'1  476   6.202   8.189  10.483
   15DG    H2'2  477   6.223   8.362  10.450
   15DG     O3'  478   6.051   8.373  10.260
   16DT3      P  479   6.171   8.344  10.148
   16DT3    O1P  480   6.143   8.421  10.021
   16DT3    O2P  481   6.198   8.197  10.139
   16DT3    O5'  482   6.296   8.413  10.222
   16DT3    C5'  483   6.315   8.555  10.216
   16DT3   H5'1  484   6.234   8.599  10.273
   16DT3   H5'2  485   6.311   8.603  10.117
   16DT3    C4'  486   6.451   8.591  10.278
   16DT3    H4'  487   6.452   8.699  10.289
   16DT3    O4'  488   6.459   8.549  10.409
   16DT3    C1'  489   6.576   8.477  10.435
   16DT3    H1'  490   6.649   8.549  10.473
   16DT3     N1  491   6.560   8.373  10.543
   16DT3     C6  492   6.500   8.245  10.519
   16DT3     H6  493   6.462   8.212  10.424
   16DT3     C5  494   6.484   8.156  10.625
   16DT3     C7  495   6.423   8.026  10.593
   16DT3    H71  496   6.327   8.025  10.541
   16DT3    H72  497   6.496   7.967  10.537
   16DT3    H73  498   6.407   7.969  10.684
   16DT3     C4  499   6.531   8.191  10.756
   16DT3     O4  500   6.530   8.120  10.859
   16DT3     N3  501   6.586   8.320  10.768
   16DT3     H3  502   6.629   8.346  10.855
   16DT3     C2  503   6.594   8.412  10.670
   16DT3     O2  504   6.646   8.517  10.694
   16DT3    C3'  505   6.573   8.537  10.204
   16DT3    H3'  506   6.543   8.512  10.102
   16DT3    C2'  507   6.615   8.423  10.295
   16DT3   H2'1  508   6.553   8.340  10.260
   16DT3   H2'2  509   6.720   8.399  10.286
   16DT3    O3'  510   6.672   8.632  10.195
   16DT3    H3T  511   6.743   8.617  10.258
   17DC5    H5T  512  10.306   4.760   9.919
   17DC5    O5'  513  10.243   4.688   9.923
   17DC5    C5'  514  10.118   4.736   9.959
   17DC5   H5'1  515  10.044   4.656   9.957
   17DC5   H5'2  516  10.086   4.812   9.887
   17DC5    C4'  517  10.114   4.795  10.098
   17DC5    H4'  518  10.149   4.722  10.171
   17DC5    O4'  519  10.198   4.906  10.106
   17DC5    C1'  520  10.130   5.016  10.175
   17DC5    H1'  521  10.149   5.001  10.282
   17DC5     N1  522  10.196   5.137  10.123
   17DC5     C6  523  10.167   5.184   9.997
   17DC5     H6  524  10.075   5.164   9.943
   17DC5     C5  525  10.253   5.273   9.944
   17DC5     H5  526  10.228   5.318   9.849
   17DC5     C4  527  10.367   5.312  10.019
   17DC5     N4  528  10.449   5.402   9.972
   17DC5    H41  529  10.511   5.439  10.043
   17DC5    H42  530  10.446   5.442   9.879
   17DC5     N3  531  10.385   5.285  10.143
   17DC5     C2  532  10.305   5.189  10.193
   17DC5     O2  533  10.336   5.149  10.307
   17DC5    C3'  534   9.980   4.841  10.156
   17DC5    H3'  535   9.898   4.801  10.097
   17DC5    C2'  536   9.983   4.993  10.147
   17DC5   H2'1  537   9.951   5.015  10.045
   17DC5   H2'2  538   9.917   5.046  10.216
   17DC5    O3'  539   9.955   4.813  10.292
   18DG       P  540   9.808   4.791  10.361
   18DG     O1P  541   9.820   4.685  10.464
   18DG     O2P  542   9.705   4.778  10.254
   18DG     O5'  543   9.795   4.934  10.441
   18DG     C5'  544   9.855   4.956  10.569
   18DG    H5'1  545   9.956   4.916  10.567
   18DG    H5'2  546   9.811   4.895  10.649
   18DG     C4'  547   9.866   5.102  10.616
   18DG     H4'  548   9.889   5.101  10.723
   18DG     O4'  549   9.959   5.177  10.549
   18DG     C1'  550   9.909   5.303  10.515
   18DG     H1'  551   9.908   5.370  10.601
   18DG      N9  552   9.989   5.369  10.410
   18DG      C8  553   9.978   5.368  10.277
   18DG      H8  554   9.910   5.305  10.222
   18DG      N7  555  10.056   5.453  10.217
   18DG      C5  556  10.122   5.515  10.325
   18DG      C6  557  10.221   5.618  10.331
   18DG      O6  558  10.276   5.674  10.233
   18DG      N1  559  10.262   5.643  10.461
   18DG      H1  560  10.330   5.718  10.464
   18DG      C2  561  10.211   5.591  10.574
   18DG      N2  562  10.238   5.641  10.696
   18DG     H21  563  10.304   5.717  10.700
   18DG     H22  564  10.183   5.601  10.771
   18DG      N3  565  10.115   5.502  10.574
   18DG      C4  566  10.079   5.469  10.445
   18DG     C3'  567   9.735   5.184  10.594
   18DG     H3'  568   9.652   5.117  10.570
   18DG     C2'  569   9.768   5.266  10.472
   18DG    H2'1  570   9.768   5.198  10.387
   18DG    H2'2  571   9.703   5.353  10.469
   18DG     O3'  572   9.703   5.262  10.709
   19DC       P  573   9.594   5.209  10.808
   19DC     O1P  574   9.592   5.062  10.812
   19DC     O2P  575   9.464   5.277  10.777
   19DC     O5'  576   9.627   5.257  10.959
   19DC     C5'  577   9.743   5.222  11.029
   19DC    H5'1  578   9.810   5.160  10.969
   19DC    H5'2  579   9.710   5.160  11.113
   19DC     C4'  580   9.811   5.344  11.098
   19DC     H4'  581   9.889   5.314  11.168
   19DC     O4'  582   9.866   5.429  10.996
   19DC     C1'  583   9.815   5.560  11.004
   19DC     H1'  584   9.879   5.615  11.073
   19DC      N1  585   9.826   5.615  10.864
   19DC      C6  586   9.740   5.572  10.765
   19DC      H6  587   9.652   5.514  10.788
   19DC      C5  588   9.763   5.605  10.636
   19DC      H5  589   9.702   5.567  10.555
   19DC      C4  590   9.876   5.694  10.610
   19DC      N4  591   9.905   5.729  10.494
   19DC     H41  592   9.981   5.795  10.485
   19DC     H42  593   9.846   5.711  10.413
   19DC      N3  594   9.945   5.753  10.709
   19DC      C2  595   9.932   5.702  10.833
   19DC      O2  596  10.009   5.744  10.919
   19DC     C3'  597   9.707   5.437  11.172
   19DC     H3'  598   9.617   5.379  11.193
   19DC     C2'  599   9.674   5.540  11.061
   19DC    H2'1  600   9.602   5.503  10.988
   19DC    H2'2  601   9.632   5.632  11.103
   19DC     O3'  602   9.755   5.497  11.292
   20DA       P  603   9.667   5.584  11.396
   20DA     O1P  604   9.720   5.559  11.529
   20DA     O2P  605   9.521   5.560  11.367
   20DA     O5'  606   9.684   5.736  11.344
   20DA     C5'  607   9.811   5.797  11.334
   20DA    H5'1  608   9.876   5.747  11.263
   20DA    H5'2  609   9.862   5.778  11.429
   20DA     C4'  610   9.817   5.952  11.311
   20DA     H4'  611   9.906   5.988  11.363
   20DA     O4'  612   9.827   5.969  11.177
   20DA     C1'  613   9.719   6.053  11.129
   20DA     H1'  614   9.757   6.153  11.109
   20DA      N9  615   9.671   5.996  11.002
   20DA      C8  616   9.606   5.875  10.988
   20DA      H8  617   9.561   5.825  11.073
   20DA      N7  618   9.579   5.838  10.864
   20DA      C5  619   9.647   5.942  10.794
   20DA      C6  620   9.681   5.973  10.656
   20DA      N6  621   9.650   5.899  10.548
   20DA     H61  622   9.656   5.945  10.458
   20DA     H62  623   9.580   5.828  10.566
   20DA      N1  624   9.750   6.083  10.623
   20DA      C2  625   9.789   6.161  10.719
   20DA      H2  626   9.854   6.238  10.681
   20DA      N3  627   9.777   6.139  10.852
   20DA      C4  628   9.703   6.031  10.880
   20DA     C3'  629   9.698   6.029  11.366
   20DA     H3'  630   9.640   5.967  11.435
   20DA     C2'  631   9.616   6.060  11.240
   20DA    H2'1  632   9.547   5.977  11.237
   20DA    H2'2  633   9.565   6.156  11.249
   20DA     O3'  634   9.740   6.140  11.428
   21DC       P  635   9.639   6.242  11.502
   21DC     O1P  636   9.709   6.309  11.613
   21DC     O2P  637   9.512   6.168  11.537
   21DC     O5'  638   9.608   6.347  11.393
   21DC     C5'  639   9.708   6.442  11.365
   21DC    H5'1  640   9.809   6.400  11.370
   21DC    H5'2  641   9.718   6.506  11.452
   21DC     C4'  642   9.689   6.523  11.236
   21DC     H4'  643   9.766   6.598  11.220
   21DC     O4'  644   9.696   6.423  11.132
   21DC     C1'  645   9.589   6.456  11.048
   21DC     H1'  646   9.625   6.540  10.989
   21DC      N1  647   9.539   6.353  10.952
   21DC      C6  648   9.461   6.246  10.994
   21DC      H6  649   9.440   6.235  11.100
   21DC      C5  650   9.388   6.169  10.915
   21DC      H5  651   9.343   6.087  10.970
   21DC      C4  652   9.404   6.191  10.774
   21DC      N4  653   9.349   6.119  10.685
   21DC     H41  654   9.356   6.137  10.586
   21DC     H42  655   9.288   6.044  10.714
   21DC      N3  656   9.490   6.289  10.727
   21DC      C2  657   9.555   6.373  10.812
   21DC      O2  658   9.613   6.471  10.767
   21DC     C3'  659   9.555   6.601  11.222
   21DC     H3'  660   9.511   6.599  11.322
   21DC     C2'  661   9.471   6.511  11.134
   21DC    H2'1  662   9.418   6.440  11.198
   21DC    H2'2  663   9.406   6.567  11.066
   21DC     O3'  664   9.572   6.721  11.154
   22DG       P  665   9.499   6.854  11.205
   22DG     O1P  666   9.576   6.905  11.323
   22DG     O2P  667   9.357   6.828  11.231
   22DG     O5'  668   9.516   6.974  11.091
   22DG     C5'  669   9.639   7.036  11.052
   22DG    H5'1  670   9.718   6.973  11.092
   22DG    H5'2  671   9.653   7.135  11.096
   22DG     C4'  672   9.668   7.051  10.900
   22DG     H4'  673   9.761   7.106  10.888
   22DG     O4'  674   9.669   6.920  10.842
   22DG     C1'  675   9.597   6.912  10.718
   22DG     H1'  676   9.662   6.867  10.642
   22DG      N9  677   9.486   6.813  10.726
   22DG      C8  678   9.452   6.728  10.823
   22DG      H8  679   9.488   6.731  10.925
   22DG      N7  680   9.354   6.647  10.795
   22DG      C5  681   9.330   6.673  10.658
   22DG      C6  682   9.246   6.612  10.567
   22DG      O6  683   9.156   6.529  10.583
   22DG      N1  684   9.258   6.666  10.442
   22DG      H1  685   9.184   6.643  10.377
   22DG      C2  686   9.358   6.745  10.400
   22DG      N2  687   9.367   6.772  10.269
   22DG     H21  688   9.311   6.721  10.201
   22DG     H22  689   9.438   6.841  10.250
   22DG      N3  690   9.434   6.810  10.486
   22DG      C4  691   9.418   6.769  10.616
   22DG     C3'  692   9.564   7.128  10.824
   22DG     H3'  693   9.466   7.117  10.871
   22DG     C2'  694   9.564   7.058  10.690
   22DG    H2'1  695   9.470   7.058  10.636
   22DG    H2'2  696   9.642   7.109  10.632
   22DG     O3'  697   9.605   7.265  10.807
   23DC       P  698   9.511   7.394  10.766
   23DC     O1P  699   9.600   7.514  10.767
   23DC     O2P  700   9.400   7.394  10.863
   23DC     O5'  701   9.451   7.372  10.621
   23DC     C5'  702   9.528   7.380  10.499
   23DC    H5'1  703   9.608   7.308  10.485
   23DC    H5'2  704   9.576   7.478  10.487
   23DC     C4'  705   9.427   7.376  10.384
   23DC     H4'  706   9.481   7.378  10.289
   23DC     O4'  707   9.368   7.251  10.393
   23DC     C1'  708   9.228   7.266  10.392
   23DC     H1'  709   9.194   7.261  10.288
   23DC      N1  710   9.167   7.155  10.469
   23DC      C6  711   9.182   7.138  10.599
   23DC      H6  712   9.249   7.211  10.641
   23DC      C5  713   9.123   7.039  10.676
   23DC      H5  714   9.150   7.025  10.780
   23DC      C4  715   9.035   6.953  10.601
   23DC      N4  716   8.979   6.845  10.652
   23DC     H41  717   8.919   6.793  10.590
   23DC     H42  718   9.012   6.810  10.741
   23DC      N3  719   9.019   6.962  10.468
   23DC      C2  720   9.086   7.058  10.401
   23DC      O2  721   9.076   7.067  10.279
   23DC     C3'  722   9.323   7.488  10.384
   23DC     H3'  723   9.358   7.560  10.458
   23DC     C2'  724   9.194   7.414  10.426
   23DC    H2'1  725   9.181   7.421  10.534
   23DC    H2'2  726   9.096   7.442  10.387
   23DC     O3'  727   9.296   7.545  10.252
   24DA       P  728   9.193   7.664  10.234
   24DA     O1P  729   9.243   7.751  10.124
   24DA     O2P  730   9.169   7.721  10.369
   24DA     O5'  731   9.059   7.598  10.183
   24DA     C5'  732   9.058   7.525  10.061
   24DA    H5'1  733   9.142   7.456  10.073
   24DA    H5'2  734   9.080   7.593   9.978
   24DA     C4'  735   8.927   7.456  10.025
   24DA     H4'  736   8.948   7.419   9.924
   24DA     O4'  737   8.902   7.349  10.111
   24DA     C1'  738   8.772   7.365  10.149
   24DA     H1'  739   8.701   7.317  10.081
   24DA      N9  740   8.778   7.313  10.290
   24DA      C8  741   8.827   7.375  10.404
   24DA      H8  742   8.863   7.476  10.393
   24DA      N7  743   8.829   7.300  10.511
   24DA      C5  744   8.759   7.188  10.465
   24DA      C6  745   8.717   7.066  10.524
   24DA      N6  746   8.741   7.037  10.649
   24DA     H61  747   8.708   6.951  10.690
   24DA     H62  748   8.760   7.121  10.702
   24DA      N1  749   8.657   6.973  10.447
   24DA      C2  750   8.634   6.999  10.322
   24DA      H2  751   8.574   6.928  10.267
   24DA      N3  752   8.668   7.104  10.253
   24DA      C4  753   8.732   7.194  10.332
   24DA     C3'  754   8.812   7.556  10.019
   24DA     H3'  755   8.848   7.659  10.028
   24DA     C2'  756   8.746   7.513  10.147
   24DA    H2'1  757   8.787   7.561  10.236
   24DA    H2'2  758   8.642   7.542  10.129
   24DA     O3'  759   8.743   7.542   9.896
   25DC       P  760   8.621   7.636   9.857
   25DC     O1P  761   8.626   7.666   9.711
   25DC     O2P  762   8.631   7.758   9.936
   25DC     O5'  763   8.490   7.563   9.902
   25DC     C5'  764   8.468   7.438   9.849
   25DC    H5'1  765   8.562   7.388   9.825
   25DC    H5'2  766   8.427   7.456   9.750
   25DC     C4'  767   8.385   7.353   9.945
   25DC     H4'  768   8.370   7.255   9.900
   25DC     O4'  769   8.446   7.336  10.077
   25DC     C1'  770   8.346   7.343  10.175
   25DC     H1'  771   8.284   7.254  10.159
   25DC      N1  772   8.396   7.338  10.318
   25DC      C6  773   8.455   7.443  10.378
   25DC      H6  774   8.481   7.527  10.315
   25DC      C5  775   8.493   7.434  10.509
   25DC      H5  776   8.539   7.520  10.556
   25DC      C4  777   8.459   7.315  10.588
   25DC      N4  778   8.477   7.307  10.714
   25DC     H41  779   8.447   7.222  10.759
   25DC     H42  780   8.531   7.377  10.764
   25DC      N3  781   8.406   7.211  10.524
   25DC      C2  782   8.368   7.218  10.394
   25DC      O2  783   8.321   7.112  10.343
   25DC     C3'  784   8.250   7.424   9.977
   25DC     H3'  785   8.243   7.506   9.906
   25DC     C2'  786   8.267   7.467  10.124
   25DC    H2'1  787   8.329   7.556  10.136
   25DC    H2'2  788   8.175   7.493  10.176
   25DC     O3'  789   8.143   7.328   9.959
   26DG       P  790   8.027   7.351   9.855
   26DG     O1P  791   8.078   7.344   9.716
   26DG     O2P  792   7.954   7.477   9.893
   26DG     O5'  793   7.922   7.236   9.869
   26DG     C5'  794   7.957   7.107   9.824
   26DG    H5'1  795   8.066   7.102   9.817
   26DG    H5'2  796   7.900   7.088   9.733
   26DG     C4'  797   7.906   6.992   9.919
   26DG     H4'  798   7.932   6.899   9.869
   26DG     O4'  799   7.982   6.994  10.039
   26DG     C1'  800   7.891   6.989  10.151
   26DG     H1'  801   7.869   6.888  10.183
   26DG      N9  802   7.933   7.091  10.255
   26DG      C8  803   8.003   7.207  10.238
   26DG      H8  804   8.027   7.260  10.147
   26DG      N7  805   8.048   7.258  10.348
   26DG      C5  806   7.996   7.175  10.448
   26DG      C6  807   8.016   7.177  10.585
   26DG      O6  808   8.075   7.262  10.655
   26DG      N1  809   7.953   7.067  10.647
   26DG      H1  810   7.951   7.072  10.748
   26DG      C2  811   7.893   6.967  10.581
   26DG      N2  812   7.833   6.874  10.655
   26DG     H21  813   7.832   6.880  10.756
   26DG     H22  814   7.769   6.809  10.610
   26DG      N3  815   7.872   6.962  10.451
   26DG      C4  816   7.930   7.074  10.390
   26DG     C3'  817   7.759   7.002   9.953
   26DG     H3'  818   7.715   7.076   9.887
   26DG     C2'  819   7.766   7.059  10.093
   26DG    H2'1  820   7.785   7.167  10.087
   26DG    H2'2  821   7.674   7.048  10.150
   26DG     O3'  822   7.712   6.869   9.953
   27DC       P  823   7.559   6.840   9.964
   27DC     O1P  824   7.528   6.701   9.912
   27DC     O2P  825   7.488   6.956   9.911
   27DC     O5'  826   7.551   6.851  10.125
   27DC     C5'  827   7.427   6.904  10.179
   27DC    H5'1  828   7.343   6.837  10.162
   27DC    H5'2  829   7.397   7.002  10.141
   27DC     C4'  830   7.449   6.926  10.331
   27DC     H4'  831   7.457   6.828  10.378
   27DC     O4'  832   7.557   7.013  10.365
   27DC     C1'  833   7.541   7.048  10.498
   27DC     H1'  834   7.570   6.961  10.558
   27DC      N1  835   7.611   7.175  10.536
   27DC      C6  836   7.657   7.256  10.438
   27DC      H6  837   7.641   7.240  10.332
   27DC      C5  838   7.719   7.367  10.481
   27DC      H5  839   7.757   7.438  10.409
   27DC      C4  840   7.748   7.391  10.611
   27DC      N4  841   7.813   7.496  10.647
   27DC     H41  842   7.845   7.494  10.743
   27DC     H42  843   7.861   7.550  10.577
   27DC      N3  844   7.705   7.308  10.705
   27DC      C2  845   7.630   7.205  10.672
   27DC      O2  846   7.574   7.138  10.758
   27DC     C3'  847   7.325   6.984  10.402
   27DC     H3'  848   7.264   6.900  10.435
   27DC     C2'  849   7.391   7.053  10.525
   27DC    H2'1  850   7.359   7.155  10.547
   27DC    H2'2  851   7.377   7.002  10.620
   27DC     O3'  852   7.258   7.085  10.323
   28DG       P  853   7.100   7.071  10.294
   28DG     O1P  854   7.068   6.930  10.268
   28DG     O2P  855   7.066   7.171  10.193
   28DG     O5'  856   7.025   7.122  10.426
   28DG     C5'  857   6.975   7.024  10.520
   28DG    H5'1  858   7.055   6.951  10.534
   28DG    H5'2  859   6.889   6.969  10.481
   28DG     C4'  860   6.960   7.093  10.655
   28DG     H4'  861   6.928   7.022  10.731
   28DG     O4'  862   7.086   7.151  10.691
   28DG     C1'  863   7.071   7.290  10.709
   28DG     H1'  864   7.073   7.311  10.816
   28DG      N9  865   7.190   7.363  10.660
   28DG      C8  866   7.217   7.411  10.533
   28DG      H8  867   7.150   7.378  10.454
   28DG      N7  868   7.324   7.484  10.516
   28DG      C5  869   7.375   7.489  10.651
   28DG      C6  870   7.474   7.570  10.711
   28DG      O6  871   7.547   7.657  10.664
   28DG      N1  872   7.479   7.559  10.849
   28DG      H1  873   7.544   7.621  10.895
   28DG      C2  874   7.410   7.463  10.916
   28DG      N2  875   7.426   7.457  11.043
   28DG     H21  876   7.474   7.530  11.093
   28DG     H22  877   7.392   7.370  11.082
   28DG      N3  878   7.312   7.387  10.868
   28DG      C4  879   7.295   7.407  10.733
   28DG     C3'  880   6.865   7.209  10.663
   28DG     H3'  881   6.782   7.197  10.594
   28DG     C2'  882   6.941   7.336  10.645
   28DG    H2'1  883   6.953   7.357  10.539
   28DG    H2'2  884   6.892   7.423  10.688
   28DG     O3'  885   6.816   7.204  10.799
   29DC       P  886   6.684   7.277  10.843
   29DC     O1P  887   6.581   7.186  10.897
   29DC     O2P  888   6.648   7.374  10.738
   29DC     O5'  889   6.749   7.361  10.968
   29DC     C5'  890   6.812   7.296  11.078
   29DC    H5'1  891   6.903   7.248  11.045
   29DC    H5'2  892   6.745   7.217  11.111
   29DC     C4'  893   6.848   7.381  11.202
   29DC     H4'  894   6.873   7.313  11.284
   29DC     O4'  895   6.973   7.450  11.175
   29DC     C1'  896   6.942   7.583  11.149
   29DC     H1'  897   6.972   7.649  11.230
   29DC      N1  898   7.003   7.636  11.026
   29DC      C6  899   6.949   7.622  10.893
   29DC      H6  900   6.853   7.573  10.883
   29DC      C5  901   7.030   7.661  10.787
   29DC      H5  902   6.990   7.656  10.686
   29DC      C4  903   7.160   7.710  10.813
   29DC      N4  904   7.230   7.760  10.713
   29DC     H41  905   7.321   7.802  10.728
   29DC     H42  906   7.196   7.767  10.618
   29DC      N3  907   7.215   7.721  10.933
   29DC      C2  908   7.144   7.675  11.038
   29DC      O2  909   7.200   7.678  11.148
   29DC     C3'  910   6.739   7.477  11.244
   29DC     H3'  911   6.638   7.437  11.236
   29DC     C2'  912   6.786   7.599  11.156
   29DC    H2'1  913   6.736   7.589  11.060
   29DC    H2'2  914   6.745   7.690  11.201
   29DC     O3'  915   6.765   7.509  11.385
   30DA       P  916   6.676   7.615  11.466
   30DA     O1P  917   6.635   7.567  11.600
   30DA     O2P  918   6.570   7.666  11.374
   30DA     O5'  919   6.788   7.729  11.474
   30DA     C5'  920   6.886   7.716  11.581
   30DA    H5'1  921   6.966   7.654  11.541
   30DA    H5'2  922   6.856   7.662  11.671
   30DA     C4'  923   6.953   7.852  11.616
   30DA     H4'  924   7.015   7.841  11.705
   30DA     O4'  925   7.051   7.897  11.521
   30DA     C1'  926   7.002   8.015  11.455
   30DA     H1'  927   7.063   8.098  11.490
   30DA      N9  928   7.001   8.017  11.311
   30DA      C8  929   6.922   7.938  11.225
   30DA      H8  930   6.843   7.873  11.260
   30DA      N7  931   6.958   7.949  11.102
   30DA      C5  932   7.074   8.030  11.105
   30DA      C6  933   7.158   8.093  11.009
   30DA      N6  934   7.139   8.074  10.879
   30DA     H61  935   7.191   8.123  10.808
   30DA     H62  936   7.050   8.038  10.850
   30DA      N1  937   7.256   8.179  11.051
   30DA      C2  938   7.273   8.203  11.179
   30DA      H2  939   7.350   8.273  11.207
   30DA      N3  940   7.203   8.151  11.278
   30DA      C4  941   7.104   8.069  11.232
   30DA     C3'  942   6.850   7.961  11.647
   30DA     H3'  943   6.750   7.917  11.651
   30DA     C2'  944   6.867   8.041  11.515
   30DA    H2'1  945   6.782   8.014  11.452
   30DA    H2'2  946   6.856   8.147  11.538
   30DA     O3'  947   6.881   8.022  11.775
   31DT       P  948   6.829   8.166  11.825
   31DT     O1P  949   6.870   8.183  11.970
   31DT     O2P  950   6.682   8.164  11.804
   31DT     O5'  951   6.906   8.286  11.744
   31DT     C5'  952   7.050   8.302  11.755
   31DT    H5'1  953   7.094   8.202  11.757
   31DT    H5'2  954   7.076   8.348  11.850
   31DT     C4'  955   7.103   8.398  11.646
   31DT     H4'  956   7.210   8.417  11.654
   31DT     O4'  957   7.089   8.348  11.513
   31DT     C1'  958   7.022   8.450  11.438
   31DT     H1'  959   7.103   8.518  11.413
   31DT      N1  960   6.961   8.403  11.313
   31DT      C6  961   6.839   8.333  11.306
   31DT      H6  962   6.773   8.321  11.390
   31DT      C5  963   6.791   8.283  11.188
   31DT      C7  964   6.658   8.207  11.197
   31DT     H71  965   6.601   8.221  11.289
   31DT     H72  966   6.589   8.243  11.120
   31DT     H73  967   6.673   8.102  11.172
   31DT      C4  968   6.859   8.307  11.062
   31DT      O4  969   6.823   8.260  10.959
   31DT      N3  970   6.970   8.381  11.075
   31DT      H3  971   7.017   8.412  10.991
   31DT      C2  972   7.026   8.419  11.194
   31DT      O2  973   7.131   8.477  11.188
   31DT     C3'  974   7.030   8.527  11.653
   31DT     H3'  975   6.986   8.544  11.752
   31DT     C2'  976   6.933   8.520  11.533
   31DT    H2'1  977   6.849   8.458  11.564
   31DT    H2'2  978   6.903   8.622  11.506
   31DT     O3'  979   7.125   8.629  11.626
   32DC       P  980   7.092   8.783  11.661
   32DC     O1P  981   7.224   8.852  11.662
   32DC     O2P  982   6.998   8.799  11.776
   32DC     O5'  983   7.012   8.842  11.518
   32DC     C5'  984   7.071   8.829  11.386
   32DC    H5'1  985   7.114   8.729  11.379
   32DC    H5'2  986   7.161   8.890  11.376
   32DC     C4'  987   6.972   8.861  11.273
   32DC     H4'  988   7.023   8.859  11.177
   32DC     O4'  989   6.871   8.765  11.273
   32DC     C1'  990   6.751   8.829  11.237
   32DC     H1'  991   6.742   8.845  11.129
   32DC      N1  992   6.647   8.728  11.277
   32DC      C6  993   6.611   8.698  11.412
   32DC      H6  994   6.658   8.753  11.492
   32DC      C5  995   6.540   8.590  11.441
   32DC      H5  996   6.518   8.563  11.543
   32DC      C4  997   6.483   8.518  11.332
   32DC      N4  998   6.408   8.414  11.355
   32DC     H41  999   6.358   8.368  11.281
   32DC     H42 1000   6.399   8.396  11.454
   32DC      N3 1001   6.515   8.537  11.207
   32DC      C2 1002   6.592   8.642  11.179
   32DC      O2 1003   6.629   8.663  11.062
   32DC     C3' 1004   6.906   8.999  11.285
   32DC     H3' 1005   6.939   9.056  11.373
   32DC     C2' 1006   6.758   8.956  11.319
   32DC    H2'1 1007   6.746   8.942  11.427
   32DC    H2'2 1008   6.689   9.032  11.284
   32DC     O3' 1009   6.924   9.083  11.175
   33DG       P 1010   6.839   9.208  11.145
   33DG     O1P 1011   6.924   9.286  11.050
   33DG     O2P 1012   6.792   9.273  11.270
   33DG     O5' 1013   6.713   9.161  11.067
   33DG     C5' 1014   6.723   9.115  10.930
   33DG    H5'1 1015   6.779   9.021  10.933
   33DG    H5'2 1016   6.785   9.188  10.878
   33DG     C4' 1017   6.590   9.097  10.855
   33DG     H4' 1018   6.605   9.081  10.748
   33DG     O4' 1019   6.522   8.980  10.903
   33DG     C1' 1020   6.392   9.012  10.943
   33DG     H1' 1021   6.323   9.000  10.860
   33DG      N9 1022   6.367   8.913  11.041
   33DG      C8 1023   6.415   8.914  11.170
   33DG      H8 1024   6.483   8.993  11.201
   33DG      N7 1025   6.352   8.833  11.253
   33DG      C5 1026   6.256   8.776  11.170
   33DG      C6 1027   6.160   8.675  11.189
   33DG      O6 1028   6.134   8.611  11.289
   33DG      N1 1029   6.077   8.648  11.082
   33DG      H1 1030   6.010   8.575  11.100
   33DG      C2 1031   6.088   8.711  10.960
   33DG      N2 1032   6.008   8.661  10.870
   33DG     H21 1033   5.953   8.582  10.899
   33DG     H22 1034   6.027   8.687  10.775
   33DG      N3 1035   6.173   8.809  10.936
   33DG      C4 1036   6.260   8.831  11.041
   33DG     C3' 1037   6.486   9.214  10.884
   33DG     H3' 1038   6.542   9.293  10.934
   33DG     C2' 1039   6.387   9.154  10.984
   33DG    H2'1 1040   6.424   9.165  11.086
   33DG    H2'2 1041   6.293   9.202  10.959
   33DG     O3' 1042   6.433   9.245  10.756
   34DC       P 1043   6.359   9.378  10.727
   34DC     O1P 1044   6.348   9.383  10.579
   34DC     O2P 1045   6.428   9.491  10.798
   34DC     O5' 1046   6.217   9.367  10.798
   34DC     C5' 1047   6.109   9.305  10.730
   34DC    H5'1 1048   6.130   9.208  10.685
   34DC    H5'2 1049   6.088   9.371  10.646
   34DC     C4' 1050   5.986   9.283  10.819
   34DC     H4' 1051   5.899   9.242  10.767
   34DC     O4' 1052   6.017   9.192  10.917
   34DC     C1' 1053   5.937   9.216  11.029
   34DC     H1' 1054   5.833   9.192  11.006
   34DC      N1 1055   5.981   9.148  11.154
   34DC      C6 1056   6.066   9.189  11.250
   34DC      H6 1057   6.105   9.289  11.237
   34DC      C5 1058   6.099   9.116  11.360
   34DC      H5 1059   6.157   9.162  11.438
   34DC      C4 1060   6.033   8.988  11.375
   34DC      N4 1061   6.053   8.907  11.476
   34DC     H41 1062   6.011   8.816  11.481
   34DC     H42 1063   6.102   8.952  11.552
   34DC      N3 1064   5.946   8.949  11.282
   34DC      C2 1065   5.923   9.024  11.169
   34DC      O2 1066   5.846   8.976  11.085
   34DC     C3' 1067   5.946   9.419  10.885
   34DC     H3' 1068   6.021   9.496  10.869
   34DC     C2' 1069   5.939   9.367  11.036
   34DC    H2'1 1070   6.026   9.406  11.089
   34DC    H2'2 1071   5.855   9.410  11.089
   34DC     O3' 1072   5.820   9.476  10.858
   35DA       P 1073   5.712   9.435  10.750
   35DA     O1P 1074   5.783   9.397  10.624
   35DA     O2P 1075   5.614   9.545  10.747
   35DA     O5' 1076   5.650   9.304  10.831
   35DA     C5' 1077   5.634   9.182  10.762
   35DA    H5'1 1078   5.731   9.132  10.760
   35DA    H5'2 1079   5.604   9.204  10.660
   35DA     C4' 1080   5.524   9.089  10.814
   35DA     H4' 1081   5.509   8.999  10.753
   35DA     O4' 1082   5.560   9.051  10.940
   35DA     C1' 1083   5.471   9.108  11.040
   35DA     H1' 1084   5.404   9.028  11.073
   35DA      N9 1085   5.556   9.135  11.158
   35DA      C8 1086   5.631   9.244  11.180
   35DA      H8 1087   5.615   9.337  11.127
   35DA      N7 1088   5.704   9.243  11.289
   35DA      C5 1089   5.667   9.115  11.341
   35DA      C6 1090   5.697   9.039  11.454
   35DA      N6 1091   5.778   9.071  11.553
   35DA     H61 1092   5.790   9.000  11.624
   35DA     H62 1093   5.831   9.157  11.552
   35DA      N1 1094   5.636   8.923  11.479
   35DA      C2 1095   5.544   8.877  11.394
   35DA      H2 1096   5.494   8.783  11.413
   35DA      N3 1097   5.508   8.938  11.278
   35DA      C4 1098   5.575   9.054  11.261
   35DA     C3' 1099   5.388   9.165  10.828
   35DA     H3' 1100   5.367   9.242  10.754
   35DA     C2' 1101   5.387   9.213  10.975
   35DA    H2'1 1102   5.432   9.312  10.983
   35DA    H2'2 1103   5.290   9.203  11.024
   35DA     O3' 1104   5.288   9.072  10.806
   36DT       P 1105   5.131   9.107  10.797
   36DT     O1P 1106   5.061   9.012  10.705
   36DT     O2P 1107   5.125   9.254  10.759
   36DT     O5' 1108   5.077   9.090  10.949
   36DT     C5' 1109   5.088   8.968  11.024
   36DT    H5'1 1110   5.195   8.950  11.031
   36DT    H5'2 1111   5.041   8.899  10.953
   36DT     C4' 1112   5.027   8.967  11.156
   36DT     H4' 1113   4.985   8.869  11.179
   36DT     O4' 1114   5.134   9.009  11.249
   36DT     C1' 1115   5.067   9.060  11.356
   36DT     H1' 1116   5.023   8.977  11.412
   36DT      N1 1117   5.170   9.130  11.434
   36DT      C6 1118   5.230   9.253  11.386
   36DT      H6 1119   5.199   9.298  11.294
   36DT      C5 1120   5.330   9.307  11.459
   36DT      C7 1121   5.394   9.436  11.408
   36DT     H71 1122   5.498   9.417  11.384
   36DT     H72 1123   5.344   9.480  11.322
   36DT     H73 1124   5.393   9.504  11.494
   36DT      C4 1125   5.377   9.242  11.583
   36DT      O4 1126   5.463   9.284  11.660
   36DT      N3 1127   5.318   9.122  11.617
   36DT      H3 1128   5.355   9.079  11.700
   36DT      C2 1129   5.219   9.058  11.544
   36DT      O2 1130   5.162   8.954  11.579
   36DT     C3' 1131   4.906   9.057  11.171
   36DT     H3' 1132   4.884   9.125  11.088
   36DT     C2' 1133   4.956   9.143  11.284
   36DT    H2'1 1134   5.010   9.227  11.239
   36DT    H2'2 1135   4.880   9.179  11.353
   36DT     O3' 1136   4.791   8.983  11.211
   37DA       P 1137   4.647   9.052  11.255
   37DA     O1P 1138   4.537   8.990  11.183
   37DA     O2P 1139   4.664   9.200  11.239
   37DA     O5' 1140   4.646   9.007  11.407
   37DA     C5' 1141   4.624   8.869  11.437
   37DA    H5'1 1142   4.702   8.812  11.387
   37DA    H5'2 1143   4.526   8.846  11.394
   37DA     C4' 1144   4.629   8.828  11.583
   37DA     H4' 1145   4.609   8.721  11.588
   37DA     O4' 1146   4.758   8.842  11.630
   37DA     C1' 1147   4.754   8.933  11.734
   37DA     H1' 1148   4.760   8.876  11.827
   37DA      N9 1149   4.854   9.038  11.721
   37DA      C8 1150   4.863   9.148  11.640
   37DA      H8 1151   4.790   9.163  11.562
   37DA      N7 1152   4.965   9.229  11.658
   37DA      C5 1153   5.017   9.175  11.776
   37DA      C6 1154   5.116   9.222  11.867
   37DA      N6 1155   5.184   9.327  11.857
   37DA     H61 1156   5.258   9.351  11.922
   37DA     H62 1157   5.155   9.387  11.781
   37DA      N1 1158   5.156   9.150  11.970
   37DA      C2 1159   5.086   9.044  11.995
   37DA      H2 1160   5.114   8.995  12.087
   37DA      N3 1161   4.983   8.990  11.930
   37DA      C4 1162   4.957   9.057  11.813
   37DA     C3' 1163   4.521   8.897  11.670
   37DA     H3' 1164   4.443   8.952  11.615
   37DA     C2' 1165   4.613   8.993  11.735
   37DA    H2'1 1166   4.605   9.089  11.685
   37DA    H2'2 1167   4.591   9.028  11.836
   37DA     O3' 1168   4.473   8.800  11.768
   38DC       P 1169   4.338   8.825  11.856
   38DC     O1P 1170   4.282   8.692  11.899
   38DC     O2P 1171   4.247   8.924  11.789
   38DC     O5' 1172   4.396   8.892  11.987
   38DC     C5' 1173   4.477   8.813  12.068
   38DC    H5'1 1174   4.545   8.758  12.003
   38DC    H5'2 1175   4.416   8.735  12.115
   38DC     C4' 1176   4.544   8.913  12.160
   38DC     H4' 1177   4.604   8.851  12.227
   38DC     O4' 1178   4.636   9.003  12.095
   38DC     C1' 1179   4.628   9.125  12.166
   38DC     H1' 1180   4.685   9.120  12.260
   38DC      N1 1181   4.692   9.229  12.083
   38DC      C6 1182   4.651   9.254  11.956
   38DC      H6 1183   4.567   9.197  11.919
   38DC      C5 1184   4.719   9.345  11.875
   38DC      H5 1185   4.692   9.354  11.771
   38DC      C4 1186   4.818   9.420  11.937
   38DC      N4 1187   4.887   9.511  11.873
   38DC     H41 1188   4.975   9.540  11.914
   38DC     H42 1189   4.842   9.552  11.793
   38DC      N3 1190   4.864   9.403  12.057
   38DC      C2 1191   4.806   9.301  12.128
   38DC      O2 1192   4.855   9.287  12.234
   38DC     C3' 1193   4.441   9.001  12.235
   38DC     H3' 1194   4.341   8.966  12.210
   38DC     C2' 1195   4.473   9.133  12.186
   38DC    H2'1 1196   4.419   9.148  12.093
   38DC    H2'2 1197   4.437   9.214  12.251
   38DC     O3' 1198   4.480   8.994  12.375
   39DG       P 1199   4.373   9.016  12.496
   39DG     O1P 1200   4.419   8.931  12.611
   39DG     O2P 1201   4.237   8.999  12.448
   39DG     O5' 1202   4.389   9.170  12.539
   39DG     C5' 1203   4.501   9.205  12.627
   39DG    H5'1 1204   4.588   9.147  12.597
   39DG    H5'2 1205   4.489   9.175  12.731
   39DG     C4' 1206   4.545   9.352  12.608
   39DG     H4' 1207   4.630   9.362  12.675
   39DG     O4' 1208   4.588   9.394  12.474
   39DG     C1' 1209   4.551   9.528  12.453
   39DG     H1' 1210   4.592   9.596  12.527
   39DG      N9 1211   4.586   9.579  12.317
   39DG      C8 1212   4.519   9.569  12.200
   39DG      H8 1213   4.438   9.499  12.188
   39DG      N7 1214   4.573   9.642  12.101
   39DG      C5 1215   4.681   9.701  12.158
   39DG      C6 1216   4.771   9.800  12.114
   39DG      O6 1217   4.770   9.855  12.009
   39DG      N1 1218   4.875   9.821  12.204
   39DG      H1 1219   4.942   9.890  12.174
   39DG      C2 1220   4.893   9.758  12.319
   39DG      N2 1221   5.012   9.766  12.371
   39DG     H21 1222   5.090   9.820  12.336
   39DG     H22 1223   5.026   9.722  12.460
   39DG      N3 1224   4.803   9.678  12.371
   39DG      C4 1225   4.698   9.653  12.286
   39DG     C3' 1226   4.436   9.458  12.634
   39DG     H3' 1227   4.347   9.403  12.666
   39DG     C2' 1228   4.413   9.521  12.498
   39DG    H2'1 1229   4.347   9.454  12.442
   39DG    H2'2 1230   4.379   9.623  12.516
   39DG     O3' 1231   4.467   9.558  12.730
   40DC       P 1232   4.451   9.523  12.891
   40DC     O1P 1233   4.506   9.391  12.924
   40DC     O2P 1234   4.309   9.546  12.924
   40DC     O5' 1235   4.539   9.641  12.960
   40DC     C5' 1236   4.677   9.617  12.997
   40DC    H5'1 1237   4.715   9.543  12.928
   40DC    H5'2 1238   4.679   9.568  13.094
   40DC     C4' 1239   4.772   9.737  12.993
   40DC     H4' 1240   4.864   9.705  13.041
   40DC     O4' 1241   4.796   9.786  12.858
   40DC     C1' 1242   4.728   9.910  12.842
   40DC     H1' 1243   4.809   9.983  12.849
   40DC      N1 1244   4.657   9.925  12.717
   40DC      C6 1245   4.527   9.876  12.691
   40DC      H6 1246   4.475   9.819  12.767
   40DC      C5 1247   4.468   9.885  12.567
   40DC      H5 1248   4.369   9.843  12.556
   40DC      C4 1249   4.537   9.955  12.466
   40DC      N4 1250   4.486   9.976  12.352
   40DC     H41 1251   4.551  10.028  12.295
   40DC     H42 1252   4.390   9.955  12.328
   40DC      N3 1253   4.654  10.012  12.485
   40DC      C2 1254   4.714   9.994  12.605
   40DC      O2 1255   4.825  10.045  12.627
   40DC     C3' 1256   4.718   9.857  13.075
   40DC     H3' 1257   4.658   9.814  13.155
   40DC     C2' 1258   4.643   9.934  12.967
   40DC    H2'1 1259   4.542   9.893  12.960
   40DC    H2'2 1260   4.626  10.038  12.995
   40DC     O3' 1261   4.837   9.923  13.123
   41DA       P 1262   4.829  10.039  13.241
   41DA     O1P 1263   4.926  10.009  13.348
   41DA     O2P 1264   4.686  10.061  13.271
   41DA     O5' 1265   4.884  10.174  13.170
   41DA     C5' 1266   5.020  10.204  13.164
   41DA    H5'1 1267   5.055  10.122  13.102
   41DA    H5'2 1268   5.062  10.205  13.265
   41DA     C4' 1269   5.043  10.339  13.084
   41DA     H4' 1270   5.152  10.353  13.081
   41DA     O4' 1271   4.996  10.328  12.953
   41DA     C1' 1272   4.900  10.431  12.938
   41DA     H1' 1273   4.951  10.519  12.898
   41DA      N9 1274   4.789  10.382  12.854
   41DA      C8 1275   4.678  10.302  12.884
   41DA      H8 1276   4.664  10.264  12.985
   41DA      N7 1277   4.599  10.276  12.781
   41DA      C5 1278   4.658  10.351  12.681
   41DA      C6 1279   4.630  10.367  12.541
   41DA      N6 1280   4.525  10.323  12.478
   41DA     H61 1281   4.509  10.337  12.379
   41DA     H62 1282   4.444  10.302  12.533
   41DA      N1 1283   4.709  10.444  12.458
   41DA      C2 1284   4.813  10.507  12.516
   41DA      H2 1285   4.878  10.565  12.452
   41DA      N3 1286   4.851  10.500  12.644
   41DA      C4 1287   4.769  10.416  12.722
   41DA     C3' 1288   4.968  10.451  13.161
   41DA     H3' 1289   4.931  10.421  13.259
   41DA     C2' 1290   4.847  10.472  13.079
   41DA    H2'1 1291   4.773  10.404  13.121
   41DA    H2'2 1292   4.804  10.572  13.082
   41DA     O3' 1293   5.052  10.563  13.178
   42DC       P 1294   5.012  10.691  13.259
   42DC     O1P 1295   5.140  10.732  13.329
   42DC     O2P 1296   4.897  10.662  13.340
   42DC     O5' 1297   4.968  10.801  13.153
   42DC     C5' 1298   5.048  10.845  13.044
   42DC    H5'1 1299   5.117  10.766  13.012
   42DC    H5'2 1300   5.097  10.937  13.078
   42DC     C4' 1301   4.962  10.884  12.928
   42DC     H4' 1302   5.027  10.907  12.843
   42DC     O4' 1303   4.883  10.773  12.895
   42DC     C1' 1304   4.793  10.827  12.804
   42DC     H1' 1305   4.849  10.841  12.712
   42DC      N1 1306   4.671  10.749  12.770
   42DC      C6 1307   4.621  10.670  12.869
   42DC      H6 1308   4.662  10.654  12.967
   42DC      C5 1309   4.506  10.598  12.843
   42DC      H5 1310   4.472  10.549  12.933
   42DC      C4 1311   4.438  10.622  12.724
   42DC      N4 1312   4.332  10.555  12.696
   42DC     H41 1313   4.294  10.581  12.606
   42DC     H42 1314   4.286  10.493  12.761
   42DC      N3 1315   4.483  10.708  12.632
   42DC      C2 1316   4.607  10.776  12.652
   42DC      O2 1317   4.641  10.854  12.559
   42DC     C3' 1318   4.863  10.999  12.958
   42DC     H3' 1319   4.838  10.994  13.064
   42DC     C2' 1320   4.760  10.969  12.856
   42DC    H2'1 1321   4.669  10.976  12.915
   42DC    H2'2 1322   4.766  11.034  12.770
   42DC     O3' 1323   4.910  11.128  12.936
   43DA       P 1324   4.838  11.256  12.986
   43DA     O1P 1325   4.937  11.355  13.045
   43DA     O2P 1326   4.726  11.217  13.078
   43DA     O5' 1327   4.776  11.316  12.845
   43DA     C5' 1328   4.857  11.339  12.732
   43DA    H5'1 1329   4.924  11.259  12.701
   43DA    H5'2 1330   4.931  11.418  12.744
   43DA     C4' 1331   4.762  11.377  12.612
   43DA     H4' 1332   4.823  11.388  12.523
   43DA     O4' 1333   4.674  11.268  12.594
   43DA     C1' 1334   4.543  11.310  12.598
   43DA     H1' 1335   4.508  11.337  12.499
   43DA      N9 1336   4.469  11.201  12.644
   43DA      C8 1337   4.464  11.149  12.773
   43DA      H8 1338   4.527  11.187  12.853
   43DA      N7 1339   4.381  11.052  12.788
   43DA      C5 1340   4.326  11.039  12.658
   43DA      C6 1341   4.235  10.952  12.592
   43DA      N6 1342   4.163  10.855  12.648
   43DA     H61 1343   4.113  10.805  12.576
   43DA     H62 1344   4.179  10.833  12.745
   43DA      N1 1345   4.207  10.966  12.465
   43DA      C2 1346   4.272  11.058  12.394
   43DA      H2 1347   4.240  11.061  12.291
   43DA      N3 1348   4.350  11.154  12.443
   43DA      C4 1349   4.376  11.137  12.574
   43DA     C3' 1350   4.666  11.497  12.635
   43DA     H3' 1351   4.715  11.567  12.702
   43DA     C2' 1352   4.536  11.432  12.692
   43DA    H2'1 1353   4.544  11.401  12.796
   43DA    H2'2 1354   4.446  11.493  12.681
   43DA     O3' 1355   4.641  11.564  12.513
   44DT       P 1356   4.532  11.684  12.487
   44DT     O1P 1357   4.582  11.775  12.385
   44DT     O2P 1358   4.497  11.736  12.618
   44DT     O5' 1359   4.400  11.622  12.429
   44DT     C5' 1360   4.402  11.549  12.307
   44DT    H5'1 1361   4.452  11.453  12.319
   44DT    H5'2 1362   4.470  11.603  12.240
   44DT     C4' 1363   4.279  11.534  12.217
   44DT     H4' 1364   4.328  11.522  12.120
   44DT     O4' 1365   4.201  11.420  12.258
   44DT     C1' 1366   4.075  11.465  12.306
   44DT     H1' 1367   4.003  11.437  12.230
   44DT      N1 1368   4.053  11.382  12.431
   44DT      C6 1369   4.112  11.422  12.549
   44DT      H6 1370   4.165  11.516  12.557
   44DT      C5 1371   4.096  11.338  12.655
   44DT      C7 1372   4.160  11.375  12.787
   44DT     H71 1373   4.243  11.444  12.772
   44DT     H72 1374   4.083  11.422  12.848
   44DT     H73 1375   4.194  11.289  12.844
   44DT      C4 1376   4.024  11.214  12.651
   44DT      O4 1377   4.012  11.135  12.742
   44DT      N3 1378   3.963  11.189  12.531
   44DT      H3 1379   3.913  11.102  12.522
   44DT      C2 1380   3.981  11.266  12.416
   44DT      O2 1381   3.926  11.229  12.307
   44DT     C3' 1382   4.193  11.657  12.214
   44DT     H3' 1383   4.263  11.738  12.235
   44DT     C2' 1384   4.097  11.620  12.323
   44DT    H2'1 1385   4.147  11.646  12.416
   44DT    H2'2 1386   3.999  11.668  12.319
   44DT     O3' 1387   4.136  11.674  12.083
   45DG       P 1388   4.032  11.780  12.050
   45DG     O1P 1389   4.031  11.784  11.898
   45DG     O2P 1390   4.053  11.909  12.128
   45DG     O5' 1391   3.897  11.714  12.100
   45DG     C5' 1392   3.834  11.617  12.029
   45DG    H5'1 1393   3.907  11.535  12.026
   45DG    H5'2 1394   3.811  11.650  11.928
   45DG     C4' 1395   3.697  11.566  12.084
   45DG     H4' 1396   3.647  11.513  12.003
   45DG     O4' 1397   3.718  11.477  12.194
   45DG     C1' 1398   3.648  11.517  12.314
   45DG     H1' 1399   3.547  11.475  12.312
   45DG      N9 1400   3.712  11.478  12.444
   45DG      C8 1401   3.804  11.547  12.521
   45DG      H8 1402   3.849  11.641  12.492
   45DG      N7 1403   3.813  11.500  12.643
   45DG      C5 1404   3.725  11.390  12.645
   45DG      C6 1405   3.696  11.293  12.748
   45DG      O6 1406   3.747  11.271  12.860
   45DG      N1 1407   3.591  11.212  12.716
   45DG      H1 1408   3.550  11.150  12.785
   45DG      C2 1409   3.526  11.207  12.598
   45DG      N2 1410   3.413  11.139  12.591
   45DG     H21 1411   3.385  11.066  12.656
   45DG     H22 1412   3.350  11.158  12.514
   45DG      N3 1413   3.560  11.284  12.496
   45DG      C4 1414   3.656  11.380  12.526
   45DG     C3' 1415   3.599  11.674  12.142
   45DG     H3' 1416   3.594  11.773  12.098
   45DG     C2' 1417   3.635  11.668  12.298
   45DG    H2'1 1418   3.719  11.732  12.326
   45DG    H2'2 1419   3.544  11.703  12.347
   45DG     O3' 1420   3.468  11.625  12.126
   46DC3      P 1421   3.352  11.722  12.080
   46DC3    O1P 1422   3.355  11.722  11.932
   46DC3    O2P 1423   3.363  11.851  12.153
   46DC3    O5' 1424   3.223  11.638  12.130
   46DC3    C5' 1425   3.182  11.521  12.061
   46DC3   H5'1 1426   3.269  11.479  12.011
   46DC3   H5'2 1427   3.111  11.553  11.986
   46DC3    C4' 1428   3.134  11.413  12.157
   46DC3    H4' 1429   3.132  11.325  12.092
   46DC3    O4' 1430   3.229  11.409  12.264
   46DC3    C1' 1431   3.146  11.410  12.382
   46DC3    H1' 1432   3.109  11.309  12.402
   46DC3     N1 1433   3.230  11.460  12.493
   46DC3     C6 1434   3.326  11.554  12.471
   46DC3     H6 1435   3.332  11.597  12.372
   46DC3     C5 1436   3.415  11.600  12.565
   46DC3     H5 1437   3.496  11.666  12.538
   46DC3     C4 1438   3.398  11.532  12.688
   46DC3     N4 1439   3.463  11.577  12.791
   46DC3    H41 1440   3.432  11.533  12.876
   46DC3    H42 1441   3.547  11.631  12.776
   46DC3     N3 1442   3.299  11.452  12.718
   46DC3     C2 1443   3.212  11.405  12.621
   46DC3     O2 1444   3.118  11.331  12.651
   46DC3    C3' 1445   2.990  11.442  12.211
   46DC3    H3' 1446   2.933  11.514  12.153
   46DC3    C2' 1447   3.026  11.497  12.353
   46DC3   H2'1 1448   3.066  11.598  12.364
   46DC3   H2'2 1449   2.944  11.482  12.423
   46DC3    O3' 1450   2.919  11.327  12.233
   46DC3    H3T 1451   2.837  11.354  12.276
   47DT5    H5T 1452   7.093   9.281  10.202
   47DT5    O5' 1453   7.032   9.354  10.214
   47DT5    C5' 1454   6.903   9.298  10.255
   47DT5   H5'1 1455   6.851   9.272  10.163
   47DT5   H5'2 1456   6.839   9.360  10.318
   47DT5    C4' 1457   6.924   9.169  10.335
   47DT5    H4' 1458   7.010   9.182  10.401
   47DT5    O4' 1459   6.805   9.135  10.411
   47DT5    C1' 1460   6.815   8.991  10.418
   47DT5    H1' 1461   6.884   8.970  10.499
   47DT5     N1 1462   6.688   8.933  10.479
   47DT5     C6 1463   6.567   8.997  10.454
   47DT5     H6 1464   6.562   9.094  10.406
   47DT5     C5 1465   6.458   8.949  10.511
   47DT5     C7 1466   6.331   9.029  10.513
   47DT5    H71 1467   6.350   9.126  10.465
   47DT5    H72 1468   6.248   8.979  10.463
   47DT5    H73 1469   6.305   9.060  10.614
   47DT5     C4 1470   6.461   8.828  10.598
   47DT5     O4 1471   6.367   8.769  10.648
   47DT5     N3 1472   6.585   8.780  10.618
   47DT5     H3 1473   6.593   8.697  10.674
   47DT5     C2 1474   6.699   8.816  10.554
   47DT5     O2 1475   6.803   8.747  10.564
   47DT5    C3' 1476   6.961   9.046  10.247
   47DT5    H3' 1477   6.952   9.078  10.144
   47DT5    C2' 1478   6.857   8.943  10.283
   47DT5   H2'1 1479   6.766   8.951  10.224
   47DT5   H2'2 1480   6.910   8.848  10.286
   47DT5    O3' 1481   7.087   8.999  10.264
   48DA       P 1482   7.204   9.041  10.167
   48DA     O1P 1483   7.227   9.183  10.176
   48DA     O2P 1484   7.180   8.978  10.035
   48DA     O5' 1485   7.329   8.961  10.217
   48DA     C5' 1486   7.417   9.010  10.322
   48DA    H5'1 1487   7.375   9.086  10.387
   48DA    H5'2 1488   7.501   9.068  10.286
   48DA     C4' 1489   7.454   8.885  10.408
   48DA     H4' 1490   7.510   8.919  10.495
   48DA     O4' 1491   7.333   8.811  10.439
   48DA     C1' 1492   7.368   8.680  10.470
   48DA     H1' 1493   7.408   8.681  10.572
   48DA      N9 1494   7.258   8.589  10.485
   48DA      C8 1495   7.197   8.494  10.402
   48DA      H8 1496   7.236   8.484  10.302
   48DA      N7 1497   7.102   8.420  10.454
   48DA      C5 1498   7.105   8.465  10.587
   48DA      C6 1499   7.035   8.434  10.703
   48DA      N6 1500   6.952   8.332  10.714
   48DA     H61 1501   6.912   8.334  10.806
   48DA     H62 1502   6.910   8.291  10.632
   48DA      N1 1503   7.065   8.492  10.819
   48DA      C2 1504   7.156   8.590  10.817
   48DA      H2 1505   7.175   8.637  10.912
   48DA      N3 1506   7.229   8.634  10.716
   48DA      C4 1507   7.199   8.568  10.603
   48DA     C3' 1508   7.542   8.783  10.335
   48DA     H3' 1509   7.516   8.793  10.230
   48DA     C2' 1510   7.494   8.641  10.385
   48DA    H2'1 1511   7.479   8.582  10.294
   48DA    H2'2 1512   7.562   8.593  10.456
   48DA     O3' 1513   7.682   8.813  10.342
   49DT       P 1514   7.796   8.714  10.399
   49DT     O1P 1515   7.925   8.772  10.354
   49DT     O2P 1516   7.764   8.575  10.352
   49DT     O5' 1517   7.779   8.706  10.559
   49DT     C5' 1518   7.792   8.821  10.644
   49DT    H5'1 1519   7.715   8.897  10.628
   49DT    H5'2 1520   7.880   8.882  10.622
   49DT     C4' 1521   7.772   8.776  10.790
   49DT     H4' 1522   7.776   8.865  10.853
   49DT     O4' 1523   7.651   8.696  10.787
   49DT     C1' 1524   7.694   8.577  10.850
   49DT     H1' 1525   7.690   8.600  10.956
   49DT      N1 1526   7.592   8.474  10.806
   49DT      C6 1527   7.601   8.427  10.675
   49DT      H6 1528   7.677   8.460  10.606
   49DT      C5 1529   7.509   8.339  10.630
   49DT      C7 1530   7.514   8.296  10.481
   49DT     H71 1531   7.546   8.193  10.469
   49DT     H72 1532   7.410   8.288  10.449
   49DT     H73 1533   7.571   8.369  10.424
   49DT      C4 1534   7.408   8.281  10.719
   49DT      O4 1535   7.326   8.196  10.685
   49DT      N3 1536   7.402   8.337  10.846
   49DT      H3 1537   7.338   8.304  10.917
   49DT      C2 1538   7.490   8.430  10.889
   49DT      O2 1539   7.477   8.475  11.002
   49DT     C3' 1540   7.896   8.686  10.824
   49DT     H3' 1541   7.971   8.697  10.746
   49DT     C2' 1542   7.837   8.543  10.820
   49DT    H2'1 1543   7.847   8.507  10.717
   49DT    H2'2 1544   7.883   8.475  10.892
   49DT     O3' 1545   7.939   8.729  10.951
   50DG       P 1546   8.070   8.667  11.019
   50DG     O1P 1547   8.130   8.762  11.114
   50DG     O2P 1548   8.158   8.612  10.907
   50DG     O5' 1549   8.010   8.549  11.110
   50DG     C5' 1550   7.911   8.578  11.210
   50DG    H5'1 1551   7.850   8.664  11.184
   50DG    H5'2 1552   7.964   8.604  11.302
   50DG     C4' 1553   7.829   8.457  11.251
   50DG     H4' 1554   7.762   8.489  11.331
   50DG     O4' 1555   7.738   8.399  11.158
   50DG     C1' 1556   7.738   8.254  11.177
   50DG     H1' 1557   7.672   8.236  11.262
   50DG      N9 1558   7.696   8.182  11.059
   50DG      C8 1559   7.743   8.206  10.929
   50DG      H8 1560   7.823   8.276  10.907
   50DG      N7 1561   7.679   8.139  10.841
   50DG      C5 1562   7.586   8.066  10.920
   50DG      C6 1563   7.486   7.972  10.883
   50DG      O6 1564   7.455   7.946  10.771
   50DG      N1 1565   7.421   7.915  10.983
   50DG      H1 1566   7.344   7.853  10.961
   50DG      C2 1567   7.448   7.940  11.114
   50DG      N2 1568   7.398   7.857  11.197
   50DG     H21 1569   7.320   7.796  11.177
   50DG     H22 1570   7.412   7.869  11.296
   50DG      N3 1571   7.531   8.028  11.161
   50DG      C4 1572   7.599   8.087  11.055
   50DG     C3' 1573   7.921   8.345  11.311
   50DG     H3' 1574   8.027   8.368  11.303
   50DG     C2' 1575   7.880   8.223  11.234
   50DG    H2'1 1576   7.947   8.200  11.151
   50DG    H2'2 1577   7.871   8.137  11.301
   50DG     O3' 1578   7.891   8.335  11.448
   51DC       P 1579   7.985   8.258  11.557
   51DC     O1P 1580   7.924   8.304  11.687
   51DC     O2P 1581   8.131   8.287  11.549
   51DC     O5' 1582   7.962   8.101  11.553
   51DC     C5' 1583   7.831   8.040  11.601
   51DC    H5'1 1584   7.749   8.110  11.588
   51DC    H5'2 1585   7.856   8.023  11.706
   51DC     C4' 1586   7.789   7.913  11.530
   51DC     H4' 1587   7.695   7.883  11.577
   51DC     O4' 1588   7.768   7.936  11.389
   51DC     C1' 1589   7.760   7.807  11.347
   51DC     H1' 1590   7.664   7.770  11.384
   51DC      N1 1591   7.755   7.798  11.199
   51DC      C6 1592   7.845   7.875  11.132
   51DC      H6 1593   7.913   7.933  11.191
   51DC      C5 1594   7.857   7.861  10.997
   51DC      H5 1595   7.928   7.913  10.935
   51DC      C4 1596   7.771   7.769  10.931
   51DC      N4 1597   7.771   7.761  10.799
   51DC     H41 1598   7.714   7.689  10.758
   51DC     H42 1599   7.835   7.819  10.745
   51DC      N3 1600   7.687   7.693  10.996
   51DC      C2 1601   7.681   7.697  11.130
   51DC      O2 1602   7.607   7.615  11.183
   51DC     C3' 1603   7.890   7.794  11.542
   51DC     H3' 1604   7.991   7.835  11.549
   51DC     C2' 1605   7.870   7.723  11.413
   51DC    H2'1 1606   7.957   7.716  11.346
   51DC    H2'2 1607   7.840   7.620  11.429
   51DC     O3' 1608   7.859   7.700  11.643
   52DG       P 1609   7.940   7.709  11.777
   52DG     O1P 1610   7.854   7.771  11.872
   52DG     O2P 1611   8.081   7.751  11.756
   52DG     O5' 1612   7.941   7.549  11.821
   52DG     C5' 1613   8.002   7.449  11.735
   52DG    H5'1 1614   8.088   7.412  11.791
   52DG    H5'2 1615   8.043   7.495  11.645
   52DG     C4' 1616   7.896   7.345  11.700
   52DG     H4' 1617   7.819   7.348  11.778
   52DG     O4' 1618   7.848   7.383  11.576
   52DG     C1' 1619   7.905   7.297  11.478
   52DG     H1' 1620   7.833   7.219  11.455
   52DG      N9 1621   7.941   7.363  11.349
   52DG      C8 1622   8.043   7.452  11.316
   52DG      H8 1623   8.113   7.488  11.389
   52DG      N7 1624   8.041   7.492  11.192
   52DG      C5 1625   7.935   7.425  11.133
   52DG      C6 1626   7.882   7.421  11.002
   52DG      O6 1627   7.915   7.479  10.900
   52DG      N1 1628   7.782   7.336  10.983
   52DG      H1 1629   7.744   7.325  10.890
   52DG      C2 1630   7.712   7.269  11.081
   52DG      N2 1631   7.612   7.194  11.043
   52DG     H21 1632   7.603   7.172  10.945
   52DG     H22 1633   7.581   7.136  11.119
   52DG      N3 1634   7.760   7.269  11.209
   52DG      C4 1635   7.867   7.354  11.228
   52DG     C3' 1636   7.957   7.205  11.699
   52DG     H3' 1637   8.041   7.200  11.768
   52DG     C2' 1638   8.008   7.215  11.556
   52DG    H2'1 1639   8.107   7.261  11.553
   52DG    H2'2 1640   8.010   7.112  11.518
   52DG     O3' 1641   7.859   7.103  11.715
   53DC       P 1642   7.900   6.947  11.704
   53DC     O1P 1643   7.816   6.877  11.810
   53DC     O2P 1644   8.043   6.926  11.701
   53DC     O5' 1645   7.843   6.905  11.553
   53DC     C5' 1646   7.705   6.895  11.534
   53DC    H5'1 1647   7.650   6.989  11.537
   53DC    H5'2 1648   7.665   6.835  11.615
   53DC     C4' 1649   7.672   6.827  11.398
   53DC     H4' 1650   7.566   6.800  11.395
   53DC     O4' 1651   7.691   6.913  11.292
   53DC     C1' 1652   7.785   6.850  11.202
   53DC     H1' 1653   7.719   6.805  11.128
   53DC      N1 1654   7.870   6.945  11.143
   53DC      C6 1655   7.955   7.029  11.208
   53DC      H6 1656   7.945   7.030  11.316
   53DC      C5 1657   8.047   7.100  11.137
   53DC      H5 1658   8.120   7.162  11.187
   53DC      C4 1659   8.036   7.101  10.993
   53DC      N4 1660   8.105   7.186  10.926
   53DC     H41 1661   8.099   7.195  10.825
   53DC     H42 1662   8.181   7.233  10.972
   53DC      N3 1663   7.949   7.034  10.928
   53DC      C2 1664   7.865   6.952  10.999
   53DC      O2 1665   7.785   6.888  10.937
   53DC     C3' 1666   7.757   6.702  11.382
   53DC     H3' 1667   7.805   6.675  11.476
   53DC     C2' 1668   7.865   6.737  11.276
   53DC    H2'1 1669   7.954   6.785  11.317
   53DC    H2'2 1670   7.895   6.655  11.211
   53DC     O3' 1671   7.675   6.593  11.328
   54DG       P 1672   7.731   6.440  11.323
   54DG     O1P 1673   7.615   6.348  11.335
   54DG     O2P 1674   7.840   6.429  11.423
   54DG     O5' 1675   7.808   6.419  11.178
   54DG     C5' 1676   7.732   6.444  11.056
   54DG    H5'1 1677   7.677   6.537  11.074
   54DG    H5'2 1678   7.663   6.363  11.034
   54DG     C4' 1679   7.813   6.478  10.934
   54DG     H4' 1680   7.740   6.484  10.853
   54DG     O4' 1681   7.874   6.608  10.932
   54DG     C1' 1682   8.005   6.603  10.866
   54DG     H1' 1683   7.991   6.607  10.758
   54DG      N9 1684   8.103   6.708  10.901
   54DG      C8 1685   8.151   6.748  11.025
   54DG      H8 1686   8.127   6.699  11.118
   54DG      N7 1687   8.236   6.849  11.017
   54DG      C5 1688   8.244   6.871  10.883
   54DG      C6 1689   8.326   6.963  10.814
   54DG      O6 1690   8.407   7.051  10.854
   54DG      N1 1691   8.315   6.967  10.677
   54DG      H1 1692   8.346   7.050  10.628
   54DG      C2 1693   8.242   6.873  10.614
   54DG      N2 1694   8.227   6.883  10.483
   54DG     H21 1695   8.288   6.945  10.433
   54DG     H22 1696   8.164   6.822  10.433
   54DG      N3 1697   8.160   6.789  10.672
   54DG      C4 1698   8.165   6.789  10.810
   54DG     C3' 1699   7.923   6.382  10.890
   54DG     H3' 1700   7.929   6.306  10.968
   54DG     C2' 1701   8.058   6.460  10.888
   54DG    H2'1 1702   8.099   6.458  10.988
   54DG    H2'2 1703   8.125   6.432  10.807
   54DG     O3' 1704   7.913   6.330  10.756
   55DT       P 1705   7.962   6.180  10.715
   55DT     O1P 1706   7.853   6.117  10.639
   55DT     O2P 1707   8.018   6.108  10.832
   55DT     O5' 1708   8.079   6.218  10.607
   55DT     C5' 1709   8.045   6.267  10.471
   55DT    H5'1 1710   7.964   6.337  10.490
   55DT    H5'2 1711   8.009   6.187  10.408
   55DT     C4' 1712   8.170   6.326  10.415
   55DT     H4' 1713   8.138   6.343  10.312
   55DT     O4' 1714   8.211   6.446  10.481
   55DT     C1' 1715   8.356   6.439  10.471
   55DT     H1' 1716   8.391   6.465  10.371
   55DT      N1 1717   8.422   6.535  10.557
   55DT      C6 1718   8.430   6.514  10.691
   55DT      H6 1719   8.376   6.434  10.739
   55DT      C5 1720   8.492   6.599  10.772
   55DT      C7 1721   8.478   6.564  10.926
   55DT     H71 1722   8.562   6.506  10.963
   55DT     H72 1723   8.465   6.659  10.978
   55DT     H73 1724   8.390   6.501  10.939
   55DT      C4 1725   8.565   6.715  10.709
   55DT      O4 1726   8.634   6.791  10.776
   55DT      N3 1727   8.547   6.735  10.575
   55DT      H3 1728   8.593   6.815  10.534
   55DT      C2 1729   8.479   6.647  10.495
   55DT      O2 1730   8.470   6.673  10.378
   55DT     C3' 1731   8.287   6.227  10.409
   55DT     H3' 1732   8.261   6.130  10.451
   55DT     C2' 1733   8.394   6.293  10.497
   55DT    H2'1 1734   8.386   6.261  10.601
   55DT    H2'2 1735   8.498   6.269  10.471
   55DT     O3' 1736   8.328   6.205  10.276
   56DG       P 1737   8.384   6.062  10.227
   56DG     O1P 1738   8.264   5.978  10.225
   56DG     O2P 1739   8.501   6.024  10.304
   56DG     O5' 1740   8.435   6.099  10.077
   56DG     C5' 1741   8.355   6.174   9.980
   56DG    H5'1 1742   8.265   6.226  10.013
   56DG    H5'2 1743   8.310   6.101   9.913
   56DG     C4' 1744   8.436   6.279   9.905
   56DG     H4' 1745   8.385   6.329   9.823
   56DG     O4' 1746   8.477   6.361  10.005
   56DG     C1' 1747   8.620   6.408   9.999
   56DG     H1' 1748   8.642   6.497   9.941
   56DG      N9 1749   8.663   6.445  10.137
   56DG      C8 1750   8.639   6.367  10.247
   56DG      H8 1751   8.586   6.273  10.245
   56DG      N7 1752   8.697   6.412  10.360
   56DG      C5 1753   8.752   6.537  10.317
   56DG      C6 1754   8.817   6.648  10.385
   56DG      O6 1755   8.838   6.654  10.505
   56DG      N1 1756   8.848   6.754  10.310
   56DG      H1 1757   8.865   6.841  10.358
   56DG      C2 1758   8.836   6.755  10.176
   56DG      N2 1759   8.883   6.853  10.111
   56DG     H21 1760   8.943   6.920  10.156
   56DG     H22 1761   8.888   6.820  10.016
   56DG      N3 1762   8.772   6.660  10.108
   56DG      C4 1763   8.734   6.554  10.183
   56DG     C3' 1764   8.571   6.221   9.853
   56DG     H3' 1765   8.569   6.113   9.865
   56DG     C2' 1766   8.689   6.281   9.939
   56DG    H2'1 1767   8.719   6.214  10.019
   56DG    H2'2 1768   8.768   6.317   9.874
   56DG     O3' 1769   8.579   6.256   9.718
   57DC       P 1770   8.695   6.192   9.622
   57DC     O1P 1771   8.646   6.229   9.490
   57DC     O2P 1772   8.715   6.053   9.665
   57DC     O5' 1773   8.827   6.279   9.651
   57DC     C5' 1774   8.823   6.426   9.633
   57DC    H5'1 1775   8.727   6.459   9.674
   57DC    H5'2 1776   8.816   6.443   9.526
   57DC     C4' 1777   8.934   6.504   9.681
   57DC     H4' 1778   8.910   6.604   9.644
   57DC     O4' 1779   8.932   6.498   9.829
   57DC     C1' 1780   9.069   6.500   9.877
   57DC     H1' 1781   9.108   6.601   9.878
   57DC      N1 1782   9.082   6.443  10.014
   57DC      C6 1783   9.051   6.312  10.040
   57DC      H6 1784   9.012   6.245   9.964
   57DC      C5 1785   9.037   6.273  10.169
   57DC      H5 1786   8.999   6.175  10.189
   57DC      C4 1787   9.075   6.363  10.274
   57DC      N4 1788   9.096   6.329  10.397
   57DC     H41 1789   9.113   6.405  10.462
   57DC     H42 1790   9.100   6.232  10.424
   57DC      N3 1791   9.108   6.490  10.249
   57DC      C2 1792   9.114   6.530  10.117
   57DC      O2 1793   9.150   6.645  10.099
   57DC     C3' 1794   9.068   6.452   9.639
   57DC     H3' 1795   9.053   6.361   9.581
   57DC     C2' 1796   9.137   6.415   9.770
   57DC    H2'1 1797   9.129   6.307   9.787
   57DC    H2'2 1798   9.241   6.447   9.777
   57DC     O3' 1799   9.136   6.552   9.567
   58DG       P 1800   9.276   6.534   9.485
   58DG     O1P 1801   9.285   6.650   9.392
   58DG     O2P 1802   9.291   6.397   9.438
   58DG     O5' 1803   9.388   6.554   9.594
   58DG     C5' 1804   9.412   6.685   9.659
   58DG    H5'1 1805   9.317   6.736   9.673
   58DG    H5'2 1806   9.472   6.743   9.589
   58DG     C4' 1807   9.468   6.664   9.799
   58DG     H4' 1808   9.472   6.765   9.840
   58DG     O4' 1809   9.398   6.582   9.889
   58DG     C1' 1810   9.482   6.552   9.997
   58DG     H1' 1811   9.478   6.636  10.066
   58DG      N9 1812   9.428   6.440  10.077
   58DG      C8 1813   9.375   6.324  10.024
   58DG      H8 1814   9.357   6.310   9.919
   58DG      N7 1815   9.361   6.230  10.112
   58DG      C5 1816   9.416   6.277  10.233
   58DG      C6 1817   9.440   6.217  10.358
   58DG      O6 1818   9.414   6.109  10.408
   58DG      N1 1819   9.522   6.298  10.441
   58DG      H1 1820   9.540   6.267  10.536
   58DG      C2 1821   9.569   6.422  10.405
   58DG      N2 1822   9.632   6.489  10.498
   58DG     H21 1823   9.615   6.457  10.592
   58DG     H22 1824   9.694   6.568  10.485
   58DG      N3 1825   9.540   6.478  10.294
   58DG      C4 1826   9.458   6.403  10.208
   58DG     C3' 1827   9.610   6.601   9.802
   58DG     H3' 1828   9.612   6.520   9.729
   58DG     C2' 1829   9.619   6.525   9.934
   58DG    H2'1 1830   9.643   6.421   9.914
   58DG    H2'2 1831   9.692   6.574   9.998
   58DG     O3' 1832   9.707   6.708   9.782
   59DT       P 1833   9.864   6.683   9.764
   59DT     O1P 1834   9.923   6.812   9.726
   59DT     O2P 1835   9.878   6.569   9.673
   59DT     O5' 1836   9.921   6.639   9.900
   59DT     C5' 1837   9.934   6.734  10.008
   59DT    H5'1 1838   9.834   6.767  10.037
   59DT    H5'2 1839   9.982   6.824   9.971
   59DT     C4' 1840  10.007   6.678  10.130
   59DT     H4' 1841  10.030   6.764  10.193
   59DT     O4' 1842   9.917   6.581  10.189
   59DT     C1' 1843   9.998   6.463  10.212
   59DT     H1' 1844  10.056   6.483  10.302
   59DT      N1 1845   9.905   6.342  10.222
   59DT      C6 1846   9.847   6.281  10.109
   59DT      H6 1847   9.852   6.324  10.010
   59DT      C5 1848   9.774   6.166  10.123
   59DT      C7 1849   9.707   6.104  10.000
   59DT     H71 1850   9.731   6.163   9.911
   59DT     H72 1851   9.732   5.998   9.989
   59DT     H73 1852   9.599   6.110  10.008
   59DT      C4 1853   9.754   6.107  10.254
   59DT      O4 1854   9.683   6.011  10.276
   59DT      N3 1855   9.812   6.175  10.359
   59DT      H3 1856   9.784   6.153  10.454
   59DT      C2 1857   9.886   6.291  10.351
   59DT      O2 1858   9.916   6.350  10.455
   59DT     C3' 1859  10.136   6.604  10.104
   59DT     H3' 1860  10.196   6.637  10.020
   59DT     C2' 1861  10.089   6.465  10.085
   59DT    H2'1 1862  10.032   6.453   9.993
   59DT    H2'2 1863  10.176   6.399  10.077
   59DT     O3' 1864  10.221   6.613  10.218
   60DG       P 1865  10.324   6.730  10.227
   60DG     O1P 1866  10.249   6.855  10.227
   60DG     O2P 1867  10.434   6.697  10.127
   60DG     O5' 1868  10.389   6.730  10.370
   60DG     C5' 1869  10.322   6.770  10.488
   60DG    H5'1 1870  10.215   6.789  10.475
   60DG    H5'2 1871  10.355   6.867  10.527
   60DG     C4' 1872  10.338   6.670  10.596
   60DG     H4' 1873  10.298   6.713  10.688
   60DG     O4' 1874  10.256   6.557  10.564
   60DG     C1' 1875  10.330   6.443  10.586
   60DG     H1' 1876  10.319   6.413  10.690
   60DG      N9 1877  10.284   6.328  10.504
   60DG      C8 1878  10.289   6.317  10.372
   60DG      H8 1879  10.334   6.392  10.309
   60DG      N7 1880  10.216   6.211  10.328
   60DG      C5 1881  10.174   6.145  10.445
   60DG      C6 1882  10.108   6.019  10.471
   60DG      O6 1883  10.063   5.938  10.386
   60DG      N1 1884  10.094   5.991  10.603
   60DG      H1 1885  10.034   5.913  10.627
   60DG      C2 1886  10.126   6.079  10.704
   60DG      N2 1887  10.086   6.051  10.828
   60DG     H21 1888  10.043   5.962  10.848
   60DG     H22 1889  10.079   6.131  10.890
   60DG      N3 1890  10.182   6.197  10.685
   60DG      C4 1891  10.221   6.217  10.553
   60DG     C3' 1892  10.483   6.619  10.615
   60DG     H3' 1893  10.549   6.686  10.560
   60DG     C2' 1894  10.476   6.479  10.557
   60DG    H2'1 1895  10.491   6.475  10.449
   60DG    H2'2 1896  10.550   6.416  10.606
   60DG     O3' 1897  10.517   6.618  10.756
   61DC       P 1898  10.669   6.615  10.809
   61DC     O1P 1899  10.673   6.680  10.942
   61DC     O2P 1900  10.757   6.666  10.705
   61DC     O5' 1901  10.699   6.459  10.824
   61DC     C5' 1902  10.617   6.386  10.917
   61DC    H5'1 1903  10.514   6.416  10.900
   61DC    H5'2 1904  10.656   6.412  11.016
   61DC     C4' 1905  10.625   6.233  10.896
   61DC     H4' 1906  10.580   6.194  10.987
   61DC     O4' 1907  10.556   6.190  10.777
   61DC     C1' 1908  10.630   6.079  10.727
   61DC     H1' 1909  10.623   5.999  10.801
   61DC      N1 1910  10.568   6.041  10.597
   61DC      C6 1911  10.582   6.121  10.483
   61DC      H6 1912  10.622   6.221  10.495
   61DC      C5 1913  10.529   6.077  10.365
   61DC      H5 1914  10.543   6.134  10.275
   61DC      C4 1915  10.462   5.953  10.365
   61DC      N4 1916  10.418   5.906  10.255
   61DC     H41 1917  10.360   5.823  10.251
   61DC     H42 1918  10.421   5.966  10.174
   61DC      N3 1919  10.447   5.874  10.470
   61DC      C2 1920  10.503   5.917  10.586
   61DC      O2 1921  10.490   5.839  10.682
   61DC     C3' 1922  10.775   6.182  10.871
   61DC     H3' 1923  10.851   6.258  10.890
   61DC     C2' 1924  10.773   6.124  10.731
   61DC    H2'1 1925  10.789   6.212  10.668
   61DC    H2'2 1926  10.844   6.043  10.714
   61DC     O3' 1927  10.801   6.083  10.966
   62DG3      P 1928  10.948   6.048  11.013
   62DG3    O1P 1929  10.940   6.030  11.158
   62DG3    O2P 1930  11.040   6.147  10.961
   62DG3    O5' 1931  10.984   5.923  10.932
   62DG3    C5' 1932  10.972   5.788  10.984
   62DG3   H5'1 1933  11.002   5.782  11.088
   62DG3   H5'2 1934  11.035   5.719  10.927
   62DG3    C4' 1935  10.830   5.735  10.957
   62DG3    H4' 1936  10.759   5.778  11.028
   62DG3    O4' 1937  10.790   5.752  10.822
   62DG3    C1' 1938  10.741   5.626  10.768
   62DG3    H1' 1939  10.639   5.619  10.806
   62DG3     N9 1940  10.740   5.619  10.619
   62DG3     C8 1941  10.810   5.697  10.531
   62DG3     H8 1942  10.889   5.767  10.557
   62DG3     N7 1943  10.778   5.674  10.409
   62DG3     C5 1944  10.680   5.575  10.414
   62DG3     C6 1945  10.604   5.507  10.313
   62DG3     O6 1946  10.615   5.519  10.191
   62DG3     N1 1947  10.515   5.420  10.369
   62DG3     H1 1948  10.450   5.365  10.315
   62DG3     C2 1949  10.502   5.394  10.503
   62DG3     N2 1950  10.411   5.303  10.537
   62DG3    H21 1951  10.370   5.248  10.463
   62DG3    H22 1952  10.402   5.289  10.637
   62DG3     N3 1953  10.569   5.453  10.605
   62DG3     C4 1954  10.655   5.541  10.545
   62DG3    C3' 1955  10.839   5.582  10.979
   62DG3    H3' 1956  10.931   5.548  11.027
   62DG3    C2' 1957  10.827   5.527  10.838
   62DG3   H2'1 1958  10.925   5.528  10.789
   62DG3   H2'2 1959  10.784   5.427  10.833
   62DG3    O3' 1960  10.730   5.533  11.050
   62DG3    H3T 1961  10.647   5.560  11.012
   63SOL     OW 1962   9.104   0.516  11.334
   63SOL    HW1 1963   9.153   0.436  11.314
   63SOL    HW2 1964   9.014   0.487  11.347
   64SOL     OW 1965   3.723   5.282   8.245
   64SOL    HW1 1966   3.717   5.198   8.200
   64SOL    HW2 1967   3.742   5.346   8.176
   65SOL     OW 1968  12.997   0.455  11.033
   65SOL    HW1 1969  12.903   0.437  11.024
   65SOL    HW2 1970  13.024   0.403  11.108
   66SOL     OW 1971   4.236   0.964   5.455
   66SOL    HW1 1972   4.313   0.912   5.475
   66SOL    HW2 1973   4.162   0.904   5.466
   67SOL     OW 1974   6.771   7.182   5.588
   67SOL    HW1 1975   6.677   7.200   5.586
   67SOL    HW2 1976   6.803   7.217   5.505
   68SOL     OW 1977   0.301   7.557  11.901
   68SOL    HW1 1978   0.305   7.584  11.993
   68SOL    HW2 1979   0.392   7.561  11.871
   69SOL     OW 1980   0.985   4.685  13.172
   69SOL    HW1 1981   0.929   4.632  13.230
   69SOL    HW2 1982   0.978   4.642  13.087
   70SOL     OW 1983   5.699   6.047  12.328
   70SOL    HW1 1984   5.664   6.008  12.248
   70SOL    HW2 1985   5.788   6.012  12.334
   71SOL     OW 1986  13.392   8.514  14.461
   71SOL    HW1 1987  13.328   8.576  14.428
   71SOL    HW2 1988  13.453   8.567  14.512
   72SOL     OW 1989   1.145  11.063  13.041
   72SOL    HW1 1990   1.061  11.107  13.056
   72SOL    HW2 1991   1.126  10.971  13.058
   73SOL     OW 1992   5.745   9.776   8.249
   73SOL    HW1 1993   5.761   9.698   8.196
   73SOL    HW2 1994   5.690   9.831   8.194
   74SOL     OW 1995   2.652   0.266   6.755
   74SOL    HW1 1996   2.586   0.229   6.814
   74SOL    HW2 1997   2.635   0.223   6.671
   75SOL     OW 1998  14.675   1.432  10.435
   75SOL    HW1 1999  14.661   1.518  10.394
   75SOL    HW2 2000  14.609   1.375  10.395
   76SOL     OW 2001   6.956   4.012  11.432
   76SOL    HW1 2002   7.011   3.993  11.509
   76SOL    HW2 2003   6.979   4.101  11.408
   77SOL     OW 2004   8.093   4.006   1.788
   77SOL    HW1 2005   8.115   3.929   1.841
   77SOL    HW2 2006   8.036   4.059   1.844
   78SOL     OW 2007  11.772   9.101   4.315
   78SOL    HW1 2008  11.837   9.157   4.273
   78SOL    HW2 2009  11.776   9.018   4.267
   79SOL     OW 2010   9.012   5.314  14.105
   79SOL    HW1 2011   8.997   5.298  14.012
   79SOL    HW2 2012   8.952   5.254  14.149
   80SOL     OW 2013   3.804   1.430  11.055
   80SOL    HW1 2014   3.759   1.444  11.138
   80SOL    HW2 2015   3.870   1.363  11.074
   81SOL     OW 2016   9.011   8.651  11.998
   81SOL    HW1 2017   9.070   8.696  11.937
   81SOL    HW2 2018   9.067   8.625  12.071
   82SOL     OW 2019   5.426   0.612   5.505
   82SOL    HW1 2020   5.406   0.693   5.457
   82SOL    HW2 2021   5.506   0.579   5.464
   83SOL     OW 2022   1.528  13.605   8.575
   83SOL    HW1 2023   1.555  13.643   8.659
   83SOL    HW2 2024   1.488  13.678   8.528
   84SOL     OW 2025   8.174   3.220   6.391
   84SOL    HW1 2026   8.099   3.163   6.377
   84SOL    HW2 2027   8.220   3.182   6.466
   85SOL     OW 2028  11.161   2.742  11.342
   85SOL    HW1 2029  11.229   2.740  11.274
   85SOL    HW2 2030  11.185   2.673  11.403
   86SOL     OW 2031   6.892  12.919  13.440
   86SOL    HW1 2032   6.850  12.840  13.475
   86SOL    HW2 2033   6.975  12.924  13.486
   87SOL     OW 2034   9.989   1.644  14.389
   87SOL    HW1 2035  10.060   1.660  14.326
   87SOL    HW2 2036   9.937   1.724  14.387
   88SOL     OW 2037   3.159  11.509  13.273
   88SOL    HW1 2038   3.192  11.426  13.307
   88SOL    HW2 2039   3.064  11.498  13.273
   89SOL     OW 2040  12.263   8.681   7.650
   89SOL    HW1 2041  12.241   8.742   7.579
   89SOL    HW2 2042  12.292   8.737   7.722
   90SOL     OW 2043  11.023   0.284   3.440
   90SOL    HW1 2044  10.935   0.259   3.466
   90SOL    HW2 2045  11.064   0.202   3.412
   91SOL     OW 2046  13.307  12.461  14.693
   91SOL    HW1 2047  13.397  12.474  14.665
   91SOL    HW2 2048  13.263  12.543  14.670
   92SOL     OW 2049  14.194  14.849   2.819
   92SOL    HW1 2050  14.286  14.830   2.801
   92SOL    HW2 2051  14.146  14.807   2.748
   93SOL     OW 2052   5.338  12.991   3.411
   93SOL    HW1 2053   5.248  13.011   3.435
   93SOL    HW2 2054   5.385  12.993   3.495
   94SOL     OW 2055   1.085   1.546  10.380
   94SOL    HW1 2056   1.085   1.631  10.423
   94SOL    HW2 2057   1.166   1.545  10.328
   95SOL     OW 2058   1.229  13.783   4.994
   95SOL    HW1 2059   1.301  13.845   5.009
   95SOL    HW2 2060   1.152  13.837   4.983
   96SOL     OW 2061   8.798   1.843  10.858
   96SOL    HW1 2062   8.744   1.830  10.780
   96SOL    HW2 2063   8.823   1.936  10.854
   97SOL     OW 2064   5.919  14.288   4.010
   97SOL    HW1 2065   5.926  14.282   3.914
   97SOL    HW2 2066   5.868  14.368   4.025
   98SOL     OW 2067   0.976   4.375   2.732
   98SOL    HW1 2068   0.937   4.450   2.775
   98SOL    HW2 2069   0.996   4.314   2.803
   99SOL     OW 2070   5.111   1.938   1.793
   99SOL    HW1 2071   5.105   2.017   1.738
   99SOL    HW2 2072   5.172   1.881   1.746
  100SOL     OW 2073   3.075   1.272   2.240
  100SOL    HW1 2074   3.131   1.196   2.253
  100SOL    HW2 2075   3.096   1.302   2.151
  101SOL     OW 2076  11.033   5.123   9.583
  101SOL    HW1 2077  11.038   5.150   9.491
  101SOL    HW2 2078  10.982   5.192   9.625
  102SOL     OW 2079  14.839  10.045   0.064
  102SOL    HW1 2080  14.771   9.978   0.063
  102SOL    HW2 2081   0.001  10.036  14.861
  103SOL     OW 2082  13.545   9.042  11.661
  103SOL    HW1 2083  13.450   9.042  11.653
  103SOL    HW2 2084  13.567   9.132  11.687
  104SOL     OW 2085   0.667   9.374  10.737
  104SOL    HW1 2086   0.667   9.469  10.752
  104SOL    HW2 2087   0.739   9.360  10.674
  105SOL     OW 2088  10.937   7.564   4.867
  105SOL    HW1 2089  10.920   7.494   4.929
  105SOL    HW2 2090  11.019   7.538   4.823
  106SOL     OW 2091   5.229   1.413   6.685
  106SOL    HW1 2092   5.169   1.413   6.611
  106SOL    HW2 2093   5.234   1.322   6.713
  107SOL     OW 2094   1.345  12.149   4.125
  107SOL    HW1 2095   1.408  12.119   4.059
  107SOL    HW2 2096   1.263  12.160   4.076
  108SOL     OW 2097  10.512   1.941  14.458
  108SOL    HW1 2098  10.475   2.019  14.417
  108SOL    HW2 2099  10.451   1.920  14.529
  109SOL     OW 2100  11.408  10.240   3.369
  109SOL    HW1 2101  11.431  10.293   3.294
  109SOL    HW2 2102  11.491  10.208   3.403
  110SOL     OW 2103   6.370   5.693   4.755
  110SOL    HW1 2104   6.410   5.750   4.689
  110SOL    HW2 2105   6.316   5.632   4.705
  111SOL     OW 2106   0.719   8.786   3.924
  111SOL    HW1 2107   0.729   8.873   3.885
  111SOL    HW2 2108   0.665   8.800   4.001
  112SOL     OW 2109   6.110   6.030   1.639
  112SOL    HW1 2110   6.029   5.982   1.656
  112SOL    HW2 2111   6.131   6.009   1.548
  113SOL     OW 2112   9.562   4.056  14.746
  113SOL    HW1 2113   9.472   4.031  14.764
  113SOL    HW2 2114   9.556   4.143  14.705
  114SOL     OW 2115   0.268  10.524  11.088
  114SOL    HW1 2116   0.206  10.461  11.051
  114SOL    HW2 2117   0.309  10.564  11.011
  115SOL     OW 2118  11.913  10.920   1.818
  115SOL    HW1 2119  11.981  10.893   1.879
  115SOL    HW2 2120  11.853  10.845   1.816
  116SOL     OW 2121   3.965  10.774  10.705
  116SOL    HW1 2122   3.996  10.683  10.707
  116SOL    HW2 2123   3.929  10.789  10.792
  117SOL     OW 2124   0.572  12.637  11.379
  117SOL    HW1 2125   0.622  12.715  11.353
  117SOL    HW2 2126   0.635  12.565  11.374
  118SOL     OW 2127  10.061   4.134   6.112
  118SOL    HW1 2128  10.137   4.170   6.065
  118SOL    HW2 2129  10.083   4.041   6.124
  119SOL     OW 2130   4.963   7.353   1.083
  119SOL    HW1 2131   4.972   7.258   1.079
  119SOL    HW2 2132   5.052   7.386   1.069
  120SOL     OW 2133   1.889  11.555  12.309
  120SOL    HW1 2134   1.980  11.567  12.282
  120SOL    HW2 2135   1.838  11.584  12.233
  121SOL     OW 2136  13.403   9.615   4.250
  121SOL    HW1 2137  13.318   9.585   4.218
  121SOL    HW2 2138  13.464   9.595   4.180
  122SOL     OW 2139   0.087   3.236  12.436
  122SOL    HW1 2140   0.014   3.191  12.393
  122SOL    HW2 2141   0.051   3.321  12.462
  123SOL     OW 2142  13.664   4.367   9.104
  123SOL    HW1 2143  13.664   4.436   9.170
  123SOL    HW2 2144  13.615   4.404   9.030
  124SOL     OW 2145  11.149   8.448  11.950
  124SOL    HW1 2146  11.121   8.514  11.887
  124SOL    HW2 2147  11.143   8.491  12.035
  125SOL     OW 2148   9.297  12.485   7.500
  125SOL    HW1 2149   9.212  12.462   7.464
  125SOL    HW2 2150   9.281  12.560   7.556
  126SOL     OW 2151   9.355   5.076   0.187
  126SOL    HW1 2152   9.419   5.079   0.116
  126SOL    HW2 2153   9.394   5.018   0.252
  127SOL     OW 2154   0.008   7.619   4.384
  127SOL    HW1 2155  14.813   7.563   4.392
  127SOL    HW2 2156  14.877   7.687   4.450
  128SOL     OW 2157   5.049   6.257   4.428
  128SOL    HW1 2158   5.022   6.198   4.358
  128SOL    HW2 2159   5.143   6.240   4.438
  129SOL     OW 2160  12.607   6.896  14.311
  129SOL    HW1 2161  12.680   6.855  14.358
  129SOL    HW2 2162  12.532   6.883  14.369
  130SOL     OW 2163   3.029   2.378   5.136
  130SOL    HW1 2164   3.093   2.309   5.156
  130SOL    HW2 2165   3.040   2.441   5.207
  131SOL     OW 2166   0.397  11.497  11.411
  131SOL    HW1 2167   0.490  11.508  11.430
  131SOL    HW2 2168   0.353  11.538  11.486
  132SOL     OW 2169   9.812   9.692   8.419
  132SOL    HW1 2170   9.744   9.649   8.368
  132SOL    HW2 2171   9.835   9.770   8.367
  133SOL     OW 2172   9.926   5.862   7.914
  133SOL    HW1 2173   9.833   5.878   7.903
  133SOL    HW2 2174   9.934   5.819   7.999
  134SOL     OW 2175   7.685   1.622   1.503
  134SOL    HW1 2176   7.756   1.560   1.524
  134SOL    HW2 2177   7.618   1.604   1.569
  135SOL     OW 2178  13.242  10.434   8.248
  135SOL    HW1 2179  13.325  10.394   8.222
  135SOL    HW2 2180  13.175  10.374   8.217
  136SOL     OW 2181  12.736  11.493   6.944
  136SOL    HW1 2182  12.751  11.558   7.013
  136SOL    HW2 2183  12.816  11.496   6.890
  137SOL     OW 2184   9.350   0.282   8.679
  137SOL    HW1 2185   9.359   0.216   8.610
  137SOL    HW2 2186   9.261   0.271   8.711
  138SOL     OW 2187   3.520   2.512  13.139
  138SOL    HW1 2188   3.530   2.417  13.147
  138SOL    HW2 2189   3.429   2.524  13.114
  139SOL     OW 2190   5.578   5.058   1.748
  139SOL    HW1 2191   5.542   5.125   1.806
  139SOL    HW2 2192   5.609   5.106   1.671
  140SOL     OW 2193   1.012  10.246   3.791
  140SOL    HW1 2194   0.970  10.299   3.859
  140SOL    HW2 2195   1.054  10.310   3.734
  141SOL     OW 2196  12.211   1.948  11.795
  141SOL    HW1 2197  12.145   2.007  11.757
  141SOL    HW2 2198  12.181   1.860  11.772
  142SOL     OW 2199   2.041  11.333  12.371
  142SOL    HW1 2200   1.965  11.376  12.331
  142SOL    HW2 2201   2.104  11.404  12.386
  143SOL     OW 2202   1.208   3.217  10.525
  143SOL    HW1 2203   1.232   3.267  10.447
  143SOL    HW2 2204   1.149   3.276  10.573
  144SOL     OW 2205   5.918   4.165   7.447
  144SOL    HW1 2206   5.946   4.253   7.472
  144SOL    HW2 2207   5.823   4.173   7.434
  145SOL     OW 2208   7.343   5.035   6.724
  145SOL    HW1 2209   7.307   5.030   6.636
  145SOL    HW2 2210   7.275   4.997   6.780
  146SOL     OW 2211  11.089   2.631   9.751
  146SOL    HW1 2212  11.138   2.686   9.812
  146SOL    HW2 2213  11.081   2.685   9.672
  147SOL     OW 2214   5.452   2.977   7.291
  147SOL    HW1 2215   5.467   3.067   7.321
  147SOL    HW2 2216   5.417   2.931   7.368
  148SOL     OW 2217   9.181  11.955   9.581
  148SOL    HW1 2218   9.140  11.961   9.667
  148SOL    HW2 2219   9.130  12.016   9.527
  149SOL     OW 2220   3.963   5.874  11.446
  149SOL    HW1 2221   3.996   5.884  11.535
  149SOL    HW2 2222   3.870   5.853  11.457
  150SOL     OW 2223   8.991   7.078   7.827
  150SOL    HW1 2224   9.044   7.038   7.897
  150SOL    HW2 2225   9.018   7.032   7.748
  151SOL     OW 2226  13.633  12.643   5.459
  151SOL    HW1 2227  13.685  12.575   5.501
  151SOL    HW2 2228  13.660  12.642   5.367
  152SOL     OW 2229  11.489  12.347   0.820
  152SOL    HW1 2230  11.431  12.359   0.744
  152SOL    HW2 2231  11.545  12.424   0.819
  153SOL     OW 2232  14.338   0.325  13.652
  153SOL    HW1 2233  14.302   0.337  13.740
  153SOL    HW2 2234  14.265   0.293  13.600
  154SOL     OW 2235   7.098  10.769   1.584
  154SOL    HW1 2236   7.151  10.754   1.662
  154SOL    HW2 2237   7.112  10.861   1.562
  155SOL     OW 2238   8.137   8.167   8.367
  155SOL    HW1 2239   8.049   8.132   8.356
  155SOL    HW2 2240   8.129   8.261   8.351
  156SOL     OW 2241  10.764   6.208   7.391
  156SOL    HW1 2242  10.688   6.151   7.403
  156SOL    HW2 2243  10.825   6.182   7.460
  157SOL     OW 2244   3.503  12.159   4.995
  157SOL    HW1 2245   3.471  12.215   4.924
  157SOL    HW2 2246   3.519  12.220   5.068
  158SOL     OW 2247  10.612   4.822  11.935
  158SOL    HW1 2248  10.605   4.915  11.956
  158SOL    HW2 2249  10.592   4.817  11.841
  159SOL     OW 2250  14.804   0.277   5.981
  159SOL    HW1 2251  14.815   0.232   6.065
  159SOL    HW2 2252  14.770   0.211   5.922
  160SOL     OW 2253  13.523   4.595  14.025
  160SOL    HW1 2254  13.551   4.603  14.116
  160SOL    HW2 2255  13.429   4.578  14.031
  161SOL     OW 2256   3.005  10.655   7.886
  161SOL    HW1 2257   2.953  10.649   7.966
  161SOL    HW2 2258   2.945  10.696   7.823
  162SOL     OW 2259   9.075   5.563  11.194
  162SOL    HW1 2260   9.056   5.618  11.118
  162SOL    HW2 2261   9.106   5.480  11.156
  163SOL     OW 2262  12.005   7.604   4.708
  163SOL    HW1 2263  11.944   7.677   4.720
  163SOL    HW2 2264  12.085   7.632   4.754
  164SOL     OW 2265   5.213  11.996   5.324
  164SOL    HW1 2266   5.257  12.080   5.333
  164SOL    HW2 2267   5.132  12.007   5.374
  165SOL     OW 2268   1.009   8.188  13.773
  165SOL    HW1 2269   1.006   8.133  13.694
  165SOL    HW2 2270   1.101   8.214  13.779
  166SOL     OW 2271   1.869   6.396   3.938
  166SOL    HW1 2272   1.774   6.393   3.924
  166SOL    HW2 2273   1.894   6.484   3.911
  167SOL     OW 2274   5.259  13.753  13.357
  167SOL    HW1 2275   5.282  13.669  13.318
  167SOL    HW2 2276   5.344  13.792  13.381
  168SOL     OW 2277  12.148   2.001   7.410
  168SOL    HW1 2278  12.162   2.027   7.319
  168SOL    HW2 2279  12.080   1.933   7.405
  169SOL     OW 2280   0.647   8.994   0.894
  169SOL    HW1 2281   0.666   9.054   0.822
  169SOL    HW2 2282   0.725   8.939   0.901
  170SOL     OW 2283   7.740  13.783   7.530
  170SOL    HW1 2284   7.790  13.703   7.517
  170SOL    HW2 2285   7.724  13.816   7.441
  171SOL     OW 2286   0.266  14.256  14.548
  171SOL    HW1 2287   0.335  14.231  14.487
  171SOL    HW2 2288   0.256  14.181  14.607
  172SOL     OW 2289   3.358  13.362   0.388
  172SOL    HW1 2290   3.312  13.342   0.306
  172SOL    HW2 2291   3.371  13.277   0.429
  173SOL     OW 2292   0.801   7.093   2.924
  173SOL    HW1 2293   0.818   7.015   2.977
  173SOL    HW2 2294   0.711   7.083   2.894
  174SOL     OW 2295   2.559  10.496   1.114
  174SOL    HW1 2296   2.497  10.424   1.122
  174SOL    HW2 2297   2.505  10.574   1.110
  175SOL     OW 2298   8.619   8.930   9.658
  175SOL    HW1 2299   8.690   8.871   9.630
  175SOL    HW2 2300   8.541   8.874   9.659
  176SOL     OW 2301  10.388   7.066  10.314
  176SOL    HW1 2302  10.440   7.090  10.237
  176SOL    HW2 2303  10.331   6.995  10.283
  177SOL     OW 2304  10.202   6.709   8.561
  177SOL    HW1 2305  10.263   6.705   8.635
  177SOL    HW2 2306  10.225   6.634   8.507
  178SOL     OW 2307  14.576  13.937   5.318
  178SOL    HW1 2308  14.642  13.867   5.321
  178SOL    HW2 2309  14.602  13.991   5.244
  179SOL     OW 2310   0.764  10.037   5.517
  179SOL    HW1 2311   0.852  10.067   5.541
  179SOL    HW2 2312   0.769   9.942   5.520
  180SOL     OW 2313   6.301   9.595  10.402
  180SOL    HW1 2314   6.322   9.525  10.464
  180SOL    HW2 2315   6.278   9.669  10.458
  181SOL     OW 2316  10.742  12.224   9.089
  181SOL    HW1 2317  10.787  12.141   9.105
  181SOL    HW2 2318  10.650  12.205   9.105
  182SOL     OW 2319  10.504   4.768   1.875
  182SOL    HW1 2320  10.414   4.798   1.860
  182SOL    HW2 2321  10.553   4.849   1.891
  183SOL     OW 2322  13.087   7.990   5.701
  183SOL    HW1 2323  13.069   7.897   5.716
  183SOL    HW2 2324  13.019   8.036   5.749
  184SOL     OW 2325   2.085   1.936   5.013
  184SOL    HW1 2326   2.131   1.972   4.937
  184SOL    HW2 2327   2.010   1.994   5.026
  185SOL     OW 2328  11.616   6.815   0.926
  185SOL    HW1 2329  11.631   6.900   0.884
  185SOL    HW2 2330  11.522   6.815   0.944
  186SOL     OW 2331   4.650   8.167  12.119
  186SOL    HW1 2332   4.744   8.173  12.134
  186SOL    HW2 2333   4.613   8.147  12.205
  187SOL     OW 2334   8.357   0.145  11.793
  187SOL    HW1 2335   8.370   0.114  11.882
  187SOL    HW2 2336   8.340   0.067  11.742
  188SOL     OW 2337   7.070   5.031   8.031
  188SOL    HW1 2338   7.037   5.115   8.063
  188SOL    HW2 2339   6.996   4.971   8.042
  189SOL     OW 2340   8.244   8.005   5.657
  189SOL    HW1 2341   8.210   8.007   5.747
  189SOL    HW2 2342   8.287   7.920   5.650
  190SOL     OW 2343  14.582   9.454   7.988
  190SOL    HW1 2344  14.545   9.402   8.059
  190SOL    HW2 2345  14.524   9.438   7.913
  191SOL     OW 2346   1.616  10.660   1.933
  191SOL    HW1 2347   1.602  10.654   2.028
  191SOL    HW2 2348   1.708  10.687   1.924
  192SOL     OW 2349  13.211  13.416  12.606
  192SOL    HW1 2350  13.152  13.424  12.681
  192SOL    HW2 2351  13.193  13.329  12.570
  193SOL     OW 2352   0.796   6.890   0.360
  193SOL    HW1 2353   0.820   6.809   0.315
  193SOL    HW2 2354   0.806   6.870   0.453
  194SOL     OW 2355  12.073  14.195   8.000
  194SOL    HW1 2356  12.144  14.233   7.949
  194SOL    HW2 2357  12.117  14.155   8.076
  195SOL     OW 2358   3.099   0.116   2.957
  195SOL    HW1 2359   3.030   0.050   2.962
  195SOL    HW2 2360   3.120   0.137   3.048
  196SOL     OW 2361   6.709  12.537  14.247
  196SOL    HW1 2362   6.617  12.550  14.270
  196SOL    HW2 2363   6.746  12.625  14.244
  197SOL     OW 2364  10.430  11.836   2.020
  197SOL    HW1 2365  10.412  11.781   1.944
  197SOL    HW2 2366  10.370  11.910   2.012
  198SOL     OW 2367   1.517   8.390   0.562
  198SOL    HW1 2368   1.579   8.366   0.494
  198SOL    HW2 2369   1.493   8.481   0.543
  199SOL     OW 2370  12.016   2.542   6.182
  199SOL    HW1 2371  12.010   2.601   6.107
  199SOL    HW2 2372  12.013   2.600   6.258
  200SOL     OW 2373   8.868  10.926  11.185
  200SOL    HW1 2374   8.922  10.985  11.133
  200SOL    HW2 2375   8.922  10.849  11.199
  201SOL     OW 2376   8.831   2.589   6.678
  201SOL    HW1 2377   8.774   2.591   6.602
  201SOL    HW2 2378   8.799   2.515   6.731
  202SOL     OW 2379   3.056  12.598   7.199
  202SOL    HW1 2380   2.979  12.550   7.233
  202SOL    HW2 2381   3.130  12.543   7.224
  203SOL     OW 2382   6.114  12.885   9.435
  203SOL    HW1 2383   6.200  12.928   9.436
  203SOL    HW2 2384   6.133  12.792   9.426
  204SOL     OW 2385  11.393  12.132   4.732
  204SOL    HW1 2386  11.456  12.070   4.769
  204SOL    HW2 2387  11.421  12.144   4.641
  205SOL     OW 2388   9.986   3.606   4.896
  205SOL    HW1 2389   9.896   3.639   4.893
  205SOL    HW2 2390  10.040   3.681   4.870
  206SOL     OW 2391   4.351  11.530  11.307
  206SOL    HW1 2392   4.395  11.463  11.255
  206SOL    HW2 2393   4.421  11.587  11.338
  207SOL     OW 2394   1.303   1.512   2.406
  207SOL    HW1 2395   1.246   1.573   2.453
  207SOL    HW2 2396   1.271   1.514   2.316
  208SOL     OW 2397   2.469  14.838   5.431
  208SOL    HW1 2398   2.510  14.790   5.503
  208SOL    HW2 2399   2.463  14.774   5.360
  209SOL     OW 2400   0.709  14.133  13.467
  209SOL    HW1 2401   0.794  14.126  13.422
  209SOL    HW2 2402   0.644  14.121  13.398
  210SOL     OW 2403  14.512   1.943   1.241
  210SOL    HW1 2404  14.528   1.926   1.333
  210SOL    HW2 2405  14.455   1.871   1.212
  211SOL     OW 2406   5.772   0.604   9.356
  211SOL    HW1 2407   5.708   0.575   9.422
  211SOL    HW2 2408   5.855   0.567   9.385
  212SOL     OW 2409  12.321  11.897   3.961
  212SOL    HW1 2410  12.290  11.878   3.873
  212SOL    HW2 2411  12.416  11.881   3.957
  213SOL     OW 2412   6.822   2.619   5.617
  213SOL    HW1 2413   6.727   2.627   5.617
  213SOL    HW2 2414   6.843   2.581   5.702
  214SOL     OW 2415  13.739  12.244  12.259
  214SOL    HW1 2416  13.646  12.232  12.279
  214SOL    HW2 2417  13.760  12.174  12.198
  215SOL     OW 2418   3.734  13.722   1.419
  215SOL    HW1 2419   3.763  13.631   1.415
  215SOL    HW2 2420   3.658  13.726   1.361
  216SOL     OW 2421  14.592  13.510  10.760
  216SOL    HW1 2422  14.571  13.428  10.805
  216SOL    HW2 2423  14.584  13.489  10.667
  217SOL     OW 2424   3.088  12.602  13.637
  217SOL    HW1 2425   3.132  12.538  13.581
  217SOL    HW2 2426   2.996  12.577  13.634
  218SOL     OW 2427   0.478   7.140  11.696
  218SOL    HW1 2428   0.557   7.092  11.718
  218SOL    HW2 2429   0.493   7.173  11.607
  219SOL     OW 2430  12.265   0.739   7.626
  219SOL    HW1 2431  12.280   0.757   7.719
  219SOL    HW2 2432  12.294   0.648   7.615
  220SOL     OW 2433   2.106   9.388   9.215
  220SOL    HW1 2434   2.080   9.309   9.262
  220SOL    HW2 2435   2.029   9.411   9.163
  221SOL     OW 2436   0.228  14.642  13.686
  221SOL    HW1 2437   0.242  14.624  13.594
  221SOL    HW2 2438   0.282  14.578  13.732
  222SOL     OW 2439   1.294   4.967  13.986
  222SOL    HW1 2440   1.365   5.014  13.942
  222SOL    HW2 2441   1.265   4.903  13.920
  223SOL     OW 2442   1.812   9.930   2.549
  223SOL    HW1 2443   1.744   9.948   2.614
  223SOL    HW2 2444   1.893   9.926   2.600
  224SOL     OW 2445  12.760  10.083  14.315
  224SOL    HW1 2446  12.819  10.158  14.316
  224SOL    HW2 2447  12.816  10.009  14.294
  225SOL     OW 2448  10.095  10.873   0.764
  225SOL    HW1 2449  10.139  10.872   0.679
  225SOL    HW2 2450  10.057  10.961   0.770
  226SOL     OW 2451   6.240   4.107  14.425
  226SOL    HW1 2452   6.312   4.115  14.487
  226SOL    HW2 2453   6.277   4.132  14.341
  227SOL     OW 2454   3.140   7.429   1.390
  227SOL    HW1 2455   3.191   7.362   1.436
  227SOL    HW2 2456   3.105   7.384   1.313
  228SOL     OW 2457   8.467  14.737   9.111
  228SOL    HW1 2458   8.485  14.661   9.055
  228SOL    HW2 2459   8.552  14.780   9.119
  229SOL     OW 2460   5.839   1.718   0.829
  229SOL    HW1 2461   5.793   1.793   0.790
  229SOL    HW2 2462   5.772   1.672   0.879
  230SOL     OW 2463  13.950   2.846  11.846
  230SOL    HW1 2464  13.917   2.861  11.934
  230SOL    HW2 2465  13.932   2.754  11.828
  231SOL     OW 2466   2.136   9.999   4.133
  231SOL    HW1 2467   2.087   9.929   4.175
  231SOL    HW2 2468   2.164   9.963   4.049
  232SOL     OW 2469   5.255   3.011   0.851
  232SOL    HW1 2470   5.270   3.106   0.850
  232SOL    HW2 2471   5.263   2.984   0.760
  233SOL     OW 2472  13.094  10.132   2.200
  233SOL    HW1 2473  13.157  10.153   2.131
  233SOL    HW2 2474  13.010  10.127   2.155
  234SOL     OW 2475   4.222  12.138   8.619
  234SOL    HW1 2476   4.197  12.045   8.625
  234SOL    HW2 2477   4.312  12.136   8.585
  235SOL     OW 2478   5.710   1.571   8.048
  235SOL    HW1 2479   5.647   1.637   8.020
  235SOL    HW2 2480   5.657   1.500   8.085
  236SOL     OW 2481   4.092  12.807  10.667
  236SOL    HW1 2482   4.025  12.821  10.735
  236SOL    HW2 2483   4.167  12.859  10.696
  237SOL     OW 2484   6.929   4.440   2.698
  237SOL    HW1 2485   7.010   4.417   2.743
  237SOL    HW2 2486   6.874   4.478   2.766
  238SOL     OW 2487   9.793   2.602   6.020
  238SOL    HW1 2488   9.745   2.520   6.034
  238SOL    HW2 2489   9.885   2.576   6.014
  239SOL     OW 2490   8.825   7.059   4.692
  239SOL    HW1 2491   8.755   7.019   4.641
  239SOL    HW2 2492   8.906   7.025   4.652
  240SOL     OW 2493  14.703   4.147   6.187
  240SOL    HW1 2494  14.711   4.103   6.272
  240SOL    HW2 2495  14.735   4.082   6.124
  241SOL     OW 2496  13.070  12.551   2.122
  241SOL    HW1 2497  13.062  12.645   2.134
  241SOL    HW2 2498  13.040  12.513   2.205
  242SOL     OW 2499   3.811   0.319   2.624
  242SOL    HW1 2500   3.806   0.415   2.630
  242SOL    HW2 2501   3.720   0.290   2.625
  243SOL     OW 2502  13.347   5.576  11.557
  243SOL    HW1 2503  13.342   5.537  11.644
  243SOL    HW2 2504  13.423   5.535  11.516
  244SOL     OW 2505  10.181   5.151   3.090
  244SOL    HW1 2506  10.222   5.191   3.167
  244SOL    HW2 2507  10.130   5.222   3.051
  245SOL     OW 2508  13.801  10.764   9.127
  245SOL    HW1 2509  13.866  10.776   9.197
  245SOL    HW2 2510  13.853  10.744   9.049
  246SOL     OW 2511   8.139   2.001   0.857
  246SOL    HW1 2512   8.178   2.017   0.943
  246SOL    HW2 2513   8.078   2.073   0.844
  247SOL     OW 2514   3.650   5.693   0.926
  247SOL    HW1 2515   3.588   5.752   0.968
  247SOL    HW2 2516   3.647   5.716   0.833
  248SOL     OW 2517   3.977   0.700   9.518
  248SOL    HW1 2518   4.024   0.778   9.546
  248SOL    HW2 2519   3.898   0.734   9.475
  249SOL     OW 2520   3.132   1.271   8.001
  249SOL    HW1 2521   3.081   1.328   7.943
  249SOL    HW2 2522   3.080   1.192   8.010
  250SOL     OW 2523   1.173   3.224   1.248
  250SOL    HW1 2524   1.175   3.133   1.217
  250SOL    HW2 2525   1.100   3.227   1.309
  251SOL     OW 2526  12.736  11.437   4.121
  251SOL    HW1 2527  12.747  11.351   4.162
  251SOL    HW2 2528  12.824  11.475   4.120
  252SOL     OW 2529   8.863   5.062   2.734
  252SOL    HW1 2530   8.848   5.108   2.816
  252SOL    HW2 2531   8.959   5.062   2.724
  253SOL     OW 2532  13.653   9.204   8.237
  253SOL    HW1 2533  13.713   9.279   8.232
  253SOL    HW2 2534  13.683   9.155   8.314
  254SOL     OW 2535   5.986  10.052   0.437
  254SOL    HW1 2536   5.993  10.111   0.512
  254SOL    HW2 2537   6.014  10.105   0.362
  255SOL     OW 2538  12.181   1.960   5.240
  255SOL    HW1 2539  12.269   1.971   5.204
  255SOL    HW2 2540  12.123   2.002   5.176
  256SOL     OW 2541  14.114   4.991  12.738
  256SOL    HW1 2542  14.116   4.904  12.700
  256SOL    HW2 2543  14.038   5.033  12.697
  257SOL     OW 2544   3.709  12.116   0.450
  257SOL    HW1 2545   3.783  12.055   0.449
  257SOL    HW2 2546   3.712  12.159   0.365
  258SOL     OW 2547  14.537   3.296  13.445
  258SOL    HW1 2548  14.556   3.284  13.538
  258SOL    HW2 2549  14.501   3.212  13.417
  259SOL     OW 2550   1.436  11.814   2.935
  259SOL    HW1 2551   1.373  11.761   2.887
  259SOL    HW2 2552   1.467  11.879   2.871
  260SOL     OW 2553   2.157   9.386   7.516
  260SOL    HW1 2554   2.179   9.479   7.526
  260SOL    HW2 2555   2.135   9.357   7.604
  261SOL     OW 2556  14.339   8.314   0.579
  261SOL    HW1 2557  14.334   8.410   0.576
  261SOL    HW2 2558  14.325   8.287   0.488
  262SOL     OW 2559  12.368   7.536   5.022
  262SOL    HW1 2560  12.392   7.443   5.016
  262SOL    HW2 2561  12.429   7.573   5.086
  263SOL     OW 2562  11.065  13.182   3.488
  263SOL    HW1 2563  11.053  13.263   3.439
  263SOL    HW2 2564  11.018  13.115   3.437
  264SOL     OW 2565  12.148  14.111   2.352
  264SOL    HW1 2566  12.105  14.187   2.391
  264SOL    HW2 2567  12.103  14.098   2.269
  265SOL     OW 2568   8.137   9.828   4.654
  265SOL    HW1 2569   8.231   9.821   4.674
  265SOL    HW2 2570   8.135   9.857   4.562
  266SOL     OW 2571   3.384  12.040   6.712
  266SOL    HW1 2572   3.378  12.128   6.676
  266SOL    HW2 2573   3.439  12.048   6.790
  267SOL     OW 2574   9.355  13.657   8.924
  267SOL    HW1 2575   9.263  13.642   8.905
  267SOL    HW2 2576   9.388  13.707   8.849
  268SOL     OW 2577  10.810   5.699   7.665
  268SOL    HW1 2578  10.766   5.666   7.744
  268SOL    HW2 2579  10.874   5.631   7.643
  269SOL     OW 2580  10.647   5.891   1.302
  269SOL    HW1 2581  10.733   5.898   1.261
  269SOL    HW2 2582  10.617   5.981   1.312
  270SOL     OW 2583   7.560   7.228  11.377
  270SOL    HW1 2584   7.539   7.314  11.412
  270SOL    HW2 2585   7.631   7.243  11.315
  271SOL     OW 2586  12.949   5.714  12.087
  271SOL    HW1 2587  13.003   5.653  12.035
  271SOL    HW2 2588  12.905   5.768  12.022
  272SOL     OW 2589   7.719   6.166  13.127
  272SOL    HW1 2590   7.672   6.156  13.044
  272SOL    HW2 2591   7.703   6.257  13.152
  273SOL     OW 2592  13.068   9.807   2.092
  273SOL    HW1 2593  13.097   9.802   2.183
  273SOL    HW2 2594  13.055   9.715   2.066
  274SOL     OW 2595   3.853  12.323  13.980
  274SOL    HW1 2596   3.790  12.263  14.019
  274SOL    HW2 2597   3.863  12.292  13.890
  275SOL     OW 2598   2.937   2.040   0.815
  275SOL    HW1 2599   2.942   2.110   0.750
  275SOL    HW2 2600   2.970   2.080   0.896
  276SOL     OW 2601  11.617  10.889   1.953
  276SOL    HW1 2602  11.555  10.962   1.960
  276SOL    HW2 2603  11.643  10.871   2.043
  277SOL     OW 2604   6.512   1.151   6.715
  277SOL    HW1 2605   6.437   1.138   6.657
  277SOL    HW2 2606   6.523   1.246   6.719
  278SOL     OW 2607   4.944   1.109   1.094
  278SOL    HW1 2608   5.035   1.115   1.123
  278SOL    HW2 2609   4.921   1.198   1.069
  279SOL     OW 2610   1.582  11.454   8.946
  279SOL    HW1 2611   1.489  11.455   8.971
  279SOL    HW2 2612   1.610  11.545   8.956
  280SOL     OW 2613  11.307   4.263   2.392
  280SOL    HW1 2614  11.273   4.209   2.321
  280SOL    HW2 2615  11.241   4.332   2.404
  281SOL     OW 2616  12.381   4.363   9.588
  281SOL    HW1 2617  12.302   4.317   9.613
  281SOL    HW2 2618  12.434   4.298   9.542
  282SOL     OW 2619   6.991  13.314   1.297
  282SOL    HW1 2620   6.919  13.354   1.347
  282SOL    HW2 2621   7.064  13.311   1.359
  283SOL     OW 2622   2.166  13.806  11.449
  283SOL    HW1 2623   2.204  13.820  11.536
  283SOL    HW2 2624   2.187  13.885  11.400
  284SOL     OW 2625  14.040   0.651  10.395
  284SOL    HW1 2626  14.130   0.621  10.391
  284SOL    HW2 2627  14.000   0.619  10.314
  285SOL     OW 2628   4.688   1.189  13.458
  285SOL    HW1 2629   4.646   1.174  13.374
  285SOL    HW2 2630   4.616   1.191  13.521
  286SOL     OW 2631   9.541  11.929  12.221
  286SOL    HW1 2632   9.551  11.889  12.135
  286SOL    HW2 2633   9.530  11.855  12.281
  287SOL     OW 2634   8.068  10.260   6.494
  287SOL    HW1 2635   7.996  10.218   6.541
  287SOL    HW2 2636   8.142  10.199   6.505
  288SOL     OW 2637  11.319   3.986   7.925
  288SOL    HW1 2638  11.237   3.945   7.952
  288SOL    HW2 2639  11.386   3.940   7.973
  289SOL     OW 2640   9.236   2.399   5.532
  289SOL    HW1 2641   9.298   2.329   5.549
  289SOL    HW2 2642   9.275   2.476   5.574
  290SOL     OW 2643   9.008   6.342   6.487
  290SOL    HW1 2644   9.063   6.405   6.533
  290SOL    HW2 2645   9.068   6.271   6.462
  291SOL     OW 2646   2.189   1.254   7.964
  291SOL    HW1 2647   2.104   1.291   7.938
  291SOL    HW2 2648   2.193   1.269   8.059
  292SOL     OW 2649  14.441  11.682   6.769
  292SOL    HW1 2650  14.505  11.612   6.755
  292SOL    HW2 2651  14.448  11.703   6.862
  293SOL     OW 2652   5.188   1.555  11.448
  293SOL    HW1 2653   5.279   1.528  11.461
  293SOL    HW2 2654   5.139   1.472  11.442
  294SOL     OW 2655   6.011   5.704   7.459
  294SOL    HW1 2656   6.093   5.667   7.425
  294SOL    HW2 2657   6.022   5.799   7.449
  295SOL     OW 2658  12.480   8.230   7.023
  295SOL    HW1 2659  12.416   8.165   7.054
  295SOL    HW2 2660  12.563   8.183   7.021
  296SOL     OW 2661  11.902   3.657   2.736
  296SOL    HW1 2662  11.907   3.677   2.643
  296SOL    HW2 2663  11.850   3.728   2.773
  297SOL     OW 2664   1.881   2.490  10.698
  297SOL    HW1 2665   1.972   2.462  10.700
  297SOL    HW2 2666   1.879   2.570  10.750
  298SOL     OW 2667   0.640   5.095   8.316
  298SOL    HW1 2668   0.649   5.092   8.411
  298SOL    HW2 2669   0.549   5.068   8.299
  299SOL     OW 2670   5.699   2.058   0.201
  299SOL    HW1 2671   5.781   2.022   0.235
  299SOL    HW2 2672   5.723   2.098   0.118
  300SOL     OW 2673  11.481   2.531  10.453
  300SOL    HW1 2674  11.542   2.457  10.448
  300SOL    HW2 2675  11.518   2.588  10.521
  301SOL     OW 2676   9.884  11.453   0.342
  301SOL    HW1 2677   9.828  11.515   0.296
  301SOL    HW2 2678   9.969  11.496   0.346
  302SOL     OW 2679   3.649   3.609   7.899
  302SOL    HW1 2680   3.739   3.632   7.921
  302SOL    HW2 2681   3.636   3.644   7.811
  303SOL     OW 2682   7.329   5.181   1.602
  303SOL    HW1 2683   7.317   5.087   1.588
  303SOL    HW2 2684   7.421   5.197   1.585
  304SOL     OW 2685   8.489  14.109  14.537
  304SOL    HW1 2686   8.547  14.186  14.542
  304SOL    HW2 2687   8.497  14.079  14.447
  305SOL     OW 2688   1.379   2.246   6.038
  305SOL    HW1 2689   1.322   2.193   5.983
  305SOL    HW2 2690   1.467   2.214   6.020
  306SOL     OW 2691   5.098  13.386  11.702
  306SOL    HW1 2692   5.142  13.403  11.619
  306SOL    HW2 2693   5.064  13.472  11.729
  307SOL     OW 2694   6.099   3.975   4.645
  307SOL    HW1 2695   6.188   3.958   4.676
  307SOL    HW2 2696   6.072   4.054   4.691
  308SOL     OW 2697  13.129  11.358   6.347
  308SOL    HW1 2698  13.108  11.450   6.331
  308SOL    HW2 2699  13.198  11.338   6.283
  309SOL     OW 2700   4.142   9.706   6.357
  309SOL    HW1 2701   4.214   9.747   6.405
  309SOL    HW2 2702   4.072   9.771   6.359
  310SOL     OW 2703   5.405  14.645   4.485
  310SOL    HW1 2704   5.447  14.655   4.400
  310SOL    HW2 2705   5.368  14.731   4.503
  311SOL     OW 2706   1.709  13.194   3.514
  311SOL    HW1 2707   1.753  13.184   3.599
  311SOL    HW2 2708   1.735  13.116   3.465
  312SOL     OW 2709   8.561   0.174   1.326
  312SOL    HW1 2710   8.645   0.147   1.288
  312SOL    HW2 2711   8.558   0.269   1.314
  313SOL     OW 2712   0.273   7.751   4.324
  313SOL    HW1 2713   0.181   7.779   4.324
  313SOL    HW2 2714   0.272   7.666   4.367
  314SOL     OW 2715  12.217   3.279  10.657
  314SOL    HW1 2716  12.131   3.312  10.684
  314SOL    HW2 2717  12.236   3.207  10.717
  315SOL     OW 2718   5.411   7.754   9.441
  315SOL    HW1 2719   5.368   7.796   9.366
  315SOL    HW2 2720   5.457   7.825   9.485
  316SOL     OW 2721  10.125  14.614  11.244
  316SOL    HW1 2722  10.067  14.569  11.182
  316SOL    HW2 2723  10.066  14.665  11.299
  317SOL     OW 2724   2.247   9.209   0.275
  317SOL    HW1 2725   2.273   9.151   0.203
  317SOL    HW2 2726   2.251   9.297   0.237
  318SOL     OW 2727   2.038   4.285   2.763
  318SOL    HW1 2728   1.982   4.352   2.725
  318SOL    HW2 2729   2.003   4.203   2.728
  319SOL     OW 2730   4.899   8.871  10.236
  319SOL    HW1 2731   4.946   8.850  10.317
  319SOL    HW2 2732   4.865   8.960  10.251
  320SOL     OW 2733   1.036   9.932  12.819
  320SOL    HW1 2734   0.969   9.959  12.756
  320SOL    HW2 2735   1.074  10.015  12.849
  321SOL     OW 2736  12.055  14.750   3.913
  321SOL    HW1 2737  12.147  14.737   3.934
  321SOL    HW2 2738  12.052  14.756   3.817
  322SOL     OW 2739  13.361   4.343  13.332
  322SOL    HW1 2740  13.428   4.390  13.281
  322SOL    HW2 2741  13.376   4.371  13.422
  323SOL     OW 2742  14.514   4.552   7.719
  323SOL    HW1 2743  14.525   4.607   7.796
  323SOL    HW2 2744  14.558   4.470   7.741
  324SOL     OW 2745  11.151   7.703  12.169
  324SOL    HW1 2746  11.075   7.759  12.153
  324SOL    HW2 2747  11.161   7.705  12.264
  325SOL     OW 2748   2.949  11.740   6.067
  325SOL    HW1 2749   2.914  11.667   6.118
  325SOL    HW2 2750   2.879  11.763   6.006
  326SOL     OW 2751  14.017   8.931  12.389
  326SOL    HW1 2752  13.990   8.848  12.349
  326SOL    HW2 2753  14.096   8.956  12.341
  327SOL     OW 2754   2.808  11.310  13.785
  327SOL    HW1 2755   2.853  11.261  13.854
  327SOL    HW2 2756   2.721  11.326  13.821
  328SOL     OW 2757  13.419  10.221   6.502
  328SOL    HW1 2758  13.444  10.143   6.451
  328SOL    HW2 2759  13.497  10.277   6.499
  329SOL     OW 2760   3.850   3.592   4.592
  329SOL    HW1 2761   3.759   3.610   4.567
  329SOL    HW2 2762   3.851   3.601   4.687
  330SOL     OW 2763   4.353   5.391  10.891
  330SOL    HW1 2764   4.383   5.302  10.907
  330SOL    HW2 2765   4.402   5.445  10.954
  331SOL     OW 2766   7.358  13.106   5.665
  331SOL    HW1 2767   7.307  13.106   5.585
  331SOL    HW2 2768   7.304  13.058   5.728
  332SOL     OW 2769  14.766   7.528   1.785
  332SOL    HW1 2770  14.762   7.521   1.880
  332SOL    HW2 2771  14.847   7.484   1.761
  333SOL     OW 2772   3.217   0.358  12.923
  333SOL    HW1 2773   3.126   0.330  12.912
  333SOL    HW2 2774   3.210   0.447  12.957
  334SOL     OW 2775   6.152   5.070   4.622
  334SOL    HW1 2776   6.246   5.073   4.641
  334SOL    HW2 2777   6.130   5.158   4.593
  335SOL     OW 2778  13.654   6.067   4.194
  335SOL    HW1 2779  13.660   6.132   4.264
  335SOL    HW2 2780  13.560   6.057   4.178
  336SOL     OW 2781  12.831   6.744  12.714
  336SOL    HW1 2782  12.817   6.716  12.804
  336SOL    HW2 2783  12.763   6.809  12.698
  337SOL     OW 2784   2.976  13.092   9.102
  337SOL    HW1 2785   2.944  13.122   9.187
  337SOL    HW2 2786   2.931  13.008   9.088
  338SOL     OW 2787   9.968   2.893   9.622
  338SOL    HW1 2788   9.968   2.982   9.587
  338SOL    HW2 2789   9.959   2.836   9.546
  339SOL     OW 2790   9.646   7.482   5.468
  339SOL    HW1 2791   9.677   7.469   5.378
  339SOL    HW2 2792   9.565   7.431   5.473
  340SOL     OW 2793   6.808  14.737  11.138
  340SOL    HW1 2794   6.864  14.701  11.208
  340SOL    HW2 2795   6.719  14.717  11.166
  341SOL     OW 2796   7.139   2.477   7.667
  341SOL    HW1 2797   7.209   2.413   7.658
  341SOL    HW2 2798   7.102   2.461   7.754
  342SOL     OW 2799   3.070  12.446   1.967
  342SOL    HW1 2800   3.006  12.486   1.909
  342SOL    HW2 2801   3.146  12.504   1.962
  343SOL     OW 2802   0.979   8.224  14.035
  343SOL    HW1 2803   0.984   8.219  13.939
  343SOL    HW2 2804   0.894   8.186  14.056
  344SOL     OW 2805  10.746  14.030   7.597
  344SOL    HW1 2806  10.740  13.944   7.637
  344SOL    HW2 2807  10.723  14.016   7.505
  345SOL     OW 2808  13.641  12.753   0.769
  345SOL    HW1 2809  13.630  12.662   0.742
  345SOL    HW2 2810  13.735  12.765   0.774
  346SOL     OW 2811   5.675  13.274  14.501
  346SOL    HW1 2812   5.673  13.214  14.575
  346SOL    HW2 2813   5.653  13.220  14.425
  347SOL     OW 2814   2.875   7.379   0.084
  347SOL    HW1 2815   2.934   7.399   0.012
  347SOL    HW2 2816   2.880   7.284   0.094
  348SOL     OW 2817  10.084  14.534   5.021
  348SOL    HW1 2818  10.045  14.523   5.108
  348SOL    HW2 2819  10.010  14.524   4.961
  349SOL     OW 2820   7.046   1.304  12.275
  349SOL    HW1 2821   6.953   1.283  12.290
  349SOL    HW2 2822   7.076   1.340  12.358
  350SOL     OW 2823   9.266   5.462  11.913
  350SOL    HW1 2824   9.198   5.516  11.952
  350SOL    HW2 2825   9.328   5.524  11.875
  351SOL     OW 2826   6.601   6.605   4.713
  351SOL    HW1 2827   6.652   6.545   4.768
  351SOL    HW2 2828   6.667   6.652   4.662
  352SOL     OW 2829   7.860  10.250   9.835
  352SOL    HW1 2830   7.814  10.313   9.890
  352SOL    HW2 2831   7.953  10.265   9.853
  353SOL     OW 2832   8.952   7.529  13.316
  353SOL    HW1 2833   8.901   7.591  13.368
  353SOL    HW2 2834   9.035   7.522  13.363
  354SOL     OW 2835   2.656   3.186   6.290
  354SOL    HW1 2836   2.747   3.212   6.275
  354SOL    HW2 2837   2.649   3.177   6.385
  355SOL     OW 2838   6.794   0.654   3.361
  355SOL    HW1 2839   6.798   0.719   3.430
  355SOL    HW2 2840   6.706   0.616   3.369
  356SOL     OW 2841   0.367   9.194   4.446
  356SOL    HW1 2842   0.457   9.193   4.415
  356SOL    HW2 2843   0.372   9.234   4.533
  357SOL     OW 2844   5.214  12.859   2.367
  357SOL    HW1 2845   5.124  12.853   2.397
  357SOL    HW2 2846   5.210  12.914   2.288
  358SOL     OW 2847   5.221   8.881   3.310
  358SOL    HW1 2848   5.226   8.960   3.255
  358SOL    HW2 2849   5.295   8.889   3.370
  359SOL     OW 2850   0.093  14.437  14.218
  359SOL    HW1 2851   0.060  14.442  14.308
  359SOL    HW2 2852   0.101  14.343  14.200
  360SOL     OW 2853   6.280   7.161   1.579
  360SOL    HW1 2854   6.373   7.147   1.563
  360SOL    HW2 2855   6.257   7.234   1.522
  361SOL     OW 2856  13.943   7.425   2.756
  361SOL    HW1 2857  13.965   7.333   2.768
  361SOL    HW2 2858  13.959   7.465   2.841
  362SOL     OW 2859   5.502   1.736   8.006
  362SOL    HW1 2860   5.476   1.822   7.973
  362SOL    HW2 2861   5.514   1.750   8.100
  363SOL     OW 2862   8.756   6.891   0.963
  363SOL    HW1 2863   8.829   6.836   0.992
  363SOL    HW2 2864   8.798   6.957   0.907
  364SOL     OW 2865   8.323   4.954   0.482
  364SOL    HW1 2866   8.401   5.003   0.504
  364SOL    HW2 2867   8.260   5.020   0.452
  365SOL     OW 2868   0.806  12.386  12.921
  365SOL    HW1 2869   0.875  12.333  12.881
  365SOL    HW2 2870   0.852  12.446  12.979
  366SOL     OW 2871   8.834   8.011  12.869
  366SOL    HW1 2872   8.790   8.036  12.788
  366SOL    HW2 2873   8.828   7.915  12.871
  367SOL     OW 2874   6.686   8.114  12.736
  367SOL    HW1 2875   6.715   8.205  12.747
  367SOL    HW2 2876   6.595   8.121  12.708
  368SOL     OW 2877   3.762   2.033  13.746
  368SOL    HW1 2878   3.850   1.995  13.741
  368SOL    HW2 2879   3.703   1.959  13.726
  369SOL     OW 2880   3.092   0.646   5.612
  369SOL    HW1 2881   3.005   0.625   5.579
  369SOL    HW2 2882   3.097   0.599   5.696
  370SOL     OW 2883   6.056   9.008  13.514
  370SOL    HW1 2884   6.000   9.034  13.586
  370SOL    HW2 2885   6.060   8.912  13.520
  371SOL     OW 2886   4.727   7.434  14.501
  371SOL    HW1 2887   4.644   7.482  14.499
  371SOL    HW2 2888   4.724   7.383  14.582
  372SOL     OW 2889   8.112  14.295  12.054
  372SOL    HW1 2890   8.195  14.340  12.042
  372SOL    HW2 2891   8.129  14.205  12.028
  373SOL     OW 2892   7.068   6.033   1.529
  373SOL    HW1 2893   7.018   6.105   1.490
  373SOL    HW2 2894   7.152   6.072   1.553
  374SOL     OW 2895   7.461  14.204   7.338
  374SOL    HW1 2896   7.422  14.162   7.262
  374SOL    HW2 2897   7.460  14.298   7.318
  375SOL     OW 2898   6.768   6.012  14.255
  375SOL    HW1 2899   6.706   6.083  14.271
  375SOL    HW2 2900   6.821   6.042  14.181
  376SOL     OW 2901   9.682  14.534  11.093
  376SOL    HW1 2902   9.703  14.534  11.186
  376SOL    HW2 2903   9.700  14.445  11.063
  377SOL     OW 2904   7.214   7.400   7.461
  377SOL    HW1 2905   7.246   7.449   7.536
  377SOL    HW2 2906   7.224   7.460   7.387
  378SOL     OW 2907  10.370   6.035  12.829
  378SOL    HW1 2908  10.310   5.960  12.826
  378SOL    HW2 2909  10.393   6.051  12.738
  379SOL     OW 2910   6.356   2.238   1.645
  379SOL    HW1 2911   6.430   2.203   1.597
  379SOL    HW2 2912   6.358   2.333   1.628
  380SOL     OW 2913  10.972   1.681  13.560
  380SOL    HW1 2914  10.971   1.741  13.635
  380SOL    HW2 2915  10.898   1.709  13.506
  381SOL     OW 2916   0.167  12.170   8.839
  381SOL    HW1 2917   0.243  12.176   8.782
  381SOL    HW2 2918   0.179  12.087   8.886
  382SOL     OW 2919   3.704   6.307  13.765
  382SOL    HW1 2920   3.683   6.254  13.842
  382SOL    HW2 2921   3.624   6.307  13.713
  383SOL     OW 2922   9.633   2.567   2.017
  383SOL    HW1 2923   9.702   2.517   1.973
  383SOL    HW2 2924   9.647   2.657   1.990
  384SOL     OW 2925  11.361   3.022   4.777
  384SOL    HW1 2926  11.411   3.103   4.783
  384SOL    HW2 2927  11.412   2.967   4.718
  385SOL     OW 2928   5.222   5.544  13.077
  385SOL    HW1 2929   5.192   5.453  13.069
  385SOL    HW2 2930   5.141   5.595  13.071
  386SOL     OW 2931   5.616  10.316  13.351
  386SOL    HW1 2932   5.702  10.280  13.329
  386SOL    HW2 2933   5.608  10.304  13.445
  387SOL     OW 2934   5.961  14.577   0.613
  387SOL    HW1 2935   6.023  14.559   0.542
  387SOL    HW2 2936   5.958  14.495   0.663
  388SOL     OW 2937   8.824   2.009   0.927
  388SOL    HW1 2938   8.831   1.925   0.882
  388SOL    HW2 2939   8.914   2.030   0.953
  389SOL     OW 2940   3.889  14.734   4.592
  389SOL    HW1 2941   3.839  14.755   4.671
  389SOL    HW2 2942   3.940  14.657   4.616
  390SOL     OW 2943  13.348   9.096   4.986
  390SOL    HW1 2944  13.425   9.052   5.023
  390SOL    HW2 2945  13.320   9.157   5.055
  391SOL     OW 2946  11.343   2.378  12.556
  391SOL    HW1 2947  11.271   2.434  12.584
  391SOL    HW2 2948  11.412   2.393  12.621
  392SOL     OW 2949   9.084  12.333   1.582
  392SOL    HW1 2950   9.120  12.392   1.649
  392SOL    HW2 2951   9.038  12.266   1.632
  393SOL     OW 2952   3.228  11.678   8.453
  393SOL    HW1 2953   3.133  11.683   8.463
  393SOL    HW2 2954   3.251  11.756   8.404
  394SOL     OW 2955   2.513   2.096  14.476
  394SOL    HW1 2956   2.500   2.099  14.381
  394SOL    HW2 2957   2.440   2.043  14.509
  395SOL     OW 2958   6.779   6.849   7.284
  395SOL    HW1 2959   6.830   6.843   7.365
  395SOL    HW2 2960   6.827   6.796   7.221
  396SOL     OW 2961   9.080   1.982  14.847
  396SOL    HW1 2962   9.165   2.001  14.809
  396SOL    HW2 2963   9.018   2.032  14.795
  397SOL     OW 2964   4.500   6.720   4.951
  397SOL    HW1 2965   4.539   6.650   4.899
  397SOL    HW2 2966   4.445   6.674   5.014
  398SOL     OW 2967  10.322   0.448  10.678
  398SOL    HW1 2968  10.409   0.434  10.715
  398SOL    HW2 2969  10.322   0.540  10.650
  399SOL     OW 2970   8.008  10.233   8.778
  399SOL    HW1 2971   8.083  10.175   8.786
  399SOL    HW2 2972   7.993  10.242   8.684
  400SOL     OW 2973  10.565   5.883   4.204
  400SOL    HW1 2974  10.612   5.958   4.171
  400SOL    HW2 2975  10.502   5.862   4.136
  401SOL     OW 2976   4.030  11.857   6.165
  401SOL    HW1 2977   4.121  11.826   6.162
  401SOL    HW2 2978   4.022  11.901   6.249
  402SOL     OW 2979  13.041   5.226  10.636
  402SOL    HW1 2980  13.022   5.134  10.619
  402SOL    HW2 2981  13.024   5.237  10.730
  403SOL     OW 2982   9.303   9.382   8.661
  403SOL    HW1 2983   9.391   9.411   8.639
  403SOL    HW2 2984   9.316   9.316   8.730
  404SOL     OW 2985   6.666  10.523   2.162
  404SOL    HW1 2986   6.714  10.560   2.236
  404SOL    HW2 2987   6.576  10.513   2.195
  405SOL     OW 2988   4.441   7.429   3.086
  405SOL    HW1 2989   4.372   7.487   3.117
  405SOL    HW2 2990   4.519   7.485   3.082
  406SOL     OW 2991   3.992   7.604   8.021
  406SOL    HW1 2992   4.085   7.610   8.042
  406SOL    HW2 2993   3.989   7.567   7.933
  407SOL     OW 2994  11.289   7.783  12.874
  407SOL    HW1 2995  11.303   7.878  12.875
  407SOL    HW2 2996  11.226   7.767  12.944
  408SOL     OW 2997  13.133  12.751  12.848
  408SOL    HW1 2998  13.183  12.819  12.805
  408SOL    HW2 2999  13.097  12.793  12.926
  409SOL     OW 3000   0.225   6.051   3.692
  409SOL    HW1 3001   0.185   6.092   3.615
  409SOL    HW2 3002   0.189   6.101   3.766
  410SOL     OW 3003   5.172   6.856   5.258
  410SOL    HW1 3004   5.247   6.821   5.306
  410SOL    HW2 3005   5.143   6.931   5.310
  411SOL     OW 3006  12.583   7.543  13.393
  411SOL    HW1 3007  12.549   7.560  13.305
  411SOL    HW2 3008  12.608   7.451  13.392
  412SOL     OW 3009   7.038   1.918   8.399
  412SOL    HW1 3010   7.110   1.980   8.410
  412SOL    HW2 3011   7.039   1.865   8.479
  413SOL     OW 3012  11.209  13.846  13.254
  413SOL    HW1 3013  11.222  13.939  13.236
  413SOL    HW2 3014  11.233  13.836  13.346
  414SOL     OW 3015   8.764  11.165   5.265
  414SOL    HW1 3016   8.837  11.124   5.310
  414SOL    HW2 3017   8.714  11.208   5.334
  415SOL     OW 3018  13.685   6.931  10.572
  415SOL    HW1 3019  13.723   6.862  10.627
  415SOL    HW2 3020  13.592   6.911  10.571
  416SOL     OW 3021   2.096   6.269   1.298
  416SOL    HW1 3022   2.168   6.309   1.248
  416SOL    HW2 3023   2.086   6.326   1.374
  417SOL     OW 3024   6.574   7.335  11.728
  417SOL    HW1 3025   6.578   7.422  11.690
  417SOL    HW2 3026   6.605   7.345  11.818
  418SOL     OW 3027   2.290   2.648   0.044
  418SOL    HW1 3028   2.271   2.676   0.133
  418SOL    HW2 3029   2.364   2.703   0.016
  419SOL     OW 3030  10.632   4.961  11.458
  419SOL    HW1 3031  10.650   4.961  11.553
  419SOL    HW2 3032  10.681   5.037  11.426
  420SOL     OW 3033   7.346  14.477   0.153
  420SOL    HW1 3034   7.398  14.469   0.233
  420SOL    HW2 3035   7.336  14.572   0.140
  421SOL     OW 3036  11.265   4.818  11.543
  421SOL    HW1 3037  11.251   4.913  11.535
  421SOL    HW2 3038  11.360   4.807  11.534
  422SOL     OW 3039   8.205  11.263  10.084
  422SOL    HW1 3040   8.254  11.323  10.028
  422SOL    HW2 3041   8.244  11.273  10.171
  423SOL     OW 3042  12.130   0.132  12.577
  423SOL    HW1 3043  12.168   0.055  12.619
  423SOL    HW2 3044  12.156   0.205  12.633
  424SOL     OW 3045   4.939   9.567   5.343
  424SOL    HW1 3046   4.923   9.473   5.332
  424SOL    HW2 3047   5.017   9.584   5.291
  425SOL     OW 3048  14.501   7.302  11.623
  425SOL    HW1 3049  14.471   7.378  11.573
  425SOL    HW2 3050  14.432   7.286  11.687
  426SOL     OW 3051   8.058   2.027   4.830
  426SOL    HW1 3052   8.086   2.100   4.775
  426SOL    HW2 3053   8.063   2.060   4.920
  427SOL     OW 3054   6.677   3.889   4.703
  427SOL    HW1 3055   6.750   3.862   4.646
  427SOL    HW2 3056   6.707   3.868   4.791
  428SOL     OW 3057   6.567   3.843   9.136
  428SOL    HW1 3058   6.503   3.783   9.175
  428SOL    HW2 3059   6.539   3.930   9.164
  429SOL     OW 3060   0.998   6.956   7.176
  429SOL    HW1 3061   1.092   6.939   7.188
  429SOL    HW2 3062   0.993   7.051   7.163
  430SOL     OW 3063   1.390   5.439  12.200
  430SOL    HW1 3064   1.466   5.444  12.142
  430SOL    HW2 3065   1.417   5.381  12.271
  431SOL     OW 3066   3.346   7.606   8.177
  431SOL    HW1 3067   3.296   7.530   8.205
  431SOL    HW2 3068   3.428   7.600   8.226
  432SOL     OW 3069  10.476  12.165   7.074
  432SOL    HW1 3070  10.438  12.201   6.994
  432SOL    HW2 3071  10.570  12.160   7.056
  433SOL     OW 3072  12.507   9.842  12.419
  433SOL    HW1 3073  12.550   9.761  12.448
  433SOL    HW2 3074  12.436   9.855  12.482
  434SOL     OW 3075   8.898  12.869   3.047
  434SOL    HW1 3076   8.846  12.869   2.967
  434SOL    HW2 3077   8.929  12.779   3.055
  435SOL     OW 3078   3.230   2.122   3.528
  435SOL    HW1 3079   3.144   2.083   3.510
  435SOL    HW2 3080   3.284   2.049   3.560
  436SOL     OW 3081   0.118  14.610  10.770
  436SOL    HW1 3082   0.172  14.685  10.744
  436SOL    HW2 3083   0.168  14.568  10.840
  437SOL     OW 3084   6.268  10.998   1.386
  437SOL    HW1 3085   6.276  11.080   1.436
  437SOL    HW2 3086   6.319  10.934   1.437
  438SOL     OW 3087   3.456   9.214  11.108
  438SOL    HW1 3088   3.517   9.187  11.176
  438SOL    HW2 3089   3.379   9.159  11.122
  439SOL     OW 3090  14.465  11.087   2.857
  439SOL    HW1 3091  14.484  11.176   2.829
  439SOL    HW2 3092  14.471  11.035   2.777
  440SOL     OW 3093   8.356   2.597   0.407
  440SOL    HW1 3094   8.414   2.629   0.337
  440SOL    HW2 3095   8.270   2.630   0.384
  441SOL     OW 3096  14.577  14.566   5.277
  441SOL    HW1 3097  14.541  14.558   5.189
  441SOL    HW2 3098  14.541  14.648   5.311
  442SOL     OW 3099  13.920   6.119  11.481
  442SOL    HW1 3100  13.912   6.204  11.524
  442SOL    HW2 3101  13.930   6.057  11.553
  443SOL     OW 3102   9.335  10.437  12.356
  443SOL    HW1 3103   9.386  10.508  12.318
  443SOL    HW2 3104   9.264  10.421  12.293
  444SOL     OW 3105   1.208   1.814   4.480
  444SOL    HW1 3106   1.240   1.904   4.490
  444SOL    HW2 3107   1.139   1.806   4.546
  445SOL     OW 3108  14.644  14.561  11.431
  445SOL    HW1 3109  14.677  14.527  11.514
  445SOL    HW2 3110  14.554  14.586  11.450
  446SOL     OW 3111  14.356  11.638   0.001
  446SOL    HW1 3112  14.420  11.709   0.002
  446SOL    HW2 3113  14.406  11.559   0.019
  447SOL     OW 3114   7.477  14.532   7.304
  447SOL    HW1 3115   7.521  14.611   7.275
  447SOL    HW2 3116   7.416  14.511   7.234
  448SOL     OW 3117  13.207  10.027   5.366
  448SOL    HW1 3118  13.169  10.103   5.410
  448SOL    HW2 3119  13.195   9.956   5.429
  449SOL     OW 3120   6.985   1.436   3.328
  449SOL    HW1 3121   7.061   1.388   3.362
  449SOL    HW2 3122   6.969   1.504   3.393
  450SOL     OW 3123  10.902   5.470  14.832
  450SOL    HW1 3124  10.910   5.523   0.030
  450SOL    HW2 3125  10.820   5.422  14.844
  451SOL     OW 3126   6.226  14.060   4.323
  451SOL    HW1 3127   6.147  14.006   4.320
  451SOL    HW2 3128   6.221  14.113   4.243
  452SOL     OW 3129  12.247  11.527   8.982
  452SOL    HW1 3130  12.291  11.581   9.049
  452SOL    HW2 3131  12.162  11.507   9.020
  453SOL     OW 3132  10.276   9.153   4.685
  453SOL    HW1 3133  10.322   9.088   4.738
  453SOL    HW2 3134  10.339   9.175   4.616
  454SOL     OW 3135   4.565  13.846   1.712
  454SOL    HW1 3136   4.568  13.853   1.807
  454SOL    HW2 3137   4.634  13.783   1.691
  455SOL     OW 3138  10.732  10.217   5.343
  455SOL    HW1 3139  10.674  10.293   5.338
  455SOL    HW2 3140  10.758  10.212   5.435
  456SOL     OW 3141   3.424  10.249   9.267
  456SOL    HW1 3142   3.369  10.319   9.230
  456SOL    HW2 3143   3.430  10.184   9.197
  457SOL     OW 3144   5.856   0.992  11.855
  457SOL    HW1 3145   5.870   1.076  11.811
  457SOL    HW2 3146   5.900   0.928  11.799
  458SOL     OW 3147   6.701   5.541   2.543
  458SOL    HW1 3148   6.782   5.583   2.572
  458SOL    HW2 3149   6.668   5.597   2.473
  459SOL     OW 3150   9.453   8.249  13.724
  459SOL    HW1 3151   9.499   8.332  13.743
  459SOL    HW2 3152   9.413   8.225  13.808
  460SOL     OW 3153   5.599   1.205  11.862
  460SOL    HW1 3154   5.594   1.290  11.818
  460SOL    HW2 3155   5.632   1.145  11.795
  461SOL     OW 3156   7.358   6.057   5.915
  461SOL    HW1 3157   7.277   6.013   5.940
  461SOL    HW2 3158   7.354   6.063   5.819
  462SOL     OW 3159   6.419   4.059   4.387
  462SOL    HW1 3160   6.387   4.139   4.428
  462SOL    HW2 3161   6.365   3.989   4.425
  463SOL     OW 3162  13.051  11.186   7.076
  463SOL    HW1 3163  13.067  11.269   7.120
  463SOL    HW2 3164  13.092  11.195   6.990
  464SOL     OW 3165   1.481  11.411   4.399
  464SOL    HW1 3166   1.424  11.340   4.369
  464SOL    HW2 3167   1.517  11.379   4.482
  465SOL     OW 3168   6.385   8.876   2.464
  465SOL    HW1 3169   6.396   8.971   2.454
  465SOL    HW2 3170   6.291   8.863   2.473
  466SOL     OW 3171   6.396  11.709  13.223
  466SOL    HW1 3172   6.421  11.701  13.315
  466SOL    HW2 3173   6.307  11.742  13.226
  467SOL     OW 3174   4.717   8.786   6.162
  467SOL    HW1 3175   4.714   8.879   6.140
  467SOL    HW2 3176   4.776   8.747   6.097
  468SOL     OW 3177   6.983   3.739   7.056
  468SOL    HW1 3178   6.940   3.768   7.136
  468SOL    HW2 3179   7.019   3.654   7.077
  469SOL     OW 3180   9.167   5.247   5.783
  469SOL    HW1 3181   9.217   5.329   5.781
  469SOL    HW2 3182   9.136   5.236   5.693
  470SOL     OW 3183   3.141   1.541  10.815
  470SOL    HW1 3184   3.143   1.568  10.723
  470SOL    HW2 3185   3.121   1.622  10.863
  471SOL     OW 3186  12.408   2.991   5.985
  471SOL    HW1 3187  12.476   3.024   6.044
  471SOL    HW2 3188  12.346   2.946   6.042
  472SOL     OW 3189  11.366   7.124   9.541
  472SOL    HW1 3190  11.379   7.197   9.602
  472SOL    HW2 3191  11.381   7.046   9.595
  473SOL     OW 3192  12.654  13.938   4.636
  473SOL    HW1 3193  12.700  13.988   4.703
  473SOL    HW2 3194  12.718  13.926   4.566
  474SOL     OW 3195   4.977  13.194  10.605
  474SOL    HW1 3196   4.957  13.177  10.697
  474SOL    HW2 3197   4.948  13.284  10.591
  475SOL     OW 3198   0.464   4.005   7.386
  475SOL    HW1 3199   0.482   3.980   7.296
  475SOL    HW2 3200   0.368   4.006   7.391
  476SOL     OW 3201   9.523  13.190   6.895
  476SOL    HW1 3202   9.497  13.173   6.805
  476SOL    HW2 3203   9.527  13.286   6.901
  477SOL     OW 3204   0.372   8.511   6.121
  477SOL    HW1 3205   0.350   8.418   6.124
  477SOL    HW2 3206   0.380   8.536   6.213
  478SOL     OW 3207   3.836   2.924   0.423
  478SOL    HW1 3208   3.750   2.954   0.453
  478SOL    HW2 3209   3.875   2.883   0.500
  479SOL     OW 3210  13.895  14.223  11.978
  479SOL    HW1 3211  13.879  14.203  12.070
  479SOL    HW2 3212  13.857  14.310  11.965
  480SOL     OW 3213  11.937   3.784   7.856
  480SOL    HW1 3214  11.936   3.826   7.942
  480SOL    HW2 3215  12.028   3.759   7.842
  481SOL     OW 3216  11.091  13.420   7.772
  481SOL    HW1 3217  11.107  13.505   7.815
  481SOL    HW2 3218  11.144  13.358   7.821
  482SOL     OW 3219   4.752   8.189   0.412
  482SOL    HW1 3220   4.668   8.164   0.374
  482SOL    HW2 3221   4.760   8.282   0.393
  483SOL     OW 3222   1.962   4.694  10.253
  483SOL    HW1 3223   2.045   4.736  10.275
  483SOL    HW2 3224   1.987   4.616  10.204
  484SOL     OW 3225   0.497  14.060  13.294
  484SOL    HW1 3226   0.514  13.966  13.296
  484SOL    HW2 3227   0.509  14.084  13.202
  485SOL     OW 3228  11.747   2.584   2.085
  485SOL    HW1 3229  11.816   2.528   2.051
  485SOL    HW2 3230  11.782   2.619   2.167
  486SOL     OW 3231  10.036  11.480   4.187
  486SOL    HW1 3232   9.949  11.490   4.149
  486SOL    HW2 3233  10.092  11.536   4.133
  487SOL     OW 3234  11.406   1.097   2.366
  487SOL    HW1 3235  11.397   1.016   2.315
  487SOL    HW2 3236  11.407   1.167   2.301
  488SOL     OW 3237  14.836  14.320   6.718
  488SOL    HW1 3238  14.867  14.317   6.809
  488SOL    HW2 3239  14.879  14.246   6.676
  489SOL     OW 3240   1.737   3.947  10.962
  489SOL    HW1 3241   1.752   3.857  10.933
  489SOL    HW2 3242   1.742   3.943  11.057
  490SOL     OW 3243   6.733  13.577   1.768
  490SOL    HW1 3244   6.757  13.513   1.835
  490SOL    HW2 3245   6.776  13.546   1.688
  491SOL     OW 3246   1.906   0.053   1.398
  491SOL    HW1 3247   1.815   0.075   1.377
  491SOL    HW2 3248   1.952   0.057   1.314
  492SOL     OW 3249   7.678   0.089   8.851
  492SOL    HW1 3250   7.701   0.029   8.780
  492SOL    HW2 3251   7.761   0.122   8.883
  493SOL     OW 3252   1.519   2.700  14.450
  493SOL    HW1 3253   1.568   2.694  14.368
  493SOL    HW2 3254   1.434   2.736  14.425
  494SOL     OW 3255   9.359   2.552   7.055
  494SOL    HW1 3256   9.343   2.639   7.018
  494SOL    HW2 3257   9.291   2.497   7.017
  495SOL     OW 3258   0.417  12.409   6.921
  495SOL    HW1 3259   0.482  12.397   6.991
  495SOL    HW2 3260   0.441  12.344   6.855
  496SOL     OW 3261  13.264   9.659  12.154
  496SOL    HW1 3262  13.345   9.614  12.175
  496SOL    HW2 3263  13.261   9.660  12.059
  497SOL     OW 3264   9.165  10.559   1.467
  497SOL    HW1 3265   9.245  10.513   1.440
  497SOL    HW2 3266   9.196  10.633   1.519
  498SOL     OW 3267   2.951   3.554  14.246
  498SOL    HW1 3268   2.927   3.505  14.325
  498SOL    HW2 3269   2.879   3.538  14.185
  499SOL     OW 3270   7.271   1.949   8.819
  499SOL    HW1 3271   7.310   2.030   8.786
  499SOL    HW2 3272   7.322   1.929   8.898
  500SOL     OW 3273  13.339   5.278   3.177
  500SOL    HW1 3274  13.307   5.275   3.087
  500SOL    HW2 3275  13.312   5.364   3.209
  501SOL     OW 3276  10.857  10.531  10.080
  501SOL    HW1 3277  10.917  10.572  10.018
  501SOL    HW2 3278  10.912  10.502  10.152
  502SOL     OW 3279   0.860   6.761  11.887
  502SOL    HW1 3280   0.857   6.755  11.983
  502SOL    HW2 3281   0.835   6.851  11.867
  503SOL     OW 3282   0.712   0.203   2.123
  503SOL    HW1 3283   0.704   0.285   2.075
  503SOL    HW2 3284   0.628   0.159   2.110
  504SOL     OW 3285  10.033   4.372   8.413
  504SOL    HW1 3286   9.992   4.298   8.457
  504SOL    HW2 3287   9.976   4.446   8.430
  505SOL     OW 3288   7.601   3.508  14.798
  505SOL    HW1 3289   7.596   3.417  14.829
  505SOL    HW2 3290   7.684   3.540  14.833
  506SOL     OW 3291   7.649   2.039  13.181
  506SOL    HW1 3292   7.637   1.951  13.144
  506SOL    HW2 3293   7.622   2.029  13.273
  507SOL     OW 3294  12.385   0.275   3.725
  507SOL    HW1 3295  12.312   0.213   3.727
  507SOL    HW2 3296  12.459   0.223   3.695
  508SOL     OW 3297  12.872   3.482   0.323
  508SOL    HW1 3298  12.898   3.570   0.295
  508SOL    HW2 3299  12.934   3.460   0.393
  509SOL     OW 3300  10.317   0.161  10.597
  509SOL    HW1 3301  10.222   0.158  10.607
  509SOL    HW2 3302  10.339   0.253  10.611
  510SOL     OW 3303   9.206  10.746   5.537
  510SOL    HW1 3304   9.276  10.741   5.602
  510SOL    HW2 3305   9.158  10.663   5.546
  511SOL     OW 3306   2.374   6.679   7.139
  511SOL    HW1 3307   2.325   6.679   7.056
  511SOL    HW2 3308   2.390   6.771   7.157
  512SOL     OW 3309   9.291  13.115   8.947
  512SOL    HW1 3310   9.369  13.133   8.895
  512SOL    HW2 3311   9.219  13.148   8.894
  513SOL     OW 3312   9.231  10.761  11.805
  513SOL    HW1 3313   9.226  10.711  11.887
  513SOL    HW2 3314   9.236  10.852  11.833
  514SOL     OW 3315   1.800   6.385  11.936
  514SOL    HW1 3316   1.810   6.293  11.910
  514SOL    HW2 3317   1.799   6.433  11.853
  515SOL     OW 3318  13.540   4.604   8.588
  515SOL    HW1 3319  13.471   4.537   8.589
  515SOL    HW2 3320  13.620   4.555   8.607
  516SOL     OW 3321  10.799   6.421   9.107
  516SOL    HW1 3322  10.770   6.436   9.017
  516SOL    HW2 3323  10.749   6.485   9.159
  517SOL     OW 3324   9.733   5.116   1.823
  517SOL    HW1 3325   9.701   5.032   1.856
  517SOL    HW2 3326   9.688   5.128   1.739
  518SOL     OW 3327   6.685  13.385   9.791
  518SOL    HW1 3328   6.595  13.374   9.762
  518SOL    HW2 3329   6.678  13.420   9.880
  519SOL     OW 3330   6.611   7.427   2.991
  519SOL    HW1 3331   6.540   7.363   2.992
  519SOL    HW2 3332   6.643   7.425   2.900
  520SOL     OW 3333  14.192   0.764   5.781
  520SOL    HW1 3334  14.272   0.771   5.728
  520SOL    HW2 3335  14.186   0.671   5.803
  521SOL     OW 3336  12.761   4.777   2.841
  521SOL    HW1 3337  12.752   4.738   2.928
  521SOL    HW2 3338  12.674   4.771   2.802
  522SOL     OW 3339   3.637   8.252   5.359
  522SOL    HW1 3340   3.655   8.331   5.308
  522SOL    HW2 3341   3.717   8.200   5.351
  523SOL     OW 3342  12.979   8.603   8.601
  523SOL    HW1 3343  13.046   8.604   8.670
  523SOL    HW2 3344  12.998   8.524   8.551
  524SOL     OW 3345   2.854   5.179   4.962
  524SOL    HW1 3346   2.852   5.083   4.952
  524SOL    HW2 3347   2.936   5.206   4.921
  525SOL     OW 3348   2.805   2.423   1.353
  525SOL    HW1 3349   2.831   2.376   1.432
  525SOL    HW2 3350   2.880   2.416   1.294
  526SOL     OW 3351  14.172  11.951  12.301
  526SOL    HW1 3352  14.083  11.914  12.298
  526SOL    HW2 3353  14.172  12.017  12.232
  527SOL     OW 3354   1.287   0.108  12.062
  527SOL    HW1 3355   1.230   0.032  12.053
  527SOL    HW2 3356   1.227   0.182  12.074
  528SOL     OW 3357  13.398   1.339   0.805
  528SOL    HW1 3358  13.365   1.422   0.840
  528SOL    HW2 3359  13.405   1.282   0.881
  529SOL     OW 3360   5.040  13.165  12.752
  529SOL    HW1 3361   5.087  13.208  12.680
  529SOL    HW2 3362   5.090  13.085  12.768
  530SOL     OW 3363  10.037   0.528   6.921
  530SOL    HW1 3364   9.993   0.602   6.880
  530SOL    HW2 3365   9.996   0.451   6.881
  531SOL     OW 3366  12.635   4.529  10.069
  531SOL    HW1 3367  12.601   4.551  10.156
  531SOL    HW2 3368  12.725   4.500  10.085
  532SOL     OW 3369   1.681   7.057   2.545
  532SOL    HW1 3370   1.676   7.029   2.453
  532SOL    HW2 3371   1.726   7.141   2.541
  533SOL     OW 3372   3.828   0.020   2.425
  533SOL    HW1 3373   3.858   0.062   2.506
  533SOL    HW2 3374   3.734   0.010   2.436
  534SOL     OW 3375   8.919   2.754   3.837
  534SOL    HW1 3376   8.888   2.722   3.752
  534SOL    HW2 3377   8.956   2.840   3.818
  535SOL     OW 3378  11.247   8.561   1.423
  535SOL    HW1 3379  11.257   8.528   1.334
  535SOL    HW2 3380  11.152   8.566   1.436
  536SOL     OW 3381  12.204   0.591  11.163
  536SOL    HW1 3382  12.212   0.676  11.206
  536SOL    HW2 3383  12.288   0.548  11.179
  537SOL     OW 3384   4.609   2.404   7.130
  537SOL    HW1 3385   4.681   2.355   7.090
  537SOL    HW2 3386   4.614   2.383   7.223
  538SOL     OW 3387   7.118   4.848   7.616
  538SOL    HW1 3388   7.127   4.801   7.699
  538SOL    HW2 3389   7.096   4.937   7.641
  539SOL     OW 3390  12.801  14.602   2.651
  539SOL    HW1 3391  12.854  14.522   2.650
  539SOL    HW2 3392  12.734  14.586   2.718
  540SOL     OW 3393   6.426   3.707  10.871
  540SOL    HW1 3394   6.510   3.678  10.836
  540SOL    HW2 3395   6.425   3.801  10.854
  541SOL     OW 3396   5.339  13.234   4.599
  541SOL    HW1 3397   5.288  13.314   4.612
  541SOL    HW2 3398   5.300  13.194   4.521
  542SOL     OW 3399   4.889  12.822   9.423
  542SOL    HW1 3400   4.916  12.755   9.360
  542SOL    HW2 3401   4.821  12.780   9.475
  543SOL     OW 3402   4.882   6.943   3.755
  543SOL    HW1 3403   4.797   6.899   3.751
  543SOL    HW2 3404   4.944   6.878   3.720
  544SOL     OW 3405   0.775  11.206   3.282
  544SOL    HW1 3406   0.736  11.279   3.233
  544SOL    HW2 3407   0.867  11.205   3.252
  545SOL     OW 3408   6.165   7.663  13.925
  545SOL    HW1 3409   6.142   7.753  13.950
  545SOL    HW2 3410   6.081   7.620  13.909
  546SOL     OW 3411   8.242   6.465  10.094
  546SOL    HW1 3412   8.316   6.406  10.107
  546SOL    HW2 3413   8.270   6.547  10.134
  547SOL     OW 3414   8.119   3.812  10.796
  547SOL    HW1 3415   8.146   3.878  10.732
  547SOL    HW2 3416   8.037   3.777  10.762
  548SOL     OW 3417   8.321   5.486  10.709
  548SOL    HW1 3418   8.270   5.415  10.747
  548SOL    HW2 3419   8.265   5.522  10.639
  549SOL     OW 3420  12.326   4.699  14.868
  549SOL    HW1 3421  12.311   4.762   0.057
  549SOL    HW2 3422  12.419   4.679  14.874
  550SOL     OW 3423  11.166  12.629   5.329
  550SOL    HW1 3424  11.233  12.663   5.389
  550SOL    HW2 3425  11.209  12.623   5.244
  551SOL     OW 3426   8.918   6.279   4.539
  551SOL    HW1 3427   8.849   6.301   4.601
  551SOL    HW2 3428   8.876   6.223   4.474
  552SOL     OW 3429   2.099   1.376  12.142
  552SOL    HW1 3430   2.091   1.401  12.234
  552SOL    HW2 3431   2.018   1.409  12.102
  553SOL     OW 3432   2.902   9.453   0.654
  553SOL    HW1 3433   2.826   9.421   0.703
  553SOL    HW2 3434   2.884   9.546   0.640
  554SOL     OW 3435  11.738   7.539   1.675
  554SOL    HW1 3436  11.723   7.444   1.673
  554SOL    HW2 3437  11.655   7.577   1.649
  555SOL     OW 3438   8.436  11.265   0.660
  555SOL    HW1 3439   8.484  11.206   0.718
  555SOL    HW2 3440   8.344  11.255   0.684
  556SOL     OW 3441   4.428   7.778  11.179
  556SOL    HW1 3442   4.421   7.871  11.158
  556SOL    HW2 3443   4.511   7.770  11.226
  557SOL     OW 3444  11.183   3.549   0.240
  557SOL    HW1 3445  11.241   3.583   0.308
  557SOL    HW2 3446  11.164   3.459   0.268
  558SOL     OW 3447   0.724   2.827   4.140
  558SOL    HW1 3448   0.801   2.853   4.090
  558SOL    HW2 3449   0.682   2.760   4.085
  559SOL     OW 3450  10.877  13.821   6.155
  559SOL    HW1 3451  10.951  13.760   6.149
  559SOL    HW2 3452  10.801  13.767   6.133
  560SOL     OW 3453   3.223   9.518  14.793
  560SOL    HW1 3454   3.314   9.510  14.825
  560SOL    HW2 3455   3.226   9.590  14.731
  561SOL     OW 3456   0.135   0.440   7.925
  561SOL    HW1 3457   0.041   0.450   7.909
  561SOL    HW2 3458   0.156   0.508   7.989
  562SOL     OW 3459   2.253   1.098  13.714
  562SOL    HW1 3460   2.269   1.181  13.668
  562SOL    HW2 3461   2.166   1.072  13.686
  563SOL     OW 3462  10.951   5.568   1.876
  563SOL    HW1 3463  10.944   5.611   1.962
  563SOL    HW2 3464  11.004   5.490   1.893
  564SOL     OW 3465  10.534   2.404   8.707
  564SOL    HW1 3466  10.469   2.447   8.652
  564SOL    HW2 3467  10.617   2.447   8.684
  565SOL     OW 3468  10.773  14.732   9.720
  565SOL    HW1 3469  10.766  14.793   9.646
  565SOL    HW2 3470  10.811  14.785   9.791
  566SOL     OW 3471   8.872  13.982  13.496
  566SOL    HW1 3472   8.888  14.071  13.526
  566SOL    HW2 3473   8.858  13.990  13.401
  567SOL     OW 3474   7.092   5.714   4.078
  567SOL    HW1 3475   7.130   5.790   4.034
  567SOL    HW2 3476   7.014   5.748   4.123
  568SOL     OW 3477  14.304   8.706   2.939
  568SOL    HW1 3478  14.358   8.640   2.897
  568SOL    HW2 3479  14.285   8.669   3.026
  569SOL     OW 3480   7.942  11.143  10.949
  569SOL    HW1 3481   7.989  11.060  10.958
  569SOL    HW2 3482   7.880  11.127  10.877
  570SOL     OW 3483   2.972   0.665   4.038
  570SOL    HW1 3484   2.945   0.629   3.954
  570SOL    HW2 3485   2.975   0.590   4.097
  571SOL     OW 3486   5.161  12.584   9.506
  571SOL    HW1 3487   5.118  12.609   9.424
  571SOL    HW2 3488   5.251  12.563   9.481
  572SOL     OW 3489   9.996   2.562  11.611
  572SOL    HW1 3490  10.062   2.530  11.549
  572SOL    HW2 3491  10.028   2.535  11.697
  573SOL     OW 3492   0.334   9.964  11.161
  573SOL    HW1 3493   0.338  10.027  11.233
  573SOL    HW2 3494   0.294  10.013  11.089
  574SOL     OW 3495   4.902   9.459   9.235
  574SOL    HW1 3496   4.865   9.543   9.209
  574SOL    HW2 3497   4.980   9.448   9.180
  575SOL     OW 3498   9.265   6.146   8.455
  575SOL    HW1 3499   9.339   6.150   8.394
  575SOL    HW2 3500   9.207   6.080   8.418
  576SOL     OW 3501   5.276   2.594   2.370
  576SOL    HW1 3502   5.365   2.628   2.360
  576SOL    HW2 3503   5.219   2.668   2.349
  577SOL     OW 3504   7.816  11.297  11.674
  577SOL    HW1 3505   7.823  11.208  11.706
  577SOL    HW2 3506   7.738  11.333  11.718
  578SOL     OW 3507   1.910   3.351   2.431
  578SOL    HW1 3508   1.819   3.380   2.434
  578SOL    HW2 3509   1.907   3.268   2.385
  579SOL     OW 3510   3.398   8.685   8.497
  579SOL    HW1 3511   3.454   8.676   8.420
  579SOL    HW2 3512   3.330   8.619   8.485
  580SOL     OW 3513   1.757   6.088  11.268
  580SOL    HW1 3514   1.776   6.068  11.176
  580SOL    HW2 3515   1.719   6.176  11.266
  581SOL     OW 3516  14.273   6.122   2.741
  581SOL    HW1 3517  14.207   6.107   2.673
  581SOL    HW2 3518  14.258   6.052   2.804
  582SOL     OW 3519   6.958  13.554  12.542
  582SOL    HW1 3520   6.884  13.604  12.576
  582SOL    HW2 3521   7.035  13.597  12.579
  583SOL     OW 3522   7.114   2.778   8.430
  583SOL    HW1 3523   7.068   2.722   8.492
  583SOL    HW2 3524   7.073   2.864   8.441
  584SOL     OW 3525   4.630  11.163   2.290
  584SOL    HW1 3526   4.611  11.070   2.285
  584SOL    HW2 3527   4.589  11.201   2.213
  585SOL     OW 3528   4.677   6.323   6.225
  585SOL    HW1 3529   4.742   6.393   6.217
  585SOL    HW2 3530   4.597   6.368   6.252
  586SOL     OW 3531   5.989   0.458   1.548
  586SOL    HW1 3532   6.041   0.383   1.577
  586SOL    HW2 3533   5.924   0.471   1.618
  587SOL     OW 3534   9.188   0.340   1.894
  587SOL    HW1 3535   9.106   0.339   1.845
  587SOL    HW2 3536   9.175   0.407   1.961
  588SOL     OW 3537   0.285  10.304  14.611
  588SOL    HW1 3538   0.326  10.375  14.562
  588SOL    HW2 3539   0.199  10.293  14.570
  589SOL     OW 3540   7.359   2.535   9.137
  589SOL    HW1 3541   7.359   2.586   9.056
  589SOL    HW2 3542   7.439   2.482   9.131
  590SOL     OW 3543   5.566   6.725   4.130
  590SOL    HW1 3544   5.571   6.714   4.225
  590SOL    HW2 3545   5.598   6.814   4.115
  591SOL     OW 3546  14.016  13.751  10.819
  591SOL    HW1 3547  14.017  13.655  10.813
  591SOL    HW2 3548  13.923  13.774  10.821
  592SOL     OW 3549   6.201   0.473  11.529
  592SOL    HW1 3550   6.111   0.445  11.511
  592SOL    HW2 3551   6.226   0.523  11.451
  593SOL     OW 3552   4.563  10.283  14.259
  593SOL    HW1 3553   4.490  10.226  14.234
  593SOL    HW2 3554   4.611  10.233  14.325
  594SOL     OW 3555  11.933  14.673  12.570
  594SOL    HW1 3556  11.958  14.745  12.513
  594SOL    HW2 3557  11.885  14.612  12.514
  595SOL     OW 3558   8.141   3.277   0.389
  595SOL    HW1 3559   8.116   3.195   0.347
  595SOL    HW2 3560   8.063   3.332   0.383
  596SOL     OW 3561   3.924   0.254   8.448
  596SOL    HW1 3562   3.952   0.343   8.424
  596SOL    HW2 3563   4.003   0.212   8.481
  597SOL     OW 3564   2.651  10.875  11.072
  597SOL    HW1 3565   2.734  10.907  11.037
  597SOL    HW2 3566   2.676  10.809  11.137
  598SOL     OW 3567   2.827  13.499   6.354
  598SOL    HW1 3568   2.890  13.439   6.313
  598SOL    HW2 3569   2.857  13.506   6.445
  599SOL     OW 3570  14.841   7.619   8.578
  599SOL    HW1 3571   0.051   7.639   8.556
  599SOL    HW2 3572  14.793   7.632   8.497
  600SOL     OW 3573  12.559   9.076   2.438
  600SOL    HW1 3574  12.607   9.005   2.480
  600SOL    HW2 3575  12.606   9.155   2.464
  601SOL     OW 3576   7.141   3.830   4.704
  601SOL    HW1 3577   7.202   3.797   4.769
  601SOL    HW2 3578   7.152   3.925   4.705
  602SOL     OW 3579  14.138  12.985   3.214
  602SOL    HW1 3580  14.172  12.902   3.248
  602SOL    HW2 3581  14.203  13.050   3.241
  603SOL     OW 3582   9.221   9.925  14.414
  603SOL    HW1 3583   9.251   9.996  14.358
  603SOL    HW2 3584   9.292   9.914  14.478
  604SOL     OW 3585   8.840  12.992  10.155
  604SOL    HW1 3586   8.845  12.972  10.249
  604SOL    HW2 3587   8.906  13.059  10.141
  605SOL     OW 3588   4.369   6.777   6.053
  605SOL    HW1 3589   4.302   6.710   6.069
  605SOL    HW2 3590   4.424   6.775   6.131
  606SOL     OW 3591   0.689   7.224   8.270
  606SOL    HW1 3592   0.707   7.254   8.360
  606SOL    HW2 3593   0.644   7.141   8.282
  607SOL     OW 3594   1.672   5.280   6.460
  607SOL    HW1 3595   1.665   5.212   6.393
  607SOL    HW2 3596   1.621   5.353   6.426
  608SOL     OW 3597   0.022   2.769   5.736
  608SOL    HW1 3598   0.098   2.712   5.725
  608SOL    HW2 3599   0.024   2.794   5.829
  609SOL     OW 3600   2.235  12.525  13.974
  609SOL    HW1 3601   2.147  12.525  14.012
  609SOL    HW2 3602   2.289  12.569  14.040
  610SOL     OW 3603   9.828  13.384   5.746
  610SOL    HW1 3604   9.846  13.347   5.832
  610SOL    HW2 3605   9.806  13.476   5.764
  611SOL     OW 3606  13.765  13.893   1.766
  611SOL    HW1 3607  13.731  13.862   1.850
  611SOL    HW2 3608  13.826  13.963   1.789
  612SOL     OW 3609  13.741   4.862  10.689
  612SOL    HW1 3610  13.667   4.843  10.746
  612SOL    HW2 3611  13.806   4.796  10.712
  613SOL     OW 3612   8.116  13.966   2.121
  613SOL    HW1 3613   8.060  14.017   2.062
  613SOL    HW2 3614   8.199  13.957   2.073
  614SOL     OW 3615   4.644   3.625  13.248
  614SOL    HW1 3616   4.558   3.656  13.220
  614SOL    HW2 3617   4.666   3.555  13.187
  615SOL     OW 3618   9.403   6.409   4.108
  615SOL    HW1 3619   9.325   6.421   4.161
  615SOL    HW2 3620   9.429   6.318   4.123
  616SOL     OW 3621   0.481   1.727   9.008
  616SOL    HW1 3622   0.572   1.702   8.993
  616SOL    HW2 3623   0.463   1.795   8.944
  617SOL     OW 3624  12.382   7.807  14.214
  617SOL    HW1 3625  12.413   7.856  14.137
  617SOL    HW2 3626  12.287   7.819  14.213
  618SOL     OW 3627   4.900  14.339   5.492
  618SOL    HW1 3628   4.934  14.258   5.530
  618SOL    HW2 3629   4.975  14.398   5.487
  619SOL     OW 3630   3.540  10.433   2.464
  619SOL    HW1 3631   3.556  10.488   2.387
  619SOL    HW2 3632   3.578  10.348   2.443
  620SOL     OW 3633   7.802   1.122   7.402
  620SOL    HW1 3634   7.867   1.154   7.464
  620SOL    HW2 3635   7.778   1.035   7.435
  621SOL     OW 3636  10.830  11.447   0.871
  621SOL    HW1 3637  10.790  11.498   0.800
  621SOL    HW2 3638  10.760  11.437   0.935
  622SOL     OW 3639   9.514   3.446  14.253
  622SOL    HW1 3640   9.567   3.526  14.254
  622SOL    HW2 3641   9.562   3.386  14.196
  623SOL     OW 3642   7.228   1.939   5.181
  623SOL    HW1 3643   7.140   1.973   5.160
  623SOL    HW2 3644   7.286   1.983   5.119
  624SOL     OW 3645   4.180  11.991   4.382
  624SOL    HW1 3646   4.099  11.979   4.431
  624SOL    HW2 3647   4.240  11.927   4.420
  625SOL     OW 3648  11.390  10.244   4.951
  625SOL    HW1 3649  11.452  10.293   5.005
  625SOL    HW2 3650  11.307  10.251   4.999
  626SOL     OW 3651  14.573   3.682   1.398
  626SOL    HW1 3652  14.489   3.641   1.378
  626SOL    HW2 3653  14.638   3.614   1.381
  627SOL     OW 3654   7.165   2.477   1.743
  627SOL    HW1 3655   7.232   2.536   1.778
  627SOL    HW2 3656   7.095   2.479   1.809
  628SOL     OW 3657   3.832   7.309   6.519
  628SOL    HW1 3658   3.850   7.365   6.444
  628SOL    HW2 3659   3.901   7.328   6.582
  629SOL     OW 3660  14.489   4.416  11.858
  629SOL    HW1 3661  14.436   4.353  11.906
  629SOL    HW2 3662  14.518   4.479  11.924
  630SOL     OW 3663   5.018   0.718   6.773
  630SOL    HW1 3664   4.983   0.684   6.855
  630SOL    HW2 3665   5.100   0.670   6.760
  631SOL     OW 3666   1.822   6.394  12.477
  631SOL    HW1 3667   1.806   6.473  12.529
  631SOL    HW2 3668   1.735   6.357  12.462
  632SOL     OW 3669  11.930   2.189   5.491
  632SOL    HW1 3670  11.996   2.119   5.497
  632SOL    HW2 3671  11.972   2.255   5.436
  633SOL     OW 3672   5.216   5.419   2.301
  633SOL    HW1 3673   5.220   5.505   2.259
  633SOL    HW2 3674   5.135   5.379   2.268
  634SOL     OW 3675  12.380   1.354   6.269
  634SOL    HW1 3676  12.466   1.327   6.300
  634SOL    HW2 3677  12.396   1.439   6.226
  635SOL     OW 3678  10.044  14.628   1.512
  635SOL    HW1 3679   9.983  14.695   1.542
  635SOL    HW2 3680   9.989  14.552   1.493
  636SOL     OW 3681  10.354  10.336   9.936
  636SOL    HW1 3682  10.312  10.339  10.022
  636SOL    HW2 3683  10.421  10.405   9.939
  637SOL     OW 3684   6.146  14.048  13.302
  637SOL    HW1 3685   6.202  14.006  13.237
  637SOL    HW2 3686   6.120  14.130  13.262
  638SOL     OW 3687  13.856   4.704   8.003
  638SOL    HW1 3688  13.864   4.632   8.067
  638SOL    HW2 3689  13.928   4.763   8.026
  639SOL     OW 3690  10.881   6.903   4.879
  639SOL    HW1 3691  10.868   6.997   4.864
  639SOL    HW2 3692  10.861   6.862   4.795
  640SOL     OW 3693   2.294   3.546  13.664
  640SOL    HW1 3694   2.319   3.587  13.581
  640SOL    HW2 3695   2.199   3.552  13.666
  641SOL     OW 3696   2.537   1.228   0.190
  641SOL    HW1 3697   2.630   1.205   0.181
  641SOL    HW2 3698   2.495   1.189   0.113
  642SOL     OW 3699   5.538   7.684   0.543
  642SOL    HW1 3700   5.539   7.604   0.596
  642SOL    HW2 3701   5.616   7.677   0.488
  643SOL     OW 3702   3.573  14.022   4.747
  643SOL    HW1 3703   3.482  13.992   4.747
  643SOL    HW2 3704   3.568  14.116   4.764
  644SOL     OW 3705   1.331   5.004   1.130
  644SOL    HW1 3706   1.389   4.933   1.103
  644SOL    HW2 3707   1.289   4.971   1.209
  645SOL     OW 3708   3.692   2.515  10.127
  645SOL    HW1 3709   3.786   2.494  10.124
  645SOL    HW2 3710   3.689   2.610  10.116
  646SOL     OW 3711   9.573   9.053   5.589
  646SOL    HW1 3712   9.520   8.976   5.570
  646SOL    HW2 3713   9.570   9.104   5.508
  647SOL     OW 3714   9.175   2.916   8.883
  647SOL    HW1 3715   9.219   2.941   8.965
  647SOL    HW2 3716   9.236   2.942   8.814
  648SOL     OW 3717   4.894   0.225   2.986
  648SOL    HW1 3718   4.952   0.300   2.975
  648SOL    HW2 3719   4.844   0.221   2.904
  649SOL     OW 3720   6.936   0.091   0.503
  649SOL    HW1 3721   6.970   0.097   0.413
  649SOL    HW2 3722   6.968   0.171   0.545
  650SOL     OW 3723  12.185  12.067   5.928
  650SOL    HW1 3724  12.133  12.021   5.994
  650SOL    HW2 3725  12.124  12.080   5.855
  651SOL     OW 3726  13.895   9.042  10.559
  651SOL    HW1 3727  13.937   9.067  10.642
  651SOL    HW2 3728  13.965   8.999  10.509
  652SOL     OW 3729   9.259  12.576   2.578
  652SOL    HW1 3730   9.246  12.484   2.555
  652SOL    HW2 3731   9.254  12.622   2.494
  653SOL     OW 3732  10.894   1.146   5.949
  653SOL    HW1 3733  10.937   1.063   5.933
  653SOL    HW2 3734  10.942   1.209   5.896
  654SOL     OW 3735  13.626   9.700   1.105
  654SOL    HW1 3736  13.576   9.773   1.140
  654SOL    HW2 3737  13.569   9.660   1.039
  655SOL     OW 3738   5.356   7.652   1.115
  655SOL    HW1 3739   5.370   7.584   1.181
  655SOL    HW2 3740   5.375   7.734   1.160
  656SOL     OW 3741   2.767   7.419   5.600
  656SOL    HW1 3742   2.738   7.336   5.638
  656SOL    HW2 3743   2.824   7.393   5.528
  657SOL     OW 3744  11.216   1.780   6.684
  657SOL    HW1 3745  11.181   1.852   6.736
  657SOL    HW2 3746  11.251   1.821   6.605
  658SOL     OW 3747   6.550   8.113  14.531
  658SOL    HW1 3748   6.525   8.191  14.483
  658SOL    HW2 3749   6.643   8.100  14.510
  659SOL     OW 3750   1.502  13.808  12.918
  659SOL    HW1 3751   1.455  13.727  12.897
  659SOL    HW2 3752   1.594  13.783  12.918
  660SOL     OW 3753   3.671  12.667   6.517
  660SOL    HW1 3754   3.757  12.704   6.537
  660SOL    HW2 3755   3.614  12.701   6.586
  661SOL     OW 3756   9.323   0.187   6.746
  661SOL    HW1 3757   9.233   0.218   6.759
  661SOL    HW2 3758   9.317   0.132   6.667
  662SOL     OW 3759   3.391  12.460  11.589
  662SOL    HW1 3760   3.405  12.392  11.655
  662SOL    HW2 3761   3.426  12.540  11.629
  663SOL     OW 3762   0.034   9.749  11.443
  663SOL    HW1 3763   0.053   9.661  11.477
  663SOL    HW2 3764   0.117   9.796  11.452
  664SOL     OW 3765  13.069   5.838   8.210
  664SOL    HW1 3766  13.085   5.880   8.125
  664SOL    HW2 3767  13.155   5.806   8.238
  665SOL     OW 3768   4.208   1.861  10.549
  665SOL    HW1 3769   4.266   1.831  10.620
  665SOL    HW2 3770   4.125   1.817  10.567
  666SOL     OW 3771   9.892   8.899   6.624
  666SOL    HW1 3772   9.876   8.967   6.559
  666SOL    HW2 3773   9.905   8.819   6.573
  667SOL     OW 3774   8.576   8.592   5.222
  667SOL    HW1 3775   8.512   8.658   5.196
  667SOL    HW2 3776   8.657   8.618   5.179
  668SOL     OW 3777  12.979   3.358  13.229
  668SOL    HW1 3778  13.028   3.280  13.204
  668SOL    HW2 3779  12.955   3.400  13.146
  669SOL     OW 3780  13.260   4.767  10.189
  669SOL    HW1 3781  13.322   4.813  10.132
  669SOL    HW2 3782  13.267   4.813  10.273
  670SOL     OW 3783   6.484   7.855   4.283
  670SOL    HW1 3784   6.552   7.906   4.327
  670SOL    HW2 3785   6.530   7.808   4.214
  671SOL     OW 3786   2.177   0.315   8.976
  671SOL    HW1 3787   2.182   0.295   8.882
  671SOL    HW2 3788   2.188   0.231   9.019
  672SOL     OW 3789   7.517   6.773  12.268
  672SOL    HW1 3790   7.611   6.755  12.259
  672SOL    HW2 3791   7.512   6.868  12.277
  673SOL     OW 3792   6.941  11.025  12.557
  673SOL    HW1 3793   6.902  11.024  12.469
  673SOL    HW2 3794   6.906  11.104  12.598
  674SOL     OW 3795  12.645   9.597  12.573
  674SOL    HW1 3796  12.734   9.625  12.594
  674SOL    HW2 3797  12.646   9.502  12.587
  675SOL     OW 3798   1.603   8.191   2.908
  675SOL    HW1 3799   1.588   8.119   2.846
  675SOL    HW2 3800   1.657   8.254   2.859
  676SOL     OW 3801  11.839   0.998   2.249
  676SOL    HW1 3802  11.743   1.002   2.248
  676SOL    HW2 3803  11.861   0.951   2.169
  677SOL     OW 3804  14.052  11.483  12.287
  677SOL    HW1 3805  14.027  11.402  12.242
  677SOL    HW2 3806  14.088  11.454  12.371
  678SOL     OW 3807   1.197   0.546   9.215
  678SOL    HW1 3808   1.220   0.569   9.125
  678SOL    HW2 3809   1.249   0.606   9.269
  679SOL     OW 3810  11.960  12.046   2.167
  679SOL    HW1 3811  11.925  12.031   2.255
  679SOL    HW2 3812  11.939  11.966   2.118
  680SOL     OW 3813   1.567  13.347   3.006
  680SOL    HW1 3814   1.603  13.264   2.973
  680SOL    HW2 3815   1.555  13.332   3.100
  681SOL     OW 3816   9.980   2.803  10.751
  681SOL    HW1 3817   9.953   2.725  10.703
  681SOL    HW2 3818   9.905   2.863  10.744
  682SOL     OW 3819  12.070   8.784   6.430
  682SOL    HW1 3820  12.115   8.822   6.355
  682SOL    HW2 3821  11.996   8.736   6.392
  683SOL     OW 3822   7.380  11.773   0.553
  683SOL    HW1 3823   7.348  11.766   0.463
  683SOL    HW2 3824   7.338  11.699   0.599
  684SOL     OW 3825  11.813   5.495   7.181
  684SOL    HW1 3826  11.854   5.474   7.097
  684SOL    HW2 3827  11.719   5.492   7.163
  685SOL     OW 3828   7.511  12.676  12.523
  685SOL    HW1 3829   7.537  12.749  12.580
  685SOL    HW2 3830   7.451  12.625  12.577
  686SOL     OW 3831   0.178  11.858  14.063
  686SOL    HW1 3832   0.205  11.862  13.971
  686SOL    HW2 3833   0.231  11.787  14.100
  687SOL     OW 3834  13.045   0.170   3.359
  687SOL    HW1 3835  13.113   0.217   3.310
  687SOL    HW2 3836  13.094   0.109   3.414
  688SOL     OW 3837   9.488   8.199  11.157
  688SOL    HW1 3838   9.434   8.175  11.232
  688SOL    HW2 3839   9.515   8.116  11.119
  689SOL     OW 3840  11.898   9.938   2.969
  689SOL    HW1 3841  11.894   9.872   2.900
  689SOL    HW2 3842  11.990   9.940   2.995
  690SOL     OW 3843   2.943   9.773  10.398
  690SOL    HW1 3844   2.949   9.864  10.426
  690SOL    HW2 3845   2.898   9.728  10.469
  691SOL     OW 3846  10.939   4.470  14.036
  691SOL    HW1 3847  10.907   4.547  14.083
  691SOL    HW2 3848  10.864   4.441  13.984
  692SOL     OW 3849   7.209   3.473   1.194
  692SOL    HW1 3850   7.235   3.563   1.173
  692SOL    HW2 3851   7.169   3.479   1.281
  693SOL     OW 3852   0.835  10.143  12.922
  693SOL    HW1 3853   0.834  10.105  12.834
  693SOL    HW2 3854   0.889  10.221  12.913
  694SOL     OW 3855  13.801   2.240   2.548
  694SOL    HW1 3856  13.715   2.200   2.540
  694SOL    HW2 3857  13.825   2.230   2.640
  695SOL     OW 3858  11.361   1.706   8.731
  695SOL    HW1 3859  11.432   1.732   8.791
  695SOL    HW2 3860  11.281   1.724   8.780
  696SOL     OW 3861   9.577   7.609  14.197
  696SOL    HW1 3862   9.505   7.615  14.259
  696SOL    HW2 3863   9.656   7.610  14.252
  697SOL     OW 3864   2.964  11.534  13.819
  697SOL    HW1 3865   2.903  11.463  13.801
  697SOL    HW2 3866   2.972  11.535  13.914
  698SOL     OW 3867   6.555  13.459   6.164
  698SOL    HW1 3868   6.499  13.507   6.225
  698SOL    HW2 3869   6.533  13.495   6.078
  699SOL     OW 3870   7.124   3.770  14.097
  699SOL    HW1 3871   7.209   3.754  14.057
  699SOL    HW2 3872   7.061   3.741  14.031
  700SOL     OW 3873  13.256   3.360   7.191
  700SOL    HW1 3874  13.282   3.426   7.256
  700SOL    HW2 3875  13.338   3.321   7.162
  701SOL     OW 3876  11.007   2.654  11.698
  701SOL    HW1 3877  10.942   2.704  11.650
  701SOL    HW2 3878  11.081   2.714  11.710
  702SOL     OW 3879   1.658   0.476   6.529
  702SOL    HW1 3880   1.663   0.399   6.586
  702SOL    HW2 3881   1.594   0.533   6.572
  703SOL     OW 3882   2.551   7.381  10.945
  703SOL    HW1 3883   2.544   7.285  10.948
  703SOL    HW2 3884   2.644   7.399  10.953
  704SOL     OW 3885  13.202   0.382  13.425
  704SOL    HW1 3886  13.159   0.312  13.474
  704SOL    HW2 3887  13.155   0.386  13.342
  705SOL     OW 3888   5.326   5.655  10.434
  705SOL    HW1 3889   5.379   5.575  10.436
  705SOL    HW2 3890   5.283   5.658  10.519
  706SOL     OW 3891   5.075   8.164   6.589
  706SOL    HW1 3892   5.156   8.200   6.553
  706SOL    HW2 3893   5.054   8.090   6.532
  707SOL     OW 3894   8.939   0.984  11.097
  707SOL    HW1 3895   8.880   1.004  11.170
  707SOL    HW2 3896   9.003   1.055  11.096
  708SOL     OW 3897  10.094   1.856  14.105
  708SOL    HW1 3898  10.175   1.895  14.138
  708SOL    HW2 3899  10.024   1.911  14.142
  709SOL     OW 3900   3.947   7.381   7.140
  709SOL    HW1 3901   3.905   7.344   7.218
  709SOL    HW2 3902   4.041   7.375   7.158
  710SOL     OW 3903   5.986   2.541  10.850
  710SOL    HW1 3904   5.894   2.521  10.868
  710SOL    HW2 3905   6.031   2.457  10.859
  711SOL     OW 3906  11.480   7.111   6.011
  711SOL    HW1 3907  11.384   7.117   6.013
  711SOL    HW2 3908  11.498   7.017   6.003
  712SOL     OW 3909  11.659  12.039   5.149
  712SOL    HW1 3910  11.743  11.998   5.125
  712SOL    HW2 3911  11.683  12.106   5.213
  713SOL     OW 3912  10.498   0.996   0.706
  713SOL    HW1 3913  10.415   0.948   0.710
  713SOL    HW2 3914  10.556   0.948   0.765
  714SOL     OW 3915   6.961   8.485   1.698
  714SOL    HW1 3916   7.002   8.514   1.616
  714SOL    HW2 3917   6.916   8.404   1.675
  715SOL     OW 3918   0.270   3.764  14.534
  715SOL    HW1 3919   0.259   3.854  14.503
  715SOL    HW2 3920   0.182   3.737  14.563
  716SOL     OW 3921   2.772  13.421   8.902
  716SOL    HW1 3922   2.853  13.472   8.894
  716SOL    HW2 3923   2.799  13.330   8.887
  717SOL     OW 3924   4.529   0.729  13.626
  717SOL    HW1 3925   4.562   0.693  13.708
  717SOL    HW2 3926   4.442   0.763  13.648
  718SOL     OW 3927   8.638   5.538   9.158
  718SOL    HW1 3928   8.599   5.624   9.144
  718SOL    HW2 3929   8.732   5.552   9.147
  719SOL     OW 3930   1.579   5.321   0.348
  719SOL    HW1 3931   1.590   5.251   0.284
  719SOL    HW2 3932   1.526   5.281   0.417
  720SOL     OW 3933   3.205  10.778   8.694
  720SOL    HW1 3934   3.127  10.758   8.746
  720SOL    HW2 3935   3.255  10.838   8.749
  721SOL     OW 3936   7.451   1.905   0.622
  721SOL    HW1 3937   7.510   1.830   0.616
  721SOL    HW2 3938   7.450   1.941   0.533
  722SOL     OW 3939   5.574   3.929  13.741
  722SOL    HW1 3940   5.643   3.902  13.802
  722SOL    HW2 3941   5.504   3.865  13.753
  723SOL     OW 3942   1.190   3.682   3.919
  723SOL    HW1 3943   1.223   3.598   3.888
  723SOL    HW2 3944   1.097   3.667   3.938
  724SOL     OW 3945  13.657   6.189  13.203
  724SOL    HW1 3946  13.646   6.183  13.108
  724SOL    HW2 3947  13.648   6.099  13.234
  725SOL     OW 3948   7.597  14.453   8.378
  725SOL    HW1 3949   7.632  14.527   8.428
  725SOL    HW2 3950   7.517  14.488   8.338
  726SOL     OW 3951   2.154   5.996  13.275
  726SOL    HW1 3952   2.212   5.942  13.222
  726SOL    HW2 3953   2.066   5.975  13.245
  727SOL     OW 3954   5.891  14.308   1.438
  727SOL    HW1 3955   5.902  14.214   1.451
  727SOL    HW2 3956   5.979  14.344   1.449
  728SOL     OW 3957   7.847   7.069   0.688
  728SOL    HW1 3958   7.829   7.046   0.597
  728SOL    HW2 3959   7.822   6.992   0.738
  729SOL     OW 3960  13.089  12.117   8.330
  729SOL    HW1 3961  13.038  12.197   8.343
  729SOL    HW2 3962  13.137  12.133   8.248
  730SOL     OW 3963   6.454  13.677   1.250
  730SOL    HW1 3964   6.513  13.684   1.325
  730SOL    HW2 3965   6.368  13.659   1.290
  731SOL     OW 3966   2.511   3.225   4.221
  731SOL    HW1 3967   2.428   3.271   4.212
  731SOL    HW2 3968   2.498   3.142   4.174
  732SOL     OW 3969   2.520   4.440   4.623
  732SOL    HW1 3970   2.491   4.528   4.598
  732SOL    HW2 3971   2.442   4.385   4.614
  733SOL     OW 3972  14.371   8.595  14.534
  733SOL    HW1 3973  14.355   8.529  14.601
  733SOL    HW2 3974  14.368   8.547  14.451
  734SOL     OW 3975  14.145   0.391   0.494
  734SOL    HW1 3976  14.160   0.358   0.405
  734SOL    HW2 3977  14.177   0.481   0.492
  735SOL     OW 3978  12.054   1.046  13.364
  735SOL    HW1 3979  11.958   1.048  13.364
  735SOL    HW2 3980  12.078   1.032  13.456
  736SOL     OW 3981   1.293   9.159   9.253
  736SOL    HW1 3982   1.285   9.232   9.315
  736SOL    HW2 3983   1.291   9.200   9.167
  737SOL     OW 3984   7.406  14.560   6.780
  737SOL    HW1 3985   7.374  14.545   6.869
  737SOL    HW2 3986   7.431  14.652   6.778
  738SOL     OW 3987   9.247   2.755   5.339
  738SOL    HW1 3988   9.263   2.830   5.281
  738SOL    HW2 3989   9.265   2.789   5.427
  739SOL     OW 3990  13.566   3.100   7.853
  739SOL    HW1 3991  13.493   3.134   7.903
  739SOL    HW2 3992  13.643   3.116   7.908
  740SOL     OW 3993  13.282  10.181   0.752
  740SOL    HW1 3994  13.192  10.190   0.719
  740SOL    HW2 3995  13.333  10.155   0.675
  741SOL     OW 3996  11.380  12.114   5.117
  741SOL    HW1 3997  11.475  12.121   5.129
  741SOL    HW2 3998  11.344  12.123   5.206
  742SOL     OW 3999  13.289   5.252   8.485
  742SOL    HW1 4000  13.217   5.192   8.464
  742SOL    HW2 4001  13.353   5.237   8.416
  743SOL     OW 4002  13.648   7.392   9.252
  743SOL    HW1 4003  13.565   7.371   9.295
  743SOL    HW2 4004  13.669   7.480   9.283
  744SOL     OW 4005  14.222   0.259   0.254
  744SOL    HW1 4006  14.152   0.217   0.203
  744SOL    HW2 4007  14.301   0.243   0.204
  745SOL     OW 4008   7.583   7.905  14.608
  745SOL    HW1 4009   7.633   7.869  14.682
  745SOL    HW2 4010   7.637   7.886  14.532
  746SOL     OW 4011   6.821  11.356   9.620
  746SOL    HW1 4012   6.824  11.268   9.582
  746SOL    HW2 4013   6.895  11.402   9.581
  747SOL     OW 4014   4.075  11.548  10.390
  747SOL    HW1 4015   4.029  11.465  10.382
  747SOL    HW2 4016   4.147  11.530  10.450
  748SOL     OW 4017   4.372  10.690   2.208
  748SOL    HW1 4018   4.374  10.614   2.149
  748SOL    HW2 4019   4.379  10.653   2.296
  749SOL     OW 4020   2.310   5.067   3.533
  749SOL    HW1 4021   2.372   5.133   3.500
  749SOL    HW2 4022   2.336   4.986   3.490
  750SOL     OW 4023  13.828   0.459   4.461
  750SOL    HW1 4024  13.770   0.468   4.385
  750SOL    HW2 4025  13.809   0.537   4.514
  751SOL     OW 4026  13.232   0.692  13.197
  751SOL    HW1 4027  13.185   0.741  13.263
  751SOL    HW2 4028  13.176   0.696  13.119
  752SOL     OW 4029  12.467   1.739   7.882
  752SOL    HW1 4030  12.514   1.725   7.800
  752SOL    HW2 4031  12.458   1.651   7.919
  753SOL     OW 4032   4.423   1.172  10.871
  753SOL    HW1 4033   4.459   1.208  10.789
  753SOL    HW2 4034   4.367   1.100  10.843
  754SOL     OW 4035  13.062   0.472   5.828
  754SOL    HW1 4036  13.001   0.538   5.862
  754SOL    HW2 4037  13.136   0.476   5.887
  755SOL     OW 4038   4.811   9.870  13.544
  755SOL    HW1 4039   4.856   9.924  13.480
  755SOL    HW2 4040   4.881   9.826  13.593
  756SOL     OW 4041   1.088  13.559  14.745
  756SOL    HW1 4042   1.021  13.532  14.683
  756SOL    HW2 4043   1.046  13.626  14.798
  757SOL     OW 4044   6.281   1.227   1.624
  757SOL    HW1 4045   6.305   1.220   1.532
  757SOL    HW2 4046   6.212   1.294   1.626
  758SOL     OW 4047   5.777   8.741  10.593
  758SOL    HW1 4048   5.827   8.667  10.626
  758SOL    HW2 4049   5.763   8.797  10.669
  759SOL     OW 4050  12.982   7.346  14.786
  759SOL    HW1 4051  12.907   7.316  14.837
  759SOL    HW2 4052  13.044   7.273  14.788
  760SOL     OW 4053  14.043   4.985  11.488
  760SOL    HW1 4054  14.136   4.983  11.467
  760SOL    HW2 4055  14.008   4.904  11.452
  761SOL     OW 4056   0.032  13.952  10.609
  761SOL    HW1 4057   0.012  14.045  10.594
  761SOL    HW2 4058   0.034  13.914  10.521
  762SOL     OW 4059  14.338   8.217   0.294
  762SOL    HW1 4060  14.403   8.147   0.287
  762SOL    HW2 4061  14.340   8.260   0.209
  763SOL     OW 4062  10.945  10.012   7.759
  763SOL    HW1 4063  10.935   9.918   7.743
  763SOL    HW2 4064  10.995  10.044   7.684
  764SOL     OW 4065  11.701   8.519  13.647
  764SOL    HW1 4066  11.792   8.530  13.671
  764SOL    HW2 4067  11.688   8.580  13.574
  765SOL     OW 4068  10.607   7.332   5.767
  765SOL    HW1 4069  10.642   7.341   5.679
  765SOL    HW2 4070  10.513   7.350   5.758
  766SOL     OW 4071   7.965  10.353   0.774
  766SOL    HW1 4072   7.928  10.436   0.803
  766SOL    HW2 4073   7.948  10.293   0.847
  767SOL     OW 4074  12.120  14.059   0.226
  767SOL    HW1 4075  12.066  13.981   0.242
  767SOL    HW2 4076  12.142  14.054   0.133
  768SOL     OW 4077   0.306  12.625   3.797
  768SOL    HW1 4078   0.282  12.625   3.705
  768SOL    HW2 4079   0.280  12.538   3.828
  769SOL     OW 4080   7.127   2.174  10.086
  769SOL    HW1 4081   7.176   2.220  10.154
  769SOL    HW2 4082   7.160   2.211  10.004
  770SOL     OW 4083   1.520   5.050  14.531
  770SOL    HW1 4084   1.541   4.989  14.460
  770SOL    HW2 4085   1.455   5.003  14.583
  771SOL     OW 4086   0.419   1.509   7.363
  771SOL    HW1 4087   0.365   1.547   7.433
  771SOL    HW2 4088   0.485   1.576   7.346
  772SOL     OW 4089   4.014   0.106  10.846
  772SOL    HW1 4090   4.021   0.035  10.782
  772SOL    HW2 4091   4.104   0.127  10.868
  773SOL     OW 4092  14.555   8.188   3.627
  773SOL    HW1 4093  14.646   8.215   3.636
  773SOL    HW2 4094  14.546   8.161   3.536
  774SOL     OW 4095   2.474  14.738  10.140
  774SOL    HW1 4096   2.539  14.779  10.083
  774SOL    HW2 4097   2.525  14.695  10.208
  775SOL     OW 4098  14.149   6.805   3.112
  775SOL    HW1 4099  14.152   6.720   3.157
  775SOL    HW2 4100  14.057   6.815   3.085
  776SOL     OW 4101  14.231  13.716   3.009
  776SOL    HW1 4102  14.267  13.635   2.973
  776SOL    HW2 4103  14.151  13.690   3.053
  777SOL     OW 4104   6.946   1.060   3.086
  777SOL    HW1 4105   6.940   1.009   3.167
  777SOL    HW2 4106   6.915   1.147   3.109
  778SOL     OW 4107   9.957  10.710   9.340
  778SOL    HW1 4108  10.033  10.695   9.397
  778SOL    HW2 4109   9.975  10.793   9.296
  779SOL     OW 4110   2.077   9.326   6.877
  779SOL    HW1 4111   2.062   9.382   6.953
  779SOL    HW2 4112   1.995   9.279   6.865
  780SOL     OW 4113   6.294   7.052  11.771
  780SOL    HW1 4114   6.371   7.008  11.736
  780SOL    HW2 4115   6.328   7.108  11.841
  781SOL     OW 4116   6.257  11.838   5.292
  781SOL    HW1 4117   6.194  11.825   5.221
  781SOL    HW2 4118   6.308  11.757   5.293
  782SOL     OW 4119   5.947  11.438  13.145
  782SOL    HW1 4120   5.883  11.432  13.215
  782SOL    HW2 4121   5.940  11.354  13.099
  783SOL     OW 4122  14.683  13.731   2.330
  783SOL    HW1 4123  14.748  13.683   2.381
  783SOL    HW2 4124  14.601  13.716   2.376
  784SOL     OW 4125   9.165   1.216   0.763
  784SOL    HW1 4126   9.240   1.174   0.805
  784SOL    HW2 4127   9.202   1.259   0.685
  785SOL     OW 4128   8.101  13.048   6.992
  785SOL    HW1 4129   8.105  13.007   6.905
  785SOL    HW2 4130   8.017  13.018   7.028
  786SOL     OW 4131   3.773   7.664   5.862
  786SOL    HW1 4132   3.709   7.601   5.895
  786SOL    HW2 4133   3.723   7.744   5.849
  787SOL     OW 4134   4.625   1.164   2.531
  787SOL    HW1 4135   4.548   1.201   2.488
  787SOL    HW2 4136   4.595   1.080   2.566
  788SOL     OW 4137   9.244  13.783   8.564
  788SOL    HW1 4138   9.199  13.733   8.632
  788SOL    HW2 4139   9.332  13.799   8.600
  789SOL     OW 4140  10.225  10.435   9.683
  789SOL    HW1 4141  10.297  10.403   9.628
  789SOL    HW2 4142  10.258  10.430   9.772
  790SOL     OW 4143   8.793   2.903   4.072
  790SOL    HW1 4144   8.698   2.895   4.080
  790SOL    HW2 4145   8.828   2.846   4.141
  791SOL     OW 4146   9.837   3.774   2.145
  791SOL    HW1 4147   9.799   3.787   2.232
  791SOL    HW2 4148   9.931   3.773   2.159
  792SOL     OW 4149  12.460   4.719   5.235
  792SOL    HW1 4150  12.424   4.764   5.312
  792SOL    HW2 4151  12.531   4.776   5.205
  793SOL     OW 4152   0.355   0.084  11.023
  793SOL    HW1 4153   0.321   0.168  10.991
  793SOL    HW2 4154   0.359   0.028  10.946
  794SOL     OW 4155   0.725   7.649   0.207
  794SOL    HW1 4156   0.659   7.636   0.275
  794SOL    HW2 4157   0.795   7.697   0.250
  795SOL     OW 4158  12.263   9.163   0.374
  795SOL    HW1 4159  12.194   9.168   0.440
  795SOL    HW2 4160  12.238   9.088   0.319
  796SOL     OW 4161   3.409   3.681   1.697
  796SOL    HW1 4162   3.347   3.675   1.625
  796SOL    HW2 4163   3.423   3.775   1.710
  797SOL     OW 4164  13.828   7.141  12.411
  797SOL    HW1 4165  13.901   7.081  12.398
  797SOL    HW2 4166  13.776   7.100  12.480
  798SOL     OW 4167   6.317   8.657  12.239
  798SOL    HW1 4168   6.358   8.573  12.221
  798SOL    HW2 4169   6.313   8.701  12.154
  799SOL     OW 4170   8.504  10.564   2.224
  799SOL    HW1 4171   8.549  10.592   2.144
  799SOL    HW2 4172   8.436  10.503   2.193
  800SOL     OW 4173  10.522   5.067   2.774
  800SOL    HW1 4174  10.460   5.002   2.807
  800SOL    HW2 4175  10.606   5.020   2.772
  801SOL     OW 4176   1.471   9.276   0.977
  801SOL    HW1 4177   1.466   9.297   1.070
  801SOL    HW2 4178   1.446   9.183   0.972
  802SOL     OW 4179   6.136   2.275  10.652
  802SOL    HW1 4180   6.077   2.312  10.718
  802SOL    HW2 4181   6.191   2.349  10.625
  803SOL     OW 4182  10.117  13.551  11.077
  803SOL    HW1 4183  10.041  13.598  11.042
  803SOL    HW2 4184  10.145  13.494  11.006
  804SOL     OW 4185  10.350   0.374  14.123
  804SOL    HW1 4186  10.331   0.462  14.156
  804SOL    HW2 4187  10.322   0.377  14.031
  805SOL     OW 4188  14.201   2.593  11.290
  805SOL    HW1 4189  14.146   2.596  11.368
  805SOL    HW2 4190  14.231   2.502  11.286
  806SOL     OW 4191   6.744   9.288   7.068
  806SOL    HW1 4192   6.759   9.365   7.123
  806SOL    HW2 4193   6.803   9.299   6.994
  807SOL     OW 4194   8.301   0.118   5.179
  807SOL    HW1 4195   8.230   0.173   5.146
  807SOL    HW2 4196   8.381   0.166   5.156
  808SOL     OW 4197   1.876   1.939   6.051
  808SOL    HW1 4198   1.972   1.946   6.055
  808SOL    HW2 4199   1.859   1.845   6.053
  809SOL     OW 4200   0.406   1.550   3.400
  809SOL    HW1 4201   0.489   1.589   3.371
  809SOL    HW2 4202   0.429   1.503   3.480
  810SOL     OW 4203   2.611   1.017  10.421
  810SOL    HW1 4204   2.645   1.075  10.353
  810SOL    HW2 4205   2.553   0.957  10.373
  811SOL     OW 4206   6.306   2.659   3.235
  811SOL    HW1 4207   6.392   2.637   3.272
  811SOL    HW2 4208   6.323   2.670   3.141
  812SOL     OW 4209   1.652   0.955   9.261
  812SOL    HW1 4210   1.712   0.952   9.186
  812SOL    HW2 4211   1.710   0.971   9.336
  813SOL     OW 4212   3.738  10.021  11.663
  813SOL    HW1 4213   3.813   9.977  11.624
  813SOL    HW2 4214   3.662   9.982  11.622
  814SOL     OW 4215   5.324   9.852  10.725
  814SOL    HW1 4216   5.375   9.900  10.790
  814SOL    HW2 4217   5.240   9.897  10.722
  815SOL     OW 4218   3.576   8.174   0.822
  815SOL    HW1 4219   3.569   8.091   0.870
  815SOL    HW2 4220   3.512   8.166   0.751
  816SOL     OW 4221   2.442   9.395  12.421
  816SOL    HW1 4222   2.391   9.458  12.472
  816SOL    HW2 4223   2.385   9.370  12.349
  817SOL     OW 4224   7.872   8.675   3.789
  817SOL    HW1 4225   7.847   8.758   3.829
  817SOL    HW2 4226   7.833   8.608   3.845
  818SOL     OW 4227  14.827   2.141   3.448
  818SOL    HW1 4228  14.857   2.229   3.470
  818SOL    HW2 4229  14.746   2.131   3.498
  819SOL     OW 4230   8.485  10.153   8.643
  819SOL    HW1 4231   8.498  10.247   8.629
  819SOL    HW2 4232   8.540  10.132   8.719
  820SOL     OW 4233  10.494  12.124  14.221
  820SOL    HW1 4234  10.500  12.161  14.132
  820SOL    HW2 4235  10.526  12.034  14.211
  821SOL     OW 4236   9.724   6.976  13.848
  821SOL    HW1 4237   9.772   7.058  13.841
  821SOL    HW2 4238   9.791   6.908  13.851
  822SOL     OW 4239   2.371   3.527  10.995
  822SOL    HW1 4240   2.404   3.571  10.917
  822SOL    HW2 4241   2.291   3.483  10.966
  823SOL     OW 4242   6.605   7.624   4.388
  823SOL    HW1 4243   6.589   7.536   4.354
  823SOL    HW2 4244   6.557   7.681   4.328
  824SOL     OW 4245   3.694   7.381   2.515
  824SOL    HW1 4246   3.728   7.292   2.506
  824SOL    HW2 4247   3.719   7.425   2.433
  825SOL     OW 4248   5.553  14.426   4.553
  825SOL    HW1 4249   5.492  14.499   4.540
  825SOL    HW2 4250   5.617  14.436   4.482
  826SOL     OW 4251   9.627  14.136   9.793
  826SOL    HW1 4252   9.620  14.207   9.729
  826SOL    HW2 4253   9.539  14.129   9.830
  827SOL     OW 4254  12.656   2.022  10.095
  827SOL    HW1 4255  12.735   2.058  10.136
  827SOL    HW2 4256  12.688   1.953  10.037
  828SOL     OW 4257  12.059   3.048   7.576
  828SOL    HW1 4258  12.140   3.098   7.565
  828SOL    HW2 4259  12.089   2.961   7.602
  829SOL     OW 4260   9.151   3.102   6.115
  829SOL    HW1 4261   9.220   3.069   6.172
  829SOL    HW2 4262   9.180   3.190   6.090
  830SOL     OW 4263  10.332   7.307   1.501
  830SOL    HW1 4264  10.239   7.309   1.481
  830SOL    HW2 4265  10.371   7.367   1.438
  831SOL     OW 4266   2.489   8.452  13.968
  831SOL    HW1 4267   2.494   8.419  13.879
  831SOL    HW2 4268   2.510   8.545  13.960
  832SOL     OW 4269   2.430  12.331   9.237
  832SOL    HW1 4270   2.420  12.267   9.167
  832SOL    HW2 4271   2.355  12.317   9.294
  833SOL     OW 4272  13.971  12.900   9.456
  833SOL    HW1 4273  13.897  12.839   9.462
  833SOL    HW2 4274  13.936  12.976   9.410
  834SOL     OW 4275   6.836  13.635  12.171
  834SOL    HW1 4276   6.766  13.579  12.140
  834SOL    HW2 4277   6.914  13.579  12.169
  835SOL     OW 4278  10.500   1.371   6.776
  835SOL    HW1 4279  10.564   1.418   6.722
  835SOL    HW2 4280  10.536   1.282   6.783
  836SOL     OW 4281  12.186   3.390   2.601
  836SOL    HW1 4282  12.114   3.347   2.647
  836SOL    HW2 4283  12.155   3.398   2.511
  837SOL     OW 4284   2.125   8.525   3.730
  837SOL    HW1 4285   2.072   8.481   3.796
  837SOL    HW2 4286   2.136   8.460   3.660
  838SOL     OW 4287   4.309   6.984   0.767
  838SOL    HW1 4288   4.344   6.927   0.836
  838SOL    HW2 4289   4.222   7.009   0.799
  839SOL     OW 4290  13.356   2.484   1.436
  839SOL    HW1 4291  13.376   2.575   1.413
  839SOL    HW2 4292  13.260   2.478   1.432
  840SOL     OW 4293  14.789   0.700  14.585
  840SOL    HW1 4294  14.873   0.745  14.580
  840SOL    HW2 4295  14.726   0.770  14.603
  841SOL     OW 4296  13.101   0.722  11.110
  841SOL    HW1 4297  13.037   0.793  11.100
  841SOL    HW2 4298  13.053   0.643  11.086
  842SOL     OW 4299   6.679  11.716  12.272
  842SOL    HW1 4300   6.662  11.806  12.298
  842SOL    HW2 4301   6.592  11.677  12.261
  843SOL     OW 4302   1.408   7.473  10.133
  843SOL    HW1 4303   1.346   7.537  10.099
  843SOL    HW2 4304   1.362   7.389  10.125
  844SOL     OW 4305   6.912   1.830   1.969
  844SOL    HW1 4306   6.982   1.847   1.907
  844SOL    HW2 4307   6.850   1.901   1.955
  845SOL     OW 4308   7.256  11.980   4.689
  845SOL    HW1 4309   7.168  12.018   4.688
  845SOL    HW2 4310   7.258  11.923   4.612
  846SOL     OW 4311   2.681  12.935  13.931
  846SOL    HW1 4312   2.720  12.992  13.996
  846SOL    HW2 4313   2.618  12.882  13.980
  847SOL     OW 4314   6.776   4.826   5.034
  847SOL    HW1 4315   6.777   4.835   4.939
  847SOL    HW2 4316   6.720   4.898   5.065
  848SOL     OW 4317   5.988  10.145   6.934
  848SOL    HW1 4318   5.928  10.211   6.969
  848SOL    HW2 4319   6.052  10.195   6.883
  849SOL     OW 4320   2.063   6.205  12.755
  849SOL    HW1 4321   2.149   6.237  12.727
  849SOL    HW2 4322   2.010   6.284  12.765
  850SOL     OW 4323   0.021   1.289   4.162
  850SOL    HW1 4324   0.012   1.381   4.187
  850SOL    HW2 4325   0.044   1.245   4.244
  851SOL     OW 4326   5.979  10.977  12.213
  851SOL    HW1 4327   5.905  10.970  12.152
  851SOL    HW2 4328   5.940  11.006  12.295
  852SOL     OW 4329   1.257  13.481   3.614
  852SOL    HW1 4330   1.238  13.563   3.659
  852SOL    HW2 4331   1.236  13.412   3.677
  853SOL     OW 4332  10.361   1.523   8.109
  853SOL    HW1 4333  10.409   1.474   8.042
  853SOL    HW2 4334  10.421   1.593   8.134
  854SOL     OW 4335  14.327   5.366   9.486
  854SOL    HW1 4336  14.366   5.443   9.526
  854SOL    HW2 4337  14.235   5.390   9.472
  855SOL     OW 4338   5.200   4.758  14.511
  855SOL    HW1 4339   5.182   4.673  14.550
  855SOL    HW2 4340   5.248   4.806  14.578
  856SOL     OW 4341   4.572   8.682  13.662
  856SOL    HW1 4342   4.559   8.741  13.736
  856SOL    HW2 4343   4.484   8.655  13.636
  857SOL     OW 4344  14.321  11.086  10.571
  857SOL    HW1 4345  14.340  11.098  10.478
  857SOL    HW2 4346  14.276  11.001  10.575
  858SOL     OW 4347  12.671   4.828   7.180
  858SOL    HW1 4348  12.607   4.852   7.247
  858SOL    HW2 4349  12.727   4.763   7.223
  859SOL     OW 4350   0.196   5.357   0.999
  859SOL    HW1 4351   0.169   5.400   1.080
  859SOL    HW2 4352   0.192   5.263   1.020
  860SOL     OW 4353   8.860  12.144   7.389
  860SOL    HW1 4354   8.777  12.163   7.432
  860SOL    HW2 4355   8.893  12.066   7.435
  861SOL     OW 4356   7.025  13.758   8.413
  861SOL    HW1 4357   6.972  13.720   8.483
  861SOL    HW2 4358   7.110  13.776   8.454
  862SOL     OW 4359   5.404   4.445  10.571
  862SOL    HW1 4360   5.375   4.524  10.616
  862SOL    HW2 4361   5.494   4.466  10.543
  863SOL     OW 4362   5.140  12.298  14.163
  863SOL    HW1 4363   5.122  12.218  14.114
  863SOL    HW2 4364   5.099  12.284  14.248
  864SOL     OW 4365   3.737  13.651  13.955
  864SOL    HW1 4366   3.765  13.686  13.870
  864SOL    HW2 4367   3.769  13.715  14.019
  865SOL     OW 4368   4.834  10.204  10.777
  865SOL    HW1 4369   4.910  10.261  10.773
  865SOL    HW2 4370   4.759  10.263  10.776
  866SOL     OW 4371   2.487   0.690   0.571
  866SOL    HW1 4372   2.493   0.725   0.660
  866SOL    HW2 4373   2.485   0.767   0.515
  867SOL     OW 4374   1.762   3.445   0.418
  867SOL    HW1 4375   1.784   3.439   0.325
  867SOL    HW2 4376   1.667   3.462   0.419
  868SOL     OW 4377  13.141  12.485   1.883
  868SOL    HW1 4378  13.115  12.495   1.974
  868SOL    HW2 4379  13.199  12.560   1.866
  869SOL     OW 4380   0.692   0.601   8.798
  869SOL    HW1 4381   0.759   0.533   8.791
  869SOL    HW2 4382   0.683   0.635   8.709
  870SOL     OW 4383  10.209   5.060   9.665
  870SOL    HW1 4384  10.122   5.100   9.663
  870SOL    HW2 4385  10.196   4.971   9.633
  871SOL     OW 4386   8.838   2.005   7.387
  871SOL    HW1 4387   8.918   2.034   7.431
  871SOL    HW2 4388   8.815   2.078   7.329
  872SOL     OW 4389   4.042  13.607   9.245
  872SOL    HW1 4390   4.013  13.659   9.320
  872SOL    HW2 4391   4.133  13.632   9.231
  873SOL     OW 4392   1.396  13.826   8.465
  873SOL    HW1 4393   1.385  13.899   8.525
  873SOL    HW2 4394   1.363  13.858   8.381
  874SOL     OW 4395   6.245   4.712   3.174
  874SOL    HW1 4396   6.209   4.720   3.263
  874SOL    HW2 4397   6.214   4.626   3.144
  875SOL     OW 4398  12.285   5.088   4.090
  875SOL    HW1 4399  12.209   5.041   4.056
  875SOL    HW2 4400  12.335   5.112   4.012
  876SOL     OW 4401   2.425   8.951   3.444
  876SOL    HW1 4402   2.520   8.964   3.437
  876SOL    HW2 4403   2.412   8.860   3.416
  877SOL     OW 4404   9.478  12.445   1.299
  877SOL    HW1 4405   9.432  12.450   1.215
  877SOL    HW2 4406   9.418  12.400   1.358
  878SOL     OW 4407  12.270   4.458  14.796
  878SOL    HW1 4408  12.182   4.451  14.835
  878SOL    HW2 4409  12.297   4.548  14.815
  879SOL     OW 4410  14.121  10.276  12.043
  879SOL    HW1 4411  14.207  10.262  12.005
  879SOL    HW2 4412  14.116  10.371  12.057
  880SOL     OW 4413   8.947   2.063   1.853
  880SOL    HW1 4414   8.864   2.015   1.855
  880SOL    HW2 4415   8.971   2.072   1.946
  881SOL     OW 4416  14.166  12.355   8.355
  881SOL    HW1 4417  14.242  12.356   8.296
  881SOL    HW2 4418  14.126  12.269   8.340
  882SOL     OW 4419   6.309   8.025   1.606
  882SOL    HW1 4420   6.346   8.098   1.557
  882SOL    HW2 4421   6.374   8.005   1.673
  883SOL     OW 4422   4.629   2.155  10.753
  883SOL    HW1 4423   4.658   2.140  10.663
  883SOL    HW2 4424   4.534   2.165  10.746
  884SOL     OW 4425   8.775  13.791  12.943
  884SOL    HW1 4426   8.772  13.859  12.875
  884SOL    HW2 4427   8.867  13.765  12.946
  885SOL     OW 4428  10.542   3.414   3.983
  885SOL    HW1 4429  10.521   3.417   4.077
  885SOL    HW2 4430  10.606   3.483   3.970
  886SOL     OW 4431   1.094   9.127  12.059
  886SOL    HW1 4432   1.096   9.172  11.975
  886SOL    HW2 4433   1.069   9.037  12.038
  887SOL     OW 4434  13.063  11.840   6.863
  887SOL    HW1 4435  13.086  11.747   6.873
  887SOL    HW2 4436  13.068  11.876   6.952
  888SOL     OW 4437   8.963   3.568  12.997
  888SOL    HW1 4438   8.939   3.659  13.013
  888SOL    HW2 4439   9.058   3.568  12.989
  889SOL     OW 4440   6.309   9.804  13.391
  889SOL    HW1 4441   6.257   9.728  13.417
  889SOL    HW2 4442   6.307   9.803  13.295
  890SOL     OW 4443   7.373   6.896   6.595
  890SOL    HW1 4444   7.397   6.818   6.644
  890SOL    HW2 4445   7.297   6.931   6.642
  891SOL     OW 4446   1.173   1.172  14.462
  891SOL    HW1 4447   1.217   1.106  14.516
  891SOL    HW2 4448   1.155   1.244  14.523
  892SOL     OW 4449   6.054   1.932   3.110
  892SOL    HW1 4450   5.987   1.989   3.146
  892SOL    HW2 4451   6.013   1.891   3.034
  893SOL     OW 4452   3.777   7.977  12.235
  893SOL    HW1 4453   3.858   7.926  12.245
  893SOL    HW2 4454   3.807   8.067  12.220
  894SOL     OW 4455   9.698  12.335  10.865
  894SOL    HW1 4456   9.701  12.247  10.829
  894SOL    HW2 4457   9.776  12.342  10.919
  895SOL     OW 4458   8.781  11.960   1.397
  895SOL    HW1 4459   8.821  11.950   1.311
  895SOL    HW2 4460   8.765  11.870   1.426
  896SOL     OW 4461   4.849   4.602   6.677
  896SOL    HW1 4462   4.859   4.670   6.743
  896SOL    HW2 4463   4.923   4.543   6.691
  897SOL     OW 4464   5.047  12.504   8.486
  897SOL    HW1 4465   5.044  12.409   8.502
  897SOL    HW2 4466   5.002  12.542   8.561
  898SOL     OW 4467   5.024  11.459   7.354
  898SOL    HW1 4468   4.995  11.374   7.388
  898SOL    HW2 4469   4.969  11.523   7.400
  899SOL     OW 4470   2.817  12.940   1.150
  899SOL    HW1 4471   2.753  12.895   1.204
  899SOL    HW2 4472   2.822  13.028   1.187
  900SOL     OW 4473  10.503   3.087   0.343
  900SOL    HW1 4474  10.413   3.090   0.374
  900SOL    HW2 4475  10.539   3.173   0.363
  901SOL     OW 4476  13.043   9.839  13.931
  901SOL    HW1 4477  13.068   9.931  13.938
  901SOL    HW2 4478  12.948   9.841  13.921
  902SOL     OW 4479   9.456  11.570  14.733
  902SOL    HW1 4480   9.435  11.651  14.779
  902SOL    HW2 4481   9.425  11.586  14.643
  903SOL     OW 4482  13.868  10.512   8.319
  903SOL    HW1 4483  13.871  10.487   8.412
  903SOL    HW2 4484  13.830  10.600   8.318
  904SOL     OW 4485  12.300  13.808   0.352
  904SOL    HW1 4486  12.275  13.895   0.385
  904SOL    HW2 4487  12.243  13.793   0.277
  905SOL     OW 4488   9.786   2.328   4.434
  905SOL    HW1 4489   9.785   2.322   4.338
  905SOL    HW2 4490   9.699   2.298   4.461
  906SOL     OW 4491   2.625  12.961  12.614
  906SOL    HW1 4492   2.682  12.998  12.681
  906SOL    HW2 4493   2.536  12.971  12.649
  907SOL     OW 4494   2.288   6.426   9.312
  907SOL    HW1 4495   2.276   6.331   9.320
  907SOL    HW2 4496   2.304   6.455   9.402
  908SOL     OW 4497   1.046  11.224   3.257
  908SOL    HW1 4498   1.004  11.260   3.179
  908SOL    HW2 4499   1.092  11.147   3.226
  909SOL     OW 4500   1.377   5.394  12.731
  909SOL    HW1 4501   1.341   5.476  12.764
  909SOL    HW2 4502   1.424   5.418  12.651
  910SOL     OW 4503   9.738   4.533  12.608
  910SOL    HW1 4504   9.694   4.451  12.585
  910SOL    HW2 4505   9.788   4.556  12.530
  911SOL     OW 4506  10.901   8.982  12.830
  911SOL    HW1 4507  10.809   8.974  12.806
  911SOL    HW2 4508  10.940   9.030  12.756
  912SOL     OW 4509   1.763   5.052   3.102
  912SOL    HW1 4510   1.711   4.972   3.099
  912SOL    HW2 4511   1.768   5.080   3.010
  913SOL     OW 4512   8.231   4.989   5.949
  913SOL    HW1 4513   8.316   4.959   5.983
  913SOL    HW2 4514   8.195   4.912   5.906
  914SOL     OW 4515   1.069   5.720  12.365
  914SOL    HW1 4516   1.054   5.627  12.383
  914SOL    HW2 4517   0.982   5.754  12.342
  915SOL     OW 4518   9.712   9.985   2.299
  915SOL    HW1 4519   9.805  10.009   2.307
  915SOL    HW2 4520   9.668  10.067   2.277
  916SOL     OW 4521   7.850   0.198   9.973
  916SOL    HW1 4522   7.855   0.281   9.926
  916SOL    HW2 4523   7.874   0.132   9.908
  917SOL     OW 4524  12.535   4.861   0.364
  917SOL    HW1 4525  12.604   4.795   0.357
  917SOL    HW2 4526  12.518   4.868   0.458
  918SOL     OW 4527   7.664   9.357   9.568
  918SOL    HW1 4528   7.577   9.337   9.532
  918SOL    HW2 4529   7.646   9.399   9.652
  919SOL     OW 4530  12.260   2.107   3.286
  919SOL    HW1 4531  12.197   2.063   3.229
  919SOL    HW2 4532  12.293   2.038   3.343
  920SOL     OW 4533   4.905   3.366  14.824
  920SOL    HW1 4534   4.914   3.336   0.033
  920SOL    HW2 4535   4.941   3.454  14.825
  921SOL     OW 4536  14.867  12.009  12.274
  921SOL    HW1 4537  14.807  12.079  12.251
  921SOL    HW2 4538  14.828  11.930  12.235
  922SOL     OW 4539   3.416   8.696   3.824
  922SOL    HW1 4540   3.407   8.709   3.918
  922SOL    HW2 4541   3.470   8.617   3.817
  923SOL     OW 4542   4.974  12.635   3.664
  923SOL    HW1 4543   4.905  12.690   3.626
  923SOL    HW2 4544   4.935  12.547   3.667
  924SOL     OW 4545   5.831  11.158   4.780
  924SOL    HW1 4546   5.860  11.243   4.814
  924SOL    HW2 4547   5.788  11.116   4.854
  925SOL     OW 4548   3.590  10.846   8.125
  925SOL    HW1 4549   3.503  10.855   8.164
  925SOL    HW2 4550   3.639  10.794   8.188
  926SOL     OW 4551   3.071  13.493   7.626
  926SOL    HW1 4552   3.016  13.420   7.597
  926SOL    HW2 4553   3.159  13.469   7.599
  927SOL     OW 4554   1.420   2.801   0.324
  927SOL    HW1 4555   1.509   2.801   0.287
  927SOL    HW2 4556   1.390   2.891   0.314
  928SOL     OW 4557   9.841   8.737  11.686
  928SOL    HW1 4558   9.935   8.734  11.706
  928SOL    HW2 4559   9.838   8.761  11.593
  929SOL     OW 4560   2.063   0.615  11.957
  929SOL    HW1 4561   1.998   0.545  11.968
  929SOL    HW2 4562   2.147   0.573  11.975
  930SOL     OW 4563   8.066   2.051  11.128
  930SOL    HW1 4564   7.983   2.009  11.150
  930SOL    HW2 4565   8.127   1.978  11.116
  931SOL     OW 4566   6.577   6.546   7.878
  931SOL    HW1 4567   6.593   6.550   7.972
  931SOL    HW2 4568   6.525   6.466   7.866
  932SOL     OW 4569  10.526  11.713   8.375
  932SOL    HW1 4570  10.525  11.714   8.471
  932SOL    HW2 4571  10.445  11.758   8.350
  933SOL     OW 4572   4.276   2.266  14.750
  933SOL    HW1 4573   4.187   2.301  14.739
  933SOL    HW2 4574   4.299   2.230  14.664
  934SOL     OW 4575   5.268  13.593   3.687
  934SOL    HW1 4576   5.317  13.672   3.668
  934SOL    HW2 4577   5.266  13.588   3.783
  935SOL     OW 4578   3.614  10.038   1.179
  935SOL    HW1 4579   3.686   9.985   1.214
  935SOL    HW2 4580   3.656  10.120   1.151
  936SOL     OW 4581   7.687   3.948   7.409
  936SOL    HW1 4582   7.708   3.855   7.401
  936SOL    HW2 4583   7.629   3.952   7.485
  937SOL     OW 4584   4.298  12.992   0.134
  937SOL    HW1 4585   4.380  12.983   0.086
  937SOL    HW2 4586   4.230  12.965   0.072
  938SOL     OW 4587   4.032  12.430  12.069
  938SOL    HW1 4588   4.032  12.354  12.012
  938SOL    HW2 4589   4.125  12.456  12.074
  939SOL     OW 4590  14.693  12.072   1.503
  939SOL    HW1 4591  14.615  12.121   1.476
  939SOL    HW2 4592  14.710  12.102   1.593
  940SOL     OW 4593  13.215   6.095  13.054
  940SOL    HW1 4594  13.265   6.169  13.019
  940SOL    HW2 4595  13.129   6.104  13.015
  941SOL     OW 4596   6.838   9.409   0.584
  941SOL    HW1 4597   6.743   9.411   0.594
  941SOL    HW2 4598   6.856   9.322   0.550
  942SOL     OW 4599   1.179   6.965   3.483
  942SOL    HW1 4600   1.104   6.950   3.425
  942SOL    HW2 4601   1.171   7.057   3.509
  943SOL     OW 4602  10.036  13.287   4.019
  943SOL    HW1 4603  10.099  13.324   4.080
  943SOL    HW2 4604  10.052  13.192   4.023
  944SOL     OW 4605  10.794   3.174   1.509
  944SOL    HW1 4606  10.739   3.244   1.473
  944SOL    HW2 4607  10.731   3.111   1.544
  945SOL     OW 4608   9.729   0.692  14.416
  945SOL    HW1 4609   9.809   0.671  14.367
  945SOL    HW2 4610   9.660   0.692  14.350
  946SOL     OW 4611  12.751   1.508  12.468
  946SOL    HW1 4612  12.800   1.579  12.426
  946SOL    HW2 4613  12.659   1.531  12.453
  947SOL     OW 4614   0.367  10.204   8.562
  947SOL    HW1 4615   0.382  10.202   8.656
  947SOL    HW2 4616   0.361  10.112   8.536
  948SOL     OW 4617   5.650   9.808  14.462
  948SOL    HW1 4618   5.689   9.896  14.465
  948SOL    HW2 4619   5.676   9.773  14.377
  949SOL     OW 4620   8.929  10.095   7.807
  949SOL    HW1 4621   8.904  10.127   7.720
  949SOL    HW2 4622   8.913  10.170   7.865
  950SOL     OW 4623   6.835   2.733   6.723
  950SOL    HW1 4624   6.751   2.758   6.763
  950SOL    HW2 4625   6.826   2.639   6.707
  951SOL     OW 4626   5.966  14.419  13.421
  951SOL    HW1 4627   5.900  14.434  13.489
  951SOL    HW2 4628   6.036  14.372  13.465
  952SOL     OW 4629  12.539   0.174   4.437
  952SOL    HW1 4630  12.624   0.181   4.395
  952SOL    HW2 4631  12.486   0.244   4.396
  953SOL     OW 4632   5.281   5.558  10.723
  953SOL    HW1 4633   5.320   5.474  10.749
  953SOL    HW2 4634   5.224   5.582  10.795
  954SOL     OW 4635  13.421   0.867   4.201
  954SOL    HW1 4636  13.427   0.917   4.282
  954SOL    HW2 4637  13.411   0.933   4.133
  955SOL     OW 4638   5.718   1.342   5.294
  955SOL    HW1 4639   5.726   1.331   5.200
  955SOL    HW2 4640   5.808   1.350   5.326
  956SOL     OW 4641  10.743   8.782   2.274
  956SOL    HW1 4642  10.752   8.693   2.241
  956SOL    HW2 4643  10.652   8.787   2.305
  957SOL     OW 4644   3.087  12.032   9.652
  957SOL    HW1 4645   3.003  11.996   9.680
  957SOL    HW2 4646   3.071  12.126   9.644
  958SOL     OW 4647   8.742  12.000   7.740
  958SOL    HW1 4648   8.677  12.068   7.758
  958SOL    HW2 4649   8.708  11.955   7.663
  959SOL     OW 4650   2.909  12.594   9.114
  959SOL    HW1 4651   2.971  12.536   9.157
  959SOL    HW2 4652   2.824  12.570   9.150
  960SOL     OW 4653   4.624  14.461   6.970
  960SOL    HW1 4654   4.679  14.455   6.892
  960SOL    HW2 4655   4.639  14.549   7.004
  961SOL     OW 4656   0.426   5.279   7.507
  961SOL    HW1 4657   0.479   5.357   7.493
  961SOL    HW2 4658   0.356   5.285   7.442
  962SOL     OW 4659  10.358   0.425  12.253
  962SOL    HW1 4660  10.329   0.503  12.300
  962SOL    HW2 4661  10.325   0.438  12.164
  963SOL     OW 4662   9.462   4.693   0.077
  963SOL    HW1 4663   9.431   4.641   0.151
  963SOL    HW2 4664   9.551   4.663   0.062
  964SOL     OW 4665  11.524  10.176   4.303
  964SOL    HW1 4666  11.583  10.230   4.249
  964SOL    HW2 4667  11.576  10.151   4.378
  965SOL     OW 4668   3.306   6.575  12.451
  965SOL    HW1 4669   3.218   6.579  12.489
  965SOL    HW2 4670   3.294   6.598  12.359
  966SOL     OW 4671   1.551   6.906   4.582
  966SOL    HW1 4672   1.646   6.913   4.588
  966SOL    HW2 4673   1.532   6.813   4.595
  967SOL     OW 4674   4.288   9.938  14.636
  967SOL    HW1 4675   4.244  10.022  14.619
  967SOL    HW2 4676   4.307   9.903  14.549
  968SOL     OW 4677   2.018   8.265   5.484
  968SOL    HW1 4678   2.088   8.321   5.517
  968SOL    HW2 4679   1.940   8.292   5.533
  969SOL     OW 4680   9.325   1.390   0.555
  969SOL    HW1 4681   9.322   1.481   0.587
  969SOL    HW2 4682   9.284   1.394   0.469
  970SOL     OW 4683   2.425   9.628   0.757
  970SOL    HW1 4684   2.418   9.545   0.709
  970SOL    HW2 4685   2.488   9.680   0.706
  971SOL     OW 4686   9.341  10.103   9.822
  971SOL    HW1 4687   9.256  10.061   9.813
  971SOL    HW2 4688   9.322  10.196   9.824
  972SOL     OW 4689   9.381  10.459   6.740
  972SOL    HW1 4690   9.417  10.424   6.659
  972SOL    HW2 4691   9.441  10.429   6.808
  973SOL     OW 4692  14.072   9.883  13.251
  973SOL    HW1 4693  14.065   9.943  13.326
  973SOL    HW2 4694  14.111   9.803  13.288
  974SOL     OW 4695   5.048   3.465   2.403
  974SOL    HW1 4696   5.106   3.390   2.419
  974SOL    HW2 4697   5.038   3.468   2.308
  975SOL     OW 4698   3.001   3.421   4.824
  975SOL    HW1 4699   3.038   3.336   4.844
  975SOL    HW2 4700   2.978   3.416   4.731
  976SOL     OW 4701   0.880  13.761  13.463
  976SOL    HW1 4702   0.974  13.763  13.444
  976SOL    HW2 4703   0.839  13.783  13.379
  977SOL     OW 4704  13.279   1.693   9.924
  977SOL    HW1 4705  13.277   1.637  10.001
  977SOL    HW2 4706  13.277   1.782   9.958
  978SOL     OW 4707  14.038  11.842   8.514
  978SOL    HW1 4708  14.082  11.888   8.586
  978SOL    HW2 4709  14.006  11.761   8.553
  979SOL     OW 4710   5.731   8.092   6.269
  979SOL    HW1 4711   5.685   8.105   6.186
  979SOL    HW2 4712   5.784   8.171   6.279
  980SOL     OW 4713   0.839  10.747   3.612
  980SOL    HW1 4714   0.874  10.737   3.523
  980SOL    HW2 4715   0.775  10.817   3.605
  981SOL     OW 4716  13.391   9.783   2.331
  981SOL    HW1 4717  13.485   9.768   2.343
  981SOL    HW2 4718  13.372   9.860   2.385
  982SOL     OW 4719   8.126  10.645   0.209
  982SOL    HW1 4720   8.067  10.601   0.270
  982SOL    HW2 4721   8.077  10.723   0.182
  983SOL     OW 4722   0.170  10.506   2.443
  983SOL    HW1 4723   0.133  10.500   2.531
  983SOL    HW2 4724   0.243  10.567   2.452
  984SOL     OW 4725  10.754   1.801   9.390
  984SOL    HW1 4726  10.812   1.759   9.454
  984SOL    HW2 4727  10.740   1.735   9.322
  985SOL     OW 4728   9.499   9.709   3.873
  985SOL    HW1 4729   9.484   9.620   3.906
  985SOL    HW2 4730   9.552   9.696   3.794
  986SOL     OW 4731   0.126   5.923  11.429
  986SOL    HW1 4732   0.146   5.832  11.406
  986SOL    HW2 4733   0.210   5.961  11.451
  987SOL     OW 4734  11.549   6.497   1.042
  987SOL    HW1 4735  11.575   6.576   1.090
  987SOL    HW2 4736  11.454   6.493   1.052
  988SOL     OW 4737  10.603   9.129  10.310
  988SOL    HW1 4738  10.695   9.111  10.291
  988SOL    HW2 4739  10.584   9.077  10.388
  989SOL     OW 4740   0.874  12.286  11.600
  989SOL    HW1 4741   0.788  12.268  11.562
  989SOL    HW2 4742   0.874  12.380  11.617
  990SOL     OW 4743  14.146   1.366   9.103
  990SOL    HW1 4744  14.161   1.287   9.154
  990SOL    HW2 4745  14.201   1.356   9.025
  991SOL     OW 4746   0.978   2.223   6.911
  991SOL    HW1 4747   0.922   2.287   6.868
  991SOL    HW2 4748   0.977   2.147   6.852
  992SOL     OW 4749  13.824   3.245  12.351
  992SOL    HW1 4750  13.902   3.224  12.300
  992SOL    HW2 4751  13.851   3.318  12.408
  993SOL     OW 4752   1.264  10.906   4.453
  993SOL    HW1 4753   1.317  10.921   4.531
  993SOL    HW2 4754   1.294  10.821   4.421
  994SOL     OW 4755   5.780   3.832   2.621
  994SOL    HW1 4756   5.787   3.864   2.531
  994SOL    HW2 4757   5.871   3.818   2.648
  995SOL     OW 4758   1.366   8.218   1.041
  995SOL    HW1 4759   1.308   8.215   0.965
  995SOL    HW2 4760   1.372   8.127   1.071
  996SOL     OW 4761   6.157   7.267   6.961
  996SOL    HW1 4762   6.185   7.330   6.894
  996SOL    HW2 4763   6.061   7.272   6.960
  997SOL     OW 4764   3.148  13.959   3.653
  997SOL    HW1 4765   3.195  13.878   3.631
  997SOL    HW2 4766   3.170  13.974   3.745
  998SOL     OW 4767   6.172   4.527   5.402
  998SOL    HW1 4768   6.178   4.615   5.366
  998SOL    HW2 4769   6.245   4.520   5.463
  999SOL     OW 4770   7.494   4.186   5.726
  999SOL    HW1 4771   7.564   4.129   5.694
  999SOL    HW2 4772   7.414   4.134   5.717
 1000SOL     OW 4773  11.409  13.751   3.132
 1000SOL    HW1 4774  11.409  13.797   3.049
 1000SOL    HW2 4775  11.366  13.811   3.193
 1001SOL     OW 4776   4.248  13.603   1.929
 1001SOL    HW1 4777   4.215  13.620   1.840
 1001SOL    HW2 4778   4.194  13.530   1.960
 1002SOL     OW 4779  14.486  11.584   3.087
 1002SOL    HW1 4780  14.452  11.660   3.135
 1002SOL    HW2 4781  14.436  11.583   3.005
 1003SOL     OW 4782   0.287   7.337   1.542
 1003SOL    HW1 4783   0.291   7.253   1.495
 1003SOL    HW2 4784   0.255   7.399   1.478
 1004SOL     OW 4785  11.563  10.441   1.791
 1004SOL    HW1 4786  11.597  10.520   1.749
 1004SOL    HW2 4787  11.491  10.413   1.735
 1005SOL     OW 4788   3.729  12.797   8.452
 1005SOL    HW1 4789   3.734  12.750   8.535
 1005SOL    HW2 4790   3.635  12.805   8.434
 1006SOL     OW 4791   2.293   1.297   7.577
 1006SOL    HW1 4792   2.315   1.227   7.638
 1006SOL    HW2 4793   2.295   1.377   7.629
 1007SOL     OW 4794   1.783   7.948   4.004
 1007SOL    HW1 4795   1.719   7.888   4.042
 1007SOL    HW2 4796   1.747   7.970   3.918
 1008SOL     OW 4797   6.800   1.742   0.027
 1008SOL    HW1 4798   6.771   1.825   0.064
 1008SOL    HW2 4799   6.720   1.701  14.875
 1009SOL     OW 4800  10.723  12.364   1.685
 1009SOL    HW1 4801  10.657  12.306   1.721
 1009SOL    HW2 4802  10.806  12.325   1.712
 1010SOL     OW 4803   1.683   6.578   7.689
 1010SOL    HW1 4804   1.759   6.624   7.654
 1010SOL    HW2 4805   1.634   6.550   7.612
 1011SOL     OW 4806   4.203   5.198   9.583
 1011SOL    HW1 4807   4.117   5.198   9.541
 1011SOL    HW2 4808   4.187   5.230   9.672
 1012SOL     OW 4809   9.309   9.909  12.920
 1012SOL    HW1 4810   9.371   9.952  12.862
 1012SOL    HW2 4811   9.364   9.865  12.985
 1013SOL     OW 4812   7.420   3.963   6.043
 1013SOL    HW1 4813   7.509   3.959   6.079
 1013SOL    HW2 4814   7.378   3.882   6.073
 1014SOL     OW 4815   8.986   6.732   4.382
 1014SOL    HW1 4816   8.950   6.772   4.303
 1014SOL    HW2 4817   8.935   6.652   4.395
 1015SOL     OW 4818   5.737   3.691   3.170
 1015SOL    HW1 4819   5.788   3.721   3.094
 1015SOL    HW2 4820   5.797   3.634   3.218
 1016SOL     OW 4821   7.587  10.062   5.245
 1016SOL    HW1 4822   7.555  10.009   5.318
 1016SOL    HW2 4823   7.513  10.068   5.185
 1017SOL     OW 4824  11.264   3.875  13.123
 1017SOL    HW1 4825  11.340   3.933  13.123
 1017SOL    HW2 4826  11.211   3.904  13.048
 1018SOL     OW 4827  13.223  13.832  14.753
 1018SOL    HW1 4828  13.146  13.879  14.786
 1018SOL    HW2 4829  13.257  13.785  14.829
 1019SOL     OW 4830   9.511  11.256   8.623
 1019SOL    HW1 4831   9.440  11.308   8.586
 1019SOL    HW2 4832   9.587  11.314   8.620
 1020SOL     OW 4833  12.319   1.171   5.585
 1020SOL    HW1 4834  12.277   1.094   5.546
 1020SOL    HW2 4835  12.400   1.183   5.536
 1021SOL     OW 4836   8.048   2.259   0.990
 1021SOL    HW1 4837   8.119   2.311   0.954
 1021SOL    HW2 4838   8.075   2.239   1.079
 1022SOL     OW 4839   5.499  10.743   1.468
 1022SOL    HW1 4840   5.484  10.650   1.484
 1022SOL    HW2 4841   5.536  10.746   1.380
 1023SOL     OW 4842  11.389   1.198   6.259
 1023SOL    HW1 4843  11.366   1.290   6.253
 1023SOL    HW2 4844  11.454   1.185   6.189
 1024SOL     OW 4845  11.333  12.000  13.812
 1024SOL    HW1 4846  11.313  11.908  13.831
 1024SOL    HW2 4847  11.427  12.001  13.793
 1025SOL     OW 4848   3.763   6.172   8.514
 1025SOL    HW1 4849   3.753   6.163   8.420
 1025SOL    HW2 4850   3.830   6.240   8.524
 1026SOL     OW 4851  10.398   3.512  14.488
 1026SOL    HW1 4852  10.303   3.525  14.481
 1026SOL    HW2 4853  10.409   3.441  14.552
 1027SOL     OW 4854  13.757  10.890   2.203
 1027SOL    HW1 4855  13.773  10.983   2.189
 1027SOL    HW2 4856  13.670  10.887   2.244
 1028SOL     OW 4857  12.254   1.368  12.000
 1028SOL    HW1 4858  12.339   1.328  11.981
 1028SOL    HW2 4859  12.199   1.294  12.028
 1029SOL     OW 4860   0.237   1.364   0.319
 1029SOL    HW1 4861   0.289   1.418   0.260
 1029SOL    HW2 4862   0.155   1.348   0.272
 1030SOL     OW 4863  14.256   0.798   0.400
 1030SOL    HW1 4864  14.165   0.788   0.373
 1030SOL    HW2 4865  14.262   0.889   0.431
 1031SOL     OW 4866   6.786   3.113   6.870
 1031SOL    HW1 4867   6.878   3.096   6.892
 1031SOL    HW2 4868   6.742   3.030   6.889
 1032SOL     OW 4869  11.077   0.682   9.278
 1032SOL    HW1 4870  11.122   0.686   9.194
 1032SOL    HW2 4871  11.104   0.762   9.324
 1033SOL     OW 4872  12.432   4.158   0.174
 1033SOL    HW1 4873  12.439   4.126   0.264
 1033SOL    HW2 4874  12.339   4.152   0.153
 1034SOL     OW 4875   2.780  10.664   2.878
 1034SOL    HW1 4876   2.701  10.622   2.912
 1034SOL    HW2 4877   2.753  10.703   2.795
 1035SOL     OW 4878   6.318   7.619   5.060
 1035SOL    HW1 4879   6.280   7.694   5.015
 1035SOL    HW2 4880   6.380   7.582   4.997
 1036SOL     OW 4881   3.430  14.196   0.501
 1036SOL    HW1 4882   3.351  14.240   0.470
 1036SOL    HW2 4883   3.399  14.120   0.550
 1037SOL     OW 4884   7.649   5.793  10.564
 1037SOL    HW1 4885   7.696   5.849  10.502
 1037SOL    HW2 4886   7.611   5.854  10.628
 1038SOL     OW 4887  14.374   0.455   5.370
 1038SOL    HW1 4888  14.332   0.414   5.446
 1038SOL    HW2 4889  14.318   0.529   5.348
 1039SOL     OW 4890   8.431   7.402  12.912
 1039SOL    HW1 4891   8.386   7.321  12.934
 1039SOL    HW2 4892   8.378   7.471  12.953
 1040SOL     OW 4893  11.220   0.149   9.843
 1040SOL    HW1 4894  11.314   0.164   9.847
 1040SOL    HW2 4895  11.182   0.223   9.890
 1041SOL     OW 4896  11.555   0.815   4.904
 1041SOL    HW1 4897  11.484   0.752   4.887
 1041SOL    HW2 4898  11.626   0.761   4.939
 1042SOL     OW 4899  10.004  14.516   7.786
 1042SOL    HW1 4900   9.990  14.606   7.814
 1042SOL    HW2 4901   9.927  14.468   7.816
 1043SOL     OW 4902  13.455  12.073   6.263
 1043SOL    HW1 4903  13.449  12.099   6.171
 1043SOL    HW2 4904  13.364  12.064   6.292
 1044SOL     OW 4905   1.793  13.961   0.742
 1044SOL    HW1 4906   1.832  13.994   0.661
 1044SOL    HW2 4907   1.854  13.893   0.772
 1045SOL     OW 4908  10.501   9.825   7.241
 1045SOL    HW1 4909  10.593   9.828   7.215
 1045SOL    HW2 4910  10.460   9.769   7.175
 1046SOL     OW 4911   1.981   2.008   3.831
 1046SOL    HW1 4912   1.954   1.997   3.740
 1046SOL    HW2 4913   1.902   2.036   3.877
 1047SOL     OW 4914   3.256  12.635   5.700
 1047SOL    HW1 4915   3.314  12.659   5.628
 1047SOL    HW2 4916   3.228  12.546   5.679
 1048SOL     OW 4917   1.263  14.864   8.645
 1048SOL    HW1 4918   1.308  14.790   8.605
 1048SOL    HW2 4919   1.236  14.832   8.731
 1049SOL     OW 4920   5.479   4.713  14.842
 1049SOL    HW1 4921   5.494   4.695   0.053
 1049SOL    HW2 4922   5.565   4.705  14.800
 1050SOL     OW 4923   2.038   4.187   4.089
 1050SOL    HW1 4924   2.082   4.104   4.073
 1050SOL    HW2 4925   2.089   4.229   4.157
 1051SOL     OW 4926   4.851   1.139   9.421
 1051SOL    HW1 4927   4.915   1.068   9.427
 1051SOL    HW2 4928   4.830   1.144   9.328
 1052SOL     OW 4929   0.202  13.686   5.597
 1052SOL    HW1 4930   0.297  13.689   5.606
 1052SOL    HW2 4931   0.173  13.772   5.628
 1053SOL     OW 4932   3.019   0.048   4.682
 1053SOL    HW1 4933   2.976  14.879   4.751
 1053SOL    HW2 4934   2.980   0.136   4.688
 1054SOL     OW 4935   0.654  10.440   1.604
 1054SOL    HW1 4936   0.713  10.507   1.638
 1054SOL    HW2 4937   0.708  10.389   1.544
 1055SOL     OW 4938  13.637   6.157  12.940
 1055SOL    HW1 4939  13.700   6.220  12.906
 1055SOL    HW2 4940  13.598   6.118  12.862
 1056SOL     OW 4941  14.627   5.962   2.729
 1056SOL    HW1 4942  14.720   5.983   2.732
 1056SOL    HW2 4943  14.594   5.986   2.816
 1057SOL     OW 4944   1.071   3.747   7.053
 1057SOL    HW1 4945   1.043   3.655   7.056
 1057SOL    HW2 4946   0.995   3.797   7.081
 1058SOL     OW 4947   6.676   5.652   6.588
 1058SOL    HW1 4948   6.741   5.599   6.542
 1058SOL    HW2 4949   6.688   5.740   6.554
 1059SOL     OW 4950   5.775  11.109  12.621
 1059SOL    HW1 4951   5.825  11.143  12.695
 1059SOL    HW2 4952   5.828  11.130  12.544
 1060SOL     OW 4953   6.360   7.511  14.071
 1060SOL    HW1 4954   6.273   7.540  14.046
 1060SOL    HW2 4955   6.355   7.416  14.073
 1061SOL     OW 4956   2.704   8.305  13.504
 1061SOL    HW1 4957   2.711   8.311  13.409
 1061SOL    HW2 4958   2.707   8.212  13.523
 1062SOL     OW 4959   4.189   9.172  10.278
 1062SOL    HW1 4960   4.098   9.195  10.295
 1062SOL    HW2 4961   4.184   9.103  10.212
 1063SOL     OW 4962   6.856   5.226   2.400
 1063SOL    HW1 4963   6.828   5.271   2.480
 1063SOL    HW2 4964   6.794   5.255   2.333
 1064SOL     OW 4965  13.583  10.278   3.414
 1064SOL    HW1 4966  13.571  10.357   3.466
 1064SOL    HW2 4967  13.643  10.304   3.344
 1065SOL     OW 4968   8.017   2.772   3.959
 1065SOL    HW1 4969   8.022   2.677   3.973
 1065SOL    HW2 4970   8.090   2.792   3.901
 1066SOL     OW 4971  11.140   4.636   2.668
 1066SOL    HW1 4972  11.112   4.717   2.710
 1066SOL    HW2 4973  11.229   4.654   2.638
 1067SOL     OW 4974   1.685   1.885   0.905
 1067SOL    HW1 4975   1.747   1.846   0.843
 1067SOL    HW2 4976   1.736   1.901   0.984
 1068SOL     OW 4977   9.585   2.349   7.403
 1068SOL    HW1 4978   9.640   2.423   7.378
 1068SOL    HW2 4979   9.641   2.295   7.459
 1069SOL     OW 4980   4.084   4.560   9.958
 1069SOL    HW1 4981   4.081   4.481  10.013
 1069SOL    HW2 4982   4.114   4.629  10.017
 1070SOL     OW 4983  11.344  11.753  14.303
 1070SOL    HW1 4984  11.331  11.684  14.368
 1070SOL    HW2 4985  11.435  11.740  14.274
 1071SOL     OW 4986  10.573   9.572  12.627
 1071SOL    HW1 4987  10.633   9.625  12.678
 1071SOL    HW2 4988  10.566   9.489  12.675
 1072SOL     OW 4989  10.999  13.713   7.117
 1072SOL    HW1 4990  10.924  13.714   7.177
 1072SOL    HW2 4991  11.046  13.633   7.137
 1073SOL     OW 4992   2.943  13.699   4.322
 1073SOL    HW1 4993   2.997  13.778   4.312
 1073SOL    HW2 4994   2.880  13.704   4.251
 1074SOL     OW 4995   4.828   6.431   1.104
 1074SOL    HW1 4996   4.796   6.410   1.192
 1074SOL    HW2 4997   4.922   6.448   1.116
 1075SOL     OW 4998   4.905   4.556   3.494
 1075SOL    HW1 4999   4.947   4.598   3.569
 1075SOL    HW2 5000   4.852   4.486   3.531
 1076SOL     OW 5001  11.992  11.651  13.111
 1076SOL    HW1 5002  12.007  11.566  13.152
 1076SOL    HW2 5003  11.935  11.632  13.036
 1077SOL     OW 5004  10.802   0.286  10.473
 1077SOL    HW1 5005  10.742   0.241  10.534
 1077SOL    HW2 5006  10.847   0.350  10.528
 1078SOL     OW 5007  13.151   9.945   8.198
 1078SOL    HW1 5008  13.100   9.878   8.152
 1078SOL    HW2 5009  13.158   9.913   8.288
 1079SOL     OW 5010   7.059   0.162   2.527
 1079SOL    HW1 5011   7.096   0.191   2.611
 1079SOL    HW2 5012   7.017   0.079   2.547
 1080SOL     OW 5013  13.435   8.578  12.939
 1080SOL    HW1 5014  13.512   8.521  12.939
 1080SOL    HW2 5015  13.380   8.545  12.867
 1081SOL     OW 5016   3.800   0.024  10.217
 1081SOL    HW1 5017   3.868   0.049  10.155
 1081SOL    HW2 5018   3.794  14.811  10.210
 1082SOL     OW 5019   7.211   7.191   6.129
 1082SOL    HW1 5020   7.201   7.261   6.193
 1082SOL    HW2 5021   7.147   7.125   6.154
 1083SOL     OW 5022   0.564   0.362  11.597
 1083SOL    HW1 5023   0.657   0.384  11.587
 1083SOL    HW2 5024   0.560   0.307  11.675
 1084SOL     OW 5025   1.884  13.175   4.262
 1084SOL    HW1 5026   1.958  13.229   4.289
 1084SOL    HW2 5027   1.807  13.226   4.285
 1085SOL     OW 5028  12.214   1.580   7.998
 1085SOL    HW1 5029  12.259   1.523   7.937
 1085SOL    HW2 5030  12.276   1.594   8.069
 1086SOL     OW 5031  13.466  13.608  14.776
 1086SOL    HW1 5032  13.543  13.553  14.793
 1086SOL    HW2 5033  13.414  13.602  14.856
 1087SOL     OW 5034  12.213  13.031   5.023
 1087SOL    HW1 5035  12.272  13.077   4.964
 1087SOL    HW2 5036  12.126  13.062   4.999
 1088SOL     OW 5037   6.934   6.570   9.811
 1088SOL    HW1 5038   6.918   6.579   9.905
 1088SOL    HW2 5039   6.971   6.655   9.785
 1089SOL     OW 5040   7.759  13.315   4.648
 1089SOL    HW1 5041   7.757  13.357   4.735
 1089SOL    HW2 5042   7.838  13.261   4.650
 1090SOL     OW 5043   6.498   4.342   5.199
 1090SOL    HW1 5044   6.504   4.420   5.144
 1090SOL    HW2 5045   6.490   4.376   5.289
 1091SOL     OW 5046  13.830   0.569   0.794
 1091SOL    HW1 5047  13.791   0.573   0.882
 1091SOL    HW2 5048  13.922   0.549   0.810
 1092SOL     OW 5049  13.623   6.747   6.421
 1092SOL    HW1 5050  13.647   6.778   6.333
 1092SOL    HW2 5051  13.561   6.676   6.405
 1093SOL     OW 5052  11.866   6.908  13.230
 1093SOL    HW1 5053  11.818   6.825  13.232
 1093SOL    HW2 5054  11.948   6.887  13.186
 1094SOL     OW 5055   5.376   4.293  12.567
 1094SOL    HW1 5056   5.439   4.244  12.620
 1094SOL    HW2 5057   5.375   4.381  12.606
 1095SOL     OW 5058   0.222  13.516  11.712
 1095SOL    HW1 5059   0.214  13.508  11.807
 1095SOL    HW2 5060   0.136  13.490  11.679
 1096SOL     OW 5061   5.539   0.394  14.207
 1096SOL    HW1 5062   5.599   0.407  14.281
 1096SOL    HW2 5063   5.562   0.308  14.173
 1097SOL     OW 5064   9.471   8.018   0.927
 1097SOL    HW1 5065   9.390   7.970   0.944
 1097SOL    HW2 5066   9.472   8.088   0.992
 1098SOL     OW 5067   2.358   0.106   7.477
 1098SOL    HW1 5068   2.297   0.036   7.498
 1098SOL    HW2 5069   2.443   0.061   7.468
 1099SOL     OW 5070  12.910   0.628   4.573
 1099SOL    HW1 5071  12.895   0.544   4.529
 1099SOL    HW2 5072  12.918   0.691   4.502
 1100SOL     OW 5073   6.481   3.291  14.029
 1100SOL    HW1 5074   6.463   3.341  14.108
 1100SOL    HW2 5075   6.524   3.211  14.060
 1101SOL     OW 5076   3.940   2.078   7.607
 1101SOL    HW1 5077   3.964   2.169   7.591
 1101SOL    HW2 5078   3.854   2.068   7.566
 1102SOL     OW 5079  14.762  13.786   4.750
 1102SOL    HW1 5080  14.820  13.862   4.759
 1102SOL    HW2 5081  14.690  13.817   4.695
 1103SOL     OW 5082   1.539  13.605  10.181
 1103SOL    HW1 5083   1.585  13.631  10.261
 1103SOL    HW2 5084   1.609  13.594  10.116
 1104SOL     OW 5085   8.805  13.390  12.064
 1104SOL    HW1 5086   8.838  13.477  12.040
 1104SOL    HW2 5087   8.791  13.347  11.980
 1105SOL     OW 5088  11.515  14.697  11.572
 1105SOL    HW1 5089  11.503  14.652  11.656
 1105SOL    HW2 5090  11.584  14.648  11.528
 1106SOL     OW 5091   8.127   2.609   3.251
 1106SOL    HW1 5092   8.066   2.681   3.262
 1106SOL    HW2 5093   8.072   2.532   3.240
 1107SOL     OW 5094   9.506   0.667   5.581
 1107SOL    HW1 5095   9.551   0.691   5.662
 1107SOL    HW2 5096   9.502   0.571   5.583
 1108SOL     OW 5097  11.615   8.624  12.365
 1108SOL    HW1 5098  11.671   8.554  12.331
 1108SOL    HW2 5099  11.672   8.672  12.425
 1109SOL     OW 5100   6.485  13.070   5.818
 1109SOL    HW1 5101   6.429  13.071   5.895
 1109SOL    HW2 5102   6.477  13.158   5.781
 1110SOL     OW 5103   1.714   1.961  11.547
 1110SOL    HW1 5104   1.778   2.001  11.488
 1110SOL    HW2 5105   1.744   1.872  11.560
 1111SOL     OW 5106   6.642   5.058   4.977
 1111SOL    HW1 5107   6.730   5.048   4.942
 1111SOL    HW2 5108   6.646   5.139   5.029
 1112SOL     OW 5109  10.940   5.932   5.983
 1112SOL    HW1 5110  10.998   5.864   5.951
 1112SOL    HW2 5111  10.953   6.006   5.924
 1113SOL     OW 5112  10.301   4.062  13.577
 1113SOL    HW1 5113  10.266   4.114  13.649
 1113SOL    HW2 5114  10.224   4.041  13.523
 1114SOL     OW 5115   8.854   4.028   6.164
 1114SOL    HW1 5116   8.784   3.968   6.192
 1114SOL    HW2 5117   8.920   3.970   6.126
 1115SOL     OW 5118   7.340  14.309   8.789
 1115SOL    HW1 5119   7.413  14.310   8.850
 1115SOL    HW2 5120   7.381  14.293   8.703
 1116SOL     OW 5121  12.636   9.238   9.884
 1116SOL    HW1 5122  12.651   9.144   9.887
 1116SOL    HW2 5123  12.566   9.253   9.949
 1117SOL     OW 5124   7.929   7.931   5.002
 1117SOL    HW1 5125   8.005   7.874   5.011
 1117SOL    HW2 5126   7.928   7.983   5.083
 1118SOL     OW 5127   7.618  12.640   7.872
 1118SOL    HW1 5128   7.565  12.597   7.939
 1118SOL    HW2 5129   7.708  12.633   7.905
 1119SOL     OW 5130   0.300  10.057   3.776
 1119SOL    HW1 5131   0.356  10.134   3.789
 1119SOL    HW2 5132   0.320  10.028   3.686
 1120SOL     OW 5133  14.458  10.251   4.045
 1120SOL    HW1 5134  14.421  10.199   4.116
 1120SOL    HW2 5135  14.419  10.213   3.966
 1121SOL     OW 5136   9.856   9.070   6.167
 1121SOL    HW1 5137   9.920   9.141   6.169
 1121SOL    HW2 5138   9.846   9.050   6.073
 1122SOL     OW 5139   2.819   2.035   1.595
 1122SOL    HW1 5140   2.887   1.979   1.631
 1122SOL    HW2 5141   2.747   1.975   1.575
 1123SOL     OW 5142  10.324   2.705  12.219
 1123SOL    HW1 5143  10.248   2.763  12.229
 1123SOL    HW2 5144  10.393   2.763  12.185
 1124SOL     OW 5145  10.212   8.948   5.458
 1124SOL    HW1 5146  10.257   9.021   5.500
 1124SOL    HW2 5147  10.153   8.914   5.525
 1125SOL     OW 5148  13.662   9.472  10.895
 1125SOL    HW1 5149  13.752   9.441  10.885
 1125SOL    HW2 5150  13.626   9.471  10.807
 1126SOL     OW 5151   2.830  10.105   4.178
 1126SOL    HW1 5152   2.916  10.149   4.183
 1126SOL    HW2 5153   2.845  10.019   4.217
 1127SOL     OW 5154   8.758   1.115   6.892
 1127SOL    HW1 5155   8.682   1.164   6.925
 1127SOL    HW2 5156   8.823   1.183   6.874
 1128SOL     OW 5157   7.813   6.743  12.253
 1128SOL    HW1 5158   7.853   6.746  12.167
 1128SOL    HW2 5159   7.874   6.791  12.309
 1129SOL     OW 5160   4.710   9.130   0.561
 1129SOL    HW1 5161   4.624   9.172   0.561
 1129SOL    HW2 5162   4.766   9.187   0.509
 1130SOL     OW 5163   4.176   8.701   0.078
 1130SOL    HW1 5164   4.253   8.659   0.117
 1130SOL    HW2 5165   4.179   8.675  14.867
 1131SOL     OW 5166  14.587   3.681   6.735
 1131SOL    HW1 5167  14.557   3.772   6.730
 1131SOL    HW2 5168  14.525   3.639   6.796
 1132SOL     OW 5169   5.663   0.640  11.728
 1132SOL    HW1 5170   5.614   0.560  11.743
 1132SOL    HW2 5171   5.599   0.701  11.690
 1133SOL     OW 5172   2.210  12.097  10.510
 1133SOL    HW1 5173   2.141  12.129  10.568
 1133SOL    HW2 5174   2.165  12.080  10.427
 1134SOL     OW 5175   2.193   4.306   4.261
 1134SOL    HW1 5176   2.201   4.385   4.313
 1134SOL    HW2 5177   2.197   4.234   4.325
 1135SOL     OW 5178   0.780  13.495   7.904
 1135SOL    HW1 5179   0.741  13.409   7.885
 1135SOL    HW2 5180   0.705  13.554   7.912
 1136SOL     OW 5181   0.765   1.697  14.236
 1136SOL    HW1 5182   0.824   1.622  14.240
 1136SOL    HW2 5183   0.760   1.719  14.143
 1137SOL     OW 5184   3.147   3.239   1.525
 1137SOL    HW1 5185   3.133   3.310   1.462
 1137SOL    HW2 5186   3.072   3.245   1.584
 1138SOL     OW 5187   2.231   3.487   8.849
 1138SOL    HW1 5188   2.283   3.414   8.816
 1138SOL    HW2 5189   2.151   3.484   8.796
 1139SOL     OW 5190  11.614  14.139  13.188
 1139SOL    HW1 5191  11.536  14.157  13.136
 1139SOL    HW2 5192  11.582  14.087  13.262
 1140SOL     OW 5193  12.266   2.286   3.602
 1140SOL    HW1 5194  12.271   2.380   3.582
 1140SOL    HW2 5195  12.172   2.269   3.614
 1141SOL     OW 5196   5.248   7.016   5.022
 1141SOL    HW1 5197   5.277   6.925   5.021
 1141SOL    HW2 5198   5.273   7.049   5.109
 1142SOL     OW 5199   0.458   0.609   9.390
 1142SOL    HW1 5200   0.531   0.652   9.346
 1142SOL    HW2 5201   0.493   0.526   9.421
 1143SOL     OW 5202   4.105  10.444   4.557
 1143SOL    HW1 5203   4.105  10.351   4.583
 1143SOL    HW2 5204   4.096  10.442   4.462
 1144SOL     OW 5205  11.329   9.531   3.952
 1144SOL    HW1 5206  11.397   9.541   4.018
 1144SOL    HW2 5207  11.247   9.548   3.998
 1145SOL     OW 5208   9.133   2.096   1.519
 1145SOL    HW1 5209   9.092   2.014   1.546
 1145SOL    HW2 5210   9.142   2.146   1.601
 1146SOL     OW 5211  12.718   5.144  10.680
 1146SOL    HW1 5212  12.687   5.116  10.766
 1146SOL    HW2 5213  12.795   5.091  10.664
 1147SOL     OW 5214   0.630  13.882   8.824
 1147SOL    HW1 5215   0.540  13.900   8.850
 1147SOL    HW2 5216   0.662  13.966   8.790
 1148SOL     OW 5217  11.305  11.634   6.280
 1148SOL    HW1 5218  11.379  11.603   6.331
 1148SOL    HW2 5219  11.277  11.714   6.325
 1149SOL     OW 5220  14.538   8.507   4.264
 1149SOL    HW1 5221  14.503   8.595   4.251
 1149SOL    HW2 5222  14.483   8.451   4.208
 1150SOL     OW 5223   7.285   6.142  10.436
 1150SOL    HW1 5224   7.290   6.237  10.448
 1150SOL    HW2 5225   7.375   6.116  10.416
 1151SOL     OW 5226  11.699  10.962   9.588
 1151SOL    HW1 5227  11.631  10.972   9.521
 1151SOL    HW2 5228  11.662  11.003   9.666
 1152SOL     OW 5229   4.371   3.315   1.462
 1152SOL    HW1 5230   4.352   3.366   1.540
 1152SOL    HW2 5231   4.463   3.288   1.472
 1153SOL     OW 5232   9.040  12.287  11.819
 1153SOL    HW1 5233   9.086  12.203  11.817
 1153SOL    HW2 5234   9.059  12.328  11.735
 1154SOL     OW 5235   4.074  10.237   6.203
 1154SOL    HW1 5236   4.147  10.225   6.263
 1154SOL    HW2 5237   4.091  10.177   6.130
 1155SOL     OW 5238   4.264   1.925   0.502
 1155SOL    HW1 5239   4.287   1.857   0.439
 1155SOL    HW2 5240   4.349   1.956   0.535
 1156SOL     OW 5241   2.789   3.247   7.892
 1156SOL    HW1 5242   2.806   3.203   7.975
 1156SOL    HW2 5243   2.717   3.197   7.853
 1157SOL     OW 5244  14.693   0.301   0.070
 1157SOL    HW1 5245  14.775   0.315   0.118
 1157SOL    HW2 5246  14.684   0.379   0.016
 1158SOL     OW 5247  13.875   9.956  10.130
 1158SOL    HW1 5248  13.912   9.993  10.050
 1158SOL    HW2 5249  13.783   9.938  10.108
 1159SOL     OW 5250  11.795   0.336  14.196
 1159SOL    HW1 5251  11.769   0.259  14.145
 1159SOL    HW2 5252  11.806   0.405  14.130
 1160SOL     OW 5253   5.710  12.409   0.114
 1160SOL    HW1 5254   5.735  12.320   0.141
 1160SOL    HW2 5255   5.615  12.412   0.125
 1161SOL     OW 5256   8.643   8.204   9.885
 1161SOL    HW1 5257   8.729   8.163   9.892
 1161SOL    HW2 5258   8.583   8.131   9.872
 1162SOL     OW 5259   0.372   3.050   8.595
 1162SOL    HW1 5260   0.324   3.133   8.593
 1162SOL    HW2 5261   0.331   2.996   8.527
 1163SOL     OW 5262   5.772   8.917  13.802
 1163SOL    HW1 5263   5.737   8.876  13.722
 1163SOL    HW2 5264   5.866   8.895  13.800
 1164SOL     OW 5265  10.841   9.294  11.054
 1164SOL    HW1 5266  10.921   9.264  11.011
 1164SOL    HW2 5267  10.771   9.269  10.993
 1165SOL     OW 5268  11.805  13.890   8.674
 1165SOL    HW1 5269  11.813  13.817   8.735
 1165SOL    HW2 5270  11.717  13.881   8.637
 1166SOL     OW 5271   9.390   1.331   3.382
 1166SOL    HW1 5272   9.324   1.303   3.319
 1166SOL    HW2 5273   9.412   1.251   3.431
 1167SOL     OW 5274   5.253  10.037   2.342
 1167SOL    HW1 5275   5.166  10.075   2.345
 1167SOL    HW2 5276   5.307  10.096   2.396
 1168SOL     OW 5277  10.788   6.830  11.876
 1168SOL    HW1 5278  10.738   6.788  11.946
 1168SOL    HW2 5279  10.802   6.760  11.812
 1169SOL     OW 5280  10.938   8.540   1.620
 1169SOL    HW1 5281  11.015   8.499   1.659
 1169SOL    HW2 5282  10.868   8.476   1.632
 1170SOL     OW 5283   0.536   6.767   2.866
 1170SOL    HW1 5284   0.626   6.798   2.865
 1170SOL    HW2 5285   0.535   6.697   2.931
 1171SOL     OW 5286   6.443  10.016   1.923
 1171SOL    HW1 5287   6.478   9.949   1.982
 1171SOL    HW2 5288   6.491  10.004   1.841
 1172SOL     OW 5289   4.792   4.065   3.995
 1172SOL    HW1 5290   4.790   3.970   3.989
 1172SOL    HW2 5291   4.741   4.094   3.919
 1173SOL     OW 5292   7.501   0.550   9.226
 1173SOL    HW1 5293   7.523   0.567   9.134
 1173SOL    HW2 5294   7.413   0.511   9.223
 1174SOL     OW 5295   2.172   8.450   0.746
 1174SOL    HW1 5296   2.253   8.439   0.696
 1174SOL    HW2 5297   2.106   8.401   0.697
 1175SOL     OW 5298  12.496  11.330  10.532
 1175SOL    HW1 5299  12.487  11.346  10.438
 1175SOL    HW2 5300  12.507  11.417  10.570
 1176SOL     OW 5301   2.885   0.547   3.131
 1176SOL    HW1 5302   2.824   0.474   3.147
 1176SOL    HW2 5303   2.968   0.504   3.111
 1177SOL     OW 5304  12.078  11.513  12.119
 1177SOL    HW1 5305  12.137  11.585  12.140
 1177SOL    HW2 5306  12.033  11.541  12.039
 1178SOL     OW 5307  14.822   2.416  13.821
 1178SOL    HW1 5308  14.741   2.372  13.848
 1178SOL    HW2 5309  14.802   2.452  13.735
 1179SOL     OW 5310   8.387   3.219   7.898
 1179SOL    HW1 5311   8.312   3.279   7.893
 1179SOL    HW2 5312   8.457   3.271   7.936
 1180SOL     OW 5313   1.440   6.106  11.679
 1180SOL    HW1 5314   1.470   6.068  11.597
 1180SOL    HW2 5315   1.415   6.196  11.657
 1181SOL     OW 5316   1.340  12.150  10.880
 1181SOL    HW1 5317   1.387  12.067  10.872
 1181SOL    HW2 5318   1.248  12.126  10.876
 1182SOL     OW 5319   5.414   7.219  12.296
 1182SOL    HW1 5320   5.495   7.268  12.281
 1182SOL    HW2 5321   5.418   7.147  12.233
 1183SOL     OW 5322  13.893  10.369   0.524
 1183SOL    HW1 5323  13.889  10.439   0.458
 1183SOL    HW2 5324  13.899  10.288   0.473
 1184SOL     OW 5325   8.146  13.180   0.813
 1184SOL    HW1 5326   8.112  13.265   0.786
 1184SOL    HW2 5327   8.098  13.160   0.893
 1185SOL     OW 5328   9.923   1.313   4.313
 1185SOL    HW1 5329   9.911   1.269   4.397
 1185SOL    HW2 5330   9.953   1.244   4.253
 1186SOL     OW 5331   6.725   4.654   9.487
 1186SOL    HW1 5332   6.736   4.697   9.403
 1186SOL    HW2 5333   6.717   4.726   9.550
 1187SOL     OW 5334   7.239   0.580  11.608
 1187SOL    HW1 5335   7.221   0.669  11.576
 1187SOL    HW2 5336   7.203   0.579  11.696
 1188SOL     OW 5337  12.843  13.291  10.213
 1188SOL    HW1 5338  12.931  13.311  10.181
 1188SOL    HW2 5339  12.795  13.374  10.209
 1189SOL     OW 5340   6.186   4.469   6.740
 1189SOL    HW1 5341   6.195   4.477   6.835
 1189SOL    HW2 5342   6.271   4.436   6.710
 1190SOL     OW 5343   8.033   4.668   1.557
 1190SOL    HW1 5344   7.990   4.699   1.477
 1190SOL    HW2 5345   8.052   4.576   1.540
 1191SOL     OW 5346   6.165   2.576   5.020
 1191SOL    HW1 5347   6.244   2.626   5.001
 1191SOL    HW2 5348   6.165   2.506   4.955
 1192SOL     OW 5349   2.478  11.340   0.895
 1192SOL    HW1 5350   2.485  11.379   0.983
 1192SOL    HW2 5351   2.416  11.268   0.906
 1193SOL     OW 5352   0.811  10.661  14.809
 1193SOL    HW1 5353   0.757  10.680  14.733
 1193SOL    HW2 5354   0.893  10.707  14.792
 1194SOL     OW 5355   2.430   2.001   5.005
 1194SOL    HW1 5356   2.512   2.022   4.960
 1194SOL    HW2 5357   2.378   1.955   4.939
 1195SOL     OW 5358   0.928  11.938   9.517
 1195SOL    HW1 5359   0.843  11.926   9.560
 1195SOL    HW2 5360   0.940  12.033   9.515
 1196SOL     OW 5361  12.965  10.330   8.773
 1196SOL    HW1 5362  12.990  10.260   8.714
 1196SOL    HW2 5363  12.884  10.300   8.815
 1197SOL     OW 5364   4.887  14.238   3.774
 1197SOL    HW1 5365   4.901  14.277   3.688
 1197SOL    HW2 5366   4.792  14.225   3.779
 1198SOL     OW 5367  10.757  12.135   9.485
 1198SOL    HW1 5368  10.736  12.070   9.417
 1198SOL    HW2 5369  10.714  12.101   9.563
 1199SOL     OW 5370  11.247  10.322   1.884
 1199SOL    HW1 5371  11.284  10.351   1.800
 1199SOL    HW2 5372  11.182  10.388   1.906
 1200SOL     OW 5373   3.044  13.541   3.321
 1200SOL    HW1 5374   3.049  13.590   3.403
 1200SOL    HW2 5375   3.125  13.564   3.275
 1201SOL     OW 5376   3.966   3.753   0.278
 1201SOL    HW1 5377   3.995   3.785   0.193
 1201SOL    HW2 5378   3.898   3.689   0.258
 1202SOL     OW 5379   1.952   3.814  10.196
 1202SOL    HW1 5380   2.038   3.803  10.239
 1202SOL    HW2 5381   1.919   3.897  10.231
 1203SOL     OW 5382  14.816   9.363  12.448
 1203SOL    HW1 5383  14.794   9.290  12.391
 1203SOL    HW2 5384   0.030   9.369  12.445
 1204SOL     OW 5385  10.887  14.286  14.633
 1204SOL    HW1 5386  10.877  14.191  14.633
 1204SOL    HW2 5387  10.802  14.320  14.606
 1205SOL     OW 5388  10.966   2.897   2.304
 1205SOL    HW1 5389  10.871   2.902   2.312
 1205SOL    HW2 5390  10.981   2.828   2.239
 1206SOL     OW 5391   7.174   6.529   0.713
 1206SOL    HW1 5392   7.079   6.529   0.699
 1206SOL    HW2 5393   7.211   6.502   0.629
 1207SOL     OW 5394   0.877   0.294   2.456
 1207SOL    HW1 5395   0.861   0.219   2.398
 1207SOL    HW2 5396   0.950   0.340   2.416
 1208SOL     OW 5397   1.072   3.233   6.273
 1208SOL    HW1 5398   1.150   3.240   6.217
 1208SOL    HW2 5399   1.045   3.323   6.288
 1209SOL     OW 5400   0.863   0.438   5.527
 1209SOL    HW1 5401   0.872   0.450   5.432
 1209SOL    HW2 5402   0.951   0.452   5.562
 1210SOL     OW 5403   8.721  11.684   1.439
 1210SOL    HW1 5404   8.751  11.661   1.351
 1210SOL    HW2 5405   8.794  11.662   1.496
 1211SOL     OW 5406   1.731   7.530  14.270
 1211SOL    HW1 5407   1.696   7.572  14.349
 1211SOL    HW2 5408   1.721   7.436  14.287
 1212SOL     OW 5409  10.869   2.521   8.332
 1212SOL    HW1 5410  10.953   2.491   8.368
 1212SOL    HW2 5411  10.852   2.462   8.258
 1213SOL     OW 5412  14.357  10.921  10.825
 1213SOL    HW1 5413  14.288  10.872  10.870
 1213SOL    HW2 5414  14.325  11.012  10.825
 1214SOL     OW 5415   8.893   0.155  13.007
 1214SOL    HW1 5416   8.925   0.170  12.918
 1214SOL    HW2 5417   8.834   0.229  13.024
 1215SOL     OW 5418   4.122   5.700   9.486
 1215SOL    HW1 5419   4.086   5.787   9.468
 1215SOL    HW2 5420   4.152   5.705   9.577
 1216SOL     OW 5421  11.053  13.436   2.686
 1216SOL    HW1 5422  11.009  13.367   2.635
 1216SOL    HW2 5423  11.009  13.435   2.771
 1217SOL     OW 5424  10.801   2.828   9.713
 1217SOL    HW1 5425  10.721   2.807   9.760
 1217SOL    HW2 5426  10.853   2.748   9.717
 1218SOL     OW 5427   9.168  11.762   4.903
 1218SOL    HW1 5428   9.245  11.807   4.936
 1218SOL    HW2 5429   9.173  11.674   4.941
 1219SOL     OW 5430   1.856   0.364   6.020
 1219SOL    HW1 5431   1.839   0.356   5.926
 1219SOL    HW2 5432   1.782   0.413   6.054
 1220SOL     OW 5433   6.205   4.558   9.828
 1220SOL    HW1 5434   6.279   4.612   9.856
 1220SOL    HW2 5435   6.217   4.475   9.874
 1221SOL     OW 5436  12.475  14.110   0.643
 1221SOL    HW1 5437  12.539  14.086   0.576
 1221SOL    HW2 5438  12.390  14.099   0.601
 1222SOL     OW 5439   2.728   9.471   4.823
 1222SOL    HW1 5440   2.739   9.553   4.774
 1222SOL    HW2 5441   2.746   9.402   4.759
 1223SOL     OW 5442   2.961   3.455  13.478
 1223SOL    HW1 5443   3.047   3.492  13.460
 1223SOL    HW2 5444   2.904   3.494  13.411
 1224SOL     OW 5445  11.134   7.837   2.789
 1224SOL    HW1 5446  11.114   7.757   2.836
 1224SOL    HW2 5447  11.228   7.849   2.799
 1225SOL     OW 5448   1.252   0.657   7.476
 1225SOL    HW1 5449   1.176   0.698   7.518
 1225SOL    HW2 5450   1.323   0.721   7.488
 1226SOL     OW 5451   2.974  12.565   8.837
 1226SOL    HW1 5452   2.882  12.552   8.814
 1226SOL    HW2 5453   2.973  12.571   8.933
 1227SOL     OW 5454   2.190  13.185   3.995
 1227SOL    HW1 5455   2.115  13.244   3.989
 1227SOL    HW2 5456   2.260  13.229   3.947
 1228SOL     OW 5457   7.990   1.631   8.190
 1228SOL    HW1 5458   8.036   1.590   8.116
 1228SOL    HW2 5459   8.006   1.572   8.263
 1229SOL     OW 5460   3.151  10.426   2.153
 1229SOL    HW1 5461   3.181  10.341   2.121
 1229SOL    HW2 5462   3.121  10.409   2.242
 1230SOL     OW 5463   1.716  11.885   5.631
 1230SOL    HW1 5464   1.634  11.837   5.645
 1230SOL    HW2 5465   1.767  11.868   5.710
 1231SOL     OW 5466   9.249  10.230   6.591
 1231SOL    HW1 5467   9.344  10.231   6.599
 1231SOL    HW2 5468   9.219  10.292   6.658
 1232SOL     OW 5469   3.082   6.184   7.323
 1232SOL    HW1 5470   3.086   6.258   7.262
 1232SOL    HW2 5471   3.035   6.116   7.275
 1233SOL     OW 5472   1.081  10.079  10.065
 1233SOL    HW1 5473   0.992  10.058  10.094
 1233SOL    HW2 5474   1.115   9.996  10.031
 1234SOL     OW 5475   3.760  10.921   5.201
 1234SOL    HW1 5476   3.818  10.901   5.274
 1234SOL    HW2 5477   3.818  10.957   5.133
 1235SOL     OW 5478   8.508   9.194   0.585
 1235SOL    HW1 5479   8.496   9.289   0.591
 1235SOL    HW2 5480   8.571   9.183   0.514
 1236SOL     OW 5481   6.120   4.002  10.535
 1236SOL    HW1 5482   6.052   3.940  10.511
 1236SOL    HW2 5483   6.203   3.955  10.522
 1237SOL     OW 5484   4.937  12.458  10.353
 1237SOL    HW1 5485   4.955  12.444  10.260
 1237SOL    HW2 5486   4.981  12.540  10.374
 1238SOL     OW 5487   9.287   5.110   3.493
 1238SOL    HW1 5488   9.382   5.114   3.480
 1238SOL    HW2 5489   9.256   5.198   3.471
 1239SOL     OW 5490  13.420   7.471   5.100
 1239SOL    HW1 5491  13.477   7.475   5.177
 1239SOL    HW2 5492  13.373   7.555   5.101
 1240SOL     OW 5493   4.104  14.610   8.400
 1240SOL    HW1 5494   4.064  14.536   8.445
 1240SOL    HW2 5495   4.112  14.678   8.466
 1241SOL     OW 5496  13.967   7.878  11.554
 1241SOL    HW1 5497  14.057   7.859  11.579
 1241SOL    HW2 5498  13.920   7.885  11.637
 1242SOL     OW 5499  13.742   8.045   8.392
 1242SOL    HW1 5500  13.732   8.137   8.417
 1242SOL    HW2 5501  13.653   8.015   8.373
 1243SOL     OW 5502   0.141   0.102   9.912
 1243SOL    HW1 5503   0.152   0.090   9.818
 1243SOL    HW2 5504   0.206   0.167   9.937
 1244SOL     OW 5505  10.758   6.762   6.680
 1244SOL    HW1 5506  10.780   6.696   6.614
 1244SOL    HW2 5507  10.667   6.785   6.662
 1245SOL     OW 5508   8.667   5.887   3.537
 1245SOL    HW1 5509   8.736   5.830   3.569
 1245SOL    HW2 5510   8.708   5.974   3.532
 1246SOL     OW 5511  13.112  11.098   4.837
 1246SOL    HW1 5512  13.140  11.189   4.848
 1246SOL    HW2 5513  13.076  11.094   4.749
 1247SOL     OW 5514   8.909   6.805   7.126
 1247SOL    HW1 5515   8.846   6.865   7.087
 1247SOL    HW2 5516   8.994   6.835   7.094
 1248SOL     OW 5517  10.193   9.123   3.553
 1248SOL    HW1 5518  10.241   9.092   3.476
 1248SOL    HW2 5519  10.111   9.072   3.552
 1249SOL     OW 5520   1.326  12.274  13.266
 1249SOL    HW1 5521   1.343  12.188  13.228
 1249SOL    HW2 5522   1.380  12.334  13.215
 1250SOL     OW 5523   7.612   0.983  14.401
 1250SOL    HW1 5524   7.584   0.966  14.491
 1250SOL    HW2 5525   7.672   1.057  14.407
 1251SOL     OW 5526   0.890  14.467  11.736
 1251SOL    HW1 5527   0.920  14.414  11.662
 1251SOL    HW2 5528   0.842  14.539  11.695
 1252SOL     OW 5529   7.872  12.854   1.141
 1252SOL    HW1 5530   7.823  12.919   1.192
 1252SOL    HW2 5531   7.807  12.816   1.082
 1253SOL     OW 5532   9.746  10.952  10.155
 1253SOL    HW1 5533   9.722  11.036  10.195
 1253SOL    HW2 5534   9.752  10.972  10.061
 1254SOL     OW 5535  13.740   6.517   3.066
 1254SOL    HW1 5536  13.749   6.445   3.128
 1254SOL    HW2 5537  13.764   6.479   2.981
 1255SOL     OW 5538  12.969  10.236   0.416
 1255SOL    HW1 5539  12.941  10.219   0.326
 1255SOL    HW2 5540  13.056  10.275   0.407
 1256SOL     OW 5541   9.501   9.897  13.595
 1256SOL    HW1 5542   9.566   9.912  13.664
 1256SOL    HW2 5543   9.452   9.821  13.624
 1257SOL     OW 5544   6.033   0.587   8.814
 1257SOL    HW1 5545   5.979   0.511   8.836
 1257SOL    HW2 5546   6.071   0.614   8.897
 1258SOL     OW 5547   0.254   9.626   0.416
 1258SOL    HW1 5548   0.288   9.545   0.455
 1258SOL    HW2 5549   0.159   9.622   0.432
 1259SOL     OW 5550   4.966  11.173  11.721
 1259SOL    HW1 5551   4.946  11.150  11.811
 1259SOL    HW2 5552   5.010  11.096  11.685
 1260SOL     OW 5553   8.839   2.356  10.288
 1260SOL    HW1 5554   8.904   2.316  10.230
 1260SOL    HW2 5555   8.875   2.442  10.309
 1261SOL     OW 5556  12.624   6.619  12.521
 1261SOL    HW1 5557  12.698   6.632  12.581
 1261SOL    HW2 5558  12.559   6.685  12.548
 1262SOL     OW 5559   4.951   7.986   5.061
 1262SOL    HW1 5560   4.995   8.001   5.144
 1262SOL    HW2 5561   4.988   7.903   5.029
 1263SOL     OW 5562   1.920   0.104   3.818
 1263SOL    HW1 5563   1.936   0.091   3.912
 1263SOL    HW2 5564   1.926   0.199   3.805
 1264SOL     OW 5565   9.934  13.260   7.803
 1264SOL    HW1 5566   9.971  13.332   7.751
 1264SOL    HW2 5567   9.855  13.297   7.841
 1265SOL     OW 5568   6.595   0.958   3.465
 1265SOL    HW1 5569   6.535   0.915   3.404
 1265SOL    HW2 5570   6.558   1.045   3.478
 1266SOL     OW 5571   0.388   6.830   0.763
 1266SOL    HW1 5572   0.460   6.835   0.825
 1266SOL    HW2 5573   0.367   6.922   0.743
 1267SOL     OW 5574  11.211   1.629  12.516
 1267SOL    HW1 5575  11.269   1.693  12.558
 1267SOL    HW2 5576  11.130   1.677  12.499
 1268SOL     OW 5577   1.489  13.026   9.084
 1268SOL    HW1 5578   1.393  13.026   9.092
 1268SOL    HW2 5579   1.509  12.945   9.039
 1269SOL     OW 5580   3.942   3.321  11.289
 1269SOL    HW1 5581   4.027   3.277  11.291
 1269SOL    HW2 5582   3.959   3.402  11.240
 1270SOL     OW 5583   3.579   6.382   8.288
 1270SOL    HW1 5584   3.549   6.373   8.198
 1270SOL    HW2 5585   3.647   6.315   8.297
 1271SOL     OW 5586   0.180  14.572   5.517
 1271SOL    HW1 5587   0.261  14.608   5.552
 1271SOL    HW2 5588   0.193  14.570   5.422
 1272SOL     OW 5589   4.304  13.661   9.139
 1272SOL    HW1 5590   4.368  13.723   9.172
 1272SOL    HW2 5591   4.353  13.608   9.075
 1273SOL     OW 5592   1.800   9.553  14.530
 1273SOL    HW1 5593   1.820   9.471  14.573
 1273SOL    HW2 5594   1.744   9.600  14.591
 1274SOL     OW 5595   1.989   2.338  10.282
 1274SOL    HW1 5596   1.939   2.308  10.206
 1274SOL    HW2 5597   1.981   2.267  10.345
 1275SOL     OW 5598  13.204   7.726  10.846
 1275SOL    HW1 5599  13.274   7.771  10.894
 1275SOL    HW2 5600  13.247   7.649  10.808
 1276SOL     OW 5601   1.482  11.845  11.232
 1276SOL    HW1 5602   1.399  11.867  11.275
 1276SOL    HW2 5603   1.548  11.864  11.298
 1277SOL     OW 5604   1.947   1.548  12.663
 1277SOL    HW1 5605   2.039   1.529  12.641
 1277SOL    HW2 5606   1.951   1.629  12.714
 1278SOL     OW 5607   0.401  11.757  10.235
 1278SOL    HW1 5608   0.495  11.776  10.237
 1278SOL    HW2 5609   0.359  11.843  10.244
 1279SOL     OW 5610   8.454   9.176   7.680
 1279SOL    HW1 5611   8.364   9.156   7.706
 1279SOL    HW2 5612   8.472   9.261   7.721
 1280SOL     OW 5613  10.144   0.668   2.128
 1280SOL    HW1 5614  10.163   0.599   2.065
 1280SOL    HW2 5615  10.229   0.709   2.146
 1281SOL     OW 5616   5.309   4.378   0.877
 1281SOL    HW1 5617   5.311   4.473   0.866
 1281SOL    HW2 5618   5.277   4.365   0.966
 1282SOL     OW 5619  12.334  14.540   6.126
 1282SOL    HW1 5620  12.388  14.581   6.058
 1282SOL    HW2 5621  12.307  14.613   6.182
 1283SOL     OW 5622   3.894  10.136   7.010
 1283SOL    HW1 5623   3.909  10.169   6.922
 1283SOL    HW2 5624   3.800  10.119   7.013
 1284SOL     OW 5625  11.075   5.289  12.422
 1284SOL    HW1 5626  11.051   5.343  12.498
 1284SOL    HW2 5627  11.164   5.259  12.441
 1285SOL     OW 5628  14.308   1.728   1.703
 1285SOL    HW1 5629  14.277   1.660   1.763
 1285SOL    HW2 5630  14.270   1.704   1.618
 1286SOL     OW 5631  10.567  13.013   4.579
 1286SOL    HW1 5632  10.639  13.073   4.595
 1286SOL    HW2 5633  10.590  12.969   4.497
 1287SOL     OW 5634  13.929   2.147   8.235
 1287SOL    HW1 5635  13.872   2.132   8.310
 1287SOL    HW2 5636  13.938   2.061   8.194
 1288SOL     OW 5637   9.278   9.349   1.410
 1288SOL    HW1 5638   9.294   9.363   1.503
 1288SOL    HW2 5639   9.258   9.436   1.375
 1289SOL     OW 5640   3.139  13.030  12.119
 1289SOL    HW1 5641   3.149  13.109  12.066
 1289SOL    HW2 5642   3.142  13.062  12.209
 1290SOL     OW 5643   1.055  11.727  13.729
 1290SOL    HW1 5644   1.015  11.696  13.647
 1290SOL    HW2 5645   1.009  11.808  13.749
 1291SOL     OW 5646  10.083   7.217   7.826
 1291SOL    HW1 5647  10.138   7.140   7.810
 1291SOL    HW2 5648  10.062   7.250   7.739
 1292SOL     OW 5649   5.058   4.976   1.262
 1292SOL    HW1 5650   5.002   4.898   1.262
 1292SOL    HW2 5651   4.998   5.049   1.276
 1293SOL     OW 5652   4.193   8.587   2.854
 1293SOL    HW1 5653   4.153   8.662   2.898
 1293SOL    HW2 5654   4.148   8.583   2.769
 1294SOL     OW 5655   0.593  13.662  10.818
 1294SOL    HW1 5656   0.567  13.732  10.877
 1294SOL    HW2 5657   0.563  13.582  10.861
 1295SOL     OW 5658   1.474  12.518   9.214
 1295SOL    HW1 5659   1.394  12.570   9.207
 1295SOL    HW2 5660   1.533  12.572   9.266
 1296SOL     OW 5661   1.314   5.361   3.705
 1296SOL    HW1 5662   1.372   5.414   3.651
 1296SOL    HW2 5663   1.369   5.289   3.737
 1297SOL     OW 5664  14.667   2.265  10.479
 1297SOL    HW1 5665  14.574   2.248  10.498
 1297SOL    HW2 5666  14.701   2.303  10.559
 1298SOL     OW 5667  12.466   3.026  10.709
 1298SOL    HW1 5668  12.432   3.093  10.769
 1298SOL    HW2 5669  12.545   2.993  10.752
 1299SOL     OW 5670   1.425   2.706   7.901
 1299SOL    HW1 5671   1.359   2.726   7.835
 1299SOL    HW2 5672   1.384   2.729   7.984
 1300SOL     OW 5673  12.858   9.172   7.615
 1300SOL    HW1 5674  12.782   9.224   7.587
 1300SOL    HW2 5675  12.932   9.231   7.603
 1301SOL     OW 5676   7.132   1.858   0.575
 1301SOL    HW1 5677   7.144   1.879   0.668
 1301SOL    HW2 5678   7.172   1.772   0.564
 1302SOL     OW 5679   6.067   6.307  11.106
 1302SOL    HW1 5680   6.034   6.245  11.171
 1302SOL    HW2 5681   6.011   6.384  11.117
 1303SOL     OW 5682   1.973   7.713  14.202
 1303SOL    HW1 5683   1.957   7.752  14.116
 1303SOL    HW2 5684   1.900   7.653  14.216
 1304SOL     OW 5685   4.800   5.433   5.305
 1304SOL    HW1 5686   4.836   5.514   5.267
 1304SOL    HW2 5687   4.852   5.363   5.265
 1305SOL     OW 5688   2.643   6.652  13.411
 1305SOL    HW1 5689   2.666   6.716  13.478
 1305SOL    HW2 5690   2.664   6.694  13.329
 1306SOL     OW 5691   6.583  10.714   2.819
 1306SOL    HW1 5692   6.505  10.768   2.832
 1306SOL    HW2 5693   6.613  10.736   2.731
 1307SOL     OW 5694  14.562   7.391   8.923
 1307SOL    HW1 5695  14.481   7.441   8.910
 1307SOL    HW2 5696  14.562   7.368   9.016
 1308SOL     OW 5697   6.936   1.403  14.372
 1308SOL    HW1 5698   6.843   1.388  14.388
 1308SOL    HW2 5699   6.952   1.367  14.285
 1309SOL     OW 5700   3.002  13.461   8.370
 1309SOL    HW1 5701   3.075  13.400   8.375
 1309SOL    HW2 5702   3.038  13.539   8.328
 1310SOL     OW 5703   9.276   4.235  11.329
 1310SOL    HW1 5704   9.189   4.255  11.365
 1310SOL    HW2 5705   9.325   4.317  11.338
 1311SOL     OW 5706  13.569  14.012  12.183
 1311SOL    HW1 5707  13.611  14.011  12.097
 1311SOL    HW2 5708  13.641  14.001  12.245
 1312SOL     OW 5709  11.607   4.296  11.589
 1312SOL    HW1 5710  11.548   4.257  11.654
 1312SOL    HW2 5711  11.556   4.297  11.508
 1313SOL     OW 5712   0.970  12.256   1.402
 1313SOL    HW1 5713   1.025  12.333   1.417
 1313SOL    HW2 5714   0.987  12.232   1.310
 1314SOL     OW 5715   7.329   7.847   9.381
 1314SOL    HW1 5716   7.327   7.924   9.324
 1314SOL    HW2 5717   7.266   7.787   9.341
 1315SOL     OW 5718   8.728   8.140  12.599
 1315SOL    HW1 5719   8.741   8.235  12.596
 1315SOL    HW2 5720   8.770   8.107  12.519
 1316SOL     OW 5721   0.816   6.430  13.372
 1316SOL    HW1 5722   0.746   6.365  13.369
 1316SOL    HW2 5723   0.828   6.456  13.280
 1317SOL     OW 5724   4.049  14.743   9.422
 1317SOL    HW1 5725   3.985  14.814   9.425
 1317SOL    HW2 5726   4.036  14.703   9.336
 1318SOL     OW 5727  14.239  14.193   9.760
 1318SOL    HW1 5728  14.323  14.233   9.739
 1318SOL    HW2 5729  14.254  14.099   9.747
 1319SOL     OW 5730   5.394  14.081  12.249
 1319SOL    HW1 5731   5.340  14.009  12.216
 1319SOL    HW2 5732   5.484  14.050  12.239
 1320SOL     OW 5733   9.640  12.267  11.355
 1320SOL    HW1 5734   9.573  12.213  11.313
 1320SOL    HW2 5735   9.598  12.301  11.434
 1321SOL     OW 5736  14.550   9.393  11.722
 1321SOL    HW1 5737  14.490   9.449  11.772
 1321SOL    HW2 5738  14.626   9.383  11.778
 1322SOL     OW 5739   7.976   5.837   7.490
 1322SOL    HW1 5740   8.046   5.811   7.429
 1322SOL    HW2 5741   7.896   5.833   7.438
 1323SOL     OW 5742   1.661   8.835  14.818
 1323SOL    HW1 5743   1.732   8.893  14.847
 1323SOL    HW2 5744   1.646   8.776   0.010
 1324SOL     OW 5745   2.374  14.342   1.575
 1324SOL    HW1 5746   2.367  14.344   1.671
 1324SOL    HW2 5747   2.334  14.423   1.546
 1325SOL     OW 5748   6.593  11.955   2.182
 1325SOL    HW1 5749   6.658  11.888   2.162
 1325SOL    HW2 5750   6.645  12.032   2.208
 1326SOL     OW 5751   6.066   8.161   7.244
 1326SOL    HW1 5752   6.072   8.186   7.152
 1326SOL    HW2 5753   6.133   8.093   7.254
 1327SOL     OW 5754  12.718   1.712   5.343
 1327SOL    HW1 5755  12.737   1.632   5.391
 1327SOL    HW2 5756  12.704   1.778   5.411
 1328SOL     OW 5757   7.537  14.553   5.052
 1328SOL    HW1 5758   7.616  14.601   5.076
 1328SOL    HW2 5759   7.495  14.607   4.984
 1329SOL     OW 5760   6.665   9.849   1.998
 1329SOL    HW1 5761   6.721   9.924   2.019
 1329SOL    HW2 5762   6.725   9.775   1.994
 1330SOL     OW 5763   0.961  13.390   2.659
 1330SOL    HW1 5764   1.053  13.364   2.654
 1330SOL    HW2 5765   0.956  13.443   2.739
 1331SOL     OW 5766   2.587  14.400  12.075
 1331SOL    HW1 5767   2.507  14.365  12.037
 1331SOL    HW2 5768   2.652  14.330  12.064
 1332SOL     OW 5769   8.885   9.109   0.800
 1332SOL    HW1 5770   8.825   9.181   0.820
 1332SOL    HW2 5771   8.957   9.119   0.863
 1333SOL     OW 5772   8.659   6.568   3.592
 1333SOL    HW1 5773   8.722   6.594   3.525
 1333SOL    HW2 5774   8.652   6.644   3.650
 1334SOL     OW 5775  10.556   6.690   1.678
 1334SOL    HW1 5776  10.540   6.759   1.742
 1334SOL    HW2 5777  10.473   6.680   1.632
 1335SOL     OW 5778  10.416   3.300  14.667
 1335SOL    HW1 5779  10.349   3.250  14.621
 1335SOL    HW2 5780  10.419   3.262  14.755
 1336SOL     OW 5781  10.201   7.518   0.493
 1336SOL    HW1 5782  10.206   7.601   0.541
 1336SOL    HW2 5783  10.185   7.452   0.560
 1337SOL     OW 5784   1.795  12.658   9.011
 1337SOL    HW1 5785   1.874  12.638   8.962
 1337SOL    HW2 5786   1.795  12.594   9.082
 1338SOL     OW 5787   6.408   0.163   1.052
 1338SOL    HW1 5788   6.433   0.094   1.114
 1338SOL    HW2 5789   6.389   0.116   0.971
 1339SOL     OW 5790   4.356  13.414   7.491
 1339SOL    HW1 5791   4.440  13.419   7.536
 1339SOL    HW2 5792   4.312  13.496   7.514
 1340SOL     OW 5793   9.704   3.734   7.708
 1340SOL    HW1 5794   9.610   3.720   7.718
 1340SOL    HW2 5795   9.713   3.828   7.691
 1341SOL     OW 5796   6.892   4.468   3.257
 1341SOL    HW1 5797   6.835   4.425   3.321
 1341SOL    HW2 5798   6.847   4.550   3.235
 1342SOL     OW 5799  13.304   6.118   9.182
 1342SOL    HW1 5800  13.283   6.163   9.264
 1342SOL    HW2 5801  13.219   6.092   9.147
 1343SOL     OW 5802  14.692  11.528  13.839
 1343SOL    HW1 5803  14.778  11.521  13.880
 1343SOL    HW2 5804  14.680  11.445  13.793
 1344SOL     OW 5805   2.803   4.501  10.011
 1344SOL    HW1 5806   2.726   4.556  10.027
 1344SOL    HW2 5807   2.768   4.424   9.967
 1345SOL     OW 5808   1.659  13.006  13.305
 1345SOL    HW1 5809   1.574  12.994  13.347
 1345SOL    HW2 5810   1.642  12.992  13.212
 1346SOL     OW 5811   2.315   9.593  14.142
 1346SOL    HW1 5812   2.291   9.509  14.180
 1346SOL    HW2 5813   2.265   9.599  14.061
 1347SOL     OW 5814   5.377   5.842   9.925
 1347SOL    HW1 5815   5.451   5.902   9.914
 1347SOL    HW2 5816   5.378   5.820  10.018
 1348SOL     OW 5817   1.782  12.572   8.413
 1348SOL    HW1 5818   1.801  12.500   8.473
 1348SOL    HW2 5819   1.789  12.533   8.326
 1349SOL     OW 5820   3.012   1.945   8.661
 1349SOL    HW1 5821   3.078   1.991   8.610
 1349SOL    HW2 5822   3.063   1.891   8.722
 1350SOL     OW 5823  11.211   4.683   9.845
 1350SOL    HW1 5824  11.181   4.725   9.764
 1350SOL    HW2 5825  11.233   4.755   9.904
 1351SOL     OW 5826   6.841   4.984  14.654
 1351SOL    HW1 5827   6.808   5.050  14.714
 1351SOL    HW2 5828   6.841   4.903  14.705
 1352SOL     OW 5829   5.176   8.043   8.380
 1352SOL    HW1 5830   5.115   8.114   8.401
 1352SOL    HW2 5831   5.249   8.086   8.337
 1353SOL     OW 5832   7.822   6.297   4.412
 1353SOL    HW1 5833   7.834   6.204   4.393
 1353SOL    HW2 5834   7.910   6.333   4.412
 1354SOL     OW 5835   2.733   2.932  13.281
 1354SOL    HW1 5836   2.780   3.012  13.257
 1354SOL    HW2 5837   2.776   2.903  13.362
 1355SOL     OW 5838  10.522  12.326   1.467
 1355SOL    HW1 5839  10.592  12.356   1.525
 1355SOL    HW2 5840  10.463  12.400   1.459
 1356SOL     OW 5841   4.895   9.292   5.302
 1356SOL    HW1 5842   4.831   9.221   5.306
 1356SOL    HW2 5843   4.955   9.267   5.231
 1357SOL     OW 5844   0.150   1.385  11.143
 1357SOL    HW1 5845   0.096   1.464  11.141
 1357SOL    HW2 5846   0.090   1.315  11.169
 1358SOL     OW 5847   4.042   3.811  12.964
 1358SOL    HW1 5848   4.092   3.878  12.917
 1358SOL    HW2 5849   4.001   3.758  12.896
 1359SOL     OW 5850   4.044  14.619   4.299
 1359SOL    HW1 5851   3.984  14.545   4.312
 1359SOL    HW2 5852   4.064  14.649   4.388
 1360SOL     OW 5853   5.510   8.310   6.277
 1360SOL    HW1 5854   5.557   8.242   6.326
 1360SOL    HW2 5855   5.519   8.284   6.186
 1361SOL     OW 5856   5.205   6.600   3.742
 1361SOL    HW1 5857   5.258   6.550   3.680
 1361SOL    HW2 5858   5.269   6.639   3.801
 1362SOL     OW 5859   5.387  11.768  12.214
 1362SOL    HW1 5860   5.464  11.718  12.242
 1362SOL    HW2 5861   5.318  11.744  12.276
 1363SOL     OW 5862   9.356   0.249   3.275
 1363SOL    HW1 5863   9.285   0.232   3.337
 1363SOL    HW2 5864   9.436   0.235   3.324
 1364SOL     OW 5865   9.189   0.247  11.230
 1364SOL    HW1 5866   9.278   0.268  11.200
 1364SOL    HW2 5867   9.149   0.203  11.156
 1365SOL     OW 5868   6.319   9.494  14.547
 1365SOL    HW1 5869   6.333   9.402  14.522
 1365SOL    HW2 5870   6.349   9.544  14.471
 1366SOL     OW 5871   0.831   6.824   9.531
 1366SOL    HW1 5872   0.771   6.865   9.593
 1366SOL    HW2 5873   0.831   6.732   9.554
 1367SOL     OW 5874  12.241   2.700   7.154
 1367SOL    HW1 5875  12.178   2.715   7.225
 1367SOL    HW2 5876  12.188   2.659   7.085
 1368SOL     OW 5877   4.182  11.366   0.970
 1368SOL    HW1 5878   4.170  11.377   1.064
 1368SOL    HW2 5879   4.243  11.293   0.962
 1369SOL     OW 5880   0.553   0.965   8.548
 1369SOL    HW1 5881   0.550   0.926   8.635
 1369SOL    HW2 5882   0.571   0.892   8.489
 1370SOL     OW 5883   2.294   6.572   5.181
 1370SOL    HW1 5884   2.331   6.610   5.261
 1370SOL    HW2 5885   2.359   6.506   5.154
 1371SOL     OW 5886  10.645  10.098   6.522
 1371SOL    HW1 5887  10.554  10.116   6.498
 1371SOL    HW2 5888  10.697  10.132   6.450
 1372SOL     OW 5889   8.135   5.990   4.774
 1372SOL    HW1 5890   8.183   6.026   4.699
 1372SOL    HW2 5891   8.173   5.903   4.786
 1373SOL     OW 5892  11.069  12.944   5.098
 1373SOL    HW1 5893  10.985  12.918   5.062
 1373SOL    HW2 5894  11.134  12.901   5.043
 1374SOL     OW 5895   5.406  13.431  14.322
 1374SOL    HW1 5896   5.376  13.351  14.365
 1374SOL    HW2 5897   5.498  13.413  14.300
 1375SOL     OW 5898   6.515   9.746   0.946
 1375SOL    HW1 5899   6.524   9.806   0.873
 1375SOL    HW2 5900   6.439   9.692   0.924
 1376SOL     OW 5901   8.393   4.629   2.990
 1376SOL    HW1 5902   8.434   4.705   2.949
 1376SOL    HW2 5903   8.381   4.655   3.082
 1377SOL     OW 5904  12.703   1.958  11.345
 1377SOL    HW1 5905  12.663   2.033  11.389
 1377SOL    HW2 5906  12.657   1.882  11.379
 1378SOL     OW 5907   3.573  11.633   9.935
 1378SOL    HW1 5908   3.656  11.606   9.974
 1378SOL    HW2 5909   3.506  11.590   9.988
 1379SOL     OW 5910   4.666  10.236  14.686
 1379SOL    HW1 5911   4.573  10.259  14.687
 1379SOL    HW2 5912   4.670  10.152  14.731
 1380SOL     OW 5913   2.291  13.013   0.682
 1380SOL    HW1 5914   2.265  13.103   0.661
 1380SOL    HW2 5915   2.386  13.017   0.691
 1381SOL     OW 5916   5.246   5.977   1.804
 1381SOL    HW1 5917   5.311   6.044   1.827
 1381SOL    HW2 5918   5.295   5.913   1.752
 1382SOL     OW 5919   2.868   5.092   6.415
 1382SOL    HW1 5920   2.963   5.104   6.409
 1382SOL    HW2 5921   2.839   5.164   6.471
 1383SOL     OW 5922  13.883   1.702  10.045
 1383SOL    HW1 5923  13.848   1.715  10.132
 1383SOL    HW2 5924  13.823   1.641  10.003
 1384SOL     OW 5925   5.761   4.524   7.628
 1384SOL    HW1 5926   5.732   4.438   7.659
 1384SOL    HW2 5927   5.702   4.586   7.669
 1385SOL     OW 5928   9.328  10.530   6.069
 1385SOL    HW1 5929   9.382  10.593   6.021
 1385SOL    HW2 5930   9.368  10.527   6.156
 1386SOL     OW 5931   6.294   1.630   2.348
 1386SOL    HW1 5932   6.342   1.547   2.338
 1386SOL    HW2 5933   6.201   1.603   2.348
 1387SOL     OW 5934   9.168   7.687   0.545
 1387SOL    HW1 5935   9.172   7.627   0.619
 1387SOL    HW2 5936   9.214   7.765   0.574
 1388SOL     OW 5937  11.758   8.049  10.623
 1388SOL    HW1 5938  11.725   7.964  10.594
 1388SOL    HW2 5939  11.680   8.095  10.656
 1389SOL     OW 5940  12.561   1.831   6.544
 1389SOL    HW1 5941  12.636   1.891   6.540
 1389SOL    HW2 5942  12.494   1.880   6.592
 1390SOL     OW 5943   0.252   9.367  10.721
 1390SOL    HW1 5944   0.302   9.363  10.803
 1390SOL    HW2 5945   0.217   9.278  10.711
 1391SOL     OW 5946   7.015  13.442   9.994
 1391SOL    HW1 5947   6.987  13.407   9.910
 1391SOL    HW2 5948   7.054  13.368  10.039
 1392SOL     OW 5949   7.176   5.419   4.689
 1392SOL    HW1 5950   7.254   5.467   4.716
 1392SOL    HW2 5951   7.209   5.348   4.634
 1393SOL     OW 5952   5.347   5.144   2.072
 1393SOL    HW1 5953   5.392   5.218   2.112
 1393SOL    HW2 5954   5.322   5.176   1.985
 1394SOL     OW 5955   0.688   8.743   8.085
 1394SOL    HW1 5956   0.729   8.661   8.110
 1394SOL    HW2 5957   0.598   8.736   8.117
 1395SOL     OW 5958  11.158   5.124   2.691
 1395SOL    HW1 5959  11.246   5.113   2.727
 1395SOL    HW2 5960  11.112   5.043   2.714
 1396SOL     OW 5961  10.584  11.137   6.095
 1396SOL    HW1 5962  10.530  11.138   6.016
 1396SOL    HW2 5963  10.674  11.128   6.062
 1397SOL     OW 5964   1.688   4.192   3.307
 1397SOL    HW1 5965   1.758   4.257   3.309
 1397SOL    HW2 5966   1.609   4.241   3.287
 1398SOL     OW 5967   7.726   8.211   2.483
 1398SOL    HW1 5968   7.806   8.235   2.529
 1398SOL    HW2 5969   7.701   8.126   2.520
 1399SOL     OW 5970  12.257  13.317   6.488
 1399SOL    HW1 5971  12.178  13.335   6.438
 1399SOL    HW2 5972  12.308  13.398   6.482
 1400SOL     OW 5973   9.912  12.490  13.413
 1400SOL    HW1 5974  10.004  12.510  13.394
 1400SOL    HW2 5975   9.869  12.575  13.417
 1401SOL     OW 5976   5.715   9.189   1.732
 1401SOL    HW1 5977   5.723   9.181   1.636
 1401SOL    HW2 5978   5.778   9.125   1.766
 1402SOL     OW 5979   9.532  12.142   2.609
 1402SOL    HW1 5980   9.441  12.122   2.633
 1402SOL    HW2 5981   9.527  12.227   2.566
 1403SOL     OW 5982   5.814   0.565   3.700
 1403SOL    HW1 5983   5.863   0.646   3.714
 1403SOL    HW2 5984   5.750   0.563   3.772
 1404SOL     OW 5985  13.901  14.838   3.095
 1404SOL    HW1 5986  13.846   0.012   3.039
 1404SOL    HW2 5987  13.919  14.760   3.042
 1405SOL     OW 5988  12.339   7.115   0.325
 1405SOL    HW1 5989  12.327   7.021   0.314
 1405SOL    HW2 5990  12.411   7.137   0.267
 1406SOL     OW 5991   2.888   9.463   2.118
 1406SOL    HW1 5992   2.820   9.515   2.076
 1406SOL    HW2 5993   2.947   9.438   2.046
 1407SOL     OW 5994  11.672   8.128   0.674
 1407SOL    HW1 5995  11.739   8.140   0.607
 1407SOL    HW2 5996  11.597   8.092   0.627
 1408SOL     OW 5997  11.621  12.907   7.189
 1408SOL    HW1 5998  11.671  12.826   7.200
 1408SOL    HW2 5999  11.562  12.888   7.116
 1409SOL     OW 6000   5.827   5.427  14.175
 1409SOL    HW1 6001   5.854   5.519  14.181
 1409SOL    HW2 6002   5.775   5.412  14.253
 1410SOL     OW 6003  13.636   1.307  14.141
 1410SOL    HW1 6004  13.580   1.238  14.106
 1410SOL    HW2 6005  13.678   1.346  14.064
 1411SOL     OW 6006   6.817   3.254   7.196
 1411SOL    HW1 6007   6.837   3.254   7.102
 1411SOL    HW2 6008   6.877   3.190   7.233
 1412SOL     OW 6009  10.281  13.797   7.815
 1412SOL    HW1 6010  10.227  13.873   7.793
 1412SOL    HW2 6011  10.318  13.817   7.901
 1413SOL     OW 6012   1.883   9.319  13.602
 1413SOL    HW1 6013   1.956   9.361  13.648
 1413SOL    HW2 6014   1.808   9.330  13.661
 1414SOL     OW 6015  14.477   6.185   6.651
 1414SOL    HW1 6016  14.570   6.201   6.664
 1414SOL    HW2 6017  14.457   6.222   6.566
 1415SOL     OW 6018   9.780   7.868  14.719
 1415SOL    HW1 6019   9.721   7.884  14.645
 1415SOL    HW2 6020   9.815   7.954  14.741
 1416SOL     OW 6021   2.392   1.348  12.627
 1416SOL    HW1 6022   2.461   1.366  12.563
 1416SOL    HW2 6023   2.332   1.422  12.618
 1417SOL     OW 6024  12.122   7.572  13.779
 1417SOL    HW1 6025  12.041   7.623  13.769
 1417SOL    HW2 6026  12.187   7.636  13.806
 1418SOL     OW 6027  10.881   8.744  13.709
 1418SOL    HW1 6028  10.915   8.667  13.663
 1418SOL    HW2 6029  10.792   8.755  13.676
 1419SOL     OW 6030   2.481   5.768   6.701
 1419SOL    HW1 6031   2.394   5.809   6.694
 1419SOL    HW2 6032   2.530   5.804   6.627
 1420SOL     OW 6033   1.484  10.873   8.446
 1420SOL    HW1 6034   1.529  10.919   8.516
 1420SOL    HW2 6035   1.540  10.885   8.369
 1421SOL     OW 6036   4.194   2.620   2.968
 1421SOL    HW1 6037   4.208   2.607   2.874
 1421SOL    HW2 6038   4.232   2.542   3.009
 1422SOL     OW 6039   0.932   5.352   6.927
 1422SOL    HW1 6040   0.842   5.352   6.896
 1422SOL    HW2 6041   0.981   5.400   6.861
 1423SOL     OW 6042   5.536   5.370  10.909
 1423SOL    HW1 6043   5.626   5.402  10.905
 1423SOL    HW2 6044   5.485   5.445  10.940
 1424SOL     OW 6045   8.173   8.559   8.554
 1424SOL    HW1 6046   8.215   8.474   8.572
 1424SOL    HW2 6047   8.224   8.621   8.606
 1425SOL     OW 6048  13.298   4.484   5.600
 1425SOL    HW1 6049  13.214   4.457   5.564
 1425SOL    HW2 6050  13.342   4.402   5.622
 1426SOL     OW 6051   8.834   1.372   8.514
 1426SOL    HW1 6052   8.752   1.380   8.563
 1426SOL    HW2 6053   8.829   1.285   8.473
 1427SOL     OW 6054  10.434   9.601  12.377
 1427SOL    HW1 6055  10.462   9.612  12.468
 1427SOL    HW2 6056  10.503   9.642  12.325
 1428SOL     OW 6057   6.530  10.144   9.033
 1428SOL    HW1 6058   6.476  10.220   9.013
 1428SOL    HW2 6059   6.471  10.069   9.023
 1429SOL     OW 6060   5.552  12.743   6.650
 1429SOL    HW1 6061   5.580  12.652   6.649
 1429SOL    HW2 6062   5.494  12.750   6.726
 1430SOL     OW 6063   8.806  13.503  10.711
 1430SOL    HW1 6064   8.731  13.529  10.765
 1430SOL    HW2 6065   8.800  13.407  10.708
 1431SOL     OW 6066  10.790   8.149   3.672
 1431SOL    HW1 6067  10.705   8.173   3.710
 1431SOL    HW2 6068  10.778   8.059   3.642
 1432SOL     OW 6069   9.694   2.910   0.667
 1432SOL    HW1 6070   9.650   2.907   0.752
 1432SOL    HW2 6071   9.758   2.981   0.676
 1433SOL     OW 6072   6.534  10.442   7.287
 1433SOL    HW1 6073   6.624  10.453   7.319
 1433SOL    HW2 6074   6.482  10.427   7.366
 1434SOL     OW 6075   9.649   4.890   2.433
 1434SOL    HW1 6076   9.704   4.905   2.356
 1434SOL    HW2 6077   9.639   4.795   2.437
 1435SOL     OW 6078   1.190   1.286   9.410
 1435SOL    HW1 6079   1.271   1.325   9.445
 1435SOL    HW2 6080   1.215   1.196   9.389
 1436SOL     OW 6081   8.012   5.281  13.123
 1436SOL    HW1 6082   8.019   5.258  13.031
 1436SOL    HW2 6083   8.091   5.244  13.163
 1437SOL     OW 6084   0.891   6.689  13.707
 1437SOL    HW1 6085   0.896   6.750  13.634
 1437SOL    HW2 6086   0.933   6.609  13.675
 1438SOL     OW 6087   3.726   9.891   8.803
 1438SOL    HW1 6088   3.647   9.938   8.829
 1438SOL    HW2 6089   3.799   9.944   8.836
 1439SOL     OW 6090  10.918   5.973   5.535
 1439SOL    HW1 6091  10.960   5.998   5.453
 1439SOL    HW2 6092  10.991   5.967   5.598
 1440SOL     OW 6093   4.046   1.637  11.918
 1440SOL    HW1 6094   3.967   1.615  11.869
 1440SOL    HW2 6095   4.071   1.555  11.961
 1441SOL     OW 6096   0.970   3.638   5.069
 1441SOL    HW1 6097   0.979   3.608   5.159
 1441SOL    HW2 6098   1.035   3.708   5.061
 1442SOL     OW 6099  14.044  10.086  12.750
 1442SOL    HW1 6100  14.032  10.140  12.672
 1442SOL    HW2 6101  14.138  10.089  12.766
 1443SOL     OW 6102   0.465  11.392   9.386
 1443SOL    HW1 6103   0.405  11.377   9.313
 1443SOL    HW2 6104   0.510  11.309   9.399
 1444SOL     OW 6105  10.602   2.034   7.414
 1444SOL    HW1 6106  10.510   2.049   7.391
 1444SOL    HW2 6107  10.648   2.031   7.330
 1445SOL     OW 6108   1.114   3.176  11.647
 1445SOL    HW1 6109   1.026   3.170  11.684
 1445SOL    HW2 6110   1.100   3.183  11.553
 1446SOL     OW 6111  13.785  13.765   0.602
 1446SOL    HW1 6112  13.794  13.823   0.526
 1446SOL    HW2 6113  13.821  13.681   0.572
 1447SOL     OW 6114  13.394   1.899   0.045
 1447SOL    HW1 6115  13.352   1.946   0.117
 1447SOL    HW2 6116  13.482   1.881   0.076
 1448SOL     OW 6117   8.648   7.003   1.269
 1448SOL    HW1 6118   8.693   7.081   1.238
 1448SOL    HW2 6119   8.631   6.952   1.190
 1449SOL     OW 6120  10.057   0.677   6.093
 1449SOL    HW1 6121  10.068   0.585   6.118
 1449SOL    HW2 6122   9.981   0.676   6.034
 1450SOL     OW 6123   9.302  10.071   1.932
 1450SOL    HW1 6124   9.211  10.056   1.956
 1450SOL    HW2 6125   9.351  10.058   2.014
 1451SOL     OW 6126  14.499   3.219   4.510
 1451SOL    HW1 6127  14.573   3.279   4.506
 1451SOL    HW2 6128  14.508   3.163   4.433
 1452SOL     OW 6129   4.430   7.194   1.803
 1452SOL    HW1 6130   4.393   7.129   1.863
 1452SOL    HW2 6131   4.518   7.212   1.839
 1453SOL     OW 6132   9.781   2.774   4.026
 1453SOL    HW1 6133   9.747   2.750   4.112
 1453SOL    HW2 6134   9.864   2.728   4.019
 1454SOL     OW 6135   0.254   4.686   3.260
 1454SOL    HW1 6136   0.209   4.619   3.210
 1454SOL    HW2 6137   0.279   4.642   3.342
 1455SOL     OW 6138   4.874   7.937   7.925
 1455SOL    HW1 6139   4.845   8.022   7.893
 1455SOL    HW2 6140   4.969   7.937   7.909
 1456SOL     OW 6141   3.008   4.203   9.910
 1456SOL    HW1 6142   3.058   4.137   9.958
 1456SOL    HW2 6143   2.925   4.210   9.958
 1457SOL     OW 6144  10.394  10.929  11.589
 1457SOL    HW1 6145  10.360  10.841  11.573
 1457SOL    HW2 6146  10.326  10.972  11.640
 1458SOL     OW 6147   1.098   1.801  12.169
 1458SOL    HW1 6148   1.027   1.840  12.118
 1458SOL    HW2 6149   1.167   1.785  12.105
 1459SOL     OW 6150  13.677   5.343   6.016
 1459SOL    HW1 6151  13.674   5.344   6.111
 1459SOL    HW2 6152  13.769   5.332   5.995
 1460SOL     OW 6153   1.195   4.672  13.361
 1460SOL    HW1 6154   1.171   4.605  13.426
 1460SOL    HW2 6155   1.134   4.657  13.288
 1461SOL     OW 6156   5.613  11.174  13.697
 1461SOL    HW1 6157   5.638  11.146  13.609
 1461SOL    HW2 6158   5.517  11.173  13.696
 1462SOL     OW 6159   9.407   2.580   5.221
 1462SOL    HW1 6160   9.416   2.491   5.257
 1462SOL    HW2 6161   9.341   2.621   5.277
 1463SOL     OW 6162   9.305  13.617   5.019
 1463SOL    HW1 6163   9.215  13.627   4.987
 1463SOL    HW2 6164   9.349  13.697   4.991
 1464SOL     OW 6165   5.078  12.388   4.211
 1464SOL    HW1 6166   5.089  12.442   4.133
 1464SOL    HW2 6167   5.112  12.442   4.282
 1465SOL     OW 6168   2.928   6.136  10.417
 1465SOL    HW1 6169   2.978   6.199  10.365
 1465SOL    HW2 6170   2.841   6.136  10.377
 1466SOL     OW 6171   0.981   7.452   6.760
 1466SOL    HW1 6172   1.053   7.436   6.821
 1466SOL    HW2 6173   1.025   7.477   6.678
 1467SOL     OW 6174   6.447   1.940   5.554
 1467SOL    HW1 6175   6.420   1.849   5.566
 1467SOL    HW2 6176   6.379   1.992   5.598
 1468SOL     OW 6177   9.525  11.773   6.345
 1468SOL    HW1 6178   9.555  11.765   6.435
 1468SOL    HW2 6179   9.476  11.856   6.343
 1469SOL     OW 6180  13.690  11.944  10.270
 1469SOL    HW1 6181  13.778  11.912  10.292
 1469SOL    HW2 6182  13.640  11.931  10.350
 1470SOL     OW 6183   1.956   9.101   5.233
 1470SOL    HW1 6184   2.036   9.065   5.195
 1470SOL    HW2 6185   1.907   9.024   5.262
 1471SOL     OW 6186  12.606   2.151   2.668
 1471SOL    HW1 6187  12.530   2.099   2.643
 1471SOL    HW2 6188  12.597   2.233   2.618
 1472SOL     OW 6189   3.087   0.927   7.176
 1472SOL    HW1 6190   3.009   0.923   7.120
 1472SOL    HW2 6191   3.067   0.997   7.239
 1473SOL     OW 6192   6.334   2.976   6.216
 1473SOL    HW1 6193   6.257   2.931   6.180
 1473SOL    HW2 6194   6.323   2.971   6.311
 1474SOL     OW 6195   6.567   4.174   0.713
 1474SOL    HW1 6196   6.488   4.210   0.752
 1474SOL    HW2 6197   6.593   4.239   0.647
 1475SOL     OW 6198  14.287   1.924   2.380
 1475SOL    HW1 6199  14.293   1.970   2.297
 1475SOL    HW2 6200  14.374   1.887   2.394
 1476SOL     OW 6201   1.242   0.141   7.207
 1476SOL    HW1 6202   1.180   0.187   7.263
 1476SOL    HW2 6203   1.312   0.112   7.266
 1477SOL     OW 6204   8.495   4.082   0.309
 1477SOL    HW1 6205   8.560   4.034   0.258
 1477SOL    HW2 6206   8.411   4.058   0.270
 1478SOL     OW 6207  12.785   7.087   6.768
 1478SOL    HW1 6208  12.804   7.010   6.714
 1478SOL    HW2 6209  12.805   7.059   6.857
 1479SOL     OW 6210   9.108  10.974   2.095
 1479SOL    HW1 6211   9.112  10.927   2.012
 1479SOL    HW2 6212   9.186  11.028   2.096
 1480SOL     OW 6213   5.334   1.217  11.024
 1480SOL    HW1 6214   5.343   1.161  10.947
 1480SOL    HW2 6215   5.328   1.157  11.098
 1481SOL     OW 6216   5.406   7.725  10.351
 1481SOL    HW1 6217   5.339   7.685  10.407
 1481SOL    HW2 6218   5.443   7.653  10.301
 1482SOL     OW 6219   1.281  13.028   5.473
 1482SOL    HW1 6220   1.187  13.027   5.491
 1482SOL    HW2 6221   1.289  12.994   5.384
 1483SOL     OW 6222   7.672  14.254   9.922
 1483SOL    HW1 6223   7.664  14.167   9.963
 1483SOL    HW2 6224   7.590  14.298   9.945
 1484SOL     OW 6225   0.002   0.754   0.306
 1484SOL    HW1 6226  14.840   0.831   0.343
 1484SOL    HW2 6227  14.840   0.740   0.222
 1485SOL     OW 6228  14.429   7.699   9.781
 1485SOL    HW1 6229  14.449   7.761   9.851
 1485SOL    HW2 6230  14.341   7.721   9.753
 1486SOL     OW 6231  11.195   4.341   9.312
 1486SOL    HW1 6232  11.158   4.253   9.312
 1486SOL    HW2 6233  11.188   4.370   9.404
 1487SOL     OW 6234  14.015   5.136  10.623
 1487SOL    HW1 6235  14.010   5.218  10.574
 1487SOL    HW2 6236  13.952   5.079  10.581
 1488SOL     OW 6237   1.439  13.411   3.249
 1488SOL    HW1 6238   1.440  13.454   3.334
 1488SOL    HW2 6239   1.475  13.323   3.266
 1489SOL     OW 6240   2.296  10.959   4.652
 1489SOL    HW1 6241   2.221  10.904   4.672
 1489SOL    HW2 6242   2.334  10.920   4.573
 1490SOL     OW 6243   9.544  12.597   5.155
 1490SOL    HW1 6244   9.478  12.555   5.099
 1490SOL    HW2 6245   9.624  12.594   5.102
 1491SOL     OW 6246   7.046   1.134   6.363
 1491SOL    HW1 6247   7.119   1.133   6.301
 1491SOL    HW2 6248   7.086   1.109   6.447
 1492SOL     OW 6249   5.506  10.975  12.799
 1492SOL    HW1 6250   5.434  11.037  12.815
 1492SOL    HW2 6251   5.518  10.977  12.704
 1493SOL     OW 6252  14.509   3.590   2.154
 1493SOL    HW1 6253  14.454   3.631   2.087
 1493SOL    HW2 6254  14.457   3.516   2.185
 1494SOL     OW 6255   8.015   9.226   8.484
 1494SOL    HW1 6256   7.941   9.249   8.540
 1494SOL    HW2 6257   8.065   9.307   8.477
 1495SOL     OW 6258   8.723   3.560  13.487
 1495SOL    HW1 6259   8.713   3.566  13.392
 1495SOL    HW2 6260   8.654   3.616  13.522
 1496SOL     OW 6261  13.467   8.634   5.341
 1496SOL    HW1 6262  13.470   8.540   5.320
 1496SOL    HW2 6263  13.422   8.673   5.267
 1497SOL     OW 6264   1.686  14.643   8.155
 1497SOL    HW1 6265   1.771  14.615   8.121
 1497SOL    HW2 6266   1.645  14.689   8.082
 1498SOL     OW 6267   0.495   4.461   0.654
 1498SOL    HW1 6268   0.519   4.474   0.562
 1498SOL    HW2 6269   0.503   4.548   0.693
 1499SOL     OW 6270   7.061   4.617  13.998
 1499SOL    HW1 6271   7.149   4.598  13.966
 1499SOL    HW2 6272   7.061   4.711  14.016
 1500SOL     OW 6273  12.025  11.451   1.127
 1500SOL    HW1 6274  11.954  11.393   1.100
 1500SOL    HW2 6275  12.020  11.450   1.223
 1501SOL     OW 6276   1.083   6.559  11.523
 1501SOL    HW1 6277   1.148   6.527  11.586
 1501SOL    HW2 6278   1.089   6.655  11.529
 1502SOL     OW 6279   9.663   6.742   9.421
 1502SOL    HW1 6280   9.570   6.719   9.417
 1502SOL    HW2 6281   9.663   6.836   9.439
 1503SOL     OW 6282   6.456   5.554   0.476
 1503SOL    HW1 6283   6.442   5.462   0.497
 1503SOL    HW2 6284   6.470   5.556   0.381
 1504SOL     OW 6285   5.123   5.033   1.003
 1504SOL    HW1 6286   5.122   4.941   0.978
 1504SOL    HW2 6287   5.107   5.033   1.098
 1505SOL     OW 6288   0.295   4.142   8.391
 1505SOL    HW1 6289   0.242   4.063   8.378
 1505SOL    HW2 6290   0.349   4.123   8.467
 1506SOL     OW 6291  13.675  10.911   2.605
 1506SOL    HW1 6292  13.654  10.967   2.680
 1506SOL    HW2 6293  13.771  10.912   2.601
 1507SOL     OW 6294   6.256   6.687   1.662
 1507SOL    HW1 6295   6.261   6.645   1.748
 1507SOL    HW2 6296   6.284   6.777   1.677
 1508SOL     OW 6297   8.391   0.379   2.391
 1508SOL    HW1 6298   8.399   0.388   2.486
 1508SOL    HW2 6299   8.421   0.290   2.372
 1509SOL     OW 6300   5.308   9.977  14.796
 1509SOL    HW1 6301   5.348  10.057  14.831
 1509SOL    HW2 6302   5.368   9.907  14.821
 1510SOL     OW 6303   0.165   1.618   8.011
 1510SOL    HW1 6304   0.115   1.536   8.020
 1510SOL    HW2 6305   0.119   1.667   7.943
 1511SOL     OW 6306   4.684  14.380   8.345
 1511SOL    HW1 6307   4.671  14.306   8.286
 1511SOL    HW2 6308   4.602  14.429   8.341
 1512SOL     OW 6309   1.245   3.832  11.709
 1512SOL    HW1 6310   1.279   3.808  11.796
 1512SOL    HW2 6311   1.200   3.754  11.678
 1513SOL     OW 6312  10.528  10.253   4.987
 1513SOL    HW1 6313  10.517  10.208   4.903
 1513SOL    HW2 6314  10.602  10.209   5.028
 1514SOL     OW 6315   0.253  12.063   5.951
 1514SOL    HW1 6316   0.245  12.089   5.859
 1514SOL    HW2 6317   0.195  12.123   5.998
 1515SOL     OW 6318   2.265   6.238  14.528
 1515SOL    HW1 6319   2.261   6.215  14.621
 1515SOL    HW2 6320   2.174   6.257  14.504
 1516SOL     OW 6321  13.949   4.107   3.867
 1516SOL    HW1 6322  13.902   4.183   3.834
 1516SOL    HW2 6323  14.035   4.141   3.893
 1517SOL     OW 6324  14.302  14.104   2.124
 1517SOL    HW1 6325  14.217  14.128   2.160
 1517SOL    HW2 6326  14.363  14.118   2.197
 1518SOL     OW 6327   4.702  12.735  13.338
 1518SOL    HW1 6328   4.782  12.707  13.381
 1518SOL    HW2 6329   4.638  12.744  13.408
 1519SOL     OW 6330  12.596  13.760   2.769
 1519SOL    HW1 6331  12.601  13.669   2.798
 1519SOL    HW2 6332  12.676  13.774   2.719
 1520SOL     OW 6333   5.254  12.574   2.839
 1520SOL    HW1 6334   5.195  12.593   2.912
 1520SOL    HW2 6335   5.342  12.588   2.875
 1521SOL     OW 6336   0.793  12.309   1.981
 1521SOL    HW1 6337   0.785  12.378   2.046
 1521SOL    HW2 6338   0.731  12.334   1.912
 1522SOL     OW 6339   0.027   1.302   3.220
 1522SOL    HW1 6340   0.029   1.304   3.125
 1522SOL    HW2 6341   0.007   1.211   3.242
 1523SOL     OW 6342  13.125  10.635   3.629
 1523SOL    HW1 6343  13.163  10.708   3.678
 1523SOL    HW2 6344  13.177  10.559   3.657
 1524SOL     OW 6345   1.582   4.483   3.246
 1524SOL    HW1 6346   1.486   4.485   3.249
 1524SOL    HW2 6347   1.609   4.570   3.275
 1525SOL     OW 6348   9.328  13.126   1.632
 1525SOL    HW1 6349   9.262  13.169   1.578
 1525SOL    HW2 6350   9.282  13.054   1.675
 1526SOL     OW 6351  14.345  13.608   5.349
 1526SOL    HW1 6352  14.341  13.589   5.443
 1526SOL    HW2 6353  14.360  13.523   5.308
 1527SOL     OW 6354  13.499   0.811  11.253
 1527SOL    HW1 6355  13.424   0.836  11.306
 1527SOL    HW2 6356  13.562   0.774  11.315
 1528SOL     OW 6357  14.680   2.244  11.539
 1528SOL    HW1 6358  14.690   2.156  11.574
 1528SOL    HW2 6359  14.729   2.299  11.600
 1529SOL     OW 6360  10.983   8.531   0.403
 1529SOL    HW1 6361  10.973   8.547   0.309
 1529SOL    HW2 6362  10.895   8.507   0.433
 1530SOL     OW 6363  14.841   0.879   2.419
 1530SOL    HW1 6364   0.032   0.936   2.392
 1530SOL    HW2 6365  14.762   0.931   2.405
 1531SOL     OW 6366  13.024   4.372   3.441
 1531SOL    HW1 6367  13.074   4.409   3.368
 1531SOL    HW2 6368  13.077   4.297   3.471
 1532SOL     OW 6369   3.847   9.465   7.898
 1532SOL    HW1 6370   3.762   9.508   7.897
 1532SOL    HW2 6371   3.907   9.532   7.929
 1533SOL     OW 6372   9.136   7.911   3.924
 1533SOL    HW1 6373   9.160   7.859   3.847
 1533SOL    HW2 6374   9.082   7.852   3.977
 1534SOL     OW 6375   2.949   6.329  14.061
 1534SOL    HW1 6376   2.870   6.383  14.059
 1534SOL    HW2 6377   3.016   6.384  14.021
 1535SOL     OW 6378  14.317   0.952   8.881
 1535SOL    HW1 6379  14.379   1.023   8.896
 1535SOL    HW2 6380  14.234   0.986   8.912
 1536SOL     OW 6381   9.523   0.562  11.113
 1536SOL    HW1 6382   9.451   0.625  11.114
 1536SOL    HW2 6383   9.599   0.614  11.087
 1537SOL     OW 6384   8.400   9.845   4.781
 1537SOL    HW1 6385   8.448   9.830   4.863
 1537SOL    HW2 6386   8.405   9.940   4.768
 1538SOL     OW 6387   9.074   7.065  10.024
 1538SOL    HW1 6388   9.073   7.093  10.115
 1538SOL    HW2 6389   8.987   7.085   9.991
 1539SOL     OW 6390   0.251  14.164  10.446
 1539SOL    HW1 6391   0.156  14.154  10.454
 1539SOL    HW2 6392   0.266  14.182  10.353
 1540SOL     OW 6393   5.470  14.082   5.174
 1540SOL    HW1 6394   5.527  14.124   5.110
 1540SOL    HW2 6395   5.404  14.037   5.121
 1541SOL     OW 6396   6.746  10.591   0.553
 1541SOL    HW1 6397   6.728  10.579   0.459
 1541SOL    HW2 6398   6.724  10.507   0.593
 1542SOL     OW 6399  13.715  11.585   6.886
 1542SOL    HW1 6400  13.719  11.681   6.880
 1542SOL    HW2 6401  13.632  11.568   6.931
 1543SOL     OW 6402  12.070   7.430  14.557
 1543SOL    HW1 6403  12.125   7.502  14.527
 1543SOL    HW2 6404  11.980   7.460  14.541
 1544SOL     OW 6405   5.241  12.473   0.351
 1544SOL    HW1 6406   5.204  12.482   0.439
 1544SOL    HW2 6407   5.206  12.548   0.303
 1545SOL     OW 6408  11.118   8.466   5.936
 1545SOL    HW1 6409  11.047   8.401   5.938
 1545SOL    HW2 6410  11.191   8.421   5.894
 1546SOL     OW 6411   8.135  13.282   9.856
 1546SOL    HW1 6412   8.208  13.220   9.851
 1546SOL    HW2 6413   8.058  13.231   9.829
 1547SOL     OW 6414  13.475   6.424   9.909
 1547SOL    HW1 6415  13.499   6.432   9.816
 1547SOL    HW2 6416  13.498   6.509   9.947
 1548SOL     OW 6417   9.506   4.147  10.238
 1548SOL    HW1 6418   9.517   4.090  10.162
 1548SOL    HW2 6419   9.430   4.201  10.217
 1549SOL     OW 6420  12.583  12.667   0.691
 1549SOL    HW1 6421  12.586  12.628   0.778
 1549SOL    HW2 6422  12.584  12.762   0.707
 1550SOL     OW 6423   4.953  14.315   9.171
 1550SOL    HW1 6424   4.995  14.245   9.121
 1550SOL    HW2 6425   4.929  14.380   9.105
 1551SOL     OW 6426   5.449   1.883   3.821
 1551SOL    HW1 6427   5.393   1.959   3.836
 1551SOL    HW2 6428   5.499   1.873   3.903
 1552SOL     OW 6429   5.800  12.285   3.012
 1552SOL    HW1 6430   5.788  12.208   2.955
 1552SOL    HW2 6431   5.711  12.310   3.037
 1553SOL     OW 6432   9.362   1.804   1.008
 1553SOL    HW1 6433   9.345   1.715   0.976
 1553SOL    HW2 6434   9.321   1.861   0.943
 1554SOL     OW 6435   0.358   0.542  11.757
 1554SOL    HW1 6436   0.387   0.592  11.833
 1554SOL    HW2 6437   0.386   0.452  11.775
 1555SOL     OW 6438   7.445  10.056   9.781
 1555SOL    HW1 6439   7.454  10.056   9.876
 1555SOL    HW2 6440   7.524  10.099   9.749
 1556SOL     OW 6441   2.595  13.435   9.451
 1556SOL    HW1 6442   2.507  13.461   9.422
 1556SOL    HW2 6443   2.636  13.400   9.373
 1557SOL     OW 6444   7.527   9.425  12.277
 1557SOL    HW1 6445   7.506   9.474  12.198
 1557SOL    HW2 6446   7.488   9.338  12.263
 1558SOL     OW 6447   8.154  14.225   1.868
 1558SOL    HW1 6448   8.248  14.244   1.867
 1558SOL    HW2 6449   8.136  14.193   1.780
 1559SOL     OW 6450   0.349  11.369   1.325
 1559SOL    HW1 6451   0.363  11.452   1.373
 1559SOL    HW2 6452   0.332  11.396   1.235
 1560SOL     OW 6453  10.409  11.660   2.949
 1560SOL    HW1 6454  10.496  11.697   2.966
 1560SOL    HW2 6455  10.369  11.721   2.887
 1561SOL     OW 6456  12.582  13.795   0.345
 1561SOL    HW1 6457  12.487  13.799   0.347
 1561SOL    HW2 6458  12.603  13.777   0.253
 1562SOL     OW 6459   6.321   8.443  12.018
 1562SOL    HW1 6460   6.386   8.378  11.992
 1562SOL    HW2 6461   6.318   8.505  11.945
 1563SOL     OW 6462   0.914   0.440   8.693
 1563SOL    HW1 6463   1.003   0.476   8.684
 1563SOL    HW2 6464   0.890   0.412   8.605
 1564SOL     OW 6465  10.052   3.018  14.871
 1564SOL    HW1 6466  10.001   2.955  14.819
 1564SOL    HW2 6467  10.011   3.017   0.076
 1565SOL     OW 6468   8.019  11.202   8.522
 1565SOL    HW1 6469   8.021  11.110   8.495
 1565SOL    HW2 6470   8.089  11.243   8.472
 1566SOL     OW 6471   5.932   1.585   9.984
 1566SOL    HW1 6472   5.961   1.619  10.069
 1566SOL    HW2 6473   5.865   1.520  10.007
 1567SOL     OW 6474   6.790   7.673   7.378
 1567SOL    HW1 6475   6.823   7.589   7.346
 1567SOL    HW2 6476   6.702   7.680   7.342
 1568SOL     OW 6477   4.509   4.766   4.826
 1568SOL    HW1 6478   4.505   4.683   4.872
 1568SOL    HW2 6479   4.503   4.832   4.895
 1569SOL     OW 6480   0.091   1.006   8.995
 1569SOL    HW1 6481   0.025   0.939   8.978
 1569SOL    HW2 6482   0.089   1.062   8.917
 1570SOL     OW 6483   1.169  11.178  14.791
 1570SOL    HW1 6484   1.108  11.239  14.748
 1570SOL    HW2 6485   1.167  11.100  14.736
 1571SOL     OW 6486   3.522   4.620   8.493
 1571SOL    HW1 6487   3.490   4.665   8.571
 1571SOL    HW2 6488   3.544   4.532   8.523
 1572SOL     OW 6489  14.628   8.082   2.728
 1572SOL    HW1 6490  14.638   8.166   2.684
 1572SOL    HW2 6491  14.619   8.018   2.657
 1573SOL     OW 6492   4.817  11.893  13.291
 1573SOL    HW1 6493   4.796  11.814  13.340
 1573SOL    HW2 6494   4.739  11.948  13.298
 1574SOL     OW 6495   6.738  10.731   3.416
 1574SOL    HW1 6496   6.689  10.649   3.413
 1574SOL    HW2 6497   6.678  10.793   3.458
 1575SOL     OW 6498  11.546   7.644   7.365
 1575SOL    HW1 6499  11.514   7.621   7.452
 1575SOL    HW2 6500  11.482   7.706   7.331
 1576SOL     OW 6501  12.165  10.483  14.809
 1576SOL    HW1 6502  12.136  10.394  14.789
 1576SOL    HW2 6503  12.137  10.534  14.733
 1577SOL     OW 6504   5.697   3.446   9.454
 1577SOL    HW1 6505   5.687   3.494   9.536
 1577SOL    HW2 6506   5.719   3.514   9.389
 1578SOL     OW 6507   8.793   7.800   1.777
 1578SOL    HW1 6508   8.861   7.771   1.716
 1578SOL    HW2 6509   8.711   7.768   1.739
 1579SOL     OW 6510   1.805  14.467   7.000
 1579SOL    HW1 6511   1.869  14.403   6.969
 1579SOL    HW2 6512   1.828  14.548   6.955
 1580SOL     OW 6513   8.553  12.352   9.188
 1580SOL    HW1 6514   8.494  12.372   9.116
 1580SOL    HW2 6515   8.641  12.360   9.151
 1581SOL     OW 6516   8.105  12.599   5.295
 1581SOL    HW1 6517   8.152  12.682   5.284
 1581SOL    HW2 6518   8.148  12.539   5.234
 1582SOL     OW 6519   0.366   9.412  10.945
 1582SOL    HW1 6520   0.401   9.364  11.020
 1582SOL    HW2 6521   0.414   9.495  10.945
 1583SOL     OW 6522  14.449   9.489   5.692
 1583SOL    HW1 6523  14.431   9.576   5.659
 1583SOL    HW2 6524  14.363   9.448   5.704
 1584SOL     OW 6525   1.633   1.299  11.424
 1584SOL    HW1 6526   1.658   1.384  11.460
 1584SOL    HW2 6527   1.662   1.303  11.332
 1585SOL     OW 6528   4.612  13.432   4.641
 1585SOL    HW1 6529   4.535  13.403   4.691
 1585SOL    HW2 6530   4.687  13.396   4.689
 1586SOL     OW 6531   5.169   9.984   9.943
 1586SOL    HW1 6532   5.154   9.981  10.037
 1586SOL    HW2 6533   5.196   9.896   9.920
 1587SOL     OW 6534   8.561   4.843   9.782
 1587SOL    HW1 6535   8.543   4.930   9.746
 1587SOL    HW2 6536   8.542   4.852   9.876
 1588SOL     OW 6537   0.961   0.377   6.418
 1588SOL    HW1 6538   1.033   0.396   6.357
 1588SOL    HW2 6539   0.919   0.300   6.381
 1589SOL     OW 6540  11.623   1.459   6.509
 1589SOL    HW1 6541  11.569   1.519   6.457
 1589SOL    HW2 6542  11.713   1.481   6.483
 1590SOL     OW 6543   4.797   0.353  14.057
 1590SOL    HW1 6544   4.839   0.367  14.142
 1590SOL    HW2 6545   4.707   0.381  14.070
 1591SOL     OW 6546   5.164   1.625   6.853
 1591SOL    HW1 6547   5.227   1.563   6.816
 1591SOL    HW2 6548   5.081   1.576   6.855
 1592SOL     OW 6549   5.921   7.357   1.472
 1592SOL    HW1 6550   5.827   7.339   1.467
 1592SOL    HW2 6551   5.943   7.347   1.565
 1593SOL     OW 6552  12.069  13.638  11.877
 1593SOL    HW1 6553  12.152  13.620  11.832
 1593SOL    HW2 6554  12.091  13.705  11.942
 1594SOL     OW 6555  11.002   1.919   4.300
 1594SOL    HW1 6556  11.042   2.006   4.298
 1594SOL    HW2 6557  11.071   1.861   4.333
 1595SOL     OW 6558   3.483   0.025   3.547
 1595SOL    HW1 6559   3.540   0.069   3.609
 1595SOL    HW2 6560   3.411   0.086   3.531
 1596SOL     OW 6561   9.107  14.670  12.659
 1596SOL    HW1 6562   9.103  14.595  12.600
 1596SOL    HW2 6563   9.189  14.659  12.707
 1597SOL     OW 6564  10.690  10.912   3.084
 1597SOL    HW1 6565  10.664  10.919   2.992
 1597SOL    HW2 6566  10.608  10.917   3.132
 1598SOL     OW 6567   4.638  13.131  10.489
 1598SOL    HW1 6568   4.728  13.099  10.495
 1598SOL    HW2 6569   4.624  13.146  10.395
 1599SOL     OW 6570  13.507  13.044   2.792
 1599SOL    HW1 6571  13.591  13.011   2.822
 1599SOL    HW2 6572  13.528  13.110   2.727
 1600SOL     OW 6573   2.586  13.152  10.498
 1600SOL    HW1 6574   2.657  13.138  10.435
 1600SOL    HW2 6575   2.539  13.069  10.501
 1601SOL     OW 6576   1.059   2.282   3.656
 1601SOL    HW1 6577   1.035   2.195   3.624
 1601SOL    HW2 6578   1.098   2.325   3.580
 1602SOL     OW 6579   5.331   9.909   4.233
 1602SOL    HW1 6580   5.369   9.832   4.191
 1602SOL    HW2 6581   5.404   9.951   4.278
 1603SOL     OW 6582   8.444   0.215   6.850
 1603SOL    HW1 6583   8.382   0.279   6.883
 1603SOL    HW2 6584   8.390   0.140   6.826
 1604SOL     OW 6585   4.823  14.014   6.828
 1604SOL    HW1 6586   4.830  14.083   6.762
 1604SOL    HW2 6587   4.801  14.059   6.909
 1605SOL     OW 6588   3.877   3.394   1.668
 1605SOL    HW1 6589   3.852   3.483   1.694
 1605SOL    HW2 6590   3.809   3.366   1.607
 1606SOL     OW 6591  13.148   1.743   3.063
 1606SOL    HW1 6592  13.080   1.793   3.108
 1606SOL    HW2 6593  13.141   1.655   3.099
 1607SOL     OW 6594   4.735   2.792  12.064
 1607SOL    HW1 6595   4.648   2.765  12.033
 1607SOL    HW2 6596   4.795   2.765  11.995
 1608SOL     OW 6597   3.400   6.749  13.498
 1608SOL    HW1 6598   3.487   6.775  13.468
 1608SOL    HW2 6599   3.398   6.654  13.486
 1609SOL     OW 6600   6.534   6.241   1.466
 1609SOL    HW1 6601   6.582   6.203   1.540
 1609SOL    HW2 6602   6.448   6.263   1.502
 1610SOL     OW 6603  12.765   7.348   5.288
 1610SOL    HW1 6604  12.859   7.355   5.306
 1610SOL    HW2 6605  12.727   7.319   5.370
 1611SOL     OW 6606   0.957   3.583   1.787
 1611SOL    HW1 6607   0.905   3.567   1.866
 1611SOL    HW2 6608   0.910   3.651   1.740
 1612SOL     OW 6609   5.582  11.959   6.175
 1612SOL    HW1 6610   5.559  11.955   6.082
 1612SOL    HW2 6611   5.633  12.039   6.183
 1613SOL     OW 6612   8.983   2.073  14.557
 1613SOL    HW1 6613   8.964   2.053  14.466
 1613SOL    HW2 6614   8.998   2.168  14.559
 1614SOL     OW 6615   7.225   5.083   3.096
 1614SOL    HW1 6616   7.231   5.177   3.115
 1614SOL    HW2 6617   7.315   5.055   3.081
 1615SOL     OW 6618  13.550   3.157   5.722
 1615SOL    HW1 6619  13.487   3.229   5.718
 1615SOL    HW2 6620  13.505   3.084   5.680
 1616SOL     OW 6621  10.917  10.339  13.230
 1616SOL    HW1 6622  10.996  10.377  13.269
 1616SOL    HW2 6623  10.916  10.370  13.140
 1617SOL     OW 6624   0.326   5.091   2.551
 1617SOL    HW1 6625   0.407   5.118   2.595
 1617SOL    HW2 6626   0.256   5.115   2.612
 1618SOL     OW 6627   8.261   4.141   7.813
 1618SOL    HW1 6628   8.176   4.104   7.833
 1618SOL    HW2 6629   8.262   4.225   7.859
 1619SOL     OW 6630  11.386  13.035  10.125
 1619SOL    HW1 6631  11.299  13.029  10.166
 1619SOL    HW2 6632  11.370  13.019  10.032
 1620SOL     OW 6633   1.505  12.570   7.491
 1620SOL    HW1 6634   1.583  12.520   7.515
 1620SOL    HW2 6635   1.503  12.642   7.554
 1621SOL     OW 6636   5.391  14.049   1.532
 1621SOL    HW1 6637   5.385  14.143   1.513
 1621SOL    HW2 6638   5.443  14.044   1.612
 1622SOL     OW 6639  11.673   2.798  11.804
 1622SOL    HW1 6640  11.748   2.774  11.858
 1622SOL    HW2 6641  11.634   2.714  11.778
 1623SOL     OW 6642   4.058  10.286  12.221
 1623SOL    HW1 6643   4.080  10.379  12.215
 1623SOL    HW2 6644   4.139  10.241  12.196
 1624SOL     OW 6645   9.621   0.167  13.082
 1624SOL    HW1 6646   9.689   0.176  13.015
 1624SOL    HW2 6647   9.666   0.130  13.157
 1625SOL     OW 6648  12.816  11.789   8.763
 1625SOL    HW1 6649  12.724  11.772   8.783
 1625SOL    HW2 6650  12.864  11.719   8.807
 1626SOL     OW 6651   4.858  11.336  14.423
 1626SOL    HW1 6652   4.950  11.353  14.442
 1626SOL    HW2 6653   4.858  11.306  14.332
 1627SOL     OW 6654  13.451   7.692   1.911
 1627SOL    HW1 6655  13.524   7.754   1.910
 1627SOL    HW2 6656  13.402   7.710   1.830
 1628SOL     OW 6657   4.799  10.949   9.907
 1628SOL    HW1 6658   4.778  10.952   9.814
 1628SOL    HW2 6659   4.840  10.864   9.920
 1629SOL     OW 6660  11.303   0.724   1.985
 1629SOL    HW1 6661  11.299   0.684   2.072
 1629SOL    HW2 6662  11.261   0.660   1.927
 1630SOL     OW 6663   0.293   0.692   6.400
 1630SOL    HW1 6664   0.367   0.691   6.341
 1630SOL    HW2 6665   0.320   0.749   6.472
 1631SOL     OW 6666   4.397   3.122   2.800
 1631SOL    HW1 6667   4.386   3.027   2.800
 1631SOL    HW2 6668   4.462   3.139   2.868
 1632SOL     OW 6669  10.963  13.022   6.749
 1632SOL    HW1 6670  11.053  13.015   6.780
 1632SOL    HW2 6671  10.942  12.935   6.716
 1633SOL     OW 6672   9.425   3.804  11.622
 1633SOL    HW1 6673   9.338   3.782  11.588
 1633SOL    HW2 6674   9.455   3.876  11.567
 1634SOL     OW 6675   8.548   7.873  12.837
 1634SOL    HW1 6676   8.619   7.812  12.855
 1634SOL    HW2 6677   8.515   7.897  12.924
 1635SOL     OW 6678   9.888   0.207  11.964
 1635SOL    HW1 6679   9.921   0.240  11.880
 1635SOL    HW2 6680   9.927   0.119  11.972
 1636SOL     OW 6681   4.445   6.849   8.611
 1636SOL    HW1 6682   4.386   6.827   8.683
 1636SOL    HW2 6683   4.520   6.892   8.654
 1637SOL     OW 6684   6.050   4.545   1.237
 1637SOL    HW1 6685   6.031   4.611   1.303
 1637SOL    HW2 6686   6.112   4.486   1.279
 1638SOL     OW 6687   2.033   8.562   0.231
 1638SOL    HW1 6688   1.949   8.564   0.276
 1638SOL    HW2 6689   2.049   8.653   0.205
 1639SOL     OW 6690  14.411   0.329   2.354
 1639SOL    HW1 6691  14.486   0.385   2.335
 1639SOL    HW2 6692  14.404   0.271   2.278
 1640SOL     OW 6693  13.610  13.872   0.276
 1640SOL    HW1 6694  13.644  13.958   0.299
 1640SOL    HW2 6695  13.525  13.867   0.321
 1641SOL     OW 6696   2.651   2.571  13.187
 1641SOL    HW1 6697   2.561   2.593  13.165
 1641SOL    HW2 6698   2.665   2.611  13.272
 1642SOL     OW 6699  14.542   5.635   0.853
 1642SOL    HW1 6700  14.487   5.612   0.928
 1642SOL    HW2 6701  14.572   5.550   0.819
 1643SOL     OW 6702   7.898   1.893   3.546
 1643SOL    HW1 6703   7.923   1.928   3.461
 1643SOL    HW2 6704   7.824   1.946   3.573
 1644SOL     OW 6705  13.326  13.879  13.071
 1644SOL    HW1 6706  13.413  13.843  13.053
 1644SOL    HW2 6707  13.266  13.823  13.023
 1645SOL     OW 6708  10.592  11.177   9.019
 1645SOL    HW1 6709  10.616  11.113   9.086
 1645SOL    HW2 6710  10.675  11.218   8.994
 1646SOL     OW 6711   4.008   3.425   9.325
 1646SOL    HW1 6712   4.054   3.382   9.398
 1646SOL    HW2 6713   3.980   3.509   9.361
 1647SOL     OW 6714   7.145   3.935  11.627
 1647SOL    HW1 6715   7.158   3.862  11.687
 1647SOL    HW2 6716   7.162   4.013  11.681
 1648SOL     OW 6717   6.530  10.253   8.787
 1648SOL    HW1 6718   6.487  10.337   8.804
 1648SOL    HW2 6719   6.599  10.247   8.854
 1649SOL     OW 6720   4.722   6.406   0.588
 1649SOL    HW1 6721   4.655   6.470   0.563
 1649SOL    HW2 6722   4.695   6.377   0.675
 1650SOL     OW 6723   1.846   3.781   3.163
 1650SOL    HW1 6724   1.837   3.860   3.110
 1650SOL    HW2 6725   1.929   3.743   3.135
 1651SOL     OW 6726   9.039   0.818  13.272
 1651SOL    HW1 6727   9.117   0.874  13.277
 1651SOL    HW2 6728   9.047   0.760  13.348
 1652SOL     OW 6729   7.480   7.894  13.025
 1652SOL    HW1 6730   7.398   7.941  13.043
 1652SOL    HW2 6731   7.489   7.897  12.930
 1653SOL     OW 6732   0.138  11.765   1.519
 1653SOL    HW1 6733   0.098  11.714   1.449
 1653SOL    HW2 6734   0.067  11.820   1.553
 1654SOL     OW 6735  11.356   6.735   0.880
 1654SOL    HW1 6736  11.275   6.684   0.879
 1654SOL    HW2 6737  11.328   6.825   0.896
 1655SOL     OW 6738   5.614  14.030  11.467
 1655SOL    HW1 6739   5.667  14.107  11.446
 1655SOL    HW2 6740   5.566  14.055  11.546
 1656SOL     OW 6741  11.148   7.713   5.439
 1656SOL    HW1 6742  11.221   7.723   5.501
 1656SOL    HW2 6743  11.190   7.699   5.354
 1657SOL     OW 6744   2.623  13.040  11.816
 1657SOL    HW1 6745   2.654  12.973  11.878
 1657SOL    HW2 6746   2.587  12.990  11.743
 1658SOL     OW 6747   9.115   1.897  12.593
 1658SOL    HW1 6748   9.130   1.991  12.604
 1658SOL    HW2 6749   9.145   1.858  12.674
 1659SOL     OW 6750   8.509  12.576  11.187
 1659SOL    HW1 6751   8.561  12.649  11.154
 1659SOL    HW2 6752   8.474  12.534  11.108
 1660SOL     OW 6753  10.166  10.674  14.569
 1660SOL    HW1 6754  10.165  10.646  14.661
 1660SOL    HW2 6755  10.193  10.766  14.573
 1661SOL     OW 6756   1.960   2.991  10.944
 1661SOL    HW1 6757   1.926   2.933  10.876
 1661SOL    HW2 6758   2.044   2.952  10.969
 1662SOL     OW 6759   7.418   3.064   9.357
 1662SOL    HW1 6760   7.340   3.110   9.387
 1662SOL    HW2 6761   7.466   3.128   9.305
 1663SOL     OW 6762   8.293   8.123   7.426
 1663SOL    HW1 6763   8.202   8.119   7.454
 1663SOL    HW2 6764   8.324   8.033   7.430
 1664SOL     OW 6765  14.051   7.621   6.419
 1664SOL    HW1 6766  14.093   7.661   6.496
 1664SOL    HW2 6767  13.979   7.570   6.455
 1665SOL     OW 6768   7.930   8.759   2.107
 1665SOL    HW1 6769   8.006   8.702   2.117
 1665SOL    HW2 6770   7.954   8.819   2.036
 1666SOL     OW 6771   5.137  14.379   1.534
 1666SOL    HW1 6772   5.226  14.361   1.506
 1666SOL    HW2 6773   5.137  14.472   1.557
 1667SOL     OW 6774   4.186   9.109   0.832
 1667SOL    HW1 6775   4.112   9.057   0.801
 1667SOL    HW2 6776   4.253   9.045   0.856
 1668SOL     OW 6777   7.977   3.258   8.984
 1668SOL    HW1 6778   8.051   3.316   9.003
 1668SOL    HW2 6779   8.017   3.183   8.939
 1669SOL     OW 6780  12.904   4.904  14.657
 1669SOL    HW1 6781  12.973   4.889  14.592
 1669SOL    HW2 6782  12.945   4.962  14.721
 1670SOL     OW 6783   4.076   4.661   6.338
 1670SOL    HW1 6784   4.041   4.586   6.290
 1670SOL    HW2 6785   4.118   4.624   6.415
 1671SOL     OW 6786  13.120   0.571   1.734
 1671SOL    HW1 6787  13.035   0.581   1.691
 1671SOL    HW2 6788  13.175   0.640   1.697
 1672SOL     OW 6789  14.759   0.857   1.293
 1672SOL    HW1 6790  14.830   0.890   1.238
 1672SOL    HW2 6791  14.802   0.797   1.354
 1673SOL     OW 6792   7.788   3.481  14.590
 1673SOL    HW1 6793   7.784   3.463  14.496
 1673SOL    HW2 6794   7.697   3.480  14.618
 1674SOL     OW 6795  10.103  10.538   5.690
 1674SOL    HW1 6796  10.132  10.626   5.714
 1674SOL    HW2 6797  10.012  10.549   5.662
 1675SOL     OW 6798   5.932   9.680   8.691
 1675SOL    HW1 6799   5.898   9.742   8.626
 1675SOL    HW2 6800   5.891   9.597   8.668
 1676SOL     OW 6801  13.687   8.097   6.050
 1676SOL    HW1 6802  13.596   8.083   6.077
 1676SOL    HW2 6803  13.706   8.023   5.992
 1677SOL     OW 6804  13.460  12.679  13.880
 1677SOL    HW1 6805  13.531  12.742  13.869
 1677SOL    HW2 6806  13.473  12.615  13.811
 1678SOL     OW 6807   2.581  10.251   3.488
 1678SOL    HW1 6808   2.513  10.302   3.444
 1678SOL    HW2 6809   2.662  10.299   3.471
 1679SOL     OW 6810   1.282   9.282   1.600
 1679SOL    HW1 6811   1.210   9.306   1.542
 1679SOL    HW2 6812   1.257   9.197   1.635
 1680SOL     OW 6813   9.271  12.075  13.056
 1680SOL    HW1 6814   9.263  12.103  13.147
 1680SOL    HW2 6815   9.262  11.980  13.060
 1681SOL     OW 6816   4.676   2.563   6.001
 1681SOL    HW1 6817   4.647   2.653   6.014
 1681SOL    HW2 6818   4.645   2.516   6.078
 1682SOL     OW 6819  14.383  12.869   0.833
 1682SOL    HW1 6820  14.300  12.859   0.880
 1682SOL    HW2 6821  14.388  12.962   0.812
 1683SOL     OW 6822  14.754   9.601   9.135
 1683SOL    HW1 6823  14.707   9.589   9.052
 1683SOL    HW2 6824  14.763   9.696   9.143
 1684SOL     OW 6825  10.061  13.728  10.132
 1684SOL    HW1 6826   9.984  13.756  10.182
 1684SOL    HW2 6827  10.135  13.740  10.191
 1685SOL     OW 6828   7.254   4.551   0.399
 1685SOL    HW1 6829   7.194   4.503   0.456
 1685SOL    HW2 6830   7.245   4.642   0.427
 1686SOL     OW 6831   6.704   3.819   8.861
 1686SOL    HW1 6832   6.797   3.842   8.861
 1686SOL    HW2 6833   6.679   3.817   8.953
 1687SOL     OW 6834   1.565   2.099   4.659
 1687SOL    HW1 6835   1.493   2.123   4.718
 1687SOL    HW2 6836   1.584   2.180   4.611
 1688SOL     OW 6837   3.984   5.244   9.435
 1688SOL    HW1 6838   4.010   5.305   9.365
 1688SOL    HW2 6839   3.956   5.165   9.388
 1689SOL     OW 6840   7.236  11.946   0.898
 1689SOL    HW1 6841   7.178  12.003   0.949
 1689SOL    HW2 6842   7.322  11.988   0.904
 1690SOL     OW 6843   5.932  13.080   0.640
 1690SOL    HW1 6844   5.971  13.101   0.555
 1690SOL    HW2 6845   5.931  12.985   0.643
 1691SOL     OW 6846  11.621   1.798  11.626
 1691SOL    HW1 6847  11.685   1.755  11.682
 1691SOL    HW2 6848  11.660   1.883  11.605
 1692SOL     OW 6849   8.131   1.078  13.501
 1692SOL    HW1 6850   8.121   1.173  13.495
 1692SOL    HW2 6851   8.124   1.060  13.595
 1693SOL     OW 6852  14.476   1.261   5.869
 1693SOL    HW1 6853  14.382   1.256   5.886
 1693SOL    HW2 6854  14.500   1.351   5.891
 1694SOL     OW 6855   4.846   1.039   4.053
 1694SOL    HW1 6856   4.790   0.981   4.106
 1694SOL    HW2 6857   4.826   1.127   4.085
 1695SOL     OW 6858   5.374  10.346   0.786
 1695SOL    HW1 6859   5.363  10.415   0.852
 1695SOL    HW2 6860   5.404  10.392   0.708
 1696SOL     OW 6861   1.068   2.499   1.612
 1696SOL    HW1 6862   1.041   2.576   1.662
 1696SOL    HW2 6863   1.118   2.446   1.674
 1697SOL     OW 6864  10.052   5.008  14.117
 1697SOL    HW1 6865   9.988   5.034  14.183
 1697SOL    HW2 6866  10.137   5.024  14.159
 1698SOL     OW 6867   5.112   5.709  13.505
 1698SOL    HW1 6868   5.141   5.776  13.442
 1698SOL    HW2 6869   5.191   5.688  13.556
 1699SOL     OW 6870   2.909  11.370  10.192
 1699SOL    HW1 6871   2.991  11.336  10.156
 1699SOL    HW2 6872   2.842  11.345  10.129
 1700SOL     OW 6873   3.735   5.782   3.380
 1700SOL    HW1 6874   3.696   5.695   3.370
 1700SOL    HW2 6875   3.830   5.765   3.382
 1701SOL     OW 6876   5.350  10.232  13.230
 1701SOL    HW1 6877   5.299  10.294  13.283
 1701SOL    HW2 6878   5.440  10.240  13.264
 1702SOL     OW 6879   9.316   9.962   0.904
 1702SOL    HW1 6880   9.273  10.032   0.854
 1702SOL    HW2 6881   9.316   9.887   0.844
 1703SOL     OW 6882   9.377  12.152   8.555
 1703SOL    HW1 6883   9.416  12.073   8.515
 1703SOL    HW2 6884   9.300  12.119   8.602
 1704SOL     OW 6885   4.422   8.177   1.962
 1704SOL    HW1 6886   4.491   8.116   1.988
 1704SOL    HW2 6887   4.346   8.150   2.014
 1705SOL     OW 6888  12.717  12.260   6.296
 1705SOL    HW1 6889  12.655  12.199   6.256
 1705SOL    HW2 6890  12.793  12.205   6.316
 1706SOL     OW 6891  10.004  10.990  10.454
 1706SOL    HW1 6892  10.074  11.014  10.516
 1706SOL    HW2 6893  10.002  10.894  10.458
 1707SOL     OW 6894   8.847   6.091  11.279
 1707SOL    HW1 6895   8.872   6.177  11.247
 1707SOL    HW2 6896   8.771   6.067  11.226
 1708SOL     OW 6897   5.425   9.900   3.262
 1708SOL    HW1 6898   5.422   9.941   3.175
 1708SOL    HW2 6899   5.518   9.888   3.280
 1709SOL     OW 6900   2.980   2.585   4.911
 1709SOL    HW1 6901   2.991   2.549   4.999
 1709SOL    HW2 6902   2.922   2.523   4.867
 1710SOL     OW 6903  12.713  11.975   1.867
 1710SOL    HW1 6904  12.663  12.047   1.828
 1710SOL    HW2 6905  12.738  11.920   1.792
 1711SOL     OW 6906   1.473   3.615  13.662
 1711SOL    HW1 6907   1.503   3.525  13.669
 1711SOL    HW2 6908   1.554   3.667  13.665
 1712SOL     OW 6909   6.083   3.683   2.976
 1712SOL    HW1 6910   6.134   3.602   2.971
 1712SOL    HW2 6911   5.994   3.657   2.950
 1713SOL     OW 6912  10.273   7.060   8.236
 1713SOL    HW1 6913  10.232   7.123   8.177
 1713SOL    HW2 6914  10.227   6.978   8.220
 1714SOL     OW 6915   4.448  11.167   4.412
 1714SOL    HW1 6916   4.504  11.135   4.341
 1714SOL    HW2 6917   4.412  11.249   4.378
 1715SOL     OW 6918   1.014   2.936   6.782
 1715SOL    HW1 6919   1.066   2.971   6.855
 1715SOL    HW2 6920   1.078   2.926   6.711
 1716SOL     OW 6921   9.839  10.629   0.804
 1716SOL    HW1 6922   9.848  10.698   0.870
 1716SOL    HW2 6923   9.819  10.550   0.854
 1717SOL     OW 6924   9.785  14.817   3.894
 1717SOL    HW1 6925   9.828  14.751   3.840
 1717SOL    HW2 6926   9.830  14.811   3.978
 1718SOL     OW 6927   5.323  14.531  13.767
 1718SOL    HW1 6928   5.374  14.533  13.848
 1718SOL    HW2 6929   5.366  14.594  13.709
 1719SOL     OW 6930   7.059   6.452  11.575
 1719SOL    HW1 6931   7.035   6.371  11.621
 1719SOL    HW2 6932   7.038   6.521  11.637
 1720SOL     OW 6933   2.612   6.150  11.289
 1720SOL    HW1 6934   2.598   6.128  11.197
 1720SOL    HW2 6935   2.565   6.232  11.301
 1721SOL     OW 6936   1.610  14.496   9.458
 1721SOL    HW1 6937   1.578  14.554   9.528
 1721SOL    HW2 6938   1.702  14.481   9.481
 1722SOL     OW 6939   8.362   7.609   3.567
 1722SOL    HW1 6940   8.323   7.658   3.640
 1722SOL    HW2 6941   8.333   7.519   3.580
 1723SOL     OW 6942   5.177  14.868   2.313
 1723SOL    HW1 6943   5.201   0.040   2.238
 1723SOL    HW2 6944   5.140  14.788   2.274
 1724SOL     OW 6945  14.198  10.379   0.920
 1724SOL    HW1 6946  14.253  10.406   0.847
 1724SOL    HW2 6947  14.249  10.399   0.998
 1725SOL     OW 6948   4.974   1.020   7.563
 1725SOL    HW1 6949   4.903   0.957   7.552
 1725SOL    HW2 6950   4.969   1.076   7.486
 1726SOL     OW 6951  11.480   2.136   8.241
 1726SOL    HW1 6952  11.550   2.075   8.217
 1726SOL    HW2 6953  11.488   2.147   8.336
 1727SOL     OW 6954   0.212  12.203   6.614
 1727SOL    HW1 6955   0.142  12.151   6.654
 1727SOL    HW2 6956   0.168  12.282   6.582
 1728SOL     OW 6957   2.686   6.652  10.337
 1728SOL    HW1 6958   2.676   6.557  10.342
 1728SOL    HW2 6959   2.601   6.686  10.364
 1729SOL     OW 6960  10.067   8.877  13.213
 1729SOL    HW1 6961   9.973   8.874  13.195
 1729SOL    HW2 6962  10.085   8.796  13.259
 1730SOL     OW 6963  12.915  10.354   5.845
 1730SOL    HW1 6964  12.848  10.348   5.913
 1730SOL    HW2 6965  12.992  10.390   5.889
 1731SOL     OW 6966   3.242   0.433  12.670
 1731SOL    HW1 6967   3.209   0.426  12.759
 1731SOL    HW2 6968   3.273   0.523  12.663
 1732SOL     OW 6969  10.038  11.440   1.005
 1732SOL    HW1 6970  10.095  11.411   0.934
 1732SOL    HW2 6971   9.998  11.360   1.038
 1733SOL     OW 6972   8.211  12.560   6.831
 1733SOL    HW1 6973   8.210  12.500   6.756
 1733SOL    HW2 6974   8.276  12.523   6.891
 1734SOL     OW 6975   8.025   8.210   6.932
 1734SOL    HW1 6976   8.017   8.177   6.842
 1734SOL    HW2 6977   8.076   8.291   6.922
 1735SOL     OW 6978   7.049   0.731   2.815
 1735SOL    HW1 6979   7.011   0.691   2.737
 1735SOL    HW2 6980   6.983   0.719   2.883
 1736SOL     OW 6981   9.070   6.854   1.510
 1736SOL    HW1 6982   9.074   6.809   1.595
 1736SOL    HW2 6983   9.130   6.928   1.520
 1737SOL     OW 6984   7.070   7.305   7.076
 1737SOL    HW1 6985   7.008   7.232   7.086
 1737SOL    HW2 6986   7.150   7.274   7.117
 1738SOL     OW 6987   4.231   2.200   3.399
 1738SOL    HW1 6988   4.215   2.240   3.485
 1738SOL    HW2 6989   4.300   2.136   3.416
 1739SOL     OW 6990   0.096   2.642   4.608
 1739SOL    HW1 6991   0.043   2.697   4.550
 1739SOL    HW2 6992   0.186   2.667   4.590
 1740SOL     OW 6993   4.881   3.816   9.897
 1740SOL    HW1 6994   4.886   3.911   9.908
 1740SOL    HW2 6995   4.870   3.803   9.803
 1741SOL     OW 6996   3.954   7.097   6.113
 1741SOL    HW1 6997   3.972   7.052   6.196
 1741SOL    HW2 6998   3.881   7.155   6.133
 1742SOL     OW 6999   3.885   3.326   8.540
 1742SOL    HW1 7000   3.850   3.369   8.462
 1742SOL    HW2 7001   3.885   3.233   8.518
 1743SOL     OW 7002  11.065   5.343   0.177
 1743SOL    HW1 7003  11.069   5.272   0.113
 1743SOL    HW2 7004  10.981   5.331   0.222
 1744SOL     OW 7005   2.183   7.697   5.722
 1744SOL    HW1 7006   2.176   7.619   5.777
 1744SOL    HW2 7007   2.277   7.707   5.707
 1745SOL     OW 7008   6.030   7.962   6.270
 1745SOL    HW1 7009   6.049   7.887   6.326
 1745SOL    HW2 7010   6.097   8.026   6.292
 1746SOL     OW 7011  13.448  10.156   2.283
 1746SOL    HW1 7012  13.520  10.112   2.238
 1746SOL    HW2 7013  13.486  10.182   2.367
 1747SOL     OW 7014  11.588   2.627  13.812
 1747SOL    HW1 7015  11.585   2.600  13.904
 1747SOL    HW2 7016  11.509   2.587  13.773
 1748SOL     OW 7017  13.190   2.592   4.928
 1748SOL    HW1 7018  13.269   2.625   4.884
 1748SOL    HW2 7019  13.124   2.659   4.910
 1749SOL     OW 7020   7.503  10.130  13.266
 1749SOL    HW1 7021   7.521  10.198  13.201
 1749SOL    HW2 7022   7.471  10.177  13.342
 1750SOL     OW 7023   6.404   6.358   7.458
 1750SOL    HW1 7024   6.494   6.368   7.425
 1750SOL    HW2 7025   6.376   6.272   7.426
 1751SOL     OW 7026   0.800  11.532   6.788
 1751SOL    HW1 7027   0.797  11.533   6.692
 1751SOL    HW2 7028   0.863  11.601   6.811
 1752SOL     OW 7029  14.678   4.657   1.855
 1752SOL    HW1 7030  14.722   4.576   1.829
 1752SOL    HW2 7031  14.732   4.727   1.818
 1753SOL     OW 7032   0.204   2.464   4.418
 1753SOL    HW1 7033   0.159   2.530   4.365
 1753SOL    HW2 7034   0.296   2.491   4.417
 1754SOL     OW 7035   9.267   7.820   8.469
 1754SOL    HW1 7036   9.207   7.763   8.517
 1754SOL    HW2 7037   9.333   7.761   8.433
 1755SOL     OW 7038   3.980   4.064   2.420
 1755SOL    HW1 7039   4.072   4.088   2.429
 1755SOL    HW2 7040   3.951   4.106   2.339
 1756SOL     OW 7041  14.453   7.835  13.192
 1756SOL    HW1 7042  14.415   7.922  13.180
 1756SOL    HW2 7043  14.548   7.851  13.198
 1757SOL     OW 7044  10.262  10.798   5.071
 1757SOL    HW1 7045  10.210  10.763   4.999
 1757SOL    HW2 7046  10.250  10.893   5.067
 1758SOL     OW 7047   5.247   0.275   1.606
 1758SOL    HW1 7048   5.232   0.183   1.583
 1758SOL    HW2 7049   5.268   0.273   1.700
 1759SOL     OW 7050   6.048  12.867   6.788
 1759SOL    HW1 7051   5.970  12.882   6.734
 1759SOL    HW2 7052   6.014  12.853   6.876
 1760SOL     OW 7053   1.702   5.181   6.956
 1760SOL    HW1 7054   1.753   5.106   6.985
 1760SOL    HW2 7055   1.727   5.194   6.864
 1761SOL     OW 7056   5.272   4.734   3.839
 1761SOL    HW1 7057   5.348   4.767   3.887
 1761SOL    HW2 7058   5.210   4.706   3.907
 1762SOL     OW 7059  10.214   7.889   2.164
 1762SOL    HW1 7060  10.167   7.865   2.244
 1762SOL    HW2 7061  10.275   7.816   2.150
 1763SOL     OW 7062   1.163  12.406   6.118
 1763SOL    HW1 7063   1.187  12.478   6.177
 1763SOL    HW2 7064   1.165  12.328   6.174
 1764SOL     OW 7065   5.506   4.964   8.548
 1764SOL    HW1 7066   5.460   4.882   8.531
 1764SOL    HW2 7067   5.551   4.949   8.631
 1765SOL     OW 7068   9.671  11.510   6.295
 1765SOL    HW1 7069   9.743  11.572   6.281
 1765SOL    HW2 7070   9.603  11.562   6.338
 1766SOL     OW 7071  12.173  11.598   9.350
 1766SOL    HW1 7072  12.201  11.659   9.282
 1766SOL    HW2 7073  12.246  11.595   9.412
 1767SOL     OW 7074  13.791  13.359  12.392
 1767SOL    HW1 7075  13.745  13.282  12.423
 1767SOL    HW2 7076  13.837  13.330  12.313
 1768SOL     OW 7077  12.211   2.729   5.475
 1768SOL    HW1 7078  12.222   2.680   5.393
 1768SOL    HW2 7079  12.137   2.788   5.458
 1769SOL     OW 7080  10.357  14.067   2.260
 1769SOL    HW1 7081  10.338  13.999   2.325
 1769SOL    HW2 7082  10.412  14.023   2.195
 1770SOL     OW 7083  10.404   4.776   8.543
 1770SOL    HW1 7084  10.409   4.868   8.517
 1770SOL    HW2 7085  10.459   4.770   8.621
 1771SOL     OW 7086   3.700  12.274   7.804
 1771SOL    HW1 7087   3.752  12.355   7.804
 1771SOL    HW2 7088   3.670  12.265   7.714
 1772SOL     OW 7089   9.249  14.629   8.214
 1772SOL    HW1 7090   9.193  14.653   8.140
 1772SOL    HW2 7091   9.193  14.639   8.291
 1773SOL     OW 7092   2.435  10.763  14.803
 1773SOL    HW1 7093   2.426  10.837  14.864
 1773SOL    HW2 7094   2.360  10.772  14.744
 1774SOL     OW 7095   5.865   6.280   5.276
 1774SOL    HW1 7096   5.829   6.337   5.344
 1774SOL    HW2 7097   5.860   6.331   5.195
 1775SOL     OW 7098   8.581  13.864   3.804
 1775SOL    HW1 7099   8.670  13.839   3.827
 1775SOL    HW2 7100   8.529  13.784   3.819
 1776SOL     OW 7101   6.610   7.385  12.005
 1776SOL    HW1 7102   6.696   7.381  12.046
 1776SOL    HW2 7103   6.568   7.461  12.045
 1777SOL     OW 7104   6.740  14.134   3.305
 1777SOL    HW1 7105   6.706  14.212   3.262
 1777SOL    HW2 7106   6.663  14.087   3.336
 1778SOL     OW 7107  12.255  14.095   6.129
 1778SOL    HW1 7108  12.257  14.147   6.209
 1778SOL    HW2 7109  12.332  14.038   6.136
 1779SOL     OW 7110   1.142   0.803   8.738
 1779SOL    HW1 7111   1.160   0.763   8.823
 1779SOL    HW2 7112   1.054   0.840   8.747
 1780SOL     OW 7113  10.439   1.662  11.000
 1780SOL    HW1 7114  10.421   1.728  10.933
 1780SOL    HW2 7115  10.533   1.670  11.017
 1781SOL     OW 7116   3.439   3.001  11.998
 1781SOL    HW1 7117   3.473   3.089  12.013
 1781SOL    HW2 7118   3.346   3.008  12.017
 1782SOL     OW 7119   3.560   4.716  10.075
 1782SOL    HW1 7120   3.473   4.679  10.060
 1782SOL    HW2 7121   3.568   4.786  10.010
 1783SOL     OW 7122   7.660  11.381   9.188
 1783SOL    HW1 7123   7.626  11.345   9.106
 1783SOL    HW2 7124   7.602  11.346   9.256
 1784SOL     OW 7125   0.939  14.263   6.017
 1784SOL    HW1 7126   0.933  14.335   6.080
 1784SOL    HW2 7127   1.028  14.229   6.028
 1785SOL     OW 7128   2.986  14.345   4.810
 1785SOL    HW1 7129   3.060  14.315   4.757
 1785SOL    HW2 7130   2.909  14.319   4.760
 1786SOL     OW 7131   3.987  10.397   7.575
 1786SOL    HW1 7132   3.967  10.443   7.657
 1786SOL    HW2 7133   3.903  10.392   7.529
 1787SOL     OW 7134   2.176  10.745   7.964
 1787SOL    HW1 7135   2.093  10.761   8.008
 1787SOL    HW2 7136   2.157  10.675   7.901
 1788SOL     OW 7137  13.184   9.396   2.483
 1788SOL    HW1 7138  13.237   9.317   2.491
 1788SOL    HW2 7139  13.166   9.422   2.573
 1789SOL     OW 7140  14.746   0.393   7.863
 1789SOL    HW1 7141  14.653   0.408   7.875
 1789SOL    HW2 7142  14.767   0.438   7.781
 1790SOL     OW 7143   6.660  14.435   2.737
 1790SOL    HW1 7144   6.564  14.426   2.736
 1790SOL    HW2 7145   6.676  14.520   2.778
 1791SOL     OW 7146  10.768   3.546  12.708
 1791SOL    HW1 7147  10.851   3.499  12.716
 1791SOL    HW2 7148  10.737   3.525  12.620
 1792SOL     OW 7149   4.020   8.419  13.131
 1792SOL    HW1 7150   4.116   8.421  13.128
 1792SOL    HW2 7151   3.998   8.454  13.217
 1793SOL     OW 7152   3.387   0.409   9.946
 1793SOL    HW1 7153   3.359   0.479  10.006
 1793SOL    HW2 7154   3.410   0.336  10.004
 1794SOL     OW 7155   2.797   6.054  14.192
 1794SOL    HW1 7156   2.876   6.003  14.175
 1794SOL    HW2 7157   2.729   5.989  14.210
 1795SOL     OW 7158   1.462  12.910  11.534
 1795SOL    HW1 7159   1.441  12.960  11.614
 1795SOL    HW2 7160   1.412  12.954  11.465
 1796SOL     OW 7161   8.514   4.034   1.992
 1796SOL    HW1 7162   8.564   3.976   2.048
 1796SOL    HW2 7163   8.562   4.034   1.909
 1797SOL     OW 7164   1.952   3.223   3.097
 1797SOL    HW1 7165   1.896   3.145   3.092
 1797SOL    HW2 7166   1.912   3.285   3.036
 1798SOL     OW 7167   3.705   8.875   5.632
 1798SOL    HW1 7168   3.770   8.818   5.591
 1798SOL    HW2 7169   3.729   8.876   5.725
 1799SOL     OW 7170   3.645   8.299  13.683
 1799SOL    HW1 7171   3.740   8.297  13.673
 1799SOL    HW2 7172   3.612   8.319  13.595
 1800SOL     OW 7173   1.506   7.547   3.758
 1800SOL    HW1 7174   1.590   7.577   3.792
 1800SOL    HW2 7175   1.456   7.522   3.836
 1801SOL     OW 7176  13.122   7.926   8.851
 1801SOL    HW1 7177  13.162   7.883   8.775
 1801SOL    HW2 7178  13.029   7.929   8.829
 1802SOL     OW 7179   8.555   2.059   6.437
 1802SOL    HW1 7180   8.476   2.079   6.488
 1802SOL    HW2 7181   8.616   2.022   6.501
 1803SOL     OW 7182   7.934   1.231   8.072
 1803SOL    HW1 7183   7.861   1.170   8.075
 1803SOL    HW2 7184   7.987   1.208   8.149
 1804SOL     OW 7185  11.684   1.289   6.214
 1804SOL    HW1 7186  11.629   1.349   6.265
 1804SOL    HW2 7187  11.767   1.286   6.261
 1805SOL     OW 7188  13.063  11.830  13.960
 1805SOL    HW1 7189  13.121  11.893  14.003
 1805SOL    HW2 7190  12.978  11.874  13.958
 1806SOL     OW 7191   8.869   8.685   5.505
 1806SOL    HW1 7192   8.860   8.773   5.468
 1806SOL    HW2 7193   8.803   8.681   5.574
 1807SOL     OW 7194   0.195  10.942   1.598
 1807SOL    HW1 7195   0.235  10.857   1.613
 1807SOL    HW2 7196   0.252  11.004   1.644
 1808SOL     OW 7197   8.708   9.774  14.010
 1808SOL    HW1 7198   8.722   9.734  13.925
 1808SOL    HW2 7199   8.703   9.868  13.993
 1809SOL     OW 7200  13.592   8.231  10.007
 1809SOL    HW1 7201  13.612   8.141  10.034
 1809SOL    HW2 7202  13.676   8.276  10.009
 1810SOL     OW 7203  12.963   8.026  14.291
 1810SOL    HW1 7204  12.892   8.079  14.255
 1810SOL    HW2 7205  12.958   8.041  14.385
 1811SOL     OW 7206   1.799   5.916   3.647
 1811SOL    HW1 7207   1.838   5.828   3.652
 1811SOL    HW2 7208   1.710   5.901   3.616
 1812SOL     OW 7209   9.411  12.982  13.163
 1812SOL    HW1 7210   9.378  12.895  13.186
 1812SOL    HW2 7211   9.338  13.025  13.119
 1813SOL     OW 7212   1.977   7.210   5.711
 1813SOL    HW1 7213   1.953   7.215   5.618
 1813SOL    HW2 7214   1.972   7.117   5.732
 1814SOL     OW 7215   6.098  12.731   3.174
 1814SOL    HW1 7216   6.140  12.677   3.108
 1814SOL    HW2 7217   6.027  12.676   3.208
 1815SOL     OW 7218  12.256   6.465   8.788
 1815SOL    HW1 7219  12.239   6.405   8.715
 1815SOL    HW2 7220  12.180   6.456   8.846
 1816SOL     OW 7221  11.291  11.520  13.244
 1816SOL    HW1 7222  11.263  11.612  13.240
 1816SOL    HW2 7223  11.210  11.471  13.254
 1817SOL     OW 7224   2.377   8.283  10.343
 1817SOL    HW1 7225   2.289   8.310  10.317
 1817SOL    HW2 7226   2.379   8.299  10.438
 1818SOL     OW 7227  13.855  10.869  12.464
 1818SOL    HW1 7228  13.818  10.938  12.519
 1818SOL    HW2 7229  13.848  10.790  12.518
 1819SOL     OW 7230  13.011   9.353  13.094
 1819SOL    HW1 7231  12.919   9.343  13.068
 1819SOL    HW2 7232  13.007   9.366  13.189
 1820SOL     OW 7233   8.834   8.288  12.880
 1820SOL    HW1 7234   8.923   8.293  12.916
 1820SOL    HW2 7235   8.825   8.197  12.852
 1821SOL     OW 7236  10.028   8.031   9.959
 1821SOL    HW1 7237  10.016   8.073   9.874
 1821SOL    HW2 7238  10.063   8.100  10.015
 1822SOL     OW 7239   7.235  14.807   1.274
 1822SOL    HW1 7240   7.264  14.878   1.217
 1822SOL    HW2 7241   7.147  14.834   1.302
 1823SOL     OW 7242   9.896  10.585   4.071
 1823SOL    HW1 7243   9.812  10.546   4.095
 1823SOL    HW2 7244   9.949  10.578   4.150
 1824SOL     OW 7245   6.620   8.457   2.711
 1824SOL    HW1 7246   6.672   8.432   2.634
 1824SOL    HW2 7247   6.683   8.458   2.783
 1825SOL     OW 7248  13.132   5.721   3.998
 1825SOL    HW1 7249  13.128   5.756   3.909
 1825SOL    HW2 7250  13.047   5.743   4.036
 1826SOL     OW 7251   4.703   1.504   9.052
 1826SOL    HW1 7252   4.669   1.464   9.132
 1826SOL    HW2 7253   4.763   1.438   9.016
 1827SOL     OW 7254   7.777   7.169   6.227
 1827SOL    HW1 7255   7.761   7.079   6.255
 1827SOL    HW2 7256   7.703   7.189   6.170
 1828SOL     OW 7257  13.891   3.455   9.001
 1828SOL    HW1 7258  13.973   3.412   9.027
 1828SOL    HW2 7259  13.888   3.534   9.054
 1829SOL     OW 7260   8.062   8.746  14.227
 1829SOL    HW1 7261   8.070   8.832  14.268
 1829SOL    HW2 7262   7.968   8.731  14.221
 1830SOL     OW 7263   9.340  14.342  12.006
 1830SOL    HW1 7264   9.257  14.389  12.017
 1830SOL    HW2 7265   9.405  14.397  12.049
 1831SOL     OW 7266  14.248   2.141  12.768
 1831SOL    HW1 7267  14.206   2.063  12.806
 1831SOL    HW2 7268  14.311   2.105  12.705
 1832SOL     OW 7269   2.929   1.043   2.040
 1832SOL    HW1 7270   2.882   0.960   2.049
 1832SOL    HW2 7271   2.968   1.057   2.126
 1833SOL     OW 7272   5.431   0.353  11.355
 1833SOL    HW1 7273   5.426   0.448  11.364
 1833SOL    HW2 7274   5.342   0.323  11.375
 1834SOL     OW 7275   8.362   2.071   1.012
 1834SOL    HW1 7276   8.374   2.162   1.040
 1834SOL    HW2 7277   8.451   2.039   0.998
 1835SOL     OW 7278   2.829  13.110  10.361
 1835SOL    HW1 7279   2.861  13.192  10.398
 1835SOL    HW2 7280   2.830  13.125  10.266
 1836SOL     OW 7281   2.253   4.333   8.881
 1836SOL    HW1 7282   2.249   4.413   8.933
 1836SOL    HW2 7283   2.170   4.289   8.899
 1837SOL     OW 7284  12.994  13.006   9.845
 1837SOL    HW1 7285  12.957  13.026   9.760
 1837SOL    HW2 7286  12.941  12.933   9.878
 1838SOL     OW 7287  14.614   3.836   2.059
 1838SOL    HW1 7288  14.600   3.797   1.972
 1838SOL    HW2 7289  14.570   3.776   2.119
 1839SOL     OW 7290  12.381   7.453   4.708
 1839SOL    HW1 7291  12.443   7.419   4.774
 1839SOL    HW2 7292  12.410   7.543   4.692
 1840SOL     OW 7293   0.906   0.305   8.247
 1840SOL    HW1 7294   0.909   0.373   8.314
 1840SOL    HW2 7295   0.914   0.352   8.164
 1841SOL     OW 7296   0.721  11.163   7.049
 1841SOL    HW1 7297   0.799  11.107   7.053
 1841SOL    HW2 7298   0.712  11.199   7.137
 1842SOL     OW 7299   9.763  11.013   9.872
 1842SOL    HW1 7300   9.742  11.086   9.813
 1842SOL    HW2 7301   9.729  10.935   9.828
 1843SOL     OW 7302   1.138  12.133  13.720
 1843SOL    HW1 7303   1.134  12.195  13.648
 1843SOL    HW2 7304   1.231  12.111  13.728
 1844SOL     OW 7305  14.116  13.229   3.037
 1844SOL    HW1 7306  14.089  13.153   3.089
 1844SOL    HW2 7307  14.077  13.215   2.951
 1845SOL     OW 7308   3.105   9.150   7.001
 1845SOL    HW1 7309   3.138   9.197   7.077
 1845SOL    HW2 7310   3.149   9.065   7.005
 1846SOL     OW 7311   4.590  11.117  13.466
 1846SOL    HW1 7312   4.661  11.112  13.402
 1846SOL    HW2 7313   4.521  11.166  13.421
 1847SOL     OW 7314   7.376   6.886   5.416
 1847SOL    HW1 7315   7.383   6.939   5.495
 1847SOL    HW2 7316   7.320   6.937   5.358
 1848SOL     OW 7317   4.804  10.419   1.425
 1848SOL    HW1 7318   4.837  10.499   1.465
 1848SOL    HW2 7319   4.882  10.374   1.393
 1849SOL     OW 7320   4.662  12.370   8.186
 1849SOL    HW1 7321   4.666  12.338   8.276
 1849SOL    HW2 7322   4.742  12.339   8.145
 1850SOL     OW 7323  13.188  13.922   4.635
 1850SOL    HW1 7324  13.207  14.004   4.681
 1850SOL    HW2 7325  13.220  13.937   4.546
 1851SOL     OW 7326  10.489   4.096  11.595
 1851SOL    HW1 7327  10.453   4.040  11.664
 1851SOL    HW2 7328  10.469   4.050  11.514
 1852SOL     OW 7329  13.684  11.358   3.902
 1852SOL    HW1 7330  13.725  11.424   3.847
 1852SOL    HW2 7331  13.738  11.353   3.980
 1853SOL     OW 7332   5.031   2.197  14.829
 1853SOL    HW1 7333   5.013   2.138  14.756
 1853SOL    HW2 7334   4.963   2.178   0.012
 1854SOL     OW 7335   8.738   1.416  13.291
 1854SOL    HW1 7336   8.755   1.326  13.318
 1854SOL    HW2 7337   8.648   1.433  13.319
 1855SOL     OW 7338   2.901   6.661   2.231
 1855SOL    HW1 7339   2.889   6.572   2.200
 1855SOL    HW2 7340   2.850   6.715   2.171
 1856SOL     OW 7341   0.020  14.174  14.735
 1856SOL    HW1 7342  14.833  14.240  14.733
 1856SOL    HW2 7343   0.031  14.147  14.644
 1857SOL     OW 7344  10.783   6.769  13.619
 1857SOL    HW1 7345  10.846   6.785  13.549
 1857SOL    HW2 7346  10.776   6.674  13.623
 1858SOL     OW 7347  14.738  10.750  10.228
 1858SOL    HW1 7348  14.674  10.733  10.158
 1858SOL    HW2 7349  14.685  10.759  10.307
 1859SOL     OW 7350  13.542  14.106   4.099
 1859SOL    HW1 7351  13.590  14.188   4.106
 1859SOL    HW2 7352  13.492  14.100   4.180
 1860SOL     OW 7353   6.318   6.197  13.829
 1860SOL    HW1 7354   6.280   6.120  13.870
 1860SOL    HW2 7355   6.247   6.234  13.776
 1861SOL     OW 7356  12.411   9.960   2.250
 1861SOL    HW1 7357  12.482   9.897   2.239
 1861SOL    HW2 7358  12.378   9.977   2.162
 1862SOL     OW 7359  12.148  12.006   9.058
 1862SOL    HW1 7360  12.175  12.066   8.987
 1862SOL    HW2 7361  12.054  12.021   9.068
 1863SOL     OW 7362  12.341   8.737   3.195
 1863SOL    HW1 7363  12.247   8.743   3.213
 1863SOL    HW2 7364  12.372   8.664   3.249
 1864SOL     OW 7365  11.758  10.650   9.212
 1864SOL    HW1 7366  11.676  10.603   9.226
 1864SOL    HW2 7367  11.791  10.667   9.301
 1865SOL     OW 7368   4.357   0.129   7.693
 1865SOL    HW1 7369   4.419   0.136   7.766
 1865SOL    HW2 7370   4.276   0.097   7.734
 1866SOL     OW 7371   3.829   2.522   0.782
 1866SOL    HW1 7372   3.868   2.477   0.707
 1866SOL    HW2 7373   3.810   2.453   0.845
 1867SOL     OW 7374   8.033   0.607  13.069
 1867SOL    HW1 7375   7.999   0.579  12.984
 1867SOL    HW2 7376   7.983   0.558  13.133
 1868SOL     OW 7377   8.631   9.984  12.556
 1868SOL    HW1 7378   8.668  10.016  12.474
 1868SOL    HW2 7379   8.590   9.901  12.534
 1869SOL     OW 7380   9.194   9.741   7.700
 1869SOL    HW1 7381   9.172   9.726   7.608
 1869SOL    HW2 7382   9.276   9.791   7.697
 1870SOL     OW 7383   4.564   6.487  12.451
 1870SOL    HW1 7384   4.598   6.477  12.540
 1870SOL    HW2 7385   4.470   6.503  12.463
 1871SOL     OW 7386  14.664  13.444  14.375
 1871SOL    HW1 7387  14.673  13.512  14.442
 1871SOL    HW2 7388  14.573  13.453  14.344
 1872SOL     OW 7389   8.013   6.045  10.234
 1872SOL    HW1 7390   8.004   6.132  10.195
 1872SOL    HW2 7391   8.107   6.033  10.243
 1873SOL     OW 7392   9.402   0.731  12.029
 1873SOL    HW1 7393   9.411   0.753  12.121
 1873SOL    HW2 7394   9.465   0.788  11.984
 1874SOL     OW 7395   1.474  13.422   6.189
 1874SOL    HW1 7396   1.462  13.482   6.262
 1874SOL    HW2 7397   1.434  13.340   6.219
 1875SOL     OW 7398   4.015   4.477   6.570
 1875SOL    HW1 7399   3.923   4.498   6.588
 1875SOL    HW2 7400   4.012   4.415   6.497
 1876SOL     OW 7401   3.984  11.704   7.325
 1876SOL    HW1 7402   3.907  11.735   7.372
 1876SOL    HW2 7403   3.982  11.609   7.335
 1877SOL     OW 7404   6.780   7.462   4.605
 1877SOL    HW1 7405   6.847   7.530   4.615
 1877SOL    HW2 7406   6.823   7.381   4.634
 1878SOL     OW 7407   9.148   6.213   1.618
 1878SOL    HW1 7408   9.126   6.303   1.639
 1878SOL    HW2 7409   9.225   6.219   1.562
 1879SOL     OW 7410   0.017   9.501   2.791
 1879SOL    HW1 7411  14.859   9.514   2.877
 1879SOL    HW2 7412   0.096   9.554   2.792
 1880SOL     OW 7413   1.856   0.103  13.260
 1880SOL    HW1 7414   1.844   0.085  13.353
 1880SOL    HW2 7415   1.776   0.147  13.233
 1881SOL     OW 7416   7.596   5.457  11.574
 1881SOL    HW1 7417   7.659   5.445  11.503
 1881SOL    HW2 7418   7.551   5.539  11.553
 1882SOL     OW 7419   3.826   8.669  11.334
 1882SOL    HW1 7420   3.848   8.731  11.403
 1882SOL    HW2 7421   3.893   8.600  11.341
 1883SOL     OW 7422   4.453   7.765   2.660
 1883SOL    HW1 7423   4.452   7.856   2.690
 1883SOL    HW2 7424   4.450   7.713   2.740
 1884SOL     OW 7425  13.319   4.631   0.425
 1884SOL    HW1 7426  13.292   4.722   0.439
 1884SOL    HW2 7427  13.411   4.628   0.451
 1885SOL     OW 7428   1.893  12.074   3.896
 1885SOL    HW1 7429   1.914  12.033   3.980
 1885SOL    HW2 7430   1.894  12.001   3.833
 1886SOL     OW 7431  10.699   0.598   7.155
 1886SOL    HW1 7432  10.628   0.637   7.104
 1886SOL    HW2 7433  10.779   0.631   7.113
 1887SOL     OW 7434   4.734   1.587   6.662
 1887SOL    HW1 7435   4.752   1.585   6.568
 1887SOL    HW2 7436   4.784   1.514   6.698
 1888SOL     OW 7437   6.987   0.284   9.301
 1888SOL    HW1 7438   6.891   0.273   9.304
 1888SOL    HW2 7439   7.006   0.296   9.208
 1889SOL     OW 7440   6.522  12.278   7.930
 1889SOL    HW1 7441   6.478  12.212   7.877
 1889SOL    HW2 7442   6.451  12.335   7.961
 1890SOL     OW 7443   4.248   8.789  10.216
 1890SOL    HW1 7444   4.258   8.736  10.295
 1890SOL    HW2 7445   4.336   8.819  10.196
 1891SOL     OW 7446  10.446   2.587  12.642
 1891SOL    HW1 7447  10.394   2.584  12.562
 1891SOL    HW2 7448  10.508   2.514  12.633
 1892SOL     OW 7449   6.835  12.103   2.889
 1892SOL    HW1 7450   6.816  12.121   2.982
 1892SOL    HW2 7451   6.826  12.008   2.881
 1893SOL     OW 7452  13.300   4.602  13.036
 1893SOL    HW1 7453  13.223   4.546  13.037
 1893SOL    HW2 7454  13.322   4.612  12.944
 1894SOL     OW 7455   0.652  11.831   1.945
 1894SOL    HW1 7456   0.574  11.886   1.946
 1894SOL    HW2 7457   0.725  11.893   1.954
 1895SOL     OW 7458   4.880  10.550   0.786
 1895SOL    HW1 7459   4.832  10.489   0.842
 1895SOL    HW2 7460   4.920  10.494   0.719
 1896SOL     OW 7461   1.995   5.827   2.419
 1896SOL    HW1 7462   2.045   5.781   2.351
 1896SOL    HW2 7463   2.053   5.826   2.496
 1897SOL     OW 7464   4.444   7.378   5.917
 1897SOL    HW1 7465   4.396   7.296   5.909
 1897SOL    HW2 7466   4.501   7.380   5.840
 1898SOL     OW 7467   3.380   1.444   1.249
 1898SOL    HW1 7468   3.339   1.372   1.200
 1898SOL    HW2 7469   3.382   1.413   1.339
 1899SOL     OW 7470  11.572   9.299   6.550
 1899SOL    HW1 7471  11.583   9.225   6.609
 1899SOL    HW2 7472  11.527   9.263   6.474
 1900SOL     OW 7473   2.288   5.023   7.312
 1900SOL    HW1 7474   2.214   5.020   7.252
 1900SOL    HW2 7475   2.295   5.116   7.336
 1901SOL     OW 7476  10.379   2.150  11.048
 1901SOL    HW1 7477  10.359   2.223  10.989
 1901SOL    HW2 7478  10.429   2.190  11.119
 1902SOL     OW 7479   5.898   8.333   5.847
 1902SOL    HW1 7480   5.913   8.426   5.834
 1902SOL    HW2 7481   5.965   8.306   5.910
 1903SOL     OW 7482   6.163   0.400  13.457
 1903SOL    HW1 7483   6.207   0.483  13.440
 1903SOL    HW2 7484   6.219   0.335  13.414
 1904SOL     OW 7485  11.148   5.242  10.138
 1904SOL    HW1 7486  11.056   5.249  10.165
 1904SOL    HW2 7487  11.197   5.286  10.207
 1905SOL     OW 7488   5.187   3.558   2.148
 1905SOL    HW1 7489   5.178   3.645   2.109
 1905SOL    HW2 7490   5.252   3.569   2.217
 1906SOL     OW 7491  13.989   2.621   0.889
 1906SOL    HW1 7492  14.025   2.700   0.930
 1906SOL    HW2 7493  14.052   2.600   0.820
 1907SOL     OW 7494  10.158   1.772  13.619
 1907SOL    HW1 7495  10.063   1.762  13.616
 1907SOL    HW2 7496  10.178   1.788  13.711
 1908SOL     OW 7497   3.462  10.047   6.029
 1908SOL    HW1 7498   3.367  10.052   6.038
 1908SOL    HW2 7499   3.489   9.982   6.094
 1909SOL     OW 7500  12.970   5.714   6.724
 1909SOL    HW1 7501  12.882   5.682   6.704
 1909SOL    HW2 7502  13.006   5.741   6.640
 1910SOL     OW 7503   0.455   6.964   5.267
 1910SOL    HW1 7504   0.470   6.914   5.187
 1910SOL    HW2 7505   0.495   7.050   5.250
 1911SOL     OW 7506   6.787  12.946  12.171
 1911SOL    HW1 7507   6.843  12.992  12.233
 1911SOL    HW2 7508   6.756  13.015  12.112
 1912SOL     OW 7509   1.404   4.503   2.737
 1912SOL    HW1 7510   1.374   4.585   2.697
 1912SOL    HW2 7511   1.334   4.441   2.721
 1913SOL     OW 7512   5.269   7.619  11.221
 1913SOL    HW1 7513   5.296   7.691  11.163
 1913SOL    HW2 7514   5.235   7.663  11.299
 1914SOL     OW 7515   8.305  10.790   0.863
 1914SOL    HW1 7516   8.225  10.751   0.827
 1914SOL    HW2 7517   8.365  10.795   0.788
 1915SOL     OW 7518   7.256  11.293   0.080
 1915SOL    HW1 7519   7.302  11.283  14.878
 1915SOL    HW2 7520   7.321  11.269   0.146
 1916SOL     OW 7521   4.952  14.774   8.808
 1916SOL    HW1 7522   4.899  14.782   8.728
 1916SOL    HW2 7523   5.040  14.796   8.780
 1917SOL     OW 7524  12.441  10.378  14.030
 1917SOL    HW1 7525  12.489  10.327  13.964
 1917SOL    HW2 7526  12.509  10.429  14.075
 1918SOL     OW 7527  12.165   7.098  10.118
 1918SOL    HW1 7528  12.230   7.117  10.050
 1918SOL    HW2 7529  12.206   7.129  10.199
 1919SOL     OW 7530   9.115  13.746  13.751
 1919SOL    HW1 7531   9.044  13.723  13.811
 1919SOL    HW2 7532   9.112  13.679  13.683
 1920SOL     OW 7533   1.175  11.305   2.376
 1920SOL    HW1 7534   1.085  11.274   2.378
 1920SOL    HW2 7535   1.223  11.239   2.327
 1921SOL     OW 7536   8.920   7.115   5.635
 1921SOL    HW1 7537   8.879   7.201   5.620
 1921SOL    HW2 7538   8.850   7.062   5.672
 1922SOL     OW 7539   3.947  12.870   6.862
 1922SOL    HW1 7540   3.954  12.783   6.901
 1922SOL    HW2 7541   4.036  12.889   6.831
 1923SOL     OW 7542   5.457   9.140   8.672
 1923SOL    HW1 7543   5.493   9.226   8.693
 1923SOL    HW2 7544   5.534   9.086   8.650
 1924SOL     OW 7545   3.846  12.784  14.320
 1924SOL    HW1 7546   3.860  12.783  14.226
 1924SOL    HW2 7547   3.926  12.824  14.356
 1925SOL     OW 7548   4.775  10.221   5.302
 1925SOL    HW1 7549   4.765  10.127   5.290
 1925SOL    HW2 7550   4.858  10.232   5.349
 1926SOL     OW 7551   1.900   2.445   1.996
 1926SOL    HW1 7552   1.835   2.496   2.045
 1926SOL    HW2 7553   1.881   2.354   2.019
 1927SOL     OW 7554   4.037   9.348   8.596
 1927SOL    HW1 7555   3.942   9.359   8.602
 1927SOL    HW2 7556   4.073   9.413   8.656
 1928SOL     OW 7557  12.896  14.641   5.514
 1928SOL    HW1 7558  12.847  14.649   5.433
 1928SOL    HW2 7559  12.834  14.603   5.576
 1929SOL     OW 7560   0.582   7.575   6.097
 1929SOL    HW1 7561   0.601   7.669   6.096
 1929SOL    HW2 7562   0.529   7.561   6.018
 1930SOL     OW 7563  13.001   6.616  12.267
 1930SOL    HW1 7564  13.031   6.538  12.315
 1930SOL    HW2 7565  13.000   6.589  12.175
 1931SOL     OW 7566   3.119   3.215  13.168
 1931SOL    HW1 7567   3.182   3.190  13.100
 1931SOL    HW2 7568   3.168   3.274  13.225
 1932SOL     OW 7569   8.921   4.505  11.706
 1932SOL    HW1 7570   8.980   4.561  11.756
 1932SOL    HW2 7571   8.939   4.417  11.737
 1933SOL     OW 7572  11.998  14.401  11.016
 1933SOL    HW1 7573  12.013  14.490  10.985
 1933SOL    HW2 7574  12.011  14.405  11.110
 1934SOL     OW 7575   4.506  14.803  12.422
 1934SOL    HW1 7576   4.536  14.713  12.413
 1934SOL    HW2 7577   4.507  14.819  12.517
 1935SOL     OW 7578   7.714  12.725   4.706
 1935SOL    HW1 7579   7.741  12.803   4.659
 1935SOL    HW2 7580   7.794  12.691   4.746
 1936SOL     OW 7581   5.031   9.076   8.184
 1936SOL    HW1 7582   5.125   9.078   8.166
 1936SOL    HW2 7583   4.992   9.049   8.101
 1937SOL     OW 7584   9.427   3.357  13.372
 1937SOL    HW1 7585   9.416   3.434  13.316
 1937SOL    HW2 7586   9.338   3.325  13.387
 1938SOL     OW 7587   5.185   6.891  10.873
 1938SOL    HW1 7588   5.205   6.848  10.956
 1938SOL    HW2 7589   5.168   6.819  10.812
 1939SOL     OW 7590  10.831   9.319  14.643
 1939SOL    HW1 7591  10.841   9.413  14.627
 1939SOL    HW2 7592  10.738   9.301  14.627
 1940SOL     OW 7593   9.854   2.493   9.135
 1940SOL    HW1 7594   9.905   2.496   9.216
 1940SOL    HW2 7595   9.919   2.487   9.065
 1941SOL     OW 7596   8.258   0.607   8.253
 1941SOL    HW1 7597   8.274   0.668   8.180
 1941SOL    HW2 7598   8.252   0.521   8.212
 1942SOL     OW 7599   6.491  11.618   2.038
 1942SOL    HW1 7600   6.467  11.534   2.077
 1942SOL    HW2 7601   6.459  11.683   2.101
 1943SOL     OW 7602  13.289   6.682  11.223
 1943SOL    HW1 7603  13.242   6.725  11.153
 1943SOL    HW2 7604  13.230   6.686  11.299
 1944SOL     OW 7605   4.748   4.325   1.263
 1944SOL    HW1 7606   4.727   4.238   1.298
 1944SOL    HW2 7607   4.702   4.329   1.179
 1945SOL     OW 7608   6.270  13.574   2.745
 1945SOL    HW1 7609   6.248  13.536   2.830
 1945SOL    HW2 7610   6.329  13.647   2.766
 1946SOL     OW 7611   2.999  13.842   3.241
 1946SOL    HW1 7612   3.011  13.751   3.214
 1946SOL    HW2 7613   2.957  13.837   3.327
 1947SOL     OW 7614   0.090   8.723  10.121
 1947SOL    HW1 7615   0.119   8.812  10.139
 1947SOL    HW2 7616   0.067   8.723  10.028
 1948SOL     OW 7617   4.418  10.663  11.016
 1948SOL    HW1 7618   4.411  10.746  11.063
 1948SOL    HW2 7619   4.506  10.632  11.035
 1949SOL     OW 7620   1.154  13.309   0.643
 1949SOL    HW1 7621   1.234  13.272   0.679
 1949SOL    HW2 7622   1.111  13.349   0.719
 1950SOL     OW 7623   3.586  13.441   0.610
 1950SOL    HW1 7624   3.534  13.449   0.531
 1950SOL    HW2 7625   3.638  13.522   0.614
 1951SOL     OW 7626  14.673   1.232   2.527
 1951SOL    HW1 7627  14.593   1.190   2.558
 1951SOL    HW2 7628  14.643   1.299   2.466
 1952SOL     OW 7629   1.677   8.544  11.522
 1952SOL    HW1 7630   1.748   8.606  11.504
 1952SOL    HW2 7631   1.667   8.495  11.440
 1953SOL     OW 7632   4.881  12.211  11.403
 1953SOL    HW1 7633   4.961  12.160  11.393
 1953SOL    HW2 7634   4.906  12.284  11.461
 1954SOL     OW 7635   1.261  13.796   5.376
 1954SOL    HW1 7636   1.329  13.817   5.440
 1954SOL    HW2 7637   1.284  13.847   5.298
 1955SOL     OW 7638   1.877  14.482  13.399
 1955SOL    HW1 7639   1.924  14.433  13.331
 1955SOL    HW2 7640   1.831  14.551  13.351
 1956SOL     OW 7641   2.710   8.708   6.702
 1956SOL    HW1 7642   2.743   8.794   6.675
 1956SOL    HW2 7643   2.772   8.679   6.769
 1957SOL     OW 7644   1.838   9.224   6.773
 1957SOL    HW1 7645   1.837   9.296   6.711
 1957SOL    HW2 7646   1.837   9.145   6.719
 1958SOL     OW 7647   2.415   1.855   6.361
 1958SOL    HW1 7648   2.345   1.913   6.331
 1958SOL    HW2 7649   2.374   1.769   6.367
 1959SOL     OW 7650   8.548   3.109   7.705
 1959SOL    HW1 7651   8.471   3.157   7.734
 1959SOL    HW2 7652   8.547   3.117   7.610
 1960SOL     OW 7653   5.190   6.309   4.696
 1960SOL    HW1 7654   5.254   6.379   4.708
 1960SOL    HW2 7655   5.116   6.334   4.752
 1961SOL     OW 7656   0.279   2.041  12.864
 1961SOL    HW1 7657   0.320   2.127  12.858
 1961SOL    HW2 7658   0.352   1.980  12.877
 1962SOL     OW 7659   1.996   0.616   5.995
 1962SOL    HW1 7660   1.941   0.669   6.053
 1962SOL    HW2 7661   1.952   0.532   5.989
 1963SOL     OW 7662   2.876   8.266   3.775
 1963SOL    HW1 7663   2.922   8.336   3.727
 1963SOL    HW2 7664   2.859   8.303   3.861
 1964SOL     OW 7665   3.686  12.077   5.286
 1964SOL    HW1 7666   3.751  12.044   5.224
 1964SOL    HW2 7667   3.724  12.157   5.321
 1965SOL     OW 7668   7.532   7.997   0.196
 1965SOL    HW1 7669   7.487   7.914   0.207
 1965SOL    HW2 7670   7.617   7.985   0.238
 1966SOL     OW 7671   4.761  11.861   3.796
 1966SOL    HW1 7672   4.699  11.909   3.741
 1966SOL    HW2 7673   4.719  11.777   3.813
 1967SOL     OW 7674  11.516   7.461   1.389
 1967SOL    HW1 7675  11.449   7.407   1.348
 1967SOL    HW2 7676  11.513   7.544   1.342
 1968SOL     OW 7677  13.137  10.711   0.473
 1968SOL    HW1 7678  13.066  10.700   0.536
 1968SOL    HW2 7679  13.145  10.805   0.461
 1969SOL     OW 7680   7.442   6.451  14.310
 1969SOL    HW1 7681   7.401   6.527  14.269
 1969SOL    HW2 7682   7.536   6.468  14.303
 1970SOL     OW 7683   6.618   3.005   7.443
 1970SOL    HW1 7684   6.704   2.984   7.477
 1970SOL    HW2 7685   6.622   2.981   7.350
 1971SOL     OW 7686   5.420  11.899   1.982
 1971SOL    HW1 7687   5.389  11.845   1.909
 1971SOL    HW2 7688   5.411  11.989   1.951
 1972SOL     OW 7689   1.474  12.181   3.397
 1972SOL    HW1 7690   1.517  12.162   3.480
 1972SOL    HW2 7691   1.399  12.121   3.394
 1973SOL     OW 7692   4.316   0.687  10.937
 1973SOL    HW1 7693   4.405   0.697  10.904
 1973SOL    HW2 7694   4.275   0.771  10.921
 1974SOL     OW 7695  12.723   7.292   7.996
 1974SOL    HW1 7696  12.763   7.367   7.951
 1974SOL    HW2 7697  12.635   7.321   8.017
 1975SOL     OW 7698   6.774   8.324   1.609
 1975SOL    HW1 7699   6.742   8.278   1.532
 1975SOL    HW2 7700   6.698   8.369   1.645
 1976SOL     OW 7701   6.613   8.550  12.182
 1976SOL    HW1 7702   6.604   8.645  12.167
 1976SOL    HW2 7703   6.688   8.524  12.129
 1977SOL     OW 7704   0.373  14.752   1.828
 1977SOL    HW1 7705   0.341  14.664   1.808
 1977SOL    HW2 7706   0.300  14.795   1.872
 1978SOL     OW 7707  10.093   4.772  13.620
 1978SOL    HW1 7708  10.166   4.834  13.608
 1978SOL    HW2 7709  10.027   4.823  13.666
 1979SOL     OW 7710   8.440   3.695   7.986
 1979SOL    HW1 7711   8.389   3.774   8.004
 1979SOL    HW2 7712   8.530   3.726   7.980
 1980SOL     OW 7713   4.813   9.683   3.440
 1980SOL    HW1 7714   4.755   9.655   3.368
 1980SOL    HW2 7715   4.859   9.760   3.405
 1981SOL     OW 7716  14.877   5.123   5.170
 1981SOL    HW1 7717   0.088   5.137   5.151
 1981SOL    HW2 7718  14.876   5.070   5.250
 1982SOL     OW 7719   1.320  10.166  13.130
 1982SOL    HW1 7720   1.394  10.146  13.187
 1982SOL    HW2 7721   1.349  10.243  13.080
 1983SOL     OW 7722   5.602   3.284   6.431
 1983SOL    HW1 7723   5.677   3.339   6.454
 1983SOL    HW2 7724   5.554   3.274   6.514
 1984SOL     OW 7725   2.223  13.346   6.165
 1984SOL    HW1 7726   2.296  13.407   6.157
 1984SOL    HW2 7727   2.147  13.394   6.132
 1985SOL     OW 7728   5.351   6.923   0.847
 1985SOL    HW1 7729   5.413   6.979   0.893
 1985SOL    HW2 7730   5.399   6.890   0.772
 1986SOL     OW 7731  12.875  11.622   0.819
 1986SOL    HW1 7732  12.909  11.706   0.849
 1986SOL    HW2 7733  12.813  11.645   0.749
 1987SOL     OW 7734   0.843  14.015   7.679
 1987SOL    HW1 7735   0.787  14.092   7.689
 1987SOL    HW2 7736   0.913  14.043   7.621
 1988SOL     OW 7737   5.586  12.709  12.707
 1988SOL    HW1 7738   5.638  12.630  12.694
 1988SOL    HW2 7739   5.637  12.762  12.768
 1989SOL     OW 7740  14.749  12.423   2.338
 1989SOL    HW1 7741  14.791  12.458   2.260
 1989SOL    HW2 7742  14.820  12.418   2.403
 1990SOL     OW 7743   9.862   0.982   6.641
 1990SOL    HW1 7744   9.823   0.921   6.705
 1990SOL    HW2 7745   9.795   1.049   6.630
 1991SOL     OW 7746   4.323   4.977  14.302
 1991SOL    HW1 7747   4.395   4.946  14.246
 1991SOL    HW2 7748   4.345   5.068  14.320
 1992SOL     OW 7749  10.978   1.388   4.747
 1992SOL    HW1 7750  10.964   1.352   4.659
 1992SOL    HW2 7751  10.895   1.427   4.771
 1993SOL     OW 7752   7.369   3.878  12.469
 1993SOL    HW1 7753   7.440   3.849  12.527
 1993SOL    HW2 7754   7.301   3.812  12.479
 1994SOL     OW 7755   0.185   6.226  10.793
 1994SOL    HW1 7756   0.228   6.305  10.824
 1994SOL    HW2 7757   0.126   6.202  10.865
 1995SOL     OW 7758   1.256  13.345  12.176
 1995SOL    HW1 7759   1.300  13.429  12.186
 1995SOL    HW2 7760   1.250  13.333  12.081
 1996SOL     OW 7761  10.161  10.698   9.544
 1996SOL    HW1 7762  10.192  10.625   9.598
 1996SOL    HW2 7763  10.122  10.759   9.606
 1997SOL     OW 7764   3.997  12.943   6.352
 1997SOL    HW1 7765   3.954  13.028   6.353
 1997SOL    HW2 7766   3.965  12.899   6.432
 1998SOL     OW 7767  14.787   9.796   6.025
 1998SOL    HW1 7768  14.750   9.729   6.082
 1998SOL    HW2 7769  14.762   9.769   5.937
 1999SOL     OW 7770   6.843  11.801   2.184
 1999SOL    HW1 7771   6.836  11.706   2.187
 1999SOL    HW2 7772   6.918  11.818   2.128
 2000SOL     OW 7773   1.233   7.639   8.474
 2000SOL    HW1 7774   1.259   7.608   8.560
 2000SOL    HW2 7775   1.286   7.588   8.413
 2001SOL     OW 7776   1.902   9.064   4.313
 2001SOL    HW1 7777   1.816   9.105   4.306
 2001SOL    HW2 7778   1.943   9.079   4.227
 2002SOL     OW 7779   9.587  13.330   8.287
 2002SOL    HW1 7780   9.646  13.254   8.296
 2002SOL    HW2 7781   9.512  13.308   8.342
 2003SOL     OW 7782  11.179  12.711   6.979
 2003SOL    HW1 7783  11.196  12.707   7.073
 2003SOL    HW2 7784  11.086  12.692   6.970
 2004SOL     OW 7785   2.442   5.125  10.721
 2004SOL    HW1 7786   2.442   5.091  10.631
 2004SOL    HW2 7787   2.451   5.047  10.776
 2005SOL     OW 7788   4.808   6.809   7.960
 2005SOL    HW1 7789   4.854   6.771   7.885
 2005SOL    HW2 7790   4.720   6.774   7.955
 2006SOL     OW 7791   9.439   0.849   6.211
 2006SOL    HW1 7792   9.349   0.861   6.180
 2006SOL    HW2 7793   9.446   0.756   6.231
 2007SOL     OW 7794   2.836  10.386  11.032
 2007SOL    HW1 7795   2.742  10.369  11.019
 2007SOL    HW2 7796   2.877  10.300  11.025
 2008SOL     OW 7797  10.919  12.778  14.575
 2008SOL    HW1 7798  11.008  12.752  14.599
 2008SOL    HW2 7799  10.922  12.873  14.569
 2009SOL     OW 7800   7.242   3.082   3.249
 2009SOL    HW1 7801   7.327   3.063   3.289
 2009SOL    HW2 7802   7.202   3.148   3.305
 2010SOL     OW 7803  11.487   8.206   1.191
 2010SOL    HW1 7804  11.506   8.292   1.228
 2010SOL    HW2 7805  11.394   8.193   1.206
 2011SOL     OW 7806  10.414  14.667  12.919
 2011SOL    HW1 7807  10.348  14.710  12.864
 2011SOL    HW2 7808  10.491  14.723  12.914
 2012SOL     OW 7809  13.922   0.039   9.266
 2012SOL    HW1 7810  13.843   0.007   9.310
 2012SOL    HW2 7811  13.990  14.858   9.292
 2013SOL     OW 7812   5.335   7.579  14.338
 2013SOL    HW1 7813   5.337   7.545  14.248
 2013SOL    HW2 7814   5.427   7.584  14.363
 2014SOL     OW 7815   9.179   8.962  14.488
 2014SOL    HW1 7816   9.203   9.032  14.548
 2014SOL    HW2 7817   9.256   8.905  14.485
 2015SOL     OW 7818   5.451   3.692   5.088
 2015SOL    HW1 7819   5.519   3.679   5.021
 2015SOL    HW2 7820   5.495   3.671   5.170
 2016SOL     OW 7821   5.310   6.223   4.447
 2016SOL    HW1 7822   5.311   6.205   4.541
 2016SOL    HW2 7823   5.396   6.262   4.430
 2017SOL     OW 7824  13.991  14.169   5.822
 2017SOL    HW1 7825  13.964  14.100   5.762
 2017SOL    HW2 7826  13.933  14.158   5.898
 2018SOL     OW 7827   5.817  12.328  10.930
 2018SOL    HW1 7828   5.829  12.414  10.970
 2018SOL    HW2 7829   5.902  12.286  10.938
 2019SOL     OW 7830   5.607   6.157  11.533
 2019SOL    HW1 7831   5.521   6.114  11.534
 2019SOL    HW2 7832   5.669   6.086  11.547
 2020SOL     OW 7833   3.269   5.811  12.169
 2020SOL    HW1 7834   3.187   5.814  12.119
 2020SOL    HW2 7835   3.324   5.878  12.129
 2021SOL     OW 7836   6.521   9.486   2.406
 2021SOL    HW1 7837   6.513   9.467   2.313
 2021SOL    HW2 7838   6.574   9.414   2.440
 2022SOL     OW 7839   8.308  12.177  11.363
 2022SOL    HW1 7840   8.344  12.138  11.284
 2022SOL    HW2 7841   8.381  12.176  11.425
 2023SOL     OW 7842  11.874   8.837  14.267
 2023SOL    HW1 7843  11.909   8.810  14.182
 2023SOL    HW2 7844  11.787   8.872  14.247
 2024SOL     OW 7845   2.492   2.893   4.684
 2024SOL    HW1 7846   2.509   2.986   4.672
 2024SOL    HW2 7847   2.413   2.876   4.632
 2025SOL     OW 7848   7.801   7.611  14.716
 2025SOL    HW1 7849   7.853   7.533  14.737
 2025SOL    HW2 7850   7.717   7.576  14.687
 2026SOL     OW 7851   7.420   2.608  10.852
 2026SOL    HW1 7852   7.394   2.692  10.890
 2026SOL    HW2 7853   7.338   2.562  10.839
 2027SOL     OW 7854  14.600   2.060  13.811
 2027SOL    HW1 7855  14.632   2.082  13.898
 2027SOL    HW2 7856  14.668   2.090  13.751
 2028SOL     OW 7857   7.501   5.376   1.089
 2028SOL    HW1 7858   7.486   5.467   1.115
 2028SOL    HW2 7859   7.512   5.329   1.172
 2029SOL     OW 7860   6.849   9.739  14.317
 2029SOL    HW1 7861   6.930   9.722  14.364
 2029SOL    HW2 7862   6.819   9.653  14.289
 2030SOL     OW 7863   6.344   7.188   6.188
 2030SOL    HW1 7864   6.407   7.131   6.144
 2030SOL    HW2 7865   6.374   7.277   6.171
 2031SOL     OW 7866   1.501  10.938   0.023
 2031SOL    HW1 7867   1.428  10.921   0.083
 2031SOL    HW2 7868   1.474  11.017  14.857
 2032SOL     OW 7869   8.314   6.029   6.727
 2032SOL    HW1 7870   8.319   5.937   6.750
 2032SOL    HW2 7871   8.380   6.071   6.784
 2033SOL     OW 7872   3.697   3.440   7.223
 2033SOL    HW1 7873   3.700   3.478   7.311
 2033SOL    HW2 7874   3.671   3.349   7.238
 2034SOL     OW 7875   0.361   0.038  11.570
 2034SOL    HW1 7876   0.343   0.116  11.518
 2034SOL    HW2 7877   0.335   0.061  11.659
 2035SOL     OW 7878  13.739   5.923  10.963
 2035SOL    HW1 7879  13.645   5.938  10.965
 2035SOL    HW2 7880  13.764   5.934  10.871
 2036SOL     OW 7881  13.373  13.623  12.685
 2036SOL    HW1 7882  13.328  13.543  12.657
 2036SOL    HW2 7883  13.409  13.660  12.605
 2037SOL     OW 7884   6.385  12.445  12.740
 2037SOL    HW1 7885   6.307  12.460  12.687
 2037SOL    HW2 7886   6.378  12.354  12.768
 2038SOL     OW 7887   6.458  12.946   0.245
 2038SOL    HW1 7888   6.544  12.977   0.217
 2038SOL    HW2 7889   6.466  12.850   0.245
 2039SOL     OW 7890   7.374  14.641   0.450
 2039SOL    HW1 7891   7.302  14.661   0.390
 2039SOL    HW2 7892   7.453  14.653   0.397
 2040SOL     OW 7893   4.336  11.852   5.174
 2040SOL    HW1 7894   4.260  11.910   5.180
 2040SOL    HW2 7895   4.299  11.767   5.149
 2041SOL     OW 7896  11.242  12.601   7.269
 2041SOL    HW1 7897  11.228  12.509   7.250
 2041SOL    HW2 7898  11.189  12.618   7.347
 2042SOL     OW 7899   7.000   4.599  12.745
 2042SOL    HW1 7900   6.938   4.546  12.695
 2042SOL    HW2 7901   6.968   4.688  12.737
 2043SOL     OW 7902  10.906   9.549   9.123
 2043SOL    HW1 7903  10.928   9.517   9.035
 2043SOL    HW2 7904  10.852   9.480   9.160
 2044SOL     OW 7905   1.637   3.826   7.933
 2044SOL    HW1 7906   1.544   3.802   7.943
 2044SOL    HW2 7907   1.678   3.794   8.013
 2045SOL     OW 7908  14.468  11.692  13.595
 2045SOL    HW1 7909  14.525  11.705  13.519
 2045SOL    HW2 7910  14.510  11.741  13.665
 2046SOL     OW 7911   2.084   9.847  10.053
 2046SOL    HW1 7912   2.061   9.863   9.962
 2046SOL    HW2 7913   2.039   9.916  10.102
 2047SOL     OW 7914   0.406   2.971  13.203
 2047SOL    HW1 7915   0.317   2.936  13.212
 2047SOL    HW2 7916   0.461   2.911  13.253
 2048SOL     OW 7917   5.069   8.720   5.100
 2048SOL    HW1 7918   5.078   8.772   5.020
 2048SOL    HW2 7919   4.975   8.720   5.117
 2049SOL     OW 7920   7.192   6.394   0.008
 2049SOL    HW1 7921   7.109   6.409   0.054
 2049SOL    HW2 7922   7.222   6.309   0.040
 2050SOL     OW 7923   7.038   9.853  12.953
 2050SOL    HW1 7924   6.971   9.860  13.022
 2050SOL    HW2 7925   7.010   9.915  12.886
 2051SOL     OW 7926  13.438   6.378   7.261
 2051SOL    HW1 7927  13.367   6.438   7.235
 2051SOL    HW2 7928  13.432   6.307   7.198
 2052SOL     OW 7929  10.413  13.080   1.955
 2052SOL    HW1 7930  10.332  13.066   2.005
 2052SOL    HW2 7931  10.391  13.150   1.894
 2053SOL     OW 7932   4.510   8.068  10.083
 2053SOL    HW1 7933   4.592   8.019  10.088
 2053SOL    HW2 7934   4.534   8.154  10.050
 2054SOL     OW 7935  14.740  12.871   9.341
 2054SOL    HW1 7936  14.754  12.777   9.352
 2054SOL    HW2 7937  14.655  12.878   9.298
 2055SOL     OW 7938  12.773   7.477  11.268
 2055SOL    HW1 7939  12.753   7.505  11.358
 2055SOL    HW2 7940  12.800   7.558  11.224
 2056SOL     OW 7941   7.195  13.065  12.744
 2056SOL    HW1 7942   7.211  13.028  12.657
 2056SOL    HW2 7943   7.125  13.011  12.781
 2057SOL     OW 7944   8.942  12.452   2.525
 2057SOL    HW1 7945   8.919  12.525   2.468
 2057SOL    HW2 7946   8.884  12.461   2.601
 2058SOL     OW 7947   4.594   6.138   9.493
 2058SOL    HW1 7948   4.644   6.085   9.554
 2058SOL    HW2 7949   4.554   6.206   9.547
 2059SOL     OW 7950  14.723   2.384   7.573
 2059SOL    HW1 7951  14.781   2.451   7.608
 2059SOL    HW2 7952  14.635   2.421   7.583
 2060SOL     OW 7953   4.898   2.679   1.727
 2060SOL    HW1 7954   4.845   2.601   1.736
 2060SOL    HW2 7955   4.836   2.752   1.731
 2061SOL     OW 7956   7.546  12.965   0.912
 2061SOL    HW1 7957   7.581  12.879   0.937
 2061SOL    HW2 7958   7.623  13.013   0.882
 2062SOL     OW 7959  11.010   9.869  11.025
 2062SOL    HW1 7960  10.963   9.805  11.078
 2062SOL    HW2 7961  10.954   9.947  11.027
 2063SOL     OW 7962   1.059   5.150  14.828
 2063SOL    HW1 7963   1.073   5.172   0.038
 2063SOL    HW2 7964   1.065   5.054  14.824
 2064SOL     OW 7965   7.077   0.182  12.385
 2064SOL    HW1 7966   7.151   0.227  12.344
 2064SOL    HW2 7967   7.065   0.104  12.332
 2065SOL     OW 7968   0.366   3.793  14.021
 2065SOL    HW1 7969   0.283   3.822  14.060
 2065SOL    HW2 7970   0.344   3.714  13.972
 2066SOL     OW 7971  12.297  11.555   1.522
 2066SOL    HW1 7972  12.301  11.594   1.610
 2066SOL    HW2 7973  12.239  11.613   1.473
 2067SOL     OW 7974   4.770  11.338   2.988
 2067SOL    HW1 7975   4.698  11.372   3.042
 2067SOL    HW2 7976   4.793  11.411   2.931
 2068SOL     OW 7977   2.796   9.619   8.377
 2068SOL    HW1 7978   2.852   9.695   8.365
 2068SOL    HW2 7979   2.722   9.652   8.430
 2069SOL     OW 7980   2.435   4.947   6.726
 2069SOL    HW1 7981   2.515   4.992   6.751
 2069SOL    HW2 7982   2.446   4.929   6.633
 2070SOL     OW 7983   0.013   9.522   4.326
 2070SOL    HW1 7984  14.840   9.536   4.404
 2070SOL    HW2 7985  14.833   9.523   4.253
 2071SOL     OW 7986  13.136   1.366  10.712
 2071SOL    HW1 7987  13.078   1.428  10.757
 2071SOL    HW2 7988  13.107   1.368  10.620
 2072SOL     OW 7989   1.746   4.429   1.032
 2072SOL    HW1 7990   1.771   4.462   1.118
 2072SOL    HW2 7991   1.674   4.484   1.004
 2073SOL     OW 7992   9.923  11.342  13.007
 2073SOL    HW1 7993   9.852  11.355  13.069
 2073SOL    HW2 7994   9.941  11.429  12.972
 2074SOL     OW 7995   1.594  14.730  10.453
 2074SOL    HW1 7996   1.600  14.657  10.393
 2074SOL    HW2 7997   1.636  14.699  10.534
 2075SOL     OW 7998   7.861   2.554  11.596
 2075SOL    HW1 7999   7.922   2.624  11.616
 2075SOL    HW2 8000   7.884   2.526  11.507
 2076SOL     OW 8001   1.445   9.746  10.879
 2076SOL    HW1 8002   1.452   9.717  10.970
 2076SOL    HW2 8003   1.439   9.842  10.885
 2077SOL     OW 8004   4.280   2.000  12.442
 2077SOL    HW1 8005   4.298   2.042  12.526
 2077SOL    HW2 8006   4.193   1.961  12.452
 2078SOL     OW 8007   2.679   2.942   6.970
 2078SOL    HW1 8008   2.624   2.908   6.899
 2078SOL    HW2 8009   2.705   3.029   6.940
 2079SOL     OW 8010   6.400   2.482  12.456
 2079SOL    HW1 8011   6.469   2.544  12.433
 2079SOL    HW2 8012   6.323   2.514  12.408
 2080SOL     OW 8013   5.231   3.689   7.659
 2080SOL    HW1 8014   5.277   3.706   7.742
 2080SOL    HW2 8015   5.250   3.766   7.605
 2081SOL     OW 8016   4.859   5.043   9.644
 2081SOL    HW1 8017   4.819   5.078   9.724
 2081SOL    HW2 8018   4.859   5.117   9.584
 2082SOL     OW 8019   9.966  13.123   5.319
 2082SOL    HW1 8020   9.999  13.197   5.371
 2082SOL    HW2 8021   9.979  13.047   5.374
 2083SOL     OW 8022   2.330   9.596   7.502
 2083SOL    HW1 8023   2.415   9.554   7.512
 2083SOL    HW2 8024   2.334   9.672   7.560
 2084SOL     OW 8025  14.103   1.817  14.140
 2084SOL    HW1 8026  14.067   1.884  14.082
 2084SOL    HW2 8027  14.190   1.797  14.103
 2085SOL     OW 8028   0.098  11.153  10.960
 2085SOL    HW1 8029   0.018  11.121  10.919
 2085SOL    HW2 8030   0.139  11.075  10.997
 2086SOL     OW 8031   9.293   8.855   5.221
 2086SOL    HW1 8032   9.287   8.849   5.316
 2086SOL    HW2 8033   9.244   8.779   5.189
 2087SOL     OW 8034   0.757   3.276  12.223
 2087SOL    HW1 8035   0.786   3.340  12.288
 2087SOL    HW2 8036   0.763   3.191  12.268
 2088SOL     OW 8037   4.707   1.309  14.103
 2088SOL    HW1 8038   4.750   1.226  14.086
 2088SOL    HW2 8039   4.750   1.371  14.045
 2089SOL     OW 8040   9.116  10.398  10.577
 2089SOL    HW1 8041   9.193  10.355  10.614
 2089SOL    HW2 8042   9.088  10.341  10.506
 2090SOL     OW 8043  14.569   5.389   9.217
 2090SOL    HW1 8044  14.613   5.415   9.298
 2090SOL    HW2 8045  14.590   5.459   9.155
 2091SOL     OW 8046  13.676   4.131   9.911
 2091SOL    HW1 8047  13.636   4.063   9.964
 2091SOL    HW2 8048  13.715   4.191   9.974
 2092SOL     OW 8049  14.660   8.540   0.487
 2092SOL    HW1 8050  14.676   8.545   0.393
 2092SOL    HW2 8051  14.650   8.631   0.514
 2093SOL     OW 8052   2.051  10.945  10.406
 2093SOL    HW1 8053   1.996  10.866  10.403
 2093SOL    HW2 8054   2.117  10.927  10.473
 2094SOL     OW 8055   4.914  14.044   1.684
 2094SOL    HW1 8056   4.959  14.116   1.728
 2094SOL    HW2 8057   4.968  13.967   1.703
 2095SOL     OW 8058   8.305   3.228  14.792
 2095SOL    HW1 8059   8.311   3.276  14.875
 2095SOL    HW2 8060   8.318   3.295  14.725
 2096SOL     OW 8061   1.454   7.973   1.087
 2096SOL    HW1 8062   1.477   7.914   1.015
 2096SOL    HW2 8063   1.397   7.921   1.144
 2097SOL     OW 8064   3.547   0.360   8.206
 2097SOL    HW1 8065   3.466   0.339   8.251
 2097SOL    HW2 8066   3.571   0.280   8.159
 2098SOL     OW 8067   9.575   5.164  11.938
 2098SOL    HW1 8068   9.634   5.234  11.910
 2098SOL    HW2 8069   9.495   5.178  11.887
 2099SOL     OW 8070  12.803   5.484   0.502
 2099SOL    HW1 8071  12.871   5.510   0.564
 2099SOL    HW2 8072  12.772   5.567   0.465
 2100SOL     OW 8073   3.037   8.647   8.647
 2100SOL    HW1 8074   3.111   8.605   8.603
 2100SOL    HW2 8075   2.992   8.576   8.692
 2101SOL     OW 8076   2.099   3.215  12.122
 2101SOL    HW1 8077   2.010   3.242  12.147
 2101SOL    HW2 8078   2.088   3.128  12.086
 2102SOL     OW 8079   0.594   6.871   0.982
 2102SOL    HW1 8080   0.631   6.959   0.983
 2102SOL    HW2 8081   0.669   6.812   0.993
 2103SOL     OW 8082  11.011  10.030  10.695
 2103SOL    HW1 8083  10.946   9.962  10.681
 2103SOL    HW2 8084  10.981  10.104  10.642
 2104SOL     OW 8085   7.210  12.456  13.558
 2104SOL    HW1 8086   7.139  12.486  13.614
 2104SOL    HW2 8087   7.223  12.364  13.581
 2105SOL     OW 8088   9.933  11.547  10.497
 2105SOL    HW1 8089   9.963  11.617  10.556
 2105SOL    HW2 8090  10.008  11.488  10.490
 2106SOL     OW 8091   7.300   1.109   6.235
 2106SOL    HW1 8092   7.333   1.187   6.191
 2106SOL    HW2 8093   7.311   1.039   6.172
 2107SOL     OW 8094   7.498  13.638   2.772
 2107SOL    HW1 8095   7.455  13.648   2.687
 2107SOL    HW2 8096   7.536  13.724   2.790
 2108SOL     OW 8097   0.930   2.474   5.401
 2108SOL    HW1 8098   0.922   2.490   5.495
 2108SOL    HW2 8099   0.918   2.379   5.392
 2109SOL     OW 8100  12.914   6.354   1.239
 2109SOL    HW1 8101  12.900   6.308   1.156
 2109SOL    HW2 8102  12.901   6.447   1.218
 2110SOL     OW 8103  14.834   3.977   1.810
 2110SOL    HW1 8104  14.790   4.022   1.739
 2110SOL    HW2 8105  14.785   3.895   1.820
 2111SOL     OW 8106   0.576   5.868  14.604
 2111SOL    HW1 8107   0.643   5.911  14.657
 2111SOL    HW2 8108   0.548   5.794  14.658
 2112SOL     OW 8109   4.491   8.153  12.794
 2112SOL    HW1 8110   4.541   8.232  12.773
 2112SOL    HW2 8111   4.502   8.097  12.717
 2113SOL     OW 8112  10.579  13.735   5.031
 2113SOL    HW1 8113  10.631  13.806   5.067
 2113SOL    HW2 8114  10.576  13.669   5.101
 2114SOL     OW 8115   5.707  11.815  11.617
 2114SOL    HW1 8116   5.737  11.735  11.661
 2114SOL    HW2 8117   5.660  11.864  11.685
 2115SOL     OW 8118   9.673   1.045   2.347
 2115SOL    HW1 8119   9.606   0.983   2.317
 2115SOL    HW2 8120   9.685   1.024   2.440
 2116SOL     OW 8121   3.914   9.154  10.597
 2116SOL    HW1 8122   3.962   9.188  10.522
 2116SOL    HW2 8123   3.982   9.120  10.656
 2117SOL     OW 8124  10.708   4.919   8.175
 2117SOL    HW1 8125  10.715   4.915   8.271
 2117SOL    HW2 8126  10.785   4.969   8.147
 2118SOL     OW 8127   4.024  13.984   4.328
 2118SOL    HW1 8128   3.964  13.956   4.397
 2118SOL    HW2 8129   4.109  13.991   4.371
 2119SOL     OW 8130   3.946   1.278  14.584
 2119SOL    HW1 8131   3.908   1.360  14.552
 2119SOL    HW2 8132   3.949   1.288  14.679
 2120SOL     OW 8133   9.021   8.814   1.496
 2120SOL    HW1 8134   9.016   8.780   1.406
 2120SOL    HW2 8135   9.114   8.814   1.516
 2121SOL     OW 8136   8.025   7.907   1.931
 2121SOL    HW1 8137   7.938   7.871   1.914
 2121SOL    HW2 8138   8.013   8.002   1.932
 2122SOL     OW 8139   8.210  10.358  12.794
 2122SOL    HW1 8140   8.188  10.327  12.882
 2122SOL    HW2 8141   8.127  10.390  12.759
 2123SOL     OW 8142   4.474  13.767   1.971
 2123SOL    HW1 8143   4.560  13.736   1.942
 2123SOL    HW2 8144   4.416  13.693   1.957
 2124SOL     OW 8145   0.085  14.402   9.676
 2124SOL    HW1 8146   0.109  14.406   9.768
 2124SOL    HW2 8147   0.032  14.480   9.662
 2125SOL     OW 8148   8.393   7.822  12.613
 2125SOL    HW1 8149   8.451   7.851  12.683
 2125SOL    HW2 8150   8.378   7.729  12.630
 2126SOL     OW 8151   4.051   7.878   9.656
 2126SOL    HW1 8152   4.089   7.950   9.605
 2126SOL    HW2 8153   4.068   7.901   9.747
 2127SOL     OW 8154  12.045   1.258   4.404
 2127SOL    HW1 8155  12.115   1.234   4.464
 2127SOL    HW2 8156  11.969   1.207   4.435
 2128SOL     OW 8157   2.594  14.663  11.744
 2128SOL    HW1 8158   2.596  14.605  11.668
 2128SOL    HW2 8159   2.528  14.624  11.802
 2129SOL     OW 8160  11.734   9.321   8.320
 2129SOL    HW1 8161  11.639   9.308   8.319
 2129SOL    HW2 8162  11.765   9.274   8.242
 2130SOL     OW 8163  12.502   5.482   4.761
 2130SOL    HW1 8164  12.513   5.387   4.762
 2130SOL    HW2 8165  12.428   5.498   4.819
 2131SOL     OW 8166   2.699   0.554  10.113
 2131SOL    HW1 8167   2.740   0.516  10.190
 2131SOL    HW2 8168   2.765   0.612  10.076
 2132SOL     OW 8169   1.734   0.577  11.936
 2132SOL    HW1 8170   1.793   0.502  11.933
 2132SOL    HW2 8171   1.779   0.644  11.885
 2133SOL     OW 8172   0.805   9.668  12.572
 2133SOL    HW1 8173   0.776   9.580  12.597
 2133SOL    HW2 8174   0.829   9.709  12.655
 2134SOL     OW 8175   5.489   5.484   5.323
 2134SOL    HW1 8176   5.576   5.494   5.361
 2134SOL    HW2 8177   5.467   5.392   5.336
 2135SOL     OW 8178  12.056   1.273  11.590
 2135SOL    HW1 8179  12.024   1.301  11.676
 2135SOL    HW2 8180  12.150   1.291  11.593
 2136SOL     OW 8181   1.141   6.706   3.025
 2136SOL    HW1 8182   1.165   6.797   3.045
 2136SOL    HW2 8183   1.225   6.664   3.005
 2137SOL     OW 8184  12.134   3.204   7.200
 2137SOL    HW1 8185  12.103   3.160   7.121
 2137SOL    HW2 8186  12.064   3.191   7.263
 2138SOL     OW 8187   6.280   7.436  11.788
 2138SOL    HW1 8188   6.314   7.349  11.766
 2138SOL    HW2 8189   6.191   7.437  11.753
 2139SOL     OW 8190  12.575   0.895   0.807
 2139SOL    HW1 8191  12.558   0.842   0.885
 2139SOL    HW2 8192  12.626   0.969   0.839
 2140SOL     OW 8193   3.400   2.064   8.853
 2140SOL    HW1 8194   3.408   1.981   8.899
 2140SOL    HW2 8195   3.432   2.046   8.765
 2141SOL     OW 8196  12.278   1.274   3.153
 2141SOL    HW1 8197  12.210   1.303   3.213
 2141SOL    HW2 8198  12.232   1.251   3.073
 2142SOL     OW 8199  14.536   5.664   2.165
 2142SOL    HW1 8200  14.624   5.649   2.130
 2142SOL    HW2 8201  14.550   5.687   2.257
 2143SOL     OW 8202  13.155   0.018   4.391
 2143SOL    HW1 8203  13.246  14.870   4.403
 2143SOL    HW2 8204  13.139   0.075   4.465
 2144SOL     OW 8205  12.108   8.683  10.770
 2144SOL    HW1 8206  12.131   8.658  10.859
 2144SOL    HW2 8207  12.044   8.618  10.742
 2145SOL     OW 8208  11.521   2.600  11.717
 2145SOL    HW1 8209  11.507   2.589  11.811
 2145SOL    HW2 8210  11.527   2.510  11.684
 2146SOL     OW 8211   5.287   4.112   1.970
 2146SOL    HW1 8212   5.369   4.093   1.925
 2146SOL    HW2 8213   5.307   4.189   2.024
 2147SOL     OW 8214  11.923   5.124   3.771
 2147SOL    HW1 8215  11.836   5.154   3.745
 2147SOL    HW2 8216  11.927   5.033   3.741
 2148SOL     OW 8217   3.419  10.767  14.391
 2148SOL    HW1 8218   3.438  10.840  14.450
 2148SOL    HW2 8219   3.402  10.809  14.306
 2149SOL     OW 8220  10.726  14.201   9.410
 2149SOL    HW1 8221  10.722  14.128   9.348
 2149SOL    HW2 8222  10.637  14.207   9.445
 2150SOL     OW 8223   0.105  10.179  13.199
 2150SOL    HW1 8224   0.146  10.214  13.120
 2150SOL    HW2 8225   0.011  10.184  13.181
 2151SOL     OW 8226   1.475  13.852  14.660
 2151SOL    HW1 8227   1.410  13.901  14.711
 2151SOL    HW2 8228   1.558  13.868  14.705
 2152SOL     OW 8229  11.026  12.477   3.794
 2152SOL    HW1 8230  10.991  12.501   3.708
 2152SOL    HW2 8231  11.060  12.388   3.783
 2153SOL     OW 8232  11.814   8.816   6.787
 2153SOL    HW1 8233  11.890   8.770   6.752
 2153SOL    HW2 8234  11.832   8.824   6.880
 2154SOL     OW 8235   5.703   7.968  14.576
 2154SOL    HW1 8236   5.626   7.927  14.615
 2154SOL    HW2 8237   5.777   7.918  14.609
 2155SOL     OW 8238  14.007   0.195   0.914
 2155SOL    HW1 8239  13.955   0.131   0.963
 2155SOL    HW2 8240  14.050   0.144   0.845
 2156SOL     OW 8241   2.845  13.295   7.555
 2156SOL    HW1 8242   2.862  13.202   7.540
 2156SOL    HW2 8243   2.763  13.313   7.508
 2157SOL     OW 8244   5.966   1.357   0.298
 2157SOL    HW1 8245   5.938   1.420   0.231
 2157SOL    HW2 8246   5.961   1.272   0.254
 2158SOL     OW 8247   1.191   5.621  12.694
 2158SOL    HW1 8248   1.278   5.645  12.664
 2158SOL    HW2 8249   1.144   5.704  12.703
 2159SOL     OW 8250   2.897   1.340   8.321
 2159SOL    HW1 8251   2.821   1.326   8.265
 2159SOL    HW2 8252   2.939   1.254   8.327
 2160SOL     OW 8253   4.878   9.987   8.790
 2160SOL    HW1 8254   4.828   9.906   8.788
 2160SOL    HW2 8255   4.853  10.029   8.872
 2161SOL     OW 8256  10.430   7.703   1.000
 2161SOL    HW1 8257  10.422   7.698   0.905
 2161SOL    HW2 8258  10.452   7.614   1.027
 2162SOL     OW 8259   0.364   0.230   7.454
 2162SOL    HW1 8260   0.405   0.194   7.375
 2162SOL    HW2 8261   0.415   0.193   7.526
 2163SOL     OW 8262  13.779  12.534  10.962
 2163SOL    HW1 8263  13.698  12.535  11.014
 2163SOL    HW2 8264  13.845  12.567  11.022
 2164SOL     OW 8265   4.388   5.894  10.270
 2164SOL    HW1 8266   4.451   5.889  10.198
 2164SOL    HW2 8267   4.405   5.815  10.322
 2165SOL     OW 8268   6.492   9.736   0.505
 2165SOL    HW1 8269   6.506   9.798   0.577
 2165SOL    HW2 8270   6.520   9.783   0.427
 2166SOL     OW 8271   2.075   0.460   6.205
 2166SOL    HW1 8272   2.161   0.420   6.192
 2166SOL    HW2 8273   2.072   0.531   6.141
 2167SOL     OW 8274  13.658   9.705  14.592
 2167SOL    HW1 8275  13.576   9.670  14.558
 2167SOL    HW2 8276  13.685   9.643  14.660
 2168SOL     OW 8277  10.716  12.047   5.982
 2168SOL    HW1 8278  10.665  12.114   6.028
 2168SOL    HW2 8279  10.783  12.021   6.045
 2169SOL     OW 8280  14.050   4.119   1.399
 2169SOL    HW1 8281  13.977   4.180   1.407
 2169SOL    HW2 8282  14.046   4.087   1.309
 2170SOL     OW 8283   1.171   8.446   7.520
 2170SOL    HW1 8284   1.083   8.481   7.535
 2170SOL    HW2 8285   1.158   8.351   7.511
 2171SOL     OW 8286   9.917   0.566   4.910
 2171SOL    HW1 8287   9.881   0.643   4.865
 2171SOL    HW2 8288   9.841   0.523   4.949
 2172SOL     OW 8289   9.202   4.430   3.512
 2172SOL    HW1 8290   9.191   4.506   3.569
 2172SOL    HW2 8291   9.281   4.449   3.461
 2173SOL     OW 8292  13.677  11.549   8.588
 2173SOL    HW1 8293  13.644  11.636   8.564
 2173SOL    HW2 8294  13.739  11.527   8.519
 2174SOL     OW 8295  14.387  10.117   7.229
 2174SOL    HW1 8296  14.326  10.044   7.219
 2174SOL    HW2 8297  14.403  10.122   7.324
 2175SOL     OW 8298  13.548  14.355   3.382
 2175SOL    HW1 8299  13.633  14.350   3.338
 2175SOL    HW2 8300  13.557  14.429   3.442
 2176SOL     OW 8301  14.563  13.680   9.021
 2176SOL    HW1 8302  14.572  13.585   9.016
 2176SOL    HW2 8303  14.509  13.703   8.945
 2177SOL     OW 8304   9.589   5.585   5.009
 2177SOL    HW1 8305   9.645   5.626   4.943
 2177SOL    HW2 8306   9.559   5.658   5.063
 2178SOL     OW 8307  14.616   1.814  10.373
 2178SOL    HW1 8308  14.543   1.853  10.422
 2178SOL    HW2 8309  14.666   1.889  10.341
 2179SOL     OW 8310  13.832   4.549   7.716
 2179SOL    HW1 8311  13.739   4.533   7.734
 2179SOL    HW2 8312  13.864   4.594   7.794
 2180SOL     OW 8313   8.300   8.772   6.170
 2180SOL    HW1 8314   8.320   8.865   6.172
 2180SOL    HW2 8315   8.310   8.747   6.078
 2181SOL     OW 8316  12.370  13.022   8.073
 2181SOL    HW1 8317  12.351  13.046   8.164
 2181SOL    HW2 8318  12.381  13.105   8.027
 2182SOL     OW 8319   8.576   2.002   7.454
 2182SOL    HW1 8320   8.666   2.014   7.427
 2182SOL    HW2 8321   8.535   2.087   7.442
 2183SOL     OW 8322  11.979  13.681   1.532
 2183SOL    HW1 8323  12.060  13.691   1.481
 2183SOL    HW2 8324  11.993  13.736   1.609
 2184SOL     OW 8325  12.490   1.625   9.528
 2184SOL    HW1 8326  12.493   1.716   9.558
 2184SOL    HW2 8327  12.399   1.599   9.540
 2185SOL     OW 8328   6.065   9.148   5.634
 2185SOL    HW1 8329   6.012   9.079   5.675
 2185SOL    HW2 8330   6.001   9.212   5.605
 2186SOL     OW 8331   0.658  12.333  14.595
 2186SOL    HW1 8332   0.721  12.377  14.538
 2186SOL    HW2 8333   0.656  12.385  14.675
 2187SOL     OW 8334   1.847   9.222  13.213
 2187SOL    HW1 8335   1.773   9.238  13.154
 2187SOL    HW2 8336   1.902   9.299  13.204
 2188SOL     OW 8337   7.816   1.685  14.789
 2188SOL    HW1 8338   7.784   1.639  14.712
 2188SOL    HW2 8339   7.864   1.760  14.754
 2189SOL     OW 8340   2.427  10.628   5.157
 2189SOL    HW1 8341   2.442  10.697   5.222
 2189SOL    HW2 8342   2.358  10.662   5.101
 2190SOL     OW 8343   5.236   0.874   7.971
 2190SOL    HW1 8344   5.177   0.944   7.942
 2190SOL    HW2 8345   5.210   0.798   7.918
 2191SOL     OW 8346  13.501   5.788   2.061
 2191SOL    HW1 8347  13.545   5.716   2.017
 2191SOL    HW2 8348  13.533   5.866   2.016
 2192SOL     OW 8349   0.732   7.349   6.812
 2192SOL    HW1 8350   0.826   7.359   6.801
 2192SOL    HW2 8351   0.722   7.293   6.888
 2193SOL     OW 8352  10.854  14.615   6.381
 2193SOL    HW1 8353  10.889  14.542   6.330
 2193SOL    HW2 8354  10.926  14.678   6.384
 2194SOL     OW 8355  11.858  11.151   3.122
 2194SOL    HW1 8356  11.828  11.125   3.035
 2194SOL    HW2 8357  11.915  11.080   3.151
 2195SOL     OW 8358   2.275  10.265   5.486
 2195SOL    HW1 8359   2.242  10.189   5.437
 2195SOL    HW2 8360   2.347  10.299   5.432
 2196SOL     OW 8361  10.787   6.254   8.760
 2196SOL    HW1 8362  10.795   6.282   8.668
 2196SOL    HW2 8363  10.736   6.324   8.802
 2197SOL     OW 8364   5.733  10.095   8.041
 2197SOL    HW1 8365   5.671  10.043   7.989
 2197SOL    HW2 8366   5.699  10.090   8.130
 2198SOL     OW 8367  10.310  14.641   1.522
 2198SOL    HW1 8368  10.215  14.630   1.524
 2198SOL    HW2 8369  10.326  14.719   1.575
 2199SOL     OW 8370   1.878   5.362   5.015
 2199SOL    HW1 8371   1.894   5.364   4.921
 2199SOL    HW2 8372   1.963   5.342   5.054
 2200SOL     OW 8373  10.359   6.679   4.320
 2200SOL    HW1 8374  10.302   6.755   4.324
 2200SOL    HW2 8375  10.382   6.671   4.227
 2201SOL     OW 8376  12.902   9.296   7.956
 2201SOL    HW1 8377  12.883   9.233   8.026
 2201SOL    HW2 8378  12.819   9.341   7.941
 2202SOL     OW 8379   4.920   0.117  10.179
 2202SOL    HW1 8380   4.875   0.078  10.104
 2202SOL    HW2 8381   4.871   0.198  10.196
 2203SOL     OW 8382   5.580  11.149   1.328
 2203SOL    HW1 8383   5.662  11.099   1.333
 2203SOL    HW2 8384   5.538  11.117   1.249
 2204SOL     OW 8385   2.609   1.643  12.572
 2204SOL    HW1 8386   2.585   1.733  12.550
 2204SOL    HW2 8387   2.589   1.592  12.494
 2205SOL     OW 8388   5.039   8.393   2.653
 2205SOL    HW1 8389   5.006   8.378   2.565
 2205SOL    HW2 8390   5.128   8.357   2.651
 2206SOL     OW 8391  13.883  14.019   0.453
 2206SOL    HW1 8392  13.954  14.013   0.517
 2206SOL    HW2 8393  13.917  14.079   0.386
 2207SOL     OW 8394   7.277   0.146  13.908
 2207SOL    HW1 8395   7.234   0.085  13.968
 2207SOL    HW2 8396   7.297   0.222  13.961
 2208SOL     OW 8397  12.538   2.322  13.198
 2208SOL    HW1 8398  12.479   2.248  13.211
 2208SOL    HW2 8399  12.488   2.398  13.229
 2209SOL     OW 8400   1.921  14.426   3.635
 2209SOL    HW1 8401   1.861  14.356   3.609
 2209SOL    HW2 8402   1.967  14.450   3.555
 2210SOL     OW 8403  11.919   3.438   0.198
 2210SOL    HW1 8404  11.991   3.477   0.150
 2210SOL    HW2 8405  11.956   3.415   0.283
 2211SOL     OW 8406   0.485   5.856   7.641
 2211SOL    HW1 8407   0.514   5.769   7.668
 2211SOL    HW2 8408   0.524   5.916   7.705
 2212SOL     OW 8409   1.085  11.140   7.569
 2212SOL    HW1 8410   1.176  11.147   7.540
 2212SOL    HW2 8411   1.090  11.102   7.656
 2213SOL     OW 8412  12.060  14.339   0.282
 2213SOL    HW1 8413  12.121  14.406   0.315
 2213SOL    HW2 8414  12.113  14.260   0.276
 2214SOL     OW 8415   2.212   7.573   4.631
 2214SOL    HW1 8416   2.140   7.514   4.608
 2214SOL    HW2 8417   2.203   7.585   4.725
 2215SOL     OW 8418   4.623  10.586   5.751
 2215SOL    HW1 8419   4.586  10.512   5.702
 2215SOL    HW2 8420   4.594  10.663   5.703
 2216SOL     OW 8421   5.691   5.863   6.275
 2216SOL    HW1 8422   5.691   5.845   6.181
 2216SOL    HW2 8423   5.782   5.885   6.295
 2217SOL     OW 8424   4.301  13.674   6.458
 2217SOL    HW1 8425   4.376  13.714   6.502
 2217SOL    HW2 8426   4.235  13.666   6.527
 2218SOL     OW 8427  11.840   2.782   9.448
 2218SOL    HW1 8428  11.873   2.820   9.367
 2218SOL    HW2 8429  11.918   2.767   9.501
 2219SOL     OW 8430   9.249   9.944   0.272
 2219SOL    HW1 8431   9.253   9.885   0.196
 2219SOL    HW2 8432   9.256  10.032   0.235
 2220SOL     OW 8433   0.169   1.576   0.830
 2220SOL    HW1 8434   0.121   1.505   0.873
 2220SOL    HW2 8435   0.233   1.531   0.775
 2221SOL     OW 8436   6.851   2.837   8.136
 2221SOL    HW1 8437   6.832   2.898   8.207
 2221SOL    HW2 8438   6.900   2.766   8.177
 2222SOL     OW 8439  13.951   8.878   2.076
 2222SOL    HW1 8440  14.027   8.924   2.041
 2222SOL    HW2 8441  13.934   8.808   2.013
 2223SOL     OW 8442  14.327   4.645   4.195
 2223SOL    HW1 8443  14.310   4.564   4.244
 2223SOL    HW2 8444  14.244   4.662   4.150
 2224SOL     OW 8445   5.003   2.130   5.663
 2224SOL    HW1 8446   4.918   2.086   5.666
 2224SOL    HW2 8447   5.065   2.062   5.636
 2225SOL     OW 8448  13.943   9.971  14.624
 2225SOL    HW1 8449  13.950   9.981  14.719
 2225SOL    HW2 8450  14.028   9.998  14.591
 2226SOL     OW 8451  12.615  12.001   3.704
 2226SOL    HW1 8452  12.603  11.908   3.686
 2226SOL    HW2 8453  12.608  12.009   3.799
 2227SOL     OW 8454   4.183   5.834  14.802
 2227SOL    HW1 8455   4.178   5.746  14.765
 2227SOL    HW2 8456   4.277   5.855  14.802
 2228SOL     OW 8457   2.533   1.126   7.512
 2228SOL    HW1 8458   2.449   1.085   7.492
 2228SOL    HW2 8459   2.511   1.213   7.543
 2229SOL     OW 8460   0.808   1.762   9.833
 2229SOL    HW1 8461   0.729   1.808   9.805
 2229SOL    HW2 8462   0.779   1.672   9.849
 2230SOL     OW 8463  11.135   8.046   1.356
 2230SOL    HW1 8464  11.081   7.981   1.311
 2230SOL    HW2 8465  11.180   8.093   1.286
 2231SOL     OW 8466   3.406   2.348   5.539
 2231SOL    HW1 8467   3.426   2.354   5.446
 2231SOL    HW2 8468   3.429   2.259   5.563
 2232SOL     OW 8469   2.682   2.116   2.893
 2232SOL    HW1 8470   2.670   2.168   2.813
 2232SOL    HW2 8471   2.727   2.174   2.953
 2233SOL     OW 8472  11.540   2.250  11.235
 2233SOL    HW1 8473  11.503   2.225  11.150
 2233SOL    HW2 8474  11.613   2.308  11.213
 2234SOL     OW 8475   7.964  14.429  10.124
 2234SOL    HW1 8476   7.876  14.455  10.096
 2234SOL    HW2 8477   8.000  14.507  10.165
 2235SOL     OW 8478  11.565   3.510  13.277
 2235SOL    HW1 8479  11.478   3.495  13.238
 2235SOL    HW2 8480  11.549   3.574  13.346
 2236SOL     OW 8481   0.352   8.788   3.039
 2236SOL    HW1 8482   0.401   8.808   3.119
 2236SOL    HW2 8483   0.417   8.793   2.969
 2237SOL     OW 8484   1.607   3.576   6.052
 2237SOL    HW1 8485   1.638   3.504   5.996
 2237SOL    HW2 8486   1.561   3.635   5.992
 2238SOL     OW 8487   2.119  10.494   7.851
 2238SOL    HW1 8488   2.087  10.457   7.933
 2238SOL    HW2 8489   2.042  10.500   7.795
 2239SOL     OW 8490   8.535   8.746   8.607
 2239SOL    HW1 8491   8.452   8.708   8.637
 2239SOL    HW2 8492   8.511   8.830   8.569
 2240SOL     OW 8493   7.061   4.810   4.634
 2240SOL    HW1 8494   7.086   4.893   4.594
 2240SOL    HW2 8495   7.017   4.835   4.716
 2241SOL     OW 8496   8.390   1.069  11.125
 2241SOL    HW1 8497   8.353   1.056  11.038
 2241SOL    HW2 8498   8.315   1.091  11.180
 2242SOL     OW 8499  13.892   7.181   5.923
 2242SOL    HW1 8500  13.868   7.131   5.845
 2242SOL    HW2 8501  13.915   7.115   5.988
 2243SOL     OW 8502   4.144  10.064   3.598
 2243SOL    HW1 8503   4.234  10.096   3.598
 2243SOL    HW2 8504   4.151   9.969   3.589
 2244SOL     OW 8505   5.986  11.040  14.423
 2244SOL    HW1 8506   5.929  11.104  14.464
 2244SOL    HW2 8507   6.052  11.092  14.376
 2245SOL     OW 8508   3.876   1.266   9.381
 2245SOL    HW1 8509   3.814   1.193   9.372
 2245SOL    HW2 8510   3.933   1.258   9.304
 2246SOL     OW 8511   8.742  11.443   3.659
 2246SOL    HW1 8512   8.830  11.445   3.622
 2246SOL    HW2 8513   8.702  11.525   3.631
 2247SOL     OW 8514   3.170  14.163  10.117
 2247SOL    HW1 8515   3.166  14.236  10.179
 2247SOL    HW2 8516   3.221  14.196  10.044
 2248SOL     OW 8517   4.321   4.124   8.316
 2248SOL    HW1 8518   4.405   4.137   8.361
 2248SOL    HW2 8519   4.272   4.204   8.333
 2249SOL     OW 8520   5.076   7.238   5.180
 2249SOL    HW1 8521   5.068   7.219   5.086
 2249SOL    HW2 8522   5.167   7.218   5.201
 2250SOL     OW 8523   1.483  12.728  13.103
 2250SOL    HW1 8524   1.549  12.696  13.041
 2250SOL    HW2 8525   1.530  12.791  13.158
 2251SOL     OW 8526   6.602   3.022   8.449
 2251SOL    HW1 8527   6.554   3.077   8.510
 2251SOL    HW2 8528   6.568   3.047   8.363
 2252SOL     OW 8529   0.632   0.690  12.045
 2252SOL    HW1 8530   0.677   0.676  11.962
 2252SOL    HW2 8531   0.542   0.713  12.020
 2253SOL     OW 8532  11.637   1.075   4.878
 2253SOL    HW1 8533  11.592   0.991   4.873
 2253SOL    HW2 8534  11.685   1.072   4.961
 2254SOL     OW 8535   9.734   1.270  12.972
 2254SOL    HW1 8536   9.687   1.347  13.002
 2254SOL    HW2 8537   9.770   1.230  13.052
 2255SOL     OW 8538  11.567  14.864  11.998
 2255SOL    HW1 8539  11.550  14.810  12.074
 2255SOL    HW2 8540  11.649  14.829  11.962
 2256SOL     OW 8541  13.917   6.977  10.066
 2256SOL    HW1 8542  13.909   6.888  10.031
 2256SOL    HW2 8543  13.988   7.016  10.015
 2257SOL     OW 8544   9.283  12.506   9.051
 2257SOL    HW1 8545   9.345  12.578   9.044
 2257SOL    HW2 8546   9.265  12.499   9.145
 2258SOL     OW 8547   9.340   5.609  12.985
 2258SOL    HW1 8548   9.383   5.569  12.910
 2258SOL    HW2 8549   9.334   5.702  12.962
 2259SOL     OW 8550  12.028   8.317   1.273
 2259SOL    HW1 8551  12.064   8.251   1.212
 2259SOL    HW2 8552  11.974   8.373   1.218
 2260SOL     OW 8553   8.021   5.190  12.382
 2260SOL    HW1 8554   8.104   5.217  12.342
 2260SOL    HW2 8555   7.993   5.115  12.330
 2261SOL     OW 8556   7.511  13.938   5.331
 2261SOL    HW1 8557   7.504  14.029   5.357
 2261SOL    HW2 8558   7.429  13.898   5.360
 2262SOL     OW 8559   9.347  14.644  12.759
 2262SOL    HW1 8560   9.387  14.706  12.821
 2262SOL    HW2 8561   9.372  14.558  12.792
 2263SOL     OW 8562   3.352  13.473   7.516
 2263SOL    HW1 8563   3.447  13.476   7.534
 2263SOL    HW2 8564   3.335  13.382   7.493
 2264SOL     OW 8565  14.192   6.885   9.850
 2264SOL    HW1 8566  14.119   6.909   9.793
 2264SOL    HW2 8567  14.161   6.809   9.899
 2265SOL     OW 8568   7.849   5.533   1.025
 2265SOL    HW1 8569   7.901   5.544   0.946
 2265SOL    HW2 8570   7.912   5.545   1.096
 2266SOL     OW 8571   6.842   5.872  14.687
 2266SOL    HW1 8572   6.805   5.957  14.708
 2266SOL    HW2 8573   6.870   5.880  14.595
 2267SOL     OW 8574  13.655   1.468   6.962
 2267SOL    HW1 8575  13.738   1.501   6.996
 2267SOL    HW2 8576  13.635   1.392   7.017
 2268SOL     OW 8577   8.530  12.944  11.026
 2268SOL    HW1 8578   8.532  12.970  10.934
 2268SOL    HW2 8579   8.573  12.858  11.028
 2269SOL     OW 8580   7.021   9.435   8.193
 2269SOL    HW1 8581   7.068   9.400   8.268
 2269SOL    HW2 8582   6.946   9.481   8.230
 2270SOL     OW 8583   7.601  11.276  10.489
 2270SOL    HW1 8584   7.600  11.261  10.394
 2270SOL    HW2 8585   7.637  11.195  10.526
 2271SOL     OW 8586  10.208   0.394   5.586
 2271SOL    HW1 8587  10.193   0.441   5.669
 2271SOL    HW2 8588  10.176   0.306   5.603
 2272SOL     OW 8589   7.113   6.458  12.735
 2272SOL    HW1 8590   7.190   6.410  12.705
 2272SOL    HW2 8591   7.136   6.550  12.724
 2273SOL     OW 8592   9.848  12.449   9.605
 2273SOL    HW1 8593   9.810  12.535   9.585
 2273SOL    HW2 8594   9.779  12.387   9.581
 2274SOL     OW 8595  10.898   0.929  12.907
 2274SOL    HW1 8596  10.861   0.910  12.994
 2274SOL    HW2 8597  10.989   0.901  12.914
 2275SOL     OW 8598  13.478   0.729   8.539
 2275SOL    HW1 8599  13.485   0.777   8.456
 2275SOL    HW2 8600  13.397   0.761   8.578
 2276SOL     OW 8601   9.306   9.646  14.327
 2276SOL    HW1 8602   9.216   9.631  14.357
 2276SOL    HW2 8603   9.316   9.742  14.330
 2277SOL     OW 8604   4.763  10.386   9.103
 2277SOL    HW1 8605   4.672  10.402   9.129
 2277SOL    HW2 8606   4.814  10.402   9.182
 2278SOL     OW 8607   3.460   7.155   9.728
 2278SOL    HW1 8608   3.515   7.126   9.655
 2278SOL    HW2 8609   3.521   7.196   9.789
 2279SOL     OW 8610   3.923   9.609   6.647
 2279SOL    HW1 8611   3.831   9.597   6.670
 2279SOL    HW2 8612   3.968   9.536   6.689
 2280SOL     OW 8613   1.489  10.204  14.176
 2280SOL    HW1 8614   1.461  10.279  14.124
 2280SOL    HW2 8615   1.527  10.243  14.255
 2281SOL     OW 8616   2.848   6.190   4.725
 2281SOL    HW1 8617   2.898   6.205   4.804
 2281SOL    HW2 8618   2.812   6.276   4.702
 2282SOL     OW 8619   6.592  12.574   7.809
 2282SOL    HW1 8620   6.642  12.493   7.818
 2282SOL    HW2 8621   6.517  12.562   7.867
 2283SOL     OW 8622  14.820   7.189  13.197
 2283SOL    HW1 8623  14.774   7.238  13.265
 2283SOL    HW2 8624  14.751   7.160  13.137
 2284SOL     OW 8625   0.416   1.090   8.850
 2284SOL    HW1 8626   0.422   1.151   8.776
 2284SOL    HW2 8627   0.332   1.112   8.892
 2285SOL     OW 8628   2.619   3.682   0.790
 2285SOL    HW1 8629   2.580   3.756   0.744
 2285SOL    HW2 8630   2.655   3.718   0.870
 2286SOL     OW 8631   0.335  11.973   8.478
 2286SOL    HW1 8632   0.324  12.038   8.408
 2286SOL    HW2 8633   0.250  11.930   8.484
 2287SOL     OW 8634  12.561  12.277   3.231
 2287SOL    HW1 8635  12.642  12.229   3.249
 2287SOL    HW2 8636  12.561  12.349   3.294
 2288SOL     OW 8637   0.198   1.535   6.140
 2288SOL    HW1 8638   0.267   1.476   6.109
 2288SOL    HW2 8639   0.231   1.570   6.222
 2289SOL     OW 8640  12.747   2.283  14.262
 2289SOL    HW1 8641  12.817   2.222  14.238
 2289SOL    HW2 8642  12.793   2.359  14.298
 2290SOL     OW 8643   5.753   2.429   8.280
 2290SOL    HW1 8644   5.793   2.401   8.362
 2290SOL    HW2 8645   5.787   2.367   8.215
 2291SOL     OW 8646   1.600   9.572   4.708
 2291SOL    HW1 8647   1.620   9.665   4.707
 2291SOL    HW2 8648   1.685   9.529   4.697
 2292SOL     OW 8649   3.310   7.303  10.939
 2292SOL    HW1 8650   3.238   7.297  10.876
 2292SOL    HW2 8651   3.364   7.375  10.906
 2293SOL     OW 8652   5.870   7.688   7.005
 2293SOL    HW1 8653   5.849   7.601   6.970
 2293SOL    HW2 8654   5.864   7.678   7.100
 2294SOL     OW 8655   9.912   7.416   2.105
 2294SOL    HW1 8656   9.918   7.446   2.196
 2294SOL    HW2 8657   9.853   7.479   2.063
 2295SOL     OW 8658   7.933   0.358   4.637
 2295SOL    HW1 8659   7.843   0.338   4.665
 2295SOL    HW2 8660   7.933   0.343   4.543
 2296SOL     OW 8661  12.552  10.471   7.844
 2296SOL    HW1 8662  12.504  10.403   7.891
 2296SOL    HW2 8663  12.560  10.542   7.908
 2297SOL     OW 8664  13.185   8.115  13.614
 2297SOL    HW1 8665  13.125   8.187  13.590
 2297SOL    HW2 8666  13.232   8.148  13.691
 2298SOL     OW 8667   1.603   1.860   4.522
 2298SOL    HW1 8668   1.596   1.804   4.599
 2298SOL    HW2 8669   1.594   1.949   4.556
 2299SOL     OW 8670   5.257   5.216   1.350
 2299SOL    HW1 8671   5.333   5.167   1.317
 2299SOL    HW2 8672   5.189   5.202   1.285
 2300SOL     OW 8673   9.397  11.214  12.555
 2300SOL    HW1 8674   9.316  11.174  12.585
 2300SOL    HW2 8675   9.371  11.301  12.525
 2301SOL     OW 8676  13.087   3.381  10.890
 2301SOL    HW1 8677  13.168   3.333  10.871
 2301SOL    HW2 8678  13.045   3.331  10.960
 2302SOL     OW 8679   4.238   5.034   4.547
 2302SOL    HW1 8680   4.236   5.109   4.487
 2302SOL    HW2 8681   4.301   5.058   4.614
 2303SOL     OW 8682  13.170  13.651   5.572
 2303SOL    HW1 8683  13.180  13.608   5.657
 2303SOL    HW2 8684  13.084  13.623   5.541
 2304SOL     OW 8685  10.871   1.957   2.845
 2304SOL    HW1 8686  10.894   2.034   2.792
 2304SOL    HW2 8687  10.795   1.920   2.802
 2305SOL     OW 8688   3.978  13.881  12.826
 2305SOL    HW1 8689   4.057  13.912  12.781
 2305SOL    HW2 8690   3.975  13.787  12.809
 2306SOL     OW 8691   1.349  13.230  12.619
 2306SOL    HW1 8692   1.342  13.144  12.661
 2306SOL    HW2 8693   1.376  13.211  12.529
 2307SOL     OW 8694   1.799   3.205  10.936
 2307SOL    HW1 8695   1.863   3.136  10.953
 2307SOL    HW2 8696   1.851   3.285  10.931
 2308SOL     OW 8697   9.104   8.525   7.496
 2308SOL    HW1 8698   9.128   8.432   7.492
 2308SOL    HW2 8699   9.008   8.525   7.491
 2309SOL     OW 8700  13.468   6.991   7.602
 2309SOL    HW1 8701  13.386   6.967   7.559
 2309SOL    HW2 8702  13.494   6.913   7.650
 2310SOL     OW 8703   5.312  13.674  12.569
 2310SOL    HW1 8704   5.310  13.738  12.640
 2310SOL    HW2 8705   5.391  13.622  12.586
 2311SOL     OW 8706  10.412  14.864   8.218
 2311SOL    HW1 8707  10.366   0.066   8.228
 2311SOL    HW2 8708  10.476  14.880   8.148
 2312SOL     OW 8709   5.810   0.354   5.247
 2312SOL    HW1 8710   5.778   0.277   5.199
 2312SOL    HW2 8711   5.834   0.417   5.178
 2313SOL     OW 8712  14.339  13.749  12.520
 2313SOL    HW1 8713  14.418  13.729  12.570
 2313SOL    HW2 8714  14.303  13.663  12.495
 2314SOL     OW 8715   6.170  12.014   9.405
 2314SOL    HW1 8716   6.084  12.016   9.363
 2314SOL    HW2 8717   6.155  11.966   9.487
 2315SOL     OW 8718  14.368   0.266   8.520
 2315SOL    HW1 8719  14.342   0.180   8.485
 2315SOL    HW2 8720  14.306   0.282   8.591
 2316SOL     OW 8721  14.735   8.655   9.814
 2316SOL    HW1 8722  14.762   8.735   9.859
 2316SOL    HW2 8723  14.713   8.594   9.885
 2317SOL     OW 8724   8.484  12.817  11.889
 2317SOL    HW1 8725   8.462  12.910  11.890
 2317SOL    HW2 8726   8.406  12.775  11.851
 2318SOL     OW 8727   0.803  11.044   3.991
 2318SOL    HW1 8728   0.891  11.040   3.953
 2318SOL    HW2 8729   0.794  10.962   4.040
 2319SOL     OW 8730   4.077   6.938  12.695
 2319SOL    HW1 8731   4.136   6.959  12.767
 2319SOL    HW2 8732   4.049   6.848  12.712
 2320SOL     OW 8733   3.477   4.299   1.226
 2320SOL    HW1 8734   3.560   4.281   1.181
 2320SOL    HW2 8735   3.496   4.285   1.319
 2321SOL     OW 8736   6.695  10.627  13.935
 2321SOL    HW1 8737   6.738  10.700  13.892
 2321SOL    HW2 8738   6.610  10.661  13.962
 2322SOL     OW 8739   1.240   2.478  10.133
 2322SOL    HW1 8740   1.298   2.480  10.209
 2322SOL    HW2 8741   1.214   2.569  10.120
 2323SOL     OW 8742   6.697   2.716   0.496
 2323SOL    HW1 8743   6.666   2.752   0.413
 2323SOL    HW2 8744   6.654   2.630   0.502
 2324SOL     OW 8745  10.224   3.076   0.384
 2324SOL    HW1 8746  10.180   3.055   0.467
 2324SOL    HW2 8747  10.165   3.136   0.340
 2325SOL     OW 8748   0.745   0.521  13.842
 2325SOL    HW1 8749   0.814   0.531  13.908
 2325SOL    HW2 8750   0.772   0.445  13.791
 2326SOL     OW 8751   3.716  13.918   2.738
 2326SOL    HW1 8752   3.636  13.971   2.746
 2326SOL    HW2 8753   3.784  13.971   2.781
 2327SOL     OW 8754  11.441   6.980   3.180
 2327SOL    HW1 8755  11.377   7.050   3.196
 2327SOL    HW2 8756  11.472   6.996   3.091
 2328SOL     OW 8757   0.708   9.479   6.278
 2328SOL    HW1 8758   0.727   9.517   6.192
 2328SOL    HW2 8759   0.757   9.534   6.339
 2329SOL     OW 8760  11.605   8.587  13.034
 2329SOL    HW1 8761  11.538   8.588  13.102
 2329SOL    HW2 8762  11.628   8.679  13.021
 2330SOL     OW 8763  13.004  11.906   8.126
 2330SOL    HW1 8764  13.036  11.930   8.213
 2330SOL    HW2 8765  12.917  11.869   8.142
 2331SOL     OW 8766  13.146   2.213   5.312
 2331SOL    HW1 8767  13.094   2.135   5.327
 2331SOL    HW2 8768  13.233   2.180   5.288
 2332SOL     OW 8769   9.253   9.250  14.653
 2332SOL    HW1 8770   9.298   9.304  14.589
 2332SOL    HW2 8771   9.265   9.296  14.736
 2333SOL     OW 8772  13.325   5.230  10.649
 2333SOL    HW1 8773  13.368   5.180  10.580
 2333SOL    HW2 8774  13.242   5.257  10.611
 2334SOL     OW 8775   2.144   2.737  11.008
 2334SOL    HW1 8776   2.221   2.746  10.952
 2334SOL    HW2 8777   2.156   2.801  11.078
 2335SOL     OW 8778   6.989   7.910   7.095
 2335SOL    HW1 8779   6.968   7.969   7.023
 2335SOL    HW2 8780   6.963   7.823   7.064
 2336SOL     OW 8781   1.570   6.314  11.325
 2336SOL    HW1 8782   1.500   6.261  11.287
 2336SOL    HW2 8783   1.526   6.370  11.388
 2337SOL     OW 8784  12.890  13.182  14.146
 2337SOL    HW1 8785  12.826  13.253  14.144
 2337SOL    HW2 8786  12.864  13.129  14.220
 2338SOL     OW 8787  10.705   0.259   2.687
 2338SOL    HW1 8788  10.772   0.191   2.692
 2338SOL    HW2 8789  10.693   0.287   2.778
 2339SOL     OW 8790  12.799   4.648   7.311
 2339SOL    HW1 8791  12.826   4.692   7.392
 2339SOL    HW2 8792  12.829   4.558   7.321
 2340SOL     OW 8793   1.206   2.588   4.853
 2340SOL    HW1 8794   1.208   2.641   4.933
 2340SOL    HW2 8795   1.264   2.633   4.792
 2341SOL     OW 8796  11.087  13.330   7.419
 2341SOL    HW1 8797  11.126  13.247   7.390
 2341SOL    HW2 8798  11.156  13.374   7.468
 2342SOL     OW 8799   1.392  11.649   4.301
 2342SOL    HW1 8800   1.418  11.568   4.344
 2342SOL    HW2 8801   1.381  11.712   4.373
 2343SOL     OW 8802   1.407   5.757  12.614
 2343SOL    HW1 8803   1.432   5.848  12.633
 2343SOL    HW2 8804   1.398   5.754  12.519
 2344SOL     OW 8805   3.263  10.128   4.252
 2344SOL    HW1 8806   3.168  10.126   4.264
 2344SOL    HW2 8807   3.277  10.092   4.164
 2345SOL     OW 8808   7.848   9.778   5.327
 2345SOL    HW1 8809   7.802   9.780   5.243
 2345SOL    HW2 8810   7.797   9.716   5.380
 2346SOL     OW 8811   3.315   0.764   6.748
 2346SOL    HW1 8812   3.245   0.827   6.763
 2346SOL    HW2 8813   3.395   0.810   6.776
 2347SOL     OW 8814   4.641   6.637  12.232
 2347SOL    HW1 8815   4.729   6.656  12.263
 2347SOL    HW2 8816   4.600   6.590  12.305
 2348SOL     OW 8817   6.149  12.369   9.269
 2348SOL    HW1 8818   6.186  12.455   9.247
 2348SOL    HW2 8819   6.216  12.329   9.325
 2349SOL     OW 8820  12.140  12.376   2.447
 2349SOL    HW1 8821  12.061  12.385   2.394
 2349SOL    HW2 8822  12.203  12.437   2.407
 2350SOL     OW 8823   4.147   0.185   9.149
 2350SOL    HW1 8824   4.064   0.141   9.173
 2350SOL    HW2 8825   4.194   0.192   9.232
 2351SOL     OW 8826  13.017   6.293   6.078
 2351SOL    HW1 8827  13.001   6.379   6.041
 2351SOL    HW2 8828  12.988   6.300   6.169
 2352SOL     OW 8829  13.302   8.300  12.533
 2352SOL    HW1 8830  13.320   8.217  12.576
 2352SOL    HW2 8831  13.310   8.281  12.439
 2353SOL     OW 8832   1.033   6.543   0.893
 2353SOL    HW1 8833   1.033   6.448   0.879
 2353SOL    HW2 8834   1.017   6.553   0.987
 2354SOL     OW 8835   7.598  12.665   4.178
 2354SOL    HW1 8836   7.530  12.730   4.160
 2354SOL    HW2 8837   7.611  12.620   4.094
 2355SOL     OW 8838   6.454  14.843   0.651
 2355SOL    HW1 8839   6.454  14.753   0.618
 2355SOL    HW2 8840   6.545  14.872   0.642
 2356SOL     OW 8841  11.973   5.845   9.889
 2356SOL    HW1 8842  12.054   5.832   9.841
 2356SOL    HW2 8843  11.906   5.859   9.822
 2357SOL     OW 8844  11.950   1.451  10.935
 2357SOL    HW1 8845  12.022   1.421  10.989
 2357SOL    HW2 8846  11.874   1.449  10.994
 2358SOL     OW 8847   8.684   9.481   9.484
 2358SOL    HW1 8848   8.605   9.460   9.534
 2358SOL    HW2 8849   8.661   9.462   9.393
 2359SOL     OW 8850  11.333   8.042   2.601
 2359SOL    HW1 8851  11.392   8.000   2.665
 2359SOL    HW2 8852  11.283   8.105   2.653
 2360SOL     OW 8853  12.110  13.413   3.544
 2360SOL    HW1 8854  12.101  13.508   3.555
 2360SOL    HW2 8855  12.027  13.386   3.504
 2361SOL     OW 8856   7.237   7.423  12.211
 2361SOL    HW1 8857   7.208   7.510  12.239
 2361SOL    HW2 8858   7.250   7.374  12.292
 2362SOL     OW 8859  14.560   5.394   5.075
 2362SOL    HW1 8860  14.549   5.343   5.155
 2362SOL    HW2 8861  14.637   5.355   5.033
 2363SOL     OW 8862   0.167   3.829  10.450
 2363SOL    HW1 8863   0.186   3.738  10.428
 2363SOL    HW2 8864   0.248   3.876  10.432
 2364SOL     OW 8865  10.784  11.087   1.526
 2364SOL    HW1 8866  10.736  11.010   1.557
 2364SOL    HW2 8867  10.733  11.161   1.559
 2365SOL     OW 8868  13.882  14.762   3.404
 2365SOL    HW1 8869  13.817  14.702   3.368
 2365SOL    HW2 8870  13.904  14.820   3.331
 2366SOL     OW 8871   9.191   3.608   7.004
 2366SOL    HW1 8872   9.223   3.578   6.919
 2366SOL    HW2 8873   9.097   3.592   7.002
 2367SOL     OW 8874   1.432   9.560   1.314
 2367SOL    HW1 8875   1.383   9.631   1.272
 2367SOL    HW2 8876   1.492   9.605   1.374
 2368SOL     OW 8877  14.005   7.133  14.328
 2368SOL    HW1 8878  13.956   7.215  14.334
 2368SOL    HW2 8879  13.999   7.096  14.416
 2369SOL     OW 8880  13.665   1.298   7.794
 2369SOL    HW1 8881  13.571   1.289   7.811
 2369SOL    HW2 8882  13.670   1.334   7.705
 2370SOL     OW 8883   5.943   2.727   5.017
 2370SOL    HW1 8884   5.971   2.807   4.973
 2370SOL    HW2 8885   6.022   2.673   5.022
 2371SOL     OW 8886  11.254   7.133   9.210
 2371SOL    HW1 8887  11.218   7.091   9.133
 2371SOL    HW2 8888  11.279   7.061   9.268
 2372SOL     OW 8889   5.154   5.604   0.693
 2372SOL    HW1 8890   5.097   5.632   0.621
 2372SOL    HW2 8891   5.203   5.530   0.658
 2373SOL     OW 8892   1.145   4.468  12.312
 2373SOL    HW1 8893   1.097   4.538  12.267
 2373SOL    HW2 8894   1.217   4.513  12.357
 2374SOL     OW 8895   5.615   0.876  11.982
 2374SOL    HW1 8896   5.683   0.908  11.923
 2374SOL    HW2 8897   5.655   0.802  12.028
 2375SOL     OW 8898   1.943   9.462   2.734
 2375SOL    HW1 8899   2.027   9.433   2.699
 2375SOL    HW2 8900   1.886   9.385   2.727
 2376SOL     OW 8901   2.005   0.460   9.468
 2376SOL    HW1 8902   2.018   0.431   9.378
 2376SOL    HW2 8903   2.093   0.479   9.500
 2377SOL     OW 8904   6.971   0.789   6.497
 2377SOL    HW1 8905   6.945   0.858   6.558
 2377SOL    HW2 8906   6.988   0.713   6.552
 2378SOL     OW 8907  12.507  10.900   0.597
 2378SOL    HW1 8908  12.416  10.927   0.592
 2378SOL    HW2 8909  12.513  10.824   0.539
 2379SOL     OW 8910   0.403   2.488  13.232
 2379SOL    HW1 8911   0.385   2.395  13.216
 2379SOL    HW2 8912   0.317   2.530  13.233
 2380SOL     OW 8913   1.290   3.930   8.827
 2380SOL    HW1 8914   1.203   3.940   8.865
 2380SOL    HW2 8915   1.278   3.873   8.752
 2381SOL     OW 8916   1.156  10.335   8.915
 2381SOL    HW1 8917   1.193  10.409   8.963
 2381SOL    HW2 8918   1.182  10.350   8.825
 2382SOL     OW 8919   9.786   0.019   6.004
 2382SOL    HW1 8920   9.777  14.811   5.971
 2382SOL    HW2 8921   9.702   0.038   6.046
 2383SOL     OW 8922   3.309   8.101   4.408
 2383SOL    HW1 8923   3.335   8.193   4.422
 2383SOL    HW2 8924   3.284   8.070   4.494
 2384SOL     OW 8925  10.345   8.964   3.973
 2384SOL    HW1 8926  10.257   8.931   3.991
 2384SOL    HW2 8927  10.389   8.963   4.058
 2385SOL     OW 8928   6.665   0.258   0.988
 2385SOL    HW1 8929   6.700   0.220   0.907
 2385SOL    HW2 8930   6.578   0.288   0.965
 2386SOL     OW 8931   5.041   9.990   5.815
 2386SOL    HW1 8932   5.007  10.075   5.788
 2386SOL    HW2 8933   4.980   9.960   5.882
 2387SOL     OW 8934   1.884   1.680  14.689
 2387SOL    HW1 8935   1.883   1.611  14.622
 2387SOL    HW2 8936   1.949   1.650  14.753
 2388SOL     OW 8937   7.310   2.487  13.584
 2388SOL    HW1 8938   7.300   2.462  13.676
 2388SOL    HW2 8939   7.404   2.476  13.567
 2389SOL     OW 8940   8.187  13.237   9.542
 2389SOL    HW1 8941   8.117  13.196   9.492
 2389SOL    HW2 8942   8.143  13.308   9.591
 2390SOL     OW 8943  11.425   5.644   3.197
 2390SOL    HW1 8944  11.520   5.635   3.204
 2390SOL    HW2 8945  11.410   5.738   3.185
 2391SOL     OW 8946   1.426   1.187   1.573
 2391SOL    HW1 8947   1.382   1.243   1.638
 2391SOL    HW2 8948   1.361   1.175   1.504
 2392SOL     OW 8949   8.150   7.237   6.308
 2392SOL    HW1 8950   8.088   7.187   6.361
 2392SOL    HW2 8951   8.101   7.256   6.227
 2393SOL     OW 8952   3.367  11.513   1.622
 2393SOL    HW1 8953   3.352  11.432   1.574
 2393SOL    HW2 8954   3.281  11.535   1.659
 2394SOL     OW 8955  10.812  13.286   1.168
 2394SOL    HW1 8956  10.733  13.245   1.204
 2394SOL    HW2 8957  10.790  13.379   1.162
 2395SOL     OW 8958   7.565   1.086  11.868
 2395SOL    HW1 8959   7.541   0.994  11.856
 2395SOL    HW2 8960   7.615   1.108  11.790
 2396SOL     OW 8961  14.267  13.773   1.742
 2396SOL    HW1 8962  14.317  13.745   1.819
 2396SOL    HW2 8963  14.329  13.766   1.669
 2397SOL     OW 8964   4.998   2.730   1.044
 2397SOL    HW1 8965   4.942   2.808   1.053
 2397SOL    HW2 8966   4.957   2.665   1.101
 2398SOL     OW 8967   4.787   4.538   3.131
 2398SOL    HW1 8968   4.861   4.479   3.146
 2398SOL    HW2 8969   4.715   4.499   3.180
 2399SOL     OW 8970   1.452   6.210   7.898
 2399SOL    HW1 8971   1.438   6.303   7.916
 2399SOL    HW2 8972   1.446   6.202   7.803
 2400SOL     OW 8973  10.391  12.183   2.391
 2400SOL    HW1 8974  10.457  12.199   2.323
 2400SOL    HW2 8975  10.390  12.087   2.400
 2401SOL     OW 8976  10.600   3.524   0.910
 2401SOL    HW1 8977  10.637   3.573   0.984
 2401SOL    HW2 8978  10.507   3.547   0.909
 2402SOL     OW 8979  11.237   5.924  13.977
 2402SOL    HW1 8980  11.234   5.850  13.916
 2402SOL    HW2 8981  11.224   5.885  14.063
 2403SOL     OW 8982   4.917  12.659   8.683
 2403SOL    HW1 8983   4.924  12.750   8.652
 2403SOL    HW2 8984   4.824  12.638   8.676
 2404SOL     OW 8985   1.268   8.463  10.190
 2404SOL    HW1 8986   1.316   8.530  10.239
 2404SOL    HW2 8987   1.180   8.465  10.228
 2405SOL     OW 8988   1.243   7.594  10.383
 2405SOL    HW1 8989   1.324   7.549  10.360
 2405SOL    HW2 8990   1.249   7.607  10.478
 2406SOL     OW 8991  10.592  14.129   0.826
 2406SOL    HW1 8992  10.675  14.148   0.781
 2406SOL    HW2 8993  10.546  14.070   0.766
 2407SOL     OW 8994   3.533   3.640   0.102
 2407SOL    HW1 8995   3.469   3.579   0.139
 2407SOL    HW2 8996   3.588   3.665   0.176
 2408SOL     OW 8997   4.967  13.108  11.513
 2408SOL    HW1 8998   4.989  13.088  11.421
 2408SOL    HW2 8999   5.031  13.174  11.539
 2409SOL     OW 9000   7.628  11.263   6.096
 2409SOL    HW1 9001   7.587  11.348   6.108
 2409SOL    HW2 9002   7.704  11.265   6.153
 2410SOL     OW 9003   0.417   2.957   0.168
 2410SOL    HW1 9004   0.431   2.903   0.091
 2410SOL    HW2 9005   0.469   3.036   0.152
 2411SOL     OW 9006   7.070  11.545   1.350
 2411SOL    HW1 9007   7.055  11.489   1.427
 2411SOL    HW2 9008   7.022  11.625   1.370
 2412SOL     OW 9009  11.398   1.015   7.795
 2412SOL    HW1 9010  11.364   1.048   7.878
 2412SOL    HW2 9011  11.339   0.943   7.772
 2413SOL     OW 9012   1.362   4.609   0.747
 2413SOL    HW1 9013   1.290   4.552   0.773
 2413SOL    HW2 9014   1.332   4.698   0.767
 2414SOL     OW 9015   6.025   1.612   3.674
 2414SOL    HW1 9016   6.099   1.639   3.728
 2414SOL    HW2 9017   5.953   1.668   3.702
 2415SOL     OW 9018  13.677   9.790   4.553
 2415SOL    HW1 9019  13.611   9.761   4.490
 2415SOL    HW2 9020  13.645   9.875   4.584
 2416SOL     OW 9021   4.214   2.531   5.593
 2416SOL    HW1 9022   4.205   2.444   5.632
 2416SOL    HW2 9023   4.283   2.521   5.528
 2417SOL     OW 9024   3.738   2.021  12.551
 2417SOL    HW1 9025   3.651   2.018  12.512
 2417SOL    HW2 9026   3.795   1.979  12.486
 2418SOL     OW 9027   9.984   1.107   4.662
 2418SOL    HW1 9028   9.990   1.198   4.633
 2418SOL    HW2 9029  10.073   1.086   4.692
 2419SOL     OW 9030   0.412   6.522   5.032
 2419SOL    HW1 9031   0.459   6.518   4.949
 2419SOL    HW2 9032   0.412   6.615   5.055
 2420SOL     OW 9033   0.095  13.256   0.006
 2420SOL    HW1 9034   0.045  13.178  14.868
 2420SOL    HW2 9035   0.181  13.224   0.032
 2421SOL     OW 9036   3.172   6.938   9.132
 2421SOL    HW1 9037   3.128   7.010   9.089
 2421SOL    HW2 9038   3.102   6.876   9.154
 2422SOL     OW 9039   7.657   8.229   8.821
 2422SOL    HW1 9040   7.710   8.229   8.901
 2422SOL    HW2 9041   7.717   8.201   8.752
 2423SOL     OW 9042  13.194   9.484  12.873
 2423SOL    HW1 9043  13.153   9.496  12.788
 2423SOL    HW2 9044  13.141   9.417  12.916
 2424SOL     OW 9045  11.325   5.992   7.823
 2424SOL    HW1 9046  11.390   6.021   7.759
 2424SOL    HW2 9047  11.373   5.983   7.905
 2425SOL     OW 9048   0.787   0.247  10.208
 2425SOL    HW1 9049   0.805   0.341  10.204
 2425SOL    HW2 9050   0.872   0.206  10.194
 2426SOL     OW 9051   6.396   1.907   3.916
 2426SOL    HW1 9052   6.449   1.907   3.837
 2426SOL    HW2 9053   6.373   1.998   3.930
 2427SOL     OW 9054   5.323  11.554   7.849
 2427SOL    HW1 9055   5.271  11.633   7.834
 2427SOL    HW2 9056   5.412  11.579   7.827
 2428SOL     OW 9057   6.476   5.471  13.499
 2428SOL    HW1 9058   6.545   5.538  13.500
 2428SOL    HW2 9059   6.518   5.394  13.537
 2429SOL     OW 9060   8.682  14.700   1.974
 2429SOL    HW1 9061   8.703  14.660   1.889
 2429SOL    HW2 9062   8.619  14.770   1.952
 2430SOL     OW 9063  14.501   3.325  12.370
 2430SOL    HW1 9064  14.541   3.340  12.456
 2430SOL    HW2 9065  14.415   3.368  12.376
 2431SOL     OW 9066   7.517   3.680   2.928
 2431SOL    HW1 9067   7.463   3.747   2.970
 2431SOL    HW2 9068   7.471   3.659   2.847
 2432SOL     OW 9069   6.271   1.439   4.820
 2432SOL    HW1 9070   6.320   1.410   4.897
 2432SOL    HW2 9071   6.251   1.359   4.773
 2433SOL     OW 9072   0.770   3.140  10.117
 2433SOL    HW1 9073   0.820   3.062  10.092
 2433SOL    HW2 9074   0.773   3.196  10.039
 2434SOL     OW 9075  13.638   2.069   3.349
 2434SOL    HW1 9076  13.633   2.021   3.266
 2434SOL    HW2 9077  13.644   2.161   3.323
 2435SOL     OW 9078   2.537   6.327   1.304
 2435SOL    HW1 9079   2.538   6.405   1.248
 2435SOL    HW2 9080   2.605   6.343   1.369
 2436SOL     OW 9081   2.549   9.299   3.049
 2436SOL    HW1 9082   2.492   9.314   2.974
 2436SOL    HW2 9083   2.569   9.205   3.046
 2437SOL     OW 9084   3.493  13.421  10.991
 2437SOL    HW1 9085   3.536  13.447  10.909
 2437SOL    HW2 9086   3.417  13.480  10.997
 2438SOL     OW 9087   2.560  10.206   1.511
 2438SOL    HW1 9088   2.482  10.182   1.561
 2438SOL    HW2 9089   2.613  10.127   1.510
 2439SOL     OW 9090  12.841   1.654  14.000
 2439SOL    HW1 9091  12.860   1.656  13.906
 2439SOL    HW2 9092  12.783   1.579  14.012
 2440SOL     OW 9093  13.932  12.499   8.418
 2440SOL    HW1 9094  14.008  12.462   8.374
 2440SOL    HW2 9095  13.948  12.483   8.511
 2441SOL     OW 9096   2.137   1.769   3.565
 2441SOL    HW1 9097   2.105   1.751   3.476
 2441SOL    HW2 9098   2.103   1.857   3.584
 2442SOL     OW 9099   8.079   8.229   1.162
 2442SOL    HW1 9100   8.065   8.267   1.075
 2442SOL    HW2 9101   8.139   8.156   1.147
 2443SOL     OW 9102  14.606   7.103   1.851
 2443SOL    HW1 9103  14.558   7.020   1.851
 2443SOL    HW2 9104  14.632   7.115   1.760
 2444SOL     OW 9105  11.335   2.601  10.157
 2444SOL    HW1 9106  11.402   2.600  10.226
 2444SOL    HW2 9107  11.368   2.543  10.089
 2445SOL     OW 9108   2.252  13.986   5.603
 2445SOL    HW1 9109   2.171  13.948   5.568
 2445SOL    HW2 9110   2.314  13.979   5.530
 2446SOL     OW 9111   6.762   6.853  12.999
 2446SOL    HW1 9112   6.774   6.765  12.964
 2446SOL    HW2 9113   6.667   6.862  13.008
 2447SOL     OW 9114  13.640  10.393   2.434
 2447SOL    HW1 9115  13.672  10.409   2.345
 2447SOL    HW2 9116  13.700  10.441   2.490
 2448SOL     OW 9117  10.081   6.296   5.618
 2448SOL    HW1 9118  10.020   6.347   5.671
 2448SOL    HW2 9119  10.151   6.357   5.596
 2449SOL     OW 9120   5.448  11.513  11.973
 2449SOL    HW1 9121   5.480  11.516  11.883
 2449SOL    HW2 9122   5.362  11.470  11.966
 2450SOL     OW 9123   7.903   2.136   6.888
 2450SOL    HW1 9124   7.832   2.137   6.953
 2450SOL    HW2 9125   7.916   2.043   6.869
 2451SOL     OW 9126   1.024   0.299  13.422
 2451SOL    HW1 9127   0.997   0.369  13.362
 2451SOL    HW2 9128   1.106   0.267  13.385
 2452SOL     OW 9129   1.700   4.623  12.839
 2452SOL    HW1 9130   1.720   4.530  12.833
 2452SOL    HW2 9131   1.693   4.652  12.748
 2453SOL     OW 9132   1.757   1.415   8.622
 2453SOL    HW1 9133   1.757   1.377   8.534
 2453SOL    HW2 9134   1.848   1.410   8.650
 2454SOL     OW 9135  14.774   1.786   5.255
 2454SOL    HW1 9136  14.754   1.792   5.161
 2454SOL    HW2 9137  14.759   1.694   5.277
 2455SOL     OW 9138  12.764   2.808   9.091
 2455SOL    HW1 9139  12.685   2.799   9.144
 2455SOL    HW2 9140  12.776   2.903   9.084
 2456SOL     OW 9141   2.308   0.453   3.095
 2456SOL    HW1 9142   2.319   0.458   3.000
 2456SOL    HW2 9143   2.225   0.499   3.112
 2457SOL     OW 9144  13.101   4.195  12.797
 2457SOL    HW1 9145  13.115   4.262  12.864
 2457SOL    HW2 9146  13.100   4.243  12.714
 2458SOL     OW 9147   2.322   3.824   1.173
 2458SOL    HW1 9148   2.251   3.764   1.195
 2458SOL    HW2 9149   2.357   3.790   1.090
 2459SOL     OW 9150   9.925   8.913   1.288
 2459SOL    HW1 9151   9.836   8.948   1.296
 2459SOL    HW2 9152   9.931   8.846   1.356
 2460SOL     OW 9153  14.070   9.961   7.378
 2460SOL    HW1 9154  14.088   9.884   7.432
 2460SOL    HW2 9155  14.076  10.035   7.440
 2461SOL     OW 9156  11.020   8.186   1.856
 2461SOL    HW1 9157  11.049   8.273   1.828
 2461SOL    HW2 9158  11.100   8.133   1.858
 2462SOL     OW 9159   8.879   6.177  14.680
 2462SOL    HW1 9160   8.926   6.257  14.658
 2462SOL    HW2 9161   8.871   6.180  14.775
 2463SOL     OW 9162   9.643   4.539   9.068
 2463SOL    HW1 9163   9.548   4.532   9.065
 2463SOL    HW2 9164   9.666   4.594   8.992
 2464SOL     OW 9165  10.904   5.730   8.847
 2464SOL    HW1 9166  10.896   5.825   8.857
 2464SOL    HW2 9167  10.834   5.707   8.786
 2465SOL     OW 9168  10.562   2.873  14.748
 2465SOL    HW1 9169  10.588   2.912  14.665
 2465SOL    HW2 9170  10.577   2.942  14.813
 2466SOL     OW 9171   1.539  13.764  12.213
 2466SOL    HW1 9172   1.567  13.853  12.235
 2466SOL    HW2 9173   1.470  13.744  12.277
 2467SOL     OW 9174   9.915   5.863   7.123
 2467SOL    HW1 9175   9.820   5.871   7.116
 2467SOL    HW2 9176   9.943   5.828   7.039
 2468SOL     OW 9177   0.176   8.988   2.192
 2468SOL    HW1 9178   0.139   8.970   2.278
 2468SOL    HW2 9179   0.106   8.967   2.131
 2469SOL     OW 9180   4.847  11.891   7.633
 2469SOL    HW1 9181   4.784  11.843   7.687
 2469SOL    HW2 9182   4.891  11.950   7.694
 2470SOL     OW 9183  10.940   2.952  13.673
 2470SOL    HW1 9184  10.902   3.040  13.681
 2470SOL    HW2 9185  10.899   2.915  13.595
 2471SOL     OW 9186  13.689   8.047   4.837
 2471SOL    HW1 9187  13.659   8.129   4.878
 2471SOL    HW2 9188  13.720   8.074   4.751
 2472SOL     OW 9189   9.620   3.313  12.685
 2472SOL    HW1 9190   9.666   3.394  12.663
 2472SOL    HW2 9191   9.683   3.262  12.736
 2473SOL     OW 9192  11.726   9.194   1.734
 2473SOL    HW1 9193  11.710   9.158   1.821
 2473SOL    HW2 9194  11.810   9.156   1.707
 2474SOL     OW 9195   0.794   6.502  10.884
 2474SOL    HW1 9196   0.851   6.427  10.867
 2474SOL    HW2 9197   0.708   6.463  10.903
 2475SOL     OW 9198   1.079   0.651   3.673
 2475SOL    HW1 9199   0.991   0.612   3.675
 2475SOL    HW2 9200   1.116   0.629   3.758
 2476SOL     OW 9201   0.342   8.239   2.406
 2476SOL    HW1 9202   0.323   8.274   2.493
 2476SOL    HW2 9203   0.403   8.166   2.422
 2477SOL     OW 9204  14.807   3.961   6.681
 2477SOL    HW1 9205  14.713   3.965   6.696
 2477SOL    HW2 9206  14.841   3.909   6.754
 2478SOL     OW 9207   3.700   2.723   0.250
 2478SOL    HW1 9208   3.744   2.774   0.318
 2478SOL    HW2 9209   3.686   2.637   0.290
 2479SOL     OW 9210   7.171   7.059  14.591
 2479SOL    HW1 9211   7.190   6.967  14.609
 2479SOL    HW2 9212   7.094   7.057  14.534
 2480SOL     OW 9213  13.438  10.202   2.827
 2480SOL    HW1 9214  13.359  10.256   2.839
 2480SOL    HW2 9215  13.408  10.112   2.843
 2481SOL     OW 9216   8.096   7.722   9.994
 2481SOL    HW1 9217   8.016   7.771   9.975
 2481SOL    HW2 9218   8.071   7.630   9.985
 2482SOL     OW 9219   5.557   7.511   6.586
 2482SOL    HW1 9220   5.510   7.534   6.505
 2482SOL    HW2 9221   5.568   7.594   6.632
 2483SOL     OW 9222   0.405   6.542   3.613
 2483SOL    HW1 9223   0.330   6.601   3.618
 2483SOL    HW2 9224   0.476   6.589   3.656
 2484SOL     OW 9225  10.641   5.778   9.705
 2484SOL    HW1 9226  10.548   5.786   9.725
 2484SOL    HW2 9227  10.646   5.708   9.641
 2485SOL     OW 9228   0.405   4.919   1.255
 2485SOL    HW1 9229   0.333   4.929   1.316
 2485SOL    HW2 9230   0.454   4.844   1.288
 2486SOL     OW 9231   5.477   5.854   6.908
 2486SOL    HW1 9232   5.388   5.830   6.884
 2486SOL    HW2 9233   5.486   5.945   6.881
 2487SOL     OW 9234   5.413   5.730   5.144
 2487SOL    HW1 9235   5.361   5.690   5.214
 2487SOL    HW2 9236   5.494   5.679   5.143
 2488SOL     OW 9237   4.899  11.618   6.523
 2488SOL    HW1 9238   4.824  11.648   6.472
 2488SOL    HW2 9239   4.942  11.698   6.553
 2489SOL     OW 9240   7.370   8.254   3.486
 2489SOL    HW1 9241   7.457   8.217   3.480
 2489SOL    HW2 9242   7.382   8.348   3.471
 2490SOL     OW 9243   5.558   5.057   5.565
 2490SOL    HW1 9244   5.641   5.011   5.575
 2490SOL    HW2 9245   5.506   5.029   5.639
 2491SOL     OW 9246  11.915   4.726  11.978
 2491SOL    HW1 9247  12.008   4.705  11.965
 2491SOL    HW2 9248  11.868   4.651  11.942
 2492SOL     OW 9249   6.207   3.365   2.164
 2492SOL    HW1 9250   6.297   3.333   2.165
 2492SOL    HW2 9251   6.214   3.455   2.194
 2493SOL     OW 9252  13.281  13.695  14.529
 2493SOL    HW1 9253  13.248  13.738  14.608
 2493SOL    HW2 9254  13.255  13.753  14.457
 2494SOL     OW 9255  14.145  10.962  11.901
 2494SOL    HW1 9256  14.131  10.870  11.876
 2494SOL    HW2 9257  14.233  10.982  11.870
 2495SOL     OW 9258   2.153  12.134  11.119
 2495SOL    HW1 9259   2.182  12.044  11.101
 2495SOL    HW2 9260   2.221  12.171  11.174
 2496SOL     OW 9261   1.636  13.179  10.501
 2496SOL    HW1 9262   1.581  13.204  10.427
 2496SOL    HW2 9263   1.575  13.144  10.566
 2497SOL     OW 9264   0.178   0.208   1.170
 2497SOL    HW1 9265   0.267   0.243   1.161
 2497SOL    HW2 9266   0.174   0.136   1.107
 2498SOL     OW 9267   6.969   1.288   8.672
 2498SOL    HW1 9268   6.905   1.352   8.701
 2498SOL    HW2 9269   6.991   1.239   8.751
 2499SOL     OW 9270  12.298  12.883   9.807
 2499SOL    HW1 9271  12.285  12.865   9.900
 2499SOL    HW2 9272  12.302  12.978   9.801
 2500SOL     OW 9273  12.616   2.965   6.195
 2500SOL    HW1 9274  12.672   2.916   6.255
 2500SOL    HW2 9275  12.662   2.960   6.111
 2501SOL     OW 9276   9.344   9.763   0.696
 2501SOL    HW1 9277   9.353   9.763   0.601
 2501SOL    HW2 9278   9.291   9.685   0.715
 2502SOL     OW 9279   7.973   4.502   7.761
 2502SOL    HW1 9280   8.029   4.545   7.697
 2502SOL    HW2 9281   7.893   4.555   7.763
 2503SOL     OW 9282   2.568  14.320  14.780
 2503SOL    HW1 9283   2.502  14.385  14.803
 2503SOL    HW2 9284   2.538  14.240  14.822
 2504SOL     OW 9285   9.735  11.420   0.786
 2504SOL    HW1 9286   9.664  11.402   0.724
 2504SOL    HW2 9287   9.794  11.346   0.776
 2505SOL     OW 9288  14.686   1.115   4.410
 2505SOL    HW1 9289  14.697   1.210   4.414
 2505SOL    HW2 9290  14.625   1.100   4.338
 2506SOL     OW 9291  11.815   7.405   7.175
 2506SOL    HW1 9292  11.762   7.482   7.155
 2506SOL    HW2 9293  11.801   7.346   7.100
 2507SOL     OW 9294   1.321   3.771   0.862
 2507SOL    HW1 9295   1.377   3.801   0.934
 2507SOL    HW2 9296   1.312   3.848   0.806
 2508SOL     OW 9297   2.605  12.331   8.386
 2508SOL    HW1 9298   2.683  12.278   8.403
 2508SOL    HW2 9299   2.603  12.342   8.291
 2509SOL     OW 9300  12.052   2.047   0.610
 2509SOL    HW1 9301  12.119   2.115   0.611
 2509SOL    HW2 9302  12.024   2.039   0.701
 2510SOL     OW 9303   6.819   0.891   1.277
 2510SOL    HW1 9304   6.746   0.944   1.308
 2510SOL    HW2 9305   6.778   0.826   1.219
 2511SOL     OW 9306  14.809  11.644  12.697
 2511SOL    HW1 9307  14.808  11.548  12.698
 2511SOL    HW2 9308  14.741  11.669  12.635
 2512SOL     OW 9309  12.880   0.028   9.682
 2512SOL    HW1 9310  12.963  14.864   9.665
 2512SOL    HW2 9311  12.826  14.844   9.725
 2513SOL     OW 9312   9.649   2.151  14.751
 2513SOL    HW1 9313   9.675   2.154  14.843
 2513SOL    HW2 9314   9.609   2.236  14.735
 2514SOL     OW 9315   8.665   7.795   0.166
 2514SOL    HW1 9316   8.743   7.818   0.116
 2514SOL    HW2 9317   8.695   7.731   0.231
 2515SOL     OW 9318  11.586  12.304   7.885
 2515SOL    HW1 9319  11.626  12.379   7.842
 2515SOL    HW2 9320  11.652  12.235   7.878
 2516SOL     OW 9321   2.344  14.500  14.861
 2516SOL    HW1 9322   2.313  14.567  14.800
 2516SOL    HW2 9323   2.355  14.547   0.062
 2517SOL     OW 9324   3.917   3.833   2.991
 2517SOL    HW1 9325   3.938   3.752   3.037
 2517SOL    HW2 9326   3.887   3.892   3.060
 2518SOL     OW 9327  12.713  11.602  11.670
 2518SOL    HW1 9328  12.797  11.556  11.672
 2518SOL    HW2 9329  12.652  11.539  11.632
 2519SOL     OW 9330   3.912  13.539  10.469
 2519SOL    HW1 9331   3.927  13.445  10.478
 2519SOL    HW2 9332   3.970  13.566  10.397
 2520SOL     OW 9333   6.323  11.597   3.460
 2520SOL    HW1 9334   6.357  11.625   3.375
 2520SOL    HW2 9335   6.228  11.605   3.451
 2521SOL     OW 9336   4.267  12.577   1.122
 2521SOL    HW1 9337   4.306  12.569   1.209
 2521SOL    HW2 9338   4.337  12.612   1.067
 2522SOL     OW 9339   0.537   0.596  12.433
 2522SOL    HW1 9340   0.463   0.553  12.476
 2522SOL    HW2 9341   0.611   0.581  12.492
 2523SOL     OW 9342   3.849   8.752  14.528
 2523SOL    HW1 9343   3.855   8.697  14.450
 2523SOL    HW2 9344   3.831   8.839  14.494
 2524SOL     OW 9345  13.286  12.250   0.025
 2524SOL    HW1 9346  13.296  12.345   0.019
 2524SOL    HW2 9347  13.193  12.237   0.042
 2525SOL     OW 9348   6.738  10.041   2.512
 2525SOL    HW1 9349   6.757   9.974   2.447
 2525SOL    HW2 9350   6.645  10.029   2.533
 2526SOL     OW 9351   0.160   2.888   6.404
 2526SOL    HW1 9352   0.067   2.893   6.385
 2526SOL    HW2 9353   0.192   2.815   6.351
 2527SOL     OW 9354   9.987  14.508   6.680
 2527SOL    HW1 9355  10.077  14.478   6.667
 2527SOL    HW2 9356   9.943  14.435   6.724
 2528SOL     OW 9357  14.136   2.684   4.627
 2528SOL    HW1 9358  14.103   2.765   4.666
 2528SOL    HW2 9359  14.097   2.614   4.680
 2529SOL     OW 9360   0.247   2.738   8.200
 2529SOL    HW1 9361   0.217   2.742   8.109
 2529SOL    HW2 9362   0.200   2.664   8.237
 2530SOL     OW 9363   5.182   9.154   2.046
 2530SOL    HW1 9364   5.164   9.242   2.080
 2530SOL    HW2 9365   5.178   9.097   2.122
 2531SOL     OW 9366   8.337   4.284   4.607
 2531SOL    HW1 9367   8.396   4.285   4.532
 2531SOL    HW2 9368   8.360   4.363   4.656
 2532SOL     OW 9369   0.457   0.717   2.922
 2532SOL    HW1 9370   0.488   0.765   2.845
 2532SOL    HW2 9371   0.394   0.654   2.887
 2533SOL     OW 9372  11.598  10.254   5.634
 2533SOL    HW1 9373  11.585  10.181   5.574
 2533SOL    HW2 9374  11.612  10.213   5.719
 2534SOL     OW 9375  13.325   0.051   7.628
 2534SOL    HW1 9376  13.319   0.037   7.722
 2534SOL    HW2 9377  13.316  14.845   7.589
 2535SOL     OW 9378   1.170   7.111   5.409
 2535SOL    HW1 9379   1.220   7.033   5.432
 2535SOL    HW2 9380   1.192   7.175   5.477
 2536SOL     OW 9381  14.158  11.195   0.089
 2536SOL    HW1 9382  14.187  11.240   0.168
 2536SOL    HW2 9383  14.081  11.144   0.117
 2537SOL     OW 9384   3.703  10.636  13.482
 2537SOL    HW1 9385   3.699  10.722  13.525
 2537SOL    HW2 9386   3.686  10.573  13.552
 2538SOL     OW 9387   4.463  11.789   8.802
 2538SOL    HW1 9388   4.486  11.697   8.791
 2538SOL    HW2 9389   4.376  11.797   8.763
 2539SOL     OW 9390  14.318   4.830  14.100
 2539SOL    HW1 9391  14.341   4.821  14.192
 2539SOL    HW2 9392  14.378   4.896  14.066
 2540SOL     OW 9393   9.973   4.707   8.257
 2540SOL    HW1 9394   9.904   4.662   8.306
 2540SOL    HW2 9395  10.047   4.709   8.318
 2541SOL     OW 9396   9.056   1.028   2.227
 2541SOL    HW1 9397   9.113   1.105   2.223
 2541SOL    HW2 9398   8.989   1.050   2.291
 2542SOL     OW 9399   1.814   5.273  10.751
 2542SOL    HW1 9400   1.852   5.203  10.805
 2542SOL    HW2 9401   1.883   5.340  10.748
 2543SOL     OW 9402   3.279   4.815   5.171
 2543SOL    HW1 9403   3.219   4.804   5.245
 2543SOL    HW2 9404   3.340   4.882   5.199
 2544SOL     OW 9405   4.850   6.665  10.920
 2544SOL    HW1 9406   4.766   6.709  10.937
 2544SOL    HW2 9407   4.895   6.666  11.005
 2545SOL     OW 9408  10.617   2.996  11.477
 2545SOL    HW1 9409  10.535   2.979  11.523
 2545SOL    HW2 9410  10.597   2.978  11.385
 2546SOL     OW 9411  13.611   6.360   8.810
 2546SOL    HW1 9412  13.696   6.364   8.765
 2546SOL    HW2 9413  13.632   6.381   8.901
 2547SOL     OW 9414   7.372   0.846   1.033
 2547SOL    HW1 9415   7.412   0.786   0.969
 2547SOL    HW2 9416   7.331   0.787   1.097
 2548SOL     OW 9417   1.286  11.989   3.347
 2548SOL    HW1 9418   1.233  11.960   3.420
 2548SOL    HW2 9419   1.248  11.945   3.271
 2549SOL     OW 9420  11.068   5.725   4.244
 2549SOL    HW1 9421  11.026   5.646   4.279
 2549SOL    HW2 9422  11.160   5.701   4.236
 2550SOL     OW 9423   4.547   4.510  11.057
 2550SOL    HW1 9424   4.479   4.511  10.989
 2550SOL    HW2 9425   4.596   4.591  11.042
 2551SOL     OW 9426   8.282   4.897  14.754
 2551SOL    HW1 9427   8.360   4.846  14.776
 2551SOL    HW2 9428   8.215   4.831  14.735
 2552SOL     OW 9429   4.839  12.874  12.078
 2552SOL    HW1 9430   4.832  12.849  12.170
 2552SOL    HW2 9431   4.885  12.958  12.080
 2553SOL     OW 9432  12.356   1.208   0.129
 2553SOL    HW1 9433  12.437   1.211   0.179
 2553SOL    HW2 9434  12.384   1.204   0.037
 2554SOL     OW 9435   6.576   3.292  12.867
 2554SOL    HW1 9436   6.575   3.329  12.778
 2554SOL    HW2 9437   6.660   3.247  12.873
 2555SOL     OW 9438   5.603   7.932   9.120
 2555SOL    HW1 9439   5.690   7.971   9.123
 2555SOL    HW2 9440   5.544   8.004   9.141
 2556SOL     OW 9441  11.270  12.726   9.407
 2556SOL    HW1 9442  11.238  12.742   9.318
 2556SOL    HW2 9443  11.364  12.741   9.402
 2557SOL     OW 9444  11.868   3.870  13.474
 2557SOL    HW1 9445  11.800   3.817  13.432
 2557SOL    HW2 9446  11.936   3.808  13.499
 2558SOL     OW 9447  12.735  13.935   1.531
 2558SOL    HW1 9448  12.708  13.941   1.623
 2558SOL    HW2 9449  12.780  14.018   1.513
 2559SOL     OW 9450   4.091   0.224   3.266
 2559SOL    HW1 9451   4.032   0.155   3.234
 2559SOL    HW2 9452   4.090   0.215   3.361
 2560SOL     OW 9453   1.416  13.487  11.299
 2560SOL    HW1 9454   1.337  13.445  11.266
 2560SOL    HW2 9455   1.390  13.524  11.384
 2561SOL     OW 9456  10.260   7.886   4.355
 2561SOL    HW1 9457  10.223   7.811   4.401
 2561SOL    HW2 9458  10.212   7.962   4.391
 2562SOL     OW 9459   8.351   4.861   6.809
 2562SOL    HW1 9460   8.443   4.873   6.836
 2562SOL    HW2 9461   8.311   4.946   6.826
 2563SOL     OW 9462   8.986  11.799   2.934
 2563SOL    HW1 9463   9.032  11.759   2.861
 2563SOL    HW2 9464   8.929  11.865   2.894
 2564SOL     OW 9465  14.480   7.035   4.930
 2564SOL    HW1 9466  14.484   6.950   4.973
 2564SOL    HW2 9467  14.567   7.046   4.891
 2565SOL     OW 9468   5.675  13.563   7.698
 2565SOL    HW1 9469   5.607  13.600   7.754
 2565SOL    HW2 9470   5.736  13.521   7.759
 2566SOL     OW 9471   4.842   4.000   0.838
 2566SOL    HW1 9472   4.899   4.029   0.767
 2566SOL    HW2 9473   4.784   3.936   0.798
 2567SOL     OW 9474   9.082   6.776  13.791
 2567SOL    HW1 9475   9.074   6.771  13.695
 2567SOL    HW2 9476   8.991   6.778  13.822
 2568SOL     OW 9477   9.694   0.587   9.952
 2568SOL    HW1 9478   9.703   0.500   9.914
 2568SOL    HW2 9479   9.779   0.605   9.993
 2569SOL     OW 9480   6.285  10.508   4.239
 2569SOL    HW1 9481   6.357  10.447   4.254
 2569SOL    HW2 9482   6.229  10.497   4.315
 2570SOL     OW 9483   4.807  11.636   7.172
 2570SOL    HW1 9484   4.893  11.660   7.206
 2570SOL    HW2 9485   4.824  11.586   7.093
 2571SOL     OW 9486  12.520   3.135   8.311
 2571SOL    HW1 9487  12.568   3.192   8.251
 2571SOL    HW2 9488  12.572   3.135   8.390
 2572SOL     OW 9489  14.364  13.326  14.631
 2572SOL    HW1 9490  14.310  13.247  14.635
 2572SOL    HW2 9491  14.305  13.396  14.660
 2573SOL     OW 9492  13.066   4.653   9.337
 2573SOL    HW1 9493  13.004   4.656   9.411
 2573SOL    HW2 9494  13.116   4.573   9.352
 2574SOL     OW 9495   3.681   9.624   3.223
 2574SOL    HW1 9496   3.686   9.704   3.170
 2574SOL    HW2 9497   3.737   9.641   3.299
 2575SOL     OW 9498  12.941   6.524   5.942
 2575SOL    HW1 9499  12.944   6.512   5.847
 2575SOL    HW2 9500  12.884   6.600   5.955
 2576SOL     OW 9501  12.214   8.397   7.733
 2576SOL    HW1 9502  12.289   8.348   7.766
 2576SOL    HW2 9503  12.245   8.487   7.727
 2577SOL     OW 9504   8.030  12.688  12.916
 2577SOL    HW1 9505   8.034  12.605  12.869
 2577SOL    HW2 9506   8.034  12.664  13.009
 2578SOL     OW 9507  10.784   1.532  10.380
 2578SOL    HW1 9508  10.694   1.501  10.365
 2578SOL    HW2 9509  10.836   1.453  10.391
 2579SOL     OW 9510   8.643   7.382   1.598
 2579SOL    HW1 9511   8.568   7.439   1.616
 2579SOL    HW2 9512   8.695   7.431   1.534
 2580SOL     OW 9513   7.537   9.287   2.584
 2580SOL    HW1 9514   7.457   9.256   2.627
 2580SOL    HW2 9515   7.604   9.222   2.609
 2581SOL     OW 9516   1.182   4.505  12.720
 2581SOL    HW1 9517   1.273   4.500  12.691
 2581SOL    HW2 9518   1.147   4.417  12.702
 2582SOL     OW 9519  11.596   5.350   4.566
 2582SOL    HW1 9520  11.618   5.312   4.651
 2582SOL    HW2 9521  11.520   5.405   4.584
 2583SOL     OW 9522   5.028   8.268   3.277
 2583SOL    HW1 9523   4.957   8.328   3.299
 2583SOL    HW2 9524   5.101   8.325   3.253
 2584SOL     OW 9525   6.697  10.210   6.970
 2584SOL    HW1 9526   6.740  10.204   6.885
 2584SOL    HW2 9527   6.609  10.243   6.950
 2585SOL     OW 9528   2.433   1.028   5.265
 2585SOL    HW1 9529   2.474   1.109   5.235
 2585SOL    HW2 9530   2.359   1.056   5.319
 2586SOL     OW 9531   0.491   9.290   1.321
 2586SOL    HW1 9532   0.460   9.273   1.410
 2586SOL    HW2 9533   0.579   9.254   1.319
 2587SOL     OW 9534  11.566   2.453  12.696
 2587SOL    HW1 9535  11.600   2.527  12.647
 2587SOL    HW2 9536  11.604   2.462  12.783
 2588SOL     OW 9537   3.332  13.215   7.449
 2588SOL    HW1 9538   3.259  13.165   7.412
 2588SOL    HW2 9539   3.407  13.192   7.395
 2589SOL     OW 9540  10.243   6.669   2.238
 2589SOL    HW1 9541  10.250   6.759   2.271
 2589SOL    HW2 9542  10.177   6.628   2.294
 2590SOL     OW 9543   2.220   7.206  14.820
 2590SOL    HW1 9544   2.147   7.153  14.789
 2590SOL    HW2 9545   2.220   7.283  14.763
 2591SOL     OW 9546   2.459   2.417   9.021
 2591SOL    HW1 9547   2.397   2.420   8.948
 2591SOL    HW2 9548   2.536   2.372   8.985
 2592SOL     OW 9549   5.577   1.071  14.621
 2592SOL    HW1 9550   5.628   1.079  14.701
 2592SOL    HW2 9551   5.510   1.006  14.641
 2593SOL     OW 9552   0.859  11.931  10.939
 2593SOL    HW1 9553   0.777  11.909  10.895
 2593SOL    HW2 9554   0.847  11.899  11.029
 2594SOL     OW 9555   3.723  12.259   9.793
 2594SOL    HW1 9556   3.640  12.226   9.827
 2594SOL    HW2 9557   3.775  12.181   9.775
 2595SOL     OW 9558   9.851  13.619   6.711
 2595SOL    HW1 9559   9.912  13.549   6.732
 2595SOL    HW2 9560   9.771  13.597   6.759
 2596SOL     OW 9561   2.682  10.382   0.616
 2596SOL    HW1 9562   2.690  10.415   0.706
 2596SOL    HW2 9563   2.645  10.456   0.567
 2597SOL     OW 9564   4.831   3.414   0.822
 2597SOL    HW1 9565   4.813   3.399   0.729
 2597SOL    HW2 9566   4.747   3.440   0.859
 2598SOL     OW 9567  10.952   9.219   1.930
 2598SOL    HW1 9568  11.001   9.140   1.954
 2598SOL    HW2 9569  10.892   9.233   2.004
 2599SOL     OW 9570   1.590   2.696   3.039
 2599SOL    HW1 9571   1.517   2.746   3.002
 2599SOL    HW2 9572   1.637   2.662   2.962
 2600SOL     OW 9573  10.954   3.429   8.043
 2600SOL    HW1 9574  10.944   3.336   8.026
 2600SOL    HW2 9575  10.892   3.471   7.983
 2601SOL     OW 9576   9.496   9.058  14.789
 2601SOL    HW1 9577   9.426   9.103  14.741
 2601SOL    HW2 9578   9.451   9.007  14.856
 2602SOL     OW 9579   3.875   9.715   8.246
 2602SOL    HW1 9580   3.809   9.695   8.180
 2602SOL    HW2 9581   3.829   9.709   8.329
 2603SOL     OW 9582   0.090   5.536  13.861
 2603SOL    HW1 9583   0.025   5.600  13.891
 2603SOL    HW2 9584   0.079   5.534  13.765
 2604SOL     OW 9585  12.598  10.751   4.034
 2604SOL    HW1 9586  12.689  10.775   4.016
 2604SOL    HW2 9587  12.589  10.760   4.129
 2605SOL     OW 9588   7.300   7.155  14.813
 2605SOL    HW1 9589   7.301   7.067  14.853
 2605SOL    HW2 9590   7.265   7.140  14.725
 2606SOL     OW 9591  11.653  12.988   2.079
 2606SOL    HW1 9592  11.604  12.946   2.150
 2606SOL    HW2 9593  11.585  13.032   2.027
 2607SOL     OW 9594  12.280  11.673   4.952
 2607SOL    HW1 9595  12.248  11.699   5.039
 2607SOL    HW2 9596  12.200  11.665   4.899
 2608SOL     OW 9597  13.516   1.500  14.300
 2608SOL    HW1 9598  13.439   1.454  14.334
 2608SOL    HW2 9599  13.569   1.432  14.259
 2609SOL     OW 9600   2.388   6.855   3.749
 2609SOL    HW1 9601   2.424   6.928   3.699
 2609SOL    HW2 9602   2.379   6.784   3.686
 2610SOL     OW 9603   7.286  14.518   4.140
 2610SOL    HW1 9604   7.240  14.435   4.148
 2610SOL    HW2 9605   7.218  14.584   4.148
 2611SOL     OW 9606  12.135   3.690   4.626
 2611SOL    HW1 9607  12.052   3.653   4.655
 2611SOL    HW2 9608  12.111   3.754   4.560
 2612SOL     OW 9609   6.643  12.969   7.048
 2612SOL    HW1 9610   6.553  12.951   7.075
 2612SOL    HW2 9611   6.633  13.023   6.970
 2613SOL     OW 9612  10.911   1.259  10.892
 2613SOL    HW1 9613  10.942   1.332  10.947
 2613SOL    HW2 9614  10.832   1.228  10.936
 2614SOL     OW 9615   0.499   0.262  11.895
 2614SOL    HW1 9616   0.500   0.168  11.881
 2614SOL    HW2 9617   0.407   0.284  11.909
 2615SOL     OW 9618   6.112   1.591   0.517
 2615SOL    HW1 9619   6.030   1.611   0.471
 2615SOL    HW2 9620   6.123   1.665   0.577
 2616SOL     OW 9621   9.504   8.577   7.336
 2616SOL    HW1 9622   9.476   8.495   7.295
 2616SOL    HW2 9623   9.563   8.616   7.272
 2617SOL     OW 9624   3.006   8.823   2.093
 2617SOL    HW1 9625   2.965   8.909   2.107
 2617SOL    HW2 9626   3.074   8.819   2.161
 2618SOL     OW 9627   0.682   4.554  13.867
 2618SOL    HW1 9628   0.692   4.649  13.865
 2618SOL    HW2 9629   0.599   4.539  13.914
 2619SOL     OW 9630  10.209  11.909   9.584
 2619SOL    HW1 9631  10.195  11.983   9.524
 2619SOL    HW2 9632  10.177  11.940   9.668
 2620SOL     OW 9633   0.593   5.461  10.857
 2620SOL    HW1 9634   0.626   5.489  10.772
 2620SOL    HW2 9635   0.509   5.418  10.838
 2621SOL     OW 9636   4.614   1.101  10.537
 2621SOL    HW1 9637   4.598   1.069  10.448
 2621SOL    HW2 9638   4.562   1.043  10.593
 2622SOL     OW 9639   4.421   1.651   8.181
 2622SOL    HW1 9640   4.344   1.708   8.185
 2622SOL    HW2 9641   4.438   1.641   8.087
 2623SOL     OW 9642   8.535   6.339   3.511
 2623SOL    HW1 9643   8.608   6.279   3.525
 2623SOL    HW2 9644   8.570   6.425   3.535
 2624SOL     OW 9645   6.300   1.387   7.321
 2624SOL    HW1 9646   6.262   1.428   7.243
 2624SOL    HW2 9647   6.366   1.449   7.351
 2625SOL     OW 9648   2.235  12.547   0.442
 2625SOL    HW1 9649   2.285  12.597   0.377
 2625SOL    HW2 9650   2.300  12.526   0.510
 2626SOL     OW 9651   6.217   5.459   6.820
 2626SOL    HW1 9652   6.306   5.426   6.808
 2626SOL    HW2 9653   6.183   5.469   6.731
 2627SOL     OW 9654  13.487   6.003  13.636
 2627SOL    HW1 9655  13.579   6.026  13.649
 2627SOL    HW2 9656  13.490   5.922  13.585
 2628SOL     OW 9657   0.082   6.835   6.097
 2628SOL    HW1 9658   0.054   6.917   6.056
 2628SOL    HW2 9659   0.094   6.857   6.190
 2629SOL     OW 9660   7.994  10.269   3.789
 2629SOL    HW1 9661   8.013  10.258   3.882
 2629SOL    HW2 9662   8.058  10.214   3.744
 2630SOL     OW 9663   1.807   9.902  11.410
 2630SOL    HW1 9664   1.841   9.824  11.367
 2630SOL    HW2 9665   1.746   9.867  11.476
 2631SOL     OW 9666  13.855   9.837  13.703
 2631SOL    HW1 9667  13.907   9.833  13.783
 2631SOL    HW2 9668  13.832   9.746  13.685
 2632SOL     OW 9669   4.735  13.214  13.858
 2632SOL    HW1 9670   4.681  13.136  13.849
 2632SOL    HW2 9671   4.693  13.279  13.801
 2633SOL     OW 9672  13.481   6.695  11.573
 2633SOL    HW1 9673  13.556   6.689  11.633
 2633SOL    HW2 9674  13.440   6.609  11.578
 2634SOL     OW 9675   2.440   2.688   4.228
 2634SOL    HW1 9676   2.483   2.602   4.224
 2634SOL    HW2 9677   2.506   2.749   4.196
 2635SOL     OW 9678   1.434   4.441   1.105
 2635SOL    HW1 9679   1.393   4.355   1.096
 2635SOL    HW2 9680   1.429   4.479   1.017
 2636SOL     OW 9681  10.493  12.819   2.243
 2636SOL    HW1 9682  10.474  12.800   2.151
 2636SOL    HW2 9683  10.579  12.861   2.242
 2637SOL     OW 9684  14.164   4.027   4.956
 2637SOL    HW1 9685  14.188   3.945   4.999
 2637SOL    HW2 9686  14.070   4.020   4.941
 2638SOL     OW 9687   2.550  12.439   4.729
 2638SOL    HW1 9688   2.459  12.440   4.760
 2638SOL    HW2 9689   2.577  12.530   4.731
 2639SOL     OW 9690   9.862  13.790   8.968
 2639SOL    HW1 9691   9.911  13.857   9.017
 2639SOL    HW2 9692   9.900  13.791   8.880
 2640SOL     OW 9693   8.844  10.666   5.758
 2640SOL    HW1 9694   8.856  10.573   5.741
 2640SOL    HW2 9695   8.884  10.681   5.844
 2641SOL     OW 9696   6.475   1.606  13.515
 2641SOL    HW1 9697   6.484   1.700  13.532
 2641SOL    HW2 9698   6.454   1.600  13.422
 2642SOL     OW 9699   6.165   4.257   5.815
 2642SOL    HW1 9700   6.177   4.171   5.855
 2642SOL    HW2 9701   6.147   4.315   5.888
 2643SOL     OW 9702   8.828   9.003  13.260
 2643SOL    HW1 9703   8.736   9.015  13.237
 2643SOL    HW2 9704   8.833   8.915  13.295
 2644SOL     OW 9705  14.106  11.190  14.178
 2644SOL    HW1 9706  14.153  11.258  14.131
 2644SOL    HW2 9707  14.157  11.177  14.259
 2645SOL     OW 9708  10.529   4.392   3.988
 2645SOL    HW1 9709  10.624   4.405   3.997
 2645SOL    HW2 9710  10.518   4.297   3.988
 2646SOL     OW 9711  10.274   6.763   2.893
 2646SOL    HW1 9712  10.223   6.746   2.814
 2646SOL    HW2 9713  10.361   6.787   2.862
 2647SOL     OW 9714  12.854   2.384   0.762
 2647SOL    HW1 9715  12.805   2.354   0.685
 2647SOL    HW2 9716  12.925   2.437   0.725
 2648SOL     OW 9717  13.858  14.534   7.914
 2648SOL    HW1 9718  13.915  14.603   7.950
 2648SOL    HW2 9719  13.883  14.528   7.822
 2649SOL     OW 9720   9.612  14.319  12.018
 2649SOL    HW1 9721   9.681  14.254  12.003
 2649SOL    HW2 9722   9.639  14.395  11.968
 2650SOL     OW 9723  11.571  10.044   9.473
 2650SOL    HW1 9724  11.555  10.126   9.426
 2650SOL    HW2 9725  11.502  10.040   9.539
 2651SOL     OW 9726  11.470   2.200   8.481
 2651SOL    HW1 9727  11.382   2.236   8.485
 2651SOL    HW2 9728  11.515   2.238   8.556
 2652SOL     OW 9729   3.105  11.154   4.557
 2652SOL    HW1 9730   3.149  11.164   4.473
 2652SOL    HW2 9731   3.131  11.067   4.588
 2653SOL     OW 9732   0.320  14.792   8.539
 2653SOL    HW1 9733   0.235  14.835   8.546
 2653SOL    HW2 9734   0.301  14.698   8.547
 2654SOL     OW 9735   9.926  11.001   1.672
 2654SOL    HW1 9736  10.003  10.972   1.722
 2654SOL    HW2 9737   9.883  10.919   1.646
 2655SOL     OW 9738   3.867   7.666   6.314
 2655SOL    HW1 9739   3.933   7.651   6.382
 2655SOL    HW2 9740   3.830   7.751   6.336
 2656SOL     OW 9741   6.271   0.332  12.405
 2656SOL    HW1 9742   6.345   0.385  12.436
 2656SOL    HW2 9743   6.194   0.376  12.440
 2657SOL     OW 9744   7.902  12.884  14.230
 2657SOL    HW1 9745   7.904  12.970  14.189
 2657SOL    HW2 9746   7.973  12.835  14.188
 2658SOL     OW 9747   6.116   6.215   8.230
 2658SOL    HW1 9748   6.051   6.281   8.207
 2658SOL    HW2 9749   6.088   6.136   8.183
 2659SOL     OW 9750  10.266   8.092   1.811
 2659SOL    HW1 9751  10.191   8.059   1.860
 2659SOL    HW2 9752  10.336   8.029   1.830
 2660SOL     OW 9753  14.130   5.983   1.241
 2660SOL    HW1 9754  14.066   5.914   1.227
 2660SOL    HW2 9755  14.143   5.985   1.336
 2661SOL     OW 9756   2.238  13.027   7.530
 2661SOL    HW1 9757   2.198  13.106   7.567
 2661SOL    HW2 9758   2.325  13.056   7.501
 2662SOL     OW 9759   0.238   9.933   9.171
 2662SOL    HW1 9760   0.333   9.939   9.164
 2662SOL    HW2 9761   0.220   9.948   9.264
 2663SOL     OW 9762  14.070  13.301   0.590
 2663SOL    HW1 9763  14.104  13.242   0.523
 2663SOL    HW2 9764  14.063  13.246   0.668
 2664SOL     OW 9765   5.716   4.650   1.421
 2664SOL    HW1 9766   5.688   4.700   1.498
 2664SOL    HW2 9767   5.648   4.667   1.356
 2665SOL     OW 9768  12.736   8.325   6.058
 2665SOL    HW1 9769  12.728   8.265   6.132
 2665SOL    HW2 9770  12.785   8.400   6.092
 2666SOL     OW 9771   3.952   3.706  14.591
 2666SOL    HW1 9772   3.942   3.690  14.497
 2666SOL    HW2 9773   3.998   3.789  14.596
 2667SOL     OW 9774   4.134   5.680   5.387
 2667SOL    HW1 9775   4.186   5.732   5.447
 2667SOL    HW2 9776   4.169   5.591   5.396
 2668SOL     OW 9777   3.397  10.611  11.626
 2668SOL    HW1 9778   3.338  10.622  11.700
 2668SOL    HW2 9779   3.405  10.698  11.588
 2669SOL     OW 9780   8.054   9.493   0.569
 2669SOL    HW1 9781   8.071   9.560   0.635
 2669SOL    HW2 9782   8.090   9.530   0.488
 2670SOL     OW 9783   0.343   5.857   5.812
 2670SOL    HW1 9784   0.351   5.948   5.840
 2670SOL    HW2 9785   0.265   5.856   5.757
 2671SOL     OW 9786   5.746   6.690  12.210
 2671SOL    HW1 9787   5.782   6.709  12.297
 2671SOL    HW2 9788   5.776   6.763  12.156
 2672SOL     OW 9789   2.615  12.479  12.114
 2672SOL    HW1 9790   2.672  12.409  12.083
 2672SOL    HW2 9791   2.675  12.544  12.152
 2673SOL     OW 9792   6.550  14.668  13.574
 2673SOL    HW1 9793   6.455  14.676  13.566
 2673SOL    HW2 9794   6.583  14.688  13.487
 2674SOL     OW 9795  12.838   9.265  10.940
 2674SOL    HW1 9796  12.807   9.305  10.859
 2674SOL    HW2 9797  12.829   9.171  10.924
 2675SOL     OW 9798   4.437   3.051  13.165
 2675SOL    HW1 9799   4.511   3.110  13.152
 2675SOL    HW2 9800   4.360   3.104  13.146
 2676SOL     OW 9801   3.478   5.135   1.048
 2676SOL    HW1 9802   3.472   5.200   1.118
 2676SOL    HW2 9803   3.468   5.051   1.093
 2677SOL     OW 9804   0.795   1.316   4.567
 2677SOL    HW1 9805   0.853   1.341   4.639
 2677SOL    HW2 9806   0.839   1.352   4.489
 2678SOL     OW 9807   5.683   5.965   9.726
 2678SOL    HW1 9808   5.638   5.978   9.809
 2678SOL    HW2 9809   5.628   6.011   9.662
 2679SOL     OW 9810  11.071  10.480   1.219
 2679SOL    HW1 9811  11.062  10.542   1.147
 2679SOL    HW2 9812  10.983  10.444   1.230
 2680SOL     OW 9813   3.908   7.418   0.696
 2680SOL    HW1 9814   3.991   7.381   0.724
 2680SOL    HW2 9815   3.842   7.370   0.746
 2681SOL     OW 9816  12.140  10.882   6.261
 2681SOL    HW1 9817  12.099  10.948   6.318
 2681SOL    HW2 9818  12.135  10.801   6.312
 2682SOL     OW 9819   6.423  11.141  14.460
 2682SOL    HW1 9820   6.500  11.177  14.504
 2682SOL    HW2 9821   6.447  11.051  14.439
 2683SOL     OW 9822   7.472  10.773   9.184
 2683SOL    HW1 9823   7.541  10.714   9.213
 2683SOL    HW2 9824   7.491  10.856   9.228
 2684SOL     OW 9825   3.074   1.442   8.911
 2684SOL    HW1 9826   3.096   1.440   9.004
 2684SOL    HW2 9827   2.980   1.454   8.908
 2685SOL     OW 9828   1.192   4.775   7.116
 2685SOL    HW1 9829   1.117   4.834   7.106
 2685SOL    HW2 9830   1.171   4.699   7.061
 2686SOL     OW 9831   8.071  11.379   0.580
 2686SOL    HW1 9832   8.098  11.315   0.646
 2686SOL    HW2 9833   8.073  11.331   0.498
 2687SOL     OW 9834   8.161   8.527   2.564
 2687SOL    HW1 9835   8.121   8.448   2.528
 2687SOL    HW2 9836   8.247   8.531   2.523
 2688SOL     OW 9837   0.818   3.082  14.099
 2688SOL    HW1 9838   0.856   3.049  14.018
 2688SOL    HW2 9839   0.777   3.006  14.140
 2689SOL     OW 9840   8.887  13.951  11.639
 2689SOL    HW1 9841   8.879  14.046  11.631
 2689SOL    HW2 9842   8.805  13.924  11.682
 2690SOL     OW 9843  12.783   3.163   0.546
 2690SOL    HW1 9844  12.869   3.145   0.509
 2690SOL    HW2 9845  12.799   3.180   0.639
 2691SOL     OW 9846  14.172   8.565   6.564
 2691SOL    HW1 9847  14.259   8.537   6.595
 2691SOL    HW2 9848  14.171   8.543   6.471
 2692SOL     OW 9849   6.315  10.195   3.461
 2692SOL    HW1 9850   6.278  10.108   3.451
 2692SOL    HW2 9851   6.241  10.254   3.449
 2693SOL     OW 9852   8.601   7.286  11.666
 2693SOL    HW1 9853   8.678   7.274  11.610
 2693SOL    HW2 9854   8.581   7.379  11.659
 2694SOL     OW 9855   0.509   1.423   6.096
 2694SOL    HW1 9856   0.538   1.476   6.022
 2694SOL    HW2 9857   0.584   1.367   6.116
 2695SOL     OW 9858   2.838   5.778   2.543
 2695SOL    HW1 9859   2.857   5.702   2.597
 2695SOL    HW2 9860   2.913   5.836   2.556
 2696SOL     OW 9861  11.071   9.249   5.473
 2696SOL    HW1 9862  11.060   9.175   5.413
 2696SOL    HW2 9863  11.065   9.327   5.417
 2697SOL     OW 9864   0.710   1.738   0.287
 2697SOL    HW1 9865   0.655   1.707   0.215
 2697SOL    HW2 9866   0.799   1.712   0.262
 2698SOL     OW 9867   7.356   8.577  11.419
 2698SOL    HW1 9868   7.367   8.616  11.333
 2698SOL    HW2 9869   7.401   8.637  11.479
 2699SOL     OW 9870   6.167   4.932  13.617
 2699SOL    HW1 9871   6.188   4.949  13.709
 2699SOL    HW2 9872   6.240   4.969  13.568
 2700SOL     OW 9873   0.140  11.537   6.030
 2700SOL    HW1 9874   0.204  11.535   5.958
 2700SOL    HW2 9875   0.127  11.444   6.053
 2701SOL     OW 9876  10.904  11.784   8.389
 2701SOL    HW1 9877  10.977  11.837   8.423
 2701SOL    HW2 9878  10.847  11.772   8.465
 2702SOL     OW 9879   1.290  14.734  10.394
 2702SOL    HW1 9880   1.360  14.690  10.443
 2702SOL    HW2 9881   1.313  14.827  10.399
 2703SOL     OW 9882   9.246  11.760  11.888
 2703SOL    HW1 9883   9.157  11.756  11.852
 2703SOL    HW2 9884   9.241  11.708  11.969
 2704SOL     OW 9885  14.277  10.016   0.058
 2704SOL    HW1 9886  14.319  10.101   0.066
 2704SOL    HW2 9887  14.328   9.958   0.114
 2705SOL     OW 9888   5.951  11.248   7.352
 2705SOL    HW1 9889   6.020  11.184   7.333
 2705SOL    HW2 9890   5.871  11.207   7.320
 2706SOL     OW 9891  12.196  14.408   7.171
 2706SOL    HW1 9892  12.131  14.436   7.107
 2706SOL    HW2 9893  12.179  14.461   7.248
 2707SOL     OW 9894   2.116   7.139  10.177
 2707SOL    HW1 9895   2.030   7.154  10.138
 2707SOL    HW2 9896   2.178   7.179  10.115
 2708SOL     OW 9897   3.867  11.341   2.442
 2708SOL    HW1 9898   3.834  11.398   2.511
 2708SOL    HW2 9899   3.799  11.274   2.432
 2709SOL     OW 9900  13.875  10.581  11.197
 2709SOL    HW1 9901  13.946  10.646  11.189
 2709SOL    HW2 9902  13.907  10.505  11.149
 2710SOL     OW 9903  11.930   9.466  14.159
 2710SOL    HW1 9904  11.977   9.532  14.107
 2710SOL    HW2 9905  11.983   9.386  14.150
 2711SOL     OW 9906   8.620   6.800  11.790
 2711SOL    HW1 9907   8.586   6.883  11.755
 2711SOL    HW2 9908   8.704   6.824  11.829
 2712SOL     OW 9909  13.265   4.023   1.512
 2712SOL    HW1 9910  13.225   4.057   1.432
 2712SOL    HW2 9911  13.339   4.082   1.528
 2713SOL     OW 9912   6.376   8.001  14.685
 2713SOL    HW1 9913   6.442   7.986  14.753
 2713SOL    HW2 9914   6.422   8.052  14.618
 2714SOL     OW 9915  13.855   1.612  14.759
 2714SOL    HW1 9916  13.861   1.675  14.687
 2714SOL    HW2 9917  13.863   1.527  14.716
 2715SOL     OW 9918   0.971  13.944   9.480
 2715SOL    HW1 9919   0.909  13.990   9.424
 2715SOL    HW2 9920   1.056  13.958   9.438
 2716SOL     OW 9921   5.016   4.264  14.106
 2716SOL    HW1 9922   4.994   4.172  14.093
 2716SOL    HW2 9923   5.112   4.265  14.111
 2717SOL     OW 9924   1.892   2.989  12.800
 2717SOL    HW1 9925   1.863   3.047  12.729
 2717SOL    HW2 9926   1.816   2.982  12.858
 2718SOL     OW 9927  12.349   9.534  14.320
 2718SOL    HW1 9928  12.309   9.459  14.363
 2718SOL    HW2 9929  12.399   9.497  14.247
 2719SOL     OW 9930  11.582  11.606   2.311
 2719SOL    HW1 9931  11.540  11.531   2.354
 2719SOL    HW2 9932  11.675  11.583   2.308
 2720SOL     OW 9933  11.603   6.853  10.111
 2720SOL    HW1 9934  11.537   6.797  10.069
 2720SOL    HW2 9935  11.579   6.942  10.085
 2721SOL     OW 9936   4.043   5.549   0.127
 2721SOL    HW1 9937   3.968   5.603   0.152
 2721SOL    HW2 9938   4.119   5.597   0.160
 2722SOL     OW 9939   8.173   6.373  13.478
 2722SOL    HW1 9940   8.106   6.320  13.522
 2722SOL    HW2 9941   8.127   6.412  13.404
 2723SOL     OW 9942  13.774   7.820   1.215
 2723SOL    HW1 9943  13.810   7.804   1.303
 2723SOL    HW2 9944  13.680   7.829   1.230
 2724SOL     OW 9945  11.895   4.873   7.988
 2724SOL    HW1 9946  11.967   4.892   7.928
 2724SOL    HW2 9947  11.843   4.807   7.942
 2725SOL     OW 9948  12.465   4.316   0.953
 2725SOL    HW1 9949  12.465   4.411   0.959
 2725SOL    HW2 9950  12.377   4.289   0.980
 2726SOL     OW 9951   3.995   7.050  12.065
 2726SOL    HW1 9952   3.925   7.027  12.125
 2726SOL    HW2 9953   3.967   7.132  12.025
 2727SOL     OW 9954   9.464  13.067   4.397
 2727SOL    HW1 9955   9.398  12.998   4.398
 2727SOL    HW2 9956   9.429  13.135   4.454
 2728SOL     OW 9957  10.269   1.259  14.577
 2728SOL    HW1 9958  10.339   1.198  14.553
 2728SOL    HW2 9959  10.310   1.319  14.639
 2729SOL     OW 9960   3.156   9.988  12.588
 2729SOL    HW1 9961   3.103  10.042  12.529
 2729SOL    HW2 9962   3.181  10.048  12.659
 2730SOL     OW 9963  14.446   2.834   3.858
 2730SOL    HW1 9964  14.426   2.881   3.778
 2730SOL    HW2 9965  14.542   2.838   3.865
 2731SOL     OW 9966   8.425   0.484   0.216
 2731SOL    HW1 9967   8.446   0.523   0.131
 2731SOL    HW2 9968   8.474   0.537   0.279
 2732SOL     OW 9969  14.591   0.844   9.922
 2732SOL    HW1 9970  14.677   0.881   9.901
 2732SOL    HW2 9971  14.605   0.796  10.004
 2733SOL     OW 9972  12.513   3.450   3.805
 2733SOL    HW1 9973  12.588   3.392   3.790
 2733SOL    HW2 9974  12.484   3.430   3.894
 2734SOL     OW 9975  11.432   1.848   4.798
 2734SOL    HW1 9976  11.521   1.880   4.810
 2734SOL    HW2 9977  11.376   1.917   4.833
 2735SOL     OW 9978   2.385   8.917   1.149
 2735SOL    HW1 9979   2.311   8.977   1.160
 2735SOL    HW2 9980   2.370   8.848   1.213
 2736SOL     OW 9981   2.680   4.399  12.654
 2736SOL    HW1 9982   2.728   4.442  12.584
 2736SOL    HW2 9983   2.627   4.333  12.610
 2737SOL     OW 9984   5.580   2.703  13.047
 2737SOL    HW1 9985   5.507   2.755  13.082
 2737SOL    HW2 9986   5.627   2.672  13.124
 2738SOL     OW 9987  14.273  13.327  10.933
 2738SOL    HW1 9988  14.318  13.277  10.866
 2738SOL    HW2 9989  14.317  13.304  11.015
 2739SOL     OW 9990   2.346  10.879  13.903
 2739SOL    HW1 9991   2.322  10.810  13.842
 2739SOL    HW2 9992   2.436  10.860  13.927
 2740SOL     OW 9993  10.993   0.146  13.304
 2740SOL    HW1 9994  11.072   0.103  13.337
 2740SOL    HW2 9995  11.023   0.199  13.230
 2741SOL     OW 9996   3.668   5.413  13.251
 2741SOL    HW1 9997   3.594   5.358  13.223
 2741SOL    HW2 9998   3.631   5.501  13.257
 2742SOL     OW 9999   2.392  10.450  14.361
 2742SOL    HW110000   2.485  10.464  14.345
 2742SOL    HW210001   2.378  10.483  14.449
 2743SOL     OW10002  10.798   6.312   6.268
 2743SOL    HW110003  10.803   6.221   6.241
 2743SOL    HW210004  10.788   6.362   6.187
 2744SOL     OW10005   8.256   6.579   3.571
 2744SOL    HW110006   8.293   6.548   3.489
 2744SOL    HW210007   8.163   6.595   3.551
 2745SOL     OW10008   9.439   0.551   8.140
 2745SOL    HW110009   9.449   0.642   8.113
 2745SOL    HW210010   9.499   0.501   8.084
 2746SOL     OW10011   9.128   9.158   9.030
 2746SOL    HW110012   9.073   9.210   9.088
 2746SOL    HW210013   9.076   9.080   9.011
 2747SOL     OW10014   8.002  11.028  12.030
 2747SOL    HW110015   8.082  10.991  12.067
 2747SOL    HW210016   7.943  11.039  12.105
 2748SOL     OW10017   8.635   2.807   3.841
 2748SOL    HW110018   8.703   2.816   3.909
 2748SOL    HW210019   8.679   2.761   3.770
 2749SOL     OW10020  10.039  12.893   0.025
 2749SOL    HW110021  10.120  12.904   0.075
 2749SOL    HW210022   9.973  12.939   0.076
 2750SOL     OW10023  11.782  12.367   2.601
 2750SOL    HW110024  11.764  12.352   2.508
 2750SOL    HW210025  11.702  12.340   2.646
 2751SOL     OW10026   9.671   3.162   9.183
 2751SOL    HW110027   9.733   3.101   9.144
 2751SOL    HW210028   9.706   3.248   9.164
 2752SOL     OW10029   0.471   8.393  14.715
 2752SOL    HW110030   0.425   8.342  14.648
 2752SOL    HW210031   0.563   8.384  14.693
 2753SOL     OW10032  11.402   5.957  14.534
 2753SOL    HW110033  11.325   5.928  14.583
 2753SOL    HW210034  11.367   6.012  14.463
 2754SOL     OW10035  12.292   7.555   0.901
 2754SOL    HW110036  12.351   7.480   0.895
 2754SOL    HW210037  12.332   7.621   0.845
 2755SOL     OW10038  11.098   8.673  13.349
 2755SOL    HW110039  11.054   8.592  13.374
 2755SOL    HW210040  11.152   8.649  13.274
 2756SOL     OW10041   1.416   2.258  11.823
 2756SOL    HW110042   1.501   2.227  11.854
 2756SOL    HW210043   1.357   2.244  11.897
 2757SOL     OW10044   8.877   0.992   3.337
 2757SOL    HW110045   8.894   0.940   3.259
 2757SOL    HW210046   8.830   1.069   3.305
 2758SOL     OW10047  11.153   7.664   4.125
 2758SOL    HW110048  11.178   7.744   4.172
 2758SOL    HW210049  11.109   7.696   4.046
 2759SOL     OW10050  14.482   6.684   7.291
 2759SOL    HW110051  14.434   6.647   7.366
 2759SOL    HW210052  14.568   6.705   7.326
 2760SOL     OW10053  10.312   1.230   8.609
 2760SOL    HW110054  10.285   1.199   8.695
 2760SOL    HW210055  10.357   1.156   8.569
 2761SOL     OW10056   8.586  12.238   7.824
 2761SOL    HW110057   8.515  12.278   7.874
 2761SOL    HW210058   8.664  12.253   7.877
 2762SOL     OW10059  10.507   9.597  10.567
 2762SOL    HW110060  10.574   9.530  10.582
 2762SOL    HW210061  10.442   9.553  10.513
 2763SOL     OW10062   3.089  12.612   1.318
 2763SOL    HW110063   2.995  12.628   1.308
 2763SOL    HW210064   3.094  12.523   1.351
 2764SOL     OW10065   4.944   5.903   2.134
 2764SOL    HW110066   4.863   5.935   2.174
 2764SOL    HW210067   4.915   5.843   2.066
 2765SOL     OW10068   4.546   5.756   2.361
 2765SOL    HW110069   4.542   5.662   2.343
 2765SOL    HW210070   4.479   5.794   2.304
 2766SOL     OW10071  14.722  13.651   5.574
 2766SOL    HW110072  14.682  13.567   5.550
 2766SOL    HW210073  14.735  13.696   5.490
 2767SOL     OW10074  10.139   0.797  14.015
 2767SOL    HW110075  10.138   0.800  14.111
 2767SOL    HW210076  10.103   0.881  13.988
 2768SOL     OW10077   1.503   9.340  14.736
 2768SOL    HW110078   1.438   9.407  14.760
 2768SOL    HW210079   1.497   9.275  14.805
 2769SOL     OW10080  14.186  11.547  13.503
 2769SOL    HW110081  14.197  11.573  13.411
 2769SOL    HW210082  14.268  11.575  13.544
 2770SOL     OW10083   8.780  12.209   9.635
 2770SOL    HW110084   8.712  12.273   9.659
 2770SOL    HW210085   8.847  12.260   9.590
 2771SOL     OW10086   0.975   1.343   3.353
 2771SOL    HW110087   1.016   1.418   3.312
 2771SOL    HW210088   0.899   1.324   3.297
 2772SOL     OW10089   9.312  13.519   6.747
 2772SOL    HW110090   9.281  13.453   6.808
 2772SOL    HW210091   9.395  13.485   6.714
 2773SOL     OW10092   0.570  13.796   1.621
 2773SOL    HW110093   0.601  13.710   1.593
 2773SOL    HW210094   0.623  13.818   1.698
 2774SOL     OW10095   4.889   7.985  11.599
 2774SOL    HW110096   4.948   7.991  11.674
 2774SOL    HW210097   4.807   8.022  11.630
 2775SOL     OW10098   2.126   9.409  13.699
 2775SOL    HW110099   2.152   9.451  13.617
 2775SOL    HW210100   2.168   9.323  13.697
 2776SOL     OW10101  11.106  10.526   2.323
 2776SOL    HW110102  11.083  10.599   2.265
 2776SOL    HW210103  11.193  10.500   2.294
 2777SOL     OW10104   0.513  11.546   6.975
 2777SOL    HW110105   0.551  11.480   6.917
 2777SOL    HW210106   0.585  11.608   6.989
 2778SOL     OW10107   2.630  12.082   2.314
 2778SOL    HW110108   2.569  12.144   2.276
 2778SOL    HW210109   2.583  11.998   2.312
 2779SOL     OW10110   8.553   1.118  10.846
 2779SOL    HW110111   8.575   1.171  10.922
 2779SOL    HW210112   8.462   1.091  10.860
 2780SOL     OW10113   7.243  11.625  11.637
 2780SOL    HW110114   7.299  11.661  11.568
 2780SOL    HW210115   7.219  11.701  11.690
 2781SOL     OW10116  10.108   1.900  12.069
 2781SOL    HW110117  10.054   1.851  12.008
 2781SOL    HW210118  10.119   1.986  12.029
 2782SOL     OW10119   2.226  12.224   2.742
 2782SOL    HW110120   2.186  12.297   2.696
 2782SOL    HW210121   2.310  12.210   2.699
 2783SOL     OW10122   7.267   1.459   7.461
 2783SOL    HW110123   7.317   1.540   7.453
 2783SOL    HW210124   7.187   1.486   7.508
 2784SOL     OW10125   3.511   9.938  10.248
 2784SOL    HW110126   3.547   9.902  10.329
 2784SOL    HW210127   3.421   9.905  10.246
 2785SOL     OW10128   4.535  13.809   0.929
 2785SOL    HW110129   4.586  13.843   0.855
 2785SOL    HW210130   4.594  13.746   0.972
 2786SOL     OW10131  12.295  12.647   8.455
 2786SOL    HW110132  12.302  12.552   8.462
 2786SOL    HW210133  12.343  12.668   8.375
 2787SOL     OW10134  11.308   7.021  14.046
 2787SOL    HW110135  11.247   7.000  14.117
 2787SOL    HW210136  11.353   6.938  14.028
 2788SOL     OW10137   2.313   0.671  10.527
 2788SOL    HW110138   2.258   0.601  10.561
 2788SOL    HW210139   2.353   0.634  10.448
 2789SOL     OW10140   3.267   7.311  12.102
 2789SOL    HW110141   3.241   7.399  12.129
 2789SOL    HW210142   3.355   7.300  12.136
 2790SOL     OW10143   5.182  14.595  11.805
 2790SOL    HW110144   5.230  14.628  11.729
 2790SOL    HW210145   5.091  14.623  11.791
 2791SOL     OW10146   6.183   4.301  11.170
 2791SOL    HW110147   6.130   4.359  11.115
 2791SOL    HW210148   6.119   4.251  11.221
 2792SOL     OW10149   6.945  14.095  14.789
 2792SOL    HW110150   6.915  14.101  14.880
 2792SOL    HW210151   6.866  14.110  14.737
 2793SOL     OW10152   5.280   1.500  12.357
 2793SOL    HW110153   5.349   1.497  12.291
 2793SOL    HW210154   5.231   1.419  12.345
 2794SOL     OW10155   8.901   7.919   1.035
 2794SOL    HW110156   8.991   7.911   1.004
 2794SOL    HW210157   8.847   7.908   0.957
 2795SOL     OW10158   1.394   3.275   1.663
 2795SOL    HW110159   1.303   3.305   1.654
 2795SOL    HW210160   1.423   3.261   1.573
 2796SOL     OW10161  11.791  13.373  13.394
 2796SOL    HW110162  11.798  13.345  13.486
 2796SOL    HW210163  11.708  13.336  13.365
 2797SOL     OW10164   6.460   8.015   4.581
 2797SOL    HW110165   6.531   8.078   4.589
 2797SOL    HW210166   6.501   7.930   4.596
 2798SOL     OW10167  12.979   2.612   7.448
 2798SOL    HW110168  12.902   2.571   7.488
 2798SOL    HW210169  13.000   2.685   7.506
 2799SOL     OW10170   4.296   8.740   5.962
 2799SOL    HW110171   4.270   8.674   5.898
 2799SOL    HW210172   4.242   8.817   5.940
 2800SOL     OW10173   4.990  12.653  11.978
 2800SOL    HW110174   4.923  12.701  12.026
 2800SOL    HW210175   5.064  12.647  12.038
 2801SOL     OW10176   1.968  14.501  14.351
 2801SOL    HW110177   1.924  14.504  14.267
 2801SOL    HW210178   1.979  14.407  14.369
 2802SOL     OW10179   8.142   0.580   1.383
 2802SOL    HW110180   8.155   0.659   1.331
 2802SOL    HW210181   8.219   0.577   1.441
 2803SOL     OW10182   4.974  14.437   3.181
 2803SOL    HW110183   4.925  14.488   3.116
 2803SOL    HW210184   4.968  14.489   3.261
 2804SOL     OW10185   3.760  12.418   1.921
 2804SOL    HW110186   3.848  12.402   1.954
 2804SOL    HW210187   3.729  12.333   1.891
 2805SOL     OW10188   1.820   3.650  10.710
 2805SOL    HW110189   1.731   3.624  10.684
 2805SOL    HW210190   1.836   3.731  10.662
 2806SOL     OW10191   2.037   5.807   1.753
 2806SOL    HW110192   2.023   5.901   1.768
 2806SOL    HW210193   1.964   5.765   1.799
 2807SOL     OW10194   3.306   3.041  12.305
 2807SOL    HW110195   3.379   3.089  12.345
 2807SOL    HW210196   3.229   3.095  12.322
 2808SOL     OW10197   5.987   5.079  13.009
 2808SOL    HW110198   5.959   4.999  12.965
 2808SOL    HW210199   5.958   5.069  13.099
 2809SOL     OW10200  11.492   2.098   6.593
 2809SOL    HW110201  11.523   2.072   6.680
 2809SOL    HW210202  11.475   2.192   6.601
 2810SOL     OW10203   6.094   2.093   2.669
 2810SOL    HW110204   6.142   2.012   2.685
 2810SOL    HW210205   6.067   2.123   2.755
 2811SOL     OW10206   7.847   7.484   8.232
 2811SOL    HW110207   7.878   7.496   8.322
 2811SOL    HW210208   7.873   7.395   8.209
 2812SOL     OW10209  13.536  11.947  13.403
 2812SOL    HW110210  13.465  11.899  13.361
 2812SOL    HW210211  13.577  11.995  13.332
 2813SOL     OW10212   1.359   1.264   7.039
 2813SOL    HW110213   1.319   1.197   6.983
 2813SOL    HW210214   1.299   1.339   7.033
 2814SOL     OW10215  10.902   2.301  10.973
 2814SOL    HW110216  10.833   2.269  10.914
 2814SOL    HW210217  10.952   2.223  10.995
 2815SOL     OW10218   6.233   2.259   0.834
 2815SOL    HW110219   6.316   2.279   0.790
 2815SOL    HW210220   6.168   2.263   0.764
 2816SOL     OW10221   7.535   8.125   4.271
 2816SOL    HW110222   7.504   8.035   4.273
 2816SOL    HW210223   7.572   8.140   4.359
 2817SOL     OW10224   2.177   6.506   4.326
 2817SOL    HW110225   2.119   6.546   4.262
 2817SOL    HW210226   2.265   6.530   4.298
 2818SOL     OW10227   3.755  14.604   2.866
 2818SOL    HW110228   3.737  14.686   2.819
 2818SOL    HW210229   3.672  14.579   2.905
 2819SOL     OW10230  13.282   7.000   7.350
 2819SOL    HW110231  13.239   6.939   7.290
 2819SOL    HW210232  13.209   7.043   7.396
 2820SOL     OW10233   5.250   3.895  13.015
 2820SOL    HW110234   5.195   3.945  12.954
 2820SOL    HW210235   5.209   3.808  13.017
 2821SOL     OW10236  10.211   9.880  12.294
 2821SOL    HW110237  10.212   9.789  12.325
 2821SOL    HW210238  10.283   9.922  12.341
 2822SOL     OW10239   4.217  13.266  14.729
 2822SOL    HW110240   4.284  13.202  14.706
 2822SOL    HW210241   4.265  13.337  14.771
 2823SOL     OW10242  13.198   3.493   9.748
 2823SOL    HW110243  13.218   3.563   9.810
 2823SOL    HW210244  13.104   3.478   9.758
 2824SOL     OW10245   5.737   2.079   1.613
 2824SOL    HW110246   5.794   2.016   1.654
 2824SOL    HW210247   5.795   2.148   1.581
 2825SOL     OW10248   1.233   2.328   8.319
 2825SOL    HW110249   1.214   2.403   8.376
 2825SOL    HW210250   1.168   2.334   8.249
 2826SOL     OW10251  13.055  11.226   1.071
 2826SOL    HW110252  13.027  11.207   1.161
 2826SOL    HW210253  13.005  11.303   1.046
 2827SOL     OW10254   9.200  13.140  11.274
 2827SOL    HW110255   9.246  13.206  11.326
 2827SOL    HW210256   9.270  13.094  11.227
 2828SOL     OW10257  13.590   1.207  14.851
 2828SOL    HW110258  13.682   1.227  14.832
 2828SOL    HW210259  13.580   1.223   0.063
 2829SOL     OW10260  10.516  10.728   8.588
 2829SOL    HW110261  10.482  10.640   8.576
 2829SOL    HW210262  10.609  10.716   8.610
 2830SOL     OW10263   2.309  11.521   1.873
 2830SOL    HW110264   2.315  11.427   1.891
 2830SOL    HW210265   2.399  11.552   1.871
 2831SOL     OW10266   7.895  10.000  12.716
 2831SOL    HW110267   7.840   9.995  12.638
 2831SOL    HW210268   7.834   9.991  12.789
 2832SOL     OW10269   3.332   4.120   6.107
 2832SOL    HW110270   3.239   4.135   6.089
 2832SOL    HW210271   3.336   4.032   6.143
 2833SOL     OW10272   2.362   3.641   3.647
 2833SOL    HW110273   2.385   3.734   3.640
 2833SOL    HW210274   2.446   3.595   3.652
 2834SOL     OW10275   7.189   0.260   4.159
 2834SOL    HW110276   7.126   0.289   4.224
 2834SOL    HW210277   7.247   0.335   4.145
 2835SOL     OW10278   4.169   3.987   8.664
 2835SOL    HW110279   4.109   3.976   8.738
 2835SOL    HW210280   4.113   3.979   8.587
 2836SOL     OW10281   8.022   7.517   8.436
 2836SOL    HW110282   8.074   7.437   8.431
 2836SOL    HW210283   8.006   7.529   8.530
 2837SOL     OW10284  13.109   4.090   0.006
 2837SOL    HW110285  13.197   4.078  14.852
 2837SOL    HW210286  13.057   4.022  14.846
 2838SOL     OW10287   0.646  13.073   6.211
 2838SOL    HW110288   0.561  13.043   6.243
 2838SOL    HW210289   0.645  13.167   6.227
 2839SOL     OW10290  14.858   6.632   2.129
 2839SOL    HW110291   0.012   6.692   2.063
 2839SOL    HW210292   0.023   6.655   2.210
 2840SOL     OW10293   3.790   5.333   0.865
 2840SOL    HW110294   3.716   5.371   0.818
 2840SOL    HW210295   3.765   5.337   0.958
 2841SOL     OW10296   2.144   6.664   7.338
 2841SOL    HW110297   2.182   6.752   7.337
 2841SOL    HW210298   2.147   6.636   7.247
 2842SOL     OW10299  13.387   8.888   9.556
 2842SOL    HW110300  13.338   8.906   9.476
 2842SOL    HW210301  13.398   8.793   9.556
 2843SOL     OW10302   2.438  12.259   2.226
 2843SOL    HW110303   2.431  12.335   2.168
 2843SOL    HW210304   2.348  12.232   2.242
 2844SOL     OW10305  13.333   4.289   7.528
 2844SOL    HW110306  13.314   4.275   7.436
 2844SOL    HW210307  13.297   4.375   7.547
 2845SOL     OW10308  13.071   5.000   0.248
 2845SOL    HW110309  12.984   5.007   0.287
 2845SOL    HW210310  13.132   5.007   0.323
 2846SOL     OW10311   6.019   7.194   9.702
 2846SOL    HW110312   5.971   7.189   9.620
 2846SOL    HW210313   6.000   7.282   9.736
 2847SOL     OW10314  12.924   8.736  14.739
 2847SOL    HW110315  12.871   8.743  14.818
 2847SOL    HW210316  13.014   8.726  14.770
 2848SOL     OW10317   7.026   3.994  13.359
 2848SOL    HW110318   7.032   4.075  13.309
 2848SOL    HW210319   6.933   3.971  13.356
 2849SOL     OW10320  13.352  13.435   3.099
 2849SOL    HW110321  13.424  13.459   3.157
 2849SOL    HW210322  13.289  13.390   3.156
 2850SOL     OW10323   9.751  14.566  10.564
 2850SOL    HW110324   9.670  14.531  10.529
 2850SOL    HW210325   9.793  14.608  10.489
 2851SOL     OW10326   6.617  10.281   3.750
 2851SOL    HW110327   6.693  10.225   3.769
 2851SOL    HW210328   6.618  10.348   3.818
 2852SOL     OW10329  13.401   5.434   0.026
 2852SOL    HW110330  13.369   5.521   0.003
 2852SOL    HW210331  13.345   5.374  14.858
 2853SOL     OW10332   4.740  11.100   7.598
 2853SOL    HW110333   4.645  11.113   7.605
 2853SOL    HW210334   4.749  11.014   7.557
 2854SOL     OW10335   3.224   4.829   5.691
 2854SOL    HW110336   3.154   4.867   5.744
 2854SOL    HW210337   3.305   4.851   5.738
 2855SOL     OW10338  10.906  10.285  14.087
 2855SOL    HW110339  10.999  10.283  14.110
 2855SOL    HW210340  10.862  10.301  14.170
 2856SOL     OW10341   5.302   8.255   6.419
 2856SOL    HW110342   5.370   8.288   6.360
 2856SOL    HW210343   5.349   8.229   6.498
 2857SOL     OW10344   9.684  12.591  14.764
 2857SOL    HW110345   9.765  12.548  14.792
 2857SOL    HW210346   9.714  12.673  14.725
 2858SOL     OW10347   7.986   3.906   6.996
 2858SOL    HW110348   8.013   3.936   6.909
 2858SOL    HW210349   8.048   3.836   7.017
 2859SOL     OW10350   1.116   2.777  10.494
 2859SOL    HW110351   1.143   2.758  10.584
 2859SOL    HW210352   1.187   2.830  10.458
 2860SOL     OW10353  14.694   0.001   1.297
 2860SOL    HW110354  14.789   0.007   1.304
 2860SOL    HW210355  14.668   0.082   1.252
 2861SOL     OW10356   2.729  13.462   8.384
 2861SOL    HW110357   2.706  13.541   8.335
 2861SOL    HW210358   2.824  13.460   8.385
 2862SOL     OW10359   2.647  12.932   1.876
 2862SOL    HW110360   2.653  12.855   1.819
 2862SOL    HW210361   2.719  12.988   1.849
 2863SOL     OW10362   2.166  14.722   6.584
 2863SOL    HW110363   2.136  14.803   6.542
 2863SOL    HW210364   2.185  14.663   6.511
 2864SOL     OW10365  11.868   6.968   2.363
 2864SOL    HW110366  11.905   6.885   2.392
 2864SOL    HW210367  11.926   6.998   2.294
 2865SOL     OW10368   1.968  12.325   1.134
 2865SOL    HW110369   2.025  12.346   1.060
 2865SOL    HW210370   1.948  12.410   1.173
 2866SOL     OW10371   7.950  14.647   9.110
 2866SOL    HW110372   8.033  14.672   9.069
 2866SOL    HW210373   7.930  14.720   9.169
 2867SOL     OW10374  11.462   6.981  12.955
 2867SOL    HW110375  11.547   6.947  12.984
 2867SOL    HW210376  11.471   7.076  12.961
 2868SOL     OW10377  12.593   5.950   5.158
 2868SOL    HW110378  12.663   6.016   5.151
 2868SOL    HW210379  12.514   5.997   5.134
 2869SOL     OW10380  10.974   8.468  13.917
 2869SOL    HW110381  11.026   8.547  13.925
 2869SOL    HW210382  10.996   8.416  13.994
 2870SOL     OW10383   3.954   2.232   1.859
 2870SOL    HW110384   3.936   2.143   1.890
 2870SOL    HW210385   3.910   2.288   1.922
 2871SOL     OW10386  11.911  12.313   2.039
 2871SOL    HW110387  11.921  12.226   2.077
 2871SOL    HW210388  11.933  12.302   1.947
 2872SOL     OW10389   7.674  12.990   1.295
 2872SOL    HW110390   7.614  13.057   1.261
 2872SOL    HW210391   7.617  12.915   1.313
 2873SOL     OW10392   4.813  12.879   1.786
 2873SOL    HW110393   4.766  12.942   1.841
 2873SOL    HW210394   4.749  12.809   1.772
 2874SOL     OW10395  14.546   6.064  12.052
 2874SOL    HW110396  14.554   5.981  12.099
 2874SOL    HW210397  14.566   6.042  11.961
 2875SOL     OW10398  11.258   2.919  13.026
 2875SOL    HW110399  11.221   2.858  13.089
 2875SOL    HW210400  11.203   2.997  13.032
 2876SOL     OW10401  10.928   6.858   0.935
 2876SOL    HW110402  10.982   6.806   0.875
 2876SOL    HW210403  10.985   6.873   1.011
 2877SOL     OW10404   1.162   7.354  14.537
 2877SOL    HW110405   1.140   7.377  14.627
 2877SOL    HW210406   1.252   7.383  14.526
 2878SOL     OW10407  12.508   5.439   1.770
 2878SOL    HW110408  12.504   5.501   1.843
 2878SOL    HW210409  12.573   5.477   1.711
 2879SOL     OW10410  12.375   8.694  12.576
 2879SOL    HW110411  12.470   8.705  12.584
 2879SOL    HW210412  12.365   8.623  12.512
 2880SOL     OW10413   3.247  12.527   3.782
 2880SOL    HW110414   3.233  12.605   3.835
 2880SOL    HW210415   3.231  12.556   3.692
 2881SOL     OW10416   8.446  11.682   7.329
 2881SOL    HW110417   8.523  11.737   7.322
 2881SOL    HW210418   8.415  11.673   7.238
 2882SOL     OW10419   8.480   4.449   3.250
 2882SOL    HW110420   8.435   4.533   3.245
 2882SOL    HW210421   8.425   4.396   3.308
 2883SOL     OW10422  11.284   4.357   0.088
 2883SOL    HW110423  11.298   4.446   0.121
 2883SOL    HW210424  11.307   4.300   0.162
 2884SOL     OW10425  14.620   2.331   5.042
 2884SOL    HW110426  14.664   2.246   5.042
 2884SOL    HW210427  14.541   2.317   4.991
 2885SOL     OW10428  10.709   0.126  13.711
 2885SOL    HW110429  10.761   0.048  13.691
 2885SOL    HW210430  10.669   0.108  13.796
 2886SOL     OW10431   0.123  14.348   2.023
 2886SOL    HW110432   0.183  14.276   2.005
 2886SOL    HW210433   0.041  14.322   1.982
 2887SOL     OW10434   6.863   1.975  13.306
 2887SOL    HW110435   6.894   2.064  13.286
 2887SOL    HW210436   6.782   1.966  13.256
 2888SOL     OW10437   8.185   9.190   3.359
 2888SOL    HW110438   8.157   9.186   3.451
 2888SOL    HW210439   8.267   9.239   3.361
 2889SOL     OW10440  13.837  10.304  12.789
 2889SOL    HW110441  13.831  10.374  12.725
 2889SOL    HW210442  13.930  10.303  12.814
 2890SOL     OW10443   8.995  12.215   7.750
 2890SOL    HW110444   8.997  12.311   7.752
 2890SOL    HW210445   8.938  12.190   7.822
 2891SOL     OW10446  14.580  14.612  14.657
 2891SOL    HW110447  14.544  14.682  14.712
 2891SOL    HW210448  14.646  14.656  14.603
 2892SOL     OW10449  12.784   1.333   2.971
 2892SOL    HW110450  12.700   1.288   2.983
 2892SOL    HW210451  12.789   1.350   2.877
 2893SOL     OW10452   4.008   1.507   4.443
 2893SOL    HW110453   4.048   1.511   4.530
 2893SOL    HW210454   4.019   1.595   4.407
 2894SOL     OW10455   6.690   0.471   7.944
 2894SOL    HW110456   6.752   0.408   7.907
 2894SOL    HW210457   6.644   0.421   8.012
 2895SOL     OW10458   8.952   0.134  13.743
 2895SOL    HW110459   8.859   0.121  13.723
 2895SOL    HW210460   8.996   0.058  13.705
 2896SOL     OW10461  10.438  10.433  12.535
 2896SOL    HW110462  10.437  10.469  12.447
 2896SOL    HW210463  10.484  10.350  12.527
 2897SOL     OW10464  10.993   6.633   3.334
 2897SOL    HW110465  10.985   6.541   3.307
 2897SOL    HW210466  11.047   6.673   3.266
 2898SOL     OW10467  11.750  10.477   8.925
 2898SOL    HW110468  11.809  10.546   8.954
 2898SOL    HW210469  11.728  10.501   8.835
 2899SOL     OW10470   8.456  10.141   5.272
 2899SOL    HW110471   8.380  10.106   5.320
 2899SOL    HW210472   8.492  10.065   5.227
 2900SOL     OW10473  11.962  12.134   6.973
 2900SOL    HW110474  11.909  12.087   6.909
 2900SOL    HW210475  12.051  12.100   6.959
 2901SOL     OW10476   5.174   7.547  10.740
 2901SOL    HW110477   5.088   7.587  10.756
 2901SOL    HW210478   5.196   7.503  10.821
 2902SOL     OW10479   0.066  11.562   1.937
 2902SOL    HW110480   0.040  11.654   1.938
 2902SOL    HW210481   0.139  11.557   1.998
 2903SOL     OW10482   9.882   5.404   5.810
 2903SOL    HW110483   9.919   5.468   5.749
 2903SOL    HW210484   9.823   5.351   5.757
 2904SOL     OW10485  10.216  12.561  10.400
 2904SOL    HW110486  10.284  12.606  10.349
 2904SOL    HW210487  10.207  12.476  10.358
 2905SOL     OW10488   7.516   5.913   7.023
 2905SOL    HW110489   7.467   5.984   7.064
 2905SOL    HW210490   7.590   5.956   6.980
 2906SOL     OW10491   7.416   3.842   8.326
 2906SOL    HW110492   7.496   3.886   8.356
 2906SOL    HW210493   7.447   3.779   8.261
 2907SOL     OW10494   3.734  14.586   4.902
 2907SOL    HW110495   3.669  14.647   4.937
 2907SOL    HW210496   3.815  14.638   4.897
 2908SOL     OW10497   4.972   6.643   7.806
 2908SOL    HW110498   4.991   6.660   7.714
 2908SOL    HW210499   4.976   6.548   7.814
 2909SOL     OW10500   0.046  14.403   8.465
 2909SOL    HW110501   0.140  14.402   8.447
 2909SOL    HW210502   0.032  14.329   8.524
 2910SOL     OW10503   9.184   4.961  12.929
 2910SOL    HW110504   9.104   4.929  12.971
 2910SOL    HW210505   9.242   4.886  12.928
 2911SOL     OW10506   4.540   7.966   4.608
 2911SOL    HW110507   4.463   7.912   4.589
 2911SOL    HW210508   4.506   8.053   4.623
 2912SOL     OW10509   6.221   1.085   5.180
 2912SOL    HW110510   6.281   1.070   5.107
 2912SOL    HW210511   6.245   1.018   5.245
 2913SOL     OW10512   6.916   7.062   7.130
 2913SOL    HW110513   6.899   6.999   7.200
 2913SOL    HW210514   6.830   7.099   7.111
 2914SOL     OW10515   5.017   2.293  12.820
 2914SOL    HW110516   5.030   2.371  12.874
 2914SOL    HW210517   4.931   2.260  12.845
 2915SOL     OW10518   8.871   6.661   5.731
 2915SOL    HW110519   8.965   6.671   5.714
 2915SOL    HW210520   8.829   6.719   5.668
 2916SOL     OW10521   6.439   4.586   5.089
 2916SOL    HW110522   6.382   4.588   5.012
 2916SOL    HW210523   6.396   4.644   5.152
 2917SOL     OW10524   1.083   2.954   4.859
 2917SOL    HW110525   1.038   2.870   4.867
 2917SOL    HW210526   1.155   2.950   4.922
 2918SOL     OW10527  13.162  10.205   9.863
 2918SOL    HW110528  13.094  10.272   9.871
 2918SOL    HW210529  13.145  10.164   9.778
 2919SOL     OW10530   7.161   2.369   0.801
 2919SOL    HW110531   7.185   2.278   0.784
 2919SOL    HW210532   7.232   2.420   0.762
 2920SOL     OW10533  10.293   4.316   1.064
 2920SOL    HW110534  10.331   4.315   0.976
 2920SOL    HW210535  10.242   4.235   1.069
 2921SOL     OW10536  10.615  14.398  14.697
 2921SOL    HW110537  10.597  14.326  14.758
 2921SOL    HW210538  10.612  14.477  14.751
 2922SOL     OW10539   1.455  13.268  11.715
 2922SOL    HW110540   1.528  13.210  11.735
 2922SOL    HW210541   1.495  13.342  11.669
 2923SOL     OW10542   2.944   3.794   3.134
 2923SOL    HW110543   2.871   3.856   3.123
 2923SOL    HW210544   2.943   3.742   3.054
 2924SOL     OW10545   6.290  10.086  11.598
 2924SOL    HW110546   6.274  10.011  11.656
 2924SOL    HW210547   6.348  10.052  11.530
 2925SOL     OW10548   3.619   8.374   8.051
 2925SOL    HW110549   3.627   8.446   7.989
 2925SOL    HW210550   3.575   8.305   8.002
 2926SOL     OW10551   7.212  12.553   6.534
 2926SOL    HW110552   7.142  12.612   6.506
 2926SOL    HW210553   7.227  12.576   6.625
 2927SOL     OW10554   8.760  13.120   8.768
 2927SOL    HW110555   8.741  13.116   8.862
 2927SOL    HW210556   8.709  13.049   8.730
 2928SOL     OW10557  10.955   9.648   1.209
 2928SOL    HW110558  11.029   9.659   1.269
 2928SOL    HW210559  10.878   9.660   1.263
 2929SOL     OW10560   1.400   9.067   0.664
 2929SOL    HW110561   1.495   9.082   0.661
 2929SOL    HW210562   1.392   8.973   0.680
 2930SOL     OW10563  10.274  13.819   0.356
 2930SOL    HW110564  10.360  13.854   0.381
 2930SOL    HW210565  10.271  13.731   0.394
 2931SOL     OW10566   4.130  13.847  14.219
 2931SOL    HW110567   4.209  13.803  14.188
 2931SOL    HW210568   4.137  13.847  14.314
 2932SOL     OW10569   9.156  14.106   3.611
 2932SOL    HW110570   9.168  14.027   3.664
 2932SOL    HW210571   9.093  14.159   3.660
 2933SOL     OW10572   0.870  13.221   8.873
 2933SOL    HW110573   0.919  13.302   8.882
 2933SOL    HW210574   0.792  13.246   8.822
 2934SOL     OW10575  13.242   5.991   6.310
 2934SOL    HW110576  13.283   6.059   6.364
 2934SOL    HW210577  13.240   6.029   6.221
 2935SOL     OW10578  10.756   8.455  12.677
 2935SOL    HW110579  10.804   8.374  12.696
 2935SOL    HW210580  10.664   8.429  12.677
 2936SOL     OW10581   7.292  11.394  13.014
 2936SOL    HW110582   7.308  11.300  13.002
 2936SOL    HW210583   7.200  11.405  12.994
 2937SOL     OW10584   4.400   7.895   7.029
 2937SOL    HW110585   4.305   7.896   7.025
 2937SOL    HW210586   4.429   7.918   6.941
 2938SOL     OW10587  11.698  11.683   3.046
 2938SOL    HW110588  11.642  11.734   3.104
 2938SOL    HW210589  11.750  11.629   3.105
 2939SOL     OW10590  14.786  10.278   2.884
 2939SOL    HW110591  14.767  10.226   2.963
 2939SOL    HW210592  14.739  10.232   2.814
 2940SOL     OW10593  13.885  14.230  12.248
 2940SOL    HW110594  13.871  14.320  12.276
 2940SOL    HW210595  13.980  14.220  12.248
 2941SOL     OW10596  11.757   2.163  13.028
 2941SOL    HW110597  11.664   2.166  13.006
 2941SOL    HW210598  11.771   2.074  13.062
 2942SOL     OW10599  10.620   8.882   2.778
 2942SOL    HW110600  10.528   8.898   2.797
 2942SOL    HW210601  10.666   8.907   2.858
 2943SOL     OW10602   6.525   0.020   8.699
 2943SOL    HW110603   6.541  14.807   8.696
 2943SOL    HW210604   6.435   0.028   8.732
 2944SOL     OW10605   9.000   7.020  12.121
 2944SOL    HW110606   8.921   7.053  12.164
 2944SOL    HW210607   9.025   7.090  12.060
 2945SOL     OW10608  12.678  11.213  13.922
 2945SOL    HW110609  12.666  11.118  13.915
 2945SOL    HW210610  12.590  11.248  13.932
 2946SOL     OW10611   0.834   9.592  11.181
 2946SOL    HW110612   0.755   9.609  11.233
 2946SOL    HW210613   0.867   9.679  11.158
 2947SOL     OW10614   4.668  14.029   1.560
 2947SOL    HW110615   4.633  13.962   1.619
 2947SOL    HW210616   4.759  14.039   1.587
 2948SOL     OW10617  10.605   1.486  11.977
 2948SOL    HW110618  10.610   1.446  11.890
 2948SOL    HW210619  10.690   1.468  12.017
 2949SOL     OW10620  13.963   9.099   0.521
 2949SOL    HW110621  13.980   9.068   0.610
 2949SOL    HW210622  14.044   9.142   0.494
 2950SOL     OW10623  14.164  13.964  12.625
 2950SOL    HW110624  14.216  14.044  12.624
 2950SOL    HW210625  14.224  13.896  12.595
 2951SOL     OW10626  10.857   2.233  10.510
 2951SOL    HW110627  10.832   2.315  10.553
 2951SOL    HW210628  10.907   2.261  10.434
 2952SOL     OW10629   6.249   4.290   0.206
 2952SOL    HW110630   6.154   4.300   0.205
 2952SOL    HW210631   6.266   4.236   0.282
 2953SOL     OW10632   2.123   2.111   8.165
 2953SOL    HW110633   2.202   2.136   8.118
 2953SOL    HW210634   2.051   2.135   8.105
 2954SOL     OW10635   9.395   5.898   4.043
 2954SOL    HW110636   9.307   5.862   4.037
 2954SOL    HW210637   9.443   5.838   4.100
 2955SOL     OW10638   7.884  14.011  11.068
 2955SOL    HW110639   7.967  14.053  11.045
 2955SOL    HW210640   7.826  14.028  10.994
 2956SOL     OW10641  10.157   6.165   6.397
 2956SOL    HW110642  10.239   6.138   6.438
 2956SOL    HW210643  10.152   6.259   6.413
 2957SOL     OW10644   5.577  14.730   5.218
 2957SOL    HW110645   5.547  14.811   5.177
 2957SOL    HW210646   5.648  14.699   5.162
 2958SOL     OW10647   6.971   4.277   0.322
 2958SOL    HW110648   6.901   4.263   0.258
 2958SOL    HW210649   7.034   4.333   0.277
 2959SOL     OW10650   7.906   4.051   6.521
 2959SOL    HW110651   7.942   4.005   6.445
 2959SOL    HW210652   7.929   4.142   6.507
 2960SOL     OW10653   4.342  13.651   2.295
 2960SOL    HW110654   4.311  13.561   2.302
 2960SOL    HW210655   4.423  13.645   2.245
 2961SOL     OW10656  10.262   1.752  11.805
 2961SOL    HW110657  10.193   1.740  11.739
 2961SOL    HW210658  10.229   1.707  11.883
 2962SOL     OW10659   9.399   2.224   1.872
 2962SOL    HW110660   9.414   2.292   1.937
 2962SOL    HW210661   9.481   2.222   1.821
 2963SOL     OW10662  10.626  14.093  10.939
 2963SOL    HW110663  10.666  14.123  10.857
 2963SOL    HW210664  10.659  14.004  10.950
 2964SOL     OW10665   1.943   8.278   5.234
 2964SOL    HW110666   1.852   8.306   5.237
 2964SOL    HW210667   1.968   8.270   5.326
 2965SOL     OW10668   7.504  12.063  10.409
 2965SOL    HW110669   7.515  12.057  10.314
 2965SOL    HW210670   7.435  12.000  10.429
 2966SOL     OW10671   1.417   4.148  12.566
 2966SOL    HW110672   1.363   4.126  12.491
 2966SOL    HW210673   1.425   4.066  12.615
 2967SOL     OW10674   6.006   6.877   8.530
 2967SOL    HW110675   5.942   6.934   8.574
 2967SOL    HW210676   6.090   6.919   8.545
 2968SOL     OW10677   6.012   1.307   2.317
 2968SOL    HW110678   6.009   1.402   2.321
 2968SOL    HW210679   6.105   1.286   2.311
 2969SOL     OW10680   5.758   3.474   7.560
 2969SOL    HW110681   5.675   3.487   7.606
 2969SOL    HW210682   5.780   3.382   7.575
 2970SOL     OW10683   0.230   2.960   3.192
 2970SOL    HW110684   0.290   2.885   3.192
 2970SOL    HW210685   0.270   3.023   3.132
 2971SOL     OW10686   6.000   7.548  11.717
 2971SOL    HW110687   6.016   7.637  11.750
 2971SOL    HW210688   5.925   7.517  11.768
 2972SOL     OW10689   2.830   7.028   5.124
 2972SOL    HW110690   2.921   7.000   5.138
 2972SOL    HW210691   2.786   6.950   5.092
 2973SOL     OW10692  11.150  12.940   2.064
 2973SOL    HW110693  11.118  12.988   1.987
 2973SOL    HW210694  11.171  13.008   2.128
 2974SOL     OW10695   1.792   7.775   0.311
 2974SOL    HW110696   1.866   7.824   0.345
 2974SOL    HW210697   1.795   7.790   0.216
 2975SOL     OW10698   1.620   0.125   9.131
 2975SOL    HW110699   1.638   0.032   9.149
 2975SOL    HW210700   1.700   0.170   9.157
 2976SOL     OW10701  14.452   1.468   9.203
 2976SOL    HW110702  14.512   1.543   9.206
 2976SOL    HW210703  14.376   1.497   9.253
 2977SOL     OW10704   4.045  11.401   2.694
 2977SOL    HW110705   4.112  11.458   2.658
 2977SOL    HW210706   4.020  11.344   2.622
 2978SOL     OW10707   8.580   2.308  10.564
 2978SOL    HW110708   8.582   2.264  10.479
 2978SOL    HW210709   8.544   2.395  10.545
 2979SOL     OW10710   3.341  10.835   9.477
 2979SOL    HW110711   3.342  10.920   9.432
 2979SOL    HW210712   3.425  10.830   9.521
 2980SOL     OW10713   8.444   1.603  12.144
 2980SOL    HW110714   8.415   1.515  12.165
 2980SOL    HW210715   8.536   1.593  12.118
 2981SOL     OW10716   5.710   9.258   3.686
 2981SOL    HW110717   5.630   9.209   3.668
 2981SOL    HW210718   5.744   9.218   3.767
 2982SOL     OW10719   2.721  13.380  11.353
 2982SOL    HW110720   2.654  13.348  11.414
 2982SOL    HW210721   2.801  13.380  11.405
 2983SOL     OW10722  13.806   6.703  13.789
 2983SOL    HW110723  13.792   6.796  13.805
 2983SOL    HW210724  13.899   6.689  13.810
 2984SOL     OW10725   1.918  12.444   1.510
 2984SOL    HW110726   1.848  12.502   1.540
 2984SOL    HW210727   1.963  12.495   1.442
 2985SOL     OW10728   4.915   3.204   7.629
 2985SOL    HW110729   4.904   3.109   7.634
 2985SOL    HW210730   4.879   3.229   7.544
 2986SOL     OW10731  11.059  12.942  14.148
 2986SOL    HW110732  11.112  12.862  14.156
 2986SOL    HW210733  11.077  12.973  14.059
 2987SOL     OW10734   2.526   7.273   9.703
 2987SOL    HW110735   2.616   7.250   9.729
 2987SOL    HW210736   2.533   7.359   9.664
 2988SOL     OW10737   7.222   4.866  10.290
 2988SOL    HW110738   7.228   4.775  10.261
 2988SOL    HW210739   7.203   4.860  10.383
 2989SOL     OW10740   8.383   6.292  11.850
 2989SOL    HW110741   8.424   6.227  11.793
 2989SOL    HW210742   8.433   6.372  11.834
 2990SOL     OW10743   9.405   3.157   6.724
 2990SOL    HW110744   9.416   3.140   6.817
 2990SOL    HW210745   9.485   3.203   6.698
 2991SOL     OW10746  11.125  13.834  10.743
 2991SOL    HW110747  11.150  13.858  10.832
 2991SOL    HW210748  11.031  13.851  10.738
 2992SOL     OW10749   1.607  10.796   2.795
 2992SOL    HW110750   1.683  10.845   2.827
 2992SOL    HW210751   1.595  10.726   2.859
 2993SOL     OW10752   9.878   7.791   8.513
 2993SOL    HW110753   9.922   7.787   8.428
 2993SOL    HW210754   9.881   7.701   8.545
 2994SOL     OW10755   8.283   1.918   4.315
 2994SOL    HW110756   8.346   1.986   4.339
 2994SOL    HW210757   8.214   1.964   4.267
 2995SOL     OW10758   7.833  14.833   1.874
 2995SOL    HW110759   7.791  14.824   1.960
 2995SOL    HW210760   7.763  14.816   1.811
 2996SOL     OW10761  14.641  10.345   7.837
 2996SOL    HW110762  14.722  10.391   7.860
 2996SOL    HW210763  14.631  10.360   7.743
 2997SOL     OW10764   9.366  10.017   3.271
 2997SOL    HW110765   9.400  10.037   3.183
 2997SOL    HW210766   9.280   9.979   3.255
 2998SOL     OW10767   0.581   5.657  12.441
 2998SOL    HW110768   0.616   5.638  12.354
 2998SOL    HW210769   0.545   5.574  12.470
 2999SOL     OW10770   8.240   2.264   9.213
 2999SOL    HW110771   8.195   2.276   9.297
 2999SOL    HW210772   8.266   2.171   9.214
 3000SOL     OW10773   6.611   6.724  11.977
 3000SOL    HW110774   6.594   6.759  11.889
 3000SOL    HW210775   6.581   6.792  12.037
 3001SOL     OW10776  14.795  10.993   7.655
 3001SOL    HW110777  14.819  10.940   7.731
 3001SOL    HW210778  14.862  10.973   7.589
 3002SOL     OW10779   3.056   1.436   1.790
 3002SOL    HW110780   3.103   1.498   1.733
 3002SOL    HW210781   3.040   1.360   1.734
 3003SOL     OW10782  13.473   3.717  11.206
 3003SOL    HW110783  13.414   3.661  11.257
 3003SOL    HW210784  13.555   3.718  11.256
 3004SOL     OW10785   5.958   4.754   7.188
 3004SOL    HW110786   5.953   4.827   7.127
 3004SOL    HW210787   6.034   4.773   7.243
 3005SOL     OW10788  14.505  14.818  13.033
 3005SOL    HW110789  14.417  14.791  13.007
 3005SOL    HW210790  14.552  14.829  12.950
 3006SOL     OW10791  13.183   8.551   1.783
 3006SOL    HW110792  13.185   8.570   1.877
 3006SOL    HW210793  13.151   8.632   1.743
 3007SOL     OW10794  11.391  11.714  12.597
 3007SOL    HW110795  11.483  11.737  12.584
 3007SOL    HW210796  11.387  11.683  12.688
 3008SOL     OW10797   1.675   8.389   4.213
 3008SOL    HW110798   1.628   8.372   4.295
 3008SOL    HW210799   1.658   8.312   4.159
 3009SOL     OW10800   7.851   9.653  11.716
 3009SOL    HW110801   7.784   9.658  11.647
 3009SOL    HW210802   7.849   9.562  11.745
 3010SOL     OW10803  14.837   1.569  12.040
 3010SOL    HW110804  14.754   1.535  12.008
 3010SOL    HW210805  14.824   1.581  12.134
 3011SOL     OW10806  14.005   6.320   0.129
 3011SOL    HW110807  14.075   6.351   0.072
 3011SOL    HW210808  14.048   6.260   0.190
 3012SOL     OW10809   6.940  11.690   3.103
 3012SOL    HW110810   6.980  11.666   3.020
 3012SOL    HW210811   6.986  11.636   3.168
 3013SOL     OW10812   3.130   4.065   5.585
 3013SOL    HW110813   3.071   3.990   5.598
 3013SOL    HW210814   3.215   4.034   5.617
 3014SOL     OW10815   6.621   6.121   3.908
 3014SOL    HW110816   6.600   6.198   3.961
 3014SOL    HW210817   6.572   6.134   3.827
 3015SOL     OW10818   1.599   7.101   2.049
 3015SOL    HW110819   1.517   7.108   2.098
 3015SOL    HW210820   1.575   7.062   1.965
 3016SOL     OW10821  14.038   3.168   6.640
 3016SOL    HW110822  14.110   3.190   6.580
 3016SOL    HW210823  14.056   3.218   6.719
 3017SOL     OW10824  10.643   4.796   7.569
 3017SOL    HW110825  10.593   4.848   7.632
 3017SOL    HW210826  10.662   4.715   7.615
 3018SOL     OW10827   9.548  10.423   1.560
 3018SOL    HW110828   9.466  10.375   1.543
 3018SOL    HW210829   9.595  10.420   1.476
 3019SOL     OW10830   4.310  10.275  11.558
 3019SOL    HW110831   4.255  10.300  11.632
 3019SOL    HW210832   4.360  10.200  11.590
 3020SOL     OW10833   9.555   5.154   3.503
 3020SOL    HW110834   9.630   5.138   3.445
 3020SOL    HW210835   9.590   5.210   3.572
 3021SOL     OW10836  11.726  13.258  13.667
 3021SOL    HW110837  11.822  13.261  13.663
 3021SOL    HW210838  11.705  13.284  13.757
 3022SOL     OW10839   0.358   8.947  10.130
 3022SOL    HW110840   0.408   9.004  10.072
 3022SOL    HW210841   0.401   8.862  10.123
 3023SOL     OW10842  14.172   9.068   1.558
 3023SOL    HW110843  14.194   9.007   1.628
 3023SOL    HW210844  14.233   9.142   1.571
 3024SOL     OW10845   9.827   0.202   0.882
 3024SOL    HW110846   9.782   0.168   0.960
 3024SOL    HW210847   9.774   0.278   0.856
 3025SOL     OW10848   3.542   5.721   2.046
 3025SOL    HW110849   3.597   5.798   2.060
 3025SOL    HW210850   3.490   5.714   2.127
 3026SOL     OW10851   7.216   7.020   6.787
 3026SOL    HW110852   7.225   6.987   6.877
 3026SOL    HW210853   7.140   6.973   6.752
 3027SOL     OW10854  11.503  14.856   0.637
 3027SOL    HW110855  11.474  14.833   0.726
 3027SOL    HW210856  11.459   0.057   0.618
 3028SOL     OW10857  13.920   9.127  10.091
 3028SOL    HW110858  13.877   9.100  10.010
 3028SOL    HW210859  13.944   9.044  10.134
 3029SOL     OW10860  10.609  14.856   9.518
 3029SOL    HW110861  10.632  14.862   9.425
 3029SOL    HW210862  10.643   0.055   9.556
 3030SOL     OW10863   9.817   9.468  11.927
 3030SOL    HW110864   9.840   9.502  12.014
 3030SOL    HW210865   9.891   9.491  11.872
 3031SOL     OW10866   8.624  13.356  12.907
 3031SOL    HW110867   8.681  13.417  12.860
 3031SOL    HW210868   8.595  13.294  12.840
 3032SOL     OW10869   9.193  11.340   8.816
 3032SOL    HW110870   9.114  11.350   8.763
 3032SOL    HW210871   9.220  11.429   8.836
 3033SOL     OW10872   2.657  13.263  13.857
 3033SOL    HW110873   2.688  13.173  13.866
 3033SOL    HW210874   2.621  13.285  13.943
 3034SOL     OW10875   6.257   3.830   8.077
 3034SOL    HW110876   6.344   3.853   8.041
 3034SOL    HW210877   6.197   3.848   8.005
 3035SOL     OW10878   3.440   7.744   4.710
 3035SOL    HW110879   3.487   7.793   4.642
 3035SOL    HW210880   3.397   7.673   4.662
 3036SOL     OW10881   4.064   5.979  11.684
 3036SOL    HW110882   4.090   6.025  11.764
 3036SOL    HW210883   4.053   5.888  11.712
 3037SOL     OW10884  12.599  11.859  10.192
 3037SOL    HW110885  12.579  11.914  10.268
 3037SOL    HW210886  12.559  11.774  10.213
 3038SOL     OW10887   9.600  12.031   8.026
 3038SOL    HW110888   9.554  12.061   7.948
 3038SOL    HW210889   9.552  12.071   8.099
 3039SOL     OW10890   9.282   1.534   0.952
 3039SOL    HW110891   9.340   1.480   1.006
 3039SOL    HW210892   9.204   1.480   0.939
 3040SOL     OW10893   0.662  11.000   0.844
 3040SOL    HW110894   0.661  10.908   0.873
 3040SOL    HW210895   0.750  11.031   0.865
 3041SOL     OW10896   5.003   2.728   4.739
 3041SOL    HW110897   5.038   2.649   4.698
 3041SOL    HW210898   4.925   2.698   4.786
 3042SOL     OW10899  11.909   6.856   8.917
 3042SOL    HW110900  11.966   6.789   8.878
 3042SOL    HW210901  11.955   6.881   8.998
 3043SOL     OW10902  13.548   6.566  10.272
 3043SOL    HW110903  13.496   6.645  10.283
 3043SOL    HW210904  13.632   6.596  10.239
 3044SOL     OW10905   0.600  11.161   9.449
 3044SOL    HW110906   0.541  11.087   9.437
 3044SOL    HW210907   0.656  11.135   9.523
 3045SOL     OW10908   2.501   1.691  12.827
 3045SOL    HW110909   2.407   1.708  12.812
 3045SOL    HW210910   2.538   1.683  12.740
 3046SOL     OW10911   1.670   7.072   9.314
 3046SOL    HW110912   1.681   7.111   9.401
 3046SOL    HW210913   1.613   6.997   9.329
 3047SOL     OW10914  13.592  12.182   6.674
 3047SOL    HW110915  13.536  12.193   6.751
 3047SOL    HW210916  13.580  12.262   6.624
 3048SOL     OW10917  14.859   4.941   7.325
 3048SOL    HW110918   0.005   5.014   7.380
 3048SOL    HW210919   0.028   4.952   7.244
 3049SOL     OW10920   5.795  12.938   8.035
 3049SOL    HW110921   5.808  12.847   8.007
 3049SOL    HW210922   5.861  12.987   7.987
 3050SOL     OW10923   5.415   2.806   2.904
 3050SOL    HW110924   5.344   2.845   2.954
 3050SOL    HW210925   5.469   2.879   2.876
 3051SOL     OW10926   0.263   0.075   5.118
 3051SOL    HW110927   0.212   0.013   5.066
 3051SOL    HW210928   0.280   0.029   5.200
 3052SOL     OW10929  12.811  12.936   7.556
 3052SOL    HW110930  12.854  12.867   7.506
 3052SOL    HW210931  12.718  12.912   7.554
 3053SOL     OW10932  13.753   9.761   2.644
 3053SOL    HW110933  13.836   9.801   2.618
 3053SOL    HW210934  13.754   9.763   2.739
 3054SOL     OW10935  14.806   0.560  12.985
 3054SOL    HW110936  14.751   0.540  13.061
 3054SOL    HW210937  14.748   0.554  12.910
 3055SOL     OW10938   0.491   3.120   2.852
 3055SOL    HW110939   0.469   3.137   2.943
 3055SOL    HW210940   0.426   3.057   2.822
 3056SOL     OW10941   0.834  11.041   1.422
 3056SOL    HW110942   0.799  11.103   1.358
 3056SOL    HW210943   0.808  11.076   1.507
 3057SOL     OW10944   2.551   3.643  11.680
 3057SOL    HW110945   2.459   3.629  11.661
 3057SOL    HW210946   2.595   3.566  11.644
 3058SOL     OW10947   1.741   8.465   2.496
 3058SOL    HW110948   1.829   8.446   2.463
 3058SOL    HW210949   1.741   8.559   2.513
 3059SOL     OW10950   2.303  14.761   5.864
 3059SOL    HW110951   2.369  14.824   5.835
 3059SOL    HW210952   2.239  14.759   5.793
 3060SOL     OW10953   3.637   8.973  13.041
 3060SOL    HW110954   3.658   8.930  12.958
 3060SOL    HW210955   3.692   9.051  13.042
 3061SOL     OW10956   0.231   1.764   2.242
 3061SOL    HW110957   0.244   1.859   2.244
 3061SOL    HW210958   0.318   1.728   2.230
 3062SOL     OW10959  14.659   5.672  11.832
 3062SOL    HW110960  14.613   5.605  11.882
 3062SOL    HW210961  14.741   5.630  11.805
 3063SOL     OW10962  12.577  10.901   5.060
 3063SOL    HW110963  12.548  10.811   5.077
 3063SOL    HW210964  12.657  10.890   5.009
 3064SOL     OW10965   0.288   6.347  12.815
 3064SOL    HW110966   0.192   6.343  12.823
 3064SOL    HW210967   0.316   6.256  12.822
 3065SOL     OW10968   1.799  13.646  13.787
 3065SOL    HW110969   1.828  13.558  13.813
 3065SOL    HW210970   1.838  13.659  13.700
 3066SOL     OW10971  11.120   6.377  10.146
 3066SOL    HW110972  11.041   6.330  10.173
 3066SOL    HW210973  11.149   6.332  10.067
 3067SOL     OW10974   3.369   9.437   5.593
 3067SOL    HW110975   3.320   9.497   5.537
 3067SOL    HW210976   3.457   9.475   5.600
 3068SOL     OW10977   5.724   3.799   9.896
 3068SOL    HW110978   5.674   3.723   9.926
 3068SOL    HW210979   5.673   3.875   9.925
 3069SOL     OW10980  10.566   0.086  13.930
 3069SOL    HW110981  10.478   0.093  13.894
 3069SOL    HW210982  10.574  14.876  13.957
 3070SOL     OW10983   4.638   3.475  12.554
 3070SOL    HW110984   4.651   3.393  12.505
 3070SOL    HW210985   4.721   3.491  12.598
 3071SOL     OW10986  10.083   4.909   6.009
 3071SOL    HW110987  10.144   4.904   6.083
 3071SOL    HW210988  10.134   4.950   5.939
 3072SOL     OW10989   0.163   7.296   0.329
 3072SOL    HW110990   0.131   7.268   0.243
 3072SOL    HW210991   0.136   7.227   0.389
 3073SOL     OW10992   1.083   2.198  12.627
 3073SOL    HW110993   1.043   2.267  12.681
 3073SOL    HW210994   1.073   2.118  12.680
 3074SOL     OW10995  10.963  10.115   6.222
 3074SOL    HW110996  11.020  10.060   6.276
 3074SOL    HW210997  11.017  10.191   6.201
 3075SOL     OW10998   3.851  14.513   3.592
 3075SOL    HW110999   3.945  14.512   3.579
 3075SOL    HW211000   3.824  14.600   3.561
 3076SOL     OW11001   3.220   8.885   0.996
 3076SOL    HW111002   3.216   8.860   1.088
 3076SOL    HW211003   3.209   8.980   0.997
 3077SOL     OW11004  14.298   4.165  13.448
 3077SOL    HW111005  14.341   4.133  13.527
 3077SOL    HW211006  14.368   4.177  13.385
 3078SOL     OW11007   2.173   7.895  11.982
 3078SOL    HW111008   2.262   7.918  11.955
 3078SOL    HW211009   2.141   7.837  11.913
 3079SOL     OW11010  10.266   8.081   1.334
 3079SOL    HW111011  10.311   8.163   1.354
 3079SOL    HW211012  10.272   8.030   1.415
 3080SOL     OW11013  11.941  11.372   8.202
 3080SOL    HW111014  11.954  11.348   8.294
 3080SOL    HW211015  11.922  11.466   8.204
 3081SOL     OW11016  13.022  11.974   1.095
 3081SOL    HW111017  12.991  11.900   1.146
 3081SOL    HW211018  13.069  12.029   1.157
 3082SOL     OW11019  10.408  11.656   1.114
 3082SOL    HW111020  10.341  11.602   1.156
 3082SOL    HW211021  10.369  11.682   1.030
 3083SOL     OW11022   8.546  12.273  10.849
 3083SOL    HW111023   8.591  12.257  10.766
 3083SOL    HW211024   8.615  12.295  10.911
 3084SOL     OW11025  13.750  10.139   4.139
 3084SOL    HW111026  13.736  10.047   4.160
 3084SOL    HW211027  13.677  10.162   4.081
 3085SOL     OW11028  10.249  10.740   2.612
 3085SOL    HW111029  10.326  10.687   2.593
 3085SOL    HW211030  10.176  10.678   2.612
 3086SOL     OW11031   5.849  10.786   3.829
 3086SOL    HW111032   5.943  10.792   3.842
 3086SOL    HW211033   5.820  10.718   3.890
 3087SOL     OW11034   8.148   3.652   5.218
 3087SOL    HW111035   8.181   3.568   5.185
 3087SOL    HW211036   8.094   3.685   5.147
 3088SOL     OW11037  13.637  12.057   3.704
 3088SOL    HW111038  13.575  12.115   3.660
 3088SOL    HW211039  13.691  12.115   3.757
 3089SOL     OW11040   2.341   6.388   5.886
 3089SOL    HW111041   2.435   6.405   5.888
 3089SOL    HW211042   2.331   6.303   5.927
 3090SOL     OW11043  11.796   8.638  12.575
 3090SOL    HW111044  11.886   8.653  12.546
 3090SOL    HW211045  11.806   8.591  12.658
 3091SOL     OW11046   5.510   6.297   2.592
 3091SOL    HW111047   5.514   6.306   2.497
 3091SOL    HW211048   5.444   6.230   2.607
 3092SOL     OW11049  13.052   3.632  14.613
 3092SOL    HW111050  12.973   3.594  14.650
 3092SOL    HW211051  13.123   3.600  14.668
 3093SOL     OW11052  10.576   8.401   1.635
 3093SOL    HW111053  10.573   8.436   1.724
 3093SOL    HW211054  10.593   8.478   1.580
 3094SOL     OW11055  13.414  11.460   0.320
 3094SOL    HW111056  13.508  11.474   0.334
 3094SOL    HW211057  13.390  11.392   0.383
 3095SOL     OW11058   6.067   7.990   9.023
 3095SOL    HW111059   6.146   8.041   9.004
 3095SOL    HW211060   6.085   7.904   8.984
 3096SOL     OW11061   6.689   5.062  11.968
 3096SOL    HW111062   6.756   5.128  11.986
 3096SOL    HW211063   6.638   5.100  11.897
 3097SOL     OW11064   7.982   3.944   6.272
 3097SOL    HW111065   7.887   3.941   6.273
 3097SOL    HW211066   8.003   4.007   6.203
 3098SOL     OW11067   9.505  10.494   7.267
 3098SOL    HW111068   9.497  10.588   7.289
 3098SOL    HW211069   9.599  10.481   7.252
 3099SOL     OW11070   5.484   8.091   2.352
 3099SOL    HW111071   5.485   8.170   2.298
 3099SOL    HW211072   5.459   8.020   2.293
 3100SOL     OW11073  11.035   1.397  14.838
 3100SOL    HW111074  11.046   1.413  14.744
 3100SOL    HW211075  10.960   1.338  14.843
 3101SOL     OW11076   3.241   3.017  13.603
 3101SOL    HW111077   3.170   2.962  13.569
 3101SOL    HW211078   3.197   3.082  13.658
 3102SOL     OW11079   2.052   3.539   0.851
 3102SOL    HW111080   2.050   3.483   0.929
 3102SOL    HW211081   1.968   3.524   0.808
 3103SOL     OW11082   1.178   4.384  10.971
 3103SOL    HW111083   1.266   4.349  10.983
 3103SOL    HW211084   1.170   4.399  10.877
 3104SOL     OW11085   2.492   2.972   1.699
 3104SOL    HW111086   2.495   3.065   1.676
 3104SOL    HW211087   2.442   2.969   1.780
 3105SOL     OW11088   6.150   1.500   5.755
 3105SOL    HW111089   6.057   1.481   5.767
 3105SOL    HW211090   6.160   1.514   5.661
 3106SOL     OW11091  12.860   6.885   4.280
 3106SOL    HW111092  12.936   6.943   4.269
 3106SOL    HW211093  12.868   6.821   4.210
 3107SOL     OW11094  11.487  12.908   3.647
 3107SOL    HW111095  11.494  12.989   3.696
 3107SOL    HW211096  11.497  12.839   3.712
 3108SOL     OW11097   3.073   0.411   6.465
 3108SOL    HW111098   3.012   0.478   6.434
 3108SOL    HW211099   3.097   0.440   6.553
 3109SOL     OW11100  10.025   9.020   8.606
 3109SOL    HW111101  10.091   9.043   8.541
 3109SOL    HW211102  10.069   8.959   8.665
 3110SOL     OW11103   5.821   7.521  13.121
 3110SOL    HW111104   5.807   7.431  13.090
 3110SOL    HW211105   5.741   7.543  13.168
 3111SOL     OW11106  10.670   7.046   7.401
 3111SOL    HW111107  10.726   6.971   7.383
 3111SOL    HW211108  10.615   7.055   7.323
 3112SOL     OW11109  11.518   4.525  11.954
 3112SOL    HW111110  11.441   4.537  11.899
 3112SOL    HW211111  11.483   4.492  12.037
 3113SOL     OW11112   3.999   1.842  13.387
 3113SOL    HW111113   4.090   1.840  13.357
 3113SOL    HW211114   3.968   1.930  13.364
 3114SOL     OW11115   1.576  13.994   9.403
 3114SOL    HW111116   1.626  13.937   9.345
 3114SOL    HW211117   1.504  14.027   9.348
 3115SOL     OW11118   2.018  13.324   7.907
 3115SOL    HW111119   2.038  13.271   7.984
 3115SOL    HW211120   2.020  13.414   7.940
 3116SOL     OW11121   0.974  14.778   5.240
 3116SOL    HW111122   1.009  14.692   5.265
 3116SOL    HW211123   0.890  14.784   5.286
 3117SOL     OW11124   7.552   8.085  12.413
 3117SOL    HW111125   7.497   8.159  12.437
 3117SOL    HW211126   7.638   8.107  12.450
 3118SOL     OW11127   5.611   6.991   9.156
 3118SOL    HW111128   5.688   6.946   9.121
 3118SOL    HW211129   5.562   7.018   9.078
 3119SOL     OW11130   9.644   4.182   6.237
 3119SOL    HW111131   9.553   4.154   6.229
 3119SOL    HW211132   9.680   4.171   6.149
 3120SOL     OW11133   8.654  11.647  14.408
 3120SOL    HW111134   8.671  11.629  14.315
 3120SOL    HW211135   8.560  11.636  14.417
 3121SOL     OW11136   5.209   6.174  13.138
 3121SOL    HW111137   5.196   6.269  13.133
 3121SOL    HW211138   5.261   6.162  13.217
 3122SOL     OW11139   0.755   3.831   4.540
 3122SOL    HW111140   0.705   3.896   4.491
 3122SOL    HW211141   0.697   3.754   4.543
 3123SOL     OW11142   2.916  10.111  13.808
 3123SOL    HW111143   2.994  10.056  13.818
 3123SOL    HW211144   2.863  10.092  13.886
 3124SOL     OW11145  13.245   0.622  14.596
 3124SOL    HW111146  13.307   0.621  14.523
 3124SOL    HW211147  13.164   0.656  14.559
 3125SOL     OW11148   7.336  14.608  10.278
 3125SOL    HW111149   7.320  14.551  10.203
 3125SOL    HW211150   7.401  14.671  10.246
 3126SOL     OW11151   4.369  11.945  11.308
 3126SOL    HW111152   4.381  11.892  11.387
 3126SOL    HW211153   4.413  12.027  11.328
 3127SOL     OW11154  14.179   1.089   8.400
 3127SOL    HW111155  14.118   1.159   8.423
 3127SOL    HW211156  14.130   1.008   8.418
 3128SOL     OW11157   6.682   8.990   2.221
 3128SOL    HW111158   6.711   8.947   2.140
 3128SOL    HW211159   6.756   8.977   2.281
 3129SOL     OW11160  10.267   7.693   3.172
 3129SOL    HW111161  10.290   7.660   3.259
 3129SOL    HW211162  10.215   7.771   3.189
 3130SOL     OW11163   1.515  12.384  10.974
 3130SOL    HW111164   1.536  12.471  11.008
 3130SOL    HW211165   1.421  12.388  10.956
 3131SOL     OW11166  14.103   6.656  11.192
 3131SOL    HW111167  14.014   6.680  11.221
 3131SOL    HW211168  14.128   6.727  11.132
 3132SOL     OW11169   4.173   5.732   9.011
 3132SOL    HW111170   4.247   5.671   9.013
 3132SOL    HW211171   4.170   5.762   8.920
 3133SOL     OW11172   8.436   1.037  11.751
 3133SOL    HW111173   8.377   1.081  11.811
 3133SOL    HW211174   8.493   1.106  11.718
 3134SOL     OW11175  13.792  11.628  14.678
 3134SOL    HW111176  13.881  11.593  14.677
 3134SOL    HW211177  13.744  11.574  14.614
 3135SOL     OW11178   3.323   1.104   6.414
 3135SOL    HW111179   3.404   1.090   6.365
 3135SOL    HW211180   3.288   1.016   6.427
 3136SOL     OW11181   4.405   6.400   4.212
 3136SOL    HW111182   4.444   6.351   4.285
 3136SOL    HW211183   4.314   6.371   4.211
 3137SOL     OW11184  14.490   9.458   3.756
 3137SOL    HW111185  14.561   9.490   3.701
 3137SOL    HW211186  14.502   9.503   3.840
 3138SOL     OW11187  14.076   0.572   3.358
 3138SOL    HW111188  14.086   0.625   3.437
 3138SOL    HW211189  14.089   0.482   3.388
 3139SOL     OW11190  13.577   6.652   8.752
 3139SOL    HW111191  13.668   6.622   8.747
 3139SOL    HW211192  13.546   6.622   8.837
 3140SOL     OW11193   3.589  14.120   8.830
 3140SOL    HW111194   3.670  14.168   8.849
 3140SOL    HW211195   3.556  14.093   8.916
 3141SOL     OW11196   0.465   3.055   2.408
 3141SOL    HW111197   0.410   3.021   2.479
 3141SOL    HW211198   0.403   3.101   2.350
 3142SOL     OW11199   1.838   0.053   7.906
 3142SOL    HW111200   1.765   0.066   7.846
 3142SOL    HW211201   1.853   0.139   7.945
 3143SOL     OW11202   5.025   9.038   6.163
 3143SOL    HW111203   5.037   9.132   6.158
 3143SOL    HW211204   4.967   9.025   6.239
 3144SOL     OW11205   8.537   5.164   1.242
 3144SOL    HW111206   8.496   5.085   1.208
 3144SOL    HW211207   8.627   5.161   1.209
 3145SOL     OW11208   9.885  12.612   7.684
 3145SOL    HW111209   9.845  12.621   7.598
 3145SOL    HW211210   9.813  12.589   7.743
 3146SOL     OW11211   9.947  10.541   6.167
 3146SOL    HW111212   9.913  10.452   6.176
 3146SOL    HW211213   9.945  10.577   6.256
 3147SOL     OW11214  11.290   9.345   3.768
 3147SOL    HW111215  11.222   9.387   3.716
 3147SOL    HW211216  11.315   9.413   3.831
 3148SOL     OW11217   1.807  11.888   7.239
 3148SOL    HW111218   1.890  11.840   7.230
 3148SOL    HW211219   1.740  11.820   7.238
 3149SOL     OW11220   3.023   3.473  12.463
 3149SOL    HW111221   2.981   3.550  12.501
 3149SOL    HW211222   2.982   3.399  12.508
 3150SOL     OW11223   3.022   9.176  10.099
 3150SOL    HW111224   3.095   9.127  10.137
 3150SOL    HW211225   3.026   9.261  10.141
 3151SOL     OW11226  10.572   1.539  12.361
 3151SOL    HW111227  10.625   1.485  12.302
 3151SOL    HW211228  10.487   1.495  12.363
 3152SOL     OW11229   9.872   4.091   8.466
 3152SOL    HW111230   9.809   4.027   8.433
 3152SOL    HW211231   9.943   4.090   8.402
 3153SOL     OW11232  11.917   7.908   1.849
 3153SOL    HW111233  11.893   7.815   1.853
 3153SOL    HW211234  11.996   7.910   1.795
 3154SOL     OW11235   5.481   3.665   7.015
 3154SOL    HW111236   5.521   3.736   6.966
 3154SOL    HW211237   5.551   3.601   7.026
 3155SOL     OW11238   1.903   0.229  14.752
 3155SOL    HW111239   1.974   0.270  14.704
 3155SOL    HW211240   1.838   0.208  14.685
 3156SOL     OW11241  11.525   5.485   7.430
 3156SOL    HW111242  11.462   5.541   7.477
 3156SOL    HW211243  11.530   5.405   7.482
 3157SOL     OW11244   8.839   8.715  10.300
 3157SOL    HW111245   8.845   8.802  10.339
 3157SOL    HW211246   8.817   8.731  10.208
 3158SOL     OW11247   3.904   0.927   0.142
 3158SOL    HW111248   3.984   0.936   0.193
 3158SOL    HW211249   3.911   0.841   0.101
 3159SOL     OW11250   5.463   2.019   3.430
 3159SOL    HW111251   5.375   1.987   3.449
 3159SOL    HW211252   5.520   1.965   3.484
 3160SOL     OW11253   0.879   6.898   3.723
 3160SOL    HW111254   0.850   6.989   3.736
 3160SOL    HW211255   0.895   6.892   3.628
 3161SOL     OW11256  13.656  11.279  10.332
 3161SOL    HW111257  13.626  11.208  10.390
 3161SOL    HW211258  13.596  11.351  10.349
 3162SOL     OW11259  11.797   8.602  14.458
 3162SOL    HW111260  11.759   8.559  14.382
 3162SOL    HW211261  11.865   8.659  14.422
 3163SOL     OW11262   4.910   2.997   2.606
 3163SOL    HW111263   4.988   3.033   2.649
 3163SOL    HW211264   4.909   3.039   2.520
 3164SOL     OW11265   0.591   8.067   3.268
 3164SOL    HW111266   0.511   8.030   3.303
 3164SOL    HW211267   0.659   8.044   3.332
 3165SOL     OW11268   7.958   9.317   5.566
 3165SOL    HW111269   7.872   9.349   5.537
 3165SOL    HW211270   7.995   9.390   5.616
 3166SOL     OW11271   7.451   2.277   5.563
 3166SOL    HW111272   7.485   2.360   5.530
 3166SOL    HW211273   7.420   2.231   5.486
 3167SOL     OW11274  10.635   3.985   6.784
 3167SOL    HW111275  10.652   3.994   6.691
 3167SOL    HW211276  10.543   4.009   6.795
 3168SOL     OW11277   3.703   3.584   1.950
 3168SOL    HW111278   3.716   3.552   1.860
 3168SOL    HW211279   3.711   3.679   1.943
 3169SOL     OW11280  12.784   8.638   8.234
 3169SOL    HW111281  12.856   8.589   8.195
 3169SOL    HW211282  12.705   8.589   8.210
 3170SOL     OW11283   1.522  12.679   5.199
 3170SOL    HW111284   1.452  12.687   5.263
 3170SOL    HW211285   1.588  12.742   5.228
 3171SOL     OW11286   1.092  13.119  11.250
 3171SOL    HW111287   1.057  13.030  11.252
 3171SOL    HW211288   1.183  13.108  11.222
 3172SOL     OW11289   5.443   2.211   0.043
 3172SOL    HW111290   5.386   2.233  14.851
 3172SOL    HW211291   5.402   2.254   0.119
 3173SOL     OW11292   8.246   9.933  13.414
 3173SOL    HW111293   8.151   9.938  13.418
 3173SOL    HW211294   8.272   9.906  13.501
 3174SOL     OW11295  14.018   0.483  14.557
 3174SOL    HW111296  14.021   0.532  14.639
 3174SOL    HW211297  14.083   0.414  14.568
 3175SOL     OW11298   4.580   7.184   6.413
 3175SOL    HW111299   4.648   7.117   6.404
 3175SOL    HW211300   4.500   7.134   6.431
 3176SOL     OW11301   4.431   4.786   6.752
 3176SOL    HW111302   4.374   4.765   6.678
 3176SOL    HW211303   4.493   4.713   6.757
 3177SOL     OW11304   7.944   0.966   0.408
 3177SOL    HW111305   7.930   1.048   0.455
 3177SOL    HW211306   8.024   0.981   0.357
 3178SOL     OW11307  13.028  14.630   3.773
 3178SOL    HW111308  13.034  14.697   3.705
 3178SOL    HW211309  13.008  14.550   3.725
 3179SOL     OW11310  12.851  13.606   4.917
 3179SOL    HW111311  12.845  13.677   4.854
 3179SOL    HW211312  12.852  13.527   4.864
 3180SOL     OW11313   3.954  14.515  13.004
 3180SOL    HW111314   3.899  14.593  12.999
 3180SOL    HW211315   4.018  14.536  13.073
 3181SOL     OW11316   9.764   4.178   5.995
 3181SOL    HW111317   9.856   4.184   6.024
 3181SOL    HW211318   9.743   4.267   5.967
 3182SOL     OW11319  13.813   7.549   8.380
 3182SOL    HW111320  13.785   7.579   8.467
 3182SOL    HW211321  13.737   7.566   8.324
 3183SOL     OW11322  13.709  12.453   3.378
 3183SOL    HW111323  13.733  12.390   3.445
 3183SOL    HW211324  13.672  12.400   3.307
 3184SOL     OW11325   2.862   1.821   1.346
 3184SOL    HW111326   2.932   1.768   1.382
 3184SOL    HW211327   2.787   1.804   1.403
 3185SOL     OW11328   0.446  13.243   1.454
 3185SOL    HW111329   0.423  13.317   1.510
 3185SOL    HW211330   0.365  13.222   1.407
 3186SOL     OW11331  12.914   9.324   8.369
 3186SOL    HW111332  12.899   9.249   8.426
 3186SOL    HW211333  12.861   9.394   8.406
 3187SOL     OW11334   0.299  10.200   1.314
 3187SOL    HW111335   0.360  10.273   1.315
 3187SOL    HW211336   0.255  10.204   1.400
 3188SOL     OW11337  13.511   1.721   5.953
 3188SOL    HW111338  13.589   1.777   5.950
 3188SOL    HW211339  13.529   1.651   5.890
 3189SOL     OW11340   2.600   3.270   3.227
 3189SOL    HW111341   2.575   3.325   3.153
 3189SOL    HW211342   2.517   3.251   3.272
 3190SOL     OW11343   3.913  12.987   8.864
 3190SOL    HW111344   3.965  12.955   8.790
 3190SOL    HW211345   3.862  12.911   8.893
 3191SOL     OW11346   8.402   7.873   8.812
 3191SOL    HW111347   8.349   7.860   8.891
 3191SOL    HW211348   8.345   7.919   8.752
 3192SOL     OW11349   1.142   0.150   8.982
 3192SOL    HW111350   1.174   0.061   8.968
 3192SOL    HW211351   1.095   0.146   9.066
 3193SOL     OW11352   4.295   7.772  11.801
 3193SOL    HW111353   4.202   7.795  11.795
 3193SOL    HW211354   4.321   7.801  11.889
 3194SOL     OW11355   1.596   7.092   4.177
 3194SOL    HW111356   1.618   6.999   4.179
 3194SOL    HW211357   1.522   7.098   4.116
 3195SOL     OW11358  10.334   9.304   0.204
 3195SOL    HW111359  10.322   9.393   0.236
 3195SOL    HW211360  10.426   9.284   0.224
 3196SOL     OW11361   8.139  13.973  12.095
 3196SOL    HW111362   8.081  13.909  12.135
 3196SOL    HW211363   8.219  13.970  12.148
 3197SOL     OW11364   6.560   5.834  14.354
 3197SOL    HW111365   6.620   5.902  14.323
 3197SOL    HW211366   6.526   5.869  14.436
 3198SOL     OW11367   0.320  11.320   9.166
 3198SOL    HW111368   0.337  11.226   9.163
 3198SOL    HW211369   0.347  11.352   9.080
 3199SOL     OW11370   8.420   8.977   2.157
 3199SOL    HW111371   8.499   8.961   2.106
 3199SOL    HW211372   8.398   8.892   2.194
 3200SOL     OW11373   1.807   8.100  10.492
 3200SOL    HW111374   1.768   8.016  10.467
 3200SOL    HW211375   1.885   8.076  10.542
 3201SOL     OW11376   8.627   0.732   5.729
 3201SOL    HW111377   8.629   0.637   5.719
 3201SOL    HW211378   8.565   0.762   5.663
 3202SOL     OW11379   2.959  13.345   9.930
 3202SOL    HW111380   3.048  13.310   9.934
 3202SOL    HW211381   2.939  13.349   9.837
 3203SOL     OW11382   7.197   1.197  14.227
 3203SOL    HW111383   7.248   1.276  14.246
 3203SOL    HW211384   7.117   1.230  14.186
 3204SOL     OW11385  10.525   0.521   3.376
 3204SOL    HW111386  10.458   0.490   3.437
 3204SOL    HW211387  10.577   0.583   3.427
 3205SOL     OW11388  11.535   6.456   4.424
 3205SOL    HW111389  11.575   6.432   4.508
 3205SOL    HW211390  11.503   6.545   4.437
 3206SOL     OW11391   0.599  13.583   9.461
 3206SOL    HW111392   0.603  13.618   9.372
 3206SOL    HW211393   0.514  13.613   9.494
 3207SOL     OW11394   9.293  13.856   5.682
 3207SOL    HW111395   9.230  13.786   5.701
 3207SOL    HW211396   9.351  13.819   5.616
 3208SOL     OW11397   9.607  11.310   6.734
 3208SOL    HW111398   9.552  11.301   6.812
 3208SOL    HW211399   9.544  11.319   6.662
 3209SOL     OW11400   2.377   7.198  12.669
 3209SOL    HW111401   2.367   7.221  12.577
 3209SOL    HW211402   2.472   7.199  12.684
 3210SOL     OW11403   1.553   0.820   6.208
 3210SOL    HW111404   1.465   0.788   6.187
 3210SOL    HW211405   1.547   0.915   6.199
 3211SOL     OW11406   9.643   0.916  10.282
 3211SOL    HW111407   9.692   0.996  10.262
 3211SOL    HW211408   9.574   0.945  10.342
 3212SOL     OW11409  10.202   1.690   7.599
 3212SOL    HW111410  10.224   1.598   7.615
 3212SOL    HW211411  10.114   1.700   7.633
 3213SOL     OW11412   2.108   5.504  12.591
 3213SOL    HW111413   2.149   5.418  12.585
 3213SOL    HW211414   2.040   5.502  12.524
 3214SOL     OW11415   3.250   9.256  13.649
 3214SOL    HW111416   3.182   9.306  13.694
 3214SOL    HW211417   3.332   9.292  13.682
 3215SOL     OW11418   6.833   4.992  10.097
 3215SOL    HW111419   6.900   5.050  10.062
 3215SOL    HW211420   6.842   4.911  10.048
 3216SOL     OW11421   7.197   8.024  10.491
 3216SOL    HW111422   7.232   8.075  10.564
 3216SOL    HW211423   7.274   7.986  10.449
 3217SOL     OW11424   5.543  14.466   7.369
 3217SOL    HW111425   5.637  14.483   7.374
 3217SOL    HW211426   5.514  14.516   7.292
 3218SOL     OW11427  14.734   7.357   3.795
 3218SOL    HW111428  14.707   7.282   3.742
 3218SOL    HW211429  14.806   7.324   3.848
 3219SOL     OW11430   9.948   2.239   0.421
 3219SOL    HW111431   9.870   2.287   0.397
 3219SOL    HW211432  10.010   2.255   0.350
 3220SOL     OW11433   4.182  13.426  10.930
 3220SOL    HW111434   4.212  13.399  10.844
 3220SOL    HW211435   4.124  13.355  10.959
 3221SOL     OW11436   4.136   9.398   9.503
 3221SOL    HW111437   4.104   9.436   9.584
 3221SOL    HW211438   4.174   9.472   9.455
 3222SOL     OW11439   6.079  11.406  13.930
 3222SOL    HW111440   6.007  11.417  13.868
 3222SOL    HW211441   6.067  11.477  13.993
 3223SOL     OW11442   7.803   1.631   2.095
 3223SOL    HW111443   7.850   1.548   2.103
 3223SOL    HW211444   7.861   1.686   2.042
 3224SOL     OW11445   3.858   3.527   8.750
 3224SOL    HW111446   3.866   3.456   8.687
 3224SOL    HW211447   3.792   3.497   8.813
 3225SOL     OW11448   7.853   9.893   8.048
 3225SOL    HW111449   7.799   9.943   8.109
 3225SOL    HW211450   7.938   9.938   8.049
 3226SOL     OW11451  13.446   3.304   7.997
 3226SOL    HW111452  13.373   3.319   7.937
 3226SOL    HW211453  13.407   3.310   8.084
 3227SOL     OW11454   8.114   2.524   4.050
 3227SOL    HW111455   8.041   2.473   4.085
 3227SOL    HW211456   8.174   2.459   4.015
 3228SOL     OW11457   9.992   0.633   7.966
 3228SOL    HW111458   9.928   0.614   8.036
 3228SOL    HW211459   9.942   0.682   7.901
 3229SOL     OW11460   7.724   0.838   6.486
 3229SOL    HW111461   7.709   0.745   6.502
 3229SOL    HW211462   7.641   0.869   6.449
 3230SOL     OW11463  13.323  14.703  12.458
 3230SOL    HW111464  13.337  14.631  12.396
 3230SOL    HW211465  13.337  14.782  12.406
 3231SOL     OW11466   5.621   4.214   9.369
 3231SOL    HW111467   5.642   4.197   9.277
 3231SOL    HW211468   5.630   4.309   9.378
 3232SOL     OW11469  14.460   4.669   3.955
 3232SOL    HW111470  14.388   4.681   4.017
 3232SOL    HW211471  14.516   4.602   3.995
 3233SOL     OW11472   9.331  11.366  13.518
 3233SOL    HW111473   9.384  11.309  13.573
 3233SOL    HW211474   9.265  11.402  13.578
 3234SOL     OW11475  10.366   2.470   3.141
 3234SOL    HW111476  10.328   2.515   3.066
 3234SOL    HW211477  10.431   2.531   3.175
 3235SOL     OW11478   8.797   8.346   8.344
 3235SOL    HW111479   8.832   8.258   8.354
 3235SOL    HW211480   8.819   8.370   8.253
 3236SOL     OW11481   7.060   7.755  13.315
 3236SOL    HW111482   7.134   7.724  13.366
 3236SOL    HW211483   7.053   7.692  13.242
 3237SOL     OW11484  12.673  14.190   0.009
 3237SOL    HW111485  12.765  14.216   0.001
 3237SOL    HW211486  12.623  14.265  14.858
 3238SOL     OW11487   6.943   3.645   8.547
 3238SOL    HW111488   6.853   3.614   8.558
 3238SOL    HW211489   6.966   3.685   8.631
 3239SOL     OW11490   6.650  10.618  10.924
 3239SOL    HW111491   6.616  10.616  11.013
 3239SOL    HW211492   6.733  10.571  10.929
 3240SOL     OW11493   6.335   1.235   3.436
 3240SOL    HW111494   6.297   1.323   3.431
 3240SOL    HW211495   6.334   1.203   3.346
 3241SOL     OW11496   8.845   7.537   4.645
 3241SOL    HW111497   8.846   7.590   4.565
 3241SOL    HW211498   8.935   7.507   4.655
 3242SOL     OW11499   0.832  10.963   0.086
 3242SOL    HW111500   0.927  10.976   0.087
 3242SOL    HW211501   0.820  10.875   0.123
 3243SOL     OW11502  14.217   4.714   0.275
 3243SOL    HW111503  14.218   4.638   0.333
 3243SOL    HW211504  14.140   4.700   0.220
 3244SOL     OW11505  10.555   1.281   4.735
 3244SOL    HW111506  10.505   1.266   4.815
 3244SOL    HW211507  10.488   1.284   4.666
 3245SOL     OW11508  10.992  10.730  11.456
 3245SOL    HW111509  10.911  10.754  11.502
 3245SOL    HW211510  11.053  10.707  11.526
 3246SOL     OW11511   0.164   0.774   1.917
 3246SOL    HW111512   0.189   0.690   1.878
 3246SOL    HW211513   0.171   0.760   2.011
 3247SOL     OW11514  14.836   2.693  12.198
 3247SOL    HW111515  14.845   2.648  12.114
 3247SOL    HW211516  14.854   2.625  12.263
 3248SOL     OW11517   6.363  12.202   8.696
 3248SOL    HW111518   6.456  12.184   8.709
 3248SOL    HW211519   6.361  12.291   8.659
 3249SOL     OW11520   5.275   6.975   7.060
 3249SOL    HW111521   5.268   6.887   7.021
 3249SOL    HW211522   5.355   7.011   7.023
 3250SOL     OW11523   3.967   1.088   5.790
 3250SOL    HW111524   3.935   1.178   5.784
 3250SOL    HW211525   3.941   1.058   5.877
 3251SOL     OW11526   5.487   2.020  10.112
 3251SOL    HW111527   5.521   1.934  10.132
 3251SOL    HW211528   5.515   2.075  10.185
 3252SOL     OW11529  14.194   9.269  14.094
 3252SOL    HW111530  14.187   9.196  14.033
 3252SOL    HW211531  14.106   9.277  14.132
 3253SOL     OW11532  12.561   5.306  10.375
 3253SOL    HW111533  12.650   5.281  10.352
 3253SOL    HW211534  12.526   5.230  10.421
 3254SOL     OW11535  13.000   2.483   2.787
 3254SOL    HW111536  12.959   2.397   2.776
 3254SOL    HW211537  13.051   2.475   2.868
 3255SOL     OW11538   0.295  13.472  10.224
 3255SOL    HW111539   0.322  13.542  10.284
 3255SOL    HW211540   0.270  13.518  10.144
 3256SOL     OW11541   3.740   0.264   1.164
 3256SOL    HW111542   3.685   0.324   1.214
 3256SOL    HW211543   3.761   0.311   1.083
 3257SOL     OW11544  13.832   7.901   8.146
 3257SOL    HW111545  13.804   7.907   8.237
 3257SOL    HW211546  13.783   7.970   8.100
 3258SOL     OW11547  12.159  10.371   6.872
 3258SOL    HW111548  12.091  10.399   6.812
 3258SOL    HW211549  12.118  10.373   6.959
 3259SOL     OW11550   8.476   1.526  13.103
 3259SOL    HW111551   8.553   1.545  13.050
 3259SOL    HW211552   8.402   1.548  13.047
 3260SOL     OW11553  13.792   8.747  12.023
 3260SOL    HW111554  13.772   8.839  12.005
 3260SOL    HW211555  13.714   8.713  12.067
 3261SOL     OW11556   7.444   4.723  14.061
 3261SOL    HW111557   7.365   4.690  14.017
 3261SOL    HW211558   7.512   4.660  14.039
 3262SOL     OW11559  12.367   3.925   0.419
 3262SOL    HW111560  12.429   3.990   0.453
 3262SOL    HW211561  12.301   3.918   0.487
 3263SOL     OW11562   1.616  10.516  11.390
 3263SOL    HW111563   1.534  10.555  11.421
 3263SOL    HW211564   1.656  10.479  11.468
 3264SOL     OW11565   8.230   2.861   1.881
 3264SOL    HW111566   8.250   2.843   1.790
 3264SOL    HW211567   8.313   2.852   1.927
 3265SOL     OW11568   6.239   9.041   7.633
 3265SOL    HW111569   6.187   8.964   7.656
 3265SOL    HW211570   6.291   9.059   7.712
 3266SOL     OW11571   3.490   6.766  12.246
 3266SOL    HW111572   3.549   6.749  12.173
 3266SOL    HW211573   3.463   6.857  12.235
 3267SOL     OW11574   1.611   7.807   4.150
 3267SOL    HW111575   1.683   7.805   4.213
 3267SOL    HW211576   1.541   7.756   4.191
 3268SOL     OW11577   7.840  13.065  13.304
 3268SOL    HW111578   7.789  12.989  13.276
 3268SOL    HW211579   7.840  13.123  13.228
 3269SOL     OW11580   0.234   8.257   0.920
 3269SOL    HW111581   0.244   8.260   0.825
 3269SOL    HW211582   0.323   8.269   0.953
 3270SOL     OW11583  13.764   6.315  10.055
 3270SOL    HW111584  13.696   6.360  10.004
 3270SOL    HW211585  13.846   6.345  10.017
 3271SOL     OW11586  10.972  14.763   1.662
 3271SOL    HW111587  10.996  14.676   1.694
 3271SOL    HW211588  10.964  14.817   1.740
 3272SOL     OW11589  14.222   1.657   6.924
 3272SOL    HW111590  14.247   1.565   6.936
 3272SOL    HW211591  14.127   1.654   6.913
 3273SOL     OW11592   7.742   8.614   0.615
 3273SOL    HW111593   7.784   8.529   0.602
 3273SOL    HW211594   7.683   8.623   0.540
 3274SOL     OW11595   1.316   2.619   7.002
 3274SOL    HW111596   1.244   2.562   7.028
 3274SOL    HW211597   1.344   2.585   6.917
 3275SOL     OW11598   2.734   2.773   9.088
 3275SOL    HW111599   2.715   2.785   8.995
 3275SOL    HW211600   2.672   2.707   9.117
 3276SOL     OW11601   0.429   0.471   7.047
 3276SOL    HW111602   0.340   0.437   7.043
 3276SOL    HW211603   0.475   0.425   6.977
 3277SOL     OW11604   5.888   8.580  10.188
 3277SOL    HW111605   5.868   8.588  10.282
 3277SOL    HW211606   5.967   8.526  10.185
 3278SOL     OW11607   7.530  13.213   8.254
 3278SOL    HW111608   7.437  13.221   8.232
 3278SOL    HW211609   7.549  13.294   8.301
 3279SOL     OW11610   6.090  11.581  13.555
 3279SOL    HW111611   6.097  11.493  13.518
 3279SOL    HW211612   6.149  11.580  13.631
 3280SOL     OW11613   0.206   7.803   6.547
 3280SOL    HW111614   0.267   7.808   6.473
 3280SOL    HW211615   0.149   7.729   6.527
 3281SOL     OW11616   5.591  12.557  13.654
 3281SOL    HW111617   5.515  12.548  13.711
 3281SOL    HW211618   5.589  12.478  13.599
 3282SOL     OW11619   5.543   2.027  11.266
 3282SOL    HW111620   5.509   2.060  11.349
 3282SOL    HW211621   5.566   1.935  11.284
 3283SOL     OW11622  13.221   9.824  13.440
 3283SOL    HW111623  13.310   9.857  13.446
 3283SOL    HW211624  13.179   9.879  13.375
 3284SOL     OW11625   4.894   6.567   0.813
 3284SOL    HW111626   4.935   6.497   0.865
 3284SOL    HW211627   4.917   6.546   0.722
 3285SOL     OW11628   0.200   9.742   6.608
 3285SOL    HW111629   0.196   9.655   6.648
 3285SOL    HW211630   0.124   9.744   6.549
 3286SOL     OW11631   8.852   2.618   1.782
 3286SOL    HW111632   8.926   2.639   1.725
 3286SOL    HW211633   8.782   2.590   1.723
 3287SOL     OW11634   5.620  10.204   6.463
 3287SOL    HW111635   5.662  10.206   6.549
 3287SOL    HW211636   5.552  10.271   6.469
 3288SOL     OW11637   2.483   9.999   7.936
 3288SOL    HW111638   2.468  10.011   7.842
 3288SOL    HW211639   2.398  10.015   7.976
 3289SOL     OW11640   1.567  12.180  12.140
 3289SOL    HW111641   1.525  12.149  12.060
 3289SOL    HW211642   1.650  12.131  12.143
 3290SOL     OW11643  13.428   6.479  10.972
 3290SOL    HW111644  13.349   6.504  11.021
 3290SOL    HW211645  13.497   6.475  11.038
 3291SOL     OW11646   2.216   4.411   1.872
 3291SOL    HW111647   2.306   4.442   1.875
 3291SOL    HW211648   2.189   4.407   1.964
 3292SOL     OW11649   4.922   3.608   0.116
 3292SOL    HW111650   4.870   3.661   0.176
 3292SOL    HW211651   4.921   3.520   0.154
 3293SOL     OW11652  11.926   9.587   3.271
 3293SOL    HW111653  11.858   9.650   3.298
 3293SOL    HW211654  11.996   9.641   3.235
 3294SOL     OW11655   5.462   5.491  14.827
 3294SOL    HW111656   5.444   5.463   0.035
 3294SOL    HW211657   5.435   5.582  14.825
 3295SOL     OW11658   5.322  12.298   8.682
 3295SOL    HW111659   5.313  12.233   8.612
 3295SOL    HW211660   5.236  12.301   8.723
 3296SOL     OW11661   4.355   7.770   9.231
 3296SOL    HW111662   4.267   7.733   9.234
 3296SOL    HW211663   4.407   7.711   9.286
 3297SOL     OW11664   2.020  10.271   0.229
 3297SOL    HW111665   2.092  10.319   0.189
 3297SOL    HW211666   2.057  10.186   0.252
 3298SOL     OW11667   6.780   1.250  10.427
 3298SOL    HW111668   6.800   1.305  10.351
 3298SOL    HW211669   6.792   1.307  10.502
 3299SOL     OW11670   2.698   2.607   7.329
 3299SOL    HW111671   2.687   2.692   7.373
 3299SOL    HW211672   2.757   2.558   7.386
 3300SOL     OW11673  13.244   9.418   1.536
 3300SOL    HW111674  13.231   9.474   1.613
 3300SOL    HW211675  13.158   9.380   1.519
 3301SOL     OW11676   9.815  11.253  12.179
 3301SOL    HW111677   9.866  11.320  12.131
 3301SOL    HW211678   9.768  11.303  12.246
 3302SOL     OW11679  12.099   9.110  10.852
 3302SOL    HW111680  12.100   9.032  10.908
 3302SOL    HW211681  12.024   9.099  10.795
 3303SOL     OW11682   5.388  10.233   0.245
 3303SOL    HW111683   5.479  10.240   0.275
 3303SOL    HW211684   5.394  10.240   0.150
 3304SOL     OW11685   5.007  13.441   0.976
 3304SOL    HW111686   4.935  13.492   1.014
 3304SOL    HW211687   5.086  13.484   1.008
 3305SOL     OW11688   4.244   4.836   1.703
 3305SOL    HW111689   4.298   4.877   1.770
 3305SOL    HW211690   4.197   4.767   1.749
 3306SOL     OW11691   2.338   6.365  13.542
 3306SOL    HW111692   2.275   6.417  13.592
 3306SOL    HW211693   2.289   6.289  13.512
 3307SOL     OW11694   7.665  14.340   3.528
 3307SOL    HW111695   7.588  14.286   3.548
 3307SOL    HW211696   7.648  14.374   3.440
 3308SOL     OW11697   9.000  10.706   6.873
 3308SOL    HW111698   8.914  10.713   6.831
 3308SOL    HW211699   9.060  10.683   6.802
 3309SOL     OW11700  13.900  13.521   0.506
 3309SOL    HW111701  13.960  13.451   0.532
 3309SOL    HW211702  13.846  13.483   0.436
 3310SOL     OW11703   2.426   4.604   2.786
 3310SOL    HW111704   2.396   4.532   2.730
 3310SOL    HW211705   2.412   4.572   2.876
 3311SOL     OW11706  10.278   3.805   4.130
 3311SOL    HW111707  10.239   3.724   4.162
 3311SOL    HW211708  10.210   3.871   4.144
 3312SOL     OW11709   7.923   7.113   8.385
 3312SOL    HW111710   7.920   7.145   8.475
 3312SOL    HW211711   7.851   7.050   8.380
 3313SOL     OW11712   7.396   3.228  13.508
 3313SOL    HW111713   7.365   3.224  13.598
 3313SOL    HW211714   7.323   3.266  13.459
 3314SOL     OW11715   1.622   0.886  12.000
 3314SOL    HW111716   1.655   0.973  11.980
 3314SOL    HW211717   1.669   0.828  11.941
 3315SOL     OW11718   0.072   9.126   0.514
 3315SOL    HW111719   0.139   9.066   0.548
 3315SOL    HW211720   0.057   9.097   0.424
 3316SOL     OW11721   7.632   8.584  12.674
 3316SOL    HW111722   7.719   8.624  12.672
 3316SOL    HW211723   7.619   8.551  12.585
 3317SOL     OW11724  13.534   9.128   7.355
 3317SOL    HW111725  13.510   9.178   7.433
 3317SOL    HW211726  13.499   9.180   7.282
 3318SOL     OW11727   2.827  11.836   6.343
 3318SOL    HW111728   2.843  11.756   6.293
 3318SOL    HW211729   2.737  11.861   6.320
 3319SOL     OW11730   8.932   9.524   5.454
 3319SOL    HW111731   8.978   9.521   5.371
 3319SOL    HW211732   8.955   9.608   5.492
 3320SOL     OW11733   8.825  10.255   7.581
 3320SOL    HW111734   8.794  10.204   7.506
 3320SOL    HW211735   8.771  10.334   7.581
 3321SOL     OW11736   7.661  13.540   9.655
 3321SOL    HW111737   7.575  13.504   9.634
 3321SOL    HW211738   7.689  13.491   9.732
 3322SOL     OW11739  11.321   4.287   0.601
 3322SOL    HW111740  11.326   4.195   0.627
 3322SOL    HW211741  11.327   4.286   0.505
 3323SOL     OW11742  10.987   3.645  14.388
 3323SOL    HW111743  10.982   3.654  14.483
 3323SOL    HW211744  10.941   3.563  14.369
 3324SOL     OW11745   9.082   7.899   3.232
 3324SOL    HW111746   9.158   7.954   3.251
 3324SOL    HW211747   9.049   7.932   3.149
 3325SOL     OW11748  13.289  12.072   0.722
 3325SOL    HW111749  13.367  12.107   0.679
 3325SOL    HW211750  13.300  12.094   0.815
 3326SOL     OW11751  12.348  11.784   2.621
 3326SOL    HW111752  12.428  11.796   2.672
 3326SOL    HW211753  12.306  11.707   2.661
 3327SOL     OW11754   9.871   5.143  11.469
 3327SOL    HW111755   9.940   5.150  11.535
 3327SOL    HW211756   9.797   5.191  11.507
 3328SOL     OW11757  10.073   6.952   5.878
 3328SOL    HW111758  10.011   6.978   5.810
 3328SOL    HW211759  10.087   7.031   5.929
 3329SOL     OW11760   9.746   3.347  14.873
 3329SOL    HW111761   9.663   3.321  14.833
 3329SOL    HW211762   9.750   3.300   0.074
 3330SOL     OW11763  12.336   3.886   4.099
 3330SOL    HW111764  12.423   3.916   4.123
 3330SOL    HW211765  12.352   3.824   4.027
 3331SOL     OW11766   4.399   3.648   1.469
 3331SOL    HW111767   4.308   3.637   1.443
 3331SOL    HW211768   4.408   3.595   1.548
 3332SOL     OW11769   5.837  13.484   5.453
 3332SOL    HW111770   5.777  13.558   5.466
 3332SOL    HW211771   5.891  13.511   5.379
 3333SOL     OW11772   9.829   1.869   0.826
 3333SOL    HW111773   9.890   1.917   0.771
 3333SOL    HW211774   9.743   1.898   0.798
 3334SOL     OW11775  11.003  12.643  11.010
 3334SOL    HW111776  10.930  12.591  11.043
 3334SOL    HW211777  10.967  12.694  10.938
 3335SOL     OW11778   3.614   6.976   4.158
 3335SOL    HW111779   3.547   6.908   4.160
 3335SOL    HW211780   3.602   7.018   4.072
 3336SOL     OW11781  11.462   5.534  14.379
 3336SOL    HW111782  11.415   5.483  14.446
 3336SOL    HW211783  11.519   5.592  14.429
 3337SOL     OW11784  12.353   7.813   0.200
 3337SOL    HW111785  12.269   7.817   0.246
 3337SOL    HW211786  12.418   7.810   0.270
 3338SOL     OW11787   4.082  11.143  13.009
 3338SOL    HW111788   4.050  11.061  13.044
 3338SOL    HW211789   4.073  11.135  12.914
 3339SOL     OW11790   3.245  14.686  13.730
 3339SOL    HW111791   3.221  14.664  13.640
 3339SOL    HW211792   3.162  14.687  13.777
 3340SOL     OW11793   8.428   4.946  13.569
 3340SOL    HW111794   8.342   4.973  13.602
 3340SOL    HW211795   8.478   4.924  13.647
 3341SOL     OW11796   5.096  11.466  11.259
 3341SOL    HW111797   5.169  11.500  11.207
 3341SOL    HW211798   5.138  11.411  11.325
 3342SOL     OW11799  13.133  13.378   0.535
 3342SOL    HW111800  13.159  13.295   0.573
 3342SOL    HW211801  13.215  13.424   0.517
 3343SOL     OW11802   4.375  14.052   7.180
 3343SOL    HW111803   4.462  14.012   7.175
 3343SOL    HW211804   4.391  14.146   7.172
 3344SOL     OW11805   1.195   4.283  10.294
 3344SOL    HW111806   1.172   4.213  10.355
 3344SOL    HW211807   1.288   4.272  10.277
 3345SOL     OW11808   3.645  11.717   8.803
 3345SOL    HW111809   3.633  11.710   8.898
 3345SOL    HW211810   3.570  11.670   8.766
 3346SOL     OW11811   0.434  10.067   0.564
 3346SOL    HW111812   0.504  10.125   0.595
 3346SOL    HW211813   0.394  10.115   0.492
 3347SOL     OW11814   0.463   8.042  12.540
 3347SOL    HW111815   0.372   8.064  12.520
 3347SOL    HW211816   0.457   7.966  12.598
 3348SOL     OW11817   3.041   1.745  13.206
 3348SOL    HW111818   3.038   1.657  13.168
 3348SOL    HW211819   3.102   1.793  13.149
 3349SOL     OW11820   2.583  13.030   3.728
 3349SOL    HW111821   2.649  12.968   3.695
 3349SOL    HW211822   2.501  13.000   3.689
 3350SOL     OW11823   2.113   8.841   7.326
 3350SOL    HW111824   2.154   8.875   7.405
 3350SOL    HW211825   2.038   8.899   7.311
 3351SOL     OW11826   4.736   0.410   8.981
 3351SOL    HW111827   4.781   0.374   9.057
 3351SOL    HW211828   4.797   0.395   8.908
 3352SOL     OW11829   1.475   3.871   1.472
 3352SOL    HW111830   1.523   3.816   1.409
 3352SOL    HW211831   1.510   3.959   1.459
 3353SOL     OW11832  10.624   2.000   8.715
 3353SOL    HW111833  10.712   2.030   8.693
 3353SOL    HW211834  10.626   1.906   8.700
 3354SOL     OW11835   1.423   0.297  12.616
 3354SOL    HW111836   1.513   0.295  12.649
 3354SOL    HW211837   1.369   0.315  12.692
 3355SOL     OW11838   7.929   0.472  11.115
 3355SOL    HW111839   7.873   0.404  11.152
 3355SOL    HW211840   7.945   0.532  11.188
 3356SOL     OW11841   6.778   0.105  11.041
 3356SOL    HW111842   6.716   0.104  10.968
 3356SOL    HW211843   6.788   0.013  11.066
 3357SOL     OW11844   6.632   8.472  13.570
 3357SOL    HW111845   6.612   8.379  13.577
 3357SOL    HW211846   6.591   8.498  13.487
 3358SOL     OW11847   8.035   2.531  10.646
 3358SOL    HW111848   7.954   2.482  10.661
 3358SOL    HW211849   8.103   2.478  10.688
 3359SOL     OW11850  11.829  11.057   4.323
 3359SOL    HW111851  11.913  11.084   4.360
 3359SOL    HW211852  11.814  11.120   4.252
 3360SOL     OW11853   0.724   0.226   4.142
 3360SOL    HW111854   0.769   0.149   4.178
 3360SOL    HW211855   0.713   0.206   4.049
 3361SOL     OW11856   9.312  10.299   1.463
 3361SOL    HW111857   9.268  10.258   1.389
 3361SOL    HW211858   9.337  10.226   1.519
 3362SOL     OW11859  13.850  13.688   9.950
 3362SOL    HW111860  13.804  13.661  10.029
 3362SOL    HW211861  13.888  13.773   9.972
 3363SOL     OW11862  13.613   4.085  14.654
 3363SOL    HW111863  13.693   4.084  14.600
 3363SOL    HW211864  13.569   4.167  14.631
 3364SOL     OW11865   9.641   1.434  12.483
 3364SOL    HW111866   9.633   1.521  12.443
 3364SOL    HW211867   9.690   1.449  12.564
 3365SOL     OW11868   1.875   6.253   2.438
 3365SOL    HW111869   1.930   6.180   2.465
 3365SOL    HW211870   1.914   6.330   2.480
 3366SOL     OW11871  12.762   2.072   3.448
 3366SOL    HW111872  12.716   2.088   3.366
 3366SOL    HW211873  12.755   2.155   3.495
 3367SOL     OW11874   6.018  14.232  12.171
 3367SOL    HW111875   5.944  14.207  12.117
 3367SOL    HW211876   6.010  14.177  12.249
 3368SOL     OW11877   9.530   3.193  13.732
 3368SOL    HW111878   9.603   3.163  13.787
 3368SOL    HW211879   9.556   3.280  13.702
 3369SOL     OW11880  13.359   4.447   9.025
 3369SOL    HW111881  13.378   4.355   9.006
 3369SOL    HW211882  13.265   4.455   9.008
 3370SOL     OW11883  14.482  14.812   5.005
 3370SOL    HW111884  14.470   0.008   4.950
 3370SOL    HW211885  14.395  14.775   5.015
 3371SOL     OW11886   6.663   6.591  10.169
 3371SOL    HW111887   6.734   6.654  10.161
 3371SOL    HW211888   6.584   6.644  10.172
 3372SOL     OW11889  10.790   1.936  10.305
 3372SOL    HW111890  10.867   1.986  10.278
 3372SOL    HW211891  10.800   1.852  10.262
 3373SOL     OW11892   8.403   0.651   3.065
 3373SOL    HW111893   8.363   0.570   3.095
 3373SOL    HW211894   8.461   0.677   3.138
 3374SOL     OW11895   1.957   3.413  13.937
 3374SOL    HW111896   1.915   3.328  13.954
 3374SOL    HW211897   1.952   3.424  13.842
 3375SOL     OW11898   3.917   2.024   5.857
 3375SOL    HW111899   3.883   2.114   5.861
 3375SOL    HW211900   3.916   1.994   5.947
 3376SOL     OW11901  13.930  10.468   4.493
 3376SOL    HW111902  13.920  10.385   4.447
 3376SOL    HW211903  13.913  10.448   4.585
 3377SOL     OW11904   8.399  11.873  13.315
 3377SOL    HW111905   8.472  11.836  13.366
 3377SOL    HW211906   8.363  11.941  13.372
 3378SOL     OW11907   1.061   1.779   6.696
 3378SOL    HW111908   1.155   1.765   6.704
 3378SOL    HW211909   1.021   1.705   6.741
 3379SOL     OW11910   8.025  13.560   6.099
 3379SOL    HW111911   8.112  13.599   6.091
 3379SOL    HW211912   7.998  13.578   6.189
 3380SOL     OW11913   4.462  11.107   7.652
 3380SOL    HW111914   4.437  11.133   7.564
 3380SOL    HW211915   4.393  11.047   7.680
 3381SOL     OW11916   5.191   1.002  14.370
 3381SOL    HW111917   5.106   1.020  14.328
 3381SOL    HW211918   5.204   0.908  14.357
 3382SOL     OW11919  10.896   4.394   2.196
 3382SOL    HW111920  10.817   4.407   2.143
 3382SOL    HW211921  10.960   4.455   2.159
 3383SOL     OW11922  11.621   0.807   7.286
 3383SOL    HW111923  11.532   0.817   7.320
 3383SOL    HW211924  11.643   0.894   7.251
 3384SOL     OW11925   5.977   3.102   4.046
 3384SOL    HW111926   6.056   3.109   4.100
 3384SOL    HW211927   5.925   3.034   4.088
 3385SOL     OW11928  14.815  14.222   1.898
 3385SOL    HW111929  14.745  14.160   1.920
 3385SOL    HW211930  14.792  14.252   1.810
 3386SOL     OW11931   7.442  14.280   9.390
 3386SOL    HW111932   7.513  14.237   9.342
 3386SOL    HW211933   7.412  14.348   9.331
 3387SOL     OW11934   6.169   5.773  12.371
 3387SOL    HW111935   6.245   5.797  12.318
 3387SOL    HW211936   6.157   5.679  12.356
 3388SOL     OW11937   2.031   9.427  10.495
 3388SOL    HW111938   1.985   9.510  10.506
 3388SOL    HW211939   2.089   9.442  10.420
 3389SOL     OW11940  10.901   0.205   8.451
 3389SOL    HW111941  10.896   0.293   8.415
 3389SOL    HW211942  10.887   0.147   8.376
 3390SOL     OW11943   1.557   7.588  10.442
 3390SOL    HW111944   1.603   7.636  10.511
 3390SOL    HW211945   1.606   7.608  10.362
 3391SOL     OW11946   6.841   4.406   9.010
 3391SOL    HW111947   6.805   4.428   8.924
 3391SOL    HW211948   6.765   4.377   9.061
 3392SOL     OW11949   1.234   3.962   9.758
 3392SOL    HW111950   1.236   3.934   9.849
 3392SOL    HW211951   1.326   3.980   9.737
 3393SOL     OW11952   9.272   5.191   0.709
 3393SOL    HW111953   9.207   5.199   0.778
 3393SOL    HW211954   9.266   5.100   0.679
 3394SOL     OW11955  11.472  14.533   0.230
 3394SOL    HW111956  11.406  14.482   0.277
 3394SOL    HW211957  11.500  14.600   0.293
 3395SOL     OW11958   8.960   9.070   3.854
 3395SOL    HW111959   9.002   9.060   3.769
 3395SOL    HW211960   8.937   8.980   3.880
 3396SOL     OW11961  12.873   8.464   1.756
 3396SOL    HW111962  12.853   8.507   1.839
 3396SOL    HW211963  12.863   8.533   1.690
 3397SOL     OW11964   7.665   7.233   3.397
 3397SOL    HW111965   7.582   7.203   3.361
 3397SOL    HW211966   7.691   7.306   3.341
 3398SOL     OW11967  12.122  14.266   4.631
 3398SOL    HW111968  12.121  14.328   4.704
 3398SOL    HW211969  12.040  14.217   4.641
 3399SOL     OW11970   4.668  11.799   9.023
 3399SOL    HW111971   4.577  11.820   9.000
 3399SOL    HW211972   4.720  11.854   8.964
 3400SOL     OW11973  14.429   0.689   9.743
 3400SOL    HW111974  14.417   0.596   9.760
 3400SOL    HW211975  14.512   0.711   9.785
 3401SOL     OW11976  10.477   5.536   2.235
 3401SOL    HW111977  10.502   5.443   2.234
 3401SOL    HW211978  10.550   5.580   2.278
 3402SOL     OW11979   3.092   8.551   8.314
 3402SOL    HW111980   3.138   8.487   8.369
 3402SOL    HW211981   3.057   8.615   8.375
 3403SOL     OW11982   7.673  13.024   8.420
 3403SOL    HW111983   7.648  13.057   8.333
 3403SOL    HW211984   7.590  13.018   8.467
 3404SOL     OW11985  11.485  11.502   4.017
 3404SOL    HW111986  11.508  11.593   4.036
 3404SOL    HW211987  11.524  11.484   3.932
 3405SOL     OW11988   0.904  14.043  14.435
 3405SOL    HW111989   0.839  13.982  14.401
 3405SOL    HW211990   0.956  14.067  14.359
 3406SOL     OW11991  13.586   7.655   8.283
 3406SOL    HW111992  13.528   7.708   8.227
 3406SOL    HW211993  13.529   7.584   8.314
 3407SOL     OW11994   0.737   7.013  11.915
 3407SOL    HW111995   0.655   7.059  11.936
 3407SOL    HW211996   0.746   7.024  11.820
 3408SOL     OW11997   9.431   9.265   4.456
 3408SOL    HW111998   9.393   9.333   4.400
 3408SOL    HW211999   9.525   9.275   4.448
 3409SOL     OW12000   2.551   6.313  10.500
 3409SOL    HW112001   2.515   6.337  10.415
 3409SOL    HW212002   2.475   6.283  10.551
 3410SOL     OW12003  11.417  10.626  11.790
 3410SOL    HW112004  11.512  10.627  11.798
 3410SOL    HW212005  11.395  10.533  11.775
 3411SOL     OW12006   5.406   2.413  13.379
 3411SOL    HW112007   5.335   2.447  13.324
 3411SOL    HW212008   5.451   2.350  13.323
 3412SOL     OW12009   2.660   5.964   8.190
 3412SOL    HW112010   2.677   6.053   8.159
 3412SOL    HW212011   2.605   5.926   8.121
 3413SOL     OW12012   5.886  10.406   0.379
 3413SOL    HW112013   5.884  10.502   0.386
 3413SOL    HW212014   5.930  10.378   0.459
 3414SOL     OW12015  10.567  12.146   2.169
 3414SOL    HW112016  10.655  12.172   2.141
 3414SOL    HW212017  10.520  12.128   2.087
 3415SOL     OW12018   6.153   4.763  11.328
 3415SOL    HW112019   6.136   4.771  11.422
 3415SOL    HW212020   6.230   4.707  11.322
 3416SOL     OW12021  11.143   5.174  14.008
 3416SOL    HW112022  11.227   5.217  13.993
 3416SOL    HW212023  11.094   5.188  13.928
 3417SOL     OW12024  10.299  11.431   3.415
 3417SOL    HW112025  10.282  11.337   3.421
 3417SOL    HW212026  10.310  11.448   3.322
 3418SOL     OW12027   6.995  10.449   5.722
 3418SOL    HW112028   6.919  10.415   5.674
 3418SOL    HW212029   7.060  10.469   5.655
 3419SOL     OW12030   2.456   0.629  13.435
 3419SOL    HW112031   2.377   0.583  13.406
 3419SOL    HW212032   2.519   0.617  13.364
 3420SOL     OW12033   2.826   9.828   6.094
 3420SOL    HW112034   2.893   9.761   6.083
 3420SOL    HW212035   2.852   9.898   6.034
 3421SOL     OW12036  12.888   0.778  12.595
 3421SOL    HW112037  12.908   0.845  12.660
 3421SOL    HW212038  12.839   0.711  12.644
 3422SOL     OW12039   2.063  13.778  12.101
 3422SOL    HW112040   2.155  13.767  12.128
 3422SOL    HW212041   2.029  13.844  12.160
 3423SOL     OW12042  10.616  11.954  13.736
 3423SOL    HW112043  10.574  12.038  13.749
 3423SOL    HW212044  10.594  11.903  13.815
 3424SOL     OW12045   4.517   4.054   7.693
 3424SOL    HW112046   4.584   4.120   7.708
 3424SOL    HW212047   4.566   3.971   7.689
 3425SOL     OW12048   8.247   6.600   7.749
 3425SOL    HW112049   8.263   6.591   7.655
 3425SOL    HW212050   8.253   6.694   7.765
 3426SOL     OW12051   8.284   6.718   1.230
 3426SOL    HW112052   8.276   6.752   1.319
 3426SOL    HW212053   8.371   6.746   1.201
 3427SOL     OW12054   3.106   5.780   6.096
 3427SOL    HW112055   3.024   5.796   6.142
 3427SOL    HW212056   3.114   5.854   6.036
 3428SOL     OW12057   2.879  10.910   1.165
 3428SOL    HW112058   2.800  10.871   1.203
 3428SOL    HW212059   2.871  11.003   1.186
 3429SOL     OW12060  12.227  13.942   4.912
 3429SOL    HW112061  12.183  14.026   4.920
 3429SOL    HW212062  12.199  13.908   4.826
 3430SOL     OW12063  11.117  11.387   1.364
 3430SOL    HW112064  11.122  11.293   1.385
 3430SOL    HW212065  11.177  11.399   1.291
 3431SOL     OW12066  11.989  12.387   6.992
 3431SOL    HW112067  11.980  12.296   7.020
 3431SOL    HW212068  11.923  12.398   6.924
 3432SOL     OW12069   9.036  12.703  13.418
 3432SOL    HW112070   9.085  12.634  13.373
 3432SOL    HW212071   9.001  12.758  13.347
 3433SOL     OW12072   0.455   4.850   9.516
 3433SOL    HW112073   0.519   4.921   9.511
 3433SOL    HW212074   0.400   4.862   9.438
 3434SOL     OW12075   2.686   8.890   7.947
 3434SOL    HW112076   2.706   8.978   7.977
 3434SOL    HW212077   2.700   8.834   8.024
 3435SOL     OW12078   1.097  12.927  12.427
 3435SOL    HW112079   1.075  12.983  12.502
 3435SOL    HW212080   1.013  12.905  12.388
 3436SOL     OW12081  12.136   2.153   4.293
 3436SOL    HW112082  12.220   2.188   4.263
 3436SOL    HW212083  12.144   2.058   4.281
 3437SOL     OW12084  12.138   1.471   7.189
 3437SOL    HW112085  12.046   1.450   7.171
 3437SOL    HW212086  12.151   1.558   7.151
 3438SOL     OW12087   0.385  11.012  10.294
 3438SOL    HW112088   0.309  10.987  10.347
 3438SOL    HW212089   0.349  11.068  10.226
 3439SOL     OW12090   5.663   5.306  11.325
 3439SOL    HW112091   5.674   5.211  11.334
 3439SOL    HW212092   5.732   5.332  11.263
 3440SOL     OW12093  13.236  11.273  10.900
 3440SOL    HW112094  13.238  11.369  10.898
 3440SOL    HW212095  13.267  11.250  10.987
 3441SOL     OW12096   4.599  10.150   7.944
 3441SOL    HW112097   4.565  10.106   8.022
 3441SOL    HW212098   4.556  10.235   7.944
 3442SOL     OW12099  12.522  11.871   8.507
 3442SOL    HW112100  12.584  11.802   8.482
 3442SOL    HW212101  12.514  11.925   8.428
 3443SOL     OW12102   5.520  12.444   6.886
 3443SOL    HW112103   5.580  12.400   6.825
 3443SOL    HW212104   5.441  12.458   6.834
 3444SOL     OW12105  12.353   4.933   7.859
 3444SOL    HW112106  12.339   4.978   7.775
 3444SOL    HW212107  12.287   4.971   7.917
 3445SOL     OW12108  11.169  12.502   3.204
 3445SOL    HW112109  11.150  12.596   3.206
 3445SOL    HW212110  11.139  12.474   3.117
 3446SOL     OW12111   3.497   0.187  12.437
 3446SOL    HW112112   3.423   0.245  12.456
 3446SOL    HW212113   3.551   0.236  12.375
 3447SOL     OW12114   7.496  13.135  14.282
 3447SOL    HW112115   7.510  13.221  14.241
 3447SOL    HW212116   7.580  13.115  14.324
 3448SOL     OW12117  14.667   3.813   4.327
 3448SOL    HW112118  14.591   3.822   4.385
 3448SOL    HW212119  14.682   3.901   4.293
 3449SOL     OW12120  10.946  12.375   2.461
 3449SOL    HW112121  11.000  12.364   2.540
 3449SOL    HW212122  10.884  12.444   2.484
 3450SOL     OW12123  11.591   1.011  13.019
 3450SOL    HW112124  11.510   0.984  13.063
 3450SOL    HW212125  11.597   1.105  13.036
 3451SOL     OW12126   8.111   9.430   8.896
 3451SOL    HW112127   8.168   9.405   8.823
 3451SOL    HW212128   8.077   9.515   8.872
 3452SOL     OW12129   6.616  14.862   3.590
 3452SOL    HW112130   6.706  14.879   3.562
 3452SOL    HW212131   6.625  14.812   3.671
 3453SOL     OW12132   8.064  12.136   6.819
 3453SOL    HW112133   7.971  12.117   6.806
 3453SOL    HW212134   8.093  12.173   6.736
 3454SOL     OW12135   2.901   0.586   9.065
 3454SOL    HW112136   2.939   0.663   9.107
 3454SOL    HW212137   2.973   0.549   9.013
 3455SOL     OW12138  13.684   2.541  13.732
 3455SOL    HW112139  13.708   2.463  13.782
 3455SOL    HW212140  13.767   2.579  13.704
 3456SOL     OW12141  14.781   7.395   5.489
 3456SOL    HW112142  14.771   7.344   5.569
 3456SOL    HW212143  14.759   7.485   5.514
 3457SOL     OW12144   8.886   0.853   3.593
 3457SOL    HW112145   8.806   0.868   3.643
 3457SOL    HW212146   8.879   0.910   3.517
 3458SOL     OW12147   2.669   6.184   9.283
 3458SOL    HW112148   2.668   6.145   9.370
 3458SOL    HW212149   2.747   6.147   9.241
 3459SOL     OW12150  12.286   9.075   3.606
 3459SOL    HW112151  12.244   8.992   3.583
 3459SOL    HW212152  12.285   9.077   3.702
 3460SOL     OW12153  11.517  10.980   4.232
 3460SOL    HW112154  11.600  11.028   4.240
 3460SOL    HW212155  11.525  10.933   4.149
 3461SOL     OW12156   2.211   4.421  12.755
 3461SOL    HW112157   2.182   4.330  12.759
 3461SOL    HW212158   2.169   4.463  12.830
 3462SOL     OW12159   2.388  13.487  11.099
 3462SOL    HW112160   2.362  13.511  11.010
 3462SOL    HW212161   2.339  13.407  11.118
 3463SOL     OW12162  14.215   8.154   7.081
 3463SOL    HW112163  14.161   8.171   7.004
 3463SOL    HW212164  14.226   8.059   7.083
 3464SOL     OW12165  13.707   2.449  11.559
 3464SOL    HW112166  13.707   2.358  11.532
 3464SOL    HW212167  13.617   2.468  11.584
 3465SOL     OW12168   5.913   1.141   1.027
 3465SOL    HW112169   5.937   1.152   0.935
 3465SOL    HW212170   5.849   1.210   1.044
 3466SOL     OW12171   6.626  10.127  12.745
 3466SOL    HW112172   6.673  10.048  12.716
 3466SOL    HW212173   6.691  10.197  12.739
 3467SOL     OW12174   0.053  10.823  12.645
 3467SOL    HW112175   0.074  10.828  12.552
 3467SOL    HW212176   0.109  10.753  12.679
 3468SOL     OW12177   2.632   5.298   5.676
 3468SOL    HW112178   2.642   5.392   5.691
 3468SOL    HW212179   2.538   5.281   5.689
 3469SOL     OW12180   9.442  12.054  11.318
 3469SOL    HW112181   9.420  12.082  11.229
 3469SOL    HW212182   9.404  11.966  11.324
 3470SOL     OW12183   4.275  10.228   0.124
 3470SOL    HW112184   4.194  10.230   0.074
 3470SOL    HW212185   4.248  10.217   0.215
 3471SOL     OW12186   1.413   6.049   2.691
 3471SOL    HW112187   1.378   6.018   2.775
 3471SOL    HW212188   1.404   6.145   2.696
 3472SOL     OW12189   8.976   9.440  12.476
 3472SOL    HW112190   9.069   9.420  12.488
 3472SOL    HW212191   8.969   9.465  12.384
 3473SOL     OW12192   5.085   6.104   5.037
 3473SOL    HW112193   5.178   6.090   5.020
 3473SOL    HW212194   5.081   6.132   5.128
 3474SOL     OW12195   1.482   2.213   7.424
 3474SOL    HW112196   1.482   2.255   7.338
 3474SOL    HW212197   1.533   2.133   7.411
 3475SOL     OW12198   7.545  12.974   5.863
 3475SOL    HW112199   7.468  12.953   5.809
 3475SOL    HW212200   7.574  13.059   5.830
 3476SOL     OW12201   7.295   3.283   9.828
 3476SOL    HW112202   7.333   3.211   9.778
 3476SOL    HW212203   7.336   3.275   9.915
 3477SOL     OW12204  12.905   4.627   8.373
 3477SOL    HW112205  12.900   4.533   8.389
 3477SOL    HW212206  12.959   4.661   8.444
 3478SOL     OW12207   6.948   2.901   6.530
 3478SOL    HW112208   6.889   2.976   6.527
 3478SOL    HW212209   6.910   2.844   6.598
 3479SOL     OW12210  10.766   9.717   1.426
 3479SOL    HW112211  10.845   9.692   1.474
 3479SOL    HW212212  10.698   9.659   1.460
 3480SOL     OW12213   9.183  14.364   3.988
 3480SOL    HW112214   9.267  14.353   3.943
 3480SOL    HW212215   9.193  14.446   4.037
 3481SOL     OW12216   5.498   8.744   6.802
 3481SOL    HW112217   5.516   8.837   6.811
 3481SOL    HW212218   5.481   8.731   6.709
 3482SOL     OW12219   7.662  10.052   7.262
 3482SOL    HW112220   7.720   9.986   7.223
 3482SOL    HW212221   7.627  10.010   7.340
 3483SOL     OW12222  10.505   9.260  11.923
 3483SOL    HW112223  10.576   9.196  11.915
 3483SOL    HW212224  10.471   9.248  12.011
 3484SOL     OW12225   0.475  14.759   3.703
 3484SOL    HW112226   0.537  14.732   3.635
 3484SOL    HW212227   0.400  14.793   3.655
 3485SOL     OW12228  12.959   5.822  12.867
 3485SOL    HW112229  12.938   5.843  12.776
 3485SOL    HW212230  13.021   5.749  12.861
 3486SOL     OW12231  12.131  10.857  11.761
 3486SOL    HW112232  12.107  10.769  11.791
 3486SOL    HW212233  12.214  10.844  11.714
 3487SOL     OW12234   7.882   4.377   1.743
 3487SOL    HW112235   7.907   4.442   1.808
 3487SOL    HW212236   7.958   4.368   1.686
 3488SOL     OW12237   3.480  13.217   4.477
 3488SOL    HW112238   3.551  13.277   4.500
 3488SOL    HW212239   3.523  13.132   4.465
 3489SOL     OW12240   0.822   4.516  13.310
 3489SOL    HW112241   0.849   4.510  13.401
 3489SOL    HW212242   0.729   4.540  13.314
 3490SOL     OW12243   4.700   3.139   2.367
 3490SOL    HW112244   4.619   3.164   2.324
 3490SOL    HW212245   4.675   3.121   2.458
 3491SOL     OW12246  13.135  14.433  10.729
 3491SOL    HW112247  13.048  14.395  10.744
 3491SOL    HW212248  13.162  14.464  10.816
 3492SOL     OW12249   7.891   4.718   3.004
 3492SOL    HW112250   7.812   4.687   2.959
 3492SOL    HW212251   7.934   4.638   3.035
 3493SOL     OW12252   0.432  12.215   0.104
 3493SOL    HW112253   0.407  12.130   0.140
 3493SOL    HW212254   0.516  12.198   0.060
 3494SOL     OW12255   4.785  12.427   1.240
 3494SOL    HW112256   4.823  12.458   1.323
 3494SOL    HW212257   4.728  12.355   1.265
 3495SOL     OW12258   9.976  11.873   5.893
 3495SOL    HW112259   9.884  11.899   5.900
 3495SOL    HW212260  10.014  11.937   5.833
 3496SOL     OW12261   3.186  13.587   9.953
 3496SOL    HW112262   3.149  13.499   9.961
 3496SOL    HW212263   3.140  13.626   9.878
 3497SOL     OW12264   1.597   0.233   7.870
 3497SOL    HW112265   1.656   0.273   7.807
 3497SOL    HW212266   1.582   0.301   7.936
 3498SOL     OW12267   3.165   6.939  13.493
 3498SOL    HW112268   3.230   6.869  13.488
 3498SOL    HW212269   3.173   6.985  13.409
 3499SOL     OW12270   0.962   7.151  12.273
 3499SOL    HW112271   0.874   7.170  12.240
 3499SOL    HW212272   1.020   7.206  12.221
 3500SOL     OW12273   3.138   5.968   8.712
 3500SOL    HW112274   3.223   5.975   8.669
 3500SOL    HW212275   3.082   5.927   8.646
 3501SOL     OW12276   3.777   7.811   4.819
 3501SOL    HW112277   3.832   7.819   4.741
 3501SOL    HW212278   3.839   7.811   4.892
 3502SOL     OW12279  14.093   4.892   5.081
 3502SOL    HW112280  14.088   4.800   5.054
 3502SOL    HW212281  14.166   4.928   5.031
 3503SOL     OW12282   0.568  13.357   4.269
 3503SOL    HW112283   0.525  13.434   4.306
 3503SOL    HW212284   0.543  13.286   4.327
 3504SOL     OW12285  12.771  11.583  13.755
 3504SOL    HW112286  12.698  11.553  13.701
 3504SOL    HW212287  12.754  11.677  13.767
 3505SOL     OW12288   3.757  12.655   3.006
 3505SOL    HW112289   3.686  12.700   2.959
 3505SOL    HW212290   3.786  12.587   2.946
 3506SOL     OW12291  10.333   3.884   4.700
 3506SOL    HW112292  10.307   3.947   4.767
 3506SOL    HW212293  10.298   3.920   4.619
 3507SOL     OW12294   5.838  13.871  14.193
 3507SOL    HW112295   5.926  13.870  14.157
 3507SOL    HW212296   5.839  13.804  14.262
 3508SOL     OW12297   9.618   8.157   9.762
 3508SOL    HW112298   9.689   8.217   9.780
 3508SOL    HW212299   9.626   8.137   9.668
 3509SOL     OW12300   5.335   9.457   0.395
 3509SOL    HW112301   5.312   9.534   0.343
 3509SOL    HW212302   5.357   9.492   0.482
 3510SOL     OW12303   5.636   4.315   0.496
 3510SOL    HW112304   5.646   4.338   0.404
 3510SOL    HW212305   5.629   4.399   0.541
 3511SOL     OW12306   0.726  13.152  14.673
 3511SOL    HW112307   0.655  13.101  14.633
 3511SOL    HW212308   0.733  13.118  14.762
 3512SOL     OW12309   9.246   3.623  13.514
 3512SOL    HW112310   9.195   3.651  13.591
 3512SOL    HW212311   9.184   3.575  13.460
 3513SOL     OW12312  13.022   8.978   1.523
 3513SOL    HW112313  12.936   8.962   1.484
 3513SOL    HW212314  13.033   9.073   1.518
 3514SOL     OW12315  11.838   7.574   2.280
 3514SOL    HW112316  11.836   7.526   2.363
 3514SOL    HW212317  11.815   7.508   2.214
 3515SOL     OW12318   6.234   5.479   1.448
 3515SOL    HW112319   6.219   5.394   1.409
 3515SOL    HW212320   6.257   5.536   1.374
 3516SOL     OW12321  10.268  12.071   0.631
 3516SOL    HW112322  10.213  12.067   0.710
 3516SOL    HW212323  10.206  12.084   0.559
 3517SOL     OW12324   4.408   4.450   1.546
 3517SOL    HW112325   4.489   4.493   1.516
 3517SOL    HW212326   4.413   4.453   1.641
 3518SOL     OW12327  12.040   9.748   5.514
 3518SOL    HW112328  12.022   9.803   5.438
 3518SOL    HW212329  11.959   9.700   5.529
 3519SOL     OW12330   3.006   5.230   5.310
 3519SOL    HW112331   2.956   5.306   5.281
 3519SOL    HW212332   3.010   5.173   5.234
 3520SOL     OW12333   9.474  10.771   3.727
 3520SOL    HW112334   9.389  10.797   3.691
 3520SOL    HW212335   9.531  10.762   3.651
 3521SOL     OW12336  12.060   5.372   4.750
 3521SOL    HW112337  12.043   5.290   4.796
 3521SOL    HW212338  12.056   5.348   4.657
 3522SOL     OW12339   3.480  12.936   4.935
 3522SOL    HW112340   3.487  12.971   5.024
 3522SOL    HW212341   3.431  13.003   4.887
 3523SOL     OW12342  10.774  11.188   7.835
 3523SOL    HW112343  10.832  11.262   7.817
 3523SOL    HW212344  10.797  11.122   7.769
 3524SOL     OW12345   8.344   5.806  13.223
 3524SOL    HW112346   8.373   5.731  13.275
 3524SOL    HW212347   8.319   5.768  13.139
 3525SOL     OW12348  10.459   3.809  10.710
 3525SOL    HW112349  10.402   3.732  10.706
 3525SOL    HW212350  10.515   3.793  10.786
 3526SOL     OW12351  13.143   8.388  11.144
 3526SOL    HW112352  13.050   8.377  11.127
 3526SOL    HW212353  13.180   8.417  11.061
 3527SOL     OW12354  12.215  10.726   7.159
 3527SOL    HW112355  12.141  10.727   7.098
 3527SOL    HW212356  12.262  10.807   7.139
 3528SOL     OW12357  12.325  10.105   3.832
 3528SOL    HW112358  12.341  10.152   3.750
 3528SOL    HW212359  12.387  10.144   3.893
 3529SOL     OW12360  11.836   8.998   7.557
 3529SOL    HW112361  11.758   8.944   7.567
 3529SOL    HW212362  11.804   9.081   7.521
 3530SOL     OW12363  14.523  12.006  12.430
 3530SOL    HW112364  14.453  12.067  12.453
 3530SOL    HW212365  14.523  12.003  12.335
 3531SOL     OW12366  14.418   1.920   1.850
 3531SOL    HW112367  14.402   1.841   1.799
 3531SOL    HW212368  14.382   1.991   1.796
 3532SOL     OW12369   4.848  10.988   7.070
 3532SOL    HW112370   4.786  11.061   7.079
 3532SOL    HW212371   4.826  10.948   6.986
 3533SOL     OW12372  12.035   2.216   5.760
 3533SOL    HW112373  12.032   2.148   5.693
 3533SOL    HW212374  12.088   2.178   5.830
 3534SOL     OW12375   8.514   8.514   1.740
 3534SOL    HW112376   8.520   8.586   1.677
 3534SOL    HW212377   8.506   8.435   1.687
 3535SOL     OW12378  10.936   5.529  12.480
 3535SOL    HW112379  10.970   5.583  12.551
 3535SOL    HW212380  11.008   5.523  12.418
 3536SOL     OW12381   6.262  10.318   5.388
 3536SOL    HW112382   6.260  10.370   5.468
 3536SOL    HW212383   6.227  10.233   5.414
 3537SOL     OW12384  10.660   9.519   7.343
 3537SOL    HW112385  10.637   9.513   7.250
 3537SOL    HW212386  10.669   9.613   7.359
 3538SOL     OW12387  10.655  11.132   5.591
 3538SOL    HW112388  10.635  11.177   5.508
 3538SOL    HW212389  10.745  11.159   5.611
 3539SOL     OW12390   1.076  11.222   8.360
 3539SOL    HW112391   1.004  11.161   8.348
 3539SOL    HW212392   1.103  11.211   8.451
 3540SOL     OW12393  13.269  14.289   9.080
 3540SOL    HW112394  13.306  14.356   9.021
 3540SOL    HW212395  13.342  14.265   9.138
 3541SOL     OW12396   7.944  10.638   9.311
 3541SOL    HW112397   7.963  10.545   9.323
 3541SOL    HW212398   8.007  10.666   9.244
 3542SOL     OW12399   1.796   4.730   3.786
 3542SOL    HW112400   1.865   4.690   3.732
 3542SOL    HW212401   1.719   4.729   3.729
 3543SOL     OW12402   0.448   5.447   5.401
 3543SOL    HW112403   0.376   5.393   5.433
 3543SOL    HW212404   0.491   5.479   5.480
 3544SOL     OW12405   6.924  11.064   9.804
 3544SOL    HW112406   6.846  11.103   9.766
 3544SOL    HW212407   6.910  11.071   9.899
 3545SOL     OW12408   7.759   6.695   1.413
 3545SOL    HW112409   7.750   6.637   1.337
 3545SOL    HW212410   7.693   6.763   1.399
 3546SOL     OW12411  11.677  14.329   4.840
 3546SOL    HW112412  11.667  14.399   4.776
 3546SOL    HW212413  11.703  14.373   4.921
 3547SOL     OW12414   8.629   3.111   5.586
 3547SOL    HW112415   8.721   3.094   5.604
 3547SOL    HW212416   8.619   3.205   5.598
 3548SOL     OW12417  14.128   0.700   0.967
 3548SOL    HW112418  14.117   0.617   0.921
 3548SOL    HW212419  14.080   0.688   1.049
 3549SOL     OW12420   0.724  11.670   6.234
 3549SOL    HW112421   0.641  11.660   6.187
 3549SOL    HW212422   0.791  11.654   6.167
 3550SOL     OW12423   0.124   2.969  12.853
 3550SOL    HW112424   0.136   2.936  12.764
 3550SOL    HW212425   0.168   3.054  12.854
 3551SOL     OW12426  13.090   2.686   9.496
 3551SOL    HW112427  13.070   2.616   9.435
 3551SOL    HW212428  13.186   2.688   9.499
 3552SOL     OW12429   3.538   1.900   3.283
 3552SOL    HW112430   3.488   1.826   3.319
 3552SOL    HW212431   3.476   1.973   3.285
 3553SOL     OW12432   8.511   6.129   0.446
 3553SOL    HW112433   8.515   6.049   0.393
 3553SOL    HW212434   8.566   6.192   0.399
 3554SOL     OW12435   1.760  10.739  14.193
 3554SOL    HW112436   1.676  10.740  14.240
 3554SOL    HW212437   1.783  10.831  14.184
 3555SOL     OW12438   3.749   4.215   1.690
 3555SOL    HW112439   3.755   4.285   1.755
 3555SOL    HW212440   3.798   4.247   1.615
 3556SOL     OW12441   5.718   7.481   5.194
 3556SOL    HW112442   5.797   7.442   5.157
 3556SOL    HW212443   5.749   7.528   5.271
 3557SOL     OW12444  10.248   7.655  11.103
 3557SOL    HW112445  10.213   7.587  11.161
 3557SOL    HW212446  10.279   7.608  11.026
 3558SOL     OW12447   6.953  11.991   8.876
 3558SOL    HW112448   7.036  11.952   8.903
 3558SOL    HW212449   6.958  12.082   8.906
 3559SOL     OW12450  14.429   1.788   8.018
 3559SOL    HW112451  14.411   1.744   7.935
 3559SOL    HW212452  14.466   1.719   8.074
 3560SOL     OW12453   4.448   0.722   5.280
 3560SOL    HW112454   4.482   0.753   5.363
 3560SOL    HW212455   4.475   0.630   5.275
 3561SOL     OW12456   0.685   5.405   3.971
 3561SOL    HW112457   0.682   5.443   4.059
 3561SOL    HW212458   0.751   5.457   3.925
 3562SOL     OW12459   4.660   6.891   9.279
 3562SOL    HW112460   4.610   6.949   9.336
 3562SOL    HW212461   4.736   6.864   9.331
 3563SOL     OW12462   6.629  14.880   4.092
 3563SOL    HW112463   6.591   0.071   4.143
 3563SOL    HW212464   6.699  14.846   4.147
 3564SOL     OW12465   2.260  10.801   5.917
 3564SOL    HW112466   2.169  10.790   5.891
 3564SOL    HW212467   2.279  10.723   5.970
 3565SOL     OW12468   2.071   9.752   4.286
 3565SOL    HW112469   2.077   9.657   4.292
 3565SOL    HW212470   1.982   9.772   4.315
 3566SOL     OW12471  13.053   5.611   5.191
 3566SOL    HW112472  13.097   5.572   5.116
 3566SOL    HW212473  13.124   5.645   5.246
 3567SOL     OW12474   4.015   2.558  13.272
 3567SOL    HW112475   3.921   2.544  13.283
 3567SOL    HW212476   4.054   2.520  13.350
 3568SOL     OW12477  10.005   5.301   4.233
 3568SOL    HW112478   9.993   5.331   4.143
 3568SOL    HW212479   9.916   5.296   4.269
 3569SOL     OW12480  11.602   5.388   8.107
 3569SOL    HW112481  11.604   5.360   8.198
 3569SOL    HW212482  11.675   5.448   8.098
 3570SOL     OW12483  11.974   3.046   0.852
 3570SOL    HW112484  11.999   2.963   0.812
 3570SOL    HW212485  11.933   3.096   0.781
 3571SOL     OW12486   1.268  12.620   6.333
 3571SOL    HW112487   1.290  12.711   6.312
 3571SOL    HW212488   1.340  12.590   6.388
 3572SOL     OW12489  13.020   2.203   7.430
 3572SOL    HW112490  13.043   2.293   7.454
 3572SOL    HW212491  12.948   2.213   7.367
 3573SOL     OW12492   2.697   5.240  10.427
 3573SOL    HW112493   2.788   5.271  10.428
 3573SOL    HW212494   2.647   5.312  10.466
 3574SOL     OW12495   4.633   8.532   5.115
 3574SOL    HW112496   4.708   8.474   5.122
 3574SOL    HW212497   4.558   8.474   5.101
 3575SOL     OW12498   2.698   6.029   8.880
 3575SOL    HW112499   2.789   6.040   8.904
 3575SOL    HW212500   2.688   6.082   8.801
 3576SOL     OW12501   1.247   7.464  13.239
 3576SOL    HW112502   1.274   7.495  13.325
 3576SOL    HW212503   1.259   7.369  13.243
 3577SOL     OW12504   9.364  12.903   7.438
 3577SOL    HW112505   9.439  12.848   7.463
 3577SOL    HW212506   9.382  12.988   7.478
 3578SOL     OW12507   1.464  11.933  12.763
 3578SOL    HW112508   1.485  11.868  12.696
 3578SOL    HW212509   1.527  12.004  12.749
 3579SOL     OW12510  10.608   2.568   5.287
 3579SOL    HW112511  10.659   2.588   5.365
 3579SOL    HW212512  10.635   2.635   5.223
 3580SOL     OW12513  13.586   8.291   0.647
 3580SOL    HW112514  13.675   8.265   0.624
 3580SOL    HW212515  13.551   8.214   0.693
 3581SOL     OW12516   4.024   1.200   0.282
 3581SOL    HW112517   4.097   1.205   0.220
 3581SOL    HW212518   4.048   1.130   0.342
 3582SOL     OW12519   7.161   6.690  13.693
 3582SOL    HW112520   7.084   6.735  13.728
 3582SOL    HW212521   7.177   6.732  13.608
 3583SOL     OW12522   1.614   6.564   2.422
 3583SOL    HW112523   1.586   6.473   2.419
 3583SOL    HW212524   1.614   6.592   2.330
 3584SOL     OW12525   3.565  13.513   5.277
 3584SOL    HW112526   3.544  13.555   5.193
 3584SOL    HW212527   3.567  13.419   5.257
 3585SOL     OW12528   4.051  10.212   3.856
 3585SOL    HW112529   4.077  10.155   3.783
 3585SOL    HW212530   4.049  10.300   3.817
 3586SOL     OW12531   6.877   9.244   5.349
 3586SOL    HW112532   6.789   9.278   5.365
 3586SOL    HW212533   6.864   9.161   5.304
 3587SOL     OW12534   3.238  13.967  13.964
 3587SOL    HW112535   3.327  13.934  13.957
 3587SOL    HW212536   3.199  13.918  14.037
 3588SOL     OW12537   3.586  11.858  13.371
 3588SOL    HW112538   3.578  11.949  13.342
 3588SOL    HW212539   3.603  11.865  13.465
 3589SOL     OW12540   7.395   3.816   9.051
 3589SOL    HW112541   7.397   3.741   8.992
 3589SOL    HW212542   7.460   3.796   9.118
 3590SOL     OW12543   8.423   7.229   5.747
 3590SOL    HW112544   8.345   7.258   5.698
 3590SOL    HW212545   8.420   7.278   5.828
 3591SOL     OW12546   0.531   0.505   8.338
 3591SOL    HW112547   0.534   0.483   8.245
 3591SOL    HW212548   0.574   0.432   8.381
 3592SOL     OW12549  14.537   7.836  10.159
 3592SOL    HW112550  14.456   7.800  10.196
 3592SOL    HW212551  14.511   7.869  10.073
 3593SOL     OW12552  10.809  14.058  13.987
 3593SOL    HW112553  10.789  13.976  14.033
 3593SOL    HW212554  10.903  14.071  14.003
 3594SOL     OW12555  10.499   6.649   0.168
 3594SOL    HW112556  10.539   6.568   0.137
 3594SOL    HW212557  10.439   6.620   0.237
 3595SOL     OW12558  14.038  10.993   3.168
 3595SOL    HW112559  14.063  11.081   3.196
 3595SOL    HW212560  13.995  11.007   3.083
 3596SOL     OW12561   6.227   9.926   3.349
 3596SOL    HW112562   6.135   9.922   3.320
 3596SOL    HW212563   6.271   9.977   3.281
 3597SOL     OW12564   3.599  13.763   2.545
 3597SOL    HW112565   3.616  13.830   2.611
 3597SOL    HW212566   3.514  13.727   2.568
 3598SOL     OW12567   5.761   3.058   3.427
 3598SOL    HW112568   5.686   3.098   3.472
 3598SOL    HW212569   5.833   3.064   3.490
 3599SOL     OW12570   4.476   9.915   2.005
 3599SOL    HW112571   4.502   9.942   1.917
 3599SOL    HW212572   4.461   9.821   1.998
 3600SOL     OW12573  12.106   2.851  14.153
 3600SOL    HW112574  12.152   2.907  14.217
 3600SOL    HW212575  12.138   2.763  14.172
 3601SOL     OW12576  12.329  14.739  13.998
 3601SOL    HW112577  12.306  14.739  13.905
 3601SOL    HW212578  12.314  14.649  14.026
 3602SOL     OW12579   2.500   5.243   0.960
 3602SOL    HW112580   2.481   5.290   1.041
 3602SOL    HW212581   2.414   5.230   0.920
 3603SOL     OW12582   1.962   0.526  10.421
 3603SOL    HW112583   2.052   0.498  10.406
 3603SOL    HW212584   1.926   0.461  10.482
 3604SOL     OW12585  12.033   9.984  12.053
 3604SOL    HW112586  12.088  10.058  12.076
 3604SOL    HW212587  12.042   9.923  12.126
 3605SOL     OW12588   6.034  12.090   7.642
 3605SOL    HW112589   6.048  12.175   7.600
 3605SOL    HW212590   5.945  12.066   7.617
 3606SOL     OW12591   0.539   8.572   4.672
 3606SOL    HW112592   0.456   8.611   4.700
 3606SOL    HW212593   0.563   8.514   4.744
 3607SOL     OW12594   4.511   7.057   7.988
 3607SOL    HW112595   4.604   7.080   7.980
 3607SOL    HW212596   4.468   7.138   8.013
 3608SOL     OW12597  13.041   8.066  11.639
 3608SOL    HW112598  13.137   8.066  11.636
 3608SOL    HW212599  13.014   8.129  11.572
 3609SOL     OW12600   5.290   1.907   5.625
 3609SOL    HW112601   5.357   1.933   5.562
 3609SOL    HW212602   5.320   1.943   5.709
 3610SOL     OW12603   6.403  13.327  12.039
 3610SOL    HW112604   6.414  13.257  12.103
 3610SOL    HW212605   6.339  13.386  12.078
 3611SOL     OW12606   1.020  14.190  12.285
 3611SOL    HW112607   0.926  14.188  12.300
 3611SOL    HW212608   1.046  14.098  12.284
 3612SOL     OW12609   0.130   8.696   1.575
 3612SOL    HW112610   0.125   8.775   1.523
 3612SOL    HW212611   0.068   8.711   1.647
 3613SOL     OW12612  14.517  11.902   4.751
 3613SOL    HW112613  14.455  11.955   4.701
 3613SOL    HW212614  14.523  11.820   4.702
 3614SOL     OW12615  10.410  14.072   5.057
 3614SOL    HW112616  10.343  14.067   4.989
 3614SOL    HW212617  10.398  13.993   5.109
 3615SOL     OW12618  14.777   2.948   9.306
 3615SOL    HW112619  14.864   2.914   9.328
 3615SOL    HW212620  14.716   2.883   9.340
 3616SOL     OW12621   3.989  11.128  10.049
 3616SOL    HW112622   3.946  11.049  10.079
 3616SOL    HW212623   4.070  11.097  10.009
 3617SOL     OW12624   8.210   6.238   0.197
 3617SOL    HW112625   8.146   6.189   0.249
 3617SOL    HW212626   8.217   6.323   0.241
 3618SOL     OW12627   9.729   5.362   4.663
 3618SOL    HW112628   9.783   5.413   4.603
 3618SOL    HW212629   9.767   5.379   4.749
 3619SOL     OW12630  10.710   6.199   4.085
 3619SOL    HW112631  10.773   6.270   4.076
 3619SOL    HW212632  10.732   6.139   4.014
 3620SOL     OW12633  12.070  12.686   1.805
 3620SOL    HW112634  11.983  12.726   1.801
 3620SOL    HW212635  12.077  12.635   1.724
 3621SOL     OW12636   8.929   9.098  12.468
 3621SOL    HW112637   8.915   9.047  12.388
 3621SOL    HW212638   8.918   9.189  12.441
 3622SOL     OW12639   3.822   9.528   1.583
 3622SOL    HW112640   3.772   9.469   1.640
 3622SOL    HW212641   3.813   9.614   1.624
 3623SOL     OW12642  12.684   5.666   3.655
 3623SOL    HW112643  12.644   5.582   3.678
 3623SOL    HW212644  12.753   5.643   3.593
 3624SOL     OW12645   3.995   4.675  11.624
 3624SOL    HW112646   4.081   4.695  11.661
 3624SOL    HW212647   3.989   4.730  11.546
 3625SOL     OW12648   4.524   9.116   0.135
 3625SOL    HW112649   4.513   9.210   0.118
 3625SOL    HW212650   4.463   9.073   0.076
 3626SOL     OW12651  10.453   9.321   4.039
 3626SOL    HW112652  10.401   9.270   3.977
 3626SOL    HW212653  10.490   9.393   3.987
 3627SOL     OW12654   4.218  11.914   8.350
 3627SOL    HW112655   4.137  11.936   8.397
 3627SOL    HW212656   4.245  11.830   8.389
 3628SOL     OW12657   7.187   9.238   2.369
 3628SOL    HW112658   7.256   9.192   2.418
 3628SOL    HW212659   7.233   9.311   2.328
 3629SOL     OW12660   3.200   9.578  10.017
 3629SOL    HW112661   3.115   9.583  10.060
 3629SOL    HW212662   3.263   9.573  10.089
 3630SOL     OW12663   7.917  12.810   7.310
 3630SOL    HW112664   7.962  12.786   7.228
 3630SOL    HW212665   7.975  12.874   7.351
 3631SOL     OW12666  14.168   5.321   3.587
 3631SOL    HW112667  14.233   5.352   3.650
 3631SOL    HW212668  14.220   5.297   3.510
 3632SOL     OW12669   4.909   0.008   9.052
 3632SOL    HW112670   4.994   0.033   9.014
 3632SOL    HW212671   4.880  14.817   8.998
 3633SOL     OW12672   7.942  11.953   8.755
 3633SOL    HW112673   8.032  11.955   8.724
 3633SOL    HW212674   7.947  11.916   8.843
 3634SOL     OW12675   9.139  14.025   8.611
 3634SOL    HW112676   9.194  14.036   8.688
 3634SOL    HW212677   9.154  13.935   8.583
 3635SOL     OW12678   0.800   2.253   2.338
 3635SOL    HW112679   0.790   2.322   2.404
 3635SOL    HW212680   0.891   2.262   2.309
 3636SOL     OW12681   7.202   3.893   9.490
 3636SOL    HW112682   7.137   3.860   9.552
 3636SOL    HW212683   7.194   3.988   9.494
 3637SOL     OW12684  13.055   7.425   2.543
 3637SOL    HW112685  13.064   7.495   2.478
 3637SOL    HW212686  13.057   7.471   2.627
 3638SOL     OW12687   3.947   5.183  13.151
 3638SOL    HW112688   4.036   5.196  13.116
 3638SOL    HW212689   3.961   5.138  13.234
 3639SOL     OW12690  13.922   7.389   6.575
 3639SOL    HW112691  13.839   7.374   6.621
 3639SOL    HW212692  13.988   7.383   6.644
 3640SOL     OW12693   0.605   3.076   0.849
 3640SOL    HW112694   0.639   3.109   0.932
 3640SOL    HW212695   0.538   3.012   0.874
 3641SOL     OW12696  11.817   4.376   0.260
 3641SOL    HW112697  11.769   4.333   0.190
 3641SOL    HW212698  11.889   4.316   0.280
 3642SOL     OW12699   7.113   5.098   5.113
 3642SOL    HW112700   7.170   5.023   5.130
 3642SOL    HW212701   7.158   5.172   5.154
 3643SOL     OW12702  11.923  12.163  11.058
 3643SOL    HW112703  11.832  12.149  11.032
 3643SOL    HW212704  11.929  12.257  11.075
 3644SOL     OW12705   6.303   2.300  13.962
 3644SOL    HW112706   6.281   2.298  14.055
 3644SOL    HW212707   6.300   2.393  13.938
 3645SOL     OW12708   9.229   7.714  10.661
 3645SOL    HW112709   9.212   7.635  10.712
 3645SOL    HW212710   9.158   7.718  10.598
 3646SOL     OW12711  14.115  12.833   0.192
 3646SOL    HW112712  14.118  12.759   0.253
 3646SOL    HW212713  14.028  12.871   0.206
 3647SOL     OW12714  10.358   5.445   5.032
 3647SOL    HW112715  10.269   5.458   5.064
 3647SOL    HW212716  10.352   5.457   4.937
 3648SOL     OW12717   9.263   7.952   2.868
 3648SOL    HW112718   9.221   7.866   2.858
 3648SOL    HW212719   9.345   7.933   2.913
 3649SOL     OW12720  10.874   7.539  13.158
 3649SOL    HW112721  10.822   7.607  13.117
 3649SOL    HW212722  10.845   7.457  13.118
 3650SOL     OW12723   7.497   4.030   8.908
 3650SOL    HW112724   7.561   4.069   8.967
 3650SOL    HW212725   7.459   3.958   8.958
 3651SOL     OW12726   5.761  11.280   9.922
 3651SOL    HW112727   5.794  11.220   9.989
 3651SOL    HW212728   5.793  11.366   9.950
 3652SOL     OW12729   4.564  10.758   5.042
 3652SOL    HW112730   4.538  10.826   4.979
 3652SOL    HW212731   4.644  10.793   5.082
 3653SOL     OW12732   2.741   7.449  11.527
 3653SOL    HW112733   2.754   7.360  11.493
 3653SOL    HW212734   2.754   7.506  11.451
 3654SOL     OW12735   8.220  10.503   8.945
 3654SOL    HW112736   8.206  10.507   8.850
 3654SOL    HW212737   8.313  10.482   8.954
 3655SOL     OW12738   9.125   6.310  11.527
 3655SOL    HW112739   9.090   6.387  11.482
 3655SOL    HW212740   9.128   6.334  11.619
 3656SOL     OW12741   8.342   2.014  11.563
 3656SOL    HW112742   8.250   2.004  11.538
 3656SOL    HW212743   8.387   2.029  11.480
 3657SOL     OW12744  10.502   5.329   7.917
 3657SOL    HW112745  10.548   5.279   7.985
 3657SOL    HW212746  10.440   5.384   7.966
 3658SOL     OW12747  11.651  12.380  10.458
 3658SOL    HW112748  11.704  12.306  10.429
 3658SOL    HW212749  11.698  12.415  10.534
 3659SOL     OW12750  12.380  12.084  13.902
 3659SOL    HW112751  12.348  12.069  13.813
 3659SOL    HW212752  12.342  12.169  13.926
 3660SOL     OW12753   7.465   9.097   7.553
 3660SOL    HW112754   7.478   9.011   7.591
 3660SOL    HW212755   7.553   9.131   7.538
 3661SOL     OW12756   9.169   3.465   9.868
 3661SOL    HW112757   9.108   3.500   9.803
 3661SOL    HW212758   9.159   3.370   9.861
 3662SOL     OW12759  10.551   0.380   7.295
 3662SOL    HW112760  10.590   0.441   7.233
 3662SOL    HW212761  10.616   0.372   7.365
 3663SOL     OW12762   4.333   5.937   7.251
 3663SOL    HW112763   4.327   5.860   7.308
 3663SOL    HW212764   4.370   5.903   7.170
 3664SOL     OW12765   7.607  13.296   3.998
 3664SOL    HW112766   7.597  13.257   3.911
 3664SOL    HW212767   7.600  13.222   4.059
 3665SOL     OW12768  12.320   4.646   7.774
 3665SOL    HW112769  12.332   4.736   7.805
 3665SOL    HW212770  12.344   4.592   7.850
 3666SOL     OW12771   1.335   1.266   6.636
 3666SOL    HW112772   1.255   1.213   6.632
 3666SOL    HW212773   1.382   1.244   6.556
 3667SOL     OW12774   9.662   5.238  12.521
 3667SOL    HW112775   9.599   5.225  12.450
 3667SOL    HW212776   9.744   5.262  12.477
 3668SOL     OW12777  12.835   8.447   5.754
 3668SOL    HW112778  12.890   8.517   5.789
 3668SOL    HW212779  12.871   8.428   5.668
 3669SOL     OW12780   7.340  11.645   9.979
 3669SOL    HW112781   7.413  11.698   9.947
 3669SOL    HW212782   7.382  11.564  10.010
 3670SOL     OW12783  14.605   8.297  10.910
 3670SOL    HW112784  14.594   8.318  10.817
 3670SOL    HW212785  14.575   8.207  10.919
 3671SOL     OW12786  14.006   0.825   5.325
 3671SOL    HW112787  13.928   0.782   5.287
 3671SOL    HW212788  13.991   0.822   5.419
 3672SOL     OW12789   4.647   1.875  10.820
 3672SOL    HW112790   4.638   1.970  10.824
 3672SOL    HW212791   4.713   1.860  10.752
 3673SOL     OW12792  11.778   1.951   2.267
 3673SOL    HW112793  11.864   1.910   2.278
 3673SOL    HW212794  11.795   2.045   2.273
 3674SOL     OW12795   1.067  10.687  10.673
 3674SOL    HW112796   1.084  10.604  10.630
 3674SOL    HW212797   1.149  10.707  10.720
 3675SOL     OW12798   5.598   2.154   4.418
 3675SOL    HW112799   5.666   2.208   4.377
 3675SOL    HW212800   5.641   2.113   4.493
 3676SOL     OW12801   1.142   0.022   4.692
 3676SOL    HW112802   1.148   0.017   4.597
 3676SOL    HW212803   1.048   0.015   4.710
 3677SOL     OW12804   7.249  13.708   2.209
 3677SOL    HW112805   7.338  13.683   2.183
 3677SOL    HW212806   7.225  13.777   2.147
 3678SOL     OW12807  14.191  14.362   2.543
 3678SOL    HW112808  14.225  14.298   2.606
 3678SOL    HW212809  14.193  14.316   2.459
 3679SOL     OW12810   8.875   8.847  13.678
 3679SOL    HW112811   8.857   8.818  13.588
 3679SOL    HW212812   8.969   8.864  13.679
 3680SOL     OW12813  11.901   8.988   4.972
 3680SOL    HW112814  11.973   8.957   5.028
 3680SOL    HW212815  11.945   9.022   4.894
 3681SOL     OW12816   8.520   6.389   5.384
 3681SOL    HW112817   8.425   6.394   5.371
 3681SOL    HW212818   8.541   6.464   5.439
 3682SOL     OW12819   6.564   4.698   5.845
 3682SOL    HW112820   6.573   4.726   5.936
 3682SOL    HW212821   6.563   4.603   5.849
 3683SOL     OW12822  14.594   0.454  10.628
 3683SOL    HW112823  14.529   0.493  10.686
 3683SOL    HW212824  14.543   0.422  10.553
 3684SOL     OW12825  10.819   3.087   8.519
 3684SOL    HW112826  10.879   3.146   8.474
 3684SOL    HW212827  10.796   3.134   8.600
 3685SOL     OW12828   3.605  12.048   2.219
 3685SOL    HW112829   3.587  12.122   2.277
 3685SOL    HW212830   3.560  12.070   2.138
 3686SOL     OW12831   8.222  11.983  12.838
 3686SOL    HW112832   8.196  11.993  12.930
 3686SOL    HW212833   8.296  11.922  12.840
 3687SOL     OW12834   0.468   3.499  10.620
 3687SOL    HW112835   0.541   3.561  10.614
 3687SOL    HW212836   0.420   3.527  10.698
 3688SOL     OW12837   1.849   9.719   2.769
 3688SOL    HW112838   1.886   9.632   2.755
 3688SOL    HW212839   1.755   9.703   2.783
 3689SOL     OW12840   7.833  11.881  12.296
 3689SOL    HW112841   7.823  11.802  12.243
 3689SOL    HW212842   7.914  11.866  12.346
 3690SOL     OW12843   3.834   8.076  10.310
 3690SOL    HW112844   3.921   8.052  10.343
 3690SOL    HW212845   3.814   8.010  10.244
 3691SOL     OW12846  12.116  12.600   4.427
 3691SOL    HW112847  12.121  12.542   4.504
 3691SOL    HW212848  12.176  12.561   4.364
 3692SOL     OW12849   3.459   0.285   7.179
 3692SOL    HW112850   3.400   0.239   7.238
 3692SOL    HW212851   3.402   0.346   7.131
 3693SOL     OW12852   8.285   6.652  12.146
 3693SOL    HW112853   8.368   6.623  12.108
 3693SOL    HW212854   8.234   6.682  12.070
 3694SOL     OW12855  14.871  10.822   7.827
 3694SOL    HW112856   0.072  10.778   7.805
 3694SOL    HW212857  14.804  10.755   7.812
 3695SOL     OW12858  14.450   2.922   9.266
 3695SOL    HW112859  14.513   2.867   9.313
 3695SOL    HW212860  14.365   2.890   9.294
 3696SOL     OW12861   7.613   0.427   7.272
 3696SOL    HW112862   7.574   0.461   7.192
 3696SOL    HW212863   7.544   0.433   7.337
 3697SOL     OW12864  12.702  13.893  10.317
 3697SOL    HW112865  12.737  13.930  10.399
 3697SOL    HW212866  12.756  13.932  10.248
 3698SOL     OW12867   9.520   9.405   2.770
 3698SOL    HW112868   9.596   9.457   2.796
 3698SOL    HW212869   9.491   9.363   2.851
 3699SOL     OW12870  12.000   9.983  12.631
 3699SOL    HW112871  11.996  10.070  12.593
 3699SOL    HW212872  11.942   9.930  12.576
 3700SOL     OW12873  11.305   0.236   4.293
 3700SOL    HW112874  11.326   0.154   4.247
 3700SOL    HW212875  11.291   0.209   4.383
 3701SOL     OW12876   6.543   1.869  13.117
 3701SOL    HW112877   6.553   1.959  13.148
 3701SOL    HW212878   6.632   1.840  13.098
 3702SOL     OW12879   7.850   9.816  11.029
 3702SOL    HW112880   7.895   9.732  11.032
 3702SOL    HW212881   7.766   9.797  10.987
 3703SOL     OW12882   3.606  11.093   1.061
 3703SOL    HW112883   3.670  11.121   1.127
 3703SOL    HW212884   3.657  11.047   0.995
 3704SOL     OW12885  13.993   1.619   3.367
 3704SOL    HW112886  13.988   1.709   3.398
 3704SOL    HW212887  14.013   1.626   3.274
 3705SOL     OW12888   6.944  13.521  13.813
 3705SOL    HW112889   7.008  13.467  13.766
 3705SOL    HW212890   6.996  13.592  13.850
 3706SOL     OW12891  10.384  11.680  12.376
 3706SOL    HW112892  10.405  11.657  12.285
 3706SOL    HW212893  10.300  11.725  12.371
 3707SOL     OW12894   6.591  12.283   9.671
 3707SOL    HW112895   6.657  12.263   9.605
 3707SOL    HW212896   6.588  12.205   9.726
 3708SOL     OW12897  11.058   2.356   2.066
 3708SOL    HW112898  11.120   2.411   2.018
 3708SOL    HW212899  11.109   2.279   2.092
 3709SOL     OW12900  11.804   1.124   5.587
 3709SOL    HW112901  11.747   1.047   5.585
 3709SOL    HW212902  11.843   1.123   5.674
 3710SOL     OW12903   2.863  11.466  11.618
 3710SOL    HW112904   2.927  11.423  11.675
 3710SOL    HW212905   2.897  11.554  11.606
 3711SOL     OW12906  13.744   9.427   4.178
 3711SOL    HW112907  13.806   9.432   4.250
 3711SOL    HW212908  13.669   9.380   4.214
 3712SOL     OW12909   9.501  12.510  14.579
 3712SOL    HW112910   9.406  12.520  14.591
 3712SOL    HW212911   9.539  12.539  14.662
 3713SOL     OW12912  10.147   0.667   9.352
 3713SOL    HW112913  10.060   0.672   9.314
 3713SOL    HW212914  10.152   0.743   9.411
 3714SOL     OW12915   5.469  13.217   8.229
 3714SOL    HW112916   5.489  13.125   8.217
 3714SOL    HW212917   5.527  13.245   8.300
 3715SOL     OW12918  14.771  10.479   6.461
 3715SOL    HW112919  14.777  10.391   6.426
 3715SOL    HW212920  14.707  10.523   6.405
 3716SOL     OW12921   2.556  11.719   8.897
 3716SOL    HW112922   2.472  11.673   8.897
 3716SOL    HW212923   2.549  11.782   8.825
 3717SOL     OW12924   2.336  10.069  13.609
 3717SOL    HW112925   2.418  10.079  13.560
 3717SOL    HW212926   2.360  10.019  13.686
 3718SOL     OW12927  10.592   5.462   0.428
 3718SOL    HW112928  10.638   5.545   0.442
 3718SOL    HW212929  10.576   5.430   0.517
 3719SOL     OW12930   6.770  12.344  12.718
 3719SOL    HW112931   6.805  12.432  12.732
 3719SOL    HW212932   6.692  12.357  12.664
 3720SOL     OW12933   1.810   8.608   0.376
 3720SOL    HW112934   1.863   8.611   0.455
 3720SOL    HW212935   1.775   8.519   0.374
 3721SOL     OW12936   6.730  11.415   7.676
 3721SOL    HW112937   6.664  11.355   7.643
 3721SOL    HW212938   6.765  11.371   7.754
 3722SOL     OW12939  13.785   6.315   7.854
 3722SOL    HW112940  13.752   6.236   7.810
 3722SOL    HW212941  13.715   6.340   7.914
 3723SOL     OW12942   7.857   3.353   4.469
 3723SOL    HW112943   7.944   3.368   4.432
 3723SOL    HW212944   7.798   3.352   4.394
 3724SOL     OW12945   3.498   7.854   4.017
 3724SOL    HW112946   3.451   7.829   4.097
 3724SOL    HW212947   3.428   7.868   3.953
 3725SOL     OW12948  14.186   1.544   2.190
 3725SOL    HW112949  14.210   1.499   2.108
 3725SOL    HW212950  14.181   1.637   2.166
 3726SOL     OW12951  11.408   4.498   9.804
 3726SOL    HW112952  11.371   4.585   9.786
 3726SOL    HW212953  11.337   4.452   9.849
 3727SOL     OW12954  11.602  12.567   0.451
 3727SOL    HW112955  11.558  12.641   0.492
 3727SOL    HW212956  11.549  12.491   0.476
 3728SOL     OW12957  10.658  12.346   9.758
 3728SOL    HW112958  10.690  12.437   9.759
 3728SOL    HW212959  10.726  12.298   9.711
 3729SOL     OW12960   5.240   0.188   9.260
 3729SOL    HW112961   5.222   0.277   9.288
 3729SOL    HW212962   5.309   0.158   9.318
 3730SOL     OW12963  12.703   8.111   8.681
 3730SOL    HW112964  12.668   8.027   8.709
 3730SOL    HW212965  12.794   8.093   8.658
 3731SOL     OW12966   4.738  11.272  11.946
 3731SOL    HW112967   4.656  11.240  11.985
 3731SOL    HW212968   4.714  11.299  11.857
 3732SOL     OW12969   4.214  11.627   0.576
 3732SOL    HW112970   4.155  11.644   0.502
 3732SOL    HW212971   4.177  11.549   0.619
 3733SOL     OW12972   1.834  12.867  12.078
 3733SOL    HW112973   1.752  12.824  12.057
 3733SOL    HW212974   1.898  12.830  12.016
 3734SOL     OW12975  10.227   1.946   7.209
 3734SOL    HW112976  10.216   1.867   7.261
 3734SOL    HW212977  10.266   1.915   7.127
 3735SOL     OW12978   5.829   1.929   4.199
 3735SOL    HW112979   5.909   1.881   4.180
 3735SOL    HW212980   5.856   2.021   4.200
 3736SOL     OW12981   7.754   0.501  13.882
 3736SOL    HW112982   7.795   0.557  13.947
 3736SOL    HW212983   7.661   0.516  13.892
 3737SOL     OW12984  12.675   9.418  13.911
 3737SOL    HW112985  12.646   9.462  13.831
 3737SOL    HW212986  12.759   9.378  13.886
 3738SOL     OW12987   0.102  10.577   0.015
 3738SOL    HW112988   0.119  10.645  14.831
 3738SOL    HW212989   0.010  10.589   0.039
 3739SOL     OW12990  10.837   9.025   7.578
 3739SOL    HW112991  10.772   9.017   7.507
 3739SOL    HW212992  10.825   8.945   7.629
 3740SOL     OW12993   1.104  11.251   0.169
 3740SOL    HW112994   1.128  11.211   0.085
 3740SOL    HW212995   1.187  11.285   0.203
 3741SOL     OW12996   3.433   9.902   0.962
 3741SOL    HW112997   3.388   9.972   0.915
 3741SOL    HW212998   3.453   9.939   1.048
 3742SOL     OW12999  11.910  13.684   9.963
 3742SOL    HW113000  11.940  13.738  10.036
 3742SOL    HW213001  11.937  13.731   9.884
 3743SOL     OW13002  13.096   4.317  13.408
 3743SOL    HW113003  13.120   4.352  13.494
 3743SOL    HW213004  13.175   4.327  13.356
 3744SOL     OW13005   6.933   2.714   1.766
 3744SOL    HW113006   6.874   2.684   1.835
 3744SOL    HW213007   6.877   2.766   1.708
 3745SOL     OW13008   6.613   0.499   9.467
 3745SOL    HW113009   6.618   0.426   9.406
 3745SOL    HW213010   6.692   0.550   9.451
 3746SOL     OW13011   4.749  14.702   8.090
 3746SOL    HW113012   4.657  14.728   8.089
 3746SOL    HW213013   4.789  14.754   8.021
 3747SOL     OW13014   2.921  13.867  12.064
 3747SOL    HW113015   2.948  13.787  12.019
 3747SOL    HW213016   2.883  13.922  11.995
 3748SOL     OW13017  12.168   8.444   2.131
 3748SOL    HW113018  12.120   8.401   2.201
 3748SOL    HW213019  12.102   8.468   2.067
 3749SOL     OW13020   5.537   1.911   2.984
 3749SOL    HW113021   5.457   1.942   2.941
 3749SOL    HW213022   5.554   1.976   3.052
 3750SOL     OW13023   0.405  14.859  14.678
 3750SOL    HW113024   0.350   0.055  14.688
 3750SOL    HW213025   0.476  14.872  14.741
 3751SOL     OW13026   6.400   5.000   4.899
 3751SOL    HW113027   6.406   4.950   4.818
 3751SOL    HW213028   6.491   5.020   4.921
 3752SOL     OW13029  12.094  13.304   4.407
 3752SOL    HW113030  12.128  13.362   4.338
 3752SOL    HW213031  12.079  13.221   4.364
 3753SOL     OW13032  11.028   4.043  14.099
 3753SOL    HW113033  11.049   3.954  14.127
 3753SOL    HW213034  10.946   4.034  14.050
 3754SOL     OW13035   6.060  10.251   1.760
 3754SOL    HW113036   5.997  10.179   1.762
 3754SOL    HW213037   6.108  10.243   1.842
 3755SOL     OW13038  11.768   3.908  14.636
 3755SOL    HW113039  11.732   3.846  14.572
 3755SOL    HW213040  11.765   3.993  14.592
 3756SOL     OW13041   4.473  11.489   9.004
 3756SOL    HW113042   4.504  11.539   8.929
 3756SOL    HW213043   4.521  11.406   8.999
 3757SOL     OW13044  13.339   7.745   9.922
 3757SOL    HW113045  13.374   7.823   9.879
 3757SOL    HW213046  13.275   7.779   9.985
 3758SOL     OW13047   4.558   2.207   0.948
 3758SOL    HW113048   4.475   2.230   0.906
 3758SOL    HW213049   4.594   2.291   0.977
 3759SOL     OW13050  14.565   2.945  12.237
 3759SOL    HW113051  14.519   2.964  12.155
 3759SOL    HW213052  14.590   3.031  12.271
 3760SOL     OW13053   8.436   7.990  11.282
 3760SOL    HW113054   8.446   7.920  11.347
 3760SOL    HW213055   8.341   8.000  11.273
 3761SOL     OW13056   0.145   8.948   1.427
 3761SOL    HW113057   0.223   8.993   1.461
 3761SOL    HW213058   0.084   9.018   1.405
 3762SOL     OW13059  11.558  13.295  13.241
 3762SOL    HW113060  11.553  13.278  13.147
 3762SOL    HW213061  11.471  13.273  13.274
 3763SOL     OW13062   9.420  11.864   8.728
 3763SOL    HW113063   9.345  11.824   8.685
 3763SOL    HW213064   9.495  11.814   8.695
 3764SOL     OW13065   1.874   0.680   7.881
 3764SOL    HW113066   1.898   0.605   7.935
 3764SOL    HW213067   1.839   0.744   7.943
 3765SOL     OW13068   6.887   8.405   3.636
 3765SOL    HW113069   6.851   8.493   3.645
 3765SOL    HW213070   6.962   8.403   3.695
 3766SOL     OW13071  11.403   2.902   8.144
 3766SOL    HW113072  11.318   2.944   8.154
 3766SOL    HW213073  11.383   2.808   8.151
 3767SOL     OW13074   9.947   6.347   6.186
 3767SOL    HW113075   9.974   6.438   6.202
 3767SOL    HW213076   9.934   6.311   6.274
 3768SOL     OW13077   2.449  13.435   8.529
 3768SOL    HW113078   2.538  13.400   8.539
 3768SOL    HW213079   2.409  13.379   8.462
 3769SOL     OW13080  12.139   4.823   2.817
 3769SOL    HW113081  12.219   4.875   2.828
 3769SOL    HW213082  12.079   4.857   2.883
 3770SOL     OW13083   9.305   2.367   2.857
 3770SOL    HW113084   9.319   2.293   2.916
 3770SOL    HW213085   9.380   2.425   2.874
 3771SOL     OW13086   4.203  11.923   9.943
 3771SOL    HW113087   4.143  11.997   9.952
 3771SOL    HW213088   4.178  11.863  10.013
 3772SOL     OW13089   8.570   7.125   2.109
 3772SOL    HW113090   8.521   7.196   2.067
 3772SOL    HW213091   8.507   7.055   2.119
 3773SOL     OW13092   7.181  14.098   9.460
 3773SOL    HW113093   7.269  14.127   9.435
 3773SOL    HW213094   7.143  14.064   9.380
 3774SOL     OW13095  13.378   1.591  11.472
 3774SOL    HW113096  13.428   1.536  11.533
 3774SOL    HW213097  13.375   1.677  11.514
 3775SOL     OW13098   1.735   8.893  12.662
 3775SOL    HW113099   1.661   8.833  12.659
 3775SOL    HW213100   1.809   8.842  12.631
 3776SOL     OW13101   5.923  10.906   4.692
 3776SOL    HW113102   5.896  10.852   4.766
 3776SOL    HW213103   5.877  10.989   4.704
 3777SOL     OW13104   3.217   5.953   1.856
 3777SOL    HW113105   3.259   5.870   1.838
 3777SOL    HW213106   3.208   5.955   1.951
 3778SOL     OW13107   2.898  14.102   6.089
 3778SOL    HW113108   2.920  14.055   6.008
 3778SOL    HW213109   2.807  14.077   6.108
 3779SOL     OW13110   8.359  11.094   4.939
 3779SOL    HW113111   8.454  11.096   4.923
 3779SOL    HW213112   8.323  11.155   4.875
 3780SOL     OW13113   8.040   1.965   4.154
 3780SOL    HW113114   8.030   1.903   4.083
 3780SOL    HW213115   8.028   2.051   4.113
 3781SOL     OW13116  13.735   0.670   4.601
 3781SOL    HW113117  13.650   0.629   4.586
 3781SOL    HW213118  13.714   0.751   4.647
 3782SOL     OW13119   9.817  10.503  11.720
 3782SOL    HW113120   9.754  10.516  11.791
 3782SOL    HW213121   9.875  10.434  11.753
 3783SOL     OW13122   1.386   7.503   3.053
 3783SOL    HW113123   1.367   7.588   3.013
 3783SOL    HW213124   1.460   7.519   3.111
 3784SOL     OW13125   8.718   2.889  12.847
 3784SOL    HW113126   8.760   2.893  12.761
 3784SOL    HW213127   8.703   2.796  12.863
 3785SOL     OW13128   5.888   1.370  12.739
 3785SOL    HW113129   5.833   1.398  12.666
 3785SOL    HW213130   5.940   1.447  12.761
 3786SOL     OW13131   5.317   0.842   5.342
 3786SOL    HW113132   5.254   0.886   5.283
 3786SOL    HW213133   5.345   0.911   5.402
 3787SOL     OW13134   8.530   0.936   3.670
 3787SOL    HW113135   8.506   1.021   3.708
 3787SOL    HW213136   8.506   0.872   3.737
 3788SOL     OW13137  12.809   1.658  13.018
 3788SOL    HW113138  12.846   1.744  12.998
 3788SOL    HW213139  12.855   1.630  13.098
 3789SOL     OW13140   2.310  11.551   5.749
 3789SOL    HW113141   2.270  11.516   5.829
 3789SOL    HW213142   2.255  11.519   5.678
 3790SOL     OW13143   4.957   9.195  14.034
 3790SOL    HW113144   5.028   9.143  14.071
 3790SOL    HW213145   4.940   9.263  14.100
 3791SOL     OW13146  14.100   2.304   6.193
 3791SOL    HW113147  14.115   2.346   6.109
 3791SOL    HW213148  14.060   2.372   6.247
 3792SOL     OW13149   7.775   2.147  12.488
 3792SOL    HW113150   7.865   2.133  12.457
 3792SOL    HW213151   7.762   2.077  12.553
 3793SOL     OW13152   2.284   9.417   9.523
 3793SOL    HW113153   2.237   9.445   9.445
 3793SOL    HW213154   2.363   9.471   9.524
 3794SOL     OW13155   0.477  13.377   8.024
 3794SOL    HW113156   0.521  13.341   7.946
 3794SOL    HW213157   0.392  13.407   7.991
 3795SOL     OW13158   7.841  10.019   3.073
 3795SOL    HW113159   7.789  10.018   3.154
 3795SOL    HW213160   7.778   9.995   3.005
 3796SOL     OW13161   2.014   5.481  10.814
 3796SOL    HW113162   2.083   5.425  10.778
 3796SOL    HW213163   2.058   5.533  10.882
 3797SOL     OW13164   9.561  14.473  14.080
 3797SOL    HW113165   9.541  14.413  14.008
 3797SOL    HW213166   9.524  14.557  14.052
 3798SOL     OW13167  14.383  12.564   5.192
 3798SOL    HW113168  14.347  12.608   5.269
 3798SOL    HW213169  14.471  12.539   5.218
 3799SOL     OW13170  11.620   2.034   9.260
 3799SOL    HW113171  11.543   2.089   9.277
 3799SOL    HW213172  11.694   2.089   9.287
 3800SOL     OW13173   0.241   2.820   7.626
 3800SOL    HW113174   0.158   2.858   7.654
 3800SOL    HW213175   0.260   2.863   7.543
 3801SOL     OW13176  12.872  10.089   7.812
 3801SOL    HW113177  12.824  10.086   7.895
 3801SOL    HW213178  12.840  10.168   7.769
 3802SOL     OW13179   8.501   9.058   8.753
 3802SOL    HW113180   8.550   9.131   8.790
 3802SOL    HW213181   8.440   9.099   8.691
 3803SOL     OW13182   1.512   0.488  14.266
 3803SOL    HW113183   1.603   0.499  14.240
 3803SOL    HW213184   1.503   0.394  14.282
 3804SOL     OW13185  12.742   1.398   6.291
 3804SOL    HW113186  12.686   1.328   6.259
 3804SOL    HW213187  12.708   1.418   6.379
 3805SOL     OW13188   4.583   4.703  13.999
 3805SOL    HW113189   4.677   4.697  13.984
 3805SOL    HW213190   4.559   4.618  14.037
 3806SOL     OW13191   1.095   1.051  12.871
 3806SOL    HW113192   1.186   1.082  12.865
 3806SOL    HW213193   1.098   0.983  12.938
 3807SOL     OW13194   0.825   6.575   2.119
 3807SOL    HW113195   0.775   6.504   2.159
 3807SOL    HW213196   0.867   6.535   2.042
 3808SOL     OW13197   5.462  10.163   6.739
 3808SOL    HW113198   5.525  10.092   6.755
 3808SOL    HW213199   5.377  10.122   6.755
 3809SOL     OW13200   4.780   8.310   5.200
 3809SOL    HW113201   4.875   8.305   5.201
 3809SOL    HW213202   4.751   8.223   5.228
 3810SOL     OW13203   8.688   8.230   7.908
 3810SOL    HW113204   8.624   8.205   7.973
 3810SOL    HW213205   8.643   8.294   7.852
 3811SOL     OW13206  11.985   5.530   9.329
 3811SOL    HW113207  12.000   5.459   9.267
 3811SOL    HW213208  11.996   5.489   9.415
 3812SOL     OW13209  11.465   4.414   5.991
 3812SOL    HW113210  11.484   4.498   5.950
 3812SOL    HW213211  11.530   4.405   6.060
 3813SOL     OW13212   2.538  10.802   5.878
 3813SOL    HW113213   2.448  10.811   5.909
 3813SOL    HW213214   2.544  10.713   5.845
 3814SOL     OW13215  13.244  11.217  11.289
 3814SOL    HW113216  13.307  11.169  11.344
 3814SOL    HW213217  13.207  11.149  11.232
 3815SOL     OW13218  13.139   9.575   1.744
 3815SOL    HW113219  13.058   9.626   1.745
 3815SOL    HW213220  13.188   9.607   1.820
 3816SOL     OW13221   8.269   2.935   9.820
 3816SOL    HW113222   8.301   2.900   9.737
 3816SOL    HW213223   8.275   3.030   9.809
 3817SOL     OW13224   5.654   0.279   2.140
 3817SOL    HW113225   5.681   0.247   2.226
 3817SOL    HW213226   5.561   0.299   2.149
 3818SOL     OW13227  13.861   5.530   4.492
 3818SOL    HW113228  13.876   5.578   4.410
 3818SOL    HW213229  13.767   5.541   4.509
 3819SOL     OW13230   5.951  13.697   2.758
 3819SOL    HW113231   5.981  13.633   2.694
 3819SOL    HW213232   5.858  13.708   2.739
 3820SOL     OW13233   1.464  10.831   7.849
 3820SOL    HW113234   1.425  10.754   7.892
 3820SOL    HW213235   1.438  10.905   7.904
 3821SOL     OW13236   5.282   6.983   8.291
 3821SOL    HW113237   5.194   7.011   8.315
 3821SOL    HW213238   5.338   7.015   8.362
 3822SOL     OW13239   3.096   8.577   4.082
 3822SOL    HW113240   3.131   8.634   4.151
 3822SOL    HW213241   3.152   8.500   4.085
 3823SOL     OW13242   1.080   6.125   9.294
 3823SOL    HW113243   1.051   6.042   9.257
 3823SOL    HW213244   1.059   6.191   9.228
 3824SOL     OW13245  14.617  11.090   3.082
 3824SOL    HW113246  14.535  11.100   3.033
 3824SOL    HW213247  14.675  11.043   3.021
 3825SOL     OW13248   9.911  11.973  11.357
 3825SOL    HW113249   9.827  11.953  11.316
 3825SOL    HW213250   9.909  11.923  11.439
 3826SOL     OW13251   6.707   0.183   5.703
 3826SOL    HW113252   6.636   0.132   5.664
 3826SOL    HW213253   6.725   0.140   5.786
 3827SOL     OW13254   6.168   3.364   0.673
 3827SOL    HW113255   6.175   3.272   0.648
 3827SOL    HW213256   6.184   3.365   0.767
 3828SOL     OW13257   6.915   4.074   3.923
 3828SOL    HW113258   6.843   4.135   3.935
 3828SOL    HW213259   6.881   3.989   3.951
 3829SOL     OW13260  13.260   9.946   3.535
 3829SOL    HW113261  13.261   9.876   3.601
 3829SOL    HW213262  13.330   9.923   3.474
 3830SOL     OW13263  10.114   2.106  11.002
 3830SOL    HW113264  10.089   2.064  11.084
 3830SOL    HW213265  10.210   2.114  11.008
 3831SOL     OW13266  11.994  14.532  12.811
 3831SOL    HW113267  11.972  14.586  12.735
 3831SOL    HW213268  11.919  14.542  12.870
 3832SOL     OW13269   9.733   9.193   2.325
 3832SOL    HW113270   9.657   9.251   2.317
 3832SOL    HW213271   9.729   9.136   2.248
 3833SOL     OW13272   0.439   4.663   3.513
 3833SOL    HW113273   0.443   4.758   3.506
 3833SOL    HW213274   0.469   4.645   3.602
 3834SOL     OW13275   9.676  11.430  12.402
 3834SOL    HW113276   9.583  11.424  12.380
 3834SOL    HW213277   9.706  11.510  12.358
 3835SOL     OW13278  12.964   5.929  12.577
 3835SOL    HW113279  13.047   5.904  12.537
 3835SOL    HW213280  12.898   5.903  12.512
 3836SOL     OW13281   1.266   6.637  12.966
 3836SOL    HW113282   1.307   6.556  12.937
 3836SOL    HW213283   1.308   6.705  12.914
 3837SOL     OW13284   1.504   7.259  12.905
 3837SOL    HW113285   1.437   7.211  12.954
 3837SOL    HW213286   1.497   7.226  12.816
 3838SOL     OW13287   0.849  13.431   8.302
 3838SOL    HW113288   0.757  13.434   8.273
 3838SOL    HW213289   0.869  13.338   8.309
 3839SOL     OW13290  11.215  13.078   1.249
 3839SOL    HW113291  11.249  13.057   1.162
 3839SOL    HW213292  11.127  13.041   1.250
 3840SOL     OW13293   6.159   2.336  10.176
 3840SOL    HW113294   6.220   2.353  10.105
 3840SOL    HW213295   6.213   2.302  10.247
 3841SOL     OW13296  11.533  12.439   2.381
 3841SOL    HW113297  11.560  12.347   2.382
 3841SOL    HW213298  11.444  12.438   2.417
 3842SOL     OW13299   3.961   5.146   8.062
 3842SOL    HW113300   3.886   5.171   8.009
 3842SOL    HW213301   4.021   5.105   8.001
 3843SOL     OW13302   4.566   0.066  12.978
 3843SOL    HW113303   4.636   0.018  12.935
 3843SOL    HW213304   4.488   0.011  12.965
 3844SOL     OW13305  13.620   9.869   6.703
 3844SOL    HW113306  13.635   9.777   6.720
 3844SOL    HW213307  13.576   9.871   6.618
 3845SOL     OW13308   8.855   0.953  14.373
 3845SOL    HW113309   8.870   0.924  14.283
 3845SOL    HW213310   8.832   0.873  14.421
 3846SOL     OW13311   3.916   9.318  10.286
 3846SOL    HW113312   3.985   9.381  10.308
 3846SOL    HW213313   3.891   9.340  10.196
 3847SOL     OW13314  13.375   0.605   4.149
 3847SOL    HW113315  13.391   0.695   4.178
 3847SOL    HW213316  13.310   0.614   4.079
 3848SOL     OW13317   2.530   3.790   6.267
 3848SOL    HW113318   2.511   3.860   6.205
 3848SOL    HW213319   2.574   3.833   6.340
 3849SOL     OW13320  12.430  12.453   4.722
 3849SOL    HW113321  12.349  12.450   4.774
 3849SOL    HW213322  12.417  12.526   4.662
 3850SOL     OW13323   9.817  13.573   7.369
 3850SOL    HW113324   9.809  13.615   7.455
 3850SOL    HW213325   9.739  13.519   7.361
 3851SOL     OW13326   0.605  12.362   4.948
 3851SOL    HW113327   0.592  12.449   4.911
 3851SOL    HW213328   0.582  12.302   4.877
 3852SOL     OW13329  14.525   9.680  14.777
 3852SOL    HW113330  14.571   9.628  14.712
 3852SOL    HW213331  14.458   9.727  14.728
 3853SOL     OW13332   3.326   0.801   4.085
 3853SOL    HW113333   3.279   0.856   4.149
 3853SOL    HW213334   3.343   0.719   4.132
 3854SOL     OW13335  11.191   0.567  11.386
 3854SOL    HW113336  11.107   0.603  11.413
 3854SOL    HW213337  11.256   0.625  11.426
 3855SOL     OW13338   6.252  10.763   3.387
 3855SOL    HW113339   6.299  10.840   3.354
 3855SOL    HW213340   6.281  10.692   3.329
 3856SOL     OW13341  14.392   8.101  14.304
 3856SOL    HW113342  14.321   8.111  14.241
 3856SOL    HW213343  14.352   8.063  14.381
 3857SOL     OW13344   6.354   9.100   0.893
 3857SOL    HW113345   6.412   9.081   0.819
 3857SOL    HW213346   6.268   9.070   0.865
 3858SOL     OW13347   0.196   8.108   4.782
 3858SOL    HW113348   0.218   8.184   4.728
 3858SOL    HW213349   0.187   8.144   4.871
 3859SOL     OW13350   3.112   4.047   1.827
 3859SOL    HW113351   3.170   3.978   1.795
 3859SOL    HW213352   3.031   4.002   1.851
 3860SOL     OW13353  14.262  10.667   8.161
 3860SOL    HW113354  14.343  10.641   8.116
 3860SOL    HW213355  14.210  10.587   8.162
 3861SOL     OW13356   2.713  14.107  13.287
 3861SOL    HW113357   2.759  14.099  13.203
 3861SOL    HW213358   2.644  14.172  13.270
 3862SOL     OW13359   7.603   3.657   5.942
 3862SOL    HW113360   7.521   3.680   5.987
 3862SOL    HW213361   7.584   3.574   5.898
 3863SOL     OW13362   0.353  14.272  10.185
 3863SOL    HW113363   0.413  14.337  10.148
 3863SOL    HW213364   0.357  14.199  10.123
 3864SOL     OW13365   4.277  10.907   7.692
 3864SOL    HW113366   4.336  10.833   7.680
 3864SOL    HW213367   4.199  10.883   7.641
 3865SOL     OW13368   0.619   7.046   0.221
 3865SOL    HW113369   0.532   7.021   0.252
 3865SOL    HW213370   0.679   6.999   0.278
 3866SOL     OW13371  13.991  12.596   2.785
 3866SOL    HW113372  14.049  12.520   2.793
 3866SOL    HW213373  13.904  12.558   2.773
 3867SOL     OW13374   5.300   9.561   9.734
 3867SOL    HW113375   5.264   9.622   9.670
 3867SOL    HW213376   5.385   9.535   9.698
 3868SOL     OW13377   5.689  14.734  10.660
 3868SOL    HW113378   5.758  14.696  10.606
 3868SOL    HW213379   5.633  14.781  10.598
 3869SOL     OW13380   8.455   2.338   6.672
 3869SOL    HW113381   8.361   2.324   6.658
 3869SOL    HW213382   8.483   2.390   6.597
 3870SOL     OW13383   1.217   0.488  13.639
 3870SOL    HW113384   1.242   0.546  13.711
 3870SOL    HW213385   1.132   0.521  13.610
 3871SOL     OW13386   6.928   8.964   1.581
 3871SOL    HW113387   7.011   8.934   1.544
 3871SOL    HW213388   6.861   8.921   1.528
 3872SOL     OW13389   5.041   5.410   3.909
 3872SOL    HW113390   5.071   5.425   3.999
 3872SOL    HW213391   5.096   5.468   3.855
 3873SOL     OW13392   9.832  14.211   6.154
 3873SOL    HW113393   9.912  14.168   6.184
 3873SOL    HW213394   9.761  14.155   6.187
 3874SOL     OW13395   0.877   2.154  11.332
 3874SOL    HW113396   0.941   2.208  11.286
 3874SOL    HW213397   0.871   2.194  11.420
 3875SOL     OW13398   5.570  13.296   8.465
 3875SOL    HW113399   5.515  13.253   8.531
 3875SOL    HW213400   5.619  13.362   8.514
 3876SOL     OW13401  14.265   3.056   0.116
 3876SOL    HW113402  14.257   3.022   0.206
 3876SOL    HW213403  14.186   3.107   0.103
 3877SOL     OW13404   8.175   7.011   8.148
 3877SOL    HW113405   8.120   6.959   8.090
 3877SOL    HW213406   8.164   6.970   8.234
 3878SOL     OW13407  14.254   8.079   4.152
 3878SOL    HW113408  14.222   8.038   4.233
 3878SOL    HW213409  14.178   8.123   4.115
 3879SOL     OW13410   6.668   8.947   7.309
 3879SOL    HW113411   6.584   8.984   7.338
 3879SOL    HW213412   6.733   9.013   7.334
 3880SOL     OW13413   9.763   7.554   3.064
 3880SOL    HW113414   9.729   7.475   3.022
 3880SOL    HW213415   9.849   7.568   3.025
 3881SOL     OW13416  14.659   2.689   9.289
 3881SOL    HW113417  14.662   2.640   9.207
 3881SOL    HW213418  14.691   2.628   9.355
 3882SOL     OW13419  13.483   6.480   9.633
 3882SOL    HW113420  13.486   6.569   9.599
 3882SOL    HW213421  13.395   6.471   9.671
 3883SOL     OW13422   6.427   1.083   5.001
 3883SOL    HW113423   6.447   1.117   4.914
 3883SOL    HW213424   6.512   1.062   5.040
 3884SOL     OW13425   0.731  10.096   0.212
 3884SOL    HW113426   0.803  10.147   0.175
 3884SOL    HW213427   0.752  10.089   0.306
 3885SOL     OW13428  11.723  11.419  13.212
 3885SOL    HW113429  11.761  11.488  13.265
 3885SOL    HW213430  11.640  11.455  13.181
 3886SOL     OW13431   7.309   9.847   4.958
 3886SOL    HW113432   7.306   9.819   4.867
 3886SOL    HW213433   7.352   9.933   4.955
 3887SOL     OW13434  12.460   5.540   9.752
 3887SOL    HW113435  12.423   5.556   9.665
 3887SOL    HW213436  12.497   5.451   9.746
 3888SOL     OW13437  10.770   0.756  10.516
 3888SOL    HW113438  10.696   0.809  10.547
 3888SOL    HW213439  10.845   0.816  10.519
 3889SOL     OW13440   2.545   7.206   5.932
 3889SOL    HW113441   2.593   7.261   5.870
 3889SOL    HW213442   2.531   7.124   5.886
 3890SOL     OW13443  11.692   5.569  14.716
 3890SOL    HW113444  11.781   5.559  14.747
 3890SOL    HW213445  11.699   5.561  14.621
 3891SOL     OW13446  11.150  12.189   9.388
 3891SOL    HW113447  11.212  12.233   9.445
 3891SOL    HW213448  11.203  12.121   9.344
 3892SOL     OW13449  11.801   4.541  14.277
 3892SOL    HW113450  11.880   4.521  14.227
 3892SOL    HW213451  11.749   4.461  14.271
 3893SOL     OW13452   8.341   6.616  12.943
 3893SOL    HW113453   8.360   6.676  12.871
 3893SOL    HW213454   8.293   6.668  13.007
 3894SOL     OW13455   3.104  10.441   0.643
 3894SOL    HW113456   3.026  10.497   0.649
 3894SOL    HW213457   3.177  10.501   0.654
 3895SOL     OW13458   0.655   8.425   9.284
 3895SOL    HW113459   0.715   8.447   9.213
 3895SOL    HW213460   0.587   8.372   9.243
 3896SOL     OW13461  14.361  14.860   8.467
 3896SOL    HW113462  14.421  14.786   8.477
 3896SOL    HW213463  14.374   0.008   8.377
 3897SOL     OW13464   5.539   0.924   2.013
 3897SOL    HW113465   5.582   0.894   2.093
 3897SOL    HW213466   5.543   0.849   1.954
 3898SOL     OW13467   8.140  13.076  14.605
 3898SOL    HW113468   8.106  13.060  14.517
 3898SOL    HW213469   8.180  12.993  14.630
 3899SOL     OW13470   1.896  14.228   6.022
 3899SOL    HW113471   1.992  14.226   6.021
 3899SOL    HW213472   1.874  14.320   6.007
 3900SOL     OW13473   9.862   2.507   1.891
 3900SOL    HW113474   9.941   2.513   1.837
 3900SOL    HW213475   9.888   2.540   1.977
 3901SOL     OW13476   6.043   0.362  12.753
 3901SOL    HW113477   6.031   0.295  12.821
 3901SOL    HW213478   6.117   0.414  12.785
 3902SOL     OW13479   3.250   2.407   8.723
 3902SOL    HW113480   3.311   2.409   8.649
 3902SOL    HW213481   3.306   2.417   8.800
 3903SOL     OW13482   0.227  14.361   9.012
 3903SOL    HW113483   0.319  14.353   9.038
 3903SOL    HW213484   0.201  14.447   9.044
 3904SOL     OW13485  11.986   5.550  11.479
 3904SOL    HW113486  12.048   5.553  11.552
 3904SOL    HW213487  11.943   5.635  11.481
 3905SOL     OW13488   1.976   6.537   6.837
 3905SOL    HW113489   1.910   6.561   6.772
 3905SOL    HW213490   1.959   6.444   6.855
 3906SOL     OW13491   3.284   2.385   1.618
 3906SOL    HW113492   3.241   2.464   1.586
 3906SOL    HW213493   3.347   2.416   1.684
 3907SOL     OW13494  13.649  13.845   4.468
 3907SOL    HW113495  13.654  13.933   4.504
 3907SOL    HW213496  13.634  13.788   4.544
 3908SOL     OW13497  14.002   4.504   7.494
 3908SOL    HW113498  14.089   4.467   7.511
 3908SOL    HW213499  13.963   4.515   7.580
 3909SOL     OW13500   7.917   9.579  10.232
 3909SOL    HW113501   7.943   9.661  10.189
 3909SOL    HW213502   7.850   9.542  10.174
 3910SOL     OW13503   8.678   9.576  10.749
 3910SOL    HW113504   8.606   9.522  10.715
 3910SOL    HW213505   8.635   9.636  10.810
 3911SOL     OW13506   1.598   9.863   9.913
 3911SOL    HW113507   1.686   9.866   9.875
 3911SOL    HW213508   1.575   9.955   9.927
 3912SOL     OW13509   4.364   8.502   2.405
 3912SOL    HW113510   4.433   8.439   2.386
 3912SOL    HW213511   4.392   8.544   2.487
 3913SOL     OW13512   2.230   0.731   8.128
 3913SOL    HW113513   2.236   0.737   8.032
 3913SOL    HW213514   2.277   0.650   8.149
 3914SOL     OW13515   4.268   6.290   9.469
 3914SOL    HW113516   4.263   6.199   9.497
 3914SOL    HW213517   4.200   6.300   9.403
 3915SOL     OW13518   8.102  14.152   9.002
 3915SOL    HW113519   8.020  14.173   9.047
 3915SOL    HW213520   8.170  14.188   9.059
 3916SOL     OW13521  10.715   4.683   8.505
 3916SOL    HW113522  10.778   4.750   8.530
 3916SOL    HW213523  10.659   4.671   8.583
 3917SOL     OW13524   9.691  12.110   2.829
 3917SOL    HW113525   9.780  12.143   2.819
 3917SOL    HW213526   9.644  12.144   2.753
 3918SOL     OW13527  10.896   6.346  14.133
 3918SOL    HW113528  10.924   6.357  14.042
 3918SOL    HW213529  10.885   6.435  14.166
 3919SOL     OW13530  12.946   1.688   1.229
 3919SOL    HW113531  12.909   1.692   1.141
 3919SOL    HW213532  12.927   1.600   1.259
 3920SOL     OW13533   0.568  10.127  10.008
 3920SOL    HW113534   0.585  10.208   9.960
 3920SOL    HW213535   0.540  10.064   9.941
 3921SOL     OW13536   4.812   3.332   7.394
 3921SOL    HW113537   4.846   3.298   7.311
 3921SOL    HW213538   4.764   3.412   7.369
 3922SOL     OW13539   9.785   3.412   9.057
 3922SOL    HW113540   9.778   3.485   9.118
 3922SOL    HW213541   9.754   3.446   8.973
 3923SOL     OW13542   5.848   5.681   4.020
 3923SOL    HW113543   5.825   5.774   4.027
 3923SOL    HW213544   5.842   5.662   3.926
 3924SOL     OW13545   3.185   0.533   6.678
 3924SOL    HW113546   3.268   0.579   6.670
 3924SOL    HW213547   3.179   0.511   6.771
 3925SOL     OW13548  13.773   4.477   5.131
 3925SOL    HW113549  13.834   4.408   5.107
 3925SOL    HW213550  13.699   4.432   5.172
 3926SOL     OW13551   2.171   4.059   3.576
 3926SOL    HW113552   2.153   3.965   3.585
 3926SOL    HW213553   2.118   4.100   3.644
 3927SOL     OW13554   3.236   9.907  11.515
 3927SOL    HW113555   3.274   9.932  11.431
 3927SOL    HW213556   3.214   9.815  11.505
 3928SOL     OW13557   8.602  12.460   8.532
 3928SOL    HW113558   8.665  12.435   8.464
 3928SOL    HW213559   8.518  12.431   8.499
 3929SOL     OW13560   3.872   3.518  11.916
 3929SOL    HW113561   3.863   3.423  11.920
 3929SOL    HW213562   3.782   3.551  11.915
 3930SOL     OW13563   7.898   5.449  11.983
 3930SOL    HW113564   7.913   5.532  12.028
 3930SOL    HW213565   7.806   5.429  12.000
 3931SOL     OW13566   5.890   9.129  13.688
 3931SOL    HW113567   5.835   9.071  13.741
 3931SOL    HW213568   5.834   9.155  13.615
 3932SOL     OW13569   9.329  12.924  10.104
 3932SOL    HW113570   9.262  12.984  10.072
 3932SOL    HW213571   9.299  12.837  10.077
 3933SOL     OW13572   4.489   7.168  10.935
 3933SOL    HW113573   4.573   7.193  10.975
 3933SOL    HW213574   4.503   7.178  10.841
 3934SOL     OW13575   8.047   3.622   7.044
 3934SOL    HW113576   8.046   3.572   7.125
 3934SOL    HW213577   8.054   3.556   6.975
 3935SOL     OW13578   9.829   9.769  14.862
 3935SOL    HW113579   9.781   9.819  14.797
 3935SOL    HW213580   9.911   9.817  14.874
 3936SOL     OW13581  12.494   1.573  13.939
 3936SOL    HW113582  12.516   1.492  13.893
 3936SOL    HW213583  12.401   1.585  13.924
 3937SOL     OW13584  11.278  11.960   3.155
 3937SOL    HW113585  11.331  11.934   3.231
 3937SOL    HW213586  11.293  12.054   3.147
 3938SOL     OW13587   5.177  14.303   5.323
 3938SOL    HW113588   5.256  14.261   5.356
 3938SOL    HW213589   5.207  14.385   5.283
 3939SOL     OW13590   1.814   0.752   6.838
 3939SOL    HW113591   1.733   0.795   6.814
 3939SOL    HW213592   1.866   0.819   6.881
 3940SOL     OW13593  14.114  12.767  12.292
 3940SOL    HW113594  14.206  12.765  12.266
 3940SOL    HW213595  14.067  12.731  12.217
 3941SOL     OW13596   7.407   1.679   7.651
 3941SOL    HW113597   7.431   1.593   7.686
 3941SOL    HW213598   7.462   1.741   7.700
 3942SOL     OW13599  14.102  11.218  11.112
 3942SOL    HW113600  14.134  11.251  11.029
 3942SOL    HW213601  14.007  11.231  11.108
 3943SOL     OW13602  13.548   2.054   6.815
 3943SOL    HW113603  13.569   2.002   6.737
 3943SOL    HW213604  13.509   2.134   6.781
 3944SOL     OW13605   3.581  10.592   2.238
 3944SOL    HW113606   3.610  10.670   2.285
 3944SOL    HW213607   3.486  10.604   2.230
 3945SOL     OW13608   7.249   9.257  13.586
 3945SOL    HW113609   7.228   9.172  13.625
 3945SOL    HW213610   7.340   9.248  13.558
 3946SOL     OW13611   0.300   4.839  10.405
 3946SOL    HW113612   0.348   4.765  10.368
 3946SOL    HW213613   0.340   4.916  10.365
 3947SOL     OW13614   4.137  14.457   5.467
 3947SOL    HW113615   4.206  14.445   5.533
 3947SOL    HW213616   4.175  14.517   5.403
 3948SOL     OW13617   4.380   7.655   6.677
 3948SOL    HW113618   4.354   7.589   6.612
 3948SOL    HW213619   4.376   7.608   6.760
 3949SOL     OW13620  14.094  13.586   7.950
 3949SOL    HW113621  14.037  13.529   8.002
 3949SOL    HW213622  14.172  13.596   8.004
 3950SOL     OW13623   1.680   2.689   9.415
 3950SOL    HW113624   1.771   2.664   9.428
 3950SOL    HW213625   1.663   2.752   9.485
 3951SOL     OW13626   0.604   8.080   9.342
 3951SOL    HW113627   0.546   8.090   9.266
 3951SOL    HW213628   0.656   8.002   9.323
 3952SOL     OW13629   1.049  14.101   7.897
 3952SOL    HW113630   0.997  14.037   7.848
 3952SOL    HW213631   1.085  14.051   7.970
 3953SOL     OW13632   8.874  14.527   0.264
 3953SOL    HW113633   8.926  14.487   0.333
 3953SOL    HW213634   8.800  14.568   0.310
 3954SOL     OW13635  14.035   8.712   8.163
 3954SOL    HW113636  14.084   8.751   8.235
 3954SOL    HW213637  13.990   8.786   8.122
 3955SOL     OW13638   6.685   5.446  12.908
 3955SOL    HW113639   6.664   5.432  13.000
 3955SOL    HW213640   6.623   5.513  12.879
 3956SOL     OW13641  13.759  13.366   5.948
 3956SOL    HW113642  13.739  13.352   5.856
 3956SOL    HW213643  13.729  13.456   5.965
 3957SOL     OW13644   6.196   4.700   6.374
 3957SOL    HW113645   6.254   4.752   6.430
 3957SOL    HW213646   6.112   4.701   6.420
 3958SOL     OW13647  12.948   4.199  10.509
 3958SOL    HW113648  12.997   4.274  10.542
 3958SOL    HW213649  12.864   4.203  10.554
 3959SOL     OW13650   1.577   7.873   4.461
 3959SOL    HW113651   1.517   7.816   4.413
 3959SOL    HW213652   1.522   7.917   4.526
 3960SOL     OW13653   2.640   9.475   4.028
 3960SOL    HW113654   2.648   9.563   3.992
 3960SOL    HW213655   2.690   9.420   3.967
 3961SOL     OW13656   5.540   8.769   0.339
 3961SOL    HW113657   5.563   8.710   0.411
 3961SOL    HW213658   5.622   8.813   0.317
 3962SOL     OW13659   9.808   1.465   8.357
 3962SOL    HW113660   9.763   1.399   8.305
 3962SOL    HW213661   9.828   1.421   8.440
 3963SOL     OW13662   5.092  14.195   6.533
 3963SOL    HW113663   5.016  14.169   6.585
 3963SOL    HW213664   5.074  14.285   6.507
 3964SOL     OW13665  12.843   0.517  13.343
 3964SOL    HW113666  12.832   0.453  13.413
 3964SOL    HW213667  12.871   0.465  13.268
 3965SOL     OW13668   8.927  14.671  12.023
 3965SOL    HW113669   8.837  14.642  12.039
 3965SOL    HW213670   8.920  14.735  11.953
 3966SOL     OW13671  12.024  13.429   6.106
 3966SOL    HW113672  11.944  13.450   6.058
 3966SOL    HW213673  12.092  13.482   6.064
 3967SOL     OW13674   2.225   3.202   2.098
 3967SOL    HW113675   2.199   3.113   2.120
 3967SOL    HW213676   2.143   3.247   2.077
 3968SOL     OW13677   5.553  11.170   8.624
 3968SOL    HW113678   5.596  11.247   8.587
 3968SOL    HW213679   5.586  11.097   8.573
 3969SOL     OW13680  11.976   2.511   4.762
 3969SOL    HW113681  12.064   2.546   4.752
 3969SOL    HW213682  11.949   2.488   4.673
 3970SOL     OW13683  10.213   9.681  10.714
 3970SOL    HW113684  10.118   9.690  10.710
 3970SOL    HW213685  10.247   9.751  10.659
 3971SOL     OW13686  12.805   7.603   3.197
 3971SOL    HW113687  12.762   7.530   3.240
 3971SOL    HW213688  12.802   7.581   3.104
 3972SOL     OW13689   6.452   7.970   1.138
 3972SOL    HW113690   6.417   7.892   1.182
 3972SOL    HW213691   6.381   8.001   1.083
 3973SOL     OW13692   5.969  13.586   5.233
 3973SOL    HW113693   5.992  13.594   5.141
 3973SOL    HW213694   5.977  13.675   5.268
 3974SOL     OW13695   2.442   7.140  11.794
 3974SOL    HW113696   2.505   7.176  11.856
 3974SOL    HW213697   2.419   7.054  11.831
 3975SOL     OW13698   7.403   7.027  11.391
 3975SOL    HW113699   7.414   7.008  11.298
 3975SOL    HW213700   7.466   7.097  11.409
 3976SOL     OW13701  10.263   3.089   7.852
 3976SOL    HW113702  10.201   3.080   7.924
 3976SOL    HW213703  10.235   3.023   7.788
 3977SOL     OW13704   2.513  14.354   3.887
 3977SOL    HW113705   2.592  14.404   3.906
 3977SOL    HW213706   2.463  14.356   3.968
 3978SOL     OW13707   9.806   3.310  14.313
 3978SOL    HW113708   9.838   3.242  14.373
 3978SOL    HW213709   9.748   3.364  14.366
 3979SOL     OW13710   2.514   4.444   9.360
 3979SOL    HW113711   2.468   4.516   9.403
 3979SOL    HW213712   2.471   4.365   9.393
 3980SOL     OW13713   0.334   9.411   2.472
 3980SOL    HW113714   0.267   9.344   2.457
 3980SOL    HW213715   0.318   9.477   2.404
 3981SOL     OW13716   9.427   4.941   9.849
 3981SOL    HW113717   9.444   5.028   9.813
 3981SOL    HW213718   9.343   4.950   9.895
 3982SOL     OW13719   5.025  10.194  14.259
 3982SOL    HW113720   4.987  10.219  14.343
 3982SOL    HW213721   5.003  10.267  14.200
 3983SOL     OW13722   3.127   8.843  13.122
 3983SOL    HW113723   3.187   8.824  13.049
 3983SOL    HW213724   3.172   8.909  13.173
 3984SOL     OW13725   6.356  11.818  13.631
 3984SOL    HW113726   6.282  11.797  13.689
 3984SOL    HW213727   6.348  11.913  13.616
 3985SOL     OW13728   5.276   7.445   1.580
 3985SOL    HW113729   5.193   7.397   1.577
 3985SOL    HW213730   5.303   7.438   1.672
 3986SOL     OW13731   5.362  12.909  12.125
 3986SOL    HW113732   5.381  12.862  12.044
 3986SOL    HW213733   5.369  12.842  12.194
 3987SOL     OW13734  13.771   0.031   5.528
 3987SOL    HW113735  13.779   0.123   5.555
 3987SOL    HW213736  13.836  14.866   5.580
 3988SOL     OW13737  12.612  11.903   3.983
 3988SOL    HW113738  12.572  11.867   4.062
 3988SOL    HW213739  12.684  11.843   3.962
 3989SOL     OW13740  14.382  13.691   9.943
 3989SOL    HW113741  14.455  13.652   9.991
 3989SOL    HW213742  14.340  13.750  10.005
 3990SOL     OW13743   7.946   3.558   2.395
 3990SOL    HW113744   7.958   3.488   2.331
 3990SOL    HW213745   8.004   3.628   2.364
 3991SOL     OW13746   6.956  11.907   7.019
 3991SOL    HW113747   6.919  11.842   6.959
 3991SOL    HW213748   6.981  11.857   7.096
 3992SOL     OW13749  11.548   6.237  10.651
 3992SOL    HW113750  11.538   6.175  10.578
 3992SOL    HW213751  11.566   6.182  10.727
 3993SOL     OW13752  13.252   0.444   9.209
 3993SOL    HW113753  13.226   0.481   9.294
 3993SOL    HW213754  13.317   0.506   9.176
 3994SOL     OW13755   5.313  11.980  10.963
 3994SOL    HW113756   5.277  12.067  10.977
 3994SOL    HW213757   5.404  11.995  10.938
 3995SOL     OW13758  10.729   7.413   1.211
 3995SOL    HW113759  10.779   7.422   1.129
 3995SOL    HW213760  10.776   7.344   1.259
 3996SOL     OW13761  13.015  14.307   8.303
 3996SOL    HW113762  12.946  14.295   8.367
 3996SOL    HW213763  12.977  14.274   8.221
 3997SOL     OW13764   9.935  14.406   2.186
 3997SOL    HW113765   9.935  14.405   2.281
 3997SOL    HW213766   9.995  14.335   2.162
 3998SOL     OW13767  10.397  10.663   3.178
 3998SOL    HW113768  10.373  10.751   3.149
 3998SOL    HW213769  10.441  10.677   3.262
 3999SOL     OW13770   9.818   0.504   2.987
 3999SOL    HW113771   9.739   0.455   2.962
 3999SOL    HW213772   9.798   0.595   2.965
 4000SOL     OW13773   6.920   4.178  13.593
 4000SOL    HW113774   6.999   4.210  13.549
 4000SOL    HW213775   6.855   4.246  13.578
 4001SOL     OW13776   8.422  12.577   5.818
 4001SOL    HW113777   8.416  12.501   5.761
 4001SOL    HW213778   8.514  12.579   5.846
 4002SOL     OW13779  11.672   3.087   1.077
 4002SOL    HW113780  11.635   3.019   1.020
 4002SOL    HW213781  11.755   3.050   1.108
 4003SOL     OW13782   2.807  14.777   4.452
 4003SOL    HW113783   2.827  14.686   4.475
 4003SOL    HW213784   2.764  14.771   4.367
 4004SOL     OW13785  14.227   8.038   9.154
 4004SOL    HW113786  14.152   7.982   9.175
 4004SOL    HW213787  14.260   8.004   9.071
 4005SOL     OW13788   3.073   8.087   8.162
 4005SOL    HW113789   3.074   8.055   8.071
 4005SOL    HW213790   2.980   8.096   8.183
 4006SOL     OW13791  10.173   8.790   4.238
 4006SOL    HW113792  10.243   8.742   4.282
 4006SOL    HW213793  10.123   8.723   4.191
 4007SOL     OW13794   2.426  13.529   6.121
 4007SOL    HW113795   2.515  13.538   6.087
 4007SOL    HW213796   2.379  13.605   6.085
 4008SOL     OW13797  10.550   0.625   4.600
 4008SOL    HW113798  10.551   0.717   4.575
 4008SOL    HW213799  10.521   0.625   4.691
 4009SOL     OW13800   7.173  12.060  10.617
 4009SOL    HW113801   7.174  12.022  10.530
 4009SOL    HW213802   7.241  12.127  10.615
 4010SOL     OW13803   9.825   5.363  13.234
 4010SOL    HW113804   9.779   5.293  13.188
 4010SOL    HW213805   9.759   5.430  13.248
 4011SOL     OW13806   9.941   5.055  11.213
 4011SOL    HW113807   9.877   5.005  11.164
 4011SOL    HW213808   9.894   5.085  11.291
 4012SOL     OW13809   7.310  13.981   8.080
 4012SOL    HW113810   7.305  13.897   8.125
 4012SOL    HW213811   7.228  14.025   8.102
 4013SOL     OW13812  13.951   0.910   3.151
 4013SOL    HW113813  13.904   0.974   3.098
 4013SOL    HW213814  13.995   0.854   3.087
 4014SOL     OW13815   9.716   6.166   8.534
 4014SOL    HW113816   9.702   6.250   8.490
 4014SOL    HW213817   9.647   6.163   8.601
 4015SOL     OW13818  12.794  13.460   5.931
 4015SOL    HW113819  12.826  13.477   6.020
 4015SOL    HW213820  12.780  13.366   5.928
 4016SOL     OW13821   7.948   8.371   8.907
 4016SOL    HW113822   7.974   8.317   8.832
 4016SOL    HW213823   7.926   8.456   8.868
 4017SOL     OW13824   5.824  13.036   3.626
 4017SOL    HW113825   5.915  13.037   3.656
 4017SOL    HW213826   5.774  13.010   3.703
 4018SOL     OW13827   6.518   5.355   1.902
 4018SOL    HW113828   6.508   5.450   1.912
 4018SOL    HW213829   6.499   5.339   1.809
 4019SOL     OW13830   4.799   0.826   5.303
 4019SOL    HW113831   4.863   0.871   5.248
 4019SOL    HW213832   4.813   0.733   5.285
 4020SOL     OW13833   4.906   1.533   4.299
 4020SOL    HW113834   4.964   1.582   4.240
 4020SOL    HW213835   4.948   1.539   4.384
 4021SOL     OW13836  13.454   2.306   1.932
 4021SOL    HW113837  13.373   2.356   1.917
 4021SOL    HW213838  13.511   2.366   1.978
 4022SOL     OW13839  12.091   0.394   5.897
 4022SOL    HW113840  12.063   0.420   5.809
 4022SOL    HW213841  12.110   0.300   5.890
 4023SOL     OW13842   2.998   6.908  14.181
 4023SOL    HW113843   2.907   6.927  14.157
 4023SOL    HW213844   3.010   6.816  14.158
 4024SOL     OW13845  11.724   3.050   0.731
 4024SOL    HW113846  11.665   2.981   0.762
 4024SOL    HW213847  11.693   3.069   0.642
 4025SOL     OW13848   1.802   7.748   1.326
 4025SOL    HW113849   1.731   7.740   1.390
 4025SOL    HW213850   1.859   7.673   1.345
 4026SOL     OW13851   8.212   8.660  12.975
 4026SOL    HW113852   8.167   8.579  12.999
 4026SOL    HW213853   8.260   8.638  12.895
 4027SOL     OW13854   4.481  12.284   1.556
 4027SOL    HW113855   4.541  12.300   1.629
 4027SOL    HW213856   4.537  12.284   1.478
 4028SOL     OW13857  12.383   3.839   9.867
 4028SOL    HW113858  12.477   3.847   9.850
 4028SOL    HW213859  12.352   3.930   9.869
 4029SOL     OW13860  13.817  11.442   5.001
 4029SOL    HW113861  13.877  11.507   4.963
 4029SOL    HW213862  13.823  11.458   5.096
 4030SOL     OW13863   2.296   2.074   5.238
 4030SOL    HW113864   2.375   2.072   5.293
 4030SOL    HW213865   2.323   2.033   5.156
 4031SOL     OW13866   3.834  10.208  11.360
 4031SOL    HW113867   3.746  10.183  11.333
 4031SOL    HW213868   3.891  10.139  11.326
 4032SOL     OW13869   0.919   2.923   6.106
 4032SOL    HW113870   0.875   2.854   6.056
 4032SOL    HW213871   1.010   2.894   6.112
 4033SOL     OW13872   0.394   1.163   6.160
 4033SOL    HW113873   0.445   1.237   6.127
 4033SOL    HW213874   0.334   1.142   6.088
 4034SOL     OW13875   9.175  12.999   2.171
 4034SOL    HW113876   9.249  12.988   2.110
 4034SOL    HW213877   9.097  12.985   2.117
 4035SOL     OW13878   1.707   5.725   5.627
 4035SOL    HW113879   1.670   5.722   5.716
 4035SOL    HW213880   1.797   5.753   5.640
 4036SOL     OW13881   3.958   2.632   9.209
 4036SOL    HW113882   3.887   2.684   9.246
 4036SOL    HW213883   4.029   2.639   9.272
 4037SOL     OW13884  12.533  14.141  13.510
 4037SOL    HW113885  12.546  14.201  13.437
 4037SOL    HW213886  12.497  14.196  13.580
 4038SOL     OW13887   3.986   9.617   0.575
 4038SOL    HW113888   4.074   9.607   0.539
 4038SOL    HW213889   4.001   9.637   0.668
 4039SOL     OW13890   6.465  14.693   2.399
 4039SOL    HW113891   6.440  14.707   2.490
 4039SOL    HW213892   6.387  14.656   2.357
 4040SOL     OW13893   6.575   8.160   6.487
 4040SOL    HW113894   6.617   8.207   6.416
 4040SOL    HW213895   6.530   8.228   6.537
 4041SOL     OW13896   6.008   1.921   6.971
 4041SOL    HW113897   5.982   2.001   6.926
 4041SOL    HW213898   6.086   1.946   7.021
 4042SOL     OW13899   4.113  10.623   3.507
 4042SOL    HW113900   4.168  10.683   3.457
 4042SOL    HW213901   4.032  10.617   3.456
 4043SOL     OW13902  13.606   9.936   9.618
 4043SOL    HW113903  13.603   9.850   9.576
 4043SOL    HW213904  13.697   9.965   9.605
 4044SOL     OW13905   0.580  13.996   7.350
 4044SOL    HW113906   0.558  13.967   7.438
 4044SOL    HW213907   0.620  13.920   7.308
 4045SOL     OW13908   8.715   8.070   1.829
 4045SOL    HW113909   8.727   7.981   1.797
 4045SOL    HW213910   8.771   8.124   1.773
 4046SOL     OW13911   7.446   2.285  14.794
 4046SOL    HW113912   7.440   2.192  14.813
 4046SOL    HW213913   7.448   2.327  14.880
 4047SOL     OW13914   6.696   4.876   9.691
 4047SOL    HW113915   6.738   4.962   9.699
 4047SOL    HW213916   6.698   4.840   9.780
 4048SOL     OW13917   2.716   4.292   8.042
 4048SOL    HW113918   2.771   4.279   7.965
 4048SOL    HW213919   2.764   4.248   8.113
 4049SOL     OW13920  12.739   9.711  11.034
 4049SOL    HW113921  12.787   9.790  11.008
 4049SOL    HW213922  12.648   9.738  11.035
 4050SOL     OW13923  11.763   5.234   9.408
 4050SOL    HW113924  11.834   5.190   9.361
 4050SOL    HW213925  11.777   5.210   9.499
 4051SOL     OW13926  10.653   4.543   9.344
 4051SOL    HW113927  10.659   4.519   9.436
 4051SOL    HW213928  10.720   4.611   9.332
 4052SOL     OW13929   0.297  13.127   9.234
 4052SOL    HW113930   0.279  13.086   9.150
 4052SOL    HW213931   0.343  13.207   9.213
 4053SOL     OW13932   0.080  14.114  12.146
 4053SOL    HW113933   0.042  14.126  12.059
 4053SOL    HW213934   0.030  14.173  12.203
 4054SOL     OW13935   4.930   2.467  14.760
 4054SOL    HW113936   4.939   2.382  14.804
 4054SOL    HW213937   4.984   2.527  14.812
 4055SOL     OW13938   1.591   2.156  10.103
 4055SOL    HW113939   1.529   2.212  10.057
 4055SOL    HW213940   1.560   2.154  10.194
 4056SOL     OW13941  10.605  12.141   1.264
 4056SOL    HW113942  10.657  12.107   1.337
 4056SOL    HW213943  10.551  12.211   1.303
 4057SOL     OW13944   4.949   8.730   4.462
 4057SOL    HW113945   4.938   8.768   4.549
 4057SOL    HW213946   4.880   8.664   4.456
 4058SOL     OW13947   4.654  10.633   3.685
 4058SOL    HW113948   4.632  10.725   3.688
 4058SOL    HW213949   4.730  10.628   3.627
 4059SOL     OW13950   9.146   9.110   5.941
 4059SOL    HW113951   9.201   9.165   5.996
 4059SOL    HW213952   9.057   9.134   5.965
 4060SOL     OW13953  14.743   9.856   8.338
 4060SOL    HW113954  14.839   9.860   8.337
 4060SOL    HW213955  14.720   9.816   8.254
 4061SOL     OW13956   5.796  12.670   5.974
 4061SOL    HW113957   5.872  12.697   5.923
 4061SOL    HW213958   5.793  12.575   5.963
 4062SOL     OW13959   2.074   6.647   1.201
 4062SOL    HW113960   2.110   6.648   1.290
 4062SOL    HW213961   2.112   6.570   1.160
 4063SOL     OW13962   5.647   7.822  12.860
 4063SOL    HW113963   5.737   7.824  12.826
 4063SOL    HW213964   5.599   7.884  12.805
 4064SOL     OW13965  12.827   5.913  11.614
 4064SOL    HW113966  12.923   5.915  11.613
 4064SOL    HW213967  12.802   5.909  11.522
 4065SOL     OW13968   6.251   9.175  13.109
 4065SOL    HW113969   6.325   9.236  13.111
 4065SOL    HW213970   6.220   9.172  13.199
 4066SOL     OW13971   5.566   4.760  12.488
 4066SOL    HW113972   5.496   4.787  12.548
 4066SOL    HW213973   5.555   4.665  12.479
 4067SOL     OW13974   7.150  13.455   3.290
 4067SOL    HW113975   7.175  13.405   3.212
 4067SOL    HW213976   7.233  13.487   3.326
 4068SOL     OW13977   6.315   0.890   0.838
 4068SOL    HW113978   6.346   0.811   0.793
 4068SOL    HW213979   6.224   0.871   0.861
 4069SOL     OW13980   3.201  10.002   5.979
 4069SOL    HW113981   3.106  10.009   5.989
 4069SOL    HW213982   3.215   9.996   5.885
 4070SOL     OW13983   9.925   0.716  13.627
 4070SOL    HW113984   9.942   0.710  13.721
 4070SOL    HW213985   9.943   0.628  13.594
 4071SOL     OW13986   5.237  14.712   0.808
 4071SOL    HW113987   5.311  14.664   0.772
 4071SOL    HW213988   5.221  14.783   0.745
 4072SOL     OW13989   1.712   2.404   1.062
 4072SOL    HW113990   1.675   2.352   0.990
 4072SOL    HW213991   1.714   2.344   1.136
 4073SOL     OW13992   3.829   2.735   5.452
 4073SOL    HW113993   3.875   2.697   5.527
 4073SOL    HW213994   3.891   2.798   5.415
 4074SOL     OW13995  10.980  13.567   4.491
 4074SOL    HW113996  11.031  13.622   4.549
 4074SOL    HW213997  10.933  13.507   4.549
 4075SOL     OW13998   9.925   0.764   1.338
 4075SOL    HW113999   9.948   0.844   1.385
 4075SOL    HW214000   9.837   0.781   1.303
 4076SOL     OW14001  14.239   2.537  12.188
 4076SOL    HW114002  14.270   2.452  12.219
 4076SOL    HW214003  14.303   2.564  12.123
 4077SOL     OW14004   8.153   7.610   5.482
 4077SOL    HW114005   8.079   7.638   5.535
 4077SOL    HW214006   8.118   7.601   5.394
 4078SOL     OW14007   3.131   4.180  13.528
 4078SOL    HW114008   3.208   4.234  13.509
 4078SOL    HW214009   3.144   4.151  13.618
 4079SOL     OW14010   9.756   9.271   0.963
 4079SOL    HW114011   9.795   9.184   0.958
 4079SOL    HW214012   9.829   9.328   0.988
 4080SOL     OW14013   1.370   2.334   1.117
 4080SOL    HW114014   1.337   2.393   1.049
 4080SOL    HW214015   1.466   2.341   1.111
 4081SOL     OW14016   8.657   0.547   4.761
 4081SOL    HW114017   8.579   0.555   4.706
 4081SOL    HW214018   8.668   0.634   4.800
 4082SOL     OW14019   2.342  14.519   9.447
 4082SOL    HW114020   2.329  14.542   9.355
 4082SOL    HW214021   2.263  14.472   9.472
 4083SOL     OW14022   2.847   4.890   6.052
 4083SOL    HW114023   2.821   4.808   6.010
 4083SOL    HW214024   2.772   4.949   6.039
 4084SOL     OW14025  10.109   4.267   7.763
 4084SOL    HW114026  10.041   4.317   7.809
 4084SOL    HW214027  10.085   4.273   7.671
 4085SOL     OW14028  11.984   5.057  10.792
 4085SOL    HW114029  12.055   5.116  10.768
 4085SOL    HW214030  11.959   5.084  10.880
 4086SOL     OW14031  10.190   4.732   7.422
 4086SOL    HW114032  10.278   4.765   7.403
 4086SOL    HW214033  10.191   4.711   7.515
 4087SOL     OW14034   5.196  10.357   8.453
 4087SOL    HW114035   5.155  10.280   8.492
 4087SOL    HW214036   5.137  10.382   8.382
 4088SOL     OW14037  12.895  11.233   1.551
 4088SOL    HW114038  12.883  11.306   1.612
 4088SOL    HW214039  12.874  11.155   1.602
 4089SOL     OW14040   0.413  12.735   5.995
 4089SOL    HW114041   0.459  12.817   6.010
 4089SOL    HW214042   0.480  12.667   6.007
 4090SOL     OW14043  10.207   2.560   5.161
 4090SOL    HW114044  10.231   2.479   5.117
 4090SOL    HW214045  10.148   2.604   5.100
 4091SOL     OW14046  12.732   1.180   8.141
 4091SOL    HW114047  12.721   1.236   8.064
 4091SOL    HW214048  12.690   1.229   8.212
 4092SOL     OW14049   3.100   6.917  10.737
 4092SOL    HW114050   3.077   6.866  10.814
 4092SOL    HW214051   3.114   6.853  10.668
 4093SOL     OW14052  10.993   6.067   0.570
 4093SOL    HW114053  11.020   6.131   0.503
 4093SOL    HW214054  11.074   6.021   0.592
 4094SOL     OW14055   7.397  10.656   5.114
 4094SOL    HW114056   7.398  10.732   5.057
 4094SOL    HW214057   7.363  10.689   5.198
 4095SOL     OW14058   9.447   7.023   6.389
 4095SOL    HW114059   9.365   6.973   6.387
 4095SOL    HW214060   9.514   6.961   6.359
 4096SOL     OW14061   7.287   3.177   5.161
 4096SOL    HW114062   7.194   3.194   5.145
 4096SOL    HW214063   7.299   3.084   5.139
 4097SOL     OW14064   9.354   7.598   5.660
 4097SOL    HW114065   9.401   7.647   5.728
 4097SOL    HW214066   9.379   7.507   5.676
 4098SOL     OW14067   6.642  11.583   3.089
 4098SOL    HW114068   6.633  11.489   3.106
 4098SOL    HW214069   6.733  11.603   3.113
 4099SOL     OW14070  11.083   3.013  14.861
 4099SOL    HW114071  11.125   2.961  14.793
 4099SOL    HW214072  11.022   2.952   0.022
 4100SOL     OW14073   4.059  14.017  12.339
 4100SOL    HW114074   4.079  14.084  12.404
 4100SOL    HW214075   4.054  13.936  12.388
 4101SOL     OW14076   9.348   7.648   5.391
 4101SOL    HW114077   9.376   7.650   5.483
 4101SOL    HW214078   9.414   7.700   5.345
 4102SOL     OW14079   7.788   2.129   7.562
 4102SOL    HW114080   7.809   2.070   7.490
 4102SOL    HW214081   7.806   2.217   7.527
 4103SOL     OW14082   8.209  11.367  14.439
 4103SOL    HW114083   8.259  11.352  14.520
 4103SOL    HW214084   8.126  11.321  14.455
 4104SOL     OW14085  11.442   6.648  10.006
 4104SOL    HW114086  11.422   6.555   9.994
 4104SOL    HW214087  11.412   6.667  10.095
 4105SOL     OW14088   5.352  11.861   9.047
 4105SOL    HW114089   5.342  11.935   8.987
 4105SOL    HW214090   5.262  11.837   9.070
 4106SOL     OW14091   2.693   3.249   3.671
 4106SOL    HW114092   2.644   3.248   3.588
 4106SOL    HW214093   2.627   3.241   3.739
 4107SOL     OW14094  11.257   2.077   0.692
 4107SOL    HW114095  11.328   2.122   0.647
 4107SOL    HW214096  11.202   2.147   0.727
 4108SOL     OW14097   6.714   9.527  11.713
 4108SOL    HW114098   6.694   9.433  11.705
 4108SOL    HW214099   6.719   9.542  11.807
 4109SOL     OW14100  14.498   7.066   9.104
 4109SOL    HW114101  14.450   7.104   9.030
 4109SOL    HW214102  14.522   6.978   9.075
 4110SOL     OW14103  12.870   0.813   1.059
 4110SOL    HW114104  12.796   0.764   1.023
 4110SOL    HW214105  12.947   0.766   1.028
 4111SOL     OW14106   4.015   6.300  12.314
 4111SOL    HW114107   4.109   6.317  12.305
 4111SOL    HW214108   3.976   6.339  12.235
 4112SOL     OW14109  13.714  12.853   5.157
 4112SOL    HW114110  13.721  12.917   5.085
 4112SOL    HW214111  13.652  12.893   5.218
 4113SOL     OW14112   2.853   8.201  13.128
 4113SOL    HW114113   2.826   8.224  13.039
 4113SOL    HW214114   2.833   8.108  13.135
 4114SOL     OW14115   2.796   4.780   2.813
 4114SOL    HW114116   2.781   4.735   2.896
 4114SOL    HW214117   2.820   4.869   2.838
 4115SOL     OW14118   1.514   0.732  11.710
 4115SOL    HW114119   1.591   0.766  11.755
 4115SOL    HW214120   1.441   0.781  11.748
 4116SOL     OW14121   9.696  12.110  10.652
 4116SOL    HW114122   9.729  12.163  10.580
 4116SOL    HW214123   9.771  12.103  10.712
 4117SOL     OW14124   5.942   9.876   1.263
 4117SOL    HW114125   5.978   9.808   1.207
 4117SOL    HW214126   5.847   9.871   1.250
 4118SOL     OW14127  10.147   1.927   3.703
 4118SOL    HW114128  10.175   1.837   3.721
 4118SOL    HW214129  10.080   1.945   3.769
 4119SOL     OW14130  11.160   7.391   8.704
 4119SOL    HW114131  11.175   7.298   8.689
 4119SOL    HW214132  11.213   7.412   8.782
 4120SOL     OW14133  13.672   9.936   7.381
 4120SOL    HW114134  13.597   9.919   7.438
 4120SOL    HW214135  13.690  10.030   7.393
 4121SOL     OW14136  12.367   5.075   1.698
 4121SOL    HW114137  12.372   5.141   1.767
 4121SOL    HW214138  12.417   5.001   1.731
 4122SOL     OW14139   9.573  11.033  12.207
 4122SOL    HW114140   9.537  11.119  12.186
 4122SOL    HW214141   9.621  11.047  12.289
 4123SOL     OW14142  12.124   4.801  13.364
 4123SOL    HW114143  12.031   4.816  13.354
 4123SOL    HW214144  12.130   4.736  13.434
 4124SOL     OW14145   2.153   6.492   2.675
 4124SOL    HW114146   2.058   6.504   2.662
 4124SOL    HW214147   2.166   6.499   2.769
 4125SOL     OW14148   4.206   9.571   7.123
 4125SOL    HW114149   4.201   9.484   7.163
 4125SOL    HW214150   4.272   9.617   7.175
 4126SOL     OW14151   5.236   1.040   8.603
 4126SOL    HW114152   5.316   0.988   8.607
 4126SOL    HW214153   5.189   1.006   8.528
 4127SOL     OW14154   5.096   5.632   6.794
 4127SOL    HW114155   5.029   5.686   6.835
 4127SOL    HW214156   5.137   5.585   6.867
 4128SOL     OW14157   8.648  11.780   1.874
 4128SOL    HW114158   8.595  11.738   1.806
 4128SOL    HW214159   8.675  11.708   1.931
 4129SOL     OW14160   7.180   1.709  13.681
 4129SOL    HW114161   7.108   1.648  13.667
 4129SOL    HW214162   7.138   1.794  13.697
 4130SOL     OW14163  12.756  13.505   2.247
 4130SOL    HW114164  12.807  13.437   2.202
 4130SOL    HW214165  12.677  13.460   2.277
 4131SOL     OW14166  10.570   8.585  10.912
 4131SOL    HW114167  10.585   8.492  10.926
 4131SOL    HW214168  10.524   8.613  10.991
 4132SOL     OW14169   3.575   3.030   0.493
 4132SOL    HW114170   3.513   2.963   0.521
 4132SOL    HW214171   3.533   3.113   0.515
 4133SOL     OW14172  10.957   1.958   7.685
 4133SOL    HW114173  10.883   1.908   7.652
 4133SOL    HW214174  10.942   2.048   7.655
 4134SOL     OW14175   3.643   4.109   4.773
 4134SOL    HW114176   3.636   4.058   4.693
 4134SOL    HW214177   3.558   4.097   4.817
 4135SOL     OW14178   7.601   0.951   0.137
 4135SOL    HW114179   7.512   0.917   0.147
 4135SOL    HW214180   7.643   0.935   0.222
 4136SOL     OW14181   2.776   3.966   0.388
 4136SOL    HW114182   2.772   4.060   0.375
 4136SOL    HW214183   2.688   3.935   0.365
 4137SOL     OW14184  13.870   6.406   7.535
 4137SOL    HW114185  13.825   6.424   7.453
 4137SOL    HW214186  13.819   6.336   7.576
 4138SOL     OW14187  14.679   8.276   5.144
 4138SOL    HW114188  14.663   8.200   5.088
 4138SOL    HW214189  14.773   8.271   5.164
 4139SOL     OW14190  11.182  13.294  12.274
 4139SOL    HW114191  11.105  13.300  12.216
 4139SOL    HW214192  11.243  13.359  12.240
 4140SOL     OW14193   9.129  13.807  10.034
 4140SOL    HW114194   9.087  13.754   9.967
 4140SOL    HW214195   9.197  13.750  10.070
 4141SOL     OW14196   5.335   3.686   1.826
 4141SOL    HW114197   5.374   3.643   1.902
 4141SOL    HW214198   5.379   3.771   1.822
 4142SOL     OW14199  14.305  14.253   4.099
 4142SOL    HW114200  14.267  14.330   4.142
 4142SOL    HW214201  14.399  14.262   4.115
 4143SOL     OW14202   6.129  12.363  10.040
 4143SOL    HW114203   6.124  12.411  10.123
 4143SOL    HW214204   6.220  12.332  10.037
 4144SOL     OW14205   9.488  13.394   6.609
 4144SOL    HW114206   9.570  13.439   6.588
 4144SOL    HW214207   9.486  13.319   6.549
 4145SOL     OW14208   4.458   5.037   1.629
 4145SOL    HW114209   4.399   5.111   1.643
 4145SOL    HW214210   4.400   4.960   1.630
 4146SOL     OW14211   5.575  10.152  11.421
 4146SOL    HW114212   5.531  10.082  11.469
 4146SOL    HW214213   5.523  10.230  11.439
 4147SOL     OW14214  12.465   9.201   8.305
 4147SOL    HW114215  12.465   9.279   8.361
 4147SOL    HW214216  12.402   9.142   8.347
 4148SOL     OW14217   1.331   1.944   3.505
 4148SOL    HW114218   1.348   2.001   3.580
 4148SOL    HW214219   1.369   1.991   3.431
 4149SOL     OW14220   2.496   1.109   9.919
 4149SOL    HW114221   2.484   1.153   9.834
 4149SOL    HW214222   2.434   1.036   9.917
 4150SOL     OW14223   1.839   1.937  11.111
 4150SOL    HW114224   1.805   1.848  11.101
 4150SOL    HW214225   1.777   1.991  11.063
 4151SOL     OW14226   5.669   3.945   1.563
 4151SOL    HW114227   5.637   3.857   1.583
 4151SOL    HW214228   5.674   3.947   1.467
 4152SOL     OW14229  14.666   8.525   6.588
 4152SOL    HW114230  14.679   8.527   6.683
 4152SOL    HW214231  14.633   8.613   6.567
 4153SOL     OW14232   1.476   8.202   5.963
 4153SOL    HW114233   1.442   8.136   5.902
 4153SOL    HW214234   1.570   8.183   5.968
 4154SOL     OW14235   0.407   6.283   6.384
 4154SOL    HW114236   0.459   6.234   6.321
 4154SOL    HW214237   0.396   6.370   6.344
 4155SOL     OW14238   7.021   5.731   5.340
 4155SOL    HW114239   6.956   5.796   5.367
 4155SOL    HW214240   6.988   5.696   5.257
 4156SOL     OW14241  13.960   2.960   0.141
 4156SOL    HW114242  13.952   2.953   0.236
 4156SOL    HW214243  13.931   3.049   0.121
 4157SOL     OW14244   8.408   5.348   5.544
 4157SOL    HW114245   8.365   5.379   5.464
 4157SOL    HW214246   8.344   5.288   5.583
 4158SOL     OW14247   5.153   2.146   2.398
 4158SOL    HW114248   5.096   2.146   2.322
 4158SOL    HW214249   5.192   2.058   2.399
 4159SOL     OW14250   0.759   7.251  10.127
 4159SOL    HW114251   0.848   7.218  10.114
 4159SOL    HW214252   0.744   7.310  10.053
 4160SOL     OW14253   7.700   8.458  10.115
 4160SOL    HW114254   7.715   8.505  10.197
 4160SOL    HW214255   7.611   8.482  10.089
 4161SOL     OW14256  11.421   4.241   9.577
 4161SOL    HW114257  11.418   4.219   9.670
 4161SOL    HW214258  11.343   4.295   9.563
 4162SOL     OW14259  10.002  10.436   3.178
 4162SOL    HW114260  10.059  10.389   3.238
 4162SOL    HW214261   9.921  10.385   3.177
 4163SOL     OW14262   0.687  10.529  12.473
 4163SOL    HW114263   0.770  10.531  12.521
 4163SOL    HW214264   0.712  10.500  12.385
 4164SOL     OW14265   9.977   1.401   9.061
 4164SOL    HW114266  10.068   1.422   9.081
 4164SOL    HW214267   9.956   1.328   9.119
 4165SOL     OW14268   1.252   3.219   2.965
 4165SOL    HW114269   1.275   3.309   2.989
 4165SOL    HW214270   1.197   3.228   2.887
 4166SOL     OW14271  12.142  12.942   3.462
 4166SOL    HW114272  12.231  12.958   3.496
 4166SOL    HW214273  12.102  13.029   3.459
 4167SOL     OW14274   3.681   4.800   2.844
 4167SOL    HW114275   3.591   4.767   2.842
 4167SOL    HW214276   3.731   4.730   2.886
 4168SOL     OW14277   0.414   5.977  10.121
 4168SOL    HW114278   0.321   5.999  10.119
 4168SOL    HW214279   0.453   6.044  10.178
 4169SOL     OW14280   1.024  10.649   5.144
 4169SOL    HW114281   1.054  10.725   5.193
 4169SOL    HW214282   0.969  10.601   5.205
 4170SOL     OW14283   4.856  14.545  11.854
 4170SOL    HW114284   4.865  14.640  11.865
 4170SOL    HW214285   4.806  14.517  11.930
 4171SOL     OW14286   2.789   4.458   1.813
 4171SOL    HW114287   2.811   4.374   1.854
 4171SOL    HW214288   2.845   4.461   1.735
 4172SOL     OW14289   1.609   6.294   2.455
 4172SOL    HW114290   1.701   6.291   2.427
 4172SOL    HW214291   1.599   6.216   2.510
 4173SOL     OW14292   5.060   4.104   2.216
 4173SOL    HW114293   5.089   4.124   2.305
 4173SOL    HW214294   5.116   4.159   2.160
 4174SOL     OW14295   6.617   4.442   0.959
 4174SOL    HW114296   6.679   4.464   0.889
 4174SOL    HW214297   6.671   4.414   1.032
 4175SOL     OW14298   0.628  10.911  11.453
 4175SOL    HW114299   0.668  10.872  11.375
 4175SOL    HW214300   0.639  11.006  11.439
 4176SOL     OW14301   7.943   1.133   2.159
 4176SOL    HW114302   7.853   1.162   2.144
 4176SOL    HW214303   7.934   1.044   2.193
 4177SOL     OW14304   6.030   7.497   5.977
 4177SOL    HW114305   5.979   7.536   6.048
 4177SOL    HW214306   6.111   7.547   5.975
 4178SOL     OW14307   9.302   9.970   2.661
 4178SOL    HW114308   9.348   9.906   2.716
 4178SOL    HW214309   9.371  10.007   2.605
 4179SOL     OW14310   3.232   6.128   7.878
 4179SOL    HW114311   3.286   6.065   7.927
 4179SOL    HW214312   3.172   6.164   7.943
 4180SOL     OW14313   5.220  11.747   7.490
 4180SOL    HW114314   5.158  11.693   7.441
 4180SOL    HW214315   5.214  11.714   7.580
 4181SOL     OW14316   1.150  10.189  12.867
 4181SOL    HW114317   1.188  10.174  12.780
 4181SOL    HW214318   1.225  10.212  12.922
 4182SOL     OW14319   3.259   4.255   1.707
 4182SOL    HW114320   3.223   4.193   1.770
 4182SOL    HW214321   3.351   4.230   1.699
 4183SOL     OW14322  14.216  13.227   9.781
 4183SOL    HW114323  14.177  13.232   9.694
 4183SOL    HW214324  14.288  13.164   9.772
 4184SOL     OW14325  14.484  10.736  10.046
 4184SOL    HW114326  14.419  10.744  10.115
 4184SOL    HW214327  14.457  10.800   9.980
 4185SOL     OW14328  10.396  14.465   5.158
 4185SOL    HW114329  10.437  14.431   5.079
 4185SOL    HW214330  10.452  14.433   5.229
 4186SOL     OW14331   9.506   0.080  13.962
 4186SOL    HW114332   9.482   0.173  13.967
 4186SOL    HW214333   9.457   0.047  13.887
 4187SOL     OW14334   0.527   1.874   1.263
 4187SOL    HW114335   0.486   1.889   1.178
 4187SOL    HW214336   0.468   1.914   1.326
 4188SOL     OW14337  10.959   2.944   5.158
 4188SOL    HW114338  10.931   3.029   5.191
 4188SOL    HW214339  10.939   2.946   5.064
 4189SOL     OW14340  14.080   6.408   0.433
 4189SOL    HW114341  14.083   6.332   0.492
 4189SOL    HW214342  14.149   6.391   0.369
 4190SOL     OW14343  13.856   5.693   3.737
 4190SOL    HW114344  13.881   5.714   3.826
 4190SOL    HW214345  13.905   5.613   3.716
 4191SOL     OW14346  10.101   9.364   2.141
 4191SOL    HW114347  10.070   9.377   2.231
 4191SOL    HW214348  10.050   9.426   2.089
 4192SOL     OW14349   7.506   6.912   5.005
 4192SOL    HW114350   7.522   6.893   5.098
 4192SOL    HW214351   7.421   6.872   4.988
 4193SOL     OW14352  12.607   2.252  11.149
 4193SOL    HW114353  12.555   2.268  11.070
 4193SOL    HW214354  12.689   2.216  11.117
 4194SOL     OW14355  13.245   6.764   1.935
 4194SOL    HW114356  13.269   6.712   1.859
 4194SOL    HW214357  13.326   6.806   1.963
 4195SOL     OW14358  14.662   5.718  12.936
 4195SOL    HW114359  14.751   5.700  12.968
 4195SOL    HW214360  14.607   5.657  12.985
 4196SOL     OW14361   4.366   1.773  13.686
 4196SOL    HW114362   4.311   1.850  13.702
 4196SOL    HW214363   4.308   1.699  13.701
 4197SOL     OW14364   1.091   5.712  13.682
 4197SOL    HW114365   1.016   5.743  13.734
 4197SOL    HW214366   1.151   5.787  13.680
 4198SOL     OW14367   9.118   5.382  12.626
 4198SOL    HW114368   9.165   5.302  12.650
 4198SOL    HW214369   9.176   5.426  12.564
 4199SOL     OW14370   3.650   3.037   9.724
 4199SOL    HW114371   3.699   3.097   9.781
 4199SOL    HW214372   3.570   3.017   9.773
 4200SOL     OW14373  11.204   2.649   7.388
 4200SOL    HW114374  11.203   2.741   7.361
 4200SOL    HW214375  11.156   2.648   7.471
 4201SOL     OW14376   7.060  14.045   7.357
 4201SOL    HW114377   6.978  14.001   7.378
 4201SOL    HW214378   7.128  13.990   7.396
 4202SOL     OW14379   9.252   5.118   9.016
 4202SOL    HW114380   9.227   5.180   9.085
 4202SOL    HW214381   9.338   5.148   8.988
 4203SOL     OW14382   8.314  12.271   8.822
 4203SOL    HW114383   8.351  12.317   8.896
 4203SOL    HW214384   8.346  12.181   8.831
 4204SOL     OW14385   3.458   3.720   0.948
 4204SOL    HW114386   3.426   3.751   0.864
 4204SOL    HW214387   3.488   3.631   0.931
 4205SOL     OW14388   7.048   3.518   4.291
 4205SOL    HW114389   6.996   3.501   4.370
 4205SOL    HW214390   7.092   3.601   4.308
 4206SOL     OW14391   2.277   5.758  14.840
 4206SOL    HW114392   2.309   5.690   0.018
 4206SOL    HW214393   2.356   5.807  14.816
 4207SOL     OW14394   0.027   3.181   3.792
 4207SOL    HW114395  14.831   3.150   3.745
 4207SOL    HW214396   0.006   3.271   3.816
 4208SOL     OW14397   7.858   0.013   1.195
 4208SOL    HW114398   7.833  14.823   1.137
 4208SOL    HW214399   7.951  14.881   1.211
 4209SOL     OW14400   0.061   6.684   6.499
 4209SOL    HW114401   0.105   6.763   6.529
 4209SOL    HW214402  14.849   6.705   6.503
 4210SOL     OW14403   7.770   9.562   9.782
 4210SOL    HW114404   7.675   9.563   9.793
 4210SOL    HW214405   7.789   9.637   9.726
 4211SOL     OW14406  13.780   0.242  11.196
 4211SOL    HW114407  13.825   0.281  11.122
 4211SOL    HW214408  13.687   0.247  11.173
 4212SOL     OW14409  13.198  11.668  10.100
 4212SOL    HW114410  13.129  11.718  10.143
 4212SOL    HW214411  13.278  11.693  10.147
 4213SOL     OW14412   6.319  11.292   4.482
 4213SOL    HW114413   6.398  11.254   4.443
 4213SOL    HW214414   6.248  11.257   4.429
 4214SOL     OW14415   2.658  10.612  11.770
 4214SOL    HW114416   2.711  10.624  11.848
 4214SOL    HW214417   2.607  10.533  11.788
 4215SOL     OW14418  10.757   9.266   1.258
 4215SOL    HW114419  10.757   9.336   1.194
 4215SOL    HW214420  10.837   9.279   1.309
 4216SOL     OW14421  10.375   1.619  13.388
 4216SOL    HW114422  10.299   1.614  13.446
 4216SOL    HW214423  10.444   1.657  13.443
 4217SOL     OW14424   2.953   6.091   1.604
 4217SOL    HW114425   2.998   6.163   1.561
 4217SOL    HW214426   3.016   6.057   1.668
 4218SOL     OW14427   9.496   4.171   7.111
 4218SOL    HW114428   9.406   4.137   7.104
 4218SOL    HW214429   9.486   4.254   7.158
 4219SOL     OW14430   2.115   0.244   0.669
 4219SOL    HW114431   2.175   0.274   0.600
 4219SOL    HW214432   2.043   0.307   0.667
 4220SOL     OW14433   2.736  14.594   6.008
 4220SOL    HW114434   2.798  14.583   6.080
 4220SOL    HW214435   2.718  14.688   6.007
 4221SOL     OW14436   8.566  12.849  12.907
 4221SOL    HW114437   8.499  12.890  12.853
 4221SOL    HW214438   8.553  12.755  12.894
 4222SOL     OW14439   0.794   0.899   4.421
 4222SOL    HW114440   0.812   0.836   4.491
 4222SOL    HW214441   0.711   0.940   4.446
 4223SOL     OW14442   9.440   9.916   8.470
 4223SOL    HW114443   9.399   9.956   8.547
 4223SOL    HW214444   9.466   9.829   8.499
 4224SOL     OW14445   2.459   0.419   8.682
 4224SOL    HW114446   2.546   0.425   8.642
 4224SOL    HW214447   2.468   0.352   8.750
 4225SOL     OW14448  13.272   0.732   2.741
 4225SOL    HW114449  13.294   0.809   2.689
 4225SOL    HW214450  13.186   0.705   2.709
 4226SOL     OW14451   9.132  10.721   7.833
 4226SOL    HW114452   9.184  10.641   7.840
 4226SOL    HW214453   9.074  10.706   7.758
 4227SOL     OW14454  11.896   1.319   0.234
 4227SOL    HW114455  11.852   1.261   0.296
 4227SOL    HW214456  11.988   1.319   0.262
 4228SOL     OW14457   0.694   1.499   8.200
 4228SOL    HW114458   0.730   1.583   8.171
 4228SOL    HW214459   0.748   1.474   8.275
 4229SOL     OW14460  12.295  13.403   7.711
 4229SOL    HW114461  12.302  13.492   7.676
 4229SOL    HW214462  12.384  13.368   7.703
 4230SOL     OW14463  11.098   8.706   6.058
 4230SOL    HW114464  11.073   8.792   6.022
 4230SOL    HW214465  11.086   8.646   5.984
 4231SOL     OW14466   0.710  13.548  11.141
 4231SOL    HW114467   0.637  13.568  11.082
 4231SOL    HW214468   0.669  13.524  11.223
 4232SOL     OW14469   2.242  14.225  14.363
 4232SOL    HW114470   2.147  14.234  14.368
 4232SOL    HW214471   2.258  14.183  14.279
 4233SOL     OW14472   5.012   9.536  14.794
 4233SOL    HW114473   4.976   9.616  14.833
 4233SOL    HW214474   5.082   9.566  14.738
 4234SOL     OW14475   2.566  12.126   5.333
 4234SOL    HW114476   2.638  12.159   5.387
 4234SOL    HW214477   2.508  12.082   5.395
 4235SOL     OW14478   8.843   8.085  11.063
 4235SOL    HW114479   8.872   8.003  11.103
 4235SOL    HW214480   8.836   8.065  10.970
 4236SOL     OW14481   1.795   9.307   5.315
 4236SOL    HW114482   1.849   9.228   5.304
 4236SOL    HW214483   1.802   9.353   5.232
 4237SOL     OW14484   5.824   8.336   7.248
 4237SOL    HW114485   5.825   8.244   7.278
 4237SOL    HW214486   5.917   8.360   7.246
 4238SOL     OW14487   8.390  10.409   2.500
 4238SOL    HW114488   8.450  10.426   2.428
 4238SOL    HW214489   8.422  10.464   2.571
 4239SOL     OW14490   8.780   0.379   6.247
 4239SOL    HW114491   8.849   0.442   6.229
 4239SOL    HW214492   8.761   0.390   6.340
 4240SOL     OW14493   7.132   0.807   7.152
 4240SOL    HW114494   7.076   0.826   7.076
 4240SOL    HW214495   7.207   0.762   7.114
 4241SOL     OW14496   8.919   3.450  10.570
 4241SOL    HW114497   8.847   3.399  10.532
 4241SOL    HW214498   8.926   3.419  10.660
 4242SOL     OW14499   7.745   3.061   8.300
 4242SOL    HW114500   7.823   3.010   8.324
 4242SOL    HW214501   7.685   2.997   8.263
 4243SOL     OW14502   7.834   3.987  12.954
 4243SOL    HW114503   7.795   4.064  12.997
 4243SOL    HW214504   7.921   4.017  12.927
 4244SOL     OW14505   5.381   7.210   3.948
 4244SOL    HW114506   5.339   7.169   3.872
 4244SOL    HW214507   5.360   7.304   3.939
 4245SOL     OW14508  13.035  11.668   9.738
 4245SOL    HW114509  13.127  11.696   9.735
 4245SOL    HW214510  13.027  11.606   9.666
 4246SOL     OW14511   8.359  11.248   8.909
 4246SOL    HW114512   8.428  11.248   8.975
 4246SOL    HW214513   8.379  11.173   8.853
 4247SOL     OW14514  10.504   2.661   3.317
 4247SOL    HW114515  10.524   2.613   3.397
 4247SOL    HW214516  10.419   2.701   3.334
 4248SOL     OW14517   1.450  13.778   0.449
 4248SOL    HW114518   1.517  13.824   0.397
 4248SOL    HW214519   1.380  13.843   0.459
 4249SOL     OW14520   5.044   2.692   2.903
 4249SOL    HW114521   5.033   2.774   2.951
 4249SOL    HW214522   5.081   2.719   2.819
 4250SOL     OW14523  13.964   9.619  14.548
 4250SOL    HW114524  13.982   9.567  14.627
 4250SOL    HW214525  13.951   9.708  14.581
 4251SOL     OW14526   0.940   4.001   8.005
 4251SOL    HW114527   0.873   3.990   8.072
 4251SOL    HW214528   0.998   4.069   8.040
 4252SOL     OW14529   4.330   2.871   2.613
 4252SOL    HW114530   4.319   2.895   2.521
 4252SOL    HW214531   4.420   2.839   2.620
 4253SOL     OW14532   8.598  12.327   7.166
 4253SOL    HW114533   8.634  12.240   7.149
 4253SOL    HW214534   8.594  12.334   7.261
 4254SOL     OW14535  13.521   0.600  14.141
 4254SOL    HW114536  13.468   0.675  14.115
 4254SOL    HW214537  13.611   0.628  14.123
 4255SOL     OW14538  11.173   3.196  13.089
 4255SOL    HW114539  11.207   3.259  13.152
 4255SOL    HW214540  11.174   3.242  13.005
 4256SOL     OW14541  12.661   9.718   4.360
 4256SOL    HW114542  12.706   9.724   4.276
 4256SOL    HW214543  12.726   9.746   4.425
 4257SOL     OW14544   5.248  10.790   8.492
 4257SOL    HW114545   5.326  10.767   8.544
 4257SOL    HW214546   5.230  10.881   8.515
 4258SOL     OW14547  11.974  10.345   9.153
 4258SOL    HW114548  11.890  10.361   9.110
 4258SOL    HW214549  11.954  10.278   9.219
 4259SOL     OW14550  13.055   8.751   2.495
 4259SOL    HW114551  13.078   8.659   2.507
 4259SOL    HW214552  13.026   8.781   2.581
 4260SOL     OW14553   6.877  13.211  10.470
 4260SOL    HW114554   6.783  13.205  10.485
 4260SOL    HW214555   6.912  13.129  10.504
 4261SOL     OW14556   6.087   3.614   0.149
 4261SOL    HW114557   6.115   3.602   0.240
 4261SOL    HW214558   6.056   3.705   0.146
 4262SOL     OW14559   7.113  13.985   9.211
 4262SOL    HW114560   7.158  13.907   9.179
 4262SOL    HW214561   7.148  14.056   9.156
 4263SOL     OW14562   9.701   7.478   8.444
 4263SOL    HW114563   9.787   7.481   8.485
 4263SOL    HW214564   9.675   7.386   8.448
 4264SOL     OW14565   2.475  14.619   8.897
 4264SOL    HW114566   2.383  14.611   8.870
 4264SOL    HW214567   2.524  14.571   8.830
 4265SOL     OW14568   6.723   4.931   6.120
 4265SOL    HW114569   6.688   4.988   6.051
 4265SOL    HW214570   6.745   4.850   6.074
 4266SOL     OW14571   4.075   9.830  10.326
 4266SOL    HW114572   4.090   9.769  10.398
 4266SOL    HW214573   4.015   9.895  10.362
 4267SOL     OW14574   3.439   3.744   9.026
 4267SOL    HW114575   3.434   3.831   9.064
 4267SOL    HW214576   3.520   3.706   9.061
 4268SOL     OW14577   8.776   1.183   0.067
 4268SOL    HW114578   8.813   1.095   0.056
 4268SOL    HW214579   8.693   1.181   0.020
 4269SOL     OW14580   7.785   8.704   4.234
 4269SOL    HW114581   7.741   8.717   4.150
 4269SOL    HW214582   7.792   8.792   4.271
 4270SOL     OW14583   2.013   0.418   5.021
 4270SOL    HW114584   2.022   0.435   4.927
 4270SOL    HW214585   1.935   0.467   5.046
 4271SOL     OW14586  13.381  14.140   8.806
 4271SOL    HW114587  13.396  14.234   8.819
 4271SOL    HW214588  13.334  14.112   8.885
 4272SOL     OW14589   2.177   2.975   7.965
 4272SOL    HW114590   2.161   2.884   7.990
 4272SOL    HW214591   2.113   2.993   7.897
 4273SOL     OW14592   0.980   0.085   6.843
 4273SOL    HW114593   1.050   0.025   6.867
 4273SOL    HW214594   1.000   0.110   6.753
 4274SOL     OW14595   0.282   9.120  12.940
 4274SOL    HW114596   0.256   9.126  13.032
 4274SOL    HW214597   0.260   9.206  12.903
 4275SOL     OW14598  11.844   5.657   5.616
 4275SOL    HW114599  11.915   5.670   5.680
 4275SOL    HW214600  11.863   5.719   5.546
 4276SOL     OW14601   6.353   2.074   1.234
 4276SOL    HW114602   6.285   2.049   1.171
 4276SOL    HW214603   6.359   2.169   1.226
 4277SOL     OW14604   2.965  12.212   1.873
 4277SOL    HW114605   2.880  12.185   1.907
 4277SOL    HW214606   2.975  12.302   1.904
 4278SOL     OW14607   1.172  12.981  10.950
 4278SOL    HW114608   1.253  12.930  10.953
 4278SOL    HW214609   1.185  13.050  11.015
 4279SOL     OW14610   3.018  12.587   0.490
 4279SOL    HW114611   3.062  12.581   0.575
 4279SOL    HW214612   3.081  12.552   0.427
 4280SOL     OW14613   6.521  14.112  14.156
 4280SOL    HW114614   6.607  14.142  14.127
 4280SOL    HW214615   6.475  14.193  14.180
 4281SOL     OW14616  10.721   3.467   1.869
 4281SOL    HW114617  10.791   3.414   1.907
 4281SOL    HW214618  10.684   3.412   1.799
 4282SOL     OW14619   6.271   2.136   3.874
 4282SOL    HW114620   6.221   2.088   3.941
 4282SOL    HW214621   6.214   2.136   3.797
 4283SOL     OW14622  13.974  13.357   4.392
 4283SOL    HW114623  13.985  13.263   4.374
 4283SOL    HW214624  13.946  13.393   4.308
 4284SOL     OW14625   3.986  14.341   8.754
 4284SOL    HW114626   3.920  14.367   8.691
 4284SOL    HW214627   3.951  14.262   8.795
 4285SOL     OW14628  12.129   3.220   1.996
 4285SOL    HW114629  12.201   3.271   2.034
 4285SOL    HW214630  12.060   3.285   1.980
 4286SOL     OW14631  10.581   1.116   4.158
 4286SOL    HW114632  10.633   1.111   4.078
 4286SOL    HW214633  10.639   1.085   4.227
 4287SOL     OW14634   0.944   1.289   1.259
 4287SOL    HW114635   1.037   1.311   1.261
 4287SOL    HW214636   0.900   1.366   1.294
 4288SOL     OW14637   9.013   5.061  13.236
 4288SOL    HW114638   8.952   5.135  13.239
 4288SOL    HW214639   9.094   5.099  13.201
 4289SOL     OW14640   4.855  13.308  14.829
 4289SOL    HW114641   4.799  13.253   0.002
 4289SOL    HW214642   4.936  13.317  14.880
 4290SOL     OW14643   5.340  12.837   6.087
 4290SOL    HW114644   5.300  12.771   6.030
 4290SOL    HW214645   5.429  12.847   6.054
 4291SOL     OW14646  14.315   4.798  13.638
 4291SOL    HW114647  14.251   4.730  13.658
 4291SOL    HW214648  14.370   4.802  13.716
 4292SOL     OW14649  14.417   5.587   1.677
 4292SOL    HW114650  14.374   5.510   1.715
 4292SOL    HW214651  14.484   5.611   1.740
 4293SOL     OW14652  13.780  11.864  11.848
 4293SOL    HW114653  13.839  11.788  11.848
 4293SOL    HW214654  13.739  11.861  11.761
 4294SOL     OW14655   6.742   0.515  10.436
 4294SOL    HW114656   6.681   0.546  10.369
 4294SOL    HW214657   6.688   0.504  10.514
 4295SOL     OW14658   4.089   5.544  13.364
 4295SOL    HW114659   4.010   5.509  13.408
 4295SOL    HW214660   4.070   5.637  13.352
 4296SOL     OW14661  12.660   9.103   5.392
 4296SOL    HW114662  12.687   9.070   5.478
 4296SOL    HW214663  12.711   9.184   5.381
 4297SOL     OW14664   5.857   5.352  13.903
 4297SOL    HW114665   5.834   5.261  13.920
 4297SOL    HW214666   5.827   5.400  13.980
 4298SOL     OW14667   3.984  12.502   3.528
 4298SOL    HW114668   4.008  12.582   3.482
 4298SOL    HW214669   3.942  12.447   3.462
 4299SOL     OW14670   3.229   6.206   2.293
 4299SOL    HW114671   3.135   6.226   2.303
 4299SOL    HW214672   3.269   6.291   2.272
 4300SOL     OW14673   7.366   9.874   4.295
 4300SOL    HW114674   7.442   9.919   4.258
 4300SOL    HW214675   7.402   9.814   4.360
 4301SOL     OW14676  12.720   1.772  12.132
 4301SOL    HW114677  12.791   1.792  12.193
 4301SOL    HW214678  12.711   1.676  12.136
 4302SOL     OW14679   2.291   8.353   4.426
 4302SOL    HW114680   2.376   8.310   4.437
 4302SOL    HW214681   2.243   8.295   4.367
 4303SOL     OW14682   5.909   1.989  11.321
 4303SOL    HW114683   5.989   1.941  11.298
 4303SOL    HW214684   5.838   1.939  11.280
 4304SOL     OW14685  11.529   7.274   0.414
 4304SOL    HW114686  11.539   7.196   0.359
 4304SOL    HW214687  11.515   7.345   0.352
 4305SOL     OW14688  14.223   8.294   5.175
 4305SOL    HW114689  14.284   8.362   5.146
 4305SOL    HW214690  14.240   8.286   5.269
 4306SOL     OW14691  12.257  11.875  12.340
 4306SOL    HW114692  12.292  11.846  12.256
 4306SOL    HW214693  12.278  11.968  12.344
 4307SOL     OW14694   6.769   5.485   5.615
 4307SOL    HW114695   6.864   5.486   5.614
 4307SOL    HW214696   6.746   5.445   5.699
 4308SOL     OW14697  11.383   3.712   7.030
 4308SOL    HW114698  11.292   3.716   7.057
 4308SOL    HW214699  11.432   3.694   7.110
 4309SOL     OW14700   0.411  10.065   7.193
 4309SOL    HW114701   0.489  10.121   7.189
 4309SOL    HW214702   0.370  10.076   7.108
 4310SOL     OW14703  12.363   1.444   8.898
 4310SOL    HW114704  12.408   1.360   8.909
 4310SOL    HW214705  12.377   1.467   8.806
 4311SOL     OW14706   8.036  14.847   7.368
 4311SOL    HW114707   8.120  14.874   7.329
 4311SOL    HW214708   8.061  14.799   7.447
 4312SOL     OW14709  10.902   0.051   8.225
 4312SOL    HW114710  10.977   0.044   8.165
 4312SOL    HW214711  10.831   0.085   8.171
 4313SOL     OW14712  13.101  14.372   6.114
 4313SOL    HW114713  13.152  14.364   6.195
 4313SOL    HW214714  13.158  14.419   6.054
 4314SOL     OW14715   2.594  11.152   4.828
 4314SOL    HW114716   2.498  11.153   4.830
 4314SOL    HW214717   2.618  11.241   4.801
 4315SOL     OW14718   8.871   1.201   4.422
 4315SOL    HW114719   8.905   1.113   4.440
 4315SOL    HW214720   8.931   1.236   4.355
 4316SOL     OW14721  12.329   9.789  11.891
 4316SOL    HW114722  12.250   9.735  11.891
 4316SOL    HW214723  12.394   9.736  11.844
 4317SOL     OW14724   5.447  11.414   9.347
 4317SOL    HW114725   5.506  11.474   9.393
 4317SOL    HW214726   5.403  11.468   9.282
 4318SOL     OW14727   6.206  11.453   6.113
 4318SOL    HW114728   6.131  11.409   6.152
 4318SOL    HW214729   6.263  11.382   6.084
 4319SOL     OW14730   8.068   1.334  13.114
 4319SOL    HW114731   8.025   1.363  13.194
 4319SOL    HW214732   8.153   1.379  13.114
 4320SOL     OW14733  10.518  14.643   9.671
 4320SOL    HW114734  10.609  14.636   9.702
 4320SOL    HW214735  10.521  14.712   9.605
 4321SOL     OW14736  12.618   0.856  12.895
 4321SOL    HW114737  12.703   0.901  12.899
 4321SOL    HW214738  12.577   0.888  12.815
 4322SOL     OW14739   7.498   4.888   6.113
 4322SOL    HW114740   7.456   4.805   6.135
 4322SOL    HW214741   7.443   4.926   6.044
 4323SOL     OW14742  10.701   8.637  10.080
 4323SOL    HW114743  10.699   8.656  10.174
 4323SOL    HW214744  10.791   8.612  10.063
 4324SOL     OW14745   9.852   3.812   9.469
 4324SOL    HW114746   9.925   3.874   9.459
 4324SOL    HW214747   9.863   3.776   9.557
 4325SOL     OW14748  12.703  10.676   2.212
 4325SOL    HW114749  12.722  10.583   2.208
 4325SOL    HW214750  12.645  10.692   2.137
 4326SOL     OW14751  14.634   6.794  12.047
 4326SOL    HW114752  14.565   6.738  12.009
 4326SOL    HW214753  14.667   6.844  11.973
 4327SOL     OW14754   2.344  13.828  12.291
 4327SOL    HW114755   2.366  13.906  12.239
 4327SOL    HW214756   2.418  13.769  12.278
 4328SOL     OW14757  11.942   6.412   3.190
 4328SOL    HW114758  11.848   6.400   3.196
 4328SOL    HW214759  11.964   6.389   3.100
 4329SOL     OW14760   2.374  14.386   1.830
 4329SOL    HW114761   2.323  14.333   1.891
 4329SOL    HW214762   2.423  14.447   1.885
 4330SOL     OW14763   4.793  11.417  10.183
 4330SOL    HW114764   4.819  11.340  10.133
 4330SOL    HW214765   4.723  11.456  10.131
 4331SOL     OW14766   8.986   0.066  12.477
 4331SOL    HW114767   9.002   0.002  12.407
 4331SOL    HW214768   8.953   0.143  12.432
 4332SOL     OW14769   5.898  13.100   5.680
 4332SOL    HW114770   5.835  13.055   5.737
 4332SOL    HW214771   5.921  13.034   5.613
 4333SOL     OW14772   4.373  10.303   5.918
 4333SOL    HW114773   4.425  10.313   5.998
 4333SOL    HW214774   4.297  10.360   5.932
 4334SOL     OW14775  13.748   1.617   0.375
 4334SOL    HW114776  13.665   1.656   0.403
 4334SOL    HW214777  13.814   1.684   0.394
 4335SOL     OW14778   9.780   8.677   2.522
 4335SOL    HW114779   9.792   8.696   2.615
 4335SOL    HW214780   9.866   8.691   2.483
 4336SOL     OW14781  11.299  13.950   4.830
 4336SOL    HW114782  11.341  14.036   4.830
 4336SOL    HW214783  11.335  13.906   4.752
 4337SOL     OW14784   6.305  13.227   6.594
 4337SOL    HW114785   6.273  13.202   6.681
 4337SOL    HW214786   6.284  13.152   6.539
 4338SOL     OW14787  13.517  13.317   2.620
 4338SOL    HW114788  13.441  13.351   2.572
 4338SOL    HW214789  13.540  13.236   2.574
 4339SOL     OW14790  12.778   0.965   5.446
 4339SOL    HW114791  12.848   0.940   5.386
 4339SOL    HW214792  12.711   0.897   5.435
 4340SOL     OW14793  13.151   5.813  14.470
 4340SOL    HW114794  13.194   5.807  14.384
 4340SOL    HW214795  13.070   5.861  14.453
 4341SOL     OW14796   0.726  12.460   2.306
 4341SOL    HW114797   0.784  12.385   2.300
 4341SOL    HW214798   0.678  12.448   2.387
 4342SOL     OW14799   2.331   4.051   4.286
 4342SOL    HW114800   2.365   4.001   4.360
 4342SOL    HW214801   2.409   4.086   4.243
 4343SOL     OW14802   0.283  13.048  13.676
 4343SOL    HW114803   0.210  13.098  13.713
 4343SOL    HW214804   0.266  12.958  13.702
 4344SOL     OW14805  10.833   7.621   2.145
 4344SOL    HW114806  10.845   7.595   2.054
 4344SOL    HW214807  10.827   7.717   2.142
 4345SOL     OW14808  14.579   7.921   2.503
 4345SOL    HW114809  14.648   7.906   2.438
 4345SOL    HW214810  14.509   7.861   2.477
 4346SOL     OW14811  10.811   8.243   1.640
 4346SOL    HW114812  10.867   8.197   1.702
 4346SOL    HW214813  10.724   8.242   1.680
 4347SOL     OW14814   7.276   0.355   9.303
 4347SOL    HW114815   7.188   0.338   9.337
 4347SOL    HW214816   7.334   0.332   9.376
 4348SOL     OW14817   6.690   5.715  12.610
 4348SOL    HW114818   6.692   5.810  12.604
 4348SOL    HW214819   6.732   5.696  12.694
 4349SOL     OW14820   0.529   7.594   2.542
 4349SOL    HW114821   0.614   7.589   2.497
 4349SOL    HW214822   0.492   7.677   2.513
 4350SOL     OW14823   8.381   5.251  13.842
 4350SOL    HW114824   8.330   5.188  13.791
 4350SOL    HW214825   8.325   5.329  13.846
 4351SOL     OW14826   6.609   8.870  12.165
 4351SOL    HW114827   6.579   8.901  12.079
 4351SOL    HW214828   6.585   8.939  12.226
 4352SOL     OW14829   6.220  13.591  11.033
 4352SOL    HW114830   6.155  13.661  11.027
 4352SOL    HW214831   6.197  13.531  10.962
 4353SOL     OW14832  10.320   3.616   3.133
 4353SOL    HW114833  10.350   3.705   3.114
 4353SOL    HW214834  10.400   3.566   3.148
 4354SOL     OW14835   4.086  13.677   6.642
 4354SOL    HW114836   4.069  13.585   6.620
 4354SOL    HW214837   4.104  13.675   6.736
 4355SOL     OW14838  14.248   1.399   1.433
 4355SOL    HW114839  14.285   1.419   1.347
 4355SOL    HW214840  14.301   1.325   1.465
 4356SOL     OW14841   0.566   8.819   1.447
 4356SOL    HW114842   0.520   8.734   1.451
 4356SOL    HW214843   0.645   8.800   1.397
 4357SOL     OW14844   8.223   5.891   0.168
 4357SOL    HW114845   8.209   5.810   0.219
 4357SOL    HW214846   8.155   5.950   0.199
 4358SOL     OW14847   0.678   6.484  10.597
 4358SOL    HW114848   0.633   6.558  10.636
 4358SOL    HW214849   0.767   6.515  10.579
 4359SOL     OW14850  12.752   3.288   7.129
 4359SOL    HW114851  12.823   3.352   7.125
 4359SOL    HW214852  12.790   3.212   7.173
 4360SOL     OW14853   9.304   3.889   6.849
 4360SOL    HW114854   9.391   3.852   6.835
 4360SOL    HW214855   9.254   3.865   6.770
 4361SOL     OW14856  10.977  14.531   3.257
 4361SOL    HW114857  11.041  14.575   3.314
 4361SOL    HW214858  10.969  14.589   3.181
 4362SOL     OW14859   8.813   8.685   0.835
 4362SOL    HW114860   8.769   8.770   0.839
 4362SOL    HW214861   8.902   8.703   0.865
 4363SOL     OW14862   8.373   0.840   7.366
 4363SOL    HW114863   8.278   0.836   7.356
 4363SOL    HW214864   8.406   0.786   7.294
 4364SOL     OW14865  14.245   7.651   8.622
 4364SOL    HW114866  14.310   7.621   8.559
 4364SOL    HW214867  14.193   7.715   8.574
 4365SOL     OW14868   3.061   6.304   6.602
 4365SOL    HW114869   3.039   6.393   6.576
 4365SOL    HW214870   2.976   6.261   6.613
 4366SOL     OW14871  13.509   3.215   4.646
 4366SOL    HW114872  13.563   3.263   4.582
 4366SOL    HW214873  13.518   3.265   4.727
 4367SOL     OW14874   7.538   6.837   2.020
 4367SOL    HW114875   7.531   6.750   2.059
 4367SOL    HW214876   7.625   6.868   2.044
 4368SOL     OW14877   2.628  14.692   2.855
 4368SOL    HW114878   2.559  14.657   2.911
 4368SOL    HW214879   2.707  14.645   2.882
 4369SOL     OW14880  12.251   5.210   9.421
 4369SOL    HW114881  12.251   5.183   9.329
 4369SOL    HW214882  12.342   5.202   9.448
 4370SOL     OW14883  12.154   1.260   8.180
 4370SOL    HW114884  12.084   1.295   8.235
 4370SOL    HW214885  12.113   1.241   8.096
 4371SOL     OW14886   9.786   3.608  13.028
 4371SOL    HW114887   9.721   3.664  13.070
 4371SOL    HW214888   9.830   3.666  12.966
 4372SOL     OW14889  13.606   0.293   6.318
 4372SOL    HW114890  13.642   0.381   6.314
 4372SOL    HW214891  13.590   0.268   6.227
 4373SOL     OW14892   2.455   8.533   8.720
 4373SOL    HW114893   2.434   8.439   8.720
 4373SOL    HW214894   2.423   8.565   8.804
 4374SOL     OW14895  10.845   3.536   7.774
 4374SOL    HW114896  10.774   3.473   7.760
 4374SOL    HW214897  10.870   3.563   7.685
 4375SOL     OW14898   1.811   1.148   1.881
 4375SOL    HW114899   1.809   1.069   1.936
 4375SOL    HW214900   1.897   1.185   1.897
 4376SOL     OW14901  10.060   1.174   2.936
 4376SOL    HW114902   9.992   1.218   2.986
 4376SOL    HW214903  10.081   1.235   2.865
 4377SOL     OW14904  14.607  14.405  13.931
 4377SOL    HW114905  14.579  14.446  14.013
 4377SOL    HW214906  14.598  14.473  13.865
 4378SOL     OW14907   1.329   6.598   9.196
 4378SOL    HW114908   1.411   6.628   9.157
 4378SOL    HW214909   1.356   6.539   9.267
 4379SOL     OW14910   8.810  12.880   7.482
 4379SOL    HW114911   8.883  12.818   7.485
 4379SOL    HW214912   8.848  12.959   7.444
 4380SOL     OW14913  10.031   3.307  10.948
 4380SOL    HW114914   9.950   3.356  10.933
 4380SOL    HW214915  10.072   3.351  11.023
 4381SOL     OW14916   9.368   3.156   3.477
 4381SOL    HW114917   9.395   3.124   3.391
 4381SOL    HW214918   9.387   3.085   3.537
 4382SOL     OW14919   9.103   5.564   8.155
 4382SOL    HW114920   9.125   5.486   8.103
 4382SOL    HW214921   9.017   5.591   8.124
 4383SOL     OW14922   1.851   6.547   1.720
 4383SOL    HW114923   1.843   6.642   1.714
 4383SOL    HW214924   1.924   6.533   1.781
 4384SOL     OW14925   9.258  11.388   0.880
 4384SOL    HW114926   9.199  11.383   0.955
 4384SOL    HW214927   9.316  11.313   0.889
 4385SOL     OW14928  11.903   7.149  14.870
 4385SOL    HW114929  11.883   7.076   0.047
 4385SOL    HW214930  11.986   7.184   0.022
 4386SOL     OW14931  14.368   9.654   7.272
 4386SOL    HW114932  14.345   9.624   7.360
 4386SOL    HW214933  14.283   9.661   7.227
 4387SOL     OW14934   1.828  12.063  12.158
 4387SOL    HW114935   1.920  12.069  12.185
 4387SOL    HW214936   1.821  11.978  12.115
 4388SOL     OW14937  12.711   3.280  11.014
 4388SOL    HW114938  12.692   3.369  10.984
 4388SOL    HW214939  12.653   3.267  11.088
 4389SOL     OW14940  11.867   0.851   6.348
 4389SOL    HW114941  11.950   0.899   6.347
 4389SOL    HW214942  11.800   0.919   6.342
 4390SOL     OW14943   5.439   0.500  11.810
 4390SOL    HW114944   5.359   0.489  11.759
 4390SOL    HW214945   5.409   0.530  11.896
 4391SOL     OW14946  11.977  13.520  10.209
 4391SOL    HW114947  11.956  13.439  10.256
 4391SOL    HW214948  11.899  13.575  10.219
 4392SOL     OW14949   0.038   6.352  11.377
 4392SOL    HW114950   0.133   6.354  11.373
 4392SOL    HW214951   0.010   6.434  11.338
 4393SOL     OW14952   2.661  13.146   1.260
 4393SOL    HW114953   2.625  13.208   1.197
 4393SOL    HW214954   2.585  13.101   1.296
 4394SOL     OW14955   6.821  11.398   1.760
 4394SOL    HW114956   6.754  11.340   1.722
 4394SOL    HW214957   6.861  11.346   1.829
 4395SOL     OW14958  11.398  12.155   5.887
 4395SOL    HW114959  11.329  12.115   5.835
 4395SOL    HW214960  11.479  12.114   5.856
 4396SOL     OW14961  10.666   4.878  12.548
 4396SOL    HW114962  10.692   4.922  12.467
 4396SOL    HW214963  10.602   4.812  12.519
 4397SOL     OW14964   2.479   2.728  12.582
 4397SOL    HW114965   2.448   2.742  12.492
 4397SOL    HW214966   2.446   2.641  12.605
 4398SOL     OW14967  14.465   3.444   4.775
 4398SOL    HW114968  14.386   3.391   4.785
 4398SOL    HW214969  14.503   3.448   4.863
 4399SOL     OW14970   2.054   2.296   3.814
 4399SOL    HW114971   1.975   2.332   3.854
 4399SOL    HW214972   2.045   2.202   3.825
 4400SOL     OW14973   2.660   9.342  11.537
 4400SOL    HW114974   2.664   9.274  11.603
 4400SOL    HW214975   2.697   9.301  11.458
 4401SOL     OW14976  13.188   3.841   7.192
 4401SOL    HW114977  13.145   3.909   7.140
 4401SOL    HW214978  13.251   3.801   7.132
 4402SOL     OW14979   5.812   3.686   2.872
 4402SOL    HW114980   5.769   3.601   2.871
 4402SOL    HW214981   5.819   3.711   2.780
 4403SOL     OW14982   0.922  11.689  10.428
 4403SOL    HW114983   0.945  11.616  10.486
 4403SOL    HW214984   0.961  11.666  10.344
 4404SOL     OW14985  10.423  11.067   3.945
 4404SOL    HW114986  10.518  11.070   3.952
 4404SOL    HW214987  10.406  11.080   3.851
 4405SOL     OW14988   1.857   7.611   8.356
 4405SOL    HW114989   1.820   7.677   8.298
 4405SOL    HW214990   1.941   7.648   8.384
 4406SOL     OW14991  11.132   1.281   2.656
 4406SOL    HW114992  11.139   1.376   2.643
 4406SOL    HW214993  11.108   1.247   2.570
 4407SOL     OW14994   3.524   2.614  12.709
 4407SOL    HW114995   3.449   2.608  12.768
 4407SOL    HW214996   3.585   2.547  12.741
 4408SOL     OW14997   2.437  12.844   5.373
 4408SOL    HW114998   2.416  12.754   5.348
 4408SOL    HW214999   2.530  12.842   5.396
 4409SOL     OW15000   5.851   7.983   6.530
 4409SOL    HW115001   5.862   8.070   6.567
 4409SOL    HW215002   5.828   7.999   6.438
 4410SOL     OW15003  12.919   2.889   9.868
 4410SOL    HW115004  12.910   2.871   9.961
 4410SOL    HW215005  12.841   2.851   9.828
 4411SOL     OW15006   0.144   5.375   0.516
 4411SOL    HW115007   0.088   5.446   0.548
 4411SOL    HW215008   0.099   5.342   0.438
 4412SOL     OW15009   2.067  13.268   1.195
 4412SOL    HW115010   2.012  13.332   1.241
 4412SOL    HW215011   2.154  13.279   1.233
 4413SOL     OW15012   5.683   3.911   4.626
 4413SOL    HW115013   5.721   3.981   4.572
 4413SOL    HW215014   5.731   3.916   4.709
 4414SOL     OW15015   5.436  11.082   3.102
 4414SOL    HW115016   5.352  11.064   3.144
 4414SOL    HW215017   5.414  11.128   3.021
 4415SOL     OW15018   8.054  10.404   6.020
 4415SOL    HW115019   8.002  10.333   5.982
 4415SOL    HW215020   8.142  10.392   5.984
 4416SOL     OW15021   7.496   4.263   5.362
 4416SOL    HW115022   7.406   4.268   5.329
 4416SOL    HW215023   7.517   4.170   5.357
 4417SOL     OW15024  12.781   3.464   2.985
 4417SOL    HW115025  12.735   3.381   2.992
 4417SOL    HW215026  12.829   3.472   3.068
 4418SOL     OW15027  14.308   1.982   6.474
 4418SOL    HW115028  14.238   2.003   6.535
 4418SOL    HW215029  14.388   1.992   6.525
 4419SOL     OW15030   1.550   4.973   4.619
 4419SOL    HW115031   1.639   4.981   4.585
 4419SOL    HW215032   1.533   4.879   4.620
 4420SOL     OW15033   2.877   6.764   0.905
 4420SOL    HW115034   2.818   6.819   0.955
 4420SOL    HW215035   2.896   6.690   0.962
 4421SOL     OW15036  12.697   5.135   0.666
 4421SOL    HW115037  12.626   5.077   0.695
 4421SOL    HW215038  12.664   5.175   0.586
 4422SOL     OW15039   4.724   8.540   2.209
 4422SOL    HW115040   4.650   8.487   2.180
 4422SOL    HW215041   4.761   8.577   2.129
 4423SOL     OW15042   3.534  11.772   2.763
 4423SOL    HW115043   3.450  11.736   2.792
 4423SOL    HW215044   3.512  11.826   2.687
 4424SOL     OW15045  12.135   5.678   1.567
 4424SOL    HW115046  12.228   5.699   1.557
 4424SOL    HW215047  12.132   5.583   1.572
 4425SOL     OW15048   0.448  10.723  12.580
 4425SOL    HW115049   0.364  10.679  12.593
 4425SOL    HW215050   0.498  10.665  12.523
 4426SOL     OW15051  11.800  11.240  11.176
 4426SOL    HW115052  11.744  11.318  11.163
 4426SOL    HW215053  11.769  11.178  11.110
 4427SOL     OW15054   6.271  13.513   7.351
 4427SOL    HW115055   6.355  13.542   7.386
 4427SOL    HW215056   6.232  13.460   7.420
 4428SOL     OW15057   3.184   2.149   5.983
 4428SOL    HW115058   3.257   2.111   5.934
 4428SOL    HW215059   3.106   2.127   5.931
 4429SOL     OW15060   2.055  11.147  14.028
 4429SOL    HW115061   2.145  11.136  13.999
 4429SOL    HW215062   2.039  11.241  14.021
 4430SOL     OW15063  14.287   6.762   7.137
 4430SOL    HW115064  14.350   6.746   7.208
 4430SOL    HW215065  14.263   6.675   7.106
 4431SOL     OW15066  12.913   2.569   2.280
 4431SOL    HW115067  12.977   2.562   2.209
 4431SOL    HW215068  12.836   2.608   2.240
 4432SOL     OW15069   0.165   2.471   6.965
 4432SOL    HW115070   0.257   2.460   6.942
 4432SOL    HW215071   0.156   2.563   6.986
 4433SOL     OW15072   3.804   2.467   3.027
 4433SOL    HW115073   3.826   2.453   2.934
 4433SOL    HW215074   3.884   2.443   3.074
 4434SOL     OW15075   3.565   8.042   8.898
 4434SOL    HW115076   3.548   8.081   8.984
 4434SOL    HW215077   3.552   8.115   8.836
 4435SOL     OW15078  12.714  12.363   7.443
 4435SOL    HW115079  12.712  12.286   7.386
 4435SOL    HW215080  12.804  12.396   7.435
 4436SOL     OW15081  14.107   7.487   3.248
 4436SOL    HW115082  14.110   7.451   3.160
 4436SOL    HW215083  14.195   7.521   3.264
 4437SOL     OW15084   8.527  14.385  13.722
 4437SOL    HW115085   8.544  14.297  13.688
 4437SOL    HW215086   8.488  14.432  13.647
 4438SOL     OW15087  13.063   9.131  10.636
 4438SOL    HW115088  13.145   9.129  10.586
 4438SOL    HW215089  13.091   9.147  10.726
 4439SOL     OW15090  11.303   5.555   6.589
 4439SOL    HW115091  11.366   5.501   6.637
 4439SOL    HW215092  11.226   5.559   6.644
 4440SOL     OW15093  12.748  14.496   6.719
 4440SOL    HW115094  12.811  14.567   6.709
 4440SOL    HW215095  12.673  14.522   6.665
 4441SOL     OW15096  13.796   3.288   2.077
 4441SOL    HW115097  13.722   3.249   2.030
 4441SOL    HW215098  13.793   3.381   2.055
 4442SOL     OW15099   7.792   0.607  12.884
 4442SOL    HW115100   7.741   0.682  12.854
 4442SOL    HW215101   7.847   0.584  12.809
 4443SOL     OW15102  13.182   0.707   9.308
 4443SOL    HW115103  13.093   0.718   9.274
 4443SOL    HW215104  13.237   0.760   9.252
 4444SOL     OW15105  11.701   2.821  11.086
 4444SOL    HW115106  11.633   2.765  11.122
 4444SOL    HW215107  11.659   2.865  11.012
 4445SOL     OW15108   4.577  11.398  13.193
 4445SOL    HW115109   4.620  11.324  13.150
 4445SOL    HW215110   4.491  11.403  13.151
 4446SOL     OW15111   3.367   0.920   9.671
 4446SOL    HW115112   3.290   0.954   9.626
 4446SOL    HW215113   3.346   0.828   9.688
 4447SOL     OW15114  13.293   0.831   3.605
 4447SOL    HW115115  13.205   0.843   3.641
 4447SOL    HW215116  13.313   0.915   3.562
 4448SOL     OW15117  13.300   3.161  13.284
 4448SOL    HW115118  13.263   3.243  13.316
 4448SOL    HW215119  13.357   3.131  13.355
 4449SOL     OW15120   1.031   5.864  12.744
 4449SOL    HW115121   0.976   5.815  12.684
 4449SOL    HW215122   0.985   5.860  12.828
 4450SOL     OW15123  11.932   9.820   3.968
 4450SOL    HW115124  12.023   9.847   3.968
 4450SOL    HW215125  11.887   9.888   4.019
 4451SOL     OW15126   1.569   6.427   5.359
 4451SOL    HW115127   1.586   6.354   5.418
 4451SOL    HW215128   1.630   6.414   5.287
 4452SOL     OW15129   1.231   5.062  12.493
 4452SOL    HW115130   1.180   5.140  12.514
 4452SOL    HW215131   1.177   5.016  12.428
 4453SOL     OW15132  13.197  14.096  12.352
 4453SOL    HW115133  13.284  14.106  12.391
 4453SOL    HW215134  13.200  14.152  12.274
 4454SOL     OW15135   7.122   7.447   2.273
 4454SOL    HW115136   7.154   7.443   2.183
 4454SOL    HW215137   7.188   7.400   2.324
 4455SOL     OW15138   7.356   8.357  13.459
 4455SOL    HW115139   7.293   8.420  13.425
 4455SOL    HW215140   7.303   8.298  13.513
 4456SOL     OW15141   0.341   4.694  12.342
 4456SOL    HW115142   0.398   4.618  12.354
 4456SOL    HW215143   0.363   4.752  12.415
 4457SOL     OW15144   9.949   0.726   8.703
 4457SOL    HW115145   9.880   0.682   8.754
 4457SOL    HW215146   9.939   0.819   8.724
 4458SOL     OW15147  11.968   6.340  13.579
 4458SOL    HW115148  11.905   6.382  13.637
 4458SOL    HW215149  11.932   6.354  13.491
 4459SOL     OW15150  10.291   7.372  13.178
 4459SOL    HW115151  10.342   7.301  13.218
 4459SOL    HW215152  10.315   7.450  13.228
 4460SOL     OW15153   3.744   6.839  14.132
 4460SOL    HW115154   3.728   6.933  14.124
 4460SOL    HW215155   3.681   6.810  14.198
 4461SOL     OW15156   6.649   6.699   0.931
 4461SOL    HW115157   6.745   6.694   0.941
 4461SOL    HW215158   6.632   6.791   0.913
 4462SOL     OW15159   1.185   8.347   9.271
 4462SOL    HW115160   1.099   8.305   9.276
 4462SOL    HW215161   1.169   8.438   9.298
 4463SOL     OW15162  13.075   6.722   4.530
 4463SOL    HW115163  13.127   6.802   4.538
 4463SOL    HW215164  13.093   6.691   4.441
 4464SOL     OW15165  13.469  12.432  10.786
 4464SOL    HW115166  13.409  12.375  10.738
 4464SOL    HW215167  13.440  12.427  10.877
 4465SOL     OW15168   7.802   8.854  13.904
 4465SOL    HW115169   7.898   8.851  13.900
 4465SOL    HW215170   7.783   8.946  13.923
 4466SOL     OW15171   2.890  12.374   5.694
 4466SOL    HW115172   2.891  12.337   5.782
 4466SOL    HW215173   2.862  12.465   5.707
 4467SOL     OW15174   9.241  11.940   5.295
 4467SOL    HW115175   9.198  11.970   5.215
 4467SOL    HW215176   9.334  11.946   5.277
 4468SOL     OW15177  10.930   6.858   2.274
 4468SOL    HW115178  10.912   6.775   2.230
 4468SOL    HW215179  10.903   6.844   2.364
 4469SOL     OW15180  13.093   3.238  12.570
 4469SOL    HW115181  13.134   3.276  12.647
 4469SOL    HW215182  13.142   3.274  12.496
 4470SOL     OW15183   8.958  12.143  14.274
 4470SOL    HW115184   8.915  12.062  14.245
 4470SOL    HW215185   9.051  12.125  14.264
 4471SOL     OW15186  11.175  14.811  10.143
 4471SOL    HW115187  11.249  14.778  10.092
 4471SOL    HW215188  11.132  14.733  10.176
 4472SOL     OW15189  13.309   1.834   6.122
 4472SOL    HW115190  13.387   1.821   6.067
 4472SOL    HW215191  13.278   1.922   6.100
 4473SOL     OW15192   8.692   6.281   0.297
 4473SOL    HW115193   8.694   6.376   0.293
 4473SOL    HW215194   8.778   6.256   0.331
 4474SOL     OW15195   8.868  10.900  11.802
 4474SOL    HW115196   8.850  10.836  11.871
 4474SOL    HW215197   8.893  10.980  11.850
 4475SOL     OW15198  11.256  14.778   1.397
 4475SOL    HW115199  11.218  14.712   1.339
 4475SOL    HW215200  11.218  14.861   1.367
 4476SOL     OW15201  14.243   1.755  14.769
 4476SOL    HW115202  14.284   1.742  14.684
 4476SOL    HW215203  14.280   1.688  14.825
 4477SOL     OW15204   7.269   1.293   6.659
 4477SOL    HW115205   7.275   1.212   6.610
 4477SOL    HW215206   7.175   1.314   6.660
 4478SOL     OW15207   6.563  14.192   4.099
 4478SOL    HW115208   6.626  14.120   4.104
 4478SOL    HW215209   6.571  14.223   4.009
 4479SOL     OW15210   3.326  12.153   9.171
 4479SOL    HW115211   3.283  12.201   9.100
 4479SOL    HW215212   3.376  12.085   9.127
 4480SOL     OW15213  10.083   9.690   4.278
 4480SOL    HW115214  10.118   9.779   4.277
 4480SOL    HW215215  10.024   9.687   4.202
 4481SOL     OW15216   1.780   0.714   1.441
 4481SOL    HW115217   1.869   0.702   1.409
 4481SOL    HW215218   1.783   0.688   1.532
 4482SOL     OW15219  11.871  12.070   3.247
 4482SOL    HW115220  11.879  12.144   3.187
 4482SOL    HW215221  11.897  12.105   3.332
 4483SOL     OW15222  12.285  12.655  10.758
 4483SOL    HW115223  12.285  12.588  10.826
 4483SOL    HW215224  12.203  12.703  10.771
 4484SOL     OW15225  13.254  13.737  14.079
 4484SOL    HW115226  13.229  13.680  14.006
 4484SOL    HW215227  13.171  13.774  14.109
 4485SOL     OW15228   2.231  13.748   3.342
 4485SOL    HW115229   2.158  13.693   3.312
 4485SOL    HW215230   2.303  13.727   3.282
 4486SOL     OW15231  12.740  14.447   9.223
 4486SOL    HW115232  12.830  14.458   9.192
 4486SOL    HW215233  12.701  14.534   9.215
 4487SOL     OW15234  14.631  12.720   2.889
 4487SOL    HW115235  14.564  12.712   2.957
 4487SOL    HW215236  14.613  12.804   2.848
 4488SOL     OW15237  11.262   3.867  14.793
 4488SOL    HW115238  11.244   3.888  14.701
 4488SOL    HW215239  11.343   3.817  14.791
 4489SOL     OW15240  12.495   9.486   2.903
 4489SOL    HW115241  12.467   9.396   2.886
 4489SOL    HW215242  12.489   9.496   2.998
 4490SOL     OW15243  13.673   1.414   5.372
 4490SOL    HW115244  13.691   1.331   5.417
 4490SOL    HW215245  13.600   1.394   5.314
 4491SOL     OW15246   3.675  11.615  14.144
 4491SOL    HW115247   3.728  11.638  14.220
 4491SOL    HW215248   3.602  11.677  14.146
 4492SOL     OW15249   5.370   4.285  12.311
 4492SOL    HW115250   5.369   4.309  12.404
 4492SOL    HW215251   5.289   4.323  12.276
 4493SOL     OW15252  13.527   1.347   1.263
 4493SOL    HW115253  13.469   1.279   1.298
 4493SOL    HW215254  13.600   1.299   1.225
 4494SOL     OW15255   6.952   2.487   4.923
 4494SOL    HW115256   7.041   2.472   4.890
 4494SOL    HW215257   6.965   2.531   5.007
 4495SOL     OW15258  12.392   4.716   1.614
 4495SOL    HW115259  12.384   4.761   1.698
 4495SOL    HW215260  12.471   4.663   1.622
 4496SOL     OW15261   4.773  12.918  11.588
 4496SOL    HW115262   4.810  12.994  11.542
 4496SOL    HW215263   4.849  12.868  11.616
 4497SOL     OW15264  14.299   3.849   3.905
 4497SOL    HW115265  14.279   3.781   3.841
 4497SOL    HW215266  14.385   3.824   3.939
 4498SOL     OW15267   8.548   3.226   3.790
 4498SOL    HW115268   8.533   3.314   3.824
 4498SOL    HW215269   8.634   3.231   3.748
 4499SOL     OW15270   1.094   0.433   7.055
 4499SOL    HW115271   1.063   0.517   7.088
 4499SOL    HW215272   1.190   0.438   7.061
 4500SOL     OW15273  11.607   2.467   8.286
 4500SOL    HW115274  11.590   2.431   8.373
 4500SOL    HW215275  11.662   2.402   8.243
 4501SOL     OW15276   6.365  10.985   9.526
 4501SOL    HW115277   6.373  10.890   9.526
 4501SOL    HW215278   6.389  11.011   9.615
 4502SOL     OW15279   2.948   7.481   7.250
 4502SOL    HW115280   3.014   7.431   7.297
 4502SOL    HW215281   2.941   7.437   7.165
 4503SOL     OW15282   9.891  12.694  12.711
 4503SOL    HW115283   9.859  12.762  12.771
 4503SOL    HW215284   9.840  12.616  12.734
 4504SOL     OW15285  11.689  10.250  10.488
 4504SOL    HW115286  11.711  10.263  10.580
 4504SOL    HW215287  11.602  10.209  10.489
 4505SOL     OW15288  10.809   3.910   6.121
 4505SOL    HW115289  10.718   3.939   6.130
 4505SOL    HW215290  10.806   3.816   6.141
 4506SOL     OW15291  14.281   8.921  10.024
 4506SOL    HW115292  14.255   8.962   9.941
 4506SOL    HW215293  14.288   8.828  10.004
 4507SOL     OW15294   9.880  14.092  14.149
 4507SOL    HW115295   9.884  14.010  14.197
 4507SOL    HW215296   9.928  14.075  14.068
 4508SOL     OW15297   9.757   1.377  12.722
 4508SOL    HW115298   9.727   1.296  12.681
 4508SOL    HW215299   9.754   1.359  12.816
 4509SOL     OW15300   2.351  10.198   0.718
 4509SOL    HW115301   2.447  10.201   0.722
 4509SOL    HW215302   2.332  10.129   0.655
 4510SOL     OW15303   6.610   7.535   3.891
 4510SOL    HW115304   6.608   7.569   3.802
 4510SOL    HW215305   6.661   7.454   3.885
 4511SOL     OW15306   8.788  11.262   6.991
 4511SOL    HW115307   8.748  11.223   6.913
 4511SOL    HW215308   8.801  11.189   7.051
 4512SOL     OW15309   1.688  12.158  10.959
 4512SOL    HW115310   1.640  12.236  10.931
 4512SOL    HW215311   1.761  12.193  11.011
 4513SOL     OW15312  10.891  11.508   5.327
 4513SOL    HW115313  10.850  11.581   5.281
 4513SOL    HW215314  10.909  11.542   5.415
 4514SOL     OW15315   9.968   2.404   7.558
 4514SOL    HW115316   9.902   2.338   7.541
 4514SOL    HW215317  10.045   2.355   7.587
 4515SOL     OW15318   6.961  13.114   5.360
 4515SOL    HW115319   7.055  13.128   5.372
 4515SOL    HW215320   6.943  13.144   5.271
 4516SOL     OW15321   0.160   2.268  11.731
 4516SOL    HW115322   0.168   2.175  11.752
 4516SOL    HW215323   0.157   2.271  11.636
 4517SOL     OW15324   0.635   8.901   8.773
 4517SOL    HW115325   0.695   8.896   8.847
 4517SOL    HW215326   0.676   8.848   8.705
 4518SOL     OW15327   2.817  10.702  11.571
 4518SOL    HW115328   2.908  10.696  11.600
 4518SOL    HW215329   2.770  10.637  11.625
 4519SOL     OW15330   4.789   0.901  14.433
 4519SOL    HW115331   4.751   0.825  14.476
 4519SOL    HW215332   4.806   0.963  14.504
 4520SOL     OW15333   6.895   3.633  12.378
 4520SOL    HW115334   6.973   3.641  12.432
 4520SOL    HW215335   6.927   3.639  12.288
 4521SOL     OW15336   3.054   1.835  10.801
 4521SOL    HW115337   3.141   1.824  10.838
 4521SOL    HW215338   3.068   1.887  10.722
 4522SOL     OW15339   8.489   5.243   0.944
 4522SOL    HW115340   8.490   5.302   0.868
 4522SOL    HW215341   8.502   5.300   1.019
 4523SOL     OW15342   9.196   3.504   8.923
 4523SOL    HW115343   9.218   3.419   8.960
 4523SOL    HW215344   9.103   3.499   8.902
 4524SOL     OW15345   2.939   8.677   8.007
 4524SOL    HW115346   2.907   8.590   8.031
 4524SOL    HW215347   2.921   8.732   8.083
 4525SOL     OW15348   8.036  14.274   1.591
 4525SOL    HW115349   8.016  14.299   1.501
 4525SOL    HW215350   8.060  14.356   1.634
 4526SOL     OW15351   3.998   8.410   0.304
 4526SOL    HW115352   4.070   8.435   0.362
 4526SOL    HW215353   3.939   8.359   0.359
 4527SOL     OW15354  12.715  14.140   2.770
 4527SOL    HW115355  12.647  14.190   2.816
 4527SOL    HW215356  12.763  14.096   2.839
 4528SOL     OW15357  14.321  10.343   6.590
 4528SOL    HW115358  14.339  10.434   6.570
 4528SOL    HW215359  14.353  10.331   6.680
 4529SOL     OW15360  14.072   7.005   8.476
 4529SOL    HW115361  14.078   7.078   8.416
 4529SOL    HW215362  13.980   7.003   8.504
 4530SOL     OW15363   6.762   5.785   7.873
 4530SOL    HW115364   6.782   5.867   7.826
 4530SOL    HW215365   6.744   5.813   7.963
 4531SOL     OW15366   4.112  11.812  13.791
 4531SOL    HW115367   4.120  11.728  13.746
 4531SOL    HW215368   4.191  11.817  13.846
 4532SOL     OW15369   6.079   1.423   1.602
 4532SOL    HW115370   6.118   1.491   1.547
 4532SOL    HW215371   6.004   1.466   1.644
 4533SOL     OW15372   0.672   5.586  10.623
 4533SOL    HW115373   0.718   5.648  10.566
 4533SOL    HW215374   0.580   5.610  10.615
 4534SOL     OW15375  12.729   9.792   9.226
 4534SOL    HW115376  12.702   9.724   9.288
 4534SOL    HW215377  12.806   9.831   9.265
 4535SOL     OW15378  14.842   8.322   0.373
 4535SOL    HW115379  14.870   8.351   0.287
 4535SOL    HW215380  14.830   8.403   0.423
 4536SOL     OW15381   6.936   7.121   7.937
 4536SOL    HW115382   6.980   7.041   7.907
 4536SOL    HW215383   6.877   7.144   7.864
 4537SOL     OW15384  13.234   4.878   6.236
 4537SOL    HW115385  13.204   4.827   6.311
 4537SOL    HW215386  13.325   4.852   6.224
 4538SOL     OW15387   0.345  12.090   7.448
 4538SOL    HW115388   0.391  12.146   7.510
 4538SOL    HW215389   0.252  12.112   7.459
 4539SOL     OW15390   2.176  10.740   3.219
 4539SOL    HW115391   2.165  10.766   3.127
 4539SOL    HW215392   2.087  10.724   3.250
 4540SOL     OW15393  11.671   9.755   0.711
 4540SOL    HW115394  11.634   9.832   0.668
 4540SOL    HW215395  11.629   9.754   0.798
 4541SOL     OW15396   4.714   6.010  11.767
 4541SOL    HW115397   4.786   6.066  11.738
 4541SOL    HW215398   4.726   5.928  11.719
 4542SOL     OW15399   6.943  11.962  11.294
 4542SOL    HW115400   6.870  11.921  11.248
 4542SOL    HW215401   6.987  11.889  11.339
 4543SOL     OW15402   3.279   4.264  14.493
 4543SOL    HW115403   3.291   4.354  14.462
 4543SOL    HW215404   3.312   4.265  14.582
 4544SOL     OW15405  11.139   2.434  13.570
 4544SOL    HW115406  11.213   2.458  13.626
 4544SOL    HW215407  11.169   2.357  13.522
 4545SOL     OW15408  11.042   9.011   9.499
 4545SOL    HW115409  11.079   9.093   9.465
 4545SOL    HW215410  11.017   9.032   9.589
 4546SOL     OW15411   7.600   4.784   3.188
 4546SOL    HW115412   7.667   4.775   3.256
 4546SOL    HW215413   7.640   4.745   3.110
 4547SOL     OW15414   5.383   0.203  13.663
 4547SOL    HW115415   5.461   0.152  13.639
 4547SOL    HW215416   5.396   0.287  13.620
 4548SOL     OW15417   9.389   4.390  14.055
 4548SOL    HW115418   9.403   4.298  14.035
 4548SOL    HW215419   9.417   4.399  14.147
 4549SOL     OW15420  10.932   4.357   1.431
 4549SOL    HW115421  10.862   4.419   1.453
 4549SOL    HW215422  10.921   4.342   1.337
 4550SOL     OW15423  11.911   3.393   8.848
 4550SOL    HW115424  11.822   3.362   8.863
 4550SOL    HW215425  11.964   3.313   8.845
 4551SOL     OW15426   4.805  11.049   1.275
 4551SOL    HW115427   4.819  10.977   1.337
 4551SOL    HW215428   4.744  11.108   1.320
 4552SOL     OW15429   8.552   9.111  11.897
 4552SOL    HW115430   8.584   9.161  11.973
 4552SOL    HW215431   8.607   9.033  11.896
 4553SOL     OW15432   0.178   8.284  13.692
 4553SOL    HW115433   0.198   8.234  13.613
 4553SOL    HW215434   0.221   8.236  13.762
 4554SOL     OW15435  12.897   1.661   9.411
 4554SOL    HW115436  12.988   1.640   9.433
 4554SOL    HW215437  12.871   1.593   9.349
 4555SOL     OW15438   8.312  10.315  14.795
 4555SOL    HW115439   8.374  10.268  14.852
 4555SOL    HW215440   8.354  10.400  14.779
 4556SOL     OW15441   9.668   9.301  10.625
 4556SOL    HW115442   9.720   9.261  10.694
 4556SOL    HW215443   9.605   9.233  10.600
 4557SOL     OW15444   9.437   1.329  13.358
 4557SOL    HW115445   9.441   1.418  13.324
 4557SOL    HW215446   9.421   1.274  13.281
 4558SOL     OW15447   7.563   5.325  12.409
 4558SOL    HW115448   7.574   5.399  12.350
 4558SOL    HW215449   7.649   5.311  12.447
 4559SOL     OW15450   5.549   4.779  13.794
 4559SOL    HW115451   5.507   4.698  13.763
 4559SOL    HW215452   5.510   4.795  13.880
 4560SOL     OW15453   2.483   8.716  12.087
 4560SOL    HW115454   2.552   8.695  12.024
 4560SOL    HW215455   2.403   8.720  12.034
 4561SOL     OW15456   8.797  13.021   1.185
 4561SOL    HW115457   8.870  13.083   1.190
 4561SOL    HW215458   8.724  13.072   1.149
 4562SOL     OW15459   8.687  10.152   5.695
 4562SOL    HW115460   8.619  10.219   5.699
 4562SOL    HW215461   8.691  10.116   5.784
 4563SOL     OW15462   0.886   4.809   4.479
 4563SOL    HW115463   0.864   4.737   4.540
 4563SOL    HW215464   0.916   4.880   4.536
 4564SOL     OW15465  13.935  14.450   4.233
 4564SOL    HW115466  13.861  14.510   4.230
 4564SOL    HW215467  14.012  14.506   4.221
 4565SOL     OW15468   3.141  13.362  13.393
 4565SOL    HW115469   3.048  13.353  13.371
 4565SOL    HW215470   3.160  13.455  13.376
 4566SOL     OW15471  10.620   7.386  11.650
 4566SOL    HW115472  10.613   7.471  11.606
 4566SOL    HW215473  10.548   7.387  11.714
 4567SOL     OW15474  14.810   5.716   4.883
 4567SOL    HW115475  14.840   5.726   4.973
 4567SOL    HW215476   0.009   5.719   4.831
 4568SOL     OW15477  10.229   2.296   7.471
 4568SOL    HW115478  10.233   2.202   7.491
 4568SOL    HW215479  10.217   2.300   7.376
 4569SOL     OW15480   2.409   6.876   9.016
 4569SOL    HW115481   2.425   6.793   8.972
 4569SOL    HW215482   2.363   6.929   8.951
 4570SOL     OW15483   8.455   7.041   8.719
 4570SOL    HW115484   8.406   6.962   8.742
 4570SOL    HW215485   8.389   7.108   8.708
 4571SOL     OW15486   5.542   3.176   3.547
 4571SOL    HW115487   5.456   3.139   3.566
 4571SOL    HW215488   5.584   3.184   3.633
 4572SOL     OW15489  11.503  10.435   8.315
 4572SOL    HW115490  11.444  10.418   8.242
 4572SOL    HW215491  11.446  10.469   8.384
 4573SOL     OW15492   3.592   3.006  12.420
 4573SOL    HW115493   3.576   2.924  12.373
 4573SOL    HW215494   3.609   2.979  12.510
 4574SOL     OW15495   0.772   9.593   9.255
 4574SOL    HW115496   0.855   9.544   9.261
 4574SOL    HW215497   0.749   9.591   9.163
 4575SOL     OW15498  13.489  10.327  11.366
 4575SOL    HW115499  13.563  10.278  11.402
 4575SOL    HW215500  13.469  10.393  11.433
 4576SOL     OW15501   3.445  10.466   5.489
 4576SOL    HW115502   3.352  10.481   5.474
 4576SOL    HW215503   3.475  10.546   5.532
 4577SOL     OW15504   8.632  10.353   0.202
 4577SOL    HW115505   8.636  10.372   0.108
 4577SOL    HW215506   8.583  10.271   0.208
 4578SOL     OW15507  11.206  14.226   2.745
 4578SOL    HW115508  11.217  14.182   2.661
 4578SOL    HW215509  11.292  14.218   2.788
 4579SOL     OW15510  13.097   1.571   4.038
 4579SOL    HW115511  13.103   1.494   4.095
 4579SOL    HW215512  13.181   1.575   3.994
 4580SOL     OW15513  13.022   6.682   5.651
 4580SOL    HW115514  13.042   6.713   5.562
 4580SOL    HW215515  13.106   6.654   5.686
 4581SOL     OW15516   5.699   1.444   9.953
 4581SOL    HW115517   5.647   1.436   9.873
 4581SOL    HW215518   5.652   1.507  10.007
 4582SOL     OW15519  13.588   5.086   3.229
 4582SOL    HW115520  13.507   5.089   3.178
 4582SOL    HW215521  13.655   5.058   3.166
 4583SOL     OW15522   6.334  12.297  14.391
 4583SOL    HW115523   6.322  12.258  14.304
 4583SOL    HW215524   6.342  12.222  14.450
 4584SOL     OW15525  12.504   2.869   7.166
 4584SOL    HW115526  12.426   2.814   7.166
 4584SOL    HW215527  12.546   2.851   7.250
 4585SOL     OW15528   2.769   3.793  11.740
 4585SOL    HW115529   2.752   3.883  11.769
 4585SOL    HW215530   2.682   3.753  11.737
 4586SOL     OW15531   6.630   2.011   2.694
 4586SOL    HW115532   6.639   1.928   2.646
 4586SOL    HW215533   6.559   2.056   2.649
 4587SOL     OW15534  10.600  11.645   2.494
 4587SOL    HW115535  10.685  11.612   2.522
 4587SOL    HW215536  10.563  11.686   2.573
 4588SOL     OW15537  10.819   4.078   7.002
 4588SOL    HW115538  10.908   4.113   6.992
 4588SOL    HW215539  10.784   4.077   6.913
 4589SOL     OW15540   2.141   9.553   0.597
 4589SOL    HW115541   2.107   9.509   0.519
 4589SOL    HW215542   2.197   9.622   0.563
 4590SOL     OW15543  12.475  12.947   2.648
 4590SOL    HW115544  12.534  13.000   2.594
 4590SOL    HW215545  12.406  13.007   2.674
 4591SOL     OW15546  14.801  12.200  13.147
 4591SOL    HW115547   0.008  12.169  13.130
 4591SOL    HW215548  14.774  12.244  13.067
 4592SOL     OW15549   4.096   8.141   3.448
 4592SOL    HW115550   4.025   8.109   3.393
 4592SOL    HW215551   4.176   8.112   3.404
 4593SOL     OW15552   7.300   0.654   1.234
 4593SOL    HW115553   7.209   0.623   1.225
 4593SOL    HW215554   7.297   0.714   1.308
 4594SOL     OW15555  13.526   7.205  13.829
 4594SOL    HW115556  13.482   7.162  13.756
 4594SOL    HW215557  13.499   7.155  13.906
 4595SOL     OW15558  14.397   7.951  11.774
 4595SOL    HW115559  14.361   8.033  11.805
 4595SOL    HW215560  14.401   7.895  11.852
 4596SOL     OW15561   2.154   9.149  14.401
 4596SOL    HW115562   2.210   9.079  14.435
 4596SOL    HW215563   2.148   9.212  14.474
 4597SOL     OW15564   0.729  12.666   8.648
 4597SOL    HW115565   0.815  12.703   8.666
 4597SOL    HW215566   0.703  12.625   8.731
 4598SOL     OW15567   2.932   1.422   7.401
 4598SOL    HW115568   2.996   1.443   7.333
 4598SOL    HW215569   2.849   1.414   7.354
 4599SOL     OW15570   0.228   4.283  14.265
 4599SOL    HW115571   0.247   4.255  14.176
 4599SOL    HW215572   0.310   4.320  14.297
 4600SOL     OW15573   5.595   0.525   1.974
 4600SOL    HW115574   5.579   0.538   2.067
 4600SOL    HW215575   5.589   0.430   1.961
 4601SOL     OW15576  10.651   6.869  10.347
 4601SOL    HW115577  10.660   6.960  10.317
 4601SOL    HW215578  10.558   6.859  10.365
 4602SOL     OW15579  11.129   8.386   3.649
 4602SOL    HW115580  11.170   8.463   3.689
 4602SOL    HW215581  11.049   8.420   3.609
 4603SOL     OW15582   9.464   0.363  10.529
 4603SOL    HW115583   9.449   0.284  10.581
 4603SOL    HW215584   9.419   0.432  10.578
 4604SOL     OW15585   6.428   0.956   5.756
 4604SOL    HW115586   6.437   1.044   5.793
 4604SOL    HW215587   6.364   0.967   5.686
 4605SOL     OW15588  10.726   3.919   5.260
 4605SOL    HW115589  10.646   3.869   5.245
 4605SOL    HW215590  10.721   3.945   5.352
 4606SOL     OW15591   8.652   7.336   8.524
 4606SOL    HW115592   8.710   7.293   8.586
 4606SOL    HW215593   8.709   7.399   8.478
 4607SOL     OW15594   5.043  11.800   5.840
 4607SOL    HW115595   5.012  11.775   5.927
 4607SOL    HW215596   5.063  11.894   5.847
 4608SOL     OW15597   5.541   1.407   1.040
 4608SOL    HW115598   5.507   1.323   1.009
 4608SOL    HW215599   5.632   1.388   1.065
 4609SOL     OW15600   5.111   8.552   0.891
 4609SOL    HW115601   5.092   8.572   0.799
 4609SOL    HW215602   5.164   8.626   0.921
 4610SOL     OW15603   3.169   2.229   2.245
 4610SOL    HW115604   3.242   2.243   2.184
 4610SOL    HW215605   3.116   2.308   2.238
 4611SOL     OW15606   2.232  11.582  12.005
 4611SOL    HW115607   2.251  11.508  11.946
 4611SOL    HW215608   2.295  11.649  11.979
 4612SOL     OW15609   9.295   5.294   7.673
 4612SOL    HW115610   9.372   5.323   7.624
 4612SOL    HW215611   9.237   5.370   7.672
 4613SOL     OW15612   2.045   0.908   8.852
 4613SOL    HW115613   1.994   0.969   8.799
 4613SOL    HW215614   2.059   0.833   8.795
 4614SOL     OW15615  11.502   1.508  11.107
 4614SOL    HW115616  11.492   1.531  11.199
 4614SOL    HW215617  11.597   1.509  11.092
 4615SOL     OW15618  13.173   5.875   7.671
 4615SOL    HW115619  13.176   5.907   7.581
 4615SOL    HW215620  13.124   5.793   7.665
 4616SOL     OW15621   0.880   5.676   1.378
 4616SOL    HW115622   0.847   5.668   1.288
 4616SOL    HW215623   0.936   5.599   1.390
 4617SOL     OW15624   2.452   5.647   8.149
 4617SOL    HW115625   2.372   5.595   8.152
 4617SOL    HW215626   2.491   5.636   8.235
 4618SOL     OW15627  11.906  12.587   4.908
 4618SOL    HW115628  11.976  12.651   4.900
 4618SOL    HW215629  11.832  12.624   4.859
 4619SOL     OW15630   5.109   3.358  12.384
 4619SOL    HW115631   5.110   3.452  12.403
 4619SOL    HW215632   5.025   3.343  12.339
 4620SOL     OW15633   7.928   5.402   9.022
 4620SOL    HW115634   7.889   5.351   9.093
 4620SOL    HW215635   7.927   5.492   9.055
 4621SOL     OW15636   3.645   1.410  11.256
 4621SOL    HW115637   3.673   1.335  11.309
 4621SOL    HW215638   3.571   1.447  11.305
 4622SOL     OW15639   2.682   3.987   6.417
 4622SOL    HW115640   2.735   4.057   6.454
 4622SOL    HW215641   2.745   3.928   6.377
 4623SOL     OW15642   1.739   1.683  13.987
 4623SOL    HW115643   1.738   1.775  14.014
 4623SOL    HW215644   1.647   1.660  13.975
 4624SOL     OW15645   9.247   0.353  10.862
 4624SOL    HW115646   9.171   0.411  10.876
 4624SOL    HW215647   9.288   0.387  10.783
 4625SOL     OW15648   6.285   8.825  11.983
 4625SOL    HW115649   6.371   8.864  11.998
 4625SOL    HW215650   6.234   8.894  11.940
 4626SOL     OW15651  12.888  12.049  10.764
 4626SOL    HW115652  12.835  12.068  10.841
 4626SOL    HW215653  12.829  12.065  10.690
 4627SOL     OW15654   4.411   8.742  11.202
 4627SOL    HW115655   4.436   8.833  11.211
 4627SOL    HW215656   4.489   8.693  11.226
 4628SOL     OW15657   5.271   3.012  12.968
 4628SOL    HW115658   5.325   3.022  12.890
 4628SOL    HW215659   5.183   3.035  12.939
 4629SOL     OW15660   9.799  12.777  10.669
 4629SOL    HW115661   9.766  12.816  10.750
 4629SOL    HW215662   9.720  12.754  10.619
 4630SOL     OW15663  11.489   2.217   0.206
 4630SOL    HW115664  11.396   2.232   0.191
 4630SOL    HW215665  11.531   2.238   0.123
 4631SOL     OW15666   5.683   0.834  14.373
 4631SOL    HW115667   5.707   0.877  14.455
 4631SOL    HW215668   5.621   0.766  14.399
 4632SOL     OW15669  11.070  14.682  11.697
 4632SOL    HW115670  11.041  14.595  11.724
 4632SOL    HW215671  11.159  14.690  11.731
 4633SOL     OW15672   9.844   8.821   1.654
 4633SOL    HW115673   9.834   8.729   1.681
 4633SOL    HW215674   9.939   8.832   1.643
 4634SOL     OW15675  10.574   7.964   6.550
 4634SOL    HW115676  10.577   7.887   6.607
 4634SOL    HW215677  10.666   7.990   6.542
 4635SOL     OW15678  14.630  13.896  14.438
 4635SOL    HW115679  14.594  13.927  14.355
 4635SOL    HW215680  14.604  13.804  14.442
 4636SOL     OW15681  13.641  10.322   0.674
 4636SOL    HW115682  13.644  10.362   0.760
 4636SOL    HW215683  13.725  10.343   0.634
 4637SOL     OW15684  12.338  11.302   8.838
 4637SOL    HW115685  12.313  11.387   8.873
 4637SOL    HW215686  12.259  11.249   8.846
 4638SOL     OW15687   3.596   6.742   9.279
 4638SOL    HW115688   3.645   6.708   9.354
 4638SOL    HW215689   3.616   6.836   9.279
 4639SOL     OW15690  10.331  13.932   3.291
 4639SOL    HW115691  10.247  13.924   3.246
 4639SOL    HW215692  10.391  13.963   3.223
 4640SOL     OW15693  14.250   7.336   0.375
 4640SOL    HW115694  14.223   7.376   0.458
 4640SOL    HW215695  14.283   7.250   0.399
 4641SOL     OW15696   9.630  13.178  11.261
 4641SOL    HW115697   9.615  13.213  11.349
 4641SOL    HW215698   9.694  13.239  11.222
 4642SOL     OW15699  11.476   0.476  13.391
 4642SOL    HW115700  11.568   0.490  13.415
 4642SOL    HW215701  11.440   0.422  13.461
 4643SOL     OW15702   7.434  11.752   3.825
 4643SOL    HW115703   7.357  11.711   3.786
 4643SOL    HW215704   7.507  11.696   3.799
 4644SOL     OW15705   7.133  13.838   0.096
 4644SOL    HW115706   7.207  13.841   0.035
 4644SOL    HW215707   7.055  13.845   0.040
 4645SOL     OW15708   8.152  12.483   5.549
 4645SOL    HW115709   8.071  12.500   5.597
 4645SOL    HW215710   8.151  12.548   5.479
 4646SOL     OW15711   2.467   8.229   1.351
 4646SOL    HW115712   2.490   8.155   1.295
 4646SOL    HW215713   2.547   8.247   1.401
 4647SOL     OW15714   6.562   3.734   2.650
 4647SOL    HW115715   6.638   3.792   2.641
 4647SOL    HW215716   6.555   3.718   2.744
 4648SOL     OW15717  12.595   4.826   0.000
 4648SOL    HW115718  12.600   4.847  14.788
 4648SOL    HW215719  12.672   4.770   0.016
 4649SOL     OW15720  11.526   9.669   2.365
 4649SOL    HW115721  11.471   9.738   2.329
 4649SOL    HW215722  11.470   9.626   2.430
 4650SOL     OW15723   1.803  10.325   1.918
 4650SOL    HW115724   1.765  10.403   1.958
 4650SOL    HW215725   1.864  10.359   1.852
 4651SOL     OW15726   5.300  10.037   1.308
 4651SOL    HW115727   5.365  10.012   1.373
 4651SOL    HW215728   5.298  10.133   1.312
 4652SOL     OW15729   3.386   8.733   8.016
 4652SOL    HW115730   3.445   8.809   8.011
 4652SOL    HW215731   3.300   8.769   7.992
 4653SOL     OW15732   7.497   7.593   3.347
 4653SOL    HW115733   7.512   7.674   3.394
 4653SOL    HW215734   7.496   7.618   3.255
 4654SOL     OW15735   2.919   0.041   0.232
 4654SOL    HW115736   2.932  14.845   0.179
 4654SOL    HW215737   2.832   0.073   0.208
 4655SOL     OW15738   3.285   3.401   4.624
 4655SOL    HW115739   3.377   3.418   4.644
 4655SOL    HW215740   3.257   3.337   4.690
 4656SOL     OW15741   5.858   1.886   1.755
 4656SOL    HW115742   5.919   1.879   1.829
 4656SOL    HW215743   5.803   1.809   1.762
 4657SOL     OW15744  11.155   3.731  11.266
 4657SOL    HW115745  11.231   3.735  11.324
 4657SOL    HW215746  11.180   3.784  11.190
 4658SOL     OW15747  13.533  13.603  14.412
 4658SOL    HW115748  13.570  13.570  14.494
 4658SOL    HW215749  13.440  13.616  14.431
 4659SOL     OW15750   1.643   8.254  10.643
 4659SOL    HW115751   1.709   8.291  10.702
 4659SOL    HW215752   1.688   8.183  10.598
 4660SOL     OW15753  12.380   3.973   4.505
 4660SOL    HW115754  12.407   3.974   4.597
 4660SOL    HW215755  12.463   3.977   4.456
 4661SOL     OW15756   9.340   4.819   8.010
 4661SOL    HW115757   9.314   4.902   8.049
 4661SOL    HW215758   9.425   4.836   7.970
 4662SOL     OW15759  10.310   0.939   7.809
 4662SOL    HW115760  10.227   0.970   7.845
 4662SOL    HW215761  10.376   0.993   7.852
 4663SOL     OW15762  14.130   1.226   2.237
 4663SOL    HW115763  14.164   1.269   2.158
 4663SOL    HW215764  14.206   1.181   2.274
 4664SOL     OW15765   0.563  14.671   6.958
 4664SOL    HW115766   0.530  14.581   6.961
 4664SOL    HW215767   0.555  14.696   6.866
 4665SOL     OW15768   5.955   3.100   0.470
 4665SOL    HW115769   5.901   3.173   0.440
 4665SOL    HW215770   5.946   3.034   0.401
 4666SOL     OW15771   3.177   5.720   6.938
 4666SOL    HW115772   3.099   5.665   6.932
 4666SOL    HW215773   3.150   5.792   6.996
 4667SOL     OW15774   5.531  13.745  13.066
 4667SOL    HW115775   5.586  13.732  12.989
 4667SOL    HW215776   5.462  13.805  13.036
 4668SOL     OW15777   4.719   2.491  14.143
 4668SOL    HW115778   4.761   2.544  14.075
 4668SOL    HW215779   4.626   2.509  14.134
 4669SOL     OW15780   1.199   0.090  11.532
 4669SOL    HW115781   1.214   0.178  11.566
 4669SOL    HW215782   1.165   0.104  11.443
 4670SOL     OW15783  11.803   6.839   4.717
 4670SOL    HW115784  11.812   6.858   4.624
 4670SOL    HW215785  11.825   6.922   4.761
 4671SOL     OW15786  10.221  12.655  11.483
 4671SOL    HW115787  10.228  12.653  11.387
 4671SOL    HW215788  10.196  12.745  11.503
 4672SOL     OW15789  11.987  13.629  13.956
 4672SOL    HW115790  11.960  13.583  13.877
 4672SOL    HW215791  12.027  13.710  13.925
 4673SOL     OW15792   1.168  10.565   1.698
 4673SOL    HW115793   1.231  10.494   1.694
 4673SOL    HW215794   1.218  10.643   1.672
 4674SOL     OW15795   9.359   2.253   5.985
 4674SOL    HW115796   9.349   2.159   5.976
 4674SOL    HW215797   9.274   2.289   5.959
 4675SOL     OW15798  13.685  12.158  13.601
 4675SOL    HW115799  13.691  12.063  13.593
 4675SOL    HW215800  13.616  12.183  13.540
 4676SOL     OW15801   6.856   5.320   6.876
 4676SOL    HW115802   6.856   5.239   6.928
 4676SOL    HW215803   6.795   5.301   6.805
 4677SOL     OW15804  12.654   5.716  14.709
 4677SOL    HW115805  12.733   5.701  14.761
 4677SOL    HW215806  12.592   5.756  14.771
 4678SOL     OW15807   4.039  12.086  10.496
 4678SOL    HW115808   4.084  12.116  10.417
 4678SOL    HW215809   4.050  11.991  10.495
 4679SOL     OW15810  11.176  11.642   5.525
 4679SOL    HW115811  11.115  11.592   5.580
 4679SOL    HW215812  11.154  11.733   5.541
 4680SOL     OW15813   1.361  12.255   0.527
 4680SOL    HW115814   1.316  12.171   0.536
 4680SOL    HW215815   1.302  12.318   0.569
 4681SOL     OW15816  13.064   9.662   9.544
 4681SOL    HW115817  13.078   9.745   9.589
 4681SOL    HW215818  13.139   9.607   9.570
 4682SOL     OW15819   1.813   3.504  10.946
 4682SOL    HW115820   1.806   3.557  10.866
 4682SOL    HW215821   1.792   3.565  11.017
 4683SOL     OW15822   2.685   5.514   9.209
 4683SOL    HW115823   2.635   5.439   9.242
 4683SOL    HW215824   2.623   5.564   9.157
 4684SOL     OW15825   4.544  13.279  10.685
 4684SOL    HW115826   4.592  13.223  10.747
 4684SOL    HW215827   4.548  13.231  10.602
 4685SOL     OW15828  12.618  10.500   9.028
 4685SOL    HW115829  12.606  10.595   9.037
 4685SOL    HW215830  12.537  10.469   8.989
 4686SOL     OW15831  12.306   9.139   2.533
 4686SOL    HW115832  12.251   9.062   2.515
 4686SOL    HW215833  12.391   9.116   2.496
 4687SOL     OW15834  10.065  13.532  13.416
 4687SOL    HW115835  10.121  13.456  13.398
 4687SOL    HW215836   9.980  13.494  13.440
 4688SOL     OW15837   3.850   7.681   3.512
 4688SOL    HW115838   3.858   7.629   3.592
 4688SOL    HW215839   3.932   7.731   3.507
 4689SOL     OW15840   9.103   7.810   7.156
 4689SOL    HW115841   9.031   7.871   7.173
 4689SOL    HW215842   9.137   7.837   7.071
 4690SOL     OW15843  12.821   7.605   1.828
 4690SOL    HW115844  12.734   7.568   1.844
 4690SOL    HW215845  12.809   7.662   1.752
 4691SOL     OW15846   0.995  14.272   3.849
 4691SOL    HW115847   1.083  14.291   3.882
 4691SOL    HW215848   0.983  14.333   3.776
 4692SOL     OW15849   8.007  10.437  12.459
 4692SOL    HW115850   7.926  10.460  12.412
 4692SOL    HW215851   8.010  10.342  12.456
 4693SOL     OW15852   6.469   8.558   3.256
 4693SOL    HW115853   6.414   8.634   3.235
 4693SOL    HW215854   6.552   8.578   3.213
 4694SOL     OW15855   8.474  10.301   9.644
 4694SOL    HW115856   8.480  10.371   9.709
 4694SOL    HW215857   8.540  10.238   9.672
 4695SOL     OW15858   8.242  14.019  14.605
 4695SOL    HW115859   8.190  14.025  14.524
 4695SOL    HW215860   8.321  14.069  14.587
 4696SOL     OW15861  11.121  14.868   9.170
 4696SOL    HW115862  11.062   0.053   9.205
 4696SOL    HW215863  11.169   0.031   9.100
 4697SOL     OW15864   8.490  12.934   8.911
 4697SOL    HW115865   8.418  12.915   8.850
 4697SOL    HW215866   8.542  12.854   8.911
 4698SOL     OW15867   2.700   6.829   7.615
 4698SOL    HW115868   2.735   6.742   7.635
 4698SOL    HW215869   2.605   6.817   7.615
 4699SOL     OW15870   8.044  10.795  13.198
 4699SOL    HW115871   8.041  10.754  13.112
 4699SOL    HW215872   8.110  10.864  13.190
 4700SOL     OW15873   3.403   2.652   8.272
 4700SOL    HW115874   3.351   2.612   8.202
 4700SOL    HW215875   3.490   2.664   8.234
 4701SOL     OW15876   9.932   1.681   0.605
 4701SOL    HW115877   9.961   1.600   0.646
 4701SOL    HW215878   9.838   1.669   0.591
 4702SOL     OW15879  11.552   5.276   2.448
 4702SOL    HW115880  11.504   5.314   2.521
 4702SOL    HW215881  11.523   5.184   2.446
 4703SOL     OW15882  11.281   3.128   9.303
 4703SOL    HW115883  11.256   3.157   9.391
 4703SOL    HW215884  11.363   3.079   9.317
 4704SOL     OW15885   0.414   1.566   1.411
 4704SOL    HW115886   0.348   1.620   1.368
 4704SOL    HW215887   0.418   1.486   1.357
 4705SOL     OW15888   0.757  11.860  11.195
 4705SOL    HW115889   0.737  11.915  11.270
 4705SOL    HW215890   0.762  11.771  11.231
 4706SOL     OW15891   6.059   6.350   7.609
 4706SOL    HW115892   6.101   6.269   7.580
 4706SOL    HW215893   6.124   6.418   7.593
 4707SOL     OW15894   8.130   5.938   5.183
 4707SOL    HW115895   8.082   5.909   5.260
 4707SOL    HW215896   8.161   5.857   5.142
 4708SOL     OW15897   5.830  14.526   9.540
 4708SOL    HW115898   5.754  14.579   9.513
 4708SOL    HW215899   5.792  14.454   9.590
 4709SOL     OW15900   8.993   6.924   6.042
 4709SOL    HW115901   8.995   6.864   6.116
 4709SOL    HW215902   8.901   6.952   6.037
 4710SOL     OW15903   9.794  13.373  12.891
 4710SOL    HW115904   9.839  13.328  12.962
 4710SOL    HW215905   9.701  13.363  12.912
 4711SOL     OW15906   5.668   4.766  11.080
 4711SOL    HW115907   5.688   4.737  10.991
 4711SOL    HW215908   5.739   4.827  11.101
 4712SOL     OW15909   7.748  10.541   5.074
 4712SOL    HW115910   7.776  10.479   5.141
 4712SOL    HW215911   7.654  10.523   5.063
 4713SOL     OW15912  11.725  12.306   8.711
 4713SOL    HW115913  11.659  12.356   8.664
 4713SOL    HW215914  11.741  12.229   8.657
 4714SOL     OW15915   4.541   9.289   6.623
 4714SOL    HW115916   4.480   9.242   6.568
 4714SOL    HW215917   4.608   9.321   6.563
 4715SOL     OW15918  13.523  13.845  14.584
 4715SOL    HW115919  13.500  13.780  14.651
 4715SOL    HW215920  13.514  13.799  14.501
 4716SOL     OW15921   4.124   4.314  11.545
 4716SOL    HW115922   4.048   4.291  11.598
 4716SOL    HW215923   4.170   4.381  11.596
 4717SOL     OW15924   8.941  10.980  12.463
 4717SOL    HW115925   8.867  10.961  12.405
 4717SOL    HW215926   8.903  11.030  12.535
 4718SOL     OW15927   6.286   5.558  11.627
 4718SOL    HW115928   6.190   5.554  11.628
 4718SOL    HW215929   6.312   5.498  11.557
 4719SOL     OW15930   7.713  11.702   9.480
 4719SOL    HW115931   7.743  11.730   9.394
 4719SOL    HW215932   7.788  11.654   9.517
 4720SOL     OW15933   9.005   8.777   2.433
 4720SOL    HW115934   9.012   8.813   2.521
 4720SOL    HW215935   8.985   8.684   2.447
 4721SOL     OW15936  10.171  13.683   7.563
 4721SOL    HW115937  10.183  13.716   7.652
 4721SOL    HW215938  10.169  13.761   7.509
 4722SOL     OW15939   6.077   3.477   4.523
 4722SOL    HW115940   6.034   3.471   4.608
 4722SOL    HW215941   6.170   3.480   4.542
 4723SOL     OW15942   5.972  13.802   8.673
 4723SOL    HW115943   5.924  13.861   8.732
 4723SOL    HW215944   6.008  13.860   8.606
 4724SOL     OW15945  12.337   1.545  11.042
 4724SOL    HW115946  12.290   1.481  11.095
 4724SOL    HW215947  12.281   1.622  11.042
 4725SOL     OW15948   9.337  13.436   8.748
 4725SOL    HW115949   9.257  13.416   8.796
 4725SOL    HW215950   9.385  13.495   8.806
 4726SOL     OW15951   8.596  14.750  14.140
 4726SOL    HW115952   8.680  14.741  14.094
 4726SOL    HW215953   8.559  14.662  14.139
 4727SOL     OW15954  10.735   3.043   7.458
 4727SOL    HW115955  10.693   3.031   7.543
 4727SOL    HW215956  10.824   3.071   7.480
 4728SOL     OW15957  13.320  12.822   9.329
 4728SOL    HW115958  13.238  12.839   9.283
 4728SOL    HW215959  13.294  12.775   9.409
 4729SOL     OW15960   5.048   6.780  12.795
 4729SOL    HW115961   5.049   6.692  12.833
 4729SOL    HW215962   5.012   6.836  12.864
 4730SOL     OW15963   9.054   9.545   2.020
 4730SOL    HW115964   8.998   9.565   2.095
 4730SOL    HW215965   9.103   9.625   2.005
 4731SOL     OW15966   8.764   8.103   8.874
 4731SOL    HW115967   8.847   8.148   8.885
 4731SOL    HW215968   8.778   8.017   8.915
 4732SOL     OW15969   5.148   2.726  11.512
 4732SOL    HW115970   5.066   2.682  11.534
 4732SOL    HW215971   5.182   2.678  11.437
 4733SOL     OW15972  12.737   2.239  12.361
 4733SOL    HW115973  12.728   2.303  12.290
 4733SOL    HW215974  12.818   2.191  12.340
 4734SOL     OW15975   5.478   0.024   1.868
 4734SOL    HW115976   5.536  14.848   1.918
 4734SOL    HW215977   5.435  14.848   1.805
 4735SOL     OW15978   1.981   9.893  11.728
 4735SOL    HW115979   2.013   9.945  11.655
 4735SOL    HW215980   2.040   9.818  11.731
 4736SOL     OW15981   0.906  10.739  12.425
 4736SOL    HW115982   0.998  10.728  12.446
 4736SOL    HW215983   0.860  10.717  12.506
 4737SOL     OW15984   8.370  14.094   2.054
 4737SOL    HW115985   8.423  14.014   2.050
 4737SOL    HW215986   8.397  14.145   1.978
 4738SOL     OW15987  13.117  12.189  12.713
 4738SOL    HW115988  13.148  12.246  12.783
 4738SOL    HW215989  13.155  12.226  12.633
 4739SOL     OW15990   0.315   6.502  12.587
 4739SOL    HW115991   0.285   6.460  12.668
 4739SOL    HW215992   0.301   6.595  12.603
 4740SOL     OW15993  11.567   2.693  10.673
 4740SOL    HW115994  11.645   2.647  10.706
 4740SOL    HW215995  11.512   2.705  10.750
 4741SOL     OW15996  10.840   9.390   3.754
 4741SOL    HW115997  10.826   9.334   3.830
 4741SOL    HW215998  10.760   9.382   3.703
 4742SOL     OW15999   2.828  11.745  11.779
 4742SOL    HW116000   2.773  11.685  11.829
 4742SOL    HW216001   2.767  11.794  11.724
 4743SOL     OW16002   2.201   9.454  11.878
 4743SOL    HW116003   2.192   9.542  11.840
 4743SOL    HW216004   2.293   9.433  11.866
 4744SOL     OW16005   8.732   6.925   5.727
 4744SOL    HW116006   8.740   6.914   5.822
 4744SOL    HW216007   8.643   6.898   5.707
 4745SOL     OW16008  11.781  14.124  12.835
 4745SOL    HW116009  11.814  14.172  12.912
 4745SOL    HW216010  11.727  14.188  12.789
 4746SOL     OW16011   3.468   5.114  12.471
 4746SOL    HW116012   3.463   5.192  12.415
 4746SOL    HW216013   3.560   5.109  12.498
 4747SOL     OW16014   6.905   4.227  12.629
 4747SOL    HW116015   6.968   4.177  12.682
 4747SOL    HW216016   6.823   4.220  12.676
 4748SOL     OW16017   3.748   4.664  10.475
 4748SOL    HW116018   3.706   4.721  10.411
 4748SOL    HW216019   3.816   4.618  10.426
 4749SOL     OW16020   6.252   4.827   4.039
 4749SOL    HW116021   6.333   4.776   4.032
 4749SOL    HW216022   6.203   4.785   4.109
 4750SOL     OW16023   5.806   2.466  12.008
 4750SOL    HW116024   5.890   2.505  11.985
 4750SOL    HW216025   5.753   2.539  12.038
 4751SOL     OW16026   4.331   3.754   6.460
 4751SOL    HW116027   4.246   3.712   6.475
 4751SOL    HW216028   4.394   3.695   6.500
 4752SOL     OW16029   3.498  13.796   0.284
 4752SOL    HW116030   3.441  13.727   0.317
 4752SOL    HW216031   3.541  13.757   0.208
 4753SOL     OW16032  10.351   7.921  11.479
 4753SOL    HW116033  10.370   7.842  11.427
 4753SOL    HW216034  10.314   7.983  11.416
 4754SOL     OW16035  14.728   8.598   1.586
 4754SOL    HW116036  14.673   8.527   1.619
 4754SOL    HW216037  14.731   8.584   1.492
 4755SOL     OW16038   1.623  13.712   6.933
 4755SOL    HW116039   1.691  13.660   6.975
 4755SOL    HW216040   1.576  13.754   7.005
 4756SOL     OW16041   6.800   6.820   8.848
 4756SOL    HW116042   6.855   6.762   8.796
 4756SOL    HW216043   6.756   6.763   8.911
 4757SOL     OW16044   1.793   7.281   7.080
 4757SOL    HW116045   1.704   7.299   7.110
 4757SOL    HW216046   1.830   7.368   7.063
 4758SOL     OW16047   3.782   3.819  13.236
 4758SOL    HW116048   3.702   3.770  13.253
 4758SOL    HW216049   3.753   3.895  13.186
 4759SOL     OW16050   8.657  11.674   8.164
 4759SOL    HW116051   8.583  11.725   8.195
 4759SOL    HW216052   8.631  11.645   8.076
 4760SOL     OW16053   1.523   1.143   5.447
 4760SOL    HW116054   1.554   1.063   5.405
 4760SOL    HW216055   1.573   1.148   5.529
 4761SOL     OW16056   7.453   9.914   5.438
 4761SOL    HW116057   7.489   9.849   5.378
 4761SOL    HW216058   7.501   9.900   5.520
 4762SOL     OW16059  10.888  13.743   3.839
 4762SOL    HW116060  10.802  13.746   3.881
 4762SOL    HW216061  10.940  13.807   3.888
 4763SOL     OW16062   8.027   6.064   0.309
 4763SOL    HW116063   8.038   5.983   0.360
 4763SOL    HW216064   7.934   6.084   0.316
 4764SOL     OW16065   1.461   8.796   0.773
 4764SOL    HW116066   1.456   8.734   0.700
 4764SOL    HW216067   1.490   8.743   0.848
 4765SOL     OW16068   0.262  12.186   3.108
 4765SOL    HW116069   0.286  12.150   3.023
 4765SOL    HW216070   0.167  12.197   3.103
 4766SOL     OW16071   2.270  10.240  10.848
 4766SOL    HW116072   2.241  10.331  10.846
 4766SOL    HW216073   2.234  10.204  10.929
 4767SOL     OW16074   5.404   3.367  13.652
 4767SOL    HW116075   5.366   3.374  13.564
 4767SOL    HW216076   5.333   3.391  13.711
 4768SOL     OW16077  13.964   9.441  10.804
 4768SOL    HW116078  14.037   9.431  10.742
 4768SOL    HW216079  14.001   9.492  10.876
 4769SOL     OW16080   8.543  13.145   1.147
 4769SOL    HW116081   8.498  13.195   1.080
 4769SOL    HW216082   8.476  13.087   1.184
 4770SOL     OW16083   5.369  14.726  13.012
 4770SOL    HW116084   5.413  14.774  13.082
 4770SOL    HW216085   5.276  14.750  13.020
 4771SOL     OW16086   8.033   6.334   1.375
 4771SOL    HW116087   7.967   6.369   1.435
 4771SOL    HW216088   7.996   6.250   1.346
 4772SOL     OW16089   9.395   7.646   9.299
 4772SOL    HW116090   9.469   7.600   9.338
 4772SOL    HW216091   9.419   7.738   9.300
 4773SOL     OW16092   3.006   7.057   3.466
 4773SOL    HW116093   2.922   7.098   3.487
 4773SOL    HW216094   2.988   7.004   3.389
 4774SOL     OW16095   6.457   5.737   8.609
 4774SOL    HW116096   6.512   5.800   8.656
 4774SOL    HW216097   6.419   5.682   8.677
 4775SOL     OW16098   0.994   6.917   3.278
 4775SOL    HW116099   0.941   6.891   3.203
 4775SOL    HW216100   0.949   6.880   3.354
 4776SOL     OW16101  12.330  14.754   6.831
 4776SOL    HW116102  12.264  14.792   6.889
 4776SOL    HW216103  12.413  14.790   6.862
 4777SOL     OW16104   0.935  12.837   8.655
 4777SOL    HW116105   1.027  12.838   8.628
 4777SOL    HW216106   0.890  12.888   8.588
 4778SOL     OW16107   2.378  10.984   5.237
 4778SOL    HW116108   2.325  10.968   5.159
 4778SOL    HW216109   2.438  11.053   5.212
 4779SOL     OW16110   2.749  12.094  13.462
 4779SOL    HW116111   2.825  12.043  13.433
 4779SOL    HW216112   2.782  12.144  13.537
 4780SOL     OW16113   0.100  12.676   5.452
 4780SOL    HW116114   0.066  12.747   5.507
 4780SOL    HW216115   0.114  12.716   5.366
 4781SOL     OW16116   9.371   5.814   5.497
 4781SOL    HW116117   9.326   5.898   5.493
 4781SOL    HW216118   9.311   5.752   5.456
 4782SOL     OW16119   7.604  13.277  13.647
 4782SOL    HW116120   7.572  13.188  13.630
 4782SOL    HW216121   7.529  13.333  13.632
 4783SOL     OW16122   2.459   4.593   0.576
 4783SOL    HW116123   2.503   4.675   0.599
 4783SOL    HW216124   2.515   4.554   0.509
 4784SOL     OW16125  13.572   1.481  12.125
 4784SOL    HW116126  13.605   1.571  12.121
 4784SOL    HW216127  13.623   1.440  12.196
 4785SOL     OW16128   5.099   8.378  10.326
 4785SOL    HW116129   5.077   8.285  10.326
 4785SOL    HW216130   5.124   8.396  10.416
 4786SOL     OW16131   3.895   0.137   7.122
 4786SOL    HW116132   3.988   0.156   7.135
 4786SOL    HW216133   3.894   0.062   7.062
 4787SOL     OW16134  13.388   8.077  12.649
 4787SOL    HW116135  13.350   7.989  12.647
 4787SOL    HW216136  13.472   8.065  12.694
 4788SOL     OW16137   7.587   8.984   1.138
 4788SOL    HW116138   7.601   8.902   1.185
 4788SOL    HW216139   7.675   9.015   1.117
 4789SOL     OW16140   8.321   8.506   9.728
 4789SOL    HW116141   8.414   8.499   9.749
 4789SOL    HW216142   8.287   8.417   9.739
 4790SOL     OW16143  10.563   8.262  13.145
 4790SOL    HW116144  10.552   8.266  13.240
 4790SOL    HW216145  10.502   8.195  13.116
 4791SOL     OW16146   9.506  12.443   8.118
 4791SOL    HW116147   9.449  12.465   8.192
 4791SOL    HW216148   9.578  12.392   8.158
 4792SOL     OW16149   4.823  14.131   9.334
 4792SOL    HW116150   4.870  14.190   9.275
 4792SOL    HW216151   4.767  14.188   9.386
 4793SOL     OW16152  10.411  11.965   3.496
 4793SOL    HW116153  10.345  12.020   3.456
 4793SOL    HW216154  10.492  12.017   3.491
 4794SOL     OW16155  11.086   4.299   5.599
 4794SOL    HW116156  11.099   4.234   5.530
 4794SOL    HW216157  11.147   4.370   5.577
 4795SOL     OW16158   4.265   4.346   0.818
 4795SOL    HW116159   4.291   4.310   0.903
 4795SOL    HW216160   4.181   4.303   0.798
 4796SOL     OW16161   7.495   3.487   3.216
 4796SOL    HW116162   7.547   3.500   3.137
 4796SOL    HW216163   7.498   3.571   3.261
 4797SOL     OW16164   8.895  12.480   8.589
 4797SOL    HW116165   8.835  12.421   8.634
 4797SOL    HW216166   8.845  12.512   8.514
 4798SOL     OW16167   5.465   8.437  10.609
 4798SOL    HW116168   5.538   8.452  10.668
 4798SOL    HW216169   5.404   8.383  10.658
 4799SOL     OW16170   0.666   8.346   8.024
 4799SOL    HW116171   0.625   8.308   8.102
 4799SOL    HW216172   0.741   8.395   8.058
 4800SOL     OW16173  11.193  12.049   5.300
 4800SOL    HW116174  11.151  12.098   5.371
 4800SOL    HW216175  11.121  12.010   5.251
 4801SOL     OW16176  14.182   4.398   6.682
 4801SOL    HW116177  14.235   4.399   6.602
 4801SOL    HW216178  14.195   4.485   6.720
 4802SOL     OW16179  12.316  13.569   9.247
 4802SOL    HW116180  12.269  13.510   9.187
 4802SOL    HW216181  12.395  13.594   9.199
 4803SOL     OW16182  11.102  14.558   2.567
 4803SOL    HW116183  11.192  14.528   2.552
 4803SOL    HW216184  11.050  14.509   2.503
 4804SOL     OW16185   8.759   1.249   4.157
 4804SOL    HW116186   8.737   1.195   4.233
 4804SOL    HW216187   8.850   1.273   4.170
 4805SOL     OW16188  13.952   1.101   4.295
 4805SOL    HW116189  14.047   1.103   4.307
 4805SOL    HW216190  13.934   1.169   4.231
 4806SOL     OW16191   6.421   5.638  11.294
 4806SOL    HW116192   6.414   5.573  11.364
 4806SOL    HW216193   6.440   5.720  11.339
 4807SOL     OW16194   1.675   6.094  10.073
 4807SOL    HW116195   1.628   6.039  10.011
 4807SOL    HW216196   1.702   6.170  10.022
 4808SOL     OW16197  13.872   5.876   4.523
 4808SOL    HW116198  13.795   5.931   4.511
 4808SOL    HW216199  13.876   5.822   4.444
 4809SOL     OW16200   9.278   6.987   3.747
 4809SOL    HW116201   9.218   6.932   3.796
 4809SOL    HW216202   9.365   6.957   3.774
 4810SOL     OW16203  13.782  14.328   2.584
 4810SOL    HW116204  13.752  14.252   2.633
 4810SOL    HW216205  13.710  14.391   2.590
 4811SOL     OW16206  13.551  14.464  11.055
 4811SOL    HW116207  13.636  14.421  11.066
 4811SOL    HW216208  13.495  14.425  11.121
 4812SOL     OW16209   0.708   0.475   4.307
 4812SOL    HW116210   0.686   0.562   4.274
 4812SOL    HW216211   0.648   0.416   4.261
 4813SOL     OW16212  12.170   1.294   0.290
 4813SOL    HW116213  12.228   1.364   0.319
 4813SOL    HW216214  12.219   1.249   0.221
 4814SOL     OW16215   8.532   4.172   2.724
 4814SOL    HW116216   8.529   4.234   2.797
 4814SOL    HW216217   8.503   4.089   2.762
 4815SOL     OW16218   2.477   8.812   4.227
 4815SOL    HW116219   2.415   8.771   4.287
 4815SOL    HW216220   2.526   8.875   4.280
 4816SOL     OW16221  10.004   0.615   3.204
 4816SOL    HW116222   9.926   0.575   3.165
 4816SOL    HW216223   9.999   0.707   3.179
 4817SOL     OW16224  11.553  14.396   3.769
 4817SOL    HW116225  11.526  14.418   3.858
 4817SOL    HW216226  11.470  14.377   3.724
 4818SOL     OW16227   0.073   5.604   3.864
 4818SOL    HW116228   0.072   5.510   3.883
 4818SOL    HW216229   0.060   5.609   3.769
 4819SOL     OW16230   2.764   4.125   3.972
 4819SOL    HW116231   2.690   4.178   3.943
 4819SOL    HW216232   2.841   4.169   3.934
 4820SOL     OW16233   1.685  14.580   3.153
 4820SOL    HW116234   1.769  14.604   3.191
 4820SOL    HW216235   1.678  14.486   3.170
 4821SOL     OW16236   2.338  14.310  13.154
 4821SOL    HW116237   2.330  14.273  13.241
 4821SOL    HW216238   2.283  14.389  13.156
 4822SOL     OW16239   8.458   3.764   8.846
 4822SOL    HW116240   8.497   3.832   8.901
 4822SOL    HW216241   8.423   3.811   8.770
 4823SOL     OW16242   4.210  10.458  10.209
 4823SOL    HW116243   4.172  10.545  10.214
 4823SOL    HW216244   4.302  10.470  10.231
 4824SOL     OW16245   3.419  10.698   0.034
 4824SOL    HW116246   3.342  10.742  14.879
 4824SOL    HW216247   3.466  10.665  14.839
 4825SOL     OW16248   0.792   6.599  10.296
 4825SOL    HW116249   0.766   6.690  10.313
 4825SOL    HW216250   0.888   6.601  10.296
 4826SOL     OW16251   1.371  10.371  12.956
 4826SOL    HW116252   1.365  10.458  12.995
 4826SOL    HW216253   1.393  10.387  12.864
 4827SOL     OW16254   6.296   7.134   3.951
 4827SOL    HW116255   6.272   7.107   4.040
 4827SOL    HW216256   6.321   7.226   3.960
 4828SOL     OW16257  12.760  13.922   4.961
 4828SOL    HW116258  12.764  13.882   5.048
 4828SOL    HW216259  12.851  13.922   4.931
 4829SOL     OW16260   5.569   2.847  10.697
 4829SOL    HW116261   5.590   2.914  10.762
 4829SOL    HW216262   5.627   2.865  10.623
 4830SOL     OW16263   3.418   5.919   0.490
 4830SOL    HW116264   3.425   5.876   0.405
 4830SOL    HW216265   3.362   5.995   0.474
 4831SOL     OW16266  11.285   5.232   5.438
 4831SOL    HW116267  11.265   5.176   5.513
 4831SOL    HW216268  11.367   5.197   5.403
 4832SOL     OW16269   5.570   1.542   2.048
 4832SOL    HW116270   5.622   1.479   1.998
 4832SOL    HW216271   5.630   1.575   2.115
 4833SOL     OW16272   3.455  12.689   2.858
 4833SOL    HW116273   3.373  12.666   2.902
 4833SOL    HW216274   3.455  12.785   2.855
 4834SOL     OW16275  13.196   5.740   1.410
 4834SOL    HW116276  13.145   5.665   1.379
 4834SOL    HW216277  13.146   5.816   1.381
 4835SOL     OW16278  11.278   4.096   1.822
 4835SOL    HW116279  11.298   4.029   1.888
 4835SOL    HW216280  11.280   4.048   1.739
 4836SOL     OW16281   8.479   3.325   0.946
 4836SOL    HW116282   8.567   3.292   0.963
 4836SOL    HW216283   8.426   3.247   0.930
 4837SOL     OW16284   3.382   9.541   8.051
 4837SOL    HW116285   3.372   9.543   8.146
 4837SOL    HW216286   3.306   9.491   8.020
 4838SOL     OW16287   5.898  11.937   2.662
 4838SOL    HW116288   5.964  11.903   2.721
 4838SOL    HW216289   5.830  11.869   2.659
 4839SOL     OW16290   6.041   3.830   7.912
 4839SOL    HW116291   6.012   3.809   8.001
 4839SOL    HW216292   5.984   3.778   7.855
 4840SOL     OW16293  12.934  10.520  12.656
 4840SOL    HW116294  12.897  10.607  12.643
 4840SOL    HW216295  13.019  10.523  12.612
 4841SOL     OW16296   6.749   1.754   9.752
 4841SOL    HW116297   6.726   1.680   9.695
 4841SOL    HW216298   6.757   1.716   9.839
 4842SOL     OW16299   9.258   0.035  13.826
 4842SOL    HW116300   9.200  14.841  13.826
 4842SOL    HW216301   9.271   0.055  13.733
 4843SOL     OW16302  12.243  11.997   2.177
 4843SOL    HW116303  12.255  11.994   2.272
 4843SOL    HW216304  12.151  12.021   2.165
 4844SOL     OW16305   1.109   5.622  11.449
 4844SOL    HW116306   1.118   5.528  11.431
 4844SOL    HW216307   1.179   5.663  11.398
 4845SOL     OW16308   8.440  10.986   8.804
 4845SOL    HW116309   8.394  10.981   8.720
 4845SOL    HW216310   8.380  10.944   8.866
 4846SOL     OW16311   8.783   3.081   6.849
 4846SOL    HW116312   8.725   3.155   6.830
 4846SOL    HW216313   8.868   3.121   6.867
 4847SOL     OW16314   6.444   4.045   7.610
 4847SOL    HW116315   6.358   4.076   7.636
 4847SOL    HW216316   6.490   4.124   7.581
 4848SOL     OW16317  11.883   1.695   0.528
 4848SOL    HW116318  11.887   1.741   0.612
 4848SOL    HW216319  11.955   1.632   0.532
 4849SOL     OW16320  11.729   0.628   6.168
 4849SOL    HW116321  11.684   0.653   6.087
 4849SOL    HW216322  11.789   0.700   6.185
 4850SOL     OW16323   4.554  14.562   3.558
 4850SOL    HW116324   4.494  14.635   3.572
 4850SOL    HW216325   4.586  14.574   3.468
 4851SOL     OW16326  11.818  12.798  14.494
 4851SOL    HW116327  11.809  12.786  14.399
 4851SOL    HW216328  11.900  12.755  14.516
 4852SOL     OW16329  14.544   6.616  13.647
 4852SOL    HW116330  14.531   6.602  13.553
 4852SOL    HW216331  14.459   6.644  13.680
 4853SOL     OW16332   5.993   6.977  11.231
 4853SOL    HW116333   6.078   6.965  11.189
 4853SOL    HW216334   5.981   7.072  11.232
 4854SOL     OW16335   8.323   6.922   6.253
 4854SOL    HW116336   8.280   6.863   6.315
 4854SOL    HW216337   8.416   6.915   6.275
 4855SOL     OW16338   9.412   9.874   7.611
 4855SOL    HW116339   9.490   9.819   7.612
 4855SOL    HW216340   9.410   9.911   7.522
 4856SOL     OW16341  12.916   2.337   1.652
 4856SOL    HW116342  12.935   2.261   1.597
 4856SOL    HW216343  12.871   2.300   1.728
 4857SOL     OW16344  10.540   3.747  14.522
 4857SOL    HW116345  10.465   3.798  14.551
 4857SOL    HW216346  10.502   3.667  14.486
 4858SOL     OW16347  11.851  14.253   7.021
 4858SOL    HW116348  11.919  14.320   7.024
 4858SOL    HW216349  11.773  14.299   6.990
 4859SOL     OW16350  14.363   6.872  14.439
 4859SOL    HW116351  14.373   6.962  14.472
 4859SOL    HW216352  14.290   6.837  14.490
 4860SOL     OW16353   8.774  14.014   6.475
 4860SOL    HW116354   8.705  14.070   6.438
 4860SOL    HW216355   8.821  14.072   6.535
 4861SOL     OW16356   9.863   0.874  10.032
 4861SOL    HW116357   9.775   0.906  10.052
 4861SOL    HW216358   9.913   0.953  10.009
 4862SOL     OW16359   9.463   3.625   3.136
 4862SOL    HW116360   9.374   3.605   3.164
 4862SOL    HW216361   9.457   3.713   3.098
 4863SOL     OW16362   8.088  12.232   9.984
 4863SOL    HW116363   8.135  12.313   9.966
 4863SOL    HW216364   8.077  12.230  10.079
 4864SOL     OW16365   2.724  14.051  12.213
 4864SOL    HW116366   2.694  14.082  12.127
 4864SOL    HW216367   2.813  14.018  12.197
 4865SOL     OW16368   8.026  10.175  13.322
 4865SOL    HW116369   8.004  10.082  13.329
 4865SOL    HW216370   8.038  10.190  13.228
 4866SOL     OW16371   1.660  12.560   1.944
 4866SOL    HW116372   1.593  12.592   1.884
 4866SOL    HW216373   1.611  12.510   2.010
 4867SOL     OW16374  12.686  10.384  14.580
 4867SOL    HW116375  12.695  10.455  14.517
 4867SOL    HW216376  12.600  10.346  14.562
 4868SOL     OW16377   7.731  14.330   5.396
 4868SOL    HW116378   7.646  14.335   5.353
 4868SOL    HW216379   7.791  14.378   5.338
 4869SOL     OW16380   9.318   5.875   0.026
 4869SOL    HW116381   9.383   5.861   0.095
 4869SOL    HW216382   9.234   5.865   0.070
 4870SOL     OW16383   2.038   4.115   0.248
 4870SOL    HW116384   2.042   4.130   0.153
 4870SOL    HW216385   1.974   4.179   0.279
 4871SOL     OW16386   2.174   4.016  10.506
 4871SOL    HW116387   2.179   4.086  10.440
 4871SOL    HW216388   2.141   3.940  10.458
 4872SOL     OW16389   4.537  14.546   2.354
 4872SOL    HW116390   4.509  14.592   2.433
 4872SOL    HW216391   4.633  14.549   2.357
 4873SOL     OW16392  13.660   4.310  13.539
 4873SOL    HW116393  13.592   4.377  13.544
 4873SOL    HW216394  13.740   4.355  13.570
 4874SOL     OW16395  11.778   6.003   8.859
 4874SOL    HW116396  11.784   5.910   8.836
 4874SOL    HW216397  11.814   6.049   8.783
 4875SOL     OW16398  10.764  11.090   8.111
 4875SOL    HW116399  10.757  11.131   8.025
 4875SOL    HW216400  10.682  11.042   8.121
 4876SOL     OW16401  14.565   3.866  14.575
 4876SOL    HW116402  14.508   3.832  14.643
 4876SOL    HW216403  14.571   3.795  14.511
 4877SOL     OW16404  10.160   7.722   0.017
 4877SOL    HW116405  10.195   7.661   0.083
 4877SOL    HW216406  10.143   7.667  14.822
 4878SOL     OW16407  12.459  12.618  11.286
 4878SOL    HW116408  12.386  12.656  11.238
 4878SOL    HW216409  12.424  12.535  11.320
 4879SOL     OW16410   5.996   6.252  10.349
 4879SOL    HW116411   6.078   6.253  10.299
 4879SOL    HW216412   6.005   6.178  10.409
 4880SOL     OW16413   4.579  10.317   9.871
 4880SOL    HW116414   4.528  10.265   9.932
 4880SOL    HW216415   4.665  10.274   9.869
 4881SOL     OW16416  13.591   6.786   9.577
 4881SOL    HW116417  13.563   6.788   9.485
 4881SOL    HW216418  13.680   6.820   9.576
 4882SOL     OW16419   8.511   6.821   0.685
 4882SOL    HW116420   8.455   6.757   0.641
 4882SOL    HW216421   8.579   6.768   0.727
 4883SOL     OW16422  12.446  12.116  14.566
 4883SOL    HW116423  12.453  12.211  14.557
 4883SOL    HW216424  12.526  12.083  14.525
 4884SOL     OW16425   5.154   8.729  13.775
 4884SOL    HW116426   5.140   8.668  13.702
 4884SOL    HW216427   5.101   8.693  13.846
 4885SOL     OW16428  14.222   3.219  10.992
 4885SOL    HW116429  14.254   3.306  10.968
 4885SOL    HW216430  14.166   3.233  11.068
 4886SOL     OW16431   7.951   3.961   3.624
 4886SOL    HW116432   7.971   3.880   3.670
 4886SOL    HW216433   8.010   4.026   3.663
 4887SOL     OW16434  11.082   5.801  10.702
 4887SOL    HW116435  11.016   5.850  10.751
 4887SOL    HW216436  11.142   5.867  10.668
 4888SOL     OW16437   3.789  11.604   8.025
 4888SOL    HW116438   3.812  11.518   7.989
 4888SOL    HW216439   3.871  11.638   8.060
 4889SOL     OW16440   1.962  12.095   8.875
 4889SOL    HW116441   1.918  12.028   8.929
 4889SOL    HW216442   2.043  12.053   8.847
 4890SOL     OW16443   7.244   1.638   8.532
 4890SOL    HW116444   7.185   1.688   8.588
 4890SOL    HW216445   7.331   1.653   8.570
 4891SOL     OW16446  12.336   4.159   9.176
 4891SOL    HW116447  12.355   4.132   9.266
 4891SOL    HW216448  12.402   4.225   9.157
 4892SOL     OW16449  12.284  11.953   8.656
 4892SOL    HW116450  12.244  11.885   8.710
 4892SOL    HW216451  12.356  11.909   8.611
 4893SOL     OW16452   1.936   2.570  12.726
 4893SOL    HW116453   1.994   2.523  12.787
 4893SOL    HW216454   1.897   2.502  12.672
 4894SOL     OW16455  12.927   4.160   0.817
 4894SOL    HW116456  12.966   4.221   0.755
 4894SOL    HW216457  12.839   4.195   0.833
 4895SOL     OW16458  10.178  13.489   9.742
 4895SOL    HW116459  10.170  13.564   9.801
 4895SOL    HW216460  10.125  13.421   9.784
 4896SOL     OW16461  10.597  12.440   5.486
 4896SOL    HW116462  10.542  12.504   5.442
 4896SOL    HW216463  10.550  12.418   5.567
 4897SOL     OW16464   2.329   3.527   5.701
 4897SOL    HW116465   2.256   3.513   5.642
 4897SOL    HW216466   2.406   3.503   5.650
 4898SOL     OW16467  13.176   1.458   7.817
 4898SOL    HW116468  13.104   1.488   7.762
 4898SOL    HW216469  13.135   1.437   7.901
 4899SOL     OW16470   7.877  14.476   5.189
 4899SOL    HW116471   7.883  14.446   5.098
 4899SOL    HW216472   7.967  14.474   5.221
 4900SOL     OW16473  10.858   3.935  10.904
 4900SOL    HW116474  10.783   3.875  10.895
 4900SOL    HW216475  10.865   3.951  10.998
 4901SOL     OW16476  14.862   7.466   9.466
 4901SOL    HW116477  14.797   7.408   9.506
 4901SOL    HW216478  14.849   7.456   9.372
 4902SOL     OW16479   4.030  14.005   0.784
 4902SOL    HW116480   4.047  13.977   0.874
 4902SOL    HW216481   4.090  14.078   0.770
 4903SOL     OW16482   0.011   1.421   9.720
 4903SOL    HW116483  14.873   1.499   9.771
 4903SOL    HW216484   0.040   1.356   9.784
 4904SOL     OW16485   3.784   3.986   9.904
 4904SOL    HW116486   3.834   4.044   9.847
 4904SOL    HW216487   3.745   4.045   9.969
 4905SOL     OW16488  14.390   4.310   6.875
 4905SOL    HW116489  14.326   4.336   6.808
 4905SOL    HW216490  14.371   4.366   6.950
 4906SOL     OW16491   1.880   1.643   7.232
 4906SOL    HW116492   1.860   1.597   7.151
 4906SOL    HW216493   1.799   1.641   7.282
 4907SOL     OW16494   4.907   0.417   7.735
 4907SOL    HW116495   4.870   0.502   7.709
 4907SOL    HW216496   4.941   0.431   7.823
 4908SOL     OW16497  14.016  13.214   1.503
 4908SOL    HW116498  14.083  13.148   1.521
 4908SOL    HW216499  14.039  13.248   1.416
 4909SOL     OW16500  14.252  12.982   2.694
 4909SOL    HW116501  14.184  13.009   2.632
 4909SOL    HW216502  14.205  12.941   2.766
 4910SOL     OW16503   8.569  12.021   4.339
 4910SOL    HW116504   8.602  12.106   4.309
 4910SOL    HW216505   8.488  12.008   4.291
 4911SOL     OW16506  12.133   9.498   5.361
 4911SOL    HW116507  12.094   9.433   5.303
 4911SOL    HW216508  12.118   9.463   5.449
 4912SOL     OW16509   4.382  13.950  14.487
 4912SOL    HW116510   4.303  13.900  14.506
 4912SOL    HW216511   4.454  13.890  14.509
 4913SOL     OW16512  14.042   2.699  12.279
 4913SOL    HW116513  14.107   2.631  12.261
 4913SOL    HW216514  14.091   2.767  12.326
 4914SOL     OW16515   6.864   9.390   8.663
 4914SOL    HW116516   6.925   9.462   8.681
 4914SOL    HW216517   6.839   9.358   8.750
 4915SOL     OW16518   9.882   9.601   8.722
 4915SOL    HW116519   9.865   9.611   8.628
 4915SOL    HW216520   9.837   9.676   8.762
 4916SOL     OW16521   1.108   6.246  11.205
 4916SOL    HW116522   1.137   6.156  11.191
 4916SOL    HW216523   1.140   6.294  11.128
 4917SOL     OW16524  10.123   2.050   3.201
 4917SOL    HW116525  10.194   2.115   3.200
 4917SOL    HW216526  10.151   1.985   3.264
 4918SOL     OW16527   9.512   7.618   1.335
 4918SOL    HW116528   9.545   7.708   1.331
 4918SOL    HW216529   9.561   7.579   1.408
 4919SOL     OW16530   0.591  10.972   8.702
 4919SOL    HW116531   0.570  11.065   8.714
 4919SOL    HW216532   0.568  10.932   8.786
 4920SOL     OW16533  13.261   2.652  11.546
 4920SOL    HW116534  13.170   2.650  11.574
 4920SOL    HW216535  13.257   2.669  11.452
 4921SOL     OW16536  12.654   7.819   7.158
 4921SOL    HW116537  12.661   7.725   7.174
 4921SOL    HW216538  12.569   7.843   7.195
 4922SOL     OW16539   8.052   6.365  11.232
 4922SOL    HW116540   7.977   6.425  11.232
 4922SOL    HW216541   8.047   6.320  11.316
 4923SOL     OW16542   0.368   5.709  11.570
 4923SOL    HW116543   0.314   5.647  11.620
 4923SOL    HW216544   0.343   5.692  11.479
 4924SOL     OW16545   3.740   4.474   5.216
 4924SOL    HW116546   3.789   4.500   5.138
 4924SOL    HW216547   3.668   4.537   5.221
 4925SOL     OW16548   5.481  14.001   5.561
 4925SOL    HW116549   5.482  14.091   5.595
 4925SOL    HW216550   5.474  13.946   5.639
 4926SOL     OW16551   9.403   8.636  13.411
 4926SOL    HW116552   9.402   8.551  13.367
 4926SOL    HW216553   9.326   8.682  13.376
 4927SOL     OW16554   6.184  14.308  12.520
 4927SOL    HW116555   6.136  14.252  12.459
 4927SOL    HW216556   6.213  14.249  12.590
 4928SOL     OW16557   7.794   6.864   3.303
 4928SOL    HW116558   7.709   6.900   3.276
 4928SOL    HW216559   7.846   6.941   3.328
 4929SOL     OW16560  12.981   9.164  12.713
 4929SOL    HW116561  13.026   9.182  12.630
 4929SOL    HW216562  12.970   9.069  12.714
 4930SOL     OW16563  10.085   0.330  10.085
 4930SOL    HW116564  10.089   0.333  10.181
 4930SOL    HW216565  10.022   0.399  10.062
 4931SOL     OW16566  13.059  12.174  10.481
 4931SOL    HW116567  13.056  12.225  10.400
 4931SOL    HW216568  12.991  12.107  10.469
 4932SOL     OW16569   4.080   8.354   2.631
 4932SOL    HW116570   4.021   8.352   2.706
 4932SOL    HW216571   4.115   8.443   2.630
 4933SOL     OW16572   7.550   7.505   2.176
 4933SOL    HW116573   7.645   7.509   2.168
 4933SOL    HW216574   7.518   7.534   2.091
 4934SOL     OW16575  10.991   7.707  14.830
 4934SOL    HW116576  11.079   7.686  14.799
 4934SOL    HW216577  10.952   7.756  14.758
 4935SOL     OW16578  13.676   0.037   8.112
 4935SOL    HW116579  13.637  14.835   8.088
 4935SOL    HW216580  13.623   0.068   8.186
 4936SOL     OW16581   9.312   9.419   1.723
 4936SOL    HW116582   9.392   9.412   1.774
 4936SOL    HW216583   9.245   9.377   1.777
 4937SOL     OW16584   3.960   9.899   6.251
 4937SOL    HW116585   3.958   9.974   6.310
 4937SOL    HW216586   3.872   9.894   6.215
 4938SOL     OW16587  10.988   9.839   3.874
 4938SOL    HW116588  11.021   9.840   3.785
 4938SOL    HW216589  11.066   9.841   3.929
 4939SOL     OW16590  13.979  11.937   6.590
 4939SOL    HW116591  13.953  12.028   6.580
 4939SOL    HW216592  13.909  11.887   6.547
 4940SOL     OW16593   8.068   1.424   6.829
 4940SOL    HW116594   8.106   1.495   6.881
 4940SOL    HW216595   7.981   1.456   6.805
 4941SOL     OW16596   7.164   0.992   7.360
 4941SOL    HW116597   7.161   0.922   7.294
 4941SOL    HW216598   7.202   0.950   7.437
 4942SOL     OW16599  14.729   6.399  13.812
 4942SOL    HW116600  14.686   6.476  13.776
 4942SOL    HW216601  14.769   6.429  13.893
 4943SOL     OW16602   6.366   3.656   7.732
 4943SOL    HW116603   6.292   3.609   7.691
 4943SOL    HW216604   6.338   3.669   7.822
 4944SOL     OW16605  14.194   0.259   8.751
 4944SOL    HW116606  14.125   0.316   8.785
 4944SOL    HW216607  14.168   0.171   8.780
 4945SOL     OW16608   7.076   9.216   0.700
 4945SOL    HW116609   7.068   9.293   0.756
 4945SOL    HW216610   7.085   9.251   0.611
 4946SOL     OW16611  10.968   2.362  12.585
 4946SOL    HW116612  10.902   2.387  12.650
 4946SOL    HW216613  11.040   2.423  12.600
 4947SOL     OW16614   7.809   6.734   6.818
 4947SOL    HW116615   7.837   6.643   6.834
 4947SOL    HW216616   7.873   6.787   6.865
 4948SOL     OW16617  13.417   9.357  13.063
 4948SOL    HW116618  13.369   9.400  13.134
 4948SOL    HW216619  13.426   9.424  12.996
 4949SOL     OW16620   9.624   6.468  12.240
 4949SOL    HW116621   9.590   6.459  12.151
 4949SOL    HW216622   9.700   6.410  12.243
 4950SOL     OW16623   3.033   8.303  13.314
 4950SOL    HW116624   2.979   8.304  13.235
 4950SOL    HW216625   3.122   8.320  13.283
 4951SOL     OW16626   7.159   6.092   5.492
 4951SOL    HW116627   7.241   6.042   5.489
 4951SOL    HW216628   7.183   6.175   5.534
 4952SOL     OW16629   7.402   2.196   0.627
 4952SOL    HW116630   7.363   2.113   0.654
 4952SOL    HW216631   7.467   2.172   0.561
 4953SOL     OW16632   0.841  10.748   7.958
 4953SOL    HW116633   0.828  10.664   8.003
 4953SOL    HW216634   0.920  10.735   7.905
 4954SOL     OW16635   3.757  10.027   2.057
 4954SOL    HW116636   3.697   9.954   2.074
 4954SOL    HW216637   3.708  10.085   1.998
 4955SOL     OW16638   9.792   8.765  12.493
 4955SOL    HW116639   9.880   8.732  12.474
 4955SOL    HW216640   9.798   8.860  12.483
 4956SOL     OW16641   8.873  10.721   2.364
 4956SOL    HW116642   8.840  10.811   2.372
 4956SOL    HW216643   8.949  10.718   2.421
 4957SOL     OW16644  12.296  14.543   4.578
 4957SOL    HW116645  12.298  14.537   4.482
 4957SOL    HW216646  12.224  14.487   4.605
 4958SOL     OW16647   1.271   5.592   5.623
 4958SOL    HW116648   1.197   5.649   5.639
 4958SOL    HW216649   1.232   5.506   5.605
 4959SOL     OW16650  12.219   4.526  10.096
 4959SOL    HW116651  12.281   4.478  10.041
 4959SOL    HW216652  12.175   4.458  10.147
 4960SOL     OW16653   9.757   6.900   6.596
 4960SOL    HW116654   9.738   6.912   6.503
 4960SOL    HW216655   9.697   6.832   6.625
 4961SOL     OW16656   5.306   1.485   3.838
 4961SOL    HW116657   5.373   1.519   3.897
 4961SOL    HW216658   5.247   1.559   3.824
 4962SOL     OW16659   3.746   4.087   4.342
 4962SOL    HW116660   3.687   4.150   4.300
 4962SOL    HW216661   3.807   4.061   4.273
 4963SOL     OW16662  11.547   4.765  10.030
 4963SOL    HW116663  11.514   4.689  10.078
 4963SOL    HW216664  11.514   4.840  10.080
 4964SOL     OW16665   3.306   5.533   4.150
 4964SOL    HW116666   3.304   5.517   4.244
 4964SOL    HW216667   3.304   5.446   4.111
 4965SOL     OW16668  13.985  11.628   8.704
 4965SOL    HW116669  13.954  11.563   8.641
 4965SOL    HW216670  14.066  11.592   8.738
 4966SOL     OW16671   4.912  11.572   2.734
 4966SOL    HW116672   4.839  11.583   2.674
 4966SOL    HW216673   4.919  11.656   2.780
 4967SOL     OW16674  10.849   2.936   0.576
 4967SOL    HW116675  10.920   3.000   0.574
 4967SOL    HW216676  10.810   2.940   0.488
 4968SOL     OW16677  13.963  10.830   3.611
 4968SOL    HW116678  14.013  10.833   3.693
 4968SOL    HW216679  14.027  10.850   3.543
 4969SOL     OW16680   0.571   1.606   0.498
 4969SOL    HW116681   0.654   1.630   0.456
 4969SOL    HW216682   0.509   1.672   0.469
 4970SOL     OW16683   4.246   7.765  14.491
 4970SOL    HW116684   4.263   7.830  14.559
 4970SOL    HW216685   4.201   7.814  14.421
 4971SOL     OW16686   5.053   7.801   4.036
 4971SOL    HW116687   5.095   7.787   4.121
 4971SOL    HW216688   5.077   7.891   4.012
 4972SOL     OW16689  13.494  10.693   4.539
 4972SOL    HW116690  13.423  10.630   4.544
 4972SOL    HW216691  13.511  10.720   4.629
 4973SOL     OW16692   6.551  13.175   8.563
 4973SOL    HW116693   6.547  13.270   8.574
 4973SOL    HW216694   6.644  13.156   8.546
 4974SOL     OW16695   6.504   0.356  13.293
 4974SOL    HW116696   6.573   0.338  13.229
 4974SOL    HW216697   6.428   0.381  13.241
 4975SOL     OW16698  12.863  11.891  14.686
 4975SOL    HW116699  12.905  11.824  14.740
 4975SOL    HW216700  12.804  11.936  14.746
 4976SOL     OW16701  12.828   7.664   5.034
 4976SOL    HW116702  12.805   7.571   5.029
 4976SOL    HW216703  12.865   7.675   5.122
 4977SOL     OW16704   8.251   6.384   8.511
 4977SOL    HW116705   8.264   6.445   8.584
 4977SOL    HW216706   8.165   6.406   8.477
 4978SOL     OW16707  13.683   2.001   9.186
 4978SOL    HW116708  13.691   1.914   9.146
 4978SOL    HW216709  13.770   2.039   9.177
 4979SOL     OW16710   4.162  10.136   9.683
 4979SOL    HW116711   4.074  10.107   9.707
 4979SOL    HW216712   4.220  10.089   9.742
 4980SOL     OW16713   3.412   3.779   7.872
 4980SOL    HW116714   3.462   3.835   7.812
 4980SOL    HW216715   3.477   3.721   7.912
 4981SOL     OW16716   7.862   8.017  10.663
 4981SOL    HW116717   7.911   8.099  10.666
 4981SOL    HW216718   7.792   8.028  10.727
 4982SOL     OW16719  11.140  14.029   7.531
 4982SOL    HW116720  11.103  14.112   7.563
 4982SOL    HW216721  11.214  14.056   7.476
 4983SOL     OW16722  12.512   8.281  12.602
 4983SOL    HW116723  12.571   8.260  12.530
 4983SOL    HW216724  12.424   8.274  12.564
 4984SOL     OW16725   5.759   6.177   6.512
 4984SOL    HW116726   5.735   6.261   6.552
 4984SOL    HW216727   5.798   6.200   6.428
 4985SOL     OW16728   9.143   5.431   4.173
 4985SOL    HW116729   9.149   5.523   4.197
 4985SOL    HW216730   9.121   5.432   4.079
 4986SOL     OW16731  14.681   4.094   4.786
 4986SOL    HW116732  14.687   4.055   4.874
 4986SOL    HW216733  14.588   4.087   4.763
 4987SOL     OW16734  14.626   7.927  12.537
 4987SOL    HW116735  14.676   7.858  12.582
 4987SOL    HW216736  14.538   7.890  12.529
 4988SOL     OW16737   3.083  10.662  11.637
 4988SOL    HW116738   3.111  10.662  11.728
 4988SOL    HW216739   3.148  10.608  11.592
 4989SOL     OW16740   4.281   9.380   8.999
 4989SOL    HW116741   4.193   9.396   8.965
 4989SOL    HW216742   4.314   9.307   8.947
 4990SOL     OW16743  13.525   0.499   2.502
 4990SOL    HW116744  13.452   0.559   2.487
 4990SOL    HW216745  13.531   0.448   2.422
 4991SOL     OW16746  11.817   9.537   0.074
 4991SOL    HW116747  11.861   9.512  14.874
 4991SOL    HW216748  11.767   9.616   0.051
 4992SOL     OW16749   3.327   4.999  12.720
 4992SOL    HW116750   3.265   4.928  12.709
 4992SOL    HW216751   3.338   5.037  12.633
 4993SOL     OW16752   9.902  13.775   8.284
 4993SOL    HW116753   9.980  13.745   8.238
 4993SOL    HW216754   9.838  13.704   8.273
 4994SOL     OW16755  10.303   9.962   0.198
 4994SOL    HW116756  10.302  10.004   0.112
 4994SOL    HW216757  10.382   9.909   0.198
 4995SOL     OW16758   5.272   0.835   0.543
 4995SOL    HW116759   5.196   0.815   0.488
 4995SOL    HW216760   5.289   0.754   0.591
 4996SOL     OW16761   7.657  12.571   4.430
 4996SOL    HW116762   7.651  12.612   4.343
 4996SOL    HW216763   7.566  12.558   4.456
 4997SOL     OW16764  13.338  14.147   2.559
 4997SOL    HW116765  13.378  14.062   2.578
 4997SOL    HW216766  13.412  14.209   2.558
 4998SOL     OW16767  11.188   3.347  12.828
 4998SOL    HW116768  11.146   3.432  12.842
 4998SOL    HW216769  11.260   3.365  12.768
 4999SOL     OW16770   8.998   8.243  13.405
 4999SOL    HW116771   9.077   8.242  13.459
 4999SOL    HW216772   9.025   8.289  13.325
 5000SOL     OW16773   2.694   9.616   0.051
 5000SOL    HW116774   2.768   9.655   0.097
 5000SOL    HW216775   2.693   9.660  14.847
 5001SOL     OW16776  10.504  10.514   2.295
 5001SOL    HW116777  10.410  10.495   2.302
 5001SOL    HW216778  10.547  10.441   2.338
 5002SOL     OW16779   2.281   8.096   3.752
 5002SOL    HW116780   2.331   8.115   3.672
 5002SOL    HW216781   2.190   8.091   3.722
 5003SOL     OW16782   7.321   7.026   4.669
 5003SOL    HW116783   7.398   7.002   4.617
 5003SOL    HW216784   7.295   6.945   4.712
 5004SOL     OW16785   1.549   7.795   7.063
 5004SOL    HW116786   1.486   7.846   7.011
 5004SOL    HW216787   1.583   7.730   7.002
 5005SOL     OW16788  13.520   8.151  13.580
 5005SOL    HW116789  13.448   8.087  13.581
 5005SOL    HW216790  13.558   8.146  13.667
 5006SOL     OW16791   4.364  11.368   2.862
 5006SOL    HW116792   4.389  11.299   2.801
 5006SOL    HW216793   4.443  11.420   2.873
 5007SOL     OW16794   9.498   3.080  11.567
 5007SOL    HW116795   9.556   3.013  11.531
 5007SOL    HW216796   9.490   3.145  11.497
 5008SOL     OW16797   6.162   7.503   0.326
 5008SOL    HW116798   6.161   7.562   0.250
 5008SOL    HW216799   6.169   7.561   0.402
 5009SOL     OW16800   7.974   5.918   3.975
 5009SOL    HW116801   7.902   5.855   3.985
 5009SOL    HW216802   8.048   5.876   4.018
 5010SOL     OW16803  13.088  12.745   5.035
 5010SOL    HW116804  13.125  12.662   5.063
 5010SOL    HW216805  13.116  12.807   5.102
 5011SOL     OW16806  10.788  10.837   9.389
 5011SOL    HW116807  10.793  10.745   9.415
 5011SOL    HW216808  10.725  10.875   9.451
 5012SOL     OW16809   3.477  10.553  14.033
 5012SOL    HW116810   3.460  10.470  13.988
 5012SOL    HW216811   3.434  10.619  13.980
 5013SOL     OW16812   6.492  14.702   4.366
 5013SOL    HW116813   6.472  14.630   4.306
 5013SOL    HW216814   6.407  14.745   4.381
 5014SOL     OW16815  10.756   1.525   7.697
 5014SOL    HW116816  10.673   1.570   7.685
 5014SOL    HW216817  10.796   1.568   7.773
 5015SOL     OW16818   6.533   4.118   8.179
 5015SOL    HW116819   6.478   4.103   8.255
 5015SOL    HW216820   6.565   4.032   8.154
 5016SOL     OW16821   7.168   1.935   3.768
 5016SOL    HW116822   7.094   1.996   3.773
 5016SOL    HW216823   7.244   1.987   3.793
 5017SOL     OW16824   4.090   3.096   8.256
 5017SOL    HW116825   4.171   3.076   8.210
 5017SOL    HW216826   4.026   3.034   8.220
 5018SOL     OW16827   8.089   8.399  14.080
 5018SOL    HW116828   8.150   8.358  14.142
 5018SOL    HW216829   8.002   8.375  14.112
 5019SOL     OW16830   5.861  11.512   3.087
 5019SOL    HW116831   5.922  11.447   3.052
 5019SOL    HW216832   5.818  11.467   3.160
 5020SOL     OW16833  10.030   6.967   9.515
 5020SOL    HW116834  10.006   6.914   9.591
 5020SOL    HW216835   9.988   6.924   9.441
 5021SOL     OW16836   2.092   4.981   7.894
 5021SOL    HW116837   2.165   4.961   7.836
 5021SOL    HW216838   2.052   4.896   7.913
 5022SOL     OW16839   9.147   4.231   8.180
 5022SOL    HW116840   9.059   4.216   8.146
 5022SOL    HW216841   9.135   4.250   8.273
 5023SOL     OW16842   2.562   2.823   5.600
 5023SOL    HW116843   2.493   2.886   5.621
 5023SOL    HW216844   2.556   2.757   5.670
 5024SOL     OW16845  14.045   1.573   9.505
 5024SOL    HW116846  14.033   1.549   9.597
 5024SOL    HW216847  13.979   1.522   9.458
 5025SOL     OW16848  13.018   8.882  14.322
 5025SOL    HW116849  12.944   8.929  14.283
 5025SOL    HW216850  13.012   8.903  14.415
 5026SOL     OW16851   8.893  14.150   8.784
 5026SOL    HW116852   8.910  14.153   8.878
 5026SOL    HW216853   8.839  14.072   8.773
 5027SOL     OW16854   6.686   1.384   9.900
 5027SOL    HW116855   6.609   1.420   9.944
 5027SOL    HW216856   6.758   1.398   9.961
 5028SOL     OW16857  14.474   2.244   6.582
 5028SOL    HW116858  14.468   2.181   6.653
 5028SOL    HW216859  14.401   2.305   6.598
 5029SOL     OW16860  13.536   1.787  10.086
 5029SOL    HW116861  13.446   1.755  10.080
 5029SOL    HW216862  13.557   1.780  10.179
 5030SOL     OW16863   5.811   0.055  10.253
 5030SOL    HW116864   5.824   0.144  10.286
 5030SOL    HW216865   5.881   0.004  10.294
 5031SOL     OW16866   9.786   1.676   8.858
 5031SOL    HW116867   9.819   1.614   8.792
 5031SOL    HW216868   9.807   1.762   8.822
 5032SOL     OW16869   9.622  10.934  14.100
 5032SOL    HW116870   9.609  10.843  14.076
 5032SOL    HW216871   9.595  10.939  14.191
 5033SOL     OW16872  12.663   2.714  10.231
 5033SOL    HW116873  12.589   2.770  10.255
 5033SOL    HW216874  12.630   2.662  10.158
 5034SOL     OW16875   0.910   6.097   0.320
 5034SOL    HW116876   0.841   6.162   0.335
 5034SOL    HW216877   0.990   6.141   0.349
 5035SOL     OW16878  11.569   3.648   0.941
 5035SOL    HW116879  11.537   3.559   0.932
 5035SOL    HW216880  11.650   3.640   0.992
 5036SOL     OW16881   6.462  13.245   7.679
 5036SOL    HW116882   6.447  13.277   7.591
 5036SOL    HW216883   6.447  13.321   7.736
 5037SOL     OW16884   3.922   0.549   0.353
 5037SOL    HW116885   3.980   0.473   0.351
 5037SOL    HW216886   3.901   0.560   0.446
 5038SOL     OW16887   0.129   4.308  12.939
 5038SOL    HW116888   0.101   4.393  12.974
 5038SOL    HW216889   0.203   4.282  12.994
 5039SOL     OW16890   5.087   0.959  12.385
 5039SOL    HW116891   5.163   1.017  12.397
 5039SOL    HW216892   5.064   0.968  12.293
 5040SOL     OW16893   4.941   8.398   6.564
 5040SOL    HW116894   4.979   8.312   6.579
 5040SOL    HW216895   4.993   8.436   6.494
 5041SOL     OW16896  14.389  11.380  14.334
 5041SOL    HW116897  14.443  11.415  14.405
 5041SOL    HW216898  14.324  11.448  14.318
 5042SOL     OW16899   8.565   2.886   4.423
 5042SOL    HW116900   8.512   2.916   4.497
 5042SOL    HW216901   8.537   2.942   4.350
 5043SOL     OW16902   8.694   2.456  12.058
 5043SOL    HW116903   8.666   2.396  12.127
 5043SOL    HW216904   8.614   2.477  12.009
 5044SOL     OW16905   5.408  13.145   8.661
 5044SOL    HW116906   5.344  13.076   8.683
 5044SOL    HW216907   5.484  13.097   8.628
 5045SOL     OW16908  13.822   5.914   2.709
 5045SOL    HW116909  13.901   5.879   2.749
 5045SOL    HW216910  13.827   5.886   2.618
 5046SOL     OW16911  10.718   4.351  11.400
 5046SOL    HW116912  10.747   4.301  11.324
 5046SOL    HW216913  10.780   4.327  11.470
 5047SOL     OW16914   1.926  11.900  10.850
 5047SOL    HW116915   2.002  11.948  10.818
 5047SOL    HW216916   1.885  11.959  10.913
 5048SOL     OW16917  13.341   7.544   5.844
 5048SOL    HW116918  13.318   7.581   5.930
 5048SOL    HW216919  13.402   7.607   5.806
 5049SOL     OW16920  13.566   7.605  10.769
 5049SOL    HW116921  13.542   7.577  10.858
 5049SOL    HW216922  13.642   7.551  10.747
 5050SOL     OW16923  14.130   8.604   3.631
 5050SOL    HW116924  14.174   8.522   3.610
 5050SOL    HW216925  14.159   8.624   3.720
 5051SOL     OW16926  10.640   9.179   5.363
 5051SOL    HW116927  10.597   9.131   5.434
 5051SOL    HW216928  10.707   9.119   5.330
 5052SOL     OW16929   4.493   4.023  14.830
 5052SOL    HW116930   4.505   4.071   0.030
 5052SOL    HW216931   4.451   4.086  14.771
 5053SOL     OW16932   7.266   7.972   3.542
 5053SOL    HW116933   7.222   8.011   3.466
 5053SOL    HW216934   7.202   7.979   3.613
 5054SOL     OW16935  13.689   2.699   0.966
 5054SOL    HW116936  13.728   2.715   1.052
 5054SOL    HW216937  13.764   2.699   0.906
 5055SOL     OW16938   8.049   9.009  10.299
 5055SOL    HW116939   7.984   8.943  10.325
 5055SOL    HW216940   8.100   8.967  10.231
 5056SOL     OW16941   5.958   2.621   2.803
 5056SOL    HW116942   5.993   2.709   2.816
 5056SOL    HW216943   6.035   2.567   2.785
 5057SOL     OW16944   9.908  12.303   3.251
 5057SOL    HW116945   9.919  12.215   3.289
 5057SOL    HW216946   9.962  12.302   3.172
 5058SOL     OW16947   9.149   0.898  11.674
 5058SOL    HW116948   9.074   0.899  11.733
 5058SOL    HW216949   9.163   0.805  11.656
 5059SOL     OW16950   4.051   8.882   5.283
 5059SOL    HW116951   4.036   8.849   5.194
 5059SOL    HW216952   4.032   8.976   5.277
 5060SOL     OW16953   5.836   9.041   7.635
 5060SOL    HW116954   5.875   9.027   7.548
 5060SOL    HW216955   5.898   8.999   7.695
 5061SOL     OW16956  14.462   4.847  13.856
 5061SOL    HW116957  14.458   4.932  13.899
 5061SOL    HW216958  14.556   4.829  13.849
 5062SOL     OW16959  10.212   2.753  12.772
 5062SOL    HW116960  10.291   2.784  12.728
 5062SOL    HW216961  10.191   2.671  12.727
 5063SOL     OW16962   1.698  11.545  12.780
 5063SOL    HW116963   1.751  11.562  12.701
 5063SOL    HW216964   1.613  11.518  12.746
 5064SOL     OW16965   6.044   3.863   2.742
 5064SOL    HW116966   6.057   3.808   2.819
 5064SOL    HW216967   6.132   3.888   2.716
 5065SOL     OW16968   6.973  13.315  12.028
 5065SOL    HW116969   6.881  13.329  12.007
 5065SOL    HW216970   6.983  13.346  12.118
 5066SOL     OW16971   8.446  13.398   7.009
 5066SOL    HW116972   8.370  13.354   6.971
 5066SOL    HW216973   8.412  13.481   7.041
 5067SOL     OW16974   7.508   7.450   8.615
 5067SOL    HW116975   7.422   7.443   8.658
 5067SOL    HW216976   7.537   7.539   8.633
 5068SOL     OW16977   2.748   4.117   4.423
 5068SOL    HW116978   2.727   4.124   4.330
 5068SOL    HW216979   2.804   4.039   4.429
 5069SOL     OW16980  10.134   5.700  12.124
 5069SOL    HW116981  10.070   5.758  12.165
 5069SOL    HW216982  10.212   5.707  12.179
 5070SOL     OW16983   0.033   5.826   7.266
 5070SOL    HW116984  14.828   5.796   7.238
 5070SOL    HW216985   0.094   5.763   7.229
 5071SOL     OW16986   9.306  11.383   2.277
 5071SOL    HW116987   9.215  11.412   2.280
 5071SOL    HW216988   9.350  11.436   2.343
 5072SOL     OW16989   3.164  14.329   1.068
 5072SOL    HW116990   3.114  14.249   1.053
 5072SOL    HW216991   3.097  14.397   1.078
 5073SOL     OW16992   9.482  13.204   6.393
 5073SOL    HW116993   9.461  13.214   6.300
 5073SOL    HW216994   9.453  13.115   6.415
 5074SOL     OW16995   3.079  12.793   1.995
 5074SOL    HW116996   3.084  12.863   2.059
 5074SOL    HW216997   3.027  12.829   1.923
 5075SOL     OW16998   5.796   7.652  10.245
 5075SOL    HW116999   5.796   7.706  10.325
 5075SOL    HW217000   5.708   7.663  10.209
 5076SOL     OW17001   1.251   6.845   7.930
 5076SOL    HW117002   1.253   6.935   7.899
 5076SOL    HW217003   1.222   6.794   7.855
 5077SOL     OW17004  11.222   5.926   0.623
 5077SOL    HW117005  11.291   5.901   0.684
 5077SOL    HW217006  11.233   5.867   0.549
 5078SOL     OW17007   1.134  10.373   2.026
 5078SOL    HW117008   1.206  10.328   2.069
 5078SOL    HW217009   1.058  10.353   2.081
 5079SOL     OW17010  13.078   0.960  13.649
 5079SOL    HW117011  13.097   0.917  13.566
 5079SOL    HW217012  13.048   0.889  13.706
 5080SOL     OW17013   3.022   3.856   6.663
 5080SOL    HW117014   3.089   3.794   6.690
 5080SOL    HW217015   3.036   3.868   6.569
 5081SOL     OW17016  14.119   8.003   9.640
 5081SOL    HW117017  14.074   7.972   9.562
 5081SOL    HW217018  14.057   8.062   9.682
 5082SOL     OW17019   0.228   8.115   9.199
 5082SOL    HW117020   0.143   8.073   9.195
 5082SOL    HW217021   0.288   8.046   9.228
 5083SOL     OW17022  10.695   2.710   0.680
 5083SOL    HW117023  10.774   2.683   0.727
 5083SOL    HW217024  10.722   2.786   0.628
 5084SOL     OW17025   3.324   0.214   7.403
 5084SOL    HW117026   3.238   0.204   7.444
 5084SOL    HW217027   3.364   0.127   7.410
 5085SOL     OW17028  13.880   5.601  13.055
 5085SOL    HW117029  13.864   5.625  13.147
 5085SOL    HW217030  13.926   5.517  13.061
 5086SOL     OW17031   2.818  14.071  13.018
 5086SOL    HW117032   2.881  14.130  12.977
 5086SOL    HW217033   2.770  14.032  12.944
 5087SOL     OW17034   7.593   2.284   4.368
 5087SOL    HW117035   7.502   2.255   4.373
 5087SOL    HW217036   7.590   2.363   4.313
 5088SOL     OW17037   3.438   5.761  11.573
 5088SOL    HW117038   3.372   5.829  11.557
 5088SOL    HW217039   3.454   5.765  11.668
 5089SOL     OW17040   7.841  10.833  13.724
 5089SOL    HW117041   7.830  10.845  13.818
 5089SOL    HW217042   7.907  10.763  13.716
 5090SOL     OW17043  10.269   8.065   5.882
 5090SOL    HW117044  10.206   8.122   5.838
 5090SOL    HW217045  10.224   7.982   5.891
 5091SOL     OW17046  14.847   2.000   6.754
 5091SOL    HW117047   0.019   2.076   6.730
 5091SOL    HW217048  14.845   1.947   6.674
 5092SOL     OW17049   3.733  10.697   8.331
 5092SOL    HW117050   3.740  10.602   8.345
 5092SOL    HW217051   3.766  10.736   8.412
 5093SOL     OW17052  11.105   5.900   0.232
 5093SOL    HW117053  11.079   5.839   0.302
 5093SOL    HW217054  11.148   5.844   0.167
 5094SOL     OW17055   0.521  12.973   5.233
 5094SOL    HW117056   0.445  12.954   5.287
 5094SOL    HW217057   0.490  13.037   5.169
 5095SOL     OW17058   3.576   0.734   7.371
 5095SOL    HW117059   3.489   0.766   7.394
 5095SOL    HW217060   3.573   0.640   7.388
 5096SOL     OW17061   8.356  12.954   4.853
 5096SOL    HW117062   8.315  13.040   4.853
 5096SOL    HW217063   8.297  12.899   4.801
 5097SOL     OW17064   2.776   5.609   3.567
 5097SOL    HW117065   2.865   5.641   3.582
 5097SOL    HW217066   2.722   5.657   3.630
 5098SOL     OW17067  12.837   8.884   7.506
 5098SOL    HW117068  12.827   8.963   7.560
 5098SOL    HW217069  12.747   8.861   7.482
 5099SOL     OW17070   4.217  10.234   2.816
 5099SOL    HW117071   4.180  10.273   2.737
 5099SOL    HW217072   4.304  10.273   2.823
 5100SOL     OW17073   4.296  14.564  11.684
 5100SOL    HW117074   4.383  14.603  11.688
 5100SOL    HW217075   4.267  14.559  11.775
 5101SOL     OW17076   6.876  13.534  13.255
 5101SOL    HW117077   6.908  13.492  13.335
 5101SOL    HW217078   6.945  13.518  13.190
 5102SOL     OW17079   2.974  11.015   8.060
 5102SOL    HW117080   3.043  11.080   8.067
 5102SOL    HW217081   3.004  10.941   8.113
 5103SOL     OW17082   3.987  11.712  14.523
 5103SOL    HW117083   4.018  11.705  14.613
 5103SOL    HW217084   4.066  11.711  14.469
 5104SOL     OW17085   2.436  12.092  11.815
 5104SOL    HW117086   2.469  12.180  11.795
 5104SOL    HW217087   2.422  12.093  11.910
 5105SOL     OW17088   6.087  14.352  10.913
 5105SOL    HW117089   6.022  14.384  10.975
 5105SOL    HW217090   6.126  14.276  10.957
 5106SOL     OW17091  13.838  12.864  11.069
 5106SOL    HW117092  13.920  12.842  11.025
 5106SOL    HW217093  13.771  12.817  11.020
 5107SOL     OW17094   7.853  11.172   6.261
 5107SOL    HW117095   7.882  11.107   6.325
 5107SOL    HW217096   7.833  11.250   6.313
 5108SOL     OW17097   7.330   5.574   5.706
 5108SOL    HW117098   7.419   5.592   5.676
 5108SOL    HW217099   7.274   5.607   5.635
 5109SOL     OW17100  14.859   2.396   7.156
 5109SOL    HW117101  14.791   2.458   7.185
 5109SOL    HW217102   0.009   2.433   7.073
 5110SOL     OW17103  12.900  12.624   5.482
 5110SOL    HW117104  12.910  12.711   5.442
 5110SOL    HW217105  12.810  12.599   5.462
 5111SOL     OW17106   9.087   6.546  12.500
 5111SOL    HW117107   9.181   6.566  12.502
 5111SOL    HW217108   9.056   6.588  12.420
 5112SOL     OW17109   9.323   5.675   0.540
 5112SOL    HW117110   9.241   5.671   0.490
 5112SOL    HW217111   9.347   5.584   0.554
 5113SOL     OW17112  14.869  13.526   6.511
 5113SOL    HW117113  14.872  13.454   6.448
 5113SOL    HW217114  14.835  13.600   6.460
 5114SOL     OW17115  10.648   6.023  14.357
 5114SOL    HW117116  10.634   6.055  14.446
 5114SOL    HW217117  10.728   6.067  14.328
 5115SOL     OW17118   5.156  10.021   4.423
 5115SOL    HW117119   5.206   9.971   4.358
 5115SOL    HW217120   5.065   9.995   4.408
 5116SOL     OW17121   2.334  14.583  11.474
 5116SOL    HW117122   2.308  14.599  11.383
 5116SOL    HW217123   2.363  14.668  11.506
 5117SOL     OW17124   7.194   2.678   4.164
 5117SOL    HW117125   7.129   2.721   4.220
 5117SOL    HW217126   7.222   2.746   4.103
 5118SOL     OW17127   4.334   7.025   3.677
 5118SOL    HW117128   4.333   7.115   3.643
 5118SOL    HW217129   4.348   7.036   3.771
 5119SOL     OW17130   8.933  11.804   9.397
 5119SOL    HW117131   8.911  11.896   9.407
 5119SOL    HW217132   8.991  11.801   9.321
 5120SOL     OW17133  12.574  12.965   7.844
 5120SOL    HW117134  12.483  12.959   7.870
 5120SOL    HW217135  12.579  12.915   7.762
 5121SOL     OW17136   0.856  14.269   8.014
 5121SOL    HW117137   0.915  14.226   7.953
 5121SOL    HW217138   0.881  14.362   8.010
 5122SOL     OW17139   9.257   7.899   2.446
 5122SOL    HW117140   9.303   7.943   2.375
 5122SOL    HW217141   9.250   7.965   2.515
 5123SOL     OW17142   8.670   8.322   4.217
 5123SOL    HW117143   8.588   8.356   4.253
 5123SOL    HW217144   8.660   8.332   4.122
 5124SOL     OW17145   0.952   4.661  12.557
 5124SOL    HW117146   0.937   4.748  12.594
 5124SOL    HW217147   1.043   4.641  12.578
 5125SOL     OW17148  10.956   1.377   8.370
 5125SOL    HW117149  11.037   1.333   8.396
 5125SOL    HW217150  10.927   1.331   8.291
 5126SOL     OW17151   5.337   0.595  13.251
 5126SOL    HW117152   5.272   0.540  13.294
 5126SOL    HW217153   5.421   0.560  13.279
 5127SOL     OW17154  13.361  11.624   6.697
 5127SOL    HW117155  13.440  11.586   6.659
 5127SOL    HW217156  13.293  11.558   6.681
 5128SOL     OW17157   4.930  13.301  12.386
 5128SOL    HW117158   4.936  13.376  12.326
 5128SOL    HW217159   5.018  13.290  12.420
 5129SOL     OW17160   1.748  11.060   6.926
 5129SOL    HW117161   1.694  11.139   6.923
 5129SOL    HW217162   1.685  10.989   6.940
 5130SOL     OW17163  12.383  12.276  11.799
 5130SOL    HW117164  12.318  12.206  11.796
 5130SOL    HW217165  12.393  12.303  11.707
 5131SOL     OW17166   4.031   1.926  12.402
 5131SOL    HW117167   3.991   1.866  12.339
 5131SOL    HW217168   3.987   2.010  12.387
 5132SOL     OW17169   5.757  13.580  13.848
 5132SOL    HW117170   5.730  13.492  13.875
 5132SOL    HW217171   5.834  13.600  13.902
 5133SOL     OW17172  14.534   0.315   9.913
 5133SOL    HW117173  14.509   0.324   9.821
 5133SOL    HW217174  14.458   0.273   9.954
 5134SOL     OW17175   9.354  11.676   8.383
 5134SOL    HW117176   9.427  11.736   8.393
 5134SOL    HW217177   9.294  11.721   8.324
 5135SOL     OW17178   2.411   0.335   6.366
 5135SOL    HW117179   2.391   0.261   6.308
 5135SOL    HW217180   2.392   0.303   6.454
 5136SOL     OW17181  12.694   7.948  14.226
 5136SOL    HW117182  12.652   7.896  14.296
 5136SOL    HW217183  12.662   7.909  14.145
 5137SOL     OW17184   0.061  14.323   4.945
 5137SOL    HW117185   0.050  14.368   4.862
 5137SOL    HW217186   0.146  14.353   4.977
 5138SOL     OW17187   2.416   4.590   5.858
 5138SOL    HW117188   2.354   4.526   5.892
 5138SOL    HW217189   2.362   4.667   5.838
 5139SOL     OW17190  13.837  13.007   2.625
 5139SOL    HW117191  13.826  12.945   2.696
 5139SOL    HW217192  13.917  12.978   2.580
 5140SOL     OW17193   5.724   2.805   3.088
 5140SOL    HW117194   5.756   2.765   3.007
 5140SOL    HW217195   5.727   2.899   3.071
 5141SOL     OW17196   7.776   1.144   0.020
 5141SOL    HW117197   7.716   1.073   0.039
 5141SOL    HW217198   7.847   1.134   0.084
 5142SOL     OW17199  12.624   7.265   4.415
 5142SOL    HW117200  12.645   7.355   4.440
 5142SOL    HW217201  12.645   7.213   4.492
 5143SOL     OW17202  10.881   3.178   2.322
 5143SOL    HW117203  10.950   3.119   2.293
 5143SOL    HW217204  10.800   3.134   2.296
 5144SOL     OW17205   9.063   9.729  13.944
 5144SOL    HW117206   9.012   9.772  13.875
 5144SOL    HW217207   9.097   9.801  13.997
 5145SOL     OW17208   0.011   5.591   0.650
 5145SOL    HW117209  14.877   5.574   0.743
 5145SOL    HW217210   0.029   5.685   0.646
 5146SOL     OW17211   1.733   7.793  10.147
 5146SOL    HW117212   1.744   7.809  10.241
 5146SOL    HW217213   1.797   7.850  10.105
 5147SOL     OW17214  12.167   6.022  12.705
 5147SOL    HW117215  12.172   6.017  12.800
 5147SOL    HW217216  12.257   6.039  12.677
 5148SOL     OW17217   3.303   6.793  11.210
 5148SOL    HW117218   3.314   6.882  11.244
 5148SOL    HW217219   3.392   6.763  11.191
 5149SOL     OW17220   3.411   5.914  13.543
 5149SOL    HW117221   3.357   5.986  13.510
 5149SOL    HW217222   3.493   5.955  13.569
 5150SOL     OW17223   8.453   7.464   1.380
 5150SOL    HW117224   8.453   7.494   1.471
 5150SOL    HW217225   8.542   7.483   1.349
 5151SOL     OW17226   6.698  11.570   4.771
 5151SOL    HW117227   6.784  11.543   4.740
 5151SOL    HW217228   6.697  11.665   4.761
 5152SOL     OW17229   5.468  14.567  10.257
 5152SOL    HW117230   5.433  14.480  10.236
 5152SOL    HW217231   5.540  14.579  10.195
 5153SOL     OW17232  13.330   2.120  11.582
 5153SOL    HW117233  13.284   2.138  11.664
 5153SOL    HW217234  13.342   2.206  11.541
 5154SOL     OW17235  14.007  12.305  14.246
 5154SOL    HW117236  13.926  12.297  14.195
 5154SOL    HW217237  14.039  12.216  14.254
 5155SOL     OW17238   4.415   9.259   7.376
 5155SOL    HW117239   4.433   9.269   7.469
 5155SOL    HW217240   4.436   9.167   7.357
 5156SOL     OW17241   7.449   1.312   8.330
 5156SOL    HW117242   7.436   1.243   8.395
 5156SOL    HW217243   7.452   1.267   8.246
 5157SOL     OW17244   7.706   2.902   3.195
 5157SOL    HW117245   7.643   2.882   3.264
 5157SOL    HW217246   7.665   2.972   3.145
 5158SOL     OW17247  13.090   5.833   6.532
 5158SOL    HW117248  13.043   5.910   6.565
 5158SOL    HW217249  13.094   5.847   6.438
 5159SOL     OW17250   2.240  13.623  12.831
 5159SOL    HW117251   2.155  13.666  12.828
 5159SOL    HW217252   2.226  13.540  12.785
 5160SOL     OW17253   4.795   9.642  13.949
 5160SOL    HW117254   4.829   9.711  13.892
 5160SOL    HW217255   4.781   9.568  13.891
 5161SOL     OW17256   4.138   8.626  10.044
 5161SOL    HW117257   4.063   8.657   9.993
 5161SOL    HW217258   4.174   8.706  10.084
 5162SOL     OW17259   9.897  10.029   4.652
 5162SOL    HW117260   9.949  10.065   4.580
 5162SOL    HW217261   9.859   9.949   4.616
 5163SOL     OW17262  11.276   4.323   1.414
 5163SOL    HW117263  11.288   4.381   1.339
 5163SOL    HW217264  11.244   4.380   1.484
 5164SOL     OW17265   4.495   4.249  12.656
 5164SOL    HW117266   4.540   4.282  12.733
 5164SOL    HW217267   4.410   4.294  12.657
 5165SOL     OW17268   8.046   8.529   3.364
 5165SOL    HW117269   8.096   8.456   3.329
 5165SOL    HW217270   8.004   8.494   3.443
 5166SOL     OW17271   4.465   8.240  13.269
 5166SOL    HW117272   4.512   8.270  13.346
 5166SOL    HW217273   4.395   8.185  13.303
 5167SOL     OW17274  14.734  13.562   3.456
 5167SOL    HW117275  14.689  13.629   3.405
 5167SOL    HW217276  14.683  13.482   3.442
 5168SOL     OW17277   6.599   9.824   3.960
 5168SOL    HW117278   6.596   9.809   4.055
 5168SOL    HW217279   6.668   9.766   3.929
 5169SOL     OW17280   0.437  13.404   5.293
 5169SOL    HW117281   0.380  13.380   5.366
 5169SOL    HW217282   0.477  13.487   5.320
 5170SOL     OW17283  12.825  10.985  10.172
 5170SOL    HW117284  12.731  10.998  10.157
 5170SOL    HW217285  12.843  11.030  10.254
 5171SOL     OW17286  12.358   0.318  14.078
 5171SOL    HW117287  12.397   0.239  14.041
 5171SOL    HW217288  12.429   0.382  14.077
 5172SOL     OW17289  14.011   4.655  13.847
 5172SOL    HW117290  13.922   4.635  13.875
 5172SOL    HW217291  14.041   4.575  13.805
 5173SOL     OW17292   8.392  12.372   8.403
 5173SOL    HW117293   8.351  12.306   8.347
 5173SOL    HW217294   8.322  12.402   8.460
 5174SOL     OW17295   2.496  10.864   8.495
 5174SOL    HW117296   2.525  10.794   8.554
 5174SOL    HW217297   2.523  10.834   8.408
 5175SOL     OW17298  10.414  10.810  10.326
 5175SOL    HW117299  10.411  10.813  10.422
 5175SOL    HW217300  10.381  10.723  10.304
 5176SOL     OW17301   0.496   3.098  13.896
 5176SOL    HW117302   0.541   3.054  13.824
 5176SOL    HW217303   0.529   3.188  13.894
 5177SOL     OW17304   9.056   5.934   8.319
 5177SOL    HW117305   9.006   6.004   8.277
 5177SOL    HW217306   9.018   5.926   8.406
 5178SOL     OW17307   3.894   5.852   4.532
 5178SOL    HW117308   3.905   5.764   4.568
 5178SOL    HW217309   3.980   5.875   4.496
 5179SOL     OW17310  13.675  11.286  11.697
 5179SOL    HW117311  13.606  11.257  11.756
 5179SOL    HW217312  13.757  11.263  11.742
 5180SOL     OW17313   3.909   7.379  10.574
 5180SOL    HW117314   3.990   7.330  10.561
 5180SOL    HW217315   3.938   7.467  10.598
 5181SOL     OW17316   6.596   1.283   5.640
 5181SOL    HW117317   6.584   1.275   5.735
 5181SOL    HW217318   6.525   1.341   5.612
 5182SOL     OW17319  12.661  11.099   5.807
 5182SOL    HW117320  12.712  11.135   5.880
 5182SOL    HW217321  12.596  11.166   5.788
 5183SOL     OW17322   5.359   7.999   8.013
 5183SOL    HW117323   5.342   8.077   8.065
 5183SOL    HW217324   5.452   8.004   7.992
 5184SOL     OW17325   0.303   4.014  13.296
 5184SOL    HW117326   0.225   3.965  13.322
 5184SOL    HW217327   0.352   4.027  13.377
 5185SOL     OW17328   8.125   1.567   4.901
 5185SOL    HW117329   8.181   1.554   4.825
 5185SOL    HW217330   8.159   1.645   4.944
 5186SOL     OW17331   5.719   9.641  12.948
 5186SOL    HW117332   5.766   9.602  12.875
 5186SOL    HW217333   5.663   9.570  12.981
 5187SOL     OW17334   6.001   8.668  12.301
 5187SOL    HW117335   6.086   8.691  12.263
 5187SOL    HW217336   5.988   8.576  12.277
 5188SOL     OW17337  12.170  14.657   2.341
 5188SOL    HW117338  12.244  14.713   2.319
 5188SOL    HW217339  12.098  14.717   2.360
 5189SOL     OW17340   1.523   8.763  13.094
 5189SOL    HW117341   1.600   8.820  13.096
 5189SOL    HW217342   1.537   8.701  13.165
 5190SOL     OW17343   8.721   1.880   1.893
 5190SOL    HW117344   8.658   1.882   1.821
 5190SOL    HW217345   8.715   1.792   1.929
 5191SOL     OW17346  10.018   8.397  13.254
 5191SOL    HW117347  10.107   8.377  13.283
 5191SOL    HW217348   9.982   8.453  13.323
 5192SOL     OW17349  10.702   8.698   6.387
 5192SOL    HW117350  10.793   8.675   6.369
 5192SOL    HW217351  10.675   8.639   6.458
 5193SOL     OW17352   2.054  13.608  10.784
 5193SOL    HW117353   2.123  13.557  10.827
 5193SOL    HW217354   2.067  13.697  10.817
 5194SOL     OW17355  14.348   0.651   9.399
 5194SOL    HW117356  14.371   0.665   9.307
 5194SOL    HW217357  14.429   0.620   9.440
 5195SOL     OW17358  14.119   0.630  14.278
 5195SOL    HW117359  14.157   0.549  14.245
 5195SOL    HW217360  14.040   0.602  14.326
 5196SOL     OW17361  13.441   9.316   8.764
 5196SOL    HW117362  13.512   9.359   8.811
 5196SOL    HW217363  13.390   9.272   8.833
 5197SOL     OW17364  12.117   8.836  13.562
 5197SOL    HW117365  12.068   8.917  13.559
 5197SOL    HW217366  12.208   8.862  13.546
 5198SOL     OW17367   6.293   5.587   8.474
 5198SOL    HW117368   6.330   5.499   8.476
 5198SOL    HW217369   6.365   5.645   8.501
 5199SOL     OW17370  10.606   2.587  11.755
 5199SOL    HW117371  10.649   2.556  11.675
 5199SOL    HW217372  10.620   2.517  11.819
 5200SOL     OW17373   2.196   2.813  12.730
 5200SOL    HW117374   2.160   2.833  12.816
 5200SOL    HW217375   2.269   2.754  12.748
 5201SOL     OW17376   2.259   5.348  14.249
 5201SOL    HW117377   2.202   5.273  14.263
 5201SOL    HW217378   2.347   5.315  14.267
 5202SOL     OW17379  11.568   1.929   3.375
 5202SOL    HW117380  11.534   1.841   3.390
 5202SOL    HW217381  11.549   1.976   3.456
 5203SOL     OW17382   4.030  11.326  11.827
 5203SOL    HW117383   4.051  11.286  11.911
 5203SOL    HW217384   3.934  11.326  11.824
 5204SOL     OW17385   3.586   6.839   5.579
 5204SOL    HW117386   3.626   6.891   5.510
 5204SOL    HW217387   3.507   6.887   5.604
 5205SOL     OW17388   1.982   5.248   8.341
 5205SOL    HW117389   1.989   5.330   8.293
 5205SOL    HW217390   1.924   5.194   8.288
 5206SOL     OW17391  13.120   9.003   3.195
 5206SOL    HW117392  13.043   9.052   3.167
 5206SOL    HW217393  13.088   8.915   3.215
 5207SOL     OW17394  11.280   1.441  10.979
 5207SOL    HW117395  11.287   1.459  10.886
 5207SOL    HW217396  11.362   1.472  11.016
 5208SOL     OW17397   0.718   1.019  10.664
 5208SOL    HW117398   0.787   1.022  10.598
 5208SOL    HW217399   0.688   0.928  10.665
 5209SOL     OW17400  13.180   0.993   3.259
 5209SOL    HW117401  13.253   0.953   3.212
 5209SOL    HW217402  13.151   1.065   3.203
 5210SOL     OW17403  13.351   9.258   8.347
 5210SOL    HW117404  13.333   9.235   8.438
 5210SOL    HW217405  13.441   9.293   8.349
 5211SOL     OW17406  10.047   8.870  13.541
 5211SOL    HW117407  10.011   8.849  13.627
 5211SOL    HW217408   9.986   8.934  13.504
 5212SOL     OW17409   0.783   4.442   0.175
 5212SOL    HW117410   0.775   4.507   0.105
 5212SOL    HW217411   0.862   4.468   0.222
 5213SOL     OW17412  13.219   3.105  10.029
 5213SOL    HW117413  13.281   3.094   9.957
 5213SOL    HW217414  13.273   3.122  10.105
 5214SOL     OW17415   9.905   0.010   2.437
 5214SOL    HW117416   9.912   0.082   2.373
 5214SOL    HW217417   9.823   0.026   2.483
 5215SOL     OW17418  14.770  14.123   7.454
 5215SOL    HW117419  14.688  14.172   7.458
 5215SOL    HW217420  14.774  14.077   7.538
 5216SOL     OW17421   1.261   1.647  12.812
 5216SOL    HW117422   1.309   1.564  12.804
 5216SOL    HW217423   1.178   1.623  12.853
 5217SOL     OW17424   3.868   5.776   8.283
 5217SOL    HW117425   3.926   5.804   8.212
 5217SOL    HW217426   3.904   5.692   8.311
 5218SOL     OW17427   2.756   2.144  14.016
 5218SOL    HW117428   2.802   2.189  14.087
 5218SOL    HW217429   2.772   2.051  14.032
 5219SOL     OW17430  10.583   3.174   9.667
 5219SOL    HW117431  10.543   3.241   9.611
 5219SOL    HW217432  10.649   3.132   9.612
 5220SOL     OW17433  10.694   1.166  13.737
 5220SOL    HW117434  10.694   1.203  13.825
 5220SOL    HW217435  10.762   1.214  13.690
 5221SOL     OW17436   9.575   3.854   0.079
 5221SOL    HW117437   9.580   3.947   0.058
 5221SOL    HW217438   9.630   3.811   0.013
 5222SOL     OW17439   9.798   8.716  12.054
 5222SOL    HW117440   9.714   8.682  12.083
 5222SOL    HW217441   9.858   8.641  12.061
 5223SOL     OW17442   3.303   6.981   7.797
 5223SOL    HW117443   3.214   6.954   7.821
 5223SOL    HW217444   3.348   6.994   7.881
 5224SOL     OW17445   0.863   9.748   1.085
 5224SOL    HW117446   0.882   9.676   1.024
 5224SOL    HW217447   0.778   9.781   1.057
 5225SOL     OW17448   5.771   0.276   0.837
 5225SOL    HW117449   5.690   0.258   0.884
 5225SOL    HW217450   5.761   0.231   0.753
 5226SOL     OW17451  10.078   0.600  10.407
 5226SOL    HW117452  10.151   0.614  10.468
 5226SOL    HW217453  10.007   0.654  10.442
 5227SOL     OW17454  11.045   5.615   2.711
 5227SOL    HW117455  11.021   5.650   2.797
 5227SOL    HW217456  11.058   5.521   2.726
 5228SOL     OW17457   1.248  10.322  14.530
 5228SOL    HW117458   1.201  10.372  14.596
 5228SOL    HW217459   1.180  10.286  14.474
 5229SOL     OW17460  10.870  11.608   2.560
 5229SOL    HW117461  10.891  11.680   2.502
 5229SOL    HW217462  10.953  11.584   2.600
 5230SOL     OW17463  13.397  14.878   3.687
 5230SOL    HW117464  13.465   0.063   3.674
 5230SOL    HW217465  13.445  14.801   3.717
 5231SOL     OW17466   1.389   9.791   4.522
 5231SOL    HW117467   1.329   9.717   4.518
 5231SOL    HW217468   1.370   9.833   4.606
 5232SOL     OW17469   6.042   4.070  11.265
 5232SOL    HW117470   6.113   4.012  11.291
 5232SOL    HW217471   6.009   4.106  11.347
 5233SOL     OW17472  11.659  14.140  10.474
 5233SOL    HW117473  11.583  14.157  10.529
 5233SOL    HW217474  11.697  14.226  10.459
 5234SOL     OW17475  14.787   2.208  11.297
 5234SOL    HW117476  14.754   2.228  11.385
 5234SOL    HW217477  14.741   2.128  11.273
 5235SOL     OW17478  14.330   2.359  10.949
 5235SOL    HW117479  14.277   2.433  10.978
 5235SOL    HW217480  14.412   2.398  10.920
 5236SOL     OW17481  11.080   2.159   7.909
 5236SOL    HW117482  11.035   2.122   7.833
 5236SOL    HW217483  11.052   2.250   7.911
 5237SOL     OW17484   4.161   1.518   6.120
 5237SOL    HW117485   4.081   1.466   6.117
 5237SOL    HW217486   4.173   1.549   6.030
 5238SOL     OW17487  10.269   5.325  12.013
 5238SOL    HW117488  10.232   5.238  12.027
 5238SOL    HW217489  10.286   5.358  12.101
 5239SOL     OW17490   3.573   8.346   1.098
 5239SOL    HW117491   3.518   8.277   1.133
 5239SOL    HW217492   3.570   8.333   1.003
 5240SOL     OW17493   1.392  14.064   2.726
 5240SOL    HW117494   1.377  13.976   2.761
 5240SOL    HW217495   1.336  14.121   2.779
 5241SOL     OW17496  12.911   6.416   5.657
 5241SOL    HW117497  12.883   6.397   5.568
 5241SOL    HW217498  12.940   6.508   5.654
 5242SOL     OW17499   1.682   5.669   4.345
 5242SOL    HW117500   1.639   5.594   4.305
 5242SOL    HW217501   1.624   5.695   4.416
 5243SOL     OW17502  10.903   1.080  14.365
 5243SOL    HW117503  10.911   1.169  14.330
 5243SOL    HW217504  10.850   1.034  14.300
 5244SOL     OW17505  14.334  10.069   4.226
 5244SOL    HW117506  14.275  10.076   4.301
 5244SOL    HW217507  14.277  10.043   4.154
 5245SOL     OW17508  13.534   6.896   7.287
 5245SOL    HW117509  13.592   6.963   7.253
 5245SOL    HW217510  13.465   6.944   7.332
 5246SOL     OW17511   6.090  14.749   9.029
 5246SOL    HW117512   5.999  14.779   9.032
 5246SOL    HW217513   6.141  14.821   9.065
 5247SOL     OW17514  11.752   8.417   0.536
 5247SOL    HW117515  11.665   8.397   0.501
 5247SOL    HW217516  11.739   8.500   0.584
 5248SOL     OW17517   1.488   3.575   7.723
 5248SOL    HW117518   1.464   3.570   7.631
 5248SOL    HW217519   1.583   3.563   7.724
 5249SOL     OW17520   1.384  14.017   9.219
 5249SOL    HW117521   1.366  13.935   9.174
 5249SOL    HW217522   1.307  14.032   9.274
 5250SOL     OW17523  11.025   0.086   4.350
 5250SOL    HW117524  11.111   0.044   4.356
 5250SOL    HW217525  11.039   0.175   4.381
 5251SOL     OW17526   5.610   4.166   3.001
 5251SOL    HW117527   5.566   4.084   3.023
 5251SOL    HW217528   5.592   4.224   3.075
 5252SOL     OW17529   6.864  11.325   6.657
 5252SOL    HW117530   6.924  11.251   6.661
 5252SOL    HW217531   6.909  11.396   6.702
 5253SOL     OW17532   9.507   2.529   4.819
 5253SOL    HW117533   9.485   2.547   4.728
 5253SOL    HW217534   9.441   2.578   4.869
 5254SOL     OW17535   5.386   1.641   0.544
 5254SOL    HW117536   5.442   1.692   0.603
 5254SOL    HW217537   5.329   1.707   0.504
 5255SOL     OW17538   0.459  14.355  13.502
 5255SOL    HW117539   0.407  14.286  13.545
 5255SOL    HW217540   0.524  14.380  13.568
 5256SOL     OW17541  11.519  14.857   2.192
 5256SOL    HW117542  11.503   0.061   2.151
 5256SOL    HW217543  11.435  14.833   2.232
 5257SOL     OW17544   3.692   4.723   8.700
 5257SOL    HW117545   3.745   4.643   8.691
 5257SOL    HW217546   3.602   4.692   8.695
 5258SOL     OW17547   0.955   9.338   3.878
 5258SOL    HW117548   1.013   9.348   3.803
 5258SOL    HW217549   0.989   9.261   3.924
 5259SOL     OW17550   1.191  14.685  10.082
 5259SOL    HW117551   1.125  14.656  10.144
 5259SOL    HW217552   1.274  14.675  10.128
 5260SOL     OW17553   6.385   5.765   9.045
 5260SOL    HW117554   6.395   5.712   8.966
 5260SOL    HW217555   6.295   5.752   9.073
 5261SOL     OW17556   5.989  10.362   9.376
 5261SOL    HW117557   5.960  10.444   9.338
 5261SOL    HW217558   6.080  10.353   9.347
 5262SOL     OW17559   1.472   5.579   5.179
 5262SOL    HW117560   1.474   5.524   5.257
 5262SOL    HW217561   1.510   5.525   5.110
 5263SOL     OW17562   5.474  12.053   1.000
 5263SOL    HW117563   5.383  12.057   0.968
 5263SOL    HW217564   5.522  12.110   0.940
 5264SOL     OW17565   1.262  14.126   5.709
 5264SOL    HW117566   1.168  14.124   5.728
 5264SOL    HW217567   1.298  14.187   5.774
 5265SOL     OW17568   1.089  13.593  14.023
 5265SOL    HW117569   1.178  13.626  14.014
 5265SOL    HW217570   1.061  13.573  13.934
 5266SOL     OW17571   7.487  12.452  13.537
 5266SOL    HW117572   7.502  12.490  13.624
 5266SOL    HW217573   7.392  12.445  13.530
 5267SOL     OW17574   3.862  10.876   1.846
 5267SOL    HW117575   3.908  10.851   1.766
 5267SOL    HW217576   3.843  10.793   1.890
 5268SOL     OW17577  12.464  11.595  10.238
 5268SOL    HW117578  12.541  11.540  10.252
 5268SOL    HW217579  12.390  11.538  10.258
 5269SOL     OW17580   0.541  13.290   0.402
 5269SOL    HW117581   0.607  13.272   0.468
 5269SOL    HW217582   0.459  13.257   0.440
 5270SOL     OW17583  10.921   9.748   9.502
 5270SOL    HW117584  10.921   9.839   9.532
 5270SOL    HW217585  10.942   9.754   9.409
 5271SOL     OW17586   0.390  10.889  13.896
 5271SOL    HW117587   0.439  10.970  13.889
 5271SOL    HW217588   0.456  10.820  13.896
 5272SOL     OW17589   4.682   2.161  10.202
 5272SOL    HW117590   4.690   2.194  10.113
 5272SOL    HW217591   4.679   2.240  10.257
 5273SOL     OW17592   7.062  13.895   0.656
 5273SOL    HW117593   7.127  13.864   0.593
 5273SOL    HW217594   7.090  13.856   0.739
 5274SOL     OW17595   5.505   9.206   1.448
 5274SOL    HW117596   5.600   9.199   1.453
 5274SOL    HW217597   5.477   9.224   1.537
 5275SOL     OW17598  11.654   9.183   6.955
 5275SOL    HW117599  11.572   9.134   6.963
 5275SOL    HW217600  11.684   9.167   6.866
 5276SOL     OW17601   9.159  13.543   0.039
 5276SOL    HW117602   9.254  13.536   0.027
 5276SOL    HW217603   9.136  13.469   0.094
 5277SOL     OW17604   2.618   8.209   4.650
 5277SOL    HW117605   2.549   8.205   4.584
 5277SOL    HW217606   2.596   8.140   4.713
 5278SOL     OW17607   3.359   6.571   1.496
 5278SOL    HW117608   3.324   6.640   1.552
 5278SOL    HW217609   3.405   6.618   1.426
 5279SOL     OW17610   3.890  13.418   5.343
 5279SOL    HW117611   3.893  13.375   5.429
 5279SOL    HW217612   3.803  13.397   5.309
 5280SOL     OW17613   9.927   0.048   7.244
 5280SOL    HW117614   9.966   0.054   7.157
 5280SOL    HW217615   9.838   0.083   7.233
 5281SOL     OW17616   1.593   4.419   6.908
 5281SOL    HW117617   1.629   4.451   6.826
 5281SOL    HW217618   1.664   4.430   6.972
 5282SOL     OW17619   5.757  13.192   8.907
 5282SOL    HW117620   5.848  13.171   8.929
 5282SOL    HW217621   5.717  13.107   8.888
 5283SOL     OW17622   8.813  13.747   8.028
 5283SOL    HW117623   8.737  13.789   8.067
 5283SOL    HW217624   8.787  13.728   7.938
 5284SOL     OW17625   8.666   4.811   3.362
 5284SOL    HW117626   8.681   4.898   3.397
 5284SOL    HW217627   8.623   4.827   3.277
 5285SOL     OW17628  14.290  11.729  12.400
 5285SOL    HW117629  14.259  11.816  12.373
 5285SOL    HW217630  14.264  11.722  12.492
 5286SOL     OW17631  12.031   9.061  14.023
 5286SOL    HW117632  11.950   9.020  13.993
 5286SOL    HW217633  12.063   9.107  13.946
 5287SOL     OW17634  10.791   4.684   7.930
 5287SOL    HW117635  10.718   4.698   7.990
 5287SOL    HW217636  10.788   4.759   7.870
 5288SOL     OW17637   3.703   2.777   9.331
 5288SOL    HW117638   3.708   2.707   9.396
 5288SOL    HW217639   3.637   2.838   9.367
 5289SOL     OW17640   4.232   1.587   2.184
 5289SOL    HW117641   4.297   1.588   2.114
 5289SOL    HW217642   4.195   1.499   2.182
 5290SOL     OW17643   4.329   6.107   6.863
 5290SOL    HW117644   4.284   6.057   6.930
 5290SOL    HW217645   4.415   6.065   6.855
 5291SOL     OW17646   2.188   2.516   8.628
 5291SOL    HW117647   2.213   2.478   8.713
 5291SOL    HW217648   2.149   2.442   8.580
 5292SOL     OW17649   0.783   3.881  10.376
 5292SOL    HW117650   0.767   3.802  10.325
 5292SOL    HW217651   0.778   3.952  10.313
 5293SOL     OW17652  12.372  14.825   0.316
 5293SOL    HW117653  12.335  14.757   0.372
 5293SOL    HW217654  12.310  14.833   0.244
 5294SOL     OW17655   1.345   3.863  10.045
 5294SOL    HW117656   1.412   3.924  10.014
 5294SOL    HW217657   1.380   3.826  10.125
 5295SOL     OW17658  11.879   3.264   9.771
 5295SOL    HW117659  11.878   3.251   9.866
 5295SOL    HW217660  11.855   3.179   9.735
 5296SOL     OW17661  14.025  10.936   3.959
 5296SOL    HW117662  13.965  10.867   3.988
 5296SOL    HW217663  14.104  10.889   3.931
 5297SOL     OW17664  14.304   0.986  10.072
 5297SOL    HW117665  14.277   0.981  10.164
 5297SOL    HW217666  14.395   1.015  10.075
 5298SOL     OW17667   8.784   3.879   4.967
 5298SOL    HW117668   8.859   3.857   4.912
 5298SOL    HW217669   8.770   3.801   5.021
 5299SOL     OW17670   9.776   0.990   9.209
 5299SOL    HW117671   9.687   1.008   9.179
 5299SOL    HW217672   9.824   0.965   9.130
 5300SOL     OW17673   0.980   6.300   1.836
 5300SOL    HW117674   0.943   6.381   1.801
 5300SOL    HW217675   1.075   6.310   1.824
 5301SOL     OW17676   9.254   1.508  12.742
 5301SOL    HW117677   9.273   1.472  12.655
 5301SOL    HW217678   9.336   1.549  12.769
 5302SOL     OW17679  14.026   2.110  14.867
 5302SOL    HW117680  13.998   2.135  14.779
 5302SOL    HW217681  13.999   2.018  14.875
 5303SOL     OW17682   5.041   0.245   2.713
 5303SOL    HW117683   5.111   0.283   2.766
 5303SOL    HW217684   4.977   0.316   2.703
 5304SOL     OW17685  10.793  11.939  14.766
 5304SOL    HW117686  10.773  12.023  14.808
 5304SOL    HW217687  10.797  11.960  14.672
 5305SOL     OW17688  10.248   0.089  10.087
 5305SOL    HW117689  10.199   0.168  10.065
 5305SOL    HW217690  10.296   0.113  10.166
 5306SOL     OW17691   6.065   9.397   1.182
 5306SOL    HW117692   6.149   9.375   1.222
 5306SOL    HW217693   6.081   9.392   1.087
 5307SOL     OW17694   2.882  14.468  11.356
 5307SOL    HW117695   2.850  14.500  11.272
 5307SOL    HW217696   2.964  14.515  11.370
 5308SOL     OW17697   1.070   7.796   8.021
 5308SOL    HW117698   1.135   7.741   7.977
 5308SOL    HW217699   1.006   7.734   8.057
 5309SOL     OW17700   3.058  11.647  14.697
 5309SOL    HW117701   3.080  11.554  14.703
 5309SOL    HW217702   3.109  11.688  14.766
 5310SOL     OW17703   0.873   5.395   1.778
 5310SOL    HW117704   0.909   5.422   1.694
 5310SOL    HW217705   0.950   5.378   1.833
 5311SOL     OW17706   6.529  10.544   9.310
 5311SOL    HW117707   6.537  10.491   9.390
 5311SOL    HW217708   6.454  10.602   9.328
 5312SOL     OW17709   0.430   4.852   4.470
 5312SOL    HW117710   0.415   4.760   4.491
 5312SOL    HW217711   0.510   4.875   4.516
 5313SOL     OW17712   7.781   0.929   9.195
 5313SOL    HW117713   7.693   0.903   9.169
 5313SOL    HW217714   7.771   0.964   9.284
 5314SOL     OW17715   5.754   4.455   9.675
 5314SOL    HW117716   5.693   4.527   9.691
 5314SOL    HW217717   5.700   4.376   9.686
 5315SOL     OW17718   3.853   4.954  14.412
 5315SOL    HW117719   3.897   4.870  14.397
 5315SOL    HW217720   3.910   5.001  14.473
 5316SOL     OW17721  10.213   8.222  12.827
 5316SOL    HW117722  10.204   8.138  12.783
 5316SOL    HW217723  10.294   8.260  12.793
 5317SOL     OW17724   1.541  10.246   5.164
 5317SOL    HW117725   1.508  10.158   5.183
 5317SOL    HW217726   1.548  10.288   5.250
 5318SOL     OW17727  13.084   2.252   8.521
 5318SOL    HW117728  13.055   2.312   8.453
 5318SOL    HW217729  13.178   2.240   8.503
 5319SOL     OW17730   6.055   0.003  11.996
 5319SOL    HW117731   6.039   0.029  12.086
 5319SOL    HW217732   5.993  14.814  11.979
 5320SOL     OW17733  14.385   8.089   3.391
 5320SOL    HW117734  14.420   8.087   3.302
 5320SOL    HW217735  14.348   8.001   3.404
 5321SOL     OW17736   5.225   4.017   0.839
 5321SOL    HW117737   5.302   4.046   0.887
 5321SOL    HW217738   5.156   4.008   0.905
 5322SOL     OW17739   9.658   2.649   7.474
 5322SOL    HW117740   9.715   2.709   7.521
 5322SOL    HW217741   9.715   2.607   7.409
 5323SOL     OW17742   9.515  12.248  12.450
 5323SOL    HW117743   9.420  12.255  12.461
 5323SOL    HW217744   9.542  12.187  12.519
 5324SOL     OW17745   4.426   0.134   2.616
 5324SOL    HW117746   4.465   0.164   2.534
 5324SOL    HW217747   4.364   0.203   2.639
 5325SOL     OW17748   8.262  11.362   8.425
 5325SOL    HW117749   8.283  11.370   8.518
 5325SOL    HW217750   8.347  11.353   8.382
 5326SOL     OW17751   6.788   1.866  13.632
 5326SOL    HW117752   6.726   1.926  13.590
 5326SOL    HW217753   6.819   1.810  13.561
 5327SOL     OW17754   1.259   4.419  12.030
 5327SOL    HW117755   1.328   4.399  12.094
 5327SOL    HW217756   1.282   4.505  11.996
 5328SOL     OW17757  12.570   5.114   3.105
 5328SOL    HW117758  12.557   5.052   3.177
 5328SOL    HW217759  12.542   5.198   3.141
 5329SOL     OW17760  12.240  14.292  14.497
 5329SOL    HW117761  12.240  14.289  14.593
 5329SOL    HW217762  12.320  14.245  14.472
 5330SOL     OW17763   4.864   3.070   4.305
 5330SOL    HW117764   4.822   3.109   4.382
 5330SOL    HW217765   4.932   3.132   4.280
 5331SOL     OW17766   9.745  13.964  13.360
 5331SOL    HW117767   9.735  13.957  13.265
 5331SOL    HW217768   9.704  14.048  13.382
 5332SOL     OW17769   7.579  13.956  14.636
 5332SOL    HW117770   7.637  13.992  14.569
 5332SOL    HW217771   7.615  13.869  14.655
 5333SOL     OW17772   8.599  12.991  10.760
 5333SOL    HW117773   8.520  12.997  10.707
 5333SOL    HW217774   8.642  12.911  10.730
 5334SOL     OW17775   5.292   8.109  14.808
 5334SOL    HW117776   5.351   8.034  14.813
 5334SOL    HW217777   5.314   8.161   0.004
 5335SOL     OW17778   0.778  14.359   8.755
 5335SOL    HW117779   0.810  14.310   8.831
 5335SOL    HW217780   0.779  14.450   8.783
 5336SOL     OW17781   6.079   4.804   8.596
 5336SOL    HW117782   5.992   4.822   8.632
 5336SOL    HW217783   6.114   4.891   8.575
 5337SOL     OW17784  12.547   0.513  13.771
 5337SOL    HW117785  12.511   0.547  13.688
 5337SOL    HW217786  12.534   0.418  13.765
 5338SOL     OW17787  12.377  10.456  11.972
 5338SOL    HW117788  12.303  10.458  12.033
 5338SOL    HW217789  12.447  10.503  12.019
 5339SOL     OW17790  12.154  14.421  14.002
 5339SOL    HW117791  12.133  14.328  13.990
 5339SOL    HW217792  12.075  14.466  13.972
 5340SOL     OW17793   3.072   8.441  10.953
 5340SOL    HW117794   3.117   8.516  10.991
 5340SOL    HW217795   3.120   8.422  10.873
 5341SOL     OW17796   2.164  12.098   5.328
 5341SOL    HW117797   2.239  12.043   5.304
 5341SOL    HW217798   2.174  12.176   5.274
 5342SOL     OW17799   2.063  11.204   4.277
 5342SOL    HW117800   2.032  11.215   4.367
 5342SOL    HW217801   1.984  11.202   4.224
 5343SOL     OW17802   4.855  10.931   8.306
 5343SOL    HW117803   4.768  10.892   8.309
 5343SOL    HW217804   4.914  10.857   8.291
 5344SOL     OW17805   9.190  13.490   9.679
 5344SOL    HW117806   9.119  13.481   9.743
 5344SOL    HW217807   9.173  13.423   9.614
 5345SOL     OW17808   4.808   9.163   7.085
 5345SOL    HW117809   4.864   9.123   7.019
 5345SOL    HW217810   4.753   9.224   7.036
 5346SOL     OW17811   2.154  13.986   2.914
 5346SOL    HW117812   2.109  13.960   2.994
 5346SOL    HW217813   2.222  14.047   2.943
 5347SOL     OW17814   6.186   8.108   3.853
 5347SOL    HW117815   6.241   8.107   3.774
 5347SOL    HW217816   6.244   8.138   3.922
 5348SOL     OW17817   8.003   4.531  11.503
 5348SOL    HW117818   8.005   4.518  11.408
 5348SOL    HW217819   8.085   4.576  11.523
 5349SOL     OW17820   2.424   5.456   2.606
 5349SOL    HW117821   2.354   5.411   2.558
 5349SOL    HW217822   2.415   5.425   2.696
 5350SOL     OW17823  13.950   0.526   6.373
 5350SOL    HW117824  13.916   0.615   6.379
 5350SOL    HW217825  13.876   0.473   6.343
 5351SOL     OW17826  12.262   8.223  12.314
 5351SOL    HW117827  12.324   8.255  12.249
 5351SOL    HW217828  12.276   8.128  12.315
 5352SOL     OW17829  12.521  11.180   3.906
 5352SOL    HW117830  12.611  11.190   3.874
 5352SOL    HW217831  12.477  11.262   3.879
 5353SOL     OW17832  13.653   0.025   1.109
 5353SOL    HW117833  13.609  14.844   1.166
 5353SOL    HW217834  13.595   0.034   1.033
 5354SOL     OW17835   7.164   2.823   0.377
 5354SOL    HW117836   7.220   2.754   0.411
 5354SOL    HW217837   7.224   2.894   0.354
 5355SOL     OW17838  13.044   2.387   8.280
 5355SOL    HW117839  13.124   2.414   8.235
 5355SOL    HW217840  13.017   2.307   8.236
 5356SOL     OW17841   6.970   6.582   0.954
 5356SOL    HW117842   6.928   6.571   0.869
 5356SOL    HW217843   7.032   6.654   0.942
 5357SOL     OW17844   2.150  13.069   4.984
 5357SOL    HW117845   2.098  13.110   5.053
 5357SOL    HW217846   2.227  13.034   5.029
 5358SOL     OW17847   0.256   6.562  12.223
 5358SOL    HW117848   0.160   6.568  12.229
 5358SOL    HW217849   0.275   6.580  12.131
 5359SOL     OW17850   9.082   5.053  10.474
 5359SOL    HW117851   9.150   5.009  10.422
 5359SOL    HW217852   9.131   5.105  10.537
 5360SOL     OW17853   3.368   5.332  12.338
 5360SOL    HW117854   3.295   5.322  12.400
 5360SOL    HW217855   3.389   5.426  12.341
 5361SOL     OW17856   7.907   6.235   1.955
 5361SOL    HW117857   7.838   6.179   1.921
 5361SOL    HW217858   7.975   6.233   1.888
 5362SOL     OW17859  10.388   6.482   7.415
 5362SOL    HW117860  10.459   6.494   7.479
 5362SOL    HW217861  10.311   6.521   7.458
 5363SOL     OW17862  14.872  12.942   5.059
 5363SOL    HW117863  14.837  12.962   4.972
 5363SOL    HW217864   0.027  13.025   5.089
 5364SOL     OW17865  11.003   8.114  13.616
 5364SOL    HW117866  11.028   8.036  13.566
 5364SOL    HW217867  10.926   8.087  13.666
 5365SOL     OW17868  14.408   2.260  11.480
 5365SOL    HW117869  14.361   2.183  11.513
 5365SOL    HW217870  14.500   2.233  11.478
 5366SOL     OW17871   6.749   6.237  12.954
 5366SOL    HW117872   6.792   6.152  12.948
 5366SOL    HW217873   6.742   6.267  12.863
 5367SOL     OW17874   6.678   4.641  10.551
 5367SOL    HW117875   6.695   4.586  10.627
 5367SOL    HW217876   6.764   4.676  10.527
 5368SOL     OW17877   9.842  12.859   7.104
 5368SOL    HW117878   9.837  12.922   7.032
 5368SOL    HW217879   9.774  12.795   7.084
 5369SOL     OW17880   8.136   7.924  14.873
 5369SOL    HW117881   8.059   7.972   0.021
 5369SOL    HW217882   8.199   7.932   0.063
 5370SOL     OW17883  13.158   3.910  13.896
 5370SOL    HW117884  13.227   3.847  13.877
 5370SOL    HW217885  13.111   3.872  13.970
 5371SOL     OW17886   4.781  11.991   9.280
 5371SOL    HW117887   4.846  11.984   9.209
 5371SOL    HW217888   4.784  12.083   9.306
 5372SOL     OW17889  14.514   5.406   8.911
 5372SOL    HW117890  14.473   5.427   8.827
 5372SOL    HW217891  14.450   5.349   8.955
 5373SOL     OW17892   8.617   7.147   8.288
 5373SOL    HW117893   8.589   7.230   8.324
 5373SOL    HW217894   8.539   7.111   8.246
 5374SOL     OW17895  13.586   4.686   5.114
 5374SOL    HW117896  13.503   4.645   5.089
 5374SOL    HW217897  13.648   4.613   5.117
 5375SOL     OW17898   4.629   6.544   4.784
 5375SOL    HW117899   4.717   6.523   4.814
 5375SOL    HW217900   4.608   6.476   4.720
 5376SOL     OW17901   5.683   2.934   8.190
 5376SOL    HW117902   5.683   2.878   8.267
 5376SOL    HW217903   5.612   2.997   8.206
 5377SOL     OW17904   6.976  12.664   2.990
 5377SOL    HW117905   7.029  12.679   3.069
 5377SOL    HW217906   6.965  12.569   2.986
 5378SOL     OW17907   6.093   6.675   2.218
 5378SOL    HW117908   6.010   6.636   2.192
 5378SOL    HW217909   6.079   6.769   2.211
 5379SOL     OW17910   6.363   7.818  12.112
 5379SOL    HW117911   6.398   7.848  12.029
 5379SOL    HW217912   6.302   7.747  12.088
 5380SOL     OW17913   2.032  12.570   5.230
 5380SOL    HW117914   2.003  12.631   5.163
 5380SOL    HW217915   1.988  12.598   5.310
 5381SOL     OW17916   2.978  13.510  13.968
 5381SOL    HW117917   2.942  13.481  14.052
 5381SOL    HW217918   3.040  13.441  13.944
 5382SOL     OW17919   0.134   7.855  12.214
 5382SOL    HW117920   0.150   7.853  12.308
 5382SOL    HW217921   0.217   7.882  12.175
 5383SOL     OW17922   6.375   3.392   4.554
 5383SOL    HW117923   6.450   3.400   4.613
 5383SOL    HW217924   6.381   3.469   4.498
 5384SOL     OW17925   3.205   0.657  13.782
 5384SOL    HW117926   3.231   0.675  13.692
 5384SOL    HW217927   3.131   0.597  13.774
 5385SOL     OW17928   4.841  13.987   3.395
 5385SOL    HW117929   4.793  14.064   3.367
 5385SOL    HW217930   4.906  14.021   3.456
 5386SOL     OW17931  12.490  12.682   9.048
 5386SOL    HW117932  12.523  12.631   8.974
 5386SOL    HW217933  12.396  12.662   9.050
 5387SOL     OW17934  12.693  11.573  14.793
 5387SOL    HW117935  12.606  11.590  14.756
 5387SOL    HW217936  12.708  11.647  14.853
 5388SOL     OW17937   1.313  13.635  12.403
 5388SOL    HW117938   1.248  13.576  12.442
 5388SOL    HW217939   1.261  13.697  12.352
 5389SOL     OW17940   8.466   7.579   0.830
 5389SOL    HW117941   8.383   7.538   0.854
 5389SOL    HW217942   8.444   7.670   0.813
 5390SOL     OW17943   6.400   7.775   0.215
 5390SOL    HW117944   6.346   7.851   0.195
 5390SOL    HW217945   6.454   7.762   0.137
 5391SOL     OW17946   8.413   4.024   0.918
 5391SOL    HW117947   8.493   4.009   0.867
 5391SOL    HW217948   8.371   3.938   0.922
 5392SOL     OW17949   6.762   2.745   4.203
 5392SOL    HW117950   6.732   2.679   4.265
 5392SOL    HW217951   6.839   2.784   4.244
 5393SOL     OW17952   8.578   4.997   7.224
 5393SOL    HW117953   8.504   4.948   7.259
 5393SOL    HW217954   8.573   4.986   7.130
 5394SOL     OW17955  13.880   1.807  14.565
 5394SOL    HW117956  13.806   1.781  14.509
 5394SOL    HW217957  13.954   1.814  14.505
 5395SOL     OW17958  11.042  10.906   9.351
 5395SOL    HW117959  11.039  10.898   9.256
 5395SOL    HW217960  10.961  10.865   9.382
 5396SOL     OW17961   3.231   6.791   1.611
 5396SOL    HW117962   3.218   6.861   1.675
 5396SOL    HW217963   3.223   6.835   1.526
 5397SOL     OW17964   8.906   3.398   3.488
 5397SOL    HW117965   8.882   3.364   3.574
 5397SOL    HW217966   8.880   3.491   3.492
 5398SOL     OW17967   0.396   9.754   2.364
 5398SOL    HW117968   0.315   9.708   2.341
 5398SOL    HW217969   0.383   9.780   2.455
 5399SOL     OW17970   3.273   7.303   4.008
 5399SOL    HW117971   3.183   7.320   3.980
 5399SOL    HW217972   3.278   7.208   4.018
 5400SOL     OW17973   0.922   7.291  12.845
 5400SOL    HW117974   0.915   7.260  12.755
 5400SOL    HW217975   0.961   7.218  12.893
 5401SOL     OW17976  12.065   5.809   6.378
 5401SOL    HW117977  12.140   5.772   6.424
 5401SOL    HW217978  11.989   5.781   6.430
 5402SOL     OW17979   2.825   3.781  11.190
 5402SOL    HW117980   2.835   3.732  11.272
 5402SOL    HW217981   2.830   3.873  11.217
 5403SOL     OW17982   1.272   2.131   9.563
 5403SOL    HW117983   1.334   2.074   9.607
 5403SOL    HW217984   1.287   2.114   9.470
 5404SOL     OW17985  11.478  10.998   9.431
 5404SOL    HW117986  11.423  10.994   9.509
 5404SOL    HW217987  11.444  10.929   9.374
 5405SOL     OW17988   2.697   9.572   8.119
 5405SOL    HW117989   2.621   9.513   8.118
 5405SOL    HW217990   2.715   9.586   8.212
 5406SOL     OW17991   8.995  13.864   2.489
 5406SOL    HW117992   8.956  13.832   2.571
 5406SOL    HW217993   8.986  13.791   2.428
 5407SOL     OW17994   7.765   4.108   2.173
 5407SOL    HW117995   7.823   4.127   2.099
 5407SOL    HW217996   7.819   4.125   2.250
 5408SOL     OW17997   2.180  13.075   1.491
 5408SOL    HW117998   2.256  13.091   1.547
 5408SOL    HW217999   2.205  13.109   1.405
 5409SOL     OW18000   5.867  13.315  12.715
 5409SOL    HW118001   5.866  13.314  12.620
 5409SOL    HW218002   5.781  13.282  12.741
 5410SOL     OW18003  11.261   9.781  14.507
 5410SOL    HW118004  11.279   9.809  14.416
 5410SOL    HW218005  11.312   9.700  14.517
 5411SOL     OW18006   4.794  12.165  10.868
 5411SOL    HW118007   4.796  12.072  10.891
 5411SOL    HW218008   4.844  12.208  10.937
 5412SOL     OW18009   6.046   6.381   0.965
 5412SOL    HW118010   6.105   6.332   1.023
 5412SOL    HW218011   6.008   6.314   0.908
 5413SOL     OW18012  13.105   9.881  11.317
 5413SOL    HW118013  13.026   9.828  11.304
 5413SOL    HW218014  13.077   9.970  11.295
 5414SOL     OW18015   5.425   6.730   2.878
 5414SOL    HW118016   5.458   6.641   2.882
 5414SOL    HW218017   5.399   6.742   2.786
 5415SOL     OW18018   8.939   6.696   0.151
 5415SOL    HW118019   9.020   6.647   0.138
 5415SOL    HW218020   8.964   6.769   0.207
 5416SOL     OW18021   3.251   9.709   7.659
 5416SOL    HW118022   3.217   9.751   7.580
 5416SOL    HW218023   3.208   9.755   7.731
 5417SOL     OW18024  10.278   5.836  12.309
 5417SOL    HW118025  10.243   5.914  12.352
 5417SOL    HW218026  10.327   5.791  12.377
 5418SOL     OW18027   8.751  10.244  10.374
 5418SOL    HW118028   8.693  10.175  10.340
 5418SOL    HW218029   8.695  10.296  10.431
 5419SOL     OW18030   1.797   1.106  13.180
 5419SOL    HW118031   1.868   1.130  13.121
 5419SOL    HW218032   1.801   1.172  13.249
 5420SOL     OW18033   1.316   1.427  12.442
 5420SOL    HW118034   1.226   1.395  12.447
 5420SOL    HW218035   1.316   1.508  12.493
 5421SOL     OW18036   7.051   4.710   3.095
 5421SOL    HW118037   6.956   4.708   3.096
 5421SOL    HW218038   7.075   4.765   3.170
 5422SOL     OW18039   3.043   5.736  13.214
 5422SOL    HW118040   3.028   5.685  13.294
 5422SOL    HW218041   3.067   5.670  13.149
 5423SOL     OW18042   1.656   5.402  11.575
 5423SOL    HW118043   1.700   5.480  11.610
 5423SOL    HW218044   1.708   5.329  11.609
 5424SOL     OW18045   8.575   0.644   0.008
 5424SOL    HW118046   8.621   0.560   0.012
 5424SOL    HW218047   8.528   0.642  14.806
 5425SOL     OW18048   4.899   8.022   7.536
 5425SOL    HW118049   4.927   7.930   7.541
 5425SOL    HW218050   4.887   8.038   7.442
 5426SOL     OW18051   7.671  11.360   3.260
 5426SOL    HW118052   7.710  11.283   3.301
 5426SOL    HW218053   7.712  11.434   3.305
 5427SOL     OW18054  10.908  13.515   0.539
 5427SOL    HW118055  10.815  13.535   0.524
 5427SOL    HW218056  10.921  13.430   0.498
 5428SOL     OW18057  11.551   7.895   8.002
 5428SOL    HW118058  11.610   7.831   8.040
 5428SOL    HW218059  11.467   7.879   8.044
 5429SOL     OW18060  13.903   1.499  11.115
 5429SOL    HW118061  13.818   1.541  11.131
 5429SOL    HW218062  13.961   1.534  11.182
 5430SOL     OW18063  12.303   6.261   1.663
 5430SOL    HW118064  12.247   6.254   1.586
 5430SOL    HW218065  12.321   6.355   1.670
 5431SOL     OW18066   5.144   7.492   5.572
 5431SOL    HW118067   5.141   7.398   5.588
 5431SOL    HW218068   5.053   7.517   5.555
 5432SOL     OW18069   2.260   9.882   7.427
 5432SOL    HW118070   2.219   9.818   7.485
 5432SOL    HW218071   2.349   9.892   7.462
 5433SOL     OW18072   0.918   4.015   1.640
 5433SOL    HW118073   0.865   4.081   1.686
 5433SOL    HW218074   0.950   4.060   1.562
 5434SOL     OW18075   4.890  12.348   8.037
 5434SOL    HW118076   4.918  12.341   7.946
 5434SOL    HW218077   4.971  12.343   8.087
 5435SOL     OW18078   1.640   8.763  10.484
 5435SOL    HW118079   1.692   8.836  10.518
 5435SOL    HW218080   1.676   8.686  10.528
 5436SOL     OW18081  13.102   6.986  13.758
 5436SOL    HW118082  13.076   6.938  13.837
 5436SOL    HW218083  13.164   6.928  13.714
 5437SOL     OW18084  12.522   2.965   4.776
 5437SOL    HW118085  12.563   3.029   4.833
 5437SOL    HW218086  12.433   2.997   4.764
 5438SOL     OW18087  11.606   0.546   8.389
 5438SOL    HW118088  11.668   0.614   8.416
 5438SOL    HW218089  11.553   0.528   8.467
 5439SOL     OW18090  11.891   2.681  14.385
 5439SOL    HW118091  11.975   2.727  14.390
 5439SOL    HW218092  11.903   2.617  14.315
 5440SOL     OW18093   8.178   4.551   6.828
 5440SOL    HW118094   8.161   4.591   6.742
 5440SOL    HW218095   8.172   4.457   6.812
 5441SOL     OW18096  12.210   2.694   8.399
 5441SOL    HW118097  12.163   2.682   8.316
 5441SOL    HW218098  12.142   2.686   8.466
 5442SOL     OW18099  10.534   1.093   5.872
 5442SOL    HW118100  10.492   1.101   5.786
 5442SOL    HW218101  10.603   1.159   5.871
 5443SOL     OW18102  11.350   9.841  14.261
 5443SOL    HW118103  11.339   9.918  14.205
 5443SOL    HW218104  11.436   9.854  14.302
 5444SOL     OW18105   6.295  12.143   0.166
 5444SOL    HW118106   6.217  12.101   0.131
 5444SOL    HW218107   6.364  12.078   0.154
 5445SOL     OW18108  11.910  12.129  13.632
 5445SOL    HW118109  11.878  12.084  13.554
 5445SOL    HW218110  11.881  12.220  13.621
 5446SOL     OW18111  11.752   0.030   1.901
 5446SOL    HW118112  11.797   0.056   1.981
 5446SOL    HW218113  11.731  14.819   1.913
 5447SOL     OW18114   6.019   8.334   9.598
 5447SOL    HW118115   5.968   8.254   9.613
 5447SOL    HW218116   6.029   8.372   9.685
 5448SOL     OW18117   8.113   8.371   3.048
 5448SOL    HW118118   8.034   8.417   3.018
 5448SOL    HW218119   8.155   8.341   2.968
 5449SOL     OW18120   0.169  10.428  12.831
 5449SOL    HW118121   0.203  10.371  12.899
 5449SOL    HW218122   0.183  10.380  12.749
 5450SOL     OW18123   7.571   5.792   2.025
 5450SOL    HW118124   7.643   5.842   2.066
 5450SOL    HW218125   7.595   5.701   2.038
 5451SOL     OW18126   2.439   7.091   1.065
 5451SOL    HW118127   2.354   7.115   1.028
 5451SOL    HW218128   2.448   7.147   1.142
 5452SOL     OW18129  12.942   2.031  13.230
 5452SOL    HW118130  12.973   1.990  13.311
 5452SOL    HW218131  12.849   2.048  13.246
 5453SOL     OW18132   5.698   8.454  10.731
 5453SOL    HW118133   5.676   8.535  10.777
 5453SOL    HW218134   5.780   8.425  10.771
 5454SOL     OW18135   3.181  13.016   2.652
 5454SOL    HW118136   3.092  13.013   2.616
 5454SOL    HW218137   3.183  13.097   2.704
 5455SOL     OW18138   3.141   2.434   9.225
 5455SOL    HW118139   3.136   2.361   9.287
 5455SOL    HW218140   3.172   2.394   9.144
 5456SOL     OW18141   7.610   4.488   8.700
 5456SOL    HW118142   7.582   4.437   8.776
 5456SOL    HW218143   7.687   4.536   8.729
 5457SOL     OW18144  14.464   9.928   7.954
 5457SOL    HW118145  14.447  10.012   7.995
 5457SOL    HW218146  14.425   9.864   8.013
 5458SOL     OW18147   6.819   3.943  10.001
 5458SOL    HW118148   6.904   3.966   9.964
 5458SOL    HW218149   6.837   3.927  10.094
 5459SOL     OW18150   8.169   2.368   9.597
 5459SOL    HW118151   8.133   2.409   9.518
 5459SOL    HW218152   8.216   2.438   9.641
 5460SOL     OW18153   1.273  14.567   9.587
 5460SOL    HW118154   1.252  14.651   9.629
 5460SOL    HW218155   1.307  14.591   9.501
 5461SOL     OW18156  14.623  12.862  10.610
 5461SOL    HW118157  14.708  12.903  10.596
 5461SOL    HW218158  14.620  12.843  10.704
 5462SOL     OW18159  14.469   5.928   6.507
 5462SOL    HW118160  14.495   5.867   6.576
 5462SOL    HW218161  14.455   6.011   6.552
 5463SOL     OW18162   3.515   0.893  13.694
 5463SOL    HW118163   3.587   0.833  13.708
 5463SOL    HW218164   3.475   0.904  13.780
 5464SOL     OW18165   7.015   4.041   6.082
 5464SOL    HW118166   7.056   3.961   6.049
 5464SOL    HW218167   7.013   4.030   6.177
 5465SOL     OW18168   0.480   4.422  12.056
 5465SOL    HW118169   0.414   4.375  12.005
 5465SOL    HW218170   0.528   4.474  11.992
 5466SOL     OW18171   9.529   3.158   1.250
 5466SOL    HW118172   9.497   3.212   1.322
 5466SOL    HW218173   9.455   3.151   1.191
 5467SOL     OW18174   9.628   8.993   4.612
 5467SOL    HW118175   9.597   9.015   4.524
 5467SOL    HW218176   9.597   8.904   4.627
 5468SOL     OW18177  14.150   0.822   3.310
 5468SOL    HW118178  14.078   0.849   3.254
 5468SOL    HW218179  14.153   0.727   3.302
 5469SOL     OW18180  13.470   6.130   0.708
 5469SOL    HW118181  13.389   6.154   0.754
 5469SOL    HW218182  13.494   6.045   0.744
 5470SOL     OW18183   4.244  12.836   3.521
 5470SOL    HW118184   4.194  12.789   3.455
 5470SOL    HW218185   4.272  12.916   3.477
 5471SOL     OW18186  11.638   7.636  12.081
 5471SOL    HW118187  11.676   7.674  12.161
 5471SOL    HW218188  11.685   7.680  12.010
 5472SOL     OW18189  10.387   4.281  13.278
 5472SOL    HW118190  10.386   4.375  13.259
 5472SOL    HW218191  10.301   4.264  13.316
 5473SOL     OW18192   4.527   4.772   5.331
 5473SOL    HW118193   4.471   4.695   5.344
 5473SOL    HW218194   4.497   4.834   5.398
 5474SOL     OW18195   3.916  14.283  14.111
 5474SOL    HW118196   3.862  14.223  14.060
 5474SOL    HW218197   3.860  14.358  14.128
 5475SOL     OW18198   0.520  12.500   2.088
 5475SOL    HW118199   0.576  12.453   2.150
 5475SOL    HW218200   0.431  12.490   2.123
 5476SOL     OW18201  11.225   9.970  13.764
 5476SOL    HW118202  11.144  10.011  13.736
 5476SOL    HW218203  11.269  10.037  13.818
 5477SOL     OW18204   6.161   9.349  12.780
 5477SOL    HW118205   6.111   9.271  12.804
 5477SOL    HW218206   6.111   9.389  12.710
 5478SOL     OW18207   7.502   9.429   0.308
 5478SOL    HW118208   7.515   9.385   0.393
 5478SOL    HW218209   7.508   9.522   0.328
 5479SOL     OW18210   8.909   1.041  13.207
 5479SOL    HW118211   8.960   0.960  13.205
 5479SOL    HW218212   8.873   1.044  13.296
 5480SOL     OW18213   2.742   1.921   8.658
 5480SOL    HW118214   2.735   2.016   8.665
 5480SOL    HW218215   2.833   1.902   8.681
 5481SOL     OW18216   8.617   4.730   0.278
 5481SOL    HW118217   8.661   4.720   0.363
 5481SOL    HW218218   8.688   4.754   0.218
 5482SOL     OW18219   3.025  13.022   1.650
 5482SOL    HW118220   3.115  13.055   1.651
 5482SOL    HW218221   3.028  12.945   1.592
 5483SOL     OW18222   6.384   0.111  10.682
 5483SOL    HW118223   6.452   0.150  10.627
 5483SOL    HW218224   6.327   0.185  10.705
 5484SOL     OW18225   6.484   9.217   5.587
 5484SOL    HW118226   6.449   9.135   5.621
 5484SOL    HW218227   6.411   9.257   5.540
 5485SOL     OW18228   4.707   7.091   3.935
 5485SOL    HW118229   4.712   6.995   3.938
 5485SOL    HW218230   4.750   7.114   3.852
 5486SOL     OW18231   3.013   4.932  10.630
 5486SOL    HW118232   3.041   4.925  10.539
 5486SOL    HW218233   3.089   4.965  10.677
 5487SOL     OW18234   0.617   3.918   2.823
 5487SOL    HW118235   0.658   3.881   2.902
 5487SOL    HW218236   0.688   3.925   2.760
 5488SOL     OW18237   3.123   2.627  12.429
 5488SOL    HW118238   3.057   2.609  12.496
 5488SOL    HW218239   3.073   2.635  12.348
 5489SOL     OW18240   0.606  14.198  14.636
 5489SOL    HW118241   0.639  14.148  14.711
 5489SOL    HW218242   0.673  14.185  14.568
 5490SOL     OW18243  10.432  14.464   5.676
 5490SOL    HW118244  10.448  14.515   5.596
 5490SOL    HW218245  10.417  14.530   5.744
 5491SOL     OW18246  14.151  14.368   6.668
 5491SOL    HW118247  14.067  14.322   6.669
 5491SOL    HW218248  14.149  14.420   6.588
 5492SOL     OW18249   5.050   5.216   0.129
 5492SOL    HW118250   5.040   5.307   0.155
 5492SOL    HW218251   5.140   5.209   0.097
 5493SOL     OW18252  14.648  12.813  12.056
 5493SOL    HW118253  14.662  12.853  12.141
 5493SOL    HW218254  14.717  12.746  12.049
 5494SOL     OW18255  14.076   1.933   7.940
 5494SOL    HW118256  14.002   1.875   7.957
 5494SOL    HW218257  14.131   1.926   8.018
 5495SOL     OW18258   2.351  11.139  14.061
 5495SOL    HW118259   2.436  11.115  14.096
 5495SOL    HW218260   2.332  11.071  13.996
 5496SOL     OW18261   9.689   9.622   2.891
 5496SOL    HW118262   9.694   9.566   2.968
 5496SOL    HW218263   9.612   9.677   2.905
 5497SOL     OW18264  12.675   6.054   3.504
 5497SOL    HW118265  12.598   5.998   3.517
 5497SOL    HW218266  12.638   6.138   3.475
 5498SOL     OW18267   3.232   1.608   7.492
 5498SOL    HW118268   3.156   1.631   7.545
 5498SOL    HW218269   3.220   1.657   7.410
 5499SOL     OW18270   6.785   3.695  11.484
 5499SOL    HW118271   6.725   3.629  11.451
 5499SOL    HW218272   6.870   3.670  11.447
 5500SOL     OW18273   0.301   1.087   9.555
 5500SOL    HW118274   0.211   1.069   9.531
 5500SOL    HW218275   0.295   1.151   9.626
 5501SOL     OW18276   1.256  13.624   4.077
 5501SOL    HW118277   1.163  13.608   4.058
 5501SOL    HW218278   1.256  13.655   4.168
 5502SOL     OW18279  13.476   6.342   3.225
 5502SOL    HW118280  13.537   6.269   3.223
 5502SOL    HW218281  13.393   6.304   3.251
 5503SOL     OW18282   4.201  14.394   0.418
 5503SOL    HW118283   4.223  14.376   0.327
 5503SOL    HW218284   4.142  14.470   0.414
 5504SOL     OW18285   0.578   5.267  11.089
 5504SOL    HW118286   0.564   5.361  11.105
 5504SOL    HW218287   0.494   5.227  11.111
 5505SOL     OW18288   5.126  14.731   4.337
 5505SOL    HW118289   5.166  14.652   4.374
 5505SOL    HW218290   5.109  14.708   4.245
 5506SOL     OW18291   0.314   7.816   9.790
 5506SOL    HW118292   0.325   7.844   9.881
 5506SOL    HW218293   0.299   7.721   9.797
 5507SOL     OW18294   4.962   1.419   0.580
 5507SOL    HW118295   5.046   1.448   0.615
 5507SOL    HW218296   4.942   1.338   0.628
 5508SOL     OW18297  12.877   4.621   6.484
 5508SOL    HW118298  12.837   4.534   6.485
 5508SOL    HW218299  12.822   4.672   6.424
 5509SOL     OW18300   8.991  12.606   3.092
 5509SOL    HW118301   8.985  12.518   3.055
 5509SOL    HW218302   8.969  12.594   3.185
 5510SOL     OW18303   3.914  10.034  10.450
 5510SOL    HW118304   3.987  10.096  10.452
 5510SOL    HW218305   3.851  10.072  10.389
 5511SOL     OW18306   2.605   2.533   9.858
 5511SOL    HW118307   2.646   2.489   9.784
 5511SOL    HW218308   2.541   2.592   9.819
 5512SOL     OW18309  13.234   5.853   0.963
 5512SOL    HW118310  13.233   5.763   0.997
 5512SOL    HW218311  13.151   5.890   0.993
 5513SOL     OW18312  13.135   7.729   7.897
 5513SOL    HW118313  13.078   7.721   7.973
 5513SOL    HW218314  13.200   7.659   7.909
 5514SOL     OW18315   1.343   1.616   1.931
 5514SOL    HW118316   1.291   1.644   1.855
 5514SOL    HW218317   1.430   1.598   1.895
 5515SOL     OW18318   8.992   9.333  13.428
 5515SOL    HW118319   8.898   9.319  13.424
 5515SOL    HW218320   9.018   9.297  13.513
 5516SOL     OW18321   8.118   9.656   1.467
 5516SOL    HW118322   8.208   9.676   1.442
 5516SOL    HW218323   8.126   9.585   1.531
 5517SOL     OW18324  13.114   4.008   2.244
 5517SOL    HW118325  13.054   4.083   2.243
 5517SOL    HW218326  13.089   3.956   2.167
 5518SOL     OW18327  12.219  13.234  12.342
 5518SOL    HW118328  12.201  13.200  12.254
 5518SOL    HW218329  12.180  13.170  12.401
 5519SOL     OW18330  10.693  11.792   4.606
 5519SOL    HW118331  10.664  11.703   4.626
 5519SOL    HW218332  10.677  11.801   4.512
 5520SOL     OW18333   9.988   4.191  11.904
 5520SOL    HW118334   9.948   4.221  11.822
 5520SOL    HW218335  10.048   4.262  11.928
 5521SOL     OW18336   5.170   9.048  14.284
 5521SOL    HW118337   5.094   8.993  14.304
 5521SOL    HW218338   5.153   9.130  14.329
 5522SOL     OW18339   5.081   4.756   0.941
 5522SOL    HW118340   5.031   4.718   0.869
 5522SOL    HW218341   5.052   4.708   1.018
 5523SOL     OW18342   8.674  11.884   9.230
 5523SOL    HW118343   8.744  11.859   9.290
 5523SOL    HW218344   8.716  11.946   9.169
 5524SOL     OW18345  13.741   7.760  13.119
 5524SOL    HW118346  13.661   7.744  13.169
 5524SOL    HW218347  13.809   7.714  13.168
 5525SOL     OW18348  11.268   6.728  11.445
 5525SOL    HW118349  11.314   6.673  11.508
 5525SOL    HW218350  11.285   6.818  11.473
 5526SOL     OW18351   8.431   2.974   0.247
 5526SOL    HW118352   8.418   2.918   0.170
 5526SOL    HW218353   8.360   3.038   0.243
 5527SOL     OW18354  12.617   0.437   7.052
 5527SOL    HW118355  12.664   0.516   7.027
 5527SOL    HW218356  12.650   0.415   7.139
 5528SOL     OW18357  14.337   7.516   8.844
 5528SOL    HW118358  14.251   7.528   8.887
 5528SOL    HW218359  14.329   7.562   8.761
 5529SOL     OW18360  14.169   7.908   2.002
 5529SOL    HW118361  14.171   7.815   1.979
 5529SOL    HW218362  14.078   7.935   1.985
 5530SOL     OW18363  10.090   4.419   7.039
 5530SOL    HW118364  10.091   4.488   6.973
 5530SOL    HW218365  10.004   4.379   7.030
 5531SOL     OW18366   5.467  12.164   0.048
 5531SOL    HW118367   5.435  12.232   0.107
 5531SOL    HW218368   5.504  12.097   0.106
 5532SOL     OW18369  11.381   5.097   0.772
 5532SOL    HW118370  11.385   5.075   0.865
 5532SOL    HW218371  11.396   5.192   0.769
 5533SOL     OW18372   4.027   3.791   5.844
 5533SOL    HW118373   4.025   3.824   5.934
 5533SOL    HW218374   4.069   3.861   5.794
 5534SOL     OW18375  11.278   0.016   6.275
 5534SOL    HW118376  11.202   0.043   6.225
 5534SOL    HW218377  11.299   0.092   6.330
 5535SOL     OW18378   6.261   4.279  12.870
 5535SOL    HW118379   6.202   4.220  12.916
 5535SOL    HW218380   6.216   4.364  12.870
 5536SOL     OW18381   6.020   5.758  13.693
 5536SOL    HW118382   6.073   5.826  13.652
 5536SOL    HW218383   6.062   5.676  13.668
 5537SOL     OW18384   1.310   5.312   6.911
 5537SOL    HW118385   1.385   5.367   6.891
 5537SOL    HW218386   1.262   5.305   6.828
 5538SOL     OW18387   9.802   4.412   0.768
 5538SOL    HW118388   9.861   4.353   0.815
 5538SOL    HW218389   9.847   4.496   0.768
 5539SOL     OW18390   7.382   9.474   2.470
 5539SOL    HW118391   7.429   9.401   2.512
 5539SOL    HW218392   7.441   9.505   2.402
 5540SOL     OW18393  13.686   2.234  14.878
 5540SOL    HW118394  13.643   2.209   0.079
 5540SOL    HW218395  13.721   2.152  14.844
 5541SOL     OW18396   1.731   8.130   5.953
 5541SOL    HW118397   1.803   8.185   5.985
 5541SOL    HW218398   1.773   8.053   5.915
 5542SOL     OW18399  10.834   7.337   0.184
 5542SOL    HW118400  10.929   7.321   0.178
 5542SOL    HW218401  10.797   7.251   0.202
 5543SOL     OW18402  13.132   0.830  14.036
 5543SOL    HW118403  13.098   0.779  13.963
 5543SOL    HW218404  13.128   0.921  14.006
 5544SOL     OW18405   1.921   4.408  12.292
 5544SOL    HW118406   1.867   4.352  12.238
 5544SOL    HW218407   1.996   4.353  12.316
 5545SOL     OW18408  10.046   3.057  11.092
 5545SOL    HW118409   9.997   3.077  11.171
 5545SOL    HW218410  10.047   3.139  11.043
 5546SOL     OW18411  14.802   2.925   8.739
 5546SOL    HW118412  14.751   2.975   8.676
 5546SOL    HW218413  14.743   2.912   8.813
 5547SOL     OW18414   9.724   0.591   5.362
 5547SOL    HW118415   9.752   0.679   5.389
 5547SOL    HW218416   9.649   0.571   5.418
 5548SOL     OW18417   7.395  10.163  12.910
 5548SOL    HW118418   7.365  10.171  12.820
 5548SOL    HW218419   7.346  10.230  12.958
 5549SOL     OW18420   0.787  14.638  14.253
 5549SOL    HW118421   0.873  14.666  14.286
 5549SOL    HW218422   0.789  14.543  14.258
 5550SOL     OW18423   8.267   2.191   4.143
 5550SOL    HW118424   8.189   2.217   4.191
 5550SOL    HW218425   8.331   2.260   4.161
 5551SOL     OW18426   9.234   6.878   7.282
 5551SOL    HW118427   9.314   6.858   7.330
 5551SOL    HW218428   9.247   6.837   7.196
 5552SOL     OW18429   2.776   9.266  11.258
 5552SOL    HW118430   2.749   9.235  11.172
 5552SOL    HW218431   2.870   9.246  11.261
 5553SOL     OW18432   7.239   3.308  12.703
 5553SOL    HW118433   7.154   3.351  12.711
 5553SOL    HW218434   7.293   3.350  12.770
 5554SOL     OW18435  10.513   0.861   8.312
 5554SOL    HW118436  10.500   0.886   8.220
 5554SOL    HW218437  10.602   0.827   8.316
 5555SOL     OW18438   4.363   4.207   5.407
 5555SOL    HW118439   4.374   4.232   5.315
 5555SOL    HW218440   4.275   4.235   5.429
 5556SOL     OW18441   1.012  10.642  10.370
 5556SOL    HW118442   1.045  10.572  10.427
 5556SOL    HW218443   1.038  10.723  10.414
 5557SOL     OW18444   8.072  13.019  14.060
 5557SOL    HW118445   8.119  12.940  14.032
 5557SOL    HW218446   8.037  13.056  13.979
 5558SOL     OW18447   7.063  14.573   6.910
 5558SOL    HW118448   7.029  14.549   6.824
 5558SOL    HW218449   6.987  14.609   6.957
 5559SOL     OW18450   1.953  14.228   9.589
 5559SOL    HW118451   1.974  14.321   9.599
 5559SOL    HW218452   1.909  14.223   9.504
 5560SOL     OW18453  12.634   9.487   7.274
 5560SOL    HW118454  12.671   9.400   7.260
 5560SOL    HW218455  12.540   9.474   7.269
 5561SOL     OW18456   4.324   8.108   7.578
 5561SOL    HW118457   4.261   8.042   7.606
 5561SOL    HW218458   4.284   8.191   7.604
 5562SOL     OW18459  13.885   6.779  12.586
 5562SOL    HW118460  13.883   6.720  12.662
 5562SOL    HW218461  13.954   6.743  12.530
 5563SOL     OW18462   5.335   4.352   2.198
 5563SOL    HW118463   5.296   4.437   2.217
 5563SOL    HW218464   5.409   4.372   2.140
 5564SOL     OW18465   3.789   4.007  10.894
 5564SOL    HW118466   3.745   3.928  10.925
 5564SOL    HW218467   3.784   4.068  10.968
 5565SOL     OW18468   9.102  13.564   1.475
 5565SOL    HW118469   9.141  13.631   1.418
 5565SOL    HW218470   9.169  13.497   1.482
 5566SOL     OW18471   6.586   1.592   5.918
 5566SOL    HW118472   6.501   1.633   5.934
 5566SOL    HW218473   6.582   1.509   5.966
 5567SOL     OW18474   5.601  11.681   6.384
 5567SOL    HW118475   5.688  11.671   6.424
 5567SOL    HW218476   5.592  11.775   6.371
 5568SOL     OW18477  12.902   7.690  11.120
 5568SOL    HW118478  12.846   7.757  11.160
 5568SOL    HW218479  12.931   7.730  11.038
 5569SOL     OW18480  11.041   8.612  12.582
 5569SOL    HW118481  10.947   8.618  12.566
 5569SOL    HW218482  11.068   8.530  12.540
 5570SOL     OW18483   2.513  14.015  14.764
 5570SOL    HW118484   2.594  13.975  14.732
 5570SOL    HW218485   2.459  14.026  14.686
 5571SOL     OW18486   6.721   3.692   5.243
 5571SOL    HW118487   6.648   3.739   5.202
 5571SOL    HW218488   6.685   3.658   5.325
 5572SOL     OW18489   3.891  12.615   6.071
 5572SOL    HW118490   3.819  12.558   6.096
 5572SOL    HW218491   3.909  12.593   5.980
 5573SOL     OW18492  12.535  14.030  14.678
 5573SOL    HW118493  12.483  13.957  14.711
 5573SOL    HW218494  12.556  14.082  14.756
 5574SOL     OW18495   6.134   3.268  10.368
 5574SOL    HW118496   6.091   3.265  10.453
 5574SOL    HW218497   6.076   3.319  10.313
 5575SOL     OW18498   1.727   9.222  14.091
 5575SOL    HW118499   1.788   9.172  14.144
 5575SOL    HW218500   1.693   9.289  14.150
 5576SOL     OW18501  14.326  10.944  14.854
 5576SOL    HW118502  14.267  10.951  14.779
 5576SOL    HW218503  14.269  10.941   0.049
 5577SOL     OW18504  10.695  12.061   1.738
 5577SOL    HW118505  10.748  11.985   1.764
 5577SOL    HW218506  10.630  12.070   1.808
 5578SOL     OW18507   0.391   9.002   4.128
 5578SOL    HW118508   0.450   9.065   4.169
 5578SOL    HW218509   0.409   9.010   4.034
 5579SOL     OW18510   3.935  11.203  10.865
 5579SOL    HW118511   3.888  11.141  10.920
 5579SOL    HW218512   3.967  11.270  10.925
 5580SOL     OW18513   7.396   5.129   0.150
 5580SOL    HW118514   7.344   5.170   0.218
 5580SOL    HW218515   7.375   5.177   0.070
 5581SOL     OW18516   2.547   9.441  13.429
 5581SOL    HW118517   2.489   9.467  13.357
 5581SOL    HW218518   2.494   9.382  13.482
 5582SOL     OW18519  13.824   1.958   8.668
 5582SOL    HW118520  13.736   1.931   8.695
 5582SOL    HW218521  13.814   2.048   8.638
 5583SOL     OW18522  11.874   8.714  12.224
 5583SOL    HW118523  11.794   8.766  12.215
 5583SOL    HW218524  11.843   8.623  12.225
 5584SOL     OW18525   7.355  13.469  10.024
 5584SOL    HW118526   7.301  13.512   9.958
 5584SOL    HW218527   7.346  13.376  10.006
 5585SOL     OW18528   0.093   1.155  10.967
 5585SOL    HW118529   0.023   1.190  11.022
 5585SOL    HW218530   0.167   1.213  10.984
 5586SOL     OW18531   3.128   2.307   2.692
 5586SOL    HW118532   3.134   2.383   2.634
 5586SOL    HW218533   3.083   2.341   2.770
 5587SOL     OW18534   6.234   3.791   8.374
 5587SOL    HW118535   6.173   3.718   8.388
 5587SOL    HW218536   6.270   3.775   8.287
 5588SOL     OW18537  12.783   6.098   2.724
 5588SOL    HW118538  12.732   6.174   2.694
 5588SOL    HW218539  12.792   6.111   2.818
 5589SOL     OW18540   8.707  12.744  11.741
 5589SOL    HW118541   8.779  12.806  11.752
 5589SOL    HW218542   8.641  12.771  11.806
 5590SOL     OW18543  13.575  14.143   0.157
 5590SOL    HW118544  13.632  14.135   0.080
 5590SOL    HW218545  13.487  14.125   0.124
 5591SOL     OW18546   6.587   3.445   7.019
 5591SOL    HW118547   6.625   3.364   7.053
 5591SOL    HW218548   6.510   3.417   6.970
 5592SOL     OW18549   1.530   3.928  10.774
 5592SOL    HW118550   1.464   3.992  10.802
 5592SOL    HW218551   1.579   3.908  10.854
 5593SOL     OW18552  11.692  13.427   0.881
 5593SOL    HW118553  11.748  13.494   0.842
 5593SOL    HW218554  11.643  13.391   0.807
 5594SOL     OW18555   1.481  11.538   0.618
 5594SOL    HW118556   1.453  11.506   0.532
 5594SOL    HW218557   1.404  11.582   0.654
 5595SOL     OW18558  12.997  11.765   3.740
 5595SOL    HW118559  12.920  11.763   3.796
 5595SOL    HW218560  13.039  11.849   3.761
 5596SOL     OW18561  12.027   8.167   2.855
 5596SOL    HW118562  12.043   8.250   2.901
 5596SOL    HW218563  11.957   8.125   2.905
 5597SOL     OW18564   4.532  14.713   2.597
 5597SOL    HW118565   4.527  14.801   2.558
 5597SOL    HW218566   4.480  14.720   2.678
 5598SOL     OW18567   8.958  14.607   8.154
 5598SOL    HW118568   8.938  14.700   8.159
 5598SOL    HW218569   8.900  14.566   8.219
 5599SOL     OW18570   3.963  10.485  10.456
 5599SOL    HW118571   3.911  10.423  10.507
 5599SOL    HW218572   4.017  10.530  10.521
 5600SOL     OW18573  10.764   7.820   1.570
 5600SOL    HW118574  10.730   7.730   1.571
 5600SOL    HW218575  10.837   7.818   1.633
 5601SOL     OW18576   6.956   9.825   4.672
 5601SOL    HW118577   7.015   9.833   4.597
 5601SOL    HW218578   6.975   9.739   4.708
 5602SOL     OW18579  11.318  10.419   6.361
 5602SOL    HW118580  11.316  10.431   6.455
 5602SOL    HW218581  11.399  10.371   6.344
 5603SOL     OW18582   5.810   4.183  13.187
 5603SOL    HW118583   5.787   4.177  13.094
 5603SOL    HW218584   5.726   4.178  13.233
 5604SOL     OW18585   4.328   3.366   0.166
 5604SOL    HW118586   4.334   3.442   0.107
 5604SOL    HW218587   4.239   3.369   0.199
 5605SOL     OW18588   0.216   6.256   2.836
 5605SOL    HW118589   0.228   6.329   2.776
 5605SOL    HW218590   0.300   6.247   2.880
 5606SOL     OW18591  14.496  10.671  13.094
 5606SOL    HW118592  14.503  10.737  13.162
 5606SOL    HW218593  14.412  10.689  13.050
 5607SOL     OW18594   6.109  12.554   6.743
 5607SOL    HW118595   6.074  12.482   6.795
 5607SOL    HW218596   6.033  12.592   6.699
 5608SOL     OW18597   1.207   9.023   4.169
 5608SOL    HW118598   1.188   8.936   4.201
 5608SOL    HW218599   1.300   9.019   4.144
 5609SOL     OW18600   6.251  11.242  12.369
 5609SOL    HW118601   6.227  11.238  12.277
 5609SOL    HW218602   6.347  11.236  12.370
 5610SOL     OW18603   5.451  13.728   1.660
 5610SOL    HW118604   5.390  13.798   1.639
 5610SOL    HW218605   5.446  13.669   1.585
 5611SOL     OW18606   2.714   8.749   2.899
 5611SOL    HW118607   2.751   8.823   2.946
 5611SOL    HW218608   2.634   8.728   2.946
 5612SOL     OW18609   8.875   1.594  12.644
 5612SOL    HW118610   8.787   1.560  12.631
 5612SOL    HW218611   8.865   1.660  12.712
 5613SOL     OW18612   2.800   1.158   0.221
 5613SOL    HW118613   2.789   1.220   0.293
 5613SOL    HW218614   2.868   1.098   0.251
 5614SOL     OW18615   5.892   7.594  14.434
 5614SOL    HW118616   5.967   7.548  14.397
 5614SOL    HW218617   5.857   7.646  14.362
 5615SOL     OW18618   3.679   3.905   0.005
 5615SOL    HW118619   3.586   3.886   0.021
 5615SOL    HW218620   3.680   3.945  14.799
 5616SOL     OW18621   0.828   9.906  11.317
 5616SOL    HW118622   0.785   9.926  11.400
 5616SOL    HW218623   0.764   9.932  11.251
 5617SOL     OW18624  11.629  10.505  12.502
 5617SOL    HW118625  11.588  10.540  12.423
 5617SOL    HW218626  11.603  10.566  12.571
 5618SOL     OW18627   7.759  14.766   0.970
 5618SOL    HW118628   7.678  14.786   0.923
 5618SOL    HW218629   7.828  14.794   0.911
 5619SOL     OW18630   3.285   6.173   4.261
 5619SOL    HW118631   3.294   6.138   4.172
 5619SOL    HW218632   3.361   6.138   4.308
 5620SOL     OW18633  12.385   1.281   6.788
 5620SOL    HW118634  12.434   1.359   6.816
 5620SOL    HW218635  12.296   1.297   6.818
 5621SOL     OW18636   3.229  11.041  10.826
 5621SOL    HW118637   3.231  10.947  10.844
 5621SOL    HW218638   3.316  11.072  10.850
 5622SOL     OW18639   5.525  14.220  13.501
 5622SOL    HW118640   5.485  14.253  13.582
 5622SOL    HW218641   5.619  14.236  13.513
 5623SOL     OW18642   3.933   1.993   5.054
 5623SOL    HW118643   3.847   2.015   5.019
 5623SOL    HW218644   3.964   2.074   5.094
 5624SOL     OW18645   5.818   6.619   2.185
 5624SOL    HW118646   5.794   6.538   2.229
 5624SOL    HW218647   5.756   6.684   2.219
 5625SOL     OW18648   5.009   7.388  10.019
 5625SOL    HW118649   4.984   7.444  10.093
 5625SOL    HW218650   5.053   7.313  10.060
 5626SOL     OW18651   2.980   4.903   8.447
 5626SOL    HW118652   2.907   4.898   8.385
 5626SOL    HW218653   2.942   4.935   8.528
 5627SOL     OW18654  13.554   1.080   8.460
 5627SOL    HW118655  13.481   1.048   8.513
 5627SOL    HW218656  13.625   1.018   8.477
 5628SOL     OW18657   0.488   6.499  12.945
 5628SOL    HW118658   0.398   6.474  12.924
 5628SOL    HW218659   0.525   6.421  12.987
 5629SOL     OW18660  10.179   7.895   9.291
 5629SOL    HW118661  10.091   7.878   9.256
 5629SOL    HW218662  10.227   7.931   9.217
 5630SOL     OW18663   4.866   7.353   2.513
 5630SOL    HW118664   4.944   7.306   2.541
 5630SOL    HW218665   4.897   7.417   2.449
 5631SOL     OW18666   6.540   5.421   6.387
 5631SOL    HW118667   6.585   5.421   6.471
 5631SOL    HW218668   6.453   5.388   6.406
 5632SOL     OW18669   4.176   6.147   2.764
 5632SOL    HW118670   4.092   6.100   2.763
 5632SOL    HW218671   4.224   6.108   2.836
 5633SOL     OW18672   9.489  14.724   8.914
 5633SOL    HW118673   9.461  14.802   8.961
 5633SOL    HW218674   9.414  14.665   8.918
 5634SOL     OW18675   4.966  10.327  10.279
 5634SOL    HW118676   5.009  10.391  10.336
 5634SOL    HW218677   5.038  10.287  10.230
 5635SOL     OW18678   1.837   3.490  11.284
 5635SOL    HW118679   1.831   3.516  11.375
 5635SOL    HW218680   1.784   3.411  11.278
 5636SOL     OW18681   6.327   8.302   2.507
 5636SOL    HW118682   6.266   8.255   2.564
 5636SOL    HW218683   6.304   8.394   2.518
 5637SOL     OW18684  10.019  13.168   3.561
 5637SOL    HW118685   9.969  13.220   3.625
 5637SOL    HW218686   9.978  13.082   3.564
 5638SOL     OW18687  10.469   8.931  11.845
 5638SOL    HW118688  10.381   8.893  11.850
 5638SOL    HW218689  10.515   8.895  11.921
 5639SOL     OW18690  13.108   6.364   4.758
 5639SOL    HW118691  13.031   6.338   4.707
 5639SOL    HW218692  13.124   6.290   4.817
 5640SOL     OW18693   7.562   6.810   5.247
 5640SOL    HW118694   7.509   6.837   5.322
 5640SOL    HW218695   7.650   6.842   5.267
 5641SOL     OW18696  10.233  12.646  13.932
 5641SOL    HW118697  10.319  12.678  13.959
 5641SOL    HW218698  10.170  12.692  13.988
 5642SOL     OW18699   9.863  14.087   3.481
 5642SOL    HW118700   9.916  14.054   3.554
 5642SOL    HW218701   9.790  14.026   3.475
 5643SOL     OW18702   4.277   3.314   4.481
 5643SOL    HW118703   4.241   3.227   4.463
 5643SOL    HW218704   4.200   3.370   4.488
 5644SOL     OW18705   5.860   0.104  14.152
 5644SOL    HW118706   5.918   0.092  14.227
 5644SOL    HW218707   5.772   0.090  14.188
 5645SOL     OW18708  13.051   4.801   3.512
 5645SOL    HW118709  13.133   4.831   3.472
 5645SOL    HW218710  13.058   4.826   3.604
 5646SOL     OW18711   0.414   4.192   0.995
 5646SOL    HW118712   0.442   4.192   0.903
 5646SOL    HW218713   0.494   4.212   1.044
 5647SOL     OW18714   3.383   5.587   2.255
 5647SOL    HW118715   3.463   5.611   2.301
 5647SOL    HW218716   3.312   5.615   2.313
 5648SOL     OW18717   0.490  13.165  13.559
 5648SOL    HW118718   0.416  13.111  13.586
 5648SOL    HW218719   0.452  13.228  13.497
 5649SOL     OW18720  10.736   1.170   4.977
 5649SOL    HW118721  10.727   1.249   5.030
 5649SOL    HW218722  10.831   1.154   4.973
 5650SOL     OW18723   1.933   7.065  12.312
 5650SOL    HW118724   1.970   7.143  12.271
 5650SOL    HW218725   1.953   6.994  12.251
 5651SOL     OW18726   9.774  10.777   1.923
 5651SOL    HW118727   9.866  10.783   1.900
 5651SOL    HW218728   9.729  10.760   1.841
 5652SOL     OW18729  11.947   8.254  12.350
 5652SOL    HW118730  12.025   8.205  12.324
 5652SOL    HW218731  11.975   8.307  12.425
 5653SOL     OW18732  13.016   8.431  12.457
 5653SOL    HW118733  12.968   8.434  12.540
 5653SOL    HW218734  13.018   8.338  12.434
 5654SOL     OW18735   0.769   0.908   0.431
 5654SOL    HW118736   0.784   0.857   0.351
 5654SOL    HW218737   0.845   0.888   0.486
 5655SOL     OW18738   5.220   2.909   8.752
 5655SOL    HW118739   5.282   2.973   8.785
 5655SOL    HW218740   5.143   2.960   8.727
 5656SOL     OW18741  13.705   9.230   2.159
 5656SOL    HW118742  13.699   9.158   2.223
 5656SOL    HW218743  13.711   9.185   2.075
 5657SOL     OW18744   8.944   8.517   2.418
 5657SOL    HW118745   8.976   8.432   2.447
 5657SOL    HW218746   8.874   8.496   2.356
 5658SOL     OW18747   0.718   4.915  14.577
 5658SOL    HW118748   0.640   4.907  14.522
 5658SOL    HW218749   0.791   4.912  14.515
 5659SOL     OW18750  10.724  13.471   1.917
 5659SOL    HW118751  10.751  13.418   1.991
 5659SOL    HW218752  10.754  13.423   1.840
 5660SOL     OW18753  13.787   2.286  13.604
 5660SOL    HW118754  13.776   2.376  13.635
 5660SOL    HW218755  13.716   2.237  13.645
 5661SOL     OW18756   7.985   6.637   1.620
 5661SOL    HW118757   7.947   6.707   1.567
 5661SOL    HW218758   7.943   6.557   1.589
 5662SOL     OW18759  13.519   9.900   2.829
 5662SOL    HW118760  13.539   9.967   2.764
 5662SOL    HW218761  13.502   9.821   2.777
 5663SOL     OW18762  10.595   9.545   3.864
 5663SOL    HW118763  10.637   9.613   3.810
 5663SOL    HW218764  10.559   9.483   3.800
 5664SOL     OW18765   0.897   8.951   1.059
 5664SOL    HW118766   0.871   8.913   1.142
 5664SOL    HW218767   0.880   8.882   0.994
 5665SOL     OW18768   9.534  11.171  11.511
 5665SOL    HW118769   9.619  11.155  11.469
 5665SOL    HW218770   9.481  11.095  11.487
 5666SOL     OW18771  10.241  11.143  13.347
 5666SOL    HW118772  10.223  11.049  13.342
 5666SOL    HW218773  10.157  11.185  13.330
 5667SOL     OW18774   0.700   2.240   2.643
 5667SOL    HW118775   0.650   2.209   2.719
 5667SOL    HW218776   0.674   2.332   2.634
 5668SOL     OW18777   3.195  12.212   9.920
 5668SOL    HW118778   3.171  12.144   9.984
 5668SOL    HW218779   3.112  12.240   9.883
 5669SOL     OW18780  12.168  10.606  10.691
 5669SOL    HW118781  12.227  10.545  10.648
 5669SOL    HW218782  12.081  10.583  10.658
 5670SOL     OW18783   2.688   3.075   8.561
 5670SOL    HW118784   2.593   3.086   8.558
 5670SOL    HW218785   2.701   2.991   8.605
 5671SOL     OW18786   1.310  12.364   3.280
 5671SOL    HW118787   1.287  12.434   3.341
 5671SOL    HW218788   1.358  12.301   3.333
 5672SOL     OW18789   4.252  14.500  12.461
 5672SOL    HW118790   4.235  14.573  12.402
 5672SOL    HW218791   4.176  14.496  12.519
 5673SOL     OW18792  12.128  11.897  14.125
 5673SOL    HW118793  12.202  11.898  14.064
 5673SOL    HW218794  12.165  11.927  14.208
 5674SOL     OW18795   3.948  12.833   5.298
 5674SOL    HW118796   3.992  12.859   5.379
 5674SOL    HW218797   3.943  12.914   5.246
 5675SOL     OW18798  12.511  12.133   6.129
 5675SOL    HW118799  12.504  12.049   6.174
 5675SOL    HW218800  12.421  12.157   6.107
 5676SOL     OW18801   9.165  12.159   1.965
 5676SOL    HW118802   9.226  12.133   1.897
 5676SOL    HW218803   9.176  12.094   2.034
 5677SOL     OW18804   4.936   0.625  13.514
 5677SOL    HW118805   4.946   0.718  13.533
 5677SOL    HW218806   4.971   0.581  13.592
 5678SOL     OW18807   6.479   4.684   4.238
 5678SOL    HW118808   6.506   4.739   4.311
 5678SOL    HW218809   6.390   4.659   4.259
 5679SOL     OW18810  12.202   2.596   7.861
 5679SOL    HW118811  12.177   2.515   7.905
 5679SOL    HW218812  12.290   2.614   7.892
 5680SOL     OW18813   2.514  12.204   0.763
 5680SOL    HW118814   2.535  12.229   0.853
 5680SOL    HW218815   2.585  12.146   0.738
 5681SOL     OW18816   1.001  11.213  13.837
 5681SOL    HW118817   0.992  11.238  13.929
 5681SOL    HW218818   1.013  11.118  13.839
 5682SOL     OW18819   4.480   1.627  13.419
 5682SOL    HW118820   4.441   1.619  13.505
 5682SOL    HW218821   4.497   1.721  13.409
 5683SOL     OW18822   3.783   7.165   0.257
 5683SOL    HW118823   3.715   7.108   0.292
 5683SOL    HW218824   3.774   7.246   0.307
 5684SOL     OW18825   8.337  10.312  10.578
 5684SOL    HW118826   8.242  10.318  10.582
 5684SOL    HW218827   8.364  10.299  10.669
 5685SOL     OW18828  12.038  12.358   8.426
 5685SOL    HW118829  11.964  12.303   8.401
 5685SOL    HW218830  12.008  12.447   8.409
 5686SOL     OW18831  12.944  10.127  10.111
 5686SOL    HW118832  12.937  10.091  10.199
 5686SOL    HW218833  13.007  10.071  10.067
 5687SOL     OW18834   6.324  13.281   5.740
 5687SOL    HW118835   6.355  13.292   5.650
 5687SOL    HW218836   6.279  13.363   5.760
 5688SOL     OW18837  11.875   9.336   6.598
 5688SOL    HW118838  11.834   9.352   6.514
 5688SOL    HW218839  11.885   9.241   6.604
 5689SOL     OW18840   3.432   7.296  11.183
 5689SOL    HW118841   3.526   7.285  11.172
 5689SOL    HW218842   3.397   7.295  11.094
 5690SOL     OW18843  11.741   0.550   3.391
 5690SOL    HW118844  11.769   0.487   3.326
 5690SOL    HW218845  11.700   0.621   3.341
 5691SOL     OW18846   4.096   6.679   0.053
 5691SOL    HW118847   4.073   6.753   0.109
 5691SOL    HW218848   4.014   6.631   0.041
 5692SOL     OW18849   7.120   8.110   5.177
 5692SOL    HW118850   7.031   8.120   5.212
 5692SOL    HW218851   7.145   8.021   5.199
 5693SOL     OW18852   9.799  12.850  12.918
 5693SOL    HW118853   9.741  12.925  12.934
 5693SOL    HW218854   9.785  12.792  12.993
 5694SOL     OW18855   3.560   0.217   7.711
 5694SOL    HW118856   3.544   0.138   7.661
 5694SOL    HW218857   3.608   0.274   7.652
 5695SOL     OW18858   2.948   2.638   0.085
 5695SOL    HW118859   3.033   2.593   0.078
 5695SOL    HW218860   2.885   2.577   0.047
 5696SOL     OW18861   2.202  10.144   8.436
 5696SOL    HW118862   2.265  10.131   8.507
 5696SOL    HW218863   2.255  10.153   8.357
 5697SOL     OW18864  13.850   0.226  14.140
 5697SOL    HW118865  13.846   0.262  14.228
 5697SOL    HW218866  13.837   0.132  14.152
 5698SOL     OW18867  10.207  11.850   1.760
 5698SOL    HW118868  10.175  11.766   1.726
 5698SOL    HW218869  10.285  11.870   1.708
 5699SOL     OW18870   9.042  11.328   0.712
 5699SOL    HW118871   9.102  11.339   0.786
 5699SOL    HW218872   8.957  11.311   0.753
 5700SOL     OW18873   7.737  14.682   6.266
 5700SOL    HW118874   7.782  14.618   6.322
 5700SOL    HW218875   7.659  14.706   6.315
 5701SOL     OW18876   3.265  11.385   8.404
 5701SOL    HW118877   3.281  11.478   8.394
 5701SOL    HW218878   3.169  11.377   8.409
 5702SOL     OW18879  10.087   0.063  10.441
 5702SOL    HW118880  10.145   0.135  10.416
 5702SOL    HW218881   9.999   0.098  10.424
 5703SOL     OW18882   5.763   0.834  11.194
 5703SOL    HW118883   5.784   0.926  11.177
 5703SOL    HW218884   5.840   0.786  11.165
 5704SOL     OW18885  13.597  13.573  11.494
 5704SOL    HW118886  13.642  13.623  11.426
 5704SOL    HW218887  13.667  13.542  11.551
 5705SOL     OW18888   4.571  10.457   9.291
 5705SOL    HW118889   4.622  10.508   9.354
 5705SOL    HW218890   4.575  10.367   9.324
 5706SOL     OW18891  13.488   2.008   8.995
 5706SOL    HW118892  13.520   2.084   8.946
 5706SOL    HW218893  13.547   2.000   9.070
 5707SOL     OW18894  12.806   0.460   8.866
 5707SOL    HW118895  12.779   0.375   8.830
 5707SOL    HW218896  12.728   0.515   8.857
 5708SOL     OW18897   3.250  12.385  12.789
 5708SOL    HW118898   3.292  12.406  12.706
 5708SOL    HW218899   3.194  12.310  12.770
 5709SOL     OW18900  11.777  12.380  11.562
 5709SOL    HW118901  11.821  12.426  11.633
 5709SOL    HW218902  11.822  12.409  11.483
 5710SOL     OW18903   2.936   3.898   3.846
 5710SOL    HW118904   2.963   3.807   3.854
 5710SOL    HW218905   2.855   3.903   3.897
 5711SOL     OW18906   6.319   8.564   9.587
 5711SOL    HW118907   6.338   8.540   9.678
 5711SOL    HW218908   6.290   8.656   9.592
 5712SOL     OW18909   8.744   7.123  13.266
 5712SOL    HW118910   8.814   7.171  13.310
 5712SOL    HW218911   8.758   7.031  13.292
 5713SOL     OW18912   9.873  11.870  12.004
 5713SOL    HW118913   9.931  11.914  11.942
 5713SOL    HW218914   9.796  11.847  11.953
 5714SOL     OW18915   8.734   5.548   0.220
 5714SOL    HW118916   8.810   5.491   0.227
 5714SOL    HW218917   8.723   5.563   0.126
 5715SOL     OW18918   7.465   7.353   9.609
 5715SOL    HW118919   7.497   7.434   9.651
 5715SOL    HW218920   7.511   7.350   9.525
 5716SOL     OW18921  13.335   4.352   2.392
 5716SOL    HW118922  13.426   4.362   2.418
 5716SOL    HW218923  13.295   4.437   2.410
 5717SOL     OW18924  14.156   1.791   4.515
 5717SOL    HW118925  14.195   1.876   4.494
 5717SOL    HW218926  14.064   1.810   4.531
 5718SOL     OW18927   6.277  10.708   1.122
 5718SOL    HW118928   6.271  10.803   1.117
 5718SOL    HW218929   6.365  10.691   1.157
 5719SOL     OW18930   9.220   0.135   6.039
 5719SOL    HW118931   9.287   0.081   5.998
 5719SOL    HW218932   9.175   0.076   6.099
 5720SOL     OW18933   5.181  14.546   7.282
 5720SOL    HW118934   5.158  14.454   7.292
 5720SOL    HW218935   5.242  14.564   7.354
 5721SOL     OW18936   7.209  13.141   8.174
 5721SOL    HW118937   7.194  13.095   8.257
 5721SOL    HW218938   7.147  13.214   8.176
 5722SOL     OW18939   6.467  13.974  13.557
 5722SOL    HW118940   6.527  13.961  13.630
 5722SOL    HW218941   6.447  13.885  13.526
 5723SOL     OW18942   9.944   0.623  10.142
 5723SOL    HW118943   9.944   0.707  10.095
 5723SOL    HW218944   9.984   0.643  10.227
 5724SOL     OW18945   4.562   8.306   3.888
 5724SOL    HW118946   4.471   8.277   3.896
 5724SOL    HW218947   4.612   8.225   3.885
 5725SOL     OW18948   7.871  11.034   2.096
 5725SOL    HW118949   7.946  11.089   2.117
 5725SOL    HW218950   7.831  11.075   2.019
 5726SOL     OW18951   6.571  13.243  10.400
 5726SOL    HW118952   6.565  13.240  10.305
 5726SOL    HW218953   6.592  13.334  10.421
 5727SOL     OW18954   8.873  14.294  10.283
 5727SOL    HW118955   8.908  14.383  10.282
 5727SOL    HW218956   8.871  14.270  10.376
 5728SOL     OW18957   9.298   9.755   9.014
 5728SOL    HW118958   9.211   9.741   8.977
 5728SOL    HW218959   9.320   9.671   9.055
 5729SOL     OW18960   3.652  13.746   8.151
 5729SOL    HW118961   3.689  13.674   8.201
 5729SOL    HW218962   3.654  13.821   8.211
 5730SOL     OW18963   3.807   5.633  14.799
 5730SOL    HW118964   3.839   5.546  14.822
 5730SOL    HW218965   3.812   5.683  14.880
 5731SOL     OW18966   1.021   5.788   3.902
 5731SOL    HW118967   1.106   5.758   3.935
 5731SOL    HW218968   1.042   5.840   3.825
 5732SOL     OW18969  14.437   9.527  12.587
 5732SOL    HW118970  14.464   9.436  12.582
 5732SOL    HW218971  14.447   9.551  12.679
 5733SOL     OW18972  12.618   9.772   6.954
 5733SOL    HW118973  12.677   9.844   6.974
 5733SOL    HW218974  12.538   9.814   6.924
 5734SOL     OW18975  12.654   9.664   1.304
 5734SOL    HW118976  12.579   9.620   1.263
 5734SOL    HW218977  12.637   9.757   1.290
 5735SOL     OW18978   6.648   8.007   4.927
 5735SOL    HW118979   6.692   7.962   4.855
 5735SOL    HW218980   6.709   8.076   4.953
 5736SOL     OW18981   2.506  13.613   7.948
 5736SOL    HW118982   2.472  13.556   7.879
 5736SOL    HW218983   2.537  13.691   7.902
 5737SOL     OW18984   5.773   5.127   3.468
 5737SOL    HW118985   5.682   5.104   3.488
 5737SOL    HW218986   5.824   5.051   3.495
 5738SOL     OW18987   0.157   7.333   7.149
 5738SOL    HW118988   0.074   7.288   7.134
 5738SOL    HW218989   0.149   7.368   7.238
 5739SOL     OW18990  10.984   9.319  13.950
 5739SOL    HW118991  10.990   9.224  13.955
 5739SOL    HW218992  11.051   9.344  13.887
 5740SOL     OW18993  14.449   0.102  12.489
 5740SOL    HW118994  14.418   0.183  12.448
 5740SOL    HW218995  14.540   0.095  12.462
 5741SOL     OW18996   4.416   6.207   7.275
 5741SOL    HW118997   4.378   6.119   7.280
 5741SOL    HW218998   4.393   6.239   7.188
 5742SOL     OW18999   6.024   9.960   5.937
 5742SOL    HW119000   6.042   9.867   5.927
 5742SOL    HW219001   6.097  10.004   5.892
 5743SOL     OW19002   7.000  10.612   1.403
 5743SOL    HW119003   7.077  10.596   1.349
 5743SOL    HW219004   7.024  10.686   1.459
 5744SOL     OW19005   6.255   8.531   3.976
 5744SOL    HW119006   6.320   8.504   3.911
 5744SOL    HW219007   6.263   8.627   3.978
 5745SOL     OW19008  10.836  13.416   5.069
 5745SOL    HW119009  10.873  13.453   5.149
 5745SOL    HW219010  10.877  13.330   5.060
 5746SOL     OW19011   2.978  13.888   1.439
 5746SOL    HW119012   2.902  13.929   1.481
 5746SOL    HW219013   3.035  13.863   1.512
 5747SOL     OW19014   7.658   5.320   0.622
 5747SOL    HW119015   7.739   5.288   0.663
 5747SOL    HW219016   7.662   5.288   0.532
 5748SOL     OW19017   0.477   8.964  10.402
 5748SOL    HW119018   0.458   8.939  10.311
 5748SOL    HW219019   0.563   9.006  10.397
 5749SOL     OW19020  12.050  14.589  11.585
 5749SOL    HW119021  12.000  14.639  11.520
 5749SOL    HW219022  12.134  14.635  11.590
 5750SOL     OW19023  10.188   7.395   9.930
 5750SOL    HW119024  10.175   7.425   9.840
 5750SOL    HW219025  10.112   7.341   9.949
 5751SOL     OW19026   8.656   7.290   4.532
 5751SOL    HW119027   8.679   7.311   4.441
 5751SOL    HW219028   8.716   7.343   4.584
 5752SOL     OW19029   2.021   6.046   0.285
 5752SOL    HW119030   1.947   6.085   0.331
 5752SOL    HW219031   2.016   5.953   0.306
 5753SOL     OW19032  10.567   9.754   7.512
 5753SOL    HW119033  10.575   9.832   7.567
 5753SOL    HW219034  10.508   9.782   7.441
 5754SOL     OW19035   9.119  10.010  13.682
 5754SOL    HW119036   9.168  10.033  13.603
 5754SOL    HW219037   9.165  10.056  13.753
 5755SOL     OW19038  11.222  13.523   0.327
 5755SOL    HW119039  11.157  13.535   0.258
 5755SOL    HW219040  11.294  13.581   0.302
 5756SOL     OW19041  12.837   8.291   9.920
 5756SOL    HW119042  12.929   8.305   9.944
 5756SOL    HW219043  12.788   8.350   9.976
 5757SOL     OW19044   9.853  10.256   7.496
 5757SOL    HW119045   9.774  10.310   7.493
 5757SOL    HW219046   9.822  10.166   7.490
 5758SOL     OW19047   0.447  14.240   9.460
 5758SOL    HW119048   0.537  14.254   9.429
 5758SOL    HW219049   0.405  14.326   9.449
 5759SOL     OW19050  13.983  12.512   7.988
 5759SOL    HW119051  14.023  12.429   8.014
 5759SOL    HW219052  13.919  12.530   8.057
 5760SOL     OW19053   0.792   3.139   6.068
 5760SOL    HW119054   0.864   3.080   6.092
 5760SOL    HW219055   0.714   3.084   6.072
 5761SOL     OW19056   7.700   7.581  12.850
 5761SOL    HW119057   7.718   7.614  12.762
 5761SOL    HW219058   7.613   7.541  12.843
 5762SOL     OW19059  11.085  13.932  12.227
 5762SOL    HW119060  11.114  13.979  12.148
 5762SOL    HW219061  11.143  13.857  12.234
 5763SOL     OW19062  10.870  13.524   5.300
 5763SOL    HW119063  10.916  13.605   5.279
 5763SOL    HW219064  10.872  13.519   5.396
 5764SOL     OW19065   5.166   7.747   8.874
 5764SOL    HW119066   5.206   7.820   8.921
 5764SOL    HW219067   5.190   7.669   8.925
 5765SOL     OW19068  10.362   7.818   6.129
 5765SOL    HW119069  10.325   7.866   6.203
 5765SOL    HW219070  10.290   7.813   6.066
 5766SOL     OW19071   5.442   9.889  11.517
 5766SOL    HW119072   5.531   9.852  11.518
 5766SOL    HW219073   5.429   9.923  11.605
 5767SOL     OW19074  12.232   7.753   8.920
 5767SOL    HW119075  12.265   7.742   9.009
 5767SOL    HW219076  12.180   7.674   8.904
 5768SOL     OW19077  10.936   3.692  13.030
 5768SOL    HW119078  10.887   3.767  13.064
 5768SOL    HW219079  10.995   3.667  13.102
 5769SOL     OW19080   1.983  12.836   9.457
 5769SOL    HW119081   1.961  12.822   9.365
 5769SOL    HW219082   2.053  12.901   9.456
 5770SOL     OW19083  14.168   5.232   8.734
 5770SOL    HW119084  14.108   5.166   8.701
 5770SOL    HW219085  14.117   5.313   8.735
 5771SOL     OW19086   0.002  11.264   7.042
 5771SOL    HW119087   0.017  11.337   7.102
 5771SOL    HW219088  14.874  11.188   7.099
 5772SOL     OW19089   1.393   4.221  10.603
 5772SOL    HW119090   1.399   4.166  10.681
 5772SOL    HW219091   1.413   4.162  10.530
 5773SOL     OW19092   5.561   7.532  10.136
 5773SOL    HW119093   5.539   7.450  10.179
 5773SOL    HW219094   5.543   7.516  10.043
 5774SOL     OW19095   7.510   0.705  10.773
 5774SOL    HW119096   7.467   0.656  10.843
 5774SOL    HW219097   7.438   0.734  10.717
 5775SOL     OW19098   1.970  14.527   2.850
 5775SOL    HW119099   1.923  14.475   2.915
 5775SOL    HW219100   2.040  14.470   2.819
 5776SOL     OW19101   4.491   2.296   6.827
 5776SOL    HW119102   4.417   2.346   6.859
 5776SOL    HW219103   4.487   2.305   6.731
 5777SOL     OW19104   0.228  12.166   2.141
 5777SOL    HW119105   0.190  12.126   2.062
 5777SOL    HW219106   0.169  12.140   2.212
 5778SOL     OW19107   5.583   6.445   3.295
 5778SOL    HW119108   5.543   6.446   3.208
 5778SOL    HW219109   5.553   6.526   3.335
 5779SOL     OW19110  10.937   5.968   2.871
 5779SOL    HW119111  11.016   5.945   2.921
 5779SOL    HW219112  10.939   6.063   2.867
 5780SOL     OW19113   6.810  12.858   9.313
 5780SOL    HW119114   6.739  12.796   9.299
 5780SOL    HW219115   6.836  12.843   9.404
 5781SOL     OW19116  13.249   4.906   9.727
 5781SOL    HW119117  13.271   4.967   9.796
 5781SOL    HW219118  13.197   4.838   9.770
 5782SOL     OW19119  13.234   7.303   5.736
 5782SOL    HW119120  13.230   7.343   5.649
 5782SOL    HW219121  13.261   7.374   5.794
 5783SOL     OW19122   4.111  14.720  12.377
 5783SOL    HW119123   4.143  14.795  12.428
 5783SOL    HW219124   4.019  14.710  12.405
 5784SOL     OW19125   7.976  10.537  11.007
 5784SOL    HW119126   8.060  10.544  11.052
 5784SOL    HW219127   7.915  10.504  11.073
 5785SOL     OW19128  13.387   1.049  14.790
 5785SOL    HW119129  13.435   0.967  14.803
 5785SOL    HW219130  13.452   1.117  14.810
 5786SOL     OW19131   5.280   1.787  13.930
 5786SOL    HW119132   5.238   1.809  13.847
 5786SOL    HW219133   5.320   1.869  13.960
 5787SOL     OW19134   2.087  10.938   9.483
 5787SOL    HW119135   2.000  10.952   9.446
 5787SOL    HW219136   2.106  10.845   9.467
 5788SOL     OW19137   9.792   6.145   8.167
 5788SOL    HW119138   9.733   6.121   8.095
 5788SOL    HW219139   9.785   6.074   8.230
 5789SOL     OW19140   7.893  13.426   3.050
 5789SOL    HW119141   7.924  13.513   3.025
 5789SOL    HW219142   7.972  13.373   3.058
 5790SOL     OW19143   0.883  11.319   3.545
 5790SOL    HW119144   0.867  11.240   3.493
 5790SOL    HW219145   0.977  11.332   3.541
 5791SOL     OW19146   6.996   0.888   1.501
 5791SOL    HW119147   6.984   0.983   1.508
 5791SOL    HW219148   6.930   0.860   1.438
 5792SOL     OW19149   2.371   9.564   2.989
 5792SOL    HW119150   2.396   9.643   2.941
 5792SOL    HW219151   2.452   9.533   3.028
 5793SOL     OW19152  11.364   3.345   4.297
 5793SOL    HW119153  11.364   3.315   4.206
 5793SOL    HW219154  11.455   3.366   4.315
 5794SOL     OW19155   8.203   3.008   7.739
 5794SOL    HW119156   8.186   3.099   7.766
 5794SOL    HW219157   8.128   2.985   7.684
 5795SOL     OW19158  12.754   9.298   6.480
 5795SOL    HW119159  12.662   9.289   6.505
 5795SOL    HW219160  12.803   9.266   6.555
 5796SOL     OW19161   4.821   4.752   9.712
 5796SOL    HW119162   4.735   4.746   9.670
 5796SOL    HW219163   4.838   4.846   9.719
 5797SOL     OW19164   1.016   6.463  13.565
 5797SOL    HW119165   0.941   6.441  13.510
 5797SOL    HW219166   1.093   6.440  13.513
 5798SOL     OW19167  12.535   7.730   9.263
 5798SOL    HW119168  12.457   7.785   9.261
 5798SOL    HW219169  12.505   7.649   9.305
 5799SOL     OW19170   2.486   0.007   1.629
 5799SOL    HW119171   2.481   0.093   1.669
 5799SOL    HW219172   2.413  14.839   1.666
 5800SOL     OW19173  13.044  12.248   0.376
 5800SOL    HW119174  13.116  12.189   0.353
 5800SOL    HW219175  12.965  12.196   0.367
 5801SOL     OW19176   8.339   4.692   3.251
 5801SOL    HW119177   8.395   4.769   3.257
 5801SOL    HW219178   8.256   4.720   3.290
 5802SOL     OW19179  13.161   2.350   7.631
 5802SOL    HW119180  13.234   2.328   7.573
 5802SOL    HW219181  13.191   2.425   7.682
 5803SOL     OW19182   6.625   0.125  11.804
 5803SOL    HW119183   6.714   0.110  11.837
 5803SOL    HW219184   6.575   0.049  11.836
 5804SOL     OW19185   5.694  13.021  13.695
 5804SOL    HW119186   5.733  12.939  13.667
 5804SOL    HW219187   5.768  13.082  13.701
 5805SOL     OW19188   0.204   9.330   2.123
 5805SOL    HW119189   0.123   9.380   2.139
 5805SOL    HW219190   0.213   9.274   2.200
 5806SOL     OW19191   1.697  12.215  13.447
 5806SOL    HW119192   1.653  12.223  13.532
 5806SOL    HW219193   1.692  12.302  13.409
 5807SOL     OW19194  10.073   8.051   8.160
 5807SOL    HW119195  10.166   8.029   8.157
 5807SOL    HW219196  10.028   7.969   8.139
 5808SOL     OW19197   1.066   3.963   2.106
 5808SOL    HW119198   0.987   4.016   2.113
 5808SOL    HW219199   1.077   3.947   2.012
 5809SOL     OW19200  14.783   8.981  11.071
 5809SOL    HW119201  14.694   9.013  11.052
 5809SOL    HW219202  14.840   9.035  11.017
 5810SOL     OW19203  10.012   6.888   3.895
 5810SOL    HW119204   9.951   6.844   3.955
 5810SOL    HW219205   9.964   6.892   3.812
 5811SOL     OW19206  10.416  13.771  10.371
 5811SOL    HW119207  10.469  13.728  10.304
 5811SOL    HW219208  10.466  13.850  10.395
 5812SOL     OW19209   4.807   9.207   0.145
 5812SOL    HW119210   4.846   9.293   0.160
 5812SOL    HW219211   4.715   9.225   0.128
 5813SOL     OW19212   4.169   6.256  14.823
 5813SOL    HW119213   4.107   6.190  14.854
 5813SOL    HW219214   4.115   6.332  14.803
 5814SOL     OW19215   8.707  10.802   9.505
 5814SOL    HW119216   8.753  10.730   9.463
 5814SOL    HW219217   8.733  10.879   9.454
 5815SOL     OW19218   7.071   7.888   3.818
 5815SOL    HW119219   6.997   7.938   3.782
 5815SOL    HW219220   7.133   7.956   3.846
 5816SOL     OW19221   4.492   6.812   5.787
 5816SOL    HW119222   4.567   6.752   5.782
 5816SOL    HW219223   4.451   6.791   5.871
 5817SOL     OW19224  14.394   8.721  11.372
 5817SOL    HW119225  14.388   8.628  11.351
 5817SOL    HW219226  14.436   8.723  11.458
 5818SOL     OW19227   7.314  12.758   4.866
 5818SOL    HW119228   7.242  12.696   4.877
 5818SOL    HW219229   7.366  12.723   4.795
 5819SOL     OW19230  13.096   7.274   8.631
 5819SOL    HW119231  13.094   7.183   8.661
 5819SOL    HW219232  13.040   7.321   8.693
 5820SOL     OW19233   9.131   1.062   3.433
 5820SOL    HW119234   9.056   1.012   3.401
 5820SOL    HW219235   9.093   1.123   3.496
 5821SOL     OW19236   3.755   3.655   3.869
 5821SOL    HW119237   3.675   3.683   3.824
 5821SOL    HW219238   3.735   3.568   3.901
 5822SOL     OW19239   7.217   2.892   9.971
 5822SOL    HW119240   7.296   2.895   9.917
 5822SOL    HW219241   7.232   2.958  10.039
 5823SOL     OW19242  11.435   7.168  12.655
 5823SOL    HW119243  11.432   7.168  12.751
 5823SOL    HW219244  11.523   7.198  12.634
 5824SOL     OW19245  14.306  12.597  14.523
 5824SOL    HW119246  14.222  12.553  14.537
 5824SOL    HW219247  14.302  12.631  14.434
 5825SOL     OW19248   2.480  10.434  13.748
 5825SOL    HW119249   2.462  10.379  13.824
 5825SOL    HW219250   2.550  10.388  13.701
 5826SOL     OW19251   6.942   9.600  10.356
 5826SOL    HW119252   7.010   9.613  10.423
 5826SOL    HW219253   6.980   9.535  10.296
 5827SOL     OW19254  10.230  14.275   6.980
 5827SOL    HW119255  10.142  14.286   7.017
 5827SOL    HW219256  10.288  14.316   7.044
 5828SOL     OW19257   0.568  10.295   7.198
 5828SOL    HW119258   0.603  10.359   7.136
 5828SOL    HW219259   0.529  10.348   7.268
 5829SOL     OW19260   0.975   9.895  14.750
 5829SOL    HW119261   1.058   9.849  14.739
 5829SOL    HW219262   0.922   9.836  14.804
 5830SOL     OW19263   2.227  14.237   4.297
 5830SOL    HW119264   2.225  14.182   4.376
 5830SOL    HW219265   2.145  14.286   4.300
 5831SOL     OW19266  11.316  13.420   1.052
 5831SOL    HW119267  11.310  13.488   1.120
 5831SOL    HW219268  11.228  13.385   1.045
 5832SOL     OW19269   0.720   3.815   0.644
 5832SOL    HW119270   0.731   3.760   0.567
 5832SOL    HW219271   0.668   3.889   0.614
 5833SOL     OW19272  14.576  14.351   2.199
 5833SOL    HW119273  14.491  14.382   2.232
 5833SOL    HW219274  14.623  14.431   2.177
 5834SOL     OW19275   3.816   0.368   1.436
 5834SOL    HW119276   3.860   0.290   1.472
 5834SOL    HW219277   3.887   0.419   1.396
 5835SOL     OW19278  13.272  13.644   5.904
 5835SOL    HW119279  13.254  13.661   5.997
 5835SOL    HW219280  13.226  13.562   5.886
 5836SOL     OW19281   5.109  10.255   7.982
 5836SOL    HW119282   5.185  10.197   7.973
 5836SOL    HW219283   5.035  10.202   7.953
 5837SOL     OW19284   9.629  12.608  12.186
 5837SOL    HW119285   9.640  12.701  12.166
 5837SOL    HW219286   9.610  12.567  12.102
 5838SOL     OW19287  10.075   2.489  10.100
 5838SOL    HW119288  10.089   2.481  10.005
 5838SOL    HW219289   9.996   2.543  10.108
 5839SOL     OW19290   0.180   8.189   0.092
 5839SOL    HW119291   0.222   8.163   0.010
 5839SOL    HW219292   0.172   8.108   0.142
 5840SOL     OW19293   1.157  11.897   5.402
 5840SOL    HW119294   1.068  11.862   5.401
 5840SOL    HW219295   1.211  11.826   5.369
 5841SOL     OW19296  10.614  13.363  14.269
 5841SOL    HW119297  10.704  13.390  14.287
 5841SOL    HW219298  10.622  13.274  14.236
 5842SOL     OW19299   4.412   5.543   2.843
 5842SOL    HW119300   4.473   5.616   2.855
 5842SOL    HW219301   4.440   5.478   2.908
 5843SOL     OW19302   9.237  12.301   6.771
 5843SOL    HW119303   9.302  12.252   6.823
 5843SOL    HW219304   9.176  12.234   6.742
 5844SOL     OW19305  12.840   9.770  12.720
 5844SOL    HW119306  12.930   9.751  12.747
 5844SOL    HW219307  12.828   9.863  12.740
 5845SOL     OW19308   5.504  14.809   6.938
 5845SOL    HW119309   5.554   0.009   6.930
 5845SOL    HW219310   5.566  14.740   6.915
 5846SOL     OW19311   3.572   2.283   9.643
 5846SOL    HW119312   3.557   2.290   9.738
 5846SOL    HW219313   3.663   2.256   9.635
 5847SOL     OW19314   4.315   1.676  12.448
 5847SOL    HW119315   4.298   1.759  12.493
 5847SOL    HW219316   4.390   1.639  12.494
 5848SOL     OW19317  14.869  14.470   4.731
 5848SOL    HW119318  14.873  14.386   4.684
 5848SOL    HW219319   0.026  14.533   4.671
 5849SOL     OW19320   1.479  11.534   5.174
 5849SOL    HW119321   1.543  11.465   5.191
 5849SOL    HW219322   1.397  11.499   5.208
 5850SOL     OW19323   9.317   3.313   2.388
 5850SOL    HW119324   9.243   3.274   2.435
 5850SOL    HW219325   9.316   3.405   2.413
 5851SOL     OW19326  10.262   1.130  14.198
 5851SOL    HW119327  10.199   1.075  14.246
 5851SOL    HW219328  10.245   1.219  14.230
 5852SOL     OW19329   3.552   0.418  10.916
 5852SOL    HW119330   3.513   0.339  10.880
 5852SOL    HW219331   3.636   0.390  10.951
 5853SOL     OW19332   0.294   5.297   2.133
 5853SOL    HW119333   0.249   5.303   2.217
 5853SOL    HW219334   0.377   5.252   2.153
 5854SOL     OW19335   9.828   2.837   8.686
 5854SOL    HW119336   9.741   2.837   8.647
 5854SOL    HW219337   9.840   2.926   8.719
 5855SOL     OW19338   0.460   8.273  11.216
 5855SOL    HW119339   0.401   8.218  11.164
 5855SOL    HW219340   0.415   8.285  11.299
 5856SOL     OW19341   2.272   1.318   0.924
 5856SOL    HW119342   2.288   1.225   0.940
 5856SOL    HW219343   2.284   1.329   0.830
 5857SOL     OW19344  11.701   5.910   2.621
 5857SOL    HW119345  11.656   5.994   2.607
 5857SOL    HW219346  11.659   5.873   2.698
 5858SOL     OW19347   3.301   4.261   0.068
 5858SOL    HW119348   3.215   4.226   0.047
 5858SOL    HW219349   3.349   4.261  14.866
 5859SOL     OW19350  10.507  10.977   8.142
 5859SOL    HW119351  10.450  11.039   8.187
 5859SOL    HW219352  10.490  10.893   8.184
 5860SOL     OW19353  12.263  11.993   1.353
 5860SOL    HW119354  12.282  12.087   1.345
 5860SOL    HW219355  12.346  11.954   1.380
 5861SOL     OW19356   0.019   9.181   1.624
 5861SOL    HW119357   0.013   9.196   1.530
 5861SOL    HW219358   0.050   9.264   1.660
 5862SOL     OW19359   6.397  13.945   0.834
 5862SOL    HW119360   6.309  13.978   0.850
 5862SOL    HW219361   6.449  13.977   0.907
 5863SOL     OW19362  13.175  11.366   4.871
 5863SOL    HW119363  13.210  11.366   4.960
 5863SOL    HW219364  13.246  11.402   4.817
 5864SOL     OW19365   6.979   4.908   5.838
 5864SOL    HW119366   6.914   4.859   5.788
 5864SOL    HW219367   7.000   4.851   5.912
 5865SOL     OW19368   3.531   2.157  13.515
 5865SOL    HW119369   3.449   2.193  13.551
 5865SOL    HW219370   3.598   2.181  13.579
 5866SOL     OW19371   9.414   3.810   8.216
 5866SOL    HW119372   9.449   3.891   8.177
 5866SOL    HW219373   9.463   3.740   8.173
 5867SOL     OW19374   2.435   3.076  14.730
 5867SOL    HW119375   2.414   3.148  14.789
 5867SOL    HW219376   2.530   3.065  14.738
 5868SOL     OW19377   6.211   3.851  10.259
 5868SOL    HW119378   6.203   3.782  10.324
 5868SOL    HW219379   6.289   3.827  10.208
 5869SOL     OW19380  13.270  13.213   9.460
 5869SOL    HW119381  13.200  13.210   9.395
 5869SOL    HW219382  13.343  13.168   9.418
 5870SOL     OW19383   6.299  13.524  12.748
 5870SOL    HW119384   6.249  13.444  12.762
 5870SOL    HW219385   6.281  13.548  12.658
 5871SOL     OW19386   3.655   7.110   0.029
 5871SOL    HW119387   3.566   7.144   0.038
 5871SOL    HW219388   3.705   7.157   0.096
 5872SOL     OW19389   8.587  12.344   7.447
 5872SOL    HW119390   8.558  12.425   7.488
 5872SOL    HW219391   8.567  12.276   7.512
 5873SOL     OW19392   0.696   9.477  11.988
 5873SOL    HW119393   0.653   9.402  11.947
 5873SOL    HW219394   0.641   9.497  12.064
 5874SOL     OW19395   1.990   1.631   0.267
 5874SOL    HW119396   1.907   1.602   0.304
 5874SOL    HW219397   2.001   1.721   0.299
 5875SOL     OW19398   6.456  14.436  12.619
 5875SOL    HW119399   6.451  14.358  12.673
 5875SOL    HW219400   6.455  14.509  12.682
 5876SOL     OW19401   2.168  14.542   1.521
 5876SOL    HW119402   2.182  14.637   1.523
 5876SOL    HW219403   2.082  14.530   1.562
 5877SOL     OW19404   6.581  11.266   0.633
 5877SOL    HW119405   6.499  11.316   0.630
 5877SOL    HW219406   6.612  11.277   0.722
 5878SOL     OW19407  13.379   4.411  10.569
 5878SOL    HW119408  13.431   4.346  10.616
 5878SOL    HW219409  13.369   4.483  10.631
 5879SOL     OW19410   3.110   9.928  12.935
 5879SOL    HW119411   3.132   9.994  12.869
 5879SOL    HW219412   3.155   9.849  12.904
 5880SOL     OW19413   9.326   6.587   7.248
 5880SOL    HW119414   9.340   6.523   7.318
 5880SOL    HW219415   9.413   6.603   7.212
 5881SOL     OW19416   2.160   8.876   7.604
 5881SOL    HW119417   2.064   8.872   7.600
 5881SOL    HW219418   2.184   8.812   7.671
 5882SOL     OW19419   2.356   1.016   2.155
 5882SOL    HW119420   2.319   1.102   2.173
 5882SOL    HW219421   2.361   0.973   2.240
 5883SOL     OW19422   1.311   5.689   3.616
 5883SOL    HW119423   1.399   5.653   3.621
 5883SOL    HW219424   1.291   5.717   3.706
 5884SOL     OW19425   7.826  11.889   7.793
 5884SOL    HW119426   7.755  11.852   7.740
 5884SOL    HW219427   7.863  11.958   7.738
 5885SOL     OW19428   2.185  14.764   2.627
 5885SOL    HW119429   2.111  14.803   2.672
 5885SOL    HW219430   2.244  14.737   2.697
 5886SOL     OW19431  10.222   1.136   3.464
 5886SOL    HW119432  10.147   1.177   3.507
 5886SOL    HW219433  10.297   1.191   3.487
 5887SOL     OW19434   1.327  12.172  14.476
 5887SOL    HW119435   1.238  12.207  14.470
 5887SOL    HW219436   1.381  12.249  14.494
 5888SOL     OW19437  10.028   4.625   5.091
 5888SOL    HW119438   9.998   4.688   5.026
 5888SOL    HW219439   9.992   4.658   5.174
 5889SOL     OW19440   4.151   6.809   5.471
 5889SOL    HW119441   4.193   6.726   5.449
 5889SOL    HW219442   4.139   6.852   5.386
 5890SOL     OW19443  10.639   7.754  11.043
 5890SOL    HW119444  10.660   7.770  10.951
 5890SOL    HW219445  10.631   7.659  11.049
 5891SOL     OW19446  10.995   8.832  11.050
 5891SOL    HW119447  10.976   8.846  11.143
 5891SOL    HW219448  10.941   8.756  11.026
 5892SOL     OW19449  13.769   1.201   5.523
 5892SOL    HW119450  13.861   1.209   5.497
 5892SOL    HW219451  13.742   1.115   5.490
 5893SOL     OW19452   2.736   5.039  10.626
 5893SOL    HW119453   2.825   5.005  10.618
 5893SOL    HW219454   2.730   5.107  10.558
 5894SOL     OW19455   4.886  13.038   6.665
 5894SOL    HW119456   4.943  13.054   6.740
 5894SOL    HW219457   4.803  13.080   6.690
 5895SOL     OW19458   1.068   2.037  13.380
 5895SOL    HW119459   0.981   2.014  13.413
 5895SOL    HW219460   1.062   2.023  13.286
 5896SOL     OW19461   8.476   6.540  11.791
 5896SOL    HW119462   8.563   6.525  11.829
 5896SOL    HW219463   8.492   6.593  11.713
 5897SOL     OW19464   5.571   3.320   4.902
 5897SOL    HW119465   5.537   3.285   4.820
 5897SOL    HW219466   5.502   3.301   4.966
 5898SOL     OW19467   5.679   0.112  14.836
 5898SOL    HW119468   5.595   0.138  14.873
 5898SOL    HW219469   5.656   0.075  14.750
 5899SOL     OW19470   5.970  13.100  14.445
 5899SOL    HW119471   5.934  13.111  14.533
 5899SOL    HW219472   5.971  13.006  14.431
 5900SOL     OW19473   4.475   1.050  11.308
 5900SOL    HW119474   4.514   1.005  11.234
 5900SOL    HW219475   4.482   0.988  11.381
 5901SOL     OW19476   0.856  14.311   0.051
 5901SOL    HW119477   0.822  14.302   0.140
 5901SOL    HW219478   0.823  14.234   0.005
 5902SOL     OW19479   2.442   8.008   4.729
 5902SOL    HW119480   2.433   7.968   4.816
 5902SOL    HW219481   2.386   7.954   4.673
 5903SOL     OW19482   7.201   1.466   9.589
 5903SOL    HW119483   7.188   1.453   9.496
 5903SOL    HW219484   7.234   1.382   9.622
 5904SOL     OW19485  13.682  13.629  10.158
 5904SOL    HW119486  13.685  13.545  10.204
 5904SOL    HW219487  13.590  13.655  10.159
 5905SOL     OW19488   6.030  14.502   9.371
 5905SOL    HW119489   5.955  14.498   9.431
 5905SOL    HW219490   6.040  14.595   9.352
 5906SOL     OW19491  14.324   1.096   6.832
 5906SOL    HW119492  14.326   1.137   6.745
 5906SOL    HW219493  14.271   1.017   6.820
 5907SOL     OW19494  12.669   2.088   4.140
 5907SOL    HW119495  12.763   2.108   4.139
 5907SOL    HW219496  12.650   2.063   4.049
 5908SOL     OW19497   9.384  13.501  13.211
 5908SOL    HW119498   9.329  13.578  13.195
 5908SOL    HW219499   9.447  13.501  13.139
 5909SOL     OW19500  11.046  14.161   4.635
 5909SOL    HW119501  10.969  14.219   4.644
 5909SOL    HW219502  11.009  14.073   4.636
 5910SOL     OW19503   4.662   9.660   0.406
 5910SOL    HW119504   4.693   9.602   0.476
 5910SOL    HW219505   4.583   9.617   0.374
 5911SOL     OW19506  13.940  13.467   5.684
 5911SOL    HW119507  13.999  13.399   5.718
 5911SOL    HW219508  13.856  13.422   5.673
 5912SOL     OW19509   0.760  13.955   8.147
 5912SOL    HW119510   0.763  13.884   8.212
 5912SOL    HW219511   0.826  13.930   8.082
 5913SOL     OW19512  10.747   4.165  13.587
 5913SOL    HW119513  10.798   4.246  13.595
 5913SOL    HW219514  10.797   4.100  13.635
 5914SOL     OW19515  12.446  10.649   3.794
 5914SOL    HW119516  12.505  10.687   3.859
 5914SOL    HW219517  12.502  10.635   3.717
 5915SOL     OW19518   1.097   8.092   4.098
 5915SOL    HW119519   1.129   8.060   4.014
 5915SOL    HW219520   1.008   8.124   4.078
 5916SOL     OW19521   9.314  10.378  12.654
 5916SOL    HW119522   9.237  10.323  12.638
 5916SOL    HW219523   9.326  10.425  12.571
 5917SOL     OW19524   1.732  14.304  10.661
 5917SOL    HW119525   1.766  14.313  10.572
 5917SOL    HW219526   1.701  14.214  10.666
 5918SOL     OW19527   1.272   0.930  10.416
 5918SOL    HW119528   1.243   1.013  10.379
 5918SOL    HW219529   1.193   0.893  10.456
 5919SOL     OW19530  10.422  11.118   3.673
 5919SOL    HW119531  10.372  11.132   3.593
 5919SOL    HW219532  10.505  11.163   3.658
 5920SOL     OW19533   9.036   1.960  12.018
 5920SOL    HW119534   9.069   1.879  11.980
 5920SOL    HW219535   9.114   2.012  12.038
 5921SOL     OW19536  11.129   5.300  14.745
 5921SOL    HW119537  11.049   5.340  14.779
 5921SOL    HW219538  11.147   5.227  14.804
 5922SOL     OW19539   9.012   5.868   1.018
 5922SOL    HW119540   9.019   5.952   1.064
 5922SOL    HW219541   8.946   5.820   1.067
 5923SOL     OW19542   1.967   7.724  12.129
 5923SOL    HW119543   2.034   7.770  12.078
 5923SOL    HW219544   2.016   7.678  12.197
 5924SOL     OW19545  12.081   4.343  13.764
 5924SOL    HW119546  12.161   4.383  13.730
 5924SOL    HW219547  12.019   4.347  13.691
 5925SOL     OW19548  12.214   2.777  11.072
 5925SOL    HW119549  12.173   2.863  11.075
 5925SOL    HW219550  12.140   2.716  11.066
 5926SOL     OW19551   4.900   2.753  11.854
 5926SOL    HW119552   4.863   2.764  11.766
 5926SOL    HW219553   4.956   2.830  11.866
 5927SOL     OW19554   8.291   2.483  12.835
 5927SOL    HW119555   8.273   2.505  12.744
 5927SOL    HW219556   8.277   2.564  12.883
 5928SOL     OW19557  11.209  14.087  11.552
 5928SOL    HW119558  11.240  14.037  11.627
 5928SOL    HW219559  11.267  14.164  11.549
 5929SOL     OW19560   2.491   6.051  13.056
 5929SOL    HW119561   2.497   6.137  13.016
 5929SOL    HW219562   2.397   6.033  13.061
 5930SOL     OW19563   6.137   6.689   3.716
 5930SOL    HW119564   6.131   6.672   3.622
 5930SOL    HW219565   6.175   6.609   3.752
 5931SOL     OW19566  12.916  12.834   5.343
 5931SOL    HW119567  12.921  12.916   5.393
 5931SOL    HW219568  12.971  12.849   5.266
 5932SOL     OW19569   6.511  11.525  10.510
 5932SOL    HW119570   6.431  11.488  10.548
 5932SOL    HW219571   6.544  11.585  10.577
 5933SOL     OW19572   0.852  10.687  12.681
 5933SOL    HW119573   0.776  10.673  12.738
 5933SOL    HW219574   0.923  10.708  12.741
 5934SOL     OW19575   0.763   9.697  10.455
 5934SOL    HW119576   0.749   9.671  10.546
 5934SOL    HW219577   0.750   9.617  10.404
 5935SOL     OW19578   8.134   4.413   0.981
 5935SOL    HW119579   8.169   4.502   0.984
 5935SOL    HW219580   8.109   4.400   0.889
 5936SOL     OW19581   8.032   5.377   3.556
 5936SOL    HW119582   8.016   5.454   3.611
 5936SOL    HW219583   8.114   5.396   3.511
 5937SOL     OW19584   4.894   3.181   6.695
 5937SOL    HW119585   4.888   3.276   6.701
 5937SOL    HW219586   4.817   3.156   6.644
 5938SOL     OW19587   9.666   5.730   8.482
 5938SOL    HW119588   9.602   5.710   8.550
 5938SOL    HW219589   9.747   5.690   8.512
 5939SOL     OW19590   0.534  11.614   6.038
 5939SOL    HW119591   0.511  11.674   5.967
 5939SOL    HW219592   0.558  11.533   5.994
 5940SOL     OW19593  10.904   6.017   8.771
 5940SOL    HW119594  10.891   5.969   8.689
 5940SOL    HW219595  10.837   6.085   8.770
 5941SOL     OW19596  11.539   3.873  13.593
 5941SOL    HW119597  11.608   3.808  13.603
 5941SOL    HW219598  11.458   3.825  13.607
 5942SOL     OW19599   2.057  12.830  10.494
 5942SOL    HW119600   2.026  12.743  10.469
 5942SOL    HW219601   2.043  12.883  10.416
 5943SOL     OW19602   8.331   0.695  11.193
 5943SOL    HW119603   8.336   0.698  11.288
 5943SOL    HW219604   8.260   0.756  11.170
 5944SOL     OW19605  10.177   2.129   9.389
 5944SOL    HW119606  10.153   2.049   9.436
 5944SOL    HW219607  10.125   2.127   9.309
 5945SOL     OW19608  10.269  12.124   1.140
 5945SOL    HW119609  10.242  12.160   1.055
 5945SOL    HW219610  10.327  12.051   1.118
 5946SOL     OW19611  14.719   1.341  10.921
 5946SOL    HW119612  14.721   1.322  10.827
 5946SOL    HW219613  14.742   1.434  10.927
 5947SOL     OW19614   9.766   4.935   0.435
 5947SOL    HW119615   9.841   4.880   0.411
 5947SOL    HW219616   9.696   4.908   0.376
 5948SOL     OW19617  12.721   2.797  10.510
 5948SOL    HW119618  12.644   2.740  10.513
 5948SOL    HW219619  12.772   2.763  10.436
 5949SOL     OW19620  11.352   7.077  13.683
 5949SOL    HW119621  11.442   7.047  13.696
 5949SOL    HW219622  11.330   7.047  13.594
 5950SOL     OW19623  11.676   7.820  13.731
 5950SOL    HW119624  11.716   7.887  13.675
 5950SOL    HW219625  11.613   7.867  13.784
 5951SOL     OW19626  10.652  11.419  14.473
 5951SOL    HW119627  10.612  11.500  14.507
 5951SOL    HW219628  10.735  11.448  14.436
 5952SOL     OW19629  12.705   2.288  13.600
 5952SOL    HW119630  12.644   2.307  13.529
 5952SOL    HW219631  12.694   2.360  13.662
 5953SOL     OW19632  13.020   1.855  12.530
 5953SOL    HW119633  12.934   1.820  12.557
 5953SOL    HW219634  13.046   1.912  12.602
 5954SOL     OW19635  11.831   8.948   0.994
 5954SOL    HW119636  11.748   8.976   0.953
 5954SOL    HW219637  11.890   8.934   0.921
 5955SOL     OW19638   1.223  12.102   8.668
 5955SOL    HW119639   1.211  12.060   8.754
 5955SOL    HW219640   1.145  12.078   8.618
 5956SOL     OW19641  14.055   2.238  11.322
 5956SOL    HW119642  14.047   2.275  11.234
 5956SOL    HW219643  14.079   2.313  11.377
 5957SOL     OW19644  11.157  13.413  10.857
 5957SOL    HW119645  11.125  13.439  10.771
 5957SOL    HW219646  11.219  13.342  10.840
 5958SOL     OW19647   2.024   7.064   2.960
 5958SOL    HW119648   2.009   7.127   2.890
 5958SOL    HW219649   2.002   6.979   2.921
 5959SOL     OW19650   0.103   1.082  12.633
 5959SOL    HW119651   0.123   1.118  12.720
 5959SOL    HW219652   0.180   1.031  12.610
 5960SOL     OW19653   8.290  14.103   4.317
 5960SOL    HW119654   8.368  14.056   4.348
 5960SOL    HW219655   8.239  14.036   4.270
 5961SOL     OW19656   9.373   9.092   4.013
 5961SOL    HW119657   9.369   9.005   4.054
 5961SOL    HW219658   9.288   9.131   4.031
 5962SOL     OW19659   7.748   6.578  12.923
 5962SOL    HW119660   7.659   6.594  12.893
 5962SOL    HW219661   7.790   6.664  12.920
 5963SOL     OW19662   1.254  12.828   3.695
 5963SOL    HW119663   1.216  12.875   3.620
 5963SOL    HW219664   1.179  12.807   3.750
 5964SOL     OW19665   9.668   0.213   2.454
 5964SOL    HW119666   9.658   0.191   2.362
 5964SOL    HW219667   9.579   0.206   2.490
 5965SOL     OW19668  11.262   6.170  11.819
 5965SOL    HW119669  11.217   6.154  11.902
 5965SOL    HW219670  11.215   6.116  11.756
 5966SOL     OW19671   4.099   9.914  13.236
 5966SOL    HW119672   4.163   9.955  13.178
 5966SOL    HW219673   4.105   9.964  13.317
 5967SOL     OW19674   1.548  13.686   2.771
 5967SOL    HW119675   1.584  13.774   2.781
 5967SOL    HW219676   1.454  13.695   2.791
 5968SOL     OW19677   9.550   3.121   9.429
 5968SOL    HW119678   9.589   3.191   9.481
 5968SOL    HW219679   9.593   3.126   9.344
 5969SOL     OW19680   1.204   4.944   3.796
 5969SOL    HW119681   1.177   4.920   3.707
 5969SOL    HW219682   1.197   4.863   3.846
 5970SOL     OW19683   5.489   5.678  14.398
 5970SOL    HW119684   5.399   5.651  14.416
 5970SOL    HW219685   5.509   5.638  14.313
 5971SOL     OW19686   7.088   5.624  11.042
 5971SOL    HW119687   7.064   5.534  11.064
 5971SOL    HW219688   7.005   5.664  11.015
 5972SOL     OW19689   1.186   0.707  11.320
 5972SOL    HW119690   1.144   0.727  11.237
 5972SOL    HW219691   1.279   0.708  11.301
 5973SOL     OW19692  13.117   6.440  10.605
 5973SOL    HW119693  13.102   6.393  10.687
 5973SOL    HW219694  13.031   6.442  10.562
 5974SOL     OW19695  13.563   0.118   7.395
 5974SOL    HW119696  13.586   0.068   7.473
 5974SOL    HW219697  13.598   0.066   7.323
 5975SOL     OW19698  10.223   2.643   0.566
 5975SOL    HW119699  10.277   2.721   0.576
 5975SOL    HW219700  10.156   2.651   0.634
 5976SOL     OW19701   1.579   6.771  10.183
 5976SOL    HW119702   1.668   6.744  10.204
 5976SOL    HW219703   1.533   6.689  10.163
 5977SOL     OW19704  14.516   4.752   2.922
 5977SOL    HW119705  14.541   4.817   2.988
 5977SOL    HW219706  14.557   4.671   2.951
 5978SOL     OW19707   5.351  12.809  11.021
 5978SOL    HW119708   5.276  12.856  10.983
 5978SOL    HW219709   5.372  12.742  10.956
 5979SOL     OW19710   1.924   6.110  12.485
 5979SOL    HW119711   1.886   6.196  12.470
 5979SOL    HW219712   1.974   6.119  12.566
 5980SOL     OW19713   2.293  11.715   5.365
 5980SOL    HW119714   2.369  11.716   5.306
 5980SOL    HW219715   2.274  11.621   5.376
 5981SOL     OW19716   5.250  14.152  12.480
 5981SOL    HW119717   5.311  14.176  12.410
 5981SOL    HW219718   5.306  14.141  12.557
 5982SOL     OW19719  13.873   8.304  10.074
 5982SOL    HW119720  13.831   8.271  10.153
 5982SOL    HW219721  13.936   8.369  10.105
 5983SOL     OW19722   7.746  11.717   7.357
 5983SOL    HW119723   7.772  11.803   7.325
 5983SOL    HW219724   7.745  11.662   7.279
 5984SOL     OW19725   6.021  11.252   6.592
 5984SOL    HW119726   6.110  11.289   6.599
 5984SOL    HW219727   5.969  11.324   6.556
 5985SOL     OW19728   4.535  11.385   3.863
 5985SOL    HW119729   4.532  11.312   3.801
 5985SOL    HW219730   4.455  11.377   3.915
 5986SOL     OW19731   2.220  14.162   5.070
 5986SOL    HW119732   2.250  14.074   5.046
 5986SOL    HW219733   2.271  14.184   5.148
 5987SOL     OW19734   1.869   0.252   4.761
 5987SOL    HW119735   1.801   0.301   4.808
 5987SOL    HW219736   1.944   0.311   4.760
 5988SOL     OW19737   1.157   6.009   1.794
 5988SOL    HW119738   1.210   5.963   1.729
 5988SOL    HW219739   1.209   6.085   1.818
 5989SOL     OW19740   6.357   1.727  11.169
 5989SOL    HW119741   6.374   1.633  11.162
 5989SOL    HW219742   6.373   1.760  11.080
 5990SOL     OW19743  11.337  11.179   4.192
 5990SOL    HW119744  11.265  11.152   4.250
 5990SOL    HW219745  11.404  11.112   4.207
 5991SOL     OW19746  14.273  11.237   1.475
 5991SOL    HW119747  14.307  11.315   1.520
 5991SOL    HW219748  14.190  11.266   1.437
 5992SOL     OW19749   0.444   0.199   2.616
 5992SOL    HW119750   0.442   0.110   2.654
 5992SOL    HW219751   0.536   0.224   2.621
 5993SOL     OW19752  11.443   0.347  13.904
 5993SOL    HW119753  11.437   0.440  13.925
 5993SOL    HW219754  11.459   0.345  13.810
 5994SOL     OW19755  12.110  10.334   5.335
 5994SOL    HW119756  12.117  10.298   5.247
 5994SOL    HW219757  12.030  10.295   5.371
 5995SOL     OW19758   8.510   1.589  13.345
 5995SOL    HW119759   8.423   1.562  13.377
 5995SOL    HW219760   8.504   1.579  13.250
 5996SOL     OW19761  10.840   3.733  13.575
 5996SOL    HW119762  10.870   3.732  13.666
 5996SOL    HW219763  10.916   3.764  13.525
 5997SOL     OW19764   6.672   9.284  13.582
 5997SOL    HW119765   6.593   9.338  13.589
 5997SOL    HW219766   6.646   9.200  13.619
 5998SOL     OW19767   1.656   7.209   0.431
 5998SOL    HW119768   1.604   7.183   0.355
 5998SOL    HW219769   1.697   7.291   0.405
 5999SOL     OW19770   6.385   0.693   6.766
 5999SOL    HW119771   6.360   0.650   6.848
 5999SOL    HW219772   6.478   0.673   6.755
 6000SOL     OW19773   5.142   9.863   0.812
 6000SOL    HW119774   5.202   9.802   0.854
 6000SOL    HW219775   5.126   9.931   0.878
 6001SOL     OW19776  14.686   0.534  13.247
 6001SOL    HW119777  14.643   0.612  13.282
 6001SOL    HW219778  14.677   0.469  13.316
 6002SOL     OW19779   1.059   6.900   2.337
 6002SOL    HW119780   1.076   6.838   2.267
 6002SOL    HW219781   0.986   6.953   2.306
 6003SOL     OW19782   0.397   7.209   6.084
 6003SOL    HW119783   0.405   7.175   5.995
 6003SOL    HW219784   0.321   7.266   6.081
 6004SOL     OW19785  10.076   8.839   7.283
 6004SOL    HW119786   9.999   8.828   7.338
 6004SOL    HW219787  10.129   8.904   7.330
 6005SOL     OW19788   0.437   6.634   1.849
 6005SOL    HW119789   0.514   6.686   1.825
 6005SOL    HW219790   0.363   6.680   1.808
 6006SOL     OW19791  12.879  11.790   3.477
 6006SOL    HW119792  12.898  11.747   3.560
 6006SOL    HW219793  12.876  11.883   3.498
 6007SOL     OW19794   9.606  11.103  13.201
 6007SOL    HW119795   9.587  11.016  13.237
 6007SOL    HW219796   9.524  11.152  13.210
 6008SOL     OW19797   3.515  14.342   0.716
 6008SOL    HW119798   3.508  14.301   0.630
 6008SOL    HW219799   3.426  14.342   0.750
 6009SOL     OW19800  11.731  11.119  10.923
 6009SOL    HW119801  11.644  11.157  10.911
 6009SOL    HW219802  11.750  11.076  10.839
 6010SOL     OW19803  13.288  11.674  12.726
 6010SOL    HW119804  13.339  11.752  12.749
 6010SOL    HW219805  13.196  11.702  12.734
 6011SOL     OW19806   9.623   5.423   0.429
 6011SOL    HW119807   9.694   5.476   0.393
 6011SOL    HW219808   9.665   5.368   0.496
 6012SOL     OW19809   2.282   8.038  11.641
 6012SOL    HW119810   2.207   7.999  11.597
 6012SOL    HW219811   2.332   8.079  11.570
 6013SOL     OW19812   1.414   8.370   9.543
 6013SOL    HW119813   1.331   8.354   9.588
 6013SOL    HW219814   1.409   8.317   9.463
 6014SOL     OW19815   9.516   8.656   4.965
 6014SOL    HW119816   9.589   8.686   4.911
 6014SOL    HW219817   9.553   8.589   5.022
 6015SOL     OW19818   9.992   5.581   1.846
 6015SOL    HW119819  10.042   5.531   1.782
 6015SOL    HW219820  10.057   5.635   1.890
 6016SOL     OW19821   6.203  13.783   7.305
 6016SOL    HW119822   6.246  13.697   7.311
 6016SOL    HW219823   6.226  13.827   7.387
 6017SOL     OW19824   2.809   0.449   9.474
 6017SOL    HW119825   2.793   0.458   9.568
 6017SOL    HW219826   2.888   0.394   9.469
 6018SOL     OW19827  11.660  11.979   0.841
 6018SOL    HW119828  11.615  12.026   0.771
 6018SOL    HW219829  11.752  11.985   0.818
 6019SOL     OW19830   2.902  11.571   6.270
 6019SOL    HW119831   2.978  11.542   6.321
 6019SOL    HW219832   2.827  11.556   6.327
 6020SOL     OW19833  13.266   6.163   3.999
 6020SOL    HW119834  13.175   6.143   3.978
 6020SOL    HW219835  13.263   6.251   4.036
 6021SOL     OW19836   8.855  12.645   9.282
 6021SOL    HW119837   8.921  12.676   9.344
 6021SOL    HW219838   8.896  12.655   9.196
 6022SOL     OW19839   6.432   3.727  10.158
 6022SOL    HW119840   6.453   3.634  10.161
 6022SOL    HW219841   6.389   3.739  10.073
 6023SOL     OW19842   8.774   5.178   5.771
 6023SOL    HW119843   8.689   5.186   5.815
 6023SOL    HW219844   8.797   5.268   5.747
 6024SOL     OW19845   0.918   1.474  10.594
 6024SOL    HW119846   1.000   1.510  10.561
 6024SOL    HW219847   0.850   1.527  10.554
 6025SOL     OW19848   1.706   6.145   6.832
 6025SOL    HW119849   1.797   6.171   6.846
 6025SOL    HW219850   1.669   6.213   6.777
 6026SOL     OW19851   7.853   3.173   8.056
 6026SOL    HW119852   7.815   3.128   8.131
 6026SOL    HW219853   7.778   3.209   8.009
 6027SOL     OW19854  12.856   9.169   5.802
 6027SOL    HW119855  12.790   9.228   5.764
 6027SOL    HW219856  12.929   9.227   5.824
 6028SOL     OW19857   8.637   4.500   8.742
 6028SOL    HW119858   8.672   4.523   8.828
 6028SOL    HW219859   8.709   4.518   8.681
 6029SOL     OW19860  13.535   9.425  10.399
 6029SOL    HW119861  13.452   9.378  10.388
 6029SOL    HW219862  13.588   9.369  10.455
 6030SOL     OW19863   2.789   6.539  14.810
 6030SOL    HW119864   2.698   6.555  14.833
 6030SOL    HW219865   2.824   6.625  14.788
 6031SOL     OW19866   7.855  12.695   2.856
 6031SOL    HW119867   7.859  12.703   2.951
 6031SOL    HW219868   7.870  12.602   2.838
 6032SOL     OW19869   2.059  14.860  10.258
 6032SOL    HW119870   2.030   0.052  10.204
 6032SOL    HW219871   1.997  14.790  10.240
 6033SOL     OW19872   8.959  10.560  11.733
 6033SOL    HW119873   9.000  10.645  11.713
 6033SOL    HW219874   8.993  10.501  11.666
 6034SOL     OW19875   6.383   9.653   2.142
 6034SOL    HW119876   6.359   9.733   2.188
 6034SOL    HW219877   6.379   9.676   2.049
 6035SOL     OW19878   1.363  13.841  10.545
 6035SOL    HW119879   1.377  13.877  10.632
 6035SOL    HW219880   1.353  13.917  10.489
 6036SOL     OW19881   1.956  13.461   2.872
 6036SOL    HW119882   2.029  13.517   2.895
 6036SOL    HW219883   1.910  13.508   2.802
 6037SOL     OW19884   5.411   0.996   6.254
 6037SOL    HW119885   5.412   1.078   6.303
 6037SOL    HW219886   5.462   1.014   6.175
 6038SOL     OW19887   0.154  12.010   9.842
 6038SOL    HW119888   0.135  12.095   9.882
 6038SOL    HW219889   0.102  11.947   9.892
 6039SOL     OW19890   7.794  11.164   0.937
 6039SOL    HW119891   7.736  11.128   0.871
 6039SOL    HW219892   7.809  11.255   0.910
 6040SOL     OW19893   7.361  13.755   7.105
 6040SOL    HW119894   7.372  13.686   7.171
 6040SOL    HW219895   7.450  13.785   7.087
 6041SOL     OW19896  12.971  12.997   3.182
 6041SOL    HW119897  12.931  13.080   3.207
 6041SOL    HW219898  12.996  12.956   3.265
 6042SOL     OW19899  14.472   1.062   9.792
 6042SOL    HW119900  14.447   1.031   9.705
 6042SOL    HW219901  14.495   0.982   9.840
 6043SOL     OW19902   2.373   4.717  14.331
 6043SOL    HW119903   2.396   4.642  14.385
 6043SOL    HW219904   2.433   4.712  14.256
 6044SOL     OW19905   1.572  11.597  11.849
 6044SOL    HW119906   1.509  11.668  11.858
 6044SOL    HW219907   1.574  11.578  11.755
 6045SOL     OW19908   1.761  11.177   0.169
 6045SOL    HW119909   1.785  11.136   0.086
 6045SOL    HW219910   1.843  11.210   0.204
 6046SOL     OW19911   7.128  12.850  13.551
 6046SOL    HW119912   7.096  12.852  13.641
 6046SOL    HW219913   7.223  12.858  13.560
 6047SOL     OW19914   1.599   0.992  14.811
 6047SOL    HW119915   1.518   0.958  14.771
 6047SOL    HW219916   1.588   1.087  14.809
 6048SOL     OW19917   7.484   6.725  11.154
 6048SOL    HW119918   7.556   6.690  11.207
 6048SOL    HW219919   7.416   6.658  11.160
 6049SOL     OW19920  13.975  14.783   2.654
 6049SOL    HW119921  13.968  14.762   2.561
 6049SOL    HW219922  13.966  14.698   2.698
 6050SOL     OW19923   5.294   8.968   6.069
 6050SOL    HW119924   5.199   8.981   6.064
 6050SOL    HW219925   5.308   8.882   6.029
 6051SOL     OW19926  10.753   4.442   6.972
 6051SOL    HW119927  10.827   4.422   7.030
 6051SOL    HW219928  10.676   4.439   7.029
 6052SOL     OW19929   4.393   5.449   0.360
 6052SOL    HW119930   4.302   5.440   0.387
 6052SOL    HW219931   4.398   5.537   0.324
 6053SOL     OW19932   9.147  11.553   9.917
 6053SOL    HW119933   9.152  11.460   9.897
 6053SOL    HW219934   9.177  11.560  10.008
 6054SOL     OW19935   1.567   9.557   2.773
 6054SOL    HW119936   1.602   9.511   2.698
 6054SOL    HW219937   1.574   9.495   2.846
 6055SOL     OW19938   4.382   3.634  10.608
 6055SOL    HW119939   4.360   3.548  10.643
 6055SOL    HW219940   4.357   3.696  10.677
 6056SOL     OW19941   9.015   3.343  14.257
 6056SOL    HW119942   9.017   3.373  14.167
 6056SOL    HW219943   9.107   3.342  14.284
 6057SOL     OW19944   5.601   9.615   4.607
 6057SOL    HW119945   5.689   9.580   4.621
 6057SOL    HW219946   5.607   9.660   4.523
 6058SOL     OW19947  11.996  14.852   8.248
 6058SOL    HW119948  12.028   0.019   8.324
 6058SOL    HW219949  11.969   0.038   8.186
 6059SOL     OW19950  10.248   6.444  14.875
 6059SOL    HW119951  10.226   6.537  14.870
 6059SOL    HW219952  10.337   6.442   0.028
 6060SOL     OW19953  14.117  14.620   1.874
 6060SOL    HW119954  14.133  14.543   1.929
 6060SOL    HW219955  14.098  14.690   1.937
 6061SOL     OW19956   2.271  14.842   6.816
 6061SOL    HW119957   2.366  14.853   6.804
 6061SOL    HW219958   2.241  14.800   6.736
 6062SOL     OW19959  10.290  13.648  12.666
 6062SOL    HW119960  10.333  13.624  12.748
 6062SOL    HW219961  10.224  13.580  12.653
 6063SOL     OW19962   8.070  12.642   3.565
 6063SOL    HW119963   8.160  12.615   3.581
 6063SOL    HW219964   8.074  12.738   3.559
 6064SOL     OW19965  10.504   2.531   3.566
 6064SOL    HW119966  10.517   2.541   3.661
 6064SOL    HW219967  10.562   2.459   3.542
 6065SOL     OW19968   3.717   6.332   9.829
 6065SOL    HW119969   3.761   6.354   9.747
 6065SOL    HW219970   3.627   6.363   9.818
 6066SOL     OW19971  14.835   2.561   0.402
 6066SOL    HW119972   0.029   2.537   0.456
 6066SOL    HW219973  14.818   2.482   0.350
 6067SOL     OW19974   1.584  14.601   4.162
 6067SOL    HW119975   1.562  14.598   4.255
 6067SOL    HW219976   1.532  14.530   4.123
 6068SOL     OW19977  11.768  14.828   8.706
 6068SOL    HW119978  11.719  14.763   8.757
 6068SOL    HW219979  11.851  14.838   8.753
 6069SOL     OW19980  10.465   1.955   2.729
 6069SOL    HW119981  10.395   1.913   2.679
 6069SOL    HW219982  10.543   1.904   2.710
 6070SOL     OW19983   2.708   4.140   3.365
 6070SOL    HW119984   2.738   4.120   3.454
 6070SOL    HW219985   2.613   4.123   3.368
 6071SOL     OW19986   0.512  11.904   6.403
 6071SOL    HW119987   0.601  11.891   6.433
 6071SOL    HW219988   0.521  11.948   6.318
 6072SOL     OW19989  14.087  14.551   1.107
 6072SOL    HW119990  14.125  14.490   1.042
 6072SOL    HW219991  14.160  14.572   1.165
 6073SOL     OW19992   3.329   4.318   8.971
 6073SOL    HW119993   3.259   4.333   9.035
 6073SOL    HW219994   3.345   4.224   8.975
 6074SOL     OW19995   3.529  12.550   0.026
 6074SOL    HW119996   3.516  12.644   0.038
 6074SOL    HW219997   3.591  12.525   0.094
 6075SOL     OW19998   3.767  11.776  13.082
 6075SOL    HW119999   3.686  11.769  13.133
 6075SOL    HW220000   3.784  11.686  13.054
 6076SOL     OW20001   6.020   4.173   3.171
 6076SOL    HW120002   6.112   4.187   3.192
 6076SOL    HW220003   5.973   4.227   3.236
 6077SOL     OW20004   7.964   1.619   3.381
 6077SOL    HW120005   8.003   1.536   3.408
 6077SOL    HW220006   7.888   1.630   3.438
 6078SOL     OW20007   3.642   2.357   1.831
 6078SOL    HW120008   3.686   2.360   1.916
 6078SOL    HW220009   3.664   2.271   1.795
 6079SOL     OW20010  11.319   1.498   5.884
 6079SOL    HW120011  11.290   1.467   5.970
 6079SOL    HW220012  11.267   1.576   5.868
 6080SOL     OW20013  10.518   6.312  14.098
 6080SOL    HW120014  10.466   6.236  14.124
 6080SOL    HW220015  10.575   6.329  14.172
 6081SOL     OW20016  14.472   8.326   8.717
 6081SOL    HW120017  14.451   8.233   8.713
 6081SOL    HW220018  14.548   8.331   8.775
 6082SOL     OW20019   8.569   2.703   1.569
 6082SOL    HW120020   8.484   2.686   1.529
 6082SOL    HW220021   8.609   2.770   1.513
 6083SOL     OW20022   0.010  13.575   2.456
 6083SOL    HW120023   0.063  13.562   2.535
 6083SOL    HW220024   0.037  13.505   2.397
 6084SOL     OW20025   4.159   3.615  12.474
 6084SOL    HW120026   4.220   3.542  12.474
 6084SOL    HW220027   4.158   3.646  12.383
 6085SOL     OW20028  14.777   8.803   4.623
 6085SOL    HW120029  14.711   8.872   4.628
 6085SOL    HW220030  14.816   8.814   4.536
 6086SOL     OW20031  12.608   9.067  12.564
 6086SOL    HW120032  12.625   9.014  12.642
 6086SOL    HW220033  12.671   9.036  12.499
 6087SOL     OW20034   0.852  13.657   9.452
 6087SOL    HW120035   0.847  13.721   9.522
 6087SOL    HW220036   0.762  13.624   9.442
 6088SOL     OW20037   8.319   1.391  10.771
 6088SOL    HW120038   8.403   1.436  10.780
 6088SOL    HW220039   8.281   1.393  10.859
 6089SOL     OW20040  14.699   0.346   0.624
 6089SOL    HW120041  14.733   0.424   0.581
 6089SOL    HW220042  14.614   0.371   0.657
 6090SOL     OW20043   0.241   4.026   3.191
 6090SOL    HW120044   0.306   3.986   3.250
 6090SOL    HW220045   0.256   4.121   3.201
 6091SOL     OW20046   7.902   8.702   3.015
 6091SOL    HW120047   7.902   8.628   2.955
 6091SOL    HW220048   7.993   8.711   3.042
 6092SOL     OW20049  11.417   4.165   8.270
 6092SOL    HW120050  11.327   4.198   8.274
 6092SOL    HW220051  11.408   4.078   8.231
 6093SOL     OW20052   7.161   2.929  10.988
 6093SOL    HW120053   7.178   2.873  11.064
 6093SOL    HW220054   7.160   2.869  10.914
 6094SOL     OW20055   0.949  10.325  13.123
 6094SOL    HW120056   0.987  10.237  13.124
 6094SOL    HW220057   1.004  10.376  13.182
 6095SOL     OW20058   3.655  10.536   9.433
 6095SOL    HW120059   3.733  10.514   9.484
 6095SOL    HW220060   3.624  10.618   9.471
 6096SOL     OW20061  11.156   6.135  12.109
 6096SOL    HW120062  11.194   6.213  12.150
 6096SOL    HW220063  11.084   6.109  12.167
 6097SOL     OW20064  13.797  11.142   3.353
 6097SOL    HW120065  13.883  11.170   3.383
 6097SOL    HW220066  13.764  11.086   3.423
 6098SOL     OW20067   5.216  12.829  13.464
 6098SOL    HW120068   5.277  12.869  13.525
 6098SOL    HW220069   5.137  12.813  13.516
 6099SOL     OW20070   4.288   8.281   3.864
 6099SOL    HW120071   4.264   8.318   3.949
 6099SOL    HW220072   4.255   8.344   3.800
 6100SOL     OW20073  13.480   4.550   3.161
 6100SOL    HW120074  13.489   4.628   3.106
 6100SOL    HW220075  13.393   4.517   3.140
 6101SOL     OW20076  10.285   8.532  12.718
 6101SOL    HW120077  10.273   8.620  12.754
 6101SOL    HW220078  10.340   8.487  12.782
 6102SOL     OW20079   8.519  12.724   9.852
 6102SOL    HW120080   8.587  12.744   9.917
 6102SOL    HW220081   8.556  12.652   9.800
 6103SOL     OW20082   7.101   4.821   2.639
 6103SOL    HW120083   7.153   4.791   2.564
 6103SOL    HW220084   7.040   4.750   2.656
 6104SOL     OW20085   2.278   4.261   2.896
 6104SOL    HW120086   2.193   4.252   2.853
 6104SOL    HW220087   2.340   4.221   2.835
 6105SOL     OW20088  13.593   7.887   2.972
 6105SOL    HW120089  13.608   7.799   2.939
 6105SOL    HW220090  13.606   7.880   3.067
 6106SOL     OW20091  13.038   2.740   3.660
 6106SOL    HW120092  12.989   2.687   3.597
 6106SOL    HW220093  13.007   2.829   3.645
 6107SOL     OW20094  10.355   6.633   9.693
 6107SOL    HW120095  10.355   6.584   9.776
 6107SOL    HW220096  10.300   6.710   9.711
 6108SOL     OW20097   6.976   6.764   8.597
 6108SOL    HW120098   7.014   6.760   8.510
 6108SOL    HW220099   6.968   6.858   8.616
 6109SOL     OW20100  10.993   6.864  13.466
 6109SOL    HW120101  11.082   6.840  13.441
 6109SOL    HW220102  10.998   6.956  13.491
 6110SOL     OW20103   8.095   0.621  14.167
 6110SOL    HW120104   8.182   0.602  14.204
 6110SOL    HW220105   8.098   0.587  14.078
 6111SOL     OW20106  10.176   9.098   8.395
 6111SOL    HW120107  10.248   9.042   8.365
 6111SOL    HW220108  10.148   9.144   8.316
 6112SOL     OW20109   0.357   7.888   5.846
 6112SOL    HW120110   0.412   7.966   5.855
 6112SOL    HW220111   0.412   7.826   5.798
 6113SOL     OW20112   7.389   1.824   0.289
 6113SOL    HW120113   7.459   1.794   0.231
 6113SOL    HW220114   7.312   1.828   0.234
 6114SOL     OW20115  13.291   4.887   0.906
 6114SOL    HW120116  13.240   4.812   0.876
 6114SOL    HW220117  13.306   4.870   0.999
 6115SOL     OW20118   8.723   2.063   8.166
 6115SOL    HW120119   8.691   2.152   8.152
 6115SOL    HW220120   8.753   2.035   8.080
 6116SOL     OW20121   9.362   2.064  13.146
 6116SOL    HW120122   9.419   2.141  13.143
 6116SOL    HW220123   9.309   2.070  13.067
 6117SOL     OW20124   4.139  14.058   4.751
 6117SOL    HW120125   4.195  13.982   4.770
 6117SOL    HW220126   4.050  14.026   4.762
 6118SOL     OW20127   4.369   4.214  10.878
 6118SOL    HW120128   4.374   4.204  10.783
 6118SOL    HW220129   4.287   4.261  10.893
 6119SOL     OW20130  14.829   5.071  11.398
 6119SOL    HW120131   0.000   5.135  11.350
 6119SOL    HW220132  14.778   5.026  11.331
 6120SOL     OW20133   4.299   4.223   1.086
 6120SOL    HW120134   4.345   4.147   1.050
 6120SOL    HW220135   4.338   4.235   1.173
 6121SOL     OW20136   7.533  14.210   0.455
 6121SOL    HW120137   7.623  14.188   0.481
 6121SOL    HW220138   7.509  14.283   0.512
 6122SOL     OW20139   9.694   3.309  13.340
 6122SOL    HW120140   9.706   3.402  13.358
 6122SOL    HW220141   9.600   3.295  13.343
 6123SOL     OW20142   2.885  12.261  10.035
 6123SOL    HW120143   2.819  12.205  10.075
 6123SOL    HW220144   2.904  12.327  10.102
 6124SOL     OW20145   8.197   7.968   3.976
 6124SOL    HW120146   8.232   8.034   3.916
 6124SOL    HW220147   8.103   7.970   3.963
 6125SOL     OW20148   0.763  12.457  10.905
 6125SOL    HW120149   0.744  12.363  10.909
 6125SOL    HW220150   0.691  12.494  10.855
 6126SOL     OW20151   4.414  10.309  14.768
 6126SOL    HW120152   4.357  10.294  14.843
 6126SOL    HW220153   4.393  10.398  14.738
 6127SOL     OW20154   3.650   5.289  10.764
 6127SOL    HW120155   3.613   5.293  10.852
 6127SOL    HW220156   3.725   5.230  10.772
 6128SOL     OW20157  10.758   6.302   0.146
 6128SOL    HW120158  10.777   6.309   0.053
 6128SOL    HW220159  10.841   6.274   0.185
 6129SOL     OW20160   3.918  13.129  13.826
 6129SOL    HW120161   3.966  13.208  13.801
 6129SOL    HW220162   3.953  13.060  13.770
 6130SOL     OW20163   5.434   1.435   5.064
 6130SOL    HW120164   5.526   1.445   5.042
 6130SOL    HW220165   5.395   1.520   5.044
 6131SOL     OW20166   9.917   1.600   8.144
 6131SOL    HW120167   9.999   1.642   8.168
 6131SOL    HW220168   9.886   1.558   8.224
 6132SOL     OW20169   9.285  12.666   4.474
 6132SOL    HW120170   9.258  12.607   4.544
 6132SOL    HW220171   9.217  12.658   4.408
 6133SOL     OW20172   4.710   9.538  10.948
 6133SOL    HW120173   4.779   9.530  11.014
 6133SOL    HW220174   4.655   9.461  10.961
 6134SOL     OW20175   8.332  13.928  10.399
 6134SOL    HW120176   8.385  13.869  10.345
 6134SOL    HW220177   8.243  13.893  10.390
 6135SOL     OW20178   1.066   7.625   6.426
 6135SOL    HW120179   0.979   7.596   6.398
 6135SOL    HW220180   1.067   7.719   6.408
 6136SOL     OW20181   1.421   6.326  12.610
 6136SOL    HW120182   1.485   6.307  12.542
 6136SOL    HW220183   1.370   6.245  12.618
 6137SOL     OW20184   3.192  10.668   9.793
 6137SOL    HW120185   3.275  10.622   9.780
 6137SOL    HW220186   3.201  10.710   9.879
 6138SOL     OW20187   3.184   0.963   5.749
 6138SOL    HW120188   3.240   0.975   5.672
 6138SOL    HW220189   3.221   0.887   5.794
 6139SOL     OW20190  12.395   4.532   8.027
 6139SOL    HW120191  12.488   4.516   8.043
 6139SOL    HW220192  12.359   4.552   8.114
 6140SOL     OW20193  14.316  12.161   4.955
 6140SOL    HW120194  14.387  12.167   5.018
 6140SOL    HW220195  14.278  12.074   4.969
 6141SOL     OW20196   8.807   7.724   5.522
 6141SOL    HW120197   8.891   7.713   5.568
 6141SOL    HW220198   8.829   7.781   5.448
 6142SOL     OW20199   2.471   0.892   9.514
 6142SOL    HW120200   2.550   0.841   9.530
 6142SOL    HW220201   2.478   0.919   9.423
 6143SOL     OW20202  10.576   1.535   8.921
 6143SOL    HW120203  10.565   1.467   8.988
 6143SOL    HW220204  10.486   1.551   8.890
 6144SOL     OW20205  14.343   9.953   2.992
 6144SOL    HW120206  14.387   9.907   2.921
 6144SOL    HW220207  14.324   9.885   3.057
 6145SOL     OW20208   7.849   2.452   5.352
 6145SOL    HW120209   7.892   2.449   5.437
 6145SOL    HW220210   7.918   2.479   5.291
 6146SOL     OW20211  12.433  11.052  14.555
 6146SOL    HW120212  12.447  11.144  14.576
 6146SOL    HW220213  12.482  11.004  14.622
 6147SOL     OW20214   9.181   5.370   3.150
 6147SOL    HW120215   9.154   5.288   3.192
 6147SOL    HW220216   9.100   5.418   3.135
 6148SOL     OW20217   1.634   3.403   2.489
 6148SOL    HW120218   1.616   3.312   2.512
 6148SOL    HW220219   1.601   3.411   2.399
 6149SOL     OW20220  12.088  14.164  13.338
 6149SOL    HW120221  12.062  14.074  13.317
 6149SOL    HW220222  12.103  14.163  13.432
 6150SOL     OW20223   9.421   9.268   6.314
 6150SOL    HW120224   9.440   9.254   6.407
 6150SOL    HW220225   9.482   9.211   6.267
 6151SOL     OW20226   5.467   9.070   3.715
 6151SOL    HW120227   5.421   9.146   3.750
 6151SOL    HW220228   5.456   9.002   3.782
 6152SOL     OW20229   2.521   3.081  11.286
 6152SOL    HW120230   2.496   2.990  11.270
 6152SOL    HW220231   2.488   3.101  11.373
 6153SOL     OW20232   3.232   1.415  13.889
 6153SOL    HW120233   3.235   1.452  13.977
 6153SOL    HW220234   3.178   1.477  13.839
 6154SOL     OW20235   6.401   7.251  13.612
 6154SOL    HW120236   6.381   7.337  13.576
 6154SOL    HW220237   6.393   7.191  13.537
 6155SOL     OW20238   9.124   4.134   1.402
 6155SOL    HW120239   9.114   4.220   1.362
 6155SOL    HW220240   9.151   4.077   1.330
 6156SOL     OW20241   8.212  11.034   5.837
 6156SOL    HW120242   8.228  11.105   5.898
 6156SOL    HW220243   8.175  11.076   5.760
 6157SOL     OW20244   3.377   8.853   6.349
 6157SOL    HW120245   3.321   8.779   6.372
 6157SOL    HW220246   3.316   8.923   6.326
 6158SOL     OW20247   0.634   8.439   0.453
 6158SOL    HW120248   0.667   8.349   0.447
 6158SOL    HW220249   0.648   8.475   0.366
 6159SOL     OW20250  10.579   5.326   3.745
 6159SOL    HW120251  10.575   5.231   3.740
 6159SOL    HW220252  10.669   5.345   3.771
 6160SOL     OW20253  10.475  13.904  11.927
 6160SOL    HW120254  10.511  13.867  11.846
 6160SOL    HW220255  10.383  13.879  11.926
 6161SOL     OW20256   2.447   8.720   6.831
 6161SOL    HW120257   2.528   8.725   6.781
 6161SOL    HW220258   2.386   8.776   6.784
 6162SOL     OW20259   2.913   5.797   8.252
 6162SOL    HW120260   2.827   5.838   8.243
 6162SOL    HW220261   2.948   5.832   8.334
 6163SOL     OW20262  13.002  10.532   2.045
 6163SOL    HW120263  13.048  10.475   1.983
 6163SOL    HW220264  12.982  10.611   1.995
 6164SOL     OW20265   2.595   2.770  10.033
 6164SOL    HW120266   2.627   2.680  10.026
 6164SOL    HW220267   2.618   2.797  10.122
 6165SOL     OW20268   4.243  10.923   9.364
 6165SOL    HW120269   4.173  10.933   9.300
 6165SOL    HW220270   4.306  10.992   9.343
 6166SOL     OW20271  13.872  11.134   2.026
 6166SOL    HW120272  13.934  11.187   1.978
 6166SOL    HW220273  13.858  11.057   1.971
 6167SOL     OW20274   2.655   7.608  14.752
 6167SOL    HW120275   2.582   7.579  14.807
 6167SOL    HW220276   2.616   7.671  14.692
 6168SOL     OW20277   6.502   6.162   3.667
 6168SOL    HW120278   6.414   6.133   3.644
 6168SOL    HW220279   6.556   6.137   3.591
 6169SOL     OW20280  11.986  14.746   9.155
 6169SOL    HW120281  11.958  14.714   9.241
 6169SOL    HW220282  11.975  14.841   9.159
 6170SOL     OW20283   0.906  10.142  12.255
 6170SOL    HW120284   0.879  10.062  12.301
 6170SOL    HW220285   0.877  10.128  12.165
 6171SOL     OW20286   4.056  14.059   9.898
 6171SOL    HW120287   4.109  14.111   9.839
 6171SOL    HW220288   4.084  14.085   9.986
 6172SOL     OW20289   0.931   8.584   7.589
 6172SOL    HW120290   0.865   8.650   7.567
 6172SOL    HW220291   1.013   8.633   7.593
 6173SOL     OW20292   0.356   8.031  10.672
 6173SOL    HW120293   0.409   8.056  10.748
 6173SOL    HW220294   0.269   8.065  10.691
 6174SOL     OW20295  11.714  12.402   6.541
 6174SOL    HW120296  11.648  12.343   6.504
 6174SOL    HW220297  11.716  12.476   6.481
 6175SOL     OW20298  10.726  11.373  10.178
 6175SOL    HW120299  10.778  11.294  10.164
 6175SOL    HW220300  10.751  11.402  10.267
 6176SOL     OW20301   4.191   9.516   4.485
 6176SOL    HW120302   4.155   9.510   4.397
 6176SOL    HW220303   4.142   9.586   4.527
 6177SOL     OW20304  14.439   0.838   3.082
 6177SOL    HW120305  14.489   0.884   3.014
 6177SOL    HW220306  14.401   0.908   3.134
 6178SOL     OW20307   5.449   4.728   8.871
 6178SOL    HW120308   5.472   4.665   8.939
 6178SOL    HW220309   5.361   4.703   8.843
 6179SOL     OW20310   5.428   4.330   0.212
 6179SOL    HW120311   5.353   4.307   0.267
 6179SOL    HW220312   5.496   4.267   0.239
 6180SOL     OW20313   9.371   5.786   7.100
 6180SOL    HW120314   9.375   5.691   7.097
 6180SOL    HW220315   9.460   5.814   7.121
 6181SOL     OW20316  14.392   6.926   6.314
 6181SOL    HW120317  14.404   6.996   6.378
 6181SOL    HW220318  14.375   6.848   6.367
 6182SOL     OW20319  10.977   5.637  14.072
 6182SOL    HW120320  11.038   5.632  14.146
 6182SOL    HW220321  10.890   5.630  14.111
 6183SOL     OW20322   2.742   5.423  13.243
 6183SOL    HW120323   2.717   5.513  13.221
 6183SOL    HW220324   2.838   5.424  13.238
 6184SOL     OW20325   0.983  11.711   5.692
 6184SOL    HW120326   1.052  11.733   5.755
 6184SOL    HW220327   1.012  11.753   5.610
 6185SOL     OW20328   3.811   4.450   9.534
 6185SOL    HW120329   3.860   4.453   9.616
 6185SOL    HW220330   3.731   4.500   9.553
 6186SOL     OW20331   5.662   1.576  14.041
 6186SOL    HW120332   5.659   1.629  14.121
 6186SOL    HW220333   5.726   1.620  13.985
 6187SOL     OW20334   1.958  12.570  14.462
 6187SOL    HW120335   2.025  12.559  14.395
 6187SOL    HW220336   1.931  12.481  14.485
 6188SOL     OW20337  11.345  12.666   6.524
 6188SOL    HW120338  11.265  12.714   6.507
 6188SOL    HW220339  11.351  12.602   6.453
 6189SOL     OW20340   9.776  10.023   9.388
 6189SOL    HW120341   9.726  10.104   9.376
 6189SOL    HW220342   9.716   9.953   9.361
 6190SOL     OW20343   6.783  12.061  14.249
 6190SOL    HW120344   6.787  12.042  14.343
 6190SOL    HW220345   6.810  12.152  14.242
 6191SOL     OW20346  12.002   6.873   3.178
 6191SOL    HW120347  11.998   6.885   3.083
 6191SOL    HW220348  11.911   6.876   3.207
 6192SOL     OW20349   9.817   2.279   9.561
 6192SOL    HW120350   9.824   2.263   9.655
 6192SOL    HW220351   9.786   2.196   9.524
 6193SOL     OW20352  13.192   4.817   2.314
 6193SOL    HW120353  13.286   4.831   2.311
 6193SOL    HW220354  13.179   4.732   2.271
 6194SOL     OW20355   6.570  11.068   9.317
 6194SOL    HW120356   6.631  11.002   9.282
 6194SOL    HW220357   6.489  11.020   9.332
 6195SOL     OW20358  13.358   8.925  10.213
 6195SOL    HW120359  13.404   8.998  10.171
 6195SOL    HW220360  13.332   8.959  10.298
 6196SOL     OW20361   5.167   9.625  11.713
 6196SOL    HW120362   5.140   9.682  11.785
 6196SOL    HW220363   5.262   9.616  11.723
 6197SOL     OW20364   5.234   5.756   8.191
 6197SOL    HW120365   5.273   5.729   8.274
 6197SOL    HW220366   5.228   5.675   8.140
 6198SOL     OW20367   9.264   0.680  12.924
 6198SOL    HW120368   9.174   0.710  12.938
 6198SOL    HW220369   9.254   0.597  12.876
 6199SOL     OW20370  11.367  10.279   5.319
 6199SOL    HW120371  11.343  10.296   5.410
 6199SOL    HW220372  11.391  10.187   5.317
 6200SOL     OW20373   6.811   9.905  11.606
 6200SOL    HW120374   6.747   9.890  11.676
 6200SOL    HW220375   6.785   9.845  11.536
 6201SOL     OW20376   6.637   1.878  14.711
 6201SOL    HW120377   6.700   1.847  14.646
 6201SOL    HW220378   6.674   1.960  14.742
 6202SOL     OW20379  12.686  13.040   5.065
 6202SOL    HW120380  12.767  13.046   5.013
 6202SOL    HW220381  12.641  12.964   5.029
 6203SOL     OW20382   3.406  10.840   6.236
 6203SOL    HW120383   3.403  10.745   6.229
 6203SOL    HW220384   3.408  10.858   6.330
 6204SOL     OW20385   9.521   3.614  11.813
 6204SOL    HW120386   9.503   3.643  11.724
 6204SOL    HW220387   9.435   3.613  11.856
 6205SOL     OW20388   3.136  14.825  11.310
 6205SOL    HW120389   3.041  14.830  11.320
 6205SOL    HW220390   3.164  14.759  11.373
 6206SOL     OW20391   7.106   5.191   9.225
 6206SOL    HW120392   7.118   5.283   9.201
 6206SOL    HW220393   7.012   5.180   9.233
 6207SOL     OW20394   6.356   8.470   9.852
 6207SOL    HW120395   6.281   8.447   9.907
 6207SOL    HW220396   6.432   8.432   9.897
 6208SOL     OW20397   9.153   1.846  13.711
 6208SOL    HW120398   9.082   1.810  13.657
 6208SOL    HW220399   9.203   1.769  13.738
 6209SOL     OW20400   3.818   7.432   2.805
 6209SOL    HW120401   3.853   7.445   2.717
 6209SOL    HW220402   3.802   7.338   2.812
 6210SOL     OW20403   3.081   1.245   4.873
 6210SOL    HW120404   3.102   1.285   4.789
 6210SOL    HW220405   3.166   1.217   4.907
 6211SOL     OW20406  10.321  11.689   9.941
 6211SOL    HW120407  10.365  11.605   9.934
 6211SOL    HW220408  10.367  11.735  10.011
 6212SOL     OW20409   1.604   8.302   1.926
 6212SOL    HW120410   1.543   8.376   1.931
 6212SOL    HW220411   1.664   8.325   1.855
 6213SOL     OW20412   3.453  14.273  11.965
 6213SOL    HW120413   3.475  14.364  11.986
 6213SOL    HW220414   3.400  14.243  12.040
 6214SOL     OW20415  12.297   2.165  11.027
 6214SOL    HW120416  12.354   2.097  10.991
 6214SOL    HW220417  12.210   2.126  11.025
 6215SOL     OW20418  11.603   0.187   0.212
 6215SOL    HW120419  11.530   0.249   0.216
 6215SOL    HW220420  11.679   0.237   0.239
 6216SOL     OW20421   8.992   0.406   1.004
 6216SOL    HW120422   9.066   0.351   0.977
 6216SOL    HW220423   9.026   0.460   1.075
 6217SOL     OW20424   0.051   3.173   5.511
 6217SOL    HW120425   0.094   3.096   5.547
 6217SOL    HW220426   0.003   3.211   5.585
 6218SOL     OW20427   4.754   8.598   5.750
 6218SOL    HW120428   4.827   8.602   5.688
 6218SOL    HW220429   4.701   8.675   5.731
 6219SOL     OW20430   1.259  12.925   0.581
 6219SOL    HW120431   1.297  12.873   0.652
 6219SOL    HW220432   1.194  12.867   0.541
 6220SOL     OW20433   0.246   2.325   7.975
 6220SOL    HW120434   0.159   2.365   7.977
 6220SOL    HW220435   0.240   2.251   8.036
 6221SOL     OW20436  12.027   2.683   6.421
 6221SOL    HW120437  12.013   2.772   6.390
 6221SOL    HW220438  12.118   2.682   6.450
 6222SOL     OW20439   1.671   4.797   8.025
 6222SOL    HW120440   1.678   4.715   7.977
 6222SOL    HW220441   1.606   4.779   8.093
 6223SOL     OW20442   5.382  12.491  11.973
 6223SOL    HW120443   5.441  12.431  11.927
 6223SOL    HW220444   5.434  12.571  11.984
 6224SOL     OW20445   5.514   0.546   2.228
 6224SOL    HW120446   5.453   0.618   2.243
 6224SOL    HW220447   5.518   0.500   2.312
 6225SOL     OW20448   8.255   6.220   9.219
 6225SOL    HW120449   8.216   6.133   9.226
 6225SOL    HW220450   8.185   6.276   9.185
 6226SOL     OW20451  12.994  11.490   1.461
 6226SOL    HW120452  12.979  11.395   1.463
 6226SOL    HW220453  12.907  11.528   1.444
 6227SOL     OW20454   0.518  12.483   6.395
 6227SOL    HW120455   0.536  12.392   6.416
 6227SOL    HW220456   0.424  12.485   6.376
 6228SOL     OW20457  13.107   5.161   4.525
 6228SOL    HW120458  13.164   5.103   4.575
 6228SOL    HW220459  13.130   5.249   4.555
 6229SOL     OW20460  14.242   5.259  13.219
 6229SOL    HW120461  14.199   5.243  13.303
 6229SOL    HW220462  14.184   5.218  13.154
 6230SOL     OW20463   2.340   5.823   4.043
 6230SOL    HW120464   2.387   5.773   4.111
 6230SOL    HW220465   2.251   5.832   4.077
 6231SOL     OW20466   5.830  11.246   8.293
 6231SOL    HW120467   5.854  11.319   8.236
 6231SOL    HW220468   5.883  11.172   8.262
 6232SOL     OW20469   4.252   1.761  14.044
 6232SOL    HW120470   4.240   1.690  13.980
 6232SOL    HW220471   4.291   1.718  14.120
 6233SOL     OW20472  11.191   0.449   8.311
 6233SOL    HW120473  11.189   0.401   8.394
 6233SOL    HW220474  11.276   0.428   8.273
 6234SOL     OW20475   8.277   1.311   6.989
 6234SOL    HW120476   8.213   1.329   6.920
 6234SOL    HW220477   8.277   1.390   7.043
 6235SOL     OW20478   5.437  13.056  10.078
 6235SOL    HW120479   5.480  13.141  10.076
 6235SOL    HW220480   5.349  13.074  10.110
 6236SOL     OW20481   7.911   6.824  13.853
 6236SOL    HW120482   7.828   6.787  13.882
 6236SOL    HW220483   7.933   6.775  13.773
 6237SOL     OW20484   2.408  10.154   2.796
 6237SOL    HW120485   2.493  10.180   2.761
 6237SOL    HW220486   2.377  10.086   2.737
 6238SOL     OW20487   7.079   1.692   5.117
 6238SOL    HW120488   7.172   1.711   5.111
 6238SOL    HW220489   7.057   1.710   5.209
 6239SOL     OW20490   7.333   7.950   2.165
 6239SOL    HW120491   7.386   8.014   2.212
 6239SOL    HW220492   7.364   7.954   2.075
 6240SOL     OW20493   1.982  14.405   2.511
 6240SOL    HW120494   1.955  14.488   2.474
 6240SOL    HW220495   2.064  14.383   2.467
 6241SOL     OW20496   1.667  11.078  12.336
 6241SOL    HW120497   1.673  11.061  12.430
 6241SOL    HW220498   1.750  11.047  12.301
 6242SOL     OW20499  14.061   4.988   0.311
 6242SOL    HW120500  14.017   4.996   0.226
 6242SOL    HW220501  14.127   5.058   0.310
 6243SOL     OW20502   3.574  14.079   4.404
 6243SOL    HW120503   3.594  14.146   4.470
 6243SOL    HW220504   3.589  14.123   4.320
 6244SOL     OW20505   7.479  10.235   7.541
 6244SOL    HW120506   7.481  10.269   7.451
 6244SOL    HW220507   7.394  10.262   7.575
 6245SOL     OW20508   1.786  12.988   8.838
 6245SOL    HW120509   1.807  12.944   8.756
 6245SOL    HW220510   1.746  12.920   8.893
 6246SOL     OW20511  13.322  12.451   4.382
 6246SOL    HW120512  13.331  12.362   4.417
 6246SOL    HW220513  13.395  12.460   4.322
 6247SOL     OW20514  11.885   6.760  11.437
 6247SOL    HW120515  11.838   6.696  11.383
 6247SOL    HW220516  11.817   6.821  11.465
 6248SOL     OW20517   9.324   8.367  14.790
 6248SOL    HW120518   9.243   8.323  14.766
 6248SOL    HW220519   9.320   8.376   0.004
 6249SOL     OW20520   7.108   4.558   7.043
 6249SOL    HW120521   7.146   4.484   7.090
 6249SOL    HW220522   7.029   4.580   7.093
 6250SOL     OW20523  14.482  12.602  11.476
 6250SOL    HW120524  14.389  12.623  11.484
 6250SOL    HW220525  14.485  12.520  11.427
 6251SOL     OW20526   0.979   0.021  10.905
 6251SOL    HW120527   0.971  14.881  10.812
 6251SOL    HW220528   1.039  14.837  10.940
 6252SOL     OW20529  13.198   3.325   2.440
 6252SOL    HW120530  13.293   3.320   2.442
 6252SOL    HW220531  13.179   3.419   2.449
 6253SOL     OW20532   0.144   5.169  14.276
 6253SOL    HW120533   0.238   5.158  14.293
 6253SOL    HW220534   0.131   5.264  14.273
 6254SOL     OW20535  12.385   9.165  14.002
 6254SOL    HW120536  12.296   9.199  13.994
 6254SOL    HW220537  12.413   9.193  14.089
 6255SOL     OW20538  12.275  13.606   6.447
 6255SOL    HW120539  12.260  13.624   6.354
 6255SOL    HW220540  12.216  13.667   6.492
 6256SOL     OW20541  11.473  12.913   9.625
 6256SOL    HW120542  11.504  12.981   9.564
 6256SOL    HW220543  11.492  12.831   9.581
 6257SOL     OW20544   8.434   8.030  10.254
 6257SOL    HW120545   8.520   8.027  10.213
 6257SOL    HW220546   8.430   8.116  10.295
 6258SOL     OW20547   2.273  12.208   8.615
 6258SOL    HW120548   2.237  12.141   8.674
 6258SOL    HW220549   2.316  12.158   8.546
 6259SOL     OW20550   4.518  10.448   7.951
 6259SOL    HW120551   4.473  10.528   7.979
 6259SOL    HW220552   4.537  10.463   7.858
 6260SOL     OW20553   5.173  12.791   9.668
 6260SOL    HW120554   5.154  12.725   9.601
 6260SOL    HW220555   5.103  12.856   9.657
 6261SOL     OW20556   2.620  10.933   1.772
 6261SOL    HW120557   2.647  10.842   1.785
 6261SOL    HW220558   2.529  10.928   1.744
 6262SOL     OW20559  11.684   1.510   7.304
 6262SOL    HW120560  11.676   1.471   7.391
 6262SOL    HW220561  11.671   1.604   7.319
 6263SOL     OW20562   0.897   6.621   2.935
 6263SOL    HW120563   0.986   6.627   2.971
 6263SOL    HW220564   0.861   6.542   2.975
 6264SOL     OW20565   0.345   1.520   5.753
 6264SOL    HW120566   0.401   1.554   5.824
 6264SOL    HW220567   0.406   1.481   5.691
 6265SOL     OW20568  13.724  10.207  11.436
 6265SOL    HW120569  13.766  10.226  11.520
 6265SOL    HW220570  13.756  10.120  11.412
 6266SOL     OW20571   7.526   9.037  10.003
 6266SOL    HW120572   7.615   9.005  10.018
 6266SOL    HW220573   7.482   9.026  10.087
 6267SOL     OW20574   7.481   9.861   6.713
 6267SOL    HW120575   7.494   9.954   6.698
 6267SOL    HW220576   7.439   9.829   6.633
 6268SOL     OW20577  12.385   9.161   0.654
 6268SOL    HW120578  12.389   9.226   0.584
 6268SOL    HW220579  12.476   9.135   0.670
 6269SOL     OW20580  11.668   8.601   5.328
 6269SOL    HW120581  11.594   8.658   5.345
 6269SOL    HW220582  11.645   8.553   5.249
 6270SOL     OW20583   0.548   6.359  14.265
 6270SOL    HW120584   0.529   6.441  14.221
 6270SOL    HW220585   0.588   6.304  14.198
 6271SOL     OW20586   7.599   1.486   2.624
 6271SOL    HW120587   7.530   1.424   2.647
 6271SOL    HW220588   7.620   1.466   2.533
 6272SOL     OW20589   4.759   5.406   0.997
 6272SOL    HW120590   4.829   5.360   0.951
 6272SOL    HW220591   4.699   5.337   1.026
 6273SOL     OW20592   8.140   6.997   0.723
 6273SOL    HW120593   8.150   6.920   0.779
 6273SOL    HW220594   8.052   7.030   0.745
 6274SOL     OW20595   7.090  10.094  11.194
 6274SOL    HW120596   7.002  10.131  11.189
 6274SOL    HW220597   7.077  10.003  11.222
 6275SOL     OW20598  13.104  12.847   5.670
 6275SOL    HW120599  13.038  12.899   5.625
 6275SOL    HW220600  13.173  12.833   5.605
 6276SOL     OW20601   0.502   5.880  11.174
 6276SOL    HW120602   0.529   5.789  11.161
 6276SOL    HW220603   0.552   5.929  11.110
 6277SOL     OW20604  12.845   3.626   7.712
 6277SOL    HW120605  12.770   3.648   7.656
 6277SOL    HW220606  12.807   3.580   7.786
 6278SOL     OW20607   9.916   4.642   0.603
 6278SOL    HW120608   9.992   4.584   0.590
 6278SOL    HW220609   9.931   4.714   0.542
 6279SOL     OW20610   5.450   0.434   0.952
 6279SOL    HW120611   5.391   0.507   0.970
 6279SOL    HW220612   5.412   0.391   0.876
 6280SOL     OW20613  10.041   8.206   5.790
 6280SOL    HW120614   9.952   8.238   5.774
 6280SOL    HW220615  10.086   8.219   5.707
 6281SOL     OW20616   2.641   7.773  10.114
 6281SOL    HW120617   2.557   7.788  10.159
 6281SOL    HW220618   2.629   7.689  10.069
 6282SOL     OW20619   0.751   2.484   4.597
 6282SOL    HW120620   0.724   2.561   4.646
 6282SOL    HW220621   0.763   2.516   4.507
 6283SOL     OW20622  14.129   8.842   9.650
 6283SOL    HW120623  14.081   8.812   9.728
 6283SOL    HW220624  14.114   8.774   9.585
 6284SOL     OW20625  12.415  12.328  11.325
 6284SOL    HW120626  12.345  12.265  11.306
 6284SOL    HW220627  12.478  12.278  11.378
 6285SOL     OW20628   4.788   1.710  12.758
 6285SOL    HW120629   4.871   1.669  12.782
 6285SOL    HW220630   4.812   1.794  12.719
 6286SOL     OW20631   7.553   2.815  11.963
 6286SOL    HW120632   7.494   2.842  12.034
 6286SOL    HW220633   7.539   2.882  11.895
 6287SOL     OW20634   9.071  12.192   2.269
 6287SOL    HW120635   9.089  12.101   2.244
 6287SOL    HW220636   8.984  12.209   2.233
 6288SOL     OW20637   4.385   6.602  13.961
 6288SOL    HW120638   4.422   6.690  13.953
 6288SOL    HW220639   4.296   6.611  13.926
 6289SOL     OW20640   0.426   5.710  10.615
 6289SOL    HW120641   0.398   5.676  10.530
 6289SOL    HW220642   0.345   5.719  10.665
 6290SOL     OW20643   0.150   0.516  11.531
 6290SOL    HW120644   0.189   0.568  11.461
 6290SOL    HW220645   0.161   0.425  11.502
 6291SOL     OW20646  13.831   6.452   2.825
 6291SOL    HW120647  13.763   6.457   2.758
 6291SOL    HW220648  13.872   6.367   2.810
 6292SOL     OW20649  11.152  12.873  11.523
 6292SOL    HW120650  11.180  12.784  11.547
 6292SOL    HW220651  11.100  12.861  11.444
 6293SOL     OW20652  12.238  12.781   2.212
 6293SOL    HW120653  12.154  12.735   2.217
 6293SOL    HW220654  12.303  12.714   2.234
 6294SOL     OW20655   4.337   2.680  11.230
 6294SOL    HW120656   4.317   2.587  11.228
 6294SOL    HW220657   4.258   2.721  11.265
 6295SOL     OW20658   1.831   7.857   7.188
 6295SOL    HW120659   1.790   7.773   7.208
 6295SOL    HW220660   1.798   7.881   7.102
 6296SOL     OW20661  13.886   9.435   2.156
 6296SOL    HW120662  13.890   9.508   2.094
 6296SOL    HW220663  13.843   9.365   2.107
 6297SOL     OW20664   5.480  14.489  13.970
 6297SOL    HW120665   5.574  14.505  13.970
 6297SOL    HW220666   5.464  14.437  14.049
 6298SOL     OW20667   4.590   8.114  13.059
 6298SOL    HW120668   4.542   8.164  13.125
 6298SOL    HW220669   4.548   8.136  12.976
 6299SOL     OW20670   0.966   7.499   2.545
 6299SOL    HW120671   1.043   7.542   2.581
 6299SOL    HW220672   0.902   7.500   2.617
 6300SOL     OW20673   4.317   2.582  14.726
 6300SOL    HW120674   4.375   2.612  14.796
 6300SOL    HW220675   4.374   2.536  14.665
 6301SOL     OW20676   7.110   1.608  13.085
 6301SOL    HW120677   7.201   1.580  13.089
 6301SOL    HW220678   7.108   1.693  13.129
 6302SOL     OW20679  10.453  12.571   7.610
 6302SOL    HW120680  10.396  12.627   7.558
 6302SOL    HW220681  10.426  12.585   7.700
 6303SOL     OW20682   2.107  10.321   2.702
 6303SOL    HW120683   2.043  10.309   2.772
 6303SOL    HW220684   2.128  10.414   2.704
 6304SOL     OW20685   5.261   1.230  14.838
 6304SOL    HW120686   5.338   1.179  14.863
 6304SOL    HW220687   5.230   1.189  14.758
 6305SOL     OW20688   7.915   4.025   4.657
 6305SOL    HW120689   7.988   4.085   4.675
 6305SOL    HW220690   7.955   3.938   4.660
 6306SOL     OW20691  11.279  11.357   8.528
 6306SOL    HW120692  11.218  11.337   8.599
 6306SOL    HW220693  11.268  11.451   8.512
 6307SOL     OW20694   4.851   2.031  11.514
 6307SOL    HW120695   4.806   1.969  11.457
 6307SOL    HW220696   4.785   2.056  11.579
 6308SOL     OW20697   2.002  13.487   0.567
 6308SOL    HW120698   1.976  13.421   0.631
 6308SOL    HW220699   2.068  13.444   0.513
 6309SOL     OW20700  10.923   9.695   2.208
 6309SOL    HW120701  10.951   9.681   2.298
 6309SOL    HW220702  10.907   9.789   2.202
 6310SOL     OW20703  12.179  13.557   6.786
 6310SOL    HW120704  12.256  13.560   6.728
 6310SOL    HW220705  12.179  13.642   6.829
 6311SOL     OW20706   4.391   6.419   8.950
 6311SOL    HW120707   4.402   6.487   9.016
 6311SOL    HW220708   4.330   6.456   8.886
 6312SOL     OW20709   0.300   3.135   6.368
 6312SOL    HW120710   0.283   3.045   6.395
 6312SOL    HW220711   0.271   3.188   6.442
 6313SOL     OW20712  14.178  14.175  10.063
 6313SOL    HW120713  14.082  14.176  10.056
 6313SOL    HW220714  14.208  14.234   9.993
 6314SOL     OW20715   4.863   3.605   6.714
 6314SOL    HW120716   4.940   3.549   6.726
 6314SOL    HW220717   4.807   3.584   6.790
 6315SOL     OW20718   3.269  11.017   1.031
 6315SOL    HW120719   3.218  10.938   1.049
 6315SOL    HW220720   3.335  11.019   1.100
 6316SOL     OW20721   6.229   7.839   6.088
 6316SOL    HW120722   6.213   7.910   6.150
 6316SOL    HW220723   6.169   7.769   6.116
 6317SOL     OW20724  13.570   3.702  11.939
 6317SOL    HW120725  13.513   3.735  12.009
 6317SOL    HW220726  13.511   3.655  11.880
 6318SOL     OW20727  14.549   1.105  12.538
 6318SOL    HW120728  14.568   1.014  12.514
 6318SOL    HW220729  14.473   1.099  12.595
 6319SOL     OW20730   8.726  12.616   0.689
 6319SOL    HW120731   8.681  12.698   0.676
 6319SOL    HW220732   8.800  12.619   0.629
 6320SOL     OW20733   9.740   3.002   3.217
 6320SOL    HW120734   9.673   3.068   3.202
 6320SOL    HW220735   9.819   3.052   3.237
 6321SOL     OW20736   1.379  12.129   8.290
 6321SOL    HW120737   1.363  12.199   8.354
 6321SOL    HW220738   1.426  12.062   8.340
 6322SOL     OW20739   4.237   5.265   1.650
 6322SOL    HW120740   4.323   5.302   1.672
 6322SOL    HW220741   4.176   5.336   1.664
 6323SOL     OW20742   0.819   6.725   2.696
 6323SOL    HW120743   0.853   6.692   2.779
 6323SOL    HW220744   0.810   6.647   2.642
 6324SOL     OW20745  11.158   9.344  13.739
 6324SOL    HW120746  11.109   9.275  13.694
 6324SOL    HW220747  11.114   9.425  13.714
 6325SOL     OW20748   0.320  13.660  14.019
 6325SOL    HW120749   0.228  13.675  13.998
 6325SOL    HW220750   0.318  13.614  14.103
 6326SOL     OW20751  13.020  11.613   7.700
 6326SOL    HW120752  13.036  11.622   7.794
 6326SOL    HW220753  13.100  11.648   7.659
 6327SOL     OW20754  11.939   5.274   2.505
 6327SOL    HW120755  11.872   5.306   2.445
 6327SOL    HW220756  11.907   5.298   2.592
 6328SOL     OW20757  10.792   1.220   4.502
 6328SOL    HW120758  10.726   1.236   4.434
 6328SOL    HW220759  10.870   1.267   4.472
 6329SOL     OW20760  14.139   8.221   0.716
 6329SOL    HW120761  14.203   8.254   0.652
 6329SOL    HW220762  14.145   8.281   0.790
 6330SOL     OW20763   2.656   4.399   7.665
 6330SOL    HW120764   2.677   4.305   7.672
 6330SOL    HW220765   2.600   4.416   7.741
 6331SOL     OW20766  11.925   8.857   7.025
 6331SOL    HW120767  11.942   8.768   7.058
 6331SOL    HW220768  11.978   8.914   7.082
 6332SOL     OW20769  12.537   4.566   1.378
 6332SOL    HW120770  12.529   4.635   1.313
 6332SOL    HW220771  12.452   4.522   1.377
 6333SOL     OW20772   2.122   7.368   8.710
 6333SOL    HW120773   2.133   7.459   8.737
 6333SOL    HW220774   2.089   7.373   8.620
 6334SOL     OW20775   9.928   9.448   6.805
 6334SOL    HW120776   9.853   9.388   6.809
 6334SOL    HW220777   9.991   9.404   6.748
 6335SOL     OW20778  11.588   6.100   5.891
 6335SOL    HW120779  11.517   6.065   5.946
 6335SOL    HW220780  11.629   6.022   5.853
 6336SOL     OW20781   1.762   2.663   2.099
 6336SOL    HW120782   1.676   2.673   2.060
 6336SOL    HW220783   1.782   2.749   2.136
 6337SOL     OW20784   2.262  12.053  14.571
 6337SOL    HW120785   2.173  12.071  14.541
 6337SOL    HW220786   2.251  12.019  14.659
 6338SOL     OW20787   8.603  12.875  14.208
 6338SOL    HW120788   8.528  12.933  14.224
 6338SOL    HW220789   8.567  12.805  14.152
 6339SOL     OW20790   2.435  12.425   2.857
 6339SOL    HW120791   2.389  12.440   2.775
 6339SOL    HW220792   2.517  12.472   2.848
 6340SOL     OW20793  10.916   2.821   0.133
 6340SOL    HW120794  10.889   2.741   0.089
 6340SOL    HW220795  10.864   2.823   0.214
 6341SOL     OW20796   0.086  10.549   4.230
 6341SOL    HW120797   0.001  10.590   4.242
 6341SOL    HW220798   0.112  10.573   4.140
 6342SOL     OW20799   9.693   2.553   8.579
 6342SOL    HW120800   9.769   2.511   8.618
 6342SOL    HW220801   9.704   2.539   8.485
 6343SOL     OW20802   8.344   3.356  13.367
 6343SOL    HW120803   8.322   3.297  13.439
 6343SOL    HW220804   8.377   3.435  13.410
 6344SOL     OW20805  13.524   5.890   2.696
 6344SOL    HW120806  13.617   5.913   2.690
 6344SOL    HW220807  13.519   5.803   2.656
 6345SOL     OW20808   4.940  11.552  13.246
 6345SOL    HW120809   4.925  11.483  13.181
 6345SOL    HW220810   4.949  11.505  13.329
 6346SOL     OW20811   0.351   0.508   0.889
 6346SOL    HW120812   0.377   0.600   0.897
 6346SOL    HW220813   0.413   0.460   0.944
 6347SOL     OW20814   8.793   3.410   3.732
 6347SOL    HW120815   8.720   3.469   3.713
 6347SOL    HW220816   8.825   3.438   3.817
 6348SOL     OW20817   0.025   4.194   5.396
 6348SOL    HW120818   0.017   4.166   5.304
 6348SOL    HW220819  14.823   4.168   5.435
 6349SOL     OW20820  11.236  12.980  12.374
 6349SOL    HW120821  11.163  13.034  12.402
 6349SOL    HW220822  11.195  12.904  12.332
 6350SOL     OW20823  12.675   3.730   0.996
 6350SOL    HW120824  12.622   3.698   1.069
 6350SOL    HW220825  12.630   3.809   0.966
 6351SOL     OW20826  12.193   9.929   4.025
 6351SOL    HW120827  12.225   9.983   4.098
 6351SOL    HW220828  12.243   9.959   3.949
 6352SOL     OW20829   6.347   6.002   5.739
 6352SOL    HW120830   6.338   5.962   5.826
 6352SOL    HW220831   6.351   6.096   5.756
 6353SOL     OW20832   8.931  14.617  11.081
 6353SOL    HW120833   9.008  14.623  11.024
 6353SOL    HW220834   8.961  14.648  11.166
 6354SOL     OW20835   2.331   9.126   8.539
 6354SOL    HW120836   2.390   9.054   8.516
 6354SOL    HW220837   2.290   9.098   8.621
 6355SOL     OW20838  10.968   2.411   8.088
 6355SOL    HW120839  10.947   2.418   7.994
 6355SOL    HW220840  11.029   2.484   8.103
 6356SOL     OW20841   8.268  12.444   9.567
 6356SOL    HW120842   8.353  12.450   9.610
 6356SOL    HW220843   8.263  12.353   9.538
 6357SOL     OW20844   4.015   5.963  11.077
 6357SOL    HW120845   3.991   5.937  10.988
 6357SOL    HW220846   3.935   6.001  11.113
 6358SOL     OW20847   1.175   9.365  10.186
 6358SOL    HW120848   1.243   9.427  10.213
 6358SOL    HW220849   1.216   9.279  10.195
 6359SOL     OW20850  12.303   5.217   9.772
 6359SOL    HW120851  12.291   5.164   9.851
 6359SOL    HW220852  12.242   5.291   9.783
 6360SOL     OW20853  11.551   0.546   6.358
 6360SOL    HW120854  11.575   0.615   6.420
 6360SOL    HW220855  11.616   0.553   6.287
 6361SOL     OW20856   2.916   6.775   4.635
 6361SOL    HW120857   2.975   6.745   4.566
 6361SOL    HW220858   2.854   6.832   4.589
 6362SOL     OW20859  10.526   8.985   0.658
 6362SOL    HW120860  10.478   8.922   0.604
 6362SOL    HW220861  10.613   8.989   0.619
 6363SOL     OW20862   7.554  10.839   3.238
 6363SOL    HW120863   7.549  10.912   3.177
 6363SOL    HW220864   7.580  10.764   3.183
 6364SOL     OW20865   7.039   7.600   4.615
 6364SOL    HW120866   7.102   7.529   4.630
 6364SOL    HW220867   7.067   7.640   4.533
 6365SOL     OW20868   1.269  13.078  11.734
 6365SOL    HW120869   1.319  13.157  11.714
 6365SOL    HW220870   1.230  13.095  11.819
 6366SOL     OW20871   1.678   9.238   4.274
 6366SOL    HW120872   1.654   9.258   4.184
 6366SOL    HW220873   1.667   9.321   4.321
 6367SOL     OW20874   9.481   3.598  14.568
 6367SOL    HW120875   9.440   3.682  14.548
 6367SOL    HW220876   9.407   3.537  14.576
 6368SOL     OW20877  11.810  13.528  11.799
 6368SOL    HW120878  11.898  13.565  11.798
 6368SOL    HW220879  11.795  13.499  11.709
 6369SOL     OW20880  13.038   9.495  10.990
 6369SOL    HW120881  12.961   9.449  10.957
 6369SOL    HW220882  13.092   9.509  10.913
 6370SOL     OW20883   7.173   1.240   4.861
 6370SOL    HW120884   7.180   1.174   4.930
 6370SOL    HW220885   7.133   1.316   4.904
 6371SOL     OW20886   2.470   8.222   2.215
 6371SOL    HW120887   2.557   8.193   2.241
 6371SOL    HW220888   2.449   8.169   2.137
 6372SOL     OW20889  11.560  10.892  14.693
 6372SOL    HW120890  11.641  10.942  14.697
 6372SOL    HW220891  11.522  10.914  14.607
 6373SOL     OW20892   4.165  12.016   0.319
 6373SOL    HW120893   4.183  12.020   0.413
 6373SOL    HW220894   4.230  12.074   0.280
 6374SOL     OW20895   6.646   7.065   8.864
 6374SOL    HW120896   6.565   7.036   8.906
 6374SOL    HW220897   6.701   6.986   8.862
 6375SOL     OW20898   5.506  12.982   1.232
 6375SOL    HW120899   5.548  12.898   1.212
 6375SOL    HW220900   5.526  12.997   1.325
 6376SOL     OW20901  14.243   1.725   9.032
 6376SOL    HW120902  14.181   1.711   9.104
 6376SOL    HW220903  14.301   1.649   9.035
 6377SOL     OW20904  12.329   6.369   6.523
 6377SOL    HW120905  12.345   6.462   6.506
 6377SOL    HW220906  12.336   6.360   6.618
 6378SOL     OW20907  12.346  11.421  14.494
 6378SOL    HW120908  12.431  11.378  14.495
 6378SOL    HW220909  12.310  11.405  14.581
 6379SOL     OW20910  14.140   5.132  13.774
 6379SOL    HW120911  14.135   5.099  13.864
 6379SOL    HW220912  14.055   5.173  13.758
 6380SOL     OW20913  10.172  12.487  12.455
 6380SOL    HW120914  10.118  12.548  12.505
 6380SOL    HW220915  10.110  12.429  12.411
 6381SOL     OW20916  12.038  10.120  13.806
 6381SOL    HW120917  12.009  10.029  13.797
 6381SOL    HW220918  12.129  10.114  13.832
 6382SOL     OW20919   5.170   5.423   9.978
 6382SOL    HW120920   5.183   5.402  10.070
 6382SOL    HW220921   5.089   5.474   9.976
 6383SOL     OW20922  14.778   6.750  13.625
 6383SOL    HW120923  14.711   6.686  13.647
 6383SOL    HW220924  14.789   6.802  13.705
 6384SOL     OW20925   7.069   5.749  12.113
 6384SOL    HW120926   7.150   5.707  12.084
 6384SOL    HW220927   7.063   5.728  12.206
 6385SOL     OW20928  14.031  14.439   4.812
 6385SOL    HW120929  14.102  14.477   4.863
 6385SOL    HW220930  14.058  14.349   4.794
 6386SOL     OW20931   1.400  11.528   7.058
 6386SOL    HW120932   1.371  11.474   7.131
 6386SOL    HW220933   1.431  11.609   7.099
 6387SOL     OW20934   0.192   7.995   7.775
 6387SOL    HW120935   0.257   7.972   7.708
 6387SOL    HW220936   0.155   8.077   7.743
 6388SOL     OW20937  11.385   6.598   3.332
 6388SOL    HW120938  11.397   6.504   3.318
 6388SOL    HW220939  11.324   6.604   3.405
 6389SOL     OW20940   8.119   2.621   6.824
 6389SOL    HW120941   8.150   2.531   6.826
 6389SOL    HW220942   8.195   2.672   6.795
 6390SOL     OW20943  13.373  10.594   5.043
 6390SOL    HW120944  13.381  10.661   5.111
 6390SOL    HW220945  13.386  10.511   5.089
 6391SOL     OW20946  10.159  12.011   9.840
 6391SOL    HW120947  10.083  12.051   9.882
 6391SOL    HW220948  10.221  12.082   9.830
 6392SOL     OW20949   0.632  13.644   8.653
 6392SOL    HW120950   0.630  13.668   8.746
 6392SOL    HW220951   0.576  13.710   8.611
 6393SOL     OW20952   6.203  14.507  13.225
 6393SOL    HW120953   6.298  14.496  13.232
 6393SOL    HW220954   6.191  14.564  13.149
 6394SOL     OW20955   2.099   0.123  12.797
 6394SOL    HW120956   2.163   0.133  12.726
 6394SOL    HW220957   2.139   0.167  12.872
 6395SOL     OW20958   7.415   6.917  14.309
 6395SOL    HW120959   7.385   7.008  14.306
 6395SOL    HW220960   7.511   6.924  14.307
 6396SOL     OW20961   3.753  11.321   7.406
 6396SOL    HW120962   3.669  11.284   7.381
 6396SOL    HW220963   3.736  11.364   7.490
 6397SOL     OW20964   7.715   3.804   9.845
 6397SOL    HW120965   7.688   3.721   9.884
 6397SOL    HW220966   7.775   3.779   9.774
 6398SOL     OW20967  12.638   5.874   2.718
 6398SOL    HW120968  12.664   5.805   2.656
 6398SOL    HW220969  12.710   5.936   2.716
 6399SOL     OW20970   4.138  11.132  10.680
 6399SOL    HW120971   4.087  11.139  10.761
 6399SOL    HW220972   4.208  11.196  10.691
 6400SOL     OW20973  13.021   4.714   6.729
 6400SOL    HW120974  13.005   4.808   6.733
 6400SOL    HW220975  12.956   4.682   6.667
 6401SOL     OW20976   9.971   1.434   1.028
 6401SOL    HW120977  10.035   1.377   1.071
 6401SOL    HW220978   9.887   1.392   1.045
 6402SOL     OW20979   4.096   3.504  14.679
 6402SOL    HW120980   4.016   3.551  14.656
 6402SOL    HW220981   4.165   3.570  14.673
 6403SOL     OW20982   2.934   0.489   7.284
 6403SOL    HW120983   2.976   0.461   7.203
 6403SOL    HW220984   2.888   0.412   7.316
 6404SOL     OW20985   3.987   6.857   5.914
 6404SOL    HW120986   3.928   6.919   5.955
 6404SOL    HW220987   4.050   6.834   5.982
 6405SOL     OW20988  12.530  13.670   1.094
 6405SOL    HW120989  12.495  13.645   1.179
 6405SOL    HW220990  12.454  13.689   1.040
 6406SOL     OW20991   5.885   7.311  14.577
 6406SOL    HW120992   5.810   7.300  14.635
 6406SOL    HW220993   5.878   7.401  14.545
 6407SOL     OW20994   0.440   9.835   5.690
 6407SOL    HW120995   0.516   9.814   5.745
 6407SOL    HW220996   0.366   9.793   5.735
 6408SOL     OW20997  13.050   2.180   9.344
 6408SOL    HW120998  13.134   2.142   9.370
 6408SOL    HW220999  12.993   2.104   9.329
 6409SOL     OW21000   9.673  12.520   6.846
 6409SOL    HW121001   9.680  12.576   6.923
 6409SOL    HW221002   9.711  12.572   6.775
 6410SOL     OW21003   7.558   1.438  13.588
 6410SOL    HW121004   7.544   1.344  13.574
 6410SOL    HW221005   7.625   1.442  13.656
 6411SOL     OW21006   7.104  14.625   8.226
 6411SOL    HW121007   7.011  14.649   8.223
 6411SOL    HW221008   7.104  14.530   8.212
 6412SOL     OW21009   7.562   3.089   9.963
 6412SOL    HW121010   7.511   3.146  10.020
 6412SOL    HW221011   7.599   3.147   9.897
 6413SOL     OW21012   5.168   3.892   1.787
 6413SOL    HW121013   5.153   3.921   1.877
 6413SOL    HW221014   5.204   3.804   1.795
 6414SOL     OW21015   1.224   3.519  13.579
 6414SOL    HW121016   1.304   3.563  13.607
 6414SOL    HW221017   1.247   3.477  13.496
 6415SOL     OW21018  13.766   5.570   8.634
 6415SOL    HW121019  13.740   5.531   8.551
 6415SOL    HW221020  13.683   5.587   8.680
 6416SOL     OW21021   9.561   3.643  12.339
 6416SOL    HW121022   9.503   3.697  12.393
 6416SOL    HW221023   9.535   3.553  12.360
 6417SOL     OW21024  10.145   3.019  13.543
 6417SOL    HW121025  10.184   3.001  13.628
 6417SOL    HW221026  10.213   3.064  13.493
 6418SOL     OW21027   8.186   3.592   4.809
 6418SOL    HW121028   8.209   3.517   4.755
 6418SOL    HW221029   8.120   3.560   4.869
 6419SOL     OW21030   9.270   4.690   1.583
 6419SOL    HW121031   9.247   4.698   1.675
 6419SOL    HW221032   9.202   4.633   1.546
 6420SOL     OW21033  11.106  13.429   9.523
 6420SOL    HW121034  11.096  13.519   9.492
 6420SOL    HW221035  11.106  13.376   9.443
 6421SOL     OW21036  14.093   5.421   2.181
 6421SOL    HW121037  14.129   5.351   2.236
 6421SOL    HW221038  14.167   5.481   2.167
 6422SOL     OW21039   3.380  10.652   2.530
 6422SOL    HW121040   3.415  10.564   2.521
 6422SOL    HW221041   3.344  10.673   2.444
 6423SOL     OW21042  11.390   5.246  11.980
 6423SOL    HW121043  11.309   5.208  11.948
 6423SOL    HW221044  11.422   5.300  11.908
 6424SOL     OW21045   3.024   9.741  12.639
 6424SOL    HW121046   3.042   9.831  12.613
 6424SOL    HW221047   3.078   9.727  12.716
 6425SOL     OW21048  14.181   4.977   5.552
 6425SOL    HW121049  14.130   4.906   5.514
 6425SOL    HW221050  14.201   5.035   5.478
 6426SOL     OW21051   1.287  13.521   8.675
 6426SOL    HW121052   1.241  13.502   8.594
 6426SOL    HW221053   1.379  13.527   8.649
 6427SOL     OW21054  10.306   3.438   8.613
 6427SOL    HW121055  10.296   3.487   8.694
 6427SOL    HW221056  10.220   3.441   8.572
 6428SOL     OW21057   1.038   8.688   5.760
 6428SOL    HW121058   1.022   8.779   5.786
 6428SOL    HW221059   1.128   8.670   5.789
 6429SOL     OW21060   7.881  12.383   0.620
 6429SOL    HW121061   7.880  12.448   0.550
 6429SOL    HW221062   7.962  12.334   0.606
 6430SOL     OW21063   6.344   6.257  11.193
 6430SOL    HW121064   6.323   6.164  11.205
 6430SOL    HW221065   6.259   6.299  11.183
 6431SOL     OW21066   0.351   9.521  12.991
 6431SOL    HW121067   0.336   9.608  13.029
 6431SOL    HW221068   0.341   9.461  13.065
 6432SOL     OW21069  12.423  12.474   6.088
 6432SOL    HW121070  12.358  12.404   6.095
 6432SOL    HW221071  12.419  12.520   6.172
 6433SOL     OW21072   6.781   7.920  14.790
 6433SOL    HW121073   6.839   7.983  14.833
 6433SOL    HW221074   6.781   7.947  14.698
 6434SOL     OW21075   9.294   0.491  11.889
 6434SOL    HW121076   9.298   0.545  11.968
 6434SOL    HW221077   9.377   0.507  11.845
 6435SOL     OW21078   1.050  11.242   9.897
 6435SOL    HW121079   0.956  11.247   9.883
 6435SOL    HW221080   1.083  11.328   9.872
 6436SOL     OW21081  13.250   8.757  14.148
 6436SOL    HW121082  13.223   8.816  14.079
 6436SOL    HW221083  13.191   8.775  14.221
 6437SOL     OW21084   7.744   7.114   4.512
 6437SOL    HW121085   7.738   7.185   4.576
 6437SOL    HW221086   7.750   7.035   4.565
 6438SOL     OW21087  10.294   8.130   6.924
 6438SOL    HW121088  10.244   8.054   6.895
 6438SOL    HW221089  10.386   8.105   6.908
 6439SOL     OW21090  14.282   0.604   1.965
 6439SOL    HW121091  14.236   0.597   1.881
 6439SOL    HW221092  14.374   0.587   1.943
 6440SOL     OW21093   6.963  10.751   9.378
 6440SOL    HW121094   6.947  10.713   9.465
 6440SOL    HW221095   7.051  10.787   9.384
 6441SOL     OW21096   2.229   6.620  11.116
 6441SOL    HW121097   2.205   6.531  11.089
 6441SOL    HW221098   2.157   6.675  11.083
 6442SOL     OW21099  13.695   9.246   9.630
 6442SOL    HW121100  13.618   9.274   9.580
 6442SOL    HW221101  13.672   9.159   9.662
 6443SOL     OW21102   4.499  10.948   8.015
 6443SOL    HW121103   4.436  10.988   7.955
 6443SOL    HW221104   4.533  10.872   7.968
 6444SOL     OW21105  12.874   3.907   3.130
 6444SOL    HW121106  12.880   3.937   3.221
 6444SOL    HW221107  12.821   3.974   3.086
 6445SOL     OW21108   8.467   1.112   0.287
 6445SOL    HW121109   8.508   1.028   0.266
 6445SOL    HW221110   8.477   1.164   0.207
 6446SOL     OW21111  12.219  14.640   5.381
 6446SOL    HW121112  12.130  14.669   5.363
 6446SOL    HW221113  12.274  14.713   5.353
 6447SOL     OW21114  14.327   4.826   4.516
 6447SOL    HW121115  14.276   4.761   4.468
 6447SOL    HW221116  14.272   4.904   4.516
 6448SOL     OW21117   2.112  13.623  11.706
 6448SOL    HW121118   2.167  13.544  11.704
 6448SOL    HW221119   2.068  13.624  11.621
 6449SOL     OW21120   0.782   4.087   0.437
 6449SOL    HW121121   0.848   4.028   0.400
 6449SOL    HW221122   0.824   4.126   0.513
 6450SOL     OW21123   7.268   6.549   6.319
 6450SOL    HW121124   7.260   6.538   6.414
 6450SOL    HW221125   7.235   6.467   6.283
 6451SOL     OW21126   5.758   6.258  10.983
 6451SOL    HW121127   5.712   6.207  11.049
 6451SOL    HW221128   5.770   6.344  11.023
 6452SOL     OW21129   1.374   9.620   7.428
 6452SOL    HW121130   1.428   9.542   7.411
 6452SOL    HW221131   1.291   9.585   7.461
 6453SOL     OW21132  13.737   9.501   4.612
 6453SOL    HW121133  13.699   9.587   4.593
 6453SOL    HW221134  13.692   9.442   4.551
 6454SOL     OW21135  13.730   0.638   2.222
 6454SOL    HW121136  13.643   0.644   2.184
 6454SOL    HW221137  13.780   0.583   2.161
 6455SOL     OW21138  12.666  13.453   3.645
 6455SOL    HW121139  12.716  13.455   3.727
 6455SOL    HW221140  12.630  13.365   3.641
 6456SOL     OW21141   7.973   6.870   1.960
 6456SOL    HW121142   8.067   6.889   1.965
 6456SOL    HW221143   7.968   6.774   1.961
 6457SOL     OW21144  13.486   5.079   1.762
 6457SOL    HW121145  13.536   5.155   1.794
 6457SOL    HW221146  13.544   5.038   1.698
 6458SOL     OW21147   7.409   2.740   1.339
 6458SOL    HW121148   7.328   2.690   1.332
 6458SOL    HW221149   7.478   2.675   1.332
 6459SOL     OW21150  10.550  12.047  10.372
 6459SOL    HW121151  10.541  11.981  10.303
 6459SOL    HW221152  10.618  12.106  10.339
 6460SOL     OW21153   4.673   4.222   9.947
 6460SOL    HW121154   4.742   4.288   9.945
 6460SOL    HW221155   4.642   4.216   9.857
 6461SOL     OW21156   6.073  13.266   2.804
 6461SOL    HW121157   6.120  13.336   2.848
 6461SOL    HW221158   6.015  13.230   2.871
 6462SOL     OW21159   7.643  11.449  11.334
 6462SOL    HW121160   7.727  11.436  11.291
 6462SOL    HW221161   7.639  11.379  11.400
 6463SOL     OW21162   3.050   9.776   9.763
 6463SOL    HW121163   3.075   9.686   9.742
 6463SOL    HW221164   3.120   9.808   9.819
 6464SOL     OW21165  11.425  13.704   2.448
 6464SOL    HW121166  11.390  13.788   2.417
 6464SOL    HW221167  11.389  13.639   2.388
 6465SOL     OW21168   6.662   7.705   8.436
 6465SOL    HW121169   6.752   7.717   8.466
 6465SOL    HW221170   6.620   7.652   8.504
 6466SOL     OW21171  10.433   8.404  12.392
 6466SOL    HW121172  10.451   8.492  12.359
 6466SOL    HW221173  10.491   8.347  12.342
 6467SOL     OW21174   0.721   6.991  11.648
 6467SOL    HW121175   0.756   7.045  11.577
 6467SOL    HW221176   0.692   6.911  11.604
 6468SOL     OW21177  14.231  14.701  10.442
 6468SOL    HW121178  14.177  14.633  10.483
 6468SOL    HW221179  14.304  14.714  10.503
 6469SOL     OW21180  13.452   0.765  11.897
 6469SOL    HW121181  13.422   0.798  11.812
 6469SOL    HW221182  13.541   0.799  11.907
 6470SOL     OW21183  11.937   6.549   5.457
 6470SOL    HW121184  12.011   6.514   5.507
 6470SOL    HW221185  11.860   6.506   5.494
 6471SOL     OW21186  13.874  12.568   7.186
 6471SOL    HW121187  13.936  12.507   7.226
 6471SOL    HW221188  13.925  12.611   7.116
 6472SOL     OW21189  11.591  12.810   2.314
 6472SOL    HW121190  11.506  12.779   2.282
 6472SOL    HW221191  11.595  12.781   2.405
 6473SOL     OW21192  11.976   9.095  13.488
 6473SOL    HW121193  11.917   9.159  13.528
 6473SOL    HW221194  12.062   9.138  13.489
 6474SOL     OW21195  14.662  13.568   1.599
 6474SOL    HW121196  14.689  13.660   1.609
 6474SOL    HW221197  14.649  13.557   1.505
 6475SOL     OW21198  14.755   7.657   8.318
 6475SOL    HW121199  14.788   7.590   8.258
 6475SOL    HW221200  14.701   7.714   8.264
 6476SOL     OW21201  14.632  10.863   9.277
 6476SOL    HW121202  14.717  10.825   9.254
 6476SOL    HW221203  14.593  10.885   9.193
 6477SOL     OW21204  11.899   4.515   9.630
 6477SOL    HW121205  11.813   4.483   9.659
 6477SOL    HW221206  11.880   4.595   9.581
 6478SOL     OW21207   9.059  13.116   4.149
 6478SOL    HW121208   9.017  13.098   4.233
 6478SOL    HW221209   9.125  13.183   4.169
 6479SOL     OW21210  14.400  13.001  11.332
 6479SOL    HW121211  14.457  12.927  11.309
 6479SOL    HW221212  14.364  12.977  11.417
 6480SOL     OW21213   1.021   1.465   1.763
 6480SOL    HW121214   1.025   1.382   1.717
 6480SOL    HW221215   0.928   1.477   1.783
 6481SOL     OW21216   4.762   0.201   2.529
 6481SOL    HW121217   4.800   0.263   2.591
 6481SOL    HW221218   4.689   0.248   2.490
 6482SOL     OW21219   7.001   6.295  10.980
 6482SOL    HW121220   7.076   6.319  10.924
 6482SOL    HW221221   6.925   6.301  10.922
 6483SOL     OW21222   2.683   1.989   8.213
 6483SOL    HW121223   2.768   1.975   8.255
 6483SOL    HW221224   2.704   2.026   8.127
 6484SOL     OW21225   5.116   0.365  11.332
 6484SOL    HW121226   5.154   0.288  11.291
 6484SOL    HW221227   5.059   0.330  11.401
 6485SOL     OW21228  13.354   9.559   7.045
 6485SOL    HW121229  13.327   9.584   6.956
 6485SOL    HW221230  13.441   9.522   7.034
 6486SOL     OW21231  14.636  13.083   0.936
 6486SOL    HW121232  14.667  13.100   0.847
 6486SOL    HW221233  14.701  13.125   0.992
 6487SOL     OW21234  13.029   5.044  14.865
 6487SOL    HW121235  13.089   5.103  14.820
 6487SOL    HW221236  13.063   5.040   0.073
 6488SOL     OW21237   2.229   0.639   7.604
 6488SOL    HW121238   2.293   0.683   7.547
 6488SOL    HW221239   2.159   0.612   7.545
 6489SOL     OW21240   9.919  11.023   7.795
 6489SOL    HW121241   9.906  11.049   7.886
 6489SOL    HW221242   9.920  11.106   7.747
 6490SOL     OW21243   7.248  10.259  11.641
 6490SOL    HW121244   7.307  10.333  11.656
 6490SOL    HW221245   7.225  10.228  11.729
 6491SOL     OW21246   5.218  13.948   7.024
 6491SOL    HW121247   5.256  14.021   7.074
 6491SOL    HW221248   5.161  13.903   7.086
 6492SOL     OW21249  12.021   9.973   2.052
 6492SOL    HW121250  12.085   9.903   2.064
 6492SOL    HW221251  11.940   9.928   2.031
 6493SOL     OW21252   9.892  11.185   0.725
 6493SOL    HW121253   9.823  11.129   0.691
 6493SOL    HW221254   9.899  11.161   0.818
 6494SOL     OW21255   9.414  13.370  12.851
 6494SOL    HW121256   9.448  13.451  12.887
 6494SOL    HW221257   9.319  13.383  12.847
 6495SOL     OW21258   6.200   9.683  10.153
 6495SOL    HW121259   6.203   9.779  10.145
 6495SOL    HW221260   6.263   9.663  10.222
 6496SOL     OW21261   2.544  11.645   9.485
 6496SOL    HW121262   2.609  11.713   9.501
 6496SOL    HW221263   2.470  11.692   9.446
 6497SOL     OW21264   8.826   6.576   3.107
 6497SOL    HW121265   8.882   6.503   3.082
 6497SOL    HW221266   8.812   6.625   3.026
 6498SOL     OW21267   0.377  11.503   0.131
 6498SOL    HW121268   0.427  11.422   0.123
 6498SOL    HW221269   0.431  11.559   0.187
 6499SOL     OW21270   0.534  12.557  11.643
 6499SOL    HW121271   0.520  12.572  11.549
 6499SOL    HW221272   0.529  12.644  11.682
 6500SOL     OW21273   3.480   4.316   5.086
 6500SOL    HW121274   3.517   4.298   5.173
 6500SOL    HW221275   3.501   4.238   5.035
 6501SOL     OW21276   5.593  12.213  12.480
 6501SOL    HW121277   5.498  12.219  12.483
 6501SOL    HW221278   5.611  12.137  12.425
 6502SOL     OW21279   5.295   0.358   7.469
 6502SOL    HW121280   5.310   0.264   7.461
 6502SOL    HW221281   5.288   0.373   7.564
 6503SOL     OW21282   1.031   1.681   5.853
 6503SOL    HW121283   1.029   1.749   5.921
 6503SOL    HW221284   1.024   1.599   5.901
 6504SOL     OW21285   3.778   4.794  12.543
 6504SOL    HW121286   3.833   4.781  12.465
 6504SOL    HW221287   3.802   4.881  12.575
 6505SOL     OW21288   9.590   0.161   6.116
 6505SOL    HW121289   9.519   0.224   6.124
 6505SOL    HW221290   9.573   0.096   6.184
 6506SOL     OW21291  14.569   7.133   8.058
 6506SOL    HW121292  14.535   7.056   8.104
 6506SOL    HW221293  14.645   7.159   8.110
 6507SOL     OW21294   5.478   2.056   6.584
 6507SOL    HW121295   5.466   2.142   6.624
 6507SOL    HW221296   5.531   2.007   6.648
 6508SOL     OW21297   2.361   0.145   4.056
 6508SOL    HW121298   2.428   0.187   4.110
 6508SOL    HW221299   2.408   0.120   3.976
 6509SOL     OW21300  10.922   0.751  14.687
 6509SOL    HW121301  10.917   0.657  14.705
 6509SOL    HW221302  10.962   0.757  14.600
 6510SOL     OW21303   1.360  12.740   3.974
 6510SOL    HW121304   1.398  12.728   3.887
 6510SOL    HW221305   1.406  12.676   4.029
 6511SOL     OW21306  10.151   9.651   1.029
 6511SOL    HW121307  10.081   9.670   0.966
 6511SOL    HW221308  10.108   9.604   1.100
 6512SOL     OW21309   7.144  11.027   1.451
 6512SOL    HW121310   7.075  11.013   1.385
 6512SOL    HW221311   7.222  11.048   1.400
 6513SOL     OW21312   2.089   7.720   2.308
 6513SOL    HW121313   2.143   7.701   2.385
 6513SOL    HW221314   2.093   7.815   2.299
 6514SOL     OW21315   3.652   7.525   1.494
 6514SOL    HW121316   3.736   7.521   1.448
 6514SOL    HW221317   3.674   7.510   1.586
 6515SOL     OW21318   5.399   8.615   3.636
 6515SOL    HW121319   5.327   8.560   3.665
 6515SOL    HW221320   5.361   8.703   3.629
 6516SOL     OW21321  14.072   4.375  11.818
 6516SOL    HW121322  13.988   4.384  11.772
 6516SOL    HW221323  14.101   4.464  11.833
 6517SOL     OW21324   9.922  14.711   6.496
 6517SOL    HW121325   9.940  14.636   6.552
 6517SOL    HW221326   9.840  14.688   6.451
 6518SOL     OW21327   0.939   9.293   1.117
 6518SOL    HW121328   0.983   9.252   1.042
 6518SOL    HW221329   0.851   9.257   1.116
 6519SOL     OW21330   5.670  10.492   4.295
 6519SOL    HW121331   5.649  10.581   4.269
 6519SOL    HW221332   5.743  10.500   4.355
 6520SOL     OW21333   3.305  14.578   7.362
 6520SOL    HW121334   3.289  14.663   7.403
 6520SOL    HW221335   3.391  14.586   7.321
 6521SOL     OW21336   3.237   0.810   7.939
 6521SOL    HW121337   3.230   0.721   7.904
 6521SOL    HW221338   3.276   0.860   7.868
 6522SOL     OW21339  13.592   3.075  11.566
 6522SOL    HW121340  13.584   2.991  11.521
 6522SOL    HW221341  13.669   3.116  11.527
 6523SOL     OW21342  14.273   6.494  10.785
 6523SOL    HW121343  14.294   6.583  10.811
 6523SOL    HW221344  14.356   6.456  10.757
 6524SOL     OW21345   4.069   9.044  11.294
 6524SOL    HW121346   4.159   9.011  11.295
 6524SOL    HW221347   4.066   9.108  11.366
 6525SOL     OW21348   8.190   5.219   4.945
 6525SOL    HW121349   8.164   5.310   4.933
 6525SOL    HW221350   8.116   5.179   4.990
 6526SOL     OW21351  11.703   5.015   7.496
 6526SOL    HW121352  11.751   5.076   7.552
 6526SOL    HW221353  11.612   5.025   7.521
 6527SOL     OW21354  13.965   4.094   8.927
 6527SOL    HW121355  13.905   4.031   8.967
 6527SOL    HW221356  13.982   4.159   8.996
 6528SOL     OW21357   1.366   1.893  10.248
 6528SOL    HW121358   1.378   1.964  10.185
 6528SOL    HW221359   1.281   1.911  10.289
 6529SOL     OW21360  11.819   0.020   5.833
 6529SOL    HW121361  11.766   0.075   5.889
 6529SOL    HW221362  11.864  14.842   5.893
 6530SOL     OW21363   5.485   4.470   6.563
 6530SOL    HW121364   5.429   4.536   6.603
 6530SOL    HW221365   5.488   4.494   6.470
 6531SOL     OW21366   1.560  11.764   7.087
 6531SOL    HW121367   1.524  11.801   7.168
 6531SOL    HW221368   1.585  11.841   7.036
 6532SOL     OW21369  10.103  13.315  12.568
 6532SOL    HW121370  10.033  13.258  12.535
 6532SOL    HW221371  10.057  13.376  12.626
 6533SOL     OW21372  12.977   8.331   4.376
 6533SOL    HW121373  13.058   8.295   4.413
 6533SOL    HW221374  12.933   8.371   4.451
 6534SOL     OW21375   2.998  10.090   8.129
 6534SOL    HW121376   3.087  10.113   8.102
 6534SOL    HW221377   2.992  10.116   8.221
 6535SOL     OW21378  10.347  10.070   4.194
 6535SOL    HW121379  10.271  10.019   4.221
 6535SOL    HW221380  10.355  10.139   4.260
 6536SOL     OW21381  12.942   8.696   3.125
 6536SOL    HW121382  12.853   8.728   3.114
 6536SOL    HW221383  12.935   8.601   3.113
 6537SOL     OW21384   3.689   9.993   8.465
 6537SOL    HW121385   3.719  10.055   8.398
 6537SOL    HW221386   3.724  10.028   8.547
 6538SOL     OW21387   9.103   5.222   1.230
 6538SOL    HW121388   9.106   5.156   1.161
 6538SOL    HW221389   9.195   5.243   1.247
 6539SOL     OW21390   4.976  11.596   2.146
 6539SOL    HW121391   4.972  11.509   2.185
 6539SOL    HW221392   4.907  11.596   2.080
 6540SOL     OW21393  13.087  14.387   8.687
 6540SOL    HW121394  13.176  14.370   8.718
 6540SOL    HW221395  13.064  14.310   8.635
 6541SOL     OW21396  11.715   3.184   8.390
 6541SOL    HW121397  11.756   3.259   8.348
 6541SOL    HW221398  11.655   3.149   8.325
 6542SOL     OW21399   8.141  11.356  11.848
 6542SOL    HW121400   8.051  11.365  11.879
 6542SOL    HW221401   8.189  11.322  11.923
 6543SOL     OW21402   8.728   9.278   2.771
 6543SOL    HW121403   8.725   9.316   2.683
 6543SOL    HW221404   8.639   9.289   2.805
 6544SOL     OW21405   2.896   0.266   6.842
 6544SOL    HW121406   2.809   0.278   6.803
 6544SOL    HW221407   2.933   0.191   6.795
 6545SOL     OW21408   0.865  10.602   3.865
 6545SOL    HW121409   0.863  10.636   3.776
 6545SOL    HW221410   0.845  10.677   3.920
 6546SOL     OW21411  12.760   5.163  13.938
 6546SOL    HW121412  12.701   5.150  14.012
 6546SOL    HW221413  12.846   5.181  13.977
 6547SOL     OW21414   9.758   3.487   7.216
 6547SOL    HW121415   9.811   3.413   7.247
 6547SOL    HW221416   9.673   3.474   7.257
 6548SOL     OW21417   4.446   7.981   5.969
 6548SOL    HW121418   4.385   7.985   6.042
 6548SOL    HW221419   4.510   8.049   5.987
 6549SOL     OW21420  14.330  11.963   9.161
 6549SOL    HW121421  14.261  11.935   9.221
 6549SOL    HW221422  14.345  12.055   9.182
 6550SOL     OW21423   3.176   9.209   5.385
 6550SOL    HW121424   3.159   9.174   5.473
 6550SOL    HW221425   3.094   9.251   5.360
 6551SOL     OW21426   8.015   8.236  14.387
 6551SOL    HW121427   7.951   8.210  14.453
 6551SOL    HW221428   8.075   8.161  14.380
 6552SOL     OW21429  12.871   2.113   9.822
 6552SOL    HW121430  12.949   2.161   9.794
 6552SOL    HW221431  12.894   2.078   9.908
 6553SOL     OW21432  14.644   7.757   6.014
 6553SOL    HW121433  14.577   7.690   5.999
 6553SOL    HW221434  14.647   7.767   6.109
 6554SOL     OW21435   3.765  13.539   3.933
 6554SOL    HW121436   3.801  13.483   3.864
 6554SOL    HW221437   3.673  13.547   3.911
 6555SOL     OW21438   2.397   8.783  13.415
 6555SOL    HW121439   2.351   8.826  13.487
 6555SOL    HW221440   2.444   8.711  13.457
 6556SOL     OW21441   9.073   0.695   8.291
 6556SOL    HW121442   9.121   0.614   8.273
 6556SOL    HW221443   9.126   0.764   8.249
 6557SOL     OW21444   6.856   5.427  13.487
 6557SOL    HW121445   6.945   5.459  13.498
 6557SOL    HW221446   6.852   5.395  13.397
 6558SOL     OW21447  13.108   5.075   1.015
 6558SOL    HW121448  13.170   5.067   0.942
 6558SOL    HW221449  13.023   5.084   0.973
 6559SOL     OW21450   7.816   3.923   7.986
 6559SOL    HW121451   7.777   3.836   7.992
 6559SOL    HW221452   7.766   3.966   7.917
 6560SOL     OW21453   6.176   6.097  12.999
 6560SOL    HW121454   6.234   6.150  13.053
 6560SOL    HW221455   6.236   6.044  12.946
 6561SOL     OW21456   8.328  10.018  12.299
 6561SOL    HW121457   8.393  10.006  12.367
 6561SOL    HW221458   8.378  10.017  12.217
 6562SOL     OW21459   2.640   9.979   8.755
 6562SOL    HW121460   2.572   9.913   8.742
 6562SOL    HW221461   2.710   9.953   8.694
 6563SOL     OW21462   9.001  10.177   6.783
 6563SOL    HW121463   8.926  10.152   6.837
 6563SOL    HW221464   9.075  10.128   6.820
 6564SOL     OW21465  13.404   2.080   7.075
 6564SOL    HW121466  13.467   2.081   7.003
 6564SOL    HW221467  13.402   1.989   7.105
 6565SOL     OW21468   2.603  13.959   8.147
 6565SOL    HW121469   2.592  14.018   8.222
 6565SOL    HW221470   2.559  14.005   8.075
 6566SOL     OW21471   7.102   7.138   8.299
 6566SOL    HW121472   7.189   7.160   8.267
 6566SOL    HW221473   7.093   7.189   8.380
 6567SOL     OW21474   7.391  13.841  13.171
 6567SOL    HW121475   7.446  13.917  13.187
 6567SOL    HW221476   7.412  13.780  13.242
 6568SOL     OW21477  13.871  11.480   1.692
 6568SOL    HW121478  13.778  11.478   1.714
 6568SOL    HW221479  13.879  11.426   1.613
 6569SOL     OW21480   7.511  13.367   5.131
 6569SOL    HW121481   7.569  13.315   5.186
 6569SOL    HW221482   7.522  13.457   5.163
 6570SOL     OW21483   1.362  10.757   1.889
 6570SOL    HW121484   1.301  10.724   1.955
 6570SOL    HW221485   1.449  10.742   1.928
 6571SOL     OW21486   8.202   5.586  10.475
 6571SOL    HW121487   8.240   5.634  10.403
 6571SOL    HW221488   8.110   5.573  10.451
 6572SOL     OW21489   4.419   2.920  14.686
 6572SOL    HW121490   4.369   2.913  14.768
 6572SOL    HW221491   4.511   2.923  14.714
 6573SOL     OW21492   7.923  14.859  14.076
 6573SOL    HW121493   7.848  14.802  14.062
 6573SOL    HW221494   7.945  14.848  14.168
 6574SOL     OW21495   9.008   9.070  11.835
 6574SOL    HW121496   8.925   9.099  11.797
 6574SOL    HW221497   9.041   9.147  11.883
 6575SOL     OW21498   6.497   5.424   9.957
 6575SOL    HW121499   6.407   5.390   9.957
 6575SOL    HW221500   6.549   5.355   9.998
 6576SOL     OW21501   8.493  10.560   6.813
 6576SOL    HW121502   8.516  10.633   6.869
 6576SOL    HW221503   8.397  10.558   6.814
 6577SOL     OW21504  14.423   5.822   7.006
 6577SOL    HW121505  14.500   5.815   6.951
 6577SOL    HW221506  14.372   5.893   6.969
 6578SOL     OW21507   5.175   8.603  12.018
 6578SOL    HW121508   5.143   8.633  11.932
 6578SOL    HW221509   5.240   8.669  12.043
 6579SOL     OW21510   2.970  12.347  14.042
 6579SOL    HW121511   2.891  12.294  14.033
 6579SOL    HW221512   3.027  12.318  13.971
 6580SOL     OW21513  12.469  13.738  10.388
 6580SOL    HW121514  12.494  13.684  10.464
 6580SOL    HW221515  12.551  13.779  10.360
 6581SOL     OW21516  13.419   4.283   7.856
 6581SOL    HW121517  13.387   4.208   7.804
 6581SOL    HW221518  13.349   4.300   7.919
 6582SOL     OW21519  12.157   8.113   2.419
 6582SOL    HW121520  12.194   8.098   2.506
 6582SOL    HW221521  12.127   8.027   2.391
 6583SOL     OW21522   5.586  10.562   9.067
 6583SOL    HW121523   5.527  10.531   8.999
 6583SOL    HW221524   5.629  10.639   9.028
 6584SOL     OW21525  13.590   6.429  11.177
 6584SOL    HW121526  13.605   6.425  11.271
 6584SOL    HW221527  13.640   6.355  11.141
 6585SOL     OW21528   8.414  11.487   6.490
 6585SOL    HW121529   8.489  11.519   6.441
 6585SOL    HW221530   8.347  11.470   6.424
 6586SOL     OW21531  11.421  12.516  10.755
 6586SOL    HW121532  11.357  12.541  10.822
 6586SOL    HW221533  11.436  12.597  10.705
 6587SOL     OW21534   0.780   5.923  11.819
 6587SOL    HW121535   0.768   5.877  11.902
 6587SOL    HW221536   0.774   5.853  11.753
 6588SOL     OW21537   3.997   5.006  10.659
 6588SOL    HW121538   3.954   5.051  10.586
 6588SOL    HW221539   4.077   5.056  10.674
 6589SOL     OW21540   5.166  10.629  10.071
 6589SOL    HW121541   5.224  10.626  10.147
 6589SOL    HW221542   5.203  10.700  10.017
 6590SOL     OW21543  13.810   4.430  13.195
 6590SOL    HW121544  13.808   4.346  13.148
 6590SOL    HW221545  13.896   4.466  13.174
 6591SOL     OW21546   7.449   1.260  14.006
 6591SOL    HW121547   7.434   1.312  13.927
 6591SOL    HW221548   7.403   1.308  14.076
 6592SOL     OW21549   2.556  10.606   7.844
 6592SOL    HW121550   2.550  10.702   7.840
 6592SOL    HW221551   2.601  10.581   7.763
 6593SOL     OW21552   2.998  13.578   1.182
 6593SOL    HW121553   3.076  13.630   1.201
 6593SOL    HW221554   3.010  13.548   1.092
 6594SOL     OW21555   5.646   7.845  13.704
 6594SOL    HW121556   5.606   7.879  13.624
 6594SOL    HW221557   5.707   7.914  13.731
 6595SOL     OW21558   7.674   3.073   1.771
 6595SOL    HW121559   7.730   3.138   1.728
 6595SOL    HW221560   7.601   3.060   1.710
 6596SOL     OW21561  14.586   7.277   6.986
 6596SOL    HW121562  14.637   7.196   6.986
 6596SOL    HW221563  14.593   7.311   7.075
 6597SOL     OW21564   6.681  11.805   0.204
 6597SOL    HW121565   6.736  11.747   0.257
 6597SOL    HW221566   6.733  11.821   0.125
 6598SOL     OW21567   0.066  10.721   8.864
 6598SOL    HW121568   0.115  10.800   8.841
 6598SOL    HW221569   0.122  10.677   8.929
 6599SOL     OW21570  11.583   5.432  10.685
 6599SOL    HW121571  11.530   5.476  10.752
 6599SOL    HW221572  11.523   5.371  10.642
 6600SOL     OW21573   0.114   8.976  14.272
 6600SOL    HW121574   0.067   8.917  14.331
 6600SOL    HW221575   0.207   8.958  14.290
 6601SOL     OW21576   6.495   8.259   0.165
 6601SOL    HW121577   6.449   8.255   0.248
 6601SOL    HW221578   6.568   8.197   0.174
 6602SOL     OW21579   9.273  14.397   9.814
 6602SOL    HW121580   9.336  14.469   9.811
 6602SOL    HW221581   9.189  14.440   9.829
 6603SOL     OW21582   0.490   7.752   7.920
 6603SOL    HW121583   0.560   7.718   7.864
 6603SOL    HW221584   0.530   7.824   7.968
 6604SOL     OW21585  14.402  10.269   9.209
 6604SOL    HW121586  14.361  10.304   9.130
 6604SOL    HW221587  14.400  10.342   9.272
 6605SOL     OW21588   4.100  14.520   8.096
 6605SOL    HW121589   4.090  14.589   8.161
 6605SOL    HW221590   4.017  14.472   8.099
 6606SOL     OW21591   8.949   1.218  10.535
 6606SOL    HW121592   8.978   1.164  10.608
 6606SOL    HW221593   8.856   1.197  10.526
 6607SOL     OW21594   7.400  11.138   9.707
 6607SOL    HW121595   7.436  11.050   9.708
 6607SOL    HW221596   7.456  11.186   9.645
 6608SOL     OW21597   2.682   1.200   2.230
 6608SOL    HW121598   2.612   1.265   2.230
 6608SOL    HW221599   2.750   1.238   2.285
 6609SOL     OW21600   8.692  14.695  12.804
 6609SOL    HW121601   8.770  14.744  12.776
 6609SOL    HW221602   8.698  14.694  12.900
 6610SOL     OW21603   0.738   4.787   3.543
 6610SOL    HW121604   0.778   4.857   3.595
 6610SOL    HW221605   0.724   4.716   3.605
 6611SOL     OW21606   3.261   9.858  10.640
 6611SOL    HW121607   3.329   9.791  10.629
 6611SOL    HW221608   3.209   9.852  10.560
 6612SOL     OW21609   4.284  11.113  10.230
 6612SOL    HW121610   4.251  11.040  10.177
 6612SOL    HW221611   4.209  11.141  10.282
 6613SOL     OW21612   5.908  11.296  13.399
 6613SOL    HW121613   5.952  11.239  13.336
 6613SOL    HW221614   5.845  11.240  13.443
 6614SOL     OW21615   2.452   6.097   6.130
 6614SOL    HW121616   2.425   6.188   6.129
 6614SOL    HW221617   2.483   6.081   6.040
 6615SOL     OW21618   2.572  11.881  10.367
 6615SOL    HW121619   2.500  11.935  10.337
 6615SOL    HW221620   2.535  11.794  10.378
 6616SOL     OW21621   1.465   0.390   3.682
 6616SOL    HW121622   1.435   0.321   3.622
 6616SOL    HW221623   1.555   0.407   3.656
 6617SOL     OW21624   6.539   2.256  12.467
 6617SOL    HW121625   6.469   2.313  12.437
 6617SOL    HW221626   6.502   2.212  12.544
 6618SOL     OW21627   2.085   5.751   8.205
 6618SOL    HW121628   2.155   5.689   8.186
 6618SOL    HW221629   2.045   5.718   8.286
 6619SOL     OW21630   7.186   4.422  11.701
 6619SOL    HW121631   7.258   4.433  11.639
 6619SOL    HW221632   7.121   4.371  11.654
 6620SOL     OW21633   1.220   2.126   2.734
 6620SOL    HW121634   1.170   2.208   2.730
 6620SOL    HW221635   1.302   2.152   2.777
 6621SOL     OW21636  14.491  11.862  10.723
 6621SOL    HW121637  14.574  11.817  10.736
 6621SOL    HW221638  14.514  11.955  10.718
 6622SOL     OW21639   5.336   5.041   3.938
 6622SOL    HW121640   5.366   5.120   3.982
 6622SOL    HW221641   5.279   5.073   3.868
 6623SOL     OW21642  14.504   5.541   6.999
 6623SOL    HW121643  14.482   5.528   6.907
 6623SOL    HW221644  14.443   5.608   7.029
 6624SOL     OW21645   0.543   2.313   4.039
 6624SOL    HW121646   0.452   2.344   4.042
 6624SOL    HW221647   0.537   2.226   3.999
 6625SOL     OW21648   1.262  13.410   8.127
 6625SOL    HW121649   1.209  13.331   8.134
 6625SOL    HW221650   1.199  13.481   8.128
 6626SOL     OW21651   4.967  13.697   4.097
 6626SOL    HW121652   4.995  13.724   4.010
 6626SOL    HW221653   4.872  13.685   4.088
 6627SOL     OW21654   5.764  13.726  14.661
 6627SOL    HW121655   5.765  13.811  14.617
 6627SOL    HW221656   5.709  13.671  14.605
 6628SOL     OW21657  12.419   1.809  13.231
 6628SOL    HW121658  12.505   1.767  13.222
 6628SOL    HW221659  12.363   1.764  13.168
 6629SOL     OW21660   4.545   9.160   4.704
 6629SOL    HW121661   4.569   9.115   4.623
 6629SOL    HW221662   4.510   9.245   4.675
 6630SOL     OW21663   5.529   8.101   1.073
 6630SOL    HW121664   5.447   8.052   1.076
 6630SOL    HW221665   5.598   8.034   1.077
 6631SOL     OW21666   9.682   5.848  13.662
 6631SOL    HW121667   9.666   5.843  13.568
 6631SOL    HW221668   9.738   5.773  13.681
 6632SOL     OW21669   0.815   1.686  10.308
 6632SOL    HW121670   0.858   1.609  10.270
 6632SOL    HW221671   0.735   1.651  10.348
 6633SOL     OW21672   7.653   0.926   5.780
 6633SOL    HW121673   7.664   1.003   5.836
 6633SOL    HW221674   7.659   0.960   5.690
 6634SOL     OW21675   5.885  10.730   9.499
 6634SOL    HW121676   5.905  10.714   9.591
 6634SOL    HW221677   5.791  10.747   9.497
 6635SOL     OW21678  10.036  10.523   2.667
 6635SOL    HW121679  10.014  10.453   2.728
 6635SOL    HW221680   9.967  10.519   2.601
 6636SOL     OW21681  11.909   7.826   0.218
 6636SOL    HW121682  11.979   7.858   0.275
 6636SOL    HW221683  11.943   7.838   0.129
 6637SOL     OW21684  10.059   6.941  11.981
 6637SOL    HW121685  10.009   6.965  11.903
 6637SOL    HW221686  10.126   7.009  11.988
 6638SOL     OW21687  10.048  12.482  10.778
 6638SOL    HW121688  10.008  12.515  10.858
 6638SOL    HW221689  10.124  12.538  10.765
 6639SOL     OW21690  12.060   8.659   1.666
 6639SOL    HW121691  11.977   8.690   1.629
 6639SOL    HW221692  12.126   8.690   1.605
 6640SOL     OW21693   7.606   9.571  11.500
 6640SOL    HW121694   7.547   9.500  11.476
 6640SOL    HW221695   7.549   9.645  11.521
 6641SOL     OW21696   2.402   7.799  10.777
 6641SOL    HW121697   2.362   7.723  10.818
 6641SOL    HW221698   2.430   7.768  10.691
 6642SOL     OW21699   6.695  11.788   1.604
 6642SOL    HW121700   6.624  11.734   1.570
 6642SOL    HW221701   6.712  11.753   1.691
 6643SOL     OW21702   3.745  13.110   9.030
 6643SOL    HW121703   3.816  13.100   8.966
 6643SOL    HW221704   3.684  13.040   9.009
 6644SOL     OW21705  10.854   3.593   0.560
 6644SOL    HW121706  10.812   3.517   0.600
 6644SOL    HW221707  10.914   3.625   0.627
 6645SOL     OW21708   4.735  12.844   5.132
 6645SOL    HW121709   4.661  12.861   5.074
 6645SOL    HW221710   4.766  12.757   5.106
 6646SOL     OW21711  10.655  10.853   6.460
 6646SOL    HW121712  10.594  10.873   6.531
 6646SOL    HW221713  10.601  10.856   6.381
 6647SOL     OW21714   7.495   2.671   2.384
 6647SOL    HW121715   7.423   2.683   2.322
 6647SOL    HW221716   7.467   2.717   2.463
 6648SOL     OW21717   8.012   1.667   3.668
 6648SOL    HW121718   8.072   1.723   3.718
 6648SOL    HW221719   7.955   1.728   3.622
 6649SOL     OW21720  14.277  10.751   9.084
 6649SOL    HW121721  14.267  10.831   9.033
 6649SOL    HW221722  14.193  10.706   9.074
 6650SOL     OW21723   2.780   5.842   4.870
 6650SOL    HW121724   2.862   5.873   4.832
 6650SOL    HW221725   2.716   5.852   4.799
 6651SOL     OW21726   2.534  13.476   5.775
 6651SOL    HW121727   2.445  13.501   5.802
 6651SOL    HW221728   2.526  13.384   5.750
 6652SOL     OW21729  12.665  12.764   2.548
 6652SOL    HW121730  12.735  12.735   2.606
 6652SOL    HW221731  12.624  12.838   2.594
 6653SOL     OW21732  12.902  13.364   1.837
 6653SOL    HW121733  12.914  13.393   1.747
 6653SOL    HW221734  12.824  13.309   1.834
 6654SOL     OW21735  10.307  13.362   1.315
 6654SOL    HW121736  10.319  13.269   1.293
 6654SOL    HW221737  10.251  13.361   1.392
 6655SOL     OW21738   9.269   0.308   9.943
 6655SOL    HW121739   9.215   0.383   9.969
 6655SOL    HW221740   9.352   0.346   9.915
 6656SOL     OW21741   8.365   9.832   8.054
 6656SOL    HW121742   8.292   9.890   8.032
 6656SOL    HW221743   8.323   9.752   8.085
 6657SOL     OW21744   2.253   4.433  14.319
 6657SOL    HW121745   2.187   4.501  14.306
 6657SOL    HW221746   2.206   4.351  14.303
 6658SOL     OW21747   0.509  12.769   2.692
 6658SOL    HW121748   0.566  12.803   2.623
 6658SOL    HW221749   0.559  12.699   2.733
 6659SOL     OW21750   8.674   1.470   4.018
 6659SOL    HW121751   8.693   1.385   4.058
 6659SOL    HW221752   8.716   1.533   4.076
 6660SOL     OW21753  10.291   9.291   5.947
 6660SOL    HW121754  10.337   9.329   6.022
 6660SOL    HW221755  10.345   9.217   5.921
 6661SOL     OW21756   5.560   5.504   2.557
 6661SOL    HW121757   5.477   5.551   2.541
 6661SOL    HW221758   5.547   5.418   2.517
 6662SOL     OW21759  12.903  10.893  13.969
 6662SOL    HW121760  12.950  10.968  13.935
 6662SOL    HW221761  12.912  10.826  13.901
 6663SOL     OW21762   9.341   8.666   3.773
 6663SOL    HW121763   9.370   8.624   3.853
 6663SOL    HW221764   9.414   8.721   3.746
 6664SOL     OW21765   6.279   5.928   8.293
 6664SOL    HW121766   6.280   6.021   8.316
 6664SOL    HW221767   6.227   5.924   8.213
 6665SOL     OW21768   3.382   2.382  13.642
 6665SOL    HW121769   3.407   2.468  13.609
 6665SOL    HW221770   3.289   2.374  13.621
 6666SOL     OW21771  12.407   8.125  13.503
 6666SOL    HW121772  12.408   8.160  13.592
 6666SOL    HW221773  12.487   8.072  13.497
 6667SOL     OW21774  11.964   1.992  11.688
 6667SOL    HW121775  11.872   1.991  11.659
 6667SOL    HW221776  11.958   1.989  11.783
 6668SOL     OW21777   2.312  14.411   7.565
 6668SOL    HW121778   2.279  14.322   7.551
 6668SOL    HW221779   2.358  14.406   7.649
 6669SOL     OW21780   7.213  11.854   6.005
 6669SOL    HW121781   7.244  11.879   5.918
 6669SOL    HW221782   7.233  11.761   6.012
 6670SOL     OW21783   0.159   3.360  13.118
 6670SOL    HW121784   0.254   3.361  13.129
 6670SOL    HW221785   0.129   3.438  13.164
 6671SOL     OW21786  12.179   7.903  14.562
 6671SOL    HW121787  12.093   7.912  14.522
 6671SOL    HW221788  12.235   7.963  14.513
 6672SOL     OW21789   5.562   1.133  10.149
 6672SOL    HW121790   5.476   1.128  10.189
 6672SOL    HW221791   5.603   1.210  10.189
 6673SOL     OW21792  10.385   8.605   8.400
 6673SOL    HW121793  10.461   8.656   8.371
 6673SOL    HW221794  10.421   8.535   8.453
 6674SOL     OW21795   9.662   1.597   1.982
 6674SOL    HW121796   9.639   1.686   1.957
 6674SOL    HW221797   9.578   1.552   1.993
 6675SOL     OW21798  13.312   7.823  12.628
 6675SOL    HW121799  13.282   7.836  12.718
 6675SOL    HW221800  13.374   7.750  12.633
 6676SOL     OW21801   4.734   9.534   3.883
 6676SOL    HW121802   4.764   9.466   3.823
 6676SOL    HW221803   4.652   9.566   3.844
 6677SOL     OW21804   3.744   3.165  11.167
 6677SOL    HW121805   3.813   3.229  11.184
 6677SOL    HW221806   3.740   3.159  11.072
 6678SOL     OW21807   1.001   9.560   8.028
 6678SOL    HW121808   1.097   9.567   8.032
 6678SOL    HW221809   0.976   9.622   7.960
 6679SOL     OW21810   7.922   3.770   7.729
 6679SOL    HW121811   7.941   3.861   7.752
 6679SOL    HW221812   7.833   3.772   7.695
 6680SOL     OW21813   4.475  11.277   7.438
 6680SOL    HW121814   4.439  11.358   7.475
 6680SOL    HW221815   4.566  11.299   7.416
 6681SOL     OW21816  12.027   4.723   4.060
 6681SOL    HW121817  12.114   4.710   4.022
 6681SOL    HW221818  12.005   4.814   4.041
 6682SOL     OW21819   3.103   7.819  10.496
 6682SOL    HW121820   3.169   7.755  10.524
 6682SOL    HW221821   3.141   7.861  10.419
 6683SOL     OW21822   1.361  12.045  14.721
 6683SOL    HW121823   1.333  12.082  14.638
 6683SOL    HW221824   1.386  12.121  14.774
 6684SOL     OW21825   6.556   5.993  10.046
 6684SOL    HW121826   6.532   6.030  10.131
 6684SOL    HW221827   6.623   5.928  10.066
 6685SOL     OW21828   5.340   7.608   5.808
 6685SOL    HW121829   5.246   7.625   5.820
 6685SOL    HW221830   5.343   7.531   5.751
 6686SOL     OW21831   5.073   5.466   5.945
 6686SOL    HW121832   5.029   5.402   6.001
 6686SOL    HW221833   5.125   5.412   5.884
 6687SOL     OW21834   6.410   3.220  11.203
 6687SOL    HW121835   6.382   3.306  11.234
 6687SOL    HW221836   6.331   3.166  11.208
 6688SOL     OW21837   3.781   6.019  14.660
 6688SOL    HW121838   3.756   5.928  14.648
 6688SOL    HW221839   3.698   6.065  14.676
 6689SOL     OW21840   9.996   6.829   4.997
 6689SOL    HW121841  10.039   6.755   4.954
 6689SOL    HW221842   9.913   6.838   4.952
 6690SOL     OW21843   8.670  13.340   4.021
 6690SOL    HW121844   8.616  13.359   3.944
 6690SOL    HW221845   8.657  13.415   4.079
 6691SOL     OW21846   2.184   9.971   1.286
 6691SOL    HW121847   2.229  10.056   1.286
 6691SOL    HW221848   2.208   9.931   1.202
 6692SOL     OW21849  11.096   8.790  10.149
 6692SOL    HW121850  11.004   8.796  10.177
 6692SOL    HW221851  11.093   8.809  10.055
 6693SOL     OW21852   7.494   0.539   7.039
 6693SOL    HW121853   7.401   0.555   7.057
 6693SOL    HW221854   7.523   0.617   6.991
 6694SOL     OW21855  12.730   7.791   1.368
 6694SOL    HW121856  12.686   7.795   1.284
 6694SOL    HW221857  12.675   7.735   1.422
 6695SOL     OW21858   4.697   3.838   2.784
 6695SOL    HW121859   4.685   3.915   2.841
 6695SOL    HW221860   4.774   3.859   2.732
 6696SOL     OW21861   4.769   3.309   9.384
 6696SOL    HW121862   4.858   3.298   9.352
 6696SOL    HW221863   4.759   3.403   9.396
 6697SOL     OW21864   3.040  12.978  12.718
 6697SOL    HW121865   3.001  13.044  12.775
 6697SOL    HW221866   3.131  12.971  12.748
 6698SOL     OW21867  13.660   6.702   1.347
 6698SOL    HW121868  13.601   6.771   1.376
 6698SOL    HW221869  13.602   6.628   1.325
 6699SOL     OW21870   8.176   4.084   9.526
 6699SOL    HW121871   8.106   4.091   9.462
 6699SOL    HW221872   8.241   4.028   9.484
 6700SOL     OW21873   6.111   2.829   7.642
 6700SOL    HW121874   6.199   2.862   7.623
 6700SOL    HW221875   6.061   2.906   7.668
 6701SOL     OW21876   3.843   9.753   9.168
 6701SOL    HW121877   3.913   9.689   9.150
 6701SOL    HW221878   3.878   9.836   9.135
 6702SOL     OW21879   2.047   1.642   9.104
 6702SOL    HW121880   2.028   1.728   9.141
 6702SOL    HW221881   1.972   1.623   9.047
 6703SOL     OW21882  12.195   2.589  14.182
 6703SOL    HW121883  12.249   2.570  14.259
 6703SOL    HW221884  12.118   2.533  14.192
 6704SOL     OW21885  14.177   6.653  12.625
 6704SOL    HW121886  14.124   6.646  12.704
 6704SOL    HW221887  14.157   6.574  12.575
 6705SOL     OW21888   5.191   3.496   1.693
 6705SOL    HW121889   5.241   3.415   1.704
 6705SOL    HW221890   5.250   3.565   1.725
 6706SOL     OW21891   8.213   2.247  10.494
 6706SOL    HW121892   8.243   2.272  10.582
 6706SOL    HW221893   8.118   2.255  10.497
 6707SOL     OW21894  11.247  13.180   7.862
 6707SOL    HW121895  11.272  13.170   7.770
 6707SOL    HW221896  11.287  13.105   7.906
 6708SOL     OW21897   5.214  13.938   5.693
 6708SOL    HW121898   5.309  13.940   5.705
 6708SOL    HW221899   5.187  14.029   5.702
 6709SOL     OW21900   5.411   4.395  13.891
 6709SOL    HW121901   5.359   4.345  13.828
 6709SOL    HW221902   5.425   4.335  13.964
 6710SOL     OW21903  14.470  10.995   2.047
 6710SOL    HW121904  14.403  11.047   2.002
 6710SOL    HW221905  14.519  11.059   2.099
 6711SOL     OW21906   4.648   5.348   0.099
 6711SOL    HW121907   4.607   5.262   0.091
 6711SOL    HW221908   4.701   5.357   0.019
 6712SOL     OW21909  12.370  12.153  10.284
 6712SOL    HW121910  12.333  12.091  10.347
 6712SOL    HW221911  12.463  12.157  10.307
 6713SOL     OW21912   9.035   1.578  10.982
 6713SOL    HW121913   9.082   1.526  11.047
 6713SOL    HW221914   9.023   1.663  11.022
 6714SOL     OW21915  13.384   9.404   5.022
 6714SOL    HW121916  13.430   9.471   5.073
 6714SOL    HW221917  13.454   9.354   4.980
 6715SOL     OW21918   9.616  10.279   5.657
 6715SOL    HW121919   9.600  10.308   5.746
 6715SOL    HW221920   9.577  10.191   5.653
 6716SOL     OW21921  10.114   3.492   3.879
 6716SOL    HW121922  10.196   3.446   3.900
 6716SOL    HW221923  10.082   3.449   3.800
 6717SOL     OW21924   2.618   4.420  13.117
 6717SOL    HW121925   2.605   4.514  13.127
 6717SOL    HW221926   2.642   4.409  13.025
 6718SOL     OW21927   1.415  13.966   5.118
 6718SOL    HW121928   1.396  14.054   5.149
 6718SOL    HW221929   1.508  13.953   5.137
 6719SOL     OW21930   8.616   7.559   5.621
 6719SOL    HW121931   8.680   7.627   5.599
 6719SOL    HW221932   8.533   7.593   5.589
 6720SOL     OW21933   1.121   4.653   9.549
 6720SOL    HW121934   1.089   4.666   9.460
 6720SOL    HW221935   1.049   4.681   9.605
 6721SOL     OW21936   7.014   4.177   2.617
 6721SOL    HW121937   6.960   4.142   2.546
 6721SOL    HW221938   6.989   4.269   2.622
 6722SOL     OW21939  13.956   3.923   0.850
 6722SOL    HW121940  13.940   3.844   0.901
 6722SOL    HW221941  13.953   3.893   0.759
 6723SOL     OW21942   4.951   6.243   9.814
 6723SOL    HW121943   4.981   6.287   9.734
 6723SOL    HW221944   5.026   6.246   9.873
 6724SOL     OW21945   0.599   1.033   9.529
 6724SOL    HW121946   0.506   1.056   9.529
 6724SOL    HW221947   0.602   0.944   9.565
 6725SOL     OW21948  10.264   5.792   6.160
 6725SOL    HW121949  10.204   5.867   6.164
 6725SOL    HW221950  10.214   5.721   6.200
 6726SOL     OW21951   7.928   6.477   7.505
 6726SOL    HW121952   7.942   6.438   7.419
 6726SOL    HW221953   8.011   6.520   7.526
 6727SOL     OW21954   8.090   0.785   8.377
 6727SOL    HW121955   8.158   0.802   8.442
 6727SOL    HW221956   8.127   0.718   8.320
 6728SOL     OW21957   6.953   3.853   7.555
 6728SOL    HW121958   7.023   3.912   7.528
 6728SOL    HW221959   6.924   3.886   7.639
 6729SOL     OW21960  11.873   8.169   0.470
 6729SOL    HW121961  11.940   8.159   0.537
 6729SOL    HW221962  11.870   8.263   0.451
 6730SOL     OW21963  12.237   9.165  11.296
 6730SOL    HW121964  12.275   9.150  11.210
 6730SOL    HW221965  12.310   9.191  11.351
 6731SOL     OW21966   1.619   8.517   3.008
 6731SOL    HW121967   1.563   8.468   2.948
 6731SOL    HW221968   1.562   8.585   3.045
 6732SOL     OW21969   8.807  10.027   2.022
 6732SOL    HW121970   8.736  10.070   1.974
 6732SOL    HW221971   8.769   9.942   2.049
 6733SOL     OW21972  10.002   0.094   3.657
 6733SOL    HW121973  10.048   0.040   3.721
 6733SOL    HW221974  10.024   0.054   3.573
 6734SOL     OW21975   3.814   6.214   1.928
 6734SOL    HW121976   3.790   6.275   1.859
 6734SOL    HW221977   3.731   6.171   1.952
 6735SOL     OW21978  10.547   9.060   8.883
 6735SOL    HW121979  10.576   8.971   8.905
 6735SOL    HW221980  10.483   9.048   8.813
 6736SOL     OW21981   8.031   2.993   5.263
 6736SOL    HW121982   8.031   2.971   5.356
 6736SOL    HW221983   7.961   3.058   5.254
 6737SOL     OW21984   1.674   2.385   5.250
 6737SOL    HW121985   1.677   2.291   5.264
 6737SOL    HW221986   1.764   2.409   5.227
 6738SOL     OW21987  13.020   5.651   7.638
 6738SOL    HW121988  13.076   5.608   7.703
 6738SOL    HW221989  12.932   5.623   7.660
 6739SOL     OW21990   0.563   1.550  13.849
 6739SOL    HW121991   0.507   1.528  13.775
 6739SOL    HW221992   0.616   1.471  13.863
 6740SOL     OW21993  13.642   1.983  11.882
 6740SOL    HW121994  13.585   2.036  11.937
 6740SOL    HW221995  13.724   1.979  11.931
 6741SOL     OW21996   9.351  12.051  11.689
 6741SOL    HW121997   9.289  12.067  11.618
 6741SOL    HW221998   9.396  11.970  11.664
 6742SOL     OW21999   8.651   2.733  11.660
 6742SOL    HW122000   8.716   2.679  11.614
 6742SOL    HW222001   8.661   2.820  11.621
 6743SOL     OW22002  13.261   6.290   8.729
 6743SOL    HW122003  13.274   6.371   8.679
 6743SOL    HW222004  13.183   6.307   8.782
 6744SOL     OW22005  10.169   3.992   5.250
 6744SOL    HW122006  10.117   4.068   5.224
 6744SOL    HW222007  10.147   3.978   5.342
 6745SOL     OW22008   9.769   6.843   4.870
 6745SOL    HW122009   9.679   6.817   4.886
 6745SOL    HW222010   9.782   6.830   4.776
 6746SOL     OW22011   5.829  12.932   6.635
 6746SOL    HW122012   5.800  12.841   6.642
 6746SOL    HW222013   5.844  12.946   6.542
 6747SOL     OW22014   7.074   9.582  12.941
 6747SOL    HW122015   7.063   9.675  12.920
 6747SOL    HW222016   6.988   9.544  12.926
 6748SOL     OW22017  10.638  13.912   0.080
 6748SOL    HW122018  10.692  13.857   0.023
 6748SOL    HW222019  10.548  13.889   0.057
 6749SOL     OW22020   1.201   4.046  12.910
 6749SOL    HW122021   1.275   4.026  12.968
 6749SOL    HW222022   1.131   3.988  12.940
 6750SOL     OW22023  13.036   2.452   9.383
 6750SOL    HW122024  13.027   2.357   9.379
 6750SOL    HW222025  13.090   2.474   9.308
 6751SOL     OW22026  10.309   0.298   1.100
 6751SOL    HW122027  10.230   0.273   1.052
 6751SOL    HW222028  10.278   0.352   1.172
 6752SOL     OW22029  14.290   9.092   3.691
 6752SOL    HW122030  14.364   9.044   3.728
 6752SOL    HW222031  14.270   9.047   3.609
 6753SOL     OW22032   9.354   0.663  14.687
 6753SOL    HW122033   9.270   0.695  14.656
 6753SOL    HW222034   9.341   0.649  14.781
 6754SOL     OW22035   7.963   4.786  10.374
 6754SOL    HW122036   7.974   4.695  10.345
 6754SOL    HW222037   7.998   4.838  10.301
 6755SOL     OW22038   6.739   5.557   6.214
 6755SOL    HW122039   6.710   5.570   6.124
 6755SOL    HW222040   6.663   5.522   6.260
 6756SOL     OW22041   4.121  10.635   1.114
 6756SOL    HW122042   4.161  10.550   1.100
 6756SOL    HW222043   4.044  10.617   1.169
 6757SOL     OW22044   6.317   8.583   9.299
 6757SOL    HW122045   6.228   8.560   9.270
 6757SOL    HW222046   6.317   8.562   9.393
 6758SOL     OW22047   3.256   6.609   3.429
 6758SOL    HW122048   3.306   6.689   3.412
 6758SOL    HW222049   3.238   6.573   3.343
 6759SOL     OW22050   1.842   5.833  12.435
 6759SOL    HW122051   1.847   5.929  12.436
 6759SOL    HW222052   1.769   5.814  12.376
 6760SOL     OW22053   8.253   0.005  12.984
 6760SOL    HW122054   8.249  14.818  13.051
 6760SOL    HW222055   8.263  14.838  12.902
 6761SOL     OW22056  14.017  10.265   9.143
 6761SOL    HW122057  13.956  10.199   9.178
 6761SOL    HW222058  14.025  10.243   9.050
 6762SOL     OW22059   8.112   8.613  12.596
 6762SOL    HW122060   8.117   8.520  12.620
 6762SOL    HW222061   8.201   8.635  12.569
 6763SOL     OW22062  11.480   7.398   0.930
 6763SOL    HW122063  11.570   7.431   0.928
 6763SOL    HW222064  11.466   7.362   0.843
 6764SOL     OW22065   7.882   8.378  13.358
 6764SOL    HW122066   7.888   8.285  13.379
 6764SOL    HW222067   7.900   8.422  13.441
 6765SOL     OW22068   7.671   9.673   7.431
 6765SOL    HW122069   7.683   9.756   7.477
 6765SOL    HW222070   7.581   9.676   7.399
 6766SOL     OW22071  12.904   9.391   2.664
 6766SOL    HW122072  12.992   9.428   2.671
 6766SOL    HW222073  12.846   9.461   2.697
 6767SOL     OW22074  11.872   2.143   0.158
 6767SOL    HW122075  11.920   2.060   0.165
 6767SOL    HW222076  11.783   2.120   0.183
 6768SOL     OW22077   9.240   0.923  13.797
 6768SOL    HW122078   9.287   0.840  13.791
 6768SOL    HW222079   9.184   0.924  13.719
 6769SOL     OW22080   2.930   0.979   4.779
 6769SOL    HW122081   2.969   1.063   4.755
 6769SOL    HW222082   2.950   0.969   4.872
 6770SOL     OW22083   1.731   7.489  11.366
 6770SOL    HW122084   1.715   7.506  11.273
 6770SOL    HW222085   1.826   7.494  11.375
 6771SOL     OW22086   6.477  12.518  11.446
 6771SOL    HW122087   6.439  12.605  11.451
 6771SOL    HW222088   6.471  12.484  11.535
 6772SOL     OW22089   0.658   5.025  12.555
 6772SOL    HW122090   0.616   4.943  12.581
 6772SOL    HW222091   0.664   5.019  12.460
 6773SOL     OW22092   3.668   0.687  14.377
 6773SOL    HW122093   3.573   0.696  14.373
 6773SOL    HW222094   3.700   0.728  14.297
 6774SOL     OW22095   0.577   3.367   4.783
 6774SOL    HW122096   0.615   3.364   4.871
 6774SOL    HW222097   0.612   3.290   4.739
 6775SOL     OW22098  11.290   7.818  10.082
 6775SOL    HW122099  11.350   7.743  10.078
 6775SOL    HW222100  11.339   7.889  10.041
 6776SOL     OW22101  12.517   9.957   2.645
 6776SOL    HW122102  12.611   9.946   2.627
 6776SOL    HW222103  12.501   9.906   2.724
 6777SOL     OW22104  14.793   4.557   2.689
 6777SOL    HW122105  14.812   4.468   2.718
 6777SOL    HW222106  14.742   4.595   2.761
 6778SOL     OW22107   7.761  11.618   3.421
 6778SOL    HW122108   7.692  11.651   3.363
 6778SOL    HW222109   7.839  11.668   3.396
 6779SOL     OW22110  12.234  13.043   4.666
 6779SOL    HW122111  12.176  13.031   4.591
 6779SOL    HW222112  12.203  13.123   4.707
 6780SOL     OW22113   1.257   5.651  14.181
 6780SOL    HW122114   1.232   5.596  14.255
 6780SOL    HW222115   1.277   5.590  14.111
 6781SOL     OW22116  11.439  11.568   4.905
 6781SOL    HW122117  11.400  11.582   4.992
 6781SOL    HW222118  11.497  11.643   4.892
 6782SOL     OW22119   7.072  11.592  13.265
 6782SOL    HW122120   7.116  11.641  13.195
 6782SOL    HW222121   7.143  11.547  13.311
 6783SOL     OW22122  12.773   7.670  14.490
 6783SOL    HW122123  12.767   7.620  14.408
 6783SOL    HW222124  12.682   7.694  14.509
 6784SOL     OW22125  11.575   0.906  13.338
 6784SOL    HW122126  11.621   0.847  13.398
 6784SOL    HW222127  11.508   0.852  13.296
 6785SOL     OW22128   6.697   7.083   2.159
 6785SOL    HW122129   6.644   7.159   2.137
 6785SOL    HW222130   6.635   7.021   2.198
 6786SOL     OW22131  12.867  12.570   3.382
 6786SOL    HW122132  12.777  12.540   3.371
 6786SOL    HW222133  12.861  12.665   3.391
 6787SOL     OW22134   3.264  14.661  14.053
 6787SOL    HW122135   3.222  14.683  14.136
 6787SOL    HW222136   3.221  14.580  14.024
 6788SOL     OW22137   9.629   9.547  13.684
 6788SOL    HW122138   9.613   9.561  13.591
 6788SOL    HW222139   9.676   9.626  13.713
 6789SOL     OW22140   1.410   8.059   6.648
 6789SOL    HW122141   1.505   8.059   6.643
 6789SOL    HW222142   1.390   8.117   6.722
 6790SOL     OW22143  14.632  13.958  11.970
 6790SOL    HW122144  14.576  14.010  12.027
 6790SOL    HW222145  14.660  13.884  12.024
 6791SOL     OW22146  12.696   7.069   5.403
 6791SOL    HW122147  12.723   7.104   5.489
 6791SOL    HW222148  12.732   6.981   5.400
 6792SOL     OW22149   1.521   5.335  13.815
 6792SOL    HW122150   1.471   5.400  13.765
 6792SOL    HW222151   1.567   5.284  13.748
 6793SOL     OW22152  13.481  14.142   2.937
 6793SOL    HW122153  13.405  14.103   2.894
 6793SOL    HW222154  13.492  14.090   3.017
 6794SOL     OW22155  13.390   5.148  14.592
 6794SOL    HW122156  13.437   5.065  14.602
 6794SOL    HW222157  13.453   5.215  14.618
 6795SOL     OW22158   5.024  12.417   0.740
 6795SOL    HW122159   4.985  12.417   0.827
 6795SOL    HW222160   5.042  12.509   0.721
 6796SOL     OW22161   2.648  10.552   4.982
 6796SOL    HW122162   2.573  10.568   5.040
 6796SOL    HW222163   2.674  10.639   4.952
 6797SOL     OW22164   6.591  12.064   9.929
 6797SOL    HW122165   6.499  12.057   9.901
 6797SOL    HW222166   6.585  12.076  10.024
 6798SOL     OW22167  12.629   4.915   5.156
 6798SOL    HW122168  12.691   4.952   5.093
 6798SOL    HW222169  12.587   4.991   5.197
 6799SOL     OW22170   8.184   7.664   6.719
 6799SOL    HW122171   8.270   7.623   6.716
 6799SOL    HW222172   8.192   7.741   6.664
 6800SOL     OW22173   9.976  10.034   3.654
 6800SOL    HW122174   9.958  10.127   3.669
 6800SOL    HW222175  10.067  10.032   3.626
 6801SOL     OW22176   5.237   7.203  12.994
 6801SOL    HW122177   5.326   7.170  12.988
 6801SOL    HW222178   5.186   7.130  13.029
 6802SOL     OW22179  13.599   2.632   4.013
 6802SOL    HW122180  13.665   2.579   4.057
 6802SOL    HW222181  13.515   2.598   4.044
 6803SOL     OW22182   6.669   4.687  13.271
 6803SOL    HW122183   6.665   4.616  13.207
 6803SOL    HW222184   6.636   4.764  13.224
 6804SOL     OW22185   2.792   6.669   0.677
 6804SOL    HW122186   2.848   6.711   0.742
 6804SOL    HW222187   2.729   6.737   0.652
 6805SOL     OW22188  12.924  12.332   7.117
 6805SOL    HW122189  12.938  12.418   7.158
 6805SOL    HW222190  12.906  12.274   7.191
 6806SOL     OW22191   3.607   6.429   7.339
 6806SOL    HW122192   3.628   6.516   7.306
 6806SOL    HW222193   3.531   6.401   7.288
 6807SOL     OW22194   3.046   6.775   8.178
 6807SOL    HW122195   3.027   6.807   8.266
 6807SOL    HW222196   3.012   6.844   8.120
 6808SOL     OW22197   1.136   7.959   4.358
 6808SOL    HW122198   1.128   8.002   4.273
 6808SOL    HW222199   1.114   8.028   4.421
 6809SOL     OW22200   4.417   5.272  11.285
 6809SOL    HW122201   4.436   5.227  11.202
 6809SOL    HW222202   4.376   5.354  11.258
 6810SOL     OW22203   7.156  10.983   1.089
 6810SOL    HW122204   7.093  10.982   1.160
 6810SOL    HW222205   7.143  10.899   1.043
 6811SOL     OW22206  11.151  14.581  12.192
 6811SOL    HW122207  11.073  14.543  12.152
 6811SOL    HW222208  11.164  14.664  12.145
 6812SOL     OW22209   0.398   8.443   1.758
 6812SOL    HW122210   0.303   8.448   1.767
 6812SOL    HW222211   0.428   8.405   1.841
 6813SOL     OW22212   8.450  13.124   7.588
 6813SOL    HW122213   8.478  13.106   7.498
 6813SOL    HW222214   8.425  13.038   7.623
 6814SOL     OW22215   0.047  10.376  11.029
 6814SOL    HW122216  14.860  10.337  11.083
 6814SOL    HW222217   0.007  10.385  10.942
 6815SOL     OW22218   6.255   4.221  13.883
 6815SOL    HW122219   6.263   4.186  13.971
 6815SOL    HW222220   6.306   4.162  13.828
 6816SOL     OW22221   5.393  12.449  10.950
 6816SOL    HW122222   5.482  12.451  10.987
 6816SOL    HW222223   5.396  12.511  10.877
 6817SOL     OW22224   7.019   4.560  13.279
 6817SOL    HW122225   7.059   4.624  13.220
 6817SOL    HW222226   6.925   4.575  13.270
 6818SOL     OW22227   4.697   8.925   4.158
 6818SOL    HW122228   4.722   8.851   4.104
 6818SOL    HW222229   4.604   8.911   4.176
 6819SOL     OW22230   8.476   9.511   2.727
 6819SOL    HW122231   8.401   9.500   2.785
 6819SOL    HW222232   8.530   9.578   2.770
 6820SOL     OW22233   7.606   0.750   7.351
 6820SOL    HW122234   7.692   0.747   7.393
 6820SOL    HW222235   7.545   0.763   7.424
 6821SOL     OW22236   1.354   5.435  11.247
 6821SOL    HW122237   1.376   5.376  11.176
 6821SOL    HW222238   1.385   5.391  11.326
 6822SOL     OW22239   7.485  13.977   1.213
 6822SOL    HW122240   7.465  13.926   1.134
 6822SOL    HW222241   7.408  13.966   1.268
 6823SOL     OW22242   0.844   4.613   2.826
 6823SOL    HW122243   0.758   4.585   2.856
 6823SOL    HW222244   0.872   4.680   2.888
 6824SOL     OW22245  10.749   8.738  12.544
 6824SOL    HW122246  10.755   8.789  12.464
 6824SOL    HW222247  10.673   8.681  12.531
 6825SOL     OW22248   1.204   8.900   0.846
 6825SOL    HW122249   1.156   8.833   0.798
 6825SOL    HW222250   1.281   8.855   0.880
 6826SOL     OW22251   6.180   7.629   0.556
 6826SOL    HW122252   6.261   7.604   0.601
 6826SOL    HW222253   6.124   7.665   0.625
 6827SOL     OW22254   1.789  14.323   5.255
 6827SOL    HW122255   1.797  14.388   5.185
 6827SOL    HW222256   1.809  14.239   5.213
 6828SOL     OW22257  11.227  12.508   0.930
 6828SOL    HW122258  11.193  12.579   0.985
 6828SOL    HW222259  11.260  12.443   0.992
 6829SOL     OW22260  10.175   0.607   4.834
 6829SOL    HW122261  10.159   0.641   4.746
 6829SOL    HW222262  10.092   0.567   4.860
 6830SOL     OW22263  12.282  10.377   4.918
 6830SOL    HW122264  12.221  10.366   4.845
 6830SOL    HW222265  12.243  10.328   4.990
 6831SOL     OW22266   0.853  13.955   9.228
 6831SOL    HW122267   0.944  13.943   9.200
 6831SOL    HW222268   0.824  13.867   9.253
 6832SOL     OW22269   2.854   8.697   7.551
 6832SOL    HW122270   2.927   8.648   7.513
 6832SOL    HW222271   2.822   8.642   7.622
 6833SOL     OW22272   4.681   6.125   2.389
 6833SOL    HW122273   4.769   6.154   2.364
 6833SOL    HW222274   4.628   6.138   2.310
 6834SOL     OW22275   9.516   7.846   9.094
 6834SOL    HW122276   9.462   7.896   9.032
 6834SOL    HW222277   9.560   7.781   9.040
 6835SOL     OW22278  14.385  10.373  12.896
 6835SOL    HW122279  14.335  10.410  12.969
 6835SOL    HW222280  14.447  10.314  12.938
 6836SOL     OW22281   4.096   7.668   2.646
 6836SOL    HW122282   4.052   7.608   2.707
 6836SOL    HW222283   4.092   7.753   2.689
 6837SOL     OW22284   0.361  13.383  13.836
 6837SOL    HW122285   0.395  13.296  13.815
 6837SOL    HW222286   0.410  13.442  13.779
 6838SOL     OW22287   0.473   1.633   9.270
 6838SOL    HW122288   0.494   1.541   9.251
 6838SOL    HW222289   0.458   1.672   9.185
 6839SOL     OW22290   9.808   2.325  12.818
 6839SOL    HW122291   9.712   2.319  12.817
 6839SOL    HW222292   9.826   2.413  12.849
 6840SOL     OW22293  10.531   0.236  14.704
 6840SOL    HW122294  10.508   0.254  14.612
 6840SOL    HW222295  10.465   0.174  14.733
 6841SOL     OW22296   8.789  12.925   9.588
 6841SOL    HW122297   8.800  12.916   9.494
 6841SOL    HW222298   8.835  12.849   9.625
 6842SOL     OW22299   4.391   5.800   7.969
 6842SOL    HW122300   4.439   5.779   7.889
 6842SOL    HW222301   4.445   5.765   8.040
 6843SOL     OW22302   4.436  12.286   2.608
 6843SOL    HW122303   4.358  12.307   2.556
 6843SOL    HW222304   4.425  12.336   2.689
 6844SOL     OW22305  11.411   0.084  10.832
 6844SOL    HW122306  11.357   0.011  10.862
 6844SOL    HW222307  11.361   0.122  10.760
 6845SOL     OW22308  12.007   2.503   2.593
 6845SOL    HW122309  11.997   2.425   2.537
 6845SOL    HW222310  12.101   2.521   2.591
 6846SOL     OW22311   3.893   1.408  13.685
 6846SOL    HW122312   3.835   1.461  13.739
 6846SOL    HW222313   3.944   1.472  13.635
 6847SOL     OW22314   4.647  13.175   3.836
 6847SOL    HW122315   4.741  13.180   3.818
 6847SOL    HW222316   4.628  13.081   3.839
 6848SOL     OW22317   6.721  12.605   9.059
 6848SOL    HW122318   6.676  12.628   8.977
 6848SOL    HW222319   6.711  12.510   9.065
 6849SOL     OW22320  14.567   1.612   0.964
 6849SOL    HW122321  14.570   1.522   0.930
 6849SOL    HW222322  14.615   1.664   0.900
 6850SOL     OW22323  13.353   0.460  13.115
 6850SOL    HW122324  13.395   0.449  13.200
 6850SOL    HW222325  13.315   0.548  13.119
 6851SOL     OW22326   6.031  10.949  13.016
 6851SOL    HW122327   5.970  10.907  12.955
 6851SOL    HW222328   6.079  10.876  13.054
 6852SOL     OW22329   0.308  12.019   9.632
 6852SOL    HW122330   0.348  11.933   9.625
 6852SOL    HW222331   0.257  12.016   9.712
 6853SOL     OW22332  12.778   5.438   8.825
 6853SOL    HW122333  12.738   5.501   8.885
 6853SOL    HW222334  12.815   5.493   8.755
 6854SOL     OW22335   3.411  14.735   0.298
 6854SOL    HW122336   3.355  14.758   0.224
 6854SOL    HW222337   3.500  14.735   0.262
 6855SOL     OW22338  13.904   8.071   6.864
 6855SOL    HW122339  13.931   8.076   6.772
 6855SOL    HW222340  13.956   8.140   6.907
 6856SOL     OW22341   5.647  12.240   7.709
 6856SOL    HW122342   5.686  12.265   7.625
 6856SOL    HW222343   5.573  12.300   7.720
 6857SOL     OW22344   2.851  11.856   7.822
 6857SOL    HW122345   2.835  11.939   7.778
 6857SOL    HW222346   2.871  11.881   7.913
 6858SOL     OW22347  12.155   0.299  13.769
 6858SOL    HW122348  12.158   0.286  13.674
 6858SOL    HW222349  12.147   0.211  13.805
 6859SOL     OW22350   9.075   5.944  11.710
 6859SOL    HW122351   8.981   5.948  11.723
 6859SOL    HW222352   9.086   5.928  11.616
 6860SOL     OW22353   8.981   0.984   1.981
 6860SOL    HW122354   8.988   1.008   2.073
 6860SOL    HW222355   9.027   1.053   1.934
 6861SOL     OW22356   1.900   5.095   7.701
 6861SOL    HW122357   1.847   5.023   7.733
 6861SOL    HW222358   1.960   5.114   7.773
 6862SOL     OW22359  13.966   3.680   9.104
 6862SOL    HW122360  14.041   3.681   9.163
 6862SOL    HW222361  13.890   3.691   9.161
 6863SOL     OW22362  12.852   0.151  11.145
 6863SOL    HW122363  12.921   0.144  11.079
 6863SOL    HW222364  12.803   0.069  11.137
 6864SOL     OW22365   0.171  14.085  13.979
 6864SOL    HW122366   0.253  14.036  13.982
 6864SOL    HW222367   0.139  14.072  13.890
 6865SOL     OW22368  12.216  12.879   5.665
 6865SOL    HW122369  12.214  12.917   5.577
 6865SOL    HW222370  12.127  12.889   5.698
 6866SOL     OW22371   7.648   9.899   1.395
 6866SOL    HW122372   7.707   9.973   1.408
 6866SOL    HW222373   7.696   9.824   1.430
 6867SOL     OW22374   1.046  14.086  10.069
 6867SOL    HW122375   1.078  14.063  10.156
 6867SOL    HW222376   1.057  14.006  10.018
 6868SOL     OW22377  14.018   4.634   5.051
 6868SOL    HW122378  13.931   4.595   5.041
 6868SOL    HW222379  14.076   4.577   5.001
 6869SOL     OW22380  11.850   4.859  10.656
 6869SOL    HW122381  11.914   4.842  10.588
 6869SOL    HW222382  11.891   4.925  10.712
 6870SOL     OW22383   4.497  13.475  13.987
 6870SOL    HW122384   4.573  13.453  14.039
 6870SOL    HW222385   4.429  13.413  14.015
 6871SOL     OW22386   4.582  11.519   6.588
 6871SOL    HW122387   4.536  11.455   6.534
 6871SOL    HW222388   4.524  11.595   6.592
 6872SOL     OW22389   3.058   3.614   9.992
 6872SOL    HW122390   3.021   3.597   9.906
 6872SOL    HW222391   3.150   3.638   9.975
 6873SOL     OW22392   3.535   9.252   4.296
 6873SOL    HW122393   3.490   9.214   4.221
 6873SOL    HW222394   3.470   9.310   4.336
 6874SOL     OW22395   2.011   3.525   0.489
 6874SOL    HW122396   1.992   3.610   0.528
 6874SOL    HW222397   1.926   3.491   0.463
 6875SOL     OW22398   3.747   0.411   3.853
 6875SOL    HW122399   3.761   0.471   3.927
 6875SOL    HW222400   3.831   0.407   3.809
 6876SOL     OW22401  13.322   0.835   9.127
 6876SOL    HW122402  13.401   0.853   9.076
 6876SOL    HW222403  13.253   0.823   9.061
 6877SOL     OW22404   4.138   7.199  10.173
 6877SOL    HW122405   4.132   7.124  10.114
 6877SOL    HW222406   4.217   7.245  10.145
 6878SOL     OW22407  11.908   7.905  12.155
 6878SOL    HW122408  11.994   7.912  12.196
 6878SOL    HW222409  11.853   7.865  12.222
 6879SOL     OW22410  12.418  10.240   7.023
 6879SOL    HW122411  12.346  10.260   7.083
 6879SOL    HW222412  12.433  10.321   6.975
 6880SOL     OW22413   0.398  10.846   5.153
 6880SOL    HW122414   0.396  10.909   5.080
 6880SOL    HW222415   0.319  10.793   5.140
 6881SOL     OW22416   6.833  12.373   8.422
 6881SOL    HW122417   6.834  12.448   8.363
 6881SOL    HW222418   6.923  12.367   8.454
 6882SOL     OW22419   5.140   5.867  11.509
 6882SOL    HW122420   5.167   5.776  11.497
 6882SOL    HW222421   5.119   5.874  11.602
 6883SOL     OW22422  14.046   2.199   7.905
 6883SOL    HW122423  14.063   2.108   7.881
 6883SOL    HW222424  14.126   2.227   7.950
 6884SOL     OW22425   2.062   5.256  11.823
 6884SOL    HW122426   2.004   5.251  11.899
 6884SOL    HW222427   2.146   5.223  11.854
 6885SOL     OW22428   9.227  14.124  10.394
 6885SOL    HW122429   9.145  14.075  10.387
 6885SOL    HW222430   9.288  14.063  10.436
 6886SOL     OW22431   4.293   3.313  12.412
 6886SOL    HW122432   4.327   3.244  12.469
 6886SOL    HW222433   4.200   3.319  12.433
 6887SOL     OW22434  14.120  10.182   4.452
 6887SOL    HW122435  14.102  10.193   4.359
 6887SOL    HW222436  14.034  10.190   4.495
 6888SOL     OW22437   5.246   1.814   4.129
 6888SOL    HW122438   5.174   1.869   4.098
 6888SOL    HW222439   5.274   1.855   4.211
 6889SOL     OW22440   2.180   9.528   6.033
 6889SOL    HW122441   2.175   9.458   6.099
 6889SOL    HW222442   2.270   9.522   5.999
 6890SOL     OW22443   9.220   0.654   5.225
 6890SOL    HW122444   9.259   0.566   5.227
 6890SOL    HW222445   9.160   0.655   5.299
 6891SOL     OW22446  12.464   5.545   4.015
 6891SOL    HW122447  12.492   5.492   4.090
 6891SOL    HW222448  12.531   5.613   4.007
 6892SOL     OW22449  11.672   9.507  12.534
 6892SOL    HW122450  11.648   9.500  12.441
 6892SOL    HW222451  11.604   9.457  12.580
 6893SOL     OW22452   1.074   8.389  12.409
 6893SOL    HW122453   1.098   8.481  12.395
 6893SOL    HW222454   1.132   8.359  12.479
 6894SOL     OW22455   3.524  12.759   2.096
 6894SOL    HW122456   3.482  12.766   2.182
 6894SOL    HW222457   3.593  12.694   2.108
 6895SOL     OW22458   8.344   0.389   3.456
 6895SOL    HW122459   8.344   0.440   3.537
 6895SOL    HW222460   8.401   0.438   3.397
 6896SOL     OW22461  14.151   0.617   1.698
 6896SOL    HW122462  14.066   0.650   1.728
 6896SOL    HW222463  14.130   0.532   1.658
 6897SOL     OW22464   6.660  12.706   3.184
 6897SOL    HW122465   6.580  12.737   3.227
 6897SOL    HW222466   6.701  12.786   3.150
 6898SOL     OW22467  12.806  13.728   1.764
 6898SOL    HW122468  12.801  13.822   1.781
 6898SOL    HW222469  12.725  13.708   1.717
 6899SOL     OW22470   6.076   7.053   1.327
 6899SOL    HW122471   6.093   7.080   1.237
 6899SOL    HW222472   5.983   7.070   1.339
 6900SOL     OW22473   6.644   3.410  14.352
 6900SOL    HW122474   6.685   3.339  14.302
 6900SOL    HW222475   6.684   3.490  14.317
 6901SOL     OW22476  14.590   0.492   6.388
 6901SOL    HW122477  14.591   0.396   6.391
 6901SOL    HW222478  14.620   0.513   6.300
 6902SOL     OW22479  10.311  12.492  13.510
 6902SOL    HW122480  10.350  12.569  13.469
 6902SOL    HW222481  10.315  12.424  13.443
 6903SOL     OW22482   2.568   5.090   2.687
 6903SOL    HW122483   2.504   5.019   2.690
 6903SOL    HW222484   2.533   5.156   2.747
 6904SOL     OW22485  13.875  14.043   7.305
 6904SOL    HW122486  13.790  14.026   7.344
 6904SOL    HW222487  13.890  13.970   7.245
 6905SOL     OW22488  13.433   1.630   6.945
 6905SOL    HW122489  13.524   1.600   6.938
 6905SOL    HW222490  13.381   1.551   6.927
 6906SOL     OW22491  11.500   8.020   6.887
 6906SOL    HW122492  11.571   8.064   6.840
 6906SOL    HW222493  11.473   8.082   6.955
 6907SOL     OW22494  13.167   7.342   3.685
 6907SOL    HW122495  13.249   7.296   3.666
 6907SOL    HW222496  13.184   7.433   3.661
 6908SOL     OW22497  10.943  14.437   9.056
 6908SOL    HW122498  10.905  14.443   9.143
 6908SOL    HW222499  10.898  14.364   9.014
 6909SOL     OW22500  12.563   8.641   5.588
 6909SOL    HW122501  12.481   8.652   5.540
 6909SOL    HW222502  12.547   8.567   5.646
 6910SOL     OW22503   5.733   6.624   8.472
 6910SOL    HW122504   5.665   6.594   8.532
 6910SOL    HW222505   5.813   6.582   8.504
 6911SOL     OW22506   5.451   8.262  13.774
 6911SOL    HW122507   5.481   8.191  13.717
 6911SOL    HW222508   5.370   8.294  13.733
 6912SOL     OW22509   9.995   6.480  10.662
 6912SOL    HW122510  10.074   6.496  10.611
 6912SOL    HW222511   9.931   6.449  10.598
 6913SOL     OW22512   0.438   9.179   7.050
 6913SOL    HW122513   0.362   9.155   7.103
 6913SOL    HW222514   0.401   9.211   6.967
 6914SOL     OW22515  14.509   1.513   1.385
 6914SOL    HW122516  14.468   1.480   1.305
 6914SOL    HW222517  14.560   1.439   1.418
 6915SOL     OW22518  10.799   2.567   0.257
 6915SOL    HW122519  10.722   2.572   0.201
 6915SOL    HW222520  10.768   2.525   0.337
 6916SOL     OW22521   7.752   1.553  14.551
 6916SOL    HW122522   7.684   1.556  14.484
 6916SOL    HW222523   7.830   1.520  14.506
 6917SOL     OW22524   3.007  13.219  11.792
 6917SOL    HW122525   3.015  13.185  11.703
 6917SOL    HW222526   2.913  13.211  11.812
 6918SOL     OW22527  14.226   3.926   5.276
 6918SOL    HW122528  14.134   3.905   5.263
 6918SOL    HW222529  14.273   3.871   5.213
 6919SOL     OW22530  14.225  12.956   7.503
 6919SOL    HW122531  14.294  12.913   7.553
 6919SOL    HW222532  14.254  12.948   7.412
 6920SOL     OW22533   7.773   2.604   3.109
 6920SOL    HW122534   7.695   2.603   3.053
 6920SOL    HW222535   7.776   2.693   3.143
 6921SOL     OW22536  10.557  12.426  10.545
 6921SOL    HW122537  10.615  12.356  10.515
 6921SOL    HW222538  10.580  12.501  10.490
 6922SOL     OW22539   4.142   3.130   6.663
 6922SOL    HW122540   4.090   3.128   6.743
 6922SOL    HW222541   4.189   3.046   6.663
 6923SOL     OW22542   4.891  14.736  10.334
 6923SOL    HW122543   4.932  14.757  10.250
 6923SOL    HW222544   4.804  14.705  10.311
 6924SOL     OW22545   0.765  13.149  14.367
 6924SOL    HW122546   0.762  13.209  14.293
 6924SOL    HW222547   0.691  13.090  14.354
 6925SOL     OW22548   8.550   0.414   1.669
 6925SOL    HW122549   8.523   0.323   1.681
 6925SOL    HW222550   8.506   0.441   1.588
 6926SOL     OW22551   1.178   5.687   7.976
 6926SOL    HW122552   1.246   5.623   7.954
 6926SOL    HW222553   1.112   5.636   8.024
 6927SOL     OW22554   9.163   9.083  12.799
 6927SOL    HW122555   9.217   9.070  12.877
 6927SOL    HW222556   9.075   9.097  12.833
 6928SOL     OW22557   8.633   7.952   2.184
 6928SOL    HW122558   8.557   7.917   2.137
 6928SOL    HW222559   8.602   7.965   2.274
 6929SOL     OW22560  14.240   2.458   5.933
 6929SOL    HW122561  14.297   2.469   5.857
 6929SOL    HW222562  14.285   2.504   6.004
 6930SOL     OW22563  14.034   5.926   9.155
 6930SOL    HW122564  13.943   5.900   9.165
 6930SOL    HW222565  14.084   5.847   9.174
 6931SOL     OW22566   8.924   9.855  14.389
 6931SOL    HW122567   8.897   9.896  14.306
 6931SOL    HW222568   9.020   9.858  14.387
 6932SOL     OW22569  12.900   5.478   2.334
 6932SOL    HW122570  12.989   5.507   2.313
 6932SOL    HW222571  12.852   5.485   2.251
 6933SOL     OW22572   1.556  12.459   9.616
 6933SOL    HW122573   1.526  12.458   9.525
 6933SOL    HW222574   1.504  12.527   9.657
 6934SOL     OW22575   8.221   0.420  13.638
 6934SOL    HW122576   8.144   0.476  13.640
 6934SOL    HW222577   8.290   0.471  13.681
 6935SOL     OW22578   1.322  10.644  14.660
 6935SOL    HW122579   1.340  10.555  14.690
 6935SOL    HW222580   1.380  10.656  14.585
 6936SOL     OW22581   2.624   2.699   1.350
 6936SOL    HW122582   2.686   2.739   1.411
 6936SOL    HW222583   2.595   2.619   1.394
 6937SOL     OW22584   9.810   6.858  12.191
 6937SOL    HW122585   9.865   6.844  12.114
 6937SOL    HW222586   9.721   6.862  12.156
 6938SOL     OW22587   9.323   9.193   7.554
 6938SOL    HW122588   9.341   9.287   7.555
 6938SOL    HW222589   9.276   9.177   7.636
 6939SOL     OW22590   3.623  10.127  13.942
 6939SOL    HW122591   3.690  10.121  14.010
 6939SOL    HW222592   3.570  10.203  13.968
 6940SOL     OW22593  13.242   7.712  13.857
 6940SOL    HW122594  13.335   7.711  13.880
 6940SOL    HW222595  13.240   7.692  13.763
 6941SOL     OW22596  11.052   4.152   6.438
 6941SOL    HW122597  10.957   4.154   6.421
 6941SOL    HW222598  11.084   4.079   6.385
 6942SOL     OW22599   2.622   2.374   9.641
 6942SOL    HW122600   2.560   2.306   9.614
 6942SOL    HW222601   2.637   2.427   9.563
 6943SOL     OW22602  13.743   2.959   9.738
 6943SOL    HW122603  13.818   2.992   9.787
 6943SOL    HW222604  13.692   3.037   9.717
 6944SOL     OW22605   4.313   2.454   1.319
 6944SOL    HW122606   4.232   2.408   1.298
 6944SOL    HW222607   4.285   2.541   1.347
 6945SOL     OW22608   3.837   3.605   4.855
 6945SOL    HW122609   3.754   3.612   4.902
 6945SOL    HW222610   3.896   3.664   4.902
 6946SOL     OW22611   5.163  12.810   3.744
 6946SOL    HW122612   5.246  12.775   3.711
 6946SOL    HW222613   5.096  12.755   3.704
 6947SOL     OW22614   1.162  10.817   8.455
 6947SOL    HW122615   1.089  10.784   8.403
 6947SOL    HW222616   1.240  10.793   8.405
 6948SOL     OW22617   1.825   5.123   3.664
 6948SOL    HW122618   1.787   5.088   3.583
 6948SOL    HW222619   1.911   5.156   3.638
 6949SOL     OW22620  11.076  12.266   1.026
 6949SOL    HW122621  10.999  12.239   1.076
 6949SOL    HW222622  11.126  12.321   1.086
 6950SOL     OW22623  11.544   4.391  14.665
 6950SOL    HW122624  11.539   4.427  14.576
 6950SOL    HW222625  11.499   4.307  14.659
 6951SOL     OW22626   6.519   5.898   5.397
 6951SOL    HW122627   6.484   5.976   5.438
 6951SOL    HW222628   6.442   5.845   5.375
 6952SOL     OW22629   1.156  13.233   0.374
 6952SOL    HW122630   1.160  13.255   0.466
 6952SOL    HW222631   1.202  13.304   0.329
 6953SOL     OW22632   7.510  13.403  12.883
 6953SOL    HW122633   7.417  13.378  12.879
 6953SOL    HW222634   7.540  13.370  12.967
 6954SOL     OW22635   5.158   0.283  12.595
 6954SOL    HW122636   5.224   0.350  12.578
 6954SOL    HW222637   5.208   0.206  12.620
 6955SOL     OW22638   2.289   8.696   7.786
 6955SOL    HW122639   2.317   8.639   7.714
 6955SOL    HW222640   2.365   8.698   7.845
 6956SOL     OW22641   6.723  13.715   3.224
 6956SOL    HW122642   6.779  13.787   3.195
 6956SOL    HW222643   6.751  13.697   3.314
 6957SOL     OW22644   6.932   6.349  12.148
 6957SOL    HW122645   6.970   6.286  12.086
 6957SOL    HW222646   6.939   6.433  12.104
 6958SOL     OW22647  13.751  14.457   8.206
 6958SOL    HW122648  13.741  14.430   8.115
 6958SOL    HW222649  13.840  14.493   8.211
 6959SOL     OW22650  10.795   8.784  13.342
 6959SOL    HW122651  10.740   8.711  13.311
 6959SOL    HW222652  10.884   8.756  13.323
 6960SOL     OW22653   8.851   9.971  14.641
 6960SOL    HW122654   8.840   9.919  14.561
 6960SOL    HW222655   8.777   9.947  14.696
 6961SOL     OW22656   6.315  12.758   8.463
 6961SOL    HW122657   6.381  12.827   8.451
 6961SOL    HW222658   6.243  12.784   8.405
 6962SOL     OW22659   6.649   9.545   6.910
 6962SOL    HW122660   6.600   9.501   6.980
 6962SOL    HW222661   6.703   9.476   6.872
 6963SOL     OW22662   1.658   8.488  10.226
 6963SOL    HW122663   1.732   8.481  10.286
 6963SOL    HW222664   1.697   8.518  10.143
 6964SOL     OW22665   4.982  14.429  11.463
 6964SOL    HW122666   4.933  14.428  11.545
 6964SOL    HW222667   5.015  14.519  11.457
 6965SOL     OW22668   0.352   7.976  14.114
 6965SOL    HW122669   0.287   7.910  14.093
 6965SOL    HW222670   0.426   7.927  14.150
 6966SOL     OW22671   2.614  11.975   4.476
 6966SOL    HW122672   2.669  12.051   4.460
 6966SOL    HW222673   2.533  11.991   4.427
 6967SOL     OW22674   4.927   6.502   4.420
 6967SOL    HW122675   4.988   6.575   4.406
 6967SOL    HW222676   4.983   6.425   4.430
 6968SOL     OW22677   9.416   9.815  13.946
 6968SOL    HW122678   9.442   9.727  13.973
 6968SOL    HW222679   9.340   9.836  14.001
 6969SOL     OW22680  11.037  12.107   5.873
 6969SOL    HW122681  10.976  12.042   5.838
 6969SOL    HW222682  11.088  12.136   5.798
 6970SOL     OW22683  12.099   1.070   7.398
 6970SOL    HW122684  12.153   1.150   7.403
 6970SOL    HW222685  12.163   0.999   7.388
 6971SOL     OW22686   3.657   4.400   2.448
 6971SOL    HW122687   3.726   4.380   2.511
 6971SOL    HW222688   3.689   4.477   2.401
 6972SOL     OW22689  11.998   8.250   6.881
 6972SOL    HW122690  11.997   8.188   6.954
 6972SOL    HW222691  11.961   8.330   6.918
 6973SOL     OW22692   3.948   6.188  14.517
 6973SOL    HW122693   4.031   6.155  14.550
 6973SOL    HW222694   3.882   6.128  14.552
 6974SOL     OW22695   9.243   5.154  12.728
 6974SOL    HW122696   9.204   5.091  12.788
 6974SOL    HW222697   9.336   5.155  12.752
 6975SOL     OW22698   9.961   2.663   2.142
 6975SOL    HW122699  10.040   2.703   2.106
 6975SOL    HW222700   9.913   2.735   2.181
 6976SOL     OW22701   5.973  12.793  13.844
 6976SOL    HW122702   5.902  12.729  13.841
 6976SOL    HW222703   5.992  12.812  13.752
 6977SOL     OW22704   0.888  12.650  10.544
 6977SOL    HW122705   0.921  12.560  10.535
 6977SOL    HW222706   0.951  12.703  10.495
 6978SOL     OW22707  11.974   0.806  12.624
 6978SOL    HW122708  11.897   0.845  12.582
 6978SOL    HW222709  12.033   0.785  12.552
 6979SOL     OW22710   9.726   0.644   8.860
 6979SOL    HW122711   9.664   0.571   8.860
 6979SOL    HW222712   9.785   0.626   8.933
 6980SOL     OW22713   3.871   4.611   5.014
 6980SOL    HW122714   3.820   4.577   4.940
 6980SOL    HW222715   3.844   4.703   5.020
 6981SOL     OW22716  12.038   3.713   1.365
 6981SOL    HW122717  11.956   3.719   1.315
 6981SOL    HW222718  12.010   3.706   1.456
 6982SOL     OW22719  12.382   3.043   9.558
 6982SOL    HW122720  12.455   2.983   9.540
 6982SOL    HW222721  12.332   3.045   9.476
 6983SOL     OW22722   4.149  11.430   4.574
 6983SOL    HW122723   4.113  11.347   4.542
 6983SOL    HW222724   4.243  11.413   4.581
 6984SOL     OW22725   2.022   7.842   3.727
 6984SOL    HW122726   1.962   7.917   3.727
 6984SOL    HW222727   2.023   7.811   3.817
 6985SOL     OW22728   6.685  11.584  14.072
 6985SOL    HW122729   6.717  11.541  14.151
 6985SOL    HW222730   6.746  11.556  14.004
 6986SOL     OW22731  11.647   8.429  14.823
 6986SOL    HW122732  11.607   8.407  14.740
 6986SOL    HW222733  11.594   8.502  14.857
 6987SOL     OW22734   0.658  11.571   9.449
 6987SOL    HW122735   0.597  11.503   9.423
 6987SOL    HW222736   0.640  11.644   9.389
 6988SOL     OW22737  13.482   5.551  12.922
 6988SOL    HW122738  13.482   5.598  13.005
 6988SOL    HW222739  13.490   5.459  12.947
 6989SOL     OW22740   8.806   8.761   7.923
 6989SOL    HW122741   8.837   8.702   7.854
 6989SOL    HW222742   8.884   8.808   7.953
 6990SOL     OW22743  13.411  11.949  11.580
 6990SOL    HW122744  13.366  11.975  11.499
 6990SOL    HW222745  13.484  11.895  11.550
 6991SOL     OW22746  10.655  14.153  12.434
 6991SOL    HW122747  10.750  14.138  12.430
 6991SOL    HW222748  10.635  14.157  12.527
 6992SOL     OW22749  12.248   5.245   4.319
 6992SOL    HW122750  12.277   5.240   4.228
 6992SOL    HW222751  12.232   5.154   4.345
 6993SOL     OW22752  11.305   5.877  13.405
 6993SOL    HW122753  11.241   5.899  13.472
 6993SOL    HW222754  11.347   5.960  13.384
 6994SOL     OW22755  14.339   2.573  10.496
 6994SOL    HW122756  14.304   2.619  10.572
 6994SOL    HW222757  14.434   2.571  10.511
 6995SOL     OW22758  14.231   4.334   1.478
 6995SOL    HW122759  14.189   4.251   1.455
 6995SOL    HW222760  14.290   4.352   1.405
 6996SOL     OW22761   8.678   9.828   6.278
 6996SOL    HW122762   8.689   9.923   6.287
 6996SOL    HW222763   8.643   9.817   6.189
 6997SOL     OW22764  14.114  14.619   8.747
 6997SOL    HW122765  14.042  14.578   8.795
 6997SOL    HW222766  14.188  14.560   8.760
 6998SOL     OW22767   7.914  10.616  14.273
 6998SOL    HW122768   7.931  10.707  14.251
 6998SOL    HW222769   7.907  10.572  14.188
 6999SOL     OW22770   7.247  13.912   3.598
 6999SOL    HW122771   7.323  13.865   3.562
 6999SOL    HW222772   7.245  13.995   3.550
 7000SOL     OW22773   1.415  13.623  13.562
 7000SOL    HW122774   1.478  13.695  13.565
 7000SOL    HW222775   1.459  13.555  13.510
 7001SOL     OW22776   9.876  13.509   0.244
 7001SOL    HW122777   9.933  13.560   0.187
 7001SOL    HW222778   9.853  13.570   0.315
 7002SOL     OW22779  12.623  13.263  11.989
 7002SOL    HW122780  12.689  13.328  11.964
 7002SOL    HW222781  12.541  13.313  11.993
 7003SOL     OW22782   8.448   2.918   3.524
 7003SOL    HW122783   8.534   2.958   3.538
 7003SOL    HW222784   8.462   2.824   3.537
 7004SOL     OW22785  11.842   6.783   5.035
 7004SOL    HW122786  11.856   6.704   4.983
 7004SOL    HW222787  11.800   6.845   4.975
 7005SOL     OW22788   4.261  14.553  11.972
 7005SOL    HW122789   4.276  14.605  12.051
 7005SOL    HW222790   4.343  14.505  11.959
 7006SOL     OW22791  12.282   4.717  11.555
 7006SOL    HW122792  12.353   4.687  11.499
 7006SOL    HW222793  12.223   4.642  11.562
 7007SOL     OW22794   6.448  10.317   4.566
 7007SOL    HW122795   6.442  10.295   4.473
 7007SOL    HW222796   6.498  10.245   4.604
 7008SOL     OW22797  12.432  13.909   3.779
 7008SOL    HW122798  12.367  13.866   3.834
 7008SOL    HW222799  12.495  13.839   3.758
 7009SOL     OW22800  10.547   9.416  13.806
 7009SOL    HW122801  10.584   9.328  13.808
 7009SOL    HW222802  10.473   9.410  13.746
 7010SOL     OW22803  13.320   0.059   2.657
 7010SOL    HW122804  13.327   0.115   2.734
 7010SOL    HW222805  13.290   0.117   2.588
 7011SOL     OW22806   2.699   0.379   9.099
 7011SOL    HW122807   2.722   0.317   9.029
 7011SOL    HW222808   2.765   0.448   9.091
 7012SOL     OW22809   6.444  14.219  12.314
 7012SOL    HW122810   6.358  14.246  12.283
 7012SOL    HW222811   6.473  14.153  12.251
 7013SOL     OW22812   8.556  12.401   0.669
 7013SOL    HW122813   8.602  12.482   0.694
 7013SOL    HW222814   8.476  12.432   0.627
 7014SOL     OW22815  12.598   8.085   4.226
 7014SOL    HW122816  12.568   8.156   4.169
 7014SOL    HW222817  12.599   8.008   4.169
 7015SOL     OW22818   7.312  10.655  10.007
 7015SOL    HW122819   7.382  10.589  10.000
 7015SOL    HW222820   7.274  10.659   9.919
 7016SOL     OW22821  14.407   1.076   2.248
 7016SOL    HW122822  14.380   1.023   2.173
 7016SOL    HW222823  14.415   1.013   2.319
 7017SOL     OW22824  10.603   6.564   7.053
 7017SOL    HW122825  10.625   6.471   7.060
 7017SOL    HW222826  10.510   6.568   7.076
 7018SOL     OW22827   2.348  11.459   2.308
 7018SOL    HW122828   2.344  11.430   2.399
 7018SOL    HW222829   2.273  11.519   2.299
 7019SOL     OW22830   4.667   0.660  11.903
 7019SOL    HW122831   4.693   0.594  11.968
 7019SOL    HW222832   4.674   0.614  11.819
 7020SOL     OW22833   8.943  14.553   3.784
 7020SOL    HW122834   8.957  14.492   3.712
 7020SOL    HW222835   8.876  14.613   3.752
 7021SOL     OW22836  13.299   7.415  12.779
 7021SOL    HW122837  13.207   7.403  12.804
 7021SOL    HW222838  13.341   7.332  12.799
 7022SOL     OW22839   1.413   6.347   3.745
 7022SOL    HW122840   1.373   6.262   3.767
 7022SOL    HW222841   1.349   6.390   3.689
 7023SOL     OW22842   1.575   0.323   2.436
 7023SOL    HW122843   1.519   0.304   2.361
 7023SOL    HW222844   1.654   0.361   2.398
 7024SOL     OW22845   8.675   0.400  14.871
 7024SOL    HW122846   8.670   0.319  14.821
 7024SOL    HW222847   8.765   0.403   0.022
 7025SOL     OW22848  10.933  10.947  13.997
 7025SOL    HW122849  10.866  10.885  14.027
 7025SOL    HW222850  10.992  10.894  13.944
 7026SOL     OW22851   5.318  13.443   6.194
 7026SOL    HW122852   5.304  13.446   6.288
 7026SOL    HW222853   5.413  13.438   6.184
 7027SOL     OW22854  14.079   4.053   1.055
 7027SOL    HW122855  14.048   4.009   0.976
 7027SOL    HW222856  14.172   4.070   1.038
 7028SOL     OW22857   6.484   7.200   8.177
 7028SOL    HW122858   6.502   7.193   8.271
 7028SOL    HW222859   6.402   7.153   8.164
 7029SOL     OW22860  11.584   7.602   5.247
 7029SOL    HW122861  11.527   7.666   5.288
 7029SOL    HW222862  11.662   7.652   5.222
 7030SOL     OW22863   1.503  10.254   1.325
 7030SOL    HW122864   1.569  10.296   1.270
 7030SOL    HW222865   1.485  10.319   1.394
 7031SOL     OW22866   2.291  10.268   6.609
 7031SOL    HW122867   2.278  10.192   6.551
 7031SOL    HW222868   2.349  10.235   6.678
 7032SOL     OW22869   9.586  14.729   9.302
 7032SOL    HW122870   9.517  14.743   9.367
 7032SOL    HW222871   9.571  14.798   9.236
 7033SOL     OW22872   2.393   8.640   7.355
 7033SOL    HW122873   2.365   8.706   7.292
 7033SOL    HW222874   2.487   8.652   7.363
 7034SOL     OW22875   0.378  11.758   2.142
 7034SOL    HW122876   0.340  11.838   2.106
 7034SOL    HW222877   0.469  11.781   2.160
 7035SOL     OW22878  11.820   9.425   2.847
 7035SOL    HW122879  11.887   9.390   2.906
 7035SOL    HW222880  11.870   9.469   2.778
 7036SOL     OW22881  11.078   8.584   8.949
 7036SOL    HW122882  11.011   8.637   8.991
 7036SOL    HW222883  11.077   8.612   8.857
 7037SOL     OW22884  11.506  13.757  13.730
 7037SOL    HW122885  11.444  13.777  13.799
 7037SOL    HW222886  11.521  13.663  13.737
 7038SOL     OW22887   3.920   3.570   3.084
 7038SOL    HW122888   3.881   3.507   3.145
 7038SOL    HW222889   3.887   3.545   2.998
 7039SOL     OW22890   7.205   5.048   7.402
 7039SOL    HW122891   7.227   4.958   7.428
 7039SOL    HW222892   7.195   5.043   7.307
 7040SOL     OW22893  10.867   0.880   1.061
 7040SOL    HW122894  10.829   0.812   1.005
 7040SOL    HW222895  10.805   0.889   1.133
 7041SOL     OW22896  10.031   3.681   2.817
 7041SOL    HW122897  10.025   3.632   2.899
 7041SOL    HW222898   9.952   3.735   2.816
 7042SOL     OW22899   1.072  12.083  12.379
 7042SOL    HW122900   1.163  12.087  12.408
 7042SOL    HW222901   1.023  12.125  12.449
 7043SOL     OW22902  13.610  11.667   0.013
 7043SOL    HW122903  13.654  11.664  14.809
 7043SOL    HW222904  13.681  11.655   0.076
 7044SOL     OW22905   1.078   2.370   1.050
 7044SOL    HW122906   1.056   2.395   1.140
 7044SOL    HW222907   1.107   2.452   1.009
 7045SOL     OW22908   5.748   3.939   6.581
 7045SOL    HW122909   5.776   3.949   6.490
 7045SOL    HW222910   5.807   3.997   6.630
 7046SOL     OW22911  11.055  11.488   3.957
 7046SOL    HW122912  11.071  11.527   3.871
 7046SOL    HW222913  11.140  11.496   4.002
 7047SOL     OW22914   0.029   0.039   0.032
 7047SOL    HW122915   0.066  14.847  14.865
 7047SOL    HW222916  14.822   0.050  14.877
 7048SOL     OW22917   5.515   2.974  13.802
 7048SOL    HW122918   5.557   2.891  13.777
 7048SOL    HW222919   5.568   3.041  13.760
 7049SOL     OW22920   4.685  12.681   7.205
 7049SOL    HW122921   4.601  12.657   7.167
 7049SOL    HW222922   4.750  12.637   7.150
 7050SOL     OW22923   6.560  13.155   5.171
 7050SOL    HW122924   6.543  13.232   5.225
 7050SOL    HW222925   6.620  13.101   5.224
 7051SOL     OW22926  12.230   8.165   4.774
 7051SOL    HW122927  12.207   8.102   4.842
 7051SOL    HW222928  12.147   8.181   4.728
 7052SOL     OW22929  13.965  13.360   3.250
 7052SOL    HW122930  14.009  13.322   3.174
 7052SOL    HW222931  13.916  13.287   3.288
 7053SOL     OW22932   2.668   3.789   2.564
 7053SOL    HW122933   2.649   3.879   2.591
 7053SOL    HW222934   2.597   3.767   2.502
 7054SOL     OW22935   5.846   9.140   5.259
 7054SOL    HW122936   5.913   9.208   5.264
 7054SOL    HW222937   5.765   9.183   5.286
 7055SOL     OW22938  10.687   9.279   5.882
 7055SOL    HW122939  10.634   9.268   5.803
 7055SOL    HW222940  10.715   9.371   5.880
 7056SOL     OW22941   1.823  10.166   2.714
 7056SOL    HW122942   1.828  10.256   2.682
 7056SOL    HW222943   1.730  10.150   2.726
 7057SOL     OW22944   5.568   6.139   1.306
 7057SOL    HW122945   5.557   6.188   1.225
 7057SOL    HW222946   5.633   6.071   1.285
 7058SOL     OW22947   3.778  13.066   9.489
 7058SOL    HW122948   3.795  13.123   9.414
 7058SOL    HW222949   3.738  12.987   9.451
 7059SOL     OW22950   9.430  10.663   4.026
 7059SOL    HW122951   9.418  10.569   4.042
 7059SOL    HW222952   9.406  10.675   3.934
 7060SOL     OW22953  12.765   4.002   2.439
 7060SOL    HW122954  12.755   3.924   2.384
 7060SOL    HW222955  12.802   4.068   2.381
 7061SOL     OW22956   3.024  11.866  12.449
 7061SOL    HW122957   2.952  11.838  12.392
 7061SOL    HW222958   3.081  11.918  12.393
 7062SOL     OW22959  11.310   6.869   9.317
 7062SOL    HW122960  11.340   6.906   9.400
 7062SOL    HW222961  11.294   6.777   9.335
 7063SOL     OW22962  13.724  10.986   6.173
 7063SOL    HW122963  13.743  10.896   6.199
 7063SOL    HW222964  13.787  11.038   6.221
 7064SOL     OW22965   3.373   2.771   4.811
 7064SOL    HW122966   3.292   2.734   4.847
 7064SOL    HW222967   3.391   2.717   4.734
 7065SOL     OW22968   4.228   6.761   2.954
 7065SOL    HW122969   4.281   6.681   2.955
 7065SOL    HW222970   4.250   6.806   3.035
 7066SOL     OW22971  11.441   4.182  11.791
 7066SOL    HW122972  11.474   4.210  11.876
 7066SOL    HW222973  11.487   4.101  11.772
 7067SOL     OW22974   0.085   6.748  10.875
 7067SOL    HW122975   0.065   6.838  10.900
 7067SOL    HW222976   0.093   6.702  10.959
 7068SOL     OW22977   0.707  13.002   8.481
 7068SOL    HW122978   0.707  12.931   8.416
 7068SOL    HW222979   0.753  13.073   8.438
 7069SOL     OW22980   3.493   6.116  14.623
 7069SOL    HW122981   3.410   6.128  14.669
 7069SOL    HW222982   3.469   6.113  14.530
 7070SOL     OW22983  14.540  10.419  13.639
 7070SOL    HW122984  14.501  10.450  13.721
 7070SOL    HW222985  14.482  10.348  13.611
 7071SOL     OW22986   9.445  14.268   3.868
 7071SOL    HW122987   9.505  14.341   3.878
 7071SOL    HW222988   9.486  14.212   3.802
 7072SOL     OW22989  13.281   7.395   0.499
 7072SOL    HW122990  13.218   7.333   0.464
 7072SOL    HW222991  13.249   7.413   0.588
 7073SOL     OW22992   6.517   7.405   9.386
 7073SOL    HW122993   6.470   7.486   9.406
 7073SOL    HW222994   6.508   7.351   9.464
 7074SOL     OW22995   2.152   2.743   2.032
 7074SOL    HW122996   2.222   2.691   2.070
 7074SOL    HW222997   2.100   2.681   1.981
 7075SOL     OW22998   6.061  13.812  11.012
 7075SOL    HW122999   6.074  13.898  10.971
 7075SOL    HW223000   6.038  13.832  11.103
 7076SOL     OW23001   7.079   1.354  11.695
 7076SOL    HW123002   6.986   1.336  11.708
 7076SOL    HW223003   7.119   1.267  11.689
 7077SOL     OW23004   7.802  13.294   1.056
 7077SOL    HW123005   7.888  13.253   1.043
 7077SOL    HW223006   7.805  13.327   1.145
 7078SOL     OW23007  11.943  10.131   5.394
 7078SOL    HW123008  11.934  10.052   5.341
 7078SOL    HW223009  11.901  10.108   5.477
 7079SOL     OW23010   5.698   8.724   2.352
 7079SOL    HW123011   5.765   8.766   2.298
 7079SOL    HW223012   5.726   8.633   2.359
 7080SOL     OW23013  10.334   5.320  12.543
 7080SOL    HW123014  10.265   5.260  12.515
 7080SOL    HW223015  10.288   5.402  12.562
 7081SOL     OW23016   1.532   7.507   5.783
 7081SOL    HW123017   1.504   7.435   5.727
 7081SOL    HW223018   1.586   7.563   5.727
 7082SOL     OW23019   1.365   8.601  11.990
 7082SOL    HW123020   1.408   8.518  11.970
 7082SOL    HW223021   1.400   8.626  12.076
 7083SOL     OW23022   0.398   5.601   8.016
 7083SOL    HW123023   0.422   5.689   7.988
 7083SOL    HW223024   0.438   5.544   7.951
 7084SOL     OW23025   9.514   9.909  11.690
 7084SOL    HW123026   9.473   9.966  11.755
 7084SOL    HW223027   9.451   9.840  11.675
 7085SOL     OW23028  12.143   8.548   0.028
 7085SOL    HW123029  12.065   8.513  14.866
 7085SOL    HW223030  12.116   8.560   0.119
 7086SOL     OW23031   3.339   9.240   7.868
 7086SOL    HW123032   3.289   9.321   7.879
 7086SOL    HW223033   3.430   9.270   7.856
 7087SOL     OW23034  13.662   1.258   4.306
 7087SOL    HW123035  13.621   1.341   4.332
 7087SOL    HW223036  13.727   1.242   4.375
 7088SOL     OW23037   5.636  12.673   9.684
 7088SOL    HW123038   5.711  12.732   9.683
 7088SOL    HW223039   5.674  12.586   9.691
 7089SOL     OW23040  12.483  13.854   9.984
 7089SOL    HW123041  12.402  13.905   9.983
 7089SOL    HW223042  12.456  13.766  10.011
 7090SOL     OW23043  12.106   8.977   0.225
 7090SOL    HW123044  12.071   8.990   0.137
 7090SOL    HW223045  12.137   8.886   0.225
 7091SOL     OW23046  12.457   5.510   6.218
 7091SOL    HW123047  12.403   5.433   6.236
 7091SOL    HW223048  12.539   5.493   6.264
 7092SOL     OW23049  13.922   5.187  11.097
 7092SOL    HW123050  13.939   5.223  11.185
 7092SOL    HW223051  14.008   5.157  11.067
 7093SOL     OW23052  12.615   0.943   5.798
 7093SOL    HW123053  12.606   0.869   5.857
 7093SOL    HW223054  12.536   0.940   5.744
 7094SOL     OW23055   6.339  11.926  11.089
 7094SOL    HW123056   6.300  11.866  11.153
 7094SOL    HW223057   6.266  11.952  11.033
 7095SOL     OW23058   1.015   1.140  13.513
 7095SOL    HW123059   1.057   1.123  13.429
 7095SOL    HW223060   1.069   1.208  13.554
 7096SOL     OW23061   8.463  13.347  10.096
 7096SOL    HW123062   8.435  13.369  10.185
 7096SOL    HW223063   8.435  13.256  10.084
 7097SOL     OW23064   1.084  10.794   7.821
 7097SOL    HW123065   1.119  10.879   7.794
 7097SOL    HW223066   1.162  10.745   7.851
 7098SOL     OW23067   6.902  11.202  13.591
 7098SOL    HW123068   6.962  11.238  13.526
 7098SOL    HW223069   6.945  11.121  13.621
 7099SOL     OW23070   4.496   8.960   6.710
 7099SOL    HW123071   4.459   8.879   6.747
 7099SOL    HW223072   4.565   8.929   6.651
 7100SOL     OW23073   4.614   5.766  12.054
 7100SOL    HW123074   4.681   5.808  12.000
 7100SOL    HW223075   4.594   5.684  12.009
 7101SOL     OW23076   0.270   5.527  11.013
 7101SOL    HW123077   0.211   5.454  10.996
 7101SOL    HW223078   0.320   5.499  11.090
 7102SOL     OW23079   9.265   6.986  12.597
 7102SOL    HW123080   9.179   7.026  12.584
 7102SOL    HW223081   9.294   6.963  12.509
 7103SOL     OW23082  11.661  13.145   9.815
 7103SOL    HW123083  11.696  13.223   9.772
 7103SOL    HW223084  11.735  13.085   9.823
 7104SOL     OW23085  14.343   9.359  14.465
 7104SOL    HW123086  14.432   9.333  14.444
 7104SOL    HW223087  14.319   9.423  14.398
 7105SOL     OW23088   7.591   1.802   3.575
 7105SOL    HW123089   7.677   1.811   3.534
 7105SOL    HW223090   7.537   1.867   3.531
 7106SOL     OW23091   3.043  12.770   2.393
 7106SOL    HW123092   3.035  12.676   2.383
 7106SOL    HW223093   2.978  12.793   2.460
 7107SOL     OW23094   1.363   6.330  13.972
 7107SOL    HW123095   1.432   6.348  14.036
 7107SOL    HW223096   1.283   6.362  14.014
 7108SOL     OW23097   4.670   3.405   4.284
 7108SOL    HW123098   4.702   3.371   4.201
 7108SOL    HW223099   4.747   3.411   4.340
 7109SOL     OW23100   8.326   1.966   3.451
 7109SOL    HW123101   8.309   1.877   3.420
 7109SOL    HW223102   8.381   1.954   3.529
 7110SOL     OW23103  12.853  12.054   3.587
 7110SOL    HW123104  12.790  12.014   3.647
 7110SOL    HW223105  12.928  12.076   3.642
 7111SOL     OW23106   7.028  14.106  14.150
 7111SOL    HW123107   7.054  14.196  14.166
 7111SOL    HW223108   7.023  14.066  14.236
 7112SOL     OW23109   3.891   0.903   2.580
 7112SOL    HW123110   3.880   0.875   2.671
 7112SOL    HW223111   3.979   0.940   2.577
 7113SOL     OW23112  10.850   4.679   5.466
 7113SOL    HW123113  10.787   4.727   5.412
 7113SOL    HW223114  10.796   4.618   5.518
 7114SOL     OW23115   4.462  13.618  12.935
 7114SOL    HW123116   4.470  13.540  12.990
 7114SOL    HW223117   4.405  13.677  12.984
 7115SOL     OW23118   5.252   9.057   0.804
 7115SOL    HW123119   5.321   8.992   0.791
 7115SOL    HW223120   5.173   9.005   0.822
 7116SOL     OW23121   2.527  12.928  14.258
 7116SOL    HW123122   2.568  12.847  14.289
 7116SOL    HW223123   2.555  12.994  14.321
 7117SOL     OW23124  14.146  14.141  12.290
 7117SOL    HW123125  14.202  14.194  12.347
 7117SOL    HW223126  14.153  14.052  12.324
 7118SOL     OW23127  14.476   0.670   6.942
 7118SOL    HW123128  14.467   0.738   6.875
 7118SOL    HW223129  14.466   0.588   6.893
 7119SOL     OW23130   1.481  10.544   7.117
 7119SOL    HW123131   1.559  10.512   7.163
 7119SOL    HW223132   1.435  10.596   7.183
 7120SOL     OW23133   9.650   6.261   5.845
 7120SOL    HW123134   9.740   6.293   5.849
 7120SOL    HW223135   9.619   6.282   5.757
 7121SOL     OW23136  14.783  12.600   9.772
 7121SOL    HW123137  14.782  12.517   9.819
 7121SOL    HW223138  14.870  12.637   9.790
 7122SOL     OW23139  13.557   7.100   5.065
 7122SOL    HW123140  13.597   7.026   5.022
 7122SOL    HW223141  13.564   7.172   5.003
 7123SOL     OW23142   9.353  10.454   7.982
 7123SOL    HW123143   9.278  10.404   8.013
 7123SOL    HW223144   9.348  10.449   7.887
 7124SOL     OW23145   2.403   5.228   6.335
 7124SOL    HW123146   2.493   5.197   6.333
 7124SOL    HW223147   2.384   5.241   6.428
 7125SOL     OW23148   6.888   7.801   2.787
 7125SOL    HW123149   6.948   7.784   2.714
 7125SOL    HW223150   6.914   7.739   2.855
 7126SOL     OW23151   5.424   4.285   7.078
 7126SOL    HW123152   5.501   4.337   7.102
 7126SOL    HW223153   5.381   4.267   7.161
 7127SOL     OW23154  13.870   2.815  13.570
 7127SOL    HW123155  13.935   2.872  13.611
 7127SOL    HW223156  13.906   2.727  13.580
 7128SOL     OW23157  11.555   2.818   5.484
 7128SOL    HW123158  11.519   2.749   5.540
 7128SOL    HW223159  11.647   2.794   5.474
 7129SOL     OW23160  11.569   0.578   2.139
 7129SOL    HW123161  11.609   0.634   2.072
 7129SOL    HW223162  11.634   0.577   2.210
 7130SOL     OW23163   8.938   9.790   5.616
 7130SOL    HW123164   8.964   9.881   5.598
 7130SOL    HW223165   8.847   9.786   5.589
 7131SOL     OW23166   0.385  14.703  11.167
 7131SOL    HW123167   0.477  14.723  11.185
 7131SOL    HW223168   0.339  14.784  11.187
 7132SOL     OW23169   7.310  14.569  10.569
 7132SOL    HW123170   7.221  14.546  10.595
 7132SOL    HW223171   7.312  14.552  10.474
 7133SOL     OW23172   9.154   3.462   6.621
 7133SOL    HW123173   9.186   3.452   6.710
 7133SOL    HW223174   9.233   3.456   6.567
 7134SOL     OW23175   5.982   9.348  14.310
 7134SOL    HW123176   6.007   9.428  14.357
 7134SOL    HW223177   6.061   9.294  14.309
 7135SOL     OW23178  12.754   6.789  10.564
 7135SOL    HW123179  12.722   6.749  10.483
 7135SOL    HW223180  12.775   6.879  10.540
 7136SOL     OW23181   3.575   2.721  12.456
 7136SOL    HW123182   3.537   2.690  12.538
 7136SOL    HW223183   3.500   2.754  12.406
 7137SOL     OW23184  11.981   5.155   9.273
 7137SOL    HW123185  12.071   5.184   9.258
 7137SOL    HW223186  11.965   5.089   9.206
 7138SOL     OW23187   1.108   7.296  10.520
 7138SOL    HW123188   1.169   7.277  10.449
 7138SOL    HW223189   1.021   7.294  10.478
 7139SOL     OW23190   8.345  12.749  10.813
 7139SOL    HW123191   8.409  12.693  10.857
 7139SOL    HW223192   8.274  12.758  10.876
 7140SOL     OW23193   5.592  11.762   6.744
 7140SOL    HW123194   5.585  11.730   6.654
 7140SOL    HW223195   5.515  11.726   6.788
 7141SOL     OW23196  10.564   8.563  14.724
 7141SOL    HW123197  10.652   8.566  14.687
 7141SOL    HW223198  10.515   8.630  14.675
 7142SOL     OW23199  12.068   5.450   6.241
 7142SOL    HW123200  12.028   5.390   6.178
 7142SOL    HW223201  12.151   5.408   6.264
 7143SOL     OW23202   7.394   9.613   2.743
 7143SOL    HW123203   7.409   9.666   2.665
 7143SOL    HW223204   7.443   9.658   2.812
 7144SOL     OW23205   2.081  12.635  14.203
 7144SOL    HW123206   1.998  12.671  14.170
 7144SOL    HW223207   2.147  12.699  14.175
 7145SOL     OW23208   2.412  14.462  11.757
 7145SOL    HW123209   2.408  14.400  11.830
 7145SOL    HW223210   2.385  14.410  11.681
 7146SOL     OW23211   9.560   3.575   8.091
 7146SOL    HW123212   9.651   3.559   8.063
 7146SOL    HW223213   9.516   3.491   8.075
 7147SOL     OW23214   5.893   6.874  10.741
 7147SOL    HW123215   5.869   6.791  10.701
 7147SOL    HW223216   5.895   6.856  10.835
 7148SOL     OW23217   5.273  12.207  13.822
 7148SOL    HW123218   5.259  12.300  13.801
 7148SOL    HW223219   5.297  12.167  13.738
 7149SOL     OW23220  12.824   3.242  12.550
 7149SOL    HW123221  12.920   3.239  12.547
 7149SOL    HW223222  12.798   3.267  12.462
 7150SOL     OW23223   8.151   7.768   3.104
 7150SOL    HW123224   8.200   7.847   3.130
 7150SOL    HW223225   8.212   7.719   3.050
 7151SOL     OW23226  12.402  10.958   9.468
 7151SOL    HW123227  12.408  10.868   9.499
 7151SOL    HW223228  12.479  11.001   9.504
 7152SOL     OW23229   9.498   6.336  14.671
 7152SOL    HW123230   9.444   6.413  14.651
 7152SOL    HW223231   9.444   6.283  14.729
 7153SOL     OW23232   1.428   7.732   4.976
 7153SOL    HW123233   1.377   7.813   4.970
 7153SOL    HW223234   1.397   7.691   5.056
 7154SOL     OW23235  11.808   6.447  10.339
 7154SOL    HW123236  11.802   6.492  10.255
 7154SOL    HW223237  11.746   6.494  10.395
 7155SOL     OW23238   0.683   4.872   8.761
 7155SOL    HW123239   0.724   4.807   8.819
 7155SOL    HW223240   0.618   4.915   8.816
 7156SOL     OW23241  12.398  13.368  11.296
 7156SOL    HW123242  12.337  13.399  11.229
 7156SOL    HW223243  12.450  13.300  11.253
 7157SOL     OW23244   5.692   8.552   7.409
 7157SOL    HW123245   5.699   8.464   7.371
 7157SOL    HW223246   5.783   8.579   7.422
 7158SOL     OW23247   7.256   9.591  13.803
 7158SOL    HW123248   7.183   9.646  13.834
 7158SOL    HW223249   7.214   9.529  13.744
 7159SOL     OW23250  14.368  11.590   5.835
 7159SOL    HW123251  14.288  11.632   5.802
 7159SOL    HW223252  14.337  11.512   5.881
 7160SOL     OW23253  13.411   8.909  14.462
 7160SOL    HW123254  13.423   8.827  14.509
 7160SOL    HW223255  13.364   8.886  14.382
 7161SOL     OW23256   0.378  13.018  10.919
 7161SOL    HW123257   0.305  13.074  10.947
 7161SOL    HW223258   0.394  12.960  10.993
 7162SOL     OW23259   0.518   8.571   0.162
 7162SOL    HW123260   0.489   8.483   0.138
 7162SOL    HW223261   0.575   8.598   0.090
 7163SOL     OW23262   1.204   8.079   6.114
 7163SOL    HW123263   1.116   8.057   6.144
 7163SOL    HW223264   1.190   8.142   6.043
 7164SOL     OW23265  10.641   5.270   5.173
 7164SOL    HW123266  10.594   5.350   5.152
 7164SOL    HW223267  10.733   5.297   5.176
 7165SOL     OW23268   5.645  11.829   1.318
 7165SOL    HW123269   5.578  11.830   1.250
 7165SOL    HW223270   5.728  11.826   1.270
 7166SOL     OW23271   0.917   8.412   6.297
 7166SOL    HW123272   0.971   8.451   6.366
 7166SOL    HW223273   0.939   8.462   6.218
 7167SOL     OW23274   9.019  11.311  11.157
 7167SOL    HW123275   8.982  11.338  11.073
 7167SOL    HW223276   8.946  11.269  11.203
 7168SOL     OW23277  14.397   9.545   4.561
 7168SOL    HW123278  14.339   9.518   4.633
 7168SOL    HW223279  14.378   9.637   4.548
 7169SOL     OW23280   6.559  12.289   3.643
 7169SOL    HW123281   6.647  12.326   3.641
 7169SOL    HW223282   6.529  12.303   3.733
 7170SOL     OW23283  11.245  14.869  13.918
 7170SOL    HW123284  11.294   0.024  13.992
 7170SOL    HW223285  11.171  14.824  13.958
 7171SOL     OW23286   8.332   9.185   3.780
 7171SOL    HW123287   8.419   9.145   3.774
 7171SOL    HW223288   8.327   9.219   3.869
 7172SOL     OW23289  12.224  10.637   3.560
 7172SOL    HW123290  12.161  10.566   3.569
 7172SOL    HW223291  12.308  10.593   3.543
 7173SOL     OW23292   0.844   8.636  11.289
 7173SOL    HW123293   0.791   8.558  11.273
 7173SOL    HW223294   0.909   8.636  11.218
 7174SOL     OW23295   1.491   9.266  13.715
 7174SOL    HW123296   1.537   9.192  13.676
 7174SOL    HW223297   1.560   9.319  13.755
 7175SOL     OW23298   5.741   2.843  13.967
 7175SOL    HW123299   5.732   2.851  13.872
 7175SOL    HW223300   5.815   2.784  13.980
 7176SOL     OW23301   0.482   0.894  10.138
 7176SOL    HW123302   0.500   0.860  10.226
 7176SOL    HW223303   0.407   0.952  10.149
 7177SOL     OW23304   2.462   0.381   4.959
 7177SOL    HW123305   2.551   0.346   4.961
 7177SOL    HW223306   2.409   0.310   4.924
 7178SOL     OW23307   8.470   4.056   6.021
 7178SOL    HW123308   8.461   4.139   5.974
 7178SOL    HW223309   8.490   3.991   5.953
 7179SOL     OW23310  10.676  12.638  12.047
 7179SOL    HW123311  10.714  12.726  12.046
 7179SOL    HW223312  10.636  12.630  12.133
 7180SOL     OW23313  12.608  14.620   3.643
 7180SOL    HW123314  12.561  14.695   3.606
 7180SOL    HW223315  12.678  14.603   3.581
 7181SOL     OW23316  14.108  12.431   5.528
 7181SOL    HW123317  14.116  12.406   5.436
 7181SOL    HW223318  14.104  12.348   5.575
 7182SOL     OW23319  11.166   9.275  11.014
 7182SOL    HW123320  11.247   9.283  11.065
 7182SOL    HW223321  11.171   9.187  10.975
 7183SOL     OW23322   0.322   2.837   6.637
 7183SOL    HW123323   0.257   2.816   6.704
 7183SOL    HW223324   0.271   2.854   6.558
 7184SOL     OW23325   6.686   7.171   3.516
 7184SOL    HW123326   6.651   7.137   3.434
 7184SOL    HW223327   6.639   7.122   3.584
 7185SOL     OW23328   7.178   3.825  13.187
 7185SOL    HW123329   7.144   3.888  13.250
 7185SOL    HW223330   7.193   3.877  13.108
 7186SOL     OW23331  13.422  12.106   7.512
 7186SOL    HW123332  13.499  12.114   7.455
 7186SOL    HW223333  13.457  12.116   7.601
 7187SOL     OW23334   8.352  11.632  12.374
 7187SOL    HW123335   8.369  11.538  12.382
 7187SOL    HW223336   8.269  11.637  12.327
 7188SOL     OW23337   4.439  14.860  11.435
 7188SOL    HW123338   4.351  14.826  11.443
 7188SOL    HW223339   4.481  14.806  11.368
 7189SOL     OW23340  14.227  10.924  12.191
 7189SOL    HW123341  14.232  10.962  12.104
 7189SOL    HW223342  14.300  10.862  12.195
 7190SOL     OW23343  11.048   4.369   6.859
 7190SOL    HW123344  11.120   4.364   6.921
 7190SOL    HW223345  11.038   4.280   6.826
 7191SOL     OW23346   6.529  14.264   0.816
 7191SOL    HW123347   6.515  14.194   0.880
 7191SOL    HW223348   6.512  14.224   0.731
 7192SOL     OW23349   0.608   9.858   7.242
 7192SOL    HW123350   0.535   9.882   7.299
 7192SOL    HW223351   0.568   9.846   7.156
 7193SOL     OW23352   2.474  13.398  10.447
 7193SOL    HW123353   2.428  13.430  10.524
 7193SOL    HW223354   2.516  13.317  10.476
 7194SOL     OW23355   6.323   7.284   7.780
 7194SOL    HW123356   6.379   7.333   7.840
 7194SOL    HW223357   6.300   7.204   7.827
 7195SOL     OW23358   7.129   5.391   7.951
 7195SOL    HW123359   7.146   5.301   7.978
 7195SOL    HW223360   7.168   5.445   8.020
 7196SOL     OW23361   4.449   2.364  11.516
 7196SOL    HW123362   4.443   2.331  11.426
 7196SOL    HW223363   4.358   2.373  11.545
 7197SOL     OW23364   8.376   0.662   7.588
 7197SOL    HW123365   8.285   0.647   7.616
 7197SOL    HW223366   8.368   0.717   7.510
 7198SOL     OW23367  11.060   2.228  13.967
 7198SOL    HW123368  11.024   2.229  14.056
 7198SOL    HW223369  11.137   2.171  13.974
 7199SOL     OW23370   8.001   8.768   0.370
 7199SOL    HW123371   7.994   8.840   0.433
 7199SOL    HW223372   7.911   8.746   0.349
 7200SOL     OW23373  12.395   7.171   8.722
 7200SOL    HW123374  12.303   7.150   8.702
 7200SOL    HW223375  12.405   7.263   8.695
 7201SOL     OW23376   3.694  10.907  13.605
 7201SOL    HW123377   3.731  10.936  13.688
 7201SOL    HW223378   3.602  10.935  13.609
 7202SOL     OW23379   4.896   2.415   9.701
 7202SOL    HW123380   4.920   2.499   9.740
 7202SOL    HW223381   4.825   2.436   9.641
 7203SOL     OW23382  10.771   9.597  14.733
 7203SOL    HW123383  10.749   9.632  14.647
 7203SOL    HW223384  10.687   9.582  14.775
 7204SOL     OW23385  10.205   3.470   4.571
 7204SOL    HW123386  10.262   3.545   4.588
 7204SOL    HW223387  10.240   3.400   4.626
 7205SOL     OW23388   8.325   4.482   0.068
 7205SOL    HW123389   8.237   4.446   0.067
 7205SOL    HW223390   8.312   4.577   0.067
 7206SOL     OW23391   0.412  12.047   5.067
 7206SOL    HW123392   0.365  12.008   5.141
 7206SOL    HW223393   0.360  12.023   4.990
 7207SOL     OW23394  10.220   6.625   0.928
 7207SOL    HW123395  10.262   6.617   0.842
 7207SOL    HW223396  10.274   6.690   0.975
 7208SOL     OW23397   5.605   0.849   0.478
 7208SOL    HW123398   5.615   0.755   0.469
 7208SOL    HW223399   5.517   0.868   0.445
 7209SOL     OW23400   7.292   6.749   5.190
 7209SOL    HW123401   7.226   6.690   5.228
 7209SOL    HW223402   7.349   6.772   5.264
 7210SOL     OW23403   7.380  14.095  14.834
 7210SOL    HW123404   7.469  14.081  14.803
 7210SOL    HW223405   7.337  14.011  14.823
 7211SOL     OW23406   4.076   8.396  10.185
 7211SOL    HW123407   4.140   8.348  10.132
 7211SOL    HW223408   4.086   8.487  10.157
 7212SOL     OW23409   5.191   8.444   4.643
 7212SOL    HW123410   5.185   8.351   4.667
 7212SOL    HW223411   5.107   8.481   4.671
 7213SOL     OW23412  10.980   1.426   4.477
 7213SOL    HW123413  11.068   1.459   4.492
 7213SOL    HW223414  10.928   1.503   4.455
 7214SOL     OW23415   9.698   3.978   8.808
 7214SOL    HW123416   9.606   3.979   8.835
 7214SOL    HW223417   9.736   4.056   8.850
 7215SOL     OW23418   1.752  10.100   0.461
 7215SOL    HW123419   1.810  10.057   0.398
 7215SOL    HW223420   1.757  10.193   0.439
 7216SOL     OW23421   5.709  12.733  11.209
 7216SOL    HW123422   5.792  12.780  11.204
 7216SOL    HW223423   5.729  12.655  11.261
 7217SOL     OW23424   7.940  10.793   3.564
 7217SOL    HW123425   7.930  10.822   3.473
 7217SOL    HW223426   7.986  10.709   3.557
 7218SOL     OW23427   7.550  12.192  13.513
 7218SOL    HW123428   7.550  12.171  13.420
 7218SOL    HW223429   7.532  12.286  13.516
 7219SOL     OW23430   3.312   4.472   1.868
 7219SOL    HW123431   3.272   4.550   1.829
 7219SOL    HW223432   3.287   4.401   1.810
 7220SOL     OW23433  14.641   9.948   1.364
 7220SOL    HW123434  14.669   9.857   1.369
 7220SOL    HW223435  14.709   9.991   1.312
 7221SOL     OW23436   1.953  10.959  12.138
 7221SOL    HW123437   2.034  10.949  12.189
 7221SOL    HW223438   1.980  11.012  12.062
 7222SOL     OW23439   6.144  11.271  11.320
 7222SOL    HW123440   6.191  11.334  11.374
 7222SOL    HW223441   6.125  11.198  11.379
 7223SOL     OW23442  10.058   9.344  10.662
 7223SOL    HW123443  10.021   9.261  10.630
 7223SOL    HW223444  10.126   9.366  10.599
 7224SOL     OW23445  10.904   8.494   9.699
 7224SOL    HW123446  10.852   8.418   9.673
 7224SOL    HW223447  10.912   8.545   9.619
 7225SOL     OW23448  14.761   6.163  14.609
 7225SOL    HW123449  14.697   6.211  14.661
 7225SOL    HW223450  14.781   6.222  14.536
 7226SOL     OW23451   0.161   4.584   2.866
 7226SOL    HW123452   0.148   4.493   2.841
 7226SOL    HW223453   0.205   4.624   2.791
 7227SOL     OW23454  13.646   5.969   6.723
 7227SOL    HW123455  13.687   6.041   6.770
 7227SOL    HW223456  13.580   5.935   6.783
 7228SOL     OW23457   7.868  14.498   7.526
 7228SOL    HW123458   7.825  14.518   7.443
 7228SOL    HW223459   7.826  14.417   7.556
 7229SOL     OW23460  10.068   4.685   7.683
 7229SOL    HW123461  10.024   4.764   7.714
 7229SOL    HW223462  10.155   4.690   7.722
 7230SOL     OW23463   8.361   6.145   9.601
 7230SOL    HW123464   8.282   6.199   9.591
 7230SOL    HW223465   8.425   6.203   9.640
 7231SOL     OW23466  11.909  13.553   2.784
 7231SOL    HW123467  11.932  13.586   2.697
 7231SOL    HW223468  11.926  13.459   2.779
 7232SOL     OW23469  11.022   7.515   4.329
 7232SOL    HW123470  11.105   7.542   4.288
 7232SOL    HW223471  11.004   7.429   4.291
 7233SOL     OW23472   5.619   5.661   4.672
 7233SOL    HW123473   5.680   5.690   4.604
 7233SOL    HW223474   5.602   5.739   4.724
 7234SOL     OW23475   5.902  10.277   8.951
 7234SOL    HW123476   5.966  10.212   8.980
 7234SOL    HW223477   5.930  10.300   8.862
 7235SOL     OW23478   9.313   6.780   7.866
 7235SOL    HW123479   9.225   6.811   7.887
 7235SOL    HW223480   9.328   6.810   7.777
 7236SOL     OW23481   6.751   4.306  14.493
 7236SOL    HW123482   6.816   4.291  14.562
 7236SOL    HW223483   6.716   4.219  14.474
 7237SOL     OW23484   4.689   8.265   8.168
 7237SOL    HW123485   4.668   8.252   8.260
 7237SOL    HW223486   4.618   8.320   8.135
 7238SOL     OW23487  12.002   0.177  10.558
 7238SOL    HW123488  12.050   0.224  10.490
 7238SOL    HW223489  12.027   0.220  10.640
 7239SOL     OW23490   1.142  13.503   8.415
 7239SOL    HW123491   1.052  13.470   8.420
 7239SOL    HW223492   1.132  13.598   8.408
 7240SOL     OW23493   2.124  14.603   0.220
 7240SOL    HW123494   2.128  14.692   0.256
 7240SOL    HW223495   2.203  14.560   0.252
 7241SOL     OW23496  10.222  13.144   3.381
 7241SOL    HW123497  10.300  13.098   3.412
 7241SOL    HW223498  10.162  13.142   3.456
 7242SOL     OW23499   9.700  14.632  10.137
 7242SOL    HW123500   9.655  14.715  10.118
 7242SOL    HW223501   9.630  14.567  10.140
 7243SOL     OW23502   8.921   4.927   3.740
 7243SOL    HW123503   8.901   4.847   3.691
 7243SOL    HW223504   8.872   4.996   3.694
 7244SOL     OW23505   8.318  11.340  14.187
 7244SOL    HW123506   8.285  11.415  14.138
 7244SOL    HW223507   8.297  11.360  14.279
 7245SOL     OW23508   3.163  13.643  14.746
 7245SOL    HW123509   3.154  13.566  14.803
 7245SOL    HW223510   3.214  13.705  14.799
 7246SOL     OW23511  13.183   4.878  11.628
 7246SOL    HW123512  13.271   4.842  11.622
 7246SOL    HW223513  13.133   4.828  11.563
 7247SOL     OW23514  12.272   2.612   0.398
 7247SOL    HW123515  12.345   2.662   0.435
 7247SOL    HW223516  12.213   2.597   0.472
 7248SOL     OW23517   6.579   9.679   0.030
 7248SOL    HW123518   6.665   9.646   0.003
 7248SOL    HW223519   6.534   9.602   0.065
 7249SOL     OW23520  11.474   3.504   9.151
 7249SOL    HW123521  11.443   3.535   9.236
 7249SOL    HW223522  11.565   3.531   9.147
 7250SOL     OW23523   6.783  14.075   7.959
 7250SOL    HW123524   6.850  14.111   7.901
 7250SOL    HW223525   6.750  13.998   7.912
 7251SOL     OW23526   5.267   0.210   5.609
 7251SOL    HW123527   5.179   0.202   5.573
 7251SOL    HW223528   5.259   0.180   5.699
 7252SOL     OW23529   3.582   3.056   1.335
 7252SOL    HW123530   3.529   3.135   1.342
 7252SOL    HW223531   3.653   3.069   1.398
 7253SOL     OW23532   1.764  11.816   3.784
 7253SOL    HW123533   1.685  11.773   3.816
 7253SOL    HW223534   1.832  11.791   3.847
 7254SOL     OW23535  12.899   0.829   9.222
 7254SOL    HW123536  12.911   0.882   9.143
 7254SOL    HW223537  12.865   0.746   9.191
 7255SOL     OW23538   7.550   2.545   2.979
 7255SOL    HW123539   7.461   2.549   2.943
 7255SOL    HW223540   7.587   2.464   2.944
 7256SOL     OW23541   9.295   7.036   5.368
 7256SOL    HW123542   9.218   7.002   5.321
 7256SOL    HW223543   9.260   7.063   5.453
 7257SOL     OW23544  11.886  11.693   5.286
 7257SOL    HW123545  11.865  11.775   5.242
 7257SOL    HW223546  11.828  11.690   5.362
 7258SOL     OW23547   5.353  14.608   1.517
 7258SOL    HW123548   5.355  14.651   1.432
 7258SOL    HW223549   5.396  14.669   1.577
 7259SOL     OW23550   0.554  10.969   4.309
 7259SOL    HW123551   0.462  10.942   4.300
 7259SOL    HW223552   0.590  10.908   4.373
 7260SOL     OW23553   6.060  11.619  11.459
 7260SOL    HW123554   6.018  11.567  11.390
 7260SOL    HW223555   6.105  11.554  11.514
 7261SOL     OW23556   1.610  10.223   3.820
 7261SOL    HW123557   1.693  10.176   3.811
 7261SOL    HW223558   1.551  10.159   3.860
 7262SOL     OW23559  14.756  13.905  13.525
 7262SOL    HW123560  14.759  13.937  13.435
 7262SOL    HW223561  14.748  13.810  13.516
 7263SOL     OW23562  10.729   8.242   8.697
 7263SOL    HW123563  10.801   8.297   8.729
 7263SOL    HW223564  10.669   8.236   8.771
 7264SOL     OW23565  12.557  10.352   6.210
 7264SOL    HW123566  12.615  10.423   6.183
 7264SOL    HW223567  12.557  10.291   6.136
 7265SOL     OW23568  10.147  13.940  11.683
 7265SOL    HW123569  10.131  13.902  11.596
 7265SOL    HW223570  10.149  13.864  11.742
 7266SOL     OW23571   1.446   6.796  12.812
 7266SOL    HW123572   1.453   6.825  12.721
 7266SOL    HW223573   1.511   6.726  12.820
 7267SOL     OW23574   4.293   7.561   1.474
 7267SOL    HW123575   4.336   7.485   1.435
 7267SOL    HW223576   4.288   7.625   1.403
 7268SOL     OW23577   1.899  14.320  11.409
 7268SOL    HW123578   1.821  14.362  11.374
 7268SOL    HW223579   1.940  14.387  11.464
 7269SOL     OW23580  14.813  13.469   7.986
 7269SOL    HW123581  14.781  13.472   7.896
 7269SOL    HW223582  14.737  13.444   8.038
 7270SOL     OW23583   5.724   0.067   4.766
 7270SOL    HW123584   5.771   0.150   4.765
 7270SOL    HW223585   5.737   0.031   4.679
 7271SOL     OW23586   2.677   0.330   0.782
 7271SOL    HW123587   2.687   0.287   0.867
 7271SOL    HW223588   2.744   0.398   0.782
 7272SOL     OW23589   6.418   4.322  13.569
 7272SOL    HW123590   6.324   4.328  13.590
 7272SOL    HW223591   6.428   4.378  13.492
 7273SOL     OW23592   7.306  13.064   3.161
 7273SOL    HW123593   7.313  13.063   3.256
 7273SOL    HW223594   7.264  13.147   3.141
 7274SOL     OW23595   1.334  13.399   2.877
 7274SOL    HW123596   1.275  13.357   2.940
 7274SOL    HW223597   1.419  13.399   2.921
 7275SOL     OW23598   8.723   8.311  10.896
 7275SOL    HW123599   8.747   8.293  10.987
 7275SOL    HW223600   8.764   8.241  10.846
 7276SOL     OW23601   8.240   5.904   6.046
 7276SOL    HW123602   8.300   5.856   5.989
 7276SOL    HW223603   8.267   5.882   6.135
 7277SOL     OW23604  13.443   4.246  13.001
 7277SOL    HW123605  13.507   4.311  13.032
 7277SOL    HW223606  13.373   4.298  12.963
 7278SOL     OW23607   7.748  10.905   1.277
 7278SOL    HW123608   7.712  10.993   1.279
 7278SOL    HW223609   7.836  10.913   1.314
 7279SOL     OW23610   5.125   6.944   5.860
 7279SOL    HW123611   5.037   6.965   5.830
 7279SOL    HW223612   5.179   7.018   5.833
 7280SOL     OW23613   4.541   4.620   7.351
 7280SOL    HW123614   4.636   4.618   7.341
 7280SOL    HW223615   4.508   4.636   7.263
 7281SOL     OW23616  14.004  14.226   1.046
 7281SOL    HW123617  13.925  14.252   0.998
 7281SOL    HW223618  14.075  14.276   1.006
 7282SOL     OW23619  10.680   6.318   0.721
 7282SOL    HW123620  10.605   6.314   0.662
 7282SOL    HW223621  10.645   6.294   0.807
 7283SOL     OW23622  11.974   1.284   5.812
 7283SOL    HW123623  11.960   1.321   5.725
 7283SOL    HW223624  11.953   1.356   5.872
 7284SOL     OW23625   5.239   9.951   3.587
 7284SOL    HW123626   5.283   9.965   3.671
 7284SOL    HW223627   5.281  10.012   3.527
 7285SOL     OW23628  13.484   8.379   7.495
 7285SOL    HW123629  13.437   8.448   7.542
 7285SOL    HW223630  13.450   8.297   7.531
 7286SOL     OW23631   6.764   6.337  12.703
 7286SOL    HW123632   6.689   6.386  12.670
 7286SOL    HW223633   6.796   6.288  12.628
 7287SOL     OW23634   2.112   7.870  11.323
 7287SOL    HW123635   2.145   7.959  11.306
 7287SOL    HW223636   2.019   7.875  11.301
 7288SOL     OW23637   5.652   6.771   3.181
 7288SOL    HW123638   5.748   6.775   3.183
 7288SOL    HW223639   5.627   6.828   3.108
 7289SOL     OW23640   8.395   4.066  13.226
 7289SOL    HW123641   8.350   4.065  13.142
 7289SOL    HW223642   8.480   4.106  13.208
 7290SOL     OW23643   0.528   0.650   2.647
 7290SOL    HW123644   0.536   0.581   2.581
 7290SOL    HW223645   0.581   0.722   2.614
 7291SOL     OW23646   2.316  11.539  13.273
 7291SOL    HW123647   2.321  11.449  13.240
 7291SOL    HW223648   2.311  11.529  13.368
 7292SOL     OW23649  14.291   7.094  14.596
 7292SOL    HW123650  14.316   7.186  14.608
 7292SOL    HW223651  14.220   7.080  14.659
 7293SOL     OW23652   1.356  10.972   2.662
 7293SOL    HW123653   1.386  10.995   2.574
 7293SOL    HW223654   1.421  10.910   2.694
 7294SOL     OW23655   3.296   2.011   0.760
 7294SOL    HW123656   3.358   1.999   0.832
 7294SOL    HW223657   3.296   1.927   0.714
 7295SOL     OW23658   6.738   8.528   4.789
 7295SOL    HW123659   6.771   8.617   4.778
 7295SOL    HW223660   6.651   8.539   4.826
 7296SOL     OW23661   4.226   3.222  13.973
 7296SOL    HW123662   4.223   3.219  13.878
 7296SOL    HW223663   4.271   3.303  13.994
 7297SOL     OW23664   8.258  10.034   1.668
 7297SOL    HW123665   8.203  10.002   1.739
 7297SOL    HW223666   8.207  10.017   1.589
 7298SOL     OW23667  11.002   0.013  11.952
 7298SOL    HW123668  11.017  14.863  11.862
 7298SOL    HW223669  11.077  14.862  12.001
 7299SOL     OW23670   4.092   3.370   2.285
 7299SOL    HW123671   4.072   3.342   2.374
 7299SOL    HW223672   4.173   3.420   2.292
 7300SOL     OW23673   2.468   3.536   1.100
 7300SOL    HW123674   2.552   3.560   1.140
 7300SOL    HW223675   2.443   3.455   1.145
 7301SOL     OW23676   9.448   5.063   8.200
 7301SOL    HW123677   9.389   5.137   8.211
 7301SOL    HW223678   9.405   4.991   8.246
 7302SOL     OW23679   2.107   3.660  12.483
 7302SOL    HW123680   2.166   3.684  12.554
 7302SOL    HW223681   2.059   3.584  12.516
 7303SOL     OW23682  12.618   6.817   8.038
 7303SOL    HW123683  12.651   6.816   8.128
 7303SOL    HW223684  12.680   6.874   7.991
 7304SOL     OW23685   0.539  10.039  11.943
 7304SOL    HW123686   0.469  10.104  11.939
 7304SOL    HW223687   0.511   9.977  12.010
 7305SOL     OW23688   7.174  10.165   9.174
 7305SOL    HW123689   7.235  10.197   9.107
 7305SOL    HW223690   7.207  10.202   9.256
 7306SOL     OW23691   6.985  11.276   0.134
 7306SOL    HW123692   7.011  11.206   0.195
 7306SOL    HW223693   7.061  11.287   0.077
 7307SOL     OW23694   9.596   1.451   3.507
 7307SOL    HW123695   9.509   1.417   3.489
 7307SOL    HW223696   9.583   1.544   3.528
 7308SOL     OW23697  12.719   5.537   2.152
 7308SOL    HW123698  12.699   5.504   2.064
 7308SOL    HW223699  12.698   5.631   2.147
 7309SOL     OW23700  11.769   6.845   6.820
 7309SOL    HW123701  11.777   6.750   6.834
 7309SOL    HW223702  11.675   6.862   6.831
 7310SOL     OW23703   0.778   3.520   2.720
 7310SOL    HW123704   0.729   3.572   2.656
 7310SOL    HW223705   0.868   3.518   2.686
 7311SOL     OW23706   4.805   7.457  10.805
 7311SOL    HW123707   4.810   7.367  10.838
 7311SOL    HW223708   4.843   7.510  10.875
 7312SOL     OW23709   7.656  11.618   0.945
 7312SOL    HW123710   7.646  11.670   0.865
 7312SOL    HW223711   7.590  11.652   1.005
 7313SOL     OW23712   6.762  10.902  10.162
 7313SOL    HW123713   6.796  10.827  10.112
 7313SOL    HW223714   6.790  10.979  10.112
 7314SOL     OW23715   4.685  11.312   4.715
 7314SOL    HW123716   4.749  11.271   4.656
 7314SOL    HW223717   4.717  11.290   4.803
 7315SOL     OW23718   4.020  12.394  11.660
 7315SOL    HW123719   3.950  12.386  11.596
 7315SOL    HW223720   4.091  12.340  11.626
 7316SOL     OW23721  12.040  11.543   4.846
 7316SOL    HW123722  12.074  11.455   4.864
 7316SOL    HW223723  12.008  11.538   4.756
 7317SOL     OW23724   9.992   5.351   3.956
 7317SOL    HW123725   9.997   5.343   3.861
 7317SOL    HW223726   9.938   5.428   3.972
 7318SOL     OW23727   9.489   3.197  13.023
 7318SOL    HW123728   9.518   3.275  12.975
 7318SOL    HW223729   9.565   3.173  13.076
 7319SOL     OW23730  14.479   4.648   4.971
 7319SOL    HW123731  14.441   4.676   5.055
 7319SOL    HW223732  14.436   4.704   4.906
 7320SOL     OW23733   0.644   0.471  11.015
 7320SOL    HW123734   0.618   0.387  11.053
 7320SOL    HW223735   0.648   0.531  11.090
 7321SOL     OW23736   8.488   3.505  11.506
 7321SOL    HW123737   8.480   3.533  11.415
 7321SOL    HW223738   8.504   3.411  11.501
 7322SOL     OW23739   8.911   2.865   7.780
 7322SOL    HW123740   8.998   2.836   7.806
 7322SOL    HW223741   8.923   2.902   7.692
 7323SOL     OW23742   6.859  11.750   4.185
 7323SOL    HW123743   6.844  11.711   4.271
 7323SOL    HW223744   6.876  11.676   4.127
 7324SOL     OW23745  13.427   3.704   5.978
 7324SOL    HW123746  13.400   3.651   6.053
 7324SOL    HW223747  13.345   3.744   5.948
 7325SOL     OW23748  12.776   7.875   0.338
 7325SOL    HW123749  12.847   7.931   0.308
 7325SOL    HW223750  12.795   7.789   0.299
 7326SOL     OW23751   4.723   1.138  12.385
 7326SOL    HW123752   4.809   1.179  12.385
 7326SOL    HW223753   4.664   1.205  12.349
 7327SOL     OW23754   4.569   3.371   6.166
 7327SOL    HW123755   4.484   3.367   6.209
 7327SOL    HW223756   4.609   3.451   6.199
 7328SOL     OW23757  12.073   7.298  12.653
 7328SOL    HW123758  12.041   7.358  12.586
 7328SOL    HW223759  12.085   7.215  12.607
 7329SOL     OW23760  10.956   2.637   7.585
 7329SOL    HW123761  10.900   2.622   7.661
 7329SOL    HW223762  10.904   2.691   7.527
 7330SOL     OW23763  12.788  10.572   7.232
 7330SOL    HW123764  12.722  10.539   7.293
 7330SOL    HW223765  12.760  10.539   7.147
 7331SOL     OW23766  10.785  12.005  10.927
 7331SOL    HW123767  10.769  11.992  10.834
 7331SOL    HW223768  10.863  11.953  10.946
 7332SOL     OW23769   1.732  11.042   3.644
 7332SOL    HW123770   1.706  10.975   3.581
 7332SOL    HW223771   1.823  11.022   3.665
 7333SOL     OW23772  10.145   2.678  13.668
 7333SOL    HW123773  10.078   2.628  13.715
 7333SOL    HW223774  10.218   2.616  13.658
 7334SOL     OW23775  11.967   1.972  10.569
 7334SOL    HW123776  11.908   1.972  10.494
 7334SOL    HW223777  12.044   1.922  10.540
 7335SOL     OW23778   8.181  12.297  13.038
 7335SOL    HW123779   8.130  12.219  13.017
 7335SOL    HW223780   8.125  12.347  13.097
 7336SOL     OW23781  10.835   4.054  10.162
 7336SOL    HW123782  10.856   4.036  10.253
 7336SOL    HW223783  10.741   4.038  10.155
 7337SOL     OW23784  11.940  10.661   9.022
 7337SOL    HW123785  12.021  10.635   9.066
 7337SOL    HW223786  11.873  10.654   9.091
 7338SOL     OW23787   4.702  12.466   3.028
 7338SOL    HW123788   4.758  12.535   3.062
 7338SOL    HW223789   4.761  12.405   2.984
 7339SOL     OW23790   8.198  10.641   3.502
 7339SOL    HW123791   8.244  10.588   3.438
 7339SOL    HW223792   8.204  10.730   3.469
 7340SOL     OW23793   7.283   9.792  14.284
 7340SOL    HW123794   7.305   9.825  14.371
 7340SOL    HW223795   7.308   9.699  14.286
 7341SOL     OW23796   1.654   2.765  12.137
 7341SOL    HW123797   1.618   2.850  12.115
 7341SOL    HW223798   1.741   2.784  12.174
 7342SOL     OW23799   9.219   0.833   6.419
 7342SOL    HW123800   9.256   0.751   6.449
 7342SOL    HW223801   9.292   0.895   6.420
 7343SOL     OW23802   6.147   2.595   9.566
 7343SOL    HW123803   6.064   2.564   9.530
 7343SOL    HW223804   6.209   2.524   9.548
 7344SOL     OW23805   8.633   1.565  11.533
 7344SOL    HW123806   8.573   1.638  11.517
 7344SOL    HW223807   8.675   1.549  11.449
 7345SOL     OW23808   3.010   4.542   7.262
 7345SOL    HW123809   2.967   4.494   7.333
 7345SOL    HW223810   3.084   4.486   7.237
 7346SOL     OW23811   4.498   8.978   3.540
 7346SOL    HW123812   4.514   9.059   3.587
 7346SOL    HW223813   4.585   8.945   3.518
 7347SOL     OW23814   7.897   4.645  10.042
 7347SOL    HW123815   7.940   4.581   9.986
 7347SOL    HW223816   7.919   4.730  10.003
 7348SOL     OW23817   6.268  11.712  10.517
 7348SOL    HW123818   6.217  11.794  10.519
 7348SOL    HW223819   6.208  11.646  10.552
 7349SOL     OW23820  13.011   2.886   7.482
 7349SOL    HW123821  12.962   2.860   7.404
 7349SOL    HW223822  13.102   2.893   7.452
 7350SOL     OW23823  13.185  11.876   2.416
 7350SOL    HW123824  13.142  11.802   2.459
 7350SOL    HW223825  13.257  11.837   2.367
 7351SOL     OW23826   7.123   6.012   8.871
 7351SOL    HW123827   7.030   5.992   8.862
 7351SOL    HW223828   7.149   6.045   8.785
 7352SOL     OW23829  12.552  11.125   9.584
 7352SOL    HW123830  12.498  11.194   9.545
 7352SOL    HW223831  12.642  11.151   9.563
 7353SOL     OW23832   5.700   3.654   8.309
 7353SOL    HW123833   5.659   3.721   8.363
 7353SOL    HW223834   5.714   3.580   8.368
 7354SOL     OW23835   8.333   5.134  10.410
 7354SOL    HW123836   8.427   5.134  10.393
 7354SOL    HW223837   8.306   5.225  10.400
 7355SOL     OW23838   5.702  12.688  12.019
 7355SOL    HW123839   5.785  12.696  12.065
 7355SOL    HW223840   5.636  12.692  12.088
 7356SOL     OW23841  12.037   4.250   6.194
 7356SOL    HW123842  12.102   4.296   6.246
 7356SOL    HW223843  11.975   4.215   6.258
 7357SOL     OW23844  11.497   8.230   9.274
 7357SOL    HW123845  11.423   8.224   9.213
 7357SOL    HW223846  11.493   8.149   9.324
 7358SOL     OW23847   7.181   6.470  11.967
 7358SOL    HW123848   7.263   6.499  11.928
 7358SOL    HW223849   7.139   6.550  11.998
 7359SOL     OW23850   5.291  10.000   8.963
 7359SOL    HW123851   5.349   9.925   8.964
 7359SOL    HW223852   5.318  10.052   9.039
 7360SOL     OW23853   3.808   3.201   6.011
 7360SOL    HW123854   3.884   3.248   5.977
 7360SOL    HW223855   3.801   3.124   5.955
 7361SOL     OW23856   7.068  11.389  13.853
 7361SOL    HW123857   7.137  11.328  13.879
 7361SOL    HW223858   7.114  11.470  13.834
 7362SOL     OW23859   2.231   5.242  12.620
 7362SOL    HW123860   2.278   5.263  12.701
 7362SOL    HW223861   2.273   5.163  12.587
 7363SOL     OW23862  11.336   2.436  13.015
 7363SOL    HW123863  11.401   2.378  12.974
 7363SOL    HW223864  11.294   2.381  13.082
 7364SOL     OW23865  11.930   2.436  13.632
 7364SOL    HW123866  11.879   2.502  13.678
 7364SOL    HW223867  12.007   2.482  13.600
 7365SOL     OW23868   2.171   5.889   5.198
 7365SOL    HW123869   2.250   5.853   5.237
 7365SOL    HW223870   2.124   5.813   5.164
 7366SOL     OW23871   2.161   6.666   6.253
 7366SOL    HW123872   2.067   6.668   6.272
 7366SOL    HW223873   2.196   6.599   6.311
 7367SOL     OW23874   7.076   2.173   2.312
 7367SOL    HW123875   7.136   2.098   2.314
 7367SOL    HW223876   6.992   2.137   2.341
 7368SOL     OW23877   0.319   0.034   0.814
 7368SOL    HW123878   0.315   0.112   0.758
 7368SOL    HW223879   0.230   0.026   0.849
 7369SOL     OW23880   2.620   7.558   5.954
 7369SOL    HW123881   2.547   7.514   5.911
 7369SOL    HW223882   2.657   7.492   6.013
 7370SOL     OW23883   9.109  10.765   0.391
 7370SOL    HW123884   9.034  10.725   0.435
 7370SOL    HW223885   9.078  10.778   0.301
 7371SOL     OW23886   0.139   8.309   7.905
 7371SOL    HW123887   0.139   8.386   7.961
 7371SOL    HW223888   0.218   8.260   7.931
 7372SOL     OW23889   1.386  14.168   9.552
 7372SOL    HW123890   1.469  14.188   9.509
 7372SOL    HW223891   1.402  14.085   9.598
 7373SOL     OW23892  12.264  14.765  13.008
 7373SOL    HW123893  12.323  14.815  13.065
 7373SOL    HW223894  12.247  14.684  13.056
 7374SOL     OW23895  14.052   2.406   2.427
 7374SOL    HW123896  13.960   2.383   2.415
 7374SOL    HW223897  14.097   2.364   2.353
 7375SOL     OW23898   6.459  12.977  10.414
 7375SOL    HW123899   6.506  12.911  10.465
 7375SOL    HW223900   6.504  13.059  10.434
 7376SOL     OW23901   6.401  12.888   7.681
 7376SOL    HW123902   6.497  12.889   7.675
 7376SOL    HW223903   6.383  12.878   7.774
 7377SOL     OW23904   8.119   5.725   9.514
 7377SOL    HW123905   8.139   5.819   9.510
 7377SOL    HW223906   8.169   5.687   9.442
 7378SOL     OW23907   6.505   1.230   1.932
 7378SOL    HW123908   6.585   1.185   1.959
 7378SOL    HW223909   6.456   1.243   2.013
 7379SOL     OW23910   2.221   5.749   3.290
 7379SOL    HW123911   2.265   5.826   3.253
 7379SOL    HW223912   2.130   5.775   3.298
 7380SOL     OW23913  14.272  10.017   2.283
 7380SOL    HW123914  14.366  10.014   2.266
 7380SOL    HW223915  14.233   9.981   2.204
 7381SOL     OW23916  13.236  10.791   7.430
 7381SOL    HW123917  13.187  10.719   7.389
 7381SOL    HW223918  13.207  10.869   7.383
 7382SOL     OW23919  13.157  13.526  11.893
 7382SOL    HW123920  13.160  13.579  11.972
 7382SOL    HW223921  13.147  13.436  11.925
 7383SOL     OW23922   4.024   7.076   8.732
 7383SOL    HW123923   4.050   7.155   8.778
 7383SOL    HW223924   4.052   7.090   8.642
 7384SOL     OW23925  12.641   0.424   7.320
 7384SOL    HW123926  12.734   0.433   7.339
 7384SOL    HW223927  12.598   0.477   7.388
 7385SOL     OW23928  10.997  14.436   7.174
 7385SOL    HW123929  11.002  14.447   7.079
 7385SOL    HW223930  10.965  14.520   7.207
 7386SOL     OW23931   8.111   9.864  14.725
 7386SOL    HW123932   8.078   9.805  14.792
 7386SOL    HW223933   8.136   9.807  14.653
 7387SOL     OW23934   0.714   7.126  13.232
 7387SOL    HW123935   0.759   7.048  13.263
 7387SOL    HW223936   0.781   7.176  13.187
 7388SOL     OW23937  10.132   8.891   2.328
 7388SOL    HW123938  10.041   8.867   2.307
 7388SOL    HW223939  10.159   8.945   2.254
 7389SOL     OW23940  12.564  11.744  13.365
 7389SOL    HW123941  12.593  11.688  13.293
 7389SOL    HW223942  12.472  11.760  13.347
 7390SOL     OW23943  14.129   0.105  10.380
 7390SOL    HW123944  14.193   0.177  10.381
 7390SOL    HW223945  14.181   0.027  10.400
 7391SOL     OW23946   5.598   6.573   2.426
 7391SOL    HW123947   5.608   6.655   2.376
 7391SOL    HW223948   5.654   6.584   2.502
 7392SOL     OW23949   3.353   6.365  11.523
 7392SOL    HW123950   3.412   6.331  11.455
 7392SOL    HW223951   3.290   6.419  11.476
 7393SOL     OW23952   4.242   2.021  13.692
 7393SOL    HW123953   4.313   2.076  13.658
 7393SOL    HW223954   4.168   2.082  13.702
 7394SOL     OW23955   7.754  13.881  13.316
 7394SOL    HW123956   7.756  13.825  13.238
 7394SOL    HW223957   7.786  13.825  13.387
 7395SOL     OW23958   0.531   4.413   5.314
 7395SOL    HW123959   0.474   4.337   5.305
 7395SOL    HW223960   0.473   4.488   5.301
 7396SOL     OW23961   8.037  12.076   2.698
 7396SOL    HW123962   8.006  11.991   2.667
 7396SOL    HW223963   8.122  12.058   2.737
 7397SOL     OW23964   4.370   3.224   7.924
 7397SOL    HW123965   4.389   3.157   7.989
 7397SOL    HW223966   4.453   3.272   7.914
 7398SOL     OW23967   3.000  13.374  10.419
 7398SOL    HW123968   3.034  13.408  10.337
 7398SOL    HW223969   3.000  13.449  10.478
 7399SOL     OW23970   1.452   2.109   1.349
 7399SOL    HW123971   1.374   2.162   1.365
 7399SOL    HW223972   1.444   2.080   1.259
 7400SOL     OW23973   0.290   1.325  13.923
 7400SOL    HW123974   0.212   1.379  13.909
 7400SOL    HW223975   0.353   1.356  13.858
 7401SOL     OW23976   9.935   2.030   6.878
 7401SOL    HW123977   9.886   2.070   6.806
 7401SOL    HW223978   9.998   1.973   6.835
 7402SOL     OW23979  11.595   5.574   3.896
 7402SOL    HW123980  11.557   5.551   3.811
 7402SOL    HW223981  11.631   5.492   3.930
 7403SOL     OW23982   4.349   7.938   7.368
 7403SOL    HW123983   4.427   7.960   7.316
 7403SOL    HW223984   4.349   8.003   7.439
 7404SOL     OW23985  11.771  14.835   3.711
 7404SOL    HW123986  11.773  14.820   3.805
 7404SOL    HW223987  11.796  14.750   3.673
 7405SOL     OW23988   5.302  11.399   9.864
 7405SOL    HW123989   5.272  11.489   9.863
 7405SOL    HW223990   5.226  11.348   9.889
 7406SOL     OW23991   3.359   3.250   1.362
 7406SOL    HW123992   3.332   3.203   1.283
 7406SOL    HW223993   3.292   3.229   1.427
 7407SOL     OW23994  13.365  12.248   5.607
 7407SOL    HW123995  13.415  12.297   5.672
 7407SOL    HW223996  13.277  12.284   5.612
 7408SOL     OW23997  14.099  11.589  10.842
 7408SOL    HW123998  14.029  11.655  10.847
 7408SOL    HW223999  14.075  11.533  10.769
 7409SOL     OW24000  11.332  14.094   4.589
 7409SOL    HW124001  11.369  14.182   4.575
 7409SOL    HW224002  11.240  14.110   4.608
 7410SOL     OW24003   8.106   9.191   0.653
 7410SOL    HW124004   8.097   9.285   0.641
 7410SOL    HW224005   8.115   9.179   0.747
 7411SOL     OW24006   9.286  11.582  13.311
 7411SOL    HW124007   9.359  11.521  13.316
 7411SOL    HW224008   9.261  11.597  13.402
 7412SOL     OW24009   9.244  12.429   5.223
 7412SOL    HW124010   9.290  12.426   5.139
 7412SOL    HW224011   9.173  12.365   5.213
 7413SOL     OW24012   7.231   8.736   9.675
 7413SOL    HW124013   7.300   8.673   9.652
 7413SOL    HW224014   7.279   8.812   9.708
 7414SOL     OW24015   0.745  10.772   4.428
 7414SOL    HW124016   0.779  10.703   4.370
 7414SOL    HW224017   0.766  10.741   4.516
 7415SOL     OW24018   8.302  13.521  13.069
 7415SOL    HW124019   8.336  13.502  13.156
 7415SOL    HW224020   8.242  13.594  13.082
 7416SOL     OW24021  12.473   6.805   4.046
 7416SOL    HW124022  12.396   6.793   4.103
 7416SOL    HW224023  12.530   6.864   4.096
 7417SOL     OW24024   4.950  11.534   7.828
 7417SOL    HW124025   4.965  11.494   7.914
 7417SOL    HW224026   4.913  11.463   7.775
 7418SOL     OW24027   9.633   5.287   2.285
 7418SOL    HW124028   9.674   5.368   2.255
 7418SOL    HW224029   9.614   5.239   2.204
 7419SOL     OW24030   3.756  12.435  13.058
 7419SOL    HW124031   3.760  12.387  13.141
 7419SOL    HW224032   3.787  12.523  13.080
 7420SOL     OW24033   0.278   0.366   1.752
 7420SOL    HW124034   0.275   0.368   1.848
 7420SOL    HW224035   0.338   0.295   1.731
 7421SOL     OW24036   2.441   7.735   9.788
 7421SOL    HW124037   2.499   7.759   9.716
 7421SOL    HW224038   2.480   7.656   9.826
 7422SOL     OW24039   9.745   5.509   2.221
 7422SOL    HW124040   9.836   5.482   2.233
 7422SOL    HW224041   9.749   5.579   2.156
 7423SOL     OW24042  11.439   1.445   0.520
 7423SOL    HW124043  11.528   1.477   0.529
 7423SOL    HW224044  11.415   1.415   0.608
 7424SOL     OW24045  13.960  10.378   1.800
 7424SOL    HW124046  13.964  10.383   1.704
 7424SOL    HW224047  13.943  10.469   1.827
 7425SOL     OW24048  12.529   7.058  12.999
 7425SOL    HW124049  12.501   7.038  13.088
 7425SOL    HW224050  12.455   7.032  12.944
 7426SOL     OW24051   5.693  14.001   0.129
 7426SOL    HW124052   5.699  14.042   0.043
 7426SOL    HW224053   5.782  13.970   0.147
 7427SOL     OW24054   6.406  12.063   8.243
 7427SOL    HW124055   6.431  12.154   8.263
 7427SOL    HW224056   6.322  12.051   8.287
 7428SOL     OW24057  12.369  13.050   1.683
 7428SOL    HW124058  12.369  12.962   1.644
 7428SOL    HW224059  12.364  13.109   1.607
 7429SOL     OW24060   1.421  10.518   2.847
 7429SOL    HW124061   1.383  10.504   2.760
 7429SOL    HW224062   1.369  10.463   2.905
 7430SOL     OW24063  14.290   0.881   2.062
 7430SOL    HW124064  14.305   0.800   2.014
 7430SOL    HW224065  14.211   0.863   2.114
 7431SOL     OW24066  12.039   3.756   1.660
 7431SOL    HW124067  12.030   3.661   1.654
 7431SOL    HW224068  11.998   3.778   1.744
 7432SOL     OW24069   4.459  10.327   0.363
 7432SOL    HW124070   4.483  10.337   0.270
 7432SOL    HW224071   4.499  10.244   0.389
 7433SOL     OW24072   2.658  13.754   6.725
 7433SOL    HW124073   2.568  13.723   6.736
 7433SOL    HW224074   2.659  13.792   6.637
 7434SOL     OW24075  14.490  14.723   9.768
 7434SOL    HW124076  14.478  14.768   9.684
 7434SOL    HW224077  14.408  14.675   9.780
 7435SOL     OW24078   5.390  13.101   5.622
 7435SOL    HW124079   5.384  13.006   5.630
 7435SOL    HW224080   5.326  13.135   5.685
 7436SOL     OW24081   4.808   7.621   0.793
 7436SOL    HW124082   4.809   7.607   0.888
 7436SOL    HW224083   4.752   7.698   0.781
 7437SOL     OW24084  13.398   7.995  10.245
 7437SOL    HW124085  13.313   8.018  10.207
 7437SOL    HW224086  13.382   7.915  10.294
 7438SOL     OW24087   0.267  11.953   1.720
 7438SOL    HW124088   0.272  12.010   1.644
 7438SOL    HW224089   0.269  11.864   1.685
 7439SOL     OW24090   0.563  13.992  11.308
 7439SOL    HW124091   0.648  13.989  11.263
 7439SOL    HW224092   0.553  13.905  11.347
 7440SOL     OW24093  10.293   4.343   0.060
 7440SOL    HW124094  10.258   4.393   0.133
 7440SOL    HW224095  10.231   4.358  14.870
 7441SOL     OW24096   3.535  12.682   3.302
 7441SOL    HW124097   3.497  12.758   3.256
 7441SOL    HW224098   3.479  12.609   3.277
 7442SOL     OW24099   0.787   9.761   6.737
 7442SOL    HW124100   0.738   9.693   6.783
 7442SOL    HW224101   0.867   9.772   6.789
 7443SOL     OW24102   6.189  11.616   9.038
 7443SOL    HW124103   6.215  11.543   9.094
 7443SOL    HW224104   6.129  11.668   9.092
 7444SOL     OW24105   3.137   6.256   4.476
 7444SOL    HW124106   3.182   6.245   4.392
 7444SOL    HW224107   3.059   6.307   4.454
 7445SOL     OW24108   4.280   8.692  12.808
 7445SOL    HW124109   4.318   8.639  12.878
 7445SOL    HW224110   4.305   8.782  12.830
 7446SOL     OW24111   6.523   9.185   9.724
 7446SOL    HW124112   6.531   9.186   9.820
 7446SOL    HW224113   6.429   9.178   9.708
 7447SOL     OW24114  14.155   3.273   3.251
 7447SOL    HW124115  14.214   3.348   3.239
 7447SOL    HW224116  14.078   3.310   3.293
 7448SOL     OW24117   1.764   4.765  13.799
 7448SOL    HW124118   1.809   4.823  13.738
 7448SOL    HW224119   1.794   4.793  13.885
 7449SOL     OW24120  14.250   7.700   9.401
 7449SOL    HW124121  14.283   7.788   9.382
 7449SOL    HW224122  14.316   7.662   9.458
 7450SOL     OW24123   7.476   0.247  11.138
 7450SOL    HW124124   7.406   0.194  11.100
 7450SOL    HW224125   7.434   0.331  11.158
 7451SOL     OW24126   9.515   3.897   0.346
 7451SOL    HW124127   9.488   3.985   0.376
 7451SOL    HW224128   9.558   3.913   0.262
 7452SOL     OW24129   9.737  14.016   3.986
 7452SOL    HW124130   9.787  14.055   4.058
 7452SOL    HW224131   9.659  14.072   3.979
 7453SOL     OW24132   4.127  13.409   4.934
 7453SOL    HW124133   4.150  13.317   4.921
 7453SOL    HW224134   4.133  13.421   5.029
 7454SOL     OW24135   5.768   5.121  13.599
 7454SOL    HW124136   5.679   5.107  13.630
 7454SOL    HW224137   5.797   5.035  13.570
 7455SOL     OW24138   3.741  11.675   6.851
 7455SOL    HW124139   3.780  11.759   6.874
 7455SOL    HW224140   3.651  11.681   6.884
 7456SOL     OW24141   7.231   2.572  14.390
 7456SOL    HW124142   7.287   2.618  14.454
 7456SOL    HW224143   7.271   2.486  14.382
 7457SOL     OW24144  13.511  11.803   6.260
 7457SOL    HW124145  13.560  11.884   6.277
 7457SOL    HW224146  13.451  11.827   6.189
 7458SOL     OW24147  10.938  10.813  10.287
 7458SOL    HW124148  10.956  10.867  10.364
 7458SOL    HW224149  10.856  10.848  10.252
 7459SOL     OW24150  12.036  13.665   0.563
 7459SOL    HW124151  12.114  13.719   0.572
 7459SOL    HW224152  12.063  13.578   0.591
 7460SOL     OW24153   0.328   4.541  11.059
 7460SOL    HW124154   0.409   4.506  11.021
 7460SOL    HW224155   0.268   4.467  11.059
 7461SOL     OW24156   8.352   8.563  11.991
 7461SOL    HW124157   8.274   8.611  11.964
 7461SOL    HW224158   8.350   8.484  11.937
 7462SOL     OW24159   5.061   8.184   8.813
 7462SOL    HW124160   5.085   8.277   8.815
 7462SOL    HW224161   5.116   8.146   8.745
 7463SOL     OW24162   8.482   1.617   8.750
 7463SOL    HW124163   8.558   1.651   8.798
 7463SOL    HW224164   8.436   1.695   8.720
 7464SOL     OW24165   3.238   1.317   6.903
 7464SOL    HW124166   3.245   1.279   6.815
 7464SOL    HW224167   3.323   1.359   6.918
 7465SOL     OW24168   0.910   5.191   2.465
 7465SOL    HW124169   0.873   5.258   2.522
 7465SOL    HW224170   0.845   5.121   2.463
 7466SOL     OW24171   7.785  13.696   9.997
 7466SOL    HW124172   7.807  13.757   9.927
 7466SOL    HW224173   7.859  13.635  10.000
 7467SOL     OW24174  14.562   2.404   8.664
 7467SOL    HW124175  14.533   2.457   8.737
 7467SOL    HW224176  14.592   2.467   8.599
 7468SOL     OW24177   7.845  10.690   9.718
 7468SOL    HW124178   7.777  10.708   9.784
 7468SOL    HW224179   7.911  10.639   9.765
 7469SOL     OW24180  13.939   4.593   3.107
 7469SOL    HW124181  13.866   4.648   3.078
 7469SOL    HW224182  13.958   4.622   3.196
 7470SOL     OW24183   2.181   2.886   3.220
 7470SOL    HW124184   2.264   2.871   3.174
 7470SOL    HW224185   2.172   2.812   3.279
 7471SOL     OW24186   3.130   8.108  10.071
 7471SOL    HW124187   3.069   8.168  10.116
 7471SOL    HW224188   3.137   8.143   9.982
 7472SOL     OW24189   4.302   6.975   8.410
 7472SOL    HW124190   4.374   6.952   8.468
 7472SOL    HW224191   4.279   7.065   8.434
 7473SOL     OW24192   6.296   6.221  12.608
 7473SOL    HW124193   6.279   6.128  12.596
 7473SOL    HW224194   6.372   6.224  12.666
 7474SOL     OW24195   4.075   4.846   5.790
 7474SOL    HW124196   4.052   4.788   5.863
 7474SOL    HW224197   4.147   4.900   5.824
 7475SOL     OW24198  14.196   2.509   1.972
 7475SOL    HW124199  14.186   2.585   2.030
 7475SOL    HW224200  14.280   2.472   1.996
 7476SOL     OW24201   5.882  13.386  11.668
 7476SOL    HW124202   5.809  13.365  11.726
 7476SOL    HW224203   5.891  13.309  11.612
 7477SOL     OW24204   0.222   7.713   7.913
 7477SOL    HW124205   0.314   7.719   7.939
 7477SOL    HW224206   0.224   7.701   7.818
 7478SOL     OW24207   7.889  11.818  11.862
 7478SOL    HW124208   7.818  11.766  11.824
 7478SOL    HW224209   7.879  11.905  11.824
 7479SOL     OW24210   4.272   7.022  11.403
 7479SOL    HW124211   4.301   7.097  11.455
 7479SOL    HW224212   4.221   7.061  11.332
 7480SOL     OW24213   9.395   9.282  11.991
 7480SOL    HW124214   9.371   9.217  12.058
 7480SOL    HW224215   9.477   9.249  11.955
 7481SOL     OW24216   6.807  11.014   5.277
 7481SOL    HW124217   6.771  11.091   5.320
 7481SOL    HW224218   6.890  10.998   5.322
 7482SOL     OW24219   3.152  13.571   3.974
 7482SOL    HW124220   3.217  13.616   3.919
 7482SOL    HW224221   3.068  13.610   3.948
 7483SOL     OW24222   7.470  11.643   6.962
 7483SOL    HW124223   7.420  11.585   6.903
 7483SOL    HW224224   7.542  11.674   6.908
 7484SOL     OW24225  11.100   0.057   5.029
 7484SOL    HW124226  11.015   0.017   5.011
 7484SOL    HW224227  11.142   0.065   4.943
 7485SOL     OW24228   0.280   5.237   9.265
 7485SOL    HW124229   0.188   5.229   9.289
 7485SOL    HW224230   0.279   5.248   9.170
 7486SOL     OW24231   4.647  14.008   8.528
 7486SOL    HW124232   4.676  14.096   8.554
 7486SOL    HW224233   4.685  13.950   8.594
 7487SOL     OW24234   4.808  13.050   5.797
 7487SOL    HW124235   4.870  13.061   5.869
 7487SOL    HW224236   4.810  13.133   5.750
 7488SOL     OW24237   6.271   7.648   3.501
 7488SOL    HW124238   6.308   7.565   3.529
 7488SOL    HW224239   6.346   7.703   3.479
 7489SOL     OW24240  12.247   4.285  12.695
 7489SOL    HW124241  12.213   4.236  12.769
 7489SOL    HW224242  12.217   4.375  12.709
 7490SOL     OW24243   2.828  10.625  12.695
 7490SOL    HW124244   2.912  10.580  12.689
 7490SOL    HW224245   2.847  10.708  12.738
 7491SOL     OW24246   6.558   6.441  12.587
 7491SOL    HW124247   6.486   6.498  12.559
 7491SOL    HW224248   6.589   6.400  12.507
 7492SOL     OW24249  14.172   0.604  11.640
 7492SOL    HW124250  14.187   0.520  11.684
 7492SOL    HW224251  14.153   0.580  11.549
 7493SOL     OW24252  12.149   6.486   1.799
 7493SOL    HW124253  12.116   6.531   1.877
 7493SOL    HW224254  12.073   6.482   1.740
 7494SOL     OW24255  13.349   8.798   3.211
 7494SOL    HW124256  13.401   8.840   3.280
 7494SOL    HW224257  13.295   8.868   3.176
 7495SOL     OW24258   1.221  13.652  11.808
 7495SOL    HW124259   1.230  13.658  11.903
 7495SOL    HW224260   1.127  13.659  11.792
 7496SOL     OW24261   3.031   1.467   9.872
 7496SOL    HW124262   2.949   1.501   9.837
 7496SOL    HW224263   3.063   1.536   9.930
 7497SOL     OW24264   2.562   9.182   8.175
 7497SOL    HW124265   2.628   9.177   8.106
 7497SOL    HW224266   2.528   9.271   8.169
 7498SOL     OW24267   3.398  11.459  10.810
 7498SOL    HW124268   3.458  11.406  10.862
 7498SOL    HW224269   3.386  11.539  10.861
 7499SOL     OW24270  11.181   2.876  13.838
 7499SOL    HW124271  11.125   2.942  13.798
 7499SOL    HW224272  11.219   2.828  13.764
 7500SOL     OW24273   5.454  14.706  14.238
 7500SOL    HW124274   5.389  14.670  14.299
 7500SOL    HW224275   5.538  14.679  14.274
 7501SOL     OW24276   3.154   9.685  12.071
 7501SOL    HW124277   3.072   9.659  12.111
 7501SOL    HW224278   3.176   9.611  12.013
 7502SOL     OW24279   3.958  11.666   2.795
 7502SOL    HW124280   4.027  11.606   2.821
 7502SOL    HW224281   4.004  11.745   2.766
 7503SOL     OW24282   1.853   0.449   5.470
 7503SOL    HW124283   1.917   0.381   5.491
 7503SOL    HW224284   1.905   0.527   5.452
 7504SOL     OW24285   3.374   7.252  14.671
 7504SOL    HW124286   3.304   7.220  14.615
 7504SOL    HW224287   3.422   7.314  14.616
 7505SOL     OW24288  12.675  13.317   9.878
 7505SOL    HW124289  12.644  13.291   9.792
 7505SOL    HW224290  12.600  13.300   9.936
 7506SOL     OW24291   6.254   7.039   8.112
 7506SOL    HW124292   6.268   7.046   8.017
 7506SOL    HW224293   6.216   6.952   8.125
 7507SOL     OW24294   7.511  12.500  11.690
 7507SOL    HW124295   7.589  12.512  11.636
 7507SOL    HW224296   7.545  12.497  11.780
 7508SOL     OW24297  14.556  13.781  12.302
 7508SOL    HW124298  14.561  13.756  12.394
 7508SOL    HW224299  14.548  13.698  12.255
 7509SOL     OW24300   3.093   9.741  11.072
 7509SOL    HW124301   3.019   9.739  11.132
 7509SOL    HW224302   3.059   9.784  10.993
 7510SOL     OW24303   0.761  12.046   4.761
 7510SOL    HW124304   0.735  12.001   4.841
 7510SOL    HW224305   0.738  11.985   4.691
 7511SOL     OW24306   5.373   7.227   2.353
 7511SOL    HW124307   5.291   7.191   2.388
 7511SOL    HW224308   5.437   7.212   2.423
 7512SOL     OW24309   9.542   7.412   8.991
 7512SOL    HW124310   9.448   7.399   9.004
 7512SOL    HW224311   9.579   7.324   8.995
 7513SOL     OW24312   9.862  14.246  13.253
 7513SOL    HW124313   9.800  14.207  13.191
 7513SOL    HW224314   9.871  14.337  13.224
 7514SOL     OW24315   8.340   5.543   0.895
 7514SOL    HW124316   8.364   5.605   0.963
 7514SOL    HW224317   8.423   5.511   0.861
 7515SOL     OW24318   7.033   0.730  12.546
 7515SOL    HW124319   7.033   0.660  12.480
 7515SOL    HW224320   7.024   0.811  12.496
 7516SOL     OW24321   7.225  11.394   0.380
 7516SOL    HW124322   7.314  11.365   0.361
 7516SOL    HW224323   7.184  11.403   0.295
 7517SOL     OW24324  11.550  10.368   1.400
 7517SOL    HW124325  11.578  10.388   1.311
 7517SOL    HW224326  11.519  10.452   1.435
 7518SOL     OW24327   2.717  12.132   2.841
 7518SOL    HW124328   2.683  12.181   2.916
 7518SOL    HW224329   2.811  12.150   2.841
 7519SOL     OW24330   8.171   2.433   7.375
 7519SOL    HW124331   8.204   2.465   7.291
 7519SOL    HW224332   8.172   2.338   7.367
 7520SOL     OW24333   7.385   4.825   1.862
 7520SOL    HW124334   7.369   4.891   1.930
 7520SOL    HW224335   7.440   4.870   1.797
 7521SOL     OW24336  12.798  12.371  12.520
 7521SOL    HW124337  12.750  12.289  12.513
 7521SOL    HW224338  12.885  12.350  12.487
 7522SOL     OW24339   4.578  13.897   7.259
 7522SOL    HW124340   4.596  13.898   7.353
 7522SOL    HW224341   4.546  13.809   7.241
 7523SOL     OW24342   6.207   5.478   1.713
 7523SOL    HW124343   6.212   5.489   1.618
 7523SOL    HW224344   6.293   5.504   1.745
 7524SOL     OW24345   2.879  12.750  13.966
 7524SOL    HW124346   2.811  12.807  13.931
 7524SOL    HW224347   2.939  12.809  14.012
 7525SOL     OW24348   5.020   1.628  13.101
 7525SOL    HW124349   5.038   1.608  13.010
 7525SOL    HW224350   5.106   1.638  13.142
 7526SOL     OW24351  13.472   7.036  12.259
 7526SOL    HW124352  13.528   7.112  12.244
 7526SOL    HW224353  13.459   7.035  12.354
 7527SOL     OW24354  12.346   1.182  13.593
 7527SOL    HW124355  12.368   1.272  13.568
 7527SOL    HW224356  12.422   1.131  13.567
 7528SOL     OW24357   1.594   1.936   4.238
 7528SOL    HW124358   1.581   1.901   4.326
 7528SOL    HW224359   1.596   1.859   4.181
 7529SOL     OW24360   4.434  14.016   0.340
 7529SOL    HW124361   4.436  13.921   0.350
 7529SOL    HW224362   4.401  14.049   0.423
 7530SOL     OW24363   2.651   6.950  13.537
 7530SOL    HW124364   2.716   7.020  13.528
 7530SOL    HW224365   2.654   6.927  13.630
 7531SOL     OW24366   0.613   8.464   7.195
 7531SOL    HW124367   0.583   8.483   7.285
 7531SOL    HW224368   0.534   8.471   7.142
 7532SOL     OW24369   8.030  10.061   9.119
 7532SOL    HW124370   8.119  10.090   9.098
 7532SOL    HW224371   7.975  10.102   9.053
 7533SOL     OW24372   1.445   3.206  12.068
 7533SOL    HW124373   1.379   3.182  12.002
 7533SOL    HW224374   1.403   3.186  12.152
 7534SOL     OW24375   2.487  11.026   0.908
 7534SOL    HW124376   2.434  11.071   0.974
 7534SOL    HW224377   2.577  11.038   0.938
 7535SOL     OW24378   2.904   8.684   2.331
 7535SOL    HW124379   2.943   8.762   2.290
 7535SOL    HW224380   2.846   8.719   2.398
 7536SOL     OW24381   3.985   6.017  14.836
 7536SOL    HW124382   4.061   5.962  14.818
 7536SOL    HW224383   3.927   6.004  14.761
 7537SOL     OW24384   0.708   8.729   0.366
 7537SOL    HW124385   0.777   8.685   0.316
 7537SOL    HW224386   0.661   8.657   0.409
 7538SOL     OW24387   9.530   3.960  10.013
 7538SOL    HW124388   9.564   4.030   9.958
 7538SOL    HW224389   9.452   3.929   9.967
 7539SOL     OW24390  11.247   6.244   4.977
 7539SOL    HW124391  11.277   6.299   4.905
 7539SOL    HW224392  11.224   6.161   4.936
 7540SOL     OW24393  13.596  12.337   4.247
 7540SOL    HW124394  13.546  12.337   4.166
 7540SOL    HW224395  13.627  12.427   4.257
 7541SOL     OW24396  10.531   1.496   6.124
 7541SOL    HW124397  10.447   1.542   6.119
 7541SOL    HW224398  10.595   1.565   6.144
 7542SOL     OW24399   0.300   8.550   2.886
 7542SOL    HW124400   0.311   8.635   2.929
 7542SOL    HW224401   0.325   8.486   2.953
 7543SOL     OW24402  11.909  10.880   1.166
 7543SOL    HW124403  11.952  10.796   1.153
 7543SOL    HW224404  11.890  10.912   1.078
 7544SOL     OW24405   4.873   3.593   8.369
 7544SOL    HW124406   4.947   3.622   8.423
 7544SOL    HW224407   4.797   3.598   8.426
 7545SOL     OW24408  12.204   9.246   5.041
 7545SOL    HW124409  12.262   9.266   5.114
 7545SOL    HW224410  12.116   9.248   5.080
 7546SOL     OW24411   4.201   8.991   0.277
 7546SOL    HW124412   4.206   9.023   0.187
 7546SOL    HW224413   4.292   8.984   0.306
 7547SOL     OW24414   2.078   5.730   9.022
 7547SOL    HW124415   2.069   5.708   8.929
 7547SOL    HW224416   2.146   5.798   9.023
 7548SOL     OW24417  11.377   0.873   7.371
 7548SOL    HW124418  11.314   0.807   7.403
 7548SOL    HW224419  11.368   0.869   7.275
 7549SOL     OW24420  11.593   5.175   8.784
 7549SOL    HW124421  11.570   5.268   8.782
 7549SOL    HW224422  11.531   5.136   8.846
 7550SOL     OW24423   5.701  10.230  11.133
 7550SOL    HW124424   5.739  10.318  11.137
 7550SOL    HW224425   5.734  10.187  11.212
 7551SOL     OW24426  10.760  14.845  10.782
 7551SOL    HW124427  10.688  14.786  10.759
 7551SOL    HW224428  10.818  14.792  10.836
 7552SOL     OW24429   9.577   4.373  14.851
 7552SOL    HW124430   9.622   4.344  14.771
 7552SOL    HW224431   9.625   4.451  14.878
 7553SOL     OW24432   8.051  14.628  11.568
 7553SOL    HW124433   7.994  14.555  11.547
 7553SOL    HW224434   8.049  14.634  11.663
 7554SOL     OW24435   9.431  13.654   7.052
 7554SOL    HW124436   9.452  13.702   7.132
 7554SOL    HW224437   9.442  13.718   6.982
 7555SOL     OW24438  11.057  11.619   4.759
 7555SOL    HW124439  11.111  11.678   4.705
 7555SOL    HW224440  10.974  11.664   4.769
 7556SOL     OW24441   0.120  14.326   1.672
 7556SOL    HW124442   0.031  14.289   1.672
 7556SOL    HW224443   0.177  14.250   1.666
 7557SOL     OW24444   4.337   8.922   0.579
 7557SOL    HW124445   4.361   9.002   0.626
 7557SOL    HW224446   4.400   8.917   0.506
 7558SOL     OW24447   2.635   9.090   2.736
 7558SOL    HW124448   2.581   9.169   2.734
 7558SOL    HW224449   2.644   9.065   2.644
 7559SOL     OW24450   5.863   9.597   3.018
 7559SOL    HW124451   5.923   9.614   2.945
 7559SOL    HW224452   5.901   9.521   3.063
 7560SOL     OW24453   4.299  13.195  11.723
 7560SOL    HW124454   4.282  13.103  11.705
 7560SOL    HW224455   4.361  13.222  11.655
 7561SOL     OW24456  13.167   3.016  13.537
 7561SOL    HW124457  13.258   3.021  13.508
 7561SOL    HW224458  13.144   2.924  13.528
 7562SOL     OW24459   0.026   8.211   4.008
 7562SOL    HW124460   0.057   8.127   4.042
 7562SOL    HW224461   0.092   8.274   4.035
 7563SOL     OW24462   0.512   3.494   4.174
 7563SOL    HW124463   0.547   3.456   4.254
 7563SOL    HW224464   0.537   3.587   4.178
 7564SOL     OW24465  10.781   3.077   4.973
 7564SOL    HW124466  10.772   3.096   4.880
 7564SOL    HW224467  10.707   3.122   5.014
 7565SOL     OW24468   9.767  14.076  10.034
 7565SOL    HW124469   9.773  13.981  10.044
 7565SOL    HW224470   9.731  14.089   9.946
 7566SOL     OW24471  14.215   4.075  11.377
 7566SOL    HW124472  14.290   4.127  11.351
 7566SOL    HW224473  14.212   4.083  11.473
 7567SOL     OW24474   6.605   3.740   4.950
 7567SOL    HW124475   6.627   3.822   4.994
 7567SOL    HW224476   6.510   3.735   4.956
 7568SOL     OW24477   0.621  13.602   5.939
 7568SOL    HW124478   0.692  13.622   5.879
 7568SOL    HW224479   0.665  13.587   6.023
 7569SOL     OW24480   2.413  14.602  10.802
 7569SOL    HW124481   2.432  14.520  10.758
 7569SOL    HW224482   2.484  14.613  10.866
 7570SOL     OW24483   2.060   8.323   4.560
 7570SOL    HW124484   1.988   8.376   4.525
 7570SOL    HW224485   2.136   8.348   4.508
 7571SOL     OW24486   4.681   2.280   4.952
 7571SOL    HW124487   4.721   2.352   4.902
 7571SOL    HW224488   4.603   2.257   4.901
 7572SOL     OW24489   3.487   6.293  13.491
 7572SOL    HW124490   3.516   6.206  13.520
 7572SOL    HW224491   3.434   6.276  13.413
 7573SOL     OW24492   1.383  13.382   4.154
 7573SOL    HW124493   1.356  13.301   4.110
 7573SOL    HW224494   1.323  13.448   4.119
 7574SOL     OW24495  11.042   2.984  11.426
 7574SOL    HW124496  10.954   2.996  11.391
 7574SOL    HW224497  11.069   2.897  11.394
 7575SOL     OW24498  10.806   2.453  10.275
 7575SOL    HW124499  10.786   2.534  10.322
 7575SOL    HW224500  10.899   2.460  10.254
 7576SOL     OW24501  14.703   9.066  12.324
 7576SOL    HW124502  14.780   9.010  12.318
 7576SOL    HW224503  14.687   9.096  12.235
 7577SOL     OW24504   4.641   4.372  13.592
 7577SOL    HW124505   4.636   4.313  13.666
 7577SOL    HW224506   4.695   4.445  13.623
 7578SOL     OW24507   1.491  14.854   9.775
 7578SOL    HW124508   1.522  14.874   9.863
 7578SOL    HW224509   1.396  14.861   9.781
 7579SOL     OW24510   3.766  13.180  13.181
 7579SOL    HW124511   3.674  13.193  13.158
 7579SOL    HW224512   3.805  13.138  13.104
 7580SOL     OW24513  13.589   5.848   6.481
 7580SOL    HW124514  13.599   5.892   6.566
 7580SOL    HW224515  13.498   5.820   6.478
 7581SOL     OW24516   6.697  10.891   0.539
 7581SOL    HW124517   6.693  10.796   0.553
 7581SOL    HW224518   6.607  10.915   0.516
 7582SOL     OW24519   8.780  13.124  12.347
 7582SOL    HW124520   8.844  13.120  12.276
 7582SOL    HW224521   8.832  13.129  12.427
 7583SOL     OW24522   4.463   6.988  14.014
 7583SOL    HW124523   4.479   7.072  13.970
 7583SOL    HW224524   4.514   6.925  13.963
 7584SOL     OW24525  10.743  13.907  12.647
 7584SOL    HW124526  10.812  13.935  12.707
 7584SOL    HW224527  10.662  13.927  12.693
 7585SOL     OW24528   9.050  10.024   1.466
 7585SOL    HW124529   8.965  10.034   1.508
 7585SOL    HW224530   9.111  10.005   1.538
 7586SOL     OW24531   3.891  10.111   9.802
 7586SOL    HW124532   3.844  10.180   9.755
 7586SOL    HW224533   3.828  10.078   9.866
 7587SOL     OW24534  11.833   2.688   2.526
 7587SOL    HW124535  11.766   2.622   2.504
 7587SOL    HW224536  11.910   2.637   2.550
 7588SOL     OW24537   2.787   3.368   8.598
 7588SOL    HW124538   2.731   3.423   8.544
 7588SOL    HW224539   2.731   3.295   8.625
 7589SOL     OW24540   1.175   5.681   8.314
 7589SOL    HW124541   1.099   5.644   8.268
 7589SOL    HW224542   1.158   5.775   8.317
 7590SOL     OW24543  12.943   5.782  13.783
 7590SOL    HW124544  12.868   5.821  13.737
 7590SOL    HW224545  12.985   5.856  13.827
 7591SOL     OW24546  11.884  10.144   7.001
 7591SOL    HW124547  11.921  10.077   6.943
 7591SOL    HW224548  11.810  10.101   7.043
 7592SOL     OW24549   5.495  10.338   7.467
 7592SOL    HW124550   5.501  10.370   7.377
 7592SOL    HW224551   5.519  10.413   7.521
 7593SOL     OW24552  13.942   7.798  12.295
 7593SOL    HW124553  13.894   7.813  12.214
 7593SOL    HW224554  13.877   7.766  12.357
 7594SOL     OW24555   0.408  12.635   8.215
 7594SOL    HW124556   0.352  12.711   8.229
 7594SOL    HW224557   0.414  12.593   8.301
 7595SOL     OW24558   8.888   1.234  14.331
 7595SOL    HW124559   8.926   1.221  14.244
 7595SOL    HW224560   8.869   1.145  14.362
 7596SOL     OW24561   0.710   6.102   2.028
 7596SOL    HW124562   0.778   6.168   2.018
 7596SOL    HW224563   0.754   6.019   2.014
 7597SOL     OW24564   4.022   1.300  13.130
 7597SOL    HW124565   4.016   1.390  13.162
 7597SOL    HW224566   4.011   1.246  13.209
 7598SOL     OW24567   4.296  11.712   7.306
 7598SOL    HW124568   4.201  11.710   7.295
 7598SOL    HW224569   4.309  11.754   7.391
 7599SOL     OW24570  11.016   8.504  10.748
 7599SOL    HW124571  11.049   8.424  10.789
 7599SOL    HW224572  10.952   8.474  10.683
 7600SOL     OW24573   6.398   4.957   0.242
 7600SOL    HW124574   6.483   4.929   0.209
 7600SOL    HW224575   6.393   4.918   0.330
 7601SOL     OW24576   9.765   9.587   9.544
 7601SOL    HW124577   9.827   9.657   9.528
 7601SOL    HW224578   9.748   9.550   9.457
 7602SOL     OW24579  10.462   9.640   1.154
 7602SOL    HW124580  10.546   9.659   1.114
 7602SOL    HW224581  10.443   9.549   1.131
 7603SOL     OW24582   7.694   1.802  13.681
 7603SOL    HW124583   7.738   1.768  13.603
 7603SOL    HW224584   7.602   1.778  13.669
 7604SOL     OW24585   9.684  13.361   6.009
 7604SOL    HW124586   9.598  13.334   6.043
 7604SOL    HW224587   9.691  13.453   6.034
 7605SOL     OW24588   8.401  14.838  14.338
 7605SOL    HW124589   8.421  14.745  14.329
 7605SOL    HW224590   8.388  14.869  14.249
 7606SOL     OW24591   4.698   3.366   3.152
 7606SOL    HW124592   4.670   3.457   3.142
 7606SOL    HW224593   4.724   3.359   3.244
 7607SOL     OW24594   5.230  11.734  13.179
 7607SOL    HW124595   5.246  11.644  13.151
 7607SOL    HW224596   5.309  11.781  13.154
 7608SOL     OW24597   4.080  11.224   7.779
 7608SOL    HW124598   4.031  11.180   7.710
 7608SOL    HW224599   4.119  11.153   7.830
 7609SOL     OW24600  14.217  11.195   6.685
 7609SOL    HW124601  14.226  11.290   6.676
 7609SOL    HW224602  14.290  11.170   6.742
 7610SOL     OW24603   3.030   2.181   4.915
 7610SOL    HW124604   3.052   2.240   4.987
 7610SOL    HW224605   3.111   2.170   4.867
 7611SOL     OW24606   4.616   8.395   9.600
 7611SOL    HW124607   4.707   8.420   9.619
 7611SOL    HW224608   4.563   8.467   9.635
 7612SOL     OW24609  12.913  10.483  12.037
 7612SOL    HW124610  12.894  10.404  12.089
 7612SOL    HW224611  13.009  10.484  12.029
 7613SOL     OW24612   4.821  14.820   7.114
 7613SOL    HW124613   4.870  14.861   7.042
 7613SOL    HW224614   4.860  14.733   7.123
 7614SOL     OW24615  10.240  12.674   3.257
 7614SOL    HW124616  10.245  12.598   3.199
 7614SOL    HW224617  10.148  12.700   3.254
 7615SOL     OW24618   6.665  13.473   0.753
 7615SOL    HW124619   6.593  13.530   0.779
 7615SOL    HW224620   6.742  13.512   0.793
 7616SOL     OW24621   9.642  14.461  14.740
 7616SOL    HW124622   9.715  14.409  14.707
 7616SOL    HW224623   9.597  14.402  14.801
 7617SOL     OW24624   2.464  13.988  14.198
 7617SOL    HW124625   2.487  14.080  14.211
 7617SOL    HW224626   2.429  13.960  14.282
 7618SOL     OW24627  12.034   7.102  13.320
 7618SOL    HW124628  11.989   7.030  13.276
 7618SOL    HW224629  11.972   7.132  13.386
 7619SOL     OW24630   8.682   5.620   2.642
 7619SOL    HW124631   8.724   5.541   2.607
 7619SOL    HW224632   8.598   5.589   2.676
 7620SOL     OW24633   1.318   5.924   8.576
 7620SOL    HW124634   1.318   5.831   8.600
 7620SOL    HW224635   1.409   5.952   8.588
 7621SOL     OW24636  13.886  11.232  13.957
 7621SOL    HW124637  13.890  11.167  14.027
 7621SOL    HW224638  13.963  11.214  13.903
 7622SOL     OW24639   5.408  14.390  12.265
 7622SOL    HW124640   5.329  14.427  12.226
 7622SOL    HW224641   5.407  14.298  12.240
 7623SOL     OW24642  11.037   8.048  12.179
 7623SOL    HW124643  10.989   7.976  12.137
 7623SOL    HW224644  11.065   8.103  12.106
 7624SOL     OW24645   5.507   4.408   1.981
 7624SOL    HW124646   5.464   4.368   1.905
 7624SOL    HW224647   5.550   4.486   1.945
 7625SOL     OW24648   5.906  14.738   7.447
 7625SOL    HW124649   5.992  14.767   7.416
 7625SOL    HW224650   5.896  14.780   7.532
 7626SOL     OW24651   6.200   4.346  12.019
 7626SOL    HW124652   6.244   4.261  12.021
 7626SOL    HW224653   6.249   4.400  12.081
 7627SOL     OW24654   5.604   6.465   5.857
 7627SOL    HW124655   5.680   6.420   5.894
 7627SOL    HW224656   5.536   6.457   5.924
 7628SOL     OW24657   6.658   5.394   8.176
 7628SOL    HW124658   6.692   5.328   8.115
 7628SOL    HW224659   6.627   5.343   8.252
 7629SOL     OW24660  11.859   3.692  11.786
 7629SOL    HW124661  11.811   3.766  11.748
 7629SOL    HW224662  11.822   3.682  11.873
 7630SOL     OW24663  10.848  11.169   8.871
 7630SOL    HW124664  10.874  11.095   8.816
 7630SOL    HW224665  10.873  11.246   8.821
 7631SOL     OW24666   0.755  13.132   3.719
 7631SOL    HW124667   0.670  13.126   3.761
 7631SOL    HW224668   0.809  13.182   3.781
 7632SOL     OW24669  11.578  11.169   9.071
 7632SOL    HW124670  11.657  11.173   9.017
 7632SOL    HW224671  11.564  11.259   9.100
 7633SOL     OW24672  10.394   7.159   2.335
 7633SOL    HW124673  10.459   7.148   2.403
 7633SOL    HW224674  10.420   7.238   2.288
 7634SOL     OW24675  13.017   7.012  11.246
 7634SOL    HW124676  13.002   7.041  11.336
 7634SOL    HW224677  13.092   7.063  11.217
 7635SOL     OW24678  13.047   4.745  10.749
 7635SOL    HW124679  13.049   4.654  10.780
 7635SOL    HW224680  13.126   4.784  10.786
 7636SOL     OW24681  14.013   6.336   9.944
 7636SOL    HW124682  14.103   6.303   9.950
 7636SOL    HW224683  13.995   6.339   9.850
 7637SOL     OW24684  11.642   8.751   2.476
 7637SOL    HW124685  11.665   8.727   2.565
 7637SOL    HW224686  11.660   8.672   2.424
 7638SOL     OW24687   5.972   1.922  10.328
 7638SOL    HW124688   5.967   1.973  10.409
 7638SOL    HW224689   6.008   1.838  10.355
 7639SOL     OW24690   4.468  10.948   6.992
 7639SOL    HW124691   4.531  10.971   6.923
 7639SOL    HW224692   4.485  10.856   7.011
 7640SOL     OW24693   9.130  14.632   7.962
 7640SOL    HW124694   9.143  14.554   7.908
 7640SOL    HW224695   9.070  14.604   8.031
 7641SOL     OW24696  11.317   7.255   3.180
 7641SOL    HW124697  11.311   7.336   3.128
 7641SOL    HW224698  11.351   7.283   3.265
 7642SOL     OW24699   9.968   9.783  10.587
 7642SOL    HW124700   9.907   9.811  10.518
 7642SOL    HW224701  10.024   9.718  10.544
 7643SOL     OW24702  13.623   9.733  11.372
 7643SOL    HW124703  13.532   9.704  11.372
 7643SOL    HW224704  13.618   9.829  11.375
 7644SOL     OW24705  10.241   0.738   8.699
 7644SOL    HW124706  10.243   0.794   8.777
 7644SOL    HW224707  10.148   0.724   8.682
 7645SOL     OW24708   7.569  14.175  10.622
 7645SOL    HW124709   7.569  14.095  10.570
 7645SOL    HW224710   7.643  14.165  10.683
 7646SOL     OW24711   9.026   4.344   6.539
 7646SOL    HW124712   9.076   4.301   6.608
 7646SOL    HW224713   9.014   4.276   6.472
 7647SOL     OW24714   2.494   0.337   7.554
 7647SOL    HW124715   2.466   0.246   7.551
 7647SOL    HW224716   2.451   0.373   7.632
 7648SOL     OW24717  13.241   4.856   0.621
 7648SOL    HW124718  13.243   4.943   0.582
 7648SOL    HW224719  13.294   4.865   0.701
 7649SOL     OW24720   2.722   7.899  13.395
 7649SOL    HW124721   2.680   7.935  13.317
 7649SOL    HW224722   2.816   7.913  13.380
 7650SOL     OW24723   5.984   6.527   7.300
 7650SOL    HW124724   6.045   6.602   7.299
 7650SOL    HW224725   5.909   6.558   7.351
 7651SOL     OW24726   2.298   5.403   1.469
 7651SOL    HW124727   2.309   5.485   1.518
 7651SOL    HW224728   2.320   5.335   1.533
 7652SOL     OW24729   3.476   2.164   6.553
 7652SOL    HW124730   3.472   2.143   6.460
 7652SOL    HW224731   3.559   2.209   6.564
 7653SOL     OW24732   1.386   3.846   1.871
 7653SOL    HW124733   1.441   3.812   1.942
 7653SOL    HW224734   1.333   3.771   1.844
 7654SOL     OW24735   8.676  11.227   8.508
 7654SOL    HW124736   8.677  11.192   8.598
 7654SOL    HW224737   8.768  11.233   8.484
 7655SOL     OW24738  12.261   3.402   0.119
 7655SOL    HW124739  12.204   3.475   0.094
 7655SOL    HW224740  12.347   3.442   0.132
 7656SOL     OW24741   3.030   9.612   6.036
 7656SOL    HW124742   3.108   9.593   6.088
 7656SOL    HW224743   3.064   9.629   5.947
 7657SOL     OW24744  10.385  12.854   8.997
 7657SOL    HW124745  10.290  12.845   8.987
 7657SOL    HW224746  10.404  12.943   8.970
 7658SOL     OW24747   0.354   3.515  14.808
 7658SOL    HW124748   0.376   3.511  14.715
 7658SOL    HW224749   0.439   3.513  14.853
 7659SOL     OW24750   3.134   8.064  13.810
 7659SOL    HW124751   3.105   8.109  13.889
 7659SOL    HW224752   3.197   8.124  13.771
 7660SOL     OW24753   5.746   2.981   9.351
 7660SOL    HW124754   5.820   3.013   9.300
 7660SOL    HW224755   5.768   3.003   9.442
 7661SOL     OW24756   9.515  13.485   9.752
 7661SOL    HW124757   9.497  13.477   9.658
 7661SOL    HW224758   9.483  13.572   9.776
 7662SOL     OW24759   0.528   7.302  14.670
 7662SOL    HW124760   0.466   7.342  14.609
 7662SOL    HW224761   0.614   7.321  14.633
 7663SOL     OW24762   0.925   1.174   7.907
 7663SOL    HW124763   0.958   1.196   7.994
 7663SOL    HW224764   0.845   1.225   7.898
 7664SOL     OW24765   2.232   4.749  10.426
 7664SOL    HW124766   2.270   4.812  10.486
 7664SOL    HW224767   2.176   4.694  10.481
 7665SOL     OW24768   1.466  10.596   8.827
 7665SOL    HW124769   1.482  10.572   8.919
 7665SOL    HW224770   1.503  10.524   8.777
 7666SOL     OW24771   5.523  11.376  10.050
 7666SOL    HW124772   5.600  11.361   9.995
 7666SOL    HW224773   5.449  11.373   9.989
 7667SOL     OW24774   6.549   8.430   1.069
 7667SOL    HW124775   6.563   8.518   1.034
 7667SOL    HW224776   6.506   8.383   0.998
 7668SOL     OW24777   6.244  10.696   7.334
 7668SOL    HW124778   6.217  10.625   7.391
 7668SOL    HW224779   6.176  10.700   7.266
 7669SOL     OW24780   3.612   7.531  12.883
 7669SOL    HW124781   3.589   7.548  12.974
 7669SOL    HW224782   3.624   7.437  12.878
 7670SOL     OW24783   5.121  10.943   2.730
 7670SOL    HW124784   5.171  10.981   2.658
 7670SOL    HW224785   5.181  10.880   2.770
 7671SOL     OW24786   8.613  10.278   7.081
 7671SOL    HW124787   8.644  10.244   7.165
 7671SOL    HW224788   8.638  10.211   7.017
 7672SOL     OW24789   4.105   7.789   2.390
 7672SOL    HW124790   4.133   7.867   2.438
 7672SOL    HW224791   4.109   7.719   2.455
 7673SOL     OW24792   7.666   6.746   8.018
 7673SOL    HW124793   7.658   6.672   8.078
 7673SOL    HW224794   7.683   6.706   7.933
 7674SOL     OW24795   6.292  13.718  12.421
 7674SOL    HW124796   6.263  13.744  12.508
 7674SOL    HW224797   6.307  13.624  12.427
 7675SOL     OW24798   7.784   5.376   2.998
 7675SOL    HW124799   7.696   5.411   3.011
 7675SOL    HW224800   7.804   5.331   3.080
 7676SOL     OW24801   4.027  12.301  11.365
 7676SOL    HW124802   3.950  12.357  11.366
 7676SOL    HW224803   4.083  12.338  11.296
 7677SOL     OW24804   5.619   4.780  10.573
 7677SOL    HW124805   5.628   4.687  10.553
 7677SOL    HW224806   5.681   4.823  10.514
 7678SOL     OW24807  10.641  10.567  12.901
 7678SOL    HW124808  10.734  10.570  12.882
 7678SOL    HW224809  10.600  10.614  12.829
 7679SOL     OW24810   7.381   8.849   7.085
 7679SOL    HW124811   7.397   8.905   7.162
 7679SOL    HW224812   7.290   8.868   7.062
 7680SOL     OW24813  10.515   4.216   6.948
 7680SOL    HW124814  10.510   4.227   6.853
 7680SOL    HW224815  10.520   4.305   6.982
 7681SOL     OW24816  11.218   2.865   3.691
 7681SOL    HW124817  11.155   2.812   3.641
 7681SOL    HW224818  11.169   2.944   3.713
 7682SOL     OW24819   3.141  10.023   7.263
 7682SOL    HW124820   3.070  10.051   7.320
 7682SOL    HW224821   3.119   9.933   7.239
 7683SOL     OW24822  10.067  12.374  12.017
 7683SOL    HW124823  10.049  12.444  11.955
 7683SOL    HW224824   9.987  12.323  12.020
 7684SOL     OW24825  14.074   2.758   9.653
 7684SOL    HW124826  14.085   2.846   9.687
 7684SOL    HW224827  13.979   2.743   9.655
 7685SOL     OW24828   6.992   1.035  12.382
 7685SOL    HW124829   7.041   1.102  12.334
 7685SOL    HW224830   6.929   1.083  12.435
 7686SOL     OW24831   4.656   4.570   2.752
 7686SOL    HW124832   4.567   4.539   2.768
 7686SOL    HW224833   4.649   4.666   2.755
 7687SOL     OW24834   2.783   1.997  11.332
 7687SOL    HW124835   2.875   1.969  11.340
 7687SOL    HW224836   2.772   2.061  11.402
 7688SOL     OW24837  11.024   5.249  11.191
 7688SOL    HW124838  11.044   5.181  11.127
 7688SOL    HW224839  11.052   5.331  11.149
 7689SOL     OW24840   8.179   3.090   1.291
 7689SOL    HW124841   8.151   3.181   1.301
 7689SOL    HW224842   8.179   3.054   1.379
 7690SOL     OW24843   2.520   0.047  11.739
 7690SOL    HW124844   2.585  14.858  11.738
 7690SOL    HW224845   2.472   0.033  11.821
 7691SOL     OW24846   6.668   8.914   1.776
 7691SOL    HW124847   6.731   8.913   1.848
 7691SOL    HW224848   6.677   8.828   1.735
 7692SOL     OW24849   9.301   3.820  14.475
 7692SOL    HW124850   9.238   3.765  14.521
 7692SOL    HW224851   9.257   3.905  14.467
 7693SOL     OW24852   1.793   7.820  10.416
 7693SOL    HW124853   1.768   7.773  10.496
 7693SOL    HW224854   1.886   7.800  10.405
 7694SOL     OW24855  14.544   7.520   1.144
 7694SOL    HW124856  14.489   7.576   1.088
 7694SOL    HW224857  14.633   7.550   1.126
 7695SOL     OW24858  12.876  14.249   3.828
 7695SOL    HW124859  12.849  14.326   3.878
 7695SOL    HW224860  12.888  14.180   3.893
 7696SOL     OW24861  10.679   2.316   3.574
 7696SOL    HW124862  10.761   2.338   3.529
 7696SOL    HW224863  10.705   2.305   3.666
 7697SOL     OW24864  13.130   3.998  13.615
 7697SOL    HW124865  13.187   3.935  13.571
 7697SOL    HW224866  13.157   3.995  13.707
 7698SOL     OW24867   0.887  10.005   0.624
 7698SOL    HW124868   0.856   9.973   0.709
 7698SOL    HW224869   0.911   9.926   0.576
 7699SOL     OW24870  11.407   1.838   8.503
 7699SOL    HW124871  11.376   1.758   8.546
 7699SOL    HW224872  11.342   1.854   8.435
 7700SOL     OW24873   6.083   4.581   0.190
 7700SOL    HW124874   6.079   4.582   0.094
 7700SOL    HW224875   6.089   4.673   0.214
 7701SOL     OW24876   2.364  11.900  13.617
 7701SOL    HW124877   2.444  11.852  13.593
 7701SOL    HW224878   2.394  11.966  13.679
 7702SOL     OW24879  10.649   9.582   5.667
 7702SOL    HW124880  10.670   9.658   5.612
 7702SOL    HW224881  10.602   9.619   5.742
 7703SOL     OW24882   0.601   7.840   6.237
 7703SOL    HW124883   0.651   7.836   6.156
 7703SOL    HW224884   0.644   7.909   6.288
 7704SOL     OW24885  13.233  14.251  12.779
 7704SOL    HW124886  13.223  14.340  12.744
 7704SOL    HW224887  13.275  14.264  12.864
 7705SOL     OW24888  12.598   7.268  10.225
 7705SOL    HW124889  12.637   7.320  10.155
 7705SOL    HW224890  12.520   7.316  10.250
 7706SOL     OW24891  13.539   5.178   7.443
 7706SOL    HW124892  13.616   5.231   7.462
 7706SOL    HW224893  13.466   5.229   7.477
 7707SOL     OW24894   4.105   4.321  10.787
 7707SOL    HW124895   4.043   4.367  10.844
 7707SOL    HW224896   4.049   4.271  10.728
 7708SOL     OW24897  14.302   9.536   3.413
 7708SOL    HW124898  14.314   9.469   3.480
 7708SOL    HW224899  14.305   9.487   3.330
 7709SOL     OW24900  14.192  13.662   0.673
 7709SOL    HW124901  14.274  13.654   0.624
 7709SOL    HW224902  14.155  13.574   0.672
 7710SOL     OW24903   7.382   1.595   0.440
 7710SOL    HW124904   7.361   1.677   0.394
 7710SOL    HW224905   7.301   1.572   0.485
 7711SOL     OW24906   8.352  12.819   2.589
 7711SOL    HW124907   8.343  12.779   2.502
 7711SOL    HW224908   8.436  12.865   2.585
 7712SOL     OW24909  13.318   6.131   1.727
 7712SOL    HW124910  13.283   6.049   1.692
 7712SOL    HW224911  13.412   6.126   1.709
 7713SOL     OW24912   2.328   6.508   3.837
 7713SOL    HW124913   2.263   6.442   3.860
 7713SOL    HW224914   2.334   6.504   3.742
 7714SOL     OW24915   4.792   5.271  13.357
 7714SOL    HW124916   4.861   5.336  13.368
 7714SOL    HW224917   4.721   5.302  13.413
 7715SOL     OW24918   5.884   0.334  10.312
 7715SOL    HW124919   5.975   0.311  10.293
 7715SOL    HW224920   5.884   0.430  10.315
 7716SOL     OW24921   1.138   2.178   5.087
 7716SOL    HW124922   1.105   2.122   5.157
 7716SOL    HW224923   1.161   2.260   5.132
 7717SOL     OW24924   0.405   7.641   6.904
 7717SOL    HW124925   0.425   7.606   6.990
 7717SOL    HW224926   0.438   7.575   6.843
 7718SOL     OW24927   3.921  11.325   8.359
 7718SOL    HW124928   3.935  11.415   8.387
 7718SOL    HW224929   3.893  11.333   8.267
 7719SOL     OW24930   1.516   4.834   3.698
 7719SOL    HW124931   1.479   4.836   3.610
 7719SOL    HW224932   1.500   4.921   3.733
 7720SOL     OW24933   3.612  11.834   4.175
 7720SOL    HW124934   3.672  11.805   4.243
 7720SOL    HW224935   3.533  11.782   4.189
 7721SOL     OW24936   2.228   4.544   6.564
 7721SOL    HW124937   2.162   4.613   6.568
 7721SOL    HW224938   2.201   4.481   6.631
 7722SOL     OW24939  11.808   6.348   4.240
 7722SOL    HW124940  11.714   6.368   4.248
 7722SOL    HW224941  11.813   6.253   4.253
 7723SOL     OW24942   3.677   1.646   0.896
 7723SOL    HW124943   3.721   1.725   0.867
 7723SOL    HW224944   3.641   1.607   0.816
 7724SOL     OW24945  11.911  13.242   7.125
 7724SOL    HW124946  11.998  13.250   7.086
 7724SOL    HW224947  11.858  13.307   7.078
 7725SOL     OW24948  13.803   3.351   3.609
 7725SOL    HW124949  13.715   3.340   3.645
 7725SOL    HW224950  13.844   3.415   3.666
 7726SOL     OW24951   3.540  10.032   7.768
 7726SOL    HW124952   3.505  10.016   7.856
 7726SOL    HW224953   3.562  10.125   7.767
 7727SOL     OW24954   1.346   1.276   5.851
 7727SOL    HW124955   1.297   1.244   5.776
 7727SOL    HW224956   1.328   1.213   5.921
 7728SOL     OW24957   1.847  13.741   4.422
 7728SOL    HW124958   1.872  13.803   4.354
 7728SOL    HW224959   1.926  13.729   4.475
 7729SOL     OW24960   5.143   0.634   7.866
 7729SOL    HW124961   5.058   0.621   7.907
 7729SOL    HW224962   5.165   0.549   7.828
 7730SOL     OW24963   5.187  11.131   0.982
 7730SOL    HW124964   5.146  11.116   1.067
 7730SOL    HW224965   5.165  11.053   0.931
 7731SOL     OW24966   0.396   1.390   9.123
 7731SOL    HW124967   0.370   1.384   9.031
 7731SOL    HW224968   0.350   1.319   9.166
 7732SOL     OW24969   3.321   4.961   3.833
 7732SOL    HW124970   3.368   4.891   3.877
 7732SOL    HW224971   3.384   5.032   3.825
 7733SOL     OW24972  14.090   0.467   4.319
 7733SOL    HW124973  14.165   0.526   4.314
 7733SOL    HW224974  14.037   0.501   4.391
 7734SOL     OW24975   8.616   2.199  13.351
 7734SOL    HW124976   8.618   2.224  13.443
 7734SOL    HW224977   8.626   2.104  13.351
 7735SOL     OW24978  14.078   2.065   9.346
 7735SOL    HW124979  14.166   2.070   9.384
 7735SOL    HW224980  14.021   2.103   9.414
 7736SOL     OW24981   8.009   9.685   1.230
 7736SOL    HW124982   7.949   9.618   1.199
 7736SOL    HW224983   8.036   9.655   1.317
 7737SOL     OW24984  12.189   7.325   9.579
 7737SOL    HW124985  12.156   7.314   9.669
 7737SOL    HW224986  12.265   7.381   9.588
 7738SOL     OW24987   0.196   1.729  13.550
 7738SOL    HW124988   0.267   1.666  13.541
 7738SOL    HW224989   0.233   1.799  13.605
 7739SOL     OW24990   7.910   3.782   5.157
 7739SOL    HW124991   7.893   3.706   5.102
 7739SOL    HW224992   7.841   3.844   5.133
 7740SOL     OW24993  14.727   2.706   7.605
 7740SOL    HW124994  14.699   2.783   7.655
 7740SOL    HW224995  14.683   2.716   7.520
 7741SOL     OW24996   1.011   6.847   6.499
 7741SOL    HW124997   0.937   6.906   6.518
 7741SOL    HW224998   1.018   6.848   6.404
 7742SOL     OW24999  10.382   4.314   5.452
 7742SOL    HW125000  10.438   4.331   5.528
 7742SOL    HW225001  10.436   4.261   5.393
 7743SOL     OW25002  12.711   8.394   3.624
 7743SOL    HW125003  12.801   8.361   3.628
 7743SOL    HW225004  12.721   8.489   3.621
 7744SOL     OW25005  12.830   6.661  12.964
 7744SOL    HW125006  12.831   6.658  13.060
 7744SOL    HW225007  12.740   6.640  12.941
 7745SOL     OW25008   1.438   6.752  14.555
 7745SOL    HW125009   1.431   6.667  14.598
 7745SOL    HW225010   1.378   6.747  14.481
 7746SOL     OW25011  13.147   5.873   5.961
 7746SOL    HW125012  13.213   5.844   6.024
 7746SOL    HW225013  13.072   5.816   5.976
 7747SOL     OW25014   5.688  10.589   1.921
 7747SOL    HW125015   5.661  10.586   2.013
 7747SOL    HW225016   5.635  10.658   1.882
 7748SOL     OW25017  10.095   5.583   7.498
 7748SOL    HW125018  10.057   5.647   7.558
 7748SOL    HW225019  10.178   5.623   7.470
 7749SOL     OW25020   9.700   4.930   8.249
 7749SOL    HW125021   9.620   4.978   8.226
 7749SOL    HW225022   9.671   4.867   8.316
 7750SOL     OW25023   0.427   6.015  11.386
 7750SOL    HW125024   0.480   5.972  11.453
 7750SOL    HW225025   0.451   5.972  11.304
 7751SOL     OW25026   9.137   1.739  11.877
 7751SOL    HW125027   9.124   1.657  11.829
 7751SOL    HW225028   9.212   1.780  11.834
 7752SOL     OW25029   9.699  13.543   6.454
 7752SOL    HW125030   9.740  13.578   6.534
 7752SOL    HW225031   9.743  13.589   6.383
 7753SOL     OW25032   5.516   2.053  13.090
 7753SOL    HW125033   5.421   2.061  13.101
 7753SOL    HW225034   5.533   2.086  13.002
 7754SOL     OW25035  13.458   4.691   9.120
 7754SOL    HW125036  13.439   4.598   9.128
 7754SOL    HW225037  13.554   4.696   9.119
 7755SOL     OW25038   2.217   0.097   6.248
 7755SOL    HW125039   2.152   0.063   6.309
 7755SOL    HW225040   2.166   0.126   6.172
 7756SOL     OW25041   4.831   4.388   6.248
 7756SOL    HW125042   4.768   4.341   6.302
 7756SOL    HW225043   4.818   4.352   6.160
 7757SOL     OW25044   2.954   8.926   6.973
 7757SOL    HW125045   2.989   9.015   6.980
 7757SOL    HW225046   2.953   8.893   7.063
 7758SOL     OW25047   3.018   5.097  14.647
 7758SOL    HW125048   3.063   5.098  14.562
 7758SOL    HW225049   2.941   5.151  14.634
 7759SOL     OW25050  10.686   0.367   6.275
 7759SOL    HW125051  10.741   0.293   6.248
 7759SOL    HW225052  10.702   0.434   6.208
 7760SOL     OW25053   5.502  14.075   6.860
 7760SOL    HW125054   5.466  14.160   6.836
 7760SOL    HW225055   5.435  14.012   6.834
 7761SOL     OW25056   0.728   5.988   7.709
 7761SOL    HW125057   0.772   6.053   7.654
 7761SOL    HW225058   0.797   5.927   7.735
 7762SOL     OW25059   7.399  10.523   3.201
 7762SOL    HW125060   7.324  10.515   3.141
 7762SOL    HW225061   7.462  10.577   3.153
 7763SOL     OW25062   6.290  12.996   6.425
 7763SOL    HW125063   6.364  12.987   6.364
 7763SOL    HW225064   6.291  12.914   6.475
 7764SOL     OW25065   3.387   9.124  14.438
 7764SOL    HW125066   3.318   9.162  14.493
 7764SOL    HW225067   3.412   9.196  14.380
 7765SOL     OW25068   4.828   0.273  11.042
 7765SOL    HW125069   4.798   0.187  11.015
 7765SOL    HW225070   4.863   0.260  11.130
 7766SOL     OW25071   4.706   4.423  11.653
 7766SOL    HW125072   4.661   4.470  11.724
 7766SOL    HW225073   4.693   4.478  11.576
 7767SOL     OW25074  13.771  10.092   6.658
 7767SOL    HW125075  13.715  10.024   6.698
 7767SOL    HW225076  13.816  10.046   6.587
 7768SOL     OW25077   2.006  10.314   8.059
 7768SOL    HW125078   1.957  10.319   8.142
 7768SOL    HW225079   2.079  10.255   8.077
 7769SOL     OW25080  11.330  13.708   7.187
 7769SOL    HW125081  11.242  13.743   7.171
 7769SOL    HW225082  11.379  13.732   7.109
 7770SOL     OW25083   6.289   2.787   0.753
 7770SOL    HW125084   6.306   2.801   0.660
 7770SOL    HW225085   6.216   2.725   0.755
 7771SOL     OW25086  13.502   7.387   2.985
 7771SOL    HW125087  13.493   7.292   2.980
 7771SOL    HW225088  13.427   7.416   3.037
 7772SOL     OW25089   3.546   5.276   9.793
 7772SOL    HW125090   3.561   5.300   9.702
 7772SOL    HW225091   3.633   5.270   9.831
 7773SOL     OW25092   0.309   0.913   3.068
 7773SOL    HW125093   0.358   0.860   3.006
 7773SOL    HW225094   0.375   0.956   3.122
 7774SOL     OW25095   3.101  14.646   8.170
 7774SOL    HW125096   3.187  14.678   8.197
 7774SOL    HW225097   3.113  14.618   8.080
 7775SOL     OW25098   7.956   0.831   7.198
 7775SOL    HW125099   7.998   0.906   7.241
 7775SOL    HW225100   7.929   0.864   7.113
 7776SOL     OW25101   5.112   1.895  11.990
 7776SOL    HW125102   5.203   1.869  11.999
 7776SOL    HW225103   5.098   1.902  11.896
 7777SOL     OW25104   7.416  10.699   0.804
 7777SOL    HW125105   7.465  10.674   0.725
 7777SOL    HW225106   7.334  10.649   0.797
 7778SOL     OW25107   2.879  10.721   3.641
 7778SOL    HW125108   2.855  10.812   3.628
 7778SOL    HW225109   2.797  10.673   3.631
 7779SOL     OW25110   3.509   3.023   0.830
 7779SOL    HW125111   3.491   2.985   0.744
 7779SOL    HW225112   3.583   3.081   0.816
 7780SOL     OW25113  12.609   6.211   1.768
 7780SOL    HW125114  12.606   6.307   1.768
 7780SOL    HW225115  12.650   6.189   1.685
 7781SOL     OW25116   8.246   4.437   4.061
 7781SOL    HW125117   8.319   4.395   4.015
 7781SOL    HW225118   8.256   4.408   4.152
 7782SOL     OW25119  10.987   1.469  13.876
 7782SOL    HW125120  11.009   1.464  13.969
 7782SOL    HW225121  11.070   1.491  13.833
 7783SOL     OW25122   7.438   2.290  13.958
 7783SOL    HW125123   7.357   2.341  13.951
 7783SOL    HW225124   7.412   2.200  13.941
 7784SOL     OW25125   0.347  11.193  10.802
 7784SOL    HW125126   0.355  11.106  10.764
 7784SOL    HW225127   0.264  11.190  10.850
 7785SOL     OW25128   1.106  11.510   9.813
 7785SOL    HW125129   1.186  11.498   9.762
 7785SOL    HW225130   1.123  11.588   9.866
 7786SOL     OW25131   1.131   6.130   3.552
 7786SOL    HW125132   1.194   6.139   3.624
 7786SOL    HW225133   1.063   6.194   3.571
 7787SOL     OW25134  13.072  11.237   9.407
 7787SOL    HW125135  13.049  11.314   9.458
 7787SOL    HW225136  13.137  11.191   9.460
 7788SOL     OW25137   3.501   9.166   9.939
 7788SOL    HW125138   3.493   9.260   9.957
 7788SOL    HW225139   3.580   9.159   9.887
 7789SOL     OW25140   6.758   8.080   7.213
 7789SOL    HW125141   6.774   8.088   7.307
 7789SOL    HW225142   6.811   8.006   7.184
 7790SOL     OW25143   6.187  10.024  11.106
 7790SOL    HW125144   6.111  10.037  11.049
 7790SOL    HW225145   6.245   9.966  11.056
 7791SOL     OW25146   0.220   1.970  12.395
 7791SOL    HW125147   0.171   1.925  12.327
 7791SOL    HW225148   0.184   1.936  12.477
 7792SOL     OW25149   5.047   1.386  10.492
 7792SOL    HW125150   5.037   1.480  10.503
 7792SOL    HW225151   5.017   1.348  10.574
 7793SOL     OW25152   2.313   8.689   3.569
 7793SOL    HW125153   2.252   8.628   3.610
 7793SOL    HW225154   2.301   8.771   3.616
 7794SOL     OW25155  14.570   0.676   5.175
 7794SOL    HW125156  14.658   0.690   5.141
 7794SOL    HW225157  14.534   0.605   5.122
 7795SOL     OW25158   6.831   0.101   5.272
 7795SOL    HW125159   6.865   0.178   5.318
 7795SOL    HW225160   6.848   0.119   5.180
 7796SOL     OW25161  13.882   6.063   2.362
 7796SOL    HW125162  13.891   5.968   2.359
 7796SOL    HW225163  13.918   6.093   2.278
 7797SOL     OW25164   9.038  11.398  10.193
 7797SOL    HW125165   8.987  11.475  10.171
 7797SOL    HW225166   9.024  11.385  10.287
 7798SOL     OW25167  10.873   0.065  14.458
 7798SOL    HW125168  10.958   0.023  14.471
 7798SOL    HW225169  10.819   0.033  14.530
 7799SOL     OW25170   3.550   1.880   0.458
 7799SOL    HW125171   3.608   1.858   0.385
 7799SOL    HW225172   3.472   1.916   0.416
 7800SOL     OW25173   4.539  12.398   9.791
 7800SOL    HW125174   4.608  12.411   9.726
 7800SOL    HW225175   4.499  12.484   9.801
 7801SOL     OW25176   3.578  10.812   7.866
 7801SOL    HW125177   3.669  10.799   7.839
 7801SOL    HW225178   3.584  10.843   7.956
 7802SOL     OW25179   1.840  11.037   4.878
 7802SOL    HW125180   1.753  10.998   4.882
 7802SOL    HW225181   1.826  11.130   4.898
 7803SOL     OW25182  11.198   0.702  12.581
 7803SOL    HW125183  11.231   0.687  12.492
 7803SOL    HW225184  11.186   0.614  12.617
 7804SOL     OW25185   6.872   5.152   1.943
 7804SOL    HW125186   6.777   5.156   1.946
 7804SOL    HW225187   6.891   5.095   1.868
 7805SOL     OW25188  13.523   3.617   2.661
 7805SOL    HW125189  13.480   3.601   2.745
 7805SOL    HW225190  13.558   3.706   2.669
 7806SOL     OW25191   2.454  13.584   5.032
 7806SOL    HW125192   2.451  13.514   5.098
 7806SOL    HW225193   2.464  13.537   4.949
 7807SOL     OW25194   7.270   9.592   7.212
 7807SOL    HW125195   7.247   9.568   7.122
 7807SOL    HW225196   7.353   9.548   7.228
 7808SOL     OW25197   5.675   4.505   2.883
 7808SOL    HW125198   5.724   4.505   2.965
 7808SOL    HW225199   5.742   4.497   2.815
 7809SOL     OW25200  11.049   1.662   7.662
 7809SOL    HW125201  11.083   1.752   7.671
 7809SOL    HW225202  10.961   1.673   7.627
 7810SOL     OW25203   3.185   1.860  13.787
 7810SOL    HW125204   3.265   1.912  13.775
 7810SOL    HW225205   3.172   1.857  13.882
 7811SOL     OW25206   0.926   7.857   8.291
 7811SOL    HW125207   0.862   7.816   8.233
 7811SOL    HW225208   1.000   7.796   8.292
 7812SOL     OW25209   3.034   7.299  13.674
 7812SOL    HW125210   2.993   7.385  13.665
 7812SOL    HW225211   3.115   7.305  13.623
 7813SOL     OW25212   5.210   3.168   1.094
 7813SOL    HW125213   5.263   3.182   1.172
 7813SOL    HW225214   5.271   3.136   1.028
 7814SOL     OW25215  12.116  14.661   0.654
 7814SOL    HW125216  12.092  14.724   0.586
 7814SOL    HW225217  12.180  14.707   0.708
 7815SOL     OW25218  11.115   1.510   2.948
 7815SOL    HW125219  11.129   1.536   2.857
 7815SOL    HW225220  11.052   1.437   2.942
 7816SOL     OW25221  13.713   5.089   8.526
 7816SOL    HW125222  13.672   5.175   8.512
 7816SOL    HW225223  13.677   5.059   8.609
 7817SOL     OW25224   8.487  11.872   3.437
 7817SOL    HW125225   8.501  11.945   3.496
 7817SOL    HW225226   8.508  11.907   3.350
 7818SOL     OW25227   7.007   7.219   1.282
 7818SOL    HW125228   6.986   7.305   1.245
 7818SOL    HW225229   7.047   7.239   1.367
 7819SOL     OW25230  12.216   5.440   1.819
 7819SOL    HW125231  12.243   5.507   1.882
 7819SOL    HW225232  12.295   5.419   1.770
 7820SOL     OW25233  13.393  10.445   1.096
 7820SOL    HW125234  13.467  10.428   1.154
 7820SOL    HW225235  13.433  10.471   1.013
 7821SOL     OW25236   3.614   1.130  13.585
 7821SOL    HW125237   3.575   1.206  13.629
 7821SOL    HW225238   3.573   1.054  13.628
 7822SOL     OW25239  12.714   2.129   5.366
 7822SOL    HW125240  12.666   2.206   5.398
 7822SOL    HW225241  12.666   2.055   5.402
 7823SOL     OW25242   5.150   6.744   4.631
 7823SOL    HW125243   5.079   6.806   4.649
 7823SOL    HW225244   5.222   6.773   4.687
 7824SOL     OW25245   9.882  10.527  10.956
 7824SOL    HW125246   9.801  10.477  10.960
 7824SOL    HW225247   9.916  10.524  11.045
 7825SOL     OW25248   8.396   4.075   6.591
 7825SOL    HW125249   8.373   4.161   6.626
 7825SOL    HW225250   8.364   4.014   6.658
 7826SOL     OW25251   1.928   5.065  10.868
 7826SOL    HW125252   1.943   4.971  10.866
 7826SOL    HW225253   1.999   5.100  10.922
 7827SOL     OW25254  14.578   5.699   7.780
 7827SOL    HW125255  14.577   5.759   7.855
 7827SOL    HW225256  14.490   5.660   7.781
 7828SOL     OW25257  13.836   2.477   5.577
 7828SOL    HW125258  13.799   2.523   5.501
 7828SOL    HW225259  13.854   2.389   5.546
 7829SOL     OW25260   4.625   4.118   8.467
 7829SOL    HW125261   4.655   4.029   8.449
 7829SOL    HW225262   4.568   4.110   8.544
 7830SOL     OW25263  10.689  13.348   0.676
 7830SOL    HW125264  10.726  13.279   0.620
 7830SOL    HW225265  10.660  13.416   0.615
 7831SOL     OW25266   5.460   4.504   8.245
 7831SOL    HW125267   5.431   4.593   8.227
 7831SOL    HW225268   5.541   4.515   8.295
 7832SOL     OW25269   1.492   1.666  10.718
 7832SOL    HW125270   1.443   1.600  10.667
 7832SOL    HW225271   1.584   1.641  10.708
 7833SOL     OW25272   5.574   3.111   9.924
 7833SOL    HW125273   5.522   3.039   9.960
 7833SOL    HW225274   5.510   3.179   9.903
 7834SOL     OW25275  14.059   8.310   6.817
 7834SOL    HW125276  13.974   8.340   6.785
 7834SOL    HW225277  14.112   8.301   6.738
 7835SOL     OW25278   8.145   7.695   2.344
 7835SOL    HW125279   8.057   7.685   2.380
 7835SOL    HW225280   8.179   7.606   2.340
 7836SOL     OW25281   7.745   9.998  11.944
 7836SOL    HW125282   7.787  10.083  11.931
 7836SOL    HW225283   7.796   9.956  12.014
 7837SOL     OW25284   6.459   1.357   2.201
 7837SOL    HW125285   6.512   1.370   2.280
 7837SOL    HW225286   6.430   1.266   2.207
 7838SOL     OW25287   6.227  10.349   4.892
 7838SOL    HW125288   6.261  10.421   4.945
 7838SOL    HW225289   6.136  10.374   4.873
 7839SOL     OW25290   3.335   1.988   4.403
 7839SOL    HW125291   3.374   2.060   4.453
 7839SOL    HW225292   3.242   1.989   4.426
 7840SOL     OW25293   2.318  14.367  11.146
 7840SOL    HW125294   2.224  14.348  11.152
 7840SOL    HW225295   2.343  14.334  11.060
 7841SOL     OW25296   4.872  12.169  10.597
 7841SOL    HW125297   4.953  12.216  10.580
 7841SOL    HW225298   4.854  12.186  10.690
 7842SOL     OW25299  11.696  13.194  10.980
 7842SOL    HW125300  11.784  13.157  10.970
 7842SOL    HW225301  11.641  13.119  11.001
 7843SOL     OW25302  12.768   5.603  10.014
 7843SOL    HW125303  12.727   5.600  10.100
 7843SOL    HW225304  12.839   5.539  10.019
 7844SOL     OW25305   3.197  11.553   2.027
 7844SOL    HW125306   3.181  11.646   2.037
 7844SOL    HW225307   3.253  11.530   2.101
 7845SOL     OW25308   8.919   8.884  14.105
 7845SOL    HW125309   8.930   8.800  14.151
 7845SOL    HW225310   8.835   8.876  14.061
 7846SOL     OW25311  14.848  11.030   4.943
 7846SOL    HW125312  14.827  10.937   4.936
 7846SOL    HW225313   0.026  11.036   5.017
 7847SOL     OW25314   5.530   1.958  14.783
 7847SOL    HW125315   5.534   1.873  14.826
 7847SOL    HW225316   5.505   2.019  14.852
 7848SOL     OW25317   4.827   2.410   6.757
 7848SOL    HW125318   4.744   2.414   6.710
 7848SOL    HW225319   4.878   2.343   6.710
 7849SOL     OW25320  10.695  13.938   7.326
 7849SOL    HW125321  10.631  13.867   7.315
 7849SOL    HW225322  10.725  13.957   7.237
 7850SOL     OW25323   1.122   2.563  14.141
 7850SOL    HW125324   1.136   2.514  14.060
 7850SOL    HW225325   1.089   2.497  14.203
 7851SOL     OW25326   7.744   5.306  14.296
 7851SOL    HW125327   7.831   5.320  14.259
 7851SOL    HW225328   7.755   5.322  14.390
 7852SOL     OW25329  13.275   3.040   6.616
 7852SOL    HW125330  13.325   3.005   6.542
 7852SOL    HW225331  13.336   3.100   6.659
 7853SOL     OW25332   5.542   3.020   1.104
 7853SOL    HW125333   5.591   2.997   1.183
 7853SOL    HW225334   5.486   2.944   1.088
 7854SOL     OW25335  12.806  14.005   1.233
 7854SOL    HW125336  12.726  14.042   1.195
 7854SOL    HW225337  12.819  14.054   1.314
 7855SOL     OW25338   2.297   8.915  14.179
 7855SOL    HW125339   2.201   8.910  14.181
 7855SOL    HW225340   2.321   8.934  14.270
 7856SOL     OW25341   5.106   6.186  14.774
 7856SOL    HW125342   5.149   6.272  14.767
 7856SOL    HW225343   5.016   6.202  14.745
 7857SOL     OW25344  10.849  12.848   9.399
 7857SOL    HW125345  10.909  12.887   9.464
 7857SOL    HW225346  10.806  12.923   9.359
 7858SOL     OW25347  14.586  13.811   5.029
 7858SOL    HW125348  14.660  13.872   5.031
 7858SOL    HW225349  14.601  13.752   5.102
 7859SOL     OW25350   4.040   7.402   9.094
 7859SOL    HW125351   3.996   7.366   9.017
 7859SOL    HW225352   4.065   7.491   9.068
 7860SOL     OW25353   3.854   0.857   1.194
 7860SOL    HW125354   3.838   0.943   1.233
 7860SOL    HW225355   3.945   0.838   1.216
 7861SOL     OW25356   6.180   1.884   3.475
 7861SOL    HW125357   6.272   1.884   3.502
 7861SOL    HW225358   6.180   1.837   3.392
 7862SOL     OW25359  14.242   3.008   7.403
 7862SOL    HW125360  14.194   3.090   7.418
 7862SOL    HW225361  14.186   2.958   7.344
 7863SOL     OW25362  12.803  10.322  11.821
 7863SOL    HW125363  12.850  10.384  11.876
 7863SOL    HW225364  12.842  10.237  11.841
 7864SOL     OW25365  11.689   7.809   0.812
 7864SOL    HW125366  11.782   7.810   0.836
 7864SOL    HW225367  11.666   7.901   0.802
 7865SOL     OW25368   8.408   3.653  13.374
 7865SOL    HW125369   8.339   3.640  13.309
 7865SOL    HW225370   8.363   3.696  13.448
 7866SOL     OW25371   2.321   5.824  14.181
 7866SOL    HW125372   2.254   5.877  14.224
 7866SOL    HW225373   2.327   5.860  14.092
 7867SOL     OW25374   9.708   0.873   3.876
 7867SOL    HW125375   9.665   0.877   3.790
 7867SOL    HW225376   9.649   0.820   3.929
 7868SOL     OW25377  13.948  10.142   3.283
 7868SOL    HW125378  14.036  10.110   3.265
 7868SOL    HW225379  13.902  10.068   3.322
 7869SOL     OW25380  14.111   0.272  11.873
 7869SOL    HW125381  14.194   0.320  11.872
 7869SOL    HW225382  14.118   0.216  11.950
 7870SOL     OW25383  12.475  10.866   5.845
 7870SOL    HW125384  12.539  10.930   5.814
 7870SOL    HW225385  12.397  10.918   5.863
 7871SOL     OW25386   5.868   7.236   6.993
 7871SOL    HW125387   5.811   7.278   7.056
 7871SOL    HW225388   5.817   7.163   6.958
 7872SOL     OW25389   5.735  10.676   6.713
 7872SOL    HW125390   5.707  10.766   6.701
 7872SOL    HW225391   5.728  10.636   6.627
 7873SOL     OW25392  13.983   1.661  12.528
 7873SOL    HW125393  13.993   1.756  12.534
 7873SOL    HW225394  14.070   1.627  12.547
 7874SOL     OW25395   0.583  14.263   0.944
 7874SOL    HW125396   0.642  14.194   0.914
 7874SOL    HW225397   0.540  14.226   1.021
 7875SOL     OW25398  13.220  12.732  10.064
 7875SOL    HW125399  13.197  12.675   9.990
 7875SOL    HW225400  13.291  12.686  10.108
 7876SOL     OW25401   0.748   7.493   2.737
 7876SOL    HW125402   0.747   7.500   2.832
 7876SOL    HW225403   0.705   7.410   2.718
 7877SOL     OW25404   3.091   2.811   6.196
 7877SOL    HW125405   3.057   2.827   6.284
 7877SOL    HW225406   3.098   2.898   6.157
 7878SOL     OW25407   9.132   3.580  10.489
 7878SOL    HW125408   9.044   3.543  10.496
 7878SOL    HW225409   9.181   3.517  10.436
 7879SOL     OW25410   8.853   7.928   2.731
 7879SOL    HW125411   8.904   7.939   2.650
 7879SOL    HW225412   8.903   7.865   2.782
 7880SOL     OW25413   5.711   9.187   9.248
 7880SOL    HW125414   5.665   9.243   9.310
 7880SOL    HW225415   5.801   9.220   9.247
 7881SOL     OW25416   1.372   7.608  10.657
 7881SOL    HW125417   1.352   7.515  10.669
 7881SOL    HW225418   1.464   7.616  10.684
 7882SOL     OW25419  11.733   8.637   2.704
 7882SOL    HW125420  11.767   8.719   2.742
 7882SOL    HW225421  11.721   8.579   2.780
 7883SOL     OW25422  13.211  12.765  11.243
 7883SOL    HW125423  13.201  12.838  11.181
 7883SOL    HW225424  13.122  12.747  11.273
 7884SOL     OW25425  10.599   5.127  12.281
 7884SOL    HW125426  10.677   5.105  12.230
 7884SOL    HW225427  10.633   5.165  12.361
 7885SOL     OW25428  13.091   1.285   4.690
 7885SOL    HW125429  13.039   1.260   4.766
 7885SOL    HW225430  13.125   1.372   4.712
 7886SOL     OW25431   5.946   1.281   1.407
 7886SOL    HW125432   6.000   1.327   1.471
 7886SOL    HW225433   6.008   1.228   1.357
 7887SOL     OW25434  14.865   0.446  13.751
 7887SOL    HW125435  14.795   0.493  13.797
 7887SOL    HW225436   0.032   0.402  13.820
 7888SOL     OW25437  12.396  12.018   7.803
 7888SOL    HW125438  12.326  11.954   7.785
 7888SOL    HW225439  12.477  11.968   7.791
 7889SOL     OW25440  10.568   3.522   5.133
 7889SOL    HW125441  10.506   3.459   5.170
 7889SOL    HW225442  10.655   3.485   5.153
 7890SOL     OW25443   3.701   3.405  12.950
 7890SOL    HW125444   3.762   3.332  12.948
 7890SOL    HW225445   3.622   3.370  12.991
 7891SOL     OW25446   6.509   5.702   0.062
 7891SOL    HW125447   6.511   5.624   0.117
 7891SOL    HW225448   6.418   5.732   0.065
 7892SOL     OW25449   0.759   2.045   5.864
 7892SOL    HW125450   0.725   2.087   5.785
 7892SOL    HW225451   0.692   1.980   5.887
 7893SOL     OW25452  12.338   8.496  14.725
 7893SOL    HW125453  12.310   8.544  14.647
 7893SOL    HW225454  12.277   8.524  14.793
 7894SOL     OW25455  12.453   7.965   2.694
 7894SOL    HW125456  12.380   8.025   2.678
 7894SOL    HW225457  12.524   7.996   2.638
 7895SOL     OW25458   9.029  10.121  12.973
 7895SOL    HW125459   8.979  10.167  13.040
 7895SOL    HW225460   9.085  10.188  12.934
 7896SOL     OW25461   3.520   3.980   3.868
 7896SOL    HW125462   3.506   3.907   3.808
 7896SOL    HW225463   3.483   4.056   3.823
 7897SOL     OW25464   8.671   9.501  11.631
 7897SOL    HW125465   8.756   9.467  11.602
 7897SOL    HW225466   8.607   9.446  11.586
 7898SOL     OW25467   9.435  14.208   8.357
 7898SOL    HW125468   9.371  14.210   8.285
 7898SOL    HW225469   9.493  14.281   8.339
 7899SOL     OW25470   1.533  14.718   1.517
 7899SOL    HW125471   1.491  14.674   1.590
 7899SOL    HW225472   1.488  14.803   1.511
 7900SOL     OW25473   3.211  11.833   6.390
 7900SOL    HW125474   3.203  11.788   6.474
 7900SOL    HW225475   3.306  11.834   6.373
 7901SOL     OW25476   3.889   3.283  14.036
 7901SOL    HW125477   3.926   3.209  13.989
 7901SOL    HW225478   3.838   3.243  14.107
 7902SOL     OW25479  12.922   7.066  12.434
 7902SOL    HW125480  12.974   6.989  12.457
 7902SOL    HW225481  12.883   7.044  12.350
 7903SOL     OW25482   3.562   0.949   1.677
 7903SOL    HW125483   3.539   0.976   1.588
 7903SOL    HW225484   3.520   0.863   1.687
 7904SOL     OW25485   0.037   2.669   5.143
 7904SOL    HW125486   0.070   2.724   5.072
 7904SOL    HW225487  14.824   2.675   5.135
 7905SOL     OW25488   5.077   7.608  14.632
 7905SOL    HW125489   5.054   7.701  14.634
 7905SOL    HW225490   5.052   7.575  14.718
 7906SOL     OW25491   7.958  12.737  10.978
 7906SOL    HW125492   7.874  12.730  10.933
 7906SOL    HW225493   7.974  12.831  10.983
 7907SOL     OW25494   6.358  14.785   9.261
 7907SOL    HW125495   6.335  14.693   9.257
 7907SOL    HW225496   6.432  14.794   9.201
 7908SOL     OW25497   7.527  13.325   4.489
 7908SOL    HW125498   7.473  13.381   4.545
 7908SOL    HW225499   7.605  13.306   4.541
 7909SOL     OW25500  11.514   8.680  10.948
 7909SOL    HW125501  11.447   8.722  10.893
 7909SOL    HW225502  11.502   8.721  11.034
 7910SOL     OW25503   5.485   3.105   8.772
 7910SOL    HW125504   5.495   3.038   8.841
 7910SOL    HW225505   5.519   3.185   8.811
 7911SOL     OW25506   1.761   8.422   8.125
 7911SOL    HW125507   1.712   8.501   8.101
 7911SOL    HW225508   1.720   8.352   8.074
 7912SOL     OW25509   9.683   8.324   9.353
 7912SOL    HW125510   9.773   8.314   9.321
 7912SOL    HW225511   9.689   8.387   9.424
 7913SOL     OW25512  13.333  11.803  13.269
 7913SOL    HW125513  13.302  11.719  13.236
 7913SOL    HW225514  13.300  11.868  13.208
 7914SOL     OW25515   5.880   5.265   4.972
 7914SOL    HW125516   5.846   5.276   4.883
 7914SOL    HW225517   5.874   5.172   4.989
 7915SOL     OW25518   9.992   1.583   4.198
 7915SOL    HW125519  10.043   1.525   4.255
 7915SOL    HW225520   9.941   1.524   4.143
 7916SOL     OW25521  14.334  10.969  13.641
 7916SOL    HW125522  14.359  10.904  13.576
 7916SOL    HW225523  14.335  11.052  13.594
 7917SOL     OW25524  14.013  14.201   4.387
 7917SOL    HW125525  14.020  14.274   4.326
 7917SOL    HW225526  13.944  14.227   4.448
 7918SOL     OW25527   4.994   5.908  12.074
 7918SOL    HW125528   4.947   5.880  11.996
 7918SOL    HW225529   4.927   5.949  12.129
 7919SOL     OW25530   7.250   9.462   0.785
 7919SOL    HW125531   7.292   9.491   0.704
 7919SOL    HW225532   7.322   9.448   0.846
 7920SOL     OW25533  12.718   2.422   4.482
 7920SOL    HW125534  12.745   2.510   4.457
 7920SOL    HW225535  12.651   2.398   4.418
 7921SOL     OW25536   6.631   2.917   9.476
 7921SOL    HW125537   6.541   2.884   9.469
 7921SOL    HW225538   6.623   3.011   9.455
 7922SOL     OW25539  12.504  10.028   3.465
 7922SOL    HW125540  12.560  10.079   3.523
 7922SOL    HW225541  12.462  10.093   3.409
 7923SOL     OW25542   4.136   6.525  14.277
 7923SOL    HW125543   4.082   6.585  14.328
 7923SOL    HW225544   4.096   6.526  14.189
 7924SOL     OW25545   5.405  11.197   9.708
 7924SOL    HW125546   5.500  11.208   9.712
 7924SOL    HW225547   5.370  11.277   9.746
 7925SOL     OW25548   5.283   5.103   5.367
 7925SOL    HW125549   5.253   5.078   5.280
 7925SOL    HW225550   5.365   5.151   5.351
 7926SOL     OW25551   5.407   7.100   6.289
 7926SOL    HW125552   5.374   7.037   6.224
 7926SOL    HW225553   5.499   7.113   6.264
 7927SOL     OW25554  10.192   3.108   0.685
 7927SOL    HW125555  10.146   3.181   0.643
 7927SOL    HW225556  10.285   3.128   0.672
 7928SOL     OW25557   1.958   6.773   7.738
 7928SOL    HW125558   1.881   6.824   7.716
 7928SOL    HW225559   2.006   6.765   7.656
 7929SOL     OW25560   5.678   1.757   9.991
 7929SOL    HW125561   5.629   1.737   9.911
 7929SOL    HW225562   5.736   1.829   9.966
 7930SOL     OW25563   5.345   7.794  14.475
 7930SOL    HW125564   5.315   7.712  14.436
 7930SOL    HW225565   5.340   7.858  14.404
 7931SOL     OW25566   0.929   6.024   5.696
 7931SOL    HW125567   0.845   5.982   5.678
 7931SOL    HW225568   0.956   6.060   5.612
 7932SOL     OW25569   5.559  12.444   8.090
 7932SOL    HW125570   5.587  12.361   8.128
 7932SOL    HW225571   5.593  12.442   8.001
 7933SOL     OW25572  11.447  13.986   6.717
 7933SOL    HW125573  11.419  13.942   6.637
 7933SOL    HW225574  11.533  14.022   6.696
 7934SOL     OW25575   4.173  10.327   2.264
 7934SOL    HW125576   4.100  10.268   2.246
 7934SOL    HW225577   4.238  10.306   2.197
 7935SOL     OW25578  13.571   2.089  13.608
 7935SOL    HW125579  13.489   2.054  13.574
 7935SOL    HW225580  13.552   2.110  13.700
 7936SOL     OW25581   8.657  14.227   1.721
 7936SOL    HW125582   8.720  14.174   1.672
 7936SOL    HW225583   8.691  14.227   1.811
 7937SOL     OW25584   2.864   1.865   7.037
 7937SOL    HW125585   2.934   1.912   7.081
 7937SOL    HW225586   2.816   1.822   7.108
 7938SOL     OW25587  12.120  11.409   3.671
 7938SOL    HW125588  12.029  11.387   3.688
 7938SOL    HW225589  12.137  11.372   3.584
 7939SOL     OW25590  12.459   8.470  10.977
 7939SOL    HW125591  12.535   8.418  10.952
 7939SOL    HW225592  12.385   8.409  10.969
 7940SOL     OW25593   9.228   8.566  14.135
 7940SOL    HW125594   9.152   8.591  14.187
 7940SOL    HW225595   9.292   8.635  14.152
 7941SOL     OW25596  10.969   0.676   0.070
 7941SOL    HW125597  10.997   0.716  14.870
 7941SOL    HW225598  10.874   0.691   0.073
 7942SOL     OW25599   7.803  13.255   6.805
 7942SOL    HW125600   7.776  13.300   6.724
 7942SOL    HW225601   7.797  13.322   6.873
 7943SOL     OW25602  13.354   6.650  13.715
 7943SOL    HW125603  13.351   6.631  13.809
 7943SOL    HW225604  13.447   6.651  13.694
 7944SOL     OW25605  13.530  11.338  12.720
 7944SOL    HW125606  13.535  11.372  12.810
 7944SOL    HW225607  13.620  11.340  12.688
 7945SOL     OW25608  10.042   4.325   8.916
 7945SOL    HW125609  10.102   4.297   8.847
 7945SOL    HW225610  10.067   4.416   8.933
 7946SOL     OW25611   8.276   7.438   8.728
 7946SOL    HW125612   8.300   7.524   8.693
 7946SOL    HW225613   8.328   7.428   8.807
 7947SOL     OW25614   6.783  14.193   9.298
 7947SOL    HW125615   6.849  14.230   9.239
 7947SOL    HW225616   6.812  14.217   9.386
 7948SOL     OW25617   8.832   5.734   8.385
 7948SOL    HW125618   8.760   5.682   8.420
 7948SOL    HW225619   8.896   5.738   8.456
 7949SOL     OW25620   8.589  11.056   4.725
 7949SOL    HW125621   8.606  11.016   4.640
 7949SOL    HW225622   8.593  10.984   4.788
 7950SOL     OW25623   7.581  13.507   6.469
 7950SOL    HW125624   7.658  13.456   6.493
 7950SOL    HW225625   7.512  13.478   6.529
 7951SOL     OW25626  13.311  10.108   7.106
 7951SOL    HW125627  13.321  10.145   7.018
 7951SOL    HW225628  13.259  10.172   7.153
 7952SOL     OW25629   1.466   3.851  12.347
 7952SOL    HW125630   1.406   3.800  12.401
 7952SOL    HW225631   1.422   3.935  12.335
 7953SOL     OW25632  13.255   1.423   3.129
 7953SOL    HW125633  13.225   1.413   3.220
 7953SOL    HW225634  13.176   1.412   3.077
 7954SOL     OW25635   1.641   4.751   7.029
 7954SOL    HW125636   1.581   4.761   7.102
 7954SOL    HW225637   1.590   4.776   6.952
 7955SOL     OW25638   7.022   3.194   5.154
 7955SOL    HW125639   6.965   3.203   5.230
 7955SOL    HW225640   6.969   3.226   5.081
 7956SOL     OW25641   9.442   7.246   7.103
 7956SOL    HW125642   9.376   7.194   7.148
 7956SOL    HW225643   9.488   7.183   7.048
 7957SOL     OW25644   2.282   3.884   6.028
 7957SOL    HW125645   2.242   3.953   5.976
 7957SOL    HW225646   2.255   3.903   6.118
 7958SOL     OW25647  10.600  14.163   0.303
 7958SOL    HW125648  10.506  14.181   0.301
 7958SOL    HW225649  10.633  14.216   0.375
 7959SOL     OW25650   7.174   1.928   4.637
 7959SOL    HW125651   7.204   1.863   4.573
 7959SOL    HW225652   7.086   1.899   4.661
 7960SOL     OW25653  10.697  10.176  10.816
 7960SOL    HW125654  10.753  10.235  10.765
 7960SOL    HW225655  10.754  10.142  10.885
 7961SOL     OW25656   7.802   0.280   6.641
 7961SOL    HW125657   7.763   0.287   6.553
 7961SOL    HW225658   7.793   0.187   6.663
 7962SOL     OW25659  11.122   0.872   6.833
 7962SOL    HW125660  11.035   0.864   6.794
 7962SOL    HW225661  11.181   0.838   6.766
 7963SOL     OW25662   8.021  12.747  11.645
 7963SOL    HW125663   7.946  12.785  11.692
 7963SOL    HW225664   8.092  12.748  11.709
 7964SOL     OW25665  12.916  14.349  13.945
 7964SOL    HW125666  13.011  14.354  13.961
 7964SOL    HW225667  12.908  14.313  13.857
 7965SOL     OW25668   1.559   2.067   2.902
 7965SOL    HW125669   1.533   2.150   2.942
 7965SOL    HW225670   1.552   2.082   2.808
 7966SOL     OW25671   1.990   1.126   2.145
 7966SOL    HW125672   2.007   1.032   2.132
 7966SOL    HW225673   2.064   1.170   2.103
 7967SOL     OW25674   3.079   4.580   8.402
 7967SOL    HW125675   3.122   4.653   8.357
 7967SOL    HW225676   2.994   4.614   8.427
 7968SOL     OW25677  11.316  12.166  14.792
 7968SOL    HW125678  11.245  12.222  14.824
 7968SOL    HW225679  11.340  12.113  14.868
 7969SOL     OW25680   9.762   7.245  12.035
 7969SOL    HW125681   9.808   7.223  12.116
 7969SOL    HW225682   9.832   7.264  11.972
 7970SOL     OW25683   8.296   7.847   3.437
 7970SOL    HW125684   8.337   7.773   3.483
 7970SOL    HW225685   8.202   7.836   3.452
 7971SOL     OW25686  12.648   3.978   0.843
 7971SOL    HW125687  12.670   3.947   0.755
 7971SOL    HW225688  12.581   4.045   0.829
 7972SOL     OW25689   2.192   4.936   6.517
 7972SOL    HW125690   2.142   4.864   6.557
 7972SOL    HW225691   2.283   4.908   6.525
 7973SOL     OW25692   6.445   6.594   6.522
 7973SOL    HW125693   6.361   6.577   6.480
 7973SOL    HW225694   6.449   6.530   6.593
 7974SOL     OW25695   2.681   5.769  10.162
 7974SOL    HW125696   2.683   5.812  10.247
 7974SOL    HW225697   2.768   5.731  10.152
 7975SOL     OW25698   6.397   3.751   1.546
 7975SOL    HW125699   6.407   3.823   1.609
 7975SOL    HW225700   6.375   3.795   1.464
 7976SOL     OW25701   5.896   9.621  10.535
 7976SOL    HW125702   5.854   9.549  10.582
 7976SOL    HW225703   5.916   9.585  10.449
 7977SOL     OW25704   2.690  10.677  13.297
 7977SOL    HW125705   2.746  10.603  13.318
 7977SOL    HW225706   2.694  10.685  13.202
 7978SOL     OW25707   5.197   2.449  10.898
 7978SOL    HW125708   5.134   2.466  10.829
 7978SOL    HW225709   5.175   2.362  10.931
 7979SOL     OW25710   3.956   6.950  14.315
 7979SOL    HW125711   3.895   7.010  14.271
 7979SOL    HW225712   4.041   6.969  14.275
 7980SOL     OW25713   4.099   2.421   3.746
 7980SOL    HW125714   4.030   2.380   3.799
 7980SOL    HW225715   4.051   2.464   3.675
 7981SOL     OW25716   4.484   9.167   9.902
 7981SOL    HW125717   4.414   9.102   9.890
 7981SOL    HW225718   4.487   9.215   9.820
 7982SOL     OW25719   1.560   8.345   6.456
 7982SOL    HW125720   1.542   8.289   6.380
 7982SOL    HW225721   1.495   8.320   6.521
 7983SOL     OW25722   9.118   3.469   0.667
 7983SOL    HW125723   9.064   3.399   0.631
 7983SOL    HW225724   9.178   3.493   0.596
 7984SOL     OW25725  10.476   0.072  12.433
 7984SOL    HW125726  10.417   0.136  12.473
 7984SOL    HW225727  10.540   0.053  12.501
 7985SOL     OW25728   5.277   0.664   1.012
 7985SOL    HW125729   5.267   0.639   0.920
 7985SOL    HW225730   5.296   0.758   1.009
 7986SOL     OW25731  10.959  13.955  12.858
 7986SOL    HW125732  11.045  13.997  12.863
 7986SOL    HW225733  10.978  13.867  12.826
 7987SOL     OW25734   3.569   4.567   9.597
 7987SOL    HW125735   3.474   4.582   9.590
 7987SOL    HW225736   3.584   4.557   9.691
 7988SOL     OW25737   8.161   5.809   1.340
 7988SOL    HW125738   8.255   5.806   1.320
 7988SOL    HW225739   8.118   5.792   1.256
 7989SOL     OW25740   9.121   7.741   1.351
 7989SOL    HW125741   9.182   7.668   1.355
 7989SOL    HW225742   9.045   7.712   1.403
 7990SOL     OW25743  12.755   2.326  12.838
 7990SOL    HW125744  12.823   2.304  12.775
 7990SOL    HW225745  12.703   2.394  12.795
 7991SOL     OW25746   7.981  10.554   7.458
 7991SOL    HW125747   7.956  10.605   7.535
 7991SOL    HW225748   7.930  10.473   7.465
 7992SOL     OW25749   0.362   8.077   1.604
 7992SOL    HW125750   0.286   8.026   1.575
 7992SOL    HW225751   0.375   8.141   1.534
 7993SOL     OW25752   4.256   6.436   1.581
 7993SOL    HW125753   4.308   6.437   1.501
 7993SOL    HW225754   4.184   6.375   1.562
 7994SOL     OW25755  12.276   1.840   3.968
 7994SOL    HW125756  12.280   1.810   3.877
 7994SOL    HW225757  12.214   1.780   4.010
 7995SOL     OW25758   9.149   0.079   2.641
 7995SOL    HW125759   9.060   0.077   2.606
 7995SOL    HW225760   9.138   0.082   2.736
 7996SOL     OW25761  10.756  13.739   6.877
 7996SOL    HW125762  10.813  13.724   6.953
 7996SOL    HW225763  10.668  13.745   6.914
 7997SOL     OW25764   5.488  10.287  11.691
 7997SOL    HW125765   5.506  10.346  11.765
 7997SOL    HW225766   5.502  10.199  11.727
 7998SOL     OW25767   0.398  14.728   7.431
 7998SOL    HW125768   0.426  14.797   7.371
 7998SOL    HW225769   0.465  14.660   7.421
 7999SOL     OW25770   3.179   0.578   6.997
 7999SOL    HW125771   3.111   0.644   6.981
 7999SOL    HW225772   3.132   0.503   7.032
 8000SOL     OW25773  14.220   3.915  11.787
 8000SOL    HW125774  14.297   3.941  11.737
 8000SOL    HW225775  14.235   3.823  11.809
 8001SOL     OW25776  13.010   6.386   4.246
 8001SOL    HW125777  13.080   6.385   4.181
 8001SOL    HW225778  12.935   6.425   4.201
 8002SOL     OW25779   9.570   6.719   6.652
 8002SOL    HW125780   9.577   6.641   6.706
 8002SOL    HW225781   9.492   6.764   6.685
 8003SOL     OW25782  10.505   3.711   7.161
 8003SOL    HW125783  10.467   3.749   7.082
 8003SOL    HW225784  10.447   3.738   7.231
 8004SOL     OW25785   5.499  11.867  12.490
 8004SOL    HW125786   5.425  11.837  12.438
 8004SOL    HW225787   5.476  11.844  12.580
 8005SOL     OW25788  12.060   8.225   0.680
 8005SOL    HW125789  12.024   8.268   0.758
 8005SOL    HW225790  12.110   8.151   0.714
 8006SOL     OW25791   4.873   6.803   9.400
 8006SOL    HW125792   4.951   6.832   9.449
 8006SOL    HW225793   4.869   6.709   9.417
 8007SOL     OW25794  12.799   5.241   0.141
 8007SOL    HW125795  12.728   5.260   0.080
 8007SOL    HW225796  12.850   5.172   0.098
 8008SOL     OW25797   1.462  14.304  14.588
 8008SOL    HW125798   1.435  14.393  14.567
 8008SOL    HW225799   1.439  14.253  14.510
 8009SOL     OW25800   4.845   7.364   3.753
 8009SOL    HW125801   4.919   7.422   3.767
 8009SOL    HW225802   4.875   7.302   3.686
 8010SOL     OW25803   7.283   4.906   5.696
 8010SOL    HW125804   7.257   4.834   5.638
 8010SOL    HW225805   7.225   4.978   5.672
 8011SOL     OW25806   4.461   1.882   2.092
 8011SOL    HW125807   4.518   1.854   2.021
 8011SOL    HW225808   4.429   1.968   2.065
 8012SOL     OW25809   9.553   9.114   3.135
 8012SOL    HW125810   9.505   9.031   3.144
 8012SOL    HW225811   9.515   9.156   3.058
 8013SOL     OW25812  11.744  13.545   2.095
 8013SOL    HW125813  11.693  13.600   2.155
 8013SOL    HW225814  11.815  13.601   2.066
 8014SOL     OW25815   9.197   6.723   7.053
 8014SOL    HW125816   9.145   6.668   6.995
 8014SOL    HW225817   9.228   6.663   7.121
 8015SOL     OW25818  12.782   6.396   8.837
 8015SOL    HW125819  12.763   6.320   8.782
 8015SOL    HW225820  12.791   6.469   8.776
 8016SOL     OW25821   4.470   7.047  10.327
 8016SOL    HW125822   4.532   7.096  10.273
 8016SOL    HW225823   4.406   7.111  10.355
 8017SOL     OW25824   1.222  12.224   3.721
 8017SOL    HW125825   1.217  12.158   3.791
 8017SOL    HW225826   1.306  12.206   3.678
 8018SOL     OW25827   9.192  14.298  13.588
 8018SOL    HW125828   9.108  14.253  13.593
 8018SOL    HW225829   9.241  14.267  13.664
 8019SOL     OW25830   6.969   9.137   7.823
 8019SOL    HW125831   7.057   9.173   7.832
 8019SOL    HW225832   6.913   9.200   7.869
 8020SOL     OW25833  14.582  13.220  14.526
 8020SOL    HW125834  14.637  13.280  14.475
 8020SOL    HW225835  14.519  13.277  14.570
 8021SOL     OW25836  10.306   9.124   7.613
 8021SOL    HW125837  10.265   9.153   7.694
 8021SOL    HW225838  10.389   9.172   7.610
 8022SOL     OW25839  11.441   8.093   8.764
 8022SOL    HW125840  11.527   8.076   8.725
 8022SOL    HW225841  11.460   8.100   8.858
 8023SOL     OW25842  13.051   8.884   8.963
 8023SOL    HW125843  13.089   8.797   8.953
 8023SOL    HW225844  12.957   8.870   8.962
 8024SOL     OW25845   2.870  10.925   5.963
 8024SOL    HW125846   2.795  10.956   6.013
 8024SOL    HW225847   2.927  11.001   5.955
 8025SOL     OW25848   8.672   3.712   5.350
 8025SOL    HW125849   8.645   3.663   5.273
 8025SOL    HW225850   8.591   3.724   5.401
 8026SOL     OW25851  10.465   6.748   1.062
 8026SOL    HW125852  10.522   6.808   1.013
 8026SOL    HW225853  10.524   6.680   1.095
 8027SOL     OW25854   4.809  10.711   7.241
 8027SOL    HW125855   4.884  10.765   7.267
 8027SOL    HW225856   4.829  10.685   7.151
 8028SOL     OW25857   6.284   9.208  12.136
 8028SOL    HW125858   6.334   9.169  12.208
 8028SOL    HW225859   6.237   9.282  12.177
 8029SOL     OW25860   3.770   0.177   5.932
 8029SOL    HW125861   3.813   0.174   6.017
 8029SOL    HW225862   3.773   0.087   5.900
 8030SOL     OW25863   6.771   3.660   7.504
 8030SOL    HW125864   6.692   3.712   7.515
 8030SOL    HW225865   6.843   3.722   7.514
 8031SOL     OW25866   9.506   7.067   5.165
 8031SOL    HW125867   9.518   7.156   5.132
 8031SOL    HW225868   9.426   7.072   5.218
 8032SOL     OW25869  14.237   2.209   0.111
 8032SOL    HW125870  14.167   2.189   0.048
 8032SOL    HW225871  14.272   2.123   0.136
 8033SOL     OW25872   2.326   2.526   6.333
 8033SOL    HW125873   2.360   2.592   6.273
 8033SOL    HW225874   2.333   2.444   6.285
 8034SOL     OW25875   9.655   7.252   1.603
 8034SOL    HW125876   9.748   7.231   1.616
 8034SOL    HW225877   9.620   7.261   1.691
 8035SOL     OW25878   6.752   3.950  11.278
 8035SOL    HW125879   6.828   3.961  11.335
 8035SOL    HW225880   6.755   3.859  11.251
 8036SOL     OW25881   9.686   7.484   4.796
 8036SOL    HW125882   9.695   7.579   4.801
 8036SOL    HW225883   9.693   7.464   4.703
 8037SOL     OW25884   9.137   1.528  11.682
 8037SOL    HW125885   9.110   1.436  11.684
 8037SOL    HW225886   9.190   1.535  11.603
 8038SOL     OW25887   8.562   5.346   0.293
 8038SOL    HW125888   8.611   5.425   0.318
 8038SOL    HW225889   8.627   5.292   0.248
 8039SOL     OW25890  14.412   4.194  10.804
 8039SOL    HW125891  14.397   4.272  10.750
 8039SOL    HW225892  14.410   4.121  10.741
 8040SOL     OW25893   7.096  13.880   1.179
 8040SOL    HW125894   7.153  13.883   1.256
 8040SOL    HW225895   7.036  13.953   1.190
 8041SOL     OW25896   3.939   5.404   1.436
 8041SOL    HW125897   3.899   5.477   1.483
 8041SOL    HW225898   3.984   5.446   1.362
 8042SOL     OW25899   4.628   0.822   0.577
 8042SOL    HW125900   4.584   0.849   0.658
 8042SOL    HW225901   4.690   0.892   0.559
 8043SOL     OW25902   4.285  10.461   1.351
 8043SOL    HW125903   4.213  10.480   1.411
 8043SOL    HW225904   4.243  10.449   1.266
 8044SOL     OW25905   0.702   2.554   0.335
 8044SOL    HW125906   0.760   2.531   0.263
 8044SOL    HW225907   0.645   2.478   0.345
 8045SOL     OW25908  12.512   5.573   6.575
 8045SOL    HW125909  12.476   5.485   6.569
 8045SOL    HW225910  12.442   5.630   6.543
 8046SOL     OW25911   3.381  13.869   3.141
 8046SOL    HW125912   3.410  13.840   3.054
 8046SOL    HW225913   3.374  13.965   3.133
 8047SOL     OW25914   7.804  10.511  12.289
 8047SOL    HW125915   7.715  10.541  12.268
 8047SOL    HW225916   7.861  10.578  12.254
 8048SOL     OW25917  10.219   7.057  11.273
 8048SOL    HW125918  10.304   7.086  11.305
 8048SOL    HW225919  10.232   6.965  11.249
 8049SOL     OW25920   3.108  13.692  11.652
 8049SOL    HW125921   3.023  13.660  11.682
 8049SOL    HW225922   3.168  13.619  11.669
 8050SOL     OW25923   8.531  14.064   7.089
 8050SOL    HW125924   8.565  14.061   7.000
 8050SOL    HW225925   8.609  14.062   7.145
 8051SOL     OW25926  11.333   4.277   3.508
 8051SOL    HW125927  11.351   4.249   3.418
 8051SOL    HW225928  11.249   4.238   3.529
 8052SOL     OW25929   6.477   5.299   1.624
 8052SOL    HW125930   6.422   5.222   1.633
 8052SOL    HW225931   6.426   5.360   1.571
 8053SOL     OW25932  14.874   8.607  11.579
 8053SOL    HW125933   0.025   8.659  11.506
 8053SOL    HW225934  14.834   8.671  11.638
 8054SOL     OW25935   5.041   1.034   7.809
 8054SOL    HW125936   5.057   1.024   7.716
 8054SOL    HW225937   4.946   1.032   7.817
 8055SOL     OW25938   0.079   5.119   1.169
 8055SOL    HW125939   0.163   5.131   1.214
 8055SOL    HW225940   0.024   5.074   1.233
 8056SOL     OW25941   7.847  10.893   7.965
 8056SOL    HW125942   7.865  10.969   8.020
 8056SOL    HW225943   7.830  10.929   7.879
 8057SOL     OW25944   5.253   5.946   7.712
 8057SOL    HW125945   5.323   5.936   7.776
 8057SOL    HW225946   5.229   6.039   7.718
 8058SOL     OW25947  11.451   2.723   2.581
 8058SOL    HW125948  11.416   2.653   2.526
 8058SOL    HW225949  11.505   2.679   2.646
 8059SOL     OW25950   6.389   3.637   4.428
 8059SOL    HW125951   6.434   3.676   4.502
 8059SOL    HW225952   6.452   3.639   4.356
 8060SOL     OW25953   2.795   3.031  10.933
 8060SOL    HW125954   2.747   3.056  11.012
 8060SOL    HW225955   2.727   3.011  10.869
 8061SOL     OW25956  14.687  10.804   2.630
 8061SOL    HW125957  14.608  10.854   2.653
 8061SOL    HW225958  14.759  10.861   2.657
 8062SOL     OW25959   1.322   4.820   7.580
 8062SOL    HW125960   1.373   4.742   7.559
 8062SOL    HW225961   1.379   4.871   7.637
 8063SOL     OW25962   0.782   4.571   7.096
 8063SOL    HW125963   0.775   4.632   7.170
 8063SOL    HW225964   0.864   4.524   7.112
 8064SOL     OW25965   0.386   9.890   7.406
 8064SOL    HW125966   0.355   9.925   7.490
 8064SOL    HW225967   0.380   9.964   7.346
 8065SOL     OW25968  13.807   6.214  12.608
 8065SOL    HW125969  13.820   6.266  12.687
 8065SOL    HW225970  13.722   6.172  12.620
 8066SOL     OW25971   2.440   7.743   8.951
 8066SOL    HW125972   2.437   7.669   8.891
 8066SOL    HW225973   2.533   7.767   8.956
 8067SOL     OW25974   0.197   4.606   5.937
 8067SOL    HW125975   0.154   4.543   5.996
 8067SOL    HW225976   0.197   4.562   5.852
 8068SOL     OW25977  12.236   7.551  10.771
 8068SOL    HW125978  12.143   7.552  10.748
 8068SOL    HW225979  12.269   7.636  10.740
 8069SOL     OW25980  11.239  12.807  10.430
 8069SOL    HW125981  11.256  12.899  10.412
 8069SOL    HW225982  11.234  12.766  10.344
 8070SOL     OW25983  14.600  10.411   7.561
 8070SOL    HW125984  14.625  10.351   7.491
 8070SOL    HW225985  14.669  10.477   7.562
 8071SOL     OW25986   2.881   7.926  10.600
 8071SOL    HW125987   2.804   7.880  10.567
 8071SOL    HW225988   2.955   7.880  10.561
 8072SOL     OW25989  14.870   7.723   3.177
 8072SOL    HW125990   0.006   7.631   3.155
 8072SOL    HW225991  14.778   7.725   3.202
 8073SOL     OW25992   8.284  13.938   9.084
 8073SOL    HW125993   8.328  13.892   9.012
 8073SOL    HW225994   8.314  13.893   9.163
 8074SOL     OW25995  11.439   5.790   6.489
 8074SOL    HW125996  11.405   5.723   6.547
 8074SOL    HW225997  11.362   5.828   6.448
 8075SOL     OW25998   7.658   9.236   4.965
 8075SOL    HW125999   7.723   9.166   4.961
 8075SOL    HW226000   7.582   9.196   5.007
 8076SOL     OW26001   8.929   4.768  10.504
 8076SOL    HW126002   8.903   4.724  10.584
 8076SOL    HW226003   8.963   4.853  10.532
 8077SOL     OW26004   2.104   3.410  10.941
 8077SOL    HW126005   2.094   3.380  10.851
 8077SOL    HW226006   2.020   3.450  10.962
 8078SOL     OW26007   8.930   9.502   0.643
 8078SOL    HW126008   8.888   9.588   0.632
 8078SOL    HW226009   8.888   9.446   0.579
 8079SOL     OW26010   3.649   6.832   0.110
 8079SOL    HW126011   3.597   6.788   0.042
 8079SOL    HW226012   3.643   6.925   0.087
 8080SOL     OW26013  11.711   1.499   0.529
 8080SOL    HW126014  11.763   1.579   0.516
 8080SOL    HW226015  11.773   1.428   0.518
 8081SOL     OW26016   7.028  14.103  12.118
 8081SOL    HW126017   7.053  14.195  12.110
 8081SOL    HW226018   6.971  14.101  12.195
 8082SOL     OW26019   3.991   9.127  12.581
 8082SOL    HW126020   4.066   9.070  12.566
 8082SOL    HW226021   3.973   9.165  12.495
 8083SOL     OW26022   4.310   7.419  10.572
 8083SOL    HW126023   4.301   7.478  10.497
 8083SOL    HW226024   4.339   7.475  10.644
 8084SOL     OW26025   6.703   6.046   9.507
 8084SOL    HW126026   6.624   6.007   9.544
 8084SOL    HW226027   6.715   6.127   9.557
 8085SOL     OW26028   1.241  13.122   3.265
 8085SOL    HW126029   1.321  13.140   3.314
 8085SOL    HW226030   1.263  13.045   3.212
 8086SOL     OW26031   7.869   0.194   8.295
 8086SOL    HW126032   7.865   0.244   8.376
 8086SOL    HW226033   7.815   0.117   8.311
 8087SOL     OW26034  10.842   0.852   9.528
 8087SOL    HW126035  10.900   0.836   9.603
 8087SOL    HW226036  10.895   0.829   9.452
 8088SOL     OW26037  10.088   2.939   8.385
 8088SOL    HW126038  10.128   3.026   8.384
 8088SOL    HW226039   9.994   2.956   8.391
 8089SOL     OW26040   0.630   2.615   3.186
 8089SOL    HW126041   0.680   2.645   3.111
 8089SOL    HW226042   0.686   2.632   3.261
 8090SOL     OW26043   8.074  11.623  13.842
 8090SOL    HW126044   8.116  11.582  13.767
 8090SOL    HW226045   8.019  11.692  13.804
 8091SOL     OW26046  10.413  14.044   2.581
 8091SOL    HW126047  10.432  13.957   2.547
 8091SOL    HW226048  10.436  14.040   2.674
 8092SOL     OW26049   2.499   6.548  13.827
 8092SOL    HW126050   2.517   6.599  13.905
 8092SOL    HW226051   2.551   6.590  13.758
 8093SOL     OW26052   9.005   9.514   3.296
 8093SOL    HW126053   9.025   9.420   3.296
 8093SOL    HW226054   8.911   9.517   3.278
 8094SOL     OW26055  12.452  14.561  12.323
 8094SOL    HW126056  12.485  14.579  12.410
 8094SOL    HW226057  12.475  14.469  12.307
 8095SOL     OW26058   7.150  13.763   8.182
 8095SOL    HW126059   7.106  13.753   8.266
 8095SOL    HW226060   7.080  13.763   8.117
 8096SOL     OW26061   5.300   9.536  12.591
 8096SOL    HW126062   5.320   9.566  12.502
 8096SOL    HW226063   5.286   9.442  12.581
 8097SOL     OW26064   6.346   1.564  12.247
 8097SOL    HW126065   6.298   1.576  12.329
 8097SOL    HW226066   6.430   1.526  12.274
 8098SOL     OW26067   8.768   8.663   0.387
 8098SOL    HW126068   8.732   8.713   0.460
 8098SOL    HW226069   8.820   8.727   0.338
 8099SOL     OW26070   7.327   2.000   1.693
 8099SOL    HW126071   7.329   2.086   1.651
 8099SOL    HW226072   7.403   1.999   1.750
 8100SOL     OW26073   1.440  14.102  12.105
 8100SOL    HW126074   1.414  14.193  12.107
 8100SOL    HW226075   1.448  14.077  12.198
 8101SOL     OW26076  12.242   4.900   2.332
 8101SOL    HW126077  12.242   4.818   2.282
 8101SOL    HW226078  12.151   4.912   2.358
 8102SOL     OW26079  14.811   6.383   2.057
 8102SOL    HW126080  14.824   6.478   2.056
 8102SOL    HW226081  14.862   6.353   2.132
 8103SOL     OW26082   0.367   6.164   2.386
 8103SOL    HW126083   0.434   6.147   2.321
 8103SOL    HW226084   0.321   6.080   2.395
 8104SOL     OW26085   1.252   9.901   2.983
 8104SOL    HW126086   1.283   9.989   2.963
 8104SOL    HW226087   1.313   9.843   2.938
 8105SOL     OW26088   1.386   3.598  10.807
 8105SOL    HW126089   1.326   3.658  10.851
 8105SOL    HW226090   1.435   3.557  10.879
 8106SOL     OW26091  13.897   3.734  12.073
 8106SOL    HW126092  13.863   3.647  12.092
 8106SOL    HW226093  13.885   3.783  12.155
 8107SOL     OW26094  10.358   0.133   3.712
 8107SOL    HW126095  10.282   0.081   3.736
 8107SOL    HW226096  10.385   0.176   3.793
 8108SOL     OW26097   4.373   3.680   2.021
 8108SOL    HW126098   4.389   3.586   2.025
 8108SOL    HW226099   4.305   3.696   2.086
 8109SOL     OW26100   3.377  13.185  12.372
 8109SOL    HW126101   3.386  13.184  12.276
 8109SOL    HW226102   3.425  13.263  12.399
 8110SOL     OW26103   5.904  14.201   8.178
 8110SOL    HW126104   5.888  14.186   8.271
 8110SOL    HW226105   5.992  14.238   8.174
 8111SOL     OW26106  13.531   9.590   7.788
 8111SOL    HW126107  13.511   9.532   7.861
 8111SOL    HW226108  13.478   9.668   7.803
 8112SOL     OW26109  13.867  13.018   9.076
 8112SOL    HW126110  13.871  13.091   9.138
 8112SOL    HW226111  13.957  12.988   9.069
 8113SOL     OW26112   8.317   4.119   5.493
 8113SOL    HW126113   8.269   4.163   5.423
 8113SOL    HW226114   8.342   4.035   5.455
 8114SOL     OW26115   4.096   3.964   5.094
 8114SOL    HW126116   4.047   4.015   5.159
 8114SOL    HW226117   4.049   3.978   5.012
 8115SOL     OW26118  14.433   0.140   6.175
 8115SOL    HW126119  14.453   0.051   6.146
 8115SOL    HW226120  14.342   0.136   6.203
 8116SOL     OW26121  13.583   4.933  14.459
 8116SOL    HW126122  13.537   4.955  14.378
 8116SOL    HW226123  13.675   4.927  14.433
 8117SOL     OW26124  11.748   6.557  10.095
 8117SOL    HW126125  11.732   6.493  10.026
 8117SOL    HW226126  11.663   6.599  10.110
 8118SOL     OW26127   3.441   5.203  11.493
 8118SOL    HW126128   3.371   5.137  11.486
 8118SOL    HW226129   3.442   5.227  11.586
 8119SOL     OW26130   3.140   6.154  14.208
 8119SOL    HW126131   3.074   6.217  14.177
 8119SOL    HW226132   3.090   6.075  14.229
 8120SOL     OW26133   7.321   2.829  12.490
 8120SOL    HW126134   7.352   2.763  12.428
 8120SOL    HW226135   7.226   2.815  12.493
 8121SOL     OW26136   8.074   4.588   1.883
 8121SOL    HW126137   8.009   4.652   1.852
 8121SOL    HW226138   8.135   4.579   1.810
 8122SOL     OW26139   5.172   1.633   2.165
 8122SOL    HW126140   5.154   1.621   2.259
 8122SOL    HW226141   5.217   1.553   2.139
 8123SOL     OW26142   1.929  12.613   2.848
 8123SOL    HW126143   1.882  12.574   2.922
 8123SOL    HW226144   1.859  12.644   2.790
 8124SOL     OW26145  11.173   4.358  13.103
 8124SOL    HW126146  11.228   4.422  13.057
 8124SOL    HW226147  11.095   4.351  13.048
 8125SOL     OW26148   7.428   3.558   6.562
 8125SOL    HW126149   7.369   3.583   6.492
 8125SOL    HW226150   7.373   3.510   6.624
 8126SOL     OW26151   9.726  11.627  13.171
 8126SOL    HW126152   9.713  11.535  13.193
 8126SOL    HW226153   9.639  11.658  13.146
 8127SOL     OW26154  14.738  11.650   8.147
 8127SOL    HW126155  14.648  11.653   8.114
 8127SOL    HW226156  14.728  11.652   8.242
 8128SOL     OW26157  14.135   4.549  10.866
 8128SOL    HW126158  14.175   4.627  10.828
 8128SOL    HW226159  14.174   4.476  10.817
 8129SOL     OW26160   3.702   5.034   8.630
 8129SOL    HW126161   3.791   5.003   8.647
 8129SOL    HW226162   3.665   4.970   8.570
 8130SOL     OW26163   9.812   3.309   1.415
 8130SOL    HW126164   9.818   3.214   1.425
 8130SOL    HW226165   9.900   3.337   1.392
 8131SOL     OW26166   2.635  14.495  11.510
 8131SOL    HW126167   2.716  14.516  11.463
 8131SOL    HW226168   2.566  14.526  11.452
 8132SOL     OW26169   6.261   1.976   0.916
 8132SOL    HW126170   6.259   2.061   0.872
 8132SOL    HW226171   6.328   1.927   0.867
 8133SOL     OW26172   8.261   8.564  14.626
 8133SOL    HW126173   8.205   8.490  14.601
 8133SOL    HW226174   8.205   8.641  14.618
 8134SOL     OW26175   1.746   7.347   2.384
 8134SOL    HW126176   1.772   7.344   2.476
 8134SOL    HW226177   1.829   7.360   2.337
 8135SOL     OW26178   7.632  11.238   7.128
 8135SOL    HW126179   7.675  11.273   7.207
 8135SOL    HW226180   7.555  11.292   7.116
 8136SOL     OW26181   0.735  11.083   2.402
 8136SOL    HW126182   0.653  11.093   2.353
 8136SOL    HW226183   0.766  11.173   2.414
 8137SOL     OW26184   0.579   5.886  10.757
 8137SOL    HW126185   0.509   5.929  10.807
 8137SOL    HW226186   0.535   5.815  10.711
 8138SOL     OW26187  12.143   4.770   3.595
 8138SOL    HW126188  12.082   4.781   3.522
 8138SOL    HW226189  12.091   4.726   3.663
 8139SOL     OW26190   2.337   5.921  11.272
 8139SOL    HW126191   2.339   5.826  11.281
 8139SOL    HW226192   2.421   5.951  11.307
 8140SOL     OW26193   3.835  11.113   8.937
 8140SOL    HW126194   3.784  11.183   8.978
 8140SOL    HW226195   3.796  11.032   8.969
 8141SOL     OW26196   5.093   6.355   5.284
 8141SOL    HW126197   5.132   6.423   5.229
 8141SOL    HW226198   5.023   6.399   5.331
 8142SOL     OW26199   7.293  10.723   5.381
 8142SOL    HW126200   7.225  10.771   5.333
 8142SOL    HW226201   7.354  10.791   5.410
 8143SOL     OW26202   7.285   8.256   4.266
 8143SOL    HW126203   7.372   8.217   4.260
 8143SOL    HW226204   7.271   8.269   4.359
 8144SOL     OW26205   5.605   7.649   5.527
 8144SOL    HW126206   5.633   7.738   5.505
 8144SOL    HW226207   5.642   7.633   5.614
 8145SOL     OW26208   4.629   9.078   3.140
 8145SOL    HW126209   4.609   9.053   3.050
 8145SOL    HW226210   4.556   9.043   3.192
 8146SOL     OW26211   2.949   8.839   5.380
 8146SOL    HW126212   2.956   8.909   5.316
 8146SOL    HW226213   2.892   8.774   5.339
 8147SOL     OW26214   4.353   9.945   1.153
 8147SOL    HW126215   4.325  10.026   1.111
 8147SOL    HW226216   4.432   9.968   1.201
 8148SOL     OW26217   9.263   3.032   5.218
 8148SOL    HW126218   9.307   3.057   5.137
 8148SOL    HW226219   9.316   3.071   5.287
 8149SOL     OW26220  11.701   5.876   4.380
 8149SOL    HW126221  11.626   5.817   4.369
 8149SOL    HW226222  11.669   5.945   4.438
 8150SOL     OW26223  10.353   6.084  11.034
 8150SOL    HW126224  10.280   6.100  11.095
 8150SOL    HW226225  10.359   6.165  10.983
 8151SOL     OW26226   7.974  12.083   9.508
 8151SOL    HW126227   8.044  12.056   9.448
 8151SOL    HW226228   8.020  12.111   9.587
 8152SOL     OW26229   9.861   3.714   5.156
 8152SOL    HW126230   9.819   3.719   5.071
 8152SOL    HW226231   9.955   3.712   5.137
 8153SOL     OW26232   3.153  10.699   3.422
 8153SOL    HW126233   3.217  10.771   3.424
 8153SOL    HW226234   3.166  10.653   3.505
 8154SOL     OW26235  11.432   1.182   7.287
 8154SOL    HW126236  11.379   1.253   7.322
 8154SOL    HW226237  11.475   1.144   7.364
 8155SOL     OW26238   3.676  11.735   2.010
 8155SOL    HW126239   3.606  11.798   1.991
 8155SOL    HW226240   3.631  11.653   2.028
 8156SOL     OW26241   0.434   9.772  13.887
 8156SOL    HW126242   0.528   9.762  13.897
 8156SOL    HW226243   0.397   9.724  13.961
 8157SOL     OW26244   1.773  12.604   5.860
 8157SOL    HW126245   1.775  12.562   5.774
 8157SOL    HW226246   1.835  12.677   5.853
 8158SOL     OW26247   3.472  12.963  10.939
 8158SOL    HW126248   3.477  12.990  10.848
 8158SOL    HW226249   3.385  12.925  10.949
 8159SOL     OW26250   6.786  11.157  11.707
 8159SOL    HW126251   6.725  11.121  11.771
 8159SOL    HW226252   6.744  11.238  11.677
 8160SOL     OW26253   5.605   4.692   1.100
 8160SOL    HW126254   5.640   4.769   1.144
 8160SOL    HW226255   5.575   4.724   1.015
 8161SOL     OW26256   1.318   1.049   0.203
 8161SOL    HW126257   1.341   1.078   0.114
 8161SOL    HW226258   1.396   1.004   0.234
 8162SOL     OW26259  13.589  13.485   2.245
 8162SOL    HW126260  13.525  13.414   2.252
 8162SOL    HW226261  13.605  13.494   2.151
 8163SOL     OW26262  10.100  12.032   9.122
 8163SOL    HW126263  10.043  12.104   9.095
 8163SOL    HW226264  10.043  11.955   9.126
 8164SOL     OW26265   0.456   4.706   3.059
 8164SOL    HW126266   0.425   4.782   3.009
 8164SOL    HW226267   0.402   4.707   3.138
 8165SOL     OW26268   3.539   0.576   8.021
 8165SOL    HW126269   3.543   0.527   8.103
 8165SOL    HW226270   3.482   0.651   8.041
 8166SOL     OW26271   3.053   0.068   7.513
 8166SOL    HW126272   3.030   0.149   7.558
 8166SOL    HW226273   3.089   0.012   7.581
 8167SOL     OW26274   6.654  12.120  12.086
 8167SOL    HW126275   6.732  12.176  12.080
 8167SOL    HW226276   6.588  12.177  12.126
 8168SOL     OW26277   6.040  10.607   1.048
 8168SOL    HW126278   6.124  10.651   1.063
 8168SOL    HW226279   5.987  10.632   1.123
 8169SOL     OW26280   5.588  12.444  11.231
 8169SOL    HW126281   5.502  12.482  11.218
 8169SOL    HW226282   5.579  12.354  11.199
 8170SOL     OW26283   5.085   2.733   0.680
 8170SOL    HW126284   5.147   2.785   0.628
 8170SOL    HW226285   5.043   2.675   0.616
 8171SOL     OW26286   6.217  14.046   8.235
 8171SOL    HW126287   6.215  14.139   8.259
 8171SOL    HW226288   6.144  14.007   8.283
 8172SOL     OW26289  11.015   4.885  10.268
 8172SOL    HW126290  10.933   4.859  10.227
 8172SOL    HW226291  10.992   4.960  10.323
 8173SOL     OW26292   3.492   4.077   9.288
 8173SOL    HW126293   3.483   4.092   9.194
 8173SOL    HW226294   3.406   4.045   9.315
 8174SOL     OW26295   3.173   3.256   6.677
 8174SOL    HW126296   3.138   3.336   6.716
 8174SOL    HW226297   3.139   3.185   6.732
 8175SOL     OW26298   5.024   1.474  10.058
 8175SOL    HW126299   4.969   1.483   9.980
 8175SOL    HW226300   5.069   1.559  10.066
 8176SOL     OW26301   2.151   0.669   2.237
 8176SOL    HW126302   2.136   0.652   2.330
 8176SOL    HW226303   2.184   0.586   2.203
 8177SOL     OW26304   1.105  10.501   6.866
 8177SOL    HW126305   1.057  10.532   6.789
 8177SOL    HW226306   1.146  10.580   6.902
 8178SOL     OW26307   5.226   0.446   8.554
 8178SOL    HW126308   5.268   0.531   8.543
 8178SOL    HW226309   5.136   0.467   8.581
 8179SOL     OW26310   9.779   5.860   5.355
 8179SOL    HW126311   9.869   5.883   5.380
 8179SOL    HW226312   9.763   5.776   5.398
 8180SOL     OW26313   5.554   5.068   0.970
 8180SOL    HW126314   5.595   5.116   1.042
 8180SOL    HW226315   5.560   5.127   0.895
 8181SOL     OW26316   1.937   5.455   8.834
 8181SOL    HW126317   1.845   5.470   8.856
 8181SOL    HW226318   1.962   5.379   8.888
 8182SOL     OW26319  11.937   7.935   3.304
 8182SOL    HW126320  11.977   7.868   3.249
 8182SOL    HW226321  11.976   8.017   3.275
 8183SOL     OW26322  13.851  12.726   0.452
 8183SOL    HW126323  13.885  12.639   0.475
 8183SOL    HW226324  13.924  12.786   0.471
 8184SOL     OW26325   7.253   1.373   8.651
 8184SOL    HW126326   7.164   1.345   8.631
 8184SOL    HW226327   7.265   1.454   8.601
 8185SOL     OW26328   6.668   3.486   8.118
 8185SOL    HW126329   6.757   3.476   8.153
 8185SOL    HW226330   6.612   3.444   8.184
 8186SOL     OW26331  10.646  11.129   6.657
 8186SOL    HW126332  10.554  11.142   6.638
 8186SOL    HW226333  10.693  11.172   6.585
 8187SOL     OW26334  12.313   8.759   1.799
 8187SOL    HW126335  12.330   8.665   1.812
 8187SOL    HW226336  12.272   8.764   1.712
 8188SOL     OW26337   4.542   0.527   4.868
 8188SOL    HW126338   4.465   0.471   4.856
 8188SOL    HW226339   4.509   0.616   4.850
 8189SOL     OW26340   1.572   0.135   2.668
 8189SOL    HW126341   1.573   0.180   2.584
 8189SOL    HW226342   1.647   0.075   2.665
 8190SOL     OW26343   6.743   6.395   1.388
 8190SOL    HW126344   6.739   6.456   1.314
 8190SOL    HW226345   6.665   6.341   1.379
 8191SOL     OW26346   4.155   9.173  12.240
 8191SOL    HW126347   4.100   9.232  12.293
 8191SOL    HW226348   4.194   9.114  12.305
 8192SOL     OW26349   6.835   4.295   5.816
 8192SOL    HW126350   6.739   4.287   5.812
 8192SOL    HW226351   6.867   4.208   5.794
 8193SOL     OW26352   8.217   5.187   0.652
 8193SOL    HW126353   8.213   5.166   0.558
 8193SOL    HW226354   8.243   5.279   0.654
 8194SOL     OW26355   7.234   3.507   2.806
 8194SOL    HW126356   7.302   3.533   2.744
 8194SOL    HW226357   7.264   3.424   2.843
 8195SOL     OW26358  10.804   6.673   5.514
 8195SOL    HW126359  10.716   6.642   5.495
 8195SOL    HW226360  10.849   6.596   5.549
 8196SOL     OW26361   9.831   3.791   8.978
 8196SOL    HW126362   9.892   3.851   9.020
 8196SOL    HW226363   9.772   3.847   8.928
 8197SOL     OW26364   3.224   0.019  14.325
 8197SOL    HW126365   3.142  14.871  14.287
 8197SOL    HW226366   3.203   0.100  14.371
 8198SOL     OW26367   6.744   9.084   0.425
 8198SOL    HW126368   6.658   9.076   0.384
 8198SOL    HW226369   6.750   9.008   0.483
 8199SOL     OW26370  14.484  14.863   9.545
 8199SOL    HW126371  14.506  14.825   9.460
 8199SOL    HW226372  14.440   0.063   9.524
 8200SOL     OW26373   5.589  12.830   5.452
 8200SOL    HW126374   5.533  12.826   5.530
 8200SOL    HW226375   5.527  12.829   5.378
 8201SOL     OW26376  13.635   5.429   2.694
 8201SOL    HW126377  13.671   5.514   2.717
 8201SOL    HW226378  13.546   5.448   2.663
 8202SOL     OW26379   1.069   3.468  11.296
 8202SOL    HW126380   1.145   3.411  11.283
 8202SOL    HW226381   0.994   3.409  11.297
 8203SOL     OW26382   5.719  10.440   6.876
 8203SOL    HW126383   5.630  10.406   6.886
 8203SOL    HW226384   5.708  10.534   6.860
 8204SOL     OW26385   5.634   4.497  12.861
 8204SOL    HW126386   5.673   4.474  12.777
 8204SOL    HW226387   5.558   4.439  12.869
 8205SOL     OW26388   9.340   9.485   9.316
 8205SOL    HW126389   9.356   9.430   9.393
 8205SOL    HW226390   9.332   9.573   9.352
 8206SOL     OW26391  10.846   5.729   4.521
 8206SOL    HW126392  10.798   5.801   4.482
 8206SOL    HW226393  10.938   5.749   4.504
 8207SOL     OW26394   0.536   0.829  13.979
 8207SOL    HW126395   0.558   0.811  14.070
 8207SOL    HW226396   0.494   0.915  13.981
 8208SOL     OW26397  11.184   9.903   5.551
 8208SOL    HW126398  11.191   9.995   5.526
 8208SOL    HW226399  11.110   9.899   5.610
 8209SOL     OW26400   2.903   2.197  10.362
 8209SOL    HW126401   2.935   2.240  10.282
 8209SOL    HW226402   2.809   2.214  10.362
 8210SOL     OW26403   8.079  10.764   1.645
 8210SOL    HW126404   8.155  10.708   1.628
 8210SOL    HW226405   8.078  10.775   1.740
 8211SOL     OW26406  10.416   7.181   4.282
 8211SOL    HW126407  10.331   7.208   4.249
 8211SOL    HW226408  10.398   7.141   4.367
 8212SOL     OW26409   0.665   3.865   1.979
 8212SOL    HW126410   0.727   3.933   2.006
 8212SOL    HW226411   0.586   3.912   1.954
 8213SOL     OW26412  14.639  11.249   5.386
 8213SOL    HW126413  14.676  11.171   5.346
 8213SOL    HW226414  14.634  11.228   5.479
 8214SOL     OW26415   8.767   7.108   4.955
 8214SOL    HW126416   8.677   7.082   4.935
 8214SOL    HW226417   8.814   7.092   4.873
 8215SOL     OW26418   4.421  12.264   8.021
 8215SOL    HW126419   4.414  12.173   8.052
 8215SOL    HW226420   4.510  12.290   8.045
 8216SOL     OW26421  13.832   4.737   4.070
 8216SOL    HW126422  13.855   4.819   4.026
 8216SOL    HW226423  13.915   4.690   4.079
 8217SOL     OW26424   7.392   3.971   4.400
 8217SOL    HW126425   7.317   4.009   4.354
 8217SOL    HW226426   7.398   4.021   4.482
 8218SOL     OW26427  11.379  10.741   2.801
 8218SOL    HW126428  11.403  10.650   2.780
 8218SOL    HW226429  11.291  10.751   2.765
 8219SOL     OW26430  10.757   1.422   5.980
 8219SOL    HW126431  10.673   1.421   6.026
 8219SOL    HW226432  10.798   1.338   6.004
 8220SOL     OW26433  14.591   9.206  10.664
 8220SOL    HW126434  14.602   9.287  10.613
 8220SOL    HW226435  14.679   9.168  10.667
 8221SOL     OW26436   3.171   3.886   3.234
 8221SOL    HW126437   3.083   3.865   3.203
 8221SOL    HW226438   3.158   3.960   3.293
 8222SOL     OW26439  10.472   3.964   9.439
 8222SOL    HW126440  10.564   3.953   9.418
 8222SOL    HW226441  10.459   3.916   9.521
 8223SOL     OW26442   2.615   7.279  11.950
 8223SOL    HW126443   2.675   7.267  12.024
 8223SOL    HW226444   2.651   7.353  11.901
 8224SOL     OW26445  10.499  14.408   7.824
 8224SOL    HW126446  10.418  14.363   7.802
 8224SOL    HW226447  10.565  14.339   7.825
 8225SOL     OW26448   5.353   3.353   6.315
 8225SOL    HW126449   5.394   3.427   6.272
 8225SOL    HW226450   5.423   3.313   6.366
 8226SOL     OW26451   8.526  11.909   5.640
 8226SOL    HW126452   8.581  11.902   5.717
 8226SOL    HW226453   8.447  11.860   5.662
 8227SOL     OW26454  12.140  12.568  14.211
 8227SOL    HW126455  12.100  12.576  14.124
 8227SOL    HW226456  12.234  12.578  14.195
 8228SOL     OW26457   0.609   9.041  14.344
 8228SOL    HW126458   0.634   9.025  14.253
 8228SOL    HW226459   0.652   8.971  14.393
 8229SOL     OW26460  12.607  13.549   1.980
 8229SOL    HW126461  12.556  13.479   2.022
 8229SOL    HW226462  12.674  13.571   2.045
 8230SOL     OW26463   0.460   3.228   8.272
 8230SOL    HW126464   0.522   3.298   8.251
 8230SOL    HW226465   0.501   3.148   8.239
 8231SOL     OW26466   7.045   7.939   6.038
 8231SOL    HW126467   7.070   8.021   5.995
 8231SOL    HW226468   6.982   7.965   6.105
 8232SOL     OW26469   7.410   5.514  11.858
 8232SOL    HW126470   7.372   5.484  11.776
 8232SOL    HW226471   7.435   5.605  11.841
 8233SOL     OW26472  10.541   3.952   0.825
 8233SOL    HW126473  10.567   3.919   0.739
 8233SOL    HW226474  10.591   3.899   0.887
 8234SOL     OW26475  12.855   3.102  14.337
 8234SOL    HW126476  12.776   3.081  14.287
 8234SOL    HW226477  12.824   3.117  14.426
 8235SOL     OW26478   1.443   8.633   2.590
 8235SOL    HW126479   1.374   8.665   2.532
 8235SOL    HW226480   1.493   8.712   2.613
 8236SOL     OW26481   9.292   2.733   6.625
 8236SOL    HW126482   9.383   2.761   6.637
 8236SOL    HW226483   9.294   2.639   6.639
 8237SOL     OW26484   7.332  14.109  11.904
 8237SOL    HW126485   7.314  14.121  11.997
 8237SOL    HW226486   7.262  14.052  11.873
 8238SOL     OW26487   8.212  14.742  10.572
 8238SOL    HW126488   8.218  14.651  10.543
 8238SOL    HW226489   8.279  14.788  10.521
 8239SOL     OW26490   9.892   6.217  13.234
 8239SOL    HW126491   9.968   6.160  13.232
 8239SOL    HW226492   9.921   6.298  13.192
 8240SOL     OW26493  11.320   8.655   0.394
 8240SOL    HW126494  11.229   8.626   0.385
 8240SOL    HW226495  11.368   8.576   0.418
 8241SOL     OW26496  12.915   3.956  11.907
 8241SOL    HW126497  12.940   4.028  11.850
 8241SOL    HW226498  12.998   3.912  11.929
 8242SOL     OW26499   5.510   5.750  10.992
 8242SOL    HW126500   5.549   5.749  10.905
 8242SOL    HW226501   5.425   5.792  10.980
 8243SOL     OW26502   1.646   0.365   6.797
 8243SOL    HW126503   1.677   0.425   6.865
 8243SOL    HW226504   1.697   0.285   6.810
 8244SOL     OW26505   2.254   3.562  11.513
 8244SOL    HW126506   2.230   3.562  11.605
 8244SOL    HW226507   2.189   3.505  11.471
 8245SOL     OW26508   9.190  11.074   4.222
 8245SOL    HW126509   9.164  11.119   4.142
 8245SOL    HW226510   9.261  11.016   4.195
 8246SOL     OW26511  12.244   1.676   8.858
 8246SOL    HW126512  12.314   1.733   8.889
 8246SOL    HW226513  12.273   1.588   8.881
 8247SOL     OW26514  14.540   3.708  11.301
 8247SOL    HW126515  14.545   3.799  11.272
 8247SOL    HW226516  14.623   3.669  11.273
 8248SOL     OW26517   7.030  12.138   4.038
 8248SOL    HW126518   7.009  12.226   4.067
 8248SOL    HW226519   7.101  12.110   4.096
 8249SOL     OW26520   7.844  12.870   3.079
 8249SOL    HW126521   7.836  12.931   3.006
 8249SOL    HW226522   7.888  12.919   3.148
 8250SOL     OW26523  14.738   8.715  12.021
 8250SOL    HW126524  14.721   8.622  12.039
 8250SOL    HW226525  14.826   8.730  12.055
 8251SOL     OW26526  12.227   7.875   6.009
 8251SOL    HW126527  12.242   7.795   6.060
 8251SOL    HW226528  12.158   7.851   5.947
 8252SOL     OW26529  11.578   6.000   0.409
 8252SOL    HW126530  11.547   5.910   0.420
 8252SOL    HW226531  11.499   6.049   0.385
 8253SOL     OW26532   5.203   8.917   1.250
 8253SOL    HW126533   5.296   8.941   1.241
 8253SOL    HW226534   5.176   8.894   1.161
 8254SOL     OW26535   7.858   0.298   1.186
 8254SOL    HW126536   7.886   0.218   1.141
 8254SOL    HW226537   7.910   0.300   1.267
 8255SOL     OW26538  11.820   4.286   9.922
 8255SOL    HW126539  11.741   4.260   9.969
 8255SOL    HW226540  11.802   4.266   9.830
 8256SOL     OW26541   3.871   6.673  11.318
 8256SOL    HW126542   3.920   6.734  11.373
 8256SOL    HW226543   3.909   6.588  11.337
 8257SOL     OW26544   6.238   4.310   1.032
 8257SOL    HW126545   6.199   4.228   1.005
 8257SOL    HW226546   6.244   4.304   1.127
 8258SOL     OW26547   9.833   7.237   0.226
 8258SOL    HW126548   9.920   7.197   0.218
 8258SOL    HW226549   9.841   7.322   0.185
 8259SOL     OW26550  10.392   5.020   8.425
 8259SOL    HW126551  10.466   5.075   8.401
 8259SOL    HW226552  10.347   5.004   8.342
 8260SOL     OW26553  10.871  12.683   6.965
 8260SOL    HW126554  10.832  12.595   6.962
 8260SOL    HW226555  10.820  12.730   7.031
 8261SOL     OW26556  11.687   2.331  14.113
 8261SOL    HW126557  11.697   2.290  14.199
 8261SOL    HW226558  11.713   2.264  14.050
 8262SOL     OW26559   2.015   3.490   3.560
 8262SOL    HW126560   1.972   3.414   3.598
 8262SOL    HW226561   1.945   3.555   3.549
 8263SOL     OW26562  12.474   9.058   3.003
 8263SOL    HW126563  12.445   9.115   2.931
 8263SOL    HW226564  12.515   8.984   2.959
 8264SOL     OW26565  11.778   2.323   0.629
 8264SOL    HW126566  11.706   2.289   0.681
 8264SOL    HW226567  11.768   2.281   0.543
 8265SOL     OW26568   7.606   5.679  13.416
 8265SOL    HW126569   7.618   5.591  13.379
 8265SOL    HW226570   7.661   5.735  13.363
 8266SOL     OW26571  11.069   3.479  12.363
 8266SOL    HW126572  11.028   3.565  12.375
 8266SOL    HW226573  10.995   3.419  12.350
 8267SOL     OW26574  10.302   6.990   0.010
 8267SOL    HW126575  10.344   7.052  14.832
 8267SOL    HW226576  10.332   7.017   0.097
 8268SOL     OW26577   9.090   5.669  12.043
 8268SOL    HW126578   9.013   5.677  11.988
 8268SOL    HW226579   9.056   5.662  12.132
 8269SOL     OW26580   5.995   5.863   4.380
 8269SOL    HW126581   6.054   5.824   4.316
 8269SOL    HW226582   5.919   5.892   4.328
 8270SOL     OW26583  13.049   3.798   9.829
 8270SOL    HW126584  13.082   3.879   9.869
 8270SOL    HW226585  12.970   3.777   9.878
 8271SOL     OW26586   5.751   1.943   2.669
 8271SOL    HW126587   5.705   2.024   2.691
 8271SOL    HW226588   5.829   1.971   2.621
 8272SOL     OW26589  13.486  13.238  14.651
 8272SOL    HW126590  13.484  13.223  14.556
 8272SOL    HW226591  13.519  13.155  14.687
 8273SOL     OW26592   6.555  14.033   5.538
 8273SOL    HW126593   6.524  14.114   5.578
 8273SOL    HW226594   6.509  13.964   5.585
 8274SOL     OW26595  14.197   4.383   7.619
 8274SOL    HW126596  14.282   4.359   7.582
 8274SOL    HW226597  14.151   4.300   7.629
 8275SOL     OW26598   3.934   4.000   0.748
 8275SOL    HW126599   3.901   4.003   0.659
 8275SOL    HW226600   3.929   4.091   0.779
 8276SOL     OW26601   5.270   7.497  13.179
 8276SOL    HW126602   5.270   7.460  13.267
 8276SOL    HW226603   5.212   7.440  13.129
 8277SOL     OW26604   3.105  13.187  10.661
 8277SOL    HW126605   3.157  13.241  10.601
 8277SOL    HW226606   3.151  13.193  10.744
 8278SOL     OW26607   3.034   3.307   0.197
 8278SOL    HW126608   3.012   3.252   0.272
 8278SOL    HW226609   3.082   3.250   0.138
 8279SOL     OW26610   9.671   0.715   7.391
 8279SOL    HW126611   9.640   0.655   7.459
 8279SOL    HW226612   9.625   0.687   7.312
 8280SOL     OW26613   1.814   8.656   5.416
 8280SOL    HW126614   1.747   8.589   5.410
 8280SOL    HW226615   1.840   8.656   5.508
 8281SOL     OW26616  12.339   7.405  12.670
 8281SOL    HW126617  12.254   7.362  12.664
 8281SOL    HW226618  12.400   7.341  12.633
 8282SOL     OW26619   4.510   3.716   7.206
 8282SOL    HW126620   4.447   3.650   7.177
 8282SOL    HW226621   4.465   3.761   7.278
 8283SOL     OW26622   6.706   1.488   3.607
 8283SOL    HW126623   6.795   1.482   3.641
 8283SOL    HW226624   6.667   1.403   3.625
 8284SOL     OW26625  10.437  11.886   6.977
 8284SOL    HW126626  10.365  11.949   6.974
 8284SOL    HW226627  10.509  11.935   7.017
 8285SOL     OW26628  10.649   9.472   3.519
 8285SOL    HW126629  10.647   9.473   3.423
 8285SOL    HW226630  10.640   9.380   3.542
 8286SOL     OW26631   4.181   2.896  14.289
 8286SOL    HW126632   4.118   2.913  14.219
 8286SOL    HW226633   4.171   2.803  14.308
 8287SOL     OW26634  13.967   8.594  14.734
 8287SOL    HW126635  14.011   8.647  14.801
 8287SOL    HW226636  13.991   8.504  14.755
 8288SOL     OW26637   2.137   5.431   6.431
 8288SOL    HW126638   2.199   5.362   6.407
 8288SOL    HW226639   2.109   5.468   6.348
 8289SOL     OW26640   1.767   4.707  12.579
 8289SOL    HW126641   1.822   4.732  12.505
 8289SOL    HW226642   1.688   4.760  12.569
 8290SOL     OW26643   6.853  11.537  12.444
 8290SOL    HW126644   6.864  11.628  12.472
 8290SOL    HW226645   6.883  11.536  12.353
 8291SOL     OW26646   3.369  10.090   3.733
 8291SOL    HW126647   3.364  10.175   3.690
 8291SOL    HW226648   3.300  10.038   3.691
 8292SOL     OW26649   2.503   8.719   0.971
 8292SOL    HW126650   2.507   8.642   1.028
 8292SOL    HW226651   2.493   8.793   1.032
 8293SOL     OW26652  14.331   2.802   5.857
 8293SOL    HW126653  14.262   2.863   5.884
 8293SOL    HW226654  14.385   2.790   5.935
 8294SOL     OW26655   3.043  14.496   5.991
 8294SOL    HW126656   3.025  14.582   5.952
 8294SOL    HW226657   2.979  14.438   5.949
 8295SOL     OW26658   6.225  10.166   1.967
 8295SOL    HW126659   6.307  10.131   1.931
 8295SOL    HW226660   6.246  10.188   2.057
 8296SOL     OW26661  13.965   9.591   0.748
 8296SOL    HW126662  13.941   9.586   0.840
 8296SOL    HW226663  13.888   9.628   0.704
 8297SOL     OW26664  13.736   1.035   6.296
 8297SOL    HW126665  13.745   1.061   6.387
 8297SOL    HW226666  13.774   1.107   6.246
 8298SOL     OW26667   0.345   3.396   1.255
 8298SOL    HW126668   0.267   3.439   1.290
 8298SOL    HW226669   0.380   3.344   1.328
 8299SOL     OW26670   8.762  11.152   3.775
 8299SOL    HW126671   8.737  11.237   3.738
 8299SOL    HW226672   8.856  11.144   3.756
 8300SOL     OW26673   8.595   1.422   1.581
 8300SOL    HW126674   8.678   1.418   1.628
 8300SOL    HW226675   8.582   1.334   1.546
 8301SOL     OW26676   1.848   2.610   3.322
 8301SOL    HW126677   1.884   2.531   3.280
 8301SOL    HW226678   1.923   2.651   3.364
 8302SOL     OW26679   8.933   0.487   7.657
 8302SOL    HW126680   9.006   0.542   7.629
 8302SOL    HW226681   8.871   0.491   7.584
 8303SOL     OW26682  11.275   9.089  14.660
 8303SOL    HW126683  11.231   9.132  14.586
 8303SOL    HW226684  11.208   9.033  14.698
 8304SOL     OW26685   4.530   7.821  11.697
 8304SOL    HW126686   4.568   7.834  11.784
 8304SOL    HW226687   4.437   7.805  11.714
 8305SOL     OW26688   4.689   3.646   5.401
 8305SOL    HW126689   4.612   3.697   5.427
 8305SOL    HW226690   4.725   3.694   5.327
 8306SOL     OW26691  10.446   1.089  10.789
 8306SOL    HW126692  10.387   1.020  10.819
 8306SOL    HW226693  10.507   1.102  10.862
 8307SOL     OW26694  11.515  13.646  13.283
 8307SOL    HW126695  11.519  13.634  13.188
 8307SOL    HW226696  11.467  13.570  13.315
 8308SOL     OW26697   0.822  13.749   2.658
 8308SOL    HW126698   0.752  13.779   2.601
 8308SOL    HW226699   0.812  13.654   2.660
 8309SOL     OW26700  10.735  14.831   2.079
 8309SOL    HW126701  10.686   0.032   2.076
 8309SOL    HW226702  10.667  14.763   2.074
 8310SOL     OW26703  11.059  10.150   5.514
 8310SOL    HW126704  10.988  10.126   5.454
 8310SOL    HW226705  11.034  10.236   5.548
 8311SOL     OW26706   3.542  12.342   3.698
 8311SOL    HW126707   3.494  12.259   3.696
 8311SOL    HW226708   3.483  12.405   3.656
 8312SOL     OW26709   2.522  10.369  11.980
 8312SOL    HW126710   2.577  10.389  12.055
 8312SOL    HW226711   2.550  10.282  11.952
 8313SOL     OW26712   9.410   4.264   8.909
 8313SOL    HW126713   9.473   4.206   8.950
 8313SOL    HW226714   9.396   4.333   8.974
 8314SOL     OW26715   5.493   9.411   7.141
 8314SOL    HW126716   5.561   9.469   7.108
 8314SOL    HW226717   5.465   9.360   7.065
 8315SOL     OW26718   4.070  10.034  10.042
 8315SOL    HW126719   4.044   9.985  10.120
 8315SOL    HW226720   4.036  10.122  10.056
 8316SOL     OW26721   2.413   3.771  10.405
 8316SOL    HW126722   2.420   3.790  10.311
 8316SOL    HW226723   2.449   3.683  10.414
 8317SOL     OW26724  12.702  11.672   6.425
 8317SOL    HW126725  12.768  11.614   6.464
 8317SOL    HW226726  12.672  11.726   6.497
 8318SOL     OW26727   7.791   0.726   6.815
 8318SOL    HW126728   7.759   0.638   6.836
 8318SOL    HW226729   7.765   0.740   6.724
 8319SOL     OW26730  10.226   2.171  13.356
 8319SOL    HW126731  10.132   2.165  13.340
 8319SOL    HW226732  10.264   2.184  13.269
 8320SOL     OW26733   1.660   3.783  11.872
 8320SOL    HW126734   1.687   3.786  11.964
 8320SOL    HW226735   1.608   3.862  11.860
 8321SOL     OW26736   4.925  12.412   9.913
 8321SOL    HW126737   4.909  12.453   9.829
 8321SOL    HW226738   4.942  12.320   9.892
 8322SOL     OW26739  13.760   9.442   4.894
 8322SOL    HW126740  13.733   9.467   4.806
 8322SOL    HW226741  13.711   9.362   4.913
 8323SOL     OW26742  13.771   4.193   2.606
 8323SOL    HW126743  13.676   4.186   2.621
 8323SOL    HW226744  13.793   4.282   2.634
 8324SOL     OW26745   9.457   7.146   1.422
 8324SOL    HW126746   9.525   7.173   1.484
 8324SOL    HW226747   9.506   7.102   1.352
 8325SOL     OW26748   0.197   6.350   5.915
 8325SOL    HW126749   0.108   6.318   5.929
 8325SOL    HW226750   0.204   6.426   5.973
 8326SOL     OW26751  10.024   5.104   3.707
 8326SOL    HW126752  10.091   5.037   3.721
 8326SOL    HW226753  10.061   5.160   3.638
 8327SOL     OW26754   0.759   3.559   7.855
 8327SOL    HW126755   0.852   3.537   7.853
 8327SOL    HW226756   0.756   3.651   7.882
 8328SOL     OW26757   6.568   5.198   3.184
 8328SOL    HW126758   6.538   5.286   3.161
 8328SOL    HW226759   6.625   5.173   3.111
 8329SOL     OW26760  13.604  11.548  13.532
 8329SOL    HW126761  13.602  11.474  13.593
 8329SOL    HW226762  13.585  11.625  13.587
 8330SOL     OW26763   1.676   5.108  11.346
 8330SOL    HW126764   1.592   5.109  11.300
 8330SOL    HW226765   1.706   5.198  11.344
 8331SOL     OW26766   2.119   8.632   8.464
 8331SOL    HW126767   2.076   8.608   8.381
 8331SOL    HW226768   2.208   8.655   8.438
 8332SOL     OW26769   4.569   1.826  11.830
 8332SOL    HW126770   4.494   1.878  11.860
 8332SOL    HW226771   4.645   1.883  11.843
 8333SOL     OW26772  12.173  12.116  12.626
 8333SOL    HW126773  12.153  12.201  12.664
 8333SOL    HW226774  12.098  12.097  12.569
 8334SOL     OW26775  11.901   2.312   7.877
 8334SOL    HW126776  11.997   2.309   7.877
 8334SOL    HW226777  11.877   2.321   7.784
 8335SOL     OW26778   7.729   8.862   4.660
 8335SOL    HW126779   7.814   8.855   4.705
 8335SOL    HW226780   7.745   8.924   4.589
 8336SOL     OW26781   7.535   5.882  10.108
 8336SOL    HW126782   7.619   5.927  10.098
 8336SOL    HW226783   7.478   5.924  10.044
 8337SOL     OW26784  10.669   5.987   2.488
 8337SOL    HW126785  10.721   6.032   2.422
 8337SOL    HW226786  10.695   5.895   2.481
 8338SOL     OW26787  11.610   7.739   3.823
 8338SOL    HW126788  11.689   7.695   3.791
 8338SOL    HW226789  11.575   7.679   3.889
 8339SOL     OW26790  11.707   2.183   3.856
 8339SOL    HW126791  11.791   2.196   3.900
 8339SOL    HW226792  11.729   2.142   3.773
 8340SOL     OW26793   1.574  10.384  13.180
 8340SOL    HW126794   1.618  10.311  13.136
 8340SOL    HW226795   1.538  10.436  13.108
 8341SOL     OW26796   8.712   5.965   1.922
 8341SOL    HW126797   8.669   6.037   1.875
 8341SOL    HW226798   8.749   6.006   2.000
 8342SOL     OW26799   1.146   3.038   0.429
 8342SOL    HW126800   1.092   3.022   0.352
 8342SOL    HW226801   1.127   2.963   0.487
 8343SOL     OW26802   5.887   3.868   0.089
 8343SOL    HW126803   5.825   3.795   0.089
 8343SOL    HW226804   5.846   3.935   0.144
 8344SOL     OW26805   7.806   0.804   8.403
 8344SOL    HW126806   7.763   0.833   8.483
 8344SOL    HW226807   7.896   0.834   8.411
 8345SOL     OW26808   3.369   3.920  14.225
 8345SOL    HW126809   3.306   3.991  14.237
 8345SOL    HW226810   3.448   3.964  14.192
 8346SOL     OW26811   1.126   6.515  10.764
 8346SOL    HW126812   1.082   6.553  10.688
 8346SOL    HW226813   1.077   6.434  10.782
 8347SOL     OW26814   9.819   0.116   5.744
 8347SOL    HW126815   9.820   0.097   5.838
 8347SOL    HW226816   9.731   0.151   5.727
 8348SOL     OW26817   1.347  12.212  11.667
 8348SOL    HW126818   1.417  12.271  11.637
 8348SOL    HW226819   1.335  12.235  11.759
 8349SOL     OW26820   6.309   9.127   2.573
 8349SOL    HW126821   6.345   9.158   2.656
 8349SOL    HW226822   6.237   9.187   2.554
 8350SOL     OW26823  12.401   5.926  14.032
 8350SOL    HW126824  12.341   5.931  13.957
 8350SOL    HW226825  12.484   5.897  13.995
 8351SOL     OW26826   1.449   1.377  11.151
 8351SOL    HW126827   1.407   1.414  11.229
 8351SOL    HW226828   1.403   1.418  11.077
 8352SOL     OW26829  12.600  12.240   1.751
 8352SOL    HW126830  12.543  12.211   1.679
 8352SOL    HW226831  12.546  12.301   1.801
 8353SOL     OW26832  13.358   8.863   4.682
 8353SOL    HW126833  13.284   8.847   4.740
 8353SOL    HW226834  13.328   8.833   4.596
 8354SOL     OW26835   5.373   8.059   1.426
 8354SOL    HW126836   5.322   8.127   1.382
 8354SOL    HW226837   5.367   8.081   1.519
 8355SOL     OW26838   3.379  13.509   5.484
 8355SOL    HW126839   3.329  13.590   5.472
 8355SOL    HW226840   3.449  13.515   5.420
 8356SOL     OW26841  10.582   9.215   7.599
 8356SOL    HW126842  10.612   9.175   7.517
 8356SOL    HW226843  10.655   9.270   7.627
 8357SOL     OW26844  13.911   7.738   1.464
 8357SOL    HW126845  13.853   7.783   1.525
 8357SOL    HW226846  13.949   7.666   1.516
 8358SOL     OW26847   7.409   6.502   8.868
 8358SOL    HW126848   7.418   6.596   8.887
 8358SOL    HW226849   7.331   6.475   8.917
 8359SOL     OW26850   3.574   2.703   8.683
 8359SOL    HW126851   3.642   2.769   8.700
 8359SOL    HW226852   3.594   2.633   8.745
 8360SOL     OW26853   2.789   9.675   1.173
 8360SOL    HW126854   2.752   9.740   1.233
 8360SOL    HW226855   2.734   9.598   1.186
 8361SOL     OW26856   7.964  13.268   5.078
 8361SOL    HW126857   7.947  13.325   5.153
 8361SOL    HW226858   7.994  13.186   5.115
 8362SOL     OW26859   6.166  13.481   8.450
 8362SOL    HW126860   6.152  13.455   8.541
 8362SOL    HW226861   6.232  13.551   8.455
 8363SOL     OW26862  12.936   2.578   3.071
 8363SOL    HW126863  12.965   2.658   3.026
 8363SOL    HW226864  13.016   2.535   3.099
 8364SOL     OW26865   6.849   3.082   0.676
 8364SOL    HW126866   6.789   3.008   0.664
 8364SOL    HW226867   6.836   3.136   0.598
 8365SOL     OW26868   4.979   1.082   3.170
 8365SOL    HW126869   4.924   1.152   3.134
 8365SOL    HW226870   5.064   1.094   3.128
 8366SOL     OW26871  11.375   8.044  14.000
 8366SOL    HW126872  11.360   7.982  13.929
 8366SOL    HW226873  11.406   8.123  13.957
 8367SOL     OW26874  13.898   8.719   1.816
 8367SOL    HW126875  13.828   8.674   1.863
 8367SOL    HW226876  13.852   8.768   1.747
 8368SOL     OW26877   7.821   8.831   5.985
 8368SOL    HW126878   7.814   8.779   5.905
 8368SOL    HW226879   7.737   8.821   6.028
 8369SOL     OW26880  11.303  13.000   0.840
 8369SOL    HW126881  11.327  13.093   0.849
 8369SOL    HW226882  11.222  13.001   0.789
 8370SOL     OW26883   9.724  10.756   6.593
 8370SOL    HW126884   9.647  10.735   6.541
 8370SOL    HW226885   9.697  10.832   6.646
 8371SOL     OW26886   3.598  11.822   7.297
 8371SOL    HW126887   3.626  11.883   7.229
 8371SOL    HW226888   3.593  11.737   7.252
 8372SOL     OW26889   0.706   7.922   1.923
 8372SOL    HW126890   0.664   7.940   1.839
 8372SOL    HW226891   0.789   7.879   1.899
 8373SOL     OW26892   5.161   5.466   8.719
 8373SOL    HW126893   5.158   5.526   8.794
 8373SOL    HW226894   5.113   5.389   8.749
 8374SOL     OW26895   5.238  14.394  10.744
 8374SOL    HW126896   5.246  14.353  10.658
 8374SOL    HW226897   5.315  14.451  10.750
 8375SOL     OW26898   7.694   5.082  11.914
 8375SOL    HW126899   7.713   5.163  11.867
 8375SOL    HW226900   7.639   5.109  11.988
 8376SOL     OW26901   2.073   0.907   9.373
 8376SOL    HW126902   2.013   0.833   9.377
 8376SOL    HW226903   2.116   0.899   9.288
 8377SOL     OW26904   1.513  10.458   3.152
 8377SOL    HW126905   1.431  10.420   3.121
 8377SOL    HW226906   1.575  10.441   3.080
 8378SOL     OW26907   5.545   9.395   2.309
 8378SOL    HW126908   5.456   9.431   2.309
 8378SOL    HW226909   5.575   9.406   2.399
 8379SOL     OW26910   1.797   7.705   1.666
 8379SOL    HW126911   1.811   7.611   1.660
 8379SOL    HW226912   1.703   7.714   1.687
 8380SOL     OW26913   4.596   3.852   2.340
 8380SOL    HW126914   4.522   3.793   2.326
 8380SOL    HW226915   4.672   3.801   2.310
 8381SOL     OW26916  10.088   9.122   0.889
 8381SOL    HW126917  10.183   9.112   0.881
 8381SOL    HW226918  10.055   9.108   0.800
 8382SOL     OW26919   1.615  11.298  13.480
 8382SOL    HW126920   1.521  11.315  13.482
 8382SOL    HW226921   1.624  11.216  13.430
 8383SOL     OW26922  14.144   2.884  11.235
 8383SOL    HW126923  14.145   2.916  11.325
 8383SOL    HW226924  14.149   2.789  11.242
 8384SOL     OW26925  14.494  13.987   0.693
 8384SOL    HW126926  14.414  13.948   0.729
 8384SOL    HW226927  14.470  14.015   0.605
 8385SOL     OW26928   9.771  14.751   8.970
 8385SOL    HW126929   9.677  14.757   8.957
 8385SOL    HW226930   9.796  14.669   8.926
 8386SOL     OW26931  11.469  10.379   0.322
 8386SOL    HW126932  11.526  10.456   0.309
 8386SOL    HW226933  11.415  10.376   0.244
 8387SOL     OW26934  14.373   9.387   3.211
 8387SOL    HW126935  14.378   9.434   3.128
 8387SOL    HW226936  14.373   9.294   3.185
 8388SOL     OW26937   6.042   3.467   6.694
 8388SOL    HW126938   6.119   3.442   6.643
 8388SOL    HW226939   6.042   3.408   6.769
 8389SOL     OW26940   7.424  12.779  10.949
 8389SOL    HW126941   7.484  12.755  11.020
 8389SOL    HW226942   7.337  12.776  10.988
 8390SOL     OW26943   1.546   9.054   8.322
 8390SOL    HW126944   1.595   9.132   8.298
 8390SOL    HW226945   1.562   9.043   8.415
 8391SOL     OW26946  13.373   4.802   8.548
 8391SOL    HW126947  13.419   4.728   8.586
 8391SOL    HW226948  13.329   4.844   8.622
 8392SOL     OW26949   6.347  12.896  12.691
 8392SOL    HW126950   6.394  12.821  12.726
 8392SOL    HW226951   6.257  12.865  12.679
 8393SOL     OW26952   3.666   5.682  13.220
 8393SOL    HW126953   3.635   5.709  13.134
 8393SOL    HW226954   3.760   5.699  13.218
 8394SOL     OW26955   1.617   3.010  11.743
 8394SOL    HW126956   1.621   2.915  11.734
 8394SOL    HW226957   1.524   3.031  11.736
 8395SOL     OW26958  10.630   8.751  13.032
 8395SOL    HW126959  10.584   8.668  13.048
 8395SOL    HW226960  10.704   8.725  12.977
 8396SOL     OW26961   9.989  10.237   9.956
 8396SOL    HW126962   9.895  10.233   9.942
 8396SOL    HW226963  10.025  10.263   9.871
 8397SOL     OW26964   0.960   4.295  12.432
 8397SOL    HW126965   1.021   4.364  12.406
 8397SOL    HW226966   0.990   4.269  12.519
 8398SOL     OW26967  12.993   1.315   6.566
 8398SOL    HW126968  12.940   1.313   6.646
 8398SOL    HW226969  12.944   1.261   6.504
 8399SOL     OW26970   3.041   8.455   0.710
 8399SOL    HW126971   3.108   8.387   0.714
 8399SOL    HW226972   3.006   8.449   0.621
 8400SOL     OW26973  11.642   1.161   7.757
 8400SOL    HW126974  11.570   1.121   7.709
 8400SOL    HW226975  11.601   1.232   7.807
 8401SOL     OW26976   5.099  14.818   7.088
 8401SOL    HW126977   5.048  14.875   7.145
 8401SOL    HW226978   5.151  14.878   7.035
 8402SOL     OW26979   4.134   0.600   4.859
 8402SOL    HW126980   4.143   0.670   4.924
 8402SOL    HW226981   4.046   0.613   4.823
 8403SOL     OW26982   4.789   8.108   5.818
 8403SOL    HW126983   4.807   8.026   5.863
 8403SOL    HW226984   4.813   8.092   5.727
 8404SOL     OW26985   9.157  14.277   4.388
 8404SOL    HW126986   9.113  14.329   4.321
 8404SOL    HW226987   9.246  14.313   4.391
 8405SOL     OW26988  13.612  13.162   6.501
 8405SOL    HW126989  13.684  13.168   6.438
 8405SOL    HW226990  13.575  13.075   6.486
 8406SOL     OW26991  10.936   1.948   6.598
 8406SOL    HW126992  10.855   1.994   6.617
 8406SOL    HW226993  10.937   1.874   6.658
 8407SOL     OW26994  11.822  14.543   2.843
 8407SOL    HW126995  11.860  14.463   2.880
 8407SOL    HW226996  11.866  14.554   2.759
 8408SOL     OW26997  10.550   9.936   1.711
 8408SOL    HW126998  10.521  10.027   1.703
 8408SOL    HW226999  10.634   9.942   1.757
 8409SOL     OW27000  10.201   7.673   6.623
 8409SOL    HW127001  10.261   7.747   6.634
 8409SOL    HW227002  10.144   7.699   6.552
 8410SOL     OW27003   3.910  14.481   9.026
 8410SOL    HW127004   3.941  14.540   8.957
 8410SOL    HW227005   3.969  14.498   9.100
 8411SOL     OW27006   6.733   4.531  13.038
 8411SOL    HW127007   6.713   4.563  12.950
 8411SOL    HW227008   6.728   4.436  13.030
 8412SOL     OW27009   5.367   9.014   9.699
 8412SOL    HW127010   5.313   8.986   9.772
 8412SOL    HW227011   5.338   9.103   9.679
 8413SOL     OW27012  11.017  12.038  13.730
 8413SOL    HW127013  11.056  11.963  13.776
 8413SOL    HW227014  11.087  12.103  13.728
 8414SOL     OW27015   7.845   2.685   6.748
 8414SOL    HW127016   7.936   2.673   6.777
 8414SOL    HW227017   7.806   2.598   6.755
 8415SOL     OW27018   4.632   0.083   0.588
 8415SOL    HW127019   4.589   0.062   0.505
 8415SOL    HW227020   4.570   0.055   0.655
 8416SOL     OW27021   3.048  10.079   3.392
 8416SOL    HW127022   2.966  10.065   3.438
 8416SOL    HW227023   3.060  10.174   3.393
 8417SOL     OW27024  14.018   9.821   4.930
 8417SOL    HW127025  14.011   9.778   4.844
 8417SOL    HW227026  14.098   9.873   4.923
 8418SOL     OW27027  11.886   7.203   1.579
 8418SOL    HW127028  11.885   7.108   1.574
 8418SOL    HW227029  11.797   7.227   1.605
 8419SOL     OW27030  10.140   7.530   0.207
 8419SOL    HW127031  10.162   7.552   0.298
 8419SOL    HW227032  10.167   7.439   0.197
 8420SOL     OW27033  10.056   2.391   0.954
 8420SOL    HW127034  10.085   2.336   1.026
 8420SOL    HW227035  10.103   2.358   0.877
 8421SOL     OW27036  10.513  10.683   1.179
 8421SOL    HW127037  10.424  10.651   1.165
 8421SOL    HW227038  10.560  10.609   1.215
 8422SOL     OW27039  13.108  12.490  12.836
 8422SOL    HW127040  13.022  12.476  12.797
 8422SOL    HW227041  13.112  12.584  12.853
 8423SOL     OW27042  14.805  13.464   7.322
 8423SOL    HW127043  14.720  13.452   7.365
 8423SOL    HW227044  14.854  13.520   7.383
 8424SOL     OW27045  10.013   4.063   3.174
 8424SOL    HW127046   9.990   4.103   3.091
 8424SOL    HW227047   9.979   4.123   3.240
 8425SOL     OW27048   5.246   5.049  11.604
 8425SOL    HW127049   5.193   5.123  11.575
 8425SOL    HW227050   5.187   4.996  11.657
 8426SOL     OW27051  13.336   8.933  12.272
 8426SOL    HW127052  13.418   8.976  12.296
 8426SOL    HW227053  13.292   8.918  12.356
 8427SOL     OW27054   4.824  13.564  14.736
 8427SOL    HW127055   4.729  13.562  14.748
 8427SOL    HW227056   4.851  13.472  14.743
 8428SOL     OW27057   3.003  11.315  14.453
 8428SOL    HW127058   2.963  11.248  14.398
 8428SOL    HW227059   2.948  11.392  14.440
 8429SOL     OW27060   7.204   4.434   3.246
 8429SOL    HW127061   7.116   4.467   3.263
 8429SOL    HW227062   7.257   4.513   3.236
 8430SOL     OW27063   8.231   2.108  13.871
 8430SOL    HW127064   8.202   2.032  13.922
 8430SOL    HW227065   8.171   2.111  13.797
 8431SOL     OW27066   7.637  13.906  11.260
 8431SOL    HW127067   7.581  13.983  11.267
 8431SOL    HW227068   7.654  13.897  11.166
 8432SOL     OW27069  11.569  10.986  10.350
 8432SOL    HW127070  11.633  10.970  10.419
 8432SOL    HW227071  11.576  11.080  10.333
 8433SOL     OW27072   2.941  14.033  10.000
 8433SOL    HW127073   3.009  14.095  10.025
 8433SOL    HW227074   2.950  13.960  10.061
 8434SOL     OW27075   7.452  11.892  11.732
 8434SOL    HW127076   7.445  11.984  11.757
 8434SOL    HW227077   7.459  11.893  11.637
 8435SOL     OW27078  13.160   3.066   5.907
 8435SOL    HW127079  13.232   3.119   5.941
 8435SOL    HW227080  13.145   3.100   5.819
 8436SOL     OW27081   2.471   7.463   4.584
 8436SOL    HW127082   2.505   7.547   4.616
 8436SOL    HW227083   2.379   7.464   4.609
 8437SOL     OW27084   1.851   0.782  10.423
 8437SOL    HW127085   1.883   0.692  10.430
 8437SOL    HW227086   1.771   0.775  10.372
 8438SOL     OW27087  14.136  12.635  14.020
 8438SOL    HW127088  14.071  12.585  13.970
 8438SOL    HW227089  14.205  12.571  14.039
 8439SOL     OW27090   4.840  13.598   0.235
 8439SOL    HW127091   4.924  13.565   0.203
 8439SOL    HW227092   4.814  13.664   0.171
 8440SOL     OW27093   1.455   5.113   8.898
 8440SOL    HW127094   1.540   5.080   8.927
 8440SOL    HW227095   1.454   5.099   8.804
 8441SOL     OW27096   5.123  12.861  13.989
 8441SOL    HW127097   5.100  12.941  14.037
 8441SOL    HW227098   5.044  12.807  13.994
 8442SOL     OW27099   0.323   5.885   5.058
 8442SOL    HW127100   0.228   5.868   5.059
 8442SOL    HW227101   0.359   5.818   5.117
 8443SOL     OW27102  12.567   1.629   4.801
 8443SOL    HW127103  12.576   1.609   4.708
 8443SOL    HW227104  12.566   1.725   4.805
 8444SOL     OW27105  11.930  10.037   2.573
 8444SOL    HW127106  11.982   9.962   2.543
 8444SOL    HW227107  11.996  10.102   2.599
 8445SOL     OW27108  12.134   7.291  11.694
 8445SOL    HW127109  12.181   7.236  11.630
 8445SOL    HW227110  12.122   7.374  11.649
 8446SOL     OW27111  13.570   7.185  10.713
 8446SOL    HW127112  13.662   7.203  10.695
 8446SOL    HW227113  13.525   7.207  10.631
 8447SOL     OW27114   1.861   1.443   9.501
 8447SOL    HW127115   1.823   1.501   9.566
 8447SOL    HW227116   1.936   1.491   9.467
 8448SOL     OW27117  11.719   6.310  14.035
 8448SOL    HW127118  11.806   6.350  14.031
 8448SOL    HW227119  11.677   6.352  14.110
 8449SOL     OW27120   4.471  13.019   2.142
 8449SOL    HW127121   4.377  13.029   2.157
 8449SOL    HW227122   4.512  13.067   2.214
 8450SOL     OW27123   1.726  11.937   0.396
 8450SOL    HW127124   1.751  11.876   0.326
 8450SOL    HW227125   1.634  11.917   0.412
 8451SOL     OW27126   6.641  11.692   9.954
 8451SOL    HW127127   6.702  11.710   9.883
 8451SOL    HW227128   6.554  11.707   9.915
 8452SOL     OW27129  10.789   3.236   3.365
 8452SOL    HW127130  10.861   3.241   3.303
 8452SOL    HW227131  10.819   3.285   3.442
 8453SOL     OW27132   0.958  12.666  14.373
 8453SOL    HW127133   0.881  12.721  14.359
 8453SOL    HW227134   1.028  12.728  14.394
 8454SOL     OW27135  13.113  13.720   3.191
 8454SOL    HW127136  13.027  13.757   3.169
 8454SOL    HW227137  13.154  13.702   3.107
 8455SOL     OW27138  12.343  14.339   6.313
 8455SOL    HW127139  12.437  14.361   6.317
 8455SOL    HW227140  12.314  14.373   6.229
 8456SOL     OW27141   8.661   4.486  10.919
 8456SOL    HW127142   8.585   4.526  10.877
 8456SOL    HW227143   8.656   4.393  10.895
 8457SOL     OW27144  12.144   1.728   0.920
 8457SOL    HW127145  12.161   1.777   1.001
 8457SOL    HW227146  12.050   1.708   0.923
 8458SOL     OW27147   9.818   7.414   8.807
 8458SOL    HW127148   9.791   7.498   8.844
 8458SOL    HW227149   9.821   7.354   8.881
 8459SOL     OW27150   5.970  11.317   5.851
 8459SOL    HW127151   5.956  11.399   5.898
 8459SOL    HW227152   6.053  11.329   5.805
 8460SOL     OW27153   7.559   1.665   0.069
 8460SOL    HW127154   7.512   1.630  14.874
 8460SOL    HW227155   7.649   1.635   0.058
 8461SOL     OW27156   8.259   0.533   6.274
 8461SOL    HW127157   8.255   0.615   6.324
 8461SOL    HW227158   8.321   0.552   6.203
 8462SOL     OW27159   9.680   6.132   0.830
 8462SOL    HW127160   9.685   6.220   0.793
 8462SOL    HW227161   9.596   6.097   0.799
 8463SOL     OW27162   0.434   5.679   5.231
 8463SOL    HW127163   0.496   5.654   5.300
 8463SOL    HW227164   0.414   5.597   5.186
 8464SOL     OW27165   9.899   9.552   2.067
 8464SOL    HW127166   9.906   9.635   2.020
 8464SOL    HW227167   9.834   9.568   2.135
 8465SOL     OW27168   1.588   1.375  13.128
 8465SOL    HW127169   1.615   1.333  13.046
 8465SOL    HW227170   1.546   1.457  13.100
 8466SOL     OW27171   8.975  13.702   1.254
 8466SOL    HW127172   8.932  13.673   1.335
 8466SOL    HW227173   8.907  13.753   1.209
 8467SOL     OW27174  14.671   2.039  10.921
 8467SOL    HW127175  14.580   2.067  10.936
 8467SOL    HW227176  14.720   2.121  10.916
 8468SOL     OW27177  13.710   3.087  12.797
 8468SOL    HW127178  13.656   3.087  12.876
 8468SOL    HW227179  13.713   2.996  12.770
 8469SOL     OW27180  10.883   8.681   4.529
 8469SOL    HW127181  10.919   8.644   4.448
 8469SOL    HW227182  10.850   8.767   4.503
 8470SOL     OW27183  11.352  12.884   4.556
 8470SOL    HW127184  11.410  12.814   4.525
 8470SOL    HW227185  11.267  12.841   4.566
 8471SOL     OW27186   2.610  10.824   1.233
 8471SOL    HW127187   2.562  10.896   1.275
 8471SOL    HW227188   2.542  10.776   1.185
 8472SOL     OW27189   8.423   0.611   1.833
 8472SOL    HW127190   8.431   0.551   1.759
 8472SOL    HW227191   8.345   0.581   1.880
 8473SOL     OW27192  10.224  14.052   9.002
 8473SOL    HW127193  10.133  14.061   9.030
 8473SOL    HW227194  10.226  13.972   8.950
 8474SOL     OW27195   2.178   5.150  10.996
 8474SOL    HW127196   2.259   5.099  10.986
 8474SOL    HW227197   2.160   5.146  11.090
 8475SOL     OW27198  13.715  12.949   8.856
 8475SOL    HW127199  13.758  12.993   8.929
 8475SOL    HW227200  13.643  12.899   8.897
 8476SOL     OW27201  12.880   0.590   3.518
 8476SOL    HW127202  12.897   0.574   3.611
 8476SOL    HW227203  12.945   0.655   3.492
 8477SOL     OW27204  13.639   1.893   4.126
 8477SOL    HW127205  13.689   1.814   4.109
 8477SOL    HW227206  13.565   1.864   4.179
 8478SOL     OW27207  11.389   2.756  12.414
 8478SOL    HW127208  11.389   2.715  12.327
 8478SOL    HW227209  11.303   2.798  12.420
 8479SOL     OW27210  12.600  10.779  11.158
 8479SOL    HW127211  12.600  10.842  11.086
 8479SOL    HW227212  12.510  10.748  11.163
 8480SOL     OW27213   0.251   0.259   6.962
 8480SOL    HW127214   0.313   0.186   6.967
 8480SOL    HW227215   0.215   0.253   6.874
 8481SOL     OW27216  11.180  12.219   5.647
 8481SOL    HW127217  11.118  12.225   5.574
 8481SOL    HW227218  11.209  12.310   5.660
 8482SOL     OW27219  12.574   3.241   8.712
 8482SOL    HW127220  12.639   3.203   8.653
 8482SOL    HW227221  12.503   3.269   8.654
 8483SOL     OW27222  14.178  13.375  13.264
 8483SOL    HW127223  14.136  13.394  13.348
 8483SOL    HW227224  14.116  13.317  13.219
 8484SOL     OW27225   3.965   6.622   1.845
 8484SOL    HW127226   3.876   6.607   1.877
 8484SOL    HW227227   3.964   6.711   1.812
 8485SOL     OW27228   9.883  14.055   5.168
 8485SOL    HW127229   9.886  14.099   5.252
 8485SOL    HW227230   9.901  13.963   5.188
 8486SOL     OW27231   0.778  13.912  12.935
 8486SOL    HW127232   0.742  13.996  12.906
 8486SOL    HW227233   0.795  13.864  12.853
 8487SOL     OW27234   0.426  13.057   9.766
 8487SOL    HW127235   0.388  12.976   9.733
 8487SOL    HW227236   0.389  13.068   9.853
 8488SOL     OW27237   0.332   1.537   3.883
 8488SOL    HW127238   0.253   1.491   3.911
 8488SOL    HW227239   0.360   1.489   3.805
 8489SOL     OW27240   7.314   8.254   5.902
 8489SOL    HW127241   7.379   8.233   5.836
 8489SOL    HW227242   7.317   8.180   5.963
 8490SOL     OW27243  13.426   2.229  14.740
 8490SOL    HW127244  13.481   2.261  14.812
 8490SOL    HW227245  13.470   2.259  14.661
 8491SOL     OW27246   5.532   9.386   0.183
 8491SOL    HW127247   5.450   9.407   0.228
 8491SOL    HW227248   5.510   9.392   0.090
 8492SOL     OW27249   5.504   5.203   6.087
 8492SOL    HW127250   5.546   5.259   6.153
 8492SOL    HW227251   5.518   5.114   6.119
 8493SOL     OW27252   6.406   5.394  10.924
 8493SOL    HW127253   6.471   5.451  10.964
 8493SOL    HW227254   6.338   5.386  10.990
 8494SOL     OW27255   8.308   8.313   8.653
 8494SOL    HW127256   8.370   8.299   8.582
 8494SOL    HW227257   8.357   8.295   8.733
 8495SOL     OW27258  12.528   2.459  14.179
 8495SOL    HW127259  12.508   2.531  14.120
 8495SOL    HW227260  12.615   2.430  14.153
 8496SOL     OW27261   8.622   4.989   4.880
 8496SOL    HW127262   8.575   4.922   4.929
 8496SOL    HW227263   8.708   4.993   4.923
 8497SOL     OW27264   3.052   8.089  13.522
 8497SOL    HW127265   3.067   8.146  13.598
 8497SOL    HW227266   3.024   8.149  13.453
 8498SOL     OW27267  12.474  12.606   5.851
 8498SOL    HW127268  12.432  12.579   5.933
 8498SOL    HW227269  12.478  12.701   5.857
 8499SOL     OW27270   9.926   8.763   6.206
 8499SOL    HW127271   9.901   8.757   6.298
 8499SOL    HW227272   9.899   8.851   6.180
 8500SOL     OW27273   5.080   8.751  13.028
 8500SOL    HW127274   5.059   8.663  12.999
 8500SOL    HW227275   5.167   8.768  12.992
 8501SOL     OW27276   8.857   2.823   8.665
 8501SOL    HW127277   8.828   2.850   8.578
 8501SOL    HW227278   8.936   2.771   8.649
 8502SOL     OW27279   1.247   6.376   0.124
 8502SOL    HW127280   1.326   6.361   0.175
 8502SOL    HW227281   1.250   6.310   0.055
 8503SOL     OW27282   6.211  14.764   9.585
 8503SOL    HW127283   6.230  14.670   9.593
 8503SOL    HW227284   6.199  14.778   9.491
 8504SOL     OW27285   2.678   1.917   3.151
 8504SOL    HW127286   2.636   1.996   3.116
 8504SOL    HW227287   2.605   1.858   3.171
 8505SOL     OW27288   9.325   1.753   7.031
 8505SOL    HW127289   9.271   1.770   7.109
 8505SOL    HW227290   9.261   1.745   6.960
 8506SOL     OW27291   2.828  11.770   6.606
 8506SOL    HW127292   2.873  11.686   6.613
 8506SOL    HW227293   2.849  11.802   6.519
 8507SOL     OW27294   9.493  11.765   7.485
 8507SOL    HW127295   9.452  11.814   7.413
 8507SOL    HW227296   9.425  11.705   7.515
 8508SOL     OW27297   5.389   9.382   1.910
 8508SOL    HW127298   5.477   9.373   1.947
 8508SOL    HW227299   5.334   9.408   1.983
 8509SOL     OW27300  12.259   3.224   9.346
 8509SOL    HW127301  12.221   3.221   9.258
 8509SOL    HW227302  12.183   3.236   9.404
 8510SOL     OW27303   2.129  13.275  12.400
 8510SOL    HW127304   2.088  13.300  12.317
 8510SOL    HW227305   2.219  13.253  12.377
 8511SOL     OW27306   6.010  12.565  11.008
 8511SOL    HW127307   6.000  12.661  11.012
 8511SOL    HW227308   5.982  12.535  11.095
 8512SOL     OW27309  14.819   6.465   9.943
 8512SOL    HW127310  14.821   6.519   9.864
 8512SOL    HW227311  14.733   6.483   9.982
 8513SOL     OW27312  12.508   4.308  12.993
 8513SOL    HW127313  12.532   4.300  12.901
 8513SOL    HW227314  12.425   4.355  12.993
 8514SOL     OW27315   8.673  11.890   8.543
 8514SOL    HW127316   8.623  11.962   8.504
 8514SOL    HW227317   8.643  11.812   8.495
 8515SOL     OW27318  11.121  10.877  13.633
 8515SOL    HW127319  11.060  10.949  13.648
 8515SOL    HW227320  11.120  10.864  13.538
 8516SOL     OW27321   9.393  10.356   3.129
 8516SOL    HW127322   9.454  10.430   3.125
 8516SOL    HW227323   9.385  10.326   3.038
 8517SOL     OW27324   7.203   3.960   9.201
 8517SOL    HW127325   7.267   3.923   9.141
 8517SOL    HW227326   7.251   3.973   9.283
 8518SOL     OW27327  14.664   4.515   2.985
 8518SOL    HW127328  14.675   4.515   3.080
 8518SOL    HW227329  14.713   4.439   2.954
 8519SOL     OW27330   3.469   5.726  10.249
 8519SOL    HW127331   3.418   5.695  10.324
 8519SOL    HW227332   3.528   5.653  10.229
 8520SOL     OW27333   0.293  12.186  13.872
 8520SOL    HW127334   0.211  12.228  13.899
 8520SOL    HW227335   0.269  12.095  13.855
 8521SOL     OW27336  12.333   9.729  14.725
 8521SOL    HW127337  12.402   9.679  14.682
 8521SOL    HW227338  12.332   9.813  14.678
 8522SOL     OW27339   3.272   9.936  12.084
 8522SOL    HW127340   3.328   9.935  12.006
 8522SOL    HW227341   3.237   9.847  12.089
 8523SOL     OW27342   6.178   1.888   9.421
 8523SOL    HW127343   6.231   1.812   9.446
 8523SOL    HW227344   6.090   1.867   9.452
 8524SOL     OW27345   7.505  10.509   9.007
 8524SOL    HW127346   7.496  10.519   8.913
 8524SOL    HW227347   7.560  10.583   9.034
 8525SOL     OW27348   4.007   0.849   1.528
 8525SOL    HW127349   4.067   0.777   1.508
 8525SOL    HW227350   3.922   0.819   1.496
 8526SOL     OW27351   7.049   9.815  14.527
 8526SOL    HW127352   7.002   9.891  14.492
 8526SOL    HW227353   7.133   9.849  14.556
 8527SOL     OW27354   7.661   9.359   1.139
 8527SOL    HW127355   7.726   9.289   1.137
 8527SOL    HW227356   7.704   9.432   1.093
 8528SOL     OW27357  12.112   0.772   3.605
 8528SOL    HW127358  12.019   0.788   3.586
 8528SOL    HW227359  12.113   0.693   3.659
 8529SOL     OW27360   2.544   0.267   4.221
 8529SOL    HW127361   2.520   0.223   4.303
 8529SOL    HW227362   2.638   0.285   4.230
 8530SOL     OW27363   8.538   3.086   1.167
 8530SOL    HW127364   8.480   3.125   1.101
 8530SOL    HW227365   8.484   3.082   1.246
 8531SOL     OW27366   3.435  11.490   6.335
 8531SOL    HW127367   3.476  11.410   6.367
 8531SOL    HW227368   3.506  11.539   6.294
 8532SOL     OW27369   8.612   9.436  11.087
 8532SOL    HW127370   8.547   9.368  11.071
 8532SOL    HW227371   8.625   9.477  11.001
 8533SOL     OW27372   6.997   7.481   1.148
 8533SOL    HW127373   7.043   7.426   1.085
 8533SOL    HW227374   7.034   7.568   1.135
 8534SOL     OW27375  10.473  13.553  12.838
 8534SOL    HW127376  10.464  13.458  12.839
 8534SOL    HW227377  10.545  13.570  12.776
 8535SOL     OW27378   4.977   1.843   4.071
 8535SOL    HW127379   4.962   1.866   4.163
 8535SOL    HW227380   5.013   1.754   4.074
 8536SOL     OW27381   4.993   0.773   4.658
 8536SOL    HW127382   5.039   0.698   4.693
 8536SOL    HW227383   4.957   0.818   4.734
 8537SOL     OW27384  10.944   8.537   9.972
 8537SOL    HW127385  10.933   8.541   9.877
 8537SOL    HW227386  11.013   8.473   9.986
 8538SOL     OW27387   8.354  11.219   3.634
 8538SOL    HW127388   8.385  11.132   3.660
 8538SOL    HW227389   8.267  11.226   3.674
 8539SOL     OW27390   8.506  10.538   9.835
 8539SOL    HW127391   8.523  10.475   9.905
 8539SOL    HW227392   8.592  10.557   9.797
 8540SOL     OW27393   6.643   6.403   9.973
 8540SOL    HW127394   6.658   6.471  10.038
 8540SOL    HW227395   6.552   6.378   9.985
 8541SOL     OW27396  11.479   3.970  10.068
 8541SOL    HW127397  11.451   3.880  10.051
 8541SOL    HW227398  11.574   3.967  10.058
 8542SOL     OW27399  11.664   4.387   4.691
 8542SOL    HW127400  11.752   4.361   4.717
 8542SOL    HW227401  11.656   4.357   4.600
 8543SOL     OW27402   4.891  14.878   0.207
 8543SOL    HW127403   4.878  14.800   0.154
 8543SOL    HW227404   4.983  14.874   0.234
 8544SOL     OW27405   0.812   0.399   0.759
 8544SOL    HW127406   0.786   0.488   0.735
 8544SOL    HW227407   0.798   0.348   0.679
 8545SOL     OW27408   6.421   1.696  10.083
 8545SOL    HW127409   6.334   1.724  10.110
 8545SOL    HW227410   6.466   1.778  10.061
 8546SOL     OW27411   7.374   1.082   3.386
 8546SOL    HW127412   7.452   1.095   3.438
 8546SOL    HW227413   7.405   1.041   3.305
 8547SOL     OW27414   7.251   5.837  14.675
 8547SOL    HW127415   7.229   5.821  14.767
 8547SOL    HW227416   7.215   5.762  14.628
 8548SOL     OW27417  14.264   4.569   2.008
 8548SOL    HW127418  14.316   4.577   1.927
 8548SOL    HW227419  14.278   4.652   2.053
 8549SOL     OW27420   9.925   9.757  12.857
 8549SOL    HW127421   9.941   9.823  12.924
 8549SOL    HW227422  10.012   9.737  12.821
 8550SOL     OW27423  14.074   9.951   2.099
 8550SOL    HW127424  14.016  10.027   2.110
 8550SOL    HW227425  14.031   9.880   2.146
 8551SOL     OW27426  10.068   9.193   0.344
 8551SOL    HW127427  10.161   9.212   0.340
 8551SOL    HW227428  10.063   9.097   0.350
 8552SOL     OW27429   9.908   2.769  13.910
 8552SOL    HW127430   9.825   2.799  13.948
 8552SOL    HW227431   9.972   2.834  13.938
 8553SOL     OW27432   3.761   6.558   5.324
 8553SOL    HW127433   3.683   6.601   5.288
 8553SOL    HW227434   3.748   6.465   5.306
 8554SOL     OW27435   6.895   5.119   4.114
 8554SOL    HW127436   6.975   5.144   4.068
 8554SOL    HW227437   6.824   5.150   4.057
 8555SOL     OW27438   0.955   0.009   3.730
 8555SOL    HW127439   1.048   0.023   3.711
 8555SOL    HW227440   0.910   0.071   3.673
 8556SOL     OW27441   3.134   8.748   1.265
 8556SOL    HW127442   3.165   8.664   1.299
 8556SOL    HW227443   3.038   8.741   1.269
 8557SOL     OW27444   2.503   7.457   3.708
 8557SOL    HW127445   2.424   7.496   3.746
 8557SOL    HW227446   2.574   7.513   3.740
 8558SOL     OW27447   0.421   4.171   9.632
 8558SOL    HW127448   0.503   4.201   9.672
 8558SOL    HW227449   0.392   4.244   9.578
 8559SOL     OW27450   0.033   5.630   5.688
 8559SOL    HW127451  14.844   5.614   5.625
 8559SOL    HW227452   0.052   5.723   5.679
 8560SOL     OW27453   2.607   2.135   0.315
 8560SOL    HW127454   2.554   2.150   0.237
 8560SOL    HW227455   2.657   2.216   0.326
 8561SOL     OW27456   4.905  13.923  11.690
 8561SOL    HW127457   4.920  13.837  11.652
 8561SOL    HW227458   4.903  13.983  11.616
 8562SOL     OW27459   2.891   2.830  12.599
 8562SOL    HW127460   2.866   2.910  12.646
 8562SOL    HW227461   2.983   2.817  12.621
 8563SOL     OW27462   9.819  12.206   0.504
 8563SOL    HW127463   9.813  12.236   0.595
 8563SOL    HW227464   9.739  12.155   0.490
 8564SOL     OW27465  11.963   6.562   1.467
 8564SOL    HW127466  11.923   6.516   1.394
 8564SOL    HW227467  11.896   6.560   1.536
 8565SOL     OW27468  10.228  11.764   8.282
 8565SOL    HW127469  10.206  11.729   8.368
 8565SOL    HW227470  10.165  11.834   8.268
 8566SOL     OW27471   9.842  11.161  12.805
 8566SOL    HW127472   9.835  11.085  12.863
 8566SOL    HW227473   9.879  11.230  12.860
 8567SOL     OW27474   0.715   0.373  12.035
 8567SOL    HW127475   0.682   0.463  12.042
 8567SOL    HW227476   0.642   0.323  11.998
 8568SOL     OW27477  13.412  13.012   9.138
 8568SOL    HW127478  13.495  13.001   9.183
 8568SOL    HW227479  13.347  12.974   9.197
 8569SOL     OW27480  12.369   8.272  12.048
 8569SOL    HW127481  12.393   8.365  12.052
 8569SOL    HW227482  12.452   8.226  12.041
 8570SOL     OW27483   3.571   8.975   4.380
 8570SOL    HW127484   3.493   8.921   4.387
 8570SOL    HW227485   3.538   9.061   4.353
 8571SOL     OW27486   1.411   3.045   4.248
 8571SOL    HW127487   1.396   3.079   4.336
 8571SOL    HW227488   1.324   3.044   4.208
 8572SOL     OW27489   4.824  11.801   5.678
 8572SOL    HW127490   4.766  11.848   5.738
 8572SOL    HW227491   4.897  11.773   5.733
 8573SOL     OW27492   8.471  12.907   0.369
 8573SOL    HW127493   8.543  12.966   0.348
 8573SOL    HW227494   8.513  12.822   0.384
 8574SOL     OW27495   7.891   8.208   5.511
 8574SOL    HW127496   7.851   8.288   5.477
 8574SOL    HW227497   7.883   8.216   5.606
 8575SOL     OW27498   4.521  13.491   8.522
 8575SOL    HW127499   4.556  13.507   8.434
 8575SOL    HW227500   4.517  13.577   8.563
 8576SOL     OW27501   9.721   4.609   2.729
 8576SOL    HW127502   9.730   4.624   2.635
 8576SOL    HW227503   9.766   4.526   2.745
 8577SOL     OW27504   9.597  11.256   2.109
 8577SOL    HW127505   9.637  11.170   2.098
 8577SOL    HW227506   9.660  11.306   2.161
 8578SOL     OW27507  13.867   3.903  10.098
 8578SOL    HW127508  13.835   3.968  10.161
 8578SOL    HW227509  13.787   3.872  10.054
 8579SOL     OW27510   9.493   6.136   4.155
 8579SOL    HW127511   9.573   6.167   4.114
 8579SOL    HW227512   9.470   6.056   4.107
 8580SOL     OW27513  11.118   1.587   3.536
 8580SOL    HW127514  11.138   1.680   3.550
 8580SOL    HW227515  11.093   1.554   3.622
 8581SOL     OW27516   8.399  13.041   8.251
 8581SOL    HW127517   8.410  13.135   8.238
 8581SOL    HW227518   8.365  13.009   8.168
 8582SOL     OW27519   4.918  12.373  13.361
 8582SOL    HW127520   4.940  12.312  13.291
 8582SOL    HW227521   4.823  12.384  13.355
 8583SOL     OW27522   7.813  10.216   6.604
 8583SOL    HW127523   7.801  10.281   6.535
 8583SOL    HW227524   7.767  10.253   6.680
 8584SOL     OW27525   5.470  14.299   7.606
 8584SOL    HW127526   5.388  14.346   7.625
 8584SOL    HW227527   5.502  14.338   7.525
 8585SOL     OW27528   3.452  10.983   0.447
 8585SOL    HW127529   3.448  11.066   0.400
 8585SOL    HW227530   3.496  10.923   0.386
 8586SOL     OW27531  14.144   7.551   9.991
 8586SOL    HW127532  14.122   7.471   9.944
 8586SOL    HW227533  14.178   7.610   9.924
 8587SOL     OW27534   7.594   8.897   6.934
 8587SOL    HW127535   7.677   8.856   6.959
 8587SOL    HW227536   7.532   8.866   6.999
 8588SOL     OW27537   3.983  12.028   3.678
 8588SOL    HW127538   4.007  12.120   3.690
 8588SOL    HW227539   4.032  12.000   3.600
 8589SOL     OW27540  13.679   1.960   7.792
 8589SOL    HW127541  13.603   1.904   7.775
 8589SOL    HW227542  13.752   1.914   7.751
 8590SOL     OW27543   2.754  10.871   9.909
 8590SOL    HW127544   2.707  10.938   9.959
 8590SOL    HW227545   2.701  10.792   9.918
 8591SOL     OW27546   5.424   7.825   3.642
 8591SOL    HW127547   5.457   7.887   3.576
 8591SOL    HW227548   5.433   7.872   3.725
 8592SOL     OW27549  10.607   2.314   1.201
 8592SOL    HW127550  10.531   2.276   1.156
 8592SOL    HW227551  10.578   2.401   1.228
 8593SOL     OW27552   9.142  11.407   6.703
 8593SOL    HW127553   9.219  11.367   6.663
 8593SOL    HW227554   9.154  11.394   6.797
 8594SOL     OW27555   6.190   0.580   3.540
 8594SOL    HW127556   6.256   0.528   3.585
 8594SOL    HW227557   6.192   0.549   3.450
 8595SOL     OW27558  12.586  11.494  13.561
 8595SOL    HW127559  12.509  11.454  13.602
 8595SOL    HW227560  12.552  11.571  13.517
 8596SOL     OW27561   5.068   2.208   9.236
 8596SOL    HW127562   5.047   2.298   9.208
 8596SOL    HW227563   5.065   2.211   9.331
 8597SOL     OW27564   0.404  10.272   4.185
 8597SOL    HW127565   0.338  10.208   4.214
 8597SOL    HW227566   0.391  10.348   4.241
 8598SOL     OW27567  13.450   4.108   4.542
 8598SOL    HW127568  13.408   4.072   4.464
 8598SOL    HW227569  13.379   4.114   4.606
 8599SOL     OW27570   3.529  12.121   0.882
 8599SOL    HW127571   3.577  12.047   0.921
 8599SOL    HW227572   3.522  12.099   0.789
 8600SOL     OW27573  13.714   8.175   7.730
 8600SOL    HW127574  13.778   8.229   7.683
 8600SOL    HW227575  13.703   8.097   7.675
 8601SOL     OW27576   5.824  13.234   2.665
 8601SOL    HW127577   5.907  13.274   2.691
 8601SOL    HW227578   5.759  13.301   2.683
 8602SOL     OW27579   3.750   1.823  10.793
 8602SOL    HW127580   3.704   1.746  10.825
 8602SOL    HW227581   3.719   1.895  10.848
 8603SOL     OW27582   9.851   9.831   4.470
 8603SOL    HW127583   9.880   9.832   4.379
 8603SOL    HW227584   9.760   9.802   4.466
 8604SOL     OW27585  12.669   4.117  13.646
 8604SOL    HW127586  12.732   4.053  13.612
 8604SOL    HW227587  12.602   4.065  13.688
 8605SOL     OW27588   4.676   9.347  11.472
 8605SOL    HW127589   4.735   9.422  11.475
 8605SOL    HW227590   4.683   9.314  11.382
 8606SOL     OW27591  10.670  11.220  12.798
 8606SOL    HW127592  10.690  11.312  12.782
 8606SOL    HW227593  10.730  11.172  12.741
 8607SOL     OW27594   4.557  14.846   5.423
 8607SOL    HW127595   4.592  14.821   5.337
 8607SOL    HW227596   4.483   0.022   5.403
 8608SOL     OW27597   7.221   5.138  12.804
 8608SOL    HW127598   7.160   5.212  12.796
 8608SOL    HW227599   7.280   5.148  12.730
 8609SOL     OW27600   4.186  14.844  10.416
 8609SOL    HW127601   4.168  14.828  10.323
 8609SOL    HW227602   4.237   0.044  10.417
 8610SOL     OW27603   7.682  14.489  13.067
 8610SOL    HW127604   7.620  14.489  12.995
 8610SOL    HW227605   7.708  14.580  13.078
 8611SOL     OW27606   7.965   2.232   2.306
 8611SOL    HW127607   8.035   2.226   2.241
 8611SOL    HW227608   7.966   2.147   2.350
 8612SOL     OW27609   5.054   8.102   0.890
 8612SOL    HW127610   4.998   8.179   0.889
 8612SOL    HW227611   5.135   8.131   0.931
 8613SOL     OW27612   0.695   4.694   9.258
 8613SOL    HW127613   0.679   4.766   9.198
 8613SOL    HW227614   0.754   4.730   9.324
 8614SOL     OW27615  13.436   9.245   2.509
 8614SOL    HW127616  13.423   9.158   2.472
 8614SOL    HW227617  13.472   9.297   2.437
 8615SOL     OW27618   5.304  11.844   7.162
 8615SOL    HW127619   5.312  11.770   7.221
 8615SOL    HW227620   5.388  11.848   7.117
 8616SOL     OW27621  10.642  10.347   0.319
 8616SOL    HW127622  10.708  10.324   0.384
 8616SOL    HW227623  10.675  10.427   0.279
 8617SOL     OW27624   3.748   3.301   8.074
 8617SOL    HW127625   3.737   3.396   8.075
 8617SOL    HW227626   3.743   3.276   8.167
 8618SOL     OW27627  13.366   7.346   3.314
 8618SOL    HW127628  13.313   7.294   3.253
 8618SOL    HW227629  13.316   7.347   3.395
 8619SOL     OW27630   2.397  14.444  14.406
 8619SOL    HW127631   2.454  14.409  14.474
 8619SOL    HW227632   2.336  14.373  14.387
 8620SOL     OW27633  14.669   5.198   0.107
 8620SOL    HW127634  14.620   5.152   0.176
 8620SOL    HW227635  14.759   5.197   0.137
 8621SOL     OW27636   4.706   2.849   8.518
 8621SOL    HW127637   4.722   2.865   8.610
 8621SOL    HW227638   4.750   2.766   8.500
 8622SOL     OW27639  13.958   4.139  11.245
 8622SOL    HW127640  14.035   4.115  11.295
 8622SOL    HW227641  13.884   4.115  11.301
 8623SOL     OW27642  10.153  13.078   2.108
 8623SOL    HW127643  10.111  13.155   2.071
 8623SOL    HW227644  10.124  13.077   2.199
 8624SOL     OW27645   0.805   2.932   7.769
 8624SOL    HW127646   0.818   2.990   7.845
 8624SOL    HW227647   0.889   2.934   7.723
 8625SOL     OW27648   6.649   4.612  12.798
 8625SOL    HW127649   6.572   4.668  12.792
 8625SOL    HW227650   6.653   4.569  12.712
 8626SOL     OW27651   0.286  13.589  11.341
 8626SOL    HW127652   0.309  13.668  11.292
 8626SOL    HW227653   0.224  13.543  11.285
 8627SOL     OW27654   9.343   4.540   3.119
 8627SOL    HW127655   9.367   4.629   3.143
 8627SOL    HW227656   9.265   4.550   3.064
 8628SOL     OW27657   9.925   1.783  11.899
 8628SOL    HW127658   9.871   1.708  11.875
 8628SOL    HW227659   9.907   1.848  11.831
 8629SOL     OW27660  12.287   7.170   1.448
 8629SOL    HW127661  12.240   7.243   1.489
 8629SOL    HW227662  12.225   7.133   1.386
 8630SOL     OW27663   8.229   1.953   6.072
 8630SOL    HW127664   8.289   1.879   6.057
 8630SOL    HW227665   8.152   1.932   6.019
 8631SOL     OW27666   7.834  12.998   7.086
 8631SOL    HW127667   7.773  12.958   7.025
 8631SOL    HW227668   7.849  12.930   7.152
 8632SOL     OW27669   2.750  14.770  14.866
 8632SOL    HW127670   2.660  14.761  14.833
 8632SOL    HW227671   2.785  14.681  14.863
 8633SOL     OW27672  14.570  13.547   4.863
 8633SOL    HW127673  14.635  13.503   4.918
 8633SOL    HW227674  14.608  13.634   4.847
 8634SOL     OW27675   6.936  13.122  13.881
 8634SOL    HW127676   6.899  13.175  13.810
 8634SOL    HW227677   6.860  13.079  13.921
 8635SOL     OW27678   4.936  11.397   2.323
 8635SOL    HW127679   4.870  11.336   2.288
 8635SOL    HW227680   4.991  11.342   2.378
 8636SOL     OW27681   8.602   7.630   4.768
 8636SOL    HW127682   8.630   7.721   4.781
 8636SOL    HW227683   8.682   7.585   4.738
 8637SOL     OW27684   6.777   4.996   0.767
 8637SOL    HW127685   6.776   4.907   0.802
 8637SOL    HW227686   6.864   5.007   0.731
 8638SOL     OW27687   0.503   8.963   0.396
 8638SOL    HW127688   0.539   9.050   0.413
 8638SOL    HW227689   0.547   8.906   0.459
 8639SOL     OW27690   8.497   6.925   9.575
 8639SOL    HW127691   8.445   6.899   9.651
 8639SOL    HW227692   8.577   6.962   9.612
 8640SOL     OW27693   2.272   5.244   8.854
 8640SOL    HW127694   2.276   5.337   8.879
 8640SOL    HW227695   2.292   5.244   8.760
 8641SOL     OW27696   5.391   3.836   8.129
 8641SOL    HW127697   5.304   3.860   8.161
 8641SOL    HW227698   5.439   3.808   8.207
 8642SOL     OW27699  11.560   3.397  10.038
 8642SOL    HW127700  11.534   3.325   9.980
 8642SOL    HW227701  11.601   3.460   9.979
 8643SOL     OW27702   4.939  12.661  14.272
 8643SOL    HW127703   4.936  12.746  14.318
 8643SOL    HW227704   4.899  12.679  14.187
 8644SOL     OW27705   7.006  10.846   2.860
 8644SOL    HW127706   7.100  10.845   2.842
 8644SOL    HW227707   6.991  10.771   2.918
 8645SOL     OW27708   2.833   3.063  10.343
 8645SOL    HW127709   2.919   3.022  10.352
 8645SOL    HW227710   2.801   3.033  10.257
 8646SOL     OW27711  10.522   3.950   5.687
 8646SOL    HW127712  10.503   3.944   5.781
 8646SOL    HW227713  10.491   3.867   5.651
 8647SOL     OW27714   7.710   9.988  13.426
 8647SOL    HW127715   7.655   9.923  13.383
 8647SOL    HW227716   7.669  10.072  13.406
 8648SOL     OW27717   3.443  13.208   9.264
 8648SOL    HW127718   3.368  13.155   9.236
 8648SOL    HW227719   3.426  13.295   9.227
 8649SOL     OW27720   9.532   3.627  10.423
 8649SOL    HW127721   9.523   3.544  10.470
 8649SOL    HW227722   9.475   3.617  10.346
 8650SOL     OW27723  14.604   5.602   0.016
 8650SOL    HW127724  14.628   5.563  14.813
 8650SOL    HW227725  14.531   5.547   0.047
 8651SOL     OW27726  11.141  11.770   9.225
 8651SOL    HW127727  11.207  11.831   9.258
 8651SOL    HW227728  11.087  11.749   9.302
 8652SOL     OW27729   5.205   1.336   5.218
 8652SOL    HW127730   5.229   1.258   5.268
 8652SOL    HW227731   5.286   1.362   5.174
 8653SOL     OW27732   7.534   1.882   9.769
 8653SOL    HW127733   7.594   1.893   9.842
 8653SOL    HW227734   7.585   1.907   9.692
 8654SOL     OW27735  11.391   5.300   4.784
 8654SOL    HW127736  11.327   5.229   4.787
 8654SOL    HW227737  11.476   5.256   4.780
 8655SOL     OW27738  14.340  12.486   0.954
 8655SOL    HW127739  14.410  12.427   0.983
 8655SOL    HW227740  14.380  12.573   0.954
 8656SOL     OW27741  14.756   6.030   3.332
 8656SOL    HW127742  14.680   6.076   3.299
 8656SOL    HW227743  14.728   5.939   3.340
 8657SOL     OW27744   3.536   6.236  13.997
 8657SOL    HW127745   3.442   6.255  14.001
 8657SOL    HW227746   3.578   6.322  14.005
 8658SOL     OW27747  14.567  14.134   3.905
 8658SOL    HW127748  14.517  14.211   3.877
 8658SOL    HW227749  14.650  14.169   3.935
 8659SOL     OW27750  10.616  10.442   6.718
 8659SOL    HW127751  10.591  10.494   6.642
 8659SOL    HW227752  10.536  10.434   6.769
 8660SOL     OW27753   0.772  14.584   0.747
 8660SOL    HW127754   0.812  14.541   0.823
 8660SOL    HW227755   0.839  14.580   0.679
 8661SOL     OW27756   0.682   5.700  12.014
 8661SOL    HW127757   0.755   5.657  12.059
 8661SOL    HW227758   0.603   5.665  12.057
 8662SOL     OW27759  12.391  11.504   8.478
 8662SOL    HW127760  12.352  11.556   8.548
 8662SOL    HW227761  12.485  11.510   8.494
 8663SOL     OW27762   7.924   4.945   3.787
 8663SOL    HW127763   7.912   5.011   3.719
 8663SOL    HW227764   8.015   4.955   3.815
 8664SOL     OW27765   0.345   7.306   7.464
 8664SOL    HW127766   0.290   7.379   7.436
 8664SOL    HW227767   0.362   7.323   7.557
 8665SOL     OW27768   6.646   2.028   7.573
 8665SOL    HW127769   6.621   1.951   7.622
 8665SOL    HW227770   6.691   2.084   7.636
 8666SOL     OW27771   4.294   2.695  10.111
 8666SOL    HW127772   4.302   2.768  10.172
 8666SOL    HW227773   4.383   2.684  10.076
 8667SOL     OW27774   7.327   9.511   5.248
 8667SOL    HW127775   7.299   9.485   5.161
 8667SOL    HW227776   7.402   9.454   5.267
 8668SOL     OW27777  13.004  11.407  11.803
 8668SOL    HW127778  13.027  11.489  11.846
 8668SOL    HW227779  13.006  11.428  11.709
 8669SOL     OW27780  11.249  12.064   8.939
 8669SOL    HW127781  11.205  12.027   8.863
 8669SOL    HW227782  11.342  12.046   8.924
 8670SOL     OW27783   5.377   6.794   8.642
 8670SOL    HW127784   5.322   6.789   8.564
 8670SOL    HW227785   5.382   6.704   8.674
 8671SOL     OW27786   0.861   4.130   9.994
 8671SOL    HW127787   0.829   4.143  10.083
 8671SOL    HW227788   0.884   4.037   9.991
 8672SOL     OW27789   9.201   5.794  13.613
 8672SOL    HW127790   9.199   5.864  13.678
 8672SOL    HW227791   9.283   5.748  13.630
 8673SOL     OW27792  12.903  10.832   4.059
 8673SOL    HW127793  12.973  10.767   4.072
 8673SOL    HW227794  12.900  10.880   4.141
 8674SOL     OW27795   5.735   9.947  14.113
 8674SOL    HW127796   5.669   9.927  14.047
 8674SOL    HW227797   5.761   9.861  14.146
 8675SOL     OW27798  12.674   8.181  12.432
 8675SOL    HW127799  12.733   8.167  12.505
 8675SOL    HW227800  12.732   8.196  12.357
 8676SOL     OW27801   8.240  11.736   4.996
 8676SOL    HW127802   8.153  11.700   4.981
 8676SOL    HW227803   8.300  11.666   4.971
 8677SOL     OW27804   1.483   9.004  12.306
 8677SOL    HW127805   1.481   9.046  12.220
 8677SOL    HW227806   1.471   9.075  12.368
 8678SOL     OW27807   6.684   2.636   9.056
 8678SOL    HW127808   6.698   2.671   9.144
 8678SOL    HW227809   6.735   2.555   9.054
 8679SOL     OW27810   4.018   3.039   3.233
 8679SOL    HW127811   4.067   3.093   3.171
 8679SOL    HW227812   3.956   3.099   3.274
 8680SOL     OW27813   8.473   5.250   2.142
 8680SOL    HW127814   8.464   5.217   2.231
 8680SOL    HW227815   8.560   5.221   2.115
 8681SOL     OW27816   7.114   6.753  14.562
 8681SOL    HW127817   7.178   6.688  14.592
 8681SOL    HW227818   7.141   6.775  14.474
 8682SOL     OW27819   2.831   2.806   1.965
 8682SOL    HW127820   2.823   2.743   1.893
 8682SOL    HW227821   2.877   2.758   2.034
 8683SOL     OW27822   0.250   3.011   7.451
 8683SOL    HW127823   0.323   3.060   7.413
 8683SOL    HW227824   0.224   3.063   7.527
 8684SOL     OW27825   8.474  11.434   2.675
 8684SOL    HW127826   8.495  11.487   2.598
 8684SOL    HW227827   8.386  11.399   2.657
 8685SOL     OW27828  12.238  11.430   8.201
 8685SOL    HW127829  12.274  11.443   8.289
 8685SOL    HW227830  12.143  11.428   8.214
 8686SOL     OW27831   6.213   9.652   0.353
 8686SOL    HW127832   6.293   9.667   0.403
 8686SOL    HW227833   6.144   9.694   0.405
 8687SOL     OW27834   2.744   3.702   4.762
 8687SOL    HW127835   2.763   3.631   4.701
 8687SOL    HW227836   2.727   3.778   4.706
 8688SOL     OW27837  11.888  14.869  13.823
 8688SOL    HW127838  11.939   0.008  13.901
 8688SOL    HW227839  11.952  14.836  13.760
 8689SOL     OW27840   0.034   6.031   4.719
 8689SOL    HW127841   0.077   6.007   4.801
 8689SOL    HW227842  14.824   6.044   4.743
 8690SOL     OW27843   2.553   0.120  14.505
 8690SOL    HW127844   2.516   0.035  14.531
 8690SOL    HW227845   2.587   0.157  14.587
 8691SOL     OW27846  11.165   7.877   1.933
 8691SOL    HW127847  11.212   7.848   2.011
 8691SOL    HW227848  11.231   7.924   1.882
 8692SOL     OW27849  11.022   9.932   9.863
 8692SOL    HW127850  10.941   9.928   9.914
 8692SOL    HW227851  11.051   9.841   9.858
 8693SOL     OW27852  12.581   5.595  13.639
 8693SOL    HW127853  12.509   5.567  13.583
 8693SOL    HW227854  12.630   5.515  13.656
 8694SOL     OW27855  12.964   7.471   4.791
 8694SOL    HW127856  12.958   7.451   4.884
 8694SOL    HW227857  12.920   7.397   4.748
 8695SOL     OW27858   5.976   1.512   3.970
 8695SOL    HW127859   5.999   1.538   4.059
 8695SOL    HW227860   6.001   1.587   3.916
 8696SOL     OW27861   3.244   0.767  10.589
 8696SOL    HW127862   3.155   0.801  10.599
 8696SOL    HW227863   3.276   0.805  10.507
 8697SOL     OW27864   2.839  11.852  14.236
 8697SOL    HW127865   2.880  11.817  14.157
 8697SOL    HW227866   2.910  11.858  14.299
 8698SOL     OW27867   7.054   5.437   3.999
 8698SOL    HW127868   6.966   5.472   3.983
 8698SOL    HW227869   7.101   5.508   4.043
 8699SOL     OW27870  13.167  13.720   3.446
 8699SOL    HW127871  13.242  13.779   3.437
 8699SOL    HW227872  13.122  13.725   3.361
 8700SOL     OW27873  13.439   2.540  10.443
 8700SOL    HW127874  13.439   2.629  10.407
 8700SOL    HW227875  13.346   2.523  10.461
 8701SOL     OW27876   1.702   0.049   7.191
 8701SOL    HW127877   1.656   0.124   7.152
 8701SOL    HW227878   1.635   0.004   7.243
 8702SOL     OW27879   1.949   1.171   0.445
 8702SOL    HW127880   1.923   1.091   0.491
 8702SOL    HW227881   1.887   1.179   0.373
 8703SOL     OW27882  13.018   6.987   3.118
 8703SOL    HW127883  12.997   6.941   3.037
 8703SOL    HW227884  12.946   7.049   3.130
 8704SOL     OW27885  12.881   3.088   3.213
 8704SOL    HW127886  12.962   3.082   3.262
 8704SOL    HW227887  12.831   3.156   3.258
 8705SOL     OW27888   0.448  14.602  14.545
 8705SOL    HW127889   0.421  14.687  14.580
 8705SOL    HW227890   0.463  14.548  14.623
 8706SOL     OW27891   5.945   2.508   8.978
 8706SOL    HW127892   5.896   2.543   9.052
 8706SOL    HW227893   5.912   2.419   8.967
 8707SOL     OW27894   0.123   4.181   1.652
 8707SOL    HW127895   0.124   4.168   1.557
 8707SOL    HW227896   0.043   4.136   1.681
 8708SOL     OW27897   6.405   8.603   8.421
 8708SOL    HW127898   6.460   8.615   8.344
 8708SOL    HW227899   6.464   8.617   8.495
 8709SOL     OW27900  11.461  11.246  10.560
 8709SOL    HW127901  11.372  11.239  10.592
 8709SOL    HW227902  11.502  11.163  10.583
 8710SOL     OW27903   8.459   7.436  14.245
 8710SOL    HW127904   8.425   7.483  14.321
 8710SOL    HW227905   8.537   7.390  14.277
 8711SOL     OW27906  12.090  13.063   2.685
 8711SOL    HW127907  12.129  13.065   2.598
 8711SOL    HW227908  12.015  13.003   2.677
 8712SOL     OW27909  11.500  10.745  13.892
 8712SOL    HW127910  11.444  10.769  13.967
 8712SOL    HW227911  11.566  10.687  13.930
 8713SOL     OW27912  10.986   2.905   4.182
 8713SOL    HW127913  10.917   2.845   4.210
 8713SOL    HW227914  11.020   2.942   4.263
 8714SOL     OW27915   1.700  11.893  12.404
 8714SOL    HW127916   1.676  11.985  12.391
 8714SOL    HW227917   1.790  11.887  12.371
 8715SOL     OW27918  14.111  13.025  13.750
 8715SOL    HW127919  14.082  13.113  13.774
 8715SOL    HW227920  14.097  13.020  13.655
 8716SOL     OW27921  14.795   0.391   8.237
 8716SOL    HW127922  14.726   0.411   8.174
 8716SOL    HW227923  14.764   0.428   8.320
 8717SOL     OW27924   5.807  11.873   6.415
 8717SOL    HW127925   5.852  11.826   6.485
 8717SOL    HW227926   5.842  11.962   6.420
 8718SOL     OW27927   7.233  12.365   3.739
 8718SOL    HW127928   7.256  12.391   3.650
 8718SOL    HW227929   7.213  12.272   3.733
 8719SOL     OW27930   5.946   2.440   5.167
 8719SOL    HW127931   5.882   2.423   5.098
 8719SOL    HW227932   6.025   2.468   5.120
 8720SOL     OW27933   9.968  12.474  14.849
 8720SOL    HW127934   9.943  12.403  14.791
 8720SOL    HW227935  10.026  12.529  14.796
 8721SOL     OW27936  11.110  11.478   5.809
 8721SOL    HW127937  11.165  11.510   5.881
 8721SOL    HW227938  11.162  11.408   5.769
 8722SOL     OW27939  11.393  14.628   8.068
 8722SOL    HW127940  11.474  14.680   8.070
 8722SOL    HW227941  11.369  14.618   8.160
 8723SOL     OW27942  14.588  11.597   0.755
 8723SOL    HW127943  14.617  11.572   0.667
 8723SOL    HW227944  14.659  11.568   0.813
 8724SOL     OW27945   7.051   4.492  12.146
 8724SOL    HW127946   7.064   4.405  12.109
 8724SOL    HW227947   7.037   4.476  12.240
 8725SOL     OW27948   9.668   3.886   3.376
 8725SOL    HW127949   9.623   3.919   3.298
 8725SOL    HW227950   9.700   3.965   3.421
 8726SOL     OW27951  13.296   8.812   8.264
 8726SOL    HW127952  13.243   8.796   8.342
 8726SOL    HW227953  13.364   8.872   8.293
 8727SOL     OW27954   5.281   9.392  10.171
 8727SOL    HW127955   5.284   9.422  10.262
 8727SOL    HW227956   5.316   9.465  10.121
 8728SOL     OW27957  10.280   1.976  12.532
 8728SOL    HW127958  10.196   1.963  12.576
 8728SOL    HW227959  10.332   1.899  12.554
 8729SOL     OW27960   7.280  13.344  14.191
 8729SOL    HW127961   7.247  13.434  14.187
 8729SOL    HW227962   7.340  13.337  14.117
 8730SOL     OW27963   6.211  13.973   2.921
 8730SOL    HW127964   6.174  14.035   2.984
 8730SOL    HW227965   6.160  13.986   2.841
 8731SOL     OW27966   0.711   2.815   8.512
 8731SOL    HW127967   0.639   2.855   8.560
 8731SOL    HW227968   0.689   2.722   8.507
 8732SOL     OW27969   4.012   4.285  14.481
 8732SOL    HW127970   4.001   4.272  14.575
 8732SOL    HW227971   4.061   4.367  14.473
 8733SOL     OW27972   0.347  12.442   7.393
 8733SOL    HW127973   0.267  12.479   7.433
 8733SOL    HW227974   0.315  12.391   7.319
 8734SOL     OW27975   6.865  12.922   8.830
 8734SOL    HW127976   6.902  12.874   8.905
 8734SOL    HW227977   6.874  12.861   8.757
 8735SOL     OW27978  11.318  13.375   0.752
 8735SOL    HW127979  11.311  13.404   0.843
 8735SOL    HW227980  11.271  13.442   0.702
 8736SOL     OW27981  12.302   2.813  10.635
 8736SOL    HW127982  12.261   2.840  10.553
 8736SOL    HW227983  12.358   2.887  10.659
 8737SOL     OW27984   7.843   4.877   3.351
 8737SOL    HW127985   7.839   4.946   3.418
 8737SOL    HW227986   7.892   4.917   3.279
 8738SOL     OW27987   7.242   4.319   1.484
 8738SOL    HW127988   7.160   4.273   1.498
 8738SOL    HW227989   7.306   4.272   1.537
 8739SOL     OW27990   4.301   0.315   6.781
 8739SOL    HW127991   4.287   0.409   6.774
 8739SOL    HW227992   4.383   0.307   6.830
 8740SOL     OW27993   1.816   6.694  14.687
 8740SOL    HW127994   1.860   6.671  14.606
 8740SOL    HW227995   1.770   6.614  14.713
 8741SOL     OW27996   6.833   0.243   1.458
 8741SOL    HW127997   6.744   0.231   1.493
 8741SOL    HW227998   6.828   0.212   1.368
 8742SOL     OW27999   2.233   7.124  11.598
 8742SOL    HW128000   2.226   7.210  11.557
 8742SOL    HW228001   2.305   7.133  11.661
 8743SOL     OW28002   9.592   5.432   5.969
 8743SOL    HW128003   9.653   5.460   6.038
 8743SOL    HW228004   9.601   5.499   5.901
 8744SOL     OW28005   2.544   7.007   7.823
 8744SOL    HW128006   2.596   6.936   7.786
 8744SOL    HW228007   2.463   7.007   7.771
 8745SOL     OW28008  12.728   4.689   6.241
 8745SOL    HW128009  12.761   4.770   6.202
 8745SOL    HW228010  12.706   4.633   6.166
 8746SOL     OW28011   8.104   7.150  13.224
 8746SOL    HW128012   8.143   7.183  13.305
 8746SOL    HW228013   8.124   7.056  13.225
 8747SOL     OW28014   7.709   7.871   9.271
 8747SOL    HW128015   7.735   7.957   9.304
 8747SOL    HW228016   7.644   7.891   9.204
 8748SOL     OW28017   8.433   8.434   4.912
 8748SOL    HW128018   8.505   8.390   4.956
 8748SOL    HW228019   8.400   8.497   4.976
 8749SOL     OW28020   4.018   3.252  10.732
 8749SOL    HW128021   4.088   3.263  10.668
 8749SOL    HW228022   3.939   3.239  10.679
 8750SOL     OW28023   7.930  12.020  14.464
 8750SOL    HW128024   7.840  12.025  14.432
 8750SOL    HW228025   7.928  12.066  14.548
 8751SOL     OW28026   9.970  12.901   4.729
 8751SOL    HW128027   9.883  12.941   4.718
 8751SOL    HW228028  10.028  12.953   4.674
 8752SOL     OW28029  11.177  14.409   6.004
 8752SOL    HW128030  11.215  14.472   5.942
 8752SOL    HW228031  11.101  14.373   5.958
 8753SOL     OW28032  10.450   8.988   6.610
 8753SOL    HW128033  10.531   8.974   6.659
 8753SOL    HW228034  10.402   8.905   6.619
 8754SOL     OW28035   3.684   8.521   1.726
 8754SOL    HW128036   3.675   8.615   1.709
 8754SOL    HW228037   3.657   8.479   1.644
 8755SOL     OW28038  12.229   5.098   7.657
 8755SOL    HW128039  12.220   5.179   7.708
 8755SOL    HW228040  12.154   5.045   7.683
 8756SOL     OW28041   9.879  11.365   9.236
 8756SOL    HW128042   9.906  11.420   9.310
 8756SOL    HW228043   9.897  11.419   9.159
 8757SOL     OW28044   1.704   0.346  13.846
 8757SOL    HW128045   1.682   0.432  13.881
 8757SOL    HW228046   1.687   0.353  13.752
 8758SOL     OW28047  10.196   2.355  11.232
 8758SOL    HW128048  10.200   2.270  11.189
 8758SOL    HW228049  10.264   2.407  11.188
 8759SOL     OW28050   2.041  13.168   9.934
 8759SOL    HW128051   2.117  13.226   9.941
 8759SOL    HW228052   2.028  13.155   9.840
 8760SOL     OW28053   0.321   3.385  12.316
 8760SOL    HW128054   0.407   3.427  12.314
 8760SOL    HW228055   0.339   3.292  12.300
 8761SOL     OW28056   0.598  10.024  13.031
 8761SOL    HW128057   0.670  10.081  13.004
 8761SOL    HW228058   0.542  10.079  13.086
 8762SOL     OW28059   2.978  13.699   5.011
 8762SOL    HW128060   3.007  13.631   5.072
 8762SOL    HW228061   2.971  13.654   4.927
 8763SOL     OW28062   5.843   9.423   5.301
 8763SOL    HW128063   5.759   9.432   5.256
 8763SOL    HW228064   5.873   9.513   5.314
 8764SOL     OW28065   2.951   0.746  14.584
 8764SOL    HW128066   3.027   0.761  14.640
 8764SOL    HW228067   2.971   0.791  14.502
 8765SOL     OW28068   4.675   1.068   5.891
 8765SOL    HW128069   4.768   1.090   5.887
 8765SOL    HW228070   4.672   0.973   5.897
 8766SOL     OW28071  14.562   5.829  12.464
 8766SOL    HW128072  14.593   5.767  12.530
 8766SOL    HW228073  14.468   5.838  12.483
 8767SOL     OW28074   1.016   3.553   0.580
 8767SOL    HW128075   1.083   3.621   0.586
 8767SOL    HW228076   1.063   3.471   0.593
 8768SOL     OW28077   6.545  10.761   5.979
 8768SOL    HW128078   6.530  10.849   5.944
 8768SOL    HW228079   6.568  10.775   6.071
 8769SOL     OW28080   4.868  12.143   8.284
 8769SOL    HW128081   4.914  12.163   8.203
 8769SOL    HW228082   4.804  12.077   8.260
 8770SOL     OW28083   5.322   4.462   1.357
 8770SOL    HW128084   5.360   4.409   1.287
 8770SOL    HW228085   5.394   4.478   1.417
 8771SOL     OW28086   3.035  10.971   2.887
 8771SOL    HW128087   3.033  10.962   2.792
 8771SOL    HW228088   3.050  11.064   2.902
 8772SOL     OW28089  10.912   8.324   6.581
 8772SOL    HW128090  10.953   8.308   6.665
 8772SOL    HW228091  10.981   8.306   6.517
 8773SOL     OW28092   0.922  11.800   0.047
 8773SOL    HW128093   0.929  11.846   0.131
 8773SOL    HW228094   0.996  11.833  14.876
 8774SOL     OW28095   8.717   1.281   3.322
 8774SOL    HW128096   8.644   1.307   3.378
 8774SOL    HW228097   8.795   1.311   3.369
 8775SOL     OW28098  12.025  13.032  12.991
 8775SOL    HW128099  12.097  13.063  12.935
 8775SOL    HW228100  12.003  12.946  12.956
 8776SOL     OW28101   4.226   2.755   1.426
 8776SOL    HW128102   4.284   2.830   1.439
 8776SOL    HW228103   4.168   2.756   1.503
 8777SOL     OW28104   6.470  13.256   7.404
 8777SOL    HW128105   6.443  13.165   7.389
 8777SOL    HW228106   6.485  13.292   7.317
 8778SOL     OW28107   5.822   6.237   8.438
 8778SOL    HW128108   5.879   6.300   8.394
 8778SOL    HW228109   5.752   6.220   8.375
 8779SOL     OW28110   1.372   7.102   2.234
 8779SOL    HW128111   1.308   7.156   2.280
 8779SOL    HW228112   1.351   7.012   2.261
 8780SOL     OW28113   5.140   5.012  11.289
 8780SOL    HW128114   5.177   5.055  11.366
 8780SOL    HW228115   5.097   4.934  11.323
 8781SOL     OW28116   1.487  12.342   0.927
 8781SOL    HW128117   1.539  12.264   0.909
 8781SOL    HW228118   1.399  12.319   0.894
 8782SOL     OW28119   8.210   0.528  10.129
 8782SOL    HW128120   8.305   0.522  10.119
 8782SOL    HW228121   8.176   0.533  10.040
 8783SOL     OW28122  14.475   5.269   7.112
 8783SOL    HW128123  14.381   5.278   7.097
 8783SOL    HW228124  14.514   5.335   7.055
 8784SOL     OW28125   4.794   7.420   9.074
 8784SOL    HW128126   4.877   7.394   9.032
 8784SOL    HW228127   4.785   7.513   9.052
 8785SOL     OW28128   4.130   4.657  12.738
 8785SOL    HW128129   4.099   4.650  12.648
 8785SOL    HW228130   4.109   4.747  12.764
 8786SOL     OW28131  12.947   4.325   7.557
 8786SOL    HW128132  12.944   4.303   7.464
 8786SOL    HW228133  12.860   4.305   7.590
 8787SOL     OW28134   2.701   0.704   6.268
 8787SOL    HW128135   2.697   0.674   6.178
 8787SOL    HW228136   2.683   0.627   6.321
 8788SOL     OW28137  11.078  13.287   5.528
 8788SOL    HW128138  11.159  13.300   5.480
 8788SOL    HW228139  11.016  13.253   5.463
 8789SOL     OW28140   6.899  14.817  12.190
 8789SOL    HW128141   6.993  14.812  12.170
 8789SOL    HW228142   6.883   0.029  12.203
 8790SOL     OW28143   9.040  12.259   4.731
 8790SOL    HW128144   9.025  12.174   4.689
 8790SOL    HW228145   9.110  12.300   4.679
 8791SOL     OW28146   1.312   4.695  13.901
 8791SOL    HW128147   1.235   4.640  13.915
 8791SOL    HW228148   1.386   4.639  13.924
 8792SOL     OW28149   2.422   9.342   3.302
 8792SOL    HW128150   2.439   9.434   3.319
 8792SOL    HW228151   2.480   9.320   3.229
 8793SOL     OW28152   1.947   9.727   9.493
 8793SOL    HW128153   1.972   9.637   9.512
 8793SOL    HW228154   1.969   9.775   9.573
 8794SOL     OW28155   8.286  13.686   5.882
 8794SOL    HW128156   8.338  13.650   5.810
 8794SOL    HW228157   8.199  13.700   5.843
 8795SOL     OW28158   8.252  10.348   8.092
 8795SOL    HW128159   8.329  10.391   8.131
 8795SOL    HW228160   8.193  10.334   8.166
 8796SOL     OW28161   7.946  14.825  13.641
 8796SOL    HW128162   7.858  14.850  13.614
 8796SOL    HW228163   7.980   0.021  13.686
 8797SOL     OW28164  12.790   4.112  12.781
 8797SOL    HW128165  12.725   4.181  12.768
 8797SOL    HW228166  12.863   4.137  12.724
 8798SOL     OW28167   7.966  10.820   3.277
 8798SOL    HW128168   8.021  10.872   3.219
 8798SOL    HW228169   7.978  10.730   3.247
 8799SOL     OW28170  11.919   4.025   1.425
 8799SOL    HW128171  11.874   4.023   1.341
 8799SOL    HW228172  11.872   3.961   1.479
 8800SOL     OW28173  11.159   3.676   6.242
 8800SOL    HW128174  11.166   3.637   6.329
 8800SOL    HW228175  11.243   3.657   6.200
 8801SOL     OW28176  12.064   0.314   4.900
 8801SOL    HW128177  12.003   0.263   4.952
 8801SOL    HW228178  12.015   0.336   4.820
 8802SOL     OW28179  11.382   9.415   2.464
 8802SOL    HW128180  11.355   9.496   2.508
 8802SOL    HW228181  11.413   9.359   2.535
 8803SOL     OW28182   8.692   7.319   7.443
 8803SOL    HW128183   8.749   7.256   7.487
 8803SOL    HW228184   8.618   7.267   7.412
 8804SOL     OW28185  12.641   3.612   1.717
 8804SOL    HW128186  12.718   3.663   1.740
 8804SOL    HW228187  12.669   3.521   1.724
 8805SOL     OW28188  14.777  12.569   3.078
 8805SOL    HW128189  14.861  12.602   3.048
 8805SOL    HW228190  14.715  12.639   3.058
 8806SOL     OW28191   1.474  14.315   7.411
 8806SOL    HW128192   1.380  14.316   7.389
 8806SOL    HW228193   1.501  14.406   7.407
 8807SOL     OW28194   0.884   5.162   5.972
 8807SOL    HW128195   0.849   5.074   5.955
 8807SOL    HW228196   0.815   5.221   5.942
 8808SOL     OW28197   9.015   4.449  13.245
 8808SOL    HW128198   8.927   4.486  13.240
 8808SOL    HW228199   9.003   4.356  13.223
 8809SOL     OW28200  12.109   5.597   9.991
 8809SOL    HW128201  12.060   5.679   9.990
 8809SOL    HW228202  12.051   5.534  10.033
 8810SOL     OW28203  13.566  14.664   5.697
 8810SOL    HW128204  13.593  14.598   5.761
 8810SOL    HW228205  13.607  14.636   5.615
 8811SOL     OW28206   5.727   4.254  12.158
 8811SOL    HW128207   5.807   4.242  12.210
 8811SOL    HW228208   5.754   4.311  12.087
 8812SOL     OW28209   0.348  12.325  11.164
 8812SOL    HW128210   0.439  12.325  11.133
 8812SOL    HW228211   0.317  12.237  11.145
 8813SOL     OW28212  13.055   3.707   1.033
 8813SOL    HW128213  13.000   3.775   0.993
 8813SOL    HW228214  13.139   3.750   1.048
 8814SOL     OW28215  10.102   6.005   9.601
 8814SOL    HW128216  10.094   5.963   9.686
 8814SOL    HW228217  10.196   6.003   9.582
 8815SOL     OW28218   9.840   9.326  14.532
 8815SOL    HW128219   9.818   9.419  14.524
 8815SOL    HW228220   9.779   9.293  14.598
 8816SOL     OW28221   8.437   1.253   1.821
 8816SOL    HW128222   8.394   1.175   1.855
 8816SOL    HW228223   8.447   1.236   1.727
 8817SOL     OW28224   9.330   9.663  13.443
 8817SOL    HW128225   9.246   9.647  13.400
 8817SOL    HW228226   9.309   9.668  13.536
 8818SOL     OW28227  14.628   6.793  10.443
 8818SOL    HW128228  14.618   6.857  10.514
 8818SOL    HW228229  14.574   6.827  10.372
 8819SOL     OW28230  14.165   3.927   4.178
 8819SOL    HW128231  14.230   3.887   4.120
 8819SOL    HW228232  14.096   3.860   4.186
 8820SOL     OW28233   0.882   7.898   7.794
 8820SOL    HW128234   0.894   7.989   7.820
 8820SOL    HW228235   0.964   7.855   7.818
 8821SOL     OW28236   2.616   4.884  11.659
 8821SOL    HW128237   2.688   4.921  11.608
 8821SOL    HW228238   2.621   4.928  11.743
 8822SOL     OW28239   2.755  10.443   6.681
 8822SOL    HW128240   2.816  10.371   6.663
 8822SOL    HW228241   2.703  10.452   6.601
 8823SOL     OW28242   2.422   7.354  14.392
 8823SOL    HW128243   2.393   7.302  14.317
 8823SOL    HW228244   2.511   7.379  14.370
 8824SOL     OW28245  13.393   1.506   1.553
 8824SOL    HW128246  13.469   1.448   1.555
 8824SOL    HW228247  13.349   1.485   1.470
 8825SOL     OW28248  14.392   0.381  13.067
 8825SOL    HW128249  14.483   0.409  13.056
 8825SOL    HW228250  14.399   0.297  13.112
 8826SOL     OW28251  10.560  10.322   8.902
 8826SOL    HW128252  10.483  10.306   8.957
 8826SOL    HW228253  10.553  10.414   8.875
 8827SOL     OW28254   3.905   7.348  13.778
 8827SOL    HW128255   3.939   7.433  13.748
 8827SOL    HW228256   3.935   7.341  13.869
 8828SOL     OW28257   8.357   4.519  11.185
 8828SOL    HW128258   8.406   4.439  11.167
 8828SOL    HW228259   8.377   4.576  11.110
 8829SOL     OW28260   7.211   1.353  10.929
 8829SOL    HW128261   7.176   1.441  10.946
 8829SOL    HW228262   7.133   1.298  10.919
 8830SOL     OW28263  14.689   6.919   4.252
 8830SOL    HW128264  14.701   6.824   4.256
 8830SOL    HW228265  14.769   6.955   4.290
 8831SOL     OW28266  10.756   1.743  10.586
 8831SOL    HW128267  10.745   1.837  10.603
 8831SOL    HW228268  10.709   1.729  10.504
 8832SOL     OW28269   1.271   9.300  10.911
 8832SOL    HW128270   1.362   9.273  10.923
 8832SOL    HW228271   1.228   9.272  10.992
 8833SOL     OW28272   3.758   8.710  12.235
 8833SOL    HW128273   3.797   8.665  12.310
 8833SOL    HW228274   3.831   8.755  12.194
 8834SOL     OW28275  10.896   5.776   1.699
 8834SOL    HW128276  10.859   5.751   1.614
 8834SOL    HW228277  10.906   5.693   1.745
 8835SOL     OW28278   9.232  12.329   4.161
 8835SOL    HW128279   9.306  12.389   4.168
 8835SOL    HW228280   9.271  12.242   4.173
 8836SOL     OW28281   3.492   7.694   5.628
 8836SOL    HW128282   3.485   7.693   5.723
 8836SOL    HW228283   3.542   7.773   5.608
 8837SOL     OW28284   7.101   3.382   2.523
 8837SOL    HW128285   7.143   3.343   2.600
 8837SOL    HW228286   7.137   3.471   2.519
 8838SOL     OW28287   3.903  11.902   3.890
 8838SOL    HW128288   3.961  11.945   3.953
 8838SOL    HW228289   3.918  11.951   3.808
 8839SOL     OW28290  10.334  10.574  10.130
 8839SOL    HW128291  10.259  10.607  10.080
 8839SOL    HW228292  10.296  10.540  10.211
 8840SOL     OW28293   0.182   4.322   2.766
 8840SOL    HW128294   0.215   4.252   2.822
 8840SOL    HW228295   0.222   4.304   2.681
 8841SOL     OW28296   7.456  12.901   4.102
 8841SOL    HW128297   7.364  12.915   4.081
 8841SOL    HW228298   7.478  12.971   4.164
 8842SOL     OW28299   3.142  14.604   9.600
 8842SOL    HW128300   3.143  14.567   9.512
 8842SOL    HW228301   3.059  14.650   9.606
 8843SOL     OW28302   3.649  14.710  13.440
 8843SOL    HW128303   3.608  14.783  13.395
 8843SOL    HW228304   3.630  14.634  13.385
 8844SOL     OW28305   1.457   5.343   7.733
 8844SOL    HW128306   1.552   5.332   7.743
 8844SOL    HW228307   1.427   5.370   7.820
 8845SOL     OW28308  13.597   0.491   0.097
 8845SOL    HW128309  13.553   0.502   0.181
 8845SOL    HW228310  13.534   0.523   0.032
 8846SOL     OW28311   9.105   9.937   3.213
 8846SOL    HW128312   9.111   9.976   3.125
 8846SOL    HW228313   9.014   9.951   3.239
 8847SOL     OW28314   2.624  11.597   1.896
 8847SOL    HW128315   2.636  11.676   1.949
 8847SOL    HW228316   2.654  11.622   1.809
 8848SOL     OW28317   7.474   1.272  11.032
 8848SOL    HW128318   7.409   1.246  10.967
 8848SOL    HW228319   7.475   1.368  11.029
 8849SOL     OW28320   8.848   6.272   1.299
 8849SOL    HW128321   8.786   6.338   1.331
 8849SOL    HW228322   8.921   6.276   1.361
 8850SOL     OW28323  10.295  14.464  14.115
 8850SOL    HW128324  10.386  14.436  14.113
 8850SOL    HW228325  10.247  14.394  14.071
 8851SOL     OW28326  10.232  10.223   6.696
 8851SOL    HW128327  10.211  10.266   6.778
 8851SOL    HW228328  10.187  10.139   6.700
 8852SOL     OW28329   3.891  10.360  13.733
 8852SOL    HW128330   3.813  10.407  13.704
 8852SOL    HW228331   3.881  10.352  13.828
 8853SOL     OW28332   9.555   1.713   3.025
 8853SOL    HW128333   9.538   1.656   3.101
 8853SOL    HW228334   9.547   1.802   3.060
 8854SOL     OW28335  10.726   2.742   6.446
 8854SOL    HW128336  10.758   2.671   6.503
 8854SOL    HW228337  10.790   2.747   6.375
 8855SOL     OW28338  14.464   4.974   8.120
 8855SOL    HW128339  14.474   4.944   8.030
 8855SOL    HW228340  14.445   4.895   8.170
 8856SOL     OW28341  14.082   6.212  13.885
 8856SOL    HW128342  14.050   6.255  13.806
 8856SOL    HW228343  14.040   6.126  13.884
 8857SOL     OW28344   1.318   3.703   2.426
 8857SOL    HW128345   1.242   3.758   2.446
 8857SOL    HW228346   1.294   3.658   2.345
 8858SOL     OW28347  10.129   3.963  11.113
 8858SOL    HW128348  10.164   4.050  11.134
 8858SOL    HW228349  10.045   3.981  11.070
 8859SOL     OW28350   8.892  12.586  13.630
 8859SOL    HW128351   8.863  12.670  13.666
 8859SOL    HW228352   8.954  12.610  13.561
 8860SOL     OW28353  10.151  12.644   8.550
 8860SOL    HW128354  10.109  12.559   8.562
 8860SOL    HW228355  10.237  12.635   8.591
 8861SOL     OW28356   3.550   8.737  13.524
 8861SOL    HW128357   3.637   8.769  13.544
 8861SOL    HW228358   3.564   8.646  13.497
 8862SOL     OW28359   7.868  13.726  11.550
 8862SOL    HW128360   7.825  13.768  11.476
 8862SOL    HW228361   7.929  13.664  11.510
 8863SOL     OW28362  11.531  10.104   1.420
 8863SOL    HW128363  11.517  10.199   1.417
 8863SOL    HW228364  11.611  10.090   1.369
 8864SOL     OW28365   0.806  10.607  13.100
 8864SOL    HW128366   0.793  10.646  13.186
 8864SOL    HW228367   0.859  10.529  13.117
 8865SOL     OW28368  13.198  10.417  10.779
 8865SOL    HW128369  13.221  10.507  10.804
 8865SOL    HW228370  13.283  10.372  10.771
 8866SOL     OW28371   2.117   4.364   0.715
 8866SOL    HW128372   2.211   4.378   0.728
 8866SOL    HW228373   2.076   4.408   0.789
 8867SOL     OW28374   6.824   4.756  14.778
 8867SOL    HW128375   6.731   4.771  14.760
 8867SOL    HW228376   6.825   4.690  14.847
 8868SOL     OW28377  11.302   9.835   4.246
 8868SOL    HW128378  11.304   9.840   4.150
 8868SOL    HW228379  11.267   9.920   4.273
 8869SOL     OW28380   2.961   2.803  13.427
 8869SOL    HW128381   3.042   2.753  13.439
 8869SOL    HW228382   2.985   2.893  13.446
 8870SOL     OW28383  10.531  12.371   6.629
 8870SOL    HW128384  10.562  12.301   6.572
 8870SOL    HW228385  10.486  12.431   6.571
 8871SOL     OW28386   5.828   7.714   1.246
 8871SOL    HW128387   5.793   7.707   1.335
 8871SOL    HW228388   5.823   7.625   1.212
 8872SOL     OW28389   2.497   7.068   9.490
 8872SOL    HW128390   2.412   7.110   9.508
 8872SOL    HW228391   2.556   7.106   9.555
 8873SOL     OW28392   7.510  12.299   8.000
 8873SOL    HW128393   7.494  12.249   7.920
 8873SOL    HW228394   7.547  12.235   8.061
 8874SOL     OW28395   4.121  14.477   2.881
 8874SOL    HW128396   4.191  14.412   2.884
 8874SOL    HW228397   4.108  14.492   2.787
 8875SOL     OW28398   2.168  13.768   4.233
 8875SOL    HW128399   2.131  13.856   4.242
 8875SOL    HW228400   2.094  13.714   4.205
 8876SOL     OW28401   4.057   1.390  13.970
 8876SOL    HW128402   4.026   1.434  14.049
 8876SOL    HW228403   4.049   1.297  13.989
 8877SOL     OW28404   7.717  14.118   8.235
 8877SOL    HW128405   7.788  14.085   8.181
 8877SOL    HW228406   7.743  14.098   8.325
 8878SOL     OW28407   0.428  10.109   2.848
 8878SOL    HW128408   0.473  10.156   2.917
 8878SOL    HW228409   0.336  10.137   2.855
 8879SOL     OW28410   5.088   1.873   2.060
 8879SOL    HW128411   5.138   1.794   2.084
 8879SOL    HW228412   5.123   1.898   1.975
 8880SOL     OW28413  14.345  13.809   8.707
 8880SOL    HW128414  14.316  13.873   8.643
 8880SOL    HW228415  14.299  13.728   8.683
 8881SOL     OW28416   6.224   6.729   0.283
 8881SOL    HW128417   6.145   6.759   0.329
 8881SOL    HW228418   6.225   6.780   0.202
 8882SOL     OW28419   7.503  12.887   4.492
 8882SOL    HW128420   7.599  12.891   4.500
 8882SOL    HW228421   7.471  12.923   4.575
 8883SOL     OW28422  10.768  12.194  12.316
 8883SOL    HW128423  10.850  12.241  12.302
 8883SOL    HW228424  10.715  12.214  12.239
 8884SOL     OW28425  12.924   1.217   1.171
 8884SOL    HW128426  12.977   1.239   1.095
 8884SOL    HW228427  12.963   1.137   1.207
 8885SOL     OW28428   0.378   0.733   1.340
 8885SOL    HW128429   0.348   0.813   1.383
 8885SOL    HW228430   0.455   0.706   1.391
 8886SOL     OW28431   3.231   5.063   1.993
 8886SOL    HW128432   3.322   5.039   2.011
 8886SOL    HW228433   3.181   4.984   2.014
 8887SOL     OW28434   9.837   6.287   3.346
 8887SOL    HW128435   9.815   6.216   3.286
 8887SOL    HW228436   9.895   6.247   3.411
 8888SOL     OW28437  11.906  13.135   0.541
 8888SOL    HW128438  11.930  13.183   0.462
 8888SOL    HW228439  11.856  13.060   0.509
 8889SOL     OW28440   9.323   3.178   0.857
 8889SOL    HW128441   9.271   3.167   0.778
 8889SOL    HW228442   9.311   3.097   0.906
 8890SOL     OW28443   8.152   5.868   5.601
 8890SOL    HW128444   8.206   5.843   5.676
 8890SOL    HW228445   8.063   5.871   5.637
 8891SOL     OW28446   2.184   5.202   5.411
 8891SOL    HW128447   2.120   5.265   5.378
 8891SOL    HW228448   2.261   5.255   5.432
 8892SOL     OW28449  11.450   9.558   6.988
 8892SOL    HW128450  11.394   9.620   7.034
 8892SOL    HW228451  11.448   9.479   7.042
 8893SOL     OW28452   7.975  10.574  11.841
 8893SOL    HW128453   7.941  10.573  11.931
 8893SOL    HW228454   7.962  10.664  11.811
 8894SOL     OW28455   4.399   7.851  12.095
 8894SOL    HW128456   4.434   7.870  12.182
 8894SOL    HW228457   4.474   7.860  12.036
 8895SOL     OW28458   3.585   0.123   0.981
 8895SOL    HW128459   3.503   0.100   1.024
 8895SOL    HW228460   3.639   0.159   1.051
 8896SOL     OW28461   2.261  10.898   0.358
 8896SOL    HW128462   2.352  10.870   0.367
 8896SOL    HW228463   2.241  10.942   0.440
 8897SOL     OW28464   0.751   7.015  10.291
 8897SOL    HW128465   0.845   6.998  10.292
 8897SOL    HW228466   0.743   7.104  10.257
 8898SOL     OW28467   8.392   6.408  12.359
 8898SOL    HW128468   8.365   6.351  12.287
 8898SOL    HW228469   8.310   6.438  12.398
 8899SOL     OW28470  10.020   0.534   1.458
 8899SOL    HW128471  10.098   0.558   1.508
 8899SOL    HW228472  10.001   0.612   1.405
 8900SOL     OW28473  12.340   8.434   2.757
 8900SOL    HW128474  12.346   8.422   2.851
 8900SOL    HW228475  12.429   8.452   2.729
 8901SOL     OW28476   1.887   6.476   2.787
 8901SOL    HW128477   1.842   6.444   2.865
 8901SOL    HW228478   1.918   6.563   2.812
 8902SOL     OW28479   5.550   9.766   9.304
 8902SOL    HW128480   5.600   9.727   9.377
 8902SOL    HW228481   5.493   9.830   9.346
 8903SOL     OW28482  12.435   5.953  11.265
 8903SOL    HW128483  12.521   5.918  11.288
 8903SOL    HW228484  12.416   6.016  11.334
 8904SOL     OW28485  14.002   9.946   0.001
 8904SOL    HW128486  13.980   9.857   0.029
 8904SOL    HW228487  14.070   9.975   0.061
 8905SOL     OW28488   8.935   8.194   9.867
 8905SOL    HW128489   8.992   8.208   9.791
 8905SOL    HW228490   8.926   8.099   9.872
 8906SOL     OW28491   7.187   0.102   3.784
 8906SOL    HW128492   7.172   0.196   3.787
 8906SOL    HW228493   7.253   0.090   3.716
 8907SOL     OW28494   3.325   5.155   9.652
 8907SOL    HW128495   3.389   5.177   9.721
 8907SOL    HW228496   3.378   5.120   9.581
 8908SOL     OW28497   5.364  11.303   2.278
 8908SOL    HW128498   5.291  11.260   2.323
 8908SOL    HW228499   5.381  11.246   2.203
 8909SOL     OW28500   2.311   5.584  12.379
 8909SOL    HW128501   2.293   5.641  12.304
 8909SOL    HW228502   2.226   5.545  12.400
 8910SOL     OW28503   7.621  13.592  12.206
 8910SOL    HW128504   7.642  13.556  12.293
 8910SOL    HW228505   7.675  13.540  12.146
 8911SOL     OW28506  13.479   2.317   7.943
 8911SOL    HW128507  13.552   2.255   7.940
 8911SOL    HW228508  13.483   2.362   7.859
 8912SOL     OW28509  11.781   8.121   6.669
 8912SOL    HW128510  11.833   8.201   6.674
 8912SOL    HW228511  11.816   8.064   6.737
 8913SOL     OW28512   7.347  12.134   2.736
 8913SOL    HW128513   7.252  12.147   2.737
 8913SOL    HW228514   7.383  12.222   2.733
 8914SOL     OW28515   8.160  11.950  10.583
 8914SOL    HW128516   8.242  11.986  10.616
 8914SOL    HW228517   8.115  11.917  10.661
 8915SOL     OW28518  13.656  13.865  13.990
 8915SOL    HW128519  13.708  13.914  13.926
 8915SOL    HW228520  13.591  13.819  13.937
 8916SOL     OW28521   6.626  10.968   1.039
 8916SOL    HW128522   6.701  11.003   0.990
 8916SOL    HW228523   6.557  10.957   0.973
 8917SOL     OW28524   9.635   9.656   0.610
 8917SOL    HW128525   9.579   9.719   0.565
 8917SOL    HW228526   9.701   9.631   0.546
 8918SOL     OW28527   9.332  14.431   1.405
 8918SOL    HW128528   9.328  14.474   1.320
 8918SOL    HW228529   9.379  14.492   1.461
 8919SOL     OW28530  14.359   3.826   5.827
 8919SOL    HW128531  14.264   3.823   5.813
 8919SOL    HW228532  14.393   3.869   5.749
 8920SOL     OW28533   5.045   3.874   2.901
 8920SOL    HW128534   4.998   3.851   2.981
 8920SOL    HW228535   5.090   3.793   2.876
 8921SOL     OW28536   5.843   9.559   6.546
 8921SOL    HW128537   5.791   9.511   6.481
 8921SOL    HW228538   5.838   9.650   6.518
 8922SOL     OW28539   0.445  14.143   0.648
 8922SOL    HW128540   0.512  14.112   0.709
 8922SOL    HW228541   0.382  14.189   0.703
 8923SOL     OW28542   6.122   0.884  10.134
 8923SOL    HW128543   6.109   0.910  10.043
 8923SOL    HW228544   6.200   0.932  10.162
 8924SOL     OW28545   1.706   3.767   4.763
 8924SOL    HW128546   1.753   3.822   4.700
 8924SOL    HW228547   1.680   3.690   4.712
 8925SOL     OW28548   5.229   4.370  13.649
 8925SOL    HW128549   5.179   4.352  13.570
 8925SOL    HW228550   5.270   4.287  13.671
 8926SOL     OW28551   5.151   2.268   3.393
 8926SOL    HW128552   5.216   2.199   3.410
 8926SOL    HW228553   5.074   2.221   3.360
 8927SOL     OW28554   3.009   1.327   5.149
 8927SOL    HW128555   2.986   1.420   5.148
 8927SOL    HW228556   3.002   1.300   5.057
 8928SOL     OW28557   3.006  11.495   8.292
 8928SOL    HW128558   2.980  11.579   8.330
 8928SOL    HW228559   3.001  11.510   8.197
 8929SOL     OW28560  14.423   9.940   6.075
 8929SOL    HW128561  14.345   9.903   6.115
 8929SOL    HW228562  14.486   9.947   6.147
 8930SOL     OW28563   1.627   0.374  13.023
 8930SOL    HW128564   1.706   0.425  13.042
 8930SOL    HW228565   1.558   0.440  13.015
 8931SOL     OW28566  12.040  12.262   1.301
 8931SOL    HW128567  12.073  12.184   1.256
 8931SOL    HW228568  12.019  12.232   1.389
 8932SOL     OW28569   8.492  12.268   5.355
 8932SOL    HW128570   8.515  12.360   5.339
 8932SOL    HW228571   8.563  12.235   5.411
 8933SOL     OW28572   2.138  14.407   4.962
 8933SOL    HW128573   2.124  14.397   4.868
 8933SOL    HW228574   2.151  14.317   4.994
 8934SOL     OW28575   2.868   9.303   9.907
 8934SOL    HW128576   2.952   9.262   9.930
 8934SOL    HW228577   2.803   9.250   9.952
 8935SOL     OW28578  11.774  14.737   6.578
 8935SOL    HW128579  11.736  14.800   6.517
 8935SOL    HW228580  11.855  14.708   6.536
 8936SOL     OW28581   3.969  14.462  11.035
 8936SOL    HW128582   3.973  14.505  10.950
 8936SOL    HW228583   3.987  14.370  11.016
 8937SOL     OW28584  14.465   4.961   9.840
 8937SOL    HW128585  14.426   4.880   9.808
 8937SOL    HW228586  14.464   5.019   9.764
 8938SOL     OW28587   9.372   9.532  10.367
 8938SOL    HW128588   9.292   9.584  10.364
 8938SOL    HW228589   9.427   9.577  10.431
 8939SOL     OW28590   5.721   2.944   6.716
 8939SOL    HW128591   5.706   2.873   6.654
 8939SOL    HW228592   5.769   3.010   6.666
 8940SOL     OW28593  11.233   4.683  10.317
 8940SOL    HW128594  11.192   4.596  10.319
 8940SOL    HW228595  11.180   4.733  10.255
 8941SOL     OW28596  13.263   7.359   0.009
 8941SOL    HW128597  13.316   7.346   0.088
 8941SOL    HW228598  13.324   7.398  14.828
 8942SOL     OW28599  12.588  14.592   7.216
 8942SOL    HW128600  12.627  14.552   7.139
 8942SOL    HW228601  12.501  14.621   7.187
 8943SOL     OW28602   6.002  13.658   5.696
 8943SOL    HW128603   6.043  13.577   5.664
 8943SOL    HW228604   5.909  13.639   5.695
 8944SOL     OW28605  14.577  10.054   5.260
 8944SOL    HW128606  14.599  10.140   5.226
 8944SOL    HW228607  14.632  10.044   5.338
 8945SOL     OW28608  13.771   6.576   5.300
 8945SOL    HW128609  13.754   6.496   5.251
 8945SOL    HW228610  13.714   6.641   5.260
 8946SOL     OW28611   4.589  10.344  13.907
 8946SOL    HW128612   4.571  10.390  13.825
 8946SOL    HW228613   4.614  10.414  13.968
 8947SOL     OW28614  12.522   9.255   1.258
 8947SOL    HW128615  12.515   9.334   1.311
 8947SOL    HW228616  12.434   9.242   1.222
 8948SOL     OW28617   0.118   9.603   7.887
 8948SOL    HW128618   0.083   9.519   7.915
 8948SOL    HW228619   0.118   9.657   7.966
 8949SOL     OW28620  10.360   3.627   3.782
 8949SOL    HW128621  10.373   3.535   3.805
 8949SOL    HW228622  10.265   3.638   3.775
 8950SOL     OW28623   7.236  10.743   9.004
 8950SOL    HW128624   7.327  10.733   9.032
 8950SOL    HW228625   7.188  10.680   9.057
 8951SOL     OW28626   3.855   6.538   0.519
 8951SOL    HW128627   3.846   6.443   0.511
 8951SOL    HW228628   3.925   6.561   0.458
 8952SOL     OW28629   0.041   3.034   8.228
 8952SOL    HW128630   0.091   3.101   8.275
 8952SOL    HW228631   0.020   3.075   8.144
 8953SOL     OW28632  13.946  12.984   7.994
 8953SOL    HW128633  13.992  12.968   7.911
 8953SOL    HW228634  13.934  13.079   7.997
 8954SOL     OW28635   2.419  12.189   7.768
 8954SOL    HW128636   2.451  12.183   7.678
 8954SOL    HW228637   2.427  12.100   7.802
 8955SOL     OW28638  14.771  14.156   4.834
 8955SOL    HW128639  14.833  14.083   4.824
 8955SOL    HW228640  14.818  14.221   4.886
 8956SOL     OW28641  13.893   2.536   2.119
 8956SOL    HW128642  13.857   2.502   2.201
 8956SOL    HW228643  13.981   2.566   2.143
 8957SOL     OW28644   6.161   8.615   2.871
 8957SOL    HW128645   6.178   8.709   2.866
 8957SOL    HW228646   6.248   8.576   2.881
 8958SOL     OW28647   1.241   6.329   7.398
 8958SOL    HW128648   1.192   6.412   7.406
 8958SOL    HW228649   1.173   6.263   7.386
 8959SOL     OW28650  13.209   4.790   5.596
 8959SOL    HW128651  13.292   4.764   5.636
 8959SOL    HW228652  13.212   4.752   5.508
 8960SOL     OW28653  11.130  11.553  14.180
 8960SOL    HW128654  11.167  11.622  14.126
 8960SOL    HW228655  11.126  11.477  14.122
 8961SOL     OW28656  11.198   6.366   2.658
 8961SOL    HW128657  11.262   6.415   2.710
 8961SOL    HW228658  11.213   6.394   2.568
 8962SOL     OW28659   0.807   4.371   8.439
 8962SOL    HW128660   0.753   4.363   8.517
 8962SOL    HW228661   0.756   4.327   8.370
 8963SOL     OW28662   0.341   3.369  11.221
 8963SOL    HW128663   0.267   3.309  11.212
 8963SOL    HW228664   0.352   3.380  11.315
 8964SOL     OW28665   9.000   1.553   5.844
 8964SOL    HW128666   8.925   1.596   5.805
 8964SOL    HW228667   9.002   1.584   5.935
 8965SOL     OW28668   7.108   3.958  12.084
 8965SOL    HW128669   7.176   3.916  12.031
 8965SOL    HW228670   7.028   3.945  12.035
 8966SOL     OW28671   6.215   6.445   3.184
 8966SOL    HW128672   6.282   6.389   3.224
 8966SOL    HW228673   6.208   6.413   3.094
 8967SOL     OW28674  12.207   7.015   3.286
 8967SOL    HW128675  12.193   7.073   3.211
 8967SOL    HW228676  12.174   6.930   3.257
 8968SOL     OW28677  13.229   3.408   1.826
 8968SOL    HW128678  13.150   3.419   1.773
 8968SOL    HW228679  13.255   3.497   1.849
 8969SOL     OW28680   5.161  14.881   0.230
 8969SOL    HW128681   5.202  14.826   0.297
 8969SOL    HW228682   5.147  14.821   0.156
 8970SOL     OW28683   4.578  13.792   3.774
 8970SOL    HW128684   4.538  13.743   3.703
 8970SOL    HW228685   4.623  13.865   3.731
 8971SOL     OW28686  11.739   1.434  11.781
 8971SOL    HW128687  11.693   1.394  11.708
 8971SOL    HW228688  11.820   1.384  11.790
 8972SOL     OW28689  10.377  14.720   6.207
 8972SOL    HW128690  10.308  14.667   6.165
 8972SOL    HW228691  10.361  14.710   6.301
 8973SOL     OW28692  12.470   8.064   0.811
 8973SOL    HW128693  12.520   8.054   0.892
 8973SOL    HW228694  12.537   8.078   0.744
 8974SOL     OW28695   7.356   4.372  12.199
 8974SOL    HW128696   7.362   4.315  12.123
 8974SOL    HW228697   7.284   4.336  12.250
 8975SOL     OW28698   7.361   5.206   4.524
 8975SOL    HW128699   7.345   5.112   4.534
 8975SOL    HW228700   7.407   5.231   4.605
 8976SOL     OW28701   4.722   8.572   2.637
 8976SOL    HW128702   4.641   8.609   2.601
 8976SOL    HW228703   4.711   8.579   2.732
 8977SOL     OW28704   8.381   2.901  12.461
 8977SOL    HW128705   8.469   2.920  12.430
 8977SOL    HW228706   8.323   2.935  12.393
 8978SOL     OW28707   8.610   8.309   6.146
 8978SOL    HW128708   8.533   8.306   6.202
 8978SOL    HW228709   8.586   8.367   6.074
 8979SOL     OW28710   9.765   8.812  12.766
 8979SOL    HW128711   9.779   8.801  12.672
 8979SOL    HW228712   9.797   8.730  12.804
 8980SOL     OW28713  11.075   6.113   5.837
 8980SOL    HW128714  11.148   6.060   5.806
 8980SOL    HW228715  11.081   6.194   5.787
 8981SOL     OW28716   5.863  10.364   4.665
 8981SOL    HW128717   5.868  10.423   4.590
 8981SOL    HW228718   5.863  10.276   4.627
 8982SOL     OW28719  10.311   2.402  14.576
 8982SOL    HW128720  10.263   2.394  14.658
 8982SOL    HW228721  10.369   2.477  14.589
 8983SOL     OW28722   5.373  10.822   6.922
 8983SOL    HW128723   5.436  10.784   6.983
 8983SOL    HW228724   5.388  10.917   6.929
 8984SOL     OW28725   6.162   3.130  12.488
 8984SOL    HW128726   6.099   3.068  12.524
 8984SOL    HW228727   6.197   3.088  12.410
 8985SOL     OW28728   6.183   0.078  12.372
 8985SOL    HW128729   6.192   0.173  12.379
 8985SOL    HW228730   6.268   0.044  12.399
 8986SOL     OW28731   0.641  13.802  14.620
 8986SOL    HW128732   0.625  13.820  14.712
 8986SOL    HW228733   0.554  13.798  14.580
 8987SOL     OW28734   1.453   1.100   4.416
 8987SOL    HW128735   1.370   1.145   4.432
 8987SOL    HW228736   1.438   1.010   4.444
 8988SOL     OW28737   6.666  14.586   1.541
 8988SOL    HW128738   6.696  14.663   1.494
 8988SOL    HW228739   6.746  14.543   1.570
 8989SOL     OW28740   6.302   6.933   7.280
 8989SOL    HW128741   6.288   6.989   7.203
 8989SOL    HW228742   6.257   6.978   7.351
 8990SOL     OW28743  10.716   8.110  10.024
 8990SOL    HW128744  10.643   8.170  10.039
 8990SOL    HW228745  10.674   8.027  10.002
 8991SOL     OW28746   6.380   9.852   6.240
 8991SOL    HW128747   6.404   9.941   6.212
 8991SOL    HW228748   6.437   9.833   6.313
 8992SOL     OW28749  13.580   9.098  10.075
 8992SOL    HW128750  13.624   9.090  10.159
 8992SOL    HW228751  13.575   9.193  10.060
 8993SOL     OW28752  14.586   1.272  11.710
 8993SOL    HW128753  14.599   1.337  11.779
 8993SOL    HW228754  14.672   1.264  11.669
 8994SOL     OW28755   2.209   6.314   6.149
 8994SOL    HW128756   2.182   6.223   6.144
 8994SOL    HW228757   2.204   6.337   6.242
 8995SOL     OW28758   9.519   3.169  14.467
 8995SOL    HW128759   9.582   3.108  14.429
 8995SOL    HW228760   9.445   3.115  14.493
 8996SOL     OW28761  14.450   7.276   2.381
 8996SOL    HW128762  14.390   7.284   2.455
 8996SOL    HW228763  14.394   7.260   2.306
 8997SOL     OW28764   8.273   8.789  11.334
 8997SOL    HW128765   8.231   8.767  11.250
 8997SOL    HW228766   8.253   8.715  11.391
 8998SOL     OW28767  12.918   1.700   5.651
 8998SOL    HW128768  12.858   1.640   5.606
 8998SOL    HW228769  12.990   1.644   5.680
 8999SOL     OW28770  10.824   3.293  12.317
 8999SOL    HW128771  10.754   3.338  12.269
 8999SOL    HW228772  10.878   3.253  12.248
 9000SOL     OW28773   4.354   2.915   4.735
 9000SOL    HW128774   4.355   2.955   4.648
 9000SOL    HW228775   4.415   2.842   4.729
 9001SOL     OW28776   0.336  13.898   8.102
 9001SOL    HW128777   0.422  13.938   8.116
 9001SOL    HW228778   0.300  13.888   8.191
 9002SOL     OW28779  13.110   6.004  10.575
 9002SOL    HW128780  13.060   5.925  10.556
 9002SOL    HW228781  13.048   6.076  10.562
 9003SOL     OW28782   9.120   8.806  12.690
 9003SOL    HW128783   9.174   8.766  12.758
 9003SOL    HW228784   9.138   8.900  12.697
 9004SOL     OW28785   3.677  11.872  10.267
 9004SOL    HW128786   3.718  11.867  10.181
 9004SOL    HW228787   3.589  11.838  10.253
 9005SOL     OW28788  10.167   1.358   1.907
 9005SOL    HW128789  10.082   1.385   1.942
 9005SOL    HW228790  10.203   1.438   1.867
 9006SOL     OW28791   6.478  11.358   7.066
 9006SOL    HW128792   6.529  11.382   6.989
 9006SOL    HW228793   6.417  11.431   7.078
 9007SOL     OW28794   1.945   6.834  12.811
 9007SOL    HW128795   1.930   6.907  12.750
 9007SOL    HW228796   2.002   6.870  12.879
 9008SOL     OW28797   7.656   1.319   0.979
 9008SOL    HW128798   7.672   1.254   0.911
 9008SOL    HW228799   7.560   1.330   0.980
 9009SOL     OW28800  12.765   6.669  10.811
 9009SOL    HW128801  12.802   6.581  10.806
 9009SOL    HW228802  12.770   6.702  10.721
 9010SOL     OW28803   3.641   3.502   8.916
 9010SOL    HW128804   3.643   3.533   9.006
 9010SOL    HW228805   3.592   3.420   8.920
 9011SOL     OW28806   6.847  13.032  11.227
 9011SOL    HW128807   6.855  12.973  11.153
 9011SOL    HW228808   6.765  13.079  11.212
 9012SOL     OW28809  10.593   7.464   1.919
 9012SOL    HW128810  10.675   7.507   1.944
 9012SOL    HW228811  10.560   7.515   1.845
 9013SOL     OW28812   9.608   7.656   0.786
 9013SOL    HW128813   9.641   7.741   0.756
 9013SOL    HW228814   9.621   7.657   0.881
 9014SOL     OW28815  13.566  11.762  12.022
 9014SOL    HW128816  13.485  11.787  11.977
 9014SOL    HW228817  13.635  11.784  11.960
 9015SOL     OW28818  13.472   4.214  14.200
 9015SOL    HW128819  13.395   4.160  14.220
 9015SOL    HW228820  13.462   4.291  14.256
 9016SOL     OW28821   0.185   3.528   9.130
 9016SOL    HW128822   0.274   3.562   9.140
 9016SOL    HW228823   0.193   3.459   9.064
 9017SOL     OW28824   1.615  11.673  12.216
 9017SOL    HW128825   1.621  11.733  12.289
 9017SOL    HW228826   1.533  11.625  12.231
 9018SOL     OW28827   1.238   6.844   2.705
 9018SOL    HW128828   1.273   6.928   2.734
 9018SOL    HW228829   1.148   6.863   2.680
 9019SOL     OW28830  13.277   3.397  12.878
 9019SOL    HW128831  13.297   3.328  12.941
 9019SOL    HW228832  13.249   3.471  12.933
 9020SOL     OW28833  11.716   5.508   1.537
 9020SOL    HW128834  11.685   5.475   1.453
 9020SOL    HW228835  11.738   5.429   1.587
 9021SOL     OW28836   0.398   7.455   1.077
 9021SOL    HW128837   0.431   7.366   1.063
 9021SOL    HW228838   0.312   7.442   1.117
 9022SOL     OW28839  10.536   9.928  10.040
 9022SOL    HW128840  10.491   9.947  10.122
 9022SOL    HW228841  10.473   9.953   9.972
 9023SOL     OW28842   4.469   6.161  12.849
 9023SOL    HW128843   4.421   6.083  12.823
 9023SOL    HW228844   4.445   6.175  12.941
 9024SOL     OW28845  13.717   8.958   5.027
 9024SOL    HW128846  13.661   8.892   5.067
 9024SOL    HW228847  13.792   8.909   4.994
 9025SOL     OW28848  13.083  10.779   7.068
 9025SOL    HW128849  13.166  10.823   7.050
 9025SOL    HW228850  13.022  10.817   7.005
 9026SOL     OW28851   6.052  11.691   6.304
 9026SOL    HW128852   5.965  11.695   6.264
 9026SOL    HW228853   6.074  11.598   6.305
 9027SOL     OW28854  14.306   8.645   5.065
 9027SOL    HW128855  14.297   8.718   5.127
 9027SOL    HW228856  14.351   8.577   5.114
 9028SOL     OW28857   1.112  14.089   1.117
 9028SOL    HW128858   1.197  14.132   1.119
 9028SOL    HW228859   1.071  14.121   1.037
 9029SOL     OW28860   7.350   7.663   9.891
 9029SOL    HW128861   7.311   7.687   9.807
 9029SOL    HW228862   7.277   7.662   9.952
 9030SOL     OW28863   3.364  12.984  11.474
 9030SOL    HW128864   3.375  12.954  11.565
 9030SOL    HW228865   3.274  12.960  11.452
 9031SOL     OW28866  13.901  11.063  14.565
 9031SOL    HW128867  13.912  11.054  14.660
 9031SOL    HW228868  13.937  11.149  14.545
 9032SOL     OW28869  10.262   7.606  12.747
 9032SOL    HW128870  10.238   7.689  12.706
 9032SOL    HW228871  10.337   7.575  12.697
 9033SOL     OW28872  14.010   5.537   9.025
 9033SOL    HW128873  13.921   5.567   9.005
 9033SOL    HW228874  14.035   5.484   8.950
 9034SOL     OW28875  10.133   3.064  11.730
 9034SOL    HW128876  10.165   3.144  11.688
 9034SOL    HW228877  10.052   3.090  11.773
 9035SOL     OW28878  13.504   6.788   8.527
 9035SOL    HW128879  13.587   6.799   8.480
 9035SOL    HW228880  13.526   6.736   8.604
 9036SOL     OW28881   1.291  10.054   8.646
 9036SOL    HW128882   1.278  10.148   8.634
 9036SOL    HW228883   1.214  10.013   8.607
 9037SOL     OW28884  11.790  13.513   3.234
 9037SOL    HW128885  11.837  13.512   3.317
 9037SOL    HW228886  11.698  13.510   3.258
 9038SOL     OW28887   0.002   1.007   1.710
 9038SOL    HW128888   0.024   1.094   1.675
 9038SOL    HW228889  14.822   0.971   1.646
 9039SOL     OW28890   0.046   0.978   6.843
 9039SOL    HW128891  14.838   0.967   6.810
 9039SOL    HW228892   0.064   1.071   6.831
 9040SOL     OW28893   1.888   9.490  11.983
 9040SOL    HW128894   1.902   9.458  11.894
 9040SOL    HW228895   1.906   9.414  12.039
 9041SOL     OW28896   9.852   3.570   1.969
 9041SOL    HW128897   9.946   3.573   1.982
 9041SOL    HW228898   9.817   3.628   2.037
 9042SOL     OW28899   9.978  10.833   4.389
 9042SOL    HW128900   9.908  10.776   4.421
 9042SOL    HW228901  10.058  10.789   4.416
 9043SOL     OW28902   2.868  13.752  13.420
 9043SOL    HW128903   2.847  13.844  13.435
 9043SOL    HW228904   2.798  13.704  13.466
 9044SOL     OW28905   3.567   1.179   1.043
 9044SOL    HW128906   3.576   1.190   0.948
 9044SOL    HW228907   3.557   1.268   1.076
 9045SOL     OW28908  14.242   0.641  13.039
 9045SOL    HW128909  14.297   0.565  13.061
 9045SOL    HW228910  14.218   0.679  13.124
 9046SOL     OW28911  13.961   7.128  11.770
 9046SOL    HW128912  13.976   7.156  11.860
 9046SOL    HW228913  13.997   7.040  11.766
 9047SOL     OW28914   5.627   3.707   7.281
 9047SOL    HW128915   5.712   3.670   7.258
 9047SOL    HW228916   5.647   3.771   7.350
 9048SOL     OW28917  12.638   4.077   1.652
 9048SOL    HW128918  12.645   3.989   1.614
 9048SOL    HW228919  12.599   4.130   1.582
 9049SOL     OW28920   1.355   5.494   6.188
 9049SOL    HW128921   1.271   5.448   6.194
 9049SOL    HW228922   1.365   5.514   6.095
 9050SOL     OW28923  10.672   7.036   9.963
 9050SOL    HW128924  10.622   6.956   9.948
 9050SOL    HW228925  10.758   7.018   9.926
 9051SOL     OW28926   1.357   8.189   2.293
 9051SOL    HW128927   1.403   8.270   2.315
 9051SOL    HW228928   1.286   8.183   2.357
 9052SOL     OW28929   1.602   7.987   2.450
 9052SOL    HW128930   1.594   8.027   2.536
 9052SOL    HW228931   1.573   8.056   2.389
 9053SOL     OW28932  13.109   6.315  10.847
 9053SOL    HW128933  13.115   6.340  10.939
 9053SOL    HW228934  13.158   6.233  10.841
 9054SOL     OW28935  11.592   3.572   9.603
 9054SOL    HW128936  11.619   3.536   9.519
 9054SOL    HW228937  11.527   3.639   9.581
 9055SOL     OW28938   9.074  11.981   5.058
 9055SOL    HW128939   8.986  12.017   5.069
 9055SOL    HW228940   9.067  11.922   4.982
 9056SOL     OW28941   1.317   6.878   6.813
 9056SOL    HW128942   1.236   6.896   6.861
 9056SOL    HW228943   1.290   6.874   6.721
 9057SOL     OW28944   4.568   8.026   7.227
 9057SOL    HW128945   4.520   7.971   7.165
 9057SOL    HW228946   4.635   7.968   7.263
 9058SOL     OW28947   2.608  13.365   0.731
 9058SOL    HW128948   2.688  13.333   0.773
 9058SOL    HW228949   2.639  13.424   0.662
 9059SOL     OW28950   9.287   3.060  13.844
 9059SOL    HW128951   9.357   3.029  13.787
 9059SOL    HW228952   9.331   3.087  13.924
 9060SOL     OW28953   7.779   2.091   5.021
 9060SOL    HW128954   7.869   2.081   5.051
 9060SOL    HW228955   7.743   2.002   5.023
 9061SOL     OW28956   3.070  11.705   5.765
 9061SOL    HW128957   2.993  11.680   5.715
 9061SOL    HW228958   3.112  11.622   5.787
 9062SOL     OW28959   1.013   6.547  11.240
 9062SOL    HW128960   1.062   6.569  11.319
 9062SOL    HW228961   1.077   6.505  11.182
 9063SOL     OW28962   9.462  10.904   8.023
 9063SOL    HW128963   9.509  10.872   7.945
 9063SOL    HW228964   9.417  10.982   7.992
 9064SOL     OW28965   6.590   1.287   3.294
 9064SOL    HW128966   6.594   1.382   3.307
 9064SOL    HW228967   6.567   1.252   3.380
 9065SOL     OW28968   3.441  12.570  14.181
 9065SOL    HW128969   3.432  12.592  14.274
 9065SOL    HW228970   3.365  12.611  14.140
 9066SOL     OW28971   6.859   5.184   6.443
 9066SOL    HW128972   6.949   5.155   6.456
 9066SOL    HW228973   6.848   5.187   6.348
 9067SOL     OW28974   9.662   2.429   8.894
 9067SOL    HW128975   9.667   2.488   8.970
 9067SOL    HW228976   9.591   2.465   8.841
 9068SOL     OW28977   7.952   5.028   5.323
 9068SOL    HW128978   8.045   5.024   5.346
 9068SOL    HW228979   7.927   4.936   5.311
 9069SOL     OW28980   1.170  12.063   0.602
 9069SOL    HW128981   1.106  12.104   0.543
 9069SOL    HW228982   1.168  11.970   0.578
 9070SOL     OW28983   8.009   5.745   2.606
 9070SOL    HW128984   7.925   5.703   2.624
 9070SOL    HW228985   7.986   5.835   2.581
 9071SOL     OW28986   0.880   7.588   4.902
 9071SOL    HW128987   0.950   7.634   4.949
 9071SOL    HW228988   0.839   7.656   4.848
 9072SOL     OW28989   3.205   2.684  13.533
 9072SOL    HW128990   3.155   2.639  13.601
 9072SOL    HW228991   3.289   2.637  13.529
 9073SOL     OW28992   2.407  10.292   3.070
 9073SOL    HW128993   2.416  10.220   3.008
 9073SOL    HW228994   2.325  10.335   3.046
 9074SOL     OW28995   8.686   4.034   8.288
 9074SOL    HW128996   8.653   4.043   8.378
 9074SOL    HW228997   8.737   3.954   8.288
 9075SOL     OW28998   9.465   9.735   3.067
 9075SOL    HW128999   9.519   9.725   3.145
 9075SOL    HW229000   9.441   9.828   3.066
 9076SOL     OW29001   8.446  11.091  14.591
 9076SOL    HW129002   8.516  11.145  14.553
 9076SOL    HW229003   8.461  11.095  14.685
 9077SOL     OW29004   5.568  14.682   1.673
 9077SOL    HW129005   5.608  14.632   1.603
 9077SOL    HW229006   5.610  14.649   1.753
 9078SOL     OW29007   5.166   1.759   7.129
 9078SOL    HW129008   5.250   1.717   7.149
 9078SOL    HW229009   5.144   1.728   7.041
 9079SOL     OW29010   0.576   7.209  13.007
 9079SOL    HW129011   0.643   7.181  12.944
 9079SOL    HW229012   0.608   7.178  13.092
 9080SOL     OW29013   3.172   1.564   0.911
 9080SOL    HW129014   3.256   1.539   0.950
 9080SOL    HW229015   3.154   1.495   0.847
 9081SOL     OW29016   6.964  11.761  14.266
 9081SOL    HW129017   7.003  11.726  14.346
 9081SOL    HW229018   6.936  11.683  14.217
 9082SOL     OW29019   2.341  12.358  10.945
 9082SOL    HW129020   2.335  12.277  10.995
 9082SOL    HW229021   2.405  12.341  10.877
 9083SOL     OW29022   3.574  14.583   7.316
 9083SOL    HW129023   3.546  14.569   7.406
 9083SOL    HW229024   3.664  14.615   7.323
 9084SOL     OW29025   9.124   2.344   4.132
 9084SOL    HW129026   9.053   2.406   4.117
 9084SOL    HW229027   9.200   2.382   4.089
 9085SOL     OW29028   0.361   4.946  14.268
 9085SOL    HW129029   0.283   4.930  14.215
 9085SOL    HW229030   0.434   4.931  14.209
 9086SOL     OW29031   5.828   5.128   8.817
 9086SOL    HW129032   5.763   5.058   8.830
 9086SOL    HW229033   5.892   5.115   8.886
 9087SOL     OW29034   9.581   5.778   0.804
 9087SOL    HW129035   9.667   5.812   0.780
 9087SOL    HW229036   9.521   5.852   0.787
 9088SOL     OW29037   8.524   4.237   8.741
 9088SOL    HW129038   8.560   4.325   8.744
 9088SOL    HW229039   8.579   4.191   8.677
 9089SOL     OW29040  14.827  14.729   8.336
 9089SOL    HW129041  14.823  14.760   8.246
 9089SOL    HW229042   0.020  14.668   8.337
 9090SOL     OW29043  10.383  11.496  13.930
 9090SOL    HW129044  10.391  11.473  14.022
 9090SOL    HW229045  10.334  11.579  13.930
 9091SOL     OW29046   3.377   2.079  10.863
 9091SOL    HW129047   3.448   2.110  10.920
 9091SOL    HW229048   3.421   2.046  10.785
 9092SOL     OW29049   3.141   4.936   1.191
 9092SOL    HW129050   3.099   4.947   1.106
 9092SOL    HW229051   3.235   4.932   1.171
 9093SOL     OW29052   8.610   6.126   4.231
 9093SOL    HW129053   8.519   6.146   4.205
 9093SOL    HW229054   8.663   6.167   4.162
 9094SOL     OW29055  10.248   3.206   9.519
 9094SOL    HW129056  10.316   3.140   9.508
 9094SOL    HW229057  10.177   3.178   9.462
 9095SOL     OW29058   9.623   8.562   3.623
 9095SOL    HW129059   9.554   8.511   3.581
 9095SOL    HW229060   9.592   8.653   3.619
 9096SOL     OW29061   4.653   1.102   1.799
 9096SOL    HW129062   4.709   1.171   1.835
 9096SOL    HW229063   4.680   1.023   1.845
 9097SOL     OW29064   6.827   1.180  13.268
 9097SOL    HW129065   6.840   1.103  13.214
 9097SOL    HW229066   6.822   1.147  13.358
 9098SOL     OW29067  14.485   0.869   0.072
 9098SOL    HW129068  14.443   0.796   0.117
 9098SOL    HW229069  14.577   0.844   0.065
 9099SOL     OW29070  11.620  11.698  10.770
 9099SOL    HW129071  11.612  11.607  10.741
 9099SOL    HW229072  11.714  11.717  10.767
 9100SOL     OW29073   0.802   6.833   3.064
 9100SOL    HW129074   0.830   6.768   3.000
 9100SOL    HW229075   0.749   6.784   3.127
 9101SOL     OW29076   6.340   4.964   3.145
 9101SOL    HW129077   6.380   4.956   3.059
 9101SOL    HW229078   6.298   4.879   3.160
 9102SOL     OW29079   5.885  12.909  13.249
 9102SOL    HW129080   5.958  12.869  13.296
 9102SOL    HW229081   5.830  12.946  13.318
 9103SOL     OW29082   1.193   2.702   8.992
 9103SOL    HW129083   1.179   2.709   9.086
 9103SOL    HW229084   1.286   2.685   8.982
 9104SOL     OW29085   4.823   2.349   5.594
 9104SOL    HW129086   4.833   2.385   5.682
 9104SOL    HW229087   4.822   2.254   5.607
 9105SOL     OW29088   9.909   0.066  12.271
 9105SOL    HW129089   9.820   0.042  12.245
 9105SOL    HW229090   9.934   0.136  12.211
 9106SOL     OW29091  11.722  14.255  11.217
 9106SOL    HW129092  11.737  14.172  11.172
 9106SOL    HW229093  11.661  14.302  11.160
 9107SOL     OW29094  11.064  14.606   4.047
 9107SOL    HW129095  11.066  14.676   4.113
 9107SOL    HW229096  10.975  14.608   4.012
 9108SOL     OW29097  14.414  13.389   2.000
 9108SOL    HW129098  14.484  13.368   2.061
 9108SOL    HW229099  14.334  13.386   2.053
 9109SOL     OW29100   8.042   0.001   7.892
 9109SOL    HW129101   8.118  14.876   7.949
 9109SOL    HW229102   8.075  14.863   7.805
 9110SOL     OW29103   7.883  14.256   6.000
 9110SOL    HW129104   7.806  14.199   6.009
 9110SOL    HW229105   7.870  14.325   6.065
 9111SOL     OW29106   2.163   0.162   8.065
 9111SOL    HW129107   2.136   0.225   7.998
 9111SOL    HW229108   2.139   0.203   8.148
 9112SOL     OW29109   5.760  13.708   3.372
 9112SOL    HW129110   5.755  13.651   3.295
 9112SOL    HW229111   5.781  13.649   3.444
 9113SOL     OW29112   4.581   1.366   4.159
 9113SOL    HW129113   4.614   1.424   4.228
 9113SOL    HW229114   4.523   1.421   4.107
 9114SOL     OW29115  14.285  11.055   5.346
 9114SOL    HW129116  14.227  11.119   5.385
 9114SOL    HW229117  14.273  10.976   5.399
 9115SOL     OW29118  14.089   4.837   8.131
 9115SOL    HW129119  14.087   4.779   8.207
 9115SOL    HW229120  14.087   4.925   8.168
 9116SOL     OW29121  11.766   9.548   3.580
 9116SOL    HW129122  11.831   9.499   3.629
 9116SOL    HW229123  11.759   9.632   3.627
 9117SOL     OW29124   0.681   7.776   3.596
 9117SOL    HW129125   0.590   7.751   3.611
 9117SOL    HW229126   0.729   7.693   3.599
 9118SOL     OW29127  12.426   6.850   9.767
 9118SOL    HW129128  12.403   6.780   9.706
 9118SOL    HW229129  12.508   6.886   9.732
 9119SOL     OW29130  13.798   2.737   4.961
 9119SOL    HW129131  13.812   2.699   4.874
 9119SOL    HW229132  13.737   2.809   4.946
 9120SOL     OW29133  10.852   8.149   8.198
 9120SOL    HW129134  10.939   8.110   8.187
 9120SOL    HW229135  10.841   8.205   8.121
 9121SOL     OW29136   8.840  11.109  12.706
 9121SOL    HW129137   8.748  11.110  12.731
 9121SOL    HW229138   8.883  11.163  12.772
 9122SOL     OW29139   3.155  11.457   4.180
 9122SOL    HW129140   3.172  11.413   4.097
 9122SOL    HW229141   3.070  11.500   4.166
 9123SOL     OW29142   5.534  14.284  11.974
 9123SOL    HW129143   5.528  14.208  12.032
 9123SOL    HW229144   5.590  14.346  12.021
 9124SOL     OW29145  14.460   6.917   8.736
 9124SOL    HW129146  14.520   6.967   8.790
 9124SOL    HW229147  14.489   6.931   8.647
 9125SOL     OW29148  10.011  11.069   3.624
 9125SOL    HW129149   9.983  11.028   3.706
 9125SOL    HW229150   9.986  11.006   3.557
 9126SOL     OW29151  14.542   2.460   7.989
 9126SOL    HW129152  14.620   2.477   7.936
 9126SOL    HW229153  14.567   2.484   8.078
 9127SOL     OW29154   0.538  12.063   6.183
 9127SOL    HW129155   0.628  12.092   6.195
 9127SOL    HW229156   0.504  12.118   6.113
 9128SOL     OW29157   5.854  12.951  12.448
 9128SOL    HW129158   5.762  12.927  12.456
 9128SOL    HW229159   5.856  13.013  12.375
 9129SOL     OW29160   2.429   1.321  14.682
 9129SOL    HW129161   2.499   1.375  14.717
 9129SOL    HW229162   2.352   1.378  14.683
 9130SOL     OW29163   1.546   7.706   1.821
 9130SOL    HW129164   1.524   7.777   1.882
 9130SOL    HW229165   1.465   7.691   1.772
 9131SOL     OW29166   0.052   3.886   9.527
 9131SOL    HW129167   0.076   3.816   9.465
 9131SOL    HW229168  14.842   3.906   9.505
 9132SOL     OW29169  11.858   7.605   0.372
 9132SOL    HW129170  11.781   7.614   0.428
 9132SOL    HW229171  11.858   7.683   0.318
 9133SOL     OW29172  14.451   7.070  13.185
 9133SOL    HW129173  14.370   7.117  13.165
 9133SOL    HW229174  14.514   7.102  13.120
 9134SOL     OW29175  13.037   8.876  13.432
 9134SOL    HW129176  12.960   8.921  13.398
 9134SOL    HW229177  13.108   8.901  13.373
 9135SOL     OW29178   1.867   7.730   7.799
 9135SOL    HW129179   1.792   7.720   7.740
 9135SOL    HW229180   1.943   7.730   7.740
 9136SOL     OW29181   5.470  13.359   3.530
 9136SOL    HW129182   5.479  13.364   3.435
 9136SOL    HW229183   5.486  13.267   3.551
 9137SOL     OW29184  13.725   1.927   1.388
 9137SOL    HW129185  13.710   2.008   1.438
 9137SOL    HW229186  13.643   1.878   1.398
 9138SOL     OW29187  10.796   4.143   5.107
 9138SOL    HW129188  10.759   4.076   5.165
 9138SOL    HW229189  10.802   4.222   5.161
 9139SOL     OW29190   6.408  14.611   5.777
 9139SOL    HW129191   6.335  14.665   5.809
 9139SOL    HW229192   6.396  14.608   5.682
 9140SOL     OW29193   5.642  12.450  12.603
 9140SOL    HW129194   5.678  12.507  12.536
 9140SOL    HW229195   5.612  12.373  12.555
 9141SOL     OW29196  13.631  12.656   2.975
 9141SOL    HW129197  13.694  12.588   2.949
 9141SOL    HW229198  13.661  12.684   3.061
 9142SOL     OW29199  14.105   9.967   8.889
 9142SOL    HW129200  14.142   9.889   8.930
 9142SOL    HW229201  14.159  10.039   8.921
 9143SOL     OW29202   0.083   4.674  11.994
 9143SOL    HW129203   0.105   4.765  12.010
 9143SOL    HW229204   0.100   4.660  11.901
 9144SOL     OW29205   4.487   7.970   9.407
 9144SOL    HW129206   4.494   7.896   9.467
 9144SOL    HW229207   4.456   7.933   9.325
 9145SOL     OW29208   3.609   8.071   1.873
 9145SOL    HW129209   3.619   8.054   1.967
 9145SOL    HW229210   3.547   8.004   1.843
 9146SOL     OW29211   3.980   4.714   8.953
 9146SOL    HW129212   3.903   4.659   8.964
 9146SOL    HW229213   3.965   4.788   9.013
 9147SOL     OW29214   1.651   9.969   0.995
 9147SOL    HW129215   1.636   9.961   1.089
 9147SOL    HW229216   1.644  10.062   0.977
 9148SOL     OW29217   6.880   4.290   9.841
 9148SOL    HW129218   6.850   4.347   9.911
 9148SOL    HW229219   6.851   4.333   9.760
 9149SOL     OW29220  14.120   1.926  14.378
 9149SOL    HW129221  14.214   1.943  14.379
 9149SOL    HW229222  14.107   1.868  14.302
 9150SOL     OW29223  14.509  13.333   6.388
 9150SOL    HW129224  14.567  13.302   6.458
 9150SOL    HW229225  14.454  13.399   6.431
 9151SOL     OW29226   4.604  14.459  10.030
 9151SOL    HW129227   4.686  14.465  10.079
 9151SOL    HW229228   4.558  14.385  10.069
 9152SOL     OW29229   5.073  14.070   9.431
 9152SOL    HW129230   5.078  14.070   9.526
 9152SOL    HW229231   4.981  14.087   9.411
 9153SOL     OW29232   2.961   8.649  14.651
 9153SOL    HW129233   3.044   8.655  14.698
 9153SOL    HW229234   2.894   8.646  14.719
 9154SOL     OW29235   7.494  12.619   9.583
 9154SOL    HW129236   7.556  12.550   9.604
 9154SOL    HW229237   7.453  12.642   9.666
 9155SOL     OW29238   1.488  13.617  13.177
 9155SOL    HW129239   1.556  13.668  13.223
 9155SOL    HW229240   1.537  13.555  13.123
 9156SOL     OW29241   1.065  13.777   1.481
 9156SOL    HW129242   0.992  13.719   1.506
 9156SOL    HW229243   1.024  13.862   1.468
 9157SOL     OW29244  12.680  14.202   2.496
 9157SOL    HW129245  12.673  14.182   2.589
 9157SOL    HW229246  12.653  14.121   2.452
 9158SOL     OW29247   3.452   7.109  13.296
 9158SOL    HW129248   3.366   7.071  13.277
 9158SOL    HW229249   3.498   7.042  13.345
 9159SOL     OW29250  10.222   2.658   6.194
 9159SOL    HW129251  10.194   2.739   6.153
 9159SOL    HW229252  10.294   2.627   6.140
 9160SOL     OW29253   5.174  13.782  11.777
 9160SOL    HW129254   5.127  13.842  11.835
 9160SOL    HW229255   5.105  13.742  11.723
 9161SOL     OW29256   5.423   0.003  11.329
 9161SOL    HW129257   5.331   0.017  11.351
 9161SOL    HW229258   5.429   0.026  11.236
 9162SOL     OW29259  13.743   3.976  14.062
 9162SOL    HW129260  13.685   3.917  14.110
 9162SOL    HW229261  13.700   3.990  13.978
 9163SOL     OW29262   7.216   7.143  14.163
 9163SOL    HW129263   7.161   7.070  14.193
 9163SOL    HW229264   7.237   7.191  14.243
 9164SOL     OW29265   1.880   8.495   4.436
 9164SOL    HW129266   1.950   8.559   4.425
 9164SOL    HW229267   1.834   8.495   4.352
 9165SOL     OW29268   2.675   5.571   6.746
 9165SOL    HW129269   2.759   5.595   6.707
 9165SOL    HW229270   2.618   5.646   6.729
 9166SOL     OW29271   2.002   4.614   5.532
 9166SOL    HW129272   2.091   4.579   5.539
 9166SOL    HW229273   1.984   4.651   5.618
 9167SOL     OW29274   5.789   4.198   5.088
 9167SOL    HW129275   5.697   4.221   5.089
 9167SOL    HW229276   5.805   4.159   5.174
 9168SOL     OW29277   7.474  12.132   7.804
 9168SOL    HW129278   7.556  12.114   7.759
 9168SOL    HW229279   7.419  12.055   7.786
 9169SOL     OW29280  10.076  14.472   7.501
 9169SOL    HW129281  10.061  14.565   7.482
 9169SOL    HW229282  10.044  14.460   7.590
 9170SOL     OW29283   2.528   4.996   0.115
 9170SOL    HW129284   2.518   5.004   0.210
 9170SOL    HW229285   2.451   4.946   0.087
 9171SOL     OW29286   5.827   3.205  11.208
 9171SOL    HW129287   5.803   3.112  11.210
 9171SOL    HW229288   5.817   3.234  11.299
 9172SOL     OW29289   0.516   3.329   8.954
 9172SOL    HW129290   0.423   3.318   8.974
 9172SOL    HW229291   0.556   3.246   8.981
 9173SOL     OW29292   3.482   7.656   3.459
 9173SOL    HW129293   3.563   7.689   3.497
 9173SOL    HW229294   3.499   7.563   3.445
 9174SOL     OW29295  11.492  10.817  14.190
 9174SOL    HW129296  11.558  10.751  14.168
 9174SOL    HW229297  11.543  10.896  14.210
 9175SOL     OW29298   3.941  10.056  12.724
 9175SOL    HW129299   4.015  10.006  12.690
 9175SOL    HW229300   3.920  10.014  12.808
 9176SOL     OW29301   0.192   2.888  11.631
 9176SOL    HW129302   0.143   2.969  11.617
 9176SOL    HW229303   0.129   2.818  11.618
 9177SOL     OW29304   6.105  10.304  12.162
 9177SOL    HW129305   6.053  10.316  12.242
 9177SOL    HW229306   6.052  10.341  12.092
 9178SOL     OW29307   6.296   1.034  10.323
 9178SOL    HW129308   6.252   1.112  10.358
 9178SOL    HW229309   6.386   1.040  10.358
 9179SOL     OW29310  11.633   7.255   8.328
 9179SOL    HW129311  11.681   7.286   8.404
 9179SOL    HW229312  11.689   7.277   8.253
 9180SOL     OW29313  13.317  12.420  11.029
 9180SOL    HW129314  13.361  12.352  11.080
 9180SOL    HW229315  13.337  12.501  11.076
 9181SOL     OW29316  10.048   5.979   5.323
 9181SOL    HW129317  10.111   6.047   5.298
 9181SOL    HW229318  10.100   5.916   5.372
 9182SOL     OW29319   7.018   8.468  12.348
 9182SOL    HW129320   6.939   8.413  12.342
 9182SOL    HW229321   6.993   8.538  12.409
 9183SOL     OW29322   8.050  10.727   3.976
 9183SOL    HW129323   8.098  10.675   3.912
 9183SOL    HW229324   7.960  10.695   3.970
 9184SOL     OW29325  14.823  13.976   1.141
 9184SOL    HW129326   0.035  13.963   1.128
 9184SOL    HW229327  14.809  14.070   1.128
 9185SOL     OW29328   9.717  14.619   5.961
 9185SOL    HW129329   9.741  14.552   5.897
 9185SOL    HW229330   9.622  14.608   5.973
 9186SOL     OW29331   3.620   8.992   2.490
 9186SOL    HW129332   3.537   9.033   2.513
 9186SOL    HW229333   3.609   8.900   2.513
 9187SOL     OW29334   1.142  10.200   0.959
 9187SOL    HW129335   1.182  10.136   1.017
 9187SOL    HW229336   1.176  10.179   0.872
 9188SOL     OW29337  11.291   7.775   2.508
 9188SOL    HW129338  11.262   7.853   2.554
 9188SOL    HW229339  11.386   7.776   2.516
 9189SOL     OW29340  13.883   3.604   8.695
 9189SOL    HW129341  13.901   3.532   8.635
 9189SOL    HW229342  13.889   3.565   8.782
 9190SOL     OW29343  11.824  12.287  12.703
 9190SOL    HW129344  11.755  12.353  12.702
 9190SOL    HW229345  11.792  12.219  12.761
 9191SOL     OW29346  10.588  13.888   8.828
 9191SOL    HW129347  10.566  13.799   8.855
 9191SOL    HW229348  10.631  13.877   8.743
 9192SOL     OW29349   9.676  12.764  14.241
 9192SOL    HW129350   9.700  12.838  14.185
 9192SOL    HW229351   9.595  12.791  14.283
 9193SOL     OW29352   0.851   0.461  14.750
 9193SOL    HW129353   0.767   0.443  14.708
 9193SOL    HW229354   0.843   0.424  14.838
 9194SOL     OW29355  12.723   5.359   1.420
 9194SOL    HW129356  12.716   5.411   1.340
 9194SOL    HW229357  12.739   5.423   1.489
 9195SOL     OW29358  11.991   0.409   9.133
 9195SOL    HW129359  11.938   0.426   9.055
 9195SOL    HW229360  11.928   0.375   9.197
 9196SOL     OW29361   1.867   4.790   0.379
 9196SOL    HW129362   1.960   4.801   0.361
 9196SOL    HW229363   1.843   4.708   0.336
 9197SOL     OW29364   7.638  13.011   6.176
 9197SOL    HW129365   7.572  13.013   6.107
 9197SOL    HW229366   7.721  12.995   6.130
 9198SOL     OW29367   8.632  13.885   7.530
 9198SOL    HW129368   8.578  13.947   7.579
 9198SOL    HW229369   8.644  13.811   7.590
 9199SOL     OW29370  11.451  14.001   8.076
 9199SOL    HW129371  11.417  13.912   8.085
 9199SOL    HW229372  11.476  14.008   7.984
 9200SOL     OW29373   1.699   5.456  12.252
 9200SOL    HW129374   1.750   5.480  12.330
 9200SOL    HW229375   1.712   5.361  12.243
 9201SOL     OW29376   0.365  14.287  13.043
 9201SOL    HW129377   0.307  14.325  12.976
 9201SOL    HW229378   0.342  14.195  13.046
 9202SOL     OW29379  14.232   4.176   7.213
 9202SOL    HW129380  14.210   4.093   7.256
 9202SOL    HW229381  14.328   4.176   7.208
 9203SOL     OW29382   5.026   1.896   3.676
 9203SOL    HW129383   4.980   1.964   3.725
 9203SOL    HW229384   4.971   1.879   3.600
 9204SOL     OW29385   9.479  10.555  11.615
 9204SOL    HW129386   9.459  10.534  11.524
 9204SOL    HW229387   9.478  10.650  11.618
 9205SOL     OW29388   1.777   6.874  11.233
 9205SOL    HW129389   1.816   6.801  11.183
 9205SOL    HW229390   1.717   6.915  11.171
 9206SOL     OW29391   0.442  13.039  11.395
 9206SOL    HW129392   0.521  12.988  11.381
 9206SOL    HW229393   0.472  13.128  11.410
 9207SOL     OW29394  10.683  13.883   8.572
 9207SOL    HW129395  10.590  13.902   8.558
 9207SOL    HW229396  10.729  13.953   8.524
 9208SOL     OW29397  10.655   7.951   4.101
 9208SOL    HW129398  10.572   7.991   4.076
 9208SOL    HW229399  10.679   7.997   4.182
 9209SOL     OW29400   6.376  13.522  14.376
 9209SOL    HW129401   6.412  13.435  14.390
 9209SOL    HW229402   6.436  13.581  14.422
 9210SOL     OW29403   5.594   6.441   4.227
 9210SOL    HW129404   5.559   6.519   4.270
 9210SOL    HW229405   5.518   6.400   4.186
 9211SOL     OW29406   7.968   1.355   4.852
 9211SOL    HW129407   8.006   1.300   4.784
 9211SOL    HW229408   8.029   1.429   4.859
 9212SOL     OW29409   3.565   4.721   7.514
 9212SOL    HW129410   3.498   4.700   7.580
 9212SOL    HW229411   3.623   4.784   7.557
 9213SOL     OW29412  14.187   6.398   9.632
 9213SOL    HW129413  14.244   6.362   9.699
 9213SOL    HW229414  14.237   6.390   9.550
 9214SOL     OW29415   2.367   3.907   5.275
 9214SOL    HW129416   2.425   3.935   5.204
 9214SOL    HW229417   2.371   3.811   5.273
 9215SOL     OW29418  12.106  12.583   9.307
 9215SOL    HW129419  12.175  12.647   9.327
 9215SOL    HW229420  12.072  12.557   9.393
 9216SOL     OW29421  13.662   2.522   8.211
 9216SOL    HW129422  13.661   2.549   8.119
 9216SOL    HW229423  13.581   2.558   8.247
 9217SOL     OW29424   3.293   1.719   7.235
 9217SOL    HW129425   3.374   1.669   7.223
 9217SOL    HW229426   3.320   1.797   7.282
 9218SOL     OW29427   8.215   6.118   1.488
 9218SOL    HW129428   8.300   6.074   1.482
 9218SOL    HW229429   8.162   6.077   1.419
 9219SOL     OW29430  10.734  14.133  11.615
 9219SOL    HW129431  10.764  14.084  11.691
 9219SOL    HW229432  10.740  14.072  11.542
 9220SOL     OW29433   6.516   1.645   0.561
 9220SOL    HW129434   6.488   1.580   0.626
 9220SOL    HW229435   6.610   1.629   0.550
 9221SOL     OW29436   7.318  11.477  14.191
 9221SOL    HW129437   7.222  11.477  14.192
 9221SOL    HW229438   7.344  11.515  14.275
 9222SOL     OW29439   4.293   7.554   2.498
 9222SOL    HW129440   4.237   7.598   2.563
 9222SOL    HW229441   4.382   7.578   2.524
 9223SOL     OW29442   3.825   8.670   2.742
 9223SOL    HW129443   3.816   8.575   2.730
 9223SOL    HW229444   3.835   8.705   2.654
 9224SOL     OW29445   7.038   6.947   9.211
 9224SOL    HW129446   7.013   6.872   9.158
 9224SOL    HW229447   6.971   7.013   9.193
 9225SOL     OW29448   9.086   8.886   5.760
 9225SOL    HW129449   9.057   8.923   5.676
 9225SOL    HW229450   9.124   8.961   5.807
 9226SOL     OW29451   4.369   5.698   7.418
 9226SOL    HW129452   4.376   5.704   7.514
 9226SOL    HW229453   4.320   5.617   7.402
 9227SOL     OW29454   5.649   4.890   8.774
 9227SOL    HW129455   5.716   4.823   8.762
 9227SOL    HW229456   5.590   4.854   8.840
 9228SOL     OW29457  12.278   1.364   1.621
 9228SOL    HW129458  12.280   1.323   1.534
 9228SOL    HW229459  12.349   1.428   1.619
 9229SOL     OW29460   5.462  14.243   5.405
 9229SOL    HW129461   5.446  14.180   5.334
 9229SOL    HW229462   5.536  14.296   5.374
 9230SOL     OW29463   9.831   5.131   3.880
 9230SOL    HW129464   9.905   5.112   3.822
 9230SOL    HW229465   9.868   5.188   3.947
 9231SOL     OW29466  14.001   6.583   9.645
 9231SOL    HW129467  14.021   6.617   9.558
 9231SOL    HW229468  14.064   6.512   9.658
 9232SOL     OW29469   6.675  10.125   4.117
 9232SOL    HW129470   6.658  10.031   4.128
 9232SOL    HW229471   6.749  10.129   4.056
 9233SOL     OW29472  14.272  14.472   7.514
 9233SOL    HW129473  14.335  14.449   7.583
 9233SOL    HW229474  14.186  14.464   7.556
 9234SOL     OW29475  11.879   3.438   8.284
 9234SOL    HW129476  11.964   3.481   8.295
 9234SOL    HW229477  11.867   3.434   8.189
 9235SOL     OW29478  12.102   6.605  11.820
 9235SOL    HW129479  12.114   6.545  11.747
 9235SOL    HW229480  12.189   6.612  11.860
 9236SOL     OW29481   2.297  14.756   2.871
 9236SOL    HW129482   2.339  14.802   2.943
 9236SOL    HW229483   2.309  14.663   2.890
 9237SOL     OW29484  11.721  11.072   8.253
 9237SOL    HW129485  11.636  11.100   8.219
 9237SOL    HW229486  11.755  11.013   8.186
 9238SOL     OW29487   2.489   4.479   0.121
 9238SOL    HW129488   2.437   4.400   0.137
 9238SOL    HW229489   2.541   4.458   0.044
 9239SOL     OW29490   0.045   8.115   0.497
 9239SOL    HW129491  14.857   8.078   0.551
 9239SOL    HW229492   0.005   8.190   0.454
 9240SOL     OW29493   6.033   3.024   2.214
 9240SOL    HW129494   6.074   2.950   2.258
 9240SOL    HW229495   5.984   2.984   2.142
 9241SOL     OW29496  11.537  13.500  11.144
 9241SOL    HW129497  11.446  13.486  11.117
 9241SOL    HW229498  11.589  13.466  11.071
 9242SOL     OW29499  10.098  10.525   7.821
 9242SOL    HW129500  10.017  10.572   7.799
 9242SOL    HW229501  10.119  10.475   7.742
 9243SOL     OW29502   2.391   1.669   1.638
 9243SOL    HW129503   2.420   1.691   1.726
 9243SOL    HW229504   2.399   1.573   1.634
 9244SOL     OW29505  10.389  10.132   2.798
 9244SOL    HW129506  10.453  10.061   2.788
 9244SOL    HW229507  10.438  10.202   2.842
 9245SOL     OW29508   0.930   3.774  14.266
 9245SOL    HW129509   1.005   3.779  14.325
 9245SOL    HW229510   0.855   3.799  14.320
 9246SOL     OW29511   4.808   5.493  11.865
 9246SOL    HW129512   4.809   5.398  11.877
 9246SOL    HW229513   4.842   5.507  11.777
 9247SOL     OW29514   8.899   0.607  12.020
 9247SOL    HW129515   8.935   0.606  12.109
 9247SOL    HW229516   8.962   0.658  11.969
 9248SOL     OW29517   8.376   3.662   8.357
 9248SOL    HW129518   8.470   3.659   8.378
 9248SOL    HW229519   8.351   3.570   8.344
 9249SOL     OW29520  13.146   1.245   6.309
 9249SOL    HW129521  13.107   1.322   6.267
 9249SOL    HW229522  13.072   1.200   6.350
 9250SOL     OW29523  14.538   0.796  12.868
 9250SOL    HW129524  14.465   0.795  12.806
 9250SOL    HW229525  14.498   0.823  12.951
 9251SOL     OW29526   8.404   4.506  13.554
 9251SOL    HW129527   8.420   4.454  13.475
 9251SOL    HW229528   8.327   4.466  13.594
 9252SOL     OW29529  12.734  13.696  11.989
 9252SOL    HW129530  12.743  13.784  11.951
 9252SOL    HW229531  12.716  13.712  12.082
 9253SOL     OW29532   3.242   1.920   3.819
 9253SOL    HW129533   3.269   1.880   3.737
 9253SOL    HW229534   3.162   1.873   3.843
 9254SOL     OW29535   1.548   2.840   5.873
 9254SOL    HW129536   1.584   2.777   5.811
 9254SOL    HW229537   1.454   2.840   5.857
 9255SOL     OW29538   4.123   1.073   5.053
 9255SOL    HW129539   4.059   1.061   5.123
 9255SOL    HW229540   4.073   1.064   4.972
 9256SOL     OW29541   3.831   2.408   4.572
 9256SOL    HW129542   3.831   2.370   4.484
 9256SOL    HW229543   3.887   2.485   4.565
 9257SOL     OW29544  10.887   5.150  10.816
 9257SOL    HW129545  10.802   5.144  10.773
 9257SOL    HW229546  10.881   5.092  10.891
 9258SOL     OW29547  14.040  11.432   2.300
 9258SOL    HW129548  14.033  11.522   2.268
 9258SOL    HW229549  13.991  11.433   2.383
 9259SOL     OW29550  10.918  13.160   9.071
 9259SOL    HW129551  10.871  13.224   9.018
 9259SOL    HW229552  10.881  13.075   9.047
 9260SOL     OW29553   0.266   0.681   5.182
 9260SOL    HW129554   0.243   0.607   5.238
 9260SOL    HW229555   0.293   0.641   5.099
 9261SOL     OW29556  11.612   5.357   2.053
 9261SOL    HW129557  11.528   5.335   2.093
 9261SOL    HW229558  11.589   5.401   1.971
 9262SOL     OW29559  12.420   6.675  14.657
 9262SOL    HW129560  12.486   6.619  14.616
 9262SOL    HW229561  12.340   6.622  14.658
 9263SOL     OW29562   8.040   1.895   6.747
 9263SOL    HW129563   8.080   1.809   6.736
 9263SOL    HW229564   7.977   1.902   6.676
 9264SOL     OW29565   3.198  14.161  13.784
 9264SOL    HW129566   3.259  14.142  13.712
 9264SOL    HW229567   3.206  14.085  13.841
 9265SOL     OW29568  14.367  13.932   3.112
 9265SOL    HW129569  14.402  13.891   3.191
 9265SOL    HW229570  14.316  13.863   3.069
 9266SOL     OW29571   1.620  13.729   6.375
 9266SOL    HW129572   1.542  13.676   6.391
 9266SOL    HW229573   1.693  13.674   6.405
 9267SOL     OW29574  10.154   9.380   3.488
 9267SOL    HW129575  10.170   9.295   3.529
 9267SOL    HW229576  10.222   9.389   3.422
 9268SOL     OW29577   6.429  10.551  11.101
 9268SOL    HW129578   6.441  10.627  11.158
 9268SOL    HW229579   6.348  10.511  11.132
 9269SOL     OW29580  11.727   4.058   9.603
 9269SOL    HW129581  11.765   4.138   9.568
 9269SOL    HW229582  11.669   4.026   9.533
 9270SOL     OW29583   9.379  12.233   9.991
 9270SOL    HW129584   9.411  12.245   9.902
 9270SOL    HW229585   9.377  12.138  10.003
 9271SOL     OW29586  12.308   1.773   8.516
 9271SOL    HW129587  12.251   1.849   8.504
 9271SOL    HW229588  12.351   1.788   8.599
 9272SOL     OW29589   0.765  11.245  14.590
 9272SOL    HW129590   0.747  11.314  14.654
 9272SOL    HW229591   0.689  11.187  14.595
 9273SOL     OW29592   1.238   8.298  11.282
 9273SOL    HW129593   1.311   8.307  11.220
 9273SOL    HW229594   1.179   8.370  11.259
 9274SOL     OW29595   1.746   3.526   2.719
 9274SOL    HW129596   1.698   3.480   2.650
 9274SOL    HW229597   1.763   3.613   2.683
 9275SOL     OW29598  11.648   8.689   1.777
 9275SOL    HW129599  11.599   8.694   1.694
 9275SOL    HW229600  11.641   8.597   1.803
 9276SOL     OW29601   5.048   8.184  14.738
 9276SOL    HW129602   5.069   8.275  14.716
 9276SOL    HW229603   5.133   8.144  14.757
 9277SOL     OW29604   6.500  12.460   6.650
 9277SOL    HW129605   6.593  12.457   6.674
 9277SOL    HW229606   6.490  12.541   6.600
 9278SOL     OW29607   1.761  12.054   8.097
 9278SOL    HW129608   1.691  12.038   8.034
 9278SOL    HW229609   1.749  11.986   8.163
 9279SOL     OW29610   8.787   1.619  13.162
 9279SOL    HW129611   8.773   1.537  13.209
 9279SOL    HW229612   8.795   1.593  13.071
 9280SOL     OW29613  11.245  11.843   6.454
 9280SOL    HW129614  11.181  11.912   6.440
 9280SOL    HW229615  11.328  11.880   6.423
 9281SOL     OW29616   5.524   4.893   5.155
 9281SOL    HW129617   5.434   4.916   5.132
 9281SOL    HW229618   5.568   4.880   5.071
 9282SOL     OW29619   8.848  12.378  12.813
 9282SOL    HW129620   8.820  12.453  12.759
 9282SOL    HW229621   8.786  12.309  12.791
 9283SOL     OW29622   9.645   7.141  11.392
 9283SOL    HW129623   9.623   7.058  11.351
 9283SOL    HW229624   9.719   7.175  11.341
 9284SOL     OW29625  11.537  14.058   7.796
 9284SOL    HW129626  11.563  14.030   7.708
 9284SOL    HW229627  11.585  14.140   7.809
 9285SOL     OW29628   6.293  10.742   8.809
 9285SOL    HW129629   6.276  10.772   8.898
 9285SOL    HW229630   6.319  10.822   8.762
 9286SOL     OW29631   9.826   0.772   7.796
 9286SOL    HW129632   9.741   0.810   7.818
 9286SOL    HW229633   9.828   0.771   7.700
 9287SOL     OW29634   4.536  10.989   3.024
 9287SOL    HW129635   4.451  10.978   2.981
 9287SOL    HW229636   4.586  11.044   2.964
 9288SOL     OW29637   7.295   8.076   9.237
 9288SOL    HW129638   7.308   8.171   9.239
 9288SOL    HW229639   7.376   8.042   9.199
 9289SOL     OW29640  10.369  14.382  11.376
 9289SOL    HW129641  10.419  14.309  11.411
 9289SOL    HW229642  10.285  14.344  11.350
 9290SOL     OW29643   6.315   1.656  10.845
 9290SOL    HW129644   6.363   1.682  10.766
 9290SOL    HW229645   6.258   1.585  10.816
 9291SOL     OW29646   7.375   0.879  11.258
 9291SOL    HW129647   7.307   0.842  11.314
 9291SOL    HW229648   7.443   0.812  11.256
 9292SOL     OW29649   5.173   2.947   4.748
 9292SOL    HW129650   5.107   2.882   4.721
 9292SOL    HW229651   5.157   2.961   4.841
 9293SOL     OW29652   0.081   2.602  11.344
 9293SOL    HW129653   0.172   2.572  11.338
 9293SOL    HW229654   0.068   2.655  11.266
 9294SOL     OW29655  10.993   3.539   7.103
 9294SOL    HW129656  10.903   3.512   7.082
 9294SOL    HW229657  11.048   3.482   7.050
 9295SOL     OW29658  12.725  14.626  11.952
 9295SOL    HW129659  12.786  14.697  11.973
 9295SOL    HW229660  12.647  14.645  12.003
 9296SOL     OW29661   0.607   0.202   3.846
 9296SOL    HW129662   0.530   0.232   3.799
 9296SOL    HW229663   0.672   0.186   3.778
 9297SOL     OW29664   7.132   9.991   0.593
 9297SOL    HW129665   7.067  10.020   0.529
 9297SOL    HW229666   7.083   9.937   0.654
 9298SOL     OW29667  14.830  13.000  11.442
 9298SOL    HW129668  14.810  12.934  11.376
 9298SOL    HW229669   0.043  12.995  11.454
 9299SOL     OW29670  12.294  12.340  13.964
 9299SOL    HW129671  12.222  12.364  13.907
 9299SOL    HW229672  12.340  12.422  13.981
 9300SOL     OW29673   9.750   2.994   6.773
 9300SOL    HW129674   9.819   3.055   6.748
 9300SOL    HW229675   9.792   2.908   6.773
 9301SOL     OW29676  13.781  12.715   3.208
 9301SOL    HW129677  13.844  12.760   3.151
 9301SOL    HW229678  13.835  12.659   3.264
 9302SOL     OW29679   2.594   9.242   5.731
 9302SOL    HW129680   2.599   9.149   5.754
 9302SOL    HW229681   2.501   9.265   5.744
 9303SOL     OW29682   2.102   2.597   1.239
 9303SOL    HW129683   2.148   2.638   1.311
 9303SOL    HW229684   2.018   2.570   1.276
 9304SOL     OW29685   2.737   3.620   1.222
 9304SOL    HW129686   2.797   3.588   1.154
 9304SOL    HW229687   2.782   3.600   1.304
 9305SOL     OW29688   4.332   1.474   0.357
 9305SOL    HW129689   4.310   1.426   0.437
 9305SOL    HW229690   4.362   1.407   0.296
 9306SOL     OW29691   6.210   0.110   5.495
 9306SOL    HW129692   6.273   0.176   5.523
 9306SOL    HW229693   6.149   0.158   5.438
 9307SOL     OW29694   1.243  14.019  11.053
 9307SOL    HW129695   1.199  14.060  10.979
 9307SOL    HW229696   1.281  13.939  11.017
 9308SOL     OW29697   2.224  11.067   6.427
 9308SOL    HW129698   2.259  11.021   6.350
 9308SOL    HW229699   2.276  11.035   6.500
 9309SOL     OW29700   2.374   9.517  13.238
 9309SOL    HW129701   2.378   9.613  13.229
 9309SOL    HW229702   2.403   9.484  13.153
 9310SOL     OW29703  13.336  14.011  12.567
 9310SOL    HW129704  13.244  14.032  12.585
 9310SOL    HW229705  13.386  14.063  12.630
 9311SOL     OW29706  10.803   0.736   4.671
 9311SOL    HW129707  10.782   0.753   4.763
 9311SOL    HW229708  10.846   0.816   4.641
 9312SOL     OW29709   1.984   9.682   5.075
 9312SOL    HW129710   1.964   9.731   4.995
 9312SOL    HW229711   1.952   9.594   5.058
 9313SOL     OW29712  14.638   7.524   4.394
 9313SOL    HW129713  14.593   7.511   4.477
 9313SOL    HW229714  14.589   7.593   4.350
 9314SOL     OW29715  10.920   7.978   9.328
 9314SOL    HW129716  10.895   7.981   9.421
 9314SOL    HW229717  11.016   7.984   9.329
 9315SOL     OW29718   9.114  10.762   6.358
 9315SOL    HW129719   9.101  10.837   6.300
 9315SOL    HW229720   9.038  10.765   6.417
 9316SOL     OW29721   5.943  10.437   3.216
 9316SOL    HW129722   5.934  10.380   3.140
 9316SOL    HW229723   5.876  10.407   3.277
 9317SOL     OW29724  11.539   2.390   2.332
 9317SOL    HW129725  11.472   2.418   2.395
 9317SOL    HW229726  11.489   2.357   2.257
 9318SOL     OW29727   3.435  11.885   9.329
 9318SOL    HW129728   3.402  11.798   9.351
 9318SOL    HW229729   3.366  11.945   9.358
 9319SOL     OW29730   5.685   6.114   6.987
 9319SOL    HW129731   5.727   6.045   6.935
 9319SOL    HW229732   5.721   6.195   6.952
 9320SOL     OW29733   7.548   5.893   0.384
 9320SOL    HW129734   7.605   5.816   0.378
 9320SOL    HW229735   7.468   5.859   0.426
 9321SOL     OW29736   0.545   3.465   0.393
 9321SOL    HW129737   0.504   3.548   0.416
 9321SOL    HW229738   0.490   3.398   0.435
 9322SOL     OW29739   0.432   4.498   3.757
 9322SOL    HW129740   0.416   4.513   3.850
 9322SOL    HW229741   0.401   4.409   3.741
 9323SOL     OW29742  11.765   9.688   6.516
 9323SOL    HW129743  11.726   9.655   6.436
 9323SOL    HW229744  11.721   9.640   6.586
 9324SOL     OW29745   8.301  10.606   1.671
 9324SOL    HW129746   8.244  10.541   1.712
 9324SOL    HW229747   8.356  10.555   1.611
 9325SOL     OW29748  13.775   0.743   5.916
 9325SOL    HW129749  13.841   0.802   5.954
 9325SOL    HW229750  13.692   0.789   5.928
 9326SOL     OW29751   0.274   4.407   6.725
 9326SOL    HW129752   0.198   4.350   6.718
 9326SOL    HW229753   0.291   4.435   6.635
 9327SOL     OW29754   2.712   3.313   0.234
 9327SOL    HW129755   2.696   3.401   0.267
 9327SOL    HW229756   2.775   3.276   0.295
 9328SOL     OW29757   1.925  12.654  11.865
 9328SOL    HW129758   1.971  12.589  11.811
 9328SOL    HW229759   1.874  12.603  11.927
 9329SOL     OW29760   9.418  10.789   4.909
 9329SOL    HW129761   9.406  10.724   4.840
 9329SOL    HW229762   9.487  10.753   4.964
 9330SOL     OW29763   3.262   9.345   6.412
 9330SOL    HW129764   3.295   9.361   6.500
 9330SOL    HW229765   3.235   9.253   6.412
 9331SOL     OW29766   1.422   8.372  12.817
 9331SOL    HW129767   1.452   8.312  12.886
 9331SOL    HW229768   1.345   8.415  12.854
 9332SOL     OW29769  11.252   7.619   4.890
 9332SOL    HW129770  11.262   7.573   4.806
 9332SOL    HW229771  11.259   7.712   4.867
 9333SOL     OW29772   0.761   0.024   8.068
 9333SOL    HW129773   0.678   0.071   8.062
 9333SOL    HW229774   0.764  14.874   8.159
 9334SOL     OW29775  13.759   7.633   6.018
 9334SOL    HW129776  13.750   7.539   6.033
 9334SOL    HW229777  13.793   7.668   6.101
 9335SOL     OW29778   1.254   7.800  10.191
 9335SOL    HW129779   1.238   7.732  10.257
 9335SOL    HW229780   1.281   7.877  10.242
 9336SOL     OW29781   3.873  11.525   4.976
 9336SOL    HW129782   3.854  11.610   4.937
 9336SOL    HW229783   3.944  11.489   4.923
 9337SOL     OW29784   8.423   2.857  10.955
 9337SOL    HW129785   8.514   2.847  10.983
 9337SOL    HW229786   8.383   2.913  11.022
 9338SOL     OW29787   4.185   8.410  11.555
 9338SOL    HW129788   4.256   8.472  11.541
 9338SOL    HW229789   4.156   8.427  11.645
 9339SOL     OW29790   0.909  11.842   2.779
 9339SOL    HW129791   0.946  11.822   2.865
 9339SOL    HW229792   0.923  11.763   2.728
 9340SOL     OW29793  11.355   5.801  11.785
 9340SOL    HW129794  11.308   5.840  11.858
 9340SOL    HW229795  11.380   5.875  11.730
 9341SOL     OW29796  13.765  10.152   0.408
 9341SOL    HW129797  13.687  10.205   0.388
 9341SOL    HW229798  13.732  10.062   0.410
 9342SOL     OW29799   7.793   6.450   6.520
 9342SOL    HW129800   7.882   6.418   6.506
 9342SOL    HW229801   7.765   6.410   6.602
 9343SOL     OW29802  10.292   3.722  11.444
 9343SOL    HW129803  10.241   3.724  11.363
 9343SOL    HW229804  10.244   3.780  11.503
 9344SOL     OW29805   8.009  12.906   9.460
 9344SOL    HW129806   8.095  12.889   9.497
 9344SOL    HW229807   8.027  12.960   9.383
 9345SOL     OW29808   0.526  14.182   1.261
 9345SOL    HW129809   0.483  14.144   1.337
 9345SOL    HW229810   0.475  14.260   1.240
 9346SOL     OW29811   7.632  10.486   8.291
 9346SOL    HW129812   7.587  10.533   8.361
 9346SOL    HW229813   7.639  10.550   8.220
 9347SOL     OW29814  12.406   1.643   1.827
 9347SOL    HW129815  12.489   1.691   1.825
 9347SOL    HW229816  12.429   1.556   1.861
 9348SOL     OW29817   3.978   6.640   4.675
 9348SOL    HW129818   3.904   6.598   4.718
 9348SOL    HW229819   4.039   6.662   4.746
 9349SOL     OW29820  12.864   2.625   8.838
 9349SOL    HW129821  12.776   2.603   8.867
 9349SOL    HW229822  12.871   2.720   8.853
 9350SOL     OW29823   1.963  12.951   1.852
 9350SOL    HW129824   2.042  12.937   1.800
 9350SOL    HW229825   1.958  12.876   1.910
 9351SOL     OW29826   0.781   0.920  13.080
 9351SOL    HW129827   0.750   0.831  13.098
 9351SOL    HW229828   0.778   0.927  12.984
 9352SOL     OW29829  11.077   5.901   4.468
 9352SOL    HW129830  11.029   5.905   4.551
 9352SOL    HW229831  11.038   5.971   4.415
 9353SOL     OW29832   1.881   1.534  13.124
 9353SOL    HW129833   1.852   1.453  13.165
 9353SOL    HW229834   1.963   1.512  13.081
 9354SOL     OW29835   2.960   8.382   5.431
 9354SOL    HW129836   2.912   8.417   5.355
 9354SOL    HW229837   2.926   8.431   5.505
 9355SOL     OW29838   4.193   1.522  11.156
 9355SOL    HW129839   4.195   1.506  11.251
 9355SOL    HW229840   4.283   1.504  11.127
 9356SOL     OW29841   1.025   7.710   8.842
 9356SOL    HW129842   1.073   7.788   8.813
 9356SOL    HW229843   1.071   7.681   8.921
 9357SOL     OW29844   5.906   6.550  12.952
 9357SOL    HW129845   5.854   6.515  13.025
 9357SOL    HW229846   5.950   6.473  12.915
 9358SOL     OW29847   6.933   5.614   8.504
 9358SOL    HW129848   6.980   5.531   8.511
 9358SOL    HW229849   6.907   5.619   8.411
 9359SOL     OW29850   9.705   5.721   4.800
 9359SOL    HW129851   9.780   5.770   4.834
 9359SOL    HW229852   9.735   5.685   4.717
 9360SOL     OW29853   9.866   7.749   3.360
 9360SOL    HW129854   9.798   7.755   3.293
 9360SOL    HW229855   9.937   7.804   3.326
 9361SOL     OW29856   4.487  11.857  10.840
 9361SOL    HW129857   4.460  11.948  10.827
 9361SOL    HW229858   4.583  11.860  10.843
 9362SOL     OW29859   0.570  12.799  12.212
 9362SOL    HW129860   0.652  12.807  12.162
 9362SOL    HW229861   0.519  12.876  12.187
 9363SOL     OW29862   3.535  12.888  12.978
 9363SOL    HW129863   3.573  12.806  12.947
 9363SOL    HW229864   3.565  12.953  12.914
 9364SOL     OW29865  14.521  12.964   0.402
 9364SOL    HW129866  14.534  12.901   0.473
 9364SOL    HW229867  14.480  12.913   0.332
 9365SOL     OW29868   4.109   1.763   4.361
 9365SOL    HW129869   4.123   1.826   4.290
 9365SOL    HW229870   4.190   1.766   4.412
 9366SOL     OW29871   8.512   3.469   4.757
 9366SOL    HW129872   8.508   3.564   4.745
 9366SOL    HW229873   8.433   3.436   4.712
 9367SOL     OW29874  12.330   6.197  14.187
 9367SOL    HW129875  12.376   6.143  14.123
 9367SOL    HW229876  12.297   6.271  14.136
 9368SOL     OW29877  13.774   0.950   1.795
 9368SOL    HW129878  13.700   0.932   1.853
 9368SOL    HW229879  13.734   0.976   1.712
 9369SOL     OW29880  11.565   9.195   7.888
 9369SOL    HW129881  11.635   9.149   7.934
 9369SOL    HW229882  11.489   9.187   7.945
 9370SOL     OW29883  14.478   7.485   1.394
 9370SOL    HW129884  14.393   7.524   1.413
 9370SOL    HW229885  14.488   7.495   1.299
 9371SOL     OW29886   2.296  11.333   9.938
 9371SOL    HW129887   2.309  11.253   9.887
 9371SOL    HW229888   2.316  11.308  10.028
 9372SOL     OW29889   9.517   8.348  11.611
 9372SOL    HW129890   9.600   8.365  11.654
 9372SOL    HW229891   9.455   8.406  11.655
 9373SOL     OW29892   7.525  12.001  12.062
 9373SOL    HW129893   7.556  12.023  11.974
 9373SOL    HW229894   7.572  12.061  12.120
 9374SOL     OW29895   8.281   8.782   0.428
 9374SOL    HW129896   8.197   8.750   0.397
 9374SOL    HW229897   8.331   8.704   0.450
 9375SOL     OW29898   6.562   5.292  10.431
 9375SOL    HW129899   6.477   5.267  10.470
 9375SOL    HW229900   6.589   5.214  10.382
 9376SOL     OW29901   3.336  13.683   3.823
 9376SOL    HW129902   3.290  13.691   3.739
 9376SOL    HW229903   3.384  13.766   3.832
 9377SOL     OW29904   3.232   5.411  14.647
 9377SOL    HW129905   3.233   5.396  14.552
 9377SOL    HW229906   3.274   5.334  14.684
 9378SOL     OW29907  12.712  14.601  14.835
 9378SOL    HW129908  12.742  14.615  14.745
 9378SOL    HW229909  12.787  14.560  14.879
 9379SOL     OW29910  11.439   1.184  13.225
 9379SOL    HW129911  11.435   1.183  13.320
 9379SOL    HW229912  11.410   1.096  13.198
 9380SOL     OW29913   5.899  14.860   8.672
 9380SOL    HW129914   5.910  14.780   8.723
 9380SOL    HW229915   5.953   0.043   8.717
 9381SOL     OW29916  10.466   0.640   4.217
 9381SOL    HW129917  10.486   0.681   4.133
 9381SOL    HW229918  10.544   0.588   4.237
 9382SOL     OW29919   8.674   0.181  10.005
 9382SOL    HW129920   8.741   0.166   9.939
 9382SOL    HW229921   8.596   0.204   9.956
 9383SOL     OW29922   0.009  10.719   0.940
 9383SOL    HW129923   0.038  10.740   1.028
 9383SOL    HW229924  14.859  10.629   0.946
 9384SOL     OW29925   1.047   2.029   3.598
 9384SOL    HW129926   1.096   1.998   3.523
 9384SOL    HW229927   1.017   1.949   3.642
 9385SOL     OW29928   7.443   8.377   1.985
 9385SOL    HW129929   7.363   8.399   1.936
 9385SOL    HW229930   7.411   8.336   2.065
 9386SOL     OW29931  10.705   1.565   8.374
 9386SOL    HW129932  10.797   1.549   8.398
 9386SOL    HW229933  10.658   1.489   8.408
 9387SOL     OW29934   3.694   6.278  10.103
 9387SOL    HW129935   3.701   6.318  10.017
 9387SOL    HW229936   3.667   6.188  10.086
 9388SOL     OW29937   2.169   1.130   3.060
 9388SOL    HW129938   2.082   1.171   3.065
 9388SOL    HW229939   2.152   1.036   3.066
 9389SOL     OW29940   0.665   7.700   7.188
 9389SOL    HW129941   0.705   7.613   7.187
 9389SOL    HW229942   0.662   7.726   7.096
 9390SOL     OW29943   1.155   0.551  12.495
 9390SOL    HW129944   1.087   0.605  12.455
 9390SOL    HW229945   1.237   0.585  12.460
 9391SOL     OW29946   7.992   3.859   5.894
 9391SOL    HW129947   8.021   3.932   5.839
 9391SOL    HW229948   7.902   3.842   5.865
 9392SOL     OW29949   9.450   3.804  12.880
 9392SOL    HW129950   9.413   3.819  12.793
 9392SOL    HW229951   9.405   3.868  12.936
 9393SOL     OW29952  12.682   5.599   1.600
 9393SOL    HW129953  12.765   5.616   1.644
 9393SOL    HW229954  12.661   5.681   1.556
 9394SOL     OW29955   2.178   3.634   5.915
 9394SOL    HW129956   2.211   3.717   5.948
 9394SOL    HW229957   2.256   3.586   5.888
 9395SOL     OW29958  14.127  11.634  11.129
 9395SOL    HW129959  14.085  11.604  11.048
 9395SOL    HW229960  14.122  11.729  11.124
 9396SOL     OW29961   7.276   5.795  10.106
 9396SOL    HW129962   7.368   5.780  10.125
 9396SOL    HW229963   7.271   5.887  10.081
 9397SOL     OW29964   1.433   8.546  10.860
 9397SOL    HW129965   1.380   8.471  10.836
 9397SOL    HW229966   1.374   8.621  10.852
 9398SOL     OW29967  12.263   7.080   8.441
 9398SOL    HW129968  12.200   7.139   8.481
 9398SOL    HW229969  12.343   7.132   8.434
 9399SOL     OW29970  10.271   5.087   2.055
 9399SOL    HW129971  10.219   5.014   2.087
 9399SOL    HW229972  10.225   5.117   1.977
 9400SOL     OW29973   8.730   4.376   0.195
 9400SOL    HW129974   8.675   4.361   0.118
 9400SOL    HW229975   8.668   4.397   0.265
 9401SOL     OW29976   5.967   4.275  10.080
 9401SOL    HW129977   5.913   4.241  10.009
 9401SOL    HW229978   6.028   4.204  10.100
 9402SOL     OW29979   3.778   2.057  14.226
 9402SOL    HW129980   3.862   2.017  14.248
 9402SOL    HW229981   3.743   2.087  14.309
 9403SOL     OW29982   4.197  11.527   9.400
 9403SOL    HW129983   4.174  11.565   9.315
 9403SOL    HW229984   4.121  11.475   9.425
 9404SOL     OW29985  12.734  11.310  11.768
 9404SOL    HW129986  12.821  11.344  11.791
 9404SOL    HW229987  12.752  11.238  11.708
 9405SOL     OW29988   6.905  13.933  13.870
 9405SOL    HW129989   6.948  13.940  13.955
 9405SOL    HW229990   6.951  13.997  13.815
 9406SOL     OW29991  12.140   9.562  10.948
 9406SOL    HW129992  12.104   9.489  11.000
 9406SOL    HW229993  12.233   9.543  10.942
 9407SOL     OW29994  12.832   1.451   0.287
 9407SOL    HW129995  12.787   1.367   0.294
 9407SOL    HW229996  12.822   1.477   0.195
 9408SOL     OW29997   0.215  14.426   0.454
 9408SOL    HW129998   0.224  14.331   0.449
 9408SOL    HW229999   0.213  14.455   0.362
 9409SOL     OW30000  11.334   2.975  14.652
 9409SOL    HW130001  11.362   3.042  14.590
 9409SOL    HW230002  11.327   2.895  14.599
 9410SOL     OW30003   1.609   0.284   9.746
 9410SOL    HW130004   1.656   0.259   9.666
 9410SOL    HW230005   1.664   0.352   9.786
 9411SOL     OW30006   7.989   2.394   0.194
 9411SOL    HW130007   7.909   2.421   0.240
 9411SOL    HW230008   7.963   2.387   0.102
 9412SOL     OW30009  14.643   6.038   4.722
 9412SOL    HW130010  14.605   5.978   4.786
 9412SOL    HW230011  14.591   6.025   4.643
 9413SOL     OW30012   3.312  10.097  13.440
 9413SOL    HW130013   3.291  10.173  13.386
 9413SOL    HW230014   3.248  10.030  13.415
 9414SOL     OW30015  11.223  11.405   2.853
 9414SOL    HW130016  11.214  11.422   2.946
 9414SOL    HW230017  11.301  11.350   2.845
 9415SOL     OW30018   7.991   6.941   7.431
 9415SOL    HW130019   8.064   6.910   7.377
 9415SOL    HW230020   8.028   6.947   7.519
 9416SOL     OW30021   9.999  12.245   6.334
 9416SOL    HW130022   9.955  12.258   6.417
 9416SOL    HW230023   9.932  12.210   6.276
 9417SOL     OW30024   3.154   2.864   7.166
 9417SOL    HW130025   3.189   2.906   7.245
 9417SOL    HW230026   3.219   2.798   7.143
 9418SOL     OW30027   6.336   1.905  12.021
 9418SOL    HW130028   6.373   1.929  12.106
 9418SOL    HW230029   6.255   1.858  12.043
 9419SOL     OW30030   3.181  13.832   5.422
 9419SOL    HW130031   3.226  13.807   5.341
 9419SOL    HW230032   3.192  13.756   5.479
 9420SOL     OW30033   3.204  12.905  10.999
 9420SOL    HW130034   3.139  12.900  10.929
 9420SOL    HW230035   3.180  12.983  11.049
 9421SOL     OW30036   2.061  11.253   1.855
 9421SOL    HW130037   1.999  11.314   1.813
 9421SOL    HW230038   2.012  11.215   1.927
 9422SOL     OW30039  10.718   5.139  14.680
 9422SOL    HW130040  10.712   5.205  14.611
 9422SOL    HW230041  10.644   5.081  14.666
 9423SOL     OW30042   0.506   2.973  14.122
 9423SOL    HW130043   0.489   3.030  14.047
 9423SOL    HW230044   0.437   2.996  14.186
 9424SOL     OW30045  14.841   0.869   9.767
 9424SOL    HW130046  14.836   0.953   9.721
 9424SOL    HW230047   0.052   0.856   9.785
 9425SOL     OW30048   7.166   2.265  13.335
 9425SOL    HW130049   7.146   2.260  13.428
 9425SOL    HW230050   7.164   2.358  13.314
 9426SOL     OW30051   1.966  10.585  12.095
 9426SOL    HW130052   2.057  10.594  12.124
 9426SOL    HW230053   1.973  10.563  12.002
 9427SOL     OW30054   1.542  12.650   6.934
 9427SOL    HW130055   1.561  12.593   7.008
 9427SOL    HW230056   1.623  12.697   6.917
 9428SOL     OW30057   0.599   3.341   2.169
 9428SOL    HW130058   0.624   3.320   2.260
 9428SOL    HW230059   0.675   3.314   2.117
 9429SOL     OW30060  10.582   9.205  14.608
 9429SOL    HW130061  10.621   9.146  14.544
 9429SOL    HW230062  10.490   9.209  14.585
 9430SOL     OW30063  12.913   6.187   5.844
 9430SOL    HW130064  12.921   6.245   5.768
 9430SOL    HW230065  12.960   6.232   5.913
 9431SOL     OW30066  10.568  13.589   8.339
 9431SOL    HW130067  10.606  13.569   8.425
 9431SOL    HW230068  10.643  13.605   8.282
 9432SOL     OW30069   0.438  14.488   0.883
 9432SOL    HW130070   0.395  14.470   0.800
 9432SOL    HW230071   0.502  14.417   0.893
 9433SOL     OW30072  13.364  10.961  10.798
 9433SOL    HW130073  13.297  11.014  10.752
 9433SOL    HW230074  13.403  11.022  10.861
 9434SOL     OW30075   6.315  10.666   3.668
 9434SOL    HW130076   6.342  10.575   3.655
 9434SOL    HW230077   6.304  10.700   3.579
 9435SOL     OW30078   1.078   4.299  13.082
 9435SOL    HW130079   1.161   4.292  13.034
 9435SOL    HW230080   1.042   4.383  13.054
 9436SOL     OW30081   6.243   8.582   2.557
 9436SOL    HW130082   6.199   8.665   2.536
 9436SOL    HW230083   6.279   8.596   2.644
 9437SOL     OW30084   0.712   3.263   1.816
 9437SOL    HW130085   0.737   3.313   1.894
 9437SOL    HW230086   0.616   3.269   1.813
 9438SOL     OW30087   5.344  13.218  12.793
 9438SOL    HW130088   5.390  13.136  12.812
 9438SOL    HW230089   5.347  13.267  12.875
 9439SOL     OW30090  13.883   9.444   9.598
 9439SOL    HW130091  13.930   9.461   9.679
 9439SOL    HW230092  13.831   9.366   9.616
 9440SOL     OW30093   3.973   2.456   8.050
 9440SOL    HW130094   3.940   2.513   8.119
 9440SOL    HW230095   3.988   2.514   7.975
 9441SOL     OW30096   6.194   8.704   1.236
 9441SOL    HW130097   6.269   8.651   1.263
 9441SOL    HW230098   6.123   8.678   1.295
 9442SOL     OW30099   4.872  10.386  14.562
 9442SOL    HW130100   4.824  10.315  14.606
 9442SOL    HW230101   4.906  10.440  14.632
 9443SOL     OW30102   3.690   1.807   7.889
 9443SOL    HW130103   3.652   1.721   7.903
 9443SOL    HW230104   3.624   1.868   7.922
 9444SOL     OW30105   4.393  13.820   4.891
 9444SOL    HW130106   4.423  13.740   4.934
 9444SOL    HW230107   4.351  13.789   4.811
 9445SOL     OW30108   3.900   9.692   7.084
 9445SOL    HW130109   3.990   9.722   7.079
 9445SOL    HW230110   3.869   9.692   6.993
 9446SOL     OW30111   7.357  13.307   7.574
 9446SOL    HW130112   7.385  13.260   7.652
 9446SOL    HW230113   7.262  13.293   7.570
 9447SOL     OW30114   4.283  11.409  10.731
 9447SOL    HW130115   4.306  11.422  10.639
 9447SOL    HW230116   4.227  11.483  10.752
 9448SOL     OW30117   6.003   0.124   1.109
 9448SOL    HW130118   6.031   0.055   1.169
 9448SOL    HW230119   5.908   0.126   1.117
 9449SOL     OW30120  10.128   6.050   1.403
 9449SOL    HW130121  10.042   6.053   1.445
 9449SOL    HW230122  10.123   5.975   1.344
 9450SOL     OW30123  14.721   8.814   1.750
 9450SOL    HW130124  14.705   8.890   1.694
 9450SOL    HW230125  14.727   8.740   1.690
 9451SOL     OW30126   3.152   7.803  13.653
 9451SOL    HW130127   3.061   7.772  13.645
 9451SOL    HW230128   3.145   7.884  13.703
 9452SOL     OW30129   9.013  10.448   9.724
 9452SOL    HW130130   8.952  10.377   9.747
 9452SOL    HW230131   8.988  10.473   9.635
 9453SOL     OW30132   5.918  13.468   2.135
 9453SOL    HW130133   5.974  13.433   2.065
 9453SOL    HW230134   5.967  13.453   2.215
 9454SOL     OW30135   8.382   6.529   1.997
 9454SOL    HW130136   8.438   6.589   1.947
 9454SOL    HW230137   8.442   6.464   2.034
 9455SOL     OW30138   9.451  12.113   6.666
 9455SOL    HW130139   9.434  12.185   6.605
 9455SOL    HW230140   9.371  12.060   6.663
 9456SOL     OW30141   4.412  13.418  13.374
 9456SOL    HW130142   4.440  13.416  13.283
 9456SOL    HW230143   4.492  13.437  13.424
 9457SOL     OW30144   6.954  12.036   3.482
 9457SOL    HW130145   6.928  12.047   3.574
 9457SOL    HW230146   6.878  12.067   3.432
 9458SOL     OW30147   8.510   8.232  11.215
 9458SOL    HW130148   8.492   8.249  11.122
 9458SOL    HW230149   8.485   8.140  11.227
 9459SOL     OW30150   6.074   8.078   2.213
 9459SOL    HW130151   6.081   8.162   2.259
 9459SOL    HW230152   6.089   8.012   2.281
 9460SOL     OW30153  12.912   2.410   3.683
 9460SOL    HW130154  12.999   2.424   3.721
 9460SOL    HW230155  12.859   2.482   3.718
 9461SOL     OW30156   3.338   8.250   8.133
 9461SOL    HW130157   3.414   8.191   8.138
 9461SOL    HW230158   3.262   8.191   8.136
 9462SOL     OW30159   4.248   8.512   6.787
 9462SOL    HW130160   4.215   8.502   6.698
 9462SOL    HW230161   4.190   8.578   6.826
 9463SOL     OW30162   2.635   7.666   1.652
 9463SOL    HW130163   2.673   7.679   1.739
 9463SOL    HW230164   2.691   7.600   1.611
 9464SOL     OW30165   0.652   2.980   9.616
 9464SOL    HW130166   0.702   2.917   9.668
 9464SOL    HW230167   0.697   2.983   9.532
 9465SOL     OW30168   1.300   5.018   4.568
 9465SOL    HW130169   1.395   5.005   4.574
 9465SOL    HW230170   1.270   5.022   4.658
 9466SOL     OW30171  12.243   5.502   1.205
 9466SOL    HW130172  12.334   5.507   1.234
 9466SOL    HW230173  12.203   5.437   1.264
 9467SOL     OW30174   1.205   7.584   1.986
 9467SOL    HW130175   1.125   7.550   2.026
 9467SOL    HW230176   1.276   7.546   2.037
 9468SOL     OW30177   1.743  13.623  11.563
 9468SOL    HW130178   1.761  13.555  11.628
 9468SOL    HW230179   1.659  13.660  11.589
 9469SOL     OW30180  13.443   4.920  13.032
 9469SOL    HW130181  13.374   4.855  13.048
 9469SOL    HW230182  13.427   4.988  13.097
 9470SOL     OW30183  10.398   3.014  11.659
 9470SOL    HW130184  10.313   2.985  11.628
 9470SOL    HW230185  10.378   3.076  11.730
 9471SOL     OW30186   9.499   7.732  10.616
 9471SOL    HW130187   9.553   7.655  10.634
 9471SOL    HW230188   9.412   7.710  10.650
 9472SOL     OW30189  14.393   4.835   7.560
 9472SOL    HW130190  14.412   4.747   7.526
 9472SOL    HW230191  14.298   4.834   7.574
 9473SOL     OW30192  14.345   9.797  14.031
 9473SOL    HW130193  14.395   9.718  14.052
 9473SOL    HW230194  14.280   9.803  14.101
 9474SOL     OW30195   8.834   3.120   2.696
 9474SOL    HW130196   8.754   3.095   2.741
 9474SOL    HW230197   8.856   3.206   2.732
 9475SOL     OW30198   2.710   6.369   7.813
 9475SOL    HW130199   2.711   6.462   7.835
 9475SOL    HW230200   2.740   6.365   7.723
 9476SOL     OW30201  13.714   0.944   2.661
 9476SOL    HW130202  13.710   0.909   2.750
 9476SOL    HW230203  13.734   0.868   2.606
 9477SOL     OW30204   7.023  10.529   7.565
 9477SOL    HW130205   7.104  10.508   7.612
 9477SOL    HW230206   6.964  10.457   7.585
 9478SOL     OW30207   7.545   9.079   4.274
 9478SOL    HW130208   7.504   9.134   4.208
 9478SOL    HW230209   7.474   9.058   4.335
 9479SOL     OW30210   0.051   2.831   6.003
 9479SOL    HW130211   0.036   2.804   6.093
 9479SOL    HW230212   0.144   2.816   5.988
 9480SOL     OW30213   2.162   9.996   3.745
 9480SOL    HW130214   2.168  10.053   3.669
 9480SOL    HW230215   2.238   9.939   3.738
 9481SOL     OW30216  13.826   7.374   2.999
 9481SOL    HW130217  13.828   7.283   2.970
 9481SOL    HW230218  13.741   7.407   2.970
 9482SOL     OW30219  11.811   4.248  11.762
 9482SOL    HW130220  11.878   4.193  11.721
 9482SOL    HW230221  11.750   4.268  11.692
 9483SOL     OW30222   8.879  11.661   6.511
 9483SOL    HW130223   8.876  11.581   6.563
 9483SOL    HW230224   8.796  11.705   6.530
 9484SOL     OW30225  10.025   7.334   3.580
 9484SOL    HW130226  10.019   7.393   3.505
 9484SOL    HW230227   9.936   7.328   3.614
 9485SOL     OW30228   1.974   1.755   8.667
 9485SOL    HW130229   2.022   1.822   8.716
 9485SOL    HW230230   2.042   1.703   8.624
 9486SOL     OW30231   7.082  13.285   9.734
 9486SOL    HW130232   7.016  13.216   9.741
 9486SOL    HW230233   7.034  13.361   9.701
 9487SOL     OW30234   4.973   2.998   1.818
 9487SOL    HW130235   5.006   2.915   1.852
 9487SOL    HW230236   5.044   3.060   1.833
 9488SOL     OW30237  12.042   8.668   2.959
 9488SOL    HW130238  11.962   8.695   3.003
 9488SOL    HW230239  12.047   8.725   2.882
 9489SOL     OW30240   7.524  12.362   0.425
 9489SOL    HW130241   7.532  12.428   0.356
 9489SOL    HW230242   7.436  12.376   0.461
 9490SOL     OW30243   9.412  14.310   6.363
 9490SOL    HW130244   9.320  14.283   6.373
 9490SOL    HW230245   9.451  14.294   6.449
 9491SOL     OW30246  10.135   5.886   6.772
 9491SOL    HW130247  10.044   5.857   6.765
 9491SOL    HW230248  10.153   5.885   6.866
 9492SOL     OW30249   3.841   8.470   6.020
 9492SOL    HW130250   3.899   8.545   6.029
 9492SOL    HW230251   3.800   8.482   5.934
 9493SOL     OW30252   5.056   1.683   2.942
 9493SOL    HW130253   4.965   1.663   2.968
 9493SOL    HW230254   5.066   1.639   2.858
 9494SOL     OW30255  12.458  10.069   6.819
 9494SOL    HW130256  12.382  10.103   6.773
 9494SOL    HW230257  12.467  10.124   6.896
 9495SOL     OW30258  12.532   6.615   8.994
 9495SOL    HW130259  12.622   6.646   8.987
 9495SOL    HW230260  12.479   6.695   8.989
 9496SOL     OW30261   5.026  11.738   0.490
 9496SOL    HW130262   5.108  11.766   0.531
 9496SOL    HW230263   4.958  11.788   0.534
 9497SOL     OW30264   0.312   9.955   3.534
 9497SOL    HW130265   0.405   9.940   3.514
 9497SOL    HW230266   0.265   9.909   3.466
 9498SOL     OW30267  13.910  14.575   5.165
 9498SOL    HW130268  13.891  14.482   5.162
 9498SOL    HW230269  13.991  14.585   5.116
 9499SOL     OW30270   7.085   6.076   4.635
 9499SOL    HW130271   7.059   5.988   4.659
 9499SOL    HW230272   7.181   6.076   4.643
 9500SOL     OW30273  10.112   0.998   9.719
 9500SOL    HW130274  10.126   0.945   9.641
 9500SOL    HW230275  10.177   1.068   9.714
 9501SOL     OW30276   3.596   6.931   8.411
 9501SOL    HW130277   3.593   6.836   8.413
 9501SOL    HW230278   3.651   6.952   8.335
 9502SOL     OW30279  11.688   5.670   8.510
 9502SOL    HW130280  11.667   5.587   8.553
 9502SOL    HW230281  11.628   5.675   8.436
 9503SOL     OW30282   4.318   4.999  12.179
 9503SOL    HW130283   4.398   5.049  12.160
 9503SOL    HW230284   4.280   4.981  12.094
 9504SOL     OW30285   6.410   5.468   2.281
 9504SOL    HW130286   6.332   5.436   2.327
 9504SOL    HW230287   6.378   5.539   2.225
 9505SOL     OW30288   3.871  11.818   9.218
 9505SOL    HW130289   3.948  11.774   9.181
 9505SOL    HW230290   3.908  11.888   9.272
 9506SOL     OW30291  14.180  10.994   2.174
 9506SOL    HW130292  14.231  10.956   2.103
 9506SOL    HW230293  14.223  11.078   2.193
 9507SOL     OW30294   7.815   7.170   7.308
 9507SOL    HW130295   7.727   7.186   7.341
 9507SOL    HW230296   7.853   7.108   7.371
 9508SOL     OW30297   7.982   0.035  11.091
 9508SOL    HW130298   7.946  14.843  11.140
 9508SOL    HW230299   7.905   0.080  11.055
 9509SOL     OW30300   1.848   9.765   5.281
 9509SOL    HW130301   1.908   9.755   5.355
 9509SOL    HW230302   1.899   9.736   5.205
 9510SOL     OW30303   0.105   4.936   7.084
 9510SOL    HW130304   0.048   4.895   7.019
 9510SOL    HW230305   0.190   4.892   7.073
 9511SOL     OW30306  14.802  10.548  12.616
 9511SOL    HW130307  14.746  10.557  12.693
 9511SOL    HW230308  14.746  10.574  12.543
 9512SOL     OW30309  12.904   1.682   5.153
 9512SOL    HW130310  12.839   1.688   5.223
 9512SOL    HW230311  12.852   1.671   5.073
 9513SOL     OW30312   4.253  10.699   7.913
 9513SOL    HW130313   4.336  10.693   7.865
 9513SOL    HW230314   4.223  10.788   7.899
 9514SOL     OW30315   4.272   6.318  12.192
 9514SOL    HW130316   4.240   6.300  12.103
 9514SOL    HW230317   4.265   6.412  12.202
 9515SOL     OW30318   2.513   0.959  14.320
 9515SOL    HW130319   2.509   0.935  14.413
 9515SOL    HW230320   2.462   0.890  14.276
 9516SOL     OW30321  13.085   4.571  13.873
 9516SOL    HW130322  13.055   4.661  13.886
 9516SOL    HW230323  13.009   4.525  13.836
 9517SOL     OW30324   1.031   3.451  10.535
 9517SOL    HW130325   0.966   3.410  10.477
 9517SOL    HW230326   1.031   3.543  10.510
 9518SOL     OW30327  12.691   9.079   9.075
 9518SOL    HW130328  12.690   9.074   9.170
 9518SOL    HW230329  12.599   9.084   9.050
 9519SOL     OW30330  12.955  12.531   9.661
 9519SOL    HW130331  12.893  12.604   9.657
 9519SOL    HW230332  12.901  12.454   9.645
 9520SOL     OW30333   0.798   7.773   2.667
 9520SOL    HW130334   0.869   7.763   2.729
 9520SOL    HW230335   0.745   7.694   2.678
 9521SOL     OW30336   3.891   6.341   4.795
 9521SOL    HW130337   3.967   6.350   4.853
 9521SOL    HW230338   3.877   6.247   4.789
 9522SOL     OW30339   0.669   0.988   5.335
 9522SOL    HW130340   0.760   0.958   5.333
 9522SOL    HW230341   0.622   0.920   5.383
 9523SOL     OW30342   0.149   6.975  13.731
 9523SOL    HW130343   0.127   7.057  13.777
 9523SOL    HW230344   0.195   7.004  13.652
 9524SOL     OW30345  12.014  11.786   6.935
 9524SOL    HW130346  11.958  11.856   6.901
 9524SOL    HW230347  12.010  11.718   6.868
 9525SOL     OW30348  11.374   1.160  10.762
 9525SOL    HW130349  11.296   1.110  10.786
 9525SOL    HW230350  11.368   1.240  10.815
 9526SOL     OW30351   1.309   5.478   0.047
 9526SOL    HW130352   1.291   5.568   0.022
 9526SOL    HW230353   1.361   5.486   0.127
 9527SOL     OW30354   7.062   2.049   4.331
 9527SOL    HW130355   6.978   2.067   4.287
 9527SOL    HW230356   7.066   1.954   4.336
 9528SOL     OW30357   5.307   2.443   2.877
 9528SOL    HW130358   5.398   2.450   2.850
 9528SOL    HW230359   5.310   2.432   2.972
 9529SOL     OW30360  10.601   7.001   2.145
 9529SOL    HW130361  10.626   7.019   2.236
 9529SOL    HW230362  10.562   6.914   2.148
 9530SOL     OW30363   5.041   1.975   2.931
 9530SOL    HW130364   5.027   1.881   2.936
 9530SOL    HW230365   4.954   2.012   2.918
 9531SOL     OW30366   9.679   1.242   3.034
 9531SOL    HW130367   9.668   1.255   3.129
 9531SOL    HW230368   9.592   1.261   2.998
 9532SOL     OW30369  12.102  10.974  13.575
 9532SOL    HW130370  12.050  11.055  13.571
 9532SOL    HW230371  12.041  10.908  13.607
 9533SOL     OW30372   2.869   0.230   3.429
 9533SOL    HW130373   2.883   0.136   3.436
 9533SOL    HW230374   2.808   0.240   3.356
 9534SOL     OW30375   1.080   7.360  11.084
 9534SOL    HW130376   1.175   7.351  11.081
 9534SOL    HW230377   1.047   7.274  11.059
 9535SOL     OW30378  10.883  12.647  14.132
 9535SOL    HW130379  10.967  12.687  14.157
 9535SOL    HW230380  10.844  12.621  14.216
 9536SOL     OW30381   4.830  13.846   9.282
 9536SOL    HW130382   4.826  13.926   9.334
 9536SOL    HW230383   4.848  13.876   9.193
 9537SOL     OW30384   4.571   5.078   6.784
 9537SOL    HW130385   4.552   5.102   6.693
 9537SOL    HW230386   4.524   4.996   6.798
 9538SOL     OW30387   3.344   8.325   4.558
 9538SOL    HW130388   3.430   8.366   4.545
 9538SOL    HW230389   3.284   8.399   4.567
 9539SOL     OW30390   0.260  13.037   8.725
 9539SOL    HW130391   0.191  12.975   8.701
 9539SOL    HW230392   0.329  13.023   8.660
 9540SOL     OW30393   5.928  11.345   2.248
 9540SOL    HW130394   5.844  11.365   2.209
 9540SOL    HW230395   5.937  11.250   2.240
 9541SOL     OW30396   2.023   6.814   6.775
 9541SOL    HW130397   1.994   6.728   6.746
 9541SOL    HW230398   2.018   6.869   6.696
 9542SOL     OW30399  14.587  10.107  14.571
 9542SOL    HW130400  14.598  10.076  14.481
 9542SOL    HW230401  14.508  10.161  14.568
 9543SOL     OW30402   1.428   5.043   7.405
 9543SOL    HW130403   1.482   5.033   7.483
 9543SOL    HW230404   1.339   5.026   7.435
 9544SOL     OW30405  14.574  12.816   9.996
 9544SOL    HW130406  14.575  12.722  10.013
 9544SOL    HW230407  14.579  12.823   9.901
 9545SOL     OW30408  12.670  12.121  13.248
 9545SOL    HW130409  12.612  12.194  13.271
 9545SOL    HW230410  12.734  12.159  13.188
 9546SOL     OW30411   6.499   6.211   1.950
 9546SOL    HW130412   6.436   6.174   2.012
 9546SOL    HW230413   6.545   6.135   1.916
 9547SOL     OW30414  14.749   7.998   4.387
 9547SOL    HW130415  14.810   8.072   4.383
 9547SOL    HW230416  14.792   7.935   4.444
 9548SOL     OW30417   2.548   8.740   1.391
 9548SOL    HW130418   2.469   8.706   1.350
 9548SOL    HW230419   2.563   8.824   1.347
 9549SOL     OW30420   6.583   7.278   5.097
 9549SOL    HW130421   6.561   7.352   5.041
 9549SOL    HW230422   6.600   7.206   5.037
 9550SOL     OW30423   4.062   3.377   0.235
 9550SOL    HW130424   4.030   3.445   0.176
 9550SOL    HW230425   3.983   3.344   0.278
 9551SOL     OW30426  14.692   2.157  11.933
 9551SOL    HW130427  14.697   2.223  11.864
 9551SOL    HW230428  14.725   2.077  11.892
 9552SOL     OW30429   9.468  13.030  14.145
 9552SOL    HW130430   9.559  13.015  14.119
 9552SOL    HW230431   9.456  12.974  14.222
 9553SOL     OW30432   2.480  13.526   2.702
 9553SOL    HW130433   2.521  13.544   2.786
 9553SOL    HW230434   2.535  13.572   2.638
 9554SOL     OW30435   4.178   7.928   7.899
 9554SOL    HW130436   4.165   7.968   7.985
 9554SOL    HW230437   4.156   7.998   7.837
 9555SOL     OW30438   7.522   1.953   2.481
 9555SOL    HW130439   7.583   1.995   2.420
 9555SOL    HW230440   7.575   1.927   2.556
 9556SOL     OW30441   7.180  11.858  13.411
 9556SOL    HW130442   7.159  11.787  13.471
 9556SOL    HW230443   7.261  11.830  13.367
 9557SOL     OW30444   7.471   6.068   3.136
 9557SOL    HW130445   7.395   6.106   3.092
 9557SOL    HW230446   7.518   6.143   3.172
 9558SOL     OW30447   2.421   4.896   9.634
 9558SOL    HW130448   2.360   4.969   9.632
 9558SOL    HW230449   2.490   4.920   9.572
 9559SOL     OW30450  11.351  13.950   6.430
 9559SOL    HW130451  11.383  13.860   6.425
 9559SOL    HW230452  11.310  13.967   6.346
 9560SOL     OW30453  12.842   2.639   0.975
 9560SOL    HW130454  12.759   2.632   0.927
 9560SOL    HW230455  12.869   2.548   0.988
 9561SOL     OW30456  11.729   9.628   5.832
 9561SOL    HW130457  11.673   9.676   5.894
 9561SOL    HW230458  11.803   9.687   5.817
 9562SOL     OW30459  13.935  14.370  10.108
 9562SOL    HW130460  13.996  14.430  10.151
 9562SOL    HW230461  13.957  14.376  10.015
 9563SOL     OW30462   2.539  13.170   5.683
 9563SOL    HW130463   2.607  13.115   5.722
 9563SOL    HW230464   2.531  13.138   5.593
 9564SOL     OW30465  13.205  12.615   1.523
 9564SOL    HW130466  13.260  12.609   1.445
 9564SOL    HW230467  13.124  12.569   1.500
 9565SOL     OW30468   3.003   5.025   9.044
 9565SOL    HW130469   3.029   5.073   8.966
 9565SOL    HW230470   3.002   5.090   9.114
 9566SOL     OW30471  11.770   1.561  11.167
 9566SOL    HW130472  11.743   1.610  11.245
 9566SOL    HW230473  11.827   1.621  11.120
 9567SOL     OW30474   6.340   7.511   9.028
 9567SOL    HW130475   6.322   7.496   8.935
 9567SOL    HW230476   6.269   7.467   9.074
 9568SOL     OW30477  11.891  10.526  12.784
 9568SOL    HW130478  11.889  10.464  12.856
 9568SOL    HW230479  11.962  10.587  12.806
 9569SOL     OW30480  11.044   8.736  13.950
 9569SOL    HW130481  11.070   8.819  13.989
 9569SOL    HW230482  10.977   8.760  13.886
 9570SOL     OW30483   5.929   5.238  12.805
 9570SOL    HW130484   5.877   5.297  12.860
 9570SOL    HW230485   5.981   5.187  12.867
 9571SOL     OW30486  13.943   0.848  14.542
 9571SOL    HW130487  13.980   0.876  14.459
 9571SOL    HW230488  13.932   0.928  14.593
 9572SOL     OW30489  13.794   4.438   4.308
 9572SOL    HW130490  13.757   4.526   4.301
 9572SOL    HW230491  13.741   4.394   4.375
 9573SOL     OW30492  10.451   2.470  10.645
 9573SOL    HW130493  10.400   2.497  10.721
 9573SOL    HW230494  10.430   2.377  10.634
 9574SOL     OW30495  10.017  14.817   2.027
 9574SOL    HW130496   9.930  14.836   1.991
 9574SOL    HW230497  10.077  14.860   1.966
 9575SOL     OW30498   6.562  13.268   2.063
 9575SOL    HW130499   6.604  13.239   2.144
 9575SOL    HW230500   6.633  13.309   2.013
 9576SOL     OW30501  14.058   4.716   9.645
 9576SOL    HW130502  14.098   4.688   9.727
 9576SOL    HW230503  14.128   4.708   9.581
 9577SOL     OW30504  12.590   4.193   1.186
 9577SOL    HW130505  12.658   4.257   1.163
 9577SOL    HW230506  12.523   4.204   1.119
 9578SOL     OW30507   0.947   4.426  11.101
 9578SOL    HW130508   1.035   4.401  11.074
 9578SOL    HW230509   0.908   4.345  11.134
 9579SOL     OW30510   3.521   7.340   4.542
 9579SOL    HW130511   3.583   7.274   4.511
 9579SOL    HW230512   3.547   7.356   4.632
 9580SOL     OW30513   6.881  12.136  11.479
 9580SOL    HW130514   6.958  12.150  11.533
 9580SOL    HW230515   6.912  12.083  11.405
 9581SOL     OW30516   5.754   0.630   0.213
 9581SOL    HW130517   5.706   0.576   0.276
 9581SOL    HW230518   5.719   0.603   0.127
 9582SOL     OW30519   0.919  11.118  12.662
 9582SOL    HW130520   0.866  11.039  12.666
 9582SOL    HW230521   0.858  11.190  12.677
 9583SOL     OW30522   0.037  14.463   2.258
 9583SOL    HW130523   0.127  14.477   2.285
 9583SOL    HW230524   0.042  14.394   2.192
 9584SOL     OW30525   9.742  13.305   4.533
 9584SOL    HW130526   9.742  13.382   4.476
 9584SOL    HW230527   9.830  13.301   4.569
 9585SOL     OW30528  12.628   0.027  10.827
 9585SOL    HW130529  12.695  14.847  10.858
 9585SOL    HW230530  12.576  14.857  10.765
 9586SOL     OW30531   1.680   7.206   0.762
 9586SOL    HW130532   1.725   7.243   0.686
 9586SOL    HW230533   1.607   7.156   0.726
 9587SOL     OW30534   4.063   8.082   6.049
 9587SOL    HW130535   4.038   8.064   5.958
 9587SOL    HW230536   4.101   7.999   6.080
 9588SOL     OW30537   9.304   4.807   9.044
 9588SOL    HW130538   9.222   4.836   9.004
 9588SOL    HW230539   9.340   4.885   9.085
 9589SOL     OW30540   0.478  11.540  12.895
 9589SOL    HW130541   0.559  11.539  12.844
 9589SOL    HW230542   0.448  11.631  12.890
 9590SOL     OW30543   3.703   1.872   0.185
 9590SOL    HW130544   3.756   1.927   0.242
 9590SOL    HW230545   3.683   1.928   0.109
 9591SOL     OW30546   4.275   0.728   8.671
 9591SOL    HW130547   4.226   0.789   8.727
 9591SOL    HW230548   4.226   0.727   8.589
 9592SOL     OW30549   8.395  12.373   5.637
 9592SOL    HW130550   8.445  12.364   5.556
 9592SOL    HW230551   8.308  12.401   5.610
 9593SOL     OW30552   3.591  12.637  10.741
 9593SOL    HW130553   3.684  12.619  10.749
 9593SOL    HW230554   3.585  12.704  10.673
 9594SOL     OW30555   3.034   3.406  14.702
 9594SOL    HW130556   3.006   3.335  14.645
 9594SOL    HW230557   3.033   3.484  14.646
 9595SOL     OW30558   1.146   9.117   0.707
 9595SOL    HW130559   1.149   9.043   0.768
 9595SOL    HW230560   1.235   9.121   0.671
 9596SOL     OW30561   5.379   6.323  11.469
 9596SOL    HW130562   5.460   6.271  11.463
 9596SOL    HW230563   5.409   6.410  11.494
 9597SOL     OW30564   0.776  13.790   5.100
 9597SOL    HW130565   0.707  13.799   5.166
 9597SOL    HW230566   0.795  13.696   5.098
 9598SOL     OW30567   0.095  14.320   6.970
 9598SOL    HW130568   0.109  14.262   7.045
 9598SOL    HW230569   0.019  14.373   6.994
 9599SOL     OW30570   0.313  10.642   0.176
 9599SOL    HW130571   0.331  10.598   0.259
 9599SOL    HW230572   0.232  10.601   0.145
 9600SOL     OW30573   3.235   5.801   5.779
 9600SOL    HW130574   3.208   5.868   5.841
 9600SOL    HW230575   3.225   5.718   5.827
 9601SOL     OW30576   5.927  11.995   9.263
 9601SOL    HW130577   5.909  12.086   9.238
 9601SOL    HW230578   5.843  11.950   9.250
 9602SOL     OW30579   3.856   8.932   2.271
 9602SOL    HW130580   3.915   8.975   2.209
 9602SOL    HW230581   3.800   8.877   2.216
 9603SOL     OW30582   1.866   9.446   4.627
 9603SOL    HW130583   1.916   9.366   4.639
 9603SOL    HW230584   1.932   9.516   4.626
 9604SOL     OW30585  11.137  11.569  13.848
 9604SOL    HW130586  11.128  11.485  13.893
 9604SOL    HW230587  11.222  11.603  13.874
 9605SOL     OW30588   7.016  14.438   5.524
 9605SOL    HW130589   6.936  14.441   5.577
 9605SOL    HW230590   7.050  14.527   5.529
 9606SOL     OW30591  14.759   2.136  12.631
 9606SOL    HW130592  14.852   2.114  12.623
 9606SOL    HW230593  14.750   2.220  12.585
 9607SOL     OW30594   7.118  11.150   8.205
 9607SOL    HW130595   7.099  11.218   8.270
 9607SOL    HW230596   7.144  11.074   8.257
 9608SOL     OW30597   5.936   6.326   8.006
 9608SOL    HW130598   5.905   6.315   7.916
 9608SOL    HW230599   5.856   6.337   8.058
 9609SOL     OW30600   6.019   3.344   6.106
 9609SOL    HW130601   5.926   3.340   6.128
 9609SOL    HW230602   6.052   3.420   6.153
 9610SOL     OW30603  13.135   5.045   8.415
 9610SOL    HW130604  13.050   5.018   8.380
 9610SOL    HW230605  13.171   4.966   8.455
 9611SOL     OW30606   1.414   5.826   7.769
 9611SOL    HW130607   1.381   5.833   7.859
 9611SOL    HW230608   1.501   5.788   7.779
 9612SOL     OW30609   5.230   3.909   8.864
 9612SOL    HW130610   5.145   3.906   8.906
 9612SOL    HW230611   5.282   3.970   8.917
 9613SOL     OW30612   2.262   1.858   7.296
 9613SOL    HW130613   2.279   1.947   7.326
 9613SOL    HW230614   2.265   1.805   7.375
 9614SOL     OW30615  12.426  12.946   6.885
 9614SOL    HW130616  12.388  12.971   6.801
 9614SOL    HW230617  12.502  12.893   6.863
 9615SOL     OW30618   8.477   7.262   0.869
 9615SOL    HW130619   8.480   7.358   0.875
 9615SOL    HW230620   8.567   7.236   0.854
 9616SOL     OW30621   2.173   7.494  11.190
 9616SOL    HW130622   2.223   7.573  11.167
 9616SOL    HW230623   2.223   7.422  11.151
 9617SOL     OW30624   7.341   1.342   2.314
 9617SOL    HW130625   7.404   1.407   2.283
 9617SOL    HW230626   7.395   1.272   2.350
 9618SOL     OW30627   6.314   7.620   9.977
 9618SOL    HW130628   6.312   7.561  10.052
 9618SOL    HW230629   6.222   7.640   9.960
 9619SOL     OW30630  11.629   1.819  11.213
 9619SOL    HW130631  11.586   1.858  11.137
 9619SOL    HW230632  11.676   1.891  11.254
 9620SOL     OW30633   8.326   7.644   0.392
 9620SOL    HW130634   8.372   7.719   0.429
 9620SOL    HW230635   8.382   7.569   0.411
 9621SOL     OW30636  10.485   3.920   1.240
 9621SOL    HW130637  10.428   3.892   1.311
 9621SOL    HW230638  10.565   3.868   1.251
 9622SOL     OW30639  10.693   0.876   1.741
 9622SOL    HW130640  10.760   0.943   1.735
 9622SOL    HW230641  10.610   0.922   1.729
 9623SOL     OW30642   0.398  14.109   9.971
 9623SOL    HW130643   0.357  14.029   9.939
 9623SOL    HW230644   0.449  14.141   9.897
 9624SOL     OW30645   4.816  11.044   9.376
 9624SOL    HW130646   4.868  11.036   9.296
 9624SOL    HW230647   4.726  11.049   9.345
 9625SOL     OW30648   0.133   2.503   0.105
 9625SOL    HW130649   0.174   2.589   0.094
 9625SOL    HW230650   0.131   2.467   0.017
 9626SOL     OW30651   5.320  14.812   9.186
 9626SOL    HW130652   5.289   0.019   9.166
 9626SOL    HW230653   5.381  14.790   9.117
 9627SOL     OW30654   8.778   6.388   3.806
 9627SOL    HW130655   8.868   6.366   3.779
 9627SOL    HW230656   8.731   6.401   3.723
 9628SOL     OW30657  10.626   9.866  11.142
 9628SOL    HW130658  10.684   9.848  11.216
 9628SOL    HW230659  10.618   9.782  11.096
 9629SOL     OW30660  13.355   5.611   6.890
 9629SOL    HW130661  13.267   5.573   6.889
 9629SOL    HW230662  13.414   5.536   6.894
 9630SOL     OW30663  13.857   5.285   7.284
 9630SOL    HW130664  13.856   5.229   7.207
 9630SOL    HW230665  13.890   5.229   7.354
 9631SOL     OW30666   1.962   2.806  14.854
 9631SOL    HW130667   2.027   2.873  14.877
 9631SOL    HW230668   1.929   2.774   0.056
 9632SOL     OW30669   0.565  14.760   5.891
 9632SOL    HW130670   0.519  14.683   5.924
 9632SOL    HW230671   0.604  14.800   5.969
 9633SOL     OW30672   6.585   2.817  13.210
 9633SOL    HW130673   6.675   2.786  13.202
 9633SOL    HW230674   6.540   2.750  13.261
 9634SOL     OW30675  14.176   3.802  14.720
 9634SOL    HW130676  14.254   3.822  14.773
 9634SOL    HW230677  14.124   3.743  14.775
 9635SOL     OW30678   3.819   8.924   6.219
 9635SOL    HW130679   3.735   8.890   6.188
 9635SOL    HW230680   3.804   9.017   6.233
 9636SOL     OW30681  10.060   9.105  13.959
 9636SOL    HW130682   9.976   9.085  13.918
 9636SOL    HW230683  10.083   9.191  13.926
 9637SOL     OW30684   8.715  11.308   4.801
 9637SOL    HW130685   8.662  11.229   4.810
 9637SOL    HW230686   8.655  11.374   4.766
 9638SOL     OW30687  11.854  14.646   2.061
 9638SOL    HW130688  11.893  14.731   2.084
 9638SOL    HW230689  11.923  14.583   2.078
 9639SOL     OW30690   3.566   0.498   6.271
 9639SOL    HW130691   3.503   0.435   6.235
 9639SOL    HW230692   3.580   0.468   6.361
 9640SOL     OW30693   0.987  13.870   2.834
 9640SOL    HW130694   0.935  13.824   2.768
 9640SOL    HW230695   0.924  13.889   2.904
 9641SOL     OW30696   8.573   2.341   4.393
 9641SOL    HW130697   8.631   2.359   4.318
 9641SOL    HW230698   8.491   2.384   4.370
 9642SOL     OW30699   9.154   1.686   6.840
 9642SOL    HW130700   9.089   1.702   6.909
 9642SOL    HW230701   9.150   1.764   6.785
 9643SOL     OW30702   5.407  14.274   2.047
 9643SOL    HW130703   5.327  14.310   2.085
 9643SOL    HW230704   5.408  14.183   2.076
 9644SOL     OW30705   6.705   4.973   4.556
 9644SOL    HW130706   6.713   5.016   4.641
 9644SOL    HW230707   6.730   5.040   4.492
 9645SOL     OW30708   2.737   0.856  11.519
 9645SOL    HW130709   2.675   0.820  11.583
 9645SOL    HW230710   2.761   0.941  11.555
 9646SOL     OW30711  11.239   9.412   2.803
 9646SOL    HW130712  11.167   9.351   2.786
 9646SOL    HW230713  11.317   9.365   2.775
 9647SOL     OW30714  13.361  13.886   7.651
 9647SOL    HW130715  13.282  13.856   7.607
 9647SOL    HW230716  13.379  13.971   7.611
 9648SOL     OW30717   5.937  13.238  11.926
 9648SOL    HW130718   5.864  13.300  11.919
 9648SOL    HW230719   6.013  13.287  11.892
 9649SOL     OW30720  13.443  14.255   5.519
 9649SOL    HW130721  13.388  14.310   5.463
 9649SOL    HW230722  13.387  14.231   5.592
 9650SOL     OW30723   9.546   4.488   0.610
 9650SOL    HW130724   9.564   4.481   0.516
 9650SOL    HW230725   9.621   4.446   0.652
 9651SOL     OW30726   8.939   9.587   7.504
 9651SOL    HW130727   8.918   9.680   7.494
 9651SOL    HW230728   8.857   9.542   7.487
 9652SOL     OW30729  14.881   6.364  12.727
 9652SOL    HW130730   0.011   6.336  12.636
 9652SOL    HW230731  14.818   6.301  12.763
 9653SOL     OW30732   6.249  12.232   2.522
 9653SOL    HW130733   6.158  12.257   2.541
 9653SOL    HW230734   6.278  12.186   2.601
 9654SOL     OW30735   0.252   3.550   4.488
 9654SOL    HW130736   0.298   3.571   4.569
 9654SOL    HW230737   0.300   3.476   4.452
 9655SOL     OW30738   4.805  13.730   7.164
 9655SOL    HW130739   4.822  13.700   7.075
 9655SOL    HW230740   4.714  13.759   7.163
 9656SOL     OW30741   0.417   2.246  14.614
 9656SOL    HW130742   0.389   2.269  14.703
 9656SOL    HW230743   0.433   2.152  14.617
 9657SOL     OW30744   0.120  13.899  11.802
 9657SOL    HW130745   0.044  13.956  11.801
 9657SOL    HW230746   0.084  13.811  11.813
 9658SOL     OW30747  13.590   3.946   6.568
 9658SOL    HW130748  13.668   3.984   6.609
 9658SOL    HW230749  13.517   3.995   6.605
 9659SOL     OW30750   4.224  11.169   7.339
 9659SOL    HW130751   4.308  11.196   7.376
 9659SOL    HW230752   4.235  11.077   7.317
 9660SOL     OW30753  12.129   4.066   7.112
 9660SOL    HW130754  12.157   3.983   7.074
 9660SOL    HW230755  12.208   4.120   7.111
 9661SOL     OW30756  10.594   6.612   0.550
 9661SOL    HW130757  10.631   6.700   0.556
 9661SOL    HW230758  10.653   6.565   0.491
 9662SOL     OW30759   6.471   2.961  11.303
 9662SOL    HW130760   6.447   3.028  11.239
 9662SOL    HW230761   6.394   2.905  11.309
 9663SOL     OW30762  12.106  13.241   4.795
 9663SOL    HW130763  12.136  13.303   4.861
 9663SOL    HW230764  12.014  13.225   4.816
 9664SOL     OW30765   9.281   7.651   2.186
 9664SOL    HW130766   9.262   7.577   2.244
 9664SOL    HW230767   9.202   7.705   2.189
 9665SOL     OW30768   3.751   2.832   0.811
 9665SOL    HW130769   3.797   2.829   0.728
 9665SOL    HW230770   3.814   2.873   0.872
 9666SOL     OW30771  10.447  12.776   8.268
 9666SOL    HW130772  10.475  12.697   8.313
 9666SOL    HW230773  10.388  12.820   8.329
 9667SOL     OW30774   4.970   1.897   2.393
 9667SOL    HW130775   4.979   1.903   2.488
 9667SOL    HW230776   5.033   1.830   2.366
 9668SOL     OW30777   1.989  11.899   1.268
 9668SOL    HW130778   1.951  11.868   1.186
 9668SOL    HW230779   1.937  11.977   1.290
 9669SOL     OW30780  12.283  14.825  11.506
 9669SOL    HW130781  12.363  14.861  11.545
 9669SOL    HW230782  12.220   0.015  11.510
 9670SOL     OW30783  11.155  10.334  14.151
 9670SOL    HW130784  11.156  10.320  14.246
 9670SOL    HW230785  11.193  10.421  14.139
 9671SOL     OW30786   7.844   3.602  13.231
 9671SOL    HW130787   7.765   3.559  13.200
 9671SOL    HW230788   7.813   3.678  13.279
 9672SOL     OW30789   2.010  11.659   9.243
 9672SOL    HW130790   2.055  11.577   9.259
 9672SOL    HW230791   1.926  11.634   9.205
 9673SOL     OW30792   7.143   8.461  13.324
 9673SOL    HW130793   7.177   8.448  13.235
 9673SOL    HW230794   7.048   8.469  13.311
 9674SOL     OW30795  11.100  14.044  14.050
 9674SOL    HW130796  11.193  14.064  14.036
 9674SOL    HW230797  11.083  14.072  14.140
 9675SOL     OW30798   6.682   0.976  10.059
 9675SOL    HW130799   6.738   0.901  10.082
 9675SOL    HW230800   6.687   0.981   9.964
 9676SOL     OW30801   4.905   4.715   2.298
 9676SOL    HW130802   4.981   4.675   2.256
 9676SOL    HW230803   4.911   4.808   2.276
 9677SOL     OW30804   9.493   9.480  13.126
 9677SOL    HW130805   9.552   9.546  13.090
 9677SOL    HW230806   9.407   9.503  13.090
 9678SOL     OW30807  13.826   1.218   6.059
 9678SOL    HW130808  13.845   1.255   5.973
 9678SOL    HW230809  13.735   1.243   6.076
 9679SOL     OW30810   1.006   8.567   4.609
 9679SOL    HW130811   1.021   8.658   4.586
 9679SOL    HW230812   0.916   8.550   4.581
 9680SOL     OW30813   6.060   5.052   2.883
 9680SOL    HW130814   6.081   5.048   2.977
 9680SOL    HW230815   5.977   5.099   2.879
 9681SOL     OW30816  13.035   0.083   8.199
 9681SOL    HW130817  12.969   0.070   8.131
 9681SOL    HW230818  12.984   0.087   8.280
 9682SOL     OW30819   3.389  12.451   0.995
 9682SOL    HW130820   3.340  12.404   1.062
 9682SOL    HW230821   3.469  12.398   0.983
 9683SOL     OW30822   0.980   6.571   2.331
 9683SOL    HW130823   0.939   6.606   2.252
 9683SOL    HW230824   0.944   6.483   2.340
 9684SOL     OW30825  10.707   1.211   0.916
 9684SOL    HW130826  10.650   1.155   0.968
 9684SOL    HW230827  10.794   1.202   0.956
 9685SOL     OW30828   7.260   6.436   4.646
 9685SOL    HW130829   7.166   6.428   4.666
 9685SOL    HW230830   7.286   6.518   4.686
 9686SOL     OW30831  10.003  12.154   7.841
 9686SOL    HW130832   9.943  12.130   7.771
 9686SOL    HW230833  10.058  12.077   7.853
 9687SOL     OW30834   5.869   8.806   2.565
 9687SOL    HW130835   5.835   8.751   2.635
 9687SOL    HW230836   5.802   8.802   2.497
 9688SOL     OW30837   2.548   7.840   0.690
 9688SOL    HW130838   2.503   7.887   0.761
 9688SOL    HW230839   2.635   7.822   0.725
 9689SOL     OW30840   2.224   6.618  10.782
 9689SOL    HW130841   2.223   6.704  10.824
 9689SOL    HW230842   2.311   6.584  10.799
 9690SOL     OW30843   8.875   3.695   2.784
 9690SOL    HW130844   8.863   3.643   2.704
 9690SOL    HW230845   8.847   3.637   2.854
 9691SOL     OW30846  10.343   8.028   2.912
 9691SOL    HW130847  10.276   7.977   2.866
 9691SOL    HW230848  10.425   7.985   2.888
 9692SOL     OW30849   8.756   6.627   2.861
 9692SOL    HW130850   8.824   6.615   2.794
 9692SOL    HW230851   8.674   6.609   2.815
 9693SOL     OW30852   5.363  14.811  12.340
 9693SOL    HW130853   5.415  14.731  12.339
 9693SOL    HW230854   5.427   0.000  12.348
 9694SOL     OW30855   7.185   6.266   1.841
 9694SOL    HW130856   7.114   6.230   1.895
 9694SOL    HW230857   7.208   6.195   1.781
 9695SOL     OW30858   0.921   8.255   0.632
 9695SOL    HW130859   0.869   8.202   0.693
 9695SOL    HW230860   1.012   8.236   0.655
 9696SOL     OW30861  12.372   7.206   3.413
 9696SOL    HW130862  12.452   7.156   3.427
 9696SOL    HW230863  12.310   7.143   3.377
 9697SOL     OW30864   3.358  13.123   6.756
 9697SOL    HW130865   3.407  13.133   6.838
 9697SOL    HW230866   3.280  13.074   6.781
 9698SOL     OW30867   0.949   2.101   1.954
 9698SOL    HW130868   1.015   2.138   2.013
 9698SOL    HW230869   0.868   2.102   2.005
 9699SOL     OW30870  13.031   0.570   8.972
 9699SOL    HW130871  12.944   0.533   8.957
 9699SOL    HW230872  13.059   0.535   9.057
 9700SOL     OW30873   1.361   4.174   0.390
 9700SOL    HW130874   1.394   4.202   0.476
 9700SOL    HW230875   1.320   4.089   0.407
 9701SOL     OW30876   6.189   2.824   1.882
 9701SOL    HW130877   6.154   2.789   1.799
 9701SOL    HW230878   6.218   2.912   1.860
 9702SOL     OW30879   2.968   8.837   6.035
 9702SOL    HW130880   2.940   8.776   5.967
 9702SOL    HW230881   2.894   8.898   6.043
 9703SOL     OW30882   6.871   7.397   9.223
 9703SOL    HW130883   6.835   7.446   9.297
 9703SOL    HW230884   6.902   7.464   9.162
 9704SOL     OW30885   7.544  14.296   6.673
 9704SOL    HW130886   7.501  14.327   6.753
 9704SOL    HW230887   7.558  14.203   6.689
 9705SOL     OW30888   3.807  11.156   8.515
 9705SOL    HW130889   3.870  11.113   8.572
 9705SOL    HW230890   3.857  11.225   8.472
 9706SOL     OW30891  11.265   0.373  12.655
 9706SOL    HW130892  11.334   0.360  12.590
 9706SOL    HW230893  11.305   0.347  12.738
 9707SOL     OW30894  14.801   0.156  12.836
 9707SOL    HW130895  14.708   0.138  12.847
 9707SOL    HW230896  14.837   0.156  12.925
 9708SOL     OW30897   2.693   0.092  11.038
 9708SOL    HW130898   2.776   0.060  11.002
 9708SOL    HW230899   2.667   0.163  10.980
 9709SOL     OW30900   4.915   3.938   3.563
 9709SOL    HW130901   4.866   3.874   3.614
 9709SOL    HW230902   4.921   4.015   3.620
 9710SOL     OW30903   5.518   0.956   1.213
 9710SOL    HW130904   5.583   0.899   1.173
 9710SOL    HW230905   5.562   0.994   1.289
 9711SOL     OW30906  13.974   5.413   1.125
 9711SOL    HW130907  14.059   5.407   1.170
 9711SOL    HW230908  13.982   5.490   1.069
 9712SOL     OW30909   0.898  10.304   5.207
 9712SOL    HW130910   0.817  10.253   5.216
 9712SOL    HW230911   0.887  10.377   5.268
 9713SOL     OW30912   3.808   4.188   7.060
 9713SOL    HW130913   3.855   4.197   7.143
 9713SOL    HW230914   3.811   4.095   7.041
 9714SOL     OW30915   8.125  11.720   6.993
 9714SOL    HW130916   8.213  11.702   7.027
 9714SOL    HW230917   8.122  11.677   6.908
 9715SOL     OW30918   9.292   6.565   6.243
 9715SOL    HW130919   9.284   6.645   6.190
 9715SOL    HW230920   9.202   6.535   6.256
 9716SOL     OW30921   6.173   1.761  13.472
 9716SOL    HW130922   6.228   1.749  13.394
 9716SOL    HW230923   6.122   1.839  13.453
 9717SOL     OW30924   7.050   0.668  14.689
 9717SOL    HW130925   7.140   0.702  14.688
 9717SOL    HW230926   7.024   0.667  14.597
 9718SOL     OW30927   4.859   9.088   7.605
 9718SOL    HW130928   4.954   9.084   7.605
 9718SOL    HW230929   4.831   9.013   7.552
 9719SOL     OW30930   4.054  14.241   9.432
 9719SOL    HW130931   4.076  14.217   9.522
 9719SOL    HW230932   4.092  14.171   9.379
 9720SOL     OW30933  12.975   3.330   8.530
 9720SOL    HW130934  12.956   3.423   8.526
 9720SOL    HW230935  13.049   3.317   8.470
 9721SOL     OW30936   8.244   8.070   9.223
 9721SOL    HW130937   8.258   8.127   9.299
 9721SOL    HW230938   8.162   8.026   9.241
 9722SOL     OW30939   7.711   4.295   6.115
 9722SOL    HW130940   7.715   4.312   6.210
 9722SOL    HW230941   7.798   4.319   6.083
 9723SOL     OW30942   6.738  12.319   5.820
 9723SOL    HW130943   6.722  12.280   5.906
 9723SOL    HW230944   6.790  12.398   5.839
 9724SOL     OW30945   2.605   5.444  14.129
 9724SOL    HW130946   2.557   5.401  14.058
 9724SOL    HW230947   2.582   5.392  14.207
 9725SOL     OW30948   7.294   3.983   2.121
 9725SOL    HW130949   7.231   3.911   2.126
 9725SOL    HW230950   7.307   4.011   2.211
 9726SOL     OW30951   0.613  14.355   0.515
 9726SOL    HW130952   0.581  14.270   0.546
 9726SOL    HW230953   0.698  14.365   0.559
 9727SOL     OW30954  10.187   5.600   7.817
 9727SOL    HW130955  10.152   5.686   7.794
 9727SOL    HW230956  10.250   5.580   7.748
 9728SOL     OW30957  11.755  13.402   4.231
 9728SOL    HW130958  11.788  13.317   4.202
 9728SOL    HW230959  11.663  13.404   4.204
 9729SOL     OW30960  10.574  10.942  11.350
 9729SOL    HW130961  10.499  10.943  11.410
 9729SOL    HW230962  10.598  11.035  11.342
 9730SOL     OW30963  13.484   5.107   7.755
 9730SOL    HW130964  13.476   5.031   7.697
 9730SOL    HW230965  13.394   5.132   7.774
 9731SOL     OW30966  13.008   7.307   2.982
 9731SOL    HW130967  13.098   7.290   2.958
 9731SOL    HW230968  13.010   7.318   3.077
 9732SOL     OW30969   3.287   3.408   5.295
 9732SOL    HW130970   3.265   3.367   5.379
 9732SOL    HW230971   3.382   3.401   5.289
 9733SOL     OW30972  12.163   6.090  10.344
 9733SOL    HW130973  12.088   6.146  10.322
 9733SOL    HW230974  12.232   6.152  10.368
 9734SOL     OW30975  14.100   5.690   3.436
 9734SOL    HW130976  14.162   5.683   3.509
 9734SOL    HW230977  14.089   5.784   3.424
 9735SOL     OW30978   8.280  12.988   3.192
 9735SOL    HW130979   8.250  13.005   3.103
 9735SOL    HW230980   8.361  12.938   3.182
 9736SOL     OW30981  14.657  12.735   3.791
 9736SOL    HW130982  14.709  12.807   3.826
 9736SOL    HW230983  14.622  12.691   3.868
 9737SOL     OW30984   8.825  12.207   7.979
 9737SOL    HW130985   8.809  12.295   8.015
 9737SOL    HW230986   8.803  12.148   8.051
 9738SOL     OW30987   8.922  12.355  11.236
 9738SOL    HW130988   8.889  12.410  11.307
 9738SOL    HW230989   9.016  12.347  11.254
 9739SOL     OW30990   7.614   0.893   4.590
 9739SOL    HW130991   7.559   0.943   4.650
 9739SOL    HW230992   7.673   0.958   4.552
 9740SOL     OW30993   5.666  10.486  14.568
 9740SOL    HW130994   5.679  10.568  14.615
 9740SOL    HW230995   5.639  10.513  14.480
 9741SOL     OW30996   9.395   2.381   3.603
 9741SOL    HW130997   9.301   2.400   3.591
 9741SOL    HW230998   9.439   2.462   3.577
 9742SOL     OW30999   1.379  14.390  10.739
 9742SOL    HW131000   1.406  14.311  10.693
 9742SOL    HW231001   1.306  14.362  10.794
 9743SOL     OW31002   9.742   4.693  11.761
 9743SOL    HW131003   9.680   4.637  11.714
 9743SOL    HW231004   9.687   4.752  11.812
 9744SOL     OW31005   3.753  14.148   2.332
 9744SOL    HW131006   3.789  14.213   2.393
 9744SOL    HW231007   3.658  14.155   2.344
 9745SOL     OW31008   2.689   8.053  13.612
 9745SOL    HW131009   2.720   7.989  13.547
 9745SOL    HW231010   2.753   8.047  13.683
 9746SOL     OW31011   3.591   0.852   8.593
 9746SOL    HW131012   3.519   0.791   8.585
 9746SOL    HW231013   3.591   0.901   8.511
 9747SOL     OW31014   1.238   2.534   0.009
 9747SOL    HW131015   1.329   2.516  14.868
 9747SOL    HW231016   1.187   2.492  14.822
 9748SOL     OW31017  11.422   7.097   8.972
 9748SOL    HW131018  11.514   7.122   8.981
 9748SOL    HW231019  11.383   7.168   8.921
 9749SOL     OW31020  13.039   3.729   4.839
 9749SOL    HW131021  12.963   3.701   4.789
 9749SOL    HW231022  13.108   3.667   4.816
 9750SOL     OW31023  12.367   6.540  11.950
 9750SOL    HW131024  12.458   6.565  11.963
 9750SOL    HW231025  12.370   6.445  11.936
 9751SOL     OW31026  10.659   0.502   1.647
 9751SOL    HW131027  10.625   0.454   1.723
 9751SOL    HW231028  10.646   0.443   1.573
 9752SOL     OW31029   9.538  12.828  12.520
 9752SOL    HW131030   9.594  12.765  12.476
 9752SOL    HW231031   9.452  12.817  12.479
 9753SOL     OW31032   5.700  14.647   0.607
 9753SOL    HW131033   5.703  14.614   0.517
 9753SOL    HW231034   5.785  14.622   0.644
 9754SOL     OW31035   8.692   5.126   0.195
 9754SOL    HW131036   8.607   5.082   0.194
 9754SOL    HW231037   8.756   5.056   0.187
 9755SOL     OW31038  12.506   2.695   9.214
 9755SOL    HW131039  12.486   2.671   9.123
 9755SOL    HW231040  12.457   2.777   9.228
 9756SOL     OW31041  11.404   7.594  13.387
 9756SOL    HW131042  11.477   7.556  13.338
 9756SOL    HW231043  11.445   7.637  13.462
 9757SOL     OW31044  11.694   1.315   8.320
 9757SOL    HW131045  11.787   1.318   8.343
 9757SOL    HW231046  11.688   1.248   8.252
 9758SOL     OW31047   8.385  12.364   7.957
 9758SOL    HW131048   8.298  12.328   7.974
 9758SOL    HW231049   8.390  12.441   8.014
 9759SOL     OW31050   2.828  11.813  10.392
 9759SOL    HW131051   2.748  11.863  10.409
 9759SOL    HW231052   2.799  11.737  10.342
 9760SOL     OW31053   6.904   3.245   0.883
 9760SOL    HW131054   6.877   3.185   0.814
 9760SOL    HW231055   6.848   3.322   0.872
 9761SOL     OW31056   2.337   5.306   7.573
 9761SOL    HW131057   2.306   5.311   7.483
 9761SOL    HW231058   2.429   5.329   7.569
 9762SOL     OW31059   4.516   8.850  13.892
 9762SOL    HW131060   4.466   8.913  13.943
 9762SOL    HW231061   4.606   8.859  13.924
 9763SOL     OW31062   5.535  11.593   9.725
 9763SOL    HW131063   5.468  11.576   9.659
 9763SOL    HW231064   5.485  11.622   9.802
 9764SOL     OW31065  14.194   1.803  11.881
 9764SOL    HW131066  14.131   1.817  11.951
 9764SOL    HW231067  14.274   1.845  11.912
 9765SOL     OW31068  10.362   6.251   3.900
 9765SOL    HW131069  10.378   6.342   3.875
 9765SOL    HW231070  10.441   6.204   3.872
 9766SOL     OW31071   4.472  11.216  14.733
 9766SOL    HW131072   4.474  11.277  14.806
 9766SOL    HW231073   4.517  11.262  14.662
 9767SOL     OW31074  13.953   4.255   9.155
 9767SOL    HW131075  13.953   4.232   9.248
 9767SOL    HW231076  13.866   4.292   9.139
 9768SOL     OW31077   1.752   6.433  14.291
 9768SOL    HW131078   1.846   6.447  14.302
 9768SOL    HW231079   1.714   6.458  14.375
 9769SOL     OW31080   5.963   5.539  12.806
 9769SOL    HW131081   5.970   5.582  12.721
 9769SOL    HW231082   6.054   5.523  12.832
 9770SOL     OW31083   2.983   7.168   9.098
 9770SOL    HW131084   3.007   7.247   9.147
 9770SOL    HW231085   2.889   7.159   9.113
 9771SOL     OW31086   4.877  12.958   8.057
 9771SOL    HW131087   4.888  12.863   8.052
 9771SOL    HW231088   4.962  12.990   8.088
 9772SOL     OW31089   8.365   2.565   3.366
 9772SOL    HW131090   8.376   2.478   3.327
 9772SOL    HW231091   8.279   2.595   3.336
 9773SOL     OW31092   0.706   9.584   3.426
 9773SOL    HW131093   0.801   9.594   3.417
 9773SOL    HW231094   0.686   9.622   3.511
 9774SOL     OW31095   5.129   4.268   6.497
 9774SOL    HW131096   5.072   4.205   6.455
 9774SOL    HW231097   5.115   4.350   6.449
 9775SOL     OW31098   8.089   9.620   6.515
 9775SOL    HW131099   8.128   9.708   6.517
 9775SOL    HW231100   8.161   9.563   6.486
 9776SOL     OW31101   4.157   3.208  10.169
 9776SOL    HW131102   4.191   3.240  10.253
 9776SOL    HW231103   4.231   3.165  10.127
 9777SOL     OW31104   1.051  13.146  13.860
 9777SOL    HW131105   1.140  13.142  13.897
 9777SOL    HW231106   1.046  13.071  13.801
 9778SOL     OW31107  14.456  11.541  14.026
 9778SOL    HW131108  14.540  11.527  13.982
 9778SOL    HW231109  14.473  11.612  14.088
 9779SOL     OW31110  10.197  10.823   3.076
 9779SOL    HW131111  10.213  10.881   3.001
 9779SOL    HW231112  10.173  10.740   3.036
 9780SOL     OW31113   1.674   8.157  12.020
 9780SOL    HW131114   1.766   8.134  12.034
 9780SOL    HW231115   1.668   8.249  12.044
 9781SOL     OW31116  10.688   1.500   3.389
 9781SOL    HW131117  10.767   1.482   3.338
 9781SOL    HW231118  10.665   1.415   3.427
 9782SOL     OW31119   9.930   9.351   5.403
 9782SOL    HW131120   9.900   9.321   5.489
 9782SOL    HW231121  10.009   9.401   5.422
 9783SOL     OW31122   0.919  10.636   3.083
 9783SOL    HW131123   0.836  10.647   3.037
 9783SOL    HW231124   0.974  10.708   3.053
 9784SOL     OW31125   9.100  12.328   0.613
 9784SOL    HW131126   9.165  12.326   0.542
 9784SOL    HW231127   9.052  12.246   0.604
 9785SOL     OW31128   2.785   1.920   9.623
 9785SOL    HW131129   2.703   1.940   9.668
 9785SOL    HW231130   2.805   1.998   9.573
 9786SOL     OW31131  10.217  10.785   9.163
 9786SOL    HW131132  10.231  10.694   9.186
 9786SOL    HW231133  10.303  10.815   9.132
 9787SOL     OW31134   0.749  10.649   7.152
 9787SOL    HW131135   0.741  10.737   7.189
 9787SOL    HW231136   0.739  10.661   7.058
 9788SOL     OW31137   0.956   9.640   1.976
 9788SOL    HW131138   0.968   9.591   2.057
 9788SOL    HW231139   0.959   9.574   1.907
 9789SOL     OW31140   8.454   8.989  13.832
 9789SOL    HW131141   8.509   9.057  13.872
 9789SOL    HW231142   8.467   9.000  13.738
 9790SOL     OW31143   9.176   2.747  12.390
 9790SOL    HW131144   9.147   2.751  12.481
 9790SOL    HW231145   9.121   2.811  12.344
 9791SOL     OW31146   1.554  11.312  11.398
 9791SOL    HW131147   1.532  11.402  11.374
 9791SOL    HW231148   1.600  11.277  11.321
 9792SOL     OW31149   0.627  10.155   5.303
 9792SOL    HW131150   0.671  10.095   5.364
 9792SOL    HW231151   0.580  10.097   5.243
 9793SOL     OW31152  10.539  13.247   5.506
 9793SOL    HW131153  10.601  13.177   5.528
 9793SOL    HW231154  10.518  13.287   5.590
 9794SOL     OW31155   3.172  14.856  10.852
 9794SOL    HW131156   3.178   0.023  10.935
 9794SOL    HW231157   3.204  14.768  10.874
 9795SOL     OW31158   7.725   3.884  10.527
 9795SOL    HW131159   7.682   3.935  10.459
 9795SOL    HW231160   7.658   3.824  10.558
 9796SOL     OW31161   4.018   4.134  13.166
 9796SOL    HW131162   3.948   4.076  13.197
 9796SOL    HW231163   4.062   4.164  13.245
 9797SOL     OW31164   4.739   7.004  11.104
 9797SOL    HW131165   4.681   7.035  11.174
 9797SOL    HW231166   4.728   6.909  11.104
 9798SOL     OW31167   6.401  13.545   2.218
 9798SOL    HW131168   6.449  13.606   2.273
 9798SOL    HW231169   6.399  13.464   2.268
 9799SOL     OW31170   6.038  14.728  12.289
 9799SOL    HW131171   6.035  14.817  12.324
 9799SOL    HW231172   6.129  14.700  12.302
 9800SOL     OW31173   6.319   2.279   2.064
 9800SOL    HW131174   6.374   2.330   2.005
 9800SOL    HW231175   6.293   2.341   2.132
 9801SOL     OW31176   1.944   0.447  11.587
 9801SOL    HW131177   1.885   0.387  11.633
 9801SOL    HW231178   1.889   0.486  11.518
 9802SOL     OW31179   9.437   1.355   4.980
 9802SOL    HW131180   9.451   1.388   5.069
 9802SOL    HW231181   9.472   1.265   4.983
 9803SOL     OW31182   3.969  14.658   3.015
 9803SOL    HW131183   3.892  14.666   2.959
 9803SOL    HW231184   4.031  14.607   2.963
 9804SOL     OW31185  14.526  12.453  10.757
 9804SOL    HW131186  14.529  12.536  10.804
 9804SOL    HW231187  14.457  12.465  10.691
 9805SOL     OW31188   0.900  14.141   0.901
 9805SOL    HW131189   0.884  14.169   0.811
 9805SOL    HW231190   0.825  14.087   0.923
 9806SOL     OW31191   4.239  14.786   1.527
 9806SOL    HW131192   4.196  14.754   1.448
 9806SOL    HW231193   4.176  14.771   1.597
 9807SOL     OW31194   7.635  12.137   7.587
 9807SOL    HW131195   7.710  12.162   7.532
 9807SOL    HW231196   7.625  12.043   7.573
 9808SOL     OW31197   5.620  13.924   0.429
 9808SOL    HW131198   5.574  14.000   0.463
 9808SOL    HW231199   5.652  13.951   0.343
 9809SOL     OW31200  12.192   2.759  12.213
 9809SOL    HW131201  12.179   2.672  12.251
 9809SOL    HW231202  12.209   2.816  12.287
 9810SOL     OW31203  10.619   0.420   3.140
 9810SOL    HW131204  10.561   0.449   3.211
 9810SOL    HW231205  10.706   0.450   3.166
 9811SOL     OW31206   4.625  10.165   5.845
 9811SOL    HW131207   4.604  10.078   5.812
 9811SOL    HW231208   4.544  10.214   5.837
 9812SOL     OW31209  11.377   9.401  10.058
 9812SOL    HW131210  11.328   9.376  10.136
 9812SOL    HW231211  11.441   9.465  10.089
 9813SOL     OW31212  10.811  12.864   5.823
 9813SOL    HW131213  10.855  12.861   5.908
 9813SOL    HW231214  10.818  12.775   5.789
 9814SOL     OW31215  12.380  14.131  11.049
 9814SOL    HW131216  12.400  14.170  11.134
 9814SOL    HW231217  12.318  14.061  11.068
 9815SOL     OW31218   4.014   0.977   4.109
 9815SOL    HW131219   4.007   1.040   4.036
 9815SOL    HW231220   4.105   0.984   4.137
 9816SOL     OW31221   0.431  14.157   0.158
 9816SOL    HW131222   0.381  14.174   0.078
 9816SOL    HW231223   0.446  14.243   0.197
 9817SOL     OW31224   9.692   6.042   2.402
 9817SOL    HW131225   9.755   6.110   2.376
 9817SOL    HW231226   9.689   6.048   2.497
 9818SOL     OW31227   5.066   6.036   9.406
 9818SOL    HW131228   5.044   5.944   9.418
 9818SOL    HW231229   5.102   6.063   9.490
 9819SOL     OW31230  12.453  13.294   0.351
 9819SOL    HW131231  12.412  13.360   0.408
 9819SOL    HW231232  12.535  13.335   0.322
 9820SOL     OW31233   3.144   0.895   8.195
 9820SOL    HW131234   3.158   0.854   8.110
 9820SOL    HW231235   3.072   0.845   8.234
 9821SOL     OW31236   5.881   3.686  14.748
 9821SOL    HW131237   5.797   3.723  14.719
 9821SOL    HW231238   5.907   3.741  14.822
 9822SOL     OW31239   9.877   8.401  14.371
 9822SOL    HW131240   9.857   8.407  14.278
 9822SOL    HW231241   9.839   8.480  14.409
 9823SOL     OW31242   8.204   0.635   2.607
 9823SOL    HW131243   8.282   0.613   2.557
 9823SOL    HW231244   8.237   0.671   2.690
 9824SOL     OW31245  12.565   5.762   8.110
 9824SOL    HW131246  12.556   5.824   8.038
 9824SOL    HW231247  12.621   5.693   8.076
 9825SOL     OW31248   2.095   4.233  14.880
 9825SOL    HW131249   2.092   4.325   0.026
 9825SOL    HW231250   2.094   4.237  14.784
 9826SOL     OW31251  12.619   9.138   7.341
 9826SOL    HW131252  12.663   9.157   7.258
 9826SOL    HW231253  12.583   9.050   7.329
 9827SOL     OW31254  10.506  11.034   1.133
 9827SOL    HW131255  10.496  11.119   1.090
 9827SOL    HW231256  10.588  11.042   1.182
 9828SOL     OW31257   1.454   5.517   2.914
 9828SOL    HW131258   1.492   5.492   2.998
 9828SOL    HW231259   1.489   5.454   2.852
 9829SOL     OW31260   5.658   8.705  13.979
 9829SOL    HW131261   5.709   8.777  13.943
 9829SOL    HW231262   5.571   8.742  13.993
 9830SOL     OW31263  12.597   9.806  12.866
 9830SOL    HW131264  12.643   9.743  12.811
 9830SOL    HW231265  12.505   9.778  12.863
 9831SOL     OW31266   4.043   0.244  13.198
 9831SOL    HW131267   4.030   0.308  13.268
 9831SOL    HW231268   4.129   0.207  13.215
 9832SOL     OW31269  13.111  12.793   1.297
 9832SOL    HW131270  13.052  12.837   1.235
 9832SOL    HW231271  13.147  12.720   1.247
 9833SOL     OW31272  13.716   5.400   6.594
 9833SOL    HW131273  13.732   5.494   6.584
 9833SOL    HW231274  13.621   5.393   6.606
 9834SOL     OW31275   1.779   0.643   9.505
 9834SOL    HW131276   1.795   0.653   9.411
 9834SOL    HW231277   1.866   0.634   9.544
 9835SOL     OW31278   9.407   8.608   8.846
 9835SOL    HW131279   9.354   8.561   8.911
 9835SOL    HW231280   9.363   8.592   8.763
 9836SOL     OW31281   0.871   9.130   4.277
 9836SOL    HW131282   0.933   9.188   4.234
 9836SOL    HW231283   0.898   9.042   4.252
 9837SOL     OW31284   5.993   9.279   6.295
 9837SOL    HW131285   6.050   9.232   6.235
 9837SOL    HW231286   5.955   9.211   6.350
 9838SOL     OW31287  13.228   5.176   3.428
 9838SOL    HW131288  13.242   5.191   3.334
 9838SOL    HW231289  13.297   5.226   3.471
 9839SOL     OW31290   4.227   1.559  10.452
 9839SOL    HW131291   4.192   1.555  10.541
 9839SOL    HW231292   4.322   1.565  10.464
 9840SOL     OW31293  10.453   8.247  10.100
 9840SOL    HW131294  10.403   8.183  10.151
 9840SOL    HW231295  10.392   8.319  10.087
 9841SOL     OW31296  13.565  12.701   8.937
 9841SOL    HW131297  13.660  12.687   8.928
 9841SOL    HW231298  13.552  12.711   9.031
 9842SOL     OW31299   1.873   0.851   6.124
 9842SOL    HW131300   1.871   0.923   6.186
 9842SOL    HW231301   1.892   0.892   6.040
 9843SOL     OW31302   3.510   3.824  12.330
 9843SOL    HW131303   3.588   3.830  12.275
 9843SOL    HW231304   3.440   3.799  12.270
 9844SOL     OW31305  14.459   2.141   8.570
 9844SOL    HW131306  14.488   2.086   8.643
 9844SOL    HW231307  14.491   2.229   8.593
 9845SOL     OW31308   5.592  10.410   5.146
 9845SOL    HW131309   5.651  10.465   5.197
 9845SOL    HW231310   5.602  10.441   5.056
 9846SOL     OW31311   2.995   0.780   9.233
 9846SOL    HW131312   2.932   0.821   9.293
 9846SOL    HW231313   3.066   0.844   9.225
 9847SOL     OW31314   9.541   7.657   5.085
 9847SOL    HW131315   9.518   7.738   5.130
 9847SOL    HW231316   9.458   7.613   5.069
 9848SOL     OW31317  12.311   6.605  14.267
 9848SOL    HW131318  12.352   6.691  14.272
 9848SOL    HW231319  12.380   6.547  14.236
 9849SOL     OW31320   2.579  11.632   5.239
 9849SOL    HW131321   2.533  11.597   5.163
 9849SOL    HW231322   2.672  11.624   5.216
 9850SOL     OW31323  14.431  10.582   6.527
 9850SOL    HW131324  14.495  10.596   6.458
 9850SOL    HW231325  14.415  10.669   6.563
 9851SOL     OW31326  13.056   7.350   7.941
 9851SOL    HW131327  13.120   7.403   7.892
 9851SOL    HW231328  13.109   7.302   8.005
 9852SOL     OW31329   1.598  11.628  11.076
 9852SOL    HW131330   1.552  11.708  11.102
 9852SOL    HW231331   1.649  11.604  11.154
 9853SOL     OW31332   5.720   0.134   5.085
 9853SOL    HW131333   5.634   0.106   5.118
 9853SOL    HW231334   5.702   0.165   4.996
 9854SOL     OW31335   1.041   8.499   8.766
 9854SOL    HW131336   1.081   8.426   8.720
 9854SOL    HW231337   0.957   8.465   8.797
 9855SOL     OW31338  10.561   7.772   5.689
 9855SOL    HW131339  10.488   7.827   5.658
 9855SOL    HW231340  10.542   7.759   5.782
 9856SOL     OW31341   8.320   2.639  14.184
 9856SOL    HW131342   8.330   2.709  14.249
 9856SOL    HW231343   8.242   2.592  14.213
 9857SOL     OW31344   0.299  11.044  13.498
 9857SOL    HW131345   0.253  10.968  13.533
 9857SOL    HW231346   0.390  11.032  13.526
 9858SOL     OW31347   2.373   2.410  14.840
 9858SOL    HW131348   2.382   2.413  14.745
 9858SOL    HW231349   2.375   2.501  14.867
 9859SOL     OW31350   0.846   7.582   0.829
 9859SOL    HW131351   0.927   7.628   0.854
 9859SOL    HW231352   0.777   7.647   0.840
 9860SOL     OW31353  11.452   6.417   3.762
 9860SOL    HW131354  11.436   6.332   3.720
 9860SOL    HW231355  11.511   6.396   3.835
 9861SOL     OW31356  14.300   0.479   7.248
 9861SOL    HW131357  14.309   0.399   7.299
 9861SOL    HW231358  14.335   0.548   7.304
 9862SOL     OW31359   3.275   2.572   1.242
 9862SOL    HW131360   3.292   2.666   1.235
 9862SOL    HW231361   3.327   2.533   1.171
 9863SOL     OW31362   4.474   2.977   0.960
 9863SOL    HW131363   4.443   2.955   1.048
 9863SOL    HW231364   4.517   2.898   0.929
 9864SOL     OW31365  12.672   8.348   2.968
 9864SOL    HW131366  12.679   8.258   2.934
 9864SOL    HW231367  12.579   8.360   2.986
 9865SOL     OW31368  10.954   8.193   7.909
 9865SOL    HW131369  10.900   8.115   7.918
 9865SOL    HW231370  10.993   8.186   7.822
 9866SOL     OW31371  14.839   7.739   7.789
 9866SOL    HW131372  14.876   7.651   7.786
 9866SOL    HW231373   0.021   7.790   7.840
 9867SOL     OW31374  14.081  13.947   9.505
 9867SOL    HW131375  14.028  14.020   9.536
 9867SOL    HW231376  14.018  13.879   9.481
 9868SOL     OW31377   0.973   3.936  11.784
 9868SOL    HW131378   1.025   3.950  11.863
 9868SOL    HW231379   1.036   3.909  11.717
 9869SOL     OW31380   1.924   2.902   8.582
 9869SOL    HW131381   1.844   2.850   8.591
 9869SOL    HW231382   1.899   2.990   8.609
 9870SOL     OW31383   8.449   5.318  11.174
 9870SOL    HW131384   8.541   5.303  11.153
 9870SOL    HW231385   8.404   5.239  11.144
 9871SOL     OW31386   4.655   0.980   8.203
 9871SOL    HW131387   4.572   1.010   8.239
 9871SOL    HW231388   4.720   1.001   8.271
 9872SOL     OW31389  11.169   0.698  14.157
 9872SOL    HW131390  11.098   0.693  14.093
 9872SOL    HW231391  11.187   0.606  14.178
 9873SOL     OW31392   4.734  13.600  12.915
 9873SOL    HW131393   4.645  13.606  12.951
 9873SOL    HW231394   4.722  13.559  12.830
 9874SOL     OW31395   3.789  11.452   4.107
 9874SOL    HW131396   3.865  11.509   4.111
 9874SOL    HW231397   3.772  11.442   4.014
 9875SOL     OW31398  14.801  11.382  12.932
 9875SOL    HW131399  14.833  11.335  12.854
 9875SOL    HW231400  14.868  11.364  12.998
 9876SOL     OW31401   8.392   8.243   5.836
 9876SOL    HW131402   8.365   8.267   5.748
 9876SOL    HW231403   8.318   8.266   5.892
 9877SOL     OW31404   9.211   4.916  10.750
 9877SOL    HW131405   9.154   4.839  10.751
 9877SOL    HW231406   9.293   4.885  10.712
 9878SOL     OW31407   6.658  12.471  13.419
 9878SOL    HW131408   6.732  12.455  13.361
 9878SOL    HW231409   6.585  12.493  13.361
 9879SOL     OW31410   9.081   1.351   0.979
 9879SOL    HW131411   9.081   1.316   0.890
 9879SOL    HW231412   9.052   1.278   1.034
 9880SOL     OW31413  13.857  11.950   5.232
 9880SOL    HW131414  13.931  12.007   5.256
 9880SOL    HW231415  13.797  11.957   5.306
 9881SOL     OW31416   2.420   8.781  12.439
 9881SOL    HW131417   2.492   8.837  12.469
 9881SOL    HW231418   2.364   8.771  12.517
 9882SOL     OW31419   5.575   7.141   4.304
 9882SOL    HW131420   5.602   7.120   4.393
 9882SOL    HW231421   5.580   7.237   4.300
 9883SOL     OW31422   7.180  12.905   6.441
 9883SOL    HW131423   7.134  12.945   6.367
 9883SOL    HW231424   7.145  12.816   6.444
 9884SOL     OW31425   2.046   1.959   9.191
 9884SOL    HW131426   2.103   1.988   9.120
 9884SOL    HW231427   1.967   2.011   9.182
 9885SOL     OW31428   9.447   2.254   6.604
 9885SOL    HW131429   9.373   2.199   6.577
 9885SOL    HW231430   9.468   2.223   6.692
 9886SOL     OW31431   9.941  10.788   0.983
 9886SOL    HW131432   9.996  10.771   0.906
 9886SOL    HW231433   9.964  10.878   1.008
 9887SOL     OW31434   2.258   9.966  14.076
 9887SOL    HW131435   2.225  10.040  14.024
 9887SOL    HW231436   2.316  10.006  14.140
 9888SOL     OW31437  13.402   2.322  10.121
 9888SOL    HW131438  13.395   2.418  10.129
 9888SOL    HW231439  13.411   2.291  10.211
 9889SOL     OW31440   2.547  13.577  11.857
 9889SOL    HW131441   2.527  13.493  11.814
 9889SOL    HW231442   2.601  13.553  11.932
 9890SOL     OW31443   9.198  10.651   3.520
 9890SOL    HW131444   9.112  10.610   3.525
 9890SOL    HW231445   9.192  10.729   3.575
 9891SOL     OW31446  14.430   4.616  10.985
 9891SOL    HW131447  14.464   4.580  10.903
 9891SOL    HW231448  14.491   4.684  11.009
 9892SOL     OW31449   7.484  12.355   1.151
 9892SOL    HW131450   7.516  12.403   1.227
 9892SOL    HW231451   7.408  12.306   1.184
 9893SOL     OW31452   9.513   4.251  14.561
 9893SOL    HW131453   9.489   4.180  14.501
 9893SOL    HW231454   9.436   4.308  14.563
 9894SOL     OW31455  14.004   3.952  11.963
 9894SOL    HW131456  14.068   3.926  11.897
 9894SOL    HW231457  13.963   3.870  11.991
 9895SOL     OW31458   9.233  14.121   8.850
 9895SOL    HW131459   9.168  14.060   8.886
 9895SOL    HW231460   9.295  14.134   8.921
 9896SOL     OW31461  11.259   5.363   3.799
 9896SOL    HW131462  11.222   5.435   3.851
 9896SOL    HW231463  11.320   5.407   3.739
 9897SOL     OW31464  12.673  12.382   2.764
 9897SOL    HW131465  12.646  12.386   2.856
 9897SOL    HW231466  12.625  12.308   2.729
 9898SOL     OW31467  11.653  10.684   4.982
 9898SOL    HW131468  11.607  10.700   5.064
 9898SOL    HW231469  11.727  10.628   5.006
 9899SOL     OW31470   7.213   6.549  11.378
 9899SOL    HW131471   7.152   6.531  11.450
 9899SOL    HW231472   7.177   6.627  11.335
 9900SOL     OW31473   9.953   8.302   0.527
 9900SOL    HW131474   9.870   8.344   0.508
 9900SOL    HW231475   9.937   8.209   0.511
 9901SOL     OW31476   5.935   8.842   9.306
 9901SOL    HW131477   5.935   8.764   9.361
 9901SOL    HW231478   5.859   8.832   9.250
 9902SOL     OW31479   0.607   8.762  11.582
 9902SOL    HW131480   0.623   8.805  11.666
 9902SOL    HW231481   0.607   8.832  11.518
 9903SOL     OW31482   1.178   9.727   4.269
 9903SOL    HW131483   1.203   9.666   4.339
 9903SOL    HW231484   1.098   9.689   4.233
 9904SOL     OW31485   6.153   6.870   3.917
 9904SOL    HW131486   6.189   6.957   3.908
 9904SOL    HW231487   6.173   6.826   3.834
 9905SOL     OW31488   5.606   4.634  13.177
 9905SOL    HW131489   5.678   4.571  13.181
 9905SOL    HW231490   5.646   4.719  13.192
 9906SOL     OW31491  13.503  10.860   2.256
 9906SOL    HW131492  13.470  10.842   2.343
 9906SOL    HW231493  13.445  10.811   2.197
 9907SOL     OW31494   6.678   4.789   2.679
 9907SOL    HW131495   6.714   4.868   2.639
 9907SOL    HW231496   6.599   4.818   2.725
 9908SOL     OW31497  10.175   1.666   1.167
 9908SOL    HW131498  10.138   1.584   1.201
 9908SOL    HW231499  10.100   1.712   1.131
 9909SOL     OW31500   1.756   3.627  14.535
 9909SOL    HW131501   1.745   3.574  14.614
 9909SOL    HW231502   1.749   3.717  14.565
 9910SOL     OW31503   6.311   8.134   5.866
 9910SOL    HW131504   6.279   8.045   5.855
 9910SOL    HW231505   6.363   8.131   5.946
 9911SOL     OW31506   4.318   3.175   7.109
 9911SOL    HW131507   4.315   3.081   7.094
 9911SOL    HW231508   4.329   3.184   7.203
 9912SOL     OW31509   4.277   2.895   6.385
 9912SOL    HW131510   4.235   2.868   6.466
 9912SOL    HW231511   4.242   2.982   6.367
 9913SOL     OW31512  12.361   4.396   5.564
 9913SOL    HW131513  12.398   4.350   5.640
 9913SOL    HW231514  12.299   4.458   5.602
 9914SOL     OW31515   7.542  13.989  12.525
 9914SOL    HW131516   7.594  13.955  12.452
 9914SOL    HW231517   7.553  13.925  12.595
 9915SOL     OW31518  10.363  13.603   1.543
 9915SOL    HW131519  10.278  13.569   1.516
 9915SOL    HW231520  10.360  13.696   1.521
 9916SOL     OW31521   4.295   6.991   0.051
 9916SOL    HW131522   4.331   6.949   0.129
 9916SOL    HW231523   4.225   7.046   0.084
 9917SOL     OW31524   4.485   9.448   4.115
 9917SOL    HW131525   4.501   9.443   4.021
 9917SOL    HW231526   4.463   9.539   4.131
 9918SOL     OW31527   0.754   5.881   0.820
 9918SOL    HW131528   0.662   5.860   0.806
 9918SOL    HW231529   0.786   5.909   0.734
 9919SOL     OW31530   7.780   5.441  13.866
 9919SOL    HW131531   7.820   5.354  13.879
 9919SOL    HW231532   7.731   5.432  13.785
 9920SOL     OW31533   1.753   4.526   2.443
 9920SOL    HW131534   1.784   4.605   2.399
 9920SOL    HW231535   1.806   4.521   2.523
 9921SOL     OW31536   9.062  10.116   8.815
 9921SOL    HW131537   9.023  10.053   8.876
 9921SOL    HW231538   8.995  10.127   8.747
 9922SOL     OW31539   1.681   5.120   1.263
 9922SOL    HW131540   1.760   5.075   1.235
 9922SOL    HW231541   1.621   5.050   1.289
 9923SOL     OW31542   8.217   0.495   1.670
 9923SOL    HW131543   8.138   0.548   1.682
 9923SOL    HW231544   8.193   0.430   1.604
 9924SOL     OW31545   7.906   7.657   3.097
 9924SOL    HW131546   7.970   7.728   3.088
 9924SOL    HW231547   7.943   7.600   3.165
 9925SOL     OW31548   1.261   5.392   4.733
 9925SOL    HW131549   1.253   5.354   4.646
 9925SOL    HW231550   1.236   5.322   4.793
 9926SOL     OW31551   3.954   4.277   8.766
 9926SOL    HW131552   4.049   4.287   8.771
 9926SOL    HW231553   3.925   4.278   8.858
 9927SOL     OW31554  12.804  12.548   1.902
 9927SOL    HW131555  12.810  12.591   1.987
 9927SOL    HW231556  12.821  12.617   1.838
 9928SOL     OW31557  13.450   1.436   5.238
 9928SOL    HW131558  13.397   1.361   5.264
 9928SOL    HW231559  13.397   1.512   5.259
 9929SOL     OW31560  12.682   3.712   4.801
 9929SOL    HW131561  12.699   3.771   4.727
 9929SOL    HW231562  12.648   3.770   4.869
 9930SOL     OW31563   0.711  13.760   6.462
 9930SOL    HW131564   0.645  13.779   6.396
 9930SOL    HW231565   0.727  13.844   6.505
 9931SOL     OW31566   2.217  12.014   9.529
 9931SOL    HW131567   2.295  12.003   9.584
 9931SOL    HW231568   2.143  11.998   9.588
 9932SOL     OW31569  12.674   4.211   1.887
 9932SOL    HW131570  12.650   4.164   1.807
 9932SOL    HW231571  12.653   4.303   1.868
 9933SOL     OW31572   8.594   7.425   7.132
 9933SOL    HW131573   8.535   7.498   7.152
 9933SOL    HW231574   8.571   7.358   7.196
 9934SOL     OW31575  11.816   9.027   9.267
 9934SOL    HW131576  11.835   9.054   9.177
 9934SOL    HW231577  11.730   9.064   9.285
 9935SOL     OW31578  11.430   4.805  13.072
 9935SOL    HW131579  11.434   4.859  13.151
 9935SOL    HW231580  11.521   4.780  13.055
 9936SOL     OW31581   9.513  11.744  12.446
 9936SOL    HW131582   9.470  11.659  12.433
 9936SOL    HW231583   9.538  11.744  12.538
 9937SOL     OW31584  14.735   7.290   8.239
 9937SOL    HW131585  14.809   7.347   8.254
 9937SOL    HW231586  14.738   7.226   8.310
 9938SOL     OW31587   3.721   9.294  13.196
 9938SOL    HW131588   3.712   9.343  13.278
 9938SOL    HW231589   3.637   9.305  13.152
 9939SOL     OW31590   6.117   5.255   0.777
 9939SOL    HW131591   6.095   5.211   0.695
 9939SOL    HW231592   6.109   5.349   0.757
 9940SOL     OW31593   6.844  11.817  12.675
 9940SOL    HW131594   6.752  11.794  12.675
 9940SOL    HW231595   6.851  11.893  12.732
 9941SOL     OW31596  13.174   9.018   2.817
 9941SOL    HW131597  13.152   8.935   2.858
 9941SOL    HW231598  13.091   9.050   2.781
 9942SOL     OW31599   6.581   0.414  10.634
 9942SOL    HW131600   6.636   0.337  10.646
 9942SOL    HW231601   6.551   0.437  10.722
 9943SOL     OW31602   1.844   0.163   6.825
 9943SOL    HW131603   1.852   0.087   6.768
 9943SOL    HW231604   1.864   0.238   6.768
 9944SOL     OW31605   0.940   6.810   4.381
 9944SOL    HW131606   0.872   6.755   4.343
 9944SOL    HW231607   0.893   6.884   4.420
 9945SOL     OW31608   5.420   8.844   2.099
 9945SOL    HW131609   5.351   8.825   2.162
 9945SOL    HW231610   5.489   8.885   2.150
 9946SOL     OW31611   5.137   9.432  13.037
 9946SOL    HW131612   5.060   9.386  13.002
 9946SOL    HW231613   5.106   9.475  13.116
 9947SOL     OW31614   1.222   7.965  11.247
 9947SOL    HW131615   1.257   8.050  11.273
 9947SOL    HW231616   1.134   7.985  11.214
 9948SOL     OW31617   0.603   3.264   7.559
 9948SOL    HW131618   0.580   3.197   7.623
 9948SOL    HW231619   0.563   3.344   7.593
 9949SOL     OW31620   7.270   5.791   6.910
 9949SOL    HW131621   7.288   5.851   6.837
 9949SOL    HW231622   7.330   5.818   6.979
 9950SOL     OW31623  10.686   2.794   5.143
 9950SOL    HW131624  10.615   2.852   5.115
 9950SOL    HW231625  10.752   2.853   5.177
 9951SOL     OW31626   8.048   8.514  10.273
 9951SOL    HW131627   8.004   8.433  10.297
 9951SOL    HW231628   7.985   8.583  10.295
 9952SOL     OW31629   5.987   0.413   0.146
 9952SOL    HW131630   6.077   0.433   0.171
 9952SOL    HW231631   5.933   0.467   0.204
 9953SOL     OW31632   5.785   9.938   6.833
 9953SOL    HW131633   5.850   9.988   6.882
 9953SOL    HW231634   5.796   9.848   6.865
 9954SOL     OW31635  11.805   1.595  11.461
 9954SOL    HW131636  11.838   1.657  11.526
 9954SOL    HW231637  11.716   1.626  11.442
 9955SOL     OW31638   1.392   7.886  11.037
 9955SOL    HW131639   1.364   7.939  10.962
 9955SOL    HW231640   1.328   7.906  11.105
 9956SOL     OW31641  13.199   1.406  13.986
 9956SOL    HW131642  13.137   1.379  14.053
 9956SOL    HW231643  13.185   1.344  13.914
 9957SOL     OW31644   8.151  14.452   8.854
 9957SOL    HW131645   8.062  14.434   8.885
 9957SOL    HW231646   8.140  14.523   8.790
 9958SOL     OW31647   3.864   2.829  13.298
 9958SOL    HW131648   3.870   2.757  13.236
 9958SOL    HW231649   3.849   2.907  13.244
 9959SOL     OW31650  11.178   5.459  10.999
 9959SOL    HW131651  11.243   5.397  11.031
 9959SOL    HW231652  11.141   5.418  10.921
 9960SOL     OW31653   3.435  12.965   7.658
 9960SOL    HW131654   3.355  13.011   7.633
 9960SOL    HW231655   3.491  13.033   7.696
 9961SOL     OW31656   4.974   1.804   9.215
 9961SOL    HW131657   4.982   1.728   9.157
 9961SOL    HW231658   5.012   1.876   9.165
 9962SOL     OW31659  14.498  10.591  11.944
 9962SOL    HW131660  14.406  10.577  11.924
 9962SOL    HW231661  14.541  10.509  11.920
 9963SOL     OW31662   6.483  12.003   2.635
 9963SOL    HW131663   6.532  12.081   2.661
 9963SOL    HW231664   6.494  11.943   2.708
 9964SOL     OW31665  13.108  12.615   2.594
 9964SOL    HW131666  13.097  12.681   2.663
 9964SOL    HW231667  13.093  12.531   2.639
 9965SOL     OW31668   7.353  10.685  13.126
 9965SOL    HW131669   7.294  10.684  13.202
 9965SOL    HW231670   7.308  10.739  13.061
 9966SOL     OW31671   2.460  14.717  10.567
 9966SOL    HW131672   2.442  14.677  10.652
 9966SOL    HW231673   2.375  14.723  10.524
 9967SOL     OW31674  14.528   1.465  11.966
 9967SOL    HW131675  14.522   1.471  12.061
 9967SOL    HW231676  14.533   1.556  11.936
 9968SOL     OW31677   4.673  13.131   9.348
 9968SOL    HW131678   4.764  13.158   9.357
 9968SOL    HW231679   4.645  13.110   9.437
 9969SOL     OW31680   0.532  13.420  12.065
 9969SOL    HW131681   0.579  13.491  12.108
 9969SOL    HW231682   0.468  13.391  12.129
 9970SOL     OW31683  13.396   7.863   0.991
 9970SOL    HW131684  13.313   7.825   1.018
 9970SOL    HW231685  13.384   7.957   1.002
 9971SOL     OW31686  13.565   9.319  13.850
 9971SOL    HW131687  13.522   9.404  13.861
 9971SOL    HW231688  13.631   9.334  13.783
 9972SOL     OW31689  10.929  11.400  12.617
 9972SOL    HW131690  10.866  11.426  12.684
 9972SOL    HW231691  11.012  11.436  12.647
 9973SOL     OW31692   4.161   4.484   4.295
 9973SOL    HW131693   4.213   4.463   4.217
 9973SOL    HW231694   4.225   4.518   4.358
 9974SOL     OW31695  13.617   0.211  10.182
 9974SOL    HW131696  13.568   0.290  10.204
 9974SOL    HW231697  13.699   0.244  10.143
 9975SOL     OW31698   4.220  13.557  13.707
 9975SOL    HW131699   4.162  13.480  13.714
 9975SOL    HW231700   4.201  13.593  13.621
 9976SOL     OW31701  12.412  11.306   2.961
 9976SOL    HW131702  12.375  11.332   2.876
 9976SOL    HW231703  12.347  11.246   2.998
 9977SOL     OW31704  12.299  10.215  14.685
 9977SOL    HW131705  12.205  10.206  14.704
 9977SOL    HW231706  12.314  10.309  14.683
 9978SOL     OW31707   2.060   8.874  10.017
 9978SOL    HW131708   1.979   8.855  10.065
 9978SOL    HW231709   2.043   8.843   9.928
 9979SOL     OW31710   2.078  14.346   1.365
 9979SOL    HW131711   2.112  14.373   1.280
 9979SOL    HW231712   2.109  14.414   1.425
 9980SOL     OW31713   9.210  10.922   0.598
 9980SOL    HW131714   9.283  10.980   0.579
 9980SOL    HW231715   9.197  10.873   0.517
 9981SOL     OW31716  10.347   9.450   3.051
 9981SOL    HW131717  10.317   9.361   3.034
 9981SOL    HW231718  10.278   9.489   3.104
 9982SOL     OW31719  12.838   0.779   6.349
 9982SOL    HW131720  12.756   0.818   6.318
 9982SOL    HW231721  12.906   0.821   6.296
 9983SOL     OW31722  12.914   3.563   1.958
 9983SOL    HW131723  12.970   3.568   2.036
 9983SOL    HW231724  12.829   3.536   1.991
 9984SOL     OW31725   5.081   2.220  10.109
 9984SOL    HW131726   5.143   2.158  10.069
 9984SOL    HW231727   5.037   2.169  10.177
 9985SOL     OW31728  12.879   9.554  10.557
 9985SOL    HW131729  12.951   9.506  10.516
 9985SOL    HW231730  12.917   9.592  10.636
 9986SOL     OW31731   7.394   1.610   6.038
 9986SOL    HW131732   7.447   1.646   6.109
 9986SOL    HW231733   7.426   1.654   5.960
 9987SOL     OW31734   8.903  10.517  13.843
 9987SOL    HW131735   8.815  10.541  13.874
 9987SOL    HW231736   8.896  10.423  13.824
 9988SOL     OW31737   9.968  13.156   9.858
 9988SOL    HW131738   9.900  13.130   9.920
 9988SOL    HW231739   9.920  13.178   9.778
 9989SOL     OW31740  11.125   0.010   7.448
 9989SOL    HW131741  11.127   0.032   7.541
 9989SOL    HW231742  11.208   0.041   7.414
 9990SOL     OW31743   5.783  11.392  13.781
 9990SOL    HW131744   5.701  11.391  13.731
 9990SOL    HW231745   5.841  11.333  13.734
 9991SOL     OW31746   6.617  13.687   1.484
 9991SOL    HW131747   6.577  13.639   1.556
 9991SOL    HW231748   6.703  13.713   1.516
 9992SOL     OW31749  13.971   0.706   4.862
 9992SOL    HW131750  13.886   0.752   4.861
 9992SOL    HW231751  13.948   0.614   4.877
 9993SOL     OW31752   6.473   4.012   1.164
 9993SOL    HW131753   6.492   4.090   1.215
 9993SOL    HW231754   6.532   4.018   1.088
 9994SOL     OW31755   9.739   5.478   9.327
 9994SOL    HW131756   9.805   5.421   9.286
 9994SOL    HW231757   9.700   5.423   9.395
 9995SOL     OW31758   8.057   7.175  12.717
 9995SOL    HW131759   7.971   7.217  12.718
 9995SOL    HW231760   8.043   7.092  12.672
 9996SOL     OW31761  11.008   3.615   2.235
 9996SOL    HW131762  10.946   3.556   2.193
 9996SOL    HW231763  10.961   3.650   2.310
 9997SOL     OW31764   6.792   2.252   5.088
 9997SOL    HW131765   6.782   2.292   5.174
 9997SOL    HW231766   6.839   2.318   5.037
 9998SOL     OW31767  11.213   2.804   9.167
 9998SOL    HW131768  11.163   2.798   9.247
 9998SOL    HW231769  11.304   2.818   9.196
 9999SOL     OW31770  11.409   6.906   5.570
 9999SOL    HW131771  11.325   6.887   5.612
 9999SOL    HW231772  11.393   6.982   5.515
10000SOL     OW31773  14.022   5.420   0.368
10000SOL    HW131774  13.934   5.408   0.403
10000SOL    HW231775  14.076   5.357   0.416
10001SOL     OW31776   9.009   0.794  11.330
10001SOL    HW131777   8.921   0.786  11.294
10001SOL    HW231778   9.056   0.718  11.297
10002SOL     OW31779   1.538   6.537   3.546
10002SOL    HW131780   1.487   6.471   3.594
10002SOL    HW231781   1.574   6.593   3.615
10003SOL     OW31782   7.602   0.757   3.679
10003SOL    HW131783   7.510   0.763   3.707
10003SOL    HW231784   7.597   0.739   3.585
10004SOL     OW31785   1.579   9.788   1.853
10004SOL    HW131786   1.562   9.700   1.818
10004SOL    HW231787   1.650   9.822   1.799
10005SOL     OW31788   1.869   1.297  11.251
10005SOL    HW131789   1.926   1.220  11.249
10005SOL    HW231790   1.834   1.303  11.162
10006SOL     OW31791   7.323   5.748   0.461
10006SOL    HW131792   7.256   5.744   0.530
10006SOL    HW231793   7.384   5.678   0.484
10007SOL     OW31794  14.645   1.588   3.739
10007SOL    HW131795  14.651   1.495   3.762
10007SOL    HW231796  14.559   1.615   3.773
10008SOL     OW31797  13.996   9.001   5.161
10008SOL    HW131798  13.938   8.941   5.208
10008SOL    HW231799  13.964   9.001   5.071
10009SOL     OW31800  12.980  12.443  10.041
10009SOL    HW131801  13.031  12.502   9.987
10009SOL    HW231802  12.900  12.492  10.062
10010SOL     OW31803   9.086   6.074  10.536
10010SOL    HW131804   9.137   5.993  10.527
10010SOL    HW231805   8.995   6.046  10.524
10011SOL     OW31806   4.332  13.956   6.772
10011SOL    HW131807   4.267  14.026   6.776
10011SOL    HW231808   4.300  13.890   6.834
10012SOL     OW31809   1.854  12.966  12.901
10012SOL    HW131810   1.936  12.996  12.941
10012SOL    HW231811   1.869  12.874  12.881
10013SOL     OW31812   5.703   0.525   5.027
10013SOL    HW131813   5.686   0.434   5.003
10013SOL    HW231814   5.699   0.573   4.944
10014SOL     OW31815   2.380   6.751  11.310
10014SOL    HW131816   2.339   6.715  11.231
10014SOL    HW231817   2.321   6.821  11.338
10015SOL     OW31818   8.301   5.257  12.678
10015SOL    HW131819   8.224   5.217  12.718
10015SOL    HW231820   8.370   5.192  12.687
10016SOL     OW31821   9.286   0.924   4.463
10016SOL    HW131822   9.202   0.956   4.498
10016SOL    HW231823   9.320   0.868   4.532
10017SOL     OW31824   8.352   7.234  11.065
10017SOL    HW131825   8.434   7.251  11.111
10017SOL    HW231826   8.373   7.166  11.001
10018SOL     OW31827   3.704   7.440  12.141
10018SOL    HW131828   3.734   7.497  12.071
10018SOL    HW231829   3.705   7.495  12.219
10019SOL     OW31830   4.071   7.291   5.790
10019SOL    HW131831   4.074   7.382   5.819
10019SOL    HW231832   4.094   7.294   5.697
10020SOL     OW31833  13.145   6.234  10.215
10020SOL    HW131834  13.088   6.299  10.258
10020SOL    HW231835  13.229   6.280  10.205
10021SOL     OW31836  11.574   4.292  10.060
10021SOL    HW131837  11.520   4.231  10.110
10021SOL    HW231838  11.530   4.376  10.068
10022SOL     OW31839   7.794  13.739  12.476
10022SOL    HW131840   7.739  13.792  12.419
10022SOL    HW231841   7.768  13.764  12.565
10023SOL     OW31842   0.529   9.153   8.870
10023SOL    HW131843   0.555   9.066   8.838
10023SOL    HW231844   0.453   9.136   8.925
10024SOL     OW31845   0.533  11.564   6.643
10024SOL    HW131846   0.587  11.551   6.721
10024SOL    HW231847   0.590  11.612   6.582
10025SOL     OW31848   0.126   6.009   1.039
10025SOL    HW131849   0.110   5.995   1.132
10025SOL    HW231850   0.119   6.104   1.027
10026SOL     OW31851   3.211   5.490  10.242
10026SOL    HW131852   3.282   5.552  10.226
10026SOL    HW231853   3.166   5.525  10.319
10027SOL     OW31854  11.438   0.825   6.262
10027SOL    HW131855  11.353   0.785   6.244
10027SOL    HW231856  11.459   0.874   6.182
10028SOL     OW31857  10.015   6.807   7.265
10028SOL    HW131858  10.018   6.842   7.176
10028SOL    HW231859  10.036   6.714   7.255
10029SOL     OW31860   1.889   6.896  13.388
10029SOL    HW131861   1.973   6.850  13.393
10029SOL    HW231862   1.905   6.981  13.428
10030SOL     OW31863  10.725   7.976   6.931
10030SOL    HW131864  10.695   8.051   6.881
10030SOL    HW231865  10.818   7.992   6.945
10031SOL     OW31866   3.933   4.457  13.263
10031SOL    HW131867   3.903   4.421  13.347
10031SOL    HW231868   4.026   4.436  13.259
10032SOL     OW31869   9.606   7.891   8.549
10032SOL    HW131870   9.653   7.920   8.627
10032SOL    HW231871   9.675   7.859   8.490
10033SOL     OW31872   9.705   2.814   1.921
10033SOL    HW131873   9.715   2.857   1.836
10033SOL    HW231874   9.793   2.813   1.958
10034SOL     OW31875  13.053   0.272  13.227
10034SOL    HW131876  13.042   0.337  13.157
10034SOL    HW231877  12.997   0.199  13.201
10035SOL     OW31878   1.822  11.550   5.752
10035SOL    HW131879   1.825  11.457   5.731
10035SOL    HW231880   1.734  11.578   5.726
10036SOL     OW31881   7.821   4.530   8.886
10036SOL    HW131882   7.883   4.459   8.865
10036SOL    HW231883   7.800   4.517   8.978
10037SOL     OW31884   4.940  13.221   9.387
10037SOL    HW131885   4.976  13.285   9.325
10037SOL    HW231886   4.941  13.266   9.471
10038SOL     OW31887   7.380   7.887  13.577
10038SOL    HW131888   7.373   7.801  13.537
10038SOL    HW231889   7.351   7.948  13.509
10039SOL     OW31890  13.129   2.015   2.617
10039SOL    HW131891  13.060   1.981   2.674
10039SOL    HW231892  13.087   2.022   2.531
10040SOL     OW31893   8.929  11.156   6.429
10040SOL    HW131894   8.988  11.083   6.411
10040SOL    HW231895   8.922  11.203   6.345
10041SOL     OW31896   4.362   1.207   4.765
10041SOL    HW131897   4.357   1.234   4.857
10041SOL    HW231898   4.271   1.199   4.737
10042SOL     OW31899   1.012  11.183   0.408
10042SOL    HW131900   0.961  11.262   0.429
10042SOL    HW231901   1.038  11.194   0.317
10043SOL     OW31902   1.059  11.126  10.444
10043SOL    HW131903   1.006  11.097  10.518
10043SOL    HW231904   1.001  11.119  10.368
10044SOL     OW31905   2.783   1.329   4.803
10044SOL    HW131906   2.770   1.260   4.869
10044SOL    HW231907   2.807   1.281   4.724
10045SOL     OW31908   9.652   6.557   4.218
10045SOL    HW131909   9.713   6.505   4.165
10045SOL    HW231910   9.572   6.505   4.218
10046SOL     OW31911   0.121   0.003   0.976
10046SOL    HW131912   0.143  14.800   1.016
10046SOL    HW231913   0.062  14.864   0.904
10047SOL     OW31914   7.587   6.609   4.807
10047SOL    HW131915   7.619   6.592   4.895
10047SOL    HW231916   7.617   6.533   4.756
10048SOL     OW31917   7.272   7.562   7.670
10048SOL    HW131918   7.221   7.535   7.747
10048SOL    HW231919   7.343   7.614   7.705
10049SOL     OW31920   5.211   1.814   0.018
10049SOL    HW131921   5.133   1.787   0.066
10049SOL    HW231922   5.191   1.793  14.808
10050SOL     OW31923   9.733   9.287   8.277
10050SOL    HW131924   9.789   9.224   8.231
10050SOL    HW231925   9.653   9.238   8.295
10051SOL     OW31926   8.185   3.196   9.475
10051SOL    HW131927   8.189   3.138   9.399
10051SOL    HW231928   8.156   3.140   9.547
10052SOL     OW31929   2.999  14.675  11.669
10052SOL    HW131930   3.022  14.701  11.580
10052SOL    HW231931   3.028  14.584  11.676
10053SOL     OW31932  13.231   0.045  14.395
10053SOL    HW131933  13.283   0.112  14.439
10053SOL    HW231934  13.295  14.876  14.345
10054SOL     OW31935   4.796  13.949  13.753
10054SOL    HW131936   4.880  13.902  13.761
10054SOL    HW231937   4.800  14.015  13.823
10055SOL     OW31938  11.401   1.168  13.495
10055SOL    HW131939  11.343   1.093  13.509
10055SOL    HW231940  11.474   1.153  13.554
10056SOL     OW31941  10.256  11.437   7.596
10056SOL    HW131942  10.266  11.358   7.543
10056SOL    HW231943  10.343  11.453   7.631
10057SOL     OW31944   5.173   3.421   7.358
10057SOL    HW131945   5.225   3.501   7.361
10057SOL    HW231946   5.158   3.405   7.265
10058SOL     OW31947   2.228   4.086  14.511
10058SOL    HW131948   2.207   4.006  14.462
10058SOL    HW231949   2.286   4.057  14.581
10059SOL     OW31950   5.887  13.813  13.233
10059SOL    HW131951   5.863  13.900  13.201
10059SOL    HW231952   5.804  13.773  13.260
10060SOL     OW31953   9.529   8.351   2.094
10060SOL    HW131954   9.533   8.255   2.102
10060SOL    HW231955   9.476   8.379   2.169
10061SOL     OW31956   7.692   8.484   8.500
10061SOL    HW131957   7.779   8.444   8.508
10061SOL    HW231958   7.659   8.488   8.589
10062SOL     OW31959   8.085   9.484  12.559
10062SOL    HW131960   8.151   9.434  12.607
10062SOL    HW231961   8.093   9.573  12.594
10063SOL     OW31962   3.269   8.952   5.587
10063SOL    HW131963   3.362   8.941   5.608
10063SOL    HW231964   3.248   9.039   5.621
10064SOL     OW31965  14.163   7.136  13.801
10064SOL    HW131966  14.175   7.216  13.853
10064SOL    HW231967  14.242   7.085  13.818
10065SOL     OW31968   7.295  12.028  12.188
10065SOL    HW131969   7.315  12.006  12.279
10065SOL    HW231970   7.377  12.014  12.141
10066SOL     OW31971   7.207   4.667   4.407
10066SOL    HW131972   7.135   4.698   4.461
10066SOL    HW231973   7.270   4.630   4.469
10067SOL     OW31974   2.405   5.581   0.775
10067SOL    HW131975   2.317   5.550   0.754
10067SOL    HW231976   2.393   5.646   0.844
10068SOL     OW31977  14.333  10.807   4.638
10068SOL    HW131978  14.324  10.717   4.669
10068SOL    HW231979  14.244  10.843   4.644
10069SOL     OW31980  14.220   3.509   1.633
10069SOL    HW131981  14.149   3.496   1.570
10069SOL    HW231982  14.263   3.424   1.639
10070SOL     OW31983   4.627   7.846   0.595
10070SOL    HW131984   4.681   7.914   0.637
10070SOL    HW231985   4.649   7.852   0.502
10071SOL     OW31986   0.882   5.735   8.926
10071SOL    HW131987   0.805   5.789   8.906
10071SOL    HW231988   0.888   5.673   8.854
10072SOL     OW31989   5.374   8.884   3.018
10072SOL    HW131990   5.425   8.803   3.019
10072SOL    HW231991   5.434   8.951   3.051
10073SOL     OW31992   5.750   5.553   5.370
10073SOL    HW131993   5.811   5.518   5.306
10073SOL    HW231994   5.798   5.551   5.453
10074SOL     OW31995   6.975   3.406   6.006
10074SOL    HW131996   6.890   3.414   5.962
10074SOL    HW231997   7.033   3.367   5.941
10075SOL     OW31998  10.863  14.732   3.760
10075SOL    HW131999  10.799  14.668   3.793
10075SOL    HW232000  10.810  14.805   3.729
10076SOL     OW32001   0.552   6.596  12.258
10076SOL    HW132002   0.564   6.502  12.276
10076SOL    HW232003   0.461   6.612  12.282
10077SOL     OW32004  14.767  11.884   1.298
10077SOL    HW132005  14.747  11.951   1.363
10077SOL    HW232006  14.813  11.816   1.347
10078SOL     OW32007   4.295   7.725  10.229
10078SOL    HW132008   4.238   7.675  10.170
10078SOL    HW232009   4.296   7.813  10.191
10079SOL     OW32010   4.922   0.334   6.406
10079SOL    HW132011   4.901   0.304   6.318
10079SOL    HW232012   4.851   0.300   6.460
10080SOL     OW32013   6.963  12.610   0.645
10080SOL    HW132014   7.031  12.583   0.583
10080SOL    HW232015   6.979  12.557   0.723
10081SOL     OW32016  14.548   0.558   1.672
10081SOL    HW132017  14.491   0.633   1.657
10081SOL    HW232018  14.554   0.515   1.586
10082SOL     OW32019   8.024  10.926  14.364
10082SOL    HW132020   8.088  10.953  14.298
10082SOL    HW232021   8.007  11.005  14.415
10083SOL     OW32022  12.682   4.116   3.108
10083SOL    HW132023  12.590   4.144   3.117
10083SOL    HW232024  12.732   4.196   3.123
10084SOL     OW32025   0.701   6.143   6.473
10084SOL    HW132026   0.788   6.109   6.496
10084SOL    HW232027   0.704   6.151   6.377
10085SOL     OW32028   9.592   8.502   8.473
10085SOL    HW132029   9.669   8.476   8.422
10085SOL    HW232030   9.557   8.419   8.506
10086SOL     OW32031  13.372  11.315   8.869
10086SOL    HW132032  13.459  11.323   8.829
10086SOL    HW232033  13.363  11.394   8.922
10087SOL     OW32034   4.340   4.368   0.354
10087SOL    HW132035   4.364   4.320   0.434
10087SOL    HW232036   4.300   4.449   0.386
10088SOL     OW32037   4.227   9.206   3.348
10088SOL    HW132038   4.252   9.133   3.291
10088SOL    HW232039   4.299   9.268   3.341
10089SOL     OW32040   4.964   6.865   0.703
10089SOL    HW132041   4.909   6.796   0.739
10089SOL    HW232042   5.009   6.825   0.628
10090SOL     OW32043   5.152   8.442   7.470
10090SOL    HW132044   5.209   8.366   7.473
10090SOL    HW232045   5.161   8.483   7.556
10091SOL     OW32046  11.431  13.431  13.715
10091SOL    HW132047  11.416  13.410  13.807
10091SOL    HW232048  11.512  13.385  13.693
10092SOL     OW32049   1.993   7.517   7.354
10092SOL    HW132050   2.056   7.557   7.413
10092SOL    HW232051   1.930   7.475   7.411
10093SOL     OW32052   2.322   3.711  12.669
10093SOL    HW132053   2.417   3.714  12.676
10093SOL    HW232054   2.294   3.654  12.740
10094SOL     OW32055  10.906   4.560   5.075
10094SOL    HW132056  10.875   4.648   5.056
10094SOL    HW232057  10.839   4.502   5.038
10095SOL     OW32058   1.503   4.803  14.397
10095SOL    HW132059   1.421   4.761  14.423
10095SOL    HW232060   1.507   4.793  14.302
10096SOL     OW32061   9.179  11.560   8.185
10096SOL    HW132062   9.211  11.629   8.127
10096SOL    HW232063   9.084  11.569   8.184
10097SOL     OW32064  13.501   8.088   9.014
10097SOL    HW132065  13.552   8.065   9.092
10097SOL    HW232066  13.452   8.009   8.994
10098SOL     OW32067   5.535   6.157  13.590
10098SOL    HW132068   5.564   6.210  13.515
10098SOL    HW232069   5.540   6.217  13.665
10099SOL     OW32070   1.932   0.554  13.869
10099SOL    HW132071   1.840   0.581  13.872
10099SOL    HW232072   1.940   0.504  13.788
10100SOL     OW32073   3.463  13.670   6.855
10100SOL    HW132074   3.421  13.584   6.844
10100SOL    HW232075   3.472  13.681   6.949
10101SOL     OW32076   7.194   4.679   5.536
10101SOL    HW132077   7.144   4.642   5.464
10101SOL    HW232078   7.246   4.606   5.569
10102SOL     OW32079   8.465   7.381   1.959
10102SOL    HW132080   8.380   7.400   1.919
10102SOL    HW232081   8.451   7.396   2.052
10103SOL     OW32082   2.627   8.361  14.729
10103SOL    HW132083   2.704   8.308  14.751
10103SOL    HW232084   2.637   8.441  14.780
10104SOL     OW32085   7.280  10.167   4.121
10104SOL    HW132086   7.370  10.138   4.105
10104SOL    HW232087   7.279  10.259   4.094
10105SOL     OW32088   6.254   5.772  14.712
10105SOL    HW132089   6.264   5.700  14.650
10105SOL    HW232090   6.185   5.827  14.674
10106SOL     OW32091  10.913   8.187   0.165
10106SOL    HW132092  10.950   8.144   0.088
10106SOL    HW232093  10.926   8.280   0.150
10107SOL     OW32094   2.201  10.061  11.069
10107SOL    HW132095   2.157   9.990  11.117
10107SOL    HW232096   2.154  10.140  11.095
10108SOL     OW32097   6.589  10.711  12.935
10108SOL    HW132098   6.665  10.712  12.993
10108SOL    HW232099   6.608  10.777  12.868
10109SOL     OW32100  14.764   4.392  11.724
10109SOL    HW132101  14.763   4.462  11.658
10109SOL    HW232102  14.676   4.395  11.762
10110SOL     OW32103   3.294   8.018  12.754
10110SOL    HW132104   3.284   8.056  12.841
10110SOL    HW232105   3.377   7.970  12.760
10111SOL     OW32106   3.525   7.510   6.877
10111SOL    HW132107   3.543   7.497   6.970
10111SOL    HW232108   3.438   7.549   6.875
10112SOL     OW32109   5.430  12.404   5.180
10112SOL    HW132110   5.466  12.404   5.091
10112SOL    HW232111   5.506  12.424   5.235
10113SOL     OW32112   2.813  14.205  11.458
10113SOL    HW132113   2.857  14.288  11.443
10113SOL    HW232114   2.882  14.139  11.447
10114SOL     OW32115  10.438  13.606   2.229
10114SOL    HW132116  10.520  13.604   2.277
10114SOL    HW232117  10.455  13.559   2.148
10115SOL     OW32118   7.035   9.261  11.829
10115SOL    HW132119   7.052   9.219  11.745
10115SOL    HW232120   7.105   9.325  11.838
10116SOL     OW32121   2.279   5.555   0.183
10116SOL    HW132122   2.232   5.475   0.159
10116SOL    HW232123   2.342   5.527   0.249
10117SOL     OW32124  11.827  11.764   4.139
10117SOL    HW132125  11.888  11.837   4.137
10117SOL    HW232126  11.804  11.748   4.048
10118SOL     OW32127   9.676  10.051   9.050
10118SOL    HW132128   9.689  10.107   8.973
10118SOL    HW232129   9.619   9.980   9.019
10119SOL     OW32130   4.042   6.463   2.347
10119SOL    HW132131   3.985   6.401   2.392
10119SOL    HW232132   4.037   6.437   2.255
10120SOL     OW32133   0.720   6.592   4.464
10120SOL    HW132134   0.755   6.565   4.379
10120SOL    HW232135   0.702   6.510   4.510
10121SOL     OW32136   0.859   6.369   4.920
10121SOL    HW132137   0.895   6.389   5.006
10121SOL    HW232138   0.771   6.407   4.921
10122SOL     OW32139   8.827   3.613   5.095
10122SOL    HW132140   8.919   3.596   5.078
10122SOL    HW232141   8.823   3.632   5.189
10123SOL     OW32142   6.162   4.607   0.959
10123SOL    HW132143   6.104   4.554   1.013
10123SOL    HW232144   6.249   4.569   0.971
10124SOL     OW32145  14.740   9.651   4.810
10124SOL    HW132146  14.834   9.638   4.798
10124SOL    HW232147  14.730   9.663   4.905
10125SOL     OW32148  10.036   1.438  10.782
10125SOL    HW132149  10.124   1.471  10.767
10125SOL    HW232150  10.038   1.403  10.871
10126SOL     OW32151   0.190   3.686   4.254
10126SOL    HW132152   0.198   3.644   4.340
10126SOL    HW232153   0.168   3.615   4.194
10127SOL     OW32154   5.250  12.136   8.406
10127SOL    HW132155   5.275  12.213   8.355
10127SOL    HW232156   5.298  12.064   8.366
10128SOL     OW32157   9.596   5.121   4.680
10128SOL    HW132158   9.542   5.119   4.759
10128SOL    HW232159   9.655   5.195   4.693
10129SOL     OW32160   8.488   8.285   1.627
10129SOL    HW132161   8.583   8.275   1.619
10129SOL    HW232162   8.453   8.246   1.548
10130SOL     OW32163  13.695   0.523   4.180
10130SOL    HW132164  13.622   0.468   4.151
10130SOL    HW232165  13.763   0.509   4.115
10131SOL     OW32166   5.672  12.224   6.301
10131SOL    HW132167   5.700  12.305   6.259
10131SOL    HW232168   5.749  12.195   6.351
10132SOL     OW32169  13.346   9.430  11.577
10132SOL    HW132170  13.398   9.423  11.657
10132SOL    HW232171  13.393   9.377  11.513
10133SOL     OW32172   8.814  11.951   9.745
10133SOL    HW132173   8.805  12.035   9.701
10133SOL    HW232174   8.743  11.898   9.710
10134SOL     OW32175  11.321   9.493  14.177
10134SOL    HW132176  11.306   9.408  14.219
10134SOL    HW232177  11.335   9.554  14.250
10135SOL     OW32178  12.800   6.132   3.761
10135SOL    HW132179  12.852   6.211   3.746
10135SOL    HW232180  12.770   6.105   3.674
10136SOL     OW32181   4.198  14.695   6.895
10136SOL    HW132182   4.191  14.606   6.929
10136SOL    HW232183   4.256  14.687   6.819
10137SOL     OW32184   7.982  11.138   4.485
10137SOL    HW132185   7.945  11.105   4.403
10137SOL    HW232186   8.050  11.075   4.507
10138SOL     OW32187  10.854  10.238   4.393
10138SOL    HW132188  10.763  10.208   4.395
10138SOL    HW232189  10.880  10.227   4.301
10139SOL     OW32190   4.084  12.344   4.292
10139SOL    HW132191   4.055  12.253   4.297
10139SOL    HW232192   4.178  12.339   4.277
10140SOL     OW32193   3.519  10.652  10.210
10140SOL    HW132194   3.552  10.632  10.122
10140SOL    HW232195   3.542  10.744  10.224
10141SOL     OW32196   2.620  14.438   1.651
10141SOL    HW132197   2.691  14.376   1.666
10141SOL    HW232198   2.542  14.384   1.644
10142SOL     OW32199  11.432   5.141   9.007
10142SOL    HW132200  11.471   5.066   9.052
10142SOL    HW232201  11.344   5.111   8.983
10143SOL     OW32202   4.828   9.681   9.137
10143SOL    HW132203   4.766   9.745   9.101
10143SOL    HW232204   4.914   9.720   9.120
10144SOL     OW32205   8.592   1.039   7.750
10144SOL    HW132206   8.667   1.000   7.705
10144SOL    HW232207   8.611   1.132   7.754
10145SOL     OW32208  12.179  10.358  11.473
10145SOL    HW132209  12.249  10.390  11.416
10145SOL    HW232210  12.203  10.388  11.561
10146SOL     OW32211   2.897   3.103   5.361
10146SOL    HW132212   2.858   3.108   5.449
10146SOL    HW232213   2.991   3.112   5.375
10147SOL     OW32214   7.005   3.461  12.696
10147SOL    HW132215   6.961   3.543  12.671
10147SOL    HW232216   6.969   3.396  12.635
10148SOL     OW32217  14.428   4.310  13.225
10148SOL    HW132218  14.334   4.327  13.236
10148SOL    HW232219  14.433   4.251  13.150
10149SOL     OW32220  11.229  12.127   4.068
10149SOL    HW132221  11.262  12.075   4.141
10149SOL    HW232222  11.154  12.077   4.036
10150SOL     OW32223   4.798   1.153   0.174
10150SOL    HW132224   4.756   1.114   0.097
10150SOL    HW232225   4.871   1.203   0.140
10151SOL     OW32226   7.228  12.445   2.114
10151SOL    HW132227   7.156  12.471   2.056
10151SOL    HW232228   7.206  12.486   2.198
10152SOL     OW32229   1.682   8.354   5.161
10152SOL    HW132230   1.624   8.381   5.232
10152SOL    HW232231   1.627   8.358   5.082
10153SOL     OW32232   1.257   7.530  11.344
10153SOL    HW132233   1.229   7.463  11.281
10153SOL    HW232234   1.275   7.607  11.291
10154SOL     OW32235  14.340   1.645   4.661
10154SOL    HW132236  14.380   1.592   4.593
10154SOL    HW232237  14.299   1.718   4.614
10155SOL     OW32238   9.184   2.729  14.305
10155SOL    HW132239   9.249   2.699  14.241
10155SOL    HW232240   9.102   2.731  14.256
10156SOL     OW32241  10.829  10.222  12.779
10156SOL    HW132242  10.765  10.168  12.827
10156SOL    HW232243  10.887  10.256  12.847
10157SOL     OW32244   2.064  11.285   0.515
10157SOL    HW132245   2.034  11.198   0.540
10157SOL    HW232246   2.048  11.290   0.420
10158SOL     OW32247   3.265   4.611   9.604
10158SOL    HW132248   3.252   4.607   9.509
10158SOL    HW232249   3.254   4.704   9.625
10159SOL     OW32250   3.658   7.963   5.579
10159SOL    HW132251   3.571   8.001   5.594
10159SOL    HW232252   3.709   8.035   5.543
10160SOL     OW32253   2.475  11.173  12.056
10160SOL    HW132254   2.475  11.214  11.969
10160SOL    HW232255   2.476  11.246  12.117
10161SOL     OW32256   6.965   1.981   3.501
10161SOL    HW132257   6.942   2.030   3.580
10161SOL    HW232258   7.005   1.900   3.533
10162SOL     OW32259   0.619   5.367   2.320
10162SOL    HW132260   0.680   5.348   2.391
10162SOL    HW232261   0.593   5.281   2.287
10163SOL     OW32262  13.359   7.655  13.582
10163SOL    HW132263  13.331   7.568  13.611
10163SOL    HW232264  13.451   7.644  13.558
10164SOL     OW32265  11.877  14.172   4.233
10164SOL    HW132266  11.914  14.171   4.145
10164SOL    HW232267  11.924  14.242   4.278
10165SOL     OW32268   6.002   0.070   0.841
10165SOL    HW132269   6.003   0.099   0.933
10165SOL    HW232270   5.986   0.150   0.791
10166SOL     OW32271   7.156  10.595  14.106
10166SOL    HW132272   7.169  10.575  14.013
10166SOL    HW232273   7.239  10.636  14.134
10167SOL     OW32274   6.066   9.186  13.879
10167SOL    HW132275   6.022   9.182  13.794
10167SOL    HW232276   6.004   9.231  13.937
10168SOL     OW32277  10.508   3.686   8.750
10168SOL    HW132278  10.544   3.635   8.678
10168SOL    HW232279  10.468   3.762   8.708
10169SOL     OW32280   0.098  12.981  12.834
10169SOL    HW132281   0.023  12.925  12.814
10169SOL    HW232282   0.060  13.065  12.858
10170SOL     OW32283  14.421   8.534   8.179
10170SOL    HW132284  14.417   8.541   8.275
10170SOL    HW232285  14.511   8.509   8.161
10171SOL     OW32286   1.646  12.103   9.931
10171SOL    HW132287   1.671  12.031   9.989
10171SOL    HW232288   1.593  12.061   9.864
10172SOL     OW32289   5.643   4.488  12.325
10172SOL    HW132290   5.667   4.400  12.295
10172SOL    HW232291   5.696   4.547  12.271
10173SOL     OW32292   9.336   3.225  12.697
10173SOL    HW132293   9.428   3.236  12.720
10173SOL    HW232294   9.293   3.302  12.733
10174SOL     OW32295  12.439  12.468   5.233
10174SOL    HW132296  12.505  12.534   5.254
10174SOL    HW232297  12.466  12.391   5.283
10175SOL     OW32298   1.974   6.749   3.291
10175SOL    HW132299   2.025   6.761   3.211
10175SOL    HW232300   1.884   6.741   3.262
10176SOL     OW32301   9.527   0.045  11.911
10176SOL    HW132302   9.525  14.833  11.889
10176SOL    HW232303   9.459   0.084  11.857
10177SOL     OW32304   3.370   9.415   9.533
10177SOL    HW132305   3.422   9.443   9.458
10177SOL    HW232306   3.432   9.365   9.587
10178SOL     OW32307  12.212   4.437   9.354
10178SOL    HW132308  12.264   4.426   9.434
10178SOL    HW232309  12.192   4.530   9.351
10179SOL     OW32310  13.389  11.803   2.261
10179SOL    HW132311  13.437  11.874   2.217
10179SOL    HW232312  13.322  11.777   2.198
10180SOL     OW32313   7.885  13.993  11.379
10180SOL    HW132314   7.800  13.958  11.352
10180SOL    HW232315   7.925  14.025  11.297
10181SOL     OW32316  13.706   5.801   1.645
10181SOL    HW132317  13.638   5.759   1.593
10181SOL    HW232318  13.725   5.882   1.598
10182SOL     OW32319   0.075  10.559   2.180
10182SOL    HW132320   0.107  10.498   2.246
10182SOL    HW232321   0.115  10.643   2.204
10183SOL     OW32322   9.389   5.428   9.152
10183SOL    HW132323   9.391   5.505   9.208
10183SOL    HW232324   9.305   5.386   9.170
10184SOL     OW32325  12.367   7.252  14.632
10184SOL    HW132326  12.352   7.342  14.660
10184SOL    HW232327  12.288   7.205  14.658
10185SOL     OW32328   7.211  10.380  13.240
10185SOL    HW132329   7.190  10.309  13.179
10185SOL    HW232330   7.141  10.377  13.305
10186SOL     OW32331   4.095   5.489   6.015
10186SOL    HW132332   4.039   5.555   5.975
10186SOL    HW232333   4.122   5.529   6.098
10187SOL     OW32334   9.202  13.134   9.217
10187SOL    HW132335   9.234  13.103   9.133
10187SOL    HW232336   9.222  13.228   9.217
10188SOL     OW32337   5.448  14.022  11.202
10188SOL    HW132338   5.355  14.036  11.222
10188SOL    HW232339   5.490  14.013  11.287
10189SOL     OW32340  12.055  10.202  14.755
10189SOL    HW132341  12.002  10.127  14.730
10189SOL    HW232342  12.030  10.220  14.845
10190SOL     OW32343   4.335  11.619   9.642
10190SOL    HW132344   4.418  11.666   9.632
10190SOL    HW232345   4.299  11.616   9.553
10191SOL     OW32346   1.255   8.833   0.101
10191SOL    HW132347   1.167   8.850   0.135
10191SOL    HW232348   1.252   8.742   0.073
10192SOL     OW32349   9.881   0.047  14.807
10192SOL    HW132350   9.844   0.127  14.844
10192SOL    HW232351   9.818   0.019  14.740
10193SOL     OW32352  10.248   8.672  10.331
10193SOL    HW132353  10.246   8.636  10.419
10193SOL    HW232354  10.158   8.698  10.313
10194SOL     OW32355  13.559   3.477  12.249
10194SOL    HW132356  13.581   3.479  12.342
10194SOL    HW232357  13.501   3.551  12.236
10195SOL     OW32358  12.728  12.711  12.897
10195SOL    HW132359  12.803  12.768  12.916
10195SOL    HW232360  12.765  12.641  12.844
10196SOL     OW32361   9.897   8.321   7.269
10196SOL    HW132362   9.912   8.403   7.315
10196SOL    HW232363   9.972   8.266   7.293
10197SOL     OW32364   3.340   4.596   7.685
10197SOL    HW132365   3.283   4.603   7.609
10197SOL    HW232366   3.297   4.648   7.753
10198SOL     OW32367   9.307   1.991   2.507
10198SOL    HW132368   9.336   1.900   2.502
10198SOL    HW232369   9.220   1.991   2.468
10199SOL     OW32370   6.567   5.870   5.107
10199SOL    HW132371   6.487   5.817   5.098
10199SOL    HW232372   6.597   5.854   5.196
10200SOL     OW32373  11.381  13.347   7.237
10200SOL    HW132374  11.432  13.340   7.157
10200SOL    HW232375  11.435  13.399   7.296
10201SOL     OW32376  13.054   3.089   5.203
10201SOL    HW132377  13.125   3.143   5.238
10201SOL    HW232378  13.098   3.026   5.146
10202SOL     OW32379   5.015   7.661  13.031
10202SOL    HW132380   4.973   7.709  12.959
10202SOL    HW232381   5.021   7.571  12.999
10203SOL     OW32382   8.959  12.732   9.722
10203SOL    HW132383   8.986  12.664   9.783
10203SOL    HW232384   9.010  12.809   9.747
10204SOL     OW32385   8.486   8.037   7.009
10204SOL    HW132386   8.403   8.011   6.970
10204SOL    HW232387   8.540   7.958   7.006
10205SOL     OW32388   7.246   8.830   1.229
10205SOL    HW132389   7.191   8.825   1.307
10205SOL    HW232390   7.253   8.739   1.199
10206SOL     OW32391   5.184  13.038   7.309
10206SOL    HW132392   5.099  12.998   7.289
10206SOL    HW232393   5.173  13.130   7.286
10207SOL     OW32394   6.383   1.576  14.261
10207SOL    HW132395   6.435   1.517  14.207
10207SOL    HW232396   6.400   1.663  14.225
10208SOL     OW32397   9.135   5.023  13.608
10208SOL    HW132398   9.171   5.047  13.523
10208SOL    HW232399   9.041   5.014  13.592
10209SOL     OW32400  14.713   0.645   9.249
10209SOL    HW132401  14.780   0.624   9.184
10209SOL    HW232402  14.710   0.568   9.306
10210SOL     OW32403  13.396   6.285   4.943
10210SOL    HW132404  13.302   6.280   4.925
10210SOL    HW232405  13.414   6.379   4.947
10211SOL     OW32406   3.351  11.781  13.819
10211SOL    HW132407   3.438  11.779  13.859
10211SOL    HW232408   3.302  11.844  13.873
10212SOL     OW32409  11.336   8.315   3.472
10212SOL    HW132410  11.252   8.323   3.517
10212SOL    HW232411  11.317   8.342   3.382
10213SOL     OW32412   6.544   1.535  11.706
10213SOL    HW132413   6.518   1.444  11.725
10213SOL    HW232414   6.501   1.587  11.773
10214SOL     OW32415  13.783   5.422  12.282
10214SOL    HW132416  13.762   5.403  12.373
10214SOL    HW232417  13.705   5.394  12.233
10215SOL     OW32418  14.255   7.172  10.717
10215SOL    HW132419  14.194   7.234  10.757
10215SOL    HW232420  14.328   7.226  10.687
10216SOL     OW32421   8.225   5.849   7.022
10216SOL    HW132422   8.298   5.826   6.963
10216SOL    HW232423   8.158   5.885   6.964
10217SOL     OW32424  11.547  14.448  13.542
10217SOL    HW132425  11.501  14.516  13.494
10217SOL    HW232426  11.511  14.451  13.630
10218SOL     OW32427  11.734   0.443   3.644
10218SOL    HW132428  11.707   0.487   3.563
10218SOL    HW232429  11.666   0.464   3.707
10219SOL     OW32430   7.576  11.843   4.602
10219SOL    HW132431   7.563  11.923   4.551
10219SOL    HW232432   7.560  11.772   4.540
10220SOL     OW32433  12.090   8.940   5.160
10220SOL    HW132434  12.059   8.959   5.249
10220SOL    HW232435  12.180   8.910   5.172
10221SOL     OW32436   8.228   6.901   3.639
10221SOL    HW132437   8.198   6.979   3.686
10221SOL    HW232438   8.210   6.828   3.699
10222SOL     OW32439  13.752  13.388   2.769
10222SOL    HW132440  13.669  13.386   2.721
10222SOL    HW232441  13.728  13.412   2.858
10223SOL     OW32442   4.346   1.764   4.526
10223SOL    HW132443   4.388   1.843   4.560
10223SOL    HW232444   4.413   1.695   4.535
10224SOL     OW32445   4.315  10.081   5.278
10224SOL    HW132446   4.349  10.153   5.226
10224SOL    HW232447   4.389  10.021   5.287
10225SOL     OW32448   7.282   6.950  13.194
10225SOL    HW132449   7.337   6.894  13.139
10225SOL    HW232450   7.193   6.935  13.162
10226SOL     OW32451   7.453  12.527   8.526
10226SOL    HW132452   7.468  12.455   8.464
10226SOL    HW232453   7.538  12.569   8.535
10227SOL     OW32454   0.522  10.295  10.246
10227SOL    HW132455   0.459  10.359  10.212
10227SOL    HW232456   0.550  10.246  10.168
10228SOL     OW32457  11.748  14.418   3.583
10228SOL    HW132458  11.676  14.410   3.646
10228SOL    HW232459  11.824  14.442   3.636
10229SOL     OW32460   9.991   1.590  14.647
10229SOL    HW132461   9.982   1.616  14.555
10229SOL    HW232462  10.085   1.589  14.663
10230SOL     OW32463   6.607   2.031   5.994
10230SOL    HW132464   6.633   2.097   6.059
10230SOL    HW232465   6.578   2.082   5.918
10231SOL     OW32466   1.556   2.436   2.165
10231SOL    HW132467   1.563   2.382   2.086
10231SOL    HW232468   1.595   2.519   2.140
10232SOL     OW32469  11.996  14.734   3.326
10232SOL    HW132470  11.998  14.753   3.232
10232SOL    HW232471  11.938  14.801   3.362
10233SOL     OW32472  12.070   6.349  10.335
10233SOL    HW132473  12.119   6.404  10.274
10233SOL    HW232474  11.983   6.390  10.340
10234SOL     OW32475   0.674   4.884   2.601
10234SOL    HW132476   0.728   4.915   2.528
10234SOL    HW232477   0.685   4.951   2.668
10235SOL     OW32478  11.243   9.182  12.797
10235SOL    HW132479  11.270   9.094  12.822
10235SOL    HW232480  11.220   9.176  12.705
10236SOL     OW32481   1.674   7.527  10.117
10236SOL    HW132482   1.579   7.516  10.126
10236SOL    HW232483   1.687   7.621  10.107
10237SOL     OW32484   2.917  12.359  14.518
10237SOL    HW132485   2.988  12.318  14.567
10237SOL    HW232486   2.837  12.318  14.551
10238SOL     OW32487   8.922   8.004  12.377
10238SOL    HW132488   8.879   7.921  12.358
10238SOL    HW232489   9.012   7.980  12.402
10239SOL     OW32490   1.836   2.648   2.512
10239SOL    HW132491   1.888   2.587   2.564
10239SOL    HW232492   1.784   2.592   2.454
10240SOL     OW32493   7.225  10.136   9.667
10240SOL    HW132494   7.230  10.228   9.690
10240SOL    HW232495   7.302  10.096   9.708
10241SOL     OW32496   1.102  12.501  13.046
10241SOL    HW132497   1.153  12.550  13.112
10241SOL    HW232498   1.051  12.568  13.001
10242SOL     OW32499   6.022  14.777   5.532
10242SOL    HW132500   5.970  14.796   5.453
10242SOL    HW232501   6.066  14.859   5.552
10243SOL     OW32502  10.488  10.784   2.168
10243SOL    HW132503  10.396  10.796   2.144
10243SOL    HW232504  10.496  10.690   2.185
10244SOL     OW32505   9.135   3.589  12.184
10244SOL    HW132506   9.230   3.591  12.175
10244SOL    HW232507   9.105   3.669  12.142
10245SOL     OW32508   3.211   4.153   1.224
10245SOL    HW132509   3.299   4.177   1.194
10245SOL    HW232510   3.162   4.235   1.221
10246SOL     OW32511  11.388   6.698   3.081
10246SOL    HW132512  11.407   6.670   3.171
10246SOL    HW232513  11.320   6.765   3.091
10247SOL     OW32514   4.642   3.875  11.596
10247SOL    HW132515   4.609   3.959  11.625
10247SOL    HW232516   4.566   3.828  11.562
10248SOL     OW32517   8.245  10.304   5.546
10248SOL    HW132518   8.316  10.360   5.578
10248SOL    HW232519   8.285  10.218   5.536
10249SOL     OW32520   1.381   1.856  13.679
10249SOL    HW132521   1.444   1.928  13.687
10249SOL    HW232522   1.316   1.888  13.616
10250SOL     OW32523   3.202  12.125   5.741
10250SOL    HW132524   3.150  12.089   5.813
10250SOL    HW232525   3.177  12.073   5.665
10251SOL     OW32526   8.126   6.465  12.440
10251SOL    HW132527   8.091   6.539  12.489
10251SOL    HW232528   8.053   6.438  12.383
10252SOL     OW32529   0.617   2.388   5.684
10252SOL    HW132530   0.648   2.303   5.652
10252SOL    HW232531   0.608   2.377   5.778
10253SOL     OW32532   8.140   8.444   4.806
10253SOL    HW132533   8.097   8.522   4.768
10253SOL    HW232534   8.231   8.450   4.777
10254SOL     OW32535   2.900  13.296  11.026
10254SOL    HW132536   2.809  13.321  11.042
10254SOL    HW232537   2.901  13.268  10.935
10255SOL     OW32538  14.178   1.788   3.764
10255SOL    HW132539  14.229   1.819   3.689
10255SOL    HW232540  14.105   1.740   3.725
10256SOL     OW32541  10.828  10.320  10.346
10256SOL    HW132542  10.735  10.341  10.357
10256SOL    HW232543  10.874  10.397  10.380
10257SOL     OW32544   4.141   7.754   8.734
10257SOL    HW132545   4.219   7.808   8.719
10257SOL    HW232546   4.074   7.794   8.679
10258SOL     OW32547   8.567  11.881   3.805
10258SOL    HW132548   8.662  11.876   3.796
10258SOL    HW232549   8.534  11.807   3.755
10259SOL     OW32550   4.290   9.443  11.522
10259SOL    HW132551   4.352   9.513  11.541
10259SOL    HW232552   4.215   9.461  11.579
10260SOL     OW32553  12.628   6.342   7.803
10260SOL    HW132554  12.601   6.426   7.840
10260SOL    HW232555  12.635   6.284   7.878
10261SOL     OW32556  13.184  10.066   0.439
10261SOL    HW132557  13.180   9.982   0.485
10261SOL    HW232558  13.102  10.109   0.462
10262SOL     OW32559  10.512   4.251   6.677
10262SOL    HW132560  10.602   4.275   6.698
10262SOL    HW232561  10.494   4.296   6.594
10263SOL     OW32562   0.066   7.376   4.518
10263SOL    HW132563   0.007   7.449   4.539
10263SOL    HW232564   0.089   7.339   4.603
10264SOL     OW32565  11.948   8.746  13.903
10264SOL    HW132566  11.917   8.836  13.899
10264SOL    HW232567  11.917   8.707  13.821
10265SOL     OW32568   2.349   5.129   4.524
10265SOL    HW132569   2.388   5.156   4.607
10265SOL    HW232570   2.287   5.198   4.502
10266SOL     OW32571   8.745  14.840  13.160
10266SOL    HW132572   8.783  14.853  13.247
10266SOL    HW232573   8.778   0.031  13.108
10267SOL     OW32574  10.420  11.008   0.380
10267SOL    HW132575  10.406  11.102   0.374
10267SOL    HW232576  10.336  10.970   0.353
10268SOL     OW32577   8.610   3.282  12.702
10268SOL    HW132578   8.704   3.284  12.715
10268SOL    HW232579   8.597   3.309  12.611
10269SOL     OW32580   7.159   3.562   3.691
10269SOL    HW132581   7.182   3.651   3.718
10269SOL    HW232582   7.147   3.568   3.597
10270SOL     OW32583  14.852   3.695   5.808
10270SOL    HW132584  14.862   3.672   5.900
10270SOL    HW232585  14.783   3.761   5.807
10271SOL     OW32586   9.491  12.797   5.799
10271SOL    HW132587   9.440  12.780   5.720
10271SOL    HW232588   9.581  12.773   5.775
10272SOL     OW32589  11.324   0.003   0.030
10272SOL    HW132590  11.336   0.066   0.101
10272SOL    HW232591  11.299  14.803   0.075
10273SOL     OW32592   1.683   2.248   1.304
10273SOL    HW132593   1.707   2.294   1.384
10273SOL    HW232594   1.611   2.190   1.330
10274SOL     OW32595  11.783   3.989   9.259
10274SOL    HW132596  11.863   3.942   9.238
10274SOL    HW232597  11.767   4.046   9.183
10275SOL     OW32598  11.147   9.019   8.934
10275SOL    HW132599  11.233   8.983   8.953
10275SOL    HW232600  11.093   8.993   9.009
10276SOL     OW32601   0.415   9.422   5.633
10276SOL    HW132602   0.493   9.477   5.625
10276SOL    HW232603   0.391   9.428   5.726
10277SOL     OW32604   4.060   3.213   8.768
10277SOL    HW132605   3.976   3.211   8.723
10277SOL    HW232606   4.037   3.221   8.861
10278SOL     OW32607   3.118   6.511   4.259
10278SOL    HW132608   3.054   6.447   4.291
10278SOL    HW232609   3.104   6.514   4.165
10279SOL     OW32610   8.615   5.465   4.372
10279SOL    HW132611   8.572   5.472   4.457
10279SOL    HW232612   8.644   5.374   4.367
10280SOL     OW32613  10.706   4.979   1.225
10280SOL    HW132614  10.671   4.991   1.137
10280SOL    HW232615  10.717   4.885   1.234
10281SOL     OW32616   9.715  14.873   5.350
10281SOL    HW132617   9.711  14.822   5.269
10281SOL    HW232618   9.747  14.811   5.416
10282SOL     OW32619   0.882   2.702  10.653
10282SOL    HW132620   0.962   2.717  10.602
10282SOL    HW232621   0.874   2.607  10.658
10283SOL     OW32622   0.443  14.835   1.508
10283SOL    HW132623   0.449  14.859   1.415
10283SOL    HW232624   0.431  14.740   1.507
10284SOL     OW32625   4.223   2.979   5.671
10284SOL    HW132626   4.303   2.927   5.675
10284SOL    HW232627   4.196   2.987   5.763
10285SOL     OW32628   2.881  13.896   2.968
10285SOL    HW132629   2.810  13.943   3.011
10285SOL    HW232630   2.934  13.860   3.039
10286SOL     OW32631   5.843  14.040   9.715
10286SOL    HW132632   5.924  14.091   9.717
10286SOL    HW232633   5.870  13.952   9.688
10287SOL     OW32634  14.626   9.819  11.728
10287SOL    HW132635  14.601   9.907  11.756
10287SOL    HW232636  14.640   9.827  11.633
10288SOL     OW32637  11.008  11.267   6.440
10288SOL    HW132638  11.016  11.289   6.533
10288SOL    HW232639  11.091  11.226   6.418
10289SOL     OW32640   4.575  14.269  12.982
10289SOL    HW132641   4.638  14.212  12.938
10289SOL    HW232642   4.570  14.346  12.926
10290SOL     OW32643   9.794  10.795   1.557
10290SOL    HW132644   9.799  10.830   1.468
10290SOL    HW232645   9.824  10.705   1.549
10291SOL     OW32646   7.843  14.820   0.359
10291SOL    HW132647   7.843  14.845   0.267
10291SOL    HW232648   7.919  14.763   0.368
10292SOL     OW32649   4.705   7.413   9.370
10292SOL    HW132650   4.791   7.432   9.410
10292SOL    HW232651   4.723   7.408   9.276
10293SOL     OW32652   6.547   4.479   3.609
10293SOL    HW132653   6.571   4.570   3.597
10293SOL    HW232654   6.472   4.466   3.550
10294SOL     OW32655   2.976  12.715   8.270
10294SOL    HW132656   2.954  12.647   8.207
10294SOL    HW232657   2.891  12.747   8.301
10295SOL     OW32658   3.730   5.024   0.779
10295SOL    HW132659   3.702   5.108   0.742
10295SOL    HW232660   3.700   4.959   0.716
10296SOL     OW32661   7.261   3.370  14.109
10296SOL    HW132662   7.262   3.461  14.138
10296SOL    HW232663   7.184   3.364  14.053
10297SOL     OW32664  11.809   3.771  12.689
10297SOL    HW132665  11.773   3.813  12.611
10297SOL    HW232666  11.735   3.722  12.725
10298SOL     OW32667   7.450   3.992   6.414
10298SOL    HW132668   7.431   4.075   6.458
10298SOL    HW232669   7.524   3.955   6.462
10299SOL     OW32670  12.237  13.876   1.139
10299SOL    HW132671  12.307  13.915   1.087
10299SOL    HW232672  12.172  13.847   1.074
10300SOL     OW32673   2.565   4.793   6.235
10300SOL    HW132674   2.634   4.728   6.227
10300SOL    HW232675   2.492   4.757   6.184
10301SOL     OW32676   6.144  11.367   9.837
10301SOL    HW132677   6.223  11.415   9.814
10301SOL    HW232678   6.088  11.432   9.879
10302SOL     OW32679   7.398  12.631   0.891
10302SOL    HW132680   7.363  12.701   0.836
10302SOL    HW232681   7.367  12.652   0.979
10303SOL     OW32682   1.502   3.325   6.826
10303SOL    HW132683   1.585   3.363   6.798
10303SOL    HW232684   1.525   3.238   6.859
10304SOL     OW32685  12.771  10.078   6.695
10304SOL    HW132686  12.806  10.035   6.772
10304SOL    HW232687  12.697  10.023   6.668
10305SOL     OW32688  12.405  12.030   2.911
10305SOL    HW132689  12.331  12.086   2.932
10305SOL    HW232690  12.385  11.947   2.954
10306SOL     OW32691   1.600  11.354  12.393
10306SOL    HW132692   1.595  11.262  12.364
10306SOL    HW232693   1.673  11.390  12.344
10307SOL     OW32694  11.415   9.137   1.344
10307SOL    HW132695  11.508   9.116   1.332
10307SOL    HW232696  11.408   9.160   1.437
10308SOL     OW32697   6.607  12.125   6.602
10308SOL    HW132698   6.514  12.122   6.623
10308SOL    HW232699   6.623  12.044   6.554
10309SOL     OW32700   8.227  14.479   9.154
10309SOL    HW132701   8.201  14.507   9.066
10309SOL    HW232702   8.296  14.414   9.139
10310SOL     OW32703  14.743   1.803  10.760
10310SOL    HW132704  14.838   1.811  10.765
10310SOL    HW232705  14.711   1.893  10.762
10311SOL     OW32706   9.581   0.794   3.643
10311SOL    HW132707   9.583   0.710   3.688
10311SOL    HW232708   9.541   0.775   3.558
10312SOL     OW32709  11.916   2.024   6.924
10312SOL    HW132710  11.987   1.995   6.981
10312SOL    HW232711  11.898   1.948   6.868
10313SOL     OW32712   9.439   0.665  10.033
10313SOL    HW132713   9.398   0.714   9.962
10313SOL    HW232714   9.530   0.655  10.007
10314SOL     OW32715  13.929   0.567   6.030
10314SOL    HW132716  13.878   0.610   5.962
10314SOL    HW232717  13.929   0.628   6.103
10315SOL     OW32718   5.441   2.114  10.556
10315SOL    HW132719   5.476   2.124  10.467
10315SOL    HW232720   5.384   2.038  10.552
10316SOL     OW32721   7.434   5.390   9.262
10316SOL    HW132722   7.494   5.418   9.192
10316SOL    HW232723   7.425   5.296   9.250
10317SOL     OW32724   7.377  12.495   7.019
10317SOL    HW132725   7.359  12.587   7.000
10317SOL    HW232726   7.315  12.473   7.088
10318SOL     OW32727   1.704  10.248   8.588
10318SOL    HW132728   1.718  10.154   8.601
10318SOL    HW232729   1.790  10.282   8.565
10319SOL     OW32730  11.620  11.932  13.865
10319SOL    HW132731  11.595  11.857  13.810
10319SOL    HW232732  11.714  11.923  13.878
10320SOL     OW32733   9.646   3.854   1.005
10320SOL    HW132734   9.627   3.943   1.037
10320SOL    HW232735   9.574   3.801   1.038
10321SOL     OW32736   1.959   2.436   5.165
10321SOL    HW132737   1.977   2.516   5.215
10321SOL    HW232738   2.043   2.391   5.161
10322SOL     OW32739   8.418   7.187   7.009
10322SOL    HW132740   8.346   7.237   6.969
10322SOL    HW232741   8.406   7.200   7.104
10323SOL     OW32742  11.034   7.567  13.651
10323SOL    HW132743  11.031   7.640  13.589
10323SOL    HW232744  11.050   7.609  13.736
10324SOL     OW32745   1.053   6.829  13.926
10324SOL    HW132746   1.012   6.784  13.853
10324SOL    HW232747   1.064   6.762  13.993
10325SOL     OW32748   8.506  13.400   9.010
10325SOL    HW132749   8.554  13.477   8.980
10325SOL    HW232750   8.444  13.433   9.074
10326SOL     OW32751   5.276   8.211   0.995
10326SOL    HW132752   5.367   8.226   0.968
10326SOL    HW232753   5.273   8.243   1.085
10327SOL     OW32754  12.761   3.562  10.427
10327SOL    HW132755  12.698   3.631  10.405
10327SOL    HW232756  12.740   3.490  10.368
10328SOL     OW32757   6.490   8.069   0.745
10328SOL    HW132758   6.402   8.081   0.780
10328SOL    HW232759   6.507   7.976   0.754
10329SOL     OW32760  10.501   9.994  13.446
10329SOL    HW132761  10.550  10.069  13.412
10329SOL    HW232762  10.410  10.011  13.422
10330SOL     OW32763   9.242   7.856  14.656
10330SOL    HW132764   9.330   7.819  14.650
10330SOL    HW232765   9.237   7.892  14.744
10331SOL     OW32766   3.469   0.183  10.064
10331SOL    HW132767   3.463   0.088  10.068
10331SOL    HW232768   3.531   0.200   9.993
10332SOL     OW32769   0.745  13.756  11.679
10332SOL    HW132770   0.800  13.777  11.603
10332SOL    HW232771   0.657  13.785  11.652
10333SOL     OW32772  13.983   2.141  13.688
10333SOL    HW132773  14.058   2.199  13.670
10333SOL    HW232774  13.911   2.179  13.637
10334SOL     OW32775   1.785   5.368  10.483
10334SOL    HW132776   1.780   5.335  10.572
10334SOL    HW232777   1.868   5.415  10.480
10335SOL     OW32778  12.232   0.553  13.638
10335SOL    HW132779  12.205   0.474  13.684
10335SOL    HW232780  12.235   0.621  13.705
10336SOL     OW32781  13.384  10.060   0.008
10336SOL    HW132782  13.434  10.025  14.816
10336SOL    HW232783  13.396  10.155   0.002
10337SOL     OW32784  11.701   3.984   5.216
10337SOL    HW132785  11.698   3.927   5.293
10337SOL    HW232786  11.630   4.047   5.229
10338SOL     OW32787   8.012  10.840   1.884
10338SOL    HW132788   7.972  10.753   1.882
10338SOL    HW232789   7.949  10.894   1.933
10339SOL     OW32790   2.904   0.214  12.273
10339SOL    HW132791   2.993   0.194  12.243
10339SOL    HW232792   2.911   0.301  12.312
10340SOL     OW32793   9.987  12.982   8.373
10340SOL    HW132794  10.065  13.027   8.340
10340SOL    HW232795   9.992  12.894   8.335
10341SOL     OW32796  14.537  13.480   4.607
10341SOL    HW132797  14.547  13.513   4.696
10341SOL    HW232798  14.443  13.485   4.589
10342SOL     OW32799   1.452   0.174   6.737
10342SOL    HW132800   1.529   0.228   6.753
10342SOL    HW232801   1.380   0.222   6.779
10343SOL     OW32802   9.251  12.657  10.027
10343SOL    HW132803   9.286  12.628   9.943
10343SOL    HW232804   9.283  12.592  10.090
10344SOL     OW32805   3.779   7.011  12.696
10344SOL    HW132806   3.873   6.996  12.688
10344SOL    HW232807   3.762   7.083  12.634
10345SOL     OW32808   6.418  11.715  14.374
10345SOL    HW132809   6.454  11.630  14.399
10345SOL    HW232810   6.329  11.715  14.410
10346SOL     OW32811   1.487   7.150   7.168
10346SOL    HW132812   1.512   7.058   7.174
10346SOL    HW232813   1.412   7.151   7.108
10347SOL     OW32814  14.662  11.451  10.067
10347SOL    HW132815  14.725  11.380  10.075
10347SOL    HW232816  14.711  11.522  10.025
10348SOL     OW32817   1.170   2.393   2.733
10348SOL    HW132818   1.146   2.421   2.822
10348SOL    HW232819   1.124   2.453   2.676
10349SOL     OW32820   2.239   0.428  10.627
10349SOL    HW132821   2.334   0.425  10.628
10349SOL    HW232822   2.213   0.342  10.595
10350SOL     OW32823   1.934   9.549  12.407
10350SOL    HW132824   1.960   9.473  12.354
10350SOL    HW232825   1.905   9.511  12.490
10351SOL     OW32826   0.925  10.283  11.723
10351SOL    HW132827   0.953  10.361  11.771
10351SOL    HW232828   0.830  10.290  11.719
10352SOL     OW32829   0.293   9.055   0.028
10352SOL    HW132830   0.355   9.116  14.870
10352SOL    HW232831   0.291   9.080   0.120
10353SOL     OW32832   8.443   7.479   6.177
10353SOL    HW132833   8.517   7.534   6.150
10353SOL    HW232834   8.460   7.460   6.269
10354SOL     OW32835   6.059   3.480  10.733
10354SOL    HW132836   6.053   3.388  10.706
10354SOL    HW232837   6.152   3.501  10.726
10355SOL     OW32838  10.564   2.379   5.062
10355SOL    HW132839  10.531   2.294   5.091
10355SOL    HW232840  10.581   2.427   5.143
10356SOL     OW32841   7.112   8.938  10.527
10356SOL    HW132842   7.202   8.908  10.538
10356SOL    HW232843   7.107   8.967  10.436
10357SOL     OW32844   3.828  10.482   2.634
10357SOL    HW132845   3.808  10.516   2.547
10357SOL    HW232846   3.845  10.559   2.687
10358SOL     OW32847  11.453   3.975   3.119
10358SOL    HW132848  11.470   3.958   3.026
10358SOL    HW232849  11.533   4.019   3.150
10359SOL     OW32850   5.910   8.193   4.849
10359SOL    HW132851   5.944   8.178   4.760
10359SOL    HW232852   5.887   8.106   4.880
10360SOL     OW32853  10.469  10.912   6.941
10360SOL    HW132854  10.382  10.945   6.920
10360SOL    HW232855  10.460  10.874   7.029
10361SOL     OW32856   0.656  14.284   7.647
10361SOL    HW132857   0.686  14.251   7.563
10361SOL    HW232858   0.680  14.377   7.646
10362SOL     OW32859   6.875   3.872  14.785
10362SOL    HW132860   6.942   3.918  14.835
10362SOL    HW232861   6.924   3.808  14.733
10363SOL     OW32862   2.327   2.287  12.959
10363SOL    HW132863   2.419   2.312  12.969
10363SOL    HW232864   2.328   2.194  12.941
10364SOL     OW32865   9.513  10.763   7.346
10364SOL    HW132866   9.475  10.762   7.433
10364SOL    HW232867   9.502  10.853   7.316
10365SOL     OW32868   9.319   9.541  11.243
10365SOL    HW132869   9.324   9.448  11.263
10365SOL    HW232870   9.352   9.548  11.153
10366SOL     OW32871  14.576   2.520  13.264
10366SOL    HW132872  14.484   2.516  13.239
10366SOL    HW232873  14.577   2.562  13.350
10367SOL     OW32874   0.348   6.231   1.727
10367SOL    HW132875   0.389   6.264   1.647
10367SOL    HW232876   0.298   6.155   1.699
10368SOL     OW32877   5.670  14.402  12.818
10368SOL    HW132878   5.757  14.419  12.781
10368SOL    HW232879   5.652  14.478  12.873
10369SOL     OW32880   1.568   5.444   4.251
10369SOL    HW132881   1.512   5.369   4.270
10369SOL    HW232882   1.594   5.432   4.160
10370SOL     OW32883   4.777   0.344  10.668
10370SOL    HW132884   4.832   0.400  10.614
10370SOL    HW232885   4.831   0.268  10.688
10371SOL     OW32886   5.824   6.807   0.666
10371SOL    HW132887   5.912   6.773   0.674
10371SOL    HW232888   5.770   6.748   0.718
10372SOL     OW32889   1.273  12.589   0.836
10372SOL    HW132890   1.188  12.632   0.839
10372SOL    HW232891   1.259  12.504   0.878
10373SOL     OW32892  14.800  10.888   2.964
10373SOL    HW132893  14.848  10.964   2.932
10373SOL    HW232894  14.864  10.839   3.016
10374SOL     OW32895   8.697   2.999   3.490
10374SOL    HW132896   8.751   3.054   3.547
10374SOL    HW232897   8.714   3.031   3.402
10375SOL     OW32898   3.576  10.125   5.138
10375SOL    HW132899   3.599  10.210   5.176
10375SOL    HW232900   3.573  10.065   5.213
10376SOL     OW32901   4.791  13.854   5.666
10376SOL    HW132902   4.749  13.923   5.717
10376SOL    HW232903   4.875  13.839   5.710
10377SOL     OW32904   3.344   9.277  11.455
10377SOL    HW132905   3.274   9.280  11.520
10377SOL    HW232906   3.322   9.202  11.399
10378SOL     OW32907  11.636   2.238   1.443
10378SOL    HW132908  11.617   2.330   1.424
10378SOL    HW232909  11.708   2.241   1.506
10379SOL     OW32910   4.935  13.889  11.955
10379SOL    HW132911   4.916  13.909  11.863
10379SOL    HW232912   4.940  13.975  11.998
10380SOL     OW32913   1.436   9.114   7.287
10380SOL    HW132914   1.466   9.034   7.245
10380SOL    HW232915   1.461   9.184   7.227
10381SOL     OW32916   3.402   9.654   3.291
10381SOL    HW132917   3.359   9.729   3.332
10381SOL    HW232918   3.495   9.667   3.309
10382SOL     OW32919   3.215   2.989   4.631
10382SOL    HW132920   3.270   2.931   4.579
10382SOL    HW232921   3.186   2.934   4.705
10383SOL     OW32922  10.145   1.035  10.455
10383SOL    HW132923  10.197   1.090  10.513
10383SOL    HW232924  10.094   0.979  10.514
10384SOL     OW32925  14.641   3.650   0.946
10384SOL    HW132926  14.565   3.708   0.950
10384SOL    HW232927  14.640   3.604   1.029
10385SOL     OW32928   3.384   6.404   2.730
10385SOL    HW132929   3.331   6.476   2.764
10385SOL    HW232930   3.336   6.372   2.654
10386SOL     OW32931  12.946  13.528   2.610
10386SOL    HW132932  12.887  13.502   2.682
10386SOL    HW232933  13.031  13.492   2.635
10387SOL     OW32934  12.598   1.608   9.282
10387SOL    HW132935  12.687   1.573   9.290
10387SOL    HW232936  12.559   1.594   9.368
10388SOL     OW32937   6.199   0.237   3.549
10388SOL    HW132938   6.257   0.211   3.620
10388SOL    HW232939   6.142   0.304   3.587
10389SOL     OW32940   1.879   7.517  13.225
10389SOL    HW132941   1.833   7.513  13.141
10389SOL    HW232942   1.812   7.499  13.291
10390SOL     OW32943   6.550   5.975  14.861
10390SOL    HW132944   6.553   5.885   0.013
10390SOL    HW232945   6.633   6.013   0.008
10391SOL     OW32946   8.823   2.133   0.023
10391SOL    HW132947   8.735   2.115   0.056
10391SOL    HW232948   8.878   2.135   0.102
10392SOL     OW32949  12.547   1.309   9.247
10392SOL    HW132950  12.556   1.403   9.233
10392SOL    HW232951  12.636   1.280   9.270
10393SOL     OW32952   2.326  11.238  14.555
10393SOL    HW132953   2.382  11.162  14.538
10393SOL    HW232954   2.258  11.233  14.489
10394SOL     OW32955   8.373   9.761   9.446
10394SOL    HW132956   8.403   9.763   9.537
10394SOL    HW232957   8.298   9.820   9.445
10395SOL     OW32958   7.030   3.174   4.421
10395SOL    HW132959   7.041   3.130   4.505
10395SOL    HW232960   6.984   3.255   4.442
10396SOL     OW32961   5.099   4.614   3.029
10396SOL    HW132962   5.048   4.618   2.948
10396SOL    HW232963   5.035   4.624   3.099
10397SOL     OW32964   2.325   8.467   9.283
10397SOL    HW132965   2.396   8.446   9.221
10397SOL    HW232966   2.247   8.427   9.244
10398SOL     OW32967  13.062   7.491  10.056
10398SOL    HW132968  13.004   7.464   9.985
10398SOL    HW232969  13.070   7.586  10.046
10399SOL     OW32970   7.946   0.736   5.022
10399SOL    HW132971   7.983   0.714   4.937
10399SOL    HW232972   7.921   0.651   5.060
10400SOL     OW32973   0.163   8.930   5.358
10400SOL    HW132974   0.099   8.942   5.428
10400SOL    HW232975   0.115   8.947   5.278
10401SOL     OW32976   5.839   3.352   2.827
10401SOL    HW132977   5.902   3.330   2.896
10401SOL    HW232978   5.888   3.341   2.745
10402SOL     OW32979  12.026  13.845   1.738
10402SOL    HW132980  12.122  13.841   1.735
10402SOL    HW232981  12.007  13.936   1.764
10403SOL     OW32982  11.363   1.113   2.744
10403SOL    HW132983  11.406   1.170   2.808
10403SOL    HW232984  11.307   1.172   2.694
10404SOL     OW32985   5.496   0.813  11.576
10404SOL    HW132986   5.511   0.901  11.541
10404SOL    HW232987   5.424   0.824  11.637
10405SOL     OW32988  11.225   6.643   5.470
10405SOL    HW132989  11.312   6.605   5.461
10405SOL    HW232990  11.216   6.702   5.395
10406SOL     OW32991   4.295   7.112   5.150
10406SOL    HW132992   4.382   7.082   5.125
10406SOL    HW232993   4.300   7.125   5.245
10407SOL     OW32994   1.031   9.344   8.175
10407SOL    HW132995   0.969   9.348   8.248
10407SOL    HW232996   1.017   9.425   8.127
10408SOL     OW32997   8.651   4.153   6.614
10408SOL    HW132998   8.651   4.194   6.700
10408SOL    HW232999   8.560   4.129   6.599
10409SOL     OW33000  10.408   3.035   6.054
10409SOL    HW133001  10.338   3.093   6.024
10409SOL    HW233002  10.372   2.991   6.131
10410SOL     OW33003   4.091   7.885  14.314
10410SOL    HW133004   4.008   7.875  14.361
10410SOL    HW233005   4.110   7.978  14.317
10411SOL     OW33006   8.493   5.494   7.179
10411SOL    HW133007   8.482   5.521   7.270
10411SOL    HW233008   8.506   5.399   7.184
10412SOL     OW33009   4.702   2.267   9.917
10412SOL    HW133010   4.634   2.228   9.862
10412SOL    HW233011   4.745   2.331   9.861
10413SOL     OW33012  12.386   9.891   0.867
10413SOL    HW133013  12.365   9.980   0.897
10413SOL    HW233014  12.398   9.901   0.772
10414SOL     OW33015   3.056   5.290  14.053
10414SOL    HW133016   3.017   5.337  13.980
10414SOL    HW233017   2.985   5.238  14.090
10415SOL     OW33018   3.192  12.249   2.509
10415SOL    HW133019   3.214  12.217   2.597
10415SOL    HW233020   3.213  12.342   2.511
10416SOL     OW33021   2.077   4.210  10.939
10416SOL    HW133022   2.146   4.274  10.956
10416SOL    HW233023   2.124   4.127  10.927
10417SOL     OW33024   3.934  10.532   4.924
10417SOL    HW133025   3.949  10.585   4.846
10417SOL    HW233026   4.000  10.464   4.920
10418SOL     OW33027   9.757  14.093   5.917
10418SOL    HW133028   9.683  14.154   5.919
10418SOL    HW233029   9.802  14.108   6.000
10419SOL     OW33030   1.929   0.883  13.319
10419SOL    HW133031   1.946   0.905  13.411
10419SOL    HW233032   1.942   0.966  13.272
10420SOL     OW33033  11.806  13.165   6.072
10420SOL    HW133034  11.900  13.161   6.058
10420SOL    HW233035  11.785  13.085   6.120
10421SOL     OW33036   1.008   4.575  11.533
10421SOL    HW133037   0.928   4.592  11.581
10421SOL    HW233038   1.018   4.480  11.535
10422SOL     OW33039   2.747   9.191   4.651
10422SOL    HW133040   2.652   9.191   4.643
10422SOL    HW233041   2.768   9.108   4.693
10423SOL     OW33042   3.679  10.188   1.437
10423SOL    HW133043   3.607  10.130   1.414
10423SOL    HW233044   3.734  10.136   1.495
10424SOL     OW33045   3.389  12.137   8.537
10424SOL    HW133046   3.464  12.077   8.535
10424SOL    HW233047   3.422  12.217   8.497
10425SOL     OW33048   3.931   8.240   2.844
10425SOL    HW133049   3.903   8.158   2.883
10425SOL    HW233050   3.852   8.276   2.804
10426SOL     OW33051   2.911   4.586   7.745
10426SOL    HW133052   2.998   4.548   7.737
10426SOL    HW233053   2.854   4.527   7.695
10427SOL     OW33054   6.095   8.748  10.547
10427SOL    HW133055   6.081   8.832  10.591
10427SOL    HW233056   6.185   8.725  10.570
10428SOL     OW33057   6.664   3.440   1.613
10428SOL    HW133058   6.594   3.481   1.664
10428SOL    HW233059   6.653   3.475   1.524
10429SOL     OW33060   5.031  13.771   5.158
10429SOL    HW133061   5.081  13.819   5.224
10429SOL    HW233062   4.975  13.838   5.117
10430SOL     OW33063   0.325  13.127  11.173
10430SOL    HW133064   0.242  13.171  11.194
10430SOL    HW233065   0.362  13.103  11.258
10431SOL     OW33066  10.473   3.455   4.270
10431SOL    HW133067  10.566   3.475   4.280
10431SOL    HW233068  10.455   3.390   4.337
10432SOL     OW33069  14.195   3.644   9.265
10432SOL    HW133070  14.177   3.704   9.337
10432SOL    HW233071  14.289   3.653   9.250
10433SOL     OW33072   2.945   5.381   6.238
10433SOL    HW133073   2.957   5.288   6.222
10433SOL    HW233074   2.891   5.411   6.166
10434SOL     OW33075   9.242   6.945   1.251
10434SOL    HW133076   9.253   7.019   1.192
10434SOL    HW233077   9.177   6.974   1.315
10435SOL     OW33078   5.807   6.507   1.316
10435SOL    HW133079   5.876   6.453   1.356
10435SOL    HW233080   5.841   6.528   1.229
10436SOL     OW33081   9.307   9.250  11.270
10436SOL    HW133082   9.286   9.205  11.189
10436SOL    HW233083   9.312   9.180  11.336
10437SOL     OW33084   9.171   3.847   2.613
10437SOL    HW133085   9.120   3.924   2.636
10437SOL    HW233086   9.105   3.781   2.591
10438SOL     OW33087   8.297   6.201   5.694
10438SOL    HW133088   8.389   6.187   5.667
10438SOL    HW233089   8.257   6.245   5.619
10439SOL     OW33090   8.267  14.820  11.613
10439SOL    HW133091   8.201  14.756  11.586
10439SOL    HW233092   8.318  14.837  11.534
10440SOL     OW33093  10.064   4.947   0.909
10440SOL    HW133094  10.064   4.988   0.822
10440SOL    HW233095  10.009   4.869   0.898
10441SOL     OW33096   5.756  13.778   1.526
10441SOL    HW133097   5.705  13.725   1.465
10441SOL    HW233098   5.800  13.842   1.470
10442SOL     OW33099   7.773   1.148   8.335
10442SOL    HW133100   7.856   1.100   8.340
10442SOL    HW233101   7.761   1.184   8.423
10443SOL     OW33102  11.989  11.148   7.521
10443SOL    HW133103  12.082  11.171   7.519
10443SOL    HW233104  11.982  11.083   7.591
10444SOL     OW33105   8.511   3.965   7.403
10444SOL    HW133106   8.571   3.891   7.396
10444SOL    HW233107   8.477   3.960   7.492
10445SOL     OW33108  10.229  10.369   5.172
10445SOL    HW133109  10.324  10.358   5.179
10445SOL    HW233110  10.200  10.382   5.262
10446SOL     OW33111   5.256  10.304   6.174
10446SOL    HW133112   5.184  10.346   6.126
10446SOL    HW233113   5.244  10.211   6.159
10447SOL     OW33114   7.026  11.474  14.110
10447SOL    HW133115   7.063  11.538  14.050
10447SOL    HW233116   7.035  11.390  14.064
10448SOL     OW33117   7.569   1.888   7.733
10448SOL    HW133118   7.663   1.896   7.718
10448SOL    HW233119   7.528   1.937   7.662
10449SOL     OW33120  14.401   8.990   1.729
10449SOL    HW133121  14.433   8.959   1.814
10449SOL    HW233122  14.479   8.998   1.675
10450SOL     OW33123   5.505   5.146  13.720
10450SOL    HW133124   5.454   5.207  13.668
10450SOL    HW233125   5.440   5.089  13.761
10451SOL     OW33126   3.962   6.463   8.121
10451SOL    HW133127   3.909   6.490   8.196
10451SOL    HW233128   3.907   6.401   8.073
10452SOL     OW33129   4.865   3.835   1.037
10452SOL    HW133130   4.857   3.898   0.966
10452SOL    HW233131   4.960   3.825   1.049
10453SOL     OW33132  11.511  10.959   6.096
10453SOL    HW133133  11.426  10.995   6.122
10453SOL    HW233134  11.526  10.992   6.008
10454SOL     OW33135   7.837   4.454   5.488
10454SOL    HW133136   7.878   4.368   5.499
10454SOL    HW233137   7.768   4.457   5.554
10455SOL     OW33138   6.973   2.554   9.133
10455SOL    HW133139   7.038   2.591   9.193
10455SOL    HW233140   6.950   2.626   9.075
10456SOL     OW33141   6.904  11.082  12.937
10456SOL    HW133142   6.809  11.072  12.945
10456SOL    HW233143   6.938  11.061  13.024
10457SOL     OW33144   5.600  10.930   6.283
10457SOL    HW133145   5.664  10.945   6.353
10457SOL    HW233146   5.644  10.960   6.203
10458SOL     OW33147  13.467   0.625  10.092
10458SOL    HW133148  13.419   0.696  10.134
10458SOL    HW233149  13.547   0.616  10.144
10459SOL     OW33150   8.975   1.593   1.020
10459SOL    HW133151   8.999   1.503   1.000
10459SOL    HW233152   9.043   1.623   1.081
10460SOL     OW33153   5.944   4.356  14.201
10460SOL    HW133154   5.853   4.367  14.231
10460SOL    HW233155   5.974   4.277  14.244
10461SOL     OW33156   5.031  13.763  12.167
10461SOL    HW133157   5.044  13.843  12.219
10461SOL    HW233158   4.995  13.794  12.084
10462SOL     OW33159   9.780   5.263   8.582
10462SOL    HW133160   9.737   5.285   8.499
10462SOL    HW233161   9.782   5.345   8.631
10463SOL     OW33162   1.987  11.635   8.927
10463SOL    HW133163   2.064  11.666   8.879
10463SOL    HW233164   2.023  11.604   9.010
10464SOL     OW33165  13.480   0.109   8.930
10464SOL    HW133166  13.525   0.036   8.971
10464SOL    HW233167  13.412   0.134   8.992
10465SOL     OW33168   5.148  13.590   3.194
10465SOL    HW133169   5.189  13.640   3.123
10465SOL    HW233170   5.146  13.652   3.267
10466SOL     OW33171   8.991   3.635   2.155
10466SOL    HW133172   8.965   3.616   2.065
10466SOL    HW233173   9.084   3.612   2.158
10467SOL     OW33174   2.089   0.623   4.283
10467SOL    HW133175   2.037   0.702   4.268
10467SOL    HW233176   2.050   0.583   4.360
10468SOL     OW33177   8.231   1.957   1.688
10468SOL    HW133178   8.194   1.957   1.600
10468SOL    HW233179   8.202   2.040   1.726
10469SOL     OW33180   8.070   2.973   6.757
10469SOL    HW133181   7.984   3.003   6.788
10469SOL    HW233182   8.053   2.889   6.716
10470SOL     OW33183   1.369  13.481   1.712
10470SOL    HW133184   1.296  13.451   1.658
10470SOL    HW233185   1.332  13.551   1.766
10471SOL     OW33186  13.466   7.211  10.433
10471SOL    HW133187  13.522   7.285  10.412
10471SOL    HW233188  13.477   7.150  10.360
10472SOL     OW33189   5.628  10.714   7.610
10472SOL    HW133190   5.611  10.639   7.668
10472SOL    HW233191   5.717  10.700   7.577
10473SOL     OW33192  13.707   5.062  11.427
10473SOL    HW133193  13.708   5.045  11.333
10473SOL    HW233194  13.749   5.148  11.435
10474SOL     OW33195   3.806   4.093   2.635
10474SOL    HW133196   3.871   4.040   2.681
10474SOL    HW233197   3.826   4.081   2.542
10475SOL     OW33198  13.152   6.638   3.627
10475SOL    HW133199  13.195   6.589   3.558
10475SOL    HW233200  13.059   6.620   3.615
10476SOL     OW33201   7.244   6.840   6.327
10476SOL    HW133202   7.309   6.782   6.286
10476SOL    HW233203   7.257   6.829   6.421
10477SOL     OW33204  12.308   5.787  14.575
10477SOL    HW133205  12.344   5.835  14.649
10477SOL    HW233206  12.348   5.826  14.498
10478SOL     OW33207   4.871   7.801   9.511
10478SOL    HW133208   4.805   7.814   9.579
10478SOL    HW233209   4.922   7.882   9.511
10479SOL     OW33210   4.396   5.657   5.859
10479SOL    HW133211   4.467   5.705   5.902
10479SOL    HW233212   4.318   5.680   5.909
10480SOL     OW33213  11.197  13.871  14.317
10480SOL    HW133214  11.105  13.847  14.332
10480SOL    HW233215  11.207  13.955  14.363
10481SOL     OW33216  14.345  14.718  10.863
10481SOL    HW133217  14.289  14.666  10.805
10481SOL    HW233218  14.357  14.801  10.817
10482SOL     OW33219   7.539   4.933   3.619
10482SOL    HW133220   7.460   4.883   3.639
10482SOL    HW233221   7.582   4.883   3.549
10483SOL     OW33222   3.009   0.009   2.636
10483SOL    HW133223   3.047   0.063   2.705
10483SOL    HW233224   3.085  14.850   2.593
10484SOL     OW33225   0.296   2.886  13.838
10484SOL    HW133226   0.349   2.854  13.911
10484SOL    HW233227   0.244   2.957  13.876
10485SOL     OW33228  11.120   6.942  14.236
10485SOL    HW133229  11.027   6.918  14.240
10485SOL    HW233230  11.166   6.859  14.247
10486SOL     OW33231   9.195   4.118  14.160
10486SOL    HW133232   9.109   4.141  14.126
10486SOL    HW233233   9.250   4.106  14.082
10487SOL     OW33234  11.812   9.332   1.462
10487SOL    HW133235  11.851   9.251   1.495
10487SOL    HW233236  11.753   9.304   1.392
10488SOL     OW33237  10.708   3.775   0.994
10488SOL    HW133238  10.732   3.807   1.081
10488SOL    HW233239  10.791   3.748   0.955
10489SOL     OW33240   2.099  12.258   0.235
10489SOL    HW133241   2.137  12.259   0.323
10489SOL    HW233242   2.068  12.168   0.225
10490SOL     OW33243   5.293  14.506  13.391
10490SOL    HW133244   5.262  14.464  13.472
10490SOL    HW233245   5.247  14.590  13.389
10491SOL     OW33246   1.961  11.167   6.448
10491SOL    HW133247   1.957  11.202   6.537
10491SOL    HW233248   2.054  11.164   6.428
10492SOL     OW33249   3.663   4.423  10.733
10492SOL    HW133250   3.702   4.467  10.657
10492SOL    HW233251   3.705   4.464  10.808
10493SOL     OW33252   2.259  10.389   9.831
10493SOL    HW133253   2.283  10.298   9.848
10493SOL    HW233254   2.228  10.389   9.740
10494SOL     OW33255   0.804   7.332   7.715
10494SOL    HW133256   0.805   7.380   7.798
10494SOL    HW233257   0.811   7.401   7.649
10495SOL     OW33258   3.242  12.464   8.842
10495SOL    HW133259   3.170  12.526   8.856
10495SOL    HW233260   3.230  12.434   8.752
10496SOL     OW33261  14.604   1.661  14.127
10496SOL    HW133262  14.585   1.710  14.047
10496SOL    HW233263  14.657   1.587  14.098
10497SOL     OW33264  12.014   4.949   5.153
10497SOL    HW133265  12.005   4.946   5.248
10497SOL    HW233266  11.978   5.034   5.128
10498SOL     OW33267   8.753   5.687  10.262
10498SOL    HW133268   8.678   5.660  10.209
10498SOL    HW233269   8.751   5.629  10.338
10499SOL     OW33270   4.270  10.562   6.205
10499SOL    HW133271   4.283  10.607   6.288
10499SOL    HW233272   4.303  10.473   6.220
10500SOL     OW33273  11.524   2.616  11.238
10500SOL    HW133274  11.605   2.566  11.242
10500SOL    HW233275  11.476   2.592  11.318
10501SOL     OW33276   4.200   0.793  10.640
10501SOL    HW133277   4.168   0.786  10.550
10501SOL    HW233278   4.170   0.712  10.682
10502SOL     OW33279   8.061  13.208   3.861
10502SOL    HW133280   8.109  13.267   3.803
10502SOL    HW233281   8.005  13.265   3.914
10503SOL     OW33282   2.517   8.208   5.953
10503SOL    HW133283   2.585   8.259   5.997
10503SOL    HW233284   2.441   8.267   5.951
10504SOL     OW33285  13.597   1.156   6.593
10504SOL    HW133286  13.514   1.178   6.549
10504SOL    HW233287  13.605   1.061   6.581
10505SOL     OW33288   7.814   0.286   3.818
10505SOL    HW133289   7.774   0.370   3.795
10505SOL    HW233290   7.815   0.285   3.914
10506SOL     OW33291   2.653   1.416   7.646
10506SOL    HW133292   2.620   1.445   7.561
10506SOL    HW233293   2.625   1.484   7.707
10507SOL     OW33294   3.037  11.940   7.499
10507SOL    HW133295   3.073  11.966   7.584
10507SOL    HW233296   2.945  11.922   7.516
10508SOL     OW33297   0.520   3.764  14.659
10508SOL    HW133298   0.432   3.760  14.620
10508SOL    HW233299   0.554   3.675  14.651
10509SOL     OW33300  14.615  11.025   6.619
10509SOL    HW133301  14.557  11.021   6.543
10509SOL    HW233302  14.693  11.070   6.587
10510SOL     OW33303  13.291   0.088   6.103
10510SOL    HW133304  13.238   0.165   6.123
10510SOL    HW233305  13.380   0.122   6.095
10511SOL     OW33306  13.571  14.327   4.970
10511SOL    HW133307  13.489  14.309   5.017
10511SOL    HW233308  13.548  14.317   4.878
10512SOL     OW33309   8.651  14.355   7.514
10512SOL    HW133310   8.738  14.337   7.548
10512SOL    HW233311   8.643  14.451   7.516
10513SOL     OW33312   1.229  12.347  12.500
10513SOL    HW133313   1.209  12.403  12.425
10513SOL    HW233314   1.303  12.294  12.472
10514SOL     OW33315   3.837   4.347  13.769
10514SOL    HW133316   3.932   4.358  13.763
10514SOL    HW233317   3.802   4.433  13.747
10515SOL     OW33318   1.297   6.344   5.999
10515SOL    HW133319   1.382   6.371   6.033
10515SOL    HW233320   1.256   6.297   6.071
10516SOL     OW33321   0.771   9.865  11.607
10516SOL    HW133322   0.844   9.906  11.654
10516SOL    HW233323   0.731   9.806  11.671
10517SOL     OW33324  12.269   8.523  12.406
10517SOL    HW133325  12.353   8.492  12.373
10517SOL    HW233326  12.205   8.490  12.344
10518SOL     OW33327   2.647  13.254   6.263
10518SOL    HW133328   2.691  13.327   6.305
10518SOL    HW233329   2.707  13.180   6.272
10519SOL     OW33330  10.081  12.704   1.565
10519SOL    HW133331  10.130  12.658   1.633
10519SOL    HW233332  10.106  12.795   1.575
10520SOL     OW33333  12.227   2.757   4.034
10520SOL    HW133334  12.240   2.730   3.943
10520SOL    HW233335  12.213   2.674   4.081
10521SOL     OW33336  11.292  13.354   5.357
10521SOL    HW133337  11.287  13.357   5.262
10521SOL    HW233338  11.330  13.269   5.377
10522SOL     OW33339   3.621   1.351  13.209
10522SOL    HW133340   3.608   1.392  13.295
10522SOL    HW233341   3.632   1.258  13.228
10523SOL     OW33342   7.505   1.713   1.306
10523SOL    HW133343   7.444   1.639   1.313
10523SOL    HW233344   7.581   1.687   1.359
10524SOL     OW33345   0.053  12.003   4.342
10524SOL    HW133346   0.092  12.042   4.420
10524SOL    HW233347   0.120  11.944   4.309
10525SOL     OW33348   2.702   2.948  11.666
10525SOL    HW133349   2.615   2.919  11.641
10525SOL    HW233350   2.727   2.889  11.738
10526SOL     OW33351   3.029   5.181   9.758
10526SOL    HW133352   3.073   5.112   9.708
10526SOL    HW233353   3.094   5.250   9.767
10527SOL     OW33354  10.245  10.406   2.356
10527SOL    HW133355  10.218  10.351   2.282
10527SOL    HW233356  10.278  10.343   2.421
10528SOL     OW33357  10.679   4.377   5.214
10528SOL    HW133358  10.641   4.297   5.250
10528SOL    HW233359  10.607   4.439   5.211
10529SOL     OW33360   1.850  10.164   5.940
10529SOL    HW133361   1.878  10.195   5.854
10529SOL    HW233362   1.915  10.198   6.001
10530SOL     OW33363   0.099   9.324   0.213
10530SOL    HW133364   0.127   9.344   0.124
10530SOL    HW233365   0.167   9.266   0.247
10531SOL     OW33366   5.575   7.379   4.062
10531SOL    HW133367   5.655   7.368   4.010
10531SOL    HW233368   5.508   7.332   4.014
10532SOL     OW33369   6.554   4.918   6.931
10532SOL    HW133370   6.567   4.951   7.020
10532SOL    HW233371   6.498   4.842   6.942
10533SOL     OW33372   2.872  13.326   4.416
10533SOL    HW133373   2.967  13.319   4.406
10533SOL    HW233374   2.844  13.378   4.341
10534SOL     OW33375  11.530   9.856   7.291
10534SOL    HW133376  11.466   9.819   7.230
10534SOL    HW233377  11.501   9.826   7.377
10535SOL     OW33378   4.961   2.456  11.963
10535SOL    HW133379   4.971   2.528  11.900
10535SOL    HW233380   4.954   2.500  12.048
10536SOL     OW33381   0.799  12.813  12.075
10536SOL    HW133382   0.772  12.728  12.040
10536SOL    HW233383   0.895  12.809  12.075
10537SOL     OW33384  14.117   3.025   5.962
10537SOL    HW133385  14.069   2.945   5.984
10537SOL    HW233386  14.099   3.040   5.870
10538SOL     OW33387   2.128   8.653   4.661
10538SOL    HW133388   2.207   8.611   4.625
10538SOL    HW233389   2.098   8.594   4.730
10539SOL     OW33390   8.335  13.840  11.854
10539SOL    HW133391   8.250  13.815  11.817
10539SOL    HW233392   8.344  13.933  11.833
10540SOL     OW33393   1.107   5.775  11.670
10540SOL    HW133394   1.090   5.738  11.584
10540SOL    HW233395   1.142   5.862  11.653
10541SOL     OW33396   4.890   8.143  10.276
10541SOL    HW133397   4.921   8.080  10.341
10541SOL    HW233398   4.820   8.191  10.320
10542SOL     OW33399   3.041   4.378   1.128
10542SOL    HW133400   2.950   4.369   1.100
10542SOL    HW233401   3.036   4.425   1.212
10543SOL     OW33402  11.551   1.961   7.532
10543SOL    HW133403  11.596   2.041   7.557
10543SOL    HW233404  11.459   1.978   7.553
10544SOL     OW33405  10.052  10.113   9.013
10544SOL    HW133406  10.101  10.045   8.966
10544SOL    HW233407   9.970  10.071   9.038
10545SOL     OW33408   0.680   5.885   9.722
10545SOL    HW133409   0.639   5.801   9.742
10545SOL    HW233410   0.613   5.950   9.745
10546SOL     OW33411   1.020   2.426   6.414
10546SOL    HW133412   1.021   2.511   6.370
10546SOL    HW233413   1.006   2.447   6.506
10547SOL     OW33414  11.375   3.263  12.631
10547SOL    HW133415  11.284   3.245  12.608
10547SOL    HW233416  11.415   3.176  12.639
10548SOL     OW33417  10.098   9.586   5.917
10548SOL    HW133418  10.085   9.667   5.867
10548SOL    HW233419  10.104   9.615   6.008
10549SOL     OW33420   3.516   1.361   6.489
10549SOL    HW133421   3.538   1.321   6.405
10549SOL    HW233422   3.420   1.354   6.494
10550SOL     OW33423   2.691   5.916   2.207
10550SOL    HW133424   2.713   6.006   2.228
10550SOL    HW233425   2.595   5.916   2.197
10551SOL     OW33426  14.127  11.733  11.841
10551SOL    HW133427  14.122  11.712  11.935
10551SOL    HW233428  14.213  11.699  11.814
10552SOL     OW33429   2.674   4.219   4.660
10552SOL    HW133430   2.680   4.186   4.571
10552SOL    HW233431   2.631   4.304   4.652
10553SOL     OW33432  10.857   5.140  11.940
10553SOL    HW133433  10.797   5.126  11.867
10553SOL    HW233434  10.833   5.073  12.004
10554SOL     OW33435   8.989   0.439   6.865
10554SOL    HW133436   8.988   0.407   6.774
10554SOL    HW233437   8.908   0.406   6.902
10555SOL     OW33438   8.198   1.415   7.627
10555SOL    HW133439   8.274   1.450   7.581
10555SOL    HW233440   8.231   1.396   7.715
10556SOL     OW33441  10.634   0.726   9.706
10556SOL    HW133442  10.593   0.644   9.680
10556SOL    HW233443  10.721   0.723   9.666
10557SOL     OW33444   1.107   6.701   3.629
10557SOL    HW133445   1.092   6.632   3.694
10557SOL    HW233446   1.178   6.753   3.667
10558SOL     OW33447   9.850   6.846   0.181
10558SOL    HW133448   9.885   6.920   0.130
10558SOL    HW233449   9.781   6.810   0.126
10559SOL     OW33450   1.870  10.579   7.769
10559SOL    HW133451   1.815  10.501   7.772
10559SOL    HW233452   1.816  10.648   7.808
10560SOL     OW33453   5.366   5.389   8.956
10560SOL    HW133454   5.287   5.334   8.952
10560SOL    HW233455   5.437   5.330   8.930
10561SOL     OW33456   3.911   2.169   3.173
10561SOL    HW133457   3.850   2.097   3.163
10561SOL    HW233458   3.933   2.195   3.084
10562SOL     OW33459   5.477   5.213   4.935
10562SOL    HW133460   5.440   5.244   5.018
10562SOL    HW233461   5.550   5.272   4.918
10563SOL     OW33462  13.834  14.306  11.493
10563SOL    HW133463  13.832  14.368  11.420
10563SOL    HW233464  13.915  14.326  11.540
10564SOL     OW33465  11.133   1.944   3.895
10564SOL    HW133466  11.156   1.874   3.833
10564SOL    HW233467  11.077   2.003   3.845
10565SOL     OW33468   7.905   5.677  12.372
10565SOL    HW133469   7.992   5.691  12.409
10565SOL    HW233470   7.849   5.737  12.421
10566SOL     OW33471  12.801   3.608  10.004
10566SOL    HW133472  12.875   3.576  10.055
10566SOL    HW233473  12.728   3.551  10.029
10567SOL     OW33474   0.519   7.339  10.662
10567SOL    HW133475   0.484   7.396  10.593
10567SOL    HW233476   0.561   7.398  10.724
10568SOL     OW33477   6.683  14.843   1.437
10568SOL    HW133478   6.661   0.043   1.482
10568SOL    HW233479   6.647  14.854   1.349
10569SOL     OW33480   4.826   3.563   9.643
10569SOL    HW133481   4.846   3.559   9.550
10569SOL    HW233482   4.791   3.652   9.655
10570SOL     OW33483  11.543   3.182   7.543
10570SOL    HW133484  11.592   3.262   7.561
10570SOL    HW233485  11.576   3.118   7.606
10571SOL     OW33486  13.615  12.511   2.463
10571SOL    HW133487  13.563  12.432   2.476
10571SOL    HW233488  13.558  12.583   2.492
10572SOL     OW33489  13.098   7.492  12.171
10572SOL    HW133490  13.012   7.511  12.207
10572SOL    HW233491  13.153   7.471  12.247
10573SOL     OW33492  14.116   7.622   1.962
10573SOL    HW133493  14.147   7.535   1.935
10573SOL    HW233494  14.076   7.607   2.047
10574SOL     OW33495   1.050  12.525   0.266
10574SOL    HW133496   0.957  12.524   0.243
10574SOL    HW233497   1.096  12.523   0.182
10575SOL     OW33498   0.202   4.486   0.656
10575SOL    HW133499   0.296   4.494   0.641
10575SOL    HW233500   0.173   4.575   0.677
10576SOL     OW33501   2.356   8.517   7.600
10576SOL    HW133502   2.345   8.571   7.522
10576SOL    HW233503   2.397   8.436   7.568
10577SOL     OW33504   2.321   6.540   0.006
10577SOL    HW133505   2.316   6.594   0.085
10577SOL    HW233506   2.239   6.556  14.842
10578SOL     OW33507  14.104   5.756  12.333
10578SOL    HW133508  14.155   5.682  12.298
10578SOL    HW233509  14.110   5.823  12.265
10579SOL     OW33510   5.133   9.476   3.324
10579SOL    HW133511   5.206   9.415   3.312
10579SOL    HW233512   5.169   9.545   3.380
10580SOL     OW33513   3.798  12.471   7.453
10580SOL    HW133514   3.833  12.542   7.508
10580SOL    HW233515   3.829  12.492   7.365
10581SOL     OW33516  12.747  13.830   0.713
10581SOL    HW133517  12.744  13.898   0.645
10581SOL    HW233518  12.774  13.877   0.792
10582SOL     OW33519   6.870   7.309   6.332
10582SOL    HW133520   6.868   7.229   6.278
10582SOL    HW233521   6.949   7.300   6.385
10583SOL     OW33522   8.551   0.480  14.096
10583SOL    HW133523   8.632   0.452  14.139
10583SOL    HW233524   8.490   0.408  14.110
10584SOL     OW33525   5.976   4.368  12.490
10584SOL    HW133526   6.067   4.348  12.508
10584SOL    HW233527   5.944   4.295  12.438
10585SOL     OW33528   7.608   9.497   4.524
10585SOL    HW133529   7.639   9.523   4.438
10585SOL    HW233530   7.596   9.402   4.517
10586SOL     OW33531  13.392  10.170   9.028
10586SOL    HW133532  13.459  10.133   8.972
10586SOL    HW233533  13.426  10.159   9.117
10587SOL     OW33534  11.980  13.233  12.509
10587SOL    HW133535  11.914  13.295  12.539
10587SOL    HW233536  12.059  13.255  12.558
10588SOL     OW33537   0.214  11.180   8.443
10588SOL    HW133538   0.129  11.200   8.405
10588SOL    HW233539   0.263  11.138   8.373
10589SOL     OW33540   7.026   1.542  10.740
10589SOL    HW133541   7.079   1.534  10.661
10589SOL    HW233542   7.089   1.559  10.810
10590SOL     OW33543  12.085  12.787   5.931
10590SOL    HW133544  12.031  12.776   5.852
10590SOL    HW233545  12.076  12.705   5.979
10591SOL     OW33546   8.039  11.391  12.319
10591SOL    HW133547   8.044  11.387  12.415
10591SOL    HW233548   7.995  11.311  12.294
10592SOL     OW33549   2.830   4.204   6.447
10592SOL    HW133550   2.775   4.235   6.375
10592SOL    HW233551   2.865   4.283   6.487
10593SOL     OW33552  14.347  11.679  10.889
10593SOL    HW133553  14.259  11.643  10.891
10593SOL    HW233554  14.341  11.756  10.833
10594SOL     OW33555  10.211   3.224   6.066
10594SOL    HW133556  10.203   3.254   6.157
10594SOL    HW233557  10.122   3.201   6.041
10595SOL     OW33558   0.717   3.167  10.887
10595SOL    HW133559   0.717   3.076  10.856
10595SOL    HW233560   0.771   3.214  10.823
10596SOL     OW33561  13.460   2.711   1.283
10596SOL    HW133562  13.540   2.762   1.270
10596SOL    HW233563  13.476   2.629   1.236
10597SOL     OW33564   2.259   9.208   8.287
10597SOL    HW133565   2.290   9.180   8.374
10597SOL    HW233566   2.284   9.300   8.282
10598SOL     OW33567  10.537   1.786   0.316
10598SOL    HW133568  10.596   1.851   0.279
10598SOL    HW233569  10.462   1.785   0.256
10599SOL     OW33570   4.210   4.850   0.526
10599SOL    HW133571   4.158   4.867   0.605
10599SOL    HW233572   4.260   4.931   0.513
10600SOL     OW33573   3.323  12.806   2.570
10600SOL    HW133574   3.271  12.882   2.596
10600SOL    HW233575   3.408  12.819   2.612
10601SOL     OW33576  10.845   0.176   4.169
10601SOL    HW133577  10.756   0.178   4.203
10601SOL    HW233578  10.897   0.140   4.241
10602SOL     OW33579  10.447  13.091   8.184
10602SOL    HW133580  10.473  13.151   8.253
10602SOL    HW233581  10.352  13.103   8.176
10603SOL     OW33582  13.573  10.177   1.221
10603SOL    HW133583  13.596  10.174   1.128
10603SOL    HW233584  13.646  10.225   1.261
10604SOL     OW33585  13.291  11.538   3.393
10604SOL    HW133586  13.205  11.578   3.377
10604SOL    HW233587  13.290  11.459   3.339
10605SOL     OW33588   2.024   6.647   4.126
10605SOL    HW133589   2.018   6.621   4.034
10605SOL    HW233590   2.030   6.743   4.124
10606SOL     OW33591  11.776  13.513  12.252
10606SOL    HW133592  11.868  13.493  12.267
10606SOL    HW233593  11.740  13.532  12.339
10607SOL     OW33594   7.406   4.761  11.124
10607SOL    HW133595   7.448   4.840  11.158
10607SOL    HW233596   7.345   4.793  11.058
10608SOL     OW33597   8.182   8.314  13.816
10608SOL    HW133598   8.090   8.312  13.844
10608SOL    HW233599   8.228   8.262  13.882
10609SOL     OW33600   6.993   3.808   5.306
10609SOL    HW133601   7.063   3.754   5.342
10609SOL    HW233602   6.919   3.748   5.295
10610SOL     OW33603  14.114   8.808   4.298
10610SOL    HW133604  14.149   8.802   4.209
10610SOL    HW233605  14.054   8.734   4.305
10611SOL     OW33606  13.880   8.079   3.216
10611SOL    HW133607  13.932   8.156   3.195
10611SOL    HW233608  13.938   8.025   3.270
10612SOL     OW33609   4.282  14.439   7.481
10612SOL    HW133610   4.206  14.386   7.503
10612SOL    HW233611   4.305  14.483   7.563
10613SOL     OW33612  10.299   6.568   6.133
10613SOL    HW133613  10.264   6.482   6.108
10613SOL    HW233614  10.369   6.584   6.070
10614SOL     OW33615  12.054  13.041   1.714
10614SOL    HW133616  12.116  13.003   1.777
10614SOL    HW233617  12.016  13.115   1.760
10615SOL     OW33618   7.482   5.216   1.337
10615SOL    HW133619   7.392   5.237   1.360
10615SOL    HW233620   7.479   5.126   1.304
10616SOL     OW33621   3.775   0.593   8.798
10616SOL    HW133622   3.764   0.596   8.703
10616SOL    HW233623   3.863   0.558   8.811
10617SOL     OW33624   2.324   4.019   8.378
10617SOL    HW133625   2.327   4.003   8.472
10617SOL    HW233626   2.249   3.969   8.347
10618SOL     OW33627  12.477   4.558  10.739
10618SOL    HW133628  12.399   4.580  10.688
10618SOL    HW233629  12.446   4.496  10.805
10619SOL     OW33630   0.676   8.780  13.522
10619SOL    HW133631   0.768   8.793  13.544
10619SOL    HW233632   0.630   8.780  13.605
10620SOL     OW33633  10.119   4.479  13.147
10620SOL    HW133634  10.080   4.467  13.233
10620SOL    HW233635  10.214   4.481  13.163
10621SOL     OW33636   9.788  14.389  13.806
10621SOL    HW133637   9.702  14.362  13.839
10621SOL    HW233638   9.771  14.475  13.766
10622SOL     OW33639  13.727   0.190   4.301
10622SOL    HW133640  13.662   0.187   4.230
10622SOL    HW233641  13.811   0.200   4.256
10623SOL     OW33642   9.529   0.867   0.907
10623SOL    HW133643   9.447   0.917   0.903
10623SOL    HW233644   9.565   0.873   0.818
10624SOL     OW33645  11.888   2.627  11.922
10624SOL    HW133646  11.891   2.650  12.015
10624SOL    HW233647  11.972   2.656  11.887
10625SOL     OW33648   6.070   7.101   3.516
10625SOL    HW133649   6.047   7.015   3.481
10625SOL    HW233650   6.045   7.163   3.447
10626SOL     OW33651   8.078   2.432   1.933
10626SOL    HW133652   7.987   2.438   1.962
10626SOL    HW233653   8.075   2.379   1.853
10627SOL     OW33654  13.619   2.425   9.327
10627SOL    HW133655  13.541   2.398   9.376
10627SOL    HW233656  13.599   2.404   9.236
10628SOL     OW33657   4.074  10.057   5.105
10628SOL    HW133658   4.005  10.088   5.047
10628SOL    HW233659   4.090  10.130   5.165
10629SOL     OW33660   0.729   1.775  13.984
10629SOL    HW133661   0.690   1.711  13.925
10629SOL    HW233662   0.727   1.857  13.935
10630SOL     OW33663   3.605  13.475   0.197
10630SOL    HW133664   3.621  13.381   0.196
10630SOL    HW233665   3.687  13.514   0.227
10631SOL     OW33666   6.795   9.099   3.867
10631SOL    HW133667   6.754   9.013   3.860
10631SOL    HW233668   6.778   9.140   3.782
10632SOL     OW33669   8.546   2.762   4.143
10632SOL    HW133670   8.500   2.721   4.070
10632SOL    HW233671   8.489   2.747   4.219
10633SOL     OW33672  14.425  10.613   9.655
10633SOL    HW133673  14.334  10.595   9.678
10633SOL    HW233674  14.440  10.702   9.686
10634SOL     OW33675   6.897   5.340   2.971
10634SOL    HW133676   6.956   5.392   3.026
10634SOL    HW233677   6.946   5.261   2.951
10635SOL     OW33678   8.081   4.109  14.259
10635SOL    HW133679   8.148   4.145  14.201
10635SOL    HW233680   7.998   4.136  14.218
10636SOL     OW33681   2.841   3.454   3.276
10636SOL    HW133682   2.804   3.377   3.320
10636SOL    HW233683   2.768   3.488   3.224
10637SOL     OW33684   7.193   4.447  11.180
10637SOL    HW133685   7.275   4.491  11.204
10637SOL    HW233686   7.144   4.512  11.130
10638SOL     OW33687   0.996   3.708  10.464
10638SOL    HW133688   0.920   3.766  10.473
10638SOL    HW233689   1.054   3.753  10.403
10639SOL     OW33690  12.124   6.236   2.204
10639SOL    HW133691  12.205   6.260   2.159
10639SOL    HW233692  12.057   6.294   2.167
10640SOL     OW33693  11.381  12.459   8.012
10640SOL    HW133694  11.448  12.431   8.075
10640SOL    HW233695  11.405  12.416   7.930
10641SOL     OW33696   3.193   2.178  13.873
10641SOL    HW133697   3.273   2.135  13.842
10641SOL    HW233698   3.128   2.159  13.805
10642SOL     OW33699   2.493   7.453   3.231
10642SOL    HW133700   2.543   7.534   3.245
10642SOL    HW233701   2.402   7.480   3.238
10643SOL     OW33702  14.155   3.633   5.400
10643SOL    HW133703  14.067   3.598   5.388
10643SOL    HW233704  14.172   3.685   5.321
10644SOL     OW33705   4.789   5.189   2.401
10644SOL    HW133706   4.790   5.219   2.492
10644SOL    HW233707   4.838   5.107   2.402
10645SOL     OW33708   4.635   7.857   4.985
10645SOL    HW133709   4.691   7.819   4.917
10645SOL    HW233710   4.615   7.945   4.954
10646SOL     OW33711   5.457   4.918  12.738
10646SOL    HW133712   5.502   4.866  12.805
10646SOL    HW233713   5.368   4.882  12.737
10647SOL     OW33714   9.858  14.252   1.926
10647SOL    HW133715   9.844  14.172   1.976
10647SOL    HW233716   9.818  14.321   1.979
10648SOL     OW33717   6.174  11.969   5.544
10648SOL    HW133718   6.081  11.972   5.521
10648SOL    HW233719   6.220  11.959   5.461
10649SOL     OW33720   8.904   2.194  12.430
10649SOL    HW133721   8.912   2.136  12.355
10649SOL    HW233722   8.854   2.143  12.495
10650SOL     OW33723   9.306   1.382  12.175
10650SOL    HW133724   9.228   1.418  12.218
10650SOL    HW233725   9.359   1.459  12.155
10651SOL     OW33726   3.043   8.910   3.539
10651SOL    HW133727   3.133   8.902   3.571
10651SOL    HW233728   2.989   8.877   3.610
10652SOL     OW33729   2.735  14.634  11.173
10652SOL    HW133730   2.651  14.606  11.138
10652SOL    HW233731   2.713  14.691  11.246
10653SOL     OW33732   4.073  14.828   3.731
10653SOL    HW133733   4.112  14.741   3.722
10653SOL    HW233734   3.981  14.811   3.754
10654SOL     OW33735   7.641   9.340   7.613
10654SOL    HW133736   7.669   9.374   7.528
10654SOL    HW233737   7.668   9.248   7.612
10655SOL     OW33738   5.423  11.626  10.639
10655SOL    HW133739   5.360  11.675  10.693
10655SOL    HW233740   5.369  11.567  10.587
10656SOL     OW33741  12.699   4.306   0.841
10656SOL    HW133742  12.701   4.366   0.767
10656SOL    HW233743  12.606   4.303   0.867
10657SOL     OW33744  11.130   1.857  10.071
10657SOL    HW133745  11.224   1.862  10.057
10657SOL    HW233746  11.119   1.789  10.137
10658SOL     OW33747   4.397  11.763  10.537
10658SOL    HW133748   4.412  11.750  10.443
10658SOL    HW233749   4.456  11.701  10.580
10659SOL     OW33750   7.895   0.085   2.475
10659SOL    HW133751   7.820   0.053   2.525
10659SOL    HW233752   7.936   0.006   2.440
10660SOL     OW33753   4.703  13.175  12.202
10660SOL    HW133754   4.788  13.191  12.243
10660SOL    HW233755   4.722  13.177  12.108
10661SOL     OW33756   3.677   1.337   5.028
10661SOL    HW133757   3.599   1.390   5.015
10661SOL    HW233758   3.662   1.293   5.112
10662SOL     OW33759   2.581  11.707   8.380
10662SOL    HW133760   2.604  11.615   8.369
10662SOL    HW233761   2.656  11.756   8.346
10663SOL     OW33762   2.550   9.240  14.376
10663SOL    HW133763   2.572   9.154  14.342
10663SOL    HW233764   2.590   9.242  14.463
10664SOL     OW33765   2.047  13.043   1.038
10664SOL    HW133766   1.972  12.988   1.061
10664SOL    HW233767   2.030  13.127   1.080
10665SOL     OW33768   7.434   3.899   8.024
10665SOL    HW133769   7.488   3.823   8.045
10665SOL    HW233770   7.455   3.964   8.090
10666SOL     OW33771  11.251   9.020   6.175
10666SOL    HW133772  11.170   9.014   6.226
10666SOL    HW233773  11.226   9.066   6.095
10667SOL     OW33774  11.166   9.229   9.154
10667SOL    HW133775  11.146   9.187   9.071
10667SOL    HW233776  11.216   9.307   9.131
10668SOL     OW33777   7.129   7.217  12.900
10668SOL    HW133778   7.152   7.310  12.897
10668SOL    HW233779   7.197   7.175  12.847
10669SOL     OW33780   8.249  13.811   1.686
10669SOL    HW133781   8.317  13.843   1.627
10669SOL    HW233782   8.171  13.805   1.632
10670SOL     OW33783   3.790  11.990   8.169
10670SOL    HW133784   3.763  12.081   8.177
10670SOL    HW233785   3.766  11.965   8.080
10671SOL     OW33786   8.817   1.339   1.704
10671SOL    HW133787   8.834   1.245   1.711
10671SOL    HW233788   8.844   1.375   1.789
10672SOL     OW33789   9.231   3.023   5.757
10672SOL    HW133790   9.168   3.047   5.690
10672SOL    HW233791   9.185   2.958   5.812
10673SOL     OW33792   8.765   7.857   0.497
10673SOL    HW133793   8.798   7.945   0.478
10673SOL    HW233794   8.783   7.807   0.417
10674SOL     OW33795   8.201   6.151  11.140
10674SOL    HW133796   8.180   6.110  11.224
10674SOL    HW233797   8.134   6.219  11.130
10675SOL     OW33798   1.585  14.678  14.588
10675SOL    HW133799   1.654  14.701  14.526
10675SOL    HW233800   1.631  14.648  14.666
10676SOL     OW33801  12.315  10.842  14.008
10676SOL    HW133802  12.314  10.748  14.027
10676SOL    HW233803  12.228  10.872  14.033
10677SOL     OW33804   7.059   8.323  13.087
10677SOL    HW133805   7.132   8.364  13.041
10677SOL    HW233806   7.022   8.262  13.023
10678SOL     OW33807  14.402  12.929   5.400
10678SOL    HW133808  14.350  12.863   5.446
10678SOL    HW233809  14.491  12.916   5.432
10679SOL     OW33810  14.711   1.469   5.155
10679SOL    HW133811  14.784   1.465   5.093
10679SOL    HW233812  14.726   1.396   5.215
10680SOL     OW33813  11.521  13.427  10.324
10680SOL    HW133814  11.614  13.435  10.302
10680SOL    HW233815  11.518  13.432  10.420
10681SOL     OW33816   2.446  12.919   1.306
10681SOL    HW133817   2.393  12.952   1.233
10681SOL    HW233818   2.394  12.938   1.384
10682SOL     OW33819   3.788   9.783   9.424
10682SOL    HW133820   3.793   9.777   9.329
10682SOL    HW233821   3.834   9.864   9.445
10683SOL     OW33822   9.348   8.438   0.179
10683SOL    HW133823   9.340   8.534   0.184
10683SOL    HW233824   9.440   8.423   0.157
10684SOL     OW33825  10.935   7.839  12.045
10684SOL    HW133826  10.853   7.879  12.017
10684SOL    HW233827  10.977   7.812  11.963
10685SOL     OW33828   1.434   9.447   6.403
10685SOL    HW133829   1.491   9.499   6.345
10685SOL    HW233830   1.440   9.358   6.368
10686SOL     OW33831   7.736  13.530  13.176
10686SOL    HW133832   7.674  13.522  13.248
10686SOL    HW233833   7.773  13.443  13.165
10687SOL     OW33834   0.250   8.106   5.682
10687SOL    HW133835   0.252   8.184   5.739
10687SOL    HW233836   0.322   8.052   5.715
10688SOL     OW33837   8.762   4.366  13.044
10688SOL    HW133838   8.826   4.354  12.974
10688SOL    HW233839   8.732   4.456  13.034
10689SOL     OW33840   3.119   3.135  12.502
10689SOL    HW133841   3.039   3.181  12.528
10689SOL    HW233842   3.187   3.171  12.559
10690SOL     OW33843   4.813   1.675  14.857
10690SOL    HW133844   4.753   1.748  14.839
10690SOL    HW233845   4.764   1.597  14.832
10691SOL     OW33846   1.272   4.851   0.834
10691SOL    HW133847   1.321   4.916   0.782
10691SOL    HW233848   1.249   4.898   0.914
10692SOL     OW33849   3.024  11.536  14.098
10692SOL    HW133850   3.036  11.584  14.180
10692SOL    HW233851   3.044  11.445  14.121
10693SOL     OW33852   8.069  10.224   4.078
10693SOL    HW133853   8.163  10.209   4.082
10693SOL    HW233854   8.053  10.294   4.142
10694SOL     OW33855  14.346   2.096  13.978
10694SOL    HW133856  14.366   2.091  13.885
10694SOL    HW233857  14.324   2.189  13.992
10695SOL     OW33858  13.707   6.559  12.702
10695SOL    HW133859  13.714   6.550  12.607
10695SOL    HW233860  13.634   6.619  12.716
10696SOL     OW33861  13.923   4.348   1.340
10696SOL    HW133862  13.940   4.409   1.412
10696SOL    HW233863  13.829   4.332   1.345
10697SOL     OW33864   8.490  11.391   7.000
10697SOL    HW133865   8.564  11.398   6.939
10697SOL    HW233866   8.527  11.346   7.076
10698SOL     OW33867   9.526   7.968   3.107
10698SOL    HW133868   9.530   8.018   3.025
10698SOL    HW233869   9.586   8.015   3.165
10699SOL     OW33870  13.890  10.346   7.021
10699SOL    HW133871  13.846  10.272   7.062
10699SOL    HW233872  13.939  10.308   6.948
10700SOL     OW33873   0.763  13.568  10.251
10700SOL    HW133874   0.699  13.601  10.313
10700SOL    HW233875   0.711  13.524  10.184
10701SOL     OW33876   0.826  10.937   5.212
10701SOL    HW133877   0.899  10.999   5.217
10701SOL    HW233878   0.819  10.901   5.300
10702SOL     OW33879   1.502   9.611  12.779
10702SOL    HW133880   1.470   9.694  12.815
10702SOL    HW233881   1.590   9.631  12.746
10703SOL     OW33882   7.188  14.196   5.508
10703SOL    HW133883   7.147  14.134   5.446
10703SOL    HW233884   7.115  14.246   5.543
10704SOL     OW33885  11.095   6.702   4.057
10704SOL    HW133886  11.027   6.732   4.117
10704SOL    HW233887  11.141   6.783   4.030
10705SOL     OW33888   9.524   5.290  13.460
10705SOL    HW133889   9.484   5.372  13.487
10705SOL    HW233890   9.607   5.286  13.508
10706SOL     OW33891   5.117   5.507   1.048
10706SOL    HW133892   5.207   5.478   1.058
10706SOL    HW233893   5.081   5.452   0.978
10707SOL     OW33894  11.084   2.571   1.122
10707SOL    HW133895  10.994   2.602   1.135
10707SOL    HW233896  11.078   2.476   1.127
10708SOL     OW33897  10.728  12.208  11.190
10708SOL    HW133898  10.640  12.239  11.210
10708SOL    HW233899  10.728  12.116  11.217
10709SOL     OW33900   0.498  11.380  10.371
10709SOL    HW133901   0.549  11.460  10.359
10709SOL    HW233902   0.420  11.408  10.419
10710SOL     OW33903   6.173  13.087   5.642
10710SOL    HW133904   6.107  13.066   5.708
10710SOL    HW233905   6.233  13.148   5.686
10711SOL     OW33906   2.471   0.988   3.161
10711SOL    HW133907   2.564   1.004   3.182
10711SOL    HW233908   2.429   1.073   3.175
10712SOL     OW33909   6.344  11.870   2.174
10712SOL    HW133910   6.420  11.928   2.174
10712SOL    HW233911   6.309  11.877   2.262
10713SOL     OW33912  11.198   0.523  12.125
10713SOL    HW133913  11.215   0.534  12.032
10713SOL    HW233914  11.223   0.433  12.144
10714SOL     OW33915   2.302   7.691   1.064
10714SOL    HW133916   2.212   7.703   1.093
10714SOL    HW233917   2.303   7.603   1.024
10715SOL     OW33918   6.981   2.032   8.159
10715SOL    HW133919   6.901   2.072   8.193
10715SOL    HW233920   7.027   2.000   8.237
10716SOL     OW33921   0.207   1.568  12.642
10716SOL    HW133922   0.277   1.629  12.619
10716SOL    HW233923   0.244   1.512  12.710
10717SOL     OW33924   7.490   3.390   8.199
10717SOL    HW133925   7.470   3.338   8.121
10717SOL    HW233926   7.543   3.331   8.253
10718SOL     OW33927   4.741   3.712   5.799
10718SOL    HW133928   4.775   3.624   5.816
10718SOL    HW233929   4.667   3.699   5.740
10719SOL     OW33930  13.069   2.146  11.751
10719SOL    HW133931  12.979   2.152  11.721
10719SOL    HW233932  13.067   2.178  11.841
10720SOL     OW33933   9.340   0.829   7.074
10720SOL    HW133934   9.390   0.911   7.081
10720SOL    HW233935   9.251   0.858   7.054
10721SOL     OW33936   3.316  11.851  11.510
10721SOL    HW133937   3.292  11.869  11.601
10721SOL    HW233938   3.320  11.755  11.506
10722SOL     OW33939  10.824  11.094  10.832
10722SOL    HW133940  10.745  11.090  10.886
10722SOL    HW233941  10.893  11.058  10.887
10723SOL     OW33942  11.191  11.770   4.050
10723SOL    HW133943  11.232  11.716   4.117
10723SOL    HW233944  11.248  11.762   3.974
10724SOL     OW33945  12.077   6.019   3.089
10724SOL    HW133946  12.106   6.014   2.998
10724SOL    HW233947  11.981   6.012   3.084
10725SOL     OW33948   5.560   0.508  10.488
10725SOL    HW133949   5.552   0.413  10.500
10725SOL    HW233950   5.573   0.542  10.576
10726SOL     OW33951   2.222  14.853   9.621
10726SOL    HW133952   2.202   0.055   9.577
10726SOL    HW233953   2.141  14.831   9.667
10727SOL     OW33954  12.995  10.918   2.852
10727SOL    HW133955  12.941  10.951   2.924
10727SOL    HW233956  13.048  10.849   2.891
10728SOL     OW33957   4.458  12.990   6.992
10728SOL    HW133958   4.453  12.905   7.035
10728SOL    HW233959   4.408  13.049   7.048
10729SOL     OW33960   7.937   3.907   9.168
10729SOL    HW133961   8.022   3.886   9.131
10729SOL    HW233962   7.874   3.876   9.103
10730SOL     OW33963   5.749   9.901   2.532
10730SOL    HW133964   5.726   9.895   2.624
10730SOL    HW233965   5.669   9.876   2.486
10731SOL     OW33966  13.237   2.461  14.786
10731SOL    HW133967  13.229   2.405  14.864
10731SOL    HW233968  13.147   2.481  14.762
10732SOL     OW33969  10.442   6.883  11.870
10732SOL    HW133970  10.362   6.912  11.825
10732SOL    HW233971  10.465   6.801  11.827
10733SOL     OW33972   7.032   3.920   4.306
10733SOL    HW133973   7.085   3.998   4.290
10733SOL    HW233974   7.093   3.859   4.350
10734SOL     OW33975   7.504   1.167   7.405
10734SOL    HW133976   7.501   1.202   7.316
10734SOL    HW233977   7.585   1.115   7.408
10735SOL     OW33978   2.542   1.708  13.334
10735SOL    HW133979   2.614   1.683  13.392
10735SOL    HW233980   2.579   1.703  13.246
10736SOL     OW33981   4.794  10.866   3.908
10736SOL    HW133982   4.855  10.798   3.882
10736SOL    HW233983   4.848  10.945   3.915
10737SOL     OW33984  12.997  14.347   2.382
10737SOL    HW133985  12.946  14.351   2.301
10737SOL    HW233986  13.062  14.278   2.366
10738SOL     OW33987   9.574   7.089   2.422
10738SOL    HW133988   9.523   7.033   2.482
10738SOL    HW233989   9.532   7.077   2.337
10739SOL     OW33990   0.288  14.613   2.821
10739SOL    HW133991   0.349  14.680   2.788
10739SOL    HW233992   0.270  14.558   2.744
10740SOL     OW33993  13.894  14.380   3.861
10740SOL    HW133994  13.904  14.473   3.882
10740SOL    HW233995  13.974  14.357   3.814
10741SOL     OW33996  14.031   2.413  11.517
10741SOL    HW133997  14.058   2.366  11.595
10741SOL    HW233998  13.951   2.370  11.488
10742SOL     OW33999   0.504  12.249   0.384
10742SOL    HW134000   0.434  12.218   0.327
10742SOL    HW234001   0.543  12.322   0.336
10743SOL     OW34002  11.369  13.624  14.602
10743SOL    HW134003  11.339  13.583  14.521
10743SOL    HW234004  11.430  13.692  14.573
10744SOL     OW34005   4.656   7.173   0.341
10744SOL    HW134006   4.703   7.200   0.420
10744SOL    HW234007   4.655   7.077   0.346
10745SOL     OW34008   7.257   8.091   3.961
10745SOL    HW134009   7.285   8.075   4.051
10745SOL    HW234010   7.185   8.153   3.968
10746SOL     OW34011   3.686   9.380   0.449
10746SOL    HW134012   3.606   9.418   0.485
10746SOL    HW234013   3.674   9.383   0.354
10747SOL     OW34014   6.318   2.648  12.057
10747SOL    HW134015   6.318   2.711  12.129
10747SOL    HW234016   6.373   2.576  12.088
10748SOL     OW34017  13.363   9.509   9.140
10748SOL    HW134018  13.330   9.437   9.194
10748SOL    HW234019  13.316   9.500   9.057
10749SOL     OW34020   5.696   9.566   9.926
10749SOL    HW134021   5.709   9.660   9.936
10749SOL    HW234022   5.716   9.530  10.012
10750SOL     OW34023  14.397  12.196   9.333
10750SOL    HW134024  14.458  12.219   9.403
10750SOL    HW234025  14.397  12.272   9.275
10751SOL     OW34026   7.850  10.190   5.501
10751SOL    HW134027   7.891  10.276   5.493
10751SOL    HW234028   7.880  10.142   5.424
10752SOL     OW34029   0.508  10.450   8.505
10752SOL    HW134030   0.434  10.400   8.539
10752SOL    HW234031   0.497  10.538   8.542
10753SOL     OW34032   3.709   0.980   5.833
10753SOL    HW134033   3.799   0.991   5.802
10753SOL    HW234034   3.712   1.004   5.925
10754SOL     OW34035  10.692   8.105   9.082
10754SOL    HW134036  10.644   8.143   9.009
10754SOL    HW234037  10.625   8.089   9.149
10755SOL     OW34038   4.142  10.096  11.769
10755SOL    HW134039   4.231  10.129  11.761
10755SOL    HW234040   4.152  10.003  11.787
10756SOL     OW34041   8.313  12.289   1.991
10756SOL    HW134042   8.227  12.313   2.025
10756SOL    HW234043   8.304  12.299   1.896
10757SOL     OW34044   9.375  14.820  14.229
10757SOL    HW134045   9.367   0.016  14.174
10757SOL    HW234046   9.285  14.798  14.254
10758SOL     OW34047  11.202   3.153   9.855
10758SOL    HW134048  11.117   3.114   9.832
10758SOL    HW234049  11.262   3.079   9.860
10759SOL     OW34050   9.723   1.239   4.692
10759SOL    HW134051   9.640   1.281   4.714
10759SOL    HW234052   9.702   1.146   4.684
10760SOL     OW34053   6.938   7.347   7.543
10760SOL    HW134054   7.029   7.369   7.527
10760SOL    HW234055   6.891   7.383   7.467
10761SOL     OW34056   2.510   0.581   6.782
10761SOL    HW134057   2.429   0.530   6.786
10761SOL    HW234058   2.580   0.518   6.798
10762SOL     OW34059  12.080   5.708   6.100
10762SOL    HW134060  12.094   5.639   6.165
10762SOL    HW234061  12.103   5.789   6.145
10763SOL     OW34062   0.539   5.028  13.229
10763SOL    HW134063   0.451   5.063  13.216
10763SOL    HW234064   0.595   5.105  13.238
10764SOL     OW34065   8.935   7.927  11.264
10764SOL    HW134066   8.879   7.921  11.341
10764SOL    HW234067   9.016   7.883  11.290
10765SOL     OW34068  11.465   9.735  12.003
10765SOL    HW134069  11.374   9.716  11.981
10765SOL    HW234070  11.509   9.748  11.919
10766SOL     OW34071  11.390  13.841   1.553
10766SOL    HW134072  11.313  13.809   1.506
10766SOL    HW234073  11.464  13.813   1.499
10767SOL     OW34074   1.710   6.882  12.979
10767SOL    HW134075   1.671   6.798  12.955
10767SOL    HW234076   1.737   6.921  12.896
10768SOL     OW34077   7.554  14.203   2.303
10768SOL    HW134078   7.540  14.297   2.311
10768SOL    HW234079   7.536  14.168   2.391
10769SOL     OW34080  10.623  12.155   3.321
10769SOL    HW134081  10.659  12.067   3.321
10769SOL    HW234082  10.556  12.154   3.252
10770SOL     OW34083   9.912   4.722   0.870
10770SOL    HW134084   9.986   4.669   0.901
10770SOL    HW234085   9.884   4.680   0.788
10771SOL     OW34086  11.026   4.143   7.377
10771SOL    HW134087  11.086   4.135   7.303
10771SOL    HW234088  11.078   4.184   7.446
10772SOL     OW34089  13.937   7.132  13.183
10772SOL    HW134090  13.980   7.213  13.155
10772SOL    HW234091  13.980   7.109  13.266
10773SOL     OW34092   0.108   6.830   1.932
10773SOL    HW134093   0.138   6.899   1.992
10773SOL    HW234094   0.153   6.849   1.850
10774SOL     OW34095  11.854  14.175   9.132
10774SOL    HW134096  11.854  14.191   9.226
10774SOL    HW234097  11.865  14.080   9.123
10775SOL     OW34098  11.302  11.459   0.680
10775SOL    HW134099  11.235  11.519   0.646
10775SOL    HW234100  11.260  11.418   0.756
10776SOL     OW34101  14.834   0.002  13.368
10776SOL    HW134102  14.750   0.008  13.413
10776SOL    HW234103   0.018   0.015  13.437
10777SOL     OW34104   8.739   8.658  11.952
10777SOL    HW134105   8.830   8.644  11.978
10777SOL    HW234106   8.717   8.581  11.900
10778SOL     OW34107   8.620   4.103  13.707
10778SOL    HW134108   8.665   4.160  13.643
10778SOL    HW234109   8.646   4.014  13.681
10779SOL     OW34110   5.388  11.698  11.404
10779SOL    HW134111   5.356  11.608  11.403
10779SOL    HW234112   5.332  11.743  11.467
10780SOL     OW34113  10.756   5.275   2.951
10780SOL    HW134114  10.685   5.229   2.997
10780SOL    HW234115  10.712   5.341   2.898
10781SOL     OW34116   9.882   3.186  13.091
10781SOL    HW134117   9.827   3.243  13.145
10781SOL    HW234118   9.845   3.098  13.104
10782SOL     OW34119  13.575   5.701   2.316
10782SOL    HW134120  13.663   5.740   2.309
10782SOL    HW234121  13.531   5.728   2.235
10783SOL     OW34122   2.711   1.967   2.451
10783SOL    HW134123   2.640   1.973   2.387
10783SOL    HW234124   2.760   2.048   2.440
10784SOL     OW34125   4.514  12.120   0.755
10784SOL    HW134126   4.564  12.059   0.809
10784SOL    HW234127   4.575  12.149   0.687
10785SOL     OW34128   1.368   9.511   7.710
10785SOL    HW134129   1.301   9.552   7.656
10785SOL    HW234130   1.451   9.545   7.675
10786SOL     OW34131  13.449   5.599   2.595
10786SOL    HW134132  13.432   5.587   2.501
10786SOL    HW234133  13.363   5.590   2.636
10787SOL     OW34134   0.072   9.846  10.164
10787SOL    HW134135   0.009   9.896  10.112
10787SOL    HW234136   0.028   9.763  10.182
10788SOL     OW34137   6.057   8.320   1.379
10788SOL    HW134138   6.006   8.395   1.346
10788SOL    HW234139   6.138   8.323   1.328
10789SOL     OW34140  10.688  11.931  10.668
10789SOL    HW134141  10.680  11.847  10.622
10789SOL    HW234142  10.599  11.950  10.699
10790SOL     OW34143  11.230  13.382   5.774
10790SOL    HW134144  11.213  13.334   5.693
10790SOL    HW234145  11.144  13.398   5.811
10791SOL     OW34146   7.451   4.133  14.371
10791SOL    HW134147   7.441   4.135  14.466
10791SOL    HW234148   7.362   4.137  14.337
10792SOL     OW34149   2.522  10.638  10.815
10792SOL    HW134150   2.484  10.554  10.841
10792SOL    HW234151   2.495  10.699  10.884
10793SOL     OW34152   2.535   9.250   8.821
10793SOL    HW134153   2.457   9.246   8.877
10793SOL    HW234154   2.551   9.159   8.797
10794SOL     OW34155  13.557   0.434   9.888
10794SOL    HW134156  13.507   0.501   9.935
10794SOL    HW234157  13.527   0.441   9.797
10795SOL     OW34158  13.407   2.635   9.129
10795SOL    HW134159  13.445   2.672   9.050
10795SOL    HW234160  13.319   2.607   9.103
10796SOL     OW34161   2.897  14.364   8.637
10796SOL    HW134162   2.956  14.371   8.711
10796SOL    HW234163   2.947  14.396   8.562
10797SOL     OW34164  11.209   7.812   7.869
10797SOL    HW134165  11.127   7.780   7.831
10797SOL    HW234166  11.220   7.760   7.948
10798SOL     OW34167   2.056   9.616   8.669
10798SOL    HW134168   1.991   9.684   8.685
10798SOL    HW234169   2.089   9.593   8.756
10799SOL     OW34170   4.702   0.803   5.793
10799SOL    HW134171   4.786   0.759   5.808
10799SOL    HW234172   4.684   0.790   5.700
10800SOL     OW34173   5.237   6.217   2.614
10800SOL    HW134174   5.204   6.215   2.704
10800SOL    HW234175   5.208   6.133   2.577
10801SOL     OW34176   9.231   9.677   7.422
10801SOL    HW134177   9.232   9.651   7.330
10801SOL    HW234178   9.178   9.756   7.425
10802SOL     OW34179   7.985   4.842  11.558
10802SOL    HW134180   8.058   4.781  11.571
10802SOL    HW234181   7.980   4.891  11.640
10803SOL     OW34182   5.067  11.095   5.196
10803SOL    HW134183   5.017  11.177   5.191
10803SOL    HW234184   5.089  11.086   5.288
10804SOL     OW34185   3.978   7.939   2.727
10804SOL    HW134186   4.057   7.974   2.769
10804SOL    HW234187   3.983   7.970   2.637
10805SOL     OW34188  13.451   2.429  12.956
10805SOL    HW134189  13.479   2.371  12.886
10805SOL    HW234190  13.363   2.457  12.931
10806SOL     OW34191  10.976   7.796   6.295
10806SOL    HW134192  10.900   7.738   6.283
10806SOL    HW234193  10.990   7.799   6.390
10807SOL     OW34194  13.011   6.333   6.816
10807SOL    HW134195  13.103   6.330   6.793
10807SOL    HW234196  12.992   6.247   6.854
10808SOL     OW34197  13.749   6.367   1.463
10808SOL    HW134198  13.688   6.388   1.534
10808SOL    HW234199  13.696   6.317   1.401
10809SOL     OW34200   5.559   2.940   6.334
10809SOL    HW134201   5.542   3.002   6.404
10809SOL    HW234202   5.520   2.979   6.256
10810SOL     OW34203  11.208  12.155   6.893
10810SOL    HW134204  11.266  12.082   6.869
10810SOL    HW234205  11.252  12.233   6.858
10811SOL     OW34206   0.838   9.869   2.880
10811SOL    HW134207   0.918   9.920   2.870
10811SOL    HW234208   0.830   9.853   2.974
10812SOL     OW34209   4.726   6.605  11.372
10812SOL    HW134210   4.802   6.610  11.313
10812SOL    HW234211   4.759   6.558  11.449
10813SOL     OW34212   6.660   2.938  12.834
10813SOL    HW134213   6.702   3.001  12.893
10813SOL    HW234214   6.601   2.991  12.780
10814SOL     OW34215   3.027   4.208  14.841
10814SOL    HW134216   2.981   4.220   0.042
10814SOL    HW234217   2.968   4.244  14.775
10815SOL     OW34218   2.951  14.094  12.497
10815SOL    HW134219   2.903  14.137  12.426
10815SOL    HW234220   2.883  14.047  12.546
10816SOL     OW34221   6.137   1.100   9.512
10816SOL    HW134222   6.158   1.193   9.526
10816SOL    HW234223   6.123   1.093   9.418
10817SOL     OW34224   1.851   5.041   8.217
10817SOL    HW134225   1.851   4.945   8.223
10817SOL    HW234226   1.759   5.065   8.223
10818SOL     OW34227  12.365   2.120   8.507
10818SOL    HW134228  12.352   2.069   8.426
10818SOL    HW234229  12.276   2.136   8.539
10819SOL     OW34230   0.397   2.690  14.030
10819SOL    HW134231   0.354   2.759  14.082
10819SOL    HW234232   0.467   2.657  14.086
10820SOL     OW34233   3.935   4.147  11.146
10820SOL    HW134234   4.002   4.213  11.127
10820SOL    HW234235   3.853   4.189  11.122
10821SOL     OW34236   8.131   2.040  13.176
10821SOL    HW134237   8.058   1.988  13.209
10821SOL    HW234238   8.098   2.079  13.095
10822SOL     OW34239   5.236   8.312   1.743
10822SOL    HW134240   5.281   8.389   1.709
10822SOL    HW234241   5.155   8.307   1.692
10823SOL     OW34242  11.846  12.105   4.856
10823SOL    HW134243  11.846  12.035   4.790
10823SOL    HW234244  11.909  12.169   4.823
10824SOL     OW34245  12.807   4.969   8.571
10824SOL    HW134246  12.849   4.962   8.657
10824SOL    HW234247  12.766   5.056   8.571
10825SOL     OW34248   8.568   4.013   9.780
10825SOL    HW134249   8.480   4.037   9.811
10825SOL    HW234250   8.579   4.062   9.698
10826SOL     OW34251   1.382   3.780  14.560
10826SOL    HW134252   1.316   3.746  14.621
10826SOL    HW234253   1.358   3.742  14.475
10827SOL     OW34254   4.225   0.137  10.150
10827SOL    HW134255   4.288   0.113  10.082
10827SOL    HW234256   4.267   0.209  10.198
10828SOL     OW34257  14.470  13.965  13.453
10828SOL    HW134258  14.551  13.998  13.492
10828SOL    HW234259  14.473  13.871  13.467
10829SOL     OW34260  11.184   2.437  11.658
10829SOL    HW134261  11.112   2.496  11.634
10829SOL    HW234262  11.179   2.432  11.753
10830SOL     OW34263   7.339  11.583   9.319
10830SOL    HW134264   7.376  11.638   9.250
10830SOL    HW234265   7.381  11.498   9.307
10831SOL     OW34266   4.380   1.658  14.262
10831SOL    HW134267   4.350   1.567  14.269
10831SOL    HW234268   4.475   1.654  14.274
10832SOL     OW34269   7.356  12.023  12.969
10832SOL    HW134270   7.398  12.017  13.055
10832SOL    HW234271   7.308  12.106  12.972
10833SOL     OW34272   3.245   6.117   6.659
10833SOL    HW134273   3.185   6.186   6.629
10833SOL    HW234274   3.293   6.157   6.732
10834SOL     OW34275   1.581   2.129   2.636
10834SOL    HW134276   1.562   2.184   2.559
10834SOL    HW234277   1.595   2.042   2.600
10835SOL     OW34278  14.225   9.167   0.442
10835SOL    HW134279  14.245   9.258   0.462
10835SOL    HW234280  14.246   9.119   0.522
10836SOL     OW34281  10.669   0.457   1.280
10836SOL    HW134282  10.646   0.547   1.260
10836SOL    HW234283  10.638   0.407   1.205
10837SOL     OW34284   2.674  13.119   3.954
10837SOL    HW134285   2.626  13.063   4.015
10837SOL    HW234286   2.642  13.094   3.867
10838SOL     OW34287   6.691   0.046  12.854
10838SOL    HW134288   6.735   0.002  12.781
10838SOL    HW234289   6.637   0.113  12.813
10839SOL     OW34290  13.953  13.837   3.370
10839SOL    HW134291  13.932  13.900   3.302
10839SOL    HW234292  13.982  13.889   3.444
10840SOL     OW34293  10.357   6.993   3.681
10840SOL    HW134294  10.393   7.006   3.769
10840SOL    HW234295  10.278   7.046   3.679
10841SOL     OW34296   2.514   5.560  13.796
10841SOL    HW134297   2.449   5.504  13.838
10841SOL    HW234298   2.524   5.635  13.855
10842SOL     OW34299  13.212   7.361  10.447
10842SOL    HW134300  13.306   7.353  10.461
10842SOL    HW234301  13.174   7.283  10.487
10843SOL     OW34302   7.368   0.548  13.662
10843SOL    HW134303   7.411   0.564  13.746
10843SOL    HW234304   7.277   0.577  13.676
10844SOL     OW34305   2.452  10.693   2.938
10844SOL    HW134306   2.362  10.665   2.956
10844SOL    HW234307   2.506  10.617   2.959
10845SOL     OW34308   5.570   8.549   4.671
10845SOL    HW134309   5.541   8.533   4.581
10845SOL    HW234310   5.530   8.478   4.721
10846SOL     OW34311   9.752  12.894   1.351
10846SOL    HW134312   9.744  12.814   1.299
10846SOL    HW234313   9.713  12.873   1.436
10847SOL     OW34314   2.213  13.494   2.594
10847SOL    HW134315   2.275  13.554   2.636
10847SOL    HW234316   2.133  13.545   2.586
10848SOL     OW34317  11.454   8.205   3.790
10848SOL    HW134318  11.395   8.190   3.717
10848SOL    HW234319  11.493   8.119   3.807
10849SOL     OW34320   7.506  14.724  10.123
10849SOL    HW134321   7.452  14.694  10.049
10849SOL    HW234322   7.556  14.798  10.088
10850SOL     OW34323  14.094  10.943   7.588
10850SOL    HW134324  14.176  10.947   7.637
10850SOL    HW234325  14.085  10.851   7.564
10851SOL     OW34326   4.155   2.106  11.578
10851SOL    HW134327   4.208   2.085  11.502
10851SOL    HW234328   4.158   2.027  11.633
10852SOL     OW34329   5.359   8.311  14.627
10852SOL    HW134330   5.342   8.228  14.672
10852SOL    HW234331   5.362   8.288  14.534
10853SOL     OW34332  12.916  14.654   4.863
10853SOL    HW134333  12.894  14.692   4.778
10853SOL    HW234334  12.843  14.595   4.883
10854SOL     OW34335   3.394   6.401   5.245
10854SOL    HW134336   3.347   6.324   5.213
10854SOL    HW234337   3.479   6.367   5.274
10855SOL     OW34338   2.976   9.956  10.048
10855SOL    HW134339   3.033   9.969  10.124
10855SOL    HW234340   2.887   9.960  10.084
10856SOL     OW34341  12.501   3.845   7.488
10856SOL    HW134342  12.458   3.759   7.494
10856SOL    HW234343  12.538   3.847   7.400
10857SOL     OW34344   8.385   0.201   1.612
10857SOL    HW134345   8.391   0.112   1.576
10857SOL    HW234346   8.310   0.240   1.567
10858SOL     OW34347   3.762  14.088   9.265
10858SOL    HW134348   3.810  14.171   9.262
10858SOL    HW234349   3.756  14.060   9.173
10859SOL     OW34350  14.834  12.850   7.290
10859SOL    HW134351  14.777  12.880   7.219
10859SOL    HW234352   0.037  12.889   7.272
10860SOL     OW34353   0.408   2.841   1.825
10860SOL    HW134354   0.498   2.818   1.848
10860SOL    HW234355   0.417   2.903   1.752
10861SOL     OW34356   4.528   0.653   9.577
10861SOL    HW134357   4.523   0.587   9.507
10861SOL    HW234358   4.561   0.732   9.533
10862SOL     OW34359   4.474  12.026   2.435
10862SOL    HW134360   4.548  12.036   2.375
10862SOL    HW234361   4.458  12.114   2.469
10863SOL     OW34362   5.738   4.589  13.435
10863SOL    HW134363   5.808   4.564  13.495
10863SOL    HW234364   5.671   4.522  13.446
10864SOL     OW34365   6.194   9.128   0.166
10864SOL    HW134366   6.122   9.071   0.141
10864SOL    HW234367   6.183   9.206   0.112
10865SOL     OW34368  10.110   4.133  13.259
10865SOL    HW134369  10.038   4.183  13.299
10865SOL    HW234370  10.093   4.137  13.165
10866SOL     OW34371  14.854   1.584  10.098
10866SOL    HW134372   0.030   1.628  10.161
10866SOL    HW234373  14.766   1.592  10.136
10867SOL     OW34374  14.171  12.538  11.276
10867SOL    HW134375  14.182  12.538  11.371
10867SOL    HW234376  14.151  12.447  11.254
10868SOL     OW34377   9.650   5.034   9.052
10868SOL    HW134378   9.638   5.129   9.046
10868SOL    HW234379   9.668   5.008   8.961
10869SOL     OW34380   6.592   8.519   1.450
10869SOL    HW134381   6.674   8.538   1.403
10869SOL    HW234382   6.546   8.603   1.452
10870SOL     OW34383  14.068   7.568   5.059
10870SOL    HW134384  14.040   7.657   5.041
10870SOL    HW234385  14.019   7.514   4.997
10871SOL     OW34386   9.263   3.462   1.417
10871SOL    HW134387   9.357   3.455   1.431
10871SOL    HW234388   9.244   3.555   1.426
10872SOL     OW34389  11.276   6.333   8.081
10872SOL    HW134390  11.355   6.318   8.029
10872SOL    HW234391  11.233   6.248   8.085
10873SOL     OW34392  13.196  11.312   5.371
10873SOL    HW134393  13.130  11.244   5.371
10873SOL    HW234394  13.149  11.392   5.395
10874SOL     OW34395   4.078   0.140   5.816
10874SOL    HW134396   4.063   0.094   5.899
10874SOL    HW234397   4.044   0.081   5.749
10875SOL     OW34398   6.492   9.646  12.863
10875SOL    HW134399   6.425   9.613  12.922
10875SOL    HW234400   6.446   9.707  12.805
10876SOL     OW34401  12.313  14.483   2.531
10876SOL    HW134402  12.288  14.556   2.475
10876SOL    HW234403  12.391  14.446   2.489
10877SOL     OW34404  11.847  11.869  11.787
10877SOL    HW134405  11.826  11.960  11.807
10877SOL    HW234406  11.879  11.870  11.697
10878SOL     OW34407   8.509   4.716  13.412
10878SOL    HW134408   8.471   4.803  13.426
10878SOL    HW234409   8.464   4.660  13.475
10879SOL     OW34410  10.888   4.613   6.437
10879SOL    HW134411  10.979   4.602   6.410
10879SOL    HW234412  10.873   4.708   6.436
10880SOL     OW34413  10.645  10.055  12.940
10880SOL    HW134414  10.599  10.016  12.866
10880SOL    HW234415  10.611  10.145  12.945
10881SOL     OW34416  14.313  12.772   8.844
10881SOL    HW134417  14.339  12.827   8.918
10881SOL    HW234418  14.264  12.831   8.786
10882SOL     OW34419  12.974  10.276   6.699
10882SOL    HW134420  12.932  10.258   6.784
10882SOL    HW234421  12.923  10.225   6.636
10883SOL     OW34422  13.503   2.412  14.182
10883SOL    HW134423  13.456   2.486  14.219
10883SOL    HW234424  13.464   2.398  14.096
10884SOL     OW34425  11.577  11.961   6.724
10884SOL    HW134426  11.502  11.993   6.775
10884SOL    HW234427  11.550  11.875   6.694
10885SOL     OW34428  12.100   0.275   8.040
10885SOL    HW134429  12.176   0.299   7.988
10885SOL    HW234430  12.053   0.211   7.986
10886SOL     OW34431   2.989   2.842   4.019
10886SOL    HW134432   3.061   2.805   3.968
10886SOL    HW234433   2.920   2.860   3.954
10887SOL     OW34434   7.696   4.634   6.413
10887SOL    HW134435   7.731   4.579   6.483
10887SOL    HW234436   7.612   4.665   6.447
10888SOL     OW34437   3.194   9.461   2.521
10888SOL    HW134438   3.201   9.467   2.616
10888SOL    HW234439   3.100   9.459   2.504
10889SOL     OW34440   1.871  12.387   6.986
10889SOL    HW134441   1.954  12.384   7.034
10889SOL    HW234442   1.879  12.464   6.930
10890SOL     OW34443   3.261  11.801   4.797
10890SOL    HW134444   3.296  11.735   4.738
10890SOL    HW234445   3.302  11.883   4.769
10891SOL     OW34446   6.905   9.557   7.336
10891SOL    HW134447   6.818   9.587   7.361
10891SOL    HW234448   6.921   9.481   7.393
10892SOL     OW34449   5.982   6.516   0.741
10892SOL    HW134450   5.891   6.496   0.722
10892SOL    HW234451   5.990   6.507   0.836
10893SOL     OW34452  14.593   5.748   4.529
10893SOL    HW134453  14.504   5.713   4.526
10893SOL    HW234454  14.620   5.736   4.620
10894SOL     OW34455  12.456   5.751  13.347
10894SOL    HW134456  12.487   5.833  13.385
10894SOL    HW234457  12.493   5.749  13.259
10895SOL     OW34458  13.715   1.138  12.134
10895SOL    HW134459  13.671   1.093  12.062
10895SOL    HW234460  13.803   1.100  12.137
10896SOL     OW34461   5.955  11.623   9.550
10896SOL    HW134462   5.964  11.651   9.460
10896SOL    HW234463   5.928  11.531   9.544
10897SOL     OW34464   1.907   7.952   3.450
10897SOL    HW134465   1.826   7.909   3.479
10897SOL    HW234466   1.883   7.993   3.366
10898SOL     OW34467  12.232   0.958   1.306
10898SOL    HW134468  12.261   0.971   1.216
10898SOL    HW234469  12.159   0.896   1.298
10899SOL     OW34470   7.661  13.765  13.015
10899SOL    HW134471   7.585  13.718  12.982
10899SOL    HW234472   7.715  13.697  13.057
10900SOL     OW34473   7.392  10.555   0.292
10900SOL    HW134474   7.403  10.500   0.215
10900SOL    HW234475   7.297  10.560   0.305
10901SOL     OW34476   1.876   0.129  10.737
10901SOL    HW134477   1.807   0.066  10.760
10901SOL    HW234478   1.938   0.124  10.809
10902SOL     OW34479   6.970   9.462   7.758
10902SOL    HW134480   6.905   9.424   7.817
10902SOL    HW234481   6.973   9.555   7.783
10903SOL     OW34482  13.235   3.768  12.402
10903SOL    HW134483  13.167   3.703  12.387
10903SOL    HW234484  13.194   3.835  12.457
10904SOL     OW34485   9.238   5.372   6.178
10904SOL    HW134486   9.279   5.304   6.231
10904SOL    HW234487   9.205   5.326   6.101
10905SOL     OW34488   0.031   2.834   0.249
10905SOL    HW134489   0.096   2.857   0.315
10905SOL    HW234490  14.878   2.749   0.278
10906SOL     OW34491   3.207   9.547   6.233
10906SOL    HW134492   3.230   9.458   6.261
10906SOL    HW234493   3.209   9.599   6.313
10907SOL     OW34494   7.604   1.232   4.692
10907SOL    HW134495   7.623   1.322   4.665
10907SOL    HW234496   7.652   1.221   4.775
10908SOL     OW34497   1.195   7.118   4.597
10908SOL    HW134498   1.154   7.183   4.540
10908SOL    HW234499   1.248   7.064   4.538
10909SOL     OW34500   8.557   6.339   2.419
10909SOL    HW134501   8.494   6.411   2.425
10909SOL    HW234502   8.546   6.305   2.330
10910SOL     OW34503   9.941  12.222  10.749
10910SOL    HW134504   9.994  12.202  10.827
10910SOL    HW234505   9.968  12.311  10.725
10911SOL     OW34506   0.746  14.359   5.429
10911SOL    HW134507   0.756  14.277   5.380
10911SOL    HW234508   0.829  14.368   5.476
10912SOL     OW34509   7.028   2.163   3.714
10912SOL    HW134510   6.956   2.199   3.765
10912SOL    HW234511   7.071   2.239   3.676
10913SOL     OW34512   6.087   5.442   9.861
10913SOL    HW134513   6.077   5.493   9.941
10913SOL    HW234514   6.010   5.385   9.858
10914SOL     OW34515  12.025   0.876   0.878
10914SOL    HW134516  11.983   0.871   0.793
10914SOL    HW234517  12.003   0.794   0.922
10915SOL     OW34518   6.935   6.692   7.983
10915SOL    HW134519   6.861   6.735   8.026
10915SOL    HW234520   7.012   6.726   8.028
10916SOL     OW34521   4.173   5.708   1.876
10916SOL    HW134522   4.217   5.791   1.859
10916SOL    HW234523   4.085   5.734   1.905
10917SOL     OW34524  12.752   2.638   6.508
10917SOL    HW134525  12.757   2.701   6.580
10917SOL    HW234526  12.660   2.613   6.504
10918SOL     OW34527   2.195  14.128   6.520
10918SOL    HW134528   2.268  14.110   6.579
10918SOL    HW234529   2.118  14.095   6.566
10919SOL     OW34530  14.259  12.589  11.017
10919SOL    HW134531  14.219  12.505  10.994
10919SOL    HW234532  14.227  12.607  11.106
10920SOL     OW34533   5.506  10.122  14.315
10920SOL    HW134534   5.424  10.086  14.282
10920SOL    HW234535   5.553  10.151  14.237
10921SOL     OW34536   2.133   3.067  11.467
10921SOL    HW134537   2.135   3.065  11.563
10921SOL    HW234538   2.080   3.144  11.446
10922SOL     OW34539  14.295  10.126  12.769
10922SOL    HW134540  14.385  10.100  12.785
10922SOL    HW234541  14.285  10.209  12.817
10923SOL     OW34542   7.619  12.406   7.330
10923SOL    HW134543   7.683  12.466   7.291
10923SOL    HW234544   7.655  12.387   7.417
10924SOL     OW34545   8.550   6.487  12.160
10924SOL    HW134546   8.630   6.436  12.169
10924SOL    HW234547   8.501   6.470  12.241
10925SOL     OW34548  12.005   6.920  10.536
10925SOL    HW134549  11.929   6.909  10.479
10925SOL    HW234550  12.021   6.833  10.572
10926SOL     OW34551   5.916  11.144   7.869
10926SOL    HW134552   5.888  11.079   7.804
10926SOL    HW234553   5.919  11.226   7.820
10927SOL     OW34554   0.737   3.716   2.523
10927SOL    HW134555   0.737   3.668   2.440
10927SOL    HW234556   0.661   3.774   2.517
10928SOL     OW34557   1.662   6.232   5.163
10928SOL    HW134558   1.661   6.217   5.069
10928SOL    HW234559   1.755   6.237   5.186
10929SOL     OW34560   9.601   3.959   7.230
10929SOL    HW134561   9.555   3.894   7.178
10929SOL    HW234562   9.566   4.043   7.199
10930SOL     OW34563   5.722   5.413   7.958
10930SOL    HW134564   5.680   5.328   7.975
10930SOL    HW234565   5.673   5.475   8.013
10931SOL     OW34566   7.183   7.982   7.929
10931SOL    HW134567   7.277   7.965   7.934
10931SOL    HW234568   7.152   7.927   7.857
10932SOL     OW34569   4.071   0.497   9.372
10932SOL    HW134570   4.052   0.580   9.416
10932SOL    HW234571   4.048   0.513   9.281
10933SOL     OW34572  12.608   6.396   1.414
10933SOL    HW134573  12.681   6.456   1.431
10933SOL    HW234574  12.550   6.407   1.489
10934SOL     OW34575  13.587   7.595  12.059
10934SOL    HW134576  13.647   7.640  12.117
10934SOL    HW234577  13.614   7.503  12.061
10935SOL     OW34578   9.418   1.987   7.685
10935SOL    HW134579   9.326   2.008   7.701
10935SOL    HW234580   9.429   1.900   7.724
10936SOL     OW34581   2.284  12.663   7.340
10936SOL    HW134582   2.342  12.666   7.264
10936SOL    HW234583   2.343  12.642   7.413
10937SOL     OW34584  10.962  14.360   1.223
10937SOL    HW134585  10.874  14.352   1.261
10937SOL    HW234586  11.000  14.273   1.231
10938SOL     OW34587   4.026   0.761   5.919
10938SOL    HW134588   3.994   0.710   5.845
10938SOL    HW234589   4.113   0.726   5.937
10939SOL     OW34590   7.270  12.348   9.608
10939SOL    HW134591   7.240  12.439   9.602
10939SOL    HW234592   7.316  12.332   9.526
10940SOL     OW34593   0.253   0.311  13.556
10940SOL    HW134594   0.284   0.284  13.642
10940SOL    HW234595   0.238   0.405  13.564
10941SOL     OW34596   8.795  10.849   9.947
10941SOL    HW134597   8.725  10.827  10.009
10941SOL    HW234598   8.780  10.790   9.873
10942SOL     OW34599   8.830   5.875   9.471
10942SOL    HW134600   8.795   5.921   9.547
10942SOL    HW234601   8.785   5.915   9.396
10943SOL     OW34602   4.088   5.974   9.475
10943SOL    HW134603   4.068   6.042   9.410
10943SOL    HW234604   4.162   6.008   9.524
10944SOL     OW34605  10.732  11.215   0.125
10944SOL    HW134606  10.684  11.168   0.057
10944SOL    HW234607  10.789  11.275   0.077
10945SOL     OW34608   7.945  12.583   6.395
10945SOL    HW134609   7.946  12.656   6.456
10945SOL    HW234610   7.967  12.621   6.310
10946SOL     OW34611   9.245  11.930   6.671
10946SOL    HW134612   9.248  11.839   6.700
10946SOL    HW234613   9.178  11.970   6.726
10947SOL     OW34614   6.103  12.604   5.253
10947SOL    HW134615   6.062  12.689   5.266
10947SOL    HW234616   6.047  12.542   5.298
10948SOL     OW34617   8.007  10.660   6.030
10948SOL    HW134618   8.036  10.570   6.015
10948SOL    HW234619   7.937  10.674   5.966
10949SOL     OW34620   7.762   6.893   8.356
10949SOL    HW134621   7.824   6.821   8.349
10949SOL    HW234622   7.686   6.855   8.400
10950SOL     OW34623  13.356   3.166  11.692
10950SOL    HW134624  13.381   3.179  11.783
10950SOL    HW234625  13.431   3.123  11.651
10951SOL     OW34626  11.915  10.285   8.546
10951SOL    HW134627  11.968  10.258   8.471
10951SOL    HW234628  11.891  10.203   8.589
10952SOL     OW34629   7.201  13.465   5.986
10952SOL    HW134630   7.149  13.524   5.931
10952SOL    HW234631   7.145  13.389   6.000
10953SOL     OW34632   4.210  10.460   7.406
10953SOL    HW134633   4.173  10.400   7.341
10953SOL    HW234634   4.172  10.433   7.489
10954SOL     OW34635  12.436   2.351  10.628
10954SOL    HW134636  12.354   2.304  10.645
10954SOL    HW234637  12.411   2.421  10.568
10955SOL     OW34638   9.119   5.943   2.851
10955SOL    HW134639   9.091   6.032   2.831
10955SOL    HW234640   9.170   5.916   2.774
10956SOL     OW34641   0.104  13.813   7.849
10956SOL    HW134642   0.139  13.812   7.938
10956SOL    HW234643   0.177  13.845   7.795
10957SOL     OW34644   3.985   5.587   2.209
10957SOL    HW134645   3.962   5.627   2.125
10957SOL    HW234646   4.065   5.537   2.189
10958SOL     OW34647   4.902   9.014   6.856
10958SOL    HW134648   4.861   9.041   6.774
10958SOL    HW234649   4.995   9.004   6.835
10959SOL     OW34650   8.031  11.443   3.720
10959SOL    HW134651   7.989  11.359   3.740
10959SOL    HW234652   7.975  11.508   3.761
10960SOL     OW34653   8.557   4.541   1.832
10960SOL    HW134654   8.518   4.515   1.916
10960SOL    HW234655   8.650   4.552   1.852
10961SOL     OW34656  10.880   3.196   0.236
10961SOL    HW134657  10.966   3.160   0.260
10961SOL    HW234658  10.866   3.168   0.146
10962SOL     OW34659  10.002   6.599   9.444
10962SOL    HW134660   9.955   6.615   9.526
10962SOL    HW234661  10.082   6.554   9.470
10963SOL     OW34662   6.928   5.951  10.794
10963SOL    HW134663   6.921   5.908  10.708
10963SOL    HW234664   7.013   5.994  10.792
10964SOL     OW34665  12.162  13.653   3.986
10964SOL    HW134666  12.190  13.573   3.940
10964SOL    HW234667  12.081  13.628   4.030
10965SOL     OW34668   1.356   2.508   6.012
10965SOL    HW134669   1.357   2.413   6.022
10965SOL    HW234670   1.327   2.522   5.922
10966SOL     OW34671  14.483   3.329   5.998
10966SOL    HW134672  14.491   3.313   5.904
10966SOL    HW234673  14.476   3.424   6.006
10967SOL     OW34674   9.872   7.248  10.505
10967SOL    HW134675   9.879   7.182  10.574
10967SOL    HW234676   9.888   7.331  10.549
10968SOL     OW34677   8.688  14.756   8.742
10968SOL    HW134678   8.650  14.729   8.658
10968SOL    HW234679   8.663  14.688   8.803
10969SOL     OW34680   1.910   5.402   2.123
10969SOL    HW134681   1.951   5.452   2.052
10969SOL    HW234682   1.955   5.433   2.202
10970SOL     OW34683  13.713   5.394   9.094
10970SOL    HW134684  13.686   5.403   9.003
10970SOL    HW234685  13.684   5.306   9.119
10971SOL     OW34686   7.540  13.753   6.736
10971SOL    HW134687   7.566  13.772   6.646
10971SOL    HW234688   7.622  13.731   6.780
10972SOL     OW34689   5.414   4.718   7.524
10972SOL    HW134690   5.379   4.629   7.536
10972SOL    HW234691   5.500   4.704   7.485
10973SOL     OW34692   7.871  11.549   2.920
10973SOL    HW134693   7.796  11.511   2.966
10973SOL    HW234694   7.831  11.615   2.862
10974SOL     OW34695   5.307   6.058   8.832
10974SOL    HW134696   5.299   6.140   8.881
10974SOL    HW234697   5.336   5.994   8.897
10975SOL     OW34698   7.326  14.491  12.658
10975SOL    HW134699   7.385  14.513  12.587
10975SOL    HW234700   7.252  14.551  12.648
10976SOL     OW34701   8.984  10.319  11.881
10976SOL    HW134702   8.989  10.391  11.818
10976SOL    HW234703   8.953  10.359  11.962
10977SOL     OW34704   9.576   9.336   7.908
10977SOL    HW134705   9.487   9.371   7.906
10977SOL    HW234706   9.564   9.241   7.907
10978SOL     OW34707   5.578   4.756   5.411
10978SOL    HW134708   5.565   4.803   5.328
10978SOL    HW234709   5.671   4.768   5.431
10979SOL     OW34710   0.617  13.610   0.052
10979SOL    HW134711   0.691  13.596   0.111
10979SOL    HW234712   0.628  13.544  14.865
10980SOL     OW34713   0.576  12.708   5.129
10980SOL    HW134714   0.507  12.687   5.065
10980SOL    HW234715   0.573  12.803   5.137
10981SOL     OW34716   7.572  11.046   3.059
10981SOL    HW134717   7.533  11.099   2.990
10981SOL    HW234718   7.663  11.034   3.033
10982SOL     OW34719   5.058   8.014  13.070
10982SOL    HW134720   5.033   8.008  12.978
10982SOL    HW234721   5.146   8.051  13.069
10983SOL     OW34722   1.709   5.866  11.726
10983SOL    HW134723   1.667   5.807  11.664
10983SOL    HW234724   1.802   5.850  11.716
10984SOL     OW34725   6.947   1.134   7.985
10984SOL    HW134726   6.902   1.215   8.007
10984SOL    HW234727   6.967   1.142   7.891
10985SOL     OW34728  12.122   0.254   1.856
10985SOL    HW134729  12.033   0.289   1.864
10985SOL    HW234730  12.141   0.259   1.762
10986SOL     OW34731   0.743   3.308   8.284
10986SOL    HW134732   0.821   3.341   8.239
10986SOL    HW234733   0.764   3.217   8.304
10987SOL     OW34734   2.180   5.591   4.558
10987SOL    HW134735   2.259   5.629   4.595
10987SOL    HW234736   2.109   5.624   4.614
10988SOL     OW34737   6.030   7.390   0.700
10988SOL    HW134738   6.044   7.483   0.720
10988SOL    HW234739   6.119   7.354   0.688
10989SOL     OW34740   2.042   0.230  14.473
10989SOL    HW134741   2.066   0.190  14.389
10989SOL    HW234742   1.951   0.258  14.460
10990SOL     OW34743  10.212   1.501   8.327
10990SOL    HW134744  10.154   1.450   8.271
10990SOL    HW234745  10.294   1.507   8.277
10991SOL     OW34746   4.464  14.078   8.205
10991SOL    HW134747   4.421  13.999   8.173
10991SOL    HW234748   4.422  14.097   8.289
10992SOL     OW34749  10.658   1.408   2.955
10992SOL    HW134750  10.734   1.426   3.010
10992SOL    HW234751  10.596   1.478   2.976
10993SOL     OW34752   1.911  11.586   6.059
10993SOL    HW134753   1.916  11.502   6.104
10993SOL    HW234754   1.952  11.571   5.974
10994SOL     OW34755  12.905   4.839   2.347
10994SOL    HW134756  12.993   4.876   2.344
10994SOL    HW234757  12.910   4.761   2.292
10995SOL     OW34758   0.523   4.188   4.547
10995SOL    HW134759   0.441   4.231   4.525
10995SOL    HW234760   0.497   4.104   4.586
10996SOL     OW34761   3.578  12.586   7.269
10996SOL    HW134762   3.506  12.525   7.261
10996SOL    HW234763   3.537  12.670   7.292
10997SOL     OW34764   8.015  13.368   8.545
10997SOL    HW134765   8.026  13.412   8.461
10997SOL    HW234766   8.003  13.276   8.522
10998SOL     OW34767   0.777   7.456  11.874
10998SOL    HW134768   0.827   7.466  11.793
10998SOL    HW234769   0.802   7.532  11.928
10999SOL     OW34770  12.356  13.702   3.401
10999SOL    HW134771  12.421  13.632   3.394
10999SOL    HW234772  12.325  13.715   3.312
11000SOL     OW34773   6.006  13.050   1.313
11000SOL    HW134774   5.951  13.086   1.383
11000SOL    HW234775   5.953  12.979   1.276
11001SOL     OW34776   8.410   0.369   7.611
11001SOL    HW134777   8.441   0.444   7.560
11001SOL    HW234778   8.354   0.320   7.550
11002SOL     OW34779  12.834   2.226  14.850
11002SOL    HW134780  12.759   2.194  14.799
11002SOL    HW234781  12.909   2.179  14.815
11003SOL     OW34782   5.148   4.565  10.337
11003SOL    HW134783   5.089   4.498  10.371
11003SOL    HW234784   5.161   4.625  10.410
11004SOL     OW34785   0.329   7.193   3.797
11004SOL    HW134786   0.382   7.114   3.804
11004SOL    HW234787   0.370   7.254   3.858
11005SOL     OW34788   3.283   6.711   8.531
11005SOL    HW134789   3.210   6.650   8.522
11005SOL    HW234790   3.351   6.661   8.577
11006SOL     OW34791  10.298   8.349  14.836
11006SOL    HW134792  10.264   8.287   0.019
11006SOL    HW234793  10.390   8.359  14.859
11007SOL     OW34794  13.193   2.543   7.832
11007SOL    HW134795  13.253   2.593   7.887
11007SOL    HW234796  13.150   2.483   7.893
11008SOL     OW34797   8.313  10.059   3.807
11008SOL    HW134798   8.306  10.073   3.902
11008SOL    HW234799   8.378  10.122   3.778
11009SOL     OW34800  11.043  11.869  10.130
11009SOL    HW134801  11.054  11.953  10.085
11009SOL    HW234802  11.130  11.828  10.126
11010SOL     OW34803   9.172   8.358   0.653
11010SOL    HW134804   9.122   8.278   0.668
11010SOL    HW234805   9.110   8.417   0.608
11011SOL     OW34806   4.158   4.767  10.124
11011SOL    HW134807   4.130   4.798  10.210
11011SOL    HW234808   4.204   4.842  10.085
11012SOL     OW34809  13.395  10.665   8.293
11012SOL    HW134810  13.356  10.579   8.309
11012SOL    HW234811  13.393  10.709   8.378
11013SOL     OW34812  13.534   5.316   2.130
11013SOL    HW134813  13.568   5.301   2.042
11013SOL    HW234814  13.445   5.280   2.127
11014SOL     OW34815  13.710  10.069   3.666
11014SOL    HW134816  13.616  10.072   3.680
11014SOL    HW234817  13.737  10.160   3.660
11015SOL     OW34818   2.234   9.242  13.166
11015SOL    HW134819   2.218   9.149  13.155
11015SOL    HW234820   2.281   9.250  13.249
11016SOL     OW34821  13.509   1.126   9.109
11016SOL    HW134822  13.475   1.130   9.198
11016SOL    HW234823  13.544   1.213   9.092
11017SOL     OW34824   5.508   0.790   4.104
11017SOL    HW134825   5.483   0.765   4.193
11017SOL    HW234826   5.540   0.880   4.113
11018SOL     OW34827  12.692  10.676   4.329
11018SOL    HW134828  12.750  10.608   4.364
11018SOL    HW234829  12.733  10.758   4.356
11019SOL     OW34830   0.749   2.946   8.267
11019SOL    HW134831   0.666   2.960   8.223
11019SOL    HW234832   0.725   2.917   8.355
11020SOL     OW34833   5.089   8.889   6.520
11020SOL    HW134834   5.129   8.867   6.435
11020SOL    HW234835   5.005   8.930   6.497
11021SOL     OW34836   2.760   0.130   3.978
11021SOL    HW134837   2.764   0.136   4.073
11021SOL    HW234838   2.829   0.068   3.954
11022SOL     OW34839   4.626   8.828  10.964
11022SOL    HW134840   4.605   8.886  11.037
11022SOL    HW234841   4.688   8.878  10.911
11023SOL     OW34842   9.387   3.147  10.709
11023SOL    HW134843   9.390   3.075  10.772
11023SOL    HW234844   9.424   3.110  10.628
11024SOL     OW34845  14.547   9.674   6.287
11024SOL    HW134846  14.590   9.703   6.368
11024SOL    HW234847  14.614   9.622   6.242
11025SOL     OW34848   5.851   2.222   8.484
11025SOL    HW134849   5.872   2.166   8.410
11025SOL    HW234850   5.775   2.181   8.525
11026SOL     OW34851  13.314   9.162   1.718
11026SOL    HW134852  13.364   9.103   1.660
11026SOL    HW234853  13.291   9.236   1.662
11027SOL     OW34854   1.263   2.185  13.890
11027SOL    HW134855   1.222   2.208  13.806
11027SOL    HW234856   1.201   2.123  13.930
11028SOL     OW34857   9.387  13.831  13.310
11028SOL    HW134858   9.324  13.817  13.380
11028SOL    HW234859   9.471  13.802  13.347
11029SOL     OW34860   7.911   5.091   9.087
11029SOL    HW134861   8.006   5.098   9.095
11029SOL    HW234862   7.877   5.161   9.142
11030SOL     OW34863  11.902  12.408   7.588
11030SOL    HW134864  11.915  12.502   7.578
11030SOL    HW234865  11.874  12.397   7.679
11031SOL     OW34866   7.982   2.548  13.511
11031SOL    HW134867   7.999   2.526  13.419
11031SOL    HW234868   8.059   2.596  13.538
11032SOL     OW34869  10.146   9.575   5.124
11032SOL    HW134870  10.199   9.625   5.062
11032SOL    HW234871  10.162   9.617   5.209
11033SOL     OW34872   4.604   2.436   2.860
11033SOL    HW134873   4.626   2.429   2.953
11033SOL    HW234874   4.674   2.389   2.815
11034SOL     OW34875   5.412   2.021  12.234
11034SOL    HW134876   5.367   1.948  12.275
11034SOL    HW234877   5.498   2.024  12.276
11035SOL     OW34878   2.687   4.167   6.169
11035SOL    HW134879   2.622   4.168   6.099
11035SOL    HW234880   2.733   4.083   6.159
11036SOL     OW34881  12.105   1.560   0.643
11036SOL    HW134882  12.147   1.504   0.578
11036SOL    HW234883  12.168   1.630   0.659
11037SOL     OW34884   4.268   8.459   2.138
11037SOL    HW134885   4.238   8.378   2.180
11037SOL    HW234886   4.327   8.499   2.202
11038SOL     OW34887  11.505  10.789   3.213
11038SOL    HW134888  11.446  10.772   3.139
11038SOL    HW234889  11.447  10.793   3.289
11039SOL     OW34890   1.242   5.959  13.673
11039SOL    HW134891   1.325   5.999  13.647
11039SOL    HW234892   1.187   6.033  13.699
11040SOL     OW34893   8.746  12.460   2.703
11040SOL    HW134894   8.666  12.475   2.653
11040SOL    HW234895   8.728  12.380   2.754
11041SOL     OW34896   7.762  11.292   1.198
11041SOL    HW134897   7.699  11.362   1.179
11041SOL    HW234898   7.775  11.249   1.114
11042SOL     OW34899   6.972   0.479   2.540
11042SOL    HW134900   7.048   0.499   2.486
11042SOL    HW234901   6.936   0.399   2.502
11043SOL     OW34902   2.982  12.855   6.428
11043SOL    HW134903   2.999  12.901   6.510
11043SOL    HW234904   3.065  12.861   6.380
11044SOL     OW34905   8.755   7.906   8.006
11044SOL    HW134906   8.783   7.963   7.935
11044SOL    HW234907   8.684   7.954   8.048
11045SOL     OW34908   8.456   7.581   1.629
11045SOL    HW134909   8.454   7.650   1.696
11045SOL    HW234910   8.373   7.590   1.583
11046SOL     OW34911  12.070  11.190  14.582
11046SOL    HW134912  12.109  11.239  14.654
11046SOL    HW234913  12.088  11.099  14.603
11047SOL     OW34914   0.677  11.751   6.993
11047SOL    HW134915   0.648  11.792   6.911
11047SOL    HW234916   0.770  11.770   6.998
11048SOL     OW34917   9.104   7.560  13.734
11048SOL    HW134918   9.135   7.478  13.772
11048SOL    HW234919   9.026   7.582  13.785
11049SOL     OW34920  13.554  11.012  13.556
11049SOL    HW134921  13.466  10.999  13.591
11049SOL    HW234922  13.601  11.055  13.628
11050SOL     OW34923   3.626   9.076   0.455
11050SOL    HW134924   3.689   9.147   0.446
11050SOL    HW234925   3.667   9.002   0.410
11051SOL     OW34926  14.012   2.343   9.863
11051SOL    HW134927  14.003   2.335   9.958
11051SOL    HW234928  13.977   2.261   9.829
11052SOL     OW34929   1.359   2.280   4.778
11052SOL    HW134930   1.412   2.325   4.712
11052SOL    HW234931   1.390   2.316   4.861
11053SOL     OW34932   8.481   9.540  13.247
11053SOL    HW134933   8.514   9.450  13.243
11053SOL    HW234934   8.392   9.531  13.281
11054SOL     OW34935   0.447   2.650  11.114
11054SOL    HW134936   0.412   2.604  11.190
11054SOL    HW234937   0.375   2.707  11.085
11055SOL     OW34938   7.932  10.726   0.534
11055SOL    HW134939   7.960  10.648   0.487
11055SOL    HW234940   7.999  10.739   0.602
11056SOL     OW34941   9.581   5.493   2.463
11056SOL    HW134942   9.634   5.416   2.445
11056SOL    HW234943   9.623   5.563   2.412
11057SOL     OW34944  11.686   0.788  13.554
11057SOL    HW134945  11.693   0.718  13.619
11057SOL    HW234946  11.737   0.860  13.591
11058SOL     OW34947  12.699  14.271   5.041
11058SOL    HW134948  12.656  14.186   5.033
11058SOL    HW234949  12.754  14.263   5.119
11059SOL     OW34950  10.397  11.827   7.298
11059SOL    HW134951  10.331  11.832   7.367
11059SOL    HW234952  10.359  11.769   7.233
11060SOL     OW34953  14.748   3.469   1.436
11060SOL    HW134954  14.844   3.466   1.438
11060SOL    HW234955  14.722   3.427   1.518
11061SOL     OW34956   9.264   8.658   5.713
11061SOL    HW134957   9.206   8.722   5.755
11061SOL    HW234958   9.205   8.591   5.679
11062SOL     OW34959   7.185   1.857   5.939
11062SOL    HW134960   7.164   1.853   6.032
11062SOL    HW234961   7.281   1.849   5.936
11063SOL     OW34962   0.136  13.365   6.722
11063SOL    HW134963   0.053  13.396   6.760
11063SOL    HW234964   0.149  13.421   6.645
11064SOL     OW34965   4.005   6.876   1.333
11064SOL    HW134966   4.071   6.945   1.331
11064SOL    HW234967   4.054   6.797   1.359
11065SOL     OW34968   7.779   3.171   1.503
11065SOL    HW134969   7.832   3.242   1.466
11065SOL    HW234970   7.691   3.187   1.469
11066SOL     OW34971   0.594   8.576   8.959
11066SOL    HW134972   0.520   8.623   8.999
11066SOL    HW234973   0.600   8.612   8.871
11067SOL     OW34974  12.732   2.561  11.677
11067SOL    HW134975  12.784   2.586  11.754
11067SOL    HW234976  12.657   2.514  11.714
11068SOL     OW34977   2.988   5.449   9.158
11068SOL    HW134978   2.993   5.461   9.064
11068SOL    HW234979   2.910   5.497   9.185
11069SOL     OW34980  12.102  13.046   0.266
11069SOL    HW134981  12.176  13.046   0.327
11069SOL    HW234982  12.069  12.957   0.267
11070SOL     OW34983  13.091   2.961   9.530
11070SOL    HW134984  13.117   2.874   9.500
11070SOL    HW234985  13.172   3.011   9.534
11071SOL     OW34986  13.733  13.091   8.638
11071SOL    HW134987  13.708  13.054   8.722
11071SOL    HW234988  13.674  13.166   8.626
11072SOL     OW34989  10.318   3.543   8.890
11072SOL    HW134990  10.384   3.609   8.869
11072SOL    HW234991  10.368   3.472   8.931
11073SOL     OW34992   7.061   6.850  12.314
11073SOL    HW134993   6.994   6.795  12.354
11073SOL    HW234994   7.012   6.924  12.278
11074SOL     OW34995  14.234  12.287   8.880
11074SOL    HW134996  14.179  12.359   8.912
11074SOL    HW234997  14.248  12.307   8.788
11075SOL     OW34998   9.336  11.143   2.182
11075SOL    HW134999   9.314  11.225   2.227
11075SOL    HW235000   9.413  11.164   2.129
11076SOL     OW35001  10.964   9.757   6.561
11076SOL    HW135002  11.014   9.686   6.520
11076SOL    HW235003  10.874   9.725   6.563
11077SOL     OW35004   5.682   3.734   7.831
11077SOL    HW135005   5.616   3.691   7.777
11077SOL    HW235006   5.752   3.669   7.841
11078SOL     OW35007   7.691  14.860   5.259
11078SOL    HW135008   7.650   0.047   5.205
11078SOL    HW235009   7.619  14.821   5.308
11079SOL     OW35010  10.511  11.214   3.225
11079SOL    HW135011  10.573  11.194   3.154
11079SOL    HW235012  10.464  11.291   3.194
11080SOL     OW35013   3.591   3.401   1.349
11080SOL    HW135014   3.498   3.383   1.361
11080SOL    HW235015   3.597   3.497   1.341
11081SOL     OW35016  13.644   9.904   1.471
11081SOL    HW135017  13.631   9.992   1.508
11081SOL    HW235018  13.619   9.913   1.380
11082SOL     OW35019   0.787  13.205   7.457
11082SOL    HW135020   0.833  13.274   7.506
11082SOL    HW235021   0.699  13.239   7.443
11083SOL     OW35022  10.992   1.255  10.139
11083SOL    HW135023  10.995   1.296  10.225
11083SOL    HW235024  11.083   1.252  10.109
11084SOL     OW35025   6.598   5.023  10.280
11084SOL    HW135026   6.664   5.007  10.213
11084SOL    HW235027   6.516   4.993  10.241
11085SOL     OW35028   9.268   5.214  10.598
11085SOL    HW135029   9.348   5.229  10.648
11085SOL    HW235030   9.290   5.245  10.510
11086SOL     OW35031  12.548   6.949   8.766
11086SOL    HW135032  12.515   6.914   8.849
11086SOL    HW235033  12.505   7.034   8.758
11087SOL     OW35034   5.573   6.995   4.636
11087SOL    HW135035   5.551   6.918   4.584
11087SOL    HW235036   5.661   6.978   4.668
11088SOL     OW35037  12.793   1.287  11.393
11088SOL    HW135038  12.855   1.218  11.418
11088SOL    HW235039  12.841   1.338  11.328
11089SOL     OW35040   8.518  13.886   7.827
11089SOL    HW135041   8.523  13.966   7.775
11089SOL    HW235042   8.458  13.907   7.899
11090SOL     OW35043   9.038  12.132   6.011
11090SOL    HW135044   9.070  12.125   5.921
11090SOL    HW235045   9.108  12.177   6.058
11091SOL     OW35046   8.642   8.684   8.373
11091SOL    HW135047   8.709   8.615   8.375
11091SOL    HW235048   8.614   8.694   8.464
11092SOL     OW35049   6.231   6.684   8.856
11092SOL    HW135050   6.266   6.604   8.895
11092SOL    HW235051   6.300   6.749   8.868
11093SOL     OW35052   1.862   2.241   4.966
11093SOL    HW135053   1.823   2.291   4.895
11093SOL    HW235054   1.920   2.303   5.010
11094SOL     OW35055   9.400  11.139   4.533
11094SOL    HW135056   9.308  11.143   4.508
11094SOL    HW235057   9.399  11.122   4.627
11095SOL     OW35058   0.170   7.891   1.010
11095SOL    HW135059   0.159   7.890   0.915
11095SOL    HW235060   0.119   7.966   1.039
11096SOL     OW35061   2.380   0.687  13.853
11096SOL    HW135062   2.424   0.724  13.776
11096SOL    HW235063   2.452   0.658  13.909
11097SOL     OW35064   8.338   1.175   1.243
11097SOL    HW135065   8.315   1.183   1.151
11097SOL    HW235066   8.406   1.241   1.257
11098SOL     OW35067   2.376  12.901   3.609
11098SOL    HW135068   2.420  12.820   3.582
11098SOL    HW235069   2.295  12.902   3.559
11099SOL     OW35070   5.766  11.942   1.988
11099SOL    HW135071   5.711  12.011   2.026
11099SOL    HW235072   5.716  11.862   2.000
11100SOL     OW35073   3.299  11.662  10.957
11100SOL    HW135074   3.218  11.712  10.963
11100SOL    HW235075   3.294  11.600  11.030
11101SOL     OW35076   2.747  13.010  10.703
11101SOL    HW135077   2.680  13.013  10.634
11101SOL    HW235078   2.708  12.956  10.772
11102SOL     OW35079   8.347   5.306   9.048
11102SOL    HW135080   8.402   5.369   9.096
11102SOL    HW235081   8.287   5.361   8.997
11103SOL     OW35082  11.127   7.341  14.838
11103SOL    HW135083  11.180   7.378   0.027
11103SOL    HW235084  11.190   7.299  14.779
11104SOL     OW35085  11.221   3.885  12.304
11104SOL    HW135086  11.230   3.890  12.400
11104SOL    HW235087  11.250   3.971  12.273
11105SOL     OW35088  12.580   5.448   5.591
11105SOL    HW135089  12.498   5.404   5.615
11105SOL    HW235090  12.648   5.383   5.606
11106SOL     OW35091   8.732   7.363   1.898
11106SOL    HW135092   8.701   7.280   1.932
11106SOL    HW235093   8.658   7.399   1.850
11107SOL     OW35094   5.378   5.804   2.862
11107SOL    HW135095   5.363   5.860   2.937
11107SOL    HW235096   5.470   5.818   2.840
11108SOL     OW35097   2.102  13.915  12.698
11108SOL    HW135098   2.019  13.957  12.677
11108SOL    HW235099   2.077  13.835  12.744
11109SOL     OW35100  13.723   1.734  11.201
11109SOL    HW135101  13.786   1.768  11.138
11109SOL    HW235102  13.715   1.803  11.267
11110SOL     OW35103   0.031   9.782   6.421
11110SOL    HW135104   0.019   9.738   6.337
11110SOL    HW235105  14.835   9.759   6.472
11111SOL     OW35106   8.206   1.669   0.648
11111SOL    HW135107   8.135   1.671   0.712
11111SOL    HW235108   8.272   1.727   0.684
11112SOL     OW35109  12.768   0.488   5.430
11112SOL    HW135110  12.846   0.520   5.475
11112SOL    HW235111  12.775   0.523   5.341
11113SOL     OW35112   1.642   0.817  13.297
11113SOL    HW135113   1.614   0.785  13.382
11113SOL    HW235114   1.734   0.840  13.309
11114SOL     OW35115   3.274  11.857  12.839
11114SOL    HW135116   3.351  11.818  12.879
11114SOL    HW235117   3.271  11.946  12.873
11115SOL     OW35118   4.108   6.271  12.919
11115SOL    HW135119   4.088   6.209  12.849
11115SOL    HW235120   4.109   6.218  12.999
11116SOL     OW35121  13.194  11.425   6.614
11116SOL    HW135122  13.216  11.373   6.537
11116SOL    HW235123  13.188  11.361   6.685
11117SOL     OW35124   4.080  11.767   8.104
11117SOL    HW135125   4.087  11.851   8.060
11117SOL    HW235126   4.095  11.786   8.196
11118SOL     OW35127  14.289  12.507   6.460
11118SOL    HW135128  14.247  12.588   6.430
11118SOL    HW235129  14.363  12.536   6.513
11119SOL     OW35130   2.238   7.791   1.375
11119SOL    HW135131   2.254   7.830   1.289
11119SOL    HW235132   2.162   7.735   1.363
11120SOL     OW35133   0.136   2.618  12.490
11120SOL    HW135134   0.187   2.628  12.409
11120SOL    HW235135   0.140   2.705  12.530
11121SOL     OW35136   3.664  14.727   0.125
11121SOL    HW135137   3.729  14.687   0.068
11121SOL    HW235138   3.607  14.777   0.067
11122SOL     OW35139  14.273   4.296  12.829
11122SOL    HW135140  14.348   4.237  12.824
11122SOL    HW235141  14.297   4.361  12.895
11123SOL     OW35142   8.625  12.859   2.864
11123SOL    HW135143   8.683  12.872   2.790
11123SOL    HW235144   8.568  12.786   2.838
11124SOL     OW35145   6.414  13.786   2.821
11124SOL    HW135146   6.352  13.850   2.855
11124SOL    HW235147   6.442  13.737   2.899
11125SOL     OW35148   8.708  10.973  10.456
11125SOL    HW135149   8.743  11.053  10.417
11125SOL    HW235150   8.763  10.903  10.419
11126SOL     OW35151   8.300   8.908  10.583
11126SOL    HW135152   8.298   8.919  10.678
11126SOL    HW235153   8.230   8.845  10.565
11127SOL     OW35154   7.264  12.361   2.429
11127SOL    HW135155   7.245  12.455   2.430
11127SOL    HW235156   7.190  12.321   2.475
11128SOL     OW35157   9.639   2.337  11.712
11128SOL    HW135158   9.546   2.358  11.711
11128SOL    HW235159   9.680   2.411  11.756
11129SOL     OW35160   5.166  12.922  10.864
11129SOL    HW135161   5.108  12.872  10.807
11129SOL    HW235162   5.121  13.005  10.876
11130SOL     OW35163  13.924  10.581   6.442
11130SOL    HW135164  13.840  10.592   6.396
11130SOL    HW235165  13.989  10.584   6.372
11131SOL     OW35166  11.197   6.415  12.210
11131SOL    HW135167  11.119   6.457  12.176
11131SOL    HW235168  11.233   6.477  12.273
11132SOL     OW35169  10.416   0.899   5.263
11132SOL    HW135170  10.495   0.936   5.302
11132SOL    HW235171  10.360   0.975   5.245
11133SOL     OW35172   4.836  13.991  14.269
11133SOL    HW135173   4.859  13.908  14.227
11133SOL    HW235174   4.774  14.032  14.208
11134SOL     OW35175   5.024   7.769  10.884
11134SOL    HW135176   5.092   7.829  10.915
11134SOL    HW235177   4.942   7.818  10.893
11135SOL     OW35178   1.631   6.339   6.674
11135SOL    HW135179   1.619   6.425   6.715
11135SOL    HW235180   1.657   6.359   6.584
11136SOL     OW35181  14.442   4.266  10.020
11136SOL    HW135182  14.421   4.307   9.936
11136SOL    HW235183  14.412   4.175  10.011
11137SOL     OW35184  11.772  10.042  13.283
11137SOL    HW135185  11.827  10.120  13.286
11137SOL    HW235186  11.786   9.999  13.367
11138SOL     OW35187   9.756  12.974  14.087
11138SOL    HW135188   9.844  12.984  14.122
11138SOL    HW235189   9.760  13.011  13.999
11139SOL     OW35190   1.298  10.621   1.215
11139SOL    HW135191   1.292  10.612   1.310
11139SOL    HW235192   1.225  10.570   1.182
11140SOL     OW35193   3.150   8.381   2.255
11140SOL    HW135194   3.113   8.426   2.332
11140SOL    HW235195   3.237   8.418   2.246
11141SOL     OW35196   6.373   2.412  14.608
11141SOL    HW135197   6.374   2.457  14.692
11141SOL    HW235198   6.390   2.481  14.543
11142SOL     OW35199  12.224   1.125   5.032
11142SOL    HW135200  12.146   1.133   5.087
11142SOL    HW235201  12.290   1.177   5.077
11143SOL     OW35202   1.081  13.671  10.751
11143SOL    HW135203   1.029  13.730  10.697
11143SOL    HW235204   1.021  13.600  10.773
11144SOL     OW35205   4.894   0.808  12.511
11144SOL    HW135206   4.938   0.723  12.516
11144SOL    HW235207   4.939   0.855  12.441
11145SOL     OW35208   2.422   1.703   7.107
11145SOL    HW135209   2.427   1.611   7.132
11145SOL    HW235210   2.353   1.740   7.162
11146SOL     OW35211   1.517  11.467   4.101
11146SOL    HW135212   1.549  11.380   4.077
11146SOL    HW235213   1.532  11.474   4.195
11147SOL     OW35214   7.186   8.119  13.580
11147SOL    HW135215   7.101   8.085  13.549
11147SOL    HW235216   7.171   8.139  13.672
11148SOL     OW35217   2.227   9.160   2.891
11148SOL    HW135218   2.240   9.069   2.919
11148SOL    HW235219   2.231   9.156   2.796
11149SOL     OW35220   4.970   2.033  14.610
11149SOL    HW135221   4.991   1.941  14.596
11149SOL    HW235222   4.889   2.047  14.560
11150SOL     OW35223   4.219   3.726  10.352
11150SOL    HW135224   4.291   3.689  10.301
11150SOL    HW235225   4.256   3.740  10.439
11151SOL     OW35226  14.734   6.511  14.462
11151SOL    HW135227  14.645   6.540  14.482
11151SOL    HW235228  14.776   6.499  14.547
11152SOL     OW35229   5.648   8.904  13.283
11152SOL    HW135230   5.578   8.965  13.308
11152SOL    HW235231   5.681   8.938  13.200
11153SOL     OW35232   8.272   2.576   8.593
11153SOL    HW135233   8.358   2.594   8.630
11153SOL    HW235234   8.258   2.647   8.530
11154SOL     OW35235   4.522   2.392   5.700
11154SOL    HW135236   4.460   2.353   5.639
11154SOL    HW235237   4.530   2.328   5.771
11155SOL     OW35238   7.371   8.853   9.343
11155SOL    HW135239   7.389   8.796   9.418
11155SOL    HW235240   7.414   8.936   9.364
11156SOL     OW35241  13.316   6.085   7.401
11156SOL    HW135242  13.226   6.117   7.402
11156SOL    HW235243  13.346   6.102   7.312
11157SOL     OW35244  11.999  14.219   2.090
11157SOL    HW135245  11.973  14.170   2.012
11157SOL    HW235246  11.927  14.206   2.152
11158SOL     OW35247  12.688   4.947   4.157
11158SOL    HW135248  12.675   5.012   4.226
11158SOL    HW235249  12.689   4.999   4.076
11159SOL     OW35250  10.821   2.327   8.928
11159SOL    HW135251  10.754   2.266   8.959
11159SOL    HW235252  10.802   2.409   8.975
11160SOL     OW35253   6.522   1.181  10.496
11160SOL    HW135254   6.533   1.089  10.519
11160SOL    HW235255   6.611   1.212  10.478
11161SOL     OW35256  11.844   2.305   7.609
11161SOL    HW135257  11.748   2.304   7.611
11161SOL    HW235258  11.865   2.349   7.526
11162SOL     OW35259   8.832   6.681   3.918
11162SOL    HW135260   8.829   6.590   3.889
11162SOL    HW235261   8.740   6.705   3.932
11163SOL     OW35262   2.029   3.189  10.442
11163SOL    HW135263   1.999   3.278  10.424
11163SOL    HW235264   2.014   3.142  10.360
11164SOL     OW35265  14.715  12.644   6.423
11164SOL    HW135266  14.681  12.666   6.336
11164SOL    HW235267  14.636  12.636   6.478
11165SOL     OW35268  14.687   1.323   1.503
11165SOL    HW135269  14.648   1.238   1.484
11165SOL    HW235270  14.655   1.345   1.591
11166SOL     OW35271   9.576  10.266   8.449
11166SOL    HW135272   9.671  10.252   8.450
11166SOL    HW235273   9.551  10.270   8.542
11167SOL     OW35274   3.550   7.366  14.498
11167SOL    HW135275   3.494   7.376  14.421
11167SOL    HW235276   3.634   7.334  14.463
11168SOL     OW35277  14.098   7.622   3.714
11168SOL    HW135278  14.093   7.656   3.625
11168SOL    HW235279  14.182   7.654   3.747
11169SOL     OW35280   5.789  13.620   8.884
11169SOL    HW135281   5.751  13.598   8.970
11169SOL    HW235282   5.876  13.654   8.904
11170SOL     OW35283   9.733  10.405   3.699
11170SOL    HW135284   9.722  10.484   3.646
11170SOL    HW235285   9.819  10.416   3.740
11171SOL     OW35286  13.727   4.855   6.899
11171SOL    HW135287  13.683   4.901   6.971
11171SOL    HW235288  13.751   4.770   6.936
11172SOL     OW35289   9.771   5.162   3.339
11172SOL    HW135290   9.754   5.191   3.249
11172SOL    HW235291   9.858   5.121   3.334
11173SOL     OW35292   8.067   6.751   5.875
11173SOL    HW135293   8.026   6.692   5.939
11173SOL    HW235294   8.071   6.835   5.920
11174SOL     OW35295   2.688   8.910   3.764
11174SOL    HW135296   2.781   8.888   3.764
11174SOL    HW235297   2.647   8.843   3.819
11175SOL     OW35298   2.698   0.978   7.298
11175SOL    HW135299   2.741   0.893   7.295
11175SOL    HW235300   2.648   0.977   7.380
11176SOL     OW35301   2.420  14.507   9.917
11176SOL    HW135302   2.451  14.572   9.981
11176SOL    HW235303   2.403  14.558   9.838
11177SOL     OW35304  12.026   5.590  13.357
11177SOL    HW135305  12.046   5.667  13.410
11177SOL    HW235306  12.018   5.519  13.421
11178SOL     OW35307  14.380   0.214   9.465
11178SOL    HW135308  14.384   0.275   9.392
11178SOL    HW235309  14.347   0.266   9.538
11179SOL     OW35310   4.217  11.006   7.077
11179SOL    HW135311   4.234  10.937   7.013
11179SOL    HW235312   4.302  11.048   7.090
11180SOL     OW35313   5.637   0.670  13.705
11180SOL    HW135314   5.630   0.728  13.782
11180SOL    HW235315   5.609   0.585  13.738
11181SOL     OW35316  10.134   8.645  13.412
11181SOL    HW135317  10.136   8.573  13.475
11181SOL    HW235318  10.094   8.717  13.460
11182SOL     OW35319   3.435   7.437   9.459
11182SOL    HW135320   3.520   7.397   9.475
11182SOL    HW235321   3.372   7.373   9.490
11183SOL     OW35322   4.000  11.613   6.751
11183SOL    HW135323   3.905  11.622   6.756
11183SOL    HW235324   4.026  11.582   6.838
11184SOL     OW35325  13.859  10.076   9.273
11184SOL    HW135326  13.767  10.077   9.250
11184SOL    HW235327  13.876   9.986   9.302
11185SOL     OW35328  13.714   4.838  10.164
11185SOL    HW135329  13.695   4.772  10.231
11185SOL    HW235330  13.628   4.868  10.135
11186SOL     OW35331   1.549  10.681   2.546
11186SOL    HW135332   1.589  10.738   2.612
11186SOL    HW235333   1.623  10.633   2.508
11187SOL     OW35334   3.885   5.722   9.111
11187SOL    HW135335   3.914   5.659   9.177
11187SOL    HW235336   3.961   5.735   9.054
11188SOL     OW35337   6.277   1.004  13.869
11188SOL    HW135338   6.270   0.914  13.838
11188SOL    HW235339   6.242   1.057  13.797
11189SOL     OW35340   1.213   6.537   4.047
11189SOL    HW135341   1.247   6.454   4.081
11189SOL    HW235342   1.283   6.572   3.992
11190SOL     OW35343  14.387  10.804   2.951
11190SOL    HW135344  14.393  10.765   3.038
11190SOL    HW235345  14.404  10.897   2.966
11191SOL     OW35346   2.947   7.066  13.251
11191SOL    HW135347   2.855   7.067  13.277
11191SOL    HW235348   2.965   6.974  13.231
11192SOL     OW35349   8.026   6.507   4.357
11192SOL    HW135350   8.103   6.467   4.316
11192SOL    HW235351   8.058   6.541   4.440
11193SOL     OW35352   5.991  13.800   8.069
11193SOL    HW135353   5.931  13.847   8.011
11193SOL    HW235354   5.963  13.823   8.157
11194SOL     OW35355   6.668  10.333  13.465
11194SOL    HW135356   6.689  10.258  13.521
11194SOL    HW235357   6.693  10.305  13.377
11195SOL     OW35358   0.407  14.460  13.821
11195SOL    HW135359   0.401  14.493  13.911
11195SOL    HW235360   0.488  14.497  13.787
11196SOL     OW35361   5.343  14.723  13.979
11196SOL    HW135362   5.322  14.731  14.072
11196SOL    HW235363   5.389  14.639  13.972
11197SOL     OW35364  13.579   6.639   8.236
11197SOL    HW135365  13.655   6.694   8.223
11197SOL    HW235366  13.604   6.579   8.307
11198SOL     OW35367  10.446   7.848   5.315
11198SOL    HW135368  10.446   7.753   5.302
11198SOL    HW235369  10.535   7.874   5.293
11199SOL     OW35370  10.564   6.071   3.823
11199SOL    HW135371  10.622   6.014   3.874
11199SOL    HW235372  10.531   6.015   3.753
11200SOL     OW35373  14.475   5.130  10.957
11200SOL    HW135374  14.453   5.192  10.888
11200SOL    HW235375  14.457   5.177  11.038
11201SOL     OW35376  10.733  14.421  11.714
11201SOL    HW135377  10.730  14.339  11.664
11201SOL    HW235378  10.682  14.482  11.662
11202SOL     OW35379  12.893  12.630   7.831
11202SOL    HW135380  12.799  12.620   7.815
11202SOL    HW235381  12.920  12.548   7.872
11203SOL     OW35382  12.793  11.255   9.421
11203SOL    HW135383  12.724  11.223   9.362
11203SOL    HW235384  12.871  11.207   9.394
11204SOL     OW35385   9.535   0.300   9.060
11204SOL    HW135386   9.444   0.319   9.037
11204SOL    HW235387   9.585   0.320   8.981
11205SOL     OW35388   0.480   7.756  11.090
11205SOL    HW135389   0.546   7.709  11.141
11205SOL    HW235390   0.527   7.785  11.012
11206SOL     OW35391  13.768   5.200   8.154
11206SOL    HW135392  13.693   5.174   8.101
11206SOL    HW235393  13.782   5.126   8.214
11207SOL     OW35394  11.073   6.076  10.704
11207SOL    HW135395  11.088   6.169  10.687
11207SOL    HW235396  11.053   6.071  10.798
11208SOL     OW35397  11.779   0.287  12.636
11208SOL    HW135398  11.766   0.206  12.587
11208SOL    HW235399  11.757   0.264  12.726
11209SOL     OW35400   0.291  14.448  14.744
11209SOL    HW135401   0.294  14.402  14.661
11209SOL    HW235402   0.249  14.387  14.805
11210SOL     OW35403   7.473   3.947   7.565
11210SOL    HW135404   7.479   4.038   7.594
11210SOL    HW235405   7.405   3.909   7.621
11211SOL     OW35406  14.745   8.209   6.605
11211SOL    HW135407  14.788   8.270   6.545
11211SOL    HW235408  14.780   8.123   6.581
11212SOL     OW35409   5.146  13.308  12.553
11212SOL    HW135410   5.105  13.388  12.585
11212SOL    HW235411   5.217  13.337  12.496
11213SOL     OW35412   7.976   9.824   7.402
11213SOL    HW135413   8.013   9.735   7.396
11213SOL    HW235414   7.975   9.842   7.496
11214SOL     OW35415   9.449   4.834   3.747
11214SOL    HW135416   9.372   4.804   3.795
11214SOL    HW235417   9.502   4.880   3.813
11215SOL     OW35418   1.088  12.613   5.017
11215SOL    HW135419   1.131  12.581   5.097
11215SOL    HW235420   1.159  12.656   4.968
11216SOL     OW35421  12.386   8.894   8.799
11216SOL    HW135422  12.450   8.917   8.731
11216SOL    HW235423  12.315   8.957   8.787
11217SOL     OW35424   7.541  13.073   0.491
11217SOL    HW135425   7.589  13.130   0.432
11217SOL    HW235426   7.468  13.126   0.522
11218SOL     OW35427  11.768  14.680  11.902
11218SOL    HW135428  11.708  14.687  11.828
11218SOL    HW235429  11.846  14.639  11.866
11219SOL     OW35430   3.478  12.123   0.616
11219SOL    HW135431   3.443  12.035   0.599
11219SOL    HW235432   3.564  12.122   0.574
11220SOL     OW35433   1.944   2.828   4.426
11220SOL    HW135434   1.871   2.882   4.456
11220SOL    HW235435   1.935   2.747   4.475
11221SOL     OW35436  10.641  13.727  14.765
11221SOL    HW135437  10.567  13.670  14.783
11221SOL    HW235438  10.639  13.740  14.670
11222SOL     OW35439  13.861  10.925   5.427
11222SOL    HW135440  13.938  10.948   5.479
11222SOL    HW235441  13.842  11.004   5.377
11223SOL     OW35442   3.330   1.739  12.746
11223SOL    HW135443   3.377   1.728  12.663
11223SOL    HW235444   3.394   1.717  12.813
11224SOL     OW35445   0.448  11.826  12.017
11224SOL    HW135446   0.454  11.803  12.110
11224SOL    HW235447   0.355  11.839  12.001
11225SOL     OW35448   5.314   9.520   8.354
11225SOL    HW135449   5.291   9.453   8.417
11225SOL    HW235450   5.269   9.599   8.385
11226SOL     OW35451   5.425  13.437  13.942
11226SOL    HW135452   5.468  13.523  13.948
11226SOL    HW235453   5.496  13.376  13.923
11227SOL     OW35454   9.231   9.967   5.917
11227SOL    HW135455   9.310  10.018   5.933
11227SOL    HW235456   9.238   9.892   5.976
11228SOL     OW35457  12.462   1.583   1.027
11228SOL    HW135458  12.507   1.515   1.078
11228SOL    HW235459  12.369   1.565   1.040
11229SOL     OW35460   7.751   6.278   3.877
11229SOL    HW135461   7.843   6.254   3.886
11229SOL    HW235462   7.742   6.303   3.785
11230SOL     OW35463   2.469   8.801  10.026
11230SOL    HW135464   2.559   8.805  10.059
11230SOL    HW235465   2.477   8.770   9.936
11231SOL     OW35466  10.114   0.209  11.122
11231SOL    HW135467  10.116   0.177  11.032
11231SOL    HW235468  10.044   0.274  11.123
11232SOL     OW35469  13.950   6.804  11.820
11232SOL    HW135470  14.017   6.833  11.758
11232SOL    HW235471  13.965   6.709  11.829
11233SOL     OW35472   9.743   2.348   6.144
11233SOL    HW135473   9.835   2.374   6.147
11233SOL    HW235474   9.745   2.256   6.117
11234SOL     OW35475  10.830   3.440  14.393
11234SOL    HW135476  10.752   3.485  14.362
11234SOL    HW235477  10.806   3.408  14.480
11235SOL     OW35478   3.788   7.645   9.292
11235SOL    HW135479   3.824   7.576   9.348
11235SOL    HW235480   3.865   7.692   9.260
11236SOL     OW35481   8.904   7.366   2.430
11236SOL    HW135482   8.898   7.462   2.423
11236SOL    HW235483   8.815   7.335   2.416
11237SOL     OW35484   9.761  13.655   7.980
11237SOL    HW135485   9.845  13.697   7.963
11237SOL    HW235486   9.698  13.727   7.980
11238SOL     OW35487   4.383  10.668   7.505
11238SOL    HW135488   4.422  10.693   7.422
11238SOL    HW235489   4.341  10.584   7.488
11239SOL     OW35490   0.271   2.915   7.945
11239SOL    HW135491   0.241   2.933   7.856
11239SOL    HW235492   0.350   2.862   7.934
11240SOL     OW35493   8.610  12.594   4.185
11240SOL    HW135494   8.635  12.575   4.275
11240SOL    HW235495   8.668  12.666   4.159
11241SOL     OW35496  12.826   2.886   2.449
11241SOL    HW135497  12.824   2.965   2.503
11241SOL    HW235498  12.786   2.914   2.366
11242SOL     OW35499   6.649   1.294   8.110
11242SOL    HW135500   6.602   1.376   8.124
11242SOL    HW235501   6.709   1.313   8.038
11243SOL     OW35502   3.682   6.235  11.958
11243SOL    HW135503   3.631   6.212  12.035
11243SOL    HW235504   3.637   6.311  11.921
11244SOL     OW35505   6.124   3.524  12.416
11244SOL    HW135506   6.124   3.592  12.483
11244SOL    HW235507   6.204   3.539  12.366
11245SOL     OW35508  13.209   5.546   2.699
11245SOL    HW135509  13.158   5.626   2.711
11245SOL    HW235510  13.148   5.475   2.721
11246SOL     OW35511   2.680   2.311   7.913
11246SOL    HW135512   2.661   2.374   7.982
11246SOL    HW235513   2.634   2.345   7.836
11247SOL     OW35514   7.498  10.193   0.764
11247SOL    HW135515   7.507  10.222   0.854
11247SOL    HW235516   7.428  10.246   0.727
11248SOL     OW35517   9.380   1.705   6.244
11248SOL    HW135518   9.431   1.780   6.277
11248SOL    HW235519   9.427   1.676   6.166
11249SOL     OW35520   5.539  10.032  13.414
11249SOL    HW135521   5.570   9.994  13.497
11249SOL    HW235522   5.445  10.046  13.428
11250SOL     OW35523   0.273   4.564   4.762
11250SOL    HW135524   0.309   4.603   4.842
11250SOL    HW235525   0.185   4.601   4.755
11251SOL     OW35526   4.357   9.878   2.511
11251SOL    HW135527   4.266   9.905   2.520
11251SOL    HW235528   4.376   9.885   2.418
11252SOL     OW35529   3.921   0.030   5.362
11252SOL    HW135530   3.950  14.826   5.332
11252SOL    HW235531   3.978   0.092   5.317
11253SOL     OW35532   6.873   0.375   8.529
11253SOL    HW135533   6.836   0.303   8.580
11253SOL    HW235534   6.966   0.375   8.552
11254SOL     OW35535  14.740   2.986   7.469
11254SOL    HW135536  14.764   2.998   7.377
11254SOL    HW235537  14.644   2.980   7.468
11255SOL     OW35538  12.005   0.580  13.467
11255SOL    HW135539  11.985   0.650  13.405
11255SOL    HW235540  12.052   0.623  13.538
11256SOL     OW35541   9.358  10.827  13.211
11256SOL    HW135542   9.445  10.820  13.250
11256SOL    HW235543   9.311  10.751  13.243
11257SOL     OW35544   3.263   7.953   2.327
11257SOL    HW135545   3.242   7.933   2.419
11257SOL    HW235546   3.215   7.887   2.277
11258SOL     OW35547   7.942   1.609  11.306
11258SOL    HW135548   7.954   1.634  11.398
11258SOL    HW235549   8.030   1.602  11.271
11259SOL     OW35550   6.721   5.290   2.652
11259SOL    HW135551   6.683   5.373   2.622
11259SOL    HW235552   6.655   5.253   2.710
11260SOL     OW35553   5.460  13.387  10.607
11260SOL    HW135554   5.427  13.332  10.678
11260SOL    HW235555   5.408  13.467  10.612
11261SOL     OW35556   6.541   4.912   6.338
11261SOL    HW135557   6.604   4.925   6.267
11261SOL    HW235558   6.463   4.962   6.310
11262SOL     OW35559   9.011   1.951  13.335
11262SOL    HW135560   8.936   1.894  13.355
11262SOL    HW235561   8.977   2.011  13.268
11263SOL     OW35562   2.762   7.923   4.814
11263SOL    HW135563   2.843   7.873   4.804
11263SOL    HW235564   2.789   8.003   4.859
11264SOL     OW35565  13.399   0.240   1.272
11264SOL    HW135566  13.348   0.159   1.271
11264SOL    HW235567  13.480   0.217   1.316
11265SOL     OW35568  10.269   0.919   8.942
11265SOL    HW135569  10.364   0.905   8.938
11265SOL    HW235570  10.259   0.987   9.008
11266SOL     OW35571  10.984   5.156   6.674
11266SOL    HW135572  10.972   5.207   6.594
11266SOL    HW235573  10.947   5.070   6.653
11267SOL     OW35574  13.760   7.348   0.110
11267SOL    HW135575  13.715   7.373   0.190
11267SOL    HW235576  13.775   7.254   0.120
11268SOL     OW35577  12.804   7.047  12.186
11268SOL    HW135578  12.859   7.101  12.129
11268SOL    HW235579  12.814   6.958  12.151
11269SOL     OW35580  13.407   3.740   7.499
11269SOL    HW135581  13.418   3.790   7.580
11269SOL    HW235582  13.421   3.804   7.429
11270SOL     OW35583   6.459   5.645   7.028
11270SOL    HW135584   6.513   5.653   7.107
11270SOL    HW235585   6.506   5.583   6.973
11271SOL     OW35586   3.356  12.626  13.766
11271SOL    HW135587   3.362  12.715  13.800
11271SOL    HW235588   3.287  12.630  13.699
11272SOL     OW35589   3.813  14.770   1.607
11272SOL    HW135590   3.747  14.799   1.671
11272SOL    HW235591   3.761  14.731   1.536
11273SOL     OW35592   6.370   3.057   2.604
11273SOL    HW135593   6.439   2.992   2.595
11273SOL    HW235594   6.292   3.005   2.624
11274SOL     OW35595   3.195   2.055  11.570
11274SOL    HW135596   3.184   1.966  11.605
11274SOL    HW235597   3.289   2.066  11.561
11275SOL     OW35598   8.476   2.248  10.989
11275SOL    HW135599   8.456   2.179  10.926
11275SOL    HW235600   8.545   2.300  10.948
11276SOL     OW35601   9.603  10.485   8.904
11276SOL    HW135602   9.683  10.528   8.934
11276SOL    HW235603   9.540  10.557   8.892
11277SOL     OW35604  14.174   8.608  12.586
11277SOL    HW135605  14.097   8.585  12.535
11277SOL    HW235606  14.241   8.545  12.559
11278SOL     OW35607   4.938   1.324   5.840
11278SOL    HW135608   4.925   1.244   5.790
11278SOL    HW235609   4.922   1.395   5.777
11279SOL     OW35610  13.289   3.579   3.940
11279SOL    HW135611  13.323   3.666   3.962
11279SOL    HW235612  13.359   3.537   3.890
11280SOL     OW35613   9.740  11.289   7.160
11280SOL    HW135614   9.814  11.336   7.122
11280SOL    HW235615   9.781  11.221   7.215
11281SOL     OW35616   4.679   5.075   1.469
11281SOL    HW135617   4.605   5.043   1.417
11281SOL    HW235618   4.642   5.090   1.556
11282SOL     OW35619   4.204   3.408  14.345
11282SOL    HW135620   4.289   3.372  14.321
11282SOL    HW235621   4.221   3.460  14.423
11283SOL     OW35622  11.172   2.712   0.141
11283SOL    HW135623  11.143   2.672   0.223
11283SOL    HW235624  11.111   2.784   0.126
11284SOL     OW35625   0.675   4.402  14.555
11284SOL    HW135626   0.757   4.445  14.531
11284SOL    HW235627   0.686   4.312  14.525
11285SOL     OW35628   4.853  10.600   5.947
11285SOL    HW135629   4.845  10.693   5.968
11285SOL    HW235630   4.781  10.582   5.887
11286SOL     OW35631   2.892   5.220   4.092
11286SOL    HW135632   2.943   5.287   4.048
11286SOL    HW235633   2.939   5.203   4.174
11287SOL     OW35634   9.469  14.629   4.249
11287SOL    HW135635   9.473  14.695   4.318
11287SOL    HW235636   9.557  14.630   4.211
11288SOL     OW35637   2.927   9.259   8.389
11288SOL    HW135638   2.932   9.171   8.426
11288SOL    HW235639   2.935   9.247   8.295
11289SOL     OW35640  13.987   6.554   5.067
11289SOL    HW135641  13.969   6.619   5.136
11289SOL    HW235642  13.930   6.579   4.995
11290SOL     OW35643   8.267   5.022   9.513
11290SOL    HW135644   8.310   5.021   9.598
11290SOL    HW235645   8.196   5.086   9.522
11291SOL     OW35646   3.986  14.772   8.235
11291SOL    HW135647   4.031  14.717   8.300
11291SOL    HW235648   4.053  14.835   8.207
11292SOL     OW35649   3.274   3.917   2.671
11292SOL    HW135650   3.360   3.931   2.630
11292SOL    HW235651   3.244   4.004   2.694
11293SOL     OW35652   6.286   9.554  13.095
11293SOL    HW135653   6.215   9.580  13.037
11293SOL    HW235654   6.247   9.556  13.183
11294SOL     OW35655   3.195   1.316   2.002
11294SOL    HW135656   3.280   1.279   1.980
11294SOL    HW235657   3.168   1.363   1.923
11295SOL     OW35658   3.435  12.891   4.524
11295SOL    HW135659   3.434  12.833   4.448
11295SOL    HW235660   3.507  12.856   4.578
11296SOL     OW35661  14.647   1.005   8.718
11296SOL    HW135662  14.691   0.942   8.774
11296SOL    HW235663  14.575   0.956   8.679
11297SOL     OW35664  12.356   2.080   4.628
11297SOL    HW135665  12.347   1.987   4.607
11297SOL    HW235666  12.273   2.118   4.600
11298SOL     OW35667   9.081   5.045   7.948
11298SOL    HW135668   8.990   5.034   7.922
11298SOL    HW235669   9.131   5.031   7.868
11299SOL     OW35670   3.843   3.909   1.308
11299SOL    HW135671   3.780   3.852   1.263
11299SOL    HW235672   3.891   3.952   1.237
11300SOL     OW35673  10.578  13.344   6.830
11300SOL    HW135674  10.534  13.261   6.811
11300SOL    HW235675  10.664  13.318   6.864
11301SOL     OW35676   4.433   7.825   7.953
11301SOL    HW135677   4.480   7.903   7.984
11301SOL    HW235678   4.341   7.851   7.952
11302SOL     OW35679  14.871   4.509  10.748
11302SOL    HW135680  14.789   4.475  10.785
11302SOL    HW235681  14.851   4.598  10.721
11303SOL     OW35682   8.292  11.115  12.693
11303SOL    HW135683   8.211  11.145  12.734
11303SOL    HW235684   8.266  11.042  12.638
11304SOL     OW35685  14.337   6.044  13.577
11304SOL    HW135686  14.273   6.096  13.528
11304SOL    HW235687  14.422   6.078  13.549
11305SOL     OW35688  14.687   2.223   9.577
11305SOL    HW135689  14.642   2.210   9.660
11305SOL    HW235690  14.694   2.136   9.539
11306SOL     OW35691   6.656   8.222   6.989
11306SOL    HW135692   6.702   8.198   7.070
11306SOL    HW235693   6.576   8.266   7.020
11307SOL     OW35694  12.641   7.197   9.068
11307SOL    HW135695  12.676   7.166   9.152
11307SOL    HW235696  12.552   7.163   9.065
11308SOL     OW35697   2.532  10.430   9.258
11308SOL    HW135698   2.621  10.416   9.289
11308SOL    HW235699   2.477  10.379   9.318
11309SOL     OW35700   3.519  10.789   0.289
11309SOL    HW135701   3.448  10.763   0.231
11309SOL    HW235702   3.591  10.813   0.230
11310SOL     OW35703   6.516   8.218   5.674
11310SOL    HW135704   6.571   8.141   5.688
11310SOL    HW235705   6.472   8.232   5.757
11311SOL     OW35706   5.111  12.974   1.995
11311SOL    HW135707   5.196  13.019   1.997
11311SOL    HW235708   5.133  12.885   1.969
11312SOL     OW35709  10.476  12.911   6.338
11312SOL    HW135710  10.538  12.894   6.266
11312SOL    HW235711  10.526  12.891   6.417
11313SOL     OW35712   6.405   4.118   3.679
11313SOL    HW135713   6.437   4.136   3.590
11313SOL    HW235714   6.310   4.113   3.669
11314SOL     OW35715   0.958   8.713   8.488
11314SOL    HW135716   1.033   8.662   8.458
11314SOL    HW235717   0.989   8.757   8.568
11315SOL     OW35718   2.580   6.083   4.206
11315SOL    HW135719   2.665   6.112   4.172
11315SOL    HW235720   2.517   6.141   4.163
11316SOL     OW35721  14.677  10.586   3.211
11316SOL    HW135722  14.729  10.625   3.281
11316SOL    HW235723  14.734  10.518   3.173
11317SOL     OW35724  14.081   7.783  11.924
11317SOL    HW135725  14.086   7.714  11.990
11317SOL    HW235726  14.115   7.861  11.968
11318SOL     OW35727   0.309   8.855   3.862
11318SOL    HW135728   0.350   8.872   3.947
11318SOL    HW235729   0.237   8.918   3.858
11319SOL     OW35730   9.619  10.564  11.991
11319SOL    HW135731   9.697  10.570  12.046
11319SOL    HW235732   9.595  10.655  11.972
11320SOL     OW35733   1.181  12.288   2.333
11320SOL    HW135734   1.262  12.238   2.345
11320SOL    HW235735   1.153  12.309   2.422
11321SOL     OW35736   2.083  10.360  14.059
11321SOL    HW135737   2.167  10.335  14.096
11321SOL    HW235738   2.073  10.453  14.081
11322SOL     OW35739   7.522   0.710   5.074
11322SOL    HW135740   7.454   0.690   5.009
11322SOL    HW235741   7.602   0.672   5.037
11323SOL     OW35742  12.599   8.870   5.253
11323SOL    HW135743  12.519   8.828   5.285
11323SOL    HW235744  12.602   8.954   5.298
11324SOL     OW35745   4.885  14.755   4.049
11324SOL    HW135746   4.894  14.661   4.035
11324SOL    HW235747   4.885  14.792   3.961
11325SOL     OW35748   4.220   0.072  11.170
11325SOL    HW135749   4.155   0.142  11.167
11325SOL    HW235750   4.203   0.027  11.253
11326SOL     OW35751   4.989  14.565   9.002
11326SOL    HW135752   5.078  14.533   8.992
11326SOL    HW235753   4.980  14.633   8.935
11327SOL     OW35754  13.087   1.193   8.801
11327SOL    HW135755  13.033   1.141   8.742
11327SOL    HW235756  13.025   1.239   8.857
11328SOL     OW35757   5.957  10.470   5.615
11328SOL    HW135758   5.985  10.506   5.699
11328SOL    HW235759   5.979  10.537   5.551
11329SOL     OW35760   9.437   7.133   7.558
11329SOL    HW135761   9.439   7.038   7.571
11329SOL    HW235762   9.521   7.154   7.518
11330SOL     OW35763   5.529  14.204   9.232
11330SOL    HW135764   5.613  14.171   9.202
11330SOL    HW235765   5.517  14.286   9.184
11331SOL     OW35766  13.413   4.498   4.311
11331SOL    HW135767  13.493   4.551   4.303
11331SOL    HW235768  13.401   4.459   4.225
11332SOL     OW35769   7.553   4.403   0.942
11332SOL    HW135770   7.564   4.476   0.881
11332SOL    HW235771   7.629   4.346   0.925
11333SOL     OW35772   6.989  12.381   2.576
11333SOL    HW135773   7.018  12.461   2.619
11333SOL    HW235774   6.917  12.409   2.519
11334SOL     OW35775   9.051   6.441   6.220
11334SOL    HW135776   8.976   6.408   6.171
11334SOL    HW235777   9.039   6.408   6.309
11335SOL     OW35778   1.055   9.925  12.427
11335SOL    HW135779   1.075  10.017  12.409
11335SOL    HW235780   1.118   9.901  12.495
11336SOL     OW35781  12.475   9.733   2.790
11336SOL    HW135782  12.539   9.698   2.728
11336SOL    HW235783  12.474   9.670   2.862
11337SOL     OW35784   8.960   4.507   0.200
11337SOL    HW135785   8.985   4.465   0.283
11337SOL    HW235786   8.868   4.481   0.187
11338SOL     OW35787  12.313   0.864   0.154
11338SOL    HW135788  12.366   0.937   0.121
11338SOL    HW235789  12.223   0.897   0.152
11339SOL     OW35790   8.031  11.644   3.109
11339SOL    HW135791   7.973  11.622   3.036
11339SOL    HW235792   8.079  11.563   3.127
11340SOL     OW35793  10.034   0.328   0.597
11340SOL    HW135794   9.966   0.281   0.645
11340SOL    HW235795  10.025   0.419   0.625
11341SOL     OW35796   3.504   3.721   3.421
11341SOL    HW135797   3.577   3.762   3.467
11341SOL    HW235798   3.431   3.725   3.483
11342SOL     OW35799   4.764  10.600   4.387
11342SOL    HW135800   4.750  10.643   4.471
11342SOL    HW235801   4.692  10.537   4.380
11343SOL     OW35802   3.463   0.427  13.061
11343SOL    HW135803   3.501   0.371  13.129
11343SOL    HW235804   3.375   0.393  13.049
11344SOL     OW35805   3.943   9.348   9.301
11344SOL    HW135806   4.000   9.378   9.372
11344SOL    HW235807   3.979   9.391   9.223
11345SOL     OW35808  11.786  11.015  14.688
11345SOL    HW135809  11.820  10.974  14.609
11345SOL    HW235810  11.863  11.037  14.740
11346SOL     OW35811   6.421  11.957   1.382
11346SOL    HW135812   6.420  11.871   1.339
11346SOL    HW235813   6.507  11.962   1.424
11347SOL     OW35814  13.017   2.534  12.479
11347SOL    HW135815  13.093   2.484  12.451
11347SOL    HW235816  12.965   2.545  12.400
11348SOL     OW35817   2.399  10.849   3.648
11348SOL    HW135818   2.397  10.867   3.554
11348SOL    HW235819   2.474  10.900   3.680
11349SOL     OW35820   6.194   6.046   1.879
11349SOL    HW135821   6.165   6.094   1.802
11349SOL    HW235822   6.126   5.980   1.894
11350SOL     OW35823   4.065   6.945   5.253
11350SOL    HW135824   4.047   7.038   5.271
11350SOL    HW235825   3.978   6.907   5.240
11351SOL     OW35826   9.582  10.537   3.053
11351SOL    HW135827   9.643  10.611   3.058
11351SOL    HW235828   9.616  10.483   2.981
11352SOL     OW35829   7.492  12.301  11.997
11352SOL    HW135830   7.421  12.285  12.059
11352SOL    HW235831   7.509  12.395  12.005
11353SOL     OW35832   9.983  11.667   9.270
11353SOL    HW135833   9.947  11.750   9.302
11353SOL    HW235834   9.969  11.670   9.175
11354SOL     OW35835   5.605  11.715   1.587
11354SOL    HW135836   5.600  11.739   1.495
11354SOL    HW235837   5.674  11.771   1.623
11355SOL     OW35838   0.246  14.093   0.443
11355SOL    HW135839   0.296  14.089   0.525
11355SOL    HW235840   0.309  14.066   0.376
11356SOL     OW35841  10.627  12.020   3.861
11356SOL    HW135842  10.540  11.980   3.858
11356SOL    HW235843  10.683  11.955   3.903
11357SOL     OW35844   6.552   8.671   9.206
11357SOL    HW135845   6.583   8.742   9.262
11357SOL    HW235846   6.463   8.653   9.237
11358SOL     OW35847   2.218   8.206  14.870
11358SOL    HW135848   2.280   8.214  14.797
11358SOL    HW235849   2.149   8.149  14.836
11359SOL     OW35850   1.488  11.765   8.861
11359SOL    HW135851   1.582  11.751   8.848
11359SOL    HW235852   1.481  11.840   8.920
11360SOL     OW35853  13.236   8.494  12.149
11360SOL    HW135854  13.281   8.549  12.085
11360SOL    HW235855  13.216   8.553  12.222
11361SOL     OW35856   0.453   1.241  13.438
11361SOL    HW135857   0.499   1.165  13.476
11361SOL    HW235858   0.375   1.251  13.492
11362SOL     OW35859   6.138   7.937  10.207
11362SOL    HW135860   6.156   8.026  10.176
11362SOL    HW235861   6.042   7.931  10.210
11363SOL     OW35862  10.182  10.745   0.518
11363SOL    HW135863  10.195  10.773   0.427
11363SOL    HW235864  10.267  10.708   0.544
11364SOL     OW35865  11.247   9.722   6.000
11364SOL    HW135866  11.302   9.768   5.937
11364SOL    HW235867  11.199   9.791   6.045
11365SOL     OW35868   7.720  14.104   1.249
11365SOL    HW135869   7.708  14.150   1.166
11365SOL    HW235870   7.664  14.026   1.241
11366SOL     OW35871  11.566   6.563   2.299
11366SOL    HW135872  11.621   6.611   2.238
11366SOL    HW235873  11.622   6.492   2.332
11367SOL     OW35874   7.316  14.448  11.471
11367SOL    HW135875   7.305  14.376  11.534
11367SOL    HW235876   7.410  14.462  11.467
11368SOL     OW35877  13.989   6.185   6.468
11368SOL    HW135878  13.987   6.093   6.495
11368SOL    HW235879  13.905   6.199   6.424
11369SOL     OW35880   9.972   1.762   1.411
11369SOL    HW135881   9.945   1.681   1.366
11369SOL    HW235882   9.992   1.733   1.501
11370SOL     OW35883  12.641   4.590   1.649
11370SOL    HW135884  12.630   4.536   1.571
11370SOL    HW235885  12.732   4.577   1.675
11371SOL     OW35886   5.887  10.470   3.619
11371SOL    HW135887   5.907  10.563   3.605
11371SOL    HW235888   5.813  10.452   3.562
11372SOL     OW35889  10.960   7.773  12.604
11372SOL    HW135890  10.887   7.795  12.546
11372SOL    HW235891  10.967   7.849  12.662
11373SOL     OW35892   7.300   0.936   4.482
11373SOL    HW135893   7.347   0.924   4.564
11373SOL    HW235894   7.298   1.031   4.470
11374SOL     OW35895  14.851   4.268   3.153
11374SOL    HW135896  14.864   4.177   3.126
11374SOL    HW235897  14.756   4.276   3.165
11375SOL     OW35898   7.080   9.997   9.464
11375SOL    HW135899   7.118  10.045   9.537
11375SOL    HW235900   7.100   9.905   9.483
11376SOL     OW35901   4.295  13.903   1.212
11376SOL    HW135902   4.304  13.985   1.261
11376SOL    HW235903   4.359  13.844   1.253
11377SOL     OW35904   7.203  11.962   1.267
11377SOL    HW135905   7.249  11.880   1.287
11377SOL    HW235906   7.115  11.935   1.243
11378SOL     OW35907  11.201   3.440   5.556
11378SOL    HW135908  11.109   3.423   5.534
11378SOL    HW235909  11.203   3.443   5.651
11379SOL     OW35910  14.776   5.945   0.638
11379SOL    HW135911  14.731   5.889   0.575
11379SOL    HW235912  14.710   5.965   0.704
11380SOL     OW35913  10.135  12.145  11.475
11380SOL    HW135914  10.077  12.069  11.471
11380SOL    HW235915  10.161  12.150  11.567
11381SOL     OW35916  14.626  12.716   7.642
11381SOL    HW135917  14.653  12.652   7.576
11381SOL    HW235918  14.704  12.770   7.657
11382SOL     OW35919  14.092   4.956   2.941
11382SOL    HW135920  14.106   4.950   3.036
11382SOL    HW235921  14.052   5.042   2.928
11383SOL     OW35922   9.354  14.147  14.230
11383SOL    HW135923   9.424  14.212  14.227
11383SOL    HW235924   9.398  14.063  14.216
11384SOL     OW35925   0.223  14.253   2.804
11384SOL    HW135926   0.218  14.316   2.733
11384SOL    HW235927   0.176  14.294   2.876
11385SOL     OW35928   3.654   0.168   3.714
11385SOL    HW135929   3.704   0.236   3.758
11385SOL    HW235930   3.566   0.205   3.706
11386SOL     OW35931   6.190  13.325   8.803
11386SOL    HW135932   6.117  13.287   8.852
11386SOL    HW235933   6.160  13.412   8.779
11387SOL     OW35934   4.391   4.342  13.178
11387SOL    HW135935   4.420   4.409  13.116
11387SOL    HW235936   4.421   4.372  13.263
11388SOL     OW35937  12.082  13.001  10.647
11388SOL    HW135938  12.130  12.960  10.575
11388SOL    HW235939  12.056  12.927  10.703
11389SOL     OW35940   2.307   7.974   0.305
11389SOL    HW135941   2.342   8.060   0.281
11389SOL    HW235942   2.305   7.975   0.401
11390SOL     OW35943   3.169   7.872   6.990
11390SOL    HW135944   3.081   7.887   6.957
11390SOL    HW235945   3.160   7.798   7.050
11391SOL     OW35946  12.763   8.654   4.069
11391SOL    HW135947  12.766   8.732   4.124
11391SOL    HW235948  12.850   8.649   4.029
11392SOL     OW35949   0.110   4.172   6.707
11392SOL    HW135950   0.035   4.122   6.676
11392SOL    HW235951   0.171   4.106   6.739
11393SOL     OW35952   8.994  10.368   0.959
11393SOL    HW135953   9.082  10.364   0.997
11393SOL    HW235954   9.009  10.381   0.865
11394SOL     OW35955  14.463   5.996   8.531
11394SOL    HW135956  14.506   6.079   8.556
11394SOL    HW235957  14.510   5.968   8.452
11395SOL     OW35958  12.602   5.943   4.262
11395SOL    HW135959  12.553   5.878   4.313
11395SOL    HW235960  12.691   5.910   4.261
11396SOL     OW35961   2.531   0.120   3.855
11396SOL    HW135962   2.562   0.140   3.767
11396SOL    HW235963   2.608   0.128   3.911
11397SOL     OW35964   5.650  13.706   8.692
11397SOL    HW135965   5.724  13.696   8.632
11397SOL    HW235966   5.687  13.689   8.778
11398SOL     OW35967   4.739   2.536   9.258
11398SOL    HW135968   4.745   2.631   9.255
11398SOL    HW235969   4.756   2.507   9.168
11399SOL     OW35970   8.818  10.527  10.301
11399SOL    HW135971   8.724  10.537  10.312
11399SOL    HW235972   8.829  10.439  10.266
11400SOL     OW35973   6.302   7.471   8.762
11400SOL    HW135974   6.350   7.397   8.800
11400SOL    HW235975   6.232   7.430   8.710
11401SOL     OW35976  13.446   2.551   6.647
11401SOL    HW135977  13.468   2.578   6.558
11401SOL    HW235978  13.517   2.585   6.701
11402SOL     OW35979   7.090  10.395   8.957
11402SOL    HW135980   7.134  10.428   9.036
11402SOL    HW235981   6.997  10.408   8.975
11403SOL     OW35982   6.940   0.879   5.754
11403SOL    HW135983   6.852   0.916   5.761
11403SOL    HW235984   6.990   0.924   5.822
11404SOL     OW35985  14.016   5.336   3.322
11404SOL    HW135986  14.110   5.327   3.305
11404SOL    HW235987  13.989   5.248   3.349
11405SOL     OW35988   6.270   3.165   0.952
11405SOL    HW135989   6.309   3.146   0.867
11405SOL    HW235990   6.300   3.093   1.008
11406SOL     OW35991   1.024   1.749   3.643
11406SOL    HW135992   0.945   1.719   3.598
11406SOL    HW235993   1.092   1.686   3.618
11407SOL     OW35994   3.088  10.763   9.551
11407SOL    HW135995   3.181  10.783   9.537
11407SOL    HW235996   3.082  10.739   9.644
11408SOL     OW35997   6.351  13.115  11.813
11408SOL    HW135998   6.373  13.124  11.721
11408SOL    HW235999   6.322  13.202  11.840
11409SOL     OW36000   4.950  12.195  13.869
11409SOL    HW136001   4.977  12.212  13.779
11409SOL    HW236002   5.016  12.133  13.902
11410SOL     OW36003   9.500   1.574  14.627
11410SOL    HW136004   9.573   1.627  14.659
11410SOL    HW236005   9.424   1.608  14.674
11411SOL     OW36006  11.420   8.897   3.002
11411SOL    HW136007  11.356   8.967   3.017
11411SOL    HW236008  11.468   8.925   2.925
11412SOL     OW36009   5.653   3.610   4.926
11412SOL    HW136010   5.625   3.614   4.834
11412SOL    HW236011   5.645   3.518   4.950
11413SOL     OW36012   4.822  14.142  13.421
11413SOL    HW136013   4.899  14.089  13.443
11413SOL    HW236014   4.849  14.232  13.437
11414SOL     OW36015   3.030   9.334   5.806
11414SOL    HW136016   2.987   9.273   5.866
11414SOL    HW236017   3.102   9.284   5.769
11415SOL     OW36018   4.595   4.879   4.378
11415SOL    HW136019   4.598   4.859   4.472
11415SOL    HW236020   4.582   4.793   4.336
11416SOL     OW36021   9.926  11.678   1.533
11416SOL    HW136022   9.986  11.653   1.603
11416SOL    HW236023   9.848  11.709   1.579
11417SOL     OW36024  11.826  10.170   2.335
11417SOL    HW136025  11.915  10.151   2.366
11417SOL    HW236026  11.779  10.198   2.413
11418SOL     OW36027  12.290   5.438   3.185
11418SOL    HW136028  12.219   5.479   3.135
11418SOL    HW236029  12.280   5.344   3.169
11419SOL     OW36030   0.028   9.944   9.792
11419SOL    HW136031   0.068   9.975   9.711
11419SOL    HW236032   0.051   9.852   9.797
11420SOL     OW36033   5.916   7.456   4.615
11420SOL    HW136034   5.999   7.497   4.591
11420SOL    HW236035   5.885   7.506   4.690
11421SOL     OW36036   3.027  13.334   0.536
11421SOL    HW136037   3.111  13.342   0.581
11421SOL    HW236038   2.995  13.247   0.562
11422SOL     OW36039   2.290   0.653   9.204
11422SOL    HW136040   2.366   0.696   9.244
11422SOL    HW236041   2.327   0.591   9.141
11423SOL     OW36042  11.254   7.043  11.396
11423SOL    HW136043  11.331   7.016  11.347
11423SOL    HW236044  11.260   7.138  11.400
11424SOL     OW36045  10.545   3.977   6.153
11424SOL    HW136046  10.496   3.924   6.217
11424SOL    HW236047  10.508   4.064   6.160
11425SOL     OW36048   6.237   0.525   8.531
11425SOL    HW136049   6.265   0.577   8.607
11425SOL    HW236050   6.238   0.435   8.562
11426SOL     OW36051   7.909  14.064   1.711
11426SOL    HW136052   7.973  14.130   1.683
11426SOL    HW236053   7.907  14.072   1.807
11427SOL     OW36054  10.798   4.142   8.376
11427SOL    HW136055  10.761   4.064   8.416
11427SOL    HW236056  10.807   4.205   8.448
11428SOL     OW36057   4.737   7.329   1.793
11428SOL    HW136058   4.695   7.309   1.709
11428SOL    HW236059   4.703   7.416   1.816
11429SOL     OW36060   3.127  11.476   7.595
11429SOL    HW136061   3.127  11.387   7.561
11429SOL    HW236062   3.184  11.524   7.536
11430SOL     OW36063   9.476   8.706  10.756
11430SOL    HW136064   9.501   8.659  10.676
11430SOL    HW236065   9.411   8.770  10.727
11431SOL     OW36066  12.708   0.432   5.116
11431SOL    HW136067  12.655   0.410   5.039
11431SOL    HW236068  12.702   0.528   5.122
11432SOL     OW36069   6.264   3.536  12.768
11432SOL    HW136070   6.329   3.582  12.820
11432SOL    HW236071   6.272   3.444  12.795
11433SOL     OW36072  14.461  12.354  11.332
11433SOL    HW136073  14.507  12.372  11.250
11433SOL    HW236074  14.507  12.279  11.369
11434SOL     OW36075   5.274  13.919   1.885
11434SOL    HW136076   5.307  13.835   1.919
11434SOL    HW236077   5.352  13.965   1.855
11435SOL     OW36078   5.687   3.575   0.167
11435SOL    HW136079   5.756   3.555   0.230
11435SOL    HW236080   5.721   3.544   0.083
11436SOL     OW36081  14.632   9.323  10.310
11436SOL    HW136082  14.685   9.249  10.341
11436SOL    HW236083  14.657   9.396  10.367
11437SOL     OW36084   0.200  13.495  11.980
11437SOL    HW136085   0.214  13.580  12.022
11437SOL    HW236086   0.105  13.484  11.979
11438SOL     OW36087  11.560   8.276  10.303
11438SOL    HW136088  11.641   8.226  10.297
11438SOL    HW236089  11.491   8.213  10.283
11439SOL     OW36090   6.828  14.216   2.404
11439SOL    HW136091   6.856  14.283   2.342
11439SOL    HW236092   6.869  14.136   2.373
11440SOL     OW36093   6.050   2.176   8.729
11440SOL    HW136094   5.994   2.143   8.658
11440SOL    HW236095   5.989   2.193   8.801
11441SOL     OW36096   4.146   5.847   4.372
11441SOL    HW136097   4.231   5.804   4.363
11441SOL    HW236098   4.116   5.861   4.282
11442SOL     OW36099   4.082  12.194   5.453
11442SOL    HW136100   4.094  12.101   5.471
11442SOL    HW236101   3.996  12.215   5.489
11443SOL     OW36102   3.907   4.976   3.882
11443SOL    HW136103   3.993   4.985   3.842
11443SOL    HW236104   3.922   4.925   3.962
11444SOL     OW36105   2.256  13.412   7.044
11444SOL    HW136106   2.329  13.353   7.061
11444SOL    HW236107   2.292  13.479   6.985
11445SOL     OW36108   2.836  14.230  14.710
11445SOL    HW136109   2.745  14.219  14.738
11445SOL    HW236110   2.832  14.235  14.615
11446SOL     OW36111  10.755  11.138  13.053
11446SOL    HW136112  10.747  11.153  12.959
11446SOL    HW236113  10.671  11.167  13.089
11447SOL     OW36114  11.196   9.846   7.543
11447SOL    HW136115  11.115   9.820   7.497
11447SOL    HW236116  11.175   9.930   7.582
11448SOL     OW36117   4.170   8.841   7.363
11448SOL    HW136118   4.250   8.793   7.386
11448SOL    HW236119   4.100   8.777   7.375
11449SOL     OW36120   2.411   7.261   4.854
11449SOL    HW136121   2.491   7.303   4.824
11449SOL    HW236122   2.426   7.246   4.948
11450SOL     OW36123  13.725  12.076   4.023
11450SOL    HW136124  13.762  12.043   4.105
11450SOL    HW236125  13.734  12.003   3.962
11451SOL     OW36126   1.927   0.517   4.469
11451SOL    HW136127   1.919   0.557   4.556
11451SOL    HW236128   1.960   0.428   4.487
11452SOL     OW36129   5.489   8.809   5.619
11452SOL    HW136130   5.436   8.845   5.548
11452SOL    HW236131   5.446   8.727   5.642
11453SOL     OW36132   3.075  14.253  10.669
11453SOL    HW136133   3.148  14.254  10.608
11453SOL    HW236134   2.997  14.258  10.613
11454SOL     OW36135  14.367   4.866   0.070
11454SOL    HW136136  14.357   4.957   0.045
11454SOL    HW236137  14.292   4.847   0.126
11455SOL     OW36138   8.469   3.014   1.685
11455SOL    HW136139   8.504   2.927   1.706
11455SOL    HW236140   8.473   3.062   1.767
11456SOL     OW36141  11.435   8.904  14.454
11456SOL    HW136142  11.362   8.960  14.483
11456SOL    HW236143  11.421   8.821  14.500
11457SOL     OW36144   5.101   6.790  11.439
11457SOL    HW136145   5.095   6.783  11.535
11457SOL    HW236146   5.028   6.848  11.415
11458SOL     OW36147   1.312  13.950   3.270
11458SOL    HW136148   1.381  14.004   3.233
11458SOL    HW236149   1.260  13.922   3.195
11459SOL     OW36150   5.103   0.466  13.343
11459SOL    HW136151   5.086   0.386  13.392
11459SOL    HW236152   5.071   0.537  13.399
11460SOL     OW36153  12.681   1.219   1.612
11460SOL    HW136154  12.643   1.306   1.602
11460SOL    HW236155  12.683   1.205   1.707
11461SOL     OW36156  10.028   5.335  12.958
11461SOL    HW136157   9.944   5.299  12.930
11461SOL    HW236158  10.010   5.374  13.044
11462SOL     OW36159  11.213   9.776   0.666
11462SOL    HW136160  11.166   9.806   0.744
11462SOL    HW236161  11.255   9.855   0.631
11463SOL     OW36162   2.270  13.703  13.985
11463SOL    HW136163   2.231  13.711  14.072
11463SOL    HW236164   2.324  13.625  13.990
11464SOL     OW36165   6.606  11.651   7.678
11464SOL    HW136166   6.652  11.568   7.662
11464SOL    HW236167   6.525  11.625   7.722
11465SOL     OW36168  10.635   7.882   3.785
11465SOL    HW136169  10.587   7.804   3.814
11465SOL    HW236170  10.714   7.883   3.840
11466SOL     OW36171  10.069  13.344  13.928
11466SOL    HW136172   9.989  13.376  13.968
11466SOL    HW236173  10.126  13.322  14.002
11467SOL     OW36174   9.411   6.184   1.513
11467SOL    HW136175   9.434   6.242   1.441
11467SOL    HW236176   9.480   6.196   1.577
11468SOL     OW36177  13.220  11.106   8.790
11468SOL    HW136178  13.255  11.187   8.827
11468SOL    HW236179  13.235  11.114   8.696
11469SOL     OW36180   0.179  13.494   7.809
11469SOL    HW136181   0.102  13.463   7.856
11469SOL    HW236182   0.224  13.550   7.872
11470SOL     OW36183   2.079   7.354   3.131
11470SOL    HW136184   1.992   7.322   3.155
11470SOL    HW236185   2.128   7.276   3.108
11471SOL     OW36186   1.317   4.797   7.934
11471SOL    HW136187   1.240   4.836   7.894
11471SOL    HW236188   1.377   4.870   7.948
11472SOL     OW36189   7.651  11.223   0.646
11472SOL    HW136190   7.642  11.219   0.551
11472SOL    HW236191   7.654  11.131   0.674
11473SOL     OW36192   8.641   5.349  14.127
11473SOL    HW136193   8.614   5.402  14.051
11473SOL    HW236194   8.675   5.412  14.189
11474SOL     OW36195   7.999   6.437  14.240
11474SOL    HW136196   8.022   6.467  14.152
11474SOL    HW236197   8.016   6.513  14.296
11475SOL     OW36198   5.596  10.741   4.694
11475SOL    HW136199   5.526  10.807   4.699
11475SOL    HW236200   5.655  10.774   4.626
11476SOL     OW36201   5.817  13.540   9.661
11476SOL    HW136202   5.756  13.523   9.733
11476SOL    HW236203   5.873  13.610   9.693
11477SOL     OW36204   1.811  13.958  10.337
11477SOL    HW136205   1.729  13.960  10.286
11477SOL    HW236206   1.874  13.917  10.278
11478SOL     OW36207   6.813   5.290  14.179
11478SOL    HW136208   6.904   5.319  14.175
11478SOL    HW236209   6.812   5.222  14.247
11479SOL     OW36210  13.907  12.066   8.757
11479SOL    HW136211  13.919  12.100   8.669
11479SOL    HW236212  13.990  12.023   8.778
11480SOL     OW36213   5.821   6.058  13.548
11480SOL    HW136214   5.898   6.114  13.561
11480SOL    HW236215   5.747   6.112  13.575
11481SOL     OW36216   6.015   0.568   0.622
11481SOL    HW136217   5.978   0.543   0.707
11481SOL    HW236218   6.061   0.489   0.593
11482SOL     OW36219   5.173  10.390   4.990
11482SOL    HW136220   5.101  10.450   5.008
11482SOL    HW236221   5.131  10.306   4.976
11483SOL     OW36222   9.386   6.095   5.183
11483SOL    HW136223   9.319   6.094   5.251
11483SOL    HW236224   9.342   6.131   5.106
11484SOL     OW36225   2.859   3.926  10.815
11484SOL    HW136226   2.869   3.832  10.826
11484SOL    HW236227   2.771   3.945  10.847
11485SOL     OW36228   2.784  11.374   1.813
11485SOL    HW136229   2.812  11.316   1.884
11485SOL    HW236230   2.772  11.459   1.855
11486SOL     OW36231   2.006  10.302   8.997
11486SOL    HW136232   2.095  10.338   8.997
11486SOL    HW236233   1.957  10.361   8.940
11487SOL     OW36234  14.291  12.161   6.071
11487SOL    HW136235  14.308  12.079   6.024
11487SOL    HW236236  14.314  12.142   6.162
11488SOL     OW36237   9.026   1.384  10.097
11488SOL    HW136238   9.089   1.385  10.024
11488SOL    HW236239   9.029   1.473  10.132
11489SOL     OW36240   2.872   8.125   5.831
11489SOL    HW136241   2.854   8.088   5.917
11489SOL    HW236242   2.964   8.103   5.814
11490SOL     OW36243   5.506  13.153   4.815
11490SOL    HW136244   5.502  13.244   4.845
11490SOL    HW236245   5.430  13.142   4.759
11491SOL     OW36246   3.463  10.666   7.627
11491SOL    HW136247   3.385  10.612   7.636
11491SOL    HW236248   3.466  10.717   7.708
11492SOL     OW36249  10.542   0.566   8.405
11492SOL    HW136250  10.496   0.595   8.326
11492SOL    HW236251  10.492   0.490   8.435
11493SOL     OW36252   8.977   6.266   3.000
11493SOL    HW136253   9.034   6.316   2.942
11493SOL    HW236254   9.032   6.244   3.075
11494SOL     OW36255   8.247   6.522  13.713
11494SOL    HW136256   8.288   6.493  13.794
11494SOL    HW236257   8.195   6.447  13.684
11495SOL     OW36258   8.585   2.431   0.001
11495SOL    HW136259   8.539   2.349  14.865
11495SOL    HW236260   8.598   2.470  14.796
11496SOL     OW36261   3.162   9.961  13.788
11496SOL    HW136262   3.225  10.027  13.759
11496SOL    HW236263   3.152   9.903  13.713
11497SOL     OW36264  14.676   4.594  12.266
11497SOL    HW136265  14.739   4.633  12.326
11497SOL    HW236266  14.591   4.628  12.295
11498SOL     OW36267   2.938  11.420   0.238
11498SOL    HW136268   3.027  11.450   0.222
11498SOL    HW236269   2.890  11.444   0.158
11499SOL     OW36270  10.097  14.219   0.050
11499SOL    HW136271  10.015  14.266   0.043
11499SOL    HW236272  10.117  14.190  14.843
11500SOL     OW36273   7.515  14.555   3.952
11500SOL    HW136274   7.530  14.461   3.942
11500SOL    HW236275   7.433  14.561   4.001
11501SOL     OW36276  11.303   7.997   3.910
11501SOL    HW136277  11.217   7.984   3.870
11501SOL    HW236278  11.305   8.090   3.932
11502SOL     OW36279   1.963   3.998  11.901
11502SOL    HW136280   1.988   4.032  11.987
11502SOL    HW236281   1.903   4.063  11.866
11503SOL     OW36282  13.362   6.103  13.853
11503SOL    HW136283  13.406   6.187  13.870
11503SOL    HW236284  13.397   6.074  13.769
11504SOL     OW36285  11.655  12.483   8.306
11504SOL    HW136286  11.637  12.569   8.270
11504SOL    HW236287  11.602  12.423   8.253
11505SOL     OW36288   3.902  13.662   5.697
11505SOL    HW136289   3.836  13.659   5.627
11505SOL    HW236290   3.865  13.610   5.768
11506SOL     OW36291  12.294  13.186   8.951
11506SOL    HW136292  12.259  13.148   8.870
11506SOL    HW236293  12.389  13.173   8.944
11507SOL     OW36294   4.898   3.064   6.069
11507SOL    HW136295   4.964   3.131   6.087
11507SOL    HW236296   4.816   3.100   6.103
11508SOL     OW36297   5.222   5.625  14.502
11508SOL    HW136298   5.228   5.556  14.568
11508SOL    HW236299   5.136   5.665  14.518
11509SOL     OW36300   9.370   3.729  12.588
11509SOL    HW136301   9.352   3.810  12.540
11509SOL    HW236302   9.331   3.660  12.535
11510SOL     OW36303  10.434   1.866  12.857
11510SOL    HW136304  10.435   1.801  12.927
11510SOL    HW236305  10.494   1.935  12.886
11511SOL     OW36306  13.299   9.442   9.564
11511SOL    HW136307  13.381   9.423   9.520
11511SOL    HW236308  13.254   9.357   9.569
11512SOL     OW36309  10.118   9.635  10.379
11512SOL    HW136310  10.148   9.556  10.425
11512SOL    HW236311  10.062   9.602  10.309
11513SOL     OW36312  12.086  14.703   7.644
11513SOL    HW136313  12.160  14.757   7.618
11513SOL    HW236314  12.010  14.745   7.605
11514SOL     OW36315  11.788  11.359   2.625
11514SOL    HW136316  11.859  11.402   2.576
11514SOL    HW236317  11.735  11.318   2.557
11515SOL     OW36318   2.807   8.324   4.962
11515SOL    HW136319   2.817   8.247   5.018
11515SOL    HW236320   2.894   8.363   4.958
11516SOL     OW36321   4.439   7.044   6.083
11516SOL    HW136322   4.360   7.089   6.054
11516SOL    HW236323   4.432   6.956   6.046
11517SOL     OW36324  10.069   9.973   2.014
11517SOL    HW136325  10.153   9.967   1.968
11517SOL    HW236326  10.093   9.978   2.107
11518SOL     OW36327  12.016  11.444   2.497
11518SOL    HW136328  12.107  11.449   2.470
11518SOL    HW236329  11.967  11.437   2.415
11519SOL     OW36330   5.793   3.973   3.459
11519SOL    HW136331   5.828   4.050   3.413
11519SOL    HW236332   5.708   3.957   3.418
11520SOL     OW36333   3.022   6.855   5.749
11520SOL    HW136334   3.108   6.814   5.743
11520SOL    HW236335   3.037   6.946   5.725
11521SOL     OW36336   5.151   5.331  11.767
11521SOL    HW136337   5.204   5.411  11.760
11521SOL    HW236338   5.111   5.320  11.681
11522SOL     OW36339  10.393   1.408   1.079
11522SOL    HW136340  10.315   1.352   1.083
11522SOL    HW236341  10.399   1.447   1.166
11523SOL     OW36342   1.778   0.294  14.466
11523SOL    HW136343   1.695   0.246  14.463
11523SOL    HW236344   1.779   0.345  14.385
11524SOL     OW36345   6.718  12.746   8.409
11524SOL    HW136346   6.749  12.698   8.333
11524SOL    HW236347   6.623  12.744   8.402
11525SOL     OW36348  14.697   8.050   6.336
11525SOL    HW136349  14.722   8.113   6.268
11525SOL    HW236350  14.780   8.011   6.365
11526SOL     OW36351   5.123  10.400   9.906
11526SOL    HW136352   5.205  10.407   9.859
11526SOL    HW236353   5.114  10.483   9.952
11527SOL     OW36354  14.724  10.529   6.103
11527SOL    HW136355  14.709  10.436   6.089
11527SOL    HW236356  14.814  10.544   6.072
11528SOL     OW36357   7.616   8.402   6.644
11528SOL    HW136358   7.526   8.385   6.672
11528SOL    HW236359   7.617   8.382   6.550
11529SOL     OW36360   1.840  10.383   1.306
11529SOL    HW136361   1.918  10.383   1.362
11529SOL    HW236362   1.872  10.351   1.221
11530SOL     OW36363   6.110   1.189   4.174
11530SOL    HW136364   6.139   1.262   4.229
11530SOL    HW236365   6.098   1.227   4.087
11531SOL     OW36366  13.555   9.362   8.523
11531SOL    HW136367  13.505   9.363   8.604
11531SOL    HW236368  13.547   9.451   8.489
11532SOL     OW36369   3.002  11.105  12.577
11532SOL    HW136370   3.047  11.180  12.617
11532SOL    HW236371   3.072  11.042  12.558
11533SOL     OW36372   7.494  11.378  10.086
11533SOL    HW136373   7.487  11.288  10.056
11533SOL    HW236374   7.436  11.383  10.161
11534SOL     OW36375   0.113   4.413  11.370
11534SOL    HW136376   0.114   4.465  11.450
11534SOL    HW236377   0.145   4.327  11.397
11535SOL     OW36378  12.249   8.156   2.681
11535SOL    HW136379  12.284   8.243   2.700
11535SOL    HW236380  12.175   8.147   2.740
11536SOL     OW36381  11.968  10.990  13.294
11536SOL    HW136382  11.937  11.046  13.223
11536SOL    HW236383  11.964  10.902  13.259
11537SOL     OW36384   9.321   8.969   3.106
11537SOL    HW136385   9.289   8.988   3.194
11537SOL    HW236386   9.246   8.984   3.049
11538SOL     OW36387   3.702  10.478   1.815
11538SOL    HW136388   3.616  10.436   1.823
11538SOL    HW236389   3.692  10.561   1.862
11539SOL     OW36390   7.440  14.654  13.058
11539SOL    HW136391   7.465  14.683  13.146
11539SOL    HW236392   7.467  14.726  13.001
11540SOL     OW36393  10.551   9.964  12.686
11540SOL    HW136394  10.588   9.927  12.606
11540SOL    HW236395  10.482   9.903  12.711
11541SOL     OW36396  11.591  10.190   7.594
11541SOL    HW136397  11.680  10.216   7.615
11541SOL    HW236398  11.570  10.120   7.656
11542SOL     OW36399   8.093   6.181   4.257
11542SOL    HW136400   8.026   6.126   4.299
11542SOL    HW236401   8.163   6.186   4.322
11543SOL     OW36402   1.268   9.649   6.329
11543SOL    HW136403   1.333   9.708   6.368
11543SOL    HW236404   1.294   9.562   6.358
11544SOL     OW36405   1.672  12.121   7.188
11544SOL    HW136406   1.739  12.053   7.183
11544SOL    HW236407   1.599  12.080   7.234
11545SOL     OW36408   2.489  12.585   7.555
11545SOL    HW136409   2.474  12.677   7.577
11545SOL    HW236410   2.416  12.539   7.596
11546SOL     OW36411  13.229   2.823  14.389
11546SOL    HW136412  13.166   2.895  14.397
11546SOL    HW236413  13.313   2.863  14.410
11547SOL     OW36414   1.529   6.413  13.300
11547SOL    HW136415   1.523   6.509  13.305
11547SOL    HW236416   1.622   6.395  13.289
11548SOL     OW36417  14.861   2.441   3.337
11548SOL    HW136418  14.850   2.536   3.326
11548SOL    HW236419  14.857   2.428   3.431
11549SOL     OW36420   6.229  13.883   8.837
11549SOL    HW136421   6.138  13.855   8.850
11549SOL    HW236422   6.229  13.974   8.867
11550SOL     OW36423  10.722  13.365  13.664
11550SOL    HW136424  10.759  13.440  13.618
11550SOL    HW236425  10.631  13.361  13.635
11551SOL     OW36426  12.210   0.327   6.268
11551SOL    HW136427  12.262   0.250   6.247
11551SOL    HW236428  12.239   0.393   6.205
11552SOL     OW36429   2.355   7.649   9.415
11552SOL    HW136430   2.343   7.563   9.376
11552SOL    HW236431   2.445   7.674   9.393
11553SOL     OW36432  12.463  14.091  10.787
11553SOL    HW136433  12.436  14.081  10.878
11553SOL    HW236434  12.557  14.074  10.788
11554SOL     OW36435   5.799  14.179   3.626
11554SOL    HW136436   5.714  14.188   3.583
11554SOL    HW236437   5.855  14.138   3.560
11555SOL     OW36438   7.019   8.776   9.485
11555SOL    HW136439   7.103   8.770   9.531
11555SOL    HW236440   6.966   8.705   9.523
11556SOL     OW36441   1.891  12.668   0.224
11556SOL    HW136442   1.840  12.590   0.205
11556SOL    HW236443   1.903  12.667   0.319
11557SOL     OW36444   6.829  13.634   4.544
11557SOL    HW136445   6.734  13.632   4.555
11557SOL    HW236446   6.852  13.544   4.521
11558SOL     OW36447  14.251   3.275   4.904
11558SOL    HW136448  14.246   3.198   4.848
11558SOL    HW236449  14.308   3.250   4.976
11559SOL     OW36450   0.528  10.745   1.881
11559SOL    HW136451   0.554  10.669   1.933
11559SOL    HW236452   0.608  10.770   1.835
11560SOL     OW36453  12.723   2.921  12.666
11560SOL    HW136454  12.669   2.988  12.708
11560SOL    HW236455  12.795   2.905  12.726
11561SOL     OW36456   7.057   9.571  11.320
11561SOL    HW136457   7.033   9.525  11.400
11561SOL    HW236458   7.095   9.504  11.264
11562SOL     OW36459  11.351  10.777  11.181
11562SOL    HW136460  11.355  10.865  11.143
11562SOL    HW236461  11.309  10.724  11.114
11563SOL     OW36462   2.213  12.518   1.611
11563SOL    HW136463   2.141  12.567   1.570
11563SOL    HW236464   2.200  12.428   1.582
11564SOL     OW36465  12.360   9.466   1.648
11564SOL    HW136466  12.445   9.445   1.609
11564SOL    HW236467  12.373   9.551   1.691
11565SOL     OW36468  13.135   2.808   3.234
11565SOL    HW136469  13.100   2.801   3.146
11565SOL    HW236470  13.127   2.720   3.271
11566SOL     OW36471  10.233  13.151   2.371
11566SOL    HW136472  10.274  13.076   2.414
11566SOL    HW236473  10.151  13.164   2.419
11567SOL     OW36474   9.921   1.366   2.558
11567SOL    HW136475   9.944   1.273   2.555
11567SOL    HW236476   9.844   1.370   2.614
11568SOL     OW36477   0.860   8.240   5.242
11568SOL    HW136478   0.816   8.277   5.318
11568SOL    HW236479   0.875   8.314   5.184
11569SOL     OW36480   2.256  10.954   6.146
11569SOL    HW136481   2.294  10.935   6.061
11569SOL    HW236482   2.169  10.913   6.144
11570SOL     OW36483  11.852   0.005  12.817
11570SOL    HW136484  11.896  14.856  12.737
11570SOL    HW236485  11.805  14.810  12.849
11571SOL     OW36486  13.785  11.135   4.120
11571SOL    HW136487  13.791  11.130   4.215
11571SOL    HW236488  13.695  11.108   4.100
11572SOL     OW36489   3.670   6.703   9.799
11572SOL    HW136490   3.667   6.721   9.705
11572SOL    HW236491   3.763   6.700   9.820
11573SOL     OW36492   5.314   8.484  13.915
11573SOL    HW136493   5.263   8.450  13.842
11573SOL    HW236494   5.316   8.414  13.979
11574SOL     OW36495   9.929  10.047   2.773
11574SOL    HW136496   9.902   9.983   2.839
11574SOL    HW236497   9.999  10.097   2.816
11575SOL     OW36498   6.234   8.020  13.257
11575SOL    HW136499   6.238   8.017  13.161
11575SOL    HW236500   6.147   7.987  13.279
11576SOL     OW36501   9.113   4.004  14.413
11576SOL    HW136502   9.032   3.960  14.386
11576SOL    HW236503   9.140   4.055  14.337
11577SOL     OW36504   8.440   8.011   3.843
11577SOL    HW136505   8.488   7.932   3.820
11577SOL    HW236506   8.490   8.051   3.914
11578SOL     OW36507   6.571   3.676  11.663
11578SOL    HW136508   6.518   3.755  11.653
11578SOL    HW236509   6.660   3.704  11.639
11579SOL     OW36510   1.030  10.137   5.604
11579SOL    HW136511   1.085  10.185   5.543
11579SOL    HW236512   1.077  10.055   5.620
11580SOL     OW36513   3.721   6.051  11.597
11580SOL    HW136514   3.717   5.959  11.569
11580SOL    HW236515   3.765   6.048  11.682
11581SOL     OW36516   8.980  11.582  12.342
11581SOL    HW136517   8.921  11.549  12.274
11581SOL    HW236518   8.923  11.598  12.417
11582SOL     OW36519   9.169  14.560   5.953
11582SOL    HW136520   9.089  14.612   5.948
11582SOL    HW236521   9.147  14.486   6.010
11583SOL     OW36522  10.311  14.637  13.683
11583SOL    HW136523  10.362  14.557  13.696
11583SOL    HW236524  10.313  14.652  13.588
11584SOL     OW36525  11.179  13.530   1.778
11584SOL    HW136526  11.122  13.492   1.845
11584SOL    HW236527  11.235  13.457   1.751
11585SOL     OW36528  10.408   4.455   1.379
11585SOL    HW136529  10.446   4.539   1.352
11585SOL    HW236530  10.377   4.470   1.469
11586SOL     OW36531   7.460   4.039  13.971
11586SOL    HW136532   7.424   4.014  14.056
11586SOL    HW236533   7.429   4.128  13.958
11587SOL     OW36534  12.570   4.474   0.310
11587SOL    HW136535  12.632   4.546   0.316
11587SOL    HW236536  12.515   4.496   0.234
11588SOL     OW36537   0.537   8.526   1.258
11588SOL    HW136538   0.501   8.530   1.347
11588SOL    HW236539   0.509   8.608   1.218
11589SOL     OW36540  13.938  14.134   2.448
11589SOL    HW136541  13.850  14.102   2.430
11589SOL    HW236542  13.926  14.225   2.476
11590SOL     OW36543   1.770   5.868  10.704
11590SOL    HW136544   1.804   5.898  10.788
11590SOL    HW236545   1.845   5.827  10.661
11591SOL     OW36546   1.095   4.699   8.555
11591SOL    HW136547   1.106   4.645   8.633
11591SOL    HW236548   1.029   4.764   8.581
11592SOL     OW36549  14.474   5.822   0.088
11592SOL    HW136550  14.536   5.750   0.073
11592SOL    HW236551  14.399   5.800   0.032
11593SOL     OW36552   2.375   3.868  14.401
11593SOL    HW136553   2.406   3.862  14.310
11593SOL    HW236554   2.439   3.924  14.444
11594SOL     OW36555   9.617   6.862   8.180
11594SOL    HW136556   9.596   6.947   8.140
11594SOL    HW236557   9.549   6.849   8.246
11595SOL     OW36558  12.856   4.686   7.613
11595SOL    HW136559  12.911   4.670   7.689
11595SOL    HW236560  12.873   4.777   7.590
11596SOL     OW36561   1.199  12.888   6.267
11596SOL    HW136562   1.260  12.956   6.237
11596SOL    HW236563   1.114  12.932   6.269
11597SOL     OW36564   7.273   9.820  11.100
11597SOL    HW136565   7.304   9.729  11.102
11597SOL    HW236566   7.227   9.832  11.183
11598SOL     OW36567   9.171  11.567  14.477
11598SOL    HW136568   9.086  11.554  14.520
11598SOL    HW236569   9.191  11.660  14.491
11599SOL     OW36570   8.510   0.298   4.428
11599SOL    HW136571   8.514   0.207   4.457
11599SOL    HW236572   8.493   0.348   4.508
11600SOL     OW36573   2.098  12.812   3.638
11600SOL    HW136574   2.073  12.820   3.730
11600SOL    HW236575   2.075  12.897   3.600
11601SOL     OW36576  12.875   3.095   7.274
11601SOL    HW136577  12.852   3.004   7.290
11601SOL    HW236578  12.965   3.103   7.305
11602SOL     OW36579   2.802   3.747   0.081
11602SOL    HW136580   2.871   3.690   0.046
11602SOL    HW236581   2.849   3.824   0.115
11603SOL     OW36582   9.264  11.292   9.421
11603SOL    HW136583   9.230  11.315   9.508
11603SOL    HW236584   9.225  11.357   9.362
11604SOL     OW36585  10.761   0.120  11.050
11604SOL    HW136586  10.843   0.071  11.054
11604SOL    HW236587  10.725   0.100  10.964
11605SOL     OW36588   2.044  10.579   2.435
11605SOL    HW136589   2.046  10.487   2.409
11605SOL    HW236590   2.088  10.581   2.520
11606SOL     OW36591   8.467   1.482   0.175
11606SOL    HW136592   8.537   1.435   0.220
11606SOL    HW236593   8.496   1.573   0.175
11607SOL     OW36594  10.651   4.405   2.026
11607SOL    HW136595  10.680   4.339   1.964
11607SOL    HW236596  10.579   4.363   2.073
11608SOL     OW36597   1.088   4.448   4.095
11608SOL    HW136598   1.070   4.354   4.090
11608SOL    HW236599   1.177   4.454   4.128
11609SOL     OW36600   0.198  12.061   7.069
11609SOL    HW136601   0.117  12.010   7.065
11609SOL    HW236602   0.262  12.000   7.105
11610SOL     OW36603   9.686   5.647   9.910
11610SOL    HW136604   9.646   5.610   9.831
11610SOL    HW236605   9.622   5.711   9.942
11611SOL     OW36606   5.603   2.784   4.024
11611SOL    HW136607   5.602   2.874   3.991
11611SOL    HW236608   5.519   2.775   4.069
11612SOL     OW36609  14.854   1.065  13.770
11612SOL    HW136610   0.056   1.046  13.812
11612SOL    HW236611  14.798   1.095  13.841
11613SOL     OW36612   9.615   9.266   0.344
11613SOL    HW136613   9.610   9.303   0.432
11613SOL    HW236614   9.569   9.182   0.351
11614SOL     OW36615   3.387   2.855   7.756
11614SOL    HW136616   3.374   2.911   7.833
11614SOL    HW236617   3.470   2.884   7.719
11615SOL     OW36618   7.680   6.557   9.755
11615SOL    HW136619   7.644   6.471   9.777
11615SOL    HW236620   7.637   6.617   9.815
11616SOL     OW36621   9.201   4.710   5.529
11616SOL    HW136622   9.181   4.623   5.563
11616SOL    HW236623   9.231   4.759   5.606
11617SOL     OW36624   8.695  11.237  13.278
11617SOL    HW136625   8.740  11.210  13.358
11617SOL    HW236626   8.635  11.164  13.259
11618SOL     OW36627  12.499   8.142   4.453
11618SOL    HW136628  12.553   8.106   4.383
11618SOL    HW236629  12.410   8.113   4.433
11619SOL     OW36630   1.721  14.154   6.608
11619SOL    HW136631   1.690  14.083   6.664
11619SOL    HW236632   1.660  14.154   6.534
11620SOL     OW36633   4.047  12.155   0.083
11620SOL    HW136634   4.024  12.235   0.131
11620SOL    HW236635   4.043  12.086   0.149
11621SOL     OW36636   0.903   4.912  12.687
11621SOL    HW136637   0.935   4.976  12.751
11621SOL    HW236638   0.834   4.958  12.639
11622SOL     OW36639  14.625  14.221   5.443
11622SOL    HW136640  14.583  14.137   5.463
11622SOL    HW236641  14.557  14.272   5.398
11623SOL     OW36642   0.930  10.303   8.293
11623SOL    HW136643   0.883  10.229   8.255
11623SOL    HW236644   0.870  10.338   8.359
11624SOL     OW36645  14.244  11.372  14.035
11624SOL    HW136646  14.230  11.371  13.941
11624SOL    HW236647  14.308  11.442  14.049
11625SOL     OW36648   4.070   0.517  14.832
11625SOL    HW136649   4.024   0.441  14.795
11625SOL    HW236650   4.163   0.493  14.828
11626SOL     OW36651  11.978   4.451   3.412
11626SOL    HW136652  11.970   4.399   3.492
11626SOL    HW236653  12.007   4.388   3.346
11627SOL     OW36654   6.945   8.816   2.333
11627SOL    HW136655   7.029   8.788   2.370
11627SOL    HW236656   6.965   8.897   2.287
11628SOL     OW36657   3.126   6.304   2.572
11628SOL    HW136658   3.152   6.384   2.527
11628SOL    HW236659   3.116   6.239   2.503
11629SOL     OW36660  13.731   5.831   8.449
11629SOL    HW136661  13.825   5.844   8.434
11629SOL    HW236662  13.721   5.836   8.544
11630SOL     OW36663   4.439   1.828   1.405
11630SOL    HW136664   4.361   1.775   1.390
11630SOL    HW236665   4.419   1.880   1.483
11631SOL     OW36666  10.031  13.308   2.009
11631SOL    HW136667  10.042  13.278   1.918
11631SOL    HW236668  10.088  13.384   2.016
11632SOL     OW36669   2.773   5.139   0.068
11632SOL    HW136670   2.846   5.099   0.115
11632SOL    HW236671   2.696   5.089   0.095
11633SOL     OW36672   4.059  14.477  10.530
11633SOL    HW136673   3.990  14.411  10.534
11633SOL    HW236674   4.097  14.478  10.618
11634SOL     OW36675   1.862   5.555  11.753
11634SOL    HW136676   1.902   5.642  11.740
11634SOL    HW236677   1.838   5.554  11.846
11635SOL     OW36678  10.269  11.355  14.459
11635SOL    HW136679  10.282  11.450  14.465
11635SOL    HW236680  10.269  11.337  14.365
11636SOL     OW36681   9.865   3.817   8.636
11636SOL    HW136682   9.939   3.814   8.698
11636SOL    HW236683   9.806   3.883   8.672
11637SOL     OW36684   0.238   9.612   3.089
11637SOL    HW136685   0.301   9.604   3.161
11637SOL    HW236686   0.184   9.687   3.113
11638SOL     OW36687   7.586   5.881   9.205
11638SOL    HW136688   7.506   5.933   9.203
11638SOL    HW236689   7.592   5.848   9.294
11639SOL     OW36690  14.433  14.401  12.094
11639SOL    HW136691  14.339  14.413  12.087
11639SOL    HW236692  14.465  14.405  12.004
11640SOL     OW36693   6.533   0.241  12.179
11640SOL    HW136694   6.496   0.272  12.097
11640SOL    HW236695   6.471   0.175  12.211
11641SOL     OW36696  12.253   7.112  12.397
11641SOL    HW136697  12.163   7.090  12.422
11641SOL    HW236698  12.248   7.132  12.304
11642SOL     OW36699   2.668   7.933  14.138
11642SOL    HW136700   2.707   7.996  14.077
11642SOL    HW236701   2.694   7.848  14.103
11643SOL     OW36702   8.185  10.802  12.597
11643SOL    HW136703   8.225  10.750  12.527
11643SOL    HW236704   8.144  10.737  12.655
11644SOL     OW36705   2.889  14.354   3.118
11644SOL    HW136706   2.922  14.297   3.187
11644SOL    HW236707   2.800  14.323   3.101
11645SOL     OW36708  12.757  13.737  11.598
11645SOL    HW136709  12.742  13.661  11.542
11645SOL    HW236710  12.845  13.723  11.634
11646SOL     OW36711  14.679   5.777   3.358
11646SOL    HW136712  14.591   5.781   3.320
11646SOL    HW236713  14.693   5.684   3.376
11647SOL     OW36714  14.877  11.381   7.624
11647SOL    HW136715  14.798  11.414   7.580
11647SOL    HW236716  14.854  11.380   7.717
11648SOL     OW36717   5.001   8.191  14.067
11648SOL    HW136718   5.088   8.202  14.028
11648SOL    HW236719   4.990   8.269  14.122
11649SOL     OW36720  12.605   0.153   3.647
11649SOL    HW136721  12.654   0.228   3.615
11649SOL    HW236722  12.633   0.080   3.591
11650SOL     OW36723   8.309   4.957   5.205
11650SOL    HW136724   8.385   4.967   5.262
11650SOL    HW236725   8.234   4.969   5.263
11651SOL     OW36726  11.835  14.076   0.017
11651SOL    HW136727  11.843  14.095   0.111
11651SOL    HW236728  11.741  14.063   0.003
11652SOL     OW36729   8.695   2.381   2.015
11652SOL    HW136730   8.742   2.388   1.931
11652SOL    HW236731   8.700   2.287   2.036
11653SOL     OW36732  13.932  11.556   6.168
11653SOL    HW136733  13.912  11.648   6.186
11653SOL    HW236734  13.847  11.512   6.170
11654SOL     OW36735  13.299   8.574   2.318
11654SOL    HW136736  13.385   8.541   2.291
11654SOL    HW236737  13.307   8.587   2.412
11655SOL     OW36738   5.164   8.006  10.678
11655SOL    HW136739   5.177   8.009  10.773
11655SOL    HW236740   5.169   7.913  10.656
11656SOL     OW36741   7.692  14.234   5.638
11656SOL    HW136742   7.701  14.273   5.551
11656SOL    HW236743   7.748  14.288   5.695
11657SOL     OW36744   8.261  10.803   5.952
11657SOL    HW136745   8.242  10.888   5.912
11657SOL    HW236746   8.175  10.763   5.964
11658SOL     OW36747   5.422   8.021   9.342
11658SOL    HW136748   5.345   8.008   9.286
11658SOL    HW236749   5.404   8.102   9.389
11659SOL     OW36750  14.216   4.466  14.665
11659SOL    HW136751  14.291   4.505  14.711
11659SOL    HW236752  14.144   4.526  14.682
11660SOL     OW36753  10.632   5.038   8.946
11660SOL    HW136754  10.601   5.088   9.022
11660SOL    HW236755  10.583   4.956   8.950
11661SOL     OW36756  13.909  10.158   5.782
11661SOL    HW136757  13.989  10.138   5.830
11661SOL    HW236758  13.888  10.248   5.808
11662SOL     OW36759   3.070   3.111   4.069
11662SOL    HW136760   3.058   3.017   4.064
11662SOL    HW236761   3.001   3.148   4.014
11663SOL     OW36762  11.967   9.092   6.862
11663SOL    HW136763  11.956   9.053   6.775
11663SOL    HW236764  11.959   9.019   6.923
11664SOL     OW36765   5.729   1.651   5.914
11664SOL    HW136766   5.711   1.734   5.959
11664SOL    HW236767   5.667   1.589   5.952
11665SOL     OW36768  12.490   5.086  10.540
11665SOL    HW136769  12.584   5.098  10.558
11665SOL    HW236770  12.447   5.103  10.624
11666SOL     OW36771  11.042   5.427   4.590
11666SOL    HW136772  11.012   5.488   4.657
11666SOL    HW236773  11.011   5.465   4.508
11667SOL     OW36774  11.221   0.244  12.025
11667SOL    HW136775  11.142   0.268  11.977
11667SOL    HW236776  11.291   0.250  11.960
11668SOL     OW36777   5.897   8.952   5.722
11668SOL    HW136778   5.863   8.885   5.780
11668SOL    HW236779   5.829   8.963   5.655
11669SOL     OW36780  10.631  14.481   0.226
11669SOL    HW136781  10.660  14.414   0.289
11669SOL    HW236782  10.673  14.561   0.256
11670SOL     OW36783  13.907   3.968   2.515
11670SOL    HW136784  13.981   4.010   2.470
11670SOL    HW236785  13.875   4.034   2.576
11671SOL     OW36786   5.527  11.346  12.792
11671SOL    HW136787   5.531  11.271  12.733
11671SOL    HW236788   5.436  11.374  12.790
11672SOL     OW36789   6.676  11.706   8.820
11672SOL    HW136790   6.625  11.681   8.897
11672SOL    HW236791   6.707  11.795   8.839
11673SOL     OW36792  13.550  11.122   4.639
11673SOL    HW136793  13.627  11.065   4.636
11673SOL    HW236794  13.566  11.179   4.715
11674SOL     OW36795   2.142   3.125   9.331
11674SOL    HW136796   2.112   3.058   9.270
11674SOL    HW236797   2.222   3.160   9.291
11675SOL     OW36798   3.014  10.564   5.186
11675SOL    HW136799   3.094  10.593   5.142
11675SOL    HW236800   3.005  10.625   5.260
11676SOL     OW36801   1.223   2.240  12.399
11676SOL    HW136802   1.172   2.270  12.474
11676SOL    HW236803   1.159   2.219  12.332
11677SOL     OW36804  14.066   7.959   0.660
11677SOL    HW136805  14.110   7.925   0.582
11677SOL    HW236806  14.096   8.049   0.667
11678SOL     OW36807  13.462   5.718  13.135
11678SOL    HW136808  13.434   5.771  13.061
11678SOL    HW236809  13.381   5.685  13.173
11679SOL     OW36810   5.589  13.361   2.097
11679SOL    HW136811   5.595  13.456   2.110
11679SOL    HW236812   5.581  13.351   2.002
11680SOL     OW36813   7.478   9.397   1.791
11680SOL    HW136814   7.388   9.381   1.760
11680SOL    HW236815   7.467   9.453   1.868
11681SOL     OW36816   7.371   6.861   2.412
11681SOL    HW136817   7.448   6.894   2.457
11681SOL    HW236818   7.377   6.898   2.324
11682SOL     OW36819   9.956   7.167  13.283
11682SOL    HW136820   9.931   7.160  13.191
11682SOL    HW236821  10.014   7.243  13.287
11683SOL     OW36822   0.627   9.341   9.331
11683SOL    HW136823   0.561   9.356   9.399
11683SOL    HW236824   0.673   9.425   9.323
11684SOL     OW36825   9.316   8.521   6.092
11684SOL    HW136826   9.374   8.451   6.123
11684SOL    HW236827   9.366   8.564   6.022
11685SOL     OW36828  12.469  13.418  14.394
11685SOL    HW136829  12.526  13.490  14.422
11685SOL    HW236830  12.411  13.404  14.468
11686SOL     OW36831   3.379   1.757   0.677
11686SOL    HW136832   3.431   1.690   0.722
11686SOL    HW236833   3.357   1.717   0.593
11687SOL     OW36834  13.055   0.376   7.152
11687SOL    HW136835  13.141   0.418   7.159
11687SOL    HW236836  13.066   0.310   7.084
11688SOL     OW36837   1.099  12.947  13.559
11688SOL    HW136838   1.108  13.016  13.493
11688SOL    HW236839   1.178  12.953  13.612
11689SOL     OW36840   7.758   0.034   3.693
11689SOL    HW136841   7.815   0.110   3.701
11689SOL    HW236842   7.669   0.069   3.703
11690SOL     OW36843  14.816   0.208  10.630
11690SOL    HW136844  14.738   0.234  10.679
11690SOL    HW236845  14.827   0.275  10.563
11691SOL     OW36846   5.632  14.130  14.763
11691SOL    HW136847   5.595  14.075  14.694
11691SOL    HW236848   5.570  14.201  14.773
11692SOL     OW36849   2.949   0.913  13.351
11692SOL    HW136850   2.964   0.904  13.445
11692SOL    HW236851   2.998   0.992  13.326
11693SOL     OW36852   0.679   3.885   3.133
11693SOL    HW136853   0.651   3.959   3.186
11693SOL    HW236854   0.771   3.903   3.112
11694SOL     OW36855   1.688   0.760  14.492
11694SOL    HW136856   1.771   0.809  14.492
11694SOL    HW236857   1.711   0.674  14.527
11695SOL     OW36858   6.298   8.487  14.216
11695SOL    HW136859   6.219   8.450  14.177
11695SOL    HW236860   6.369   8.460  14.157
11696SOL     OW36861   3.552  14.016  11.948
11696SOL    HW136862   3.554  14.111  11.937
11696SOL    HW236863   3.549  13.982  11.858
11697SOL     OW36864  13.240  11.109   0.681
11697SOL    HW136865  13.244  11.162   0.760
11697SOL    HW236866  13.296  11.033   0.700
11698SOL     OW36867   2.534   0.277  13.953
11698SOL    HW136868   2.491   0.192  13.958
11698SOL    HW236869   2.620   0.259  13.917
11699SOL     OW36870   5.450   9.447   8.131
11699SOL    HW136871   5.436   9.483   8.219
11699SOL    HW236872   5.504   9.369   8.145
11700SOL     OW36873   0.132  14.647  12.640
11700SOL    HW136874   0.153  14.683  12.726
11700SOL    HW236875   0.170  14.559  12.641
11701SOL     OW36876   3.562   4.123   3.305
11701SOL    HW136877   3.626   4.157   3.242
11701SOL    HW236878   3.522   4.049   3.259
11702SOL     OW36879  11.059   6.931  11.209
11702SOL    HW136880  11.039   7.011  11.160
11702SOL    HW236881  11.102   6.962  11.289
11703SOL     OW36882   0.376   7.812  14.704
11703SOL    HW136883   0.298   7.791  14.653
11703SOL    HW236884   0.449   7.780  14.650
11704SOL     OW36885  13.992   7.367   4.858
11704SOL    HW136886  14.033   7.291   4.816
11704SOL    HW236887  13.916   7.387   4.803
11705SOL     OW36888   0.506   5.988  14.226
11705SOL    HW136889   0.421   6.025  14.201
11705SOL    HW236890   0.483   5.913  14.282
11706SOL     OW36891   6.146   7.786   0.986
11706SOL    HW136892   6.090   7.738   1.047
11706SOL    HW236893   6.134   7.878   1.010
11707SOL     OW36894   8.849   1.396   2.639
11707SOL    HW136895   8.906   1.420   2.712
11707SOL    HW236896   8.890   1.436   2.563
11708SOL     OW36897  11.172   8.264  10.261
11708SOL    HW136898  11.203   8.332  10.201
11708SOL    HW236899  11.163   8.308  10.345
11709SOL     OW36900   7.499   7.640  10.254
11709SOL    HW136901   7.586   7.650  10.293
11709SOL    HW236902   7.498   7.704  10.183
11710SOL     OW36903  12.805   6.833   5.383
11710SOL    HW136904  12.793   6.755   5.438
11710SOL    HW236905  12.765   6.810   5.299
11711SOL     OW36906   6.103   2.324  10.940
11711SOL    HW136907   6.086   2.230  10.950
11711SOL    HW236908   6.179   2.341  10.996
11712SOL     OW36909   4.537   6.747  13.544
11712SOL    HW136910   4.614   6.697  13.517
11712SOL    HW236911   4.556   6.837  13.518
11713SOL     OW36912   5.238   6.735   6.612
11713SOL    HW136913   5.164   6.738   6.673
11713SOL    HW236914   5.248   6.825   6.582
11714SOL     OW36915   6.557  14.607  11.820
11714SOL    HW136916   6.533  14.647  11.736
11714SOL    HW236917   6.535  14.673  11.885
11715SOL     OW36918   6.673  12.194   5.400
11715SOL    HW136919   6.729  12.212   5.325
11715SOL    HW236920   6.597  12.148   5.362
11716SOL     OW36921   9.981   7.161   8.911
11716SOL    HW136922  10.045   7.220   8.871
11716SOL    HW236923  10.026   7.076   8.913
11717SOL     OW36924   9.921   9.550   4.489
11717SOL    HW136925   9.924   9.641   4.521
11717SOL    HW236926   9.973   9.552   4.409
11718SOL     OW36927   2.051  13.074  13.794
11718SOL    HW136928   2.106  13.127  13.851
11718SOL    HW236929   2.104  13.061  13.715
11719SOL     OW36930   9.724   3.209   0.214
11719SOL    HW136931   9.759   3.206   0.303
11719SOL    HW236932   9.643   3.258   0.222
11720SOL     OW36933   2.515   0.078  11.228
11720SOL    HW136934   2.579   0.077  11.157
11720SOL    HW236935   2.487   0.170  11.233
11721SOL     OW36936   9.817   5.434  12.675
11721SOL    HW136937   9.803   5.439  12.769
11721SOL    HW236938   9.872   5.357  12.662
11722SOL     OW36939  14.616   4.017   7.346
11722SOL    HW136940  14.660   4.076   7.407
11722SOL    HW236941  14.666   3.935   7.351
11723SOL     OW36942   5.424   8.614   9.129
11723SOL    HW136943   5.359   8.683   9.126
11723SOL    HW236944   5.378   8.539   9.168
11724SOL     OW36945  12.235   4.399   6.309
11724SOL    HW136946  12.291   4.418   6.234
11724SOL    HW236947  12.273   4.449   6.381
11725SOL     OW36948   9.935   2.511  12.229
11725SOL    HW136949   9.911   2.603  12.219
11725SOL    HW236950  10.007   2.498  12.167
11726SOL     OW36951   4.016  12.501   6.303
11726SOL    HW136952   3.932  12.470   6.338
11726SOL    HW236953   3.991  12.575   6.247
11727SOL     OW36954   7.999   4.386  11.257
11727SOL    HW136955   7.936   4.328  11.299
11727SOL    HW236956   7.963   4.403  11.171
11728SOL     OW36957   5.129   6.168   7.997
11728SOL    HW136958   5.178   6.086   7.997
11728SOL    HW236959   5.058   6.152   8.060
11729SOL     OW36960  12.522   6.019  13.405
11729SOL    HW136961  12.509   6.050  13.316
11729SOL    HW236962  12.611   6.046  13.428
11730SOL     OW36963  14.511   9.259   3.944
11730SOL    HW136964  14.483   9.316   3.872
11730SOL    HW236965  14.508   9.170   3.908
11731SOL     OW36966   2.341   9.851   5.934
11731SOL    HW136967   2.430   9.822   5.916
11731SOL    HW236968   2.303   9.867   5.847
11732SOL     OW36969  14.314   8.263   5.433
11732SOL    HW136970  14.408   8.272   5.419
11732SOL    HW236971  14.305   8.188   5.492
11733SOL     OW36972   1.784  11.371   7.715
11733SOL    HW136973   1.700  11.372   7.668
11733SOL    HW236974   1.762  11.396   7.805
11734SOL     OW36975   9.178  14.275   2.439
11734SOL    HW136976   9.244  14.319   2.493
11734SOL    HW236977   9.181  14.183   2.467
11735SOL     OW36978   3.514  10.255   4.320
11735SOL    HW136979   3.471  10.178   4.283
11735SOL    HW236980   3.444  10.301   4.367
11736SOL     OW36981   1.980  10.118   6.927
11736SOL    HW136982   1.892  10.091   6.900
11736SOL    HW236983   2.022  10.037   6.956
11737SOL     OW36984   4.709   9.831   2.776
11737SOL    HW136985   4.752   9.763   2.723
11737SOL    HW236986   4.761   9.836   2.856
11738SOL     OW36987  14.070   9.339  12.812
11738SOL    HW136988  14.075   9.422  12.765
11738SOL    HW236989  14.161   9.313  12.825
11739SOL     OW36990  13.066   7.816   2.645
11739SOL    HW136991  13.077   7.868   2.724
11739SOL    HW236992  13.133   7.848   2.584
11740SOL     OW36993  14.581  13.086   3.657
11740SOL    HW136994  14.587  13.052   3.568
11740SOL    HW236995  14.672  13.103   3.683
11741SOL     OW36996  12.383  11.740  10.913
11741SOL    HW136997  12.340  11.719  10.996
11741SOL    HW236998  12.430  11.822  10.931
11742SOL     OW36999   6.494   3.836   5.231
11742SOL    HW137000   6.487   3.925   5.194
11742SOL    HW237001   6.404   3.808   5.242
11743SOL     OW37002   2.198  10.576   2.657
11743SOL    HW137003   2.289  10.567   2.629
11743SOL    HW237004   2.188  10.669   2.676
11744SOL     OW37005  13.766   2.012  13.394
11744SOL    HW137006  13.718   2.061  13.460
11744SOL    HW237007  13.729   2.042  13.311
11745SOL     OW37008   4.399  10.559   0.802
11745SOL    HW137009   4.370  10.486   0.747
11745SOL    HW237010   4.394  10.636   0.746
11746SOL     OW37011  12.686  10.542   6.049
11746SOL    HW137012  12.724  10.630   6.050
11746SOL    HW237013  12.606  10.550   5.997
11747SOL     OW37014   0.072   2.764   3.078
11747SOL    HW137015   0.122   2.748   2.998
11747SOL    HW237016   0.095   2.854   3.103
11748SOL     OW37017   0.928  13.755  11.461
11748SOL    HW137018   1.009  13.736  11.509
11748SOL    HW237019   0.914  13.677  11.407
11749SOL     OW37020   4.753   6.370  14.549
11749SOL    HW137021   4.771   6.329  14.464
11749SOL    HW237022   4.766   6.301  14.613
11750SOL     OW37023   5.557   6.806   5.076
11750SOL    HW137024   5.611   6.827   5.000
11750SOL    HW237025   5.467   6.803   5.042
11751SOL     OW37026   3.978   8.822  13.200
11751SOL    HW137027   3.925   8.750  13.165
11751SOL    HW237028   4.028   8.854  13.125
11752SOL     OW37029   7.996   0.911   8.050
11752SOL    HW137030   8.034   0.960   7.977
11752SOL    HW237031   8.020   0.962   8.128
11753SOL     OW37032   4.659   8.954  12.733
11753SOL    HW137033   4.572   8.960  12.692
11753SOL    HW237034   4.675   9.041  12.770
11754SOL     OW37035   0.255   1.066   1.414
11754SOL    HW137036   0.251   0.997   1.481
11754SOL    HW237037   0.199   1.135   1.449
11755SOL     OW37038  13.839  13.340  14.011
11755SOL    HW137039  13.759  13.312  13.967
11755SOL    HW237040  13.814  13.421  14.056
11756SOL     OW37041   3.459   7.781   3.722
11756SOL    HW137042   3.546   7.747   3.746
11756SOL    HW237043   3.472   7.875   3.715
11757SOL     OW37044  12.602   1.779   6.860
11757SOL    HW137045  12.624   1.827   6.940
11757SOL    HW237046  12.599   1.846   6.792
11758SOL     OW37047   9.945  11.142   1.433
11758SOL    HW137048   9.959  11.097   1.516
11758SOL    HW237049   9.942  11.235   1.456
11759SOL     OW37050   7.659  14.273  12.221
11759SOL    HW137051   7.732  14.275  12.284
11759SOL    HW237052   7.584  14.304  12.272
11760SOL     OW37053   4.886   3.911   2.118
11760SOL    HW137054   4.943   3.968   2.170
11760SOL    HW237055   4.868   3.837   2.176
11761SOL     OW37056  14.825  11.148   6.482
11761SOL    HW137057  14.814  11.229   6.432
11761SOL    HW237058  14.864  11.177   6.565
11762SOL     OW37059   2.691  11.440  12.343
11762SOL    HW137060   2.601  11.409  12.332
11762SOL    HW237061   2.693  11.525  12.300
11763SOL     OW37062   7.126   1.093   8.175
11763SOL    HW137063   7.102   1.159   8.240
11763SOL    HW237064   7.075   1.115   8.097
11764SOL     OW37065   2.689   2.597   6.054
11764SOL    HW137066   2.753   2.584   5.984
11764SOL    HW237067   2.727   2.666   6.108
11765SOL     OW37068   2.810  11.937   2.455
11765SOL    HW137069   2.747  11.866   2.455
11765SOL    HW237070   2.762  12.013   2.421
11766SOL     OW37071  11.365  10.587   5.114
11766SOL    HW137072  11.432  10.518   5.120
11766SOL    HW237073  11.286  10.540   5.089
11767SOL     OW37074   0.478   6.202   4.874
11767SOL    HW137075   0.545   6.175   4.812
11767SOL    HW237076   0.424   6.264   4.825
11768SOL     OW37077  11.770  10.573   1.569
11768SOL    HW137078  11.726  10.617   1.496
11768SOL    HW237079  11.734  10.614   1.648
11769SOL     OW37080   8.444   8.560   6.932
11769SOL    HW137081   8.362   8.601   6.903
11769SOL    HW237082   8.481   8.522   6.852
11770SOL     OW37083   9.056   4.666  10.798
11770SOL    HW137084   9.129   4.620  10.756
11770SOL    HW237085   8.978   4.622  10.766
11771SOL     OW37086   2.998  12.663  10.793
11771SOL    HW137087   2.973  12.636  10.704
11771SOL    HW237088   2.966  12.753  10.800
11772SOL     OW37089   8.805   7.389   1.153
11772SOL    HW137090   8.781   7.427   1.069
11772SOL    HW237091   8.852   7.309   1.131
11773SOL     OW37092  10.126   0.647   2.549
11773SOL    HW137093  10.153   0.559   2.576
11773SOL    HW237094  10.195   0.705   2.582
11774SOL     OW37095  14.352   4.140   3.594
11774SOL    HW137096  14.416   4.103   3.654
11774SOL    HW237097  14.270   4.096   3.616
11775SOL     OW37098   9.691  11.109   8.323
11775SOL    HW137099   9.705  11.187   8.269
11775SOL    HW237100   9.696  11.036   8.262
11776SOL     OW37101  11.029   0.257  12.624
11776SOL    HW137102  11.098   0.309  12.666
11776SOL    HW237103  11.036   0.278  12.531
11777SOL     OW37104  12.566  14.367  14.225
11777SOL    HW137105  12.582  14.458  14.248
11777SOL    HW237106  12.621  14.317  14.286
11778SOL     OW37107   9.567   7.360   2.108
11778SOL    HW137108   9.598   7.364   2.017
11778SOL    HW237109   9.647   7.362   2.161
11779SOL     OW37110   4.815  11.141   0.321
11779SOL    HW137111   4.909  11.126   0.315
11779SOL    HW237112   4.779  11.103   0.240
11780SOL     OW37113   0.476   9.870   6.114
11780SOL    HW137114   0.423   9.845   6.190
11780SOL    HW237115   0.542   9.929   6.150
11781SOL     OW37116   9.855   0.606   4.542
11781SOL    HW137117   9.889   0.648   4.621
11781SOL    HW237118   9.904   0.524   4.535
11782SOL     OW37119  12.364   9.680   3.590
11782SOL    HW137120  12.282   9.726   3.574
11782SOL    HW237121  12.361   9.603   3.532
11783SOL     OW37122   2.033   3.369   4.284
11783SOL    HW137123   1.961   3.374   4.222
11783SOL    HW237124   2.087   3.296   4.253
11784SOL     OW37125   6.904   8.885  12.291
11784SOL    HW137126   6.928   8.887  12.198
11784SOL    HW237127   6.810   8.903  12.292
11785SOL     OW37128   8.203   6.713   0.120
11785SOL    HW137129   8.127   6.697   0.063
11785SOL    HW237130   8.212   6.808   0.123
11786SOL     OW37131  10.521   2.211  12.552
11786SOL    HW137132  10.468   2.172  12.621
11786SOL    HW237133  10.574   2.138  12.519
11787SOL     OW37134   2.287  12.444   4.510
11787SOL    HW137135   2.324  12.356   4.512
11787SOL    HW237136   2.324  12.488   4.587
11788SOL     OW37137   4.823   3.970   1.585
11788SOL    HW137138   4.904   3.989   1.538
11788SOL    HW237139   4.852   3.942   1.672
11789SOL     OW37140   0.193   6.884  11.466
11789SOL    HW137141   0.265   6.824  11.445
11789SOL    HW237142   0.150   6.900  11.382
11790SOL     OW37143   0.701  14.284  10.149
11790SOL    HW137144   0.748  14.245  10.075
11790SOL    HW237145   0.644  14.350  10.109
11791SOL     OW37146  10.422   1.545   2.459
11791SOL    HW137147  10.376   1.533   2.542
11791SOL    HW237148  10.515   1.539   2.482
11792SOL     OW37149  11.811   5.118   8.086
11792SOL    HW137150  11.857   5.042   8.051
11792SOL    HW237151  11.761   5.084   8.160
11793SOL     OW37152   7.880  13.931   6.228
11793SOL    HW137153   7.852  13.845   6.261
11793SOL    HW237154   7.802  13.967   6.186
11794SOL     OW37155   9.102  13.025   9.441
11794SOL    HW137156   9.142  13.069   9.366
11794SOL    HW237157   9.077  13.096   9.500
11795SOL     OW37158   2.198  11.529  12.262
11795SOL    HW137159   2.219  11.537  12.169
11795SOL    HW237160   2.208  11.617  12.297
11796SOL     OW37161   8.593   6.850   6.262
11796SOL    HW137162   8.605   6.809   6.177
11796SOL    HW237163   8.681   6.861   6.296
11797SOL     OW37164  12.261   5.730   1.050
11797SOL    HW137165  12.350   5.696   1.037
11797SOL    HW237166  12.229   5.683   1.127
11798SOL     OW37167   3.574   7.876   4.493
11798SOL    HW137168   3.616   7.824   4.424
11798SOL    HW237169   3.616   7.961   4.487
11799SOL     OW37170   7.169   8.096   0.546
11799SOL    HW137171   7.231   8.152   0.499
11799SOL    HW237172   7.176   8.125   0.638
11800SOL     OW37173   1.900  14.541  11.972
11800SOL    HW137174   1.982  14.500  11.999
11800SOL    HW237175   1.843  14.467  11.949
11801SOL     OW37176   1.779   0.951   1.621
11801SOL    HW137177   1.714   1.016   1.597
11801SOL    HW237178   1.757   0.874   1.568
11802SOL     OW37179   2.680  13.464  10.789
11802SOL    HW137180   2.687  13.453  10.883
11802SOL    HW237181   2.734  13.394  10.752
11803SOL     OW37182  12.998  12.921   6.700
11803SOL    HW137183  12.904  12.905   6.708
11803SOL    HW237184  13.013  13.003   6.749
11804SOL     OW37185  10.052   0.590   5.297
11804SOL    HW137186  10.005   0.543   5.366
11804SOL    HW237187  10.005   0.673   5.288
11805SOL     OW37188   1.915  10.211   6.324
11805SOL    HW137189   1.963  10.228   6.243
11805SOL    HW237190   1.894  10.118   6.320
11806SOL     OW37191   0.049   3.267   2.083
11806SOL    HW137192   0.029   3.350   2.127
11806SOL    HW237193   0.145   3.267   2.075
11807SOL     OW37194   5.008   1.169   8.080
11807SOL    HW137195   4.946   1.241   8.087
11807SOL    HW237196   4.971   1.112   8.013
11808SOL     OW37197   4.826   1.527  12.188
11808SOL    HW137198   4.800   1.540  12.097
11808SOL    HW237199   4.898   1.588  12.201
11809SOL     OW37200  10.425   8.867   1.303
11809SOL    HW137201  10.412   8.855   1.209
11809SOL    HW237202  10.518   8.889   1.311
11810SOL     OW37203   3.555   2.029   8.634
11810SOL    HW137204   3.532   1.951   8.583
11810SOL    HW237205   3.526   2.102   8.579
11811SOL     OW37206  12.978   4.946   4.074
11811SOL    HW137207  12.950   4.916   4.161
11811SOL    HW237208  12.996   5.039   4.085
11812SOL     OW37209   0.057   6.253   3.215
11812SOL    HW137210   0.006   6.319   3.168
11812SOL    HW237211   0.065   6.180   3.155
11813SOL     OW37212   6.945   5.162  11.044
11813SOL    HW137213   7.000   5.086  11.062
11813SOL    HW237214   6.953   5.176  10.950
11814SOL     OW37215   8.984   3.114   1.583
11814SOL    HW137216   8.926   3.038   1.582
11814SOL    HW237217   9.069   3.081   1.555
11815SOL     OW37218   7.224   2.330  14.272
11815SOL    HW137219   7.142   2.337  14.321
11815SOL    HW237220   7.272   2.260  14.316
11816SOL     OW37221   7.237  13.915   4.216
11816SOL    HW137222   7.181  13.839   4.232
11816SOL    HW237223   7.308  13.882   4.162
11817SOL     OW37224  14.412   1.901  14.171
11817SOL    HW137225  14.399   1.977  14.114
11817SOL    HW237226  14.391   1.826  14.117
11818SOL     OW37227   8.225   8.200  11.098
11818SOL    HW137228   8.191   8.120  11.136
11818SOL    HW237229   8.311   8.176  11.064
11819SOL     OW37230   4.064   0.227  12.788
11819SOL    HW137231   3.974   0.242  12.816
11819SOL    HW237232   4.066   0.135  12.761
11820SOL     OW37233   6.054  10.340   8.718
11820SOL    HW137234   6.127  10.402   8.709
11820SOL    HW237235   6.089  10.257   8.686
11821SOL     OW37236  14.055   8.549   7.496
11821SOL    HW137237  14.091   8.563   7.409
11821SOL    HW237238  14.048   8.636   7.535
11822SOL     OW37239  12.257   2.837   2.616
11822SOL    HW137240  12.200   2.909   2.645
11822SOL    HW237241  12.341   2.879   2.598
11823SOL     OW37242  12.952   5.517  13.220
11823SOL    HW137243  12.924   5.477  13.302
11823SOL    HW237244  13.034   5.472  13.198
11824SOL     OW37245   4.650   6.562   4.499
11824SOL    HW137246   4.650   6.625   4.571
11824SOL    HW237247   4.742   6.545   4.481
11825SOL     OW37248   1.131   5.479  12.071
11825SOL    HW137249   1.150   5.440  11.985
11825SOL    HW237250   1.215   5.480  12.116
11826SOL     OW37251  12.006   6.042  12.005
11826SOL    HW137252  12.047   6.010  11.924
11826SOL    HW237253  11.915   6.060  11.979
11827SOL     OW37254   9.757  10.256  13.527
11827SOL    HW137255   9.818  10.330  13.520
11827SOL    HW237256   9.713  10.255  13.442
11828SOL     OW37257   5.420   4.489   2.921
11828SOL    HW137258   5.363   4.527   2.854
11828SOL    HW237259   5.507   4.489   2.882
11829SOL     OW37260  11.579   3.208  10.260
11829SOL    HW137261  11.673   3.217  10.274
11829SOL    HW237262  11.560   3.267  10.187
11830SOL     OW37263  10.486   6.844   6.971
11830SOL    HW137264  10.452   6.835   7.060
11830SOL    HW237265  10.573   6.803   6.974
11831SOL     OW37266   6.767  10.295   5.868
11831SOL    HW137267   6.768  10.375   5.920
11831SOL    HW237268   6.817  10.232   5.920
11832SOL     OW37269   2.901   9.094   8.701
11832SOL    HW137270   2.981   9.127   8.743
11832SOL    HW237271   2.899   9.001   8.723
11833SOL     OW37272   4.514   0.108  11.111
11833SOL    HW137273   4.518   0.202  11.125
11833SOL    HW237274   4.426   0.083  11.139
11834SOL     OW37275   9.222  12.178  13.902
11834SOL    HW137276   9.285  12.171  13.831
11834SOL    HW237277   9.271  12.152  13.981
11835SOL     OW37278   1.279   3.053  11.849
11835SOL    HW137279   1.210   3.013  11.902
11835SOL    HW237280   1.232   3.094  11.776
11836SOL     OW37281   8.898   8.815   9.570
11836SOL    HW137282   8.921   8.898   9.611
11836SOL    HW237283   8.970   8.756   9.593
11837SOL     OW37284   7.250   4.431  12.843
11837SOL    HW137285   7.214   4.519  12.854
11837SOL    HW237286   7.273   4.426  12.750
11838SOL     OW37287  13.783   8.475   1.169
11838SOL    HW137288  13.857   8.414   1.174
11838SOL    HW237289  13.801   8.539   1.238
11839SOL     OW37290   6.386  12.259   1.559
11839SOL    HW137291   6.363  12.179   1.512
11839SOL    HW237292   6.305  12.310   1.560
11840SOL     OW37293  10.669   9.388  13.196
11840SOL    HW137294  10.577   9.379  13.221
11840SOL    HW237295  10.695   9.474  13.230
11841SOL     OW37296   3.452   4.602   5.289
11841SOL    HW137297   3.420   4.536   5.350
11841SOL    HW237298   3.380   4.664   5.279
11842SOL     OW37299  13.680   3.753  12.681
11842SOL    HW137300  13.646   3.703  12.755
11842SOL    HW237301  13.614   3.821  12.666
11843SOL     OW37302   0.321  14.396   6.132
11843SOL    HW137303   0.226  14.385   6.123
11843SOL    HW237304   0.343  14.346   6.210
11844SOL     OW37305  13.517   5.738   7.865
11844SOL    HW137306  13.519   5.823   7.909
11844SOL    HW237307  13.558   5.678   7.927
11845SOL     OW37308   1.195  12.138  12.662
11845SOL    HW137309   1.187  12.222  12.616
11845SOL    HW237310   1.238  12.160  12.744
11846SOL     OW37311   2.438   4.472   2.154
11846SOL    HW137312   2.458   4.452   2.062
11846SOL    HW237313   2.520   4.453   2.200
11847SOL     OW37314   6.689  13.150   0.277
11847SOL    HW137315   6.679  13.119   0.367
11847SOL    HW237316   6.769  13.202   0.279
11848SOL     OW37317   3.084   2.840   1.354
11848SOL    HW137318   3.013   2.877   1.302
11848SOL    HW237319   3.158   2.833   1.294
11849SOL     OW37320   3.775   9.000  12.399
11849SOL    HW137321   3.859   8.956  12.393
11849SOL    HW237322   3.761   9.038  12.312
11850SOL     OW37323   4.199   6.926   1.573
11850SOL    HW137324   4.249   6.921   1.655
11850SOL    HW237325   4.223   7.011   1.536
11851SOL     OW37326   1.413   4.561   7.894
11851SOL    HW137327   1.328   4.518   7.885
11851SOL    HW237328   1.392   4.651   7.918
11852SOL     OW37329   7.560   9.902   8.451
11852SOL    HW137330   7.512   9.985   8.461
11852SOL    HW237331   7.509   9.839   8.501
11853SOL     OW37332   5.874   4.854  13.526
11853SOL    HW137333   5.846   4.766  13.504
11853SOL    HW237334   5.968   4.847  13.543
11854SOL     OW37335   0.725   9.176   5.969
11854SOL    HW137336   0.741   9.181   6.063
11854SOL    HW237337   0.694   9.087   5.954
11855SOL     OW37338   3.247   5.555   9.167
11855SOL    HW137339   3.166   5.505   9.156
11855SOL    HW237340   3.269   5.585   9.078
11856SOL     OW37341   5.694   1.511  10.704
11856SOL    HW137342   5.608   1.502  10.662
11856SOL    HW237343   5.674   1.519  10.797
11857SOL     OW37344   1.130   3.981   6.104
11857SOL    HW137345   1.173   4.066   6.116
11857SOL    HW237346   1.198   3.916   6.122
11858SOL     OW37347  11.257   7.772   0.322
11858SOL    HW137348  11.256   7.839   0.255
11858SOL    HW237349  11.233   7.818   0.403
11859SOL     OW37350   0.605   8.524   3.166
11859SOL    HW137351   0.513   8.498   3.163
11859SOL    HW237352   0.650   8.449   3.204
11860SOL     OW37353   6.765   1.822  11.530
11860SOL    HW137354   6.855   1.837  11.501
11860SOL    HW237355   6.724   1.908  11.528
11861SOL     OW37356  14.233   9.913   9.973
11861SOL    HW137357  14.207   9.956   9.891
11861SOL    HW237358  14.162   9.852   9.991
11862SOL     OW37359  13.194   2.981   0.773
11862SOL    HW137360  13.286   2.997   0.795
11862SOL    HW237361  13.145   3.014   0.847
11863SOL     OW37362   8.490   8.575   9.412
11863SOL    HW137363   8.551   8.504   9.431
11863SOL    HW237364   8.420   8.534   9.362
11864SOL     OW37365   9.724   3.792  11.098
11864SOL    HW137366   9.674   3.711  11.086
11864SOL    HW237367   9.749   3.792  11.190
11865SOL     OW37368   6.107  14.171   0.572
11865SOL    HW137369   6.066  14.097   0.618
11865SOL    HW237370   6.201  14.152   0.576
11866SOL     OW37371   3.948  13.258  14.668
11866SOL    HW137372   3.917  13.337  14.713
11866SOL    HW237373   4.041  13.254  14.689
11867SOL     OW37374  12.179   0.408   8.568
11867SOL    HW137375  12.177   0.494   8.610
11867SOL    HW237376  12.091   0.399   8.530
11868SOL     OW37377   7.662   4.307  14.331
11868SOL    HW137378   7.599   4.242  14.361
11868SOL    HW237379   7.628   4.338  14.247
11869SOL     OW37380  10.150   3.813  14.804
11869SOL    HW137381  10.128   3.839   0.012
11869SOL    HW237382  10.179   3.722  14.812
11870SOL     OW37383   8.277  10.976   0.556
11870SOL    HW137384   8.272  10.881   0.553
11870SOL    HW237385   8.350  10.999   0.499
11871SOL     OW37386  12.808   1.589   2.103
11871SOL    HW137387  12.826   1.650   2.032
11871SOL    HW237388  12.874   1.520   2.093
11872SOL     OW37389   4.896   2.718   6.128
11872SOL    HW137390   4.807   2.753   6.125
11872SOL    HW237391   4.905   2.683   6.217
11873SOL     OW37392   8.543  14.340   6.964
11873SOL    HW137393   8.491  14.306   7.036
11873SOL    HW237394   8.628  14.297   6.973
11874SOL     OW37395  13.022   5.396   2.814
11874SOL    HW137396  13.043   5.303   2.811
11874SOL    HW237397  13.024   5.418   2.907
11875SOL     OW37398  11.131   2.270  10.615
11875SOL    HW137399  11.157   2.223  10.536
11875SOL    HW237400  11.155   2.361  10.598
11876SOL     OW37401   6.841  14.367   1.613
11876SOL    HW137402   6.890  14.287   1.594
11876SOL    HW237403   6.887  14.435   1.564
11877SOL     OW37404   3.826  10.827   4.005
11877SOL    HW137405   3.894  10.785   3.952
11877SOL    HW237406   3.794  10.758   4.063
11878SOL     OW37407  11.230  12.108   2.542
11878SOL    HW137408  11.282  12.031   2.520
11878SOL    HW237409  11.181  12.083   2.620
11879SOL     OW37410  10.963   6.528   2.460
11879SOL    HW137411  10.937   6.508   2.370
11879SOL    HW237412  10.943   6.448   2.509
11880SOL     OW37413   9.538  14.103   3.675
11880SOL    HW137414   9.517  14.145   3.592
11880SOL    HW237415   9.614  14.049   3.655
11881SOL     OW37416  14.771   5.718  13.966
11881SOL    HW137417  14.711   5.694  13.894
11881SOL    HW237418  14.738   5.669  14.041
11882SOL     OW37419  14.471   2.686  11.300
11882SOL    HW137420  14.384   2.645  11.301
11882SOL    HW237421  14.455   2.776  11.331
11883SOL     OW37422   2.215   7.977   2.241
11883SOL    HW137423   2.258   7.993   2.157
11883SOL    HW237424   2.133   8.026   2.235
11884SOL     OW37425  11.996   7.173   3.414
11884SOL    HW137426  12.000   7.167   3.510
11884SOL    HW237427  12.063   7.113   3.383
11885SOL     OW37428   8.813  10.298   2.945
11885SOL    HW137429   8.853  10.362   3.005
11885SOL    HW237430   8.807  10.345   2.862
11886SOL     OW37431  14.252   9.052  13.959
11886SOL    HW137432  14.338   9.084  13.931
11886SOL    HW237433  14.272   8.985  14.025
11887SOL     OW37434   2.937   8.519  14.399
11887SOL    HW137435   2.927   8.429  14.431
11887SOL    HW237436   2.954   8.570  14.479
11888SOL     OW37437   9.839   5.832   1.561
11888SOL    HW137438   9.890   5.881   1.625
11888SOL    HW237439   9.818   5.749   1.605
11889SOL     OW37440   9.390  12.574   0.566
11889SOL    HW137441   9.469  12.573   0.512
11889SOL    HW237442   9.401  12.500   0.626
11890SOL     OW37443  10.500  11.704   3.489
11890SOL    HW137444  10.448  11.783   3.472
11890SOL    HW237445  10.466  11.670   3.572
11891SOL     OW37446  12.553  10.660   2.006
11891SOL    HW137447  12.580  10.649   1.915
11891SOL    HW237448  12.466  10.621   2.010
11892SOL     OW37449  11.785  10.692   4.407
11892SOL    HW137450  11.775  10.620   4.470
11892SOL    HW237451  11.767  10.771   4.458
11893SOL     OW37452   5.811  12.739   4.248
11893SOL    HW137453   5.775  12.750   4.160
11893SOL    HW237454   5.813  12.828   4.284
11894SOL     OW37455   4.159   0.226  13.582
11894SOL    HW137456   4.084   0.166  13.586
11894SOL    HW237457   4.129   0.296  13.524
11895SOL     OW37458  11.768  10.779  14.334
11895SOL    HW137459  11.735  10.867  14.316
11895SOL    HW237460  11.843  10.770  14.275
11896SOL     OW37461  11.878   6.278   5.217
11896SOL    HW137462  11.926   6.350   5.258
11896SOL    HW237463  11.919   6.199   5.252
11897SOL     OW37464   6.407  13.432   6.456
11897SOL    HW137465   6.442  13.494   6.521
11897SOL    HW237466   6.382  13.355   6.508
11898SOL     OW37467  12.812  10.677   9.860
11898SOL    HW137468  12.877  10.695   9.927
11898SOL    HW237469  12.862  10.645   9.785
11899SOL     OW37470   4.690   3.213   7.832
11899SOL    HW137471   4.778   3.222   7.793
11899SOL    HW237472   4.692   3.129   7.877
11900SOL     OW37473   3.091   8.029   3.414
11900SOL    HW137474   3.092   8.084   3.335
11900SOL    HW237475   3.183   8.005   3.427
11901SOL     OW37476  13.811  11.143  11.904
11901SOL    HW137477  13.829  11.115  11.994
11901SOL    HW237478  13.740  11.206  11.912
11902SOL     OW37479   2.875   5.953   1.085
11902SOL    HW137480   2.812   6.004   1.135
11902SOL    HW237481   2.827   5.873   1.061
11903SOL     OW37482  12.247   7.448  10.994
11903SOL    HW137483  12.311   7.378  10.986
11903SOL    HW237484  12.230   7.477  10.905
11904SOL     OW37485   7.748   7.189   2.336
11904SOL    HW137486   7.800   7.168   2.258
11904SOL    HW237487   7.666   7.224   2.301
11905SOL     OW37488   4.790   6.597   6.829
11905SOL    HW137489   4.700   6.568   6.814
11905SOL    HW237490   4.783   6.692   6.838
11906SOL     OW37491   9.822  11.566   4.040
11906SOL    HW137492   9.815  11.541   3.948
11906SOL    HW237493   9.734  11.552   4.075
11907SOL     OW37494   0.716   6.546   7.898
11907SOL    HW137495   0.696   6.460   7.861
11907SOL    HW237496   0.811   6.549   7.903
11908SOL     OW37497   9.836  11.999   4.886
11908SOL    HW137498   9.907  11.980   4.947
11908SOL    HW237499   9.854  11.943   4.810
11909SOL     OW37500   7.049  11.224  13.356
11909SOL    HW137501   7.137  11.214  13.393
11909SOL    HW237502   7.040  11.151  13.295
11910SOL     OW37503  13.776   4.184   1.807
11910SOL    HW137504  13.787   4.271   1.769
11910SOL    HW237505  13.781   4.199   1.902
11911SOL     OW37506   2.253   3.702   0.910
11911SOL    HW137507   2.338   3.658   0.897
11911SOL    HW237508   2.189   3.632   0.902
11912SOL     OW37509  10.617  12.910   2.702
11912SOL    HW137510  10.606  12.954   2.786
11912SOL    HW237511  10.555  12.953   2.643
11913SOL     OW37512   0.647   8.295   1.610
11913SOL    HW137513   0.687   8.341   1.684
11913SOL    HW237514   0.563   8.263   1.643
11914SOL     OW37515   5.357  14.276  13.693
11914SOL    HW137516   5.386  14.235  13.774
11914SOL    HW237517   5.344  14.368  13.715
11915SOL     OW37518   2.197   5.645   1.620
11915SOL    HW137519   2.272   5.661   1.677
11915SOL    HW237520   2.128   5.701   1.655
11916SOL     OW37521   2.738   9.499   5.411
11916SOL    HW137522   2.774   9.478   5.497
11916SOL    HW237523   2.703   9.588   5.420
11917SOL     OW37524   3.936   6.403  10.113
11917SOL    HW137525   3.852   6.364  10.135
11917SOL    HW237526   3.979   6.417  10.198
11918SOL     OW37527   6.691   6.299   8.023
11918SOL    HW137528   6.667   6.358   8.094
11918SOL    HW237529   6.618   6.237   8.017
11919SOL     OW37530   0.106  13.007   1.945
11919SOL    HW137531   0.118  13.024   2.038
11919SOL    HW237532   0.064  13.085   1.911
11920SOL     OW37533   9.059   8.064   0.182
11920SOL    HW137534   9.145   8.095   0.211
11920SOL    HW237535   9.030   8.129   0.119
11921SOL     OW37536   7.302   0.931   9.339
11921SOL    HW137537   7.250   0.851   9.342
11921SOL    HW237538   7.393   0.901   9.344
11922SOL     OW37539  11.787   2.045   0.945
11922SOL    HW137540  11.693   2.047   0.961
11922SOL    HW237541  11.824   2.002   1.022
11923SOL     OW37542   5.881  10.536   4.461
11923SOL    HW137543   5.868  10.629   4.479
11923SOL    HW237544   5.936  10.534   4.383
11924SOL     OW37545   9.391   3.618   0.346
11924SOL    HW137546   9.404   3.712   0.358
11924SOL    HW237547   9.306   3.601   0.386
11925SOL     OW37548  13.324   9.740   3.950
11925SOL    HW137549  13.270   9.683   4.006
11925SOL    HW237550  13.408   9.745   3.995
11926SOL     OW37551   4.626   5.190   9.408
11926SOL    HW137552   4.673   5.153   9.333
11926SOL    HW237553   4.693   5.238   9.456
11927SOL     OW37554  14.818  14.265  12.556
11927SOL    HW137555  14.876  14.195  12.586
11927SOL    HW237556  14.819  14.258  12.461
11928SOL     OW37557   7.144   7.890  12.165
11928SOL    HW137558   7.121   7.840  12.086
11928SOL    HW237559   7.175   7.974  12.132
11929SOL     OW37560  10.482  14.568   3.638
11929SOL    HW137561  10.444  14.649   3.602
11929SOL    HW237562  10.406  14.512   3.655
11930SOL     OW37563  14.033   0.760  12.226
11930SOL    HW137564  13.939   0.755  12.206
11930SOL    HW237565  14.037   0.751  12.322
11931SOL     OW37566   0.730   5.032   6.793
11931SOL    HW137567   0.675   5.047   6.870
11931SOL    HW237568   0.752   4.939   6.798
11932SOL     OW37569   8.232   4.195  13.786
11932SOL    HW137570   8.168   4.243  13.733
11932SOL    HW237571   8.261   4.123  13.730
11933SOL     OW37572  10.942   0.086   8.715
11933SOL    HW137573  10.943   0.121   8.626
11933SOL    HW237574  10.856   0.108   8.749
11934SOL     OW37575   6.390  12.749  14.173
11934SOL    HW137576   6.414  12.748  14.081
11934SOL    HW237577   6.437  12.825  14.209
11935SOL     OW37578   1.559  13.892  13.570
11935SOL    HW137579   1.532  13.983  13.581
11935SOL    HW237580   1.580  13.862  13.658
11936SOL     OW37581  13.455   3.512   0.121
11936SOL    HW137582  13.449   3.597   0.163
11936SOL    HW237583  13.412   3.452   0.181
11937SOL     OW37584   5.474   0.092   3.359
11937SOL    HW137585   5.489   0.004   3.325
11937SOL    HW237586   5.517   0.093   3.444
11938SOL     OW37587   5.719   1.718  14.480
11938SOL    HW137588   5.680   1.744  14.563
11938SOL    HW237589   5.794   1.664  14.504
11939SOL     OW37590  14.345   5.948   3.259
11939SOL    HW137591  14.354   6.023   3.199
11939SOL    HW237592  14.259   5.960   3.299
11940SOL     OW37593   8.477   1.799   3.664
11940SOL    HW137594   8.524   1.779   3.584
11940SOL    HW237595   8.524   1.752   3.732
11941SOL     OW37596   5.980   1.487   8.095
11941SOL    HW137597   5.903   1.544   8.090
11941SOL    HW237598   5.946   1.405   8.132
11942SOL     OW37599   6.459  14.283   2.507
11942SOL    HW137600   6.428  14.266   2.418
11942SOL    HW237601   6.555  14.280   2.500
11943SOL     OW37602  12.046   6.965   7.811
11943SOL    HW137603  12.028   7.000   7.724
11943SOL    HW237604  12.004   7.026   7.871
11944SOL     OW37605   2.382  10.643   8.119
11944SOL    HW137606   2.325  10.683   8.053
11944SOL    HW237607   2.401  10.556   8.084
11945SOL     OW37608   6.201   8.444   0.965
11945SOL    HW137609   6.235   8.528   0.936
11945SOL    HW237610   6.106   8.457   0.971
11946SOL     OW37611   3.170   1.658  13.465
11946SOL    HW137612   3.090   1.642  13.415
11946SOL    HW237613   3.208   1.736  13.424
11947SOL     OW37614  12.452  14.624   8.673
11947SOL    HW137615  12.482  14.590   8.588
11947SOL    HW237616  12.424  14.713   8.654
11948SOL     OW37617  11.541   6.484  11.878
11948SOL    HW137618  11.521   6.577  11.880
11948SOL    HW237619  11.507   6.449  11.960
11949SOL     OW37620   9.607  11.939   9.835
11949SOL    HW137621   9.645  11.997   9.768
11949SOL    HW237622   9.678  11.924   9.897
11950SOL     OW37623  12.787  13.873  12.300
11950SOL    HW137624  12.751  13.939  12.359
11950SOL    HW237625  12.752  13.790  12.332
11951SOL     OW37626   6.783   4.411   1.961
11951SOL    HW137627   6.807   4.438   2.049
11951SOL    HW237628   6.722   4.478   1.931
11952SOL     OW37629  10.456   5.478  10.966
11952SOL    HW137630  10.392   5.485  11.036
11952SOL    HW237631  10.410   5.432  10.896
11953SOL     OW37632  13.987  11.875   5.893
11953SOL    HW137633  13.913  11.815   5.886
11953SOL    HW237634  13.949  11.956   5.926
11954SOL     OW37635  11.304   7.838   0.655
11954SOL    HW137636  11.302   7.931   0.631
11954SOL    HW237637  11.397   7.819   0.667
11955SOL     OW37638   5.384   3.908  14.626
11955SOL    HW137639   5.357   3.821  14.654
11955SOL    HW237640   5.412   3.897  14.535
11956SOL     OW37641  14.088   5.467  14.479
11956SOL    HW137642  14.085   5.554  14.440
11956SOL    HW237643  14.155   5.473  14.546
11957SOL     OW37644   9.637   1.140   0.521
11957SOL    HW137645   9.588   1.195   0.458
11957SOL    HW237646   9.692   1.202   0.568
11958SOL     OW37647   6.605  13.985  10.875
11958SOL    HW137648   6.665  14.060  10.884
11958SOL    HW237649   6.644  13.917  10.930
11959SOL     OW37650  11.510   1.330   5.790
11959SOL    HW137651  11.458   1.398   5.834
11959SOL    HW237652  11.557   1.287   5.862
11960SOL     OW37653   9.775   9.424   7.315
11960SOL    HW137654   9.727   9.457   7.391
11960SOL    HW237655   9.742   9.335   7.304
11961SOL     OW37656   6.131  13.403   4.488
11961SOL    HW137657   6.215  13.412   4.534
11961SOL    HW237658   6.139  13.320   4.441
11962SOL     OW37659   2.020   8.514   7.794
11962SOL    HW137660   2.020   8.563   7.711
11962SOL    HW237661   2.071   8.569   7.854
11963SOL     OW37662  11.609   9.977  12.267
11963SOL    HW137663  11.523   9.965  12.228
11963SOL    HW237664  11.661  10.018  12.198
11964SOL     OW37665   2.990   3.657  14.591
11964SOL    HW137666   3.023   3.722  14.653
11964SOL    HW237667   3.026   3.685  14.507
11965SOL     OW37668   7.804  14.079  12.070
11965SOL    HW137669   7.743  14.152  12.079
11965SOL    HW237670   7.869  14.094  12.139
11966SOL     OW37671   9.882  10.257   5.577
11966SOL    HW137672   9.789  10.265   5.598
11966SOL    HW237673   9.926  10.262   5.662
11967SOL     OW37674  14.639  14.848   6.941
11967SOL    HW137675  14.625   0.031   7.010
11967SOL    HW237676  14.732  14.856   6.920
11968SOL     OW37677   1.685   1.259  12.920
11968SOL    HW137678   1.774   1.290  12.936
11968SOL    HW237679   1.695   1.167  12.895
11969SOL     OW37680  14.551  14.044  12.343
11969SOL    HW137681  14.552  13.952  12.317
11969SOL    HW237682  14.525  14.091  12.264
11970SOL     OW37683   4.816   9.112   6.604
11970SOL    HW137684   4.886   9.144   6.548
11970SOL    HW237685   4.753   9.184   6.609
11971SOL     OW37686   1.584   5.789   5.855
11971SOL    HW137687   1.625   5.875   5.867
11971SOL    HW237688   1.577   5.754   5.944
11972SOL     OW37689   1.972   4.591   3.631
11972SOL    HW137690   2.013   4.510   3.661
11972SOL    HW237691   2.038   4.632   3.575
11973SOL     OW37692   2.630   8.538   1.953
11973SOL    HW137693   2.666   8.615   1.909
11973SOL    HW237694   2.704   8.499   1.999
11974SOL     OW37695   5.407   2.954  13.498
11974SOL    HW137696   5.406   2.878  13.440
11974SOL    HW237697   5.380   2.920  13.583
11975SOL     OW37698   9.237  11.536  13.992
11975SOL    HW137699   9.201  11.448  14.006
11975SOL    HW237700   9.162  11.594  14.005
11976SOL     OW37701  13.573  13.968   9.679
11976SOL    HW137702  13.640  13.900   9.685
11976SOL    HW237703  13.532  13.969   9.766
11977SOL     OW37704   9.389   6.185  12.217
11977SOL    HW137705   9.382   6.096  12.180
11977SOL    HW237706   9.472   6.218  12.184
11978SOL     OW37707   5.120   8.416   9.105
11978SOL    HW137708   5.171   8.381   9.178
11978SOL    HW237709   5.127   8.349   9.037
11979SOL     OW37710  10.456  13.071  13.567
11979SOL    HW137711  10.390  13.020  13.615
11979SOL    HW237712  10.495  13.007  13.506
11980SOL     OW37713   9.625   8.204   1.663
11980SOL    HW137714   9.689   8.268   1.693
11980SOL    HW237715   9.583   8.172   1.742
11981SOL     OW37716   5.383   6.002  10.915
11981SOL    HW137717   5.447   6.064  10.882
11981SOL    HW237718   5.376   6.021  11.008
11982SOL     OW37719   7.343   7.390  10.217
11982SOL    HW137720   7.336   7.349  10.303
11982SOL    HW237721   7.384   7.475  10.234
11983SOL     OW37722   3.632   5.015  11.548
11983SOL    HW137723   3.591   5.089  11.504
11983SOL    HW237724   3.559   4.970  11.591
11984SOL     OW37725  12.078   6.973   0.654
11984SOL    HW137726  12.042   6.947   0.739
11984SOL    HW237727  12.101   6.891   0.611
11985SOL     OW37728   6.126   4.516  14.095
11985SOL    HW137729   6.064   4.449  14.124
11985SOL    HW237730   6.205   4.500  14.145
11986SOL     OW37731  14.823  13.922   2.229
11986SOL    HW137732  14.792  13.845   2.277
11986SOL    HW237733   0.037  13.920   2.239
11987SOL     OW37734  12.026   9.804  12.341
11987SOL    HW137735  12.081   9.882  12.350
11987SOL    HW237736  11.941   9.831  12.376
11988SOL     OW37737   1.409  11.291  13.173
11988SOL    HW137738   1.325  11.334  13.159
11988SOL    HW237739   1.461  11.312  13.095
11989SOL     OW37740  14.281   9.739   1.278
11989SOL    HW137741  14.261   9.724   1.370
11989SOL    HW237742  14.297   9.833   1.272
11990SOL     OW37743  11.960  13.906   0.877
11990SOL    HW137744  11.898  13.894   0.950
11990SOL    HW237745  11.909  13.950   0.809
11991SOL     OW37746  10.806   5.043   0.670
11991SOL    HW137747  10.778   4.970   0.725
11991SOL    HW237748  10.737   5.051   0.604
11992SOL     OW37749   4.153  13.702   9.489
11992SOL    HW137750   4.218  13.772   9.498
11992SOL    HW237751   4.084  13.725   9.551
11993SOL     OW37752   4.600   9.927   4.109
11993SOL    HW137753   4.667   9.947   4.175
11993SOL    HW237754   4.647   9.877   4.042
11994SOL     OW37755   9.745   1.235   0.939
11994SOL    HW137756   9.794   1.242   1.022
11994SOL    HW237757   9.733   1.141   0.927
11995SOL     OW37758   3.630   3.495   0.472
11995SOL    HW137759   3.651   3.580   0.434
11995SOL    HW237760   3.626   3.435   0.398
11996SOL     OW37761   7.633  10.466  14.820
11996SOL    HW137762   7.659  10.376  14.837
11996SOL    HW237763   7.715  10.511  14.799
11997SOL     OW37764   3.418  14.507  13.500
11997SOL    HW137765   3.412  14.576  13.434
11997SOL    HW237766   3.410  14.426  13.450
11998SOL     OW37767   5.385   8.672  10.384
11998SOL    HW137768   5.421   8.760  10.392
11998SOL    HW237769   5.404   8.630  10.468
11999SOL     OW37770  13.837   4.213   7.726
11999SOL    HW137771  13.906   4.229   7.662
11999SOL    HW237772  13.757   4.207   7.673
12000SOL     OW37773   9.681   6.675   5.370
12000SOL    HW137774   9.759   6.728   5.384
12000SOL    HW237775   9.710   6.585   5.380
12001SOL     OW37776   0.394   7.648   5.039
12001SOL    HW137777   0.446   7.723   5.010
12001SOL    HW237778   0.368   7.670   5.128
12002SOL     OW37779  11.487  13.443  10.599
12002SOL    HW137780  11.473  13.511  10.665
12002SOL    HW237781  11.419  13.377  10.617
12003SOL     OW37782   2.089  12.452   2.668
12003SOL    HW137783   2.163  12.512   2.660
12003SOL    HW237784   2.040  12.483   2.744
12004SOL     OW37785   8.325   6.211   3.360
12004SOL    HW137786   8.368   6.130   3.333
12004SOL    HW237787   8.392   6.258   3.409
12005SOL     OW37788   9.784  12.547   3.380
12005SOL    HW137789   9.812  12.466   3.338
12005SOL    HW237790   9.720  12.519   3.446
12006SOL     OW37791  13.305   9.889   8.813
12006SOL    HW137792  13.229   9.947   8.823
12006SOL    HW237793  13.380   9.945   8.833
12007SOL     OW37794   5.960  13.403   4.014
12007SOL    HW137795   5.955  13.488   3.971
12007SOL    HW237796   6.052  13.394   4.040
12008SOL     OW37797  12.322   8.407   0.629
12008SOL    HW137798  12.416   8.413   0.614
12008SOL    HW237799  12.283   8.473   0.570
12009SOL     OW37800  10.479  12.722   7.296
12009SOL    HW137801  10.401  12.678   7.330
12009SOL    HW237802  10.447  12.774   7.223
12010SOL     OW37803   3.758   7.678  11.415
12010SOL    HW137804   3.697   7.626  11.364
12010SOL    HW237805   3.719   7.765  11.421
12011SOL     OW37806   0.306   8.846   1.958
12011SOL    HW137807   0.228   8.809   1.917
12011SOL    HW237808   0.320   8.929   1.913
12012SOL     OW37809   1.839  13.670   5.884
12012SOL    HW137810   1.793  13.612   5.824
12012SOL    HW237811   1.830  13.628   5.970
12013SOL     OW37812   9.063   4.285   2.654
12013SOL    HW137813   9.003   4.338   2.706
12013SOL    HW237814   9.142   4.277   2.707
12014SOL     OW37815   0.015  11.129  12.319
12014SOL    HW137816  14.826  11.111  12.381
12014SOL    HW237817  14.869  11.084  12.239
12015SOL     OW37818   9.300  14.578   6.273
12015SOL    HW137819   9.357  14.532   6.211
12015SOL    HW237820   9.285  14.664   6.233
12016SOL     OW37821  12.727  10.717  13.673
12016SOL    HW137822  12.764  10.796  13.634
12016SOL    HW237823  12.790  10.693  13.741
12017SOL     OW37824   5.789   0.423   2.437
12017SOL    HW137825   5.821   0.338   2.407
12017SOL    HW237826   5.700   0.405   2.469
12018SOL     OW37827   4.505   1.884   5.427
12018SOL    HW137828   4.466   1.905   5.342
12018SOL    HW237829   4.511   1.789   5.428
12019SOL     OW37830   7.181   5.004  12.559
12019SOL    HW137831   7.167   5.040  12.647
12019SOL    HW237832   7.258   5.050  12.526
12020SOL     OW37833  14.616   2.259  14.238
12020SOL    HW137834  14.529   2.278  14.273
12020SOL    HW237835  14.656   2.346  14.225
12021SOL     OW37836   8.613   9.821   4.485
12021SOL    HW137837   8.639   9.868   4.405
12021SOL    HW237838   8.571   9.741   4.453
12022SOL     OW37839   1.956   8.255   8.643
12022SOL    HW137840   1.899   8.257   8.720
12022SOL    HW237841   1.990   8.165   8.641
12023SOL     OW37842   1.917   4.125   2.399
12023SOL    HW137843   1.947   4.216   2.389
12023SOL    HW237844   1.997   4.073   2.400
12024SOL     OW37845   0.039  13.311   8.523
12024SOL    HW137846   0.047  13.363   8.443
12024SOL    HW237847   0.067  13.223   8.498
12025SOL     OW37848   4.123   2.795  14.699
12025SOL    HW137849   4.173   2.852  14.757
12025SOL    HW237850   4.168   2.711  14.703
12026SOL     OW37851   2.497   5.963   3.420
12026SOL    HW137852   2.444   5.966   3.500
12026SOL    HW237853   2.467   6.038   3.369
12027SOL     OW37854   3.763  12.832   2.644
12027SOL    HW137855   3.845  12.881   2.642
12027SOL    HW237856   3.788  12.743   2.619
12028SOL     OW37857   0.278   2.502  13.722
12028SOL    HW137858   0.249   2.494  13.813
12028SOL    HW237859   0.370   2.527  13.729
12029SOL     OW37860   9.554   1.464   0.933
12029SOL    HW137861   9.575   1.544   0.981
12029SOL    HW237862   9.624   1.403   0.958
12030SOL     OW37863  11.030  12.477   7.499
12030SOL    HW137864  11.046  12.561   7.540
12030SOL    HW237865  10.986  12.425   7.567
12031SOL     OW37866   0.530   9.830   9.550
12031SOL    HW137867   0.435   9.829   9.543
12031SOL    HW237868   0.561   9.851   9.462
12032SOL     OW37869   3.694   7.316  11.452
12032SOL    HW137870   3.737   7.267  11.522
12032SOL    HW237871   3.757   7.382  11.425
12033SOL     OW37872   2.461   1.916   9.645
12033SOL    HW137873   2.505   1.845   9.691
12033SOL    HW237874   2.376   1.879   9.622
12034SOL     OW37875   2.823   3.038   4.874
12034SOL    HW137876   2.793   3.066   4.788
12034SOL    HW237877   2.796   3.109   4.933
12035SOL     OW37878   9.347   1.226   3.895
12035SOL    HW137879   9.320   1.204   3.983
12035SOL    HW237880   9.441   1.245   3.903
12036SOL     OW37881  14.561   1.432  11.328
12036SOL    HW137882  14.569   1.493  11.255
12036SOL    HW237883  14.467   1.428  11.346
12037SOL     OW37884   4.343  14.675   1.107
12037SOL    HW137885   4.437  14.663   1.093
12037SOL    HW237886   4.314  14.593   1.148
12038SOL     OW37887   2.722   8.478   9.850
12038SOL    HW137888   2.794   8.417   9.866
12038SOL    HW237889   2.661   8.461   9.922
12039SOL     OW37890   8.499   4.277  14.415
12039SOL    HW137891   8.541   4.334  14.350
12039SOL    HW237892   8.421   4.324  14.442
12040SOL     OW37893  11.590  11.446  10.696
12040SOL    HW137894  11.673  11.429  10.651
12040SOL    HW237895  11.524  11.440  10.627
12041SOL     OW37896   3.603   8.861   9.141
12041SOL    HW137897   3.508   8.854   9.147
12041SOL    HW237898   3.618   8.947   9.100
12042SOL     OW37899   3.791  12.721   0.511
12042SOL    HW137900   3.737  12.724   0.590
12042SOL    HW237901   3.816  12.629   0.502
12043SOL     OW37902  10.958   7.689   5.837
12043SOL    HW137903  10.975   7.645   5.754
12043SOL    HW237904  10.924   7.621   5.895
12044SOL     OW37905   2.524  11.643  12.960
12044SOL    HW137906   2.490  11.702  12.892
12044SOL    HW237907   2.611  11.677  12.980
12045SOL     OW37908  12.991   6.082   4.027
12045SOL    HW137909  13.012   6.075   4.120
12045SOL    HW237910  12.902   6.117   4.024
12046SOL     OW37911   9.505   3.535   1.995
12046SOL    HW137912   9.559   3.514   2.071
12046SOL    HW237913   9.547   3.611   1.956
12047SOL     OW37914   2.494  13.946   2.292
12047SOL    HW137915   2.424  13.903   2.342
12047SOL    HW237916   2.567  13.952   2.353
12048SOL     OW37917  14.250   7.780   0.523
12048SOL    HW137918  14.167   7.789   0.476
12048SOL    HW237919  14.305   7.849   0.487
12049SOL     OW37920   6.336   1.220   9.695
12049SOL    HW137921   6.333   1.311   9.725
12049SOL    HW237922   6.372   1.226   9.606
12050SOL     OW37923   5.066   7.200   4.909
12050SOL    HW137924   5.111   7.116   4.917
12050SOL    HW237925   5.011   7.190   4.832
12051SOL     OW37926  10.560   3.930  13.273
12051SOL    HW137927  10.544   3.953  13.364
12051SOL    HW237928  10.473   3.908  13.238
12052SOL     OW37929   9.464  14.744   1.157
12052SOL    HW137930   9.518  14.720   1.232
12052SOL    HW237931   9.374  14.731   1.187
12053SOL     OW37932  13.967   8.590   9.899
12053SOL    HW137933  13.907   8.664   9.913
12053SOL    HW237934  13.983   8.555   9.986
12054SOL     OW37935   9.951   0.535   0.300
12054SOL    HW137936   9.979   0.445   0.291
12054SOL    HW237937   9.993   0.581   0.227
12055SOL     OW37938  12.551  14.331  10.217
12055SOL    HW137939  12.640  14.324  10.251
12055SOL    HW237940  12.499  14.273  10.272
12056SOL     OW37941   6.705  14.749   5.294
12056SOL    HW137942   6.609  14.750   5.296
12056SOL    HW237943   6.729  14.841   5.278
12057SOL     OW37944   8.088   7.795   6.127
12057SOL    HW137945   8.135   7.851   6.065
12057SOL    HW237946   8.103   7.706   6.094
12058SOL     OW37947   3.392   4.368  10.648
12058SOL    HW137948   3.486   4.372  10.668
12058SOL    HW237949   3.350   4.352  10.732
12059SOL     OW37950  11.191   9.027   8.087
12059SOL    HW137951  11.165   8.944   8.045
12059SOL    HW237952  11.127   9.040   8.157
12060SOL     OW37953  12.525  10.322   2.678
12060SOL    HW137954  12.553  10.311   2.587
12060SOL    HW237955  12.606  10.314   2.728
12061SOL     OW37956  12.684   7.906  10.065
12061SOL    HW137957  12.638   7.989  10.074
12061SOL    HW237958  12.757   7.912  10.127
12062SOL     OW37959   2.164  11.432  11.232
12062SOL    HW137960   2.221  11.389  11.169
12062SOL    HW237961   2.107  11.362  11.264
12063SOL     OW37962   0.442  10.449   7.384
12063SOL    HW137963   0.355  10.416   7.361
12063SOL    HW237964   0.426  10.535   7.422
12064SOL     OW37965   9.006  14.243   8.238
12064SOL    HW137966   9.026  14.270   8.327
12064SOL    HW237967   8.911  14.249   8.231
12065SOL     OW37968  11.400   2.828   2.120
12065SOL    HW137969  11.427   2.895   2.183
12065SOL    HW237970  11.363   2.758   2.173
12066SOL     OW37971   1.434  13.081   6.936
12066SOL    HW137972   1.359  13.048   6.985
12066SOL    HW237973   1.511  13.048   6.984
12067SOL     OW37974   0.772  13.501  13.498
12067SOL    HW137975   0.830  13.577  13.489
12067SOL    HW237976   0.729  13.493  13.414
12068SOL     OW37977  13.740  13.239  14.401
12068SOL    HW137978  13.645  13.227  14.395
12068SOL    HW237979  13.775  13.186  14.328
12069SOL     OW37980  12.750   6.872   1.491
12069SOL    HW137981  12.770   6.802   1.429
12069SOL    HW237982  12.656   6.886   1.483
12070SOL     OW37983  13.503  12.891   6.919
12070SOL    HW137984  13.474  12.883   7.010
12070SOL    HW237985  13.458  12.970   6.888
12071SOL     OW37986   3.968   9.556   4.012
12071SOL    HW137987   4.042   9.611   3.985
12071SOL    HW237988   3.958   9.574   4.105
12072SOL     OW37989   6.079   7.013   7.752
12072SOL    HW137990   6.042   6.986   7.836
12072SOL    HW237991   6.173   6.999   7.762
12073SOL     OW37992  14.192  14.485  10.771
12073SOL    HW137993  14.281  14.455  10.755
12073SOL    HW237994  14.161  14.433  10.845
12074SOL     OW37995  10.500   4.367  14.439
12074SOL    HW137996  10.561   4.304  14.401
12074SOL    HW237997  10.500   4.347  14.533
12075SOL     OW37998  10.909   3.179  13.332
12075SOL    HW137999  10.917   3.220  13.245
12075SOL    HW238000  10.854   3.239  13.382
12076SOL     OW38001   9.251  12.116  13.333
12076SOL    HW138002   9.284  12.180  13.396
12076SOL    HW238003   9.190  12.062  13.384
12077SOL     OW38004   8.047  14.171  13.554
12077SOL    HW138005   8.008  14.256  13.532
12077SOL    HW238006   7.971  14.116  13.576
12078SOL     OW38007  12.109   7.274   8.014
12078SOL    HW138008  12.138   7.246   7.927
12078SOL    HW238009  12.126   7.198   8.070
12079SOL     OW38010   4.827  14.609   0.600
12079SOL    HW138011   4.750  14.613   0.658
12079SOL    HW238012   4.828  14.694   0.557
12080SOL     OW38013   2.035   6.071   0.020
12080SOL    HW138014   2.043   6.064   0.115
12080SOL    HW238015   1.976   6.001  14.876
12081SOL     OW38016   8.329   7.211  12.643
12081SOL    HW138017   8.341   7.131  12.695
12081SOL    HW238018   8.234   7.225  12.644
12082SOL     OW38019   0.765   1.760   3.491
12082SOL    HW138020   0.730   1.722   3.572
12082SOL    HW238021   0.692   1.755   3.429
12083SOL     OW38022  12.480  14.386   3.741
12083SOL    HW138023  12.523  14.469   3.720
12083SOL    HW238024  12.483  14.336   3.660
12084SOL     OW38025  13.991   3.792   3.532
12084SOL    HW138026  13.950   3.748   3.458
12084SOL    HW238027  13.928   3.860   3.558
12085SOL     OW38028  11.052   0.874   2.696
12085SOL    HW138029  11.107   0.803   2.729
12085SOL    HW238030  11.088   0.953   2.738
12086SOL     OW38031   5.596   5.944   2.732
12086SOL    HW138032   5.622   6.005   2.800
12086SOL    HW238033   5.673   5.937   2.675
12087SOL     OW38034  12.813  12.046   6.856
12087SOL    HW138035  12.905  12.070   6.869
12087SOL    HW238036  12.788  12.001   6.937
12088SOL     OW38037   5.590   7.966   2.647
12088SOL    HW138038   5.593   8.052   2.689
12088SOL    HW238039   5.626   7.905   2.712
12089SOL     OW38040  11.833  11.769   3.603
12089SOL    HW138041  11.918  11.805   3.578
12089SOL    HW238042  11.815  11.701   3.538
12090SOL     OW38043   6.438   4.227  11.081
12090SOL    HW138044   6.349   4.233  11.115
12090SOL    HW238045   6.469   4.317  11.079
12091SOL     OW38046   7.643   8.646   3.496
12091SOL    HW138047   7.560   8.644   3.449
12091SOL    HW238048   7.706   8.606   3.435
12092SOL     OW38049   7.048  14.191   8.834
12092SOL    HW138050   7.061  14.106   8.791
12092SOL    HW238051   7.136  14.218   8.860
12093SOL     OW38052  10.363   2.605   7.111
12093SOL    HW138053  10.382   2.609   7.018
12093SOL    HW238054  10.389   2.691   7.145
12094SOL     OW38055  12.775  14.247   0.793
12094SOL    HW138056  12.856  14.241   0.741
12094SOL    HW238057  12.710  14.283   0.732
12095SOL     OW38058   8.823  14.881  13.415
12095SOL    HW138059   8.748   0.039  13.459
12095SOL    HW238060   8.883  14.858  13.486
12096SOL     OW38061  12.730   0.278   8.081
12096SOL    HW138062  12.814   0.309   8.114
12096SOL    HW238063  12.677   0.358   8.075
12097SOL     OW38064   0.330   9.345  14.002
12097SOL    HW138065   0.404   9.338  13.941
12097SOL    HW238066   0.321   9.439  14.019
12098SOL     OW38067   3.560  10.091   9.471
12098SOL    HW138068   3.496  10.023   9.493
12098SOL    HW238069   3.522  10.135   9.394
12099SOL     OW38070   8.927   9.374   9.535
12099SOL    HW138071   8.851   9.431   9.517
12099SOL    HW238072   8.890   9.301   9.585
12100SOL     OW38073   0.671  12.287   2.745
12100SOL    HW138074   0.684  12.193   2.752
12100SOL    HW238075   0.759  12.324   2.740
12101SOL     OW38076  10.749   2.559   9.846
12101SOL    HW138077  10.663   2.517   9.842
12101SOL    HW238078  10.807   2.492   9.883
12102SOL     OW38079   2.629   6.585   9.548
12102SOL    HW138080   2.636   6.493   9.571
12102SOL    HW238081   2.586   6.626   9.623
12103SOL     OW38082   9.358   1.176   9.825
12103SOL    HW138083   9.448   1.189   9.795
12103SOL    HW238084   9.319   1.119   9.759
12104SOL     OW38085  10.667  10.635  10.580
12104SOL    HW138086  10.632  10.681  10.656
12104SOL    HW238087  10.728  10.697  10.541
12105SOL     OW38088   2.077   1.157   1.110
12105SOL    HW138089   2.105   1.190   1.195
12105SOL    HW238090   2.103   1.226   1.048
12106SOL     OW38091   4.772   7.688   4.279
12106SOL    HW138092   4.783   7.692   4.183
12106SOL    HW238093   4.814   7.605   4.303
12107SOL     OW38094   9.449  14.236  12.557
12107SOL    HW138095   9.457  14.313  12.500
12107SOL    HW238096   9.497  14.167  12.512
12108SOL     OW38097   0.251  12.770  12.531
12108SOL    HW138098   0.258  12.719  12.450
12108SOL    HW238099   0.207  12.851  12.504
12109SOL     OW38100  13.612  11.054   7.130
12109SOL    HW138101  13.695  11.010   7.149
12109SOL    HW238102  13.606  11.053   7.035
12110SOL     OW38103   2.103   3.104  12.921
12110SOL    HW138104   2.030   3.076  12.865
12110SOL    HW238105   2.080   3.073  13.008
12111SOL     OW38106  11.256   1.113   4.917
12111SOL    HW138107  11.270   1.186   4.977
12111SOL    HW238108  11.269   1.035   4.971
12112SOL     OW38109   8.337   0.868  12.947
12112SOL    HW138110   8.285   0.918  12.885
12112SOL    HW238111   8.325   0.776  12.921
12113SOL     OW38112   6.725   7.433   0.942
12113SOL    HW138113   6.775   7.376   1.000
12113SOL    HW238114   6.675   7.490   1.001
12114SOL     OW38115   3.803   0.860  11.323
12114SOL    HW138116   3.709   0.848  11.314
12114SOL    HW238117   3.818   0.953  11.309
12115SOL     OW38118   2.734  11.590  10.643
12115SOL    HW138119   2.699  11.510  10.683
12115SOL    HW238120   2.813  11.610  10.694
12116SOL     OW38121   0.889  13.117  10.170
12116SOL    HW138122   0.876  13.072  10.087
12116SOL    HW238123   0.978  13.151  10.165
12117SOL     OW38124   6.217   4.993   9.960
12117SOL    HW138125   6.217   4.969   9.867
12117SOL    HW238126   6.135   4.958   9.994
12118SOL     OW38127   3.972   7.397  11.807
12118SOL    HW138128   4.019   7.436  11.734
12118SOL    HW238129   3.910   7.336  11.767
12119SOL     OW38130  12.865   9.264  14.673
12119SOL    HW138131  12.954   9.299  14.674
12119SOL    HW238132  12.821   9.309  14.746
12120SOL     OW38133   3.328   3.998   5.791
12120SOL    HW138134   3.321   4.078   5.842
12120SOL    HW238135   3.393   3.945   5.837
12121SOL     OW38136  10.438  11.429   9.850
12121SOL    HW138137  10.401  11.359   9.903
12121SOL    HW238138  10.432  11.397   9.760
12122SOL     OW38139   0.113   7.314   8.618
12122SOL    HW138140   0.144   7.383   8.677
12122SOL    HW238141   0.118   7.353   8.531
12123SOL     OW38142   5.502   8.999  10.184
12123SOL    HW138143   5.408   9.012  10.170
12123SOL    HW238144   5.507   8.938  10.257
12124SOL     OW38145   2.317   5.030   4.136
12124SOL    HW138146   2.249   5.015   4.071
12124SOL    HW238147   2.355   5.115   4.112
12125SOL     OW38148   3.551   5.815   7.798
12125SOL    HW138149   3.504   5.792   7.878
12125SOL    HW238150   3.616   5.879   7.825
12126SOL     OW38151  10.576   7.265  12.611
12126SOL    HW138152  10.536   7.235  12.528
12126SOL    HW238153  10.541   7.205  12.677
12127SOL     OW38154   5.139   2.708   2.622
12127SOL    HW138155   5.097   2.776   2.570
12127SOL    HW238156   5.106   2.626   2.585
12128SOL     OW38157   7.675   1.763  11.676
12128SOL    HW138158   7.630   1.801  11.751
12128SOL    HW238159   7.609   1.760  11.607
12129SOL     OW38160   6.738  12.597   5.174
12129SOL    HW138161   6.715  12.682   5.138
12129SOL    HW238162   6.679  12.585   5.249
12130SOL     OW38163   6.815   8.581   9.490
12130SOL    HW138164   6.763   8.530   9.553
12130SOL    HW238165   6.759   8.586   9.412
12131SOL     OW38166  14.256   0.682   5.285
12131SOL    HW138167  14.184   0.744   5.290
12131SOL    HW238168  14.334   0.736   5.274
12132SOL     OW38169  11.682   4.224   5.755
12132SOL    HW138170  11.764   4.244   5.800
12132SOL    HW238171  11.704   4.230   5.662
12133SOL     OW38172   8.543  11.395   7.621
12133SOL    HW138173   8.504  11.414   7.707
12133SOL    HW238174   8.470  11.362   7.569
12134SOL     OW38175  13.615   9.849   6.024
12134SOL    HW138176  13.618   9.930   5.973
12134SOL    HW238177  13.702   9.843   6.064
12135SOL     OW38178   7.115   2.914  12.184
12135SOL    HW138179   7.116   2.955  12.098
12135SOL    HW238180   7.034   2.863  12.185
12136SOL     OW38181  14.559   8.977   4.835
12136SOL    HW138182  14.624   8.926   4.884
12136SOL    HW238183  14.599   8.990   4.749
12137SOL     OW38184   0.230   6.562  11.599
12137SOL    HW138185   0.305   6.617  11.623
12137SOL    HW238186   0.254   6.474  11.630
12138SOL     OW38187   4.195   4.918   9.199
12138SOL    HW138188   4.168   4.893   9.287
12138SOL    HW238189   4.120   4.895   9.144
12139SOL     OW38190   5.649   0.260   1.815
12139SOL    HW138191   5.730   0.209   1.819
12139SOL    HW238192   5.582   0.200   1.846
12140SOL     OW38193  11.063   4.569   5.307
12140SOL    HW138194  10.999   4.584   5.237
12140SOL    HW238195  11.025   4.612   5.384
12141SOL     OW38196  11.034   2.726  10.698
12141SOL    HW138197  11.061   2.724  10.790
12141SOL    HW238198  11.010   2.818  10.683
12142SOL     OW38199  10.219   4.975   7.588
12142SOL    HW138200  10.276   5.048   7.562
12142SOL    HW238201  10.275   4.918   7.641
12143SOL     OW38202  12.151   5.750  10.751
12143SOL    HW138203  12.082   5.713  10.695
12143SOL    HW238204  12.133   5.844  10.753
12144SOL     OW38205  11.061  12.331  14.859
12144SOL    HW138206  11.038  12.411   0.025
12144SOL    HW238207  11.026  12.345  14.771
12145SOL     OW38208   3.517   3.508  12.161
12145SOL    HW138209   3.528   3.590  12.113
12145SOL    HW238210   3.523   3.533  12.253
12146SOL     OW38211   4.239  11.697  10.820
12146SOL    HW138212   4.320  11.748  10.818
12146SOL    HW238213   4.237  11.658  10.908
12147SOL     OW38214  11.076  12.428   2.231
12147SOL    HW138215  11.145  12.484   2.267
12147SOL    HW238216  11.016  12.414   2.304
12148SOL     OW38217   8.283   7.629  12.957
12148SOL    HW138218   8.199   7.619  13.002
12148SOL    HW238219   8.262   7.673  12.875
12149SOL     OW38220   0.883   7.108   4.259
12149SOL    HW138221   0.972   7.131   4.234
12149SOL    HW238222   0.885   7.100   4.354
12150SOL     OW38223  10.882   6.616  14.837
12150SOL    HW138224  10.827   6.662  14.773
12150SOL    HW238225  10.897   6.681   0.025
12151SOL     OW38226  13.714  10.968   1.151
12151SOL    HW138227  13.785  10.904   1.158
12151SOL    HW238228  13.758  11.049   1.125
12152SOL     OW38229   7.123  12.136   5.244
12152SOL    HW138230   7.081  12.078   5.181
12152SOL    HW238231   7.206  12.161   5.202
12153SOL     OW38232  10.032   2.920   1.653
12153SOL    HW138233  10.121   2.954   1.644
12153SOL    HW238234  10.042   2.825   1.647
12154SOL     OW38235  13.856   2.708  12.079
12154SOL    HW138236  13.916   2.730  12.151
12154SOL    HW238237  13.914   2.686  12.006
12155SOL     OW38238   1.452   5.811  10.252
12155SOL    HW138239   1.498   5.820  10.336
12155SOL    HW238240   1.499   5.741  10.207
12156SOL     OW38241   2.526   7.897  11.282
12156SOL    HW138242   2.619   7.916  11.265
12156SOL    HW238243   2.519   7.802  11.272
12157SOL     OW38244  13.177   6.637   0.419
12157SOL    HW138245  13.209   6.592   0.341
12157SOL    HW238246  13.115   6.576   0.458
12158SOL     OW38247   6.894  12.209   1.259
12158SOL    HW138248   6.881  12.280   1.196
12158SOL    HW238249   6.951  12.248   1.326
12159SOL     OW38250   7.290  13.374   3.649
12159SOL    HW138251   7.283  13.432   3.725
12159SOL    HW238252   7.210  13.390   3.599
12160SOL     OW38253   8.466  10.195   1.586
12160SOL    HW138254   8.532  10.126   1.576
12160SOL    HW238255   8.392  10.151   1.627
12161SOL     OW38256   0.668  11.957   5.574
12161SOL    HW138257   0.608  11.964   5.648
12161SOL    HW238258   0.624  12.002   5.502
12162SOL     OW38259  14.192   6.061   4.023
12162SOL    HW138260  14.173   6.148   3.987
12162SOL    HW238261  14.253   6.079   4.095
12163SOL     OW38262  14.794  14.330  10.272
12163SOL    HW138263  14.860  14.396  10.294
12163SOL    HW238264  14.830  14.283  10.197
12164SOL     OW38265   8.144   5.939   3.196
12164SOL    HW138266   8.230   5.908   3.166
12164SOL    HW238267   8.108   5.865   3.245
12165SOL     OW38268   4.399   9.257   7.642
12165SOL    HW138269   4.339   9.187   7.615
12165SOL    HW238270   4.475   9.210   7.679
12166SOL     OW38271   9.991  10.058  10.564
12166SOL    HW138272  10.001  10.029  10.473
12166SOL    HW238273  10.022   9.985  10.617
12167SOL     OW38274  13.883  13.286   2.491
12167SOL    HW138275  13.861  13.228   2.565
12167SOL    HW238276  13.828  13.363   2.505
12168SOL     OW38277   7.345   4.270   6.196
12168SOL    HW138278   7.431   4.287   6.235
12168SOL    HW238279   7.363   4.258   6.102
12169SOL     OW38280   9.131  12.405   8.202
12169SOL    HW138281   9.120  12.356   8.283
12169SOL    HW238282   9.124  12.339   8.133
12170SOL     OW38283   3.851   7.992   2.349
12170SOL    HW138284   3.889   8.018   2.266
12170SOL    HW238285   3.924   7.995   2.411
12171SOL     OW38286  12.732   8.873  13.114
12171SOL    HW138287  12.770   8.957  13.138
12171SOL    HW238288  12.759   8.814  13.185
12172SOL     OW38289   3.069   6.551   1.696
12172SOL    HW138290   3.096   6.639   1.669
12172SOL    HW238291   3.120   6.534   1.775
12173SOL     OW38292   8.161  12.239  11.058
12173SOL    HW138293   8.248  12.256  11.092
12173SOL    HW238294   8.137  12.319  11.011
12174SOL     OW38295  10.297  12.451   1.545
12174SOL    HW138296  10.208  12.473   1.515
12174SOL    HW238297  10.293  12.357   1.563
12175SOL     OW38298  12.328   3.493  10.937
12175SOL    HW138299  12.238   3.504  10.906
12175SOL    HW238300  12.325   3.520  11.029
12176SOL     OW38301   8.127   9.154   0.145
12176SOL    HW138302   8.085   9.068   0.142
12176SOL    HW238303   8.056   9.216   0.130
12177SOL     OW38304   1.397   2.585   3.162
12177SOL    HW138305   1.478   2.607   3.116
12177SOL    HW238306   1.366   2.668   3.197
12178SOL     OW38307   9.715   3.299   9.565
12178SOL    HW138308   9.792   3.355   9.565
12178SOL    HW238309   9.669   3.320   9.646
12179SOL     OW38310   8.062   4.417  10.422
12179SOL    HW138311   8.013   4.427  10.503
12179SOL    HW238312   7.997   4.389  10.357
12180SOL     OW38313  14.563  13.451   7.487
12180SOL    HW138314  14.562  13.490   7.575
12180SOL    HW238315  14.511  13.371   7.496
12181SOL     OW38316   2.641   1.462  11.994
12181SOL    HW138317   2.547   1.471  12.009
12181SOL    HW238318   2.649   1.382  11.942
12182SOL     OW38319   1.990  10.115  11.317
12182SOL    HW138320   2.026  10.066  11.391
12182SOL    HW238321   1.913  10.158  11.353
12183SOL     OW38322  12.228  12.886   0.981
12183SOL    HW138323  12.211  12.972   1.020
12183SOL    HW238324  12.280  12.840   1.047
12184SOL     OW38325   0.312  10.519   2.726
12184SOL    HW138326   0.263  10.561   2.797
12184SOL    HW238327   0.249  10.459   2.686
12185SOL     OW38328   6.474  12.930   2.142
12185SOL    HW138329   6.480  12.987   2.219
12185SOL    HW238330   6.453  12.844   2.178
12186SOL     OW38331  11.476  13.602   8.382
12186SOL    HW138332  11.391  13.579   8.420
12186SOL    HW238333  11.517  13.517   8.363
12187SOL     OW38334  10.348  11.495  14.195
12187SOL    HW138335  10.284  11.423  14.200
12187SOL    HW238336  10.297  11.573  14.215
12188SOL     OW38337   5.777  11.074  10.896
12188SOL    HW138338   5.829  11.150  10.870
12188SOL    HW238339   5.842  11.011  10.928
12189SOL     OW38340   5.774   7.154   5.354
12189SOL    HW138341   5.809   7.174   5.267
12189SOL    HW238342   5.757   7.240   5.393
12190SOL     OW38343   1.759  10.498  11.728
12190SOL    HW138344   1.702  10.573  11.710
12190SOL    HW238345   1.844  10.536  11.749
12191SOL     OW38346   1.271  11.537   3.960
12191SOL    HW138347   1.205  11.573   4.019
12191SOL    HW238348   1.346  11.518   4.016
12192SOL     OW38349   1.767  12.675   1.634
12192SOL    HW138350   1.789  12.767   1.621
12192SOL    HW238351   1.724  12.673   1.720
12193SOL     OW38352   8.505  10.580  10.187
12193SOL    HW138353   8.435  10.599  10.250
12193SOL    HW238354   8.561  10.658  10.189
12194SOL     OW38355   9.704   8.980  11.666
12194SOL    HW138356   9.679   8.925  11.592
12194SOL    HW238357   9.698   9.070  11.633
12195SOL     OW38358  14.515   7.933   3.675
12195SOL    HW138359  14.511   8.028   3.664
12195SOL    HW238360  14.563   7.921   3.757
12196SOL     OW38361  13.700  14.750   0.683
12196SOL    HW138362  13.757  14.801   0.625
12196SOL    HW238363  13.701  14.662   0.646
12197SOL     OW38364   3.801   6.028   6.516
12197SOL    HW138365   3.784   5.935   6.528
12197SOL    HW238366   3.738   6.071   6.574
12198SOL     OW38367  12.956  11.561  12.565
12198SOL    HW138368  12.882  11.518  12.521
12198SOL    HW238369  13.026  11.560  12.500
12199SOL     OW38370  13.482   6.418   2.930
12199SOL    HW138371  13.522   6.438   3.014
12199SOL    HW238372  13.499   6.325   2.916
12200SOL     OW38373   4.374   4.297   6.287
12200SOL    HW138374   4.394   4.354   6.362
12200SOL    HW238375   4.444   4.232   6.288
12201SOL     OW38376  14.283  13.301   6.135
12201SOL    HW138377  14.232  13.230   6.097
12201SOL    HW238378  14.217  13.361   6.170
12202SOL     OW38379   0.175  14.624   1.354
12202SOL    HW138380   0.135  14.710   1.363
12202SOL    HW238381   0.205  14.621   1.263
12203SOL     OW38382   2.757   3.148   4.650
12203SOL    HW138383   2.841   3.143   4.604
12203SOL    HW238384   2.692   3.154   4.581
12204SOL     OW38385   6.015   0.316  11.897
12204SOL    HW138386   5.981   0.406  11.902
12204SOL    HW238387   6.053   0.300  11.983
12205SOL     OW38388  14.091   8.346   8.411
12205SOL    HW138389  14.095   8.262   8.365
12205SOL    HW238390  14.167   8.346   8.469
12206SOL     OW38391   0.167   6.815   4.835
12206SOL    HW138392   0.222   6.843   4.761
12206SOL    HW238393   0.165   6.720   4.827
12207SOL     OW38394  13.579  10.933   3.224
12207SOL    HW138395  13.561  11.010   3.169
12207SOL    HW238396  13.674  10.924   3.221
12208SOL     OW38397   1.178  14.093   9.373
12208SOL    HW138398   1.116  14.146   9.323
12208SOL    HW238399   1.203  14.150   9.446
12209SOL     OW38400   4.165   8.362   5.295
12209SOL    HW138401   4.113   8.441   5.278
12209SOL    HW238402   4.143   8.303   5.223
12210SOL     OW38403  10.983   6.527  13.058
12210SOL    HW138404  10.910   6.497  13.002
12210SOL    HW238405  10.955   6.613  13.089
12211SOL     OW38406  10.132   2.463   0.123
12211SOL    HW138407  10.168   2.480   0.210
12211SOL    HW238408  10.119   2.549   0.085
12212SOL     OW38409   9.729   2.557  10.305
12212SOL    HW138410   9.800   2.619  10.290
12212SOL    HW238411   9.661   2.583  10.242
12213SOL     OW38412  12.934   8.450  12.730
12213SOL    HW138413  12.956   8.379  12.791
12213SOL    HW238414  12.888   8.514  12.784
12214SOL     OW38415   5.185   1.532  13.523
12214SOL    HW138416   5.230   1.457  13.562
12214SOL    HW238417   5.229   1.608  13.558
12215SOL     OW38418   8.443   2.567   2.504
12215SOL    HW138419   8.386   2.643   2.515
12215SOL    HW238420   8.384   2.492   2.500
12216SOL     OW38421  10.172   0.598   4.112
12216SOL    HW138422  10.204   0.582   4.201
12216SOL    HW238423  10.078   0.612   4.123
12217SOL     OW38424   2.877  12.522  10.993
12217SOL    HW138425   2.876  12.427  10.980
12217SOL    HW238426   2.899  12.558  10.907
12218SOL     OW38427   9.259   3.449  12.785
12218SOL    HW138428   9.267   3.531  12.833
12218SOL    HW238429   9.225   3.474  12.700
12219SOL     OW38430   9.055   8.821   9.866
12219SOL    HW138431   9.097   8.817   9.952
12219SOL    HW238432   9.127   8.806   9.804
12220SOL     OW38433   5.433  10.952   0.465
12220SOL    HW138434   5.344  10.972   0.494
12220SOL    HW238435   5.483  11.032   0.484
12221SOL     OW38436   9.582  13.427  11.655
12221SOL    HW138437   9.579  13.341  11.612
12221SOL    HW238438   9.616  13.487  11.589
12222SOL     OW38439   3.357  12.036   1.242
12222SOL    HW138440   3.452  12.040   1.252
12222SOL    HW238441   3.325  12.013   1.329
12223SOL     OW38442   9.517   7.039   6.915
12223SOL    HW138443   9.532   7.082   6.830
12223SOL    HW238444   9.441   6.984   6.901
12224SOL     OW38445   9.816   3.138  11.274
12224SOL    HW138446   9.813   3.124  11.368
12224SOL    HW238447   9.811   3.233  11.263
12225SOL     OW38448  11.609   5.132   7.266
12225SOL    HW138449  11.651   5.072   7.328
12225SOL    HW238450  11.515   5.116   7.278
12226SOL     OW38451   1.246  13.272   9.757
12226SOL    HW138452   1.154  13.247   9.749
12226SOL    HW238453   1.244  13.353   9.808
12227SOL     OW38454   4.623   6.835   0.076
12227SOL    HW138455   4.620   6.773   0.003
12227SOL    HW238456   4.536   6.830   0.115
12228SOL     OW38457   1.644   9.528   4.413
12228SOL    HW138458   1.584   9.559   4.345
12228SOL    HW238459   1.588   9.515   4.490
12229SOL     OW38460   1.541  14.530   4.976
12229SOL    HW138461   1.478  14.597   4.948
12229SOL    HW238462   1.624  14.557   4.937
12230SOL     OW38463   9.274  14.731   8.684
12230SOL    HW138464   9.282  14.795   8.755
12230SOL    HW238465   9.360  14.689   8.681
12231SOL     OW38466   3.175   5.376   9.519
12231SOL    HW138467   3.265   5.402   9.499
12231SOL    HW238468   3.181   5.284   9.545
12232SOL     OW38469   9.949   1.917   2.719
12232SOL    HW138470   9.950   1.901   2.813
12232SOL    HW238471   9.938   2.012   2.711
12233SOL     OW38472   1.836   5.558   7.738
12233SOL    HW138473   1.887   5.586   7.662
12233SOL    HW238474   1.900   5.525   7.801
12234SOL     OW38475   9.317   9.694  13.726
12234SOL    HW138476   9.224   9.717  13.724
12234SOL    HW238477   9.348   9.725  13.811
12235SOL     OW38478   0.120   0.415  10.175
12235SOL    HW138479   0.128   0.425  10.080
12235SOL    HW238480   0.126   0.320  10.190
12236SOL     OW38481  13.147   0.534   8.375
12236SOL    HW138482  13.055   0.558   8.382
12236SOL    HW238483  13.183   0.597   8.312
12237SOL     OW38484  11.702  10.124  14.033
12237SOL    HW138485  11.717  10.156  13.944
12237SOL    HW238486  11.773  10.062  14.049
12238SOL     OW38487   8.349   5.945   7.406
12238SOL    HW138488   8.273   5.916   7.355
12238SOL    HW238489   8.316   5.956   7.495
12239SOL     OW38490  12.982   4.552  11.983
12239SOL    HW138491  13.033   4.513  11.912
12239SOL    HW238492  12.908   4.594  11.940
12240SOL     OW38493   1.286   6.730   9.874
12240SOL    HW138494   1.340   6.665   9.829
12240SOL    HW238495   1.332   6.812   9.861
12241SOL     OW38496   5.281   5.845  13.334
12241SOL    HW138497   5.330   5.772  13.294
12241SOL    HW238498   5.348   5.908  13.359
12242SOL     OW38499   7.990   3.592   4.217
12242SOL    HW138500   8.005   3.518   4.158
12242SOL    HW238501   8.004   3.670   4.163
12243SOL     OW38502   3.337   0.484   5.838
12243SOL    HW138503   3.387   0.407   5.867
12243SOL    HW238504   3.314   0.463   5.747
12244SOL     OW38505   3.369   2.199   7.570
12244SOL    HW138506   3.343   2.187   7.479
12244SOL    HW238507   3.464   2.192   7.569
12245SOL     OW38508   1.455   4.975   9.743
12245SOL    HW138509   1.454   4.946   9.652
12245SOL    HW238510   1.363   4.972   9.770
12246SOL     OW38511   8.476   2.353   5.227
12246SOL    HW138512   8.488   2.259   5.213
12246SOL    HW238513   8.548   2.378   5.284
12247SOL     OW38514   6.872   0.281   5.985
12247SOL    HW138515   6.846   0.358   6.036
12247SOL    HW238516   6.827   0.208   6.027
12248SOL     OW38517   0.391   8.884  13.321
12248SOL    HW138518   0.407   8.791  13.331
12248SOL    HW238519   0.297   8.894  13.335
12249SOL     OW38520   4.629   2.285  14.807
12249SOL    HW138521   4.578   2.284  14.726
12249SOL    HW238522   4.632   2.378  14.831
12250SOL     OW38523   6.660   5.261   8.424
12250SOL    HW138524   6.718   5.186   8.428
12250SOL    HW238525   6.708   5.331   8.469
12251SOL     OW38526   0.423   4.954   2.918
12251SOL    HW138527   0.379   5.039   2.926
12251SOL    HW238528   0.497   4.959   2.978
12252SOL     OW38529  11.650  10.555   7.708
12252SOL    HW138530  11.674  10.579   7.619
12252SOL    HW238531  11.706  10.480   7.729
12253SOL     OW38532  13.090   4.712  12.528
12253SOL    HW138533  13.154   4.782  12.517
12253SOL    HW238534  13.062   4.691  12.439
12254SOL     OW38535   7.832   1.754   1.865
12254SOL    HW138536   7.784   1.785   1.788
12254SOL    HW238537   7.766   1.708   1.918
12255SOL     OW38538   7.965   2.606  14.795
12255SOL    HW138539   8.042   2.657  14.772
12255SOL    HW238540   7.972   2.526  14.743
12256SOL     OW38541  12.877  12.202  14.620
12256SOL    HW138542  12.970  12.180  14.632
12256SOL    HW238543  12.835  12.175  14.702
12257SOL     OW38544  13.267   5.032  11.237
12257SOL    HW138545  13.286   5.043  11.144
12257SOL    HW238546  13.330   5.088  11.281
12258SOL     OW38547   4.906   1.152   6.068
12258SOL    HW138548   4.917   1.215   5.996
12258SOL    HW238549   4.993   1.114   6.080
12259SOL     OW38550   2.234   8.308  12.080
12259SOL    HW138551   2.206   8.231  12.129
12259SOL    HW238552   2.324   8.324  12.109
12260SOL     OW38553   0.167  14.673   7.120
12260SOL    HW138554   0.220  14.620   7.179
12260SOL    HW238555   0.157  14.756   7.166
12261SOL     OW38556   4.578   4.571   6.800
12261SOL    HW138557   4.543   4.489   6.765
12261SOL    HW238558   4.651   4.593   6.742
12262SOL     OW38559   2.986   1.490   8.539
12262SOL    HW138560   2.907   1.514   8.587
12262SOL    HW238561   2.955   1.438   8.465
12263SOL     OW38562  12.742   2.777  13.697
12263SOL    HW138563  12.654   2.770  13.660
12263SOL    HW238564  12.748   2.868  13.728
12264SOL     OW38565   8.413   6.904   2.114
12264SOL    HW138566   8.358   6.847   2.169
12264SOL    HW238567   8.361   6.916   2.034
12265SOL     OW38568   1.719   6.728  13.932
12265SOL    HW138569   1.670   6.790  13.878
12265SOL    HW238570   1.811   6.748  13.914
12266SOL     OW38571   1.770  13.021   5.979
12266SOL    HW138572   1.726  12.962   5.918
12266SOL    HW238573   1.839  13.062   5.927
12267SOL     OW38574   6.153   7.568   4.593
12267SOL    HW138575   6.176   7.632   4.660
12267SOL    HW238576   6.187   7.605   4.512
12268SOL     OW38577   6.041  10.070   0.922
12268SOL    HW138578   6.090  10.152   0.928
12268SOL    HW238579   6.097  10.006   0.966
12269SOL     OW38580  10.952  10.164  14.458
12269SOL    HW138581  11.043  10.135  14.457
12269SOL    HW238582  10.956  10.256  14.483
12270SOL     OW38583   5.058  14.176   0.400
12270SOL    HW138584   5.077  14.197   0.309
12270SOL    HW238585   5.098  14.090   0.414
12271SOL     OW38586   7.405   3.252  13.794
12271SOL    HW138587   7.358   3.334  13.810
12271SOL    HW238588   7.490   3.280  13.759
12272SOL     OW38589   0.041   4.872  10.351
12272SOL    HW138590   0.110   4.820  10.392
12272SOL    HW238591   0.020   4.825  10.270
12273SOL     OW38592   5.349  10.701   9.596
12273SOL    HW138593   5.295  10.748   9.533
12273SOL    HW238594   5.362  10.764   9.668
12274SOL     OW38595   6.482   9.647  14.042
12274SOL    HW138596   6.460   9.618  13.953
12274SOL    HW238597   6.569   9.687  14.033
12275SOL     OW38598   7.284   2.205   4.310
12275SOL    HW138599   7.209   2.147   4.319
12275SOL    HW238600   7.246   2.292   4.301
12276SOL     OW38601   7.708   7.866  12.105
12276SOL    HW138602   7.737   7.843  12.017
12276SOL    HW238603   7.658   7.947  12.095
12277SOL     OW38604   9.747   9.951   9.897
12277SOL    HW138605   9.764  10.004   9.975
12277SOL    HW238606   9.708  10.012   9.835
12278SOL     OW38607  11.500   8.183  11.083
12278SOL    HW138608  11.501   8.275  11.110
12278SOL    HW238609  11.431   8.143  11.136
12279SOL     OW38610   2.970  10.718  11.984
12279SOL    HW138611   2.950  10.628  11.955
12279SOL    HW238612   3.059  10.713  12.018
12280SOL     OW38613   4.436   7.094   7.718
12280SOL    HW138614   4.427   7.006   7.754
12280SOL    HW238615   4.531   7.107   7.709
12281SOL     OW38616   0.054   9.666  14.054
12281SOL    HW138617   0.007   9.611  14.117
12281SOL    HW238618   0.023   9.638  13.969
12282SOL     OW38619   8.841   9.307   8.182
12282SOL    HW138620   8.803   9.380   8.133
12282SOL    HW238621   8.905   9.268   8.122
12283SOL     OW38622   9.359   0.205  13.099
12283SOL    HW138623   9.446   0.187  13.135
12283SOL    HW238624   9.299   0.161  13.158
12284SOL     OW38625   4.206   6.587  14.554
12284SOL    HW138626   4.136   6.637  14.512
12284SOL    HW238627   4.276   6.584  14.489
12285SOL     OW38628   8.624  11.037   5.047
12285SOL    HW138629   8.647  11.118   5.094
12285SOL    HW238630   8.707  11.005   5.013
12286SOL     OW38631  12.195  10.314  13.367
12286SOL    HW138632  12.262  10.382  13.358
12286SOL    HW238633  12.244  10.232  13.364
12287SOL     OW38634   1.837  13.985  12.246
12287SOL    HW138635   1.783  13.995  12.169
12287SOL    HW238636   1.923  14.020  12.221
12288SOL     OW38637   2.724  11.991  13.853
12288SOL    HW138638   2.791  11.991  13.784
12288SOL    HW238639   2.773  12.009  13.934
12289SOL     OW38640  12.225   1.934  12.799
12289SOL    HW138641  12.284   1.906  12.730
12289SOL    HW238642  12.173   2.003  12.760
12290SOL     OW38643   9.962   3.236  12.471
12290SOL    HW138644   9.943   3.321  12.509
12290SOL    HW238645  10.004   3.187  12.542
12291SOL     OW38646   2.741   7.200   5.319
12291SOL    HW138647   2.819   7.255   5.322
12291SOL    HW238648   2.762   7.134   5.253
12292SOL     OW38649   7.566   6.606  10.607
12292SOL    HW138650   7.586   6.513  10.597
12292SOL    HW238651   7.594   6.646  10.525
12293SOL     OW38652  10.848   8.719   9.064
12293SOL    HW138653  10.819   8.646   9.119
12293SOL    HW238654  10.767   8.757   9.031
12294SOL     OW38655   8.007   4.453   0.598
12294SOL    HW138656   8.077   4.500   0.643
12294SOL    HW238657   7.957   4.522   0.554
12295SOL     OW38658  14.267   9.591   4.833
12295SOL    HW138659  14.329   9.558   4.898
12295SOL    HW238660  14.253   9.683   4.858
12296SOL     OW38661   5.772   5.097   2.871
12296SOL    HW138662   5.760   5.002   2.873
12296SOL    HW238663   5.687   5.132   2.898
12297SOL     OW38664  10.851   0.509   4.538
12297SOL    HW138665  10.833   0.589   4.588
12297SOL    HW238666  10.786   0.510   4.468
12298SOL     OW38667   9.414   5.515   1.671
12298SOL    HW138668   9.391   5.443   1.730
12298SOL    HW238669   9.331   5.557   1.650
12299SOL     OW38670  13.111   0.114  11.466
12299SOL    HW138671  13.191   0.067  11.442
12299SOL    HW238672  13.085   0.160  11.386
12300SOL     OW38673  10.674   7.487  10.992
12300SOL    HW138674  10.640   7.438  10.918
12300SOL    HW238675  10.753   7.530  10.959
12301SOL     OW38676  13.310  10.709   4.062
12301SOL    HW138677  13.331  10.658   4.141
12301SOL    HW238678  13.223  10.678   4.037
12302SOL     OW38679  10.059  14.728   7.390
12302SOL    HW138680  10.005  14.788   7.339
12302SOL    HW238681  10.135  14.780   7.417
12303SOL     OW38682  14.065  14.410   5.970
12303SOL    HW138683  14.070  14.377   6.059
12303SOL    HW238684  14.050  14.333   5.916
12304SOL     OW38685  11.242   5.959   1.687
12304SOL    HW138686  11.253   5.874   1.730
12304SOL    HW238687  11.229   6.020   1.759
12305SOL     OW38688   6.591  10.602  10.042
12305SOL    HW138689   6.664  10.642   9.994
12305SOL    HW238690   6.524  10.672  10.045
12306SOL     OW38691   2.157  10.963  10.136
12306SOL    HW138692   2.122  10.998  10.218
12306SOL    HW238693   2.097  10.996  10.069
12307SOL     OW38694  11.567  11.142  12.361
12307SOL    HW138695  11.562  11.228  12.401
12307SOL    HW238696  11.661  11.123  12.354
12308SOL     OW38697  13.568   5.842   2.986
12308SOL    HW138698  13.533   5.756   3.007
12308SOL    HW238699  13.559   5.850   2.891
12309SOL     OW38700  13.666  14.425   1.492
12309SOL    HW138701  13.640  14.515   1.507
12309SOL    HW238702  13.588  14.382   1.458
12310SOL     OW38703  11.508   8.789  13.861
12310SOL    HW138704  11.567   8.842  13.807
12310SOL    HW238705  11.424   8.793  13.816
12311SOL     OW38706   6.169   6.994  12.189
12311SOL    HW138707   6.156   6.906  12.223
12311SOL    HW238708   6.243   7.028  12.238
12312SOL     OW38709  12.487   6.353   9.094
12312SOL    HW138710  12.508   6.305   9.014
12312SOL    HW238711  12.495   6.446   9.069
12313SOL     OW38712   7.149   7.830   0.483
12313SOL    HW138713   7.168   7.924   0.481
12313SOL    HW238714   7.136   7.806   0.391
12314SOL     OW38715  11.362   7.741   6.149
12314SOL    HW138716  11.367   7.742   6.245
12314SOL    HW238717  11.271   7.762   6.129
12315SOL     OW38718  12.667   0.797   1.277
12315SOL    HW138719  12.598   0.740   1.311
12315SOL    HW238720  12.685   0.765   1.189
12316SOL     OW38721  12.689   0.852  14.768
12316SOL    HW138722  12.775   0.880  14.738
12316SOL    HW238723  12.641   0.833  14.687
12317SOL     OW38724  10.582   7.821   5.988
12317SOL    HW138725  10.589   7.727   6.000
12317SOL    HW238726  10.495   7.843   6.023
12318SOL     OW38727   5.545   2.888   3.293
12318SOL    HW138728   5.587   2.847   3.217
12318SOL    HW238729   5.605   2.959   3.318
12319SOL     OW38730   3.529   4.051   2.628
12319SOL    HW138731   3.499   4.111   2.697
12319SOL    HW238732   3.624   4.050   2.637
12320SOL     OW38733  13.883  14.867  12.141
12320SOL    HW138734  13.930   0.068  12.145
12320SOL    HW238735  13.951  14.801  12.126
12321SOL     OW38736   4.053  14.864   1.206
12321SOL    HW138737   4.072  14.779   1.244
12321SOL    HW238738   3.957  14.868   1.202
12322SOL     OW38739   7.186   6.642   2.317
12322SOL    HW138740   7.228   6.603   2.241
12322SOL    HW238741   7.239   6.719   2.338
12323SOL     OW38742  13.557  12.736  14.252
12323SOL    HW138743  13.649  12.735  14.229
12323SOL    HW238744  13.555  12.774  14.340
12324SOL     OW38745   0.539  10.511  13.611
12324SOL    HW138746   0.484  10.574  13.564
12324SOL    HW238747   0.481  10.437  13.629
12325SOL     OW38748   1.013   8.816  10.851
12325SOL    HW138749   0.987   8.730  10.816
12325SOL    HW238750   0.978   8.879  10.789
12326SOL     OW38751   6.164  12.446   1.949
12326SOL    HW138752   6.225  12.374   1.964
12326SOL    HW238753   6.221  12.522   1.935
12327SOL     OW38754  14.519   0.458  14.021
12327SOL    HW138755  14.514   0.380  13.967
12327SOL    HW238756  14.531   0.426  14.110
12328SOL     OW38757   3.864  10.374   6.321
12328SOL    HW138758   3.933  10.338   6.264
12328SOL    HW238759   3.819  10.438   6.267
12329SOL     OW38760   4.226  14.155  10.523
12329SOL    HW138761   4.246  14.230  10.467
12329SOL    HW238762   4.140  14.176  10.561
12330SOL     OW38763   7.762   3.842  11.050
12330SOL    HW138764   7.773   3.779  10.979
12330SOL    HW238765   7.817   3.916  11.025
12331SOL     OW38766   2.815  11.031   7.206
12331SOL    HW138767   2.806  10.983   7.289
12331SOL    HW238768   2.826  10.962   7.140
12332SOL     OW38769   7.107   5.707   3.748
12332SOL    HW138770   7.178   5.648   3.776
12332SOL    HW238771   7.130   5.791   3.787
12333SOL     OW38772   8.683   4.808   2.026
12333SOL    HW138773   8.662   4.876   1.963
12333SOL    HW238774   8.634   4.831   2.105
12334SOL     OW38775   0.819   0.655   3.967
12334SOL    HW138776   0.804   0.685   4.057
12334SOL    HW238777   0.841   0.735   3.919
12335SOL     OW38778  12.758   4.114   2.132
12335SOL    HW138779  12.750   4.024   2.101
12335SOL    HW238780  12.748   4.167   2.052
12336SOL     OW38781   4.551   7.006  13.156
12336SOL    HW138782   4.519   7.079  13.210
12336SOL    HW238783   4.558   7.043  13.068
12337SOL     OW38784  12.994  11.025  12.781
12337SOL    HW138785  13.040  10.942  12.769
12337SOL    HW238786  12.974  11.055  12.693
12338SOL     OW38787  14.331   0.403  11.730
12338SOL    HW138788  14.376   0.486  11.718
12338SOL    HW238789  14.388   0.353  11.788
12339SOL     OW38790   4.488  11.529   2.061
12339SOL    HW138791   4.409  11.578   2.038
12339SOL    HW238792   4.556  11.595   2.070
12340SOL     OW38793   4.829  12.379   0.979
12340SOL    HW138794   4.777  12.438   0.925
12340SOL    HW238795   4.796  12.392   1.068
12341SOL     OW38796   7.597   1.738   6.217
12341SOL    HW138797   7.646   1.685   6.154
12341SOL    HW238798   7.605   1.690   6.300
12342SOL     OW38799   5.473   2.567  12.813
12342SOL    HW138800   5.476   2.621  12.734
12342SOL    HW238801   5.537   2.609  12.872
12343SOL     OW38802   1.780   2.738   6.904
12343SOL    HW138803   1.852   2.676   6.918
12343SOL    HW238804   1.817   2.823   6.928
12344SOL     OW38805   5.371  12.051   9.299
12344SOL    HW138806   5.296  12.095   9.340
12344SOL    HW238807   5.333  11.997   9.230
12345SOL     OW38808  10.249  11.634  13.033
12345SOL    HW138809  10.297  11.633  12.950
12345SOL    HW238810  10.157  11.643  13.007
12346SOL     OW38811   0.978  10.220   6.246
12346SOL    HW138812   0.963  10.268   6.165
12346SOL    HW238813   0.902  10.241   6.301
12347SOL     OW38814   3.773   4.168   9.382
12347SOL    HW138815   3.776   4.249   9.434
12347SOL    HW238816   3.682   4.161   9.353
12348SOL     OW38817  12.263   2.843   9.738
12348SOL    HW138818  12.334   2.805   9.791
12348SOL    HW238819  12.304   2.915   9.691
12349SOL     OW38820   2.695  10.460   7.637
12349SOL    HW138821   2.736  10.400   7.698
12349SOL    HW238822   2.760  10.473   7.568
12350SOL     OW38823   0.865   2.496   0.142
12350SOL    HW138824   0.890   2.546   0.064
12350SOL    HW238825   0.945   2.450   0.168
12351SOL     OW38826   6.665   8.919   0.052
12351SOL    HW138827   6.584   8.967   0.067
12351SOL    HW238828   6.643   8.828   0.071
12352SOL     OW38829  12.258   1.670   6.776
12352SOL    HW138830  12.279   1.755   6.736
12352SOL    HW238831  12.168   1.680   6.807
12353SOL     OW38832  12.724   9.951  13.751
12353SOL    HW138833  12.776   9.931  13.673
12353SOL    HW238834  12.719  10.047  13.752
12354SOL     OW38835  14.575  11.358  11.196
12354SOL    HW138836  14.570  11.350  11.100
12354SOL    HW238837  14.484  11.355  11.225
12355SOL     OW38838   8.205  13.527   0.461
12355SOL    HW138839   8.269  13.540   0.530
12355SOL    HW238840   8.211  13.434   0.438
12356SOL     OW38841  14.414   4.917   6.315
12356SOL    HW138842  14.374   4.908   6.229
12356SOL    HW238843  14.483   4.982   6.303
12357SOL     OW38844  11.905   9.378   0.880
12357SOL    HW138845  11.846   9.393   0.953
12357SOL    HW238846  11.898   9.456   0.825
12358SOL     OW38847  12.595   0.305  10.818
12358SOL    HW138848  12.617   0.325  10.728
12358SOL    HW238849  12.566   0.213  10.816
12359SOL     OW38850   7.006  12.513   3.765
12359SOL    HW138851   7.085  12.459   3.766
12359SOL    HW238852   6.976  12.513   3.855
12360SOL     OW38853   2.763   7.149   9.404
12360SOL    HW138854   2.759   7.098   9.485
12360SOL    HW238855   2.691   7.115   9.351
12361SOL     OW38856  14.149   6.300   4.569
12361SOL    HW138857  14.181   6.211   4.586
12361SOL    HW238858  14.180   6.320   4.480
12362SOL     OW38859   1.867  10.588   3.343
12362SOL    HW138860   1.800  10.526   3.372
12362SOL    HW238861   1.935  10.582   3.411
12363SOL     OW38862   9.964   0.241   1.458
12363SOL    HW138863  10.046   0.197   1.478
12363SOL    HW238864   9.985   0.334   1.462
12364SOL     OW38865   1.732   7.306   3.769
12364SOL    HW138866   1.749   7.388   3.815
12364SOL    HW238867   1.816   7.283   3.729
12365SOL     OW38868   4.921   0.446  14.283
12365SOL    HW138869   5.011   0.420  14.267
12365SOL    HW238870   4.921   0.483  14.371
12366SOL     OW38871   6.352  13.797  14.662
12366SOL    HW138872   6.310  13.881  14.683
12366SOL    HW238873   6.435  13.822  14.621
12367SOL     OW38874   4.315   0.347   4.891
12367SOL    HW138875   4.283   0.438   4.895
12367SOL    HW238876   4.237   0.295   4.875
12368SOL     OW38877   7.592   1.164  13.493
12368SOL    HW138878   7.579   1.148  13.400
12368SOL    HW238879   7.523   1.113  13.536
12369SOL     OW38880   8.204  10.558  11.131
12369SOL    HW138881   8.260  10.485  11.158
12369SOL    HW238882   8.246  10.635  11.169
12370SOL     OW38883  10.627   6.471  10.235
12370SOL    HW138884  10.629   6.552  10.185
12370SOL    HW238885  10.683   6.487  10.311
12371SOL     OW38886  12.873  13.211   4.084
12371SOL    HW138887  12.862  13.116   4.095
12371SOL    HW238888  12.829  13.249   4.160
12372SOL     OW38889   7.591   8.701   4.034
12372SOL    HW138890   7.510   8.742   4.002
12372SOL    HW238891   7.563   8.617   4.070
12373SOL     OW38892  14.802  13.937   9.390
12373SOL    HW138893  14.861  13.874   9.433
12373SOL    HW238894  14.829  14.022   9.424
12374SOL     OW38895  12.510  13.339  14.819
12374SOL    HW138896  12.597  13.363  14.787
12374SOL    HW238897  12.457  13.418  14.806
12375SOL     OW38898   4.103   9.833   8.129
12375SOL    HW138899   4.024   9.792   8.164
12375SOL    HW238900   4.145   9.874   8.205
12376SOL     OW38901   8.326   1.805   8.183
12376SOL    HW138902   8.294   1.716   8.199
12376SOL    HW238903   8.407   1.811   8.234
12377SOL     OW38904  10.629   3.357  11.892
12377SOL    HW138905  10.682   3.310  11.828
12377SOL    HW238906  10.661   3.447  11.888
12378SOL     OW38907   7.780   7.631   0.140
12378SOL    HW138908   7.696   7.651   0.099
12378SOL    HW238909   7.810   7.552   0.096
12379SOL     OW38910   3.468   7.892  10.466
12379SOL    HW138911   3.436   7.913  10.378
12379SOL    HW238912   3.401   7.834  10.502
12380SOL     OW38913   8.551   9.324   4.684
12380SOL    HW138914   8.544   9.419   4.677
12380SOL    HW238915   8.630   9.301   4.635
12381SOL     OW38916  10.221   0.010   0.525
12381SOL    HW138917  10.130  14.868   0.506
12381SOL    HW238918  10.217   0.057   0.608
12382SOL     OW38919   8.747   5.163   2.075
12382SOL    HW138920   8.755   5.157   1.980
12382SOL    HW238921   8.836   5.150   2.108
12383SOL     OW38922  10.455  13.355   7.440
12383SOL    HW138923  10.491  13.362   7.352
12383SOL    HW238924  10.529  13.333   7.495
12384SOL     OW38925   5.185  10.985   0.558
12384SOL    HW138926   5.156  11.075   0.572
12384SOL    HW238927   5.114  10.944   0.508
12385SOL     OW38928   8.336   5.862  13.893
12385SOL    HW138929   8.402   5.839  13.828
12385SOL    HW238930   8.328   5.957  13.887
12386SOL     OW38931  14.391   3.382   1.049
12386SOL    HW138932  14.479   3.419   1.052
12386SOL    HW238933  14.383   3.332   1.131
12387SOL     OW38934   8.436   6.763  14.489
12387SOL    HW138935   8.427   6.670  14.465
12387SOL    HW238936   8.417   6.765  14.582
12388SOL     OW38937   0.601   0.330   1.667
12388SOL    HW138938   0.553   0.250   1.691
12388SOL    HW238939   0.689   0.317   1.702
12389SOL     OW38940  13.696   8.549   9.391
12389SOL    HW138941  13.645   8.612   9.339
12389SOL    HW238942  13.630   8.499   9.438
12390SOL     OW38943   2.248   7.974   9.851
12390SOL    HW138944   2.332   7.934   9.829
12390SOL    HW238945   2.184   7.905   9.839
12391SOL     OW38946   8.549  13.964  14.305
12391SOL    HW138947   8.497  13.953  14.225
12391SOL    HW238948   8.576  13.875  14.328
12392SOL     OW38949   2.096   4.952   2.726
12392SOL    HW138950   2.063   4.869   2.690
12392SOL    HW238951   2.075   4.948   2.819
12393SOL     OW38952   1.389  10.078  12.191
12393SOL    HW138953   1.418  10.138  12.123
12393SOL    HW238954   1.469  10.036  12.223
12394SOL     OW38955   0.093  11.566  12.023
12394SOL    HW138956   0.018  11.575  12.081
12394SOL    HW238957   0.136  11.485  12.051
12395SOL     OW38958   8.783   8.367   0.249
12395SOL    HW138959   8.751   8.448   0.286
12395SOL    HW238960   8.878   8.373   0.255
12396SOL     OW38961   3.716   2.936   7.166
12396SOL    HW138962   3.644   2.901   7.219
12396SOL    HW238963   3.788   2.874   7.178
12397SOL     OW38964   6.947   6.597  13.477
12397SOL    HW138965   6.941   6.523  13.416
12397SOL    HW238966   6.993   6.665  13.428
12398SOL     OW38967   9.776   6.782  11.436
12398SOL    HW138968   9.713   6.822  11.376
12398SOL    HW238969   9.746   6.808  11.523
12399SOL     OW38970  14.676  10.877  13.989
12399SOL    HW138971  14.711  10.957  14.029
12399SOL    HW238972  14.589  10.902  13.958
12400SOL     OW38973   2.002   0.482   0.554
12400SOL    HW138974   2.077   0.533   0.523
12400SOL    HW238975   1.966   0.442   0.475
12401SOL     OW38976   0.873   2.441  10.716
12401SOL    HW138977   0.873   2.346  10.731
12401SOL    HW238978   0.925   2.476  10.788
12402SOL     OW38979  13.348   1.165   6.476
12402SOL    HW138980  13.356   1.073   6.450
12402SOL    HW238981  13.264   1.193   6.440
12403SOL     OW38982  11.276  14.130   9.429
12403SOL    HW138983  11.283  14.223   9.407
12403SOL    HW238984  11.359  14.093   9.400
12404SOL     OW38985   2.901  10.083   2.035
12404SOL    HW138986   2.878  10.008   1.980
12404SOL    HW238987   2.867  10.159   1.986
12405SOL     OW38988   7.397   8.888   2.475
12405SOL    HW138989   7.451   8.889   2.554
12405SOL    HW238990   7.416   8.971   2.432
12406SOL     OW38991  14.270   9.099  13.099
12406SOL    HW138992  14.177   9.079  13.095
12406SOL    HW238993  14.293   9.124  13.010
12407SOL     OW38994  11.253   6.258   9.044
12407SOL    HW138995  11.209   6.204   8.978
12407SOL    HW238996  11.181   6.302   9.090
12408SOL     OW38997  11.883   4.393  10.684
12408SOL    HW138998  11.791   4.378  10.705
12408SOL    HW238999  11.895   4.487  10.691
12409SOL     OW39000  13.206   6.176  12.386
12409SOL    HW139001  13.243   6.092  12.361
12409SOL    HW239002  13.182   6.166  12.478
12410SOL     OW39003  13.898  13.439   3.515
12410SOL    HW139004  13.889  13.344   3.520
12410SOL    HW239005  13.962  13.454   3.446
12411SOL     OW39006  12.194  11.547   5.760
12411SOL    HW139007  12.254  11.601   5.811
12411SOL    HW239008  12.248  11.509   5.691
12412SOL     OW39009   4.254  10.153   9.188
12412SOL    HW139010   4.255  10.127   9.280
12412SOL    HW239011   4.342  10.186   9.171
12413SOL     OW39012  12.989   5.290  10.889
12413SOL    HW139013  12.941   5.244  10.957
12413SOL    HW239014  13.061   5.333  10.935
12414SOL     OW39015  10.154   0.196   2.149
12414SOL    HW139016  10.178   0.116   2.195
12414SOL    HW239017  10.229   0.216   2.093
12415SOL     OW39018   3.327   3.209   5.926
12415SOL    HW139019   3.310   3.302   5.915
12415SOL    HW239020   3.327   3.173   5.838
12416SOL     OW39021  14.639   0.603   1.246
12416SOL    HW139022  14.682   0.673   1.295
12416SOL    HW239023  14.682   0.603   1.161
12417SOL     OW39024   3.106  13.455   0.943
12417SOL    HW139025   3.201  13.463   0.945
12417SOL    HW239026   3.085  13.389   1.009
12418SOL     OW39027   4.249   2.444   7.381
12418SOL    HW139028   4.159   2.421   7.404
12418SOL    HW239029   4.244   2.480   7.292
12419SOL     OW39030   5.938  13.608  13.450
12419SOL    HW139031   5.869  13.552  13.413
12419SOL    HW239032   5.943  13.682  13.391
12420SOL     OW39033   0.435  10.381   6.750
12420SOL    HW139034   0.390  10.412   6.829
12420SOL    HW239035   0.511  10.333   6.783
12421SOL     OW39036   2.780   1.272   1.979
12421SOL    HW139037   2.750   1.263   2.070
12421SOL    HW239038   2.841   1.200   1.966
12422SOL     OW39039   2.178  11.216  12.634
12422SOL    HW139040   2.121  11.145  12.663
12422SOL    HW239041   2.125  11.263  12.568
12423SOL     OW39042   1.752  14.586   4.816
12423SOL    HW139043   1.781  14.674   4.794
12423SOL    HW239044   1.757  14.537   4.734
12424SOL     OW39045   8.721  10.428   6.788
12424SOL    HW139046   8.632  10.463   6.790
12424SOL    HW239047   8.717  10.348   6.840
12425SOL     OW39048   0.980   1.243   5.334
12425SOL    HW139049   0.957   1.152   5.356
12425SOL    HW239050   1.015   1.279   5.416
12426SOL     OW39051   6.433  10.058   3.907
12426SOL    HW139052   6.494   9.994   3.944
12426SOL    HW239053   6.363  10.005   3.870
12427SOL     OW39054  14.709   0.700   4.040
12427SOL    HW139055  14.709   0.756   3.962
12427SOL    HW239056  14.789   0.725   4.086
12428SOL     OW39057   8.064   1.442   7.977
12428SOL    HW139058   8.027   1.372   8.029
12428SOL    HW239059   8.139   1.402   7.933
12429SOL     OW39060   7.582   3.494   7.737
12429SOL    HW139061   7.562   3.545   7.659
12429SOL    HW239062   7.501   3.493   7.787
12430SOL     OW39063   8.392   3.397   6.632
12430SOL    HW139064   8.357   3.466   6.688
12430SOL    HW239065   8.391   3.436   6.544
12431SOL     OW39066   9.901   1.737   0.312
12431SOL    HW139067   9.885   1.688   0.393
12431SOL    HW239068   9.880   1.828   0.335
12432SOL     OW39069   2.465   0.752  13.105
12432SOL    HW139070   2.531   0.777  13.170
12432SOL    HW239071   2.488   0.662  13.082
12433SOL     OW39072  14.149   0.976   1.586
12433SOL    HW139073  14.211   1.045   1.563
12433SOL    HW239074  14.098   0.962   1.506
12434SOL     OW39075  10.789  12.851   7.175
12434SOL    HW139076  10.744  12.889   7.250
12434SOL    HW239077  10.882  12.857   7.197
12435SOL     OW39078  10.039   6.598   6.241
12435SOL    HW139079  10.048   6.626   6.332
12435SOL    HW239080  10.128   6.600   6.206
12436SOL     OW39081  11.897   6.031  11.258
12436SOL    HW139082  11.811   6.071  11.246
12436SOL    HW239083  11.959   6.102  11.243
12437SOL     OW39084  14.054  10.629   8.916
12437SOL    HW139085  13.960  10.613   8.907
12437SOL    HW239086  14.072  10.703   8.858
12438SOL     OW39087  13.039   0.593   2.693
12438SOL    HW139088  13.107   0.526   2.696
12438SOL    HW239089  12.957   0.544   2.701
12439SOL     OW39090  14.788   3.408   8.447
12439SOL    HW139091  14.825   3.469   8.383
12439SOL    HW239092  14.806   3.448   8.532
12440SOL     OW39093  12.895  12.441   6.686
12440SOL    HW139094  12.868  12.470   6.598
12440SOL    HW239095  12.813  12.433   6.735
12441SOL     OW39096  13.430  14.137   4.356
12441SOL    HW139097  13.360  14.071   4.360
12441SOL    HW239098  13.497  14.103   4.416
12442SOL     OW39099  10.338  10.697   0.806
12442SOL    HW139100  10.356  10.704   0.900
12442SOL    HW239101  10.261  10.753   0.792
12443SOL     OW39102   6.888   4.795  14.406
12443SOL    HW139103   6.819   4.846  14.364
12443SOL    HW239104   6.882   4.817  14.499
12444SOL     OW39105   1.490   0.242   8.298
12444SOL    HW139106   1.473   0.234   8.392
12444SOL    HW239107   1.403   0.251   8.258
12445SOL     OW39108   7.279   2.738   8.237
12445SOL    HW139109   7.215   2.755   8.307
12445SOL    HW239110   7.256   2.650   8.206
12446SOL     OW39111   3.907  11.889   1.971
12446SOL    HW139112   3.978  11.876   2.035
12446SOL    HW239113   3.828  11.861   2.016
12447SOL     OW39114   8.218   7.227   7.262
12447SOL    HW139115   8.176   7.256   7.343
12447SOL    HW239116   8.204   7.298   7.200
12448SOL     OW39117   9.191  13.753   5.308
12448SOL    HW139118   9.198  13.660   5.285
12448SOL    HW239119   9.275  13.791   5.284
12449SOL     OW39120   3.130   1.771   8.856
12449SOL    HW139121   3.150   1.735   8.942
12449SOL    HW239122   3.207   1.750   8.803
12450SOL     OW39123  12.321  12.198   5.656
12450SOL    HW139124  12.382  12.272   5.651
12450SOL    HW239125  12.235  12.238   5.651
12451SOL     OW39126   4.696   2.391   4.525
12451SOL    HW139127   4.677   2.450   4.452
12451SOL    HW239128   4.730   2.312   4.483
12452SOL     OW39129   9.890   4.213   1.365
12452SOL    HW139130   9.943   4.158   1.307
12452SOL    HW239131   9.928   4.300   1.357
12453SOL     OW39132  13.316   0.565   3.166
12453SOL    HW139133  13.405   0.587   3.137
12453SOL    HW239134  13.267   0.646   3.156
12454SOL     OW39135   9.503   3.418   0.166
12454SOL    HW139136   9.461   3.483   0.223
12454SOL    HW239137   9.450   3.416   0.087
12455SOL     OW39138   5.945   8.638   8.115
12455SOL    HW139139   5.952   8.567   8.051
12455SOL    HW239140   5.934   8.594   8.199
12456SOL     OW39141   1.913   5.885  13.454
12456SOL    HW139142   1.924   5.794  13.481
12456SOL    HW239143   1.962   5.936  13.519
12457SOL     OW39144   1.796   5.905   5.445
12457SOL    HW139145   1.771   5.831   5.501
12457SOL    HW239146   1.745   5.893   5.365
12458SOL     OW39147   3.946   3.076   8.486
12458SOL    HW139148   4.003   3.085   8.410
12458SOL    HW239149   4.004   3.042   8.555
12459SOL     OW39150   6.529   0.443   3.885
12459SOL    HW139151   6.484   0.438   3.801
12459SOL    HW239152   6.563   0.355   3.899
12460SOL     OW39153   9.236   7.151   7.266
12460SOL    HW139154   9.205   7.184   7.350
12460SOL    HW239155   9.219   7.056   7.271
12461SOL     OW39156   4.070   9.728   5.574
12461SOL    HW139157   4.132   9.796   5.599
12461SOL    HW239158   3.998   9.776   5.533
12462SOL     OW39159   8.149  13.989   8.797
12462SOL    HW139160   8.241  14.002   8.773
12462SOL    HW239161   8.138  14.039   8.878
12463SOL     OW39162   3.112  14.071  10.861
12463SOL    HW139163   3.085  14.152  10.819
12463SOL    HW239164   3.040  14.010  10.845
12464SOL     OW39165   0.460   7.923   4.998
12464SOL    HW139166   0.432   8.003   4.953
12464SOL    HW239167   0.546   7.944   5.034
12465SOL     OW39168  10.715  14.844   7.812
12465SOL    HW139169  10.764  14.763   7.823
12465SOL    HW239170  10.697  14.849   7.718
12466SOL     OW39171  14.660   8.168   4.672
12466SOL    HW139172  14.733   8.184   4.612
12466SOL    HW239173  14.608   8.248   4.668
12467SOL     OW39174   2.094   2.721   8.012
12467SOL    HW139175   2.053   2.698   7.929
12467SOL    HW239176   2.021   2.749   8.068
12468SOL     OW39177  12.964   4.072   4.427
12468SOL    HW139178  12.936   4.035   4.344
12468SOL    HW239179  12.974   3.996   4.485
12469SOL     OW39180  14.427   6.279  13.982
12469SOL    HW139181  14.515   6.300  14.014
12469SOL    HW239182  14.436   6.192  13.944
12470SOL     OW39183  13.348   7.725   9.550
12470SOL    HW139184  13.303   7.641   9.542
12470SOL    HW239185  13.289   7.778   9.604
12471SOL     OW39186  14.504  13.635  11.333
12471SOL    HW139187  14.499  13.717  11.283
12471SOL    HW239188  14.593  13.603  11.318
12472SOL     OW39189   3.331   2.841   0.976
12472SOL    HW139190   3.406   2.831   1.036
12472SOL    HW239191   3.367   2.882   0.898
12473SOL     OW39192   2.169  12.089  11.987
12473SOL    HW139193   2.163  11.994  11.982
12473SOL    HW239194   2.255  12.106  12.025
12474SOL     OW39195  12.148  14.391  12.661
12474SOL    HW139196  12.120  14.452  12.729
12474SOL    HW239197  12.095  14.312  12.676
12475SOL     OW39198  13.939   2.146   7.232
12475SOL    HW139199  13.918   2.237   7.212
12475SOL    HW239200  13.987   2.115   7.156
12476SOL     OW39201   5.382   5.326  11.345
12476SOL    HW139202   5.386   5.274  11.265
12476SOL    HW239203   5.461   5.302  11.394
12477SOL     OW39204   2.785   2.767   8.003
12477SOL    HW139205   2.826   2.719   8.074
12477SOL    HW239206   2.789   2.707   7.928
12478SOL     OW39207  11.609   6.596  10.460
12478SOL    HW139208  11.532   6.579  10.513
12478SOL    HW239209  11.594   6.682  10.421
12479SOL     OW39210   6.184  13.494  13.247
12479SOL    HW139211   6.201  13.509  13.340
12479SOL    HW239212   6.265  13.521  13.203
12480SOL     OW39213   9.247  14.578   2.454
12480SOL    HW139214   9.172  14.560   2.509
12480SOL    HW239215   9.313  14.614   2.513
12481SOL     OW39216   5.281   4.069  11.462
12481SOL    HW139217   5.193   4.078  11.425
12481SOL    HW239218   5.275   3.993  11.520
12482SOL     OW39219   2.817  12.656   6.586
12482SOL    HW139220   2.899  12.694   6.554
12482SOL    HW239221   2.811  12.686   6.677
12483SOL     OW39222   5.151   0.395   0.995
12483SOL    HW139223   5.149   0.490   0.987
12483SOL    HW239224   5.110   0.363   0.915
12484SOL     OW39225   9.031  10.188   9.430
12484SOL    HW139226   8.993  10.238   9.502
12484SOL    HW239227   9.106  10.143   9.469
12485SOL     OW39228  14.083   2.343  12.432
12485SOL    HW139229  14.142   2.394  12.487
12485SOL    HW239230  14.140   2.298  12.370
12486SOL     OW39231   5.387   0.294   2.226
12486SOL    HW139232   5.305   0.293   2.177
12486SOL    HW239233   5.364   0.332   2.311
12487SOL     OW39234  10.802   8.893  12.302
12487SOL    HW139235  10.867   8.961  12.284
12487SOL    HW239236  10.816   8.828  12.233
12488SOL     OW39237   9.026   0.212  12.738
12488SOL    HW139238   9.017   0.250  12.651
12488SOL    HW239239   9.115   0.177  12.740
12489SOL     OW39240  11.916  10.672   6.011
12489SOL    HW139241  11.911  10.582   6.045
12489SOL    HW239242  11.972  10.666   5.934
12490SOL     OW39243   6.344   6.206  14.522
12490SOL    HW139244   6.255   6.241  14.519
12490SOL    HW239245   6.349   6.161  14.607
12491SOL     OW39246  14.407   1.799   4.872
12491SOL    HW139247  14.407   1.741   4.795
12491SOL    HW239248  14.439   1.744   4.943
12492SOL     OW39249   7.358  11.983  12.461
12492SOL    HW139250   7.454  11.976  12.461
12492SOL    HW239251   7.334  11.974  12.553
12493SOL     OW39252   7.831   2.322   1.340
12493SOL    HW139253   7.805   2.413   1.324
12493SOL    HW239254   7.810   2.277   1.258
12494SOL     OW39255  10.610  10.720   7.365
12494SOL    HW139256  10.554  10.651   7.330
12494SOL    HW239257  10.636  10.689   7.452
12495SOL     OW39258   6.874  12.647   6.833
12495SOL    HW139259   6.830  12.732   6.837
12495SOL    HW239260   6.880  12.627   6.739
12496SOL     OW39261   3.312   5.668   8.928
12496SOL    HW139262   3.343   5.640   8.843
12496SOL    HW239263   3.367   5.744   8.951
12497SOL     OW39264  14.147  12.121   4.232
12497SOL    HW139265  14.194  12.155   4.309
12497SOL    HW239266  14.194  12.041   4.210
12498SOL     OW39267  12.371   7.222   4.264
12498SOL    HW139268  12.383   7.311   4.230
12498SOL    HW239269  12.451   7.204   4.312
12499SOL     OW39270   4.566  10.430  13.633
12499SOL    HW139271   4.489  10.387  13.671
12499SOL    HW239272   4.593  10.374  13.561
12500SOL     OW39273  11.831  13.464   3.854
12500SOL    HW139274  11.739  13.491   3.853
12500SOL    HW239275  11.874  13.528   3.797
12501SOL     OW39276  10.180  12.694   0.188
12501SOL    HW139277  10.239  12.738   0.249
12501SOL    HW239278  10.237  12.637   0.136
12502SOL     OW39279  13.555  10.023  10.339
12502SOL    HW139280  13.587  10.067  10.261
12502SOL    HW239281  13.493  10.085  10.379
12503SOL     OW39282  10.999  13.557   8.738
12503SOL    HW139283  11.071  13.534   8.797
12503SOL    HW239284  10.987  13.651   8.750
12504SOL     OW39285  13.769   8.816   8.840
12504SOL    HW139286  13.747   8.723   8.836
12504SOL    HW239287  13.685   8.861   8.833
12505SOL     OW39288  11.011   9.724   4.417
12505SOL    HW139289  10.937   9.784   4.409
12505SOL    HW239290  11.060   9.736   4.336
12506SOL     OW39291   9.194  12.663  11.991
12506SOL    HW139292   9.100  12.664  11.973
12506SOL    HW239293   9.215  12.570  12.004
12507SOL     OW39294  11.643  10.700   5.944
12507SOL    HW139295  11.739  10.696   5.936
12507SOL    HW239296  11.614  10.736   5.860
12508SOL     OW39297   1.426  12.542   8.370
12508SOL    HW139298   1.361  12.490   8.417
12508SOL    HW239299   1.511  12.512   8.404
12509SOL     OW39300   1.085   5.192   9.691
12509SOL    HW139301   1.008   5.163   9.641
12509SOL    HW239302   1.056   5.192   9.782
12510SOL     OW39303   7.190   4.627   1.963
12510SOL    HW139304   7.270   4.676   1.946
12510SOL    HW239305   7.203   4.543   1.920
12511SOL     OW39306  13.516   4.802  13.370
12511SOL    HW139307  13.438   4.773  13.324
12511SOL    HW239308  13.518   4.749  13.450
12512SOL     OW39309   9.096   0.757   1.617
12512SOL    HW139310   9.021   0.750   1.676
12512SOL    HW239311   9.138   0.671   1.621
12513SOL     OW39312   2.976   0.236   8.347
12513SOL    HW139313   2.895   0.246   8.296
12513SOL    HW239314   3.019   0.160   8.309
12514SOL     OW39315   7.468   4.857   7.260
12514SOL    HW139316   7.558   4.848   7.230
12514SOL    HW239317   7.415   4.838   7.183
12515SOL     OW39318   5.972   1.137   7.500
12515SOL    HW139319   5.959   1.140   7.595
12515SOL    HW239320   5.892   1.097   7.466
12516SOL     OW39321  12.767   2.541   5.421
12516SOL    HW139322  12.830   2.479   5.385
12516SOL    HW239323  12.817   2.623   5.430
12517SOL     OW39324   5.034  12.038   9.416
12517SOL    HW139325   5.080  12.069   9.494
12517SOL    HW239326   4.956  12.092   9.411
12518SOL     OW39327   2.604  10.829   2.369
12518SOL    HW139328   2.509  10.830   2.379
12518SOL    HW239329   2.619  10.772   2.293
12519SOL     OW39330   2.312   1.182   3.299
12519SOL    HW139331   2.267   1.170   3.216
12519SOL    HW239332   2.333   1.275   3.303
12520SOL     OW39333  10.727  11.801   0.548
12520SOL    HW139334  10.777  11.788   0.468
12520SOL    HW239335  10.751  11.889   0.577
12521SOL     OW39336  13.492   1.708   0.390
12521SOL    HW139337  13.431   1.782   0.388
12521SOL    HW239338  13.444   1.640   0.438
12522SOL     OW39339   6.735   4.791  11.945
12522SOL    HW139340   6.825   4.759  11.939
12522SOL    HW239341   6.744   4.886  11.954
12523SOL     OW39342   4.588   9.071   7.751
12523SOL    HW139343   4.681   9.063   7.727
12523SOL    HW239344   4.545   9.002   7.701
12524SOL     OW39345   2.795  10.312  13.669
12524SOL    HW139346   2.822  10.241  13.728
12524SOL    HW239347   2.714  10.279  13.629
12525SOL     OW39348   8.958   1.717   7.418
12525SOL    HW139349   9.051   1.719   7.394
12525SOL    HW239350   8.922   1.797   7.381
12526SOL     OW39351   6.626   4.534  11.483
12526SOL    HW139352   6.535   4.504  11.485
12526SOL    HW239353   6.661   4.499  11.401
12527SOL     OW39354   3.269   8.288  10.482
12527SOL    HW139355   3.182   8.249  10.478
12527SOL    HW239356   3.325   8.219  10.518
12528SOL     OW39357  14.833   7.871   8.925
12528SOL    HW139358  14.771   7.806   8.892
12528SOL    HW239359   0.032   7.855   8.876
12529SOL     OW39360   7.591   8.101  13.399
12529SOL    HW139361   7.621   8.068  13.314
12529SOL    HW239362   7.497   8.083  13.400
12530SOL     OW39363   8.269   2.475  12.560
12530SOL    HW139364   8.340   2.528  12.526
12530SOL    HW239365   8.189   2.518  12.528
12531SOL     OW39366  10.798   6.156   2.310
12531SOL    HW139367  10.741   6.232   2.301
12531SOL    HW239368  10.831   6.141   2.222
12532SOL     OW39369  12.769  11.131   7.689
12532SOL    HW139370  12.699  11.149   7.753
12532SOL    HW239371  12.796  11.218   7.659
12533SOL     OW39372   9.922   7.071  10.174
12533SOL    HW139373   9.926   7.165  10.190
12533SOL    HW239374   9.850   7.060  10.113
12534SOL     OW39375  10.244   8.296   5.093
12534SOL    HW139376  10.211   8.321   5.007
12534SOL    HW239377  10.229   8.202   5.098
12535SOL     OW39378  11.360  10.140   8.589
12535SOL    HW139379  11.449  10.175   8.593
12535SOL    HW239380  11.353  10.082   8.665
12536SOL     OW39381   7.121   7.601   4.350
12536SOL    HW139382   7.099   7.509   4.363
12536SOL    HW239383   7.213   7.600   4.324
12537SOL     OW39384   1.880   9.223  11.129
12537SOL    HW139385   1.813   9.220  11.197
12537SOL    HW239386   1.831   9.218  11.047
12538SOL     OW39387   1.986   5.359  11.602
12538SOL    HW139388   2.002   5.305  11.679
12538SOL    HW239389   1.945   5.439  11.636
12539SOL     OW39390   5.501   9.346  14.187
12539SOL    HW139391   5.465   9.359  14.099
12539SOL    HW239392   5.512   9.252  14.195
12540SOL     OW39393   5.391   9.791  12.895
12540SOL    HW139394   5.460   9.731  12.925
12540SOL    HW239395   5.323   9.784  12.962
12541SOL     OW39396   8.276   2.953   4.042
12541SOL    HW139397   8.266   2.910   3.957
12541SOL    HW239398   8.363   2.993   4.038
12542SOL     OW39399  11.009  12.763  11.288
12542SOL    HW139400  11.015  12.704  11.213
12542SOL    HW239401  10.938  12.727  11.341
12543SOL     OW39402   9.761   4.996  12.638
12543SOL    HW139403   9.738   5.078  12.593
12543SOL    HW239404   9.833   5.021  12.697
12544SOL     OW39405   8.043   6.522  13.974
12544SOL    HW139406   8.125   6.557  14.009
12544SOL    HW239407   8.026   6.574  13.896
12545SOL     OW39408  12.160   8.539   6.123
12545SOL    HW139409  12.197   8.501   6.203
12545SOL    HW239410  12.236   8.566   6.072
12546SOL     OW39411   3.005   8.995   8.359
12546SOL    HW139412   3.073   9.054   8.326
12546SOL    HW239413   3.053   8.926   8.405
12547SOL     OW39414   2.118   0.161  12.105
12547SOL    HW139415   2.069   0.113  12.172
12547SOL    HW239416   2.201   0.184  12.147
12548SOL     OW39417  10.209  10.053  14.469
12548SOL    HW139418  10.167   9.970  14.491
12548SOL    HW239419  10.301  10.030  14.456
12549SOL     OW39420   0.625  12.039   9.834
12549SOL    HW139421   0.582  12.077   9.911
12549SOL    HW239422   0.717  12.062   9.844
12550SOL     OW39423   1.617   0.850  12.580
12550SOL    HW139424   1.584   0.869  12.492
12550SOL    HW239425   1.559   0.782  12.613
12551SOL     OW39426   3.159   6.775  12.681
12551SOL    HW139427   3.151   6.685  12.710
12551SOL    HW239428   3.069   6.803  12.662
12552SOL     OW39429   1.112   4.724  10.573
12552SOL    HW139430   1.101   4.667  10.497
12552SOL    HW239431   1.203   4.710  10.600
12553SOL     OW39432   8.582   6.490   6.408
12553SOL    HW139433   8.623   6.428   6.469
12553SOL    HW239434   8.606   6.457   6.322
12554SOL     OW39435   2.803   2.081   5.029
12554SOL    HW139436   2.872   2.123   4.978
12554SOL    HW239437   2.770   2.012   4.972
12555SOL     OW39438   0.631   0.474   9.082
12555SOL    HW139439   0.610   0.508   8.995
12555SOL    HW239440   0.696   0.534   9.117
12556SOL     OW39441   4.510  10.896   1.334
12556SOL    HW139442   4.490  10.804   1.352
12556SOL    HW239443   4.518  10.900   1.239
12557SOL     OW39444   7.363   2.776   6.291
12557SOL    HW139445   7.275   2.765   6.256
12557SOL    HW239446   7.352   2.773   6.386
12558SOL     OW39447   6.243   9.421  14.057
12558SOL    HW139448   6.271   9.460  13.975
12558SOL    HW239449   6.154   9.454  14.070
12559SOL     OW39450   9.135  10.411  11.579
12559SOL    HW139451   9.191  10.338  11.554
12559SOL    HW239452   9.123  10.461  11.499
12560SOL     OW39453  13.383   8.993   1.131
12560SOL    HW139454  13.327   9.063   1.165
12560SOL    HW239455  13.471   9.031   1.131
12561SOL     OW39456   7.370  10.350   0.129
12561SOL    HW139457   7.447  10.316   0.175
12561SOL    HW239458   7.332  10.274   0.086
12562SOL     OW39459   8.706   0.138  14.794
12562SOL    HW139460   8.644   0.083  14.745
12562SOL    HW239461   8.792   0.108  14.764
12563SOL     OW39462   4.631   0.592  13.838
12563SOL    HW139463   4.565   0.557  13.899
12563SOL    HW239464   4.683   0.516  13.813
12564SOL     OW39465   7.937   9.390   3.412
12564SOL    HW139466   7.977   9.450   3.475
12564SOL    HW239467   7.996   9.390   3.337
12565SOL     OW39468  12.387  13.042   0.356
12565SOL    HW139469  12.445  12.980   0.312
12565SOL    HW239470  12.437  13.123   0.361
12566SOL     OW39471   1.916  10.575   7.328
12566SOL    HW139472   1.986  10.556   7.391
12566SOL    HW239473   1.869  10.492   7.318
12567SOL     OW39474   0.163  14.509   5.237
12567SOL    HW139475   0.085  14.459   5.262
12567SOL    HW239476   0.208  14.452   5.174
12568SOL     OW39477   0.152   9.084   1.870
12568SOL    HW139478   0.224   9.146   1.865
12568SOL    HW239479   0.113   9.084   1.783
12569SOL     OW39480   1.298   2.305  11.065
12569SOL    HW139481   1.369   2.351  11.109
12569SOL    HW239482   1.331   2.217  11.051
12570SOL     OW39483   6.873  13.724   8.870
12570SOL    HW139484   6.938  13.775   8.822
12570SOL    HW239485   6.923  13.676   8.935
12571SOL     OW39486  10.899   0.906   4.091
12571SOL    HW139487  10.941   0.823   4.067
12571SOL    HW239488  10.848   0.930   4.013
12572SOL     OW39489  12.118  12.254  10.285
12572SOL    HW139490  12.213  12.248  10.296
12572SOL    HW239491  12.098  12.187  10.220
12573SOL     OW39492   0.261   6.317  10.399
12573SOL    HW139493   0.227   6.291  10.484
12573SOL    HW239494   0.327   6.250  10.378
12574SOL     OW39495   8.008  12.795  14.872
12574SOL    HW139496   7.973  12.879  14.842
12574SOL    HW239497   7.988  12.735  14.801
12575SOL     OW39498  10.572  13.869   3.060
12575SOL    HW139499  10.603  13.843   2.973
12575SOL    HW239500  10.477  13.868   3.053
12576SOL     OW39501  11.015  11.669   6.897
12576SOL    HW139502  10.923  11.685   6.876
12576SOL    HW239503  11.028  11.710   6.982
12577SOL     OW39504   0.808  11.100   8.384
12577SOL    HW139505   0.795  11.055   8.300
12577SOL    HW239506   0.749  11.175   8.380
12578SOL     OW39507   8.258   4.911  10.228
12578SOL    HW139508   8.275   4.976  10.296
12578SOL    HW239509   8.183   4.945  10.180
12579SOL     OW39510   9.210   7.922   1.118
12579SOL    HW139511   9.192   7.878   1.201
12579SOL    HW239512   9.177   8.011   1.130
12580SOL     OW39513   5.576   4.068   0.013
12580SOL    HW139514   5.521   4.141  14.865
12580SOL    HW239515   5.582   4.078   0.108
12581SOL     OW39516  14.830  10.269   0.343
12581SOL    HW139517  14.783  10.279   0.260
12581SOL    HW239518  14.828  10.175   0.360
12582SOL     OW39519   8.839   6.461  10.951
12582SOL    HW139520   8.824   6.555  10.960
12582SOL    HW239521   8.823   6.443  10.859
12583SOL     OW39522   7.630   8.747   7.421
12583SOL    HW139523   7.644   8.653   7.432
12583SOL    HW239524   7.607   8.779   7.508
12584SOL     OW39525   9.800  14.473  12.739
12584SOL    HW139526   9.755  14.454  12.822
12584SOL    HW239527   9.733  14.513  12.684
12585SOL     OW39528  11.491  12.346   6.036
12585SOL    HW139529  11.435  12.289   5.983
12585SOL    HW239530  11.521  12.413   5.975
12586SOL     OW39531   4.148   1.813   8.857
12586SOL    HW139532   4.149   1.738   8.797
12586SOL    HW239533   4.113   1.885   8.805
12587SOL     OW39534   6.943  13.742   7.213
12587SOL    HW139535   6.898  13.780   7.288
12587SOL    HW239536   7.032  13.724   7.245
12588SOL     OW39537  13.713   6.049  13.991
12588SOL    HW139538  13.683   5.997  14.065
12588SOL    HW239539  13.736   6.134  14.029
12589SOL     OW39540   7.627   1.503   8.490
12589SOL    HW139541   7.679   1.462   8.559
12589SOL    HW239542   7.569   1.432   8.460
12590SOL     OW39543   8.126  11.256   5.996
12590SOL    HW139544   8.098  11.328   5.941
12590SOL    HW239545   8.058  11.189   5.985
12591SOL     OW39546  14.859   3.193  11.701
12591SOL    HW139547  14.875   3.282  11.734
12591SOL    HW239548  14.832   3.143  11.778
12592SOL     OW39549   6.961   4.207  14.620
12592SOL    HW139550   7.013   4.260  14.681
12592SOL    HW239551   7.001   4.120  14.624
12593SOL     OW39552  12.696   8.446   0.024
12593SOL    HW139553  12.654   8.525   0.059
12593SOL    HW239554  12.634   8.375   0.043
12594SOL     OW39555  12.456   9.580   1.136
12594SOL    HW139556  12.372   9.547   1.169
12594SOL    HW239557  12.461   9.547   1.047
12595SOL     OW39558   8.028  12.144  12.702
12595SOL    HW139559   8.040  12.120  12.610
12595SOL    HW239560   8.107  12.113  12.745
12596SOL     OW39561   2.636   5.779  11.106
12596SOL    HW139562   2.640   5.693  11.066
12596SOL    HW239563   2.662   5.765  11.197
12597SOL     OW39564   5.297   7.512   0.520
12597SOL    HW139565   5.390   7.530   0.504
12597SOL    HW239566   5.259   7.597   0.540
12598SOL     OW39567  10.364   9.953   6.838
12598SOL    HW139568  10.270   9.964   6.819
12598SOL    HW239569  10.403   9.932   6.753
12599SOL     OW39570   4.482   0.649  11.245
12599SOL    HW139571   4.392   0.636  11.275
12599SOL    HW239572   4.479   0.726  11.189
12600SOL     OW39573   6.639   1.300  11.185
12600SOL    HW139574   6.702   1.355  11.231
12600SOL    HW239575   6.687   1.267  11.109
12601SOL     OW39576   8.167   6.089   2.052
12601SOL    HW139577   8.150   6.053   1.965
12601SOL    HW239578   8.259   6.068   2.070
12602SOL     OW39579   6.149   4.373   5.000
12602SOL    HW139580   6.122   4.319   5.075
12602SOL    HW239581   6.153   4.462   5.036
12603SOL     OW39582  13.608   6.585  13.608
12603SOL    HW139583  13.677   6.634  13.654
12603SOL    HW239584  13.600   6.628  13.523
12604SOL     OW39585   1.266   5.761   6.073
12604SOL    HW139586   1.269   5.695   6.004
12604SOL    HW239587   1.173   5.768   6.096
12605SOL     OW39588   6.758   5.702  13.193
12605SOL    HW139589   6.839   5.656  13.171
12605SOL    HW239590   6.689   5.637  13.178
12606SOL     OW39591   0.519   0.881   4.245
12606SOL    HW139592   0.446   0.831   4.280
12606SOL    HW239593   0.480   0.964   4.216
12607SOL     OW39594   1.834   4.830   9.159
12607SOL    HW139595   1.928   4.816   9.143
12607SOL    HW239596   1.801   4.745   9.188
12608SOL     OW39597   6.521   9.469   9.154
12608SOL    HW139598   6.468   9.447   9.077
12608SOL    HW239599   6.562   9.386   9.180
12609SOL     OW39600  11.235   7.454   7.309
12609SOL    HW139601  11.255   7.447   7.216
12609SOL    HW239602  11.297   7.395   7.351
12610SOL     OW39603   6.487   9.407   8.288
12610SOL    HW139604   6.522   9.461   8.359
12610SOL    HW239605   6.553   9.338   8.277
12611SOL     OW39606   9.583  11.412   8.250
12611SOL    HW139607   9.507  11.354   8.240
12611SOL    HW239608   9.570  11.480   8.184
12612SOL     OW39609   4.127  12.493  12.876
12612SOL    HW139610   4.101  12.446  12.797
12612SOL    HW239611   4.062  12.562  12.885
12613SOL     OW39612   1.900   1.942  12.386
12613SOL    HW139613   1.993   1.965  12.387
12613SOL    HW239614   1.875   1.941  12.478
12614SOL     OW39615   5.357  12.515  14.503
12614SOL    HW139616   5.369  12.524  14.408
12614SOL    HW239617   5.350  12.421  14.518
12615SOL     OW39618   3.423   7.759   0.748
12615SOL    HW139619   3.428   7.766   0.653
12615SOL    HW239620   3.393   7.845   0.777
12616SOL     OW39621   1.923   4.670  11.631
12616SOL    HW139622   1.830   4.649  11.640
12616SOL    HW239623   1.926   4.744  11.570
12617SOL     OW39624   4.390  12.884   7.868
12617SOL    HW139625   4.449  12.949   7.830
12617SOL    HW239626   4.444  12.834   7.928
12618SOL     OW39627  14.460  12.675  11.919
12618SOL    HW139628  14.499  12.731  11.987
12618SOL    HW239629  14.534  12.631  11.878
12619SOL     OW39630  13.786   6.109   6.883
12619SOL    HW139631  13.807   6.196   6.851
12619SOL    HW239632  13.858   6.088   6.943
12620SOL     OW39633  12.269   2.738   6.553
12620SOL    HW139634  12.215   2.790   6.612
12620SOL    HW239635  12.332   2.801   6.517
12621SOL     OW39636   3.111  14.109  11.399
12621SOL    HW139637   3.116  14.183  11.340
12621SOL    HW239638   3.187  14.118  11.456
12622SOL     OW39639   6.633  14.745   3.850
12622SOL    HW139640   6.612  14.651   3.852
12622SOL    HW239641   6.614  14.775   3.939
12623SOL     OW39642   4.518   0.562   8.316
12623SOL    HW139643   4.541   0.598   8.231
12623SOL    HW239644   4.514   0.638   8.374
12624SOL     OW39645   5.340   4.553  11.625
12624SOL    HW139646   5.310   4.470  11.661
12624SOL    HW239647   5.417   4.531  11.574
12625SOL     OW39648  13.854   7.838  12.884
12625SOL    HW139649  13.868   7.933  12.876
12625SOL    HW239650  13.817   7.826  12.972
12626SOL     OW39651  11.418  10.095  14.117
12626SOL    HW139652  11.484  10.036  14.081
12626SOL    HW239653  11.419  10.171  14.059
12627SOL     OW39654  14.008   1.318  11.983
12627SOL    HW139655  14.087   1.355  11.944
12627SOL    HW239656  13.955   1.290  11.909
12628SOL     OW39657   0.815   6.548   4.187
12628SOL    HW139658   0.909   6.566   4.193
12628SOL    HW239659   0.781   6.619   4.133
12629SOL     OW39660   6.281   0.798   8.344
12629SOL    HW139661   6.273   0.703   8.339
12629SOL    HW239662   6.351   0.820   8.283
12630SOL     OW39663  11.309   8.084   6.183
12630SOL    HW139664  11.275   8.071   6.095
12630SOL    HW239665  11.233   8.069   6.240
12631SOL     OW39666   2.080  10.345   3.452
12631SOL    HW139667   2.053  10.263   3.410
12631SOL    HW239668   2.160  10.322   3.499
12632SOL     OW39669   6.789   1.283   0.812
12632SOL    HW139670   6.707   1.286   0.862
12632SOL    HW239671   6.856   1.260   0.877
12633SOL     OW39672  13.101   3.897   9.072
12633SOL    HW139673  13.138   3.845   9.144
12633SOL    HW239674  13.095   3.986   9.106
12634SOL     OW39675  11.747  10.984  11.578
12634SOL    HW139676  11.732  10.909  11.520
12634SOL    HW239677  11.768  11.056  11.519
12635SOL     OW39678  10.097  10.995  12.988
12635SOL    HW139679  10.004  10.974  12.994
12635SOL    HW239680  10.122  10.972  12.899
12636SOL     OW39681  12.614  11.732   9.680
12636SOL    HW139682  12.600  11.779   9.761
12636SOL    HW239683  12.645  11.799   9.618
12637SOL     OW39684   8.117   0.374   6.121
12637SOL    HW139685   8.176   0.427   6.174
12637SOL    HW239686   8.166   0.293   6.105
12638SOL     OW39687   7.172   1.016  10.430
12638SOL    HW139688   7.132   1.058  10.506
12638SOL    HW239689   7.157   1.077  10.358
12639SOL     OW39690   8.267  13.966   7.440
12639SOL    HW139691   8.346  13.914   7.456
12639SOL    HW239692   8.196  13.914   7.477
12640SOL     OW39693   6.162   7.942  11.120
12640SOL    HW139694   6.233   8.005  11.133
12640SOL    HW239695   6.110   7.979  11.048
12641SOL     OW39696   6.843   6.552   5.919
12641SOL    HW139697   6.791   6.525   5.844
12641SOL    HW239698   6.933   6.527   5.897
12642SOL     OW39699  11.222  13.524  10.331
12642SOL    HW139700  11.182  13.511  10.245
12642SOL    HW239701  11.317  13.516  10.315
12643SOL     OW39702  14.821   8.824   8.915
12643SOL    HW139703   0.017   8.852   8.963
12643SOL    HW239704  14.779   8.905   8.888
12644SOL     OW39705  10.800   1.967   5.599
12644SOL    HW139706  10.773   2.047   5.645
12644SOL    HW239707  10.887   1.948   5.632
12645SOL     OW39708   9.039   1.436  12.510
12645SOL    HW139709   8.966   1.493  12.535
12645SOL    HW239710   9.108   1.496  12.483
12646SOL     OW39711   6.905   0.865  14.807
12646SOL    HW139712   6.940   0.783  14.774
12646SOL    HW239713   6.835   0.888  14.746
12647SOL     OW39714   8.747  14.312   0.509
12647SOL    HW139715   8.735  14.394   0.557
12647SOL    HW239716   8.842  14.299   0.507
12648SOL     OW39717   7.972   4.373   2.998
12648SOL    HW139718   7.982   4.284   3.031
12648SOL    HW239719   7.983   4.428   3.076
12649SOL     OW39720   8.590  13.834   1.845
12649SOL    HW139721   8.598  13.890   1.923
12649SOL    HW239722   8.660  13.770   1.856
12650SOL     OW39723  10.071   8.227  10.137
12650SOL    HW139724  10.032   8.305  10.176
12650SOL    HW239725  10.135   8.197  10.202
12651SOL     OW39726  10.738   1.265   0.422
12651SOL    HW139727  10.797   1.296   0.354
12651SOL    HW239728  10.669   1.331   0.426
12652SOL     OW39729   7.068   1.815  13.253
12652SOL    HW139730   6.998   1.878  13.236
12652SOL    HW239731   7.127   1.860  13.314
12653SOL     OW39732   2.131  14.821   1.520
12653SOL    HW139733   2.059  14.856   1.467
12653SOL    HW239734   2.124  14.868   1.603
12654SOL     OW39735   5.519   2.516   8.177
12654SOL    HW139736   5.605   2.497   8.213
12654SOL    HW239737   5.534   2.583   8.110
12655SOL     OW39738   3.469   4.167   5.589
12655SOL    HW139739   3.461   4.153   5.683
12655SOL    HW239740   3.481   4.079   5.552
12656SOL     OW39741   6.981   9.544   6.607
12656SOL    HW139742   6.974   9.483   6.533
12656SOL    HW239743   6.945   9.496   6.681
12657SOL     OW39744  12.291  14.812   0.796
12657SOL    HW139745  12.361  14.792   0.859
12657SOL    HW239746  12.273   0.024   0.809
12658SOL     OW39747  14.147   0.353   1.643
12658SOL    HW139748  14.182   0.310   1.564
12658SOL    HW239749  14.127   0.280   1.702
12659SOL     OW39750   2.150   6.005   0.859
12659SOL    HW139751   2.072   5.997   0.914
12659SOL    HW239752   2.194   5.920   0.867
12660SOL     OW39753   9.614   3.162   6.927
12660SOL    HW139754   9.620   3.086   6.868
12660SOL    HW239755   9.703   3.173   6.960
12661SOL     OW39756  14.150  10.728  10.862
12661SOL    HW139757  14.119  10.750  10.950
12661SOL    HW239758  14.092  10.658  10.832
12662SOL     OW39759   5.833  14.273   8.582
12662SOL    HW139760   5.819  14.361   8.617
12662SOL    HW239761   5.921  14.249   8.612
12663SOL     OW39762  11.743   0.289   5.280
12663SOL    HW139763  11.678   0.236   5.326
12663SOL    HW239764  11.752   0.369   5.332
12664SOL     OW39765   4.291   1.868   9.973
12664SOL    HW139766   4.275   1.860  10.068
12664SOL    HW239767   4.350   1.795   9.953
12665SOL     OW39768   4.797   1.122   7.349
12665SOL    HW139769   4.716   1.141   7.397
12665SOL    HW239770   4.827   1.208   7.319
12666SOL     OW39771   0.819  12.682   7.920
12666SOL    HW139772   0.732  12.690   7.958
12666SOL    HW239773   0.804  12.674   7.826
12667SOL     OW39774   4.232   1.422   9.578
12667SOL    HW139775   4.191   1.466   9.653
12667SOL    HW239776   4.178   1.344   9.564
12668SOL     OW39777   7.537  13.473   0.324
12668SOL    HW139778   7.596  13.547   0.343
12668SOL    HW239779   7.590  13.395   0.339
12669SOL     OW39780   5.842   7.175   2.003
12669SOL    HW139781   5.797   7.242   1.951
12669SOL    HW239782   5.869   7.221   2.083
12670SOL     OW39783   8.740   3.807   1.558
12670SOL    HW139784   8.699   3.888   1.528
12670SOL    HW239785   8.666   3.747   1.571
12671SOL     OW39786   5.216   9.401   5.916
12671SOL    HW139787   5.285   9.340   5.943
12671SOL    HW239788   5.135   9.351   5.928
12672SOL     OW39789   5.131   3.885   9.288
12672SOL    HW139790   5.133   3.855   9.379
12672SOL    HW239791   5.171   3.972   9.291
12673SOL     OW39792   4.226   1.720   0.318
12673SOL    HW139793   4.233   1.703   0.224
12673SOL    HW239794   4.257   1.639   0.359
12674SOL     OW39795   9.678  14.418   7.236
12674SOL    HW139796   9.667  14.395   7.143
12674SOL    HW239797   9.640  14.344   7.283
12675SOL     OW39798   1.584   3.446   3.455
12675SOL    HW139799   1.644   3.441   3.529
12675SOL    HW239800   1.535   3.364   3.458
12676SOL     OW39801   5.653  10.854  13.704
12676SOL    HW139802   5.668  10.947  13.691
12676SOL    HW239803   5.681  10.837  13.795
12677SOL     OW39804  14.207   8.542   7.247
12677SOL    HW139805  14.296   8.526   7.277
12677SOL    HW239806  14.216   8.564   7.154
12678SOL     OW39807   9.114   9.359  11.009
12678SOL    HW139808   9.074   9.431  10.961
12678SOL    HW239809   9.207   9.363  10.986
12679SOL     OW39810   3.617   3.095  13.797
12679SOL    HW139811   3.614   3.112  13.703
12679SOL    HW239812   3.568   3.167  13.836
12680SOL     OW39813   0.416   2.215  13.784
12680SOL    HW139814   0.419   2.131  13.739
12680SOL    HW239815   0.378   2.275  13.720
12681SOL     OW39816  12.273   7.924   7.574
12681SOL    HW139817  12.329   7.972   7.635
12681SOL    HW239818  12.290   7.965   7.489
12682SOL     OW39819  11.202   1.198   8.199
12682SOL    HW139820  11.245   1.233   8.121
12682SOL    HW239821  11.273   1.162   8.252
12683SOL     OW39822   7.855  14.395   4.928
12683SOL    HW139823   7.903  14.338   4.868
12683SOL    HW239824   7.843  14.477   4.879
12684SOL     OW39825  10.299   7.666   6.975
12684SOL    HW139826  10.337   7.724   7.041
12684SOL    HW239827  10.358   7.590   6.973
12685SOL     OW39828  14.106   1.351   7.162
12685SOL    HW139829  14.186   1.345   7.110
12685SOL    HW239830  14.039   1.307   7.109
12686SOL     OW39831  11.925   9.628   0.709
12686SOL    HW139832  12.000   9.684   0.730
12686SOL    HW239833  11.850   9.688   0.710
12687SOL     OW39834   9.412   9.894   5.157
12687SOL    HW139835   9.431   9.822   5.097
12687SOL    HW239836   9.459   9.969   5.119
12688SOL     OW39837   8.488   2.870   2.128
12688SOL    HW139838   8.497   2.821   2.046
12688SOL    HW239839   8.540   2.820   2.191
12689SOL     OW39840   0.861   0.849   3.741
12689SOL    HW139841   0.912   0.799   3.678
12689SOL    HW239842   0.926   0.893   3.796
12690SOL     OW39843   8.573  10.838  10.110
12690SOL    HW139844   8.601  10.929  10.118
12690SOL    HW239845   8.478  10.841  10.116
12691SOL     OW39846   0.077   7.216   0.704
12691SOL    HW139847   0.084   7.211   0.799
12691SOL    HW239848   0.013   7.149   0.681
12692SOL     OW39849   2.098   9.233  11.989
12692SOL    HW139850   2.137   9.319  11.974
12692SOL    HW239851   2.157   9.190  12.050
12693SOL     OW39852  11.687   7.296  14.046
12693SOL    HW139853  11.630   7.245  13.989
12693SOL    HW239854  11.722   7.232  14.109
12694SOL     OW39855  14.799   9.707   5.472
12694SOL    HW139856  14.859   9.674   5.405
12694SOL    HW239857  14.712   9.684   5.439
12695SOL     OW39858   2.161   5.181   1.142
12695SOL    HW139859   2.086   5.203   1.197
12695SOL    HW239860   2.220   5.256   1.151
12696SOL     OW39861  14.511  11.062   6.364
12696SOL    HW139862  14.474  11.117   6.295
12696SOL    HW239863  14.571  11.003   6.318
12697SOL     OW39864  13.518  12.665   8.541
12697SOL    HW139865  13.469  12.741   8.575
12697SOL    HW239866  13.508  12.599   8.610
12698SOL     OW39867   2.698   2.264  11.899
12698SOL    HW139868   2.748   2.187  11.873
12698SOL    HW239869   2.705   2.324  11.825
12699SOL     OW39870  14.061  11.258  11.970
12699SOL    HW139871  14.003  11.282  11.899
12699SOL    HW239872  14.048  11.164  11.982
12700SOL     OW39873  10.235  14.864   1.214
12700SOL    HW139874  10.274  14.780   1.191
12700SOL    HW239875  10.174   0.002   1.143
12701SOL     OW39876   2.242   9.530  10.884
12701SOL    HW139877   2.235   9.460  10.819
12701SOL    HW239878   2.205   9.493  10.964
12702SOL     OW39879   2.001   3.913   9.516
12702SOL    HW139880   1.999   3.955   9.601
12702SOL    HW239881   1.987   3.984   9.453
12703SOL     OW39882   8.112  10.391   1.775
12703SOL    HW139883   8.056  10.425   1.844
12703SOL    HW239884   8.055  10.333   1.725
12704SOL     OW39885   7.087  11.426   5.293
12704SOL    HW139886   7.067  11.519   5.303
12704SOL    HW239887   7.052  11.402   5.208
12705SOL     OW39888   8.613   8.178  13.782
12705SOL    HW139889   8.706   8.201  13.777
12705SOL    HW239890   8.572   8.253  13.824
12706SOL     OW39891   5.108   0.614   5.252
12706SOL    HW139892   5.122   0.552   5.323
12706SOL    HW239893   5.061   0.564   5.185
12707SOL     OW39894   9.117  10.709   4.685
12707SOL    HW139895   9.066  10.716   4.604
12707SOL    HW239896   9.151  10.797   4.699
12708SOL     OW39897   8.788  14.718   3.398
12708SOL    HW139898   8.847  14.659   3.352
12708SOL    HW239899   8.840  14.798   3.412
12709SOL     OW39900   1.837   1.975   6.764
12709SOL    HW139901   1.803   1.948   6.849
12709SOL    HW239902   1.932   1.968   6.772
12710SOL     OW39903   6.489   3.444   0.689
12710SOL    HW139904   6.448   3.464   0.606
12710SOL    HW239905   6.418   3.446   0.753
12711SOL     OW39906  14.610   6.577   1.511
12711SOL    HW139907  14.595   6.521   1.435
12711SOL    HW239908  14.564   6.658   1.490
12712SOL     OW39909   6.148   5.676   8.231
12712SOL    HW139910   6.075   5.659   8.291
12712SOL    HW239911   6.217   5.712   8.287
12713SOL     OW39912   0.339   2.438   2.201
12713SOL    HW139913   0.257   2.458   2.156
12713SOL    HW239914   0.377   2.366   2.150
12714SOL     OW39915   7.290   9.730   8.411
12714SOL    HW139916   7.318   9.682   8.333
12714SOL    HW239917   7.292   9.822   8.385
12715SOL     OW39918   7.926  11.324   8.766
12715SOL    HW139919   7.951  11.417   8.766
12715SOL    HW239920   7.961  11.290   8.683
12716SOL     OW39921  13.319  13.079   6.060
12716SOL    HW139922  13.407  13.079   6.021
12716SOL    HW239923  13.273  13.008   6.016
12717SOL     OW39924   1.897   4.074  13.508
12717SOL    HW139925   1.949   4.080  13.588
12717SOL    HW239926   1.814   4.037  13.537
12718SOL     OW39927   2.686   1.723   7.179
12718SOL    HW139928   2.602   1.742   7.138
12718SOL    HW239929   2.708   1.634   7.151
12719SOL     OW39930  10.988  12.781  12.515
12719SOL    HW139931  10.975  12.697  12.559
12719SOL    HW239932  11.030  12.759  12.432
12720SOL     OW39933   3.255   2.033   5.603
12720SOL    HW139934   3.224   2.116   5.637
12720SOL    HW239935   3.199   2.015   5.527
12721SOL     OW39936   3.705  13.439   2.681
12721SOL    HW139937   3.735  13.431   2.590
12721SOL    HW239938   3.778  13.480   2.727
12722SOL     OW39939  10.236   2.489   0.352
12722SOL    HW139940  10.295   2.417   0.375
12722SOL    HW239941  10.237   2.546   0.429
12723SOL     OW39942   3.907   0.985   6.028
12723SOL    HW139943   3.906   0.975   6.124
12723SOL    HW239944   3.954   0.907   5.997
12724SOL     OW39945   7.142   8.377   8.818
12724SOL    HW139946   7.142   8.465   8.857
12724SOL    HW239947   7.235   8.354   8.813
12725SOL     OW39948   9.586   8.830  13.361
12725SOL    HW139949   9.517   8.767  13.382
12725SOL    HW239950   9.665   8.776  13.348
12726SOL     OW39951   6.943   7.037   2.911
12726SOL    HW139952   6.942   7.002   2.822
12726SOL    HW239953   6.971   6.964   2.966
12727SOL     OW39954   9.047  12.932  11.051
12727SOL    HW139955   9.107  12.911  10.979
12727SOL    HW239956   9.028  13.025  11.039
12728SOL     OW39957   1.875   2.631   6.576
12728SOL    HW139958   1.872   2.572   6.651
12728SOL    HW239959   1.792   2.617   6.530
12729SOL     OW39960  11.067  13.853  13.780
12729SOL    HW139961  11.034  13.943  13.776
12729SOL    HW239962  11.030  13.810  13.703
12730SOL     OW39963  11.092  13.296   1.345
12730SOL    HW139964  11.075  13.365   1.281
12730SOL    HW239965  11.147  13.233   1.298
12731SOL     OW39966  10.956  11.620   4.446
12731SOL    HW139967  10.967  11.526   4.431
12731SOL    HW239968  10.862  11.634   4.433
12732SOL     OW39969   6.246   9.244   8.540
12732SOL    HW139970   6.223   9.186   8.468
12732SOL    HW239971   6.242   9.332   8.502
12733SOL     OW39972   6.594   6.329   5.204
12733SOL    HW139973   6.625   6.288   5.285
12733SOL    HW239974   6.621   6.269   5.135
12734SOL     OW39975  11.301   1.365   5.041
12734SOL    HW139976  11.305   1.372   5.136
12734SOL    HW239977  11.298   1.455   5.010
12735SOL     OW39978   5.076   6.743   6.066
12735SOL    HW139979   5.031   6.818   6.027
12735SOL    HW239980   5.152   6.782   6.111
12736SOL     OW39981   6.390   9.681   4.377
12736SOL    HW139982   6.421   9.638   4.457
12736SOL    HW239983   6.319   9.738   4.406
12737SOL     OW39984   1.684   4.174   1.116
12737SOL    HW139985   1.719   4.241   1.058
12737SOL    HW239986   1.589   4.175   1.101
12738SOL     OW39987  12.104   4.644   8.518
12738SOL    HW139988  12.077   4.585   8.447
12738SOL    HW239989  12.198   4.656   8.505
12739SOL     OW39990   6.816   5.129  14.395
12739SOL    HW139991   6.822   5.100  14.486
12739SOL    HW239992   6.907   5.145  14.369
12740SOL     OW39993   4.940  11.107  10.368
12740SOL    HW139994   4.927  11.016  10.339
12740SOL    HW239995   4.894  11.111  10.452
12741SOL     OW39996   4.402  14.100   7.897
12741SOL    HW139997   4.389  14.194   7.909
12741SOL    HW239998   4.325  14.060   7.938
12742SOL     OW39999   4.275  12.583   7.533
12742SOL    HW140000   4.355  12.590   7.481
12742SOL    HW240001   4.216  12.647   7.493
12743SOL     OW40002  10.609   4.562   6.759
12743SOL    HW140003  10.646   4.510   6.830
12743SOL    HW240004  10.519   4.579   6.786
12744SOL     OW40005   8.917   3.000   2.311
12744SOL    HW140006   9.000   3.015   2.356
12744SOL    HW240007   8.905   2.905   2.313
12745SOL     OW40008   3.242   8.512   6.738
12745SOL    HW140009   3.323   8.509   6.688
12745SOL    HW240010   3.240   8.429   6.786
12746SOL     OW40011   4.243  12.374  11.214
12746SOL    HW140012   4.212  12.415  11.133
12746SOL    HW240013   4.304  12.306  11.185
12747SOL     OW40014   6.035   0.667  12.868
12747SOL    HW140015   6.060   0.750  12.909
12747SOL    HW240016   6.119   0.626  12.846
12748SOL     OW40017  12.046   9.317   3.408
12748SOL    HW140018  11.987   9.387   3.379
12748SOL    HW240019  12.132   9.359   3.416
12749SOL     OW40020  12.956  12.602   9.128
12749SOL    HW140021  12.906  12.626   9.206
12749SOL    HW240022  12.921  12.657   9.058
12750SOL     OW40023  11.936  13.034   9.816
12750SOL    HW140024  11.933  13.059   9.908
12750SOL    HW240025  12.003  13.091   9.778
12751SOL     OW40026   8.393   0.999   3.440
12751SOL    HW140027   8.453   0.944   3.491
12751SOL    HW240028   8.307   0.961   3.455
12752SOL     OW40029  13.257   0.485  13.689
12752SOL    HW140030  13.223   0.398  13.710
12752SOL    HW240031  13.233   0.499  13.597
12753SOL     OW40032   6.058  11.547   8.353
12753SOL    HW140033   6.138  11.514   8.395
12753SOL    HW240034   6.063  11.513   8.264
12754SOL     OW40035   2.691  13.094   0.196
12754SOL    HW140036   2.692  13.001   0.176
12754SOL    HW240037   2.707  13.137   0.112
12755SOL     OW40038   2.975   1.437   3.690
12755SOL    HW140039   2.909   1.375   3.659
12755SOL    HW240040   3.055   1.385   3.700
12756SOL     OW40041   3.903   4.166  14.715
12756SOL    HW140042   3.887   4.234  14.780
12756SOL    HW240043   3.820   4.119  14.708
12757SOL     OW40044   4.846   0.168   3.606
12757SOL    HW140045   4.758   0.204   3.621
12757SOL    HW240046   4.884   0.224   3.539
12758SOL     OW40047   1.721  10.932   2.320
12758SOL    HW140048   1.810  10.898   2.331
12758SOL    HW240049   1.734  11.021   2.286
12759SOL     OW40050   5.195   9.296   9.732
12759SOL    HW140051   5.157   9.295   9.644
12759SOL    HW240052   5.235   9.383   9.740
12760SOL     OW40053  14.576  14.374  14.361
12760SOL    HW140054  14.625  14.454  14.380
12760SOL    HW240055  14.639  14.318  14.316
12761SOL     OW40056  13.489   6.635   5.531
12761SOL    HW140057  13.556   6.572   5.559
12761SOL    HW240058  13.488   6.626   5.435
12762SOL     OW40059   3.233   4.169   7.478
12762SOL    HW140060   3.174   4.214   7.416
12762SOL    HW240061   3.319   4.176   7.438
12763SOL     OW40062   0.651   7.455   7.078
12763SOL    HW140063   0.740   7.473   7.047
12763SOL    HW240064   0.656   7.366   7.113
12764SOL     OW40065  10.284   1.331   5.971
12764SOL    HW140066  10.375   1.351   5.949
12764SOL    HW240067  10.287   1.305   6.063
12765SOL     OW40068  11.604   7.144  14.714
12765SOL    HW140069  11.606   7.071  14.775
12765SOL    HW240070  11.695   7.170  14.703
12766SOL     OW40071   8.059   6.940   5.129
12766SOL    HW140072   7.980   6.920   5.079
12766SOL    HW240073   8.038   7.021   5.175
12767SOL     OW40074   9.081   0.902   7.968
12767SOL    HW140075   9.125   0.825   7.933
12767SOL    HW240076   9.079   0.964   7.895
12768SOL     OW40077   8.260   3.090   6.607
12768SOL    HW140078   8.192   3.059   6.667
12768SOL    HW240079   8.342   3.058   6.643
12769SOL     OW40080  10.271  14.598  11.546
12769SOL    HW140081  10.285  14.532  11.613
12769SOL    HW240082  10.318  14.567  11.469
12770SOL     OW40083  11.137   3.033   5.949
12770SOL    HW140084  11.131   2.941   5.923
12770SOL    HW240085  11.117   3.082   5.870
12771SOL     OW40086  10.490   3.466  14.055
12771SOL    HW140087  10.467   3.487  13.965
12771SOL    HW240088  10.437   3.389  14.077
12772SOL     OW40089   1.436   9.716  11.555
12772SOL    HW140090   1.386   9.711  11.473
12772SOL    HW240091   1.473   9.804  11.555
12773SOL     OW40092  13.965  10.602   3.233
12773SOL    HW140093  13.895  10.554   3.189
12773SOL    HW240094  13.923  10.681   3.266
12774SOL     OW40095   8.361   1.264   8.719
12774SOL    HW140096   8.389   1.284   8.808
12774SOL    HW240097   8.315   1.180   8.726
12775SOL     OW40098   2.608  11.566   8.007
12775SOL    HW140099   2.629  11.555   7.914
12775SOL    HW240100   2.553  11.492   8.028
12776SOL     OW40101   1.068   1.389   9.129
12776SOL    HW140102   1.120   1.372   9.207
12776SOL    HW240103   1.007   1.316   9.125
12777SOL     OW40104   6.536   2.078   5.324
12777SOL    HW140105   6.507   2.026   5.399
12777SOL    HW240106   6.475   2.055   5.254
12778SOL     OW40107   2.220   9.519  13.460
12778SOL    HW140108   2.282   9.488  13.393
12778SOL    HW240109   2.144   9.548  13.410
12779SOL     OW40110   4.532   3.686   6.785
12779SOL    HW140111   4.526   3.601   6.740
12779SOL    HW240112   4.591   3.669   6.859
12780SOL     OW40113   8.307   5.079  14.337
12780SOL    HW140114   8.363   5.126  14.275
12780SOL    HW240115   8.334   4.988  14.329
12781SOL     OW40116   4.297  11.571   8.606
12781SOL    HW140117   4.333  11.567   8.517
12781SOL    HW240118   4.358  11.521   8.659
12782SOL     OW40119   7.129  10.429  11.998
12782SOL    HW140120   7.072  10.363  12.039
12782SOL    HW240121   7.212  10.422  12.046
12783SOL     OW40122  14.041  10.309  14.011
12783SOL    HW140123  14.124  10.318  14.058
12783SOL    HW240124  13.985  10.259  14.070
12784SOL     OW40125  13.088   6.716  14.392
12784SOL    HW140126  13.155   6.652  14.369
12784SOL    HW240127  13.136   6.787  14.435
12785SOL     OW40128  10.324  12.971   2.913
12785SOL    HW140129  10.359  13.060   2.905
12785SOL    HW240130  10.282  12.969   2.999
12786SOL     OW40131   3.824   1.155  13.774
12786SOL    HW140132   3.752   1.154  13.711
12786SOL    HW240133   3.879   1.228  13.746
12787SOL     OW40134   9.596   2.784   6.105
12787SOL    HW140135   9.607   2.792   6.199
12787SOL    HW240136   9.684   2.791   6.070
12788SOL     OW40137  14.692   1.859   3.961
12788SOL    HW140138  14.620   1.812   4.003
12788SOL    HW240139  14.751   1.882   4.033
12789SOL     OW40140   0.647   6.320   3.877
12789SOL    HW140141   0.699   6.281   3.947
12789SOL    HW240142   0.558   6.286   3.891
12790SOL     OW40143   7.528   3.318   1.967
12790SOL    HW140144   7.446   3.360   1.942
12790SOL    HW240145   7.536   3.243   1.909
12791SOL     OW40146  13.616   0.571   3.053
12791SOL    HW140147  13.569   0.528   2.982
12791SOL    HW240148  13.686   0.511   3.076
12792SOL     OW40149  13.223   0.387  10.019
12792SOL    HW140150  13.280   0.463  10.021
12792SOL    HW240151  13.221   0.356  10.110
12793SOL     OW40152   1.551   6.761   1.898
12793SOL    HW140153   1.500   6.782   1.977
12793SOL    HW240154   1.530   6.670   1.879
12794SOL     OW40155   6.028   3.139   3.519
12794SOL    HW140156   6.070   3.055   3.534
12794SOL    HW240157   6.073   3.200   3.578
12795SOL     OW40158   5.495   8.192   3.773
12795SOL    HW140159   5.480   8.098   3.785
12795SOL    HW240160   5.418   8.234   3.810
12796SOL     OW40161  12.251  14.517   1.978
12796SOL    HW140162  12.185  14.526   2.046
12796SOL    HW240163  12.333  14.502   2.026
12797SOL     OW40164   7.387  12.319   8.913
12797SOL    HW140165   7.461  12.325   8.853
12797SOL    HW240166   7.379  12.407   8.951
12798SOL     OW40167   1.904  11.126   2.033
12798SOL    HW140168   1.859  11.166   2.107
12798SOL    HW240169   1.834  11.095   1.975
12799SOL     OW40170   5.348  12.819   4.982
12799SOL    HW140171   5.256  12.844   4.991
12799SOL    HW240172   5.393  12.900   4.959
12800SOL     OW40173   3.294   6.848   0.817
12800SOL    HW140174   3.212   6.826   0.774
12800SOL    HW240175   3.272   6.920   0.876
12801SOL     OW40176   8.255   8.691   5.923
12801SOL    HW140177   8.197   8.622   5.890
12801SOL    HW240178   8.220   8.772   5.886
12802SOL     OW40179   5.418   2.125   1.234
12802SOL    HW140180   5.327   2.146   1.211
12802SOL    HW240181   5.413   2.089   1.323
12803SOL     OW40182   0.778  12.192  10.912
12803SOL    HW140183   0.793  12.099  10.930
12803SOL    HW240184   0.782  12.198  10.816
12804SOL     OW40185   9.037   4.607   3.351
12804SOL    HW140186   9.080   4.538   3.403
12804SOL    HW240187   9.082   4.687   3.376
12805SOL     OW40188   3.915   1.748   1.229
12805SOL    HW140189   3.984   1.803   1.192
12805SOL    HW240190   3.858   1.809   1.276
12806SOL     OW40191  11.083   7.267  14.314
12806SOL    HW140192  11.093   7.261  14.219
12806SOL    HW240193  11.169   7.240  14.348
12807SOL     OW40194   0.805   2.447   6.826
12807SOL    HW140195   0.731   2.386   6.821
12807SOL    HW240196   0.775   2.516   6.886
12808SOL     OW40197  10.611   1.255   9.813
12808SOL    HW140198  10.683   1.208   9.772
12808SOL    HW240199  10.635   1.258   9.906
12809SOL     OW40200  13.843   0.798   9.642
12809SOL    HW140201  13.810   0.865   9.701
12809SOL    HW240202  13.891   0.737   9.698
12810SOL     OW40203  10.953   5.673   1.084
12810SOL    HW140204  10.901   5.635   1.013
12810SOL    HW240205  10.974   5.598   1.141
12811SOL     OW40206  12.649  12.109   2.456
12811SOL    HW140207  12.576  12.069   2.408
12811SOL    HW240208  12.609  12.146   2.535
12812SOL     OW40209  10.200   0.137   6.486
12812SOL    HW140210  10.280   0.164   6.441
12812SOL    HW240211  10.227   0.065   6.543
12813SOL     OW40212   4.751   5.075  13.553
12813SOL    HW140213   4.656   5.070  13.545
12813SOL    HW240214   4.775   5.155  13.505
12814SOL     OW40215  13.380  12.643   2.580
12814SOL    HW140216  13.373  12.739   2.572
12814SOL    HW240217  13.291  12.611   2.567
12815SOL     OW40218   7.926   1.785   3.954
12815SOL    HW140219   7.930   1.705   3.903
12815SOL    HW240220   7.854   1.835   3.917
12816SOL     OW40221   8.437   2.454  11.469
12816SOL    HW140222   8.407   2.419  11.385
12816SOL    HW240223   8.532   2.462  11.460
12817SOL     OW40224   9.485  10.954  14.858
12817SOL    HW140225   9.562  10.956   0.033
12817SOL    HW240226   9.443  10.870  14.879
12818SOL     OW40227   0.498   8.283   9.063
12818SOL    HW140228   0.405   8.274   9.043
12818SOL    HW240229   0.522   8.368   9.026
12819SOL     OW40230  11.421   5.275  12.645
12819SOL    HW140231  11.376   5.232  12.573
12819SOL    HW240232  11.393   5.227  12.723
12820SOL     OW40233  13.122   9.467  14.298
12820SOL    HW140234  13.175   9.544  14.278
12820SOL    HW240235  13.049   9.501  14.351
12821SOL     OW40236   7.323   6.156   9.739
12821SOL    HW140237   7.341   6.250   9.731
12821SOL    HW240238   7.235   6.145   9.705
12822SOL     OW40239   3.812  13.211   6.519
12822SOL    HW140240   3.781  13.207   6.428
12822SOL    HW240241   3.733  13.195   6.571
12823SOL     OW40242  11.353   4.642   2.335
12823SOL    HW140243  11.355   4.556   2.292
12823SOL    HW240244  11.427   4.689   2.298
12824SOL     OW40245  10.550   0.201   9.894
12824SOL    HW140246  10.606   0.177   9.967
12824SOL    HW240247  10.500   0.276   9.926
12825SOL     OW40248   1.152   8.340   5.979
12825SOL    HW140249   1.078   8.394   5.951
12825SOL    HW240250   1.218   8.353   5.911
12826SOL     OW40251   0.716  12.862   5.554
12826SOL    HW140252   0.789  12.801   5.560
12826SOL    HW240253   0.726  12.902   5.467
12827SOL     OW40254   3.848   8.125   7.112
12827SOL    HW140255   3.792   8.073   7.169
12827SOL    HW240256   3.828   8.094   7.023
12828SOL     OW40257   0.224   0.599   2.830
12828SOL    HW140258   0.228   0.649   2.748
12828SOL    HW240259   0.169   0.653   2.887
12829SOL     OW40260   4.486   5.892  13.038
12829SOL    HW140261   4.488   5.818  12.978
12829SOL    HW240262   4.577   5.920  13.047
12830SOL     OW40263  10.103   2.091   0.184
12830SOL    HW140264  10.118   1.997   0.194
12830SOL    HW240265  10.039   2.098   0.113
12831SOL     OW40266   9.490   0.244   4.321
12831SOL    HW140267   9.525   0.170   4.371
12831SOL    HW240268   9.459   0.205   4.239
12832SOL     OW40269  11.555   9.734   0.265
12832SOL    HW140270  11.490   9.800   0.288
12832SOL    HW240271  11.565   9.680   0.344
12833SOL     OW40272   6.709   3.479   0.857
12833SOL    HW140273   6.652   3.468   0.781
12833SOL    HW240274   6.704   3.572   0.878
12834SOL     OW40275   3.378   1.201  10.916
12834SOL    HW140276   3.356   1.113  10.946
12834SOL    HW240277   3.302   1.230  10.866
12835SOL     OW40278  13.917   2.593   8.304
12835SOL    HW140279  13.969   2.518   8.275
12835SOL    HW240280  13.826   2.568   8.284
12836SOL     OW40281  13.928  11.060  10.578
12836SOL    HW140282  13.943  11.010  10.498
12836SOL    HW240283  13.852  11.020  10.619
12837SOL     OW40284   1.330   4.010  13.409
12837SOL    HW140285   1.271   3.985  13.480
12837SOL    HW240286   1.272   4.034  13.337
12838SOL     OW40287  10.365  10.144   2.508
12838SOL    HW140288  10.352  10.050   2.496
12838SOL    HW240289  10.368  10.156   2.603
12839SOL     OW40290   8.320   6.069  14.383
12839SOL    HW140291   8.275   5.984  14.384
12839SOL    HW240292   8.256   6.130  14.420
12840SOL     OW40293   3.820   4.373   1.890
12840SOL    HW140294   3.870   4.401   1.966
12840SOL    HW240295   3.729   4.374   1.919
12841SOL     OW40296  12.217   4.807  14.628
12841SOL    HW140297  12.264   4.778  14.706
12841SOL    HW240298  12.229   4.901  14.625
12842SOL     OW40299   0.269   1.183   9.812
12842SOL    HW140300   0.361   1.200   9.835
12842SOL    HW240301   0.226   1.169   9.896
12843SOL     OW40302  14.075   3.236   7.451
12843SOL    HW140303  14.074   3.314   7.506
12843SOL    HW240304  13.988   3.198   7.460
12844SOL     OW40305  12.924  13.294  10.593
12844SOL    HW140306  12.858  13.358  10.619
12844SOL    HW240307  12.876  13.229  10.542
12845SOL     OW40308   9.062   6.163   8.793
12845SOL    HW140309   9.051   6.230   8.725
12845SOL    HW240310   9.057   6.080   8.746
12846SOL     OW40311   5.833   5.814   9.893
12846SOL    HW140312   5.755   5.846   9.846
12846SOL    HW240313   5.799   5.779   9.975
12847SOL     OW40314  11.988   1.888   9.804
12847SOL    HW140315  11.996   1.966   9.858
12847SOL    HW240316  11.949   1.920   9.722
12848SOL     OW40317   7.544   1.234   8.658
12848SOL    HW140318   7.525   1.176   8.731
12848SOL    HW240319   7.476   1.216   8.593
12849SOL     OW40320  12.145   6.569  10.718
12849SOL    HW140321  12.122   6.591  10.628
12849SOL    HW240322  12.123   6.647  10.768
12850SOL     OW40323   4.897   8.637  12.538
12850SOL    HW140324   4.862   8.688  12.465
12850SOL    HW240325   4.888   8.546  12.510
12851SOL     OW40326   3.405   6.100   4.733
12851SOL    HW140327   3.458   6.149   4.797
12851SOL    HW240328   3.315   6.128   4.751
12852SOL     OW40329   4.171   3.596   2.618
12852SOL    HW140330   4.142   3.533   2.683
12852SOL    HW240331   4.123   3.676   2.638
12853SOL     OW40332  14.598  14.686  10.561
12853SOL    HW140333  14.603  14.688  10.657
12853SOL    HW240334  14.671  14.631  10.534
12854SOL     OW40335  10.065   1.213   7.428
12854SOL    HW140336  10.015   1.263   7.492
12854SOL    HW240337  10.129   1.276   7.393
12855SOL     OW40338  12.680  10.742  14.836
12855SOL    HW140339  12.692  10.752  14.742
12855SOL    HW240340  12.652  10.651  14.848
12856SOL     OW40341  10.487   0.799   6.190
12856SOL    HW140342  10.511   0.748   6.113
12856SOL    HW240343  10.405   0.843   6.166
12857SOL     OW40344  14.320   8.595   0.632
12857SOL    HW140345  14.273   8.657   0.689
12857SOL    HW240346  14.316   8.635   0.545
12858SOL     OW40347   3.492  10.689   1.898
12858SOL    HW140348   3.452  10.775   1.908
12858SOL    HW240349   3.428  10.628   1.934
12859SOL     OW40350   0.585   5.133   7.720
12859SOL    HW140351   0.513   5.159   7.662
12859SOL    HW240352   0.581   5.037   7.721
12860SOL     OW40353  10.356   9.022   7.165
12860SOL    HW140354  10.331   8.956   7.100
12860SOL    HW240355  10.445   9.047   7.141
12861SOL     OW40356   6.301   3.251   4.005
12861SOL    HW140357   6.236   3.286   4.065
12861SOL    HW240358   6.351   3.328   3.976
12862SOL     OW40359   3.056   2.924   6.711
12862SOL    HW140360   3.054   2.939   6.805
12862SOL    HW240361   2.989   2.857   6.697
12863SOL     OW40362   5.136  14.399  14.611
12863SOL    HW140363   5.140  14.326  14.672
12863SOL    HW240364   5.081  14.367  14.539
12864SOL     OW40365   1.224  10.884   7.249
12864SOL    HW140366   1.138  10.850   7.273
12864SOL    HW240367   1.286  10.826   7.292
12865SOL     OW40368  11.223  10.533   0.550
12865SOL    HW140369  11.212  10.552   0.457
12865SOL    HW240370  11.159  10.590   0.593
12866SOL     OW40371  14.324   8.523   1.599
12866SOL    HW140372  14.352   8.431   1.607
12866SOL    HW240373  14.368   8.554   1.520
12867SOL     OW40374   1.001   1.752   5.342
12867SOL    HW140375   0.906   1.749   5.338
12867SOL    HW240376   1.022   1.728   5.433
12868SOL     OW40377   8.016   3.839   2.683
12868SOL    HW140378   8.061   3.765   2.642
12868SOL    HW240379   8.022   3.822   2.777
12869SOL     OW40380  14.173   6.250   8.058
12869SOL    HW140381  14.137   6.166   8.031
12869SOL    HW240382  14.097   6.309   8.059
12870SOL     OW40383   8.408  14.328   8.864
12870SOL    HW140384   8.318  14.359   8.870
12870SOL    HW240385   8.417  14.264   8.934
12871SOL     OW40386   5.588   3.311  10.365
12871SOL    HW140387   5.646   3.282  10.435
12871SOL    HW240388   5.595   3.406  10.366
12872SOL     OW40389   6.941  12.097   7.593
12872SOL    HW140390   6.855  12.055   7.598
12872SOL    HW240391   6.988  12.047   7.526
12873SOL     OW40392   2.872   9.665   3.801
12873SOL    HW140393   2.938   9.599   3.823
12873SOL    HW240394   2.898   9.697   3.714
12874SOL     OW40395   8.011  10.030  14.320
12874SOL    HW140396   8.024   9.946  14.275
12874SOL    HW240397   7.936  10.070  14.275
12875SOL     OW40398  14.415   5.296   5.556
12875SOL    HW140399  14.491   5.336   5.600
12875SOL    HW240400  14.339   5.339   5.596
12876SOL     OW40401   5.110   9.899   7.922
12876SOL    HW140402   5.025   9.859   7.941
12876SOL    HW240403   5.089   9.980   7.876
12877SOL     OW40404   7.095  11.901  14.584
12877SOL    HW140405   7.092  11.806  14.572
12877SOL    HW240406   7.120  11.912  14.676
12878SOL     OW40407  14.529  13.549  10.131
12878SOL    HW140408  14.616  13.579  10.157
12878SOL    HW240409  14.546  13.481  10.066
12879SOL     OW40410   8.014  13.351  14.689
12879SOL    HW140411   8.086  13.351  14.752
12879SOL    HW240412   8.038  13.283  14.626
12880SOL     OW40413   5.743  12.608  14.370
12880SOL    HW140414   5.682  12.607  14.444
12880SOL    HW240415   5.728  12.691  14.327
12881SOL     OW40416   0.240   8.107  13.480
12881SOL    HW140417   0.231   8.073  13.391
12881SOL    HW240418   0.242   8.028  13.535
12882SOL     OW40419   1.064  12.151  12.107
12882SOL    HW140420   1.059  12.247  12.103
12882SOL    HW240421   1.086  12.132  12.198
12883SOL     OW40422   6.030   5.992   2.460
12883SOL    HW140423   6.054   6.085   2.462
12883SOL    HW240424   6.102   5.947   2.505
12884SOL     OW40425   6.308   8.262   4.492
12884SOL    HW140426   6.360   8.307   4.426
12884SOL    HW240427   6.336   8.170   4.486
12885SOL     OW40428  13.543  14.084   6.222
12885SOL    HW140429  13.552  14.047   6.134
12885SOL    HW240430  13.616  14.046   6.271
12886SOL     OW40431  11.386   4.290  14.180
12886SOL    HW140432  11.293   4.308  14.191
12886SOL    HW240433  11.422   4.370  14.142
12887SOL     OW40434   7.329   5.099  13.398
12887SOL    HW140435   7.257   5.153  13.430
12887SOL    HW240436   7.341   5.031  13.465
12888SOL     OW40437   5.826   0.073   6.684
12888SOL    HW140438   5.743   0.090   6.729
12888SOL    HW240439   5.801   0.044   6.597
12889SOL     OW40440   2.219  10.036   6.094
12889SOL    HW140441   2.206  10.110   6.034
12889SOL    HW240442   2.284   9.981   6.050
12890SOL     OW40443  13.245   8.033   8.002
12890SOL    HW140444  13.194   8.104   8.041
12890SOL    HW240445  13.296   8.075   7.933
12891SOL     OW40446  13.529  14.002   2.102
12891SOL    HW140447  13.563  14.080   2.057
12891SOL    HW240448  13.444  13.986   2.061
12892SOL     OW40449  10.301  14.579   3.127
12892SOL    HW140450  10.337  14.596   3.040
12892SOL    HW240451  10.213  14.617   3.124
12893SOL     OW40452   4.067   5.317   8.536
12893SOL    HW140453   4.013   5.256   8.486
12893SOL    HW240454   4.157   5.287   8.522
12894SOL     OW40455   0.324  13.137   3.802
12894SOL    HW140456   0.252  13.200   3.801
12894SOL    HW240457   0.283  13.053   3.784
12895SOL     OW40458   6.173   1.241   5.974
12895SOL    HW140459   6.104   1.268   6.035
12895SOL    HW240460   6.130   1.238   5.889
12896SOL     OW40461   2.149   2.351   7.754
12896SOL    HW140462   2.106   2.299   7.822
12896SOL    HW240463   2.129   2.307   7.672
12897SOL     OW40464   7.873  14.466  10.808
12897SOL    HW140465   7.964  14.470  10.840
12897SOL    HW240466   7.860  14.550  10.764
12898SOL     OW40467   7.652   2.786   4.773
12898SOL    HW140468   7.740   2.808   4.741
12898SOL    HW240469   7.661   2.698   4.811
12899SOL     OW40470  10.911   2.627   4.199
12899SOL    HW140471  10.966   2.560   4.159
12899SOL    HW240472  10.823   2.589   4.200
12900SOL     OW40473   6.127  10.068  14.465
12900SOL    HW140474   6.158  10.143  14.415
12900SOL    HW240475   6.118  10.101  14.555
12901SOL     OW40476   3.541   8.022   4.814
12901SOL    HW140477   3.555   8.112   4.842
12901SOL    HW240478   3.454   8.022   4.774
12902SOL     OW40479   1.598   0.135   2.071
12902SOL    HW140480   1.627   0.048   2.100
12902SOL    HW240481   1.607   0.132   1.975
12903SOL     OW40482   2.859  14.472   7.178
12903SOL    HW140483   2.940  14.469   7.229
12903SOL    HW240484   2.803  14.532   7.226
12904SOL     OW40485   6.992  12.405   0.827
12904SOL    HW140486   7.029  12.453   0.901
12904SOL    HW240487   7.043  12.324   0.822
12905SOL     OW40488   2.304  13.994   6.128
12905SOL    HW140489   2.386  14.043   6.132
12905SOL    HW240490   2.247  14.046   6.072
12906SOL     OW40491  14.475  13.014   9.284
12906SOL    HW140492  14.530  13.083   9.319
12906SOL    HW240493  14.398  13.012   9.341
12907SOL     OW40494   9.219   6.094   7.736
12907SOL    HW140495   9.139   6.092   7.787
12907SOL    HW240496   9.288   6.110   7.800
12908SOL     OW40497   3.851  13.858  14.157
12908SOL    HW140498   3.848  13.910  14.237
12908SOL    HW240499   3.940  13.823  14.154
12909SOL     OW40500   3.997  10.009   8.875
12909SOL    HW140501   3.996  10.012   8.779
12909SOL    HW240502   4.088  10.022   8.899
12910SOL     OW40503  11.260   5.094  10.700
12910SOL    HW140504  11.247   5.013  10.650
12910SOL    HW240505  11.342   5.079  10.748
12911SOL     OW40506   7.259   5.350   4.304
12911SOL    HW140507   7.294   5.321   4.389
12911SOL    HW240508   7.235   5.441   4.319
12912SOL     OW40509   8.630   1.661  10.308
12912SOL    HW140510   8.548   1.622  10.340
12912SOL    HW240511   8.682   1.586  10.278
12913SOL     OW40512   7.668  11.648   3.709
12913SOL    HW140513   7.707  11.636   3.622
12913SOL    HW240514   7.740  11.679   3.764
12914SOL     OW40515  13.054  13.623   4.346
12914SOL    HW140516  13.091  13.668   4.270
12914SOL    HW240517  13.119  13.558   4.371
12915SOL     OW40518  13.818   1.544  12.722
12915SOL    HW140519  13.868   1.564  12.642
12915SOL    HW240520  13.759   1.474  12.697
12916SOL     OW40521  14.357  10.286   0.076
12916SOL    HW140522  14.321  10.313   0.160
12916SOL    HW240523  14.451  10.298   0.085
12917SOL     OW40524   4.136  13.532   2.581
12917SOL    HW140525   4.107  13.590   2.510
12917SOL    HW240526   4.164  13.452   2.536
12918SOL     OW40527  10.433   3.810   3.012
12918SOL    HW140528  10.524   3.836   3.023
12918SOL    HW240529  10.417   3.818   2.918
12919SOL     OW40530   9.698   7.188   8.983
12919SOL    HW140531   9.682   7.139   9.064
12919SOL    HW240532   9.784   7.158   8.953
12920SOL     OW40533  10.385   2.120   0.273
12920SOL    HW140534  10.290   2.129   0.269
12920SOL    HW240535  10.414   2.141   0.184
12921SOL     OW40536   4.612   9.744  14.800
12921SOL    HW140537   4.646   9.781   0.000
12921SOL    HW240538   4.654   9.659  14.793
12922SOL     OW40539  10.353  11.573  13.309
12922SOL    HW140540  10.317  11.580  13.221
12922SOL    HW240541  10.440  11.613  13.303
12923SOL     OW40542   1.662  13.037   2.827
12923SOL    HW140543   1.641  12.986   2.749
12923SOL    HW240544   1.672  13.127   2.795
12924SOL     OW40545   1.250   2.156  13.556
12924SOL    HW140546   1.323   2.212  13.530
12924SOL    HW240547   1.205   2.136  13.474
12925SOL     OW40548  11.498   5.620   6.118
12925SOL    HW140549  11.542   5.582   6.042
12925SOL    HW240550  11.569   5.643   6.178
12926SOL     OW40551   3.655   1.970   2.828
12926SOL    HW140552   3.727   2.003   2.773
12926SOL    HW240553   3.590   1.940   2.765
12927SOL     OW40554   8.757   6.526  13.212
12927SOL    HW140555   8.808   6.473  13.273
12927SOL    HW240556   8.683   6.557  13.264
12928SOL     OW40557   2.160   2.241  11.744
12928SOL    HW140558   2.180   2.153  11.776
12928SOL    HW240559   2.076   2.263  11.783
12929SOL     OW40560   2.318   0.470   1.120
12929SOL    HW140561   2.225   0.467   1.144
12929SOL    HW240562   2.319   0.446   1.027
12930SOL     OW40563  11.201  11.729   6.732
12930SOL    HW140564  11.132  11.718   6.798
12930SOL    HW240565  11.167  11.797   6.673
12931SOL     OW40566   9.095   8.866   2.959
12931SOL    HW140567   9.072   8.801   3.025
12931SOL    HW240568   9.100   8.816   2.877
12932SOL     OW40569   1.093   2.969  14.865
12932SOL    HW140570   1.155   2.968  14.792
12932SOL    HW240571   1.127   2.903   0.044
12933SOL     OW40572  13.783   7.418  12.882
12933SOL    HW140573  13.843   7.483  12.917
12933SOL    HW240574  13.830   7.379  12.808
12934SOL     OW40575   0.999   4.057   3.410
12934SOL    HW140576   0.950   4.097   3.481
12934SOL    HW240577   0.986   3.963   3.422
12935SOL     OW40578   3.245   7.127   8.460
12935SOL    HW140579   3.313   7.160   8.520
12935SOL    HW240580   3.189   7.073   8.515
12936SOL     OW40581  14.112   8.716   1.571
12936SOL    HW140582  14.097   8.679   1.658
12936SOL    HW240583  14.200   8.687   1.548
12937SOL     OW40584   9.585  12.732   4.851
12937SOL    HW140585   9.598  12.650   4.805
12937SOL    HW240586   9.638  12.724   4.931
12938SOL     OW40587   9.318  14.048   3.276
12938SOL    HW140588   9.243  14.003   3.314
12938SOL    HW240589   9.347  13.991   3.204
12939SOL     OW40590   1.926   8.184  14.407
12939SOL    HW140591   1.984   8.191  14.482
12939SOL    HW240592   1.981   8.202  14.331
12940SOL     OW40593  14.478  12.877  13.991
12940SOL    HW140594  14.503  12.951  14.046
12940SOL    HW240595  14.385  12.890  13.973
12941SOL     OW40596   3.884   1.624  12.703
12941SOL    HW140597   3.898   1.593  12.793
12941SOL    HW240598   3.835   1.706  12.713
12942SOL     OW40599   2.118   3.621   1.204
12942SOL    HW140600   2.092   3.536   1.167
12942SOL    HW240601   2.077   3.685   1.146
12943SOL     OW40602  14.742  14.259   4.593
12943SOL    HW140603  14.749  14.216   4.678
12943SOL    HW240604  14.685  14.202   4.541
12944SOL     OW40605   9.266  11.317  13.033
12944SOL    HW140606   9.182  11.357  13.009
12944SOL    HW240607   9.258  11.226  13.005
12945SOL     OW40608   9.438   2.571  11.344
12945SOL    HW140609   9.395   2.499  11.391
12945SOL    HW240610   9.528   2.571  11.377
12946SOL     OW40611   8.722   8.162   4.665
12946SOL    HW140612   8.628   8.177   4.672
12946SOL    HW240613   8.742   8.178   4.573
12947SOL     OW40614   5.730   1.466  12.529
12947SOL    HW140615   5.679   1.525  12.472
12947SOL    HW240616   5.721   1.380  12.489
12948SOL     OW40617  13.498  13.449  10.635
12948SOL    HW140618  13.498  13.511  10.563
12948SOL    HW240619  13.584  13.406  10.630
12949SOL     OW40620  14.235  11.587   7.271
12949SOL    HW140621  14.299  11.615   7.205
12949SOL    HW240622  14.259  11.497   7.292
12950SOL     OW40623  14.121  11.987  10.184
12950SOL    HW140624  14.213  11.961  10.177
12950SOL    HW240625  14.085  11.968  10.098
12951SOL     OW40626   7.154   0.450   7.157
12951SOL    HW140627   7.193   0.466   7.071
12951SOL    HW240628   7.128   0.537   7.188
12952SOL     OW40629  10.091  12.597  14.640
12952SOL    HW140630  10.059  12.554  14.561
12952SOL    HW240631  10.187  12.597  14.629
12953SOL     OW40632   7.380   7.170   8.253
12953SOL    HW140633   7.402   7.079   8.232
12953SOL    HW240634   7.390   7.217   8.171
12954SOL     OW40635   9.684   6.150   1.668
12954SOL    HW140636   9.765   6.189   1.636
12954SOL    HW240637   9.697   6.139   1.762
12955SOL     OW40638   2.672   7.494  11.783
12955SOL    HW140639   2.656   7.585  11.809
12955SOL    HW240640   2.688   7.499  11.689
12956SOL     OW40641   3.760   9.253   4.795
12956SOL    HW140642   3.716   9.238   4.878
12956SOL    HW240643   3.768   9.348   4.789
12957SOL     OW40644   1.343  10.505   6.297
12957SOL    HW140645   1.297  10.426   6.271
12957SOL    HW240646   1.310  10.524   6.385
12958SOL     OW40647   8.846  13.759  12.559
12958SOL    HW140648   8.753  13.783  12.563
12958SOL    HW240649   8.880  13.784  12.645
12959SOL     OW40650   8.642  14.110   8.522
12959SOL    HW140651   8.615  14.024   8.488
12959SOL    HW240652   8.692  14.090   8.601
12960SOL     OW40653  13.714   7.088   1.200
12960SOL    HW140654  13.685   7.103   1.110
12960SOL    HW240655  13.729   7.176   1.235
12961SOL     OW40656   2.792   4.165   3.642
12961SOL    HW140657   2.780   4.259   3.637
12961SOL    HW240658   2.882   4.154   3.674
12962SOL     OW40659   8.127   4.629   8.614
12962SOL    HW140660   8.137   4.701   8.553
12962SOL    HW240661   8.216   4.608   8.642
12963SOL     OW40662   9.062   2.417   0.883
12963SOL    HW140663   9.125   2.484   0.857
12963SOL    HW240664   8.985   2.466   0.913
12964SOL     OW40665   1.394   3.480   8.714
12964SOL    HW140666   1.470   3.470   8.655
12964SOL    HW240667   1.411   3.561   8.761
12965SOL     OW40668  12.330   3.957  10.343
12965SOL    HW140669  12.380   4.034  10.316
12965SOL    HW240670  12.396   3.889  10.357
12966SOL     OW40671  13.038  14.814   3.565
12966SOL    HW140672  13.084  14.744   3.519
12966SOL    HW240673  12.959  14.829   3.514
12967SOL     OW40674  11.360   9.677  12.479
12967SOL    HW140675  11.418   9.654  12.406
12967SOL    HW240676  11.320   9.760  12.453
12968SOL     OW40677   9.225  14.601   4.118
12968SOL    HW140678   9.188  14.681   4.155
12968SOL    HW240679   9.311  14.593   4.160
12969SOL     OW40680  12.179  10.226   6.439
12969SOL    HW140681  12.180  10.163   6.511
12969SOL    HW240682  12.263  10.213   6.395
12970SOL     OW40683  10.057  13.610   5.411
12970SOL    HW140684   9.998  13.581   5.341
12970SOL    HW240685  10.144  13.593   5.377
12971SOL     OW40686  12.591   4.791  12.635
12971SOL    HW140687  12.601   4.734  12.711
12971SOL    HW240688  12.498   4.811  12.631
12972SOL     OW40689   4.448   7.479   9.170
12972SOL    HW140690   4.457   7.543   9.241
12972SOL    HW240691   4.528   7.488   9.120
12973SOL     OW40692   4.523   2.965   9.804
12973SOL    HW140693   4.568   2.909   9.741
12973SOL    HW240694   4.579   2.962   9.882
12974SOL     OW40695  12.024   5.747   7.692
12974SOL    HW140696  11.930   5.739   7.672
12974SOL    HW240697  12.060   5.662   7.667
12975SOL     OW40698   3.564  10.016   7.455
12975SOL    HW140699   3.574   9.921   7.458
12975SOL    HW240700   3.613  10.047   7.531
12976SOL     OW40701  12.209   7.416   3.092
12976SOL    HW140702  12.200   7.333   3.047
12976SOL    HW240703  12.297   7.447   3.071
12977SOL     OW40704   5.360  11.361   5.181
12977SOL    HW140705   5.449  11.392   5.165
12977SOL    HW240706   5.354  11.352   5.276
12978SOL     OW40707  10.710  13.699   6.601
12978SOL    HW140708  10.728  13.730   6.690
12978SOL    HW240709  10.653  13.766   6.563
12979SOL     OW40710  11.993   8.007  13.268
12979SOL    HW140711  12.030   7.990  13.182
12979SOL    HW240712  12.058   7.973  13.329
12980SOL     OW40713   5.707  14.509  11.266
12980SOL    HW140714   5.737  14.557  11.343
12980SOL    HW240715   5.631  14.558  11.235
12981SOL     OW40716  13.726   2.644  12.353
12981SOL    HW140717  13.712   2.610  12.265
12981SOL    HW240718  13.794   2.710  12.343
12982SOL     OW40719   8.499   4.397   5.345
12982SOL    HW140720   8.474   4.364   5.259
12982SOL    HW240721   8.477   4.326   5.406
12983SOL     OW40722   9.687  11.299   5.608
12983SOL    HW140723   9.610  11.247   5.585
12983SOL    HW240724   9.756  11.267   5.550
12984SOL     OW40725   0.124   8.695   6.836
12984SOL    HW140726   0.214   8.728   6.844
12984SOL    HW240727   0.126   8.638   6.759
12985SOL     OW40728   6.815   6.135   9.812
12985SOL    HW140729   6.816   6.133   9.908
12985SOL    HW240730   6.770   6.216   9.790
12986SOL     OW40731  10.570   0.362   4.665
12986SOL    HW140732  10.548   0.437   4.609
12986SOL    HW240733  10.607   0.400   4.744
12987SOL     OW40734   2.718  14.144  11.202
12987SOL    HW140735   2.622  14.138  11.199
12987SOL    HW240736   2.738  14.155  11.295
12988SOL     OW40737  10.686   7.131   5.938
12988SOL    HW140738  10.652   7.201   5.882
12988SOL    HW240739  10.638   7.053   5.910
12989SOL     OW40740   6.834   4.074   1.248
12989SOL    HW140741   6.765   4.044   1.307
12989SOL    HW240742   6.898   4.003   1.247
12990SOL     OW40743   4.263   1.694  11.574
12990SOL    HW140744   4.234   1.758  11.638
12990SOL    HW240745   4.236   1.609  11.610
12991SOL     OW40746   2.185  12.931   3.386
12991SOL    HW140747   2.233  12.873   3.326
12991SOL    HW240748   2.148  12.999   3.329
12992SOL     OW40749   4.866  13.872   6.037
12992SOL    HW140750   4.916  13.818   6.098
12992SOL    HW240751   4.908  13.857   5.952
12993SOL     OW40752   3.747   6.054  14.246
12993SOL    HW140753   3.809   6.016  14.185
12993SOL    HW240754   3.752   6.149  14.230
12994SOL     OW40755   0.732  12.834  14.405
12994SOL    HW140756   0.647  12.793  14.421
12994SOL    HW240757   0.738  12.840  14.310
12995SOL     OW40758   5.833   1.842  13.583
12995SOL    HW140759   5.797   1.873  13.666
12995SOL    HW240760   5.883   1.916  13.549
12996SOL     OW40761  14.815   8.025  13.648
12996SOL    HW140762  14.820   8.040  13.553
12996SOL    HW240763  14.728   8.054  13.673
12997SOL     OW40764   7.432  11.983   9.563
12997SOL    HW140765   7.420  11.988   9.469
12997SOL    HW240766   7.472  11.897   9.578
12998SOL     OW40767   1.261   2.620   3.580
12998SOL    HW140768   1.239   2.633   3.672
12998SOL    HW240769   1.203   2.679   3.533
12999SOL     OW40770   8.050   9.963   4.891
12999SOL    HW140771   8.075   9.914   4.813
12999SOL    HW240772   7.956   9.947   4.900
13000SOL     OW40773  12.155   7.732   1.427
13000SOL    HW140774  12.079   7.678   1.447
13000SOL    HW240775  12.186   7.700   1.342
13001SOL     OW40776   3.368   7.068   1.994
13001SOL    HW140777   3.424   7.145   1.997
13001SOL    HW240778   3.429   6.994   2.000
13002SOL     OW40779   0.360   3.935   9.721
13002SOL    HW140780   0.327   3.957   9.808
13002SOL    HW240781   0.372   4.019   9.677
13003SOL     OW40782  12.965  13.337  13.313
13003SOL    HW140783  12.962  13.242  13.306
13003SOL    HW240784  12.934  13.355  13.402
13004SOL     OW40785   1.375   5.692   9.257
13004SOL    HW140786   1.438   5.623   9.277
13004SOL    HW240787   1.294   5.645   9.239
13005SOL     OW40788   0.057   3.895   3.493
13005SOL    HW140789   0.115   3.931   3.426
13005SOL    HW240790  14.867   3.855   3.444
13006SOL     OW40791  10.824   7.593  12.275
13006SOL    HW140792  10.885   7.528  12.310
13006SOL    HW240793  10.876   7.672  12.263
13007SOL     OW40794   7.211   7.154   4.427
13007SOL    HW140795   7.239   7.124   4.341
13007SOL    HW240796   7.279   7.125   4.486
13008SOL     OW40797  14.178   1.439   7.509
13008SOL    HW140798  14.157   1.359   7.462
13008SOL    HW240799  14.271   1.433   7.528
13009SOL     OW40800  11.616   3.633   4.604
13009SOL    HW140801  11.527   3.608   4.625
13009SOL    HW240802  11.628   3.719   4.645
13010SOL     OW40803  11.737   8.247  11.738
13010SOL    HW140804  11.691   8.167  11.761
13010SOL    HW240805  11.789   8.268  11.815
13011SOL     OW40806   1.560  12.338   8.535
13011SOL    HW140807   1.610  12.282   8.476
13011SOL    HW240808   1.583  12.308   8.623
13012SOL     OW40809   4.238   4.999   3.327
13012SOL    HW140810   4.227   4.908   3.299
13012SOL    HW240811   4.319   5.028   3.285
13013SOL     OW40812   4.161   4.047   8.084
13013SOL    HW140813   4.226   4.073   8.149
13013SOL    HW240814   4.212   4.031   8.004
13014SOL     OW40815  14.681   7.809  11.043
13014SOL    HW140816  14.763   7.764  11.062
13014SOL    HW240817  14.680   7.884  11.102
13015SOL     OW40818   0.341   1.168  10.131
13015SOL    HW140819   0.270   1.230  10.113
13015SOL    HW240820   0.405   1.219  10.181
13016SOL     OW40821  14.670  11.510   0.502
13016SOL    HW140822  14.682  11.554   0.418
13016SOL    HW240823  14.656  11.418   0.480
13017SOL     OW40824  11.589   1.846   1.125
13017SOL    HW140825  11.667   1.888   1.161
13017SOL    HW240826  11.558   1.907   1.057
13018SOL     OW40827   0.892   4.576   4.675
13018SOL    HW140828   0.889   4.497   4.621
13018SOL    HW240829   0.885   4.544   4.765
13019SOL     OW40830   7.972  13.025  12.856
13019SOL    HW140831   7.913  12.957  12.821
13019SOL    HW240832   8.055  13.009  12.811
13020SOL     OW40833  14.577   5.136   9.039
13020SOL    HW140834  14.508   5.176   8.987
13020SOL    HW240835  14.592   5.197   9.111
13021SOL     OW40836   7.649   1.536  11.238
13021SOL    HW140837   7.741   1.550  11.218
13021SOL    HW240838   7.605   1.537  11.153
13022SOL     OW40839   3.051   3.215   3.171
13022SOL    HW140840   2.959   3.228   3.192
13022SOL    HW240841   3.074   3.289   3.115
13023SOL     OW40842  11.673  13.317  13.926
13023SOL    HW140843  11.658  13.411  13.916
13023SOL    HW240844  11.729  13.310  14.003
13024SOL     OW40845   5.827   6.695   7.447
13024SOL    HW140846   5.895   6.760   7.466
13024SOL    HW240847   5.746   6.738   7.475
13025SOL     OW40848   2.279  13.698   0.110
13025SOL    HW140849   2.206  13.637   0.123
13025SOL    HW240850   2.246  13.781   0.143
13026SOL     OW40851   4.806   5.163  11.117
13026SOL    HW140852   4.872   5.221  11.080
13026SOL    HW240853   4.760   5.127  11.041
13027SOL     OW40854  13.517   3.105   2.462
13027SOL    HW140855  13.605   3.070   2.479
13027SOL    HW240856  13.504   3.170   2.531
13028SOL     OW40857   9.261   3.051   9.515
13028SOL    HW140858   9.343   3.085   9.480
13028SOL    HW240859   9.226   2.997   9.445
13029SOL     OW40860  13.309   6.876   1.068
13029SOL    HW140861  13.248   6.949   1.080
13029SOL    HW240862  13.286   6.815   1.138
13030SOL     OW40863   5.112   9.249  14.421
13030SOL    HW140864   5.071   9.266  14.506
13030SOL    HW240865   5.187   9.309  14.418
13031SOL     OW40866   0.261  13.279   9.645
13031SOL    HW140867   0.195  13.236   9.700
13031SOL    HW240868   0.344  13.243   9.675
13032SOL     OW40869   7.940   9.264   8.168
13032SOL    HW140870   7.981   9.244   8.084
13032SOL    HW240871   7.994   9.220   8.233
13033SOL     OW40872   1.311   6.811   4.734
13033SOL    HW140873   1.345   6.741   4.679
13033SOL    HW240874   1.364   6.887   4.712
13034SOL     OW40875   7.485   7.420   0.641
13034SOL    HW140876   7.524   7.432   0.554
13034SOL    HW240877   7.534   7.347   0.680
13035SOL     OW40878   5.747   8.857   0.168
13035SOL    HW140879   5.729   8.817   0.083
13035SOL    HW240880   5.709   8.945   0.162
13036SOL     OW40881   7.551  10.792   2.827
13036SOL    HW140882   7.470  10.842   2.837
13036SOL    HW240883   7.584  10.816   2.740
13037SOL     OW40884   3.353   0.273   2.183
13037SOL    HW140885   3.389   0.349   2.137
13037SOL    HW240886   3.259   0.288   2.186
13038SOL     OW40887   6.492   2.476  12.151
13038SOL    HW140888   6.560   2.411  12.168
13038SOL    HW240889   6.540   2.558  12.139
13039SOL     OW40890   7.865  10.936  14.706
13039SOL    HW140891   7.847  10.860  14.651
13039SOL    HW240892   7.956  10.925  14.734
13040SOL     OW40893  11.241  13.260   8.500
13040SOL    HW140894  11.326  13.272   8.459
13040SOL    HW240895  11.188  13.214   8.434
13041SOL     OW40896   8.507   5.924   5.519
13041SOL    HW140897   8.550   6.006   5.543
13041SOL    HW240898   8.416   5.948   5.504
13042SOL     OW40899   6.835   4.185  12.354
13042SOL    HW140900   6.878   4.184  12.440
13042SOL    HW240901   6.757   4.132  12.366
13043SOL     OW40902   4.209  10.908  14.783
13043SOL    HW140903   4.165  10.842  14.729
13043SOL    HW240904   4.302  10.889  14.774
13044SOL     OW40905   7.099   4.945   9.374
13044SOL    HW140906   7.075   5.011   9.309
13044SOL    HW240907   7.084   4.987   9.458
13045SOL     OW40908   6.750  14.144   7.468
13045SOL    HW140909   6.750  14.233   7.435
13045SOL    HW240910   6.777  14.152   7.559
13046SOL     OW40911  12.033  10.829   7.810
13046SOL    HW140912  11.968  10.775   7.765
13046SOL    HW240913  12.091  10.861   7.741
13047SOL     OW40914  12.794   9.694   5.162
13047SOL    HW140915  12.777   9.710   5.069
13047SOL    HW240916  12.724   9.741   5.207
13048SOL     OW40917  10.894   6.337  11.215
13048SOL    HW140918  10.808   6.356  11.252
13048SOL    HW240919  10.905   6.243  11.228
13049SOL     OW40920   7.181   4.010  12.971
13049SOL    HW140921   7.258   4.063  12.994
13049SOL    HW240922   7.178   4.012  12.876
13050SOL     OW40923   1.927   8.769   8.144
13050SOL    HW140924   1.855   8.754   8.083
13050SOL    HW240925   1.907   8.714   8.220
13051SOL     OW40926   8.757   2.508   9.669
13051SOL    HW140927   8.770   2.599   9.693
13051SOL    HW240928   8.690   2.476   9.730
13052SOL     OW40929   2.840   7.249   8.213
13052SOL    HW140930   2.929   7.214   8.213
13052SOL    HW240931   2.834   7.300   8.293
13053SOL     OW40932  11.508  12.442   4.186
13053SOL    HW140933  11.431  12.446   4.243
13053SOL    HW240934  11.558  12.520   4.207
13054SOL     OW40935   5.043  13.367   3.331
13054SOL    HW140936   5.084  13.443   3.289
13054SOL    HW240937   5.075  13.371   3.422
13055SOL     OW40938   7.474   7.344  11.968
13055SOL    HW140939   7.492   7.268  12.023
13055SOL    HW240940   7.521   7.326  11.886
13056SOL     OW40941  11.284   3.840   7.345
13056SOL    HW140942  11.335   3.799   7.415
13056SOL    HW240943  11.253   3.922   7.382
13057SOL     OW40944   9.662  14.745   7.117
13057SOL    HW140945   9.726  14.711   7.180
13057SOL    HW240946   9.626  14.823   7.159
13058SOL     OW40947   4.686  10.161   0.987
13058SOL    HW140948   4.655  10.195   0.903
13058SOL    HW240949   4.694  10.239   1.042
13059SOL     OW40950   3.332   1.883   1.961
13059SOL    HW140951   3.241   1.854   1.965
13059SOL    HW240952   3.328   1.977   1.975
13060SOL     OW40953   4.411   6.175  13.169
13060SOL    HW140954   4.319   6.167  13.195
13060SOL    HW240955   4.434   6.088  13.136
13061SOL     OW40956   1.270  11.080   2.207
13061SOL    HW140957   1.196  11.027   2.178
13061SOL    HW240958   1.306  11.118   2.126
13062SOL     OW40959  11.079  10.957   6.735
13062SOL    HW140960  11.148  11.018   6.759
13062SOL    HW240961  11.126  10.884   6.694
13063SOL     OW40962   9.214   4.960  11.810
13063SOL    HW140963   9.270   4.888  11.781
13063SOL    HW240964   9.245   5.036  11.761
13064SOL     OW40965   4.007   1.161   9.152
13064SOL    HW140966   3.946   1.101   9.108
13064SOL    HW240967   4.024   1.230   9.088
13065SOL     OW40968   4.940  11.209   7.417
13065SOL    HW140969   4.874  11.161   7.468
13065SOL    HW240970   5.021  11.195   7.465
13066SOL     OW40971   3.247   0.988   4.313
13066SOL    HW140972   3.221   0.908   4.360
13066SOL    HW240973   3.180   1.052   4.337
13067SOL     OW40974   4.595   0.569   0.482
13067SOL    HW140975   4.598   0.658   0.517
13067SOL    HW240976   4.513   0.533   0.515
13068SOL     OW40977  12.686   8.206  14.119
13068SOL    HW140978  12.685   8.116  14.152
13068SOL    HW240979  12.757   8.249  14.168
13069SOL     OW40980  10.169   9.752  12.742
13069SOL    HW140981  10.241   9.690  12.726
13069SOL    HW240982  10.174   9.813  12.668
13070SOL     OW40983   6.888   1.535   6.486
13070SOL    HW140984   6.871   1.625   6.513
13070SOL    HW240985   6.941   1.543   6.406
13071SOL     OW40986   9.141  10.369  14.036
13071SOL    HW140987   9.055  10.383  14.075
13071SOL    HW240988   9.203  10.401  14.102
13072SOL     OW40989   4.703   1.831   8.296
13072SOL    HW140990   4.767   1.767   8.266
13072SOL    HW240991   4.633   1.827   8.231
13073SOL     OW40992   0.370   4.226   3.360
13073SOL    HW140993   0.440   4.168   3.387
13073SOL    HW240994   0.411   4.289   3.301
13074SOL     OW40995   9.376  13.859   2.140
13074SOL    HW140996   9.421  13.776   2.126
13074SOL    HW240997   9.292  13.835   2.179
13075SOL     OW40998   7.605   7.610   9.263
13075SOL    HW140999   7.675   7.550   9.288
13075SOL    HW241000   7.649   7.695   9.253
13076SOL     OW41001   8.268   1.994  14.628
13076SOL    HW141002   8.350   1.944  14.620
13076SOL    HW241003   8.255   2.031  14.541
13077SOL     OW41004   5.357  11.177   1.544
13077SOL    HW141005   5.368  11.164   1.638
13077SOL    HW241006   5.407  11.106   1.504
13078SOL     OW41007   0.375  12.701  13.512
13078SOL    HW141008   0.389  12.611  13.481
13078SOL    HW241009   0.286  12.701  13.546
13079SOL     OW41010   5.952   9.134  12.109
13079SOL    HW141011   5.875   9.085  12.135
13079SOL    HW241012   5.949   9.135  12.013
13080SOL     OW41013  14.664  14.547   9.403
13080SOL    HW141014  14.629  14.598   9.330
13080SOL    HW241015  14.733  14.603   9.440
13081SOL     OW41016   3.274   7.198   4.366
13081SOL    HW141017   3.229   7.118   4.392
13081SOL    HW241018   3.334   7.171   4.297
13082SOL     OW41019  12.188   1.723  13.747
13082SOL    HW141020  12.148   1.804  13.778
13082SOL    HW241021  12.257   1.752  13.687
13083SOL     OW41022  13.425   4.778   2.684
13083SOL    HW141023  13.456   4.773   2.775
13083SOL    HW241024  13.477   4.848   2.645
13084SOL     OW41025   3.772   9.141   9.854
13084SOL    HW141026   3.815   9.066   9.896
13084SOL    HW241027   3.814   9.148   9.769
13085SOL     OW41028  10.684  11.981   2.469
13085SOL    HW141029  10.727  12.006   2.551
13085SOL    HW241030  10.726  12.036   2.402
13086SOL     OW41031   0.758   3.602   5.980
13086SOL    HW141032   0.786   3.512   5.961
13086SOL    HW241033   0.838   3.645   6.011
13087SOL     OW41034   0.644   4.611   9.765
13087SOL    HW141035   0.672   4.701   9.783
13087SOL    HW241036   0.632   4.572   9.851
13088SOL     OW41037   4.517   3.175   3.045
13088SOL    HW141038   4.431   3.188   3.085
13088SOL    HW241039   4.570   3.247   3.080
13089SOL     OW41040   1.391   3.761   6.996
13089SOL    HW141041   1.426   3.699   6.932
13089SOL    HW241042   1.296   3.759   6.983
13090SOL     OW41043  12.148   8.059  13.495
13090SOL    HW141044  12.243   8.065  13.496
13090SOL    HW241045  12.119   8.150  13.481
13091SOL     OW41046   4.346   7.892   5.501
13091SOL    HW141047   4.435   7.904   5.534
13091SOL    HW241048   4.336   7.959   5.434
13092SOL     OW41049   2.839   5.535   3.304
13092SOL    HW141050   2.838   5.615   3.252
13092SOL    HW241051   2.818   5.565   3.393
13093SOL     OW41052   7.144   6.160   6.633
13093SOL    HW141053   7.221   6.216   6.635
13093SOL    HW241054   7.072   6.217   6.660
13094SOL     OW41055   7.295  12.723   0.622
13094SOL    HW141056   7.268  12.639   0.584
13094SOL    HW241057   7.362  12.756   0.562
13095SOL     OW41058  14.136   5.517   8.584
13095SOL    HW141059  14.122   5.440   8.529
13095SOL    HW241060  14.056   5.526   8.635
13096SOL     OW41061   1.445   6.081  11.169
13096SOL    HW141062   1.365   6.112  11.127
13096SOL    HW241063   1.463   5.997  11.126
13097SOL     OW41064   3.078  12.076   3.182
13097SOL    HW141065   3.155  12.115   3.224
13097SOL    HW241066   3.003  12.115   3.227
13098SOL     OW41067  13.875  10.121  10.896
13098SOL    HW141068  13.961  10.091  10.866
13098SOL    HW241069  13.813  10.070  10.844
13099SOL     OW41070   5.698  12.665  10.940
13099SOL    HW141071   5.720  12.667  11.033
13099SOL    HW241072   5.695  12.757  10.914
13100SOL     OW41073  14.869   6.951  14.278
13100SOL    HW141074  14.796   6.889  14.289
13100SOL    HW241075   0.065   6.895  14.270
13101SOL     OW41076  10.491  12.504   4.271
13101SOL    HW141077  10.577  12.463   4.273
13101SOL    HW241078  10.430  12.432   4.257
13102SOL     OW41079   0.267   5.793   9.786
13102SOL    HW141080   0.173   5.809   9.778
13102SOL    HW241081   0.275   5.740   9.865
13103SOL     OW41082  12.545   4.158   6.533
13103SOL    HW141083  12.463   4.111   6.515
13103SOL    HW241084  12.609   4.088   6.550
13104SOL     OW41085   6.719   0.851   8.316
13104SOL    HW141086   6.631   0.884   8.296
13104SOL    HW241087   6.762   0.847   8.231
13105SOL     OW41088   6.580   1.418   6.735
13105SOL    HW141089   6.660   1.460   6.766
13105SOL    HW241090   6.532   1.487   6.690
13106SOL     OW41091   1.514  10.429   9.048
13106SOL    HW141092   1.559  10.361   8.997
13106SOL    HW241093   1.533  10.406   9.139
13107SOL     OW41094   9.618   9.033   8.389
13107SOL    HW141095   9.698   9.028   8.336
13107SOL    HW241096   9.649   9.035   8.479
13108SOL     OW41097  11.162   3.282   9.550
13108SOL    HW141098  11.122   3.333   9.620
13108SOL    HW241099  11.255   3.277   9.574
13109SOL     OW41100   7.216  14.047   3.189
13109SOL    HW141101   7.178  14.072   3.105
13109SOL    HW241102   7.154  14.079   3.254
13110SOL     OW41103  12.589   9.079   6.743
13110SOL    HW141104  12.528   9.120   6.683
13110SOL    HW241105  12.540   9.007   6.783
13111SOL     OW41106   9.354   8.228   6.212
13111SOL    HW141107   9.313   8.222   6.298
13111SOL    HW241108   9.448   8.234   6.231
13112SOL     OW41109  12.080   9.953   0.246
13112SOL    HW141110  12.082   9.907   0.162
13112SOL    HW241111  11.987   9.970   0.262
13113SOL     OW41112  12.691  11.942   2.974
13113SOL    HW141113  12.671  12.030   2.942
13113SOL    HW241114  12.669  11.884   2.901
13114SOL     OW41115  14.085   7.078   6.491
13114SOL    HW141116  14.021   7.143   6.522
13114SOL    HW241117  14.160   7.089   6.550
13115SOL     OW41118   4.018   1.638  13.588
13115SOL    HW141119   3.994   1.723  13.624
13115SOL    HW241120   4.020   1.651  13.494
13116SOL     OW41121   3.808   6.116  11.277
13116SOL    HW141122   3.864   6.193  11.284
13116SOL    HW241123   3.833   6.062  11.353
13117SOL     OW41124   8.577   4.413   6.108
13117SOL    HW141125   8.551   4.472   6.179
13117SOL    HW241126   8.551   4.459   6.028
13118SOL     OW41127   9.161  10.720   8.347
13118SOL    HW141128   9.246  10.718   8.303
13118SOL    HW241129   9.119  10.638   8.322
13119SOL     OW41130   6.472   1.816   7.706
13119SOL    HW141131   6.541   1.750   7.711
13119SOL    HW241132   6.391   1.767   7.717
13120SOL     OW41133  10.271   9.333  11.245
13120SOL    HW141134  10.285   9.317  11.338
13120SOL    HW241135  10.330   9.272  11.201
13121SOL     OW41136   9.459   0.606   0.768
13121SOL    HW141137   9.414   0.611   0.683
13121SOL    HW241138   9.469   0.698   0.795
13122SOL     OW41139  10.120   2.485   9.831
13122SOL    HW141140  10.102   2.432   9.753
13122SOL    HW241141  10.058   2.557   9.826
13123SOL     OW41142   2.792   3.037   2.204
13123SOL    HW141143   2.837   3.098   2.262
13123SOL    HW241144   2.842   2.956   2.212
13124SOL     OW41145  12.156  14.478  14.273
13124SOL    HW141146  12.165  14.404  14.334
13124SOL    HW241147  12.166  14.439  14.187
13125SOL     OW41148   0.395   4.206   5.985
13125SOL    HW141149   0.407   4.145   6.058
13125SOL    HW241150   0.302   4.203   5.966
13126SOL     OW41151   9.621   8.751  10.458
13126SOL    HW141152   9.676   8.701  10.518
13126SOL    HW241153   9.570   8.685  10.411
13127SOL     OW41154   5.212  14.847   6.353
13127SOL    HW141155   5.241  14.827   6.264
13127SOL    HW241156   5.117  14.851   6.347
13128SOL     OW41157   0.420  14.539   8.118
13128SOL    HW141158   0.491  14.493   8.072
13128SOL    HW241159   0.454  14.552   8.207
13129SOL     OW41160   7.680   0.214   4.662
13129SOL    HW141161   7.649   0.247   4.577
13129SOL    HW241162   7.730   0.135   4.640
13130SOL     OW41163   8.115   4.387   8.418
13130SOL    HW141164   8.139   4.400   8.326
13130SOL    HW241165   8.168   4.450   8.466
13131SOL     OW41166   5.463   3.532   0.652
13131SOL    HW141167   5.458   3.585   0.731
13131SOL    HW241168   5.374   3.501   0.638
13132SOL     OW41169  13.558  14.431  12.345
13132SOL    HW141170  13.620  14.402  12.412
13132SOL    HW241171  13.613  14.457  12.271
13133SOL     OW41172   0.751  14.630   8.876
13133SOL    HW141173   0.830  14.668   8.913
13133SOL    HW241174   0.697  14.606   8.952
13134SOL     OW41175   2.047   3.388   5.251
13134SOL    HW141176   2.000   3.329   5.309
13134SOL    HW241177   2.116   3.334   5.212
13135SOL     OW41178  13.129   2.740  10.824
13135SOL    HW141179  13.186   2.768  10.751
13135SOL    HW241180  13.041   2.760  10.793
13136SOL     OW41181   7.657   9.970   3.297
13136SOL    HW141182   7.590   9.954   3.231
13136SOL    HW241183   7.645   9.898   3.360
13137SOL     OW41184   7.716  10.425   2.801
13137SOL    HW141185   7.625  10.416   2.829
13137SOL    HW241186   7.767  10.412   2.881
13138SOL     OW41187   4.628   0.191   2.845
13138SOL    HW141188   4.563   0.243   2.893
13138SOL    HW241189   4.590   0.180   2.758
13139SOL     OW41190   0.117   5.042  12.281
13139SOL    HW141191   0.120   5.061  12.375
13139SOL    HW241192   0.170   4.963  12.272
13140SOL     OW41193   2.932  13.907   8.985
13140SOL    HW141194   2.944  13.863   9.069
13140SOL    HW241195   2.845  13.879   8.956
13141SOL     OW41196  11.519   9.577   3.524
13141SOL    HW141197  11.514   9.594   3.430
13141SOL    HW241198  11.613   9.563   3.541
13142SOL     OW41199   5.975  10.217   5.411
13142SOL    HW141200   5.957  10.311   5.419
13142SOL    HW241201   6.015  10.192   5.494
13143SOL     OW41202   1.352  12.846   8.423
13143SOL    HW141203   1.280  12.853   8.486
13143SOL    HW241204   1.430  12.835   8.476
13144SOL     OW41205   3.751   1.619   9.198
13144SOL    HW141206   3.668   1.575   9.216
13144SOL    HW241207   3.733   1.712   9.212
13145SOL     OW41208  12.348  11.266   0.761
13145SOL    HW141209  12.293  11.207   0.710
13145SOL    HW241210  12.288  11.310   0.820
13146SOL     OW41211   5.433   7.149   2.095
13146SOL    HW141212   5.431   7.180   2.186
13146SOL    HW241213   5.518   7.105   2.087
13147SOL     OW41214  14.684   9.695   6.556
13147SOL    HW141215  14.695   9.761   6.624
13147SOL    HW241216  14.700   9.611   6.600
13148SOL     OW41217  14.670   1.410  14.596
13148SOL    HW141218  14.634   1.434  14.682
13148SOL    HW241219  14.704   1.321  14.609
13149SOL     OW41220   4.776   5.793   8.403
13149SOL    HW141221   4.864   5.827   8.390
13149SOL    HW241222   4.789   5.701   8.428
13150SOL     OW41223  10.323   9.970   9.355
13150SOL    HW141224  10.405   9.993   9.311
13150SOL    HW241225  10.260  10.036   9.324
13151SOL     OW41226   6.676  12.791  13.080
13151SOL    HW141227   6.748  12.843  13.116
13151SOL    HW241228   6.606  12.800  13.145
13152SOL     OW41229  10.441   2.700   9.378
13152SOL    HW141230  10.510   2.652   9.333
13152SOL    HW241231  10.380   2.633   9.409
13153SOL     OW41232  13.131   5.599   6.270
13153SOL    HW141233  13.155   5.552   6.190
13153SOL    HW241234  13.035   5.606   6.266
13154SOL     OW41235   7.347   0.143   1.103
13154SOL    HW141236   7.381   0.115   1.018
13154SOL    HW241237   7.424   0.172   1.152
13155SOL     OW41238   3.516  13.225   9.916
13155SOL    HW141239   3.599  13.203   9.875
13155SOL    HW241240   3.508  13.164   9.989
13156SOL     OW41241   4.729   2.997   5.556
13156SOL    HW141242   4.819   2.971   5.534
13156SOL    HW241243   4.722   3.087   5.523
13157SOL     OW41244   5.656   4.021   8.865
13157SOL    HW141245   5.725   3.971   8.822
13157SOL    HW241246   5.653   4.104   8.817
13158SOL     OW41247  13.866   8.206   0.933
13158SOL    HW141248  13.928   8.243   0.996
13158SOL    HW241249  13.781   8.240   0.960
13159SOL     OW41250   4.983  14.204   9.959
13159SOL    HW141251   5.069  14.246   9.957
13159SOL    HW241252   4.924  14.270   9.921
13160SOL     OW41253  11.638  11.896   6.070
13160SOL    HW141254  11.543  11.908   6.064
13160SOL    HW241255  11.664  11.867   5.983
13161SOL     OW41256  14.418   9.786  11.011
13161SOL    HW141257  14.470   9.712  11.043
13161SOL    HW241258  14.350   9.798  11.077
13162SOL     OW41259  12.438   1.904  11.028
13162SOL    HW141260  12.488   1.912  11.108
13162SOL    HW241261  12.503   1.888  10.959
13163SOL     OW41262   6.843   7.616  13.630
13163SOL    HW141263   6.832   7.669  13.708
13163SOL    HW241264   6.935   7.627  13.606
13164SOL     OW41265   5.541   1.232  11.328
13164SOL    HW141266   5.503   1.148  11.305
13164SOL    HW241267   5.586   1.261  11.249
13165SOL     OW41268   7.569   6.058   3.820
13165SOL    HW141269   7.636   6.126   3.827
13165SOL    HW241270   7.499   6.099   3.768
13166SOL     OW41271   1.810   6.633  12.659
13166SOL    HW141272   1.832   6.712  12.709
13166SOL    HW241273   1.718   6.645  12.636
13167SOL     OW41274   6.900  13.340  10.995
13167SOL    HW141275   6.996  13.329  10.997
13167SOL    HW241276   6.875  13.349  11.087
13168SOL     OW41277   2.341   7.306   8.966
13168SOL    HW141278   2.348   7.353   8.883
13168SOL    HW241279   2.340   7.213   8.941
13169SOL     OW41280   6.616  14.094   1.338
13169SOL    HW141281   6.615  14.189   1.350
13169SOL    HW241282   6.534  14.064   1.376
13170SOL     OW41283   6.221  10.684  10.909
13170SOL    HW141284   6.179  10.635  10.838
13170SOL    HW241285   6.275  10.619  10.954
13171SOL     OW41286   8.958   7.829   5.321
13171SOL    HW141287   9.025   7.896   5.309
13171SOL    HW241288   9.004   7.746   5.307
13172SOL     OW41289  10.468  11.011   0.810
13172SOL    HW141290  10.501  11.069   0.879
13172SOL    HW241291  10.523  10.933   0.815
13173SOL     OW41292   1.948   2.226   7.959
13173SOL    HW141293   1.875   2.287   7.950
13173SOL    HW241294   1.970   2.201   7.869
13174SOL     OW41295   4.319  11.375   4.315
13174SOL    HW141296   4.276  11.460   4.301
13174SOL    HW241297   4.249  11.311   4.303
13175SOL     OW41298  12.516   2.026  11.659
13175SOL    HW141299  12.532   2.093  11.592
13175SOL    HW241300  12.515   1.943  11.610
13176SOL     OW41301   9.780  13.660  11.268
13176SOL    HW141302   9.739  13.696  11.190
13176SOL    HW241303   9.793  13.736  11.325
13177SOL     OW41304   5.043   7.399   3.337
13177SOL    HW141305   5.005   7.322   3.379
13177SOL    HW241306   5.017   7.392   3.245
13178SOL     OW41307   2.621  11.222   4.125
13178SOL    HW141308   2.557  11.216   4.196
13178SOL    HW241309   2.569  11.246   4.048
13179SOL     OW41310   0.648   6.473   5.707
13179SOL    HW141311   0.708   6.524   5.762
13179SOL    HW241312   0.568   6.525   5.702
13180SOL     OW41313  10.023   9.281   5.925
13180SOL    HW141314  10.011   9.338   6.001
13180SOL    HW241315  10.118   9.283   5.909
13181SOL     OW41316   3.839   6.638   2.237
13181SOL    HW141317   3.844   6.713   2.178
13181SOL    HW241318   3.919   6.644   2.290
13182SOL     OW41319  10.237   1.952   1.244
13182SOL    HW141320  10.156   1.993   1.212
13182SOL    HW241321  10.223   1.858   1.231
13183SOL     OW41322  13.986   4.125   0.511
13183SOL    HW141323  14.011   4.046   0.559
13183SOL    HW241324  14.013   4.197   0.567
13184SOL     OW41325   3.600   3.286   0.291
13184SOL    HW141326   3.673   3.255   0.238
13184SOL    HW241327   3.523   3.250   0.248
13185SOL     OW41328   7.552   5.211   6.799
13185SOL    HW141329   7.519   5.299   6.782
13185SOL    HW241330   7.475   5.155   6.797
13186SOL     OW41331   1.398  12.654   9.731
13186SOL    HW141332   1.352  12.631   9.812
13186SOL    HW241333   1.327  12.675   9.669
13187SOL     OW41334   4.790   6.853   2.289
13187SOL    HW141335   4.868   6.862   2.234
13187SOL    HW241336   4.760   6.764   2.274
13188SOL     OW41337  11.043   9.896   6.056
13188SOL    HW141338  10.972   9.849   6.012
13188SOL    HW241339  11.005   9.981   6.079
13189SOL     OW41340   5.523   6.311  10.106
13189SOL    HW141341   5.473   6.392  10.109
13189SOL    HW241342   5.607   6.335  10.067
13190SOL     OW41343  10.010   4.313  14.859
13190SOL    HW141344  10.014   4.384  14.794
13190SOL    HW241345   9.926   4.327   0.022
13191SOL     OW41346   1.661  13.963  14.028
13191SOL    HW141347   1.570  13.985  14.046
13191SOL    HW241348   1.672  13.979  13.935
13192SOL     OW41349   3.148  14.339   2.988
13192SOL    HW141350   3.056  14.322   3.007
13192SOL    HW241351   3.163  14.428   3.022
13193SOL     OW41352  11.494   4.461  14.401
13193SOL    HW141353  11.513   4.495  14.313
13193SOL    HW241354  11.407   4.422  14.394
13194SOL     OW41355   8.249  12.912   8.746
13194SOL    HW141356   8.184  12.940   8.810
13194SOL    HW241357   8.202  12.912   8.662
13195SOL     OW41358   6.164   7.007   0.559
13195SOL    HW141359   6.103   6.962   0.501
13195SOL    HW241360   6.110   7.039   0.631
13196SOL     OW41361  14.247   8.080  12.480
13196SOL    HW141362  14.154   8.071  12.458
13196SOL    HW241363  14.275   7.991  12.499
13197SOL     OW41364   2.686   4.661   2.046
13197SOL    HW141365   2.720   4.741   2.085
13197SOL    HW241366   2.743   4.592   2.080
13198SOL     OW41367   4.675   9.420  13.864
13198SOL    HW141368   4.669   9.442  13.771
13198SOL    HW241369   4.694   9.326  13.865
13199SOL     OW41370   9.547  11.321   3.917
13199SOL    HW141371   9.574  11.231   3.932
13199SOL    HW241372   9.626  11.366   3.889
13200SOL     OW41373  10.504   1.741   8.481
13200SOL    HW141374  10.582   1.688   8.462
13200SOL    HW241375  10.445   1.680   8.526
13201SOL     OW41376   5.259  11.212  14.358
13201SOL    HW141377   5.343  11.234  14.397
13201SOL    HW241378   5.219  11.296  14.338
13202SOL     OW41379   7.586   5.135  14.525
13202SOL    HW141380   7.654   5.068  14.524
13202SOL    HW241381   7.504   5.087  14.514
13203SOL     OW41382   8.427   2.994   8.061
13203SOL    HW141383   8.481   3.047   8.119
13203SOL    HW241384   8.409   3.051   7.986
13204SOL     OW41385   9.486   4.754   2.167
13204SOL    HW141386   9.442   4.838   2.181
13204SOL    HW241387   9.528   4.763   2.081
13205SOL     OW41388   7.043   4.525   1.558
13205SOL    HW141389   7.009   4.466   1.625
13205SOL    HW241390   7.116   4.478   1.518
13206SOL     OW41391   1.796   2.931  14.690
13206SOL    HW141392   1.854   2.881  14.748
13206SOL    HW241393   1.844   3.012  14.673
13207SOL     OW41394   3.552   0.364   1.408
13207SOL    HW141395   3.534   0.457   1.394
13207SOL    HW241396   3.647   0.359   1.419
13208SOL     OW41397   4.539   0.067   6.408
13208SOL    HW141398   4.609   0.020   6.363
13208SOL    HW241399   4.585   0.130   6.464
13209SOL     OW41400   8.026   7.915   9.279
13209SOL    HW141401   7.970   7.877   9.346
13209SOL    HW241402   8.061   7.839   9.232
13210SOL     OW41403   7.009  12.551  13.734
13210SOL    HW141404   6.987  12.463  13.764
13210SOL    HW241405   7.020  12.602  13.814
13211SOL     OW41406  14.367   1.626  14.550
13211SOL    HW141407  14.333   1.568  14.482
13211SOL    HW241408  14.374   1.711  14.508
13212SOL     OW41409   1.326  11.497   5.838
13212SOL    HW141410   1.342  11.591   5.829
13212SOL    HW241411   1.404  11.462   5.881
13213SOL     OW41412  11.081   2.907   2.556
13213SOL    HW141413  11.023   2.842   2.597
13213SOL    HW241414  11.069   2.894   2.462
13214SOL     OW41415   6.975  14.705   4.448
13214SOL    HW141416   6.934  14.714   4.534
13214SOL    HW241417   7.042  14.638   4.459
13215SOL     OW41418  13.859   8.682   7.095
13215SOL    HW141419  13.792   8.704   7.031
13215SOL    HW241420  13.821   8.610   7.146
13216SOL     OW41421  13.960  11.963  11.618
13216SOL    HW141422  13.935  11.880  11.659
13216SOL    HW241423  14.040  11.989  11.663
13217SOL     OW41424   4.380   2.256   2.729
13217SOL    HW141425   4.462   2.281   2.772
13217SOL    HW241426   4.364   2.325   2.665
13218SOL     OW41427  14.090  11.796   0.357
13218SOL    HW141428  14.041  11.813   0.437
13218SOL    HW241429  14.182  11.796   0.384
13219SOL     OW41430  14.081   1.329  12.330
13219SOL    HW141431  14.133   1.273  12.272
13219SOL    HW241432  14.047   1.269  12.396
13220SOL     OW41433   5.677   2.132   1.911
13220SOL    HW141434   5.697   2.091   1.827
13220SOL    HW241435   5.604   2.080   1.946
13221SOL     OW41436   3.856   4.916  11.478
13221SOL    HW141437   3.772   4.954  11.503
13221SOL    HW241438   3.910   4.991  11.454
13222SOL     OW41439   2.514   8.353   1.689
13222SOL    HW141440   2.430   8.397   1.671
13222SOL    HW241441   2.577   8.425   1.696
13223SOL     OW41442   1.040  10.039  13.406
13223SOL    HW141443   1.000   9.960  13.441
13223SOL    HW241444   1.072  10.014  13.319
13224SOL     OW41445  14.859  12.049   7.538
13224SOL    HW141446  14.767  12.027   7.522
13224SOL    HW241447   0.026  11.992   7.478
13225SOL     OW41448   4.049   0.340   3.035
13225SOL    HW141449   4.010   0.267   2.987
13225SOL    HW241450   4.051   0.311   3.126
13226SOL     OW41451   6.306   9.689  10.685
13226SOL    HW141452   6.332   9.613  10.737
13226SOL    HW241453   6.387   9.736  10.669
13227SOL     OW41454   4.407   9.298   9.243
13227SOL    HW141455   4.500   9.316   9.257
13227SOL    HW241456   4.385   9.349   9.165
13228SOL     OW41457  10.829  13.999  14.643
13228SOL    HW141458  10.765  13.939  14.605
13228SOL    HW241459  10.865  13.952  14.718
13229SOL     OW41460   0.277  11.769   6.461
13229SOL    HW141461   0.360  11.818   6.464
13229SOL    HW241462   0.273  11.734   6.372
13230SOL     OW41463   9.606   7.087   3.115
13230SOL    HW141464   9.643   7.112   3.200
13230SOL    HW241465   9.613   7.166   3.061
13231SOL     OW41466   9.892  12.655  14.359
13231SOL    HW141467   9.811  12.695  14.325
13231SOL    HW241468   9.962  12.712  14.327
13232SOL     OW41469   8.597   0.851  12.436
13232SOL    HW141470   8.511   0.824  12.403
13232SOL    HW241471   8.580   0.931  12.485
13233SOL     OW41472   3.631   7.402   7.140
13233SOL    HW141473   3.602   7.398   7.231
13233SOL    HW241474   3.667   7.315   7.122
13234SOL     OW41475   7.598   3.273  14.372
13234SOL    HW141476   7.557   3.343  14.423
13234SOL    HW241477   7.610   3.202  14.434
13235SOL     OW41478  12.491   3.533   3.512
13235SOL    HW141479  12.573   3.542   3.462
13235SOL    HW241480  12.520   3.522   3.602
13236SOL     OW41481   9.946  11.501   2.534
13236SOL    HW141482   9.856  11.524   2.554
13236SOL    HW241483   9.976  11.571   2.475
13237SOL     OW41484   5.027   0.347   7.471
13237SOL    HW141485   5.121   0.360   7.460
13237SOL    HW241486   5.010   0.373   7.561
13238SOL     OW41487  10.208   1.472   4.345
13238SOL    HW141488  10.237   1.563   4.355
13238SOL    HW241489  10.268   1.435   4.279
13239SOL     OW41490  10.478   0.106  13.321
13239SOL    HW141491  10.489   0.018  13.357
13239SOL    HW241492  10.491   0.165  13.396
13240SOL     OW41493   4.555   7.384  11.181
13240SOL    HW141494   4.581   7.300  11.143
13240SOL    HW241495   4.463   7.371  11.205
13241SOL     OW41496  13.129  12.765  13.660
13241SOL    HW141497  13.088  12.736  13.578
13241SOL    HW241498  13.060  12.757  13.725
13242SOL     OW41499  14.412   0.208   2.107
13242SOL    HW141500  14.321   0.220   2.080
13242SOL    HW241501  14.455   0.172   2.030
13243SOL     OW41502   8.195   1.771  13.773
13243SOL    HW141503   8.224   1.679  13.770
13243SOL    HW241504   8.248   1.810  13.843
13244SOL     OW41505  11.377   1.740  12.325
13244SOL    HW141506  11.372   1.815  12.384
13244SOL    HW241507  11.313   1.678  12.359
13245SOL     OW41508  10.725   0.222   8.788
13245SOL    HW141509  10.691   0.311   8.795
13245SOL    HW241510  10.656   0.166   8.823
13246SOL     OW41511   6.528   8.136   9.458
13246SOL    HW141512   6.482   8.174   9.533
13246SOL    HW241513   6.473   8.157   9.383
13247SOL     OW41514  12.650   5.808   4.730
13247SOL    HW141515  12.618   5.736   4.784
13247SOL    HW241516  12.737   5.828   4.765
13248SOL     OW41517  12.531   8.110  10.144
13248SOL    HW141518  12.472   8.050  10.189
13248SOL    HW241519  12.566   8.166  10.213
13249SOL     OW41520   8.115   5.370   7.222
13249SOL    HW141521   8.100   5.391   7.314
13249SOL    HW241522   8.201   5.328   7.221
13250SOL     OW41523   3.877   1.584   1.721
13250SOL    HW141524   3.920   1.500   1.701
13250SOL    HW241525   3.922   1.647   1.665
13251SOL     OW41526   4.586   7.251  12.658
13251SOL    HW141527   4.580   7.344  12.637
13251SOL    HW241528   4.506   7.213  12.623
13252SOL     OW41529   7.208  14.248   1.939
13252SOL    HW141530   7.289  14.217   1.980
13252SOL    HW241531   7.145  14.178   1.954
13253SOL     OW41532   3.196  13.218   6.969
13253SOL    HW141533   3.284  13.229   6.931
13253SOL    HW241534   3.140  13.273   6.915
13254SOL     OW41535   8.988   3.712   0.131
13254SOL    HW141536   9.029   3.627   0.113
13254SOL    HW241537   8.971   3.748   0.044
13255SOL     OW41538   7.196   0.419  12.545
13255SOL    HW141539   7.111   0.422  12.502
13255SOL    HW241540   7.203   0.330  12.580
13256SOL     OW41541   3.874   1.576   2.194
13256SOL    HW141542   3.925   1.515   2.140
13256SOL    HW241543   3.888   1.545   2.284
13257SOL     OW41544  11.958   7.800  11.609
13257SOL    HW141545  11.944   7.845  11.526
13257SOL    HW241546  11.941   7.866  11.676
13258SOL     OW41547   4.225  11.223   6.075
13258SOL    HW141548   4.227  11.128   6.067
13258SOL    HW241549   4.220  11.240   6.169
13259SOL     OW41550  12.750   2.506   8.049
13259SOL    HW141551  12.781   2.458   8.126
13259SOL    HW241552  12.714   2.439   7.991
13260SOL     OW41553   1.273   6.353  12.183
13260SOL    HW141554   1.228   6.422  12.134
13260SOL    HW241555   1.301   6.291  12.116
13261SOL     OW41556   5.598  13.377   1.816
13261SOL    HW141557   5.569  13.466   1.794
13261SOL    HW241558   5.524  13.322   1.789
13262SOL     OW41559   0.463  10.441   3.185
13262SOL    HW141560   0.429  10.384   3.254
13262SOL    HW241561   0.415  10.523   3.196
13263SOL     OW41562   3.755  13.614  11.092
13263SOL    HW141563   3.783  13.570  11.012
13263SOL    HW241564   3.678  13.664  11.067
13264SOL     OW41565   2.917   6.489  12.439
13264SOL    HW141566   2.878   6.542  12.369
13264SOL    HW241567   2.951   6.411  12.394
13265SOL     OW41568   1.150   0.933   6.187
13265SOL    HW141569   1.203   0.936   6.266
13265SOL    HW241570   1.141   0.840   6.166
13266SOL     OW41571   5.365   8.085   1.695
13266SOL    HW141572   5.321   8.169   1.701
13266SOL    HW241573   5.300   8.021   1.725
13267SOL     OW41574  10.648   4.586  14.705
13267SOL    HW141575  10.608   4.538  14.778
13267SOL    HW241576  10.726   4.626  14.742
13268SOL     OW41577   4.176   8.412   3.338
13268SOL    HW141578   4.228   8.416   3.258
13268SOL    HW241579   4.183   8.321   3.367
13269SOL     OW41580  12.348  12.798  13.365
13269SOL    HW141581  12.357  12.890  13.391
13269SOL    HW241582  12.273  12.797  13.306
13270SOL     OW41583   5.553   4.402  13.417
13270SOL    HW141584   5.518   4.320  13.451
13270SOL    HW241585   5.481   4.442  13.369
13271SOL     OW41586  10.772   3.501   6.956
13271SOL    HW141587  10.791   3.589   6.924
13271SOL    HW241588  10.809   3.443   6.890
13272SOL     OW41589   9.547  10.244   0.186
13272SOL    HW141590   9.590  10.174   0.235
13272SOL    HW241591   9.608  10.266   0.115
13273SOL     OW41592   6.690   8.258   6.167
13273SOL    HW141593   6.705   8.289   6.078
13273SOL    HW241594   6.778   8.242   6.201
13274SOL     OW41595  13.316  10.025  10.924
13274SOL    HW141596  13.398   9.988  10.958
13274SOL    HW241597  13.317  10.116  10.954
13275SOL     OW41598   4.781   3.176   4.559
13275SOL    HW141599   4.703   3.175   4.614
13275SOL    HW241600   4.829   3.097   4.584
13276SOL     OW41601   4.477   8.703   1.113
13276SOL    HW141602   4.404   8.671   1.059
13276SOL    HW241603   4.501   8.629   1.167
13277SOL     OW41604   7.654  14.333   4.020
13277SOL    HW141605   7.699  14.346   3.936
13277SOL    HW241606   7.694  14.397   4.079
13278SOL     OW41607   9.887   6.159   4.662
13278SOL    HW141608   9.892   6.254   4.653
13278SOL    HW241609   9.794   6.140   4.655
13279SOL     OW41610  10.721   7.540   7.370
13279SOL    HW141611  10.724   7.453   7.412
13279SOL    HW241612  10.813   7.565   7.361
13280SOL     OW41613   4.339  11.563   1.428
13280SOL    HW141614   4.260  11.510   1.421
13280SOL    HW241615   4.393  11.536   1.354
13281SOL     OW41616  11.462   4.629   6.316
13281SOL    HW141617  11.436   4.576   6.391
13281SOL    HW241618  11.544   4.590   6.287
13282SOL     OW41619   5.248   4.200   1.512
13282SOL    HW141620   5.270   4.266   1.447
13282SOL    HW241621   5.180   4.148   1.471
13283SOL     OW41622   7.732   7.340   4.694
13283SOL    HW141623   7.792   7.282   4.741
13283SOL    HW241624   7.679   7.381   4.763
13284SOL     OW41625   2.861   5.472   0.474
13284SOL    HW141626   2.928   5.506   0.415
13284SOL    HW241627   2.815   5.550   0.506
13285SOL     OW41628   3.016   2.927   9.503
13285SOL    HW141629   2.956   2.880   9.562
13285SOL    HW241630   3.002   2.886   9.418
13286SOL     OW41631   5.934  10.518  14.361
13286SOL    HW141632   5.996  10.513  14.289
13286SOL    HW241633   5.916  10.611  14.372
13287SOL     OW41634  13.643   7.627   9.065
13287SOL    HW141635  13.616   7.578   8.988
13287SOL    HW241636  13.564   7.670   9.096
13288SOL     OW41637   1.093   8.131  10.370
13288SOL    HW141638   1.006   8.139  10.333
13288SOL    HW241639   1.150   8.114  10.295
13289SOL     OW41640  10.779   7.050   4.503
13289SOL    HW141641  10.750   6.989   4.436
13289SOL    HW241642  10.875   7.045   4.500
13290SOL     OW41643   5.353  13.925   8.013
13290SOL    HW141644   5.368  13.948   7.921
13290SOL    HW241645   5.280  13.863   8.011
13291SOL     OW41646   6.066   4.155   2.603
13291SOL    HW141647   5.974   4.153   2.627
13291SOL    HW241648   6.112   4.129   2.682
13292SOL     OW41649   9.014   3.901  12.248
13292SOL    HW141650   9.101   3.883  12.285
13292SOL    HW241651   9.010   3.996  12.241
13293SOL     OW41652  14.102  10.772   7.911
13293SOL    HW141653  14.084  10.687   7.872
13293SOL    HW241654  14.170  10.810   7.856
13294SOL     OW41655  13.199  13.819  11.565
13294SOL    HW141656  13.289  13.813  11.597
13294SOL    HW241657  13.152  13.749  11.611
13295SOL     OW41658   5.064  12.322  14.680
13295SOL    HW141659   5.130  12.375  14.724
13295SOL    HW241660   4.984  12.336  14.731
13296SOL     OW41661   3.538  14.174  10.224
13296SOL    HW141662   3.604  14.111  10.253
13296SOL    HW241663   3.567  14.200  10.137
13297SOL     OW41664   6.275  11.664  12.727
13297SOL    HW141665   6.250  11.684  12.637
13297SOL    HW241666   6.272  11.569  12.733
13298SOL     OW41667   9.312   3.538  10.236
13298SOL    HW141668   9.230   3.548  10.188
13298SOL    HW241669   9.337   3.446  10.223
13299SOL     OW41670  13.676   1.725   4.523
13299SOL    HW141671  13.681   1.654   4.586
13299SOL    HW241672  13.629   1.688   4.448
13300SOL     OW41673   5.656  14.852   4.227
13300SOL    HW141674   5.589  14.784   4.218
13300SOL    HW241675   5.645   0.025   4.149
13301SOL     OW41676   0.205   1.735  10.143
13301SOL    HW141677   0.248   1.789  10.209
13301SOL    HW241678   0.147   1.795  10.097
13302SOL     OW41679   7.697  11.251   0.084
13302SOL    HW141680   7.651  11.167   0.084
13302SOL    HW241681   7.644  11.307   0.028
13303SOL     OW41682   8.354  11.305  12.053
13303SOL    HW141683   8.384  11.224  12.012
13303SOL    HW241684   8.369  11.291  12.147
13304SOL     OW41685  11.245  13.903  11.740
13304SOL    HW141686  11.302  13.834  11.706
13304SOL    HW241687  11.181  13.856  11.794
13305SOL     OW41688  11.576   6.016   9.412
13305SOL    HW141689  11.536   6.042   9.329
13305SOL    HW241690  11.550   5.925   9.424
13306SOL     OW41691  14.370   8.765  10.757
13306SOL    HW141692  14.413   8.826  10.696
13306SOL    HW241693  14.333   8.821  10.824
13307SOL     OW41694  12.953   4.295  12.076
13307SOL    HW141695  13.037   4.252  12.093
13307SOL    HW241696  12.976   4.385  12.052
13308SOL     OW41697  14.713   1.852   0.348
13308SOL    HW141698  14.687   1.785   0.284
13308SOL    HW241699  14.678   1.934   0.312
13309SOL     OW41700   0.085   1.579   4.692
13309SOL    HW141701   0.030   1.547   4.621
13309SOL    HW241702   0.170   1.596   4.651
13310SOL     OW41703  12.739   8.434  12.140
13310SOL    HW141704  12.781   8.509  12.097
13310SOL    HW241705  12.812   8.380  12.170
13311SOL     OW41706  13.968   3.095   3.635
13311SOL    HW141707  13.876   3.120   3.630
13311SOL    HW241708  13.999   3.098   3.545
13312SOL     OW41709   7.556   5.595   5.528
13312SOL    HW141710   7.627   5.655   5.551
13312SOL    HW241711   7.596   5.508   5.533
13313SOL     OW41712  11.642   4.458   7.373
13313SOL    HW141713  11.651   4.551   7.356
13313SOL    HW241714  11.709   4.439   7.440
13314SOL     OW41715   3.688   9.177  10.340
13314SOL    HW141716   3.770   9.224  10.322
13314SOL    HW241717   3.674   9.188  10.434
13315SOL     OW41718   6.895   2.659   2.908
13315SOL    HW141719   6.835   2.586   2.898
13315SOL    HW241720   6.921   2.656   3.000
13316SOL     OW41721  13.912   0.635   8.561
13316SOL    HW141722  13.935   0.544   8.545
13316SOL    HW241723  13.838   0.631   8.621
13317SOL     OW41724   2.730   2.594   6.394
13317SOL    HW141725   2.705   2.673   6.345
13317SOL    HW241726   2.823   2.582   6.375
13318SOL     OW41727   5.727   4.484  12.585
13318SOL    HW141728   5.796   4.418  12.582
13318SOL    HW241729   5.698   4.494  12.495
13319SOL     OW41730   0.962   2.623   8.884
13319SOL    HW141731   1.048   2.631   8.923
13319SOL    HW241732   0.966   2.677   8.805
13320SOL     OW41733   3.512  11.549   7.201
13320SOL    HW141734   3.490  11.498   7.123
13320SOL    HW241735   3.495  11.489   7.274
13321SOL     OW41736   7.662  14.849   8.357
13321SOL    HW141737   7.728  14.789   8.322
13321SOL    HW241738   7.672  14.841   8.452
13322SOL     OW41739   2.616   9.533   7.552
13322SOL    HW141740   2.696   9.525   7.500
13322SOL    HW241741   2.593   9.443   7.575
13323SOL     OW41742   4.177  14.568   9.598
13323SOL    HW141743   4.089  14.551   9.632
13323SOL    HW241744   4.164  14.627   9.524
13324SOL     OW41745   6.046   0.748   7.011
13324SOL    HW141746   6.077   0.834   7.038
13324SOL    HW241747   6.013   0.707   7.091
13325SOL     OW41748   5.101  14.089   2.681
13325SOL    HW141749   5.108  13.994   2.687
13325SOL    HW241750   5.056  14.105   2.597
13326SOL     OW41751  11.601  11.523   2.758
13326SOL    HW141752  11.603  11.482   2.845
13326SOL    HW241753  11.666  11.474   2.708
13327SOL     OW41754   7.691  14.264   7.491
13327SOL    HW141755   7.646  14.322   7.552
13327SOL    HW241756   7.622  14.232   7.433
13328SOL     OW41757  13.785  10.265  10.014
13328SOL    HW141758  13.695  10.297  10.005
13328SOL    HW241759  13.800  10.262  10.108
13329SOL     OW41760  13.622   2.207   5.444
13329SOL    HW141761  13.701   2.165   5.409
13329SOL    HW241762  13.586   2.256   5.370
13330SOL     OW41763  10.699   5.402   8.520
13330SOL    HW141764  10.714   5.311   8.495
13330SOL    HW241765  10.614   5.424   8.481
13331SOL     OW41766  10.921   9.058   1.479
13331SOL    HW141767  10.862   9.053   1.554
13331SOL    HW241768  10.992   8.998   1.501
13332SOL     OW41769   3.057   1.721  12.445
13332SOL    HW141770   3.002   1.740  12.369
13332SOL    HW241771   3.147   1.724  12.412
13333SOL     OW41772  11.714   5.768   2.374
13333SOL    HW141773  11.700   5.674   2.381
13333SOL    HW241774  11.688   5.803   2.459
13334SOL     OW41775   1.533   2.508   9.743
13334SOL    HW141776   1.474   2.470   9.808
13334SOL    HW241777   1.483   2.506   9.662
13335SOL     OW41778   1.467   6.454  11.521
13335SOL    HW141779   1.379   6.491  11.514
13335SOL    HW241780   1.497   6.481  11.608
13336SOL     OW41781   4.275  14.040  11.956
13336SOL    HW141782   4.357  14.007  11.993
13336SOL    HW241783   4.221  13.962  11.942
13337SOL     OW41784   1.198   4.789   4.423
13337SOL    HW141785   1.169   4.783   4.514
13337SOL    HW241786   1.218   4.882   4.411
13338SOL     OW41787  10.868   1.285   4.025
13338SOL    HW141788  10.783   1.247   4.003
13338SOL    HW241789  10.852   1.334   4.106
13339SOL     OW41790   0.382   7.627   3.168
13339SOL    HW141791   0.346   7.708   3.131
13339SOL    HW241792   0.315   7.598   3.230
13340SOL     OW41793  10.738  12.959  12.788
13340SOL    HW141794  10.792  13.038  12.784
13340SOL    HW241795  10.701  12.960  12.876
13341SOL     OW41796   7.859   1.764  12.060
13341SOL    HW141797   7.940   1.713  12.056
13341SOL    HW241798   7.791   1.699  12.077
13342SOL     OW41799   7.486   9.318  12.534
13342SOL    HW141800   7.512   9.365  12.454
13342SOL    HW241801   7.511   9.227  12.518
13343SOL     OW41802  13.167   9.901   6.639
13343SOL    HW141803  13.137   9.839   6.705
13343SOL    HW241804  13.181   9.983   6.687
13344SOL     OW41805   5.181   6.993   3.486
13344SOL    HW141806   5.161   6.910   3.443
13344SOL    HW241807   5.204   7.052   3.415
13345SOL     OW41808   9.019  11.160   3.647
13345SOL    HW141809   9.097  11.156   3.702
13345SOL    HW241810   8.996  11.068   3.630
13346SOL     OW41811   8.558   2.505   7.263
13346SOL    HW141812   8.488   2.537   7.206
13346SOL    HW241813   8.629   2.568   7.250
13347SOL     OW41814   0.323   1.871   9.293
13347SOL    HW141815   0.404   1.916   9.267
13347SOL    HW241816   0.354   1.788   9.330
13348SOL     OW41817   7.518   9.742  12.429
13348SOL    HW141818   7.430   9.710  12.410
13348SOL    HW241819   7.564   9.737  12.346
13349SOL     OW41820   5.870   9.450  11.398
13349SOL    HW141821   5.812   9.397  11.343
13349SOL    HW241822   5.831   9.537  11.397
13350SOL     OW41823   0.247   1.664  13.146
13350SOL    HW141824   0.334   1.701  13.127
13350SOL    HW241825   0.191   1.740  13.159
13351SOL     OW41826   6.245  12.571   3.709
13351SOL    HW141827   6.176  12.521   3.753
13351SOL    HW241828   6.265  12.642   3.770
13352SOL     OW41829   0.194   5.821   8.270
13352SOL    HW141830   0.239   5.736   8.273
13352SOL    HW241831   0.190   5.848   8.362
13353SOL     OW41832   2.432  12.009   8.951
13353SOL    HW141833   2.525  11.985   8.954
13353SOL    HW241834   2.432  12.101   8.923
13354SOL     OW41835   8.946   4.839  12.232
13354SOL    HW141836   8.989   4.911  12.187
13354SOL    HW241837   9.009   4.767  12.229
13355SOL     OW41838  10.552   0.913  10.585
13355SOL    HW141839  10.561   0.863  10.666
13355SOL    HW241840  10.507   0.993  10.611
13356SOL     OW41841  10.945   9.498  12.021
13356SOL    HW141842  10.963   9.414  11.977
13356SOL    HW241843  10.878   9.539  11.966
13357SOL     OW41844   6.837   5.556   3.362
13357SOL    HW141845   6.777   5.482   3.368
13357SOL    HW241846   6.879   5.560   3.448
13358SOL     OW41847  14.724   5.534   5.515
13358SOL    HW141848  14.693   5.480   5.588
13358SOL    HW241849  14.761   5.471   5.453
13359SOL     OW41850   5.894   6.575   1.070
13359SOL    HW141851   5.952   6.507   1.037
13359SOL    HW241852   5.927   6.656   1.032
13360SOL     OW41853   9.178  10.054   7.646
13360SOL    HW141854   9.149  10.115   7.713
13360SOL    HW241855   9.250  10.005   7.687
13361SOL     OW41856   1.156  14.504   8.429
13361SOL    HW141857   1.157  14.516   8.334
13361SOL    HW241858   1.101  14.574   8.462
13362SOL     OW41859  12.528   9.814  10.221
13362SOL    HW141860  12.593   9.760  10.266
13362SOL    HW241861  12.471   9.847  10.291
13363SOL     OW41862   8.462  14.550  10.547
13363SOL    HW141863   8.542  14.602  10.556
13363SOL    HW241864   8.484  14.466  10.587
13364SOL     OW41865   7.274   5.104  10.927
13364SOL    HW141866   7.361   5.065  10.918
13364SOL    HW241867   7.290   5.198  10.927
13365SOL     OW41868   8.525   7.654  14.816
13365SOL    HW141869   8.554   7.600  14.743
13365SOL    HW241870   8.606   7.692  14.851
13366SOL     OW41871  10.869   3.207  14.828
13366SOL    HW141872  10.960   3.184  14.810
13366SOL    HW241873  10.855   3.289  14.781
13367SOL     OW41874  10.988   7.371   2.127
13367SOL    HW141875  10.959   7.452   2.168
13367SOL    HW241876  10.907   7.326   2.102
13368SOL     OW41877   4.814  14.774   1.641
13368SOL    HW141878   4.799  14.780   1.547
13368SOL    HW241879   4.729  14.746   1.677
13369SOL     OW41880   4.463   9.715   7.239
13369SOL    HW141881   4.515   9.636   7.227
13369SOL    HW241882   4.477   9.739   7.331
13370SOL     OW41883  10.568   3.697  13.909
13370SOL    HW141884  10.614   3.623  13.950
13370SOL    HW241885  10.572   3.679  13.816
13371SOL     OW41886   6.918   1.910   2.846
13371SOL    HW141887   7.007   1.926   2.817
13371SOL    HW241888   6.900   1.819   2.821
13372SOL     OW41889  11.188  13.298   4.143
13372SOL    HW141890  11.193  13.337   4.056
13372SOL    HW241891  11.147  13.365   4.197
13373SOL     OW41892   0.027   9.938   8.678
13373SOL    HW141893   0.040   9.924   8.772
13373SOL    HW241894   0.051  10.030   8.665
13374SOL     OW41895  13.729  10.307   4.572
13374SOL    HW141896  13.668  10.257   4.517
13374SOL    HW241897  13.680  10.326   4.652
13375SOL     OW41898   3.640  10.037   3.785
13375SOL    HW141899   3.549  10.067   3.776
13375SOL    HW241900   3.670  10.076   3.867
13376SOL     OW41901   6.471  13.345  14.016
13376SOL    HW141902   6.392  13.397  14.030
13376SOL    HW241903   6.480  13.339  13.921
13377SOL     OW41904   2.815  10.149   7.130
13377SOL    HW141905   2.836  10.201   7.207
13377SOL    HW241906   2.723  10.124   7.142
13378SOL     OW41907   8.241   4.292  10.588
13378SOL    HW141908   8.314   4.348  10.616
13378SOL    HW241909   8.194   4.344  10.524
13379SOL     OW41910  11.460   6.010   7.571
13379SOL    HW141911  11.498   6.083   7.522
13379SOL    HW241912  11.400   5.968   7.509
13380SOL     OW41913   9.748  11.182   2.824
13380SOL    HW141914   9.732  11.157   2.733
13380SOL    HW241915   9.674  11.238   2.847
13381SOL     OW41916   2.092   9.111   6.560
13381SOL    HW141917   2.160   9.171   6.589
13381SOL    HW241918   2.028   9.167   6.515
13382SOL     OW41919  11.995   2.840   9.919
13382SOL    HW141920  12.040   2.925   9.911
13382SOL    HW241921  12.001   2.801   9.832
13383SOL     OW41922  12.788  14.211   1.448
13383SOL    HW141923  12.844  14.250   1.515
13383SOL    HW241924  12.757  14.285   1.397
13384SOL     OW41925  14.070  13.883  11.900
13384SOL    HW141926  14.003  13.856  11.962
13384SOL    HW241927  14.021  13.920  11.826
13385SOL     OW41928   8.191  12.336  11.744
13385SOL    HW141929   8.221  12.388  11.819
13385SOL    HW241930   8.111  12.294  11.775
13386SOL     OW41931   7.256   5.401  10.916
13386SOL    HW141932   7.232   5.493  10.931
13386SOL    HW241933   7.233   5.385  10.825
13387SOL     OW41934   4.218   2.759  12.653
13387SOL    HW141935   4.131   2.791  12.628
13387SOL    HW241936   4.201   2.678  12.701
13388SOL     OW41937  11.067  12.179  11.142
13388SOL    HW141938  11.013  12.100  11.135
13388SOL    HW241939  11.062  12.218  11.055
13389SOL     OW41940  12.180  10.392   8.695
13389SOL    HW141941  12.113  10.333   8.731
13389SOL    HW241942  12.131  10.470   8.668
13390SOL     OW41943   8.504   9.749  10.894
13390SOL    HW141944   8.471   9.710  10.975
13390SOL    HW241945   8.569   9.813  10.923
13391SOL     OW41946  11.040  10.315   7.484
13391SOL    HW141947  11.017  10.222   7.484
13391SOL    HW241948  11.085  10.329   7.568
13392SOL     OW41949   7.451  10.904   0.338
13392SOL    HW141950   7.442  10.815   0.306
13392SOL    HW241951   7.361  10.931   0.360
13393SOL     OW41952   4.077  11.645   9.799
13393SOL    HW141953   4.157  11.632   9.748
13393SOL    HW241954   4.090  11.589   9.876
13394SOL     OW41955   5.920   2.792  14.244
13394SOL    HW141956   5.884   2.717  14.292
13394SOL    HW241957   5.886   2.869  14.291
13395SOL     OW41958  12.343   7.718  11.654
13395SOL    HW141959  12.426   7.767  11.656
13395SOL    HW241960  12.328   7.700  11.561
13396SOL     OW41961  14.375   1.487   6.197
13396SOL    HW141962  14.306   1.455   6.140
13396SOL    HW241963  14.456   1.476   6.146
13397SOL     OW41964   1.429  11.798   5.296
13397SOL    HW141965   1.460  11.888   5.303
13397SOL    HW241966   1.464  11.767   5.213
13398SOL     OW41967  10.831  14.026   8.427
13398SOL    HW141968  10.902  13.983   8.380
13398SOL    HW241969  10.862  14.116   8.439
13399SOL     OW41970   6.017   8.907   1.466
13399SOL    HW141971   6.037   8.954   1.385
13399SOL    HW241972   5.939   8.855   1.445
13400SOL     OW41973  10.158  11.681   5.115
13400SOL    HW141974  10.215  11.758   5.106
13400SOL    HW241975  10.209  11.609   5.080
13401SOL     OW41976  14.309   1.414  11.348
13401SOL    HW141977  14.219   1.412  11.380
13401SOL    HW241978  14.305   1.371  11.263
13402SOL     OW41979   0.579   5.500   7.482
13402SOL    HW141980   0.618   5.575   7.525
13402SOL    HW241981   0.649   5.465   7.426
13403SOL     OW41982   2.019  10.188   5.052
13403SOL    HW141983   2.017  10.178   4.957
13403SOL    HW241984   1.933  10.158   5.082
13404SOL     OW41985  14.043   0.201   9.105
13404SOL    HW141986  13.986   0.208   9.029
13404SOL    HW241987  13.994   0.146   9.166
13405SOL     OW41988   8.974   6.704   5.176
13405SOL    HW141989   9.018   6.638   5.123
13405SOL    HW241990   8.947   6.657   5.255
13406SOL     OW41991   0.366  10.139   2.530
13406SOL    HW141992   0.281  10.095   2.540
13406SOL    HW241993   0.400  10.144   2.620
13407SOL     OW41994  14.367   8.126  13.398
13407SOL    HW141995  14.398   8.055  13.453
13407SOL    HW241996  14.277   8.102  13.376
13408SOL     OW41997   4.559   0.820   7.126
13408SOL    HW141998   4.640   0.796   7.171
13408SOL    HW241999   4.498   0.749   7.146
13409SOL     OW42000  13.508  10.846   1.552
13409SOL    HW142001  13.522  10.839   1.647
13409SOL    HW242002  13.490  10.757   1.523
13410SOL     OW42003   7.402   9.674   4.481
13410SOL    HW142004   7.360   9.677   4.566
13410SOL    HW242005   7.487   9.634   4.498
13411SOL     OW42006   0.983  12.183   9.446
13411SOL    HW142007   0.928  12.237   9.503
13411SOL    HW242008   0.971  12.220   9.359
13412SOL     OW42009  12.100  12.207   4.156
13412SOL    HW142010  12.143  12.276   4.206
13412SOL    HW242011  12.148  12.203   4.073
13413SOL     OW42012   9.386   5.375   9.461
13413SOL    HW142013   9.291   5.370   9.452
13413SOL    HW242014   9.408   5.463   9.431
13414SOL     OW42015   0.766  10.737  13.352
13414SOL    HW142016   0.708  10.812  13.343
13414SOL    HW242017   0.844  10.771  13.396
13415SOL     OW42018   3.421  12.971   5.495
13415SOL    HW142019   3.347  12.969   5.555
13415SOL    HW242020   3.465  13.054   5.515
13416SOL     OW42021  10.533   6.624   5.450
13416SOL    HW142022  10.454   6.642   5.400
13416SOL    HW242023  10.502   6.584   5.531
13417SOL     OW42024   8.246  12.073  14.372
13417SOL    HW142025   8.164  12.035  14.339
13417SOL    HW242026   8.310  12.004  14.360
13418SOL     OW42027   1.764  10.509   2.495
13418SOL    HW142028   1.839  10.558   2.462
13418SOL    HW242029   1.790  10.417   2.484
13419SOL     OW42030   3.627   7.739   8.653
13419SOL    HW142031   3.543   7.698   8.632
13419SOL    HW242032   3.620   7.763   8.746
13420SOL     OW42033   8.599   7.970   7.673
13420SOL    HW142034   8.671   7.943   7.731
13420SOL    HW242035   8.640   7.985   7.588
13421SOL     OW42036  11.431  14.541   3.992
13421SOL    HW142037  11.350  14.491   3.980
13421SOL    HW242038  11.425  14.612   3.927
13422SOL     OW42039   1.803   9.860   7.306
13422SOL    HW142040   1.724   9.815   7.276
13422SOL    HW242041   1.869   9.840   7.240
13423SOL     OW42042   5.785   3.211  10.543
13423SOL    HW142043   5.859   3.199  10.603
13423SOL    HW242044   5.709   3.186  10.594
13424SOL     OW42045   8.153  11.804  11.799
13424SOL    HW142046   8.059  11.809  11.817
13424SOL    HW242047   8.181  11.721  11.838
13425SOL     OW42048   8.858   9.938   3.300
13425SOL    HW142049   8.894   9.903   3.381
13425SOL    HW242050   8.819   9.862   3.256
13426SOL     OW42051   4.307   5.420   6.606
13426SOL    HW142052   4.366   5.423   6.682
13426SOL    HW242053   4.285   5.328   6.595
13427SOL     OW42054  11.891   5.739   4.225
13427SOL    HW142055  11.927   5.671   4.281
13427SOL    HW242056  11.824   5.781   4.280
13428SOL     OW42057   1.498   7.329   7.560
13428SOL    HW142058   1.506   7.411   7.609
13428SOL    HW242059   1.409   7.299   7.578
13429SOL     OW42060   0.455   9.287   1.602
13429SOL    HW142061   0.385   9.322   1.657
13429SOL    HW242062   0.480   9.205   1.643
13430SOL     OW42063   5.016  12.416   7.369
13430SOL    HW142064   5.001  12.496   7.420
13430SOL    HW242065   4.929  12.383   7.350
13431SOL     OW42066  14.505   6.945   5.552
13431SOL    HW142067  14.587   6.990   5.535
13431SOL    HW242068  14.487   6.896   5.472
13432SOL     OW42069  10.373   7.413   7.195
13432SOL    HW142070  10.427   7.491   7.207
13432SOL    HW242071  10.422   7.359   7.133
13433SOL     OW42072  13.037  13.865   4.911
13433SOL    HW142073  13.086  13.947   4.917
13433SOL    HW242074  13.077  13.808   4.976
13434SOL     OW42075   4.571  13.522   5.959
13434SOL    HW142076   4.537  13.527   5.870
13434SOL    HW242077   4.527  13.446   5.997
13435SOL     OW42078   6.250   5.899   6.498
13435SOL    HW142079   6.161   5.894   6.531
13435SOL    HW242080   6.305   5.879   6.574
13436SOL     OW42081  14.313  11.387  11.268
13436SOL    HW142082  14.237  11.329  11.273
13436SOL    HW242083  14.282  11.463  11.218
13437SOL     OW42084   2.260   9.463   4.669
13437SOL    HW142085   2.324   9.518   4.624
13437SOL    HW242086   2.178   9.512   4.666
13438SOL     OW42087  12.221   4.685   7.309
13438SOL    HW142088  12.245   4.768   7.350
13438SOL    HW242089  12.271   4.619   7.357
13439SOL     OW42090   4.888   3.375  10.919
13439SOL    HW142091   4.875   3.370  11.013
13439SOL    HW242092   4.806   3.412  10.885
13440SOL     OW42093   7.897   3.321   2.592
13440SOL    HW142094   7.814   3.283   2.565
13440SOL    HW242095   7.914   3.390   2.527
13441SOL     OW42096   0.422   5.599  13.214
13441SOL    HW142097   0.420   5.682  13.166
13441SOL    HW242098   0.429   5.625  13.306
13442SOL     OW42099   7.807   5.261   6.723
13442SOL    HW142100   7.727   5.223   6.760
13442SOL    HW242101   7.795   5.253   6.628
13443SOL     OW42102   0.969   5.094  12.305
13443SOL    HW142103   0.940   5.186  12.304
13443SOL    HW242104   0.889   5.044  12.318
13444SOL     OW42105   5.516   0.731   7.267
13444SOL    HW142106   5.558   0.817   7.268
13444SOL    HW242107   5.575   0.674   7.315
13445SOL     OW42108  13.946  14.305  10.777
13445SOL    HW142109  13.898  14.373  10.730
13445SOL    HW242110  13.935  14.227  10.723
13446SOL     OW42111   2.277   2.962  14.151
13446SOL    HW142112   2.277   2.917  14.235
13446SOL    HW242113   2.325   2.904  14.092
13447SOL     OW42114  13.034   1.365  10.470
13447SOL    HW142115  13.021   1.412  10.388
13447SOL    HW242116  12.959   1.305  10.475
13448SOL     OW42117   0.566   2.016   4.490
13448SOL    HW142118   0.556   2.110   4.479
13448SOL    HW242119   0.612   2.005   4.573
13449SOL     OW42120  12.865   5.281   1.047
13449SOL    HW142121  12.801   5.339   1.089
13449SOL    HW242122  12.905   5.335   0.979
13450SOL     OW42123  14.120   4.638  12.882
13450SOL    HW142124  14.199   4.585  12.892
13450SOL    HW242125  14.062   4.585  12.827
13451SOL     OW42126  11.145  12.650   8.228
13451SOL    HW142127  11.108  12.562   8.231
13451SOL    HW242128  11.079  12.706   8.268
13452SOL     OW42129   2.492   6.856   8.554
13452SOL    HW142130   2.518   6.767   8.576
13452SOL    HW242131   2.411   6.870   8.603
13453SOL     OW42132  13.708  13.826   2.050
13453SOL    HW142133  13.655  13.899   2.082
13453SOL    HW242134  13.758  13.798   2.127
13454SOL     OW42135  12.356  11.196   7.099
13454SOL    HW142136  12.413  11.273   7.104
13454SOL    HW242137  12.282  11.225   7.046
13455SOL     OW42138  11.563  12.698   7.511
13455SOL    HW142139  11.653  12.678   7.538
13455SOL    HW242140  11.561  12.793   7.503
13456SOL     OW42141   5.104   7.035   5.448
13456SOL    HW142142   5.093   6.993   5.533
13456SOL    HW242143   5.046   7.112   5.452
13457SOL     OW42144  11.702   5.361   4.993
13457SOL    HW142145  11.623   5.370   5.047
13457SOL    HW242146  11.671   5.313   4.916
13458SOL     OW42147   0.817  13.891  11.214
13458SOL    HW142148   0.869  13.886  11.134
13458SOL    HW242149   0.863  13.834  11.276
13459SOL     OW42150   2.158  12.548   3.685
13459SOL    HW142151   2.126  12.617   3.626
13459SOL    HW242152   2.155  12.588   3.771
13460SOL     OW42153   6.119   7.687   8.948
13460SOL    HW142154   6.079   7.679   8.862
13460SOL    HW242155   6.187   7.620   8.949
13461SOL     OW42156  11.413   0.658   9.312
13461SOL    HW142157  11.359   0.696   9.381
13461SOL    HW242158  11.382   0.568   9.304
13462SOL     OW42159   5.054   6.483  14.809
13462SOL    HW142160   4.988   6.506  14.744
13462SOL    HW242161   5.137   6.486  14.762
13463SOL     OW42162   2.986   3.931  13.478
13463SOL    HW142163   2.987   3.907  13.386
13463SOL    HW242164   3.035   4.013  13.483
13464SOL     OW42165  12.621   6.808   0.581
13464SOL    HW142166  12.693   6.851   0.627
13464SOL    HW242167  12.609   6.861   0.501
13465SOL     OW42168   6.352  14.005   1.216
13465SOL    HW142169   6.283  13.944   1.194
13465SOL    HW242170   6.404  13.959   1.282
13466SOL     OW42171   2.205   4.440   5.941
13466SOL    HW142172   2.122   4.445   5.893
13466SOL    HW242173   2.181   4.409   6.028
13467SOL     OW42174   6.413   1.752   4.192
13467SOL    HW142175   6.430   1.796   4.109
13467SOL    HW242176   6.413   1.659   4.171
13468SOL     OW42177  14.061   7.164   9.005
13468SOL    HW142178  13.994   7.192   9.067
13468SOL    HW242179  14.055   7.068   9.005
13469SOL     OW42180   9.701   0.946  10.942
13469SOL    HW142181   9.614   0.977  10.918
13469SOL    HW242182   9.692   0.921  11.035
13470SOL     OW42183  14.776   5.789   4.020
13470SOL    HW142184  14.813   5.721   3.963
13470SOL    HW242185  14.849   5.817   4.074
13471SOL     OW42186  13.301   6.520   8.581
13471SOL    HW142187  13.292   6.512   8.486
13471SOL    HW242188  13.341   6.606   8.594
13472SOL     OW42189   7.435   1.825  12.503
13472SOL    HW142190   7.426   1.847  12.596
13472SOL    HW242191   7.471   1.736  12.503
13473SOL     OW42192   8.165   9.122   8.868
13473SOL    HW142193   8.217   9.112   8.948
13473SOL    HW242194   8.229   9.113   8.797
13474SOL     OW42195   3.501  13.706   8.421
13474SOL    HW142196   3.529  13.667   8.504
13474SOL    HW242197   3.413  13.673   8.407
13475SOL     OW42198   3.330   0.054  10.315
13475SOL    HW142199   3.267   0.020  10.379
13475SOL    HW242200   3.389   0.110  10.367
13476SOL     OW42201  12.132   9.588  11.940
13476SOL    HW142202  12.070   9.542  11.997
13476SOL    HW242203  12.095   9.578  11.852
13477SOL     OW42204  13.208   6.974   2.804
13477SOL    HW142205  13.193   7.065   2.780
13477SOL    HW242206  13.126   6.930   2.782
13478SOL     OW42207   2.448   4.151   2.701
13478SOL    HW142208   2.417   4.119   2.616
13478SOL    HW242209   2.544   4.147   2.694
13479SOL     OW42210   2.313   0.517  10.270
13479SOL    HW142211   2.401   0.486  10.247
13479SOL    HW242212   2.274   0.445  10.320
13480SOL     OW42213  10.711   1.138   9.192
13480SOL    HW142214  10.789   1.130   9.247
13480SOL    HW242215  10.658   1.206   9.235
13481SOL     OW42216  14.208   8.707  10.194
13481SOL    HW142217  14.250   8.718  10.279
13481SOL    HW242218  14.281   8.705  10.132
13482SOL     OW42219   9.375  14.197   0.240
13482SOL    HW142220   9.450  14.185   0.298
13482SOL    HW242221   9.327  14.114   0.246
13483SOL     OW42222  12.666   6.230   5.254
13483SOL    HW142223  12.744   6.278   5.227
13483SOL    HW242224  12.698   6.163   5.315
13484SOL     OW42225  10.344   2.285  13.625
13484SOL    HW142226  10.424   2.284  13.573
13484SOL    HW242227  10.275   2.263  13.563
13485SOL     OW42228  14.826   5.388   1.799
13485SOL    HW142229  14.850   5.404   1.890
13485SOL    HW242230  14.750   5.329   1.805
13486SOL     OW42231   3.030   5.776  12.349
13486SOL    HW142232   3.122   5.796  12.331
13486SOL    HW242233   3.017   5.688  12.314
13487SOL     OW42234   1.651   2.592   0.564
13487SOL    HW142235   1.628   2.677   0.602
13487SOL    HW242236   1.746   2.596   0.553
13488SOL     OW42237  14.838   4.516   7.520
13488SOL    HW142238  14.800   4.545   7.437
13488SOL    HW242239  14.876   4.595   7.557
13489SOL     OW42240  12.959   7.171   5.744
13489SOL    HW142241  13.043   7.166   5.698
13489SOL    HW242242  12.949   7.085   5.785
13490SOL     OW42243   3.553   1.823   7.000
13490SOL    HW142244   3.467   1.817   6.959
13490SOL    HW242245   3.545   1.895   7.063
13491SOL     OW42246   9.494   7.022  12.213
13491SOL    HW142247   9.440   6.968  12.271
13491SOL    HW242248   9.496   6.972  12.131
13492SOL     OW42249  13.837  14.072  14.148
13492SOL    HW142250  13.829  14.064  14.243
13492SOL    HW242251  13.807  13.988  14.114
13493SOL     OW42252   1.935   7.960  10.026
13493SOL    HW142253   1.865   8.007   9.982
13493SOL    HW242254   1.982   8.026  10.076
13494SOL     OW42255  13.171   8.580  14.721
13494SOL    HW142256  13.095   8.529  14.749
13494SOL    HW242257  13.226   8.518  14.673
13495SOL     OW42258   1.369  13.597   6.411
13495SOL    HW142259   1.371  13.540   6.488
13495SOL    HW242260   1.279  13.589   6.378
13496SOL     OW42261   0.875   4.991  10.840
13496SOL    HW142262   0.814   5.064  10.830
13496SOL    HW242263   0.914   5.004  10.927
13497SOL     OW42264   0.578   2.972  11.284
13497SOL    HW142265   0.628   2.913  11.227
13497SOL    HW242266   0.556   3.046  11.228
13498SOL     OW42267   5.274   8.445   8.515
13498SOL    HW142268   5.198   8.485   8.474
13498SOL    HW242269   5.345   8.507   8.501
13499SOL     OW42270  11.869   7.993   3.821
13499SOL    HW142271  11.822   7.969   3.901
13499SOL    HW242272  11.944   7.933   3.819
13500SOL     OW42273   1.534  12.087  14.244
13500SOL    HW142274   1.472  12.128  14.185
13500SOL    HW242275   1.597  12.156  14.266
13501SOL     OW42276  11.114  12.765   4.518
13501SOL    HW142277  11.091  12.720   4.599
13501SOL    HW242278  11.030  12.792   4.481
13502SOL     OW42279   0.254  10.151   1.615
13502SOL    HW142280   0.339  10.164   1.656
13502SOL    HW242281   0.191  10.164   1.686
13503SOL     OW42282  11.098   7.431   0.888
13503SOL    HW142283  11.156   7.443   0.963
13503SOL    HW242284  11.100   7.515   0.842
13504SOL     OW42285   7.562  13.446   5.655
13504SOL    HW142286   7.603  13.457   5.741
13504SOL    HW242287   7.543  13.535   5.627
13505SOL     OW42288   6.388   0.588   7.876
13505SOL    HW142289   6.379   0.675   7.837
13505SOL    HW242290   6.433   0.603   7.959
13506SOL     OW42291  12.611  12.904   9.481
13506SOL    HW142292  12.592  12.948   9.398
13506SOL    HW242293  12.531  12.856   9.501
13507SOL     OW42294  14.264  13.474   4.471
13507SOL    HW142295  14.251  13.569   4.468
13507SOL    HW242296  14.276  13.448   4.380
13508SOL     OW42297   1.420  12.166  14.024
13508SOL    HW142298   1.333  12.204  14.014
13508SOL    HW242299   1.479  12.230  13.984
13509SOL     OW42300   6.318   7.917   2.331
13509SOL    HW142301   6.363   7.858   2.270
13509SOL    HW242302   6.285   7.860   2.400
13510SOL     OW42303  14.853   8.743  13.072
13510SOL    HW142304   0.031   8.684  13.027
13510SOL    HW242305   0.024   8.782  13.142
13511SOL     OW42306   7.300   5.699   2.812
13511SOL    HW142307   7.269   5.787   2.790
13511SOL    HW242308   7.355   5.711   2.889
13512SOL     OW42309   5.291   1.511   8.304
13512SOL    HW142310   5.239   1.470   8.234
13512SOL    HW242311   5.287   1.448   8.376
13513SOL     OW42312   8.154   0.146   4.088
13513SOL    HW142313   8.214   0.128   4.160
13513SOL    HW242314   8.067   0.127   4.124
13514SOL     OW42315   9.423   4.927  13.639
13514SOL    HW142316   9.476   4.982  13.582
13514SOL    HW242317   9.334   4.958  13.628
13515SOL     OW42318   6.101   5.925   0.257
13515SOL    HW142319   6.076   6.001   0.205
13515SOL    HW242320   6.162   5.959   0.322
13516SOL     OW42321   1.768  11.005   9.567
13516SOL    HW142322   1.748  10.924   9.613
13516SOL    HW242323   1.783  10.978   9.477
13517SOL     OW42324   8.289   5.781   2.851
13517SOL    HW142325   8.257   5.701   2.812
13517SOL    HW242326   8.294   5.762   2.945
13518SOL     OW42327  10.311  13.456  11.393
13518SOL    HW142328  10.216  13.467  11.391
13518SOL    HW242329  10.331  13.408  11.313
13519SOL     OW42330  10.353   2.703   5.338
13519SOL    HW142331  10.302   2.639   5.290
13519SOL    HW242332  10.440   2.663   5.345
13520SOL     OW42333   0.939   8.189   6.782
13520SOL    HW142334   0.901   8.246   6.715
13520SOL    HW242335   0.896   8.216   6.863
13521SOL     OW42336   5.600   2.157   8.646
13521SOL    HW142337   5.573   2.197   8.728
13521SOL    HW242338   5.550   2.076   8.642
13522SOL     OW42339   0.046   9.302   3.895
13522SOL    HW142340   0.100   9.295   3.974
13522SOL    HW242341   0.099   9.356   3.835
13523SOL     OW42342   7.546  11.474   2.436
13523SOL    HW142343   7.470  11.511   2.390
13523SOL    HW242344   7.539  11.380   2.422
13524SOL     OW42345   2.388  12.433  14.762
13524SOL    HW142346   2.397  12.386  14.845
13524SOL    HW242347   2.295  12.430  14.743
13525SOL     OW42348   8.386   2.189   2.437
13525SOL    HW142349   8.470   2.151   2.413
13525SOL    HW242350   8.325   2.115   2.434
13526SOL     OW42351   8.313   1.169  14.043
13526SOL    HW142352   8.403   1.201  14.038
13526SOL    HW242353   8.272   1.225  14.110
13527SOL     OW42354   2.928  10.832   5.709
13527SOL    HW142355   2.866  10.810   5.639
13527SOL    HW242356   2.874  10.853   5.784
13528SOL     OW42357  12.888   8.795   6.423
13528SOL    HW142358  12.883   8.884   6.457
13528SOL    HW242359  12.909   8.806   6.330
13529SOL     OW42360  10.379   5.317   1.461
13529SOL    HW142361  10.327   5.378   1.407
13529SOL    HW242362  10.413   5.253   1.398
13530SOL     OW42363  13.599  11.960   9.228
13530SOL    HW142364  13.685  11.955   9.186
13530SOL    HW242365  13.549  11.888   9.190
13531SOL     OW42366  14.605  12.201  14.190
13531SOL    HW142367  14.581  12.290  14.219
13531SOL    HW242368  14.629  12.212  14.098
13532SOL     OW42369   9.900  13.971   5.538
13532SOL    HW142370   9.878  13.950   5.629
13532SOL    HW242371   9.980  14.024   5.545
13533SOL     OW42372   5.569   3.952   7.952
13533SOL    HW142373   5.608   3.865   7.953
13533SOL    HW242374   5.499   3.948   8.016
13534SOL     OW42375   7.220   3.102  11.327
13534SOL    HW142376   7.258   3.129  11.410
13534SOL    HW242377   7.268   3.151  11.261
13535SOL     OW42378   4.694  13.596   8.318
13535SOL    HW142379   4.686  13.692   8.315
13535SOL    HW242380   4.788  13.581   8.324
13536SOL     OW42381   2.690   9.013   8.981
13536SOL    HW142382   2.726   9.061   9.056
13536SOL    HW242383   2.767   8.979   8.935
13537SOL     OW42384   4.750   5.679  10.100
13537SOL    HW142385   4.785   5.694  10.012
13537SOL    HW242386   4.815   5.621  10.141
13538SOL     OW42387  14.483  13.344  11.160
13538SOL    HW142388  14.491  13.382  11.247
13538SOL    HW242389  14.572  13.319  11.135
13539SOL     OW42390  11.209   1.509   3.909
13539SOL    HW142391  11.293   1.555   3.910
13539SOL    HW242392  11.156   1.554   3.975
13540SOL     OW42393   7.447  14.353  12.352
13540SOL    HW142394   7.476  14.422  12.411
13540SOL    HW242395   7.351  14.351  12.362
13541SOL     OW42396   6.945  14.718   5.135
13541SOL    HW142397   6.912  14.723   5.225
13541SOL    HW242398   6.965  14.626   5.122
13542SOL     OW42399  12.163   5.512   7.126
13542SOL    HW142400  12.255   5.526   7.104
13542SOL    HW242401  12.145   5.578   7.194
13543SOL     OW42402   6.508  14.286  10.171
13543SOL    HW142403   6.566  14.238  10.111
13543SOL    HW242404   6.474  14.220  10.231
13544SOL     OW42405  12.308   9.246  10.724
13544SOL    HW142406  12.302   9.249  10.628
13544SOL    HW242407  12.229   9.200  10.751
13545SOL     OW42408  10.946   8.539  11.019
13545SOL    HW142409  11.018   8.504  11.072
13545SOL    HW242410  10.981   8.542  10.930
13546SOL     OW42411   4.852  14.342   8.871
13546SOL    HW142412   4.905  14.417   8.898
13546SOL    HW242413   4.911  14.289   8.816
13547SOL     OW42414   2.205   2.352   4.156
13547SOL    HW142415   2.170   2.283   4.099
13547SOL    HW242416   2.132   2.374   4.214
13548SOL     OW42417  11.001   7.551  10.575
13548SOL    HW142418  10.957   7.493  10.513
13548SOL    HW242419  11.058   7.605  10.520
13549SOL     OW42420  14.727   8.093  13.348
13549SOL    HW142421  14.800   8.155  13.346
13549SOL    HW242422  14.650   8.147  13.365
13550SOL     OW42423   2.174   7.012   9.774
13550SOL    HW142424   2.206   7.080   9.834
13550SOL    HW242425   2.197   7.044   9.687
13551SOL     OW42426   4.304   2.894   7.018
13551SOL    HW142427   4.215   2.869   6.994
13551SOL    HW242428   4.346   2.813   7.047
13552SOL     OW42429   9.214   1.483   2.831
13552SOL    HW142430   9.292   1.534   2.808
13552SOL    HW242431   9.231   1.396   2.794
13553SOL     OW42432   9.099   8.708   4.608
13553SOL    HW142433   9.061   8.622   4.624
13553SOL    HW242434   9.151   8.726   4.686
13554SOL     OW42435   8.183   0.162   8.371
13554SOL    HW142436   8.180   0.253   8.399
13554SOL    HW242437   8.126   0.159   8.293
13555SOL     OW42438   8.313   0.148   1.244
13555SOL    HW142439   8.264   0.206   1.302
13555SOL    HW242440   8.404   0.155   1.275
13556SOL     OW42441   0.531   4.621  13.279
13556SOL    HW142442   0.456   4.607  13.337
13556SOL    HW242443   0.577   4.696  13.318
13557SOL     OW42444   0.104  10.016   4.521
13557SOL    HW142445   0.054  10.014   4.603
13557SOL    HW242446   0.090   9.929   4.483
13558SOL     OW42447  11.528   1.708  12.074
13558SOL    HW142448  11.480   1.727  12.155
13558SOL    HW242449  11.561   1.619  12.086
13559SOL     OW42450  12.159   0.067   9.383
13559SOL    HW142451  12.210  14.874   9.415
13559SOL    HW242452  12.141   0.120   9.460
13560SOL     OW42453  10.436   7.241  10.971
13560SOL    HW142454  10.486   7.191  11.036
13560SOL    HW242455  10.370   7.180  10.939
13561SOL     OW42456   1.891   5.637   1.161
13561SOL    HW142457   1.907   5.582   1.237
13561SOL    HW242458   1.949   5.712   1.172
13562SOL     OW42459  13.530   1.404   6.716
13562SOL    HW142460  13.599   1.403   6.782
13562SOL    HW242461  13.534   1.317   6.676
13563SOL     OW42462  10.075  10.161  12.884
13563SOL    HW142463  10.126  10.171  12.804
13563SOL    HW242464   9.994  10.118  12.856
13564SOL     OW42465  13.221   9.937  10.252
13564SOL    HW142466  13.203   9.903  10.164
13564SOL    HW242467  13.136   9.940  10.295
13565SOL     OW42468  10.657  11.202   3.963
13565SOL    HW142469  10.660  11.219   3.869
13565SOL    HW242470  10.749  11.196   3.989
13566SOL     OW42471   1.220  12.691   8.953
13566SOL    HW142472   1.130  12.712   8.931
13566SOL    HW242473   1.249  12.631   8.884
13567SOL     OW42474  12.327  11.691   1.764
13567SOL    HW142475  12.276  11.752   1.818
13567SOL    HW242476  12.380  11.643   1.827
13568SOL     OW42477   7.864  13.459   0.459
13568SOL    HW142478   7.909  13.532   0.500
13568SOL    HW242479   7.934  13.403   0.425
13569SOL     OW42480   0.198  13.544   0.331
13569SOL    HW142481   0.281  13.508   0.299
13569SOL    HW242482   0.150  13.568   0.251
13570SOL     OW42483  13.277   4.775  12.110
13570SOL    HW142484  13.238   4.718  12.176
13570SOL    HW242485  13.202   4.820  12.070
13571SOL     OW42486   0.307   1.632   3.070
13571SOL    HW142487   0.292   1.711   3.123
13571SOL    HW242488   0.331   1.565   3.134
13572SOL     OW42489   5.853   0.864   9.418
13572SOL    HW142490   5.829   0.783   9.375
13572SOL    HW242491   5.923   0.840   9.478
13573SOL     OW42492   7.876   4.946   6.377
13573SOL    HW142493   7.894   4.864   6.330
13573SOL    HW242494   7.961   4.974   6.410
13574SOL     OW42495   9.642  10.938  10.934
13574SOL    HW142496   9.602  11.016  10.972
13574SOL    HW242497   9.569  10.887  10.900
13575SOL     OW42498   4.874   3.592  12.633
13575SOL    HW142499   4.907   3.678  12.605
13575SOL    HW242500   4.952   3.545  12.663
13576SOL     OW42501  11.257  14.781   1.931
13576SOL    HW142502  11.258  14.754   1.840
13576SOL    HW242503  11.172  14.823   1.944
13577SOL     OW42504   8.162   2.725  13.247
13577SOL    HW142505   8.118   2.810  13.240
13577SOL    HW242506   8.091   2.661  13.246
13578SOL     OW42507  11.592   2.316   8.715
13578SOL    HW142508  11.598   2.403   8.676
13578SOL    HW242509  11.551   2.331   8.800
13579SOL     OW42510   0.650  13.398   6.417
13579SOL    HW142511   0.667  13.375   6.325
13579SOL    HW242512   0.665  13.316   6.464
13580SOL     OW42513  13.748   5.691  11.245
13580SOL    HW142514  13.792   5.776  11.234
13580SOL    HW242515  13.797   5.631  11.189
13581SOL     OW42516   3.438   1.441   7.572
13581SOL    HW142517   3.382   1.519   7.573
13581SOL    HW242518   3.441   1.415   7.479
13582SOL     OW42519   1.444  13.024  14.327
13582SOL    HW142520   1.366  13.023  14.382
13582SOL    HW242521   1.439  13.106  14.278
13583SOL     OW42522   4.745   4.295   8.816
13583SOL    HW142523   4.749   4.302   8.721
13583SOL    HW242524   4.772   4.205   8.834
13584SOL     OW42525   7.443   2.600  13.251
13584SOL    HW142526   7.478   2.575  13.336
13584SOL    HW242527   7.520   2.609  13.195
13585SOL     OW42528  14.337   2.608   6.136
13585SOL    HW142529  14.413   2.667   6.135
13585SOL    HW242530  14.269   2.657   6.183
13586SOL     OW42531   3.320   8.031   7.390
13586SOL    HW142532   3.288   8.045   7.301
13586SOL    HW242533   3.412   8.057   7.387
13587SOL     OW42534   5.998   3.256   3.808
13587SOL    HW142535   5.977   3.329   3.866
13587SOL    HW242536   6.009   3.181   3.867
13588SOL     OW42537  13.726  12.105  10.032
13588SOL    HW142538  13.691  12.031  10.080
13588SOL    HW242539  13.658  12.126   9.967
13589SOL     OW42540  10.556   2.863   0.941
13589SOL    HW142541  10.504   2.874   0.862
13589SOL    HW242542  10.494   2.879   1.013
13590SOL     OW42543  13.915  12.994  13.065
13590SOL    HW142544  13.974  12.920  13.049
13590SOL    HW242545  13.860  12.998  12.987
13591SOL     OW42546   0.488   8.517   8.460
13591SOL    HW142547   0.525   8.437   8.498
13591SOL    HW242548   0.421   8.485   8.399
13592SOL     OW42549   6.150   9.030   8.728
13592SOL    HW142550   6.209   8.955   8.739
13592SOL    HW242551   6.203   9.096   8.683
13593SOL     OW42552   8.420  11.356  11.101
13593SOL    HW142553   8.423  11.383  11.192
13593SOL    HW242554   8.327  11.347  11.081
13594SOL     OW42555   2.714   6.928   5.986
13594SOL    HW142556   2.631   6.961   5.952
13594SOL    HW242557   2.723   6.841   5.948
13595SOL     OW42558   2.912  12.222  10.919
13595SOL    HW142559   2.854  12.180  10.856
13595SOL    HW242560   2.994  12.235  10.872
13596SOL     OW42561  11.699  11.594  11.867
13596SOL    HW142562  11.740  11.624  11.948
13596SOL    HW242563  11.679  11.674  11.819
13597SOL     OW42564   7.057   9.558  14.577
13597SOL    HW142565   7.148   9.529  14.573
13597SOL    HW242566   7.062   9.653  14.567
13598SOL     OW42567   8.369  10.335  11.201
13598SOL    HW142568   8.441  10.287  11.243
13598SOL    HW242569   8.298  10.272  11.196
13599SOL     OW42570   2.619  11.282   7.774
13599SOL    HW142571   2.691  11.256   7.832
13599SOL    HW242572   2.639  11.240   7.691
13600SOL     OW42573  10.423   6.311   1.776
13600SOL    HW142574  10.385   6.281   1.693
13600SOL    HW242575  10.440   6.230   1.825
13601SOL     OW42576   8.559   9.800   9.236
13601SOL    HW142577   8.529   9.734   9.173
13601SOL    HW242578   8.505   9.786   9.313
13602SOL     OW42579   6.049  11.401   0.300
13602SOL    HW142580   6.027  11.316   0.337
13602SOL    HW242581   6.070  11.384   0.208
13603SOL     OW42582  13.249  13.681   6.522
13603SOL    HW142583  13.173  13.623   6.520
13603SOL    HW242584  13.215  13.766   6.492
13604SOL     OW42585   5.461   5.703   0.347
13604SOL    HW142586   5.529   5.730   0.286
13604SOL    HW242587   5.413   5.784   0.367
13605SOL     OW42588   0.193   9.279   3.375
13605SOL    HW142589   0.269   9.307   3.425
13605SOL    HW242590   0.129   9.349   3.388
13606SOL     OW42591   9.553   9.826  10.558
13606SOL    HW142592   9.578   9.858  10.645
13606SOL    HW242593   9.557   9.731  10.565
13607SOL     OW42594   9.607   5.337   4.120
13607SOL    HW142595   9.616   5.369   4.030
13607SOL    HW242596   9.516   5.308   4.127
13608SOL     OW42597   1.001   9.690   6.881
13608SOL    HW142598   1.095   9.685   6.899
13608SOL    HW242599   0.960   9.641   6.952
13609SOL     OW42600  10.707   9.692   3.093
13609SOL    HW142601  10.788   9.722   3.135
13609SOL    HW242602  10.735   9.659   3.008
13610SOL     OW42603  10.038   4.710   5.549
13610SOL    HW142604  10.087   4.631   5.527
13610SOL    HW242605   9.978   4.722   5.475
13611SOL     OW42606   8.870   8.733  11.259
13611SOL    HW142607   8.846   8.656  11.208
13611SOL    HW242608   8.959   8.716  11.288
13612SOL     OW42609  14.569   1.982   5.788
13612SOL    HW142610  14.508   2.051   5.814
13612SOL    HW242611  14.604   2.011   5.704
13613SOL     OW42612   2.503   1.778   8.175
13613SOL    HW142613   2.528   1.767   8.084
13613SOL    HW242614   2.553   1.854   8.205
13614SOL     OW42615  13.469   6.348  13.927
13614SOL    HW142616  13.515   6.324  13.846
13614SOL    HW242617  13.531   6.404  13.974
13615SOL     OW42618  12.640  12.124  11.866
13615SOL    HW142619  12.562  12.122  11.812
13615SOL    HW242620  12.673  12.034  11.864
13616SOL     OW42621   0.999   8.231   3.689
13616SOL    HW142622   0.966   8.156   3.639
13616SOL    HW242623   1.093   8.215   3.696
13617SOL     OW42624   6.709  10.842   9.247
13617SOL    HW142625   6.789  10.837   9.299
13617SOL    HW242626   6.697  10.753   9.212
13618SOL     OW42627   5.652   2.957   2.824
13618SOL    HW142628   5.697   2.887   2.777
13618SOL    HW242629   5.719   2.998   2.878
13619SOL     OW42630   2.228   8.982  13.177
13619SOL    HW142631   2.225   8.928  13.098
13619SOL    HW242632   2.268   8.926  13.243
13620SOL     OW42633  11.069  10.894   2.982
13620SOL    HW142634  11.025  10.908   3.066
13620SOL    HW242635  11.143  10.838   3.003
13621SOL     OW42636   5.122  12.962   6.262
13621SOL    HW142637   5.165  13.028   6.316
13621SOL    HW242638   5.192  12.929   6.206
13622SOL     OW42639  12.933   4.021   7.259
13622SOL    HW142640  12.842   4.034   7.287
13622SOL    HW242641  12.928   4.022   7.163
13623SOL     OW42642   6.179   2.748   7.373
13623SOL    HW142643   6.162   2.772   7.464
13623SOL    HW242644   6.092   2.730   7.336
13624SOL     OW42645  11.596  13.540   4.851
13624SOL    HW142646  11.678  13.550   4.897
13624SOL    HW242647  11.620  13.499   4.767
13625SOL     OW42648   2.505   8.569   2.234
13625SOL    HW142649   2.537   8.549   2.146
13625SOL    HW242650   2.418   8.529   2.237
13626SOL     OW42651  13.641  13.181   4.333
13626SOL    HW142652  13.633  13.253   4.270
13626SOL    HW242653  13.733  13.154   4.327
13627SOL     OW42654   2.905  11.421   3.577
13627SOL    HW142655   2.817  11.414   3.614
13627SOL    HW242656   2.902  11.369   3.496
13628SOL     OW42657   1.215   8.676   6.042
13628SOL    HW142658   1.299   8.667   6.088
13628SOL    HW242659   1.193   8.588   6.012
13629SOL     OW42660   9.630   1.763   0.216
13629SOL    HW142661   9.603   1.695   0.277
13629SOL    HW242662   9.723   1.746   0.201
13630SOL     OW42663   1.357   5.643   2.622
13630SOL    HW142664   1.400   5.687   2.696
13630SOL    HW242665   1.268   5.676   2.624
13631SOL     OW42666   4.600   4.808  11.336
13631SOL    HW142667   4.642   4.875  11.391
13631SOL    HW242668   4.546   4.757  11.397
13632SOL     OW42669  14.242   6.435  11.193
13632SOL    HW142670  14.194   6.413  11.272
13632SOL    HW242671  14.192   6.505  11.152
13633SOL     OW42672  12.663   7.323   2.325
13633SOL    HW142673  12.626   7.329   2.237
13633SOL    HW242674  12.591   7.350   2.383
13634SOL     OW42675   4.600   7.143   2.856
13634SOL    HW142676   4.627   7.136   2.764
13634SOL    HW242677   4.506   7.129   2.854
13635SOL     OW42678  10.201  14.742  12.021
13635SOL    HW142679  10.243  14.799  12.086
13635SOL    HW242680  10.268  14.679  11.997
13636SOL     OW42681   2.791   0.695   1.609
13636SOL    HW142682   2.726   0.761   1.634
13636SOL    HW242683   2.745   0.612   1.616
13637SOL     OW42684   1.344  11.708  13.708
13637SOL    HW142685   1.370  11.746  13.791
13637SOL    HW242686   1.250  11.727  13.702
13638SOL     OW42687  12.582  11.459   1.024
13638SOL    HW142688  12.513  11.480   1.088
13638SOL    HW242689  12.604  11.543   0.984
13639SOL     OW42690   7.651  10.922   6.358
13639SOL    HW142691   7.601  10.923   6.276
13639SOL    HW242692   7.644  11.012   6.391
13640SOL     OW42693   3.899  12.404  14.600
13640SOL    HW142694   3.974  12.463  14.612
13640SOL    HW242695   3.933  12.317  14.622
13641SOL     OW42696  14.653  11.301   2.499
13641SOL    HW142697  14.625  11.283   2.589
13641SOL    HW242698  14.628  11.392   2.484
13642SOL     OW42699   1.709  12.686   9.738
13642SOL    HW142700   1.763  12.644   9.805
13642SOL    HW242701   1.626  12.706   9.783
13643SOL     OW42702   9.131   9.105   7.385
13643SOL    HW142703   9.210   9.130   7.434
13643SOL    HW242704   9.071   9.179   7.397
13644SOL     OW42705  13.839  13.148   7.199
13644SOL    HW142706  13.860  13.182   7.113
13644SOL    HW242707  13.744  13.138   7.200
13645SOL     OW42708   8.979   2.743   2.024
13645SOL    HW142709   8.944   2.681   1.960
13645SOL    HW242710   8.964   2.829   1.985
13646SOL     OW42711  11.433   9.578   8.723
13646SOL    HW142712  11.458   9.667   8.749
13646SOL    HW242713  11.339   9.573   8.742
13647SOL     OW42714   8.825   4.402   3.274
13647SOL    HW142715   8.838   4.383   3.182
13647SOL    HW242716   8.873   4.483   3.289
13648SOL     OW42717   3.477   3.075   4.072
13648SOL    HW142718   3.476   3.004   4.007
13648SOL    HW242719   3.450   3.032   4.154
13649SOL     OW42720   6.220  12.254  14.741
13649SOL    HW142721   6.206  12.192  14.812
13649SOL    HW242722   6.316  12.256  14.731
13650SOL     OW42723  11.724  11.026   9.253
13650SOL    HW142724  11.642  11.069   9.231
13650SOL    HW242725  11.716  10.938   9.215
13651SOL     OW42726   9.079  12.801   7.520
13651SOL    HW142727   9.116  12.870   7.465
13651SOL    HW242728   9.156  12.759   7.559
13652SOL     OW42729  14.297  14.854   2.473
13652SOL    HW142730  14.353  14.779   2.457
13652SOL    HW242731  14.358   0.046   2.486
13653SOL     OW42732   7.275  13.082  10.549
13653SOL    HW142733   7.317  13.118  10.627
13653SOL    HW242734   7.322  13.000  10.532
13654SOL     OW42735  11.182  12.924   8.582
13654SOL    HW142736  11.209  12.958   8.667
13654SOL    HW242737  11.236  12.847   8.569
13655SOL     OW42738  10.160  11.811  10.357
13655SOL    HW142739  10.225  11.756  10.401
13655SOL    HW242740  10.097  11.749  10.321
13656SOL     OW42741   9.210   3.587   2.935
13656SOL    HW142742   9.157   3.509   2.953
13656SOL    HW242743   9.274   3.558   2.870
13657SOL     OW42744   6.350  14.795  10.354
13657SOL    HW142745   6.426  14.848  10.379
13657SOL    HW242746   6.327  14.746  10.433
13658SOL     OW42747   8.096   1.449   4.457
13658SOL    HW142748   8.090   1.407   4.543
13658SOL    HW242749   8.105   1.543   4.476
13659SOL     OW42750  11.245   1.709  12.032
13659SOL    HW142751  11.313   1.681  12.094
13659SOL    HW242752  11.293   1.757  11.964
13660SOL     OW42753  11.978   0.092   9.947
13660SOL    HW142754  11.906   0.029   9.942
13660SOL    HW242755  12.053   0.040   9.975
13661SOL     OW42756  10.682   1.365   6.305
13661SOL    HW142757  10.707   1.275   6.284
13661SOL    HW242758  10.632   1.394   6.228
13662SOL     OW42759   9.616   0.433  13.083
13662SOL    HW142760   9.593   0.443  13.175
13662SOL    HW242761   9.585   0.345  13.060
13663SOL     OW42762   2.173   9.941   4.853
13663SOL    HW142763   2.222   9.960   4.933
13663SOL    HW242764   2.230   9.968   4.782
13664SOL     OW42765   0.449   4.617   0.148
13664SOL    HW142766   0.464   4.710   0.135
13664SOL    HW242767   0.476   4.601   0.239
13665SOL     OW42768   7.525   0.216   5.680
13665SOL    HW142769   7.579   0.221   5.601
13665SOL    HW242770   7.588   0.203   5.751
13666SOL     OW42771   1.551   9.821   9.518
13666SOL    HW142772   1.546   9.743   9.574
13666SOL    HW242773   1.483   9.879   9.552
13667SOL     OW42774  13.375   7.910   3.250
13667SOL    HW142775  13.467   7.887   3.260
13667SOL    HW242776  13.330   7.827   3.236
13668SOL     OW42777   8.070  12.555  13.147
13668SOL    HW142778   8.160  12.583  13.165
13668SOL    HW242779   8.050  12.492  13.216
13669SOL     OW42780   9.427   6.391  12.800
13669SOL    HW142781   9.421   6.317  12.738
13669SOL    HW242782   9.513   6.428  12.784
13670SOL     OW42783   5.884   2.708  12.814
13670SOL    HW142784   5.806   2.760  12.792
13670SOL    HW242785   5.942   2.771  12.858
13671SOL     OW42786   5.645   8.242   4.943
13671SOL    HW142787   5.652   8.280   5.031
13671SOL    HW242788   5.734   8.245   4.909
13672SOL     OW42789   1.161   4.880  10.843
13672SOL    HW142790   1.169   4.868  10.938
13672SOL    HW242791   1.190   4.797  10.806
13673SOL     OW42792   1.634  13.170   0.977
13673SOL    HW142793   1.657  13.253   0.935
13673SOL    HW242794   1.594  13.196   1.060
13674SOL     OW42795  10.082   2.099  13.730
13674SOL    HW142796  10.086   2.039  13.655
13674SOL    HW242797  10.111   2.047  13.805
13675SOL     OW42798   2.552   4.173   1.897
13675SOL    HW142799   2.536   4.267   1.885
13675SOL    HW242800   2.474   4.141   1.943
13676SOL     OW42801   4.769   5.615   4.424
13676SOL    HW142802   4.776   5.604   4.329
13676SOL    HW242803   4.857   5.598   4.457
13677SOL     OW42804  12.603   6.702   6.953
13677SOL    HW142805  12.517   6.666   6.975
13677SOL    HW242806  12.651   6.701   7.036
13678SOL     OW42807   2.549  13.369  10.017
13678SOL    HW142808   2.532  13.447   9.964
13678SOL    HW242809   2.645  13.363  10.021
13679SOL     OW42810   1.110   7.876   5.430
13679SOL    HW142811   1.069   7.789   5.424
13679SOL    HW242812   1.198   7.858   5.465
13680SOL     OW42813  14.068   4.978  14.280
13680SOL    HW142814  14.083   5.071  14.294
13680SOL    HW242815  14.096   4.962  14.190
13681SOL     OW42816  13.113   2.780   1.308
13681SOL    HW142817  13.110   2.772   1.403
13681SOL    HW242818  13.181   2.719   1.280
13682SOL     OW42819   8.449   9.232  10.976
13682SOL    HW142820   8.363   9.257  11.008
13682SOL    HW242821   8.497   9.203  11.054
13683SOL     OW42822   0.804   5.558  12.778
13683SOL    HW142823   0.772   5.589  12.863
13683SOL    HW242824   0.831   5.467  12.794
13684SOL     OW42825   3.037  13.298   4.944
13684SOL    HW142826   3.007  13.371   4.891
13684SOL    HW242827   2.965  13.235   4.941
13685SOL     OW42828  13.122   1.828   6.316
13685SOL    HW142829  13.056   1.760   6.309
13685SOL    HW242830  13.199   1.791   6.274
13686SOL     OW42831   0.965   1.636   0.168
13686SOL    HW142832   1.033   1.702   0.157
13686SOL    HW242833   1.012   1.557   0.196
13687SOL     OW42834  14.425   0.803   5.660
13687SOL    HW142835  14.494   0.804   5.725
13687SOL    HW242836  14.470   0.784   5.577
13688SOL     OW42837   1.380   5.959  11.906
13688SOL    HW142838   1.363   5.872  11.870
13688SOL    HW242839   1.389   6.015  11.828
13689SOL     OW42840   5.620  12.358   1.690
13689SOL    HW142841   5.586  12.273   1.717
13689SOL    HW242842   5.542  12.407   1.663
13690SOL     OW42843   8.384   5.218   7.299
13690SOL    HW142844   8.383   5.187   7.389
13690SOL    HW242845   8.447   5.161   7.255
13691SOL     OW42846  11.857   4.450  14.652
13691SOL    HW142847  11.767   4.482  14.656
13691SOL    HW242848  11.863   4.387  14.725
13692SOL     OW42849   0.452   4.357   5.660
13692SOL    HW142850   0.497   4.281   5.624
13692SOL    HW242851   0.360   4.345   5.635
13693SOL     OW42852  12.259   4.728   7.049
13693SOL    HW142853  12.200   4.660   7.018
13693SOL    HW242854  12.258   4.719   7.145
13694SOL     OW42855   4.215   2.352  12.226
13694SOL    HW142856   4.250   2.264  12.211
13694SOL    HW242857   4.134   2.337  12.275
13695SOL     OW42858  10.128  12.039   3.846
13695SOL    HW142859  10.080  11.973   3.896
13695SOL    HW242860  10.067  12.067   3.778
13696SOL     OW42861  12.998  12.131   2.064
13696SOL    HW142862  12.937  12.172   2.002
13696SOL    HW242863  12.954  12.140   2.149
13697SOL     OW42864  13.430  11.926   8.342
13697SOL    HW142865  13.457  11.992   8.278
13697SOL    HW242866  13.372  11.973   8.402
13698SOL     OW42867   9.468  14.751  13.484
13698SOL    HW142868   9.559  14.779  13.491
13698SOL    HW242869   9.465  14.665  13.526
13699SOL     OW42870   2.272   4.080   1.537
13699SOL    HW142871   2.341   4.147   1.531
13699SOL    HW242872   2.264   4.046   1.448
13700SOL     OW42873   9.641   4.857   4.627
13700SOL    HW142874   9.647   4.951   4.642
13700SOL    HW242875   9.707   4.819   4.686
13701SOL     OW42876   9.001  10.936   5.819
13701SOL    HW142877   8.932  10.935   5.752
13701SOL    HW242878   8.981  10.861   5.875
13702SOL     OW42879  13.578   3.089   3.999
13702SOL    HW142880  13.614   3.029   3.935
13702SOL    HW242881  13.486   3.062   4.008
13703SOL     OW42882  10.303   0.121   7.908
13703SOL    HW142883  10.293   0.028   7.889
13703SOL    HW242884  10.239   0.138   7.977
13704SOL     OW42885   8.744  13.929   8.716
13704SOL    HW142886   8.657  13.890   8.704
13704SOL    HW242887   8.802  13.876   8.661
13705SOL     OW42888  13.991   1.555  12.152
13705SOL    HW142889  13.972   1.474  12.105
13705SOL    HW242890  14.033   1.526  12.233
13706SOL     OW42891  13.621  10.320   1.994
13706SOL    HW142892  13.611  10.232   2.030
13706SOL    HW242893  13.595  10.378   2.066
13707SOL     OW42894   4.850  10.903   2.414
13707SOL    HW142895   4.807  10.949   2.342
13707SOL    HW242896   4.835  10.810   2.396
13708SOL     OW42897   4.763   4.886   7.792
13708SOL    HW142898   4.813   4.908   7.871
13708SOL    HW242899   4.677   4.927   7.806
13709SOL     OW42900  12.877   2.460   0.116
13709SOL    HW142901  12.883   2.384   0.058
13709SOL    HW242902  12.785   2.465   0.140
13710SOL     OW42903   6.120  14.597   2.512
13710SOL    HW142904   6.096  14.570   2.601
13710SOL    HW242905   6.117  14.516   2.461
13711SOL     OW42906   1.029   3.864   4.421
13711SOL    HW142907   1.074   3.946   4.444
13711SOL    HW242908   0.961   3.855   4.488
13712SOL     OW42909  13.877   1.160   9.198
13712SOL    HW142910  13.849   1.181   9.287
13712SOL    HW242911  13.842   1.072   9.182
13713SOL     OW42912  14.691   0.829   1.622
13713SOL    HW142913  14.728   0.744   1.601
13713SOL    HW242914  14.612   0.809   1.673
13714SOL     OW42915   4.464  13.650   7.198
13714SOL    HW142916   4.385  13.673   7.247
13714SOL    HW242917   4.483  13.560   7.223
13715SOL     OW42918  12.163  13.989  13.069
13715SOL    HW142919  12.091  13.948  13.021
13715SOL    HW242920  12.159  13.951  13.156
13716SOL     OW42921   5.302  13.197  11.557
13716SOL    HW142922   5.301  13.272  11.497
13716SOL    HW242923   5.346  13.128  11.508
13717SOL     OW42924  13.593   0.993   1.570
13717SOL    HW142925  13.545   1.034   1.642
13717SOL    HW242926  13.543   1.015   1.492
13718SOL     OW42927   4.701   8.556  14.155
13718SOL    HW142928   4.664   8.542  14.068
13718SOL    HW242929   4.738   8.644  14.151
13719SOL     OW42930   9.123  12.413  10.763
13719SOL    HW142931   9.118  12.509  10.769
13719SOL    HW242932   9.086  12.382  10.845
13720SOL     OW42933   8.616   6.616   7.653
13720SOL    HW142934   8.570   6.698   7.668
13720SOL    HW242935   8.707   6.635   7.677
13721SOL     OW42936   1.711   1.398  12.576
13721SOL    HW142937   1.755   1.320  12.609
13721SOL    HW242938   1.764   1.471  12.609
13722SOL     OW42939   5.974   0.770  10.980
13722SOL    HW142940   5.978   0.707  10.908
13722SOL    HW242941   5.990   0.718  11.058
13723SOL     OW42942  14.211   6.890   8.160
13723SOL    HW142943  14.304   6.905   8.139
13723SOL    HW242944  14.190   6.959   8.223
13724SOL     OW42945   9.265  10.541  10.907
13724SOL    HW142946   9.190  10.601  10.904
13724SOL    HW242947   9.227  10.455  10.924
13725SOL     OW42948  10.222  12.315  14.159
13725SOL    HW142949  10.182  12.286  14.077
13725SOL    HW242950  10.282  12.385  14.134
13726SOL     OW42951   8.388  14.608   9.353
13726SOL    HW142952   8.451  14.677   9.331
13726SOL    HW242953   8.339  14.594   9.273
13727SOL     OW42954   0.663  10.657   0.744
13727SOL    HW142955   0.634  10.681   0.832
13727SOL    HW242956   0.670  10.562   0.746
13728SOL     OW42957   3.162   5.618  11.948
13728SOL    HW142958   3.066   5.617  11.948
13728SOL    HW242959   3.185   5.624  11.855
13729SOL     OW42960   0.454   3.944  10.486
13729SOL    HW142961   0.417   4.032  10.493
13729SOL    HW242962   0.502   3.931  10.567
13730SOL     OW42963   7.148  11.491  12.714
13730SOL    HW142964   7.073  11.490  12.773
13730SOL    HW242965   7.127  11.424  12.648
13731SOL     OW42966   5.344  12.059  14.033
13731SOL    HW142967   5.339  12.119  13.959
13731SOL    HW242968   5.275  11.995  14.016
13732SOL     OW42969   2.793   4.746   3.516
13732SOL    HW142970   2.841   4.829   3.525
13732SOL    HW242971   2.738   4.742   3.594
13733SOL     OW42972   2.018   5.398   9.254
13733SOL    HW142973   1.936   5.440   9.279
13733SOL    HW242974   2.022   5.319   9.307
13734SOL     OW42975   8.663   1.434  12.615
13734SOL    HW142976   8.599   1.462  12.550
13734SOL    HW242977   8.711   1.362  12.573
13735SOL     OW42978   0.400  11.668   2.867
13735SOL    HW142979   0.343  11.620   2.927
13735SOL    HW242980   0.343  11.695   2.795
13736SOL     OW42981   8.518   3.013   6.697
13736SOL    HW142982   8.546   2.936   6.648
13736SOL    HW242983   8.472   2.977   6.773
13737SOL     OW42984   4.783  11.298   7.781
13737SOL    HW142985   4.744  11.270   7.864
13737SOL    HW242986   4.781  11.219   7.726
13738SOL     OW42987   5.804   5.388  13.631
13738SOL    HW142988   5.842   5.419  13.713
13738SOL    HW242989   5.775   5.299  13.651
13739SOL     OW42990   4.580  11.159  12.245
13739SOL    HW142991   4.633  11.238  12.250
13739SOL    HW242992   4.516  11.168  12.316
13740SOL     OW42993   7.094  14.705  10.434
13740SOL    HW142994   7.126  14.649  10.363
13740SOL    HW242995   7.130  14.666  10.514
13741SOL     OW42996  13.980   3.374   8.323
13741SOL    HW142997  13.967   3.334   8.237
13741SOL    HW242998  13.982   3.300   8.384
13742SOL     OW42999   8.588  13.304   5.112
13742SOL    HW143000   8.553  13.319   5.199
13742SOL    HW243001   8.544  13.225   5.082
13743SOL     OW43002  14.563   4.298   2.694
13743SOL    HW143003  14.560   4.272   2.602
13743SOL    HW243004  14.499   4.368   2.702
13744SOL     OW43005  14.801   2.340  11.755
13744SOL    HW143006   0.011   2.317  11.768
13744SOL    HW243007  14.799   2.436  11.764
13745SOL     OW43008  10.318   2.940   1.611
13745SOL    HW143009  10.377   2.975   1.544
13745SOL    HW243010  10.355   2.971   1.693
13746SOL     OW43011   4.725  12.946  10.127
13746SOL    HW143012   4.793  12.879  10.126
13746SOL    HW243013   4.665  12.919  10.057
13747SOL     OW43014  14.522   2.436  10.733
13747SOL    HW143015  14.564   2.491  10.667
13747SOL    HW243016  14.510   2.351  10.691
13748SOL     OW43017  13.603  14.825   8.399
13748SOL    HW143018  13.687  14.786   8.423
13748SOL    HW243019  13.539  14.781   8.455
13749SOL     OW43020   4.457  11.717   0.473
13749SOL    HW143021   4.412  11.762   0.544
13749SOL    HW243022   4.429  11.625   0.481
13750SOL     OW43023  11.433   4.042   0.553
13750SOL    HW143024  11.449   4.031   0.460
13750SOL    HW243025  11.519   4.063   0.590
13751SOL     OW43026   0.763   2.584   1.350
13751SOL    HW143027   0.783   2.637   1.428
13751SOL    HW243028   0.763   2.494   1.383
13752SOL     OW43029   9.155   0.007   9.152
13752SOL    HW143030   9.149  14.801   9.192
13752SOL    HW243031   9.170   0.066   9.226
13753SOL     OW43032  11.932  11.310   2.268
13753SOL    HW143033  11.865  11.242   2.263
13753SOL    HW243034  12.011  11.263   2.294
13754SOL     OW43035  10.627   6.392   1.230
13754SOL    HW143036  10.623   6.456   1.159
13754SOL    HW243037  10.563   6.424   1.294
13755SOL     OW43038   0.600   3.780   7.017
13755SOL    HW143039   0.657   3.808   6.945
13755SOL    HW243040   0.604   3.685   7.015
13756SOL     OW43041   1.183   4.840   6.235
13756SOL    HW143042   1.087   4.840   6.231
13756SOL    HW243043   1.211   4.820   6.146
13757SOL     OW43044  12.596   4.022  10.477
13757SOL    HW143045  12.643   4.106  10.477
13757SOL    HW243046  12.637   3.972  10.406
13758SOL     OW43047  10.898  10.532  12.748
13758SOL    HW143048  10.878  10.482  12.668
13758SOL    HW243049  10.947  10.470  12.802
13759SOL     OW43050   7.245   1.774   7.437
13759SOL    HW143051   7.154   1.793   7.461
13759SOL    HW243052   7.285   1.745   7.520
13760SOL     OW43053   4.638   6.251   2.616
13760SOL    HW143054   4.644   6.199   2.535
13760SOL    HW243055   4.593   6.193   2.678
13761SOL     OW43056   1.457   4.736   0.489
13761SOL    HW143057   1.494   4.663   0.540
13761SOL    HW243058   1.431   4.800   0.555
13762SOL     OW43059   5.553   5.776   5.463
13762SOL    HW143060   5.590   5.695   5.427
13762SOL    HW243061   5.478   5.747   5.515
13763SOL     OW43062   2.990  12.699   4.540
13763SOL    HW143063   2.976  12.756   4.616
13763SOL    HW243064   3.031  12.755   4.475
13764SOL     OW43065   5.926  14.359   0.782
13764SOL    HW143066   5.970  14.276   0.765
13764SOL    HW243067   5.834  14.335   0.795
13765SOL     OW43068   5.801   7.232   0.308
13765SOL    HW143069   5.829   7.279   0.387
13765SOL    HW243070   5.722   7.278   0.280
13766SOL     OW43071  12.943  11.064   3.921
13766SOL    HW143072  12.894  10.987   3.948
13766SOL    HW243073  12.901  11.093   3.840
13767SOL     OW43074   5.614  12.552  14.645
13767SOL    HW143075   5.594  12.459  14.650
13767SOL    HW243076   5.699  12.561  14.689
13768SOL     OW43077   7.965   0.858   1.733
13768SOL    HW143078   7.953   0.786   1.671
13768SOL    HW243079   8.038   0.909   1.698
13769SOL     OW43080   7.180   3.855  10.493
13769SOL    HW143081   7.165   3.933  10.440
13769SOL    HW243082   7.109   3.795  10.468
13770SOL     OW43083   0.412   9.873   8.758
13770SOL    HW143084   0.351   9.842   8.825
13770SOL    HW243085   0.447   9.955   8.793
13771SOL     OW43086   8.394  12.542   8.172
13771SOL    HW143087   8.345  12.604   8.227
13771SOL    HW243088   8.435  12.482   8.234
13772SOL     OW43089  11.468   3.007  12.289
13772SOL    HW143090  11.479   2.939  12.223
13772SOL    HW243091  11.464   2.960  12.372
13773SOL     OW43092   3.541   8.740  14.628
13773SOL    HW143093   3.620   8.709  14.584
13773SOL    HW243094   3.477   8.751  14.558
13774SOL     OW43095   8.147   2.272  11.277
13774SOL    HW143096   8.115   2.205  11.216
13774SOL    HW243097   8.127   2.236  11.363
13775SOL     OW43098  12.133   1.055   9.383
13775SOL    HW143099  12.207   1.113   9.369
13775SOL    HW243100  12.067   1.083   9.319
13776SOL     OW43101   8.617  10.841   8.970
13776SOL    HW143102   8.706  10.870   8.950
13776SOL    HW243103   8.565  10.869   8.895
13777SOL     OW43104   5.846   9.345   7.719
13777SOL    HW143105   5.867   9.433   7.689
13777SOL    HW243106   5.779   9.314   7.659
13778SOL     OW43107   5.720   8.513   0.118
13778SOL    HW143108   5.710   8.493   0.025
13778SOL    HW243109   5.668   8.592   0.131
13779SOL     OW43110   1.912   2.042  11.365
13779SOL    HW143111   1.894   2.008  11.278
13779SOL    HW243112   1.908   2.137  11.354
13780SOL     OW43113   3.613   7.112  10.841
13780SOL    HW143114   3.648   7.030  10.877
13780SOL    HW243115   3.520   7.094  10.828
13781SOL     OW43116  10.586  11.166  12.210
13781SOL    HW143117  10.636  11.100  12.259
13781SOL    HW243118  10.498  11.131  12.204
13782SOL     OW43119   4.995   1.732   0.167
13782SOL    HW143120   4.929   1.750   0.234
13782SOL    HW243121   4.944   1.704   0.091
13783SOL     OW43122   7.011  13.503   9.288
13783SOL    HW143123   7.097  13.491   9.328
13783SOL    HW243124   6.950  13.461   9.348
13784SOL     OW43125  10.459   1.066   2.753
13784SOL    HW143126  10.380   1.012   2.761
13784SOL    HW243127  10.464   1.087   2.660
13785SOL     OW43128   8.600  14.093  11.944
13785SOL    HW143129   8.577  14.014  11.896
13785SOL    HW243130   8.694  14.085  11.961
13786SOL     OW43131   8.184   7.397   7.466
13786SOL    HW143132   8.276   7.423   7.460
13786SOL    HW243133   8.171   7.378   7.559
13787SOL     OW43134   8.902  12.479  10.224
13787SOL    HW143135   8.981  12.429  10.243
13787SOL    HW243136   8.837  12.449  10.288
13788SOL     OW43137   8.471   3.504   8.671
13788SOL    HW143138   8.417   3.576   8.706
13788SOL    HW243139   8.516   3.542   8.596
13789SOL     OW43140  11.158  14.064   8.135
13789SOL    HW143141  11.240  14.041   8.091
13789SOL    HW243142  11.089  14.029   8.078
13790SOL     OW43143  14.759  12.303   5.021
13790SOL    HW143144  14.739  12.381   4.969
13790SOL    HW243145  14.784  12.237   4.957
13791SOL     OW43146   5.519   2.640   2.243
13791SOL    HW143147   5.457   2.607   2.179
13791SOL    HW243148   5.605   2.623   2.204
13792SOL     OW43149   3.068  13.253  12.608
13792SOL    HW143150   3.126  13.279  12.680
13792SOL    HW243151   3.086  13.316  12.539
13793SOL     OW43152   4.108   8.533   4.986
13793SOL    HW143153   4.073   8.619   4.963
13793SOL    HW243154   4.195   8.530   4.948
13794SOL     OW43155   8.329   0.384   0.885
13794SOL    HW143156   8.316   0.479   0.879
13794SOL    HW243157   8.405   0.367   0.829
13795SOL     OW43158  13.687   7.041  12.027
13795SOL    HW143159  13.779   7.063  12.011
13795SOL    HW243160  13.650   7.120  12.066
13796SOL     OW43161  10.036   6.610   2.379
13796SOL    HW143162   9.969   6.559   2.424
13796SOL    HW243163   9.995   6.695   2.364
13797SOL     OW43164   6.685   5.559  11.666
13797SOL    HW143165   6.750   5.502  11.707
13797SOL    HW243166   6.601   5.519  11.687
13798SOL     OW43167  11.885   1.000  13.663
13798SOL    HW143168  11.978   0.988  13.644
13798SOL    HW243169  11.871   0.948  13.742
13799SOL     OW43170  12.819   3.086   9.096
13799SOL    HW143171  12.755   3.107   9.164
13799SOL    HW243172  12.840   3.171   9.056
13800SOL     OW43173  12.426  13.740  12.102
13800SOL    HW143174  12.337  13.765  12.080
13800SOL    HW243175  12.464  13.817  12.144
13801SOL     OW43176   8.341  12.263   2.795
13801SOL    HW143177   8.319  12.254   2.888
13801SOL    HW243178   8.406  12.194   2.779
13802SOL     OW43179   1.827   5.689   0.622
13802SOL    HW143180   1.794   5.619   0.565
13802SOL    HW243181   1.843   5.646   0.706
13803SOL     OW43182   0.836   0.521   3.694
13803SOL    HW143183   0.798   0.567   3.768
13803SOL    HW243184   0.762   0.504   3.636
13804SOL     OW43185  12.455   2.096   3.653
13804SOL    HW143186  12.389   2.150   3.609
13804SOL    HW243187  12.537   2.141   3.635
13805SOL     OW43188   5.346   9.017   8.023
13805SOL    HW143189   5.427   8.992   7.977
13805SOL    HW243190   5.340   9.111   8.011
13806SOL     OW43191  12.474  11.818  13.938
13806SOL    HW143192  12.449  11.903  13.902
13806SOL    HW243193  12.515  11.772  13.865
13807SOL     OW43194  12.206  13.079   6.310
13807SOL    HW143195  12.150  13.108   6.382
13807SOL    HW243196  12.242  13.160   6.274
13808SOL     OW43197   5.183   1.676  14.391
13808SOL    HW143198   5.231   1.625  14.457
13808SOL    HW243199   5.241   1.749  14.370
13809SOL     OW43200  13.736   3.001   6.268
13809SOL    HW143201  13.750   3.049   6.186
13809SOL    HW243202  13.695   3.065   6.326
13810SOL     OW43203  10.568   9.438   1.439
13810SOL    HW143204  10.596   9.378   1.370
13810SOL    HW243205  10.495   9.487   1.402
13811SOL     OW43206  13.568  11.881   2.471
13811SOL    HW143207  13.519  11.859   2.392
13811SOL    HW243208  13.643  11.931   2.440
13812SOL     OW43209  14.692   7.003  14.545
13812SOL    HW143210  14.788   6.995  14.543
13812SOL    HW243211  14.664   6.974  14.458
13813SOL     OW43212  13.693   5.864   0.526
13813SOL    HW143213  13.735   5.820   0.600
13813SOL    HW243214  13.714   5.956   0.539
13814SOL     OW43215  13.607   7.697   7.041
13814SOL    HW143216  13.531   7.736   6.997
13814SOL    HW243217  13.625   7.617   6.991
13815SOL     OW43218   1.038   1.651   7.372
13815SOL    HW143219   1.034   1.557   7.391
13815SOL    HW243220   1.030   1.656   7.276
13816SOL     OW43221   3.511  10.253   3.988
13816SOL    HW143222   3.542  10.225   4.074
13816SOL    HW243223   3.583  10.233   3.929
13817SOL     OW43224   1.587  13.559   7.809
13817SOL    HW143225   1.565  13.555   7.902
13817SOL    HW243226   1.681  13.538   7.806
13818SOL     OW43227  12.724  13.885   6.103
13818SOL    HW143228  12.816  13.898   6.079
13818SOL    HW243229  12.677  13.887   6.019
13819SOL     OW43230   2.066   1.294   7.000
13819SOL    HW143231   2.013   1.243   7.062
13819SOL    HW243232   2.155   1.288   7.034
13820SOL     OW43233   8.462   0.643   2.485
13820SOL    HW143234   8.476   0.720   2.429
13820SOL    HW243235   8.452   0.570   2.424
13821SOL     OW43236  12.101  13.700  14.204
13821SOL    HW143237  12.117  13.624  14.260
13821SOL    HW243238  12.079  13.663  14.119
13822SOL     OW43239   5.299  13.237  14.120
13822SOL    HW143240   5.339  13.223  14.206
13822SOL    HW243241   5.342  13.315  14.086
13823SOL     OW43242   6.034   0.505   5.494
13823SOL    HW143243   5.993   0.539   5.414
13823SOL    HW243244   6.048   0.412   5.476
13824SOL     OW43245   6.439   6.564  11.853
13824SOL    HW143246   6.495   6.619  11.908
13824SOL    HW243247   6.461   6.588  11.763
13825SOL     OW43248   8.146   4.863   2.479
13825SOL    HW143249   8.175   4.928   2.415
13825SOL    HW243250   8.161   4.779   2.436
13826SOL     OW43251   2.948  11.521   6.644
13826SOL    HW143252   2.922  11.513   6.736
13826SOL    HW243253   2.961  11.431   6.615
13827SOL     OW43254   6.514   7.151  12.257
13827SOL    HW143255   6.561   7.144  12.174
13827SOL    HW243256   6.579   7.181  12.320
13828SOL     OW43257   8.938   9.673  10.945
13828SOL    HW143258   8.942   9.591  10.895
13828SOL    HW243259   8.913   9.646  11.033
13829SOL     OW43260   1.784   7.766   4.339
13829SOL    HW143261   1.721   7.801   4.403
13829SOL    HW243262   1.800   7.677   4.369
13830SOL     OW43263  13.128  11.636   8.358
13830SOL    HW143264  13.071  11.710   8.378
13830SOL    HW243265  13.176  11.620   8.439
13831SOL     OW43266   1.844   1.317   0.095
13831SOL    HW143267   1.880   1.242   0.047
13831SOL    HW243268   1.903   1.389   0.074
13832SOL     OW43269   6.160   0.252   8.390
13832SOL    HW143270   6.114   0.195   8.450
13832SOL    HW243271   6.102   0.262   8.315
13833SOL     OW43272   3.818  12.183  12.935
13833SOL    HW143273   3.731  12.159  12.903
13833SOL    HW243274   3.813  12.276  12.954
13834SOL     OW43275   7.512  12.275  12.432
13834SOL    HW143276   7.503  12.185  12.463
13834SOL    HW243277   7.577  12.270  12.361
13835SOL     OW43278   2.458   9.289   2.740
13835SOL    HW143279   2.409   9.228   2.685
13835SOL    HW243280   2.452   9.373   2.694
13836SOL     OW43281  11.637   0.937   1.874
13836SOL    HW143282  11.639   1.027   1.841
13836SOL    HW243283  11.564   0.897   1.827
13837SOL     OW43284   5.445   6.790   5.324
13837SOL    HW143285   5.506   6.827   5.387
13837SOL    HW243286   5.474   6.825   5.239
13838SOL     OW43287  13.276   7.085   9.912
13838SOL    HW143288  13.243   7.075   9.823
13838SOL    HW243289  13.284   7.180   9.924
13839SOL     OW43290   5.863  12.248   4.142
13839SOL    HW143291   5.891  12.215   4.056
13839SOL    HW243292   5.778  12.207   4.156
13840SOL     OW43293  12.458   0.205   2.319
13840SOL    HW143294  12.454   0.291   2.277
13840SOL    HW243295  12.551   0.184   2.322
13841SOL     OW43296  14.710  10.571   9.626
13841SOL    HW143297  14.634  10.623   9.602
13841SOL    HW243298  14.747  10.543   9.542
13842SOL     OW43299  10.659  13.203   4.946
13842SOL    HW143300  10.576  13.240   4.916
13842SOL    HW243301  10.680  13.253   5.024
13843SOL     OW43302   2.565  14.801   9.206
13843SOL    HW143303   2.504  14.737   9.168
13843SOL    HW243304   2.588  14.764   9.291
13844SOL     OW43305   7.225  12.509   7.248
13844SOL    HW143306   7.136  12.474   7.244
13844SOL    HW243307   7.275  12.441   7.293
13845SOL     OW43308   1.855  14.864  11.764
13845SOL    HW143309   1.799  14.801  11.810
13845SOL    HW243310   1.938  14.818  11.751
13846SOL     OW43311  13.839   3.331   7.700
13846SOL    HW143312  13.871   3.393   7.634
13846SOL    HW243313  13.757   3.369   7.731
13847SOL     OW43314   5.347  12.129   3.222
13847SOL    HW143315   5.318  12.202   3.168
13847SOL    HW243316   5.418  12.165   3.275
13848SOL     OW43317   5.720   5.477  11.569
13848SOL    HW143318   5.672   5.431  11.500
13848SOL    HW243319   5.715   5.418  11.645
13849SOL     OW43320  13.576   1.854  10.374
13849SOL    HW143321  13.557   1.941  10.340
13849SOL    HW243322  13.597   1.868  10.466
13850SOL     OW43323   8.515   8.251  11.523
13850SOL    HW143324   8.501   8.250  11.429
13850SOL    HW243325   8.610   8.256  11.534
13851SOL     OW43326   4.741   0.860   1.867
13851SOL    HW143327   4.808   0.865   1.798
13851SOL    HW243328   4.686   0.786   1.841
13852SOL     OW43329  10.772   7.355  10.259
13852SOL    HW143330  10.759   7.379  10.167
13852SOL    HW243331  10.755   7.437  10.307
13853SOL     OW43332  12.502  12.329   3.997
13853SOL    HW143333  12.420  12.282   3.979
13853SOL    HW243334  12.562  12.261   4.029
13854SOL     OW43335   6.985   5.838   1.713
13854SOL    HW143336   7.067   5.801   1.746
13854SOL    HW243337   7.012   5.907   1.652
13855SOL     OW43338   8.878   3.716   6.004
13855SOL    HW143339   8.790   3.725   6.042
13855SOL    HW243340   8.905   3.627   6.027
13856SOL     OW43341  14.005  14.126  11.050
13856SOL    HW143342  14.042  14.096  10.967
13856SOL    HW243343  14.078  14.166  11.096
13857SOL     OW43344   0.935  11.742   7.085
13857SOL    HW143345   0.936  11.715   7.177
13857SOL    HW243346   1.007  11.805   7.078
13858SOL     OW43347  11.990  10.760  13.659
13858SOL    HW143348  11.936  10.719  13.727
13858SOL    HW243349  12.037  10.686  13.618
13859SOL     OW43350   6.075   8.211   6.728
13859SOL    HW143351   6.098   8.121   6.708
13859SOL    HW243352   6.017   8.238   6.657
13860SOL     OW43353   4.459  12.464  11.509
13860SOL    HW143354   4.369  12.488  11.488
13860SOL    HW243355   4.479  12.391  11.450
13861SOL     OW43356  14.521   3.784   3.673
13861SOL    HW143357  14.470   3.804   3.594
13861SOL    HW243358  14.541   3.870   3.710
13862SOL     OW43359   3.995   8.697  13.852
13862SOL    HW143360   4.003   8.791  13.866
13862SOL    HW243361   3.903   8.678  13.873
13863SOL     OW43362   7.896  14.723   9.945
13863SOL    HW143363   7.866  14.652   9.889
13863SOL    HW243364   7.910  14.797   9.886
13864SOL     OW43365   3.556  14.716  14.086
13864SOL    HW143366   3.464  14.701  14.063
13864SOL    HW243367   3.556  14.799  14.134
13865SOL     OW43368   7.107  13.820   2.621
13865SOL    HW143369   7.119  13.728   2.645
13865SOL    HW243370   7.081  13.863   2.703
13866SOL     OW43371   9.971   5.841   6.408
13866SOL    HW143372   9.899   5.896   6.441
13866SOL    HW243373   9.949   5.753   6.438
13867SOL     OW43374  10.309   7.779   0.360
13867SOL    HW143375  10.358   7.849   0.318
13867SOL    HW243376  10.358   7.699   0.339
13868SOL     OW43377  10.710   2.654   7.809
13868SOL    HW143378  10.662   2.628   7.888
13868SOL    HW243379  10.644   2.650   7.739
13869SOL     OW43380   5.911  14.446   6.216
13869SOL    HW143381   5.959  14.381   6.164
13869SOL    HW243382   5.860  14.495   6.152
13870SOL     OW43383  11.837   9.697  12.026
13870SOL    HW143384  11.760   9.750  12.047
13870SOL    HW243385  11.876   9.741  11.951
13871SOL     OW43386  13.286   5.498   7.509
13871SOL    HW143387  13.314   5.570   7.566
13871SOL    HW243388  13.283   5.536   7.422
13872SOL     OW43389   8.786   4.569   8.528
13872SOL    HW143390   8.701   4.612   8.525
13872SOL    HW243391   8.818   4.573   8.438
13873SOL     OW43392   5.208  10.616  14.034
13873SOL    HW143393   5.235  10.562  13.960
13873SOL    HW243394   5.237  10.704  14.012
13874SOL     OW43395   8.493   8.764  13.386
13874SOL    HW143396   8.459   8.758  13.296
13874SOL    HW243397   8.522   8.676  13.407
13875SOL     OW43398   9.289  13.302   7.894
13875SOL    HW143399   9.328  13.317   7.808
13875SOL    HW243400   9.314  13.379   7.945
13876SOL     OW43401  13.337   4.596   8.101
13876SOL    HW143402  13.286   4.579   8.021
13876SOL    HW243403  13.317   4.521   8.158
13877SOL     OW43404  14.192   8.778  12.829
13877SOL    HW143405  14.111   8.814  12.793
13877SOL    HW243406  14.207   8.697  12.780
13878SOL     OW43407   2.025   0.630  13.343
13878SOL    HW143408   2.099   0.659  13.290
13878SOL    HW243409   1.958   0.698  13.330
13879SOL     OW43410   0.511   5.529   1.125
13879SOL    HW143411   0.440   5.536   1.062
13879SOL    HW243412   0.552   5.615   1.126
13880SOL     OW43413  14.191   2.695  11.682
13880SOL    HW143414  14.143   2.718  11.603
13880SOL    HW243415  14.123   2.674  11.746
13881SOL     OW43416  11.408   3.165   1.203
13881SOL    HW143417  11.359   3.090   1.238
13881SOL    HW243418  11.489   3.127   1.169
13882SOL     OW43419   6.118   7.101   1.065
13882SOL    HW143420   6.204   7.061   1.050
13882SOL    HW243421   6.111   7.167   0.996
13883SOL     OW43422   0.597   3.523   0.111
13883SOL    HW143423   0.595   3.615   0.134
13883SOL    HW243424   0.597   3.477   0.195
13884SOL     OW43425   7.859  13.370  14.076
13884SOL    HW143426   7.878  13.464  14.073
13884SOL    HW243427   7.879  13.339  13.987
13885SOL     OW43428   8.649   6.985   8.533
13885SOL    HW143429   8.600   6.999   8.614
13885SOL    HW243430   8.626   7.060   8.478
13886SOL     OW43431  11.650   6.053  13.076
13886SOL    HW143432  11.641   5.980  13.137
13886SOL    HW243433  11.741   6.082  13.086
13887SOL     OW43434  13.207  11.069   8.524
13887SOL    HW143435  13.198  11.093   8.431
13887SOL    HW243436  13.127  11.020   8.543
13888SOL     OW43437   5.506  11.780   7.978
13888SOL    HW143438   5.531  11.756   7.889
13888SOL    HW243439   5.567  11.730   8.034
13889SOL     OW43440   9.636   1.522   9.684
13889SOL    HW143441   9.574   1.595   9.692
13889SOL    HW243442   9.675   1.534   9.598
13890SOL     OW43443  11.013  10.154  10.226
13890SOL    HW143444  10.938  10.204  10.258
13890SOL    HW243445  10.999  10.066  10.261
13891SOL     OW43446  10.783   6.082  10.107
13891SOL    HW143447  10.796   5.993  10.140
13891SOL    HW243448  10.720   6.073  10.036
13892SOL     OW43449  11.320   7.535   7.882
13892SOL    HW143450  11.259   7.564   7.949
13892SOL    HW243451  11.267   7.483   7.821
13893SOL     OW43452   4.930   5.868  14.582
13893SOL    HW143453   4.986   5.901  14.512
13893SOL    HW243454   4.844   5.860  14.543
13894SOL     OW43455   7.590  10.216  10.372
13894SOL    HW143456   7.639  10.297  10.384
13894SOL    HW243457   7.636  10.151  10.424
13895SOL     OW43458   4.554  13.540  12.207
13895SOL    HW143459   4.518  13.485  12.138
13895SOL    HW243460   4.526  13.498  12.288
13896SOL     OW43461   8.545   8.141   5.429
13896SOL    HW143462   8.475   8.197   5.397
13896SOL    HW243463   8.519   8.052   5.404
13897SOL     OW43464   1.724  10.762   7.882
13897SOL    HW143465   1.762  10.839   7.924
13897SOL    HW243466   1.642  10.794   7.843
13898SOL     OW43467  10.516  11.809  10.938
13898SOL    HW143468  10.598  11.769  10.968
13898SOL    HW243469  10.516  11.896  10.979
13899SOL     OW43470   7.025   6.702   3.905
13899SOL    HW143471   7.043   6.698   3.999
13899SOL    HW243472   7.111   6.705   3.865
13900SOL     OW43473   5.515  14.345   6.733
13900SOL    HW143474   5.477  14.433   6.733
13900SOL    HW243475   5.609  14.359   6.746
13901SOL     OW43476   7.278  14.283   1.399
13901SOL    HW143477   7.301  14.331   1.478
13901SOL    HW243478   7.350  14.300   1.338
13902SOL     OW43479   5.720   4.919   1.199
13902SOL    HW143480   5.814   4.910   1.181
13902SOL    HW243481   5.694   4.999   1.152
13903SOL     OW43482   5.897   2.824   0.617
13903SOL    HW143483   5.815   2.813   0.664
13903SOL    HW243484   5.944   2.892   0.665
13904SOL     OW43485   8.300  10.169   9.048
13904SOL    HW143486   8.284  10.248   9.100
13904SOL    HW243487   8.393  10.151   9.060
13905SOL     OW43488  12.962   3.118   7.638
13905SOL    HW143489  13.014   3.169   7.576
13905SOL    HW243490  12.970   3.027   7.607
13906SOL     OW43491   3.898   6.552  13.099
13906SOL    HW143492   3.932   6.554  13.189
13906SOL    HW243493   3.976   6.546  13.044
13907SOL     OW43494  13.020  14.436  12.501
13907SOL    HW143495  12.979  14.394  12.577
13907SOL    HW243496  13.007  14.375  12.429
13908SOL     OW43497   7.965  10.486  13.227
13908SOL    HW143498   7.997  10.561  13.279
13908SOL    HW243499   7.917  10.433  13.290
13909SOL     OW43500   6.074   3.686  13.365
13909SOL    HW143501   6.088   3.659  13.456
13909SOL    HW243502   6.027   3.769  13.372
13910SOL     OW43503   7.114  11.316  12.525
13910SOL    HW143504   7.148  11.340  12.439
13910SOL    HW243505   7.160  11.236  12.549
13911SOL     OW43506   5.831   8.582   0.919
13911SOL    HW143507   5.874   8.653   0.966
13911SOL    HW243508   5.831   8.509   0.981
13912SOL     OW43509   8.457   0.178   1.877
13912SOL    HW143510   8.403   0.160   1.800
13912SOL    HW243511   8.396   0.214   1.941
13913SOL     OW43512  12.720   7.780  11.380
13913SOL    HW143513  12.691   7.710  11.438
13913SOL    HW243514  12.780   7.832  11.432
13914SOL     OW43515  14.008   1.492   9.745
13914SOL    HW143516  14.022   1.411   9.794
13914SOL    HW243517  13.915   1.513   9.759
13915SOL     OW43518   8.485   5.948   3.750
13915SOL    HW143519   8.454   5.864   3.784
13915SOL    HW243520   8.556   5.926   3.691
13916SOL     OW43521   9.838  13.419   3.386
13916SOL    HW143522   9.920  13.378   3.359
13916SOL    HW243523   9.800  13.358   3.449
13917SOL     OW43524  12.968   3.347  13.498
13917SOL    HW143525  12.951   3.354  13.404
13917SOL    HW243526  13.056   3.384  13.509
13918SOL     OW43527   2.643  14.095   7.127
13918SOL    HW143528   2.606  14.160   7.186
13918SOL    HW243529   2.678  14.146   7.054
13919SOL     OW43530   4.102   3.599   1.730
13919SOL    HW143531   4.112   3.694   1.725
13919SOL    HW243532   4.035   3.579   1.665
13920SOL     OW43533  10.927   5.073  12.470
13920SOL    HW143534  10.968   5.155  12.442
13920SOL    HW243535  10.925   5.079  12.566
13921SOL     OW43536   1.420   7.135   0.235
13921SOL    HW143537   1.465   7.210   0.197
13921SOL    HW243538   1.466   7.059   0.198
13922SOL     OW43539  11.773   5.896   9.158
13922SOL    HW143540  11.704   5.830   9.155
13922SOL    HW243541  11.782   5.924   9.067
13923SOL     OW43542  12.458   6.160   4.167
13923SOL    HW143543  12.550   6.157   4.143
13923SOL    HW243544  12.443   6.079   4.215
13924SOL     OW43545  14.358  13.931   9.755
13924SOL    HW143546  14.418  13.973   9.817
13924SOL    HW243547  14.342  13.844   9.791
13925SOL     OW43548   6.333  13.972  14.360
13925SOL    HW143549   6.357  13.884  14.330
13925SOL    HW243550   6.238  13.976  14.349
13926SOL     OW43551  14.403   2.115  11.002
13926SOL    HW143552  14.386   2.206  10.980
13926SOL    HW243553  14.384   2.109  11.096
13927SOL     OW43554   3.864  13.916  10.963
13927SOL    HW143555   3.796  13.959  10.912
13927SOL    HW243556   3.906  13.855  10.901
13928SOL     OW43557   9.606   4.429   6.415
13928SOL    HW143558   9.604   4.336   6.436
13928SOL    HW243559   9.596   4.433   6.320
13929SOL     OW43560   0.491   6.823   5.041
13929SOL    HW143561   0.487   6.864   4.954
13929SOL    HW243562   0.585   6.818   5.060
13930SOL     OW43563   2.043   3.721   8.744
13930SOL    HW143564   1.958   3.713   8.700
13930SOL    HW243565   2.022   3.738   8.835
13931SOL     OW43566   3.660   7.785   8.928
13931SOL    HW143567   3.635   7.877   8.935
13931SOL    HW243568   3.756   7.786   8.933
13932SOL     OW43569  13.299  10.242   3.144
13932SOL    HW143570  13.242  10.167   3.163
13932SOL    HW243571  13.340  10.261   3.228
13933SOL     OW43572   5.830   9.648  14.593
13933SOL    HW143573   5.909   9.637  14.539
13933SOL    HW243574   5.767   9.691  14.535
13934SOL     OW43575  14.431   4.078   5.284
13934SOL    HW143576  14.347   4.033   5.276
13934SOL    HW243577  14.465   4.050   5.369
13935SOL     OW43578   0.441  10.455  12.261
13935SOL    HW143579   0.414  10.465  12.170
13935SOL    HW243580   0.532  10.487  12.262
13936SOL     OW43581  13.224   8.989  13.221
13936SOL    HW143582  13.258   8.910  13.178
13936SOL    HW243583  13.231   9.057  13.155
13937SOL     OW43584   1.970   7.734   2.613
13937SOL    HW143585   1.953   7.691   2.529
13937SOL    HW243586   1.937   7.823   2.601
13938SOL     OW43587   2.533  13.453   4.788
13938SOL    HW143588   2.466  13.403   4.742
13938SOL    HW243589   2.615  13.424   4.748
13939SOL     OW43590   7.368   8.711   3.886
13939SOL    HW143591   7.314   8.759   3.950
13939SOL    HW243592   7.309   8.694   3.813
13940SOL     OW43593  12.483  13.106   2.379
13940SOL    HW143594  12.391  13.111   2.407
13940SOL    HW243595  12.481  13.046   2.304
13941SOL     OW43596  11.420   2.402   3.254
13941SOL    HW143597  11.509   2.395   3.219
13941SOL    HW243598  11.366   2.421   3.177
13942SOL     OW43599  13.237  12.185   8.082
13942SOL    HW143600  13.235  12.254   8.014
13942SOL    HW243601  13.209  12.106   8.036
13943SOL     OW43602   2.864   9.421   6.155
13943SOL    HW143603   2.858   9.379   6.069
13943SOL    HW243604   2.921   9.497   6.141
13944SOL     OW43605   5.242   1.276   0.897
13944SOL    HW143606   5.227   1.228   0.815
13944SOL    HW243607   5.313   1.229   0.940
13945SOL     OW43608  10.820   1.470  12.837
13945SOL    HW143609  10.870   1.546  12.866
13945SOL    HW243610  10.788   1.494  12.750
13946SOL     OW43611   6.150   8.389   1.655
13946SOL    HW143612   6.208   8.464   1.646
13946SOL    HW243613   6.122   8.369   1.566
13947SOL     OW43614  11.988   2.158   5.069
13947SOL    HW143615  12.066   2.173   5.015
13947SOL    HW243616  11.939   2.240   5.063
13948SOL     OW43617  11.051  11.300   0.461
13948SOL    HW143618  11.041  11.376   0.518
13948SOL    HW243619  11.123  11.250   0.499
13949SOL     OW43620   0.322   9.952  12.619
13949SOL    HW143621   0.397   9.922  12.670
13949SOL    HW243622   0.350  10.036  12.582
13950SOL     OW43623  13.881   0.945  12.400
13950SOL    HW143624  13.793   0.911  12.387
13950SOL    HW243625  13.904   0.986  12.317
13951SOL     OW43626   0.100   4.826   3.037
13951SOL    HW143627   0.103   4.754   2.974
13951SOL    HW243628   0.112   4.784   3.122
13952SOL     OW43629  11.279  12.188   2.857
13952SOL    HW143630  11.334  12.111   2.842
13952SOL    HW243631  11.269  12.194   2.952
13953SOL     OW43632   6.669   7.302   6.087
13953SOL    HW143633   6.740   7.366   6.084
13953SOL    HW243634   6.713   7.217   6.096
13954SOL     OW43635  13.163   4.875   4.623
13954SOL    HW143636  13.232   4.852   4.685
13954SOL    HW243637  13.100   4.925   4.675
13955SOL     OW43638   2.686   3.205   1.682
13955SOL    HW143639   2.774   3.226   1.650
13955SOL    HW243640   2.658   3.131   1.629
13956SOL     OW43641  14.224   5.507   9.785
13956SOL    HW143642  14.200   5.451   9.711
13956SOL    HW243643  14.222   5.596   9.751
13957SOL     OW43644  10.503   1.315   5.175
13957SOL    HW143645  10.477   1.399   5.212
13957SOL    HW243646  10.450   1.307   5.095
13958SOL     OW43647   0.707  12.101   8.509
13958SOL    HW143648   0.692  12.174   8.568
13958SOL    HW243649   0.800  12.083   8.515
13959SOL     OW43650   3.135  10.345  13.634
13959SOL    HW143651   3.129  10.387  13.548
13959SOL    HW243652   3.146  10.252  13.614
13960SOL     OW43653   3.497   6.916   9.865
13960SOL    HW143654   3.577   6.869   9.843
13960SOL    HW243655   3.498   6.994   9.810
13961SOL     OW43656   0.145  12.240   7.672
13961SOL    HW143657   0.174  12.232   7.763
13961SOL    HW243658   0.101  12.158   7.654
13962SOL     OW43659  11.583  11.306   7.507
13962SOL    HW143660  11.488  11.310   7.519
13962SOL    HW243661  11.619  11.311   7.595
13963SOL     OW43662   1.683   2.186   4.337
13963SOL    HW143663   1.653   2.095   4.336
13963SOL    HW243664   1.616   2.234   4.287
13964SOL     OW43665  10.033   9.418   9.465
13964SOL    HW143666  10.110   9.418   9.522
13964SOL    HW243667  10.056   9.477   9.394
13965SOL     OW43668  12.567  11.799  10.524
13965SOL    HW143669  12.569  11.734  10.594
13965SOL    HW243670  12.601  11.879  10.565
13966SOL     OW43671  11.690  13.335   1.471
13966SOL    HW143672  11.702  13.369   1.560
13966SOL    HW243673  11.779  13.326   1.437
13967SOL     OW43674  14.440   1.901   9.040
13967SOL    HW143675  14.418   1.954   9.117
13967SOL    HW243676  14.366   1.841   9.030
13968SOL     OW43677  14.335   2.562   5.116
13968SOL    HW143678  14.250   2.599   5.140
13968SOL    HW243679  14.319   2.520   5.031
13969SOL     OW43680   1.973   9.206  12.807
13969SOL    HW143681   1.943   9.295  12.824
13969SOL    HW243682   2.064   9.216  12.778
13970SOL     OW43683   0.457   3.116   5.984
13970SOL    HW143684   0.472   3.031   6.026
13970SOL    HW243685   0.366   3.136   6.002
13971SOL     OW43686   5.650   2.370  14.630
13971SOL    HW143687   5.698   2.376  14.712
13971SOL    HW243688   5.638   2.276  14.616
13972SOL     OW43689   3.946   3.463   6.200
13972SOL    HW143690   3.886   3.401   6.241
13972SOL    HW243691   4.026   3.457   6.252
13973SOL     OW43692   2.594  14.160   8.340
13973SOL    HW143693   2.637  14.114   8.412
13973SOL    HW243694   2.502  14.166   8.366
13974SOL     OW43695  10.589   2.562   1.701
13974SOL    HW143696  10.619   2.474   1.679
13974SOL    HW243697  10.501   2.568   1.663
13975SOL     OW43698   9.263   1.154  14.522
13975SOL    HW143699   9.169   1.154  14.502
13975SOL    HW243700   9.272   1.090  14.593
13976SOL     OW43701   7.283   3.261  14.655
13976SOL    HW143702   7.314   3.262  14.564
13976SOL    HW243703   7.362   3.271  14.707
13977SOL     OW43704   9.667  14.490   3.773
13977SOL    HW143705   9.620  14.520   3.695
13977SOL    HW243706   9.756  14.522   3.761
13978SOL     OW43707   4.078  13.951   6.559
13978SOL    HW143708   4.059  13.944   6.466
13978SOL    HW243709   4.077  13.860   6.591
13979SOL     OW43710  12.930   9.256   6.283
13979SOL    HW143711  12.862   9.275   6.348
13979SOL    HW243712  12.897   9.297   6.202
13980SOL     OW43713  10.134   6.739   5.646
13980SOL    HW143714  10.073   6.813   5.656
13980SOL    HW243715  10.176   6.731   5.731
13981SOL     OW43716   5.985  11.094  13.940
13981SOL    HW143717   6.054  11.160  13.926
13981SOL    HW243718   6.033  11.014  13.961
13982SOL     OW43719  11.755   6.510  13.654
13982SOL    HW143720  11.663   6.493  13.675
13982SOL    HW243721  11.752   6.572  13.581
13983SOL     OW43722   5.852   7.575   4.846
13983SOL    HW143723   5.929   7.558   4.901
13983SOL    HW243724   5.815   7.656   4.880
13984SOL     OW43725   5.281  12.664  13.901
13984SOL    HW143726   5.305  12.618  13.981
13984SOL    HW243727   5.219  12.731  13.930
13985SOL     OW43728  12.837   7.456  12.280
13985SOL    HW143729  12.806   7.383  12.333
13985SOL    HW243730  12.791   7.447  12.196
13986SOL     OW43731  13.858   9.749   9.809
13986SOL    HW143732  13.785   9.778   9.864
13986SOL    HW243733  13.889   9.669   9.850
13987SOL     OW43734  12.612   2.893   8.596
13987SOL    HW143735  12.577   2.809   8.568
13987SOL    HW243736  12.652   2.930   8.517
13988SOL     OW43737   9.742  10.887   4.593
13988SOL    HW143738   9.662  10.886   4.541
13988SOL    HW243739   9.788  10.966   4.564
13989SOL     OW43740  10.382  12.476  13.035
13989SOL    HW143741  10.455  12.538  13.026
13989SOL    HW243742  10.308  12.530  13.063
13990SOL     OW43743   8.511  10.626   4.533
13990SOL    HW143744   8.436  10.574   4.559
13990SOL    HW243745   8.538  10.589   4.449
13991SOL     OW43746   5.557  10.340  13.642
13991SOL    HW143747   5.536  10.427  13.610
13991SOL    HW243748   5.487  10.284  13.608
13992SOL     OW43749   4.635  10.373   1.654
13992SOL    HW143750   4.683  10.376   1.572
13992SOL    HW243751   4.558  10.318   1.635
13993SOL     OW43752  10.667   7.453  12.107
13993SOL    HW143753  10.608   7.512  12.060
13993SOL    HW243754  10.733   7.510  12.146
13994SOL     OW43755   6.074   8.034  14.758
13994SOL    HW143756   6.040   7.947  14.738
13994SOL    HW243757   6.148   8.045  14.698
13995SOL     OW43758   6.569   0.418   2.940
13995SOL    HW143759   6.510   0.345   2.923
13995SOL    HW243760   6.630   0.417   2.866
13996SOL     OW43761   1.398   4.438  10.424
13996SOL    HW143762   1.378   4.362  10.479
13996SOL    HW243763   1.332   4.503  10.448
13997SOL     OW43764   0.691   0.325   5.713
13997SOL    HW143765   0.603   0.342   5.681
13997SOL    HW243766   0.748   0.361   5.645
13998SOL     OW43767   6.845  14.734   3.234
13998SOL    HW143768   6.928  14.697   3.265
13998SOL    HW243769   6.867  14.823   3.208
13999SOL     OW43770  13.078   6.238  14.322
13999SOL    HW143771  13.029   6.197  14.251
13999SOL    HW243772  13.116   6.165  14.370
14000SOL     OW43773   8.162   8.113  13.201
14000SOL    HW143774   8.109   8.191  13.186
14000SOL    HW243775   8.157   8.098  13.295
14001SOL     OW43776   7.952   9.781   3.856
14001SOL    HW143777   7.923   9.741   3.774
14001SOL    HW243778   8.047   9.790   3.846
14002SOL     OW43779  10.784  13.647   7.275
14002SOL    HW143780  10.767  13.553   7.265
14002SOL    HW243781  10.699  13.688   7.259
14003SOL     OW43782   9.370   7.003  14.612
14003SOL    HW143783   9.338   7.061  14.681
14003SOL    HW243784   9.446   7.049  14.575
14004SOL     OW43785  11.443  11.473   7.846
14004SOL    HW143786  11.385  11.501   7.776
14004SOL    HW243787  11.412  11.385   7.868
14005SOL     OW43788   8.718   7.455   9.567
14005SOL    HW143789   8.709   7.523   9.633
14005SOL    HW243790   8.628   7.429   9.546
14006SOL     OW43791   6.284  14.460   6.096
14006SOL    HW143792   6.232  14.537   6.118
14006SOL    HW243793   6.370  14.476   6.135
14007SOL     OW43794   6.903   8.772   3.047
14007SOL    HW143795   6.934   8.856   3.081
14007SOL    HW243796   6.838   8.795   2.981
14008SOL     OW43797   9.377  14.486   7.607
14008SOL    HW143798   9.456  14.515   7.560
14008SOL    HW243799   9.390  14.519   7.696
14009SOL     OW43800   8.595   8.498  10.748
14009SOL    HW143801   8.645   8.426  10.785
14009SOL    HW243802   8.504   8.469  10.749
14010SOL     OW43803   5.680   9.771  10.638
14010SOL    HW143804   5.762   9.734  10.605
14010SOL    HW243805   5.633   9.697  10.675
14011SOL     OW43806   0.588   2.734  11.436
14011SOL    HW143807   0.522   2.723  11.505
14011SOL    HW243808   0.588   2.828  11.418
14012SOL     OW43809   8.369   7.643   9.196
14012SOL    HW143810   8.334   7.566   9.242
14012SOL    HW243811   8.462   7.642   9.216
14013SOL     OW43812  13.019  13.889   0.278
14013SOL    HW143813  13.062  13.840   0.349
14013SOL    HW243814  12.939  13.922   0.316
14014SOL     OW43815   7.950   7.423   7.215
14014SOL    HW143816   7.889   7.461   7.152
14014SOL    HW243817   7.918   7.333   7.226
14015SOL     OW43818   9.532  11.812   4.360
14015SOL    HW143819   9.619  11.802   4.322
14015SOL    HW243820   9.472  11.801   4.286
14016SOL     OW43821  13.371   6.626   4.513
14016SOL    HW143822  13.419   6.706   4.491
14016SOL    HW243823  13.302   6.621   4.447
14017SOL     OW43824   2.641   7.580   5.402
14017SOL    HW143825   2.682   7.566   5.487
14017SOL    HW243826   2.715   7.586   5.341
14018SOL     OW43827   2.391   0.731   2.064
14018SOL    HW143828   2.361   0.816   2.096
14018SOL    HW243829   2.428   0.751   1.977
14019SOL     OW43830   2.818   2.872  12.348
14019SOL    HW143831   2.854   2.879  12.437
14019SOL    HW243832   2.775   2.787  12.346
14020SOL     OW43833   6.743  11.811  11.198
14020SOL    HW143834   6.723  11.730  11.245
14020SOL    HW243835   6.677  11.874  11.229
14021SOL     OW43836   6.621   6.690  13.420
14021SOL    HW143837   6.693   6.663  13.477
14021SOL    HW243838   6.654   6.768  13.375
14022SOL     OW43839   0.876   5.463   4.404
14022SOL    HW143840   0.838   5.376   4.389
14022SOL    HW243841   0.835   5.519   4.338
14023SOL     OW43842   5.255   0.363  10.455
14023SOL    HW143843   5.296   0.441  10.418
14023SOL    HW243844   5.328   0.307  10.480
14024SOL     OW43845  13.469  13.625   5.503
14024SOL    HW143846  13.474  13.533   5.477
14024SOL    HW243847  13.382  13.635   5.541
14025SOL     OW43848   2.577   7.319   4.202
14025SOL    HW143849   2.492   7.362   4.205
14025SOL    HW243850   2.634   7.376   4.254
14026SOL     OW43851  13.223  10.038   7.947
14026SOL    HW143852  13.198   9.997   8.030
14026SOL    HW243853  13.152  10.099   7.928
14027SOL     OW43854   3.126  12.514   9.776
14027SOL    HW143855   3.220  12.533   9.768
14027SOL    HW243856   3.098  12.563   9.853
14028SOL     OW43857  12.183   8.889   1.999
14028SOL    HW143858  12.238   8.837   1.941
14028SOL    HW243859  12.129   8.942   1.941
14029SOL     OW43860  11.468   8.697   0.963
14029SOL    HW143861  11.485   8.673   1.054
14029SOL    HW243862  11.477   8.793   0.961
14030SOL     OW43863   9.573   1.169  11.318
14030SOL    HW143864   9.586   1.238  11.254
14030SOL    HW243865   9.661   1.143  11.345
14031SOL     OW43866  12.448   0.375   8.865
14031SOL    HW143867  12.391   0.390   8.940
14031SOL    HW243868  12.481   0.463   8.842
14032SOL     OW43869   7.120  14.353  14.174
14032SOL    HW143870   7.208  14.382  14.150
14032SOL    HW243871   7.116  14.363  14.269
14033SOL     OW43872   2.199   7.070   8.080
14033SOL    HW143873   2.270   7.046   8.022
14033SOL    HW243874   2.140   6.995   8.079
14034SOL     OW43875  11.081   4.792  13.140
14034SOL    HW143876  11.111   4.857  13.077
14034SOL    HW243877  11.077   4.840  13.223
14035SOL     OW43878   0.890   4.136   9.189
14035SOL    HW143879   0.957   4.186   9.236
14035SOL    HW243880   0.892   4.171   9.100
14036SOL     OW43881   9.363   9.732   9.434
14036SOL    HW143882   9.296   9.800   9.440
14036SOL    HW243883   9.378   9.705   9.524
14037SOL     OW43884  12.788   0.983  11.573
14037SOL    HW143885  12.858   1.048  11.580
14037SOL    HW243886  12.830   0.907  11.533
14038SOL     OW43887   2.601  14.689   3.578
14038SOL    HW143888   2.651  14.739   3.643
14038SOL    HW243889   2.618  14.597   3.599
14039SOL     OW43890  10.345   7.905   8.545
14039SOL    HW143891  10.302   7.846   8.484
14039SOL    HW243892  10.398   7.849   8.602
14040SOL     OW43893   8.508  11.104   8.326
14040SOL    HW143894   8.567  11.122   8.399
14040SOL    HW243895   8.559  11.049   8.266
14041SOL     OW43896  13.316   2.792  10.607
14041SOL    HW143897  13.375   2.835  10.669
14041SOL    HW243898  13.358   2.806  10.522
14042SOL     OW43899   4.714  11.197   4.950
14042SOL    HW143900   4.660  11.191   5.028
14042SOL    HW243901   4.804  11.206   4.983
14043SOL     OW43902   1.183   7.102  14.713
14043SOL    HW143903   1.267   7.069  14.745
14043SOL    HW243904   1.187   7.093  14.618
14044SOL     OW43905   6.354  14.407   2.755
14044SOL    HW143906   6.346  14.360   2.672
14044SOL    HW243907   6.271  14.390   2.799
14045SOL     OW43908   2.417   2.650   2.042
14045SOL    HW143909   2.481   2.721   2.053
14045SOL    HW243910   2.423   2.627   1.949
14046SOL     OW43911   6.808   8.221   4.929
14046SOL    HW143912   6.825   8.295   4.987
14046SOL    HW243913   6.761   8.259   4.854
14047SOL     OW43914  10.533   9.668  13.861
14047SOL    HW143915  10.543   9.577  13.831
14047SOL    HW243916  10.623   9.699  13.871
14048SOL     OW43917   5.728   3.539  14.190
14048SOL    HW143918   5.653   3.590  14.159
14048SOL    HW243919   5.743   3.570  14.279
14049SOL     OW43920   0.130   3.652   7.960
14049SOL    HW143921   0.064   3.719   7.982
14049SOL    HW243922   0.080   3.583   7.917
14050SOL     OW43923   8.517   5.137  12.826
14050SOL    HW143924   8.582   5.108  12.763
14050SOL    HW243925   8.550   5.221  12.858
14051SOL     OW43926  11.118   8.722   4.629
14051SOL    HW143927  11.130   8.648   4.688
14051SOL    HW243928  11.027   8.716   4.601
14052SOL     OW43929   1.796   0.236  11.748
14052SOL    HW143930   1.814   0.142  11.744
14052SOL    HW243931   1.709   0.245  11.710
14053SOL     OW43932  14.004   2.226  14.009
14053SOL    HW143933  13.960   2.142  14.018
14053SOL    HW243934  13.938   2.290  14.038
14054SOL     OW43935   8.560   4.349   4.429
14054SOL    HW143936   8.535   4.429   4.475
14054SOL    HW243937   8.651   4.333   4.454
14055SOL     OW43938  12.947   0.457   9.945
14055SOL    HW143939  12.921   0.535   9.994
14055SOL    HW243940  13.039   0.444   9.969
14056SOL     OW43941  13.150  10.171   1.477
14056SOL    HW143942  13.239  10.206   1.478
14056SOL    HW243943  13.095  10.245   1.452
14057SOL     OW43944   9.768  11.618  12.598
14057SOL    HW143945   9.798  11.658  12.517
14057SOL    HW243946   9.744  11.528  12.574
14058SOL     OW43947  10.742   0.166   4.589
14058SOL    HW143948  10.678   0.236   4.602
14058SOL    HW243949  10.818   0.193   4.640
14059SOL     OW43950  13.087  12.590   3.164
14059SOL    HW143951  13.164  12.541   3.195
14059SOL    HW243952  13.044  12.620   3.244
14060SOL     OW43953  11.728   2.782   4.889
14060SOL    HW143954  11.674   2.815   4.960
14060SOL    HW243955  11.680   2.707   4.854
14061SOL     OW43956   4.042   2.301   5.029
14061SOL    HW143957   3.960   2.299   4.980
14061SOL    HW243958   4.104   2.346   4.971
14062SOL     OW43959   2.202   7.772   0.156
14062SOL    HW143960   2.242   7.839   0.211
14062SOL    HW243961   2.249   7.778   0.073
14063SOL     OW43962   7.676  14.878   2.638
14063SOL    HW143963   7.693   0.085   2.672
14063SOL    HW243964   7.695  14.820   2.711
14064SOL     OW43965  14.440  11.884   2.215
14064SOL    HW143966  14.353  11.904   2.180
14064SOL    HW243967  14.447  11.789   2.208
14065SOL     OW43968   0.247   1.954  14.522
14065SOL    HW143969   0.249   2.013  14.446
14065SOL    HW243970   0.155   1.929  14.531
14066SOL     OW43971   0.403   9.163   6.188
14066SOL    HW143972   0.384   9.237   6.131
14066SOL    HW243973   0.488   9.184   6.226
14067SOL     OW43974  12.355  12.315   7.008
14067SOL    HW143975  12.443  12.304   7.045
14067SOL    HW243976  12.297  12.274   7.072
14068SOL     OW43977   2.966   1.275   6.618
14068SOL    HW143978   3.009   1.263   6.702
14068SOL    HW243979   2.951   1.370   6.612
14069SOL     OW43980   5.371   3.097   9.426
14069SOL    HW143981   5.395   3.157   9.497
14069SOL    HW243982   5.392   3.010   9.459
14070SOL     OW43983   3.346   7.521  13.242
14070SOL    HW143984   3.263   7.488  13.209
14070SOL    HW243985   3.324   7.605  13.283
14071SOL     OW43986   1.569   5.979   7.997
14071SOL    HW143987   1.637   6.027   7.950
14071SOL    HW243988   1.491   6.034   7.991
14072SOL     OW43989   6.962   3.831   4.063
14072SOL    HW143990   6.872   3.799   4.067
14072SOL    HW243991   6.979   3.867   4.150
14073SOL     OW43992  12.396   3.266   5.098
14073SOL    HW143993  12.402   3.192   5.037
14073SOL    HW243994  12.447   3.239   5.174
14074SOL     OW43995  12.585  10.753   8.998
14074SOL    HW143996  12.606  10.837   9.038
14074SOL    HW243997  12.544  10.776   8.915
14075SOL     OW43998  12.607   7.007   6.437
14075SOL    HW143999  12.532   7.004   6.497
14075SOL    HW244000  12.667   6.939   6.470
14076SOL     OW44001   3.302   3.849   5.342
14076SOL    HW144002   3.234   3.900   5.385
14076SOL    HW244003   3.264   3.762   5.332
14077SOL     OW44004  13.279   4.113   4.309
14077SOL    HW144005  13.350   4.165   4.271
14077SOL    HW244006  13.213   4.177   4.336
14078SOL     OW44007   0.030  12.874   8.708
14078SOL    HW144008   0.012  12.882   8.802
14078SOL    HW244009  14.864  12.795   8.681
14079SOL     OW44010   8.673   2.741   5.456
14079SOL    HW144011   8.592   2.742   5.406
14079SOL    HW244012   8.648   2.774   5.543
14080SOL     OW44013  13.524  12.908  10.030
14080SOL    HW144014  13.504  12.862  10.111
14080SOL    HW244015  13.582  12.980  10.057
14081SOL     OW44016   8.440   5.395   9.434
14081SOL    HW144017   8.430   5.488   9.415
14081SOL    HW244018   8.506   5.392   9.503
14082SOL     OW44019  14.540   4.013   8.631
14082SOL    HW144020  14.594   3.934   8.630
14082SOL    HW244021  14.570   4.065   8.557
14083SOL     OW44022   7.070   3.812   2.199
14083SOL    HW144023   7.138   3.751   2.227
14083SOL    HW244024   6.990   3.779   2.241
14084SOL     OW44025   0.110   4.765   4.550
14084SOL    HW144026   0.085   4.819   4.624
14084SOL    HW244027   0.203   4.784   4.537
14085SOL     OW44028   3.398  14.441   1.909
14085SOL    HW144029   3.427  14.350   1.908
14085SOL    HW244030   3.479  14.492   1.900
14086SOL     OW44031   7.105   7.274   6.514
14086SOL    HW144032   7.114   7.182   6.539
14086SOL    HW244033   7.066   7.316   6.591
14087SOL     OW44034  11.182  12.871   9.971
14087SOL    HW144035  11.136  12.879   9.887
14087SOL    HW244036  11.144  12.939  10.026
14088SOL     OW44037   2.675   9.614   2.001
14088SOL    HW144038   2.608   9.679   2.023
14088SOL    HW244039   2.625   9.536   1.976
14089SOL     OW44040   5.235   3.300   0.564
14089SOL    HW144041   5.222   3.282   0.657
14089SOL    HW244042   5.161   3.258   0.521
14090SOL     OW44043  14.254  12.922   9.430
14090SOL    HW144044  14.159  12.909   9.429
14090SOL    HW244045  14.289  12.838   9.458
14091SOL     OW44046   1.250   9.651   2.616
14091SOL    HW144047   1.181   9.694   2.667
14091SOL    HW244048   1.207   9.574   2.578
14092SOL     OW44049  10.070   2.147   8.049
14092SOL    HW144050  10.144   2.172   8.104
14092SOL    HW244051  10.094   2.180   7.962
14093SOL     OW44052   7.223   4.815  11.394
14093SOL    HW144053   7.249   4.854  11.477
14093SOL    HW244054   7.292   4.841  11.332
14094SOL     OW44055   1.569   4.302  14.745
14094SOL    HW144056   1.607   4.216  14.765
14094SOL    HW244057   1.496   4.282  14.685
14095SOL     OW44058   5.231   5.353  14.392
14095SOL    HW144059   5.252   5.447  14.388
14095SOL    HW244060   5.142   5.347  14.358
14096SOL     OW44061   6.613  14.356   1.380
14096SOL    HW144062   6.685  14.401   1.337
14096SOL    HW244063   6.605  14.399   1.465
14097SOL     OW44064   5.249   7.002   0.190
14097SOL    HW144065   5.188   7.026   0.120
14097SOL    HW244066   5.246   6.906   0.192
14098SOL     OW44067  13.642   6.865   4.903
14098SOL    HW144068  13.555   6.838   4.874
14098SOL    HW244069  13.699   6.843   4.830
14099SOL     OW44070   8.206   9.443  10.733
14099SOL    HW144071   8.197   9.523  10.681
14099SOL    HW244072   8.149   9.380  10.691
14100SOL     OW44073  14.786  13.527   9.242
14100SOL    HW144074  14.829  13.538   9.157
14100SOL    HW244075  14.831  13.453   9.282
14101SOL     OW44076  10.521   6.824   9.866
14101SOL    HW144077  10.495   6.746   9.816
14101SOL    HW244078  10.486   6.808   9.954
14102SOL     OW44079   0.230   3.861   5.956
14102SOL    HW144080   0.293   3.799   5.918
14102SOL    HW244081   0.246   3.943   5.910
14103SOL     OW44082   7.441  13.006   8.582
14103SOL    HW144083   7.464  13.092   8.617
14103SOL    HW244084   7.467  12.944   8.651
14104SOL     OW44085   5.443  12.127   6.450
14104SOL    HW144086   5.404  12.139   6.363
14104SOL    HW244087   5.537  12.120   6.434
14105SOL     OW44088   9.258   3.027   1.572
14105SOL    HW144089   9.318   3.055   1.502
14105SOL    HW244090   9.275   2.934   1.582
14106SOL     OW44091  14.802  12.219   5.350
14106SOL    HW144092  14.794  12.193   5.441
14106SOL    HW244093  14.815  12.314   5.352
14107SOL     OW44094   2.115   1.318   2.615
14107SOL    HW144095   2.158   1.382   2.673
14107SOL    HW244096   2.092   1.245   2.673
14108SOL     OW44097   3.391   3.995  12.911
14108SOL    HW144098   3.471   4.016  12.862
14108SOL    HW244099   3.396   3.900  12.925
14109SOL     OW44100   4.417   9.774   4.452
14109SOL    HW144101   4.473   9.773   4.529
14109SOL    HW244102   4.328   9.765   4.486
14110SOL     OW44103   7.084  13.148   4.817
14110SOL    HW144104   7.171  13.118   4.788
14110SOL    HW244105   7.023  13.083   4.781
14111SOL     OW44106   1.332   9.768  12.292
14111SOL    HW144107   1.262   9.763  12.227
14111SOL    HW244108   1.411   9.743  12.245
14112SOL     OW44109   6.503   9.931   5.326
14112SOL    HW144110   6.573   9.892   5.275
14112SOL    HW244111   6.464   9.996   5.267
14113SOL     OW44112   7.461  12.655   4.645
14113SOL    HW144113   7.433  12.693   4.562
14113SOL    HW244114   7.555  12.673   4.650
14114SOL     OW44115   1.851   4.858   1.198
14114SOL    HW144116   1.941   4.888   1.207
14114SOL    HW244117   1.858   4.762   1.194
14115SOL     OW44118  12.246   7.075   9.357
14115SOL    HW144119  12.196   7.130   9.417
14115SOL    HW244120  12.328   7.057   9.404
14116SOL     OW44121  10.804   9.710  13.873
14116SOL    HW144122  10.892   9.711  13.836
14116SOL    HW244123  10.817   9.729  13.966
14117SOL     OW44124   4.153   1.560   5.839
14117SOL    HW144125   4.175   1.515   5.757
14117SOL    HW244126   4.159   1.653   5.818
14118SOL     OW44127   5.526   2.933   6.901
14118SOL    HW144128   5.604   2.962   6.852
14118SOL    HW244129   5.560   2.910   6.987
14119SOL     OW44130   9.678   0.630   0.291
14119SOL    HW144131   9.666   0.659   0.200
14119SOL    HW244132   9.772   0.616   0.299
14120SOL     OW44133  11.272  14.746   1.680
14120SOL    HW144134  11.233  14.747   1.592
14120SOL    HW244135  11.367  14.754   1.664
14121SOL     OW44136  10.838   5.430   3.789
14121SOL    HW144137  10.872   5.342   3.805
14121SOL    HW244138  10.879   5.484   3.855
14122SOL     OW44139  14.355  14.163   4.934
14122SOL    HW144140  14.268  14.175   4.972
14122SOL    HW244141  14.359  14.227   4.863
14123SOL     OW44142  12.327  10.561   7.360
14123SOL    HW144143  12.316  10.476   7.318
14123SOL    HW244144  12.281  10.623   7.302
14124SOL     OW44145   2.040  10.213  12.306
14124SOL    HW144146   2.019  10.120  12.313
14124SOL    HW244147   2.079  10.235  12.390
14125SOL     OW44148   6.275  10.167   7.262
14125SOL    HW144149   6.222  10.247   7.268
14125SOL    HW244150   6.269  10.128   7.349
14126SOL     OW44151   7.928   4.347   5.085
14126SOL    HW144152   7.968   4.280   5.140
14126SOL    HW244153   7.853   4.378   5.136
14127SOL     OW44154   6.768  11.999   6.387
14127SOL    HW144155   6.789  12.070   6.327
14127SOL    HW244156   6.842  11.938   6.380
14128SOL     OW44157  10.912   2.465  12.912
14128SOL    HW144158  10.924   2.556  12.884
14128SOL    HW244159  11.000   2.431  12.921
14129SOL     OW44160   4.201  13.986  12.666
14129SOL    HW144161   4.294  14.003  12.683
14129SOL    HW244162   4.173  14.057  12.609
14130SOL     OW44163  14.289   3.128   4.671
14130SOL    HW144164  14.220   3.143   4.606
14130SOL    HW244165  14.366   3.172   4.634
14131SOL     OW44166  14.305   0.650   8.220
14131SOL    HW144167  14.254   0.570   8.210
14131SOL    HW244168  14.342   0.644   8.308
14132SOL     OW44169   0.787   8.924   6.850
14132SOL    HW144170   0.754   8.908   6.762
14132SOL    HW244171   0.760   8.847   6.900
14133SOL     OW44172   9.636   2.661   1.650
14133SOL    HW144173   9.655   2.747   1.611
14133SOL    HW244174   9.712   2.642   1.704
14134SOL     OW44175   6.500   3.052   0.366
14134SOL    HW144176   6.551   2.989   0.317
14134SOL    HW244177   6.528   3.138   0.334
14135SOL     OW44178   3.427   2.880  14.389
14135SOL    HW144179   3.394   2.855  14.303
14135SOL    HW244180   3.466   2.967  14.375
14136SOL     OW44181   1.251   8.945   7.059
14136SOL    HW144182   1.163   8.907   7.061
14136SOL    HW244183   1.301   8.892   7.122
14137SOL     OW44184   8.799  11.051  13.038
14137SOL    HW144185   8.844  11.001  13.107
14137SOL    HW244186   8.709  11.060  13.070
14138SOL     OW44187   8.009   7.623   3.811
14138SOL    HW144188   8.102   7.619   3.789
14138SOL    HW244189   8.007   7.618   3.907
14139SOL     OW44190   2.544   8.803  13.124
14139SOL    HW144191   2.590   8.850  13.194
14139SOL    HW244192   2.614   8.756  13.078
14140SOL     OW44193   2.161   1.218   1.353
14140SOL    HW144194   2.116   1.154   1.409
14140SOL    HW244195   2.250   1.185   1.345
14141SOL     OW44196  14.575   6.576   7.053
14141SOL    HW144197  14.496   6.573   7.106
14141SOL    HW244198  14.640   6.621   7.108
14142SOL     OW44199   2.780   1.399  11.611
14142SOL    HW144200   2.775   1.318  11.561
14142SOL    HW244201   2.700   1.446  11.587
14143SOL     OW44202  11.899  13.885  14.262
14143SOL    HW144203  11.932  13.971  14.288
14143SOL    HW244204  11.977  13.839  14.231
14144SOL     OW44205   5.336   1.593   2.845
14144SOL    HW144206   5.300   1.646   2.916
14144SOL    HW244207   5.418   1.558   2.881
14145SOL     OW44208  10.761  10.525  12.104
14145SOL    HW144209  10.742  10.586  12.175
14145SOL    HW244210  10.778  10.582  12.028
14146SOL     OW44211   4.553  13.250   2.579
14146SOL    HW144212   4.615  13.251   2.506
14146SOL    HW244213   4.551  13.340   2.611
14147SOL     OW44214   6.079  12.758  12.824
14147SOL    HW144215   6.012  12.773  12.889
14147SOL    HW244216   6.067  12.667  12.797
14148SOL     OW44217   6.035  11.523   0.760
14148SOL    HW144218   5.943  11.551   0.761
14148SOL    HW244219   6.077  11.581   0.697
14149SOL     OW44220  13.423   2.976  12.122
14149SOL    HW144221  13.463   3.052  12.164
14149SOL    HW244222  13.332   3.001  12.108
14150SOL     OW44223  12.576   6.914  11.975
14150SOL    HW144224  12.512   6.943  11.911
14150SOL    HW244225  12.536   6.838  12.017
14151SOL     OW44226   2.228   1.909  14.425
14151SOL    HW144227   2.163   1.856  14.379
14151SOL    HW244228   2.201   1.907  14.517
14152SOL     OW44229   7.624   9.065   8.030
14152SOL    HW144230   7.641   9.145   7.980
14152SOL    HW244231   7.634   9.092   8.121
14153SOL     OW44232   9.853   0.529   0.854
14153SOL    HW144233   9.838   0.516   0.948
14153SOL    HW244234   9.766   0.540   0.817
14154SOL     OW44235   5.458  11.687  10.267
14154SOL    HW144236   5.426  11.773  10.295
14154SOL    HW244237   5.391  11.655  10.207
14155SOL     OW44238   1.721  14.108  13.827
14155SOL    HW144239   1.807  14.096  13.786
14155SOL    HW244240   1.679  14.175  13.773
14156SOL     OW44241   5.366  14.034   9.402
14156SOL    HW144242   5.395  14.109   9.350
14156SOL    HW244243   5.272  14.026   9.382
14157SOL     OW44244   1.322  14.584  12.106
14157SOL    HW144245   1.259  14.512  12.101
14157SOL    HW244246   1.390  14.551  12.165
14158SOL     OW44247  10.830   8.691  12.814
14158SOL    HW144248  10.810   8.599  12.796
14158SOL    HW244249  10.797   8.738  12.738
14159SOL     OW44250  14.078   8.321  11.007
14159SOL    HW144251  14.139   8.395  11.012
14159SOL    HW244252  14.012   8.340  11.073
14160SOL     OW44253   9.491   1.886   9.876
14160SOL    HW144254   9.462   1.883   9.786
14160SOL    HW244255   9.503   1.794   9.900
14161SOL     OW44256   1.517   8.822  13.876
14161SOL    HW144257   1.546   8.765  13.804
14161SOL    HW244258   1.430   8.789  13.898
14162SOL     OW44259   5.637  11.771  13.557
14162SOL    HW144260   5.672  11.736  13.475
14162SOL    HW244261   5.697  11.738  13.624
14163SOL     OW44262   5.211   1.097  10.663
14163SOL    HW144263   5.132   1.060  10.702
14163SOL    HW244264   5.226   1.044  10.585
14164SOL     OW44265   9.897   9.885   5.532
14164SOL    HW144266   9.966   9.945   5.504
14164SOL    HW244267   9.866   9.845   5.450
14165SOL     OW44268   4.081   6.661   6.901
14165SOL    HW144269   4.156   6.637   6.955
14165SOL    HW244270   4.015   6.691   6.964
14166SOL     OW44271   4.713   6.977   6.133
14166SOL    HW144272   4.665   6.900   6.165
14166SOL    HW244273   4.648   7.047   6.135
14167SOL     OW44274   6.978   9.299   9.088
14167SOL    HW144275   6.973   9.378   9.035
14167SOL    HW244276   7.010   9.328   9.173
14168SOL     OW44277  13.550   5.727  13.912
14168SOL    HW144278  13.561   5.756  13.821
14168SOL    HW244279  13.468   5.767  13.940
14169SOL     OW44280   8.563  11.995  10.330
14169SOL    HW144281   8.481  11.947  10.335
14169SOL    HW244282   8.553  12.053  10.255
14170SOL     OW44283   6.480   9.592   7.855
14170SOL    HW144284   6.427   9.592   7.776
14170SOL    HW244285   6.472   9.681   7.890
14171SOL     OW44286  13.353   4.870   4.430
14171SOL    HW144287  13.375   4.963   4.430
14171SOL    HW244288  13.287   4.861   4.499
14172SOL     OW44289   6.962   6.512  14.673
14172SOL    HW144290   6.961   6.512  14.769
14172SOL    HW244291   7.055   6.500  14.651
14173SOL     OW44292   8.999   6.070   9.047
14173SOL    HW144293   9.028   6.126   9.119
14173SOL    HW244294   9.025   6.118   8.968
14174SOL     OW44295   7.381   8.296  13.170
14174SOL    HW144296   7.467   8.333  13.150
14174SOL    HW244297   7.380   8.288  13.266
14175SOL     OW44298  13.703   0.941   9.835
14175SOL    HW144299  13.631   0.879   9.842
14175SOL    HW244300  13.734   0.953   9.925
14176SOL     OW44301   4.048   9.859   1.105
14176SOL    HW144302   4.138   9.870   1.135
14176SOL    HW244303   4.006   9.808   1.174
14177SOL     OW44304  10.657   3.656  10.558
14177SOL    HW144305  10.602   3.627  10.485
14177SOL    HW244306  10.609   3.729  10.597
14178SOL     OW44307   0.387  13.377  13.410
14178SOL    HW144308   0.375  13.368  13.316
14178SOL    HW244309   0.388  13.472  13.425
14179SOL     OW44310   0.589  12.352  12.193
14179SOL    HW144311   0.610  12.270  12.147
14179SOL    HW244312   0.520  12.392  12.140
14180SOL     OW44313  14.541   6.808   1.389
14180SOL    HW144314  14.486   6.886   1.394
14180SOL    HW244315  14.623   6.838   1.349
14181SOL     OW44316  12.340  14.138  11.568
14181SOL    HW144317  12.420  14.154  11.619
14181SOL    HW244318  12.278  14.103  11.632
14182SOL     OW44319   2.835  10.276   7.788
14182SOL    HW144320   2.787  10.246   7.865
14182SOL    HW244321   2.909  10.215   7.780
14183SOL     OW44322   0.277   9.012   2.550
14183SOL    HW144323   0.365   9.002   2.513
14183SOL    HW244324   0.243   9.091   2.508
14184SOL     OW44325   1.421   1.483   7.384
14184SOL    HW144326   1.387   1.530   7.308
14184SOL    HW244327   1.353   1.418   7.405
14185SOL     OW44328  10.848  12.527   8.643
14185SOL    HW144329  10.816  12.496   8.727
14185SOL    HW244330  10.931  12.480   8.630
14186SOL     OW44331  14.397   6.307   2.884
14186SOL    HW144332  14.356   6.390   2.860
14186SOL    HW244333  14.350   6.241   2.834
14187SOL     OW44334   3.046   5.878   4.766
14187SOL    HW144335   3.065   5.922   4.682
14187SOL    HW244336   3.057   5.946   4.832
14188SOL     OW44337  13.632   7.243  12.214
14188SOL    HW144338  13.651   7.217  12.304
14188SOL    HW244339  13.696   7.311  12.195
14189SOL     OW44340   7.859   0.818   2.936
14189SOL    HW144341   7.881   0.870   3.013
14189SOL    HW244342   7.763   0.822   2.931
14190SOL     OW44343  11.130   5.384   1.657
14190SOL    HW144344  11.195   5.454   1.669
14190SOL    HW244345  11.150   5.348   1.571
14191SOL     OW44346  12.341  13.367  11.994
14191SOL    HW144347  12.248  13.388  12.003
14191SOL    HW244348  12.348  13.324  11.909
14192SOL     OW44349  10.463   0.580   6.723
14192SOL    HW144350  10.505   0.539   6.647
14192SOL    HW244351  10.418   0.509   6.768
14193SOL     OW44352  12.324   3.443   6.612
14193SOL    HW144353  12.305   3.448   6.706
14193SOL    HW244354  12.368   3.359   6.600
14194SOL     OW44355   8.627  14.289   2.934
14194SOL    HW144356   8.558  14.260   2.874
14194SOL    HW244357   8.580  14.335   3.004
14195SOL     OW44358   9.192   5.131   1.617
14195SOL    HW144359   9.275   5.142   1.571
14195SOL    HW244360   9.130   5.184   1.566
14196SOL     OW44361   3.361   6.536   7.101
14196SOL    HW144362   3.315   6.551   7.183
14196SOL    HW244363   3.401   6.450   7.111
14197SOL     OW44364   7.822   3.418   6.013
14197SOL    HW144365   7.768   3.398   5.937
14197SOL    HW244366   7.896   3.467   5.978
14198SOL     OW44367  14.640   5.318   0.410
14198SOL    HW144368  14.586   5.239   0.402
14198SOL    HW244369  14.701   5.313   0.336
14199SOL     OW44370   3.066   3.933   8.170
14199SOL    HW144371   3.083   3.917   8.077
14199SOL    HW244372   3.105   4.019   8.187
14200SOL     OW44373  13.599   5.306  13.150
14200SOL    HW144374  13.688   5.341  13.153
14200SOL    HW244375  13.601   5.238  13.083
14201SOL     OW44376   6.095  14.664  10.580
14201SOL    HW144377   6.019  14.607  10.566
14201SOL    HW244378   6.156  14.610  10.630
14202SOL     OW44379   4.694   2.802   1.140
14202SOL    HW144380   4.638   2.880   1.140
14202SOL    HW244381   4.700   2.777   1.048
14203SOL     OW44382   3.026   7.863   2.800
14203SOL    HW144383   3.003   7.902   2.715
14203SOL    HW244384   2.978   7.915   2.864
14204SOL     OW44385   5.677   2.671  13.463
14204SOL    HW144386   5.668   2.616  13.386
14204SOL    HW244387   5.762   2.713  13.453
14205SOL     OW44388  12.383   1.863  14.725
14205SOL    HW144389  12.290   1.845  14.737
14205SOL    HW244390  12.387   1.909  14.641
14206SOL     OW44391  11.867   1.161  10.837
14206SOL    HW144392  11.876   1.255  10.852
14206SOL    HW244393  11.797   1.153  10.772
14207SOL     OW44394   6.636   6.919   9.281
14207SOL    HW144395   6.555   6.911   9.231
14207SOL    HW244396   6.661   7.011   9.273
14208SOL     OW44397  13.336   2.122   8.153
14208SOL    HW144398  13.243   2.136   8.169
14208SOL    HW244399  13.361   2.193   8.094
14209SOL     OW44400   3.958  10.633  13.002
14209SOL    HW144401   3.914  10.621  12.918
14209SOL    HW244402   3.932  10.557  13.054
14210SOL     OW44403   2.816   6.925   1.626
14210SOL    HW144404   2.771   6.871   1.561
14210SOL    HW244405   2.884   6.971   1.577
14211SOL     OW44406  12.178   3.884   8.407
14211SOL    HW144407  12.265   3.852   8.385
14211SOL    HW244408  12.183   3.902   8.501
14212SOL     OW44409  12.898   2.310  12.604
14212SOL    HW144410  12.945   2.384  12.566
14212SOL    HW244411  12.826   2.294  12.543
14213SOL     OW44412  12.770   1.022   9.951
14213SOL    HW144413  12.766   1.021   9.855
14213SOL    HW244414  12.861   1.045   9.970
14214SOL     OW44415   9.274   5.573   2.919
14214SOL    HW144416   9.236   5.553   2.834
14214SOL    HW244417   9.199   5.573   2.979
14215SOL     OW44418  13.478   1.191  13.275
14215SOL    HW144419  13.446   1.105  13.247
14215SOL    HW244420  13.454   1.251  13.205
14216SOL     OW44421  12.857   0.669  10.075
14216SOL    HW144422  12.888   0.720  10.150
14216SOL    HW244423  12.802   0.730  10.026
14217SOL     OW44424   9.678   0.627   9.475
14217SOL    HW144425   9.628   0.584   9.406
14217SOL    HW244426   9.700   0.557   9.536
14218SOL     OW44427  12.065  12.321  14.786
14218SOL    HW144428  11.994  12.261  14.762
14218SOL    HW244429  12.026  12.378  14.852
14219SOL     OW44430   3.697   1.726  13.387
14219SOL    HW144431   3.692   1.643  13.434
14219SOL    HW244432   3.790   1.740  13.374
14220SOL     OW44433   9.417   8.199  14.585
14220SOL    HW144434   9.471   8.119  14.583
14220SOL    HW244435   9.438   8.240  14.668
14221SOL     OW44436   5.707  12.401  10.691
14221SOL    HW144437   5.758  12.457  10.633
14221SOL    HW244438   5.756  12.402  10.774
14222SOL     OW44439   1.266   4.377   3.487
14222SOL    HW144440   1.283   4.283   3.481
14222SOL    HW244441   1.311   4.414   3.411
14223SOL     OW44442   9.995   4.065   7.956
14223SOL    HW144443   9.976   4.027   7.871
14223SOL    HW244444  10.083   4.102   7.947
14224SOL     OW44445  10.416  14.153  13.252
14224SOL    HW144446  10.329  14.152  13.294
14224SOL    HW244447  10.418  14.234  13.202
14225SOL     OW44448  11.656  12.008   3.990
14225SOL    HW144449  11.695  12.018   3.903
14225SOL    HW244450  11.595  12.081   3.997
14226SOL     OW44451  10.393   7.179   8.814
14226SOL    HW144452  10.347   7.189   8.897
14226SOL    HW244453  10.433   7.264   8.798
14227SOL     OW44454   2.427   0.025   2.231
14227SOL    HW144455   2.336   0.008   2.256
14227SOL    HW244456   2.431   0.120   2.218
14228SOL     OW44457  11.374  13.612  11.701
14228SOL    HW144458  11.404  13.547  11.765
14228SOL    HW244459  11.381  13.568  11.617
14229SOL     OW44460  13.800  11.232  11.382
14229SOL    HW144461  13.877  11.272  11.424
14229SOL    HW244462  13.789  11.148  11.426
14230SOL     OW44463   5.267   3.034  10.444
14230SOL    HW144464   5.286   3.086  10.523
14230SOL    HW244465   5.215   2.960  10.477
14231SOL     OW44466   7.425   6.845  12.963
14231SOL    HW144467   7.452   6.937  12.959
14231SOL    HW244468   7.392   6.827  12.875
14232SOL     OW44469   4.222  12.319  13.404
14232SOL    HW144470   4.188  12.351  13.320
14232SOL    HW244471   4.166  12.361  13.469
14233SOL     OW44472  13.075   6.523   4.014
14233SOL    HW144473  12.991   6.568   4.017
14233SOL    HW244474  13.122   6.565   3.942
14234SOL     OW44475  10.333   2.498   6.479
14234SOL    HW144476  10.362   2.588   6.462
14234SOL    HW244477  10.394   2.465   6.545
14235SOL     OW44478   4.414  14.021   3.843
14235SOL    HW144479   4.357  14.060   3.908
14235SOL    HW244480   4.492  13.994   3.892
14236SOL     OW44481   2.495  13.877  13.938
14236SOL    HW144482   2.511  13.876  14.033
14236SOL    HW244483   2.431  13.807  13.924
14237SOL     OW44484  12.065   5.367   9.542
14237SOL    HW144485  12.095   5.410   9.622
14237SOL    HW244486  12.145   5.330   9.504
14238SOL     OW44487   5.543  11.139  14.500
14238SOL    HW144488   5.629  11.120  14.536
14238SOL    HW244489   5.528  11.072  14.434
14239SOL     OW44490   2.864   2.770  13.124
14239SOL    HW144491   2.825   2.842  13.173
14239SOL    HW244492   2.799   2.700  13.127
14240SOL     OW44493   2.217   9.542  12.680
14240SOL    HW144494   2.125   9.567  12.690
14240SOL    HW244495   2.264   9.609  12.730
14241SOL     OW44496  10.867   2.155   8.681
14241SOL    HW144497  10.897   2.149   8.772
14241SOL    HW244498  10.835   2.245   8.673
14242SOL     OW44499   4.693  11.451  10.831
14242SOL    HW144500   4.619  11.394  10.848
14242SOL    HW244501   4.673  11.492  10.746
14243SOL     OW44502  13.421   3.414  14.743
14243SOL    HW144503  13.399   3.497  14.700
14243SOL    HW244504  13.424   3.436  14.836
14244SOL     OW44505   4.088  14.704   9.096
14244SOL    HW144506   4.160  14.745   9.047
14244SOL    HW244507   4.131  14.665   9.172
14245SOL     OW44508  13.950   6.314  10.608
14245SOL    HW144509  13.941   6.392  10.663
14245SOL    HW244510  13.908   6.338  10.525
14246SOL     OW44511   7.074   4.788  12.449
14246SOL    HW144512   7.108   4.873  12.478
14246SOL    HW244513   6.987   4.807  12.413
14247SOL     OW44514   9.829   3.422  11.227
14247SOL    HW144515   9.756   3.483  11.228
14247SOL    HW244516   9.854   3.414  11.135
14248SOL     OW44517   7.214   1.528   4.777
14248SOL    HW144518   7.297   1.565   4.808
14248SOL    HW244519   7.167   1.504   4.857
14249SOL     OW44520   0.283  11.645  11.614
14249SOL    HW144521   0.295  11.622  11.706
14249SOL    HW244522   0.201  11.696  11.612
14250SOL     OW44523   1.834   2.479   6.792
14250SOL    HW144524   1.746   2.515   6.791
14250SOL    HW244525   1.838   2.428   6.873
14251SOL     OW44526   5.134  14.756   1.060
14251SOL    HW144527   5.104  14.842   1.030
14251SOL    HW244528   5.188  14.722   0.988
14252SOL     OW44529   4.722   5.445   7.870
14252SOL    HW144530   4.666   5.474   7.798
14252SOL    HW244531   4.809   5.476   7.847
14253SOL     OW44532   6.201   4.428   2.818
14253SOL    HW144533   6.169   4.339   2.803
14253SOL    HW244534   6.291   4.426   2.784
14254SOL     OW44535   7.796   1.300   2.480
14254SOL    HW144536   7.854   1.225   2.495
14254SOL    HW244537   7.854   1.376   2.484
14255SOL     OW44538   3.961  13.712   1.184
14255SOL    HW144539   3.913  13.696   1.103
14255SOL    HW244540   3.941  13.636   1.239
14256SOL     OW44541  11.078   8.186   8.943
14256SOL    HW144542  11.132   8.226   9.012
14256SOL    HW244543  11.034   8.114   8.987
14257SOL     OW44544   9.945  13.165  14.668
14257SOL    HW144545   9.930  13.237  14.607
14257SOL    HW244546   9.900  13.191  14.748
14258SOL     OW44547  13.514  10.096  12.904
14258SOL    HW144548  13.510  10.185  12.939
14258SOL    HW244549  13.422  10.068  12.899
14259SOL     OW44550  12.063  13.509  12.313
14259SOL    HW144551  12.071  13.487  12.221
14259SOL    HW244552  12.092  13.431  12.359
14260SOL     OW44553   9.119   9.565  13.306
14260SOL    HW144554   9.119   9.606  13.219
14260SOL    HW244555   9.059   9.491  13.297
14261SOL     OW44556   7.657   7.618  12.588
14261SOL    HW144557   7.567   7.615  12.557
14261SOL    HW244558   7.710   7.633  12.509
14262SOL     OW44559   1.839  11.134  13.202
14262SOL    HW144560   1.858  11.220  13.241
14262SOL    HW244561   1.758  11.106  13.244
14263SOL     OW44562  12.733   3.646   4.087
14263SOL    HW144563  12.749   3.560   4.046
14263SOL    HW244564  12.641   3.643   4.112
14264SOL     OW44565   5.865  13.319   9.165
14264SOL    HW144566   5.829  13.274   9.241
14264SOL    HW244567   5.943  13.364   9.198
14265SOL     OW44568   7.964   8.589   7.285
14265SOL    HW144569   7.914   8.551   7.214
14265SOL    HW244570   8.051   8.549   7.278
14266SOL     OW44571   5.436   2.921   3.818
14266SOL    HW144572   5.528   2.902   3.802
14266SOL    HW244573   5.405   2.961   3.737
14267SOL     OW44574   1.058   3.032   9.638
14267SOL    HW144575   0.997   3.101   9.610
14267SOL    HW244576   1.009   2.981   9.701
14268SOL     OW44577   1.075  10.216   2.879
14268SOL    HW144578   0.991  10.261   2.863
14268SOL    HW244579   1.090  10.165   2.800
14269SOL     OW44580   3.583  11.676   0.254
14269SOL    HW144581   3.492  11.657   0.277
14269SOL    HW244582   3.602  11.616   0.182
14270SOL     OW44583   8.873   4.106   0.215
14270SOL    HW144584   8.892   4.124   0.123
14270SOL    HW244585   8.825   4.184   0.245
14271SOL     OW44586  12.542  12.228   7.184
14271SOL    HW144587  12.634  12.204   7.189
14271SOL    HW244588  12.499  12.169   7.246
14272SOL     OW44589  12.166   0.834   1.978
14272SOL    HW144590  12.077   0.867   1.961
14272SOL    HW244591  12.189   0.871   2.064
14273SOL     OW44592   8.488  14.776  13.832
14273SOL    HW144593   8.467  14.868  13.820
14273SOL    HW244594   8.403  14.731  13.825
14274SOL     OW44595   5.061  10.863   5.415
14274SOL    HW144596   4.988  10.814   5.452
14274SOL    HW244597   5.074  10.937   5.474
14275SOL     OW44598   2.129  10.854   6.676
14275SOL    HW144599   2.053  10.832   6.730
14275SOL    HW244600   2.092  10.891   6.596
14276SOL     OW44601  14.295  12.111   3.649
14276SOL    HW144602  14.332  12.031   3.613
14276SOL    HW244603  14.219  12.081   3.700
14277SOL     OW44604   6.533  13.451   8.585
14277SOL    HW144605   6.488  13.517   8.531
14277SOL    HW244606   6.587  13.503   8.645
14278SOL     OW44607  13.670   7.553  14.206
14278SOL    HW144608  13.714   7.468  14.202
14278SOL    HW244609  13.646   7.562  14.299
14279SOL     OW44610  13.235   9.531   8.852
14279SOL    HW144611  13.158   9.586   8.841
14279SOL    HW244612  13.206   9.443   8.827
14280SOL     OW44613   0.593   4.856   6.275
14280SOL    HW144614   0.538   4.846   6.198
14280SOL    HW244615   0.591   4.770   6.317
14281SOL     OW44616   6.937  11.215   4.065
14281SOL    HW144617   7.002  11.206   3.996
14281SOL    HW244618   6.887  11.133   4.063
14282SOL     OW44619   0.466   3.212  13.432
14282SOL    HW144620   0.427   3.153  13.368
14282SOL    HW244621   0.414   3.200  13.511
14283SOL     OW44622  13.391   4.957  14.246
14283SOL    HW144623  13.411   4.894  14.177
14283SOL    HW244624  13.307   4.928  14.281
14284SOL     OW44625   6.275   8.839  12.440
14284SOL    HW144626   6.188   8.871  12.418
14284SOL    HW244627   6.284   8.758  12.390
14285SOL     OW44628   0.188  10.289   6.397
14285SOL    HW144629   0.142  10.264   6.477
14285SOL    HW244630   0.274  10.320   6.426
14286SOL     OW44631  14.306  13.178   5.439
14286SOL    HW144632  14.354  13.099   5.412
14286SOL    HW244633  14.300  13.170   5.535
14287SOL     OW44634   4.298  13.006   3.975
14287SOL    HW144635   4.335  12.954   4.045
14287SOL    HW244636   4.316  12.956   3.895
14288SOL     OW44637   4.986  11.895   9.731
14288SOL    HW144638   5.057  11.938   9.777
14288SOL    HW244639   4.935  11.852   9.800
14289SOL     OW44640   7.777   7.749   4.717
14289SOL    HW144641   7.820   7.834   4.706
14289SOL    HW244642   7.727   7.758   4.798
14290SOL     OW44643  13.909   3.234   9.579
14290SOL    HW144644  13.979   3.209   9.519
14290SOL    HW244645  13.834   3.181   9.551
14291SOL     OW44646   7.023  14.443   0.264
14291SOL    HW144647   6.947  14.494   0.291
14291SOL    HW244648   7.065  14.418   0.347
14292SOL     OW44649  11.304  14.863  14.508
14292SOL    HW144650  11.363  14.864  14.433
14292SOL    HW244651  11.344   0.042  14.570
14293SOL     OW44652   7.211   5.315   7.329
14293SOL    HW144653   7.245   5.311   7.240
14293SOL    HW244654   7.220   5.226   7.362
14294SOL     OW44655   8.444  13.711  11.607
14294SOL    HW144656   8.385  13.650  11.650
14294SOL    HW244657   8.524  13.662  11.592
14295SOL     OW44658   3.893  12.002   0.734
14295SOL    HW144659   3.976  11.954   0.734
14295SOL    HW244660   3.857  11.987   0.647
14296SOL     OW44661   4.333  11.731   4.827
14296SOL    HW144662   4.276  11.780   4.885
14296SOL    HW244663   4.328  11.641   4.859
14297SOL     OW44664   5.373   2.756   4.167
14297SOL    HW144665   5.289   2.712   4.161
14297SOL    HW244666   5.363   2.835   4.114
14298SOL     OW44667   8.504   7.854   5.363
14298SOL    HW144668   8.472   7.834   5.275
14298SOL    HW244669   8.597   7.831   5.361
14299SOL     OW44670   8.340   2.912   3.281
14299SOL    HW144671   8.401   2.910   3.354
14299SOL    HW244672   8.384   2.863   3.212
14300SOL     OW44673  12.638   9.043   0.636
14300SOL    HW144674  12.641   8.948   0.623
14300SOL    HW244675  12.679   9.056   0.722
14301SOL     OW44676   2.787   4.429   7.440
14301SOL    HW144677   2.756   4.433   7.531
14301SOL    HW244678   2.714   4.462   7.389
14302SOL     OW44679  11.437   1.329   0.766
14302SOL    HW144680  11.349   1.361   0.782
14302SOL    HW244681  11.481   1.337   0.851
14303SOL     OW44682   8.023  14.860   4.373
14303SOL    HW144683   8.117  14.864   4.353
14303SOL    HW244684   7.988  14.800   4.307
14304SOL     OW44685   9.241   0.957  12.031
14304SOL    HW144686   9.298   0.882  12.013
14304SOL    HW244687   9.284   1.031  11.987
14305SOL     OW44688   2.903   5.364  12.091
14305SOL    HW144689   2.820   5.355  12.138
14305SOL    HW244690   2.878   5.402  12.007
14306SOL     OW44691   4.792   7.247  13.577
14306SOL    HW144692   4.757   7.165  13.543
14306SOL    HW244693   4.792   7.236  13.672
14307SOL     OW44694  11.770   2.894   7.311
14307SOL    HW144695  11.682   2.927   7.290
14307SOL    HW244696  11.772   2.891   7.407
14308SOL     OW44697   2.987   5.428  13.415
14308SOL    HW144698   3.000   5.510  13.462
14308SOL    HW244699   2.977   5.362  13.483
14309SOL     OW44700   0.281  11.639  14.239
14309SOL    HW144701   0.291  11.548  14.212
14309SOL    HW244702   0.284  11.636  14.334
14310SOL     OW44703   7.881   1.155  11.262
14310SOL    HW144704   7.855   1.072  11.302
14310SOL    HW244705   7.830   1.221  11.308
14311SOL     OW44706  12.809   3.985   7.952
14311SOL    HW144707  12.795   3.959   7.861
14311SOL    HW244708  12.796   3.905   8.002
14312SOL     OW44709  13.754   2.948   7.254
14312SOL    HW144710  13.717   2.871   7.298
14312SOL    HW244711  13.844   2.922   7.232
14313SOL     OW44712  10.759  14.066   1.461
14313SOL    HW144713  10.720  14.009   1.395
14313SOL    HW244714  10.713  14.149   1.452
14314SOL     OW44715   2.987  11.772   9.507
14314SOL    HW144716   2.924  11.828   9.553
14314SOL    HW244717   3.071  11.817   9.516
14315SOL     OW44718   1.413   4.074   7.041
14315SOL    HW144719   1.349   4.016   6.999
14315SOL    HW244720   1.479   4.088   6.974
14316SOL     OW44721  11.522   3.526   0.188
14316SOL    HW144722  11.597   3.553   0.240
14316SOL    HW244723  11.478   3.459   0.241
14317SOL     OW44724   4.178  13.787   3.317
14317SOL    HW144725   4.259  13.819   3.357
14317SOL    HW244726   4.200  13.773   3.225
14318SOL     OW44727   3.025   6.444   2.769
14318SOL    HW144728   3.049   6.387   2.697
14318SOL    HW244729   3.108   6.479   2.801
14319SOL     OW44730   9.189  11.090   8.888
14319SOL    HW144731   9.183  11.047   8.803
14319SOL    HW244732   9.185  11.184   8.868
14320SOL     OW44733   6.029   6.367   1.376
14320SOL    HW144734   6.079   6.447   1.362
14320SOL    HW244735   6.029   6.323   1.291
14321SOL     OW44736   7.606  13.751   0.991
14321SOL    HW144737   7.587  13.803   0.913
14321SOL    HW244738   7.666  13.683   0.960
14322SOL     OW44739   7.252   4.266  10.925
14322SOL    HW144740   7.249   4.225  11.012
14322SOL    HW244741   7.273   4.194  10.866
14323SOL     OW44742   3.859   7.947   3.664
14323SOL    HW144743   3.878   8.038   3.645
14323SOL    HW244744   3.937   7.915   3.710
14324SOL     OW44745  13.985   4.220  10.990
14324SOL    HW144746  13.932   4.145  11.016
14324SOL    HW244747  14.075   4.193  11.007
14325SOL     OW44748  11.680   8.003   5.394
14325SOL    HW144749  11.715   7.995   5.305
14325SOL    HW244750  11.756   8.018   5.449
14326SOL     OW44751  14.516   3.955   9.778
14326SOL    HW144752  14.444   3.900   9.806
14326SOL    HW244753  14.490   4.044   9.802
14327SOL     OW44754   7.849   5.010   1.922
14327SOL    HW144755   7.935   5.043   1.948
14327SOL    HW244756   7.869   4.938   1.861
14328SOL     OW44757   6.031   8.218   1.834
14328SOL    HW144758   5.996   8.277   1.901
14328SOL    HW244759   6.093   8.271   1.784
14329SOL     OW44760   3.065   6.697   1.159
14329SOL    HW144761   3.024   6.770   1.205
14329SOL    HW244762   3.136   6.738   1.108
14330SOL     OW44763  11.592   6.060   4.563
14330SOL    HW144764  11.539   6.120   4.617
14330SOL    HW244765  11.615   5.989   4.622
14331SOL     OW44766  10.379   7.320   5.120
14331SOL    HW144767  10.333   7.246   5.081
14331SOL    HW244768  10.309   7.382   5.144
14332SOL     OW44769   2.144   1.543   7.366
14332SOL    HW144770   2.151   1.612   7.432
14332SOL    HW244771   2.072   1.570   7.309
14333SOL     OW44772   1.763   8.986   6.652
14333SOL    HW144773   1.789   8.902   6.691
14333SOL    HW244774   1.787   8.978   6.560
14334SOL     OW44775   2.958   4.864  11.747
14334SOL    HW144776   2.957   4.869  11.652
14334SOL    HW244777   2.922   4.948  11.777
14335SOL     OW44778   3.049  11.472   1.606
14335SOL    HW144779   2.993  11.412   1.557
14335SOL    HW244780   3.078  11.422   1.682
14336SOL     OW44781   2.450   5.906  13.813
14336SOL    HW144782   2.384   5.874  13.753
14336SOL    HW244783   2.402   5.963  13.874
14337SOL     OW44784   0.967  14.233   7.204
14337SOL    HW144785   1.062  14.225   7.196
14337SOL    HW244786   0.944  14.306   7.147
14338SOL     OW44787  14.880   9.981   5.091
14338SOL    HW144788  14.871  10.062   5.142
14338SOL    HW244789   0.012  10.011   5.001
14339SOL     OW44790   8.753   0.222   1.595
14339SOL    HW144791   8.726   0.244   1.684
14339SOL    HW244792   8.677   0.242   1.541
14340SOL     OW44793   8.833   9.767   2.563
14340SOL    HW144794   8.857   9.855   2.535
14340SOL    HW244795   8.872   9.758   2.650
14341SOL     OW44796  14.582   8.194   0.674
14341SOL    HW144797  14.499   8.236   0.654
14341SOL    HW244798  14.646   8.266   0.678
14342SOL     OW44799  10.853   7.531  13.940
14342SOL    HW144800  10.827   7.441  13.919
14342SOL    HW244801  10.800   7.585  13.883
14343SOL     OW44802  14.155   4.584  11.185
14343SOL    HW144803  14.150   4.593  11.090
14343SOL    HW244804  14.208   4.506  11.199
14344SOL     OW44805   4.451   2.833   5.149
14344SOL    HW144806   4.445   2.739   5.134
14344SOL    HW244807   4.473   2.870   5.064
14345SOL     OW44808   9.361   5.493  10.894
14345SOL    HW144809   9.388   5.412  10.851
14345SOL    HW244810   9.280   5.517  10.850
14346SOL     OW44811   1.786   9.815   0.258
14346SOL    HW144812   1.694   9.830   0.279
14346SOL    HW244813   1.798   9.854   0.172
14347SOL     OW44814   0.049   8.151   1.092
14347SOL    HW144815   0.034   8.233   1.138
14347SOL    HW244816   0.114   8.172   1.025
14348SOL     OW44817  11.862  12.153   1.578
14348SOL    HW144818  11.826  12.071   1.542
14348SOL    HW244819  11.810  12.222   1.537
14349SOL     OW44820  12.577  13.191   5.244
14349SOL    HW144821  12.526  13.257   5.198
14349SOL    HW244822  12.630  13.149   5.176
14350SOL     OW44823  13.691  11.600   2.628
14350SOL    HW144824  13.610  11.554   2.604
14350SOL    HW244825  13.665  11.692   2.633
14351SOL     OW44826   6.821  13.040   4.394
14351SOL    HW144827   6.846  13.057   4.303
14351SOL    HW244828   6.834  13.123   4.439
14352SOL     OW44829  10.452   4.163   8.726
14352SOL    HW144830  10.434   4.140   8.635
14352SOL    HW244831  10.416   4.251   8.736
14353SOL     OW44832   6.453   4.196   4.149
14353SOL    HW144833   6.460   4.162   4.238
14353SOL    HW244834   6.358   4.198   4.132
14354SOL     OW44835   5.629  11.772  10.760
14354SOL    HW144836   5.594  11.736  10.678
14354SOL    HW244837   5.562  11.833  10.790
14355SOL     OW44838   2.692  11.899   7.428
14355SOL    HW144839   2.627  11.835   7.460
14355SOL    HW244840   2.754  11.846   7.378
14356SOL     OW44841   5.878   8.384   1.106
14356SOL    HW144842   5.793   8.381   1.151
14356SOL    HW244843   5.879   8.305   1.051
14357SOL     OW44844  10.166   9.830   0.609
14357SOL    HW144845  10.141   9.813   0.518
14357SOL    HW244846  10.224   9.758   0.632
14358SOL     OW44847   9.124   6.365   3.228
14358SOL    HW144848   9.132   6.458   3.204
14358SOL    HW244849   9.214   6.333   3.229
14359SOL     OW44850   6.488  10.141   8.077
14359SOL    HW144851   6.470  10.056   8.037
14359SOL    HW244852   6.526  10.193   8.006
14360SOL     OW44853   8.583  10.891   1.483
14360SOL    HW144854   8.674  10.913   1.501
14360SOL    HW244855   8.534  10.929   1.556
14361SOL     OW44856   2.784   8.114   9.611
14361SOL    HW144857   2.827   8.188   9.569
14361SOL    HW244858   2.802   8.126   9.705
14362SOL     OW44859   8.465   5.685   7.416
14362SOL    HW144860   8.441   5.775   7.438
14362SOL    HW244861   8.561   5.685   7.418
14363SOL     OW44862   7.278   9.825   8.019
14363SOL    HW144863   7.373   9.813   8.024
14363SOL    HW244864   7.263   9.914   8.051
14364SOL     OW44865   5.275  10.727   5.319
14364SOL    HW144866   5.212  10.777   5.370
14364SOL    HW244867   5.288  10.778   5.239
14365SOL     OW44868   1.957  13.217   1.616
14365SOL    HW144869   1.963  13.268   1.696
14365SOL    HW244870   2.043  13.174   1.608
14366SOL     OW44871   5.294   1.944   0.699
14366SOL    HW144872   5.344   2.021   0.673
14366SOL    HW244873   5.358   1.873   0.700
14367SOL     OW44874  12.651   2.117   6.045
14367SOL    HW144875  12.631   2.209   6.062
14367SOL    HW244876  12.718   2.094   6.110
14368SOL     OW44877   2.500   3.902   5.533
14368SOL    HW144878   2.476   3.946   5.452
14368SOL    HW244879   2.432   3.928   5.595
14369SOL     OW44880   9.647  12.129  13.589
14369SOL    HW144881   9.657  12.214  13.632
14369SOL    HW244882   9.662  12.147  13.496
14370SOL     OW44883  13.254  11.139   4.325
14370SOL    HW144884  13.285  11.078   4.392
14370SOL    HW244885  13.196  11.087   4.269
14371SOL     OW44886   8.674   5.820  14.227
14371SOL    HW144887   8.652   5.906  14.264
14371SOL    HW244888   8.768   5.812  14.241
14372SOL     OW44889   9.496  11.910   3.245
14372SOL    HW144890   9.447  11.992   3.257
14372SOL    HW244891   9.588  11.936   3.242
14373SOL     OW44892   8.248  10.959  11.663
14373SOL    HW144893   8.196  11.031  11.698
14373SOL    HW244894   8.316  11.002  11.611
14374SOL     OW44895   7.654  13.248   9.467
14374SOL    HW144896   7.604  13.241   9.548
14374SOL    HW244897   7.689  13.337   9.468
14375SOL     OW44898   3.357   5.765   3.088
14375SOL    HW144899   3.267   5.786   3.063
14375SOL    HW244900   3.400   5.850   3.097
14376SOL     OW44901   7.631  12.829   5.294
14376SOL    HW144902   7.587  12.794   5.216
14376SOL    HW244903   7.692  12.761   5.319
14377SOL     OW44904  10.461   3.407   0.680
14377SOL    HW144905  10.399   3.443   0.744
14377SOL    HW244906  10.547   3.435   0.713
14378SOL     OW44907   7.893   0.918  14.216
14378SOL    HW144908   7.813   0.961  14.186
14378SOL    HW244909   7.947   0.910  14.137
14379SOL     OW44910   9.665   4.897  11.171
14379SOL    HW144911   9.655   4.902  11.266
14379SOL    HW244912   9.577   4.911  11.136
14380SOL     OW44913   3.490   9.681   0.490
14380SOL    HW144914   3.581   9.678   0.460
14380SOL    HW244915   3.475   9.772   0.514
14381SOL     OW44916   6.179   8.232   3.254
14381SOL    HW144917   6.092   8.273   3.252
14381SOL    HW244918   6.229   8.285   3.316
14382SOL     OW44919   6.591   3.609  12.309
14382SOL    HW144920   6.670   3.599  12.362
14382SOL    HW244921   6.617   3.584  12.221
14383SOL     OW44922   3.221   3.435  13.297
14383SOL    HW144923   3.202   3.515  13.247
14383SOL    HW244924   3.237   3.467  13.386
14384SOL     OW44925  12.080   8.651   7.125
14384SOL    HW144926  12.169   8.688   7.119
14384SOL    HW244927  12.069   8.632   7.218
14385SOL     OW44928   7.290  14.804   6.108
14385SOL    HW144929   7.205  14.822   6.150
14385SOL    HW244930   7.278  14.832   6.017
14386SOL     OW44931  12.698   5.065   4.722
14386SOL    HW144932  12.734   4.977   4.725
14386SOL    HW244933  12.757   5.114   4.664
14387SOL     OW44934   3.343   7.927   9.903
14387SOL    HW144935   3.379   8.011   9.875
14387SOL    HW244936   3.404   7.896   9.970
14388SOL     OW44937  14.759   6.501  13.253
14388SOL    HW144938  14.826   6.551  13.207
14388SOL    HW244939  14.806   6.459  13.326
14389SOL     OW44940   3.955   5.428   7.466
14389SOL    HW144941   3.990   5.388   7.386
14389SOL    HW244942   3.873   5.468   7.439
14390SOL     OW44943  13.821   2.011  11.009
14390SOL    HW144944  13.890   1.946  11.024
14390SOL    HW244945  13.759   1.968  10.950
14391SOL     OW44946   9.591   9.878  10.828
14391SOL    HW144947   9.556   9.910  10.912
14391SOL    HW244948   9.681   9.853  10.849
14392SOL     OW44949   2.364   7.814  12.828
14392SOL    HW144950   2.289   7.812  12.769
14392SOL    HW244951   2.345   7.746  12.893
14393SOL     OW44952  13.884  14.394  13.455
14393SOL    HW144953  13.968  14.370  13.414
14393SOL    HW244954  13.892  14.488  13.471
14394SOL     OW44955  12.312  11.966   0.830
14394SOL    HW144956  12.403  11.990   0.848
14394SOL    HW244957  12.261  12.040   0.860
14395SOL     OW44958  10.514  10.386   4.142
14395SOL    HW144959  10.450  10.446   4.104
14395SOL    HW244960  10.469  10.347   4.217
14396SOL     OW44961  12.205   6.056   1.059
14396SOL    HW144962  12.114   6.083   1.049
14396SOL    HW244963  12.203   5.960   1.051
14397SOL     OW44964   7.094   9.301   0.445
14397SOL    HW144965   7.055   9.361   0.381
14397SOL    HW244966   7.109   9.220   0.396
14398SOL     OW44967   7.189   2.077   0.406
14398SOL    HW144968   7.182   2.002   0.464
14398SOL    HW244969   7.283   2.085   0.388
14399SOL     OW44970  14.267   2.642   3.817
14399SOL    HW144971  14.347   2.679   3.855
14399SOL    HW244972  14.221   2.718   3.781
14400SOL     OW44973   2.066   2.233  12.498
14400SOL    HW144974   2.143   2.282  12.529
14400SOL    HW244975   1.995   2.296  12.500
14401SOL     OW44976   0.881   0.243   0.164
14401SOL    HW144977   0.892   0.323   0.216
14401SOL    HW244978   0.803   0.202   0.201
14402SOL     OW44979   2.051  13.320   3.676
14402SOL    HW144980   2.049  13.371   3.595
14402SOL    HW244981   1.960  13.317   3.705
14403SOL     OW44982   9.715   5.968  13.219
14403SOL    HW144983   9.622   5.987  13.233
14403SOL    HW244984   9.757   6.054  13.219
14404SOL     OW44985   6.699   6.157   9.185
14404SOL    HW144986   6.792   6.137   9.178
14404SOL    HW244987   6.697   6.245   9.222
14405SOL     OW44988  12.187   9.160   5.498
14405SOL    HW144989  12.145   9.166   5.584
14405SOL    HW244990  12.117   9.180   5.436
14406SOL     OW44991  13.190   2.332  14.383
14406SOL    HW144992  13.236   2.249  14.397
14406SOL    HW244993  13.097   2.310  14.393
14407SOL     OW44994   2.513   1.387  13.565
14407SOL    HW144995   2.466   1.333  13.502
14407SOL    HW244996   2.445   1.421  13.623
14408SOL     OW44997   5.332   5.614   3.562
14408SOL    HW144998   5.354   5.533   3.516
14408SOL    HW244999   5.304   5.674   3.492
14409SOL     OW45000  12.672  14.119   9.237
14409SOL    HW145001  12.610  14.046   9.242
14409SOL    HW245002  12.618  14.197   9.251
14410SOL     OW45003   5.968   5.651   7.724
14410SOL    HW145004   5.963   5.647   7.628
14410SOL    HW245005   5.893   5.705   7.749
14411SOL     OW45006   7.167   8.380   5.697
14411SOL    HW145007   7.243   8.433   5.673
14411SOL    HW245008   7.191   8.340   5.781
14412SOL     OW45009   0.737   3.363   0.956
14412SOL    HW145010   0.803   3.433   0.961
14412SOL    HW245011   0.754   3.309   1.033
14413SOL     OW45012   6.829   0.862   0.804
14413SOL    HW145013   6.827   0.942   0.858
14413SOL    HW245014   6.874   0.798   0.859
14414SOL     OW45015   1.082   2.892   7.888
14414SOL    HW145016   1.029   2.944   7.949
14414SOL    HW245017   1.155   2.948   7.865
14415SOL     OW45018   5.556   1.590  12.367
14415SOL    HW145019   5.588   1.672  12.329
14415SOL    HW245020   5.478   1.615  12.416
14416SOL     OW45021   8.399   0.896  13.621
14416SOL    HW145022   8.482   0.858  13.649
14416SOL    HW245023   8.421   0.987  13.598
14417SOL     OW45024   9.841  14.264   9.115
14417SOL    HW145025   9.758  14.240   9.155
14417SOL    HW245026   9.874  14.336   9.168
14418SOL     OW45027   5.953   2.272   5.990
14418SOL    HW145028   5.973   2.298   6.080
14418SOL    HW245029   6.030   2.297   5.940
14419SOL     OW45030  13.618   7.458   6.932
14419SOL    HW145031  13.582   7.394   6.994
14419SOL    HW245032  13.684   7.408   6.883
14420SOL     OW45033  12.904  12.026   1.438
14420SOL    HW145034  12.963  11.982   1.499
14420SOL    HW245035  12.891  12.113   1.475
14421SOL     OW45036  10.719   4.917   2.121
14421SOL    HW145037  10.684   4.948   2.205
14421SOL    HW245038  10.646   4.928   2.059
14422SOL     OW45039  11.476   2.452   6.823
14422SOL    HW145040  11.407   2.432   6.886
14422SOL    HW245041  11.541   2.500   6.874
14423SOL     OW45042   5.407   6.771  11.738
14423SOL    HW145043   5.469   6.817  11.681
14423SOL    HW245044   5.331   6.829  11.741
14424SOL     OW45045  12.593   6.333   4.827
14424SOL    HW145046  12.545   6.376   4.756
14424SOL    HW245047  12.548   6.250   4.839
14425SOL     OW45048   0.536   8.075   5.814
14425SOL    HW145049   0.602   8.010   5.840
14425SOL    HW245050   0.566   8.107   5.729
14426SOL     OW45051   5.041   6.677  14.323
14426SOL    HW145052   5.010   6.649  14.237
14426SOL    HW245053   4.995   6.759  14.339
14427SOL     OW45054  12.330   1.862  13.537
14427SOL    HW145055  12.342   1.946  13.494
14427SOL    HW245056  12.417   1.840  13.572
14428SOL     OW45057   1.662   2.416   2.922
14428SOL    HW145058   1.614   2.398   3.002
14428SOL    HW245059   1.594   2.424   2.855
14429SOL     OW45060  12.645  11.228   7.928
14429SOL    HW145061  12.716  11.288   7.952
14429SOL    HW245062  12.567  11.283   7.923
14430SOL     OW45063   4.515   6.177   2.177
14430SOL    HW145064   4.540   6.205   2.089
14430SOL    HW245065   4.485   6.257   2.220
14431SOL     OW45066  12.261   8.689   9.560
14431SOL    HW145067  12.346   8.667   9.595
14431SOL    HW245068  12.264   8.784   9.547
14432SOL     OW45069  12.517   2.835   1.891
14432SOL    HW145070  12.508   2.880   1.807
14432SOL    HW245071  12.529   2.743   1.867
14433SOL     OW45072  14.008   4.244   3.602
14433SOL    HW145073  14.051   4.160   3.619
14433SOL    HW245074  13.973   4.236   3.513
14434SOL     OW45075   4.335   7.031   1.976
14434SOL    HW145076   4.295   6.957   1.931
14434SOL    HW245077   4.381   6.991   2.050
14435SOL     OW45078  11.993  13.783  10.642
14435SOL    HW145079  11.965  13.766  10.552
14435SOL    HW245080  12.088  13.777  10.638
14436SOL     OW45081   7.761  14.395   6.526
14436SOL    HW145082   7.675  14.358   6.543
14436SOL    HW245083   7.816  14.364   6.598
14437SOL     OW45084   1.900  14.586  12.861
14437SOL    HW145085   1.815  14.591  12.816
14437SOL    HW245086   1.953  14.530  12.805
14438SOL     OW45087   8.650   7.249   2.370
14438SOL    HW145088   8.567   7.297   2.377
14438SOL    HW245089   8.637   7.187   2.299
14439SOL     OW45090   3.660  13.176   5.525
14439SOL    HW145091   3.748  13.204   5.550
14439SOL    HW245092   3.640  13.228   5.447
14440SOL     OW45093   5.939   9.235   0.467
14440SOL    HW145094   5.845   9.230   0.454
14440SOL    HW245095   5.968   9.310   0.415
14441SOL     OW45096  11.121   6.579   0.864
14441SOL    HW145097  11.085   6.547   0.947
14441SOL    HW245098  11.126   6.501   0.808
14442SOL     OW45099   1.238  11.598  10.738
14442SOL    HW145100   1.170  11.662  10.715
14442SOL    HW245101   1.317  11.651  10.749
14443SOL     OW45102  11.463   8.504   4.681
14443SOL    HW145103  11.420   8.564   4.620
14443SOL    HW245104  11.503   8.437   4.625
14444SOL     OW45105   0.076   1.266  14.122
14444SOL    HW145106   0.156   1.284  14.073
14444SOL    HW245107   0.033   1.351  14.130
14445SOL     OW45108  14.139  11.089   2.800
14445SOL    HW145109  14.119  11.010   2.750
14445SOL    HW245110  14.056  11.115   2.839
14446SOL     OW45111   4.462  11.750   2.355
14446SOL    HW145112   4.451  11.838   2.391
14446SOL    HW245113   4.374  11.714   2.353
14447SOL     OW45114   4.816   5.117   5.467
14447SOL    HW145115   4.832   5.173   5.392
14447SOL    HW245116   4.875   5.043   5.455
14448SOL     OW45117   8.857  14.234   5.831
14448SOL    HW145118   8.831  14.293   5.902
14448SOL    HW245119   8.774  14.200   5.796
14449SOL     OW45120   9.133  11.585   9.028
14449SOL    HW145121   9.109  11.540   9.109
14449SOL    HW245122   9.227  11.602   9.036
14450SOL     OW45123  10.416  10.170   5.455
14450SOL    HW145124  10.441  10.225   5.381
14450SOL    HW245125  10.499  10.141   5.493
14451SOL     OW45126   9.534  10.646  12.365
14451SOL    HW145127   9.619  10.680  12.338
14451SOL    HW245128   9.554  10.563  12.409
14452SOL     OW45129  12.103  10.116   2.293
14452SOL    HW145130  12.067  10.042   2.245
14452SOL    HW245131  12.195  10.095   2.305
14453SOL     OW45132  14.630  14.631   3.285
14453SOL    HW145133  14.535  14.642   3.291
14453SOL    HW245134  14.666  14.715   3.310
14454SOL     OW45135   4.371   6.270   0.139
14454SOL    HW145136   4.308   6.256   0.068
14454SOL    HW245137   4.415   6.186   0.149
14455SOL     OW45138  13.716   3.428  13.255
14455SOL    HW145139  13.642   3.487  13.271
14455SOL    HW245140  13.680   3.358  13.201
14456SOL     OW45141   7.332   6.635   2.741
14456SOL    HW145142   7.357   6.583   2.664
14456SOL    HW245143   7.360   6.582   2.815
14457SOL     OW45144   6.453   9.522  12.290
14457SOL    HW145145   6.428   9.575  12.214
14457SOL    HW245146   6.387   9.453  12.295
14458SOL     OW45147   4.025   3.498  13.089
14458SOL    HW145148   4.032   3.468  13.180
14458SOL    HW245149   4.043   3.591  13.093
14459SOL     OW45150  11.170   9.726   1.381
14459SOL    HW145151  11.259   9.699   1.356
14459SOL    HW245152  11.182   9.811   1.424
14460SOL     OW45153  11.331   8.625   4.472
14460SOL    HW145154  11.276   8.685   4.522
14460SOL    HW245155  11.274   8.552   4.450
14461SOL     OW45156  14.239   9.043  12.597
14461SOL    HW145157  14.167   8.980  12.596
14461SOL    HW245158  14.307   9.002  12.543
14462SOL     OW45159   5.984  12.131  12.437
14462SOL    HW145160   5.936  12.192  12.382
14462SOL    HW245161   6.064  12.177  12.462
14463SOL     OW45162  13.297   4.316   6.080
14463SOL    HW145163  13.213   4.331   6.121
14463SOL    HW245164  13.354   4.285   6.151
14464SOL     OW45165   8.658   2.053  12.172
14464SOL    HW145166   8.680   2.145  12.186
14464SOL    HW245167   8.737   2.005  12.199
14465SOL     OW45168  13.645   6.067   7.855
14465SOL    HW145169  13.593   6.054   7.776
14465SOL    HW245170  13.587   6.041   7.927
14466SOL     OW45171   6.310   5.261   4.777
14466SOL    HW145172   6.277   5.323   4.842
14466SOL    HW245173   6.318   5.178   4.826
14467SOL     OW45174   9.822  13.228   2.994
14467SOL    HW145175   9.775  13.145   2.985
14467SOL    HW245176   9.886  13.212   3.063
14468SOL     OW45177   6.074   7.063  14.560
14468SOL    HW145178   5.981   7.085  14.554
14468SOL    HW245179   6.119   7.147  14.567
14469SOL     OW45180   1.587   3.448   1.277
14469SOL    HW145181   1.553   3.374   1.327
14469SOL    HW245182   1.607   3.412   1.191
14470SOL     OW45183   0.385   8.761   8.987
14470SOL    HW145184   0.415   8.851   8.982
14470SOL    HW245185   0.307   8.765   9.042
14471SOL     OW45186  11.591  13.342   4.585
14471SOL    HW145187  11.651  13.275   4.551
14471SOL    HW245188  11.504  13.305   4.571
14472SOL     OW45189  14.279   5.974   0.810
14472SOL    HW145190  14.307   5.931   0.891
14472SOL    HW245191  14.355   6.026   0.784
14473SOL     OW45192   5.063   5.376   3.094
14473SOL    HW145193   5.128   5.443   3.072
14473SOL    HW245194   5.113   5.296   3.104
14474SOL     OW45195   0.020   1.105  11.462
14474SOL    HW145196  14.872   1.158  11.388
14474SOL    HW245197  14.821   1.084  11.510
14475SOL     OW45198   4.452   9.341   2.812
14475SOL    HW145199   4.530   9.308   2.767
14475SOL    HW245200   4.413   9.402   2.750
14476SOL     OW45201  10.123  11.747  12.408
14476SOL    HW145202  10.109  11.819  12.470
14476SOL    HW245203  10.108  11.668  12.460
14477SOL     OW45204   6.688   3.676   5.728
14477SOL    HW145205   6.773   3.717   5.712
14477SOL    HW245206   6.636   3.699   5.651
14478SOL     OW45207  12.913   9.238   6.716
14478SOL    HW145208  12.865   9.165   6.755
14478SOL    HW245209  13.005   9.217   6.734
14479SOL     OW45210   6.202  10.065   6.345
14479SOL    HW145211   6.127  10.122   6.365
14479SOL    HW245212   6.163   9.979   6.332
14480SOL     OW45213   8.772   0.917  12.173
14480SOL    HW145214   8.859   0.947  12.198
14480SOL    HW245215   8.723   0.912  12.255
14481SOL     OW45216   1.447  14.722   6.461
14481SOL    HW145217   1.518  14.728   6.525
14481SOL    HW245218   1.480  14.767   6.383
14482SOL     OW45219   0.253   7.180   6.685
14482SOL    HW145220   0.166   7.217   6.704
14482SOL    HW245221   0.286   7.152   6.770
14483SOL     OW45222  13.484   2.633   2.812
14483SOL    HW145223  13.425   2.565   2.779
14483SOL    HW245224  13.452   2.714   2.772
14484SOL     OW45225  14.293   5.456  10.602
14484SOL    HW145226  14.272   5.382  10.545
14484SOL    HW245227  14.330   5.522  10.542
14485SOL     OW45228   1.660   0.858   4.276
14485SOL    HW145229   1.625   0.837   4.363
14485SOL    HW245230   1.730   0.921   4.293
14486SOL     OW45231   1.500  13.355   0.317
14486SOL    HW145232   1.498  13.284   0.253
14486SOL    HW245233   1.437  13.419   0.285
14487SOL     OW45234   1.847   9.014   3.737
14487SOL    HW145235   1.918   9.078   3.744
14487SOL    HW245236   1.830   9.006   3.643
14488SOL     OW45237   1.652  13.551   9.608
14488SOL    HW145238   1.621  13.511   9.689
14488SOL    HW245239   1.690  13.478   9.559
14489SOL     OW45240   3.224  10.988   2.632
14489SOL    HW145241   3.152  11.038   2.593
14489SOL    HW245242   3.253  11.042   2.705
14490SOL     OW45243   1.895  11.770   5.121
14490SOL    HW145244   1.822  11.832   5.122
14490SOL    HW245245   1.953  11.798   5.191
14491SOL     OW45246   2.363   4.549   7.078
14491SOL    HW145247   2.388   4.623   7.022
14491SOL    HW245248   2.267   4.552   7.080
14492SOL     OW45249   2.300   5.656  11.258
14492SOL    HW145250   2.262   5.630  11.342
14492SOL    HW245251   2.360   5.584  11.236
14493SOL     OW45252   2.236   9.384   2.441
14493SOL    HW145253   2.265   9.416   2.527
14493SOL    HW245254   2.316   9.350   2.401
14494SOL     OW45255   6.113   7.269  11.636
14494SOL    HW145256   6.162   7.188  11.624
14494SOL    HW245257   6.117   7.312  11.550
14495SOL     OW45258   9.830   3.838  11.337
14495SOL    HW145259   9.905   3.897  11.349
14495SOL    HW245260   9.781   3.845  11.418
14496SOL     OW45261   6.269   5.479   4.967
14496SOL    HW145262   6.192   5.515   5.011
14496SOL    HW245263   6.318   5.556   4.937
14497SOL     OW45264   0.338   6.359  12.363
14497SOL    HW145265   0.318   6.418  12.290
14497SOL    HW245266   0.344   6.417  12.439
14498SOL     OW45267   5.418   9.746   1.782
14498SOL    HW145268   5.391   9.698   1.703
14498SOL    HW245269   5.348   9.810   1.796
14499SOL     OW45270   1.613   2.989  10.802
14499SOL    HW145271   1.603   3.011  10.894
14499SOL    HW245272   1.703   3.014  10.780
14500SOL     OW45273   1.813   7.495   3.070
14500SOL    HW145274   1.823   7.556   2.998
14500SOL    HW245275   1.892   7.506   3.123
14501SOL     OW45276  11.106   8.751  12.802
14501SOL    HW145277  11.120   8.701  12.722
14501SOL    HW245278  11.011   8.760  12.809
14502SOL     OW45279  11.699   8.473  14.246
14502SOL    HW145280  11.745   8.389  14.252
14502SOL    HW245281  11.725   8.509  14.161
14503SOL     OW45282   1.190  14.602   6.025
14503SOL    HW145283   1.151  14.583   5.940
14503SOL    HW245284   1.242  14.681   6.010
14504SOL     OW45285   2.179   0.362   5.232
14504SOL    HW145286   2.107   0.375   5.170
14504SOL    HW245287   2.253   0.409   5.193
14505SOL     OW45288   7.170   2.249  10.619
14505SOL    HW145289   7.235   2.253  10.689
14505SOL    HW245290   7.193   2.170  10.570
14506SOL     OW45291   2.688  11.472   0.069
14506SOL    HW145292   2.628  11.518   0.010
14506SOL    HW245293   2.665  11.502   0.156
14507SOL     OW45294   3.901  10.872   5.417
14507SOL    HW145295   3.882  10.795   5.472
14507SOL    HW245296   3.935  10.937   5.478
14508SOL     OW45297   8.733  13.335  14.314
14508SOL    HW145298   8.773  13.418  14.339
14508SOL    HW245299   8.639  13.354  14.312
14509SOL     OW45300   5.889  13.499   8.132
14509SOL    HW145301   5.868  13.592   8.117
14509SOL    HW245302   5.982  13.499   8.156
14510SOL     OW45303  12.741   2.378   8.309
14510SOL    HW145304  12.793   2.389   8.388
14510SOL    HW245305  12.781   2.303   8.264
14511SOL     OW45306   4.512  11.958   9.274
14511SOL    HW145307   4.495  11.870   9.243
14511SOL    HW245308   4.607  11.968   9.269
14512SOL     OW45309   5.266  13.894  10.862
14512SOL    HW145310   5.355  13.914  10.891
14512SOL    HW245311   5.260  13.932  10.775
14513SOL     OW45312   3.871   0.467  14.082
14513SOL    HW145313   3.793   0.471  14.136
14513SOL    HW245314   3.932   0.411  14.131
14514SOL     OW45315  14.658   4.123  10.229
14514SOL    HW145316  14.680   4.122  10.323
14514SOL    HW245317  14.584   4.183  10.223
14515SOL     OW45318  11.436  10.887   3.798
14515SOL    HW145319  11.472  10.857   3.882
14515SOL    HW245320  11.389  10.811   3.764
14516SOL     OW45321   4.730   0.620   8.668
14516SOL    HW145322   4.643   0.606   8.707
14516SOL    HW245323   4.718   0.693   8.608
14517SOL     OW45324   4.073   4.557   5.676
14517SOL    HW145325   4.038   4.570   5.764
14517SOL    HW245326   4.070   4.645   5.637
14518SOL     OW45327  11.914   2.780  10.756
14518SOL    HW145328  11.966   2.765  10.835
14518SOL    HW245329  11.862   2.701  10.745
14519SOL     OW45330   1.551   6.466   1.949
14519SOL    HW145331   1.560   6.377   1.984
14519SOL    HW245332   1.541   6.453   1.855
14520SOL     OW45333   7.069   3.208  13.059
14520SOL    HW145334   7.124   3.235  13.132
14520SOL    HW245335   7.066   3.113  13.065
14521SOL     OW45336  11.880   7.227  11.524
14521SOL    HW145337  11.847   7.144  11.559
14521SOL    HW245338  11.936   7.261  11.594
14522SOL     OW45339   0.100   7.520   8.797
14522SOL    HW145340   0.046   7.558   8.866
14522SOL    HW245341   0.080   7.572   8.719
14523SOL     OW45342   8.813   3.006  13.518
14523SOL    HW145343   8.842   3.062  13.590
14523SOL    HW245344   8.789   3.067  13.448
14524SOL     OW45345  11.431   1.623   3.217
14524SOL    HW145346  11.425   1.656   3.306
14524SOL    HW245347  11.517   1.581   3.213
14525SOL     OW45348  12.371  12.396  12.548
14525SOL    HW145349  12.426  12.356  12.615
14525SOL    HW245350  12.289  12.415  12.593
14526SOL     OW45351  10.435   0.140   7.230
14526SOL    HW145352  10.456   0.228   7.260
14526SOL    HW245353  10.520   0.097   7.220
14527SOL     OW45354   4.011  14.569   5.754
14527SOL    HW145355   3.997  14.483   5.714
14527SOL    HW245356   4.078  14.554   5.820
14528SOL     OW45357   9.739   1.678  14.746
14528SOL    HW145358   9.791   1.665  14.826
14528SOL    HW245359   9.795   1.643  14.677
14529SOL     OW45360   8.601   7.230  11.276
14529SOL    HW145361   8.678   7.198  11.321
14529SOL    HW245362   8.533   7.233  11.343
14530SOL     OW45363   0.756   7.745   9.678
14530SOL    HW145364   0.810   7.822   9.692
14530SOL    HW245365   0.794   7.702   9.602
14531SOL     OW45366   8.550  13.350  10.598
14531SOL    HW145367   8.635  13.352  10.553
14531SOL    HW245368   8.504  13.428  10.566
14532SOL     OW45369   1.800   6.779   5.518
14532SOL    HW145370   1.874   6.749   5.570
14532SOL    HW245371   1.723   6.746   5.564
14533SOL     OW45372   9.511  13.640   1.596
14533SOL    HW145373   9.495  13.546   1.609
14533SOL    HW245374   9.484  13.657   1.506
14534SOL     OW45375   6.495  13.513  11.683
14534SOL    HW145376   6.432  13.584  11.698
14534SOL    HW245377   6.440  13.438  11.661
14535SOL     OW45378   6.754   4.935   7.299
14535SOL    HW145379   6.753   4.845   7.267
14535SOL    HW245380   6.724   4.929   7.390
14536SOL     OW45381   4.439   5.683   5.300
14536SOL    HW145382   4.402   5.650   5.382
14536SOL    HW245383   4.533   5.693   5.318
14537SOL     OW45384  11.012   4.476  11.378
14537SOL    HW145385  10.975   4.394  11.411
14537SOL    HW245386  11.035   4.525  11.458
14538SOL     OW45387  13.711   8.858   0.843
14538SOL    HW145388  13.710   8.816   0.930
14538SOL    HW245389  13.648   8.929   0.850
14539SOL     OW45390   7.005   6.321   9.683
14539SOL    HW145391   6.913   6.297   9.689
14539SOL    HW245392   7.012   6.400   9.737
14540SOL     OW45393   8.898   5.492   3.306
14540SOL    HW145394   8.966   5.533   3.252
14540SOL    HW245395   8.826   5.476   3.245
14541SOL     OW45396  13.586  13.151   7.669
14541SOL    HW145397  13.678  13.162   7.647
14541SOL    HW245398  13.543  13.230   7.637
14542SOL     OW45399   1.977   1.113  14.772
14542SOL    HW145400   1.942   1.024  14.767
14542SOL    HW245401   2.068   1.104  14.744
14543SOL     OW45402  11.224   3.262   6.703
14543SOL    HW145403  11.171   3.201   6.652
14543SOL    HW245404  11.221   3.344   6.655
14544SOL     OW45405   2.831  11.573   5.183
14544SOL    HW145406   2.865  11.508   5.245
14544SOL    HW245407   2.906  11.628   5.163
14545SOL     OW45408   0.836   9.303   9.700
14545SOL    HW145409   0.861   9.223   9.747
14545SOL    HW245410   0.743   9.314   9.720
14546SOL     OW45411  12.145  12.083   0.480
14546SOL    HW145412  12.221  12.044   0.437
14546SOL    HW245413  12.132  12.030   0.559
14547SOL     OW45414  14.695  10.898   9.004
14547SOL    HW145415  14.642  10.894   8.925
14547SOL    HW245416  14.770  10.842   8.986
14548SOL     OW45417   6.972   6.364   3.136
14548SOL    HW145418   7.007   6.370   3.225
14548SOL    HW245419   7.029   6.421   3.084
14549SOL     OW45420   3.958  13.332  10.142
14549SOL    HW145421   3.974  13.425  10.125
14549SOL    HW245422   3.884  13.332  10.204
14550SOL     OW45423   8.779  11.246   1.540
14550SOL    HW145424   8.825  11.328   1.554
14550SOL    HW245425   8.825  11.205   1.466
14551SOL     OW45426   5.919  13.201   7.519
14551SOL    HW145427   6.006  13.187   7.556
14551SOL    HW245428   5.922  13.289   7.482
14552SOL     OW45429   5.398  11.899   8.328
14552SOL    HW145430   5.366  11.814   8.358
14552SOL    HW245431   5.493  11.894   8.338
14553SOL     OW45432   2.222   1.761  11.319
14553SOL    HW145433   2.264   1.844  11.297
14553SOL    HW245434   2.155   1.785  11.384
14554SOL     OW45435  13.354  11.452  10.081
14554SOL    HW145436  13.310  11.537  10.074
14554SOL    HW245437  13.399  11.456  10.165
14555SOL     OW45438   6.917   6.326   4.130
14555SOL    HW145439   6.951   6.330   4.219
14555SOL    HW245440   6.848   6.393   4.128
14556SOL     OW45441   6.465   9.046  14.014
14556SOL    HW145442   6.536   9.003  14.062
14556SOL    HW245443   6.451   8.992  13.936
14557SOL     OW45444   9.011  13.239   1.184
14557SOL    HW145445   8.981  13.295   1.256
14557SOL    HW245446   9.051  13.300   1.122
14558SOL     OW45447   7.681  10.312   7.795
14558SOL    HW145448   7.619  10.382   7.813
14558SOL    HW245449   7.746  10.319   7.865
14559SOL     OW45450   2.464  14.273  12.911
14559SOL    HW145451   2.417  14.270  12.994
14559SOL    HW245452   2.435  14.195  12.864
14560SOL     OW45453  11.728   3.927  11.745
14560SOL    HW145454  11.640   3.922  11.782
14560SOL    HW245455  11.773   3.991  11.800
14561SOL     OW45456   1.562   4.909   6.693
14561SOL    HW145457   1.618   4.981   6.721
14561SOL    HW245458   1.499   4.899   6.764
14562SOL     OW45459   6.813  14.341   6.141
14562SOL    HW145460   6.777  14.284   6.073
14562SOL    HW245461   6.852  14.414   6.093
14563SOL     OW45462   6.898  14.794   6.741
14563SOL    HW145463   6.823  14.852   6.726
14563SOL    HW245464   6.865  14.706   6.723
14564SOL     OW45465  14.381  11.625   2.743
14564SOL    HW145466  14.328  11.638   2.665
14564SOL    HW245467  14.320  11.639   2.816
14565SOL     OW45468   7.316   7.999  13.354
14565SOL    HW145469   7.253   8.047  13.407
14565SOL    HW245470   7.290   8.018  13.264
14566SOL     OW45471   8.693   4.502   9.142
14566SOL    HW145472   8.753   4.509   9.067
14566SOL    HW245473   8.743   4.536   9.216
14567SOL     OW45474   0.841   6.873   5.210
14567SOL    HW145475   0.797   6.808   5.265
14567SOL    HW245476   0.931   6.877   5.244
14568SOL     OW45477  14.850  13.740   3.843
14568SOL    HW145478  14.859  13.777   3.931
14568SOL    HW245479  14.826  13.814   3.787
14569SOL     OW45480   7.040   8.957   3.942
14569SOL    HW145481   6.956   9.003   3.936
14569SOL    HW245482   7.071   8.954   3.852
14570SOL     OW45483   9.822   5.399   1.624
14570SOL    HW145484   9.774   5.387   1.706
14570SOL    HW245485   9.784   5.478   1.586
14571SOL     OW45486  11.895   5.023  13.122
14571SOL    HW145487  11.876   4.950  13.181
14571SOL    HW245488  11.858   4.996  13.038
14572SOL     OW45489   6.966  14.117   0.869
14572SOL    HW145490   7.016  14.056   0.815
14572SOL    HW245491   6.920  14.062   0.933
14573SOL     OW45492  12.415   6.787   0.330
14573SOL    HW145493  12.359   6.784   0.252
14573SOL    HW245494  12.497   6.746   0.303
14574SOL     OW45495   4.145   0.409  11.801
14574SOL    HW145496   4.181   0.420  11.889
14574SOL    HW245497   4.050   0.415  11.813
14575SOL     OW45498  12.007   4.700   8.181
14575SOL    HW145499  11.999   4.786   8.140
14575SOL    HW245500  11.922   4.686   8.224
14576SOL     OW45501   7.368   5.103   9.251
14576SOL    HW145502   7.388   5.019   9.209
14576SOL    HW245503   7.275   5.118   9.232
14577SOL     OW45504   7.547   2.733   9.590
14577SOL    HW145505   7.611   2.664   9.607
14577SOL    HW245506   7.498   2.702   9.514
14578SOL     OW45507   3.044   2.023   2.610
14578SOL    HW145508   2.979   2.070   2.558
14578SOL    HW245509   3.100   2.091   2.647
14579SOL     OW45510   2.351  13.791   7.219
14579SOL    HW145511   2.291  13.716   7.217
14579SOL    HW245512   2.314  13.850   7.285
14580SOL     OW45513   5.315   9.310  12.866
14580SOL    HW145514   5.257   9.358  12.924
14580SOL    HW245515   5.293   9.340  12.778
14581SOL     OW45516   7.464   0.286   4.810
14581SOL    HW145517   7.406   0.314   4.739
14581SOL    HW245518   7.530   0.232   4.766
14582SOL     OW45519   5.124   7.840   6.060
14582SOL    HW145520   5.206   7.802   6.093
14582SOL    HW245521   5.123   7.929   6.094
14583SOL     OW45522   7.751   8.930  10.077
14583SOL    HW145523   7.756   8.907  10.170
14583SOL    HW245524   7.814   8.873  10.034
14584SOL     OW45525   3.480   1.673   1.841
14584SOL    HW145526   3.428   1.738   1.888
14584SOL    HW245527   3.570   1.686   1.873
14585SOL     OW45528   1.965  13.500   1.323
14585SOL    HW145529   2.041  13.537   1.369
14585SOL    HW245530   1.892  13.514   1.384
14586SOL     OW45531   6.974  10.423  13.894
14586SOL    HW145532   6.983  10.334  13.860
14586SOL    HW245533   6.963  10.411  13.988
14587SOL     OW45534   4.109  14.090  13.672
14587SOL    HW145535   4.131  14.137  13.752
14587SOL    HW245536   4.192  14.082  13.625
14588SOL     OW45537  11.023   9.679   5.810
14588SOL    HW145538  11.044   9.597   5.765
14588SOL    HW245539  11.093   9.690   5.874
14589SOL     OW45540   2.157  10.895   2.978
14589SOL    HW145541   2.191  10.977   3.013
14589SOL    HW245542   2.178  10.898   2.885
14590SOL     OW45543  14.749   0.040   4.113
14590SOL    HW145544  14.840   0.066   4.121
14590SOL    HW245545  14.741  14.842   4.166
14591SOL     OW45546   9.475   6.315   9.256
14591SOL    HW145547   9.392   6.343   9.295
14591SOL    HW245548   9.535   6.388   9.273
14592SOL     OW45549  10.075   6.930  12.352
14592SOL    HW145550   9.988   6.936  12.313
14592SOL    HW245551  10.122   6.867  12.297
14593SOL     OW45552   3.090  14.507  10.812
14593SOL    HW145553   3.019  14.519  10.875
14593SOL    HW245554   3.081  14.417  10.783
14594SOL     OW45555   4.899   4.378   5.968
14594SOL    HW145556   4.895   4.416   5.880
14594SOL    HW245557   4.992   4.383   5.992
14595SOL     OW45558   5.475   5.923   5.747
14595SOL    HW145559   5.415   5.907   5.674
14595SOL    HW245560   5.417   5.945   5.821
14596SOL     OW45561  14.387   3.886   9.101
14596SOL    HW145562  14.470   3.934   9.091
14596SOL    HW245563  14.359   3.907   9.190
14597SOL     OW45564   7.849   1.890  12.648
14597SOL    HW145565   7.917   1.957  12.650
14597SOL    HW245566   7.898   1.807  12.638
14598SOL     OW45567  11.384   3.666  13.731
14598SOL    HW145568  11.388   3.576  13.700
14598SOL    HW245569  11.462   3.675  13.787
14599SOL     OW45570   8.219  11.331   9.664
14599SOL    HW145571   8.265  11.252   9.636
14599SOL    HW245572   8.127  11.307   9.663
14600SOL     OW45573   7.757   8.710   6.624
14600SOL    HW145574   7.739   8.804   6.633
14600SOL    HW245575   7.688   8.678   6.567
14601SOL     OW45576  10.844   9.438  13.613
14601SOL    HW145577  10.867   9.519  13.657
14601SOL    HW245578  10.854   9.457  13.520
14602SOL     OW45579   3.413   9.871  11.013
14602SOL    HW145580   3.475   9.942  10.994
14602SOL    HW245581   3.338   9.888  10.958
14603SOL     OW45582  10.898   6.314  14.456
14603SOL    HW145583  10.883   6.265  14.375
14603SOL    HW245584  10.964   6.379  14.432
14604SOL     OW45585  11.231   1.727   2.245
14604SOL    HW145586  11.251   1.633   2.245
14604SOL    HW245587  11.287   1.763   2.314
14605SOL     OW45588   5.363  11.741  13.481
14605SOL    HW145589   5.456  11.753  13.499
14605SOL    HW245590   5.333  11.827  13.451
14606SOL     OW45591  11.556  14.195   4.009
14606SOL    HW145592  11.578  14.190   4.102
14606SOL    HW245593  11.638  14.176   3.964
14607SOL     OW45594   9.043   7.920  11.862
14607SOL    HW145595   9.045   7.968  11.945
14607SOL    HW245596   9.115   7.958  11.811
14608SOL     OW45597   7.895   4.635   6.654
14608SOL    HW145598   7.977   4.674   6.683
14608SOL    HW245599   7.827   4.689   6.694
14609SOL     OW45600   5.281   8.334   0.661
14609SOL    HW145601   5.224   8.394   0.710
14609SOL    HW245602   5.315   8.388   0.589
14610SOL     OW45603   5.973   3.872   2.286
14610SOL    HW145604   5.986   3.797   2.344
14610SOL    HW245605   5.902   3.845   2.227
14611SOL     OW45606  14.747   5.347  10.659
14611SOL    HW145607  14.766   5.433  10.620
14611SOL    HW245608  14.657   5.328  10.632
14612SOL     OW45609   0.362   4.923   4.204
14612SOL    HW145610   0.349   4.899   4.295
14612SOL    HW245611   0.392   5.014   4.206
14613SOL     OW45612   7.645  11.724  13.885
14613SOL    HW145613   7.598  11.739  13.803
14613SOL    HW245614   7.583  11.678  13.941
14614SOL     OW45615   0.270   0.923  13.229
14614SOL    HW145616   0.204   0.993  13.230
14614SOL    HW245617   0.220   0.842  13.240
14615SOL     OW45618   8.467  11.839  12.861
14615SOL    HW145619   8.449  11.793  12.943
14615SOL    HW245620   8.553  11.879  12.875
14616SOL     OW45621   0.585   2.353   5.935
14616SOL    HW145622   0.590   2.430   5.992
14616SOL    HW245623   0.544   2.286   5.990
14617SOL     OW45624   0.188   5.229   2.371
14617SOL    HW145625   0.257   5.177   2.412
14617SOL    HW245626   0.134   5.258   2.444
14618SOL     OW45627  11.128   7.359  11.599
14618SOL    HW145628  11.041   7.374  11.562
14618SOL    HW245629  11.188   7.371  11.525
14619SOL     OW45630  13.384  11.457   8.580
14619SOL    HW145631  13.372  11.381   8.524
14619SOL    HW245632  13.476  11.482   8.567
14620SOL     OW45633  14.433  10.977   8.750
14620SOL    HW145634  14.415  10.984   8.656
14620SOL    HW245635  14.528  10.974   8.756
14621SOL     OW45636   7.656   3.063  14.088
14621SOL    HW145637   7.612   3.149  14.089
14621SOL    HW245638   7.593   3.003  14.128
14622SOL     OW45639   3.275   7.240   7.041
14622SOL    HW145640   3.216   7.240   6.966
14622SOL    HW245641   3.270   7.329   7.075
14623SOL     OW45642  11.910   1.648   9.949
14623SOL    HW145643  11.952   1.731   9.927
14623SOL    HW245644  11.853   1.669  10.024
14624SOL     OW45645  12.223   5.982  12.967
14624SOL    HW145646  12.273   6.062  12.986
14624SOL    HW245647  12.228   5.931  13.048
14625SOL     OW45648  14.378   7.058   3.490
14625SOL    HW145649  14.350   7.133   3.542
14625SOL    HW245650  14.334   7.070   3.405
14626SOL     OW45651   3.457   8.077   3.163
14626SOL    HW145652   3.515   8.110   3.231
14626SOL    HW245653   3.438   7.987   3.191
14627SOL     OW45654   0.183  11.816  11.968
14627SOL    HW145655   0.138  11.732  11.976
14627SOL    HW245656   0.122  11.871  11.918
14628SOL     OW45657  14.511   3.715   4.044
14628SOL    HW145658  14.580   3.679   4.101
14628SOL    HW245659  14.430   3.694   4.090
14629SOL     OW45660  13.150  13.371   2.181
14629SOL    HW145661  13.184  13.419   2.106
14629SOL    HW245662  13.055  13.371   2.168
14630SOL     OW45663  14.288  11.279   9.350
14630SOL    HW145664  14.320  11.257   9.262
14630SOL    HW245665  14.367  11.295   9.401
14631SOL     OW45666   0.229   6.105   1.929
14631SOL    HW145667   0.282   6.026   1.916
14631SOL    HW245668   0.283   6.176   1.893
14632SOL     OW45669   6.484   1.061   1.669
14632SOL    HW145670   6.521   1.117   1.737
14632SOL    HW245671   6.397   1.098   1.652
14633SOL     OW45672  12.737  12.200   8.400
14633SOL    HW145673  12.678  12.244   8.460
14633SOL    HW245674  12.723  12.107   8.416
14634SOL     OW45675  12.117  12.519   4.692
14634SOL    HW145676  12.067  12.445   4.728
14634SOL    HW245677  12.095  12.593   4.747
14635SOL     OW45678  14.652   6.202   8.584
14635SOL    HW145679  14.719   6.133   8.577
14635SOL    HW245680  14.702   6.283   8.582
14636SOL     OW45681   0.331   8.251  14.534
14636SOL    HW145682   0.238   8.272  14.542
14636SOL    HW245683   0.342   8.228  14.442
14637SOL     OW45684   5.017   0.936  12.120
14637SOL    HW145685   5.029   1.030  12.103
14637SOL    HW245686   4.927   0.918  12.092
14638SOL     OW45687   2.242   6.118   8.361
14638SOL    HW145688   2.295   6.173   8.303
14638SOL    HW245689   2.303   6.090   8.430
14639SOL     OW45690  14.657  12.404  10.332
14639SOL    HW145691  14.712  12.483  10.333
14639SOL    HW245692  14.704  12.342  10.388
14640SOL     OW45693   8.912  13.770   9.706
14640SOL    HW145694   8.954  13.833   9.648
14640SOL    HW245695   8.820  13.770   9.678
14641SOL     OW45696   5.110  13.103   3.522
14641SOL    HW145697   5.133  13.195   3.535
14641SOL    HW245698   5.025  13.093   3.566
14642SOL     OW45699  12.285   9.363   6.005
14642SOL    HW145700  12.288   9.459   6.014
14642SOL    HW245701  12.342   9.344   5.930
14643SOL     OW45702   0.837   8.785   0.842
14643SOL    HW145703   0.931   8.765   0.834
14643SOL    HW245704   0.794   8.713   0.796
14644SOL     OW45705   0.002  10.299  10.313
14644SOL    HW145706   0.029  10.287  10.222
14644SOL    HW245707  14.832  10.220  10.333
14645SOL     OW45708  10.071   2.889   0.739
14645SOL    HW145709  10.118   2.822   0.787
14645SOL    HW245710  10.127   2.967   0.744
14646SOL     OW45711  10.496  10.194   3.232
14646SOL    HW145712  10.530  10.105   3.223
14646SOL    HW245713  10.403  10.182   3.254
14647SOL     OW45714  12.196  13.033   4.366
14647SOL    HW145715  12.190  13.045   4.271
14647SOL    HW245716  12.286  13.003   4.380
14648SOL     OW45717   3.994   5.340  14.837
14648SOL    HW145718   3.954   5.377  14.758
14648SOL    HW245719   4.019   5.417   0.007
14649SOL     OW45720  11.567  13.598   7.590
14649SOL    HW145721  11.630  13.657   7.632
14649SOL    HW245722  11.524  13.553   7.663
14650SOL     OW45723   4.172   9.817   5.217
14650SOL    HW145724   4.153   9.897   5.169
14650SOL    HW245725   4.215   9.847   5.297
14651SOL     OW45726  14.786  11.756   5.848
14651SOL    HW145727  14.704  11.754   5.798
14651SOL    HW245728  14.851  11.718   5.789
14652SOL     OW45729  11.042  11.373  12.963
14652SOL    HW145730  10.985  11.450  12.968
14652SOL    HW245731  11.076  11.375  12.874
14653SOL     OW45732   7.900  13.089  10.555
14653SOL    HW145733   7.889  13.097  10.461
14653SOL    HW245734   7.835  13.024  10.582
14654SOL     OW45735   0.075   9.571  14.393
14654SOL    HW145736   0.025   9.648  14.420
14654SOL    HW245737   0.153   9.572  14.448
14655SOL     OW45738  10.347   2.975  14.400
14655SOL    HW145739  10.295   2.902  14.365
14655SOL    HW245740  10.436   2.940  14.407
14656SOL     OW45741   4.165  14.094   5.622
14656SOL    HW145742   4.250  14.136   5.610
14656SOL    HW245743   4.135  14.125   5.708
14657SOL     OW45744   3.529  10.203   0.608
14657SOL    HW145745   3.499  10.243   0.690
14657SOL    HW245746   3.499  10.263   0.540
14658SOL     OW45747   9.109   7.208   1.745
14658SOL    HW145748   9.131   7.121   1.779
14658SOL    HW245749   9.020   7.199   1.712
14659SOL     OW45750  11.785  12.959   8.405
14659SOL    HW145751  11.751  13.048   8.414
14659SOL    HW245752  11.877  12.966   8.430
14660SOL     OW45753   1.603   6.440   3.930
14660SOL    HW145754   1.575   6.516   3.982
14660SOL    HW245755   1.527   6.419   3.875
14661SOL     OW45756   0.641   1.805   4.936
14661SOL    HW145757   0.598   1.750   5.002
14661SOL    HW245758   0.658   1.888   4.981
14662SOL     OW45759   1.268   5.153   6.565
14662SOL    HW145760   1.270   5.058   6.572
14662SOL    HW245761   1.354   5.177   6.530
14663SOL     OW45762  11.492   6.966  11.302
14663SOL    HW145763  11.526   7.051  11.275
14663SOL    HW245764  11.527   6.904  11.238
14664SOL     OW45765   3.090   3.607   7.478
14664SOL    HW145766   3.121   3.527   7.520
14664SOL    HW245767   3.004   3.623   7.516
14665SOL     OW45768   8.125  12.471   7.182
14665SOL    HW145769   8.093  12.381   7.183
14665SOL    HW245770   8.182  12.476   7.259
14666SOL     OW45771   5.966   1.493  14.351
14666SOL    HW145772   5.910   1.415  14.360
14666SOL    HW245773   6.052   1.463  14.378
14667SOL     OW45774   5.760   5.605   7.512
14667SOL    HW145775   5.843   5.649   7.494
14667SOL    HW245776   5.693   5.660   7.471
14668SOL     OW45777   3.796   8.926  13.382
14668SOL    HW145778   3.845   8.884  13.310
14668SOL    HW245779   3.830   8.884  13.461
14669SOL     OW45780   0.495   3.232  12.186
14669SOL    HW145781   0.583   3.268  12.196
14669SOL    HW245782   0.509   3.145  12.147
14670SOL     OW45783   3.899  13.836   4.549
14670SOL    HW145784   3.892  13.857   4.642
14670SOL    HW245785   3.940  13.749   4.547
14671SOL     OW45786  12.122   7.644  10.511
14671SOL    HW145787  12.058   7.714  10.525
14671SOL    HW245788  12.068   7.566  10.493
14672SOL     OW45789  10.006  13.609  14.469
14672SOL    HW145790   9.928  13.615  14.413
14672SOL    HW245791  10.062  13.546  14.425
14673SOL     OW45792   2.453   9.762   2.059
14673SOL    HW145793   2.384   9.736   2.121
14673SOL    HW245794   2.471   9.854   2.081
14674SOL     OW45795  14.035   5.257   4.411
14674SOL    HW145796  13.969   5.285   4.347
14674SOL    HW245797  14.097   5.329   4.414
14675SOL     OW45798   5.545   4.818   6.352
14675SOL    HW145799   5.558   4.730   6.317
14675SOL    HW245800   5.563   4.876   6.278
14676SOL     OW45801  14.162  11.442   1.126
14676SOL    HW145802  14.143  11.489   1.207
14676SOL    HW245803  14.217  11.368   1.153
14677SOL     OW45804   1.638  14.172  11.146
14677SOL    HW145805   1.670  14.258  11.119
14677SOL    HW245806   1.593  14.188  11.229
14678SOL     OW45807  11.254   5.633   7.176
14678SOL    HW145808  11.211   5.565   7.125
14678SOL    HW245809  11.309   5.679   7.113
14679SOL     OW45810  13.917  14.747   1.673
14679SOL    HW145811  13.883  14.812   1.734
14679SOL    HW245812  13.997  14.714   1.714
14680SOL     OW45813   2.163   9.598  13.920
14680SOL    HW145814   2.199   9.542  13.851
14680SOL    HW245815   2.173   9.687  13.885
14681SOL     OW45816  12.027  11.559   7.112
14681SOL    HW145817  11.933  11.545   7.118
14681SOL    HW245818  12.036  11.642   7.064
14682SOL     OW45819   2.206  14.074   9.490
14682SOL    HW145820   2.115  14.097   9.508
14682SOL    HW245821   2.218  13.989   9.531
14683SOL     OW45822  12.543   7.496   7.479
14683SOL    HW145823  12.477   7.525   7.541
14683SOL    HW245824  12.623   7.486   7.531
14684SOL     OW45825   8.538  12.199  14.186
14684SOL    HW145826   8.577  12.169  14.268
14684SOL    HW245827   8.531  12.121  14.131
14685SOL     OW45828   6.734   4.672   3.138
14685SOL    HW145829   6.667   4.617   3.097
14685SOL    HW245830   6.685   4.740   3.185
14686SOL     OW45831   8.317  13.550   3.500
14686SOL    HW145832   8.401  13.507   3.484
14686SOL    HW245833   8.272  13.547   3.416
14687SOL     OW45834   9.610   7.361  13.514
14687SOL    HW145835   9.648   7.342  13.428
14687SOL    HW245836   9.572   7.278  13.542
14688SOL     OW45837   3.591   6.667   7.210
14688SOL    HW145838   3.517   6.640   7.155
14688SOL    HW245839   3.617   6.752   7.175
14689SOL     OW45840   0.740   6.674   9.020
14689SOL    HW145841   0.786   6.603   8.975
14689SOL    HW245842   0.760   6.662   9.113
14690SOL     OW45843   8.668   2.304  12.288
14690SOL    HW145844   8.587   2.311  12.339
14690SOL    HW245845   8.735   2.344  12.343
14691SOL     OW45846   1.633   1.097   8.562
14691SOL    HW145847   1.614   1.095   8.468
14691SOL    HW245848   1.548   1.107   8.604
14692SOL     OW45849   9.608   4.790   5.062
14692SOL    HW145850   9.534   4.767   5.118
14692SOL    HW245851   9.632   4.708   5.019
14693SOL     OW45852  10.652   1.417   8.673
14693SOL    HW145853  10.622   1.451   8.757
14693SOL    HW245854  10.666   1.323   8.689
14694SOL     OW45855   6.536   5.753  12.318
14694SOL    HW145856   6.463   5.766  12.257
14694SOL    HW245857   6.586   5.834  12.313
14695SOL     OW45858  14.218  13.529   1.514
14695SOL    HW145859  14.245  13.460   1.575
14695SOL    HW245860  14.179  13.596   1.570
14696SOL     OW45861  11.637   5.613   9.705
14696SOL    HW145862  11.697   5.540   9.696
14696SOL    HW245863  11.618   5.618   9.799
14697SOL     OW45864   5.389  12.130  10.567
14697SOL    HW145865   5.478  12.133  10.531
14697SOL    HW245866   5.381  12.211  10.617
14698SOL     OW45867  14.810  10.913   1.574
14698SOL    HW145868   0.021  10.908   1.601
14698SOL    HW245869  14.781  10.999   1.605
14699SOL     OW45870   2.819   5.978   3.473
14699SOL    HW145871   2.729   5.982   3.507
14699SOL    HW245872   2.815   6.025   3.390
14700SOL     OW45873   3.279   0.155  11.420
14700SOL    HW145874   3.260   0.229  11.362
14700SOL    HW245875   3.220   0.086  11.390
14701SOL     OW45876  10.846   5.051  13.017
14701SOL    HW145877  10.765   5.058  13.067
14701SOL    HW245878  10.860   4.956  13.008
14702SOL     OW45879  11.928   2.609  13.222
14702SOL    HW145880  11.876   2.546  13.272
14702SOL    HW245881  11.865   2.676  13.195
14703SOL     OW45882   0.713   8.784   1.207
14703SOL    HW145883   0.675   8.725   1.142
14703SOL    HW245884   0.800   8.749   1.224
14704SOL     OW45885   7.208   9.283   8.608
14704SOL    HW145886   7.271   9.330   8.663
14704SOL    HW245887   7.124   9.295   8.652
14705SOL     OW45888  12.864   4.387   9.171
14705SOL    HW145889  12.815   4.307   9.189
14705SOL    HW245890  12.895   4.417   9.256
14706SOL     OW45891   0.460  12.062   2.195
14706SOL    HW145892   0.384  12.119   2.200
14706SOL    HW245893   0.469  12.041   2.102
14707SOL     OW45894   1.156   8.033   9.292
14707SOL    HW145895   1.182   7.965   9.229
14707SOL    HW245896   1.230   8.042   9.351
14708SOL     OW45897  11.122   9.617   3.024
14708SOL    HW145898  11.116   9.625   3.120
14708SOL    HW245899  11.211   9.583   3.010
14709SOL     OW45900  14.648   7.655   5.195
14709SOL    HW145901  14.612   7.724   5.139
14709SOL    HW245902  14.733   7.634   5.156
14710SOL     OW45903   3.581   1.814   4.693
14710SOL    HW145904   3.666   1.815   4.649
14710SOL    HW245905   3.552   1.723   4.689
14711SOL     OW45906   8.060   2.125   5.070
14711SOL    HW145907   8.095   2.214   5.060
14711SOL    HW245908   8.086   2.099   5.158
14712SOL     OW45909   8.258  10.278  10.318
14712SOL    HW145910   8.307  10.248  10.395
14712SOL    HW245911   8.306  10.241  10.244
14713SOL     OW45912   7.567   9.733  14.395
14713SOL    HW145913   7.516   9.701  14.320
14713SOL    HW245914   7.520   9.701  14.472
14714SOL     OW45915   8.933   6.987  14.016
14714SOL    HW145916   9.014   6.999  14.065
14714SOL    HW245917   8.936   7.056  13.949
14715SOL     OW45918   8.985   7.512  12.080
14715SOL    HW145919   9.016   7.561  12.156
14715SOL    HW245920   9.003   7.570  12.006
14716SOL     OW45921   5.013   2.028   3.244
14716SOL    HW145922   4.944   2.044   3.179
14716SOL    HW245923   5.094   2.028   3.193
14717SOL     OW45924   3.997   3.853  13.415
14717SOL    HW145925   3.975   3.946  13.422
14717SOL    HW245926   3.933   3.817  13.354
14718SOL     OW45927   4.890   1.485   1.700
14718SOL    HW145928   4.934   1.554   1.651
14718SOL    HW245929   4.851   1.530   1.775
14719SOL     OW45930  12.809  12.312  11.199
14719SOL    HW145931  12.807  12.341  11.107
14719SOL    HW245932  12.856  12.229  11.197
14720SOL     OW45933   7.082   8.827   8.649
14720SOL    HW145934   7.077   8.909   8.600
14720SOL    HW245935   7.094   8.760   8.582
14721SOL     OW45936   4.560   6.646  10.018
14721SOL    HW145937   4.642   6.633  10.065
14721SOL    HW245938   4.492   6.622  10.081
14722SOL     OW45939   6.905   0.006  11.836
14722SOL    HW145940   6.943  14.830  11.770
14722SOL    HW245941   6.944  14.858  11.918
14723SOL     OW45942   8.461   3.357  12.314
14723SOL    HW145943   8.433   3.405  12.236
14723SOL    HW245944   8.555   3.374  12.320
14724SOL     OW45945   9.354   4.508   7.078
14724SOL    HW145946   9.291   4.453   7.125
14724SOL    HW245947   9.316   4.595   7.081
14725SOL     OW45948   7.253  14.854   5.838
14725SOL    HW145949   7.301  14.831   5.759
14725SOL    HW245950   7.194   0.044   5.811
14726SOL     OW45951   6.433  12.469   7.116
14726SOL    HW145952   6.394  12.497   7.033
14726SOL    HW245953   6.517  12.515   7.119
14727SOL     OW45954   1.191   2.438   5.204
14727SOL    HW145955   1.141   2.430   5.285
14727SOL    HW245956   1.169   2.526   5.172
14728SOL     OW45957  13.451  11.433   9.134
14728SOL    HW145958  13.538  11.471   9.132
14728SOL    HW245959  13.408  11.474   9.210
14729SOL     OW45960  10.230  10.189   1.810
14729SOL    HW145961  10.260  10.099   1.823
14729SOL    HW245962  10.283  10.241   1.871
14730SOL     OW45963   7.151   0.288   3.196
14730SOL    HW145964   7.137   0.363   3.138
14730SOL    HW245965   7.223   0.239   3.155
14731SOL     OW45966  13.641   6.212   7.448
14731SOL    HW145967  13.606   6.282   7.502
14731SOL    HW245968  13.579   6.202   7.376
14732SOL     OW45969   1.784   3.923  10.591
14732SOL    HW145970   1.713   3.950  10.649
14732SOL    HW245971   1.798   3.998  10.533
14733SOL     OW45972   3.403   7.221   0.051
14733SOL    HW145973   3.318   7.193   0.083
14733SOL    HW245974   3.388   7.245  14.840
14734SOL     OW45975  13.877   3.261  12.053
14734SOL    HW145976  13.831   3.338  12.019
14734SOL    HW245977  13.964   3.294  12.077
14735SOL     OW45978   0.538   7.491   3.340
14735SOL    HW145979   0.465   7.452   3.388
14735SOL    HW245980   0.501   7.515   3.256
14736SOL     OW45981   2.896   8.368  11.281
14736SOL    HW145982   2.968   8.427  11.304
14736SOL    HW245983   2.925   8.324  11.201
14737SOL     OW45984   2.784   6.869  10.863
14737SOL    HW145985   2.692   6.848  10.845
14737SOL    HW245986   2.794   6.856  10.957
14738SOL     OW45987   5.484   9.521   1.115
14738SOL    HW145988   5.555   9.566   1.163
14738SOL    HW245989   5.425   9.491   1.183
14739SOL     OW45990   6.693   4.928   0.116
14739SOL    HW145991   6.654   4.968   0.038
14739SOL    HW245992   6.740   4.852   0.082
14740SOL     OW45993  12.788   4.538   6.902
14740SOL    HW145994  12.735   4.514   6.826
14740SOL    HW245995  12.733   4.516   6.977
14741SOL     OW45996   3.317   3.692   9.906
14741SOL    HW145997   3.386   3.643   9.950
14741SOL    HW245998   3.358   3.774   9.880
14742SOL     OW45999   7.599   4.529  10.661
14742SOL    HW146000   7.551   4.605  10.630
14742SOL    HW246001   7.681   4.565  10.697
14743SOL     OW46002  14.548  12.077   7.282
14743SOL    HW146003  14.576  11.986   7.286
14743SOL    HW246004  14.590  12.113   7.204
14744SOL     OW46005   3.443  12.537   5.060
14744SOL    HW146006   3.483  12.577   4.983
14744SOL    HW246007   3.511  12.480   5.096
14745SOL     OW46008  13.000   2.788   0.646
14745SOL    HW146009  13.089   2.822   0.639
14745SOL    HW246010  12.969   2.818   0.731
14746SOL     OW46011   7.756   3.814   3.504
14746SOL    HW146012   7.821   3.862   3.555
14746SOL    HW246013   7.690   3.786   3.568
14747SOL     OW46014   6.632   7.006  10.125
14747SOL    HW146015   6.662   7.053  10.203
14747SOL    HW246016   6.702   7.019  10.061
14748SOL     OW46017  10.273  14.570   9.752
14748SOL    HW146018  10.234  14.635   9.809
14748SOL    HW246019  10.355  14.610   9.723
14749SOL     OW46020  12.144   2.573   5.689
14749SOL    HW146021  12.195   2.535   5.761
14749SOL    HW246022  12.198   2.646   5.658
14750SOL     OW46023   4.435   9.308   7.024
14750SOL    HW146024   4.490   9.232   7.005
14750SOL    HW246025   4.374   9.277   7.092
14751SOL     OW46026   7.080  10.787   4.698
14751SOL    HW146027   7.090  10.763   4.790
14751SOL    HW246028   6.985  10.787   4.683
14752SOL     OW46029   4.770   4.721   3.677
14752SOL    HW146030   4.842   4.741   3.737
14752SOL    HW246031   4.770   4.795   3.616
14753SOL     OW46032   0.374   0.683   8.780
14753SOL    HW146033   0.302   0.733   8.742
14753SOL    HW246034   0.363   0.595   8.745
14754SOL     OW46035   3.241   9.632   5.477
14754SOL    HW146036   3.180   9.612   5.406
14754SOL    HW246037   3.276   9.718   5.453
14755SOL     OW46038   3.723  14.143  11.133
14755SOL    HW146039   3.650  14.148  11.195
14755SOL    HW246040   3.722  14.052  11.103
14756SOL     OW46041  13.679   8.435  14.131
14756SOL    HW146042  13.735   8.411  14.057
14756SOL    HW246043  13.596   8.390  14.113
14757SOL     OW46044   9.861   5.195   5.119
14757SOL    HW146045   9.893   5.275   5.162
14757SOL    HW246046   9.928   5.173   5.055
14758SOL     OW46047   0.716   9.795  13.146
14758SOL    HW146048   0.710   9.868  13.207
14758SOL    HW246049   0.637   9.802  13.092
14759SOL     OW46050   9.559   6.626   1.232
14759SOL    HW146051   9.520   6.670   1.307
14759SOL    HW246052   9.653   6.637   1.244
14760SOL     OW46053  10.988   6.431  10.744
14760SOL    HW146054  11.057   6.434  10.811
14760SOL    HW246055  10.911   6.465  10.788
14761SOL     OW46056  13.027  13.023  10.120
14761SOL    HW146057  13.112  13.062  10.140
14761SOL    HW246058  13.031  13.001  10.027
14762SOL     OW46059   3.311   2.602  12.882
14762SOL    HW146060   3.234   2.639  12.839
14762SOL    HW246061   3.276   2.541  12.946
14763SOL     OW46062  13.564  11.214  10.672
14763SOL    HW146063  13.562  11.307  10.651
14763SOL    HW246064  13.577  11.210  10.766
14764SOL     OW46065   5.487  11.362   1.699
14764SOL    HW146066   5.413  11.329   1.750
14764SOL    HW246067   5.447  11.419   1.633
14765SOL     OW46068   9.225  12.811   6.090
14765SOL    HW146069   9.268  12.895   6.104
14765SOL    HW246070   9.292  12.746   6.109
14766SOL     OW46071   8.821   8.996   5.429
14766SOL    HW146072   8.830   9.086   5.460
14766SOL    HW246073   8.910   8.967   5.413
14767SOL     OW46074   6.710   5.635  13.593
14767SOL    HW146075   6.753   5.558  13.556
14767SOL    HW246076   6.769   5.664  13.662
14768SOL     OW46077   7.335   4.223  10.154
14768SOL    HW146078   7.249   4.253  10.122
14768SOL    HW246079   7.350   4.140  10.109
14769SOL     OW46080   6.313  10.981   8.435
14769SOL    HW146081   6.316  11.075   8.417
14769SOL    HW246082   6.237  10.970   8.492
14770SOL     OW46083   8.114  11.885   7.530
14770SOL    HW146084   8.130  11.791   7.523
14770SOL    HW246085   8.060  11.905   7.454
14771SOL     OW46086  12.781   9.071   3.362
14771SOL    HW146087  12.690   9.045   3.351
14771SOL    HW246088  12.803   9.118   3.282
14772SOL     OW46089   4.315  10.268   4.070
14772SOL    HW146090   4.326  10.362   4.088
14772SOL    HW246091   4.254  10.238   4.137
14773SOL     OW46092   0.675   5.331   9.262
14773SOL    HW146093   0.765   5.352   9.284
14773SOL    HW246094   0.640   5.410   9.221
14774SOL     OW46095  12.851   5.512   9.174
14774SOL    HW146096  12.847   5.607   9.163
14774SOL    HW246097  12.769   5.489   9.216
14775SOL     OW46098  10.532   5.686   7.165
14775SOL    HW146099  10.576   5.727   7.090
14775SOL    HW246100  10.546   5.592   7.153
14776SOL     OW46101   3.424  14.150   2.239
14776SOL    HW146102   3.420  14.057   2.263
14776SOL    HW246103   3.333  14.179   2.243
14777SOL     OW46104   2.724   3.791   1.007
14777SOL    HW146105   2.729   3.799   1.102
14777SOL    HW246106   2.796   3.845   0.974
14778SOL     OW46107   3.264  13.225   5.092
14778SOL    HW146108   3.193  13.235   5.028
14778SOL    HW246109   3.340  13.265   5.049
14779SOL     OW46110   7.938   5.013  11.793
14779SOL    HW146111   7.846   5.010  11.817
14779SOL    HW246112   7.983   5.034  11.874
14780SOL     OW46113  12.662  11.114   0.415
14780SOL    HW146114  12.720  11.133   0.489
14780SOL    HW246115  12.593  11.060   0.452
14781SOL     OW46116  12.450   3.062   1.729
14781SOL    HW146117  12.419   3.029   1.645
14781SOL    HW246118  12.402   3.143   1.743
14782SOL     OW46119   8.632   5.235   4.740
14782SOL    HW146120   8.683   5.225   4.660
14782SOL    HW246121   8.647   5.154   4.789
14783SOL     OW46122   4.924  10.260   1.139
14783SOL    HW146123   5.002  10.308   1.165
14783SOL    HW246124   4.851  10.315   1.169
14784SOL     OW46125   9.847   3.826  12.714
14784SOL    HW146126   9.812   3.900  12.764
14784SOL    HW246127   9.939   3.821  12.741
14785SOL     OW46128  12.950  14.504   0.599
14785SOL    HW146129  12.930  14.597   0.602
14785SOL    HW246130  12.930  14.477   0.510
14786SOL     OW46131  10.066   2.458  11.865
14786SOL    HW146132   9.980   2.494  11.890
14786SOL    HW246133  10.104   2.428  11.947
14787SOL     OW46134   3.599   0.554  12.106
14787SOL    HW146135   3.597   0.648  12.086
14787SOL    HW246136   3.514   0.537  12.146
14788SOL     OW46137  12.711  14.500   6.286
14788SOL    HW146138  12.799  14.538   6.273
14788SOL    HW246139  12.692  14.456   6.204
14789SOL     OW46140   0.332  10.755  10.231
14789SOL    HW146141   0.339  10.670  10.274
14789SOL    HW246142   0.337  10.819  10.302
14790SOL     OW46143   7.165  12.283   9.986
14790SOL    HW146144   7.102  12.317  10.051
14790SOL    HW246145   7.119  12.291   9.902
14791SOL     OW46146   8.937  10.588   0.496
14791SOL    HW146147   8.972  10.564   0.582
14791SOL    HW246148   8.891  10.510   0.466
14792SOL     OW46149   8.679   4.753   1.331
14792SOL    HW146150   8.762   4.735   1.375
14792SOL    HW246151   8.643   4.828   1.378
14793SOL     OW46152   1.780  11.737   4.275
14793SOL    HW146153   1.751  11.670   4.336
14793SOL    HW246154   1.742  11.819   4.308
14794SOL     OW46155  12.528   0.728   5.970
14794SOL    HW146156  12.549   0.714   6.063
14794SOL    HW246157  12.436   0.701   5.963
14795SOL     OW46158   7.404  10.657   1.107
14795SOL    HW146159   7.380  10.653   1.015
14795SOL    HW246160   7.499  10.661   1.107
14796SOL     OW46161  10.380  12.706  10.204
14796SOL    HW146162  10.387  12.801  10.200
14796SOL    HW246163  10.379  12.678  10.113
14797SOL     OW46164   6.574   5.192  11.741
14797SOL    HW146165   6.482   5.184  11.714
14797SOL    HW246166   6.622   5.142  11.676
14798SOL     OW46167   3.575   3.501  12.418
14798SOL    HW146168   3.490   3.498  12.462
14798SOL    HW246169   3.639   3.488  12.488
14799SOL     OW46170   9.781   8.035  11.997
14799SOL    HW146171   9.792   7.946  11.963
14799SOL    HW246172   9.852   8.047  12.059
14800SOL     OW46173   7.364   8.310  11.478
14800SOL    HW146174   7.288   8.270  11.434
14800SOL    HW246175   7.353   8.404  11.462
14801SOL     OW46176  12.556   6.432   4.332
14801SOL    HW146177  12.572   6.457   4.241
14801SOL    HW246178  12.572   6.338   4.335
14802SOL     OW46179   7.290   4.793   7.045
14802SOL    HW146180   7.240   4.714   7.064
14802SOL    HW246181   7.352   4.766   6.977
14803SOL     OW46182  13.807  14.636   2.021
14803SOL    HW146183  13.844  14.711   1.975
14803SOL    HW246184  13.840  14.644   2.111
14804SOL     OW46185   1.064   0.679   5.011
14804SOL    HW146186   0.994   0.633   4.965
14804SOL    HW246187   1.109   0.729   4.942
14805SOL     OW46188   0.255  13.879   7.327
14805SOL    HW146189   0.282  13.801   7.375
14805SOL    HW246190   0.308  13.950   7.364
14806SOL     OW46191   1.210   4.928   3.242
14806SOL    HW146192   1.151   4.857   3.266
14806SOL    HW246193   1.156   4.988   3.190
14807SOL     OW46194   9.975   2.874  11.391
14807SOL    HW146195   9.943   2.872  11.481
14807SOL    HW246196  10.039   2.946  11.390
14808SOL     OW46197  12.154   2.376  12.130
14808SOL    HW146198  12.197   2.299  12.093
14808SOL    HW246199  12.061   2.351  12.137
14809SOL     OW46200  13.484   7.759   3.773
14809SOL    HW146201  13.494   7.689   3.837
14809SOL    HW246202  13.415   7.815   3.809
14810SOL     OW46203   0.130   9.378  12.816
14810SOL    HW146204   0.191   9.429  12.870
14810SOL    HW246205   0.043   9.409  12.842
14811SOL     OW46206   8.821   7.595  14.867
14811SOL    HW146207   8.852   7.684   0.002
14811SOL    HW246208   8.871   7.540   0.045
14812SOL     OW46209  12.131   3.985   2.269
14812SOL    HW146210  12.091   4.071   2.279
14812SOL    HW246211  12.115   3.962   2.178
14813SOL     OW46212   6.037   3.960   8.294
14813SOL    HW146213   6.129   3.932   8.297
14813SOL    HW246214   5.992   3.903   8.356
14814SOL     OW46215   3.361   4.577   4.367
14814SOL    HW146216   3.352   4.489   4.402
14814SOL    HW246217   3.285   4.624   4.401
14815SOL     OW46218   2.498   3.711   7.273
14815SOL    HW146219   2.426   3.731   7.212
14815SOL    HW246220   2.483   3.620   7.298
14816SOL     OW46221   0.542   9.127   5.618
14816SOL    HW146222   0.497   9.206   5.651
14816SOL    HW246223   0.573   9.083   5.697
14817SOL     OW46224  13.624  13.959   7.270
14817SOL    HW146225  13.563  13.886   7.284
14817SOL    HW246226  13.567  14.035   7.256
14818SOL     OW46227   9.494   5.030   3.062
14818SOL    HW146228   9.561   5.043   2.995
14818SOL    HW246229   9.445   5.113   3.063
14819SOL     OW46230  14.669   5.657   3.740
14819SOL    HW146231  14.743   5.653   3.680
14819SOL    HW246232  14.646   5.749   3.744
14820SOL     OW46233   9.802   1.036  11.444
14820SOL    HW146234   9.882   1.089  11.447
14820SOL    HW246235   9.828   0.951  11.481
14821SOL     OW46236  11.035  12.640   4.762
14821SOL    HW146237  10.942  12.635   4.784
14821SOL    HW246238  11.062  12.550   4.745
14822SOL     OW46239  12.745   7.100   9.299
14822SOL    HW146240  12.788   7.118   9.383
14822SOL    HW246241  12.736   7.004   9.298
14823SOL     OW46242  12.575   1.140   2.558
14823SOL    HW146243  12.550   1.055   2.523
14823SOL    HW246244  12.550   1.202   2.490
14824SOL     OW46245   8.473  11.769   1.576
14824SOL    HW146246   8.504  11.823   1.503
14824SOL    HW246247   8.521  11.687   1.567
14825SOL     OW46248  10.830  10.885   7.350
14825SOL    HW146249  10.750  10.835   7.333
14825SOL    HW246250  10.839  10.941   7.273
14826SOL     OW46251  10.773  12.707  11.438
14826SOL    HW146252  10.761  12.764  11.514
14826SOL    HW246253  10.756  12.619  11.471
14827SOL     OW46254  10.065   1.613   3.475
14827SOL    HW146255  10.023   1.699   3.477
14827SOL    HW246256  10.059   1.586   3.383
14828SOL     OW46257   9.816  12.461  10.606
14828SOL    HW146258   9.738  12.447  10.661
14828SOL    HW246259   9.872  12.519  10.657
14829SOL     OW46260  13.607   9.362   9.029
14829SOL    HW146261  13.665   9.432   9.058
14829SOL    HW246262  13.519   9.392   9.055
14830SOL     OW46263   6.792   0.434  14.751
14830SOL    HW146264   6.754   0.348  14.738
14830SOL    HW246265   6.781   0.479  14.667
14831SOL     OW46266  14.750   3.853  12.908
14831SOL    HW146267  14.678   3.882  12.964
14831SOL    HW246268  14.709   3.794  12.845
14832SOL     OW46269   5.062  10.352  11.284
14832SOL    HW146270   5.028  10.407  11.355
14832SOL    HW246271   5.148  10.325  11.313
14833SOL     OW46272   8.583   3.917   5.601
14833SOL    HW146273   8.623   3.941   5.517
14833SOL    HW246274   8.583   3.999   5.651
14834SOL     OW46275  10.642   7.880  14.866
14834SOL    HW146276  10.607   7.803  14.821
14834SOL    HW246277  10.727   7.895  14.824
14835SOL     OW46278   1.892  11.699   4.836
14835SOL    HW146279   1.903  11.719   4.929
14835SOL    HW246280   1.804  11.663   4.830
14836SOL     OW46281  10.497   4.235  13.628
14836SOL    HW146282  10.587   4.215  13.604
14836SOL    HW246283  10.444   4.172  13.579
14837SOL     OW46284   1.362   3.611   3.511
14837SOL    HW146285   1.446   3.571   3.487
14837SOL    HW246286   1.305   3.595   3.436
14838SOL     OW46287   2.367   3.024   2.511
14838SOL    HW146288   2.384   3.090   2.578
14838SOL    HW246289   2.427   3.046   2.440
14839SOL     OW46290   7.694   2.119   2.322
14839SOL    HW146291   7.769   2.178   2.308
14839SOL    HW246292   7.618   2.176   2.318
14840SOL     OW46293   2.311   2.912   5.324
14840SOL    HW146294   2.347   2.974   5.261
14840SOL    HW246295   2.333   2.826   5.287
14841SOL     OW46296  10.444   2.265   1.729
14841SOL    HW146297  10.368   2.242   1.783
14841SOL    HW246298  10.518   2.224   1.773
14842SOL     OW46299   0.583  12.299  11.734
14842SOL    HW146300   0.569  12.392  11.714
14842SOL    HW246301   0.502  12.271  11.777
14843SOL     OW46302   5.682   1.758  11.363
14843SOL    HW146303   5.696   1.818  11.437
14843SOL    HW246304   5.712   1.673  11.395
14844SOL     OW46305   6.024   2.990  10.902
14844SOL    HW146306   6.115   2.995  10.928
14844SOL    HW246307   5.976   2.975  10.983
14845SOL     OW46308   0.571   0.918   4.970
14845SOL    HW146309   0.587   0.918   4.875
14845SOL    HW246310   0.617   0.840   5.002
14846SOL     OW46311   1.952   5.703   4.378
14846SOL    HW146312   1.857   5.706   4.374
14846SOL    HW246313   1.971   5.657   4.460
14847SOL     OW46314  11.307   1.257  11.293
14847SOL    HW146315  11.252   1.226  11.222
14847SOL    HW246316  11.383   1.199  11.292
14848SOL     OW46317  10.429   7.323   7.549
14848SOL    HW146318  10.434   7.244   7.603
14848SOL    HW246319  10.372   7.383   7.598
14849SOL     OW46320   6.026   5.052   1.809
14849SOL    HW146321   5.985   5.112   1.747
14849SOL    HW246322   5.974   5.060   1.889
14850SOL     OW46323  10.028   8.277   1.066
14850SOL    HW146324  10.041   8.237   0.980
14850SOL    HW246325  10.014   8.203   1.125
14851SOL     OW46326   1.949   6.288   8.838
14851SOL    HW146327   1.860   6.289   8.801
14851SOL    HW246328   1.985   6.204   8.809
14852SOL     OW46329   1.827   7.634   8.782
14852SOL    HW146330   1.766   7.677   8.722
14852SOL    HW246331   1.913   7.644   8.740
14853SOL     OW46332  12.812  14.002   0.909
14853SOL    HW146333  12.873  14.004   0.983
14853SOL    HW246334  12.806  14.093   0.880
14854SOL     OW46335  13.777   9.521   6.222
14854SOL    HW146336  13.786   9.549   6.313
14854SOL    HW246337  13.758   9.427   6.228
14855SOL     OW46338   9.063   3.122   4.362
14855SOL    HW146339   8.978   3.107   4.404
14855SOL    HW246340   9.082   3.040   4.316
14856SOL     OW46341   3.931  14.318   5.649
14856SOL    HW146342   3.997  14.292   5.585
14856SOL    HW246343   3.861  14.357   5.597
14857SOL     OW46344  12.540   3.968  10.733
14857SOL    HW146345  12.500   3.969  10.646
14857SOL    HW246346  12.597   4.044  10.735
14858SOL     OW46347   4.482  14.098   6.607
14858SOL    HW146348   4.449  14.013   6.635
14858SOL    HW246349   4.435  14.161   6.662
14859SOL     OW46350  11.128   7.239   5.152
14859SOL    HW146351  11.221   7.232   5.132
14859SOL    HW246352  11.123   7.301   5.224
14860SOL     OW46353   3.716  14.448  10.547
14860SOL    HW146354   3.750  14.377  10.493
14860SOL    HW246355   3.686  14.406  10.627
14861SOL     OW46356   6.886  11.890  10.534
14861SOL    HW146357   6.887  11.801  10.570
14861SOL    HW246358   6.979  11.911  10.522
14862SOL     OW46359  12.645   0.276  14.758
14862SOL    HW146360  12.580   0.206  14.755
14862SOL    HW246361  12.703   0.258  14.683
14863SOL     OW46362  12.293  12.721   2.553
14863SOL    HW146363  12.329  12.810   2.551
14863SOL    HW246364  12.362  12.668   2.592
14864SOL     OW46365   1.669   3.135   2.560
14864SOL    HW146366   1.712   3.083   2.492
14864SOL    HW246367   1.685   3.088   2.641
14865SOL     OW46368   1.012   7.115   8.149
14865SOL    HW146369   0.987   7.092   8.059
14865SOL    HW246370   1.075   7.048   8.174
14866SOL     OW46371   2.914   7.884   6.872
14866SOL    HW146372   2.922   7.889   6.776
14866SOL    HW246373   2.820   7.874   6.887
14867SOL     OW46374  13.261   4.515  14.080
14867SOL    HW146375  13.226   4.527  13.992
14867SOL    HW246376  13.189   4.542  14.138
14868SOL     OW46377   8.920   1.683   1.807
14868SOL    HW146378   8.826   1.699   1.795
14868SOL    HW246379   8.932   1.678   1.901
14869SOL     OW46380   9.422  11.131  11.826
14869SOL    HW146381   9.461  11.150  11.741
14869SOL    HW246382   9.487  11.077  11.870
14870SOL     OW46383   3.938  14.281   7.018
14870SOL    HW146384   3.914  14.246   6.932
14870SOL    HW246385   3.905  14.216   7.080
14871SOL     OW46386  11.206  12.099   6.092
14871SOL    HW146387  11.140  12.107   6.024
14871SOL    HW246388  11.287  12.129   6.052
14872SOL     OW46389  10.874  13.149   5.398
14872SOL    HW146390  10.832  13.102   5.470
14872SOL    HW246391  10.808  13.154   5.330
14873SOL     OW46392   3.296   3.443  10.927
14873SOL    HW146393   3.247   3.371  10.966
14873SOL    HW246394   3.257   3.522  10.965
14874SOL     OW46395  13.112   0.127   1.725
14874SOL    HW146396  13.159   0.090   1.650
14874SOL    HW246397  13.174   0.188   1.765
14875SOL     OW46398   7.137  11.157   1.851
14875SOL    HW146399   7.216  11.178   1.801
14875SOL    HW246400   7.072  11.133   1.785
14876SOL     OW46401   9.129  10.603   5.774
14876SOL    HW146402   9.098  10.527   5.824
14876SOL    HW246403   9.151  10.668   5.842
14877SOL     OW46404   1.553   6.094   1.804
14877SOL    HW146405   1.561   6.028   1.873
14877SOL    HW246406   1.573   6.048   1.723
14878SOL     OW46407   8.527   4.847  14.091
14878SOL    HW146408   8.551   4.931  14.129
14878SOL    HW246409   8.492   4.870  14.004
14879SOL     OW46410   2.776   8.661   3.210
14879SOL    HW146411   2.862   8.693   3.185
14879SOL    HW246412   2.788   8.625   3.298
14880SOL     OW46413   3.211   2.401   6.070
14880SOL    HW146414   3.195   2.313   6.036
14880SOL    HW246415   3.134   2.421   6.121
14881SOL     OW46416  11.417  11.365  13.824
14881SOL    HW146417  11.364  11.444  13.822
14881SOL    HW246418  11.447  11.358  13.914
14882SOL     OW46419   8.954   4.751  13.677
14882SOL    HW146420   9.031   4.696  13.659
14882SOL    HW246421   8.908   4.755  13.593
14883SOL     OW46422  14.199  14.852   4.069
14883SOL    HW146423  14.163  14.881   4.153
14883SOL    HW246424  14.253   0.043   4.040
14884SOL     OW46425   0.075   8.180   7.620
14884SOL    HW146426   0.044   8.262   7.661
14884SOL    HW246427   0.019   8.169   7.544
14885SOL     OW46428   3.341   0.784   1.969
14885SOL    HW146429   3.395   0.777   1.891
14885SOL    HW246430   3.260   0.824   1.939
14886SOL     OW46431   2.973  14.740   0.988
14886SOL    HW146432   2.926  14.752   1.071
14886SOL    HW246433   3.047  14.800   0.994
14887SOL     OW46434  10.675   0.537   0.544
14887SOL    HW146435  10.730   0.532   0.465
14887SOL    HW246436  10.590   0.504   0.516
14888SOL     OW46437   6.531  13.624   6.608
14888SOL    HW146438   6.507  13.678   6.683
14888SOL    HW246439   6.576  13.685   6.548
14889SOL     OW46440  10.556   4.711  14.215
14889SOL    HW146441  10.601   4.791  14.187
14889SOL    HW246442  10.540   4.724  14.309
14890SOL     OW46443  13.584   5.747  14.679
14890SOL    HW146444  13.622   5.687  14.615
14890SOL    HW246445  13.659   5.785  14.724
14891SOL     OW46446  12.422  11.510   4.585
14891SOL    HW146447  12.463  11.541   4.666
14891SOL    HW246448  12.452  11.420   4.576
14892SOL     OW46449   8.085  14.222  11.258
14892SOL    HW146450   8.128  14.229  11.342
14892SOL    HW246451   8.135  14.280  11.200
14893SOL     OW46452   9.028  12.888   9.195
14893SOL    HW146453   9.108  12.835   9.194
14893SOL    HW246454   9.057  12.973   9.230
14894SOL     OW46455   0.070   5.761   7.535
14894SOL    HW146456   0.027   5.784   7.453
14894SOL    HW246457   0.104   5.673   7.520
14895SOL     OW46458   4.768   0.457   7.296
14895SOL    HW146459   4.798   0.548   7.291
14895SOL    HW246460   4.849   0.405   7.294
14896SOL     OW46461  14.064   3.230   0.060
14896SOL    HW146462  13.991   3.248   0.001
14896SOL    HW246463  14.067   3.305   0.119
14897SOL     OW46464  10.579  13.774   4.346
14897SOL    HW146465  10.598  13.825   4.268
14897SOL    HW246466  10.488  13.747   4.335
14898SOL     OW46467   5.020   5.929   3.813
14898SOL    HW146468   5.054   5.997   3.870
14898SOL    HW246469   5.096   5.896   3.766
14899SOL     OW46470  10.135   4.232  10.523
14899SOL    HW146471  10.069   4.268  10.584
14899SOL    HW246472  10.093   4.237  10.437
14900SOL     OW46473   8.657   1.284   2.003
14900SOL    HW146474   8.585   1.258   2.062
14900SOL    HW246475   8.619   1.278   1.915
14901SOL     OW46476  11.396  11.831   0.286
14901SOL    HW146477  11.343  11.854   0.362
14901SOL    HW246478  11.486  11.828   0.320
14902SOL     OW46479   4.673   4.933   4.110
14902SOL    HW146480   4.631   4.921   4.195
14902SOL    HW246481   4.766   4.925   4.128
14903SOL     OW46482   0.251   8.052   6.003
14903SOL    HW146483   0.162   8.023   6.022
14903SOL    HW246484   0.285   7.988   5.941
14904SOL     OW46485   5.618  10.575   1.087
14904SOL    HW146486   5.657  10.516   1.023
14904SOL    HW246487   5.546  10.524   1.126
14905SOL     OW46488   8.940  13.896  10.188
14905SOL    HW146489   8.969  13.917  10.277
14905SOL    HW246490   9.016  13.857  10.146
14906SOL     OW46491  12.697   3.260  13.548
14906SOL    HW146492  12.785   3.297  13.551
14906SOL    HW246493  12.710   3.166  13.538
14907SOL     OW46494   1.450   3.519   5.724
14907SOL    HW146495   1.505   3.522   5.646
14907SOL    HW246496   1.372   3.471   5.696
14908SOL     OW46497   4.926   9.718   3.691
14908SOL    HW146498   4.881   9.714   3.607
14908SOL    HW246499   4.921   9.810   3.716
14909SOL     OW46500   3.405  14.716  14.444
14909SOL    HW146501   3.342  14.678  14.505
14909SOL    HW246502   3.354  14.779  14.393
14910SOL     OW46503   4.106   0.846   9.081
14910SOL    HW146504   4.182   0.790   9.072
14910SOL    HW246505   4.083   0.872   8.992
14911SOL     OW46506   9.789  14.093  11.573
14911SOL    HW146507   9.756  14.173  11.614
14911SOL    HW246508   9.881  14.112  11.554
14912SOL     OW46509  10.896  14.299   8.420
14912SOL    HW146510  10.981  14.308   8.462
14912SOL    HW246511  10.839  14.359   8.468
14913SOL     OW46512   8.318   9.103  12.061
14913SOL    HW146513   8.384   9.095  11.992
14913SOL    HW246514   8.332   9.026  12.116
14914SOL     OW46515  14.737   1.646   5.541
14914SOL    HW146516  14.737   1.556   5.574
14914SOL    HW246517  14.826   1.678   5.560
14915SOL     OW46518  14.028   9.808   9.608
14915SOL    HW146519  13.962   9.792   9.675
14915SOL    HW246520  14.082   9.878   9.643
14916SOL     OW46521  10.373   7.231   0.687
14916SOL    HW146522  10.352   7.238   0.593
14916SOL    HW246523  10.469   7.238   0.690
14917SOL     OW46524  11.293  12.689   5.730
14917SOL    HW146525  11.245  12.654   5.805
14917SOL    HW246526  11.289  12.784   5.741
14918SOL     OW46527  11.483  12.994   5.759
14918SOL    HW146528  11.387  12.997   5.762
14918SOL    HW246529  11.503  12.940   5.682
14919SOL     OW46530   9.120  12.421   6.997
14919SOL    HW146531   9.203  12.469   7.003
14919SOL    HW246532   9.135  12.355   6.930
14920SOL     OW46533   3.599   0.923   4.030
14920SOL    HW146534   3.525   0.872   3.996
14920SOL    HW246535   3.659   0.857   4.065
14921SOL     OW46536  14.371   7.237   1.646
14921SOL    HW146537  14.376   7.229   1.741
14921SOL    HW246538  14.422   7.316   1.625
14922SOL     OW46539  10.292   1.309   6.331
14922SOL    HW146540  10.364   1.271   6.280
14922SOL    HW246541  10.249   1.233   6.371
14923SOL     OW46542   8.556   3.672  10.860
14923SOL    HW146543   8.569   3.737  10.791
14923SOL    HW246544   8.500   3.605  10.820
14924SOL     OW46545   8.289  10.215   9.452
14924SOL    HW146546   8.365  10.208   9.510
14924SOL    HW246547   8.265  10.124   9.433
14925SOL     OW46548   4.735   4.718   6.192
14925SOL    HW146549   4.732   4.665   6.271
14925SOL    HW246550   4.822   4.703   6.156
14926SOL     OW46551  13.480   6.273   4.342
14926SOL    HW146552  13.493   6.227   4.425
14926SOL    HW246553  13.418   6.218   4.294
14927SOL     OW46554   8.289  10.867   4.759
14927SOL    HW146555   8.320  10.906   4.841
14927SOL    HW246556   8.342  10.787   4.749
14928SOL     OW46557  11.863  14.055  12.173
14928SOL    HW146558  11.789  14.110  12.147
14928SOL    HW246559  11.843  13.969  12.136
14929SOL     OW46560   7.554  14.469   2.276
14929SOL    HW146561   7.581  14.477   2.185
14929SOL    HW246562   7.470  14.514   2.280
14930SOL     OW46563   5.499   5.646   0.631
14930SOL    HW146564   5.491   5.605   0.545
14930SOL    HW246565   5.502   5.740   0.613
14931SOL     OW46566   7.309  13.035   9.178
14931SOL    HW146567   7.235  13.069   9.128
14931SOL    HW246568   7.349  13.113   9.217
14932SOL     OW46569  11.124   8.160  11.955
14932SOL    HW146570  11.211   8.124  11.968
14932SOL    HW246571  11.135   8.254  11.968
14933SOL     OW46572   8.055   3.835  13.251
14933SOL    HW146573   8.057   3.920  13.206
14933SOL    HW246574   7.971   3.796  13.225
14934SOL     OW46575   7.403   4.350  13.355
14934SOL    HW146576   7.363   4.398  13.282
14934SOL    HW246577   7.481   4.401  13.377
14935SOL     OW46578   0.051   7.910   1.290
14935SOL    HW146579   0.001   7.846   1.240
14935SOL    HW246580   0.041   7.992   1.240
14936SOL     OW46581   4.854   2.540   1.163
14936SOL    HW146582   4.850   2.495   1.079
14936SOL    HW246583   4.763   2.548   1.192
14937SOL     OW46584   0.400  12.006   8.135
14937SOL    HW146585   0.491  11.981   8.150
14937SOL    HW246586   0.390  12.090   8.180
14938SOL     OW46587   7.830   6.400   8.822
14938SOL    HW146588   7.789   6.430   8.903
14938SOL    HW246589   7.758   6.361   8.772
14939SOL     OW46590   5.613   3.014  12.175
14939SOL    HW146591   5.604   3.096  12.224
14939SOL    HW246592   5.527   3.002  12.134
14940SOL     OW46593   3.679  10.393  12.881
14940SOL    HW146594   3.668  10.331  12.953
14940SOL    HW246595   3.599  10.384  12.829
14941SOL     OW46596   8.792  11.501   7.626
14941SOL    HW146597   8.856  11.432   7.608
14941SOL    HW246598   8.708  11.456   7.633
14942SOL     OW46599   8.170  12.662   8.343
14942SOL    HW146600   8.249  12.649   8.396
14942SOL    HW246601   8.109  12.595   8.373
14943SOL     OW46602   1.156   1.811   1.466
14943SOL    HW146603   1.083   1.839   1.521
14943SOL    HW246604   1.114   1.776   1.387
14944SOL     OW46605   9.903   4.561  12.319
14944SOL    HW146606   9.924   4.653  12.335
14944SOL    HW246607   9.832   4.564  12.254
14945SOL     OW46608   2.267  14.180   8.201
14945SOL    HW146609   2.203  14.110   8.186
14945SOL    HW246610   2.274  14.225   8.116
14946SOL     OW46611   0.146   7.828   8.788
14946SOL    HW146612   0.218   7.891   8.790
14946SOL    HW246613   0.176   7.759   8.729
14947SOL     OW46614   9.528   4.765  14.083
14947SOL    HW146615   9.565   4.825  14.148
14947SOL    HW246616   9.439   4.749  14.113
14948SOL     OW46617   3.440   3.014   7.987
14948SOL    HW146618   3.423   2.998   8.080
14948SOL    HW246619   3.368   3.071   7.959
14949SOL     OW46620   5.712   2.107   9.628
14949SOL    HW146621   5.668   2.145   9.704
14949SOL    HW246622   5.792   2.157   9.618
14950SOL     OW46623   4.889   4.566  10.229
14950SOL    HW146624   4.981   4.580  10.252
14950SOL    HW246625   4.847   4.540  10.311
14951SOL     OW46626   2.209  11.780  10.551
14951SOL    HW146627   2.279  11.828  10.594
14951SOL    HW246628   2.158  11.847  10.506
14952SOL     OW46629  11.453   4.977   9.646
14952SOL    HW146630  11.472   5.026   9.566
14952SOL    HW246631  11.381   5.025   9.687
14953SOL     OW46632  10.338   3.091   2.234
14953SOL    HW146633  10.381   3.106   2.318
14953SOL    HW246634  10.369   3.161   2.178
14954SOL     OW46635   1.888   1.138   5.362
14954SOL    HW146636   1.943   1.212   5.334
14954SOL    HW246637   1.897   1.136   5.457
14955SOL     OW46638   8.118   0.412  14.802
14955SOL    HW146639   8.031   0.394  14.765
14955SOL    HW246640   8.109   0.387   0.013
14956SOL     OW46641   4.011  11.415   0.065
14956SOL    HW146642   4.044  11.409  14.857
14956SOL    HW246643   4.077  11.370   0.118
14957SOL     OW46644   2.853   4.594   6.273
14957SOL    HW146645   2.860   4.645   6.353
14957SOL    HW246646   2.938   4.550   6.265
14958SOL     OW46647   5.391   1.575   7.536
14958SOL    HW146648   5.472   1.623   7.515
14958SOL    HW246649   5.350   1.559   7.451
14959SOL     OW46650   8.930  10.621   9.270
14959SOL    HW146651   8.857  10.613   9.208
14959SOL    HW246652   8.995  10.559   9.237
14960SOL     OW46653  10.983   0.967  12.322
14960SOL    HW146654  10.988   0.891  12.264
14960SOL    HW246655  11.033   0.942  12.399
14961SOL     OW46656   9.543   9.035  14.192
14961SOL    HW146657   9.627   9.076  14.213
14961SOL    HW246658   9.485   9.108  14.170
14962SOL     OW46659   6.864   2.076  11.082
14962SOL    HW146660   6.945   2.092  11.130
14962SOL    HW246661   6.796   2.116  11.135
14963SOL     OW46662   3.858   2.979  11.368
14963SOL    HW146663   3.811   3.025  11.298
14963SOL    HW246664   3.888   3.048  11.427
14964SOL     OW46665  12.467   5.478   2.801
14964SOL    HW146666  12.527   5.538   2.845
14964SOL    HW246667  12.512   5.394   2.803
14965SOL     OW46668   6.871  11.093   6.901
14965SOL    HW146669   6.906  11.021   6.848
14965SOL    HW246670   6.942  11.157   6.905
14966SOL     OW46671  13.547   4.950   9.680
14966SOL    HW146672  13.571   5.030   9.633
14966SOL    HW246673  13.451   4.950   9.681
14967SOL     OW46674   3.051   1.136   2.673
14967SOL    HW146675   3.009   1.119   2.588
14967SOL    HW246676   2.981   1.173   2.727
14968SOL     OW46677   7.569  10.071  13.817
14968SOL    HW146678   7.539  10.158  13.791
14968SOL    HW246679   7.534  10.059  13.906
14969SOL     OW46680  14.387  12.922  10.187
14969SOL    HW146681  14.444  12.874  10.127
14969SOL    HW246682  14.317  12.957  10.132
14970SOL     OW46683  10.895   3.360  10.002
14970SOL    HW146684  10.938   3.354  10.088
14970SOL    HW246685  10.883   3.269   9.975
14971SOL     OW46686   6.258   0.018   8.784
14971SOL    HW146687   6.236  14.840   8.856
14971SOL    HW246688   6.184   0.078   8.780
14972SOL     OW46689   3.165  10.490   2.638
14972SOL    HW146690   3.123  10.454   2.560
14972SOL    HW246691   3.194  10.577   2.611
14973SOL     OW46692   9.302   4.526   4.730
14973SOL    HW146693   9.344   4.608   4.758
14973SOL    HW246694   9.225   4.555   4.680
14974SOL     OW46695   9.238  11.540   2.036
14974SOL    HW146696   9.321  11.559   1.992
14974SOL    HW246697   9.225  11.447   2.023
14975SOL     OW46698   3.076   9.286   7.731
14975SOL    HW146699   3.106   9.377   7.731
14975SOL    HW246700   3.119   9.247   7.807
14976SOL     OW46701   0.611   6.245  12.996
14976SOL    HW146702   0.577   6.168  12.950
14976SOL    HW246703   0.693   6.216  13.035
14977SOL     OW46704   1.496   3.087  13.251
14977SOL    HW146705   1.487   3.101  13.157
14977SOL    HW246706   1.581   3.126  13.274
14978SOL     OW46707   2.321  13.609   1.306
14978SOL    HW146708   2.403  13.579   1.345
14978SOL    HW246709   2.261  13.620   1.381
14979SOL     OW46710  12.220  10.815   9.283
14979SOL    HW146711  12.243  10.820   9.190
14979SOL    HW246712  12.276  10.881   9.325
14980SOL     OW46713  10.636  11.691   3.227
14980SOL    HW146714  10.598  11.705   3.314
14980SOL    HW246715  10.582  11.622   3.188
14981SOL     OW46716  13.975   0.409  13.688
14981SOL    HW146717  14.038   0.429  13.619
14981SOL    HW246718  13.929   0.331  13.656
14982SOL     OW46719   5.785  11.524   6.892
14982SOL    HW146720   5.823  11.437   6.877
14982SOL    HW246721   5.743  11.547   6.809
14983SOL     OW46722   3.253   2.545   4.132
14983SOL    HW146723   3.267   2.498   4.049
14983SOL    HW246724   3.158   2.558   4.136
14984SOL     OW46725   4.234   1.522   7.745
14984SOL    HW146726   4.266   1.488   7.661
14984SOL    HW246727   4.140   1.534   7.731
14985SOL     OW46728   5.084   2.860   9.291
14985SOL    HW146729   5.095   2.784   9.348
14985SOL    HW246730   5.011   2.836   9.234
14986SOL     OW46731  10.765   8.435   0.544
14986SOL    HW146732  10.755   8.342   0.563
14986SOL    HW246733  10.715   8.479   0.613
14987SOL     OW46734  14.738   2.981  11.092
14987SOL    HW146735  14.726   2.890  11.066
14987SOL    HW246736  14.658   3.002  11.140
14988SOL     OW46737   6.054   2.426   7.912
14988SOL    HW146738   6.046   2.349   7.856
14988SOL    HW246739   6.148   2.435   7.927
14989SOL     OW46740   2.476   0.723  10.026
14989SOL    HW146741   2.558   0.689  10.063
14989SOL    HW246742   2.429   0.645   9.997
14990SOL     OW46743  12.731  12.891  12.393
14990SOL    HW146744  12.707  12.956  12.459
14990SOL    HW246745  12.764  12.817  12.443
14991SOL     OW46746  10.138  11.300  12.399
14991SOL    HW146747  10.055  11.311  12.446
14991SOL    HW246748  10.184  11.383  12.413
14992SOL     OW46749   5.552   2.813   4.390
14992SOL    HW146750   5.555   2.797   4.295
14992SOL    HW246751   5.469   2.858   4.404
14993SOL     OW46752   9.545   1.757   4.454
14993SOL    HW146753   9.540   1.785   4.363
14993SOL    HW246754   9.639   1.740   4.469
14994SOL     OW46755  11.475   8.951   2.372
14994SOL    HW146756  11.466   8.940   2.277
14994SOL    HW246757  11.512   8.867   2.401
14995SOL     OW46758   5.474  14.202   2.364
14995SOL    HW146759   5.515  14.230   2.282
14995SOL    HW246760   5.484  14.277   2.423
14996SOL     OW46761   0.249   9.647   2.819
14996SOL    HW146762   0.248   9.630   2.913
14996SOL    HW246763   0.199   9.727   2.807
14997SOL     OW46764   4.052   4.825  13.103
14997SOL    HW146765   3.990   4.895  13.084
14997SOL    HW246766   4.007   4.745  13.075
14998SOL     OW46767   9.598   5.164  14.040
14998SOL    HW146768   9.565   5.078  14.016
14998SOL    HW246769   9.564   5.223  13.972
14999SOL     OW46770  10.724   6.517   1.933
14999SOL    HW146771  10.767   6.494   1.850
14999SOL    HW246772  10.631   6.508   1.915
15000SOL     OW46773  13.630   8.908  13.760
15000SOL    HW146774  13.681   8.941  13.833
15000SOL    HW246775  13.551   8.872  13.800
15001SOL     OW46776   8.990   4.334  12.271
15001SOL    HW146777   9.037   4.417  12.271
15001SOL    HW246778   8.899   4.357  12.286
15002SOL     OW46779  12.945   0.433   6.155
15002SOL    HW146780  12.944   0.510   6.098
15002SOL    HW246781  12.899   0.365   6.105
15003SOL     OW46782   4.793  10.806  14.652
15003SOL    HW146783   4.819  10.778  14.564
15003SOL    HW246784   4.715  10.860  14.638
15004SOL     OW46785   9.976   3.634   9.958
15004SOL    HW146786  10.026   3.553   9.973
15004SOL    HW246787   9.980   3.680  10.042
15005SOL     OW46788   0.576   3.505  12.276
15005SOL    HW146789   0.650   3.527  12.220
15005SOL    HW246790   0.587   3.559  12.354
15006SOL     OW46791  11.885  13.311   9.261
15006SOL    HW146792  11.960  13.276   9.309
15006SOL    HW246793  11.851  13.381   9.318
15007SOL     OW46794  10.703   7.446  10.010
15007SOL    HW146795  10.752   7.440   9.928
15007SOL    HW246796  10.614   7.468   9.984
15008SOL     OW46797  12.297   5.341  13.451
15008SOL    HW146798  12.294   5.415  13.511
15008SOL    HW246799  12.255   5.269  13.498
15009SOL     OW46800  13.984   4.244   3.344
15009SOL    HW146801  14.075   4.250   3.315
15009SOL    HW246802  13.933   4.253   3.264
15010SOL     OW46803   6.228   9.490   7.720
15010SOL    HW146804   6.215   9.436   7.643
15010SOL    HW246805   6.184   9.442   7.791
15011SOL     OW46806   4.378   4.162  10.598
15011SOL    HW146807   4.314   4.157  10.527
15011SOL    HW246808   4.462   4.179  10.555
15012SOL     OW46809   8.806   3.580  13.755
15012SOL    HW146810   8.799   3.576  13.660
15012SOL    HW246811   8.831   3.670  13.774
15013SOL     OW46812  10.320   5.584   5.640
15013SOL    HW146813  10.359   5.559   5.556
15013SOL    HW246814  10.336   5.509   5.697
15014SOL     OW46815  13.137  13.572  13.363
15014SOL    HW146816  13.144  13.517  13.286
15014SOL    HW246817  13.227  13.601  13.380
15015SOL     OW46818  12.622  14.063   8.608
15015SOL    HW146819  12.686  14.132   8.628
15015SOL    HW246820  12.635  13.998   8.677
15016SOL     OW46821  11.127  13.507   8.485
15016SOL    HW146822  11.138  13.551   8.569
15016SOL    HW246823  11.173  13.424   8.496
15017SOL     OW46824   8.077  14.636   0.287
15017SOL    HW146825   8.030  14.639   0.204
15017SOL    HW246826   8.101  14.544   0.298
15018SOL     OW46827   2.183   6.141  11.356
15018SOL    HW146828   2.103   6.099  11.388
15018SOL    HW246829   2.241   6.068  11.333
15019SOL     OW46830   1.318  12.479  13.918
15019SOL    HW146831   1.268  12.430  13.983
15019SOL    HW246832   1.270  12.466  13.836
15020SOL     OW46833   9.250  11.279   1.295
15020SOL    HW146834   9.211  11.256   1.380
15020SOL    HW246835   9.310  11.207   1.275
15021SOL     OW46836   9.818   5.844   1.030
15021SOL    HW146837   9.744   5.903   1.045
15021SOL    HW246838   9.877   5.892   0.973
15022SOL     OW46839   4.995   8.007  11.099
15022SOL    HW146840   5.076   7.979  11.055
15022SOL    HW246841   4.926   7.991  11.034
15023SOL     OW46842   4.267   2.865   9.544
15023SOL    HW146843   4.276   2.913   9.626
15023SOL    HW246844   4.353   2.870   9.502
15024SOL     OW46845  10.933   0.582  12.900
15024SOL    HW146846  10.926   0.487  12.893
15024SOL    HW246847  10.857   0.615  12.853
15025SOL     OW46848   4.841   0.185   1.121
15025SOL    HW146849   4.765   0.138   1.155
15025SOL    HW246850   4.831   0.273   1.156
15026SOL     OW46851   1.237   7.269  10.053
15026SOL    HW146852   1.256   7.294   9.962
15026SOL    HW246853   1.149   7.232  10.050
15027SOL     OW46854   5.940  10.656   1.305
15027SOL    HW146855   5.850  10.631   1.327
15027SOL    HW246856   5.964  10.720   1.371
15028SOL     OW46857   3.614  12.952   8.861
15028SOL    HW146858   3.530  12.998   8.848
15028SOL    HW246859   3.653  12.949   8.774
15029SOL     OW46860  13.917   2.986   9.373
15029SOL    HW146861  13.881   3.061   9.325
15029SOL    HW246862  13.917   2.915   9.308
15030SOL     OW46863   1.312   0.711   6.069
15030SOL    HW146864   1.312   0.748   5.980
15030SOL    HW246865   1.337   0.619   6.056
15031SOL     OW46866   8.369   9.304   7.405
15031SOL    HW146867   8.319   9.231   7.442
15031SOL    HW246868   8.460   9.273   7.405
15032SOL     OW46869   4.099  14.794   2.782
15032SOL    HW146870   4.060  14.862   2.726
15032SOL    HW246871   4.193  14.803   2.768
15033SOL     OW46872   7.819   1.367   9.788
15033SOL    HW146873   7.783   1.378   9.876
15033SOL    HW246874   7.778   1.437   9.737
15034SOL     OW46875   0.460   7.761  10.422
15034SOL    HW146876   0.433   7.853  10.419
15034SOL    HW246877   0.498   7.745  10.335
15035SOL     OW46878   4.115   8.489  11.814
15035SOL    HW146879   4.066   8.447  11.885
15035SOL    HW246880   4.184   8.537  11.858
15036SOL     OW46881   6.375   4.091   5.143
15036SOL    HW146882   6.388   4.084   5.049
15036SOL    HW246883   6.399   4.181   5.164
15037SOL     OW46884  10.730  12.967   7.462
15037SOL    HW146885  10.739  13.058   7.433
15037SOL    HW246886  10.799  12.955   7.528
15038SOL     OW46887   0.463   8.507   6.819
15038SOL    HW146888   0.444   8.439   6.755
15038SOL    HW246889   0.421   8.477   6.900
15039SOL     OW46890   7.471   6.531   3.112
15039SOL    HW146891   7.402   6.479   3.070
15039SOL    HW246892   7.431   6.617   3.125
15040SOL     OW46893   4.283   9.672   6.764
15040SOL    HW146894   4.342   9.687   6.838
15040SOL    HW246895   4.264   9.578   6.767
15041SOL     OW46896   7.957   0.112   2.975
15041SOL    HW146897   7.967   0.187   3.033
15041SOL    HW246898   7.990   0.038   3.026
15042SOL     OW46899   7.624  14.287   5.028
15042SOL    HW146900   7.582  14.372   5.033
15042SOL    HW246901   7.718  14.306   5.029
15043SOL     OW46902   4.337  14.085  13.546
15043SOL    HW146903   4.320  14.033  13.468
15043SOL    HW246904   4.421  14.052  13.579
15044SOL     OW46905  12.481  14.779   9.889
15044SOL    HW146906  12.444  14.692   9.897
15044SOL    HW246907  12.405  14.838   9.887
15045SOL     OW46908  11.012   3.053   9.529
15045SOL    HW146909  10.930   3.101   9.521
15045SOL    HW246910  11.080   3.121   9.526
15046SOL     OW46911  13.172   5.063   2.636
15046SOL    HW146912  13.102   5.084   2.575
15046SOL    HW246913  13.147   4.979   2.674
15047SOL     OW46914  11.435   4.351  11.395
15047SOL    HW146915  11.349   4.337  11.356
15047SOL    HW246916  11.460   4.439  11.366
15048SOL     OW46917   3.548   0.944  13.042
15048SOL    HW146918   3.562   0.991  13.124
15048SOL    HW246919   3.562   0.852  13.064
15049SOL     OW46920   4.978   3.837   3.178
15049SOL    HW146921   4.966   3.744   3.194
15049SOL    HW246922   5.015   3.871   3.260
15050SOL     OW46923   4.942   0.267  12.771
15050SOL    HW146924   5.007   0.236  12.707
15050SOL    HW246925   4.859   0.263  12.725
15051SOL     OW46926   6.612   3.836   3.565
15051SOL    HW146927   6.678   3.874   3.507
15051SOL    HW246928   6.560   3.779   3.508
15052SOL     OW46929   0.713  12.959  11.095
15052SOL    HW146930   0.671  13.040  11.123
15052SOL    HW246931   0.772  12.985  11.025
15053SOL     OW46932  14.863   7.088  12.045
15053SOL    HW146933  14.870   7.022  11.976
15053SOL    HW246934  14.770   7.110  12.047
15054SOL     OW46935   5.032  11.113  11.233
15054SOL    HW146936   5.113  11.135  11.279
15054SOL    HW246937   4.963  11.157  11.283
15055SOL     OW46938   6.512  11.597   2.860
15055SOL    HW146939   6.582  11.576   2.798
15055SOL    HW246940   6.552  11.587   2.946
15056SOL     OW46941  14.389   0.384   4.594
15056SOL    HW146942  14.299   0.408   4.616
15056SOL    HW246943  14.440   0.411   4.670
15057SOL     OW46944   4.249   1.060   9.240
15057SOL    HW146945   4.268   0.966   9.238
15057SOL    HW246946   4.163   1.068   9.199
15058SOL     OW46947   0.498   5.969   0.694
15058SOL    HW146948   0.402   5.965   0.701
15058SOL    HW246949   0.514   6.024   0.619
15059SOL     OW46950  13.596  10.483   2.773
15059SOL    HW146951  13.555  10.410   2.727
15059SOL    HW246952  13.687  10.482   2.742
15060SOL     OW46953   6.642   1.259  13.685
15060SOL    HW146954   6.736   1.256  13.665
15060SOL    HW246955   6.624   1.352  13.700
15061SOL     OW46956  13.286   8.964   5.694
15061SOL    HW146957  13.320   8.882   5.658
15061SOL    HW246958  13.319   8.967   5.783
15062SOL     OW46959   6.125   2.040   4.951
15062SOL    HW146960   6.214   2.066   4.925
15062SOL    HW246961   6.100   1.973   4.888
15063SOL     OW46962   5.458   2.776   5.721
15063SOL    HW146963   5.451   2.747   5.812
15063SOL    HW246964   5.392   2.844   5.712
15064SOL     OW46965   8.252   9.279   4.549
15064SOL    HW146966   8.300   9.321   4.620
15064SOL    HW246967   8.309   9.207   4.520
15065SOL     OW46968   3.474   3.089  10.791
15065SOL    HW146969   3.393   3.139  10.794
15065SOL    HW246970   3.482   3.062  10.699
15066SOL     OW46971  11.775   0.198  13.212
15066SOL    HW146972  11.864   0.173  13.188
15066SOL    HW246973  11.780   0.222  13.305
15067SOL     OW46974   8.395   7.539   0.148
15067SOL    HW146975   8.431   7.588   0.075
15067SOL    HW246976   8.371   7.605   0.213
15068SOL     OW46977   7.066   5.100   8.919
15068SOL    HW146978   7.061   5.016   8.964
15068SOL    HW246979   7.141   5.145   8.960
15069SOL     OW46980   4.274  11.268  11.682
15069SOL    HW146981   4.347  11.292  11.739
15069SOL    HW246982   4.196  11.283  11.735
15070SOL     OW46983  12.111   6.149   1.471
15070SOL    HW146984  12.101   6.065   1.515
15070SOL    HW246985  12.051   6.144   1.396
15071SOL     OW46986  13.640   6.039   5.864
15071SOL    HW146987  13.634   6.038   5.769
15071SOL    HW246988  13.675   6.125   5.885
15072SOL     OW46989   6.705  11.828  13.403
15072SOL    HW146990   6.652  11.891  13.354
15072SOL    HW246991   6.786  11.822  13.353
15073SOL     OW46992   6.297  11.984   1.092
15073SOL    HW146993   6.329  11.969   1.003
15073SOL    HW246994   6.288  12.079   1.098
15074SOL     OW46995  10.323   9.721   4.972
15074SOL    HW146996  10.376   9.722   4.892
15074SOL    HW246997  10.268   9.799   4.965
15075SOL     OW46998  11.197   1.823   7.482
15075SOL    HW146999  11.228   1.874   7.557
15075SOL    HW247000  11.134   1.881   7.438
15076SOL     OW47001  13.745   1.618   5.121
15076SOL    HW147002  13.722   1.555   5.190
15076SOL    HW247003  13.683   1.600   5.050
15077SOL     OW47004  10.720   3.606   9.104
15077SOL    HW147005  10.747   3.668   9.036
15077SOL    HW247006  10.756   3.522   9.077
15078SOL     OW47007  11.345   5.665  10.428
15078SOL    HW147008  11.391   5.709  10.499
15078SOL    HW247009  11.268   5.627  10.469
15079SOL     OW47010  11.158   8.466   0.091
15079SOL    HW147011  11.063   8.460   0.090
15079SOL    HW247012  11.184   8.461  14.880
15080SOL     OW47013  11.804   0.229   8.588
15080SOL    HW147014  11.719   0.240   8.545
15080SOL    HW247015  11.791   0.155   8.647
15081SOL     OW47016  14.812  12.463   5.472
15081SOL    HW147017  14.771  12.454   5.558
15081SOL    HW247018  14.879  12.531   5.485
15082SOL     OW47019  12.729   4.058   5.606
15082SOL    HW147020  12.759   4.052   5.696
15082SOL    HW247021  12.722   3.967   5.576
15083SOL     OW47022   4.022   2.942   9.066
15083SOL    HW147023   3.929   2.923   9.073
15083SOL    HW247024   4.053   2.945   9.156
15084SOL     OW47025   9.035   9.217   8.020
15084SOL    HW147026   9.002   9.177   7.940
15084SOL    HW247027   9.043   9.144   8.082
15085SOL     OW47028   0.907  10.431   8.979
15085SOL    HW147029   0.997  10.398   8.975
15085SOL    HW247030   0.911  10.504   9.041
15086SOL     OW47031   0.465   9.673   5.454
15086SOL    HW147032   0.464   9.736   5.526
15086SOL    HW247033   0.544   9.620   5.468
15087SOL     OW47034  14.476   3.079   7.495
15087SOL    HW147035  14.392   3.041   7.471
15087SOL    HW247036  14.455   3.144   7.561
15088SOL     OW47037   8.520   9.402   3.702
15088SOL    HW147038   8.606   9.362   3.717
15088SOL    HW247039   8.466   9.331   3.667
15089SOL     OW47040   2.740  13.560  14.557
15089SOL    HW147041   2.720  13.652  14.537
15089SOL    HW247042   2.656  13.515  14.552
15090SOL     OW47043  10.177  10.719  14.137
15090SOL    HW147044  10.134  10.680  14.213
15090SOL    HW247045  10.202  10.644  14.083
15091SOL     OW47046   4.622   6.682   9.624
15091SOL    HW147047   4.714   6.703   9.641
15091SOL    HW247048   4.615   6.588   9.643
15092SOL     OW47049   8.432  12.592   0.364
15092SOL    HW147050   8.428  12.572   0.271
15092SOL    HW247051   8.523  12.616   0.380
15093SOL     OW47052  10.434   0.084   4.524
15093SOL    HW147053  10.369   0.117   4.462
15093SOL    HW247054  10.410   0.125   4.607
15094SOL     OW47055  13.779   7.925  11.746
15094SOL    HW147056  13.704   7.975  11.715
15094SOL    HW247057  13.740   7.856  11.800
15095SOL     OW47058  11.231  14.804  12.712
15095SOL    HW147059  11.327  14.796  12.715
15095SOL    HW247060  11.212  14.821  12.620
15096SOL     OW47061  10.979  14.697   3.014
15096SOL    HW147062  10.965  14.699   2.919
15096SOL    HW247063  11.036  14.773   3.030
15097SOL     OW47064   8.548  13.824  14.572
15097SOL    HW147065   8.511  13.913  14.571
15097SOL    HW247066   8.642  13.838  14.571
15098SOL     OW47067  14.705  14.200  13.797
15098SOL    HW147068  14.670  14.263  13.861
15098SOL    HW247069  14.664  14.226  13.714
15099SOL     OW47070   5.770   0.320   9.741
15099SOL    HW147071   5.771   0.257   9.814
15099SOL    HW247072   5.791   0.267   9.664
15100SOL     OW47073   9.068  10.123   9.924
15100SOL    HW147074   9.100  10.095  10.009
15100SOL    HW247075   9.000  10.187   9.945
15101SOL     OW47076   7.320   1.463  12.984
15101SOL    HW147077   7.259   1.394  12.957
15101SOL    HW247078   7.358   1.495  12.902
15102SOL     OW47079   3.332   9.924   4.538
15102SOL    HW147080   3.319  10.006   4.490
15102SOL    HW247081   3.273   9.932   4.614
15103SOL     OW47082   8.269   2.328   7.911
15103SOL    HW147083   8.364   2.335   7.919
15103SOL    HW247084   8.255   2.274   7.833
15104SOL     OW47085   1.143  14.226   3.586
15104SOL    HW147086   1.086  14.159   3.624
15104SOL    HW247087   1.096  14.308   3.599
15105SOL     OW47088   3.382   8.892   0.226
15105SOL    HW147089   3.408   8.976   0.265
15105SOL    HW247090   3.425   8.890   0.141
15106SOL     OW47091   5.868   2.195   5.728
15106SOL    HW147092   5.876   2.245   5.809
15106SOL    HW247093   5.839   2.108   5.756
15107SOL     OW47094   6.551   7.632   8.159
15107SOL    HW147095   6.579   7.641   8.250
15107SOL    HW247096   6.556   7.721   8.123
15108SOL     OW47097  10.799  14.276   9.926
15108SOL    HW147098  10.716  14.318   9.950
15108SOL    HW247099  10.828  14.322   9.848
15109SOL     OW47100   6.108   4.010   8.834
15109SOL    HW147101   6.157   4.058   8.767
15109SOL    HW247102   6.166   4.011   8.910
15110SOL     OW47103   8.741   3.667  10.596
15110SOL    HW147104   8.822   3.617  10.585
15110SOL    HW247105   8.759   3.725  10.670
15111SOL     OW47106   3.724   4.310  13.437
15111SOL    HW147107   3.683   4.306  13.523
15111SOL    HW247108   3.681   4.385  13.394
15112SOL     OW47109   5.048   9.404   9.993
15112SOL    HW147110   5.097   9.346   9.935
15112SOL    HW247111   5.094   9.400  10.077
15113SOL     OW47112  12.181   8.535  13.405
15113SOL    HW147113  12.192   8.466  13.339
15113SOL    HW247114  12.091   8.565  13.394
15114SOL     OW47115  12.015  13.905  10.192
15114SOL    HW147116  12.051  13.837  10.250
15114SOL    HW247117  11.958  13.956  10.249
15115SOL     OW47118   5.502   6.271   8.325
15115SOL    HW147119   5.464   6.190   8.291
15115SOL    HW247120   5.444   6.296   8.397
15116SOL     OW47121  12.821   1.775   7.377
15116SOL    HW147122  12.895   1.753   7.320
15116SOL    HW247123  12.744   1.768   7.320
15117SOL     OW47124   2.982  14.352   8.942
15117SOL    HW147125   2.989  14.280   9.004
15117SOL    HW247126   2.898  14.393   8.962
15118SOL     OW47127  12.983   8.332   6.535
15118SOL    HW147128  12.941   8.402   6.585
15118SOL    HW247129  13.007   8.372   6.451
15119SOL     OW47130   2.734  12.076  10.198
15119SOL    HW147131   2.660  12.136  10.206
15119SOL    HW247132   2.695  11.989  10.205
15120SOL     OW47133   0.763  13.270  11.485
15120SOL    HW147134   0.858  13.274  11.472
15120SOL    HW247135   0.744  13.177  11.497
15121SOL     OW47136   8.555   9.796  13.296
15121SOL    HW147137   8.476   9.830  13.337
15121SOL    HW247138   8.534   9.705  13.275
15122SOL     OW47139  11.170   2.108   0.393
15122SOL    HW147140  11.169   2.078   0.302
15122SOL    HW247141  11.125   2.039   0.441
15123SOL     OW47142   3.612  14.446   1.641
15123SOL    HW147143   3.570  14.360   1.647
15123SOL    HW247144   3.605  14.469   1.548
15124SOL     OW47145  13.976   2.646   7.637
15124SOL    HW147146  14.008   2.557   7.652
15124SOL    HW247147  14.040   2.702   7.681
15125SOL     OW47148  14.426   1.993   2.152
15125SOL    HW147149  14.509   1.995   2.200
15125SOL    HW247150  14.452   1.990   2.059
15126SOL     OW47151   9.131  13.714   0.672
15126SOL    HW147152   9.097  13.769   0.742
15126SOL    HW247153   9.106  13.761   0.591
15127SOL     OW47154   8.243   4.193  13.447
15127SOL    HW147155   8.316   4.162  13.394
15127SOL    HW247156   8.232   4.126  13.515
15128SOL     OW47157   1.141   2.667  10.764
15128SOL    HW147158   1.135   2.722  10.843
15128SOL    HW247159   1.208   2.602  10.785
15129SOL     OW47160   9.717  12.083  11.017
15129SOL    HW147161   9.695  12.014  11.080
15129SOL    HW247162   9.787  12.132  11.059
15130SOL     OW47163   7.415  13.418   9.652
15130SOL    HW147164   7.381  13.481   9.716
15130SOL    HW247165   7.385  13.333   9.684
15131SOL     OW47166   5.082   9.866  12.997
15131SOL    HW147167   5.003   9.886  13.046
15131SOL    HW247168   5.103   9.947  12.950
15132SOL     OW47169   8.486  12.742   6.922
15132SOL    HW147170   8.418  12.780   6.866
15132SOL    HW247171   8.444  12.665   6.961
15133SOL     OW47172  12.763   9.772  13.942
15133SOL    HW147173  12.754   9.854  13.893
15133SOL    HW247174  12.802   9.711  13.879
15134SOL     OW47175  13.299  11.974   8.790
15134SOL    HW147176  13.350  11.919   8.850
15134SOL    HW247177  13.333  12.063   8.804
15135SOL     OW47178   3.330   1.566  14.862
15135SOL    HW147179   3.312   1.587   0.072
15135SOL    HW247180   3.380   1.484  14.866
15136SOL     OW47181   2.558  12.371   8.128
15136SOL    HW147182   2.567  12.412   8.042
15136SOL    HW247183   2.529  12.442   8.186
15137SOL     OW47184   6.428   9.063   7.398
15137SOL    HW147185   6.422   9.158   7.401
15137SOL    HW247186   6.365   9.033   7.464
15138SOL     OW47187   6.920   8.558   1.025
15138SOL    HW147188   6.909   8.492   0.956
15138SOL    HW247189   6.974   8.626   0.985
15139SOL     OW47190   3.001  13.591  10.618
15139SOL    HW147191   3.095  13.609  10.616
15139SOL    HW247192   2.987  13.545  10.701
15140SOL     OW47193   5.269  13.514   0.331
15140SOL    HW147194   5.306  13.437   0.286
15140SOL    HW247195   5.323  13.587   0.302
15141SOL     OW47196   3.215   9.908   6.396
15141SOL    HW147197   3.130   9.929   6.358
15141SOL    HW247198   3.205   9.818   6.427
15142SOL     OW47199   8.205  13.389  14.294
15142SOL    HW147200   8.254  13.457  14.250
15142SOL    HW247201   8.271  13.333  14.334
15143SOL     OW47202  13.742   6.488   4.842
15143SOL    HW147203  13.794   6.410   4.858
15143SOL    HW247204  13.705   6.475   4.755
15144SOL     OW47205   3.220   6.660  14.384
15144SOL    HW147206   3.305   6.643  14.425
15144SOL    HW247207   3.226   6.617  14.299
15145SOL     OW47208   9.577  11.868  10.638
15145SOL    HW147209   9.623  11.841  10.717
15145SOL    HW247210   9.593  11.962  10.632
15146SOL     OW47211  14.251   8.412   5.725
15146SOL    HW147212  14.330   8.364   5.700
15146SOL    HW247213  14.225   8.373   5.809
15147SOL     OW47214   9.535   3.593   4.528
15147SOL    HW147215   9.566   3.679   4.499
15147SOL    HW247216   9.513   3.547   4.446
15148SOL     OW47217   8.657   2.595  13.199
15148SOL    HW147218   8.706   2.669  13.234
15148SOL    HW247219   8.568   2.606  13.233
15149SOL     OW47220   9.139  10.872   4.431
15149SOL    HW147221   9.160  10.932   4.359
15149SOL    HW247222   9.145  10.926   4.510
15150SOL     OW47223  11.494  11.135   7.756
15150SOL    HW147224  11.429  11.185   7.707
15150SOL    HW247225  11.464  11.044   7.749
15151SOL     OW47226   6.534  12.180  10.188
15151SOL    HW147227   6.625  12.177  10.217
15151SOL    HW247228   6.483  12.162  10.266
15152SOL     OW47229  11.762   7.076  11.692
15152SOL    HW147230  11.691   7.081  11.756
15152SOL    HW247231  11.742   6.999  11.639
15153SOL     OW47232   7.764  12.237   0.359
15153SOL    HW147233   7.682  12.286   0.366
15153SOL    HW247234   7.755  12.165   0.422
15154SOL     OW47235   3.493  10.732   3.382
15154SOL    HW147236   3.504  10.649   3.336
15154SOL    HW247237   3.536  10.796   3.326
15155SOL     OW47238   5.547  14.881  13.836
15155SOL    HW147239   5.479  14.819  13.863
15155SOL    HW247240   5.568  14.856  13.746
15156SOL     OW47241   0.852  12.233   4.552
15156SOL    HW147242   0.809  12.318   4.553
15156SOL    HW247243   0.791  12.175   4.597
15157SOL     OW47244   6.154   6.392   9.601
15157SOL    HW147245   6.123   6.301   9.604
15157SOL    HW247246   6.136   6.426   9.689
15158SOL     OW47247  10.055   2.806  12.527
15158SOL    HW147248  10.062   2.845  12.614
15158SOL    HW247249  10.062   2.712  12.542
15159SOL     OW47250  13.399  12.890  11.513
15159SOL    HW147251  13.426  12.870  11.423
15159SOL    HW247252  13.304  12.898  11.508
15160SOL     OW47253   2.794   7.674   1.889
15160SOL    HW147254   2.881   7.676   1.850
15160SOL    HW247255   2.799   7.605   1.955
15161SOL     OW47256   7.482  14.378  12.886
15161SOL    HW147257   7.527  14.302  12.849
15161SOL    HW247258   7.454  14.429  12.810
15162SOL     OW47259  12.806   0.150  12.218
15162SOL    HW147260  12.846   0.074  12.260
15162SOL    HW247261  12.774   0.203  12.291
15163SOL     OW47262   2.456   6.293  13.877
15163SOL    HW147263   2.465   6.380  13.839
15163SOL    HW247264   2.383   6.253  13.829
15164SOL     OW47265  12.041  12.856   1.276
15164SOL    HW147266  12.100  12.932   1.275
15164SOL    HW247267  12.097  12.782   1.255
15165SOL     OW47268   3.944   3.796   2.369
15165SOL    HW147269   3.917   3.779   2.459
15165SOL    HW247270   3.973   3.887   2.369
15166SOL     OW47271  12.612  10.407   6.656
15166SOL    HW147272  12.607  10.328   6.709
15166SOL    HW247273  12.626  10.478   6.719
15167SOL     OW47274  12.312  11.807   3.434
15167SOL    HW147275  12.266  11.870   3.380
15167SOL    HW247276  12.358  11.751   3.371
15168SOL     OW47277   3.799   8.431   1.393
15168SOL    HW147278   3.804   8.518   1.434
15168SOL    HW247279   3.859   8.436   1.319
15169SOL     OW47280  12.095   2.892   0.678
15169SOL    HW147281  12.177   2.930   0.648
15169SOL    HW247282  12.100   2.800   0.652
15170SOL     OW47283   7.545   0.501  14.174
15170SOL    HW147284   7.579   0.583  14.211
15170SOL    HW247285   7.549   0.439  14.246
15171SOL     OW47286   1.205   6.988   3.097
15171SOL    HW147287   1.274   7.040   3.140
15171SOL    HW247288   1.142   6.970   3.167
15172SOL     OW47289   5.013   6.392   7.883
15172SOL    HW147290   5.055   6.310   7.909
15172SOL    HW247291   4.967   6.421   7.962
15173SOL     OW47292   7.887   6.422   3.610
15173SOL    HW147293   7.950   6.364   3.567
15173SOL    HW247294   7.931   6.448   3.691
15174SOL     OW47295   8.834   9.345  12.967
15174SOL    HW147296   8.880   9.385  13.041
15174SOL    HW247297   8.886   9.369  12.890
15175SOL     OW47298   3.323   5.838  14.847
15175SOL    HW147299   3.372   5.855   0.045
15175SOL    HW247300   3.380   5.782  14.794
15176SOL     OW47301   6.869  13.454  10.324
15176SOL    HW147302   6.872  13.392  10.397
15176SOL    HW247303   6.893  13.401  10.248
15177SOL     OW47304   8.002   8.910   4.132
15177SOL    HW147305   7.923   8.906   4.077
15177SOL    HW247306   7.969   8.922   4.221
15178SOL     OW47307  10.019   1.697   4.634
15178SOL    HW147308  10.097   1.667   4.587
15178SOL    HW247309  10.047   1.776   4.681
15179SOL     OW47310  10.663  13.627   9.113
15179SOL    HW147311  10.586  13.626   9.056
15179SOL    HW247312  10.712  13.705   9.086
15180SOL     OW47313   7.890   7.265  13.768
15180SOL    HW147314   7.951   7.269  13.843
15180SOL    HW247315   7.947   7.251  13.692
15181SOL     OW47316   0.012   1.735   2.088
15181SOL    HW147317   0.077   1.751   2.156
15181SOL    HW247318  14.877   1.641   2.093
15182SOL     OW47319   6.224  13.710   7.962
15182SOL    HW147320   6.283  13.764   8.014
15182SOL    HW247321   6.142  13.710   8.011
15183SOL     OW47322   2.392  11.813   5.802
15183SOL    HW147323   2.330  11.837   5.733
15183SOL    HW247324   2.389  11.717   5.804
15184SOL     OW47325   7.129   1.213   6.989
15184SOL    HW147326   7.061   1.147   6.974
15184SOL    HW247327   7.156   1.200   7.079
15185SOL     OW47328   8.913  10.377   1.936
15185SOL    HW147329   8.905  10.412   2.024
15185SOL    HW247330   8.844  10.310   1.930
15186SOL     OW47331   8.866   5.606   2.301
15186SOL    HW147332   8.831   5.679   2.251
15186SOL    HW247333   8.803   5.535   2.289
15187SOL     OW47334  10.581   6.780   7.756
15187SOL    HW147335  10.672   6.806   7.740
15187SOL    HW247336  10.530   6.829   7.692
15188SOL     OW47337  10.309   7.849   7.175
15188SOL    HW147338  10.255   7.928   7.182
15188SOL    HW247339  10.398   7.881   7.162
15189SOL     OW47340  14.286   7.366   6.962
15189SOL    HW147341  14.275   7.460   6.971
15189SOL    HW247342  14.381   7.353   6.964
15190SOL     OW47343   2.475   0.854   5.086
15190SOL    HW147344   2.451   0.916   5.155
15190SOL    HW247345   2.557   0.815   5.116
15191SOL     OW47346   0.083   8.360  12.751
15191SOL    HW147347   0.108   8.378  12.660
15191SOL    HW247348  14.870   8.347  12.748
15192SOL     OW47349   8.311  12.710  14.323
15192SOL    HW147350   8.376  12.722  14.393
15192SOL    HW247351   8.316  12.618  14.300
15193SOL     OW47352   0.104   0.782   7.359
15193SOL    HW147353   0.162   0.825   7.297
15193SOL    HW247354   0.139   0.693   7.367
15194SOL     OW47355   7.762   1.629   5.998
15194SOL    HW147356   7.831   1.684   5.962
15194SOL    HW247357   7.734   1.574   5.925
15195SOL     OW47358  13.430  14.705  11.054
15195SOL    HW147359  13.492  14.635  11.069
15195SOL    HW247360  13.449  14.736  10.966
15196SOL     OW47361   1.275   1.698   5.507
15196SOL    HW147362   1.290   1.604   5.504
15196SOL    HW247363   1.290   1.729   5.418
15197SOL     OW47364   4.351   9.731   2.238
15197SOL    HW147365   4.405   9.675   2.294
15197SOL    HW247366   4.330   9.677   2.162
15198SOL     OW47367  14.476   6.268   1.647
15198SOL    HW147368  14.519   6.184   1.634
15198SOL    HW247369  14.539   6.319   1.699
15199SOL     OW47370  14.102  11.605   9.418
15199SOL    HW147371  14.118  11.550   9.495
15199SOL    HW247372  14.073  11.544   9.350
15200SOL     OW47373  12.854   8.676   9.155
15200SOL    HW147374  12.926   8.631   9.112
15200SOL    HW247375  12.823   8.739   9.090
15201SOL     OW47376  14.490   8.342   4.465
15201SOL    HW147377  14.485   8.260   4.416
15201SOL    HW247378  14.516   8.408   4.401
15202SOL     OW47379  11.542  12.034  10.684
15202SOL    HW147380  11.515  12.121  10.654
15202SOL    HW247381  11.459  11.989  10.704
15203SOL     OW47382   2.847   1.031   6.541
15203SOL    HW147383   2.913   0.966   6.564
15203SOL    HW247384   2.890   1.115   6.555
15204SOL     OW47385  12.704   0.486  10.248
15204SOL    HW147386  12.739   0.538  10.176
15204SOL    HW247387  12.766   0.413  10.258
15205SOL     OW47388  14.613   1.515   9.556
15205SOL    HW147389  14.600   1.500   9.649
15205SOL    HW247390  14.618   1.428   9.518
15206SOL     OW47391  13.272   5.002   3.181
15206SOL    HW147392  13.228   4.963   3.105
15206SOL    HW247393  13.287   5.093   3.156
15207SOL     OW47394   6.853   3.638   2.284
15207SOL    HW147395   6.782   3.640   2.221
15207SOL    HW247396   6.865   3.545   2.305
15208SOL     OW47397  11.061   8.149   7.647
15208SOL    HW147398  11.132   8.116   7.701
15208SOL    HW247399  11.074   8.106   7.562
15209SOL     OW47400   8.832   8.439   9.192
15209SOL    HW147401   8.790   8.468   9.111
15209SOL    HW247402   8.785   8.358   9.215
15210SOL     OW47403   6.646   0.920   8.687
15210SOL    HW147404   6.614   0.842   8.642
15210SOL    HW247405   6.586   0.990   8.661
15211SOL     OW47406   6.466  13.784   6.815
15211SOL    HW147407   6.389  13.796   6.872
15211SOL    HW247408   6.538  13.766   6.876
15212SOL     OW47409  14.488  10.476   9.924
15212SOL    HW147410  14.502  10.548   9.985
15212SOL    HW247411  14.509  10.512   9.838
15213SOL     OW47412   7.362  12.868   7.672
15213SOL    HW147413   7.447  12.909   7.682
15213SOL    HW247414   7.376  12.776   7.695
15214SOL     OW47415   6.220   0.420   9.032
15214SOL    HW147416   6.225   0.512   9.057
15214SOL    HW247417   6.132   0.393   9.056
15215SOL     OW47418   4.800  11.366  11.209
15215SOL    HW147419   4.890  11.356  11.241
15215SOL    HW247420   4.798  11.453  11.170
15216SOL     OW47421  14.803   0.322   3.748
15216SOL    HW147422  14.779   0.240   3.791
15216SOL    HW247423  14.866   0.296   3.681
15217SOL     OW47424   4.624   6.102  13.899
15217SOL    HW147425   4.717   6.089  13.880
15217SOL    HW247426   4.606   6.045  13.973
15218SOL     OW47427  11.232   3.573   3.892
15218SOL    HW147428  11.227   3.562   3.987
15218SOL    HW247429  11.141   3.580   3.863
15219SOL     OW47430   2.627  14.594   1.204
15219SOL    HW147431   2.575  14.592   1.284
15219SOL    HW247432   2.633  14.502   1.177
15220SOL     OW47433  14.664   8.949  10.484
15220SOL    HW147434  14.570   8.958  10.499
15220SOL    HW247435  14.691   8.881  10.545
15221SOL     OW47436   9.999   6.219  11.845
15221SOL    HW147437   9.914   6.187  11.874
15221SOL    HW247438   9.986   6.244  11.753
15222SOL     OW47439   6.919   0.912   2.296
15222SOL    HW147440   6.907   0.837   2.354
15222SOL    HW247441   6.867   0.981   2.337
15223SOL     OW47442   7.190  13.217  13.934
15223SOL    HW147443   7.151  13.276  13.869
15223SOL    HW247444   7.116  13.165  13.966
15224SOL     OW47445   2.265   3.968   4.917
15224SOL    HW147446   2.318   3.891   4.934
15224SOL    HW247447   2.282   3.989   4.825
15225SOL     OW47448   3.925  11.815   8.348
15225SOL    HW147449   3.863  11.807   8.421
15225SOL    HW247450   3.889  11.884   8.293
15226SOL     OW47451   8.216   5.543   7.457
15226SOL    HW147452   8.305   5.559   7.488
15226SOL    HW247453   8.200   5.612   7.393
15227SOL     OW47454   0.793   3.171   1.130
15227SOL    HW147455   0.786   3.080   1.159
15227SOL    HW247456   0.827   3.218   1.207
15228SOL     OW47457   0.535  14.194   9.775
15228SOL    HW147458   0.510  14.175   9.685
15228SOL    HW247459   0.579  14.278   9.771
15229SOL     OW47460   8.428   1.501   6.167
15229SOL    HW147461   8.350   1.547   6.137
15229SOL    HW247462   8.501   1.555   6.136
15230SOL     OW47463   4.769   7.976   2.238
15230SOL    HW147464   4.855   8.018   2.245
15230SOL    HW247465   4.724   7.999   2.319
15231SOL     OW47466   9.293  12.883  10.599
15231SOL    HW147467   9.295  12.936  10.678
15231SOL    HW247468   9.291  12.947  10.528
15232SOL     OW47469   5.583   5.638   9.015
15232SOL    HW147470   5.522   5.564   9.019
15232SOL    HW247471   5.596   5.652   8.921
15233SOL     OW47472  13.965   4.062  12.465
15233SOL    HW147473  13.943   4.149  12.431
15233SOL    HW247474  13.906   4.051  12.540
15234SOL     OW47475   6.094   7.907   7.629
15234SOL    HW147476   6.029   7.962   7.585
15234SOL    HW247477   6.162   7.968   7.658
15235SOL     OW47478  12.401   1.867   2.712
15235SOL    HW147479  12.389   1.773   2.700
15235SOL    HW247480  12.408   1.878   2.807
15236SOL     OW47481   2.357  10.619   6.101
15236SOL    HW147482   2.330  10.546   6.045
15236SOL    HW247483   2.308  10.606   6.182
15237SOL     OW47484   9.819   7.245  14.095
15237SOL    HW147485   9.812   7.253  14.000
15237SOL    HW247486   9.730   7.260  14.127
15238SOL     OW47487   2.482   0.456   8.349
15238SOL    HW147488   2.454   0.476   8.259
15238SOL    HW247489   2.512   0.540   8.383
15239SOL     OW47490  12.050  10.787   8.810
15239SOL    HW147491  12.013  10.753   8.892
15239SOL    HW247492  11.995  10.748   8.741
15240SOL     OW47493   8.662   8.218   5.737
15240SOL    HW147494   8.571   8.235   5.764
15240SOL    HW247495   8.714   8.282   5.786
15241SOL     OW47496   8.988  14.235   8.510
15241SOL    HW147497   9.076  14.198   8.515
15241SOL    HW247498   8.941  14.192   8.582
15242SOL     OW47499   0.525   7.607  11.439
15242SOL    HW147500   0.592   7.637  11.378
15242SOL    HW247501   0.542   7.655  11.520
15243SOL     OW47502  14.483   3.591  13.110
15243SOL    HW147503  14.569   3.552  13.129
15243SOL    HW247504  14.427   3.516  13.091
15244SOL     OW47505   6.759   6.967   5.764
15244SOL    HW147506   6.665   6.958   5.774
15244SOL    HW247507   6.771   7.047   5.714
15245SOL     OW47508   3.196  12.677  14.609
15245SOL    HW147509   3.151  12.748  14.563
15245SOL    HW247510   3.126  12.626  14.649
15246SOL     OW47511   0.765   9.964   4.919
15246SOL    HW147512   0.698   9.961   4.851
15246SOL    HW247513   0.721   9.934   4.998
15247SOL     OW47514   4.865   9.506   8.892
15247SOL    HW147515   4.772   9.499   8.871
15247SOL    HW247516   4.896   9.416   8.894
15248SOL     OW47517   6.397  11.138   9.767
15248SOL    HW147518   6.384  11.119   9.860
15248SOL    HW247519   6.390  11.233   9.761
15249SOL     OW47520  14.169   7.770  11.229
15249SOL    HW147521  14.264   7.758  11.239
15249SOL    HW247522  14.141   7.697  11.174
15250SOL     OW47523  10.719   2.997   3.443
15250SOL    HW147524  10.773   3.067   3.407
15250SOL    HW247525  10.632   3.037   3.453
15251SOL     OW47526   6.296   0.458   1.468
15251SOL    HW147527   6.268   0.443   1.558
15251SOL    HW247528   6.253   0.540   1.442
15252SOL     OW47529   3.283  14.286   0.843
15252SOL    HW147530   3.253  14.294   0.933
15252SOL    HW247531   3.248  14.203   0.813
15253SOL     OW47532   3.024  13.530  11.101
15253SOL    HW147533   3.089  13.563  11.038
15253SOL    HW247534   2.989  13.451  11.060
15254SOL     OW47535   0.058   4.961   8.728
15254SOL    HW147536  14.849   4.975   8.757
15254SOL    HW247537   0.103   4.926   8.805
15255SOL     OW47538   8.524   0.455   7.298
15255SOL    HW147539   8.503   0.538   7.254
15255SOL    HW247540   8.487   0.388   7.241
15256SOL     OW47541  12.841   6.445   6.633
15256SOL    HW147542  12.913   6.399   6.675
15256SOL    HW247543  12.774   6.378   6.618
15257SOL     OW47544  13.789  13.257   7.527
15257SOL    HW147545  13.869  13.238   7.478
15257SOL    HW247546  13.724  13.277   7.460
15258SOL     OW47547   2.270   4.399   4.859
15258SOL    HW147548   2.299   4.472   4.913
15258SOL    HW247549   2.328   4.399   4.783
15259SOL     OW47550  11.028   4.874   2.756
15259SOL    HW147551  10.988   4.862   2.670
15259SOL    HW247552  10.954   4.883   2.816
15260SOL     OW47553  13.652   0.764   9.431
15260SOL    HW147554  13.732   0.746   9.481
15260SOL    HW247555  13.668   0.848   9.389
15261SOL     OW47556   0.996  14.236   9.174
15261SOL    HW147557   1.039  14.220   9.090
15261SOL    HW247558   1.017  14.327   9.195
15262SOL     OW47559   9.510  11.748  13.063
15262SOL    HW147560   9.503  11.823  13.004
15262SOL    HW247561   9.497  11.672  13.007
15263SOL     OW47562   6.589  13.144  11.163
15263SOL    HW147563   6.647  13.219  11.147
15263SOL    HW247564   6.521  13.153  11.096
15264SOL     OW47565  14.080   4.807   7.616
15264SOL    HW147566  14.088   4.797   7.711
15264SOL    HW247567  14.002   4.757   7.593
15265SOL     OW47568  12.925  11.341  13.820
15265SOL    HW147569  12.893  11.429  13.802
15265SOL    HW247570  12.857  11.302  13.876
15266SOL     OW47571   7.165  11.235  11.271
15266SOL    HW147572   7.081  11.237  11.317
15266SOL    HW247573   7.147  11.184  11.192
15267SOL     OW47574   4.177   0.129   2.052
15267SOL    HW147575   4.128   0.112   2.133
15267SOL    HW247576   4.130   0.202   2.011
15268SOL     OW47577   5.106   1.764  10.024
15268SOL    HW147578   5.043   1.732   9.959
15268SOL    HW247579   5.191   1.757   9.980
15269SOL     OW47580   3.202   2.982   5.414
15269SOL    HW147581   3.217   2.926   5.338
15269SOL    HW247582   3.290   3.011   5.438
15270SOL     OW47583   2.522  13.364   5.232
15270SOL    HW147584   2.572  13.301   5.285
15270SOL    HW247585   2.544  13.449   5.268
15271SOL     OW47586   6.251   9.357   8.933
15271SOL    HW147587   6.273   9.323   9.020
15271SOL    HW247588   6.184   9.423   8.949
15272SOL     OW47589   2.799   0.943   0.723
15272SOL    HW147590   2.790   0.853   0.756
15272SOL    HW247591   2.724   0.990   0.758
15273SOL     OW47592   0.493   3.721  12.050
15273SOL    HW147593   0.416   3.717  12.106
15273SOL    HW247594   0.530   3.633  12.052
15274SOL     OW47595   4.568   5.764   9.196
15274SOL    HW147596   4.609   5.846   9.225
15274SOL    HW247597   4.478   5.771   9.225
15275SOL     OW47598   6.269  11.433   4.703
15275SOL    HW147599   6.264  11.382   4.784
15275SOL    HW247600   6.283  11.368   4.634
15276SOL     OW47601  13.355   1.551   6.532
15276SOL    HW147602  13.407   1.489   6.583
15276SOL    HW247603  13.289   1.583   6.593
15277SOL     OW47604   0.171  14.506   6.463
15277SOL    HW147605   0.237  14.458   6.413
15277SOL    HW247606   0.108  14.536   6.398
15278SOL     OW47607  12.602  12.566   1.526
15278SOL    HW147608  12.569  12.613   1.602
15278SOL    HW247609  12.594  12.627   1.454
15279SOL     OW47610   9.095  13.365   7.373
15279SOL    HW147611   9.005  13.398   7.385
15279SOL    HW247612   9.123  13.403   7.290
15280SOL     OW47613   9.145  10.257   4.736
15280SOL    HW147614   9.105  10.327   4.787
15280SOL    HW247615   9.144  10.181   4.794
15281SOL     OW47616  10.685   7.924   2.217
15281SOL    HW147617  10.651   8.008   2.187
15281SOL    HW247618  10.776   7.922   2.186
15282SOL     OW47619   3.497   1.674  13.231
15282SOL    HW147620   3.419   1.682  13.286
15282SOL    HW247621   3.569   1.696  13.289
15283SOL     OW47622   7.692   8.200   0.790
15283SOL    HW147623   7.598   8.201   0.769
15283SOL    HW247624   7.715   8.107   0.789
15284SOL     OW47625   4.995  11.892   0.275
15284SOL    HW147626   4.974  11.841   0.353
15284SOL    HW247627   4.910  11.914   0.237
15285SOL     OW47628   0.373  10.886   9.536
15285SOL    HW147629   0.417  10.802   9.523
15285SOL    HW247630   0.280  10.865   9.538
15286SOL     OW47631   1.518  11.942   1.066
15286SOL    HW147632   1.544  12.016   1.121
15286SOL    HW247633   1.560  11.866   1.107
15287SOL     OW47634   5.586  13.347  12.393
15287SOL    HW147635   5.632  13.309  12.318
15287SOL    HW247636   5.601  13.286  12.465
15288SOL     OW47637   3.667   1.385   5.592
15288SOL    HW147638   3.651   1.429   5.509
15288SOL    HW247639   3.751   1.339   5.579
15289SOL     OW47640   3.577   5.106   1.754
15289SOL    HW147641   3.553   5.015   1.735
15289SOL    HW247642   3.635   5.101   1.830
15290SOL     OW47643   6.968   1.440  13.319
15290SOL    HW147644   7.013   1.483  13.247
15290SOL    HW247645   6.930   1.361  13.281
15291SOL     OW47646  14.104   1.678  13.125
15291SOL    HW147647  14.046   1.610  13.091
15291SOL    HW247648  14.070   1.759  13.087
15292SOL     OW47649  11.306   4.583  12.948
15292SOL    HW147650  11.346   4.635  13.018
15292SOL    HW247651  11.268   4.649  12.889
15293SOL     OW47652   6.428  10.830   1.906
15293SOL    HW147653   6.487  10.758   1.885
15293SOL    HW247654   6.454  10.859   1.993
15294SOL     OW47655   2.993   5.096   2.610
15294SOL    HW147656   2.995   5.173   2.552
15294SOL    HW247657   2.939   5.124   2.684
15295SOL     OW47658   5.015   9.509   1.001
15295SOL    HW147659   5.037   9.433   1.056
15295SOL    HW247660   4.920   9.507   0.996
15296SOL     OW47661   7.769   2.330   6.483
15296SOL    HW147662   7.684   2.292   6.506
15296SOL    HW247663   7.797   2.281   6.405
15297SOL     OW47664   8.742   4.219   1.063
15297SOL    HW147665   8.792   4.140   1.082
15297SOL    HW247666   8.655   4.202   1.098
15298SOL     OW47667   3.766  10.043   6.472
15298SOL    HW147668   3.676  10.011   6.463
15298SOL    HW247669   3.761  10.135   6.446
15299SOL     OW47670   0.717   0.829  12.289
15299SOL    HW147671   0.639   0.857  12.336
15299SOL    HW247672   0.687   0.806  12.201
15300SOL     OW47673  12.061   0.365  11.216
15300SOL    HW147674  12.080   0.454  11.187
15300SOL    HW247675  11.969   0.367  11.241
15301SOL     OW47676  10.782   0.644   8.468
15301SOL    HW147677  10.822   0.559   8.449
15301SOL    HW247678  10.690   0.633   8.444
15302SOL     OW47679   9.129  14.860   6.251
15302SOL    HW147680   9.055   0.039   6.255
15302SOL    HW247681   9.102  14.786   6.305
15303SOL     OW47682   5.100   7.225   7.592
15303SOL    HW147683   5.148   7.280   7.530
15303SOL    HW247684   5.161   7.154   7.613
15304SOL     OW47685  12.028  14.626   1.189
15304SOL    HW147686  12.020  14.676   1.270
15304SOL    HW247687  12.045  14.692   1.122
15305SOL     OW47688   8.930   4.358   8.645
15305SOL    HW147689   8.894   4.424   8.587
15305SOL    HW247690   8.867   4.286   8.642
15306SOL     OW47691   9.753  13.443   9.327
15306SOL    HW147692   9.681  13.389   9.359
15306SOL    HW247693   9.808  13.458   9.404
15307SOL     OW47694  13.774   4.619  14.543
15307SOL    HW147695  13.850   4.639  14.597
15307SOL    HW247696  13.715   4.693  14.556
15308SOL     OW47697   4.639  14.446   7.945
15308SOL    HW147698   4.715  14.493   7.980
15308SOL    HW247699   4.622  14.488   7.861
15309SOL     OW47700   2.886   9.579  11.290
15309SOL    HW147701   2.895   9.592  11.384
15309SOL    HW247702   2.844   9.493  11.281
15310SOL     OW47703  11.268  12.858  14.835
15310SOL    HW147704  11.307  12.941  14.863
15310SOL    HW247705  11.323  12.829  14.762
15311SOL     OW47706   1.160   7.691   2.615
15311SOL    HW147707   1.115   7.762   2.662
15311SOL    HW247708   1.216   7.737   2.552
15312SOL     OW47709  12.804   5.794   5.489
15312SOL    HW147710  12.898   5.793   5.471
15312SOL    HW247711  12.773   5.707   5.465
15313SOL     OW47712  10.935   5.174   3.869
15313SOL    HW147713  10.934   5.102   3.806
15313SOL    HW247714  10.898   5.137   3.949
15314SOL     OW47715   6.390  10.224  14.463
15314SOL    HW147716   6.432  10.189  14.385
15314SOL    HW247717   6.451  10.206  14.534
15315SOL     OW47718   0.306   3.667   7.728
15315SOL    HW147719   0.255   3.684   7.807
15315SOL    HW247720   0.282   3.577   7.703
15316SOL     OW47721  12.245   2.738  11.357
15316SOL    HW147722  12.248   2.764  11.265
15316SOL    HW247723  12.317   2.787  11.398
15317SOL     OW47724   8.027   1.135   2.525
15317SOL    HW147725   8.066   1.086   2.452
15317SOL    HW247726   8.035   1.076   2.600
15318SOL     OW47727   7.978   9.836   5.855
15318SOL    HW147728   7.987   9.860   5.948
15318SOL    HW247729   7.971   9.740   5.856
15319SOL     OW47730   6.667   6.328   0.064
15319SOL    HW147731   6.685   6.422   0.059
15319SOL    HW247732   6.647   6.303  14.856
15320SOL     OW47733   7.429  10.638  12.767
15320SOL    HW147734   7.435  10.713  12.708
15320SOL    HW247735   7.388  10.674  12.846
15321SOL     OW47736   8.677   6.521  14.227
15321SOL    HW147737   8.636   6.608  14.221
15321SOL    HW247738   8.743   6.531  14.295
15322SOL     OW47739   2.267  11.105   2.350
15322SOL    HW147740   2.181  11.142   2.366
15322SOL    HW247741   2.310  11.105   2.435
15323SOL     OW47742   9.789   2.720   6.323
15323SOL    HW147743   9.734   2.642   6.317
15323SOL    HW247744   9.876   2.686   6.344
15324SOL     OW47745   7.544   1.775   8.523
15324SOL    HW147746   7.540   1.787   8.428
15324SOL    HW247747   7.553   1.681   8.535
15325SOL     OW47748  11.419   6.581   1.840
15325SOL    HW147749  11.412   6.531   1.921
15325SOL    HW247750  11.413   6.672   1.866
15326SOL     OW47751   7.239   3.406  10.774
15326SOL    HW147752   7.322   3.453  10.785
15326SOL    HW247753   7.264   3.322  10.735
15327SOL     OW47754  12.311  14.826  10.296
15327SOL    HW147755  12.402  14.846  10.277
15327SOL    HW247756  12.314  14.753  10.356
15328SOL     OW47757  10.649  11.103  13.608
15328SOL    HW147758  10.606  11.035  13.660
15328SOL    HW247759  10.579  11.162  13.582
15329SOL     OW47760  14.176   8.911   1.341
15329SOL    HW147761  14.082   8.905   1.324
15329SOL    HW247762  14.183   8.968   1.417
15330SOL     OW47763   1.865   6.270   9.873
15330SOL    HW147764   1.916   6.252   9.952
15330SOL    HW247765   1.927   6.255   9.801
15331SOL     OW47766   4.070   4.459  13.558
15331SOL    HW147767   4.084   4.431  13.649
15331SOL    HW247768   4.033   4.547  13.566
15332SOL     OW47769  11.342   3.715   0.365
15332SOL    HW147770  11.431   3.746   0.346
15332SOL    HW247771  11.288   3.794   0.364
15333SOL     OW47772   2.159   2.789   8.665
15333SOL    HW147773   2.133   2.697   8.663
15333SOL    HW247774   2.079   2.837   8.647
15334SOL     OW47775  11.819   4.076   7.392
15334SOL    HW147776  11.852   4.119   7.471
15334SOL    HW247777  11.729   4.107   7.384
15335SOL     OW47778  12.990   7.058   3.621
15335SOL    HW147779  12.932   7.097   3.687
15335SOL    HW247780  13.021   6.977   3.661
15336SOL     OW47781  12.762   7.242   6.074
15336SOL    HW147782  12.678   7.245   6.027
15336SOL    HW247783  12.739   7.260   6.165
15337SOL     OW47784  13.110   2.842   3.980
15337SOL    HW147785  13.017   2.821   3.985
15337SOL    HW247786  13.138   2.853   4.071
15338SOL     OW47787   7.446   6.324  14.685
15338SOL    HW147788   7.457   6.260  14.616
15338SOL    HW247789   7.421   6.273  14.762
15339SOL     OW47790   8.386   8.008  12.106
15339SOL    HW147791   8.453   8.043  12.048
15339SOL    HW247792   8.335   7.949  12.051
15340SOL     OW47793   1.205   0.989   6.915
15340SOL    HW147794   1.253   0.934   6.977
15340SOL    HW247795   1.198   0.935   6.836
15341SOL     OW47796   7.436   8.893  11.480
15341SOL    HW147797   7.483   8.810  11.472
15341SOL    HW247798   7.359   8.872  11.534
15342SOL     OW47799   6.997   5.136  11.991
15342SOL    HW147800   7.036   5.218  11.962
15342SOL    HW247801   7.011   5.075  11.919
15343SOL     OW47802   3.869  14.675  11.663
15343SOL    HW147803   3.943  14.733  11.644
15343SOL    HW247804   3.898  14.624  11.738
15344SOL     OW47805   7.458   7.132  13.026
15344SOL    HW147806   7.488   7.214  13.067
15344SOL    HW247807   7.369   7.120  13.060
15345SOL     OW47808   5.271   9.715   9.215
15345SOL    HW147809   5.284   9.793   9.269
15345SOL    HW247810   5.359   9.691   9.188
15346SOL     OW47811   8.777   8.308  11.535
15346SOL    HW147812   8.812   8.316  11.446
15346SOL    HW247813   8.827   8.238  11.575
15347SOL     OW47814   2.538  12.873  10.496
15347SOL    HW147815   2.619  12.824  10.481
15347SOL    HW247816   2.485  12.856  10.418
15348SOL     OW47817   4.724   4.326  12.383
15348SOL    HW147818   4.652   4.268  12.407
15348SOL    HW247819   4.773   4.277  12.317
15349SOL     OW47820  11.367   5.941   8.449
15349SOL    HW147821  11.314   5.915   8.524
15349SOL    HW247822  11.373   5.862   8.395
15350SOL     OW47823  10.361  13.598  12.086
15350SOL    HW147824  10.349  13.504  12.071
15350SOL    HW247825  10.386  13.605  12.178
15351SOL     OW47826   0.123   6.513   3.002
15351SOL    HW147827   0.170   6.547   2.926
15351SOL    HW247828   0.090   6.427   2.974
15352SOL     OW47829  12.213   9.657   8.989
15352SOL    HW147830  12.152   9.730   8.978
15352SOL    HW247831  12.248   9.667   9.077
15353SOL     OW47832  11.429   2.672   9.793
15353SOL    HW147833  11.508   2.641   9.750
15353SOL    HW247834  11.362   2.672   9.725
15354SOL     OW47835   9.536   2.318   2.673
15354SOL    HW147836   9.460   2.374   2.658
15354SOL    HW247837   9.524   2.245   2.613
15355SOL     OW47838   2.148   7.200   6.066
15355SOL    HW147839   2.232   7.205   6.020
15355SOL    HW247840   2.164   7.143   6.141
15356SOL     OW47841   2.918   1.846   4.755
15356SOL    HW147842   3.014   1.850   4.755
15356SOL    HW247843   2.896   1.786   4.685
15357SOL     OW47844   1.000   6.055   0.010
15357SOL    HW147845   1.092   6.070  14.873
15357SOL    HW247846   0.995   6.050   0.105
15358SOL     OW47847   8.061   4.483   8.010
15358SOL    HW147848   8.055   4.568   8.053
15358SOL    HW247849   8.037   4.500   7.919
15359SOL     OW47850   8.372  12.802  13.455
15359SOL    HW147851   8.415  12.860  13.518
15359SOL    HW247852   8.401  12.833  13.370
15360SOL     OW47853  12.459   9.751   1.682
15360SOL    HW147854  12.485   9.748   1.774
15360SOL    HW247855  12.524   9.807   1.640
15361SOL     OW47856   9.820  12.741   9.159
15361SOL    HW147857   9.909  12.745   9.194
15361SOL    HW247858   9.793  12.833   9.152
15362SOL     OW47859   5.829  14.040   2.013
15362SOL    HW147860   5.785  13.957   1.991
15362SOL    HW247861   5.786  14.105   1.957
15363SOL     OW47862  12.910   6.555   6.927
15363SOL    HW147863  12.930   6.463   6.909
15363SOL    HW247864  12.946   6.603   6.852
15364SOL     OW47865   0.327  13.667   7.966
15364SOL    HW147866   0.420  13.681   7.948
15364SOL    HW247867   0.305  13.734   8.030
15365SOL     OW47868   6.418   4.938  13.304
15365SOL    HW147869   6.459   4.977  13.381
15365SOL    HW247870   6.327   4.967  13.308
15366SOL     OW47871   1.658   9.908   4.549
15366SOL    HW147872   1.570   9.870   4.549
15366SOL    HW247873   1.663   9.959   4.630
15367SOL     OW47874   9.124   7.676  14.347
15367SOL    HW147875   9.209   7.631  14.350
15367SOL    HW247876   9.088   7.653  14.261
15368SOL     OW47877   9.283   4.555  10.711
15368SOL    HW147878   9.319   4.546  10.623
15368SOL    HW247879   9.358   4.582  10.765
15369SOL     OW47880   7.817   5.815   3.343
15369SOL    HW147881   7.762   5.738   3.329
15369SOL    HW247882   7.798   5.873   3.269
15370SOL     OW47883   1.216  12.416  12.757
15370SOL    HW147884   1.156  12.375  12.819
15370SOL    HW247885   1.180  12.395  12.671
15371SOL     OW47886  11.336   7.924   9.031
15371SOL    HW147887  11.271   7.881   8.976
15371SOL    HW247888  11.419   7.911   8.985
15372SOL     OW47889   4.964   4.959   0.237
15372SOL    HW147890   4.975   5.023   0.168
15372SOL    HW247891   4.913   5.003   0.304
15373SOL     OW47892   8.886   6.892   8.432
15373SOL    HW147893   8.937   6.972   8.425
15373SOL    HW247894   8.795   6.921   8.438
15374SOL     OW47895  14.048   5.234   8.070
15374SOL    HW147896  14.061   5.177   8.145
15374SOL    HW247897  13.961   5.273   8.084
15375SOL     OW47898   4.708   6.875   1.068
15375SOL    HW147899   4.765   6.951   1.056
15375SOL    HW247900   4.745   6.829   1.143
15376SOL     OW47901  13.770   6.198  10.320
15376SOL    HW147902  13.789   6.228  10.231
15376SOL    HW247903  13.836   6.130  10.336
15377SOL     OW47904  11.841  14.597   7.968
15377SOL    HW147905  11.841  14.517   8.021
15377SOL    HW247906  11.933  14.620   7.959
15378SOL     OW47907  11.694   1.788   7.359
15378SOL    HW147908  11.674   1.833   7.440
15378SOL    HW247909  11.620   1.809   7.301
15379SOL     OW47910   9.028   6.076   9.666
15379SOL    HW147911   8.947   6.126   9.678
15379SOL    HW247912   9.049   6.087   9.573
15380SOL     OW47913   2.247   7.865   4.578
15380SOL    HW147914   2.220   7.773   4.575
15380SOL    HW247915   2.165   7.914   4.578
15381SOL     OW47916   0.557  10.950  14.225
15381SOL    HW147917   0.621  10.922  14.159
15381SOL    HW247918   0.538  11.041  14.204
15382SOL     OW47919   2.907   4.209   8.329
15382SOL    HW147920   2.994   4.218   8.291
15382SOL    HW247921   2.899   4.285   8.388
15383SOL     OW47922   5.002  11.207   8.691
15383SOL    HW147923   4.917  11.162   8.691
15383SOL    HW247924   5.059  11.150   8.640
15384SOL     OW47925   5.744   4.492  10.790
15384SOL    HW147926   5.778   4.404  10.808
15384SOL    HW247927   5.803   4.551  10.836
15385SOL     OW47928   6.607  13.102   7.832
15385SOL    HW147929   6.540  13.143   7.777
15385SOL    HW247930   6.643  13.033   7.776
15386SOL     OW47931   2.424   4.255   9.895
15386SOL    HW147932   2.421   4.252   9.800
15386SOL    HW247933   2.395   4.168   9.923
15387SOL     OW47934  12.077  10.561  12.529
15387SOL    HW147935  12.002  10.533  12.582
15387SOL    HW247936  12.052  10.648  12.498
15388SOL     OW47937   9.297   6.874   6.837
15388SOL    HW147938   9.227   6.875   6.772
15388SOL    HW247939   9.281   6.796   6.890
15389SOL     OW47940   3.634   4.553   0.968
15389SOL    HW147941   3.654   4.594   0.883
15389SOL    HW247942   3.712   4.501   0.989
15390SOL     OW47943  11.238   6.725   8.621
15390SOL    HW147944  11.250   6.794   8.686
15390SOL    HW247945  11.300   6.746   8.551
15391SOL     OW47946   3.946  12.568   5.787
15391SOL    HW147947   3.941  12.473   5.792
15391SOL    HW247948   4.037  12.589   5.809
15392SOL     OW47949   8.021  12.870  12.519
15392SOL    HW147950   7.993  12.779  12.530
15392SOL    HW247951   8.101  12.877  12.572
15393SOL     OW47952   1.276   2.844   6.630
15393SOL    HW147953   1.359   2.827   6.675
15393SOL    HW247954   1.258   2.763   6.582
15394SOL     OW47955  14.398  14.409  13.526
15394SOL    HW147956  14.408  14.451  13.441
15394SOL    HW247957  14.482  14.368  13.543
15395SOL     OW47958  11.087   2.401   5.327
15395SOL    HW147959  11.053   2.391   5.415
15395SOL    HW247960  11.040   2.336   5.275
15396SOL     OW47961   3.737   5.306  14.092
15396SOL    HW147962   3.752   5.212  14.089
15396SOL    HW247963   3.674   5.318  14.163
15397SOL     OW47964   4.164  14.735  14.527
15397SOL    HW147965   4.148  14.788  14.448
15397SOL    HW247966   4.183  14.800  14.595
15398SOL     OW47967   8.076  11.618   8.709
15398SOL    HW147968   8.038  11.668   8.637
15398SOL    HW247969   8.093  11.683   8.777
15399SOL     OW47970   9.168  10.048   2.332
15399SOL    HW147971   9.243  10.006   2.290
15399SOL    HW247972   9.137   9.983   2.395
15400SOL     OW47973   8.283   7.196   9.641
15400SOL    HW147974   8.283   7.124   9.705
15400SOL    HW247975   8.232   7.265   9.683
15401SOL     OW47976  11.911  12.595   8.441
15401SOL    HW147977  11.822  12.583   8.407
15401SOL    HW247978  11.930  12.687   8.424
15402SOL     OW47979   0.092   5.808   1.935
15402SOL    HW147980   0.184   5.813   1.959
15402SOL    HW247981   0.090   5.748   1.860
15403SOL     OW47982   8.117   8.269  11.860
15403SOL    HW147983   8.050   8.273  11.791
15403SOL    HW247984   8.090   8.195  11.914
15404SOL     OW47985   5.944  10.044  14.694
15404SOL    HW147986   5.913  10.116  14.637
15404SOL    HW247987   5.894   9.968  14.665
15405SOL     OW47988   9.919  10.644   6.417
15405SOL    HW147989   9.857  10.663   6.488
15405SOL    HW247990   9.980  10.581   6.455
15406SOL     OW47991  12.261  12.150   8.838
15406SOL    HW147992  12.289  12.083   8.776
15406SOL    HW247993  12.309  12.130   8.919
15407SOL     OW47994  13.082   7.231   6.867
15407SOL    HW147995  13.010   7.227   6.804
15407SOL    HW247996  13.120   7.318   6.854
15408SOL     OW47997   2.707  13.074   2.733
15408SOL    HW147998   2.642  13.144   2.743
15408SOL    HW247999   2.786  13.108   2.775
15409SOL     OW48000   4.393   7.712   3.852
15409SOL    HW148001   4.377   7.773   3.924
15409SOL    HW248002   4.430   7.634   3.893
15410SOL     OW48003   9.444  10.314   5.958
15410SOL    HW148004   9.374  10.378   5.968
15410SOL    HW248005   9.510  10.340   6.021
15411SOL     OW48006   5.380  11.425   8.834
15411SOL    HW148007   5.303  11.371   8.851
15411SOL    HW248008   5.452  11.375   8.874
15412SOL     OW48009  10.880  13.376   3.863
15412SOL    HW148010  10.933  13.423   3.927
15412SOL    HW248011  10.853  13.296   3.908
15413SOL     OW48012  14.613  14.517   4.623
15413SOL    HW148013  14.563  14.453   4.573
15413SOL    HW248014  14.681  14.465   4.667
15414SOL     OW48015   1.739   5.496  14.663
15414SOL    HW148016   1.761   5.427  14.726
15414SOL    HW248017   1.751   5.455  14.577
15415SOL     OW48018   4.641  11.903  12.771
15415SOL    HW148019   4.600  11.974  12.820
15415SOL    HW248020   4.574  11.875  12.708
15416SOL     OW48021  14.160  13.416   5.162
15416SOL    HW148022  14.203  13.487   5.116
15416SOL    HW248023  14.166  13.440   5.254
15417SOL     OW48024   7.264  11.254  13.992
15417SOL    HW148025   7.244  11.162  13.974
15417SOL    HW248026   7.358  11.255  14.011
15418SOL     OW48027  10.564  11.858   5.128
15418SOL    HW148028  10.576  11.872   5.034
15418SOL    HW248029  10.650  11.830   5.159
15419SOL     OW48030   0.087   3.395  11.909
15419SOL    HW148031   0.177   3.402  11.940
15419SOL    HW248032   0.034   3.401  11.988
15420SOL     OW48033   5.345   9.558  10.780
15420SOL    HW148034   5.440   9.553  10.774
15420SOL    HW248035   5.321   9.632  10.724
15421SOL     OW48036  14.374   1.418  10.294
15421SOL    HW148037  14.335   1.354  10.234
15421SOL    HW248038  14.300   1.471  10.323
15422SOL     OW48039   1.616   0.811  11.434
15422SOL    HW148040   1.629   0.875  11.504
15422SOL    HW248041   1.595   0.730  11.480
15423SOL     OW48042   3.346  13.538   2.230
15423SOL    HW148043   3.269  13.496   2.271
15423SOL    HW248044   3.316  13.626   2.208
15424SOL     OW48045   0.258   8.062   4.453
15424SOL    HW148046   0.240   8.150   4.484
15424SOL    HW248047   0.331   8.071   4.392
15425SOL     OW48048  13.100   6.308   7.139
15425SOL    HW148049  13.082   6.306   7.045
15425SOL    HW248050  13.128   6.398   7.156
15426SOL     OW48051   0.090   1.849  13.321
15426SOL    HW148052   0.120   1.792  13.392
15426SOL    HW248053   0.016   1.897  13.358
15427SOL     OW48054   7.134   8.465  13.619
15427SOL    HW148055   7.072   8.451  13.548
15427SOL    HW248056   7.181   8.545  13.594
15428SOL     OW48057  11.639   5.104  11.134
15428SOL    HW148058  11.724   5.133  11.103
15428SOL    HW248059  11.657   5.025  11.186
15429SOL     OW48060   1.580  10.309  11.637
15429SOL    HW148061   1.492  10.340  11.619
15429SOL    HW248062   1.629  10.387  11.662
15430SOL     OW48063   5.532   6.315  13.175
15430SOL    HW148064   5.474   6.382  13.211
15430SOL    HW248065   5.496   6.297  13.088
15431SOL     OW48066  11.041   5.625   4.788
15431SOL    HW148067  11.068   5.596   4.875
15431SOL    HW248068  10.981   5.698   4.804
15432SOL     OW48069  13.698   5.600   1.977
15432SOL    HW148070  13.650   5.552   1.910
15432SOL    HW248071  13.763   5.537   2.010
15433SOL     OW48072  14.017  10.347   7.432
15433SOL    HW148073  14.094  10.369   7.378
15433SOL    HW248074  14.017  10.413   7.501
15434SOL     OW48075   7.337   9.875  12.944
15434SOL    HW148076   7.246   9.899  12.929
15434SOL    HW248077   7.378   9.956  12.976
15435SOL     OW48078   2.608   2.905   7.394
15435SOL    HW148079   2.571   2.850   7.462
15435SOL    HW248080   2.569   2.991   7.410
15436SOL     OW48081   4.741  14.210   7.732
15436SOL    HW148082   4.812  14.236   7.791
15436SOL    HW248083   4.684  14.155   7.785
15437SOL     OW48084  14.432  10.677   2.716
15437SOL    HW148085  14.521  10.644   2.715
15437SOL    HW248086  14.423  10.716   2.803
15438SOL     OW48087   6.986   8.871   7.915
15438SOL    HW148088   7.017   8.957   7.886
15438SOL    HW248089   6.894   8.869   7.888
15439SOL     OW48090  11.214   4.979  12.963
15439SOL    HW148091  11.298   4.945  12.994
15439SOL    HW248092  11.193   4.923  12.888
15440SOL     OW48093  13.946   3.089   8.059
15440SOL    HW148094  13.950   3.181   8.033
15440SOL    HW248095  14.037   3.065   8.078
15441SOL     OW48096   7.231   4.129   0.132
15441SOL    HW148097   7.199   4.214   0.162
15441SOL    HW248098   7.152   4.076   0.120
15442SOL     OW48099  11.531  11.001   9.826
15442SOL    HW148100  11.460  11.042   9.777
15442SOL    HW248101  11.498  10.914   9.848
15443SOL     OW48102   7.921   7.119  14.777
15443SOL    HW148103   7.851   7.074  14.824
15443SOL    HW248104   7.991   7.054  14.770
15444SOL     OW48105   0.713   2.609   7.837
15444SOL    HW148106   0.751   2.696   7.824
15444SOL    HW248107   0.787   2.549   7.831
15445SOL     OW48108   3.012   9.554   3.135
15445SOL    HW148109   3.092   9.501   3.130
15445SOL    HW248110   2.944   9.497   3.099
15446SOL     OW48111   7.167  12.333   6.819
15446SOL    HW148112   7.106  12.309   6.889
15446SOL    HW248113   7.167  12.257   6.761
15447SOL     OW48114   8.065   0.677   2.912
15447SOL    HW148115   7.983   0.724   2.901
15447SOL    HW248116   8.054   0.628   2.994
15448SOL     OW48117  13.673  12.227  10.682
15448SOL    HW148118  13.691  12.245  10.774
15448SOL    HW248119  13.602  12.286  10.659
15449SOL     OW48120   6.570   3.582  12.882
15449SOL    HW148121   6.540   3.620  12.964
15449SOL    HW248122   6.569   3.487  12.898
15450SOL     OW48123  12.485   1.022  13.809
15450SOL    HW148124  12.533   0.956  13.759
15450SOL    HW248125  12.478   0.984  13.897
15451SOL     OW48126  10.314   1.482   0.353
15451SOL    HW148127  10.409   1.481   0.348
15451SOL    HW248128  10.292   1.405   0.406
15452SOL     OW48129   5.377  13.467   8.322
15452SOL    HW148130   5.428  13.495   8.398
15452SOL    HW248131   5.405  13.377   8.306
15453SOL     OW48132  10.770  14.202   9.010
15453SOL    HW148133  10.691  14.237   8.968
15453SOL    HW248134  10.737  14.139   9.073
15454SOL     OW48135  14.744  10.290  12.172
15454SOL    HW148136  14.750  10.239  12.253
15454SOL    HW248137  14.663  10.340  12.181
15455SOL     OW48138  14.724   5.094  13.535
15455SOL    HW148139  14.783   5.159  13.573
15455SOL    HW248140  14.637   5.119  13.565
15456SOL     OW48141  14.665   8.369   8.107
15456SOL    HW148142  14.713   8.294   8.072
15456SOL    HW248143  14.708   8.446   8.070
15457SOL     OW48144   8.094   3.596   8.813
15457SOL    HW148145   8.006   3.577   8.780
15457SOL    HW248146   8.137   3.642   8.742
15458SOL     OW48147   7.872   4.610   0.362
15458SOL    HW148148   7.902   4.693   0.324
15458SOL    HW248149   7.813   4.573   0.297
15459SOL     OW48150  11.736   8.122   2.529
15459SOL    HW148151  11.757   8.201   2.578
15459SOL    HW248152  11.787   8.129   2.448
15460SOL     OW48153  13.459   9.961   0.855
15460SOL    HW148154  13.438   9.956   0.762
15460SOL    HW248155  13.382   9.999   0.896
15461SOL     OW48156   5.715   9.560   7.078
15461SOL    HW148157   5.807   9.569   7.100
15461SOL    HW248158   5.711   9.580   6.984
15462SOL     OW48159   6.674   6.492   9.302
15462SOL    HW148160   6.633   6.508   9.387
15462SOL    HW248161   6.607   6.515   9.238
15463SOL     OW48162  13.214   7.100   6.270
15463SOL    HW148163  13.164   7.103   6.188
15463SOL    HW248164  13.203   7.188   6.307
15464SOL     OW48165   3.467   0.760  11.604
15464SOL    HW148166   3.387   0.806  11.629
15464SOL    HW248167   3.491   0.797  11.519
15465SOL     OW48168   1.393   2.585   1.316
15465SOL    HW148169   1.335   2.517   1.348
15465SOL    HW248170   1.474   2.573   1.366
15466SOL     OW48171  14.811   7.973  10.605
15466SOL    HW148172  14.752   7.971  10.529
15466SOL    HW248173  14.838   7.882  10.616
15467SOL     OW48174   6.449   8.671   8.940
15467SOL    HW148175   6.431   8.753   8.894
15467SOL    HW248176   6.476   8.698   9.027
15468SOL     OW48177  13.759   4.556  13.866
15468SOL    HW148178  13.793   4.472  13.834
15468SOL    HW248179  13.676   4.533  13.909
15469SOL     OW48180   4.731   2.585  11.085
15469SOL    HW148181   4.769   2.513  11.135
15469SOL    HW248182   4.680   2.541  11.016
15470SOL     OW48183   5.126   5.499   9.443
15470SOL    HW148184   5.145   5.488   9.349
15470SOL    HW248185   5.167   5.423   9.484
15471SOL     OW48186   5.409  10.801  14.683
15471SOL    HW148187   5.319  10.811  14.652
15471SOL    HW248188   5.459  10.777  14.604
15472SOL     OW48189   3.187   7.938  11.141
15472SOL    HW148190   3.126   7.978  11.203
15472SOL    HW248191   3.254   7.897  11.196
15473SOL     OW48192  13.807   6.520   0.922
15473SOL    HW148193  13.873   6.565   0.974
15473SOL    HW248194  13.856   6.476   0.852
15474SOL     OW48195   0.581   1.203   6.553
15474SOL    HW148196   0.517   1.145   6.511
15474SOL    HW248197   0.590   1.168   6.641
15475SOL     OW48198  11.373   7.649  12.653
15475SOL    HW148199  11.462   7.683  12.661
15475SOL    HW248200  11.331   7.674  12.735
15476SOL     OW48201  14.837  10.762   4.953
15476SOL    HW148202   0.019  10.693   4.935
15476SOL    HW248203  14.774  10.723   5.013
15477SOL     OW48204   1.231   7.365   3.797
15477SOL    HW148205   1.153   7.323   3.834
15477SOL    HW248206   1.198   7.409   3.718
15478SOL     OW48207  10.478   1.179   2.485
15478SOL    HW148208  10.436   1.233   2.417
15478SOL    HW248209  10.571   1.183   2.464
15479SOL     OW48210   9.621   1.114  11.677
15479SOL    HW148211   9.538   1.069  11.663
15479SOL    HW248212   9.682   1.073  11.616
15480SOL     OW48213   0.835   5.887  10.229
15480SOL    HW148214   0.800   5.878  10.141
15480SOL    HW248215   0.829   5.980  10.249
15481SOL     OW48216  13.268   6.065   6.933
15481SOL    HW148217  13.305   5.987   6.891
15481SOL    HW248218  13.175   6.044   6.943
15482SOL     OW48219  14.841   4.283  12.435
15482SOL    HW148220  14.881   4.287  12.348
15482SOL    HW248221   0.033   4.290  12.496
15483SOL     OW48222   7.797  14.061   3.415
15483SOL    HW148223   7.705  14.037   3.422
15483SOL    HW248224   7.822  14.087   3.503
15484SOL     OW48225   7.515   0.495  11.970
15484SOL    HW148226   7.591   0.547  11.994
15484SOL    HW248227   7.440   0.550  11.993
15485SOL     OW48228   4.116   2.425  13.490
15485SOL    HW148229   4.080   2.462  13.570
15485SOL    HW248230   4.211   2.438  13.498
15486SOL     OW48231   1.429   8.184   8.902
15486SOL    HW148232   1.378   8.262   8.923
15486SOL    HW248233   1.429   8.132   8.983
15487SOL     OW48234  12.536  13.082   1.164
15487SOL    HW148235  12.563  13.065   1.073
15487SOL    HW248236  12.618  13.079   1.214
15488SOL     OW48237   7.329   3.647   9.351
15488SOL    HW148238   7.294   3.609   9.271
15488SOL    HW248239   7.252   3.676   9.399
15489SOL     OW48240  10.863   3.563   6.572
15489SOL    HW148241  10.917   3.500   6.621
15489SOL    HW248242  10.778   3.521   6.565
15490SOL     OW48243  10.051  10.730   4.813
15490SOL    HW148244  10.084  10.670   4.747
15490SOL    HW248245  10.057  10.816   4.772
15491SOL     OW48246  13.491   0.651   2.117
15491SOL    HW148247  13.446   0.677   2.198
15491SOL    HW248248  13.420   0.621   2.059
15492SOL     OW48249   2.068   7.247   2.719
15492SOL    HW148250   2.159   7.274   2.718
15492SOL    HW248251   2.058   7.195   2.639
15493SOL     OW48252   3.402  11.173   2.814
15493SOL    HW148253   3.465  11.102   2.826
15493SOL    HW248254   3.450  11.252   2.838
15494SOL     OW48255   8.773  12.886   1.440
15494SOL    HW148256   8.792  12.937   1.362
15494SOL    HW248257   8.855  12.841   1.460
15495SOL     OW48258  13.627  12.757   3.912
15495SOL    HW148259  13.653  12.785   4.000
15495SOL    HW248260  13.565  12.825   3.883
15496SOL     OW48261   4.851  12.186   4.628
15496SOL    HW148262   4.774  12.132   4.616
15496SOL    HW248263   4.908  12.134   4.684
15497SOL     OW48264   9.773   7.869   6.492
15497SOL    HW148265   9.706   7.906   6.434
15497SOL    HW248266   9.760   7.913   6.575
15498SOL     OW48267   2.754  13.677   9.944
15498SOL    HW148268   2.754  13.728  10.025
15498SOL    HW248269   2.845  13.675   9.916
15499SOL     OW48270  11.604   0.745   5.954
15499SOL    HW148271  11.566   0.825   5.989
15499SOL    HW248272  11.560   0.732   5.870
15500SOL     OW48273  10.622   5.723   4.721
15500SOL    HW148274  10.552   5.699   4.660
15500SOL    HW248275  10.699   5.736   4.665
15501SOL     OW48276  11.987  13.729   8.188
15501SOL    HW148277  12.065  13.742   8.133
15501SOL    HW248278  11.972  13.814   8.229
15502SOL     OW48279   8.518  13.130  11.383
15502SOL    HW148280   8.515  13.212  11.433
15502SOL    HW248281   8.544  13.063  11.447
15503SOL     OW48282   5.411   4.199   6.610
15503SOL    HW148283   5.340   4.211   6.547
15503SOL    HW248284   5.449   4.286   6.620
15504SOL     OW48285  10.081   8.263   3.897
15504SOL    HW148286  10.031   8.236   3.974
15504SOL    HW248287  10.017   8.266   3.826
15505SOL     OW48288   9.990   2.738   0.172
15505SOL    HW148289   9.926   2.808   0.179
15505SOL    HW248290  10.056   2.758   0.239
15506SOL     OW48291   6.514   0.574   3.359
15506SOL    HW148292   6.431   0.533   3.384
15506SOL    HW248293   6.493   0.623   3.279
15507SOL     OW48294   4.690  11.692   3.394
15507SOL    HW148295   4.712  11.775   3.437
15507SOL    HW248296   4.623  11.653   3.450
15508SOL     OW48297  14.732  14.003  14.002
15508SOL    HW148298  14.819  13.989  13.965
15508SOL    HW248299  14.694  14.071  13.947
15509SOL     OW48300  11.437  12.234  10.174
15509SOL    HW148301  11.472  12.321  10.192
15509SOL    HW248302  11.481  12.207  10.093
15510SOL     OW48303   5.481  10.258   3.206
15510SOL    HW148304   5.432  10.237   3.285
15510SOL    HW248305   5.515  10.346   3.221
15511SOL     OW48306  12.501   5.280  12.312
15511SOL    HW148307  12.557   5.233  12.374
15511SOL    HW248308  12.538   5.259  12.226
15512SOL     OW48309  13.471  13.412  13.951
15512SOL    HW148310  13.378  13.393  13.962
15512SOL    HW248311  13.509  13.393  14.037
15513SOL     OW48312  13.932  11.883  11.312
15513SOL    HW148313  14.015  11.900  11.267
15513SOL    HW248314  13.958  11.870  11.404
15514SOL     OW48315  14.537  10.012   9.131
15514SOL    HW148316  14.494  10.097   9.136
15514SOL    HW248317  14.483   9.960   9.071
15515SOL     OW48318  12.808  12.148   7.299
15515SOL    HW148319  12.740  12.082   7.311
15515SOL    HW248320  12.874  12.126   7.365
15516SOL     OW48321   7.877   1.187   6.871
15516SOL    HW148322   7.894   1.281   6.875
15516SOL    HW248323   7.922   1.158   6.792
15517SOL     OW48324   1.344   2.829   3.231
15517SOL    HW148325   1.307   2.852   3.316
15517SOL    HW248326   1.288   2.873   3.167
15518SOL     OW48327   7.599   3.971   6.777
15518SOL    HW148328   7.503   3.970   6.773
15518SOL    HW248329   7.626   3.935   6.692
15519SOL     OW48330   3.525   6.539  14.079
15519SOL    HW148331   3.539   6.619  14.129
15519SOL    HW248332   3.509   6.472  14.146
15520SOL     OW48333   6.653  11.974   8.647
15520SOL    HW148334   6.705  11.911   8.598
15520SOL    HW248335   6.562  11.945   8.634
15521SOL     OW48336  10.600   3.156   6.800
15521SOL    HW148337  10.647   3.092   6.746
15521SOL    HW248338  10.534   3.193   6.741
15522SOL     OW48339   1.672   2.937  12.975
15522SOL    HW148340   1.650   2.850  12.941
15522SOL    HW248341   1.700   2.921  13.065
15523SOL     OW48342   1.586   5.031   5.111
15523SOL    HW148343   1.645   5.103   5.134
15523SOL    HW248344   1.499   5.070   5.114
15524SOL     OW48345   6.198   5.282   3.860
15524SOL    HW148346   6.246   5.338   3.921
15524SOL    HW248347   6.267   5.235   3.812
15525SOL     OW48348   8.890  10.862   1.194
15525SOL    HW148349   8.818  10.815   1.151
15525SOL    HW248350   8.955  10.794   1.212
15526SOL     OW48351   3.977   2.762   7.244
15526SOL    HW148352   4.030   2.817   7.302
15526SOL    HW248353   3.917   2.717   7.303
15527SOL     OW48354   2.430  14.615   4.510
15527SOL    HW148355   2.403  14.590   4.598
15527SOL    HW248356   2.473  14.537   4.475
15528SOL     OW48357   5.883  12.517   2.430
15528SOL    HW148358   5.931  12.598   2.449
15528SOL    HW248359   5.915  12.490   2.344
15529SOL     OW48360   2.572   8.197  11.796
15529SOL    HW148361   2.578   8.251  11.874
15529SOL    HW248362   2.661   8.161  11.785
15530SOL     OW48363   2.982   2.866   0.199
15530SOL    HW148364   2.980   2.781   0.154
15530SOL    HW248365   2.979   2.844   0.292
15531SOL     OW48366   1.397  12.277   0.017
15531SOL    HW148367   1.466  12.330  14.858
15531SOL    HW248368   1.402  12.298   0.110
15532SOL     OW48369   9.565   8.262   5.479
15532SOL    HW148370   9.554   8.217   5.395
15532SOL    HW248371   9.588   8.351   5.455
15533SOL     OW48372   5.380   0.390  10.142
15533SOL    HW148373   5.461   0.340  10.141
15533SOL    HW248374   5.315   0.332  10.180
15534SOL     OW48375   5.198   0.634  11.949
15534SOL    HW148376   5.193   0.678  12.035
15534SOL    HW248377   5.213   0.542  11.970
15535SOL     OW48378   4.044   5.390   0.787
15535SOL    HW148379   4.109   5.352   0.846
15535SOL    HW248380   3.961   5.349   0.812
15536SOL     OW48381   9.298   8.859   7.959
15536SOL    HW148382   9.350   8.859   8.039
15536SOL    HW248383   9.362   8.869   7.888
15537SOL     OW48384   2.918   7.255   4.207
15537SOL    HW148385   2.855   7.198   4.162
15537SOL    HW248386   2.914   7.337   4.159
15538SOL     OW48387   7.504   8.137   9.825
15538SOL    HW148388   7.483   8.116   9.733
15538SOL    HW248389   7.443   8.082   9.875
15539SOL     OW48390   6.155  14.125   8.959
15539SOL    HW148391   6.077  14.112   9.013
15539SOL    HW248392   6.228  14.107   9.018
15540SOL     OW48393   2.240   8.951   8.776
15540SOL    HW148394   2.319   8.897   8.767
15540SOL    HW248395   2.232   8.964   8.871
15541SOL     OW48396   1.290   4.667   1.539
15541SOL    HW148397   1.320   4.717   1.615
15541SOL    HW248398   1.356   4.599   1.528
15542SOL     OW48399   7.447   5.779   1.452
15542SOL    HW148400   7.512   5.727   1.405
15542SOL    HW248401   7.375   5.718   1.469
15543SOL     OW48402   7.052  11.622  10.669
15543SOL    HW148403   7.067  11.675  10.748
15543SOL    HW248404   7.025  11.537  10.701
15544SOL     OW48405  13.447   3.966   0.476
15544SOL    HW148406  13.377   4.027   0.503
15544SOL    HW248407  13.526   4.020   0.473
15545SOL     OW48408  10.749   3.612   3.630
15545SOL    HW148409  10.664   3.656   3.641
15545SOL    HW248410  10.800   3.672   3.575
15546SOL     OW48411   4.004   6.027   0.360
15546SOL    HW148412   4.055   6.108   0.351
15546SOL    HW248413   4.055   5.961   0.313
15547SOL     OW48414  12.068  12.168  10.565
15547SOL    HW148415  11.984  12.147  10.608
15547SOL    HW248416  12.042  12.215  10.485
15548SOL     OW48417   0.192   2.150  10.994
15548SOL    HW148418   0.228   2.080  10.939
15548SOL    HW248419   0.145   2.104  11.063
15549SOL     OW48420   9.923   9.702   2.419
15549SOL    HW148421   9.863   9.676   2.350
15549SOL    HW248422  10.006   9.659   2.396
15550SOL     OW48423   8.753   6.108  11.942
15550SOL    HW148424   8.747   6.136  11.851
15550SOL    HW248425   8.845   6.086  11.954
15551SOL     OW48426   6.551   0.177   2.155
15551SOL    HW148427   6.485   0.152   2.091
15551SOL    HW248428   6.523   0.263   2.186
15552SOL     OW48429   1.541   1.634   2.274
15552SOL    HW148430   1.545   1.561   2.336
15552SOL    HW248431   1.453   1.630   2.237
15553SOL     OW48432   7.826  14.814   5.813
15553SOL    HW148433   7.769   0.009   5.810
15553SOL    HW248434   7.844  14.794   5.721
15554SOL     OW48435   4.484   9.202   9.646
15554SOL    HW148436   4.410   9.180   9.590
15554SOL    HW248437   4.553   9.227   9.585
15555SOL     OW48438   8.160   5.738   2.168
15555SOL    HW148439   8.121   5.656   2.198
15555SOL    HW248440   8.171   5.790   2.248
15556SOL     OW48441   7.899   7.910   9.923
15556SOL    HW148442   7.807   7.916   9.895
15556SOL    HW248443   7.923   8.001   9.944
15557SOL     OW48444   7.181  13.860   2.000
15557SOL    HW148445   7.204  13.821   1.916
15557SOL    HW248446   7.117  13.928   1.978
15558SOL     OW48447   8.809  11.159  10.204
15558SOL    HW148448   8.744  11.195  10.265
15558SOL    HW248449   8.795  11.208  10.123
15559SOL     OW48450   2.910   0.933   0.405
15559SOL    HW148451   2.874   0.938   0.493
15559SOL    HW248452   2.863   0.861   0.363
15560SOL     OW48453   3.732   3.703   2.832
15560SOL    HW148454   3.772   3.753   2.903
15560SOL    HW248455   3.642   3.735   2.828
15561SOL     OW48456  10.837   2.304  11.246
15561SOL    HW148457  10.849   2.394  11.277
15561SOL    HW248458  10.851   2.310  11.151
15562SOL     OW48459  10.260  10.952   2.022
15562SOL    HW148460  10.190  10.911   1.971
15562SOL    HW248461  10.221  10.970   2.107
15563SOL     OW48462   0.780   2.561   2.376
15563SOL    HW148463   0.708   2.576   2.315
15563SOL    HW248464   0.768   2.627   2.445
15564SOL     OW48465  10.580   2.081   0.835
15564SOL    HW148466  10.557   2.079   0.742
15564SOL    HW248467  10.590   1.988   0.858
15565SOL     OW48468  14.226  14.666   7.332
15565SOL    HW148469  14.261  14.598   7.389
15565SOL    HW248470  14.157  14.622   7.282
15566SOL     OW48471   5.451  12.382   1.061
15566SOL    HW148472   5.495  12.355   1.141
15566SOL    HW248473   5.423  12.472   1.078
15567SOL     OW48474   8.096   5.139   1.874
15567SOL    HW148475   8.155   5.131   1.949
15567SOL    HW248476   8.149   5.111   1.799
15568SOL     OW48477   6.209   3.661   2.250
15568SOL    HW148478   6.224   3.679   2.158
15568SOL    HW248479   6.296   3.664   2.290
15569SOL     OW48480   9.022   0.362  13.497
15569SOL    HW148481   9.016   0.384  13.590
15569SOL    HW248482   8.933   0.337  13.473
15570SOL     OW48483   2.946  13.761   5.972
15570SOL    HW148484   3.009  13.698   5.938
15570SOL    HW248485   2.922  13.815   5.897
15571SOL     OW48486   0.512  10.814   6.752
15571SOL    HW148487   0.520  10.909   6.764
15571SOL    HW248488   0.435  10.790   6.803
15572SOL     OW48489  10.784   5.957  11.562
15572SOL    HW148490  10.704   5.905  11.559
15572SOL    HW248491  10.793   5.982  11.654
15573SOL     OW48492  12.122   1.450   9.220
15573SOL    HW148493  12.158   1.538   9.203
15573SOL    HW248494  12.037   1.466   9.260
15574SOL     OW48495   8.218   4.296  12.088
15574SOL    HW148496   8.163   4.359  12.134
15574SOL    HW248497   8.292   4.347  12.055
15575SOL     OW48498   7.016  13.120   2.974
15575SOL    HW148499   7.064  13.038   2.960
15575SOL    HW248500   6.976  13.110   3.061
15576SOL     OW48501  12.198  13.323   2.224
15576SOL    HW148502  12.135  13.385   2.261
15576SOL    HW248503  12.147  13.273   2.161
15577SOL     OW48504   7.506   1.394   3.661
15577SOL    HW148505   7.571   1.350   3.606
15577SOL    HW248506   7.548   1.475   3.688
15578SOL     OW48507  13.796   1.756   9.106
15578SOL    HW148508  13.872   1.770   9.050
15578SOL    HW248509  13.833   1.753   9.195
15579SOL     OW48510   2.658   6.633  14.515
15579SOL    HW148511   2.594   6.586  14.462
15579SOL    HW248512   2.625   6.626  14.604
15580SOL     OW48513   9.438  13.623   9.466
15580SOL    HW148514   9.447  13.658   9.377
15580SOL    HW248515   9.413  13.699   9.519
15581SOL     OW48516  14.036  14.334   3.310
15581SOL    HW148517  14.101  14.266   3.327
15581SOL    HW248518  14.081  14.398   3.255
15582SOL     OW48519   2.081   9.496   3.754
15582SOL    HW148520   2.114   9.455   3.834
15582SOL    HW248521   2.069   9.588   3.777
15583SOL     OW48522   3.082  12.837   5.855
15583SOL    HW148523   3.176  12.817   5.854
15583SOL    HW248524   3.045  12.772   5.915
15584SOL     OW48525   8.403   9.930   2.026
15584SOL    HW148526   8.424   9.899   2.114
15584SOL    HW248527   8.376   9.852   1.978
15585SOL     OW48528  12.240  13.853  13.926
15585SOL    HW148529  12.210  13.889  14.009
15585SOL    HW248530  12.267  13.929  13.875
15586SOL     OW48531  14.012   2.718   8.727
15586SOL    HW148532  14.003   2.779   8.800
15586SOL    HW248533  14.046   2.638   8.766
15587SOL     OW48534   2.906   3.464   7.762
15587SOL    HW148535   2.866   3.398   7.818
15587SOL    HW248536   3.000   3.450   7.772
15588SOL     OW48537   0.878  13.497  14.556
15588SOL    HW148538   0.783  13.504  14.546
15588SOL    HW248539   0.909  13.467  14.471
15589SOL     OW48540   0.872   7.803   5.634
15589SOL    HW148541   0.960   7.822   5.664
15589SOL    HW248542   0.873   7.709   5.614
15590SOL     OW48543   9.064   2.171   1.010
15590SOL    HW148544   9.054   2.180   1.105
15590SOL    HW248545   9.059   2.260   0.977
15591SOL     OW48546   6.760  14.374   7.316
15591SOL    HW148547   6.712  14.449   7.350
15591SOL    HW248548   6.848  14.407   7.297
15592SOL     OW48549  12.080  11.343  11.630
15592SOL    HW148550  12.018  11.270  11.624
15592SOL    HW248551  12.159  11.310  11.589
15593SOL     OW48552   6.917  11.756   1.442
15593SOL    HW148553   6.869  11.808   1.506
15593SOL    HW248554   6.909  11.805   1.360
15594SOL     OW48555   5.135   2.361   5.748
15594SOL    HW148556   5.080   2.297   5.702
15594SOL    HW248557   5.212   2.311   5.775
15595SOL     OW48558  13.066  11.250   2.869
15595SOL    HW148559  13.041  11.238   2.961
15595SOL    HW248560  13.114  11.170   2.847
15596SOL     OW48561   7.956   1.010   4.662
15596SOL    HW148562   7.892   1.061   4.710
15596SOL    HW248563   8.013   1.074   4.621
15597SOL     OW48564  13.107   3.568   7.763
15597SOL    HW148565  13.140   3.626   7.831
15597SOL    HW248566  13.020   3.603   7.742
15598SOL     OW48567   6.158   8.468   8.322
15598SOL    HW148568   6.135   8.441   8.411
15598SOL    HW248569   6.251   8.490   8.326
15599SOL     OW48570  12.688  11.820   0.026
15599SOL    HW148571  12.749  11.869   0.081
15599SOL    HW248572  12.613  11.878   0.015
15600SOL     OW48573   4.933  14.196  11.320
15600SOL    HW148574   4.939  14.271  11.380
15600SOL    HW248575   4.939  14.234  11.233
15601SOL     OW48576  11.266  12.361   1.172
15601SOL    HW148577  11.319  12.436   1.198
15601SOL    HW248578  11.315  12.285   1.204
15602SOL     OW48579  10.667   7.356   2.497
15602SOL    HW148580  10.591   7.408   2.470
15602SOL    HW248581  10.656   7.346   2.592
15603SOL     OW48582   0.420   9.809  13.368
15603SOL    HW148583   0.501   9.859  13.371
15603SOL    HW248584   0.364   9.849  13.435
15604SOL     OW48585  13.946   9.017   6.695
15604SOL    HW148586  13.877   9.037   6.758
15604SOL    HW248587  13.939   8.922   6.681
15605SOL     OW48588   1.304   6.531  12.442
15605SOL    HW148589   1.221   6.530  12.490
15605SOL    HW248590   1.362   6.474  12.493
15606SOL     OW48591   5.252   8.780   0.944
15606SOL    HW148592   5.336   8.749   0.978
15606SOL    HW248593   5.264   8.781   0.849
15607SOL     OW48594  13.291  11.285  12.633
15607SOL    HW148595  13.271  11.217  12.698
15607SOL    HW248596  13.374  11.322  12.662
15608SOL     OW48597  11.601  11.404   5.490
15608SOL    HW148598  11.569  11.458   5.418
15608SOL    HW248599  11.696  11.397   5.474
15609SOL     OW48600   4.427   7.061  13.516
15609SOL    HW148601   4.444   7.141  13.467
15609SOL    HW248602   4.337   7.038  13.493
15610SOL     OW48603  10.514   5.690   3.165
15610SOL    HW148604  10.439   5.746   3.184
15610SOL    HW248605  10.586   5.727   3.216
15611SOL     OW48606   7.056  14.286  11.641
15611SOL    HW148607   7.002  14.225  11.691
15611SOL    HW248608   7.008  14.298  11.559
15612SOL     OW48609   4.116   4.789   9.435
15612SOL    HW148610   4.086   4.719   9.378
15612SOL    HW248611   4.078   4.770   9.520
15613SOL     OW48612   1.470   7.960   3.903
15613SOL    HW148613   1.520   7.905   3.963
15613SOL    HW248614   1.455   7.903   3.827
15614SOL     OW48615   0.564  14.574   1.990
15614SOL    HW148616   0.588  14.658   1.951
15614SOL    HW248617   0.470  14.565   1.972
15615SOL     OW48618  14.627  11.866   3.564
15615SOL    HW148619  14.686  11.791   3.560
15615SOL    HW248620  14.540  11.830   3.546
15616SOL     OW48621   6.519   0.598  14.224
15616SOL    HW148622   6.597   0.557  14.186
15616SOL    HW248623   6.498   0.544  14.300
15617SOL     OW48624   5.275   1.409  12.855
15617SOL    HW148625   5.271   1.314  12.854
15617SOL    HW248626   5.291   1.431  12.947
15618SOL     OW48627  14.416   6.640   1.211
15618SOL    HW148628  14.329   6.640   1.252
15618SOL    HW248629  14.466   6.706   1.259
15619SOL     OW48630  12.811  13.666   6.559
15619SOL    HW148631  12.796  13.734   6.626
15619SOL    HW248632  12.725  13.628   6.544
15620SOL     OW48633  13.660   4.625  12.139
15620SOL    HW148634  13.583   4.585  12.180
15620SOL    HW248635  13.693   4.558  12.080
15621SOL     OW48636  10.834   1.287  13.490
15621SOL    HW148637  10.861   1.362  13.437
15621SOL    HW248638  10.907   1.225  13.482
15622SOL     OW48639   9.755   0.516   6.644
15622SOL    HW148640   9.762   0.612   6.643
15622SOL    HW248641   9.839   0.486   6.608
15623SOL     OW48642   7.162   4.932   0.545
15623SOL    HW148643   7.151   4.982   0.625
15623SOL    HW248644   7.074   4.923   0.509
15624SOL     OW48645   2.653   8.908   3.242
15624SOL    HW148646   2.701   8.826   3.234
15624SOL    HW248647   2.655   8.946   3.154
15625SOL     OW48648   5.521   6.554   9.031
15625SOL    HW148649   5.607   6.531   9.066
15625SOL    HW248650   5.460   6.533   9.102
15626SOL     OW48651   7.992   3.800  12.015
15626SOL    HW148652   7.975   3.888  11.982
15626SOL    HW248653   8.016   3.812  12.107
15627SOL     OW48654  12.624   6.641  11.125
15627SOL    HW148655  12.653   6.709  11.065
15627SOL    HW248656  12.599   6.568  11.068
15628SOL     OW48657   5.259   9.619   0.900
15628SOL    HW148658   5.171   9.599   0.931
15628SOL    HW248659   5.317   9.588   0.970
15629SOL     OW48660  13.179  12.502   0.258
15629SOL    HW148661  13.114  12.432   0.262
15629SOL    HW248662  13.197  12.525   0.349
15630SOL     OW48663  13.261   9.977  12.049
15630SOL    HW148664  13.308   9.928  11.981
15630SOL    HW248665  13.207   9.911  12.092
15631SOL     OW48666  13.593  11.743  10.714
15631SOL    HW148667  13.577  11.706  10.627
15631SOL    HW248668  13.664  11.805  10.701
15632SOL     OW48669   6.194  12.885  11.669
15632SOL    HW148670   6.128  12.832  11.713
15632SOL    HW248671   6.236  12.935  11.739
15633SOL     OW48672  13.005   3.604  12.049
15633SOL    HW148673  13.028   3.559  11.967
15633SOL    HW248674  12.924   3.650  12.028
15634SOL     OW48675  12.359   4.635   6.147
15634SOL    HW148676  12.376   4.712   6.201
15634SOL    HW248677  12.264   4.627   6.145
15635SOL     OW48678   3.504  11.692   1.232
15635SOL    HW148679   3.496  11.720   1.323
15635SOL    HW248680   3.489  11.598   1.233
15636SOL     OW48681  11.394  13.096   9.821
15636SOL    HW148682  11.411  13.038   9.747
15636SOL    HW248683  11.475  13.145   9.833
15637SOL     OW48684  11.844   1.012   4.174
15637SOL    HW148685  11.767   1.067   4.155
15637SOL    HW248686  11.890   1.005   4.090
15638SOL     OW48687   3.441   2.061   3.952
15638SOL    HW148688   3.413   2.122   4.020
15638SOL    HW248689   3.360   2.031   3.911
15639SOL     OW48690  11.639   7.252   9.115
15639SOL    HW148691  11.646   7.177   9.174
15639SOL    HW248692  11.582   7.313   9.160
15640SOL     OW48693  11.498  11.804   7.147
15640SOL    HW148694  11.571  11.865   7.147
15640SOL    HW248695  11.458  11.813   7.234
15641SOL     OW48696   1.572   3.299   7.540
15641SOL    HW148697   1.580   3.291   7.445
15641SOL    HW248698   1.560   3.210   7.572
15642SOL     OW48699   2.189   8.692  11.492
15642SOL    HW148700   2.283   8.695  11.511
15642SOL    HW248701   2.159   8.610  11.531
15643SOL     OW48702  10.977  12.078  10.346
15643SOL    HW148703  10.965  12.017  10.273
15643SOL    HW248704  11.068  12.066  10.372
15644SOL     OW48705   2.013   0.123   8.600
15644SOL    HW148706   1.988   0.058   8.535
15644SOL    HW248707   1.945   0.190   8.595
15645SOL     OW48708   3.002   2.330  12.135
15645SOL    HW148709   3.065   2.308  12.066
15645SOL    HW248710   3.030   2.415  12.168
15646SOL     OW48711  10.760  11.934   3.217
15646SOL    HW148712  10.855  11.947   3.224
15646SOL    HW248713  10.750  11.840   3.202
15647SOL     OW48714   0.265   6.932  12.332
15647SOL    HW148715   0.289   6.883  12.253
15647SOL    HW248716   0.258   6.866  12.400
15648SOL     OW48717   2.157  13.324   4.700
15648SOL    HW148718   2.234  13.336   4.646
15648SOL    HW248719   2.139  13.231   4.697
15649SOL     OW48720   7.022  10.999  14.614
15649SOL    HW148721   7.018  11.094  14.626
15649SOL    HW248722   7.073  10.968  14.688
15650SOL     OW48723   3.307  12.489   2.447
15650SOL    HW148724   3.362  12.481   2.525
15650SOL    HW248725   3.316  12.581   2.421
15651SOL     OW48726  10.393   6.474   8.631
15651SOL    HW148727  10.390   6.415   8.707
15651SOL    HW248728  10.308   6.463   8.589
15652SOL     OW48729  13.422   4.258   0.724
15652SOL    HW148730  13.450   4.289   0.638
15652SOL    HW248731  13.493   4.202   0.754
15653SOL     OW48732  11.711  11.932   7.463
15653SOL    HW148733  11.620  11.905   7.448
15653SOL    HW248734  11.706  12.026   7.479
15654SOL     OW48735  12.968  12.464  14.771
15654SOL    HW148736  12.925  12.549  14.773
15654SOL    HW248737  13.004  12.457  14.683
15655SOL     OW48738   5.908   5.729   4.593
15655SOL    HW148739   5.913   5.783   4.514
15655SOL    HW248740   5.919   5.792   4.665
15656SOL     OW48741  14.177   4.416   4.512
15656SOL    HW148742  14.100   4.467   4.487
15656SOL    HW248743  14.221   4.396   4.430
15657SOL     OW48744   9.309   3.767   4.683
15657SOL    HW148745   9.348   3.707   4.619
15657SOL    HW248746   9.299   3.849   4.635
15658SOL     OW48747  12.613   3.994   4.370
15658SOL    HW148748  12.682   4.043   4.415
15658SOL    HW248749  12.608   4.035   4.284
15659SOL     OW48750  12.414   5.354  10.919
15659SOL    HW148751  12.499   5.370  10.879
15659SOL    HW248752  12.375   5.442  10.926
15660SOL     OW48753   0.238   2.639   3.920
15660SOL    HW148754   0.245   2.587   4.000
15660SOL    HW248755   0.223   2.575   3.850
15661SOL     OW48756  13.184  10.823  12.781
15661SOL    HW148757  13.197  10.764  12.707
15661SOL    HW248758  13.272  10.841  12.814
15662SOL     OW48759   2.950  13.537   3.688
15662SOL    HW148760   2.945  13.501   3.776
15662SOL    HW248761   2.917  13.467   3.631
15663SOL     OW48762  12.235  11.005   0.064
15663SOL    HW148763  12.302  11.072   0.057
15663SOL    HW248764  12.245  10.952  14.867
15664SOL     OW48765   8.969   1.264   4.682
15664SOL    HW148766   8.922   1.232   4.605
15664SOL    HW248767   9.060   1.273   4.653
15665SOL     OW48768   9.868   7.956   2.464
15665SOL    HW148769   9.788   7.989   2.423
15665SOL    HW248770   9.931   8.029   2.458
15666SOL     OW48771   8.004  10.380  11.423
15666SOL    HW148772   7.935  10.349  11.364
15666SOL    HW248773   8.068  10.309  11.424
15667SOL     OW48774   5.165   7.315  12.409
15667SOL    HW148775   5.238   7.262  12.377
15667SOL    HW248776   5.201   7.404  12.413
15668SOL     OW48777   5.840   9.631   7.616
15668SOL    HW148778   5.748   9.603   7.615
15668SOL    HW248779   5.848   9.683   7.696
15669SOL     OW48780   9.831   4.348  11.120
15669SOL    HW148781   9.875   4.308  11.195
15669SOL    HW248782   9.745   4.307  11.118
15670SOL     OW48783  14.736   0.723   7.226
15670SOL    HW148784  14.823   0.762   7.223
15670SOL    HW248785  14.745   0.639   7.181
15671SOL     OW48786  10.454  13.979   7.540
15671SOL    HW148787  10.435  13.912   7.606
15671SOL    HW248788  10.380  13.973   7.479
15672SOL     OW48789   5.555  13.333   0.494
15672SOL    HW148790   5.461  13.329   0.513
15672SOL    HW248791   5.592  13.255   0.535
15673SOL     OW48792   2.342   4.187   7.597
15673SOL    HW148793   2.435   4.183   7.618
15673SOL    HW248794   2.300   4.133   7.663
15674SOL     OW48795   0.547   5.827   7.949
15674SOL    HW148796   0.547   5.880   8.029
15674SOL    HW248797   0.635   5.841   7.912
15675SOL     OW48798   7.392   4.811   0.654
15675SOL    HW148799   7.313   4.818   0.601
15675SOL    HW248800   7.423   4.902   0.661
15676SOL     OW48801  12.765  13.968   2.174
15676SOL    HW148802  12.719  13.896   2.217
15676SOL    HW248803  12.844  13.928   2.138
15677SOL     OW48804   0.047   1.853  12.127
15677SOL    HW148805   0.102   1.809  12.062
15677SOL    HW248806   0.061   1.947  12.111
15678SOL     OW48807   7.531   8.948   1.529
15678SOL    HW148808   7.453   8.980   1.573
15678SOL    HW248809   7.573   9.027   1.495
15679SOL     OW48810   3.087   5.398   7.795
15679SOL    HW148811   3.019   5.434   7.739
15679SOL    HW248812   3.104   5.467   7.859
15680SOL     OW48813  12.336   2.437  14.371
15680SOL    HW148814  12.406   2.456  14.308
15680SOL    HW248815  12.348   2.502  14.440
15681SOL     OW48816  14.121   4.783   0.794
15681SOL    HW148817  14.126   4.801   0.700
15681SOL    HW248818  14.059   4.848   0.827
15682SOL     OW48819  10.767  12.143  14.265
15682SOL    HW148820  10.683  12.145  14.219
15682SOL    HW248821  10.818  12.076  14.220
15683SOL     OW48822   1.284   1.787   9.886
15683SOL    HW148823   1.204   1.837   9.901
15683SOL    HW248824   1.354   1.841   9.923
15684SOL     OW48825   0.184  10.873   7.405
15684SOL    HW148826   0.212  10.958   7.437
15684SOL    HW248827   0.228  10.863   7.321
15685SOL     OW48828  14.087  11.805  12.588
15685SOL    HW148829  14.107  11.888  12.632
15685SOL    HW248830  14.045  11.752  12.656
15686SOL     OW48831   1.761   1.317  13.326
15686SOL    HW148832   1.750   1.329  13.421
15686SOL    HW248833   1.682   1.353  13.288
15687SOL     OW48834   8.947  11.779   8.970
15687SOL    HW148835   9.007  11.709   8.997
15687SOL    HW248836   8.949  11.841   9.043
15688SOL     OW48837   6.697   7.881  13.123
15688SOL    HW148838   6.770   7.864  13.063
15688SOL    HW248839   6.635   7.931  13.071
15689SOL     OW48840  11.883   8.035  12.482
15689SOL    HW148841  11.859   8.072  12.566
15689SOL    HW248842  11.899   8.111  12.426
15690SOL     OW48843   6.350   3.959   4.697
15690SOL    HW148844   6.369   3.865   4.688
15690SOL    HW248845   6.432   3.998   4.727
15691SOL     OW48846   2.197  11.623   7.532
15691SOL    HW148847   2.220  11.570   7.456
15691SOL    HW248848   2.136  11.569   7.582
15692SOL     OW48849   6.454   6.992   8.640
15692SOL    HW148850   6.513   7.062   8.669
15692SOL    HW248851   6.396   7.034   8.577
15693SOL     OW48852   3.343   8.892   7.605
15693SOL    HW148853   3.257   8.915   7.639
15693SOL    HW248854   3.389   8.854   7.680
15694SOL     OW48855  13.973   1.358   2.738
15694SOL    HW148856  13.886   1.335   2.705
15694SOL    HW248857  14.034   1.326   2.671
15695SOL     OW48858  13.413   1.041  13.542
15695SOL    HW148859  13.412   0.958  13.590
15695SOL    HW248860  13.386   1.017  13.453
15696SOL     OW48861   0.702   0.035  13.216
15696SOL    HW148862   0.661  14.833  13.197
15696SOL    HW248863   0.648   0.100  13.171
15697SOL     OW48864   7.119  12.112  13.497
15697SOL    HW148865   7.104  12.029  13.451
15697SOL    HW248866   7.033  12.151  13.505
15698SOL     OW48867  10.417  14.234  11.022
15698SOL    HW148868  10.501  14.190  11.012
15698SOL    HW248869  10.359  14.190  10.959
15699SOL     OW48870  14.291   5.371   0.693
15699SOL    HW148871  14.314   5.313   0.766
15699SOL    HW248872  14.374   5.408   0.665
15700SOL     OW48873   8.351   0.702   6.504
15700SOL    HW148874   8.329   0.782   6.552
15700SOL    HW248875   8.401   0.733   6.428
15701SOL     OW48876   4.715  10.142   8.385
15701SOL    HW148877   4.659  10.122   8.460
15701SOL    HW248878   4.785  10.077   8.389
15702SOL     OW48879   3.785   0.275  14.500
15702SOL    HW148880   3.854   0.274  14.433
15702SOL    HW248881   3.779   0.367  14.527
15703SOL     OW48882   2.932   0.019  14.652
15703SOL    HW148883   2.891  14.858  14.726
15703SOL    HW248884   2.878   0.097  14.635
15704SOL     OW48885   2.236  13.438   5.554
15704SOL    HW148886   2.286  13.519   5.549
15704SOL    HW248887   2.185  13.436   5.473
15705SOL     OW48888   5.228   5.241   5.065
15705SOL    HW148889   5.213   5.335   5.070
15705SOL    HW248890   5.197   5.216   4.978
15706SOL     OW48891  11.191   2.271  13.187
15706SOL    HW148892  11.173   2.178  13.196
15706SOL    HW248893  11.106   2.314  13.191
15707SOL     OW48894  13.782   1.236   4.798
15707SOL    HW148895  13.817   1.321   4.773
15707SOL    HW248896  13.834   1.211   4.874
15708SOL     OW48897  13.617  12.308   3.912
15708SOL    HW148898  13.534  12.340   3.948
15708SOL    HW248899  13.625  12.218   3.945
15709SOL     OW48900   7.784   7.784  13.332
15709SOL    HW148901   7.775   7.717  13.265
15709SOL    HW248902   7.744   7.862  13.294
15710SOL     OW48903   7.236   3.882  14.309
15710SOL    HW148904   7.237   3.962  14.256
15710SOL    HW248905   7.208   3.814  14.248
15711SOL     OW48906   4.301   0.308  12.586
15711SOL    HW148907   4.232   0.372  12.568
15711SOL    HW248908   4.325   0.324  12.677
15712SOL     OW48909   6.051  14.309   5.997
15712SOL    HW148910   6.121  14.340   6.055
15712SOL    HW248911   6.056  14.366   5.921
15713SOL     OW48912  14.091   7.649   4.142
15713SOL    HW148913  14.089   7.656   4.237
15713SOL    HW248914  14.103   7.556   4.124
15714SOL     OW48915   0.752   4.720  12.063
15714SOL    HW148916   0.704   4.637  12.064
15714SOL    HW248917   0.761   4.741  11.970
15715SOL     OW48918   4.878   4.591   0.011
15715SOL    HW148919   4.966   4.622   0.033
15715SOL    HW248920   4.892   4.510  14.843
15716SOL     OW48921   3.149   3.719   0.056
15716SOL    HW148922   3.088   3.645   0.061
15716SOL    HW248923   3.163   3.744   0.147
15717SOL     OW48924  13.706   6.973  13.129
15717SOL    HW148925  13.756   7.050  13.155
15717SOL    HW248926  13.755   6.899  13.164
15718SOL     OW48927   9.021   3.417   5.523
15718SOL    HW148928   8.968   3.481   5.476
15718SOL    HW248929   9.099   3.466   5.550
15719SOL     OW48930   5.473  12.456   5.580
15719SOL    HW148931   5.407  12.454   5.649
15719SOL    HW248932   5.552  12.421   5.621
15720SOL     OW48933   9.799  11.683   7.324
15720SOL    HW148934   9.727  11.637   7.280
15720SOL    HW248935   9.780  11.776   7.309
15721SOL     OW48936  10.940   2.202   2.686
15721SOL    HW148937  10.851   2.233   2.699
15721SOL    HW248938  10.995   2.269   2.727
15722SOL     OW48939   2.547  13.255  14.124
15722SOL    HW148940   2.633  13.220  14.147
15722SOL    HW248941   2.487  13.209  14.182
15723SOL     OW48942   8.824  11.682   5.376
15723SOL    HW148943   8.769  11.753   5.408
15723SOL    HW248944   8.844  11.630   5.454
15724SOL     OW48945   5.321   7.771  11.470
15724SOL    HW148946   5.315   7.807  11.559
15724SOL    HW248947   5.415   7.773  11.450
15725SOL     OW48948   3.273  12.103  12.952
15725SOL    HW148949   3.211  12.140  12.890
15725SOL    HW248950   3.243  12.133  13.038
15726SOL     OW48951   7.470   9.415   7.162
15726SOL    HW148952   7.513   9.336   7.196
15726SOL    HW248953   7.420   9.384   7.087
15727SOL     OW48954   4.903  14.229   1.458
15727SOL    HW148955   4.979  14.283   1.480
15727SOL    HW248956   4.915  14.149   1.509
15728SOL     OW48957  12.687  10.776  14.547
15728SOL    HW148958  12.719  10.696  14.504
15728SOL    HW248959  12.732  10.846  14.500
15729SOL     OW48960  11.647  13.288  14.596
15729SOL    HW148961  11.652  13.209  14.543
15729SOL    HW248962  11.588  13.265  14.668
15730SOL     OW48963  12.251  13.686   2.702
15730SOL    HW148964  12.346  13.673   2.705
15730SOL    HW248965  12.240  13.766   2.651
15731SOL     OW48966   9.783   2.130  13.611
15731SOL    HW148967   9.860   2.185  13.596
15731SOL    HW248968   9.814   2.060  13.668
15732SOL     OW48969   5.497  11.980   9.690
15732SOL    HW148970   5.482  11.920   9.618
15732SOL    HW248971   5.546  12.053   9.651
15733SOL     OW48972   0.381   0.747  11.968
15733SOL    HW148973   0.329   0.815  11.925
15733SOL    HW248974   0.334   0.728  12.049
15734SOL     OW48975   7.400   8.239   8.710
15734SOL    HW148976   7.489   8.227   8.743
15734SOL    HW248977   7.396   8.333   8.689
15735SOL     OW48978  14.847   8.394   1.234
15735SOL    HW148979   0.019   8.395   1.313
15735SOL    HW248980  14.800   8.478   1.235
15736SOL     OW48981   5.485   6.330  14.790
15736SOL    HW148982   5.498   6.286  14.874
15736SOL    HW248983   5.572   6.338  14.753
15737SOL     OW48984   5.070   2.673   3.754
15737SOL    HW148985   5.057   2.597   3.696
15737SOL    HW248986   5.162   2.695   3.745
15738SOL     OW48987   9.495  12.447  11.042
15738SOL    HW148988   9.520  12.490  11.124
15738SOL    HW248989   9.569  12.460  10.984
15739SOL     OW48990   1.541   3.930   3.232
15739SOL    HW148991   1.632   3.949   3.212
15739SOL    HW248992   1.542   3.895   3.321
15740SOL     OW48993  10.043   9.131   2.821
15740SOL    HW148994  10.013   9.093   2.739
15740SOL    HW248995   9.963   9.157   2.867
15741SOL     OW48996   3.972   6.196   3.521
15741SOL    HW148997   3.962   6.253   3.597
15741SOL    HW248998   3.935   6.245   3.449
15742SOL     OW48999  11.468   5.919   3.285
15742SOL    HW149000  11.378   5.914   3.250
15742SOL    HW249001  11.458   5.960   3.371
15743SOL     OW49002   5.878   0.865   0.148
15743SOL    HW149003   5.969   0.835   0.138
15743SOL    HW249004   5.834   0.792   0.191
15744SOL     OW49005   3.728   2.963   8.941
15744SOL    HW149006   3.655   2.988   8.885
15744SOL    HW249007   3.702   2.992   9.029
15745SOL     OW49008   8.346   8.227   9.701
15745SOL    HW149009   8.439   8.244   9.692
15745SOL    HW249010   8.336   8.191   9.789
15746SOL     OW49011   9.503  10.937  14.349
15746SOL    HW149012   9.420  10.890  14.360
15746SOL    HW249013   9.548  10.926  14.432
15747SOL     OW49014   5.543   2.192  10.317
15747SOL    HW149015   5.470   2.249  10.340
15747SOL    HW249016   5.615   2.252  10.296
15748SOL     OW49017   1.871   9.809   4.049
15748SOL    HW149018   1.904   9.757   3.977
15748SOL    HW249019   1.891   9.900   4.025
15749SOL     OW49020   8.745   0.606   4.323
15749SOL    HW149021   8.660   0.567   4.301
15749SOL    HW249022   8.809   0.541   4.295
15750SOL     OW49023   8.823   7.400   5.952
15750SOL    HW149024   8.785   7.335   6.012
15750SOL    HW249025   8.813   7.361   5.865
15751SOL     OW49026  12.633   8.164   1.573
15751SOL    HW149027  12.729   8.155   1.578
15751SOL    HW249028  12.600   8.076   1.590
15752SOL     OW49029   0.776   2.425   4.094
15752SOL    HW149030   0.790   2.429   3.999
15752SOL    HW249031   0.687   2.388   4.104
15753SOL     OW49032  12.329  14.711   4.065
15753SOL    HW149033  12.422  14.700   4.048
15753SOL    HW249034  12.295  14.622   4.076
15754SOL     OW49035  12.564   1.628   5.698
15754SOL    HW149036  12.541   1.536   5.711
15754SOL    HW249037  12.579   1.661   5.786
15755SOL     OW49038   5.660   5.613  10.111
15755SOL    HW149039   5.582   5.559  10.102
15755SOL    HW249040   5.650   5.655  10.197
15756SOL     OW49041  12.012  14.234  11.288
15756SOL    HW149042  12.003  14.139  11.292
15756SOL    HW249043  11.923  14.267  11.280
15757SOL     OW49044  10.225   8.653   0.394
15757SOL    HW149045  10.161   8.651   0.323
15757SOL    HW249046  10.209   8.571   0.442
15758SOL     OW49047   6.852   0.459  12.106
15758SOL    HW149048   6.782   0.519  12.132
15758SOL    HW249049   6.829   0.430  12.018
15759SOL     OW49050   8.548   1.585   3.255
15759SOL    HW149051   8.586   1.497   3.244
15759SOL    HW249052   8.506   1.603   3.170
15760SOL     OW49053   0.370   0.402  14.510
15760SOL    HW149054   0.399   0.448  14.430
15760SOL    HW249055   0.449   0.359  14.542
15761SOL     OW49056  14.016  11.031   0.634
15761SOL    HW149057  14.022  10.982   0.715
15761SOL    HW249058  14.008  11.122   0.661
15762SOL     OW49059   7.493   2.808   8.435
15762SOL    HW149060   7.489   2.712   8.438
15762SOL    HW249061   7.464   2.831   8.347
15763SOL     OW49062  13.648  12.452   8.428
15763SOL    HW149063  13.742  12.459   8.414
15763SOL    HW249064  13.621  12.538   8.461
15764SOL     OW49065   3.081   5.991   4.534
15764SOL    HW149066   3.047   5.966   4.448
15764SOL    HW249067   3.085   6.087   4.532
15765SOL     OW49068   1.802  14.200   3.191
15765SOL    HW149069   1.887  14.169   3.222
15765SOL    HW249070   1.748  14.206   3.270
15766SOL     OW49071  10.123   8.990   8.131
15766SOL    HW149072  10.151   9.009   8.041
15766SOL    HW249073  10.201   8.955   8.174
15767SOL     OW49074   5.000   4.931  11.751
15767SOL    HW149075   5.031   4.861  11.694
15767SOL    HW249076   5.022   4.903  11.840
15768SOL     OW49077   6.952   0.591   6.706
15768SOL    HW149078   6.974   0.504   6.739
15768SOL    HW249079   6.896   0.629   6.774
15769SOL     OW49080   7.690   8.050   3.880
15769SOL    HW149081   7.744   8.014   3.810
15769SOL    HW249082   7.608   8.073   3.837
15770SOL     OW49083  12.372  14.461   8.058
15770SOL    HW149084  12.284  14.445   8.023
15770SOL    HW249085  12.370  14.422   8.145
15771SOL     OW49086   8.065   1.947   9.720
15771SOL    HW149087   8.011   2.013   9.678
15771SOL    HW249088   8.005   1.874   9.736
15772SOL     OW49089   1.309   3.792   6.162
15772SOL    HW149090   1.280   3.716   6.212
15772SOL    HW249091   1.366   3.840   6.223
15773SOL     OW49092  14.127  12.292  12.440
15773SOL    HW149093  14.185  12.367  12.455
15773SOL    HW249094  14.129  12.280  12.345
15774SOL     OW49095   2.888  13.144   4.111
15774SOL    HW149096   2.819  13.134   4.046
15774SOL    HW249097   2.872  13.230   4.150
15775SOL     OW49098   3.965   8.749  12.804
15775SOL    HW149099   4.031   8.741  12.735
15775SOL    HW249100   3.990   8.826  12.854
15776SOL     OW49101   0.836   0.191   3.572
15776SOL    HW149102   0.874   0.202   3.485
15776SOL    HW249103   0.755   0.242   3.569
15777SOL     OW49104   8.585   2.665   8.560
15777SOL    HW149105   8.665   2.680   8.610
15777SOL    HW249106   8.568   2.749   8.517
15778SOL     OW49107  13.181   9.426   4.838
15778SOL    HW149108  13.240   9.428   4.914
15778SOL    HW249109  13.169   9.333   4.819
15779SOL     OW49110  14.778   2.390  12.868
15779SOL    HW149111  14.821   2.305  12.877
15779SOL    HW249112  14.766   2.420  12.958
15780SOL     OW49113  13.349  10.146  13.546
15780SOL    HW149114  13.301  10.151  13.464
15780SOL    HW249115  13.421  10.208  13.537
15781SOL     OW49116   8.374  11.775   7.879
15781SOL    HW149117   8.297  11.727   7.849
15781SOL    HW249118   8.442  11.751   7.817
15782SOL     OW49119  11.635   8.935  13.666
15782SOL    HW149120  11.617   9.013  13.615
15782SOL    HW249121  11.697   8.885  13.612
15783SOL     OW49122   9.279   4.368   9.564
15783SOL    HW149123   9.300   4.323   9.646
15783SOL    HW249124   9.190   4.339   9.543
15784SOL     OW49125   1.785   7.417   7.545
15784SOL    HW149126   1.783   7.341   7.604
15784SOL    HW249127   1.706   7.466   7.565
15785SOL     OW49128   5.962   7.092   6.685
15785SOL    HW149129   5.989   7.024   6.623
15785SOL    HW249130   5.981   7.174   6.639
15786SOL     OW49131   6.939   7.297  13.108
15786SOL    HW149132   6.982   7.241  13.043
15786SOL    HW249133   6.866   7.337  13.060
15787SOL     OW49134   7.778   7.841   8.780
15787SOL    HW149135   7.810   7.859   8.691
15787SOL    HW249136   7.799   7.921   8.829
15788SOL     OW49137   8.901   3.095   3.904
15788SOL    HW149138   8.878   3.033   3.973
15788SOL    HW249139   8.944   3.167   3.949
15789SOL     OW49140   1.606  11.223   9.081
15789SOL    HW149141   1.538  11.185   9.025
15789SOL    HW249142   1.623  11.309   9.042
15790SOL     OW49143  12.516  10.928   8.213
15790SOL    HW149144  12.429  10.941   8.176
15790SOL    HW249145  12.576  10.942   8.139
15791SOL     OW49146   6.179   2.046  13.966
15791SOL    HW149147   6.193   2.021  14.058
15791SOL    HW249148   6.193   2.140  13.964
15792SOL     OW49149  12.505  13.618   7.118
15792SOL    HW149150  12.553  13.535   7.111
15792SOL    HW249151  12.415  13.596   7.096
15793SOL     OW49152   0.121   3.761   2.380
15793SOL    HW149153   0.098   3.757   2.473
15793SOL    HW249154   0.037   3.755   2.334
15794SOL     OW49155  12.832   0.222   8.714
15794SOL    HW149156  12.875   0.233   8.629
15794SOL    HW249157  12.742   0.200   8.693
15795SOL     OW49158   4.949  13.911  10.928
15795SOL    HW149159   4.884  13.847  10.899
15795SOL    HW249160   4.965  13.965  10.850
15796SOL     OW49161   1.881  10.491   4.572
15796SOL    HW149162   1.834  10.467   4.492
15796SOL    HW249163   1.941  10.560   4.544
15797SOL     OW49164   4.977   7.612   1.355
15797SOL    HW149165   4.978   7.527   1.311
15797SOL    HW249166   5.054   7.611   1.412
15798SOL     OW49167   0.785  11.277   4.097
15798SOL    HW149168   0.702  11.267   4.145
15798SOL    HW249169   0.796  11.194   4.052
15799SOL     OW49170   0.692   1.146  12.904
15799SOL    HW149171   0.762   1.091  12.868
15799SOL    HW249172   0.615   1.124  12.852
15800SOL     OW49173   5.763  14.841   8.193
15800SOL    HW149174   5.847  14.813   8.229
15800SOL    HW249175   5.699  14.812   8.258
15801SOL     OW49176  12.814   6.525   2.388
15801SOL    HW149177  12.801   6.430   2.391
15801SOL    HW249178  12.797   6.548   2.297
15802SOL     OW49179   6.616  11.963  10.595
15802SOL    HW149180   6.594  11.916  10.675
15802SOL    HW249181   6.709  11.945  10.580
15803SOL     OW49182   7.320   2.341  10.157
15803SOL    HW149183   7.294   2.430  10.180
15803SOL    HW249184   7.325   2.342  10.061
15804SOL     OW49185   1.384   7.819  12.127
15804SOL    HW149186   1.381   7.881  12.054
15804SOL    HW249187   1.460   7.846  12.178
15805SOL     OW49188   2.104   4.187   7.317
15805SOL    HW149189   2.065   4.140   7.391
15805SOL    HW249190   2.064   4.274   7.320
15806SOL     OW49191  13.470   0.815   9.843
15806SOL    HW149192  13.439   0.738   9.892
15806SOL    HW249193  13.437   0.802   9.754
15807SOL     OW49194   1.812   5.420   0.518
15807SOL    HW149195   1.728   5.409   0.474
15807SOL    HW249196   1.814   5.350   0.584
15808SOL     OW49197   1.568   5.315  13.330
15808SOL    HW149198   1.517   5.396  13.323
15808SOL    HW249199   1.508   5.246  13.302
15809SOL     OW49200   8.422  12.172   5.871
15809SOL    HW149201   8.344  12.116   5.869
15809SOL    HW249202   8.413  12.229   5.795
15810SOL     OW49203   5.696   5.144  13.304
15810SOL    HW149204   5.782   5.104  13.310
15810SOL    HW249205   5.686   5.193  13.386
15811SOL     OW49206   5.309   7.913   4.489
15811SOL    HW149207   5.384   7.953   4.445
15811SOL    HW249208   5.326   7.928   4.582
15812SOL     OW49209   8.044   2.143  13.657
15812SOL    HW149210   8.072   2.232  13.636
15812SOL    HW249211   7.949   2.146  13.650
15813SOL     OW49212   9.749   2.159   0.134
15813SOL    HW149213   9.780   2.069   0.144
15813SOL    HW249214   9.818   2.213   0.170
15814SOL     OW49215   1.891  10.685   8.357
15814SOL    HW149216   1.975  10.726   8.380
15814SOL    HW249217   1.861  10.647   8.440
15815SOL     OW49218   9.637  10.391  10.971
15815SOL    HW149219   9.563  10.381  11.031
15815SOL    HW249220   9.682  10.307  10.975
15816SOL     OW49221  11.888   7.359   0.471
15816SOL    HW149222  11.862   7.447   0.442
15816SOL    HW249223  11.870   7.358   0.565
15817SOL     OW49224  13.217   8.701   4.920
15817SOL    HW149225  13.144   8.704   4.858
15817SOL    HW249226  13.211   8.615   4.960
15818SOL     OW49227   2.442   6.846   9.309
15818SOL    HW149228   2.418   6.850   9.216
15818SOL    HW249229   2.485   6.929   9.326
15819SOL     OW49230   5.681  13.319   6.674
15819SOL    HW149231   5.728  13.342   6.593
15819SOL    HW249232   5.724  13.239   6.704
15820SOL     OW49233  13.641   6.878   0.315
15820SOL    HW149234  13.718   6.859   0.369
15820SOL    HW249235  13.586   6.934   0.370
15821SOL     OW49236   7.456   1.578   9.529
15821SOL    HW149237   7.365   1.550   9.542
15821SOL    HW249238   7.460   1.602   9.437
15822SOL     OW49239   9.255   7.284   1.313
15822SOL    HW149240   9.241   7.257   1.223
15822SOL    HW249241   9.333   7.236   1.341
15823SOL     OW49242  11.815  10.388   6.440
15823SOL    HW149243  11.751  10.442   6.486
15823SOL    HW249244  11.855  10.448   6.377
15824SOL     OW49245  13.809  13.269   5.335
15824SOL    HW149246  13.771  13.202   5.392
15824SOL    HW249247  13.770  13.351   5.364
15825SOL     OW49248   7.939   1.630   4.617
15825SOL    HW149249   7.979   1.671   4.541
15825SOL    HW249250   7.976   1.676   4.692
15826SOL     OW49251   4.875   9.887   5.999
15826SOL    HW149252   4.923   9.811   6.032
15826SOL    HW249253   4.789   9.852   5.976
15827SOL     OW49254   7.466   0.525   2.073
15827SOL    HW149255   7.486   0.435   2.049
15827SOL    HW249256   7.372   0.526   2.089
15828SOL     OW49257   0.776  10.442   4.595
15828SOL    HW149258   0.868  10.422   4.615
15828SOL    HW249259   0.741  10.477   4.677
15829SOL     OW49260   5.746  12.992   4.298
15829SOL    HW149261   5.800  13.069   4.278
15829SOL    HW249262   5.718  13.005   4.388
15830SOL     OW49263  12.759   6.005   5.988
15830SOL    HW149264  12.768   5.928   5.932
15830SOL    HW249265  12.823   6.067   5.954
15831SOL     OW49266  14.265  11.041   8.963
15831SOL    HW149267  14.194  11.086   8.917
15831SOL    HW249268  14.330  11.024   8.895
15832SOL     OW49269   3.007  14.565   2.267
15832SOL    HW149270   2.927  14.565   2.214
15832SOL    HW249271   2.984  14.618   2.344
15833SOL     OW49272   6.512   1.372   6.101
15833SOL    HW149273   6.559   1.312   6.158
15833SOL    HW249274   6.437   1.401   6.153
15834SOL     OW49275   4.940  12.381   7.764
15834SOL    HW149276   4.918  12.459   7.714
15834SOL    HW249277   5.034  12.388   7.781
15835SOL     OW49278   0.563  10.116   9.418
15835SOL    HW149279   0.585  10.170   9.494
15835SOL    HW249280   0.643  10.065   9.401
15836SOL     OW49281   9.739   6.720   3.486
15836SOL    HW149282   9.751   6.659   3.413
15836SOL    HW249283   9.791   6.682   3.558
15837SOL     OW49284  11.517   6.927   6.819
15837SOL    HW149285  11.442   6.877   6.789
15837SOL    HW249286  11.528   6.997   6.755
15838SOL     OW49287   3.471   2.377   7.070
15838SOL    HW149288   3.378   2.391   7.057
15838SOL    HW249289   3.506   2.361   6.982
15839SOL     OW49290   8.797  13.702  13.937
15839SOL    HW149291   8.863  13.633  13.926
15839SOL    HW249292   8.777  13.730  13.848
15840SOL     OW49293  11.553   1.327   4.852
15840SOL    HW149294  11.564   1.232   4.846
15840SOL    HW249295  11.476   1.339   4.908
15841SOL     OW49296   6.161  10.930   0.540
15841SOL    HW149297   6.153  11.025   0.551
15841SOL    HW249298   6.169  10.897   0.630
15842SOL     OW49299   7.099  12.770   5.326
15842SOL    HW149300   7.065  12.836   5.265
15842SOL    HW249301   7.124  12.697   5.270
15843SOL     OW49302  10.539   1.677   7.688
15843SOL    HW149303  10.456   1.637   7.659
15843SOL    HW249304  10.520   1.710   7.775
15844SOL     OW49305  12.383   2.121   7.742
15844SOL    HW149306  12.358   2.067   7.817
15844SOL    HW249307  12.303   2.130   7.691
15845SOL     OW49308  11.015   3.602  14.667
15845SOL    HW149309  10.959   3.552  14.726
15845SOL    HW249310  11.062   3.663  14.724
15846SOL     OW49311   4.289  11.411   3.988
15846SOL    HW149312   4.246  11.474   4.045
15846SOL    HW249313   4.228  11.337   3.983
15847SOL     OW49314   2.238   1.646   8.857
15847SOL    HW149315   2.199   1.602   8.781
15847SOL    HW249316   2.234   1.581   8.927
15848SOL     OW49317   3.678   7.003   7.917
15848SOL    HW149318   3.667   6.924   7.865
15848SOL    HW249319   3.672   7.075   7.854
15849SOL     OW49320  12.761   1.694  10.631
15849SOL    HW149321  12.705   1.770  10.619
15849SOL    HW249322  12.826   1.722  10.696
15850SOL     OW49323  10.529   9.333  12.797
15850SOL    HW149324  10.529   9.283  12.878
15850SOL    HW249325  10.515   9.268  12.728
15851SOL     OW49326   8.205   4.630  10.948
15851SOL    HW149327   8.133   4.608  11.006
15851SOL    HW249328   8.192   4.723  10.928
15852SOL     OW49329   7.440   2.509   1.576
15852SOL    HW149330   7.380   2.558   1.633
15852SOL    HW249331   7.382   2.462   1.516
15853SOL     OW49332  12.914  13.181   6.262
15853SOL    HW149333  13.003  13.206   6.238
15853SOL    HW249334  12.881  13.135   6.184
15854SOL     OW49335   0.636   3.698   8.468
15854SOL    HW149336   0.726   3.700   8.501
15854SOL    HW249337   0.616   3.605   8.461
15855SOL     OW49338  14.081  10.304   6.456
15855SOL    HW149339  14.027  10.350   6.520
15855SOL    HW249340  14.167  10.295   6.498
15856SOL     OW49341   1.517   1.792   2.970
15856SOL    HW149342   1.542   1.884   2.983
15856SOL    HW249343   1.593   1.742   3.000
15857SOL     OW49344   3.112  12.315  13.531
15857SOL    HW149345   3.101  12.261  13.452
15857SOL    HW249346   3.200  12.352  13.522
15858SOL     OW49347   6.728   0.434   3.644
15858SOL    HW149348   6.760   0.516   3.683
15858SOL    HW249349   6.772   0.365   3.694
15859SOL     OW49350   0.851  11.369   0.773
15859SOL    HW149351   0.945  11.368   0.794
15859SOL    HW249352   0.832  11.279   0.746
15860SOL     OW49353   0.906   9.187   0.489
15860SOL    HW149354   0.895   9.278   0.515
15860SOL    HW249355   0.997   9.180   0.463
15861SOL     OW49356   2.642   6.697   7.018
15861SOL    HW149357   2.662   6.715   6.926
15861SOL    HW249358   2.549   6.672   7.018
15862SOL     OW49359  10.480   0.617   2.827
15862SOL    HW149360  10.575   0.606   2.826
15862SOL    HW249361  10.459   0.640   2.917
15863SOL     OW49362  11.301  10.611   5.638
15863SOL    HW149363  11.325  10.629   5.547
15863SOL    HW249364  11.360  10.665   5.690
15864SOL     OW49365  13.372  13.639  13.482
15864SOL    HW149366  13.467  13.631  13.483
15864SOL    HW249367  13.352  13.709  13.545
15865SOL     OW49368  13.202   9.723   3.225
15865SOL    HW149369  13.139   9.730   3.297
15865SOL    HW249370  13.282   9.761   3.260
15866SOL     OW49371   8.730   0.772  11.288
15866SOL    HW149372   8.678   0.767  11.369
15866SOL    HW249373   8.702   0.854  11.247
15867SOL     OW49374   5.462   6.606   4.698
15867SOL    HW149375   5.432   6.569   4.781
15867SOL    HW249376   5.456   6.701   4.710
15868SOL     OW49377  12.097   6.992   6.195
15868SOL    HW149378  12.059   7.079   6.184
15868SOL    HW249379  12.176   6.994   6.140
15869SOL     OW49380   0.909   4.481   1.144
15869SOL    HW149381   0.877   4.554   1.197
15869SOL    HW249382   0.999   4.469   1.172
15870SOL     OW49383   2.469  11.733   0.499
15870SOL    HW149384   2.480  11.666   0.566
15870SOL    HW249385   2.410  11.797   0.538
15871SOL     OW49386   6.823   9.574   0.307
15871SOL    HW149387   6.854   9.599   0.394
15871SOL    HW249388   6.841   9.481   0.300
15872SOL     OW49389   2.681   4.096   9.155
15872SOL    HW149390   2.634   4.012   9.157
15872SOL    HW249391   2.647   4.144   9.230
15873SOL     OW49392   9.737  14.566   1.629
15873SOL    HW149393   9.768  14.618   1.704
15873SOL    HW249394   9.717  14.480   1.666
15874SOL     OW49395  10.545  13.990  12.804
15874SOL    HW149396  10.491  13.980  12.883
15874SOL    HW249397  10.507  14.064  12.757
15875SOL     OW49398   9.647   0.343   3.327
15875SOL    HW149399   9.726   0.289   3.328
15875SOL    HW249400   9.605   0.326   3.412
15876SOL     OW49401   7.638   6.543  10.097
15876SOL    HW149402   7.581   6.603  10.049
15876SOL    HW249403   7.600   6.456  10.083
15877SOL     OW49404   1.432  11.583   6.597
15877SOL    HW149405   1.455  11.510   6.540
15877SOL    HW249406   1.514  11.629   6.612
15878SOL     OW49407  11.037  13.370   1.951
15878SOL    HW149408  10.986  13.331   1.880
15878SOL    HW249409  10.981  13.362   2.028
15879SOL     OW49410   1.129  12.375   8.853
15879SOL    HW149411   1.117  12.307   8.919
15879SOL    HW249412   1.066  12.353   8.784
15880SOL     OW49413   4.789   1.068   7.978
15880SOL    HW149414   4.740   1.148   7.960
15880SOL    HW249415   4.732   1.018   8.037
15881SOL     OW49416  11.368   1.912  11.580
15881SOL    HW149417  11.440   1.865  11.620
15881SOL    HW249418  11.404   1.946  11.498
15882SOL     OW49419   1.236   6.819  14.357
15882SOL    HW149420   1.264   6.911  14.356
15882SOL    HW249421   1.144   6.822  14.384
15883SOL     OW49422   4.284  10.993   0.149
15883SOL    HW149423   4.243  10.944   0.078
15883SOL    HW249424   4.280  10.933   0.224
15884SOL     OW49425   6.631   1.608  11.447
15884SOL    HW149426   6.676   1.690  11.465
15884SOL    HW249427   6.588   1.585  11.530
15885SOL     OW49428   2.070  12.524  11.464
15885SOL    HW149429   2.010  12.453  11.440
15885SOL    HW249430   2.058  12.535  11.558
15886SOL     OW49431   5.585   2.306   0.353
15886SOL    HW149432   5.619   2.227   0.311
15886SOL    HW249433   5.502   2.324   0.308
15887SOL     OW49434   9.027   1.016   5.194
15887SOL    HW149435   8.962   1.086   5.202
15887SOL    HW249436   9.001   0.967   5.117
15888SOL     OW49437  10.594   6.384   1.569
15888SOL    HW149438  10.554   6.378   1.656
15888SOL    HW249439  10.529   6.430   1.516
15889SOL     OW49440  13.719   1.317   8.674
15889SOL    HW149441  13.670   1.293   8.752
15889SOL    HW249442  13.654   1.322   8.604
15890SOL     OW49443   1.748   3.733   5.733
15890SOL    HW149444   1.684   3.759   5.800
15890SOL    HW249445   1.695   3.708   5.657
15891SOL     OW49446   5.180   2.481   9.910
15891SOL    HW149447   5.092   2.455   9.938
15891SOL    HW249448   5.209   2.409   9.854
15892SOL     OW49449  14.152  13.088   6.040
15892SOL    HW149450  14.095  13.024   5.998
15892SOL    HW249451  14.225  13.036   6.074
15893SOL     OW49452  10.987   1.119   6.821
15893SOL    HW149453  10.924   1.048   6.808
15893SOL    HW249454  11.071   1.074   6.832
15894SOL     OW49455  12.049   4.826   0.605
15894SOL    HW149456  12.042   4.865   0.518
15894SOL    HW249457  12.091   4.741   0.590
15895SOL     OW49458   6.360   2.529  11.517
15895SOL    HW149459   6.283   2.530  11.574
15895SOL    HW249460   6.415   2.458  11.551
15896SOL     OW49461  12.564   3.458   4.820
15896SOL    HW149462  12.515   3.490   4.895
15896SOL    HW249463  12.613   3.534   4.789
15897SOL     OW49464  13.386   0.397  12.500
15897SOL    HW149465  13.320   0.347  12.452
15897SOL    HW249466  13.336   0.451  12.560
15898SOL     OW49467   6.018   1.579   2.959
15898SOL    HW149468   5.945   1.639   2.944
15898SOL    HW249469   6.084   1.605   2.895
15899SOL     OW49470  11.844   1.805  12.908
15899SOL    HW149471  11.779   1.839  12.970
15899SOL    HW249472  11.801   1.812  12.822
15900SOL     OW49473   7.012   6.809   9.706
15900SOL    HW149474   7.004   6.803   9.611
15900SOL    HW249475   7.062   6.889   9.721
15901SOL     OW49476  11.393  11.519   9.917
15901SOL    HW149477  11.308  11.529   9.961
15901SOL    HW249478  11.370  11.501   9.825
15902SOL     OW49479   3.203   3.012   9.970
15902SOL    HW149480   3.112   3.013   9.939
15902SOL    HW249481   3.229   2.920   9.966
15903SOL     OW49482   1.913   7.397   4.888
15903SOL    HW149483   1.989   7.338   4.891
15903SOL    HW249484   1.950   7.483   4.868
15904SOL     OW49485   9.450   0.488   6.932
15904SOL    HW149486   9.499   0.409   6.955
15904SOL    HW249487   9.465   0.500   6.839
15905SOL     OW49488   7.579   2.840  10.964
15905SOL    HW149489   7.563   2.896  10.888
15905SOL    HW249490   7.507   2.860  11.024
15906SOL     OW49491   6.227   9.874   4.570
15906SOL    HW149492   6.317   9.905   4.582
15906SOL    HW249493   6.195   9.858   4.659
15907SOL     OW49494  10.065  13.892   4.268
15907SOL    HW149495  10.086  13.808   4.229
15907SOL    HW249496   9.977  13.880   4.304
15908SOL     OW49497   2.486   6.995   8.319
15908SOL    HW149498   2.504   6.960   8.406
15908SOL    HW249499   2.398   7.031   8.325
15909SOL     OW49500   9.665  13.591   8.232
15909SOL    HW149501   9.687  13.588   8.139
15909SOL    HW249502   9.658  13.499   8.258
15910SOL     OW49503   2.436  13.483  14.834
15910SOL    HW149504   2.416  13.569  14.870
15910SOL    HW249505   2.355  13.433  14.844
15911SOL     OW49506  14.363   8.684   9.972
15911SOL    HW149507  14.336   8.601   9.934
15911SOL    HW249508  14.459   8.683   9.967
15912SOL     OW49509  13.791   0.401   1.041
15912SOL    HW149510  13.803   0.485   1.085
15912SOL    HW249511  13.879   0.376   1.012
15913SOL     OW49512  14.181   5.925   8.859
15913SOL    HW149513  14.113   5.860   8.840
15913SOL    HW249514  14.208   5.905   8.949
15914SOL     OW49515   7.418  13.848   1.705
15914SOL    HW149516   7.471  13.802   1.640
15914SOL    HW249517   7.369  13.778   1.750
15915SOL     OW49518   7.414   8.717   6.768
15915SOL    HW149519   7.387   8.763   6.848
15915SOL    HW249520   7.455   8.636   6.800
15916SOL     OW49521   4.813   0.788  10.215
15916SOL    HW149522   4.817   0.856  10.282
15916SOL    HW249523   4.900   0.784  10.178
15917SOL     OW49524  13.412   2.907   5.339
15917SOL    HW149525  13.455   2.855   5.407
15917SOL    HW249526  13.402   2.847   5.266
15918SOL     OW49527   7.647   1.770  10.179
15918SOL    HW149528   7.554   1.747  10.181
15918SOL    HW249529   7.648   1.865  10.183
15919SOL     OW49530   3.601  14.797   1.796
15919SOL    HW149531   3.520  14.819   1.843
15919SOL    HW249532   3.587  14.707   1.766
15920SOL     OW49533   4.202   3.142  11.818
15920SOL    HW149534   4.191   3.142  11.913
15920SOL    HW249535   4.212   3.234  11.795
15921SOL     OW49536  10.437   1.434  14.047
15921SOL    HW149537  10.414   1.525  14.068
15921SOL    HW249538  10.381   1.412  13.972
15922SOL     OW49539  14.080   5.563  11.428
15922SOL    HW149540  14.166   5.575  11.469
15922SOL    HW249541  14.049   5.652  11.412
15923SOL     OW49542   4.348   3.966  14.282
15923SOL    HW149543   4.434   3.944  14.316
15923SOL    HW249544   4.301   3.883  14.277
15924SOL     OW49545   1.974  12.155   9.739
15924SOL    HW149546   1.980  12.060   9.730
15924SOL    HW249547   1.917  12.182   9.666
15925SOL     OW49548   7.661   9.096   3.026
15925SOL    HW149549   7.690   9.036   3.095
15925SOL    HW249550   7.607   9.042   2.969
15926SOL     OW49551   9.246  12.615   7.728
15926SOL    HW149552   9.170  12.558   7.733
15926SOL    HW249553   9.306  12.582   7.795
15927SOL     OW49554  10.446   9.724  12.891
15927SOL    HW149555  10.399   9.641  12.889
15927SOL    HW249556  10.534   9.701  12.920
15928SOL     OW49557  12.475  13.331   8.042
15928SOL    HW149558  12.397  13.316   7.988
15928SOL    HW249559  12.532  13.384   7.987
15929SOL     OW49560   9.690   5.724   3.829
15929SOL    HW149561   9.694   5.698   3.737
15929SOL    HW249562   9.706   5.818   3.828
15930SOL     OW49563   4.893   7.736  10.441
15930SOL    HW149564   4.826   7.691  10.492
15930SOL    HW249565   4.848   7.813  10.405
15931SOL     OW49566  13.340   3.146   2.068
15931SOL    HW149567  13.253   3.174   2.095
15931SOL    HW249568  13.357   3.067   2.120
15932SOL     OW49569   3.960  11.801   5.166
15932SOL    HW149570   3.992  11.710   5.169
15932SOL    HW249571   3.996  11.836   5.085
15933SOL     OW49572  12.064   4.893  11.391
15933SOL    HW149573  12.026   4.807  11.370
15933SOL    HW249574  12.104   4.880  11.477
15934SOL     OW49575  11.559   2.754   3.184
15934SOL    HW149576  11.479   2.765   3.234
15934SOL    HW249577  11.629   2.759   3.249
15935SOL     OW49578  14.429   6.604   2.957
15935SOL    HW149579  14.423   6.592   3.052
15935SOL    HW249580  14.521   6.625   2.941
15936SOL     OW49581   7.817   6.593   2.718
15936SOL    HW149582   7.743   6.589   2.778
15936SOL    HW249583   7.872   6.518   2.743
15937SOL     OW49584   9.645  13.627   6.134
15937SOL    HW149585   9.641  13.705   6.188
15937SOL    HW249586   9.578  13.640   6.067
15938SOL     OW49587   7.789   4.261  12.903
15938SOL    HW149588   7.726   4.308  12.848
15938SOL    HW249589   7.773   4.294  12.991
15939SOL     OW49590   0.243  13.864  13.499
15939SOL    HW149591   0.280  13.923  13.565
15939SOL    HW249592   0.237  13.917  13.420
15940SOL     OW49593   6.337   7.437   8.354
15940SOL    HW149594   6.252   7.409   8.388
15940SOL    HW249595   6.324   7.527   8.325
15941SOL     OW49596   6.269  13.219   9.230
15941SOL    HW149597   6.232  13.219   9.142
15941SOL    HW249598   6.278  13.126   9.252
15942SOL     OW49599   0.209   1.256   5.981
15942SOL    HW149600   0.153   1.216   6.048
15942SOL    HW249601   0.155   1.257   5.902
15943SOL     OW49602   9.947   8.739   8.363
15943SOL    HW149603  10.018   8.687   8.326
15943SOL    HW249604   9.945   8.819   8.310
15944SOL     OW49605  14.307   5.047   2.217
15944SOL    HW149606  14.362   4.969   2.227
15944SOL    HW249607  14.249   5.045   2.294
15945SOL     OW49608   4.125   1.440  11.662
15945SOL    HW149609   4.190   1.425  11.730
15945SOL    HW249610   4.042   1.410  11.699
15946SOL     OW49611   2.369  14.056  12.790
15946SOL    HW149612   2.326  14.025  12.710
15946SOL    HW249613   2.439  13.992  12.805
15947SOL     OW49614  10.070  14.027   7.033
15947SOL    HW149615  10.038  13.941   7.006
15947SOL    HW249616  10.138  14.048   6.968
15948SOL     OW49617   9.814   0.584   8.165
15948SOL    HW149618   9.812   0.589   8.260
15948SOL    HW249619   9.793   0.492   8.146
15949SOL     OW49620  10.833   2.552   1.407
15949SOL    HW149621  10.794   2.489   1.468
15949SOL    HW249622  10.886   2.610   1.463
15950SOL     OW49623   8.948  12.361   9.499
15950SOL    HW149624   9.010  12.406   9.556
15950SOL    HW249625   8.971  12.391   9.411
15951SOL     OW49626  12.894   9.784   4.491
15951SOL    HW149627  12.941   9.867   4.499
15951SOL    HW249628  12.963   9.717   4.490
15952SOL     OW49629  12.385  11.920   9.909
15952SOL    HW149630  12.359  11.989   9.847
15952SOL    HW249631  12.480  11.929   9.917
15953SOL     OW49632   7.514   0.851   7.944
15953SOL    HW149633   7.431   0.898   7.958
15953SOL    HW249634   7.533   0.810   8.029
15954SOL     OW49635   2.120   4.908   1.825
15954SOL    HW149636   2.113   4.945   1.737
15954SOL    HW249637   2.030   4.907   1.858
15955SOL     OW49638  12.180   5.331  10.539
15955SOL    HW149639  12.100   5.371  10.503
15955SOL    HW249640  12.229   5.303  10.462
15956SOL     OW49641  11.860   4.617   1.559
15956SOL    HW149642  11.776   4.628   1.513
15956SOL    HW249643  11.896   4.535   1.523
15957SOL     OW49644   0.392   3.463   0.669
15957SOL    HW149645   0.381   3.388   0.610
15957SOL    HW249646   0.480   3.453   0.704
15958SOL     OW49647   7.130   1.149   4.305
15958SOL    HW149648   7.132   1.171   4.398
15958SOL    HW249649   7.054   1.092   4.295
15959SOL     OW49650   9.328   6.207  11.334
15959SOL    HW149651   9.254   6.241  11.383
15959SOL    HW249652   9.394   6.188  11.400
15960SOL     OW49653  11.735   5.743   0.777
15960SOL    HW149654  11.641   5.763   0.772
15960SOL    HW249655  11.762   5.778   0.862
15961SOL     OW49656   9.838   3.006   6.119
15961SOL    HW149657   9.747   3.033   6.106
15961SOL    HW249658   9.840   2.973   6.209
15962SOL     OW49659  10.559  12.171   6.444
15962SOL    HW149660  10.590  12.238   6.383
15962SOL    HW249661  10.473  12.145   6.410
15963SOL     OW49662   8.581  12.870   8.354
15963SOL    HW149663   8.520  12.935   8.320
15963SOL    HW249664   8.624  12.833   8.277
15964SOL     OW49665   2.395   3.394   6.873
15964SOL    HW149666   2.365   3.392   6.782
15964SOL    HW249667   2.369   3.308   6.908
15965SOL     OW49668   7.537   4.371   3.048
15965SOL    HW149669   7.470   4.304   3.030
15965SOL    HW249670   7.618   4.331   3.019
15966SOL     OW49671   2.336   2.254   3.293
15966SOL    HW149672   2.381   2.196   3.232
15966SOL    HW249673   2.367   2.341   3.270
15967SOL     OW49674   1.712  13.312   9.451
15967SOL    HW149675   1.687  13.249   9.383
15967SOL    HW249676   1.639  13.311   9.513
15968SOL     OW49677   0.335   8.998   7.861
15968SOL    HW149678   0.300   8.983   7.948
15968SOL    HW249679   0.300   9.084   7.836
15969SOL     OW49680  14.052   6.674   8.140
15969SOL    HW149681  14.087   6.619   8.210
15969SOL    HW249682  14.109   6.751   8.139
15970SOL     OW49683  12.281  11.005   9.827
15970SOL    HW149684  12.305  10.927   9.877
15970SOL    HW249685  12.362  11.036   9.788
15971SOL     OW49686   1.505   0.200  11.232
15971SOL    HW149687   1.568   0.130  11.244
15971SOL    HW249688   1.427   0.157  11.198
15972SOL     OW49689  12.701  10.114   0.510
15972SOL    HW149690  12.784  10.155   0.487
15972SOL    HW249691  12.645  10.129   0.434
15973SOL     OW49692   9.747  10.736  13.009
15973SOL    HW149693   9.663  10.738  12.962
15973SOL    HW249694   9.734  10.672  13.079
15974SOL     OW49695  13.337   8.209  13.018
15974SOL    HW149696  13.293   8.156  12.952
15974SOL    HW249697  13.267   8.260  13.059
15975SOL     OW49698   9.381   2.318  11.776
15975SOL    HW149699   9.381   2.337  11.870
15975SOL    HW249700   9.322   2.243  11.767
15976SOL     OW49701   4.604   9.282  10.120
15976SOL    HW149702   4.540   9.213  10.103
15976SOL    HW249703   4.641   9.303  10.034
15977SOL     OW49704   8.820  14.356  13.929
15977SOL    HW149705   8.885  14.425  13.915
15977SOL    HW249706   8.736  14.403  13.933
15978SOL     OW49707  12.664   0.868  13.665
15978SOL    HW149708  12.728   0.798  13.680
15978SOL    HW249709  12.617   0.840  13.586
15979SOL     OW49710   5.748   9.612   5.923
15979SOL    HW149711   5.722   9.606   5.832
15979SOL    HW249712   5.834   9.655   5.921
15980SOL     OW49713   5.527  12.382   8.817
15980SOL    HW149714   5.434  12.375   8.798
15980SOL    HW249715   5.566  12.305   8.775
15981SOL     OW49716  14.656   6.286   8.998
15981SOL    HW149717  14.590   6.331   8.945
15981SOL    HW249718  14.737   6.294   8.947
15982SOL     OW49719  14.343   6.758  10.872
15982SOL    HW149720  14.338   6.799  10.785
15982SOL    HW249721  14.255   6.769  10.908
15983SOL     OW49722   3.145  11.676   0.597
15983SOL    HW149723   3.145  11.644   0.687
15983SOL    HW249724   3.123  11.769   0.605
15984SOL     OW49725  12.468   7.258   9.790
15984SOL    HW149726  12.435   7.331   9.737
15984SOL    HW249727  12.397   7.194   9.790
15985SOL     OW49728   7.708   3.028   0.559
15985SOL    HW149729   7.639   3.093   0.570
15985SOL    HW249730   7.769   3.067   0.497
15986SOL     OW49731   7.477   6.842   1.733
15986SOL    HW149732   7.474   6.858   1.827
15986SOL    HW249733   7.447   6.924   1.694
15987SOL     OW49734   3.887   1.062   5.492
15987SOL    HW149735   3.910   0.988   5.548
15987SOL    HW249736   3.902   1.139   5.547
15988SOL     OW49737  13.753   4.990   0.692
15988SOL    HW149738  13.823   5.042   0.653
15988SOL    HW249739  13.787   4.966   0.778
15989SOL     OW49740   5.690   7.784  13.987
15989SOL    HW149741   5.623   7.721  13.960
15989SOL    HW249742   5.682   7.856  13.925
15990SOL     OW49743   1.520  14.447   7.093
15990SOL    HW149744   1.465  14.517   7.128
15990SOL    HW249745   1.601  14.490   7.067
15991SOL     OW49746   1.465  13.586  11.659
15991SOL    HW149747   1.395  13.579  11.724
15991SOL    HW249748   1.539  13.540  11.700
15992SOL     OW49749   2.817   6.134   5.149
15992SOL    HW149750   2.802   6.074   5.076
15992SOL    HW249751   2.877   6.086   5.207
15993SOL     OW49752  12.783   7.590   6.078
15993SOL    HW149753  12.753   7.591   5.987
15993SOL    HW249754  12.829   7.507   6.087
15994SOL     OW49755   6.849   5.321  13.229
15994SOL    HW149756   6.757   5.346  13.232
15994SOL    HW249757   6.848   5.226  13.241
15995SOL     OW49758  13.297   3.038   8.943
15995SOL    HW149759  13.237   3.112   8.954
15995SOL    HW249760  13.343   3.057   8.861
15996SOL     OW49761   0.424  10.026   2.308
15996SOL    HW149762   0.365   9.952   2.318
15996SOL    HW249763   0.418  10.072   2.392
15997SOL     OW49764   0.167  10.698   0.611
15997SOL    HW149765   0.079  10.676   0.583
15997SOL    HW249766   0.173  10.793   0.597
15998SOL     OW49767  12.755   5.423  13.775
15998SOL    HW149768  12.723   5.356  13.835
15998SOL    HW249769  12.824   5.469  13.824
15999SOL     OW49770   6.866  10.352   3.003
15999SOL    HW149771   6.844  10.287   3.070
15999SOL    HW249772   6.849  10.309   2.920
16000SOL     OW49773   3.385  12.866   3.133
16000SOL    HW149774   3.322  12.850   3.063
16000SOL    HW249775   3.332  12.896   3.207
16001SOL     OW49776   3.421   9.209   8.992
16001SOL    HW149777   3.433   9.300   9.021
16001SOL    HW249778   3.345   9.179   9.041
16002SOL     OW49779   0.286   0.744   9.557
16002SOL    HW149780   0.342   0.693   9.499
16002SOL    HW249781   0.216   0.776   9.501
16003SOL     OW49782  10.674   2.789   3.142
16003SOL    HW149783  10.614   2.752   3.207
16003SOL    HW249784  10.760   2.755   3.167
16004SOL     OW49785   3.867  14.376   2.949
16004SOL    HW149786   3.815  14.454   2.931
16004SOL    HW249787   3.957  14.402   2.928
16005SOL     OW49788   0.396   9.974   1.188
16005SOL    HW149789   0.372  10.053   1.236
16005SOL    HW249790   0.318   9.919   1.192
16006SOL     OW49791   6.823  14.515  13.047
16006SOL    HW149792   6.802  14.443  12.987
16006SOL    HW249793   6.918  14.520  13.048
16007SOL     OW49794   0.515   9.517   6.520
16007SOL    HW149795   0.600   9.530   6.478
16007SOL    HW249796   0.529   9.541   6.612
16008SOL     OW49797   3.765  10.673   2.010
16008SOL    HW149798   3.744  10.626   2.090
16008SOL    HW249799   3.684  10.719   1.987
16009SOL     OW49800   6.232   0.130   6.319
16009SOL    HW149801   6.270   0.070   6.255
16009SOL    HW249802   6.150   0.089   6.345
16010SOL     OW49803  12.773   2.662   4.193
16010SOL    HW149804  12.781   2.663   4.289
16010SOL    HW249805  12.687   2.623   4.177
16011SOL     OW49806  13.264  13.421  11.071
16011SOL    HW149807  13.317  13.443  11.148
16011SOL    HW249808  13.182  13.386  11.108
16012SOL     OW49809  14.877  10.039   3.399
16012SOL    HW149810  14.811   9.973   3.416
16012SOL    HW249811   0.007  10.084   3.483
16013SOL     OW49812   0.854   8.686   7.859
16013SOL    HW149813   0.812   8.717   7.939
16013SOL    HW249814   0.877   8.766   7.811
16014SOL     OW49815   4.964   1.644  10.475
16014SOL    HW149816   4.890   1.624  10.418
16014SOL    HW249817   5.014   1.710  10.427
16015SOL     OW49818  13.544   3.650   4.485
16015SOL    HW149819  13.565   3.707   4.411
16015SOL    HW249820  13.455   3.674   4.510
16016SOL     OW49821   1.451   7.154   6.865
16016SOL    HW149822   1.409   7.068   6.861
16016SOL    HW249823   1.544   7.135   6.879
16017SOL     OW49824   8.043  12.070   6.489
16017SOL    HW149825   8.134  12.063   6.517
16017SOL    HW249826   8.004  11.986   6.514
16018SOL     OW49827   7.584  13.186  12.698
16018SOL    HW149828   7.655  13.225  12.748
16018SOL    HW249829   7.586  13.231  12.614
16019SOL     OW49830   7.917  12.258   7.420
16019SOL    HW149831   7.897  12.351   7.413
16019SOL    HW249832   7.957  12.235   7.336
16020SOL     OW49833   2.823   9.604   6.443
16020SOL    HW149834   2.842   9.596   6.350
16020SOL    HW249835   2.729   9.622   6.447
16021SOL     OW49836  10.778   9.957   7.146
16021SOL    HW149837  10.745   9.979   7.233
16021SOL    HW249838  10.727  10.013   7.087
16022SOL     OW49839   9.961   1.932  14.414
16022SOL    HW149840  10.017   1.978  14.477
16022SOL    HW249841   9.887   1.901  14.466
16023SOL     OW49842   0.985   2.691  14.746
16023SOL    HW149843   1.053   2.756  14.765
16023SOL    HW249844   1.014   2.650  14.664
16024SOL     OW49845   7.019   9.146   8.865
16024SOL    HW149846   7.012   9.197   8.946
16024SOL    HW249847   6.929   9.139   8.834
16025SOL     OW49848   5.914   1.279   2.580
16025SOL    HW149849   5.862   1.358   2.598
16025SOL    HW249850   5.964   1.301   2.502
16026SOL     OW49851   2.406   3.188   9.238
16026SOL    HW149852   2.472   3.210   9.172
16026SOL    HW249853   2.454   3.191   9.321
16027SOL     OW49854   6.003   3.940   6.313
16027SOL    HW149855   5.979   3.856   6.352
16027SOL    HW249856   6.090   3.958   6.349
16028SOL     OW49857   0.751  12.222   7.522
16028SOL    HW149858   0.732  12.315   7.510
16028SOL    HW249859   0.722  12.181   7.440
16029SOL     OW49860   1.039   3.595   2.567
16029SOL    HW149861   1.022   3.516   2.516
16029SOL    HW249862   0.986   3.662   2.524
16030SOL     OW49863  10.610   8.780   6.919
16030SOL    HW149864  10.621   8.815   6.831
16030SOL    HW249865  10.657   8.696   6.918
16031SOL     OW49866  13.931  11.409  10.685
16031SOL    HW149867  13.963  11.350  10.617
16031SOL    HW249868  13.859  11.457  10.643
16032SOL     OW49869   0.817   0.653   9.196
16032SOL    HW149870   0.822   0.704   9.116
16032SOL    HW249871   0.802   0.717   9.265
16033SOL     OW49872   9.353  12.397  13.537
16033SOL    HW149873   9.411  12.383  13.611
16033SOL    HW249874   9.267  12.368  13.568
16034SOL     OW49875   1.580   3.756   0.682
16034SOL    HW149876   1.597   3.708   0.763
16034SOL    HW249877   1.576   3.848   0.708
16035SOL     OW49878   1.502   6.339   0.967
16035SOL    HW149879   1.481   6.250   0.994
16035SOL    HW249880   1.525   6.331   0.874
16036SOL     OW49881  10.578  12.217   8.374
16036SOL    HW149882  10.574  12.131   8.417
16036SOL    HW249883  10.578  12.197   8.280
16037SOL     OW49884   9.020   2.589   4.712
16037SOL    HW149885   9.013   2.497   4.687
16037SOL    HW249886   8.930   2.617   4.729
16038SOL     OW49887   5.061  12.785   5.726
16038SOL    HW149888   5.045  12.867   5.772
16038SOL    HW249889   4.974  12.748   5.712
16039SOL     OW49890  13.223   3.877   8.150
16039SOL    HW149891  13.296   3.847   8.203
16039SOL    HW249892  13.214   3.811   8.081
16040SOL     OW49893  11.628   4.767   2.281
16040SOL    HW149894  11.694   4.754   2.349
16040SOL    HW249895  11.675   4.751   2.199
16041SOL     OW49896  12.594   8.198   9.875
16041SOL    HW149897  12.557   8.158   9.955
16041SOL    HW249898  12.676   8.237   9.904
16042SOL     OW49899   2.710   9.304   1.300
16042SOL    HW149900   2.786   9.283   1.353
16042SOL    HW249901   2.743   9.309   1.210
16043SOL     OW49902   7.337   5.923   4.879
16043SOL    HW149903   7.417   5.902   4.926
16043SOL    HW249904   7.271   5.864   4.916
16044SOL     OW49905   8.420  14.066  10.958
16044SOL    HW149906   8.370  14.107  10.887
16044SOL    HW249907   8.410  13.972  10.943
16045SOL     OW49908   9.302   8.466   4.805
16045SOL    HW149909   9.246   8.410   4.859
16045SOL    HW249910   9.376   8.487   4.861
16046SOL     OW49911   5.962   2.636   8.730
16046SOL    HW149912   5.928   2.601   8.812
16046SOL    HW249913   6.054   2.655   8.748
16047SOL     OW49914  11.188   9.168   2.496
16047SOL    HW149915  11.190   9.108   2.422
16047SOL    HW249916  11.165   9.253   2.458
16048SOL     OW49917   1.294  12.540  10.800
16048SOL    HW149918   1.199  12.531  10.807
16048SOL    HW249919   1.323  12.459  10.758
16049SOL     OW49920   7.013  14.416   9.963
16049SOL    HW149921   6.940  14.412  10.025
16049SOL    HW249922   6.989  14.483   9.900
16050SOL     OW49923   6.631  10.552   6.358
16050SOL    HW149924   6.665  10.464   6.342
16050SOL    HW249925   6.616  10.555   6.452
16051SOL     OW49926   5.292   1.132  12.843
16051SOL    HW149927   5.234   1.159  12.771
16051SOL    HW249928   5.257   1.047  12.871
16052SOL     OW49929  13.526   9.894   7.600
16052SOL    HW149930  13.494   9.939   7.678
16052SOL    HW249931  13.448   9.852   7.563
16053SOL     OW49932   6.243   8.596   6.134
16053SOL    HW149933   6.262   8.507   6.103
16053SOL    HW249934   6.250   8.650   6.055
16054SOL     OW49935   5.809   7.306  10.005
16054SOL    HW149936   5.781   7.355  10.082
16054SOL    HW249937   5.875   7.362   9.964
16055SOL     OW49938  10.930   3.393   4.088
16055SOL    HW149939  11.016   3.435   4.089
16055SOL    HW249940  10.871   3.460   4.053
16056SOL     OW49941   3.644   6.601   0.949
16056SOL    HW149942   3.639   6.549   1.029
16056SOL    HW249943   3.715   6.663   0.965
16057SOL     OW49944   6.127   9.655   6.823
16057SOL    HW149945   6.162   9.569   6.847
16057SOL    HW249946   6.191   9.717   6.856
16058SOL     OW49947  12.229  13.591   4.604
16058SOL    HW149948  12.156  13.603   4.665
16058SOL    HW249949  12.215  13.656   4.536
16059SOL     OW49950   0.359  12.707  10.484
16059SOL    HW149951   0.357  12.760  10.403
16059SOL    HW249952   0.419  12.754  10.541
16060SOL     OW49953   3.299   6.878   6.188
16060SOL    HW149954   3.222   6.903   6.240
16060SOL    HW249955   3.372   6.922   6.231
16061SOL     OW49956  10.463   9.578   6.258
16061SOL    HW149957  10.465   9.483   6.271
16061SOL    HW249958  10.550   9.599   6.225
16062SOL     OW49959   8.831   8.766   3.722
16062SOL    HW149960   8.762   8.700   3.718
16062SOL    HW249961   8.800   8.836   3.664
16063SOL     OW49962   1.496   1.130   3.869
16063SOL    HW149963   1.478   1.221   3.846
16063SOL    HW249964   1.489   1.127   3.964
16064SOL     OW49965  14.161  14.412   2.991
16064SOL    HW149966  14.230  14.442   2.931
16064SOL    HW249967  14.185  14.322   3.012
16065SOL     OW49968  12.966   4.851   3.180
16065SOL    HW149969  12.879   4.816   3.159
16065SOL    HW249970  12.963   4.865   3.275
16066SOL     OW49971  11.697   9.229   2.217
16066SOL    HW149972  11.765   9.201   2.155
16066SOL    HW249973  11.732   9.206   2.303
16067SOL     OW49974   1.428   6.582   8.836
16067SOL    HW149975   1.435   6.515   8.904
16067SOL    HW249976   1.504   6.569   8.780
16068SOL     OW49977  11.774  14.317  14.308
16068SOL    HW149978  11.731  14.398  14.279
16068SOL    HW249979  11.720  14.286  14.381
16069SOL     OW49980   9.162   9.552   4.535
16069SOL    HW149981   9.238   9.589   4.580
16069SOL    HW249982   9.135   9.478   4.590
16070SOL     OW49983   7.219   4.239   4.769
16070SOL    HW149984   7.233   4.332   4.785
16070SOL    HW249985   7.159   4.211   4.838
16071SOL     OW49986  13.023   0.824   3.420
16071SOL    HW149987  13.071   0.852   3.499
16071SOL    HW249988  13.060   0.878   3.350
16072SOL     OW49989   3.820   2.825  14.289
16072SOL    HW149990   3.871   2.857  14.363
16072SOL    HW249991   3.743   2.784  14.329
16073SOL     OW49992   7.885   0.161   9.253
16073SOL    HW149993   7.943   0.087   9.269
16073SOL    HW249994   7.798   0.130   9.279
16074SOL     OW49995   1.050  14.880  13.142
16074SOL    HW149996   1.004  14.853  13.222
16074SOL    HW249997   1.027  14.815  13.077
16075SOL     OW49998   3.096  13.180   6.562
16075SOL    HW149999   3.070  13.100   6.607
16075SOL    HW250000   3.109  13.245   6.632
16076SOL     OW50001   5.166   5.718   4.040
16076SOL    HW150002   5.138   5.688   3.953
16076SOL    HW250003   5.211   5.801   4.023
16077SOL     OW50004   7.238   7.378   2.033
16077SOL    HW150005   7.309   7.435   2.002
16077SOL    HW250006   7.240   7.303   1.974
16078SOL     OW50007  10.579  12.172   0.884
16078SOL    HW150008  10.583  12.245   0.945
16078SOL    HW250009  10.534  12.207   0.807
16079SOL     OW50010   9.745  13.931   8.445
16079SOL    HW150011   9.815  13.878   8.407
16079SOL    HW250012   9.778  14.020   8.444
16080SOL     OW50013  13.151   3.630   6.929
16080SOL    HW150014  13.229   3.673   6.967
16080SOL    HW250015  13.084   3.640   6.996
16081SOL     OW50016   4.658   3.743   1.941
16081SOL    HW150017   4.644   3.764   1.849
16081SOL    HW250018   4.572   3.718   1.974
16082SOL     OW50019   2.466   4.796  10.793
16082SOL    HW150020   2.512   4.805  10.710
16082SOL    HW250021   2.516   4.729  10.840
16083SOL     OW50022   2.420   2.317   0.869
16083SOL    HW150023   2.419   2.228   0.904
16083SOL    HW250024   2.355   2.316   0.798
16084SOL     OW50025   5.531  10.967   5.401
16084SOL    HW150026   5.479  10.961   5.321
16084SOL    HW250027   5.542  10.876   5.429
16085SOL     OW50028   0.615  13.717  12.224
16085SOL    HW150029   0.692  13.734  12.169
16085SOL    HW250030   0.547  13.773  12.188
16086SOL     OW50031   0.346  10.722   1.651
16086SOL    HW150032   0.321  10.629   1.656
16086SOL    HW250033   0.409  10.733   1.722
16087SOL     OW50034  14.256   7.956  12.061
16087SOL    HW150035  14.316   7.921  12.127
16087SOL    HW250036  14.246   8.048  12.084
16088SOL     OW50037   5.457  10.417   9.273
16088SOL    HW150038   5.505  10.475   9.214
16088SOL    HW250039   5.524  10.379   9.329
16089SOL     OW50040   7.767  12.599   9.823
16089SOL    HW150041   7.749  12.531   9.758
16089SOL    HW250042   7.830  12.560   9.882
16090SOL     OW50043  13.594   2.072   5.152
16090SOL    HW150044  13.664   2.010   5.171
16090SOL    HW250045  13.534   2.063   5.226
16091SOL     OW50046   5.836  13.526   2.517
16091SOL    HW150047   5.758  13.505   2.465
16091SOL    HW250048   5.909  13.509   2.458
16092SOL     OW50049   8.444   3.781   6.193
16092SOL    HW150050   8.411   3.832   6.267
16092SOL    HW250051   8.539   3.792   6.196
16093SOL     OW50052  12.751   4.460  13.030
16093SOL    HW150053  12.695   4.391  12.997
16093SOL    HW250054  12.691   4.530  13.056
16094SOL     OW50055  10.208   0.946   2.953
16094SOL    HW150056  10.149   0.880   2.917
16094SOL    HW250057  10.160   1.028   2.947
16095SOL     OW50058  13.332   6.319   5.719
16095SOL    HW150059  13.357   6.270   5.641
16095SOL    HW250060  13.296   6.254   5.779
16096SOL     OW50061   0.924   1.430  10.169
16096SOL    HW150062   0.985   1.384  10.110
16096SOL    HW250063   0.978   1.453  10.245
16097SOL     OW50064  10.464   1.167   6.134
16097SOL    HW150065  10.551   1.145   6.168
16097SOL    HW250066  10.459   1.122   6.050
16098SOL     OW50067   9.115  10.105  10.731
16098SOL    HW150068   9.171  10.132  10.659
16098SOL    HW250069   9.026  10.130  10.704
16099SOL     OW50070  12.768   8.561   0.773
16099SOL    HW150071  12.737   8.648   0.747
16099SOL    HW250072  12.836   8.578   0.839
16100SOL     OW50073  10.552   1.386  10.342
16100SOL    HW150074  10.582   1.295  10.340
16100SOL    HW250075  10.530   1.406  10.251
16101SOL     OW50076   9.002   2.071   3.452
16101SOL    HW150077   9.008   2.167   3.459
16101SOL    HW250078   8.919   2.056   3.408
16102SOL     OW50079   5.358   7.760   7.890
16102SOL    HW150080   5.311   7.701   7.948
16102SOL    HW250081   5.387   7.832   7.946
16103SOL     OW50082  12.022   6.231   8.230
16103SOL    HW150083  11.987   6.295   8.293
16103SOL    HW250084  12.014   6.275   8.145
16104SOL     OW50085   4.104   9.730   8.879
16104SOL    HW150086   4.060   9.798   8.828
16104SOL    HW250087   4.074   9.647   8.841
16105SOL     OW50088   4.276  10.790   3.358
16105SOL    HW150089   4.359  10.756   3.326
16105SOL    HW250090   4.240  10.838   3.284
16106SOL     OW50091   4.776  14.105   0.389
16106SOL    HW150092   4.846  14.135   0.448
16106SOL    HW250093   4.800  14.015   0.368
16107SOL     OW50094   4.378   9.090  13.925
16107SOL    HW150095   4.365   9.181  13.949
16107SOL    HW250096   4.347   9.084  13.835
16108SOL     OW50097   2.801  10.465   9.354
16108SOL    HW150098   2.885  10.510   9.350
16108SOL    HW250099   2.818  10.380   9.314
16109SOL     OW50100   6.874   0.359   0.211
16109SOL    HW150101   6.813   0.403   0.269
16109SOL    HW250102   6.866   0.407   0.128
16110SOL     OW50103   5.019   4.500  12.486
16110SOL    HW150104   4.940   4.547  12.512
16110SOL    HW250105   5.046   4.453  12.565
16111SOL     OW50106  13.433   1.498   2.943
16111SOL    HW150107  13.433   1.579   2.891
16111SOL    HW250108  13.358   1.508   3.001
16112SOL     OW50109  13.883   6.818   5.831
16112SOL    HW150110  13.793   6.845   5.849
16112SOL    HW250111  13.918   6.887   5.774
16113SOL     OW50112   5.493  12.185   3.787
16113SOL    HW150113   5.424  12.128   3.821
16113SOL    HW250114   5.565  12.125   3.767
16114SOL     OW50115   4.899   7.398   8.730
16114SOL    HW150116   4.921   7.317   8.685
16114SOL    HW250117   4.804   7.395   8.741
16115SOL     OW50118  11.418  10.149   6.659
16115SOL    HW150119  11.323  10.148   6.672
16115SOL    HW250120  11.454  10.139   6.747
16116SOL     OW50121   6.438   6.249  12.335
16116SOL    HW150122   6.385   6.290  12.403
16116SOL    HW250123   6.388   6.260  12.254
16117SOL     OW50124  10.349   7.612   2.070
16117SOL    HW150125  10.316   7.533   2.114
16117SOL    HW250126  10.429   7.634   2.117
16118SOL     OW50127   7.800  12.343   7.816
16118SOL    HW150128   7.828  12.287   7.743
16118SOL    HW250129   7.874  12.404   7.828
16119SOL     OW50130   0.503   0.866  12.477
16119SOL    HW150131   0.452   0.872  12.558
16119SOL    HW250132   0.502   0.773  12.455
16120SOL     OW50133  12.500   7.281   9.388
16120SOL    HW150134  12.540   7.340   9.452
16120SOL    HW250135  12.573   7.251   9.334
16121SOL     OW50136   9.652  12.899  10.865
16121SOL    HW150137   9.559  12.911  10.847
16121SOL    HW250138   9.695  12.975  10.825
16122SOL     OW50139  11.494   0.046   1.122
16122SOL    HW150140  11.559   0.006   1.065
16122SOL    HW250141  11.521   0.022   1.210
16123SOL     OW50142   3.461   1.794   8.210
16123SOL    HW150143   3.522   1.720   8.214
16123SOL    HW250144   3.446   1.808   8.117
16124SOL     OW50145  14.136  10.174  11.194
16124SOL    HW150146  14.158  10.262  11.225
16124SOL    HW250147  14.181  10.166  11.110
16125SOL     OW50148  11.468   7.441   2.140
16125SOL    HW150149  11.456   7.505   2.070
16125SOL    HW250150  11.425   7.362   2.109
16126SOL     OW50151   3.774   6.210   8.245
16126SOL    HW150152   3.862   6.173   8.246
16126SOL    HW250153   3.768   6.257   8.162
16127SOL     OW50154   9.872  12.202  14.238
16127SOL    HW150155   9.860  12.277  14.180
16127SOL    HW250156   9.865  12.126  14.180
16128SOL     OW50157   3.385   3.816   1.950
16128SOL    HW150158   3.305   3.768   1.970
16128SOL    HW250159   3.428   3.765   1.881
16129SOL     OW50160   3.806   6.836   1.164
16129SOL    HW150161   3.863   6.870   1.233
16129SOL    HW250162   3.860   6.771   1.118
16130SOL     OW50163   1.264  11.269   3.874
16130SOL    HW150164   1.356  11.243   3.875
16130SOL    HW250165   1.264  11.361   3.899
16131SOL     OW50166   4.174  13.777  13.531
16131SOL    HW150167   4.114  13.850  13.549
16131SOL    HW250168   4.237  13.812  13.469
16132SOL     OW50169   9.969  12.831   6.784
16132SOL    HW150170  10.060  12.836   6.814
16132SOL    HW250171   9.929  12.911   6.818
16133SOL     OW50172   2.283   0.439   6.832
16133SOL    HW150173   2.203   0.492   6.832
16133SOL    HW250174   2.262   0.364   6.777
16134SOL     OW50175  10.705   4.255   8.615
16134SOL    HW150176  10.624   4.226   8.657
16134SOL    HW250177  10.730   4.335   8.663
16135SOL     OW50178   0.304   4.860   2.004
16135SOL    HW150179   0.261   4.822   2.081
16135SOL    HW250180   0.277   4.952   2.004
16136SOL     OW50181  10.670  11.416  13.193
16136SOL    HW150182  10.684  11.423  13.288
16136SOL    HW250183  10.590  11.365  13.184
16137SOL     OW50184   0.599   1.069   7.576
16137SOL    HW150185   0.514   1.047   7.537
16137SOL    HW250186   0.585   1.156   7.614
16138SOL     OW50187  10.772   8.501   9.186
16138SOL    HW150188  10.827   8.431   9.222
16138SOL    HW250189  10.688   8.458   9.169
16139SOL     OW50190   6.259   5.396   9.616
16139SOL    HW150191   6.232   5.424   9.703
16139SOL    HW250192   6.239   5.302   9.614
16140SOL     OW50193  12.973   1.028   0.272
16140SOL    HW150194  12.944   0.960   0.211
16140SOL    HW250195  13.019   1.091   0.217
16141SOL     OW50196   6.718   4.130   7.369
16141SOL    HW150197   6.690   4.181   7.445
16141SOL    HW250198   6.810   4.153   7.357
16142SOL     OW50199   1.678   7.000   9.829
16142SOL    HW150200   1.717   6.914   9.839
16142SOL    HW250201   1.752   7.060   9.822
16143SOL     OW50202  10.390   6.822  12.654
16143SOL    HW150203  10.418   6.798  12.566
16143SOL    HW250204  10.370   6.738  12.696
16144SOL     OW50205   7.077   2.494   9.988
16144SOL    HW150206   7.004   2.437   9.966
16144SOL    HW250207   7.122   2.509   9.904
16145SOL     OW50208  10.760  10.296   9.971
16145SOL    HW150209  10.852  10.309   9.948
16145SOL    HW250210  10.741  10.365  10.034
16146SOL     OW50211   4.783   9.451   4.714
16146SOL    HW150212   4.805   9.457   4.620
16146SOL    HW250213   4.692   9.421   4.715
16147SOL     OW50214   7.313   0.750   7.508
16147SOL    HW150215   7.242   0.733   7.570
16147SOL    HW250216   7.382   0.791   7.561
16148SOL     OW50217   0.442  13.649  13.433
16148SOL    HW150218   0.491  13.685  13.359
16148SOL    HW250219   0.388  13.721  13.463
16149SOL     OW50220   4.208   5.917   7.734
16149SOL    HW150221   4.288   5.864   7.732
16149SOL    HW250222   4.239   6.007   7.723
16150SOL     OW50223  13.604   2.155   4.253
16150SOL    HW150224  13.631   2.065   4.235
16150SOL    HW250225  13.514   2.159   4.221
16151SOL     OW50226   5.792   8.214  12.604
16151SOL    HW150227   5.738   8.183  12.532
16151SOL    HW250228   5.751   8.296  12.632
16152SOL     OW50229  12.333   8.865   1.206
16152SOL    HW150230  12.355   8.946   1.160
16152SOL    HW250231  12.403   8.805   1.183
16153SOL     OW50232   4.789   6.398   8.769
16153SOL    HW150233   4.722   6.340   8.805
16153SOL    HW250234   4.758   6.486   8.788
16154SOL     OW50235   4.877   1.189  13.246
16154SOL    HW150236   4.827   1.154  13.320
16154SOL    HW250237   4.923   1.265  13.281
16155SOL     OW50238   2.180  13.059   9.423
16155SOL    HW150239   2.136  13.129   9.373
16155SOL    HW250240   2.262  13.099   9.451
16156SOL     OW50241   8.846  14.441   5.145
16156SOL    HW150242   8.791  14.393   5.207
16156SOL    HW250243   8.794  14.518   5.121
16157SOL     OW50244  13.316   1.596  11.229
16157SOL    HW150245  13.232   1.640  11.223
16157SOL    HW250246  13.333   1.587  11.322
16158SOL     OW50247   3.554   9.073   1.558
16158SOL    HW150248   3.473   9.073   1.608
16158SOL    HW250249   3.621   9.044   1.620
16159SOL     OW50250  14.183   4.225  14.763
16159SOL    HW150251  14.198   4.312  14.725
16159SOL    HW250252  14.270   4.197  14.792
16160SOL     OW50253   5.905   7.626  13.881
16160SOL    HW150254   5.837   7.632  13.948
16160SOL    HW250255   5.859   7.590  13.804
16161SOL     OW50256   4.746  14.626   9.358
16161SOL    HW150257   4.671  14.630   9.418
16161SOL    HW250258   4.789  14.543   9.379
16162SOL     OW50259   0.217   9.930   0.067
16162SOL    HW150260   0.189  10.017   0.040
16162SOL    HW250261   0.257   9.943   0.153
16163SOL     OW50262   9.360   9.068  11.492
16163SOL    HW150263   9.420   9.080  11.566
16163SOL    HW250264   9.283   9.027  11.531
16164SOL     OW50265  12.619   4.408   4.603
16164SOL    HW150266  12.688   4.397   4.538
16164SOL    HW250267  12.564   4.478   4.567
16165SOL     OW50268   0.647   1.317   8.830
16165SOL    HW150269   0.569   1.332   8.776
16165SOL    HW250270   0.690   1.402   8.834
16166SOL     OW50271  14.627  14.019   1.973
16166SOL    HW150272  14.659  13.991   2.059
16166SOL    HW250273  14.659  13.953   1.913
16167SOL     OW50274   5.419   6.781  14.737
16167SOL    HW150275   5.426   6.851  14.672
16167SOL    HW250276   5.325   6.761  14.741
16168SOL     OW50277   5.933   7.591   2.428
16168SOL    HW150278   5.965   7.501   2.435
16168SOL    HW250279   5.881   7.604   2.508
16169SOL     OW50280   9.152  12.851  14.687
16169SOL    HW150281   9.075  12.890  14.729
16169SOL    HW250282   9.212  12.924  14.674
16170SOL     OW50283   5.219   3.112  13.374
16170SOL    HW150284   5.258   3.125  13.288
16170SOL    HW250285   5.291   3.082  13.429
16171SOL     OW50286   9.813  10.259   7.909
16171SOL    HW150287   9.801  10.233   7.818
16171SOL    HW250288   9.882  10.201   7.942
16172SOL     OW50289  13.662   0.624   8.718
16172SOL    HW150290  13.603   0.643   8.644
16172SOL    HW250291  13.630   0.541   8.753
16173SOL     OW50292   1.737   7.421  14.655
16173SOL    HW150293   1.742   7.496  14.595
16173SOL    HW250294   1.752   7.459  14.742
16174SOL     OW50295   1.694   1.268   8.040
16174SOL    HW150296   1.598   1.274   8.041
16174SOL    HW250297   1.723   1.359   8.031
16175SOL     OW50298  13.298   7.854  12.879
16175SOL    HW150299  13.305   7.906  12.959
16175SOL    HW250300  13.228   7.792  12.897
16176SOL     OW50301   3.655   2.702   8.185
16176SOL    HW150302   3.702   2.628   8.224
16176SOL    HW250303   3.691   2.710   8.097
16177SOL     OW50304   6.703  11.929   6.030
16177SOL    HW150305   6.634  11.939   6.095
16177SOL    HW250306   6.674  11.981   5.955
16178SOL     OW50307  14.694   3.363   0.359
16178SOL    HW150308  14.735   3.297   0.415
16178SOL    HW250309  14.753   3.372   0.285
16179SOL     OW50310  11.053   4.977   1.027
16179SOL    HW150311  10.996   5.049   1.054
16179SOL    HW250312  11.035   4.965   0.934
16180SOL     OW50313  12.808   4.622  12.545
16180SOL    HW150314  12.866   4.559  12.502
16180SOL    HW250315  12.815   4.701  12.492
16181SOL     OW50316   0.904   6.865  12.197
16181SOL    HW150317   0.823   6.917  12.195
16181SOL    HW250318   0.903   6.823  12.283
16182SOL     OW50319   9.640   0.007  12.573
16182SOL    HW150320   9.615  14.874  12.481
16182SOL    HW250321   9.735   0.023  12.570
16183SOL     OW50322   7.430   4.114   8.655
16183SOL    HW150323   7.478   4.121   8.737
16183SOL    HW250324   7.456   4.030   8.618
16184SOL     OW50325   0.618  12.832   7.167
16184SOL    HW150326   0.681  12.765   7.192
16184SOL    HW250327   0.543  12.783   7.133
16185SOL     OW50328  11.834   1.245  12.542
16185SOL    HW150329  11.823   1.229  12.636
16185SOL    HW250330  11.883   1.327  12.537
16186SOL     OW50331   8.889   3.213  12.834
16186SOL    HW150332   8.816   3.201  12.895
16186SOL    HW250333   8.962   3.169  12.875
16187SOL     OW50334   5.898   3.615   5.148
16187SOL    HW150335   5.914   3.709   5.161
16187SOL    HW250336   5.831   3.612   5.079
16188SOL     OW50337   3.572   2.451   0.587
16188SOL    HW150338   3.657   2.481   0.554
16188SOL    HW250339   3.574   2.356   0.578
16189SOL     OW50340  10.031  13.131   7.235
16189SOL    HW150341  10.079  13.062   7.188
16189SOL    HW250342  10.086  13.153   7.309
16190SOL     OW50343  11.646   7.900  14.402
16190SOL    HW150344  11.709   7.869  14.337
16190SOL    HW250345  11.575   7.836  14.398
16191SOL     OW50346   5.725  11.528  12.772
16191SOL    HW150347   5.790  11.460  12.790
16191SOL    HW250348   5.641  11.485  12.787
16192SOL     OW50349  13.879   7.381   9.561
16192SOL    HW150350  13.961   7.344   9.594
16192SOL    HW250351  13.894   7.476   9.562
16193SOL     OW50352   6.853  10.603   3.998
16193SOL    HW150353   6.867  10.512   3.975
16193SOL    HW250354   6.773  10.603   4.050
16194SOL     OW50355   9.818   7.883  11.175
16194SOL    HW150356   9.782   7.915  11.258
16194SOL    HW250357   9.742   7.874  11.118
16195SOL     OW50358   5.568   2.576   6.769
16195SOL    HW150359   5.658   2.607   6.768
16195SOL    HW250360   5.535   2.602   6.855
16196SOL     OW50361  10.714   9.899   6.825
16196SOL    HW150362  10.721   9.980   6.775
16196SOL    HW250363  10.774   9.911   6.898
16197SOL     OW50364   2.202  13.864   6.345
16197SOL    HW150365   2.242  13.895   6.264
16197SOL    HW250366   2.167  13.943   6.386
16198SOL     OW50367   3.230  10.002   0.505
16198SOL    HW150368   3.207  10.018   0.597
16198SOL    HW250369   3.222  10.087   0.463
16199SOL     OW50370  10.523  14.185  12.192
16199SOL    HW150371  10.570  14.240  12.255
16199SOL    HW250372  10.522  14.098  12.231
16200SOL     OW50373   0.516   2.419   5.160
16200SOL    HW150374   0.591   2.461   5.202
16200SOL    HW250375   0.441   2.473   5.186
16201SOL     OW50376  11.444   8.834   0.154
16201SOL    HW150377  11.404   8.920   0.139
16201SOL    HW250378  11.395   8.798   0.228
16202SOL     OW50379   0.983  13.055  12.657
16202SOL    HW150380   1.026  13.117  12.715
16202SOL    HW250381   0.993  12.970  12.700
16203SOL     OW50382   6.544   1.625  12.607
16203SOL    HW150383   6.611   1.620  12.539
16203SOL    HW250384   6.594   1.634  12.689
16204SOL     OW50385  12.728   7.097   3.762
16204SOL    HW150386  12.689   7.067   3.844
16204SOL    HW250387  12.796   7.159   3.789
16205SOL     OW50388   1.952   6.654   3.861
16205SOL    HW150389   1.893   6.644   3.787
16205SOL    HW250390   2.003   6.732   3.840
16206SOL     OW50391  11.931   9.075   8.411
16206SOL    HW150392  11.925   9.107   8.321
16206SOL    HW250393  11.972   9.146   8.460
16207SOL     OW50394  13.792   3.761  10.804
16207SOL    HW150395  13.779   3.756  10.898
16207SOL    HW250396  13.797   3.854  10.784
16208SOL     OW50397   3.440   3.874   3.198
16208SOL    HW150398   3.461   3.802   3.258
16208SOL    HW250399   3.344   3.872   3.191
16209SOL     OW50400   8.429  10.860   5.524
16209SOL    HW150401   8.463  10.853   5.613
16209SOL    HW250402   8.432  10.953   5.504
16210SOL     OW50403   1.129   0.475  14.693
16210SOL    HW150404   1.148   0.483  14.787
16210SOL    HW250405   1.033   0.474  14.688
16211SOL     OW50406   3.881  11.984  12.313
16211SOL    HW150407   3.905  11.921  12.245
16211SOL    HW250408   3.942  11.967  12.385
16212SOL     OW50409   0.720   9.875   9.343
16212SOL    HW150410   0.738   9.787   9.310
16212SOL    HW250411   0.783   9.887   9.415
16213SOL     OW50412   3.692   8.488  10.538
16213SOL    HW150413   3.744   8.531  10.605
16213SOL    HW250414   3.756   8.449  10.479
16214SOL     OW50415  14.855   1.993   4.160
16214SOL    HW150416   0.002   2.084   4.154
16214SOL    HW250417   0.045   1.949   4.206
16215SOL     OW50418   7.618   8.485   7.420
16215SOL    HW150419   7.548   8.424   7.442
16215SOL    HW250420   7.698   8.432   7.422
16216SOL     OW50421   5.657   4.767  11.720
16216SOL    HW150422   5.607   4.760  11.802
16216SOL    HW250423   5.595   4.805  11.657
16217SOL     OW50424   0.805   8.494  14.637
16217SOL    HW150425   0.872   8.562  14.641
16217SOL    HW250426   0.735   8.525  14.695
16218SOL     OW50427  10.615   5.448  14.867
16218SOL    HW150428  10.584   5.400  14.791
16218SOL    HW250429  10.633   5.536  14.834
16219SOL     OW50430  12.052  13.539   8.594
16219SOL    HW150431  12.127  13.560   8.539
16219SOL    HW250432  11.976  13.543   8.535
16220SOL     OW50433  10.142  13.157   0.838
16220SOL    HW150434  10.194  13.140   0.917
16220SOL    HW250435  10.187  13.107   0.770
16221SOL     OW50436  10.889  10.166   8.338
16221SOL    HW150437  10.924  10.225   8.271
16221SOL    HW250438  10.826  10.220   8.386
16222SOL     OW50439   6.318   0.583  10.666
16222SOL    HW150440   6.338   0.595  10.759
16222SOL    HW250441   6.290   0.669  10.636
16223SOL     OW50442   4.491   3.453   7.072
16223SOL    HW150443   4.421   3.500   7.118
16223SOL    HW250444   4.464   3.361   7.076
16224SOL     OW50445   1.636   7.933   3.526
16224SOL    HW150446   1.597   7.964   3.444
16224SOL    HW250447   1.564   7.891   3.573
16225SOL     OW50448  14.067   8.317   1.168
16225SOL    HW150449  14.136   8.279   1.114
16225SOL    HW250450  14.112   8.347   1.247
16226SOL     OW50451   7.286  11.135   7.150
16226SOL    HW150452   7.237  11.112   7.229
16226SOL    HW250453   7.355  11.194   7.181
16227SOL     OW50454   3.249   7.794   2.003
16227SOL    HW150455   3.210   7.754   2.080
16227SOL    HW250456   3.220   7.885   2.004
16228SOL     OW50457   4.665  11.198   7.153
16228SOL    HW150458   4.580  11.167   7.184
16228SOL    HW250459   4.646  11.280   7.109
16229SOL     OW50460  14.241   5.797   1.680
16229SOL    HW150461  14.271   5.706   1.686
16229SOL    HW250462  14.155   5.791   1.639
16230SOL     OW50463   3.373   1.262   4.645
16230SOL    HW150464   3.349   1.171   4.626
16230SOL    HW250465   3.451   1.278   4.592
16231SOL     OW50466   8.219   9.227   9.404
16231SOL    HW150467   8.185   9.197   9.320
16231SOL    HW250468   8.236   9.320   9.391
16232SOL     OW50469   4.187  11.497   9.003
16232SOL    HW150470   4.282  11.485   9.006
16232SOL    HW250471   4.152  11.408   9.010
16233SOL     OW50472   5.679   9.647   1.265
16233SOL    HW150473   5.772   9.646   1.289
16233SOL    HW250474   5.633   9.664   1.347
16234SOL     OW50475   5.902   7.801   5.896
16234SOL    HW150476   5.994   7.804   5.870
16234SOL    HW250477   5.893   7.871   5.961
16235SOL     OW50478   4.720  10.325  11.096
16235SOL    HW150479   4.686  10.364  11.176
16235SOL    HW250480   4.740  10.400  11.039
16236SOL     OW50481   6.913   2.366   1.431
16236SOL    HW150482   6.831   2.323   1.404
16236SOL    HW250483   6.966   2.365   1.351
16237SOL     OW50484   2.650  11.889  11.182
16237SOL    HW150485   2.716  11.831  11.143
16237SOL    HW250486   2.699  11.939  11.248
16238SOL     OW50487   2.924   7.815  10.847
16238SOL    HW150488   2.897   7.851  10.763
16238SOL    HW250489   2.946   7.724  10.829
16239SOL     OW50490   3.082   2.806  11.594
16239SOL    HW150491   3.118   2.894  11.597
16239SOL    HW250492   2.994   2.817  11.559
16240SOL     OW50493   6.312   5.986   4.079
16240SOL    HW150494   6.239   5.933   4.110
16240SOL    HW250495   6.276   6.037   4.006
16241SOL     OW50496   9.904   7.846   2.124
16241SOL    HW150497   9.869   7.933   2.145
16241SOL    HW250498   9.976   7.833   2.186
16242SOL     OW50499   9.784  12.027   3.223
16242SOL    HW150500   9.768  11.979   3.142
16242SOL    HW250501   9.796  12.118   3.195
16243SOL     OW50502  14.066   7.429   1.585
16243SOL    HW150503  13.998   7.491   1.611
16243SOL    HW250504  14.114   7.473   1.515
16244SOL     OW50505   8.324  11.393   1.142
16244SOL    HW150506   8.244  11.350   1.114
16244SOL    HW250507   8.319  11.392   1.238
16245SOL     OW50508   3.886  11.392   5.983
16245SOL    HW150509   3.900  11.484   6.004
16245SOL    HW250510   3.794  11.376   6.004
16246SOL     OW50511   2.118   0.382   9.760
16246SOL    HW150512   2.135   0.320   9.831
16246SOL    HW250513   2.197   0.378   9.706
16247SOL     OW50514   1.669  13.504   5.753
16247SOL    HW150515   1.622  13.531   5.674
16247SOL    HW250516   1.604  13.506   5.822
16248SOL     OW50517  11.606  14.192   4.297
16248SOL    HW150518  11.700  14.207   4.304
16248SOL    HW250519  11.598  14.100   4.271
16249SOL     OW50520   0.766   7.620   6.657
16249SOL    HW150521   0.858   7.642   6.672
16249SOL    HW250522   0.735   7.587   6.741
16250SOL     OW50523   1.841   3.151  13.340
16250SOL    HW150524   1.771   3.217  13.344
16250SOL    HW250525   1.903   3.186  13.277
16251SOL     OW50526   8.691   0.652   7.040
16251SOL    HW150527   8.667   0.687   6.954
16251SOL    HW250528   8.621   0.590   7.060
16252SOL     OW50529   9.395   6.588  11.684
16252SOL    HW150530   9.336   6.619  11.753
16252SOL    HW250531   9.359   6.624  11.603
16253SOL     OW50532   9.780   2.498  14.171
16253SOL    HW150533   9.707   2.536  14.219
16253SOL    HW250534   9.740   2.457  14.094
16254SOL     OW50535  14.028  12.540   6.637
16254SOL    HW150536  14.009  12.559   6.545
16254SOL    HW250537  14.088  12.610   6.664
16255SOL     OW50538   3.248   4.586   9.343
16255SOL    HW150539   3.203   4.621   9.266
16255SOL    HW250540   3.298   4.511   9.309
16256SOL     OW50541   2.258   2.245   6.221
16256SOL    HW150542   2.171   2.223   6.256
16256SOL    HW250543   2.317   2.235   6.296
16257SOL     OW50544  14.769   1.241   0.486
16257SOL    HW150545  14.850   1.269   0.529
16257SOL    HW250546  14.754   1.308   0.419
16258SOL     OW50547  14.011   7.666   0.705
16258SOL    HW150548  13.916   7.672   0.700
16258SOL    HW250549  14.040   7.753   0.731
16259SOL     OW50550  13.725   2.186   1.471
16259SOL    HW150551  13.632   2.207   1.461
16259SOL    HW250552  13.761   2.197   1.383
16260SOL     OW50553   8.025   8.974   9.113
16260SOL    HW150554   8.116   8.963   9.139
16260SOL    HW250555   8.016   9.069   9.098
16261SOL     OW50556   3.083  10.463  10.659
16261SOL    HW150557   3.088  10.545  10.609
16261SOL    HW250558   3.160  10.465  10.715
16262SOL     OW50559   5.114   7.581   8.293
16262SOL    HW150560   5.207   7.558   8.297
16262SOL    HW250561   5.098   7.597   8.200
16263SOL     OW50562   9.879  14.726  10.954
16263SOL    HW150563   9.932  14.722  10.874
16263SOL    HW250564   9.845  14.637  10.965
16264SOL     OW50565  14.249  12.426  13.173
16264SOL    HW150566  14.315  12.487  13.205
16264SOL    HW250567  14.274  12.342  13.212
16265SOL     OW50568   2.629   8.532   6.344
16265SOL    HW150569   2.724   8.517   6.348
16265SOL    HW250570   2.620   8.627   6.342
16266SOL     OW50571   2.670  11.385   5.056
16266SOL    HW150572   2.691  11.374   4.963
16266SOL    HW250573   2.731  11.452   5.087
16267SOL     OW50574  10.971   0.425   1.741
16267SOL    HW150575  10.950   0.499   1.798
16267SOL    HW250576  10.988   0.465   1.655
16268SOL     OW50577   4.302   3.015   8.125
16268SOL    HW150578   4.297   2.951   8.054
16268SOL    HW250579   4.391   3.005   8.159
16269SOL     OW50580   5.860   6.795  11.751
16269SOL    HW150581   5.931   6.838  11.799
16269SOL    HW250582   5.795   6.773  11.818
16270SOL     OW50583   9.209  12.975  14.019
16270SOL    HW150584   9.293  12.975  14.065
16270SOL    HW250585   9.195  13.066  13.994
16271SOL     OW50586   5.301  14.740  10.132
16271SOL    HW150587   5.291  14.673  10.199
16271SOL    HW250588   5.389  14.727  10.097
16272SOL     OW50589   7.599   6.649   9.389
16272SOL    HW150590   7.694   6.649   9.382
16272SOL    HW250591   7.573   6.740   9.375
16273SOL     OW50592   8.125   0.226   2.335
16273SOL    HW150593   8.140   0.288   2.407
16273SOL    HW250594   8.031   0.234   2.316
16274SOL     OW50595   9.768   9.246   0.677
16274SOL    HW150596   9.786   9.270   0.768
16274SOL    HW250597   9.680   9.282   0.660
16275SOL     OW50598   8.296   2.912   7.468
16275SOL    HW150599   8.357   2.839   7.472
16275SOL    HW250600   8.280   2.936   7.559
16276SOL     OW50601   0.681  11.425  14.799
16276SOL    HW150602   0.615  11.363  14.828
16276SOL    HW250603   0.632  11.503  14.772
16277SOL     OW50604   6.461  14.312  13.210
16277SOL    HW150605   6.526  14.244  13.192
16277SOL    HW250606   6.448  14.309  13.304
16278SOL     OW50607   5.931   8.987  10.127
16278SOL    HW150608   5.990   9.059  10.103
16278SOL    HW250609   5.857   8.996  10.067
16279SOL     OW50610   2.356   3.369   9.836
16279SOL    HW150611   2.314   3.432   9.778
16279SOL    HW250612   2.448   3.370   9.809
16280SOL     OW50613   5.750  12.790  13.599
16280SOL    HW150614   5.670  12.744  13.626
16280SOL    HW250615   5.783  12.738  13.525
16281SOL     OW50616  14.042   5.572   0.720
16281SOL    HW150617  14.116   5.608   0.671
16281SOL    HW250618  14.076   5.493   0.761
16282SOL     OW50619   9.970   7.553   8.605
16282SOL    HW150620  10.049   7.603   8.624
16282SOL    HW250621   9.949   7.508   8.686
16283SOL     OW50622   9.283   1.601  13.736
16283SOL    HW150623   9.378   1.607  13.725
16283SOL    HW250624   9.257   1.528  13.680
16284SOL     OW50625  10.319   0.250  12.527
16284SOL    HW150626  10.308   0.309  12.602
16284SOL    HW250627  10.303   0.306  12.451
16285SOL     OW50628  10.753   4.069  12.911
16285SOL    HW150629  10.659   4.083  12.920
16285SOL    HW250630  10.790   4.106  12.991
16286SOL     OW50631  10.261   0.890   6.060
16286SOL    HW150632  10.237   0.959   5.998
16286SOL    HW250633  10.198   0.820   6.044
16287SOL     OW50634  14.355   3.282   7.648
16287SOL    HW150635  14.337   3.206   7.704
16287SOL    HW250636  14.276   3.335   7.653
16288SOL     OW50637  12.976   3.513  10.215
16288SOL    HW150638  12.980   3.422  10.185
16288SOL    HW250639  12.916   3.512  10.289
16289SOL     OW50640  10.834   8.402  10.584
16289SOL    HW150641  10.789   8.457  10.520
16289SOL    HW250642  10.763   8.358  10.631
16290SOL     OW50643   2.539  14.313   0.874
16290SOL    HW150644   2.553  14.219   0.887
16290SOL    HW250645   2.627  14.351   0.879
16291SOL     OW50646   1.627   0.847   3.977
16291SOL    HW150647   1.658   0.881   4.061
16291SOL    HW250648   1.620   0.925   3.921
16292SOL     OW50649   6.174   9.218  13.347
16292SOL    HW150650   6.202   9.282  13.413
16292SOL    HW250651   6.132   9.148  13.398
16293SOL     OW50652   6.109   6.573   7.948
16293SOL    HW150653   6.052   6.504   7.982
16293SOL    HW250654   6.081   6.584   7.857
16294SOL     OW50655   3.943   1.512   3.804
16294SOL    HW150656   3.962   1.551   3.719
16294SOL    HW250657   3.850   1.489   3.800
16295SOL     OW50658   8.278   1.322   9.467
16295SOL    HW150659   8.207   1.298   9.408
16295SOL    HW250660   8.320   1.239   9.489
16296SOL     OW50661   3.549   6.518   0.069
16296SOL    HW150662   3.528   6.608   0.042
16296SOL    HW250663   3.465   6.481   0.096
16297SOL     OW50664   8.889   8.053   8.321
16297SOL    HW150665   8.926   7.980   8.273
16297SOL    HW250666   8.888   8.024   8.413
16298SOL     OW50667  14.633  11.507   6.243
16298SOL    HW150668  14.653  11.581   6.301
16298SOL    HW250669  14.585  11.546   6.170
16299SOL     OW50670   8.018  11.997  10.357
16299SOL    HW150671   8.054  11.969  10.442
16299SOL    HW250672   8.087  12.051  10.319
16300SOL     OW50673   2.191   8.902   5.767
16300SOL    HW150674   2.229   8.935   5.686
16300SOL    HW250675   2.120   8.844   5.739
16301SOL     OW50676  10.331  13.743   4.915
16301SOL    HW150677  10.295  13.832   4.911
16301SOL    HW250678  10.400  13.747   4.981
16302SOL     OW50679   2.816   2.612   1.773
16302SOL    HW150680   2.746   2.648   1.718
16302SOL    HW250681   2.835   2.526   1.735
16303SOL     OW50682  13.249   9.722   3.693
16303SOL    HW150683  13.253   9.711   3.788
16303SOL    HW250684  13.287   9.641   3.659
16304SOL     OW50685  11.592   1.780   8.851
16304SOL    HW150686  11.560   1.837   8.921
16304SOL    HW250687  11.651   1.835   8.800
16305SOL     OW50688  13.772  10.774   1.446
16305SOL    HW150689  13.756  10.863   1.478
16305SOL    HW250690  13.840  10.784   1.379
16306SOL     OW50691   2.868   0.548   0.748
16306SOL    HW150692   2.943   0.488   0.753
16306SOL    HW250693   2.852   0.558   0.655
16307SOL     OW50694   0.496   0.786  13.178
16307SOL    HW150695   0.483   0.751  13.091
16307SOL    HW250696   0.423   0.848  13.190
16308SOL     OW50697   4.816   0.811  10.877
16308SOL    HW150698   4.828   0.844  10.966
16308SOL    HW250699   4.862   0.875  10.822
16309SOL     OW50700   5.310   0.520   9.543
16309SOL    HW150701   5.271   0.587   9.598
16309SOL    HW250702   5.246   0.448   9.544
16310SOL     OW50703   9.993  14.018   6.592
16310SOL    HW150704  10.066  13.957   6.603
16310SOL    HW250705   9.992  14.038   6.499
16311SOL     OW50706   3.803   8.675  11.786
16311SOL    HW150707   3.877   8.698  11.729
16311SOL    HW250708   3.776   8.588  11.756
16312SOL     OW50709  13.844   9.955  11.443
16312SOL    HW150710  13.860   9.873  11.491
16312SOL    HW250711  13.916   9.959  11.380
16313SOL     OW50712  13.728  11.539   3.201
16313SOL    HW150713  13.713  11.622   3.246
16313SOL    HW250714  13.738  11.564   3.109
16314SOL     OW50715   5.712   5.981   7.223
16314SOL    HW150716   5.716   6.029   7.140
16314SOL    HW250717   5.679   5.895   7.200
16315SOL     OW50718   0.719   1.874  14.490
16315SOL    HW150719   0.673   1.792  14.477
16315SOL    HW250720   0.760   1.892  14.406
16316SOL     OW50721   7.699   4.053   5.960
16316SOL    HW150722   7.724   3.981   6.017
16316SOL    HW250723   7.683   4.127   6.019
16317SOL     OW50724   1.525   6.419  12.245
16317SOL    HW150725   1.430   6.426  12.243
16317SOL    HW250726   1.556   6.509  12.249
16318SOL     OW50727  11.163  13.567   0.609
16318SOL    HW150728  11.069  13.554   0.603
16318SOL    HW250729  11.192  13.579   0.518
16319SOL     OW50730   8.097  12.784   6.830
16319SOL    HW150731   8.162  12.845   6.796
16319SOL    HW250732   8.144  12.701   6.839
16320SOL     OW50733   2.209   2.260   9.467
16320SOL    HW150734   2.298   2.246   9.499
16320SOL    HW250735   2.172   2.323   9.528
16321SOL     OW50736  14.754   7.777  14.189
16321SOL    HW150737  14.717   7.726  14.261
16321SOL    HW250738  14.684   7.838  14.165
16322SOL     OW50739   3.237   5.811   9.962
16322SOL    HW150740   3.292   5.743   9.924
16322SOL    HW250741   3.292   5.853  10.028
16323SOL     OW50742   4.662  11.401   9.554
16323SOL    HW150743   4.690  11.414   9.463
16323SOL    HW250744   4.711  11.324   9.583
16324SOL     OW50745   9.604   7.437  13.794
16324SOL    HW150746   9.514   7.436  13.761
16324SOL    HW250747   9.653   7.487  13.729
16325SOL     OW50748   0.167  14.767   5.981
16325SOL    HW150749   0.247  14.748   6.031
16325SOL    HW250750   0.174  14.860   5.960
16326SOL     OW50751   3.683   6.195   7.126
16326SOL    HW150752   3.754   6.247   7.088
16326SOL    HW250753   3.646   6.251   7.194
16327SOL     OW50754   8.878   4.927   7.611
16327SOL    HW150755   8.854   4.996   7.674
16327SOL    HW250756   8.803   4.867   7.611
16328SOL     OW50757   8.675  10.607   9.129
16328SOL    HW150758   8.599  10.551   9.113
16328SOL    HW250759   8.659  10.686   9.078
16329SOL     OW50760   0.947   3.736   6.593
16329SOL    HW150761   0.869   3.769   6.549
16329SOL    HW250762   0.925   3.646   6.617
16330SOL     OW50763   5.829  13.843  12.584
16330SOL    HW150764   5.789  13.812  12.664
16330SOL    HW250765   5.810  13.937  12.582
16331SOL     OW50766   6.476   1.837   4.437
16331SOL    HW150767   6.501   1.772   4.502
16331SOL    HW250768   6.489   1.792   4.353
16332SOL     OW50769   1.512   7.770   6.075
16332SOL    HW150770   1.534   7.819   6.154
16332SOL    HW250771   1.453   7.828   6.027
16333SOL     OW50772   1.097  10.525   4.370
16333SOL    HW150773   1.014  10.555   4.333
16333SOL    HW250774   1.083  10.528   4.465
16334SOL     OW50775  12.781  11.393  12.408
16334SOL    HW150776  12.822  11.336  12.474
16334SOL    HW250777  12.738  11.332  12.348
16335SOL     OW50778  11.589  14.275   1.043
16335SOL    HW150779  11.599  14.311   0.954
16335SOL    HW250780  11.672  14.231   1.060
16336SOL     OW50781   4.279   7.758  12.578
16336SOL    HW150782   4.281   7.678  12.526
16336SOL    HW250783   4.186   7.776  12.591
16337SOL     OW50784  14.506   0.559   7.905
16337SOL    HW150785  14.451   0.633   7.931
16337SOL    HW250786  14.572   0.597   7.848
16338SOL     OW50787   3.805   5.137  10.479
16338SOL    HW150788   3.790   5.222  10.437
16338SOL    HW250789   3.728   5.084  10.456
16339SOL     OW50790  11.833   3.765   9.481
16339SOL    HW150791  11.863   3.851   9.452
16339SOL    HW250792  11.761   3.744   9.421
16340SOL     OW50793   4.226  12.401   5.618
16340SOL    HW150794   4.143  12.378   5.577
16340SOL    HW250795   4.259  12.318   5.653
16341SOL     OW50796  11.020   5.785  14.368
16341SOL    HW150797  10.993   5.715  14.427
16341SOL    HW250798  10.942   5.802  14.314
16342SOL     OW50799   5.163   2.867  10.911
16342SOL    HW150800   5.127   2.803  10.972
16342SOL    HW250801   5.226   2.817  10.859
16343SOL     OW50802  11.394   3.358   7.849
16343SOL    HW150803  11.323   3.418   7.828
16343SOL    HW250804  11.472   3.400   7.813
16344SOL     OW50805   3.916   8.260  14.043
16344SOL    HW150806   3.964   8.179  14.029
16344SOL    HW250807   3.960   8.325  13.988
16345SOL     OW50808  11.184   7.342  12.742
16345SOL    HW150809  11.235   7.415  12.707
16345SOL    HW250810  11.185   7.277  12.672
16346SOL     OW50811  12.378   7.788  13.264
16346SOL    HW150812  12.348   7.703  13.298
16346SOL    HW250813  12.357   7.850  13.334
16347SOL     OW50814   7.397   0.582   0.564
16347SOL    HW150815   7.473   0.633   0.592
16347SOL    HW250816   7.328   0.647   0.551
16348SOL     OW50817   8.384   4.497  10.762
16348SOL    HW150818   8.390   4.552  10.684
16348SOL    HW250819   8.305   4.526  10.807
16349SOL     OW50820   4.389   1.129   3.952
16349SOL    HW150821   4.335   1.057   3.982
16349SOL    HW250822   4.470   1.121   4.001
16350SOL     OW50823   7.493  10.758  10.629
16350SOL    HW150824   7.468  10.807  10.551
16350SOL    HW250825   7.430  10.787  10.696
16351SOL     OW50826   5.956   3.446  14.398
16351SOL    HW150827   5.999   3.520  14.356
16351SOL    HW250828   5.873   3.436  14.350
16352SOL     OW50829   8.107   3.075   9.215
16352SOL    HW150830   8.161   3.062   9.137
16352SOL    HW250831   8.030   3.123   9.184
16353SOL     OW50832   4.797   2.349   8.765
16353SOL    HW150833   4.768   2.334   8.855
16353SOL    HW250834   4.774   2.268   8.719
16354SOL     OW50835   3.186  13.887  13.361
16354SOL    HW150836   3.176  13.869  13.455
16354SOL    HW250837   3.125  13.958  13.344
16355SOL     OW50838  12.263  13.294  10.603
16355SOL    HW150839  12.239  13.318  10.692
16355SOL    HW250840  12.263  13.198  10.604
16356SOL     OW50841   7.744   0.559   1.901
16356SOL    HW150842   7.774   0.568   1.992
16356SOL    HW250843   7.680   0.488   1.904
16357SOL     OW50844   0.036   1.582   9.234
16357SOL    HW150845   0.021   1.488   9.229
16357SOL    HW250846   0.022   1.604   9.326
16358SOL     OW50847   6.841   2.455   6.709
16358SOL    HW150848   6.834   2.424   6.799
16358SOL    HW250849   6.903   2.395   6.667
16359SOL     OW50850   1.685   7.219   6.511
16359SOL    HW150851   1.698   7.296   6.455
16359SOL    HW250852   1.735   7.238   6.590
16360SOL     OW50853   3.198   4.696   4.554
16360SOL    HW150854   3.195   4.783   4.592
16360SOL    HW250855   3.162   4.639   4.622
16361SOL     OW50856  11.939   4.979   4.017
16361SOL    HW150857  11.933   5.038   3.942
16361SOL    HW250858  11.848   4.954   4.035
16362SOL     OW50859   7.480   3.333   2.915
16362SOL    HW150860   7.492   3.278   2.837
16362SOL    HW250861   7.558   3.317   2.968
16363SOL     OW50862  11.475  12.285   6.721
16363SOL    HW150863  11.491  12.270   6.628
16363SOL    HW250864  11.434  12.371   6.725
16364SOL     OW50865   1.654   6.466  14.784
16364SOL    HW150866   1.672   6.372  14.790
16364SOL    HW250867   1.664   6.499  14.873
16365SOL     OW50868  13.685  11.851   5.989
16365SOL    HW150869  13.753  11.848   6.056
16365SOL    HW250870  13.644  11.764   5.992
16366SOL     OW50871   5.508   3.783   9.434
16366SOL    HW150872   5.460   3.721   9.490
16366SOL    HW250873   5.525   3.734   9.353
16367SOL     OW50874   5.280  10.482  14.850
16367SOL    HW150875   5.279  10.570   0.006
16367SOL    HW250876   5.271  10.496  14.756
16368SOL     OW50877   1.206   9.244   0.007
16368SOL    HW150878   1.237   9.182   0.074
16368SOL    HW250879   1.223   9.330   0.044
16369SOL     OW50880   3.011   1.498   5.683
16369SOL    HW150881   3.085   1.558   5.684
16369SOL    HW250882   3.049   1.414   5.657
16370SOL     OW50883  10.518   7.173  13.119
16370SOL    HW150884  10.488   7.263  13.126
16370SOL    HW250885  10.486   7.130  13.198
16371SOL     OW50886   9.771   7.771   4.439
16371SOL    HW150887   9.844   7.815   4.482
16371SOL    HW250888   9.693   7.799   4.488
16372SOL     OW50889   9.100  12.335   4.457
16372SOL    HW150890   9.019  12.355   4.409
16372SOL    HW250891   9.147  12.274   4.400
16373SOL     OW50892  11.591   3.270  13.945
16373SOL    HW150893  11.513   3.214  13.940
16373SOL    HW250894  11.571   3.331  14.015
16374SOL     OW50895   2.200   1.545  10.197
16374SOL    HW150896   2.155   1.479  10.250
16374SOL    HW250897   2.264   1.496  10.146
16375SOL     OW50898  10.306   6.286  12.640
16375SOL    HW150899  10.211   6.301  12.640
16375SOL    HW250900  10.317   6.202  12.595
16376SOL     OW50901   5.917   9.796   7.096
16376SOL    HW150902   5.928   9.819   7.189
16376SOL    HW250903   5.993   9.742   7.076
16377SOL     OW50904   4.542  14.270   5.218
16377SOL    HW150905   4.473  14.210   5.190
16377SOL    HW250906   4.573  14.233   5.301
16378SOL     OW50907   5.550   3.226  11.644
16378SOL    HW150908   5.525   3.307  11.687
16378SOL    HW250909   5.578   3.253  11.556
16379SOL     OW50910   9.355   6.523   1.782
16379SOL    HW150911   9.386   6.440   1.820
16379SOL    HW250912   9.259   6.518   1.790
16380SOL     OW50913   2.918   7.511  10.528
16380SOL    HW150914   2.857   7.580  10.502
16380SOL    HW250915   2.864   7.444  10.570
16381SOL     OW50916  13.917   0.608  10.630
16381SOL    HW150917  13.898   0.519  10.657
16381SOL    HW250918  13.974   0.599  10.553
16382SOL     OW50919   6.899   8.198  13.522
16382SOL    HW150920   6.804   8.198  13.509
16382SOL    HW250921   6.934   8.159  13.442
16383SOL     OW50922   8.619   6.081  12.183
16383SOL    HW150923   8.529   6.105  12.201
16383SOL    HW250924   8.632   6.104  12.091
16384SOL     OW50925   0.775   8.176  11.950
16384SOL    HW150926   0.722   8.113  11.901
16384SOL    HW250927   0.826   8.222  11.883
16385SOL     OW50928  10.436  11.371   6.167
16385SOL    HW150929  10.468  11.284   6.142
16385SOL    HW250930  10.514  11.425   6.171
16386SOL     OW50931  12.534   6.855   6.181
16386SOL    HW150932  12.567   6.896   6.260
16386SOL    HW250933  12.525   6.763   6.203
16387SOL     OW50934   1.152  14.358  10.152
16387SOL    HW150935   1.089  14.300  10.109
16387SOL    HW250936   1.100  14.432  10.181
16388SOL     OW50937  10.356   5.862  13.637
16388SOL    HW150938  10.422   5.830  13.576
16388SOL    HW250939  10.402   5.928  13.690
16389SOL     OW50940   3.242  10.300   8.520
16389SOL    HW150941   3.277  10.367   8.579
16389SOL    HW250942   3.315  10.240   8.505
16390SOL     OW50943  10.208   5.366   4.410
16390SOL    HW150944  10.172   5.291   4.363
16390SOL    HW250945  10.292   5.335   4.444
16391SOL     OW50946   0.571   0.672   6.330
16391SOL    HW150947   0.600   0.761   6.308
16391SOL    HW250948   0.645   0.633   6.377
16392SOL     OW50949  13.190  10.442   0.399
16392SOL    HW150950  13.261  10.423   0.460
16392SOL    HW250951  13.153  10.525   0.430
16393SOL     OW50952   0.963   8.253   7.529
16393SOL    HW150953   0.896   8.300   7.580
16393SOL    HW250954   0.915   8.184   7.484
16394SOL     OW50955   6.579  13.654  14.500
16394SOL    HW150956   6.614  13.579  14.548
16394SOL    HW250957   6.614  13.730  14.545
16395SOL     OW50958  11.048   4.394   8.824
16395SOL    HW150959  10.956   4.418   8.835
16395SOL    HW250960  11.096   4.475   8.839
16396SOL     OW50961   2.294   2.213   5.584
16396SOL    HW150962   2.352   2.149   5.544
16396SOL    HW250963   2.235   2.161   5.638
16397SOL     OW50964   6.445  13.964   9.954
16397SOL    HW150965   6.432  13.870   9.940
16397SOL    HW250966   6.400  14.005   9.881
16398SOL     OW50967  13.607  10.848   5.370
16398SOL    HW150968  13.698  10.867   5.393
16398SOL    HW250969  13.555  10.896   5.434
16399SOL     OW50970   6.314  13.876   5.590
16399SOL    HW150971   6.284  13.863   5.680
16399SOL    HW250972   6.283  13.798   5.543
16400SOL     OW50973   3.887   5.774   0.167
16400SOL    HW150974   3.962   5.828   0.142
16400SOL    HW250975   3.819   5.838   0.188
16401SOL     OW50976   1.248   9.754   0.987
16401SOL    HW150977   1.234   9.766   1.081
16401SOL    HW250978   1.267   9.660   0.977
16402SOL     OW50979  14.241  10.633   1.637
16402SOL    HW150980  14.291  10.659   1.560
16402SOL    HW250981  14.280  10.550   1.664
16403SOL     OW50982  13.756   2.886  13.341
16403SOL    HW150983  13.722   2.802  13.312
16403SOL    HW250984  13.775   2.873  13.434
16404SOL     OW50985   8.994   2.313   9.746
16404SOL    HW150986   9.036   2.392   9.712
16404SOL    HW250987   8.903   2.321   9.720
16405SOL     OW50988   9.826   7.816   1.709
16405SOL    HW150989   9.746   7.767   1.727
16405SOL    HW250990   9.807   7.862   1.627
16406SOL     OW50991   7.121   5.199   2.047
16406SOL    HW150992   7.034   5.161   2.042
16406SOL    HW250993   7.129   5.227   2.139
16407SOL     OW50994   0.544   5.452   4.522
16407SOL    HW150995   0.525   5.531   4.471
16407SOL    HW250996   0.584   5.485   4.603
16408SOL     OW50997   4.800   6.537   7.533
16408SOL    HW150998   4.759   6.503   7.454
16408SOL    HW250999   4.806   6.461   7.591
16409SOL     OW51000  11.095   0.313   2.716
16409SOL    HW151001  11.166   0.251   2.735
16409SOL    HW251002  11.025   0.288   2.777
16410SOL     OW51003   5.094   1.029   7.147
16410SOL    HW151004   5.141   1.009   7.228
16410SOL    HW251005   5.147   0.989   7.078
16411SOL     OW51006   5.245   7.381   0.747
16411SOL    HW151007   5.264   7.432   0.669
16411SOL    HW251008   5.150   7.383   0.754
16412SOL     OW51009   1.417   0.314   4.816
16412SOL    HW151010   1.360   0.272   4.881
16412SOL    HW251011   1.407   0.259   4.738
16413SOL     OW51012   3.405   4.444   2.979
16413SOL    HW151013   3.475   4.509   2.988
16413SOL    HW251014   3.327   4.497   2.960
16414SOL     OW51015  10.297   6.322   9.757
16414SOL    HW151016  10.278   6.278   9.839
16414SOL    HW251017  10.211   6.338   9.717
16415SOL     OW51018  13.858   7.752   4.029
16415SOL    HW151019  13.837   7.676   3.976
16415SOL    HW251020  13.948   7.737   4.058
16416SOL     OW51021   4.029  11.900  12.548
16416SOL    HW151022   3.977  11.929  12.623
16416SOL    HW251023   4.100  11.849  12.586
16417SOL     OW51024   8.920  11.636  10.167
16417SOL    HW151025   8.973  11.707  10.203
16417SOL    HW251026   8.911  11.657  10.074
16418SOL     OW51027  12.451   5.050   7.233
16418SOL    HW151028  12.525   5.061   7.173
16418SOL    HW251029  12.382   5.106   7.197
16419SOL     OW51030   7.874  14.641   3.082
16419SOL    HW151031   7.962  14.603   3.090
16419SOL    HW251032   7.869  14.669   2.990
16420SOL     OW51033   7.460   0.334   8.253
16420SOL    HW151034   7.506   0.330   8.170
16420SOL    HW251035   7.367   0.334   8.230
16421SOL     OW51036   6.912  12.964  13.162
16421SOL    HW151037   6.911  12.939  13.255
16421SOL    HW251038   6.866  13.049  13.160
16422SOL     OW51039  13.154   3.115  11.979
16422SOL    HW151040  13.215   3.184  11.954
16422SOL    HW251041  13.129   3.136  12.069
16423SOL     OW51042   3.293   1.339   2.554
16423SOL    HW151043   3.214   1.311   2.508
16423SOL    HW251044   3.310   1.427   2.522
16424SOL     OW51045   9.428   1.729  14.156
16424SOL    HW151046   9.476   1.699  14.233
16424SOL    HW251047   9.488   1.712  14.083
16425SOL     OW51048   0.610   6.306   1.147
16425SOL    HW151049   0.584   6.371   1.212
16425SOL    HW251050   0.542   6.310   1.080
16426SOL     OW51051   3.168  12.637  11.235
16426SOL    HW151052   3.160  12.543  11.252
16426SOL    HW251053   3.262  12.653  11.228
16427SOL     OW51054   4.356   3.529   9.666
16427SOL    HW151055   4.353   3.451   9.722
16427SOL    HW251056   4.408   3.592   9.716
16428SOL     OW51057  11.940   1.774  11.104
16428SOL    HW151058  12.018   1.765  11.158
16428SOL    HW251059  11.973   1.799  11.018
16429SOL     OW51060   2.692   8.787  10.674
16429SOL    HW151061   2.604   8.765  10.707
16429SOL    HW251062   2.678   8.807  10.582
16430SOL     OW51063   7.667   6.655  11.833
16430SOL    HW151064   7.721   6.734  11.832
16430SOL    HW251065   7.711   6.595  11.773
16431SOL     OW51066   9.922  13.084  11.404
16431SOL    HW151067   9.854  13.065  11.340
16431SOL    HW251068   9.875  13.112  11.482
16432SOL     OW51069   7.773   8.948  12.263
16432SOL    HW151070   7.787   8.853  12.258
16432SOL    HW251071   7.699   8.964  12.204
16433SOL     OW51072  13.898  13.663   8.847
16433SOL    HW151073  13.847  13.588   8.818
16433SOL    HW251074  13.964  13.626   8.906
16434SOL     OW51075   5.358   4.560   3.230
16434SOL    HW151076   5.363   4.585   3.322
16434SOL    HW251077   5.265   4.547   3.213
16435SOL     OW51078  10.482   6.196   8.939
16435SOL    HW151079  10.536   6.272   8.915
16435SOL    HW251080  10.419   6.189   8.867
16436SOL     OW51081   7.815   9.748  14.712
16436SOL    HW151082   7.730   9.776  14.680
16436SOL    HW251083   7.874   9.759  14.638
16437SOL     OW51084   8.916  10.688  12.052
16437SOL    HW151085   8.883  10.628  12.119
16437SOL    HW251086   9.005  10.658  12.035
16438SOL     OW51087   6.553   0.681   2.004
16438SOL    HW151088   6.633   0.629   2.003
16438SOL    HW251089   6.483   0.616   1.995
16439SOL     OW51090   0.962   2.988  12.536
16439SOL    HW151091   0.969   3.077  12.502
16439SOL    HW251092   1.036   2.942  12.499
16440SOL     OW51093   6.548   0.951  12.818
16440SOL    HW151094   6.578   0.876  12.765
16440SOL    HW251095   6.582   1.028  12.772
16441SOL     OW51096  14.279  13.937  11.101
16441SOL    HW151097  14.338  13.894  11.040
16441SOL    HW251098  14.208  13.972  11.046
16442SOL     OW51099  13.325   1.927   0.372
16442SOL    HW151100  13.258   1.866   0.403
16442SOL    HW251101  13.287   2.013   0.384
16443SOL     OW51102   8.492  10.860   9.823
16443SOL    HW151103   8.502  10.783   9.879
16443SOL    HW251104   8.410  10.844   9.775
16444SOL     OW51105   1.553   2.768   9.188
16444SOL    HW151106   1.594   2.728   9.265
16444SOL    HW251107   1.461   2.745   9.195
16445SOL     OW51108   4.272  12.687  10.077
16445SOL    HW151109   4.181  12.660  10.085
16445SOL    HW251110   4.321  12.605  10.072
16446SOL     OW51111   3.258  13.687   4.977
16446SOL    HW151112   3.298  13.628   4.913
16446SOL    HW251113   3.167  13.697   4.947
16447SOL     OW51114  11.823   4.986  12.320
16447SOL    HW151115  11.813   5.079  12.338
16447SOL    HW251116  11.852   4.982  12.229
16448SOL     OW51117  13.196  13.938   8.906
16448SOL    HW151118  13.134  13.910   8.838
16448SOL    HW251119  13.253  13.862   8.920
16449SOL     OW51120  12.990  13.903  14.875
16449SOL    HW151121  12.910  13.879   0.041
16449SOL    HW251122  13.057  13.909   0.061
16450SOL     OW51123   1.790   5.215   6.706
16450SOL    HW151124   1.736   5.239   6.631
16450SOL    HW251125   1.875   5.193   6.669
16451SOL     OW51126  13.477   6.149   1.452
16451SOL    HW151127  13.434   6.106   1.377
16451SOL    HW251128  13.416   6.217   1.479
16452SOL     OW51129   1.624  13.108  13.977
16452SOL    HW151130   1.640  13.159  14.057
16452SOL    HW251131   1.696  13.046  13.973
16453SOL     OW51132   8.099   3.879   9.729
16453SOL    HW151133   8.180   3.828   9.721
16453SOL    HW251134   8.118   3.960   9.682
16454SOL     OW51135  10.659   5.715  12.152
16454SOL    HW151136  10.623   5.632  12.122
16454SOL    HW251137  10.589   5.779  12.137
16455SOL     OW51138   4.111   6.112   4.488
16455SOL    HW151139   4.115   6.027   4.444
16455SOL    HW251140   4.071   6.171   4.424
16456SOL     OW51141   0.680  11.224   9.141
16456SOL    HW151142   0.761  11.233   9.090
16456SOL    HW251143   0.701  11.263   9.226
16457SOL     OW51144   1.670   4.553   7.897
16457SOL    HW151145   1.574   4.550   7.904
16457SOL    HW251146   1.691   4.489   7.829
16458SOL     OW51147   9.572   3.089   4.692
16458SOL    HW151148   9.481   3.090   4.664
16458SOL    HW251149   9.614   3.160   4.644
16459SOL     OW51150   3.012  14.021   5.382
16459SOL    HW151151   3.082  14.077   5.348
16459SOL    HW251152   3.057  13.942   5.412
16460SOL     OW51153   9.787   0.380   2.649
16460SOL    HW151154   9.761   0.320   2.579
16460SOL    HW251155   9.718   0.372   2.714
16461SOL     OW51156  13.830  12.689   6.116
16461SOL    HW151157  13.840  12.685   6.021
16461SOL    HW251158  13.757  12.749   6.130
16462SOL     OW51159  12.925  10.773   7.529
16462SOL    HW151160  13.008  10.740   7.496
16462SOL    HW251161  12.892  10.702   7.585
16463SOL     OW51162   6.939  12.095  11.836
16463SOL    HW151163   6.848  12.081  11.813
16463SOL    HW251164   6.981  12.122  11.755
16464SOL     OW51165   9.632  13.927   2.259
16464SOL    HW151166   9.545  13.898   2.232
16464SOL    HW251167   9.681  13.846   2.272
16465SOL     OW51168  14.602  13.229  10.833
16465SOL    HW151169  14.671  13.164  10.823
16465SOL    HW251170  14.526  13.180  10.864
16466SOL     OW51171   2.115   6.961  12.522
16466SOL    HW151172   2.100   7.003  12.606
16466SOL    HW251173   2.043   6.991  12.467
16467SOL     OW51174   0.196   7.085   2.755
16467SOL    HW151175   0.154   6.999   2.754
16467SOL    HW251176   0.196   7.112   2.663
16468SOL     OW51177   8.964  12.347   3.043
16468SOL    HW151178   9.048  12.320   3.007
16468SOL    HW251179   8.901  12.287   3.003
16469SOL     OW51180   9.012  13.005   7.786
16469SOL    HW151181   8.999  12.967   7.699
16469SOL    HW251182   9.107  13.013   7.795
16470SOL     OW51183   6.461   9.024  11.490
16470SOL    HW151184   6.396   8.959  11.462
16470SOL    HW251185   6.448   9.098  11.431
16471SOL     OW51186  12.303  14.387   8.706
16471SOL    HW151187  12.342  14.352   8.786
16471SOL    HW251188  12.339  14.475   8.698
16472SOL     OW51189   3.841   5.817   7.547
16472SOL    HW151190   3.838   5.767   7.465
16472SOL    HW251191   3.798   5.760   7.611
16473SOL     OW51192   0.272   9.707  13.667
16473SOL    HW151193   0.229   9.789  13.643
16473SOL    HW251194   0.336   9.732  13.734
16474SOL     OW51195  13.825   4.634   7.059
16474SOL    HW151196  13.821   4.602   7.150
16474SOL    HW251197  13.916   4.623   7.034
16475SOL     OW51198  14.664  11.867   4.223
16475SOL    HW151199  14.749  11.874   4.267
16475SOL    HW251200  14.678  11.912   4.139
16476SOL     OW51201  11.978  10.299   8.824
16476SOL    HW151202  11.917  10.225   8.834
16476SOL    HW251203  11.928  10.375   8.855
16477SOL     OW51204   8.017  10.240   7.424
16477SOL    HW151205   7.931  10.214   7.457
16477SOL    HW251206   8.002  10.260   7.332
16478SOL     OW51207  13.248  11.924   7.943
16478SOL    HW151208  13.239  11.860   8.013
16478SOL    HW251209  13.317  11.888   7.886
16479SOL     OW51210  11.527  12.136   9.220
16479SOL    HW151211  11.551  12.222   9.254
16479SOL    HW251212  11.611  12.095   9.198
16480SOL     OW51213   5.405   4.554   4.080
16480SOL    HW151214   5.328   4.602   4.110
16480SOL    HW251215   5.371   4.493   4.014
16481SOL     OW51216   3.881   5.061  14.169
16481SOL    HW151217   3.878   5.014  14.253
16481SOL    HW251218   3.901   5.151  14.193
16482SOL     OW51219   0.446   7.807   0.097
16482SOL    HW151220   0.535   7.774   0.105
16482SOL    HW251221   0.433   7.819   0.003
16483SOL     OW51222   8.119   0.602   7.600
16483SOL    HW151223   8.034   0.641   7.579
16483SOL    HW251224   8.100   0.511   7.622
16484SOL     OW51225  10.545   1.249  12.987
16484SOL    HW151226  10.596   1.186  12.936
16484SOL    HW251227  10.516   1.199  13.064
16485SOL     OW51228  12.899  13.940  11.040
16485SOL    HW151229  12.866  13.864  11.087
16485SOL    HW251230  12.992  13.920  11.024
16486SOL     OW51231   0.753  12.799  12.771
16486SOL    HW151232   0.739  12.893  12.759
16486SOL    HW251233   0.720  12.759  12.691
16487SOL     OW51234   0.681  10.476  11.453
16487SOL    HW151235   0.740  10.530  11.505
16487SOL    HW251236   0.611  10.452  11.513
16488SOL     OW51237   5.456   3.445   6.753
16488SOL    HW151238   5.455   3.349   6.757
16488SOL    HW251239   5.510   3.472   6.827
16489SOL     OW51240   4.875   6.240   0.287
16489SOL    HW151241   4.953   6.229   0.233
16489SOL    HW251242   4.866   6.335   0.298
16490SOL     OW51243  11.791   3.411   5.518
16490SOL    HW151244  11.794   3.504   5.543
16490SOL    HW251245  11.839   3.408   5.435
16491SOL     OW51246   0.976   7.197  11.896
16491SOL    HW151247   0.894   7.149  11.892
16491SOL    HW251248   0.964   7.269  11.835
16492SOL     OW51249   1.522   2.848  14.816
16492SOL    HW151250   1.450   2.888  14.766
16492SOL    HW251251   1.597   2.851  14.757
16493SOL     OW51252   7.983  11.417  12.618
16493SOL    HW151253   7.916  11.349  12.626
16493SOL    HW251254   8.027  11.417  12.703
16494SOL     OW51255   1.267   8.616   6.869
16494SOL    HW151256   1.287   8.705   6.839
16494SOL    HW251257   1.331   8.561   6.823
16495SOL     OW51258   7.390   1.747   8.985
16495SOL    HW151259   7.465   1.778   8.933
16495SOL    HW251260   7.346   1.685   8.927
16496SOL     OW51261   3.051  14.142   2.477
16496SOL    HW151262   3.104  14.214   2.511
16496SOL    HW251263   3.066  14.070   2.538
16497SOL     OW51264  14.514   0.395   2.714
16497SOL    HW151265  14.502   0.398   2.809
16497SOL    HW251266  14.465   0.470   2.681
16498SOL     OW51267  13.970   3.746   3.066
16498SOL    HW151268  13.894   3.718   3.015
16498SOL    HW251269  13.982   3.838   3.045
16499SOL     OW51270   2.398  10.713   9.446
16499SOL    HW151271   2.421  10.752   9.530
16499SOL    HW251272   2.452  10.634   9.440
16500SOL     OW51273   2.148  13.028  12.128
16500SOL    HW151274   2.204  13.025  12.051
16500SOL    HW251275   2.073  13.082  12.101
16501SOL     OW51276   7.123   4.331  14.779
16501SOL    HW151277   7.210   4.364  14.800
16501SOL    HW251278   7.071   4.409  14.763
16502SOL     OW51279   1.661   3.180   3.606
16502SOL    HW151280   1.748   3.198   3.569
16502SOL    HW251281   1.668   3.090   3.639
16503SOL     OW51282  10.550  12.028   3.082
16503SOL    HW151283  10.628  11.977   3.103
16503SOL    HW251284  10.584  12.107   3.039
16504SOL     OW51285   6.598   2.661  12.434
16504SOL    HW151286   6.624   2.693  12.347
16504SOL    HW251287   6.575   2.741  12.483
16505SOL     OW51288   7.081   1.347   2.854
16505SOL    HW151289   7.109   1.258   2.877
16505SOL    HW251290   7.100   1.399   2.932
16506SOL     OW51291  11.473  13.530   7.824
16506SOL    HW151292  11.444  13.621   7.815
16506SOL    HW251293  11.421  13.496   7.897
16507SOL     OW51294  12.222  14.221   6.803
16507SOL    HW151295  12.240  14.179   6.719
16507SOL    HW251296  12.279  14.298   6.804
16508SOL     OW51297  10.768   5.303   6.304
16508SOL    HW151298  10.673   5.303   6.312
16508SOL    HW251299  10.790   5.213   6.276
16509SOL     OW51300   2.022  14.750   3.668
16509SOL    HW151301   1.997  14.831   3.712
16509SOL    HW251302   2.012  14.682   3.734
16510SOL     OW51303   2.412  12.998   2.260
16510SOL    HW151304   2.503  12.972   2.246
16510SOL    HW251305   2.392  13.057   2.187
16511SOL     OW51306   7.519   1.884   3.971
16511SOL    HW151307   7.453   1.937   3.926
16511SOL    HW251308   7.472   1.842   4.043
16512SOL     OW51309  11.129  10.332   8.596
16512SOL    HW151310  11.153  10.374   8.513
16512SOL    HW251311  11.155  10.241   8.585
16513SOL     OW51312   8.225   1.972   2.455
16513SOL    HW151313   8.221   1.896   2.513
16513SOL    HW251314   8.139   1.976   2.413
16514SOL     OW51315   6.238   4.420   6.335
16514SOL    HW151316   6.166   4.388   6.388
16514SOL    HW251317   6.216   4.511   6.317
16515SOL     OW51318   7.270  10.033   5.784
16515SOL    HW151319   7.190   9.980   5.788
16515SOL    HW251320   7.261  10.095   5.857
16516SOL     OW51321   1.963   9.318   1.988
16516SOL    HW151322   2.043   9.319   1.935
16516SOL    HW251323   1.989   9.279   2.071
16517SOL     OW51324   8.779  13.578   5.584
16517SOL    HW151325   8.778  13.552   5.677
16517SOL    HW251326   8.700  13.538   5.548
16518SOL     OW51327   9.196  12.864   4.178
16518SOL    HW151328   9.150  12.787   4.211
16518SOL    HW251329   9.168  12.935   4.236
16519SOL     OW51330   6.709  10.852   6.693
16519SOL    HW151331   6.724  10.812   6.779
16519SOL    HW251332   6.739  10.786   6.630
16520SOL     OW51333  12.331   3.770  11.627
16520SOL    HW151334  12.256   3.725  11.587
16520SOL    HW251335  12.334   3.737  11.717
16521SOL     OW51336   9.006   4.106   4.648
16521SOL    HW151337   9.089   4.153   4.635
16521SOL    HW251338   8.988   4.115   4.742
16522SOL     OW51339   7.275   3.117   2.089
16522SOL    HW151340   7.270   3.131   1.994
16522SOL    HW251341   7.191   3.078   2.111
16523SOL     OW51342  10.599   9.181  13.022
16523SOL    HW151343  10.606   9.119  13.094
16523SOL    HW251344  10.625   9.265  13.060
16524SOL     OW51345   7.483   0.081   7.454
16524SOL    HW151346   7.419   0.147   7.429
16524SOL    HW251347   7.519   0.113   7.537
16525SOL     OW51348   0.219  13.947   5.202
16525SOL    HW151349   0.209  13.989   5.287
16525SOL    HW251350   0.135  13.903   5.187
16526SOL     OW51351  13.447  11.664   2.849
16526SOL    HW151352  13.488  11.707   2.774
16526SOL    HW251353  13.370  11.717   2.867
16527SOL     OW51354  11.391   5.417   9.097
16527SOL    HW151355  11.428   5.334   9.067
16527SOL    HW251356  11.401   5.476   9.022
16528SOL     OW51357   1.342   4.511   6.852
16528SOL    HW151358   1.365   4.449   6.921
16528SOL    HW251359   1.425   4.551   6.826
16529SOL     OW51360   6.081   1.768  10.514
16529SOL    HW151361   5.992   1.746  10.541
16529SOL    HW251362   6.125   1.684  10.503
16530SOL     OW51363   9.830   6.754   4.043
16530SOL    HW151364   9.763   6.775   4.107
16530SOL    HW251365   9.796   6.678   3.996
16531SOL     OW51366  14.606  11.560   2.507
16531SOL    HW151367  14.629  11.597   2.593
16531SOL    HW251368  14.551  11.627   2.467
16532SOL     OW51369  10.690   0.856   8.788
16532SOL    HW151370  10.626   0.801   8.742
16532SOL    HW251371  10.768   0.854   8.733
16533SOL     OW51372  12.050   9.401  10.686
16533SOL    HW151373  11.961   9.366  10.687
16533SOL    HW251374  12.072   9.412  10.779
16534SOL     OW51375   0.560  12.773   9.082
16534SOL    HW151376   0.489  12.837   9.075
16534SOL    HW251377   0.562  12.749   9.175
16535SOL     OW51378   5.801   8.448  13.221
16535SOL    HW151379   5.876   8.498  13.189
16535SOL    HW251380   5.734   8.514  13.238
16536SOL     OW51381  10.770  14.133   7.982
16536SOL    HW151382  10.690  14.120   7.931
16536SOL    HW251383  10.838  14.146   7.917
16537SOL     OW51384   2.343  11.926   0.799
16537SOL    HW151385   2.382  11.847   0.836
16537SOL    HW251386   2.417  11.985   0.784
16538SOL     OW51387  13.037  10.357   1.251
16538SOL    HW151388  13.049  10.411   1.329
16538SOL    HW251389  13.120  10.367   1.203
16539SOL     OW51390  11.636   9.724  14.875
16539SOL    HW151391  11.587   9.726   0.076
16539SOL    HW251392  11.654   9.816  14.855
16540SOL     OW51393  12.665  13.208  11.456
16540SOL    HW151394  12.619  13.277  11.504
16540SOL    HW251395  12.608  13.131  11.464
16541SOL     OW51396   5.190  12.190   7.080
16541SOL    HW151397   5.214  12.282   7.068
16541SOL    HW251398   5.211  12.172   7.172
16542SOL     OW51399   1.471  13.523   2.142
16542SOL    HW151400   1.546  13.463   2.142
16542SOL    HW251401   1.506  13.604   2.106
16543SOL     OW51402  11.404   8.844   2.130
16543SOL    HW151403  11.344   8.851   2.056
16543SOL    HW251404  11.426   8.751   2.134
16544SOL     OW51405   2.123   5.146  13.004
16544SOL    HW151406   2.088   5.235  13.000
16544SOL    HW251407   2.192   5.150  13.070
16545SOL     OW51408  14.102  12.811  10.955
16545SOL    HW151409  14.064  12.767  10.879
16545SOL    HW251410  14.187  12.769  10.967
16546SOL     OW51411  10.783   4.361   0.143
16546SOL    HW151412  10.816   4.305   0.073
16546SOL    HW251413  10.780   4.304   0.220
16547SOL     OW51414  12.386   2.192   4.163
16547SOL    HW151415  12.471   2.150   4.179
16547SOL    HW251416  12.372   2.183   4.069
16548SOL     OW51417   1.203   5.330   2.784
16548SOL    HW151418   1.290   5.347   2.748
16548SOL    HW251419   1.194   5.235   2.779
16549SOL     OW51420   1.682  13.593   8.050
16549SOL    HW151421   1.727  13.613   8.132
16549SOL    HW251422   1.667  13.679   8.010
16550SOL     OW51423   9.845   2.415   0.175
16550SOL    HW151424   9.778   2.483   0.181
16550SOL    HW251425   9.927   2.464   0.166
16551SOL     OW51426  14.798   0.450   3.437
16551SOL    HW151427  14.878   0.434   3.487
16551SOL    HW251428  14.822   0.429   3.347
16552SOL     OW51429  14.573  11.757  12.573
16552SOL    HW151430  14.508  11.688  12.583
16552SOL    HW251431  14.538  11.813  12.504
16553SOL     OW51432  12.884   4.756   9.829
16553SOL    HW151433  12.818   4.753   9.898
16553SOL    HW251434  12.836   4.739   9.748
16554SOL     OW51435   6.651   8.947   4.105
16554SOL    HW151436   6.564   8.909   4.117
16554SOL    HW251437   6.636   9.042   4.109
16555SOL     OW51438   5.168   9.973  13.410
16555SOL    HW151439   5.214   9.934  13.335
16555SOL    HW251440   5.084  10.000  13.374
16556SOL     OW51441   0.340   5.427   3.430
16556SOL    HW151442   0.402   5.419   3.503
16556SOL    HW251443   0.268   5.369   3.454
16557SOL     OW51444   7.503   6.757   8.965
16557SOL    HW151445   7.562   6.788   8.895
16557SOL    HW251446   7.506   6.827   9.031
16558SOL     OW51447  12.004   4.518   9.054
16558SOL    HW151448  12.088   4.537   9.012
16558SOL    HW251449  12.023   4.445   9.113
16559SOL     OW51450   6.952   2.712   4.543
16559SOL    HW151451   6.979   2.621   4.536
16559SOL    HW251452   6.869   2.709   4.591
16560SOL     OW51453  13.478   0.321   3.451
16560SOL    HW151454  13.550   0.369   3.410
16560SOL    HW251455  13.412   0.312   3.382
16561SOL     OW51456   2.010   3.659   2.564
16561SOL    HW151457   1.982   3.676   2.474
16561SOL    HW251458   2.006   3.564   2.574
16562SOL     OW51459   1.346   9.500  11.932
16562SOL    HW151460   1.255   9.516  11.956
16562SOL    HW251461   1.395   9.570  11.976
16563SOL     OW51462   0.400   3.422   5.406
16563SOL    HW151463   0.363   3.343   5.445
16563SOL    HW251464   0.388   3.490   5.472
16564SOL     OW51465   1.556   6.566   4.411
16564SOL    HW151466   1.548   6.490   4.469
16564SOL    HW251467   1.643   6.557   4.372
16565SOL     OW51468   2.074  11.442  10.384
16565SOL    HW151469   2.141  11.469  10.447
16565SOL    HW251470   2.090  11.349  10.371
16566SOL     OW51471  10.470  14.228   7.435
16566SOL    HW151472  10.466  14.132   7.429
16566SOL    HW251473  10.563  14.247   7.445
16567SOL     OW51474  13.511   6.608   2.498
16567SOL    HW151475  13.434   6.594   2.444
16567SOL    HW251476  13.477   6.612   2.588
16568SOL     OW51477   0.086  10.198   1.849
16568SOL    HW151478   0.108  10.286   1.878
16568SOL    HW251479   0.082  10.146   1.929
16569SOL     OW51480   8.492  12.208  10.519
16569SOL    HW151481   8.468  12.255  10.439
16569SOL    HW251482   8.524  12.124  10.488
16570SOL     OW51483   0.290   5.342  10.171
16570SOL    HW151484   0.374   5.387  10.182
16570SOL    HW251485   0.306   5.278  10.102
16571SOL     OW51486   7.016  11.361   1.546
16571SOL    HW151487   6.960  11.365   1.623
16571SOL    HW251488   6.967  11.309   1.482
16572SOL     OW51489   8.032   2.668   2.722
16572SOL    HW151490   8.011   2.739   2.783
16572SOL    HW251491   7.949   2.650   2.678
16573SOL     OW51492   0.031   1.418   0.127
16573SOL    HW151493  14.859   1.370   0.064
16573SOL    HW251494   0.080   1.481   0.074
16574SOL     OW51495  11.292  10.345   5.582
16574SOL    HW151496  11.281  10.428   5.627
16574SOL    HW251497  11.279  10.279   5.650
16575SOL     OW51498   0.544  12.044   5.806
16575SOL    HW151499   0.453  12.014   5.806
16575SOL    HW251500   0.545  12.117   5.869
16576SOL     OW51501   3.422   3.675  14.742
16576SOL    HW151502   3.449   3.653  14.832
16576SOL    HW251503   3.503   3.668  14.691
16577SOL     OW51504   5.834   3.369   9.148
16577SOL    HW151505   5.756   3.408   9.188
16577SOL    HW251506   5.884   3.444   9.116
16578SOL     OW51507  10.259   0.567  13.057
16578SOL    HW151508  10.330   0.600  13.113
16578SOL    HW251509  10.275   0.473  13.051
16579SOL     OW51510  13.597   5.673  12.032
16579SOL    HW151511  13.536   5.747  12.023
16579SOL    HW251512  13.668   5.707  12.087
16580SOL     OW51513  10.700   3.295   0.445
16580SOL    HW151514  10.740   3.275   0.530
16580SOL    HW251515  10.774   3.295   0.383
16581SOL     OW51516   3.602   8.082   7.391
16581SOL    HW151517   3.635   8.028   7.319
16581SOL    HW251518   3.652   8.052   7.468
16582SOL     OW51519  10.622   2.907   9.912
16582SOL    HW151520  10.610   2.989   9.865
16582SOL    HW251521  10.535   2.886   9.948
16583SOL     OW51522   1.568   4.845   6.268
16583SOL    HW151523   1.560   4.809   6.180
16583SOL    HW251524   1.549   4.772   6.326
16584SOL     OW51525   7.561   3.715   9.486
16584SOL    HW151526   7.468   3.705   9.465
16584SOL    HW251527   7.591   3.785   9.428
16585SOL     OW51528   8.295  12.277  12.405
16585SOL    HW151529   8.349  12.216  12.355
16585SOL    HW251530   8.293  12.357  12.352
16586SOL     OW51531  14.834   6.268   0.224
16586SOL    HW151532   0.043   6.291   0.247
16586SOL    HW251533  14.835   6.262   0.128
16587SOL     OW51534   7.220   9.633  11.793
16587SOL    HW151535   7.194   9.607  11.705
16587SOL    HW251536   7.137   9.646  11.840
16588SOL     OW51537  14.715  13.771  11.567
16588SOL    HW151538  14.730  13.676  11.563
16588SOL    HW251539  14.630  13.784  11.527
16589SOL     OW51540  11.596   9.648   8.342
16589SOL    HW151541  11.689   9.637   8.322
16589SOL    HW251542  11.551   9.598   8.274
16590SOL     OW51543   7.291   7.232  11.697
16590SOL    HW151544   7.250   7.247  11.783
16590SOL    HW251545   7.385   7.239  11.713
16591SOL     OW51546   9.734   6.989   5.367
16591SOL    HW151547   9.688   6.980   5.451
16591SOL    HW251548   9.673   7.040   5.313
16592SOL     OW51549   0.979   0.017   7.514
16592SOL    HW151550   1.006   0.017   7.423
16592SOL    HW251551   0.891  14.861   7.513
16593SOL     OW51552   6.942   7.789   9.611
16593SOL    HW151553   6.961   7.814   9.702
16593SOL    HW251554   6.976   7.862   9.559
16594SOL     OW51555   0.367   8.250   3.646
16594SOL    HW151556   0.403   8.332   3.612
16594SOL    HW251557   0.428   8.182   3.615
16595SOL     OW51558   3.769  14.656   5.652
16595SOL    HW151559   3.720  14.574   5.648
16595SOL    HW251560   3.845  14.635   5.706
16596SOL     OW51561   1.407   6.171   6.419
16596SOL    HW151562   1.392   6.251   6.469
16596SOL    HW251563   1.332   6.166   6.359
16597SOL     OW51564  13.228   4.841  14.017
16597SOL    HW151565  13.301   4.856  13.957
16597SOL    HW251566  13.151   4.831  13.960
16598SOL     OW51567   0.161  13.581   4.404
16598SOL    HW151568   0.148  13.676   4.405
16598SOL    HW251569   0.072  13.545   4.399
16599SOL     OW51570   7.071   8.437  14.856
16599SOL    HW151571   7.035   8.473  14.775
16599SOL    HW251572   7.135   8.371  14.827
16600SOL     OW51573   3.290   5.621  10.859
16600SOL    HW151574   3.370   5.615  10.807
16600SOL    HW251575   3.319   5.657  10.943
16601SOL     OW51576   1.124  14.120   8.979
16601SOL    HW151577   1.134  14.047   9.041
16601SOL    HW251578   1.211  14.131   8.940
16602SOL     OW51579   4.165   2.637   9.371
16602SOL    HW151580   4.237   2.676   9.422
16602SOL    HW251581   4.150   2.552   9.411
16603SOL     OW51582   9.329  11.397  10.089
16603SOL    HW151583   9.332  11.478  10.140
16603SOL    HW251584   9.245  11.358  10.111
16604SOL     OW51585   2.494   2.686   6.805
16604SOL    HW151586   2.491   2.641   6.889
16604SOL    HW251587   2.530   2.621   6.744
16605SOL     OW51588  11.860   2.899   0.490
16605SOL    HW151589  11.896   2.926   0.575
16605SOL    HW251590  11.835   2.808   0.503
16606SOL     OW51591  13.810   9.923   5.280
16606SOL    HW151592  13.774   9.837   5.298
16606SOL    HW251593  13.902   9.917   5.305
16607SOL     OW51594   2.820   6.400   5.197
16607SOL    HW151595   2.746   6.454   5.226
16607SOL    HW251596   2.785   6.311   5.196
16608SOL     OW51597   3.489   6.964   3.117
16608SOL    HW151598   3.486   7.050   3.158
16608SOL    HW251599   3.465   6.904   3.188
16609SOL     OW51600  13.778   0.889   4.844
16609SOL    HW151601  13.710   0.938   4.892
16609SOL    HW251602  13.857   0.941   4.856
16610SOL     OW51603  10.542  10.817  13.295
16610SOL    HW151604  10.548  10.728  13.260
16610SOL    HW251605  10.471  10.857  13.245
16611SOL     OW51606   4.937   5.095   1.553
16611SOL    HW151607   4.845   5.104   1.528
16611SOL    HW251608   4.965   5.184   1.574
16612SOL     OW51609   3.383  10.436   4.924
16612SOL    HW151610   3.468  10.426   4.969
16612SOL    HW251611   3.351  10.346   4.916
16613SOL     OW51612   6.691  14.627   6.136
16613SOL    HW151613   6.728  14.612   6.223
16613SOL    HW251614   6.735  14.706   6.104
16614SOL     OW51615  11.461   8.365  13.684
16614SOL    HW151616  11.512   8.444  13.702
16614SOL    HW251617  11.430   8.336  13.770
16615SOL     OW51618   6.103   8.496  11.625
16615SOL    HW151619   6.031   8.530  11.572
16615SOL    HW251620   6.178   8.551  11.603
16616SOL     OW51621   9.963   8.481   5.454
16616SOL    HW151622  10.054   8.472   5.425
16616SOL    HW251623   9.926   8.393   5.448
16617SOL     OW51624  12.909  13.450   9.888
16617SOL    HW151625  12.913  13.513   9.960
16617SOL    HW251626  12.825  13.406   9.898
16618SOL     OW51627   3.298  12.744   1.157
16618SOL    HW151628   3.257  12.671   1.203
16618SOL    HW251629   3.232  12.813   1.158
16619SOL     OW51630   9.298   9.365  13.914
16619SOL    HW151631   9.207   9.337  13.923
16619SOL    HW251632   9.305   9.395  13.823
16620SOL     OW51633   6.730   0.487   6.093
16620SOL    HW151634   6.776   0.564   6.126
16620SOL    HW251635   6.675   0.459   6.165
16621SOL     OW51636   1.394  12.168   7.549
16621SOL    HW151637   1.367  12.185   7.639
16621SOL    HW251638   1.486  12.143   7.556
16622SOL     OW51639  10.054   6.046   0.002
16622SOL    HW151640  10.040   6.135   0.032
16622SOL    HW251641  10.033   6.048  14.790
16623SOL     OW51642   5.272  13.802   8.350
16623SOL    HW151643   5.216  13.794   8.272
16623SOL    HW251644   5.352  13.756   8.327
16624SOL     OW51645  10.791  11.664   3.534
16624SOL    HW151646  10.709  11.712   3.545
16624SOL    HW251647  10.788  11.595   3.600
16625SOL     OW51648   3.384   0.522   8.895
16625SOL    HW151649   3.326   0.454   8.929
16625SOL    HW251650   3.461   0.518   8.951
16626SOL     OW51651   3.206   6.039   3.292
16626SOL    HW151652   3.169   6.004   3.211
16626SOL    HW251653   3.184   5.974   3.358
16627SOL     OW51654   4.588   3.006   3.249
16627SOL    HW151655   4.558   3.061   3.177
16627SOL    HW251656   4.571   2.917   3.220
16628SOL     OW51657  12.975   1.477   1.389
16628SOL    HW151658  12.964   1.384   1.369
16628SOL    HW251659  12.894   1.502   1.434
16629SOL     OW51660  14.692   2.020   2.237
16629SOL    HW151661  14.779   2.011   2.274
16629SOL    HW251662  14.702   1.993   2.146
16630SOL     OW51663  13.878  10.437   5.868
16630SOL    HW151664  13.948  10.502   5.864
16630SOL    HW251665  13.815  10.467   5.802
16631SOL     OW51666   2.361   4.812  11.836
16631SOL    HW151667   2.273   4.775  11.843
16631SOL    HW251668   2.356   4.870  11.759
16632SOL     OW51669   7.682   3.428   0.393
16632SOL    HW151670   7.714   3.350   0.348
16632SOL    HW251671   7.758   3.461   0.440
16633SOL     OW51672   1.785  14.611  12.300
16633SOL    HW151673   1.803  14.677  12.233
16633SOL    HW251674   1.755  14.534  12.252
16634SOL     OW51675   6.713   5.869   3.038
16634SOL    HW151676   6.649   5.937   3.056
16634SOL    HW251677   6.663   5.798   2.998
16635SOL     OW51678   3.125  12.866   1.446
16635SOL    HW151679   3.158  12.817   1.521
16635SOL    HW251680   3.128  12.803   1.374
16636SOL     OW51681  10.941   2.111   3.693
16636SOL    HW151682  10.939   2.056   3.614
16636SOL    HW251683  10.985   2.191   3.665
16637SOL     OW51684  14.160   5.788   4.266
16637SOL    HW151685  14.175   5.782   4.360
16637SOL    HW251686  14.171   5.881   4.246
16638SOL     OW51687   6.852   5.556   9.952
16638SOL    HW151688   6.832   5.621  10.019
16638SOL    HW251689   6.946   5.564   9.937
16639SOL     OW51690   7.252   3.830  14.725
16639SOL    HW151691   7.196   3.757  14.751
16639SOL    HW251692   7.197   3.883  14.667
16640SOL     OW51693   3.088   9.240  14.180
16640SOL    HW151694   3.050   9.210  14.263
16640SOL    HW251695   3.172   9.278  14.203
16641SOL     OW51696   5.881   3.635   7.230
16641SOL    HW151697   5.908   3.557   7.279
16641SOL    HW251698   5.958   3.658   7.177
16642SOL     OW51699   9.802  14.715   8.547
16642SOL    HW151700   9.721  14.681   8.584
16642SOL    HW251701   9.870  14.657   8.580
16643SOL     OW51702  10.914  14.210   7.726
16643SOL    HW151703  10.865  14.147   7.673
16643SOL    HW251704  10.898  14.295   7.685
16644SOL     OW51705   1.204   1.796  11.507
16644SOL    HW151706   1.147   1.868  11.536
16644SOL    HW251707   1.250   1.832  11.431
16645SOL     OW51708   6.911   6.428   9.155
16645SOL    HW151709   6.824   6.453   9.188
16645SOL    HW251710   6.895   6.398   9.066
16646SOL     OW51711   9.477   0.200   1.323
16646SOL    HW151712   9.536   0.163   1.388
16646SOL    HW251713   9.390   0.180   1.355
16647SOL     OW51714   1.337  13.877   2.233
16647SOL    HW151715   1.412  13.836   2.275
16647SOL    HW251716   1.296  13.928   2.303
16648SOL     OW51717   6.827   0.449  14.446
16648SOL    HW151718   6.896   0.515  14.450
16648SOL    HW251719   6.872   0.365  14.455
16649SOL     OW51720  12.846   2.088   8.560
16649SOL    HW151721  12.933   2.125   8.544
16649SOL    HW251722  12.821   2.047   8.477
16650SOL     OW51723  11.702   1.934  11.968
16650SOL    HW151724  11.644   1.859  11.983
16650SOL    HW251725  11.646   1.999  11.925
16651SOL     OW51726   2.855  11.631   7.423
16651SOL    HW151727   2.809  11.606   7.343
16651SOL    HW251728   2.829  11.564   7.487
16652SOL     OW51729  11.970  13.408   6.647
16652SOL    HW151730  12.051  13.434   6.691
16652SOL    HW251731  11.991  13.324   6.607
16653SOL     OW51732   4.059   7.712  14.080
16653SOL    HW151733   4.031   7.787  14.028
16653SOL    HW251734   4.072   7.746  14.168
16654SOL     OW51735   1.125  12.316  13.918
16654SOL    HW151736   1.042  12.357  13.940
16654SOL    HW251737   1.101  12.243  13.861
16655SOL     OW51738  11.057   4.272   8.574
16655SOL    HW151739  11.029   4.320   8.651
16655SOL    HW251740  11.031   4.326   8.500
16656SOL     OW51741   5.399  11.788   5.222
16656SOL    HW151742   5.476  11.792   5.278
16656SOL    HW251743   5.355  11.872   5.236
16657SOL     OW51744   5.767   5.709  13.597
16657SOL    HW151745   5.783   5.715  13.503
16657SOL    HW251746   5.849   5.737  13.637
16658SOL     OW51747  12.150   9.571  13.015
16658SOL    HW151748  12.242   9.554  13.035
16658SOL    HW251749  12.138   9.664  13.035
16659SOL     OW51750  10.398  13.922   8.535
16659SOL    HW151751  10.310  13.920   8.499
16659SOL    HW251752  10.419  14.015   8.545
16660SOL     OW51753   1.449   5.768   2.849
16660SOL    HW151754   1.443   5.683   2.892
16660SOL    HW251755   1.374   5.817   2.884
16661SOL     OW51756   3.518  13.225   1.353
16661SOL    HW151757   3.554  13.191   1.434
16661SOL    HW251758   3.430  13.188   1.348
16662SOL     OW51759   5.865   0.032  12.673
16662SOL    HW151760   5.922   0.062  12.743
16662SOL    HW251761   5.849   0.110  12.619
16663SOL     OW51762   7.281   3.420   1.823
16663SOL    HW151763   7.257   3.366   1.748
16663SOL    HW251764   7.259   3.509   1.797
16664SOL     OW51765   0.778  10.080   7.214
16664SOL    HW151766   0.737  10.164   7.193
16664SOL    HW251767   0.706  10.017   7.211
16665SOL     OW51768  14.581   3.348   2.305
16665SOL    HW151769  14.523   3.404   2.357
16665SOL    HW251770  14.666   3.391   2.309
16666SOL     OW51771  14.731  11.461   5.958
16666SOL    HW151772  14.790  11.536   5.951
16666SOL    HW251773  14.686  11.473   6.041
16667SOL     OW51774   2.137   7.498   3.807
16667SOL    HW151775   2.094   7.500   3.893
16667SOL    HW251776   2.217   7.549   3.819
16668SOL     OW51777   8.467  13.504   0.928
16668SOL    HW151778   8.496  13.491   1.019
16668SOL    HW251779   8.428  13.420   0.904
16669SOL     OW51780   0.909   1.928  10.235
16669SOL    HW151781   0.852   1.982  10.180
16669SOL    HW251782   0.861   1.845  10.244
16670SOL     OW51783   1.663   7.405   8.661
16670SOL    HW151784   1.603   7.438   8.728
16670SOL    HW251785   1.742   7.381   8.709
16671SOL     OW51786   0.319   2.204   4.297
16671SOL    HW151787   0.291   2.122   4.257
16671SOL    HW251788   0.249   2.225   4.359
16672SOL     OW51789   3.759  14.749   3.501
16672SOL    HW151790   3.782  14.841   3.511
16672SOL    HW251791   3.704  14.746   3.422
16673SOL     OW51792   9.340   8.187   4.619
16673SOL    HW151793   9.326   8.277   4.587
16673SOL    HW251794   9.432   8.184   4.642
16674SOL     OW51795   5.992  10.809   2.267
16674SOL    HW151796   6.039  10.761   2.198
16674SOL    HW251797   5.994  10.751   2.343
16675SOL     OW51798  11.054   7.846  11.786
16675SOL    HW151799  11.076   7.753  11.785
16675SOL    HW251800  11.136   7.890  11.762
16676SOL     OW51801   4.486   8.894   8.791
16676SOL    HW151802   4.563   8.850   8.754
16676SOL    HW251803   4.444   8.828   8.845
16677SOL     OW51804   7.899   8.066   8.873
16677SOL    HW151805   7.926   8.130   8.807
16677SOL    HW251806   7.981   8.036   8.912
16678SOL     OW51807  10.935   5.698   8.488
16678SOL    HW151808  10.924   5.677   8.396
16678SOL    HW251809  10.919   5.793   8.493
16679SOL     OW51810  11.007   1.950   5.236
16679SOL    HW151811  11.010   2.002   5.317
16679SOL    HW251812  11.022   2.014   5.166
16680SOL     OW51813   2.054   3.241   4.638
16680SOL    HW151814   2.133   3.235   4.691
16680SOL    HW251815   2.081   3.207   4.552
16681SOL     OW51816   0.745   4.768   0.370
16681SOL    HW151817   0.765   4.815   0.452
16681SOL    HW251818   0.760   4.833   0.302
16682SOL     OW51819   6.276   8.155  13.499
16682SOL    HW151820   6.370   8.170  13.510
16682SOL    HW251821   6.270   8.096  13.423
16683SOL     OW51822   8.896   5.431  10.500
16683SOL    HW151823   8.950   5.386  10.566
16683SOL    HW251824   8.944   5.419  10.418
16684SOL     OW51825   6.812   7.775  13.846
16684SOL    HW151826   6.803   7.855  13.898
16684SOL    HW251827   6.884   7.727  13.888
16685SOL     OW51828   8.671  12.431   0.065
16685SOL    HW151829   8.698  12.419   0.156
16685SOL    HW251830   8.615  12.508   0.067
16686SOL     OW51831   3.681  14.763   9.276
16686SOL    HW151832   3.747  14.819   9.234
16686SOL    HW251833   3.731  14.687   9.306
16687SOL     OW51834   7.948   3.130   3.815
16687SOL    HW151835   8.026   3.105   3.765
16687SOL    HW251836   7.974   3.119   3.906
16688SOL     OW51837  13.945   4.527   2.011
16688SOL    HW151838  14.031   4.562   1.984
16688SOL    HW251839  13.948   4.529   2.106
16689SOL     OW51840   0.220   7.764   8.231
16689SOL    HW151841   0.168   7.698   8.184
16689SOL    HW251842   0.163   7.841   8.235
16690SOL     OW51843  11.196  14.019   0.915
16690SOL    HW151844  11.159  13.971   0.841
16690SOL    HW251845  11.281  13.979   0.931
16691SOL     OW51846   3.373   8.447  11.491
16691SOL    HW151847   3.429   8.517  11.457
16691SOL    HW251848   3.388   8.448  11.585
16692SOL     OW51849  14.765   6.320   3.013
16692SOL    HW151850  14.736   6.334   2.923
16692SOL    HW251851  14.696   6.266   3.052
16693SOL     OW51852   8.856   1.574  11.700
16693SOL    HW151853   8.902   1.558  11.618
16693SOL    HW251854   8.765   1.589  11.674
16694SOL     OW51855  14.338   9.157   7.453
16694SOL    HW151856  14.309   9.083   7.398
16694SOL    HW251857  14.432   9.144   7.464
16695SOL     OW51858   5.932   4.082   0.286
16695SOL    HW151859   5.910   4.112   0.375
16695SOL    HW251860   5.967   4.160   0.243
16696SOL     OW51861   2.287   8.971   6.429
16696SOL    HW151862   2.271   8.912   6.355
16696SOL    HW251863   2.200   9.005   6.452
16697SOL     OW51864  14.093   8.307   9.524
16697SOL    HW151865  14.178   8.278   9.492
16697SOL    HW251866  14.030   8.248   9.482
16698SOL     OW51867   0.302   6.169   6.815
16698SOL    HW151868   0.373   6.168   6.751
16698SOL    HW251869   0.343   6.145   6.897
16699SOL     OW51870   1.493   9.417   0.754
16699SOL    HW151871   1.579   9.440   0.788
16699SOL    HW251872   1.456   9.358   0.820
16700SOL     OW51873   2.882   3.177   7.543
16700SOL    HW151874   2.910   3.110   7.605
16700SOL    HW251875   2.786   3.177   7.549
16701SOL     OW51876  14.881   2.050  10.551
16701SOL    HW151877  14.868   2.027  10.460
16701SOL    HW251878  14.820   2.122  10.567
16702SOL     OW51879  10.485   7.305  13.871
16702SOL    HW151880  10.526   7.303  13.958
16702SOL    HW251881  10.520   7.383  13.829
16703SOL     OW51882  14.290   8.038   5.587
16703SOL    HW151883  14.253   8.042   5.675
16703SOL    HW251884  14.316   7.947   5.576
16704SOL     OW51885  10.544   6.681   8.503
16704SOL    HW151886  10.495   6.606   8.538
16704SOL    HW251887  10.576   6.727   8.581
16705SOL     OW51888  11.767   7.789   3.104
16705SOL    HW151889  11.783   7.695   3.095
16705SOL    HW251890  11.720   7.798   3.186
16706SOL     OW51891  11.032  14.679   0.972
16706SOL    HW151892  10.951  14.725   0.993
16706SOL    HW251893  11.101  14.743   0.993
16707SOL     OW51894   4.583   8.656   2.953
16707SOL    HW151895   4.559   8.570   2.919
16707SOL    HW251896   4.619   8.638   3.040
16708SOL     OW51897   2.214   3.779   8.224
16708SOL    HW151898   2.185   3.700   8.269
16708SOL    HW251899   2.236   3.750   8.135
16709SOL     OW51900   7.810   8.493   7.077
16709SOL    HW151901   7.798   8.405   7.043
16709SOL    HW251902   7.728   8.538   7.060
16710SOL     OW51903   2.124   5.597   4.878
16710SOL    HW151904   2.084   5.615   4.962
16710SOL    HW251905   2.085   5.661   4.818
16711SOL     OW51906   1.037   9.098   8.088
16711SOL    HW151907   0.945   9.072   8.087
16711SOL    HW251908   1.037   9.188   8.120
16712SOL     OW51909   2.401  11.080  12.390
16712SOL    HW151910   2.420  11.000  12.438
16712SOL    HW251911   2.308  11.075  12.370
16713SOL     OW51912   0.429  12.254  14.488
16713SOL    HW151913   0.442  12.159  14.493
16713SOL    HW251914   0.501  12.291  14.539
16714SOL     OW51915   0.323   7.555   3.768
16714SOL    HW151916   0.390   7.492   3.793
16714SOL    HW251917   0.256   7.503   3.724
16715SOL     OW51918   3.168   0.349  11.211
16715SOL    HW151919   3.075   0.372  11.203
16715SOL    HW251920   3.215   0.423  11.172
16716SOL     OW51921   1.919   4.606   7.591
16716SOL    HW151922   1.980   4.657   7.646
16716SOL    HW251923   1.886   4.670   7.528
16717SOL     OW51924  12.689   5.885   1.491
16717SOL    HW151925  12.662   5.907   1.402
16717SOL    HW251926  12.747   5.957   1.516
16718SOL     OW51927   5.087   3.689  12.866
16718SOL    HW151928   5.083   3.777  12.828
16718SOL    HW251929   5.007   3.681  12.917
16719SOL     OW51930   7.705   4.580  10.201
16719SOL    HW151931   7.776   4.621  10.152
16719SOL    HW251932   7.661   4.652  10.245
16720SOL     OW51933   0.147  13.398   8.177
16720SOL    HW151934   0.094  13.390   8.098
16720SOL    HW251935   0.214  13.330   8.168
16721SOL     OW51936   4.610  11.422   3.278
16721SOL    HW151937   4.683  11.380   3.324
16721SOL    HW251938   4.608  11.511   3.313
16722SOL     OW51939   8.510  13.557   0.508
16722SOL    HW151940   8.585  13.604   0.471
16722SOL    HW251941   8.499  13.594   0.596
16723SOL     OW51942   5.366  12.716   4.355
16723SOL    HW151943   5.425  12.672   4.416
16723SOL    HW251944   5.386  12.809   4.366
16724SOL     OW51945   4.278  12.903   0.419
16724SOL    HW151946   4.184  12.888   0.420
16724SOL    HW251947   4.299  12.917   0.326
16725SOL     OW51948   0.713  10.054   2.261
16725SOL    HW151949   0.618  10.040   2.260
16725SOL    HW251950   0.731  10.084   2.350
16726SOL     OW51951  14.021  12.826   1.995
16726SOL    HW151952  13.998  12.796   2.083
16726SOL    HW251953  14.029  12.921   2.004
16727SOL     OW51954   3.297   8.369   1.729
16727SOL    HW151955   3.243   8.295   1.700
16727SOL    HW251956   3.333   8.340   1.813
16728SOL     OW51957   4.534   5.571  11.890
16728SOL    HW151958   4.567   5.491  11.850
16728SOL    HW251959   4.514   5.629  11.815
16729SOL     OW51960   5.866  13.658  11.758
16729SOL    HW151961   5.775  13.680  11.780
16729SOL    HW251962   5.861  13.568  11.724
16730SOL     OW51963   6.757  13.816   5.933
16730SOL    HW151964   6.752  13.780   5.845
16730SOL    HW251965   6.667  13.841   5.954
16731SOL     OW51966   2.114   2.758   3.873
16731SOL    HW151967   2.119   2.853   3.884
16731SOL    HW251968   2.172   2.723   3.940
16732SOL     OW51969  13.108   8.114   3.585
16732SOL    HW151970  13.033   8.134   3.530
16732SOL    HW251971  13.072   8.104   3.673
16733SOL     OW51972   2.728   3.915  10.132
16733SOL    HW151973   2.808   3.881  10.173
16733SOL    HW251974   2.659   3.856  10.161
16734SOL     OW51975   0.500   1.287  14.513
16734SOL    HW151976   0.447   1.353  14.468
16734SOL    HW251977   0.535   1.232  14.443
16735SOL     OW51978  13.701   1.774   7.131
16735SOL    HW151979  13.717   1.831   7.206
16735SOL    HW251980  13.609   1.746   7.141
16736SOL     OW51981   7.363  10.879   4.912
16736SOL    HW151982   7.372  10.952   4.851
16736SOL    HW251983   7.404  10.805   4.867
16737SOL     OW51984   4.626   6.079   6.854
16737SOL    HW151985   4.657   6.151   6.800
16737SOL    HW251986   4.656   6.100   6.942
16738SOL     OW51987   4.413   4.154   8.642
16738SOL    HW151988   4.343   4.095   8.615
16738SOL    HW251989   4.385   4.240   8.611
16739SOL     OW51990   7.370   9.565  11.120
16739SOL    HW151991   7.369   9.493  11.184
16739SOL    HW251992   7.350   9.523  11.036
16740SOL     OW51993  12.292   9.950  11.616
16740SOL    HW151994  12.344   9.942  11.697
16740SOL    HW251995  12.337   9.893  11.554
16741SOL     OW51996   3.592   7.805   6.113
16741SOL    HW151997   3.631   7.889   6.139
16741SOL    HW251998   3.631   7.741   6.173
16742SOL     OW51999   1.986   6.197  11.153
16742SOL    HW152000   1.934   6.128  11.112
16742SOL    HW252001   2.064   6.153  11.187
16743SOL     OW52002   4.816   9.718   4.886
16743SOL    HW152003   4.816   9.629   4.922
16743SOL    HW252004   4.730   9.753   4.910
16744SOL     OW52005   6.885  13.684   3.809
16744SOL    HW152006   6.889  13.775   3.837
16744SOL    HW252007   6.898  13.688   3.714
16745SOL     OW52008  11.488  12.988  12.756
16745SOL    HW152009  11.405  12.964  12.716
16745SOL    HW252010  11.534  12.905  12.769
16746SOL     OW52011   2.941  12.327  11.492
16746SOL    HW152012   2.937  12.375  11.410
16746SOL    HW252013   2.849  12.317  11.518
16747SOL     OW52014   7.059   2.769  12.500
16747SOL    HW152015   7.014   2.811  12.427
16747SOL    HW252016   7.012   2.799  12.578
16748SOL     OW52017   2.815   9.728   4.740
16748SOL    HW152018   2.821   9.807   4.686
16748SOL    HW252019   2.749   9.750   4.806
16749SOL     OW52020  10.350   1.830   1.666
16749SOL    HW152021  10.332   1.911   1.617
16749SOL    HW252022  10.340   1.855   1.758
16750SOL     OW52023   2.741  14.584   2.202
16750SOL    HW152024   2.684  14.637   2.146
16750SOL    HW252025   2.697  14.584   2.287
16751SOL     OW52026  11.137   3.820   7.736
16751SOL    HW152027  11.184   3.897   7.767
16751SOL    HW252028  11.081   3.853   7.666
16752SOL     OW52029   9.323   3.681   0.787
16752SOL    HW152030   9.372   3.631   0.853
16752SOL    HW252031   9.237   3.640   0.785
16753SOL     OW52032   1.819   3.984   3.008
16753SOL    HW152033   1.752   4.050   2.989
16753SOL    HW252034   1.856   3.962   2.923
16754SOL     OW52035   4.645  13.302   8.929
16754SOL    HW152036   4.601  13.268   8.851
16754SOL    HW252037   4.618  13.242   8.999
16755SOL     OW52038   1.781  14.266   1.712
16755SOL    HW152039   1.685  14.265   1.722
16755SOL    HW252040   1.808  14.176   1.730
16756SOL     OW52041   4.089   8.197  11.174
16756SOL    HW152042   4.173   8.196  11.220
16756SOL    HW252043   4.099   8.262  11.105
16757SOL     OW52044  10.052  11.130   0.113
16757SOL    HW152045  10.118  11.069   0.080
16757SOL    HW252046   9.970  11.081   0.108
16758SOL     OW52047   7.386   0.143   8.701
16758SOL    HW152048   7.471   0.143   8.745
16758SOL    HW252049   7.405   0.110   8.613
16759SOL     OW52050   8.311   0.578   8.739
16759SOL    HW152051   8.392   0.529   8.757
16759SOL    HW252052   8.246   0.511   8.719
16760SOL     OW52053  11.622  10.452   7.210
16760SOL    HW152054  11.676  10.384   7.250
16760SOL    HW252055  11.659  10.464   7.122
16761SOL     OW52056  13.502  11.962   9.492
16761SOL    HW152057  13.417  11.916   9.490
16761SOL    HW252058  13.528  11.966   9.400
16762SOL     OW52059   1.904   9.158   9.152
16762SOL    HW152060   1.921   9.150   9.246
16762SOL    HW252061   1.868   9.073   9.127
16763SOL     OW52062  12.635   9.314   5.701
16763SOL    HW152063  12.564   9.283   5.646
16763SOL    HW252064  12.667   9.393   5.657
16764SOL     OW52065   2.008  10.011   1.801
16764SOL    HW152066   2.037  10.099   1.825
16764SOL    HW252067   2.085   9.956   1.817
16765SOL     OW52068   8.418   5.748   5.885
16765SOL    HW152069   8.479   5.765   5.956
16765SOL    HW252070   8.465   5.689   5.826
16766SOL     OW52071   7.471  11.284   2.019
16766SOL    HW152072   7.446  11.218   2.084
16766SOL    HW252073   7.419  11.262   1.942
16767SOL     OW52074   9.525   7.932  11.823
16767SOL    HW152075   9.596   7.869  11.832
16767SOL    HW252076   9.450   7.890  11.866
16768SOL     OW52077   8.972  11.285   7.593
16768SOL    HW152078   9.024  11.273   7.514
16768SOL    HW252079   9.028  11.337   7.651
16769SOL     OW52080   7.347   5.025  11.256
16769SOL    HW152081   7.361   5.086  11.328
16769SOL    HW252082   7.394   5.064  11.182
16770SOL     OW52083  10.021   2.098   7.442
16770SOL    HW152084  10.007   2.094   7.348
16770SOL    HW252085  10.097   2.042   7.457
16771SOL     OW52086  13.929  12.626  11.193
16771SOL    HW152087  13.912  12.719  11.178
16771SOL    HW252088  14.023  12.621  11.210
16772SOL     OW52089   8.994  14.248   3.854
16772SOL    HW152090   9.073  14.274   3.902
16772SOL    HW252091   8.923  14.295   3.897
16773SOL     OW52092   7.122  12.354   8.431
16773SOL    HW152093   7.140  12.268   8.393
16773SOL    HW252094   7.183  12.413   8.387
16774SOL     OW52095   4.999   2.769   7.092
16774SOL    HW152096   4.960   2.852   7.062
16774SOL    HW252097   4.979   2.766   7.186
16775SOL     OW52098   6.764   3.220  10.671
16775SOL    HW152099   6.795   3.138  10.709
16775SOL    HW252100   6.780   3.285  10.740
16776SOL     OW52101   5.383  12.773   6.866
16776SOL    HW152102   5.316  12.735   6.810
16776SOL    HW252103   5.363  12.867   6.868
16777SOL     OW52104  11.115  12.292   9.045
16777SOL    HW152105  11.171  12.219   9.018
16777SOL    HW252106  11.132  12.361   8.981
16778SOL     OW52107   7.281  10.551   6.777
16778SOL    HW152108   7.256  10.606   6.703
16778SOL    HW252109   7.199  10.533   6.823
16779SOL     OW52110  13.357   5.236   9.657
16779SOL    HW152111  13.379   5.164   9.599
16779SOL    HW252112  13.348   5.312   9.598
16780SOL     OW52113   5.858  12.358   1.369
16780SOL    HW152114   5.851  12.277   1.420
16780SOL    HW252115   5.860  12.428   1.435
16781SOL     OW52116  12.248   5.853  13.813
16781SOL    HW152117  12.174   5.892  13.766
16781SOL    HW252118  12.304   5.816  13.744
16782SOL     OW52119   4.154   4.329  10.144
16782SOL    HW152120   4.176   4.314  10.236
16782SOL    HW252121   4.145   4.241  10.108
16783SOL     OW52122   7.633   5.742   0.900
16783SOL    HW152123   7.693   5.671   0.876
16783SOL    HW252124   7.552   5.698   0.924
16784SOL     OW52125   0.767   5.762   7.194
16784SOL    HW152126   0.693   5.823   7.187
16784SOL    HW252127   0.838   5.815   7.228
16785SOL     OW52128   7.785  12.189   4.309
16785SOL    HW152129   7.866  12.239   4.321
16785SOL    HW252130   7.726  12.223   4.376
16786SOL     OW52131   5.145   9.224   8.726
16786SOL    HW152132   5.216   9.273   8.769
16786SOL    HW252133   5.175   9.133   8.728
16787SOL     OW52134  10.628  12.725  11.750
16787SOL    HW152135  10.706  12.776  11.729
16787SOL    HW252136  10.655  12.668  11.822
16788SOL     OW52137   2.062   7.820   4.324
16788SOL    HW152138   2.100   7.907   4.336
16788SOL    HW252139   1.968   7.834   4.328
16789SOL     OW52140   5.971   5.596   6.369
16789SOL    HW152141   5.998   5.687   6.366
16789SOL    HW252142   5.923   5.582   6.287
16790SOL     OW52143  11.684   2.924   3.963
16790SOL    HW152144  11.702   2.834   3.937
16790SOL    HW252145  11.726   2.933   4.049
16791SOL     OW52146   4.813   1.573   2.473
16791SOL    HW152147   4.881   1.595   2.409
16791SOL    HW252148   4.747   1.526   2.423
16792SOL     OW52149   1.879   2.667   9.602
16792SOL    HW152150   1.810   2.671   9.668
16792SOL    HW252151   1.948   2.725   9.634
16793SOL     OW52152   3.740  13.286   1.843
16793SOL    HW152153   3.726  13.379   1.823
16793SOL    HW252154   3.772  13.285   1.933
16794SOL     OW52155   8.751   1.931  14.716
16794SOL    HW152156   8.787   1.996  14.655
16794SOL    HW252157   8.790   1.954  14.801
16795SOL     OW52158   5.809  13.234   8.087
16795SOL    HW152159   5.775  13.316   8.123
16795SOL    HW252160   5.744  13.168   8.112
16796SOL     OW52161  13.833  11.475   5.279
16796SOL    HW152162  13.809  11.458   5.370
16796SOL    HW252163  13.902  11.541   5.284
16797SOL     OW52164   0.726   9.331   2.469
16797SOL    HW152165   0.712   9.355   2.377
16797SOL    HW252166   0.747   9.414   2.512
16798SOL     OW52167   6.404  10.227   6.962
16798SOL    HW152168   6.347  10.195   7.031
16798SOL    HW252169   6.399  10.161   6.893
16799SOL     OW52170   4.629   0.064   9.135
16799SOL    HW152171   4.590   0.054   9.048
16799SOL    HW252172   4.719   0.093   9.118
16800SOL     OW52173   3.373  13.039   7.967
16800SOL    HW152174   3.293  12.989   7.985
16800SOL    HW252175   3.377  13.044   7.871
16801SOL     OW52176   5.074   4.707  12.288
16801SOL    HW152177   5.010   4.711  12.359
16801SOL    HW252178   5.093   4.613  12.279
16802SOL     OW52179   0.669   4.946  14.847
16802SOL    HW152180   0.637   5.036  14.841
16802SOL    HW252181   0.692   4.923  14.756
16803SOL     OW52182   1.006   8.942  11.195
16803SOL    HW152183   0.947   9.008  11.158
16803SOL    HW252184   1.093   8.978  11.182
16804SOL     OW52185   6.778   8.020   9.265
16804SOL    HW152186   6.778   7.925   9.278
16804SOL    HW252187   6.749   8.032   9.174
16805SOL     OW52188  14.092   3.273   7.761
16805SOL    HW152189  14.106   3.346   7.821
16805SOL    HW252190  13.997   3.266   7.754
16806SOL     OW52191  10.110  11.585   1.740
16806SOL    HW152192  10.103  11.507   1.686
16806SOL    HW252193  10.113  11.552   1.830
16807SOL     OW52194   5.217   5.738   3.349
16807SOL    HW152195   5.158   5.686   3.295
16807SOL    HW252196   5.159   5.800   3.395
16808SOL     OW52197   7.974  11.248  13.626
16808SOL    HW152198   7.938  11.225  13.712
16808SOL    HW252199   8.005  11.165  13.590
16809SOL     OW52200   8.999   1.080  10.764
16809SOL    HW152201   9.007   1.130  10.846
16809SOL    HW252202   8.913   1.038  10.771
16810SOL     OW52203  14.097   2.410   9.360
16810SOL    HW152204  14.075   2.433   9.450
16810SOL    HW252205  14.180   2.362   9.367
16811SOL     OW52206   1.618  11.921  14.708
16811SOL    HW152207   1.525  11.941  14.721
16811SOL    HW252208   1.663  11.999  14.740
16812SOL     OW52209  12.077  14.754   7.220
16812SOL    HW152210  12.027  14.677   7.247
16812SOL    HW252211  12.032  14.827   7.262
16813SOL     OW52212  11.031   3.209  12.150
16813SOL    HW152213  11.011   3.122  12.117
16813SOL    HW252214  11.058   3.258  12.072
16814SOL     OW52215   1.259   7.269   8.620
16814SOL    HW152216   1.291   7.322   8.547
16814SOL    HW252217   1.200   7.205   8.579
16815SOL     OW52218   4.451   2.764   3.111
16815SOL    HW152219   4.450   2.676   3.148
16815SOL    HW252220   4.446   2.750   3.016
16816SOL     OW52221   1.753   4.365  10.147
16816SOL    HW152222   1.669   4.394  10.112
16816SOL    HW252223   1.812   4.366  10.072
16817SOL     OW52224  13.729  10.933  10.727
16817SOL    HW152225  13.727  10.853  10.779
16817SOL    HW252226  13.715  11.004  10.790
16818SOL     OW52227   7.948  11.863  10.772
16818SOL    HW152228   7.863  11.864  10.815
16818SOL    HW252229   8.011  11.879  10.843
16819SOL     OW52230  14.729   1.703   8.166
16819SOL    HW152231  14.719   1.779   8.222
16819SOL    HW252232  14.793   1.730   8.099
16820SOL     OW52233   2.211  11.991   8.776
16820SOL    HW152234   2.154  11.930   8.730
16820SOL    HW252235   2.296  11.947   8.779
16821SOL     OW52236   7.775   4.633   8.185
16821SOL    HW152237   7.793   4.553   8.135
16821SOL    HW252238   7.814   4.618   8.270
16822SOL     OW52239  10.530   7.342   2.160
16822SOL    HW152240  10.523   7.376   2.071
16822SOL    HW252241  10.618   7.305   2.165
16823SOL     OW52242   9.020   5.182  12.393
16823SOL    HW152243   8.978   5.243  12.455
16823SOL    HW252244   9.057   5.239  12.326
16824SOL     OW52245  13.757  14.008  12.364
16824SOL    HW152246  13.801  14.087  12.331
16824SOL    HW252247  13.828  13.947  12.383
16825SOL     OW52248   0.829   0.677  11.840
16825SOL    HW152249   0.844   0.625  11.761
16825SOL    HW252250   0.915   0.687  11.880
16826SOL     OW52251   7.107   9.121   9.784
16826SOL    HW152252   7.019   9.144   9.814
16826SOL    HW252253   7.148   9.078   9.859
16827SOL     OW52254   2.730   4.754  11.013
16827SOL    HW152255   2.693   4.757  11.101
16827SOL    HW252256   2.687   4.679  10.971
16828SOL     OW52257   7.847   5.437   8.400
16828SOL    HW152258   7.814   5.412   8.314
16828SOL    HW252259   7.896   5.360   8.430
16829SOL     OW52260   0.182   6.276   8.769
16829SOL    HW152261   0.198   6.200   8.824
16829SOL    HW252262   0.231   6.259   8.689
16830SOL     OW52263   7.505   2.578   9.364
16830SOL    HW152264   7.446   2.599   9.291
16830SOL    HW252265   7.588   2.557   9.321
16831SOL     OW52266   6.154   7.769   1.813
16831SOL    HW152267   6.131   7.848   1.863
16831SOL    HW252268   6.070   7.725   1.799
16832SOL     OW52269   5.706   7.244  14.768
16832SOL    HW152270   5.701   7.332  14.806
16832SOL    HW252271   5.659   7.188  14.830
16833SOL     OW52272   9.863  11.301   6.392
16833SOL    HW152273   9.785  11.355   6.383
16833SOL    HW252274   9.934  11.355   6.358
16834SOL     OW52275  13.522   3.439   6.777
16834SOL    HW152276  13.539   3.436   6.683
16834SOL    HW252277  13.596   3.394   6.817
16835SOL     OW52278   2.809  10.990   1.950
16835SOL    HW152279   2.758  10.993   2.031
16835SOL    HW252280   2.744  10.983   1.880
16836SOL     OW52281  12.436  10.692  14.544
16836SOL    HW152282  12.511  10.739  14.579
16836SOL    HW252283  12.424  10.727  14.456
16837SOL     OW52284   5.502   1.858   8.621
16837SOL    HW152285   5.453   1.813   8.689
16837SOL    HW252286   5.560   1.791   8.585
16838SOL     OW52287   0.099   8.464   0.162
16838SOL    HW152288   0.132   8.519   0.091
16838SOL    HW252289   0.145   8.381   0.152
16839SOL     OW52290   2.690  10.316   5.603
16839SOL    HW152291   2.725  10.246   5.548
16839SOL    HW252292   2.757  10.384   5.602
16840SOL     OW52293  14.125  11.610   3.639
16840SOL    HW152294  14.146  11.550   3.567
16840SOL    HW252295  14.188  11.587   3.708
16841SOL     OW52296   1.644  11.353   8.258
16841SOL    HW152297   1.631  11.261   8.235
16841SOL    HW252298   1.663  11.352   8.352
16842SOL     OW52299   4.951   4.096   8.454
16842SOL    HW152300   4.897   4.048   8.517
16842SOL    HW252301   4.897   4.099   8.374
16843SOL     OW52302  14.464  12.690  10.877
16843SOL    HW152303  14.426  12.715  10.793
16843SOL    HW252304  14.391  12.655  10.928
16844SOL     OW52305   3.360  10.982  14.196
16844SOL    HW152306   3.397  11.066  14.168
16844SOL    HW252307   3.300  11.005  14.267
16845SOL     OW52308  12.339   9.108   7.236
16845SOL    HW152309  12.375   9.145   7.156
16845SOL    HW252310  12.312   9.185   7.288
16846SOL     OW52311   3.491   7.132  12.505
16846SOL    HW152312   3.468   7.039  12.505
16846SOL    HW252313   3.424   7.173  12.559
16847SOL     OW52314   2.048   2.032   5.347
16847SOL    HW152315   2.135   2.066   5.324
16847SOL    HW252316   2.008   2.010   5.263
16848SOL     OW52317   5.938  12.182  13.470
16848SOL    HW152318   5.914  12.131  13.393
16848SOL    HW252319   5.899  12.136  13.544
16849SOL     OW52320   8.331   1.707   5.974
16849SOL    HW152321   8.416   1.706   5.931
16849SOL    HW252322   8.273   1.661   5.913
16850SOL     OW52323   5.023  12.609  12.992
16850SOL    HW152324   5.012  12.596  12.898
16850SOL    HW252325   4.949  12.663  13.018
16851SOL     OW52326  10.871   0.534  10.618
16851SOL    HW152327  10.861   0.619  10.575
16851SOL    HW252328  10.863   0.554  10.712
16852SOL     OW52329   1.954   3.427  10.359
16852SOL    HW152330   1.902   3.508  10.365
16852SOL    HW252331   1.975   3.419  10.266
16853SOL     OW52332   3.915   8.559  12.497
16853SOL    HW152333   3.881   8.508  12.571
16853SOL    HW252334   3.993   8.603  12.532
16854SOL     OW52335  11.091   2.431   6.256
16854SOL    HW152336  11.144   2.450   6.334
16854SOL    HW252337  11.075   2.337   6.261
16855SOL     OW52338   2.956   0.925   2.289
16855SOL    HW152339   2.903   0.968   2.356
16855SOL    HW252340   2.971   0.837   2.323
16856SOL     OW52341   2.095   2.962   2.504
16856SOL    HW152342   2.186   2.992   2.507
16856SOL    HW252343   2.078   2.928   2.592
16857SOL     OW52344  14.605  12.360   6.217
16857SOL    HW152345  14.684  12.388   6.264
16857SOL    HW252346  14.588  12.272   6.250
16858SOL     OW52347   3.297   2.907  13.160
16858SOL    HW152348   3.359   2.896  13.087
16858SOL    HW252349   3.246   2.826  13.160
16859SOL     OW52350   3.773   9.898   5.705
16859SOL    HW152351   3.815   9.825   5.659
16859SOL    HW252352   3.762   9.867   5.795
16860SOL     OW52353  10.077   0.377   4.509
16860SOL    HW152354  10.172   0.391   4.507
16860SOL    HW252355  10.054   0.359   4.418
16861SOL     OW52356   6.855   4.027  13.823
16861SOL    HW152357   6.829   4.111  13.786
16861SOL    HW252358   6.913   3.989  13.757
16862SOL     OW52359  13.136   1.883  11.682
16862SOL    HW152360  13.046   1.865  11.655
16862SOL    HW252361  13.136   1.975  11.709
16863SOL     OW52362   4.683  10.948   7.328
16863SOL    HW152363   4.741  11.006   7.278
16863SOL    HW252364   4.718  10.860   7.314
16864SOL     OW52365   7.333   1.661   2.669
16864SOL    HW152366   7.261   1.608   2.703
16864SOL    HW252367   7.392   1.672   2.744
16865SOL     OW52368  12.820  12.449  13.271
16865SOL    HW152369  12.761  12.511  13.315
16865SOL    HW252370  12.894  12.503  13.242
16866SOL     OW52371   2.212   0.988   6.559
16866SOL    HW152372   2.128   0.942   6.565
16866SOL    HW252373   2.249   0.959   6.476
16867SOL     OW52374   6.005  14.097   7.262
16867SOL    HW152375   6.069  14.054   7.319
16867SOL    HW252376   5.920  14.073   7.299
16868SOL     OW52377   6.475   8.199   8.766
16868SOL    HW152378   6.541   8.149   8.719
16868SOL    HW252379   6.504   8.290   8.759
16869SOL     OW52380   2.732   7.040   4.183
16869SOL    HW152381   2.716   7.056   4.276
16869SOL    HW252382   2.649   7.060   4.140
16870SOL     OW52383   0.560   1.282   9.838
16870SOL    HW152384   0.616   1.263   9.762
16870SOL    HW252385   0.618   1.330   9.898
16871SOL     OW52386   9.631   1.976   5.646
16871SOL    HW152387   9.620   2.054   5.701
16871SOL    HW252388   9.705   1.997   5.590
16872SOL     OW52389  11.168  12.047   8.213
16872SOL    HW152390  11.182  12.130   8.167
16872SOL    HW252391  11.080  12.020   8.189
16873SOL     OW52392  13.495   0.558   4.575
16873SOL    HW152393  13.404   0.582   4.557
16873SOL    HW252394  13.506   0.472   4.535
16874SOL     OW52395  13.073   2.861   6.720
16874SOL    HW152396  13.095   2.773   6.690
16874SOL    HW252397  13.138   2.918   6.677
16875SOL     OW52398  11.673  11.875   0.154
16875SOL    HW152399  11.688  11.820   0.078
16875SOL    HW252400  11.692  11.818   0.229
16876SOL     OW52401   7.154   6.160   2.995
16876SOL    HW152402   7.064   6.132   2.978
16876SOL    HW252403   7.159   6.170   3.090
16877SOL     OW52404   3.465   8.478   6.584
16877SOL    HW152405   3.497   8.565   6.560
16877SOL    HW252406   3.537   8.439   6.634
16878SOL     OW52407   7.952   6.598   6.316
16878SOL    HW152408   7.911   6.577   6.399
16878SOL    HW252409   7.966   6.513   6.273
16879SOL     OW52410  13.502   8.579   4.209
16879SOL    HW152411  13.518   8.615   4.122
16879SOL    HW252412  13.416   8.537   4.201
16880SOL     OW52413   3.323  13.803   9.964
16880SOL    HW152414   3.325  13.840  10.052
16880SOL    HW252415   3.277  13.719   9.974
16881SOL     OW52416   9.674   1.737  14.383
16881SOL    HW152417   9.664   1.642  14.395
16881SOL    HW252418   9.619   1.776  14.450
16882SOL     OW52419   7.772   4.946  14.143
16882SOL    HW152420   7.859   4.976  14.168
16882SOL    HW252421   7.787   4.889  14.067
16883SOL     OW52422   6.383  10.190   9.453
16883SOL    HW152423   6.423  10.114   9.411
16883SOL    HW252424   6.402  10.178   9.546
16884SOL     OW52425   8.727  14.414  12.605
16884SOL    HW152426   8.632  14.409  12.608
16884SOL    HW252427   8.747  14.506  12.621
16885SOL     OW52428   9.197   4.992  12.502
16885SOL    HW152429   9.132   5.049  12.462
16885SOL    HW252430   9.215   5.032  12.587
16886SOL     OW52431   9.940  10.980  11.123
16886SOL    HW152432   9.969  10.957  11.035
16886SOL    HW252433   9.979  10.914  11.180
16887SOL     OW52434   2.481  13.139   2.025
16887SOL    HW152435   2.500  13.076   1.956
16887SOL    HW252436   2.557  13.135   2.083
16888SOL     OW52437   3.471   1.675   1.164
16888SOL    HW152438   3.416   1.603   1.196
16888SOL    HW252439   3.556   1.635   1.146
16889SOL     OW52440  13.571   7.169  11.263
16889SOL    HW152441  13.570   7.263  11.282
16889SOL    HW252442  13.561   7.127  11.348
16890SOL     OW52443   8.566   5.511  13.909
16890SOL    HW152444   8.483   5.523  13.864
16890SOL    HW252445   8.607   5.598  13.906
16891SOL     OW52446  13.195  10.933  12.077
16891SOL    HW152447  13.124  10.868  12.076
16891SOL    HW252448  13.233  10.928  11.989
16892SOL     OW52449   3.018   8.983  12.178
16892SOL    HW152450   3.079   8.912  12.195
16892SOL    HW252451   3.036   9.010  12.088
16893SOL     OW52452   3.422   2.071   5.369
16893SOL    HW152453   3.446   2.088   5.461
16893SOL    HW252454   3.465   1.988   5.348
16894SOL     OW52455   6.431  14.655  10.585
16894SOL    HW152456   6.497  14.691  10.643
16894SOL    HW252457   6.478  14.589  10.533
16895SOL     OW52458   4.523  10.948  13.672
16895SOL    HW152459   4.544  11.002  13.596
16895SOL    HW252460   4.431  10.967  13.691
16896SOL     OW52461  14.153   3.092   1.151
16896SOL    HW152462  14.109   3.009   1.164
16896SOL    HW252463  14.244   3.076   1.177
16897SOL     OW52464   7.728   7.410   8.858
16897SOL    HW152465   7.822   7.402   8.842
16897SOL    HW252466   7.719   7.493   8.905
16898SOL     OW52467   8.280   5.459   0.607
16898SOL    HW152468   8.278   5.550   0.639
16898SOL    HW252469   8.276   5.467   0.512
16899SOL     OW52470   4.550  13.711   8.735
16899SOL    HW152471   4.635  13.754   8.727
16899SOL    HW252472   4.500  13.744   8.660
16900SOL     OW52473   2.728   7.449   0.833
16900SOL    HW152474   2.823   7.438   0.835
16900SOL    HW252475   2.698   7.421   0.919
16901SOL     OW52476   9.431  10.765  10.885
16901SOL    HW152477   9.408  10.684  10.931
16901SOL    HW252478   9.504  10.741  10.829
16902SOL     OW52479   3.417   5.311   5.655
16902SOL    HW152480   3.476   5.236   5.647
16902SOL    HW252481   3.338   5.286   5.608
16903SOL     OW52482  14.591   4.590   3.453
16903SOL    HW152483  14.653   4.604   3.524
16903SOL    HW252484  14.510   4.564   3.497
16904SOL     OW52485  13.352  12.636   8.802
16904SOL    HW152486  13.428  12.667   8.850
16904SOL    HW252487  13.314  12.568   8.858
16905SOL     OW52488   5.048   1.552  12.793
16905SOL    HW152489   5.129   1.508  12.818
16905SOL    HW252490   5.069   1.593  12.709
16906SOL     OW52491   1.321   0.669   1.401
16906SOL    HW152492   1.379   0.677   1.325
16906SOL    HW252493   1.273   0.752   1.404
16907SOL     OW52494   2.888   2.234  12.484
16907SOL    HW152495   2.867   2.158  12.429
16907SOL    HW252496   2.907   2.197  12.570
16908SOL     OW52497  11.970   8.285   0.183
16908SOL    HW152498  11.902   8.250   0.126
16908SOL    HW252499  11.924   8.347   0.240
16909SOL     OW52500   7.542  11.956   0.317
16909SOL    HW152501   7.567  12.019   0.385
16909SOL    HW252502   7.611  11.891   0.318
16910SOL     OW52503   5.165  10.896   3.864
16910SOL    HW152504   5.119  10.813   3.876
16910SOL    HW252505   5.095  10.961   3.855
16911SOL     OW52506  11.061   6.380   9.173
16911SOL    HW152507  11.095   6.470   9.167
16911SOL    HW252508  10.975   6.385   9.132
16912SOL     OW52509  11.748  10.029   6.668
16912SOL    HW152510  11.713  10.100   6.721
16912SOL    HW252511  11.832  10.008   6.708
16913SOL     OW52512   3.975  11.009   3.437
16913SOL    HW152513   3.883  10.983   3.428
16913SOL    HW252514   3.971  11.094   3.480
16914SOL     OW52515  12.624   0.592   3.395
16914SOL    HW152516  12.647   0.671   3.346
16914SOL    HW252517  12.706   0.564   3.436
16915SOL     OW52518  12.974   4.183  11.754
16915SOL    HW152519  12.957   4.272  11.785
16915SOL    HW252520  12.993   4.194  11.660
16916SOL     OW52521   5.406   9.374  14.823
16916SOL    HW152522   5.361   9.293  14.802
16916SOL    HW252523   5.347   9.444  14.794
16917SOL     OW52524  10.677   2.979   6.101
16917SOL    HW152525  10.698   2.890   6.074
16917SOL    HW252526  10.593   2.998   6.060
16918SOL     OW52527   8.256   3.515   9.940
16918SOL    HW152528   8.249   3.582   9.873
16918SOL    HW252529   8.166   3.499   9.968
16919SOL     OW52530  14.622   4.794   4.549
16919SOL    HW152531  14.527   4.786   4.548
16919SOL    HW252532  14.653   4.718   4.598
16920SOL     OW52533  13.708   1.970   3.624
16920SOL    HW152534  13.619   1.969   3.660
16920SOL    HW252535  13.697   2.004   3.535
16921SOL     OW52536   4.208   5.190  14.854
16921SOL    HW152537   4.237   5.217   0.060
16921SOL    HW252538   4.134   5.248  14.835
16922SOL     OW52539   1.695   4.701   3.417
16922SOL    HW152540   1.724   4.784   3.378
16922SOL    HW252541   1.768   4.675   3.473
16923SOL     OW52542   8.848  11.579   6.221
16923SOL    HW152543   8.851  11.619   6.308
16923SOL    HW252544   8.938  11.587   6.188
16924SOL     OW52545  12.626  11.110   0.154
16924SOL    HW152546  12.696  11.046   0.140
16924SOL    HW252547  12.630  11.131   0.247
16925SOL     OW52548   9.660  14.075  14.541
16925SOL    HW152549   9.621  14.096  14.626
16925SOL    HW252550   9.621  14.138  14.480
16926SOL     OW52551   7.855  10.485   8.763
16926SOL    HW152552   7.762  10.484   8.740
16926SOL    HW252553   7.900  10.457   8.684
16927SOL     OW52554   9.968  13.851   2.958
16927SOL    HW152555  10.023  13.886   2.887
16927SOL    HW252556   9.910  13.788   2.915
16928SOL     OW52557   6.294   1.006   2.880
16928SOL    HW152558   6.360   1.060   2.835
16928SOL    HW252559   6.323   0.916   2.865
16929SOL     OW52560   8.123  10.021  12.018
16929SOL    HW152561   8.071  10.100  12.004
16929SOL    HW252562   8.062   9.958  12.055
16930SOL     OW52563   3.981   8.696   0.942
16930SOL    HW152564   3.929   8.676   0.864
16930SOL    HW252565   4.054   8.748   0.909
16931SOL     OW52566   1.805  12.235   0.741
16931SOL    HW152567   1.760  12.267   0.663
16931SOL    HW252568   1.742  12.176   0.783
16932SOL     OW52569   8.068   5.380   6.469
16932SOL    HW152570   8.077   5.419   6.555
16932SOL    HW252571   7.975   5.361   6.459
16933SOL     OW52572  13.852   8.505   5.783
16933SOL    HW152573  13.867   8.442   5.853
16933SOL    HW252574  13.757   8.516   5.780
16934SOL     OW52575   7.299   0.788   1.486
16934SOL    HW152576   7.344   0.779   1.570
16934SOL    HW252577   7.228   0.851   1.503
16935SOL     OW52578  10.482   1.498  10.591
16935SOL    HW152579  10.564   1.482  10.638
16935SOL    HW252580  10.497   1.461  10.504
16936SOL     OW52581   1.303  14.861   6.064
16936SOL    HW152582   1.244   0.028   6.122
16936SOL    HW252583   1.319   0.040   5.991
16937SOL     OW52584  11.950  14.733   5.389
16937SOL    HW152585  11.914  14.660   5.340
16937SOL    HW252586  11.922  14.718   5.479
16938SOL     OW52587   7.386  14.873  14.470
16938SOL    HW152588   7.471   0.010  14.510
16938SOL    HW252589   7.334  14.837  14.542
16939SOL     OW52590  14.408  10.106   8.155
16939SOL    HW152591  14.479  10.165   8.177
16939SOL    HW252592  14.328  10.157   8.170
16940SOL     OW52593   4.823   8.286   1.395
16940SOL    HW152594   4.793   8.376   1.384
16940SOL    HW252595   4.813   8.246   1.308
16941SOL     OW52596  10.411   6.558  14.336
16941SOL    HW152597  10.476   6.494  14.363
16941SOL    HW252598  10.337   6.544  14.396
16942SOL     OW52599   5.730   1.759   2.448
16942SOL    HW152600   5.729   1.825   2.517
16942SOL    HW252601   5.655   1.780   2.393
16943SOL     OW52602   5.240  12.672  13.134
16943SOL    HW152603   5.154  12.646  13.100
16943SOL    HW252604   5.270  12.596  13.184
16944SOL     OW52605   5.629   4.896   1.963
16944SOL    HW152606   5.588   4.936   1.887
16944SOL    HW252607   5.567   4.910   2.035
16945SOL     OW52608   0.264   2.563   6.052
16945SOL    HW152609   0.230   2.580   5.965
16945SOL    HW252610   0.250   2.470   6.067
16946SOL     OW52611   4.493   3.635  10.256
16946SOL    HW152612   4.532   3.708  10.207
16946SOL    HW252613   4.512   3.655  10.348
16947SOL     OW52614   2.514   3.613   2.184
16947SOL    HW152615   2.540   3.543   2.125
16947SOL    HW252616   2.540   3.582   2.271
16948SOL     OW52617   0.277   8.309   4.618
16948SOL    HW152618   0.217   8.375   4.583
16948SOL    HW252619   0.354   8.314   4.563
16949SOL     OW52620   2.323  12.913  11.879
16949SOL    HW152621   2.344  13.006  11.870
16949SOL    HW252622   2.408  12.869  11.880
16950SOL     OW52623   8.243   0.974   0.579
16950SOL    HW152624   8.236   1.069   0.588
16950SOL    HW252625   8.217   0.940   0.665
16951SOL     OW52626   2.009   6.669   8.129
16951SOL    HW152627   1.917   6.664   8.155
16951SOL    HW252628   2.044   6.581   8.146
16952SOL     OW52629   7.562   3.147   2.723
16952SOL    HW152630   7.640   3.093   2.736
16952SOL    HW252631   7.582   3.202   2.647
16953SOL     OW52632   0.683  10.241  12.550
16953SOL    HW152633   0.698  10.282  12.466
16953SOL    HW252634   0.613  10.293  12.590
16954SOL     OW52635   5.444   0.175  10.930
16954SOL    HW152636   5.531   0.146  10.904
16954SOL    HW252637   5.445   0.270  10.919
16955SOL     OW52638  13.318  11.529  11.708
16955SOL    HW152639  13.305  11.499  11.618
16955SOL    HW252640  13.283  11.618  11.709
16956SOL     OW52641   0.035   3.711   0.915
16956SOL    HW152642   0.069   3.797   0.891
16956SOL    HW252643  14.821   3.723   0.915
16957SOL     OW52644   6.833   5.754   7.476
16957SOL    HW152645   6.783   5.682   7.515
16957SOL    HW252646   6.773   5.829   7.479
16958SOL     OW52647  10.938   0.651   5.708
16958SOL    HW152648  10.922   0.560   5.734
16958SOL    HW252649  11.033   0.655   5.696
16959SOL     OW52650  11.285   0.960  12.670
16959SOL    HW152651  11.249   0.877  12.639
16959SOL    HW252652  11.219   0.993  12.731
16960SOL     OW52653  12.488  13.592   7.403
16960SOL    HW152654  12.493  13.503   7.369
16960SOL    HW252655  12.483  13.648   7.326
16961SOL     OW52656  10.223  10.934   6.533
16961SOL    HW152657  10.139  10.899   6.562
16961SOL    HW252658  10.206  10.971   6.447
16962SOL     OW52659   6.125   0.227   2.137
16962SOL    HW152660   6.048   0.272   2.104
16962SOL    HW252661   6.129   0.251   2.230
16963SOL     OW52662  12.404   5.766  11.990
16963SOL    HW152663  12.403   5.799  11.901
16963SOL    HW252664  12.336   5.816  12.035
16964SOL     OW52665  10.148   0.446   7.801
16964SOL    HW152666  10.113   0.464   7.714
16964SOL    HW252667  10.112   0.515   7.856
16965SOL     OW52668   2.887  14.561  13.434
16965SOL    HW152669   2.928  14.496  13.378
16965SOL    HW252670   2.955  14.626  13.451
16966SOL     OW52671   3.371  12.086   3.655
16966SOL    HW152672   3.296  12.140   3.682
16966SOL    HW252673   3.379  12.101   3.561
16967SOL     OW52674   9.213   5.899   8.093
16967SOL    HW152675   9.264   5.823   8.121
16967SOL    HW252676   9.157   5.920   8.168
16968SOL     OW52677  14.144   1.995   4.252
16968SOL    HW152678  14.123   1.925   4.190
16968SOL    HW252679  14.073   2.058   4.241
16969SOL     OW52680   7.982   0.771   1.011
16969SOL    HW152681   7.996   0.839   1.077
16969SOL    HW252682   7.958   0.693   1.061
16970SOL     OW52683   4.261   2.958   2.989
16970SOL    HW152684   4.347   2.936   3.026
16970SOL    HW252685   4.205   2.886   3.017
16971SOL     OW52686   1.613   7.545   3.492
16971SOL    HW152687   1.557   7.529   3.567
16971SOL    HW252688   1.677   7.609   3.523
16972SOL     OW52689   7.281  14.618  13.596
16972SOL    HW152690   7.270  14.632  13.690
16972SOL    HW252691   7.237  14.535  13.578
16973SOL     OW52692   7.692   9.022   8.943
16973SOL    HW152693   7.711   8.943   8.993
16973SOL    HW252694   7.758   9.023   8.874
16974SOL     OW52695   8.477   1.153   3.863
16974SOL    HW152696   8.410   1.100   3.905
16974SOL    HW252697   8.460   1.242   3.894
16975SOL     OW52698   5.121  13.040   2.620
16975SOL    HW152699   5.055  12.991   2.571
16975SOL    HW252700   5.173  12.973   2.665
16976SOL     OW52701  14.315   2.199   5.743
16976SOL    HW152702  14.335   2.277   5.690
16976SOL    HW252703  14.338   2.225   5.832
16977SOL     OW52704   9.802   4.877   9.249
16977SOL    HW152705   9.754   4.914   9.175
16977SOL    HW252706   9.744   4.809   9.283
16978SOL     OW52707  12.863   8.415  10.367
16978SOL    HW152708  12.918   8.484  10.331
16978SOL    HW252709  12.797   8.400  10.300
16979SOL     OW52710  13.562   9.751   3.635
16979SOL    HW152711  13.621   9.682   3.666
16979SOL    HW252712  13.592   9.830   3.680
16980SOL     OW52713   2.033   1.976  13.305
16980SOL    HW152714   1.948   2.004  13.337
16980SOL    HW252715   2.043   1.886  13.336
16981SOL     OW52716  13.465  13.931   9.947
16981SOL    HW152717  13.462  13.837   9.930
16981SOL    HW252718  13.386  13.949   9.998
16982SOL     OW52719  14.361   7.774  13.957
16982SOL    HW152720  14.306   7.839  13.913
16982SOL    HW252721  14.442   7.820  13.977
16983SOL     OW52722  10.264  11.100   8.585
16983SOL    HW152723  10.187  11.141   8.547
16983SOL    HW252724  10.229  11.037   8.648
16984SOL     OW52725   3.933   2.115  14.779
16984SOL    HW152726   3.943   2.201  14.738
16984SOL    HW252727   4.023   2.085  14.793
16985SOL     OW52728   1.838   9.797  12.730
16985SOL    HW152729   1.774   9.817  12.663
16985SOL    HW252730   1.794   9.735  12.788
16986SOL     OW52731   6.975   4.012   0.144
16986SOL    HW152732   6.978   3.955   0.222
16986SOL    HW252733   6.933   4.092   0.175
16987SOL     OW52734  14.436  10.419   3.129
16987SOL    HW152735  14.437  10.348   3.065
16987SOL    HW252736  14.356  10.468   3.110
16988SOL     OW52737  10.975  12.390   9.264
16988SOL    HW152738  11.000  12.327   9.331
16988SOL    HW252739  11.012  12.355   9.183
16989SOL     OW52740   5.229  13.670   6.916
16989SOL    HW152741   5.315  13.632   6.937
16989SOL    HW252742   5.238  13.763   6.939
16990SOL     OW52743   0.086   5.447  14.231
16990SOL    HW152744   0.101   5.539  14.256
16990SOL    HW252745  14.873   5.441  14.218
16991SOL     OW52746   2.833   4.457   0.988
16991SOL    HW152747   2.877   4.499   0.914
16991SOL    HW252748   2.841   4.520   1.060
16992SOL     OW52749  10.115   2.195  14.171
16992SOL    HW152750  10.100   2.187  14.076
16992SOL    HW252751  10.028   2.189  14.210
16993SOL     OW52752  10.528  10.011   0.460
16993SOL    HW152753  10.507   9.958   0.537
16993SOL    HW252754  10.607  10.059   0.484
16994SOL     OW52755  11.108   7.722   6.057
16994SOL    HW152756  11.069   7.759   5.978
16994SOL    HW252757  11.060   7.765   6.129
16995SOL     OW52758   0.351   1.331   3.195
16995SOL    HW152759   0.293   1.354   3.268
16995SOL    HW252760   0.302   1.265   3.146
16996SOL     OW52761  11.295   3.039   2.540
16996SOL    HW152762  11.228   2.971   2.548
16996SOL    HW252763  11.343   3.016   2.460
16997SOL     OW52764  11.062   2.642   9.015
16997SOL    HW152765  10.985   2.689   8.981
16997SOL    HW252766  11.114   2.710   9.058
16998SOL     OW52767   6.355   7.614   9.475
16998SOL    HW152768   6.356   7.567   9.558
16998SOL    HW252769   6.354   7.706   9.499
16999SOL     OW52770  11.465   4.870   8.088
16999SOL    HW152771  11.404   4.863   8.161
16999SOL    HW252772  11.442   4.797   8.031
17000SOL     OW52773  14.018   7.439   8.639
17000SOL    HW152774  14.028   7.345   8.654
17000SOL    HW252775  14.082   7.460   8.570
17001SOL     OW52776   5.816   1.248  14.360
17001SOL    HW152777   5.727   1.252  14.397
17001SOL    HW252778   5.803   1.261  14.266
17002SOL     OW52779   1.321  11.690   2.490
17002SOL    HW152780   1.297  11.764   2.547
17002SOL    HW252781   1.352  11.623   2.551
17003SOL     OW52782   9.418  12.521   4.180
17003SOL    HW152783   9.507  12.550   4.162
17003SOL    HW252784   9.367  12.602   4.188
17004SOL     OW52785   4.233   0.576   6.815
17004SOL    HW152786   4.325   0.584   6.841
17004SOL    HW252787   4.203   0.667   6.808
17005SOL     OW52788   8.947   1.806   5.123
17005SOL    HW152789   8.874   1.848   5.078
17005SOL    HW252790   8.977   1.737   5.063
17006SOL     OW52791  11.908   7.086  13.567
17006SOL    HW152792  11.896   6.994  13.590
17006SOL    HW252793  11.950   7.125  13.644
17007SOL     OW52794   2.102   7.307   5.164
17007SOL    HW152795   2.018   7.260   5.164
17007SOL    HW252796   2.078   7.397   5.144
17008SOL     OW52797  11.672   5.296  13.445
17008SOL    HW152798  11.608   5.343  13.392
17008SOL    HW252799  11.757   5.329  13.414
17009SOL     OW52800   6.785  14.582  11.594
17009SOL    HW152801   6.701  14.627  11.605
17009SOL    HW252802   6.849  14.639  11.636
17010SOL     OW52803   1.206   2.534   7.342
17010SOL    HW152804   1.228   2.506   7.253
17010SOL    HW252805   1.140   2.471   7.371
17011SOL     OW52806  13.628   2.267   4.499
17011SOL    HW152807  13.580   2.207   4.556
17011SOL    HW252808  13.601   2.242   4.410
17012SOL     OW52809   6.739   5.816   4.893
17012SOL    HW152810   6.672   5.852   4.951
17012SOL    HW252811   6.741   5.876   4.818
17013SOL     OW52812   2.395  13.202   4.896
17013SOL    HW152813   2.314  13.237   4.931
17013SOL    HW252814   2.447  13.180   4.973
17014SOL     OW52815  14.853  11.279   3.127
17014SOL    HW152816  14.824  11.357   3.079
17014SOL    HW252817  14.772  11.232   3.146
17015SOL     OW52818   2.881   2.200   2.445
17015SOL    HW152819   2.886   2.289   2.482
17015SOL    HW252820   2.883   2.214   2.350
17016SOL     OW52821   9.592   7.817   3.856
17016SOL    HW152822   9.553   7.743   3.809
17016SOL    HW252823   9.532   7.890   3.841
17017SOL     OW52824  14.490   7.485   7.676
17017SOL    HW152825  14.396   7.480   7.660
17017SOL    HW252826  14.505   7.573   7.709
17018SOL     OW52827  14.567   7.727   8.071
17018SOL    HW152828  14.494   7.763   8.120
17018SOL    HW252829  14.591   7.796   8.008
17019SOL     OW52830   1.724  13.734   4.680
17019SOL    HW152831   1.753  13.741   4.589
17019SOL    HW252832   1.680  13.817   4.698
17020SOL     OW52833  10.336  11.463   8.607
17020SOL    HW152834  10.364  11.399   8.543
17020SOL    HW252835  10.406  11.465   8.672
17021SOL     OW52836   4.589   9.008  14.573
17021SOL    HW152837   4.628   9.095  14.565
17021SOL    HW252838   4.495   9.024  14.575
17022SOL     OW52839   2.144   4.646   2.809
17022SOL    HW152840   2.131   4.641   2.904
17022SOL    HW252841   2.239   4.648   2.798
17023SOL     OW52842   0.988  14.314   4.390
17023SOL    HW152843   0.936  14.279   4.318
17023SOL    HW252844   1.051  14.245   4.410
17024SOL     OW52845   8.603   0.050   4.504
17024SOL    HW152846   8.695   0.065   4.483
17024SOL    HW252847   8.604   0.002   4.586
17025SOL     OW52848   4.280  13.019  12.229
17025SOL    HW152849   4.355  13.078  12.218
17025SOL    HW252850   4.232  13.055  12.303
17026SOL     OW52851   2.038   2.013   3.555
17026SOL    HW152852   2.007   1.962   3.481
17026SOL    HW252853   2.023   2.104   3.530
17027SOL     OW52854  14.227   4.648   6.554
17027SOL    HW152855  14.135   4.674   6.546
17027SOL    HW252856  14.241   4.587   6.482
17028SOL     OW52857   9.379   6.071   3.019
17028SOL    HW152858   9.368   5.976   3.014
17028SOL    HW252859   9.404   6.097   2.930
17029SOL     OW52860   8.835   4.619   7.000
17029SOL    HW152861   8.906   4.559   6.978
17029SOL    HW252862   8.818   4.668   6.919
17030SOL     OW52863   2.638   5.472   7.475
17030SOL    HW152864   2.687   5.402   7.432
17030SOL    HW252865   2.667   5.552   7.431
17031SOL     OW52866   3.733  12.529   4.764
17031SOL    HW152867   3.782  12.502   4.842
17031SOL    HW252868   3.716  12.622   4.778
17032SOL     OW52869   9.781  13.425  11.416
17032SOL    HW152870   9.765  13.520  11.417
17032SOL    HW252871   9.765  13.399  11.326
17033SOL     OW52872   6.200  11.504   6.596
17033SOL    HW152873   6.264  11.574   6.582
17033SOL    HW252874   6.214  11.478   6.687
17034SOL     OW52875  13.447  14.180  10.266
17034SOL    HW152876  13.531  14.138  10.246
17034SOL    HW252877  13.469  14.247  10.331
17035SOL     OW52878   7.022  13.884   9.621
17035SOL    HW152879   7.070  13.959   9.587
17035SOL    HW252880   7.090  13.817   9.635
17036SOL     OW52881  12.785   1.323  13.970
17036SOL    HW152882  12.713   1.293  13.916
17036SOL    HW252883  12.860   1.327  13.911
17037SOL     OW52884  13.645   0.314  11.886
17037SOL    HW152885  13.692   0.351  11.812
17037SOL    HW252886  13.553   0.335  11.869
17038SOL     OW52887   3.089   9.262   0.680
17038SOL    HW152888   3.020   9.328   0.688
17038SOL    HW252889   3.151   9.300   0.618
17039SOL     OW52890   8.145   1.037   7.036
17039SOL    HW152891   8.191   1.104   7.087
17039SOL    HW252892   8.136   1.075   6.949
17040SOL     OW52893   9.656  14.405   7.559
17040SOL    HW152894   9.725  14.447   7.609
17040SOL    HW252895   9.661  14.445   7.473
17041SOL     OW52896   2.679   8.523   7.672
17041SOL    HW152897   2.671   8.441   7.623
17041SOL    HW252898   2.637   8.505   7.756
17042SOL     OW52899  11.888  13.665   6.652
17042SOL    HW152900  11.868  13.725   6.580
17042SOL    HW252901  11.908  13.582   6.610
17043SOL     OW52902   6.327   3.395   8.776
17043SOL    HW152903   6.388   3.420   8.846
17043SOL    HW252904   6.382   3.386   8.698
17044SOL     OW52905   7.235   2.854  11.411
17044SOL    HW152906   7.210   2.937  11.371
17044SOL    HW252907   7.329   2.864  11.428
17045SOL     OW52908  10.919  14.764   4.714
17045SOL    HW152909  10.891  14.673   4.710
17045SOL    HW252910  10.907  14.797   4.625
17046SOL     OW52911   7.306   6.663  14.212
17046SOL    HW152912   7.346   6.744  14.242
17046SOL    HW252913   7.280   6.682  14.121
17047SOL     OW52914   9.622   9.465  11.027
17047SOL    HW152915   9.612   9.432  11.117
17047SOL    HW252916   9.712   9.499  11.024
17048SOL     OW52917  13.735   2.946   5.798
17048SOL    HW152918  13.667   2.882   5.774
17048SOL    HW252919  13.714   3.024   5.748
17049SOL     OW52920  14.868   3.536   9.898
17049SOL    HW152921   0.039   3.568   9.824
17049SOL    HW252922  14.856   3.613   9.954
17050SOL     OW52923   6.536   7.673  13.200
17050SOL    HW152924   6.559   7.599  13.144
17050SOL    HW252925   6.601   7.741  13.177
17051SOL     OW52926   2.097   8.009  12.649
17051SOL    HW152927   2.128   8.060  12.724
17051SOL    HW252928   2.024   8.059  12.613
17052SOL     OW52929  12.288   0.494  12.101
17052SOL    HW152930  12.246   0.445  12.172
17052SOL    HW252931  12.232   0.479  12.025
17053SOL     OW52932   5.605  12.181  10.143
17053SOL    HW152933   5.547  12.256  10.155
17053SOL    HW252934   5.569  12.136  10.065
17054SOL     OW52935   8.778  13.018  12.832
17054SOL    HW152936   8.785  13.096  12.887
17054SOL    HW252937   8.715  12.962  12.878
17055SOL     OW52938   9.348  12.521  11.693
17055SOL    HW152939   9.277  12.526  11.757
17055SOL    HW252940   9.350  12.607  11.652
17056SOL     OW52941   4.078   5.658   6.238
17056SOL    HW152942   4.076   5.744   6.281
17056SOL    HW252943   4.034   5.600   6.300
17057SOL     OW52944   7.255   7.087   3.679
17057SOL    HW152945   7.348   7.067   3.672
17057SOL    HW252946   7.252   7.183   3.683
17058SOL     OW52947   3.267   5.202   7.721
17058SOL    HW152948   3.221   5.278   7.757
17058SOL    HW252949   3.267   5.216   7.626
17059SOL     OW52950   2.092   1.759  10.110
17059SOL    HW152951   2.131   1.676  10.137
17059SOL    HW252952   2.162   1.823  10.123
17060SOL     OW52953   5.773   4.227   8.514
17060SOL    HW152954   5.821   4.277   8.448
17060SOL    HW252955   5.695   4.196   8.469
17061SOL     OW52956   9.965  13.372   6.753
17061SOL    HW152957   9.929  13.298   6.704
17061SOL    HW252958   9.995  13.335   6.836
17062SOL     OW52959   5.520  11.151  14.198
17062SOL    HW152960   5.538  11.243  14.215
17062SOL    HW252961   5.602  11.117  14.162
17063SOL     OW52962   4.592  12.245  13.607
17063SOL    HW152963   4.622  12.155  13.598
17063SOL    HW252964   4.608  12.285  13.522
17064SOL     OW52965   9.112   8.148  10.934
17064SOL    HW152966   9.156   8.113  11.011
17064SOL    HW252967   9.047   8.082  10.911
17065SOL     OW52968   8.959   7.710  10.522
17065SOL    HW152969   8.889   7.768  10.490
17065SOL    HW252970   9.022   7.706  10.450
17066SOL     OW52971   5.315   9.482  14.401
17066SOL    HW152972   5.262   9.548  14.358
17066SOL    HW252973   5.388   9.466  14.340
17067SOL     OW52974   4.274  12.022   2.024
17067SOL    HW152975   4.256  12.022   1.930
17067SOL    HW252976   4.236  11.940   2.056
17068SOL     OW52977   5.858   4.719   8.744
17068SOL    HW152978   5.893   4.725   8.833
17068SOL    HW252979   5.917   4.659   8.699
17069SOL     OW52980   4.109   9.660  10.521
17069SOL    HW152981   4.131   9.584  10.467
17069SOL    HW252982   4.147   9.640  10.607
17070SOL     OW52983   1.347  13.988  11.673
17070SOL    HW152984   1.408  14.012  11.603
17070SOL    HW252985   1.403  13.955  11.744
17071SOL     OW52986  11.358  11.875   6.040
17071SOL    HW152987  11.333  11.903   5.952
17071SOL    HW252988  11.310  11.934   6.098
17072SOL     OW52989   5.010   6.354   9.580
17072SOL    HW152990   5.067   6.414   9.533
17072SOL    HW252991   4.925   6.361   9.535
17073SOL     OW52992  11.798   8.443  12.244
17073SOL    HW152993  11.785   8.394  12.162
17073SOL    HW252994  11.850   8.385  12.299
17074SOL     OW52995   5.610   7.230   8.280
17074SOL    HW152996   5.593   7.172   8.206
17074SOL    HW252997   5.703   7.218   8.299
17075SOL     OW52998   6.859   8.619   0.430
17075SOL    HW152999   6.792   8.568   0.385
17075SOL    HW253000   6.895   8.559   0.495
17076SOL     OW53001   1.861  11.238   2.898
17076SOL    HW153002   1.778  11.236   2.946
17076SOL    HW253003   1.897  11.324   2.916
17077SOL     OW53004   6.079   0.758   7.925
17077SOL    HW153005   6.120   0.793   7.846
17077SOL    HW253006   6.015   0.824   7.950
17078SOL     OW53007   5.062   5.343   7.545
17078SOL    HW153008   5.068   5.257   7.587
17078SOL    HW253009   5.000   5.330   7.473
17079SOL     OW53010  11.367   9.499   5.590
17079SOL    HW153011  11.406   9.488   5.503
17079SOL    HW253012  11.292   9.558   5.575
17080SOL     OW53013  13.772   2.399   4.032
17080SOL    HW153014  13.711   2.341   3.987
17080SOL    HW253015  13.740   2.402   4.122
17081SOL     OW53016   9.762   3.874  11.589
17081SOL    HW153017   9.697   3.914  11.647
17081SOL    HW253018   9.820   3.825  11.648
17082SOL     OW53019  10.419   1.644   5.814
17082SOL    HW153020  10.498   1.697   5.805
17082SOL    HW253021  10.448   1.555   5.793
17083SOL     OW53022   9.434   7.754  13.603
17083SOL    HW153023   9.490   7.798  13.667
17083SOL    HW253024   9.345   7.780  13.627
17084SOL     OW53025   1.134  13.363  10.416
17084SOL    HW153026   1.107  13.323  10.498
17084SOL    HW253027   1.152  13.454  10.438
17085SOL     OW53028   2.445  12.703   1.002
17085SOL    HW153029   2.368  12.703   0.945
17085SOL    HW253030   2.508  12.760   0.957
17086SOL     OW53031   4.717  12.750   9.128
17086SOL    HW153032   4.747  12.820   9.069
17086SOL    HW253033   4.762  12.672   9.098
17087SOL     OW53034   7.757  12.158   9.369
17087SOL    HW153035   7.793  12.243   9.344
17087SOL    HW253036   7.813  12.128   9.441
17088SOL     OW53037  13.652  14.412   7.093
17088SOL    HW153038  13.569  14.364   7.095
17088SOL    HW253039  13.627  14.504   7.086
17089SOL     OW53040   8.649   6.861  12.825
17089SOL    HW153041   8.628   6.848  12.918
17089SOL    HW253042   8.690   6.947  12.821
17090SOL     OW53043  10.176   8.368   4.841
17090SOL    HW153044  10.223   8.411   4.769
17090SOL    HW253045  10.146   8.441   4.896
17091SOL     OW53046   4.788   5.769  13.618
17091SOL    HW153047   4.832   5.834  13.673
17091SOL    HW253048   4.860   5.719  13.579
17092SOL     OW53049  12.311  10.769   2.218
17092SOL    HW153050  12.335  10.836   2.154
17092SOL    HW253051  12.266  10.818   2.287
17093SOL     OW53052  13.160   8.793   7.226
17093SOL    HW153053  13.243   8.830   7.196
17093SOL    HW253054  13.183   8.742   7.304
17094SOL     OW53055   2.302  11.277  10.200
17094SOL    HW153056   2.208  11.287  10.213
17094SOL    HW253057   2.327  11.209  10.262
17095SOL     OW53058  13.678   2.965  13.708
17095SOL    HW153059  13.751   3.004  13.758
17095SOL    HW253060  13.721   2.903  13.648
17096SOL     OW53061  14.195   0.887   6.695
17096SOL    HW153062  14.163   0.945   6.626
17096SOL    HW253063  14.119   0.832   6.716
17097SOL     OW53064  12.136   9.044   4.493
17097SOL    HW153065  12.166   9.122   4.539
17097SOL    HW253066  12.045   9.033   4.521
17098SOL     OW53067  11.201   9.890   1.096
17098SOL    HW153068  11.271   9.837   1.058
17098SOL    HW253069  11.246   9.950   1.156
17099SOL     OW53070  10.232  12.946   3.161
17099SOL    HW153071  10.213  12.862   3.202
17099SOL    HW253072  10.261  13.001   3.234
17100SOL     OW53073  11.834  14.856   7.344
17100SOL    HW153074  11.825  14.857   7.249
17100SOL    HW253075  11.802   0.060   7.372
17101SOL     OW53076   9.754  11.551   5.712
17101SOL    HW153077   9.715  11.540   5.799
17101SOL    HW253078   9.745  11.465   5.671
17102SOL     OW53079  11.288  11.107  13.898
17102SOL    HW153080  11.380  11.110  13.872
17102SOL    HW253081  11.240  11.126  13.817
17103SOL     OW53082   6.172   2.853   7.966
17103SOL    HW153083   6.090   2.899   7.982
17103SOL    HW253084   6.161   2.814   7.879
17104SOL     OW53085  14.851   6.209   0.652
17104SOL    HW153086  14.866   6.273   0.583
17104SOL    HW253087  14.832   6.127   0.605
17105SOL     OW53088   7.553  14.309   4.641
17105SOL    HW153089   7.638  14.293   4.600
17105SOL    HW253090   7.574  14.356   4.722
17106SOL     OW53091   0.617  14.024  12.592
17106SOL    HW153092   0.697  14.045  12.640
17106SOL    HW253093   0.648  13.991  12.507
17107SOL     OW53094   9.119   2.683  13.821
17107SOL    HW153095   9.141   2.664  13.912
17107SOL    HW253096   9.060   2.612  13.796
17108SOL     OW53097   2.108  10.585   6.952
17108SOL    HW153098   2.018  10.611   6.929
17108SOL    HW253099   2.125  10.508   6.898
17109SOL     OW53100  13.048   6.484   0.717
17109SOL    HW153101  12.975   6.528   0.760
17109SOL    HW253102  13.020   6.475   0.626
17110SOL     OW53103   2.508   3.479   4.463
17110SOL    HW153104   2.414   3.496   4.470
17110SOL    HW253105   2.515   3.396   4.416
17111SOL     OW53106  13.107   0.311  11.241
17111SOL    HW153107  13.193   0.348  11.226
17111SOL    HW253108  13.104   0.233  11.185
17112SOL     OW53109  14.781  11.623   3.329
17112SOL    HW153110  14.815  11.603   3.417
17112SOL    HW253111  14.784  11.718   3.323
17113SOL     OW53112  11.788   0.579   1.624
17113SOL    HW153113  11.882   0.585   1.608
17113SOL    HW253114  11.749   0.628   1.552
17114SOL     OW53115   2.328  14.061   0.323
17114SOL    HW153116   2.409  14.025   0.288
17114SOL    HW253117   2.323  14.149   0.288
17115SOL     OW53118   6.601   4.699   0.608
17115SOL    HW153119   6.528   4.638   0.594
17115SOL    HW253120   6.559   4.784   0.620
17116SOL     OW53121  14.629   2.720   2.030
17116SOL    HW153122  14.567   2.719   1.957
17116SOL    HW253123  14.697   2.782   2.003
17117SOL     OW53124   7.072   7.094   0.802
17117SOL    HW153125   7.155   7.052   0.827
17117SOL    HW253126   7.079   7.105   0.707
17118SOL     OW53127   2.203   2.830  10.278
17118SOL    HW153128   2.157   2.826  10.362
17118SOL    HW253129   2.162   2.763  10.224
17119SOL     OW53130   2.325   7.286   6.397
17119SOL    HW153131   2.330   7.206   6.346
17119SOL    HW253132   2.238   7.285   6.437
17120SOL     OW53133  11.414   7.604  11.121
17120SOL    HW153134  11.383   7.654  11.046
17120SOL    HW253135  11.336   7.557  11.152
17121SOL     OW53136  10.695   4.446  10.912
17121SOL    HW153137  10.728   4.480  10.995
17121SOL    HW253138  10.674   4.524  10.860
17122SOL     OW53139   2.423  12.431   1.790
17122SOL    HW153140   2.357  12.446   1.721
17122SOL    HW253141   2.499  12.397   1.743
17123SOL     OW53142   4.801  12.429  12.374
17123SOL    HW153143   4.822  12.340  12.345
17123SOL    HW253144   4.738  12.461  12.309
17124SOL     OW53145   2.449   4.324   6.974
17124SOL    HW153146   2.493   4.275   7.043
17124SOL    HW253147   2.410   4.399   7.018
17125SOL     OW53148  12.246   0.897   5.446
17125SOL    HW153149  12.268   0.885   5.354
17125SOL    HW253150  12.169   0.842   5.460
17126SOL     OW53151  11.242  11.065   6.116
17126SOL    HW153152  11.262  11.099   6.029
17126SOL    HW253153  11.175  10.998   6.102
17127SOL     OW53154   0.417   3.354  13.074
17127SOL    HW153155   0.471   3.280  13.044
17127SOL    HW253156   0.478   3.428  13.075
17128SOL     OW53157   6.805   0.983  13.103
17128SOL    HW153158   6.726   0.928  13.102
17128SOL    HW253159   6.877   0.922  13.083
17129SOL     OW53160  14.536   9.694   4.248
17129SOL    HW153161  14.555   9.779   4.289
17129SOL    HW253162  14.553   9.708   4.155
17130SOL     OW53163   3.591   3.011   4.326
17130SOL    HW153164   3.657   2.986   4.260
17130SOL    HW253165   3.592   3.107   4.326
17131SOL     OW53166   9.688   9.628  14.197
17131SOL    HW153167   9.750   9.563  14.163
17131SOL    HW253168   9.604   9.604  14.159
17132SOL     OW53169   7.606   5.112   3.398
17132SOL    HW153170   7.537   5.178   3.394
17132SOL    HW253171   7.586   5.061   3.476
17133SOL     OW53172   7.308   4.174   0.432
17133SOL    HW153173   7.272   4.171   0.344
17133SOL    HW253174   7.238   4.139   0.488
17134SOL     OW53175   6.569   8.309   3.521
17134SOL    HW153176   6.521   8.357   3.454
17134SOL    HW253177   6.631   8.255   3.472
17135SOL     OW53178   0.076   5.853   6.069
17135SOL    HW153179   0.137   5.924   6.091
17135SOL    HW253180   0.069   5.802   6.149
17136SOL     OW53181   6.316   7.246  14.007
17136SOL    HW153182   6.227   7.282  14.010
17136SOL    HW253183   6.305   7.152  14.018
17137SOL     OW53184   7.940   3.428  13.768
17137SOL    HW153185   7.951   3.460  13.679
17137SOL    HW253186   8.018   3.375  13.785
17138SOL     OW53187  10.440   0.604  11.431
17138SOL    HW153188  10.367   0.552  11.398
17138SOL    HW253189  10.490   0.628  11.353
17139SOL     OW53190  10.572   5.179   4.734
17139SOL    HW153191  10.557   5.161   4.827
17139SOL    HW253192  10.620   5.262   4.733
17140SOL     OW53193   8.968   3.556   9.689
17140SOL    HW153194   8.929   3.496   9.625
17140SOL    HW253195   8.932   3.529   9.773
17141SOL     OW53196   5.793   4.850   8.251
17141SOL    HW153197   5.805   4.871   8.343
17141SOL    HW253198   5.855   4.906   8.205
17142SOL     OW53199   0.132   3.081   4.990
17142SOL    HW153200   0.177   3.160   4.958
17142SOL    HW253201   0.115   3.098   5.082
17143SOL     OW53202   9.875   8.801   7.483
17143SOL    HW153203   9.790   8.844   7.482
17143SOL    HW253204   9.912   8.821   7.569
17144SOL     OW53205   0.569  13.853   2.692
17144SOL    HW153206   0.554  13.930   2.637
17144SOL    HW253207   0.519  13.783   2.649
17145SOL     OW53208   6.680   8.909  14.122
17145SOL    HW153209   6.619   8.835  14.122
17145SOL    HW253210   6.733   8.896  14.201
17146SOL     OW53211   1.563  13.255  13.003
17146SOL    HW153212   1.621  13.270  12.929
17146SOL    HW253213   1.578  13.331  13.060
17147SOL     OW53214  10.246  11.462  11.978
17147SOL    HW153215  10.221  11.541  12.026
17147SOL    HW253216  10.334  11.442  12.009
17148SOL     OW53217  10.710   9.499   2.204
17148SOL    HW153218  10.778   9.567   2.204
17148SOL    HW253219  10.655   9.520   2.128
17149SOL     OW53220   4.585  10.460   5.015
17149SOL    HW153221   4.582  10.556   5.018
17149SOL    HW253222   4.630  10.440   4.932
17150SOL     OW53223   7.024   2.990  12.801
17150SOL    HW153224   7.105   2.960  12.842
17150SOL    HW253225   7.045   3.077  12.767
17151SOL     OW53226  13.773  13.094   4.727
17151SOL    HW153227  13.865  13.119   4.717
17151SOL    HW253228  13.725  13.162   4.681
17152SOL     OW53229  13.623  14.798  11.399
17152SOL    HW153230  13.691  14.745  11.441
17152SOL    HW253231  13.545  14.783  11.454
17153SOL     OW53232   6.690   3.940   4.146
17153SOL    HW153233   6.705   4.029   4.178
17153SOL    HW253234   6.647   3.952   4.061
17154SOL     OW53235  12.186   1.419   2.747
17154SOL    HW153236  12.187   1.324   2.747
17154SOL    HW253237  12.114   1.443   2.805
17155SOL     OW53238  14.377   4.110   8.245
17155SOL    HW153239  14.462   4.142   8.274
17155SOL    HW253240  14.332   4.187   8.211
17156SOL     OW53241   5.862   3.687   5.692
17156SOL    HW153242   5.865   3.765   5.749
17156SOL    HW253243   5.926   3.627   5.730
17157SOL     OW53244   2.764  14.577   0.690
17157SOL    HW153245   2.670  14.573   0.707
17157SOL    HW253246   2.778  14.667   0.658
17158SOL     OW53247   5.627   9.118  14.482
17158SOL    HW153248   5.576   9.089  14.406
17158SOL    HW253249   5.718   9.100  14.457
17159SOL     OW53250  11.920  13.083   4.963
17159SOL    HW153251  11.914  13.144   5.037
17159SOL    HW253252  11.841  13.100   4.912
17160SOL     OW53253   4.880   8.631   6.683
17160SOL    HW153254   4.965   8.644   6.725
17160SOL    HW253255   4.883   8.541   6.651
17161SOL     OW53256   5.509   3.657   9.988
17161SOL    HW153257   5.528   3.718  10.060
17161SOL    HW253258   5.427   3.614  10.014
17162SOL     OW53259   8.821   6.638  13.842
17162SOL    HW153260   8.836   6.544  13.846
17162SOL    HW253261   8.787   6.661  13.928
17163SOL     OW53262  11.254   5.720  11.125
17163SOL    HW153263  11.220   5.642  11.083
17163SOL    HW253264  11.338   5.692  11.162
17164SOL     OW53265   6.635  10.575   5.169
17164SOL    HW153266   6.600  10.642   5.227
17164SOL    HW253267   6.566  10.508   5.167
17165SOL     OW53268   8.848  14.306   0.876
17165SOL    HW153269   8.821  14.348   0.958
17165SOL    HW253270   8.944  14.313   0.877
17166SOL     OW53271   2.834   4.961   3.956
17166SOL    HW153272   2.842   5.054   3.978
17166SOL    HW253273   2.857   4.915   4.036
17167SOL     OW53274   8.596  11.489   9.575
17167SOL    HW153275   8.644  11.418   9.533
17167SOL    HW253276   8.631  11.492   9.664
17168SOL     OW53277  14.608   2.083   2.682
17168SOL    HW153278  14.619   2.001   2.635
17168SOL    HW253279  14.571   2.058   2.766
17169SOL     OW53280   4.195   6.009   5.503
17169SOL    HW153281   4.170   6.018   5.595
17169SOL    HW253282   4.113   5.993   5.458
17170SOL     OW53283  10.293   9.123   5.216
17170SOL    HW153284  10.337   9.090   5.295
17170SOL    HW253285  10.321   9.215   5.210
17171SOL     OW53286  10.853  12.235  12.837
17171SOL    HW153287  10.803  12.284  12.902
17171SOL    HW253288  10.869  12.150  12.878
17172SOL     OW53289   0.283   9.251   6.836
17172SOL    HW153290   0.263   9.163   6.803
17172SOL    HW253291   0.363   9.277   6.789
17173SOL     OW53292   7.373  10.122  10.984
17173SOL    HW153293   7.350  10.183  10.915
17173SOL    HW253294   7.289  10.097  11.023
17174SOL     OW53295   8.091   3.994   5.194
17174SOL    HW153296   8.068   3.908   5.158
17174SOL    HW253297   8.170   3.978   5.245
17175SOL     OW53298   7.760   0.907   3.314
17175SOL    HW153299   7.768   0.815   3.287
17175SOL    HW253300   7.822   0.954   3.257
17176SOL     OW53301  13.956   7.002   5.171
17176SOL    HW153302  13.878   7.023   5.222
17176SOL    HW253303  13.999   7.086   5.156
17177SOL     OW53304  11.934  11.029   6.358
17177SOL    HW153305  11.897  11.001   6.274
17177SOL    HW253306  11.876  10.990   6.423
17178SOL     OW53307   0.086   1.235   6.852
17178SOL    HW153308   0.063   1.325   6.830
17178SOL    HW253309   0.182   1.234   6.855
17179SOL     OW53310   4.411   4.729  13.774
17179SOL    HW153311   4.473   4.718  13.847
17179SOL    HW253312   4.327   4.698  13.808
17180SOL     OW53313   1.572   5.567   6.634
17180SOL    HW153314   1.644   5.625   6.609
17180SOL    HW253315   1.523   5.553   6.553
17181SOL     OW53316   7.809   4.929   8.194
17181SOL    HW153317   7.856   4.950   8.275
17181SOL    HW253318   7.797   4.835   8.197
17182SOL     OW53319   6.424   2.771   4.256
17182SOL    HW153320   6.495   2.792   4.317
17182SOL    HW253321   6.347   2.764   4.312
17183SOL     OW53322  10.040   3.839   4.305
17183SOL    HW153323   9.964   3.790   4.336
17183SOL    HW253324  10.033   3.924   4.349
17184SOL     OW53325  12.108   7.978   5.751
17184SOL    HW153326  12.038   7.912   5.754
17184SOL    HW253327  12.097   8.028   5.832
17185SOL     OW53328  14.448   8.792   6.782
17185SOL    HW153329  14.505   8.865   6.806
17185SOL    HW253330  14.422   8.753   6.865
17186SOL     OW53331  11.813  13.655   1.300
17186SOL    HW153332  11.807  13.563   1.274
17186SOL    HW253333  11.870  13.654   1.377
17187SOL     OW53334   7.194  11.313   9.422
17187SOL    HW153335   7.158  11.234   9.463
17187SOL    HW253336   7.160  11.385   9.475
17188SOL     OW53337  13.048   5.479   9.679
17188SOL    HW153338  13.085   5.521   9.756
17188SOL    HW253339  12.958   5.510   9.675
17189SOL     OW53340  10.206   8.355  12.532
17189SOL    HW153341  10.254   8.389  12.608
17189SOL    HW253342  10.268   8.364  12.459
17190SOL     OW53343  12.247   3.951   8.650
17190SOL    HW153344  12.253   4.026   8.708
17190SOL    HW253345  12.312   3.889   8.683
17191SOL     OW53346   5.737   7.421  10.556
17191SOL    HW153347   5.829   7.408  10.534
17191SOL    HW253348   5.702   7.471  10.482
17192SOL     OW53349  14.781   2.897  14.586
17192SOL    HW153350  14.787   2.805  14.559
17192SOL    HW253351  14.704   2.931  14.540
17193SOL     OW53352   4.402   3.718   8.531
17193SOL    HW153353   4.339   3.752   8.467
17193SOL    HW253354   4.389   3.772   8.609
17194SOL     OW53355   9.909   9.130  13.479
17194SOL    HW153356   9.823   9.164  13.506
17194SOL    HW253357   9.910   9.140  13.384
17195SOL     OW53358   3.255   7.953  12.150
17195SOL    HW153359   3.291   7.877  12.104
17195SOL    HW253360   3.216   7.916  12.230
17196SOL     OW53361  12.710  11.817  12.501
17196SOL    HW153362  12.708  11.911  12.521
17196SOL    HW253363  12.787  11.807  12.444
17197SOL     OW53364   1.577  12.190   1.202
17197SOL    HW153365   1.568  12.269   1.149
17197SOL    HW253366   1.670  12.168   1.196
17198SOL     OW53367   6.823   4.337   1.115
17198SOL    HW153368   6.868   4.348   1.198
17198SOL    HW253369   6.891   4.303   1.056
17199SOL     OW53370   8.449   4.002  14.371
17199SOL    HW153371   8.398   3.980  14.448
17199SOL    HW253372   8.463   4.097  14.377
17200SOL     OW53373  13.089   7.892  12.454
17200SOL    HW153374  13.095   7.854  12.367
17200SOL    HW253375  13.152   7.842  12.506
17201SOL     OW53376   4.163   2.389   4.593
17201SOL    HW153377   4.243   2.439   4.575
17201SOL    HW253378   4.092   2.447   4.566
17202SOL     OW53379  11.375   5.992   8.109
17202SOL    HW153380  11.296   6.046   8.109
17202SOL    HW253381  11.433   6.034   8.172
17203SOL     OW53382  13.225   7.729  11.166
17203SOL    HW153383  13.264   7.642  11.172
17203SOL    HW253384  13.168   7.725  11.089
17204SOL     OW53385   4.542  14.672   8.614
17204SOL    HW153386   4.467  14.718   8.653
17204SOL    HW253387   4.511  14.582   8.601
17205SOL     OW53388   3.782  14.250   8.987
17205SOL    HW153389   3.726  14.262   9.064
17205SOL    HW253390   3.824  14.336   8.975
17206SOL     OW53391   9.907  12.497   6.132
17206SOL    HW153392   9.892  12.490   6.037
17206SOL    HW253393   9.844  12.563   6.161
17207SOL     OW53394   9.724   5.297   3.075
17207SOL    HW153395   9.674   5.378   3.087
17207SOL    HW253396   9.680   5.254   3.002
17208SOL     OW53397  14.743   3.127  14.130
17208SOL    HW153398  14.728   3.036  14.104
17208SOL    HW253399  14.688   3.140  14.207
17209SOL     OW53400   3.569   4.381   8.870
17209SOL    HW153401   3.547   4.396   8.778
17209SOL    HW253402   3.485   4.360   8.911
17210SOL     OW53403   6.880  11.697   6.083
17210SOL    HW153404   6.810  11.752   6.047
17210SOL    HW253405   6.947  11.695   6.015
17211SOL     OW53406   1.392   1.413  12.749
17211SOL    HW153407   1.446   1.370  12.816
17211SOL    HW253408   1.396   1.354  12.673
17212SOL     OW53409  10.609  13.159   7.940
17212SOL    HW153410  10.599  13.253   7.926
17212SOL    HW253411  10.571  13.143   8.026
17213SOL     OW53412   3.424   7.390   9.152
17213SOL    HW153413   3.499   7.440   9.119
17213SOL    HW253414   3.439   7.382   9.246
17214SOL     OW53415   9.494   3.421   4.326
17214SOL    HW153416   9.428   3.355   4.305
17214SOL    HW253417   9.566   3.401   4.266
17215SOL     OW53418   3.829  10.559   0.560
17215SOL    HW153419   3.830  10.512   0.644
17215SOL    HW253420   3.855  10.494   0.495
17216SOL     OW53421  12.284   2.094  13.826
17216SOL    HW153422  12.251   2.183  13.836
17216SOL    HW253423  12.212   2.038  13.855
17217SOL     OW53424   9.028   5.917  13.215
17217SOL    HW153425   8.984   6.001  13.207
17217SOL    HW253426   8.968   5.854  13.175
17218SOL     OW53427   3.457   0.654   8.384
17218SOL    HW153428   3.433   0.622   8.471
17218SOL    HW253429   3.388   0.620   8.326
17219SOL     OW53430   9.722  10.164   0.466
17219SOL    HW153431   9.665  10.087   0.457
17219SOL    HW253432   9.788  10.137   0.530
17220SOL     OW53433   9.143   1.987   7.718
17220SOL    HW153434   9.091   1.907   7.719
17220SOL    HW253435   9.101   2.043   7.784
17221SOL     OW53436   0.347  13.807   8.854
17221SOL    HW153437   0.392  13.727   8.882
17221SOL    HW253438   0.261  13.802   8.895
17222SOL     OW53439   0.239   5.572  12.209
17222SOL    HW153440   0.157   5.604  12.173
17222SOL    HW253441   0.214   5.498  12.265
17223SOL     OW53442   3.304  14.622  10.672
17223SOL    HW153443   3.247  14.597  10.745
17223SOL    HW253444   3.255  14.599  10.593
17224SOL     OW53445   2.080  11.541   1.636
17224SOL    HW153446   2.038  11.563   1.553
17224SOL    HW253447   2.173  11.559   1.621
17225SOL     OW53448  14.783  13.515   4.466
17225SOL    HW153449  14.708  13.561   4.428
17225SOL    HW253450  14.750  13.478   4.548
17226SOL     OW53451   5.647   1.490   2.817
17226SOL    HW153452   5.604   1.448   2.742
17226SOL    HW253453   5.679   1.417   2.870
17227SOL     OW53454   8.269   6.798  11.757
17227SOL    HW153455   8.197   6.841  11.709
17227SOL    HW253456   8.240   6.707  11.767
17228SOL     OW53457   9.355  11.062  14.637
17228SOL    HW153458   9.401  11.031  14.715
17228SOL    HW253459   9.403  11.140  14.609
17229SOL     OW53460  12.092   2.223   1.955
17229SOL    HW153461  12.060   2.149   1.904
17229SOL    HW253462  12.096   2.191   2.045
17230SOL     OW53463  13.709  10.547   2.171
17230SOL    HW153464  13.802  10.553   2.190
17230SOL    HW253465  13.690  10.625   2.119
17231SOL     OW53466   2.632   2.329   6.892
17231SOL    HW153467   2.647   2.363   6.980
17231SOL    HW253468   2.649   2.404   6.835
17232SOL     OW53469  11.024   1.888   2.296
17232SOL    HW153470  11.076   1.954   2.342
17232SOL    HW253471  11.087   1.821   2.270
17233SOL     OW53472  10.317   0.734  10.961
17233SOL    HW153473  10.310   0.773  11.049
17233SOL    HW253474  10.328   0.640  10.977
17234SOL     OW53475   1.217   0.267   3.095
17234SOL    HW153476   1.303   0.226   3.093
17234SOL    HW253477   1.157   0.199   3.066
17235SOL     OW53478   0.947  13.015   9.015
17235SOL    HW153479   0.911  13.072   8.947
17235SOL    HW253480   0.894  13.033   9.093
17236SOL     OW53481  10.767   9.552   4.291
17236SOL    HW153482  10.820   9.473   4.298
17236SOL    HW253483  10.769   9.573   4.198
17237SOL     OW53484   1.991   3.256  13.146
17237SOL    HW153485   2.002   3.347  13.174
17237SOL    HW253486   1.992   3.261  13.050
17238SOL     OW53487   1.002  12.278  14.790
17238SOL    HW153488   1.032  12.227  14.865
17238SOL    HW253489   1.032  12.367  14.807
17239SOL     OW53490   4.207  10.922   6.096
17239SOL    HW153491   4.136  10.914   6.160
17239SOL    HW253492   4.286  10.899   6.145
17240SOL     OW53493  13.965   2.573   6.746
17240SOL    HW153494  13.993   2.519   6.820
17240SOL    HW253495  13.906   2.516   6.696
17241SOL     OW53496  12.800  12.284   9.608
17241SOL    HW153497  12.850  12.204   9.590
17241SOL    HW253498  12.752  12.302   9.527
17242SOL     OW53499  14.016   4.789   4.747
17242SOL    HW153500  13.942   4.738   4.779
17242SOL    HW253501  13.991   4.880   4.762
17243SOL     OW53502   5.242   2.922   7.463
17243SOL    HW153503   5.237   2.827   7.473
17243SOL    HW253504   5.202   2.957   7.542
17244SOL     OW53505   1.167   0.213   8.527
17244SOL    HW153506   1.084   0.182   8.492
17244SOL    HW253507   1.206   0.135   8.568
17245SOL     OW53508   1.273  13.814   6.978
17245SOL    HW153509   1.199  13.799   7.036
17245SOL    HW253510   1.235  13.858   6.901
17246SOL     OW53511   7.457   6.454  13.854
17246SOL    HW153512   7.403   6.375  13.860
17246SOL    HW253513   7.544   6.425  13.881
17247SOL     OW53514  12.616  12.995  14.624
17247SOL    HW153515  12.711  13.008  14.628
17247SOL    HW253516  12.605  12.900  14.631
17248SOL     OW53517   4.854   4.089  11.833
17248SOL    HW153518   4.778   4.097  11.775
17248SOL    HW253519   4.872   3.995  11.835
17249SOL     OW53520   9.076  12.961   9.978
17249SOL    HW153521   9.128  12.978   9.899
17249SOL    HW253522   9.033  13.044   9.997
17250SOL     OW53523  13.203   6.660  10.521
17250SOL    HW153524  13.171   6.586  10.573
17250SOL    HW253525  13.292   6.675  10.552
17251SOL     OW53526   2.626  13.582  13.917
17251SOL    HW153527   2.586  13.611  13.835
17251SOL    HW253528   2.720  13.589  13.902
17252SOL     OW53529   1.877  11.522  11.589
17252SOL    HW153530   1.788  11.557  11.601
17252SOL    HW253531   1.915  11.525  11.676
17253SOL     OW53532   7.874  14.451  12.019
17253SOL    HW153533   7.787  14.417  11.998
17253SOL    HW253534   7.934  14.389  11.979
17254SOL     OW53535   3.219   2.726   5.844
17254SOL    HW153536   3.163   2.726   5.922
17254SOL    HW253537   3.185   2.797   5.790
17255SOL     OW53538   2.979   7.793   8.022
17255SOL    HW153539   3.065   7.764   7.990
17255SOL    HW253540   2.964   7.876   7.977
17256SOL     OW53541  14.371   2.973   5.063
17256SOL    HW153542  14.398   2.919   5.138
17256SOL    HW253543  14.422   2.940   4.990
17257SOL     OW53544  14.610  10.037   6.666
17257SOL    HW153545  14.703  10.015   6.654
17257SOL    HW253546  14.604  10.129   6.641
17258SOL     OW53547  10.633  10.058   5.632
17258SOL    HW153548  10.598  10.138   5.673
17258SOL    HW253549  10.650  10.000   5.706
17259SOL     OW53550  11.630  10.511  10.693
17259SOL    HW153551  11.577  10.477  10.766
17259SOL    HW253552  11.689  10.575  10.734
17260SOL     OW53553   0.856   3.147   0.668
17260SOL    HW153554   0.771   3.183   0.691
17260SOL    HW253555   0.874   3.180   0.580
17261SOL     OW53556  10.732   1.140  11.108
17261SOL    HW153557  10.661   1.198  11.135
17261SOL    HW253558  10.692   1.053  11.103
17262SOL     OW53559   8.186   4.915   4.495
17262SOL    HW153560   8.240   4.905   4.573
17262SOL    HW253561   8.107   4.864   4.513
17263SOL     OW53562   6.777  10.325   5.240
17263SOL    HW153563   6.767  10.417   5.213
17263SOL    HW253564   6.688  10.292   5.248
17264SOL     OW53565  14.558  12.654  13.589
17264SOL    HW153566  14.521  12.569  13.566
17264SOL    HW253567  14.524  12.714  13.523
17265SOL     OW53568   9.086  11.201   4.008
17265SOL    HW153569   8.993  11.191   4.030
17265SOL    HW253570   9.101  11.296   4.014
17266SOL     OW53571  14.233   2.856  12.441
17266SOL    HW153572  14.316   2.826  12.404
17266SOL    HW253573  14.229   2.815  12.527
17267SOL     OW53574   7.211   3.606  11.849
17267SOL    HW153575   7.267   3.620  11.926
17267SOL    HW253576   7.263   3.636  11.775
17268SOL     OW53577   2.951  14.478   1.126
17268SOL    HW153578   2.928  14.547   1.064
17268SOL    HW253579   2.978  14.524   1.205
17269SOL     OW53580   7.488   4.868  12.220
17269SOL    HW153581   7.393   4.871  12.218
17269SOL    HW253582   7.509   4.775  12.216
17270SOL     OW53583   1.083   2.817   9.451
17270SOL    HW153584   1.028   2.857   9.383
17270SOL    HW253585   1.067   2.870   9.529
17271SOL     OW53586   4.986   6.518   0.178
17271SOL    HW153587   4.903   6.565   0.184
17271SOL    HW253588   4.993   6.493   0.086
17272SOL     OW53589   2.089   5.872  11.135
17272SOL    HW153590   2.178   5.899  11.156
17272SOL    HW253591   2.060   5.821  11.211
17273SOL     OW53592  10.732   5.742   5.242
17273SOL    HW153593  10.710   5.807   5.309
17273SOL    HW253594  10.739   5.793   5.161
17274SOL     OW53595   2.295   6.569   0.622
17274SOL    HW153596   2.348   6.490   0.609
17274SOL    HW253597   2.353   6.629   0.669
17275SOL     OW53598   5.308  12.231   5.375
17275SOL    HW153599   5.313  12.275   5.290
17275SOL    HW253600   5.375  12.273   5.428
17276SOL     OW53601   0.231  14.065   8.956
17276SOL    HW153602   0.291  14.113   9.013
17276SOL    HW253603   0.266  14.077   8.868
17277SOL     OW53604   4.902   2.549   1.454
17277SOL    HW153605   4.912   2.601   1.534
17277SOL    HW253606   4.914   2.613   1.383
17278SOL     OW53607   8.557   9.880   8.744
17278SOL    HW153608   8.610   9.955   8.770
17278SOL    HW253609   8.551   9.887   8.648
17279SOL     OW53610   2.754   0.203   2.231
17279SOL    HW153611   2.741   0.125   2.177
17279SOL    HW253612   2.718   0.180   2.317
17280SOL     OW53613  11.334  13.844   3.764
17280SOL    HW153614  11.331  13.933   3.798
17280SOL    HW253615  11.324  13.854   3.669
17281SOL     OW53616   8.932   4.440   3.866
17281SOL    HW153617   8.874   4.369   3.894
17281SOL    HW253618   8.920   4.445   3.771
17282SOL     OW53619   2.245   9.456   6.490
17282SOL    HW153620   2.263   9.411   6.573
17282SOL    HW253621   2.166   9.507   6.508
17283SOL     OW53622   8.505  10.969  11.465
17283SOL    HW153623   8.503  10.886  11.513
17283SOL    HW253624   8.574  11.020  11.507
17284SOL     OW53625   8.197   8.584  13.887
17284SOL    HW153626   8.192   8.489  13.882
17284SOL    HW253627   8.229   8.611  13.800
17285SOL     OW53628   5.810   0.473   8.943
17285SOL    HW153629   5.800   0.555   8.991
17285SOL    HW253630   5.754   0.484   8.866
17286SOL     OW53631  12.279   6.370   7.968
17286SOL    HW153632  12.364   6.414   7.975
17286SOL    HW253633  12.277   6.337   7.878
17287SOL     OW53634  11.636   4.041   7.697
17287SOL    HW153635  11.708   4.096   7.664
17287SOL    HW253636  11.659   4.024   7.789
17288SOL     OW53637  14.658   4.486   5.118
17288SOL    HW153638  14.594   4.419   5.142
17288SOL    HW253639  14.611   4.544   5.058
17289SOL     OW53640  12.893  11.788   9.397
17289SOL    HW153641  12.901  11.820   9.307
17289SOL    HW253642  12.805  11.753   9.403
17290SOL     OW53643   0.394   8.752  14.198
17290SOL    HW153644   0.440   8.697  14.135
17290SOL    HW253645   0.383   8.696  14.275
17291SOL     OW53646  10.874  12.769   6.707
17291SOL    HW153647  10.856  12.683   6.669
17291SOL    HW253648  10.877  12.753   6.802
17292SOL     OW53649   5.249   6.300  14.180
17292SOL    HW153650   5.261   6.395  14.174
17292SOL    HW253651   5.334   6.267  14.207
17293SOL     OW53652  13.416  11.244   7.069
17293SOL    HW153653  13.433  11.211   6.980
17293SOL    HW253654  13.439  11.171   7.126
17294SOL     OW53655   1.658   8.588   6.103
17294SOL    HW153656   1.568   8.597   6.135
17294SOL    HW253657   1.713   8.600   6.180
17295SOL     OW53658   9.026   8.502   0.460
17295SOL    HW153659   8.983   8.580   0.426
17295SOL    HW253660   9.061   8.458   0.383
17296SOL     OW53661   5.615   6.303   1.083
17296SOL    HW153662   5.668   6.382   1.073
17296SOL    HW253663   5.530   6.326   1.045
17297SOL     OW53664   0.067   6.974   5.028
17297SOL    HW153665   0.110   7.057   5.009
17297SOL    HW253666   0.099   6.914   4.960
17298SOL     OW53667   7.003  12.979  10.534
17298SOL    HW153668   7.085  13.009  10.497
17298SOL    HW253669   7.013  12.988  10.628
17299SOL     OW53670  12.707   8.765  11.725
17299SOL    HW153671  12.658   8.796  11.801
17299SOL    HW253672  12.711   8.841  11.667
17300SOL     OW53673   5.880  14.694   2.378
17300SOL    HW153674   5.842  14.607   2.369
17300SOL    HW253675   5.962  14.680   2.426
17301SOL     OW53676  11.984   1.346  13.766
17301SOL    HW153677  11.948   1.258  13.779
17301SOL    HW253678  11.929   1.402  13.821
17302SOL     OW53679   8.488   2.292   1.779
17302SOL    HW153680   8.467   2.256   1.865
17302SOL    HW253681   8.463   2.222   1.718
17303SOL     OW53682   3.098   5.183   6.959
17303SOL    HW153683   3.109   5.090   6.942
17303SOL    HW253684   3.171   5.205   7.017
17304SOL     OW53685   2.976   5.447  11.322
17304SOL    HW153686   2.997   5.377  11.260
17304SOL    HW253687   3.031   5.520  11.294
17305SOL     OW53688  13.666   3.728   6.160
17305SOL    HW153689  13.694   3.702   6.072
17305SOL    HW253690  13.577   3.694   6.167
17306SOL     OW53691   5.469   8.362  10.353
17306SOL    HW153692   5.504   8.449  10.331
17306SOL    HW253693   5.428   8.374  10.439
17307SOL     OW53694   6.120  10.743  13.919
17307SOL    HW153695   6.090  10.681  13.853
17307SOL    HW253696   6.211  10.761  13.896
17308SOL     OW53697   4.280  12.526   3.149
17308SOL    HW153698   4.309  12.582   3.077
17308SOL    HW253699   4.348  12.534   3.215
17309SOL     OW53700   8.243   2.819   7.194
17309SOL    HW153701   8.264   2.856   7.280
17309SOL    HW253702   8.240   2.724   7.209
17310SOL     OW53703  13.890   1.877   3.123
17310SOL    HW153704  13.827   1.807   3.112
17310SOL    HW253705  13.975   1.836   3.108
17311SOL     OW53706   8.647  13.946   2.135
17311SOL    HW153707   8.579  13.914   2.193
17311SOL    HW253708   8.723  13.892   2.153
17312SOL     OW53709  12.026   0.147   4.253
17312SOL    HW153710  11.956   0.082   4.244
17312SOL    HW253711  12.088   0.125   4.183
17313SOL     OW53712   2.075   3.200  11.134
17313SOL    HW153713   2.103   3.262  11.067
17313SOL    HW253714   2.063   3.117  11.088
17314SOL     OW53715  10.246   8.313   6.525
17314SOL    HW153716  10.214   8.231   6.564
17314SOL    HW253717  10.167   8.359   6.497
17315SOL     OW53718   2.956   7.289  13.961
17315SOL    HW153719   2.988   7.258  13.876
17315SOL    HW253720   2.959   7.384  13.955
17316SOL     OW53721   5.318  12.544   2.348
17316SOL    HW153722   5.266  12.623   2.335
17316SOL    HW253723   5.337  12.543   2.442
17317SOL     OW53724   5.149   5.327   3.439
17317SOL    HW153725   5.197   5.245   3.452
17317SOL    HW253726   5.058   5.299   3.422
17318SOL     OW53727  10.604   6.971   4.183
17318SOL    HW153728  10.564   7.052   4.214
17318SOL    HW253729  10.603   6.913   4.258
17319SOL     OW53730  13.745  11.950  12.559
17319SOL    HW153731  13.808  12.014  12.527
17319SOL    HW253732  13.768  11.869  12.513
17320SOL     OW53733  13.132  12.415   6.492
17320SOL    HW153734  13.148  12.475   6.419
17320SOL    HW253735  13.078  12.465   6.553
17321SOL     OW53736  13.518   9.618   5.664
17321SOL    HW153737  13.495   9.657   5.580
17321SOL    HW253738  13.538   9.693   5.720
17322SOL     OW53739   9.043  14.099   5.718
17322SOL    HW153740   8.975  14.162   5.745
17322SOL    HW253741   9.003  14.013   5.732
17323SOL     OW53742   5.340  10.561   6.760
17323SOL    HW153743   5.362  10.638   6.812
17323SOL    HW253744   5.276  10.591   6.696
17324SOL     OW53745   6.560   4.669   8.187
17324SOL    HW153746   6.641   4.621   8.205
17324SOL    HW253747   6.492   4.602   8.183
17325SOL     OW53748   8.157   2.168   7.308
17325SOL    HW153749   8.151   2.089   7.361
17325SOL    HW253750   8.210   2.143   7.233
17326SOL     OW53751  13.537  11.868   5.144
17326SOL    HW153752  13.468  11.814   5.183
17326SOL    HW253753  13.516  11.869   5.050
17327SOL     OW53754  10.265  13.370  10.897
17327SOL    HW153755  10.344  13.417  10.870
17327SOL    HW253756  10.297  13.298  10.951
17328SOL     OW53757   5.031  10.869  10.975
17328SOL    HW153758   5.078  10.795  10.938
17328SOL    HW253759   5.075  10.946  10.938
17329SOL     OW53760   5.551   7.870  12.450
17329SOL    HW153761   5.564   7.945  12.392
17329SOL    HW253762   5.640   7.841  12.471
17330SOL     OW53763  12.407   3.507   7.951
17330SOL    HW153764  12.443   3.566   7.885
17330SOL    HW253765  12.358   3.442   7.901
17331SOL     OW53766   2.663   2.790  14.547
17331SOL    HW153767   2.608   2.712  14.546
17331SOL    HW253768   2.679   2.809  14.454
17332SOL     OW53769  11.677  12.824  12.565
17332SOL    HW153770  11.586  12.818  12.538
17332SOL    HW253771  11.690  12.750  12.624
17333SOL     OW53772  14.708   1.679  13.483
17333SOL    HW153773  14.739   1.769  13.486
17333SOL    HW253774  14.663   1.672  13.398
17334SOL     OW53775  10.864  13.147   9.705
17334SOL    HW153776  10.924  13.144   9.631
17334SOL    HW253777  10.777  13.147   9.665
17335SOL     OW53778   4.982   0.315   0.789
17335SOL    HW153779   4.993   0.393   0.735
17335SOL    HW253780   4.890   0.318   0.815
17336SOL     OW53781   4.425   9.214  11.544
17336SOL    HW153782   4.377   9.298  11.545
17336SOL    HW253783   4.513   9.238  11.514
17337SOL     OW53784  14.264   8.173  11.836
17337SOL    HW153785  14.206   8.121  11.780
17337SOL    HW253786  14.241   8.264  11.817
17338SOL     OW53787  13.006  12.492  11.972
17338SOL    HW153788  13.083  12.541  12.002
17338SOL    HW253789  13.040  12.406  11.949
17339SOL     OW53790   7.830   2.644   7.765
17339SOL    HW153791   7.751   2.606   7.803
17339SOL    HW253792   7.895   2.574   7.771
17340SOL     OW53793   3.317  13.702  13.630
17340SOL    HW153794   3.368  13.649  13.691
17340SOL    HW253795   3.228  13.667  13.636
17341SOL     OW53796   9.259   2.684   4.815
17341SOL    HW153797   9.305   2.693   4.732
17341SOL    HW253798   9.173   2.648   4.792
17342SOL     OW53799   8.075   5.889   0.961
17342SOL    HW153800   7.993   5.911   1.004
17342SOL    HW253801   8.074   5.939   0.879
17343SOL     OW53802   1.322   8.935   1.747
17343SOL    HW153803   1.274   8.895   1.820
17343SOL    HW253804   1.408   8.957   1.784
17344SOL     OW53805   1.037   0.857   1.672
17344SOL    HW153806   1.072   0.853   1.583
17344SOL    HW253807   1.113   0.846   1.729
17345SOL     OW53808   3.425   0.930   8.076
17345SOL    HW153809   3.343   0.892   8.046
17345SOL    HW253810   3.438   1.006   8.019
17346SOL     OW53811   9.863  14.057  12.249
17346SOL    HW153812   9.950  14.024  12.273
17346SOL    HW253813   9.808  13.978  12.246
17347SOL     OW53814   6.574   2.542  13.285
17347SOL    HW153815   6.572   2.517  13.377
17347SOL    HW253816   6.491   2.510  13.249
17348SOL     OW53817  12.814  14.101   0.258
17348SOL    HW153818  12.727  14.142   0.248
17348SOL    HW253819  12.863  14.132   0.182
17349SOL     OW53820   2.348   9.903   8.347
17349SOL    HW153821   2.269   9.863   8.382
17349SOL    HW253822   2.370   9.849   8.271
17350SOL     OW53823  14.000   5.287   9.677
17350SOL    HW153824  13.979   5.199   9.647
17350SOL    HW253825  13.996   5.282   9.772
17351SOL     OW53826   1.559   4.493   4.359
17351SOL    HW153827   1.548   4.588   4.348
17351SOL    HW253828   1.654   4.479   4.361
17352SOL     OW53829   0.859   9.066   8.681
17352SOL    HW153830   0.792   9.087   8.616
17352SOL    HW253831   0.812   9.019   8.750
17353SOL     OW53832  10.058  12.594   7.056
17353SOL    HW153833  10.121  12.527   7.084
17353SOL    HW253834  10.030  12.636   7.138
17354SOL     OW53835  11.993   8.958   9.832
17354SOL    HW153836  12.047   8.979   9.756
17354SOL    HW253837  11.906   8.941   9.796
17355SOL     OW53838   6.414   3.638   7.036
17355SOL    HW153839   6.409   3.690   7.116
17355SOL    HW253840   6.479   3.571   7.055
17356SOL     OW53841   7.212   0.018   9.095
17356SOL    HW153842   7.192  14.810   9.066
17356SOL    HW253843   7.216   0.011   9.191
17357SOL     OW53844   9.076   9.046  10.741
17357SOL    HW153845   9.050   8.976  10.801
17357SOL    HW253846   9.140   9.098  10.790
17358SOL     OW53847  14.577   1.866  12.053
17358SOL    HW153848  14.531   1.829  12.128
17358SOL    HW253849  14.662   1.893  12.089
17359SOL     OW53850   4.539   4.359   4.292
17359SOL    HW153851   4.497   4.333   4.210
17359SOL    HW253852   4.519   4.288   4.353
17360SOL     OW53853   8.189   0.713  14.631
17360SOL    HW153854   8.165   0.681  14.718
17360SOL    HW253855   8.140   0.794  14.621
17361SOL     OW53856   0.040   2.703   2.573
17361SOL    HW153857   0.132   2.691   2.553
17361SOL    HW253858  14.875   2.651   2.507
17362SOL     OW53859   9.669   3.194  10.828
17362SOL    HW153860   9.660   3.178  10.921
17362SOL    HW253861   9.587   3.237  10.803
17363SOL     OW53862   8.957  10.575   7.257
17363SOL    HW153863   8.931  10.667   7.255
17363SOL    HW253864   8.892  10.534   7.314
17364SOL     OW53865   9.862  12.358   2.317
17364SOL    HW153866   9.803  12.286   2.339
17364SOL    HW253867   9.831  12.431   2.371
17365SOL     OW53868  11.354  11.962  12.283
17365SOL    HW153869  11.387  11.874  12.262
17365SOL    HW253870  11.322  11.995  12.199
17366SOL     OW53871   4.990   3.986  14.389
17366SOL    HW153872   5.011   3.927  14.461
17366SOL    HW253873   5.012   3.936  14.310
17367SOL     OW53874  12.230   7.719   0.581
17367SOL    HW153875  12.240   7.802   0.629
17367SOL    HW253876  12.314   7.675   0.594
17368SOL     OW53877   6.881  14.621   4.031
17368SOL    HW153878   6.824  14.556   4.072
17368SOL    HW253879   6.823  14.673   3.976
17369SOL     OW53880   3.308  13.959   4.746
17369SOL    HW153881   3.302  13.863   4.752
17369SOL    HW253882   3.219  13.990   4.756
17370SOL     OW53883  10.804  10.619   3.108
17370SOL    HW153884  10.807  10.714   3.114
17370SOL    HW253885  10.801  10.589   3.199
17371SOL     OW53886   6.527   1.426  10.868
17371SOL    HW153887   6.622   1.432  10.878
17371SOL    HW253888   6.512   1.435  10.774
17372SOL     OW53889  13.032   3.130   4.378
17372SOL    HW153890  13.079   3.142   4.295
17372SOL    HW253891  12.971   3.058   4.361
17373SOL     OW53892   2.237   5.509   5.309
17373SOL    HW153893   2.163   5.502   5.248
17373SOL    HW253894   2.314   5.493   5.254
17374SOL     OW53895   9.790   7.573   1.118
17374SOL    HW153896   9.707   7.553   1.162
17374SOL    HW253897   9.784   7.665   1.095
17375SOL     OW53898   6.994   2.965  11.553
17375SOL    HW153899   7.063   2.898  11.552
17375SOL    HW253900   6.971   2.977  11.461
17376SOL     OW53901   1.352   2.750   2.879
17376SOL    HW153902   1.359   2.844   2.864
17376SOL    HW253903   1.267   2.739   2.922
17377SOL     OW53904   2.594   8.874   1.908
17377SOL    HW153905   2.567   8.851   1.997
17377SOL    HW253906   2.687   8.853   1.905
17378SOL     OW53907  11.493   6.497  10.756
17378SOL    HW153908  11.525   6.409  10.737
17378SOL    HW253909  11.493   6.501  10.852
17379SOL     OW53910   3.588  12.341   5.698
17379SOL    HW153911   3.581  12.285   5.775
17379SOL    HW253912   3.607  12.428   5.733
17380SOL     OW53913   5.281   0.071   7.390
17380SOL    HW153914   5.311  14.869   7.426
17380SOL    HW253915   5.236   0.048   7.309
17381SOL     OW53916   1.606  14.555   5.376
17381SOL    HW153917   1.690  14.512   5.392
17381SOL    HW253918   1.629  14.644   5.351
17382SOL     OW53919   2.238   5.809   0.329
17382SOL    HW153920   2.315   5.853   0.293
17382SOL    HW253921   2.245   5.719   0.297
17383SOL     OW53922  10.733   9.660  11.896
17383SOL    HW153923  10.776   9.666  11.810
17383SOL    HW253924  10.682   9.741  11.902
17384SOL     OW53925   4.873  11.829   2.887
17384SOL    HW153926   4.903  11.915   2.916
17384SOL    HW253927   4.778  11.830   2.903
17385SOL     OW53928   5.416   5.188  14.289
17385SOL    HW153929   5.383   5.109  14.245
17385SOL    HW253930   5.341   5.247  14.292
17386SOL     OW53931  10.600   5.271  12.513
17386SOL    HW153932  10.506   5.282  12.527
17386SOL    HW253933  10.640   5.296  12.597
17387SOL     OW53934  11.814   2.444   4.535
17387SOL    HW153935  11.842   2.439   4.444
17387SOL    HW253936  11.748   2.375   4.543
17388SOL     OW53937   7.741  13.575   8.995
17388SOL    HW153938   7.769  13.570   8.903
17388SOL    HW253939   7.818  13.609   9.041
17389SOL     OW53940   7.446   7.883   4.257
17389SOL    HW153941   7.489   7.868   4.173
17389SOL    HW253942   7.390   7.806   4.269
17390SOL     OW53943   3.017  10.509   8.354
17390SOL    HW153944   2.989  10.424   8.321
17390SOL    HW253945   2.943  10.541   8.405
17391SOL     OW53946   8.168  14.485  14.763
17391SOL    HW153947   8.148  14.544  14.690
17391SOL    HW253948   8.224  14.535  14.821
17392SOL     OW53949  11.102   4.256   5.881
17392SOL    HW153950  11.104   4.285   5.789
17392SOL    HW253951  11.081   4.163   5.876
17393SOL     OW53952   4.417   4.458   2.854
17393SOL    HW153953   4.403   4.404   2.932
17393SOL    HW253954   4.430   4.395   2.783
17394SOL     OW53955  12.060   2.194  11.265
17394SOL    HW153956  12.094   2.278  11.234
17394SOL    HW253957  12.081   2.193  11.359
17395SOL     OW53958   7.638  12.161  10.753
17395SOL    HW153959   7.629  12.171  10.847
17395SOL    HW253960   7.601  12.074  10.735
17396SOL     OW53961  13.036   4.593   6.971
17396SOL    HW153962  12.945   4.568   6.959
17396SOL    HW253963  13.057   4.646   6.894
17397SOL     OW53964   9.593  13.615   5.694
17397SOL    HW153965   9.658  13.680   5.668
17397SOL    HW253966   9.585  13.557   5.619
17398SOL     OW53967   4.627   7.221   8.946
17398SOL    HW153968   4.699   7.267   8.990
17398SOL    HW253969   4.617   7.267   8.863
17399SOL     OW53970   2.367   1.163  10.715
17399SOL    HW153971   2.315   1.223  10.768
17399SOL    HW253972   2.381   1.087  10.772
17400SOL     OW53973   5.942   4.613  14.338
17400SOL    HW153974   5.896   4.693  14.312
17400SOL    HW253975   5.961   4.568  14.255
17401SOL     OW53976   9.019   6.540   2.196
17401SOL    HW153977   9.020   6.488   2.277
17401SOL    HW253978   9.110   6.539   2.166
17402SOL     OW53979   4.194   4.075  10.009
17402SOL    HW153980   4.269   4.020  10.033
17402SOL    HW253981   4.139   4.019   9.955
17403SOL     OW53982   6.695   3.635   2.046
17403SOL    HW153983   6.623   3.574   2.036
17403SOL    HW253984   6.763   3.603   1.986
17404SOL     OW53985  12.836   9.556   8.505
17404SOL    HW153986  12.889   9.635   8.495
17404SOL    HW253987  12.787   9.569   8.586
17405SOL     OW53988   8.563   0.073   4.072
17405SOL    HW153989   8.482   0.055   4.118
17405SOL    HW253990   8.629   0.081   4.140
17406SOL     OW53991  11.468   5.120  14.633
17406SOL    HW153992  11.433   5.035  14.606
17406SOL    HW253993  11.553   5.099  14.672
17407SOL     OW53994  11.954   3.230   4.070
17407SOL    HW153995  11.970   3.136   4.074
17407SOL    HW253996  11.874   3.239   4.018
17408SOL     OW53997   0.976  14.353  13.528
17408SOL    HW153998   1.021  14.323  13.449
17408SOL    HW253999   0.897  14.300  13.533
17409SOL     OW54000   9.001  13.414   0.423
17409SOL    HW154001   8.939  13.470   0.378
17409SOL    HW254002   9.059  13.381   0.354
17410SOL     OW54003   5.691   0.905  12.720
17410SOL    HW154004   5.612   0.949  12.750
17410SOL    HW254005   5.724   0.858  12.797
17411SOL     OW54006  11.494   9.639   2.036
17411SOL    HW154007  11.572   9.676   2.077
17411SOL    HW254008  11.452   9.588   2.106
17412SOL     OW54009   6.647  14.732  13.047
17412SOL    HW154010   6.692  14.795  12.990
17412SOL    HW254011   6.700  14.652  13.041
17413SOL     OW54012   2.373   1.082   1.055
17413SOL    HW154013   2.350   1.004   1.106
17413SOL    HW254014   2.455   1.113   1.095
17414SOL     OW54015   7.434   6.122   2.530
17414SOL    HW154016   7.401   6.176   2.602
17414SOL    HW254017   7.359   6.112   2.471
17415SOL     OW54018   5.121  14.748   9.592
17415SOL    HW154019   5.163  14.665   9.569
17415SOL    HW254020   5.116  14.796   9.509
17416SOL     OW54021  12.978  12.923   2.502
17416SOL    HW154022  12.984  12.856   2.433
17416SOL    HW254023  12.933  12.879   2.574
17417SOL     OW54024  14.159   7.448  11.734
17417SOL    HW154025  14.116   7.377  11.687
17417SOL    HW254026  14.175   7.515  11.668
17418SOL     OW54027  13.720   1.498   2.196
17418SOL    HW154028  13.644   1.483   2.252
17418SOL    HW254029  13.767   1.570   2.238
17419SOL     OW54030  13.128  12.236   1.756
17419SOL    HW154031  13.066  12.190   1.811
17419SOL    HW254032  13.127  12.326   1.788
17420SOL     OW54033  10.542   5.934   8.997
17420SOL    HW154034  10.534   6.027   8.975
17420SOL    HW254035  10.573   5.933   9.087
17421SOL     OW54036  10.116   3.760  12.778
17421SOL    HW154037  10.188   3.742  12.838
17421SOL    HW254038  10.159   3.797  12.700
17422SOL     OW54039  12.875   4.077  11.067
17422SOL    HW154040  12.922   4.014  11.011
17422SOL    HW254041  12.877   4.037  11.154
17423SOL     OW54042  13.877  11.319  14.292
17423SOL    HW154043  13.926  11.257  14.237
17423SOL    HW254044  13.902  11.296  14.382
17424SOL     OW54045   8.422  13.993   1.357
17424SOL    HW154046   8.497  14.038   1.320
17424SOL    HW254047   8.454  13.958   1.440
17425SOL     OW54048   8.286   8.941   4.847
17425SOL    HW154049   8.376   8.975   4.844
17425SOL    HW254050   8.287   8.866   4.788
17426SOL     OW54051   9.618   9.851  14.348
17426SOL    HW154052   9.651   9.934  14.313
17426SOL    HW254053   9.645   9.786  14.283
17427SOL     OW54054   0.009   0.122   5.613
17427SOL    HW154055   0.026   0.032   5.585
17427SOL    HW254056   0.063   0.134   5.691
17428SOL     OW54057  14.263   3.481  12.021
17428SOL    HW154058  14.255   3.546  11.951
17428SOL    HW254059  14.357   3.478  12.040
17429SOL     OW54060  14.399   3.357   8.590
17429SOL    HW154061  14.329   3.293   8.576
17429SOL    HW254062  14.363   3.419   8.652
17430SOL     OW54063   6.289   7.484   6.876
17430SOL    HW154064   6.218   7.523   6.826
17430SOL    HW254065   6.365   7.539   6.856
17431SOL     OW54066   4.174   3.530   7.739
17431SOL    HW154067   4.130   3.483   7.810
17431SOL    HW254068   4.233   3.591   7.784
17432SOL     OW54069   9.321   6.645   3.661
17432SOL    HW154070   9.364   6.560   3.664
17432SOL    HW254071   9.227   6.625   3.661
17433SOL     OW54072  12.765  12.155  10.071
17433SOL    HW154073  12.827  12.129  10.140
17433SOL    HW254074  12.784  12.095   9.999
17434SOL     OW54075   4.741   3.849   4.741
17434SOL    HW154076   4.752   3.809   4.827
17434SOL    HW254077   4.730   3.943   4.759
17435SOL     OW54078   0.158   9.897   6.050
17435SOL    HW154079   0.148   9.970   6.111
17435SOL    HW254080   0.081   9.843   6.064
17436SOL     OW54081   2.054  13.142   3.260
17436SOL    HW154082   2.107  13.213   3.223
17436SOL    HW254083   1.965  13.161   3.230
17437SOL     OW54084   0.660  11.051   2.663
17437SOL    HW154085   0.687  11.055   2.571
17437SOL    HW254086   0.591  11.117   2.670
17438SOL     OW54087  13.014   0.555   2.006
17438SOL    HW154088  12.982   0.472   2.040
17438SOL    HW254089  13.022   0.541   1.912
17439SOL     OW54090   3.271  12.179   2.005
17439SOL    HW154091   3.314  12.213   2.083
17439SOL    HW254092   3.183  12.216   2.007
17440SOL     OW54093   0.799   8.343   6.598
17440SOL    HW154094   0.738   8.272   6.575
17440SOL    HW254095   0.769   8.418   6.546
17441SOL     OW54096   5.894   9.971   6.175
17441SOL    HW154097   5.927   9.891   6.217
17441SOL    HW254098   5.945   9.977   6.094
17442SOL     OW54099   1.750  14.054   3.789
17442SOL    HW154100   1.761  14.079   3.697
17442SOL    HW254101   1.834  14.014   3.813
17443SOL     OW54102   6.753   4.247  10.636
17443SOL    HW154103   6.726   4.322  10.690
17443SOL    HW254104   6.717   4.267  10.549
17444SOL     OW54105   4.983   7.255   6.242
17444SOL    HW154106   4.966   7.344   6.213
17444SOL    HW254107   4.932   7.200   6.182
17445SOL     OW54108   6.791   0.794  14.387
17445SOL    HW154109   6.706   0.797  14.343
17445SOL    HW254110   6.794   0.874  14.440
17446SOL     OW54111  13.409   2.728   7.665
17446SOL    HW154112  13.490   2.736   7.616
17446SOL    HW254113  13.409   2.638   7.699
17447SOL     OW54114   0.342  13.149   5.078
17447SOL    HW154115   0.320  13.091   5.005
17447SOL    HW254116   0.257  13.170   5.117
17448SOL     OW54117   7.917   6.405   5.341
17448SOL    HW154118   7.927   6.482   5.285
17448SOL    HW254119   7.868   6.436   5.417
17449SOL     OW54120   3.341   2.901  12.813
17449SOL    HW154121   3.336   2.854  12.730
17449SOL    HW254122   3.410   2.856  12.862
17450SOL     OW54123   3.670  13.421   7.628
17450SOL    HW154124   3.762  13.445   7.639
17450SOL    HW254125   3.656  13.423   7.533
17451SOL     OW54126   2.914   0.659   6.888
17451SOL    HW154127   2.888   0.618   6.806
17451SOL    HW254128   2.850   0.627   6.952
17452SOL     OW54129   2.897   4.495  14.163
17452SOL    HW154130   2.887   4.462  14.074
17452SOL    HW254131   2.990   4.515  14.171
17453SOL     OW54132  11.919   2.904   4.718
17453SOL    HW154133  11.858   2.834   4.742
17453SOL    HW254134  11.909   2.913   4.623
17454SOL     OW54135   0.688  11.899  10.153
17454SOL    HW154136   0.752  11.916  10.222
17454SOL    HW254137   0.734  11.846  10.088
17455SOL     OW54138  12.522  13.878   7.245
17455SOL    HW154139  12.439  13.920   7.269
17455SOL    HW254140  12.496  13.797   7.201
17456SOL     OW54141   5.683   2.403  12.286
17456SOL    HW154142   5.729   2.359  12.216
17456SOL    HW254143   5.594   2.415  12.253
17457SOL     OW54144  13.107   9.845  10.955
17457SOL    HW154145  13.055   9.854  11.035
17457SOL    HW254146  13.158   9.926  10.950
17458SOL     OW54147  11.021  11.341   6.699
17458SOL    HW154148  10.950  11.397   6.669
17458SOL    HW254149  11.001  11.324   6.791
17459SOL     OW54150  10.479   1.155  13.226
17459SOL    HW154151  10.487   1.215  13.300
17459SOL    HW254152  10.540   1.084  13.245
17460SOL     OW54153   4.446   7.214  11.461
17460SOL    HW154154   4.519   7.152  11.458
17460SOL    HW254155   4.488   7.299  11.477
17461SOL     OW54156  13.215   2.415   2.994
17461SOL    HW154157  13.280   2.457   2.939
17461SOL    HW254158  13.212   2.324   2.964
17462SOL     OW54159  13.661  13.969  10.161
17462SOL    HW154160  13.615  13.912  10.099
17462SOL    HW254161  13.705  14.034  10.106
17463SOL     OW54162   6.262   6.345   8.407
17463SOL    HW154163   6.227   6.300   8.330
17463SOL    HW254164   6.200   6.416   8.423
17464SOL     OW54165   3.967   5.033   9.028
17464SOL    HW154166   3.883   4.989   9.013
17464SOL    HW254167   4.005   5.045   8.941
17465SOL     OW54168   9.419  13.292   6.127
17465SOL    HW154169   9.404  13.203   6.093
17465SOL    HW254170   9.365  13.348   6.072
17466SOL     OW54171  14.630   8.165  12.376
17466SOL    HW154172  14.635   8.090  12.436
17466SOL    HW254173  14.683   8.139  12.301
17467SOL     OW54174   1.465  13.827  13.821
17467SOL    HW154175   1.488  13.735  13.835
17467SOL    HW254176   1.429  13.855  13.905
17468SOL     OW54177  14.599   8.653   4.919
17468SOL    HW154178  14.541   8.604   4.977
17468SOL    HW254179  14.558   8.648   4.833
17469SOL     OW54180   1.983   4.237  12.724
17469SOL    HW154181   2.013   4.158  12.681
17469SOL    HW254182   1.955   4.294  12.653
17470SOL     OW54183   4.336   2.434   8.288
17470SOL    HW154184   4.353   2.424   8.381
17470SOL    HW254185   4.322   2.528   8.276
17471SOL     OW54186   1.354   5.784   6.533
17471SOL    HW154187   1.271   5.826   6.555
17471SOL    HW254188   1.405   5.788   6.613
17472SOL     OW54189  13.436  12.127  13.890
17472SOL    HW154190  13.461  12.040  13.861
17472SOL    HW254191  13.511  12.182  13.869
17473SOL     OW54192   7.024  12.673   4.929
17473SOL    HW154193   7.016  12.630   4.843
17473SOL    HW254194   7.025  12.601   4.992
17474SOL     OW54195   9.883   0.828   4.403
17474SOL    HW154196   9.872   0.744   4.447
17474SOL    HW254197   9.976   0.831   4.379
17475SOL     OW54198  14.498   1.644   2.006
17475SOL    HW154199  14.524   1.608   2.091
17475SOL    HW254200  14.414   1.686   2.023
17476SOL     OW54201   1.175   1.298   9.691
17476SOL    HW154202   1.133   1.303   9.605
17476SOL    HW254203   1.156   1.382   9.732
17477SOL     OW54204  10.189  13.960  13.337
17477SOL    HW154205  10.137  14.031  13.374
17477SOL    HW254206  10.126  13.889  13.323
17478SOL     OW54207   1.565   6.575   5.579
17478SOL    HW154208   1.601   6.539   5.498
17478SOL    HW254209   1.525   6.500   5.623
17479SOL     OW54210  12.940   6.612   1.175
17479SOL    HW154211  12.926   6.701   1.145
17479SOL    HW254212  13.019   6.583   1.129
17480SOL     OW54213   4.141   9.258   8.343
17480SOL    HW154214   4.098   9.287   8.424
17480SOL    HW254215   4.169   9.340   8.301
17481SOL     OW54216  11.454   4.741   6.686
17481SOL    HW154217  11.359   4.730   6.681
17481SOL    HW254218  11.482   4.674   6.749
17482SOL     OW54219   4.984   2.039   1.389
17482SOL    HW154220   4.930   1.976   1.436
17482SOL    HW254221   4.931   2.119   1.388
17483SOL     OW54222   3.319   4.104   9.705
17483SOL    HW154223   3.346   4.153   9.782
17483SOL    HW254224   3.269   4.166   9.653
17484SOL     OW54225  14.161   8.317   5.956
17484SOL    HW154226  14.072   8.295   5.930
17484SOL    HW254227  14.157   8.328   6.051
17485SOL     OW54228  10.217   8.887  13.927
17485SOL    HW154229  10.139   8.834  13.910
17485SOL    HW254230  10.182   8.972  13.953
17486SOL     OW54231   9.333   3.334   8.318
17486SOL    HW154232   9.393   3.389   8.368
17486SOL    HW254233   9.369   3.334   8.229
17487SOL     OW54234   7.960   5.945   6.642
17487SOL    HW154235   8.024   5.883   6.677
17487SOL    HW254236   7.885   5.890   6.618
17488SOL     OW54237   2.153   4.625   3.994
17488SOL    HW154238   2.159   4.721   3.995
17488SOL    HW254239   2.060   4.607   4.011
17489SOL     OW54240   1.030   0.341   4.578
17489SOL    HW154241   0.950   0.316   4.624
17489SOL    HW254242   1.041   0.275   4.509
17490SOL     OW54243   8.690   8.366  13.118
17490SOL    HW154244   8.604   8.367  13.076
17490SOL    HW254245   8.749   8.330  13.052
17491SOL     OW54246  11.766   8.787   8.121
17491SOL    HW154247  11.859   8.773   8.105
17491SOL    HW254248  11.726   8.701   8.109
17492SOL     OW54249   9.836  11.120  14.810
17492SOL    HW154250   9.874  11.193  14.859
17492SOL    HW254251   9.894  11.107  14.735
17493SOL     OW54252   1.712  10.357  10.512
17493SOL    HW154253   1.766  10.412  10.456
17493SOL    HW254254   1.761  10.275  10.520
17494SOL     OW54255   6.442   3.665   1.004
17494SOL    HW154256   6.535   3.683   0.993
17494SOL    HW254257   6.425   3.681   1.097
17495SOL     OW54258   9.580   9.538  13.430
17495SOL    HW154259   9.503   9.596  13.430
17495SOL    HW254260   9.582   9.502  13.342
17496SOL     OW54261  10.688   8.058   5.529
17496SOL    HW154262  10.751   7.996   5.566
17496SOL    HW254263  10.618   8.062   5.593
17497SOL     OW54264   0.515   0.056   7.611
17497SOL    HW154265   0.582   0.123   7.595
17497SOL    HW254266   0.539  14.866   7.553
17498SOL     OW54267  14.134   3.437   2.270
17498SOL    HW154268  14.063   3.452   2.333
17498SOL    HW254269  14.197   3.506   2.287
17499SOL     OW54270  11.077   2.591   3.572
17499SOL    HW154271  10.996   2.642   3.571
17499SOL    HW254272  11.081   2.550   3.485
17500SOL     OW54273  11.749   3.711   0.569
17500SOL    HW154274  11.778   3.640   0.627
17500SOL    HW254275  11.751   3.673   0.481
17501SOL     OW54276   4.499   4.288   8.954
17501SOL    HW154277   4.556   4.310   8.880
17501SOL    HW254278   4.505   4.363   9.012
17502SOL     OW54279  12.770   4.571   7.853
17502SOL    HW154280  12.789   4.562   7.759
17502SOL    HW254281  12.750   4.664   7.864
17503SOL     OW54282   5.450  11.902  14.829
17503SOL    HW154283   5.404  11.984  14.847
17503SOL    HW254284   5.525  11.928  14.775
17504SOL     OW54285   7.025   7.115   9.450
17504SOL    HW154286   7.049   7.207   9.461
17504SOL    HW254287   7.043   7.096   9.358
17505SOL     OW54288   2.370   8.909   0.571
17505SOL    HW154289   2.312   8.864   0.509
17505SOL    HW254290   2.382   8.845   0.642
17506SOL     OW54291   8.890  10.391   5.688
17506SOL    HW154292   8.851  10.349   5.611
17506SOL    HW254293   8.944  10.322   5.728
17507SOL     OW54294   6.325   2.026  12.812
17507SOL    HW154295   6.337   1.956  12.748
17507SOL    HW254296   6.344   2.106  12.763
17508SOL     OW54297  10.232   3.741   9.186
17508SOL    HW154298  10.322   3.714   9.200
17508SOL    HW254299  10.191   3.734   9.273
17509SOL     OW54300  12.977   1.348  13.761
17509SOL    HW154301  13.021   1.263  13.767
17509SOL    HW254302  12.933   1.347  13.676
17510SOL     OW54303  14.315   9.269   6.244
17510SOL    HW154304  14.268   9.321   6.179
17510SOL    HW254305  14.321   9.182   6.205
17511SOL     OW54306   4.272   2.471  12.610
17511SOL    HW154307   4.354   2.459  12.561
17511SOL    HW254308   4.298   2.467  12.702
17512SOL     OW54309  11.881   0.842   9.404
17512SOL    HW154310  11.961   0.894   9.413
17512SOL    HW254311  11.911   0.759   9.367
17513SOL     OW54312   7.592   3.791  12.605
17513SOL    HW154313   7.581   3.795  12.700
17513SOL    HW254314   7.616   3.700  12.587
17514SOL     OW54315   3.994   1.477   9.161
17514SOL    HW154316   4.041   1.514   9.236
17514SOL    HW254317   3.903   1.500   9.176
17515SOL     OW54318   5.509   8.935  14.665
17515SOL    HW154319   5.534   9.010  14.611
17515SOL    HW254320   5.426   8.961  14.704
17516SOL     OW54321   3.899  12.864  10.876
17516SOL    HW154322   3.828  12.886  10.815
17516SOL    HW254323   3.857  12.855  10.961
17517SOL     OW54324   6.017  14.506   4.879
17517SOL    HW154325   5.943  14.472   4.929
17517SOL    HW254326   6.077  14.432   4.873
17518SOL     OW54327   1.281   4.144   7.507
17518SOL    HW154328   1.333   4.082   7.456
17518SOL    HW254329   1.321   4.229   7.490
17519SOL     OW54330   2.272  12.646  11.738
17519SOL    HW154331   2.271  12.631  11.643
17519SOL    HW254332   2.281  12.741  11.747
17520SOL     OW54333  14.850  11.280   8.399
17520SOL    HW154334  14.835  11.328   8.481
17520SOL    HW254335  14.803  11.331   8.333
17521SOL     OW54336   7.625  12.340   3.054
17521SOL    HW154337   7.539  12.297   3.049
17521SOL    HW254338   7.604  12.433   3.067
17522SOL     OW54339   3.271   7.756  12.937
17522SOL    HW154340   3.210   7.700  12.888
17522SOL    HW254341   3.223   7.781  13.016
17523SOL     OW54342   6.097   7.663   2.210
17523SOL    HW154343   6.044   7.623   2.279
17523SOL    HW254344   6.100   7.756   2.233
17524SOL     OW54345   6.680   5.952   8.062
17524SOL    HW154346   6.597   5.999   8.052
17524SOL    HW254347   6.706   5.968   8.152
17525SOL     OW54348   9.152   8.470   3.421
17525SOL    HW154349   9.124   8.406   3.487
17525SOL    HW254350   9.127   8.555   3.457
17526SOL     OW54351   4.109   5.849   0.992
17526SOL    HW154352   4.035   5.888   0.946
17526SOL    HW254353   4.147   5.789   0.929
17527SOL     OW54354  10.821  11.929   7.684
17527SOL    HW154355  10.856  12.010   7.722
17527SOL    HW254356  10.811  11.870   7.759
17528SOL     OW54357  14.118   7.557   5.508
17528SOL    HW154358  14.095   7.650   5.508
17528SOL    HW254359  14.125   7.534   5.415
17529SOL     OW54360   2.141   9.835   9.722
17529SOL    HW154361   2.221   9.887   9.726
17529SOL    HW254362   2.171   9.745   9.709
17530SOL     OW54363   2.785   3.842   5.018
17530SOL    HW154364   2.788   3.802   4.931
17530SOL    HW254365   2.806   3.770   5.078
17531SOL     OW54366   3.726  14.451  11.892
17531SOL    HW154367   3.659  14.519  11.894
17531SOL    HW254368   3.805  14.495  11.924
17532SOL     OW54369   5.160   9.275   0.667
17532SOL    HW154370   5.169   9.198   0.722
17532SOL    HW254371   5.228   9.265   0.600
17533SOL     OW54372   9.832   3.234   7.384
17533SOL    HW154373   9.743   3.200   7.384
17533SOL    HW254374   9.847   3.262   7.475
17534SOL     OW54375   4.571   1.875  13.943
17534SOL    HW154376   4.549   1.932  13.870
17534SOL    HW254377   4.488   1.863  13.990
17535SOL     OW54378   3.028   5.610   4.937
17535SOL    HW154379   2.983   5.672   4.995
17535SOL    HW254380   3.057   5.663   4.863
17536SOL     OW54381   2.946  11.839   6.926
17536SOL    HW154382   3.000  11.857   6.849
17536SOL    HW254383   2.886  11.913   6.931
17537SOL     OW54384   4.614   0.212  13.232
17537SOL    HW154385   4.594   0.182  13.143
17537SOL    HW254386   4.528   0.226  13.272
17538SOL     OW54387  11.351  11.815   2.478
17538SOL    HW154388  11.356  11.772   2.563
17538SOL    HW254389  11.303  11.754   2.423
17539SOL     OW54390   3.112  14.144   8.551
17539SOL    HW154391   3.055  14.104   8.616
17539SOL    HW254392   3.200  14.133   8.586
17540SOL     OW54393  14.573   1.989   4.817
17540SOL    HW154394  14.508   1.925   4.845
17540SOL    HW254395  14.615   2.017   4.898
17541SOL     OW54396   7.430   7.068  12.329
17541SOL    HW154397   7.486   7.104  12.261
17541SOL    HW254398   7.483   7.071  12.409
17542SOL     OW54399  11.345   5.341  13.457
17542SOL    HW154400  11.337   5.421  13.405
17542SOL    HW254401  11.285   5.279  13.415
17543SOL     OW54402  13.782   9.216   2.745
17543SOL    HW154403  13.828   9.286   2.791
17543SOL    HW254404  13.835   9.202   2.666
17544SOL     OW54405   8.577  14.015  13.352
17544SOL    HW154406   8.569  13.921  13.339
17544SOL    HW254407   8.647  14.042  13.292
17545SOL     OW54408   0.009  12.726  14.257
17545SOL    HW154409   0.093  12.732  14.211
17545SOL    HW254410  14.836  12.795  14.219
17546SOL     OW54411  10.625  12.381  12.514
17546SOL    HW154412  10.611  12.290  12.486
17546SOL    HW254413  10.545  12.403  12.562
17547SOL     OW54414   9.171   4.824   3.830
17547SOL    HW154415   9.198   4.908   3.868
17547SOL    HW254416   9.087   4.843   3.788
17548SOL     OW54417   6.614  13.473   3.382
17548SOL    HW154418   6.658  13.446   3.302
17548SOL    HW254419   6.614  13.394   3.437
17549SOL     OW54420   1.395   7.221  11.369
17549SOL    HW154421   1.490   7.212  11.361
17549SOL    HW254422   1.383   7.306  11.411
17550SOL     OW54423   2.364  11.314  13.102
17550SOL    HW154424   2.452  11.304  13.066
17550SOL    HW254425   2.319  11.371  13.040
17551SOL     OW54426  11.439   7.586   6.777
17551SOL    HW154427  11.508   7.583   6.712
17551SOL    HW254428  11.358   7.583   6.726
17552SOL     OW54429   1.668  11.600   6.899
17552SOL    HW154430   1.593  11.636   6.946
17552SOL    HW254431   1.658  11.632   6.809
17553SOL     OW54432   2.932  10.504  14.236
17553SOL    HW154433   2.962  10.594  14.246
17553SOL    HW254434   2.917  10.494  14.142
17554SOL     OW54435   1.367   9.970  10.419
17554SOL    HW154436   1.446   9.918  10.405
17554SOL    HW254437   1.376  10.003  10.509
17555SOL     OW54438  12.580  12.095  14.092
17555SOL    HW154439  12.500  12.102  14.041
17555SOL    HW254440  12.551  12.067  14.179
17556SOL     OW54441  11.712   2.529   8.935
17556SOL    HW154442  11.620   2.508   8.950
17556SOL    HW254443  11.760   2.454   8.970
17557SOL     OW54444  14.163   6.864   2.441
17557SOL    HW154445  14.178   6.775   2.472
17557SOL    HW254446  14.068   6.869   2.428
17558SOL     OW54447   9.710   1.475  11.241
17558SOL    HW154448   9.699   1.540  11.311
17558SOL    HW254449   9.714   1.527  11.161
17559SOL     OW54450  10.085  11.662  12.135
17559SOL    HW154451  10.095  11.678  12.229
17559SOL    HW254452  10.131  11.734  12.093
17560SOL     OW54453  12.941   8.567  13.056
17560SOL    HW154454  13.027   8.526  13.042
17560SOL    HW254455  12.926   8.560  13.150
17561SOL     OW54456   6.554   9.075   9.009
17561SOL    HW154457   6.503   9.117   9.079
17561SOL    HW254458   6.496   9.007   8.975
17562SOL     OW54459   9.935   6.729   5.237
17562SOL    HW154460   9.957   6.636   5.232
17562SOL    HW254461   9.959   6.765   5.152
17563SOL     OW54462   0.559   7.959   8.101
17563SOL    HW154463   0.605   8.008   8.170
17563SOL    HW254464   0.589   8.000   8.019
17564SOL     OW54465   2.499   2.853  11.017
17564SOL    HW154466   2.452   2.935  11.005
17564SOL    HW254467   2.460   2.794  10.952
17565SOL     OW54468  12.875   7.849  12.628
17565SOL    HW154469  12.901   7.777  12.686
17565SOL    HW254470  12.946   7.855  12.564
17566SOL     OW54471  10.703   3.613   1.475
17566SOL    HW154472  10.651   3.635   1.553
17566SOL    HW254473  10.792   3.638   1.497
17567SOL     OW54474  10.396  11.068   9.710
17567SOL    HW154475  10.418  11.000   9.774
17567SOL    HW254476  10.302  11.057   9.694
17568SOL     OW54477   3.860   2.324  13.020
17568SOL    HW154478   3.799   2.269  13.068
17568SOL    HW254479   3.869   2.281  12.935
17569SOL     OW54480   7.965   6.926   2.934
17569SOL    HW154481   7.932   6.848   2.978
17569SOL    HW254482   7.980   6.989   3.004
17570SOL     OW54483   1.477   8.012  11.912
17570SOL    HW154484   1.549   8.047  11.966
17570SOL    HW254485   1.462   8.080  11.846
17571SOL     OW54486  12.690  11.610  12.271
17571SOL    HW154487  12.713  11.524  12.306
17571SOL    HW254488  12.682  11.667  12.348
17572SOL     OW54489   9.748   7.465   4.518
17572SOL    HW154490   9.665   7.452   4.473
17572SOL    HW254491   9.765   7.559   4.509
17573SOL     OW54492  13.789  11.333   0.028
17573SOL    HW154493  13.808  11.403   0.090
17573SOL    HW254494  13.694  11.322   0.033
17574SOL     OW54495   1.363   9.138  11.600
17574SOL    HW154496   1.424   9.064  11.608
17574SOL    HW254497   1.363   9.178  11.687
17575SOL     OW54498   2.162   2.331  14.459
17575SOL    HW154499   2.082   2.380  14.478
17575SOL    HW254500   2.134   2.263  14.398
17576SOL     OW54501  13.635  13.446   7.081
17576SOL    HW154502  13.608  13.533   7.051
17576SOL    HW254503  13.663  13.400   7.001
17577SOL     OW54504   6.784   6.592  12.914
17577SOL    HW154505   6.801   6.636  12.830
17577SOL    HW254506   6.713   6.531  12.895
17578SOL     OW54507  10.258   4.889   4.368
17578SOL    HW154508  10.207   4.944   4.428
17578SOL    HW254509  10.207   4.890   4.287
17579SOL     OW54510   0.453   1.535   5.352
17579SOL    HW154511   0.439   1.487   5.270
17579SOL    HW254512   0.514   1.480   5.401
17580SOL     OW54513  10.551   6.866   6.045
17580SOL    HW154514  10.469   6.842   6.003
17580SOL    HW254515  10.617   6.814   6.000
17581SOL     OW54516   0.325   0.353   6.314
17581SOL    HW154517   0.366   0.425   6.362
17581SOL    HW254518   0.237   0.383   6.296
17582SOL     OW54519   7.599   0.338  10.173
17582SOL    HW154520   7.503   0.344  10.170
17582SOL    HW254521   7.618   0.288  10.252
17583SOL     OW54522   9.516   0.698  12.983
17583SOL    HW154523   9.533   0.610  13.016
17583SOL    HW254524   9.420   0.708  12.988
17584SOL     OW54525  12.889   1.101   7.111
17584SOL    HW154526  12.869   1.007   7.106
17584SOL    HW254527  12.806   1.145   7.095
17585SOL     OW54528  12.491  12.518   7.974
17585SOL    HW154529  12.553  12.564   7.917
17585SOL    HW254530  12.478  12.433   7.931
17586SOL     OW54531   9.930   4.852  11.468
17586SOL    HW154532   9.999   4.910  11.500
17586SOL    HW254533   9.857   4.911  11.447
17587SOL     OW54534  10.573   2.125   1.401
17587SOL    HW154535  10.619   2.182   1.340
17587SOL    HW254536  10.584   2.037   1.365
17588SOL     OW54537  11.798  12.665   5.435
17588SOL    HW154538  11.776  12.642   5.344
17588SOL    HW254539  11.803  12.761   5.434
17589SOL     OW54540  12.811   9.185   1.899
17589SOL    HW154541  12.882   9.224   1.950
17589SOL    HW254542  12.742   9.168   1.963
17590SOL     OW54543  14.474   5.330  10.804
17590SOL    HW154544  14.450   5.339  10.712
17590SOL    HW254545  14.404   5.375  10.852
17591SOL     OW54546   6.325  10.467  10.368
17591SOL    HW154547   6.325  10.394  10.429
17591SOL    HW254548   6.388  10.442  10.300
17592SOL     OW54549   5.883   3.147   6.582
17592SOL    HW154550   5.873   3.242   6.581
17592SOL    HW254551   5.883   3.121   6.490
17593SOL     OW54552   8.851   1.657   9.394
17593SOL    HW154553   8.787   1.598   9.355
17593SOL    HW254554   8.800   1.730   9.427
17594SOL     OW54555   6.753  14.586   2.471
17594SOL    HW154556   6.736  14.522   2.540
17594SOL    HW254557   6.672  14.588   2.420
17595SOL     OW54558   1.697  10.933  13.910
17595SOL    HW154559   1.727  11.015  13.871
17595SOL    HW254560   1.714  10.943  14.004
17596SOL     OW54561   0.524   5.880  12.186
17596SOL    HW154562   0.530   5.840  12.100
17596SOL    HW254563   0.607   5.926  12.197
17597SOL     OW54564   1.793  11.636  12.556
17597SOL    HW154565   1.752  11.716  12.523
17597SOL    HW254566   1.808  11.582  12.479
17598SOL     OW54567  14.428   8.387   6.558
17598SOL    HW154568  14.504   8.439   6.583
17598SOL    HW254569  14.430   8.386   6.462
17599SOL     OW54570  14.025   2.305  12.003
17599SOL    HW154571  14.058   2.216  12.016
17599SOL    HW254572  13.979   2.327  12.083
17600SOL     OW54573   4.773   4.155  14.442
17600SOL    HW154574   4.831   4.085  14.413
17600SOL    HW254575   4.800   4.232  14.391
17601SOL     OW54576  11.115  13.489  14.636
17601SOL    HW154577  11.156  13.464  14.719
17601SOL    HW254578  11.147  13.425  14.573
17602SOL     OW54579   6.884  10.112   6.737
17602SOL    HW154580   6.944  10.107   6.663
17602SOL    HW254581   6.817  10.175   6.710
17603SOL     OW54582   7.467   0.435   6.474
17603SOL    HW154583   7.381   0.393   6.475
17603SOL    HW254584   7.528   0.365   6.450
17604SOL     OW54585   1.552   4.671   5.767
17604SOL    HW154586   1.554   4.741   5.832
17604SOL    HW254587   1.588   4.711   5.688
17605SOL     OW54588   1.367   1.756   2.721
17605SOL    HW154589   1.285   1.767   2.770
17605SOL    HW254590   1.436   1.773   2.786
17606SOL     OW54591   7.567  11.169  11.400
17606SOL    HW154592   7.552  11.152  11.307
17606SOL    HW254593   7.651  11.128  11.419
17607SOL     OW54594  11.595  13.838   1.953
17607SOL    HW154595  11.631  13.808   1.869
17607SOL    HW254596  11.516  13.786   1.965
17608SOL     OW54597  14.237  13.856  13.987
17608SOL    HW154598  14.301  13.834  13.919
17608SOL    HW254599  14.184  13.777  13.996
17609SOL     OW54600   3.649   3.418  13.391
17609SOL    HW154601   3.638   3.510  13.367
17609SOL    HW254602   3.728   3.417  13.446
17610SOL     OW54603  14.793  12.148  10.411
17610SOL    HW154604  14.832  12.110  10.490
17610SOL    HW254605  14.868  12.161  10.353
17611SOL     OW54606   7.813   3.742   0.074
17611SOL    HW154607   7.743   3.689   0.111
17611SOL    HW254608   7.869   3.763   0.149
17612SOL     OW54609   7.502  13.654   2.108
17612SOL    HW154610   7.481  13.587   2.043
17612SOL    HW254611   7.580  13.620   2.153
17613SOL     OW54612   4.142  11.862  11.123
17613SOL    HW154613   4.106  11.926  11.062
17613SOL    HW254614   4.201  11.913  11.179
17614SOL     OW54615   6.893   7.658   2.390
17614SOL    HW154616   6.928   7.576   2.354
17614SOL    HW254617   6.958   7.684   2.456
17615SOL     OW54618   2.330  13.465   9.408
17615SOL    HW154619   2.304  13.543   9.358
17615SOL    HW254620   2.306  13.485   9.498
17616SOL     OW54621   0.530  14.101   6.743
17616SOL    HW154622   0.462  14.151   6.788
17616SOL    HW254623   0.555  14.033   6.806
17617SOL     OW54624  11.397   6.024   6.056
17617SOL    HW154625  11.307   6.057   6.057
17617SOL    HW254626  11.436   6.058   6.136
17618SOL     OW54627  10.952  10.820   5.631
17618SOL    HW154628  10.857  10.823   5.619
17618SOL    HW254629  10.984  10.900   5.589
17619SOL     OW54630   5.072   2.392  11.393
17619SOL    HW154631   5.021   2.455  11.443
17619SOL    HW254632   5.145   2.443  11.356
17620SOL     OW54633   7.498   4.883  14.252
17620SOL    HW154634   7.586   4.912  14.230
17620SOL    HW254635   7.481   4.810  14.192
17621SOL     OW54636   1.069  11.573  10.997
17621SOL    HW154637   1.091  11.629  11.071
17621SOL    HW254638   1.131  11.597  10.929
17622SOL     OW54639   6.095  12.922   1.016
17622SOL    HW154640   6.155  12.893   0.947
17622SOL    HW254641   6.148  12.982   1.069
17623SOL     OW54642   8.353   7.744  11.651
17623SOL    HW154643   8.386   7.833  11.636
17623SOL    HW254644   8.262   7.757  11.679
17624SOL     OW54645  14.364   9.754   9.301
17624SOL    HW154646  14.331   9.732   9.388
17624SOL    HW254647  14.372   9.850   9.302
17625SOL     OW54648   6.032   7.555   9.600
17625SOL    HW154649   6.115   7.565   9.553
17625SOL    HW254650   5.997   7.644   9.606
17626SOL     OW54651   2.198   7.786   2.743
17626SOL    HW154652   2.188   7.731   2.821
17626SOL    HW254653   2.135   7.751   2.680
17627SOL     OW54654  10.764   1.701  13.394
17627SOL    HW154655  10.707   1.698  13.471
17627SOL    HW254656  10.708   1.735  13.324
17628SOL     OW54657   0.785   0.045   1.269
17628SOL    HW154658   0.691   0.031   1.259
17628SOL    HW254659   0.821  14.839   1.286
17629SOL     OW54660   4.242   6.112   8.922
17629SOL    HW154661   4.264   6.045   8.857
17629SOL    HW254662   4.148   6.101   8.936
17630SOL     OW54663   1.071   8.626   8.034
17630SOL    HW154664   1.064   8.533   8.055
17630SOL    HW254665   1.007   8.639   7.964
17631SOL     OW54666   4.290   0.427  11.324
17631SOL    HW154667   4.227   0.498  11.327
17631SOL    HW254668   4.320   0.425  11.233
17632SOL     OW54669   5.819   8.607   9.179
17632SOL    HW154670   5.748   8.668   9.197
17632SOL    HW254671   5.823   8.602   9.084
17633SOL     OW54672  11.418   6.673   4.562
17633SOL    HW154673  11.379   6.657   4.476
17633SOL    HW254674  11.357   6.732   4.606
17634SOL     OW54675   2.661   8.412   6.968
17634SOL    HW154676   2.571   8.439   6.986
17634SOL    HW254677   2.711   8.493   6.965
17635SOL     OW54678  10.566   1.324   8.398
17635SOL    HW154679  10.489   1.269   8.384
17635SOL    HW254680  10.569   1.338   8.492
17636SOL     OW54681   5.585   6.209   3.753
17636SOL    HW154682   5.491   6.226   3.748
17636SOL    HW254683   5.626   6.295   3.750
17637SOL     OW54684   2.536  13.548   4.422
17637SOL    HW154685   2.533  13.452   4.432
17637SOL    HW254686   2.629  13.568   4.413
17638SOL     OW54687   6.176  11.993   6.871
17638SOL    HW154688   6.081  11.992   6.855
17638SOL    HW254689   6.192  12.078   6.912
17639SOL     OW54690  12.769   0.623  14.337
17639SOL    HW154691  12.789   0.533  14.311
17639SOL    HW254692  12.762   0.671  14.254
17640SOL     OW54693   7.229   4.953   6.455
17640SOL    HW154694   7.172   4.916   6.388
17640SOL    HW254695   7.189   4.928   6.538
17641SOL     OW54696   8.346   0.052   4.265
17641SOL    HW154697   8.334  14.844   4.231
17641SOL    HW254698   8.331   0.043   4.359
17642SOL     OW54699  11.699   7.291  12.575
17642SOL    HW154700  11.699   7.274  12.481
17642SOL    HW254701  11.712   7.386  12.583
17643SOL     OW54702  12.270  10.240   9.813
17643SOL    HW154703  12.311  10.294   9.746
17643SOL    HW254704  12.279  10.290   9.894
17644SOL     OW54705   5.068   6.587   2.084
17644SOL    HW154706   5.035   6.676   2.071
17644SOL    HW254707   5.100   6.587   2.175
17645SOL     OW54708  14.271  10.753  10.214
17645SOL    HW154709  14.182  10.724  10.197
17645SOL    HW254710  14.266  10.802  10.296
17646SOL     OW54711   5.377   8.423   7.033
17646SOL    HW154712   5.377   8.327   7.036
17646SOL    HW254713   5.318   8.445   6.960
17647SOL     OW54714  11.578  13.818   5.366
17647SOL    HW154715  11.556  13.726   5.378
17647SOL    HW254716  11.661  13.829   5.414
17648SOL     OW54717   4.375  13.045   3.062
17648SOL    HW154718   4.443  13.085   3.117
17648SOL    HW254719   4.393  12.951   3.066
17649SOL     OW54720   2.960   4.354   4.999
17649SOL    HW154721   2.968   4.259   5.011
17649SOL    HW254722   3.051   4.383   4.986
17650SOL     OW54723   4.656   5.539  12.708
17650SOL    HW154724   4.587   5.573  12.764
17650SOL    HW254725   4.647   5.587  12.625
17651SOL     OW54726   7.461  10.133   2.106
17651SOL    HW154727   7.543  10.122   2.057
17651SOL    HW254728   7.469  10.221   2.144
17652SOL     OW54729   6.668   8.053   0.174
17652SOL    HW154730   6.687   7.970   0.218
17652SOL    HW254731   6.722   8.052   0.095
17653SOL     OW54732  13.624  10.055   5.839
17653SOL    HW154733  13.696  10.116   5.847
17653SOL    HW254734  13.570  10.091   5.768
17654SOL     OW54735   1.355   9.579   8.253
17654SOL    HW154736   1.341   9.488   8.280
17654SOL    HW254737   1.344   9.578   8.158
17655SOL     OW54738   9.138   6.706   9.190
17655SOL    HW154739   9.055   6.738   9.224
17655SOL    HW254740   9.197   6.707   9.265
17656SOL     OW54741   9.136   5.043  13.874
17656SOL    HW154742   9.139   5.003  13.786
17656SOL    HW254743   9.099   5.130  13.859
17657SOL     OW54744   7.254   0.261   1.877
17657SOL    HW154745   7.292   0.323   1.814
17657SOL    HW254746   7.163   0.288   1.885
17658SOL     OW54747   3.414   7.453   2.463
17658SOL    HW154748   3.489   7.467   2.520
17658SOL    HW254749   3.417   7.526   2.402
17659SOL     OW54750  11.067   9.320   6.955
17659SOL    HW154751  11.162   9.322   6.944
17659SOL    HW254752  11.050   9.238   7.002
17660SOL     OW54753   5.255   7.978  14.171
17660SOL    HW154754   5.288   7.922  14.100
17660SOL    HW254755   5.302   8.061  14.159
17661SOL     OW54756  11.209   5.334   7.625
17661SOL    HW154757  11.245   5.336   7.537
17661SOL    HW254758  11.258   5.265   7.670
17662SOL     OW54759   9.511   2.757   2.305
17662SOL    HW154760   9.502   2.670   2.265
17662SOL    HW254761   9.426   2.774   2.345
17663SOL     OW54762   5.621   8.512  14.464
17663SOL    HW154763   5.543   8.563  14.485
17663SOL    HW254764   5.595   8.455  14.393
17664SOL     OW54765   6.851  12.681   1.251
17664SOL    HW154766   6.924  12.743   1.250
17664SOL    HW254767   6.778  12.730   1.288
17665SOL     OW54768  12.881   3.065  12.323
17665SOL    HW154769  12.899   2.988  12.268
17665SOL    HW254770  12.868   3.029  12.411
17666SOL     OW54771  13.793  11.793   6.440
17666SOL    HW154772  13.780  11.719   6.499
17666SOL    HW254773  13.709  11.839   6.440
17667SOL     OW54774   1.885   6.535   8.481
17667SOL    HW154775   1.838   6.540   8.398
17667SOL    HW254776   1.973   6.568   8.461
17668SOL     OW54777   3.829  11.804   4.842
17668SOL    HW154778   3.831  11.815   4.747
17668SOL    HW254779   3.756  11.858   4.871
17669SOL     OW54780   2.732   0.721   7.683
17669SOL    HW154781   2.784   0.721   7.763
17669SOL    HW254782   2.730   0.812   7.655
17670SOL     OW54783   2.047   6.366  13.260
17670SOL    HW154784   2.032   6.448  13.306
17670SOL    HW254785   1.997   6.301  13.310
17671SOL     OW54786  13.616   7.167   5.518
17671SOL    HW154787  13.549   7.142   5.581
17671SOL    HW254788  13.694   7.183   5.570
17672SOL     OW54789  11.102   7.970   5.160
17672SOL    HW154790  11.048   7.894   5.143
17672SOL    HW254791  11.165   7.942   5.226
17673SOL     OW54792   8.190   5.118   9.114
17673SOL    HW154793   8.252   5.188   9.098
17673SOL    HW254794   8.241   5.049   9.157
17674SOL     OW54795   6.593  11.159   6.328
17674SOL    HW154796   6.536  11.082   6.324
17674SOL    HW254797   6.534  11.232   6.343
17675SOL     OW54798  13.621   2.659   5.999
17675SOL    HW154799  13.556   2.606   5.954
17675SOL    HW254800  13.705   2.632   5.961
17676SOL     OW54801   1.112  12.489   1.443
17676SOL    HW154802   1.085  12.580   1.453
17676SOL    HW254803   1.170  12.489   1.367
17677SOL     OW54804   8.132   0.814   5.483
17677SOL    HW154805   8.148   0.756   5.408
17677SOL    HW254806   8.210   0.803   5.538
17678SOL     OW54807  12.085   4.064   9.091
17678SOL    HW154808  12.168   4.081   9.136
17678SOL    HW254809  12.069   3.970   9.105
17679SOL     OW54810   1.215  13.173   7.340
17679SOL    HW154811   1.256  13.106   7.395
17679SOL    HW254812   1.132  13.133   7.312
17680SOL     OW54813   9.313   0.278   7.538
17680SOL    HW154814   9.286   0.360   7.496
17680SOL    HW254815   9.313   0.298   7.631
17681SOL     OW54816  13.016   0.714  14.471
17681SOL    HW154817  13.047   0.789  14.421
17681SOL    HW254818  12.961   0.665  14.409
17682SOL     OW54819   6.963   6.355   5.134
17682SOL    HW154820   6.902   6.283   5.147
17682SOL    HW254821   7.047   6.320   5.165
17683SOL     OW54822  12.756   8.017   1.016
17683SOL    HW154823  12.821   8.037   1.085
17683SOL    HW254824  12.796   8.050   0.936
17684SOL     OW54825  13.137   5.838   8.923
17684SOL    HW154826  13.224   5.823   8.960
17684SOL    HW254827  13.091   5.756   8.935
17685SOL     OW54828   2.475   3.725   4.883
17685SOL    HW154829   2.546   3.688   4.832
17685SOL    HW254830   2.506   3.724   4.974
17686SOL     OW54831  12.712  13.025  10.850
17686SOL    HW154832  12.638  13.076  10.817
17686SOL    HW254833  12.742  12.974  10.775
17687SOL     OW54834  13.311   0.158   0.354
17687SOL    HW154835  13.237   0.205   0.317
17687SOL    HW254836  13.380   0.224   0.363
17688SOL     OW54837  12.282   8.848   5.718
17688SOL    HW154838  12.365   8.875   5.758
17688SOL    HW254839  12.215   8.876   5.781
17689SOL     OW54840  14.267   4.647  12.170
17689SOL    HW154841  14.309   4.727  12.202
17689SOL    HW254842  14.290   4.580  12.234
17690SOL     OW54843  11.361  14.138   8.959
17690SOL    HW154844  11.341  14.060   9.009
17690SOL    HW254845  11.279  14.189   8.959
17691SOL     OW54846   2.946  10.600   6.822
17691SOL    HW154847   2.952  10.694   6.808
17691SOL    HW254848   2.858  10.577   6.792
17692SOL     OW54849   8.737  12.244   4.730
17692SOL    HW154850   8.694  12.253   4.814
17692SOL    HW254851   8.818  12.295   4.738
17693SOL     OW54852  13.548   6.330  13.676
17693SOL    HW154853  13.518   6.286  13.597
17693SOL    HW254854  13.558   6.422  13.651
17694SOL     OW54855   5.128   5.486   4.146
17694SOL    HW154856   5.138   5.580   4.136
17694SOL    HW254857   5.197   5.461   4.208
17695SOL     OW54858   9.707   1.709  11.410
17695SOL    HW154859   9.737   1.799  11.422
17695SOL    HW254860   9.719   1.668  11.495
17696SOL     OW54861   9.147   8.068   4.798
17696SOL    HW154862   9.200   8.000   4.840
17696SOL    HW254863   9.203   8.103   4.729
17697SOL     OW54864   9.793   5.475   8.749
17697SOL    HW154865   9.710   5.519   8.762
17697SOL    HW254866   9.817   5.443   8.836
17698SOL     OW54867  14.324  10.637  11.557
17698SOL    HW154868  14.357  10.570  11.497
17698SOL    HW254869  14.286  10.588  11.629
17699SOL     OW54870   0.056   2.243   4.168
17699SOL    HW154871  14.855   2.232   4.121
17699SOL    HW254872   0.040   2.316   4.227
17700SOL     OW54873   7.338  11.739   6.723
17700SOL    HW154874   7.433  11.746   6.723
17700SOL    HW254875   7.312  11.765   6.635
17701SOL     OW54876   3.193   4.197  10.744
17701SOL    HW154877   3.196   4.222  10.837
17701SOL    HW254878   3.115   4.241  10.710
17702SOL     OW54879  12.021  11.757   0.436
17702SOL    HW154880  12.110  11.732   0.413
17702SOL    HW254881  12.007  11.720   0.523
17703SOL     OW54882   1.868  14.002   1.707
17703SOL    HW154883   1.924  13.946   1.653
17703SOL    HW254884   1.779  13.979   1.679
17704SOL     OW54885  14.086  14.061  12.902
17704SOL    HW154886  14.114  14.141  12.859
17704SOL    HW254887  14.083  13.996  12.832
17705SOL     OW54888   4.504  11.540   7.291
17705SOL    HW154889   4.581  11.596   7.303
17705SOL    HW254890   4.432  11.602   7.283
17706SOL     OW54891   8.401  11.034   4.376
17706SOL    HW154892   8.429  10.971   4.310
17706SOL    HW254893   8.468  11.102   4.373
17707SOL     OW54894  13.861  12.111   7.607
17707SOL    HW154895  13.874  12.203   7.582
17707SOL    HW254896  13.920  12.098   7.681
17708SOL     OW54897   5.785  14.502  11.778
17708SOL    HW154898   5.856  14.472  11.836
17708SOL    HW254899   5.768  14.592  11.806
17709SOL     OW54900   8.047   3.102  14.789
17709SOL    HW154901   8.112   3.171  14.774
17709SOL    HW254902   8.023   3.073  14.701
17710SOL     OW54903   9.010   0.390  13.771
17710SOL    HW154904   8.990   0.297  13.766
17710SOL    HW254905   9.073   0.397  13.843
17711SOL     OW54906   7.965  14.186   4.739
17711SOL    HW154907   8.046  14.142   4.715
17711SOL    HW254908   7.900  14.116   4.741
17712SOL     OW54909   0.380  11.458   5.487
17712SOL    HW154910   0.443  11.389   5.464
17712SOL    HW254911   0.434  11.530   5.519
17713SOL     OW54912   6.822  14.552   6.625
17713SOL    HW154913   6.861  14.595   6.548
17713SOL    HW254914   6.823  14.459   6.603
17714SOL     OW54915  11.292   7.483   8.924
17714SOL    HW154916  11.281   7.576   8.904
17714SOL    HW254917  11.272   7.477   9.018
17715SOL     OW54918   9.971   8.430  10.374
17715SOL    HW154919   9.929   8.369  10.435
17715SOL    HW254920  10.064   8.409  10.381
17716SOL     OW54921   1.700   5.189  12.236
17716SOL    HW154922   1.689   5.176  12.330
17716SOL    HW254923   1.636   5.130  12.196
17717SOL     OW54924   8.981   9.241  11.222
17717SOL    HW154925   8.972   9.148  11.200
17717SOL    HW254926   9.024   9.279  11.146
17718SOL     OW54927  11.541   6.298   2.911
17718SOL    HW154928  11.458   6.344   2.916
17718SOL    HW254929  11.600   6.358   2.866
17719SOL     OW54930   6.232   6.171   0.808
17719SOL    HW154931   6.260   6.231   0.740
17719SOL    HW254932   6.139   6.190   0.820
17720SOL     OW54933   8.840  11.156   4.077
17720SOL    HW154934   8.810  11.172   3.988
17720SOL    HW254935   8.808  11.068   4.098
17721SOL     OW54936  14.343   4.499   7.091
17721SOL    HW154937  14.382   4.585   7.075
17721SOL    HW254938  14.312   4.503   7.181
17722SOL     OW54939   0.493   0.771   4.615
17722SOL    HW154940   0.550   0.694   4.614
17722SOL    HW254941   0.409   0.739   4.647
17723SOL     OW54942   9.156   1.312   8.271
17723SOL    HW154943   9.160   1.387   8.330
17723SOL    HW254944   9.208   1.244   8.314
17724SOL     OW54945   3.980   9.315   0.568
17724SOL    HW154946   3.895   9.353   0.543
17724SOL    HW254947   4.001   9.358   0.651
17725SOL     OW54948   4.912   1.690   8.147
17725SOL    HW154949   4.886   1.696   8.055
17725SOL    HW254950   5.003   1.720   8.149
17726SOL     OW54951  11.291   2.568   2.166
17726SOL    HW154952  11.206   2.591   2.128
17726SOL    HW254953  11.317   2.488   2.121
17727SOL     OW54954   7.933  13.067   0.203
17727SOL    HW154955   7.923  13.044   0.111
17727SOL    HW254956   7.880  13.002   0.250
17728SOL     OW54957  13.402   9.204  10.972
17728SOL    HW154958  13.493   9.185  10.995
17728SOL    HW254959  13.382   9.284  11.020
17729SOL     OW54960  14.606  12.590   5.779
17729SOL    HW154961  14.562  12.656   5.832
17729SOL    HW254962  14.535  12.532   5.750
17730SOL     OW54963   8.710  14.744  10.961
17730SOL    HW154964   8.775  14.726  11.028
17730SOL    HW254965   8.632  14.770  11.009
17731SOL     OW54966   2.870  13.866   7.696
17731SOL    HW154967   2.960  13.852   7.726
17731SOL    HW254968   2.861  13.961   7.692
17732SOL     OW54969  10.432  14.672   7.368
17732SOL    HW154970  10.412  14.763   7.392
17732SOL    HW254971  10.369  14.619   7.417
17733SOL     OW54972   9.541   4.668   5.630
17733SOL    HW154973   9.599   4.740   5.656
17733SOL    HW254974   9.519   4.623   5.712
17734SOL     OW54975   0.334   4.501   6.455
17734SOL    HW154976   0.304   4.429   6.399
17734SOL    HW254977   0.276   4.574   6.434
17735SOL     OW54978   8.432   9.763   5.739
17735SOL    HW154979   8.410   9.853   5.715
17735SOL    HW254980   8.487   9.731   5.667
17736SOL     OW54981   8.427   6.218   7.472
17736SOL    HW154982   8.338   6.236   7.500
17736SOL    HW254983   8.423   6.131   7.433
17737SOL     OW54984   4.072   1.634   9.411
17737SOL    HW154985   3.994   1.609   9.460
17737SOL    HW254986   4.145   1.617   9.471
17738SOL     OW54987   9.580   4.795   2.853
17738SOL    HW154988   9.629   4.728   2.805
17738SOL    HW254989   9.631   4.808   2.934
17739SOL     OW54990   0.064  14.473   8.055
17739SOL    HW154991   0.064  14.380   8.030
17739SOL    HW254992   0.079  14.520   7.974
17740SOL     OW54993   6.064  14.003  13.780
17740SOL    HW154994   6.067  13.957  13.696
17740SOL    HW254995   5.971  14.008  13.802
17741SOL     OW54996  14.749  12.403   4.054
17741SOL    HW154997  14.759  12.330   4.116
17741SOL    HW254998  14.793  12.476   4.097
17742SOL     OW54999   1.681  14.387   7.712
17742SOL    HW155000   1.726  14.437   7.643
17742SOL    HW255001   1.711  14.297   7.699
17743SOL     OW55002  13.789   6.139   4.433
17743SOL    HW155003  13.839   6.163   4.511
17743SOL    HW255004  13.828   6.190   4.362
17744SOL     OW55005   7.202   3.224   2.768
17744SOL    HW155006   7.235   3.166   2.836
17744SOL    HW255007   7.117   3.188   2.744
17745SOL     OW55008   2.673   9.747  13.148
17745SOL    HW155009   2.723   9.810  13.201
17745SOL    HW255010   2.728   9.668  13.146
17746SOL     OW55011  11.821  13.722   2.995
17746SOL    HW155012  11.839  13.657   2.926
17746SOL    HW255013  11.784  13.671   3.066
17747SOL     OW55014  10.442  11.505   1.971
17747SOL    HW155015  10.517  11.548   2.013
17747SOL    HW255016  10.383  11.484   2.044
17748SOL     OW55017   8.063  14.872  12.102
17748SOL    HW155018   8.101  14.870  12.014
17748SOL    HW255019   8.120   0.048  12.152
17749SOL     OW55020  11.295   8.312   2.681
17749SOL    HW155021  11.268   8.404   2.679
17749SOL    HW255022  11.390   8.314   2.694
17750SOL     OW55023  11.413  10.634   0.717
17750SOL    HW155024  11.338  10.604   0.665
17750SOL    HW255025  11.448  10.708   0.668
17751SOL     OW55026  11.105   6.701   6.693
17751SOL    HW155027  11.045   6.772   6.715
17751SOL    HW255028  11.173   6.743   6.640
17752SOL     OW55029   2.241   0.026  11.127
17752SOL    HW155030   2.326   0.069  11.129
17752SOL    HW255031   2.190   0.069  11.196
17753SOL     OW55032   3.628   2.037   6.094
17753SOL    HW155033   3.681   2.110   6.125
17753SOL    HW255034   3.623   1.977   6.168
17754SOL     OW55035   8.477   6.765   5.736
17754SOL    HW155036   8.409   6.831   5.721
17754SOL    HW255037   8.516   6.789   5.820
17755SOL     OW55038  12.013   7.998   7.608
17755SOL    HW155039  12.104   7.991   7.578
17755SOL    HW255040  11.985   7.908   7.620
17756SOL     OW55041   3.346  14.734  11.088
17756SOL    HW155042   3.271  14.769  11.135
17756SOL    HW255043   3.388  14.675  11.152
17757SOL     OW55044  12.689   4.523  10.578
17757SOL    HW155045  12.764   4.519  10.637
17757SOL    HW255046  12.612   4.526  10.635
17758SOL     OW55047  14.070  11.093  12.324
17758SOL    HW155048  14.103  11.141  12.400
17758SOL    HW255049  14.142  11.036  12.298
17759SOL     OW55050   3.748   8.348   8.506
17759SOL    HW155051   3.769   8.440   8.524
17759SOL    HW255052   3.766   8.337   8.412
17760SOL     OW55053   2.218   1.581  11.877
17760SOL    HW155054   2.152   1.650  11.883
17760SOL    HW255055   2.222   1.559  11.784
17761SOL     OW55056   2.663  11.322  10.768
17761SOL    HW155057   2.638  11.361  10.852
17761SOL    HW255058   2.604  11.248  10.758
17762SOL     OW55059   7.538   4.437  10.035
17762SOL    HW155060   7.472   4.418  10.102
17762SOL    HW255061   7.602   4.492  10.080
17763SOL     OW55062  14.559   7.312   2.017
17763SOL    HW155063  14.648   7.344   2.032
17763SOL    HW255064  14.570   7.235   1.962
17764SOL     OW55065  13.268   8.740  11.438
17764SOL    HW155066  13.283   8.821  11.389
17764SOL    HW255067  13.355   8.712  11.466
17765SOL     OW55068   7.595   3.530  13.125
17765SOL    HW155069   7.591   3.447  13.078
17765SOL    HW255070   7.575   3.596  13.059
17766SOL     OW55071   9.669  10.488  12.589
17766SOL    HW155072   9.598  10.424  12.578
17766SOL    HW255073   9.685  10.488  12.684
17767SOL     OW55074  11.985   7.410   5.657
17767SOL    HW155075  12.036   7.420   5.737
17767SOL    HW255076  11.911   7.354   5.682
17768SOL     OW55077   4.357  12.499   4.554
17768SOL    HW155078   4.371  12.545   4.637
17768SOL    HW255079   4.414  12.422   4.559
17769SOL     OW55080   1.201  10.424  14.814
17769SOL    HW155081   1.225  10.480   0.006
17769SOL    HW255082   1.232  10.337  14.839
17770SOL     OW55083   1.252   1.902  11.942
17770SOL    HW155084   1.268   1.931  11.852
17770SOL    HW255085   1.231   1.982  11.990
17771SOL     OW55086   9.751   3.953   8.076
17771SOL    HW155087   9.775   3.880   8.133
17771SOL    HW255088   9.834   3.978   8.033
17772SOL     OW55089   9.584  14.164   7.333
17772SOL    HW155090   9.547  14.084   7.371
17772SOL    HW255091   9.672  14.171   7.371
17773SOL     OW55092   4.702   1.859   2.643
17773SOL    HW155093   4.786   1.902   2.656
17773SOL    HW255094   4.719   1.767   2.667
17774SOL     OW55095   6.085   3.907   3.995
17774SOL    HW155096   6.102   3.929   4.086
17774SOL    HW255097   6.172   3.900   3.955
17775SOL     OW55098  11.647   5.306   6.132
17775SOL    HW155099  11.699   5.323   6.210
17775SOL    HW255100  11.710   5.306   6.060
17776SOL     OW55101   9.179   9.540  10.015
17776SOL    HW155102   9.119   9.506  10.081
17776SOL    HW255103   9.126   9.545   9.936
17777SOL     OW55104  10.913  11.053   9.104
17777SOL    HW155105  10.874  11.076   9.020
17777SOL    HW255106  10.858  11.097   9.169
17778SOL     OW55107   4.715   5.926  11.040
17778SOL    HW155108   4.807   5.923  11.067
17778SOL    HW255109   4.711   5.867  10.964
17779SOL     OW55110  12.882   7.838  11.615
17779SOL    HW155111  12.927   7.919  11.638
17779SOL    HW255112  12.946   7.787  11.566
17780SOL     OW55113  14.836  14.182  10.502
17780SOL    HW155114  14.808  14.239  10.430
17780SOL    HW255115  14.827  14.235  10.581
17781SOL     OW55116   5.857   4.615   4.088
17781SOL    HW155117   5.817   4.529   4.085
17781SOL    HW255118   5.933   4.605   4.145
17782SOL     OW55119   5.337   8.133   7.025
17782SOL    HW155120   5.340   8.155   6.932
17782SOL    HW255121   5.314   8.040   7.027
17783SOL     OW55122  10.136   7.908   6.890
17783SOL    HW155123  10.169   7.821   6.912
17783SOL    HW255124  10.058   7.918   6.945
17784SOL     OW55125   8.897  11.398   6.568
17784SOL    HW155126   8.897  11.328   6.502
17784SOL    HW255127   8.985  11.397   6.604
17785SOL     OW55128  13.371   8.264  12.259
17785SOL    HW155129  13.363   8.193  12.195
17785SOL    HW255130  13.330   8.339  12.216
17786SOL     OW55131  12.422   2.163   8.866
17786SOL    HW155132  12.332   2.189   8.886
17786SOL    HW255133  12.444   2.212   8.786
17787SOL     OW55134  11.737   9.243  14.807
17787SOL    HW155135  11.686   9.173  14.766
17787SOL    HW255136  11.674   9.291  14.860
17788SOL     OW55137  13.003  10.516   5.172
17788SOL    HW155138  12.912  10.485   5.174
17788SOL    HW255139  13.053  10.441   5.141
17789SOL     OW55140   6.156   9.064  14.103
17789SOL    HW155141   6.247   9.056  14.074
17789SOL    HW255142   6.116   9.126  14.042
17790SOL     OW55143   7.311   9.117   0.946
17790SOL    HW155144   7.261   9.110   1.027
17790SOL    HW255145   7.379   9.050   0.954
17791SOL     OW55146   9.212   2.542   2.300
17791SOL    HW155147   9.251   2.455   2.292
17791SOL    HW255148   9.221   2.581   2.213
17792SOL     OW55149   3.049   2.150   9.934
17792SOL    HW155150   3.089   2.113   9.855
17792SOL    HW255151   3.105   2.119  10.005
17793SOL     OW55152   5.956   3.315   5.591
17793SOL    HW155153   5.896   3.299   5.664
17793SOL    HW255154   5.901   3.352   5.522
17794SOL     OW55155  11.183   3.358   4.677
17794SOL    HW155156  11.147   3.309   4.751
17794SOL    HW255157  11.109   3.407   4.642
17795SOL     OW55158   4.315   7.565  13.565
17795SOL    HW155159   4.388   7.503  13.574
17795SOL    HW255160   4.314   7.613  13.648
17796SOL     OW55161  13.664   1.728  12.140
17796SOL    HW155162  13.755   1.743  12.116
17796SOL    HW255163  13.624   1.815  12.139
17797SOL     OW55164  13.954   7.099  12.058
17797SOL    HW155165  14.025   7.142  12.105
17797SOL    HW255166  13.975   7.006  12.064
17798SOL     OW55167  13.612   3.249  14.126
17798SOL    HW155168  13.533   3.221  14.172
17798SOL    HW255169  13.615   3.196  14.047
17799SOL     OW55170   5.609   4.940  10.022
17799SOL    HW155171   5.671   5.013  10.014
17799SOL    HW255172   5.544   4.955   9.953
17800SOL     OW55173   2.931   5.460   5.189
17800SOL    HW155174   2.993   5.450   5.116
17800SOL    HW255175   2.938   5.552   5.214
17801SOL     OW55176   0.530   0.647   0.303
17801SOL    HW155177   0.435   0.641   0.297
17801SOL    HW255178   0.551   0.726   0.253
17802SOL     OW55179  13.892  11.292  12.971
17802SOL    HW155180  13.919  11.272  13.060
17802SOL    HW255181  13.830  11.364  12.980
17803SOL     OW55182   1.832  10.829  10.233
17803SOL    HW155183   1.895  10.817  10.162
17803SOL    HW255184   1.809  10.740  10.259
17804SOL     OW55185  13.392   4.958   1.971
17804SOL    HW155186  13.419   5.001   1.889
17804SOL    HW255187  13.424   4.868   1.962
17805SOL     OW55188   0.088   0.482   6.604
17805SOL    HW155189   0.095   0.399   6.650
17805SOL    HW255190  14.878   0.508   6.615
17806SOL     OW55191   6.526  13.193   2.606
17806SOL    HW155192   6.564  13.274   2.639
17806SOL    HW255193   6.523  13.135   2.682
17807SOL     OW55194  12.309   6.117   8.102
17807SOL    HW155195  12.245   6.076   8.161
17807SOL    HW255196  12.279   6.208   8.095
17808SOL     OW55197   9.908   5.614   5.051
17808SOL    HW155198   9.890   5.583   5.140
17808SOL    HW255199   9.967   5.688   5.062
17809SOL     OW55200   8.771  12.514   5.097
17809SOL    HW155201   8.736  12.576   5.033
17809SOL    HW255202   8.864  12.537   5.104
17810SOL     OW55203  10.504  10.755  12.077
17810SOL    HW155204  10.574  10.813  12.047
17810SOL    HW255205  10.457  10.807  12.143
17811SOL     OW55206   9.312  10.171  11.502
17811SOL    HW155207   9.391  10.217  11.529
17811SOL    HW255208   9.277  10.133  11.583
17812SOL     OW55209   7.327   8.988   8.268
17812SOL    HW155210   7.386   9.061   8.287
17812SOL    HW255211   7.354   8.958   8.181
17813SOL     OW55212   7.338   9.257  10.946
17813SOL    HW155213   7.309   9.179  10.994
17813SOL    HW255214   7.321   9.236  10.854
17814SOL     OW55215  11.543   9.616   2.776
17814SOL    HW155216  11.544   9.634   2.870
17814SOL    HW255217  11.619   9.560   2.761
17815SOL     OW55218   8.168   7.482   4.614
17815SOL    HW155219   8.122   7.439   4.686
17815SOL    HW255220   8.106   7.479   4.541
17816SOL     OW55221  14.637   0.029   2.017
17816SOL    HW155222  14.650   0.040   1.922
17816SOL    HW255223  14.664  14.821   2.034
17817SOL     OW55224   4.861   8.765  12.288
17817SOL    HW155225   4.805   8.803  12.355
17817SOL    HW255226   4.941   8.817  12.291
17818SOL     OW55227   9.401   1.047  10.421
17818SOL    HW155228   9.364   1.093  10.496
17818SOL    HW255229   9.361   1.088  10.344
17819SOL     OW55230   3.612  13.482   7.334
17819SOL    HW155231   3.626  13.467   7.240
17819SOL    HW255232   3.609  13.577   7.343
17820SOL     OW55233  11.416   3.491  11.533
17820SOL    HW155234  11.450   3.433  11.465
17820SOL    HW255235  11.493   3.532  11.571
17821SOL     OW55236   5.634  10.961   8.431
17821SOL    HW155237   5.624  10.873   8.467
17821SOL    HW255238   5.701  10.952   8.363
17822SOL     OW55239   9.259   9.941   4.370
17822SOL    HW155240   9.301   9.899   4.446
17822SOL    HW255241   9.315  10.016   4.350
17823SOL     OW55242  10.853   6.624   4.263
17823SOL    HW155243  10.799   6.701   4.249
17823SOL    HW255244  10.922   6.653   4.322
17824SOL     OW55245  11.882   0.357   2.173
17824SOL    HW155246  11.874   0.270   2.212
17824SOL    HW255247  11.851   0.347   2.084
17825SOL     OW55248  13.656   4.127  11.741
17825SOL    HW155249  13.561   4.128  11.742
17825SOL    HW255250  13.681   4.124  11.833
17826SOL     OW55251  14.206  11.307   2.629
17826SOL    HW155252  14.131  11.300   2.570
17826SOL    HW255253  14.173  11.276   2.713
17827SOL     OW55254  12.303   9.498   4.152
17827SOL    HW155255  12.273   9.578   4.197
17827SOL    HW255256  12.359   9.454   4.216
17828SOL     OW55257   8.544   6.222   8.877
17828SOL    HW155258   8.569   6.288   8.813
17828SOL    HW255259   8.508   6.272   8.950
17829SOL     OW55260   5.876  13.940   8.905
17829SOL    HW155261   5.929  13.872   8.948
17829SOL    HW255262   5.819  13.973   8.973
17830SOL     OW55263   8.430   2.248   7.478
17830SOL    HW155264   8.453   2.301   7.554
17830SOL    HW255265   8.421   2.311   7.406
17831SOL     OW55266  14.697   9.688   8.126
17831SOL    HW155267  14.754   9.612   8.116
17831SOL    HW255268  14.634   9.680   8.054
17832SOL     OW55269  11.086   3.396   6.067
17832SOL    HW155270  11.028   3.452   6.119
17832SOL    HW255271  11.028   3.359   6.000
17833SOL     OW55272   8.940   1.799   5.480
17833SOL    HW155273   8.932   1.787   5.385
17833SOL    HW255274   9.031   1.825   5.493
17834SOL     OW55275   0.093   2.234   4.482
17834SOL    HW155276   0.007   2.240   4.440
17834SOL    HW255277   0.121   2.325   4.492
17835SOL     OW55278   9.963  14.741  13.402
17835SOL    HW155279  10.058  14.743  13.392
17835SOL    HW255280   9.931  14.801  13.335
17836SOL     OW55281   7.869   4.435   9.486
17836SOL    HW155282   7.843   4.526   9.468
17836SOL    HW255283   7.962   4.441   9.506
17837SOL     OW55284   6.739   1.997   0.134
17837SOL    HW155285   6.735   2.083   0.092
17837SOL    HW255286   6.758   2.016   0.226
17838SOL     OW55287   0.990   1.709  11.366
17838SOL    HW155288   1.071   1.717  11.417
17838SOL    HW255289   0.936   1.781  11.396
17839SOL     OW55290   8.469  11.070   0.993
17839SOL    HW155291   8.398  11.013   1.024
17839SOL    HW255292   8.494  11.033   0.909
17840SOL     OW55293   1.734  12.709   4.246
17840SOL    HW155294   1.697  12.730   4.160
17840SOL    HW255295   1.743  12.794   4.289
17841SOL     OW55296  10.557   9.522  14.872
17841SOL    HW155297  10.475   9.486  14.838
17841SOL    HW255298  10.582   9.464   0.062
17842SOL     OW55299   3.433   6.732  14.850
17842SOL    HW155300   3.393   6.672  14.787
17842SOL    HW255301   3.395   6.817  14.828
17843SOL     OW55302   4.402   0.698   3.480
17843SOL    HW155303   4.448   0.758   3.422
17843SOL    HW255304   4.309   0.721   3.470
17844SOL     OW55305   3.571   8.447   4.452
17844SOL    HW155306   3.582   8.540   4.430
17844SOL    HW255307   3.640   8.429   4.514
17845SOL     OW55308   8.483   5.365  13.342
17845SOL    HW155309   8.399   5.370  13.389
17845SOL    HW255310   8.532   5.297  13.389
17846SOL     OW55311   4.589   2.218   9.663
17846SOL    HW155312   4.644   2.288   9.628
17846SOL    HW255313   4.633   2.137   9.636
17847SOL     OW55314   9.701   9.624   1.142
17847SOL    HW155315   9.676   9.629   1.050
17847SOL    HW255316   9.624   9.654   1.189
17848SOL     OW55317   6.532   6.776   7.176
17848SOL    HW155318   6.607   6.796   7.233
17848SOL    HW255319   6.462   6.833   7.208
17849SOL     OW55320  14.010   4.519  12.473
17849SOL    HW155321  14.016   4.425  12.487
17849SOL    HW255322  13.979   4.527  12.382
17850SOL     OW55323   3.599  13.863   3.306
17850SOL    HW155324   3.672  13.886   3.248
17850SOL    HW255325   3.522  13.866   3.251
17851SOL     OW55326   7.142  12.201   0.978
17851SOL    HW155327   7.170  12.195   1.069
17851SOL    HW255328   7.202  12.264   0.938
17852SOL     OW55329   6.593  11.587  11.115
17852SOL    HW155330   6.636  11.671  11.098
17852SOL    HW255331   6.658  11.521  11.090
17853SOL     OW55332   7.906  14.688   4.178
17853SOL    HW155333   7.972  14.644   4.125
17853SOL    HW255334   7.877  14.761   4.124
17854SOL     OW55335   8.657   4.025  12.203
17854SOL    HW155336   8.739   4.025  12.153
17854SOL    HW255337   8.629   4.117  12.203
17855SOL     OW55338   3.781  11.759   8.580
17855SOL    HW155339   3.811  11.669   8.567
17855SOL    HW255340   3.746  11.759   8.669
17856SOL     OW55341   9.731  12.008  13.085
17856SOL    HW155342   9.822  12.034  13.101
17856SOL    HW255343   9.730  11.913  13.098
17857SOL     OW55344   1.184  13.920   7.345
17857SOL    HW155345   1.224  13.851   7.397
17857SOL    HW255346   1.147  13.980   7.410
17858SOL     OW55347  14.598  12.786   4.921
17858SOL    HW155348  14.617  12.823   5.008
17858SOL    HW255349  14.503  12.785   4.916
17859SOL     OW55350  12.538  11.351  12.716
17859SOL    HW155351  12.540  11.362  12.621
17859SOL    HW255352  12.628  11.369  12.744
17860SOL     OW55353   8.871  11.421   0.469
17860SOL    HW155354   8.929  11.422   0.545
17860SOL    HW255355   8.803  11.485   0.490
17861SOL     OW55356   3.577   4.595   9.302
17861SOL    HW155357   3.524   4.519   9.277
17861SOL    HW255358   3.561   4.607   9.395
17862SOL     OW55359   8.179   2.948   8.645
17862SOL    HW155360   8.124   2.875   8.673
17862SOL    HW255361   8.211   2.921   8.559
17863SOL     OW55362   5.918   6.993   7.990
17863SOL    HW155363   5.976   6.953   8.054
17863SOL    HW255364   5.878   7.067   8.036
17864SOL     OW55365  12.568   1.548  14.183
17864SOL    HW155366  12.551   1.576  14.093
17864SOL    HW255367  12.482   1.551  14.226
17865SOL     OW55368   6.344  11.031  11.631
17865SOL    HW155369   6.299  11.010  11.712
17865SOL    HW255370   6.409  10.961  11.621
17866SOL     OW55371  11.514   0.655  11.892
17866SOL    HW155372  11.509   0.610  11.808
17866SOL    HW255373  11.432   0.706  11.898
17867SOL     OW55374  11.370   2.047   4.208
17867SOL    HW155375  11.432   1.989   4.163
17867SOL    HW255376  11.295   2.053   4.149
17868SOL     OW55377  10.059   3.743   0.203
17868SOL    HW155378  10.133   3.692   0.236
17868SOL    HW255379   9.986   3.681   0.200
17869SOL     OW55380   2.158   2.953   2.177
17869SOL    HW155381   2.166   2.919   2.267
17869SOL    HW255382   2.152   2.875   2.123
17870SOL     OW55383  10.123  13.806  11.421
17870SOL    HW155384  10.092  13.866  11.354
17870SOL    HW255385  10.087  13.721  11.396
17871SOL     OW55386   8.639  10.562   6.395
17871SOL    HW155387   8.553  10.594   6.370
17871SOL    HW255388   8.624  10.474   6.429
17872SOL     OW55389   0.759  11.203  11.819
17872SOL    HW155390   0.770  11.144  11.894
17872SOL    HW255391   0.812  11.280  11.842
17873SOL     OW55392   8.665   8.154   3.473
17873SOL    HW155393   8.656   8.061   3.451
17873SOL    HW255394   8.589   8.173   3.528
17874SOL     OW55395   7.849   2.358  14.836
17874SOL    HW155396   7.871   2.266  14.821
17874SOL    HW255397   7.771   2.374  14.784
17875SOL     OW55398   4.156   5.064  11.648
17875SOL    HW155399   4.159   5.051  11.553
17875SOL    HW255400   4.136   5.157  11.658
17876SOL     OW55401  13.748  10.733   2.438
17876SOL    HW155402  13.709  10.788   2.506
17876SOL    HW255403  13.757  10.790   2.362
17877SOL     OW55404  11.020   9.047  12.201
17877SOL    HW155405  11.079   9.122  12.199
17877SOL    HW255406  11.066   8.981  12.252
17878SOL     OW55407   1.799   3.796   8.439
17878SOL    HW155408   1.807   3.776   8.532
17878SOL    HW255409   1.796   3.891   8.435
17879SOL     OW55410  13.897   6.045   5.278
17879SOL    HW155411  13.964   5.981   5.255
17879SOL    HW255412  13.924   6.125   5.233
17880SOL     OW55413   4.839   7.608   3.340
17880SOL    HW155414   4.861   7.651   3.422
17880SOL    HW255415   4.920   7.564   3.314
17881SOL     OW55416   7.417  13.262   9.278
17881SOL    HW155417   7.466  13.241   9.357
17881SOL    HW255418   7.471  13.327   9.233
17882SOL     OW55419  10.092   0.965   7.343
17882SOL    HW155420  10.164   0.922   7.389
17882SOL    HW255421  10.081   1.049   7.388
17883SOL     OW55422  12.649   6.343   2.681
17883SOL    HW155423  12.692   6.420   2.720
17883SOL    HW255424  12.571   6.330   2.734
17884SOL     OW55425   9.916   4.903   6.596
17884SOL    HW155426   9.884   4.815   6.618
17884SOL    HW255427   9.958   4.893   6.511
17885SOL     OW55428   6.760   1.933   5.345
17885SOL    HW155429   6.691   1.998   5.332
17885SOL    HW255430   6.823   1.950   5.274
17886SOL     OW55431  11.950   8.983  10.662
17886SOL    HW155432  11.886   8.917  10.687
17886SOL    HW255433  12.002   8.942  10.593
17887SOL     OW55434   1.152   2.857   7.040
17887SOL    HW155435   1.210   2.785   7.016
17887SOL    HW255436   1.196   2.901   7.112
17888SOL     OW55437   8.696   9.465   7.532
17888SOL    HW155438   8.602   9.483   7.523
17888SOL    HW255439   8.704   9.422   7.617
17889SOL     OW55440  14.146   5.539   7.140
17889SOL    HW155441  14.052   5.554   7.132
17889SOL    HW255442  14.171   5.499   7.057
17890SOL     OW55443   9.756   8.781  14.782
17890SOL    HW155444   9.786   8.813  14.867
17890SOL    HW255445   9.670   8.743  14.799
17891SOL     OW55446  12.741   6.595   0.916
17891SOL    HW155447  12.810   6.580   0.980
17891SOL    HW255448  12.712   6.507   0.889
17892SOL     OW55449   1.437   9.768  14.377
17892SOL    HW155450   1.414   9.682  14.413
17892SOL    HW255451   1.485   9.812  14.447
17893SOL     OW55452   6.528   5.493   3.150
17893SOL    HW155453   6.506   5.575   3.196
17893SOL    HW255454   6.597   5.518   3.089
17894SOL     OW55455   6.968   7.414   6.003
17894SOL    HW155456   7.041   7.380   6.055
17894SOL    HW255457   6.966   7.357   5.926
17895SOL     OW55458   3.295   3.336   9.368
17895SOL    HW155459   3.377   3.292   9.389
17895SOL    HW255460   3.232   3.266   9.355
17896SOL     OW55461  14.040   7.952   2.962
17896SOL    HW155462  14.046   8.046   2.977
17896SOL    HW255463  13.957   7.926   3.002
17897SOL     OW55464   7.445   7.039   1.495
17897SOL    HW155465   7.357   7.003   1.480
17897SOL    HW255466   7.430   7.131   1.517
17898SOL     OW55467   9.486  11.993   1.269
17898SOL    HW155468   9.497  11.901   1.246
17898SOL    HW255469   9.398  11.998   1.306
17899SOL     OW55470   3.638   4.154  10.072
17899SOL    HW155471   3.715   4.211  10.072
17899SOL    HW255472   3.624   4.133  10.164
17900SOL     OW55473   3.861   5.163   7.623
17900SOL    HW155474   3.948   5.202   7.630
17900SOL    HW255475   3.876   5.069   7.638
17901SOL     OW55476   8.765   7.159   0.843
17901SOL    HW155477   8.788   7.170   0.751
17901SOL    HW255478   8.841   7.194   0.890
17902SOL     OW55479   7.559   2.149   4.695
17902SOL    HW155480   7.594   2.080   4.638
17902SOL    HW255481   7.634   2.205   4.715
17903SOL     OW55482   0.026   3.131  10.459
17903SOL    HW155483  14.870   3.105  10.374
17903SOL    HW255484   0.076   3.210  10.439
17904SOL     OW55485   8.171   0.993  14.459
17904SOL    HW155486   8.218   0.981  14.376
17904SOL    HW255487   8.090   0.942  14.448
17905SOL     OW55488   2.642   3.560   3.627
17905SOL    HW155489   2.735   3.561   3.649
17905SOL    HW255490   2.640   3.551   3.531
17906SOL     OW55491   0.090   8.816  11.419
17906SOL    HW155492   0.011   8.865  11.395
17906SOL    HW255493   0.162   8.872  11.390
17907SOL     OW55494   0.495  14.537   8.382
17907SOL    HW155495   0.575  14.489   8.405
17907SOL    HW255496   0.438  14.527   8.457
17908SOL     OW55497   2.909  11.259   2.022
17908SOL    HW155498   2.907  11.163   2.028
17908SOL    HW255499   2.983  11.278   1.965
17909SOL     OW55500  14.572   1.328  12.846
17909SOL    HW155501  14.632   1.307  12.774
17909SOL    HW255502  14.588   1.260  12.911
17910SOL     OW55503   8.835  13.058  13.888
17910SOL    HW155504   8.817  13.147  13.859
17910SOL    HW255505   8.869  13.069  13.977
17911SOL     OW55506   4.586   7.120  12.894
17911SOL    HW155507   4.613   7.155  12.809
17911SOL    HW255508   4.535   7.191  12.934
17912SOL     OW55509  14.793   0.835   3.807
17912SOL    HW155510   0.001   0.801   3.814
17912SOL    HW255511  14.777   0.843   3.713
17913SOL     OW55512  11.233   3.360  14.152
17913SOL    HW155513  11.142   3.332  14.168
17913SOL    HW255514  11.278   3.279  14.128
17914SOL     OW55515   6.425   5.178   1.129
17914SOL    HW155516   6.469   5.094   1.119
17914SOL    HW255517   6.495   5.238   1.155
17915SOL     OW55518   3.326   7.956  14.221
17915SOL    HW155519   3.331   8.042  14.181
17915SOL    HW255520   3.368   7.897  14.159
17916SOL     OW55521   6.338   5.384   4.058
17916SOL    HW155522   6.327   5.400   4.151
17916SOL    HW255523   6.425   5.419   4.038
17917SOL     OW55524  14.388   5.216   8.222
17917SOL    HW155525  14.430   5.282   8.166
17917SOL    HW255526  14.415   5.133   8.184
17918SOL     OW55527   2.814   6.503   1.138
17918SOL    HW155528   2.824   6.434   1.072
17918SOL    HW255529   2.903   6.538   1.150
17919SOL     OW55530   4.276  13.738   7.838
17919SOL    HW155531   4.270  13.648   7.868
17919SOL    HW255532   4.320  13.785   7.908
17920SOL     OW55533  13.673  13.770  13.201
17920SOL    HW155534  13.632  13.758  13.115
17920SOL    HW255535  13.609  13.821  13.250
17921SOL     OW55536  11.794  11.107   7.730
17921SOL    HW155537  11.821  11.175   7.791
17921SOL    HW255538  11.700  11.098   7.745
17922SOL     OW55539   1.696  13.470  13.094
17922SOL    HW155540   1.755  13.442  13.024
17922SOL    HW255541   1.754  13.492  13.167
17923SOL     OW55542   9.932   4.902   0.122
17923SOL    HW155543   9.892   4.988   0.107
17923SOL    HW255544   9.890   4.844   0.059
17924SOL     OW55545   5.586   9.925   1.898
17924SOL    HW155546   5.526   9.874   1.844
17924SOL    HW255547   5.535   9.949   1.975
17925SOL     OW55548   8.003   5.955   2.238
17925SOL    HW155549   8.059   5.982   2.166
17925SOL    HW255550   8.045   5.989   2.316
17926SOL     OW55551   2.576  12.792   2.096
17926SOL    HW155552   2.609  12.845   2.023
17926SOL    HW255553   2.645  12.794   2.161
17927SOL     OW55554   9.739  12.063   5.935
17927SOL    HW155555   9.778  12.070   5.848
17927SOL    HW255556   9.649  12.095   5.924
17928SOL     OW55557   1.473   3.098   9.320
17928SOL    HW155558   1.561   3.135   9.327
17928SOL    HW255559   1.474   3.023   9.380
17929SOL     OW55560   3.352  14.541   7.792
17929SOL    HW155561   3.261  14.521   7.769
17929SOL    HW255562   3.350  14.633   7.819
17930SOL     OW55563  10.456  14.180  13.577
17930SOL    HW155564  10.503  14.107  13.537
17930SOL    HW255565  10.371  14.182  13.532
17931SOL     OW55566   7.780   3.717  11.488
17931SOL    HW155567   7.849   3.761  11.537
17931SOL    HW255568   7.783   3.626  11.519
17932SOL     OW55569   0.884   3.682   1.158
17932SOL    HW155570   0.790   3.699   1.147
17932SOL    HW255571   0.911   3.643   1.075
17933SOL     OW55572  10.902   7.336   7.226
17933SOL    HW155573  10.845   7.354   7.301
17933SOL    HW255574  10.857   7.267   7.177
17934SOL     OW55575   7.930   9.683   4.977
17934SOL    HW155576   7.904   9.686   4.885
17934SOL    HW255577   7.855   9.717   5.024
17935SOL     OW55578   2.224  13.798  13.578
17935SOL    HW155579   2.185  13.791  13.665
17935SOL    HW255580   2.225  13.708  13.545
17936SOL     OW55581   6.411   5.218   5.300
17936SOL    HW155582   6.420   5.124   5.286
17936SOL    HW255583   6.451   5.234   5.385
17937SOL     OW55584  10.181   1.300   9.862
17937SOL    HW155585  10.117   1.352   9.814
17937SOL    HW255586  10.237   1.261   9.795
17938SOL     OW55587   1.486   1.411   0.697
17938SOL    HW155588   1.507   1.501   0.723
17938SOL    HW255589   1.564   1.380   0.652
17939SOL     OW55590  12.712  14.258  14.411
17939SOL    HW155591  12.717  14.227  14.502
17939SOL    HW255592  12.780  14.208  14.365
17940SOL     OW55593  14.682  13.837   0.840
17940SOL    HW155594  14.608  13.880   0.797
17940SOL    HW255595  14.714  13.773   0.777
17941SOL     OW55596   4.538   1.314   5.772
17941SOL    HW155597   4.586   1.235   5.798
17941SOL    HW255598   4.547   1.373   5.848
17942SOL     OW55599   6.254  11.200   3.482
17942SOL    HW155600   6.201  11.263   3.433
17942SOL    HW255601   6.293  11.145   3.414
17943SOL     OW55602  13.133   2.203  12.090
17943SOL    HW155603  13.088   2.199  12.175
17943SOL    HW255604  13.134   2.296  12.068
17944SOL     OW55605   1.428   1.724   9.650
17944SOL    HW155606   1.380   1.739   9.731
17944SOL    HW255607   1.483   1.648   9.668
17945SOL     OW55608  11.467   7.116  10.049
17945SOL    HW155609  11.394   7.076  10.001
17945SOL    HW255610  11.426   7.158  10.124
17946SOL     OW55611   1.570   6.624  12.525
17946SOL    HW155612   1.485   6.596  12.490
17946SOL    HW255613   1.616   6.660  12.449
17947SOL     OW55614   6.898   5.739   2.644
17947SOL    HW155615   6.856   5.825   2.643
17947SOL    HW255616   6.982   5.753   2.688
17948SOL     OW55617   1.703   6.503  13.624
17948SOL    HW155618   1.700   6.410  13.647
17948SOL    HW255619   1.612   6.533  13.635
17949SOL     OW55620   0.477  14.610  11.812
17949SOL    HW155621   0.388  14.576  11.820
17949SOL    HW255622   0.533  14.537  11.840
17950SOL     OW55623   2.125   6.751  13.518
17950SOL    HW155624   2.162   6.694  13.451
17950SOL    HW255625   2.194   6.757  13.585
17951SOL     OW55626   9.278  14.584   5.707
17951SOL    HW155627   9.244  14.567   5.795
17951SOL    HW255628   9.199  14.590   5.652
17952SOL     OW55629   6.717  11.586   0.614
17952SOL    HW155630   6.646  11.607   0.554
17952SOL    HW255631   6.797  11.605   0.564
17953SOL     OW55632  14.456   5.653  10.271
17953SOL    HW155633  14.527   5.646  10.335
17953SOL    HW255634  14.406   5.729  10.301
17954SOL     OW55635  12.947   3.997   0.214
17954SOL    HW155636  13.016   4.028   0.155
17954SOL    HW255637  12.872   4.053   0.196
17955SOL     OW55638   7.155  14.721   1.853
17955SOL    HW155639   7.122  14.772   1.927
17955SOL    HW255640   7.109  14.755   1.777
17956SOL     OW55641  14.086   5.610   8.150
17956SOL    HW155642  14.142   5.540   8.118
17956SOL    HW255643  14.001   5.568   8.163
17957SOL     OW55644   2.842   0.528  13.342
17957SOL    HW155645   2.923   0.579  13.345
17957SOL    HW255646   2.811   0.526  13.433
17958SOL     OW55647   7.681   4.454  11.993
17958SOL    HW155648   7.658   4.524  11.931
17958SOL    HW255649   7.768   4.425  11.964
17959SOL     OW55650   4.555  13.160   8.369
17959SOL    HW155651   4.493  13.090   8.392
17959SOL    HW255652   4.608  13.123   8.299
17960SOL     OW55653  10.463  13.169  10.352
17960SOL    HW155654  10.418  13.233  10.408
17960SOL    HW255655  10.517  13.221  10.293
17961SOL     OW55656   4.246   3.769  11.262
17961SOL    HW155657   4.207   3.821  11.192
17961SOL    HW255658   4.173   3.721  11.300
17962SOL     OW55659  10.340   5.795   4.011
17962SOL    HW155660  10.306   5.881   3.986
17962SOL    HW255661  10.263   5.745   4.036
17963SOL     OW55662   8.081   1.445   9.166
17963SOL    HW155663   8.081   1.438   9.262
17963SOL    HW255664   8.087   1.355   9.135
17964SOL     OW55665   4.340   5.913   6.613
17964SOL    HW155666   4.372   5.961   6.689
17964SOL    HW255667   4.251   5.945   6.601
17965SOL     OW55668   7.751  11.972  12.976
17965SOL    HW155669   7.818  11.919  13.020
17965SOL    HW255670   7.673  11.916  12.976
17966SOL     OW55671   0.601   2.248   8.424
17966SOL    HW155672   0.696   2.235   8.421
17966SOL    HW255673   0.570   2.220   8.338
17967SOL     OW55674  13.507   7.017   1.737
17967SOL    HW155675  13.538   6.936   1.696
17967SOL    HW255676  13.479   7.072   1.663
17968SOL     OW55677   3.684  11.342   9.012
17968SOL    HW155678   3.662  11.414   9.071
17968SOL    HW255679   3.605  11.329   8.960
17969SOL     OW55680  10.475   3.967   1.779
17969SOL    HW155681  10.403   3.921   1.736
17969SOL    HW255682  10.462   4.059   1.757
17970SOL     OW55683   8.547   9.123   0.316
17970SOL    HW155684   8.488   9.183   0.271
17970SOL    HW255685   8.501   9.039   0.314
17971SOL     OW55686  13.365   8.230   5.033
17971SOL    HW155687  13.459   8.219   5.048
17971SOL    HW255688  13.326   8.147   5.061
17972SOL     OW55689  14.505   1.505   8.089
17972SOL    HW155690  14.451   1.472   8.161
17972SOL    HW255691  14.589   1.527   8.130
17973SOL     OW55692   0.064   4.963  14.862
17973SOL    HW155693   0.031   4.958  14.772
17973SOL    HW255694  14.871   4.936   0.035
17974SOL     OW55695   1.383  12.448   2.740
17974SOL    HW155696   1.375  12.460   2.835
17974SOL    HW255697   1.443  12.517   2.712
17975SOL     OW55698   5.228   3.612   2.789
17975SOL    HW155699   5.170   3.602   2.864
17975SOL    HW255700   5.169   3.620   2.714
17976SOL     OW55701   2.007   0.796   9.710
17976SOL    HW155702   2.033   0.724   9.768
17976SOL    HW255703   2.088   0.846   9.697
17977SOL     OW55704  14.044  14.360   1.720
17977SOL    HW155705  14.119  14.304   1.740
17977SOL    HW255706  14.069  14.446   1.753
17978SOL     OW55707   2.749   7.208   0.718
17978SOL    HW155708   2.669   7.246   0.755
17978SOL    HW255709   2.740   7.220   0.623
17979SOL     OW55710   1.773   2.437   1.524
17979SOL    HW155711   1.810   2.375   1.587
17979SOL    HW255712   1.775   2.521   1.569
17980SOL     OW55713   9.164   1.155   5.408
17980SOL    HW155714   9.143   1.100   5.332
17980SOL    HW255715   9.094   1.220   5.410
17981SOL     OW55716  14.607   2.070   0.998
17981SOL    HW155717  14.532   2.026   0.958
17981SOL    HW255718  14.607   2.040   1.089
17982SOL     OW55719   5.404  13.645   1.916
17982SOL    HW155720   5.402  13.655   1.821
17982SOL    HW255721   5.358  13.564   1.933
17983SOL     OW55722   4.958  13.467  10.587
17983SOL    HW155723   5.036  13.522  10.584
17983SOL    HW255724   4.886  13.524  10.560
17984SOL     OW55725   8.542   7.678   7.945
17984SOL    HW155726   8.484   7.708   8.016
17984SOL    HW255727   8.622   7.731   7.957
17985SOL     OW55728  10.357   5.139  13.788
17985SOL    HW155729  10.267   5.120  13.761
17985SOL    HW255730  10.367   5.233  13.773
17986SOL     OW55731   7.012  10.465  10.154
17986SOL    HW155732   7.025  10.409  10.078
17986SOL    HW255733   7.046  10.413  10.228
17987SOL     OW55734   1.995  14.247   0.452
17987SOL    HW155735   2.054  14.293   0.512
17987SOL    HW255736   2.043  14.244   0.369
17988SOL     OW55737   5.093   6.345   6.311
17988SOL    HW155738   5.026   6.292   6.354
17988SOL    HW255739   5.105   6.303   6.225
17989SOL     OW55740   5.382   6.614   0.359
17989SOL    HW155741   5.469   6.608   0.400
17989SOL    HW255742   5.354   6.523   0.348
17990SOL     OW55743  12.075   8.628  12.562
17990SOL    HW155744  12.140   8.630  12.633
17990SOL    HW255745  12.128   8.620  12.483
17991SOL     OW55746   2.231  12.762  12.146
17991SOL    HW155747   2.195  12.847  12.121
17991SOL    HW255748   2.325  12.771  12.129
17992SOL     OW55749  10.892   1.740   1.673
17992SOL    HW155750  10.953   1.675   1.705
17992SOL    HW255751  10.930   1.771   1.591
17993SOL     OW55752   8.948  12.909  13.272
17993SOL    HW155753   8.966  13.001  13.288
17993SOL    HW255754   8.975  12.894  13.182
17994SOL     OW55755  11.192   7.198   2.174
17994SOL    HW155756  11.179   7.216   2.267
17994SOL    HW255757  11.143   7.266   2.129
17995SOL     OW55758   7.110   2.983   0.646
17995SOL    HW155759   7.020   3.008   0.669
17995SOL    HW255760   7.109   2.974   0.551
17996SOL     OW55761  12.519  11.491   9.245
17996SOL    HW155762  12.486  11.457   9.328
17996SOL    HW255763  12.538  11.413   9.193
17997SOL     OW55764  13.883  14.638   4.852
17997SOL    HW155765  13.903  14.545   4.856
17997SOL    HW255766  13.788  14.642   4.850
17998SOL     OW55767   1.598   3.018  11.093
17998SOL    HW155768   1.524   3.030  11.152
17998SOL    HW255769   1.650   2.948  11.132
17999SOL     OW55770   8.556   5.302  13.082
17999SOL    HW155771   8.486   5.343  13.031
17999SOL    HW255772   8.530   5.318  13.173
18000SOL     OW55773  11.804  10.490  11.595
18000SOL    HW155774  11.879  10.518  11.542
18000SOL    HW255775  11.819  10.396  11.610
18001SOL     OW55776   2.898   5.568   5.636
18001SOL    HW155777   2.879   5.480   5.669
18001SOL    HW255778   2.814   5.614   5.641
18002SOL     OW55779   2.232   9.607  10.044
18002SOL    HW155780   2.197   9.693  10.067
18002SOL    HW255781   2.216   9.598   9.950
18003SOL     OW55782  11.256   9.979   3.176
18003SOL    HW155783  11.317   9.923   3.223
18003SOL    HW255784  11.169   9.947   3.201
18004SOL     OW55785   1.913  14.626   2.345
18004SOL    HW155786   1.997  14.672   2.340
18004SOL    HW255787   1.904  14.581   2.262
18005SOL     OW55788   7.590   3.375  12.304
18005SOL    HW155789   7.496   3.375  12.324
18005SOL    HW255790   7.595   3.345  12.213
18006SOL     OW55791   6.077   1.465   8.686
18006SOL    HW155792   6.091   1.413   8.766
18006SOL    HW255793   6.048   1.550   8.718
18007SOL     OW55794   9.292  14.694  12.268
18007SOL    HW155795   9.352  14.656  12.204
18007SOL    HW255796   9.320  14.785  12.277
18008SOL     OW55797   0.491  12.836  13.323
18008SOL    HW155798   0.536  12.754  13.302
18008SOL    HW255799   0.438  12.815  13.400
18009SOL     OW55800  12.514   6.207   8.336
18009SOL    HW155801  12.523   6.166   8.250
18009SOL    HW255802  12.569   6.154   8.394
18010SOL     OW55803   7.795   0.052  10.549
18010SOL    HW155804   7.714   0.048  10.498
18010SOL    HW255805   7.855   0.101  10.493
18011SOL     OW55806   2.819  11.152  14.334
18011SOL    HW155807   2.754  11.126  14.269
18011SOL    HW255808   2.779  11.131  14.418
18012SOL     OW55809   8.717   3.947   3.705
18012SOL    HW155810   8.693   4.017   3.644
18012SOL    HW255811   8.810   3.962   3.723
18013SOL     OW55812   5.660   8.268   2.540
18013SOL    HW155813   5.649   8.178   2.507
18013SOL    HW255814   5.620   8.266   2.627
18014SOL     OW55815  10.875   4.274   1.183
18014SOL    HW155816  10.963   4.238   1.165
18014SOL    HW255817  10.837   4.285   1.096
18015SOL     OW55818   7.272   4.801   4.913
18015SOL    HW155819   7.214   4.811   4.989
18015SOL    HW255820   7.280   4.706   4.901
18016SOL     OW55821   5.933  13.874   8.320
18016SOL    HW155822   5.848  13.915   8.337
18016SOL    HW255823   5.987  13.900   8.395
18017SOL     OW55824  12.138   5.137  13.545
18017SOL    HW155825  12.062   5.194  13.557
18017SOL    HW255826  12.101   5.054  13.514
18018SOL     OW55827   1.840  12.313  10.671
18018SOL    HW155828   1.934  12.298  10.669
18018SOL    HW255829   1.827  12.376  10.742
18019SOL     OW55830  11.600  10.252   0.562
18019SOL    HW155831  11.658  10.286   0.630
18019SOL    HW255832  11.603  10.318   0.492
18020SOL     OW55833  11.167  12.852   6.477
18020SOL    HW155834  11.186  12.941   6.449
18020SOL    HW255835  11.074  12.853   6.499
18021SOL     OW55836   8.932   4.901   3.286
18021SOL    HW155837   8.929   4.891   3.191
18021SOL    HW255838   8.846   4.873   3.316
18022SOL     OW55839   2.591  10.617   3.225
18022SOL    HW155840   2.532  10.665   3.284
18022SOL    HW255841   2.675  10.663   3.234
18023SOL     OW55842   3.519  11.858   4.536
18023SOL    HW155843   3.590  11.799   4.562
18023SOL    HW255844   3.538  11.879   4.444
18024SOL     OW55845   1.802   4.659   1.498
18024SOL    HW155846   1.865   4.701   1.557
18024SOL    HW255847   1.731   4.723   1.490
18025SOL     OW55848  13.900   0.938   0.124
18025SOL    HW155849  13.964   0.898   0.182
18025SOL    HW255850  13.943   1.016   0.089
18026SOL     OW55851   8.593   0.866  10.985
18026SOL    HW155852   8.596   0.958  10.958
18026SOL    HW255853   8.502   0.852  11.012
18027SOL     OW55854   2.926   2.030   5.794
18027SOL    HW155855   2.913   2.080   5.714
18027SOL    HW255856   2.849   2.049   5.847
18028SOL     OW55857   0.400   1.060   6.425
18028SOL    HW155858   0.310   1.083   6.447
18028SOL    HW255859   0.416   1.103   6.341
18029SOL     OW55860  11.345   7.038  13.386
18029SOL    HW155861  11.301   6.979  13.326
18029SOL    HW255862  11.439   7.023  13.370
18030SOL     OW55863   1.822   3.265   6.021
18030SOL    HW155864   1.823   3.293   5.930
18030SOL    HW255865   1.729   3.251   6.041
18031SOL     OW55866  11.549   4.932   3.382
18031SOL    HW155867  11.454   4.939   3.389
18031SOL    HW255868  11.582   5.015   3.416
18032SOL     OW55869  14.338   8.061  13.059
18032SOL    HW155870  14.382   8.142  13.084
18032SOL    HW255871  14.329   8.067  12.964
18033SOL     OW55872   3.347   5.698   1.825
18033SOL    HW155873   3.410   5.726   1.891
18033SOL    HW255874   3.398   5.646   1.763
18034SOL     OW55875  11.690  12.624   3.297
18034SOL    HW155876  11.666  12.593   3.384
18034SOL    HW255877  11.635  12.573   3.238
18035SOL     OW55878   0.208   4.410   1.028
18035SOL    HW155879   0.255   4.477   1.077
18035SOL    HW255880   0.270   4.337   1.021
18036SOL     OW55881  10.363   4.957  12.747
18036SOL    HW155882  10.375   4.874  12.794
18036SOL    HW255883  10.315   5.012  12.809
18037SOL     OW55884   5.592  13.884   9.759
18037SOL    HW155885   5.630  13.797   9.775
18037SOL    HW255886   5.616  13.935   9.836
18038SOL     OW55887  10.356  14.000  13.001
18038SOL    HW155888  10.353  14.036  13.090
18038SOL    HW255889  10.284  14.043  12.955
18039SOL     OW55890   0.035  10.486   8.175
18039SOL    HW155891   0.096  10.416   8.151
18039SOL    HW255892   0.082  10.567   8.155
18040SOL     OW55893   3.846   0.342   8.045
18040SOL    HW155894   3.809   0.409   8.102
18040SOL    HW255895   3.830   0.260   8.091
18041SOL     OW55896   3.475   4.845   4.530
18041SOL    HW155897   3.384   4.816   4.523
18041SOL    HW255898   3.492   4.847   4.624
18042SOL     OW55899   4.737  14.856  11.499
18042SOL    HW155900   4.735  14.809  11.416
18042SOL    HW255901   4.664   0.035  11.494
18043SOL     OW55902  10.405   8.074   3.999
18043SOL    HW155903  10.441   8.094   3.912
18043SOL    HW255904  10.319   8.036   3.981
18044SOL     OW55905  13.980   6.074  10.021
18044SOL    HW155906  14.047   6.041   9.961
18044SOL    HW255907  13.953   6.158   9.984
18045SOL     OW55908   3.496   9.716   9.974
18045SOL    HW155909   3.475   9.658  10.047
18045SOL    HW255910   3.427   9.783   9.976
18046SOL     OW55911   8.118   9.720  14.498
18046SOL    HW155912   8.177   9.718  14.422
18046SOL    HW255913   8.035   9.752  14.463
18047SOL     OW55914  13.137   7.641   0.705
18047SOL    HW155915  13.110   7.649   0.614
18047SOL    HW255916  13.207   7.706   0.716
18048SOL     OW55917   6.102   6.106  13.300
18048SOL    HW155918   6.103   6.077  13.209
18048SOL    HW255919   6.194   6.122  13.321
18049SOL     OW55920   5.482   1.984   7.924
18049SOL    HW155921   5.510   2.048   7.989
18049SOL    HW255922   5.461   2.035   7.847
18050SOL     OW55923   9.047  13.253   9.616
18050SOL    HW155924   9.080  13.205   9.692
18050SOL    HW255925   8.952  13.254   9.627
18051SOL     OW55926   4.634   2.808  12.591
18051SOL    HW155927   4.552   2.780  12.552
18051SOL    HW255928   4.629   2.903  12.592
18052SOL     OW55929   0.825   0.335  11.619
18052SOL    HW155930   0.903   0.343  11.673
18052SOL    HW255931   0.799   0.243  11.628
18053SOL     OW55932   3.461   2.168   3.232
18053SOL    HW155933   3.370   2.188   3.255
18053SOL    HW255934   3.460   2.163   3.136
18054SOL     OW55935   5.996   5.341   7.987
18054SOL    HW155936   5.909   5.378   7.974
18054SOL    HW255937   6.034   5.339   7.899
18055SOL     OW55938   1.158  13.538   5.352
18055SOL    HW155939   1.194  13.626   5.362
18055SOL    HW255940   1.189  13.491   5.429
18056SOL     OW55941   5.908   2.705   7.369
18056SOL    HW155942   5.824   2.666   7.391
18056SOL    HW255943   5.928   2.762   7.444
18057SOL     OW55944   0.967   8.846   1.739
18057SOL    HW155945   1.040   8.864   1.799
18057SOL    HW255946   0.895   8.821   1.796
18058SOL     OW55947   6.993   7.896   9.104
18058SOL    HW155948   6.923   7.849   9.149
18058SOL    HW255949   7.000   7.979   9.151
18059SOL     OW55950   1.724   1.139   4.474
18059SOL    HW155951   1.741   1.223   4.516
18059SOL    HW255952   1.632   1.121   4.491
18060SOL     OW55953   7.621   8.998   0.792
18060SOL    HW155954   7.608   8.997   0.886
18060SOL    HW255955   7.563   8.929   0.759
18061SOL     OW55956   1.668   6.180   4.901
18061SOL    HW155957   1.749   6.169   4.852
18061SOL    HW255958   1.598   6.160   4.839
18062SOL     OW55959  11.067  11.177   7.486
18062SOL    HW155960  11.053  11.176   7.392
18062SOL    HW255961  11.118  11.098   7.504
18063SOL     OW55962  14.611   8.831   1.136
18063SOL    HW155963  14.616   8.843   1.041
18063SOL    HW255964  14.518   8.841   1.157
18064SOL     OW55965   6.839   7.067   9.971
18064SOL    HW155966   6.904   7.085  10.038
18064SOL    HW255967   6.872   7.112   9.893
18065SOL     OW55968   5.272  13.673   4.795
18065SOL    HW155969   5.196  13.698   4.744
18065SOL    HW255970   5.235  13.626   4.870
18066SOL     OW55971   0.818   4.256   7.113
18066SOL    HW155972   0.831   4.221   7.202
18066SOL    HW255973   0.903   4.292   7.089
18067SOL     OW55974  10.599   1.369  14.865
18067SOL    HW155975  10.658   1.442   0.002
18067SOL    HW255976  10.655   1.292  14.866
18068SOL     OW55977   0.498   2.026  11.571
18068SOL    HW155978   0.550   2.090  11.619
18068SOL    HW255979   0.479   1.958  11.635
18069SOL     OW55980   3.978   9.292   7.735
18069SOL    HW155981   4.071   9.290   7.759
18069SOL    HW255982   3.946   9.374   7.770
18070SOL     OW55983   5.901   9.064  14.461
18070SOL    HW155984   5.897   9.036  14.552
18070SOL    HW255985   5.979   9.120  14.456
18071SOL     OW55986   5.213   4.283  10.653
18071SOL    HW155987   5.227   4.201  10.701
18071SOL    HW255988   5.301   4.314  10.633
18072SOL     OW55989  12.448  13.622   3.083
18072SOL    HW155990  12.457  13.549   3.022
18072SOL    HW255991  12.355  13.643   3.081
18073SOL     OW55992  12.970  12.375   6.121
18073SOL    HW155993  13.014  12.434   6.182
18073SOL    HW255994  12.882  12.412   6.111
18074SOL     OW55995  12.125   4.097   2.004
18074SOL    HW155996  12.218   4.113   2.017
18074SOL    HW255997  12.083   4.183   2.014
18075SOL     OW55998   1.680   9.000   3.446
18075SOL    HW155999   1.745   9.066   3.423
18075SOL    HW256000   1.602   9.025   3.398
18076SOL     OW56001   4.020   4.432   8.104
18076SOL    HW156002   3.946   4.483   8.072
18076SOL    HW256003   4.097   4.479   8.071
18077SOL     OW56004   2.413   2.661  13.133
18077SOL    HW156005   2.398   2.751  13.162
18077SOL    HW256006   2.374   2.658  13.046
18078SOL     OW56007   1.999   9.991   0.392
18078SOL    HW156008   1.985   9.970   0.300
18078SOL    HW256009   2.093  10.008   0.398
18079SOL     OW56010   0.265   4.900   7.766
18079SOL    HW156011   0.175   4.881   7.795
18079SOL    HW256012   0.311   4.817   7.778
18080SOL     OW56013   3.820   9.553  12.968
18080SOL    HW156014   3.889   9.588  13.024
18080SOL    HW256015   3.744   9.609  12.985
18081SOL     OW56016   6.800   6.758  10.732
18081SOL    HW156017   6.778   6.810  10.809
18081SOL    HW256018   6.870   6.700  10.761
18082SOL     OW56019  12.831   2.767  14.565
18082SOL    HW156020  12.788   2.733  14.488
18082SOL    HW256021  12.760   2.801  14.620
18083SOL     OW56022   7.176   5.180   4.008
18083SOL    HW156023   7.178   5.121   4.083
18083SOL    HW256024   7.146   5.264   4.045
18084SOL     OW56025   3.055   3.484  13.885
18084SOL    HW156026   3.150   3.488  13.870
18084SOL    HW256027   3.032   3.573  13.914
18085SOL     OW56028  10.767   4.539   5.682
18085SOL    HW156029  10.846   4.490   5.704
18085SOL    HW256030  10.706   4.519   5.752
18086SOL     OW56031   4.343   4.153   9.576
18086SOL    HW156032   4.410   4.217   9.552
18086SOL    HW256033   4.294   4.139   9.495
18087SOL     OW56034   6.053  10.829   1.490
18087SOL    HW156035   5.964  10.833   1.525
18087SOL    HW256036   6.082  10.920   1.490
18088SOL     OW56037   8.850   7.249  13.033
18088SOL    HW156038   8.797   7.238  13.112
18088SOL    HW256039   8.939   7.226  13.061
18089SOL     OW56040   9.771   1.501   7.579
18089SOL    HW156041   9.800   1.431   7.521
18089SOL    HW256042   9.731   1.456   7.654
18090SOL     OW56043   8.371  12.416   1.502
18090SOL    HW156044   8.342  12.503   1.472
18090SOL    HW256045   8.441  12.434   1.564
18091SOL     OW56046  14.070   6.446   8.697
18091SOL    HW156047  14.084   6.456   8.602
18091SOL    HW256048  14.114   6.522   8.735
18092SOL     OW56049   3.855   9.617  11.501
18092SOL    HW156050   3.879   9.625  11.408
18092SOL    HW256051   3.908   9.684  11.545
18093SOL     OW56052   3.599   2.544   5.513
18093SOL    HW156053   3.560   2.463   5.545
18093SOL    HW256054   3.687   2.545   5.552
18094SOL     OW56055   4.781   4.323  11.284
18094SOL    HW156056   4.876   4.334  11.271
18094SOL    HW256057   4.770   4.231  11.305
18095SOL     OW56058  12.973   6.093  12.914
18095SOL    HW156059  12.888   6.135  12.901
18095SOL    HW256060  12.953   5.999  12.918
18096SOL     OW56061  11.499   2.359   8.978
18096SOL    HW156062  11.405   2.348   8.964
18096SOL    HW256063  11.506   2.407   9.060
18097SOL     OW56064   6.635  12.225   6.055
18097SOL    HW156065   6.693  12.182   6.119
18097SOL    HW256066   6.552  12.177   6.062
18098SOL     OW56067   9.416  14.466  12.384
18098SOL    HW156068   9.476  14.483  12.311
18098SOL    HW256069   9.347  14.531  12.373
18099SOL     OW56070   4.828   9.414   8.046
18099SOL    HW156071   4.802   9.347   8.108
18099SOL    HW256072   4.900   9.375   7.996
18100SOL     OW56073   5.910   7.974   7.866
18100SOL    HW156074   5.912   7.883   7.837
18100SOL    HW256075   6.003   7.997   7.877
18101SOL     OW56076  10.801  14.822   1.053
18101SOL    HW156077  10.706  14.834   1.054
18101SOL    HW256078  10.835   0.024   1.084
18102SOL     OW56079  13.446   6.104   0.387
18102SOL    HW156080  13.539   6.100   0.364
18102SOL    HW256081  13.444   6.087   0.481
18103SOL     OW56082   5.412   4.520  14.659
18103SOL    HW156083   5.428   4.578  14.734
18103SOL    HW256084   5.317   4.511  14.656
18104SOL     OW56085   0.217  10.163  10.991
18104SOL    HW156086   0.164  10.238  11.016
18104SOL    HW256087   0.198  10.150  10.898
18105SOL     OW56088   1.457   5.302   9.582
18105SOL    HW156089   1.505   5.314   9.665
18105SOL    HW256090   1.374   5.347   9.596
18106SOL     OW56091   9.463   2.748   1.142
18106SOL    HW156092   9.456   2.694   1.062
18106SOL    HW256093   9.479   2.684   1.212
18107SOL     OW56094   5.682   5.019  13.948
18107SOL    HW156095   5.721   4.936  13.921
18107SOL    HW256096   5.654   5.060  13.865
18108SOL     OW56097  11.823   4.040  12.741
18108SOL    HW156098  11.825   3.945  12.739
18108SOL    HW256099  11.893   4.067  12.681
18109SOL     OW56100  12.526  12.262   3.612
18109SOL    HW156101  12.566  12.187   3.656
18109SOL    HW256102  12.456  12.224   3.560
18110SOL     OW56103   7.741   3.827  13.622
18110SOL    HW156104   7.757   3.876  13.703
18110SOL    HW256105   7.688   3.753  13.650
18111SOL     OW56106   3.808   0.810   7.985
18111SOL    HW156107   3.791   0.723   7.949
18111SOL    HW256108   3.799   0.799   8.080
18112SOL     OW56109   4.278  13.537  10.473
18112SOL    HW156110   4.361  13.583  10.460
18112SOL    HW256111   4.225  13.561  10.397
18113SOL     OW56112   8.823   9.490   4.862
18113SOL    HW156113   8.866   9.472   4.778
18113SOL    HW256114   8.770   9.411   4.878
18114SOL     OW56115   6.225   9.106   1.511
18114SOL    HW156116   6.147   9.162   1.515
18114SOL    HW256117   6.191   9.017   1.510
18115SOL     OW56118   0.733   6.303   2.887
18115SOL    HW156119   0.646   6.334   2.913
18115SOL    HW256120   0.716   6.227   2.832
18116SOL     OW56121   6.372   7.533   9.731
18116SOL    HW156122   6.401   7.575   9.811
18116SOL    HW256123   6.342   7.446   9.760
18117SOL     OW56124   6.345  12.742  12.448
18117SOL    HW156125   6.313  12.825  12.485
18117SOL    HW256126   6.409  12.769  12.382
18118SOL     OW56127  11.483  13.873  14.528
18118SOL    HW156128  11.395  13.908  14.521
18118SOL    HW256129  11.531  13.916  14.457
18119SOL     OW56130   8.050   6.828   8.005
18119SOL    HW156131   8.123   6.854   7.948
18119SOL    HW256132   8.086   6.757   8.058
18120SOL     OW56133  14.574   2.040   8.852
18120SOL    HW156134  14.541   1.998   8.931
18120SOL    HW256135  14.564   2.133   8.868
18121SOL     OW56136   5.931  13.001   8.583
18121SOL    HW156137   5.952  13.056   8.508
18121SOL    HW256138   5.836  12.992   8.581
18122SOL     OW56139  14.662   0.734   7.490
18122SOL    HW156140  14.681   0.760   7.400
18122SOL    HW256141  14.629   0.813   7.532
18123SOL     OW56142  11.241   9.084   2.878
18123SOL    HW156143  11.278   9.042   2.800
18123SOL    HW256144  11.150   9.056   2.879
18124SOL     OW56145   9.822   8.748  14.399
18124SOL    HW156146   9.892   8.749  14.464
18124SOL    HW256147   9.753   8.803  14.437
18125SOL     OW56148   9.017   2.505   5.021
18125SOL    HW156149   8.934   2.496   4.976
18125SOL    HW256150   9.057   2.583   4.984
18126SOL     OW56151   2.141   5.645   3.548
18126SOL    HW156152   2.177   5.671   3.464
18126SOL    HW256153   2.188   5.565   3.572
18127SOL     OW56154   6.716   0.371   4.315
18127SOL    HW156155   6.653   0.349   4.246
18127SOL    HW256156   6.699   0.308   4.384
18128SOL     OW56157  13.787  10.212   7.352
18128SOL    HW156158  13.873  10.246   7.376
18128SOL    HW256159  13.794  10.191   7.259
18129SOL     OW56160   2.253  11.025  14.738
18129SOL    HW156161   2.243  11.071  14.821
18129SOL    HW256162   2.246  11.094  14.672
18130SOL     OW56163  11.911   1.123  14.393
18130SOL    HW156164  11.934   1.034  14.417
18130SOL    HW256165  11.970   1.178  14.445
18131SOL     OW56166   1.261   9.315   1.975
18131SOL    HW156167   1.175   9.299   2.013
18131SOL    HW256168   1.312   9.238   1.999
18132SOL     OW56169   5.508  13.910  14.548
18132SOL    HW156170   5.473  13.943  14.466
18132SOL    HW256171   5.484  13.817  14.548
18133SOL     OW56172  10.986  10.576  10.410
18133SOL    HW156173  11.067  10.545  10.368
18133SOL    HW256174  10.964  10.657  10.364
18134SOL     OW56175   4.302   0.455   0.847
18134SOL    HW156176   4.226   0.497   0.886
18134SOL    HW256177   4.347   0.414   0.921
18135SOL     OW56178   2.800  11.242   8.940
18135SOL    HW156179   2.810  11.321   8.886
18135SOL    HW256180   2.718  11.202   8.910
18136SOL     OW56181   3.461   4.749   3.621
18136SOL    HW156182   3.479   4.838   3.651
18136SOL    HW256183   3.512   4.694   3.680
18137SOL     OW56184  10.888   9.273   7.346
18137SOL    HW156185  10.824   9.344   7.340
18137SOL    HW256186  10.867   9.229   7.429
18138SOL     OW56187   1.561  14.092   8.428
18138SOL    HW156188   1.620  14.039   8.374
18138SOL    HW256189   1.473  14.061   8.405
18139SOL     OW56190   4.971   7.112  13.330
18139SOL    HW156191   4.947   7.181  13.392
18139SOL    HW256192   4.936   7.142  13.246
18140SOL     OW56193   4.037  12.721   1.174
18140SOL    HW156194   4.095  12.646   1.161
18140SOL    HW256195   3.977  12.716   1.099
18141SOL     OW56196   7.205   5.255  10.275
18141SOL    HW156197   7.275   5.320  10.268
18141SOL    HW256198   7.208   5.226  10.367
18142SOL     OW56199  13.431   7.037   2.278
18142SOL    HW156200  13.427   7.032   2.374
18142SOL    HW256201  13.399   6.951   2.249
18143SOL     OW56202  12.707   5.218  11.798
18143SOL    HW156203  12.730   5.310  11.811
18143SOL    HW256204  12.789   5.171  11.812
18144SOL     OW56205   4.232   4.131  14.461
18144SOL    HW156206   4.156   4.184  14.439
18144SOL    HW256207   4.251   4.081  14.382
18145SOL     OW56208  11.384   5.867  10.938
18145SOL    HW156209  11.436   5.805  10.888
18145SOL    HW256210  11.333   5.812  10.998
18146SOL     OW56211   6.224  12.606   2.606
18146SOL    HW156212   6.245  12.688   2.561
18146SOL    HW256213   6.219  12.541   2.537
18147SOL     OW56214   2.630   4.683   3.292
18147SOL    HW156215   2.668   4.720   3.372
18147SOL    HW256216   2.673   4.598   3.283
18148SOL     OW56217  13.160  10.633   8.046
18148SOL    HW156218  13.202  10.583   7.976
18148SOL    HW256219  13.185  10.587   8.126
18149SOL     OW56220   6.466   9.337   0.927
18149SOL    HW156221   6.428   9.250   0.922
18149SOL    HW256222   6.561   9.323   0.921
18150SOL     OW56223   2.006   8.549   4.871
18150SOL    HW156224   2.006   8.457   4.899
18150SOL    HW256225   1.968   8.595   4.946
18151SOL     OW56226  13.144  11.482   2.747
18151SOL    HW156227  13.141  11.444   2.659
18151SOL    HW256228  13.113  11.412   2.804
18152SOL     OW56229   2.872   8.138   1.139
18152SOL    HW156230   2.949   8.179   1.179
18152SOL    HW256231   2.876   8.164   1.047
18153SOL     OW56232  12.412  10.898  10.478
18153SOL    HW156233  12.330  10.889  10.527
18153SOL    HW256234  12.445  10.809  10.470
18154SOL     OW56235   4.888   3.787  11.601
18154SOL    HW156236   4.797   3.818  11.602
18154SOL    HW256237   4.899   3.744  11.686
18155SOL     OW56238   0.232  12.817   3.334
18155SOL    HW156239   0.211  12.809   3.241
18155SOL    HW256240   0.325  12.796   3.339
18156SOL     OW56241  11.532  14.743   1.632
18156SOL    HW156242  11.536  14.705   1.720
18156SOL    HW256243  11.620  14.729   1.597
18157SOL     OW56244   3.658   2.890  10.478
18157SOL    HW156245   3.584   2.940  10.443
18157SOL    HW256246   3.731   2.951  10.480
18158SOL     OW56247   9.587  11.745  13.491
18158SOL    HW156248   9.674  11.751  13.451
18158SOL    HW256249   9.528  11.781  13.425
18159SOL     OW56250   5.118   6.921   9.495
18159SOL    HW156251   5.117   6.883   9.407
18159SOL    HW256252   5.211   6.938   9.512
18160SOL     OW56253   4.282   7.929   1.904
18160SOL    HW156254   4.223   7.962   1.836
18160SOL    HW256255   4.331   7.859   1.862
18161SOL     OW56256   0.732   9.427  13.657
18161SOL    HW156257   0.794   9.466  13.719
18161SOL    HW256258   0.674   9.499  13.631
18162SOL     OW56259  10.925  13.236   0.464
18162SOL    HW156260  11.013  13.231   0.428
18162SOL    HW256261  10.905  13.147   0.493
18163SOL     OW56262   6.069  12.053   0.052
18163SOL    HW156263   6.013  11.992   0.098
18163SOL    HW256264   6.060  12.029  14.841
18164SOL     OW56265   9.687  14.621   9.744
18164SOL    HW156266   9.762  14.680   9.756
18164SOL    HW256267   9.710  14.568   9.668
18165SOL     OW56268   4.145   8.720  12.570
18165SOL    HW156269   4.199   8.781  12.519
18165SOL    HW256270   4.199   8.697  12.645
18166SOL     OW56271   3.074   4.476  10.051
18166SOL    HW156272   2.991   4.520  10.032
18166SOL    HW256273   3.080   4.408   9.983
18167SOL     OW56274   5.843  14.827  13.449
18167SOL    HW156275   5.829  14.851  13.358
18167SOL    HW256276   5.922  14.772  13.448
18168SOL     OW56277  12.722  13.420   7.103
18168SOL    HW156278  12.679  13.405   7.019
18168SOL    HW256279  12.732  13.332   7.140
18169SOL     OW56280   2.117  12.521   5.831
18169SOL    HW156281   2.151  12.610   5.825
18169SOL    HW256282   2.072  12.518   5.916
18170SOL     OW56283   7.129  10.765   3.305
18170SOL    HW156284   7.108  10.673   3.321
18170SOL    HW256285   7.053  10.813   3.338
18171SOL     OW56286  11.937   1.269  11.835
18171SOL    HW156287  12.014   1.245  11.886
18171SOL    HW256288  11.867   1.214  11.870
18172SOL     OW56289  11.782   1.852  13.854
18172SOL    HW156290  11.846   1.789  13.888
18172SOL    HW256291  11.763   1.822  13.766
18173SOL     OW56292  11.410   4.316   9.128
18173SOL    HW156293  11.343   4.338   9.193
18173SOL    HW256294  11.493   4.334   9.173
18174SOL     OW56295  12.280  13.914   9.104
18174SOL    HW156296  12.317  13.939   9.020
18174SOL    HW256297  12.230  13.990   9.132
18175SOL     OW56298   1.662   3.869   2.666
18175SOL    HW156299   1.604   3.897   2.595
18175SOL    HW256300   1.732   3.933   2.668
18176SOL     OW56301  11.242   3.457   9.884
18176SOL    HW156302  11.190   3.514   9.828
18176SOL    HW256303  11.213   3.369   9.861
18177SOL     OW56304   5.581   3.829  12.502
18177SOL    HW156305   5.590   3.902  12.440
18177SOL    HW256306   5.662   3.779  12.492
18178SOL     OW56307  14.338   1.136   1.422
18178SOL    HW156308  14.286   1.077   1.366
18178SOL    HW256309  14.423   1.093   1.428
18179SOL     OW56310   6.990   0.430   4.312
18179SOL    HW156311   6.897   0.411   4.304
18179SOL    HW256312   6.996   0.494   4.383
18180SOL     OW56313   7.788  13.370  12.794
18180SOL    HW156314   7.865  13.354  12.847
18180SOL    HW256315   7.795  13.462  12.768
18181SOL     OW56316  10.126   4.612  10.437
18181SOL    HW156317  10.067   4.678  10.402
18181SOL    HW256318  10.080   4.574  10.512
18182SOL     OW56319  14.583  13.206  11.397
18182SOL    HW156320  14.650  13.146  11.430
18182SOL    HW256321  14.508  13.150  11.377
18183SOL     OW56322   5.695  14.666  13.634
18183SOL    HW156323   5.601  14.660  13.617
18183SOL    HW256324   5.732  14.693  13.551
18184SOL     OW56325  14.459   2.944  14.181
18184SOL    HW156326  14.451   2.907  14.093
18184SOL    HW256327  14.393   3.012  14.185
18185SOL     OW56328   9.071   2.497   9.570
18185SOL    HW156329   9.057   2.464   9.481
18185SOL    HW256330   9.027   2.582   9.571
18186SOL     OW56331   6.018   0.221   3.226
18186SOL    HW156332   5.939   0.169   3.241
18186SOL    HW256333   6.043   0.253   3.312
18187SOL     OW56334  12.559  13.051   1.863
18187SOL    HW156335  12.572  13.146   1.864
18187SOL    HW256336  12.498  13.036   1.791
18188SOL     OW56337  14.170  14.810   5.211
18188SOL    HW156338  14.095  14.828   5.267
18188SOL    HW256339  14.132  14.775   5.130
18189SOL     OW56340  13.504   3.969  10.099
18189SOL    HW156341  13.480   3.991  10.189
18189SOL    HW256342  13.509   3.874  10.097
18190SOL     OW56343   8.659   0.067   0.161
18190SOL    HW156344   8.700   0.083   0.076
18190SOL    HW256345   8.566   0.056   0.141
18191SOL     OW56346   3.487   5.011   5.868
18191SOL    HW156347   3.469   4.950   5.940
18191SOL    HW256348   3.570   5.052   5.892
18192SOL     OW56349  10.843  12.838   3.161
18192SOL    HW156350  10.809  12.921   3.194
18192SOL    HW256351  10.900  12.863   3.088
18193SOL     OW56352   9.472   9.778   4.207
18193SOL    HW156353   9.411   9.827   4.152
18193SOL    HW256354   9.416   9.718   4.257
18194SOL     OW56355   7.195   2.191   0.157
18194SOL    HW156356   7.144   2.139   0.094
18194SOL    HW256357   7.192   2.140   0.237
18195SOL     OW56358   8.648   5.824   2.999
18195SOL    HW156359   8.686   5.738   2.982
18195SOL    HW256360   8.723   5.880   3.017
18196SOL     OW56361  11.877  13.968  14.596
18196SOL    HW156362  11.802  13.929  14.551
18196SOL    HW256363  11.840  14.006  14.676
18197SOL     OW56364   9.177   3.240  14.824
18197SOL    HW156365   9.151   3.155  14.790
18197SOL    HW256366   9.186   3.227   0.037
18198SOL     OW56367   5.179   0.002   8.688
18198SOL    HW156368   5.143   0.084   8.655
18198SOL    HW256369   5.272   0.019   8.698
18199SOL     OW56370   7.432   2.471  12.550
18199SOL    HW156371   7.396   2.520  12.624
18199SOL    HW256372   7.441   2.536  12.480
18200SOL     OW56373   2.990   1.768   3.857
18200SOL    HW156374   2.954   1.735   3.775
18200SOL    HW256375   2.946   1.851   3.871
18201SOL     OW56376  10.707  13.472   9.592
18201SOL    HW156377  10.650  13.424   9.652
18201SOL    HW256378  10.786  13.490   9.642
18202SOL     OW56379  11.997  10.359   9.842
18202SOL    HW156380  12.087  10.373   9.811
18202SOL    HW256381  11.955  10.309   9.772
18203SOL     OW56382   8.024   0.847  13.978
18203SOL    HW156383   8.016   0.754  13.959
18203SOL    HW256384   8.110   0.872  13.946
18204SOL     OW56385   3.885   6.120  10.722
18204SOL    HW156386   3.873   6.197  10.666
18204SOL    HW256387   3.906   6.050  10.661
18205SOL     OW56388   1.460   4.554  11.726
18205SOL    HW156389   1.427   4.484  11.669
18205SOL    HW256390   1.387   4.614  11.734
18206SOL     OW56391   7.275   8.455   2.833
18206SOL    HW156392   7.247   8.498   2.913
18206SOL    HW256393   7.194   8.430   2.789
18207SOL     OW56394   0.329   4.072   4.058
18207SOL    HW156395   0.252   4.016   4.067
18207SOL    HW256396   0.403   4.012   4.070
18208SOL     OW56397   2.537   6.247   0.208
18208SOL    HW156398   2.517   6.153   0.198
18208SOL    HW256399   2.480   6.276   0.279
18209SOL     OW56400  12.634   3.257   4.268
18209SOL    HW156401  12.578   3.329   4.242
18209SOL    HW256402  12.717   3.274   4.222
18210SOL     OW56403  13.615   2.382  13.364
18210SOL    HW156404  13.664   2.464  13.359
18210SOL    HW256405  13.673   2.322  13.411
18211SOL     OW56406  13.662  10.794   1.981
18211SOL    HW156407  13.712  10.809   2.061
18211SOL    HW256408  13.600  10.867   1.978
18212SOL     OW56409   1.798   1.483   7.005
18212SOL    HW156410   1.747   1.417   7.052
18212SOL    HW256411   1.868   1.434   6.962
18213SOL     OW56412   1.829  11.564  13.453
18213SOL    HW156413   1.834  11.612  13.535
18213SOL    HW256414   1.759  11.608  13.404
18214SOL     OW56415   4.065   5.468   7.850
18214SOL    HW156416   4.048   5.562   7.854
18214SOL    HW256417   3.995   5.433   7.795
18215SOL     OW56418   9.061   4.235  11.774
18215SOL    HW156419   9.007   4.156  11.784
18215SOL    HW256420   9.139   4.217  11.828
18216SOL     OW56421  13.686  14.784  12.868
18216SOL    HW156422  13.704  14.868  12.911
18216SOL    HW256423  13.601  14.757  12.904
18217SOL     OW56424   4.802  10.187   9.896
18217SOL    HW156425   4.840  10.119   9.840
18217SOL    HW256426   4.799  10.147   9.983
18218SOL     OW56427   7.743  10.104   3.682
18218SOL    HW156428   7.753  10.199   3.681
18218SOL    HW256429   7.669  10.088   3.740
18219SOL     OW56430  11.190   6.305  12.568
18219SOL    HW156431  11.190   6.379  12.629
18219SOL    HW256432  11.211   6.344  12.483
18220SOL     OW56433  13.583   5.389   8.468
18220SOL    HW156434  13.553   5.322   8.406
18220SOL    HW256435  13.602   5.466   8.414
18221SOL     OW56436   1.756   8.714  14.303
18221SOL    HW156437   1.789   8.636  14.346
18221SOL    HW256438   1.814   8.784  14.332
18222SOL     OW56439  10.495  10.900  13.728
18222SOL    HW156440  10.540  10.911  13.812
18222SOL    HW256441  10.450  10.816  13.736
18223SOL     OW56442  14.004   2.527   2.969
18223SOL    HW156443  13.926   2.555   2.922
18223SOL    HW256444  14.058   2.485   2.902
18224SOL     OW56445  11.831   3.104  12.110
18224SOL    HW156446  11.915   3.105  12.155
18224SOL    HW256447  11.795   3.192  12.122
18225SOL     OW56448  12.516   4.742   2.739
18225SOL    HW156449  12.458   4.781   2.673
18225SOL    HW256450  12.457   4.698   2.799
18226SOL     OW56451   3.693   3.609   1.675
18226SOL    HW156452   3.714   3.666   1.601
18226SOL    HW256453   3.598   3.613   1.683
18227SOL     OW56454  11.363  14.749   9.245
18227SOL    HW156455  11.275  14.773   9.215
18227SOL    HW256456  11.377  14.802   9.324
18228SOL     OW56457  14.665  14.119   8.255
18228SOL    HW156458  14.573  14.131   8.229
18228SOL    HW256459  14.694  14.207   8.279
18229SOL     OW56460   1.493   5.154   4.823
18229SOL    HW156461   1.414   5.103   4.843
18229SOL    HW256462   1.540   5.101   4.758
18230SOL     OW56463   1.643  13.036   8.453
18230SOL    HW156464   1.713  12.980   8.420
18230SOL    HW256465   1.589  13.055   8.376
18231SOL     OW56466   0.272   4.335   2.053
18231SOL    HW156467   0.325   4.410   2.025
18231SOL    HW256468   0.329   4.288   2.115
18232SOL     OW56469   2.329  10.742   2.420
18232SOL    HW156470   2.348  10.669   2.479
18232SOL    HW256471   2.288  10.808   2.475
18233SOL     OW56472   1.526  10.303  13.575
18233SOL    HW156473   1.439  10.275  13.603
18233SOL    HW256474   1.577  10.307  13.656
18234SOL     OW56475   1.903   2.518   8.139
18234SOL    HW156476   1.878   2.488   8.052
18234SOL    HW256477   1.873   2.608   8.143
18235SOL     OW56478   6.424   6.582   9.194
18235SOL    HW156479   6.409   6.674   9.174
18235SOL    HW256480   6.349   6.557   9.248
18236SOL     OW56481  14.646  10.589   1.850
18236SOL    HW156482  14.652  10.676   1.890
18236SOL    HW256483  14.620  10.606   1.759
18237SOL     OW56484   9.700   9.396   6.317
18237SOL    HW156485   9.630   9.368   6.258
18237SOL    HW256486   9.660   9.395   6.404
18238SOL     OW56487   4.861  12.705   2.244
18238SOL    HW156488   4.767  12.722   2.248
18238SOL    HW256489   4.889  12.699   2.335
18239SOL     OW56490  13.915   9.261  11.082
18239SOL    HW156491  13.994   9.213  11.108
18239SOL    HW256492  13.948   9.348  11.057
18240SOL     OW56493   1.414   1.278  13.364
18240SOL    HW156494   1.470   1.218  13.315
18240SOL    HW256495   1.386   1.343  13.299
18241SOL     OW56496  13.367  14.518   4.574
18241SOL    HW156497  13.390  14.610   4.564
18241SOL    HW256498  13.313  14.515   4.653
18242SOL     OW56499   5.940  14.067   7.921
18242SOL    HW156500   5.922  14.106   8.007
18242SOL    HW256501   5.856  14.070   7.876
18243SOL     OW56502  14.297  14.414  11.676
18243SOL    HW156503  14.211  14.384  11.708
18243SOL    HW256504  14.277  14.491  11.622
18244SOL     OW56505   1.652  12.825  10.355
18244SOL    HW156506   1.696  12.801  10.274
18244SOL    HW256507   1.601  12.903  10.333
18245SOL     OW56508   9.357   0.069  12.266
18245SOL    HW156509   9.349   0.096  12.175
18245SOL    HW256510   9.310   0.137  12.315
18246SOL     OW56511   1.064   5.619   7.721
18246SOL    HW156512   1.031   5.531   7.742
18246SOL    HW256513   1.135   5.633   7.783
18247SOL     OW56514   4.449   0.955   6.916
18247SOL    HW156515   4.362   0.979   6.949
18247SOL    HW256516   4.481   0.890   6.979
18248SOL     OW56517  14.302   4.973  12.257
18248SOL    HW156518  14.340   5.046  12.305
18248SOL    HW256519  14.376   4.931  12.214
18249SOL     OW56520   7.224   2.776   4.608
18249SOL    HW156521   7.266   2.741   4.687
18249SOL    HW256522   7.136   2.740   4.610
18250SOL     OW56523   9.067  13.702   0.407
18250SOL    HW156524   9.073  13.619   0.454
18250SOL    HW256525   9.158  13.725   0.386
18251SOL     OW56526  10.426   9.565   9.074
18251SOL    HW156527  10.342   9.585   9.034
18251SOL    HW256528  10.461   9.650   9.101
18252SOL     OW56529  10.432   0.719   5.855
18252SOL    HW156530  10.402   0.732   5.766
18252SOL    HW256531  10.394   0.635   5.882
18253SOL     OW56532  13.513   1.975   8.688
18253SOL    HW156533  13.479   1.910   8.750
18253SOL    HW256534  13.561   2.037   8.742
18254SOL     OW56535  14.602  10.986   9.549
18254SOL    HW156536  14.512  10.960   9.572
18254SOL    HW256537  14.626  10.929   9.476
18255SOL     OW56538  10.877  10.951  10.552
18255SOL    HW156539  10.892  11.011  10.625
18255SOL    HW256540  10.913  10.867  10.581
18256SOL     OW56541   2.281  11.509   7.300
18256SOL    HW156542   2.362  11.541   7.262
18256SOL    HW256543   2.247  11.446   7.236
18257SOL     OW56544  10.170  12.024   6.110
18257SOL    HW156545  10.143  12.106   6.069
18257SOL    HW256546  10.108  11.959   6.078
18258SOL     OW56547   5.727  14.488  10.950
18258SOL    HW156548   5.716  14.465  11.042
18258SOL    HW256549   5.781  14.567  10.951
18259SOL     OW56550   0.559   2.532   6.121
18259SOL    HW156551   0.601   2.571   6.197
18259SOL    HW256552   0.501   2.601   6.087
18260SOL     OW56553  13.939   1.889  13.574
18260SOL    HW156554  13.874   1.924  13.513
18260SOL    HW256555  13.974   1.965  13.620
18261SOL     OW56556   1.012   1.219   8.154
18261SOL    HW156557   1.045   1.302   8.189
18261SOL    HW256558   0.961   1.181   8.225
18262SOL     OW56559  14.070   6.630   8.946
18262SOL    HW156560  14.058   6.546   8.991
18262SOL    HW256561  14.153   6.664   8.982
18263SOL     OW56562  12.304   5.712  11.335
18263SOL    HW156563  12.322   5.665  11.254
18263SOL    HW256564  12.331   5.802  11.316
18264SOL     OW56565   7.379  12.760  12.874
18264SOL    HW156566   7.388  12.855  12.883
18264SOL    HW256567   7.306  12.749  12.813
18265SOL     OW56568   6.657   0.616  12.193
18265SOL    HW156569   6.615   0.693  12.232
18265SOL    HW256570   6.619   0.610  12.105
18266SOL     OW56571   6.074   7.862   6.886
18266SOL    HW156572   6.008   7.816   6.936
18266SOL    HW256573   6.148   7.871   6.946
18267SOL     OW56574   9.048   9.987   8.134
18267SOL    HW156575   9.074   9.949   8.051
18267SOL    HW256576   9.128   9.985   8.188
18268SOL     OW56577   1.595  12.631   7.943
18268SOL    HW156578   1.661  12.663   7.882
18268SOL    HW256579   1.561  12.710   7.986
18269SOL     OW56580  12.730   3.911   0.516
18269SOL    HW156581  12.678   3.952   0.446
18269SOL    HW256582  12.714   3.817   0.505
18270SOL     OW56583   3.865   8.340  10.382
18270SOL    HW156584   3.841   8.256  10.343
18270SOL    HW256585   3.958   8.351  10.360
18271SOL     OW56586   5.396  14.832   6.575
18271SOL    HW156587   5.320  14.855   6.521
18271SOL    HW256588   5.471  14.869   6.528
18272SOL     OW56589  10.928  14.627  10.846
18272SOL    HW156590  10.951  14.560  10.781
18272SOL    HW256591  10.913  14.577  10.926
18273SOL     OW56592   7.576   2.122   8.511
18273SOL    HW156593   7.617   2.036   8.517
18273SOL    HW256594   7.602   2.155   8.425
18274SOL     OW56595   6.826   2.474   3.324
18274SOL    HW156596   6.843   2.427   3.405
18274SOL    HW256597   6.869   2.421   3.256
18275SOL     OW56598   6.585  13.289  12.969
18275SOL    HW156599   6.626  13.297  12.883
18275SOL    HW256600   6.516  13.224  12.957
18276SOL     OW56601   9.275   1.455   6.745
18276SOL    HW156602   9.363   1.490   6.730
18276SOL    HW256603   9.227   1.527   6.787
18277SOL     OW56604  14.400   0.879  11.859
18277SOL    HW156605  14.335   0.944  11.886
18277SOL    HW256606  14.482   0.910  11.898
18278SOL     OW56607  13.800  14.250   2.965
18278SOL    HW156608  13.717  14.231   2.922
18278SOL    HW256609  13.862  14.263   2.893
18279SOL     OW56610   3.805  13.716   2.348
18279SOL    HW156611   3.823  13.797   2.299
18279SOL    HW256612   3.773  13.746   2.433
18280SOL     OW56613   6.280   1.609  14.676
18280SOL    HW156614   6.299   1.522  14.711
18280SOL    HW256615   6.203   1.597  14.621
18281SOL     OW56616  12.518  13.362   9.085
18281SOL    HW156617  12.439  13.394   9.041
18281SOL    HW256618  12.565  13.313   9.017
18282SOL     OW56619   2.161   9.702  12.414
18282SOL    HW156620   2.172   9.723  12.507
18282SOL    HW256621   2.094   9.634  12.412
18283SOL     OW56622   6.568   9.473   0.545
18283SOL    HW156623   6.487   9.427   0.522
18283SOL    HW256624   6.544   9.565   0.546
18284SOL     OW56625  10.335   8.629   9.821
18284SOL    HW156626  10.313   8.572   9.895
18284SOL    HW256627  10.427   8.609   9.802
18285SOL     OW56628   6.210   2.935   3.589
18285SOL    HW156629   6.222   2.856   3.641
18285SOL    HW256630   6.216   3.007   3.653
18286SOL     OW56631  14.327   1.013  14.151
18286SOL    HW156632  14.342   0.930  14.195
18286SOL    HW256633  14.410   1.059  14.157
18287SOL     OW56634   9.987   0.349   4.238
18287SOL    HW156635   9.950   0.436   4.226
18287SOL    HW256636  10.044   0.336   4.163
18288SOL     OW56637  12.107   0.615   7.932
18288SOL    HW156638  12.161   0.695   7.928
18288SOL    HW256639  12.076   0.613   8.022
18289SOL     OW56640  13.525  12.828  12.732
18289SOL    HW156641  13.495  12.765  12.798
18289SOL    HW256642  13.449  12.884  12.717
18290SOL     OW56643  10.205   0.347   8.655
18290SOL    HW156644  10.111   0.336   8.647
18290SOL    HW256645  10.242   0.263   8.628
18291SOL     OW56646  12.080   9.279   0.525
18291SOL    HW156647  12.132   9.336   0.580
18291SOL    HW256648  12.065   9.329   0.445
18292SOL     OW56649   4.057   7.531   2.107
18292SOL    HW156650   4.080   7.442   2.079
18292SOL    HW256651   4.140   7.571   2.130
18293SOL     OW56652   4.394   0.957   6.120
18293SOL    HW156653   4.419   1.046   6.145
18293SOL    HW256654   4.324   0.969   6.055
18294SOL     OW56655  13.688  11.971   3.195
18294SOL    HW156656  13.653  11.902   3.139
18294SOL    HW256657  13.704  11.928   3.279
18295SOL     OW56658   3.367   9.487  11.261
18295SOL    HW156659   3.450   9.527  11.288
18295SOL    HW256660   3.371   9.398  11.296
18296SOL     OW56661   0.326   7.901   9.332
18296SOL    HW156662   0.287   7.950   9.405
18296SOL    HW256663   0.396   7.850   9.373
18297SOL     OW56664   5.327   6.031   4.261
18297SOL    HW156665   5.379   5.963   4.305
18297SOL    HW256666   5.333   6.107   4.318
18298SOL     OW56667   5.990   7.202   9.378
18298SOL    HW156668   5.980   7.285   9.331
18298SOL    HW256669   6.073   7.211   9.424
18299SOL     OW56670   3.462  10.353   8.099
18299SOL    HW156671   3.426  10.379   8.184
18299SOL    HW256672   3.490  10.435   8.059
18300SOL     OW56673  11.674   2.096   2.633
18300SOL    HW156674  11.631   2.015   2.606
18300SOL    HW256675  11.670   2.095   2.728
18301SOL     OW56676   5.937   9.477   9.786
18301SOL    HW156677   5.869   9.512   9.844
18301SOL    HW256678   5.889   9.432   9.717
18302SOL     OW56679   7.413  12.727   8.738
18302SOL    HW156680   7.386  12.636   8.733
18302SOL    HW256681   7.508  12.725   8.725
18303SOL     OW56682   4.926  13.452   8.728
18303SOL    HW156683   4.832  13.440   8.731
18303SOL    HW256684   4.956  13.389   8.662
18304SOL     OW56685  13.274   6.003  11.729
18304SOL    HW156686  13.353   5.971  11.684
18304SOL    HW256687  13.227   6.053  11.663
18305SOL     OW56688   8.821   5.334   3.924
18305SOL    HW156689   8.748   5.331   3.862
18305SOL    HW256690   8.802   5.263   3.986
18306SOL     OW56691   4.333   2.684   8.260
18306SOL    HW156692   4.408   2.736   8.291
18306SOL    HW256693   4.257   2.726   8.301
18307SOL     OW56694   2.919   4.909  10.184
18307SOL    HW156695   2.854   4.849  10.148
18307SOL    HW256696   2.889   4.996  10.155
18308SOL     OW56697   4.211   8.779   1.272
18308SOL    HW156698   4.290   8.726   1.280
18308SOL    HW256699   4.183   8.766   1.181
18309SOL     OW56700  10.950   2.745   6.827
18309SOL    HW156701  11.036   2.770   6.794
18309SOL    HW256702  10.940   2.653   6.802
18310SOL     OW56703   9.648  12.224   9.509
18310SOL    HW156704   9.593  12.161   9.463
18310SOL    HW256705   9.726  12.174   9.534
18311SOL     OW56706   3.580   2.789   2.292
18311SOL    HW156707   3.553   2.861   2.349
18311SOL    HW256708   3.565   2.821   2.203
18312SOL     OW56709  13.020   6.510  14.863
18312SOL    HW156710  13.012   6.590   0.033
18312SOL    HW256711  13.096   6.465   0.019
18313SOL     OW56712  13.161  13.255  10.440
18313SOL    HW156713  13.079  13.278  10.483
18313SOL    HW256714  13.215  13.334  10.449
18314SOL     OW56715  10.966   3.808   7.323
18314SOL    HW156716  10.877   3.822   7.289
18314SOL    HW256717  10.982   3.883   7.380
18315SOL     OW56718   1.897  14.364   8.462
18315SOL    HW156719   1.985  14.329   8.453
18315SOL    HW256720   1.853  14.340   8.381
18316SOL     OW56721   4.178   5.690   5.081
18316SOL    HW156722   4.215   5.663   5.165
18316SOL    HW256723   4.248   5.739   5.039
18317SOL     OW56724   1.979   2.660  14.612
18317SOL    HW156725   1.895   2.614  14.609
18317SOL    HW256726   1.980   2.703  14.697
18318SOL     OW56727   7.508  11.262   3.562
18318SOL    HW156728   7.455  11.209   3.621
18318SOL    HW256729   7.476  11.351   3.574
18319SOL     OW56730  13.514  11.958  10.877
18319SOL    HW156731  13.608  11.966  10.892
18319SOL    HW256732  13.501  11.865  10.857
18320SOL     OW56733   9.188   5.907   9.397
18320SOL    HW156734   9.185   6.002   9.405
18320SOL    HW256735   9.177   5.890   9.304
18321SOL     OW56736   3.779  14.366   4.734
18321SOL    HW156737   3.733  14.437   4.779
18321SOL    HW256738   3.832  14.324   4.801
18322SOL     OW56739   8.938  11.561   7.250
18322SOL    HW156740   8.850  11.531   7.271
18322SOL    HW256741   8.960  11.622   7.321
18323SOL     OW56742   8.727   1.459  10.880
18323SOL    HW156743   8.779   1.532  10.913
18323SOL    HW256744   8.692   1.417  10.958
18324SOL     OW56745   7.220   4.991   3.541
18324SOL    HW156746   7.227   5.052   3.614
18324SOL    HW256747   7.204   4.906   3.583
18325SOL     OW56748   0.968   1.044  14.042
18325SOL    HW156749   0.965   0.990  14.120
18325SOL    HW256750   1.057   1.032  14.008
18326SOL     OW56751  12.597  14.360  13.353
18326SOL    HW156752  12.647  14.408  13.418
18326SOL    HW256753  12.618  14.403  13.270
18327SOL     OW56754   0.892  11.418   0.090
18327SOL    HW156755   0.833  11.416   0.014
18327SOL    HW256756   0.939  11.335   0.086
18328SOL     OW56757   9.407  12.143  10.675
18328SOL    HW156758   9.498  12.146  10.646
18328SOL    HW256759   9.404  12.072  10.739
18329SOL     OW56760   8.330  10.906  14.413
18329SOL    HW156761   8.358  10.962  14.485
18329SOL    HW256762   8.275  10.962  14.359
18330SOL     OW56763   2.524  13.619   9.847
18330SOL    HW156764   2.462  13.689   9.867
18330SOL    HW256765   2.606  13.648   9.887
18331SOL     OW56766   9.895   3.326   4.421
18331SOL    HW156767   9.901   3.391   4.491
18331SOL    HW256768   9.903   3.377   4.341
18332SOL     OW56769   2.527  13.545  11.459
18332SOL    HW156770   2.601  13.516  11.405
18332SOL    HW256771   2.525  13.640  11.448
18333SOL     OW56772  11.293  10.295   8.169
18333SOL    HW156773  11.357  10.303   8.099
18333SOL    HW256774  11.320  10.217   8.217
18334SOL     OW56775   1.847  14.262  10.389
18334SOL    HW156776   1.789  14.235  10.318
18334SOL    HW256777   1.910  14.190  10.396
18335SOL     OW56778  14.117   3.966   6.636
18335SOL    HW156779  14.086   3.876   6.649
18335SOL    HW256780  14.197   3.956   6.585
18336SOL     OW56781  14.046  13.477   6.118
18336SOL    HW156782  13.974  13.515   6.168
18336SOL    HW256783  14.019  13.488   6.026
18337SOL     OW56784  13.857   1.269   5.778
18337SOL    HW156785  13.812   1.249   5.696
18337SOL    HW256786  13.949   1.271   5.754
18338SOL     OW56787   2.770   6.885   3.523
18338SOL    HW156788   2.729   6.879   3.609
18338SOL    HW256789   2.736   6.966   3.485
18339SOL     OW56790  13.384  14.786  11.521
18339SOL    HW156791  13.353  14.832  11.600
18339SOL    HW256792  13.342  14.700  11.526
18340SOL     OW56793  13.784   9.194  14.437
18340SOL    HW156794  13.807   9.287  14.437
18340SOL    HW256795  13.815   9.161  14.353
18341SOL     OW56796  12.844   4.038   9.812
18341SOL    HW156797  12.845   4.060   9.905
18341SOL    HW256798  12.861   4.122   9.768
18342SOL     OW56799   9.028   8.524  10.245
18342SOL    HW156800   8.990   8.460  10.185
18342SOL    HW256801   8.954   8.579  10.272
18343SOL     OW56802   6.169  10.025   4.116
18343SOL    HW156803   6.138   9.935   4.124
18343SOL    HW256804   6.197  10.033   4.025
18344SOL     OW56805   6.444  12.563   2.784
18344SOL    HW156806   6.391  12.547   2.706
18344SOL    HW256807   6.534  12.553   2.754
18345SOL     OW56808   6.448   3.099   0.775
18345SOL    HW156809   6.503   3.025   0.749
18345SOL    HW256810   6.491   3.176   0.737
18346SOL     OW56811   8.997   7.485   1.729
18346SOL    HW156812   8.954   7.401   1.713
18346SOL    HW256813   9.058   7.467   1.800
18347SOL     OW56814   2.722   0.625   7.102
18347SOL    HW156815   2.678   0.542   7.121
18347SOL    HW256816   2.727   0.669   7.187
18348SOL     OW56817  12.628   0.503   4.310
18348SOL    HW156818  12.543   0.546   4.319
18348SOL    HW256819  12.632   0.443   4.384
18349SOL     OW56820   0.008   3.891   8.014
18349SOL    HW156821   0.023   3.973   8.061
18349SOL    HW256822   0.005   3.917   7.921
18350SOL     OW56823   3.321  13.499  14.327
18350SOL    HW156824   3.414  13.475  14.317
18350SOL    HW256825   3.321  13.595  14.322
18351SOL     OW56826  14.335  10.263   1.281
18351SOL    HW156827  14.380  10.230   1.359
18351SOL    HW256828  14.278  10.192   1.254
18352SOL     OW56829  14.837   7.267  12.278
18352SOL    HW156830   0.050   7.254  12.291
18352SOL    HW256831  14.825   7.261  12.184
18353SOL     OW56832  12.199   4.169   9.657
18353SOL    HW156833  12.165   4.199   9.742
18353SOL    HW256834  12.131   4.110   9.624
18354SOL     OW56835   7.384   3.084   8.953
18354SOL    HW156836   7.388   2.998   8.911
18354SOL    HW256837   7.468   3.091   9.000
18355SOL     OW56838   6.466   7.046   3.702
18355SOL    HW156839   6.423   7.104   3.639
18355SOL    HW256840   6.402   7.034   3.772
18356SOL     OW56841   0.164  14.746   3.592
18356SOL    HW156842   0.069  14.759   3.585
18356SOL    HW256843   0.202  14.827   3.558
18357SOL     OW56844   7.936   5.565   0.592
18357SOL    HW156845   7.935   5.502   0.519
18357SOL    HW256846   7.880   5.637   0.562
18358SOL     OW56847  13.015   6.196  13.336
18358SOL    HW156848  13.068   6.175  13.259
18358SOL    HW256849  13.065   6.162  13.410
18359SOL     OW56850   3.018   4.936   5.842
18359SOL    HW156851   2.990   5.016   5.797
18359SOL    HW256852   2.979   4.943   5.929
18360SOL     OW56853  14.533   5.068   0.299
18360SOL    HW156854  14.547   5.007   0.371
18360SOL    HW256855  14.473   5.023   0.240
18361SOL     OW56856   9.694   0.408  11.623
18361SOL    HW156857   9.622   0.467  11.647
18361SOL    HW256858   9.772   0.450  11.658
18362SOL     OW56859   2.359   6.833   1.233
18362SOL    HW156860   2.434   6.860   1.180
18362SOL    HW256861   2.398   6.792   1.310
18363SOL     OW56862   2.230   7.363  11.478
18363SOL    HW156863   2.143   7.402  11.477
18363SOL    HW256864   2.287   7.431  11.442
18364SOL     OW56865   0.509  12.561  10.268
18364SOL    HW156866   0.540  12.651  10.261
18364SOL    HW256867   0.414  12.568  10.278
18365SOL     OW56868  13.310  13.292   1.012
18365SOL    HW156869  13.391  13.298   1.063
18365SOL    HW256870  13.285  13.200   1.018
18366SOL     OW56871  14.634  12.302   4.454
18366SOL    HW156872  14.679  12.262   4.528
18366SOL    HW256873  14.633  12.396   4.474
18367SOL     OW56874  13.281   5.381   8.909
18367SOL    HW156875  13.289   5.295   8.867
18367SOL    HW256876  13.238   5.362   8.993
18368SOL     OW56877  14.843  14.828   0.737
18368SOL    HW156878  14.860   0.022   0.680
18368SOL    HW256879  14.750  14.809   0.724
18369SOL     OW56880  11.483   5.785   1.352
18369SOL    HW156881  11.441   5.701   1.369
18369SOL    HW256882  11.417   5.850   1.374
18370SOL     OW56883  14.799  11.747   9.368
18370SOL    HW156884   0.001  11.766   9.325
18370SOL    HW256885  14.798  11.652   9.378
18371SOL     OW56886  12.686  13.920   2.973
18371SOL    HW156887  12.653  13.851   2.915
18371SOL    HW256888  12.630  13.916   3.050
18372SOL     OW56889   9.534  10.658   4.303
18372SOL    HW156890   9.458  10.661   4.361
18372SOL    HW256891   9.500  10.681   4.217
18373SOL     OW56892   4.039   8.803   3.591
18373SOL    HW156893   4.083   8.727   3.553
18373SOL    HW256894   4.103   8.842   3.649
18374SOL     OW56895  14.049   9.415   2.928
18374SOL    HW156896  13.965   9.421   2.974
18374SOL    HW256897  14.031   9.452   2.841
18375SOL     OW56898  10.222   6.220  12.211
18375SOL    HW156899  10.166   6.171  12.150
18375SOL    HW256900  10.218   6.310  12.180
18376SOL     OW56901  11.825   6.083   9.346
18376SOL    HW156902  11.841   6.011   9.286
18376SOL    HW256903  11.741   6.062   9.387
18377SOL     OW56904  11.489   5.942   6.808
18377SOL    HW156905  11.537   6.011   6.853
18377SOL    HW256906  11.552   5.870   6.801
18378SOL     OW56907   1.058   4.469   6.601
18378SOL    HW156908   1.084   4.561   6.592
18378SOL    HW256909   0.980   4.471   6.655
18379SOL     OW56910   6.855   7.765  14.444
18379SOL    HW156911   6.933   7.736  14.492
18379SOL    HW256912   6.867   7.729  14.356
18380SOL     OW56913  10.298   5.779   2.696
18380SOL    HW156914  10.306   5.719   2.770
18380SOL    HW256915  10.272   5.862   2.736
18381SOL     OW56916  12.201   5.873   9.441
18381SOL    HW156917  12.162   5.856   9.355
18381SOL    HW256918  12.286   5.912   9.421
18382SOL     OW56919   7.070  14.449   7.743
18382SOL    HW156920   7.115  14.443   7.827
18382SOL    HW256921   7.137  14.481   7.682
18383SOL     OW56922  12.025  10.452   2.446
18383SOL    HW156923  11.934  10.481   2.452
18383SOL    HW256924  12.048  10.463   2.354
18384SOL     OW56925   9.438   6.974   0.282
18384SOL    HW156926   9.506   7.027   0.241
18384SOL    HW256927   9.426   6.900   0.222
18385SOL     OW56928   4.704   7.009   5.834
18385SOL    HW156929   4.702   7.012   5.929
18385SOL    HW256930   4.620   6.969   5.810
18386SOL     OW56931  14.811   4.253   1.302
18386SOL    HW156932   0.018   4.220   1.314
18386SOL    HW256933  14.762   4.217   1.376
18387SOL     OW56934   9.384   0.457   1.437
18387SOL    HW156935   9.374   0.462   1.532
18387SOL    HW256936   9.439   0.380   1.423
18388SOL     OW56937  13.033  11.122   5.318
18388SOL    HW156938  13.003  11.109   5.228
18388SOL    HW256939  13.078  11.040   5.340
18389SOL     OW56940   3.674  12.550   3.837
18389SOL    HW156941   3.720  12.526   3.917
18389SOL    HW256942   3.631  12.469   3.809
18390SOL     OW56943   3.130   8.086  13.012
18390SOL    HW156944   3.041   8.053  13.013
18390SOL    HW256945   3.122   8.177  12.984
18391SOL     OW56946   6.904   6.717   5.613
18391SOL    HW156947   6.836   6.784   5.617
18391SOL    HW256948   6.953   6.737   5.534
18392SOL     OW56949   6.250  11.445  11.568
18392SOL    HW156950   6.291  11.361  11.549
18392SOL    HW256951   6.321  11.509  11.559
18393SOL     OW56952  12.440   2.464  11.707
18393SOL    HW156953  12.408   2.498  11.791
18393SOL    HW256954  12.369   2.481  11.646
18394SOL     OW56955   1.343   2.254   8.005
18394SOL    HW156956   1.400   2.316   7.960
18394SOL    HW256957   1.390   2.233   8.086
18395SOL     OW56958   0.786   5.945   1.254
18395SOL    HW156959   0.813   5.983   1.338
18395SOL    HW256960   0.799   6.016   1.190
18396SOL     OW56961  11.232  13.774   9.257
18396SOL    HW156962  11.192  13.774   9.344
18396SOL    HW256963  11.187  13.706   9.209
18397SOL     OW56964   5.119  14.615   8.570
18397SOL    HW156965   5.081  14.703   8.575
18397SOL    HW256966   5.095  14.584   8.483
18398SOL     OW56967  11.592  11.524   5.190
18398SOL    HW156968  11.520  11.585   5.207
18398SOL    HW256969  11.621  11.545   5.101
18399SOL     OW56970   4.807   5.808   5.690
18399SOL    HW156971   4.761   5.790   5.772
18399SOL    HW256972   4.787   5.732   5.635
18400SOL     OW56973   0.751  13.015  11.601
18400SOL    HW156974   0.731  12.966  11.681
18400SOL    HW256975   0.847  13.022  11.600
18401SOL     OW56976   8.018  12.548   3.168
18401SOL    HW156977   8.088  12.567   3.231
18401SOL    HW256978   8.064  12.531   3.086
18402SOL     OW56979   6.057  13.154   9.003
18402SOL    HW156980   6.047  13.076   9.059
18402SOL    HW256981   5.993  13.216   9.038
18403SOL     OW56982  14.563  14.783   3.740
18403SOL    HW156983  14.556  14.748   3.829
18403SOL    HW256984  14.497  14.735   3.690
18404SOL     OW56985   4.164  13.314  12.212
18404SOL    HW156986   4.123  13.304  12.126
18404SOL    HW256987   4.253  13.281  12.200
18405SOL     OW56988   9.098  14.716   8.456
18405SOL    HW156989   9.148  14.742   8.533
18405SOL    HW256990   9.054  14.635   8.480
18406SOL     OW56991   6.129  12.047  12.795
18406SOL    HW156992   6.123  12.056  12.890
18406SOL    HW256993   6.090  11.961  12.776
18407SOL     OW56994   6.283   1.802   8.350
18407SOL    HW156995   6.193   1.784   8.321
18407SOL    HW256996   6.331   1.723   8.327
18408SOL     OW56997   1.066   1.842   5.619
18408SOL    HW156998   1.050   1.799   5.703
18408SOL    HW256999   1.130   1.786   5.575
18409SOL     OW57000   7.842   1.316  13.446
18409SOL    HW157001   7.753   1.282  13.459
18409SOL    HW257002   7.890   1.286  13.523
18410SOL     OW57003   4.491   7.243  13.343
18410SOL    HW157004   4.557   7.293  13.295
18410SOL    HW257005   4.408   7.286  13.321
18411SOL     OW57006   8.126  12.946   4.446
18411SOL    HW157007   8.065  13.003   4.399
18411SOL    HW257008   8.199  12.933   4.385
18412SOL     OW57009   0.897   4.979   2.787
18412SOL    HW157010   0.897   4.947   2.878
18412SOL    HW257011   0.831   5.049   2.787
18413SOL     OW57012  11.083   0.345   9.969
18413SOL    HW157013  11.082   0.433  10.008
18413SOL    HW257014  11.029   0.292  10.027
18414SOL     OW57015  12.755   6.093   1.990
18414SOL    HW157016  12.681   6.111   1.932
18414SOL    HW257017  12.826   6.147   1.956
18415SOL     OW57018  13.880   4.818  12.870
18415SOL    HW157019  13.844   4.804  12.783
18415SOL    HW257020  13.973   4.801  12.861
18416SOL     OW57021  13.050   1.160   3.772
18416SOL    HW157022  13.068   1.241   3.725
18416SOL    HW257023  12.960   1.170   3.803
18417SOL     OW57024  14.212  11.547   3.212
18417SOL    HW157025  14.278  11.570   3.278
18417SOL    HW257026  14.128  11.561   3.256
18418SOL     OW57027  10.271   3.468   1.100
18418SOL    HW157028  10.179   3.495   1.101
18418SOL    HW257029  10.311   3.514   1.174
18419SOL     OW57030   0.014   4.300   4.553
18419SOL    HW157031  14.825   4.330   4.611
18419SOL    HW257032   0.047   4.380   4.512
18420SOL     OW57033  10.535  11.804   0.862
18420SOL    HW157034  10.513  11.843   0.947
18420SOL    HW257035  10.472  11.841   0.801
18421SOL     OW57036  10.271   5.852   8.068
18421SOL    HW157037  10.258   5.947   8.071
18421SOL    HW257038  10.320   5.837   7.988
18422SOL     OW57039  10.325  13.065   8.655
18422SOL    HW157040  10.291  13.072   8.744
18422SOL    HW257041  10.418  13.087   8.664
18423SOL     OW57042   3.588  10.974   2.864
18423SOL    HW157043   3.627  10.951   2.948
18423SOL    HW257044   3.556  10.890   2.829
18424SOL     OW57045   0.719   7.659   1.527
18424SOL    HW157046   0.648   7.652   1.591
18424SOL    HW257047   0.695   7.598   1.458
18425SOL     OW57048   3.028   4.640   2.687
18425SOL    HW157049   2.940   4.674   2.700
18425SOL    HW257050   3.062   4.627   2.775
18426SOL     OW57051  14.756   9.889   2.421
18426SOL    HW157052  14.787   9.889   2.330
18426SOL    HW257053  14.677   9.944   2.420
18427SOL     OW57054   9.173   9.866   4.747
18427SOL    HW157055   9.162   9.796   4.812
18427SOL    HW257056   9.176   9.946   4.799
18428SOL     OW57057  14.374  11.978  10.084
18428SOL    HW157058  14.438  12.036  10.124
18428SOL    HW257059  14.425  11.902  10.054
18429SOL     OW57060   0.805   0.079   5.732
18429SOL    HW157061   0.766   0.006   5.685
18429SOL    HW257062   0.743   0.151   5.721
18430SOL     OW57063   8.075  13.762  12.812
18430SOL    HW157064   8.013  13.832  12.790
18430SOL    HW257065   8.157  13.788  12.770
18431SOL     OW57066  12.569   3.979   7.086
18431SOL    HW157067  12.590   4.041   7.017
18431SOL    HW257068  12.481   3.948   7.064
18432SOL     OW57069   1.313   3.143  12.296
18432SOL    HW157070   1.329   3.141  12.390
18432SOL    HW257071   1.269   3.060  12.278
18433SOL     OW57072   3.351   8.861   2.017
18433SOL    HW157073   3.261   8.833   2.002
18433SOL    HW257074   3.405   8.785   1.994
18434SOL     OW57075   3.744   2.614  13.046
18434SOL    HW157076   3.666   2.560  13.045
18434SOL    HW257077   3.816   2.553  13.027
18435SOL     OW57078  13.635   9.149  13.159
18435SOL    HW157079  13.579   9.223  13.135
18435SOL    HW257080  13.667   9.115  13.076
18436SOL     OW57081   6.136   8.918   4.525
18436SOL    HW157082   6.104   8.988   4.468
18436SOL    HW257083   6.057   8.886   4.570
18437SOL     OW57084   3.756  12.573  13.846
18437SOL    HW157085   3.807  12.505  13.888
18437SOL    HW257086   3.665  12.553  13.870
18438SOL     OW57087  13.183   2.536  13.233
18438SOL    HW157088  13.226   2.471  13.287
18438SOL    HW257089  13.205   2.512  13.143
18439SOL     OW57090   6.108   3.017   8.988
18439SOL    HW157091   6.180   2.956   9.006
18439SOL    HW257092   6.141   3.073   8.917
18440SOL     OW57093   3.204   7.887   1.635
18440SOL    HW157094   3.257   7.942   1.578
18440SOL    HW257095   3.153   7.833   1.575
18441SOL     OW57096   2.478  11.210   6.965
18441SOL    HW157097   2.438  11.161   6.892
18441SOL    HW257098   2.542  11.267   6.922
18442SOL     OW57099  13.441  14.402  13.918
18442SOL    HW157100  13.412  14.428  13.830
18442SOL    HW257101  13.510  14.338  13.903
18443SOL     OW57102   3.529  12.226   1.601
18443SOL    HW157103   3.525  12.131   1.598
18443SOL    HW257104   3.545  12.252   1.510
18444SOL     OW57105   5.311   6.360   7.819
18444SOL    HW157106   5.240   6.296   7.829
18444SOL    HW257107   5.315   6.405   7.903
18445SOL     OW57108   4.686   1.458   2.708
18445SOL    HW157109   4.686   1.381   2.651
18445SOL    HW257110   4.703   1.531   2.649
18446SOL     OW57111  10.284  14.604  10.997
18446SOL    HW157112  10.376  14.613  11.025
18446SOL    HW257113  10.234  14.620  11.077
18447SOL     OW57114   6.595   1.919   7.174
18447SOL    HW157115   6.526   1.900   7.237
18447SOL    HW257116   6.674   1.880   7.212
18448SOL     OW57117   4.111  12.302   3.256
18448SOL    HW157118   4.159  12.377   3.223
18448SOL    HW257119   4.022  12.335   3.270
18449SOL     OW57120   7.660   2.542   4.239
18449SOL    HW157121   7.693   2.594   4.313
18449SOL    HW257122   7.737   2.528   4.184
18450SOL     OW57123   5.866  14.438  14.749
18450SOL    HW157124   5.909  14.371  14.696
18450SOL    HW257125   5.772  14.427  14.731
18451SOL     OW57126  11.169  13.000   2.796
18451SOL    HW157127  11.241  13.047   2.837
18451SOL    HW257128  11.188  12.908   2.812
18452SOL     OW57129   6.479  12.914   1.889
18452SOL    HW157130   6.466  12.927   1.983
18452SOL    HW257131   6.565  12.873   1.882
18453SOL     OW57132  10.672  10.452   7.036
18453SOL    HW157133  10.736  10.517   7.063
18453SOL    HW257134  10.621  10.495   6.967
18454SOL     OW57135  11.077   0.598   3.605
18454SOL    HW157136  11.124   0.553   3.535
18454SOL    HW257137  10.996   0.628   3.565
18455SOL     OW57138  11.693  12.011  12.044
18455SOL    HW157139  11.602  11.981  12.042
18455SOL    HW257140  11.686  12.104  12.067
18456SOL     OW57141   7.526   6.881  13.875
18456SOL    HW157142   7.486   6.819  13.936
18456SOL    HW257143   7.579   6.939  13.930
18457SOL     OW57144   3.502   5.934   8.315
18457SOL    HW157145   3.597   5.942   8.315
18457SOL    HW257146   3.475   5.979   8.234
18458SOL     OW57147  11.567   3.673   5.184
18458SOL    HW157148  11.504   3.745   5.186
18458SOL    HW257149  11.587   3.656   5.276
18459SOL     OW57150  12.563  14.379   5.254
18459SOL    HW157151  12.486  14.334   5.219
18459SOL    HW257152  12.577  14.453   5.196
18460SOL     OW57153   3.354   0.025   2.286
18460SOL    HW157154   3.367   0.112   2.249
18460SOL    HW257155   3.353  14.848   2.211
18461SOL     OW57156  10.028   2.146  11.930
18461SOL    HW157157   9.957   2.198  11.968
18461SOL    HW257158  10.066   2.203  11.864
18462SOL     OW57159  13.935   2.123   3.204
18462SOL    HW157160  13.902   2.035   3.185
18462SOL    HW257161  13.857   2.176   3.216
18463SOL     OW57162  11.243   5.434  10.314
18463SOL    HW157163  11.156   5.473  10.319
18463SOL    HW257164  11.303   5.507  10.332
18464SOL     OW57165   2.572   7.821   6.037
18464SOL    HW157166   2.602   7.730   6.036
18464SOL    HW257167   2.647   7.871   6.004
18465SOL     OW57168   9.222   9.475  10.671
18465SOL    HW157169   9.204   9.568  10.655
18465SOL    HW257170   9.220   9.436  10.583
18466SOL     OW57171   4.389   6.333   7.014
18466SOL    HW157172   4.342   6.280   6.950
18466SOL    HW257173   4.468   6.361   6.969
18467SOL     OW57174   5.394   6.841   7.485
18467SOL    HW157175   5.437   6.861   7.401
18467SOL    HW257176   5.387   6.746   7.486
18468SOL     OW57177   7.456   8.362  11.725
18468SOL    HW157178   7.415   8.313  11.654
18468SOL    HW257179   7.383   8.392  11.779
18469SOL     OW57180  13.989  14.790  12.586
18469SOL    HW157181  14.063  14.778  12.526
18469SOL    HW257182  13.950  14.873  12.558
18470SOL     OW57183   0.725  10.693   2.914
18470SOL    HW157184   0.766  10.773   2.882
18470SOL    HW257185   0.678  10.658   2.838
18471SOL     OW57186   9.342  13.190   2.004
18471SOL    HW157187   9.341  13.219   1.913
18471SOL    HW257188   9.332  13.270   2.055
18472SOL     OW57189   6.046   8.083   9.947
18472SOL    HW157190   6.122   8.121   9.990
18472SOL    HW257191   5.986   8.061  10.018
18473SOL     OW57192  11.766  13.897   9.150
18473SOL    HW157193  11.696  13.947   9.108
18473SOL    HW257194  11.754  13.808   9.117
18474SOL     OW57195  12.825   1.425   3.889
18474SOL    HW157196  12.911   1.465   3.904
18474SOL    HW257197  12.768   1.498   3.866
18475SOL     OW57198  13.932   1.775  11.031
18475SOL    HW157199  14.022   1.781  11.064
18475SOL    HW257200  13.920   1.682  11.011
18476SOL     OW57201   7.460   9.697   0.683
18476SOL    HW157202   7.442   9.664   0.595
18476SOL    HW257203   7.423   9.786   0.683
18477SOL     OW57204   0.399  13.407  10.692
18477SOL    HW157205   0.474  13.439  10.641
18477SOL    HW257206   0.438  13.351  10.759
18478SOL     OW57207   1.550   5.238   2.242
18478SOL    HW157208   1.462   5.273   2.257
18478SOL    HW257209   1.540   5.143   2.251
18479SOL     OW57210  13.299   9.969   2.060
18479SOL    HW157211  13.258   9.884   2.075
18479SOL    HW257212  13.318  10.002   2.148
18480SOL     OW57213   1.509  11.156   5.159
18480SOL    HW157214   1.459  11.222   5.207
18480SOL    HW257215   1.443  11.097   5.123
18481SOL     OW57216   1.192   9.367   3.377
18481SOL    HW157217   1.102   9.337   3.358
18481SOL    HW257218   1.230   9.296   3.428
18482SOL     OW57219  12.233  13.554  10.575
18482SOL    HW157220  12.249  13.461  10.587
18482SOL    HW257221  12.262  13.594  10.657
18483SOL     OW57222   4.289   6.077   6.352
18483SOL    HW157223   4.371   6.027   6.343
18483SOL    HW257224   4.235   6.048   6.279
18484SOL     OW57225   0.333  14.840  10.766
18484SOL    HW157226   0.293  14.865  10.683
18484SOL    HW257227   0.426  14.828  10.746
18485SOL     OW57228   1.367   9.398   4.897
18485SOL    HW157229   1.338   9.335   4.831
18485SOL    HW257230   1.406   9.469   4.846
18486SOL     OW57231   5.634   4.760   8.027
18486SOL    HW157232   5.694   4.707   8.080
18486SOL    HW257233   5.676   4.764   7.941
18487SOL     OW57234   6.642   5.609   7.232
18487SOL    HW157235   6.613   5.561   7.309
18487SOL    HW257236   6.716   5.559   7.199
18488SOL     OW57237   2.918  10.354  10.473
18488SOL    HW157238   2.956  10.382  10.557
18488SOL    HW257239   2.890  10.435  10.431
18489SOL     OW57240  12.104   2.345  10.048
18489SOL    HW157241  12.053   2.417  10.084
18489SOL    HW257242  12.194   2.375  10.051
18490SOL     OW57243  14.287   1.363   6.959
18490SOL    HW157244  14.380   1.383   6.973
18490SOL    HW257245  14.284   1.326   6.871
18491SOL     OW57246  13.994  10.541  11.491
18491SOL    HW157247  14.067  10.482  11.507
18491SOL    HW257248  13.967  10.522  11.401
18492SOL     OW57249  11.318   0.252   6.900
18492SOL    HW157250  11.235   0.216   6.869
18492SOL    HW257251  11.380   0.236   6.828
18493SOL     OW57252   3.438   8.554  13.288
18493SOL    HW157253   3.532   8.571  13.292
18493SOL    HW257254   3.399   8.629  13.333
18494SOL     OW57255  13.695   3.509  14.179
18494SOL    HW157256  13.693   3.414  14.182
18494SOL    HW257257  13.642   3.532  14.102
18495SOL     OW57258   6.572   2.825   5.769
18495SOL    HW157259   6.549   2.889   5.836
18495SOL    HW257260   6.619   2.876   5.702
18496SOL     OW57261   7.974  12.789   4.923
18496SOL    HW157262   8.037  12.821   4.859
18496SOL    HW257263   7.927  12.719   4.878
18497SOL     OW57264   8.540   3.345  10.341
18497SOL    HW157265   8.505   3.421  10.386
18497SOL    HW257266   8.609   3.312  10.399
18498SOL     OW57267   7.218  13.750   9.090
18498SOL    HW157268   7.205  13.656   9.079
18498SOL    HW257269   7.223  13.784   9.001
18499SOL     OW57270  10.000  10.065   0.588
18499SOL    HW157271  10.095  10.071   0.583
18499SOL    HW257272   9.977   9.995   0.527
18500SOL     OW57273   3.054   6.808   2.851
18500SOL    HW157274   3.058   6.889   2.800
18500SOL    HW257275   2.963   6.779   2.842
18501SOL     OW57276   1.612   0.982   2.679
18501SOL    HW157277   1.532   1.026   2.650
18501SOL    HW257278   1.582   0.902   2.721
18502SOL     OW57279  12.825   5.381  12.089
18502SOL    HW157280  12.774   5.461  12.079
18502SOL    HW257281  12.914   5.406  12.064
18503SOL     OW57282   8.872  11.497  11.861
18503SOL    HW157283   8.925  11.436  11.913
18503SOL    HW257284   8.802  11.525  11.920
18504SOL     OW57285  12.967  11.272  12.605
18504SOL    HW157286  12.966  11.202  12.540
18504SOL    HW257287  13.058  11.279  12.632
18505SOL     OW57288  14.295   9.379  10.745
18505SOL    HW157289  14.377   9.365  10.696
18505SOL    HW257290  14.227   9.380  10.677
18506SOL     OW57291   8.500  10.515  12.866
18506SOL    HW157292   8.421  10.504  12.919
18506SOL    HW257293   8.472  10.569  12.792
18507SOL     OW57294   6.532   3.668  14.035
18507SOL    HW157295   6.588   3.720  14.092
18507SOL    HW257296   6.579   3.664  13.952
18508SOL     OW57297   4.198   2.150   8.470
18508SOL    HW157298   4.283   2.155   8.428
18508SOL    HW257299   4.144   2.212   8.422
18509SOL     OW57300   1.216  12.520  12.284
18509SOL    HW157301   1.202  12.614  12.268
18509SOL    HW257302   1.283  12.495  12.221
18510SOL     OW57303  14.002   3.270   6.023
18510SOL    HW157304  14.059   3.193   6.011
18510SOL    HW257305  14.061   3.345   6.013
18511SOL     OW57306  12.170   9.128   3.138
18511SOL    HW157307  12.104   9.179   3.184
18511SOL    HW257308  12.251   9.141   3.188
18512SOL     OW57309  13.802   9.259  13.367
18512SOL    HW157310  13.810   9.309  13.286
18512SOL    HW257311  13.718   9.215  13.359
18513SOL     OW57312  14.309   5.663   1.428
18513SOL    HW157313  14.362   5.655   1.508
18513SOL    HW257314  14.277   5.753   1.429
18514SOL     OW57315   2.776  14.741   6.789
18514SOL    HW157316   2.820  14.662   6.822
18514SOL    HW257317   2.848  14.799   6.765
18515SOL     OW57318   1.476   3.705   8.844
18515SOL    HW157319   1.418   3.781   8.850
18515SOL    HW257320   1.494   3.681   8.935
18516SOL     OW57321  11.974   7.105  12.416
18516SOL    HW157322  11.980   7.022  12.368
18516SOL    HW257323  11.881   7.128  12.413
18517SOL     OW57324   8.172  11.721   1.284
18517SOL    HW157325   8.206  11.700   1.371
18517SOL    HW257326   8.188  11.642   1.233
18518SOL     OW57327   3.432   4.033   4.955
18518SOL    HW157328   3.421   3.948   4.998
18518SOL    HW257329   3.343   4.068   4.950
18519SOL     OW57330  10.134   1.380   3.599
18519SOL    HW157331  10.107   1.456   3.547
18519SOL    HW257332  10.218   1.405   3.637
18520SOL     OW57333   3.095   3.821   9.543
18520SOL    HW157334   3.169   3.769   9.510
18520SOL    HW257335   3.115   3.835   9.635
18521SOL     OW57336  12.620  14.621   5.966
18521SOL    HW157337  12.639  14.530   5.986
18521SOL    HW257338  12.694  14.670   6.002
18522SOL     OW57339  10.492   3.452  13.762
18522SOL    HW157340  10.491   3.538  13.719
18522SOL    HW257341  10.411   3.410  13.733
18523SOL     OW57342   4.772   1.030  14.787
18523SOL    HW157343   4.780   1.105  14.728
18523SOL    HW257344   4.678   1.014  14.794
18524SOL     OW57345   8.549   9.682   6.869
18524SOL    HW157346   8.476   9.696   6.808
18524SOL    HW257347   8.624   9.662   6.813
18525SOL     OW57348   6.476   0.820   0.409
18525SOL    HW157349   6.522   0.846   0.489
18525SOL    HW257350   6.395   0.778   0.440
18526SOL     OW57351   4.259  12.666  10.356
18526SOL    HW157352   4.293  12.698  10.273
18526SOL    HW257353   4.337  12.648  10.409
18527SOL     OW57354   6.931  12.227   8.013
18527SOL    HW157355   6.949  12.146   7.965
18527SOL    HW257356   7.017  12.259   8.038
18528SOL     OW57357   8.855   5.134   9.929
18528SOL    HW157358   8.891   5.144  10.017
18528SOL    HW257359   8.925   5.164   9.871
18529SOL     OW57360   8.758   9.022   8.956
18529SOL    HW157361   8.815   8.945   8.958
18529SOL    HW257362   8.760   9.056   9.046
18530SOL     OW57363  11.650  12.843  13.389
18530SOL    HW157364  11.716  12.776  13.409
18530SOL    HW257365  11.566  12.799  13.403
18531SOL     OW57366   5.032   7.386   4.374
18531SOL    HW157367   5.119   7.361   4.405
18531SOL    HW257368   5.029   7.356   4.283
18532SOL     OW57369   4.365   4.977  12.486
18532SOL    HW157370   4.339   5.069  12.474
18532SOL    HW257371   4.307   4.928  12.428
18533SOL     OW57372  12.726   2.079   2.357
18533SOL    HW157373  12.686   2.155   2.315
18533SOL    HW257374  12.686   2.075   2.444
18534SOL     OW57375   5.777   1.613   6.961
18534SOL    HW157376   5.817   1.641   7.043
18534SOL    HW257377   5.703   1.559   6.987
18535SOL     OW57378   0.274  13.945  11.528
18535SOL    HW157379   0.184  13.924  11.502
18535SOL    HW257380   0.291  13.889  11.604
18536SOL     OW57381  11.616  13.663   9.086
18536SOL    HW157382  11.582  13.581   9.049
18536SOL    HW257383  11.609  13.650   9.181
18537SOL     OW57384   6.975   3.212  10.301
18537SOL    HW157385   6.934   3.299  10.302
18537SOL    HW257386   7.000   3.199  10.209
18538SOL     OW57387  11.239   9.655   3.274
18538SOL    HW157388  11.311   9.598   3.247
18538SOL    HW257389  11.277   9.712   3.341
18539SOL     OW57390   6.903   4.547   5.728
18539SOL    HW157391   6.863   4.470   5.768
18539SOL    HW257392   6.997   4.530   5.734
18540SOL     OW57393   7.727   0.427   4.282
18540SOL    HW157394   7.733   0.520   4.306
18540SOL    HW257395   7.807   0.388   4.317
18541SOL     OW57396  10.155  10.200   5.971
18541SOL    HW157397  10.179  10.167   6.058
18541SOL    HW257398  10.210  10.277   5.959
18542SOL     OW57399   7.425   3.905   3.551
18542SOL    HW157400   7.368   3.863   3.485
18542SOL    HW257401   7.458   3.832   3.603
18543SOL     OW57402   6.742   6.274   3.057
18543SOL    HW157403   6.811   6.321   3.103
18543SOL    HW257404   6.726   6.325   2.978
18544SOL     OW57405  14.476  14.578   1.997
18544SOL    HW157406  14.567  14.572   2.028
18544SOL    HW257407  14.462  14.499   1.945
18545SOL     OW57408  12.750   6.440   2.077
18545SOL    HW157409  12.715   6.443   1.988
18545SOL    HW257410  12.845   6.442   2.065
18546SOL     OW57411   1.220   8.273   8.688
18546SOL    HW157412   1.277   8.324   8.744
18546SOL    HW257413   1.245   8.298   8.599
18547SOL     OW57414   7.568   2.502   4.823
18547SOL    HW157415   7.504   2.505   4.752
18547SOL    HW257416   7.631   2.435   4.797
18548SOL     OW57417  12.149   1.818  11.291
18548SOL    HW157418  12.217   1.751  11.302
18548SOL    HW257419  12.184   1.895  11.337
18549SOL     OW57420   3.828   1.685   6.360
18549SOL    HW157421   3.807   1.607   6.309
18549SOL    HW257422   3.923   1.690   6.360
18550SOL     OW57423   1.842  12.316   7.338
18550SOL    HW157424   1.895  12.390   7.307
18550SOL    HW257425   1.786  12.294   7.263
18551SOL     OW57426   1.855  10.932  11.101
18551SOL    HW157427   1.824  11.016  11.136
18551SOL    HW257428   1.804  10.866  11.148
18552SOL     OW57429  11.445   1.955  11.045
18552SOL    HW157430  11.458   2.001  10.962
18552SOL    HW257431  11.373   1.895  11.028
18553SOL     OW57432   9.039   4.927   9.744
18553SOL    HW157433   9.049   4.987   9.670
18553SOL    HW257434   8.945   4.908   9.746
18554SOL     OW57435  11.227   2.766   6.342
18554SOL    HW157436  11.251   2.794   6.254
18554SOL    HW257437  11.238   2.843   6.397
18555SOL     OW57438  12.553   3.613   2.266
18555SOL    HW157439  12.634   3.640   2.310
18555SOL    HW257440  12.531   3.688   2.210
18556SOL     OW57441   8.182   5.013   4.237
18556SOL    HW157442   8.186   4.976   4.325
18556SOL    HW257443   8.129   4.951   4.187
18557SOL     OW57444   5.698   4.395   4.097
18557SOL    HW157445   5.617   4.431   4.134
18557SOL    HW257446   5.671   4.311   4.060
18558SOL     OW57447   5.011   1.647   8.557
18558SOL    HW157448   5.056   1.732   8.553
18558SOL    HW257449   4.918   1.670   8.554
18559SOL     OW57450   7.424  11.264   3.315
18559SOL    HW157451   7.478  11.231   3.386
18559SOL    HW257452   7.485  11.275   3.242
18560SOL     OW57453  11.909   9.873   5.286
18560SOL    HW157454  11.827   9.824   5.286
18560SOL    HW257455  11.934   9.879   5.193
18561SOL     OW57456  12.929   9.882  13.560
18561SOL    HW157457  12.892   9.793  13.554
18561SOL    HW257458  12.972   9.895  13.476
18562SOL     OW57459  10.269   2.295   2.194
18562SOL    HW157460  10.185   2.285   2.240
18562SOL    HW257461  10.335   2.274   2.260
18563SOL     OW57462   5.074   2.402   2.792
18563SOL    HW157463   5.043   2.471   2.851
18563SOL    HW257464   5.169   2.413   2.789
18564SOL     OW57465   8.455   9.407  10.059
18564SOL    HW157466   8.459   9.330  10.001
18564SOL    HW257467   8.439   9.370  10.146
18565SOL     OW57468  10.059   1.834   6.727
18565SOL    HW157469  10.069   1.740   6.714
18565SOL    HW257470  10.055   1.870   6.638
18566SOL     OW57471   1.323   1.836   8.827
18566SOL    HW157472   1.263   1.858   8.898
18566SOL    HW257473   1.355   1.748   8.849
18567SOL     OW57474   7.464  12.104  14.548
18567SOL    HW157475   7.428  12.050  14.477
18567SOL    HW257476   7.535  12.051  14.585
18568SOL     OW57477  14.204   8.736  13.132
18568SOL    HW157478  14.163   8.766  13.051
18568SOL    HW257479  14.146   8.769  13.201
18569SOL     OW57480   1.923  14.492   1.658
18569SOL    HW157481   1.873  14.415   1.684
18569SOL    HW257482   1.858  14.550   1.618
18570SOL     OW57483   4.275   6.201   0.709
18570SOL    HW157484   4.309   6.141   0.644
18570SOL    HW257485   4.180   6.199   0.696
18571SOL     OW57486   6.918   7.958  12.675
18571SOL    HW157487   6.926   7.890  12.742
18571SOL    HW257488   6.836   8.002  12.695
18572SOL     OW57489   8.591   3.379  11.939
18572SOL    HW157490   8.615   3.391  11.847
18572SOL    HW257491   8.655   3.432  11.987
18573SOL     OW57492   5.276   0.377   7.803
18573SOL    HW157493   5.368   0.403   7.812
18573SOL    HW257494   5.259   0.320   7.878
18574SOL     OW57495   7.279   5.830   0.813
18574SOL    HW157496   7.326   5.902   0.771
18574SOL    HW257497   7.287   5.849   0.907
18575SOL     OW57498  14.089   1.030  11.831
18575SOL    HW157499  14.141   1.009  11.754
18575SOL    HW257500  14.030   1.099  11.801
18576SOL     OW57501  13.771   2.565  11.331
18576SOL    HW157502  13.769   2.483  11.281
18576SOL    HW257503  13.744   2.539  11.419
18577SOL     OW57504  11.026   5.046   5.010
18577SOL    HW157505  10.998   5.116   4.951
18577SOL    HW257506  11.120   5.037   4.993
18578SOL     OW57507   6.227   7.089   4.218
18578SOL    HW157508   6.307   7.047   4.248
18578SOL    HW257509   6.194   7.135   4.295
18579SOL     OW57510  10.096   4.037   6.489
18579SOL    HW157511  10.186   4.052   6.460
18579SOL    HW257512  10.069   3.957   6.445
18580SOL     OW57513   9.172   0.265   3.514
18580SOL    HW157514   9.141   0.239   3.601
18580SOL    HW257515   9.095   0.256   3.458
18581SOL     OW57516   2.043   5.118   5.673
18581SOL    HW157517   1.972   5.070   5.717
18581SOL    HW257518   2.043   5.085   5.583
18582SOL     OW57519   4.082   7.615   2.969
18582SOL    HW157520   3.989   7.598   2.984
18582SOL    HW257521   4.124   7.598   3.053
18583SOL     OW57522  14.505   8.994   9.624
18583SOL    HW157523  14.487   9.061   9.558
18583SOL    HW257524  14.432   9.001   9.685
18584SOL     OW57525   7.224   5.438  13.468
18584SOL    HW157526   7.219   5.345  13.489
18584SOL    HW257527   7.251   5.479  13.551
18585SOL     OW57528  12.147   3.403   8.623
18585SOL    HW157529  12.066   3.372   8.663
18585SOL    HW257530  12.124   3.487   8.583
18586SOL     OW57531  10.983   9.699   0.566
18586SOL    HW157532  10.980   9.618   0.618
18586SOL    HW257533  11.064   9.741   0.592
18587SOL     OW57534  13.136   0.172   5.003
18587SOL    HW157535  13.089   0.089   5.014
18587SOL    HW257536  13.083   0.237   5.049
18588SOL     OW57537   8.839   7.254  11.527
18588SOL    HW157538   8.885   7.202  11.592
18588SOL    HW257539   8.906   7.276  11.461
18589SOL     OW57540   9.433   2.447   0.052
18589SOL    HW157541   9.444   2.370   0.107
18589SOL    HW257542   9.501   2.508   0.079
18590SOL     OW57543  11.418   4.750  11.234
18590SOL    HW157544  11.344   4.805  11.258
18590SOL    HW257545  11.382   4.687  11.171
18591SOL     OW57546   3.513  11.471   2.939
18591SOL    HW157547   3.561  11.543   2.980
18591SOL    HW257548   3.562  11.453   2.858
18592SOL     OW57549  14.521   1.813   2.405
18592SOL    HW157550  14.553   1.753   2.338
18592SOL    HW257551  14.594   1.825   2.464
18593SOL     OW57552   3.747  10.115  10.264
18593SOL    HW157553   3.664  10.068  10.271
18593SOL    HW257554   3.767  10.114  10.171
18594SOL     OW57555   7.571   7.732  11.880
18594SOL    HW157556   7.663   7.707  11.884
18594SOL    HW257557   7.540   7.695  11.797
18595SOL     OW57558  11.488  11.474  13.081
18595SOL    HW157559  11.421  11.491  13.147
18595SOL    HW257560  11.460  11.392  13.039
18596SOL     OW57561   9.533   3.345   1.757
18596SOL    HW157562   9.526   3.388   1.842
18596SOL    HW257563   9.549   3.253   1.777
18597SOL     OW57564  14.660   2.902   7.776
18597SOL    HW157565  14.711   2.923   7.854
18597SOL    HW257566  14.573   2.878   7.809
18598SOL     OW57567  12.606   4.778  12.195
18598SOL    HW157568  12.523   4.814  12.227
18598SOL    HW257569  12.584   4.690  12.166
18599SOL     OW57570  12.239   4.957   7.394
18599SOL    HW157571  12.256   5.018   7.466
18599SOL    HW257572  12.293   4.989   7.322
18600SOL     OW57573   4.694   0.298  14.566
18600SOL    HW157574   4.761   0.351  14.609
18600SOL    HW257575   4.657   0.244  14.635
18601SOL     OW57576   2.701  10.323  12.529
18601SOL    HW157577   2.638  10.385  12.565
18601SOL    HW257578   2.781  10.375  12.516
18602SOL     OW57579   7.834  13.306  13.809
18602SOL    HW157580   7.762  13.271  13.758
18602SOL    HW257581   7.849  13.394  13.773
18603SOL     OW57582   0.489  11.197   8.071
18603SOL    HW157583   0.447  11.171   7.989
18603SOL    HW257584   0.475  11.291   8.076
18604SOL     OW57585   7.343  12.346   5.589
18604SOL    HW157586   7.315  12.435   5.565
18604SOL    HW257587   7.433  12.340   5.556
18605SOL     OW57588  14.698  13.240  10.049
18605SOL    HW157589  14.760  13.171  10.025
18605SOL    HW257590  14.668  13.216  10.137
18606SOL     OW57591  10.199   1.230   1.065
18606SOL    HW157592  10.241   1.181   0.994
18606SOL    HW257593  10.167   1.163   1.125
18607SOL     OW57594   8.982  13.874  10.897
18607SOL    HW157595   8.937  13.896  10.978
18607SOL    HW257596   8.936  13.796  10.864
18608SOL     OW57597   6.532   2.874  14.016
18608SOL    HW157598   6.528   2.780  14.036
18608SOL    HW257599   6.604   2.882  13.954
18609SOL     OW57600   1.560   0.179   4.187
18609SOL    HW157601   1.546   0.208   4.097
18609SOL    HW257602   1.473   0.152   4.217
18610SOL     OW57603  12.335   3.608   7.361
18610SOL    HW157604  12.413   3.562   7.332
18610SOL    HW257605  12.262   3.553   7.333
18611SOL     OW57606   2.291   0.744   7.879
18611SOL    HW157607   2.259   0.678   7.817
18611SOL    HW257608   2.362   0.788   7.832
18612SOL     OW57609  11.563   0.303  13.087
18612SOL    HW157610  11.579   0.397  13.092
18612SOL    HW257611  11.633   0.264  13.139
18613SOL     OW57612  11.785   9.816   8.871
18613SOL    HW157613  11.763   9.736   8.825
18613SOL    HW257614  11.725   9.818   8.946
18614SOL     OW57615   1.547  14.280   3.672
18614SOL    HW157616   1.578  14.277   3.762
18614SOL    HW257617   1.606  14.341   3.628
18615SOL     OW57618   7.315   9.923  10.214
18615SOL    HW157619   7.292   9.837  10.177
18615SOL    HW257620   7.370   9.902  10.290
18616SOL     OW57621   1.373  14.740   7.738
18616SOL    HW157622   1.283  14.755   7.707
18616SOL    HW257623   1.386  14.646   7.730
18617SOL     OW57624  10.096  12.241   7.387
18617SOL    HW157625  10.160  12.256   7.456
18617SOL    HW257626  10.063  12.152   7.404
18618SOL     OW57627   8.459  10.578  12.583
18618SOL    HW157628   8.378  10.589  12.534
18618SOL    HW257629   8.527  10.614  12.525
18619SOL     OW57630  13.738   9.860   7.787
18619SOL    HW157631  13.664   9.897   7.740
18619SOL    HW257632  13.706   9.776   7.819
18620SOL     OW57633   9.961   3.594   7.656
18620SOL    HW157634   9.882   3.646   7.673
18620SOL    HW257635   9.991   3.622   7.570
18621SOL     OW57636   9.133  12.746   6.773
18621SOL    HW157637   9.110  12.784   6.688
18621SOL    HW257638   9.226  12.725   6.766
18622SOL     OW57639   5.877   1.666   3.308
18622SOL    HW157640   5.816   1.662   3.234
18622SOL    HW257641   5.963   1.667   3.268
18623SOL     OW57642  12.357   0.398   7.032
18623SOL    HW157643  12.450   0.419   7.036
18623SOL    HW257644  12.314   0.479   7.006
18624SOL     OW57645  13.553   8.422   7.248
18624SOL    HW157646  13.537   8.408   7.342
18624SOL    HW257647  13.648   8.433   7.241
18625SOL     OW57648   5.060   0.375   0.053
18625SOL    HW157649   5.045   0.438   0.124
18625SOL    HW257650   5.144   0.334   0.075
18626SOL     OW57651   7.323   1.392  13.716
18626SOL    HW157652   7.286   1.367  13.632
18626SOL    HW257653   7.407   1.434  13.694
18627SOL     OW57654   6.133  14.001   1.664
18627SOL    HW157655   6.103  13.935   1.727
18627SOL    HW257656   6.225  14.015   1.686
18628SOL     OW57657   9.579   6.746   0.093
18628SOL    HW157658   9.519   6.775   0.024
18628SOL    HW257659   9.590   6.652   0.077
18629SOL     OW57660   3.808   8.309  12.288
18629SOL    HW157661   3.765   8.369  12.349
18629SOL    HW257662   3.791   8.346  12.202
18630SOL     OW57663   0.429   3.922   1.185
18630SOL    HW157664   0.376   3.869   1.126
18630SOL    HW257665   0.469   3.989   1.130
18631SOL     OW57666   7.926  12.263  10.254
18631SOL    HW157667   8.006  12.211  10.262
18631SOL    HW257668   7.877  12.244  10.333
18632SOL     OW57669   9.071  14.514   7.278
18632SOL    HW157670   9.166  14.505   7.282
18632SOL    HW257671   9.055  14.608   7.274
18633SOL     OW57672   3.581   4.716   1.435
18633SOL    HW157673   3.489   4.723   1.412
18633SOL    HW257674   3.627   4.766   1.368
18634SOL     OW57675  12.268  12.025   3.219
18634SOL    HW157676  12.353  12.021   3.175
18634SOL    HW257677  12.215  12.084   3.165
18635SOL     OW57678   2.292   4.081   1.254
18635SOL    HW157679   2.305   3.991   1.223
18635SOL    HW257680   2.375   4.125   1.233
18636SOL     OW57681   7.078  12.677   7.527
18636SOL    HW157682   7.145  12.610   7.533
18636SOL    HW257683   7.039  12.665   7.440
18637SOL     OW57684   1.860  11.863   5.924
18637SOL    HW157685   1.918  11.791   5.898
18637SOL    HW257686   1.918  11.927   5.965
18638SOL     OW57687   6.454   4.064   6.923
18638SOL    HW157688   6.497   3.991   6.879
18638SOL    HW257689   6.498   4.069   7.008
18639SOL     OW57690   3.943   4.189   8.028
18639SOL    HW157691   3.958   4.279   8.057
18639SOL    HW257692   4.020   4.141   8.058
18640SOL     OW57693  11.734  11.843   5.814
18640SOL    HW157694  11.771  11.755   5.806
18640SOL    HW257695  11.777  11.893   5.745
18641SOL     OW57696  13.538   3.821   7.250
18641SOL    HW157697  13.535   3.840   7.156
18641SOL    HW257698  13.513   3.728   7.256
18642SOL     OW57699   9.453  12.842  12.820
18642SOL    HW157700   9.414  12.922  12.853
18642SOL    HW257701   9.494  12.867  12.737
18643SOL     OW57702   4.088   6.373   5.613
18643SOL    HW157703   4.052   6.307   5.672
18643SOL    HW257704   4.083   6.455   5.662
18644SOL     OW57705   1.308   4.558  11.470
18644SOL    HW157706   1.217   4.586  11.483
18644SOL    HW257707   1.352   4.635  11.436
18645SOL     OW57708  11.556   5.811   2.839
18645SOL    HW157709  11.534   5.902   2.859
18645SOL    HW257710  11.479   5.777   2.795
18646SOL     OW57711   4.243  14.051   4.480
18646SOL    HW157712   4.248  14.029   4.573
18646SOL    HW257713   4.329  14.028   4.445
18647SOL     OW57714   4.243   7.643   1.755
18647SOL    HW157715   4.251   7.648   1.660
18647SOL    HW257716   4.179   7.574   1.771
18648SOL     OW57717   7.837   1.325   2.779
18648SOL    HW157718   7.771   1.301   2.844
18648SOL    HW257719   7.792   1.314   2.695
18649SOL     OW57720   4.280   8.995  12.850
18649SOL    HW157721   4.317   9.001  12.762
18649SOL    HW257722   4.309   9.074  12.894
18650SOL     OW57723   8.357  14.433  10.304
18650SOL    HW157724   8.447  14.436  10.272
18650SOL    HW257725   8.355  14.496  10.376
18651SOL     OW57726  11.834   0.049   6.322
18651SOL    HW157727  11.871   0.138   6.319
18651SOL    HW257728  11.900  14.880   6.369
18652SOL     OW57729   2.702  13.152   9.824
18652SOL    HW157730   2.674  13.100   9.749
18652SOL    HW257731   2.696  13.243   9.794
18653SOL     OW57732   0.630   3.503   7.019
18653SOL    HW157733   0.616   3.464   6.933
18653SOL    HW257734   0.569   3.458   7.077
18654SOL     OW57735  10.884  13.379   2.187
18654SOL    HW157736  10.843  13.313   2.243
18654SOL    HW257737  10.952  13.417   2.242
18655SOL     OW57738   4.888  13.422   9.005
18655SOL    HW157739   4.800  13.384   9.000
18655SOL    HW257740   4.906  13.453   8.917
18656SOL     OW57741   3.541  14.108   7.232
18656SOL    HW157742   3.636  14.110   7.243
18656SOL    HW257743   3.507  14.128   7.319
18657SOL     OW57744  13.104   5.743  13.573
18657SOL    HW157745  13.059   5.744  13.658
18657SOL    HW257746  13.143   5.656  13.568
18658SOL     OW57747   5.604   6.028   9.973
18658SOL    HW157748   5.576   6.115  10.001
18658SOL    HW257749   5.631   5.985  10.054
18659SOL     OW57750   3.807   4.912  11.091
18659SOL    HW157751   3.753   4.834  11.104
18659SOL    HW257752   3.761   4.982  11.138
18660SOL     OW57753   2.966  12.830  12.497
18660SOL    HW157754   3.008  12.890  12.558
18660SOL    HW257755   2.959  12.747  12.546
18661SOL     OW57756   5.230   8.792   9.100
18661SOL    HW157757   5.244   8.881   9.133
18661SOL    HW257758   5.148   8.764   9.142
18662SOL     OW57759   7.441  13.460  11.933
18662SOL    HW157760   7.352  13.425  11.920
18662SOL    HW257761   7.428  13.555  11.934
18663SOL     OW57762   5.269   2.647  10.229
18663SOL    HW157763   5.233   2.590  10.161
18663SOL    HW257764   5.200   2.711  10.246
18664SOL     OW57765  12.193   4.263  14.011
18664SOL    HW157766  12.162   4.280  13.922
18664SOL    HW257767  12.140   4.188  14.040
18665SOL     OW57768   5.099   8.040   2.716
18665SOL    HW157769   5.167   7.988   2.672
18665SOL    HW257770   5.146   8.084   2.786
18666SOL     OW57771  11.826  10.000   5.626
18666SOL    HW157772  11.802  10.056   5.699
18666SOL    HW257773  11.746   9.994   5.573
18667SOL     OW57774   1.853   7.382   6.693
18667SOL    HW157775   1.882   7.366   6.783
18667SOL    HW257776   1.835   7.476   6.689
18668SOL     OW57777  13.986   4.594  12.198
18668SOL    HW157778  13.934   4.664  12.159
18668SOL    HW257779  14.075   4.612  12.171
18669SOL     OW57780   2.256   3.070  13.896
18669SOL    HW157781   2.263   3.010  13.822
18669SOL    HW257782   2.255   3.013  13.973
18670SOL     OW57783   4.393  12.381  13.743
18670SOL    HW157784   4.465  12.329  13.707
18670SOL    HW257785   4.386  12.353  13.834
18671SOL     OW57786   0.482  10.736   8.529
18671SOL    HW157787   0.512  10.824   8.507
18671SOL    HW257788   0.386  10.742   8.524
18672SOL     OW57789   1.276  10.980   6.382
18672SOL    HW157790   1.275  10.913   6.450
18672SOL    HW257791   1.351  11.036   6.404
18673SOL     OW57792   8.758  12.029   1.808
18673SOL    HW157793   8.730  11.938   1.802
18673SOL    HW257794   8.695  12.072   1.866
18674SOL     OW57795   0.069  12.228   8.307
18674SOL    HW157796   0.114  12.145   8.321
18674SOL    HW257797   0.010  12.211   8.233
18675SOL     OW57798  12.753  10.488   3.364
18675SOL    HW157799  12.806  10.559   3.399
18675SOL    HW257800  12.750  10.423   3.433
18676SOL     OW57801  13.089   1.684   7.272
18676SOL    HW157802  13.086   1.746   7.198
18676SOL    HW257803  13.180   1.687   7.302
18677SOL     OW57804   7.549   9.032   6.174
18677SOL    HW157805   7.584   8.962   6.230
18677SOL    HW257806   7.493   9.083   6.232
18678SOL     OW57807  10.792  10.506   6.137
18678SOL    HW157808  10.820  10.575   6.197
18678SOL    HW257809  10.835  10.427   6.170
18679SOL     OW57810  13.030  14.717  13.257
18679SOL    HW157811  13.057  14.661  13.330
18679SOL    HW257812  13.067  14.803  13.278
18680SOL     OW57813  11.544  13.076   7.373
18680SOL    HW157814  11.556  13.025   7.294
18680SOL    HW257815  11.612  13.144   7.369
18681SOL     OW57816   6.934   3.200   8.535
18681SOL    HW157817   6.991   3.123   8.538
18681SOL    HW257818   6.994   3.274   8.525
18682SOL     OW57819  10.562  10.643  14.237
18682SOL    HW157820  10.494  10.630  14.171
18682SOL    HW257821  10.527  10.603  14.316
18683SOL     OW57822  13.078  13.125  13.908
18683SOL    HW157823  13.078  13.151  13.816
18683SOL    HW257824  12.992  13.152  13.941
18684SOL     OW57825   3.995   5.716   4.886
18684SOL    HW157826   4.049   5.711   4.965
18684SOL    HW257827   3.957   5.628   4.878
18685SOL     OW57828   2.706   9.078   3.533
18685SOL    HW157829   2.718   9.025   3.611
18685SOL    HW257830   2.758   9.033   3.466
18686SOL     OW57831  10.089   3.017  12.296
18686SOL    HW157832  10.037   3.082  12.344
18686SOL    HW257833  10.075   2.935  12.344
18687SOL     OW57834   5.560  10.627   3.520
18687SOL    HW157835   5.641  10.675   3.537
18687SOL    HW257836   5.490  10.689   3.541
18688SOL     OW57837  13.336   4.152   1.049
18688SOL    HW157838  13.421   4.110   1.047
18688SOL    HW257839  13.326   4.191   0.962
18689SOL     OW57840  11.330   4.688   9.149
18689SOL    HW157841  11.384   4.668   9.226
18689SOL    HW257842  11.391   4.732   9.089
18690SOL     OW57843   8.646  10.518   2.434
18690SOL    HW157844   8.723  10.575   2.425
18690SOL    HW257845   8.595  10.535   2.355
18691SOL     OW57846   3.691   4.319   7.680
18691SOL    HW157847   3.611   4.282   7.642
18691SOL    HW257848   3.716   4.257   7.749
18692SOL     OW57849   0.176  11.261   4.969
18692SOL    HW157850   0.229  11.280   5.045
18692SOL    HW257851   0.189  11.336   4.911
18693SOL     OW57852  11.016   6.290   5.442
18693SOL    HW157853  11.106   6.270   5.468
18693SOL    HW257854  10.962   6.236   5.501
18694SOL     OW57855   3.831   3.141  13.331
18694SOL    HW157856   3.782   3.180  13.404
18694SOL    HW257857   3.798   3.185  13.254
18695SOL     OW57858   7.576  11.872  14.394
18695SOL    HW157859   7.625  11.932  14.337
18695SOL    HW257860   7.484  11.893  14.376
18696SOL     OW57861   5.672  11.197   9.688
18696SOL    HW157862   5.695  11.236   9.772
18696SOL    HW257863   5.739  11.227   9.628
18697SOL     OW57864   9.928   5.848   5.997
18697SOL    HW157865   9.977   5.874   6.075
18697SOL    HW257866   9.845   5.815   6.030
18698SOL     OW57867  10.974   0.193   9.272
18698SOL    HW157868  10.894   0.141   9.267
18698SOL    HW257869  10.946   0.282   9.254
18699SOL     OW57870  14.132   7.621  12.587
18699SOL    HW157871  14.146   7.706  12.628
18699SOL    HW257872  14.066   7.638  12.520
18700SOL     OW57873   0.569   7.934   1.698
18700SOL    HW157874   0.539   7.844   1.682
18700SOL    HW257875   0.515   7.988   1.639
18701SOL     OW57876  11.704   1.634   5.668
18701SOL    HW157877  11.746   1.638   5.754
18701SOL    HW257878  11.745   1.705   5.618
18702SOL     OW57879   2.410   1.622   4.305
18702SOL    HW157880   2.326   1.668   4.314
18702SOL    HW257881   2.385   1.534   4.276
18703SOL     OW57882   1.622   8.668   2.141
18703SOL    HW157883   1.657   8.646   2.054
18703SOL    HW257884   1.685   8.732   2.176
18704SOL     OW57885   2.365  10.127  12.162
18704SOL    HW157886   2.387  10.034  12.160
18704SOL    HW257887   2.432  10.169  12.110
18705SOL     OW57888  12.771   2.718   5.981
18705SOL    HW157889  12.743   2.657   6.049
18705SOL    HW257890  12.752   2.673   5.899
18706SOL     OW57891   8.936   9.110   6.273
18706SOL    HW157892   8.942   9.196   6.232
18706SOL    HW257893   8.906   9.052   6.202
18707SOL     OW57894   5.702  11.604   4.061
18707SOL    HW157895   5.742  11.539   4.118
18707SOL    HW257896   5.776  11.651   4.022
18708SOL     OW57897   9.318   9.579  14.796
18708SOL    HW157898   9.393   9.545  14.746
18708SOL    HW257899   9.316   9.526  14.876
18709SOL     OW57900   3.340   5.060  11.088
18709SOL    HW157901   3.268   5.117  11.061
18709SOL    HW257902   3.300   4.973  11.094
18710SOL     OW57903   0.714   6.094   5.410
18710SOL    HW157904   0.724   6.169   5.468
18710SOL    HW257905   0.695   6.132   5.324
18711SOL     OW57906  13.875   6.156   1.155
18711SOL    HW157907  13.942   6.129   1.093
18711SOL    HW257908  13.918   6.150   1.241
18712SOL     OW57909   0.253  14.205  11.432
18712SOL    HW157910   0.256  14.114  11.463
18712SOL    HW257911   0.335  14.216  11.384
18713SOL     OW57912   0.574   5.168  14.134
18713SOL    HW157913   0.488   5.197  14.164
18713SOL    HW257914   0.559   5.080  14.100
18714SOL     OW57915   6.470   0.389   4.936
18714SOL    HW157916   6.434   0.300   4.926
18714SOL    HW257917   6.412   0.444   4.882
18715SOL     OW57918  10.852   1.752   3.058
18715SOL    HW157919  10.939   1.792   3.064
18715SOL    HW257920  10.807   1.801   2.989
18716SOL     OW57921   1.894   7.801   4.767
18716SOL    HW157922   1.815   7.779   4.817
18716SOL    HW257923   1.868   7.875   4.713
18717SOL     OW57924  12.712   8.685   9.431
18717SOL    HW157925  12.801   8.691   9.396
18717SOL    HW257926  12.657   8.721   9.361
18718SOL     OW57927  12.265  12.968   8.768
18718SOL    HW157928  12.314  12.886   8.769
18718SOL    HW257929  12.308  13.021   8.701
18719SOL     OW57930  10.077   1.719   8.477
18719SOL    HW157931  10.074   1.800   8.425
18719SOL    HW257932  10.120   1.656   8.420
18720SOL     OW57933  10.772   0.853   2.651
18720SOL    HW157934  10.757   0.827   2.560
18720SOL    HW257935  10.865   0.876   2.654
18721SOL     OW57936   3.847   0.580   2.577
18721SOL    HW157937   3.934   0.602   2.611
18721SOL    HW257938   3.829   0.645   2.510
18722SOL     OW57939   8.384  13.272  13.713
18722SOL    HW157940   8.320  13.243  13.647
18722SOL    HW257941   8.399  13.194  13.767
18723SOL     OW57942   8.681   5.569  12.385
18723SOL    HW157943   8.759   5.550  12.333
18723SOL    HW257944   8.608   5.544  12.329
18724SOL     OW57945   2.544  14.719   2.379
18724SOL    HW157946   2.474  14.769   2.337
18724SOL    HW257947   2.601  14.786   2.418
18725SOL     OW57948  12.218   1.622  12.132
18725SOL    HW157949  12.244   1.581  12.214
18725SOL    HW257950  12.238   1.556  12.065
18726SOL     OW57951   1.658   7.608  12.823
18726SOL    HW157952   1.705   7.638  12.746
18726SOL    HW257953   1.723   7.559  12.873
18727SOL     OW57954   5.807  14.373   6.607
18727SOL    HW157955   5.797  14.334   6.694
18727SOL    HW257956   5.897  14.405   6.605
18728SOL     OW57957  11.730  12.705  13.067
18728SOL    HW157958  11.691  12.771  13.125
18728SOL    HW257959  11.656  12.653  13.036
18729SOL     OW57960   4.535   1.298   5.511
18729SOL    HW157961   4.539   1.305   5.607
18729SOL    HW257962   4.505   1.385   5.482
18730SOL     OW57963   0.838  10.809   2.311
18730SOL    HW157964   0.875  10.760   2.384
18730SOL    HW257965   0.818  10.896   2.347
18731SOL     OW57966   3.053   7.400   1.793
18731SOL    HW157967   3.059   7.494   1.804
18731SOL    HW257968   3.071   7.364   1.879
18732SOL     OW57969  11.750   3.735  13.269
18732SOL    HW157970  11.711   3.816  13.235
18732SOL    HW257971  11.755   3.677  13.194
18733SOL     OW57972   6.039   1.876   1.955
18733SOL    HW157973   6.064   1.962   1.988
18733SOL    HW257974   6.112   1.818   1.978
18734SOL     OW57975   7.695   8.829   2.572
18734SOL    HW157976   7.775   8.831   2.519
18734SOL    HW257977   7.714   8.763   2.639
18735SOL     OW57978   5.781   9.207   8.506
18735SOL    HW157979   5.717   9.144   8.475
18735SOL    HW257980   5.838   9.223   8.431
18736SOL     OW57981   4.567  14.222  11.558
18736SOL    HW157982   4.605  14.273  11.630
18736SOL    HW257983   4.621  14.143  11.553
18737SOL     OW57984   7.541  11.949   2.687
18737SOL    HW157985   7.527  11.955   2.592
18737SOL    HW257986   7.468  11.998   2.725
18738SOL     OW57987  10.113  11.646   7.499
18738SOL    HW157988  10.121  11.639   7.404
18738SOL    HW257989  10.173  11.580   7.533
18739SOL     OW57990   8.579   2.114   5.193
18739SOL    HW157991   8.651   2.073   5.241
18739SOL    HW257992   8.608   2.116   5.102
18740SOL     OW57993   6.162  14.546   4.026
18740SOL    HW157994   6.133  14.627   3.985
18740SOL    HW257995   6.100  14.480   3.995
18741SOL     OW57996  14.282  12.409   7.518
18741SOL    HW157997  14.358  12.402   7.460
18741SOL    HW257998  14.247  12.320   7.523
18742SOL     OW57999  11.993   0.471   1.193
18742SOL    HW158000  11.902   0.449   1.214
18742SOL    HW258001  12.043   0.395   1.221
18743SOL     OW58002  11.736  12.162  12.431
18743SOL    HW158003  11.730  12.153  12.527
18743SOL    HW258004  11.660  12.115  12.398
18744SOL     OW58005  14.583  10.609  10.543
18744SOL    HW158006  14.569  10.525  10.587
18744SOL    HW258007  14.562  10.593  10.451
18745SOL     OW58008   9.886  10.411   5.055
18745SOL    HW158009   9.806  10.379   5.013
18745SOL    HW258010   9.886  10.369   5.141
18746SOL     OW58011   2.392   7.098   3.550
18746SOL    HW158012   2.435   7.169   3.503
18746SOL    HW258013   2.400   7.022   3.492
18747SOL     OW58014   1.544  13.763   6.094
18747SOL    HW158015   1.463  13.713   6.110
18747SOL    HW258016   1.594  13.754   6.175
18748SOL     OW58017   4.416  11.046  10.567
18748SOL    HW158018   4.347  11.075  10.509
18748SOL    HW258019   4.496  11.083  10.530
18749SOL     OW58020   2.006   0.546   6.451
18749SOL    HW158021   1.950   0.612   6.409
18749SOL    HW258022   2.031   0.488   6.379
18750SOL     OW58023   3.724   3.203  12.337
18750SOL    HW158024   3.674   3.126  12.367
18750SOL    HW258025   3.657   3.270  12.321
18751SOL     OW58026   2.508   3.065  12.988
18751SOL    HW158027   2.573   3.003  12.957
18751SOL    HW258028   2.451   3.080  12.913
18752SOL     OW58029  11.931  12.248   7.245
18752SOL    HW158030  11.836  12.262   7.243
18752SOL    HW258031  11.948  12.188   7.172
18753SOL     OW58032   3.387  10.212  11.455
18753SOL    HW158033   3.355  10.122  11.449
18753SOL    HW258034   3.406  10.224  11.548
18754SOL     OW58035  11.908   9.045   6.594
18754SOL    HW158036  11.856   9.062   6.515
18754SOL    HW258037  11.923   8.951   6.593
18755SOL     OW58038   6.729  10.151  13.242
18755SOL    HW158039   6.788  10.078  13.225
18755SOL    HW258040   6.677  10.159  13.162
18756SOL     OW58041   8.167   1.700   1.371
18756SOL    HW158042   8.161   1.604   1.371
18756SOL    HW258043   8.089   1.729   1.417
18757SOL     OW58044   7.641   4.334  13.135
18757SOL    HW158045   7.695   4.268  13.177
18757SOL    HW258046   7.671   4.417  13.173
18758SOL     OW58047  12.552   9.245   6.125
18758SOL    HW158048  12.552   9.324   6.070
18758SOL    HW258049  12.473   9.254   6.179
18759SOL     OW58050   2.468   4.749   6.931
18759SOL    HW158051   2.483   4.718   6.841
18759SOL    HW258052   2.509   4.835   6.934
18760SOL     OW58053   5.194   0.553   4.779
18760SOL    HW158054   5.242   0.476   4.752
18760SOL    HW258055   5.256   0.604   4.830
18761SOL     OW58056   8.401  10.920  12.353
18761SOL    HW158057   8.319  10.872  12.344
18761SOL    HW258058   8.469  10.858  12.327
18762SOL     OW58059   4.167  13.447  12.576
18762SOL    HW158060   4.193  13.505  12.647
18762SOL    HW258061   4.139  13.506  12.506
18763SOL     OW58062   5.317   4.330   9.011
18763SOL    HW158063   5.227   4.331   9.045
18763SOL    HW258064   5.355   4.412   9.042
18764SOL     OW58065   1.775   4.396  11.646
18764SOL    HW158066   1.807   4.465  11.704
18764SOL    HW258067   1.714   4.440  11.587
18765SOL     OW58068  10.540  10.683  12.684
18765SOL    HW158069  10.514  10.598  12.650
18765SOL    HW258070  10.522  10.745  12.613
18766SOL     OW58071   8.747  12.355   8.339
18766SOL    HW158072   8.736  12.366   8.244
18766SOL    HW258073   8.786  12.268   8.348
18767SOL     OW58074   8.226   7.950   5.930
18767SOL    HW158075   8.238   8.038   5.963
18767SOL    HW258076   8.314   7.918   5.911
18768SOL     OW58077   7.603   8.114   6.135
18768SOL    HW158078   7.509   8.099   6.141
18768SOL    HW258079   7.611   8.189   6.076
18769SOL     OW58080   8.833   6.571   3.377
18769SOL    HW158081   8.829   6.589   3.283
18769SOL    HW258082   8.895   6.499   3.385
18770SOL     OW58083  11.823  10.967   3.910
18770SOL    HW158084  11.919  10.963   3.907
18770SOL    HW258085  11.799  11.000   3.823
18771SOL     OW58086   9.844  11.206  11.455
18771SOL    HW158087   9.914  11.267  11.432
18771SOL    HW258088   9.886  11.142  11.513
18772SOL     OW58089   2.525  11.624  10.438
18772SOL    HW158090   2.449  11.566  10.442
18772SOL    HW258091   2.579  11.599  10.513
18773SOL     OW58092   7.591  13.332   1.362
18773SOL    HW158093   7.557  13.421   1.364
18773SOL    HW258094   7.685  13.342   1.378
18774SOL     OW58095   6.605   3.719   4.269
18774SOL    HW158096   6.642   3.797   4.227
18774SOL    HW258097   6.560   3.673   4.198
18775SOL     OW58098   6.982   6.215   5.822
18775SOL    HW158099   7.005   6.182   5.908
18775SOL    HW258100   7.065   6.242   5.783
18776SOL     OW58101   0.956   1.366   6.491
18776SOL    HW158102   0.916   1.362   6.578
18776SOL    HW258103   0.886   1.337   6.432
18777SOL     OW58104   8.455   2.413   9.285
18777SOL    HW158105   8.501   2.392   9.204
18777SOL    HW258106   8.367   2.378   9.273
18778SOL     OW58107   5.243   7.692   9.171
18778SOL    HW158108   5.275   7.625   9.112
18778SOL    HW258109   5.199   7.644   9.242
18779SOL     OW58110  10.732   6.666   5.872
18779SOL    HW158111  10.788   6.741   5.852
18779SOL    HW258112  10.723   6.620   5.788
18780SOL     OW58113   1.495   3.987   9.657
18780SOL    HW158114   1.546   4.047   9.711
18780SOL    HW258115   1.559   3.947   9.598
18781SOL     OW58116  11.395   7.232   5.053
18781SOL    HW158117  11.427   7.322   5.046
18781SOL    HW258118  11.473   7.180   5.074
18782SOL     OW58119   5.801   6.780   1.382
18782SOL    HW158120   5.865   6.792   1.452
18782SOL    HW258121   5.807   6.687   1.361
18783SOL     OW58122  13.052   9.964   5.904
18783SOL    HW158123  13.111  10.030   5.940
18783SOL    HW258124  13.091   9.881   5.930
18784SOL     OW58125   6.432   6.352   9.700
18784SOL    HW158126   6.385   6.413   9.644
18784SOL    HW258127   6.372   6.278   9.712
18785SOL     OW58128   4.001  10.417   3.079
18785SOL    HW158129   3.990  10.397   2.986
18785SOL    HW258130   3.915  10.399   3.118
18786SOL     OW58131   4.607  14.110   0.620
18786SOL    HW158132   4.612  14.134   0.527
18786SOL    HW258133   4.592  14.192   0.666
18787SOL     OW58134  11.506   6.601  11.611
18787SOL    HW158135  11.579   6.540  11.617
18787SOL    HW258136  11.434   6.559  11.658
18788SOL     OW58137   4.577  11.261   5.759
18788SOL    HW158138   4.548  11.320   5.828
18788SOL    HW258139   4.616  11.318   5.693
18789SOL     OW58140  12.145   1.510  13.119
18789SOL    HW158141  12.134   1.579  13.054
18789SOL    HW258142  12.061   1.508  13.166
18790SOL     OW58143   0.616   3.810   1.465
18790SOL    HW158144   0.602   3.847   1.378
18790SOL    HW258145   0.529   3.806   1.504
18791SOL     OW58146  13.035  11.619   6.254
18791SOL    HW158147  12.977  11.579   6.190
18791SOL    HW258148  13.093  11.675   6.202
18792SOL     OW58149  11.474   8.522  13.325
18792SOL    HW158150  11.536   8.571  13.380
18792SOL    HW258151  11.431   8.590  13.272
18793SOL     OW58152   8.470   8.607   1.396
18793SOL    HW158153   8.505   8.532   1.348
18793SOL    HW258154   8.503   8.683   1.348
18794SOL     OW58155   1.933   0.543   7.149
18794SOL    HW158156   1.902   0.517   7.236
18794SOL    HW258157   2.011   0.490   7.134
18795SOL     OW58158  11.454   3.781   4.334
18795SOL    HW158159  11.441   3.702   4.386
18795SOL    HW258160  11.444   3.853   4.397
18796SOL     OW58161   0.803  12.853  14.134
18796SOL    HW158162   0.885  12.877  14.177
18796SOL    HW258163   0.827  12.839  14.042
18797SOL     OW58164   8.369   3.697  11.282
18797SOL    HW158165   8.364   3.635  11.210
18797SOL    HW258166   8.294   3.675  11.338
18798SOL     OW58167   6.810   2.518   7.287
18798SOL    HW158168   6.847   2.576   7.221
18798SOL    HW258169   6.838   2.556   7.370
18799SOL     OW58170   8.710  12.844  14.643
18799SOL    HW158171   8.738  12.753  14.657
18799SOL    HW258172   8.739  12.865  14.555
18800SOL     OW58173  11.138   6.805   3.155
18800SOL    HW158174  11.075   6.788   3.085
18800SOL    HW258175  11.160   6.897   3.146
18801SOL     OW58176   7.451  11.180  14.779
18801SOL    HW158177   7.426  11.163  14.688
18801SOL    HW258178   7.524  11.121  14.795
18802SOL     OW58179   1.696  13.181   9.233
18802SOL    HW158180   1.789  13.172   9.212
18802SOL    HW258181   1.651  13.130   9.165
18803SOL     OW58182   0.022  10.747   9.784
18803SOL    HW158183  14.861  10.827   9.815
18803SOL    HW258184  14.834  10.696   9.743
18804SOL     OW58185  12.689   6.999   4.053
18804SOL    HW158186  12.711   7.092   4.057
18804SOL    HW258187  12.739   6.959   4.124
18805SOL     OW58188   4.096   4.681   8.698
18805SOL    HW158189   4.067   4.670   8.789
18805SOL    HW258190   4.076   4.773   8.677
18806SOL     OW58191   8.884  13.246  14.605
18806SOL    HW158192   8.835  13.328  14.602
18806SOL    HW258193   8.817  13.178  14.600
18807SOL     OW58194   4.211  10.764   6.931
18807SOL    HW158195   4.273  10.798   6.867
18807SOL    HW258196   4.135  10.738   6.880
18808SOL     OW58197   3.081   3.637   4.954
18808SOL    HW158198   3.090   3.694   4.877
18808SOL    HW258199   3.040   3.557   4.920
18809SOL     OW58200   7.232   0.739   5.658
18809SOL    HW158201   7.176   0.663   5.644
18809SOL    HW258202   7.317   0.703   5.680
18810SOL     OW58203  12.494  11.227   4.580
18810SOL    HW158204  12.582  11.193   4.597
18810SOL    HW258205  12.449  11.219   4.664
18811SOL     OW58206  14.688   0.776   7.840
18811SOL    HW158207  14.668   0.804   7.751
18811SOL    HW258208  14.774   0.814   7.859
18812SOL     OW58209  11.232  10.048   9.343
18812SOL    HW158210  11.235   9.974   9.404
18812SOL    HW258211  11.141  10.052   9.314
18813SOL     OW58212   5.118   6.280   0.860
18813SOL    HW158213   5.054   6.217   0.891
18813SOL    HW258214   5.138   6.254   0.771
18814SOL     OW58215   9.027   0.514   0.521
18814SOL    HW158216   8.955   0.451   0.529
18814SOL    HW258217   9.050   0.536   0.611
18815SOL     OW58218   5.282  10.523   2.536
18815SOL    HW158219   5.347  10.573   2.487
18815SOL    HW258220   5.289  10.555   2.626
18816SOL     OW58221  11.713  11.962   7.052
18816SOL    HW158222  11.688  12.054   7.041
18816SOL    HW258223  11.748  11.936   6.967
18817SOL     OW58224   6.191   9.789   0.672
18817SOL    HW158225   6.239   9.715   0.708
18817SOL    HW258226   6.237   9.866   0.704
18818SOL     OW58227  13.930   1.308   2.035
18818SOL    HW158228  13.868   1.355   2.091
18818SOL    HW258229  13.930   1.219   2.070
18819SOL     OW58230  12.685   3.278   3.708
18819SOL    HW158231  12.640   3.228   3.639
18819SOL    HW258232  12.759   3.319   3.664
18820SOL     OW58233   6.389   0.019   7.523
18820SOL    HW158234   6.465   0.037   7.468
18820SOL    HW258235   6.426  14.869   7.605
18821SOL     OW58236  14.269   5.508  14.682
18821SOL    HW158237  14.284   5.594  14.722
18821SOL    HW258238  14.199   5.469  14.734
18822SOL     OW58239   4.460   5.155  11.045
18822SOL    HW158240   4.537   5.149  10.988
18822SOL    HW258241   4.418   5.069  11.039
18823SOL     OW58242   4.110   2.699  13.930
18823SOL    HW158243   4.203   2.689  13.950
18823SOL    HW258244   4.097   2.793  13.919
18824SOL     OW58245  12.522   7.936   1.702
18824SOL    HW158246  12.609   7.896   1.701
18824SOL    HW258247  12.477   7.893   1.774
18825SOL     OW58248   0.454   9.854   4.814
18825SOL    HW158249   0.464   9.938   4.770
18825SOL    HW258250   0.418   9.795   4.747
18826SOL     OW58251   3.455   2.238   1.408
18826SOL    HW158252   3.462   2.166   1.471
18826SOL    HW258253   3.417   2.310   1.458
18827SOL     OW58254   9.802   0.113   8.539
18827SOL    HW158255   9.826   0.021   8.551
18827SOL    HW258256   9.707   0.115   8.550
18828SOL     OW58257   6.840   5.455   6.485
18828SOL    HW158258   6.896   5.501   6.422
18828SOL    HW258259   6.880   5.369   6.494
18829SOL     OW58260   4.260   1.636   0.048
18829SOL    HW158261   4.284   1.727   0.029
18829SOL    HW258262   4.276   1.589  14.847
18830SOL     OW58263   1.948  12.426   5.639
18830SOL    HW158264   2.000  12.457   5.713
18830SOL    HW258265   1.900  12.351   5.675
18831SOL     OW58266  14.047  11.291   1.358
18831SOL    HW158267  13.960  11.332   1.358
18831SOL    HW258268  14.028  11.197   1.356
18832SOL     OW58269   9.592  12.032   0.555
18832SOL    HW158270   9.573  11.968   0.623
18832SOL    HW258271   9.516  12.090   0.556
18833SOL     OW58272  14.699  13.046   7.458
18833SOL    HW158273  14.730  12.979   7.397
18833SOL    HW258274  14.627  13.089   7.412
18834SOL     OW58275   0.231   1.223  10.616
18834SOL    HW158276   0.213   1.275  10.537
18834SOL    HW258277   0.230   1.287  10.687
18835SOL     OW58278  12.372   1.886   2.254
18835SOL    HW158279  12.447   1.829   2.265
18835SOL    HW258280  12.325   1.850   2.179
18836SOL     OW58281   5.847   0.957   3.524
18836SOL    HW158282   5.756   0.931   3.543
18836SOL    HW258283   5.863   1.032   3.581
18837SOL     OW58284   0.826   8.669  10.090
18837SOL    HW158285   0.808   8.714  10.007
18837SOL    HW258286   0.815   8.576  10.069
18838SOL     OW58287  11.140   0.230  10.952
18838SOL    HW158288  11.234   0.239  10.967
18838SOL    HW258289  11.103   0.314  10.978
18839SOL     OW58290   1.334   2.555   0.382
18839SOL    HW158291   1.394   2.514   0.320
18839SOL    HW258292   1.357   2.648   0.381
18840SOL     OW58293  10.848   2.702  13.801
18840SOL    HW158294  10.903   2.728  13.874
18840SOL    HW258295  10.850   2.777  13.741
18841SOL     OW58296   4.849   2.543   0.240
18841SOL    HW158297   4.912   2.578   0.177
18841SOL    HW258298   4.888   2.560   0.325
18842SOL     OW58299   8.233   5.382   5.340
18842SOL    HW158300   8.241   5.457   5.280
18842SOL    HW258301   8.160   5.405   5.397
18843SOL     OW58302  10.071  10.287  10.208
18843SOL    HW158303  10.024  10.261  10.129
18843SOL    HW258304  10.157  10.247  10.199
18844SOL     OW58305  11.959  13.324  10.394
18844SOL    HW158306  11.893  13.294  10.457
18844SOL    HW258307  12.042  13.289  10.427
18845SOL     OW58308   1.280   6.406   6.457
18845SOL    HW158309   1.189   6.395   6.429
18845SOL    HW258310   1.274   6.462   6.534
18846SOL     OW58311   6.948   5.044   1.706
18846SOL    HW158312   7.039   5.033   1.681
18846SOL    HW258313   6.903   5.066   1.624
18847SOL     OW58314  14.754   6.808   0.331
18847SOL    HW158315  14.849   6.806   0.347
18847SOL    HW258316  14.725   6.888   0.374
18848SOL     OW58317  14.807   6.428   8.548
18848SOL    HW158318  14.739   6.470   8.496
18848SOL    HW258319  14.804   6.472   8.633
18849SOL     OW58320   7.618   5.337  13.367
18849SOL    HW158321   7.542   5.317  13.313
18849SOL    HW258322   7.690   5.290  13.325
18850SOL     OW58323   6.671   5.313   5.813
18850SOL    HW158324   6.616   5.295   5.890
18850SOL    HW258325   6.700   5.227   5.783
18851SOL     OW58326  12.070   6.479   3.908
18851SOL    HW158327  12.066   6.401   3.965
18851SOL    HW258328  12.087   6.443   3.821
18852SOL     OW58329  10.712   1.826  11.222
18852SOL    HW158330  10.683   1.894  11.161
18852SOL    HW258331  10.721   1.747  11.169
18853SOL     OW58332   4.901  11.419   4.463
18853SOL    HW158333   4.983  11.460   4.434
18853SOL    HW258334   4.852  11.405   4.382
18854SOL     OW58335  13.714   4.299  12.660
18854SOL    HW158336  13.629   4.303  12.616
18854SOL    HW258337  13.710   4.219  12.712
18855SOL     OW58338   8.720  10.773   0.455
18855SOL    HW158339   8.710  10.784   0.361
18855SOL    HW258340   8.777  10.696   0.465
18856SOL     OW58341  13.639  12.606   7.324
18856SOL    HW158342  13.676  12.595   7.412
18856SOL    HW258343  13.713  12.590   7.265
18857SOL     OW58344   4.571   5.630   8.695
18857SOL    HW158345   4.632   5.580   8.641
18857SOL    HW258346   4.490   5.631   8.644
18858SOL     OW58347  12.058  13.324   2.758
18858SOL    HW158348  12.081  13.281   2.841
18858SOL    HW258349  12.035  13.252   2.700
18859SOL     OW58350  12.621   1.160   1.233
18859SOL    HW158351  12.714   1.184   1.225
18859SOL    HW258352  12.590   1.151   1.143
18860SOL     OW58353  11.252   0.403   2.488
18860SOL    HW158354  11.212   0.490   2.482
18860SOL    HW258355  11.183   0.348   2.528
18861SOL     OW58356  13.599   2.348   9.953
18861SOL    HW158357  13.525   2.326  10.008
18861SOL    HW258358  13.625   2.265   9.913
18862SOL     OW58359  11.449   8.631   3.377
18862SOL    HW158360  11.438   8.598   3.466
18862SOL    HW258361  11.428   8.556   3.321
18863SOL     OW58362  12.215   3.103   0.990
18863SOL    HW158363  12.149   3.088   0.921
18863SOL    HW258364  12.208   3.196   1.009
18864SOL     OW58365   6.220   0.612  11.872
18864SOL    HW158366   6.125   0.609  11.861
18864SOL    HW258367   6.251   0.668  11.801
18865SOL     OW58368  10.683   8.365   1.000
18865SOL    HW158369  10.615   8.433   1.000
18865SOL    HW258370  10.716   8.364   0.910
18866SOL     OW58371   4.447   4.313  14.377
18866SOL    HW158372   4.459   4.327  14.471
18866SOL    HW258373   4.375   4.250  14.371
18867SOL     OW58374   2.297   9.220   5.087
18867SOL    HW158375   2.264   9.131   5.096
18867SOL    HW258376   2.286   9.241   4.994
18868SOL     OW58377   9.236  12.796  13.577
18868SOL    HW158378   9.205  12.771  13.664
18868SOL    HW258379   9.175  12.755  13.517
18869SOL     OW58380   8.927  11.113   0.182
18869SOL    HW158381   8.984  11.084   0.253
18869SOL    HW258382   8.985  11.115   0.105
18870SOL     OW58383   6.569  11.109  10.217
18870SOL    HW158384   6.610  11.188  10.253
18870SOL    HW258385   6.642  11.048  10.206
18871SOL     OW58386   5.026  10.679   3.933
18871SOL    HW158387   4.961  10.634   3.987
18871SOL    HW258388   5.111  10.648   3.966
18872SOL     OW58389   9.089  12.642   4.272
18872SOL    HW158390   9.021  12.596   4.321
18872SOL    HW258391   9.094  12.598   4.188
18873SOL     OW58392   9.248   3.646   3.313
18873SOL    HW158393   9.232   3.557   3.345
18873SOL    HW258394   9.310   3.683   3.376
18874SOL     OW58395   6.266  10.838   9.792
18874SOL    HW158396   6.275  10.743   9.802
18874SOL    HW258397   6.342  10.874   9.839
18875SOL     OW58398   4.262   0.935   4.225
18875SOL    HW158399   4.261   0.900   4.136
18875SOL    HW258400   4.345   0.905   4.262
18876SOL     OW58401   4.353   5.315   5.210
18876SOL    HW158402   4.273   5.279   5.172
18876SOL    HW258403   4.405   5.342   5.135
18877SOL     OW58404   0.312   8.711   4.725
18877SOL    HW158405   0.305   8.796   4.770
18877SOL    HW258406   0.223   8.693   4.694
18878SOL     OW58407  12.517   1.573  11.777
18878SOL    HW158408  12.561   1.489  11.766
18878SOL    HW258409  12.536   1.599  11.867
18879SOL     OW58410   3.521  10.190  11.724
18879SOL    HW158411   3.589  10.124  11.740
18879SOL    HW258412   3.531  10.252  11.796
18880SOL     OW58413   6.712   9.402   1.284
18880SOL    HW158414   6.728   9.472   1.221
18880SOL    HW258415   6.787   9.407   1.344
18881SOL     OW58416   2.313  13.345   3.222
18881SOL    HW158417   2.391  13.399   3.229
18881SOL    HW258418   2.346  13.258   3.202
18882SOL     OW58419  12.279   5.541  13.669
18882SOL    HW158420  12.188   5.561  13.692
18882SOL    HW258421  12.326   5.542  13.753
18883SOL     OW58422   8.259  10.603   3.776
18883SOL    HW158423   8.213  10.606   3.692
18883SOL    HW258424   8.268  10.510   3.795
18884SOL     OW58425   8.940   7.489   6.514
18884SOL    HW158426   9.035   7.489   6.527
18884SOL    HW258427   8.916   7.396   6.516
18885SOL     OW58428  11.773   0.253  10.991
18885SOL    HW158429  11.690   0.206  10.991
18885SOL    HW258430  11.749   0.344  11.008
18886SOL     OW58431   4.659   1.450  12.960
18886SOL    HW158432   4.586   1.393  12.933
18886SOL    HW258433   4.736   1.412  12.918
18887SOL     OW58434   7.590   4.043   3.731
18887SOL    HW158435   7.607   3.965   3.783
18887SOL    HW258436   7.525   4.016   3.667
18888SOL     OW58437  11.711  12.450   5.179
18888SOL    HW158438  11.738  12.436   5.089
18888SOL    HW258439  11.662  12.532   5.177
18889SOL     OW58440  11.993   1.761  12.651
18889SOL    HW158441  11.950   1.755  12.565
18889SOL    HW258442  11.973   1.849  12.681
18890SOL     OW58443   2.143  11.575   3.759
18890SOL    HW158444   2.048  11.577   3.751
18890SOL    HW258445   2.162  11.628   3.836
18891SOL     OW58446  10.745   0.755   8.177
18891SOL    HW158447  10.811   0.723   8.238
18891SOL    HW258448  10.748   0.694   8.104
18892SOL     OW58449   5.387   6.181   0.400
18892SOL    HW158450   5.331   6.249   0.362
18892SOL    HW258451   5.453   6.165   0.333
18893SOL     OW58452   4.444   4.654   0.478
18893SOL    HW158453   4.460   4.619   0.566
18893SOL    HW258454   4.384   4.727   0.491
18894SOL     OW58455   0.806   0.606   4.831
18894SOL    HW158456   0.811   0.695   4.795
18894SOL    HW258457   0.734   0.611   4.895
18895SOL     OW58458   1.250  10.476  10.128
18895SOL    HW158459   1.274  10.500  10.218
18895SOL    HW258460   1.225  10.384  10.134
18896SOL     OW58461  12.148  13.564  14.490
18896SOL    HW158462  12.189  13.478  14.497
18896SOL    HW258463  12.175  13.610  14.570
18897SOL     OW58464   3.081   2.624  10.742
18897SOL    HW158465   3.030   2.593  10.666
18897SOL    HW258466   3.017   2.630  10.813
18898SOL     OW58467   6.270   9.038   6.387
18898SOL    HW158468   6.215   9.028   6.309
18898SOL    HW258469   6.248   9.124   6.422
18899SOL     OW58470   3.470   9.152   1.798
18899SOL    HW158471   3.548   9.204   1.780
18899SOL    HW258472   3.503   9.071   1.837
18900SOL     OW58473   2.995   8.332   1.493
18900SOL    HW158474   2.949   8.368   1.570
18900SOL    HW258475   3.056   8.268   1.530
18901SOL     OW58476   5.880   8.085  11.627
18901SOL    HW158477   5.914   8.174  11.643
18901SOL    HW258478   5.789   8.098  11.601
18902SOL     OW58479   5.571  10.107   8.282
18902SOL    HW158480   5.625  10.082   8.357
18902SOL    HW258481   5.502  10.040   8.279
18903SOL     OW58482   7.417   3.909   2.384
18903SOL    HW158483   7.498   3.949   2.415
18903SOL    HW258484   7.365   3.894   2.463
18904SOL     OW58485  13.011  12.237   0.039
18904SOL    HW158486  12.924  12.200   0.027
18904SOL    HW258487  13.004  12.327   0.007
18905SOL     OW58488   9.405  13.112   8.699
18905SOL    HW158489   9.375  13.202   8.686
18905SOL    HW258490   9.457  13.092   8.621
18906SOL     OW58491  10.620  10.260   3.939
18906SOL    HW158492  10.589  10.299   4.020
18906SOL    HW258493  10.640  10.169   3.962
18907SOL     OW58494   0.141   9.150   1.164
18907SOL    HW158495   0.106   9.136   1.076
18907SOL    HW258496   0.193   9.230   1.156
18908SOL     OW58497  11.797   4.177   3.572
18908SOL    HW158498  11.797   4.087   3.537
18908SOL    HW258499  11.887   4.190   3.604
18909SOL     OW58500  10.312   6.712  13.968
18909SOL    HW158501  10.296   6.802  13.939
18909SOL    HW258502  10.400   6.692  13.937
18910SOL     OW58503  11.667  13.110   9.412
18910SOL    HW158504  11.759  13.090   9.393
18910SOL    HW258505  11.671  13.170   9.487
18911SOL     OW58506  10.396  13.709   4.096
18911SOL    HW158507  10.351  13.744   4.019
18911SOL    HW258508  10.327  13.674   4.151
18912SOL     OW58509  14.211  14.155   9.378
18912SOL    HW158510  14.198  14.072   9.425
18912SOL    HW258511  14.150  14.150   9.304
18913SOL     OW58512   9.072   5.331  10.732
18913SOL    HW158513   9.145   5.290  10.686
18913SOL    HW258514   9.089   5.313  10.824
18914SOL     OW58515   3.509   6.715   5.230
18914SOL    HW158516   3.432   6.659   5.239
18914SOL    HW258517   3.486   6.795   5.279
18915SOL     OW58518   8.538   0.790   2.045
18915SOL    HW158519   8.482   0.716   2.023
18915SOL    HW258520   8.515   0.858   1.981
18916SOL     OW58521   1.974   8.247   6.032
18916SOL    HW158522   2.039   8.191   6.076
18916SOL    HW258523   1.950   8.311   6.098
18917SOL     OW58524  10.633   8.573   4.559
18917SOL    HW158525  10.596   8.562   4.647
18917SOL    HW258526  10.727   8.582   4.574
18918SOL     OW58527   9.097   3.607   5.051
18918SOL    HW158528   9.112   3.663   5.127
18918SOL    HW258529   9.138   3.523   5.074
18919SOL     OW58530   8.277   9.058   0.459
18919SOL    HW158531   8.317   8.973   0.480
18919SOL    HW258532   8.250   9.093   0.544
18920SOL     OW58533  10.167   6.534   5.479
18920SOL    HW158534  10.242   6.568   5.430
18920SOL    HW258535  10.151   6.600   5.546
18921SOL     OW58536   0.734   0.132  11.012
18921SOL    HW158537   0.730   0.173  11.099
18921SOL    HW258538   0.828   0.128  10.992
18922SOL     OW58539   5.977  10.904   7.471
18922SOL    HW158540   6.029  10.925   7.548
18922SOL    HW258541   5.992  10.811   7.457
18923SOL     OW58542   5.447   0.293   6.601
18923SOL    HW158543   5.360   0.330   6.587
18923SOL    HW258544   5.474   0.262   6.514
18924SOL     OW58545   4.326   9.772  11.284
18924SOL    HW158546   4.238   9.761  11.319
18924SOL    HW258547   4.382   9.725  11.346
18925SOL     OW58548   1.526   5.094  14.138
18925SOL    HW158549   1.562   5.076  14.052
18925SOL    HW258550   1.439   5.054  14.137
18926SOL     OW58551   3.394  11.775  10.275
18926SOL    HW158552   3.341  11.850  10.303
18926SOL    HW258553   3.363  11.703  10.329
18927SOL     OW58554   0.416   4.009   0.083
18927SOL    HW158555   0.395   3.916   0.071
18927SOL    HW258556   0.354   4.039   0.149
18928SOL     OW58557   0.961   7.137  11.027
18928SOL    HW158558   0.986   7.051  11.061
18928SOL    HW258559   0.867   7.130  11.012
18929SOL     OW58560   3.287  12.258   3.887
18929SOL    HW158561   3.236  12.231   3.963
18929SOL    HW258562   3.263  12.350   3.873
18930SOL     OW58563   8.367   7.450   8.969
18930SOL    HW158564   8.344   7.526   9.022
18930SOL    HW258565   8.425   7.398   9.024
18931SOL     OW58566   8.673  11.224   3.047
18931SOL    HW158567   8.643  11.287   2.981
18931SOL    HW258568   8.633  11.254   3.129
18932SOL     OW58569   6.772   8.371   2.510
18932SOL    HW158570   6.847   8.392   2.454
18932SOL    HW258571   6.741   8.286   2.477
18933SOL     OW58572   6.363   2.063   3.215
18933SOL    HW158573   6.276   2.102   3.202
18933SOL    HW258574   6.422   2.139   3.219
18934SOL     OW58575  14.123   1.235   9.543
18934SOL    HW158576  14.048   1.257   9.487
18934SOL    HW258577  14.089   1.166   9.601
18935SOL     OW58578   3.156   5.899   8.097
18935SOL    HW158579   3.172   5.841   8.172
18935SOL    HW258580   3.065   5.927   8.107
18936SOL     OW58581   6.391   4.277   2.189
18936SOL    HW158582   6.374   4.280   2.283
18936SOL    HW258583   6.305   4.257   2.151
18937SOL     OW58584   8.443   9.072   1.808
18937SOL    HW158585   8.528   9.100   1.774
18937SOL    HW258586   8.421   9.137   1.874
18938SOL     OW58587  13.845  10.667  13.617
18938SOL    HW158588  13.905  10.696  13.685
18938SOL    HW258589  13.834  10.742  13.559
18939SOL     OW58590   7.363   7.739   2.884
18939SOL    HW158591   7.354   7.816   2.941
18939SOL    HW258592   7.379   7.776   2.797
18940SOL     OW58593  11.250   4.537  12.133
18940SOL    HW158594  11.283   4.620  12.168
18940SOL    HW258595  11.290   4.470  12.188
18941SOL     OW58596   3.171   3.037  12.015
18941SOL    HW158597   3.162   3.123  11.973
18941SOL    HW258598   3.143   3.052  12.105
18942SOL     OW58599   3.776   2.236   8.306
18942SOL    HW158600   3.720   2.163   8.279
18942SOL    HW258601   3.859   2.221   8.261
18943SOL     OW58602   1.259   9.752   6.911
18943SOL    HW158603   1.340   9.752   6.860
18943SOL    HW258604   1.245   9.844   6.934
18944SOL     OW58605  13.437  11.076   5.304
18944SOL    HW158606  13.470  11.073   5.394
18944SOL    HW258607  13.344  11.099   5.314
18945SOL     OW58608  12.285   2.691   9.016
18945SOL    HW158609  12.244   2.775   8.996
18945SOL    HW258610  12.325   2.664   8.933
18946SOL     OW58611   2.327   9.194   8.967
18946SOL    HW158612   2.233   9.193   8.953
18946SOL    HW258613   2.344   9.118   9.023
18947SOL     OW58614   5.087   3.457   6.694
18947SOL    HW158615   5.119   3.431   6.608
18947SOL    HW258616   5.121   3.390   6.754
18948SOL     OW58617   4.952   5.418  14.566
18948SOL    HW158618   4.943   5.344  14.505
18948SOL    HW258619   4.897   5.395  14.641
18949SOL     OW58620  14.520   5.206   4.717
18949SOL    HW158621  14.428   5.183   4.727
18949SOL    HW258622  14.531   5.282   4.774
18950SOL     OW58623  10.118   1.547   6.670
18950SOL    HW158624  10.169   1.584   6.598
18950SOL    HW258625  10.162   1.464   6.690
18951SOL     OW58626  10.143   9.943  11.124
18951SOL    HW158627  10.098   9.868  11.163
18951SOL    HW258628  10.227   9.948  11.171
18952SOL     OW58629   6.477   0.872  10.534
18952SOL    HW158630   6.501   0.806  10.469
18952SOL    HW258631   6.382   0.862  10.544
18953SOL     OW58632   5.436   7.181   4.874
18953SOL    HW158633   5.520   7.204   4.914
18953SOL    HW258634   5.372   7.192   4.943
18954SOL     OW58635   5.973   6.601   1.723
18954SOL    HW158636   6.024   6.663   1.671
18954SOL    HW258637   5.984   6.632   1.813
18955SOL     OW58638   1.776   4.999   9.926
18955SOL    HW158639   1.765   4.976  10.018
18955SOL    HW258640   1.835   4.933   9.891
18956SOL     OW58641   6.400   5.225   7.407
18956SOL    HW158642   6.413   5.310   7.364
18956SOL    HW258643   6.468   5.222   7.474
18957SOL     OW58644   3.447   0.140   5.643
18957SOL    HW158645   3.396   0.066   5.612
18957SOL    HW258646   3.386   0.214   5.641
18958SOL     OW58647   5.928   0.492   8.532
18958SOL    HW158648   5.926   0.455   8.444
18958SOL    HW258649   6.019   0.520   8.544
18959SOL     OW58650   5.599   4.018   9.554
18959SOL    HW158651   5.618   4.079   9.483
18959SOL    HW258652   5.565   3.940   9.510
18960SOL     OW58653   4.587   8.727   0.245
18960SOL    HW158654   4.579   8.760   0.155
18960SOL    HW258655   4.518   8.660   0.251
18961SOL     OW58656   4.802   9.587   2.526
18961SOL    HW158657   4.853   9.582   2.606
18961SOL    HW258658   4.865   9.612   2.458
18962SOL     OW58659   3.634   7.360   0.789
18962SOL    HW158660   3.592   7.292   0.842
18962SOL    HW258661   3.632   7.326   0.700
18963SOL     OW58662  14.369   6.941  12.241
18963SOL    HW158663  14.442   6.996  12.269
18963SOL    HW258664  14.387   6.856  12.282
18964SOL     OW58665   6.891   9.036  13.962
18964SOL    HW158666   6.982   9.010  13.971
18964SOL    HW258667   6.843   8.977  14.020
18965SOL     OW58668   2.657  13.175   3.067
18965SOL    HW158669   2.569  13.174   3.103
18965SOL    HW258670   2.646  13.200   2.975
18966SOL     OW58671  12.968  14.395  14.643
18966SOL    HW158672  12.933  14.306  14.642
18966SOL    HW258673  12.980  14.416  14.550
18967SOL     OW58674   8.756   5.063   6.584
18967SOL    HW158675   8.828   5.125   6.589
18967SOL    HW258676   8.678   5.116   6.600
18968SOL     OW58677   0.720  11.533  11.221
18968SOL    HW158678   0.789  11.467  11.216
18968SOL    HW258679   0.724  11.565  11.311
18969SOL     OW58680   4.731  14.595  12.786
18969SOL    HW158681   4.776  14.578  12.868
18969SOL    HW258682   4.752  14.686  12.764
18970SOL     OW58683   3.533   0.511  12.498
18970SOL    HW158684   3.574   0.597  12.505
18970SOL    HW258685   3.558   0.466  12.578
18971SOL     OW58686   2.488  14.733   6.522
18971SOL    HW158687   2.423  14.707   6.456
18971SOL    HW258688   2.512  14.651   6.565
18972SOL     OW58689   0.155   2.870   9.371
18972SOL    HW158690   0.229   2.909   9.417
18972SOL    HW258691   0.168   2.775   9.381
18973SOL     OW58692  12.968   7.573   8.441
18973SOL    HW158693  13.050   7.559   8.393
18973SOL    HW258694  12.992   7.558   8.533
18974SOL     OW58695   5.272   5.976  10.686
18974SOL    HW158696   5.205   6.041  10.711
18974SOL    HW258697   5.323   5.963  10.766
18975SOL     OW58698   2.980   4.987   0.150
18975SOL    HW158699   3.031   4.949   0.222
18975SOL    HW258700   3.034   4.973   0.072
18976SOL     OW58701   2.428   1.835  11.572
18976SOL    HW158702   2.382   1.919  11.577
18976SOL    HW258703   2.364   1.775  11.533
18977SOL     OW58704  11.025   2.410   8.784
18977SOL    HW158705  10.982   2.491   8.757
18977SOL    HW258706  10.967   2.373   8.850
18978SOL     OW58707   8.790   5.138   8.071
18978SOL    HW158708   8.700   5.113   8.089
18978SOL    HW258709   8.788   5.233   8.065
18979SOL     OW58710   5.557   6.510  13.671
18979SOL    HW158711   5.530   6.549  13.588
18979SOL    HW258712   5.631   6.563  13.700
18980SOL     OW58713   5.053   5.661   2.334
18980SOL    HW158714   4.980   5.723   2.343
18980SOL    HW258715   5.084   5.674   2.244
18981SOL     OW58716   9.814   7.861   3.984
18981SOL    HW158717   9.730   7.851   3.940
18981SOL    HW258718   9.800   7.934   4.046
18982SOL     OW58719  13.642  14.015  11.677
18982SOL    HW158720  13.671  14.014  11.585
18982SOL    HW258721  13.561  13.965  11.676
18983SOL     OW58722   0.382   9.293   6.589
18983SOL    HW158723   0.451   9.228   6.574
18983SOL    HW258724   0.415   9.372   6.545
18984SOL     OW58725   3.460   2.441   9.421
18984SOL    HW158726   3.391   2.407   9.479
18984SOL    HW258727   3.536   2.450   9.479
18985SOL     OW58728  10.068  12.008   4.432
18985SOL    HW158729   9.990  11.968   4.471
18985SOL    HW258730  10.140  11.956   4.468
18986SOL     OW58731   9.880  13.166   1.779
18986SOL    HW158732   9.830  13.191   1.701
18986SOL    HW258733   9.874  13.070   1.781
18987SOL     OW58734   1.383   3.108   2.346
18987SOL    HW158735   1.307   3.062   2.312
18987SOL    HW258736   1.438   3.038   2.383
18988SOL     OW58737   5.474  10.423   0.544
18988SOL    HW158738   5.530  10.389   0.474
18988SOL    HW258739   5.391  10.444   0.500
18989SOL     OW58740   0.753   0.751   4.203
18989SOL    HW158741   0.673   0.802   4.209
18989SOL    HW258742   0.806   0.781   4.276
18990SOL     OW58743  11.247  12.556   9.120
18990SOL    HW158744  11.176  12.610   9.155
18990SOL    HW258745  11.210  12.467   9.118
18991SOL     OW58746   1.923  12.629   5.469
18991SOL    HW158747   1.897  12.693   5.536
18991SOL    HW258748   1.929  12.546   5.516
18992SOL     OW58749   7.147   7.616   2.549
18992SOL    HW158750   7.200   7.578   2.479
18992SOL    HW258751   7.177   7.572   2.628
18993SOL     OW58752   2.004  10.611   2.097
18993SOL    HW158753   2.092  10.638   2.122
18993SOL    HW258754   2.014  10.522   2.063
18994SOL     OW58755   1.384   7.556  13.605
18994SOL    HW158756   1.361   7.612  13.679
18994SOL    HW258757   1.428   7.615  13.544
18995SOL     OW58758   3.687  12.019   7.891
18995SOL    HW158759   3.599  12.015   7.853
18995SOL    HW258760   3.722  12.103   7.862
18996SOL     OW58761   7.160  10.579   2.278
18996SOL    HW158762   7.117  10.500   2.311
18996SOL    HW258763   7.095  10.648   2.291
18997SOL     OW58764  13.894   8.394   3.707
18997SOL    HW158765  13.839   8.327   3.667
18997SOL    HW258766  13.943   8.347   3.775
18998SOL     OW58767   0.292   5.067   3.970
18998SOL    HW158768   0.365   5.122   3.998
18998SOL    HW258769   0.283   5.003   4.041
18999SOL     OW58770   1.998   3.610  11.957
18999SOL    HW158771   2.040   3.593  12.041
18999SOL    HW258772   1.918   3.557  11.958
19000SOL     OW58773   4.486   6.666   4.289
19000SOL    HW158774   4.551   6.632   4.351
19000SOL    HW258775   4.473   6.595   4.227
19001SOL     OW58776  13.483   4.667   5.627
19001SOL    HW158777  13.517   4.681   5.539
19001SOL    HW258778  13.419   4.596   5.616
19002SOL     OW58779   0.560   1.923   9.214
19002SOL    HW158780   0.578   2.011   9.181
19002SOL    HW258781   0.570   1.866   9.137
19003SOL     OW58782   8.275   8.129   4.804
19003SOL    HW158783   8.249   8.206   4.855
19003SOL    HW258784   8.332   8.080   4.863
19004SOL     OW58785   9.472   4.842  10.666
19004SOL    HW158786   9.512   4.763  10.701
19004SOL    HW258787   9.510   4.913  10.718
19005SOL     OW58788  14.037   0.260  11.617
19005SOL    HW158789  14.043   0.248  11.712
19005SOL    HW258790  14.128   0.272  11.588
19006SOL     OW58791  14.355   0.196   4.090
19006SOL    HW158792  14.342   0.284   4.055
19006SOL    HW258793  14.412   0.209   4.166
19007SOL     OW58794   2.234   4.496  12.480
19007SOL    HW158795   2.227   4.471  12.572
19007SOL    HW258796   2.166   4.444  12.436
19008SOL     OW58797   5.166   6.833   9.227
19008SOL    HW158798   5.092   6.778   9.203
19008SOL    HW258799   5.202   6.863   9.144
19009SOL     OW58800  10.092   6.685  13.272
19009SOL    HW158801  10.004   6.678  13.236
19009SOL    HW258802  10.096   6.773  13.311
19010SOL     OW58803   9.833   8.344  12.364
19010SOL    HW158804   9.884   8.264  12.350
19010SOL    HW258805   9.808   8.372  12.275
19011SOL     OW58806  13.509   7.147   8.780
19011SOL    HW158807  13.534   7.064   8.739
19011SOL    HW258808  13.480   7.122   8.868
19012SOL     OW58809   7.596  10.375  11.397
19012SOL    HW158810   7.675  10.322  11.393
19012SOL    HW258811   7.554  10.362  11.312
19013SOL     OW58812  11.428   7.872   2.822
19013SOL    HW158813  11.440   7.782   2.851
19013SOL    HW258814  11.515   7.900   2.793
19014SOL     OW58815  13.989  11.658   5.508
19014SOL    HW158816  13.992  11.701   5.423
19014SOL    HW258817  14.021  11.569   5.491
19015SOL     OW58818   7.207   6.265  10.105
19015SOL    HW158819   7.235   6.352  10.075
19015SOL    HW258820   7.136   6.283  10.167
19016SOL     OW58821  12.366  14.299   4.915
19016SOL    HW158822  12.404  14.353   4.846
19016SOL    HW258823  12.436  14.237   4.937
19017SOL     OW58824  14.685   3.004   4.641
19017SOL    HW158825  14.734   2.958   4.573
19017SOL    HW258826  14.618   3.053   4.593
19018SOL     OW58827   1.284  10.626   3.491
19018SOL    HW158828   1.283  10.705   3.545
19018SOL    HW258829   1.334  10.651   3.413
19019SOL     OW58830  12.749  12.341  10.651
19019SOL    HW158831  12.749  12.429  10.613
19019SOL    HW258832  12.839  12.325  10.678
19020SOL     OW58833  10.420   4.678   6.018
19020SOL    HW158834  10.421   4.768   6.050
19020SOL    HW258835  10.444   4.684   5.926
19021SOL     OW58836  13.021   5.685   0.620
19021SOL    HW158837  13.018   5.699   0.525
19021SOL    HW258838  13.098   5.630   0.635
19022SOL     OW58839  11.755  13.244   6.820
19022SOL    HW158840  11.753  13.300   6.898
19022SOL    HW258841  11.743  13.305   6.747
19023SOL     OW58842   8.085  13.776   8.583
19023SOL    HW158843   8.066  13.861   8.622
19023SOL    HW258844   8.008  13.756   8.529
19024SOL     OW58845   9.836   8.217   6.527
19024SOL    HW158846   9.830   8.143   6.588
19024SOL    HW258847   9.876   8.287   6.579
19025SOL     OW58848   2.585   9.913   2.279
19025SOL    HW158849   2.613   9.922   2.188
19025SOL    HW258850   2.537   9.994   2.297
19026SOL     OW58851  14.278   3.456   0.783
19026SOL    HW158852  14.357   3.428   0.738
19026SOL    HW258853  14.298   3.446   0.876
19027SOL     OW58854  11.781   8.928  14.508
19027SOL    HW158855  11.817   8.887  14.430
19027SOL    HW258856  11.846   8.992  14.535
19028SOL     OW58857   5.451   7.752   6.501
19028SOL    HW158858   5.370   7.786   6.539
19028SOL    HW258859   5.516   7.761   6.571
19029SOL     OW58860   5.568  14.636  12.122
19029SOL    HW158861   5.608  14.567  12.069
19029SOL    HW258862   5.474  14.621  12.113
19030SOL     OW58863   2.251  14.631   5.107
19030SOL    HW158864   2.346  14.644   5.118
19030SOL    HW258865   2.244  14.547   5.061
19031SOL     OW58866  12.955  11.842   8.450
19031SOL    HW158867  12.949  11.895   8.530
19031SOL    HW258868  12.866  11.810   8.436
19032SOL     OW58869   6.899   8.821   7.156
19032SOL    HW158870   6.823   8.797   7.103
19032SOL    HW258871   6.868   8.820   7.246
19033SOL     OW58872  10.915   3.943   9.821
19033SOL    HW158873  10.835   3.940   9.768
19033SOL    HW258874  10.930   4.037   9.834
19034SOL     OW58875   6.424   1.227   5.871
19034SOL    HW158876   6.330   1.232   5.888
19034SOL    HW258877   6.463   1.292   5.929
19035SOL     OW58878   3.354   9.277   1.343
19035SOL    HW158879   3.376   9.354   1.396
19035SOL    HW258880   3.376   9.302   1.253
19036SOL     OW58881   6.522   6.748  14.476
19036SOL    HW158882   6.594   6.701  14.518
19036SOL    HW258883   6.443   6.702  14.507
19037SOL     OW58884  11.189   4.451   6.065
19037SOL    HW158885  11.284   4.440   6.054
19037SOL    HW258886  11.151   4.379   6.015
19038SOL     OW58887   2.540  11.212   5.209
19038SOL    HW158888   2.583  11.223   5.294
19038SOL    HW258889   2.598  11.256   5.147
19039SOL     OW58890  12.197   8.351   4.373
19039SOL    HW158891  12.125   8.336   4.311
19039SOL    HW258892  12.158   8.402   4.443
19040SOL     OW58893   8.187   0.944   4.861
19040SOL    HW158894   8.126   0.979   4.796
19040SOL    HW258895   8.156   0.855   4.878
19041SOL     OW58896   3.154  10.275   0.434
19041SOL    HW158897   3.244  10.300   0.415
19041SOL    HW258898   3.128  10.335   0.505
19042SOL     OW58899   5.115   0.317   9.582
19042SOL    HW158900   5.170   0.241   9.599
19042SOL    HW258901   5.027   0.289   9.607
19043SOL     OW58902   9.425  14.333  11.262
19043SOL    HW158903   9.517  14.313  11.245
19043SOL    HW258904   9.394  14.260  11.316
19044SOL     OW58905  14.098   7.308   5.792
19044SOL    HW158906  14.020   7.264   5.824
19044SOL    HW258907  14.080   7.401   5.802
19045SOL     OW58908  12.792   3.455   5.412
19045SOL    HW158909  12.865   3.450   5.351
19045SOL    HW258910  12.813   3.529   5.469
19046SOL     OW58911  11.583   7.908   5.640
19046SOL    HW158912  11.539   7.983   5.680
19046SOL    HW258913  11.603   7.937   5.551
19047SOL     OW58914   6.450   7.844   0.494
19047SOL    HW158915   6.360   7.829   0.521
19047SOL    HW258916   6.456   7.806   0.406
19048SOL     OW58917   7.089   8.347   6.670
19048SOL    HW158918   7.179   8.314   6.679
19048SOL    HW258919   7.063   8.369   6.759
19049SOL     OW58920   7.116   8.951   1.796
19049SOL    HW158921   7.110   8.865   1.836
19049SOL    HW258922   7.026   8.976   1.776
19050SOL     OW58923  11.775   6.518   6.402
19050SOL    HW158924  11.768   6.583   6.332
19050SOL    HW258925  11.867   6.521   6.429
19051SOL     OW58926   5.830   0.250  12.528
19051SOL    HW158927   5.914   0.294  12.515
19051SOL    HW258928   5.772   0.319  12.561
19052SOL     OW58929   8.695  14.345  12.161
19052SOL    HW158930   8.692  14.421  12.104
19052SOL    HW258931   8.726  14.273  12.105
19053SOL     OW58932   7.973  14.488   1.934
19053SOL    HW158933   8.027  14.420   1.896
19053SOL    HW258934   7.891  14.485   1.885
19054SOL     OW58935  12.444  10.201   3.237
19054SOL    HW158936  12.402  10.238   3.159
19054SOL    HW258937  12.537  10.203   3.216
19055SOL     OW58938  13.985   9.603   3.230
19055SOL    HW158939  13.973   9.688   3.187
19055SOL    HW258940  13.913   9.598   3.293
19056SOL     OW58941  12.419   2.028   5.126
19056SOL    HW158942  12.383   2.035   5.038
19056SOL    HW258943  12.494   2.089   5.126
19057SOL     OW58944  13.444  13.883   3.179
19057SOL    HW158945  13.355  13.913   3.163
19057SOL    HW258946  13.449  13.869   3.274
19058SOL     OW58947  13.951  11.495   0.211
19058SOL    HW158948  14.011  11.550   0.161
19058SOL    HW258949  14.006  11.423   0.243
19059SOL     OW58950   8.349   2.217   8.195
19059SOL    HW158951   8.444   2.232   8.202
19059SOL    HW258952   8.310   2.303   8.213
19060SOL     OW58953   2.696   0.287  12.100
19060SOL    HW158954   2.696   0.235  12.019
19060SOL    HW258955   2.751   0.237  12.160
19061SOL     OW58956   9.738   5.278   5.628
19061SOL    HW158957   9.645   5.269   5.611
19061SOL    HW258958   9.780   5.227   5.558
19062SOL     OW58959  11.525   7.961   0.528
19062SOL    HW158960  11.439   7.994   0.500
19062SOL    HW258961  11.571   7.943   0.446
19063SOL     OW58962  13.766   2.196   2.185
19063SOL    HW158963  13.768   2.277   2.236
19063SOL    HW258964  13.699   2.143   2.228
19064SOL     OW58965   5.232  11.617   2.090
19064SOL    HW158966   5.266  11.614   2.179
19064SOL    HW258967   5.138  11.636   2.101
19065SOL     OW58968  14.681   3.896   0.734
19065SOL    HW158969  14.664   3.904   0.828
19065SOL    HW258970  14.661   3.804   0.714
19066SOL     OW58971   1.191   3.898   0.060
19066SOL    HW158972   1.106   3.855   0.066
19066SOL    HW258973   1.254   3.833   0.092
19067SOL     OW58974  14.261   5.587   5.556
19067SOL    HW158975  14.337   5.631   5.519
19067SOL    HW258976  14.237   5.640   5.631
19068SOL     OW58977   0.936  13.707   4.051
19068SOL    HW158978   0.867  13.700   4.118
19068SOL    HW258979   0.960  13.617   4.032
19069SOL     OW58980  14.380   2.062   4.078
19069SOL    HW158981  14.320   2.072   4.151
19069SOL    HW258982  14.357   2.133   4.018
19070SOL     OW58983  10.845  14.593   0.414
19070SOL    HW158984  10.840  14.661   0.347
19070SOL    HW258985  10.931  14.554   0.402
19071SOL     OW58986   1.774   7.178   4.542
19071SOL    HW158987   1.779   7.125   4.463
19071SOL    HW258988   1.680   7.187   4.560
19072SOL     OW58989  11.122  14.766   7.950
19072SOL    HW158990  11.038  14.720   7.943
19072SOL    HW258991  11.170  14.719   8.018
19073SOL     OW58992   3.012  14.277  11.743
19073SOL    HW158993   3.096  14.237  11.763
19073SOL    HW258994   2.985  14.320  11.824
19074SOL     OW58995   9.718  10.666   4.740
19074SOL    HW158996   9.729  10.741   4.681
19074SOL    HW258997   9.746  10.699   4.825
19075SOL     OW58998  10.749  11.696   6.862
19075SOL    HW158999  10.662  11.729   6.838
19075SOL    HW259000  10.744  11.684   6.957
19076SOL     OW59001   1.809  10.767   3.892
19076SOL    HW159002   1.721  10.774   3.855
19076SOL    HW259003   1.801  10.703   3.963
19077SOL     OW59004   1.843  11.147  13.809
19077SOL    HW159005   1.910  11.128  13.743
19077SOL    HW259006   1.891  11.150  13.892
19078SOL     OW59007   6.089  13.170   3.680
19078SOL    HW159008   6.148  13.125   3.620
19078SOL    HW259009   6.145  13.228   3.731
19079SOL     OW59010   0.140  12.953   5.611
19079SOL    HW159011   0.178  12.964   5.698
19079SOL    HW259012   0.046  12.969   5.624
19080SOL     OW59013   2.604   1.661   2.003
19080SOL    HW159014   2.692   1.625   2.013
19080SOL    HW259015   2.547   1.599   2.050
19081SOL     OW59016  12.873   8.207   1.277
19081SOL    HW159017  12.901   8.244   1.361
19081SOL    HW259018  12.786   8.246   1.262
19082SOL     OW59019  14.183  10.505   0.553
19082SOL    HW159020  14.182  10.562   0.630
19082SOL    HW259021  14.099  10.460   0.555
19083SOL     OW59022  12.069   9.697   5.802
19083SOL    HW159023  12.054   9.707   5.708
19083SOL    HW259024  12.114   9.613   5.810
19084SOL     OW59025   1.189   0.421   1.433
19084SOL    HW159026   1.216   0.513   1.424
19084SOL    HW259027   1.131   0.406   1.359
19085SOL     OW59028   7.890   9.274   4.776
19085SOL    HW159029   7.929   9.246   4.858
19085SOL    HW259030   7.799   9.296   4.799
19086SOL     OW59031  10.238   7.943   1.562
19086SOL    HW159032  10.179   7.985   1.625
19086SOL    HW259033  10.325   7.956   1.600
19087SOL     OW59034   6.072   8.356   8.074
19087SOL    HW159035   6.014   8.294   8.119
19087SOL    HW259036   6.107   8.411   8.144
19088SOL     OW59037   4.642   7.974   8.108
19088SOL    HW159038   4.672   8.065   8.106
19088SOL    HW259039   4.695   7.930   8.041
19089SOL     OW59040   7.700   3.760  14.398
19089SOL    HW159041   7.745   3.679  14.375
19089SOL    HW259042   7.628   3.732  14.455
19090SOL     OW59043  10.141   5.107   1.801
19090SOL    HW159044  10.082   5.163   1.750
19090SOL    HW259045  10.228   5.126   1.766
19091SOL     OW59046   1.676   0.652  13.855
19091SOL    HW159047   1.674   0.732  13.907
19091SOL    HW259048   1.587   0.642  13.822
19092SOL     OW59049  13.135  11.299   0.316
19092SOL    HW159050  13.069  11.232   0.300
19092SOL    HW259051  13.218  11.255   0.298
19093SOL     OW59052   5.486   2.063  11.519
19093SOL    HW159053   5.484   2.145  11.568
19093SOL    HW259054   5.397   2.029  11.526
19094SOL     OW59055   6.552   1.435   5.158
19094SOL    HW159056   6.468   1.402   5.128
19094SOL    HW259057   6.584   1.368   5.219
19095SOL     OW59058   0.466   3.186   1.391
19095SOL    HW159059   0.487   3.097   1.361
19095SOL    HW259060   0.414   3.173   1.470
19096SOL     OW59061   2.555   8.149  10.184
19096SOL    HW159062   2.480   8.180  10.235
19096SOL    HW259063   2.578   8.065  10.224
19097SOL     OW59064   8.699   3.209  13.279
19097SOL    HW159065   8.628   3.267  13.253
19097SOL    HW259066   8.703   3.143  13.209
19098SOL     OW59067  14.746  10.042  11.114
19098SOL    HW159068  14.754   9.947  11.124
19098SOL    HW259069  14.668  10.064  11.165
19099SOL     OW59070  10.262  11.740   8.899
19099SOL    HW159071  10.285  11.701   8.983
19099SOL    HW259072  10.170  11.718   8.887
19100SOL     OW59073   3.309   4.880  10.175
19100SOL    HW159074   3.245   4.869  10.246
19100SOL    HW259075   3.313   4.975  10.163
19101SOL     OW59076  12.367   1.147  11.743
19101SOL    HW159077  12.339   1.198  11.819
19101SOL    HW259078  12.324   1.062  11.754
19102SOL     OW59079   4.759   7.430   1.485
19102SOL    HW159080   4.742   7.414   1.392
19102SOL    HW259081   4.683   7.479   1.515
19103SOL     OW59082  12.230  12.593   5.657
19103SOL    HW159083  12.202  12.684   5.672
19103SOL    HW259084  12.308  12.584   5.711
19104SOL     OW59085  14.316   3.030   6.773
19104SOL    HW159086  14.287   3.040   6.682
19104SOL    HW259087  14.236   3.009   6.821
19105SOL     OW59088  11.224   4.947   3.797
19105SOL    HW159089  11.208   5.024   3.742
19105SOL    HW259090  11.141   4.899   3.796
19106SOL     OW59091   2.738   5.354   2.693
19106SOL    HW159092   2.694   5.327   2.774
19106SOL    HW259093   2.680   5.323   2.623
19107SOL     OW59094   3.614   5.159   4.643
19107SOL    HW159095   3.528   5.202   4.636
19107SOL    HW259096   3.656   5.177   4.559
19108SOL     OW59097   3.515   5.881  14.243
19108SOL    HW159098   3.589   5.936  14.219
19108SOL    HW259099   3.539   5.845  14.328
19109SOL     OW59100   8.240   4.650  12.654
19109SOL    HW159101   8.220   4.716  12.720
19109SOL    HW259102   8.330   4.623  12.673
19110SOL     OW59103   3.159  10.388   0.048
19110SOL    HW159104   3.104  10.454   0.006
19110SOL    HW259105   3.097  10.331   0.093
19111SOL     OW59106   0.643   1.770  12.231
19111SOL    HW159107   0.561   1.721  12.239
19111SOL    HW259108   0.681   1.740  12.149
19112SOL     OW59109   5.151   0.639  11.394
19112SOL    HW159110   5.138   0.666  11.303
19112SOL    HW259111   5.124   0.547  11.397
19113SOL     OW59112   3.651   5.955  12.401
19113SOL    HW159113   3.628   5.863  12.390
19113SOL    HW259114   3.747   5.955  12.402
19114SOL     OW59115   6.472   3.164  14.642
19114SOL    HW159116   6.567   3.173  14.643
19114SOL    HW259117   6.444   3.208  14.562
19115SOL     OW59118   6.750   6.578   0.270
19115SOL    HW159119   6.734   6.673   0.277
19115SOL    HW259120   6.755   6.549   0.361
19116SOL     OW59121   2.830  12.465   1.032
19116SOL    HW159122   2.880  12.399   0.983
19116SOL    HW259123   2.868  12.464   1.120
19117SOL     OW59124   9.443   7.668   4.764
19117SOL    HW159125   9.427   7.579   4.734
19117SOL    HW259126   9.448   7.720   4.684
19118SOL     OW59127   5.888   2.138  11.537
19118SOL    HW159128   5.885   2.072  11.468
19118SOL    HW259129   5.882   2.087  11.618
19119SOL     OW59130   9.901  11.044   5.148
19119SOL    HW159131   9.971  11.040   5.213
19119SOL    HW259132   9.820  11.039   5.199
19120SOL     OW59133   9.014  10.997   9.090
19120SOL    HW159134   9.104  10.993   9.057
19120SOL    HW259135   9.017  10.953   9.175
19121SOL     OW59136  13.134   3.265   0.855
19121SOL    HW159137  13.161   3.311   0.934
19121SOL    HW259138  13.155   3.326   0.784
19122SOL     OW59139  11.767   7.219   0.254
19122SOL    HW159140  11.803   7.269   0.327
19122SOL    HW259141  11.736   7.286   0.193
19123SOL     OW59142  14.645   1.455   6.747
19123SOL    HW159143  14.665   1.541   6.784
19123SOL    HW259144  14.675   1.393   6.813
19124SOL     OW59145  10.424  10.609   1.548
19124SOL    HW159146  10.458  10.541   1.490
19124SOL    HW259147  10.340  10.634   1.509
19125SOL     OW59148  13.097   5.471  12.030
19125SOL    HW159149  13.186   5.440  12.045
19125SOL    HW259150  13.100   5.511  11.943
19126SOL     OW59151   7.648  11.662   5.825
19126SOL    HW159152   7.719  11.603   5.799
19126SOL    HW259153   7.650  11.733   5.761
19127SOL     OW59154  14.368   2.973   2.201
19127SOL    HW159155  14.412   2.910   2.258
19127SOL    HW259156  14.310   3.022   2.259
19128SOL     OW59157   3.110   6.723  10.013
19128SOL    HW159158   3.157   6.773   9.947
19128SOL    HW259159   3.028   6.698   9.971
19129SOL     OW59160  10.057   4.567  13.923
19129SOL    HW159161  10.076   4.613  14.005
19129SOL    HW259162  10.135   4.514  13.907
19130SOL     OW59163  12.603  11.448   0.155
19130SOL    HW159164  12.603  11.473   0.063
19130SOL    HW259165  12.680  11.492   0.192
19131SOL     OW59166   7.168   1.444  14.768
19131SOL    HW159167   7.232   1.389  14.812
19131SOL    HW259168   7.178   1.424  14.675
19132SOL     OW59169   5.626  11.782   2.715
19132SOL    HW159170   5.545  11.823   2.744
19132SOL    HW259171   5.631  11.800   2.621
19133SOL     OW59172  13.440   9.775   3.358
19133SOL    HW159173  13.486   9.858   3.345
19133SOL    HW259174  13.469   9.744   3.444
19134SOL     OW59175  11.826  11.966   6.784
19134SOL    HW159176  11.879  11.956   6.705
19134SOL    HW259177  11.737  11.981   6.752
19135SOL     OW59178  10.173  10.055   2.930
19135SOL    HW159179  10.240  10.093   2.872
19135SOL    HW259180  10.196   9.962   2.935
19136SOL     OW59181  13.067  14.582   8.285
19136SOL    HW159182  13.000  14.632   8.331
19136SOL    HW259183  13.050  14.491   8.309
19137SOL     OW59184   9.711   7.509   1.509
19137SOL    HW159185   9.788   7.525   1.453
19137SOL    HW259186   9.713   7.415   1.526
19138SOL     OW59187   7.835   3.559   4.657
19138SOL    HW159188   7.740   3.551   4.662
19138SOL    HW259189   7.862   3.493   4.593
19139SOL     OW59190   1.998   2.088   8.536
19139SOL    HW159191   1.977   2.071   8.628
19139SOL    HW259192   1.915   2.115   8.497
19140SOL     OW59193   9.477   9.515   4.072
19140SOL    HW159194   9.456   9.431   4.112
19140SOL    HW259195   9.448   9.580   4.136
19141SOL     OW59196  11.615  10.987   6.774
19141SOL    HW159197  11.624  11.056   6.840
19141SOL    HW259198  11.652  10.909   6.814
19142SOL     OW59199   1.220  14.668  14.008
19142SOL    HW159200   1.157  14.725  13.965
19142SOL    HW259201   1.234  14.596  13.946
19143SOL     OW59202   4.110  10.422   3.683
19143SOL    HW159203   4.109  10.499   3.626
19143SOL    HW259204   4.160  10.356   3.634
19144SOL     OW59205   0.830   2.482   7.400
19144SOL    HW159206   0.870   2.527   7.326
19144SOL    HW259207   0.740   2.515   7.401
19145SOL     OW59208  14.723   6.145  12.755
19145SOL    HW159209  14.663   6.080  12.792
19145SOL    HW259210  14.745   6.111  12.669
19146SOL     OW59211   4.219   2.078   6.747
19146SOL    HW159212   4.310   2.078   6.776
19146SOL    HW259213   4.222   2.034   6.661
19147SOL     OW59214   0.401   8.018   1.179
19147SOL    HW159215   0.359   8.086   1.232
19147SOL    HW259216   0.330   7.985   1.122
19148SOL     OW59217   5.580  13.626   1.334
19148SOL    HW159218   5.502  13.680   1.346
19148SOL    HW259219   5.561  13.573   1.257
19149SOL     OW59220   5.493   2.801   5.347
19149SOL    HW159221   5.542   2.818   5.267
19149SOL    HW259222   5.526   2.716   5.377
19150SOL     OW59223  10.634   0.647  12.267
19150SOL    HW159224  10.638   0.676  12.358
19150SOL    HW259225  10.542   0.657  12.242
19151SOL     OW59226   3.315   3.953  10.274
19151SOL    HW159227   3.283   3.929  10.361
19151SOL    HW259228   3.380   4.021  10.291
19152SOL     OW59229   3.153   8.984   5.173
19152SOL    HW159230   3.210   8.923   5.220
19152SOL    HW259231   3.175   9.070   5.208
19153SOL     OW59232  13.351  12.484   9.491
19153SOL    HW159233  13.271  12.537   9.490
19153SOL    HW259234  13.350  12.438   9.407
19154SOL     OW59235  14.011   4.517   1.542
19154SOL    HW159236  14.084   4.455   1.554
19154SOL    HW259237  14.048   4.588   1.491
19155SOL     OW59238   9.277   0.033   0.108
19155SOL    HW159239   9.316   0.056   0.023
19155SOL    HW259240   9.328  14.840   0.139
19156SOL     OW59241   6.664   7.886  13.594
19156SOL    HW159242   6.714   7.840  13.660
19156SOL    HW259243   6.716   7.880  13.514
19157SOL     OW59244   1.152  12.698  13.916
19157SOL    HW159245   1.179  12.779  13.960
19157SOL    HW259246   1.213  12.632  13.947
19158SOL     OW59247  11.268  13.146  13.047
19158SOL    HW159248  11.218  13.216  13.089
19158SOL    HW259249  11.263  13.073  13.109
19159SOL     OW59250   9.366   7.989  10.145
19159SOL    HW159251   9.444   7.966  10.093
19159SOL    HW259252   9.314   7.908  10.147
19160SOL     OW59253  14.401  12.446  12.477
19160SOL    HW159254  14.334  12.508  12.508
19160SOL    HW259255  14.483  12.495  12.482
19161SOL     OW59256  14.287   0.995   3.466
19161SOL    HW159257  14.244   0.932   3.409
19161SOL    HW259258  14.319   0.943   3.540
19162SOL     OW59259   2.879   3.846   6.889
19162SOL    HW159260   2.917   3.865   6.803
19162SOL    HW259261   2.946   3.794   6.934
19163SOL     OW59262   7.544   9.491   7.908
19163SOL    HW159263   7.533   9.570   7.856
19163SOL    HW259264   7.480   9.499   7.979
19164SOL     OW59265   3.320   0.127   6.471
19164SOL    HW159266   3.340   0.182   6.547
19164SOL    HW259267   3.368   0.046   6.486
19165SOL     OW59268  13.893   3.867  11.625
19165SOL    HW159269  13.913   3.775  11.636
19165SOL    HW259270  13.933   3.910  11.701
19166SOL     OW59271  10.705  14.557   3.887
19166SOL    HW159272  10.731  14.525   3.973
19166SOL    HW259273  10.609  14.560   3.890
19167SOL     OW59274   4.920   6.691  11.161
19167SOL    HW159275   4.990   6.636  11.193
19167SOL    HW259276   4.941   6.779  11.193
19168SOL     OW59277   2.363   9.437   4.122
19168SOL    HW159278   2.377   9.484   4.204
19168SOL    HW259279   2.421   9.480   4.059
19169SOL     OW59280   4.299  12.052  12.007
19169SOL    HW159281   4.332  12.119  12.067
19169SOL    HW259282   4.290  11.974  12.061
19170SOL     OW59283   5.541   7.400   0.374
19170SOL    HW159284   5.500   7.348   0.305
19170SOL    HW259285   5.504   7.366   0.455
19171SOL     OW59286   1.698   4.035   7.193
19171SOL    HW159287   1.752   4.089   7.135
19171SOL    HW259288   1.664   4.097   7.258
19172SOL     OW59289  10.788   4.658   2.403
19172SOL    HW159290  10.766   4.691   2.316
19172SOL    HW259291  10.843   4.726   2.441
19173SOL     OW59292   2.562   6.901  13.857
19173SOL    HW159293   2.487   6.955  13.881
19173SOL    HW259294   2.622   6.909  13.931
19174SOL     OW59295   7.334   0.336   5.522
19174SOL    HW159296   7.382   0.281   5.584
19174SOL    HW259297   7.269   0.382   5.576
19175SOL     OW59298   5.518   3.767   2.640
19175SOL    HW159299   5.613   3.784   2.640
19175SOL    HW259300   5.511   3.672   2.636
19176SOL     OW59301  13.420   7.630  13.157
19176SOL    HW159302  13.446   7.636  13.065
19176SOL    HW259303  13.442   7.716  13.194
19177SOL     OW59304  13.162   2.204   1.480
19177SOL    HW159305  13.140   2.296   1.489
19177SOL    HW259306  13.167   2.189   1.385
19178SOL     OW59307   8.493   8.275   2.252
19178SOL    HW159308   8.577   8.282   2.298
19178SOL    HW259309   8.514   8.296   2.161
19179SOL     OW59310  14.337  12.118   5.716
19179SOL    HW159311  14.323  12.207   5.682
19179SOL    HW259312  14.261  12.068   5.685
19180SOL     OW59313  14.355   2.745   9.866
19180SOL    HW159314  14.285   2.721   9.928
19180SOL    HW259315  14.387   2.829   9.898
19181SOL     OW59316   1.421   5.307   9.122
19181SOL    HW159317   1.392   5.243   9.056
19181SOL    HW259318   1.490   5.356   9.079
19182SOL     OW59319  13.333   6.517   1.606
19182SOL    HW159320  13.300   6.506   1.695
19182SOL    HW259321  13.291   6.597   1.575
19183SOL     OW59322  13.308   8.311  14.732
19183SOL    HW159323  13.246   8.250  14.693
19183SOL    HW259324  13.391   8.293  14.688
19184SOL     OW59325   1.058   5.385   2.013
19184SOL    HW159326   1.042   5.462   2.067
19184SOL    HW259327   1.054   5.312   2.075
19185SOL     OW59328   6.252   9.845   5.783
19185SOL    HW159329   6.284   9.756   5.797
19185SOL    HW259330   6.242   9.853   5.688
19186SOL     OW59331   9.457   4.585   8.175
19186SOL    HW159332   9.527   4.620   8.119
19186SOL    HW259333   9.390   4.653   8.175
19187SOL     OW59334  12.033   1.423   4.680
19187SOL    HW159335  12.073   1.365   4.615
19187SOL    HW259336  11.945   1.440   4.647
19188SOL     OW59337   5.658   2.013  14.141
19188SOL    HW159338   5.725   2.060  14.191
19188SOL    HW259339   5.585   2.074  14.135
19189SOL     OW59340   4.957   8.638   8.729
19189SOL    HW159341   5.034   8.601   8.685
19189SOL    HW259342   4.956   8.597   8.815
19190SOL     OW59343  12.542   5.669   5.815
19190SOL    HW159344  12.559   5.599   5.752
19190SOL    HW259345  12.461   5.644   5.859
19191SOL     OW59346   2.632   8.362  11.121
19191SOL    HW159347   2.650   8.275  11.086
19191SOL    HW259348   2.687   8.370  11.198
19192SOL     OW59349   0.917  12.123   5.615
19192SOL    HW159350   0.910  12.042   5.565
19192SOL    HW259351   0.898  12.097   5.705
19193SOL     OW59352   0.036  10.869  10.659
19193SOL    HW159353   0.062  10.826  10.740
19193SOL    HW259354  14.867  10.946  10.688
19194SOL     OW59355   3.751  12.683   1.784
19194SOL    HW159356   3.659  12.693   1.760
19194SOL    HW259357   3.756  12.596   1.823
19195SOL     OW59358   5.471  14.773   2.244
19195SOL    HW159359   5.536  14.779   2.174
19195SOL    HW259360   5.387  14.793   2.201
19196SOL     OW59361   0.262   5.464   7.742
19196SOL    HW159362   0.263   5.512   7.824
19196SOL    HW259363   0.210   5.386   7.761
19197SOL     OW59364   0.582   4.049  14.197
19197SOL    HW159365   0.622   3.966  14.170
19197SOL    HW259366   0.628   4.073  14.277
19198SOL     OW59367  12.795   6.305   7.389
19198SOL    HW159368  12.726   6.304   7.456
19198SOL    HW259369  12.751   6.278   7.308
19199SOL     OW59370   7.405   6.015  14.564
19199SOL    HW159371   7.354   5.942  14.601
19199SOL    HW259372   7.490   6.009  14.608
19200SOL     OW59373   7.724  14.196   0.635
19200SOL    HW159374   7.782  14.160   0.702
19200SOL    HW259375   7.700  14.283   0.667
19201SOL     OW59376   3.209   2.757   3.347
19201SOL    HW159377   3.242   2.670   3.327
19201SOL    HW259378   3.194   2.798   3.262
19202SOL     OW59379   8.975   3.311  13.215
19202SOL    HW159380   8.988   3.402  13.242
19202SOL    HW259381   8.888   3.288  13.250
19203SOL     OW59382   6.691  11.299   3.134
19203SOL    HW159383   6.786  11.302   3.137
19203SOL    HW259384   6.671  11.218   3.086
19204SOL     OW59385  12.749  13.300   5.439
19204SOL    HW159386  12.825  13.246   5.418
19204SOL    HW259387  12.682  13.271   5.376
19205SOL     OW59388   2.972   2.507   4.196
19205SOL    HW159389   2.888   2.490   4.153
19205SOL    HW259390   2.956   2.487   4.288
19206SOL     OW59391  12.811   2.811   4.700
19206SOL    HW159392  12.719   2.828   4.683
19206SOL    HW259393  12.843   2.890   4.744
19207SOL     OW59394   5.112   7.012   1.353
19207SOL    HW159395   5.061   7.036   1.430
19207SOL    HW259396   5.140   6.922   1.369
19208SOL     OW59397  14.133   3.601  11.535
19208SOL    HW159398  14.093   3.609  11.622
19208SOL    HW259399  14.214   3.650  11.542
19209SOL     OW59400  12.122   0.116   5.883
19209SOL    HW159401  12.137   0.108   5.789
19209SOL    HW259402  12.092   0.029   5.910
19210SOL     OW59403   0.701   5.580   3.561
19210SOL    HW159404   0.688   5.616   3.473
19210SOL    HW259405   0.796   5.575   3.570
19211SOL     OW59406  11.461   6.391  11.332
19211SOL    HW159407  11.435   6.339  11.408
19211SOL    HW259408  11.381   6.402  11.282
19212SOL     OW59409  10.585   1.480   7.000
19212SOL    HW159410  10.623   1.398   7.033
19212SOL    HW259411  10.553   1.458   6.913
19213SOL     OW59412   6.234   6.925  11.138
19213SOL    HW159413   6.253   6.840  11.098
19213SOL    HW259414   6.319   6.969  11.143
19214SOL     OW59415   6.036   1.854  12.250
19214SOL    HW159416   6.085   1.905  12.315
19214SOL    HW259417   5.956   1.905  12.235
19215SOL     OW59418   1.679   3.074   8.843
19215SOL    HW159419   1.667   3.124   8.762
19215SOL    HW259420   1.617   3.112   8.905
19216SOL     OW59421   9.498  13.090   8.106
19216SOL    HW159422   9.575  13.061   8.057
19216SOL    HW259423   9.519  13.179   8.134
19217SOL     OW59424  13.918   6.481   6.472
19217SOL    HW159425  13.847   6.436   6.519
19217SOL    HW259426  13.936   6.425   6.396
19218SOL     OW59427   0.009   6.263   1.062
19218SOL    HW159428   0.026   6.325   1.132
19218SOL    HW259429  14.842   6.313   0.996
19219SOL     OW59430   2.650   1.730   7.446
19219SOL    HW159431   2.644   1.636   7.461
19219SOL    HW259432   2.656   1.740   7.351
19220SOL     OW59433  14.088  14.012   6.698
19220SOL    HW159434  14.149  13.950   6.658
19220SOL    HW259435  14.124  14.031   6.784
19221SOL     OW59436  11.139   0.523   6.744
19221SOL    HW159437  11.221   0.490   6.781
19221SOL    HW259438  11.095   0.566   6.817
19222SOL     OW59439   8.248  10.327   6.891
19222SOL    HW159440   8.154  10.316   6.876
19222SOL    HW259441   8.268  10.264   6.961
19223SOL     OW59442   7.674   1.824   5.104
19223SOL    HW159443   7.735   1.751   5.115
19223SOL    HW259444   7.598   1.786   5.061
19224SOL     OW59445   6.561  11.538   0.197
19224SOL    HW159446   6.633  11.600   0.210
19224SOL    HW259447   6.603  11.452   0.203
19225SOL     OW59448   4.052   9.907   2.592
19225SOL    HW159449   3.993   9.883   2.520
19225SOL    HW259450   4.043  10.002   2.599
19226SOL     OW59451   5.137  10.719  12.264
19226SOL    HW159452   5.134  10.630  12.298
19226SOL    HW259453   5.062  10.725  12.205
19227SOL     OW59454  12.670   9.853   1.571
19227SOL    HW159455  12.758   9.822   1.593
19227SOL    HW259456  12.679   9.892   1.485
19228SOL     OW59457   1.417  14.471   7.709
19228SOL    HW159458   1.498  14.420   7.696
19228SOL    HW259459   1.351  14.426   7.656
19229SOL     OW59460  10.922  10.809   8.440
19229SOL    HW159461  10.941  10.863   8.363
19229SOL    HW259462  10.912  10.720   8.406
19230SOL     OW59463   7.797   7.941   3.297
19230SOL    HW159464   7.704   7.963   3.302
19230SOL    HW259465   7.830   7.951   3.386
19231SOL     OW59466   0.075   4.715   9.149
19231SOL    HW159467  14.866   4.746   9.158
19231SOL    HW259468   0.114   4.732   9.235
19232SOL     OW59469  12.892   7.140  13.317
19232SOL    HW159470  12.811   7.191  13.310
19232SOL    HW259471  12.885   7.074  13.249
19233SOL     OW59472  13.527  13.092  13.678
19233SOL    HW159473  13.517  13.077  13.584
19233SOL    HW259474  13.449  13.052  13.717
19234SOL     OW59475   6.818   9.851   7.407
19234SOL    HW159476   6.909   9.872   7.428
19234SOL    HW259477   6.787   9.926   7.356
19235SOL     OW59478   1.723   7.083   6.883
19235SOL    HW159479   1.737   7.015   6.948
19235SOL    HW259480   1.760   7.162   6.922
19236SOL     OW59481  11.969   6.282   4.676
19236SOL    HW159482  12.037   6.315   4.617
19236SOL    HW259483  12.003   6.299   4.764
19237SOL     OW59484   8.003  13.595  11.992
19237SOL    HW159485   7.912  13.569  12.006
19237SOL    HW259486   8.022  13.656  12.063
19238SOL     OW59487   4.541   1.128   2.950
19238SOL    HW159488   4.634   1.143   2.935
19238SOL    HW259489   4.528   1.151   3.042
19239SOL     OW59490   1.054   8.580   6.493
19239SOL    HW159491   0.996   8.575   6.568
19239SOL    HW259492   1.124   8.640   6.520
19240SOL     OW59493   5.023   7.615   2.931
19240SOL    HW159494   4.977   7.689   2.970
19240SOL    HW259495   5.109   7.616   2.973
19241SOL     OW59496  11.179   7.353   9.445
19241SOL    HW159497  11.180   7.330   9.538
19241SOL    HW259498  11.193   7.270   9.400
19242SOL     OW59499  11.765   9.047   7.994
19242SOL    HW159500  11.760   8.962   8.036
19242SOL    HW259501  11.846   9.046   7.944
19243SOL     OW59502  11.550  11.450   6.383
19243SOL    HW159503  11.552  11.396   6.304
19243SOL    HW259504  11.594  11.531   6.358
19244SOL     OW59505   0.607   8.387  12.204
19244SOL    HW159506   0.630   8.452  12.270
19244SOL    HW259507   0.670   8.316  12.217
19245SOL     OW59508  14.443   4.547   8.904
19245SOL    HW159509  14.438   4.636   8.938
19245SOL    HW259510  14.498   4.554   8.825
19246SOL     OW59511   9.342   9.199   2.288
19246SOL    HW159512   9.396   9.255   2.343
19246SOL    HW259513   9.279   9.160   2.348
19247SOL     OW59514  14.730  10.461  14.859
19247SOL    HW159515  14.761  10.489  14.773
19247SOL    HW259516  14.704  10.542   0.021
19248SOL     OW59517   5.864  11.070   3.828
19248SOL    HW159518   5.947  11.076   3.780
19248SOL    HW259519   5.835  10.980   3.814
19249SOL     OW59520   2.831  12.815  13.122
19249SOL    HW159521   2.758  12.849  13.174
19249SOL    HW259522   2.901  12.880  13.133
19250SOL     OW59523  12.546  12.475   8.841
19250SOL    HW159524  12.583  12.399   8.885
19250SOL    HW259525  12.451  12.468   8.857
19251SOL     OW59526   1.689   3.332   8.065
19251SOL    HW159527   1.604   3.361   8.097
19251SOL    HW259528   1.748   3.406   8.081
19252SOL     OW59529  10.329   9.883   5.567
19252SOL    HW159530  10.391   9.944   5.528
19252SOL    HW259531  10.273   9.937   5.623
19253SOL     OW59532   2.693   1.119  10.182
19253SOL    HW159533   2.777   1.148  10.146
19253SOL    HW259534   2.654   1.066  10.112
19254SOL     OW59535   8.336   4.642  14.182
19254SOL    HW159536   8.396   4.710  14.154
19254SOL    HW259537   8.357   4.627  14.274
19255SOL     OW59538   5.694  12.581   2.828
19255SOL    HW159539   5.747  12.632   2.889
19255SOL    HW259540   5.674  12.643   2.757
19256SOL     OW59541   8.742   4.912  10.139
19256SOL    HW159542   8.785   4.830  10.164
19256SOL    HW259543   8.814   4.975  10.132
19257SOL     OW59544   6.261   8.189   2.959
19257SOL    HW159545   6.228   8.194   3.049
19257SOL    HW259546   6.342   8.239   2.960
19258SOL     OW59547  12.660   0.222   1.936
19258SOL    HW159548  12.584   0.167   1.914
19258SOL    HW259549  12.631   0.311   1.915
19259SOL     OW59550   6.587   6.048  10.933
19259SOL    HW159551   6.584   6.029  11.027
19259SOL    HW259552   6.677   6.028  10.908
19260SOL     OW59553  10.575  13.992   3.814
19260SOL    HW159554  10.630  13.961   3.886
19260SOL    HW259555  10.561  13.914   3.760
19261SOL     OW59556   5.741   8.540   7.090
19261SOL    HW159557   5.748   8.462   7.144
19261SOL    HW259558   5.723   8.507   7.002
19262SOL     OW59559   1.666  13.902   5.255
19262SOL    HW159560   1.720  13.842   5.204
19262SOL    HW259561   1.647  13.854   5.336
19263SOL     OW59562  12.722  11.880   8.165
19263SOL    HW159563  12.650  11.925   8.121
19263SOL    HW259564  12.685  11.795   8.190
19264SOL     OW59565  11.761   5.989   6.303
19264SOL    HW159566  11.848   5.980   6.264
19264SOL    HW259567  11.737   6.081   6.290
19265SOL     OW59568   4.827  13.278   4.086
19265SOL    HW159569   4.777  13.333   4.026
19265SOL    HW259570   4.768  13.206   4.108
19266SOL     OW59571  12.375   9.631   5.860
19266SOL    HW159572  12.413   9.712   5.826
19266SOL    HW259573  12.308   9.660   5.921
19267SOL     OW59574   8.949   4.863   0.746
19267SOL    HW159575   9.045   4.867   0.743
19267SOL    HW259576   8.922   4.953   0.765
19268SOL     OW59577  10.421   5.445  14.313
19268SOL    HW159578  10.338   5.401  14.331
19268SOL    HW259579  10.402   5.538  14.322
19269SOL     OW59580   8.444  11.664   2.167
19269SOL    HW159581   8.453  11.611   2.089
19269SOL    HW259582   8.371  11.723   2.149
19270SOL     OW59583   9.726   9.009   4.996
19270SOL    HW159584   9.642   8.964   5.000
19270SOL    HW259585   9.709   9.095   5.034
19271SOL     OW59586  13.320   9.286  10.606
19271SOL    HW159587  13.415   9.274  10.612
19271SOL    HW259588  13.301   9.280  10.512
19272SOL     OW59589   8.797  12.623   5.643
19272SOL    HW159590   8.836  12.544   5.605
19272SOL    HW259591   8.739  12.656   5.575
19273SOL     OW59592   1.771   6.267   1.643
19273SOL    HW159593   1.696   6.246   1.699
19273SOL    HW259594   1.800   6.353   1.672
19274SOL     OW59595   4.143   3.586  13.893
19274SOL    HW159596   4.066   3.543  13.857
19274SOL    HW259597   4.214   3.564  13.832
19275SOL     OW59598  10.656   9.206   2.699
19275SOL    HW159599  10.608   9.196   2.781
19275SOL    HW259600  10.597   9.172   2.632
19276SOL     OW59601  12.096   1.458   5.008
19276SOL    HW159602  12.083   1.415   4.924
19276SOL    HW259603  12.186   1.489   5.006
19277SOL     OW59604  10.014  10.956   4.148
19277SOL    HW159605   9.983  10.924   4.233
19277SOL    HW259606  10.060  11.037   4.168
19278SOL     OW59607   2.651  13.353   0.425
19278SOL    HW159608   2.661  13.269   0.381
19278SOL    HW259609   2.573  13.392   0.386
19279SOL     OW59610   7.767   5.789   4.786
19279SOL    HW159611   7.787   5.832   4.870
19279SOL    HW259612   7.714   5.853   4.739
19280SOL     OW59613   3.777   6.817  14.682
19280SOL    HW159614   3.869   6.817  14.707
19280SOL    HW259615   3.765   6.899  14.635
19281SOL     OW59616   1.270   0.837  11.728
19281SOL    HW159617   1.295   0.914  11.780
19281SOL    HW259618   1.246   0.873  11.643
19282SOL     OW59619   8.973   4.789   6.376
19282SOL    HW159620   9.036   4.764   6.309
19282SOL    HW259621   8.988   4.728   6.448
19283SOL     OW59622   0.889   2.841   5.767
19283SOL    HW159623   0.959   2.823   5.705
19283SOL    HW259624   0.852   2.924   5.738
19284SOL     OW59625   7.488  14.821  11.819
19284SOL    HW159626   7.429  14.853  11.751
19284SOL    HW259627   7.484   0.006  11.888
19285SOL     OW59628  14.163   7.797   8.932
19285SOL    HW159629  14.112   7.763   8.858
19285SOL    HW259630  14.196   7.882   8.902
19286SOL     OW59631  12.779   8.037  13.322
19286SOL    HW159632  12.738   8.016  13.239
19286SOL    HW259633  12.782   7.954  13.370
19287SOL     OW59634   7.868   5.825   0.599
19287SOL    HW159635   7.783   5.865   0.613
19287SOL    HW259636   7.926   5.869   0.661
19288SOL     OW59637   9.720  11.439   6.002
19288SOL    HW159638   9.682  11.453   6.089
19288SOL    HW259639   9.802  11.488   6.003
19289SOL     OW59640   4.593   1.375   3.649
19289SOL    HW159641   4.516   1.383   3.706
19289SOL    HW259642   4.665   1.358   3.710
19290SOL     OW59643   6.248   1.126   6.602
19290SOL    HW159644   6.159   1.092   6.612
19290SOL    HW259645   6.255   1.147   6.509
19291SOL     OW59646   4.732   2.481  12.415
19291SOL    HW159647   4.681   2.447  12.342
19291SOL    HW259648   4.762   2.566  12.386
19292SOL     OW59649   3.718  12.446   4.353
19292SOL    HW159650   3.738  12.475   4.264
19292SOL    HW259651   3.671  12.519   4.392
19293SOL     OW59652  10.610   6.764  14.302
19293SOL    HW159653  10.548   6.691  14.293
19293SOL    HW259654  10.565   6.827  14.358
19294SOL     OW59655   3.728   2.871  14.716
19294SOL    HW159656   3.691   2.784  14.704
19294SOL    HW259657   3.789   2.882  14.642
19295SOL     OW59658  13.894   8.921   1.296
19295SOL    HW159659  13.878   8.982   1.368
19295SOL    HW259660  13.903   8.977   1.219
19296SOL     OW59661  11.876  13.981  10.412
19296SOL    HW159662  11.833  14.061  10.441
19296SOL    HW259663  11.828  13.911  10.456
19297SOL     OW59664  12.734   2.879   3.146
19297SOL    HW159665  12.772   2.964   3.170
19297SOL    HW259666  12.799   2.840   3.086
19298SOL     OW59667   6.636   4.131   2.208
19298SOL    HW159668   6.613   4.052   2.160
19298SOL    HW259669   6.561   4.189   2.197
19299SOL     OW59670   9.526  12.176  12.994
19299SOL    HW159671   9.453  12.125  13.027
19299SOL    HW259672   9.601  12.116  12.998
19300SOL     OW59673   2.553   4.987  12.955
19300SOL    HW159674   2.476   4.941  12.987
19300SOL    HW259675   2.535   5.079  12.971
19301SOL     OW59676   8.903  13.625   9.347
19301SOL    HW159677   8.993  13.617   9.378
19301SOL    HW259678   8.877  13.537   9.322
19302SOL     OW59679   9.758   9.488   4.036
19302SOL    HW159680   9.665   9.513   4.039
19302SOL    HW259681   9.799   9.540   4.106
19303SOL     OW59682   5.034   8.659   2.135
19303SOL    HW159683   5.004   8.569   2.137
19303SOL    HW259684   5.090   8.664   2.058
19304SOL     OW59685  14.722  11.058  10.775
19304SOL    HW159686  14.666  11.130  10.747
19304SOL    HW259687  14.674  10.979  10.750
19305SOL     OW59688   7.703   4.911  12.380
19305SOL    HW159689   7.752   4.829  12.387
19305SOL    HW259690   7.621   4.887  12.338
19306SOL     OW59691  13.416  10.396   9.816
19306SOL    HW159692  13.376  10.449   9.747
19306SOL    HW259693  13.397  10.305   9.790
19307SOL     OW59694  13.577   8.745  12.255
19307SOL    HW159695  13.533   8.828  12.272
19307SOL    HW259696  13.636   8.734  12.329
19308SOL     OW59697  10.772   9.152  12.179
19308SOL    HW159698  10.756   9.141  12.085
19308SOL    HW259699  10.863   9.123  12.190
19309SOL     OW59700  14.412   3.431   1.864
19309SOL    HW159701  14.396   3.350   1.912
19309SOL    HW259702  14.340   3.489   1.888
19310SOL     OW59703   6.036   6.637   5.390
19310SOL    HW159704   6.073   6.602   5.309
19310SOL    HW259705   6.103   6.697   5.423
19311SOL     OW59706   7.337  12.446  10.155
19311SOL    HW159707   7.277  12.426  10.227
19311SOL    HW259708   7.303  12.396  10.081
19312SOL     OW59709   5.123   0.912  10.909
19312SOL    HW159710   5.213   0.943  10.918
19312SOL    HW259711   5.119   0.834  10.964
19313SOL     OW59712   8.547  10.159   3.291
19313SOL    HW159713   8.580  10.116   3.370
19313SOL    HW259714   8.452  10.158   3.302
19314SOL     OW59715  12.761  12.179   0.340
19314SOL    HW159716  12.743  12.154   0.431
19314SOL    HW259717  12.682  12.225   0.312
19315SOL     OW59718   4.982   5.680   8.643
19315SOL    HW159719   4.994   5.757   8.587
19315SOL    HW259720   4.981   5.715   8.732
19316SOL     OW59721   0.913   7.240   1.751
19316SOL    HW159722   0.932   7.177   1.682
19316SOL    HW259723   0.843   7.295   1.715
19317SOL     OW59724   9.517   0.053   8.629
19317SOL    HW159725   9.527   0.111   8.705
19317SOL    HW259726   9.556  14.852   8.657
19318SOL     OW59727   8.673  12.806   1.851
19318SOL    HW159728   8.696  12.899   1.849
19318SOL    HW259729   8.585  12.802   1.815
19319SOL     OW59730  10.406  12.262   0.376
19319SOL    HW159731  10.426  12.170   0.391
19319SOL    HW259732  10.330  12.280   0.431
19320SOL     OW59733  12.373  10.725   7.617
19320SOL    HW159734  12.405  10.691   7.533
19320SOL    HW259735  12.453  10.743   7.667
19321SOL     OW59736   0.924  10.276   6.980
19321SOL    HW159737   0.957  10.349   6.927
19321SOL    HW259738   1.000  10.219   6.990
19322SOL     OW59739   8.875   5.346   8.564
19322SOL    HW159740   8.824   5.265   8.559
19322SOL    HW259741   8.883   5.364   8.657
19323SOL     OW59742   7.684   6.628   2.393
19323SOL    HW159743   7.691   6.723   2.398
19323SOL    HW259744   7.759   6.595   2.442
19324SOL     OW59745   2.258  11.497   8.990
19324SOL    HW159746   2.317  11.509   9.065
19324SOL    HW259747   2.245  11.402   8.985
19325SOL     OW59748  10.805  14.174   4.812
19325SOL    HW159749  10.805  14.242   4.744
19325SOL    HW259750  10.737  14.112   4.785
19326SOL     OW59751  12.754   3.162   8.524
19326SOL    HW159752  12.825   3.222   8.505
19326SOL    HW259753  12.781   3.079   8.484
19327SOL     OW59754   7.948   1.920   9.406
19327SOL    HW159755   7.972   2.002   9.449
19327SOL    HW259756   7.978   1.931   9.316
19328SOL     OW59757   5.860  10.167   6.671
19328SOL    HW159758   5.955  10.176   6.681
19328SOL    HW259759   5.839  10.088   6.721
19329SOL     OW59760   1.764   1.514   0.417
19329SOL    HW159761   1.721   1.429   0.410
19329SOL    HW259762   1.704   1.567   0.470
19330SOL     OW59763   3.085   9.452  11.136
19330SOL    HW159764   3.173   9.484  11.154
19330SOL    HW259765   3.028   9.512  11.184
19331SOL     OW59766   5.936  10.333   3.873
19331SOL    HW159767   6.032  10.327   3.867
19331SOL    HW259768   5.911  10.383   3.795
19332SOL     OW59769   0.563   1.807   7.133
19332SOL    HW159770   0.524   1.791   7.218
19332SOL    HW259771   0.605   1.893   7.142
19333SOL     OW59772   9.178  12.398   9.626
19333SOL    HW159773   9.235  12.467   9.661
19333SOL    HW259774   9.236  12.323   9.613
19334SOL     OW59775   6.893   9.507   1.464
19334SOL    HW159776   6.894   9.603   1.470
19334SOL    HW259777   6.982   9.481   1.490
19335SOL     OW59778  14.595   3.406  12.629
19335SOL    HW159779  14.533   3.346  12.670
19335SOL    HW259780  14.674   3.398  12.681
19336SOL     OW59781   7.661   9.321   8.200
19336SOL    HW159782   7.638   9.256   8.266
19336SOL    HW259783   7.755   9.307   8.184
19337SOL     OW59784   3.221   7.047  11.902
19337SOL    HW159785   3.272   7.031  11.822
19337SOL    HW259786   3.279   7.019  11.973
19338SOL     OW59787  14.428   4.762  14.709
19338SOL    HW159788  14.387   4.791  14.790
19338SOL    HW259789  14.461   4.674  14.729
19339SOL     OW59790   6.358  11.677   3.867
19339SOL    HW159791   6.284  11.616   3.866
19339SOL    HW259792   6.334  11.741   3.935
19340SOL     OW59793   5.217  14.837   7.972
19340SOL    HW159794   5.166   0.036   7.972
19340SOL    HW259795   5.307  14.865   7.985
19341SOL     OW59796  14.311   2.384  10.258
19341SOL    HW159797  14.306   2.391  10.353
19341SOL    HW259798  14.382   2.444  10.233
19342SOL     OW59799  12.352   4.409   0.690
19342SOL    HW159800  12.342   4.316   0.710
19342SOL    HW259801  12.443   4.419   0.665
19343SOL     OW59802   1.414   1.233   1.024
19343SOL    HW159803   1.468   1.311   1.041
19343SOL    HW259804   1.474   1.159   1.036
19344SOL     OW59805  11.260   0.455   0.552
19344SOL    HW159806  11.200   0.419   0.487
19344SOL    HW259807  11.319   0.382   0.574
19345SOL     OW59808  14.606  12.351   0.984
19345SOL    HW159809  14.631  12.262   1.008
19345SOL    HW259810  14.635  12.405   1.058
19346SOL     OW59811   0.016   2.318   4.900
19346SOL    HW159812  14.874   2.351   4.987
19346SOL    HW259813  14.815   2.316   4.852
19347SOL     OW59814   3.010   4.656   1.200
19347SOL    HW159815   3.041   4.745   1.179
19347SOL    HW259816   2.953   4.668   1.276
19348SOL     OW59817  10.175   9.168  11.878
19348SOL    HW159818  10.249   9.197  11.825
19348SOL    HW259819  10.209   9.163  11.967
19349SOL     OW59820   3.818  14.552  14.843
19349SOL    HW159821   3.806  14.483   0.027
19349SOL    HW259822   3.765  14.523  14.769
19350SOL     OW59823  13.599   1.913   6.240
19350SOL    HW159824  13.655   1.857   6.294
19350SOL    HW259825  13.521   1.860   6.223
19351SOL     OW59826   4.152   4.293  12.302
19351SOL    HW159827   4.123   4.227  12.240
19351SOL    HW259828   4.120   4.376  12.266
19352SOL     OW59829   7.440  11.420  11.144
19352SOL    HW159830   7.410  11.336  11.178
19352SOL    HW259831   7.511  11.447  11.202
19353SOL     OW59832  13.799   9.553  13.158
19353SOL    HW159833  13.860   9.488  13.124
19353SOL    HW259834  13.767   9.599  13.081
19354SOL     OW59835  11.142   2.054  14.329
19354SOL    HW159836  11.110   1.979  14.279
19354SOL    HW259837  11.075   2.070  14.395
19355SOL     OW59838   9.816   3.410   5.991
19355SOL    HW159839   9.825   3.500   5.960
19355SOL    HW259840   9.732   3.380   5.955
19356SOL     OW59841  11.994  11.553  11.056
19356SOL    HW159842  11.976  11.519  11.144
19356SOL    HW259843  11.923  11.615  11.039
19357SOL     OW59844   5.617   6.987   9.742
19357SOL    HW159845   5.704   6.967   9.707
19357SOL    HW259846   5.609   6.933   9.820
19358SOL     OW59847  12.221   7.122   1.996
19358SOL    HW159848  12.133   7.112   1.959
19358SOL    HW259849  12.274   7.059   1.948
19359SOL     OW59850   4.085   1.087   7.524
19359SOL    HW159851   4.081   1.162   7.465
19359SOL    HW259852   4.019   1.104   7.591
19360SOL     OW59853  13.671   5.848   1.226
19360SOL    HW159854  13.641   5.848   1.317
19360SOL    HW259855  13.654   5.937   1.195
19361SOL     OW59856  11.099   4.851   6.333
19361SOL    HW159857  11.119   4.760   6.310
19361SOL    HW259858  11.004   4.858   6.325
19362SOL     OW59859   7.205   6.485   6.581
19362SOL    HW159860   7.255   6.412   6.618
19362SOL    HW259861   7.187   6.542   6.656
19363SOL     OW59862   0.939   4.660  11.272
19363SOL    HW159863   0.937   4.653  11.367
19363SOL    HW259864   0.922   4.571  11.240
19364SOL     OW59865  11.324   6.495   2.873
19364SOL    HW159866  11.358   6.575   2.911
19364SOL    HW259867  11.232   6.492   2.899
19365SOL     OW59868  14.830   3.168   6.219
19365SOL    HW159869  14.812   3.108   6.291
19365SOL    HW259870  14.760   3.234   6.224
19366SOL     OW59871   5.057   7.569   7.200
19366SOL    HW159872   5.046   7.476   7.221
19366SOL    HW259873   4.983   7.589   7.142
19367SOL     OW59874   1.929  11.291   6.684
19367SOL    HW159875   1.846  11.283   6.732
19367SOL    HW259876   1.992  11.242   6.736
19368SOL     OW59877  11.481   1.157   0.573
19368SOL    HW159878  11.439   1.097   0.634
19368SOL    HW259879  11.478   1.242   0.617
19369SOL     OW59880   8.681  13.681   4.995
19369SOL    HW159881   8.729  13.604   4.963
19369SOL    HW259882   8.632  13.650   5.071
19370SOL     OW59883  13.968   5.320   0.811
19370SOL    HW159884  13.961   5.289   0.902
19370SOL    HW259885  13.882   5.355   0.791
19371SOL     OW59886   3.623  11.911  13.905
19371SOL    HW159887   3.710  11.887  13.938
19371SOL    HW259888   3.623  12.006  13.903
19372SOL     OW59889  12.093   0.929   4.882
19372SOL    HW159890  12.129   0.920   4.793
19372SOL    HW259891  12.117   1.018   4.908
19373SOL     OW59892   8.869   4.633  10.268
19373SOL    HW159893   8.815   4.562  10.303
19373SOL    HW259894   8.903   4.678  10.345
19374SOL     OW59895   4.735   3.860   9.658
19374SOL    HW159896   4.774   3.886   9.574
19374SOL    HW259897   4.644   3.888   9.651
19375SOL     OW59898  13.465   3.059   7.085
19375SOL    HW159899  13.539   3.008   7.116
19375SOL    HW259900  13.495   3.149   7.086
19376SOL     OW59901   3.249  10.108   1.101
19376SOL    HW159902   3.336  10.115   1.064
19376SOL    HW259903   3.253  10.159   1.182
19377SOL     OW59904   5.704  11.222   5.791
19377SOL    HW159905   5.722  11.306   5.832
19377SOL    HW259906   5.691  11.242   5.699
19378SOL     OW59907   5.959  11.295   1.711
19378SOL    HW159908   5.873  11.269   1.676
19378SOL    HW259909   5.969  11.386   1.684
19379SOL     OW59910  13.662   8.772  10.200
19379SOL    HW159911  13.656   8.861  10.233
19379SOL    HW259912  13.699   8.782  10.112
19380SOL     OW59913  10.931   5.532   5.214
19380SOL    HW159914  10.892   5.614   5.244
19380SOL    HW259915  10.890   5.465   5.268
19381SOL     OW59916  14.858  11.344  13.400
19381SOL    HW159917   0.067  11.353  13.372
19381SOL    HW259918  14.840  11.250  13.395
19382SOL     OW59919   4.859   8.468   2.429
19382SOL    HW159920   4.826   8.512   2.506
19382SOL    HW259921   4.831   8.522   2.355
19383SOL     OW59922  11.710  10.638   8.409
19383SOL    HW159923  11.651  10.573   8.370
19383SOL    HW259924  11.656  10.717   8.417
19384SOL     OW59925   0.662   3.681  11.119
19384SOL    HW159926   0.591   3.633  11.076
19384SOL    HW259927   0.618   3.743  11.177
19385SOL     OW59928   5.016  14.344   4.792
19385SOL    HW159929   4.947  14.341   4.726
19385SOL    HW259930   4.973  14.321   4.874
19386SOL     OW59931   7.854  11.737   6.324
19386SOL    HW159932   7.819  11.824   6.302
19386SOL    HW259933   7.858  11.691   6.240
19387SOL     OW59934   1.066   9.103  12.742
19387SOL    HW159935   0.976   9.086  12.771
19387SOL    HW259936   1.120   9.081  12.818
19388SOL     OW59937   8.375   8.426   6.268
19388SOL    HW159938   8.282   8.450   6.271
19388SOL    HW259939   8.420   8.505   6.239
19389SOL     OW59940   0.349  11.006   4.952
19389SOL    HW159941   0.306  11.092   4.952
19389SOL    HW259942   0.369  10.990   4.859
19390SOL     OW59943   3.261   7.588   3.760
19390SOL    HW159944   3.334   7.651   3.754
19390SOL    HW259945   3.234   7.574   3.669
19391SOL     OW59946   0.850   6.583  11.674
19391SOL    HW159947   0.937   6.567  11.638
19391SOL    HW259948   0.866   6.636  11.753
19392SOL     OW59949   5.295   0.403   2.479
19392SOL    HW159950   5.266   0.321   2.521
19392SOL    HW259951   5.214   0.450   2.461
19393SOL     OW59952  12.110   4.474   7.028
19393SOL    HW159953  12.038   4.458   7.089
19393SOL    HW259954  12.122   4.392   6.982
19394SOL     OW59955  10.030   4.420  10.948
19394SOL    HW159956   9.967   4.408  11.019
19394SOL    HW259957  10.025   4.339  10.898
19395SOL     OW59958  13.231  13.652   2.940
19395SOL    HW159959  13.282  13.593   2.995
19395SOL    HW259960  13.184  13.594   2.880
19396SOL     OW59961  11.321   1.928   8.231
19396SOL    HW159962  11.240   1.941   8.181
19396SOL    HW259963  11.358   2.016   8.240
19397SOL     OW59964   3.254  12.044   5.310
19397SOL    HW159965   3.195  12.042   5.235
19397SOL    HW259966   3.272  12.137   5.324
19398SOL     OW59967   6.850  12.509   3.993
19398SOL    HW159968   6.804  12.587   4.023
19398SOL    HW259969   6.787  12.464   3.937
19399SOL     OW59970   3.753   4.578   9.015
19399SOL    HW159971   3.693   4.650   9.031
19399SOL    HW259972   3.703   4.517   8.960
19400SOL     OW59973  10.932   3.848  11.370
19400SOL    HW159974  11.009   3.793  11.353
19400SOL    HW259975  10.902   3.821  11.457
19401SOL     OW59976   4.993  10.850   6.166
19401SOL    HW159977   4.972  10.894   6.084
19401SOL    HW259978   5.087  10.859   6.176
19402SOL     OW59979   2.267  14.317   9.632
19402SOL    HW159980   2.220  14.306   9.715
19402SOL    HW259981   2.264  14.231   9.591
19403SOL     OW59982  11.234  14.154   6.813
19403SOL    HW159983  11.304  14.090   6.826
19403SOL    HW259984  11.209  14.143   6.721
19404SOL     OW59985  14.472   4.243  11.364
19404SOL    HW159986  14.449   4.290  11.444
19404SOL    HW259987  14.567   4.253  11.357
19405SOL     OW59988   2.538   5.629   3.051
19405SOL    HW159989   2.544   5.656   3.142
19405SOL    HW259990   2.447   5.605   3.038
19406SOL     OW59991   5.003   1.665   4.902
19406SOL    HW159992   4.909   1.674   4.886
19406SOL    HW259993   5.044   1.725   4.840
19407SOL     OW59994  11.355  10.518  12.690
19407SOL    HW159995  11.335  10.596  12.638
19407SOL    HW259996  11.450  10.519  12.701
19408SOL     OW59997   9.575   8.009  13.045
19408SOL    HW159998   9.599   7.926  13.084
19408SOL    HW259999   9.550   7.987  12.955
19409SOL     OW60000   3.514   3.325   9.714
19409SOL    HW160001   3.434   3.274   9.721
19409SOL    HW260002   3.491   3.411   9.749
19410SOL     OW60003   5.718   9.682   1.920
19410SOL    HW160004   5.659   9.756   1.911
19410SOL    HW260005   5.671   9.608   1.882
19411SOL     OW60006  13.520   2.685  14.628
19411SOL    HW160007  13.459   2.615  14.604
19411SOL    HW260008  13.526   2.680  14.723
19412SOL     OW60009  12.427   4.826   1.897
19412SOL    HW160010  12.507   4.878   1.892
19412SOL    HW260011  12.428   4.787   1.985
19413SOL     OW60012   2.870   2.891  14.672
19413SOL    HW160013   2.943   2.830  14.658
19413SOL    HW260014   2.796   2.851  14.626
19414SOL     OW60015   5.894   1.313   6.471
19414SOL    HW160016   5.937   1.397   6.454
19414SOL    HW260017   5.897   1.303   6.566
19415SOL     OW60018   6.305  12.959   3.874
19415SOL    HW160019   6.344  13.042   3.900
19415SOL    HW260020   6.212  12.967   3.897
19416SOL     OW60021  11.341   9.068  10.777
19416SOL    HW160022  11.253   9.090  10.809
19416SOL    HW260023  11.327   9.028  10.692
19417SOL     OW60024   7.827  13.702  10.447
19417SOL    HW160025   7.793  13.641  10.381
19417SOL    HW260026   7.838  13.650  10.526
19418SOL     OW60027   2.321  13.922   1.895
19418SOL    HW160028   2.263  13.997   1.887
19418SOL    HW260029   2.409  13.958   1.885
19419SOL     OW60030  11.078  12.385  12.517
19419SOL    HW160031  11.098  12.410  12.607
19419SOL    HW260032  11.109  12.294  12.510
19420SOL     OW60033   7.080   0.000  10.742
19420SOL    HW160034   7.028   0.037  10.670
19420SOL    HW260035   7.170   0.021  10.719
19421SOL     OW60036   7.103   5.511  14.834
19421SOL    HW160037   7.102   5.588   0.010
19421SOL    HW260038   7.019   5.513  14.788
19422SOL     OW60039  12.659   9.478   3.899
19422SOL    HW160040  12.655   9.399   3.846
19422SOL    HW260041  12.578   9.525   3.878
19423SOL     OW60042   7.271  14.001   4.490
19423SOL    HW160043   7.260  13.925   4.547
19423SOL    HW260044   7.235  13.973   4.406
19424SOL     OW60045   7.178  11.092   7.903
19424SOL    HW160046   7.123  11.163   7.936
19424SOL    HW260047   7.217  11.053   7.982
19425SOL     OW60048   9.312   6.698   5.070
19425SOL    HW160049   9.397   6.708   5.111
19425SOL    HW260050   9.294   6.604   5.073
19426SOL     OW60051   8.268   5.672   5.451
19426SOL    HW160052   8.252   5.759   5.488
19426SOL    HW260053   8.208   5.615   5.498
19427SOL     OW60054  14.300   1.245   9.308
19427SOL    HW160055  14.352   1.320   9.282
19427SOL    HW260056  14.237   1.280   9.371
19428SOL     OW60057   9.494   6.222   7.383
19428SOL    HW160058   9.567   6.160   7.384
19428SOL    HW260059   9.446   6.200   7.303
19429SOL     OW60060   0.752   2.597   7.068
19429SOL    HW160061   0.683   2.600   7.135
19429SOL    HW260062   0.823   2.650   7.104
19430SOL     OW60063  10.191   2.306   5.615
19430SOL    HW160064  10.251   2.342   5.551
19430SOL    HW260065  10.104   2.319   5.577
19431SOL     OW60066  10.486   0.486  13.232
19431SOL    HW160067  10.457   0.395  13.237
19431SOL    HW260068  10.582   0.480  13.236
19432SOL     OW60069  13.348   7.157  14.230
19432SOL    HW160070  13.316   7.224  14.170
19432SOL    HW260071  13.408   7.104  14.178
19433SOL     OW60072   8.314   3.006  13.222
19433SOL    HW160073   8.312   2.959  13.305
19433SOL    HW260074   8.333   3.097  13.246
19434SOL     OW60075   7.361   9.346   6.926
19434SOL    HW160076   7.424   9.287   6.886
19434SOL    HW260077   7.317   9.389   6.853
19435SOL     OW60078   0.072   5.341   2.591
19435SOL    HW160079   0.068   5.401   2.665
19435SOL    HW260080  14.869   5.295   2.594
19436SOL     OW60081   0.237   6.593  10.388
19436SOL    HW160082   0.250   6.498  10.397
19436SOL    HW260083   0.253   6.627  10.476
19437SOL     OW60084   5.648  12.020  12.297
19437SOL    HW160085   5.589  11.950  12.322
19437SOL    HW260086   5.734  11.978  12.291
19438SOL     OW60087   8.170   2.027  10.339
19438SOL    HW160088   8.244   1.969  10.359
19438SOL    HW260089   8.189   2.107  10.388
19439SOL     OW60090   6.131  13.324  12.827
19439SOL    HW160091   6.162  13.250  12.879
19439SOL    HW260092   6.050  13.293  12.787
19440SOL     OW60093   3.403  11.411  14.286
19440SOL    HW160094   3.448  11.350  14.228
19440SOL    HW260095   3.399  11.366  14.371
19441SOL     OW60096  12.525   7.907   8.762
19441SOL    HW160097  12.561   7.818   8.773
19441SOL    HW260098  12.452   7.896   8.702
19442SOL     OW60099   5.947   0.601  11.882
19442SOL    HW160100   5.909   0.674  11.834
19442SOL    HW260101   5.889   0.588  11.957
19443SOL     OW60102   7.788   5.568  10.475
19443SOL    HW160103   7.750   5.654  10.491
19443SOL    HW260104   7.838   5.578  10.394
19444SOL     OW60105   3.918   4.973   6.639
19444SOL    HW160106   3.867   4.892   6.648
19444SOL    HW260107   4.003   4.951   6.676
19445SOL     OW60108  12.496   8.441  12.336
19445SOL    HW160109  12.551   8.373  12.374
19445SOL    HW260110  12.543   8.469  12.257
19446SOL     OW60111  13.893   8.298   2.079
19446SOL    HW160112  13.973   8.265   2.121
19446SOL    HW260113  13.919   8.317   1.989
19447SOL     OW60114   6.447   3.917  11.614
19447SOL    HW160115   6.476   3.977  11.683
19447SOL    HW260116   6.352   3.925  11.613
19448SOL     OW60117   4.005  14.539   2.616
19448SOL    HW160118   3.941  14.587   2.667
19448SOL    HW260119   3.967  14.533   2.529
19449SOL     OW60120   1.585   1.528   9.012
19449SOL    HW160121   1.532   1.595   9.056
19449SOL    HW260122   1.598   1.461   9.078
19450SOL     OW60123  10.790   3.247   8.769
19450SOL    HW160124  10.798   3.339   8.742
19450SOL    HW260125  10.738   3.251   8.850
19451SOL     OW60126  11.893   6.379   6.749
19451SOL    HW160127  11.966   6.327   6.715
19451SOL    HW260128  11.816   6.326   6.728
19452SOL     OW60129   0.790   6.564   9.263
19452SOL    HW160130   0.866   6.538   9.315
19452SOL    HW260131   0.745   6.482   9.244
19453SOL     OW60132   8.153   4.080  11.732
19453SOL    HW160133   8.147   4.169  11.697
19453SOL    HW260134   8.214   4.035  11.673
19454SOL     OW60135   9.003   9.564   9.763
19454SOL    HW160136   8.944   9.637   9.782
19454SOL    HW260137   8.946   9.487   9.759
19455SOL     OW60138   1.138   8.775   7.616
19455SOL    HW160139   1.112   8.867   7.609
19455SOL    HW260140   1.231   8.776   7.593
19456SOL     OW60141   3.777   7.213   4.834
19456SOL    HW160142   3.767   7.172   4.920
19456SOL    HW260143   3.758   7.142   4.772
19457SOL     OW60144   8.149   4.721  11.245
19457SOL    HW160145   8.209   4.782  11.288
19457SOL    HW260146   8.202   4.643  11.229
19458SOL     OW60147   7.554   4.606  11.814
19458SOL    HW160148   7.521   4.656  11.739
19458SOL    HW260149   7.484   4.543  11.834
19459SOL     OW60150   2.227   5.948  11.764
19459SOL    HW160151   2.297   5.986  11.711
19459SOL    HW260152   2.208   6.014  11.830
19460SOL     OW60153   0.862   7.329  13.128
19460SOL    HW160154   0.794   7.395  13.142
19460SOL    HW260155   0.894   7.346  13.040
19461SOL     OW60156  11.278   6.068   0.994
19461SOL    HW160157  11.242   5.980   0.990
19461SOL    HW260158  11.368   6.056   1.024
19462SOL     OW60159  12.135   7.334  13.927
19462SOL    HW160160  12.094   7.416  13.900
19462SOL    HW260161  12.223   7.360  13.954
19463SOL     OW60162   5.876   4.673  11.590
19463SOL    HW160163   5.944   4.704  11.650
19463SOL    HW260164   5.794   4.693  11.635
19464SOL     OW60165   3.571   0.320   5.852
19464SOL    HW160166   3.657   0.280   5.864
19464SOL    HW260167   3.509   0.255   5.887
19465SOL     OW60168   3.939  10.455   9.471
19465SOL    HW160169   3.991  10.433   9.549
19465SOL    HW260170   3.982  10.531   9.434
19466SOL     OW60171  11.222   9.822  11.759
19466SOL    HW160172  11.180   9.748  11.715
19466SOL    HW260173  11.165   9.842  11.833
19467SOL     OW60174   8.387   2.079  10.806
19467SOL    HW160175   8.432   2.061  10.723
19467SOL    HW260176   8.313   2.019  10.806
19468SOL     OW60177   7.091   7.309   9.876
19468SOL    HW160178   7.068   7.253   9.802
19468SOL    HW260179   7.074   7.398   9.846
19469SOL     OW60180   5.154   4.572   5.434
19469SOL    HW160181   5.174   4.661   5.463
19469SOL    HW260182   5.236   4.541   5.395
19470SOL     OW60183  14.167  13.701  11.667
19470SOL    HW160184  14.118  13.776  11.635
19470SOL    HW260185  14.136  13.687  11.756
19471SOL     OW60186  10.071  13.764   9.446
19471SOL    HW160187  10.120  13.832   9.400
19471SOL    HW260188   9.987  13.758   9.400
19472SOL     OW60189  13.455  12.185   4.770
19472SOL    HW160190  13.474  12.216   4.681
19472SOL    HW260191  13.359  12.190   4.776
19473SOL     OW60192   3.703   9.454  10.840
19473SOL    HW160193   3.771   9.408  10.890
19473SOL    HW260194   3.622   9.412  10.866
19474SOL     OW60195  14.166   9.760   0.807
19474SOL    HW160196  14.090   9.717   0.767
19474SOL    HW260197  14.142   9.768   0.899
19475SOL     OW60198   3.710  12.586   2.164
19475SOL    HW160199   3.741  12.547   2.246
19475SOL    HW260200   3.751  12.533   2.095
19476SOL     OW60201   4.282  13.214   6.878
19476SOL    HW160202   4.303  13.276   6.948
19476SOL    HW260203   4.218  13.261   6.824
19477SOL     OW60204   3.078  13.935  10.533
19477SOL    HW160205   3.084  13.999  10.604
19477SOL    HW260206   2.988  13.904  10.536
19478SOL     OW60207   5.110   2.439  10.464
19478SOL    HW160208   5.176   2.456  10.531
19478SOL    HW260209   5.037   2.400  10.512
19479SOL     OW60210   7.614   6.285  13.599
19479SOL    HW160211   7.528   6.245  13.591
19479SOL    HW260212   7.662   6.253  13.523
19480SOL     OW60213   9.413   5.349   1.910
19480SOL    HW160214   9.397   5.268   1.861
19480SOL    HW260215   9.332   5.363   1.959
19481SOL     OW60216   3.257  10.991   6.592
19481SOL    HW160217   3.269  10.897   6.581
19481SOL    HW260218   3.346  11.027   6.583
19482SOL     OW60219   4.600   4.651   4.245
19482SOL    HW160220   4.540   4.577   4.244
19482SOL    HW260221   4.610   4.675   4.153
19483SOL     OW60222  12.443   0.822   8.871
19483SOL    HW160223  12.479   0.910   8.881
19483SOL    HW260224  12.356   0.836   8.832
19484SOL     OW60225   1.837   1.649  14.291
19484SOL    HW160226   1.821   1.611  14.205
19484SOL    HW260227   1.821   1.578  14.353
19485SOL     OW60228   3.258   7.307   5.109
19485SOL    HW160229   3.192   7.269   5.167
19485SOL    HW260230   3.291   7.232   5.059
19486SOL     OW60231   9.240   1.670  10.681
19486SOL    HW160232   9.305   1.652  10.749
19486SOL    HW260233   9.192   1.747  10.713
19487SOL     OW60234   0.768   4.312  12.018
19487SOL    HW160235   0.765   4.219  11.998
19487SOL    HW260236   0.680   4.334  12.048
19488SOL     OW60237  10.461  14.116   8.889
19488SOL    HW160238  10.379  14.087   8.928
19488SOL    HW260239  10.514  14.037   8.883
19489SOL     OW60240   8.060  10.910  11.013
19489SOL    HW160241   8.086  10.863  11.092
19489SOL    HW260242   8.116  10.875  10.945
19490SOL     OW60243   5.454   2.343  10.064
19490SOL    HW160244   5.367   2.354  10.024
19490SOL    HW260245   5.436   2.337  10.158
19491SOL     OW60246  10.539   4.207  10.087
19491SOL    HW160247  10.560   4.114  10.091
19491SOL    HW260248  10.490   4.224  10.167
19492SOL     OW60249   9.030   9.020   3.570
19492SOL    HW160250   8.944   9.005   3.531
19492SOL    HW260251   9.082   8.944   3.546
19493SOL     OW60252  11.826   8.723  11.446
19493SOL    HW160253  11.898   8.771  11.485
19493SOL    HW260254  11.837   8.633  11.478
19494SOL     OW60255   9.206  11.651   7.695
19494SOL    HW160256   9.220  11.742   7.721
19494SOL    HW260257   9.139  11.619   7.755
19495SOL     OW60258  14.507  14.185  10.759
19495SOL    HW160259  14.481  14.147  10.675
19495SOL    HW260260  14.559  14.116  10.801
19496SOL     OW60261  11.256   0.717   4.920
19496SOL    HW160262  11.281   0.630   4.950
19496SOL    HW260263  11.212   0.703   4.837
19497SOL     OW60264  11.711   5.185  11.394
19497SOL    HW160265  11.635   5.239  11.417
19497SOL    HW260266  11.674   5.109  11.350
19498SOL     OW60267  12.924  10.692   3.438
19498SOL    HW160268  12.950  10.765   3.381
19498SOL    HW260269  13.004  10.666   3.483
19499SOL     OW60270   2.469   4.570  12.362
19499SOL    HW160271   2.394   4.560  12.420
19499SOL    HW260272   2.499   4.660  12.377
19500SOL     OW60273  12.774  13.961  11.819
19500SOL    HW160274  12.866  13.939  11.804
19500SOL    HW260275  12.726  13.900  11.762
19501SOL     OW60276   6.678   7.003   9.537
19501SOL    HW160277   6.675   6.942   9.464
19501SOL    HW260278   6.771   7.021   9.550
19502SOL     OW60279  14.082   2.695   8.093
19502SOL    HW160280  14.163   2.701   8.144
19502SOL    HW260281  14.039   2.616   8.127
19503SOL     OW60282   9.592  11.512   8.919
19503SOL    HW160283   9.504  11.515   8.883
19503SOL    HW260284   9.649  11.505   8.842
19504SOL     OW60285   2.286   1.556  12.310
19504SOL    HW160286   2.366   1.549  12.258
19504SOL    HW260287   2.221   1.506  12.261
19505SOL     OW60288   0.193   4.008  14.407
19505SOL    HW160289   0.210   4.057  14.327
19505SOL    HW260290   0.204   4.072  14.477
19506SOL     OW60291   6.065  14.721   1.556
19506SOL    HW160292   6.125  14.785   1.596
19506SOL    HW260293   6.045  14.758   1.470
19507SOL     OW60294   3.820   2.131  10.013
19507SOL    HW160295   3.850   2.112  10.102
19507SOL    HW260296   3.780   2.049   9.983
19508SOL     OW60297   7.929   0.876   2.283
19508SOL    HW160298   8.006   0.828   2.252
19508SOL    HW260299   7.902   0.828   2.361
19509SOL     OW60300   8.902   8.619   6.091
19509SOL    HW160301   8.952   8.538   6.082
19509SOL    HW260302   8.831   8.597   6.151
19510SOL     OW60303  10.989   3.277   5.227
19510SOL    HW160304  10.959   3.368   5.228
19510SOL    HW260305  10.912   3.225   5.249
19511SOL     OW60306  12.171   2.529  14.669
19511SOL    HW160307  12.198   2.447  14.710
19511SOL    HW260308  12.090   2.554  14.714
19512SOL     OW60309   9.443  12.008   3.813
19512SOL    HW160310   9.370  12.057   3.849
19512SOL    HW260311   9.417  11.916   3.820
19513SOL     OW60312  10.778   2.994   6.599
19513SOL    HW160313  10.744   2.964   6.515
19513SOL    HW260314  10.755   2.925   6.661
19514SOL     OW60315  11.810  14.361  10.425
19514SOL    HW160316  11.828  14.385  10.334
19514SOL    HW260317  11.865  14.419  10.477
19515SOL     OW60318   4.671  12.779   6.194
19515SOL    HW160319   4.752  12.735   6.217
19515SOL    HW260320   4.690  12.872   6.203
19516SOL     OW60321  11.020   9.145   1.046
19516SOL    HW160322  10.955   9.091   1.090
19516SOL    HW260323  11.032   9.221   1.104
19517SOL     OW60324   5.699   8.796   7.704
19517SOL    HW160325   5.651   8.791   7.622
19517SOL    HW260326   5.759   8.870   7.693
19518SOL     OW60327   0.286   9.424   1.201
19518SOL    HW160328   0.346   9.371   1.253
19518SOL    HW260329   0.344   9.481   1.150
19519SOL     OW60330  10.039  13.660   4.106
19519SOL    HW160331  10.116  13.605   4.092
19519SOL    HW260332   9.966  13.598   4.113
19520SOL     OW60333   3.696   3.945   1.796
19520SOL    HW160334   3.702   3.891   1.717
19520SOL    HW260335   3.693   4.035   1.764
19521SOL     OW60336  12.018   9.796   4.391
19521SOL    HW160337  11.939   9.849   4.400
19521SOL    HW260338  12.001   9.719   4.446
19522SOL     OW60339  13.398   4.069   0.108
19522SOL    HW160340  13.351   3.997   0.149
19522SOL    HW260341  13.444   4.029   0.034
19523SOL     OW60342   3.519   3.970   8.317
19523SOL    HW160343   3.465   4.047   8.331
19523SOL    HW260344   3.462   3.907   8.274
19524SOL     OW60345   3.277  14.527   5.234
19524SOL    HW160346   3.323  14.607   5.208
19524SOL    HW260347   3.252  14.485   5.151
19525SOL     OW60348   4.038  14.235   2.621
19525SOL    HW160349   4.118  14.287   2.627
19525SOL    HW260350   4.069  14.144   2.617
19526SOL     OW60351  13.438   4.504   6.532
19526SOL    HW160352  13.388   4.556   6.595
19526SOL    HW260353  13.506   4.463   6.583
19527SOL     OW60354   1.164   3.721  10.881
19527SOL    HW160355   1.111   3.645  10.856
19527SOL    HW260356   1.109   3.796  10.860
19528SOL     OW60357   4.747   5.996  12.546
19528SOL    HW160358   4.818   5.987  12.484
19528SOL    HW260359   4.775   6.067  12.604
19529SOL     OW60360  14.525   7.469  12.850
19529SOL    HW160361  14.478   7.444  12.770
19529SOL    HW260362  14.604   7.513  12.819
19530SOL     OW60363   9.107   2.862   1.770
19530SOL    HW160364   9.154   2.781   1.752
19530SOL    HW260365   9.055   2.878   1.692
19531SOL     OW60366   4.280   2.948   8.952
19531SOL    HW160367   4.300   3.019   9.014
19531SOL    HW260368   4.185   2.940   8.955
19532SOL     OW60369   9.834   7.222   3.801
19532SOL    HW160370   9.762   7.211   3.862
19532SOL    HW260371   9.847   7.317   3.795
19533SOL     OW60372   3.105   3.724   2.002
19533SOL    HW160373   3.027   3.779   2.012
19533SOL    HW260374   3.097   3.657   2.071
19534SOL     OW60375   1.163   8.899   9.872
19534SOL    HW160376   1.245   8.931   9.836
19534SOL    HW260377   1.166   8.923   9.965
19535SOL     OW60378   9.850   5.754   6.684
19535SOL    HW160379   9.802   5.819   6.632
19535SOL    HW260380   9.865   5.682   6.622
19536SOL     OW60381   1.003   9.299   2.101
19536SOL    HW160382   1.047   9.235   2.157
19536SOL    HW260383   1.000   9.379   2.153
19537SOL     OW60384   9.404   9.490   7.587
19537SOL    HW160385   9.485   9.539   7.570
19537SOL    HW260386   9.337   9.535   7.535
19538SOL     OW60387   9.825   9.983   5.812
19538SOL    HW160388   9.799   9.938   5.731
19538SOL    HW260389   9.891   9.926   5.851
19539SOL     OW60390   8.038  10.470  14.505
19539SOL    HW160391   8.132  10.450  14.505
19539SOL    HW260392   8.024  10.515  14.422
19540SOL     OW60393   2.721   2.693  12.820
19540SOL    HW160394   2.660   2.620  12.834
19540SOL    HW260395   2.754   2.678  12.731
19541SOL     OW60396   9.676  10.867   8.213
19541SOL    HW160397   9.616  10.882   8.140
19541SOL    HW260398   9.646  10.785   8.252
19542SOL     OW60399   9.899   8.069   7.506
19542SOL    HW160400   9.828   8.122   7.468
19542SOL    HW260401   9.854   7.999   7.553
19543SOL     OW60402   4.019   8.557   7.096
19543SOL    HW160403   3.962   8.485   7.123
19543SOL    HW260404   4.078   8.570   7.170
19544SOL     OW60405   4.999   3.393   9.763
19544SOL    HW160406   5.067   3.454   9.790
19544SOL    HW260407   4.931   3.447   9.724
19545SOL     OW60408   5.886   3.708  10.755
19545SOL    HW160409   5.954   3.643  10.774
19545SOL    HW260410   5.810   3.678  10.806
19546SOL     OW60411  12.885   8.554   6.638
19546SOL    HW160412  12.833   8.606   6.577
19546SOL    HW260413  12.946   8.616   6.676
19547SOL     OW60414   9.512   8.311   0.875
19547SOL    HW160415   9.548   8.230   0.838
19547SOL    HW260416   9.539   8.309   0.966
19548SOL     OW60417   6.887  10.512  10.943
19548SOL    HW160418   6.922  10.591  10.902
19548SOL    HW260419   6.933  10.440  10.899
19549SOL     OW60420  11.303  10.583  10.998
19549SOL    HW160421  11.352  10.522  10.943
19549SOL    HW260422  11.241  10.528  11.046
19550SOL     OW60423   1.002  14.225  14.222
19550SOL    HW160424   0.911  14.249  14.242
19550SOL    HW260425   1.052  14.305  14.236
19551SOL     OW60426  12.274   6.944  14.770
19551SOL    HW160427  12.369   6.953  14.775
19551SOL    HW260428  12.241   7.019  14.820
19552SOL     OW60429   1.849   0.245   0.957
19552SOL    HW160430   1.760   0.273   0.979
19552SOL    HW260431   1.885   0.318   0.906
19553SOL     OW60432  12.776   3.719  12.142
19553SOL    HW160433  12.693   3.689  12.177
19553SOL    HW260434  12.812   3.775  12.210
19554SOL     OW60435  12.262   9.640   6.108
19554SOL    HW160436  12.323   9.686   6.165
19554SOL    HW260437  12.177   9.648   6.152
19555SOL     OW60438   2.182   8.399   3.493
19555SOL    HW160439   2.252   8.397   3.428
19555SOL    HW260440   2.155   8.308   3.502
19556SOL     OW60441   4.878   2.950   2.292
19556SOL    HW160442   4.820   3.021   2.321
19556SOL    HW260443   4.819   2.880   2.266
19557SOL     OW60444   5.572   8.455   1.770
19557SOL    HW160445   5.528   8.459   1.855
19557SOL    HW260446   5.597   8.546   1.752
19558SOL     OW60447  13.541  10.342  12.998
19558SOL    HW160448  13.547  10.337  13.094
19558SOL    HW260449  13.629  10.318  12.967
19559SOL     OW60450  11.623  12.458  12.769
19559SOL    HW160451  11.576  12.461  12.852
19559SOL    HW260452  11.556  12.436  12.704
19560SOL     OW60453   9.473   4.892  12.831
19560SOL    HW160454   9.503   4.835  12.759
19560SOL    HW260455   9.488   4.981  12.799
19561SOL     OW60456   2.955   6.041  13.490
19561SOL    HW160457   2.907   5.975  13.440
19561SOL    HW260458   2.900   6.119  13.487
19562SOL     OW60459   4.939   2.895   4.103
19562SOL    HW160460   4.954   2.961   4.035
19562SOL    HW260461   4.923   2.945   4.183
19563SOL     OW60462   1.424   4.219   0.874
19563SOL    HW160463   1.344   4.259   0.909
19563SOL    HW260464   1.395   4.132   0.843
19564SOL     OW60465  14.113  10.740  11.133
19564SOL    HW160466  14.047  10.808  11.126
19564SOL    HW260467  14.156  10.755  11.217
19565SOL     OW60468   3.031   7.998   6.552
19565SOL    HW160469   2.983   8.079   6.570
19565SOL    HW260470   3.117   8.011   6.592
19566SOL     OW60471  14.735   4.499   2.129
19566SOL    HW160472  14.750   4.563   2.060
19566SOL    HW260473  14.752   4.414   2.088
19567SOL     OW60474   3.934   0.563   7.517
19567SOL    HW160475   3.903   0.516   7.440
19567SOL    HW260476   4.001   0.506   7.555
19568SOL     OW60477   3.189   8.541  12.983
19568SOL    HW160478   3.129   8.566  13.053
19568SOL    HW260479   3.229   8.623  12.956
19569SOL     OW60480  10.179   5.915   0.977
19569SOL    HW160481  10.130   5.864   1.042
19569SOL    HW260482  10.112   5.964   0.929
19570SOL     OW60483  13.605   3.997  10.512
19570SOL    HW160484  13.528   4.020  10.460
19570SOL    HW260485  13.570   3.957  10.592
19571SOL     OW60486   3.343   1.512   0.506
19571SOL    HW160487   3.289   1.476   0.576
19571SOL    HW260488   3.367   1.436   0.453
19572SOL     OW60489   0.821  13.756   7.336
19572SOL    HW160490   0.842  13.823   7.270
19572SOL    HW260491   0.815  13.805   7.418
19573SOL     OW60492   4.164  11.531   5.453
19573SOL    HW160493   4.178  11.476   5.376
19573SOL    HW260494   4.104  11.600   5.422
19574SOL     OW60495   8.361   3.680  14.573
19574SOL    HW160496   8.324   3.768  14.581
19574SOL    HW260497   8.393   3.675  14.483
19575SOL     OW60498  13.105   1.523   2.615
19575SOL    HW160499  13.153   1.602   2.642
19575SOL    HW260500  13.015   1.539   2.644
19576SOL     OW60501   7.266   0.370  10.379
19576SOL    HW160502   7.174   0.385  10.403
19576SOL    HW260503   7.310   0.355  10.462
19577SOL     OW60504   0.867   6.134  11.678
19577SOL    HW160505   0.955   6.098  11.667
19577SOL    HW260506   0.826   6.077  11.744
19578SOL     OW60507   9.659   2.804  11.088
19578SOL    HW160508   9.753   2.822  11.090
19578SOL    HW260509   9.621   2.872  11.145
19579SOL     OW60510  13.072  13.037  13.244
19579SOL    HW160511  13.125  12.989  13.308
19579SOL    HW260512  13.134  13.092  13.197
19580SOL     OW60513   0.734   8.596  12.322
19580SOL    HW160514   0.796   8.547  12.268
19580SOL    HW260515   0.785   8.622  12.399
19581SOL     OW60516  12.205   6.184   4.886
19581SOL    HW160517  12.240   6.105   4.926
19581SOL    HW260518  12.158   6.154   4.809
19582SOL     OW60519  10.920   7.076   8.468
19582SOL    HW160520  10.911   7.090   8.562
19582SOL    HW260521  10.901   7.161   8.429
19583SOL     OW60522  10.778  10.648   9.732
19583SOL    HW160523  10.696  10.657   9.683
19583SOL    HW260524  10.755  10.592   9.806
19584SOL     OW60525  11.308   2.440  14.028
19584SOL    HW160526  11.297   2.353  14.066
19584SOL    HW260527  11.396   2.467  14.054
19585SOL     OW60528   8.728   2.363   7.549
19585SOL    HW160529   8.779   2.307   7.491
19585SOL    HW260530   8.702   2.306   7.621
19586SOL     OW60531   1.426   5.460   0.780
19586SOL    HW160532   1.473   5.409   0.846
19586SOL    HW260533   1.342   5.480   0.820
19587SOL     OW60534  14.659   7.660   8.927
19587SOL    HW160535  14.575   7.699   8.904
19587SOL    HW260536  14.650   7.567   8.904
19588SOL     OW60537   0.151   6.305  13.712
19588SOL    HW160538   0.214   6.306  13.784
19588SOL    HW260539   0.069   6.336  13.751
19589SOL     OW60540   4.825   4.201  12.168
19589SOL    HW160541   4.894   4.139  12.143
19589SOL    HW260542   4.744   4.158  12.144
19590SOL     OW60543   8.198   7.765  14.187
19590SOL    HW160544   8.118   7.740  14.141
19590SOL    HW260545   8.211   7.695  14.252
19591SOL     OW60546   6.155   5.726   6.878
19591SOL    HW160547   6.077   5.729   6.933
19591SOL    HW260548   6.178   5.633   6.874
19592SOL     OW60549  14.360   5.476  13.157
19592SOL    HW160550  14.419   5.465  13.231
19592SOL    HW260551  14.300   5.401  13.163
19593SOL     OW60552   9.666  11.516   9.425
19593SOL    HW160553   9.650  11.458   9.350
19593SOL    HW260554   9.758  11.503   9.446
19594SOL     OW60555   0.109   4.753   1.282
19594SOL    HW160556   0.018   4.769   1.257
19594SOL    HW260557   0.108   4.665   1.320
19595SOL     OW60558  14.762  11.343  10.508
19595SOL    HW160559  14.672  11.310  10.509
19595SOL    HW260560  14.754  11.435  10.530
19596SOL     OW60561  11.050   8.137  14.826
19596SOL    HW160562  10.996   8.133  14.747
19596SOL    HW260563  11.119   8.200  14.805
19597SOL     OW60564   3.982  13.930   0.522
19597SOL    HW160565   3.960  14.014   0.483
19597SOL    HW260566   3.997  13.950   0.614
19598SOL     OW60567   1.668   6.637   8.671
19598SOL    HW160568   1.760   6.621   8.650
19598SOL    HW260569   1.649   6.722   8.631
19599SOL     OW60570  11.699   6.502   7.111
19599SOL    HW160571  11.655   6.581   7.142
19599SOL    HW260572  11.628   6.438   7.100
19600SOL     OW60573   7.838  10.784  14.472
19600SOL    HW160574   7.831  10.698  14.432
19600SOL    HW260575   7.924  10.816  14.446
19601SOL     OW60576   6.708  12.196   8.785
19601SOL    HW160577   6.685  12.113   8.743
19601SOL    HW260578   6.803  12.200   8.781
19602SOL     OW60579   0.228   7.760   6.118
19602SOL    HW160580   0.248   7.740   6.026
19602SOL    HW260581   0.277   7.694   6.167
19603SOL     OW60582  13.955  14.106   5.387
19603SOL    HW160583  14.014  14.155   5.444
19603SOL    HW260584  13.878  14.162   5.379
19604SOL     OW60585  12.160  13.975   5.672
19604SOL    HW160586  12.105  13.906   5.709
19604SOL    HW260587  12.157  14.046   5.736
19605SOL     OW60588  14.112   8.242   3.271
19605SOL    HW160589  14.192   8.206   3.311
19605SOL    HW260590  14.056   8.263   3.346
19606SOL     OW60591   6.454   2.067  11.824
19606SOL    HW160592   6.508   2.134  11.866
19606SOL    HW260593   6.440   2.002  11.892
19607SOL     OW60594   1.937   9.163   4.606
19607SOL    HW160595   1.920   9.124   4.521
19607SOL    HW260596   2.006   9.109   4.644
19608SOL     OW60597   0.857   4.166   6.008
19608SOL    HW160598   0.940   4.184   5.965
19608SOL    HW260599   0.796   4.230   5.971
19609SOL     OW60600   5.947   4.980   6.089
19609SOL    HW160601   5.967   4.888   6.072
19609SOL    HW260602   6.019   5.009   6.146
19610SOL     OW60603   9.773   0.311   4.053
19610SOL    HW160604   9.838   0.269   4.110
19610SOL    HW260605   9.698   0.327   4.110
19611SOL     OW60606   7.205   8.721  12.190
19611SOL    HW160607   7.197   8.816  12.185
19611SOL    HW260608   7.140   8.688  12.128
19612SOL     OW60609   5.562   8.669  10.827
19612SOL    HW160610   5.477   8.706  10.801
19612SOL    HW260611   5.539   8.593  10.881
19613SOL     OW60612  13.174  12.294  14.510
19613SOL    HW160613  13.185  12.200  14.527
19613SOL    HW260614  13.236  12.337  14.569
19614SOL     OW60615   2.170  10.156  13.904
19614SOL    HW160616   2.126  10.223  13.956
19614SOL    HW260617   2.210  10.205  13.832
19615SOL     OW60618  13.091   7.048   8.792
19615SOL    HW160619  13.157   6.991   8.751
19615SOL    HW260620  13.008   7.003   8.777
19616SOL     OW60621   0.401   0.796   3.360
19616SOL    HW160622   0.400   0.854   3.435
19616SOL    HW260623   0.475   0.826   3.307
19617SOL     OW60624   1.993   3.650   7.430
19617SOL    HW160625   2.013   3.692   7.346
19617SOL    HW260626   1.899   3.664   7.442
19618SOL     OW60627  12.340   0.825   0.640
19618SOL    HW160628  12.406   0.830   0.571
19618SOL    HW260629  12.385   0.858   0.718
19619SOL     OW60630  12.304  10.265   3.605
19619SOL    HW160631  12.246  10.217   3.546
19619SOL    HW260632  12.357  10.320   3.548
19620SOL     OW60633   3.141   5.575   8.013
19620SOL    HW160634   3.123   5.553   8.104
19620SOL    HW260635   3.157   5.669   8.013
19621SOL     OW60636   7.834   0.221   1.790
19621SOL    HW160637   7.828   0.130   1.821
19621SOL    HW260638   7.905   0.219   1.725
19622SOL     OW60639  12.915   5.609   3.792
19622SOL    HW160640  12.861   5.687   3.774
19622SOL    HW260641  12.872   5.567   3.866
19623SOL     OW60642   5.736   3.570   0.638
19623SOL    HW160643   5.740   3.665   0.632
19623SOL    HW260644   5.649   3.547   0.607
19624SOL     OW60645  10.263  11.852   7.592
19624SOL    HW160646  10.186  11.806   7.558
19624SOL    HW260647  10.328  11.784   7.607
19625SOL     OW60648   9.673   0.532  10.433
19625SOL    HW160649   9.757   0.484  10.433
19625SOL    HW260650   9.617   0.482  10.493
19626SOL     OW60651   6.138   8.773   4.246
19626SOL    HW160652   6.175   8.691   4.279
19626SOL    HW260653   6.093   8.811   4.321
19627SOL     OW60654   9.491  13.358  12.576
19627SOL    HW160655   9.480  13.349  12.671
19627SOL    HW260656   9.550  13.286  12.553
19628SOL     OW60657   7.450   9.148   3.383
19628SOL    HW160658   7.542   9.168   3.395
19628SOL    HW260659   7.434   9.073   3.441
19629SOL     OW60660   6.861  10.172   4.936
19629SOL    HW160661   6.880  10.255   4.892
19629SOL    HW260662   6.768  10.179   4.961
19630SOL     OW60663  11.404   4.688   0.871
19630SOL    HW160664  11.354   4.759   0.831
19630SOL    HW260665  11.432   4.634   0.797
19631SOL     OW60666  12.573  13.044   4.056
19631SOL    HW160667  12.592  12.969   4.111
19631SOL    HW260668  12.632  13.035   3.981
19632SOL     OW60669   3.659  10.914  10.298
19632SOL    HW160670   3.733  10.867  10.336
19632SOL    HW260671   3.655  10.997  10.345
19633SOL     OW60672   9.906   7.871   9.211
19633SOL    HW160673   9.830   7.911   9.253
19633SOL    HW260674   9.874   7.786   9.179
19634SOL     OW60675  11.640   6.728  13.257
19634SOL    HW160676  11.584   6.729  13.180
19634SOL    HW260677  11.584   6.754  13.329
19635SOL     OW60678  11.710   2.374  11.886
19635SOL    HW160679  11.764   2.445  11.920
19635SOL    HW260680  11.731   2.372  11.792
19636SOL     OW60681   7.791   1.369   7.829
19636SOL    HW160682   7.871   1.419   7.809
19636SOL    HW260683   7.816   1.312   7.902
19637SOL     OW60684   5.410  10.840   0.758
19637SOL    HW160685   5.453  10.917   0.795
19637SOL    HW260686   5.367  10.872   0.679
19638SOL     OW60687   2.825   2.852   4.662
19638SOL    HW160688   2.858   2.878   4.748
19638SOL    HW260689   2.732   2.875   4.663
19639SOL     OW60690   3.758  12.379  11.799
19639SOL    HW160691   3.715  12.459  11.768
19639SOL    HW260692   3.841  12.377  11.753
19640SOL     OW60693  14.699   8.461  14.779
19640SOL    HW160694  14.749   8.533  14.818
19640SOL    HW260695  14.714   8.387  14.839
19641SOL     OW60696  11.919   0.761   8.439
19641SOL    HW160697  11.888   0.678   8.477
19641SOL    HW260698  11.936   0.817   8.515
19642SOL     OW60699   1.516  10.396   4.102
19642SOL    HW160700   1.487  10.434   4.019
19642SOL    HW260701   1.460  10.319   4.114
19643SOL     OW60702   7.778   1.211  10.521
19643SOL    HW160703   7.749   1.160  10.446
19643SOL    HW260704   7.702   1.212  10.580
19644SOL     OW60705   9.292  11.539   1.202
19644SOL    HW160706   9.211  11.564   1.157
19644SOL    HW260707   9.270  11.459   1.250
19645SOL     OW60708   8.719  12.790  13.325
19645SOL    HW160709   8.661  12.828  13.259
19645SOL    HW260710   8.802  12.835  13.314
19646SOL     OW60711   0.215   0.009  12.358
19646SOL    HW160712   0.182   0.097  12.341
19646SOL    HW260713   0.184  14.871  12.447
19647SOL     OW60714   2.949   9.261   4.048
19647SOL    HW160715   2.966   9.179   4.001
19647SOL    HW260716   2.889   9.310   3.992
19648SOL     OW60717   1.890  14.499   6.350
19648SOL    HW160718   1.918  14.590   6.339
19648SOL    HW260719   1.971  14.448   6.342
19649SOL     OW60720   3.227   3.204  10.751
19649SOL    HW160721   3.225   3.123  10.701
19649SOL    HW260722   3.135   3.222  10.772
19650SOL     OW60723   3.820   6.303  12.952
19650SOL    HW160724   3.804   6.377  13.011
19650SOL    HW260725   3.913   6.282  12.964
19651SOL     OW60726   3.717  10.806  11.229
19651SOL    HW160727   3.643  10.866  11.238
19651SOL    HW260728   3.763  10.812  11.313
19652SOL     OW60729  10.906   7.088   0.080
19652SOL    HW160730  10.966   7.095   0.154
19652SOL    HW260731  10.960   7.055   0.008
19653SOL     OW60732   9.081   8.099  11.492
19653SOL    HW160733   9.040   8.130  11.411
19653SOL    HW260734   9.008   8.085  11.553
19654SOL     OW60735   1.534   6.664   0.354
19654SOL    HW160736   1.450   6.709   0.351
19654SOL    HW260737   1.588   6.716   0.413
19655SOL     OW60738  12.551   8.851   2.808
19655SOL    HW160739  12.463   8.835   2.842
19655SOL    HW260740  12.559   8.791   2.734
19656SOL     OW60741   1.584  10.892   1.192
19656SOL    HW160742   1.652  10.864   1.131
19656SOL    HW260743   1.626  10.886   1.278
19657SOL     OW60744  13.379  11.546  12.928
19657SOL    HW160745  13.354  11.594  12.849
19657SOL    HW260746  13.473  11.562  12.938
19658SOL     OW60747  13.850   8.646   1.373
19658SOL    HW160748  13.900   8.616   1.449
19658SOL    HW260749  13.891   8.729   1.348
19659SOL     OW60750   7.546   3.909  14.213
19659SOL    HW160751   7.524   3.985  14.266
19659SOL    HW260752   7.610   3.860  14.265
19660SOL     OW60753   5.385  10.316   5.542
19660SOL    HW160754   5.469  10.289   5.581
19660SOL    HW260755   5.403  10.402   5.504
19661SOL     OW60756   5.189  12.764  10.124
19661SOL    HW160757   5.267  12.711  10.140
19661SOL    HW260758   5.156  12.735  10.039
19662SOL     OW60759   6.139   3.267  14.262
19662SOL    HW160760   6.084   3.343  14.281
19662SOL    HW260761   6.146   3.265  14.167
19663SOL     OW60762   1.520  11.930  10.956
19663SOL    HW160763   1.500  11.892  11.041
19663SOL    HW260764   1.604  11.974  10.968
19664SOL     OW60765   8.116   3.785  12.277
19664SOL    HW160766   8.141   3.822  12.362
19664SOL    HW260767   8.073   3.703  12.297
19665SOL     OW60768   8.872   8.047   7.794
19665SOL    HW160769   8.857   8.135   7.830
19665SOL    HW260770   8.938   8.060   7.726
19666SOL     OW60771   1.813   9.715   6.193
19666SOL    HW160772   1.825   9.716   6.098
19666SOL    HW260773   1.901   9.731   6.229
19667SOL     OW60774  10.440  10.575   6.926
19667SOL    HW160775  10.407  10.637   6.861
19667SOL    HW260776  10.372  10.571   6.993
19668SOL     OW60777   9.271   4.082  10.905
19668SOL    HW160778   9.354   4.040  10.881
19668SOL    HW260779   9.270   4.163  10.855
19669SOL     OW60780  13.065   7.091   4.325
19669SOL    HW160781  13.105   7.059   4.405
19669SOL    HW260782  13.064   7.186   4.334
19670SOL     OW60783   3.967  12.967   2.975
19670SOL    HW160784   3.892  13.018   2.943
19670SOL    HW260785   3.944  12.945   3.066
19671SOL     OW60786   2.714   1.587   4.673
19671SOL    HW160787   2.803   1.595   4.638
19671SOL    HW260788   2.719   1.511   4.732
19672SOL     OW60789   5.354   5.105  13.106
19672SOL    HW160790   5.277   5.152  13.138
19672SOL    HW260791   5.373   5.144  13.021
19673SOL     OW60792   8.901   0.120   6.195
19673SOL    HW160793   8.862   0.201   6.227
19673SOL    HW260794   8.873   0.114   6.104
19674SOL     OW60795   5.150  13.199   2.410
19674SOL    HW160796   5.150  13.139   2.485
19674SOL    HW260797   5.224  13.170   2.357
19675SOL     OW60798   9.392   7.573  13.392
19675SOL    HW160799   9.396   7.631  13.468
19675SOL    HW260800   9.465   7.512  13.404
19676SOL     OW60801  13.077   5.957   0.701
19676SOL    HW160802  13.045   5.975   0.613
19676SOL    HW260803  13.087   5.862   0.704
19677SOL     OW60804  13.659  10.744   7.791
19677SOL    HW160805  13.575  10.781   7.765
19677SOL    HW260806  13.652  10.651   7.770
19678SOL     OW60807   0.594  11.339  10.767
19678SOL    HW160808   0.521  11.284  10.796
19678SOL    HW260809   0.669  11.306  10.817
19679SOL     OW60810   3.191  14.637  11.482
19679SOL    HW160811   3.196  14.547  11.449
19679SOL    HW260812   3.271  14.647  11.535
19680SOL     OW60813   8.593   8.548   5.983
19680SOL    HW160814   8.572   8.638   6.007
19680SOL    HW260815   8.607   8.550   5.889
19681SOL     OW60816   9.260   7.657   7.639
19681SOL    HW160817   9.281   7.717   7.568
19681SOL    HW260818   9.170   7.679   7.664
19682SOL     OW60819  12.093   6.657   7.723
19682SOL    HW160820  12.063   6.693   7.806
19682SOL    HW260821  12.149   6.724   7.686
19683SOL     OW60822  10.941   4.328   5.281
19683SOL    HW160823  11.000   4.388   5.326
19683SOL    HW260824  10.862   4.380   5.265
19684SOL     OW60825   5.974  13.189   8.391
19684SOL    HW160826   6.069  13.184   8.389
19684SOL    HW260827   5.956  13.281   8.412
19685SOL     OW60828   1.877   0.138  13.757
19685SOL    HW160829   1.818   0.190  13.810
19685SOL    HW260830   1.936   0.097  13.820
19686SOL     OW60831   8.427  13.610   2.078
19686SOL    HW160832   8.350  13.556   2.095
19686SOL    HW260833   8.501  13.557   2.109
19687SOL     OW60834   1.675  12.972   7.131
19687SOL    HW160835   1.603  12.920   7.167
19687SOL    HW260836   1.733  12.909   7.089
19688SOL     OW60837  10.496  13.702   1.204
19688SOL    HW160838  10.463  13.782   1.164
19688SOL    HW260839  10.417  13.653   1.229
19689SOL     OW60840  10.318   9.540   4.297
19689SOL    HW160841  10.390   9.602   4.301
19689SOL    HW260842  10.239   9.594   4.305
19690SOL     OW60843   4.644   7.042  10.083
19690SOL    HW160844   4.584   7.000  10.021
19690SOL    HW260845   4.707   7.087  10.027
19691SOL     OW60846   6.550   0.419  14.436
19691SOL    HW160847   6.644   0.437  14.445
19691SOL    HW260848   6.526   0.375  14.517
19692SOL     OW60849   0.169   5.347  12.401
19692SOL    HW160850   0.170   5.351  12.497
19692SOL    HW260851   0.128   5.264  12.380
19693SOL     OW60852   2.066  14.147   5.759
19693SOL    HW160853   2.132  14.088   5.724
19693SOL    HW260854   2.042  14.203   5.685
19694SOL     OW60855   5.686  12.366  14.128
19694SOL    HW160856   5.715  12.336  14.042
19694SOL    HW260857   5.717  12.456  14.134
19695SOL     OW60858  14.324   3.929   8.023
19695SOL    HW160859  14.419   3.918   8.030
19695SOL    HW260860  14.299   3.972   8.105
19696SOL     OW60861   4.226  14.551   5.911
19696SOL    HW160862   4.194  14.543   6.000
19696SOL    HW260863   4.282  14.474   5.898
19697SOL     OW60864   5.190   6.679   0.963
19697SOL    HW160865   5.242   6.747   0.920
19697SOL    HW260866   5.125   6.726   1.015
19698SOL     OW60867   2.860  11.111  12.924
19698SOL    HW160868   2.773  11.083  12.952
19698SOL    HW260869   2.848  11.201  12.894
19699SOL     OW60870   8.776   6.601   1.137
19699SOL    HW160871   8.705   6.543   1.165
19699SOL    HW260872   8.774   6.672   1.201
19700SOL     OW60873   3.416   8.016   1.496
19700SOL    HW160874   3.458   7.940   1.455
19700SOL    HW260875   3.487   8.058   1.546
19701SOL     OW60876  14.548  10.687   7.353
19701SOL    HW160877  14.539  10.637   7.271
19701SOL    HW260878  14.642  10.682   7.373
19702SOL     OW60879   6.548   1.217  12.691
19702SOL    HW160880   6.508   1.231  12.776
19702SOL    HW260881   6.512   1.287  12.636
19703SOL     OW60882  11.578   7.869  12.641
19703SOL    HW160883  11.615   7.949  12.604
19703SOL    HW260884  11.485   7.873  12.620
19704SOL     OW60885   5.314  13.249   0.791
19704SOL    HW160886   5.277  13.274   0.707
19704SOL    HW260887   5.396  13.298   0.797
19705SOL     OW60888   3.584   0.706  14.049
19705SOL    HW160889   3.493   0.701  14.019
19705SOL    HW260890   3.599   0.623  14.094
19706SOL     OW60891   2.558   8.470   2.664
19706SOL    HW160892   2.583   8.442   2.576
19706SOL    HW260893   2.473   8.429   2.679
19707SOL     OW60894   6.131  12.811   9.776
19707SOL    HW160895   6.077  12.737   9.750
19707SOL    HW260896   6.139  12.804   9.871
19708SOL     OW60897   8.561   5.616  10.732
19708SOL    HW160898   8.476   5.573  10.742
19708SOL    HW260899   8.619   5.569  10.792
19709SOL     OW60900   6.503  14.524   9.073
19709SOL    HW160901   6.470  14.503   9.160
19709SOL    HW260902   6.447  14.476   9.013
19710SOL     OW60903   0.810   3.561   3.318
19710SOL    HW160904   0.813   3.523   3.406
19710SOL    HW260905   0.881   3.517   3.270
19711SOL     OW60906   3.267  10.049   9.708
19711SOL    HW160907   3.186  10.055   9.759
19711SOL    HW260908   3.337  10.060   9.773
19712SOL     OW60909   3.737   1.343   1.492
19712SOL    HW160910   3.760   1.421   1.442
19712SOL    HW260911   3.679   1.376   1.561
19713SOL     OW60912   8.490   2.136   6.871
19713SOL    HW160913   8.407   2.116   6.828
19713SOL    HW260914   8.521   2.216   6.828
19714SOL     OW60915  14.180   4.828   2.716
19714SOL    HW160916  14.154   4.885   2.788
19714SOL    HW260917  14.274   4.845   2.705
19715SOL     OW60918   7.194   0.907   4.821
19715SOL    HW160919   7.193   0.944   4.909
19715SOL    HW260920   7.241   0.972   4.769
19716SOL     OW60921   4.407   7.677   9.911
19716SOL    HW160922   4.386   7.770   9.900
19716SOL    HW260923   4.465   7.675   9.988
19717SOL     OW60924   2.223   8.069   9.505
19717SOL    HW160925   2.241   8.162   9.520
19717SOL    HW260926   2.308   8.032   9.480
19718SOL     OW60927   2.947   5.578  10.341
19718SOL    HW160928   2.973   5.631  10.266
19718SOL    HW260929   2.940   5.640  10.413
19719SOL     OW60930   2.202   5.056   9.613
19719SOL    HW160931   2.130   5.005   9.577
19719SOL    HW260932   2.185   5.058   9.708
19720SOL     OW60933   9.639   4.229   9.896
19720SOL    HW160934   9.694   4.220   9.818
19720SOL    HW260935   9.664   4.313   9.934
19721SOL     OW60936  13.550   0.846  14.760
19721SOL    HW160937  13.621   0.802  14.713
19721SOL    HW260938  13.574   0.839  14.853
19722SOL     OW60939  13.540   0.160   9.251
19722SOL    HW160940  13.516   0.227   9.187
19722SOL    HW260941  13.535   0.205   9.336
19723SOL     OW60942   3.052  11.596  12.904
19723SOL    HW160943   3.048  11.673  12.847
19723SOL    HW260944   3.137  11.603  12.947
19724SOL     OW60945   2.354   5.034  13.755
19724SOL    HW160946   2.389   4.997  13.674
19724SOL    HW260947   2.345   4.959  13.814
19725SOL     OW60948   3.424  12.792   7.339
19725SOL    HW160949   3.341  12.814   7.381
19725SOL    HW260950   3.442  12.866   7.281
19726SOL     OW60951   3.429   2.454   4.932
19726SOL    HW160952   3.513   2.464   4.887
19726SOL    HW260953   3.451   2.420   5.018
19727SOL     OW60954   3.263   5.192  14.242
19727SOL    HW160955   3.202   5.209  14.170
19727SOL    HW260956   3.303   5.277  14.260
19728SOL     OW60957   5.244   3.882   5.088
19728SOL    HW160958   5.326   3.840   5.113
19728SOL    HW260959   5.184   3.808   5.071
19729SOL     OW60960   6.423  11.354   2.731
19729SOL    HW160961   6.438  11.367   2.638
19729SOL    HW260962   6.460  11.432   2.772
19730SOL     OW60963  13.597   0.707   7.844
19730SOL    HW160964  13.605   0.656   7.924
19730SOL    HW260965  13.568   0.643   7.778
19731SOL     OW60966  11.318   2.511   2.445
19731SOL    HW160967  11.244   2.450   2.452
19731SOL    HW260968  11.295   2.568   2.372
19732SOL     OW60969   2.335  13.343   8.764
19732SOL    HW160970   2.249  13.374   8.793
19732SOL    HW260971   2.356  13.399   8.689
19733SOL     OW60972  13.117  12.578   6.781
19733SOL    HW160973  13.051  12.514   6.754
19733SOL    HW260974  13.085  12.612   6.865
19734SOL     OW60975   3.528   5.140   6.453
19734SOL    HW160976   3.622   5.155   6.453
19734SOL    HW260977   3.509   5.109   6.365
19735SOL     OW60978  11.426   6.605   7.651
19735SOL    HW160979  11.408   6.523   7.697
19735SOL    HW260980  11.356   6.664   7.679
19736SOL     OW60981  14.873   4.809   3.575
19736SOL    HW160982   0.045   4.771   3.645
19736SOL    HW260983   0.055   4.852   3.517
19737SOL     OW60984   5.565   6.450   6.418
19737SOL    HW160985   5.489   6.507   6.429
19737SOL    HW260986   5.565   6.394   6.496
19738SOL     OW60987   7.611  10.676  11.703
19738SOL    HW160988   7.667  10.613  11.657
19738SOL    HW260989   7.581  10.735  11.634
19739SOL     OW60990  10.396  12.402  10.180
19739SOL    HW160991  10.457  12.336  10.149
19739SOL    HW260992  10.409  12.476  10.121
19740SOL     OW60993   0.894   2.953   7.420
19740SOL    HW160994   0.892   3.049   7.427
19740SOL    HW260995   0.966   2.926   7.477
19741SOL     OW60996  10.645   0.009   1.664
19741SOL    HW160997  10.692   0.068   1.723
19741SOL    HW260998  10.695   0.012   1.583
19742SOL     OW60999   4.790  10.950   4.733
19742SOL    HW161000   4.773  11.012   4.662
19742SOL    HW261001   4.819  11.005   4.806
19743SOL     OW61002   8.543   3.082   0.490
19743SOL    HW161003   8.497   3.004   0.459
19743SOL    HW261004   8.635   3.056   0.494
19744SOL     OW61005  14.730   3.384   4.507
19744SOL    HW161006  14.755   3.474   4.529
19744SOL    HW261007  14.713   3.343   4.592
19745SOL     OW61008   0.858  12.618   7.651
19745SOL    HW161009   0.934  12.647   7.599
19745SOL    HW261010   0.815  12.553   7.596
19746SOL     OW61011   3.345  13.787   5.220
19746SOL    HW161012   3.327  13.876   5.190
19746SOL    HW261013   3.339  13.734   5.140
19747SOL     OW61014   8.436   8.403   0.907
19747SOL    HW161015   8.383   8.476   0.940
19747SOL    HW261016   8.474   8.435   0.826
19748SOL     OW61017   3.836   1.102   1.337
19748SOL    HW161018   3.930   1.102   1.354
19748SOL    HW261019   3.802   1.176   1.387
19749SOL     OW61020   9.755   2.491   7.229
19749SOL    HW161021   9.761   2.407   7.184
19749SOL    HW261022   9.719   2.551   7.164
19750SOL     OW61023   3.110  10.824   2.101
19750SOL    HW161024   3.112  10.813   2.196
19750SOL    HW261025   3.126  10.917   2.088
19751SOL     OW61026   1.672   1.228   5.640
19751SOL    HW161027   1.602   1.273   5.687
19751SOL    HW261028   1.735   1.204   5.708
19752SOL     OW61029  14.821  13.176  12.531
19752SOL    HW161030   0.021  13.225  12.540
19752SOL    HW261031  14.810  13.131  12.615
19753SOL     OW61032  14.087  11.708  12.122
19753SOL    HW161033  14.104  11.649  12.196
19753SOL    HW261034  14.016  11.765  12.153
19754SOL     OW61035   0.151   1.713   8.730
19754SOL    HW161036   0.072   1.765   8.744
19754SOL    HW261037   0.173   1.679   8.817
19755SOL     OW61038   7.624   2.639  14.283
19755SOL    HW161039   7.604   2.545  14.282
19755SOL    HW261040   7.629   2.661  14.376
19756SOL     OW61041   0.341   9.501  11.230
19756SOL    HW161042   0.256   9.458  11.225
19756SOL    HW261043   0.397   9.438  11.275
19757SOL     OW61044   9.938   0.711   7.373
19757SOL    HW161045   9.977   0.794   7.402
19757SOL    HW261046   9.845   0.729   7.363
19758SOL     OW61047   8.383  11.874  12.465
19758SOL    HW161048   8.293  11.899  12.483
19758SOL    HW261049   8.378  11.781  12.443
19759SOL     OW61050   2.131  12.596   1.876
19759SOL    HW161051   2.206  12.655   1.880
19759SOL    HW261052   2.147  12.542   1.798
19760SOL     OW61053  14.117   7.134   7.351
19760SOL    HW161054  14.176   7.060   7.367
19760SOL    HW261055  14.162   7.209   7.391
19761SOL     OW61056   2.757   0.587  14.387
19761SOL    HW161057   2.793   0.598  14.299
19761SOL    HW261058   2.664   0.607  14.378
19762SOL     OW61059   5.838   0.999  11.443
19762SOL    HW161060   5.799   0.913  11.461
19762SOL    HW261061   5.819   1.016  11.351
19763SOL     OW61062   1.967   4.897   9.560
19763SOL    HW161063   1.928   4.860   9.639
19763SOL    HW261064   1.916   4.976   9.543
19764SOL     OW61065   9.124   6.158   4.236
19764SOL    HW161066   9.168   6.111   4.307
19764SOL    HW261067   9.165   6.245   4.238
19765SOL     OW61068   0.486   1.032   3.238
19765SOL    HW161069   0.428   1.039   3.313
19765SOL    HW261070   0.545   1.107   3.245
19766SOL     OW61071   5.414   2.003   1.979
19766SOL    HW161072   5.392   2.022   2.071
19766SOL    HW261073   5.443   1.912   1.980
19767SOL     OW61074   8.004  12.473  11.483
19767SOL    HW161075   8.033  12.502  11.397
19767SOL    HW261076   8.011  12.552  11.538
19768SOL     OW61077   8.393   0.322  14.271
19768SOL    HW161078   8.471   0.339  14.324
19768SOL    HW261079   8.324   0.374  14.312
19769SOL     OW61080   3.071  11.519   9.058
19769SOL    HW161081   3.032  11.606   9.070
19769SOL    HW261082   3.011  11.459   9.100
19770SOL     OW61083   9.218  11.707  13.557
19770SOL    HW161084   9.314  11.701  13.560
19770SOL    HW261085   9.194  11.753  13.637
19771SOL     OW61086   6.053  13.873   9.931
19771SOL    HW161087   5.968  13.850   9.968
19771SOL    HW261088   6.108  13.892  10.007
19772SOL     OW61089  12.092   3.603   8.304
19772SOL    HW161090  12.186   3.609   8.287
19772SOL    HW261091  12.081   3.644   8.390
19773SOL     OW61092   6.708   8.388   5.922
19773SOL    HW161093   6.710   8.340   5.840
19773SOL    HW261094   6.800   8.402   5.944
19774SOL     OW61095  11.580   8.791   8.766
19774SOL    HW161096  11.506   8.824   8.817
19774SOL    HW261097  11.657   8.833   8.804
19775SOL     OW61098  13.803   4.995   9.370
19775SOL    HW161099  13.830   5.018   9.459
19775SOL    HW261100  13.871   4.935   9.339
19776SOL     OW61101   3.410   6.377   6.778
19776SOL    HW161102   3.490   6.339   6.815
19776SOL    HW261103   3.441   6.439   6.713
19777SOL     OW61104   0.720  14.119   5.905
19777SOL    HW161105   0.802  14.147   5.947
19777SOL    HW261106   0.652  14.168   5.951
19778SOL     OW61107   4.149   0.152   3.553
19778SOL    HW161108   4.093   0.078   3.577
19778SOL    HW261109   4.217   0.153   3.620
19779SOL     OW61110  14.529  13.061  14.185
19779SOL    HW161111  14.487  13.045  14.269
19779SOL    HW261112  14.496  13.146  14.157
19780SOL     OW61113  13.269   7.404  11.209
19780SOL    HW161114  13.249   7.321  11.166
19780SOL    HW261115  13.268   7.385  11.302
19781SOL     OW61116   8.363   1.603  11.593
19781SOL    HW161117   8.373   1.517  11.551
19781SOL    HW261118   8.418   1.598  11.671
19782SOL     OW61119  12.913   5.682   8.656
19782SOL    HW161120  12.968   5.624   8.604
19782SOL    HW261121  12.964   5.762   8.666
19783SOL     OW61122   3.508   4.963  10.714
19783SOL    HW161123   3.494   5.014  10.634
19783SOL    HW261124   3.597   4.985  10.741
19784SOL     OW61125   7.065   6.002  12.222
19784SOL    HW161126   7.057   5.912  12.190
19784SOL    HW261127   6.998   6.051  12.173
19785SOL     OW61128   5.046   4.505   6.367
19785SOL    HW161129   5.026   4.597   6.383
19785SOL    HW261130   4.975   4.474   6.311
19786SOL     OW61131   1.925  14.346  10.852
19786SOL    HW161132   1.868  14.344  10.776
19786SOL    HW261133   1.970  14.262  10.852
19787SOL     OW61134   4.306  12.118   3.141
19787SOL    HW161135   4.229  12.173   3.153
19787SOL    HW261136   4.357  12.128   3.221
19788SOL     OW61137   5.059   2.301   0.252
19788SOL    HW161138   4.970   2.319   0.223
19788SOL    HW261139   5.049   2.265   0.341
19789SOL     OW61140   2.316  14.109  10.140
19789SOL    HW161141   2.309  14.048  10.067
19789SOL    HW261142   2.380  14.174  10.111
19790SOL     OW61143   1.780   9.981   9.437
19790SOL    HW161144   1.821   9.903   9.476
19790SOL    HW261145   1.735   9.948   9.360
19791SOL     OW61146   1.695   1.141  11.968
19791SOL    HW161147   1.669   1.230  11.993
19791SOL    HW261148   1.784   1.150  11.934
19792SOL     OW61149   4.088   2.709   2.637
19792SOL    HW161150   4.162   2.768   2.628
19792SOL    HW261151   4.017   2.751   2.589
19793SOL     OW61152   7.116   0.292   0.348
19793SOL    HW161153   7.154   0.379   0.337
19793SOL    HW261154   7.036   0.293   0.295
19794SOL     OW61155  12.185  13.970   8.529
19794SOL    HW161156  12.144  14.004   8.609
19794SOL    HW261157  12.267  14.019   8.521
19795SOL     OW61158   0.674   1.615  12.593
19795SOL    HW161159   0.766   1.636  12.607
19795SOL    HW261160   0.672   1.562  12.513
19796SOL     OW61161  13.234   3.888   0.221
19796SOL    HW161162  13.296   3.859   0.287
19796SOL    HW261163  13.149   3.855   0.252
19797SOL     OW61164   3.675  14.580  11.393
19797SOL    HW161165   3.734  14.511  11.422
19797SOL    HW261166   3.687  14.651  11.456
19798SOL     OW61167   7.786  12.589   6.061
19798SOL    HW161168   7.732  12.616   6.136
19798SOL    HW261169   7.750  12.638   5.987
19799SOL     OW61170   7.549   0.049  13.893
19799SOL    HW161171   7.458   0.076  13.900
19799SOL    HW261172   7.595   0.103  13.957
19800SOL     OW61173  13.685   0.486  12.605
19800SOL    HW161174  13.626   0.472  12.530
19800SOL    HW261175  13.704   0.397  12.636
19801SOL     OW61176   6.503   2.468  13.553
19801SOL    HW161177   6.463   2.381  13.550
19801SOL    HW261178   6.556   2.467  13.633
19802SOL     OW61179   2.189  13.872   0.467
19802SOL    HW161180   2.111  13.926   0.483
19802SOL    HW261181   2.246  13.929   0.416
19803SOL     OW61182  11.420   5.512   1.368
19803SOL    HW161183  11.420   5.526   1.463
19803SOL    HW261184  11.352   5.446   1.353
19804SOL     OW61185   2.006   7.184   9.133
19804SOL    HW161186   2.031   7.140   9.214
19804SOL    HW261187   1.938   7.246   9.159
19805SOL     OW61188   3.493  10.800   5.183
19805SOL    HW161189   3.473  10.747   5.105
19805SOL    HW261190   3.585  10.823   5.173
19806SOL     OW61191   4.448  12.405   2.837
19806SOL    HW161192   4.361  12.441   2.856
19806SOL    HW261193   4.509  12.467   2.875
19807SOL     OW61194  13.733   2.291  11.299
19807SOL    HW161195  13.737   2.212  11.245
19807SOL    HW261196  13.787   2.271  11.375
19808SOL     OW61197  14.781   0.570  14.324
19808SOL    HW161198  14.796   0.603  14.413
19808SOL    HW261199  14.686   0.560  14.318
19809SOL     OW61200  13.921  12.508  10.301
19809SOL    HW161201  14.002  12.509  10.352
19809SOL    HW261202  13.939  12.566  10.227
19810SOL     OW61203   0.508   6.249   6.645
19810SOL    HW161204   0.504   6.267   6.551
19810SOL    HW261205   0.588   6.197   6.656
19811SOL     OW61206  12.264   8.432   9.427
19811SOL    HW161207  12.340   8.477   9.463
19811SOL    HW261208  12.189   8.485   9.455
19812SOL     OW61209   4.814   5.392   1.436
19812SOL    HW161210   4.737   5.399   1.492
19812SOL    HW261211   4.805   5.464   1.373
19813SOL     OW61212  10.626  12.170   4.852
19813SOL    HW161213  10.622  12.236   4.922
19813SOL    HW261214  10.558  12.197   4.790
19814SOL     OW61215   3.111   8.676  14.271
19814SOL    HW161216   3.040   8.633  14.319
19814SOL    HW261217   3.122   8.760  14.314
19815SOL     OW61218   2.259   5.623  14.598
19815SOL    HW161219   2.186   5.564  14.618
19815SOL    HW261220   2.265   5.680  14.674
19816SOL     OW61221   2.246   8.397   2.253
19816SOL    HW161222   2.213   8.411   2.164
19816SOL    HW261223   2.318   8.335   2.242
19817SOL     OW61224   7.218  10.091   8.081
19817SOL    HW161225   7.215  10.126   7.991
19817SOL    HW261226   7.136  10.122   8.120
19818SOL     OW61227   8.423  11.887  14.325
19818SOL    HW161228   8.400  11.803  14.364
19818SOL    HW261229   8.486  11.865  14.256
19819SOL     OW61230   4.434   3.991   6.109
19819SOL    HW161231   4.476   4.033   6.034
19819SOL    HW261232   4.466   3.901   6.108
19820SOL     OW61233  11.646   2.876  11.551
19820SOL    HW161234  11.558   2.912  11.546
19820SOL    HW261235  11.664   2.869  11.645
19821SOL     OW61236   1.095   8.537  13.532
19821SOL    HW161237   1.143   8.600  13.478
19821SOL    HW261238   1.163   8.497  13.587
19822SOL     OW61239   4.476   5.760  12.280
19822SOL    HW161240   4.444   5.850  12.284
19822SOL    HW261241   4.518   5.753  12.194
19823SOL     OW61242   7.669   9.520   9.153
19823SOL    HW161243   7.713   9.435   9.144
19823SOL    HW261244   7.624   9.532   9.070
19824SOL     OW61245   9.270   1.688  14.792
19824SOL    HW161246   9.331   1.751  14.830
19824SOL    HW261247   9.185   1.714  14.828
19825SOL     OW61248  11.656   4.203   8.158
19825SOL    HW161249  11.706   4.200   8.240
19825SOL    HW261250  11.564   4.197   8.186
19826SOL     OW61251   5.589   7.958   0.642
19826SOL    HW161252   5.639   8.013   0.581
19826SOL    HW261253   5.608   7.868   0.615
19827SOL     OW61254  14.115   9.289   0.842
19827SOL    HW161255  14.024   9.296   0.814
19827SOL    HW261256  14.144   9.380   0.849
19828SOL     OW61257  13.932  10.514   4.117
19828SOL    HW161258  13.929  10.574   4.192
19828SOL    HW261259  14.017  10.532   4.076
19829SOL     OW61260   2.268  10.598   4.576
19829SOL    HW161261   2.353  10.620   4.614
19829SOL    HW261262   2.256  10.661   4.505
19830SOL     OW61263   7.522   4.237   6.591
19830SOL    HW161264   7.431   4.245   6.620
19830SOL    HW261265   7.563   4.181   6.658
19831SOL     OW61266   4.270   5.548  13.160
19831SOL    HW161267   4.194   5.544  13.219
19831SOL    HW261268   4.344   5.566  13.218
19832SOL     OW61269   2.638   1.705  13.049
19832SOL    HW161270   2.598   1.679  12.966
19832SOL    HW261271   2.645   1.800  13.044
19833SOL     OW61272   5.392   6.290  12.242
19833SOL    HW161273   5.390   6.234  12.320
19833SOL    HW261274   5.371   6.377  12.276
19834SOL     OW61275   5.625   6.226   9.192
19834SOL    HW161276   5.640   6.230   9.097
19834SOL    HW261277   5.559   6.157   9.202
19835SOL     OW61278  11.103  14.096  11.304
19835SOL    HW161279  11.072  14.185  11.287
19835SOL    HW261280  11.131  14.097  11.395
19836SOL     OW61281   0.434  14.204  11.705
19836SOL    HW161282   0.419  14.298  11.695
19836SOL    HW261283   0.505  14.184  11.644
19837SOL     OW61284   8.807  14.369  11.107
19837SOL    HW161285   8.846  14.447  11.067
19837SOL    HW261286   8.732  14.402  11.156
19838SOL     OW61287   7.089   3.224   3.447
19838SOL    HW161288   7.060   3.305   3.489
19838SOL    HW261289   7.119   3.168   3.519
19839SOL     OW61290   9.597   1.915  11.973
19839SOL    HW161291   9.677   1.946  11.930
19839SOL    HW261292   9.572   1.986  12.032
19840SOL     OW61293  12.312   1.772   1.324
19840SOL    HW161294  12.324   1.760   1.230
19840SOL    HW261295  12.336   1.863   1.341
19841SOL     OW61296   7.308   1.403   5.505
19841SOL    HW161297   7.263   1.439   5.582
19841SOL    HW261298   7.239   1.387   5.441
19842SOL     OW61299   6.435   0.313   5.450
19842SOL    HW161300   6.390   0.330   5.367
19842SOL    HW261301   6.517   0.362   5.444
19843SOL     OW61302   6.138   0.985   7.115
19843SOL    HW161303   6.136   1.047   7.042
19843SOL    HW261304   6.147   1.039   7.193
19844SOL     OW61305   0.977   8.704  14.648
19844SOL    HW161306   0.983   8.776  14.584
19844SOL    HW261307   1.029   8.734  14.722
19845SOL     OW61308   5.602   9.588   8.410
19845SOL    HW161309   5.636   9.654   8.349
19845SOL    HW261310   5.508   9.587   8.394
19846SOL     OW61311  11.966   8.524   3.616
19846SOL    HW161312  12.016   8.565   3.686
19846SOL    HW261313  11.875   8.526   3.647
19847SOL     OW61314   8.781  12.329   9.976
19847SOL    HW161315   8.856  12.270   9.980
19847SOL    HW261316   8.768  12.359  10.066
19848SOL     OW61317   0.895  14.396   5.770
19848SOL    HW161318   0.907  14.335   5.843
19848SOL    HW261319   0.888  14.482   5.811
19849SOL     OW61320   9.329   1.795  10.455
19849SOL    HW161321   9.414   1.757  10.436
19849SOL    HW261322   9.311   1.770  10.546
19850SOL     OW61323   0.444   5.914   4.538
19850SOL    HW161324   0.478   5.999   4.508
19850SOL    HW261325   0.409   5.931   4.625
19851SOL     OW61326  11.280  14.684   6.654
19851SOL    HW161327  11.348  14.617   6.657
19851SOL    HW261328  11.203  14.642   6.692
19852SOL     OW61329   8.704   4.631   8.016
19852SOL    HW161330   8.757   4.652   7.939
19852SOL    HW261331   8.618   4.607   7.980
19853SOL     OW61332   9.632   9.152  10.879
19853SOL    HW161333   9.617   9.138  10.973
19853SOL    HW261334   9.699   9.220  10.875
19854SOL     OW61335   6.778  13.794   0.708
19854SOL    HW161336   6.786  13.877   0.662
19854SOL    HW261337   6.869  13.766   0.723
19855SOL     OW61338   9.394   4.261   2.079
19855SOL    HW161339   9.371   4.345   2.117
19855SOL    HW261340   9.393   4.200   2.153
19856SOL     OW61341  14.498  14.280   9.633
19856SOL    HW161342  14.588  14.265   9.660
19856SOL    HW261343  14.488  14.228   9.553
19857SOL     OW61344  13.821   4.726   7.510
19857SOL    HW161345  13.757   4.717   7.439
19857SOL    HW261346  13.804   4.651   7.567
19858SOL     OW61347   8.729   1.938  10.318
19858SOL    HW161348   8.802   1.917  10.376
19858SOL    HW261349   8.677   1.857  10.314
19859SOL     OW61350  13.958   4.723   6.589
19859SOL    HW161351  13.969   4.646   6.645
19859SOL    HW261352  13.900   4.781   6.638
19860SOL     OW61353   2.172   2.205  10.593
19860SOL    HW161354   2.173   2.193  10.688
19860SOL    HW261355   2.264   2.207  10.568
19861SOL     OW61356  14.777   0.294  11.938
19861SOL    HW161357  14.772   0.322  12.030
19861SOL    HW261358  14.790   0.199  11.942
19862SOL     OW61359   4.244   9.999   2.201
19862SOL    HW161360   4.290   9.916   2.205
19862SOL    HW261361   4.152   9.975   2.190
19863SOL     OW61362   5.245   0.460  13.020
19863SOL    HW161363   5.150   0.467  13.015
19863SOL    HW261364   5.268   0.506  13.101
19864SOL     OW61365   6.421   8.894   8.717
19864SOL    HW161366   6.505   8.932   8.694
19864SOL    HW261367   6.419   8.810   8.671
19865SOL     OW61368   3.365   3.543   4.370
19865SOL    HW161369   3.321   3.551   4.455
19865SOL    HW261370   3.298   3.568   4.306
19866SOL     OW61371   3.860  13.251  10.764
19866SOL    HW161372   3.875  13.341  10.793
19866SOL    HW261373   3.934  13.202  10.800
19867SOL     OW61374   3.466   9.762   1.980
19867SOL    HW161375   3.401   9.694   2.000
19867SOL    HW261376   3.550   9.722   2.002
19868SOL     OW61377   7.241   7.279  13.920
19868SOL    HW161378   7.256   7.202  13.974
19868SOL    HW261379   7.163   7.320  13.957
19869SOL     OW61380   7.714  13.270   5.886
19869SOL    HW161381   7.740  13.261   5.978
19869SOL    HW261382   7.649  13.340   5.887
19870SOL     OW61383  13.956   4.954   3.928
19870SOL    HW161384  13.906   4.972   3.848
19870SOL    HW261385  14.039   4.999   3.915
19871SOL     OW61386   6.584   8.280   9.954
19871SOL    HW161387   6.658   8.245  10.004
19871SOL    HW261388   6.623   8.311   9.873
19872SOL     OW61389   7.775   2.507   0.322
19872SOL    HW161390   7.775   2.592   0.366
19872SOL    HW261391   7.784   2.443   0.393
19873SOL     OW61392   4.842   3.826  13.741
19873SOL    HW161393   4.872   3.895  13.800
19873SOL    HW261394   4.747   3.832  13.744
19874SOL     OW61395   6.510   5.277  11.245
19874SOL    HW161396   6.578   5.245  11.306
19874SOL    HW261397   6.552   5.348  11.197
19875SOL     OW61398   6.074   7.923  12.186
19875SOL    HW161399   6.078   7.960  12.098
19875SOL    HW261400   6.145   7.967  12.233
19876SOL     OW61401   6.932  10.499   4.251
19876SOL    HW161402   6.921  10.560   4.178
19876SOL    HW261403   6.938  10.556   4.328
19877SOL     OW61404   0.040   4.003   7.754
19877SOL    HW161405  14.844   4.043   7.714
19877SOL    HW261406   0.112   4.061   7.729
19878SOL     OW61407   4.460  11.314  10.900
19878SOL    HW161408   4.387  11.346  10.848
19878SOL    HW261409   4.434  11.330  10.991
19879SOL     OW61410  13.137   5.625   4.645
19879SOL    HW161411  13.169   5.547   4.599
19879SOL    HW261412  13.057   5.596   4.688
19880SOL     OW61413   6.760   2.069   9.868
19880SOL    HW161414   6.775   2.030   9.781
19880SOL    HW261415   6.669   2.098   9.866
19881SOL     OW61416   5.215  10.791   7.352
19881SOL    HW161417   5.168  10.807   7.433
19881SOL    HW261418   5.187  10.861   7.292
19882SOL     OW61419   5.645  13.732   8.154
19882SOL    HW161420   5.641  13.668   8.226
19882SOL    HW261421   5.602  13.810   8.189
19883SOL     OW61422   1.496   2.526  14.789
19883SOL    HW161423   1.591   2.531  14.776
19883SOL    HW261424   1.462   2.606  14.748
19884SOL     OW61425  12.605  10.111   3.703
19884SOL    HW161426  12.655  10.043   3.748
19884SOL    HW261427  12.530  10.128   3.760
19885SOL     OW61428   3.853   0.434  11.801
19885SOL    HW161429   3.804   0.515  11.820
19885SOL    HW261430   3.822   0.408  11.714
19886SOL     OW61431   1.816   5.429   5.721
19886SOL    HW161432   1.824   5.515   5.761
19886SOL    HW261433   1.728   5.427   5.683
19887SOL     OW61434   2.110   8.029   9.142
19887SOL    HW161435   2.039   8.040   9.205
19887SOL    HW261436   2.170   7.968   9.184
19888SOL     OW61437  11.859   7.529   8.332
19888SOL    HW161438  11.916   7.499   8.261
19888SOL    HW261439  11.822   7.611   8.299
19889SOL     OW61440  14.616   2.945  13.075
19889SOL    HW161441  14.529   2.938  13.113
19889SOL    HW261442  14.648   2.855  13.069
19890SOL     OW61443   9.839  14.335   0.033
19890SOL    HW161444   9.790  14.342   0.115
19890SOL    HW261445   9.862  14.425   0.011
19891SOL     OW61446   7.258  10.122   7.282
19891SOL    HW161447   7.296  10.036   7.300
19891SOL    HW261448   7.267  10.170   7.365
19892SOL     OW61449   1.708   0.105   8.320
19892SOL    HW161450   1.784   0.160   8.338
19892SOL    HW261451   1.635   0.166   8.312
19893SOL     OW61452   5.613  13.607   3.705
19893SOL    HW161453   5.531  13.580   3.663
19893SOL    HW261454   5.681  13.572   3.647
19894SOL     OW61455   6.629  11.145   1.283
19894SOL    HW161456   6.573  11.220   1.263
19894SOL    HW261457   6.625  11.091   1.204
19895SOL     OW61458   7.598  13.225   8.712
19895SOL    HW161459   7.651  13.239   8.790
19895SOL    HW261460   7.648  13.268   8.642
19896SOL     OW61461   1.921   2.083   2.412
19896SOL    HW161462   1.887   1.996   2.432
19896SOL    HW261463   1.988   2.068   2.345
19897SOL     OW61464  13.453   6.138  10.335
19897SOL    HW161465  13.424   6.210  10.280
19897SOL    HW261466  13.539   6.114  10.301
19898SOL     OW61467  12.529   4.337   2.445
19898SOL    HW161468  12.612   4.381   2.459
19898SOL    HW261469  12.536   4.299   2.358
19899SOL     OW61470   7.532   1.996   6.281
19899SOL    HW161471   7.530   1.900   6.286
19899SOL    HW261472   7.542   2.014   6.188
19900SOL     OW61473  12.816  12.172  13.706
19900SOL    HW161474  12.892  12.115  13.695
19900SOL    HW261475  12.852  12.261  13.698
19901SOL     OW61476  11.785   2.645   0.515
19901SOL    HW161477  11.767   2.576   0.451
19901SOL    HW261478  11.766   2.605   0.600
19902SOL     OW61479  11.541  13.088  14.765
19902SOL    HW161480  11.536  13.096  14.860
19902SOL    HW261481  11.590  13.007  14.750
19903SOL     OW61482   4.714   9.104  10.278
19903SOL    HW161483   4.673   9.180  10.237
19903SOL    HW261484   4.730   9.132  10.368
19904SOL     OW61485   9.119  13.169   1.453
19904SOL    HW161486   9.113  13.089   1.401
19904SOL    HW261487   9.029  13.188   1.478
19905SOL     OW61488   4.632   0.743   9.836
19905SOL    HW161489   4.601   0.810   9.897
19905SOL    HW261490   4.564   0.736   9.770
19906SOL     OW61491   5.097   6.202  13.987
19906SOL    HW161492   5.153   6.229  14.059
19906SOL    HW261493   5.156   6.191  13.913
19907SOL     OW61494  12.614   5.266   6.556
19907SOL    HW161495  12.604   5.193   6.618
19907SOL    HW261496  12.704   5.259   6.526
19908SOL     OW61497   0.186   9.906   6.969
19908SOL    HW161498   0.160   9.819   6.937
19908SOL    HW261499   0.144   9.967   6.908
19909SOL     OW61500   1.190  10.205   2.264
19909SOL    HW161501   1.099  10.215   2.236
19909SOL    HW261502   1.235  10.173   2.186
19910SOL     OW61503  14.207  10.967   8.178
19910SOL    HW161504  14.278  11.018   8.139
19910SOL    HW261505  14.227  10.876   8.156
19911SOL     OW61506   1.596   9.489  11.423
19911SOL    HW161507   1.551   9.562  11.464
19911SOL    HW261508   1.632   9.439  11.497
19912SOL     OW61509  11.299   2.884   9.902
19912SOL    HW161510  11.360   2.812   9.885
19912SOL    HW261511  11.300   2.894   9.998
19913SOL     OW61512   8.773  11.476   9.186
19913SOL    HW161513   8.772  11.428   9.103
19913SOL    HW261514   8.684  11.468   9.219
19914SOL     OW61515   0.774   9.879   3.579
19914SOL    HW161516   0.839   9.905   3.513
19914SOL    HW261517   0.782   9.945   3.648
19915SOL     OW61518   7.631   4.652  10.987
19915SOL    HW161519   7.565   4.690  11.045
19915SOL    HW261520   7.582   4.593  10.930
19916SOL     OW61521   6.580   6.368   6.217
19916SOL    HW161522   6.620   6.442   6.262
19916SOL    HW261523   6.627   6.362   6.134
19917SOL     OW61524   0.915   8.273   4.774
19917SOL    HW161525   0.878   8.185   4.779
19917SOL    HW261526   0.927   8.289   4.680
19918SOL     OW61527   8.895   7.134   1.163
19918SOL    HW161528   8.904   7.044   1.131
19918SOL    HW261529   8.943   7.133   1.246
19919SOL     OW61530   3.264   1.412  11.733
19919SOL    HW161531   3.306   1.495  11.757
19919SOL    HW261532   3.243   1.370  11.817
19920SOL     OW61533  11.653  12.974   3.436
19920SOL    HW161534  11.740  12.935   3.426
19920SOL    HW261535  11.618  12.934   3.516
19921SOL     OW61536  14.077   0.070   6.159
19921SOL    HW161537  14.000   0.075   6.102
19921SOL    HW261538  14.120  14.869   6.134
19922SOL     OW61539   1.100   1.890   4.116
19922SOL    HW161540   1.123   1.807   4.158
19922SOL    HW261541   1.115   1.956   4.183
19923SOL     OW61542   4.204   0.666   2.423
19923SOL    HW161543   4.147   0.730   2.381
19923SOL    HW261544   4.166   0.581   2.400
19924SOL     OW61545  10.462   8.825  14.119
19924SOL    HW161546  10.376   8.815  14.078
19924SOL    HW261547  10.443   8.848  14.210
19925SOL     OW61548  11.031  14.011   8.965
19925SOL    HW161549  11.065  13.992   9.052
19925SOL    HW261550  10.988  14.096   8.974
19926SOL     OW61551  11.190   6.830   5.277
19926SOL    HW161552  11.195   6.877   5.193
19926SOL    HW261553  11.205   6.898   5.343
19927SOL     OW61554  12.098  13.331   5.587
19927SOL    HW161555  12.109  13.263   5.521
19927SOL    HW261556  12.164  13.397   5.565
19928SOL     OW61557   0.099   9.553   5.640
19928SOL    HW161558   0.138   9.509   5.566
19928SOL    HW261559   0.038   9.616   5.601
19929SOL     OW61560  12.225  11.737   5.230
19929SOL    HW161561  12.185  11.652   5.215
19929SOL    HW261562  12.217  11.751   5.324
19930SOL     OW61563   0.093  12.309   9.238
19930SOL    HW161564   0.061  12.225   9.268
19930SOL    HW261565   0.185  12.293   9.214
19931SOL     OW61566  12.780   7.222   1.745
19931SOL    HW161567  12.800   7.167   1.669
19931SOL    HW261568  12.857   7.279   1.753
19932SOL     OW61569   4.505  10.759   3.201
19932SOL    HW161570   4.543  10.820   3.264
19932SOL    HW261571   4.487  10.812   3.124
19933SOL     OW61572  14.165   2.696  10.085
19933SOL    HW161573  14.185   2.604  10.103
19933SOL    HW261574  14.201   2.743  10.160
19934SOL     OW61575   3.749  11.714  13.560
19934SOL    HW161576   3.697  11.670  13.627
19934SOL    HW261577   3.751  11.806  13.588
19935SOL     OW61578   1.118   4.213   6.461
19935SOL    HW161579   1.095   4.200   6.369
19935SOL    HW261580   1.098   4.305   6.477
19936SOL     OW61581   7.674   8.258   1.579
19936SOL    HW161582   7.744   8.323   1.584
19936SOL    HW261583   7.627   8.280   1.498
19937SOL     OW61584   4.940   1.935   4.746
19937SOL    HW161585   4.894   1.989   4.810
19937SOL    HW261586   5.006   1.993   4.709
19938SOL     OW61587   0.968   9.239   8.878
19938SOL    HW161588   1.047   9.186   8.866
19938SOL    HW261589   0.908   9.207   8.810
19939SOL     OW61590   4.656   4.540   7.798
19939SOL    HW161591   4.663   4.451   7.762
19939SOL    HW261592   4.734   4.550   7.853
19940SOL     OW61593   8.837   2.775  13.716
19940SOL    HW161594   8.837   2.791  13.621
19940SOL    HW261595   8.924   2.804  13.745
19941SOL     OW61596   5.305  11.600   9.506
19941SOL    HW161597   5.230  11.657   9.489
19941SOL    HW261598   5.283  11.518   9.462
19942SOL     OW61599  12.443   4.252  10.349
19942SOL    HW161600  12.433   4.254  10.444
19942SOL    HW261601  12.458   4.343  10.325
19943SOL     OW61602  13.803   6.997   2.989
19943SOL    HW161603  13.864   7.023   3.058
19943SOL    HW261604  13.836   6.912   2.959
19944SOL     OW61605   5.493   1.776  10.315
19944SOL    HW161606   5.462   1.852  10.365
19944SOL    HW261607   5.557   1.735  10.373
19945SOL     OW61608  11.481   2.417   6.076
19945SOL    HW161609  11.562   2.466   6.063
19945SOL    HW261610  11.480   2.398   6.170
19946SOL     OW61611   5.639   2.607   3.556
19946SOL    HW161612   5.659   2.517   3.582
19946SOL    HW261613   5.604   2.599   3.468
19947SOL     OW61614  12.745  11.379  14.147
19947SOL    HW161615  12.724  11.319  14.075
19947SOL    HW261616  12.840  11.393  14.138
19948SOL     OW61617   2.367   5.358   2.176
19948SOL    HW161618   2.432   5.383   2.241
19948SOL    HW261619   2.334   5.274   2.206
19949SOL     OW61620   8.370   7.866   0.153
19949SOL    HW161621   8.459   7.832   0.148
19949SOL    HW261622   8.366   7.909   0.239
19950SOL     OW61623   2.178   8.950   5.115
19950SOL    HW161624   2.176   8.882   5.047
19950SOL    HW261625   2.241   8.918   5.180
19951SOL     OW61626   5.852   8.582  14.221
19951SOL    HW161627   5.838   8.523  14.147
19951SOL    HW261628   5.911   8.650  14.187
19952SOL     OW61629   7.863  14.613   8.360
19952SOL    HW161630   7.853  14.518   8.357
19952SOL    HW261631   7.883  14.638   8.270
19953SOL     OW61632   6.997   8.164  12.229
19953SOL    HW161633   7.091   8.157  12.212
19953SOL    HW261634   6.960   8.188  12.144
19954SOL     OW61635  12.352   3.151   7.627
19954SOL    HW161636  12.360   3.218   7.695
19954SOL    HW261637  12.360   3.068   7.673
19955SOL     OW61638   5.783   7.473   6.877
19955SOL    HW161639   5.732   7.435   6.805
19955SOL    HW261640   5.837   7.401   6.910
19956SOL     OW61641   9.388   6.295  11.726
19956SOL    HW161642   9.427   6.239  11.659
19956SOL    HW261643   9.399   6.384  11.691
19957SOL     OW61644  14.636  10.662   5.129
19957SOL    HW161645  14.564  10.636   5.072
19957SOL    HW261646  14.600  10.731   5.185
19958SOL     OW61647   5.713  13.246   1.034
19958SOL    HW161648   5.799  13.213   1.010
19958SOL    HW261649   5.715  13.252   1.129
19959SOL     OW61650   5.926   2.238   1.523
19959SOL    HW161651   6.003   2.201   1.480
19959SOL    HW261652   5.891   2.301   1.459
19960SOL     OW61653  12.922  14.834   5.109
19960SOL    HW161654  12.828  14.849   5.121
19960SOL    HW261655  12.928  14.764   5.045
19961SOL     OW61656   3.915  14.152   2.112
19961SOL    HW161657   3.968  14.232   2.122
19961SOL    HW261658   3.845  14.162   2.176
19962SOL     OW61659  14.076  11.217  13.778
19962SOL    HW161660  14.115  11.304  13.789
19962SOL    HW261661  14.046  11.215  13.687
19963SOL     OW61662   7.806   7.493   3.701
19963SOL    HW161663   7.850   7.552   3.762
19963SOL    HW261664   7.877   7.439   3.665
19964SOL     OW61665   8.770   5.755   0.372
19964SOL    HW161666   8.855   5.789   0.345
19964SOL    HW261667   8.740   5.704   0.297
19965SOL     OW61668  13.504   5.061   0.530
19965SOL    HW161669  13.530   4.991   0.471
19965SOL    HW261670  13.569   5.059   0.600
19966SOL     OW61671  10.106  12.026   0.883
19966SOL    HW161672  10.085  12.092   0.948
19966SOL    HW261673  10.108  11.943   0.932
19967SOL     OW61674   1.833  11.390   3.570
19967SOL    HW161675   1.795  11.341   3.497
19967SOL    HW261676   1.925  11.366   3.570
19968SOL     OW61677   5.175  14.415   2.404
19968SOL    HW161678   5.172  14.365   2.486
19968SOL    HW261679   5.166  14.506   2.431
19969SOL     OW61680  10.860   8.903  10.185
19969SOL    HW161681  10.785   8.904  10.126
19969SOL    HW261682  10.855   8.986  10.232
19970SOL     OW61683  14.098   5.541   3.183
19970SOL    HW161684  14.048   5.467   3.218
19970SOL    HW261685  14.117   5.596   3.260
19971SOL     OW61686  13.390   4.109   5.690
19971SOL    HW161687  13.432   4.183   5.735
19971SOL    HW261688  13.412   4.121   5.598
19972SOL     OW61689   5.163   2.545   7.279
19972SOL    HW161690   5.092   2.483   7.263
19972SOL    HW261691   5.198   2.564   7.192
19973SOL     OW61692   7.380   1.822  10.795
19973SOL    HW161693   7.469   1.857  10.802
19973SOL    HW261694   7.323   1.899  10.792
19974SOL     OW61695  10.634   8.232  10.646
19974SOL    HW161696  10.678   8.161  10.599
19974SOL    HW261697  10.543   8.226  10.617
19975SOL     OW61698   2.046   2.037   5.689
19975SOL    HW161699   1.960   1.998   5.674
19975SOL    HW261700   2.107   1.979   5.645
19976SOL     OW61701   2.057   3.065  11.730
19976SOL    HW161702   2.061   3.091  11.822
19976SOL    HW261703   2.005   3.133  11.688
19977SOL     OW61704   3.385   4.927   0.125
19977SOL    HW161705   3.480   4.915   0.116
19977SOL    HW261706   3.368   5.012   0.084
19978SOL     OW61707  11.127  11.707   1.268
19978SOL    HW161708  11.047  11.714   1.216
19978SOL    HW261709  11.145  11.613   1.272
19979SOL     OW61710   4.645   6.652  14.724
19979SOL    HW161711   4.595   6.680  14.648
19979SOL    HW261712   4.638   6.557  14.724
19980SOL     OW61713   7.993   2.820   7.620
19980SOL    HW161714   8.072   2.765   7.618
19980SOL    HW261715   7.924   2.762   7.653
19981SOL     OW61716  11.377   4.859   6.196
19981SOL    HW161717  11.311   4.822   6.137
19981SOL    HW261718  11.395   4.788   6.258
19982SOL     OW61719   2.178   8.136  11.276
19982SOL    HW161720   2.103   8.190  11.250
19982SOL    HW261721   2.253   8.174  11.230
19983SOL     OW61722   6.334  12.729   8.777
19983SOL    HW161723   6.308  12.820   8.789
19983SOL    HW261724   6.328  12.714   8.683
19984SOL     OW61725   5.988  10.054   3.098
19984SOL    HW161726   5.905  10.054   3.145
19984SOL    HW261727   5.965  10.082   3.009
19985SOL     OW61728   4.130  11.407   1.365
19985SOL    HW161729   4.079  11.358   1.430
19985SOL    HW261730   4.177  11.340   1.316
19986SOL     OW61731   1.790  12.817   5.603
19986SOL    HW161732   1.782  12.868   5.522
19986SOL    HW261733   1.701  12.789   5.623
19987SOL     OW61734  12.017   4.831  14.107
19987SOL    HW161735  11.938   4.882  14.090
19987SOL    HW261736  12.021   4.769  14.034
19988SOL     OW61737   3.026   3.889   1.264
19988SOL    HW161738   2.959   3.895   1.332
19988SOL    HW261739   3.082   3.965   1.279
19989SOL     OW61740   5.455  13.216   4.297
19989SOL    HW161741   5.477  13.282   4.232
19989SOL    HW261742   5.537  13.200   4.344
19990SOL     OW61743   7.892   6.484   6.873
19990SOL    HW161744   7.932   6.399   6.854
19990SOL    HW261745   7.873   6.481   6.967
19991SOL     OW61746   3.666   2.777  10.052
19991SOL    HW161747   3.592   2.804   9.998
19991SOL    HW261748   3.722   2.854  10.057
19992SOL     OW61749   7.726   6.005   6.049
19992SOL    HW161750   7.639   5.966   6.041
19992SOL    HW261751   7.786   5.937   6.019
19993SOL     OW61752   6.015   8.181  13.718
19993SOL    HW161753   6.092   8.128  13.698
19993SOL    HW261754   5.941   8.130  13.684
19994SOL     OW61755   0.213   7.482   0.700
19994SOL    HW161756   0.174   7.395   0.699
19994SOL    HW261757   0.301   7.469   0.735
19995SOL     OW61758   0.159   1.902   3.472
19995SOL    HW161759   0.091   1.858   3.523
19995SOL    HW261760   0.128   1.992   3.462
19996SOL     OW61761  13.263   9.028  14.670
19996SOL    HW161762  13.171   9.006  14.660
19996SOL    HW261763  13.303   9.003  14.587
19997SOL     OW61764   1.282  13.686   6.120
19997SOL    HW161765   1.224  13.617   6.152
19997SOL    HW261766   1.223  13.750   6.079
19998SOL     OW61767   0.920  10.006   1.519
19998SOL    HW161768   0.930   9.958   1.437
19998SOL    HW261769   0.942   9.943   1.587
19999SOL     OW61770   0.208   9.607   2.279
19999SOL    HW161771   0.230   9.645   2.194
19999SOL    HW261772   0.145   9.538   2.259
20000SOL     OW61773   1.191  14.190   9.845
20000SOL    HW161774   1.213  14.112   9.793
20000SOL    HW261775   1.157  14.154   9.927
20001SOL     OW61776  10.433  10.470   8.523
20001SOL    HW161777  10.394  10.456   8.437
20001SOL    HW261778  10.457  10.383   8.553
20002SOL     OW61779   1.108  13.261   6.588
20002SOL    HW161780   1.139  13.189   6.642
20002SOL    HW261781   1.061  13.318   6.648
20003SOL     OW61782   4.830   9.921   9.806
20003SOL    HW161783   4.847   9.888   9.718
20003SOL    HW261784   4.831   9.843   9.861
20004SOL     OW61785   0.848   0.888   4.742
20004SOL    HW161786   0.921   0.887   4.680
20004SOL    HW261787   0.783   0.945   4.701
20005SOL     OW61788  12.215  10.250   1.964
20005SOL    HW161789  12.126  10.241   1.997
20005SOL    HW261790  12.220  10.189   1.890
20006SOL     OW61791  10.648  10.290   1.552
20006SOL    HW161792  10.724  10.349   1.549
20006SOL    HW261793  10.581  10.335   1.501
20007SOL     OW61794   5.861  12.308   1.983
20007SOL    HW161795   5.803  12.232   1.977
20007SOL    HW261796   5.936  12.278   2.034
20008SOL     OW61797   6.777   8.446   2.915
20008SOL    HW161798   6.787   8.513   2.982
20008SOL    HW261799   6.823   8.370   2.950
20009SOL     OW61800   6.816   7.868   5.498
20009SOL    HW161801   6.743   7.841   5.553
20009SOL    HW261802   6.879   7.906   5.559
20010SOL     OW61803   6.217   2.857  13.318
20010SOL    HW161804   6.287   2.802  13.354
20010SOL    HW261805   6.243   2.946  13.339
20011SOL     OW61806   0.179   9.380   1.767
20011SOL    HW161807   0.114   9.403   1.833
20011SOL    HW261808   0.208   9.463   1.730
20012SOL     OW61809  11.003  13.165   2.629
20012SOL    HW161810  10.925  13.161   2.685
20012SOL    HW261811  11.071  13.123   2.681
20013SOL     OW61812   7.677  10.683   1.126
20013SOL    HW161813   7.754  10.633   1.154
20013SOL    HW261814   7.684  10.766   1.172
20014SOL     OW61815   6.617  13.411   1.181
20014SOL    HW161816   6.609  13.504   1.161
20014SOL    HW261817   6.553  13.369   1.123
20015SOL     OW61818   3.948  10.309  10.078
20015SOL    HW161819   4.011  10.368  10.121
20015SOL    HW261820   3.926  10.353   9.996
20016SOL     OW61821  10.159   7.076   5.020
20016SOL    HW161822  10.087   7.014   5.031
20016SOL    HW261823  10.232   7.022   4.989
20017SOL     OW61824   5.425   5.347   8.568
20017SOL    HW161825   5.434   5.289   8.492
20017SOL    HW261826   5.348   5.314   8.613
20018SOL     OW61827   6.844   3.985   7.794
20018SOL    HW161828   6.777   4.038   7.838
20018SOL    HW261829   6.876   3.925   7.861
20019SOL     OW61830   1.069  13.577  12.927
20019SOL    HW161831   1.071  13.641  12.856
20019SOL    HW261832   1.009  13.508  12.897
20020SOL     OW61833   3.137  14.620  12.539
20020SOL    HW161834   3.058  14.566  12.540
20020SOL    HW261835   3.108  14.706  12.509
20021SOL     OW61836  14.380   3.067   6.464
20021SOL    HW161837  14.345   3.156   6.467
20021SOL    HW261838  14.410   3.055   6.374
20022SOL     OW61839   7.416   2.395   6.464
20022SOL    HW161840   7.325   2.417   6.441
20022SOL    HW261841   7.469   2.446   6.402
20023SOL     OW61842   4.588   1.905   5.784
20023SOL    HW161843   4.600   1.902   5.878
20023SOL    HW261844   4.495   1.886   5.770
20024SOL     OW61845   2.485   9.103   6.795
20024SOL    HW161846   2.503   9.100   6.701
20024SOL    HW261847   2.553   9.048   6.834
20025SOL     OW61848  14.154  10.447   5.564
20025SOL    HW161849  14.079  10.503   5.582
20025SOL    HW261850  14.218  10.505   5.521
20026SOL     OW61851   8.269  11.576  11.030
20026SOL    HW161852   8.303  11.521  11.101
20026SOL    HW261853   8.343  11.585  10.970
20027SOL     OW61854  10.730   0.250  14.081
20027SOL    HW161855  10.670   0.203  14.023
20027SOL    HW261856  10.804   0.191  14.092
20028SOL     OW61857   3.840  12.497   2.776
20028SOL    HW161858   3.848  12.405   2.748
20028SOL    HW261859   3.914  12.541   2.734
20029SOL     OW61860  14.097   4.801   0.514
20029SOL    HW161861  14.172   4.744   0.500
20029SOL    HW261862  14.092   4.854   0.434
20030SOL     OW61863  12.653   5.333   9.300
20030SOL    HW161864  12.697   5.260   9.256
20030SOL    HW261865  12.671   5.320   9.393
20031SOL     OW61866  13.858   5.135   8.813
20031SOL    HW161867  13.890   5.068   8.753
20031SOL    HW261868  13.838   5.088   8.894
20032SOL     OW61869   1.321  10.543   5.200
20032SOL    HW161870   1.231  10.574   5.193
20032SOL    HW261871   1.316  10.449   5.181
20033SOL     OW61872  12.888   1.921   1.810
20033SOL    HW161873  12.962   1.861   1.805
20033SOL    HW261874  12.875   1.936   1.904
20034SOL     OW61875   4.824  12.937   8.950
20034SOL    HW161876   4.859  12.979   8.871
20034SOL    HW261877   4.878  12.971   9.021
20035SOL     OW61878  11.118   5.741   7.441
20035SOL    HW161879  11.038   5.789   7.421
20035SOL    HW261880  11.159   5.727   7.356
20036SOL     OW61881  14.234  13.573   9.743
20036SOL    HW161882  14.149  13.555   9.783
20036SOL    HW261883  14.289  13.601   9.816
20037SOL     OW61884  14.708  11.174   9.076
20037SOL    HW161885  14.802  11.187   9.089
20037SOL    HW261886  14.698  11.079   9.079
20038SOL     OW61887   1.052   3.084   8.976
20038SOL    HW161888   0.962   3.101   8.950
20038SOL    HW261889   1.093   3.170   8.980
20039SOL     OW61890  11.677  10.738   7.903
20039SOL    HW161891  11.587  10.748   7.935
20039SOL    HW261892  11.668  10.689   7.821
20040SOL     OW61893   4.465   8.792   9.937
20040SOL    HW161894   4.486   8.820  10.026
20040SOL    HW261895   4.544   8.813   9.887
20041SOL     OW61896   2.346   4.241  12.301
20041SOL    HW161897   2.284   4.225  12.230
20041SOL    HW261898   2.405   4.308  12.266
20042SOL     OW61899   8.672  11.617  14.157
20042SOL    HW161900   8.596  11.631  14.101
20042SOL    HW261901   8.747  11.624  14.098
20043SOL     OW61902   2.609   0.040  10.613
20043SOL    HW161903   2.541  14.864  10.578
20043SOL    HW261904   2.666   0.059  10.539
20044SOL     OW61905   7.121   0.355  11.030
20044SOL    HW161906   7.204   0.321  10.996
20044SOL    HW261907   7.061   0.348  10.956
20045SOL     OW61908  14.124  10.289  14.781
20045SOL    HW161909  14.196  10.294  14.844
20045SOL    HW261910  14.073  10.213  14.809
20046SOL     OW61911  11.417  12.688   8.298
20046SOL    HW161912  11.419  12.677   8.393
20046SOL    HW261913  11.324  12.685   8.276
20047SOL     OW61914  13.996  14.617   8.258
20047SOL    HW161915  14.045  14.650   8.333
20047SOL    HW261916  13.994  14.690   8.197
20048SOL     OW61917  11.142   7.119   7.246
20048SOL    HW161918  11.218   7.112   7.188
20048SOL    HW261919  11.111   7.208   7.234
20049SOL     OW61920   9.545  11.844   2.730
20049SOL    HW161921   9.524  11.815   2.819
20049SOL    HW261922   9.577  11.934   2.741
20050SOL     OW61923   5.513  13.363   3.263
20050SOL    HW161924   5.483  13.400   3.180
20050SOL    HW261925   5.523  13.269   3.245
20051SOL     OW61926   7.938   8.496   2.854
20051SOL    HW161927   7.926   8.408   2.818
20051SOL    HW261928   8.007   8.534   2.800
20052SOL     OW61929   1.960   0.057   4.276
20052SOL    HW161930   2.016   0.048   4.199
20052SOL    HW261931   1.938  14.848   4.300
20053SOL     OW61932  10.590  11.885   4.852
20053SOL    HW161933  10.600  11.979   4.838
20053SOL    HW261934  10.622  11.845   4.772
20054SOL     OW61935   8.301   1.781  12.269
20054SOL    HW161936   8.335   1.869  12.285
20054SOL    HW261937   8.380   1.727  12.260
20055SOL     OW61938   9.654   9.847  13.821
20055SOL    HW161939   9.742   9.823  13.850
20055SOL    HW261940   9.597   9.828  13.896
20056SOL     OW61941   7.654   6.475  12.047
20056SOL    HW161942   7.693   6.521  11.973
20056SOL    HW261943   7.608   6.544  12.095
20057SOL     OW61944   0.716   3.999  11.701
20057SOL    HW161945   0.803   4.012  11.738
20057SOL    HW261946   0.671   3.944  11.765
20058SOL     OW61947   9.972   4.753   2.834
20058SOL    HW161948   9.891   4.704   2.841
20058SOL    HW261949   9.948   4.843   2.856
20059SOL     OW61950   5.079   0.793   0.334
20059SOL    HW161951   5.092   0.797   0.239
20059SOL    HW261952   5.065   0.884   0.360
20060SOL     OW61953   9.909   1.805   2.987
20060SOL    HW161954   9.887   1.776   3.076
20060SOL    HW261955  10.005   1.804   2.985
20061SOL     OW61956   6.214  11.240  14.281
20061SOL    HW161957   6.203  11.332  14.306
20061SOL    HW261958   6.300  11.216  14.314
20062SOL     OW61959   2.465  11.763   8.116
20062SOL    HW161960   2.498  11.688   8.066
20062SOL    HW261961   2.468  11.734   8.207
20063SOL     OW61962  10.124  10.354   5.416
20063SOL    HW161963  10.067  10.332   5.490
20063SOL    HW261964  10.108  10.446   5.399
20064SOL     OW61965  12.298   8.396   8.857
20064SOL    HW161966  12.363   8.341   8.814
20064SOL    HW261967  12.214   8.353   8.839
20065SOL     OW61968   6.256   4.569   2.398
20065SOL    HW161969   6.279   4.477   2.410
20065SOL    HW261970   6.310   4.599   2.326
20066SOL     OW61971  12.384   3.472   8.257
20066SOL    HW161972  12.351   3.384   8.273
20066SOL    HW261973  12.394   3.477   8.162
20067SOL     OW61974   6.275  14.148   3.528
20067SOL    HW161975   6.242  14.145   3.618
20067SOL    HW261976   6.200  14.123   3.474
20068SOL     OW61977   6.416  10.223   0.030
20068SOL    HW161978   6.357  10.281  14.862
20068SOL    HW261979   6.372  10.138   0.029
20069SOL     OW61980   7.004  14.804  13.986
20069SOL    HW161981   7.008  14.757  13.903
20069SOL    HW261982   6.919  14.848  13.985
20070SOL     OW61983   5.764   2.930  13.039
20070SOL    HW161984   5.686   2.878  13.020
20070SOL    HW261985   5.757   3.005  12.981
20071SOL     OW61986   6.564   7.505   8.644
20071SOL    HW161987   6.619   7.520   8.721
20071SOL    HW261988   6.475   7.526   8.674
20072SOL     OW61989  11.138   0.181  11.721
20072SOL    HW161990  11.063   0.236  11.699
20072SOL    HW261991  11.106   0.092  11.708
20073SOL     OW61992   7.497  11.255  10.840
20073SOL    HW161993   7.523  11.263  10.931
20073SOL    HW261994   7.570  11.209  10.798
20074SOL     OW61995   5.413   5.825   1.209
20074SOL    HW161996   5.446   5.900   1.258
20074SOL    HW261997   5.423   5.751   1.269
20075SOL     OW61998   5.464   9.829   0.743
20075SOL    HW161999   5.409   9.905   0.728
20075SOL    HW262000   5.507   9.814   0.658
20076SOL     OW62001   3.330  11.539   3.194
20076SOL    HW162002   3.280  11.584   3.262
20076SOL    HW262003   3.280  11.554   3.114
20077SOL     OW62004   6.212  11.782   1.278
20077SOL    HW162005   6.241  11.703   1.232
20077SOL    HW262006   6.243  11.854   1.224
20078SOL     OW62007  10.026   9.403   9.856
20078SOL    HW162008  10.096   9.459   9.888
20078SOL    HW262009   9.962   9.403   9.927
20079SOL     OW62010   9.871   8.570   3.867
20079SOL    HW162011   9.874   8.474   3.867
20079SOL    HW262012   9.885   8.595   3.775
20080SOL     OW62013   8.569   8.393   7.740
20080SOL    HW162014   8.567   8.488   7.751
20080SOL    HW262015   8.519   8.377   7.660
20081SOL     OW62016   9.489   8.991   2.531
20081SOL    HW162017   9.532   8.955   2.453
20081SOL    HW262018   9.419   8.929   2.550
20082SOL     OW62019   5.425  12.989  11.411
20082SOL    HW162020   5.468  13.030  11.336
20082SOL    HW262021   5.445  12.896  11.404
20083SOL     OW62022   2.535   4.377   5.549
20083SOL    HW162023   2.519   4.352   5.640
20083SOL    HW262024   2.550   4.294   5.503
20084SOL     OW62025  13.404  14.824   4.354
20084SOL    HW162026  13.472  14.817   4.422
20084SOL    HW262027  13.442   0.002   4.289
20085SOL     OW62028   0.578   4.254  10.158
20085SOL    HW162029   0.558   4.163  10.181
20085SOL    HW262030   0.504   4.304  10.191
20086SOL     OW62031   2.822   5.687   7.197
20086SOL    HW162032   2.738   5.696   7.241
20086SOL    HW262033   2.811   5.612   7.139
20087SOL     OW62034   5.962   2.575   0.568
20087SOL    HW162035   5.939   2.665   0.591
20087SOL    HW262036   5.908   2.556   0.492
20088SOL     OW62037   2.056  13.627  10.505
20088SOL    HW162038   2.069  13.597  10.595
20088SOL    HW262039   2.071  13.550  10.451
20089SOL     OW62040   8.451  11.706  13.996
20089SOL    HW162041   8.381  11.662  14.044
20089SOL    HW262042   8.432  11.689  13.904
20090SOL     OW62043   8.359  13.160   0.021
20090SOL    HW162044   8.308  13.220   0.075
20090SOL    HW262045   8.337  13.073   0.054
20091SOL     OW62046   4.311  12.834   3.781
20091SOL    HW162047   4.307  12.835   3.685
20091SOL    HW262048   4.222  12.812   3.809
20092SOL     OW62049   9.099  11.460   4.038
20092SOL    HW162050   9.018  11.468   4.089
20092SOL    HW262051   9.108  11.545   3.994
20093SOL     OW62052   8.846   6.796   9.820
20093SOL    HW162053   8.764   6.759   9.851
20093SOL    HW262054   8.821   6.859   9.753
20094SOL     OW62055  13.425   0.852   5.262
20094SOL    HW162056  13.379   0.901   5.194
20094SOL    HW262057  13.417   0.760   5.236
20095SOL     OW62058   1.938   4.809   7.295
20095SOL    HW162059   1.848   4.805   7.327
20095SOL    HW262060   1.970   4.895   7.323
20096SOL     OW62061   7.387   0.080   4.989
20096SOL    HW162062   7.366   0.154   4.931
20096SOL    HW262063   7.311   0.071   5.045
20097SOL     OW62064   9.435   2.985   5.016
20097SOL    HW162065   9.387   2.912   5.054
20097SOL    HW262066   9.524   2.952   5.005
20098SOL     OW62067  14.367   5.859   7.558
20098SOL    HW162068  14.327   5.904   7.484
20098SOL    HW262069  14.338   5.909   7.635
20099SOL     OW62070  13.154  12.034   6.687
20099SOL    HW162071  13.214  12.098   6.725
20099SOL    HW262072  13.123  11.983   6.761
20100SOL     OW62073   5.722   1.324   4.995
20100SOL    HW162074   5.737   1.231   5.013
20100SOL    HW262075   5.697   1.326   4.902
20101SOL     OW62076  11.103   8.647  13.059
20101SOL    HW162077  11.055   8.708  13.003
20101SOL    HW262078  11.041   8.575  13.073
20102SOL     OW62079  10.465   4.386   6.466
20102SOL    HW162080  10.508   4.472   6.466
20102SOL    HW262081  10.389   4.397   6.410
20103SOL     OW62082   5.235   3.768  13.939
20103SOL    HW162083   5.233   3.699  14.006
20103SOL    HW262084   5.298   3.736  13.875
20104SOL     OW62085   1.660   9.455  10.211
20104SOL    HW162086   1.684   9.362  10.204
20104SOL    HW262087   1.731   9.501  10.165
20105SOL     OW62088   8.084  11.856   4.672
20105SOL    HW162089   8.026  11.829   4.743
20105SOL    HW262090   8.033  11.840   4.592
20106SOL     OW62091   1.668   0.389   7.254
20106SOL    HW162092   1.606   0.370   7.183
20106SOL    HW262093   1.619   0.374   7.334
20107SOL     OW62094   5.281   7.457   3.916
20107SOL    HW162095   5.327   7.453   3.833
20107SOL    HW262096   5.197   7.498   3.895
20108SOL     OW62097   1.791   6.795   1.800
20108SOL    HW162098   1.843   6.861   1.845
20108SOL    HW262099   1.703   6.805   1.837
20109SOL     OW62100   5.745   8.633   5.616
20109SOL    HW162101   5.797   8.614   5.538
20109SOL    HW262102   5.676   8.692   5.586
20110SOL     OW62103  10.576   7.592   7.157
20110SOL    HW162104  10.629   7.589   7.077
20110SOL    HW262105  10.637   7.575   7.228
20111SOL     OW62106   7.963   8.284  10.651
20111SOL    HW162107   8.002   8.316  10.733
20111SOL    HW262108   8.031   8.297  10.586
20112SOL     OW62109   5.654  14.860   7.332
20112SOL    HW162110   5.740  14.832   7.362
20112SOL    HW262111   5.640   0.063   7.376
20113SOL     OW62112   9.684   6.149  13.732
20113SOL    HW162113   9.645   6.161  13.818
20113SOL    HW262114   9.722   6.061  13.734
20114SOL     OW62115   6.349  14.377   3.121
20114SOL    HW162116   6.427  14.357   3.069
20114SOL    HW262117   6.366  14.465   3.156
20115SOL     OW62118   4.888  12.983   2.185
20115SOL    HW162119   4.884  12.890   2.205
20115SOL    HW262120   4.974  12.996   2.146
20116SOL     OW62121   7.623   8.132   7.268
20116SOL    HW162122   7.641   8.206   7.327
20116SOL    HW262123   7.536   8.151   7.233
20117SOL     OW62124  13.214   7.481   6.804
20117SOL    HW162125  13.279   7.411   6.796
20117SOL    HW262126  13.225   7.515   6.893
20118SOL     OW62127   3.709   9.250  14.127
20118SOL    HW162128   3.741   9.232  14.216
20118SOL    HW262129   3.624   9.206  14.123
20119SOL     OW62130   7.479   7.541   3.063
20119SOL    HW162131   7.428   7.466   3.034
20119SOL    HW262132   7.461   7.609   2.998
20120SOL     OW62133   8.945  10.521  13.161
20120SOL    HW162134   8.901  10.488  13.239
20120SOL    HW262135   8.874  10.551  13.104
20121SOL     OW62136  10.311  12.463   4.513
20121SOL    HW162137  10.225  12.505   4.499
20121SOL    HW262138  10.364  12.494   4.440
20122SOL     OW62139   6.839  14.033   6.425
20122SOL    HW162140   6.857  14.002   6.337
20122SOL    HW262141   6.911  13.999   6.478
20123SOL     OW62142   6.994   9.115  12.557
20123SOL    HW162143   7.068   9.138  12.500
20123SOL    HW262144   7.018   9.030  12.593
20124SOL     OW62145   2.216   0.121   5.635
20124SOL    HW162146   2.179   0.035   5.653
20124SOL    HW262147   2.303   0.118   5.674
20125SOL     OW62148   9.769   5.645  12.488
20125SOL    HW162149   9.833   5.627  12.556
20125SOL    HW262150   9.699   5.581  12.503
20126SOL     OW62151   4.519  13.874   9.200
20126SOL    HW162152   4.612  13.852   9.213
20126SOL    HW262153   4.519  13.969   9.187
20127SOL     OW62154  14.367  11.210  13.142
20127SOL    HW162155  14.458  11.238  13.136
20127SOL    HW262156  14.316  11.290  13.136
20128SOL     OW62157   4.129  11.014  14.281
20128SOL    HW162158   4.151  10.982  14.193
20128SOL    HW262159   4.075  10.945  14.319
20129SOL     OW62160   1.042   8.439  11.501
20129SOL    HW162161   1.110   8.504  11.485
20129SOL    HW262162   0.970   8.488  11.541
20130SOL     OW62163   3.674   2.731   4.451
20130SOL    HW162164   3.741   2.749   4.385
20130SOL    HW262165   3.609   2.679   4.404
20131SOL     OW62166   1.214  13.772   7.877
20131SOL    HW162167   1.249  13.698   7.927
20131SOL    HW262168   1.261  13.848   7.910
20132SOL     OW62169   6.876   7.161   2.459
20132SOL    HW162170   6.828   7.206   2.390
20132SOL    HW262171   6.964   7.150   2.424
20133SOL     OW62172   7.874   8.315  10.396
20133SOL    HW162173   7.818   8.392  10.390
20133SOL    HW262174   7.881   8.297  10.489
20134SOL     OW62175  12.079   2.104   9.938
20134SOL    HW162176  12.064   2.188   9.982
20134SOL    HW262177  12.086   2.040  10.009
20135SOL     OW62178   0.865   4.373   3.354
20135SOL    HW162179   0.927   4.306   3.323
20135SOL    HW262180   0.836   4.417   3.274
20136SOL     OW62181  12.339   4.241   7.106
20136SOL    HW162182  12.279   4.316   7.109
20136SOL    HW262183  12.397   4.254   7.180
20137SOL     OW62184   2.347   6.342   3.402
20137SOL    HW162185   2.346   6.438   3.398
20137SOL    HW262186   2.288   6.320   3.474
20138SOL     OW62187   0.603   7.276  13.435
20138SOL    HW162188   0.572   7.215  13.502
20138SOL    HW262189   0.640   7.220  13.366
20139SOL     OW62190   0.672   4.909   3.916
20139SOL    HW162191   0.728   4.900   3.839
20139SOL    HW262192   0.717   4.974   3.971
20140SOL     OW62193  10.274  14.140  10.826
20140SOL    HW162194  10.194  14.093  10.804
20140SOL    HW262195  10.322  14.147  10.744
20141SOL     OW62196  14.552   6.522   1.811
20141SOL    HW162197  14.625   6.578   1.786
20141SOL    HW262198  14.474   6.575   1.795
20142SOL     OW62199   3.323  14.803   7.809
20142SOL    HW162200   3.376  14.862   7.862
20142SOL    HW262201   3.237  14.805   7.851
20143SOL     OW62202  14.250   9.824   6.264
20143SOL    HW162203  14.311   9.843   6.334
20143SOL    HW262204  14.163   9.828   6.306
20144SOL     OW62205  13.299   3.667   9.927
20144SOL    HW162206  13.284   3.759   9.905
20144SOL    HW262207  13.289   3.663  10.022
20145SOL     OW62208   3.826   5.535  14.311
20145SOL    HW162209   3.834   5.626  14.339
20145SOL    HW262210   3.736   5.510  14.332
20146SOL     OW62211  11.896   5.304   7.885
20146SOL    HW162212  11.848   5.238   7.935
20146SOL    HW262213  11.872   5.387   7.926
20147SOL     OW62214   3.834   0.968   0.920
20147SOL    HW162215   3.846   0.949   1.013
20147SOL    HW262216   3.741   0.952   0.905
20148SOL     OW62217   5.048   5.636   1.281
20148SOL    HW162218   4.956   5.661   1.280
20148SOL    HW262219   5.060   5.587   1.200
20149SOL     OW62220   3.716  11.128   3.497
20149SOL    HW162221   3.780  11.196   3.517
20149SOL    HW262222   3.645  11.143   3.561
20150SOL     OW62223   2.569   6.374  11.788
20150SOL    HW162224   2.597   6.300  11.841
20150SOL    HW262225   2.476   6.384  11.807
20151SOL     OW62226   4.947  11.765  13.728
20151SOL    HW162227   4.872  11.802  13.775
20151SOL    HW262228   4.949  11.673  13.755
20152SOL     OW62229   8.211  11.942   3.436
20152SOL    HW162230   8.240  11.945   3.344
20152SOL    HW262231   8.289  11.966   3.486
20153SOL     OW62232   2.295  12.437   7.678
20153SOL    HW162233   2.306  12.345   7.701
20153SOL    HW262234   2.212  12.462   7.719
20154SOL     OW62235   7.167   9.542   3.700
20154SOL    HW162236   7.208   9.607   3.757
20154SOL    HW262237   7.240   9.497   3.658
20155SOL     OW62238   1.751   4.638  12.289
20155SOL    HW162239   1.817   4.570  12.277
20155SOL    HW262240   1.799   4.720  12.277
20156SOL     OW62241   2.785   5.309   5.925
20156SOL    HW162242   2.709   5.253   5.941
20156SOL    HW262243   2.850   5.250   5.887
20157SOL     OW62244   7.511   3.173   7.298
20157SOL    HW162245   7.487   3.171   7.391
20157SOL    HW262246   7.599   3.211   7.296
20158SOL     OW62247   0.009  13.245  12.870
20158SOL    HW162248   0.100  13.273  12.872
20158SOL    HW262249  14.843  13.311  12.920
20159SOL     OW62250  10.304   9.714  10.972
20159SOL    HW162251  10.263   9.706  10.886
20159SOL    HW262252  10.388   9.670  10.963
20160SOL     OW62253  10.982   5.104   7.836
20160SOL    HW162254  10.968   5.115   7.742
20160SOL    HW262255  10.928   5.172   7.876
20161SOL     OW62256   3.313  11.661   4.561
20161SOL    HW162257   3.378  11.712   4.513
20161SOL    HW262258   3.229  11.688   4.523
20162SOL     OW62259   4.458   9.280   1.575
20162SOL    HW162260   4.376   9.237   1.550
20162SOL    HW262261   4.524   9.241   1.518
20163SOL     OW62262   4.697   8.219  13.596
20163SOL    HW162263   4.602   8.215  13.606
20163SOL    HW262264   4.722   8.130  13.568
20164SOL     OW62265  13.508  12.000   3.428
20164SOL    HW162266  13.547  12.023   3.344
20164SOL    HW262267  13.461  11.918   3.412
20165SOL     OW62268   5.467   7.082   8.099
20165SOL    HW162269   5.406   7.065   8.171
20165SOL    HW262270   5.414   7.073   8.020
20166SOL     OW62271   2.594   6.136  11.931
20166SOL    HW162272   2.649   6.062  11.906
20166SOL    HW262273   2.557   6.112  12.015
20167SOL     OW62274   9.764   3.048   5.502
20167SOL    HW162275   9.719   3.058   5.418
20167SOL    HW262276   9.711   2.985   5.550
20168SOL     OW62277   3.547   5.810   3.814
20168SOL    HW162278   3.572   5.902   3.809
20168SOL    HW262279   3.625   5.765   3.846
20169SOL     OW62280   0.401   1.981   1.048
20169SOL    HW162281   0.383   1.912   0.984
20169SOL    HW262282   0.346   2.055   1.020
20170SOL     OW62283   0.268  12.637   9.147
20170SOL    HW162284   0.286  12.720   9.103
20170SOL    HW262285   0.258  12.573   9.076
20171SOL     OW62286   7.364   6.166   1.105
20171SOL    HW162287   7.397   6.249   1.139
20171SOL    HW262288   7.282   6.152   1.153
20172SOL     OW62289  13.755   2.379   7.415
20172SOL    HW162290  13.687   2.314   7.431
20172SOL    HW262291  13.738   2.447   7.481
20173SOL     OW62292   1.566   4.931   8.411
20173SOL    HW162293   1.508   4.870   8.456
20173SOL    HW262294   1.654   4.903   8.435
20174SOL     OW62295   7.418   6.074  12.251
20174SOL    HW162296   7.360   6.072  12.175
20174SOL    HW262297   7.383   6.006  12.309
20175SOL     OW62298   6.355  14.066   0.506
20175SOL    HW162299   6.385  13.979   0.530
20175SOL    HW262300   6.431  14.123   0.520
20176SOL     OW62301  12.980   8.133  10.565
20176SOL    HW162302  13.046   8.067  10.590
20176SOL    HW262303  13.031   8.213  10.552
20177SOL     OW62304   4.696   6.644   8.538
20177SOL    HW162305   4.602   6.659   8.539
20177SOL    HW262306   4.727   6.674   8.623
20178SOL     OW62307   5.883   2.312  14.816
20178SOL    HW162308   5.895   2.337   0.026
20178SOL    HW262309   5.887   2.216  14.816
20179SOL     OW62310   4.853  11.772   7.985
20179SOL    HW162311   4.828  11.768   7.893
20179SOL    HW262312   4.823  11.689   8.022
20180SOL     OW62313   5.884   4.028   5.297
20180SOL    HW162314   5.930   4.079   5.364
20180SOL    HW262315   5.894   3.937   5.326
20181SOL     OW62316   6.245  10.408   9.602
20181SOL    HW162317   6.259  10.337   9.539
20181SOL    HW262318   6.151  10.404   9.621
20182SOL     OW62319   1.010   1.667   2.815
20182SOL    HW162320   0.989   1.652   2.722
20182SOL    HW262321   1.053   1.752   2.817
20183SOL     OW62322   5.092   6.842  13.458
20183SOL    HW162323   5.035   6.918  13.441
20183SOL    HW262324   5.176   6.881  13.483
20184SOL     OW62325  10.130   9.094   6.210
20184SOL    HW162326  10.179   9.156   6.265
20184SOL    HW262327  10.186   9.017   6.206
20185SOL     OW62328   1.636   1.214  12.340
20185SOL    HW162329   1.660   1.267  12.416
20185SOL    HW262330   1.580   1.271  12.287
20186SOL     OW62331   1.642   8.191   3.165
20186SOL    HW162332   1.626   8.190   3.071
20186SOL    HW262333   1.621   8.280   3.192
20187SOL     OW62334   0.566  11.860   8.451
20187SOL    HW162335   0.627  11.934   8.455
20187SOL    HW262336   0.480  11.900   8.465
20188SOL     OW62337  13.705   0.956  11.679
20188SOL    HW162338  13.771   0.886  11.676
20188SOL    HW262339  13.727   1.012  11.604
20189SOL     OW62340   9.818   9.603   0.447
20189SOL    HW162341   9.841   9.584   0.356
20189SOL    HW262342   9.857   9.532   0.497
20190SOL     OW62343   1.833   5.839   5.038
20190SOL    HW162344   1.770   5.835   5.110
20190SOL    HW262345   1.779   5.841   4.959
20191SOL     OW62346  10.741  10.513   4.265
20191SOL    HW162347  10.809  10.472   4.211
20191SOL    HW262348  10.660  10.471   4.238
20192SOL     OW62349   8.493   0.508   9.147
20192SOL    HW162350   8.458   0.474   9.229
20192SOL    HW262351   8.513   0.430   9.096
20193SOL     OW62352   1.062   1.642  13.464
20193SOL    HW162353   1.068   1.550  13.440
20193SOL    HW262354   1.143   1.681  13.430
20194SOL     OW62355   0.452   3.180   7.340
20194SOL    HW162356   0.519   3.227   7.391
20194SOL    HW262357   0.425   3.242   7.273
20195SOL     OW62358   4.622   7.580   7.318
20195SOL    HW162359   4.640   7.643   7.388
20195SOL    HW262360   4.668   7.615   7.242
20196SOL     OW62361   0.934   9.361  11.951
20196SOL    HW162362   0.998   9.432  11.958
20196SOL    HW262363   0.850   9.402  11.974
20197SOL     OW62364   9.960  13.019  12.704
20197SOL    HW162365   9.921  12.939  12.738
20197SOL    HW262366  10.048  13.021  12.742
20198SOL     OW62367   7.770   2.227   2.632
20198SOL    HW162368   7.709   2.197   2.564
20198SOL    HW262369   7.824   2.293   2.589
20199SOL     OW62370   2.174  14.269   2.001
20199SOL    HW162371   2.163  14.199   2.065
20199SOL    HW262372   2.142  14.232   1.919
20200SOL     OW62373   8.349   3.597   9.117
20200SOL    HW162374   8.426   3.630   9.071
20200SOL    HW262375   8.361   3.625   9.208
20201SOL     OW62376   9.032   8.076   5.521
20201SOL    HW162377   9.029   8.172   5.514
20201SOL    HW262378   8.944   8.048   5.496
20202SOL     OW62379   7.925  13.670   9.625
20202SOL    HW162380   7.911  13.744   9.685
20202SOL    HW262381   7.847  13.615   9.637
20203SOL     OW62382   2.784   4.228  14.618
20203SOL    HW162383   2.715   4.267  14.672
20203SOL    HW262384   2.784   4.279  14.537
20204SOL     OW62385   9.625   7.094   0.123
20204SOL    HW162386   9.707   7.129   0.158
20204SOL    HW262387   9.652   7.044   0.046
20205SOL     OW62388  12.233   9.283   2.048
20205SOL    HW162389  12.249   9.359   2.103
20205SOL    HW262390  12.207   9.319   1.963
20206SOL     OW62391   9.329  13.423   2.162
20206SOL    HW162392   9.353  13.500   2.112
20206SOL    HW262393   9.330  13.452   2.253
20207SOL     OW62394   6.272   2.221   9.183
20207SOL    HW162395   6.230   2.281   9.121
20207SOL    HW262396   6.362   2.254   9.191
20208SOL     OW62397   1.339   1.532   8.817
20208SOL    HW162398   1.369   1.575   8.737
20208SOL    HW262399   1.418   1.492   8.854
20209SOL     OW62400  13.006   9.829   3.390
20209SOL    HW162401  12.962   9.913   3.380
20209SOL    HW262402  12.944   9.774   3.439
20210SOL     OW62403   7.264  11.939   3.612
20210SOL    HW162404   7.175  11.912   3.591
20210SOL    HW262405   7.256  11.987   3.695
20211SOL     OW62406   2.520   3.957  11.916
20211SOL    HW162407   2.438   4.004  11.901
20211SOL    HW262408   2.493   3.866  11.928
20212SOL     OW62409   6.527  11.914  11.553
20212SOL    HW162410   6.471  11.986  11.527
20212SOL    HW262411   6.559  11.939  11.640
20213SOL     OW62412  10.729   3.109   0.798
20213SOL    HW162413  10.801   3.046   0.807
20213SOL    HW262414  10.692   3.116   0.886
20214SOL     OW62415  11.868   9.718  11.090
20214SOL    HW162416  11.842   9.626  11.087
20214SOL    HW262417  11.958   9.720  11.060
20215SOL     OW62418   3.851   6.646   4.046
20215SOL    HW162419   3.828   6.721   3.991
20215SOL    HW262420   3.875   6.685   4.130
20216SOL     OW62421   6.812   1.323   1.562
20216SOL    HW162422   6.743   1.382   1.533
20216SOL    HW262423   6.771   1.236   1.561
20217SOL     OW62424   7.926   6.602   1.878
20217SOL    HW162425   7.972   6.582   1.796
20217SOL    HW262426   7.835   6.614   1.852
20218SOL     OW62427  10.382  13.306   1.793
20218SOL    HW162428  10.454  13.347   1.745
20218SOL    HW262429  10.311  13.301   1.729
20219SOL     OW62430  14.183   9.670  12.170
20219SOL    HW162431  14.144   9.626  12.245
20219SOL    HW262432  14.252   9.725  12.208
20220SOL     OW62433  11.884   5.164   0.800
20220SOL    HW162434  11.954   5.221   0.767
20220SOL    HW262435  11.815   5.224   0.826
20221SOL     OW62436   9.744   8.966   2.918
20221SOL    HW162437   9.686   9.042   2.908
20221SOL    HW262438   9.688   8.898   2.955
20222SOL     OW62439  14.859   1.846   0.019
20222SOL    HW162440   0.048   1.911   0.018
20222SOL    HW262441   0.020   1.766   0.049
20223SOL     OW62442   5.670  12.744   0.686
20223SOL    HW162443   5.670  12.674   0.751
20223SOL    HW262444   5.762  12.771   0.680
20224SOL     OW62445   3.236   2.482   2.933
20224SOL    HW162446   3.324   2.477   2.896
20224SOL    HW262447   3.250   2.486   3.028
20225SOL     OW62448   2.544   5.907   2.775
20225SOL    HW162449   2.486   5.846   2.730
20225SOL    HW262450   2.624   5.857   2.792
20226SOL     OW62451  10.648  13.649  11.990
20226SOL    HW162452  10.569  13.697  11.965
20226SOL    HW262453  10.666  13.677  12.079
20227SOL     OW62454   1.554  12.134  10.490
20227SOL    HW162455   1.610  12.114  10.566
20227SOL    HW262456   1.505  12.053  10.475
20228SOL     OW62457   5.774   6.297   3.391
20228SOL    HW162458   5.840   6.307   3.322
20228SOL    HW262459   5.691   6.319   3.348
20229SOL     OW62460   0.958  14.073   1.926
20229SOL    HW162461   0.992  14.111   2.006
20229SOL    HW262462   0.945  13.980   1.947
20230SOL     OW62463  13.728   3.179   0.974
20230SOL    HW162464  13.727   3.105   0.914
20230SOL    HW262465  13.820   3.195   0.991
20231SOL     OW62466   8.534  14.570   3.901
20231SOL    HW162467   8.605  14.580   3.964
20231SOL    HW262468   8.566  14.503   3.840
20232SOL     OW62469   2.517  12.693   9.006
20232SOL    HW162470   2.495  12.784   8.992
20232SOL    HW262471   2.441  12.644   8.975
20233SOL     OW62472   2.308   2.046  11.361
20233SOL    HW162473   2.269   2.119  11.312
20233SOL    HW262474   2.381   2.085  11.409
20234SOL     OW62475   0.237   1.622   4.216
20234SOL    HW162476   0.264   1.667   4.136
20234SOL    HW262477   0.284   1.667   4.286
20235SOL     OW62478   5.873   4.494   4.450
20235SOL    HW162479   5.882   4.441   4.530
20235SOL    HW262480   5.844   4.580   4.481
20236SOL     OW62481   6.892   7.352   5.398
20236SOL    HW162482   6.890   7.446   5.381
20236SOL    HW262483   6.862   7.313   5.315
20237SOL     OW62484  12.079   5.484   7.549
20237SOL    HW162485  12.093   5.427   7.624
20237SOL    HW262486  11.985   5.476   7.530
20238SOL     OW62487   0.832  12.544   4.981
20238SOL    HW162488   0.800  12.457   5.003
20238SOL    HW262489   0.927  12.537   4.984
20239SOL     OW62490  14.215   4.405   0.911
20239SOL    HW162491  14.266   4.479   0.945
20239SOL    HW262492  14.186   4.358   0.989
20240SOL     OW62493   7.761   5.977   2.116
20240SOL    HW162494   7.854   5.973   2.138
20240SOL    HW262495   7.716   5.961   2.198
20241SOL     OW62496  10.149  14.248   8.411
20241SOL    HW162497  10.216  14.241   8.479
20241SOL    HW262498  10.146  14.341   8.389
20242SOL     OW62499  11.360   0.203  11.267
20242SOL    HW162500  11.343   0.114  11.300
20242SOL    HW262501  11.394   0.250  11.343
20243SOL     OW62502   1.049   7.190   2.019
20243SOL    HW162503   1.004   7.175   2.102
20243SOL    HW262504   1.034   7.283   2.000
20244SOL     OW62505   5.423   7.200   0.592
20244SOL    HW162506   5.369   7.254   0.650
20244SOL    HW262507   5.361   7.143   0.548
20245SOL     OW62508   7.009   4.842   6.312
20245SOL    HW162509   6.924   4.886   6.304
20245SOL    HW262510   6.990   4.763   6.363
20246SOL     OW62511  14.081  12.246   5.825
20246SOL    HW162512  14.142  12.238   5.899
20246SOL    HW262513  14.033  12.327   5.842
20247SOL     OW62514   1.713   6.009   4.599
20247SOL    HW162515   1.739   6.101   4.609
20247SOL    HW262516   1.687   6.002   4.507
20248SOL     OW62517   3.749   6.592  14.533
20248SOL    HW162518   3.702   6.520  14.575
20248SOL    HW262519   3.752   6.661  14.600
20249SOL     OW62520   8.980  11.777   8.314
20249SOL    HW162521   8.934  11.726   8.248
20249SOL    HW262522   8.992  11.717   8.387
20250SOL     OW62523  14.157   7.977  10.253
20250SOL    HW162524  14.091   8.030  10.208
20250SOL    HW262525  14.112   7.945  10.331
20251SOL     OW62526   3.492  11.819  14.735
20251SOL    HW162527   3.530  11.905  14.755
20251SOL    HW262528   3.566  11.759  14.738
20252SOL     OW62529   4.296   7.526  12.423
20252SOL    HW162530   4.278   7.443  12.466
20252SOL    HW262531   4.222   7.539  12.363
20253SOL     OW62532   8.147  14.337  11.752
20253SOL    HW162533   8.065  14.361  11.709
20253SOL    HW262534   8.207  14.408  11.730
20254SOL     OW62535   8.001   0.623  11.330
20254SOL    HW162536   7.966   0.647  11.415
20254SOL    HW262537   8.040   0.703  11.296
20255SOL     OW62538   0.902   0.631   7.309
20255SOL    HW162539   0.901   0.663   7.219
20255SOL    HW262540   0.852   0.696   7.358
20256SOL     OW62541  12.222   8.057   6.267
20256SOL    HW162542  12.220   8.040   6.173
20256SOL    HW262543  12.300   8.010   6.298
20257SOL     OW62544   9.769   2.654   0.679
20257SOL    HW162545   9.801   2.609   0.600
20257SOL    HW262546   9.772   2.747   0.656
20258SOL     OW62547   6.011   2.882   2.910
20258SOL    HW162548   6.056   2.922   2.985
20258SOL    HW262549   6.031   2.939   2.836
20259SOL     OW62550   1.891  14.533   5.061
20259SOL    HW162551   1.833  14.545   4.985
20259SOL    HW262552   1.977  14.514   5.023
20260SOL     OW62553   2.362  11.096   7.855
20260SOL    HW162554   2.370  11.162   7.786
20260SOL    HW262555   2.268  11.077   7.860
20261SOL     OW62556   1.084   0.609  10.335
20261SOL    HW162557   1.003   0.629  10.287
20261SOL    HW262558   1.069   0.642  10.423
20262SOL     OW62559  13.745   4.985  10.466
20262SOL    HW162560  13.831   4.971  10.427
20262SOL    HW262561  13.750   4.941  10.551
20263SOL     OW62562   8.443  10.397   5.160
20263SOL    HW162563   8.470  10.310   5.189
20263SOL    HW262564   8.460  10.453   5.236
20264SOL     OW62565   0.946  10.611   6.677
20264SOL    HW162566   0.856  10.579   6.680
20264SOL    HW262567   0.938  10.702   6.648
20265SOL     OW62568  11.705  11.880  13.000
20265SOL    HW162569  11.784  11.835  12.972
20265SOL    HW262570  11.728  11.973  12.997
20266SOL     OW62571   4.462   8.083  10.365
20266SOL    HW162572   4.449   8.098  10.272
20266SOL    HW262573   4.465   8.171  10.404
20267SOL     OW62574   5.550   0.086  14.151
20267SOL    HW162575   5.533   0.104  14.058
20267SOL    HW262576   5.548  14.872  14.157
20268SOL     OW62577   8.943  14.310   0.086
20268SOL    HW162578   8.947  14.383   0.148
20268SOL    HW262579   8.891  14.344   0.013
20269SOL     OW62580  14.786  11.196  10.098
20269SOL    HW162581  14.870  11.241  10.109
20269SOL    HW262582  14.804  11.105  10.120
20270SOL     OW62583  13.036   2.003   3.535
20270SOL    HW162584  12.945   1.998   3.505
20270SOL    HW262585  13.029   2.005   3.631
20271SOL     OW62586  13.436   7.633   7.673
20271SOL    HW162587  13.419   7.672   7.588
20271SOL    HW262588  13.438   7.707   7.734
20272SOL     OW62589  14.668   0.039   5.838
20272SOL    HW162590  14.593   0.079   5.793
20272SOL    HW262591  14.630  14.856   5.897
20273SOL     OW62592  12.351   0.083   4.982
20273SOL    HW162593  12.349  14.870   4.965
20273SOL    HW262594  12.329   0.123   4.898
20274SOL     OW62595   6.680   6.017   0.911
20274SOL    HW162596   6.691   5.925   0.934
20274SOL    HW262597   6.592   6.039   0.941
20275SOL     OW62598  12.633   4.643   4.900
20275SOL    HW162599  12.626   4.626   4.994
20275SOL    HW262600  12.622   4.557   4.860
20276SOL     OW62601   0.195  10.651  13.981
20276SOL    HW162602   0.265  10.696  13.933
20276SOL    HW262603   0.195  10.563  13.945
20277SOL     OW62604   6.742   8.561  14.310
20277SOL    HW162605   6.756   8.490  14.247
20277SOL    HW262606   6.678   8.618  14.269
20278SOL     OW62607  10.979   8.510   8.506
20278SOL    HW162608  10.910   8.451   8.475
20278SOL    HW262609  10.979   8.499   8.601
20279SOL     OW62610   1.344  11.309  11.575
20279SOL    HW162611   1.419  11.288  11.519
20279SOL    HW262612   1.314  11.394  11.543
20280SOL     OW62613   6.905  14.221   7.741
20280SOL    HW162614   6.960  14.296   7.720
20280SOL    HW262615   6.821  14.259   7.767
20281SOL     OW62616  13.548  14.681   8.038
20281SOL    HW162617  13.496  14.632   8.102
20281SOL    HW262618  13.605  14.616   7.998
20282SOL     OW62619   1.878   6.768  10.870
20282SOL    HW162620   1.833   6.852  10.866
20282SOL    HW262621   1.900   6.757  10.963
20283SOL     OW62622  12.218  10.529   1.462
20283SOL    HW162623  12.246  10.620   1.474
20283SOL    HW262624  12.197  10.499   1.551
20284SOL     OW62625  14.618   4.390  10.902
20284SOL    HW162626  14.565   4.364  10.826
20284SOL    HW262627  14.627   4.309  10.953
20285SOL     OW62628   2.888   3.978   6.108
20285SOL    HW162629   2.904   3.915   6.178
20285SOL    HW262630   2.819   3.938   6.055
20286SOL     OW62631  11.613  13.607  12.444
20286SOL    HW162632  11.587  13.697  12.424
20286SOL    HW262633  11.548  13.553  12.398
20287SOL     OW62634   3.996   7.931   5.755
20287SOL    HW162635   3.943   7.880   5.694
20287SOL    HW262636   3.959   8.019   5.750
20288SOL     OW62637   9.424   6.893   8.379
20288SOL    HW162638   9.396   6.868   8.467
20288SOL    HW262639   9.453   6.983   8.388
20289SOL     OW62640  13.866   5.715   6.405
20289SOL    HW162641  13.788   5.712   6.349
20289SOL    HW262642  13.928   5.655   6.363
20290SOL     OW62643   6.962   0.425   3.484
20290SOL    HW162644   7.003   0.508   3.459
20290SOL    HW262645   6.880   0.452   3.527
20291SOL     OW62646   9.569   4.238   4.332
20291SOL    HW162647   9.589   4.174   4.263
20291SOL    HW262648   9.579   4.323   4.289
20292SOL     OW62649  14.465   5.150  11.464
20292SOL    HW162650  14.379   5.188  11.446
20292SOL    HW262651  14.527   5.212  11.425
20293SOL     OW62652  13.253   3.423   8.760
20293SOL    HW162653  13.225   3.455   8.674
20293SOL    HW262654  13.308   3.493   8.795
20294SOL     OW62655   4.853  14.692   1.917
20294SOL    HW162656   4.836  14.769   1.864
20294SOL    HW262657   4.774  14.682   1.971
20295SOL     OW62658  12.479  10.849  12.796
20295SOL    HW162659  12.418  10.798  12.742
20295SOL    HW262660  12.422  10.908  12.846
20296SOL     OW62661  12.611   3.818   8.240
20296SOL    HW162662  12.680   3.835   8.303
20296SOL    HW262663  12.653   3.766   8.171
20297SOL     OW62664   2.936   1.877   3.255
20297SOL    HW162665   2.978   1.918   3.179
20297SOL    HW262666   2.848   1.855   3.225
20298SOL     OW62667  13.293   4.310   6.776
20298SOL    HW162668  13.262   4.388   6.729
20298SOL    HW262669  13.251   4.316   6.862
20299SOL     OW62670   9.207   5.791   8.598
20299SOL    HW162671   9.144   5.754   8.537
20299SOL    HW262672   9.172   5.878   8.619
20300SOL     OW62673   1.422  10.156   4.188
20300SOL    HW162674   1.387  10.069   4.166
20300SOL    HW262675   1.449  10.149   4.279
20301SOL     OW62676  10.737   1.181  11.607
20301SOL    HW162677  10.700   1.247  11.549
20301SOL    HW262678  10.665   1.122  11.627
20302SOL     OW62679   4.363   2.662   0.140
20302SOL    HW162680   4.377   2.569   0.122
20302SOL    HW262681   4.363   2.669   0.235
20303SOL     OW62682  12.100   1.279  14.538
20303SOL    HW162683  12.089   1.263  14.632
20303SOL    HW262684  12.058   1.364  14.524
20304SOL     OW62685  13.208   2.385  12.359
20304SOL    HW162686  13.298   2.399  12.330
20304SOL    HW262687  13.198   2.290  12.360
20305SOL     OW62688   3.082  13.903  14.369
20305SOL    HW162689   3.087  13.994  14.402
20305SOL    HW262690   3.011  13.905  14.305
20306SOL     OW62691   6.238   5.729  10.491
20306SOL    HW162692   6.241   5.638  10.519
20306SOL    HW262693   6.328   5.760  10.499
20307SOL     OW62694   8.193   3.313   8.618
20307SOL    HW162695   8.274   3.277   8.653
20307SOL    HW262696   8.133   3.316   8.693
20308SOL     OW62697  13.207   4.510   3.048
20308SOL    HW162698  13.163   4.524   3.132
20308SOL    HW262699  13.165   4.431   3.013
20309SOL     OW62700   6.846   3.424  11.709
20309SOL    HW162701   6.818   3.367  11.638
20309SOL    HW262702   6.770   3.432  11.766
20310SOL     OW62703   9.702   7.590   6.353
20310SOL    HW162704   9.696   7.662   6.290
20310SOL    HW262705   9.666   7.626   6.434
20311SOL     OW62706   1.905   8.827  14.631
20311SOL    HW162707   1.826   8.773  14.636
20311SOL    HW262708   1.977   8.763  14.632
20312SOL     OW62709   6.580   5.991   8.997
20312SOL    HW162710   6.628   6.047   9.058
20312SOL    HW262711   6.533   5.930   9.053
20313SOL     OW62712  14.380   2.766  13.660
20313SOL    HW162713  14.462   2.775  13.611
20313SOL    HW262714  14.378   2.674  13.687
20314SOL     OW62715  10.687   7.573   4.731
20314SOL    HW162716  10.692   7.485   4.693
20314SOL    HW262717  10.771   7.584   4.776
20315SOL     OW62718   1.181  10.632   2.056
20315SOL    HW162719   1.147  10.545   2.038
20315SOL    HW262720   1.234  10.621   2.135
20316SOL     OW62721   9.905  12.475   5.847
20316SOL    HW162722   9.863  12.409   5.792
20316SOL    HW262723   9.863  12.557   5.823
20317SOL     OW62724  14.572   3.665   8.743
20317SOL    HW162725  14.564   3.661   8.838
20317SOL    HW262726  14.482   3.666   8.711
20318SOL     OW62727   4.235   6.819   9.266
20318SOL    HW162728   4.251   6.851   9.355
20318SOL    HW262729   4.218   6.898   9.215
20319SOL     OW62730   5.550  13.152   2.394
20319SOL    HW162731   5.546  13.071   2.443
20319SOL    HW262732   5.480  13.145   2.329
20320SOL     OW62733  11.946  10.879   5.463
20320SOL    HW162734  11.964  10.789   5.436
20320SOL    HW262735  11.927  10.873   5.556
20321SOL     OW62736   5.448   0.101   5.177
20321SOL    HW162737   5.392   0.175   5.157
20321SOL    HW262738   5.437   0.087   5.271
20322SOL     OW62739  11.094   7.452  10.320
20322SOL    HW162740  11.071   7.539  10.286
20322SOL    HW262741  11.021   7.396  10.293
20323SOL     OW62742  13.101   2.550   4.564
20323SOL    HW162743  13.182   2.600   4.560
20323SOL    HW262744  13.119   2.480   4.626
20324SOL     OW62745   9.041   2.286   8.466
20324SOL    HW162746   9.082   2.255   8.385
20324SOL    HW262747   9.102   2.261   8.535
20325SOL     OW62748  13.818  11.336   6.849
20325SOL    HW162749  13.911  11.327   6.867
20325SOL    HW262750  13.795  11.423   6.881
20326SOL     OW62751   4.010   9.912   3.962
20326SOL    HW162752   3.972   9.855   3.895
20326SOL    HW262753   4.101   9.882   3.970
20327SOL     OW62754   2.462   0.984   7.110
20327SOL    HW162755   2.543   0.997   7.158
20327SOL    HW262756   2.467   0.894   7.078
20328SOL     OW62757   4.849   0.668   4.446
20328SOL    HW162758   4.910   0.704   4.510
20328SOL    HW262759   4.841   0.575   4.470
20329SOL     OW62760   0.314   2.966  14.340
20329SOL    HW162761   0.240   2.966  14.279
20329SOL    HW262762   0.274   2.979  14.426
20330SOL     OW62763   0.543   5.036  11.833
20330SOL    HW162764   0.611   5.101  11.817
20330SOL    HW262765   0.554   4.972  11.762
20331SOL     OW62766  12.174   1.867  10.423
20331SOL    HW162767  12.176   1.773  10.438
20331SOL    HW262768  12.261   1.888  10.388
20332SOL     OW62769   3.330   2.197  12.618
20332SOL    HW162770   3.343   2.291  12.602
20332SOL    HW262771   3.250   2.193  12.672
20333SOL     OW62772   9.131   3.766   4.404
20333SOL    HW162773   9.037   3.760   4.421
20333SOL    HW262774   9.149   3.860   4.400
20334SOL     OW62775   0.695   9.094   1.440
20334SOL    HW162776   0.620   9.034   1.432
20334SOL    HW262777   0.729   9.078   1.528
20335SOL     OW62778   7.283  11.422   1.638
20335SOL    HW162779   7.188  11.418   1.627
20335SOL    HW262780   7.318  11.390   1.554
20336SOL     OW62781   5.787   1.247   8.545
20336SOL    HW162782   5.795   1.306   8.620
20336SOL    HW262783   5.718   1.285   8.491
20337SOL     OW62784   0.505   4.787  11.021
20337SOL    HW162785   0.506   4.874  10.981
20337SOL    HW262786   0.540   4.730  10.953
20338SOL     OW62787   2.006   8.599   5.994
20338SOL    HW162788   2.092   8.626   6.024
20338SOL    HW262789   1.973   8.541   6.063
20339SOL     OW62790   0.971   8.842   5.342
20339SOL    HW162791   0.973   8.762   5.394
20339SOL    HW262792   0.904   8.896   5.383
20340SOL     OW62793  12.488   0.846   0.392
20340SOL    HW162794  12.555   0.892   0.342
20340SOL    HW262795  12.441   0.794   0.327
20341SOL     OW62796   6.423   4.005   6.136
20341SOL    HW162797   6.356   3.948   6.098
20341SOL    HW262798   6.398   4.014   6.228
20342SOL     OW62799   9.309   0.587   6.463
20342SOL    HW162800   9.364   0.578   6.541
20342SOL    HW262801   9.369   0.578   6.389
20343SOL     OW62802  10.768  12.487   0.824
20343SOL    HW162803  10.851  12.439   0.818
20343SOL    HW262804  10.726  12.451   0.902
20344SOL     OW62805   1.584   3.015   9.775
20344SOL    HW162806   1.631   3.097   9.765
20344SOL    HW262807   1.505   3.038   9.825
20345SOL     OW62808   0.421   2.944  13.574
20345SOL    HW162809   0.512   2.968  13.586
20345SOL    HW262810   0.384   2.943  13.662
20346SOL     OW62811   4.586   9.065   4.963
20346SOL    HW162812   4.576   9.136   5.025
20346SOL    HW262813   4.567   9.104   4.878
20347SOL     OW62814   9.665  12.992   2.999
20347SOL    HW162815   9.574  13.020   2.989
20347SOL    HW262816   9.676  12.980   3.094
20348SOL     OW62817   7.002   2.002  12.586
20348SOL    HW162818   6.959   2.053  12.517
20348SOL    HW262819   7.083   2.050  12.605
20349SOL     OW62820   4.046  13.605   2.883
20349SOL    HW162821   4.038  13.514   2.857
20349SOL    HW262822   3.998  13.654   2.816
20350SOL     OW62823   2.945  12.530   1.654
20350SOL    HW162824   3.028  12.484   1.671
20350SOL    HW262825   2.938  12.530   1.559
20351SOL     OW62826   7.831  13.184  10.836
20351SOL    HW162827   7.823  13.167  10.742
20351SOL    HW262828   7.743  13.166  10.871
20352SOL     OW62829   7.169  14.780  13.247
20352SOL    HW162830   7.179  14.817  13.335
20352SOL    HW262831   7.188  14.687  13.259
20353SOL     OW62832  14.253  11.426  13.774
20353SOL    HW162833  14.341  11.438  13.736
20353SOL    HW262834  14.219  11.515  13.781
20354SOL     OW62835   5.384  14.156   3.297
20354SOL    HW162836   5.319  14.226   3.299
20354SOL    HW262837   5.360  14.103   3.220
20355SOL     OW62838  14.240  10.434   4.990
20355SOL    HW162839  14.219  10.436   5.084
20355SOL    HW262840  14.257  10.526   4.968
20356SOL     OW62841  11.588   2.382   1.966
20356SOL    HW162842  11.633   2.432   2.034
20356SOL    HW262843  11.593   2.438   1.888
20357SOL     OW62844  11.149   5.356   3.306
20357SOL    HW162845  11.089   5.325   3.374
20357SOL    HW262846  11.092   5.381   3.233
20358SOL     OW62847   2.446   6.672  10.455
20358SOL    HW162848   2.371   6.613  10.465
20358SOL    HW262849   2.421   6.750  10.504
20359SOL     OW62850   8.602   8.844   6.024
20359SOL    HW162851   8.583   8.875   5.935
20359SOL    HW262852   8.620   8.924   6.074
20360SOL     OW62853  14.309   9.149   9.468
20360SOL    HW162854  14.231   9.163   9.521
20360SOL    HW262855  14.290   9.069   9.418
20361SOL     OW62856  13.454   3.827   3.932
20361SOL    HW162857  13.422   3.846   4.020
20361SOL    HW262858  13.549   3.839   3.938
20362SOL     OW62859   8.708   4.109   3.015
20362SOL    HW162860   8.662   4.064   3.086
20362SOL    HW262861   8.709   4.046   2.942
20363SOL     OW62862   6.738   3.904   1.740
20363SOL    HW162863   6.801   3.968   1.774
20363SOL    HW262864   6.766   3.821   1.777
20364SOL     OW62865  12.530  14.296   8.859
20364SOL    HW162866  12.494  14.304   8.947
20364SOL    HW262867  12.608  14.242   8.869
20365SOL     OW62868   0.147  11.890  12.996
20365SOL    HW162869   0.155  11.944  13.075
20365SOL    HW262870   0.066  11.840  13.009
20366SOL     OW62871  10.961   0.890   5.872
20366SOL    HW162872  10.992   0.814   5.823
20366SOL    HW262873  10.866   0.882   5.872
20367SOL     OW62874   9.335   9.233   8.881
20367SOL    HW162875   9.261   9.213   8.937
20367SOL    HW262876   9.410   9.193   8.924
20368SOL     OW62877  12.868   9.699   7.753
20368SOL    HW162878  12.822   9.616   7.739
20368SOL    HW262879  12.804   9.754   7.799
20369SOL     OW62880   7.398   0.284  12.916
20369SOL    HW162881   7.431   0.355  12.970
20369SOL    HW262882   7.476   0.240  12.884
20370SOL     OW62883   3.973   9.856   6.530
20370SOL    HW162884   3.887   9.883   6.496
20370SOL    HW262885   3.959   9.768   6.564
20371SOL     OW62886  13.938  10.547   6.705
20371SOL    HW162887  13.915  10.458   6.730
20371SOL    HW262888  13.936  10.546   6.609
20372SOL     OW62889   8.559   5.024   6.037
20372SOL    HW162890   8.649   5.036   6.065
20372SOL    HW262891   8.527   5.113   6.021
20373SOL     OW62892  10.041   2.462  14.053
20373SOL    HW162893   9.957   2.507  14.060
20373SOL    HW262894  10.024   2.390  13.992
20374SOL     OW62895   2.819   0.617  12.483
20374SOL    HW162896   2.804   0.659  12.398
20374SOL    HW262897   2.837   0.689  12.543
20375SOL     OW62898   0.308   6.773   1.404
20375SOL    HW162899   0.357   6.788   1.323
20375SOL    HW262900   0.284   6.680   1.400
20376SOL     OW62901   2.986   7.271   1.246
20376SOL    HW162902   2.935   7.197   1.279
20376SOL    HW262903   2.922   7.341   1.234
20377SOL     OW62904   1.884   2.794   8.186
20377SOL    HW162905   1.810   2.850   8.163
20377SOL    HW262906   1.907   2.819   8.275
20378SOL     OW62907   9.473  12.458   9.339
20378SOL    HW162908   9.455  12.390   9.404
20378SOL    HW262909   9.554  12.430   9.296
20379SOL     OW62910  10.091   6.428   2.088
20379SOL    HW162911  10.167   6.475   2.054
20379SOL    HW262912  10.061   6.481   2.161
20380SOL     OW62913   3.620   4.297  11.346
20380SOL    HW162914   3.529   4.312  11.319
20380SOL    HW262915   3.620   4.208  11.380
20381SOL     OW62916  14.501   6.781   6.081
20381SOL    HW162917  14.460   6.823   6.005
20381SOL    HW262918  14.440   6.800   6.153
20382SOL     OW62919   6.654   3.638   9.756
20382SOL    HW162920   6.654   3.694   9.678
20382SOL    HW262921   6.578   3.582   9.746
20383SOL     OW62922  14.766   6.889   9.788
20383SOL    HW162923  14.673   6.874   9.802
20383SOL    HW262924  14.783   6.975   9.826
20384SOL     OW62925   6.835   6.132   6.814
20384SOL    HW162926   6.848   6.089   6.730
20384SOL    HW262927   6.792   6.066   6.869
20385SOL     OW62928  14.358   4.693   5.209
20385SOL    HW162929  14.293   4.763   5.201
20385SOL    HW262930  14.342   4.656   5.296
20386SOL     OW62931   9.283   2.732   0.255
20386SOL    HW162932   9.263   2.662   0.193
20386SOL    HW262933   9.197   2.770   0.276
20387SOL     OW62934   9.424   4.879   7.667
20387SOL    HW162935   9.473   4.802   7.696
20387SOL    HW262936   9.491   4.946   7.654
20388SOL     OW62937   9.076   2.197   2.095
20388SOL    HW162938   9.098   2.198   2.188
20388SOL    HW262939   9.022   2.276   2.083
20389SOL     OW62940   3.406   3.695   2.292
20389SOL    HW162941   3.405   3.651   2.208
20389SOL    HW262942   3.487   3.747   2.292
20390SOL     OW62943   3.057  12.059   8.414
20390SOL    HW162944   3.076  12.081   8.505
20390SOL    HW262945   3.102  11.976   8.400
20391SOL     OW62946   2.459   0.489   9.050
20391SOL    HW162947   2.551   0.468   9.066
20391SOL    HW262948   2.420   0.406   9.023
20392SOL     OW62949   5.646  11.401   5.193
20392SOL    HW162950   5.661  11.379   5.101
20392SOL    HW262951   5.730  11.434   5.224
20393SOL     OW62952   1.846  14.062  14.605
20393SOL    HW162953   1.906  14.125  14.644
20393SOL    HW262954   1.898  13.982  14.594
20394SOL     OW62955   2.663  11.490   6.416
20394SOL    HW162956   2.639  11.428   6.347
20394SOL    HW262957   2.702  11.436   6.484
20395SOL     OW62958   3.291   3.623   2.680
20395SOL    HW162959   3.202   3.589   2.667
20395SOL    HW262960   3.279   3.710   2.716
20396SOL     OW62961  12.771   9.071   4.081
20396SOL    HW162962  12.763   9.037   3.992
20396SOL    HW262963  12.755   9.165   4.071
20397SOL     OW62964   8.349   6.593   4.889
20397SOL    HW162965   8.274   6.631   4.842
20397SOL    HW262966   8.380   6.665   4.944
20398SOL     OW62967   9.877   0.836   3.488
20398SOL    HW162968   9.963   0.821   3.528
20398SOL    HW262969   9.840   0.749   3.477
20399SOL     OW62970   3.443   6.441   6.172
20399SOL    HW162971   3.397   6.516   6.135
20399SOL    HW262972   3.530   6.443   6.132
20400SOL     OW62973   7.603  14.130   9.201
20400SOL    HW162974   7.648  14.097   9.279
20400SOL    HW262975   7.596  14.054   9.144
20401SOL     OW62976   6.775   7.113   0.544
20401SOL    HW162977   6.713   7.179   0.576
20401SOL    HW262978   6.737   7.030   0.571
20402SOL     OW62979   4.957   3.405   6.155
20402SOL    HW162980   5.024   3.410   6.086
20402SOL    HW262981   4.988   3.335   6.212
20403SOL     OW62982   2.486   9.531  10.125
20403SOL    HW162983   2.398   9.556  10.097
20403SOL    HW262984   2.512   9.462  10.063
20404SOL     OW62985   2.758  14.072   5.480
20404SOL    HW162986   2.849  14.063   5.453
20404SOL    HW262987   2.742  14.167   5.481
20405SOL     OW62988  12.962   2.817  12.796
20405SOL    HW162989  13.007   2.733  12.809
20405SOL    HW262990  12.955   2.855  12.884
20406SOL     OW62991   0.272   1.917  13.723
20406SOL    HW162992   0.237   1.871  13.799
20406SOL    HW262993   0.354   1.956  13.754
20407SOL     OW62994   8.307   1.542   1.015
20407SOL    HW162995   8.290   1.631   1.047
20407SOL    HW262996   8.237   1.489   1.053
20408SOL     OW62997   8.070   2.616  11.807
20408SOL    HW162998   8.046   2.700  11.767
20408SOL    HW262999   8.122   2.571  11.741
20409SOL     OW63000  11.916   8.231  10.507
20409SOL    HW163001  11.910   8.305  10.569
20409SOL    HW263002  11.845   8.172  10.533
20410SOL     OW63003  12.257   4.445   4.630
20410SOL    HW163004  12.316   4.399   4.570
20410SOL    HW263005  12.288   4.422   4.717
20411SOL     OW63006   7.966   5.207   8.533
20411SOL    HW163007   8.057   5.229   8.553
20411SOL    HW263008   7.919   5.227   8.614
20412SOL     OW63009  12.720   2.273   1.864
20412SOL    HW163010  12.653   2.208   1.844
20412SOL    HW263011  12.727   2.272   1.959
20413SOL     OW63012  14.881   4.612   2.336
20413SOL    HW163013  14.812   4.623   2.271
20413SOL    HW263014   0.016   4.518   2.338
20414SOL     OW63015   7.200   2.379   2.468
20414SOL    HW163016   7.115   2.344   2.439
20414SOL    HW263017   7.224   2.443   2.401
20415SOL     OW63018  11.085   9.873   2.483
20415SOL    HW163019  11.072   9.812   2.556
20415SOL    HW263020  11.060   9.958   2.519
20416SOL     OW63021  10.795  12.206   3.724
20416SOL    HW163022  10.802  12.251   3.808
20416SOL    HW263023  10.755  12.122   3.745
20417SOL     OW63024   2.029   5.838   6.829
20417SOL    HW163025   2.080   5.895   6.886
20417SOL    HW263026   2.092   5.805   6.765
20418SOL     OW63027  10.534   6.830   2.791
20418SOL    HW163028  10.509   6.816   2.700
20418SOL    HW263029  10.607   6.769   2.805
20419SOL     OW63030  11.413   0.002   4.175
20419SOL    HW163031  11.500  14.863   4.209
20419SOL    HW263032  11.355  14.819   4.216
20420SOL     OW63033   4.356   1.886   0.057
20420SOL    HW163034   4.288   1.886  14.871
20420SOL    HW263035   4.402   1.969   0.045
20421SOL     OW63036   3.812   3.999   2.061
20421SOL    HW163037   3.774   3.956   1.984
20421SOL    HW263038   3.904   3.973   2.059
20422SOL     OW63039   3.486   0.392   3.379
20422SOL    HW163040   3.571   0.376   3.420
20422SOL    HW263041   3.468   0.484   3.395
20423SOL     OW63042   1.613  13.787   1.268
20423SOL    HW163043   1.598  13.796   1.174
20423SOL    HW263044   1.526  13.787   1.307
20424SOL     OW63045  11.094   3.411   9.324
20424SOL    HW163046  11.095   3.335   9.267
20424SOL    HW263047  11.107   3.376   9.412
20425SOL     OW63048  10.048   2.348   3.402
20425SOL    HW163049  10.120   2.298   3.365
20425SOL    HW263050  10.089   2.424   3.443
20426SOL     OW63051   8.084   2.792  13.840
20426SOL    HW163052   8.075   2.716  13.896
20426SOL    HW263053   8.177   2.795  13.817
20427SOL     OW63054   5.316   5.772   8.710
20427SOL    HW163055   5.405   5.736   8.703
20427SOL    HW263056   5.328   5.857   8.752
20428SOL     OW63057   6.161   6.697  13.295
20428SOL    HW163058   6.088   6.749  13.260
20428SOL    HW263059   6.204   6.661  13.218
20429SOL     OW63060   3.331   3.142   6.327
20429SOL    HW163061   3.400   3.207   6.316
20429SOL    HW263062   3.324   3.099   6.242
20430SOL     OW63063  13.513  10.701   9.519
20430SOL    HW163064  13.549  10.710   9.431
20430SOL    HW263065  13.531  10.785   9.561
20431SOL     OW63066   8.108   9.343   6.185
20431SOL    HW163067   8.137   9.351   6.095
20431SOL    HW263068   8.016   9.316   6.178
20432SOL     OW63069  12.720   7.945   3.517
20432SOL    HW163070  12.743   7.912   3.430
20432SOL    HW263071  12.786   7.907   3.575
20433SOL     OW63072   3.362   4.935  14.624
20433SOL    HW163073   3.304   4.862  14.604
20433SOL    HW263074   3.448   4.896  14.633
20434SOL     OW63075   4.893  12.721   4.577
20434SOL    HW163076   4.934  12.655   4.520
20434SOL    HW263077   4.840  12.669   4.637
20435SOL     OW63078  10.463   7.528   9.574
20435SOL    HW163079  10.410   7.476   9.514
20435SOL    HW263080  10.416   7.525   9.657
20436SOL     OW63081  14.361   6.619   5.422
20436SOL    HW163082  14.393   6.603   5.510
20436SOL    HW263083  14.277   6.663   5.434
20437SOL     OW63084  10.215   6.367  13.555
20437SOL    HW163085  10.259   6.284  13.533
20437SOL    HW263086  10.151   6.343  13.622
20438SOL     OW63087   8.023   0.556   0.374
20438SOL    HW163088   8.061   0.469   0.356
20438SOL    HW263089   7.987   0.584   0.291
20439SOL     OW63090   5.522   4.820   8.305
20439SOL    HW163091   5.547   4.805   8.214
20439SOL    HW263092   5.605   4.832   8.351
20440SOL     OW63093  11.471   6.811   7.462
20440SOL    HW163094  11.488   6.759   7.384
20440SOL    HW263095  11.430   6.749   7.523
20441SOL     OW63096  14.284  13.625   1.286
20441SOL    HW163097  14.294  13.720   1.284
20441SOL    HW263098  14.259  13.605   1.376
20442SOL     OW63099  13.886  14.587   6.825
20442SOL    HW163100  13.847  14.654   6.881
20442SOL    HW263101  13.907  14.633   6.743
20443SOL     OW63102   7.263  14.869  13.480
20443SOL    HW163103   7.278  14.784  13.520
20443SOL    HW263104   7.319   0.048  13.528
20444SOL     OW63105  11.245   7.617   1.695
20444SOL    HW163106  11.316   7.599   1.757
20444SOL    HW263107  11.233   7.712   1.700
20445SOL     OW63108   9.680   9.622  11.762
20445SOL    HW163109   9.589   9.640  11.783
20445SOL    HW263110   9.706   9.555  11.826
20446SOL     OW63111   1.290   7.910   6.986
20446SOL    HW163112   1.267   8.001   7.002
20446SOL    HW263113   1.243   7.887   6.905
20447SOL     OW63114   8.600  12.577  12.943
20447SOL    HW163115   8.551  12.498  12.925
20447SOL    HW263116   8.646  12.559  13.025
20448SOL     OW63117   4.801   9.492   0.602
20448SOL    HW163118   4.871   9.495   0.666
20448SOL    HW263119   4.836   9.440   0.530
20449SOL     OW63120   0.021   8.590   2.176
20449SOL    HW163121   0.060   8.577   2.263
20449SOL    HW263122  14.865   8.677   2.179
20450SOL     OW63123  12.233  12.546   1.156
20450SOL    HW163124  12.143  12.531   1.127
20450SOL    HW263125  12.284  12.552   1.075
20451SOL     OW63126  12.050   9.171  12.396
20451SOL    HW163127  12.014   9.185  12.483
20451SOL    HW263128  12.097   9.087  12.403
20452SOL     OW63129   8.342  12.424  14.290
20452SOL    HW163130   8.375  12.403  14.378
20452SOL    HW263131   8.370  12.351  14.236
20453SOL     OW63132   4.658   0.096   4.091
20453SOL    HW163133   4.736   0.086   4.035
20453SOL    HW263134   4.634   0.007   4.114
20454SOL     OW63135   2.599  14.776  11.393
20454SOL    HW163136   2.524  14.779  11.452
20454SOL    HW263137   2.585  14.847  11.331
20455SOL     OW63138   4.386   5.564  10.666
20455SOL    HW163139   4.310   5.601  10.710
20455SOL    HW263140   4.417   5.494  10.725
20456SOL     OW63141  13.322   3.945   9.872
20456SOL    HW163142  13.404   3.958   9.920
20456SOL    HW263143  13.334   3.994   9.791
20457SOL     OW63144   8.397   5.110   2.370
20457SOL    HW163145   8.461   5.039   2.368
20457SOL    HW263146   8.358   5.105   2.457
20458SOL     OW63147   1.679   4.926  10.733
20458SOL    HW163148   1.750   4.981  10.766
20458SOL    HW263149   1.673   4.947  10.640
20459SOL     OW63150   8.796   1.616   0.153
20459SOL    HW163151   8.739   1.641   0.080
20459SOL    HW263152   8.753   1.652   0.231
20460SOL     OW63153   3.219  12.691  10.124
20460SOL    HW163154   3.145  12.730  10.077
20460SOL    HW263155   3.191  12.691  10.216
20461SOL     OW63156   2.907  10.883   6.764
20461SOL    HW163157   2.972  10.953   6.770
20461SOL    HW263158   2.850  10.909   6.692
20462SOL     OW63159   0.084   6.054   3.045
20462SOL    HW163160   0.097   6.084   2.955
20462SOL    HW263161   0.007   5.997   3.040
20463SOL     OW63162  10.185   9.602   2.747
20463SOL    HW163163  10.218   9.542   2.680
20463SOL    HW263164  10.090   9.605   2.731
20464SOL     OW63165   0.710   0.682  13.341
20464SOL    HW163166   0.662   0.611  13.384
20464SOL    HW263167   0.650   0.715  13.275
20465SOL     OW63168  12.384  12.604   0.268
20465SOL    HW163169  12.304  12.561   0.297
20465SOL    HW263170  12.435  12.617   0.348
20466SOL     OW63171   1.755  12.840   5.268
20466SOL    HW163172   1.843  12.818   5.299
20466SOL    HW263173   1.760  12.835   5.173
20467SOL     OW63174  12.013   5.148   8.524
20467SOL    HW163175  11.917   5.146   8.518
20467SOL    HW263176  12.038   5.232   8.486
20468SOL     OW63177  13.149  10.296   6.488
20468SOL    HW163178  13.115  10.323   6.573
20468SOL    HW263179  13.237  10.263   6.507
20469SOL     OW63180   4.640   6.318   7.404
20469SOL    HW163181   4.594   6.390   7.447
20469SOL    HW263182   4.573   6.274   7.352
20470SOL     OW63183   0.816   3.294  13.733
20470SOL    HW163184   0.839   3.237  13.806
20470SOL    HW263185   0.897   3.306  13.684
20471SOL     OW63186  14.427   0.184   0.922
20471SOL    HW163187  14.391   0.216   0.840
20471SOL    HW263188  14.515   0.154   0.900
20472SOL     OW63189   6.987  11.340   8.363
20472SOL    HW163190   7.006  11.343   8.457
20472SOL    HW263191   6.964  11.431   8.340
20473SOL     OW63192   2.575   6.057  10.666
20473SOL    HW163193   2.636   6.110  10.616
20473SOL    HW263194   2.488   6.091  10.643
20474SOL     OW63195   8.950   8.169   6.217
20474SOL    HW163196   9.030   8.118   6.210
20474SOL    HW263197   8.976   8.258   6.191
20475SOL     OW63198  12.637   8.258   6.384
20475SOL    HW163199  12.599   8.173   6.406
20475SOL    HW263200  12.721   8.237   6.342
20476SOL     OW63201   5.075   6.483  12.183
20476SOL    HW163202   4.987   6.521  12.182
20476SOL    HW263203   5.123   6.534  12.248
20477SOL     OW63204   1.619   5.929   1.597
20477SOL    HW163205   1.704   5.888   1.580
20477SOL    HW263206   1.615   6.002   1.535
20478SOL     OW63207   0.470  14.595  14.037
20478SOL    HW163208   0.430  14.566  14.119
20478SOL    HW263209   0.551  14.638  14.063
20479SOL     OW63210  12.895   8.206   3.439
20479SOL    HW163211  12.912   8.299   3.425
20479SOL    HW263212  12.813   8.189   3.392
20480SOL     OW63213   3.888   8.748   8.217
20480SOL    HW163214   3.824   8.758   8.146
20480SOL    HW263215   3.972   8.769   8.177
20481SOL     OW63216   1.631   3.350   1.038
20481SOL    HW163217   1.688   3.307   0.974
20481SOL    HW263218   1.559   3.287   1.052
20482SOL     OW63219   8.466  10.676   3.239
20482SOL    HW163220   8.523  10.649   3.310
20482SOL    HW263221   8.518  10.741   3.190
20483SOL     OW63222   5.881   3.559  13.976
20483SOL    HW163223   5.954   3.498  13.988
20483SOL    HW263224   5.830   3.551  14.057
20484SOL     OW63225   7.886   4.808  13.387
20484SOL    HW163226   7.853   4.746  13.323
20484SOL    HW263227   7.819   4.877  13.390
20485SOL     OW63228  10.948   1.967   3.478
20485SOL    HW163229  11.002   1.945   3.403
20485SOL    HW263230  10.866   1.920   3.464
20486SOL     OW63231   9.229   6.033  11.170
20486SOL    HW163232   9.261   6.100  11.231
20486SOL    HW263233   9.176   6.082  11.107
20487SOL     OW63234   0.331   3.343   6.602
20487SOL    HW163235   0.394   3.398   6.555
20487SOL    HW263236   0.371   3.256   6.603
20488SOL     OW63237   3.884  10.091   1.600
20488SOL    HW163238   3.969  10.111   1.563
20488SOL    HW263239   3.882  10.140   1.682
20489SOL     OW63240   2.052   9.205   3.100
20489SOL    HW163241   2.090   9.226   3.015
20489SOL    HW263242   2.120   9.155   3.145
20490SOL     OW63243  10.420   6.389   5.667
20490SOL    HW163244  10.382   6.355   5.748
20490SOL    HW263245  10.444   6.310   5.618
20491SOL     OW63246   7.186   5.936   1.928
20491SOL    HW163247   7.239   5.944   2.007
20491SOL    HW263248   7.106   5.985   1.947
20492SOL     OW63249   8.848  14.030   1.111
20492SOL    HW163250   8.918  14.069   1.058
20492SOL    HW263251   8.839  13.941   1.078
20493SOL     OW63252  14.121  10.823   8.703
20493SOL    HW163253  14.182  10.885   8.743
20493SOL    HW263254  14.177  10.753   8.669
20494SOL     OW63255  10.199   6.851  14.679
20494SOL    HW163256  10.133   6.910  14.643
20494SOL    HW263257  10.232   6.896  14.756
20495SOL     OW63258   0.128  13.522   2.730
20495SOL    HW163259   0.061  13.579   2.767
20495SOL    HW263260   0.096  13.433   2.746
20496SOL     OW63261   2.626   0.988   8.158
20496SOL    HW163262   2.654   1.077   8.139
20496SOL    HW263263   2.568   0.996   8.234
20497SOL     OW63264   9.981  12.459   1.696
20497SOL    HW163265   9.904  12.505   1.662
20497SOL    HW263266   9.966  12.367   1.673
20498SOL     OW63267   3.703   8.141  12.560
20498SOL    HW163268   3.725   8.065  12.506
20498SOL    HW263269   3.701   8.107  12.649
20499SOL     OW63270   0.730   6.895   5.641
20499SOL    HW163271   0.635   6.903   5.629
20499SOL    HW263272   0.766   6.894   5.553
20500SOL     OW63273  12.211  10.054   0.708
20500SOL    HW163274  12.145  10.014   0.765
20500SOL    HW263275  12.165  10.067   0.625
20501SOL     OW63276  10.831   6.363  11.585
20501SOL    HW163277  10.913   6.412  11.588
20501SOL    HW263278  10.835   6.304  11.660
20502SOL     OW63279   0.064   6.804   5.719
20502SOL    HW163280   0.108   6.875   5.672
20502SOL    HW263281   0.030   6.746   5.650
20503SOL     OW63282  14.648   6.545  14.084
20503SOL    HW163283  14.587   6.614  14.110
20503SOL    HW263284  14.728   6.591  14.059
20504SOL     OW63285  12.283   9.694   1.473
20504SOL    HW163286  12.267   9.605   1.505
20504SOL    HW263287  12.357   9.725   1.526
20505SOL     OW63288   3.440   5.753   8.045
20505SOL    HW163289   3.516   5.725   8.095
20505SOL    HW263290   3.374   5.775   8.111
20506SOL     OW63291  13.335   1.581   7.605
20506SOL    HW163292  13.295   1.537   7.681
20506SOL    HW263293  13.265   1.638   7.572
20507SOL     OW63294  11.305   7.799   2.174
20507SOL    HW163295  11.380   7.842   2.215
20507SOL    HW263296  11.295   7.717   2.222
20508SOL     OW63297  13.661   7.681  11.160
20508SOL    HW163298  13.702   7.735  11.093
20508SOL    HW263299  13.694   7.716  11.243
20509SOL     OW63300   2.650   0.962   4.768
20509SOL    HW163301   2.607   1.006   4.842
20509SOL    HW263302   2.743   0.980   4.780
20510SOL     OW63303  11.289   1.115   3.931
20510SOL    HW163304  11.325   1.201   3.952
20510SOL    HW263305  11.202   1.115   3.969
20511SOL     OW63306   0.501  11.030   0.168
20511SOL    HW163307   0.595  11.043   0.174
20511SOL    HW263308   0.468  11.051   0.255
20512SOL     OW63309   6.842  12.894  10.996
20512SOL    HW163310   6.790  12.909  10.917
20512SOL    HW263311   6.932  12.913  10.969
20513SOL     OW63312  11.895   3.768   4.078
20513SOL    HW163313  11.981   3.778   4.036
20513SOL    HW263314  11.833   3.778   4.006
20514SOL     OW63315   4.536   1.349  12.008
20514SOL    HW163316   4.569   1.434  12.037
20514SOL    HW263317   4.546   1.351  11.913
20515SOL     OW63318  11.287  11.459   6.713
20515SOL    HW163319  11.204  11.410   6.718
20515SOL    HW263320  11.262  11.550   6.724
20516SOL     OW63321  13.590   7.217   7.662
20516SOL    HW163322  13.550   7.134   7.639
20516SOL    HW263323  13.599   7.214   7.758
20517SOL     OW63324  13.651   0.150   6.997
20517SOL    HW163325  13.691   0.086   6.939
20517SOL    HW263326  13.708   0.227   6.992
20518SOL     OW63327   9.664  13.871  12.189
20518SOL    HW163328   9.572  13.843  12.190
20518SOL    HW263329   9.709  13.806  12.244
20519SOL     OW63330   2.299   0.250   6.613
20519SOL    HW163331   2.224   0.197   6.637
20519SOL    HW263332   2.373   0.189   6.611
20520SOL     OW63333  12.597  14.238   0.329
20520SOL    HW163334  12.536  14.295   0.282
20520SOL    HW263335  12.585  14.261   0.421
20521SOL     OW63336   3.032   4.830   0.671
20521SOL    HW163337   2.946   4.850   0.635
20521SOL    HW263338   3.060   4.911   0.712
20522SOL     OW63339   1.018   8.823   2.687
20522SOL    HW163340   1.030   8.803   2.594
20522SOL    HW263341   0.967   8.749   2.721
20523SOL     OW63342  14.010   4.877   5.851
20523SOL    HW163343  13.928   4.858   5.805
20523SOL    HW263344  14.040   4.792   5.883
20524SOL     OW63345   5.668   3.142   9.632
20524SOL    HW163346   5.677   3.237   9.635
20524SOL    HW263347   5.574   3.127   9.625
20525SOL     OW63348   6.116   7.418   3.845
20525SOL    HW163349   6.203   7.420   3.885
20525SOL    HW263350   6.057   7.442   3.917
20526SOL     OW63351  10.407   1.516   3.033
20526SOL    HW163352  10.348   1.563   2.974
20526SOL    HW263353  10.350   1.460   3.085
20527SOL     OW63354   5.286  10.871   1.581
20527SOL    HW163355   5.343  10.810   1.534
20527SOL    HW263356   5.242  10.920   1.512
20528SOL     OW63357  13.597   7.942   7.358
20528SOL    HW163358  13.682   7.925   7.317
20528SOL    HW263359  13.556   8.008   7.302
20529SOL     OW63360   2.868   4.949  12.070
20529SOL    HW163361   2.817   4.871  12.091
20529SOL    HW263362   2.850   5.009  12.142
20530SOL     OW63363  13.510  13.699   8.618
20530SOL    HW163364  13.488  13.792   8.625
20530SOL    HW263365  13.429  13.657   8.590
20531SOL     OW63366   1.108  13.978   8.146
20531SOL    HW163367   1.193  13.940   8.167
20531SOL    HW263368   1.070  14.001   8.231
20532SOL     OW63369   4.003   4.706  11.212
20532SOL    HW163370   3.919   4.679  11.250
20532SOL    HW263371   3.996   4.683  11.119
20533SOL     OW63372   4.818   8.353  14.292
20533SOL    HW163373   4.784   8.430  14.245
20533SOL    HW263374   4.843   8.387  14.378
20534SOL     OW63375   7.634   7.649   0.763
20534SOL    HW163376   7.562   7.590   0.738
20534SOL    HW263377   7.705   7.627   0.703
20535SOL     OW63378   4.837   6.674  10.525
20535SOL    HW163379   4.808   6.601  10.470
20535SOL    HW263380   4.777   6.745  10.503
20536SOL     OW63381   3.218  11.051  12.386
20536SOL    HW163382   3.228  10.958  12.403
20536SOL    HW263383   3.148  11.056  12.321
20537SOL     OW63384  12.876  14.363   0.392
20537SOL    HW163385  12.952  14.307   0.375
20537SOL    HW263386  12.802  14.315   0.356
20538SOL     OW63387   7.143   6.257   3.966
20538SOL    HW163388   7.131   6.305   3.884
20538SOL    HW263389   7.065   6.276   4.017
20539SOL     OW63390   7.157   6.013  12.758
20539SOL    HW163391   7.113   6.063  12.827
20539SOL    HW263392   7.105   6.029  12.680
20540SOL     OW63393   2.338  12.502  12.608
20540SOL    HW163394   2.411  12.442  12.618
20540SOL    HW263395   2.377  12.584  12.580
20541SOL     OW63396  14.682   0.109   3.850
20541SOL    HW163397  14.674   0.088   3.943
20541SOL    HW263398  14.652   0.031   3.804
20542SOL     OW63399   6.493   1.447  14.014
20542SOL    HW163400   6.494   1.504  13.938
20542SOL    HW263401   6.476   1.360  13.979
20543SOL     OW63402  14.131   2.728   2.194
20543SOL    HW163403  14.079   2.794   2.241
20543SOL    HW263404  14.158   2.772   2.113
20544SOL     OW63405   6.827   9.872   2.316
20544SOL    HW163406   6.775   9.814   2.260
20544SOL    HW263407   6.873   9.929   2.255
20545SOL     OW63408  13.050   8.880  12.286
20545SOL    HW163409  13.123   8.827  12.319
20545SOL    HW263410  13.056   8.873  12.191
20546SOL     OW63411   9.414   0.770   1.396
20546SOL    HW163412   9.408   0.674   1.395
20546SOL    HW263413   9.359   0.797   1.469
20547SOL     OW63414  10.513  10.203   1.050
20547SOL    HW163415  10.463  10.188   0.970
20547SOL    HW263416  10.503  10.122   1.099
20548SOL     OW63417   7.301  11.572   2.269
20548SOL    HW163418   7.325  11.647   2.215
20548SOL    HW263419   7.261  11.510   2.208
20549SOL     OW63420   9.247   9.195   3.597
20549SOL    HW163421   9.182   9.134   3.562
20549SOL    HW263422   9.211   9.282   3.577
20550SOL     OW63423   6.138  12.786   0.495
20550SOL    HW163424   6.204  12.855   0.501
20550SOL    HW263425   6.185  12.710   0.460
20551SOL     OW63426   6.220  10.897   0.177
20551SOL    HW163427   6.200  10.804   0.169
20551SOL    HW263428   6.311  10.900   0.205
20552SOL     OW63429  12.412  11.368   8.015
20552SOL    HW163430  12.354  11.385   8.090
20552SOL    HW263431  12.355  11.327   7.950
20553SOL     OW63432   2.091   8.271  13.566
20553SOL    HW163433   2.102   8.178  13.586
20553SOL    HW263434   2.000   8.280  13.538
20554SOL     OW63435  11.862   6.960   8.392
20554SOL    HW163436  11.914   7.035   8.362
20554SOL    HW263437  11.793   6.952   8.327
20555SOL     OW63438  10.784   9.883   4.826
20555SOL    HW163439  10.701   9.929   4.811
20555SOL    HW263440  10.783   9.862   4.919
20556SOL     OW63441  10.515   4.027   3.461
20556SOL    HW163442  10.500   3.946   3.509
20556SOL    HW263443  10.597   4.013   3.414
20557SOL     OW63444   0.248  13.590   9.206
20557SOL    HW163445   0.285  13.676   9.186
20557SOL    HW263446   0.175  13.581   9.144
20558SOL     OW63447   6.339  14.583   7.852
20558SOL    HW163448   6.323  14.507   7.908
20558SOL    HW263449   6.339  14.548   7.763
20559SOL     OW63450   3.167   1.342  10.233
20559SOL    HW163451   3.144   1.260  10.277
20559SOL    HW263452   3.126   1.410  10.287
20560SOL     OW63453  12.988   7.899   9.467
20560SOL    HW163454  12.998   7.994   9.468
20560SOL    HW263455  12.929   7.882   9.394
20561SOL     OW63456   9.880   2.851   2.539
20561SOL    HW163457   9.885   2.763   2.577
20561SOL    HW263458   9.910   2.909   2.609
20562SOL     OW63459   8.773   0.814   2.823
20562SOL    HW163460   8.864   0.838   2.809
20562SOL    HW263461   8.769   0.720   2.806
20563SOL     OW63462  14.040  12.780   1.725
20563SOL    HW163463  14.066  12.868   1.698
20563SOL    HW263464  14.032  12.785   1.820
20564SOL     OW63465   9.888   0.786   2.946
20564SOL    HW163466   9.830   0.848   2.902
20564SOL    HW263467   9.912   0.831   3.028
20565SOL     OW63468  12.020  13.139   2.079
20565SOL    HW163469  12.054  13.059   2.041
20565SOL    HW263470  11.979  13.185   2.005
20566SOL     OW63471  11.610  14.615   8.279
20566SOL    HW163472  11.543  14.617   8.347
20566SOL    HW263473  11.634  14.523   8.271
20567SOL     OW63474  10.375   9.077   3.346
20567SOL    HW163475  10.402   9.166   3.325
20567SOL    HW263476  10.331   9.045   3.268
20568SOL     OW63477   4.547   0.478   3.890
20568SOL    HW163478   4.453   0.476   3.904
20568SOL    HW263479   4.585   0.490   3.977
20569SOL     OW63480   2.220  10.820   9.247
20569SOL    HW163481   2.174  10.739   9.223
20569SOL    HW263482   2.286  10.792   9.310
20570SOL     OW63483  10.925   7.643   5.312
20570SOL    HW163484  10.989   7.686   5.369
20570SOL    HW263485  10.947   7.675   5.224
20571SOL     OW63486   1.688   0.995   5.246
20571SOL    HW163487   1.763   0.973   5.191
20571SOL    HW263488   1.718   1.070   5.298
20572SOL     OW63489   3.413  11.569   8.639
20572SOL    HW163490   3.466  11.522   8.575
20572SOL    HW263491   3.343  11.609   8.587
20573SOL     OW63492   7.319   1.999   6.954
20573SOL    HW163493   7.335   1.962   7.040
20573SOL    HW263494   7.335   1.927   6.893
20574SOL     OW63495   9.126   6.182   9.400
20574SOL    HW163496   9.078   6.224   9.328
20574SOL    HW263497   9.174   6.254   9.441
20575SOL     OW63498   3.680   1.804  14.004
20575SOL    HW163499   3.695   1.869  14.073
20575SOL    HW263500   3.598   1.761  14.029
20576SOL     OW63501   9.444   9.545  14.085
20576SOL    HW163502   9.400   9.467  14.050
20576SOL    HW263503   9.378   9.587  14.140
20577SOL     OW63504   3.592   0.852   6.148
20577SOL    HW163505   3.497   0.860   6.149
20577SOL    HW263506   3.610   0.800   6.069
20578SOL     OW63507   2.012   7.041   8.896
20578SOL    HW163508   2.003   7.081   8.982
20578SOL    HW263509   1.975   6.954   8.905
20579SOL     OW63510  11.993  11.622   8.427
20579SOL    HW163511  12.003  11.645   8.520
20579SOL    HW263512  12.017  11.703   8.381
20580SOL     OW63513   9.166   0.687   7.630
20580SOL    HW163514   9.262   0.690   7.620
20580SOL    HW263515   9.133   0.716   7.545
20581SOL     OW63516  13.924  11.331  14.558
20581SOL    HW163517  13.839  11.360  14.589
20581SOL    HW263518  13.985  11.354  14.628
20582SOL     OW63519  13.364   3.562   4.215
20582SOL    HW163520  13.350   3.543   4.122
20582SOL    HW263521  13.430   3.498   4.242
20583SOL     OW63522   4.897   7.468   6.467
20583SOL    HW163523   4.844   7.494   6.392
20583SOL    HW263524   4.859   7.385   6.495
20584SOL     OW63525  12.689   3.698  11.871
20584SOL    HW163526  12.717   3.726  11.959
20584SOL    HW263527  12.599   3.732  11.864
20585SOL     OW63528   1.424   1.343  10.436
20585SOL    HW163529   1.456   1.421  10.391
20585SOL    HW263530   1.355   1.309  10.378
20586SOL     OW63531   5.890  13.108  14.762
20586SOL    HW163532   5.892  13.015  14.784
20586SOL    HW263533   5.934  13.151  14.836
20587SOL     OW63534   9.125   0.459   9.102
20587SOL    HW163535   9.144   0.528   9.039
20587SOL    HW263536   9.193   0.393   9.087
20588SOL     OW63537   5.245   9.462   9.434
20588SOL    HW163538   5.251   9.555   9.455
20588SOL    HW263539   5.154   9.439   9.453
20589SOL     OW63540  14.116   6.142   0.541
20589SOL    HW163541  14.034   6.131   0.591
20589SOL    HW263542  14.176   6.183   0.603
20590SOL     OW63543  12.055   6.695  14.363
20590SOL    HW163544  12.146   6.665  14.357
20590SOL    HW263545  12.058   6.785  14.331
20591SOL     OW63546  14.128   4.912   3.250
20591SOL    HW163547  14.114   4.833   3.302
20591SOL    HW263548  14.060   4.973   3.279
20592SOL     OW63549   5.259   2.058   9.954
20592SOL    HW163550   5.344   2.081   9.992
20592SOL    HW263551   5.240   2.129   9.892
20593SOL     OW63552  12.075  13.358  13.203
20593SOL    HW163553  12.101  13.270  13.178
20593SOL    HW263554  11.985  13.349  13.235
20594SOL     OW63555   0.719   2.693  12.140
20594SOL    HW163556   0.705   2.647  12.223
20594SOL    HW263557   0.701   2.627  12.073
20595SOL     OW63558   1.417   3.790  10.303
20595SOL    HW163559   1.468   3.710  10.290
20595SOL    HW263560   1.378   3.781  10.389
20596SOL     OW63561   8.191   9.182   5.487
20596SOL    HW163562   8.105   9.224   5.493
20596SOL    HW263563   8.232   9.197   5.572
20597SOL     OW63564  10.055   2.276   3.960
20597SOL    HW163565  10.087   2.294   3.871
20597SOL    HW263566   9.961   2.265   3.949
20598SOL     OW63567   5.083  11.099   0.283
20598SOL    HW163568   5.095  11.078   0.190
20598SOL    HW263569   5.156  11.158   0.304
20599SOL     OW63570   0.783  14.224   1.367
20599SOL    HW163571   0.743  14.263   1.444
20599SOL    HW263572   0.710  14.207   1.308
20600SOL     OW63573   8.706   6.545   0.296
20600SOL    HW163574   8.790   6.591   0.291
20600SOL    HW263575   8.641   6.614   0.284
20601SOL     OW63576   7.982   7.370   7.900
20601SOL    HW163577   8.051   7.434   7.920
20601SOL    HW263578   7.955   7.337   7.986
20602SOL     OW63579  10.852  12.536  12.577
20602SOL    HW163580  10.917  12.485  12.626
20602SOL    HW263581  10.789  12.471  12.546
20603SOL     OW63582   6.758  14.375   7.040
20603SOL    HW163583   6.799  14.462   7.040
20603SOL    HW263584   6.748  14.353   7.132
20604SOL     OW63585   3.008   6.877  11.659
20604SOL    HW163586   2.929   6.831  11.632
20604SOL    HW263587   2.976   6.953  11.709
20605SOL     OW63588   5.098   5.276   7.944
20605SOL    HW163589   5.169   5.231   7.990
20605SOL    HW263590   5.056   5.329   8.012
20606SOL     OW63591   1.646   2.340   6.273
20606SOL    HW163592   1.673   2.382   6.191
20606SOL    HW263593   1.707   2.266   6.282
20607SOL     OW63594   9.837   7.870  13.766
20607SOL    HW163595   9.800   7.955  13.743
20607SOL    HW263596   9.928   7.889  13.789
20608SOL     OW63597   0.281   4.768   6.341
20608SOL    HW163598   0.306   4.756   6.250
20608SOL    HW263599   0.220   4.842   6.341
20609SOL     OW63600   2.456   2.892   8.618
20609SOL    HW163601   2.505   2.827   8.567
20609SOL    HW263602   2.369   2.854   8.628
20610SOL     OW63603   0.990  10.936   4.279
20610SOL    HW163604   1.020  11.017   4.238
20610SOL    HW263605   1.064  10.910   4.335
20611SOL     OW63606  13.287  10.287   4.915
20611SOL    HW163607  13.206  10.297   4.965
20611SOL    HW263608  13.280  10.202   4.873
20612SOL     OW63609   1.661   5.174  12.526
20612SOL    HW163610   1.646   5.091  12.570
20612SOL    HW263611   1.751   5.197  12.547
20613SOL     OW63612  10.405   7.813   9.091
20613SOL    HW163613  10.397   7.750   9.163
20613SOL    HW263614  10.446   7.890   9.131
20614SOL     OW63615   4.974  13.330   9.636
20614SOL    HW163616   4.936  13.276   9.705
20614SOL    HW263617   5.055  13.364   9.674
20615SOL     OW63618   1.992   0.309   3.118
20615SOL    HW163619   2.052   0.382   3.102
20615SOL    HW263620   1.905   0.348   3.119
20616SOL     OW63621   1.157  14.581   5.169
20616SOL    HW163622   1.094  14.537   5.225
20616SOL    HW263623   1.241  14.541   5.192
20617SOL     OW63624   3.966  10.687   3.853
20617SOL    HW163625   3.895  10.649   3.801
20617SOL    HW263626   4.045  10.642   3.822
20618SOL     OW63627  10.043  13.536  11.357
20618SOL    HW163628  10.060  13.566  11.268
20618SOL    HW263629   9.971  13.474  11.348
20619SOL     OW63630  12.692   5.839  13.644
20619SOL    HW163631  12.712   5.841  13.551
20619SOL    HW263632  12.659   5.751  13.660
20620SOL     OW63633  14.079   0.643  13.406
20620SOL    HW163634  13.985   0.630  13.411
20620SOL    HW263635  14.115   0.556  13.393
20621SOL     OW63636   9.022   9.870   7.442
20621SOL    HW163637   9.053   9.926   7.512
20621SOL    HW263638   9.014   9.928   7.366
20622SOL     OW63639  12.426   9.985   0.247
20622SOL    HW163640  12.345   9.988   0.298
20622SOL    HW263641  12.425   9.898   0.206
20623SOL     OW63642   0.369   2.261  10.768
20623SOL    HW163643   0.365   2.167  10.786
20623SOL    HW263644   0.305   2.275  10.699
20624SOL     OW63645   3.984   3.893   8.853
20624SOL    HW163646   3.912   3.860   8.799
20624SOL    HW263647   4.029   3.814   8.884
20625SOL     OW63648   6.763   7.409  12.957
20625SOL    HW163649   6.813   7.391  12.877
20625SOL    HW263650   6.683   7.357  12.947
20626SOL     OW63651   6.440   2.123   2.541
20626SOL    HW163652   6.364   2.076   2.508
20626SOL    HW263653   6.471   2.174   2.466
20627SOL     OW63654   8.788   1.509   5.181
20627SOL    HW163655   8.817   1.478   5.095
20627SOL    HW263656   8.867   1.542   5.223
20628SOL     OW63657  13.276  13.304   8.892
20628SOL    HW163658  13.247  13.394   8.874
20628SOL    HW263659  13.195  13.257   8.913
20629SOL     OW63660   4.434   7.229   4.914
20629SOL    HW163661   4.495   7.258   4.847
20629SOL    HW263662   4.452   7.135   4.923
20630SOL     OW63663  14.049  14.383   9.845
20630SOL    HW163664  14.119  14.326   9.815
20630SOL    HW263665  13.996  14.400   9.767
20631SOL     OW63666  10.400   1.808   7.005
20631SOL    HW163667  10.438   1.827   6.919
20631SOL    HW263668  10.365   1.719   6.997
20632SOL     OW63669   9.204  13.310   6.916
20632SOL    HW163670   9.251  13.252   6.975
20632SOL    HW263671   9.116  13.273   6.910
20633SOL     OW63672  10.987   3.223   1.710
20633SOL    HW163673  10.937   3.186   1.782
20633SOL    HW263674  10.939   3.198   1.631
20634SOL     OW63675   0.404   7.654   8.761
20634SOL    HW163676   0.479   7.596   8.765
20634SOL    HW263677   0.355   7.636   8.842
20635SOL     OW63678  13.926  13.187   3.615
20635SOL    HW163679  14.015  13.153   3.611
20635SOL    HW263680  13.888  13.144   3.692
20636SOL     OW63681  10.495   6.213   0.278
20636SOL    HW163682  10.579   6.192   0.236
20636SOL    HW263683  10.463   6.130   0.313
20637SOL     OW63684   9.057   0.471   8.575
20637SOL    HW163685   9.146   0.508   8.569
20637SOL    HW263686   9.008   0.534   8.628
20638SOL     OW63687  10.669  14.220   2.081
20638SOL    HW163688  10.654  14.142   2.135
20638SOL    HW263689  10.588  14.232   2.032
20639SOL     OW63690  14.232   2.205   3.850
20639SOL    HW163691  14.159   2.144   3.843
20639SOL    HW263692  14.196   2.279   3.900
20640SOL     OW63693   6.009   3.440  10.203
20640SOL    HW163694   6.045   3.469  10.119
20640SOL    HW263695   5.918   3.470  10.201
20641SOL     OW63696   8.462   2.747   8.879
20641SOL    HW163697   8.458   2.820   8.817
20641SOL    HW263698   8.376   2.746   8.921
20642SOL     OW63699  11.941   8.942   3.080
20642SOL    HW163700  12.027   8.960   3.118
20642SOL    HW263701  11.950   8.966   2.988
20643SOL     OW63702   3.548   5.551   3.391
20643SOL    HW163703   3.503   5.630   3.422
20643SOL    HW263704   3.487   5.480   3.411
20644SOL     OW63705   8.822   1.337  11.228
20644SOL    HW163706   8.898   1.392  11.210
20644SOL    HW263707   8.841   1.295  11.311
20645SOL     OW63708   8.191  13.404   6.561
20645SOL    HW163709   8.273  13.397   6.511
20645SOL    HW263710   8.172  13.314   6.588
20646SOL     OW63711  11.351   8.614   7.282
20646SOL    HW163712  11.412   8.614   7.208
20646SOL    HW263713  11.407   8.605   7.359
20647SOL     OW63714   8.489   4.840   5.871
20647SOL    HW163715   8.524   4.852   5.783
20647SOL    HW263716   8.518   4.918   5.919
20648SOL     OW63717   5.383   6.643   7.732
20648SOL    HW163718   5.340   6.564   7.765
20648SOL    HW263719   5.406   6.622   7.642
20649SOL     OW63720  14.832  10.053  14.672
20649SOL    HW163721  14.754  10.098  14.637
20649SOL    HW263722   0.019  10.120  14.669
20650SOL     OW63723  13.801   3.607   5.953
20650SOL    HW163724  13.894   3.603   5.973
20650SOL    HW263725  13.798   3.634   5.861
20651SOL     OW63726   3.376   7.041   6.411
20651SOL    HW163727   3.452   7.074   6.363
20651SOL    HW263728   3.413   6.990   6.483
20652SOL     OW63729   7.318  13.115   2.461
20652SOL    HW163730   7.295  13.063   2.539
20652SOL    HW263731   7.413  13.108   2.455
20653SOL     OW63732   1.545   3.816   1.107
20653SOL    HW163733   1.560   3.768   1.188
20653SOL    HW263734   1.569   3.906   1.128
20654SOL     OW63735   9.623  14.621   2.997
20654SOL    HW163736   9.635  14.696   3.055
20654SOL    HW263737   9.690  14.632   2.930
20655SOL     OW63738   7.975  14.286   6.684
20655SOL    HW163739   8.032  14.218   6.647
20655SOL    HW263740   8.010  14.301   6.772
20656SOL     OW63741  12.337   7.011   2.390
20656SOL    HW163742  12.248   6.980   2.376
20656SOL    HW263743  12.327   7.092   2.440
20657SOL     OW63744   9.522  11.886  14.504
20657SOL    HW163745   9.597  11.828  14.489
20657SOL    HW263746   9.557  11.974  14.495
20658SOL     OW63747   2.882  14.034   4.290
20658SOL    HW163748   2.961  13.998   4.250
20658SOL    HW263749   2.907  14.053   4.380
20659SOL     OW63750  10.265   9.724  13.874
20659SOL    HW163751  10.242   9.766  13.791
20659SOL    HW263752  10.361   9.720  13.874
20660SOL     OW63753   5.217   1.305   0.411
20660SOL    HW163754   5.170   1.388   0.402
20660SOL    HW263755   5.218   1.289   0.505
20661SOL     OW63756   2.398  14.669   9.673
20661SOL    HW163757   2.379  14.610   9.600
20661SOL    HW263758   2.347  14.747   9.655
20662SOL     OW63759   0.315  12.330  11.821
20662SOL    HW163760   0.316  12.416  11.778
20662SOL    HW263761   0.224  12.317  11.848
20663SOL     OW63762   4.678   1.283   8.672
20663SOL    HW163763   4.749   1.334   8.710
20663SOL    HW263764   4.601   1.340   8.679
20664SOL     OW63765  13.668   3.963   6.300
20664SOL    HW163766  13.676   3.878   6.258
20664SOL    HW263767  13.622   3.945   6.382
20665SOL     OW63768   9.859   3.118  14.523
20665SOL    HW163769   9.854   3.194  14.581
20665SOL    HW263770   9.896   3.049  14.577
20666SOL     OW63771   2.907   1.310   6.187
20666SOL    HW163772   2.965   1.384   6.204
20666SOL    HW263773   2.964   1.242   6.152
20667SOL     OW63774  13.823  11.625   5.748
20667SOL    HW163775  13.876  11.634   5.669
20667SOL    HW263776  13.795  11.714   5.769
20668SOL     OW63777   7.744   5.146   5.868
20668SOL    HW163778   7.681   5.111   5.805
20668SOL    HW263779   7.762   5.073   5.927
20669SOL     OW63780   0.943   5.461   6.481
20669SOL    HW163781   0.955   5.371   6.450
20669SOL    HW263782   1.031   5.498   6.481
20670SOL     OW63783  13.358   2.479   5.289
20670SOL    HW163784  13.325   2.448   5.373
20670SOL    HW263785  13.418   2.411   5.261
20671SOL     OW63786  11.636   7.804  10.392
20671SOL    HW163787  11.582   7.726  10.376
20671SOL    HW263788  11.583   7.858  10.451
20672SOL     OW63789   6.140  14.369   2.328
20672SOL    HW163790   6.225  14.335   2.299
20672SOL    HW263791   6.091  14.384   2.247
20673SOL     OW63792   7.438  13.560   1.485
20673SOL    HW163793   7.505  13.628   1.491
20673SOL    HW263794   7.355  13.605   1.501
20674SOL     OW63795  13.487  12.276  13.389
20674SOL    HW163796  13.516  12.215  13.321
20674SOL    HW263797  13.396  12.297  13.366
20675SOL     OW63798   3.467   4.364   6.830
20675SOL    HW163799   3.500   4.314   6.756
20675SOL    HW263800   3.472   4.304   6.905
20676SOL     OW63801   0.361   8.043   8.785
20676SOL    HW163802   0.452   8.016   8.770
20676SOL    HW263803   0.331   8.073   8.700
20677SOL     OW63804  12.269   1.305   7.377
20677SOL    HW163805  12.258   1.365   7.451
20677SOL    HW263806  12.245   1.357   7.301
20678SOL     OW63807  11.669   1.025   9.406
20678SOL    HW163808  11.744   0.965   9.411
20678SOL    HW263809  11.647   1.028   9.313
20679SOL     OW63810  13.366   2.793   6.975
20679SOL    HW163811  13.365   2.886   6.996
20679SOL    HW263812  13.322   2.750   7.048
20680SOL     OW63813  10.844   4.848   8.865
20680SOL    HW163814  10.862   4.793   8.941
20680SOL    HW263815  10.771   4.904   8.892
20681SOL     OW63816  13.736   4.822  11.566
20681SOL    HW163817  13.780   4.742  11.537
20681SOL    HW263818  13.768   4.890  11.506
20682SOL     OW63819  12.014   3.532   9.831
20682SOL    HW163820  12.063   3.452   9.849
20682SOL    HW263821  11.950   3.537   9.903
20683SOL     OW63822   5.601  12.622   6.193
20683SOL    HW163823   5.531  12.571   6.151
20683SOL    HW263824   5.658  12.648   6.121
20684SOL     OW63825   3.556   7.002   2.854
20684SOL    HW163826   3.537   6.959   2.937
20684SOL    HW263827   3.470   7.012   2.812
20685SOL     OW63828   5.912  11.895  14.398
20685SOL    HW163829   6.001  11.901  14.365
20685SOL    HW263830   5.859  11.941  14.333
20686SOL     OW63831   3.271  11.705   9.822
20686SOL    HW163832   3.304  11.682   9.909
20686SOL    HW263833   3.288  11.798   9.813
20687SOL     OW63834  10.797  14.283  14.323
20687SOL    HW163835  10.872  14.317  14.273
20687SOL    HW263836  10.745  14.361  14.343
20688SOL     OW63837  10.507  12.365   5.040
20688SOL    HW163838  10.593  12.403   5.026
20688SOL    HW263839  10.450  12.440   5.055
20689SOL     OW63840   0.776   9.386  12.627
20689SOL    HW163841   0.750   9.381  12.535
20689SOL    HW263842   0.871   9.372  12.626
20690SOL     OW63843   1.360   0.920   3.716
20690SOL    HW163844   1.434   0.861   3.701
20690SOL    HW263845   1.398   0.996   3.760
20691SOL     OW63846   3.170   3.971  10.021
20691SOL    HW163847   3.099   3.933  10.072
20691SOL    HW263848   3.250   3.943  10.065
20692SOL     OW63849  11.883   9.755   2.776
20692SOL    HW163850  11.956   9.695   2.758
20692SOL    HW263851  11.838   9.764   2.693
20693SOL     OW63852   6.700  12.655   9.855
20693SOL    HW163853   6.711  12.586   9.920
20693SOL    HW263854   6.609  12.683   9.864
20694SOL     OW63855  13.762   3.869   7.400
20694SOL    HW163856  13.824   3.911   7.341
20694SOL    HW263857  13.692   3.838   7.343
20695SOL     OW63858   8.651   6.484   5.829
20695SOL    HW163859   8.722   6.545   5.810
20695SOL    HW263860   8.685   6.399   5.803
20696SOL     OW63861   9.875  13.694  13.795
20696SOL    HW163862   9.828  13.747  13.730
20696SOL    HW263863   9.808  13.637  13.832
20697SOL     OW63864   1.539   2.755  13.326
20697SOL    HW163865   1.544   2.842  13.286
20697SOL    HW263866   1.575   2.766  13.413
20698SOL     OW63867   7.605  13.820  10.977
20698SOL    HW163868   7.526  13.868  10.954
20698SOL    HW263869   7.648  13.801  10.894
20699SOL     OW63870   9.190   6.353  13.311
20699SOL    HW163871   9.178   6.332  13.218
20699SOL    HW263872   9.280   6.329  13.330
20700SOL     OW63873   6.168   7.845  14.418
20700SOL    HW163874   6.208   7.930  14.438
20700SOL    HW263875   6.240   7.793  14.380
20701SOL     OW63876   7.439   9.379   0.973
20701SOL    HW163877   7.506   9.362   1.038
20701SOL    HW263878   7.407   9.293   0.947
20702SOL     OW63879   7.057   9.907   3.815
20702SOL    HW163880   7.013   9.834   3.860
20702SOL    HW263881   7.114   9.946   3.881
20703SOL     OW63882  12.028  11.030   4.685
20703SOL    HW163883  12.115  10.996   4.707
20703SOL    HW263884  11.968  10.960   4.712
20704SOL     OW63885   8.747  13.041   0.468
20704SOL    HW163886   8.746  13.092   0.387
20704SOL    HW263887   8.769  13.105   0.536
20705SOL     OW63888   9.877   5.323  11.908
20705SOL    HW163889   9.820   5.376  11.853
20705SOL    HW263890   9.956   5.377  11.921
20706SOL     OW63891   1.138   1.401  11.164
20706SOL    HW163892   1.053   1.364  11.186
20706SOL    HW263893   1.119   1.489  11.131
20707SOL     OW63894   5.376   7.227  10.406
20707SOL    HW163895   5.429   7.200  10.480
20707SOL    HW263896   5.290   7.187  10.421
20708SOL     OW63897   7.240   8.069   2.906
20708SOL    HW163898   7.332   8.096   2.911
20708SOL    HW263899   7.213   8.094   2.818
20709SOL     OW63900   5.641   8.739   8.171
20709SOL    HW163901   5.668   8.771   8.257
20709SOL    HW263902   5.669   8.647   8.170
20710SOL     OW63903   3.813   3.482   2.544
20710SOL    HW163904   3.726   3.522   2.539
20710SOL    HW263905   3.820   3.429   2.465
20711SOL     OW63906   9.607   6.832   8.900
20711SOL    HW163907   9.658   6.869   8.828
20711SOL    HW263908   9.657   6.755   8.928
20712SOL     OW63909   0.389  10.441   0.830
20712SOL    HW163910   0.470  10.396   0.809
20712SOL    HW263911   0.326  10.372   0.849
20713SOL     OW63912  11.200   5.085   8.367
20713SOL    HW163913  11.146   5.128   8.432
20713SOL    HW263914  11.280   5.138   8.362
20714SOL     OW63915  12.519   0.252   6.369
20714SOL    HW163916  12.493   0.298   6.289
20714SOL    HW263917  12.532   0.161   6.340
20715SOL     OW63918   7.038   7.407  14.455
20715SOL    HW163919   6.957   7.357  14.442
20715SOL    HW263920   7.071   7.376  14.539
20716SOL     OW63921   0.890  13.408   9.899
20716SOL    HW163922   0.800  13.390   9.926
20716SOL    HW263923   0.927  13.460   9.970
20717SOL     OW63924   4.637  13.479   6.576
20717SOL    HW163925   4.593  13.498   6.494
20717SOL    HW263926   4.723  13.520   6.568
20718SOL     OW63927   1.216   4.224   1.053
20718SOL    HW163928   1.245   4.136   1.078
20718SOL    HW263929   1.121   4.218   1.054
20719SOL     OW63930   3.615   1.468  13.468
20719SOL    HW163931   3.529   1.501  13.496
20719SOL    HW263932   3.625   1.385  13.515
20720SOL     OW63933  11.404  10.659  11.441
20720SOL    HW163934  11.496  10.688  11.447
20720SOL    HW263935  11.373  10.694  11.357
20721SOL     OW63936   8.084   1.322  10.646
20721SOL    HW163937   8.058   1.266  10.720
20721SOL    HW263938   8.164   1.365  10.676
20722SOL     OW63939   8.771   2.373  14.445
20722SOL    HW163940   8.748   2.351  14.355
20722SOL    HW263941   8.705   2.437  14.472
20723SOL     OW63942  13.564   6.604  10.753
20723SOL    HW163943  13.548   6.589  10.847
20723SOL    HW263944  13.505   6.542  10.709
20724SOL     OW63945  11.794  10.274  11.854
20724SOL    HW163946  11.757  10.221  11.784
20724SOL    HW263947  11.886  10.247  11.858
20725SOL     OW63948   5.870  13.792   1.180
20725SOL    HW163949   5.817  13.834   1.247
20725SOL    HW263950   5.958  13.786   1.218
20726SOL     OW63951  14.844   7.593   0.663
20726SOL    HW163952  14.844   7.599   0.567
20726SOL    HW263953   0.047   7.554   0.684
20727SOL     OW63954   7.988   0.506   5.341
20727SOL    HW163955   8.062   0.553   5.303
20727SOL    HW263956   7.924   0.501   5.270
20728SOL     OW63957   3.979   2.833   0.651
20728SOL    HW163958   3.978   2.768   0.721
20728SOL    HW263959   4.039   2.900   0.681
20729SOL     OW63960   7.239   2.479   4.837
20729SOL    HW163961   7.303   2.474   4.765
20729SOL    HW263962   7.290   2.460   4.916
20730SOL     OW63963   8.502   7.390   5.237
20730SOL    HW163964   8.563   7.455   5.271
20730SOL    HW263965   8.557   7.327   5.190
20731SOL     OW63966   1.566   9.331   2.965
20731SOL    HW163967   1.636   9.312   3.026
20731SOL    HW263968   1.491   9.280   2.997
20732SOL     OW63969   8.506   0.390   2.993
20732SOL    HW163970   8.495   0.301   3.026
20732SOL    HW263971   8.563   0.433   3.057
20733SOL     OW63972   0.246  12.956  14.797
20733SOL    HW163973   0.234  13.018  14.724
20733SOL    HW263974   0.337  12.927  14.788
20734SOL     OW63975  12.573   4.288   8.218
20734SOL    HW163976  12.494   4.320   8.173
20734SOL    HW263977  12.641   4.293   8.151
20735SOL     OW63978   8.686   1.620  12.056
20735SOL    HW163979   8.714   1.707  12.085
20735SOL    HW263980   8.757   1.590  11.999
20736SOL     OW63981  11.158   3.660  10.929
20736SOL    HW163982  11.151   3.714  10.850
20736SOL    HW263983  11.235   3.694  10.974
20737SOL     OW63984   8.466   1.314   5.834
20737SOL    HW163985   8.492   1.406   5.838
20737SOL    HW263986   8.538   1.267   5.877
20738SOL     OW63987   3.572  12.181   5.938
20738SOL    HW163988   3.619  12.132   6.006
20738SOL    HW263989   3.480  12.162   5.953
20739SOL     OW63990   6.140  14.050   0.888
20739SOL    HW163991   6.116  14.007   0.806
20739SOL    HW263992   6.062  14.040   0.944
20740SOL     OW63993   6.517  13.959   9.509
20740SOL    HW163994   6.553  13.901   9.576
20740SOL    HW263995   6.485  13.900   9.440
20741SOL     OW63996   2.458   9.547  12.080
20741SOL    HW163997   2.468   9.526  11.987
20741SOL    HW263998   2.364   9.562  12.092
20742SOL     OW63999   7.388   7.609   4.263
20742SOL    HW164000   7.414   7.549   4.332
20742SOL    HW264001   7.454   7.596   4.194
20743SOL     OW64002   0.919  10.650   1.009
20743SOL    HW164003   0.889  10.700   1.085
20743SOL    HW264004   0.859  10.673   0.939
20744SOL     OW64005   1.385   3.308   1.954
20744SOL    HW164006   1.375   3.306   1.859
20744SOL    HW264007   1.429   3.392   1.971
20745SOL     OW64008  12.392  11.964   6.491
20745SOL    HW164009  12.482  11.993   6.480
20745SOL    HW264010  12.398  11.869   6.499
20746SOL     OW64011   2.076   9.713   7.822
20746SOL    HW164012   2.159   9.675   7.850
20746SOL    HW264013   2.043   9.757   7.900
20747SOL     OW64014   8.768   8.398  14.167
20747SOL    HW164015   8.806   8.380  14.081
20747SOL    HW264016   8.842   8.397  14.227
20748SOL     OW64017   1.662   1.083  10.197
20748SOL    HW164018   1.569   1.059  10.201
20748SOL    HW264019   1.681   1.090  10.104
20749SOL     OW64020   5.662   1.252  13.567
20749SOL    HW164021   5.641   1.293  13.650
20749SOL    HW264022   5.756   1.267  13.556
20750SOL     OW64023   3.023   3.246  11.683
20750SOL    HW164024   2.931   3.224  11.667
20750SOL    HW264025   3.071   3.197  11.616
20751SOL     OW64026  14.444   1.439   6.565
20751SOL    HW164027  14.466   1.510   6.504
20751SOL    HW264028  14.503   1.453   6.640
20752SOL     OW64029   2.284   3.264  13.392
20752SOL    HW164030   2.210   3.316  13.361
20752SOL    HW264031   2.352   3.279  13.327
20753SOL     OW64032   8.313  11.371  10.322
20753SOL    HW164033   8.297  11.337  10.409
20753SOL    HW264034   8.349  11.459  10.336
20754SOL     OW64035   0.672   4.850  13.418
20754SOL    HW164036   0.624   4.892  13.347
20754SOL    HW264037   0.763   4.878  13.405
20755SOL     OW64038   8.489  11.859  10.751
20755SOL    HW164039   8.432  11.787  10.723
20755SOL    HW264040   8.431  11.935  10.754
20756SOL     OW64041  11.391  13.492   3.555
20756SOL    HW164042  11.300  13.520   3.545
20756SOL    HW264043  11.442  13.555   3.505
20757SOL     OW64044   2.235   6.689   5.811
20757SOL    HW164045   2.197   6.606   5.840
20757SOL    HW264046   2.222   6.749   5.885
20758SOL     OW64047   4.167  14.132  10.172
20758SOL    HW164048   4.183  14.046  10.209
20758SOL    HW264049   4.252  14.159  10.136
20759SOL     OW64050  12.511   0.002   5.947
20759SOL    HW164051  12.437  14.855   5.892
20759SOL    HW264052  12.562  14.804   5.962
20760SOL     OW64053   4.388  14.237   4.710
20760SOL    HW164054   4.410  14.144   4.709
20760SOL    HW264055   4.295  14.240   4.687
20761SOL     OW64056   0.729  12.092   0.448
20761SOL    HW164057   0.657  12.150   0.422
20761SOL    HW264058   0.694  12.004   0.433
20762SOL     OW64059   3.206   0.312   8.682
20762SOL    HW164060   3.265   0.259   8.628
20762SOL    HW264061   3.119   0.275   8.666
20763SOL     OW64062   9.469   1.814  13.226
20763SOL    HW164063   9.395   1.873  13.238
20763SOL    HW264064   9.531   1.864  13.173
20764SOL     OW64065  13.068  13.965  11.863
20764SOL    HW164066  13.117  14.034  11.818
20764SOL    HW264067  13.115  13.952  11.945
20765SOL     OW64068  11.543  11.344   1.433
20765SOL    HW164069  11.566  11.419   1.377
20765SOL    HW264070  11.574  11.368   1.520
20766SOL     OW64071   4.360  11.313  11.964
20766SOL    HW164072   4.405  11.230  11.982
20766SOL    HW264073   4.272  11.301  11.999
20767SOL     OW64074  10.816  13.101   8.640
20767SOL    HW164075  10.854  13.017   8.616
20767SOL    HW264076  10.879  13.141   8.699
20768SOL     OW64077   5.784   6.999  13.380
20768SOL    HW164078   5.859   7.055  13.403
20768SOL    HW264079   5.770   7.015  13.287
20769SOL     OW64080   6.911   3.430   9.732
20769SOL    HW164081   6.936   3.341   9.759
20769SOL    HW264082   6.816   3.430   9.734
20770SOL     OW64083   1.536   5.805  13.395
20770SOL    HW164084   1.446   5.816  13.427
20770SOL    HW264085   1.532   5.725  13.342
20771SOL     OW64086   2.272   5.007   6.967
20771SOL    HW164087   2.322   4.955   7.031
20771SOL    HW264088   2.310   4.984   6.883
20772SOL     OW64089   3.045  13.038   6.057
20772SOL    HW164090   2.993  12.996   5.989
20772SOL    HW264091   3.104  12.969   6.088
20773SOL     OW64092  14.624   4.546   2.462
20773SOL    HW164093  14.637   4.453   2.442
20773SOL    HW264094  14.694   4.567   2.525
20774SOL     OW64095   3.275  14.646   2.133
20774SOL    HW164096   3.334  14.610   2.200
20774SOL    HW264097   3.188  14.626   2.166
20775SOL     OW64098   4.949   5.546   8.382
20775SOL    HW164099   4.978   5.628   8.423
20775SOL    HW264100   5.012   5.480   8.412
20776SOL     OW64101   7.335   8.980   9.090
20776SOL    HW164102   7.353   8.923   9.165
20776SOL    HW264103   7.255   8.946   9.052
20777SOL     OW64104   1.567   9.598   0.377
20777SOL    HW164105   1.638   9.571   0.436
20777SOL    HW264106   1.541   9.684   0.410
20778SOL     OW64107  11.869   5.879   0.572
20778SOL    HW164108  11.838   5.836   0.492
20778SOL    HW264109  11.814   5.843   0.641
20779SOL     OW64110  13.563   6.808  11.936
20779SOL    HW164111  13.565   6.903  11.928
20779SOL    HW264112  13.615   6.777  11.862
20780SOL     OW64113   5.240   4.872   9.885
20780SOL    HW164114   5.245   4.960   9.921
20780SOL    HW264115   5.197   4.883   9.801
20781SOL     OW64116   1.740   6.913  10.455
20781SOL    HW164117   1.665   6.869  10.494
20781SOL    HW264118   1.788   6.844  10.410
20782SOL     OW64119  10.568  10.415  10.383
20782SOL    HW164120  10.489  10.411  10.329
20782SOL    HW264121  10.537  10.445  10.468
20783SOL     OW64122   3.131  14.816  10.126
20783SOL    HW164123   3.127  14.835  10.032
20783SOL    HW264124   3.199  14.874  10.159
20784SOL     OW64125  14.071   8.731   0.081
20784SOL    HW164126  14.101   8.822   0.080
20784SOL    HW264127  13.985   8.735   0.123
20785SOL     OW64128   0.931  12.981   6.265
20785SOL    HW164129   0.892  12.938   6.342
20785SOL    HW264130   0.857  12.999   6.208
20786SOL     OW64131   5.160   1.112  10.003
20786SOL    HW164132   5.192   1.136  10.089
20786SOL    HW264133   5.224   1.050   9.969
20787SOL     OW64134   7.559  10.350  13.095
20787SOL    HW164135   7.589  10.440  13.088
20787SOL    HW264136   7.467  10.353  13.069
20788SOL     OW64137   8.271   8.059   8.163
20788SOL    HW164138   8.248   8.108   8.241
20788SOL    HW264139   8.192   8.063   8.108
20789SOL     OW64140   2.543   9.228  12.752
20789SOL    HW164141   2.603   9.157  12.775
20789SOL    HW264142   2.527   9.274  12.834
20790SOL     OW64143   6.495   9.635  11.602
20790SOL    HW164144   6.582   9.617  11.639
20790SOL    HW264145   6.491   9.580  11.523
20791SOL     OW64146   1.433  12.088   2.467
20791SOL    HW164147   1.382  12.024   2.516
20791SOL    HW264148   1.477  12.141   2.534
20792SOL     OW64149   0.426  12.275   7.639
20792SOL    HW164150   0.432  12.327   7.720
20792SOL    HW264151   0.389  12.336   7.575
20793SOL     OW64152   2.523   8.389   9.122
20793SOL    HW164153   2.522   8.415   9.030
20793SOL    HW264154   2.613   8.404   9.151
20794SOL     OW64155  12.129  13.742   2.369
20794SOL    HW164156  12.085  13.718   2.287
20794SOL    HW264157  12.109  13.671   2.429
20795SOL     OW64158  10.713   0.868   6.569
20795SOL    HW164159  10.745   0.934   6.507
20795SOL    HW264160  10.627   0.844   6.536
20796SOL     OW64161  13.369  12.355   8.467
20796SOL    HW164162  13.414  12.363   8.382
20796SOL    HW264163  13.366  12.261   8.484
20797SOL     OW64164   4.582   7.901   6.336
20797SOL    HW164165   4.495   7.864   6.352
20797SOL    HW264166   4.621   7.842   6.272
20798SOL     OW64167   5.464   7.971  10.204
20798SOL    HW164168   5.526   7.944  10.136
20798SOL    HW264169   5.454   7.893  10.258
20799SOL     OW64170   0.158  10.713   8.063
20799SOL    HW164171   0.192  10.724   7.974
20799SOL    HW264172   0.109  10.793   8.080
20800SOL     OW64173  11.663   9.865  10.352
20800SOL    HW164174  11.576   9.869  10.393
20800SOL    HW264175  11.648   9.894  10.262
20801SOL     OW64176  11.984   0.766  13.282
20801SOL    HW164177  11.920   0.792  13.216
20801SOL    HW264178  12.038   0.845  13.294
20802SOL     OW64179   2.377  12.002  10.228
20802SOL    HW164180   2.284  11.997  10.250
20802SOL    HW264181   2.387  11.941  10.155
20803SOL     OW64182   8.609   2.198  10.292
20803SOL    HW164183   8.616   2.102  10.291
20803SOL    HW264184   8.698   2.229  10.278
20804SOL     OW64185  11.718   8.858  13.075
20804SOL    HW164186  11.721   8.844  13.170
20804SOL    HW264187  11.676   8.943  13.065
20805SOL     OW64188   6.589  12.228  10.830
20805SOL    HW164189   6.575  12.254  10.921
20805SOL    HW264190   6.637  12.145  10.837
20806SOL     OW64191   5.549  12.713  12.229
20806SOL    HW164192   5.496  12.750  12.299
20806SOL    HW264193   5.548  12.618  12.246
20807SOL     OW64194   9.005   9.351   6.539
20807SOL    HW164195   8.950   9.407   6.483
20807SOL    HW264196   9.036   9.282   6.481
20808SOL     OW64197  13.882   6.498  11.078
20808SOL    HW164198  13.804   6.442  11.080
20808SOL    HW264199  13.913   6.498  11.169
20809SOL     OW64200   5.823   5.787   5.027
20809SOL    HW164201   5.823   5.843   5.105
20809SOL    HW264202   5.742   5.737   5.033
20810SOL     OW64203  12.844  14.270   6.354
20810SOL    HW164204  12.814  14.244   6.442
20810SOL    HW264205  12.813  14.360   6.344
20811SOL     OW64206  14.322   8.742   0.003
20811SOL    HW164207  14.357   8.680  14.821
20811SOL    HW264208  14.233   8.710   0.021
20812SOL     OW64209   1.709  10.431   4.365
20812SOL    HW164210   1.619  10.440   4.395
20812SOL    HW264211   1.702  10.408   4.272
20813SOL     OW64212   9.705   4.759   7.575
20813SOL    HW164213   9.757   4.699   7.520
20813SOL    HW264214   9.675   4.705   7.648
20814SOL     OW64215   5.397   2.824   1.021
20814SOL    HW164216   5.427   2.753   0.966
20814SOL    HW264217   5.358   2.887   0.960
20815SOL     OW64218   2.560  10.527   6.511
20815SOL    HW164219   2.481  10.542   6.563
20815SOL    HW264220   2.558  10.594   6.443
20816SOL     OW64221  12.317  14.563   9.958
20816SOL    HW164222  12.257  14.630   9.993
20816SOL    HW264223  12.261  14.507   9.904
20817SOL     OW64224   1.807   3.849  12.129
20817SOL    HW164225   1.889   3.846  12.080
20817SOL    HW264226   1.812   3.931  12.178
20818SOL     OW64227  10.075   7.549   9.152
20818SOL    HW164228  10.117   7.597   9.080
20818SOL    HW264229   9.982   7.567   9.141
20819SOL     OW64230   6.506   4.662  14.099
20819SOL    HW164231   6.488   4.712  14.179
20819SOL    HW264232   6.494   4.571  14.124
20820SOL     OW64233  13.480   7.775  12.369
20820SOL    HW164234  13.521   7.862  12.370
20820SOL    HW264235  13.417   7.777  12.441
20821SOL     OW64236   4.046   2.988   9.890
20821SOL    HW164237   4.022   3.062   9.834
20821SOL    HW264238   3.972   2.977   9.950
20822SOL     OW64239   7.372   8.956   5.137
20822SOL    HW164240   7.321   8.875   5.135
20822SOL    HW264241   7.418   8.953   5.221
20823SOL     OW64242  11.394   9.105  14.175
20823SOL    HW164243  11.341   9.132  14.101
20823SOL    HW264244  11.376   9.170  14.243
20824SOL     OW64245  14.246   4.943   1.434
20824SOL    HW164246  14.306   4.973   1.503
20824SOL    HW264247  14.233   5.020   1.378
20825SOL     OW64248   7.289   7.209   7.219
20825SOL    HW164249   7.367   7.183   7.171
20825SOL    HW264250   7.317   7.284   7.271
20826SOL     OW64251   6.353   8.076   8.057
20826SOL    HW164252   6.369   7.999   8.112
20826SOL    HW264253   6.380   8.150   8.112
20827SOL     OW64254   6.468   2.614  14.419
20827SOL    HW164255   6.499   2.664  14.494
20827SOL    HW264256   6.436   2.680  14.358
20828SOL     OW64257  12.094   7.169  10.606
20828SOL    HW164258  12.025   7.190  10.668
20828SOL    HW264259  12.078   7.078  10.581
20829SOL     OW64260   0.146   1.923   8.321
20829SOL    HW164261   0.053   1.918   8.341
20829SOL    HW264262   0.178   1.834   8.336
20830SOL     OW64263  10.293   5.713   0.790
20830SOL    HW164264  10.232   5.763   0.844
20830SOL    HW264265  10.291   5.756   0.705
20831SOL     OW64266   5.637  14.072   9.956
20831SOL    HW164267   5.727  14.094   9.979
20831SOL    HW264268   5.607  14.145   9.902
20832SOL     OW64269   4.447   8.830   6.216
20832SOL    HW164270   4.522   8.782   6.179
20832SOL    HW264271   4.385   8.836   6.143
20833SOL     OW64272   5.702   9.270   3.223
20833SOL    HW164273   5.631   9.212   3.191
20833SOL    HW264274   5.779   9.213   3.226
20834SOL     OW64275   4.626   9.394   5.079
20834SOL    HW164276   4.542   9.389   5.033
20834SOL    HW264277   4.619   9.328   5.149
20835SOL     OW64278  11.193   1.696   8.364
20835SOL    HW164279  11.264   1.641   8.330
20835SOL    HW264280  11.184   1.766   8.300
20836SOL     OW64281   1.237  14.014   3.895
20836SOL    HW164282   1.329  13.987   3.902
20836SOL    HW264283   1.205  13.970   3.816
20837SOL     OW64284   7.020  10.843   7.453
20837SOL    HW164285   7.041  10.749   7.456
20837SOL    HW264286   7.104  10.885   7.435
20838SOL     OW64287  11.486  10.397   8.012
20838SOL    HW164288  11.553  10.385   7.944
20838SOL    HW264289  11.426  10.462   7.975
20839SOL     OW64290   8.247  10.056   2.682
20839SOL    HW164291   8.313  10.122   2.702
20839SOL    HW264292   8.279  10.013   2.603
20840SOL     OW64293   9.190  14.717   1.226
20840SOL    HW164294   9.133  14.758   1.161
20840SOL    HW264295   9.137  14.646   1.263
20841SOL     OW64296   7.534   7.707   7.748
20841SOL    HW164297   7.609   7.661   7.784
20841SOL    HW264298   7.568   7.753   7.671
20842SOL     OW64299   3.978  13.628   3.444
20842SOL    HW164300   3.979  13.695   3.511
20842SOL    HW264301   4.048  13.653   3.384
20843SOL     OW64302  12.367  10.681  10.086
20843SOL    HW164303  12.411  10.671  10.001
20843SOL    HW264304  12.410  10.756  10.126
20844SOL     OW64305  13.612  10.169   0.963
20844SOL    HW164306  13.634  10.255   0.929
20844SOL    HW264307  13.556  10.130   0.896
20845SOL     OW64308  13.840  13.017  10.690
20845SOL    HW164309  13.796  12.971  10.619
20845SOL    HW264310  13.779  13.013  10.763
20846SOL     OW64311  10.849   7.797   0.191
20846SOL    HW164312  10.917   7.773   0.127
20846SOL    HW264313  10.777   7.830   0.137
20847SOL     OW64314  11.999   9.808   7.945
20847SOL    HW164315  11.927   9.771   7.894
20847SOL    HW264316  12.071   9.746   7.932
20848SOL     OW64317   2.478  11.930   3.884
20848SOL    HW164318   2.442  12.001   3.939
20848SOL    HW264319   2.419  11.856   3.900
20849SOL     OW64320  14.670  11.167   8.617
20849SOL    HW164321  14.749  11.156   8.564
20849SOL    HW264322  14.701  11.208   8.698
20850SOL     OW64323   8.659   6.187   8.286
20850SOL    HW164324   8.628   6.275   8.309
20850SOL    HW264325   8.639   6.179   8.192
20851SOL     OW64326   4.928   2.071  10.304
20851SOL    HW164327   4.848   2.081  10.251
20851SOL    HW264328   4.898   2.078  10.394
20852SOL     OW64329   4.887   6.931  14.315
20852SOL    HW164330   4.866   7.007  14.369
20852SOL    HW264331   4.803   6.889  14.298
20853SOL     OW64332   7.783  10.087   4.287
20853SOL    HW164333   7.815  10.173   4.311
20853SOL    HW264334   7.813  10.075   4.197
20854SOL     OW64335   3.146  13.418   6.449
20854SOL    HW164336   3.240  13.404   6.458
20854SOL    HW264337   3.107  13.335   6.477
20855SOL     OW64338   5.475  11.559   2.283
20855SOL    HW164339   5.529  11.590   2.211
20855SOL    HW264340   5.463  11.465   2.266
20856SOL     OW64341   4.219   0.009   0.972
20856SOL    HW164342   4.275  14.813   0.968
20856SOL    HW264343   4.178   0.005   1.058
20857SOL     OW64344   2.455   3.327   4.939
20857SOL    HW164345   2.509   3.364   4.869
20857SOL    HW264346   2.505   3.343   5.019
20858SOL     OW64347  11.717   2.566   7.946
20858SOL    HW164348  11.774   2.642   7.939
20858SOL    HW264349  11.776   2.493   7.966
20859SOL     OW64350   0.427  14.571  12.403
20859SOL    HW164351   0.486  14.500  12.430
20859SOL    HW264352   0.440  14.578  12.309
20860SOL     OW64353   1.428   2.678  10.988
20860SOL    HW164354   1.403   2.752  10.932
20860SOL    HW264355   1.345   2.639  11.015
20861SOL     OW64356   1.958   8.454   3.291
20861SOL    HW164357   2.039   8.444   3.342
20861SOL    HW264358   1.969   8.536   3.243
20862SOL     OW64359  14.398   3.053  13.775
20862SOL    HW164360  14.320   3.100  13.744
20862SOL    HW264361  14.471   3.104  13.741
20863SOL     OW64362   3.405   6.294   7.182
20863SOL    HW164363   3.343   6.267   7.115
20863SOL    HW264364   3.413   6.218   7.240
20864SOL     OW64365   5.218   4.888   4.157
20864SOL    HW164366   5.269   4.898   4.237
20864SOL    HW264367   5.277   4.918   4.087
20865SOL     OW64368   1.237   0.683  12.151
20865SOL    HW164369   1.252   0.589  12.151
20865SOL    HW264370   1.210   0.703  12.241
20866SOL     OW64371   6.827   9.432   0.894
20866SOL    HW164372   6.858   9.435   0.803
20866SOL    HW264373   6.815   9.338   0.912
20867SOL     OW64374  14.166  11.637   4.276
20867SOL    HW164375  14.204  11.571   4.217
20867SOL    HW264376  14.242  11.681   4.314
20868SOL     OW64377   2.952   6.708   6.258
20868SOL    HW164378   2.958   6.727   6.165
20868SOL    HW264379   3.010   6.771   6.300
20869SOL     OW64380   3.972   1.590   7.702
20869SOL    HW164381   3.879   1.573   7.719
20869SOL    HW264382   3.974   1.618   7.610
20870SOL     OW64383  13.135   0.522   5.323
20870SOL    HW164384  13.105   0.510   5.413
20870SOL    HW264385  13.153   0.615   5.316
20871SOL     OW64386  11.288   3.418   1.930
20871SOL    HW164387  11.286   3.478   2.005
20871SOL    HW264388  11.226   3.456   1.867
20872SOL     OW64389  13.020  13.509  13.596
20872SOL    HW164390  12.929  13.516  13.566
20872SOL    HW264391  13.072  13.516  13.516
20873SOL     OW64392   2.675   7.283   6.822
20873SOL    HW164393   2.744   7.257   6.761
20873SOL    HW264394   2.594   7.247   6.784
20874SOL     OW64395   7.830   8.715   9.151
20874SOL    HW164396   7.920   8.732   9.122
20874SOL    HW264397   7.841   8.662   9.231
20875SOL     OW64398   0.157   9.963   2.570
20875SOL    HW164399   0.138   9.936   2.660
20875SOL    HW264400   0.077   9.944   2.521
20876SOL     OW64401   1.731   0.171   4.364
20876SOL    HW164402   1.667   0.157   4.294
20876SOL    HW264403   1.810   0.126   4.335
20877SOL     OW64404  13.321   5.882  13.978
20877SOL    HW164405  13.325   5.965  13.931
20877SOL    HW264406  13.230   5.874  14.007
20878SOL     OW64407   7.944   2.008   3.312
20878SOL    HW164408   8.008   2.058   3.363
20878SOL    HW264409   7.993   1.977   3.236
20879SOL     OW64410   9.841  14.838   8.104
20879SOL    HW164411   9.774  14.865   8.167
20879SOL    HW264412   9.792  14.819   8.024
20880SOL     OW64413   3.619   8.041  13.824
20880SOL    HW164414   3.545   7.983  13.803
20880SOL    HW264415   3.607   8.116  13.766
20881SOL     OW64416  11.934   5.702  10.566
20881SOL    HW164417  11.903   5.790  10.588
20881SOL    HW264418  11.854   5.653  10.545
20882SOL     OW64419   7.369  13.626   2.506
20882SOL    HW164420   7.421  13.704   2.487
20882SOL    HW264421   7.396  13.563   2.439
20883SOL     OW64422  13.992   6.723  12.343
20883SOL    HW164423  14.026   6.759  12.261
20883SOL    HW264424  13.897   6.718  12.328
20884SOL     OW64425  12.296   0.491   7.789
20884SOL    HW164426  12.232   0.532   7.847
20884SOL    HW264427  12.334   0.420   7.842
20885SOL     OW64428  14.162   6.444   1.998
20885SOL    HW164429  14.217   6.383   2.046
20885SOL    HW264430  14.183   6.530   2.035
20886SOL     OW64431   1.007   0.849  13.350
20886SOL    HW164432   0.966   0.872  13.266
20886SOL    HW264433   0.958   0.899  13.415
20887SOL     OW64434   3.377  13.676   8.127
20887SOL    HW164435   3.371  13.688   8.032
20887SOL    HW264436   3.467  13.698   8.149
20888SOL     OW64437  10.021   2.401   6.960
20888SOL    HW164438   9.934   2.384   6.923
20888SOL    HW264439  10.021   2.495   6.980
20889SOL     OW64440   7.515   3.695  12.905
20889SOL    HW164441   7.609   3.713  12.896
20889SOL    HW264442   7.475   3.782  12.911
20890SOL     OW64443  12.088   5.942  11.749
20890SOL    HW164444  12.012   5.974  11.700
20890SOL    HW264445  12.163   5.964  11.694
20891SOL     OW64446   8.981   1.168  14.056
20891SOL    HW164447   9.050   1.107  14.032
20891SOL    HW264448   8.947   1.200  13.972
20892SOL     OW64449   6.581   8.066   1.384
20892SOL    HW164450   6.634   7.997   1.422
20892SOL    HW264451   6.531   8.023   1.315
20893SOL     OW64452   5.472   3.934   6.592
20893SOL    HW164453   5.561   3.929   6.558
20893SOL    HW264454   5.463   4.024   6.623
20894SOL     OW64455   5.693  14.515   3.450
20894SOL    HW164456   5.691  14.431   3.404
20894SOL    HW264457   5.639  14.573   3.396
20895SOL     OW64458   1.916   1.934   4.178
20895SOL    HW164459   1.831   1.979   4.177
20895SOL    HW264460   1.939   1.930   4.271
20896SOL     OW64461   9.319   7.513  13.949
20896SOL    HW164462   9.289   7.428  13.915
20896SOL    HW264463   9.399   7.493  13.998
20897SOL     OW64464  13.990   7.386  13.125
20897SOL    HW164465  13.897   7.401  13.108
20897SOL    HW264466  14.033   7.465  13.093
20898SOL     OW64467   7.982   7.276   3.631
20898SOL    HW164468   8.064   7.276   3.681
20898SOL    HW264469   7.921   7.227   3.685
20899SOL     OW64470  11.335  11.179  12.212
20899SOL    HW164471  11.360  11.177  12.120
20899SOL    HW264472  11.418  11.170  12.260
20900SOL     OW64473   1.415  14.300  10.172
20900SOL    HW164474   1.417  14.278  10.079
20900SOL    HW264475   1.323  14.323  10.189
20901SOL     OW64476   4.702   0.961   3.801
20901SOL    HW164477   4.728   1.049   3.830
20901SOL    HW264478   4.696   0.910   3.881
20902SOL     OW64479   4.136   2.932   7.415
20902SOL    HW164480   4.178   3.015   7.434
20902SOL    HW264481   4.207   2.877   7.380
20903SOL     OW64482   3.951   6.296  10.923
20903SOL    HW164483   4.041   6.305  10.892
20903SOL    HW264484   3.918   6.218  10.878
20904SOL     OW64485  11.486   3.260  12.908
20904SOL    HW164486  11.441   3.344  12.908
20904SOL    HW264487  11.485   3.232  12.816
20905SOL     OW64488   1.142   2.529   5.814
20905SOL    HW164489   1.055   2.512   5.779
20905SOL    HW264490   1.195   2.550   5.737
20906SOL     OW64491  12.254   0.668  12.942
20906SOL    HW164492  12.159   0.665  12.935
20906SOL    HW264493  12.275   0.762  12.948
20907SOL     OW64494   0.274   5.815   5.389
20907SOL    HW164495   0.325   5.753   5.336
20907SOL    HW264496   0.328   5.894   5.392
20908SOL     OW64497  10.619   0.144  12.698
20908SOL    HW164498  10.706   0.109  12.677
20908SOL    HW264499  10.624   0.236  12.670
20909SOL     OW64500  10.308   9.513  12.152
20909SOL    HW164501  10.330   9.541  12.241
20909SOL    HW264502  10.231   9.566  12.129
20910SOL     OW64503   2.325  14.327   8.947
20910SOL    HW164504   2.380  14.276   8.887
20910SOL    HW264505   2.246  14.274   8.958
20911SOL     OW64506  10.751   9.471   6.733
20911SOL    HW164507  10.723   9.560   6.711
20911SOL    HW264508  10.720   9.417   6.660
20912SOL     OW64509   1.044  11.792   8.074
20912SOL    HW164510   1.084  11.873   8.106
20912SOL    HW264511   1.106  11.760   8.008
20913SOL     OW64512   5.299  11.802   1.423
20913SOL    HW164513   5.339  11.816   1.337
20913SOL    HW264514   5.248  11.881   1.438
20914SOL     OW64515   9.729   5.100   0.918
20914SOL    HW164516   9.660   5.152   0.878
20914SOL    HW264517   9.718   5.013   0.880
20915SOL     OW64518   1.709   7.007   7.970
20915SOL    HW164519   1.689   6.956   8.049
20915SOL    HW264520   1.805   7.011   7.968
20916SOL     OW64521  13.037  13.544   0.151
20916SOL    HW164522  13.032  13.551   0.246
20916SOL    HW264523  13.113  13.489   0.134
20917SOL     OW64524  11.700  13.050  14.005
20917SOL    HW164525  11.714  13.140  13.976
20917SOL    HW264526  11.615  13.052  14.048
20918SOL     OW64527   0.028  11.588   0.605
20918SOL    HW164528  14.831  11.541   0.575
20918SOL    HW264529   0.097  11.522   0.605
20919SOL     OW64530   6.321   0.807   5.044
20919SOL    HW164531   6.354   0.728   5.001
20919SOL    HW264532   6.369   0.878   5.001
20920SOL     OW64533   5.317   1.090  10.271
20920SOL    HW164534   5.291   1.169  10.318
20920SOL    HW264535   5.263   1.021  10.310
20921SOL     OW64536   7.236   0.323  11.551
20921SOL    HW164537   7.192   0.306  11.468
20921SOL    HW264538   7.245   0.418  11.555
20922SOL     OW64539  14.476  12.566   1.808
20922SOL    HW164540  14.386  12.583   1.834
20922SOL    HW264541  14.513  12.652   1.791
20923SOL     OW64542   2.964   4.620   4.298
20923SOL    HW164543   3.036   4.617   4.235
20923SOL    HW264544   3.008   4.633   4.382
20924SOL     OW64545   3.263  11.268  13.953
20924SOL    HW164546   3.190  11.207  13.939
20924SOL    HW264547   3.265  11.322  13.874
20925SOL     OW64548  11.482   7.482   5.025
20925SOL    HW164549  11.396   7.522   5.012
20925SOL    HW264550  11.527   7.539   5.086
20926SOL     OW64551   5.855  13.221   2.372
20926SOL    HW164552   5.905  13.303   2.363
20926SOL    HW264553   5.811  13.230   2.457
20927SOL     OW64554   8.413   3.678   5.440
20927SOL    HW164555   8.409   3.678   5.536
20927SOL    HW264556   8.417   3.585   5.417
20928SOL     OW64557   5.563   3.261  11.142
20928SOL    HW164558   5.556   3.338  11.197
20928SOL    HW264559   5.648   3.223  11.164
20929SOL     OW64560  13.951   3.417   3.385
20929SOL    HW164561  13.917   3.491   3.337
20929SOL    HW264562  13.885   3.399   3.453
20930SOL     OW64563   8.365   0.546   2.171
20930SOL    HW164564   8.392   0.485   2.240
20930SOL    HW264565   8.308   0.495   2.114
20931SOL     OW64566   5.998  12.241  10.278
20931SOL    HW164567   6.089  12.211  10.270
20931SOL    HW264568   5.994  12.284  10.363
20932SOL     OW64569  14.525  14.026  10.544
20932SOL    HW164570  14.528  13.930  10.542
20932SOL    HW264571  14.571  14.053  10.465
20933SOL     OW64572   2.474   4.425  12.134
20933SOL    HW164573   2.489   4.496  12.196
20933SOL    HW264574   2.489   4.465  12.048
20934SOL     OW64575   6.379  10.780   5.467
20934SOL    HW164576   6.413  10.713   5.526
20934SOL    HW264577   6.457  10.826   5.436
20935SOL     OW64578   3.107   7.348   6.279
20935SOL    HW164579   3.113   7.305   6.193
20935SOL    HW264580   3.014   7.344   6.301
20936SOL     OW64581  12.886   0.859   5.742
20936SOL    HW164582  12.900   0.805   5.664
20936SOL    HW264583  12.793   0.882   5.739
20937SOL     OW64584   8.886   2.641  13.442
20937SOL    HW164585   8.878   2.562  13.497
20937SOL    HW264586   8.943   2.614  13.370
20938SOL     OW64587  10.571   5.324   0.660
20938SOL    HW164588  10.594   5.277   0.739
20938SOL    HW264589  10.559   5.256   0.594
20939SOL     OW64590  12.771   3.491  11.686
20939SOL    HW164591  12.754   3.579  11.719
20939SOL    HW264592  12.702   3.437  11.725
20940SOL     OW64593  12.825   4.820   4.838
20940SOL    HW164594  12.886   4.787   4.905
20940SOL    HW264595  12.749   4.761   4.845
20941SOL     OW64596   4.235  11.800  14.367
20941SOL    HW164597   4.252  11.716  14.324
20941SOL    HW264598   4.322  11.835  14.388
20942SOL     OW64599   4.137   8.452   6.559
20942SOL    HW164600   4.204   8.422   6.497
20942SOL    HW264601   4.058   8.402   6.535
20943SOL     OW64602   9.065  14.036   4.464
20943SOL    HW164603   9.085  14.125   4.437
20943SOL    HW264604   9.102  14.028   4.552
20944SOL     OW64605  14.092  12.631   1.491
20944SOL    HW164606  14.172  12.672   1.456
20944SOL    HW264607  14.058  12.694   1.554
20945SOL     OW64608  11.817   8.325   9.535
20945SOL    HW164609  11.723   8.344   9.531
20945SOL    HW264610  11.859   8.411   9.541
20946SOL     OW64611   1.024   0.950   3.935
20946SOL    HW164612   1.087   0.878   3.930
20946SOL    HW264613   1.078   1.029   3.935
20947SOL     OW64614  12.971   7.499   2.090
20947SOL    HW164615  13.019   7.523   2.010
20947SOL    HW264616  12.948   7.407   2.078
20948SOL     OW64617   1.319  14.562  13.623
20948SOL    HW164618   1.407  14.555  13.585
20948SOL    HW264619   1.319  14.500  13.695
20949SOL     OW64620   0.954  12.377   5.540
20949SOL    HW164621   0.934  12.286   5.558
20949SOL    HW264622   1.021  12.401   5.604
20950SOL     OW64623  13.672   0.156   3.204
20950SOL    HW164624  13.719   0.196   3.278
20950SOL    HW264625  13.634   0.076   3.241
20951SOL     OW64626   2.172   2.050   4.790
20951SOL    HW164627   2.232   1.997   4.737
20951SOL    HW264628   2.109   2.084   4.727
20952SOL     OW64629   4.953  11.085  12.016
20952SOL    HW164630   4.878  11.143  12.004
20952SOL    HW264631   4.938  11.044  12.102
20953SOL     OW64632   7.156   8.234   4.936
20953SOL    HW164633   7.143   8.195   5.022
20953SOL    HW264634   7.102   8.181   4.877
20954SOL     OW64635   4.072   8.106   2.501
20954SOL    HW164636   4.078   8.185   2.554
20954SOL    HW264637   4.133   8.121   2.429
20955SOL     OW64638   4.570  11.503  10.055
20955SOL    HW164639   4.516  11.569  10.010
20955SOL    HW264640   4.516  11.473  10.127
20956SOL     OW64641   8.570   8.050  11.908
20956SOL    HW164642   8.548   8.016  11.821
20956SOL    HW264643   8.650   8.004  11.931
20957SOL     OW64644   5.676   2.838  12.683
20957SOL    HW164645   5.701   2.860  12.593
20957SOL    HW264646   5.605   2.900  12.703
20958SOL     OW64647   0.789   9.319  13.988
20958SOL    HW164648   0.814   9.411  13.977
20958SOL    HW264649   0.847   9.286  14.056
20959SOL     OW64650  11.988   4.486   5.378
20959SOL    HW164651  12.002   4.528   5.293
20959SOL    HW264652  11.924   4.542   5.423
20960SOL     OW64653   0.017  14.074   4.067
20960SOL    HW164654  14.874  14.160   4.033
20960SOL    HW264655   0.106  14.060   4.034
20961SOL     OW64656   3.255   5.028   2.697
20961SOL    HW164657   3.300   5.101   2.739
20961SOL    HW264658   3.164   5.057   2.690
20962SOL     OW64659   6.608  11.655   3.942
20962SOL    HW164660   6.523  11.659   3.898
20962SOL    HW264661   6.626  11.744   3.970
20963SOL     OW64662  11.330   5.420  12.160
20963SOL    HW164663  11.350   5.338  12.116
20963SOL    HW264664  11.415   5.464  12.169
20964SOL     OW64665   6.450   7.434   6.140
20964SOL    HW164666   6.481   7.496   6.206
20964SOL    HW264667   6.529   7.389   6.110
20965SOL     OW64668   1.746  12.445   4.381
20965SOL    HW164669   1.741  12.528   4.334
20965SOL    HW264670   1.839  12.424   4.383
20966SOL     OW64671  13.436  10.457   8.876
20966SOL    HW164672  13.444  10.420   8.963
20966SOL    HW264673  13.356  10.510   8.880
20967SOL     OW64674   7.364   6.796   3.108
20967SOL    HW164675   7.273   6.815   3.130
20967SOL    HW264676   7.376   6.832   3.020
20968SOL     OW64677   4.600   0.303   4.267
20968SOL    HW164678   4.622   0.228   4.211
20968SOL    HW264679   4.639   0.281   4.352
20969SOL     OW64680  11.851   2.678  13.752
20969SOL    HW164681  11.757   2.669  13.772
20969SOL    HW264682  11.883   2.741  13.816
20970SOL     OW64683   3.977  11.374   9.475
20970SOL    HW164684   3.926  11.327   9.541
20970SOL    HW264685   3.911  11.409   9.415
20971SOL     OW64686  11.665   4.127   3.307
20971SOL    HW164687  11.697   4.188   3.373
20971SOL    HW264688  11.745   4.096   3.263
20972SOL     OW64689  12.963   6.191  14.774
20972SOL    HW164690  12.958   6.098  14.753
20972SOL    HW264691  13.049   6.218  14.742
20973SOL     OW64692   5.173  11.816  12.775
20973SOL    HW164693   5.159  11.780  12.863
20973SOL    HW264694   5.250  11.769  12.742
20974SOL     OW64695   2.645   9.613  14.417
20974SOL    HW164696   2.739   9.620  14.432
20974SOL    HW264697   2.638   9.562  14.336
20975SOL     OW64698   0.590  14.248   6.531
20975SOL    HW164699   0.564  14.172   6.584
20975SOL    HW264700   0.537  14.320   6.565
20976SOL     OW64701   4.282   0.448   3.931
20976SOL    HW164702   4.206   0.504   3.949
20976SOL    HW264703   4.247   0.376   3.878
20977SOL     OW64704   8.571  10.233   8.397
20977SOL    HW164705   8.661  10.253   8.422
20977SOL    HW264706   8.546  10.160   8.453
20978SOL     OW64707   3.148  11.879   9.191
20978SOL    HW164708   3.224  11.895   9.135
20978SOL    HW264709   3.161  11.935   9.267
20979SOL     OW64710   7.203   3.685   5.404
20979SOL    HW164711   7.172   3.670   5.494
20979SOL    HW264712   7.298   3.692   5.413
20980SOL     OW64713  10.756   6.471   3.509
20980SOL    HW164714  10.744   6.558   3.546
20980SOL    HW264715  10.715   6.412   3.572
20981SOL     OW64716  10.010   2.236  12.673
20981SOL    HW164717   9.927   2.261  12.713
20981SOL    HW264718   9.990   2.227  12.580
20982SOL     OW64719   3.349  10.937   9.824
20982SOL    HW164720   3.323  10.994   9.897
20982SOL    HW264721   3.266  10.916   9.780
20983SOL     OW64722   4.414  14.305   9.726
20983SOL    HW164723   4.389  14.267   9.810
20983SOL    HW264724   4.419  14.399   9.742
20984SOL     OW64725   1.727   6.908   7.724
20984SOL    HW164726   1.739   6.920   7.818
20984SOL    HW264727   1.633   6.895   7.713
20985SOL     OW64728  13.511   2.975  14.000
20985SOL    HW164729  13.543   2.893  13.961
20985SOL    HW264730  13.562   2.985  14.080
20986SOL     OW64731  12.473   2.539   6.517
20986SOL    HW164732  12.453   2.479   6.589
20986SOL    HW264733  12.427   2.620   6.541
20987SOL     OW64734  13.187   4.706   7.173
20987SOL    HW164735  13.181   4.801   7.177
20987SOL    HW264736  13.120   4.680   7.110
20988SOL     OW64737  10.062  11.892  11.001
20988SOL    HW164738  10.087  11.834  11.073
20988SOL    HW264739  10.133  11.882  10.938
20989SOL     OW64740   4.919   5.784   4.137
20989SOL    HW164741   4.922   5.832   4.220
20989SOL    HW264742   5.011   5.770   4.115
20990SOL     OW64743   3.528   2.463   3.121
20990SOL    HW164744   3.498   2.481   3.032
20990SOL    HW264745   3.624   2.462   3.115
20991SOL     OW64746  12.249  10.787   1.494
20991SOL    HW164747  12.268  10.798   1.588
20991SOL    HW264748  12.154  10.790   1.489
20992SOL     OW64749  13.810   2.405  10.740
20992SOL    HW164750  13.773   2.341  10.801
20992SOL    HW264751  13.734   2.454  10.708
20993SOL     OW64752  12.504   2.738   4.984
20993SOL    HW164753  12.550   2.803   4.931
20993SOL    HW264754  12.570   2.707   5.046
20994SOL     OW64755  13.553   2.323   5.209
20994SOL    HW164756  13.576   2.386   5.141
20994SOL    HW264757  13.573   2.238   5.171
20995SOL     OW64758  12.700   6.331  12.114
20995SOL    HW164759  12.645   6.269  12.162
20995SOL    HW264760  12.764   6.276  12.068
20996SOL     OW64761   9.595   1.282  10.779
20996SOL    HW164762   9.655   1.245  10.715
20996SOL    HW264763   9.603   1.226  10.856
20997SOL     OW64764   5.047   5.700   5.557
20997SOL    HW164765   5.047   5.637   5.628
20997SOL    HW264766   4.957   5.733   5.554
20998SOL     OW64767  12.109   0.237   0.137
20998SOL    HW164768  12.047   0.164   0.135
20998SOL    HW264769  12.142   0.242   0.048
20999SOL     OW64770   2.929   4.635  13.660
20999SOL    HW164771   2.890   4.557  13.700
20999SOL    HW264772   2.993   4.600  13.598
21000SOL     OW64773   6.240   5.641   1.208
21000SOL    HW164774   6.283   5.601   1.131
21000SOL    HW264775   6.147   5.642   1.185
21001SOL     OW64776   6.751  11.245   8.265
21001SOL    HW164777   6.693  11.224   8.338
21001SOL    HW264778   6.831  11.277   8.306
21002SOL     OW64779   8.207  12.252   7.675
21002SOL    HW164780   8.205  12.289   7.763
21002SOL    HW264781   8.134  12.189   7.673
21003SOL     OW64782   6.845   0.386  12.827
21003SOL    HW164783   6.786   0.358  12.756
21003SOL    HW264784   6.887   0.465  12.793
21004SOL     OW64785   7.851   0.355  13.424
21004SOL    HW164786   7.880   0.446  13.422
21004SOL    HW264787   7.824   0.336  13.334
21005SOL     OW64788   2.370  10.329   2.268
21005SOL    HW164789   2.354  10.263   2.334
21005SOL    HW264790   2.465  10.331   2.258
21006SOL     OW64791   5.959   2.025   6.501
21006SOL    HW164792   6.007   2.033   6.419
21006SOL    HW264793   5.998   1.949   6.545
21007SOL     OW64794   9.938   8.880  11.202
21007SOL    HW164795   9.918   8.974  11.204
21007SOL    HW264796   9.865   8.841  11.153
21008SOL     OW64797   3.748   2.339   0.981
21008SOL    HW164798   3.663   2.300   0.999
21008SOL    HW264799   3.755   2.411   1.044
21009SOL     OW64800   6.229   1.434   0.220
21009SOL    HW164801   6.140   1.418   0.251
21009SOL    HW264802   6.248   1.524   0.247
21010SOL     OW64803   9.855  10.768  13.842
21010SOL    HW164804   9.874  10.716  13.919
21010SOL    HW264805   9.770  10.736  13.811
21011SOL     OW64806  11.570   5.625   9.967
21011SOL    HW164807  11.524   5.692  10.017
21011SOL    HW264808  11.506   5.592   9.905
21012SOL     OW64809   8.048  12.553   1.704
21012SOL    HW164810   8.071  12.585   1.617
21012SOL    HW264811   8.096  12.471   1.714
21013SOL     OW64812   0.178   3.656   9.717
21013SOL    HW164813   0.144   3.742   9.696
21013SOL    HW264814   0.239   3.671   9.790
21014SOL     OW64815   7.351   3.852   5.768
21014SOL    HW164816   7.372   3.879   5.857
21014SOL    HW264817   7.306   3.928   5.730
21015SOL     OW64818   6.634   8.896   9.311
21015SOL    HW164819   6.615   8.920   9.402
21015SOL    HW264820   6.713   8.945   9.290
21016SOL     OW64821  14.300   1.774   1.270
21016SOL    HW164822  14.262   1.744   1.187
21016SOL    HW264823  14.257   1.722   1.337
21017SOL     OW64824  11.190   5.151   0.529
21017SOL    HW164825  11.197   5.236   0.485
21017SOL    HW264826  11.251   5.156   0.602
21018SOL     OW64827   6.352  12.508   5.727
21018SOL    HW164828   6.423  12.462   5.681
21018SOL    HW264829   6.389  12.530   5.812
21019SOL     OW64830  13.926  10.792  10.522
21019SOL    HW164831  13.914  10.847  10.599
21019SOL    HW264832  13.844  10.743  10.515
21020SOL     OW64833   4.520  14.356   3.961
21020SOL    HW164834   4.507  14.322   3.873
21020SOL    HW264835   4.565  14.439   3.949
21021SOL     OW64836   5.824  14.466   7.366
21021SOL    HW164837   5.857  14.548   7.402
21021SOL    HW264838   5.876  14.452   7.287
21022SOL     OW64839   6.012  11.332  11.041
21022SOL    HW164840   6.000  11.289  10.956
21022SOL    HW264841   6.062  11.270  11.093
21023SOL     OW64842   3.581   7.805   2.381
21023SOL    HW164843   3.670   7.837   2.390
21023SOL    HW264844   3.552   7.788   2.471
21024SOL     OW64845   4.526   0.871  13.363
21024SOL    HW164846   4.530   0.812  13.438
21024SOL    HW264847   4.439   0.911  13.369
21025SOL     OW64848  10.298   2.766   3.902
21025SOL    HW164849  10.279   2.735   3.991
21025SOL    HW264850  10.391   2.787   3.903
21026SOL     OW64851   9.233   1.972  12.329
21026SOL    HW164852   9.149   1.960  12.374
21026SOL    HW264853   9.298   1.976  12.400
21027SOL     OW64854  10.677   5.110  11.702
21027SOL    HW164855  10.742   5.174  11.676
21027SOL    HW264856  10.594   5.146  11.671
21028SOL     OW64857   6.040   6.774   9.264
21028SOL    HW164858   5.965   6.785   9.205
21028SOL    HW264859   6.072   6.686   9.246
21029SOL     OW64860   8.043  13.595  12.470
21029SOL    HW164861   7.959  13.640  12.477
21029SOL    HW264862   8.022  13.509  12.435
21030SOL     OW64863   3.828   4.649  13.972
21030SOL    HW164864   3.792   4.734  13.999
21030SOL    HW264865   3.793   4.587  14.035
21031SOL     OW64866   0.993   2.311   8.189
21031SOL    HW164867   1.039   2.341   8.111
21031SOL    HW264868   0.902   2.338   8.176
21032SOL     OW64869   9.254   2.268  10.453
21032SOL    HW164870   9.220   2.354  10.479
21032SOL    HW264871   9.178   2.210  10.456
21033SOL     OW64872   9.697   2.749   7.998
21033SOL    HW164873   9.780   2.729   7.956
21033SOL    HW264874   9.650   2.803   7.934
21034SOL     OW64875   4.500   3.549   3.023
21034SOL    HW164876   4.442   3.608   3.071
21034SOL    HW264877   4.442   3.493   2.972
21035SOL     OW64878  11.503  10.539   9.289
21035SOL    HW164879  11.504  10.556   9.383
21035SOL    HW264880  11.453  10.612   9.252
21036SOL     OW64881   4.531  10.573   6.598
21036SOL    HW164882   4.531  10.535   6.686
21036SOL    HW264883   4.525  10.667   6.613
21037SOL     OW64884   2.594   0.458   0.411
21037SOL    HW164885   2.689   0.462   0.420
21037SOL    HW264886   2.563   0.532   0.464
21038SOL     OW64887   8.233   6.348   3.899
21038SOL    HW164888   8.293   6.306   3.837
21038SOL    HW264889   8.159   6.288   3.906
21039SOL     OW64890  14.617   7.637   5.449
21039SOL    HW164891  14.531   7.611   5.416
21039SOL    HW264892  14.663   7.671   5.373
21040SOL     OW64893   7.538   2.523   3.361
21040SOL    HW164894   7.623   2.536   3.319
21040SOL    HW264895   7.495   2.609   3.356
21041SOL     OW64896  11.493   6.352  13.404
21041SOL    HW164897  11.485   6.425  13.466
21041SOL    HW264898  11.587   6.348  13.383
21042SOL     OW64899  12.504   0.794  13.461
21042SOL    HW164900  12.416   0.769  13.489
21042SOL    HW264901  12.513   0.756  13.374
21043SOL     OW64902  10.887   3.104   6.202
21043SOL    HW164903  10.968   3.079   6.157
21043SOL    HW264904  10.829   3.029   6.190
21044SOL     OW64905   4.829   2.272   7.025
21044SOL    HW164906   4.817   2.179   7.004
21044SOL    HW264907   4.821   2.317   6.941
21045SOL     OW64908   9.785   0.496   1.579
21045SOL    HW164909   9.874   0.506   1.545
21045SOL    HW264910   9.759   0.583   1.607
21046SOL     OW64911   1.381  12.019  13.203
21046SOL    HW164912   1.337  11.935  13.188
21046SOL    HW264913   1.468  11.994  13.236
21047SOL     OW64914   8.676  13.440  12.470
21047SOL    HW164915   8.618  13.439  12.394
21047SOL    HW264916   8.631  13.496  12.533
21048SOL     OW64917   1.799   1.794   0.624
21048SOL    HW164918   1.875   1.806   0.680
21048SOL    HW264919   1.806   1.863   0.558
21049SOL     OW64920  10.125  11.841   3.612
21049SOL    HW164921  10.199  11.781   3.603
21049SOL    HW264922  10.080  11.812   3.692
21050SOL     OW64923   7.278   0.334  11.886
21050SOL    HW164924   7.235   0.398  11.829
21050SOL    HW264925   7.361   0.375  11.910
21051SOL     OW64926  10.443   7.629   5.099
21051SOL    HW164927  10.445   7.537   5.076
21051SOL    HW264928  10.533   7.659   5.087
21052SOL     OW64929   0.063  12.214  10.024
21052SOL    HW164930   0.041  12.307  10.016
21052SOL    HW264931   0.150  12.214  10.065
21053SOL     OW64932   4.193   9.923  13.807
21053SOL    HW164933   4.234   9.988  13.865
21053SOL    HW264934   4.227   9.839  13.838
21054SOL     OW64935   7.982   5.206  10.330
21054SOL    HW164936   7.900   5.224  10.285
21054SOL    HW264937   8.047   5.258  10.283
21055SOL     OW64938   6.482   0.395   2.649
21055SOL    HW164939   6.408   0.336   2.638
21055SOL    HW264940   6.551   0.359   2.594
21056SOL     OW64941   9.046   4.135   6.891
21056SOL    HW164942   9.021   4.078   6.963
21056SOL    HW264943   9.035   4.080   6.813
21057SOL     OW64944  11.751   8.108  10.257
21057SOL    HW164945  11.842   8.079  10.251
21057SOL    HW264946  11.701   8.040  10.213
21058SOL     OW64947  12.746   1.204  10.459
21058SOL    HW164948  12.660   1.164  10.475
21058SOL    HW264949  12.751   1.212  10.364
21059SOL     OW64950   9.516  11.986   1.981
21059SOL    HW164951   9.542  11.902   2.018
21059SOL    HW264952   9.536  12.050   2.049
21060SOL     OW64953   9.774   3.980  13.466
21060SOL    HW164954   9.766   3.933  13.383
21060SOL    HW264955   9.770   3.912  13.533
21061SOL     OW64956   2.568  13.928  13.445
21061SOL    HW164957   2.480  13.944  13.409
21061SOL    HW264958   2.624  13.990  13.398
21062SOL     OW64959  11.138  11.894  14.744
21062SOL    HW164960  11.165  11.959  14.679
21062SOL    HW264961  11.093  11.827  14.694
21063SOL     OW64962  10.014  10.691  14.343
21063SOL    HW164963  10.063  10.674  14.423
21063SOL    HW264964   9.963  10.769  14.362
21064SOL     OW64965   1.342   9.850  12.959
21064SOL    HW164966   1.255   9.882  12.981
21064SOL    HW264967   1.383   9.830  13.044
21065SOL     OW64968   1.221   0.088   3.783
21065SOL    HW164969   1.283   0.038   3.836
21065SOL    HW264970   1.183   0.151   3.843
21066SOL     OW64971   6.952   7.702  10.352
21066SOL    HW164972   6.918   7.736  10.435
21066SOL    HW264973   7.047   7.705  10.362
21067SOL     OW64974   4.241   8.610   3.896
21067SOL    HW164975   4.220   8.552   3.969
21067SOL    HW264976   4.210   8.564   3.818
21068SOL     OW64977   5.316   4.665  10.148
21068SOL    HW164978   5.264   4.649  10.070
21068SOL    HW264979   5.274   4.612  10.216
21069SOL     OW64980   7.164   9.201   4.567
21069SOL    HW164981   7.129   9.129   4.516
21069SOL    HW264982   7.259   9.190   4.562
21070SOL     OW64983   7.695  13.203   7.207
21070SOL    HW164984   7.735  13.146   7.141
21070SOL    HW264985   7.745  13.285   7.202
21071SOL     OW64986  14.284   1.194  12.175
21071SOL    HW164987  14.364   1.223  12.219
21071SOL    HW264988  14.271   1.257  12.105
21072SOL     OW64989  12.979  14.298   5.196
21072SOL    HW164990  13.031  14.360   5.246
21072SOL    HW264991  12.977  14.219   5.250
21073SOL     OW64992   6.353  11.271  13.110
21073SOL    HW164993   6.435  11.305  13.147
21073SOL    HW264994   6.324  11.339  13.049
21074SOL     OW64995   4.095  12.939  14.845
21074SOL    HW164996   4.071  12.969   0.051
21074SOL    HW264997   4.013  12.938  14.797
21075SOL     OW64998   9.347  14.112   0.548
21075SOL    HW164999   9.355  14.026   0.588
21075SOL    HW265000   9.267  14.106   0.495
21076SOL     OW65001   5.315   3.203   1.356
21076SOL    HW165002   5.232   3.245   1.378
21076SOL    HW265003   5.371   3.276   1.327
21077SOL     OW65004   9.956   6.008   1.774
21077SOL    HW165005  10.014   6.081   1.796
21077SOL    HW265006   9.878   6.023   1.827
21078SOL     OW65007   1.030  13.292   5.310
21078SOL    HW165008   1.061  13.270   5.221
21078SOL    HW265009   1.029  13.388   5.312
21079SOL     OW65010   3.392   1.983   0.246
21079SOL    HW165011   3.304   1.969   0.282
21079SOL    HW265012   3.409   1.905   0.194
21080SOL     OW65013  11.070  10.045   8.507
21080SOL    HW165014  10.995  10.084   8.462
21080SOL    HW265015  11.055   9.950   8.501
21081SOL     OW65016   2.452   0.239   6.934
21081SOL    HW165017   2.411   0.322   6.908
21081SOL    HW265018   2.391   0.201   6.997
21082SOL     OW65019   6.409   6.648   6.971
21082SOL    HW165020   6.474   6.649   7.041
21082SOL    HW265021   6.338   6.593   7.005
21083SOL     OW65022  10.780   9.194   3.102
21083SOL    HW165023  10.835   9.259   3.058
21083SOL    HW265024  10.696   9.198   3.056
21084SOL     OW65025  11.106   4.698   7.801
21084SOL    HW165026  11.051   4.688   7.723
21084SOL    HW265027  11.177   4.634   7.788
21085SOL     OW65028   1.578   1.603   6.559
21085SOL    HW165029   1.484   1.599   6.542
21085SOL    HW265030   1.608   1.679   6.510
21086SOL     OW65031  10.793   1.113   2.840
21086SOL    HW165032  10.807   1.055   2.765
21086SOL    HW265033  10.734   1.064   2.898
21087SOL     OW65034   4.656   2.038   0.404
21087SOL    HW165035   4.609   1.981   0.342
21087SOL    HW265036   4.613   2.022   0.488
21088SOL     OW65037  14.854  14.509  13.674
21088SOL    HW165038  14.860  14.473  13.586
21088SOL    HW265039   0.040  14.577  13.677
21089SOL     OW65040  11.691   0.681   0.719
21089SOL    HW165041  11.774   0.633   0.727
21089SOL    HW265042  11.657   0.655   0.633
21090SOL     OW65043   2.452  12.519   7.914
21090SOL    HW165044   2.378  12.508   7.975
21090SOL    HW265045   2.413  12.509   7.827
21091SOL     OW65046  14.638   1.670  12.486
21091SOL    HW165047  14.664   1.613  12.558
21091SOL    HW265048  14.717   1.720  12.465
21092SOL     OW65049   2.399  11.167  13.371
21092SOL    HW165050   2.479  11.176  13.320
21092SOL    HW265051   2.332  11.213  13.321
21093SOL     OW65052   0.534   1.264  14.120
21093SOL    HW165053   0.606   1.228  14.068
21093SOL    HW265054   0.460   1.206  14.103
21094SOL     OW65055   8.579  13.251   2.221
21094SOL    HW165056   8.618  13.301   2.149
21094SOL    HW265057   8.549  13.318   2.283
21095SOL     OW65058   7.003  10.518  14.676
21095SOL    HW165059   7.028  10.525  14.769
21095SOL    HW265060   6.909  10.535  14.675
21096SOL     OW65061  14.463   7.022   3.931
21096SOL    HW165062  14.462   7.116   3.949
21096SOL    HW265063  14.394   6.986   3.987
21097SOL     OW65064  14.210   5.532  12.200
21097SOL    HW165065  14.152   5.457  12.187
21097SOL    HW265066  14.272   5.504  12.267
21098SOL     OW65067   5.722  12.846   2.979
21098SOL    HW165068   5.738  12.921   3.036
21098SOL    HW265069   5.734  12.881   2.890
21099SOL     OW65070   3.201   6.316   3.879
21099SOL    HW165071   3.294   6.339   3.874
21099SOL    HW265072   3.156   6.401   3.878
21100SOL     OW65073   9.392   9.083  10.526
21100SOL    HW165074   9.311   9.133  10.535
21100SOL    HW265075   9.411   9.085  10.432
21101SOL     OW65076   1.328   4.650   9.777
21101SOL    HW165077   1.282   4.734   9.782
21101SOL    HW265078   1.260   4.587   9.752
21102SOL     OW65079   0.747   1.521   1.782
21102SOL    HW165080   0.712   1.602   1.744
21102SOL    HW265081   0.744   1.457   1.711
21103SOL     OW65082   8.741   2.354   4.192
21103SOL    HW165083   8.808   2.409   4.151
21103SOL    HW265084   8.730   2.281   4.132
21104SOL     OW65085   5.401   0.642  11.086
21104SOL    HW165086   5.440   0.725  11.060
21104SOL    HW265087   5.444   0.620  11.169
21105SOL     OW65088  10.120  12.857   8.889
21105SOL    HW165089  10.065  12.845   8.811
21105SOL    HW265090  10.081  12.800   8.955
21106SOL     OW65091   2.291   0.369  11.715
21106SOL    HW165092   2.242   0.307  11.661
21106SOL    HW265093   2.271   0.455  11.676
21107SOL     OW65094  10.241   3.965  13.978
21107SOL    HW165095  10.300   4.038  13.961
21107SOL    HW265096  10.293   3.902  14.027
21108SOL     OW65097   2.767  13.375   4.678
21108SOL    HW165098   2.806  13.344   4.596
21108SOL    HW265099   2.831  13.438   4.712
21109SOL     OW65100   8.322   6.758   4.444
21109SOL    HW165101   8.310   6.819   4.371
21109SOL    HW265102   8.350   6.813   4.517
21110SOL     OW65103  13.087  13.378  10.129
21110SOL    HW165104  13.131  13.462  10.115
21110SOL    HW265105  13.158  13.316  10.141
21111SOL     OW65106  10.009   0.330   3.795
21111SOL    HW165107  10.011   0.260   3.730
21111SOL    HW265108   9.967   0.404   3.750
21112SOL     OW65109   2.667   5.152   4.540
21112SOL    HW165110   2.627   5.088   4.481
21112SOL    HW265111   2.649   5.117   4.628
21113SOL     OW65112   6.228   6.269   3.533
21113SOL    HW165113   6.203   6.229   3.449
21113SOL    HW265114   6.145   6.288   3.576
21114SOL     OW65115   9.246   1.128   3.185
21114SOL    HW165116   9.220   1.212   3.147
21114SOL    HW265117   9.198   1.123   3.267
21115SOL     OW65118  12.067   3.580   5.759
21115SOL    HW165119  12.050   3.664   5.802
21115SOL    HW265120  12.014   3.517   5.808
21116SOL     OW65121   5.363  14.521   6.289
21116SOL    HW165122   5.441  14.466   6.282
21116SOL    HW265123   5.344  14.548   6.199
21117SOL     OW65124  12.543   8.324   8.734
21117SOL    HW165125  12.601   8.396   8.759
21117SOL    HW265126  12.603   8.252   8.713
21118SOL     OW65127  12.372   9.234   2.785
21118SOL    HW165128  12.296   9.292   2.775
21118SOL    HW265129  12.370   9.179   2.708
21119SOL     OW65130  10.525   4.722   1.580
21119SOL    HW165131  10.606   4.721   1.529
21119SOL    HW265132  10.554   4.730   1.671
21120SOL     OW65133   3.980   4.518   0.961
21120SOL    HW165134   4.029   4.561   0.891
21120SOL    HW265135   3.966   4.587   1.026
21121SOL     OW65136  12.898   8.700  12.506
21121SOL    HW165137  12.941   8.724  12.424
21121SOL    HW265138  12.933   8.614  12.528
21122SOL     OW65139  14.829   9.445   1.334
21122SOL    HW165140  14.881   9.365   1.339
21122SOL    HW265141  14.766   9.428   1.264
21123SOL     OW65142   9.043  14.366   5.538
21123SOL    HW165143   9.021  14.453   5.507
21123SOL    HW265144   8.959  14.321   5.548
21124SOL     OW65145   7.277  13.942   2.396
21124SOL    HW165146   7.240  13.910   2.478
21124SOL    HW265147   7.292  13.864   2.343
21125SOL     OW65148  13.273  13.092   9.703
21125SOL    HW165149  13.296  13.150   9.632
21125SOL    HW265150  13.226  13.148   9.766
21126SOL     OW65151  13.779   4.528  11.448
21126SOL    HW165152  13.809   4.478  11.371
21126SOL    HW265153  13.683   4.521  11.445
21127SOL     OW65154  11.762   8.279   3.838
21127SOL    HW165155  11.827   8.300   3.904
21127SOL    HW265156  11.696   8.348   3.846
21128SOL     OW65157  11.238   2.081  14.820
21128SOL    HW165158  11.206   2.012  14.762
21128SOL    HW265159  11.333   2.079  14.811
21129SOL     OW65160   9.308  13.528   0.658
21129SOL    HW165161   9.246  13.600   0.671
21129SOL    HW265162   9.265  13.453   0.698
21130SOL     OW65163   0.581  10.124  14.317
21130SOL    HW165164   0.492  10.091  14.321
21130SOL    HW265165   0.614  10.096  14.231
21131SOL     OW65166   0.312  13.602   7.558
21131SOL    HW165167   0.406  13.594   7.574
21131SOL    HW265168   0.275  13.630   7.642
21132SOL     OW65169  11.507  10.246  11.509
21132SOL    HW165170  11.564  10.183  11.466
21132SOL    HW265171  11.452  10.281  11.439
21133SOL     OW65172  12.919   3.420   4.893
21133SOL    HW165173  12.833   3.381   4.910
21133SOL    HW265174  12.978   3.345   4.884
21134SOL     OW65175   4.295   3.991   0.286
21134SOL    HW165176   4.233   4.027   0.223
21134SOL    HW265177   4.287   3.896   0.277
21135SOL     OW65178  11.916   3.976   6.469
21135SOL    HW165179  11.973   3.976   6.546
21135SOL    HW265180  11.920   3.886   6.436
21136SOL     OW65181  10.188   6.453   6.510
21136SOL    HW165182  10.142   6.536   6.517
21136SOL    HW265183  10.239   6.446   6.591
21137SOL     OW65184   9.320  14.507   2.214
21137SOL    HW165185   9.397  14.450   2.218
21137SOL    HW265186   9.300  14.526   2.306
21138SOL     OW65187  13.021   4.716   7.819
21138SOL    HW165188  13.087   4.657   7.781
21138SOL    HW265189  13.034   4.708   7.913
21139SOL     OW65190   5.434  14.201  14.502
21139SOL    HW165191   5.390  14.215  14.585
21139SOL    HW265192   5.442  14.289  14.464
21140SOL     OW65193  10.933   7.940   9.037
21140SOL    HW165194  10.979   7.930   9.120
21140SOL    HW265195  10.850   7.980   9.061
21141SOL     OW65196  10.267   6.597  14.608
21141SOL    HW165197  10.237   6.682  14.638
21141SOL    HW265198  10.356   6.589  14.644
21142SOL     OW65199   2.403   5.275   7.934
21142SOL    HW165200   2.328   5.312   7.887
21142SOL    HW265201   2.472   5.341   7.925
21143SOL     OW65202   3.382   9.136   2.558
21143SOL    HW165203   3.322   9.198   2.517
21143SOL    HW265204   3.430   9.189   2.622
21144SOL     OW65205   8.167  12.636   1.362
21144SOL    HW165206   8.154  12.710   1.304
21144SOL    HW265207   8.079  12.606   1.384
21145SOL     OW65208  11.405   0.283  13.576
21145SOL    HW165209  11.379   0.204  13.623
21145SOL    HW265210  11.325   0.335  13.571
21146SOL     OW65211   9.835   5.342   7.067
21146SOL    HW165212   9.898   5.271   7.078
21146SOL    HW265213   9.858   5.405   7.136
21147SOL     OW65214   1.842   4.107   6.018
21147SOL    HW165215   1.762   4.072   5.979
21147SOL    HW265216   1.844   4.071   6.106
21148SOL     OW65217  14.300   1.055   3.168
21148SOL    HW165218  14.249   1.036   3.247
21148SOL    HW265219  14.240   1.104   3.112
21149SOL     OW65220   8.881   9.529  11.199
21149SOL    HW165221   8.952   9.466  11.205
21149SOL    HW265222   8.803   9.475  11.183
21150SOL     OW65223  12.148  14.788   2.710
21150SOL    HW165224  12.189  14.875   2.709
21150SOL    HW265225  12.060  14.803   2.676
21151SOL     OW65226   0.567   0.544  10.166
21151SOL    HW165227   0.639   0.590  10.211
21151SOL    HW265228   0.602   0.524  10.080
21152SOL     OW65229  14.700   7.734   7.380
21152SOL    HW165230  14.738   7.773   7.301
21152SOL    HW265231  14.724   7.795   7.450
21153SOL     OW65232  12.816   1.046   8.632
21153SOL    HW165233  12.765   0.989   8.690
21153SOL    HW265234  12.805   1.134   8.669
21154SOL     OW65235  14.115  13.802   7.225
21154SOL    HW165236  14.119  13.894   7.250
21154SOL    HW265237  14.139  13.755   7.305
21155SOL     OW65238   2.977  10.689   0.875
21155SOL    HW165239   2.963  10.667   0.782
21155SOL    HW265240   2.889  10.692   0.912
21156SOL     OW65241   9.442   3.701   5.044
21156SOL    HW165242   9.372   3.740   5.097
21156SOL    HW265243   9.436   3.747   4.960
21157SOL     OW65244   6.232   9.465   8.379
21157SOL    HW165245   6.232   9.551   8.421
21157SOL    HW265246   6.317   9.459   8.336
21158SOL     OW65247   1.001   0.242   5.040
21158SOL    HW165248   1.093   0.269   5.039
21158SOL    HW265249   1.003   0.148   5.022
21159SOL     OW65250   4.077   1.060   8.471
21159SOL    HW165251   4.032   1.044   8.389
21159SOL    HW265252   4.010   1.095   8.529
21160SOL     OW65253  14.876   9.385   4.966
21160SOL    HW165254  14.879   9.454   5.033
21160SOL    HW265255  14.792   9.341   4.980
21161SOL     OW65256   8.405  11.908   6.756
21161SOL    HW165257   8.414  11.813   6.757
21161SOL    HW265258   8.418  11.934   6.847
21162SOL     OW65259   2.737   2.998   3.202
21162SOL    HW165260   2.735   2.984   3.296
21162SOL    HW265261   2.697   3.084   3.189
21163SOL     OW65262   3.164   5.410   1.210
21163SOL    HW165263   3.193   5.379   1.296
21163SOL    HW265264   3.241   5.452   1.171
21164SOL     OW65265  10.044   6.264  12.648
21164SOL    HW165266   9.990   6.188  12.629
21164SOL    HW265267   9.989   6.321  12.702
21165SOL     OW65268  12.023  13.947   5.398
21165SOL    HW165269  12.091  13.993   5.348
21165SOL    HW265270  12.059  13.940   5.486
21166SOL     OW65271   9.977  10.740  11.287
21166SOL    HW165272   9.997  10.721  11.378
21166SOL    HW265273   9.952  10.656  11.250
21167SOL     OW65274   2.006   0.820  12.952
21167SOL    HW165275   1.914   0.846  12.960
21167SOL    HW265276   2.010   0.770  12.871
21168SOL     OW65277   4.002   7.697  12.597
21168SOL    HW165278   3.980   7.695  12.690
21168SOL    HW265279   4.008   7.604  12.571
21169SOL     OW65280   3.405   0.579  11.417
21169SOL    HW165281   3.428   0.637  11.490
21169SOL    HW265282   3.489   0.546  11.386
21170SOL     OW65283   3.742   6.339   4.537
21170SOL    HW165284   3.723   6.252   4.573
21170SOL    HW265285   3.808   6.376   4.596
21171SOL     OW65286   7.827  11.134   9.185
21171SOL    HW165287   7.828  11.096   9.097
21171SOL    HW265288   7.806  11.226   9.171
21172SOL     OW65289   3.134  13.896   4.218
21172SOL    HW165290   3.193  13.953   4.269
21172SOL    HW265291   3.185  13.873   4.140
21173SOL     OW65292   6.259   7.892   4.967
21173SOL    HW165293   6.268   7.982   5.000
21173SOL    HW265294   6.217   7.902   4.882
21174SOL     OW65295   3.842  10.805   7.765
21174SOL    HW165296   3.846  10.889   7.718
21174SOL    HW265297   3.812  10.742   7.700
21175SOL     OW65298   2.057   5.141   7.084
21175SOL    HW165299   1.987   5.086   7.049
21175SOL    HW265300   2.134   5.117   7.033
21176SOL     OW65301  14.687   1.062   4.092
21176SOL    HW165302  14.657   1.116   4.020
21176SOL    HW265303  14.778   1.088   4.107
21177SOL     OW65304  11.687   2.160   5.897
21177SOL    HW165305  11.766   2.202   5.931
21177SOL    HW265306  11.703   2.149   5.804
21178SOL     OW65307   7.241   4.085  12.293
21178SOL    HW165308   7.166   4.059  12.240
21178SOL    HW265309   7.262   4.007  12.344
21179SOL     OW65310  13.418   8.882   7.739
21179SOL    HW165311  13.390   8.973   7.744
21179SOL    HW265312  13.503   8.880   7.782
21180SOL     OW65313  10.544  13.030   5.908
21180SOL    HW165314  10.608  12.983   5.961
21180SOL    HW265315  10.461  13.020   5.955
21181SOL     OW65316   4.374   9.736  13.171
21181SOL    HW165317   4.429   9.706  13.098
21181SOL    HW265318   4.374   9.831  13.162
21182SOL     OW65319   4.489   4.694   0.943
21182SOL    HW165320   4.479   4.609   0.985
21182SOL    HW265321   4.512   4.674   0.852
21183SOL     OW65322   8.517   1.789   4.265
21183SOL    HW165323   8.444   1.810   4.323
21183SOL    HW265324   8.476   1.763   4.182
21184SOL     OW65325   9.688  10.730   0.473
21184SOL    HW165326   9.695  10.773   0.559
21184SOL    HW265327   9.692  10.637   0.493
21185SOL     OW65328   4.810   6.139   5.483
21185SOL    HW165329   4.760   6.197   5.540
21185SOL    HW265330   4.750   6.068   5.461
21186SOL     OW65331   6.162   6.725   8.352
21186SOL    HW165332   6.087   6.751   8.406
21186SOL    HW265333   6.208   6.660   8.405
21187SOL     OW65334   7.129   1.626  11.785
21187SOL    HW165335   7.049   1.678  11.775
21187SOL    HW265336   7.098   1.537  11.800
21188SOL     OW65337   5.866   2.554  14.406
21188SOL    HW165338   5.777   2.578  14.431
21188SOL    HW265339   5.908   2.530  14.489
21189SOL     OW65340  13.431  10.459  12.787
21189SOL    HW165341  13.479  10.426  12.863
21189SOL    HW265342  13.438  10.389  12.722
21190SOL     OW65343   2.447  10.917   6.559
21190SOL    HW165344   2.542  10.916   6.573
21190SOL    HW265345   2.418  10.829   6.583
21191SOL     OW65346   2.133   3.901  12.332
21191SOL    HW165347   2.099   3.824  12.377
21191SOL    HW265348   2.142   3.874  12.240
21192SOL     OW65349  13.252   2.118  10.863
21192SOL    HW165350  13.303   2.044  10.896
21192SOL    HW265351  13.199   2.080  10.792
21193SOL     OW65352   0.584   4.196   1.956
21193SOL    HW165353   0.530   4.267   1.922
21193SOL    HW265354   0.541   4.171   2.038
21194SOL     OW65355  11.353  14.184   2.113
21194SOL    HW165356  11.304  14.225   2.184
21194SOL    HW265357  11.289  14.128   2.069
21195SOL     OW65358   5.225  11.136  11.411
21195SOL    HW165359   5.280  11.208  11.442
21195SOL    HW265360   5.210  11.083  11.489
21196SOL     OW65361  10.888   5.671   8.240
21196SOL    HW165362  10.949   5.659   8.167
21196SOL    HW265363  10.812   5.714   8.200
21197SOL     OW65364  11.727   7.978   5.139
21197SOL    HW165365  11.712   7.885   5.122
21197SOL    HW265366  11.820   7.991   5.121
21198SOL     OW65367  13.303   8.678  13.710
21198SOL    HW165368  13.364   8.694  13.782
21198SOL    HW265369  13.270   8.765  13.687
21199SOL     OW65370   4.217   1.058   3.189
21199SOL    HW165371   4.304   1.098   3.198
21199SOL    HW265372   4.234   0.970   3.156
21200SOL     OW65373   7.309   6.289  12.603
21200SOL    HW165374   7.359   6.293  12.521
21200SOL    HW265375   7.331   6.204  12.640
21201SOL     OW65376  10.637  13.016   9.191
21201SOL    HW165377  10.583  13.045   9.118
21201SOL    HW265378  10.683  12.939   9.157
21202SOL     OW65379   6.138   1.058  13.372
21202SOL    HW165380   6.174   1.129  13.425
21202SOL    HW265381   6.054   1.092  13.339
21203SOL     OW65382   8.212  14.082   5.070
21203SOL    HW165383   8.233  14.026   5.145
21203SOL    HW265384   8.119  14.063   5.052
21204SOL     OW65385   2.801  13.152   7.081
21204SOL    HW165386   2.743  13.161   7.156
21204SOL    HW265387   2.881  13.198   7.107
21205SOL     OW65388   1.252   6.687   0.762
21205SOL    HW165389   1.183   6.667   0.825
21205SOL    HW265390   1.261   6.608   0.709
21206SOL     OW65391  13.823  13.454   0.191
21206SOL    HW165392  13.777  13.454   0.107
21206SOL    HW265393  13.851  13.363   0.204
21207SOL     OW65394  12.462   9.278   0.098
21207SOL    HW165395  12.471   9.282   0.193
21207SOL    HW265396  12.367   9.280   0.083
21208SOL     OW65397   7.425   3.771   1.537
21208SOL    HW165398   7.394   3.823   1.610
21208SOL    HW265399   7.482   3.830   1.487
21209SOL     OW65400   6.328  13.635   9.359
21209SOL    HW165401   6.418  13.602   9.356
21209SOL    HW265402   6.307  13.655   9.268
21210SOL     OW65403   4.944   7.828   9.867
21210SOL    HW165404   4.971   7.738   9.887
21210SOL    HW265405   4.998   7.882   9.925
21211SOL     OW65406   2.961   9.686   0.061
21211SOL    HW165407   3.012   9.745   0.117
21211SOL    HW265408   3.025   9.623   0.028
21212SOL     OW65409  12.982  12.869   9.425
21212SOL    HW165410  13.004  12.875   9.332
21212SOL    HW265411  12.993  12.958   9.458
21213SOL     OW65412   5.839   2.308  10.725
21213SOL    HW165413   5.874   2.240  10.667
21213SOL    HW265414   5.747   2.284  10.736
21214SOL     OW65415   5.323   7.913   2.624
21214SOL    HW165416   5.305   7.883   2.535
21214SOL    HW265417   5.413   7.943   2.622
21215SOL     OW65418  11.711   3.554  10.666
21215SOL    HW165419  11.633   3.571  10.719
21215SOL    HW265420  11.719   3.630  10.609
21216SOL     OW65421   3.363   1.316   7.277
21216SOL    HW165422   3.340   1.229   7.308
21216SOL    HW265423   3.283   1.349   7.236
21217SOL     OW65424   9.424   8.886  13.124
21217SOL    HW165425   9.497   8.874  13.184
21217SOL    HW265426   9.444   8.829  13.050
21218SOL     OW65427   4.318  12.917   6.399
21218SOL    HW165428   4.338  12.860   6.325
21218SOL    HW265429   4.269  12.861   6.460
21219SOL     OW65430  10.041   4.035   1.074
21219SOL    HW165431   9.984   3.973   1.029
21219SOL    HW265432  10.129   4.011   1.046
21220SOL     OW65433   6.654   7.823   7.768
21220SOL    HW165434   6.660   7.899   7.710
21220SOL    HW265435   6.744   7.808   7.798
21221SOL     OW65436  12.624  11.860   5.960
21221SOL    HW165437  12.709  11.903   5.965
21221SOL    HW265438  12.569  11.921   5.912
21222SOL     OW65439   6.591   7.777   4.605
21222SOL    HW165440   6.679   7.770   4.642
21222SOL    HW265441   6.595   7.727   4.524
21223SOL     OW65442   5.322   2.920   5.036
21223SOL    HW165443   5.403   2.920   5.088
21223SOL    HW265444   5.256   2.885   5.096
21224SOL     OW65445   6.606   1.377   0.962
21224SOL    HW165446   6.566   1.389   1.048
21224SOL    HW265447   6.660   1.455   0.949
21225SOL     OW65448   0.487   2.305   6.264
21225SOL    HW165449   0.527   2.372   6.209
21225SOL    HW265450   0.476   2.230   6.206
21226SOL     OW65451   3.566   6.693  14.310
21226SOL    HW165452   3.527   6.773  14.344
21226SOL    HW265453   3.618   6.658  14.383
21227SOL     OW65454   8.110   1.918   8.474
21227SOL    HW165455   8.019   1.931   8.448
21227SOL    HW265456   8.109   1.840   8.530
21228SOL     OW65457  11.348   2.371   2.720
21228SOL    HW165458  11.426   2.428   2.726
21228SOL    HW265459  11.283   2.425   2.676
21229SOL     OW65460   0.692   0.104  10.453
21229SOL    HW165461   0.714   0.138  10.367
21229SOL    HW265462   0.671   0.181  10.505
21230SOL     OW65463   5.171  12.515  12.170
21230SOL    HW165464   5.258  12.514  12.129
21230SOL    HW265465   5.189  12.537  12.262
21231SOL     OW65466   5.733   1.658   8.827
21231SOL    HW165467   5.715   1.653   8.921
21231SOL    HW265468   5.819   1.698   8.821
21232SOL     OW65469  10.081   2.712   9.088
21232SOL    HW165470  10.143   2.773   9.126
21232SOL    HW265471  10.082   2.636   9.146
21233SOL     OW65472   0.901   6.137  14.586
21233SOL    HW165473   0.993   6.110  14.583
21233SOL    HW265474   0.865   6.107  14.502
21234SOL     OW65475  11.827   6.787  10.339
21234SOL    HW165476  11.732   6.779  10.335
21234SOL    HW265477  11.850   6.844  10.266
21235SOL     OW65478   0.486  10.123   4.445
21235SOL    HW165479   0.414  10.154   4.390
21235SOL    HW265480   0.514  10.041   4.405
21236SOL     OW65481  11.660   9.195  14.401
21236SOL    HW165482  11.613   9.169  14.480
21236SOL    HW265483  11.665   9.116  14.348
21237SOL     OW65484   3.979   7.350   3.146
21237SOL    HW165485   4.040   7.292   3.100
21237SOL    HW265486   4.033   7.396   3.210
21238SOL     OW65487   9.406   5.385  11.528
21238SOL    HW165488   9.432   5.450  11.462
21238SOL    HW265489   9.329   5.424  11.570
21239SOL     OW65490  10.042   7.485  13.191
21239SOL    HW165491  10.112   7.421  13.178
21239SOL    HW265492  10.086   7.562  13.226
21240SOL     OW65493   7.919   8.270   4.790
21240SOL    HW165494   7.855   8.329   4.830
21240SOL    HW265495   8.003   8.315   4.801
21241SOL     OW65496   0.482  13.436   6.823
21241SOL    HW165497   0.423  13.507   6.798
21241SOL    HW265498   0.550  13.437   6.756
21242SOL     OW65499   3.289   6.399   0.116
21242SOL    HW165500   3.254   6.386   0.204
21242SOL    HW265501   3.266   6.319   0.069
21243SOL     OW65502   0.429   6.716  11.695
21243SOL    HW165503   0.518   6.740  11.667
21243SOL    HW265504   0.425   6.743  11.787
21244SOL     OW65505   5.115  13.770   8.114
21244SOL    HW165506   5.051  13.805   8.052
21244SOL    HW265507   5.081  13.683   8.136
21245SOL     OW65508   1.767   2.984   2.772
21245SOL    HW165509   1.740   2.896   2.797
21245SOL    HW265510   1.861   2.986   2.785
21246SOL     OW65511  13.356  12.533   2.230
21246SOL    HW165512  13.423  12.471   2.260
21246SOL    HW265513  13.275  12.482   2.230
21247SOL     OW65514  14.138   2.745   0.634
21247SOL    HW165515  14.096   2.726   0.550
21247SOL    HW265516  14.195   2.670   0.650
21248SOL     OW65517  12.160   2.283   6.542
21248SOL    HW165518  12.180   2.258   6.452
21248SOL    HW265519  12.065   2.272   6.549
21249SOL     OW65520   5.101   9.144   2.591
21249SOL    HW165521   5.164   9.093   2.641
21249SOL    HW265522   5.129   9.235   2.603
21250SOL     OW65523   5.721   6.331   8.686
21250SOL    HW165524   5.800   6.292   8.723
21250SOL    HW265525   5.732   6.322   8.591
21251SOL     OW65526   4.223   9.513   3.336
21251SOL    HW165527   4.172   9.530   3.257
21251SOL    HW265528   4.313   9.504   3.306
21252SOL     OW65529   9.335   5.490   8.514
21252SOL    HW165530   9.282   5.565   8.542
21252SOL    HW265531   9.273   5.417   8.511
21253SOL     OW65532  13.774   6.755   0.734
21253SOL    HW165533  13.759   6.667   0.770
21253SOL    HW265534  13.753   6.746   0.641
21254SOL     OW65535  11.490   9.637   4.156
21254SOL    HW165536  11.427   9.703   4.185
21254SOL    HW265537  11.571   9.685   4.142
21255SOL     OW65538  11.560   6.115   1.858
21255SOL    HW165539  11.473   6.154   1.858
21255SOL    HW265540  11.545   6.022   1.838
21256SOL     OW65541   1.911   1.137  13.553
21256SOL    HW165542   1.935   1.048  13.579
21256SOL    HW265543   1.819   1.144  13.576
21257SOL     OW65544  13.404  13.603   4.485
21257SOL    HW165545  13.352  13.534   4.444
21257SOL    HW265546  13.340  13.656   4.532
21258SOL     OW65547  10.408   4.895   9.898
21258SOL    HW165548  10.491   4.942   9.887
21258SOL    HW265549  10.344   4.949   9.853
21259SOL     OW65550  12.296  11.794  13.335
21259SOL    HW165551  12.270  11.770  13.424
21259SOL    HW265552  12.225  11.850  13.304
21260SOL     OW65553   8.856   0.928   1.035
21260SOL    HW165554   8.810   0.932   1.119
21260SOL    HW265555   8.786   0.921   0.970
21261SOL     OW65556  13.193  13.435   7.790
21261SOL    HW165557  13.174  13.469   7.877
21261SOL    HW265558  13.128  13.366   7.776
21262SOL     OW65559   3.425  10.718   5.826
21262SOL    HW165560   3.514  10.718   5.792
21262SOL    HW265561   3.401  10.626   5.832
21263SOL     OW65562  12.982  14.692   3.013
21263SOL    HW165563  12.909  14.630   3.004
21263SOL    HW265564  13.051  14.642   3.057
21264SOL     OW65565   5.607   0.519  12.593
21264SOL    HW165566   5.520   0.529  12.632
21264SOL    HW265567   5.666   0.517  12.668
21265SOL     OW65568   4.403   2.561   9.563
21265SOL    HW165569   4.333   2.497   9.555
21265SOL    HW265570   4.365   2.630   9.617
21266SOL     OW65571  12.597   8.296   4.980
21266SOL    HW165572  12.623   8.378   4.937
21266SOL    HW265573  12.618   8.228   4.916
21267SOL     OW65574   8.214  13.592   4.124
21267SOL    HW165575   8.295  13.566   4.080
21267SOL    HW265576   8.168  13.647   4.061
21268SOL     OW65577   0.280   3.850  11.431
21268SOL    HW165578   0.185   3.855  11.422
21268SOL    HW265579   0.299   3.898  11.511
21269SOL     OW65580   4.823   9.268   9.680
21269SOL    HW165581   4.871   9.193   9.716
21269SOL    HW265582   4.815   9.249   9.587
21270SOL     OW65583  13.484  13.011   1.165
21270SOL    HW165584  13.541  12.993   1.240
21270SOL    HW265585  13.518  12.957   1.094
21271SOL     OW65586  14.867   6.655   1.566
21271SOL    HW165587  14.824   6.685   1.647
21271SOL    HW265588  14.801   6.600   1.523
21272SOL     OW65589   4.786   6.873   0.299
21272SOL    HW165590   4.720   6.859   0.231
21272SOL    HW265591   4.804   6.785   0.332
21273SOL     OW65592   3.531   0.881  10.832
21273SOL    HW165593   3.524   0.794  10.792
21273SOL    HW265594   3.616   0.914  10.805
21274SOL     OW65595  13.880   3.048  10.167
21274SOL    HW165596  13.885   2.987  10.094
21274SOL    HW265597  13.955   3.107  10.154
21275SOL     OW65598   0.913  10.842   7.633
21275SOL    HW165599   0.961  10.814   7.711
21275SOL    HW265600   0.870  10.923   7.660
21276SOL     OW65601  12.159   3.387   6.389
21276SOL    HW165602  12.216   3.332   6.334
21276SOL    HW265603  12.219   3.433   6.448
21277SOL     OW65604   4.962   9.513  11.554
21277SOL    HW165605   4.961   9.435  11.609
21277SOL    HW265606   5.046   9.555  11.573
21278SOL     OW65607  11.484  11.657   1.903
21278SOL    HW165608  11.437  11.665   1.986
21278SOL    HW265609  11.546  11.729   1.903
21279SOL     OW65610  12.224   6.259   3.060
21279SOL    HW165611  12.309   6.238   3.099
21279SOL    HW265612  12.160   6.223   3.121
21280SOL     OW65613  11.009   3.546   8.902
21280SOL    HW165614  11.051   3.590   8.976
21280SOL    HW265615  10.951   3.612   8.864
21281SOL     OW65616   9.395   8.035   7.204
21281SOL    HW165617   9.347   8.105   7.250
21281SOL    HW265618   9.477   8.027   7.253
21282SOL     OW65619   5.252   2.247  10.715
21282SOL    HW165620   5.188   2.176  10.724
21282SOL    HW265621   5.327   2.206  10.672
21283SOL     OW65622   6.799   2.577  12.609
21283SOL    HW165623   6.729   2.604  12.550
21283SOL    HW265624   6.814   2.652  12.666
21284SOL     OW65625  12.207  10.247   8.450
21284SOL    HW165626  12.223  10.159   8.483
21284SOL    HW265627  12.215  10.303   8.527
21285SOL     OW65628   9.736   7.074  12.504
21285SOL    HW165629   9.718   7.167  12.496
21285SOL    HW265630   9.827   7.070  12.535
21286SOL     OW65631  14.076  13.835   9.087
21286SOL    HW165632  14.036  13.891   9.020
21286SOL    HW265633  14.170  13.840   9.069
21287SOL     OW65634   3.273  13.741   3.561
21287SOL    HW165635   3.343  13.799   3.531
21287SOL    HW265636   3.291  13.657   3.519
21288SOL     OW65637   3.179  12.754   3.592
21288SOL    HW165638   3.273  12.743   3.577
21288SOL    HW265639   3.138  12.713   3.516
21289SOL     OW65640   3.756   0.876   8.794
21289SOL    HW165641   3.695   0.874   8.720
21289SOL    HW265642   3.753   0.788   8.831
21290SOL     OW65643   8.617  14.299   9.360
21290SOL    HW165644   8.638  14.318   9.269
21290SOL    HW265645   8.572  14.378   9.391
21291SOL     OW65646   4.602   2.947  14.199
21291SOL    HW165647   4.535   2.969  14.264
21291SOL    HW265648   4.615   2.852  14.210
21292SOL     OW65649   2.511   7.291   0.586
21292SOL    HW165650   2.428   7.267   0.625
21292SOL    HW265651   2.530   7.379   0.621
21293SOL     OW65652  10.621  13.605  12.578
21293SOL    HW165653  10.712  13.573  12.577
21293SOL    HW265654  10.630  13.700  12.574
21294SOL     OW65655   1.916   5.017   0.947
21294SOL    HW165656   1.870   4.943   0.985
21294SOL    HW265657   1.989   4.978   0.898
21295SOL     OW65658  12.193   3.949   7.713
21295SOL    HW165659  12.227   3.903   7.790
21295SOL    HW265660  12.148   3.882   7.663
21296SOL     OW65661   0.306   9.098  12.098
21296SOL    HW165662   0.230   9.091  12.040
21296SOL    HW265663   0.335   9.008  12.111
21297SOL     OW65664   0.364   5.445  13.894
21297SOL    HW165665   0.411   5.525  13.872
21297SOL    HW265666   0.272   5.466  13.879
21298SOL     OW65667   6.422  11.756   4.677
21298SOL    HW165668   6.461  11.829   4.628
21298SOL    HW265669   6.333  11.785   4.697
21299SOL     OW65670   0.682   4.870  13.007
21299SOL    HW165671   0.646   4.903  13.090
21299SOL    HW265672   0.710   4.949  12.960
21300SOL     OW65673  14.706  10.950  12.741
21300SOL    HW165674  14.786  10.908  12.710
21300SOL    HW265675  14.638  10.884  12.726
21301SOL     OW65676  13.777  10.907  11.745
21301SOL    HW165677  13.788  10.993  11.785
21301SOL    HW265678  13.766  10.925  11.652
21302SOL     OW65679  12.190   3.659  14.670
21302SOL    HW165680  12.201   3.572  14.631
21302SOL    HW265681  12.151   3.712  14.600
21303SOL     OW65682  13.885  11.089   7.463
21303SOL    HW165683  13.807  11.036   7.478
21303SOL    HW265684  13.957  11.034   7.495
21304SOL     OW65685  13.348   2.691   7.984
21304SOL    HW165686  13.439   2.677   7.958
21304SOL    HW265687  13.344   2.783   8.009
21305SOL     OW65688  12.996  12.298  13.434
21305SOL    HW165689  12.930  12.317  13.367
21305SOL    HW265690  13.080  12.309  13.389
21306SOL     OW65691  12.299  10.880   4.374
21306SOL    HW165692  12.321  10.940   4.303
21306SOL    HW265693  12.209  10.854   4.356
21307SOL     OW65694  11.784   1.032   5.128
21307SOL    HW165695  11.814   0.954   5.081
21307SOL    HW265696  11.858   1.057   5.183
21308SOL     OW65697  12.576  13.868  14.458
21308SOL    HW165698  12.565  13.945  14.513
21308SOL    HW265699  12.494  13.861  14.409
21309SOL     OW65700   5.318  13.513  14.737
21309SOL    HW165701   5.343  13.565  14.660
21309SOL    HW265702   5.269  13.573  14.792
21310SOL     OW65703  10.391   1.715   3.999
21310SOL    HW165704  10.459   1.700   3.933
21310SOL    HW265705  10.423   1.667   4.076
21311SOL     OW65706   5.412   6.552   7.488
21311SOL    HW165707   5.450   6.464   7.484
21311SOL    HW265708   5.344   6.552   7.420
21312SOL     OW65709   2.203   3.190   0.349
21312SOL    HW165710   2.293   3.216   0.369
21312SOL    HW265711   2.154   3.211   0.428
21313SOL     OW65712  13.036  13.467   3.981
21313SOL    HW165713  12.992  13.544   4.017
21313SOL    HW265714  12.983  13.393   4.011
21314SOL     OW65715   3.594   7.855   6.598
21314SOL    HW165716   3.668   7.892   6.647
21314SOL    HW265717   3.555   7.792   6.659
21315SOL     OW65718   1.634   6.328   0.728
21315SOL    HW165719   1.676   6.252   0.689
21315SOL    HW265720   1.619   6.388   0.655
21316SOL     OW65721   0.220  10.273  10.725
21316SOL    HW165722   0.287  10.213  10.691
21316SOL    HW265723   0.201  10.331  10.652
21317SOL     OW65724  10.616  14.531   7.603
21317SOL    HW165725  10.645  14.452   7.558
21317SOL    HW265726  10.598  14.502   7.692
21318SOL     OW65727   4.541   5.423   5.411
21318SOL    HW165728   4.619   5.414   5.356
21318SOL    HW265729   4.486   5.349   5.386
21319SOL     OW65730   5.220   6.814   8.950
21319SOL    HW165731   5.160   6.872   8.902
21319SOL    HW265732   5.173   6.731   8.957
21320SOL     OW65733  14.501  13.172   6.002
21320SOL    HW165734  14.430  13.221   6.043
21320SOL    HW265735  14.580  13.198   6.051
21321SOL     OW65736   0.462  10.447   1.370
21321SOL    HW165737   0.531  10.458   1.435
21321SOL    HW265738   0.474  10.519   1.309
21322SOL     OW65739   1.834   7.284   6.201
21322SOL    HW165740   1.739   7.270   6.204
21322SOL    HW265741   1.864   7.224   6.133
21323SOL     OW65742  11.187   3.420  10.603
21323SOL    HW165743  11.181   3.384  10.514
21323SOL    HW265744  11.166   3.513  10.593
21324SOL     OW65745   7.673  12.223  11.608
21324SOL    HW165746   7.588  12.194  11.640
21324SOL    HW265747   7.680  12.184  11.521
21325SOL     OW65748   9.416   2.207  13.851
21325SOL    HW165749   9.402   2.213  13.757
21325SOL    HW265750   9.330   2.218  13.890
21326SOL     OW65751   2.980   8.605   2.784
21326SOL    HW165752   2.891   8.628   2.812
21326SOL    HW265753   2.981   8.510   2.784
21327SOL     OW65754   7.061   7.524   9.052
21327SOL    HW165755   7.108   7.453   9.095
21327SOL    HW265756   7.013   7.481   8.981
21328SOL     OW65757   3.701   2.650   2.826
21328SOL    HW165758   3.767   2.601   2.777
21328SOL    HW265759   3.741   2.664   2.912
21329SOL     OW65760   2.993  14.045   9.426
21329SOL    HW165761   3.006  14.052   9.520
21329SOL    HW265762   2.928  14.112   9.404
21330SOL     OW65763   4.497   6.053   0.098
21330SOL    HW165764   4.590   6.072   0.088
21330SOL    HW265765   4.475   6.001   0.020
21331SOL     OW65766  11.985   2.835   1.881
21331SOL    HW165767  12.034   2.818   1.801
21331SOL    HW265768  12.052   2.839   1.950
21332SOL     OW65769  10.181   4.542   6.065
21332SOL    HW165770  10.258   4.596   6.047
21332SOL    HW265771  10.131   4.543   5.983
21333SOL     OW65772  10.780   1.973  13.074
21333SOL    HW165773  10.832   1.961  13.153
21333SOL    HW265774  10.729   1.892  13.066
21334SOL     OW65775   7.441   7.904   6.420
21334SOL    HW165776   7.416   7.812   6.410
21334SOL    HW265777   7.409   7.946   6.340
21335SOL     OW65778  14.586  12.631   6.131
21335SOL    HW165779  14.577  12.555   6.189
21335SOL    HW265780  14.652  12.603   6.067
21336SOL     OW65781   2.248   6.441   1.165
21336SOL    HW165782   2.259   6.391   1.084
21336SOL    HW265783   2.331   6.489   1.174
21337SOL     OW65784   1.537  14.836   4.693
21337SOL    HW165785   1.507   0.037   4.656
21337SOL    HW265786   1.632  14.839   4.684
21338SOL     OW65787   2.685   9.722  10.050
21338SOL    HW165788   2.673   9.723   9.955
21338SOL    HW265789   2.625   9.655  10.081
21339SOL     OW65790   4.665  14.033  12.267
21339SOL    HW165791   4.710  13.949  12.258
21339SOL    HW265792   4.579  14.011  12.300
21340SOL     OW65793   9.753   8.104   2.137
21340SOL    HW165794   9.722   8.094   2.227
21340SOL    HW265795   9.817   8.175   2.142
21341SOL     OW65796  11.869   0.822   9.098
21341SOL    HW165797  11.906   0.827   9.186
21341SOL    HW265798  11.836   0.910   9.081
21342SOL     OW65799  11.029  12.410   9.709
21342SOL    HW165800  11.117  12.424   9.742
21342SOL    HW265801  11.030  12.319   9.679
21343SOL     OW65802   8.016   2.136  12.676
21343SOL    HW165803   8.043   2.146  12.584
21343SOL    HW265804   8.012   2.225  12.709
21344SOL     OW65805  13.216   5.987  14.668
21344SOL    HW165806  13.221   5.919  14.600
21344SOL    HW265807  13.160   5.949  14.736
21345SOL     OW65808  12.640   7.516   9.523
21345SOL    HW165809  12.703   7.508   9.452
21345SOL    HW265810  12.659   7.601   9.564
21346SOL     OW65811  11.198   0.200   5.395
21346SOL    HW165812  11.105   0.184   5.380
21346SOL    HW265813  11.200   0.264   5.466
21347SOL     OW65814   0.750   8.212  14.185
21347SOL    HW165815   0.713   8.124  14.192
21347SOL    HW265816   0.786   8.230  14.272
21348SOL     OW65817   3.834  12.380   3.314
21348SOL    HW165818   3.778  12.410   3.242
21348SOL    HW265819   3.789  12.304   3.349
21349SOL     OW65820   2.889  13.018   3.054
21349SOL    HW165821   2.797  13.044   3.058
21349SOL    HW265822   2.906  13.003   2.961
21350SOL     OW65823  10.371  10.202  11.563
21350SOL    HW165824  10.454  10.183  11.519
21350SOL    HW265825  10.365  10.298  11.562
21351SOL     OW65826   1.037  10.825   2.961
21351SOL    HW165827   1.081  10.804   2.879
21351SOL    HW265828   0.953  10.863   2.935
21352SOL     OW65829   0.970   7.249   0.550
21352SOL    HW165830   1.056   7.221   0.518
21352SOL    HW265831   0.944   7.319   0.490
21353SOL     OW65832   8.403   1.562   7.508
21353SOL    HW165833   8.385   1.644   7.461
21353SOL    HW265834   8.492   1.573   7.542
21354SOL     OW65835   0.693   8.388  11.240
21354SOL    HW165836   0.607   8.350  11.221
21354SOL    HW265837   0.753   8.342  11.181
21355SOL     OW65838  11.343   1.307   7.984
21355SOL    HW165839  11.287   1.366   7.934
21355SOL    HW265840  11.429   1.348   7.984
21356SOL     OW65841  10.265   2.397  14.301
21356SOL    HW165842  10.263   2.374  14.394
21356SOL    HW265843  10.216   2.326  14.259
21357SOL     OW65844   5.688  13.167  11.789
21357SOL    HW165845   5.628  13.094  11.771
21357SOL    HW265846   5.679  13.183  11.883
21358SOL     OW65847   0.089  12.168   4.547
21358SOL    HW165848   0.012  12.180   4.603
21358SOL    HW265849   0.163  12.178   4.607
21359SOL     OW65850  14.768   5.731   4.346
21359SOL    HW165851  14.821   5.660   4.381
21359SOL    HW265852  14.694   5.738   4.406
21360SOL     OW65853   4.313   9.002  11.362
21360SOL    HW165854   4.372   9.011  11.287
21360SOL    HW265855   4.352   9.057  11.430
21361SOL     OW65856   0.575   5.454   0.058
21361SOL    HW165857   0.660   5.485   0.089
21361SOL    HW265858   0.512   5.500   0.114
21362SOL     OW65859  14.800   7.449   2.071
21362SOL    HW165860   0.009   7.478   2.063
21362SOL    HW265861  14.785   7.441   2.166
21363SOL     OW65862  13.837   9.787   7.554
21363SOL    HW165863  13.780   9.843   7.501
21363SOL    HW265864  13.794   9.783   7.639
21364SOL     OW65865   8.322  12.210   6.937
21364SOL    HW165866   8.356  12.126   6.967
21364SOL    HW265867   8.232  12.190   6.908
21365SOL     OW65868   4.444   2.489   0.366
21365SOL    HW165869   4.425   2.419   0.304
21365SOL    HW265870   4.367   2.492   0.423
21366SOL     OW65871   1.955  13.664   5.462
21366SOL    HW165872   1.938  13.706   5.546
21366SOL    HW265873   1.896  13.589   5.460
21367SOL     OW65874  12.188   7.152   3.031
21367SOL    HW165875  12.255   7.141   2.963
21367SOL    HW265876  12.107   7.122   2.990
21368SOL     OW65877   1.549  11.459  10.652
21368SOL    HW165878   1.454  11.464  10.643
21368SOL    HW265879   1.582  11.459  10.562
21369SOL     OW65880   7.340  11.257  11.502
21369SOL    HW165881   7.425  11.215  11.488
21369SOL    HW265882   7.285  11.225  11.430
21370SOL     OW65883   0.941   4.757   1.386
21370SOL    HW165884   1.000   4.827   1.358
21370SOL    HW265885   0.855   4.785   1.355
21371SOL     OW65886   2.882   3.152   2.543
21371SOL    HW165887   2.800   3.196   2.520
21371SOL    HW265888   2.924   3.210   2.605
21372SOL     OW65889  12.258   7.153  11.204
21372SOL    HW165890  12.242   7.246  11.217
21372SOL    HW265891  12.332   7.133  11.260
21373SOL     OW65892   9.972   8.067  14.822
21373SOL    HW165893   9.981   7.999   0.007
21373SOL    HW265894  10.040   8.048  14.758
21374SOL     OW65895   4.467   3.411   1.990
21374SOL    HW165896   4.560   3.426   2.006
21374SOL    HW265897   4.450   3.324   2.028
21375SOL     OW65898   7.537  11.006   2.548
21375SOL    HW165899   7.548  11.046   2.461
21375SOL    HW265900   7.606  10.940   2.553
21376SOL     OW65901  12.439   2.896   8.838
21376SOL    HW165902  12.440   2.949   8.918
21376SOL    HW265903  12.519   2.921   8.792
21377SOL     OW65904   0.808   9.773  14.373
21377SOL    HW165905   0.878   9.713  14.398
21377SOL    HW265906   0.845   9.824  14.301
21378SOL     OW65907  11.400   2.195   4.879
21378SOL    HW165908  11.315   2.213   4.919
21378SOL    HW265909  11.458   2.178   4.954
21379SOL     OW65910  13.526   6.952   1.345
21379SOL    HW165911  13.595   7.012   1.317
21379SOL    HW265912  13.475   6.936   1.266
21380SOL     OW65913   6.828   8.434  14.078
21380SOL    HW165914   6.904   8.376  14.072
21380SOL    HW265915   6.823   8.475  13.992
21381SOL     OW65916   6.207   1.949   7.161
21381SOL    HW165917   6.282   1.988   7.115
21381SOL    HW265918   6.205   1.994   7.245
21382SOL     OW65919  11.935   4.460  14.038
21382SOL    HW165920  12.007   4.424  13.987
21382SOL    HW265921  11.884   4.511  13.975
21383SOL     OW65922  14.426   0.773  11.400
21383SOL    HW165923  14.465   0.699  11.447
21383SOL    HW265924  14.374   0.818  11.466
21384SOL     OW65925   8.774   4.048   7.558
21384SOL    HW165926   8.814   3.962   7.543
21384SOL    HW265927   8.795   4.099   7.480
21385SOL     OW65928   6.474  10.141   1.606
21385SOL    HW165929   6.458  10.201   1.678
21385SOL    HW265930   6.483  10.198   1.529
21386SOL     OW65931   8.357  10.205   2.315
21386SOL    HW165932   8.380  10.114   2.339
21386SOL    HW265933   8.347  10.250   2.399
21387SOL     OW65934   6.295   0.318  14.354
21387SOL    HW165935   6.318   0.325  14.447
21387SOL    HW265936   6.369   0.355  14.308
21388SOL     OW65937   0.891   2.174   3.884
21388SOL    HW165938   0.841   2.101   3.849
21388SOL    HW265939   0.956   2.194   3.817
21389SOL     OW65940   8.541   8.301  14.050
21389SOL    HW165941   8.520   8.354  13.973
21389SOL    HW265942   8.622   8.339  14.084
21390SOL     OW65943   8.951   5.537  11.450
21390SOL    HW165944   8.995   5.549  11.366
21390SOL    HW265945   8.880   5.475  11.432
21391SOL     OW65946  12.679  12.366  12.979
21391SOL    HW165947  12.700  12.277  13.007
21391SOL    HW265948  12.629  12.402  13.052
21392SOL     OW65949   7.560   9.989   2.391
21392SOL    HW165950   7.511  10.057   2.438
21392SOL    HW265951   7.513   9.979   2.308
21393SOL     OW65952  11.339   3.774   5.999
21393SOL    HW165953  11.366   3.828   6.074
21393SOL    HW265954  11.339   3.834   5.925
21394SOL     OW65955  11.256  10.283   9.515
21394SOL    HW165956  11.265  10.194   9.482
21394SOL    HW265957  11.232  10.273   9.607
21395SOL     OW65958   2.558   3.632  10.796
21395SOL    HW165959   2.632   3.661  10.851
21395SOL    HW265960   2.599   3.587  10.722
21396SOL     OW65961  12.193   4.273   1.020
21396SOL    HW165962  12.219   4.197   1.072
21396SOL    HW265963  12.117   4.309   1.067
21397SOL     OW65964   4.900   2.572  11.557
21397SOL    HW165965   4.834   2.637  11.581
21397SOL    HW265966   4.851   2.489  11.555
21398SOL     OW65967   9.306  10.196  10.572
21398SOL    HW165968   9.387  10.206  10.623
21398SOL    HW265969   9.332  10.218  10.483
21399SOL     OW65970   9.965   6.001  14.634
21399SOL    HW165971   9.936   6.076  14.581
21399SOL    HW265972   9.936   5.924  14.585
21400SOL     OW65973  13.879   5.165  12.639
21400SOL    HW165974  13.849   5.149  12.729
21400SOL    HW265975  13.820   5.232  12.605
21401SOL     OW65976   1.309  10.648   0.100
21401SOL    HW165977   1.334  10.736   0.071
21401SOL    HW265978   1.305  10.655   0.195
21402SOL     OW65979  11.909   8.768   4.560
21402SOL    HW165980  11.866   8.686   4.585
21402SOL    HW265981  11.996   8.762   4.601
21403SOL     OW65982  14.383  10.854   9.811
21403SOL    HW165983  14.381  10.906   9.730
21403SOL    HW265984  14.291  10.835   9.829
21404SOL     OW65985   4.736   4.489   3.861
21404SOL    HW165986   4.681   4.530   3.928
21404SOL    HW265987   4.762   4.561   3.804
21405SOL     OW65988  13.247   8.980  12.829
21405SOL    HW165989  13.202   8.918  12.886
21405SOL    HW265990  13.243   9.063  12.876
21406SOL     OW65991   6.748   9.019  13.728
21406SOL    HW165992   6.813   8.973  13.675
21406SOL    HW265993   6.790   9.031  13.813
21407SOL     OW65994  13.168   4.583   3.316
21407SOL    HW165995  13.247   4.554   3.362
21407SOL    HW265996  13.152   4.671   3.351
21408SOL     OW65997  13.435   2.567  12.246
21408SOL    HW165998  13.490   2.603  12.316
21408SOL    HW265999  13.390   2.644  12.209
21409SOL     OW66000   6.098   8.906  12.769
21409SOL    HW166001   6.013   8.865  12.750
21409SOL    HW266002   6.079   8.972  12.834
21410SOL     OW66003   8.498  12.891  13.205
21410SOL    HW166004   8.466  12.889  13.114
21410SOL    HW266005   8.512  12.983  13.223
21411SOL     OW66006  14.698   6.048   9.410
21411SOL    HW166007  14.612   6.046   9.450
21411SOL    HW266008  14.681   6.046   9.316
21412SOL     OW66009   5.006   4.057   9.817
21412SOL    HW166010   5.005   4.138   9.868
21412SOL    HW266011   5.097   4.028   9.820
21413SOL     OW66012  11.917  11.402  10.556
21413SOL    HW166013  11.955  11.366  10.476
21413SOL    HW266014  11.948  11.344  10.625
21414SOL     OW66015   6.015   5.828   0.950
21414SOL    HW166016   6.006   5.740   0.989
21414SOL    HW266017   6.104   5.829   0.913
21415SOL     OW66018   8.474  13.539  12.651
21415SOL    HW166019   8.488  13.564  12.743
21415SOL    HW266020   8.440  13.618  12.610
21416SOL     OW66021   1.713   9.470   7.416
21416SOL    HW166022   1.642   9.411   7.442
21416SOL    HW266023   1.745   9.434   7.333
21417SOL     OW66024   7.394  13.586   7.504
21417SOL    HW166025   7.478  13.614   7.539
21417SOL    HW266026   7.403  13.491   7.491
21418SOL     OW66027   1.588   9.629   6.293
21418SOL    HW166028   1.560   9.714   6.327
21418SOL    HW266029   1.674   9.645   6.256
21419SOL     OW66030  11.878   4.340   3.858
21419SOL    HW166031  11.944   4.312   3.794
21419SOL    HW266032  11.876   4.270   3.923
21420SOL     OW66033   8.026   3.750  10.128
21420SOL    HW166034   8.009   3.839  10.098
21420SOL    HW266035   8.034   3.759  10.223
21421SOL     OW66036   7.601   4.410   7.954
21421SOL    HW166037   7.637   4.390   7.868
21421SOL    HW266038   7.677   4.421   8.011
21422SOL     OW66039  11.645   9.346   0.251
21422SOL    HW166040  11.691   9.414   0.202
21422SOL    HW266041  11.620   9.388   0.333
21423SOL     OW66042   4.275  14.879   4.937
21423SOL    HW166043   4.369   0.017   4.936
21423SOL    HW266044   4.262  14.818   4.865
21424SOL     OW66045   8.041  11.782   8.491
21424SOL    HW166046   8.005  11.870   8.481
21424SOL    HW266047   7.996  11.730   8.425
21425SOL     OW66048   2.991   3.694  10.675
21425SOL    HW166049   3.061   3.715  10.737
21425SOL    HW266050   2.911   3.694  10.728
21426SOL     OW66051   7.256  14.160   0.184
21426SOL    HW166052   7.294  14.110   0.111
21426SOL    HW266053   7.289  14.249   0.172
21427SOL     OW66054   5.780   9.552   9.533
21427SOL    HW166055   5.864   9.597   9.529
21427SOL    HW266056   5.803   9.460   9.547
21428SOL     OW66057  10.111   5.930   2.138
21428SOL    HW166058  10.180   5.913   2.203
21428SOL    HW266059  10.031   5.898   2.180
21429SOL     OW66060   9.393   7.564  14.405
21429SOL    HW166061   9.422   7.483  14.362
21429SOL    HW266062   9.324   7.535  14.465
21430SOL     OW66063   5.347   1.840   6.469
21430SOL    HW166064   5.407   1.772   6.500
21430SOL    HW266065   5.395   1.922   6.483
21431SOL     OW66066   8.254   2.799   2.557
21431SOL    HW166067   8.283   2.821   2.469
21431SOL    HW266068   8.183   2.736   2.545
21432SOL     OW66069  10.406  13.254   4.761
21432SOL    HW166070  10.438  13.245   4.671
21432SOL    HW266071  10.389  13.347   4.771
21433SOL     OW66072  10.083   6.560   7.257
21433SOL    HW166073  10.149   6.512   7.207
21433SOL    HW266074  10.058   6.500   7.327
21434SOL     OW66075   1.523  14.855   9.442
21434SOL    HW166076   1.537  14.821   9.530
21434SOL    HW266077   1.493   0.063   9.455
21435SOL     OW66078   6.563   1.169   9.105
21435SOL    HW166079   6.620   1.230   9.151
21435SOL    HW266080   6.520   1.221   9.038
21436SOL     OW66081   9.559   6.183   6.488
21436SOL    HW166082   9.574   6.202   6.396
21436SOL    HW266083   9.491   6.244   6.515
21437SOL     OW66084   9.613  12.675   7.062
21437SOL    HW166085   9.553  12.652   7.134
21437SOL    HW266086   9.569  12.748   7.018
21438SOL     OW66087   2.079  11.813   6.137
21438SOL    HW166088   2.169  11.780   6.132
21438SOL    HW266089   2.030  11.757   6.077
21439SOL     OW66090  13.807   8.391   6.729
21439SOL    HW166091  13.751   8.348   6.664
21439SOL    HW266092  13.764   8.475   6.745
21440SOL     OW66093  10.595   6.115   5.027
21440SOL    HW166094  10.667   6.084   5.082
21440SOL    HW266095  10.613   6.208   5.015
21441SOL     OW66096   4.363   5.119   7.452
21441SOL    HW166097   4.442   5.149   7.496
21441SOL    HW266098   4.350   5.181   7.380
21442SOL     OW66099   5.194   0.139  11.185
21442SOL    HW166100   5.118   0.122  11.240
21442SOL    HW266101   5.188   0.073  11.116
21443SOL     OW66102  12.606   7.981  13.615
21443SOL    HW166103  12.667   7.995  13.687
21443SOL    HW266104  12.659   7.937  13.548
21444SOL     OW66105   3.501   6.899  14.491
21444SOL    HW166106   3.433   6.874  14.553
21444SOL    HW266107   3.556   6.961  14.538
21445SOL     OW66108   3.127   9.073   0.034
21445SOL    HW166109   3.117   8.997   0.092
21445SOL    HW266110   3.169   9.139   0.089
21446SOL     OW66111   4.058  10.689   9.358
21446SOL    HW166112   4.028  10.760   9.302
21446SOL    HW266113   4.135  10.724   9.403
21447SOL     OW66114  14.867   8.254   4.402
21447SOL    HW166115  14.835   8.332   4.446
21447SOL    HW266116   0.044   8.287   4.333
21448SOL     OW66117   4.158   7.524   7.525
21448SOL    HW166118   4.208   7.579   7.465
21448SOL    HW266119   4.225   7.470   7.569
21449SOL     OW66120   1.932   1.316   3.452
21449SOL    HW166121   2.008   1.373   3.438
21449SOL    HW266122   1.858   1.376   3.461
21450SOL     OW66123   8.863   7.891   9.029
21450SOL    HW166124   8.939   7.846   9.066
21450SOL    HW266125   8.791   7.828   9.038
21451SOL     OW66126   0.607  12.221   4.010
21451SOL    HW166127   0.654  12.302   3.992
21451SOL    HW266128   0.637  12.161   3.941
21452SOL     OW66129   5.421   9.523   3.294
21452SOL    HW166130   5.509   9.523   3.334
21452SOL    HW266131   5.364   9.558   3.363
21453SOL     OW66132   9.091  12.531   6.506
21453SOL    HW166133   9.124  12.605   6.455
21453SOL    HW266134   9.061  12.569   6.588
21454SOL     OW66135   7.838   8.139   9.379
21454SOL    HW166136   7.894   8.062   9.366
21454SOL    HW266137   7.872   8.204   9.318
21455SOL     OW66138  12.708   7.597   5.755
21455SOL    HW166139  12.790   7.562   5.788
21455SOL    HW266140  12.734   7.677   5.708
21456SOL     OW66141   6.553  11.672   1.263
21456SOL    HW166142   6.526  11.634   1.346
21456SOL    HW266143   6.638  11.632   1.245
21457SOL     OW66144  14.197   4.622  11.873
21457SOL    HW166145  14.198   4.711  11.836
21457SOL    HW266146  14.233   4.632  11.961
21458SOL     OW66147  10.210   5.575   4.225
21458SOL    HW166148  10.298   5.609   4.235
21458SOL    HW266149  10.208   5.496   4.280
21459SOL     OW66150   7.030   8.009   3.394
21459SOL    HW166151   6.941   8.020   3.426
21459SOL    HW266152   7.026   7.932   3.337
21460SOL     OW66153  14.245   0.242   0.716
21460SOL    HW166154  14.194   0.303   0.664
21460SOL    HW266155  14.232   0.157   0.674
21461SOL     OW66156   3.596  13.668  12.928
21461SOL    HW166157   3.637  13.606  12.988
21461SOL    HW266158   3.522  13.704  12.978
21462SOL     OW66159   1.307   6.435   1.642
21462SOL    HW166160   1.318   6.419   1.548
21462SOL    HW266161   1.262   6.519   1.647
21463SOL     OW66162   9.809   6.570   3.287
21463SOL    HW166163   9.813   6.475   3.301
21463SOL    HW266164   9.749   6.580   3.212
21464SOL     OW66165   6.290   2.793   5.773
21464SOL    HW166166   6.273   2.788   5.867
21464SOL    HW266167   6.384   2.806   5.765
21465SOL     OW66168   5.583  11.187   7.883
21465SOL    HW166169   5.649  11.245   7.846
21465SOL    HW266170   5.553  11.134   7.809
21466SOL     OW66171   7.299   0.802  10.271
21466SOL    HW166172   7.229   0.858  10.304
21466SOL    HW266173   7.362   0.795  10.343
21467SOL     OW66174   4.981   4.989   2.859
21467SOL    HW166175   5.032   4.976   2.940
21467SOL    HW266176   4.894   5.013   2.889
21468SOL     OW66177   8.981  14.576   4.679
21468SOL    HW166178   8.919  14.628   4.730
21468SOL    HW266179   8.953  14.486   4.692
21469SOL     OW66180  12.693  12.010   6.618
21469SOL    HW166181  12.765  11.969   6.569
21469SOL    HW266182  12.720  12.005   6.709
21470SOL     OW66183   3.243  13.215   7.732
21470SOL    HW166184   3.284  13.212   7.646
21470SOL    HW266185   3.167  13.158   7.725
21471SOL     OW66186   5.338   5.215   0.132
21471SOL    HW166187   5.323   5.305   0.161
21471SOL    HW266188   5.414   5.221   0.074
21472SOL     OW66189   1.994  10.650  11.310
21472SOL    HW166190   2.026  10.626  11.223
21472SOL    HW266191   2.019  10.578  11.366
21473SOL     OW66192  14.630  12.299   7.924
21473SOL    HW166193  14.538  12.273   7.930
21473SOL    HW266194  14.643  12.320   7.831
21474SOL     OW66195   7.246   5.288  13.197
21474SOL    HW166196   7.255   5.205  13.243
21474SOL    HW266197   7.174   5.275  13.136
21475SOL     OW66198   6.952   7.185   4.906
21475SOL    HW166199   6.889   7.131   4.859
21475SOL    HW266200   7.020   7.205   4.841
21476SOL     OW66201   3.448   4.713   4.799
21476SOL    HW166202   3.464   4.718   4.893
21476SOL    HW266203   3.468   4.623   4.775
21477SOL     OW66204   9.051   1.417   7.946
21477SOL    HW166205   9.076   1.499   7.988
21477SOL    HW266206   8.984   1.441   7.882
21478SOL     OW66207   9.184  11.249   3.129
21478SOL    HW166208   9.114  11.297   3.172
21478SOL    HW266209   9.156  11.241   3.038
21479SOL     OW66210   1.337   8.483  14.048
21479SOL    HW166211   1.333   8.579  14.043
21479SOL    HW266212   1.391   8.466  14.125
21480SOL     OW66213   6.030   6.054   7.019
21480SOL    HW166214   5.979   5.995   6.964
21480SOL    HW266215   6.117   6.015   7.021
21481SOL     OW66216  10.169  13.274   8.505
21481SOL    HW166217  10.244  13.334   8.497
21481SOL    HW266218  10.208  13.190   8.530
21482SOL     OW66219   6.351   2.753   2.971
21482SOL    HW166220   6.342   2.848   2.977
21482SOL    HW266221   6.301   2.729   2.894
21483SOL     OW66222   2.407   9.452   5.341
21483SOL    HW166223   2.321   9.421   5.314
21483SOL    HW266224   2.394   9.483   5.431
21484SOL     OW66225   4.145   3.825   3.565
21484SOL    HW166226   4.154   3.909   3.521
21484SOL    HW266227   4.083   3.842   3.636
21485SOL     OW66228  11.912   7.541   1.466
21485SOL    HW166229  11.862   7.586   1.397
21485SOL    HW266230  11.890   7.589   1.546
21486SOL     OW66231  10.134   0.652   0.137
21486SOL    HW166232  10.128   0.716   0.066
21486SOL    HW266233  10.222   0.663   0.173
21487SOL     OW66234   6.802  10.722   1.274
21487SOL    HW166235   6.815  10.680   1.189
21487SOL    HW266236   6.869  10.682   1.331
21488SOL     OW66237  10.884   8.231  10.910
21488SOL    HW166238  10.927   8.238  10.995
21488SOL    HW266239  10.802   8.280  10.920
21489SOL     OW66240   3.090   8.708   4.331
21489SOL    HW166241   3.045   8.624   4.333
21489SOL    HW266242   3.053   8.756   4.405
21490SOL     OW66243  13.716   6.024   1.484
21490SOL    HW166244  13.788   6.083   1.504
21490SOL    HW266245  13.640   6.081   1.470
21491SOL     OW66246  11.908   7.423  13.359
21491SOL    HW166247  11.820   7.426  13.397
21491SOL    HW266248  11.967   7.428  13.435
21492SOL     OW66249  13.823   2.216  10.312
21492SOL    HW166250  13.758   2.276  10.349
21492SOL    HW266251  13.771   2.153  10.263
21493SOL     OW66252   5.014   5.704   9.969
21493SOL    HW166253   5.069   5.778   9.942
21493SOL    HW266254   5.031   5.694  10.063
21494SOL     OW66255   7.116   2.559   0.107
21494SOL    HW166256   7.193   2.510   0.137
21494SOL    HW266257   7.070   2.582   0.188
21495SOL     OW66258   4.332  12.279   9.613
21495SOL    HW166259   4.416  12.301   9.651
21495SOL    HW266260   4.274  12.263   9.688
21496SOL     OW66261  13.787  11.581   8.249
21496SOL    HW166262  13.723  11.510   8.246
21496SOL    HW266263  13.871  11.537   8.263
21497SOL     OW66264   6.179   4.419   0.629
21497SOL    HW166265   6.238   4.414   0.705
21497SOL    HW266266   6.148   4.329   0.619
21498SOL     OW66267   7.081   9.031   2.190
21498SOL    HW166268   7.159   9.014   2.138
21498SOL    HW266269   7.104   9.108   2.242
21499SOL     OW66270  14.051  14.798   0.108
21499SOL    HW166271  14.004  14.746   0.043
21499SOL    HW266272  13.997  14.875   0.121
21500SOL     OW66273   4.461  12.274   4.894
21500SOL    HW166274   4.510  12.202   4.935
21500SOL    HW266275   4.371  12.260   4.921
21501SOL     OW66276  11.803   3.185   9.275
21501SOL    HW166277  11.866   3.182   9.347
21501SOL    HW266278  11.831   3.261   9.223
21502SOL     OW66279   2.880   8.926   6.638
21502SOL    HW166280   2.852   9.016   6.651
21502SOL    HW266281   2.959   8.917   6.691
21503SOL     OW66282   2.574   1.956   1.209
21503SOL    HW166283   2.542   2.046   1.213
21503SOL    HW266284   2.531   1.912   1.283
21504SOL     OW66285  12.674   8.860  11.978
21504SOL    HW166286  12.700   8.845  12.069
21504SOL    HW266287  12.595   8.913  11.984
21505SOL     OW66288   9.094   5.758   4.787
21505SOL    HW166289   9.114   5.685   4.845
21505SOL    HW266290   9.002   5.777   4.804
21506SOL     OW66291  10.770   4.164   5.932
21506SOL    HW166292  10.690   4.125   5.966
21506SOL    HW266293  10.840   4.108   5.966
21507SOL     OW66294  12.465   8.885   6.894
21507SOL    HW166295  12.389   8.913   6.945
21507SOL    HW266296  12.537   8.884   6.957
21508SOL     OW66297   4.797   3.052  11.467
21508SOL    HW166298   4.841   2.992  11.528
21508SOL    HW266299   4.862   3.066  11.398
21509SOL     OW66300   2.469   6.291  12.926
21509SOL    HW166301   2.404   6.352  12.960
21509SOL    HW266302   2.461   6.297  12.831
21510SOL     OW66303   4.238   1.346   8.294
21510SOL    HW166304   4.284   1.428   8.278
21510SOL    HW266305   4.286   1.304   8.365
21511SOL     OW66306   2.767   1.563   3.984
21511SOL    HW166307   2.862   1.552   3.981
21511SOL    HW266308   2.750   1.599   4.071
21512SOL     OW66309  11.224   6.990  12.264
21512SOL    HW166310  11.183   7.076  12.261
21512SOL    HW266311  11.278   6.992  12.343
21513SOL     OW66312  14.271   8.480  11.903
21513SOL    HW166313  14.261   8.442  11.990
21513SOL    HW266314  14.319   8.562  11.918
21514SOL     OW66315   0.140   3.329   6.992
21514SOL    HW166316   0.075   3.313   7.060
21514SOL    HW266317   0.144   3.248   6.942
21515SOL     OW66318   4.687   9.290   3.493
21515SOL    HW166319   4.625   9.250   3.554
21515SOL    HW266320   4.773   9.269   3.528
21516SOL     OW66321   7.406   7.618   8.892
21516SOL    HW166322   7.340   7.585   8.831
21516SOL    HW266323   7.357   7.671   8.954
21517SOL     OW66324   6.990   4.211  12.132
21517SOL    HW166325   7.027   4.125  12.109
21517SOL    HW266326   6.953   4.199  12.219
21518SOL     OW66327   3.658   1.454  10.128
21518SOL    HW166328   3.574   1.411  10.116
21518SOL    HW266329   3.711   1.391  10.176
21519SOL     OW66330   5.537   5.070   3.605
21519SOL    HW166331   5.514   5.153   3.565
21519SOL    HW266332   5.466   5.011   3.580
21520SOL     OW66333  14.675   1.375  13.168
21520SOL    HW166334  14.742   1.433  13.203
21520SOL    HW266335  14.720   1.323  13.102
21521SOL     OW66336   0.549   0.273   6.606
21521SOL    HW166337   0.540   0.354   6.656
21521SOL    HW266338   0.599   0.298   6.528
21522SOL     OW66339   1.387  10.672   7.340
21522SOL    HW166340   1.426  10.682   7.427
21522SOL    HW266341   1.301  10.633   7.357
21523SOL     OW66342  13.211  12.052  13.129
21523SOL    HW166343  13.304  12.074  13.132
21523SOL    HW266344  13.167  12.136  13.115
21524SOL     OW66345  10.299   9.841   2.548
21524SOL    HW166346  10.262   9.762   2.509
21524SOL    HW266347  10.289   9.828   2.642
21525SOL     OW66348   2.172  12.724   8.633
21525SOL    HW166349   2.172  12.688   8.545
21525SOL    HW266350   2.264  12.743   8.652
21526SOL     OW66351   8.937   9.497   1.261
21526SOL    HW166352   8.974   9.549   1.333
21526SOL    HW266353   8.972   9.537   1.182
21527SOL     OW66354  13.775  11.874  13.631
21527SOL    HW166355  13.816  11.788  13.619
21527SOL    HW266356  13.840  11.925  13.679
21528SOL     OW66357   7.196  12.341   8.027
21528SOL    HW166358   7.288  12.336   8.054
21528SOL    HW266359   7.190  12.421   7.976
21529SOL     OW66360   3.820  11.761   1.726
21529SOL    HW166361   3.806  11.811   1.807
21529SOL    HW266362   3.740  11.709   1.717
21530SOL     OW66363   8.118  10.762   4.238
21530SOL    HW166364   8.154  10.848   4.258
21530SOL    HW266365   8.079  10.771   4.151
21531SOL     OW66366  13.226  10.946   3.576
21531SOL    HW166367  13.218  10.914   3.666
21531SOL    HW266368  13.224  11.041   3.585
21532SOL     OW66369   2.754   5.656  12.424
21532SOL    HW166370   2.814   5.664  12.498
21532SOL    HW266371   2.794   5.591  12.367
21533SOL     OW66372   5.360   8.348  14.262
21533SOL    HW166373   5.286   8.336  14.321
21533SOL    HW266374   5.390   8.259  14.242
21534SOL     OW66375   1.880  14.698   5.288
21534SOL    HW166376   1.905  14.646   5.211
21534SOL    HW266377   1.961  14.710   5.337
21535SOL     OW66378   2.218   5.443   8.249
21535SOL    HW166379   2.293   5.386   8.234
21535SOL    HW266380   2.224   5.466   8.342
21536SOL     OW66381  12.807   4.865  13.520
21536SOL    HW166382  12.879   4.928  13.530
21536SOL    HW266383  12.734   4.907  13.565
21537SOL     OW66384  14.788  13.340   7.072
21537SOL    HW166385  14.774  13.395   7.149
21537SOL    HW266386  14.864  13.285   7.095
21538SOL     OW66387   9.258  14.873  13.262
21538SOL    HW166388   9.260  14.779  13.278
21538SOL    HW266389   9.273   0.031  13.348
21539SOL     OW66390  12.992  11.990   8.772
21539SOL    HW166391  12.923  11.925   8.762
21539SOL    HW266392  13.073  11.939   8.775
21540SOL     OW66393   5.848   2.512   9.688
21540SOL    HW166394   5.784   2.538   9.622
21540SOL    HW266395   5.869   2.593   9.734
21541SOL     OW66396   9.786   5.826   2.785
21541SOL    HW166397   9.831   5.774   2.718
21541SOL    HW266398   9.853   5.840   2.852
21542SOL     OW66399   2.649   7.976  10.431
21542SOL    HW166400   2.659   8.061  10.474
21542SOL    HW266401   2.709   7.978  10.357
21543SOL     OW66402   8.580   1.554   3.558
21543SOL    HW166403   8.654   1.494   3.561
21543SOL    HW266404   8.571   1.577   3.466
21544SOL     OW66405   6.294   7.565   5.962
21544SOL    HW166406   6.345   7.538   5.885
21544SOL    HW266407   6.326   7.510   6.033
21545SOL     OW66408   0.632  12.915   5.985
21545SOL    HW166409   0.614  12.966   6.063
21545SOL    HW266410   0.704  12.857   6.009
21546SOL     OW66411  14.046   2.986  13.700
21546SOL    HW166412  14.030   3.074  13.735
21546SOL    HW266413  14.088   2.939  13.772
21547SOL     OW66414   1.313   6.015  13.303
21547SOL    HW166415   1.348   6.034  13.390
21547SOL    HW266416   1.284   6.100  13.270
21548SOL     OW66417  13.252   1.931  10.030
21548SOL    HW166418  13.188   1.935  10.102
21548SOL    HW266419  13.234   2.009   9.978
21549SOL     OW66420   2.494   3.231   6.071
21549SOL    HW166421   2.465   3.313   6.111
21549SOL    HW266422   2.537   3.183   6.143
21550SOL     OW66423  13.719   5.785   0.248
21550SOL    HW166424  13.692   5.842   0.320
21550SOL    HW266425  13.739   5.845   0.176
21551SOL     OW66426   6.357  14.060   6.749
21551SOL    HW166427   6.443  14.050   6.789
21551SOL    HW266428   6.375  14.071   6.655
21552SOL     OW66429   7.564  13.611   7.768
21552SOL    HW166430   7.577  13.517   7.783
21552SOL    HW266431   7.649  13.650   7.791
21553SOL     OW66432  13.007   8.205   2.825
21553SOL    HW166433  13.024   8.299   2.840
21553SOL    HW266434  13.018   8.194   2.731
21554SOL     OW66435  10.651  11.219  11.294
21554SOL    HW166436  10.699  11.216  11.376
21554SOL    HW266437  10.559  11.230  11.320
21555SOL     OW66438   7.051   2.885   8.740
21555SOL    HW166439   7.138   2.893   8.701
21555SOL    HW266440   7.068   2.876   8.834
21556SOL     OW66441   3.831   3.527  12.256
21556SOL    HW166442   3.737   3.511  12.244
21556SOL    HW266443   3.862   3.552  12.169
21557SOL     OW66444  13.700   3.238   6.902
21557SOL    HW166445  13.782   3.273   6.935
21557SOL    HW266446  13.725   3.158   6.855
21558SOL     OW66447   8.543   4.392  13.843
21558SOL    HW166448   8.518   4.365  13.931
21558SOL    HW266449   8.582   4.314  13.804
21559SOL     OW66450  13.029   0.710   7.663
21559SOL    HW166451  13.072   0.770   7.724
21559SOL    HW266452  12.988   0.644   7.720
21560SOL     OW66453  13.298   2.721   1.013
21560SOL    HW166454  13.250   2.727   1.095
21560SOL    HW266455  13.314   2.627   1.001
21561SOL     OW66456  11.718  11.588   6.147
21561SOL    HW166457  11.795  11.584   6.204
21561SOL    HW266458  11.687  11.678   6.156
21562SOL     OW66459  11.939   2.812   5.746
21562SOL    HW166460  11.855   2.853   5.766
21562SOL    HW266461  11.963   2.848   5.661
21563SOL     OW66462   6.477  11.489   4.119
21563SOL    HW166463   6.417  11.542   4.170
21563SOL    HW266464   6.542  11.551   4.086
21564SOL     OW66465  12.450   9.279  14.670
21564SOL    HW166466  12.472   9.277  14.763
21564SOL    HW266467  12.531   9.306  14.627
21565SOL     OW66468   3.173   8.766   9.931
21565SOL    HW166469   3.235   8.831   9.898
21565SOL    HW266470   3.121   8.813   9.996
21566SOL     OW66471   7.798   6.909   1.671
21566SOL    HW166472   7.708   6.931   1.648
21566SOL    HW266473   7.792   6.820   1.706
21567SOL     OW66474   7.125   1.225   8.979
21567SOL    HW166475   7.140   1.138   9.017
21567SOL    HW266476   7.174   1.223   8.896
21568SOL     OW66477   5.433   6.865   5.655
21568SOL    HW166478   5.469   6.944   5.614
21568SOL    HW266479   5.475   6.792   5.611
21569SOL     OW66480   3.697   1.675   9.946
21569SOL    HW166481   3.780   1.722   9.949
21569SOL    HW266482   3.707   1.606  10.012
21570SOL     OW66483   0.118  13.419   6.196
21570SOL    HW166484   0.208  13.385   6.203
21570SOL    HW266485   0.124  13.488   6.130
21571SOL     OW66486   7.050   4.515   6.097
21571SOL    HW166487   7.045   4.429   6.057
21571SOL    HW266488   7.115   4.505   6.167
21572SOL     OW66489  12.845   3.614   0.789
21572SOL    HW166490  12.920   3.671   0.772
21572SOL    HW266491  12.807   3.649   0.870
21573SOL     OW66492   5.075   4.572   2.086
21573SOL    HW166493   5.057   4.616   2.004
21573SOL    HW266494   5.030   4.488   2.079
21574SOL     OW66495   1.434   8.015   5.788
21574SOL    HW166496   1.413   7.930   5.827
21574SOL    HW266497   1.516   8.001   5.740
21575SOL     OW66498   5.548   5.334   7.036
21575SOL    HW166499   5.598   5.319   7.116
21575SOL    HW266500   5.613   5.332   6.966
21576SOL     OW66501  14.261   1.627   0.445
21576SOL    HW166502  14.213   1.704   0.414
21576SOL    HW266503  14.334   1.618   0.384
21577SOL     OW66504   4.877   8.194   0.066
21577SOL    HW166505   4.946   8.185   0.001
21577SOL    HW266506   4.911   8.256   0.130
21578SOL     OW66507   5.585   5.654   6.416
21578SOL    HW166508   5.636   5.716   6.364
21578SOL    HW266509   5.534   5.708   6.476
21579SOL     OW66510   0.234  11.886  14.594
21579SOL    HW166511   0.237  11.860  14.686
21579SOL    HW266512   0.141  11.904  14.577
21580SOL     OW66513   3.341   7.237   8.937
21580SOL    HW166514   3.252   7.244   8.903
21580SOL    HW266515   3.344   7.297   9.011
21581SOL     OW66516   6.593   0.197   1.606
21581SOL    HW166517   6.501   0.194   1.579
21581SOL    HW266518   6.600   0.276   1.659
21582SOL     OW66519   5.149   6.745   3.377
21582SOL    HW166520   5.072   6.688   3.382
21582SOL    HW266521   5.175   6.741   3.285
21583SOL     OW66522  12.839  11.841  13.675
21583SOL    HW166523  12.923  11.883  13.692
21583SOL    HW266524  12.833  11.836  13.579
21584SOL     OW66525   8.969  14.254  12.270
21584SOL    HW166526   8.883  14.212  12.282
21584SOL    HW266527   9.028  14.181  12.254
21585SOL     OW66528   6.570   7.874  11.219
21585SOL    HW166529   6.580   7.785  11.252
21585SOL    HW266530   6.531   7.922  11.292
21586SOL     OW66531  11.415  13.734   4.676
21586SOL    HW166532  11.445  13.676   4.746
21586SOL    HW266533  11.487  13.734   4.613
21587SOL     OW66534   2.511   5.861   6.257
21587SOL    HW166535   2.466   5.937   6.220
21587SOL    HW266536   2.529   5.805   6.182
21588SOL     OW66537   6.872   2.821  10.281
21588SOL    HW166538   6.818   2.746  10.306
21588SOL    HW266539   6.897   2.802  10.190
21589SOL     OW66540   0.401  13.709  11.700
21589SOL    HW166541   0.326  13.650  11.705
21589SOL    HW266542   0.404  13.752  11.785
21590SOL     OW66543   6.125  10.380   7.426
21590SOL    HW166544   6.037  10.357   7.396
21590SOL    HW266545   6.112  10.461   7.476
21591SOL     OW66546   0.961   2.426   2.167
21591SOL    HW166547   0.894   2.460   2.227
21591SOL    HW266548   1.043   2.437   2.213
21592SOL     OW66549  12.004   4.951   7.713
21592SOL    HW166550  11.989   4.871   7.663
21592SOL    HW266551  11.949   5.017   7.672
21593SOL     OW66552   4.784   3.985   9.402
21593SOL    HW166553   4.768   3.896   9.374
21593SOL    HW266554   4.703   4.032   9.382
21594SOL     OW66555  13.191  13.402   4.396
21594SOL    HW166556  13.151  13.329   4.443
21594SOL    HW266557  13.235  13.361   4.322
21595SOL     OW66558  10.572  13.959   1.622
21595SOL    HW166559  10.540  14.048   1.635
21595SOL    HW266560  10.646  13.968   1.562
21596SOL     OW66561  11.866   0.226   9.780
21596SOL    HW166562  11.889   0.158   9.717
21596SOL    HW266563  11.902   0.196   9.863
21597SOL     OW66564   0.987  12.048  11.876
21597SOL    HW166565   0.993  12.080  11.966
21597SOL    HW266566   0.965  12.126  11.825
21598SOL     OW66567  10.208  11.950   8.546
21598SOL    HW166568  10.196  11.856   8.531
21598SOL    HW266569  10.302  11.960   8.560
21599SOL     OW66570   3.397  13.404   4.271
21599SOL    HW166571   3.423  13.496   4.267
21599SOL    HW266572   3.469  13.361   4.318
21600SOL     OW66573   6.808  11.541   3.830
21600SOL    HW166574   6.785  11.566   3.740
21600SOL    HW266575   6.733  11.570   3.882
21601SOL     OW66576   3.626  13.106   3.335
21601SOL    HW166577   3.669  13.022   3.354
21601SOL    HW266578   3.664  13.166   3.398
21602SOL     OW66579   9.359   4.340   1.405
21602SOL    HW166580   9.312   4.407   1.454
21602SOL    HW266581   9.314   4.336   1.321
21603SOL     OW66582   1.645   3.789   7.103
21603SOL    HW166583   1.558   3.799   7.066
21603SOL    HW266584   1.658   3.869   7.156
21604SOL     OW66585  13.876   1.199   9.866
21604SOL    HW166586  13.802   1.181   9.809
21604SOL    HW266587  13.946   1.141   9.835
21605SOL     OW66588  12.205   0.967   8.690
21605SOL    HW166589  12.257   1.017   8.627
21605SOL    HW266590  12.114   0.986   8.667
21606SOL     OW66591   8.182   6.191  13.251
21606SOL    HW166592   8.122   6.144  13.193
21606SOL    HW266593   8.230   6.250  13.194
21607SOL     OW66594   4.136   5.439  14.461
21607SOL    HW166595   4.110   5.375  14.395
21607SOL    HW266596   4.206   5.395  14.510
21608SOL     OW66597   1.974   3.683  12.863
21608SOL    HW166598   2.038   3.666  12.794
21608SOL    HW266599   1.932   3.765  12.838
21609SOL     OW66600   9.927   5.963   9.040
21609SOL    HW166601   9.888   6.029   9.097
21609SOL    HW266602   9.853   5.905   9.016
21610SOL     OW66603   1.069   2.801   2.046
21610SOL    HW166604   0.984   2.843   2.059
21610SOL    HW266605   1.126   2.872   2.014
21611SOL     OW66606   8.072   2.463  14.549
21611SOL    HW166607   8.157   2.451  14.590
21611SOL    HW266608   8.035   2.375  14.544
21612SOL     OW66609   2.150   3.780  10.377
21612SOL    HW166610   2.127   3.702  10.426
21612SOL    HW266611   2.242   3.796  10.397
21613SOL     OW66612   2.232   2.359   5.961
21613SOL    HW166613   2.223   2.452   5.980
21613SOL    HW266614   2.271   2.322   6.040
21614SOL     OW66615   7.306   7.779   5.052
21614SOL    HW166616   7.277   7.830   4.976
21614SOL    HW266617   7.390   7.743   5.026
21615SOL     OW66618   3.593  13.205   7.355
21615SOL    HW166619   3.679  13.178   7.387
21615SOL    HW266620   3.600  13.299   7.342
21616SOL     OW66621   1.562   0.126  13.915
21616SOL    HW166622   1.491   0.135  13.851
21616SOL    HW266623   1.620   0.200  13.896
21617SOL     OW66624   2.493   3.134   1.052
21617SOL    HW166625   2.511   3.047   1.017
21617SOL    HW266626   2.443   3.118   1.132
21618SOL     OW66627  13.015   5.020   4.779
21618SOL    HW166628  13.058   5.074   4.846
21618SOL    HW266629  12.947   4.973   4.827
21619SOL     OW66630   9.367  13.965   3.823
21619SOL    HW166631   9.382  13.995   3.913
21619SOL    HW266632   9.418  14.026   3.769
21620SOL     OW66633   6.731   9.535   7.967
21620SOL    HW166634   6.639   9.562   7.965
21620SOL    HW266635   6.767   9.577   8.046
21621SOL     OW66636   3.337  10.641   9.254
21621SOL    HW166637   3.277  10.703   9.212
21621SOL    HW266638   3.376  10.690   9.326
21622SOL     OW66639  12.740  13.495  12.849
21622SOL    HW166640  12.646  13.495  12.832
21622SOL    HW266641  12.748  13.491  12.944
21623SOL     OW66642   6.866  13.353  14.160
21623SOL    HW166643   6.885  13.345  14.067
21623SOL    HW266644   6.790  13.411  14.165
21624SOL     OW66645   8.749   0.518   7.471
21624SOL    HW166646   8.664   0.478   7.455
21624SOL    HW266647   8.752   0.593   7.411
21625SOL     OW66648   0.635   4.129   6.924
21625SOL    HW166649   0.719   4.154   6.962
21625SOL    HW266650   0.658   4.091   6.839
21626SOL     OW66651   0.542   2.875  10.280
21626SOL    HW166652   0.578   2.803  10.228
21626SOL    HW266653   0.447   2.866  10.271
21627SOL     OW66654   9.035   3.753   6.323
21627SOL    HW166655   8.986   3.671   6.311
21627SOL    HW266656   9.069   3.773   6.235
21628SOL     OW66657   0.324   3.304   7.952
21628SOL    HW166658   0.242   3.315   7.999
21628SOL    HW266659   0.392   3.314   8.018
21629SOL     OW66660   3.193  14.168   7.748
21629SOL    HW166661   3.169  14.112   7.822
21629SOL    HW266662   3.249  14.236   7.786
21630SOL     OW66663   0.548   1.308  10.292
21630SOL    HW166664   0.566   1.238  10.356
21630SOL    HW266665   0.586   1.386  10.331
21631SOL     OW66666   4.392   9.454  13.421
21631SOL    HW166667   4.441   9.423  13.345
21631SOL    HW266668   4.300   9.441  13.398
21632SOL     OW66669   2.640   8.444   0.567
21632SOL    HW166670   2.656   8.464   0.659
21632SOL    HW266671   2.610   8.527   0.529
21633SOL     OW66672  11.050  10.985  12.705
21633SOL    HW166673  10.993  10.962  12.778
21633SOL    HW266674  11.138  10.980  12.742
21634SOL     OW66675   3.334   0.571   8.620
21634SOL    HW166676   3.260   0.512   8.631
21634SOL    HW266677   3.366   0.586   8.709
21635SOL     OW66678   8.541   4.718   6.139
21635SOL    HW166679   8.524   4.810   6.157
21635SOL    HW266680   8.469   4.692   6.081
21636SOL     OW66681   2.337  13.520   6.552
21636SOL    HW166682   2.331  13.426   6.533
21636SOL    HW266683   2.422  13.546   6.517
21637SOL     OW66684   5.407   2.732   7.833
21637SOL    HW166685   5.412   2.827   7.824
21637SOL    HW266686   5.468   2.712   7.904
21638SOL     OW66687  10.695   4.436  11.825
21638SOL    HW166688  10.626   4.417  11.762
21638SOL    HW266689  10.666   4.516  11.869
21639SOL     OW66690  12.809   3.326   4.052
21639SOL    HW166691  12.804   3.246   3.999
21639SOL    HW266692  12.901   3.350   4.051
21640SOL     OW66693   9.868   5.927  11.935
21640SOL    HW166694   9.833   5.857  11.989
21640SOL    HW266695   9.822   5.918  11.851
21641SOL     OW66696   8.703  13.158  11.185
21641SOL    HW166697   8.661  13.100  11.121
21641SOL    HW266698   8.636  13.171  11.252
21642SOL     OW66699   5.043   4.348  10.864
21642SOL    HW166700   5.081   4.347  10.776
21642SOL    HW266701   5.005   4.261  10.875
21643SOL     OW66702  10.023   3.220  14.126
21643SOL    HW166703   9.958   3.274  14.171
21643SOL    HW266704  10.039   3.147  14.185
21644SOL     OW66705  13.081   6.570  10.258
21644SOL    HW166706  13.145   6.628  10.217
21644SOL    HW266707  13.100   6.576  10.352
21645SOL     OW66708   0.232  14.244  13.612
21645SOL    HW166709   0.239  14.155  13.646
21645SOL    HW266710   0.248  14.300  13.688
21646SOL     OW66711   9.608  14.002   8.247
21646SOL    HW166712   9.622  13.950   8.326
21646SOL    HW266713   9.537  14.062   8.271
21647SOL     OW66714  11.688  14.397  11.705
21647SOL    HW166715  11.628  14.340  11.656
21647SOL    HW266716  11.775  14.368  11.679
21648SOL     OW66717   9.763  11.165  14.521
21648SOL    HW166718   9.740  11.192  14.432
21648SOL    HW266719   9.727  11.234  14.577
21649SOL     OW66720   3.112   2.671  13.150
21649SOL    HW166721   3.086   2.579  13.158
21649SOL    HW266722   3.030   2.720  13.154
21650SOL     OW66723  13.940   3.565   3.727
21650SOL    HW166724  14.034   3.559   3.712
21650SOL    HW266725  13.913   3.643   3.679
21651SOL     OW66726   4.738   3.025   7.111
21651SOL    HW166727   4.690   2.964   7.167
21651SOL    HW266728   4.808   3.058   7.167
21652SOL     OW66729   8.527  14.840  11.371
21652SOL    HW166730   8.607  14.787  11.383
21652SOL    HW266731   8.548   0.043  11.410
21653SOL     OW66732  13.519  11.090   5.561
21653SOL    HW166733  13.507  11.182   5.584
21653SOL    HW266734  13.450  11.043   5.609
21654SOL     OW66735   0.380  13.355   6.082
21654SOL    HW166736   0.425  13.359   5.998
21654SOL    HW266737   0.396  13.266   6.114
21655SOL     OW66738  13.949   6.424  14.353
21655SOL    HW166739  14.000   6.392  14.278
21655SOL    HW266740  13.959   6.356  14.419
21656SOL     OW66741  11.140   4.274   7.618
21656SOL    HW166742  11.066   4.245   7.670
21656SOL    HW266743  11.214   4.222   7.651
21657SOL     OW66744   8.231   9.487  13.325
21657SOL    HW166745   8.172   9.561  13.337
21657SOL    HW266746   8.177   9.418  13.285
21658SOL     OW66747   0.946   3.547   0.919
21658SOL    HW166748   1.017   3.495   0.881
21658SOL    HW266749   0.976   3.637   0.914
21659SOL     OW66750   3.561  13.559   8.906
21659SOL    HW166751   3.656  13.563   8.917
21659SOL    HW266752   3.539  13.467   8.920
21660SOL     OW66753   9.677  13.507  14.711
21660SOL    HW166754   9.582  13.512  14.721
21660SOL    HW266755   9.708  13.595  14.735
21661SOL     OW66756   5.456  14.797   4.954
21661SOL    HW166757   5.417  14.867   5.006
21661SOL    HW266758   5.458  14.832   4.865
21662SOL     OW66759   3.630  10.512  11.738
21662SOL    HW166760   3.540  10.543  11.725
21662SOL    HW266761   3.623  10.445  11.806
21663SOL     OW66762   1.494   9.512   9.174
21663SOL    HW166763   1.578   9.478   9.146
21663SOL    HW266764   1.506   9.606   9.180
21664SOL     OW66765   0.237  10.572   6.341
21664SOL    HW166766   0.293  10.628   6.396
21664SOL    HW266767   0.264  10.482   6.363
21665SOL     OW66768   6.036   6.015   1.142
21665SOL    HW166769   6.038   5.937   1.086
21665SOL    HW266770   5.943   6.032   1.156
21666SOL     OW66771  12.847   7.384   9.143
21666SOL    HW166772  12.890   7.302   9.168
21666SOL    HW266773  12.772   7.356   9.090
21667SOL     OW66774   9.725  13.102   4.292
21667SOL    HW166775   9.766  13.132   4.373
21667SOL    HW266776   9.639  13.069   4.319
21668SOL     OW66777   1.424   2.541  11.867
21668SOL    HW166778   1.446   2.551  11.775
21668SOL    HW266779   1.464   2.458  11.893
21669SOL     OW66780   9.151   8.666  12.929
21669SOL    HW166781   9.239   8.662  12.968
21669SOL    HW266782   9.106   8.732  12.981
21670SOL     OW66783   3.350   7.510   7.466
21670SOL    HW166784   3.334   7.545   7.554
21670SOL    HW266785   3.356   7.587   7.410
21671SOL     OW66786  11.652   7.588   4.660
21671SOL    HW166787  11.571   7.537   4.653
21671SOL    HW266788  11.622   7.677   4.678
21672SOL     OW66789   1.016  12.017   8.453
21672SOL    HW166790   1.041  12.037   8.362
21672SOL    HW266791   1.009  11.922   8.455
21673SOL     OW66792   6.128  13.133   4.454
21673SOL    HW166793   6.054  13.135   4.514
21673SOL    HW266794   6.108  13.063   4.392
21674SOL     OW66795   5.615  11.867  11.356
21674SOL    HW166796   5.556  11.795  11.333
21674SOL    HW266797   5.667  11.833  11.429
21675SOL     OW66798   7.439   1.145   1.460
21675SOL    HW166799   7.462   1.176   1.372
21675SOL    HW266800   7.485   1.061   1.469
21676SOL     OW66801  13.815  14.700   6.186
21676SOL    HW166802  13.803  14.701   6.091
21676SOL    HW266803  13.743  14.753   6.220
21677SOL     OW66804   7.618   5.635   0.321
21677SOL    HW166805   7.565   5.583   0.261
21677SOL    HW266806   7.658   5.571   0.380
21678SOL     OW66807   2.905  12.897   4.713
21678SOL    HW166808   2.903  12.852   4.797
21678SOL    HW266809   2.820  12.943   4.708
21679SOL     OW66810   3.189   7.646   2.244
21679SOL    HW166811   3.150   7.569   2.202
21679SOL    HW266812   3.169   7.636   2.337
21680SOL     OW66813  13.426   3.618   2.203
21680SOL    HW166814  13.469   3.546   2.250
21680SOL    HW266815  13.467   3.697   2.239
21681SOL     OW66816  13.000   7.174   2.114
21681SOL    HW166817  13.085   7.162   2.073
21681SOL    HW266818  13.014   7.153   2.206
21682SOL     OW66819   8.595   1.563   7.779
21682SOL    HW166820   8.620   1.587   7.868
21682SOL    HW266821   8.579   1.646   7.735
21683SOL     OW66822   1.763  11.826   9.875
21683SOL    HW166823   1.713  11.815   9.794
21683SOL    HW266824   1.730  11.756   9.933
21684SOL     OW66825  11.316  10.894   7.810
21684SOL    HW166826  11.291  10.894   7.902
21684SOL    HW266827  11.342  10.803   7.792
21685SOL     OW66828   3.584   8.552   9.084
21685SOL    HW166829   3.615   8.486   9.147
21685SOL    HW266830   3.592   8.635   9.130
21686SOL     OW66831   6.443   5.147  14.632
21686SOL    HW166832   6.463   5.230  14.676
21686SOL    HW266833   6.369   5.111  14.680
21687SOL     OW66834   4.732   0.907   5.538
21687SOL    HW166835   4.757   0.861   5.458
21687SOL    HW266836   4.737   1.000   5.514
21688SOL     OW66837   3.673  12.167  12.266
21688SOL    HW166838   3.686  12.185  12.173
21688SOL    HW266839   3.741  12.103  12.288
21689SOL     OW66840   0.378  14.287   6.884
21689SOL    HW166841   0.385  14.378   6.854
21689SOL    HW266842   0.287  14.264   6.867
21690SOL     OW66843  14.272   6.824   4.975
21690SOL    HW166844  14.263   6.777   5.058
21690SOL    HW266845  14.184   6.857   4.956
21691SOL     OW66846   0.467   2.162  13.249
21691SOL    HW166847   0.485   2.095  13.315
21691SOL    HW266848   0.376   2.147  13.223
21692SOL     OW66849  13.552   8.054  11.690
21692SOL    HW166850  13.485   8.047  11.622
21692SOL    HW266851  13.519   8.122  11.749
21693SOL     OW66852   0.528   6.669   8.282
21693SOL    HW166853   0.582   6.686   8.205
21693SOL    HW266854   0.445   6.635   8.247
21694SOL     OW66855   5.250   3.562   9.821
21694SOL    HW166856   5.243   3.587   9.913
21694SOL    HW266857   5.279   3.470   9.824
21695SOL     OW66858   9.299   9.919   3.873
21695SOL    HW166859   9.329  10.003   3.838
21695SOL    HW266860   9.377   9.863   3.874
21696SOL     OW66861   8.040   5.771  13.144
21696SOL    HW166862   8.092   5.763  13.224
21696SOL    HW266863   8.048   5.864  13.121
21697SOL     OW66864   6.972   1.706   5.373
21697SOL    HW166865   7.047   1.744   5.418
21697SOL    HW266866   6.901   1.769   5.386
21698SOL     OW66867   4.954   9.663   6.144
21698SOL    HW166868   4.908   9.668   6.228
21698SOL    HW266869   5.034   9.614   6.164
21699SOL     OW66870   6.215   5.447  13.371
21699SOL    HW166871   6.297   5.496  13.380
21699SOL    HW266872   6.210   5.395  13.451
21700SOL     OW66873   2.845   4.204  10.782
21700SOL    HW166874   2.847   4.214  10.686
21700SOL    HW266875   2.773   4.144  10.798
21701SOL     OW66876  11.673  14.748   9.085
21701SOL    HW166877  11.584  14.726   9.112
21701SOL    HW266878  11.726  14.736   9.163
21702SOL     OW66879  11.744   0.707   7.872
21702SOL    HW166880  11.698   0.690   7.789
21702SOL    HW266881  11.726   0.631   7.926
21703SOL     OW66882  10.134   8.194   3.533
21703SOL    HW166883  10.229   8.198   3.541
21703SOL    HW266884  10.114   8.100   3.532
21704SOL     OW66885   2.643   6.646   3.369
21704SOL    HW166886   2.724   6.697   3.365
21704SOL    HW266887   2.663   6.573   3.428
21705SOL     OW66888   5.607   6.639  10.223
21705SOL    HW166889   5.621   6.551  10.258
21705SOL    HW266890   5.687   6.687  10.244
21706SOL     OW66891  14.278   6.263  10.983
21706SOL    HW166892  14.260   6.325  10.913
21706SOL    HW266893  14.240   6.303  11.061
21707SOL     OW66894   0.932   9.535   1.257
21707SOL    HW166895   0.908   9.461   1.202
21707SOL    HW266896   0.897   9.612   1.211
21708SOL     OW66897  13.057  13.392   6.985
21708SOL    HW166898  13.060  13.357   7.073
21708SOL    HW266899  13.040  13.485   6.996
21709SOL     OW66900   2.966   3.979  14.073
21709SOL    HW166901   3.024   3.911  14.106
21709SOL    HW266902   2.934   4.024  14.152
21710SOL     OW66903  13.712  14.065  11.419
21710SOL    HW166904  13.686  14.123  11.347
21710SOL    HW266905  13.804  14.088  11.435
21711SOL     OW66906   8.709   9.018   7.938
21711SOL    HW166907   8.729   8.933   7.979
21711SOL    HW266908   8.757   9.017   7.856
21712SOL     OW66909   5.091   3.550  10.434
21712SOL    HW166910   5.167   3.501  10.403
21712SOL    HW266911   5.128   3.625  10.480
21713SOL     OW66912   2.730   4.092   8.607
21713SOL    HW166913   2.789   4.159   8.572
21713SOL    HW266914   2.655   4.093   8.548
21714SOL     OW66915  13.897   1.736  11.952
21714SOL    HW166916  13.832   1.687  11.901
21714SOL    HW266917  13.928   1.673  12.018
21715SOL     OW66918   9.405   0.627  12.570
21715SOL    HW166919   9.446   0.547  12.603
21715SOL    HW266920   9.449   0.698  12.619
21716SOL     OW66921  10.341   8.045  10.232
21716SOL    HW166922  10.374   7.995  10.306
21716SOL    HW266923  10.313   7.979  10.168
21717SOL     OW66924   2.128   0.822   0.550
21717SOL    HW166925   2.150   0.807   0.642
21717SOL    HW266926   2.167   0.748   0.503
21718SOL     OW66927  10.779   0.893  10.797
21718SOL    HW166928  10.859   0.856  10.835
21718SOL    HW266929  10.709   0.838  10.832
21719SOL     OW66930  13.346  14.330  11.172
21719SOL    HW166931  13.269  14.303  11.122
21719SOL    HW266932  13.313  14.347  11.260
21720SOL     OW66933   6.132   3.444   0.408
21720SOL    HW166934   6.130   3.434   0.503
21720SOL    HW266935   6.183   3.369   0.378
21721SOL     OW66936   3.265   5.519  13.927
21721SOL    HW166937   3.236   5.570  14.002
21721SOL    HW266938   3.340   5.468  13.959
21722SOL     OW66939  10.592  10.701  11.661
21722SOL    HW166940  10.531  10.773  11.678
21722SOL    HW266941  10.656  10.739  11.601
21723SOL     OW66942   5.023   8.582  13.948
21723SOL    HW166943   4.973   8.512  13.904
21723SOL    HW266944   5.084   8.535  14.004
21724SOL     OW66945  14.106   5.500   1.826
21724SOL    HW166946  14.019   5.461   1.831
21724SOL    HW266947  14.096   5.586   1.866
21725SOL     OW66948  11.848  11.444   7.483
21725SOL    HW166949  11.856  11.461   7.577
21725SOL    HW266950  11.759  11.472   7.461
21726SOL     OW66951  14.249  14.808  12.942
21726SOL    HW166952  14.261   0.010  12.897
21726SOL    HW266953  14.182  14.762  12.890
21727SOL     OW66954  11.305  10.933   4.430
21727SOL    HW166955  11.342  10.876   4.498
21727SOL    HW266956  11.359  10.916   4.353
21728SOL     OW66957   5.301  11.401   2.699
21728SOL    HW166958   5.351  11.437   2.626
21728SOL    HW266959   5.348  11.431   2.777
21729SOL     OW66960   2.721   5.605  11.336
21729SOL    HW166961   2.805   5.601  11.382
21729SOL    HW266962   2.720   5.528  11.280
21730SOL     OW66963   7.267  11.100  10.716
21730SOL    HW166964   7.355  11.098  10.678
21730SOL    HW266965   7.263  11.182  10.765
21731SOL     OW66966  10.280   6.488  13.283
21731SOL    HW166967  10.246   6.423  13.345
21731SOL    HW266968  10.211   6.555  13.278
21732SOL     OW66969   5.174   9.705   9.540
21732SOL    HW166970   5.219   9.772   9.489
21732SOL    HW266971   5.093   9.746   9.568
21733SOL     OW66972  13.363   5.355  14.164
21733SOL    HW166973  13.364   5.430  14.223
21733SOL    HW266974  13.271   5.344  14.140
21734SOL     OW66975   5.941   3.513  12.759
21734SOL    HW166976   5.991   3.487  12.835
21734SOL    HW266977   5.978   3.462  12.687
21735SOL     OW66978   7.553   7.706   8.669
21735SOL    HW166979   7.625   7.765   8.692
21735SOL    HW266980   7.507   7.691   8.751
21736SOL     OW66981   0.902   8.647  13.700
21736SOL    HW166982   0.973   8.602  13.655
21736SOL    HW266983   0.929   8.738  13.703
21737SOL     OW66984   0.816  13.122   3.439
21737SOL    HW166985   0.890  13.076   3.398
21737SOL    HW266986   0.841  13.131   3.531
21738SOL     OW66987   5.611  14.844   9.258
21738SOL    HW166988   5.518  14.835   9.237
21738SOL    HW266989   5.614  14.835   9.353
21739SOL     OW66990  11.505  13.639   5.830
21739SOL    HW166991  11.452  13.616   5.754
21739SOL    HW266992  11.504  13.560   5.884
21740SOL     OW66993  10.115  10.487   6.512
21740SOL    HW166994  10.204  10.456   6.493
21740SOL    HW266995  10.073  10.413   6.556
21741SOL     OW66996   3.030   8.453   3.660
21741SOL    HW166997   3.058   8.533   3.706
21741SOL    HW266998   3.112   8.415   3.628
21742SOL     OW66999  14.621   7.104  10.087
21742SOL    HW167000  14.691   7.094  10.022
21742SOL    HW267001  14.646   7.180  10.138
21743SOL     OW67002   7.785   7.714   0.978
21743SOL    HW167003   7.847   7.650   0.943
21743SOL    HW267004   7.717   7.722   0.912
21744SOL     OW67005  12.584   4.415   2.823
21744SOL    HW167006  12.598   4.461   2.740
21744SOL    HW267007  12.523   4.471   2.872
21745SOL     OW67008   2.229   2.320   9.191
21745SOL    HW167009   2.217   2.302   9.284
21745SOL    HW267010   2.300   2.384   9.188
21746SOL     OW67011   3.934  12.262   1.214
21746SOL    HW167012   3.934  12.182   1.162
21746SOL    HW267013   3.912  12.331   1.151
21747SOL     OW67014   9.998   1.526   8.666
21747SOL    HW167015   9.993   1.597   8.602
21747SOL    HW267016  10.089   1.528   8.695
21748SOL     OW67017  10.348   8.705   5.804
21748SOL    HW167018  10.419   8.673   5.860
21748SOL    HW267019  10.315   8.628   5.759
21749SOL     OW67020  13.689   5.679   3.431
21749SOL    HW167021  13.772   5.652   3.471
21749SOL    HW267022  13.624   5.668   3.500
21750SOL     OW67023   5.750   6.756  12.913
21750SOL    HW167024   5.760   6.752  12.818
21750SOL    HW267025   5.795   6.678  12.945
21751SOL     OW67026   0.425   9.112   2.110
21751SOL    HW167027   0.393   9.200   2.090
21751SOL    HW267028   0.346   9.063   2.131
21752SOL     OW67029  10.264   9.661   8.669
21752SOL    HW167030  10.355   9.667   8.641
21752SOL    HW267031  10.215   9.648   8.587
21753SOL     OW67032   1.310   7.418  11.596
21753SOL    HW167033   1.278   7.432  11.506
21753SOL    HW267034   1.319   7.506  11.632
21754SOL     OW67035  11.025   8.954   4.135
21754SOL    HW167036  10.992   9.042   4.153
21754SOL    HW267037  10.954   8.896   4.161
21755SOL     OW67038   3.483   0.276   4.293
21755SOL    HW167039   3.486   0.227   4.375
21755SOL    HW267040   3.569   0.262   4.254
21756SOL     OW67041   2.576   2.223   4.860
21756SOL    HW167042   2.603   2.223   4.952
21756SOL    HW267043   2.508   2.290   4.855
21757SOL     OW67044   2.033   0.516  10.800
21757SOL    HW167045   1.950   0.476  10.774
21757SOL    HW267046   2.100   0.467  10.754
21758SOL     OW67047   7.335   2.686   1.753
21758SOL    HW167048   7.275   2.761   1.744
21758SOL    HW267049   7.376   2.698   1.839
21759SOL     OW67050   3.676   1.298   8.990
21759SOL    HW167051   3.629   1.266   8.913
21759SOL    HW267052   3.680   1.223   9.049
21760SOL     OW67053   7.768  13.143   7.684
21760SOL    HW167054   7.775  13.100   7.599
21760SOL    HW267055   7.857  13.140   7.720
21761SOL     OW67056   6.181  10.169   4.717
21761SOL    HW167057   6.258  10.148   4.665
21761SOL    HW267058   6.215  10.222   4.789
21762SOL     OW67059   5.221  14.369   9.967
21762SOL    HW167060   5.289  14.365   9.901
21762SOL    HW267061   5.178  14.453   9.952
21763SOL     OW67062  14.469  11.053   5.971
21763SOL    HW167063  14.471  11.120   6.040
21763SOL    HW267064  14.550  11.066   5.922
21764SOL     OW67065  11.671   9.384   3.817
21764SOL    HW167066  11.665   9.470   3.859
21764SOL    HW267067  11.739   9.393   3.751
21765SOL     OW67068   2.373  12.457   6.268
21765SOL    HW167069   2.427  12.397   6.217
21765SOL    HW267070   2.387  12.542   6.227
21766SOL     OW67071  10.061   9.982   7.051
21766SOL    HW167072  10.007  10.052   7.015
21766SOL    HW267073  10.084  10.013   7.138
21767SOL     OW67074   0.039   6.337  10.575
21767SOL    HW167075   0.061   6.287  10.653
21767SOL    HW267076  14.866   6.409  10.608
21768SOL     OW67077   0.669   7.768  11.616
21768SOL    HW167078   0.746   7.806  11.657
21768SOL    HW267079   0.645   7.829  11.547
21769SOL     OW67080  14.035   6.931   7.900
21769SOL    HW167081  13.943   6.903   7.903
21769SOL    HW267082  14.066   6.919   7.990
21770SOL     OW67083   2.480   0.108  13.066
21770SOL    HW167084   2.514   0.092  12.978
21770SOL    HW267085   2.485   0.023  13.110
21771SOL     OW67086  11.949   9.375   3.096
21771SOL    HW167087  11.887   9.318   3.142
21771SOL    HW267088  11.955   9.453   3.152
21772SOL     OW67089  10.500  14.020  14.012
21772SOL    HW167090  10.481  14.011  13.919
21772SOL    HW267091  10.546  13.940  14.035
21773SOL     OW67092  11.707   4.039   1.732
21773SOL    HW167093  11.662   3.982   1.794
21773SOL    HW267094  11.705   3.990   1.649
21774SOL     OW67095   6.484   6.817  12.934
21774SOL    HW167096   6.400   6.774  12.951
21774SOL    HW267097   6.492   6.816  12.839
21775SOL     OW67098   9.182   6.859   5.808
21775SOL    HW167099   9.151   6.827   5.893
21775SOL    HW267100   9.276   6.870   5.820
21776SOL     OW67101   3.272   2.378  13.042
21776SOL    HW167102   3.185   2.338  13.048
21776SOL    HW267103   3.333   2.305  13.056
21777SOL     OW67104   8.022   9.766   6.933
21777SOL    HW167105   7.946   9.740   6.985
21777SOL    HW267106   7.988   9.831   6.871
21778SOL     OW67107   5.906  13.574  12.817
21778SOL    HW167108   5.898  13.491  12.771
21778SOL    HW267109   5.911  13.549  12.910
21779SOL     OW67110   3.448  14.880  12.676
21779SOL    HW167111   3.536   0.036  12.674
21779SOL    HW267112   3.459  14.795  12.719
21780SOL     OW67113   5.190   3.428   3.672
21780SOL    HW167114   5.210   3.518   3.696
21780SOL    HW267115   5.209   3.423   3.578
21781SOL     OW67116   4.427   6.908   5.528
21781SOL    HW167117   4.467   6.880   5.610
21781SOL    HW267118   4.336   6.877   5.533
21782SOL     OW67119   5.873   7.661   4.385
21782SOL    HW167120   5.926   7.582   4.379
21782SOL    HW267121   5.830   7.655   4.471
21783SOL     OW67122  11.664   2.595   5.717
21783SOL    HW167123  11.713   2.677   5.727
21783SOL    HW267124  11.730   2.531   5.690
21784SOL     OW67125   1.544   8.752   8.287
21784SOL    HW167126   1.569   8.699   8.211
21784SOL    HW267127   1.623   8.756   8.341
21785SOL     OW67128   3.527   3.254   8.947
21785SOL    HW167129   3.553   3.214   9.030
21785SOL    HW267130   3.431   3.252   8.947
21786SOL     OW67131   2.569   9.028  10.738
21786SOL    HW167132   2.619   8.948  10.721
21786SOL    HW267133   2.599   9.057  10.825
21787SOL     OW67134  12.402  14.735   4.726
21787SOL    HW167135  12.336  14.684   4.680
21787SOL    HW267136  12.463  14.764   4.658
21788SOL     OW67137  11.870   6.462  11.962
21788SOL    HW167138  11.948   6.509  11.934
21788SOL    HW267139  11.802   6.488  11.900
21789SOL     OW67140   8.044   0.932  14.766
21789SOL    HW167141   8.110   0.952  14.833
21789SOL    HW267142   7.974   0.888  14.813
21790SOL     OW67143   6.523   1.804   4.784
21790SOL    HW167144   6.563   1.742   4.724
21790SOL    HW267145   6.546   1.772   4.872
21791SOL     OW67146  11.445   2.357   6.571
21791SOL    HW167147  11.397   2.424   6.522
21791SOL    HW267148  11.445   2.389   6.661
21792SOL     OW67149  13.084   6.997   7.024
21792SOL    HW167150  13.106   7.066   6.962
21792SOL    HW267151  12.989   6.987   7.014
21793SOL     OW67152   4.216   6.577   6.134
21793SOL    HW167153   4.136   6.625   6.156
21793SOL    HW267154   4.197   6.486   6.155
21794SOL     OW67155   3.600   9.325   9.650
21794SOL    HW167156   3.664   9.267   9.608
21794SOL    HW267157   3.644   9.410   9.654
21795SOL     OW67158   8.967   3.533   8.122
21795SOL    HW167159   9.016   3.453   8.107
21795SOL    HW267160   8.998   3.565   8.207
21796SOL     OW67161   8.645  10.638   2.004
21796SOL    HW167162   8.679  10.717   1.963
21796SOL    HW267163   8.621  10.581   1.930
21797SOL     OW67164   4.723   5.591   0.817
21797SOL    HW167165   4.688   5.534   0.748
21797SOL    HW267166   4.762   5.530   0.880
21798SOL     OW67167  13.817  14.009   9.885
21798SOL    HW167168  13.780  14.089   9.848
21798SOL    HW267169  13.890  13.987   9.826
21799SOL     OW67170   5.991  11.666   5.485
21799SOL    HW167171   5.941  11.747   5.499
21799SOL    HW267172   6.078  11.686   5.520
21800SOL     OW67173   2.186  10.218  12.848
21800SOL    HW167174   2.163  10.126  12.860
21800SOL    HW267175   2.160  10.239  12.759
21801SOL     OW67176   3.604   0.637   5.191
21801SOL    HW167177   3.669   0.706   5.176
21801SOL    HW267178   3.642   0.584   5.262
21802SOL     OW67179   9.532   5.832  10.071
21802SOL    HW167180   9.542   5.885  10.151
21802SOL    HW267181   9.465   5.879  10.021
21803SOL     OW67182   2.849  14.693   4.842
21803SOL    HW167183   2.760  14.709   4.812
21803SOL    HW267184   2.839  14.647   4.925
21804SOL     OW67185   7.746  12.022   4.092
21804SOL    HW167186   7.714  12.068   4.014
21804SOL    HW267187   7.754  12.090   4.159
21805SOL     OW67188  11.261  10.618  10.644
21805SOL    HW167189  11.342  10.634  10.596
21805SOL    HW267190  11.259  10.685  10.711
21806SOL     OW67191   7.543   0.039  14.698
21806SOL    HW167192   7.553   0.121  14.747
21806SOL    HW267193   7.557  14.852  14.763
21807SOL     OW67194   1.841   5.236   9.735
21807SOL    HW167195   1.889   5.166   9.781
21807SOL    HW267196   1.778   5.189   9.680
21808SOL     OW67197   5.543  12.422   3.039
21808SOL    HW167198   5.567  12.492   2.978
21808SOL    HW267199   5.561  12.459   3.125
21809SOL     OW67200   0.236  11.238  12.849
21809SOL    HW167201   0.321  11.193  12.849
21809SOL    HW267202   0.248  11.311  12.789
21810SOL     OW67203  10.269  11.502   2.177
21810SOL    HW167204  10.289  11.578   2.231
21810SOL    HW267205  10.299  11.427   2.229
21811SOL     OW67206  13.497   2.788   5.726
21811SOL    HW167207  13.428   2.847   5.696
21811SOL    HW267208  13.464   2.700   5.706
21812SOL     OW67209   4.842   8.897   0.677
21812SOL    HW167210   4.799   8.934   0.600
21812SOL    HW267211   4.813   8.806   0.679
21813SOL     OW67212   8.586   4.026   7.772
21813SOL    HW167213   8.571   4.118   7.793
21813SOL    HW267214   8.658   4.028   7.709
21814SOL     OW67215  14.605  10.322   3.308
21814SOL    HW167216  14.552  10.352   3.234
21814SOL    HW267217  14.679  10.277   3.267
21815SOL     OW67218   4.801   0.671   2.127
21815SOL    HW167219   4.751   0.637   2.053
21815SOL    HW267220   4.814   0.595   2.184
21816SOL     OW67221   9.427   7.542   6.841
21816SOL    HW167222   9.343   7.557   6.885
21816SOL    HW267223   9.447   7.624   6.797
21817SOL     OW67224   0.932  12.336   5.285
21817SOL    HW167225   0.913  12.372   5.372
21817SOL    HW267226   0.902  12.246   5.289
21818SOL     OW67227  11.812   3.865   7.193
21818SOL    HW167228  11.821   3.925   7.266
21818SOL    HW267229  11.872   3.898   7.127
21819SOL     OW67230  11.410   1.155   3.172
21819SOL    HW167231  11.395   1.249   3.166
21819SOL    HW267232  11.340   1.123   3.229
21820SOL     OW67233  11.045   6.542  11.762
21820SOL    HW167234  11.078   6.608  11.823
21820SOL    HW267235  11.021   6.590  11.684
21821SOL     OW67236  10.935   5.175   2.046
21821SOL    HW167237  10.951   5.173   1.952
21821SOL    HW267238  10.840   5.185   2.054
21822SOL     OW67239  12.942   1.877   8.923
21822SOL    HW167240  12.897   1.939   8.981
21822SOL    HW267241  13.028   1.916   8.908
21823SOL     OW67242   4.631  10.426   8.245
21823SOL    HW167243   4.700  10.366   8.218
21823SOL    HW267244   4.556  10.403   8.191
21824SOL     OW67245   1.669   3.683  12.925
21824SOL    HW167246   1.759   3.658  12.907
21824SOL    HW267247   1.652   3.649  13.013
21825SOL     OW67248   0.170   2.366   3.793
21825SOL    HW167249   0.174   2.281   3.838
21825SOL    HW267250   0.089   2.362   3.741
21826SOL     OW67251   1.070   8.829  12.578
21826SOL    HW167252   1.055   8.902  12.519
21826SOL    HW267253   0.990   8.778  12.574
21827SOL     OW67254   7.371   5.546   4.865
21827SOL    HW167255   7.394   5.558   4.957
21827SOL    HW267256   7.454   5.550   4.818
21828SOL     OW67257   5.655   6.023   5.416
21828SOL    HW167258   5.625   5.942   5.457
21828SOL    HW267259   5.576   6.076   5.407
21829SOL     OW67260  12.664   6.265   9.304
21829SOL    HW167261  12.647   6.327   9.375
21829SOL    HW267262  12.596   6.283   9.240
21830SOL     OW67263   6.117  13.535   7.603
21830SOL    HW167264   6.115  13.629   7.622
21830SOL    HW267265   6.166  13.497   7.676
21831SOL     OW67266  11.652  12.597   8.847
21831SOL    HW167267  11.564  12.567   8.826
21831SOL    HW267268  11.672  12.662   8.780
21832SOL     OW67269   7.538  13.655  11.342
21832SOL    HW167270   7.580  13.740  11.329
21832SOL    HW267271   7.559  13.605  11.263
21833SOL     OW67272   6.274   9.567  12.574
21833SOL    HW167273   6.306   9.480  12.552
21833SOL    HW267274   6.180   9.555  12.587
21834SOL     OW67275   4.980  12.093   1.758
21834SOL    HW167276   4.908  12.132   1.806
21834SOL    HW267277   4.997  12.154   1.686
21835SOL     OW67278  12.066  11.274   4.572
21835SOL    HW167279  12.127  11.309   4.637
21835SOL    HW267280  12.056  11.182   4.596
21836SOL     OW67281   2.553   2.885  10.305
21836SOL    HW167282   2.635   2.902  10.352
21836SOL    HW267283   2.484   2.903  10.369
21837SOL     OW67284   8.146  12.979   0.615
21837SOL    HW167285   8.162  13.055   0.672
21837SOL    HW267286   8.058  12.949   0.639
21838SOL     OW67287   6.648   4.151   1.904
21838SOL    HW167288   6.725   4.096   1.920
21838SOL    HW267289   6.670   4.236   1.943
21839SOL     OW67290   5.637   6.717   0.998
21839SOL    HW167291   5.717   6.685   1.040
21839SOL    HW267292   5.658   6.807   0.972
21840SOL     OW67293   2.557   5.860  10.398
21840SOL    HW167294   2.469   5.823  10.390
21840SOL    HW267295   2.571   5.868  10.492
21841SOL     OW67296   9.153  11.493   4.963
21841SOL    HW167297   9.086  11.476   4.896
21841SOL    HW267298   9.108  11.477   5.046
21842SOL     OW67299   0.303  11.754   1.144
21842SOL    HW167300   0.387  11.736   1.103
21842SOL    HW267301   0.318  11.832   1.197
21843SOL     OW67302  14.068  10.116   6.001
21843SOL    HW167303  14.111  10.151   6.079
21843SOL    HW267304  14.113  10.033   5.983
21844SOL     OW67305   5.196   0.688  14.346
21844SOL    HW167306   5.270   0.740  14.315
21844SOL    HW267307   5.166   0.641  14.269
21845SOL     OW67308   0.204  12.222  10.352
21845SOL    HW167309   0.176  12.313  10.345
21845SOL    HW267310   0.273  12.224  10.419
21846SOL     OW67311   4.098   2.975  14.017
21846SOL    HW167312   4.026   3.025  13.980
21846SOL    HW267313   4.168   3.039  14.032
21847SOL     OW67314   2.655   2.404  12.718
21847SOL    HW167315   2.683   2.319  12.753
21847SOL    HW267316   2.722   2.426  12.653
21848SOL     OW67317   8.532  12.791   9.297
21848SOL    HW167318   8.564  12.726   9.360
21848SOL    HW267319   8.444  12.761   9.274
21849SOL     OW67320  11.158   7.664  11.424
21849SOL    HW167321  11.084   7.604  11.435
21849SOL    HW267322  11.131   7.724  11.355
21850SOL     OW67323  13.458   9.245   6.881
21850SOL    HW167324  13.404   9.304   6.829
21850SOL    HW267325  13.404   9.222   6.956
21851SOL     OW67326   5.620   0.339   0.159
21851SOL    HW167327   5.538   0.290   0.157
21851SOL    HW267328   5.640   0.357   0.068
21852SOL     OW67329  13.713   9.435   2.535
21852SOL    HW167330  13.663   9.398   2.462
21852SOL    HW267331  13.684   9.384   2.611
21853SOL     OW67332   9.999   4.141  10.805
21853SOL    HW167333  10.002   4.073  10.738
21853SOL    HW267334   9.961   4.098  10.881
21854SOL     OW67335  11.018   6.958  14.741
21854SOL    HW167336  11.041   6.980  14.651
21854SOL    HW267337  10.930   6.922  14.735
21855SOL     OW67338   5.343  10.941  11.167
21855SOL    HW167339   5.426  10.893  11.177
21855SOL    HW267340   5.300  10.932  11.251
21856SOL     OW67341   6.757   7.512  10.305
21856SOL    HW167342   6.814   7.589  10.311
21856SOL    HW267343   6.714   7.507  10.390
21857SOL     OW67344   6.695   1.723   1.747
21857SOL    HW167345   6.734   1.747   1.831
21857SOL    HW267346   6.607   1.762   1.749
21858SOL     OW67347   5.712  12.378   5.659
21858SOL    HW167348   5.798  12.418   5.641
21858SOL    HW267349   5.700  12.388   5.753
21859SOL     OW67350  12.430   3.671  14.060
21859SOL    HW167351  12.410   3.765  14.069
21859SOL    HW267352  12.377   3.629  14.128
21860SOL     OW67353   7.000  13.341  14.551
21860SOL    HW167354   6.949  13.262  14.571
21860SOL    HW267355   7.077  13.334  14.606
21861SOL     OW67356   6.173  14.015  10.409
21861SOL    HW167357   6.175  13.940  10.467
21861SOL    HW267358   6.122  14.081  10.457
21862SOL     OW67359  10.554  13.199   1.225
21862SOL    HW167360  10.501  13.279   1.216
21862SOL    HW267361  10.521  13.158   1.306
21863SOL     OW67362   0.090   0.509   4.236
21863SOL    HW167363  14.880   0.496   4.264
21863SOL    HW267364   0.085   0.578   4.170
21864SOL     OW67365  12.996  10.851   9.343
21864SOL    HW167366  13.055  10.851   9.268
21864SOL    HW267367  12.908  10.846   9.304
21865SOL     OW67368   2.168   6.284  13.874
21865SOL    HW167369   2.090   6.294  13.929
21865SOL    HW267370   2.173   6.366  13.824
21866SOL     OW67371  14.230   7.638   7.996
21866SOL    HW167372  14.260   7.664   7.909
21866SOL    HW267373  14.261   7.548   8.006
21867SOL     OW67374  10.170   4.260   9.224
21867SOL    HW167375  10.244   4.201   9.208
21867SOL    HW267376  10.117   4.252   9.145
21868SOL     OW67377   7.764  11.709   9.179
21868SOL    HW167378   7.688  11.764   9.196
21868SOL    HW267379   7.730  11.638   9.124
21869SOL     OW67380   6.437   6.078   1.244
21869SOL    HW167381   6.493   6.139   1.292
21869SOL    HW267382   6.451   6.100   1.152
21870SOL     OW67383  11.740   7.213   6.959
21870SOL    HW167384  11.657   7.252   6.929
21870SOL    HW267385  11.776   7.172   6.881
21871SOL     OW67386   2.113   8.683  10.548
21871SOL    HW167387   2.149   8.756  10.497
21871SOL    HW267388   2.061   8.725  10.617
21872SOL     OW67389   5.629   0.690   3.098
21872SOL    HW167390   5.679   0.609   3.108
21872SOL    HW267391   5.678   0.756   3.147
21873SOL     OW67392  12.379  10.192  12.939
21873SOL    HW167393  12.449  10.136  12.906
21873SOL    HW267394  12.388  10.273  12.889
21874SOL     OW67395  10.891  10.342   0.494
21874SOL    HW167396  10.923  10.316   0.408
21874SOL    HW267397  10.907  10.436   0.499
21875SOL     OW67398   5.781   5.930   6.806
21875SOL    HW167399   5.827   5.847   6.801
21875SOL    HW267400   5.716   5.925   6.736
21876SOL     OW67401   6.531   6.804   4.919
21876SOL    HW167402   6.512   6.733   4.858
21876SOL    HW267403   6.595   6.766   4.980
21877SOL     OW67404  10.896   1.422   5.076
21877SOL    HW167405  10.942   1.344   5.108
21877SOL    HW267406  10.874   1.471   5.155
21878SOL     OW67407   8.712  12.974   3.798
21878SOL    HW167408   8.784  12.937   3.850
21878SOL    HW267409   8.752  12.993   3.713
21879SOL     OW67410   5.560  14.832   9.808
21879SOL    HW167411   5.598  14.801   9.891
21879SOL    HW267412   5.515  14.755   9.773
21880SOL     OW67413   8.804   2.000  11.278
21880SOL    HW167414   8.789   1.974  11.368
21880SOL    HW267415   8.899   1.992  11.266
21881SOL     OW67416  13.364   0.959   0.367
21881SOL    HW167417  13.307   0.912   0.306
21881SOL    HW267418  13.303   1.005   0.425
21882SOL     OW67419   4.442   9.392   4.568
21882SOL    HW167420   4.355   9.431   4.565
21882SOL    HW267421   4.488   9.429   4.492
21883SOL     OW67422   4.527   6.873   0.451
21883SOL    HW167423   4.495   6.960   0.475
21883SOL    HW267424   4.622   6.881   0.448
21884SOL     OW67425   4.569  14.735   7.101
21884SOL    HW167426   4.529  14.787   7.170
21884SOL    HW267427   4.662  14.754   7.106
21885SOL     OW67428   9.841   7.509  10.630
21885SOL    HW167429   9.757   7.531  10.670
21885SOL    HW267430   9.899   7.491  10.703
21886SOL     OW67431  13.182   7.193   1.645
21886SOL    HW167432  13.145   7.104   1.641
21886SOL    HW267433  13.105   7.250   1.651
21887SOL     OW67434  14.024   2.404   8.142
21887SOL    HW167435  13.984   2.317   8.145
21887SOL    HW267436  14.096   2.395   8.080
21888SOL     OW67437   3.191   9.169   0.942
21888SOL    HW167438   3.267   9.122   0.907
21888SOL    HW267439   3.149   9.207   0.864
21889SOL     OW67440  13.919   6.035   5.554
21889SOL    HW167441  13.985   6.098   5.585
21889SOL    HW267442  13.916   6.050   5.459
21890SOL     OW67443  14.444   3.458   3.529
21890SOL    HW167444  14.431   3.530   3.589
21890SOL    HW267445  14.538   3.442   3.530
21891SOL     OW67446   0.629   2.707   5.800
21891SOL    HW167447   0.585   2.791   5.815
21891SOL    HW267448   0.615   2.690   5.707
21892SOL     OW67449   5.338   1.496   1.763
21892SOL    HW167450   5.319   1.449   1.682
21892SOL    HW267451   5.337   1.428   1.830
21893SOL     OW67452  12.625   0.403  12.912
21893SOL    HW167453  12.668   0.323  12.943
21893SOL    HW267454  12.547   0.410  12.967
21894SOL     OW67455  13.500   5.962   8.323
21894SOL    HW167456  13.518   6.056   8.331
21894SOL    HW267457  13.572   5.920   8.371
21895SOL     OW67458  14.450  11.759   2.458
21895SOL    HW167459  14.481  11.808   2.381
21895SOL    HW267460  14.360  11.789   2.471
21896SOL     OW67461   0.333   7.939  12.872
21896SOL    HW167462   0.351   8.030  12.896
21896SOL    HW267463   0.398   7.918  12.805
21897SOL     OW67464   7.031   8.491   5.984
21897SOL    HW167465   7.057   8.581   6.003
21897SOL    HW267466   7.080   8.438   6.047
21898SOL     OW67467  10.894   0.111   3.096
21898SOL    HW167468  10.971   0.163   3.120
21898SOL    HW267469  10.884   0.050   3.169
21899SOL     OW67470   8.643   8.929   0.479
21899SOL    HW167471   8.690   8.972   0.408
21899SOL    HW267472   8.685   8.960   0.559
21900SOL     OW67473   7.567   0.765  12.777
21900SOL    HW167474   7.571   0.811  12.693
21900SOL    HW267475   7.533   0.678  12.754
21901SOL     OW67476   4.420   7.981  12.571
21901SOL    HW167477   4.357   7.911  12.553
21901SOL    HW267478   4.377   8.061  12.539
21902SOL     OW67479   5.710  12.393   5.930
21902SOL    HW167480   5.624  12.366   5.963
21902SOL    HW267481   5.766  12.391   6.008
21903SOL     OW67482   7.009   4.341  11.505
21903SOL    HW167483   7.033   4.330  11.413
21903SOL    HW267484   6.917   4.315  11.510
21904SOL     OW67485   7.449   1.937   0.895
21904SOL    HW167486   7.433   1.925   0.802
21904SOL    HW267487   7.528   1.992   0.899
21905SOL     OW67488   3.602   2.001  13.256
21905SOL    HW167489   3.642   2.071  13.308
21905SOL    HW267490   3.670   1.934  13.250
21906SOL     OW67491   3.445  10.314   8.813
21906SOL    HW167492   3.540  10.318   8.824
21906SOL    HW267493   3.417  10.406   8.808
21907SOL     OW67494  12.361   8.548   7.433
21907SOL    HW167495  12.448   8.535   7.471
21907SOL    HW267496  12.308   8.582   7.505
21908SOL     OW67497   2.115   5.942  14.288
21908SOL    HW167498   2.061   5.952  14.210
21908SOL    HW267499   2.060   5.974  14.360
21909SOL     OW67500  11.664  10.596   7.447
21909SOL    HW167501  11.679  10.545   7.367
21909SOL    HW267502  11.574  10.626   7.439
21910SOL     OW67503   2.686   7.827   7.149
21910SOL    HW167504   2.606   7.775   7.146
21910SOL    HW267505   2.755   7.763   7.171
21911SOL     OW67506  11.397   9.879   8.789
21911SOL    HW167507  11.412   9.853   8.698
21911SOL    HW267508  11.302   9.876   8.799
21912SOL     OW67509  13.167  14.708   2.322
21912SOL    HW167510  13.212  14.677   2.243
21912SOL    HW267511  13.186  14.641   2.388
21913SOL     OW67512   8.090  12.879  13.629
21913SOL    HW167513   8.115  12.854  13.540
21913SOL    HW267514   8.032  12.808  13.658
21914SOL     OW67515   4.216  11.742  12.640
21914SOL    HW167516   4.233  11.736  12.734
21914SOL    HW267517   4.302  11.731  12.599
21915SOL     OW67518  13.077   9.573  10.275
21915SOL    HW167519  13.094   9.490  10.319
21915SOL    HW267520  12.994   9.559  10.228
21916SOL     OW67521  12.018   3.920  12.282
21916SOL    HW167522  11.967   3.839  12.275
21916SOL    HW267523  12.074   3.905  12.358
21917SOL     OW67524   7.244  14.565   3.013
21917SOL    HW167525   7.297  14.548   3.090
21917SOL    HW267526   7.222  14.479   2.979
21918SOL     OW67527  12.286   2.384  11.234
21918SOL    HW167528  12.296   2.317  11.167
21918SOL    HW267529  12.302   2.467  11.188
21919SOL     OW67530   3.644   2.578   7.123
21919SOL    HW167531   3.625   2.631   7.201
21919SOL    HW267532   3.572   2.516   7.119
21920SOL     OW67533   8.924   2.911  10.397
21920SOL    HW167534   8.989   2.979  10.384
21920SOL    HW267535   8.944   2.874  10.483
21921SOL     OW67536  12.483  13.885   1.372
21921SOL    HW167537  12.503  13.792   1.362
21921SOL    HW267538  12.564  13.924   1.403
21922SOL     OW67539  13.226  10.277   6.807
21922SOL    HW167540  13.250  10.369   6.811
21922SOL    HW267541  13.136  10.276   6.776
21923SOL     OW67542  10.006   9.422   8.384
21923SOL    HW167543  10.037   9.358   8.320
21923SOL    HW267544   9.928   9.460   8.344
21924SOL     OW67545  11.060   3.019   5.526
21924SOL    HW167546  10.995   3.076   5.568
21924SOL    HW267547  11.122   3.080   5.486
21925SOL     OW67548   0.915  10.690   8.352
21925SOL    HW167549   0.846  10.707   8.416
21925SOL    HW267550   0.869  10.657   8.275
21926SOL     OW67551   8.463   7.677   2.579
21926SOL    HW167552   8.432   7.739   2.644
21926SOL    HW267553   8.558   7.682   2.583
21927SOL     OW67554   2.712   1.005   7.667
21927SOL    HW167555   2.619   1.006   7.646
21927SOL    HW267556   2.754   1.043   7.590
21928SOL     OW67557  10.326  14.716  12.436
21928SOL    HW167558  10.294  14.663  12.362
21928SOL    HW267559  10.382  14.782  12.395
21929SOL     OW67560   9.593   5.687   5.843
21929SOL    HW167561   9.667   5.731   5.802
21929SOL    HW267562   9.603   5.707   5.936
21930SOL     OW67563   8.858   7.072   3.942
21930SOL    HW167564   8.911   7.085   3.864
21930SOL    HW267565   8.781   7.128   3.929
21931SOL     OW67566   7.683   0.016  13.614
21931SOL    HW167567   7.661  14.816  13.659
21931SOL    HW267568   7.639   0.084  13.664
21932SOL     OW67569   0.699   6.211   3.225
21932SOL    HW167570   0.676   6.123   3.255
21932SOL    HW267571   0.621   6.263   3.242
21933SOL     OW67572  13.978   1.295  14.151
21933SOL    HW167573  14.053   1.270  14.206
21933SOL    HW267574  13.955   1.383  14.181
21934SOL     OW67575   8.415   2.641  13.337
21934SOL    HW167576   8.358   2.718  13.335
21934SOL    HW267577   8.357   2.568  13.317
21935SOL     OW67578  10.336  13.510   0.420
21935SOL    HW167579  10.399  13.487   0.351
21935SOL    HW267580  10.304  13.425   0.451
21936SOL     OW67581   6.327   7.533   5.310
21936SOL    HW167582   6.305   7.565   5.223
21936SOL    HW267583   6.296   7.442   5.310
21937SOL     OW67584   4.919   1.009  10.429
21937SOL    HW167585   4.909   1.001  10.524
21937SOL    HW267586   4.869   1.087  10.407
21938SOL     OW67587   0.125  14.453  10.399
21938SOL    HW167588   0.204  14.410  10.431
21938SOL    HW267589   0.092  14.502  10.474
21939SOL     OW67590  13.361  10.459   2.488
21939SOL    HW167591  13.449  10.441   2.456
21939SOL    HW267592  13.313  10.490   2.411
21940SOL     OW67593  14.357   5.772  13.791
21940SOL    HW167594  14.449   5.796  13.796
21940SOL    HW267595  14.311   5.854  13.772
21941SOL     OW67596   0.192   8.832  13.576
21941SOL    HW167597   0.286   8.817  13.566
21941SOL    HW267598   0.163   8.765  13.638
21942SOL     OW67599   5.855   0.211  14.540
21942SOL    HW167600   5.898   0.157  14.474
21942SOL    HW267601   5.792   0.152  14.581
21943SOL     OW67602   4.525   0.647   1.428
21943SOL    HW167603   4.508   0.561   1.465
21943SOL    HW267604   4.510   0.636   1.334
21944SOL     OW67605  13.299   1.942  10.420
21944SOL    HW167606  13.312   1.953  10.515
21944SOL    HW267607  13.289   2.031  10.387
21945SOL     OW67608  12.210   6.347  13.435
21945SOL    HW167609  12.286   6.395  13.470
21945SOL    HW267610  12.149   6.343  13.508
21946SOL     OW67611  11.871  13.002   2.259
21946SOL    HW167612  11.789  12.980   2.216
21946SOL    HW267613  11.910  13.070   2.203
21947SOL     OW67614  13.867   2.063   5.005
21947SOL    HW167615  13.850   1.970   4.989
21947SOL    HW267616  13.956   2.076   4.972
21948SOL     OW67617  11.062   2.019   9.457
21948SOL    HW167618  10.983   2.070   9.435
21948SOL    HW267619  11.130   2.086   9.467
21949SOL     OW67620  11.593  11.052   5.864
21949SOL    HW167621  11.567  10.981   5.806
21949SOL    HW267622  11.574  11.132   5.815
21950SOL     OW67623  12.101   6.332   3.401
21950SOL    HW167624  12.031   6.323   3.336
21950SOL    HW267625  12.075   6.408   3.453
21951SOL     OW67626   6.052   9.900   6.661
21951SOL    HW167627   6.062   9.837   6.732
21951SOL    HW267628   6.137   9.945   6.657
21952SOL     OW67629   7.464  11.417   7.426
21952SOL    HW167630   7.390  11.386   7.479
21952SOL    HW267631   7.456  11.513   7.428
21953SOL     OW67632   9.561   1.328   6.064
21953SOL    HW167633   9.530   1.248   6.108
21953SOL    HW267634   9.654   1.313   6.051
21954SOL     OW67635  11.715   9.459   8.546
21954SOL    HW167636  11.738   9.442   8.454
21954SOL    HW267637  11.634   9.510   8.541
21955SOL     OW67638  13.664  14.072   3.825
21955SOL    HW167639  13.749  14.047   3.862
21955SOL    HW267640  13.605  14.074   3.901
21956SOL     OW67641  12.202   2.509   4.146
21956SOL    HW167642  12.183   2.434   4.089
21956SOL    HW267643  12.214   2.471   4.233
21957SOL     OW67644  10.125  12.954  13.347
21957SOL    HW167645  10.092  13.012  13.416
21957SOL    HW267646  10.132  13.011  13.270
21958SOL     OW67647   8.211  10.009   7.403
21958SOL    HW167648   8.148  10.081   7.409
21958SOL    HW267649   8.169   9.936   7.450
21959SOL     OW67650   8.453  13.001   3.867
21959SOL    HW167651   8.537  12.994   3.822
21959SOL    HW267652   8.399  12.932   3.828
21960SOL     OW67653  14.112   8.002  10.704
21960SOL    HW167654  14.056   7.974  10.776
21960SOL    HW267655  14.182   8.052  10.746
21961SOL     OW67656   5.867  11.286  14.127
21961SOL    HW167657   5.956  11.305  14.097
21961SOL    HW267658   5.821  11.255  14.049
21962SOL     OW67659  10.593   3.542  14.296
21962SOL    HW167660  10.515   3.520  14.348
21962SOL    HW267661  10.559   3.555  14.207
21963SOL     OW67662  10.048   0.823  12.635
21963SOL    HW167663  10.007   0.765  12.571
21963SOL    HW267664  10.118   0.770  12.675
21964SOL     OW67665  12.360  11.318  12.074
21964SOL    HW167666  12.265  11.327  12.079
21964SOL    HW267667  12.394  11.391  12.126
21965SOL     OW67668   4.637  14.611   1.117
21965SOL    HW167669   4.644  14.535   1.060
21965SOL    HW267670   4.673  14.582   1.201
21966SOL     OW67671   3.711   2.318   6.571
21966SOL    HW167672   3.769   2.242   6.568
21966SOL    HW267673   3.744   2.375   6.502
21967SOL     OW67674   6.656  10.394  14.403
21967SOL    HW167675   6.674  10.358  14.489
21967SOL    HW267676   6.612  10.323  14.356
21968SOL     OW67677   8.796   6.946  11.922
21968SOL    HW167678   8.863   6.951  11.990
21968SOL    HW267679   8.722   6.995  11.957
21969SOL     OW67680   6.733   8.990   5.628
21969SOL    HW167681   6.685   9.056   5.578
21969SOL    HW267682   6.813   9.034   5.655
21970SOL     OW67683  11.624  11.585  14.553
21970SOL    HW167684  11.543  11.624  14.586
21970SOL    HW267685  11.649  11.641  14.480
21971SOL     OW67686  12.453   4.219   3.421
21971SOL    HW167687  12.436   4.165   3.345
21971SOL    HW267688  12.485   4.158   3.488
21972SOL     OW67689  10.976   0.187  11.291
21972SOL    HW167690  11.052   0.143  11.330
21972SOL    HW267691  10.985   0.171  11.197
21973SOL     OW67692   4.463   2.564  14.489
21973SOL    HW167693   4.378   2.594  14.455
21973SOL    HW267694   4.525   2.633  14.465
21974SOL     OW67695   4.822   8.647   1.122
21974SOL    HW167696   4.907   8.608   1.103
21974SOL    HW267697   4.771   8.636   1.042
21975SOL     OW67698  12.692   1.599   6.559
21975SOL    HW167699  12.629   1.528   6.560
21975SOL    HW267700  12.639   1.678   6.550
21976SOL     OW67701   0.860   0.968   3.037
21976SOL    HW167702   0.948   0.945   3.067
21976SOL    HW267703   0.841   0.905   2.967
21977SOL     OW67704   8.208  10.802   7.117
21977SOL    HW167705   8.161  10.828   7.038
21977SOL    HW267706   8.258  10.725   7.091
21978SOL     OW67707   4.260   9.028  13.211
21978SOL    HW167708   4.290   9.077  13.135
21978SOL    HW267709   4.331   8.966  13.228
21979SOL     OW67710  14.236   4.656   7.343
21979SOL    HW167711  14.153   4.631   7.383
21979SOL    HW267712  14.301   4.598   7.383
21980SOL     OW67713   1.053   1.726   7.087
21980SOL    HW167714   1.044   1.814   7.123
21980SOL    HW267715   1.132   1.730   7.032
21981SOL     OW67716  12.406   6.813  13.605
21981SOL    HW167717  12.461   6.869  13.659
21981SOL    HW267718  12.335   6.871  13.576
21982SOL     OW67719   3.699   8.030  11.063
21982SOL    HW167720   3.606   8.019  11.042
21982SOL    HW267721   3.745   7.987  10.991
21983SOL     OW67722  13.720   8.704   7.760
21983SOL    HW167723  13.771   8.785   7.764
21983SOL    HW267724  13.704   8.690   7.666
21984SOL     OW67725   5.639  13.032   5.757
21984SOL    HW167726   5.581  13.049   5.683
21984SOL    HW267727   5.651  13.117   5.799
21985SOL     OW67728   8.654  12.436  13.496
21985SOL    HW167729   8.691  12.403  13.415
21985SOL    HW267730   8.727  12.480  13.540
21986SOL     OW67731   3.711  12.914  13.577
21986SOL    HW167732   3.764  12.921  13.497
21986SOL    HW267733   3.657  12.993  13.577
21987SOL     OW67734   7.148  14.363  12.321
21987SOL    HW167735   7.121  14.368  12.230
21987SOL    HW267736   7.096  14.292  12.359
21988SOL     OW67737   7.681   0.461   6.794
21988SOL    HW167738   7.660   0.401   6.865
21988SOL    HW267739   7.743   0.413   6.739
21989SOL     OW67740   1.906   9.305   6.424
21989SOL    HW167741   1.829   9.260   6.388
21989SOL    HW267742   1.875   9.346   6.504
21990SOL     OW67743   0.190   1.743   5.148
21990SOL    HW167744   0.189   1.763   5.054
21990SOL    HW267745   0.104   1.771   5.179
21991SOL     OW67746   5.593   9.701   1.530
21991SOL    HW167747   5.581   9.617   1.573
21991SOL    HW267748   5.685   9.723   1.545
21992SOL     OW67749  13.470  10.727  13.083
21992SOL    HW167750  13.416  10.649  13.067
21992SOL    HW267751  13.463  10.778  13.002
21993SOL     OW67752   0.396  12.478  12.048
21993SOL    HW167753   0.314  12.522  12.069
21993SOL    HW267754   0.379  12.430  11.968
21994SOL     OW67755  12.808   8.899   4.922
21994SOL    HW167756  12.894   8.937   4.939
21994SOL    HW267757  12.760   8.968   4.875
21995SOL     OW67758   5.682  12.645   3.533
21995SOL    HW167759   5.602  12.641   3.481
21995SOL    HW267760   5.652  12.666   3.622
21996SOL     OW67761  13.830   1.369  11.504
21996SOL    HW167762  13.846   1.327  11.419
21996SOL    HW267763  13.786   1.451  11.482
21997SOL     OW67764   8.427   9.307   6.171
21997SOL    HW167765   8.372   9.347   6.104
21997SOL    HW267766   8.515   9.306   6.133
21998SOL     OW67767   9.039  10.927   9.362
21998SOL    HW167768   9.015  10.835   9.352
21998SOL    HW267769   9.130  10.932   9.332
21999SOL     OW67770  12.764   0.622  12.789
21999SOL    HW167771  12.701   0.678  12.834
21999SOL    HW267772  12.759   0.539  12.836
22000SOL     OW67773   1.690  11.139  14.389
22000SOL    HW167774   1.605  11.160  14.426
22000SOL    HW267775   1.738  11.222  14.391
22001SOL     OW67776   0.940  13.497  10.893
22001SOL    HW167777   0.978  13.410  10.906
22001SOL    HW267778   0.885  13.511  10.970
22002SOL     OW67779   9.459  12.113   5.651
22002SOL    HW167780   9.407  12.035   5.635
22002SOL    HW267781   9.439  12.171   5.577
22003SOL     OW67782   4.082   9.161   8.995
22003SOL    HW167783   4.133   9.168   9.075
22003SOL    HW267784   4.143   9.124   8.931
22004SOL     OW67785  11.435   3.488   8.502
22004SOL    HW167786  11.458   3.403   8.540
22004SOL    HW267787  11.362   3.520   8.555
22005SOL     OW67788   8.512  14.615   8.545
22005SOL    HW167789   8.525  14.523   8.567
22005SOL    HW267790   8.494  14.615   8.451
22006SOL     OW67791   4.545   3.337   5.693
22006SOL    HW167792   4.610   3.404   5.673
22006SOL    HW267793   4.562   3.313   5.784
22007SOL     OW67794   4.325   3.509  11.205
22007SOL    HW167795   4.345   3.454  11.281
22007SOL    HW267796   4.293   3.591  11.243
22008SOL     OW67797   0.295   7.106   0.600
22008SOL    HW167798   0.350   7.181   0.621
22008SOL    HW267799   0.206   7.134   0.622
22009SOL     OW67800   7.382   9.297  11.916
22009SOL    HW167801   7.433   9.275  11.838
22009SOL    HW267802   7.401   9.226  11.978
22010SOL     OW67803   3.483  13.745   7.151
22010SOL    HW167804   3.405  13.799   7.157
22010SOL    HW267805   3.517  13.741   7.241
22011SOL     OW67806  10.689   5.985   4.459
22011SOL    HW167807  10.628   5.919   4.426
22011SOL    HW267808  10.655   6.068   4.426
22012SOL     OW67809   8.986   9.702   9.179
22012SOL    HW167810   8.936   9.783   9.183
22012SOL    HW267811   9.013   9.685   9.270
22013SOL     OW67812   9.195   8.290  12.175
22013SOL    HW167813   9.282   8.290  12.215
22013SOL    HW267814   9.210   8.321  12.085
22014SOL     OW67815   9.445   3.780   7.080
22014SOL    HW167816   9.383   3.760   7.009
22014SOL    HW267817   9.405   3.742   7.158
22015SOL     OW67818   8.580   1.533   2.614
22015SOL    HW167819   8.517   1.488   2.670
22015SOL    HW267820   8.666   1.505   2.647
22016SOL     OW67821   9.258   1.070  12.665
22016SOL    HW167822   9.269   0.982  12.699
22016SOL    HW267823   9.333   1.119  12.699
22017SOL     OW67824  11.152   0.684   8.763
22017SOL    HW167825  11.137   0.590   8.776
22017SOL    HW267826  11.067   0.718   8.736
22018SOL     OW67827  11.930  11.053   8.679
22018SOL    HW167828  11.953  10.966   8.645
22018SOL    HW267829  11.844  11.071   8.642
22019SOL     OW67830   2.747  10.352  10.736
22019SOL    HW167831   2.840  10.349  10.757
22019SOL    HW267832   2.736  10.433  10.686
22020SOL     OW67833  11.264   6.119   9.672
22020SOL    HW167834  11.182   6.070   9.674
22020SOL    HW267835  11.323   6.065   9.619
22021SOL     OW67836  11.107   4.480  14.798
22021SOL    HW167837  11.173   4.416  14.825
22021SOL    HW267838  11.146   4.526  14.724
22022SOL     OW67839   4.309   6.010   1.068
22022SOL    HW167840   4.319   6.045   0.980
22022SOL    HW267841   4.243   5.942   1.060
22023SOL     OW67842   2.810   7.191   3.788
22023SOL    HW167843   2.776   7.274   3.821
22023SOL    HW267844   2.734   7.132   3.788
22024SOL     OW67845  11.097  14.718  13.580
22024SOL    HW167846  11.172  14.777  13.589
22024SOL    HW267847  11.116  14.666  13.502
22025SOL     OW67848   8.709  10.116   8.830
22025SOL    HW167849   8.780  10.073   8.878
22025SOL    HW267850   8.728  10.210   8.837
22026SOL     OW67851   4.067  11.132  14.737
22026SOL    HW167852   4.122  11.060  14.770
22026SOL    HW267853   4.130  11.198  14.707
22027SOL     OW67854  13.588  14.775   6.281
22027SOL    HW167855  13.554  14.842   6.341
22027SOL    HW267856  13.607  14.700   6.337
22028SOL     OW67857   6.436  12.333   8.264
22028SOL    HW167858   6.363  12.395   8.257
22028SOL    HW267859   6.478  12.355   8.347
22029SOL     OW67860   1.207   3.882   1.547
22029SOL    HW167861   1.298   3.882   1.520
22029SOL    HW267862   1.165   3.815   1.493
22030SOL     OW67863  13.207   6.249   0.785
22030SOL    HW167864  13.195   6.195   0.707
22030SOL    HW267865  13.161   6.330   0.765
22031SOL     OW67866   9.551   2.619  11.834
22031SOL    HW167867   9.532   2.712  11.823
22031SOL    HW267868   9.465   2.577  11.839
22032SOL     OW67869   0.220  13.821  10.769
22032SOL    HW167870   0.160  13.868  10.711
22032SOL    HW267871   0.305  13.862  10.755
22033SOL     OW67872   9.061   7.629   5.616
22033SOL    HW167873   9.144   7.665   5.583
22033SOL    HW267874   9.086   7.576   5.691
22034SOL     OW67875   0.283   9.364   5.170
22034SOL    HW167876   0.342   9.330   5.236
22034SOL    HW267877   0.340   9.396   5.100
22035SOL     OW67878   2.435   6.725   0.805
22035SOL    HW167879   2.442   6.810   0.762
22035SOL    HW267880   2.369   6.738   0.873
22036SOL     OW67881   6.680   6.524   2.867
22036SOL    HW167882   6.698   6.476   2.786
22036SOL    HW267883   6.597   6.568   2.851
22037SOL     OW67884   0.530   3.860  13.142
22037SOL    HW167885   0.584   3.916  13.197
22037SOL    HW267886   0.445   3.858  13.186
22038SOL     OW67887  12.861   7.515   7.386
22038SOL    HW167888  12.907   7.535   7.468
22038SOL    HW267889  12.912   7.443   7.348
22039SOL     OW67890   4.890   8.697   0.394
22039SOL    HW167891   4.814   8.739   0.353
22039SOL    HW267892   4.966   8.740   0.355
22040SOL     OW67893   2.775   4.459   4.363
22040SOL    HW167894   2.848   4.511   4.329
22040SOL    HW267895   2.697   4.510   4.342
22041SOL     OW67896   9.602   0.386   2.157
22041SOL    HW167897   9.687   0.343   2.170
22041SOL    HW267898   9.538   0.323   2.190
22042SOL     OW67899   3.111   9.657   6.519
22042SOL    HW167900   3.017   9.651   6.500
22042SOL    HW267901   3.122   9.606   6.599
22043SOL     OW67902  13.048   4.442   9.758
22043SOL    HW167903  13.122   4.458   9.699
22043SOL    HW267904  13.021   4.530   9.786
22044SOL     OW67905  10.685   5.963   0.919
22044SOL    HW167906  10.660   6.053   0.940
22044SOL    HW267907  10.691   5.920   1.005
22045SOL     OW67908  11.734   7.870   4.039
22045SOL    HW167909  11.768   7.815   4.110
22045SOL    HW267910  11.681   7.811   3.985
22046SOL     OW67911  13.158   1.534  11.809
22046SOL    HW167912  13.121   1.562  11.726
22046SOL    HW267913  13.099   1.568  11.875
22047SOL     OW67914   4.597  13.044   0.614
22047SOL    HW167915   4.577  13.103   0.687
22047SOL    HW267916   4.689  13.061   0.594
22048SOL     OW67917   3.774   0.965   2.273
22048SOL    HW167918   3.705   0.925   2.220
22048SOL    HW267919   3.728   1.022   2.334
22049SOL     OW67920   1.468   6.733  11.429
22049SOL    HW167921   1.496   6.725  11.521
22049SOL    HW267922   1.538   6.689  11.380
22050SOL     OW67923   3.582   1.539   0.652
22050SOL    HW167924   3.512   1.553   0.588
22050SOL    HW267925   3.663   1.548   0.602
22051SOL     OW67926   8.380   0.079   2.555
22051SOL    HW167927   8.322   0.110   2.624
22051SOL    HW267928   8.323   0.029   2.497
22052SOL     OW67929   4.662   1.595   5.115
22052SOL    HW167930   4.752   1.574   5.140
22052SOL    HW267931   4.666   1.686   5.086
22053SOL     OW67932   0.194  12.289   1.764
22053SOL    HW167933   0.111  12.337   1.761
22053SOL    HW267934   0.177  12.217   1.825
22054SOL     OW67935   0.005   8.073   9.780
22054SOL    HW167936   0.031   8.048   9.869
22054SOL    HW267937   0.081   8.052   9.726
22055SOL     OW67938   0.554  12.051   1.599
22055SOL    HW167939   0.506  11.975   1.566
22055SOL    HW267940   0.634  12.015   1.637
22056SOL     OW67941  10.142   8.716   5.245
22056SOL    HW167942  10.143   8.791   5.305
22056SOL    HW267943  10.227   8.675   5.257
22057SOL     OW67944   3.462  14.507  13.765
22057SOL    HW167945   3.452  14.484  13.672
22057SOL    HW267946   3.396  14.574  13.780
22058SOL     OW67947  13.002   0.926   6.689
22058SOL    HW167948  12.943   0.996   6.663
22058SOL    HW267949  12.985   0.913   6.782
22059SOL     OW67950   4.267   1.048  13.517
22059SOL    HW167951   4.232   1.008  13.597
22059SOL    HW267952   4.360   1.063  13.537
22060SOL     OW67953   1.469   4.625   2.382
22060SOL    HW167954   1.526   4.655   2.311
22060SOL    HW267955   1.518   4.647   2.462
22061SOL     OW67956  11.437   7.751   6.412
22061SOL    HW167957  11.514   7.790   6.453
22061SOL    HW267958  11.382   7.725   6.486
22062SOL     OW67959   0.011   8.307  13.344
22062SOL    HW167960  14.813   8.357  13.363
22062SOL    HW267961   0.080   8.351  13.393
22063SOL     OW67962  14.380   4.384   6.146
22063SOL    HW167963  14.344   4.468   6.171
22063SOL    HW267964  14.451   4.367   6.208
22064SOL     OW67965   3.869   0.242  12.009
22064SOL    HW167966   3.818   0.291  12.074
22064SOL    HW267967   3.865   0.295  11.930
22065SOL     OW67968   0.407   6.289  10.068
22065SOL    HW167969   0.354   6.367  10.080
22065SOL    HW267970   0.429   6.260  10.157
22066SOL     OW67971   5.694   6.366   8.167
22066SOL    HW167972   5.612   6.333   8.204
22066SOL    HW267973   5.715   6.443   8.220
22067SOL     OW67974  12.496  10.357   4.293
22067SOL    HW167975  12.443  10.436   4.304
22067SOL    HW267976  12.440  10.286   4.323
22068SOL     OW67977   9.031   7.932   7.459
22068SOL    HW167978   9.038   7.970   7.546
22068SOL    HW267979   9.105   7.872   7.453
22069SOL     OW67980   5.130  11.960   8.711
22069SOL    HW167981   5.068  12.002   8.651
22069SOL    HW267982   5.170  11.891   8.659
22070SOL     OW67983  12.542   5.661   0.943
22070SOL    HW167984  12.530   5.566   0.952
22070SOL    HW267985  12.527   5.678   0.850
22071SOL     OW67986   9.563   0.961   7.179
22071SOL    HW167987   9.592   1.032   7.236
22071SOL    HW267988   9.501   0.912   7.232
22072SOL     OW67989   0.939   7.997   6.149
22072SOL    HW167990   0.878   7.948   6.094
22072SOL    HW267991   0.884   8.051   6.205
22073SOL     OW67992   1.339   3.389  14.013
22073SOL    HW167993   1.420   3.429  14.043
22073SOL    HW267994   1.270   3.428  14.067
22074SOL     OW67995   5.520   1.117   0.751
22074SOL    HW167996   5.558   1.191   0.704
22074SOL    HW267997   5.576   1.043   0.727
22075SOL     OW67998  11.457   7.604  14.406
22075SOL    HW167999  11.481   7.520  14.446
22075SOL    HW268000  11.487   7.596  14.315
22076SOL     OW68001   5.456   3.352   9.117
22076SOL    HW168002   5.486   3.277   9.169
22076SOL    HW268003   5.503   3.345   9.034
22077SOL     OW68004   9.963   8.062   5.021
22077SOL    HW168005   9.941   7.969   5.021
22077SOL    HW268006  10.052   8.066   5.057
22078SOL     OW68007  12.854   2.855   5.658
22078SOL    HW168008  12.791   2.790   5.691
22078SOL    HW268009  12.854   2.842   5.563
22079SOL     OW68010   6.939  12.866   6.110
22079SOL    HW168011   6.938  12.830   6.021
22079SOL    HW268012   7.031  12.885   6.127
22080SOL     OW68013   8.755   8.645  12.374
22080SOL    HW168014   8.768   8.735  12.406
22080SOL    HW268015   8.678   8.651  12.318
22081SOL     OW68016   4.180   0.806  14.798
22081SOL    HW168017   4.144   0.728  14.841
22081SOL    HW268018   4.241   0.771  14.732
22082SOL     OW68019   4.029  11.505   7.000
22082SOL    HW168020   3.946  11.457   7.011
22082SOL    HW268021   4.095  11.447   7.037
22083SOL     OW68022  13.295   3.936  14.198
22083SOL    HW168023  13.245   3.877  14.255
22083SOL    HW268024  13.233   4.006  14.176
22084SOL     OW68025   4.842   4.254   0.131
22084SOL    HW168026   4.748   4.269   0.146
22084SOL    HW268027   4.883   4.276   0.215
22085SOL     OW68028  12.839  13.056  14.371
22085SOL    HW168029  12.911  12.994  14.366
22085SOL    HW268030  12.776  13.015  14.429
22086SOL     OW68031   7.237  12.110   3.842
22086SOL    HW168032   7.321  12.091   3.883
22086SOL    HW268033   7.180  12.136   3.916
22087SOL     OW68034   9.826   8.463   7.668
22087SOL    HW168035   9.742   8.488   7.707
22087SOL    HW268036   9.842   8.375   7.702
22088SOL     OW68037   7.434   2.886   5.605
22088SOL    HW168038   7.420   2.961   5.547
22088SOL    HW268039   7.351   2.873   5.649
22089SOL     OW68040   9.034   8.687   3.566
22089SOL    HW168041   8.961   8.733   3.607
22089SOL    HW268042   9.014   8.689   3.472
22090SOL     OW68043   7.506   4.504   3.406
22090SOL    HW168044   7.435   4.546   3.359
22090SOL    HW268045   7.489   4.411   3.397
22091SOL     OW68046  11.769   5.145   9.654
22091SOL    HW168047  11.706   5.119   9.720
22091SOL    HW268048  11.854   5.115   9.688
22092SOL     OW68049   2.844  10.469  13.386
22092SOL    HW168050   2.817  10.377  13.382
22092SOL    HW268051   2.939  10.466  13.388
22093SOL     OW68052  12.425  10.636   4.257
22093SOL    HW168053  12.376  10.687   4.321
22093SOL    HW268054  12.511  10.624   4.298
22094SOL     OW68055   9.787   6.626  11.954
22094SOL    HW168056   9.860   6.565  11.964
22094SOL    HW268057   9.751   6.607  11.867
22095SOL     OW68058  10.479   6.239  11.263
22095SOL    HW168059  10.520   6.156  11.237
22095SOL    HW268060  10.548   6.285  11.311
22096SOL     OW68061   6.400   0.652  14.514
22096SOL    HW168062   6.418   0.558  14.522
22096SOL    HW268063   6.309   0.657  14.488
22097SOL     OW68064   3.809   8.793  13.625
22097SOL    HW168065   3.764   8.741  13.692
22097SOL    HW268066   3.897   8.757  13.622
22098SOL     OW68067   2.576   2.859   2.068
22098SOL    HW168068   2.664   2.873   2.033
22098SOL    HW268069   2.528   2.938   2.043
22099SOL     OW68070   4.590   3.053  12.843
22099SOL    HW168071   4.529   3.127  12.841
22099SOL    HW268072   4.618   3.043  12.752
22100SOL     OW68073  11.491  14.795  13.015
22100SOL    HW168074  11.468  14.816  13.105
22100SOL    HW268075  11.524  14.705  13.019
22101SOL     OW68076  13.655  10.508   9.736
22101SOL    HW168077  13.596  10.583   9.731
22101SOL    HW268078  13.602  10.438   9.774
22102SOL     OW68079   9.536  11.578   2.466
22102SOL    HW168080   9.550  11.522   2.390
22102SOL    HW268081   9.599  11.650   2.455
22103SOL     OW68082   1.214  12.825   8.692
22103SOL    HW168083   1.280  12.762   8.720
22103SOL    HW268084   1.226  12.900   8.751
22104SOL     OW68085   9.377  14.099  13.195
22104SOL    HW168086   9.385  14.013  13.236
22104SOL    HW268087   9.363  14.159  13.267
22105SOL     OW68088   9.548   3.693   9.058
22105SOL    HW168089   9.631   3.690   9.106
22105SOL    HW268090   9.487   3.734   9.119
22106SOL     OW68091   4.229   3.717  14.316
22106SOL    HW168092   4.154   3.720  14.256
22106SOL    HW268093   4.281   3.643  14.286
22107SOL     OW68094   4.385   7.668   5.262
22107SOL    HW168095   4.335   7.642   5.340
22107SOL    HW268096   4.321   7.711   5.206
22108SOL     OW68097   5.989  13.924  14.487
22108SOL    HW168098   6.024  13.837  14.469
22108SOL    HW268099   6.034  13.951  14.568
22109SOL     OW68100   9.243  13.392   5.926
22109SOL    HW168101   9.151  13.398   5.950
22109SOL    HW268102   9.244  13.347   5.842
22110SOL     OW68103   1.904   4.736   2.351
22110SOL    HW168104   1.883   4.771   2.265
22110SOL    HW268105   1.990   4.696   2.340
22111SOL     OW68106   6.050   3.819   6.965
22111SOL    HW168107   6.024   3.910   6.952
22111SOL    HW268108   6.103   3.820   7.045
22112SOL     OW68109   5.342  13.315   1.729
22112SOL    HW168110   5.283  13.271   1.668
22112SOL    HW268111   5.287  13.378   1.775
22113SOL     OW68112  14.236   8.470   4.473
22113SOL    HW168113  14.273   8.557   4.459
22113SOL    HW268114  14.311   8.411   4.471
22114SOL     OW68115  12.125   0.763   8.991
22114SOL    HW168116  12.035   0.790   9.008
22114SOL    HW268117  12.178   0.836   9.023
22115SOL     OW68118   5.892   1.550   4.956
22115SOL    HW168119   5.831   1.622   4.974
22115SOL    HW268120   5.840   1.471   4.974
22116SOL     OW68121   8.986   9.771   4.554
22116SOL    HW168122   9.043   9.807   4.622
22116SOL    HW268123   9.025   9.686   4.533
22117SOL     OW68124   1.266   4.201   5.376
22117SOL    HW168125   1.305   4.116   5.395
22117SOL    HW268126   1.341   4.259   5.362
22118SOL     OW68127   2.912   2.670   5.895
22118SOL    HW168128   2.911   2.666   5.800
22118SOL    HW268129   2.950   2.586   5.922
22119SOL     OW68130   0.883   7.658   1.773
22119SOL    HW168131   0.966   7.694   1.740
22119SOL    HW268132   0.843   7.617   1.696
22120SOL     OW68133   9.162  13.004   3.038
22120SOL    HW168134   9.139  12.950   3.113
22120SOL    HW268135   9.090  12.993   2.976
22121SOL     OW68136  11.756   7.023  13.992
22121SOL    HW168137  11.662   7.036  13.981
22121SOL    HW268138  11.796   7.077  13.924
22122SOL     OW68139  12.758   0.902   1.686
22122SOL    HW168140  12.710   0.966   1.633
22122SOL    HW268141  12.718   0.910   1.773
22123SOL     OW68142   7.847   0.923   6.985
22123SOL    HW168143   7.843   1.011   6.948
22123SOL    HW268144   7.825   0.866   6.911
22124SOL     OW68145   9.473  13.333   2.572
22124SOL    HW168146   9.504  13.288   2.494
22124SOL    HW268147   9.420  13.268   2.618
22125SOL     OW68148   9.142   8.636   6.265
22125SOL    HW168149   9.055   8.641   6.226
22125SOL    HW268150   9.194   8.587   6.201
22126SOL     OW68151  14.783   2.302  12.158
22126SOL    HW168152  14.868   2.337  12.133
22126SOL    HW268153  14.762   2.238  12.090
22127SOL     OW68154   8.215  12.771  14.025
22127SOL    HW168155   8.146  12.721  14.069
22127SOL    HW268156   8.296  12.745  14.070
22128SOL     OW68157   3.647   3.878  13.527
22128SOL    HW168158   3.736   3.906  13.506
22128SOL    HW268159   3.610   3.951  13.577
22129SOL     OW68160  10.342   9.483  12.909
22129SOL    HW168161  10.412   9.450  12.853
22129SOL    HW268162  10.367   9.456  12.998
22130SOL     OW68163  14.130   1.245  12.785
22130SOL    HW168164  14.113   1.260  12.879
22130SOL    HW268165  14.177   1.162  12.783
22131SOL     OW68166   1.577   7.355   7.271
22131SOL    HW168167   1.580   7.354   7.366
22131SOL    HW268168   1.559   7.264   7.246
22132SOL     OW68169   1.213   8.119   1.618
22132SOL    HW168170   1.161   8.068   1.680
22132SOL    HW268171   1.204   8.210   1.648
22133SOL     OW68172   8.902  13.382   5.052
22133SOL    HW168173   8.939  13.433   4.980
22133SOL    HW268174   8.873  13.301   5.011
22134SOL     OW68175   7.426  11.912   4.043
22134SOL    HW168176   7.487  11.872   4.106
22134SOL    HW268177   7.419  11.847   3.973
22135SOL     OW68178  12.237   5.873   5.437
22135SOL    HW168179  12.310   5.880   5.498
22135SOL    HW268180  12.194   5.959   5.441
22136SOL     OW68181  11.713   7.886  10.877
22136SOL    HW168182  11.697   7.802  10.919
22136SOL    HW268183  11.799   7.876  10.835
22137SOL     OW68184   2.751   1.019   3.167
22137SOL    HW168185   2.822   0.955   3.171
22137SOL    HW268186   2.786   1.091   3.114
22138SOL     OW68187   4.046   5.711  11.702
22138SOL    HW168188   3.997   5.670  11.773
22138SOL    HW268189   4.103   5.642  11.669
22139SOL     OW68190   1.084   9.994  11.142
22139SOL    HW168191   1.095   9.929  11.073
22139SOL    HW268192   1.013   9.959  11.197
22140SOL     OW68193   3.360   4.341   4.477
22140SOL    HW168194   3.455   4.332   4.490
22140SOL    HW268195   3.324   4.340   4.566
22141SOL     OW68196   2.684   2.820   4.128
22141SOL    HW168197   2.663   2.754   4.062
22141SOL    HW268198   2.753   2.781   4.181
22142SOL     OW68199  11.970  11.095   0.017
22142SOL    HW168200  12.060  11.065   0.032
22142SOL    HW268201  11.974  11.189   0.035
22143SOL     OW68202  14.553   4.813   2.330
22143SOL    HW168203  14.535   4.880   2.396
22143SOL    HW268204  14.573   4.734   2.381
22144SOL     OW68205   4.955  11.498   3.444
22144SOL    HW168206   4.979  11.573   3.499
22144SOL    HW268207   4.888  11.533   3.385
22145SOL     OW68208   8.371   8.348  11.829
22145SOL    HW168209   8.423   8.276  11.864
22145SOL    HW268210   8.280   8.320  11.840
22146SOL     OW68211   8.849   1.897   4.305
22146SOL    HW168212   8.860   1.825   4.243
22146SOL    HW268213   8.887   1.973   4.262
22147SOL     OW68214  12.770   3.699   9.608
22147SOL    HW168215  12.864   3.690   9.590
22147SOL    HW268216  12.765   3.715   9.702
22148SOL     OW68217   7.442   7.568   6.708
22148SOL    HW168218   7.484   7.511   6.773
22148SOL    HW268219   7.500   7.645   6.703
22149SOL     OW68220   5.680  10.316  14.182
22149SOL    HW168221   5.747  10.374  14.218
22149SOL    HW268222   5.607  10.374  14.159
22150SOL     OW68223   8.497   3.367   5.652
22150SOL    HW168224   8.426   3.430   5.661
22150SOL    HW268225   8.573   3.411   5.689
22151SOL     OW68226   7.715  10.053   1.980
22151SOL    HW168227   7.792  10.044   2.036
22151SOL    HW268228   7.743  10.111   1.909
22152SOL     OW68229   2.778  11.697  13.645
22152SOL    HW168230   2.743  11.709  13.734
22152SOL    HW268231   2.847  11.632  13.655
22153SOL     OW68232   4.945   0.186   7.269
22153SOL    HW168233   4.888   0.110   7.282
22153SOL    HW268234   4.955   0.224   7.356
22154SOL     OW68235   0.987   0.329  12.550
22154SOL    HW168236   1.064   0.384  12.568
22154SOL    HW268237   1.018   0.266  12.486
22155SOL     OW68238   1.028   9.284  13.502
22155SOL    HW168239   1.123   9.293  13.489
22155SOL    HW268240   1.010   9.193  13.481
22156SOL     OW68241   0.485  13.218  12.761
22156SOL    HW168242   0.525  13.142  12.804
22156SOL    HW268243   0.499  13.202  12.668
22157SOL     OW68244   7.821  11.283   8.097
22157SOL    HW168245   7.842  11.200   8.140
22157SOL    HW268246   7.871  11.348   8.145
22158SOL     OW68247  11.527   3.582   6.837
22158SOL    HW168248  11.584   3.658   6.828
22158SOL    HW268249  11.467   3.605   6.909
22159SOL     OW68250   1.281  10.843   3.709
22159SOL    HW168251   1.321  10.930   3.712
22159SOL    HW268252   1.193  10.857   3.674
22160SOL     OW68253   7.612  13.869   9.119
22160SOL    HW168254   7.612  13.774   9.124
22160SOL    HW268255   7.696  13.890   9.077
22161SOL     OW68256  10.708   4.910   6.627
22161SOL    HW168257  10.764   4.888   6.702
22161SOL    HW268258  10.619   4.893   6.659
22162SOL     OW68259   8.979  10.524   3.747
22162SOL    HW168260   9.052  10.487   3.797
22162SOL    HW268261   8.971  10.613   3.779
22163SOL     OW68262   4.971   4.321   0.724
22163SOL    HW168263   4.966   4.367   0.808
22163SOL    HW268264   4.882   4.324   0.689
22164SOL     OW68265   8.011  14.268   8.621
22164SOL    HW168266   8.082  14.305   8.570
22164SOL    HW268267   8.054  14.217   8.689
22165SOL     OW68268   0.222   4.671   7.361
22165SOL    HW168269   0.308   4.713   7.370
22165SOL    HW268270   0.172   4.705   7.435
22166SOL     OW68271   1.623   0.469   1.441
22166SOL    HW168272   1.528   0.470   1.452
22166SOL    HW268273   1.649   0.561   1.449
22167SOL     OW68274   5.074  13.535  12.645
22167SOL    HW168275   5.158  13.580  12.634
22167SOL    HW268276   5.053  13.547  12.738
22168SOL     OW68277   2.038   3.117   0.033
22168SOL    HW168278   2.032   3.062   0.111
22168SOL    HW268279   1.992   3.198   0.057
22169SOL     OW68280  10.452   6.115   6.066
22169SOL    HW168281  10.388   6.169   6.112
22169SOL    HW268282  10.518   6.177   6.034
22170SOL     OW68283   5.756   2.349   4.929
22170SOL    HW168284   5.795   2.302   4.855
22170SOL    HW268285   5.755   2.441   4.901
22171SOL     OW68286   8.531   9.099  14.389
22171SOL    HW168287   8.505   9.111  14.298
22171SOL    HW268288   8.467   9.038  14.425
22172SOL     OW68289   4.368   5.325   7.252
22172SOL    HW168290   4.397   5.259   7.189
22172SOL    HW268291   4.449   5.360   7.289
22173SOL     OW68292   2.239   6.023  13.973
22173SOL    HW168293   2.249   6.114  13.945
22173SOL    HW268294   2.145   6.007  13.970
22174SOL     OW68295  12.663   8.383   7.140
22174SOL    HW168296  12.580   8.341   7.120
22174SOL    HW268297  12.717   8.370   7.062
22175SOL     OW68298   6.341  12.482   0.206
22175SOL    HW168299   6.420  12.471   0.153
22175SOL    HW268300   6.293  12.553   0.164
22176SOL     OW68301  11.716   8.034  11.153
22176SOL    HW168302  11.649   8.101  11.142
22176SOL    HW268303  11.722   7.992  11.067
22177SOL     OW68304  14.856  13.736   2.820
22177SOL    HW168305  14.805  13.760   2.898
22177SOL    HW268306  14.816  13.785   2.749
22178SOL     OW68307  12.934   0.707   9.685
22178SOL    HW168308  12.939   0.768   9.612
22178SOL    HW268309  13.020   0.665   9.687
22179SOL     OW68310   9.666   3.246  14.071
22179SOL    HW168311   9.720   3.206  14.003
22179SOL    HW268312   9.726   3.259  14.145
22180SOL     OW68313  11.892   8.667   1.392
22180SOL    HW168314  11.881   8.696   1.301
22180SOL    HW268315  11.963   8.603   1.388
22181SOL     OW68316  13.156   3.704   6.372
22181SOL    HW168317  13.129   3.796   6.371
22181SOL    HW268318  13.171   3.684   6.464
22182SOL     OW68319   7.459   7.566   1.534
22182SOL    HW168320   7.366   7.585   1.527
22182SOL    HW268321   7.491   7.624   1.604
22183SOL     OW68322   7.144  14.821   7.880
22183SOL    HW168323   7.231  14.803   7.845
22183SOL    HW268324   7.153   0.022   7.927
22184SOL     OW68325   3.485  10.023   5.416
22184SOL    HW168326   3.451  10.022   5.506
22184SOL    HW268327   3.571  10.064   5.423
22185SOL     OW68328  13.289   2.921   9.228
22185SOL    HW168329  13.200   2.911   9.193
22185SOL    HW268330  13.335   2.842   9.198
22186SOL     OW68331  13.314  14.145  13.488
22186SOL    HW168332  13.369  14.094  13.429
22186SOL    HW268333  13.225  14.112  13.474
22187SOL     OW68334   6.557   7.884  12.508
22187SOL    HW168335   6.516   7.812  12.556
22187SOL    HW268336   6.526   7.963  12.551
22188SOL     OW68337   1.771   3.625   6.294
22188SOL    HW168338   1.850   3.669   6.263
22188SOL    HW268339   1.733   3.586   6.216
22189SOL     OW68340   4.772   7.593  13.665
22189SOL    HW168341   4.860   7.556  13.673
22189SOL    HW268342   4.784   7.687  13.681
22190SOL     OW68343   9.301   9.248  13.222
22190SOL    HW168344   9.323   9.341  13.229
22190SOL    HW268345   9.268   9.224  13.308
22191SOL     OW68346   4.882  14.693  13.757
22191SOL    HW168347   4.897  14.666  13.848
22191SOL    HW268348   4.787  14.691  13.748
22192SOL     OW68349   8.975   7.900   2.471
22192SOL    HW168350   9.034   7.858   2.409
22192SOL    HW268351   8.895   7.917   2.420
22193SOL     OW68352  13.472  13.757   5.777
22193SOL    HW168353  13.400  13.705   5.811
22193SOL    HW268354  13.479  13.731   5.685
22194SOL     OW68355   6.474   4.477   7.223
22194SOL    HW168356   6.415   4.471   7.298
22194SOL    HW268357   6.432   4.424   7.155
22195SOL     OW68358   1.737   7.019  12.720
22195SOL    HW168359   1.649   7.045  12.692
22195SOL    HW268360   1.794   7.088  12.688
22196SOL     OW68361  11.892   6.148   7.758
22196SOL    HW168362  11.908   6.242   7.756
22196SOL    HW268363  11.922   6.117   7.672
22197SOL     OW68364   4.334   0.354   1.127
22197SOL    HW168365   4.383   0.432   1.153
22197SOL    HW268366   4.304   0.316   1.209
22198SOL     OW68367  11.280  10.569   8.461
22198SOL    HW168368  11.265  10.567   8.366
22198SOL    HW268369  11.237  10.649   8.490
22199SOL     OW68370  14.812   0.986   0.425
22199SOL    HW168371  14.791   1.079   0.420
22199SOL    HW268372   0.022   0.984   0.454
22200SOL     OW68373   2.626   7.296  13.792
22200SOL    HW168374   2.711   7.281  13.749
22200SOL    HW268375   2.642   7.273  13.883
22201SOL     OW68376  12.055   2.801   7.322
22201SOL    HW168377  12.114   2.867   7.358
22201SOL    HW268378  11.968   2.840   7.328
22202SOL     OW68379   0.683  14.097   8.445
22202SOL    HW168380   0.594  14.067   8.426
22202SOL    HW268381   0.680  14.192   8.433
22203SOL     OW68382  11.784   0.728   0.021
22203SOL    HW168383  11.859   0.765  14.857
22203SOL    HW268384  11.764   0.792   0.090
22204SOL     OW68385   6.954   9.716   7.843
22204SOL    HW168386   7.020   9.777   7.811
22204SOL    HW268387   6.894   9.770   7.894
22205SOL     OW68388   4.850  10.193   3.437
22205SOL    HW168389   4.916  10.199   3.506
22205SOL    HW268390   4.772  10.160   3.481
22206SOL     OW68391   0.850  11.694   8.269
22206SOL    HW168392   0.897  11.734   8.195
22206SOL    HW268393   0.892  11.608   8.280
22207SOL     OW68394   9.370   9.749   9.975
22207SOL    HW168395   9.343   9.659   9.993
22207SOL    HW268396   9.420   9.742   9.894
22208SOL     OW68397  10.491  14.443   4.453
22208SOL    HW168398  10.431  14.499   4.502
22208SOL    HW268399  10.513  14.493   4.375
22209SOL     OW68400   0.840  13.499   8.581
22209SOL    HW168401   0.864  13.482   8.490
22209SOL    HW268402   0.766  13.559   8.576
22210SOL     OW68403  14.405   4.407   4.678
22210SOL    HW168404  14.403   4.500   4.702
22210SOL    HW268405  14.333   4.397   4.616
22211SOL     OW68406   9.461   6.825   2.851
22211SOL    HW168407   9.554   6.807   2.844
22211SOL    HW268408   9.452   6.882   2.927
22212SOL     OW68409   6.998  11.050   8.673
22212SOL    HW168410   7.024  11.017   8.759
22212SOL    HW268411   6.937  11.122   8.693
22213SOL     OW68412   1.278   6.187   9.970
22213SOL    HW168413   1.229   6.260  10.008
22213SOL    HW268414   1.269   6.116  10.034
22214SOL     OW68415   8.994   6.217   3.779
22214SOL    HW168416   8.993   6.168   3.860
22214SOL    HW268417   9.078   6.262   3.778
22215SOL     OW68418   6.649   1.152   4.492
22215SOL    HW168419   6.658   1.103   4.410
22215SOL    HW268420   6.733   1.197   4.502
22216SOL     OW68421   8.626   5.952  10.837
22216SOL    HW168422   8.547   5.915  10.876
22216SOL    HW268423   8.593   6.011  10.769
22217SOL     OW68424   9.813   3.713   7.075
22217SOL    HW168425   9.719   3.716   7.060
22217SOL    HW268426   9.825   3.639   7.134
22218SOL     OW68427   3.453   1.993  12.715
22218SOL    HW168428   3.397   2.066  12.691
22218SOL    HW268429   3.393   1.928  12.753
22219SOL     OW68430  13.596   1.752   2.345
22219SOL    HW168431  13.594   1.848   2.334
22219SOL    HW268432  13.689   1.732   2.357
22220SOL     OW68433   2.300   7.259   7.108
22220SOL    HW168434   2.386   7.301   7.098
22220SOL    HW268435   2.310   7.173   7.068
22221SOL     OW68436  14.565   0.494  12.781
22221SOL    HW168437  14.514   0.447  12.714
22221SOL    HW268438  14.527   0.582  12.782
22222SOL     OW68439   5.804  10.265   9.764
22222SOL    HW168440   5.852  10.334   9.810
22222SOL    HW268441   5.721  10.258   9.813
22223SOL     OW68442   7.227   8.573   4.200
22223SOL    HW168443   7.224   8.647   4.139
22223SOL    HW268444   7.143   8.528   4.186
22224SOL     OW68445  13.770   5.176   7.714
22224SOL    HW168446  13.786   5.082   7.727
22224SOL    HW268447  13.675   5.183   7.706
22225SOL     OW68448   9.159   5.476  11.610
22225SOL    HW168449   9.097   5.454  11.679
22225SOL    HW268450   9.104   5.509  11.538
22226SOL     OW68451   2.679   8.607  12.276
22226SOL    HW168452   2.768   8.641  12.280
22226SOL    HW268453   2.625   8.682  12.250
22227SOL     OW68454  13.867  14.333   4.588
22227SOL    HW168455  13.816  14.395   4.536
22227SOL    HW268456  13.911  14.386   4.654
22228SOL     OW68457   9.807   0.417  12.571
22228SOL    HW168458   9.723   0.409  12.618
22228SOL    HW268459   9.798   0.497  12.519
22229SOL     OW68460   6.127   9.463   6.019
22229SOL    HW168461   6.171   9.426   6.095
22229SOL    HW268462   6.146   9.403   5.948
22230SOL     OW68463  14.250   3.469   0.423
22230SOL    HW168464  14.296   3.385   0.427
22230SOL    HW268465  14.302   3.526   0.480
22231SOL     OW68466   2.402   4.091   3.386
22231SOL    HW168467   2.308   4.081   3.402
22231SOL    HW268468   2.442   4.017   3.430
22232SOL     OW68469   9.040  14.356   7.940
22232SOL    HW168470   9.124  14.319   7.912
22232SOL    HW268471   9.037  14.339   8.034
22233SOL     OW68472   7.011   9.598   4.825
22233SOL    HW168473   6.968   9.586   4.909
22233SOL    HW268474   7.035   9.510   4.797
22234SOL     OW68475   8.447  11.567   4.332
22234SOL    HW168476   8.526  11.566   4.278
22234SOL    HW268477   8.461  11.496   4.395
22235SOL     OW68478  10.009   8.797   9.371
22235SOL    HW168479  10.003   8.736   9.444
22235SOL    HW268480   9.977   8.880   9.406
22236SOL     OW68481  12.978   4.628  14.257
22236SOL    HW168482  12.960   4.568  14.185
22236SOL    HW268483  12.948   4.583  14.335
22237SOL     OW68484   9.720   6.540   0.950
22237SOL    HW168485   9.800   6.566   0.997
22237SOL    HW268486   9.685   6.467   1.001
22238SOL     OW68487   4.785  11.232   9.961
22238SOL    HW168488   4.785  11.136   9.967
22238SOL    HW268489   4.694  11.254   9.937
22239SOL     OW68490   5.242  10.582   2.818
22239SOL    HW168491   5.240  10.516   2.887
22239SOL    HW268492   5.157  10.625   2.822
22240SOL     OW68493   1.127   5.319   7.398
22240SOL    HW168494   1.034   5.312   7.420
22240SOL    HW268495   1.134   5.279   7.311
22241SOL     OW68496   3.018  11.277   6.498
22241SOL    HW168497   3.003  11.203   6.440
22241SOL    HW268498   3.083  11.330   6.453
22242SOL     OW68499  14.586  10.856   5.337
22242SOL    HW168500  14.503  10.894   5.366
22242SOL    HW268501  14.635  10.841   5.418
22243SOL     OW68502   5.185  10.645   0.694
22243SOL    HW168503   5.152  10.560   0.666
22243SOL    HW268504   5.230  10.679   0.616
22244SOL     OW68505  12.988   4.691   5.045
22244SOL    HW168506  12.940   4.619   5.003
22244SOL    HW268507  13.023   4.651   5.125
22245SOL     OW68508   5.437  14.050   3.784
22245SOL    HW168509   5.506  14.014   3.839
22245SOL    HW268510   5.470  14.135   3.755
22246SOL     OW68511  11.805  14.820   3.994
22246SOL    HW168512  11.789   0.031   3.976
22246SOL    HW268513  11.897  14.807   3.971
22247SOL     OW68514  11.255  14.790  10.982
22247SOL    HW168515  11.283  14.725  11.045
22247SOL    HW268516  11.179  14.751  10.938
22248SOL     OW68517  13.769  13.498  14.569
22248SOL    HW168518  13.860  13.523  14.551
22248SOL    HW268519  13.757  13.414  14.524
22249SOL     OW68520   3.702   8.460  13.981
22249SOL    HW168521   3.782   8.434  14.027
22249SOL    HW268522   3.678   8.383  13.930
22250SOL     OW68523   2.922  10.038   5.957
22250SOL    HW168524   2.887  10.118   5.996
22250SOL    HW268525   2.911  10.051   5.863
22251SOL     OW68526   3.102   9.958   3.097
22251SOL    HW168527   3.060  10.018   3.159
22251SOL    HW268528   3.196   9.976   3.107
22252SOL     OW68529   7.086  14.736   5.559
22252SOL    HW168530   7.146  14.810   5.569
22252SOL    HW268531   6.999  14.776   5.565
22253SOL     OW68532  12.287   4.023  13.383
22253SOL    HW168533  12.341   4.036  13.305
22253SOL    HW268534  12.348   4.031  13.457
22254SOL     OW68535  13.230   0.406   2.653
22254SOL    HW168536  13.251   0.360   2.572
22254SOL    HW268537  13.224   0.336   2.719
22255SOL     OW68538   0.047   5.839   5.128
22255SOL    HW168539   0.046   5.743   5.123
22255SOL    HW268540  14.874   5.859   5.204
22256SOL     OW68541   3.718  13.670  10.048
22256SOL    HW168542   3.682  13.672  10.136
22256SOL    HW268543   3.679  13.593  10.007
22257SOL     OW68544   4.411   2.210  11.291
22257SOL    HW168545   4.396   2.137  11.351
22257SOL    HW268546   4.487   2.184  11.240
22258SOL     OW68547   2.242   2.634   5.667
22258SOL    HW168548   2.163   2.682   5.691
22258SOL    HW268549   2.212   2.561   5.613
22259SOL     OW68550   6.952   3.074  11.269
22259SOL    HW168551   7.047   3.084  11.278
22259SOL    HW268552   6.918   3.163  11.282
22260SOL     OW68553   6.003  12.498   0.522
22260SOL    HW168554   6.096  12.518   0.524
22260SOL    HW268555   5.988  12.460   0.436
22261SOL     OW68556   1.100   2.390   0.197
22261SOL    HW168557   1.131   2.381   0.288
22261SOL    HW268558   1.175   2.428   0.151
22262SOL     OW68559  12.224  11.395  14.725
22262SOL    HW168560  12.290  11.386  14.794
22262SOL    HW268561  12.154  11.445  14.766
22263SOL     OW68562   2.520   9.753   7.709
22263SOL    HW168563   2.570   9.692   7.654
22263SOL    HW268564   2.580   9.778   7.779
22264SOL     OW68565   7.807   2.375  10.743
22264SOL    HW168566   7.795   2.336  10.829
22264SOL    HW268567   7.742   2.445  10.738
22265SOL     OW68568  13.080   9.307   7.565
22265SOL    HW168569  13.051   9.388   7.523
22265SOL    HW268570  13.098   9.248   7.492
22266SOL     OW68571   3.487   1.234   5.207
22266SOL    HW168572   3.550   1.290   5.253
22266SOL    HW268573   3.481   1.155   5.261
22267SOL     OW68574  14.689   3.251   0.971
22267SOL    HW168575  14.763   3.231   0.913
22267SOL    HW268576  14.656   3.166   1.000
22268SOL     OW68577  13.568   1.495  13.684
22268SOL    HW168578  13.510   1.538  13.747
22268SOL    HW268579  13.509   1.451  13.623
22269SOL     OW68580  10.710   4.163   0.933
22269SOL    HW168581  10.671   4.190   1.016
22269SOL    HW268582  10.641   4.112   0.890
22270SOL     OW68583   2.995   5.172  13.225
22270SOL    HW168584   3.043   5.240  13.179
22270SOL    HW268585   3.030   5.173  13.314
22271SOL     OW68586  13.117  10.731   7.754
22271SOL    HW168587  13.183  10.701   7.691
22271SOL    HW268588  13.079  10.651   7.789
22272SOL     OW68589   7.631  13.516  10.578
22272SOL    HW168590   7.612  13.453  10.648
22272SOL    HW268591   7.726  13.518  10.572
22273SOL     OW68592   8.138   6.711   8.857
22273SOL    HW168593   8.110   6.731   8.946
22273SOL    HW268594   8.218   6.763   8.844
22274SOL     OW68595  10.111   4.512   7.308
22274SOL    HW168596  10.101   4.522   7.214
22274SOL    HW268597  10.157   4.592   7.336
22275SOL     OW68598  13.996  12.020   7.822
22275SOL    HW168599  14.072  11.972   7.789
22275SOL    HW268600  13.944  11.954   7.868
22276SOL     OW68601   4.258  14.259  13.206
22276SOL    HW168602   4.325  14.210  13.254
22276SOL    HW268603   4.281  14.249  13.114
22277SOL     OW68604  10.017  10.283  12.115
22277SOL    HW168605  10.099  10.248  12.153
22277SOL    HW268606   9.965  10.309  12.191
22278SOL     OW68607   7.834   4.249   7.705
22278SOL    HW168608   7.881   4.328   7.728
22278SOL    HW268609   7.867   4.226   7.618
22279SOL     OW68610   5.695   2.998  11.641
22279SOL    HW168611   5.655   3.084  11.657
22279SOL    HW268612   5.713   2.964  11.729
22280SOL     OW68613   1.877   6.385  12.787
22280SOL    HW168614   1.801   6.369  12.843
22280SOL    HW268615   1.855   6.465  12.739
22281SOL     OW68616   1.399   4.281   9.937
22281SOL    HW168617   1.310   4.270   9.904
22281SOL    HW268618   1.389   4.337  10.014
22282SOL     OW68619  11.354   6.336   5.889
22282SOL    HW168620  11.397   6.255   5.864
22282SOL    HW268621  11.407   6.405   5.848
22283SOL     OW68622   4.019  14.378   2.346
22283SOL    HW168623   4.086  14.331   2.297
22283SOL    HW268624   4.001  14.323   2.422
22284SOL     OW68625   5.776  10.471  12.842
22284SOL    HW168626   5.762  10.412  12.916
22284SOL    HW268627   5.691  10.478  12.800
22285SOL     OW68628   0.601   4.811   8.156
22285SOL    HW168629   0.542   4.885   8.169
22285SOL    HW268630   0.640   4.826   8.070
22286SOL     OW68631  13.585  10.562  11.221
22286SOL    HW168632  13.676  10.534  11.216
22286SOL    HW268633  13.540  10.490  11.265
22287SOL     OW68634   7.741   6.017  12.406
22287SOL    HW168635   7.748   5.941  12.463
22287SOL    HW268636   7.831   6.037  12.382
22288SOL     OW68637   0.032   2.686  11.583
22288SOL    HW168638  14.818   2.675  11.582
22288SOL    HW268639   0.061   2.658  11.496
22289SOL     OW68640   4.729   2.573   5.445
22289SOL    HW168641   4.744   2.479   5.451
22289SOL    HW268642   4.694   2.597   5.531
22290SOL     OW68643   3.759  14.174   1.056
22290SOL    HW168644   3.699  14.245   1.034
22290SOL    HW268645   3.845  14.203   1.024
22291SOL     OW68646   6.697  11.760   7.155
22291SOL    HW168647   6.617  11.724   7.193
22291SOL    HW268648   6.676  11.851   7.135
22292SOL     OW68649   0.234   2.483   3.232
22292SOL    HW168650   0.250   2.399   3.189
22292SOL    HW268651   0.145   2.476   3.265
22293SOL     OW68652   2.921   6.162   8.295
22293SOL    HW168653   2.942   6.181   8.204
22293SOL    HW268654   3.007   6.154   8.337
22294SOL     OW68655  11.046   7.008  12.933
22294SOL    HW168656  10.955   7.003  12.904
22294SOL    HW268657  11.097   7.009  12.852
22295SOL     OW68658   9.891   1.156   6.906
22295SOL    HW168659   9.933   1.153   6.992
22295SOL    HW268660   9.915   1.073   6.864
22296SOL     OW68661  13.451   2.742   4.851
22296SOL    HW168662  13.426   2.829   4.821
22296SOL    HW268663  13.473   2.695   4.771
22297SOL     OW68664   5.352   3.268   5.058
22297SOL    HW168665   5.332   3.175   5.050
22297SOL    HW268666   5.270   3.312   5.035
22298SOL     OW68667  11.772   8.197   6.206
22298SOL    HW168668  11.836   8.146   6.257
22298SOL    HW268669  11.799   8.288   6.218
22299SOL     OW68670   3.114  13.420   4.592
22299SOL    HW168671   3.078  13.332   4.580
22299SOL    HW268672   3.155  13.441   4.508
22300SOL     OW68673   9.047   2.334  14.504
22300SOL    HW168674   8.960   2.341  14.464
22300SOL    HW268675   9.088   2.419  14.490
22301SOL     OW68676   7.763   8.962   7.259
22301SOL    HW168677   7.848   8.919   7.263
22301SOL    HW268678   7.699   8.892   7.269
22302SOL     OW68679   1.119   4.885  14.852
22302SOL    HW168680   1.200   4.836  14.837
22302SOL    HW268681   1.113   4.891   0.065
22303SOL     OW68682  14.083  11.877   3.248
22303SOL    HW168683  14.039  11.806   3.295
22303SOL    HW268684  14.061  11.862   3.156
22304SOL     OW68685   9.098  10.303   7.498
22304SOL    HW168686   9.130  10.213   7.491
22304SOL    HW268687   9.015  10.295   7.545
22305SOL     OW68688   1.003   6.257   0.889
22305SOL    HW168689   0.924   6.217   0.924
22305SOL    HW268690   1.020   6.210   0.808
22306SOL     OW68691   3.162   2.960   3.137
22306SOL    HW168692   3.076   2.920   3.148
22306SOL    HW268693   3.145   3.054   3.134
22307SOL     OW68694  11.465   3.992   9.450
22307SOL    HW168695  11.446   4.061   9.514
22307SOL    HW268696  11.446   3.910   9.497
22308SOL     OW68697   1.881  14.127  14.119
22308SOL    HW168698   1.904  14.210  14.079
22308SOL    HW268699   1.798  14.103  14.079
22309SOL     OW68700   1.343  11.446   9.260
22309SOL    HW168701   1.319  11.376   9.320
22309SOL    HW268702   1.289  11.521   9.287
22310SOL     OW68703   8.673   8.010   2.495
22310SOL    HW168704   8.708   8.087   2.541
22310SOL    HW268705   8.663   7.944   2.563
22311SOL     OW68706   5.015  11.490   9.370
22311SOL    HW168707   5.033  11.536   9.453
22311SOL    HW268708   4.969  11.411   9.397
22312SOL     OW68709   4.307   8.299  11.299
22312SOL    HW168710   4.267   8.384  11.279
22312SOL    HW268711   4.306   8.294  11.395
22313SOL     OW68712  10.189   8.103   8.615
22313SOL    HW168713  10.211   8.143   8.531
22313SOL    HW268714  10.217   8.012   8.607
22314SOL     OW68715  10.063  12.754   2.457
22314SOL    HW168716  10.134  12.700   2.423
22314SOL    HW268717  10.070  12.836   2.408
22315SOL     OW68718   6.693  14.496  14.265
22315SOL    HW168719   6.768  14.535  14.219
22315SOL    HW268720   6.723  14.408  14.290
22316SOL     OW68721   8.079   5.825   0.434
22316SOL    HW168722   8.001   5.810   0.487
22316SOL    HW268723   8.149   5.777   0.479
22317SOL     OW68724  11.906  12.276   6.331
22317SOL    HW168725  11.854  12.282   6.411
22317SOL    HW268726  11.841  12.261   6.261
22318SOL     OW68727   0.496   2.630  10.138
22318SOL    HW168728   0.532   2.569  10.074
22318SOL    HW268729   0.466   2.574  10.210
22319SOL     OW68730   1.491  12.773  10.030
22319SOL    HW168731   1.583  12.791  10.053
22319SOL    HW268732   1.467  12.845   9.972
22320SOL     OW68733   9.227   0.078   2.918
22320SOL    HW168734   9.158   0.104   2.979
22320SOL    HW268735   9.307   0.082   2.970
22321SOL     OW68736   8.751   1.590   1.293
22321SOL    HW168737   8.675   1.616   1.241
22321SOL    HW268738   8.773   1.503   1.261
22322SOL     OW68739  12.931  10.227   0.126
22322SOL    HW168740  13.015  10.183   0.123
22322SOL    HW268741  12.866  10.158   0.109
22323SOL     OW68742  14.447   8.873  13.289
22323SOL    HW168743  14.441   8.949  13.231
22323SOL    HW268744  14.368   8.877  13.343
22324SOL     OW68745   2.528  12.401   3.410
22324SOL    HW168746   2.507  12.361   3.495
22324SOL    HW268747   2.623  12.411   3.412
22325SOL     OW68748   6.788  14.519   5.719
22325SOL    HW168749   6.720  14.483   5.776
22325SOL    HW268750   6.843  14.571   5.777
22326SOL     OW68751   1.590   8.111   0.171
22326SOL    HW168752   1.510   8.094   0.221
22326SOL    HW268753   1.577   8.064   0.089
22327SOL     OW68754   7.595  10.341  14.260
22327SOL    HW168755   7.643  10.363  14.340
22327SOL    HW268756   7.658  10.293  14.206
22328SOL     OW68757  13.054   9.782   6.859
22328SOL    HW168758  13.073   9.835   6.936
22328SOL    HW268759  13.069   9.691   6.887
22329SOL     OW68760  11.767   8.507   8.420
22329SOL    HW168761  11.765   8.502   8.515
22329SOL    HW268762  11.697   8.569   8.398
22330SOL     OW68763  13.816   7.755  14.643
22330SOL    HW168764  13.737   7.752  14.697
22330SOL    HW268765  13.796   7.702  14.567
22331SOL     OW68766   8.070   5.807  13.869
22331SOL    HW168767   8.165   5.821  13.863
22331SOL    HW268768   8.047   5.760  13.789
22332SOL     OW68769  13.620   1.821  13.070
22332SOL    HW168770  13.636   1.914  13.086
22332SOL    HW268771  13.572   1.820  12.987
22333SOL     OW68772   0.009  10.359   3.776
22333SOL    HW168773   0.063  10.434   3.800
22333SOL    HW268774  14.848  10.384   3.694
22334SOL     OW68775   5.843   6.675   5.105
22334SOL    HW168776   5.913   6.733   5.136
22334SOL    HW268777   5.766   6.732   5.100
22335SOL     OW68778  13.475   2.157  13.108
22335SOL    HW168779  13.400   2.118  13.152
22335SOL    HW268780  13.482   2.245  13.145
22336SOL     OW68781  11.811   3.044  10.745
22336SOL    HW168782  11.806   3.068  10.837
22336SOL    HW268783  11.848   2.956  10.744
22337SOL     OW68784   9.646   1.028   8.858
22337SOL    HW168785   9.608   0.974   8.928
22337SOL    HW268786   9.598   1.110   8.862
22338SOL     OW68787  11.583   6.935   1.604
22338SOL    HW168788  11.568   6.915   1.511
22338SOL    HW268789  11.675   6.916   1.618
22339SOL     OW68790   1.544  14.506   0.921
22339SOL    HW168791   1.507  14.556   0.994
22339SOL    HW268792   1.602  14.443   0.962
22340SOL     OW68793   6.930   7.772   8.584
22340SOL    HW168794   6.912   7.855   8.539
22340SOL    HW268795   7.025   7.761   8.576
22341SOL     OW68796   0.734  13.892   6.177
22341SOL    HW168797   0.657  13.902   6.234
22341SOL    HW268798   0.807  13.925   6.229
22342SOL     OW68799   1.456   8.010   7.672
22342SOL    HW168800   1.389   7.993   7.738
22342SOL    HW268801   1.406   8.024   7.591
22343SOL     OW68802  10.577   8.593   2.995
22343SOL    HW168803  10.625   8.644   3.060
22343SOL    HW268804  10.525   8.657   2.947
22344SOL     OW68805   1.566  13.768   9.095
22344SOL    HW168806   1.634  13.808   9.149
22344SOL    HW268807   1.576  13.674   9.109
22345SOL     OW68808   6.960   7.977   1.192
22345SOL    HW168809   6.993   8.066   1.180
22345SOL    HW268810   6.888   7.969   1.130
22346SOL     OW68811   7.212   7.707   1.797
22346SOL    HW168812   7.123   7.741   1.787
22346SOL    HW268813   7.268   7.781   1.774
22347SOL     OW68814   7.256  12.237   0.588
22347SOL    HW168815   7.319  12.249   0.660
22347SOL    HW268816   7.181  12.193   0.628
22348SOL     OW68817  11.111  10.306   3.474
22348SOL    HW168818  11.177  10.259   3.423
22348SOL    HW268819  11.090  10.249   3.547
22349SOL     OW68820  11.959   6.068  10.073
22349SOL    HW168821  11.960   6.021   9.990
22349SOL    HW268822  12.003   6.009  10.134
22350SOL     OW68823  11.227  14.419   6.881
22350SOL    HW168824  11.221  14.324   6.886
22350SOL    HW268825  11.309  14.436   6.834
22351SOL     OW68826  11.261   8.061  12.342
22351SOL    HW168827  11.177   8.082  12.301
22351SOL    HW268828  11.268   7.965  12.334
22352SOL     OW68829  12.904   4.463   4.910
22352SOL    HW168830  12.894   4.371   4.935
22352SOL    HW268831  12.971   4.462   4.842
22353SOL     OW68832   1.871  14.060   6.931
22353SOL    HW168833   1.790  14.098   6.964
22353SOL    HW268834   1.911  14.017   7.007
22354SOL     OW68835  12.385  11.214  11.172
22354SOL    HW168836  12.424  11.145  11.226
22354SOL    HW268837  12.317  11.169  11.122
22355SOL     OW68838   7.136   1.352  12.513
22355SOL    HW168839   7.085   1.354  12.593
22355SOL    HW268840   7.227   1.349  12.542
22356SOL     OW68841   6.762   4.590  10.231
22356SOL    HW168842   6.789   4.635  10.310
22356SOL    HW268843   6.676   4.553  10.252
22357SOL     OW68844   3.241   6.532  14.095
22357SOL    HW168845   3.227   6.440  14.076
22357SOL    HW268846   3.327   6.552  14.058
22358SOL     OW68847   1.070   8.972  14.028
22358SOL    HW168848   1.114   9.026  13.962
22358SOL    HW268849   1.098   9.010  14.112
22359SOL     OW68850   1.090   8.653   3.190
22359SOL    HW168851   1.092   8.576   3.247
22359SOL    HW268852   1.008   8.645   3.142
22360SOL     OW68853  12.558   9.789   5.661
22360SOL    HW168854  12.585   9.881   5.673
22360SOL    HW268855  12.466   9.794   5.634
22361SOL     OW68856   7.490  11.794   6.353
22361SOL    HW168857   7.528  11.852   6.287
22361SOL    HW268858   7.545  11.808   6.430
22362SOL     OW68859  13.827  13.630   5.484
22362SOL    HW168860  13.784  13.705   5.526
22362SOL    HW268861  13.868  13.582   5.556
22363SOL     OW68862   4.370   2.336   3.668
22363SOL    HW168863   4.364   2.270   3.737
22363SOL    HW268864   4.292   2.391   3.681
22364SOL     OW68865   7.241   7.747  14.130
22364SOL    HW168866   7.272   7.694  14.203
22364SOL    HW268867   7.291   7.828  14.135
22365SOL     OW68868  11.111   2.724  12.444
22365SOL    HW168869  11.091   2.715  12.351
22365SOL    HW268870  11.045   2.785  12.477
22366SOL     OW68871   6.868  12.877  10.313
22366SOL    HW168872   6.870  12.948  10.248
22366SOL    HW268873   6.906  12.916  10.392
22367SOL     OW68874   0.160   4.799   4.885
22367SOL    HW168875   0.252   4.824   4.881
22367SOL    HW268876   0.143   4.781   4.977
22368SOL     OW68877   6.562  11.350   9.556
22368SOL    HW168878   6.651  11.378   9.575
22368SOL    HW268879   6.518  11.348   9.642
22369SOL     OW68880  13.253   1.458   4.359
22369SOL    HW168881  13.173   1.457   4.412
22369SOL    HW268882  13.250   1.376   4.310
22370SOL     OW68883  11.885  11.480   3.185
22370SOL    HW168884  11.839  11.397   3.190
22370SOL    HW268885  11.972  11.458   3.150
22371SOL     OW68886  10.325  12.057   7.765
22371SOL    HW168887  10.336  11.996   7.692
22371SOL    HW268888  10.324  12.143   7.724
22372SOL     OW68889   8.149   2.340   6.586
22372SOL    HW168890   8.061   2.369   6.613
22372SOL    HW268891   8.166   2.389   6.505
22373SOL     OW68892  11.318   2.498   7.805
22373SOL    HW168893  11.236   2.490   7.756
22373SOL    HW268894  11.295   2.471   7.894
22374SOL     OW68895  10.512  12.449  10.817
22374SOL    HW168896  10.464  12.366  10.822
22374SOL    HW268897  10.568  12.440  10.740
22375SOL     OW68898  14.309   7.427  12.671
22375SOL    HW168899  14.266   7.341  12.662
22375SOL    HW268900  14.237   7.490  12.665
22376SOL     OW68901   3.936   0.959   5.249
22376SOL    HW168902   3.844   0.931   5.250
22376SOL    HW268903   3.953   0.991   5.337
22377SOL     OW68904  12.071   5.612   4.347
22377SOL    HW168905  12.087   5.534   4.400
22377SOL    HW268906  12.110   5.591   4.262
22378SOL     OW68907   7.172   5.893  10.395
22378SOL    HW168908   7.212   5.979  10.413
22378SOL    HW268909   7.237   5.846  10.344
22379SOL     OW68910   6.748  12.860  11.548
22379SOL    HW168911   6.733  12.848  11.454
22379SOL    HW268912   6.676  12.813  11.590
22380SOL     OW68913   4.344  14.320   6.733
22380SOL    HW168914   4.358  14.341   6.826
22380SOL    HW268915   4.254  14.288   6.730
22381SOL     OW68916   3.007   2.561   6.433
22381SOL    HW168917   3.045   2.645   6.461
22381SOL    HW268918   2.966   2.526   6.512
22382SOL     OW68919  13.427   4.126   5.374
22382SOL    HW168920  13.368   4.190   5.333
22382SOL    HW268921  13.458   4.072   5.302
22383SOL     OW68922  12.710   5.257   8.597
22383SOL    HW168923  12.715   5.266   8.693
22383SOL    HW268924  12.624   5.291   8.575
22384SOL     OW68925   7.469  14.097  11.393
22384SOL    HW168926   7.475  14.185  11.429
22384SOL    HW268927   7.452  14.041  11.469
22385SOL     OW68928   5.703   1.952   9.279
22385SOL    HW168929   5.694   1.932   9.372
22385SOL    HW268930   5.784   2.003   9.273
22386SOL     OW68931  11.424   0.159  14.696
22386SOL    HW168932  11.397   0.119  14.779
22386SOL    HW268933  11.450   0.248  14.720
22387SOL     OW68934   4.008   9.744  13.536
22387SOL    HW168935   3.957   9.728  13.457
22387SOL    HW268936   4.083   9.796  13.506
22388SOL     OW68937   7.103   6.702   9.104
22388SOL    HW168938   7.016   6.676   9.132
22388SOL    HW268939   7.162   6.665   9.169
22389SOL     OW68940   2.871   8.289   9.418
22389SOL    HW168941   2.943   8.327   9.368
22389SOL    HW268942   2.840   8.217   9.364
22390SOL     OW68943   4.814   4.073   3.194
22390SOL    HW168944   4.887   4.011   3.194
22390SOL    HW268945   4.764   4.051   3.272
22391SOL     OW68946   1.064   0.096   0.888
22391SOL    HW168947   0.989   0.120   0.942
22391SOL    HW268948   1.072   0.169   0.826
22392SOL     OW68949   0.779  10.811   6.911
22392SOL    HW168950   0.852  10.817   6.848
22392SOL    HW268951   0.701  10.826   6.858
22393SOL     OW68952  13.675  14.641   9.685
22393SOL    HW168953  13.738  14.682   9.744
22393SOL    HW268954  13.624  14.714   9.649
22394SOL     OW68955   0.557   5.365  12.330
22394SOL    HW168956   0.513   5.280  12.335
22394SOL    HW268957   0.562   5.395  12.421
22395SOL     OW68958  11.193   7.980   0.123
22395SOL    HW168959  11.145   8.030   0.057
22395SOL    HW268960  11.265   8.037   0.149
22396SOL     OW68961  10.233   2.815   0.316
22396SOL    HW168962  10.229   2.826   0.220
22396SOL    HW268963  10.226   2.904   0.350
22397SOL     OW68964   0.408  12.344   9.364
22397SOL    HW168965   0.373  12.425   9.400
22397SOL    HW268966   0.501  12.363   9.347
22398SOL     OW68967   6.612   8.089   2.101
22398SOL    HW168968   6.668   8.015   2.078
22398SOL    HW268969   6.587   8.072   2.192
22399SOL     OW68970   7.858   0.422   5.596
22399SOL    HW168971   7.900   0.441   5.512
22399SOL    HW268972   7.770   0.458   5.588
22400SOL     OW68973   3.304   4.813   1.404
22400SOL    HW168974   3.259   4.889   1.441
22400SOL    HW268975   3.284   4.741   1.464
22401SOL     OW68976  11.685   3.797   8.183
22401SOL    HW168977  11.682   3.725   8.247
22401SOL    HW268978  11.774   3.831   8.190
22402SOL     OW68979  13.870   8.604   2.211
22402SOL    HW168980  13.953   8.644   2.238
22402SOL    HW268981  13.881   8.511   2.231
22403SOL     OW68982   0.619   0.476   0.500
22403SOL    HW168983   0.575   0.521   0.428
22403SOL    HW268984   0.670   0.544   0.544
22404SOL     OW68985   7.940   0.988   2.739
22404SOL    HW168986   7.868   1.050   2.734
22404SOL    HW268987   7.910   0.921   2.801
22405SOL     OW68988  12.378  13.614  10.098
22405SOL    HW168989  12.448  13.551  10.115
22405SOL    HW268990  12.366  13.660  10.181
22406SOL     OW68991  12.104   9.082   7.495
22406SOL    HW168992  12.016   9.068   7.531
22406SOL    HW268993  12.129   9.168   7.528
22407SOL     OW68994  13.334   8.062  10.899
22407SOL    HW168995  13.249   8.056  10.943
22407SOL    HW268996  13.376   7.977  10.916
22408SOL     OW68997   1.932  11.384   4.617
22408SOL    HW168998   1.893  11.332   4.546
22408SOL    HW268999   2.012  11.420   4.579
22409SOL     OW69000   2.839   2.684   9.593
22409SOL    HW169001   2.754   2.728   9.594
22409SOL    HW269002   2.857   2.670   9.500
22410SOL     OW69003  14.573  13.196   2.426
22410SOL    HW169004  14.549  13.113   2.467
22410SOL    HW269005  14.547  13.263   2.490
22411SOL     OW69006   8.980  11.360   3.274
22411SOL    HW169007   8.982  11.272   3.312
22411SOL    HW269008   8.903  11.402   3.314
22412SOL     OW69009  12.897   9.846   2.947
22412SOL    HW169010  12.991   9.848   2.969
22412SOL    HW269011  12.853   9.870   3.028
22413SOL     OW69012   2.356   0.673  10.857
22413SOL    HW169013   2.318   0.611  10.795
22413SOL    HW269014   2.450   0.655  10.855
22414SOL     OW69015   4.630   6.748  11.093
22414SOL    HW169016   4.673   6.693  11.158
22414SOL    HW269017   4.543   6.710  11.082
22415SOL     OW69018   7.415  14.484  11.805
22415SOL    HW169019   7.476  14.433  11.859
22415SOL    HW269020   7.467  14.510  11.728
22416SOL     OW69021   1.105   2.762   2.979
22416SOL    HW169022   1.048   2.827   3.019
22416SOL    HW269023   1.049   2.713   2.920
22417SOL     OW69024  11.947   5.898   2.238
22417SOL    HW169025  11.872   5.876   2.294
22417SOL    HW269026  12.024   5.870   2.288
22418SOL     OW69027   3.769   4.993  10.821
22418SOL    HW169028   3.848   4.987  10.767
22418SOL    HW269029   3.796   4.962  10.907
22419SOL     OW69030  14.010  10.016  13.528
22419SOL    HW169031  14.039  10.077  13.596
22419SOL    HW269032  13.942   9.963  13.570
22420SOL     OW69033   6.256  12.362  13.014
22420SOL    HW169034   6.205  12.389  12.938
22420SOL    HW269035   6.347  12.371  12.986
22421SOL     OW69036   5.307  12.388   9.021
22421SOL    HW169037   5.360  12.309   9.025
22421SOL    HW269038   5.231  12.364   8.968
22422SOL     OW69039   5.093   7.297  14.733
22422SOL    HW169040   5.148   7.309  14.655
22422SOL    HW269041   5.152   7.313  14.806
22423SOL     OW69042  13.275   2.644   1.751
22423SOL    HW169043  13.262   2.553   1.777
22423SOL    HW269044  13.243   2.648   1.661
22424SOL     OW69045   2.942  10.125   5.707
22424SOL    HW169046   3.011  10.091   5.651
22424SOL    HW269047   2.886  10.177   5.649
22425SOL     OW69048   6.338  14.820   1.626
22425SOL    HW169049   6.392  14.816   1.705
22425SOL    HW269050   6.304   0.029   1.625
22426SOL     OW69051  12.513   7.748  14.475
22426SOL    HW169052  12.466   7.798  14.408
22426SOL    HW269053  12.447   7.733  14.543
22427SOL     OW69054  14.627   0.226   6.361
22427SOL    HW169055  14.634   0.185   6.446
22427SOL    HW269056  14.557   0.178   6.316
22428SOL     OW69057   0.029   3.692   8.903
22428SOL    HW169058   0.123   3.709   8.895
22428SOL    HW269059   0.007   3.724   8.990
22429SOL     OW69060   9.512   4.009   4.830
22429SOL    HW169061   9.540   4.080   4.771
22429SOL    HW269062   9.417   4.008   4.822
22430SOL     OW69063  11.800   5.837   5.366
22430SOL    HW169064  11.763   5.901   5.426
22430SOL    HW269065  11.798   5.880   5.280
22431SOL     OW69066  12.233  11.480  10.322
22431SOL    HW169067  12.199  11.419  10.256
22431SOL    HW269068  12.158  11.533  10.348
22432SOL     OW69069   1.087   0.883  10.850
22432SOL    HW169070   1.183   0.883  10.858
22432SOL    HW269071   1.060   0.968  10.884
22433SOL     OW69072   8.790  11.576   2.032
22433SOL    HW169073   8.702  11.551   2.005
22433SOL    HW269074   8.825  11.497   2.075
22434SOL     OW69075  13.093   6.039   4.541
22434SOL    HW169076  13.180   6.003   4.555
22434SOL    HW269077  13.104   6.134   4.549
22435SOL     OW69078   6.439   9.375  13.278
22435SOL    HW169079   6.529   9.380  13.245
22435SOL    HW269080   6.389   9.432  13.219
22436SOL     OW69081  14.815   9.317   5.347
22436SOL    HW169082  14.748   9.338   5.412
22436SOL    HW269083   0.015   9.310   5.398
22437SOL     OW69084  13.400  12.580   6.749
22437SOL    HW169085  13.305  12.590   6.757
22437SOL    HW269086  13.431  12.570   6.839
22438SOL     OW69087  10.091   3.818   6.284
22438SOL    HW169088  10.031   3.747   6.262
22438SOL    HW269089  10.125   3.848   6.200
22439SOL     OW69090   6.313   6.893   6.872
22439SOL    HW169091   6.347   6.806   6.894
22439SOL    HW269092   6.251   6.913   6.942
22440SOL     OW69093   3.701   4.501  10.178
22440SOL    HW169094   3.754   4.485  10.100
22440SOL    HW269095   3.650   4.579  10.157
22441SOL     OW69096  14.529  11.687   6.060
22441SOL    HW169097  14.472  11.656   5.990
22441SOL    HW269098  14.527  11.783   6.053
22442SOL     OW69099   0.893  14.505   9.987
22442SOL    HW169100   0.858  14.547   9.908
22442SOL    HW269101   0.870  14.412   9.976
22443SOL     OW69102   6.936   4.508  14.685
22443SOL    HW169103   6.853   4.554  14.673
22443SOL    HW269104   6.964   4.486  14.596
22444SOL     OW69105   4.850   6.529  12.707
22444SOL    HW169106   4.780   6.590  12.730
22444SOL    HW269107   4.846   6.523  12.612
22445SOL     OW69108  10.034   6.478  14.562
22445SOL    HW169109  10.119   6.514  14.586
22445SOL    HW269110  10.024   6.401  14.618
22446SOL     OW69111   6.769   8.061   3.458
22446SOL    HW169112   6.767   8.019   3.544
22446SOL    HW269113   6.764   7.988   3.396
22447SOL     OW69114   5.520  11.345   8.084
22447SOL    HW169115   5.555  11.305   8.005
22447SOL    HW269116   5.533  11.279   8.152
22448SOL     OW69117   8.904   9.246   5.519
22448SOL    HW169118   8.992   9.266   5.487
22448SOL    HW269119   8.861   9.331   5.526
22449SOL     OW69120   2.493   0.517   9.652
22449SOL    HW169121   2.530   0.601   9.623
22449SOL    HW269122   2.567   0.470   9.690
22450SOL     OW69123   0.767  12.443  13.468
22450SOL    HW169124   0.762  12.386  13.545
22450SOL    HW269125   0.789  12.384  13.396
22451SOL     OW69126   5.907   5.698  14.107
22451SOL    HW169127   5.986   5.645  14.096
22451SOL    HW269128   5.901   5.749  14.026
22452SOL     OW69129   5.756  10.169   3.202
22452SOL    HW169130   5.774  10.222   3.281
22452SOL    HW269131   5.662  10.178   3.188
22453SOL     OW69132   0.875  10.510   5.604
22453SOL    HW169133   0.811  10.448   5.568
22453SOL    HW269134   0.824  10.563   5.666
22454SOL     OW69135   6.857   3.361   5.625
22454SOL    HW169136   6.766   3.377   5.599
22454SOL    HW269137   6.907   3.432   5.586
22455SOL     OW69138   2.268   6.170  14.793
22455SOL    HW169139   2.276   6.248  14.848
22455SOL    HW269140   2.194   6.122  14.830
22456SOL     OW69141  13.848   2.212  11.549
22456SOL    HW169142  13.789   2.141  11.576
22456SOL    HW269143  13.909   2.221  11.623
22457SOL     OW69144   6.371   3.277  14.411
22457SOL    HW169145   6.446   3.315  14.365
22457SOL    HW269146   6.295   3.313  14.366
22458SOL     OW69147  11.065  11.903   5.536
22458SOL    HW169148  10.998  11.879   5.599
22458SOL    HW269149  11.021  11.965   5.477
22459SOL     OW69150   4.066  10.637  14.144
22459SOL    HW169151   4.092  10.568  14.084
22459SOL    HW269152   4.071  10.597  14.231
22460SOL     OW69153   2.153  13.686   6.804
22460SOL    HW169154   2.203  13.766   6.820
22460SOL    HW269155   2.114  13.698   6.718
22461SOL     OW69156  13.145   8.778   2.932
22461SOL    HW169157  13.178   8.714   2.869
22461SOL    HW269158  13.106   8.726   3.002
22462SOL     OW69159   9.078   8.810  10.901
22462SOL    HW169160   9.136   8.813  10.825
22462SOL    HW269161   9.074   8.717  10.924
22463SOL     OW69162  11.273   0.446   3.403
22463SOL    HW169163  11.278   0.370   3.344
22463SOL    HW269164  11.282   0.409   3.491
22464SOL     OW69165   2.274   5.889   5.954
22464SOL    HW169166   2.246   5.937   5.877
22464SOL    HW269167   2.234   5.803   5.945
22465SOL     OW69168   2.109   4.381   6.182
22465SOL    HW169169   2.191   4.401   6.227
22465SOL    HW269170   2.087   4.292   6.210
22466SOL     OW69171   1.493  13.201   7.608
22466SOL    HW169172   1.514  13.168   7.695
22466SOL    HW269173   1.477  13.294   7.620
22467SOL     OW69174  12.421   6.812  12.589
22467SOL    HW169175  12.392   6.894  12.548
22467SOL    HW269176  12.339   6.764  12.605
22468SOL     OW69177   0.131  12.065   1.927
22468SOL    HW169178   0.186  12.013   1.868
22468SOL    HW269179   0.088  12.000   1.983
22469SOL     OW69180   9.112   3.604   0.410
22469SOL    HW169181   9.100   3.698   0.398
22469SOL    HW269182   9.028   3.566   0.383
22470SOL     OW69183  11.645   1.823   2.557
22470SOL    HW169184  11.588   1.747   2.545
22470SOL    HW269185  11.673   1.846   2.469
22471SOL     OW69186  10.881   9.518   0.069
22471SOL    HW169187  10.894   9.611   0.092
22471SOL    HW269188  10.850   9.520  14.860
22472SOL     OW69189  10.959   4.022  13.692
22472SOL    HW169190  10.938   4.011  13.784
22472SOL    HW269191  10.996   3.938  13.665
22473SOL     OW69192  13.807   5.829  14.463
22473SOL    HW169193  13.900   5.823  14.440
22473SOL    HW269194  13.804   5.895  14.533
22474SOL     OW69195   6.674   1.089  10.892
22474SOL    HW169196   6.677   1.041  10.809
22474SOL    HW269197   6.588   1.131  10.892
22475SOL     OW69198   9.023   8.517  12.618
22475SOL    HW169199   9.027   8.502  12.524
22475SOL    HW269200   9.044   8.610  12.628
22476SOL     OW69201   7.824  13.994  10.278
22476SOL    HW169202   7.852  14.086  10.283
22476SOL    HW269203   7.766  13.983  10.353
22477SOL     OW69204   7.517   3.311  14.114
22477SOL    HW169205   7.547   3.312  14.205
22477SOL    HW269206   7.423   3.296  14.120
22478SOL     OW69207   4.908  13.110   7.828
22478SOL    HW169208   4.873  13.025   7.856
22478SOL    HW269209   5.003  13.096   7.825
22479SOL     OW69210   8.181  12.977  12.077
22479SOL    HW169211   8.120  13.034  12.123
22479SOL    HW269212   8.159  12.989  11.984
22480SOL     OW69213  11.961   1.023  11.551
22480SOL    HW169214  11.994   0.962  11.486
22480SOL    HW269215  12.011   1.103  11.536
22481SOL     OW69216   8.408   2.058  12.299
22481SOL    HW169217   8.502   2.067  12.283
22481SOL    HW269218   8.367   2.116  12.235
22482SOL     OW69219  11.304   9.413   6.812
22482SOL    HW169220  11.327   9.448   6.899
22482SOL    HW269221  11.364   9.458   6.752
22483SOL     OW69222  11.736  14.758   2.311
22483SOL    HW169223  11.761  14.690   2.249
22483SOL    HW269224  11.651  14.789   2.280
22484SOL     OW69225   8.336   1.332  13.231
22484SOL    HW169226   8.397   1.354  13.160
22484SOL    HW269227   8.303   1.417  13.260
22485SOL     OW69228  10.808   6.192   9.286
22485SOL    HW169229  10.771   6.252   9.221
22485SOL    HW269230  10.903   6.206   9.280
22486SOL     OW69231   6.980   0.688   2.112
22486SOL    HW169232   6.895   0.647   2.127
22486SOL    HW269233   6.977   0.770   2.161
22487SOL     OW69234  12.758   2.926   0.187
22487SOL    HW169235  12.793   2.859   0.246
22487SOL    HW269236  12.791   2.903   0.101
22488SOL     OW69237   3.720   7.285  11.028
22488SOL    HW169238   3.656   7.250  10.967
22488SOL    HW269239   3.740   7.212  11.086
22489SOL     OW69240   8.106  12.855   5.776
22489SOL    HW169241   8.146  12.897   5.852
22489SOL    HW269242   8.018  12.892   5.772
22490SOL     OW69243   9.843   7.551   8.214
22490SOL    HW169244   9.792   7.532   8.292
22490SOL    HW269245   9.869   7.465   8.180
22491SOL     OW69246  11.836   5.655   2.089
22491SOL    HW169247  11.878   5.584   2.040
22491SOL    HW269248  11.909   5.710   2.118
22492SOL     OW69249   2.845  11.498   4.595
22492SOL    HW169250   2.787  11.560   4.553
22492SOL    HW269251   2.903  11.467   4.525
22493SOL     OW69252   5.511   8.143  12.819
22493SOL    HW169253   5.569   8.218  12.832
22493SOL    HW269254   5.459   8.166  12.742
22494SOL     OW69255   0.388  11.124  11.705
22494SOL    HW169256   0.456  11.066  11.739
22494SOL    HW269257   0.434  11.182  11.644
22495SOL     OW69258   9.510  10.036   6.330
22495SOL    HW169259   9.574  10.045   6.259
22495SOL    HW269260   9.494   9.941   6.336
22496SOL     OW69261   7.165   6.058  10.796
22496SOL    HW169262   7.147   6.146  10.764
22496SOL    HW269263   7.223   6.071  10.871
22497SOL     OW69264   2.494   7.456  12.293
22497SOL    HW169265   2.517   7.464  12.200
22497SOL    HW269266   2.552   7.517  12.337
22498SOL     OW69267   4.074   5.296   7.267
22498SOL    HW169268   4.039   5.210   7.242
22498SOL    HW269269   4.169   5.287   7.260
22499SOL     OW69270   1.727   3.721  14.257
22499SOL    HW169271   1.807   3.690  14.298
22499SOL    HW269272   1.662   3.722  14.327
22500SOL     OW69273  11.812   4.570  10.363
22500SOL    HW169274  11.829   4.528  10.279
22500SOL    HW269275  11.720   4.598  10.358
22501SOL     OW69276   1.737   0.025   5.991
22501SOL    HW169277   1.659   0.081   5.994
22501SOL    HW269278   1.744  14.872   6.080
22502SOL     OW69279   6.172  11.003   3.196
22502SOL    HW169280   6.175  11.084   3.145
22502SOL    HW269281   6.142  11.031   3.283
22503SOL     OW69282  14.308   0.589  10.370
22503SOL    HW169283  14.381   0.563  10.427
22503SOL    HW269284  14.333   0.558  10.283
22504SOL     OW69285   9.886   7.801   8.095
22504SOL    HW169286   9.869   7.714   8.133
22504SOL    HW269287   9.936   7.782   8.015
22505SOL     OW69288  10.017   6.924   5.426
22505SOL    HW169289   9.938   6.967   5.393
22505SOL    HW269290  10.021   6.841   5.379
22506SOL     OW69291  10.350   1.443  13.043
22506SOL    HW169292  10.430   1.392  13.030
22506SOL    HW269293  10.284   1.398  12.990
22507SOL     OW69294   7.497  11.490   5.986
22507SOL    HW169295   7.436  11.564   5.983
22507SOL    HW269296   7.571  11.518   5.934
22508SOL     OW69297  12.698   9.261   1.005
22508SOL    HW169298  12.752   9.184   0.987
22508SOL    HW269299  12.669   9.250   1.096
22509SOL     OW69300   0.446  13.635  12.713
22509SOL    HW169301   0.492  13.571  12.767
22509SOL    HW269302   0.509  13.658  12.644
22510SOL     OW69303   3.515  10.620   3.661
22510SOL    HW169304   3.504  10.656   3.573
22510SOL    HW269305   3.491  10.691   3.720
22511SOL     OW69306   7.241   1.474   6.336
22511SOL    HW169307   7.296   1.415   6.285
22511SOL    HW269308   7.170   1.499   6.276
22512SOL     OW69309   9.050   0.579   0.195
22512SOL    HW169310   9.099   0.559   0.276
22512SOL    HW269311   8.982   0.511   0.191
22513SOL     OW69312   0.453   1.443  14.303
22513SOL    HW169313   0.379   1.492  14.267
22513SOL    HW269314   0.490   1.397  14.227
22514SOL     OW69315   2.628   4.527   0.358
22514SOL    HW169316   2.599   4.485   0.277
22514SOL    HW269317   2.613   4.620   0.344
22515SOL     OW69318   8.762  14.598   2.343
22515SOL    HW169319   8.791  14.624   2.431
22515SOL    HW269320   8.829  14.537   2.313
22516SOL     OW69321   7.344  11.784  14.743
22516SOL    HW169322   7.354  11.692  14.720
22516SOL    HW269323   7.400  11.795  14.820
22517SOL     OW69324  11.231   1.779  11.023
22517SOL    HW169325  11.150   1.822  10.996
22517SOL    HW269326  11.213   1.745  11.111
22518SOL     OW69327   5.788   9.118   2.332
22518SOL    HW169328   5.864   9.076   2.374
22518SOL    HW269329   5.826   9.181   2.271
22519SOL     OW69330   8.450   0.588  14.660
22519SOL    HW169331   8.363   0.618  14.637
22519SOL    HW269332   8.502   0.599  14.580
22520SOL     OW69333   3.897  12.119   4.373
22520SOL    HW169334   3.891  12.186   4.441
22520SOL    HW269335   3.814  12.071   4.379
22521SOL     OW69336   0.796   9.015   5.457
22521SOL    HW169337   0.768   9.061   5.378
22521SOL    HW269338   0.726   9.030   5.520
22522SOL     OW69339  12.825   3.294   6.161
22522SOL    HW169340  12.883   3.337   6.224
22522SOL    HW269341  12.861   3.206   6.152
22523SOL     OW69342   0.049   1.822   7.514
22523SOL    HW169343   0.104   1.900   7.528
22523SOL    HW269344  14.854   1.837   7.570
22524SOL     OW69345   9.697  12.050   5.420
22524SOL    HW169346   9.774  11.994   5.429
22524SOL    HW269347   9.731  12.133   5.388
22525SOL     OW69348  13.965  12.217   8.006
22525SOL    HW169349  13.994  12.167   7.930
22525SOL    HW269350  13.882  12.176   8.030
22526SOL     OW69351   3.549  13.124   3.797
22526SOL    HW169352   3.524  13.191   3.860
22526SOL    HW269353   3.624  13.080   3.836
22527SOL     OW69354   6.293   2.407   3.634
22527SOL    HW169355   6.243   2.326   3.646
22527SOL    HW269356   6.318   2.407   3.541
22528SOL     OW69357  10.022   4.861  13.879
22528SOL    HW169358  10.038   4.773  13.912
22528SOL    HW269359  10.010   4.915  13.957
22529SOL     OW69360   0.701   0.082   6.787
22529SOL    HW169361   0.788   0.097   6.824
22529SOL    HW269362   0.647   0.153   6.821
22530SOL     OW69363  11.007   5.350   2.778
22530SOL    HW169364  10.932   5.332   2.835
22530SOL    HW269365  11.027   5.265   2.737
22531SOL     OW69366   7.201   4.409  10.661
22531SOL    HW169367   7.203   4.497  10.700
22531SOL    HW269368   7.232   4.351  10.730
22532SOL     OW69369  10.723   9.667   4.645
22532SOL    HW169370  10.766   9.726   4.708
22532SOL    HW269371  10.738   9.708   4.560
22533SOL     OW69372  11.986  12.810   7.783
22533SOL    HW169373  12.051  12.818   7.853
22533SOL    HW269374  11.906  12.845   7.821
22534SOL     OW69375  11.072   9.278   9.843
22534SOL    HW169376  11.045   9.356   9.795
22534SOL    HW269377  11.139   9.309   9.904
22535SOL     OW69378  13.892   1.335   7.327
22535SOL    HW169379  13.965   1.367   7.274
22535SOL    HW269380  13.901   1.240   7.327
22536SOL     OW69381   2.082   3.845   7.241
22536SOL    HW169382   2.014   3.866   7.178
22536SOL    HW269383   2.153   3.908   7.222
22537SOL     OW69384   6.900   1.193  13.556
22537SOL    HW169385   6.915   1.110  13.511
22537SOL    HW269386   6.988   1.226  13.575
22538SOL     OW69387   4.812   4.767  12.151
22538SOL    HW169388   4.851   4.790  12.236
22538SOL    HW269389   4.781   4.677  12.164
22539SOL     OW69390   0.436   4.509   1.541
22539SOL    HW169391   0.376   4.454   1.590
22539SOL    HW269392   0.520   4.464   1.545
22540SOL     OW69393  10.915  11.216  13.952
22540SOL    HW169394  10.823  11.243  13.955
22540SOL    HW269395  10.913  11.121  13.964
22541SOL     OW69396  11.916   5.204   5.124
22541SOL    HW169397  11.839   5.257   5.103
22541SOL    HW269398  11.903   5.178   5.215
22542SOL     OW69399  10.226   8.996   3.095
22542SOL    HW169400  10.254   8.992   3.003
22542SOL    HW269401  10.200   8.906   3.116
22543SOL     OW69402  14.569   8.080   2.050
22543SOL    HW169403  14.585   8.004   1.995
22543SOL    HW269404  14.655   8.102   2.086
22544SOL     OW69405   5.739  11.931   4.585
22544SOL    HW169406   5.702  12.003   4.535
22544SOL    HW269407   5.664  11.895   4.633
22545SOL     OW69408   9.647  14.055  12.506
22545SOL    HW169409   9.722  14.112  12.518
22545SOL    HW269410   9.683  13.974  12.469
22546SOL     OW69411   1.644   6.893   0.732
22546SOL    HW169412   1.588   6.822   0.700
22546SOL    HW269413   1.588   6.971   0.730
22547SOL     OW69414  11.322   9.337  12.377
22547SOL    HW169415  11.340   9.379  12.293
22547SOL    HW269416  11.232   9.362  12.398
22548SOL     OW69417   1.550   1.743   0.490
22548SOL    HW169418   1.618   1.745   0.558
22548SOL    HW269419   1.599   1.740   0.408
22549SOL     OW69420   7.211   1.538  10.555
22549SOL    HW169421   7.166   1.610  10.510
22549SOL    HW269422   7.218   1.469  10.489
22550SOL     OW69423   2.073  14.480   4.455
22550SOL    HW169424   2.135  14.519   4.394
22550SOL    HW269425   2.004  14.546   4.464
22551SOL     OW69426  11.682   2.101   2.913
22551SOL    HW169427  11.773   2.115   2.887
22551SOL    HW269428  11.668   2.007   2.898
22552SOL     OW69429   8.128   0.773  13.574
22552SOL    HW169430   8.110   0.843  13.511
22552SOL    HW269431   8.222   0.779  13.591
22553SOL     OW69432  12.203   6.179   0.123
22553SOL    HW169433  12.255   6.247   0.166
22553SOL    HW269434  12.211   6.199   0.029
22554SOL     OW69435   0.995   2.327  13.470
22554SOL    HW169436   1.080   2.366  13.447
22554SOL    HW269437   1.008   2.233  13.455
22555SOL     OW69438   0.019   7.737   9.847
22555SOL    HW169439   0.047   7.732   9.755
22555SOL    HW269440   0.002   7.647   9.872
22556SOL     OW69441   8.662  11.590   5.169
22556SOL    HW169442   8.712  11.517   5.134
22556SOL    HW269443   8.711  11.619   5.246
22557SOL     OW69444   3.517   0.573   0.691
22557SOL    HW169445   3.536   0.486   0.726
22557SOL    HW269446   3.422   0.584   0.703
22558SOL     OW69447   1.608   2.705   1.469
22558SOL    HW169448   1.656   2.694   1.551
22558SOL    HW269449   1.676   2.720   1.403
22559SOL     OW69450  13.542   8.407   5.223
22559SOL    HW169451  13.622   8.455   5.242
22559SOL    HW269452  13.519   8.432   5.134
22560SOL     OW69453  14.810   1.345   6.542
22560SOL    HW169454  14.756   1.380   6.612
22560SOL    HW269455  14.807   1.412   6.473
22561SOL     OW69456   3.819  11.108   6.308
22561SOL    HW169457   3.866  11.088   6.227
22561SOL    HW269458   3.885  11.098   6.377
22562SOL     OW69459   8.326  12.794   3.764
22562SOL    HW169460   8.355  12.711   3.725
22562SOL    HW269461   8.334  12.858   3.693
22563SOL     OW69462  10.049   7.086  10.915
22563SOL    HW169463  10.142   7.070  10.899
22563SOL    HW269464  10.003   7.031  10.852
22564SOL     OW69465  10.971  10.205   2.251
22564SOL    HW169466  10.972  10.242   2.339
22564SOL    HW269467  11.060  10.217   2.218
22565SOL     OW69468  14.657   3.647  10.255
22565SOL    HW169469  14.669   3.577  10.319
22565SOL    HW269470  14.727   3.634  10.191
22566SOL     OW69471  10.686   4.814   5.731
22566SOL    HW169472  10.600   4.773   5.729
22566SOL    HW269473  10.747   4.740   5.736
22567SOL     OW69474  13.903   2.887   0.886
22567SOL    HW169475  13.931   2.962   0.833
22567SOL    HW269476  13.807   2.885   0.875
22568SOL     OW69477  12.974   2.086  12.304
22568SOL    HW169478  12.910   2.020  12.332
22568SOL    HW269479  13.055   2.062  12.351
22569SOL     OW69480   0.172  12.781   5.891
22569SOL    HW169481   0.162  12.767   5.797
22569SOL    HW269482   0.261  12.752   5.911
22570SOL     OW69483   2.028   5.459  14.680
22570SOL    HW169484   2.005   5.521  14.749
22570SOL    HW269485   2.006   5.506  14.599
22571SOL     OW69486  14.360   4.872   6.015
22571SOL    HW169487  14.416   4.795   6.016
22571SOL    HW269488  14.363   4.903   5.924
22572SOL     OW69489   9.841   5.572   3.991
22572SOL    HW169490   9.806   5.640   3.933
22572SOL    HW269491   9.846   5.615   4.077
22573SOL     OW69492  12.874  12.692   4.869
22573SOL    HW169493  12.802  12.748   4.899
22573SOL    HW269494  12.949  12.719   4.922
22574SOL     OW69495  11.720   7.952   8.858
22574SOL    HW169496  11.648   7.894   8.833
22574SOL    HW269497  11.678   8.019   8.912
22575SOL     OW69498   8.339   1.707   3.388
22575SOL    HW169499   8.406   1.659   3.338
22575SOL    HW269500   8.279   1.639   3.418
22576SOL     OW69501   2.266   7.745   7.514
22576SOL    HW169502   2.361   7.734   7.523
22576SOL    HW269503   2.245   7.704   7.430
22577SOL     OW69504   2.597   2.405  10.129
22577SOL    HW169505   2.521   2.427  10.076
22577SOL    HW269506   2.672   2.427  10.074
22578SOL     OW69507  13.429   7.084   0.272
22578SOL    HW169508  13.450   7.177   0.259
22578SOL    HW269509  13.440   7.045   0.185
22579SOL     OW69510   8.989   9.206  10.551
22579SOL    HW169511   9.032   9.156  10.621
22579SOL    HW269512   8.896   9.188  10.563
22580SOL     OW69513   7.013   1.580  10.087
22580SOL    HW169514   7.028   1.622  10.172
22580SOL    HW269515   6.973   1.649  10.033
22581SOL     OW69516   4.814   8.279  10.787
22581SOL    HW169517   4.831   8.289  10.881
22581SOL    HW269518   4.763   8.357  10.764
22582SOL     OW69519  14.737  10.039   6.162
22582SOL    HW169520  14.749   9.978   6.090
22582SOL    HW269521  14.822  10.082   6.172
22583SOL     OW69522   4.236   0.064  12.467
22583SOL    HW169523   4.256   0.146  12.512
22583SOL    HW269524   4.321   0.023  12.453
22584SOL     OW69525   1.980   7.031   2.407
22584SOL    HW169526   1.999   7.097   2.340
22584SOL    HW269527   1.899   6.990   2.377
22585SOL     OW69528   0.047  11.331   3.592
22585SOL    HW169529   0.128  11.352   3.637
22585SOL    HW269530   0.074  11.304   3.504
22586SOL     OW69531   9.103  12.203   1.138
22586SOL    HW169532   9.016  12.207   1.178
22586SOL    HW269533   9.123  12.110   1.133
22587SOL     OW69534   2.940   8.252   2.578
22587SOL    HW169535   3.035   8.251   2.578
22587SOL    HW269536   2.915   8.162   2.560
22588SOL     OW69537   1.402   7.805   3.683
22588SOL    HW169538   1.371   7.778   3.597
22588SOL    HW269539   1.454   7.730   3.714
22589SOL     OW69540   0.869  14.141   0.633
22589SOL    HW169541   0.862  14.045   0.636
22589SOL    HW269542   0.915  14.159   0.551
22590SOL     OW69543   0.083   9.414   6.497
22590SOL    HW169544  14.869   9.418   6.488
22590SOL    HW269545   0.113   9.381   6.413
22591SOL     OW69546   0.859  10.865   6.099
22591SOL    HW169547   0.812  10.915   6.166
22591SOL    HW269548   0.925  10.925   6.065
22592SOL     OW69549  14.152  14.511   0.049
22592SOL    HW169550  14.211  14.553   0.111
22592SOL    HW269551  14.147  14.420   0.078
22593SOL     OW69552   4.921  14.633   1.272
22593SOL    HW169553   5.010  14.606   1.252
22593SOL    HW269554   4.931  14.716   1.320
22594SOL     OW69555   5.140   9.081   7.765
22594SOL    HW169556   5.195   9.118   7.834
22594SOL    HW269557   5.185   9.105   7.683
22595SOL     OW69558   9.906  12.449   2.763
22595SOL    HW169559   9.938  12.532   2.798
22595SOL    HW269560   9.815  12.467   2.738
22596SOL     OW69561  11.119   1.750   9.802
22596SOL    HW169562  11.077   1.783   9.881
22596SOL    HW269563  11.153   1.829   9.758
22597SOL     OW69564   9.378   2.207  14.206
22597SOL    HW169565   9.432   2.209  14.285
22597SOL    HW269566   9.339   2.120  14.205
22598SOL     OW69567   0.088   4.382   9.713
22598SOL    HW169568   0.031   4.312   9.742
22598SOL    HW269569   0.041   4.463   9.736
22599SOL     OW69570  13.597   0.234   2.639
22599SOL    HW169571  13.682   0.274   2.619
22599SOL    HW269572  13.533   0.291   2.597
22600SOL     OW69573   3.502  13.501   3.169
22600SOL    HW169574   3.500  13.478   3.076
22600SOL    HW269575   3.595  13.514   3.189
22601SOL     OW69576   5.691  10.351  14.842
22601SOL    HW169577   5.701  10.365  14.747
22601SOL    HW269578   5.607  10.306  14.850
22602SOL     OW69579   1.070   1.405  14.089
22602SOL    HW169580   1.075   1.347  14.014
22602SOL    HW269581   1.049   1.348  14.163
22603SOL     OW69582   3.984   2.848  10.224
22603SOL    HW169583   4.068   2.889  10.205
22603SOL    HW269584   3.983   2.769  10.171
22604SOL     OW69585   1.707  10.621   1.390
22604SOL    HW169586   1.644  10.689   1.414
22604SOL    HW269587   1.661  10.539   1.411
22605SOL     OW69588   7.605   1.556  12.480
22605SOL    HW169589   7.686   1.510  12.458
22605SOL    HW269590   7.539   1.516  12.423
22606SOL     OW69591  13.104  13.134  12.591
22606SOL    HW169592  13.084  13.134  12.497
22606SOL    HW269593  13.025  13.099  12.632
22607SOL     OW69594  10.717   9.121   0.307
22607SOL    HW169595  10.787   9.077   0.260
22607SOL    HW269596  10.644   9.059   0.306
22608SOL     OW69597  12.585  13.715   3.702
22608SOL    HW169598  12.603  13.622   3.686
22608SOL    HW269599  12.670  13.758   3.693
22609SOL     OW69600  12.521   5.998   7.957
22609SOL    HW169601  12.450   6.045   8.000
22609SOL    HW269602  12.600   6.043   7.986
22610SOL     OW69603  13.595   8.570   9.794
22610SOL    HW169604  13.613   8.476   9.784
22610SOL    HW269605  13.527   8.574   9.861
22611SOL     OW69606   8.049  12.035   4.108
22611SOL    HW169607   8.084  12.123   4.095
22611SOL    HW269608   7.961  12.038   4.072
22612SOL     OW69609   6.188   1.902   4.481
22612SOL    HW169610   6.171   1.844   4.555
22612SOL    HW269611   6.283   1.897   4.469
22613SOL     OW69612   7.385   9.726   0.280
22613SOL    HW169613   7.412   9.797   0.338
22613SOL    HW269614   7.335   9.667   0.336
22614SOL     OW69615   4.332   6.423   4.905
22614SOL    HW169616   4.427   6.409   4.907
22614SOL    HW269617   4.297   6.344   4.863
22615SOL     OW69618   0.354  14.881   5.377
22615SOL    HW169619   0.379  14.795   5.343
22615SOL    HW269620   0.433   0.033   5.419
22616SOL     OW69621   4.903   1.076   2.599
22616SOL    HW169622   4.954   1.047   2.524
22616SOL    HW269623   4.818   1.101   2.562
22617SOL     OW69624   0.197  11.734   2.664
22617SOL    HW169625   0.276  11.713   2.613
22617SOL    HW269626   0.126  11.690   2.617
22618SOL     OW69627   3.743  10.521  14.071
22618SOL    HW169628   3.648  10.529  14.068
22618SOL    HW269629   3.767  10.549  14.160
22619SOL     OW69630  13.385   2.161   4.103
22619SOL    HW169631  13.296   2.181   4.072
22619SOL    HW269632  13.441   2.174   4.026
22620SOL     OW69633   1.048  14.394   2.386
22620SOL    HW169634   0.952  14.394   2.379
22620SOL    HW269635   1.072  14.486   2.392
22621SOL     OW69636   4.398   8.972   1.000
22621SOL    HW169637   4.474   9.028   1.021
22621SOL    HW269638   4.430   8.883   1.015
22622SOL     OW69639   7.759  11.865   5.662
22622SOL    HW169640   7.815  11.942   5.647
22622SOL    HW269641   7.681  11.882   5.610
22623SOL     OW69642   1.182   5.066  10.182
22623SOL    HW169643   1.265   5.088  10.139
22623SOL    HW269644   1.156   4.983  10.143
22624SOL     OW69645  13.403  12.978   0.057
22624SOL    HW169646  13.477  12.953   0.001
22624SOL    HW269647  13.349  12.900   0.062
22625SOL     OW69648   5.468   6.407  13.945
22625SOL    HW169649   5.484   6.312  13.941
22625SOL    HW269650   5.520   6.443  13.873
22626SOL     OW69651   5.426  10.159  12.692
22626SOL    HW169652   5.520  10.164  12.705
22626SOL    HW269653   5.411  10.070  12.660
22627SOL     OW69654   0.281  12.736   4.339
22627SOL    HW169655   0.216  12.805   4.323
22627SOL    HW269656   0.338  12.772   4.407
22628SOL     OW69657   0.947  10.328   9.866
22628SOL    HW169658   0.891  10.251   9.876
22628SOL    HW269659   0.970  10.352   9.956
22629SOL     OW69660   7.603   2.831   8.937
22629SOL    HW169661   7.623   2.843   9.029
22629SOL    HW269662   7.671   2.771   8.905
22630SOL     OW69663   4.262   9.017   9.836
22630SOL    HW169664   4.302   8.937   9.804
22630SOL    HW269665   4.247   9.070   9.757
22631SOL     OW69666   7.716  13.653   8.523
22631SOL    HW169667   7.779  13.711   8.480
22631SOL    HW269668   7.630  13.685   8.493
22632SOL     OW69669   5.381  10.911   4.755
22632SOL    HW169670   5.372  11.001   4.788
22632SOL    HW269671   5.316  10.861   4.806
22633SOL     OW69672   7.514   8.458   4.784
22633SOL    HW169673   7.496   8.508   4.863
22633SOL    HW269674   7.507   8.523   4.713
22634SOL     OW69675   3.577   1.291  12.495
22634SOL    HW169676   3.609   1.345  12.568
22634SOL    HW269677   3.550   1.209  12.537
22635SOL     OW69678   8.079   2.212   8.525
22635SOL    HW169679   8.149   2.245   8.581
22635SOL    HW269680   8.115   2.134   8.484
22636SOL     OW69681   5.395  14.324   1.433
22636SOL    HW169682   5.473  14.312   1.378
22636SOL    HW269683   5.403  14.413   1.467
22637SOL     OW69684   4.121   6.789  11.163
22637SOL    HW169685   4.213   6.814  11.154
22637SOL    HW269686   4.104   6.794  11.257
22638SOL     OW69687   0.464   9.501   2.705
22638SOL    HW169688   0.394   9.562   2.728
22638SOL    HW269689   0.438   9.464   2.621
22639SOL     OW69690  13.575  12.851   2.131
22639SOL    HW169691  13.611  12.796   2.062
22639SOL    HW269692  13.590  12.941   2.101
22640SOL     OW69693  13.935  10.839   9.361
22640SOL    HW169694  13.945  10.928   9.325
22640SOL    HW269695  13.967  10.847   9.451
22641SOL     OW69696  14.532   6.601   0.726
22641SOL    HW169697  14.461   6.643   0.775
22641SOL    HW269698  14.519   6.629   0.636
22642SOL     OW69699   7.853   8.552  14.010
22642SOL    HW169700   7.826   8.619  14.072
22642SOL    HW269701   7.917   8.596  13.954
22643SOL     OW69702  13.511   2.121  11.092
22643SOL    HW169703  13.456   2.175  11.148
22643SOL    HW269704  13.458   2.044  11.071
22644SOL     OW69705   3.666   6.401   8.661
22644SOL    HW169706   3.650   6.338   8.591
22644SOL    HW269707   3.579   6.430   8.688
22645SOL     OW69708   9.381  13.328  11.373
22645SOL    HW169709   9.434  13.274  11.432
22645SOL    HW269710   9.307  13.357  11.427
22646SOL     OW69711   3.663  14.740  11.151
22646SOL    HW169712   3.605  14.802  11.195
22646SOL    HW269713   3.690  14.679  11.219
22647SOL     OW69714  14.245   4.267   5.084
22647SOL    HW169715  14.193   4.190   5.063
22647SOL    HW269716  14.325   4.232   5.125
22648SOL     OW69717  12.434   2.968   3.074
22648SOL    HW169718  12.454   2.914   2.998
22648SOL    HW269719  12.504   2.948   3.137
22649SOL     OW69720   0.207   5.771   1.273
22649SOL    HW169721   0.244   5.763   1.185
22649SOL    HW269722   0.279   5.807   1.325
22650SOL     OW69723   1.111   5.490   1.272
22650SOL    HW169724   1.046   5.527   1.212
22650SOL    HW269725   1.194   5.525   1.241
22651SOL     OW69726   0.086   9.129  14.621
22651SOL    HW169727  14.874   9.111  14.620
22651SOL    HW269728   0.109   9.142  14.529
22652SOL     OW69729   4.071  13.014  12.438
22652SOL    HW169730   4.041  12.994  12.349
22652SOL    HW269731   4.100  12.930  12.473
22653SOL     OW69732   3.956   7.209   3.545
22653SOL    HW169733   3.940   7.149   3.618
22653SOL    HW269734   3.878   7.200   3.489
22654SOL     OW69735   7.863   0.828   0.057
22654SOL    HW169736   7.777   0.869   0.045
22654SOL    HW269737   7.847   0.750   0.109
22655SOL     OW69738   4.375  12.708   0.869
22655SOL    HW169739   4.443  12.773   0.887
22655SOL    HW269740   4.315  12.752   0.809
22656SOL     OW69741  10.075  11.440   8.741
22656SOL    HW169742  10.170  11.434   8.740
22656SOL    HW269743  10.045  11.373   8.680
22657SOL     OW69744   8.255   2.571  13.898
22657SOL    HW169745   8.255   2.626  13.976
22657SOL    HW269746   8.248   2.481  13.931
22658SOL     OW69747  11.744   4.163   8.418
22658SOL    HW169748  11.813   4.098   8.404
22658SOL    HW269749  11.723   4.157   8.511
22659SOL     OW69750   6.195  12.842  11.036
22659SOL    HW169751   6.221  12.933  11.022
22659SOL    HW269752   6.210  12.800  10.951
22660SOL     OW69753   8.424   5.893   1.822
22660SOL    HW169754   8.473   5.818   1.858
22660SOL    HW269755   8.332   5.864   1.824
22661SOL     OW69756   0.193   0.845   5.764
22661SOL    HW169757   0.116   0.889   5.800
22661SOL    HW269758   0.180   0.848   5.669
22662SOL     OW69759   2.841   4.282   0.241
22662SOL    HW169760   2.756   4.269   0.283
22662SOL    HW269761   2.867   4.370   0.266
22663SOL     OW69762  13.049   6.589   9.888
22663SOL    HW169763  13.099   6.559   9.963
22663SOL    HW269764  13.029   6.681   9.908
22664SOL     OW69765   3.891  14.381   4.328
22664SOL    HW169766   3.882  14.301   4.277
22664SOL    HW269767   3.984  14.385   4.350
22665SOL     OW69768   8.553   9.762   7.851
22665SOL    HW169769   8.568   9.840   7.797
22665SOL    HW269770   8.484   9.789   7.913
22666SOL     OW69771  13.608  11.912  13.035
22666SOL    HW169772  13.691  11.945  13.000
22666SOL    HW269773  13.630  11.827  13.072
22667SOL     OW69774  14.512  14.244  10.141
22667SOL    HW169775  14.505  14.182  10.068
22667SOL    HW269776  14.497  14.329  10.102
22668SOL     OW69777   7.084   6.092   8.545
22668SOL    HW169778   7.162   6.131   8.508
22668SOL    HW269779   7.103   5.998   8.548
22669SOL     OW69780   8.162   6.803  12.745
22669SOL    HW169781   8.177   6.857  12.822
22669SOL    HW269782   8.249   6.776  12.717
22670SOL     OW69783   9.906   4.793   7.042
22670SOL    HW169784   9.955   4.854   6.986
22670SOL    HW269785   9.919   4.707   7.002
22671SOL     OW69786   9.099  14.053   0.978
22671SOL    HW169787   9.113  14.122   0.913
22671SOL    HW269788   9.183  14.045   1.023
22672SOL     OW69789   3.211  14.270   5.658
22672SOL    HW169790   3.248  14.216   5.588
22672SOL    HW269791   3.117  14.255   5.654
22673SOL     OW69792   0.007   6.434   3.666
22673SOL    HW169793   0.028   6.463   3.577
22673SOL    HW269794  14.793   6.434   3.670
22674SOL     OW69795  11.819  11.558  13.809
22674SOL    HW169796  11.826  11.485  13.747
22674SOL    HW269797  11.846  11.520  13.893
22675SOL     OW69798   3.541   2.424   9.175
22675SOL    HW169799   3.572   2.509   9.144
22675SOL    HW269800   3.515   2.439   9.266
22676SOL     OW69801   0.915   4.038  14.590
22676SOL    HW169802   0.993   4.069  14.635
22676SOL    HW269803   0.914   4.085  14.506
22677SOL     OW69804   5.856   3.634   8.862
22677SOL    HW169805   5.774   3.627   8.813
22677SOL    HW269806   5.905   3.555   8.838
22678SOL     OW69807  13.500  11.983  10.508
22678SOL    HW169808  13.481  12.010  10.598
22678SOL    HW269809  13.506  12.064  10.458
22679SOL     OW69810   8.661  12.360   1.183
22679SOL    HW169811   8.739  12.312   1.213
22679SOL    HW269812   8.615  12.298   1.127
22680SOL     OW69813   0.011   8.872   6.509
22680SOL    HW169814   0.048   8.958   6.529
22680SOL    HW269815   0.055   8.845   6.429
22681SOL     OW69816   5.849   6.610  13.779
22681SOL    HW169817   5.886   6.536  13.730
22681SOL    HW269818   5.847   6.579  13.870
22682SOL     OW69819   9.593   6.789   7.852
22682SOL    HW169820   9.506   6.772   7.890
22682SOL    HW269821   9.634   6.849   7.914
22683SOL     OW69822   8.688  13.227   5.458
22683SOL    HW169823   8.783  13.240   5.449
22683SOL    HW269824   8.651  13.316   5.454
22684SOL     OW69825   1.604   5.881  10.502
22684SOL    HW169826   1.660   5.856  10.576
22684SOL    HW269827   1.657   5.944  10.452
22685SOL     OW69828  12.565  11.979   7.337
22685SOL    HW169829  12.474  11.951   7.345
22685SOL    HW269830  12.614  11.919   7.392
22686SOL     OW69831   2.380   8.648   8.966
22686SOL    HW169832   2.375   8.670   9.059
22686SOL    HW269833   2.469   8.672   8.941
22687SOL     OW69834  12.659   1.434   8.309
22687SOL    HW169835  12.644   1.529   8.309
22687SOL    HW269836  12.572   1.396   8.305
22688SOL     OW69837   5.753   4.713  10.080
22688SOL    HW169838   5.686   4.779  10.067
22688SOL    HW269839   5.711   4.647  10.136
22689SOL     OW69840  12.945  12.361   8.556
22689SOL    HW169841  12.868  12.316   8.521
22689SOL    HW269842  12.922  12.454   8.550
22690SOL     OW69843   2.885   4.180  10.493
22690SOL    HW169844   2.813   4.118  10.478
22690SOL    HW269845   2.960   4.125  10.514
22691SOL     OW69846  13.051   7.296  10.241
22691SOL    HW169847  13.051   7.376  10.189
22691SOL    HW269848  13.074   7.324  10.329
22692SOL     OW69849  12.802   9.964  11.681
22692SOL    HW169850  12.750   9.910  11.740
22692SOL    HW269851  12.862   9.902  11.638
22693SOL     OW69852   7.157   2.539   6.453
22693SOL    HW169853   7.100   2.588   6.394
22693SOL    HW269854   7.213   2.605   6.493
22694SOL     OW69855   6.725   3.428   7.420
22694SOL    HW169856   6.742   3.521   7.436
22694SOL    HW269857   6.792   3.401   7.358
22695SOL     OW69858   9.002   2.973   7.545
22695SOL    HW169859   9.061   2.938   7.479
22695SOL    HW269860   8.954   3.043   7.499
22696SOL     OW69861  10.714  11.622   7.127
22696SOL    HW169862  10.698  11.659   7.214
22696SOL    HW269863  10.745  11.533   7.144
22697SOL     OW69864   8.098   8.286   3.990
22697SOL    HW169865   8.065   8.197   3.982
22697SOL    HW269866   8.020   8.341   3.996
22698SOL     OW69867   7.618   1.970   7.382
22698SOL    HW169868   7.654   1.977   7.294
22698SOL    HW269869   7.617   1.876   7.400
22699SOL     OW69870   4.888   0.614   7.014
22699SOL    HW169871   4.832   0.666   7.072
22699SOL    HW269872   4.977   0.630   7.046
22700SOL     OW69873   2.255  12.818  11.298
22700SOL    HW169874   2.173  12.853  11.264
22700SOL    HW269875   2.255  12.726  11.273
22701SOL     OW69876   2.288  12.509   8.947
22701SOL    HW169877   2.263  12.498   9.038
22701SOL    HW269878   2.238  12.584   8.916
22702SOL     OW69879  11.219   0.482  14.415
22702SOL    HW169880  11.275   0.425  14.362
22702SOL    HW269881  11.159   0.422  14.459
22703SOL     OW69882  11.309  14.400   9.692
22703SOL    HW169883  11.371  14.361   9.630
22703SOL    HW269884  11.264  14.468   9.641
22704SOL     OW69885   3.768  10.678   2.825
22704SOL    HW169886   3.714  10.648   2.898
22704SOL    HW269887   3.799  10.764   2.851
22705SOL     OW69888   6.794   7.872   1.422
22705SOL    HW169889   6.791   7.783   1.385
22705SOL    HW269890   6.858   7.918   1.367
22706SOL     OW69891   8.129  14.823   1.192
22706SOL    HW169892   8.151  14.732   1.214
22706SOL    HW269893   8.212  14.870   1.200
22707SOL     OW69894   2.772   7.963  14.658
22707SOL    HW169895   2.867   7.973  14.657
22707SOL    HW269896   2.747   7.956  14.565
22708SOL     OW69897  13.016  11.440  10.868
22708SOL    HW169898  12.982  11.422  10.780
22708SOL    HW269899  12.962  11.387  10.926
22709SOL     OW69900  10.531   6.038   7.487
22709SOL    HW169901  10.469   6.065   7.420
22709SOL    HW269902  10.554   5.948   7.463
22710SOL     OW69903  14.321   2.516  13.179
22710SOL    HW169904  14.241   2.509  13.231
22710SOL    HW269905  14.338   2.427  13.149
22711SOL     OW69906  12.417   3.918   1.822
22711SOL    HW169907  12.457   3.878   1.745
22711SOL    HW269908  12.379   3.999   1.790
22712SOL     OW69909   5.534  14.575   9.623
22712SOL    HW169910   5.496  14.499   9.666
22712SOL    HW269911   5.469  14.601   9.557
22713SOL     OW69912   0.809  10.857  12.942
22713SOL    HW169913   0.730  10.854  12.889
22713SOL    HW269914   0.812  10.772  12.986
22714SOL     OW69915   4.972   2.749  10.190
22714SOL    HW169916   4.994   2.657  10.179
22714SOL    HW269917   4.992   2.790  10.106
22715SOL     OW69918  11.953   0.630   3.995
22715SOL    HW169919  11.864   0.631   3.958
22715SOL    HW269920  11.983   0.540   3.981
22716SOL     OW69921   9.398   9.290   3.005
22716SOL    HW169922   9.344   9.227   2.958
22716SOL    HW269923   9.339   9.363   3.025
22717SOL     OW69924   6.695   3.436   3.631
22717SOL    HW169925   6.791   3.432   3.632
22717SOL    HW269926   6.667   3.346   3.646
22718SOL     OW69927  10.049  12.936   5.003
22718SOL    HW169928  10.132  12.981   4.989
22718SOL    HW269929  10.022  12.906   4.916
22719SOL     OW69930   2.798   0.363   4.254
22719SOL    HW169931   2.875   0.392   4.205
22719SOL    HW269932   2.834   0.304   4.321
22720SOL     OW69933   0.707   1.464   4.270
22720SOL    HW169934   0.670   1.547   4.300
22720SOL    HW269935   0.640   1.399   4.289
22721SOL     OW69936   2.427   4.091   6.315
22721SOL    HW169937   2.509   4.086   6.364
22721SOL    HW269938   2.395   4.180   6.330
22722SOL     OW69939  14.471  14.417  10.669
22722SOL    HW169940  14.471  14.329  10.706
22722SOL    HW269941  14.472  14.404  10.575
22723SOL     OW69942   6.942  10.951   1.257
22723SOL    HW169943   6.904  10.865   1.243
22723SOL    HW269944   6.904  10.981   1.340
22724SOL     OW69945   8.417   9.941   0.647
22724SOL    HW169946   8.508   9.931   0.674
22724SOL    HW269947   8.422   9.976   0.557
22725SOL     OW69948  12.932   4.544   4.499
22725SOL    HW169949  12.892   4.631   4.502
22725SOL    HW269950  13.021   4.559   4.466
22726SOL     OW69951   6.657  13.202   6.176
22726SOL    HW169952   6.624  13.274   6.229
22726SOL    HW269953   6.688  13.242   6.095
22727SOL     OW69954   2.699   8.349   8.577
22727SOL    HW169955   2.785   8.368   8.614
22727SOL    HW269956   2.644   8.331   8.654
22728SOL     OW69957   7.362   8.218   2.244
22728SOL    HW169958   7.268   8.232   2.234
22728SOL    HW269959   7.372   8.190   2.335
22729SOL     OW69960  13.892   1.553   5.463
22729SOL    HW169961  13.944   1.476   5.440
22729SOL    HW269962  13.801   1.526   5.447
22730SOL     OW69963   6.207   4.708  10.428
22730SOL    HW169964   6.172   4.659  10.502
22730SOL    HW269965   6.294   4.735  10.456
22731SOL     OW69966  10.470   5.327   4.500
22731SOL    HW169967  10.533   5.398   4.513
22731SOL    HW269968  10.501   5.257   4.557
22732SOL     OW69969   8.510  12.791   1.390
22732SOL    HW169970   8.597  12.825   1.409
22732SOL    HW269971   8.524  12.719   1.330
22733SOL     OW69972   0.169   2.433   7.592
22733SOL    HW169973   0.257   2.396   7.577
22733SOL    HW269974   0.172   2.519   7.550
22734SOL     OW69975  11.727   6.371   2.361
22734SOL    HW169976  11.750   6.295   2.307
22734SOL    HW269977  11.786   6.364   2.436
22735SOL     OW69978   1.921  12.739   8.158
22735SOL    HW169979   1.866  12.662   8.142
22735SOL    HW269980   1.928  12.782   8.072
22736SOL     OW69981   7.825   7.164  14.527
22736SOL    HW169982   7.856   7.123  14.607
22736SOL    HW269983   7.867   7.114  14.456
22737SOL     OW69984  11.735   2.487   0.021
22737SOL    HW169985  11.667   2.420   0.011
22737SOL    HW269986  11.781   2.488  14.819
22738SOL     OW69987  11.981   4.124  10.387
22738SOL    HW169988  11.887   4.114  10.375
22738SOL    HW269989  12.016   4.036  10.374
22739SOL     OW69990   6.018  13.832   6.183
22739SOL    HW169991   6.003  13.746   6.222
22739SOL    HW269992   5.961  13.834   6.106
22740SOL     OW69993   5.009   8.649   6.990
22740SOL    HW169994   5.043   8.698   6.914
22740SOL    HW269995   4.999   8.716   7.058
22741SOL     OW69996   6.820   3.634   9.408
22741SOL    HW169997   6.896   3.671   9.363
22741SOL    HW269998   6.812   3.546   9.373
22742SOL     OW69999  11.944   2.757   2.264
22742SOL    HW170000  11.902   2.825   2.212
22742SOL    HW270001  11.931   2.784   2.355
22743SOL     OW70002  10.499   0.269  13.545
22743SOL    HW170003  10.555   0.344  13.524
22743SOL    HW270004  10.558   0.206  13.588
22744SOL     OW70005   4.334   7.280  12.553
22744SOL    HW170006   4.395   7.226  12.503
22744SOL    HW270007   4.248   7.242  12.534
22745SOL     OW70008  12.576   4.910   3.668
22745SOL    HW170009  12.651   4.903   3.609
22745SOL    HW270010  12.610   4.952   3.746
22746SOL     OW70011   8.189   0.205   5.835
22746SOL    HW170012   8.148   0.285   5.869
22746SOL    HW270013   8.152   0.134   5.888
22747SOL     OW70014   6.268  11.913   2.452
22747SOL    HW170015   6.329  11.936   2.522
22747SOL    HW270016   6.217  11.992   2.438
22748SOL     OW70017   7.798  11.804   6.029
22748SOL    HW170018   7.761  11.783   5.944
22748SOL    HW270019   7.846  11.725   6.054
22749SOL     OW70020  13.801   7.442  12.143
22749SOL    HW170021  13.835   7.498  12.213
22749SOL    HW270022  13.842   7.475  12.063
22750SOL     OW70023  14.422   6.145   7.198
22750SOL    HW170024  14.414   6.205   7.124
22750SOL    HW270025  14.424   6.202   7.275
22751SOL     OW70026  13.712   6.465   5.540
22751SOL    HW170027  13.728   6.491   5.449
22751SOL    HW270028  13.798   6.446   5.576
22752SOL     OW70029  14.780   6.317   4.955
22752SOL    HW170030  14.847   6.251   4.936
22752SOL    HW270031  14.750   6.295   5.043
22753SOL     OW70032  10.276   6.018   4.265
22753SOL    HW170033  10.241   6.088   4.320
22753SOL    HW270034  10.371   6.028   4.271
22754SOL     OW70035  14.395   2.241  10.520
22754SOL    HW170036  14.395   2.149  10.493
22754SOL    HW270037  14.308   2.255  10.558
22755SOL     OW70038  12.358  12.599  12.990
22755SOL    HW170039  12.443  12.623  13.028
22755SOL    HW270040  12.365  12.624  12.898
22756SOL     OW70041   0.977   0.290   4.279
22756SOL    HW170042   0.975   0.278   4.184
22756SOL    HW270043   0.895   0.337   4.299
22757SOL     OW70044   1.897  12.573   9.928
22757SOL    HW170045   1.870  12.509   9.995
22757SOL    HW270046   1.965  12.528   9.879
22758SOL     OW70047   0.428  12.655   4.898
22758SOL    HW170048   0.508  12.639   4.847
22758SOL    HW270049   0.376  12.575   4.888
22759SOL     OW70050  14.610  13.900   4.568
22759SOL    HW170051  14.533  13.887   4.624
22759SOL    HW270052  14.604  13.829   4.504
22760SOL     OW70053   1.026   3.259  10.847
22760SOL    HW170054   0.989   3.347  10.847
22760SOL    HW270055   1.114   3.270  10.884
22761SOL     OW70056   2.566   5.285   6.953
22761SOL    HW170057   2.549   5.379   6.965
22761SOL    HW270058   2.512   5.260   6.879
22762SOL     OW70059  10.704  12.044  11.641
22762SOL    HW170060  10.721  12.065  11.549
22762SOL    HW270061  10.757  12.107  11.690
22763SOL     OW70062   5.130   3.585   5.245
22763SOL    HW170063   5.062   3.642   5.280
22763SOL    HW270064   5.208   3.607   5.295
22764SOL     OW70065  12.709   1.439   8.016
22764SOL    HW170066  12.733   1.424   8.107
22764SOL    HW270067  12.768   1.509   7.987
22765SOL     OW70068  10.176  12.302   1.337
22765SOL    HW170069  10.205  12.228   1.284
22765SOL    HW270070  10.164  12.266   1.425
22766SOL     OW70071   8.863  10.846   0.867
22766SOL    HW170072   8.786  10.842   0.923
22766SOL    HW270073   8.934  10.874   0.925
22767SOL     OW70074   9.325   2.448  12.898
22767SOL    HW170075   9.279   2.494  12.968
22767SOL    HW270076   9.414   2.482  12.902
22768SOL     OW70077   6.921   2.215  13.212
22768SOL    HW170078   6.909   2.297  13.163
22768SOL    HW270079   7.013   2.215  13.237
22769SOL     OW70080  11.753  11.179   7.334
22769SOL    HW170081  11.819  11.188   7.402
22769SOL    HW270082  11.679  11.231   7.365
22770SOL     OW70083   1.266   2.901   3.831
22770SOL    HW170084   1.316   2.869   3.757
22770SOL    HW270085   1.330   2.948   3.885
22771SOL     OW70086   7.392  12.398   6.422
22771SOL    HW170087   7.471  12.434   6.463
22771SOL    HW270088   7.325  12.464   6.437
22772SOL     OW70089   9.971   0.944   0.989
22772SOL    HW170090   9.987   0.896   0.907
22772SOL    HW270091   9.876   0.946   0.997
22773SOL     OW70092   2.770   3.303  13.226
22773SOL    HW170093   2.745   3.355  13.303
22773SOL    HW270094   2.837   3.356  13.182
22774SOL     OW70095  14.313   7.773  10.292
22774SOL    HW170096  14.263   7.840  10.245
22774SOL    HW270097  14.248   7.727  10.345
22775SOL     OW70098   9.501   8.958   6.724
22775SOL    HW170099   9.467   8.884   6.775
22775SOL    HW270100   9.470   8.941   6.635
22776SOL     OW70101   4.359   2.515  12.863
22776SOL    HW170102   4.369   2.597  12.911
22776SOL    HW270103   4.305   2.460  12.919
22777SOL     OW70104   7.364   0.799   9.594
22777SOL    HW170105   7.388   0.706   9.600
22777SOL    HW270106   7.428   0.837   9.535
22778SOL     OW70107   9.181   2.721   4.025
22778SOL    HW170108   9.130   2.703   3.946
22778SOL    HW270109   9.236   2.643   4.036
22779SOL     OW70110  11.598  14.108   1.930
22779SOL    HW170111  11.556  14.132   2.012
22779SOL    HW270112  11.621  14.016   1.940
22780SOL     OW70113  12.972   1.146  11.650
22780SOL    HW170114  12.972   1.206  11.724
22780SOL    HW270115  13.063   1.118  11.641
22781SOL     OW70116   2.557   3.618   6.840
22781SOL    HW170117   2.502   3.541   6.826
22781SOL    HW270118   2.567   3.657   6.753
22782SOL     OW70119   4.731   1.698   3.702
22782SOL    HW170120   4.806   1.647   3.732
22782SOL    HW270121   4.734   1.692   3.607
22783SOL     OW70122   6.017  14.299   5.159
22783SOL    HW170123   6.096  14.319   5.210
22783SOL    HW270124   6.040  14.222   5.108
22784SOL     OW70125  14.821   4.817   1.652
22784SOL    HW170126  14.877   4.885   1.690
22784SOL    HW270127   0.001   4.748   1.625
22785SOL     OW70128   0.495   7.080  12.592
22785SOL    HW170129   0.449   7.049  12.670
22785SOL    HW270130   0.425   7.098  12.529
22786SOL     OW70131  11.692  10.976   3.306
22786SOL    HW170132  11.642  10.902   3.273
22786SOL    HW270133  11.649  10.999   3.389
22787SOL     OW70134   6.736   3.621  10.881
22787SOL    HW170135   6.793   3.670  10.941
22787SOL    HW270136   6.738   3.532  10.915
22788SOL     OW70137  13.135  10.209  11.946
22788SOL    HW170138  13.188  10.131  11.965
22788SOL    HW270139  13.045  10.176  11.938
22789SOL     OW70140   7.037  14.107  13.705
22789SOL    HW170141   7.127  14.139  13.700
22789SOL    HW270142   6.984  14.175  13.662
22790SOL     OW70143   3.700   8.838  11.017
22790SOL    HW170144   3.732   8.896  10.947
22790SOL    HW270145   3.747   8.867  11.095
22791SOL     OW70146   7.745  13.143   0.806
22791SOL    HW170147   7.770  13.207   0.873
22791SOL    HW270148   7.719  13.195   0.731
22792SOL     OW70149  14.537   2.773   3.538
22792SOL    HW170150  14.543   2.759   3.443
22792SOL    HW270151  14.454   2.820   3.550
22793SOL     OW70152  12.933   1.310   2.270
22793SOL    HW170153  13.015   1.347   2.304
22793SOL    HW270154  12.948   1.304   2.176
22794SOL     OW70155   1.289   2.138   6.991
22794SOL    HW170156   1.329   2.086   6.921
22794SOL    HW270157   1.195   2.132   6.973
22795SOL     OW70158   7.975   2.650   0.643
22795SOL    HW170159   7.998   2.694   0.725
22795SOL    HW270160   8.027   2.570   0.643
22796SOL     OW70161   8.175   9.656  10.592
22796SOL    HW170162   8.089   9.624  10.565
22796SOL    HW270163   8.230   9.645  10.515
22797SOL     OW70164   4.003  14.136  12.057
22797SOL    HW170165   4.019  14.062  12.116
22797SOL    HW270166   4.081  14.191  12.067
22798SOL     OW70167   5.625   6.097   5.000
22798SOL    HW170168   5.712   6.057   4.996
22798SOL    HW270169   5.628   6.168   4.935
22799SOL     OW70170  12.662   4.502   9.732
22799SOL    HW170171  12.603   4.534   9.663
22799SOL    HW270172  12.607   4.496   9.810
22800SOL     OW70173   8.639   2.901   0.811
22800SOL    HW170174   8.576   2.866   0.748
22800SOL    HW270175   8.698   2.828   0.830
22801SOL     OW70176   9.518  12.885   6.927
22801SOL    HW170177   9.557  12.971   6.942
22801SOL    HW270178   9.440  12.884   6.982
22802SOL     OW70179   2.442   3.194  14.161
22802SOL    HW170180   2.367   3.252  14.145
22802SOL    HW270181   2.407   3.106  14.153
22803SOL     OW70182   5.733  12.950   4.779
22803SOL    HW170183   5.735  12.910   4.866
22803SOL    HW270184   5.671  13.023   4.788
22804SOL     OW70185  11.734   7.757   8.244
22804SOL    HW170186  11.716   7.840   8.287
22804SOL    HW270187  11.829   7.756   8.234
22805SOL     OW70188  10.167   5.437   6.220
22805SOL    HW170189  10.248   5.427   6.171
22805SOL    HW270190  10.106   5.477   6.157
22806SOL     OW70191  12.906   5.308  14.169
22806SOL    HW170192  12.919   5.240  14.235
22806SOL    HW270193  12.991   5.352  14.164
22807SOL     OW70194   1.894   6.201   4.130
22807SOL    HW170195   1.819   6.243   4.172
22807SOL    HW270196   1.907   6.250   4.048
22808SOL     OW70197  11.097   4.827   5.792
22808SOL    HW170198  11.054   4.859   5.712
22808SOL    HW270199  11.174   4.780   5.761
22809SOL     OW70200  13.757   4.269  10.140
22809SOL    HW170201  13.815   4.200  10.172
22809SOL    HW270202  13.713   4.302  10.218
22810SOL     OW70203  14.273  13.452   5.880
22810SOL    HW170204  14.368  13.462   5.884
22810SOL    HW270205  14.247  13.426   5.968
22811SOL     OW70206   2.818   0.566  13.921
22811SOL    HW170207   2.857   0.602  14.001
22811SOL    HW270208   2.783   0.642  13.875
22812SOL     OW70209   2.255   3.369   6.181
22812SOL    HW170210   2.232   3.281   6.210
22812SOL    HW270211   2.171   3.414   6.172
22813SOL     OW70212   1.717   7.642  14.504
22813SOL    HW170213   1.628   7.678  14.506
22813SOL    HW270214   1.774   7.719  14.507
22814SOL     OW70215  10.951   9.079   7.145
22814SOL    HW170216  10.932   9.138   7.218
22814SOL    HW270217  10.938   8.991   7.181
22815SOL     OW70218   3.220   7.135   7.530
22815SOL    HW170219   3.163   7.058   7.520
22815SOL    HW270220   3.255   7.127   7.619
22816SOL     OW70221   0.031   0.469   2.067
22816SOL    HW170222   0.058   0.412   2.139
22816SOL    HW270223   0.035   0.557   2.104
22817SOL     OW70224   0.722   8.880   6.591
22817SOL    HW170225   0.788   8.813   6.610
22817SOL    HW270226   0.674   8.846   6.515
22818SOL     OW70227   5.480   4.336  10.939
22818SOL    HW170228   5.521   4.347  11.024
22818SOL    HW270229   5.500   4.246  10.914
22819SOL     OW70230   0.476   7.120   4.353
22819SOL    HW170231   0.391   7.087   4.383
22819SOL    HW270232   0.491   7.199   4.405
22820SOL     OW70233  13.144   0.947   7.546
22820SOL    HW170234  13.152   0.857   7.515
22820SOL    HW270235  13.212   0.994   7.498
22821SOL     OW70236  11.583   8.734   6.114
22821SOL    HW170237  11.591   8.649   6.072
22821SOL    HW270238  11.501   8.731   6.162
22822SOL     OW70239   4.659   9.599   9.991
22822SOL    HW170240   4.617   9.684  10.004
22822SOL    HW270241   4.613   9.560   9.916
22823SOL     OW70242   5.794   9.539   4.050
22823SOL    HW170243   5.860   9.497   4.105
22823SOL    HW270244   5.720   9.478   4.050
22824SOL     OW70245  13.691   2.939  14.265
22824SOL    HW170246  13.636   2.866  14.292
22824SOL    HW270247  13.773   2.927  14.313
22825SOL     OW70248  11.335   6.158   3.761
22825SOL    HW170249  11.244   6.175   3.741
22825SOL    HW270250  11.333   6.108   3.843
22826SOL     OW70251   0.404   8.450   2.199
22826SOL    HW170252   0.389   8.542   2.221
22826SOL    HW270253   0.409   8.406   2.283
22827SOL     OW70254   1.747   8.371  14.871
22827SOL    HW170255   1.841   8.352  14.871
22827SOL    HW270256   1.710   8.306   0.050
22828SOL     OW70257   2.017  10.616   0.404
22828SOL    HW170258   2.094  10.605   0.347
22828SOL    HW270259   1.962  10.540   0.384
22829SOL     OW70260  14.477  14.753   5.486
22829SOL    HW170261  14.511  14.684   5.542
22829SOL    HW270262  14.511  14.834   5.524
22830SOL     OW70263   2.061   6.360   8.210
22830SOL    HW170264   2.009   6.298   8.159
22830SOL    HW270265   2.141   6.312   8.232
22831SOL     OW70266   6.822  12.889   3.060
22831SOL    HW170267   6.846  12.888   3.153
22831SOL    HW270268   6.862  12.810   3.024
22832SOL     OW70269  13.743   0.215   4.859
22832SOL    HW170270  13.760   0.164   4.938
22832SOL    HW270271  13.667   0.174   4.819
22833SOL     OW70272   5.172  11.843   4.411
22833SOL    HW170273   5.204  11.754   4.400
22833SOL    HW270274   5.251  11.895   4.431
22834SOL     OW70275   6.965   3.849   0.368
22834SOL    HW170276   6.919   3.793   0.431
22834SOL    HW270277   7.046   3.874   0.412
22835SOL     OW70278   3.827   3.209   0.430
22835SOL    HW170279   3.808   3.156   0.353
22835SOL    HW270280   3.747   3.203   0.483
22836SOL     OW70281   8.512   0.086   7.115
22836SOL    HW170282   8.570   0.084   7.192
22836SOL    HW270283   8.567   0.057   7.043
22837SOL     OW70284  13.290  14.117   6.295
22837SOL    HW170285  13.253  14.205   6.295
22837SOL    HW270286  13.377  14.128   6.256
22838SOL     OW70287   5.749   7.254  13.005
22838SOL    HW170288   5.673   7.301  13.038
22838SOL    HW270289   5.739   7.255  12.909
22839SOL     OW70290  10.541   3.285   8.605
22839SOL    HW170291  10.569   3.246   8.688
22839SOL    HW270292  10.468   3.343   8.629
22840SOL     OW70293  12.113   3.556   9.223
22840SOL    HW170294  12.135   3.560   9.316
22840SOL    HW270295  12.194   3.530   9.181
22841SOL     OW70296   5.028   1.327   0.117
22841SOL    HW170297   5.103   1.329   0.058
22841SOL    HW270298   5.056   1.378   0.193
22842SOL     OW70299   1.127   1.379   6.112
22842SOL    HW170300   1.088   1.292   6.123
22842SOL    HW270301   1.128   1.393   6.018
22843SOL     OW70302  12.110  11.327   6.997
22843SOL    HW170303  12.107  11.395   7.064
22843SOL    HW270304  12.020  11.294   6.993
22844SOL     OW70305   8.100  14.337   5.625
22844SOL    HW170306   8.043  14.402   5.667
22844SOL    HW270307   8.117  14.373   5.538
22845SOL     OW70308  13.453   2.655   8.872
22845SOL    HW170309  13.523   2.616   8.820
22845SOL    HW270310  13.380   2.662   8.811
22846SOL     OW70311   0.910  11.510   3.822
22846SOL    HW170312   0.989  11.554   3.853
22846SOL    HW270313   0.936  11.466   3.741
22847SOL     OW70314   8.977  11.609   5.177
22847SOL    HW170315   8.924  11.633   5.101
22847SOL    HW270316   8.925  11.635   5.252
22848SOL     OW70317   7.406   7.896  12.548
22848SOL    HW170318   7.320   7.939  12.549
22848SOL    HW270319   7.456   7.947  12.484
22849SOL     OW70320   2.382   8.453   7.041
22849SOL    HW170321   2.377   8.546   7.061
22849SOL    HW270322   2.293   8.429   7.016
22850SOL     OW70323   8.113   5.660   1.092
22850SOL    HW170324   8.135   5.741   1.047
22850SOL    HW270325   8.103   5.595   1.022
22851SOL     OW70326   2.594  14.518  14.602
22851SOL    HW170327   2.591  14.441  14.659
22851SOL    HW270328   2.683  14.551  14.611
22852SOL     OW70329   3.747   4.127   3.954
22852SOL    HW170330   3.671   4.081   3.918
22852SOL    HW270331   3.786   4.172   3.879
22853SOL     OW70332  12.828   3.626  10.972
22853SOL    HW170333  12.923   3.612  10.965
22853SOL    HW270334  12.807   3.684  10.899
22854SOL     OW70335  12.364  11.452   1.216
22854SOL    HW170336  12.275  11.430   1.187
22854SOL    HW270337  12.404  11.367   1.234
22855SOL     OW70338   1.350   5.152   5.212
22855SOL    HW170339   1.290   5.225   5.194
22855SOL    HW270340   1.306   5.101   5.280
22856SOL     OW70341   2.200   9.712  10.686
22856SOL    HW170342   2.238   9.638  10.733
22856SOL    HW270343   2.112   9.721  10.722
22857SOL     OW70344   5.141   2.476   3.191
22857SOL    HW170345   5.157   2.406   3.254
22857SOL    HW270346   5.056   2.454   3.152
22858SOL     OW70347  10.001  14.180  11.443
22858SOL    HW170348  10.075  14.195  11.385
22858SOL    HW270349  10.032  14.207  11.530
22859SOL     OW70350  14.001   5.035   8.592
22859SOL    HW170351  14.002   4.940   8.581
22859SOL    HW270352  13.917   5.063   8.556
22860SOL     OW70353   9.941   2.734  11.965
22860SOL    HW170354  10.028   2.749  11.928
22860SOL    HW270355   9.936   2.795  12.038
22861SOL     OW70356  14.606   3.784   5.168
22861SOL    HW170357  14.672   3.754   5.106
22861SOL    HW270358  14.650   3.785   5.253
22862SOL     OW70359   4.475   2.769   0.427
22862SOL    HW170360   4.383   2.761   0.402
22862SOL    HW270361   4.510   2.681   0.416
22863SOL     OW70362  11.937   3.210  14.835
22863SOL    HW170363  11.894   3.295  14.849
22863SOL    HW270364  11.900   3.153   0.021
22864SOL     OW70365   6.439  11.664   7.926
22864SOL    HW170366   6.385  11.740   7.949
22864SOL    HW270367   6.529  11.693   7.942
22865SOL     OW70368   8.955   5.494   5.131
22865SOL    HW170369   8.929   5.557   5.199
22865SOL    HW270370   8.876   5.445   5.112
22866SOL     OW70371   9.763  13.559   2.201
22866SOL    HW170372   9.828  13.626   2.183
22866SOL    HW270373   9.741  13.570   2.293
22867SOL     OW70374   9.549  12.828   3.177
22867SOL    HW170375   9.458  12.800   3.172
22867SOL    HW270376   9.596  12.768   3.119
22868SOL     OW70377   2.535   2.094   6.835
22868SOL    HW170378   2.565   2.185   6.846
22868SOL    HW270379   2.595   2.057   6.769
22869SOL     OW70380   1.626   4.005   1.802
22869SOL    HW170381   1.544   3.956   1.788
22869SOL    HW270382   1.629   4.021   1.896
22870SOL     OW70383  10.213  12.026  14.229
22870SOL    HW170384  10.307  12.020  14.213
22870SOL    HW270385  10.197  12.120  14.237
22871SOL     OW70386  13.047  13.213   1.187
22871SOL    HW170387  13.116  13.151   1.212
22871SOL    HW270388  13.076  13.296   1.224
22872SOL     OW70389  12.774   7.969   8.376
22872SOL    HW170390  12.742   7.879   8.375
22872SOL    HW270391  12.838   7.970   8.448
22873SOL     OW70392   0.305   3.982   6.579
22873SOL    HW170393   0.278   3.910   6.636
22873SOL    HW270394   0.330   4.052   6.639
22874SOL     OW70395   1.100  10.983  11.767
22874SOL    HW170396   1.047  10.954  11.842
22874SOL    HW270397   1.182  11.013  11.806
22875SOL     OW70398  10.560   1.065   7.888
22875SOL    HW170399  10.591   1.092   7.974
22875SOL    HW270400  10.616   0.992   7.863
22876SOL     OW70401   4.069   6.005   6.521
22876SOL    HW170402   4.115   6.087   6.539
22876SOL    HW270403   3.977   6.031   6.511
22877SOL     OW70404  10.231  11.171   2.658
22877SOL    HW170405  10.288  11.245   2.639
22877SOL    HW270406  10.143  11.210   2.662
22878SOL     OW70407   3.748   9.434   7.558
22878SOL    HW170408   3.840   9.438   7.586
22878SOL    HW270409   3.742   9.498   7.487
22879SOL     OW70410   6.128   5.408   7.732
22879SOL    HW170411   6.099   5.499   7.737
22879SOL    HW270412   6.209   5.412   7.681
22880SOL     OW70413   4.116  12.688  11.644
22880SOL    HW170414   4.072  12.606  11.665
22880SOL    HW270415   4.192  12.662  11.592
22881SOL     OW70416  13.744   3.607   2.963
22881SOL    HW170417  13.707   3.551   3.031
22881SOL    HW270418  13.775   3.547   2.895
22882SOL     OW70419   7.613   1.420  14.796
22882SOL    HW170420   7.698   1.385  14.768
22882SOL    HW270421   7.591   1.485  14.728
22883SOL     OW70422   0.114  13.282  11.247
22883SOL    HW170423   0.078  13.314  11.330
22883SOL    HW270424   0.131  13.361  11.196
22884SOL     OW70425   3.586   6.555  12.540
22884SOL    HW170426   3.613   6.486  12.479
22884SOL    HW270427   3.506   6.590  12.502
22885SOL     OW70428   3.198   4.599   2.882
22885SOL    HW170429   3.247   4.681   2.880
22885SOL    HW270430   3.179   4.585   2.975
22886SOL     OW70431  12.752  14.752   9.873
22886SOL    HW170432  12.666  14.791   9.863
22886SOL    HW270433  12.736  14.667   9.915
22887SOL     OW70434  10.559  12.245   4.004
22887SOL    HW170435  10.648  12.236   4.038
22887SOL    HW270436  10.543  12.164   3.957
22888SOL     OW70437  13.241   1.945   1.918
22888SOL    HW170438  13.233   1.993   1.835
22888SOL    HW270439  13.334   1.924   1.925
22889SOL     OW70440  11.095   0.763  10.468
22889SOL    HW170441  11.075   0.688  10.413
22889SOL    HW270442  11.190   0.768  10.469
22890SOL     OW70443   5.601  14.093  10.753
22890SOL    HW170444   5.661  14.159  10.787
22890SOL    HW270445   5.551  14.065  10.829
22891SOL     OW70446   7.356  11.891  13.879
22891SOL    HW170447   7.293  11.948  13.834
22891SOL    HW270448   7.424  11.873  13.814
22892SOL     OW70449  11.964  12.539   3.042
22892SOL    HW170450  12.037  12.587   3.003
22892SOL    HW270451  11.904  12.607   3.070
22893SOL     OW70452  12.627   8.109  10.771
22893SOL    HW170453  12.603   8.025  10.811
22893SOL    HW270454  12.667   8.085  10.687
22894SOL     OW70455   8.436   5.521   2.416
22894SOL    HW170456   8.422   5.535   2.510
22894SOL    HW270457   8.526   5.488   2.410
22895SOL     OW70458  11.356   5.608   0.495
22895SOL    HW170459  11.376   5.625   0.403
22895SOL    HW270460  11.269   5.568   0.494
22896SOL     OW70461   9.457   8.283   8.589
22896SOL    HW170462   9.455   8.249   8.679
22896SOL    HW270463   9.425   8.210   8.535
22897SOL     OW70464   0.222   1.288   5.600
22897SOL    HW170465   0.189   1.321   5.516
22897SOL    HW270466   0.219   1.364   5.658
22898SOL     OW70467  14.014   1.288   1.253
22898SOL    HW170468  14.027   1.370   1.205
22898SOL    HW270469  14.080   1.290   1.322
22899SOL     OW70470   2.605   8.514  10.334
22899SOL    HW170471   2.550   8.449  10.378
22899SOL    HW270472   2.582   8.505  10.241
22900SOL     OW70473   6.981  14.144   1.564
22900SOL    HW170474   7.052  14.107   1.616
22900SOL    HW270475   6.947  14.070   1.514
22901SOL     OW70476  11.745   7.771  12.341
22901SOL    HW170477  11.688   7.701  12.372
22901SOL    HW270478  11.758   7.828  12.417
22902SOL     OW70479  14.073   9.837   5.302
22902SOL    HW170480  14.117   9.775   5.244
22902SOL    HW270481  14.144   9.878   5.351
22903SOL     OW70482   3.098  13.599   2.027
22903SOL    HW170483   3.175  13.634   2.072
22903SOL    HW270484   3.126  13.513   1.996
22904SOL     OW70485  13.229   6.155   1.045
22904SOL    HW170486  13.142   6.116   1.053
22904SOL    HW270487  13.234   6.183   0.953
22905SOL     OW70488   9.940   5.131   4.816
22905SOL    HW170489   9.978   5.219   4.824
22905SOL    HW270490   9.846   5.145   4.831
22906SOL     OW70491   1.591   3.251   6.510
22906SOL    HW170492   1.606   3.321   6.573
22906SOL    HW270493   1.496   3.250   6.498
22907SOL     OW70494   6.212   4.791  13.889
22907SOL    HW170495   6.168   4.707  13.900
22907SOL    HW270496   6.298   4.769  13.854
22908SOL     OW70497   1.072   9.405   9.575
22908SOL    HW170498   1.083   9.320   9.532
22908SOL    HW270499   0.988   9.398   9.620
22909SOL     OW70500   8.107   5.810  11.119
22909SOL    HW170501   8.096   5.894  11.075
22909SOL    HW270502   8.069   5.746  11.059
22910SOL     OW70503   8.383   2.738   9.282
22910SOL    HW170504   8.467   2.759   9.241
22910SOL    HW270505   8.402   2.667   9.343
22911SOL     OW70506  11.863   3.754   6.166
22911SOL    HW170507  11.854   3.697   6.242
22911SOL    HW270508  11.952   3.736   6.133
22912SOL     OW70509  10.737   4.128   4.422
22912SOL    HW170510  10.657   4.172   4.392
22912SOL    HW270511  10.712   4.087   4.504
22913SOL     OW70512  13.878   9.696  13.405
22913SOL    HW170513  13.844   9.659  13.324
22913SOL    HW270514  13.973   9.685  13.398
22914SOL     OW70515   8.756   2.163   3.984
22914SOL    HW170516   8.706   2.082   3.999
22914SOL    HW270517   8.707   2.210   3.916
22915SOL     OW70518  13.000  13.400   4.663
22915SOL    HW170519  13.056  13.346   4.718
22915SOL    HW270520  13.051  13.480   4.649
22916SOL     OW70521  12.305   1.144   6.108
22916SOL    HW170522  12.332   1.217   6.163
22916SOL    HW270523  12.282   1.185   6.024
22917SOL     OW70524   1.510  12.248   9.231
22917SOL    HW170525   1.447  12.217   9.295
22917SOL    HW270526   1.482  12.337   9.210
22918SOL     OW70527  14.827  13.040  14.828
22918SOL    HW170528  14.754  13.102  14.841
22918SOL    HW270529  14.809  12.969   0.008
22919SOL     OW70530  11.175  11.866  14.132
22919SOL    HW170531  11.237  11.836  14.198
22919SOL    HW270532  11.101  11.900  14.183
22920SOL     OW70533  10.791   4.297  12.729
22920SOL    HW170534  10.755   4.217  12.769
22920SOL    HW270535  10.771   4.288  12.636
22921SOL     OW70536  14.870   3.194  13.568
22921SOL    HW170537  14.851   3.276  13.522
22921SOL    HW270538   0.083   3.184  13.562
22922SOL     OW70539   5.740  13.770   0.622
22922SOL    HW170540   5.695  13.810   0.547
22922SOL    HW270541   5.682  13.787   0.696
22923SOL     OW70542   0.255  10.953  14.642
22923SOL    HW170543   0.271  10.922  14.731
22923SOL    HW270544   0.314  10.902  14.587
22924SOL     OW70545   4.147   8.208   7.032
22924SOL    HW170546   4.228   8.239   6.992
22924SOL    HW270547   4.127   8.272   7.100
22925SOL     OW70548   8.008   1.213  11.716
22925SOL    HW170549   7.984   1.246  11.803
22925SOL    HW270550   7.928   1.219  11.665
22926SOL     OW70551   1.219   9.757   5.241
22926SOL    HW170552   1.185   9.799   5.320
22926SOL    HW270553   1.154   9.690   5.220
22927SOL     OW70554  10.847   2.577   3.264
22927SOL    HW170555  10.845   2.494   3.215
22927SOL    HW270556  10.939   2.603   3.262
22928SOL     OW70557  11.226   0.165   1.338
22928SOL    HW170558  11.140   0.190   1.370
22928SOL    HW270559  11.288   0.204   1.400
22929SOL     OW70560   2.458   1.652   8.589
22929SOL    HW170561   2.398   1.685   8.656
22929SOL    HW270562   2.470   1.560   8.611
22930SOL     OW70563   7.885  14.503   3.539
22930SOL    HW170564   7.793  14.478   3.528
22930SOL    HW270565   7.935  14.430   3.502
22931SOL     OW70566   5.871   5.851   9.522
22931SOL    HW170567   5.903   5.769   9.561
22931SOL    HW270568   5.816   5.890   9.589
22932SOL     OW70569  10.656   3.944   9.720
22932SOL    HW170570  10.642   4.033   9.751
22932SOL    HW270571  10.577   3.897   9.747
22933SOL     OW70572   5.987  10.302   0.601
22933SOL    HW170573   6.045  10.352   0.659
22933SOL    HW270574   5.910  10.282   0.655
22934SOL     OW70575   9.049   9.700  13.038
22934SOL    HW170576   9.050   9.795  13.049
22934SOL    HW270577   9.034   9.686  12.944
22935SOL     OW70578   4.357   1.389   1.489
22935SOL    HW170579   4.421   1.317   1.490
22935SOL    HW270580   4.409   1.467   1.509
22936SOL     OW70581   5.110   5.797   6.543
22936SOL    HW170582   5.066   5.730   6.596
22936SOL    HW270583   5.123   5.755   6.458
22937SOL     OW70584   9.853  14.059   8.111
22937SOL    HW170585   9.770  14.032   8.150
22937SOL    HW270586   9.920  14.026   8.170
22938SOL     OW70587   2.962  13.455   5.602
22938SOL    HW170588   3.040  13.508   5.583
22938SOL    HW270589   2.990  13.364   5.585
22939SOL     OW70590   2.520   0.341  13.246
22939SOL    HW170591   2.446   0.338  13.307
22939SOL    HW270592   2.521   0.254  13.205
22940SOL     OW70593   0.879   3.780   3.984
22940SOL    HW170594   0.866   3.692   3.948
22940SOL    HW270595   0.883   3.767   4.078
22941SOL     OW70596  13.788   7.787  12.623
22941SOL    HW170597  13.821   7.796  12.712
22941SOL    HW270598  13.697   7.759  12.635
22942SOL     OW70599  12.817   7.321  10.407
22942SOL    HW170600  12.751   7.310  10.339
22942SOL    HW270601  12.888   7.261  10.382
22943SOL     OW70602   2.082   2.413   5.581
22943SOL    HW170603   2.144   2.341   5.572
22943SOL    HW270604   2.034   2.393   5.661
22944SOL     OW70605  10.997   7.632   7.832
22944SOL    HW170606  10.972   7.554   7.782
22944SOL    HW270607  10.981   7.609   7.923
22945SOL     OW70608   1.867   9.248  10.623
22945SOL    HW170609   1.917   9.320  10.586
22945SOL    HW270610   1.796   9.234  10.560
22946SOL     OW70611   5.614  14.807  10.121
22946SOL    HW170612   5.690  14.852  10.158
22946SOL    HW270613   5.650  14.725  10.085
22947SOL     OW70614  10.843   6.895   5.653
22947SOL    HW170615  10.858   6.804   5.628
22947SOL    HW270616  10.747   6.904   5.654
22948SOL     OW70617   1.353   9.320  11.382
22948SOL    HW170618   1.362   9.260  11.457
22948SOL    HW270619   1.442   9.354  11.369
22949SOL     OW70620  12.062   8.403   3.908
22949SOL    HW170621  12.035   8.495   3.904
22949SOL    HW270622  12.144   8.400   3.858
22950SOL     OW70623   2.722   3.593   0.280
22950SOL    HW170624   2.737   3.651   0.205
22950SOL    HW270625   2.810   3.571   0.311
22951SOL     OW70626  13.808  14.518   0.553
22951SOL    HW170627  13.808  14.522   0.457
22951SOL    HW270628  13.889  14.562   0.578
22952SOL     OW70629  10.266  12.558   9.069
22952SOL    HW170630  10.262  12.654   9.076
22952SOL    HW270631  10.195  12.536   9.008
22953SOL     OW70632   1.915  13.017  11.478
22953SOL    HW170633   1.985  13.071  11.516
22953SOL    HW270634   1.891  12.956  11.547
22954SOL     OW70635  13.879   1.950   1.152
22954SOL    HW170636  13.847   1.870   1.110
22954SOL    HW270637  13.819   1.964   1.225
22955SOL     OW70638   6.139   0.497   7.888
22955SOL    HW170639   6.115   0.578   7.932
22955SOL    HW270640   6.231   0.510   7.864
22956SOL     OW70641  11.464  14.130   4.899
22956SOL    HW170642  11.509  14.102   4.979
22956SOL    HW270643  11.525  14.193   4.859
22957SOL     OW70644  12.530   4.140   0.485
22957SOL    HW170645  12.490   4.146   0.572
22957SOL    HW270646  12.608   4.196   0.491
22958SOL     OW70647   9.969   8.540   7.457
22958SOL    HW170648   9.937   8.481   7.526
22958SOL    HW270649   9.939   8.627   7.483
22959SOL     OW70650   1.028   8.674   9.796
22959SOL    HW170651   1.079   8.605   9.840
22959SOL    HW270652   1.061   8.755   9.834
22960SOL     OW70653   7.985  12.474  12.281
22960SOL    HW170654   7.977  12.533  12.356
22960SOL    HW270655   7.929  12.400  12.303
22961SOL     OW70656   4.335   1.073   8.681
22961SOL    HW170657   4.246   1.038   8.669
22961SOL    HW270658   4.349   1.068   8.776
22962SOL     OW70659  10.200   2.295   4.708
22962SOL    HW170660  10.115   2.269   4.673
22962SOL    HW270661  10.260   2.289   4.633
22963SOL     OW70662   5.884  11.017   5.738
22963SOL    HW170663   5.885  10.954   5.811
22963SOL    HW270664   5.843  11.096   5.775
22964SOL     OW70665   5.154  11.360  10.869
22964SOL    HW170666   5.236  11.369  10.918
22964SOL    HW270667   5.109  11.443  10.881
22965SOL     OW70668  11.407  11.334  14.134
22965SOL    HW170669  11.324  11.353  14.179
22965SOL    HW270670  11.472  11.387  14.181
22966SOL     OW70671   0.452   2.618   2.574
22966SOL    HW170672   0.410   2.539   2.539
22966SOL    HW270673   0.426   2.688   2.515
22967SOL     OW70674   0.193  10.522   8.689
22967SOL    HW170675   0.131  10.586   8.724
22967SOL    HW270676   0.164  10.506   8.600
22968SOL     OW70677  10.592   3.956  10.145
22968SOL    HW170678  10.611   3.877  10.093
22968SOL    HW270679  10.554   3.922  10.226
22969SOL     OW70680  11.170  12.198  13.915
22969SOL    HW170681  11.214  12.113  13.917
22969SOL    HW270682  11.222  12.250  13.854
22970SOL     OW70683   7.434   7.670   3.913
22970SOL    HW170684   7.488   7.600   3.876
22970SOL    HW270685   7.345   7.636   3.907
22971SOL     OW70686  13.949   1.072   7.278
22971SOL    HW170687  13.998   1.078   7.196
22971SOL    HW270688  13.953   0.980   7.302
22972SOL     OW70689   7.627   5.400  12.012
22972SOL    HW170690   7.564   5.441  11.953
22972SOL    HW270691   7.633   5.459  12.087
22973SOL     OW70692   0.758  14.395   3.972
22973SOL    HW170693   0.815  14.333   3.927
22973SOL    HW270694   0.679  14.398   3.918
22974SOL     OW70695  14.565   7.607  10.880
22974SOL    HW170696  14.635   7.542  10.869
22974SOL    HW270697  14.599   7.667  10.946
22975SOL     OW70698   4.460  10.258  10.569
22975SOL    HW170699   4.452  10.212  10.653
22975SOL    HW270700   4.554  10.265  10.555
22976SOL     OW70701   9.997   9.145  11.499
22976SOL    HW170702   9.947   9.147  11.417
22976SOL    HW270703   9.999   9.236  11.528
22977SOL     OW70704  13.897   7.563  10.469
22977SOL    HW170705  13.950   7.525  10.399
22977SOL    HW270706  13.936   7.649  10.484
22978SOL     OW70707  12.000  13.800   3.691
22978SOL    HW170708  12.093  13.781   3.705
22978SOL    HW270709  11.970  13.834   3.775
22979SOL     OW70710  12.470  13.372  13.442
22979SOL    HW170711  12.420  13.340  13.516
22979SOL    HW270712  12.517  13.295  13.409
22980SOL     OW70713   7.705   4.513   2.352
22980SOL    HW170714   7.794   4.492   2.383
22980SOL    HW270715   7.659   4.429   2.354
22981SOL     OW70716   2.883  12.455  10.262
22981SOL    HW170717   2.889  12.439  10.356
22981SOL    HW270718   2.974  12.460  10.233
22982SOL     OW70719   2.898   2.461   2.529
22982SOL    HW170720   2.861   2.503   2.451
22982SOL    HW270721   2.953   2.528   2.569
22983SOL     OW70722   0.833  11.751  12.566
22983SOL    HW170723   0.897  11.738  12.495
22983SOL    HW270724   0.886  11.751  12.646
22984SOL     OW70725  11.929   9.248   9.128
22984SOL    HW170726  11.852   9.304   9.132
22984SOL    HW270727  11.976   9.277   9.050
22985SOL     OW70728   5.587  10.812   5.022
22985SOL    HW170729   5.638  10.788   5.099
22985SOL    HW270730   5.600  10.739   4.961
22986SOL     OW70731   7.574   2.287   7.940
22986SOL    HW170732   7.567   2.192   7.935
22986SOL    HW270733   7.593   2.304   8.032
22987SOL     OW70734   5.880   9.731   1.565
22987SOL    HW170735   5.901   9.660   1.504
22987SOL    HW270736   5.948   9.796   1.550
22988SOL     OW70737   6.705   2.690   2.338
22988SOL    HW170738   6.681   2.783   2.337
22988SOL    HW270739   6.630   2.645   2.299
22989SOL     OW70740   1.713   8.113   9.032
22989SOL    HW170741   1.642   8.103   9.096
22989SOL    HW270742   1.729   8.024   9.000
22990SOL     OW70743   0.711  12.193   0.046
22990SOL    HW170744   0.785  12.140   0.075
22990SOL    HW270745   0.751  12.267   0.001
22991SOL     OW70746  14.823   1.113   2.218
22991SOL    HW170747  14.803   1.072   2.134
22991SOL    HW270748   0.020   1.068   2.249
22992SOL     OW70749   6.960   9.521  12.174
22992SOL    HW170750   6.896   9.509  12.244
22992SOL    HW270751   7.015   9.443  12.179
22993SOL     OW70752   7.058  12.903  13.809
22993SOL    HW170753   7.021  12.843  13.873
22993SOL    HW270754   7.033  12.990  13.840
22994SOL     OW70755   6.350   2.348  10.402
22994SOL    HW170756   6.369   2.442  10.404
22994SOL    HW270757   6.418   2.309  10.455
22995SOL     OW70758   0.600  13.100   8.121
22995SOL    HW170759   0.576  13.163   8.189
22995SOL    HW270760   0.539  13.118   8.049
22996SOL     OW70761   8.990   4.055   3.899
22996SOL    HW170762   9.067   4.029   3.950
22996SOL    HW270763   9.026   4.095   3.820
22997SOL     OW70764   3.838  10.258  12.581
22997SOL    HW170765   3.871  10.344  12.607
22997SOL    HW270766   3.860  10.201  12.654
22998SOL     OW70767   0.037   1.353   2.336
22998SOL    HW170768  14.876   1.268   2.320
22998SOL    HW270769   0.103   1.335   2.402
22999SOL     OW70770   8.870   4.445   5.845
22999SOL    HW170771   8.864   4.511   5.914
22999SOL    HW270772   8.833   4.366   5.884
23000SOL     OW70773   6.443  10.162   4.310
23000SOL    HW170774   6.365  10.191   4.262
23000SOL    HW270775   6.496  10.118   4.244
23001SOL     OW70776   5.970   5.182  10.279
23001SOL    HW170777   6.033   5.123  10.319
23001SOL    HW270778   5.997   5.269  10.308
23002SOL     OW70779  12.271  14.417   7.758
23002SOL    HW170780  12.303  14.462   7.681
23002SOL    HW270781  12.347  14.369   7.792
23003SOL     OW70782  14.275   8.907  11.063
23003SOL    HW170783  14.213   8.847  11.022
23003SOL    HW270784  14.226   8.945  11.136
23004SOL     OW70785   5.997  11.207  10.786
23004SOL    HW170786   5.997  11.243  10.698
23004SOL    HW270787   6.078  11.155  10.791
23005SOL     OW70788  12.580   0.001   2.698
23005SOL    HW170789  12.522  14.849   2.767
23005SOL    HW270790  12.667  14.850   2.722
23006SOL     OW70791  10.023   5.068  13.474
23006SOL    HW170792  10.047   5.090  13.564
23006SOL    HW270793  10.081   4.994  13.452
23007SOL     OW70794   7.526  10.298   7.284
23007SOL    HW170795   7.522  10.346   7.201
23007SOL    HW270796   7.551  10.209   7.260
23008SOL     OW70797   6.732   9.402   4.215
23008SOL    HW170798   6.637   9.402   4.206
23008SOL    HW270799   6.750   9.473   4.277
23009SOL     OW70800  11.986   6.741   2.453
23009SOL    HW170801  12.033   6.680   2.397
23009SOL    HW270802  11.947   6.687   2.521
23010SOL     OW70803  10.234   2.312  14.819
23010SOL    HW170804  10.299   2.254  14.858
23010SOL    HW270805  10.203   2.366   0.010
23011SOL     OW70806   7.988   9.955   6.132
23011SOL    HW170807   8.067   9.990   6.172
23011SOL    HW270808   7.921  10.021   6.151
23012SOL     OW70809  10.331   3.993  10.537
23012SOL    HW170810  10.285   4.047  10.602
23012SOL    HW270811  10.354   3.913  10.584
23013SOL     OW70812  10.287   8.617   3.412
23013SOL    HW170813  10.249   8.558   3.478
23013SOL    HW270814  10.316   8.694   3.462
23014SOL     OW70815   6.872  11.676   7.957
23014SOL    HW170816   6.907  11.689   7.869
23014SOL    HW270817   6.871  11.763   7.996
23015SOL     OW70818   4.614   0.762  10.484
23015SOL    HW170819   4.710   0.763  10.481
23015SOL    HW270820   4.588   0.833  10.425
23016SOL     OW70821   1.554   5.158   8.145
23016SOL    HW170822   1.560   5.252   8.161
23016SOL    HW270823   1.467   5.133   8.177
23017SOL     OW70824   5.560   9.248   4.551
23017SOL    HW170825   5.521   9.309   4.613
23017SOL    HW270826   5.524   9.163   4.574
23018SOL     OW70827  13.483  10.688   1.788
23018SOL    HW170828  13.523  10.701   1.874
23018SOL    HW270829  13.500  10.596   1.767
23019SOL     OW70830   1.377   7.615  12.820
23019SOL    HW170831   1.373   7.708  12.801
23019SOL    HW270832   1.468   7.599  12.844
23020SOL     OW70833  13.566  11.072  12.752
23020SOL    HW170834  13.609  11.132  12.692
23020SOL    HW270835  13.611  10.989  12.740
23021SOL     OW70836   8.641   9.320   6.789
23021SOL    HW170837   8.571   9.274   6.836
23021SOL    HW270838   8.595   9.371   6.722
23022SOL     OW70839  10.561  14.006   4.789
23022SOL    HW170840  10.498  14.018   4.860
23022SOL    HW270841  10.513  13.959   4.721
23023SOL     OW70842   6.580   0.710  10.330
23023SOL    HW170843   6.647   0.774  10.305
23023SOL    HW270844   6.556   0.666  10.249
23024SOL     OW70845   2.059   1.814  11.518
23024SOL    HW170846   1.974   1.771  11.522
23024SOL    HW270847   2.040   1.902  11.485
23025SOL     OW70848   4.741  14.263  10.810
23025SOL    HW170849   4.663  14.314  10.836
23025SOL    HW270850   4.708  14.174  10.799
23026SOL     OW70851   7.308   5.298  12.057
23026SOL    HW170852   7.323   5.287  11.963
23026SOL    HW270853   7.396   5.305  12.095
23027SOL     OW70854  14.591  13.159  12.763
23027SOL    HW170855  14.590  13.065  12.778
23027SOL    HW270856  14.523  13.194  12.821
23028SOL     OW70857   2.164  14.600   0.535
23028SOL    HW170858   2.088  14.657   0.518
23028SOL    HW270859   2.230  14.659   0.572
23029SOL     OW70860   5.244   1.298   8.953
23029SOL    HW170861   5.205   1.312   8.866
23029SOL    HW270862   5.335   1.274   8.935
23030SOL     OW70863  13.848  13.335  11.840
23030SOL    HW170864  13.817  13.268  11.901
23030SOL    HW270865  13.941  13.315  11.827
23031SOL     OW70866  14.587  13.422   0.787
23031SOL    HW170867  14.539  13.427   0.869
23031SOL    HW270868  14.679  13.415   0.812
23032SOL     OW70869   1.843   9.628  10.617
23032SOL    HW170870   1.769   9.632  10.557
23032SOL    HW270871   1.805   9.608  10.702
23033SOL     OW70872   7.590  13.400   0.001
23033SOL    HW170873   7.534  13.477   0.004
23033SOL    HW270874   7.676  13.430   0.032
23034SOL     OW70875  13.039   5.325   0.646
23034SOL    HW170876  13.010   5.331   0.555
23034SOL    HW270877  13.132   5.346   0.643
23035SOL     OW70878  11.402  12.121  12.514
23035SOL    HW170879  11.319  12.158  12.542
23035SOL    HW270880  11.380  12.070  12.436
23036SOL     OW70881   9.223  10.327   8.843
23036SOL    HW170882   9.160  10.255   8.843
23036SOL    HW270883   9.259  10.328   8.932
23037SOL     OW70884   1.207  12.968   6.997
23037SOL    HW170885   1.216  12.933   7.086
23037SOL    HW270886   1.121  13.011   6.997
23038SOL     OW70887   9.488  10.211   7.265
23038SOL    HW170888   9.502  10.274   7.336
23038SOL    HW270889   9.444  10.262   7.197
23039SOL     OW70890   0.334   9.359   5.999
23039SOL    HW170891   0.393   9.434   5.997
23039SOL    HW270892   0.250   9.393   5.971
23040SOL     OW70893   3.367  12.619   7.846
23040SOL    HW170894   3.439  12.642   7.787
23040SOL    HW270895   3.365  12.524   7.846
23041SOL     OW70896  14.797  14.318   5.249
23041SOL    HW170897  14.751  14.327   5.166
23041SOL    HW270898  14.734  14.275   5.307
23042SOL     OW70899  12.848   2.931   8.791
23042SOL    HW170900  12.763   2.945   8.750
23042SOL    HW270901  12.882   3.020   8.805
23043SOL     OW70902  11.443  10.151  11.216
23043SOL    HW170903  11.379  10.216  11.244
23043SOL    HW270904  11.406  10.067  11.244
23044SOL     OW70905  14.841   2.851   4.463
23044SOL    HW170906  14.754   2.816   4.447
23044SOL    HW270907  14.856   2.914   4.392
23045SOL     OW70908  10.355  11.220   5.300
23045SOL    HW170909  10.305  11.301   5.291
23045SOL    HW270910  10.344  11.195   5.392
23046SOL     OW70911   7.609  11.901   6.885
23046SOL    HW170912   7.555  11.969   6.925
23046SOL    HW270913   7.678  11.884   6.949
23047SOL     OW70914   1.092   7.632  11.709
23047SOL    HW170915   1.157   7.651  11.777
23047SOL    HW270916   1.115   7.693  11.638
23048SOL     OW70917   9.337   2.248  14.503
23048SOL    HW170918   9.251   2.288  14.492
23048SOL    HW270919   9.318   2.157  14.526
23049SOL     OW70920   0.554   1.937   8.820
23049SOL    HW170921   0.605   1.890   8.754
23049SOL    HW270922   0.463   1.921   8.796
23050SOL     OW70923   2.813  12.187   8.508
23050SOL    HW170924   2.884  12.248   8.488
23050SOL    HW270925   2.782  12.213   8.594
23051SOL     OW70926  13.811   6.258   3.157
23051SOL    HW170927  13.769   6.178   3.188
23051SOL    HW270928  13.876   6.228   3.094
23052SOL     OW70929   3.759   5.650   8.668
23052SOL    HW170930   3.742   5.693   8.585
23052SOL    HW270931   3.708   5.700   8.732
23053SOL     OW70932   4.319   4.958  12.755
23053SOL    HW170933   4.362   4.954  12.669
23053SOL    HW270934   4.391   4.953  12.818
23054SOL     OW70935   8.436   3.965  11.202
23054SOL    HW170936   8.404   3.879  11.228
23054SOL    HW270937   8.367   3.999  11.144
23055SOL     OW70938   6.589   9.982   9.469
23055SOL    HW170939   6.627  10.014   9.387
23055SOL    HW270940   6.639   9.903   9.489
23056SOL     OW70941  12.687   3.065   3.499
23056SOL    HW170942  12.688   3.140   3.440
23056SOL    HW270943  12.602   3.024   3.485
23057SOL     OW70944   9.888   5.366  14.086
23057SOL    HW170945   9.799   5.353  14.121
23057SOL    HW270946   9.885   5.325  14.000
23058SOL     OW70947  11.766  14.625   0.496
23058SOL    HW170948  11.724  14.546   0.530
23058SOL    HW270949  11.694  14.680   0.467
23059SOL     OW70950   2.450   5.303  13.498
23059SOL    HW170951   2.532   5.297  13.548
23059SOL    HW270952   2.479   5.318  13.408
23060SOL     OW70953   1.827   3.381   4.068
23060SOL    HW170954   1.783   3.331   3.999
23060SOL    HW270955   1.756   3.407   4.127
23061SOL     OW70956   9.904   9.246   5.671
23061SOL    HW170957   9.823   9.199   5.689
23061SOL    HW270958   9.948   9.253   5.756
23062SOL     OW70959   4.872  10.744   8.990
23062SOL    HW170960   4.932  10.669   8.993
23062SOL    HW270961   4.796  10.716   9.041
23063SOL     OW70962   0.857  11.102   1.673
23063SOL    HW170963   0.851  11.191   1.707
23063SOL    HW270964   0.908  11.055   1.740
23064SOL     OW70965   3.892  12.974  10.009
23064SOL    HW170966   3.987  12.967  10.022
23064SOL    HW270967   3.881  12.994   9.917
23065SOL     OW70968  11.217   5.924   2.205
23065SOL    HW170969  11.151   5.912   2.272
23065SOL    HW270970  11.292   5.872   2.235
23066SOL     OW70971   4.321   0.317  13.819
23066SOL    HW170972   4.268   0.327  13.740
23066SOL    HW270973   4.314   0.225  13.841
23067SOL     OW70974   0.627  13.899   6.890
23067SOL    HW170975   0.552  13.921   6.946
23067SOL    HW270976   0.660  13.817   6.926
23068SOL     OW70977   0.135   7.148  14.140
23068SOL    HW170978   0.227   7.121  14.146
23068SOL    HW270979   0.086   7.073  14.172
23069SOL     OW70980   1.296   1.925   2.523
23069SOL    HW170981   1.335   1.873   2.594
23069SOL    HW270982   1.291   2.014   2.558
23070SOL     OW70983   5.904   9.789  13.415
23070SOL    HW170984   5.882   9.723  13.481
23070SOL    HW270985   5.976   9.839  13.455
23071SOL     OW70986   7.069  11.424  10.108
23071SOL    HW170987   7.164  11.426  10.122
23071SOL    HW270988   7.059  11.438  10.014
23072SOL     OW70989  12.155   3.477  13.193
23072SOL    HW170990  12.118   3.564  13.209
23072SOL    HW270991  12.250   3.491  13.198
23073SOL     OW70992   7.132  13.961  11.776
23073SOL    HW170993   7.060  14.023  11.780
23073SOL    HW270994   7.105  13.890  11.835
23074SOL     OW70995  12.055   4.083   8.206
23074SOL    HW170996  12.138   4.051   8.243
23074SOL    HW270997  12.076   4.170   8.173
23075SOL     OW70998  14.243   5.129   5.361
23075SOL    HW170999  14.264   5.115   5.268
23075SOL    HW271000  14.307   5.194   5.390
23076SOL     OW71001   5.792  14.622  12.310
23076SOL    HW171002   5.743  14.698  12.277
23076SOL    HW271003   5.883  14.653  12.316
23077SOL     OW71004   4.579   4.696   3.055
23077SOL    HW171005   4.512   4.633   3.083
23077SOL    HW271006   4.656   4.642   3.038
23078SOL     OW71007   3.604   7.177   3.691
23078SOL    HW171008   3.523   7.227   3.678
23078SOL    HW271009   3.647   7.220   3.765
23079SOL     OW71010   2.699   3.476   7.284
23079SOL    HW171011   2.707   3.385   7.254
23079SOL    HW271012   2.735   3.528   7.213
23080SOL     OW71013   3.928   8.702   5.682
23080SOL    HW171014   4.007   8.659   5.713
23080SOL    HW271015   3.941   8.713   5.587
23081SOL     OW71016   8.894   5.650   9.329
23081SOL    HW171017   8.893   5.559   9.359
23081SOL    HW271018   8.856   5.700   9.402
23082SOL     OW71019  14.714  14.090   1.384
23082SOL    HW171020  14.761  14.070   1.303
23082SOL    HW271021  14.631  14.128   1.354
23083SOL     OW71022   4.177   9.591  10.843
23083SOL    HW171023   4.241   9.602  10.913
23083SOL    HW271024   4.193   9.503  10.810
23084SOL     OW71025  11.100   2.529   2.677
23084SOL    HW171026  11.037   2.491   2.738
23084SOL    HW271027  11.046   2.560   2.604
23085SOL     OW71028   0.050   4.174  11.686
23085SOL    HW171029   0.116   4.178  11.617
23085SOL    HW271030   0.005   4.259  11.681
23086SOL     OW71031  13.597  13.201   1.351
23086SOL    HW171032  13.558  13.226   1.435
23086SOL    HW271033  13.668  13.141   1.375
23087SOL     OW71034   0.705  13.121   0.612
23087SOL    HW171035   0.778  13.065   0.585
23087SOL    HW271036   0.649  13.063   0.664
23088SOL     OW71037   4.272   5.760   2.532
23088SOL    HW171038   4.285   5.667   2.547
23088SOL    HW271039   4.304   5.775   2.444
23089SOL     OW71040   7.954   6.063  13.768
23089SOL    HW171041   8.003   5.986  13.799
23089SOL    HW271042   7.867   6.029  13.749
23090SOL     OW71043  11.770   2.715   7.104
23090SOL    HW171044  11.775   2.779   7.174
23090SOL    HW271045  11.802   2.761   7.026
23091SOL     OW71046   7.606  14.500   2.023
23091SOL    HW171047   7.573  14.588   2.001
23091SOL    HW271048   7.599  14.451   1.942
23092SOL     OW71049  14.182  14.602   4.199
23092SOL    HW171050  14.221  14.655   4.129
23092SOL    HW271051  14.161  14.665   4.268
23093SOL     OW71052  10.378   2.518   8.496
23093SOL    HW171053  10.314   2.466   8.545
23093SOL    HW271054  10.338   2.605   8.489
23094SOL     OW71055  11.237   9.777   9.518
23094SOL    HW171056  11.158   9.763   9.465
23094SOL    HW271057  11.243   9.699   9.574
23095SOL     OW71058   5.628  12.069   9.211
23095SOL    HW171059   5.534  12.072   9.227
23095SOL    HW271060   5.638  12.007   9.138
23096SOL     OW71061   1.724  14.806   1.036
23096SOL    HW171062   1.657  14.754   1.081
23096SOL    HW271063   1.804  14.754   1.044
23097SOL     OW71064   9.022  10.798  14.730
23097SOL    HW171065   9.089  10.745  14.687
23097SOL    HW271066   8.940  10.750  14.716
23098SOL     OW71067  14.159   4.118  13.058
23098SOL    HW171068  14.174   4.209  13.085
23098SOL    HW271069  14.136   4.073  13.139
23099SOL     OW71070   8.733  13.135   3.066
23099SOL    HW171071   8.822  13.148   3.032
23099SOL    HW271072   8.718  13.041   3.059
23100SOL     OW71073  13.544  12.599  11.129
23100SOL    HW171074  13.547  12.606  11.224
23100SOL    HW271075  13.518  12.686  11.099
23101SOL     OW71076   1.397   8.345   4.708
23101SOL    HW171077   1.372   8.401   4.634
23101SOL    HW271078   1.429   8.264   4.667
23102SOL     OW71079  12.529  12.476   3.454
23102SOL    HW171080  12.556  12.401   3.507
23102SOL    HW271081  12.441  12.496   3.485
23103SOL     OW71082  14.639   5.544  14.643
23103SOL    HW171083  14.574   5.614  14.635
23103SOL    HW271084  14.616   5.481  14.576
23104SOL     OW71085   2.157  13.614  12.336
23104SOL    HW171086   2.200  13.558  12.271
23104SOL    HW271087   2.220  13.684  12.352
23105SOL     OW71088  10.343   1.756   4.744
23105SOL    HW171089  10.428   1.716   4.726
23105SOL    HW271090  10.339   1.831   4.686
23106SOL     OW71091  11.863   6.618   7.478
23106SOL    HW171092  11.942   6.617   7.533
23106SOL    HW271093  11.854   6.710   7.451
23107SOL     OW71094  13.003   6.041  13.819
23107SOL    HW171095  13.035   6.053  13.730
23107SOL    HW271096  13.047   6.109  13.870
23108SOL     OW71097   0.597  14.672   1.032
23108SOL    HW171098   0.636  14.716   0.957
23108SOL    HW271099   0.549  14.598   0.994
23109SOL     OW71100  12.284   0.298  11.073
23109SOL    HW171101  12.207   0.286  11.128
23109SOL    HW271102  12.351   0.331  11.132
23110SOL     OW71103  13.918  10.056  13.009
23110SOL    HW171104  13.975   9.992  13.052
23110SOL    HW271105  13.952  10.061  12.919
23111SOL     OW71106   4.767  11.364   0.034
23111SOL    HW171107   4.769  11.447  14.868
23111SOL    HW271108   4.859  11.337   0.039
23112SOL     OW71109   9.060   2.646   6.489
23112SOL    HW171110   8.997   2.627   6.559
23112SOL    HW271111   9.135   2.684   6.533
23113SOL     OW71112  10.539   6.942   5.743
23113SOL    HW171113  10.488   6.899   5.674
23113SOL    HW271114  10.489   7.022   5.762
23114SOL     OW71115   3.862   6.519   0.110
23114SOL    HW171116   3.768   6.507   0.099
23114SOL    HW271117   3.899   6.432   0.097
23115SOL     OW71118  11.558   2.423   5.053
23115SOL    HW171119  11.539   2.471   5.134
23115SOL    HW271120  11.527   2.334   5.070
23116SOL     OW71121  13.763   4.647   3.657
23116SOL    HW171122  13.853   4.618   3.642
23116SOL    HW271123  13.723   4.648   3.570
23117SOL     OW71124   6.253   5.720   0.581
23117SOL    HW171125   6.316   5.653   0.556
23117SOL    HW271126   6.272   5.793   0.522
23118SOL     OW71127   3.516   6.455   0.574
23118SOL    HW171128   3.572   6.431   0.501
23118SOL    HW271129   3.479   6.540   0.550
23119SOL     OW71130   3.673   5.929   4.424
23119SOL    HW171131   3.722   5.943   4.343
23119SOL    HW271132   3.736   5.891   4.485
23120SOL     OW71133   1.371   7.058   0.977
23120SOL    HW171134   1.406   7.119   1.041
23120SOL    HW271135   1.429   7.066   0.902
23121SOL     OW71136   2.635   6.273   5.565
23121SOL    HW171137   2.687   6.197   5.541
23121SOL    HW271138   2.697   6.346   5.565
23122SOL     OW71139  13.002  10.135   0.716
23122SOL    HW171140  12.920  10.132   0.666
23122SOL    HW271141  12.987  10.202   0.783
23123SOL     OW71142  12.841   7.855   8.846
23123SOL    HW171143  12.854   7.781   8.905
23123SOL    HW271144  12.798   7.817   8.769
23124SOL     OW71145  11.445   3.526   7.346
23124SOL    HW171146  11.507   3.581   7.296
23124SOL    HW271147  11.437   3.446   7.293
23125SOL     OW71148   4.880   5.878   6.406
23125SOL    HW171149   4.808   5.893   6.468
23125SOL    HW271150   4.956   5.860   6.462
23126SOL     OW71151   0.086   9.951   7.994
23126SOL    HW171152   0.064   9.864   8.028
23126SOL    HW271153   0.003   9.986   7.962
23127SOL     OW71154  14.064  13.268   8.890
23127SOL    HW171155  14.110  13.337   8.843
23127SOL    HW271156  14.126  13.240   8.958
23128SOL     OW71157   1.744   9.635  12.947
23128SOL    HW171158   1.714   9.554  12.987
23128SOL    HW271159   1.702   9.704  12.999
23129SOL     OW71160  13.101  13.130   3.589
23129SOL    HW171161  13.052  13.139   3.671
23129SOL    HW271162  13.134  13.218   3.572
23130SOL     OW71163   9.464   3.044   5.904
23130SOL    HW171164   9.539   3.034   5.845
23130SOL    HW271165   9.389   3.051   5.846
23131SOL     OW71166  11.885  12.215  10.054
23131SOL    HW171167  11.878  12.172   9.969
23131SOL    HW271168  11.946  12.159  10.103
23132SOL     OW71169   6.325   9.547  14.810
23132SOL    HW171170   6.335   9.545  14.715
23132SOL    HW271171   6.389   9.483  14.842
23133SOL     OW71172   2.088   1.533   5.595
23133SOL    HW171173   2.106   1.441   5.574
23133SOL    HW271174   2.054   1.531   5.685
23134SOL     OW71175   9.288   3.891   5.643
23134SOL    HW171176   9.368   3.860   5.602
23134SOL    HW271177   9.236   3.927   5.571
23135SOL     OW71178   2.429   1.777   6.843
23135SOL    HW171179   2.417   1.871   6.829
23135SOL    HW271180   2.417   1.765   6.937
23136SOL     OW71181   0.463   1.960   6.460
23136SOL    HW171182   0.389   1.979   6.403
23136SOL    HW271183   0.428   1.901   6.527
23137SOL     OW71184   3.233   7.863   2.568
23137SOL    HW171185   3.267   7.797   2.629
23137SOL    HW271186   3.197   7.931   2.624
23138SOL     OW71187   5.986  10.732  12.457
23138SOL    HW171188   5.978  10.748  12.551
23138SOL    HW271189   5.919  10.788  12.417
23139SOL     OW71190   4.079  13.678   4.952
23139SOL    HW171191   3.986  13.655   4.953
23139SOL    HW271192   4.124  13.594   4.955
23140SOL     OW71193  13.525   6.417   4.580
23140SOL    HW171194  13.472   6.497   4.586
23140SOL    HW271195  13.544   6.408   4.487
23141SOL     OW71196   9.780   0.168   3.077
23141SOL    HW171197   9.857   0.206   3.033
23141SOL    HW271198   9.802   0.170   3.170
23142SOL     OW71199   2.486   7.668  13.329
23142SOL    HW171200   2.501   7.609  13.403
23142SOL    HW271201   2.527   7.750  13.355
23143SOL     OW71202  14.115   6.103  13.044
23143SOL    HW171203  14.088   6.064  12.961
23143SOL    HW271204  14.051   6.070  13.108
23144SOL     OW71205  13.320  14.550  14.430
23144SOL    HW171206  13.377  14.544  14.353
23144SOL    HW271207  13.329  14.466  14.474
23145SOL     OW71208  13.454   2.449   3.745
23145SOL    HW171209  13.392   2.434   3.673
23145SOL    HW271210  13.405   2.502   3.808
23146SOL     OW71211   9.577   9.993   0.266
23146SOL    HW171212   9.573   9.900   0.288
23146SOL    HW271213   9.487  10.025   0.278
23147SOL     OW71214   8.171   4.492   5.030
23147SOL    HW171215   8.163   4.396   5.028
23147SOL    HW271216   8.081   4.523   5.024
23148SOL     OW71217   4.687  11.386   5.558
23148SOL    HW171218   4.603  11.418   5.526
23148SOL    HW271219   4.748  11.459   5.543
23149SOL     OW71220  10.846   4.677   4.306
23149SOL    HW171221  10.878   4.591   4.278
23149SOL    HW271222  10.769   4.658   4.361
23150SOL     OW71223   0.195   1.942   4.320
23150SOL    HW171224   0.284   1.907   4.331
23150SOL    HW271225   0.150   1.919   4.401
23151SOL     OW71226   5.280   2.071   7.624
23151SOL    HW171227   5.363   2.057   7.579
23151SOL    HW271228   5.215   2.075   7.554
23152SOL     OW71229   5.174   7.481   4.857
23152SOL    HW171230   5.149   7.391   4.881
23152SOL    HW271231   5.150   7.489   4.765
23153SOL     OW71232  14.570   4.872   1.497
23153SOL    HW171233  14.519   4.932   1.552
23153SOL    HW271234  14.642   4.844   1.553
23154SOL     OW71235   6.049   5.355  12.079
23154SOL    HW171236   5.974   5.306  12.044
23154SOL    HW271237   6.076   5.305  12.156
23155SOL     OW71238  10.907  10.510   3.845
23155SOL    HW171239  10.893  10.424   3.806
23155SOL    HW271240  10.835  10.564   3.810
23156SOL     OW71241   9.522   1.853  12.268
23156SOL    HW171242   9.468   1.885  12.340
23156SOL    HW271243   9.462   1.797  12.218
23157SOL     OW71244  14.558   5.469   5.963
23157SOL    HW171245  14.640   5.477   6.012
23157SOL    HW271246  14.507   5.404   6.012
23158SOL     OW71247  14.875   4.021   2.942
23158SOL    HW171248  14.868   3.935   2.982
23158SOL    HW271249   0.083   4.024   2.907
23159SOL     OW71250   3.843   0.771   4.123
23159SOL    HW171251   3.896   0.845   4.093
23159SOL    HW271252   3.896   0.729   4.191
23160SOL     OW71253  12.302   9.834  11.261
23160SOL    HW171254  12.222   9.881  11.283
23160SOL    HW271255  12.305   9.761  11.323
23161SOL     OW71256   1.127   9.662  12.538
23161SOL    HW171257   1.113   9.638  12.629
23161SOL    HW271258   1.213   9.706  12.537
23162SOL     OW71259   1.374   9.295   3.627
23162SOL    HW171260   1.455   9.277   3.675
23162SOL    HW271261   1.377   9.390   3.611
23163SOL     OW71262  10.049   2.109   6.529
23163SOL    HW171263  10.074   2.128   6.439
23163SOL    HW271264  10.122   2.140   6.582
23164SOL     OW71265   5.644  10.875   2.627
23164SOL    HW171266   5.671  10.953   2.579
23164SOL    HW271267   5.690  10.881   2.710
23165SOL     OW71268   3.882  11.545   7.633
23165SOL    HW171269   3.902  11.629   7.675
23165SOL    HW271270   3.895  11.480   7.701
23166SOL     OW71271   1.958   9.498   3.339
23166SOL    HW171272   2.036   9.463   3.381
23166SOL    HW271273   1.991   9.547   3.264
23167SOL     OW71274   0.525   3.218   5.747
23167SOL    HW171275   0.487   3.303   5.728
23167SOL    HW271276   0.493   3.196   5.835
23168SOL     OW71277   6.125   5.671   2.376
23168SOL    HW171278   6.143   5.609   2.305
23168SOL    HW271279   6.034   5.656   2.399
23169SOL     OW71280   1.120   7.526   1.555
23169SOL    HW171281   1.049   7.492   1.501
23169SOL    HW271282   1.129   7.463   1.625
23170SOL     OW71283   8.166   1.001   9.776
23170SOL    HW171284   8.091   1.045   9.737
23170SOL    HW271285   8.220   1.072   9.810
23171SOL     OW71286  10.293  13.646   5.266
23171SOL    HW171287  10.295  13.742   5.267
23171SOL    HW271288  10.386  13.621   5.264
23172SOL     OW71289   7.519   0.917  12.543
23172SOL    HW171290   7.529   0.997  12.491
23172SOL    HW271291   7.463   0.861  12.489
23173SOL     OW71292   5.272  13.927   6.568
23173SOL    HW171293   5.190  13.930   6.617
23173SOL    HW271294   5.305  14.017   6.570
23174SOL     OW71295   0.157  10.876   4.316
23174SOL    HW171296   0.190  10.959   4.281
23174SOL    HW271297   0.119  10.831   4.240
23175SOL     OW71298  13.837   6.728  11.342
23175SOL    HW171299  13.835   6.638  11.373
23175SOL    HW271300  13.748   6.745  11.311
23176SOL     OW71301  12.004  10.606  11.434
23176SOL    HW171302  12.086  10.565  11.460
23176SOL    HW271303  12.030  10.689  11.395
23177SOL     OW71304   2.436   0.219   8.115
23177SOL    HW171305   2.393   0.137   8.139
23177SOL    HW271306   2.512   0.224   8.173
23178SOL     OW71307  14.075   2.652   0.392
23178SOL    HW171308  14.015   2.673   0.321
23178SOL    HW271309  14.162   2.656   0.352
23179SOL     OW71310  12.169  12.670   9.719
23179SOL    HW171311  12.216  12.702   9.796
23179SOL    HW271312  12.099  12.733   9.704
23180SOL     OW71313   4.496   4.203   1.860
23180SOL    HW171314   4.548   4.176   1.785
23180SOL    HW271315   4.529   4.150   1.933
23181SOL     OW71316  12.404   3.668   4.594
23181SOL    HW171317  12.309   3.668   4.597
23181SOL    HW271318  12.430   3.757   4.620
23182SOL     OW71319   6.858  12.655  12.103
23182SOL    HW171320   6.811  12.628  12.024
23182SOL    HW271321   6.797  12.714  12.148
23183SOL     OW71322  13.196  12.693  14.545
23183SOL    HW171323  13.115  12.643  14.534
23183SOL    HW271324  13.190  12.727  14.635
23184SOL     OW71325   8.113   7.787   8.013
23184SOL    HW171326   8.023   7.755   8.025
23184SOL    HW271327   8.106   7.882   8.021
23185SOL     OW71328   0.353   2.887   2.729
23185SOL    HW171329   0.303   2.944   2.671
23185SOL    HW271330   0.301   2.806   2.734
23186SOL     OW71331   9.375  12.007   7.345
23186SOL    HW171332   9.427  12.050   7.413
23186SOL    HW271333   9.391  12.059   7.267
23187SOL     OW71334   8.061  10.571   9.894
23187SOL    HW171335   8.043  10.573   9.988
23187SOL    HW271336   8.085  10.480   9.876
23188SOL     OW71337  10.876  14.403  13.478
23188SOL    HW171338  10.899  14.388  13.386
23188SOL    HW271339  10.839  14.319  13.506
23189SOL     OW71340   2.534   2.903   5.978
23189SOL    HW171341   2.502   2.827   5.929
23189SOL    HW271342   2.466   2.969   5.966
23190SOL     OW71343   8.829   1.855  11.587
23190SOL    HW171344   8.855   1.779  11.535
23190SOL    HW271345   8.733   1.850  11.591
23191SOL     OW71346   9.007   5.661   5.652
23191SOL    HW171347   9.073   5.616   5.704
23191SOL    HW271348   9.037   5.651   5.561
23192SOL     OW71349  10.627   0.565   7.981
23192SOL    HW171350  10.701   0.560   7.921
23192SOL    HW271351  10.582   0.481   7.971
23193SOL     OW71352  11.512   9.169   6.269
23193SOL    HW171353  11.437   9.121   6.232
23193SOL    HW271354  11.517   9.249   6.216
23194SOL     OW71355   6.721   1.125  14.119
23194SOL    HW171356   6.709   1.102  14.027
23194SOL    HW271357   6.694   1.047  14.167
23195SOL     OW71358   8.195   7.444   7.104
23195SOL    HW171359   8.224   7.533   7.121
23195SOL    HW271360   8.109   7.437   7.147
23196SOL     OW71361   7.330   5.732  14.189
23196SOL    HW171362   7.372   5.799  14.244
23196SOL    HW271363   7.237   5.756  14.190
23197SOL     OW71364   8.040  11.481  10.891
23197SOL    HW171365   8.123  11.518  10.922
23197SOL    HW271366   8.018  11.413  10.956
23198SOL     OW71367   1.835   2.824  14.027
23198SOL    HW171368   1.912   2.782  14.064
23198SOL    HW271369   1.819   2.900  14.084
23199SOL     OW71370   6.571   8.428   1.740
23199SOL    HW171371   6.481   8.455   1.756
23199SOL    HW271372   6.604   8.401   1.826
23200SOL     OW71373  10.890   3.249  10.661
23200SOL    HW171374  10.856   3.322  10.610
23200SOL    HW271375  10.906   3.286  10.748
23201SOL     OW71376  12.285   7.619   3.558
23201SOL    HW171377  12.332   7.650   3.636
23201SOL    HW271378  12.192   7.626   3.582
23202SOL     OW71379  14.260   3.331   4.460
23202SOL    HW171380  14.243   3.417   4.499
23202SOL    HW271381  14.344   3.304   4.498
23203SOL     OW71382  14.094  11.332   6.960
23203SOL    HW171383  14.168  11.386   6.988
23203SOL    HW271384  14.037  11.328   7.037
23204SOL     OW71385  11.990   2.937   4.055
23204SOL    HW171386  11.979   2.905   3.965
23204SOL    HW271387  12.071   2.897   4.085
23205SOL     OW71388   7.496   3.057   4.835
23205SOL    HW171389   7.484   3.102   4.752
23205SOL    HW271390   7.548   2.979   4.814
23206SOL     OW71391   9.491   2.464   8.314
23206SOL    HW171392   9.583   2.472   8.336
23206SOL    HW271393   9.480   2.373   8.286
23207SOL     OW71394   8.218   2.334  14.010
23207SOL    HW171395   8.223   2.250  13.964
23207SOL    HW271396   8.259   2.318  14.094
23208SOL     OW71397   7.039  12.678   6.390
23208SOL    HW171398   7.080  12.631   6.317
23208SOL    HW271399   6.954  12.706   6.355
23209SOL     OW71400   3.447   4.501   6.580
23209SOL    HW171401   3.390   4.562   6.531
23209SOL    HW271402   3.436   4.526   6.671
23210SOL     OW71403  12.254   8.566   5.658
23210SOL    HW171404  12.252   8.658   5.681
23210SOL    HW271405  12.287   8.522   5.736
23211SOL     OW71406  13.547   7.468  11.060
23211SOL    HW171407  13.596   7.537  11.106
23211SOL    HW271408  13.478   7.443  11.122
23212SOL     OW71409   8.446   4.622   7.901
23212SOL    HW171410   8.414   4.593   7.986
23212SOL    HW271411   8.391   4.576   7.837
23213SOL     OW71412   7.794   6.848   4.120
23213SOL    HW171413   7.799   6.942   4.140
23213SOL    HW271414   7.701   6.827   4.125
23214SOL     OW71415   5.328   1.167   9.625
23214SOL    HW171416   5.318   1.227   9.551
23214SOL    HW271417   5.241   1.132   9.640
23215SOL     OW71418  11.398  10.782  12.023
23215SOL    HW171419  11.484  10.823  12.018
23215SOL    HW271420  11.388  10.735  11.940
23216SOL     OW71421   8.538  12.136  11.498
23216SOL    HW171422   8.566  12.227  11.514
23216SOL    HW271423   8.600  12.083  11.548
23217SOL     OW71424   0.507  10.118   5.607
23217SOL    HW171425   0.498  10.026   5.634
23217SOL    HW271426   0.592  10.121   5.563
23218SOL     OW71427  12.740   9.433  11.766
23218SOL    HW171428  12.778   9.521  11.766
23218SOL    HW271429  12.737   9.408  11.674
23219SOL     OW71430   4.829   6.897  11.505
23219SOL    HW171431   4.821   6.820  11.562
23219SOL    HW271432   4.792   6.969  11.556
23220SOL     OW71433  13.636   7.740  13.536
23220SOL    HW171434  13.687   7.812  13.499
23220SOL    HW271435  13.648   7.748  13.630
23221SOL     OW71436  11.137   9.851   3.652
23221SOL    HW171437  11.178   9.927   3.611
23221SOL    HW271438  11.210   9.796   3.679
23222SOL     OW71439   3.685   2.509   1.193
23222SOL    HW171440   3.709   2.600   1.209
23222SOL    HW271441   3.614   2.492   1.255
23223SOL     OW71442   2.551   9.947   6.155
23223SOL    HW171443   2.639   9.910   6.169
23223SOL    HW271444   2.517   9.900   6.079
23224SOL     OW71445   5.530   4.805   5.958
23224SOL    HW171446   5.451   4.803   6.012
23224SOL    HW271447   5.507   4.864   5.886
23225SOL     OW71448   1.206  12.959   5.914
23225SOL    HW171449   1.209  13.022   5.843
23225SOL    HW271450   1.142  12.893   5.885
23226SOL     OW71451  11.806   3.601  13.017
23226SOL    HW171452  11.722   3.580  12.977
23226SOL    HW271453  11.863   3.623  12.943
23227SOL     OW71454   7.990   7.168   5.631
23227SOL    HW171455   8.004   7.185   5.724
23227SOL    HW271456   8.052   7.226   5.586
23228SOL     OW71457   3.897  12.232   6.159
23228SOL    HW171458   3.891  12.156   6.101
23228SOL    HW271459   3.850  12.206   6.238
23229SOL     OW71460   3.747   5.795  10.922
23229SOL    HW171461   3.713   5.730  10.860
23229SOL    HW271462   3.697   5.779  11.002
23230SOL     OW71463  14.114  10.976   4.740
23230SOL    HW171464  14.073  10.900   4.781
23230SOL    HW271465  14.125  11.039   4.811
23231SOL     OW71466  13.550  12.375  12.782
23231SOL    HW171467  13.594  12.384  12.697
23231SOL    HW271468  13.498  12.455  12.790
23232SOL     OW71469   0.938   6.982   0.031
23232SOL    HW171470   0.878   6.954   0.101
23232SOL    HW271471   1.022   6.944   0.056
23233SOL     OW71472   7.649  12.444   1.783
23233SOL    HW171473   7.587  12.517   1.780
23233SOL    HW271474   7.629  12.394   1.704
23234SOL     OW71475  13.144  13.906   5.833
23234SOL    HW171476  13.157  13.978   5.772
23234SOL    HW271477  13.225  13.856   5.829
23235SOL     OW71478  14.183   2.859  13.495
23235SOL    HW171479  14.140   2.919  13.555
23235SOL    HW271480  14.264   2.834  13.540
23236SOL     OW71481  12.147   4.620  13.557
23236SOL    HW171482  12.191   4.563  13.620
23236SOL    HW271483  12.060   4.582  13.546
23237SOL     OW71484  11.146   4.620  13.329
23237SOL    HW171485  11.054   4.596  13.346
23237SOL    HW271486  11.142   4.674  13.250
23238SOL     OW71487   1.515   8.589   1.343
23238SOL    HW171488   1.521   8.508   1.292
23238SOL    HW271489   1.481   8.654   1.282
23239SOL     OW71490  14.207   8.877   6.405
23239SOL    HW171491  14.119   8.870   6.368
23239SOL    HW271492  14.250   8.795   6.381
23240SOL     OW71493   9.842  14.742  10.383
23240SOL    HW171494   9.809  14.707  10.300
23240SOL    HW271495   9.835  14.837  10.374
23241SOL     OW71496   8.732   5.770  13.085
23241SOL    HW171497   8.683   5.822  13.148
23241SOL    HW271498   8.761   5.833  13.019
23242SOL     OW71499  11.153  11.718   8.043
23242SOL    HW171500  11.157  11.723   7.948
23242SOL    HW271501  11.230  11.667   8.068
23243SOL     OW71502   7.523   9.105   9.257
23243SOL    HW171503   7.470   9.079   9.182
23243SOL    HW271504   7.613   9.104   9.225
23244SOL     OW71505   2.974   2.567  11.472
23244SOL    HW171506   2.929   2.613  11.401
23244SOL    HW271507   3.029   2.634  11.513
23245SOL     OW71508   3.103  10.325   3.187
23245SOL    HW171509   3.052  10.328   3.269
23245SOL    HW271510   3.049  10.372   3.124
23246SOL     OW71511   9.655   6.890   5.635
23246SOL    HW171512   9.566   6.872   5.607
23246SOL    HW271513   9.690   6.805   5.662
23247SOL     OW71514   9.630   5.849   7.834
23247SOL    HW171515   9.570   5.878   7.765
23247SOL    HW271516   9.589   5.769   7.869
23248SOL     OW71517   1.347   0.675   5.751
23248SOL    HW171518   1.256   0.656   5.730
23248SOL    HW271519   1.396   0.599   5.720
23249SOL     OW71520   2.197   7.878  12.406
23249SOL    HW171521   2.141   7.906  12.479
23249SOL    HW271522   2.258   7.816  12.445
23250SOL     OW71523   5.131   8.676  14.588
23250SOL    HW171524   5.164   8.749  14.641
23250SOL    HW271525   5.173   8.688  14.503
23251SOL     OW71526   2.622   3.959   5.920
23251SOL    HW171527   2.654   3.880   5.875
23251SOL    HW271528   2.528   3.960   5.904
23252SOL     OW71529   5.021   6.508  11.328
23252SOL    HW171530   5.026   6.419  11.364
23252SOL    HW271531   5.052   6.565  11.399
23253SOL     OW71532  10.586   3.693  13.637
23253SOL    HW171533  10.535   3.701  13.556
23253SOL    HW271534  10.674   3.721  13.613
23254SOL     OW71535  10.948  11.214   1.720
23254SOL    HW171536  11.042  11.214   1.704
23254SOL    HW271537  10.908  11.196   1.635
23255SOL     OW71538  13.542   2.490   8.497
23255SOL    HW171539  13.633   2.476   8.523
23255SOL    HW271540  13.511   2.561   8.553
23256SOL     OW71541  11.820   4.646   3.139
23256SOL    HW171542  11.749   4.634   3.201
23256SOL    HW271543  11.900   4.644   3.192
23257SOL     OW71544   6.796  10.237  10.916
23257SOL    HW171545   6.749  10.319  10.926
23257SOL    HW271546   6.796  10.198  11.003
23258SOL     OW71547   4.558  10.813   4.412
23258SOL    HW171548   4.605  10.822   4.329
23258SOL    HW271549   4.625  10.784   4.474
23259SOL     OW71550   0.881   5.020   8.187
23259SOL    HW171551   0.862   4.957   8.118
23259SOL    HW271552   0.796   5.058   8.209
23260SOL     OW71553   9.521  14.764   3.959
23260SOL    HW171554   9.566  14.715   4.029
23260SOL    HW271555   9.590  14.781   3.895
23261SOL     OW71556   3.153  13.551   1.668
23261SOL    HW171557   3.219  13.522   1.605
23261SOL    HW271558   3.070  13.538   1.623
23262SOL     OW71559   0.519  10.597  10.040
23262SOL    HW171560   0.468  10.678  10.040
23262SOL    HW271561   0.589  10.612  10.104
23263SOL     OW71562   3.194   0.263   1.050
23263SOL    HW171563   3.217   0.169   1.047
23263SOL    HW271564   3.275   0.306   1.076
23264SOL     OW71565   8.808  11.627   8.788
23264SOL    HW171566   8.843  11.690   8.850
23264SOL    HW271567   8.780  11.552   8.841
23265SOL     OW71568   4.222   1.466   3.046
23265SOL    HW171569   4.244   1.497   3.134
23265SOL    HW271570   4.256   1.534   2.988
23266SOL     OW71571   4.721   7.034   2.066
23266SOL    HW171572   4.679   6.991   1.992
23266SOL    HW271573   4.734   6.964   2.130
23267SOL     OW71574   5.795  12.543  11.811
23267SOL    HW171575   5.759  12.618  11.859
23267SOL    HW271576   5.774  12.562  11.719
23268SOL     OW71577  11.004   9.763   8.490
23268SOL    HW171578  11.033   9.672   8.483
23268SOL    HW271579  10.929   9.769   8.432
23269SOL     OW71580  13.824   5.609   7.638
23269SOL    HW171581  13.877   5.594   7.560
23269SOL    HW271582  13.838   5.532   7.693
23270SOL     OW71583   1.098   4.958   9.324
23270SOL    HW171584   1.137   4.976   9.409
23270SOL    HW271585   1.169   4.970   9.261
23271SOL     OW71586   3.686   0.544   9.064
23271SOL    HW171587   3.704   0.566   8.972
23271SOL    HW271588   3.752   0.593   9.113
23272SOL     OW71589   0.786  12.103   6.262
23272SOL    HW171590   0.836  12.185   6.259
23272SOL    HW271591   0.849  12.036   6.235
23273SOL     OW71592   6.387   8.422  12.540
23273SOL    HW171593   6.448   8.424  12.466
23273SOL    HW271594   6.300   8.424  12.500
23274SOL     OW71595   4.785   7.664   6.697
23274SOL    HW171596   4.791   7.718   6.618
23274SOL    HW271597   4.792   7.574   6.664
23275SOL     OW71598  12.068   9.825   0.004
23275SOL    HW171599  12.144   9.793  14.838
23275SOL    HW271600  12.024   9.746   0.035
23276SOL     OW71601  12.003   1.479  12.530
23276SOL    HW171602  12.045   1.520  12.605
23276SOL    HW271603  11.957   1.550  12.486
23277SOL     OW71604  11.182   1.434  13.271
23277SOL    HW171605  11.088   1.440  13.252
23277SOL    HW271606  11.220   1.391  13.195
23278SOL     OW71607  11.621   9.049   6.658
23278SOL    HW171608  11.537   9.004   6.664
23278SOL    HW271609  11.683   8.992   6.704
23279SOL     OW71610  13.870   3.273   8.788
23279SOL    HW171611  13.863   3.338   8.858
23279SOL    HW271612  13.820   3.198   8.819
23280SOL     OW71613   1.666  12.107  12.721
23280SOL    HW171614   1.756  12.087  12.749
23280SOL    HW271615   1.676  12.142  12.632
23281SOL     OW71616  12.876  13.795   9.046
23281SOL    HW171617  12.920  13.788   8.961
23281SOL    HW271618  12.947  13.817   9.107
23282SOL     OW71619  12.926  13.925   7.673
23282SOL    HW171620  12.834  13.931   7.646
23282SOL    HW271621  12.923  13.912   7.767
23283SOL     OW71622  12.420   0.992   4.951
23283SOL    HW171623  12.443   1.079   4.917
23283SOL    HW271624  12.334   1.004   4.991
23284SOL     OW71625   7.253  10.389  10.798
23284SOL    HW171626   7.179  10.345  10.839
23284SOL    HW271627   7.289  10.444  10.868
23285SOL     OW71628  12.459   3.347   2.629
23285SOL    HW171629  12.365   3.355   2.614
23285SOL    HW271630  12.472   3.377   2.719
23286SOL     OW71631   4.833   6.560  11.863
23286SOL    HW171632   4.828   6.531  11.772
23286SOL    HW271633   4.787   6.492  11.912
23287SOL     OW71634   2.440  11.790  12.734
23287SOL    HW171635   2.346  11.803  12.724
23287SOL    HW271636   2.478  11.826  12.654
23288SOL     OW71637   2.646  12.644   2.512
23288SOL    HW171638   2.566  12.634   2.461
23288SOL    HW271639   2.641  12.734   2.547
23289SOL     OW71640   9.169  10.939   1.449
23289SOL    HW171641   9.236  10.944   1.382
23289SOL    HW271642   9.201  10.873   1.511
23290SOL     OW71643  10.255   7.869  11.892
23290SOL    HW171644  10.205   7.794  11.924
23290SOL    HW271645  10.211   7.895  11.811
23291SOL     OW71646  14.648  10.845   1.124
23291SOL    HW171647  14.624  10.874   1.212
23291SOL    HW271648  14.739  10.871   1.113
23292SOL     OW71649   6.958  13.796  10.832
23292SOL    HW171650   7.052  13.813  10.834
23292SOL    HW271651   6.921  13.869  10.783
23293SOL     OW71652   0.795   2.824   0.699
23293SOL    HW171653   0.709   2.794   0.671
23293SOL    HW271654   0.786   2.838   0.794
23294SOL     OW71655   8.153  13.790   3.916
23294SOL    HW171656   8.210  13.753   3.849
23294SOL    HW271657   8.064  13.774   3.883
23295SOL     OW71658   5.008   2.954  11.622
23295SOL    HW171659   5.043   2.869  11.595
23295SOL    HW271660   5.073   3.017  11.590
23296SOL     OW71661   1.176   2.319   1.802
23296SOL    HW171662   1.146   2.243   1.752
23296SOL    HW271663   1.194   2.284   1.889
23297SOL     OW71664  13.865   1.793   4.917
23297SOL    HW171665  13.813   1.740   4.978
23297SOL    HW271666  13.954   1.758   4.925
23298SOL     OW71667   1.116  13.836  10.013
23298SOL    HW171668   1.028  13.809  10.038
23298SOL    HW271669   1.174  13.772  10.055
23299SOL     OW71670   7.811   8.708  12.901
23299SOL    HW171671   7.780   8.770  12.967
23299SOL    HW271672   7.858   8.762  12.838
23300SOL     OW71673  10.786   5.577   6.158
23300SOL    HW171674  10.880   5.592   6.143
23300SOL    HW271675  10.776   5.482   6.147
23301SOL     OW71676   3.995   1.101  11.996
23301SOL    HW171677   3.932   1.041  11.957
23301SOL    HW271678   3.995   1.079  12.089
23302SOL     OW71679   9.539   8.805   4.443
23302SOL    HW171680   9.478   8.732   4.437
23302SOL    HW271681   9.485   8.883   4.436
23303SOL     OW71682  13.967   5.701   1.548
23303SOL    HW171683  13.906   5.716   1.620
23303SOL    HW271684  13.959   5.608   1.529
23304SOL     OW71685   9.310   7.969   1.781
23304SOL    HW171686   9.302   7.893   1.725
23304SOL    HW271687   9.404   7.988   1.784
23305SOL     OW71688  14.067  11.290   0.349
23305SOL    HW171689  14.060  11.197   0.329
23305SOL    HW271690  14.047  11.295   0.443
23306SOL     OW71691   0.263   9.881   4.166
23306SOL    HW171692   0.256   9.969   4.203
23306SOL    HW271693   0.174   9.846   4.168
23307SOL     OW71694  14.865   0.919  10.055
23307SOL    HW171695   0.054   0.855  10.054
23307SOL    HW271696   0.013   0.988   9.995
23308SOL     OW71697  13.207  12.343  13.039
23308SOL    HW171698  13.155  12.397  12.979
23308SOL    HW271699  13.276  12.306  12.984
23309SOL     OW71700  11.990   2.707   5.990
23309SOL    HW171701  11.998   2.696   5.895
23309SOL    HW271702  12.012   2.798   6.006
23310SOL     OW71703   3.622  14.234   9.980
23310SOL    HW171704   3.664  14.183   9.911
23310SOL    HW271705   3.637  14.325   9.955
23311SOL     OW71706   7.006   8.502  14.621
23311SOL    HW171707   7.043   8.471  14.538
23311SOL    HW271708   7.005   8.597  14.613
23312SOL     OW71709   8.708  11.029   9.364
23312SOL    HW171710   8.654  10.995   9.292
23312SOL    HW271711   8.762  11.097   9.323
23313SOL     OW71712   3.605   7.540  11.236
23313SOL    HW171713   3.539   7.473  11.254
23313SOL    HW271714   3.649   7.510  11.157
23314SOL     OW71715   3.173   9.974   9.022
23314SOL    HW171716   3.121   9.977   9.102
23314SOL    HW271717   3.168  10.063   8.987
23315SOL     OW71718   6.174  13.443   5.413
23315SOL    HW171719   6.244  13.380   5.429
23315SOL    HW271720   6.103  13.391   5.375
23316SOL     OW71721   3.114  13.633  13.273
23316SOL    HW171722   3.132  13.721  13.308
23316SOL    HW271723   3.020  13.621  13.287
23317SOL     OW71724  11.593  13.178  12.926
23317SOL    HW171725  11.563  13.115  12.861
23317SOL    HW271726  11.534  13.253  12.915
23318SOL     OW71727  11.638  11.774   4.983
23318SOL    HW171728  11.631  11.833   5.058
23318SOL    HW271729  11.723  11.792   4.945
23319SOL     OW71730   2.191  12.625   4.972
23319SOL    HW171731   2.184  12.587   5.060
23319SOL    HW271732   2.107  12.669   4.958
23320SOL     OW71733   9.568   4.635   1.508
23320SOL    HW171734   9.575   4.584   1.589
23320SOL    HW271735   9.478   4.665   1.507
23321SOL     OW71736  12.464   3.556  14.517
23321SOL    HW171737  12.463   3.461  14.529
23321SOL    HW271738  12.412   3.571  14.439
23322SOL     OW71739   2.932  11.246   3.353
23322SOL    HW171740   3.007  11.250   3.294
23322SOL    HW271741   2.945  11.166   3.403
23323SOL     OW71742  12.988   8.174   5.023
23323SOL    HW171743  12.906   8.185   5.070
23323SOL    HW271744  13.047   8.133   5.087
23324SOL     OW71745   3.097   1.984  12.026
23324SOL    HW171746   3.191   1.971  12.013
23324SOL    HW271747   3.068   2.026  11.945
23325SOL     OW71748   8.845   2.609   7.456
23325SOL    HW171749   8.808   2.524   7.480
23325SOL    HW271750   8.783   2.673   7.489
23326SOL     OW71751   5.663   2.828   3.694
23326SOL    HW171752   5.653   2.748   3.642
23326SOL    HW271753   5.752   2.821   3.730
23327SOL     OW71754   7.608   7.842   4.038
23327SOL    HW171755   7.552   7.792   3.979
23327SOL    HW271756   7.620   7.926   3.995
23328SOL     OW71757   3.245   6.272  14.008
23328SOL    HW171758   3.222   6.217  14.083
23328SOL    HW271759   3.247   6.211  13.934
23329SOL     OW71760   0.008   7.081   5.944
23329SOL    HW171761   0.093   7.110   5.911
23329SOL    HW271762  14.827   7.146   5.912
23330SOL     OW71763   6.394   3.069   7.955
23330SOL    HW171764   6.322   3.009   7.974
23330SOL    HW271765   6.441   3.029   7.882
23331SOL     OW71766  10.397   1.767  10.496
23331SOL    HW171767  10.342   1.739  10.422
23331SOL    HW271768  10.423   1.685  10.538
23332SOL     OW71769  12.864   9.277  14.276
23332SOL    HW171770  12.844   9.345  14.340
23332SOL    HW271771  12.934   9.315  14.222
23333SOL     OW71772  12.876  12.698   5.765
23333SOL    HW171773  12.958  12.748   5.770
23333SOL    HW271774  12.870  12.670   5.674
23334SOL     OW71775   3.054  10.923   5.138
23334SOL    HW171776   2.984  10.883   5.189
23334SOL    HW271777   3.132  10.912   5.192
23335SOL     OW71778   4.631   0.417  13.020
23335SOL    HW171779   4.632   0.436  12.926
23335SOL    HW271780   4.643   0.502  13.062
23336SOL     OW71781   0.410   5.015   8.205
23336SOL    HW171782   0.322   5.023   8.241
23336SOL    HW271783   0.400   5.029   8.111
23337SOL     OW71784   1.679   3.886   9.488
23337SOL    HW171785   1.773   3.891   9.501
23337SOL    HW271786   1.663   3.796   9.459
23338SOL     OW71787  10.067   6.358   7.417
23338SOL    HW171788  10.133   6.306   7.372
23338SOL    HW271789  10.072   6.328   7.508
23339SOL     OW71790   1.578   9.850  13.430
23339SOL    HW171791   1.501   9.841  13.487
23339SOL    HW271792   1.651   9.817  13.483
23340SOL     OW71793   4.760  13.315  14.583
23340SOL    HW171794   4.812  13.306  14.663
23340SOL    HW271795   4.753  13.226  14.548
23341SOL     OW71796  13.946   0.235   4.144
23341SOL    HW171797  14.006   0.283   4.200
23341SOL    HW271798  13.960   0.272   4.057
23342SOL     OW71799   0.367   2.292  14.872
23342SOL    HW171800   0.449   2.336   0.014
23342SOL    HW271801   0.333   2.260   0.074
23343SOL     OW71802   9.794   7.593  11.079
23343SOL    HW171803   9.733   7.623  11.012
23343SOL    HW271804   9.798   7.665  11.142
23344SOL     OW71805  12.532   2.696   0.440
23344SOL    HW171806  12.598   2.755   0.478
23344SOL    HW271807  12.571   2.609   0.444
23345SOL     OW71808   9.800  13.148  11.639
23345SOL    HW171809   9.827  13.237  11.660
23345SOL    HW271810   9.833  13.095  11.712
23346SOL     OW71811   6.419  10.938   6.351
23346SOL    HW171812   6.404  10.851   6.313
23346SOL    HW271813   6.393  10.929   6.442
23347SOL     OW71814  12.013   9.245  10.317
23347SOL    HW171815  11.948   9.202  10.373
23347SOL    HW271816  12.026   9.184  10.244
23348SOL     OW71817  12.418   4.099   7.563
23348SOL    HW171818  12.442   4.009   7.539
23348SOL    HW271819  12.349   4.089   7.628
23349SOL     OW71820  11.816   8.204   7.664
23349SOL    HW171821  11.883   8.142   7.637
23349SOL    HW271822  11.779   8.166   7.744
23350SOL     OW71823   4.876  12.931   0.880
23350SOL    HW171824   4.872  13.026   0.882
23350SOL    HW271825   4.788  12.903   0.902
23351SOL     OW71826   9.843   3.135  11.537
23351SOL    HW171827   9.771   3.140  11.600
23351SOL    HW271828   9.920   3.160  11.587
23352SOL     OW71829  12.888  11.440   1.738
23352SOL    HW171830  12.975  11.471   1.716
23352SOL    HW271831  12.830  11.515   1.723
23353SOL     OW71832  12.581   3.366   1.057
23353SOL    HW171833  12.625   3.430   1.113
23353SOL    HW271834  12.621   3.378   0.971
23354SOL     OW71835  10.545   2.070   7.123
23354SOL    HW171836  10.453   2.047   7.110
23354SOL    HW271837  10.591   1.987   7.124
23355SOL     OW71838   8.555  12.915   6.373
23355SOL    HW171839   8.548  12.863   6.292
23355SOL    HW271840   8.496  12.871   6.434
23356SOL     OW71841   8.376   2.380  11.214
23356SOL    HW171842   8.293   2.336  11.231
23356SOL    HW271843   8.412   2.334  11.138
23357SOL     OW71844   1.683   8.190   9.412
23357SOL    HW171845   1.614   8.251   9.384
23357SOL    HW271846   1.751   8.247   9.448
23358SOL     OW71847   0.865  10.603  11.607
23358SOL    HW171848   0.888  10.568  11.693
23358SOL    HW271849   0.847  10.695  11.622
23359SOL     OW71850  12.045  13.399  12.077
23359SOL    HW171851  12.003  13.445  12.004
23359SOL    HW271852  12.014  13.309  12.069
23360SOL     OW71853  10.614   5.105   0.476
23360SOL    HW171854  10.575   5.017   0.467
23360SOL    HW271855  10.569   5.157   0.410
23361SOL     OW71856   9.816   4.189   8.924
23361SOL    HW171857   9.770   4.225   9.000
23361SOL    HW271858   9.907   4.214   8.938
23362SOL     OW71859  12.514   0.593  11.869
23362SOL    HW171860  12.456   0.547  11.929
23362SOL    HW271861  12.556   0.660  11.923
23363SOL     OW71862  12.973   6.184   2.182
23363SOL    HW171863  12.889   6.169   2.139
23363SOL    HW271864  13.037   6.183   2.112
23364SOL     OW71865  14.439  12.714   9.477
23364SOL    HW171866  14.455  12.698   9.384
23364SOL    HW271867  14.512  12.672   9.522
23365SOL     OW71868   8.241   9.312  12.241
23365SOL    HW171869   8.270   9.312  12.150
23365SOL    HW271870   8.148   9.291  12.236
23366SOL     OW71871   6.084   0.603   5.228
23366SOL    HW171872   6.027   0.675   5.257
23366SOL    HW271873   6.082   0.610   5.132
23367SOL     OW71874   7.017   4.227  13.201
23367SOL    HW171875   6.932   4.269  13.208
23367SOL    HW271876   7.043   4.241  13.109
23368SOL     OW71877   4.333   7.564   6.096
23368SOL    HW171878   4.393   7.494   6.071
23368SOL    HW271879   4.278   7.525   6.164
23369SOL     OW71880   1.773   7.326  10.949
23369SOL    HW171881   1.860   7.285  10.940
23369SOL    HW271882   1.713   7.252  10.955
23370SOL     OW71883   0.991  11.764   8.522
23370SOL    HW171884   0.924  11.725   8.465
23370SOL    HW271885   0.981  11.716   8.605
23371SOL     OW71886  11.887   3.828   5.825
23371SOL    HW171887  11.873   3.888   5.752
23371SOL    HW271888  11.939   3.877   5.888
23372SOL     OW71889  12.110   9.719   3.488
23372SOL    HW171890  12.103   9.739   3.395
23372SOL    HW271891  12.021   9.725   3.521
23373SOL     OW71892   0.320   7.575  13.774
23373SOL    HW171893   0.346   7.528  13.694
23373SOL    HW271894   0.226   7.558  13.781
23374SOL     OW71895   1.984   3.931  11.511
23374SOL    HW171896   1.953   3.873  11.581
23374SOL    HW271897   2.066   3.892  11.482
23375SOL     OW71898   2.377  10.030   3.981
23375SOL    HW171899   2.461  10.066   3.951
23375SOL    HW271900   2.314  10.100   3.967
23376SOL     OW71901   6.218   4.237  11.479
23376SOL    HW171902   6.252   4.153  11.451
23376SOL    HW271903   6.139   4.216  11.530
23377SOL     OW71904   4.451   1.151   6.545
23377SOL    HW171905   4.386   1.206   6.500
23377SOL    HW271906   4.509   1.122   6.475
23378SOL     OW71907   5.965   5.510   2.048
23378SOL    HW171908   5.935   5.457   1.974
23378SOL    HW271909   5.890   5.567   2.068
23379SOL     OW71910   7.142   0.982  14.702
23379SOL    HW171911   7.136   1.027  14.786
23379SOL    HW271912   7.062   0.929  14.697
23380SOL     OW71913  14.318   1.362  12.607
23380SOL    HW171914  14.362   1.408  12.679
23380SOL    HW271915  14.250   1.310  12.651
23381SOL     OW71916  12.673  13.641   8.836
23381SOL    HW171917  12.746  13.615   8.891
23381SOL    HW271918  12.640  13.560   8.799
23382SOL     OW71919   3.530   7.230   1.110
23382SOL    HW171920   3.470   7.188   1.049
23382SOL    HW271921   3.475   7.287   1.164
23383SOL     OW71922   3.278   4.763   9.924
23383SOL    HW171923   3.284   4.815  10.005
23383SOL    HW271924   3.185   4.751   9.910
23384SOL     OW71925   1.452  12.825  14.014
23384SOL    HW171926   1.407  12.770  14.078
23384SOL    HW271927   1.541  12.834  14.049
23385SOL     OW71928   2.698   4.912   3.127
23385SOL    HW171929   2.675   4.831   3.172
23385SOL    HW271930   2.617   4.940   3.085
23386SOL     OW71931   5.116   3.880  14.174
23386SOL    HW171932   5.201   3.922  14.177
23386SOL    HW271933   5.130   3.801  14.122
23387SOL     OW71934  14.296  13.454   9.228
23387SOL    HW171935  14.260  13.529   9.276
23387SOL    HW271936  14.391  13.460   9.241
23388SOL     OW71937   6.100   5.127  14.385
23388SOL    HW171938   6.030   5.126  14.320
23388SOL    HW271939   6.174   5.086  14.341
23389SOL     OW71940  10.867   4.077  10.420
23389SOL    HW171941  10.933   4.074  10.489
23389SOL    HW271942  10.784   4.081  10.468
23390SOL     OW71943   7.082   8.729   0.882
23390SOL    HW171944   7.170   8.711   0.849
23390SOL    HW271945   7.057   8.812   0.842
23391SOL     OW71946  11.299  14.442  12.471
23391SOL    HW171947  11.238  14.375  12.440
23391SOL    HW271948  11.248  14.524  12.467
23392SOL     OW71949  11.340   4.259   8.682
23392SOL    HW171950  11.254   4.292   8.657
23392SOL    HW271951  11.358   4.190   8.619
23393SOL     OW71952   8.451  12.153   7.580
23393SOL    HW171953   8.356  12.163   7.580
23393SOL    HW271954   8.477  12.167   7.672
23394SOL     OW71955   6.187  11.709  10.073
23394SOL    HW171956   6.131  11.670  10.006
23394SOL    HW271957   6.131  11.718  10.150
23395SOL     OW71958  10.920  14.676  10.410
23395SOL    HW171959  10.957  14.647  10.327
23395SOL    HW271960  10.946  14.768  10.417
23396SOL     OW71961   5.322   4.297   8.347
23396SOL    HW171962   5.365   4.374   8.310
23396SOL    HW271963   5.281   4.253   8.272
23397SOL     OW71964   0.595   8.413   3.943
23397SOL    HW171965   0.626   8.493   3.899
23397SOL    HW271966   0.668   8.352   3.936
23398SOL     OW71967  11.703   9.403   1.107
23398SOL    HW171968  11.628   9.345   1.121
23398SOL    HW271969  11.678   9.486   1.149
23399SOL     OW71970  11.618   3.443   7.544
23399SOL    HW171971  11.631   3.514   7.608
23399SOL    HW271972  11.545   3.472   7.491
23400SOL     OW71973  12.825  14.145  13.456
23400SOL    HW171974  12.733  14.121  13.464
23400SOL    HW271975  12.848  14.121  13.366
23401SOL     OW71976  13.590  14.377   4.083
23401SOL    HW171977  13.666  14.430   4.059
23401SOL    HW271978  13.537  14.434   4.138
23402SOL     OW71979  12.442  13.942   6.947
23402SOL    HW171980  12.497  13.972   6.874
23402SOL    HW271981  12.475  13.989   7.023
23403SOL     OW71982   2.433   1.757   3.288
23403SOL    HW171983   2.477   1.814   3.351
23403SOL    HW271984   2.377   1.815   3.236
23404SOL     OW71985   7.158   2.537  13.237
23404SOL    HW171986   7.098   2.574  13.301
23404SOL    HW271987   7.242   2.578  13.257
23405SOL     OW71988  13.790  11.983   1.321
23405SOL    HW171989  13.753  12.006   1.406
23405SOL    HW271990  13.858  12.049   1.305
23406SOL     OW71991   0.888  14.523   8.341
23406SOL    HW171992   0.867  14.615   8.356
23406SOL    HW271993   0.949  14.524   8.267
23407SOL     OW71994   2.436  12.612   5.231
23407SOL    HW171995   2.469  12.522   5.223
23407SOL    HW271996   2.486  12.663   5.168
23408SOL     OW71997   7.445   2.916   7.928
23408SOL    HW171998   7.448   2.903   7.833
23408SOL    HW271999   7.407   2.835   7.962
23409SOL     OW72000  10.505   3.043  13.804
23409SOL    HW172001  10.418   3.017  13.772
23409SOL    HW272002  10.555   3.062  13.725
23410SOL     OW72003  10.622   8.744   3.532
23410SOL    HW172004  10.617   8.710   3.621
23410SOL    HW272005  10.696   8.699   3.492
23411SOL     OW72006  14.620   6.915   2.165
23411SOL    HW172007  14.581   7.001   2.178
23411SOL    HW272008  14.551   6.853   2.189
23412SOL     OW72009   9.655   5.411  11.755
23412SOL    HW172010   9.679   5.449  11.671
23412SOL    HW272011   9.578   5.460  11.782
23413SOL     OW72012   3.932   7.197   5.221
23413SOL    HW172013   3.964   7.276   5.264
23413SOL    HW272014   3.973   7.199   5.134
23414SOL     OW72015   9.055   4.703  11.079
23414SOL    HW172016   9.006   4.629  11.116
23414SOL    HW272017   9.066   4.681  10.987
23415SOL     OW72018   9.641  12.880   5.462
23415SOL    HW172019   9.734  12.872   5.444
23415SOL    HW272020   9.621  12.809   5.523
23416SOL     OW72021   9.910   7.819   5.350
23416SOL    HW172022   9.973   7.858   5.411
23416SOL    HW272023   9.865   7.894   5.311
23417SOL     OW72024  10.809   4.799   3.389
23417SOL    HW172025  10.859   4.755   3.458
23417SOL    HW272026  10.759   4.729   3.347
23418SOL     OW72027   9.420   5.758  13.203
23418SOL    HW172028   9.358   5.814  13.156
23418SOL    HW272029   9.493   5.747  13.142
23419SOL     OW72030   3.870   7.713  11.145
23419SOL    HW172031   3.823   7.694  11.226
23419SOL    HW272032   3.883   7.808  11.147
23420SOL     OW72033  11.712   5.854   5.830
23420SOL    HW172034  11.722   5.766   5.865
23420SOL    HW272035  11.789   5.867   5.774
23421SOL     OW72036   8.460   5.542  12.187
23421SOL    HW172037   8.507   5.535  12.104
23421SOL    HW272038   8.373   5.574  12.162
23422SOL     OW72039   7.171  13.231   8.988
23422SOL    HW172040   7.077  13.243   9.002
23422SOL    HW272041   7.177  13.156   8.929
23423SOL     OW72042   2.458   1.032   9.062
23423SOL    HW172043   2.376   1.080   9.053
23423SOL    HW272044   2.480   1.037   9.155
23424SOL     OW72045   3.598   0.170   6.389
23424SOL    HW172046   3.649   0.150   6.468
23424SOL    HW272047   3.568   0.260   6.401
23425SOL     OW72048   6.268  13.558  14.787
23425SOL    HW172049   6.266  13.600  14.873
23425SOL    HW272050   6.301  13.626  14.728
23426SOL     OW72051   5.901   8.909   8.431
23426SOL    HW172052   5.808   8.931   8.434
23426SOL    HW272053   5.922   8.879   8.519
23427SOL     OW72054  11.553   3.049  12.690
23427SOL    HW172055  11.646   3.074  12.696
23427SOL    HW272056  11.539   2.991  12.765
23428SOL     OW72057   5.454   4.028   2.719
23428SOL    HW172058   5.472   3.948   2.669
23428SOL    HW272059   5.541   4.063   2.738
23429SOL     OW72060   9.850   4.267   9.716
23429SOL    HW172061   9.905   4.320   9.773
23429SOL    HW272062   9.902   4.189   9.697
23430SOL     OW72063  14.388   8.145   9.566
23430SOL    HW172064  14.314   8.116   9.619
23430SOL    HW272065  14.395   8.078   9.497
23431SOL     OW72066   4.637  12.729  11.891
23431SOL    HW172067   4.572  12.706  11.958
23431SOL    HW272068   4.693  12.794  11.934
23432SOL     OW72069   2.494   1.638   9.706
23432SOL    HW172070   2.406   1.674   9.718
23432SOL    HW272071   2.504   1.576   9.778
23433SOL     OW72072  13.966  14.045   8.933
23433SOL    HW172073  13.999  14.052   8.844
23433SOL    HW272074  13.879  14.087   8.930
23434SOL     OW72075   0.459   4.398  14.362
23434SOL    HW172076   0.543   4.353  14.366
23434SOL    HW272077   0.479   4.488  14.389
23435SOL     OW72078   1.394   9.067  10.567
23435SOL    HW172079   1.307   9.080  10.604
23435SOL    HW272080   1.447   9.036  10.640
23436SOL     OW72081   5.960   0.046   5.913
23436SOL    HW172082   5.986   0.119   5.856
23436SOL    HW272083   5.870   0.027   5.888
23437SOL     OW72084   1.716   9.561   8.096
23437SOL    HW172085   1.676   9.648   8.085
23437SOL    HW272086   1.692   9.514   8.016
23438SOL     OW72087   9.120   8.389  12.870
23438SOL    HW172088   9.131   8.481  12.893
23438SOL    HW272089   9.096   8.390  12.778
23439SOL     OW72090  13.043   9.407   5.867
23439SOL    HW172091  12.957   9.433   5.898
23439SOL    HW272092  13.094   9.488   5.866
23440SOL     OW72093   3.164  10.528   5.602
23440SOL    HW172094   3.217  10.492   5.673
23440SOL    HW272095   3.074  10.504   5.625
23441SOL     OW72096   4.424   9.014   8.057
23441SOL    HW172097   4.378   9.061   7.987
23441SOL    HW272098   4.355   8.979   8.113
23442SOL     OW72099   2.093   9.777  13.645
23442SOL    HW172100   2.142   9.857  13.666
23442SOL    HW272101   2.160   9.709  13.638
23443SOL     OW72102  11.638   6.489   0.514
23443SOL    HW172103  11.561   6.496   0.570
23443SOL    HW272104  11.704   6.542   0.558
23444SOL     OW72105   7.322   3.073   5.430
23444SOL    HW172106   7.289   3.141   5.371
23444SOL    HW272107   7.252   3.008   5.434
23445SOL     OW72108   5.624   2.132   8.104
23445SOL    HW172109   5.705   2.184   8.101
23445SOL    HW272110   5.556   2.196   8.126
23446SOL     OW72111   3.116   0.022   1.476
23446SOL    HW172112   3.021   0.037   1.468
23446SOL    HW272113   3.155   0.109   1.470
23447SOL     OW72114   6.706   9.969  14.333
23447SOL    HW172115   6.764   9.893  14.320
23447SOL    HW272116   6.751  10.023  14.398
23448SOL     OW72117   1.134   7.781   9.695
23448SOL    HW172118   1.098   7.805   9.609
23448SOL    HW272119   1.199   7.848   9.713
23449SOL     OW72120  14.102   7.722   1.692
23449SOL    HW172121  14.045   7.700   1.766
23449SOL    HW272122  14.090   7.815   1.678
23450SOL     OW72123   1.389   5.517   8.844
23450SOL    HW172124   1.321   5.541   8.907
23450SOL    HW272125   1.378   5.577   8.771
23451SOL     OW72126   3.124  10.049  11.747
23451SOL    HW172127   3.153  10.139  11.759
23451SOL    HW272128   3.144  10.030  11.655
23452SOL     OW72129   1.456   9.306   7.107
23452SOL    HW172130   1.394   9.358   7.057
23452SOL    HW272131   1.542   9.339   7.081
23453SOL     OW72132   0.191   5.892  14.485
23453SOL    HW172133   0.153   5.878  14.572
23453SOL    HW272134   0.124   5.858  14.424
23454SOL     OW72135   6.247   6.610   8.598
23454SOL    HW172136   6.337   6.640   8.595
23454SOL    HW272137   6.229   6.599   8.692
23455SOL     OW72138  13.798  11.235   6.585
23455SOL    HW172139  13.801  11.252   6.680
23455SOL    HW272140  13.767  11.145   6.579
23456SOL     OW72141  12.290   2.338  10.328
23456SOL    HW172142  12.292   2.422  10.281
23456SOL    HW272143  12.199   2.311  10.324
23457SOL     OW72144   8.083   3.936  12.541
23457SOL    HW172145   8.013   3.996  12.567
23457SOL    HW272146   8.147   3.992  12.497
23458SOL     OW72147   0.828   3.834  13.389
23458SOL    HW172148   0.798   3.894  13.321
23458SOL    HW272149   0.753   3.776  13.405
23459SOL     OW72150   6.236  10.957  11.887
23459SOL    HW172151   6.155  10.926  11.846
23459SOL    HW272152   6.246  10.903  11.965
23460SOL     OW72153   5.463   3.496  11.617
23460SOL    HW172154   5.472   3.506  11.522
23460SOL    HW272155   5.527   3.557  11.654
23461SOL     OW72156   3.548  10.469  11.440
23461SOL    HW172157   3.500  10.394  11.475
23461SOL    HW272158   3.487  10.543  11.450
23462SOL     OW72159   5.924  12.119   8.098
23462SOL    HW172160   5.980  12.171   8.157
23462SOL    HW272161   5.962  12.031   8.101
23463SOL     OW72162  13.219  10.478   3.827
23463SOL    HW172163  13.305  10.480   3.868
23463SOL    HW272164  13.199  10.385   3.818
23464SOL     OW72165   1.395   1.869  13.965
23464SOL    HW172166   1.389   1.871  13.870
23464SOL    HW272167   1.307   1.888  13.996
23465SOL     OW72168   5.075   4.494  13.958
23465SOL    HW172169   5.125   4.539  14.026
23465SOL    HW272170   5.038   4.417  14.002
23466SOL     OW72171   5.371   2.220   5.852
23466SOL    HW172172   5.431   2.234   5.926
23466SOL    HW272173   5.336   2.132   5.866
23467SOL     OW72174   3.431  13.504  11.325
23467SOL    HW172175   3.445  13.410  11.318
23467SOL    HW272176   3.339  13.516  11.303
23468SOL     OW72177   4.852   4.141  10.492
23468SOL    HW172178   4.832   4.101  10.577
23468SOL    HW272179   4.766   4.150  10.450
23469SOL     OW72180   1.007   3.702   6.093
23469SOL    HW172181   1.097   3.724   6.069
23469SOL    HW272182   1.008   3.692   6.188
23470SOL     OW72183   6.867   0.308   7.806
23470SOL    HW172184   6.783   0.277   7.772
23470SOL    HW272185   6.925   0.306   7.731
23471SOL     OW72186   2.426   8.058   9.018
23471SOL    HW172187   2.447   8.003   8.943
23471SOL    HW272188   2.335   8.036   9.039
23472SOL     OW72189   4.598   1.591  13.871
23472SOL    HW172190   4.690   1.579  13.893
23472SOL    HW272191   4.577   1.679  13.903
23473SOL     OW72192   8.975   3.419  14.644
23473SOL    HW172193   8.940   3.341  14.685
23473SOL    HW272194   8.935   3.422  14.558
23474SOL     OW72195   7.384   3.295   2.272
23474SOL    HW172196   7.319   3.244   2.322
23474SOL    HW272197   7.382   3.256   2.185
23475SOL     OW72198  12.997   0.909   4.453
23475SOL    HW172199  13.054   0.977   4.489
23475SOL    HW272200  13.049   0.870   4.382
23476SOL     OW72201   2.208   5.214   6.719
23476SOL    HW172202   2.156   5.151   6.669
23476SOL    HW272203   2.160   5.297   6.711
23477SOL     OW72204  10.341   4.598   6.827
23477SOL    HW172205  10.298   4.574   6.745
23477SOL    HW272206  10.272   4.639   6.880
23478SOL     OW72207   1.621  13.968  14.442
23478SOL    HW172208   1.559  13.925  14.500
23478SOL    HW272209   1.679  14.017  14.500
23479SOL     OW72210   6.913   5.427   1.850
23479SOL    HW172211   6.908   5.496   1.916
23479SOL    HW272212   6.900   5.346   1.900
23480SOL     OW72213   0.152   5.091   8.275
23480SOL    HW172214   0.118   5.106   8.363
23480SOL    HW272215   0.114   5.161   8.222
23481SOL     OW72216  11.350   6.203   4.403
23481SOL    HW172217  11.371   6.199   4.497
23481SOL    HW272218  11.403   6.275   4.370
23482SOL     OW72219  12.820   1.104  10.898
23482SOL    HW172220  12.820   1.165  10.824
23482SOL    HW272221  12.738   1.121  10.943
23483SOL     OW72222  13.331  14.512  12.236
23483SOL    HW172223  13.416  14.475  12.261
23483SOL    HW272224  13.353  14.593  12.190
23484SOL     OW72225   6.168   7.907   0.616
23484SOL    HW172226   6.187   7.962   0.540
23484SOL    HW272227   6.075   7.886   0.607
23485SOL     OW72228  10.825   8.419   6.170
23485SOL    HW172229  10.803   8.512   6.166
23485SOL    HW272230  10.907   8.415   6.219
23486SOL     OW72231  12.081   8.988   1.344
23486SOL    HW172232  12.013   9.045   1.306
23486SOL    HW272233  12.146   8.978   1.275
23487SOL     OW72234   6.102   3.264   4.995
23487SOL    HW172235   6.010   3.293   4.999
23487SOL    HW272236   6.097   3.168   4.992
23488SOL     OW72237  10.170   6.438   3.602
23488SOL    HW172238  10.201   6.504   3.540
23488SOL    HW272239  10.238   6.435   3.669
23489SOL     OW72240   2.804  13.088  12.433
23489SOL    HW172241   2.863  13.015  12.454
23489SOL    HW272242   2.718  13.058  12.464
23490SOL     OW72243  12.701  14.008   4.361
23490SOL    HW172244  12.787  14.051   4.358
23490SOL    HW272245  12.656  14.038   4.282
23491SOL     OW72246  13.030  13.476   6.531
23491SOL    HW172247  12.948  13.525   6.521
23491SOL    HW272248  13.002  13.387   6.551
23492SOL     OW72249   0.301  11.365  14.155
23492SOL    HW172250   0.238  11.304  14.193
23492SOL    HW272251   0.387  11.327  14.175
23493SOL     OW72252  11.851   7.095  12.729
23493SOL    HW172253  11.931   7.145  12.716
23493SOL    HW272254  11.786   7.140  12.675
23494SOL     OW72255  14.372   8.051   7.490
23494SOL    HW172256  14.278   8.047   7.472
23494SOL    HW272257  14.413   8.021   7.409
23495SOL     OW72258  10.480   8.772  10.723
23495SOL    HW172259  10.505   8.697  10.776
23495SOL    HW272260  10.421   8.736  10.657
23496SOL     OW72261   8.563  13.188   6.361
23496SOL    HW172262   8.608  13.223   6.438
23496SOL    HW272263   8.546  13.097   6.383
23497SOL     OW72264   4.335   7.146   5.412
23497SOL    HW172265   4.245   7.129   5.442
23497SOL    HW272266   4.386   7.075   5.450
23498SOL     OW72267   4.665  12.574   0.004
23498SOL    HW172268   4.597  12.575  14.818
23498SOL    HW272269   4.696  12.665   0.009
23499SOL     OW72270   1.475   3.874   4.652
23499SOL    HW172271   1.559   3.828   4.654
23499SOL    HW272272   1.497   3.964   4.677
23500SOL     OW72273   3.542  13.471   3.818
23500SOL    HW172274   3.483  13.546   3.818
23500SOL    HW272275   3.595  13.482   3.739
23501SOL     OW72276  10.548   4.670   8.757
23501SOL    HW172277  10.511   4.584   8.736
23501SOL    HW272278  10.499   4.700   8.833
23502SOL     OW72279   2.721   9.727  12.415
23502SOL    HW172280   2.766   9.706  12.497
23502SOL    HW272281   2.648   9.783  12.442
23503SOL     OW72282  14.347   6.277  10.290
23503SOL    HW172283  14.436   6.243  10.287
23503SOL    HW272284  14.358   6.372  10.303
23504SOL     OW72285  12.859  10.890   1.968
23504SOL    HW172286  12.775  10.923   1.934
23504SOL    HW272287  12.895  10.839   1.896
23505SOL     OW72288   6.142   4.544   4.680
23505SOL    HW172289   6.063   4.492   4.695
23505SOL    HW272290   6.128   4.625   4.729
23506SOL     OW72291  13.997   2.789   4.037
23506SOL    HW172292  13.937   2.860   4.064
23506SOL    HW272293  13.996   2.728   4.110
23507SOL     OW72294  10.997   2.449   0.123
23507SOL    HW172295  10.933   2.519   0.130
23507SOL    HW272296  11.051   2.474   0.047
23508SOL     OW72297   5.583  10.086   7.572
23508SOL    HW172298   5.524  10.021   7.533
23508SOL    HW272299   5.577  10.161   7.513
23509SOL     OW72300  11.531   4.716  10.387
23509SOL    HW172301  11.548   4.796  10.338
23509SOL    HW272302  11.441   4.693  10.365
23510SOL     OW72303  12.506  14.419  14.530
23510SOL    HW172304  12.456  14.485  14.482
23510SOL    HW272305  12.566  14.383  14.465
23511SOL     OW72306   8.884  10.072   6.559
23511SOL    HW172307   8.952  10.110   6.614
23511SOL    HW272308   8.902   9.978   6.560
23512SOL     OW72309   6.136   6.554   4.642
23512SOL    HW172310   6.114   6.582   4.731
23512SOL    HW272311   6.223   6.591   4.627
23513SOL     OW72312   0.529   6.959   9.458
23513SOL    HW172313   0.603   6.978   9.400
23513SOL    HW272314   0.538   6.866   9.479
23514SOL     OW72315   5.403   9.823   5.333
23514SOL    HW172316   5.479   9.846   5.280
23514SOL    HW272317   5.373   9.907   5.370
23515SOL     OW72318   8.714   8.292   5.236
23515SOL    HW172319   8.687   8.222   5.295
23515SOL    HW272320   8.678   8.371   5.275
23516SOL     OW72321   6.370   6.776  13.478
23516SOL    HW172322   6.331   6.730  13.404
23516SOL    HW272323   6.458   6.738  13.486
23517SOL     OW72324   1.451   8.013  13.197
23517SOL    HW172325   1.477   7.931  13.156
23517SOL    HW272326   1.400   7.987  13.274
23518SOL     OW72327   6.213   0.393   1.734
23518SOL    HW172328   6.250   0.390   1.823
23518SOL    HW272329   6.182   0.483   1.725
23519SOL     OW72330  14.771  12.758  13.743
23519SOL    HW172331  14.702  12.743  13.679
23519SOL    HW272332  14.761  12.687  13.806
23520SOL     OW72333  12.909   9.529   2.306
23520SOL    HW172334  12.941   9.617   2.325
23520SOL    HW272335  12.960   9.471   2.363
23521SOL     OW72336  13.252  10.147   6.052
23521SOL    HW172337  13.269  10.076   6.114
23521SOL    HW272338  13.320  10.212   6.070
23522SOL     OW72339   6.307   2.941   6.946
23522SOL    HW172340   6.244   2.878   6.912
23522SOL    HW272341   6.356   2.893   7.013
23523SOL     OW72342  14.441  13.502   8.346
23523SOL    HW172343  14.360  13.452   8.334
23523SOL    HW272344  14.477  13.470   8.428
23524SOL     OW72345   1.668   8.907   7.384
23524SOL    HW172346   1.641   8.917   7.475
23524SOL    HW272347   1.757   8.942   7.381
23525SOL     OW72348   3.060  12.387   2.227
23525SOL    HW172349   3.045  12.432   2.144
23525SOL    HW272350   2.982  12.334   2.239
23526SOL     OW72351  11.327   5.084   7.282
23526SOL    HW172352  11.369   5.012   7.236
23526SOL    HW272353  11.251   5.045   7.325
23527SOL     OW72354   2.628  11.375  13.021
23527SOL    HW172355   2.592  11.461  12.999
23527SOL    HW272356   2.708  11.368  12.968
23528SOL     OW72357   2.553  14.522   4.939
23528SOL    HW172358   2.625  14.531   4.877
23528SOL    HW272359   2.540  14.427   4.947
23529SOL     OW72360  13.168  12.004   9.758
23529SOL    HW172361  13.202  12.078   9.808
23529SOL    HW272362  13.240  11.941   9.757
23530SOL     OW72363   1.844  13.607   0.368
23530SOL    HW172364   1.925  13.587   0.415
23530SOL    HW272365   1.775  13.587   0.430
23531SOL     OW72366   7.069  10.216  10.894
23531SOL    HW172367   6.976  10.219  10.875
23531SOL    HW272368   7.075  10.165  10.976
23532SOL     OW72369  14.545   3.623   7.208
23532SOL    HW172370  14.555   3.616   7.303
23532SOL    HW272371  14.635   3.627   7.175
23533SOL     OW72372   6.963   9.339   2.879
23533SOL    HW172373   6.970   9.275   2.807
23533SOL    HW272374   7.043   9.390   2.873
23534SOL     OW72375   9.200   9.515   7.199
23534SOL    HW172376   9.184   9.457   7.274
23534SOL    HW272377   9.135   9.488   7.134
23535SOL     OW72378   4.172   2.565   5.179
23535SOL    HW172379   4.084   2.531   5.160
23535SOL    HW272380   4.157   2.635   5.243
23536SOL     OW72381   4.205   6.476   9.999
23536SOL    HW172382   4.133   6.528  10.034
23536SOL    HW272383   4.165   6.422   9.931
23537SOL     OW72384   4.478   9.519   0.275
23537SOL    HW172385   4.440   9.437   0.308
23537SOL    HW272386   4.519   9.495   0.192
23538SOL     OW72387   8.799   0.352  14.153
23538SOL    HW172388   8.801   0.265  14.113
23538SOL    HW272389   8.888   0.365  14.186
23539SOL     OW72390   7.758  14.582  12.239
23539SOL    HW172391   7.673  14.575  12.196
23539SOL    HW272392   7.809  14.509  12.204
23540SOL     OW72393   3.252   5.171   5.989
23540SOL    HW172394   3.309   5.122   5.930
23540SOL    HW272395   3.179   5.199   5.934
23541SOL     OW72396   3.314   6.334  12.235
23541SOL    HW172397   3.280   6.423  12.225
23541SOL    HW272398   3.409   6.344  12.236
23542SOL     OW72399  10.566   7.756   7.500
23542SOL    HW172400  10.571   7.697   7.575
23542SOL    HW272401  10.574   7.699   7.424
23543SOL     OW72402   0.192  12.632   3.540
23543SOL    HW172403   0.196  12.667   3.451
23543SOL    HW272404   0.114  12.671   3.578
23544SOL     OW72405   1.932  11.579   7.352
23544SOL    HW172406   1.938  11.515   7.423
23544SOL    HW272407   1.908  11.528   7.275
23545SOL     OW72408  12.210  14.436  13.541
23545SOL    HW172409  12.188  14.345  13.522
23545SOL    HW272410  12.283  14.432  13.603
23546SOL     OW72411   9.193   9.105   1.348
23546SOL    HW172412   9.221   9.187   1.307
23546SOL    HW272413   9.136   9.132   1.420
23547SOL     OW72414   5.840  10.887   2.803
23547SOL    HW172415   5.933  10.876   2.785
23547SOL    HW272416   5.833  10.872   2.898
23548SOL     OW72417   6.793   9.906  10.051
23548SOL    HW172418   6.847   9.828  10.064
23548SOL    HW272419   6.705   9.879  10.080
23549SOL     OW72420   0.759   4.076   6.636
23549SOL    HW172421   0.701   4.009   6.598
23549SOL    HW272422   0.799   4.118   6.560
23550SOL     OW72423   9.891   2.833  14.732
23550SOL    HW172424   9.816   2.810  14.788
23550SOL    HW272425   9.921   2.749  14.698
23551SOL     OW72426  11.599  14.326  12.420
23551SOL    HW172427  11.512  14.366  12.422
23551SOL    HW272428  11.581  14.232  12.420
23552SOL     OW72429   5.726  11.173   0.293
23552SOL    HW172430   5.770  11.149   0.374
23552SOL    HW272431   5.748  11.103   0.232
23553SOL     OW72432   7.055  10.512   0.654
23553SOL    HW172433   7.057  10.595   0.703
23553SOL    HW272434   6.965  10.481   0.663
23554SOL     OW72435  12.368  12.784   9.541
23554SOL    HW172436  12.328  12.798   9.627
23554SOL    HW272437  12.308  12.826   9.479
23555SOL     OW72438   5.501   0.634  14.454
23555SOL    HW172439   5.489   0.544  14.424
23555SOL    HW272440   5.430   0.647  14.518
23556SOL     OW72441   8.423   5.774   6.773
23556SOL    HW172442   8.442   5.727   6.692
23556SOL    HW272443   8.484   5.738   6.837
23557SOL     OW72444   4.345   9.373   6.775
23557SOL    HW172445   4.421   9.372   6.716
23557SOL    HW272446   4.382   9.362   6.862
23558SOL     OW72447   3.541   4.084  11.565
23558SOL    HW172448   3.616   4.030  11.589
23558SOL    HW272449   3.548   4.161  11.622
23559SOL     OW72450   2.444   0.717  11.719
23559SOL    HW172451   2.374   0.655  11.699
23559SOL    HW272452   2.459   0.763  11.636
23560SOL     OW72453  12.185  13.345  10.884
23560SOL    HW172454  12.225  13.396  10.954
23560SOL    HW272455  12.160  13.262  10.926
23561SOL     OW72456   4.093   4.308  13.799
23561SOL    HW172457   4.109   4.216  13.777
23561SOL    HW272458   4.170   4.335  13.848
23562SOL     OW72459   2.878   0.499   0.482
23562SOL    HW172460   2.938   0.425   0.468
23562SOL    HW272461   2.927   0.576   0.453
23563SOL     OW72462   5.832  13.997   3.155
23563SOL    HW172463   5.832  13.929   3.088
23563SOL    HW272464   5.744  13.994   3.193
23564SOL     OW72465   8.775   3.369  11.721
23564SOL    HW172466   8.809   3.433  11.782
23564SOL    HW272467   8.799   3.284  11.758
23565SOL     OW72468   0.810   9.563  13.085
23565SOL    HW172469   0.754   9.639  13.100
23565SOL    HW272470   0.851   9.547  13.170
23566SOL     OW72471  10.936   6.279   0.807
23566SOL    HW172472  10.855   6.275   0.756
23566SOL    HW272473  10.997   6.327   0.751
23567SOL     OW72474   6.743   9.887   6.098
23567SOL    HW172475   6.677   9.851   6.039
23567SOL    HW272476   6.747   9.824   6.170
23568SOL     OW72477  14.631  12.009   2.089
23568SOL    HW172478  14.633  12.080   2.153
23568SOL    HW272479  14.549  11.962   2.107
23569SOL     OW72480   3.622  12.628  13.589
23569SOL    HW172481   3.648  12.614  13.680
23569SOL    HW272482   3.635  12.722  13.575
23570SOL     OW72483  12.462  10.114   8.281
23570SOL    HW172484  12.442  10.207   8.291
23570SOL    HW272485  12.539  10.111   8.225
23571SOL     OW72486   6.050   6.857   1.508
23571SOL    HW172487   6.092   6.851   1.593
23571SOL    HW272488   6.087   6.935   1.467
23572SOL     OW72489   3.659   1.808   8.948
23572SOL    HW172490   3.656   1.904   8.957
23572SOL    HW272491   3.697   1.794   8.861
23573SOL     OW72492   7.297   4.468  10.400
23573SOL    HW172493   7.384   4.429  10.390
23573SOL    HW272494   7.278   4.461  10.493
23574SOL     OW72495   1.176   8.745   4.208
23574SOL    HW172496   1.110   8.696   4.161
23574SOL    HW272497   1.252   8.686   4.213
23575SOL     OW72498   7.383   1.625  10.165
23575SOL    HW172499   7.304   1.574  10.183
23575SOL    HW272500   7.381   1.640  10.070
23576SOL     OW72501  12.151   6.760  10.267
23576SOL    HW172502  12.111   6.844  10.289
23576SOL    HW272503  12.113   6.737  10.182
23577SOL     OW72504   1.622   7.328  12.334
23577SOL    HW172505   1.615   7.243  12.292
23577SOL    HW272506   1.562   7.385  12.286
23578SOL     OW72507   9.101   8.577   9.648
23578SOL    HW172508   9.182   8.625   9.665
23578SOL    HW272509   9.116   8.535   9.563
23579SOL     OW72510   5.944   1.612  13.188
23579SOL    HW172511   5.874   1.561  13.228
23579SOL    HW272512   6.020   1.555  13.189
23580SOL     OW72513   5.477   2.485   1.163
23580SOL    HW172514   5.526   2.407   1.188
23580SOL    HW272515   5.409   2.493   1.230
23581SOL     OW72516   5.352   6.451   3.544
23581SOL    HW172517   5.432   6.501   3.528
23581SOL    HW272518   5.315   6.435   3.458
23582SOL     OW72519   3.149   1.027   9.531
23582SOL    HW172520   3.109   1.019   9.444
23582SOL    HW272521   3.187   1.115   9.531
23583SOL     OW72522  12.999  13.124   9.568
23583SOL    HW172523  12.969  13.214   9.557
23583SOL    HW272524  13.095  13.131   9.567
23584SOL     OW72525  14.156   8.888   7.863
23584SOL    HW172526  14.171   8.803   7.903
23584SOL    HW272527  14.095   8.932   7.922
23585SOL     OW72528  12.426   3.531   0.328
23585SOL    HW172529  12.502   3.532   0.386
23585SOL    HW272530  12.378   3.452   0.353
23586SOL     OW72531   9.150   5.278   7.170
23586SOL    HW172532   9.199   5.338   7.226
23586SOL    HW272533   9.200   5.196   7.172
23587SOL     OW72534   0.608   8.570  13.256
23587SOL    HW172535   0.523   8.529  13.271
23587SOL    HW272536   0.623   8.560  13.162
23588SOL     OW72537   2.160  10.618   1.272
23588SOL    HW172538   2.082  10.650   1.317
23588SOL    HW272539   2.127  10.559   1.205
23589SOL     OW72540   4.128  13.246   2.374
23589SOL    HW172541   4.140  13.208   2.461
23589SOL    HW272542   4.033  13.242   2.359
23590SOL     OW72543   4.254  11.349   7.112
23590SOL    HW172544   4.300  11.419   7.159
23590SOL    HW272545   4.227  11.287   7.181
23591SOL     OW72546   0.254   6.527  10.049
23591SOL    HW172547   0.161   6.545  10.046
23591SOL    HW272548   0.293   6.608  10.083
23592SOL     OW72549   2.709  10.400  12.174
23592SOL    HW172550   2.659  10.450  12.238
23592SOL    HW272551   2.732  10.319  12.220
23593SOL     OW72552   7.135   7.283  12.003
23593SOL    HW172553   7.162   7.332  12.081
23593SOL    HW272554   7.180   7.199  12.010
23594SOL     OW72555   9.065   4.700   4.609
23594SOL    HW172556   9.065   4.722   4.516
23594SOL    HW272557   8.996   4.635   4.618
23595SOL     OW72558   3.612  10.176   5.757
23595SOL    HW172559   3.565  10.143   5.832
23595SOL    HW272560   3.643  10.098   5.711
23596SOL     OW72561   0.347   2.209  14.107
23596SOL    HW172562   0.264   2.249  14.083
23596SOL    HW272563   0.389   2.189  14.024
23597SOL     OW72564   0.704   1.141  13.560
23597SOL    HW172565   0.649   1.065  13.578
23597SOL    HW272566   0.732   1.128  13.469
23598SOL     OW72567   3.978   9.544   4.765
23598SOL    HW172568   3.895   9.590   4.747
23598SOL    HW272569   3.981   9.475   4.699
23599SOL     OW72570   8.203   6.161  14.718
23599SOL    HW172571   8.124   6.136  14.669
23599SOL    HW272572   8.170   6.191  14.803
23600SOL     OW72573   5.111  10.381   1.794
23600SOL    HW172574   5.092  10.287   1.791
23600SOL    HW272575   5.029  10.421   1.823
23601SOL     OW72576   8.794  14.582   4.022
23601SOL    HW172577   8.843  14.515   4.071
23601SOL    HW272578   8.844  14.595   3.942
23602SOL     OW72579   4.946   1.443  13.688
23602SOL    HW172580   5.021   1.471  13.636
23602SOL    HW272581   4.872   1.445  13.627
23603SOL     OW72582   3.602   1.800   5.951
23603SOL    HW172583   3.594   1.879   6.005
23603SOL    HW272584   3.558   1.732   6.002
23604SOL     OW72585  13.642  10.574   0.371
23604SOL    HW172586  13.627  10.634   0.297
23604SOL    HW272587  13.727  10.601   0.406
23605SOL     OW72588   3.238   8.434  14.256
23605SOL    HW172589   3.214   8.405  14.344
23605SOL    HW272590   3.198   8.520  14.247
23606SOL     OW72591  10.907  11.898   5.752
23606SOL    HW172592  10.817  11.893   5.719
23606SOL    HW272593  10.904  11.853   5.837
23607SOL     OW72594  13.978   5.138   3.708
23607SOL    HW172595  13.903   5.196   3.693
23607SOL    HW272596  14.053   5.188   3.675
23608SOL     OW72597   5.992  13.196   7.008
23608SOL    HW172598   6.023  13.258   7.074
23608SOL    HW272599   5.983  13.113   7.055
23609SOL     OW72600  10.607  14.862   4.332
23609SOL    HW172601  10.622   0.063   4.287
23609SOL    HW272602  10.543   0.001   4.400
23610SOL     OW72603  13.418   1.678   0.755
23610SOL    HW172604  13.376   1.751   0.801
23610SOL    HW272605  13.368   1.669   0.674
23611SOL     OW72606   4.640  14.447  11.716
23611SOL    HW172607   4.732  14.448  11.741
23611SOL    HW272608   4.614  14.539  11.715
23612SOL     OW72609   8.661  11.432   7.323
23612SOL    HW172610   8.608  11.512   7.334
23612SOL    HW272611   8.692  11.412   7.411
23613SOL     OW72612  12.666  14.647   9.562
23613SOL    HW172613  12.723  14.684   9.495
23613SOL    HW272614  12.722  14.586   9.611
23614SOL     OW72615   4.300   9.523   0.818
23614SOL    HW172616   4.294   9.579   0.896
23614SOL    HW272617   4.393   9.500   0.812
23615SOL     OW72618   6.875   1.445  12.630
23615SOL    HW172619   6.855   1.374  12.568
23615SOL    HW272620   6.924   1.508  12.578
23616SOL     OW72621   3.086   5.490  14.349
23616SOL    HW172622   3.040   5.566  14.384
23616SOL    HW272623   3.024   5.418  14.359
23617SOL     OW72624  10.939  11.345   4.634
23617SOL    HW172625  10.997  11.396   4.689
23617SOL    HW272626  10.959  11.254   4.656
23618SOL     OW72627   6.141   9.968   9.513
23618SOL    HW172628   6.222   9.947   9.560
23618SOL    HW272629   6.117  10.056   9.545
23619SOL     OW72630   6.444   0.486   3.611
23619SOL    HW172631   6.472   0.401   3.578
23619SOL    HW272632   6.525   0.535   3.626
23620SOL     OW72633   6.613   8.841   9.986
23620SOL    HW172634   6.529   8.838   9.941
23620SOL    HW272635   6.597   8.799  10.070
23621SOL     OW72636   7.563   9.097  12.858
23621SOL    HW172637   7.517   9.180  12.847
23621SOL    HW272638   7.649   9.112  12.818
23622SOL     OW72639  10.160   9.316   6.367
23622SOL    HW172640  10.255   9.327   6.378
23622SOL    HW272641  10.132   9.272   6.447
23623SOL     OW72642   3.777   3.825   1.545
23623SOL    HW172643   3.847   3.843   1.607
23623SOL    HW272644   3.808   3.862   1.462
23624SOL     OW72645  10.835   5.418   1.652
23624SOL    HW172646  10.870   5.331   1.675
23624SOL    HW272647  10.878   5.478   1.713
23625SOL     OW72648   6.014   1.256   3.884
23625SOL    HW172649   6.012   1.348   3.911
23625SOL    HW272650   5.934   1.219   3.924
23626SOL     OW72651   2.832  12.365   6.510
23626SOL    HW172652   2.756  12.310   6.530
23626SOL    HW272653   2.799  12.454   6.516
23627SOL     OW72654   6.192   5.993  13.916
23627SOL    HW172655   6.192   5.945  13.999
23627SOL    HW272656   6.163   5.930  13.851
23628SOL     OW72657   2.395  13.776   4.795
23628SOL    HW172658   2.432  13.813   4.715
23628SOL    HW272659   2.459  13.710   4.822
23629SOL     OW72660   1.786   3.922   4.557
23629SOL    HW172661   1.736   3.909   4.476
23629SOL    HW272662   1.803   4.016   4.560
23630SOL     OW72663   0.267   1.807   2.819
23630SOL    HW172664   0.244   1.723   2.860
23630SOL    HW272665   0.183   1.842   2.788
23631SOL     OW72666   7.205   0.167  12.686
23631SOL    HW172667   7.210   0.077  12.655
23631SOL    HW272668   7.120   0.173  12.729
23632SOL     OW72669  11.957   6.027   4.543
23632SOL    HW172670  11.916   6.063   4.464
23632SOL    HW272671  11.962   6.102   4.603
23633SOL     OW72672  11.306  10.536   1.360
23633SOL    HW172673  11.344  10.559   1.275
23633SOL    HW272674  11.222  10.496   1.338
23634SOL     OW72675   9.944  12.948   0.573
23634SOL    HW172676  10.005  12.896   0.625
23634SOL    HW272677   9.864  12.951   0.625
23635SOL     OW72678  14.311   8.742   0.407
23635SOL    HW172679  14.247   8.807   0.376
23635SOL    HW272680  14.308   8.673   0.340
23636SOL     OW72681   8.634   7.622   8.246
23636SOL    HW172682   8.675   7.572   8.175
23636SOL    HW272683   8.560   7.665   8.204
23637SOL     OW72684   8.398   0.197  13.758
23637SOL    HW172685   8.400   0.240  13.844
23637SOL    HW272686   8.382   0.268  13.696
23638SOL     OW72687   7.455  11.225   5.085
23638SOL    HW172688   7.467  11.294   5.019
23638SOL    HW272689   7.532  11.169   5.075
23639SOL     OW72690   1.374   7.233   1.916
23639SOL    HW172691   1.373   7.140   1.894
23639SOL    HW272692   1.457   7.265   1.880
23640SOL     OW72693  10.370  13.086  11.496
23640SOL    HW172694  10.432  13.094  11.423
23640SOL    HW272695  10.304  13.024  11.463
23641SOL     OW72696   8.409   2.456   6.929
23641SOL    HW172697   8.462   2.534   6.945
23641SOL    HW272698   8.433   2.428   6.840
23642SOL     OW72699   0.179  10.972   6.471
23642SOL    HW172700   0.193  10.969   6.376
23642SOL    HW272701   0.098  11.021   6.481
23643SOL     OW72702  11.063   0.883   1.714
23643SOL    HW172703  11.092   0.830   1.640
23643SOL    HW272704  11.004   0.947   1.675
23644SOL     OW72705   7.297  10.779   7.357
23644SOL    HW172706   7.365  10.713   7.372
23644SOL    HW272707   7.345  10.862   7.353
23645SOL     OW72708   1.166   7.406   5.276
23645SOL    HW172709   1.167   7.315   5.304
23645SOL    HW272710   1.080   7.418   5.236
23646SOL     OW72711  12.441   6.880   4.688
23646SOL    HW172712  12.422   6.830   4.609
23646SOL    HW272713  12.369   6.942   4.695
23647SOL     OW72714  12.958  12.368   2.627
23647SOL    HW172715  12.990  12.277   2.625
23647SOL    HW272716  12.898  12.370   2.701
23648SOL     OW72717   8.598   0.975  13.031
23648SOL    HW172718   8.643   0.896  13.059
23648SOL    HW272719   8.505   0.957  13.046
23649SOL     OW72720  13.369   2.389   2.745
23649SOL    HW172721  13.318   2.342   2.679
23649SOL    HW272722  13.427   2.322   2.782
23650SOL     OW72723  11.602   7.341   9.954
23650SOL    HW172724  11.686   7.293   9.947
23650SOL    HW272725  11.543   7.278   9.995
23651SOL     OW72726   5.217   3.836   0.621
23651SOL    HW172727   5.127   3.808   0.604
23651SOL    HW272728   5.215   3.870   0.710
23652SOL     OW72729  13.930   9.115   1.090
23652SOL    HW172730  14.019   9.092   1.063
23652SOL    HW272731  13.939   9.203   1.127
23653SOL     OW72732   3.434   4.251   2.437
23653SOL    HW172733   3.510   4.309   2.446
23653SOL    HW272734   3.462   4.169   2.476
23654SOL     OW72735   6.080  12.760   8.344
23654SOL    HW172736   6.009  12.734   8.285
23654SOL    HW272737   6.038  12.770   8.429
23655SOL     OW72738  13.399   5.064   9.464
23655SOL    HW172739  13.345   5.060   9.385
23655SOL    HW272740  13.470   5.002   9.448
23656SOL     OW72741   3.228   9.209   5.688
23656SOL    HW172742   3.276   9.283   5.650
23656SOL    HW272743   3.272   9.191   5.770
23657SOL     OW72744   9.869   8.505   0.150
23657SOL    HW172745   9.901   8.479   0.063
23657SOL    HW272746   9.775   8.487   0.147
23658SOL     OW72747   4.492   8.974   0.364
23658SOL    HW172748   4.560   8.916   0.332
23658SOL    HW272749   4.488   9.045   0.300
23659SOL     OW72750   2.373  14.077   1.157
23659SOL    HW172751   2.419  13.994   1.168
23659SOL    HW272752   2.281  14.052   1.148
23660SOL     OW72753   0.397   6.707   6.568
23660SOL    HW172754   0.333   6.643   6.599
23660SOL    HW272755   0.368   6.790   6.605
23661SOL     OW72756  12.333   0.651   1.867
23661SOL    HW172757  12.250   0.687   1.899
23661SOL    HW272758  12.397   0.720   1.882
23662SOL     OW72759  10.265  11.853   4.556
23662SOL    HW172760  10.243  11.791   4.486
23662SOL    HW272761  10.253  11.803   4.637
23663SOL     OW72762  10.072  14.319  10.193
23663SOL    HW172763  10.122  14.399  10.175
23663SOL    HW272764   9.983  14.338  10.161
23664SOL     OW72765   1.493   8.947   4.629
23664SOL    HW172766   1.499   9.042   4.635
23664SOL    HW272767   1.565   8.922   4.571
23665SOL     OW72768   9.258   5.123  10.907
23665SOL    HW172769   9.334   5.152  10.857
23665SOL    HW272770   9.232   5.041  10.864
23666SOL     OW72771  14.774  11.032   3.816
23666SOL    HW172772  14.808  11.119   3.837
23666SOL    HW272773  14.814  11.011   3.731
23667SOL     OW72774   6.782   4.516  10.755
23667SOL    HW172775   6.851   4.456  10.783
23667SOL    HW272776   6.781   4.584  10.822
23668SOL     OW72777  13.769   8.772  12.459
23668SOL    HW172778  13.849   8.822  12.476
23668SOL    HW272779  13.762   8.712  12.532
23669SOL     OW72780   8.385   7.805   5.117
23669SOL    HW172781   8.303   7.767   5.088
23669SOL    HW272782   8.449   7.780   5.050
23670SOL     OW72783   3.633   5.592   0.458
23670SOL    HW172784   3.591   5.644   0.526
23670SOL    HW272785   3.560   5.548   0.413
23671SOL     OW72786  11.588   9.880  10.083
23671SOL    HW172787  11.613   9.888   9.991
23671SOL    HW272788  11.505   9.928  10.090
23672SOL     OW72789  10.154   3.266  14.875
23672SOL    HW172790  10.232   3.211   0.004
23672SOL    HW272791  10.082   3.205  14.862
23673SOL     OW72792   1.374   9.733  13.216
23673SOL    HW172793   1.307   9.801  13.225
23673SOL    HW272794   1.367   9.681  13.296
23674SOL     OW72795  12.803  13.091   9.057
23674SOL    HW172796  12.797  13.032   8.982
23674SOL    HW272797  12.883  13.142   9.042
23675SOL     OW72798   1.772   8.089   9.832
23675SOL    HW172799   1.779   8.044   9.748
23675SOL    HW272800   1.678   8.096   9.848
23676SOL     OW72801   4.804  13.613  14.403
23676SOL    HW172802   4.834  13.585  14.490
23676SOL    HW272803   4.882  13.607  14.348
23677SOL     OW72804   3.215   6.944   6.930
23677SOL    HW172805   3.292   6.889   6.919
23677SOL    HW272806   3.203   6.952   7.024
23678SOL     OW72807   2.724   5.388  10.090
23678SOL    HW172808   2.739   5.299  10.057
23678SOL    HW272809   2.811   5.420  10.112
23679SOL     OW72810  13.056   5.663   9.356
23679SOL    HW172811  12.997   5.706   9.418
23679SOL    HW272812  13.003   5.594   9.316
23680SOL     OW72813   1.064   1.884   6.065
23680SOL    HW172814   1.126   1.811   6.067
23680SOL    HW272815   1.104   1.952   6.119
23681SOL     OW72816  12.120  14.780  10.078
23681SOL    HW172817  12.199  14.805  10.127
23681SOL    HW272818  12.093  14.697  10.118
23682SOL     OW72819  11.128  12.428  10.670
23682SOL    HW172820  11.216  12.423  10.706
23682SOL    HW272821  11.074  12.378  10.730
23683SOL     OW72822   4.028   3.645   8.928
23683SOL    HW172823   3.985   3.614   8.848
23683SOL    HW272824   4.045   3.566   8.978
23684SOL     OW72825   9.021   9.272   9.278
23684SOL    HW172826   9.041   9.298   9.368
23684SOL    HW272827   8.994   9.353   9.236
23685SOL     OW72828   4.960  14.542  12.457
23685SOL    HW172829   4.978  14.629  12.493
23685SOL    HW272830   4.921  14.493  12.529
23686SOL     OW72831  12.619   6.788   3.569
23686SOL    HW172832  12.547   6.807   3.630
23686SOL    HW272833  12.634   6.871   3.524
23687SOL     OW72834   2.556  11.039  12.693
23687SOL    HW172835   2.487  10.997  12.642
23687SOL    HW272836   2.636  11.020  12.645
23688SOL     OW72837  12.882   8.085   4.261
23688SOL    HW172838  12.792   8.091   4.227
23688SOL    HW272839  12.893   8.164   4.314
23689SOL     OW72840   4.486   0.088   1.583
23689SOL    HW172841   4.416   0.033   1.547
23689SOL    HW272842   4.524   0.036   1.654
23690SOL     OW72843  14.548  11.266  12.831
23690SOL    HW172844  14.635  11.303  12.851
23690SOL    HW272845  14.538  11.193  12.892
23691SOL     OW72846  13.519   0.587  13.659
23691SOL    HW172847  13.445   0.534  13.690
23691SOL    HW272848  13.591   0.568  13.718
23692SOL     OW72849   5.220   9.584  14.626
23692SOL    HW172850   5.258   9.672  14.617
23692SOL    HW272851   5.239   9.541  14.543
23693SOL     OW72852   4.695  13.775  12.179
23693SOL    HW172853   4.784  13.745  12.162
23693SOL    HW272854   4.646  13.695  12.197
23694SOL     OW72855   9.854   6.413   4.117
23694SOL    HW172856   9.894   6.390   4.033
23694SOL    HW272857   9.926   6.408   4.180
23695SOL     OW72858   5.274   7.297   7.107
23695SOL    HW172859   5.217   7.329   7.038
23695SOL    HW272860   5.245   7.206   7.121
23696SOL     OW72861   4.406   9.366  11.253
23696SOL    HW172862   4.389   9.352  11.346
23696SOL    HW272863   4.483   9.312  11.235
23697SOL     OW72864   4.339   5.422  10.073
23697SOL    HW172865   4.246   5.421  10.094
23697SOL    HW272866   4.380   5.467  10.147
23698SOL     OW72867   9.983  12.426   1.188
23698SOL    HW172868   9.955  12.488   1.255
23698SOL    HW272869  10.056  12.379   1.227
23699SOL     OW72870   2.018   7.986   8.741
23699SOL    HW172871   2.081   7.921   8.773
23699SOL    HW272872   1.972   7.941   8.670
23700SOL     OW72873   6.073  10.656  11.649
23700SOL    HW172874   6.027  10.573  11.665
23700SOL    HW272875   6.039  10.716  11.715
23701SOL     OW72876   1.115   7.698   5.024
23701SOL    HW172877   1.133   7.791   5.011
23701SOL    HW272878   1.166   7.674   5.101
23702SOL     OW72879   6.951   9.864  13.640
23702SOL    HW172880   7.011   9.814  13.586
23702SOL    HW272881   6.932   9.942  13.588
23703SOL     OW72882   3.274  14.808   5.853
23703SOL    HW172883   3.326  14.736   5.888
23703SOL    HW272884   3.326   0.005   5.872
23704SOL     OW72885  13.498  13.008  12.047
23704SOL    HW172886  13.523  12.917  12.062
23704SOL    HW272887  13.402  13.007  12.054
23705SOL     OW72888  11.585   9.389   4.209
23705SOL    HW172889  11.543   9.357   4.289
23705SOL    HW272890  11.538   9.469   4.187
23706SOL     OW72891  14.697   6.712   7.439
23706SOL    HW172892  14.783   6.718   7.396
23706SOL    HW272893  14.675   6.802   7.464
23707SOL     OW72894   7.298   8.385   8.442
23707SOL    HW172895   7.232   8.315   8.443
23707SOL    HW272896   7.379   8.341   8.418
23708SOL     OW72897  14.720  12.685   8.570
23708SOL    HW172898  14.638  12.689   8.520
23708SOL    HW272899  14.747  12.593   8.565
23709SOL     OW72900   0.110   1.160   7.557
23709SOL    HW172901   0.054   1.193   7.487
23709SOL    HW272902   0.049   1.119   7.619
23710SOL     OW72903   3.837   6.671   5.598
23710SOL    HW172904   3.749   6.700   5.623
23710SOL    HW272905   3.822   6.610   5.525
23711SOL     OW72906   8.226   0.701  12.631
23711SOL    HW172907   8.224   0.776  12.691
23711SOL    HW272908   8.272   0.734  12.553
23712SOL     OW72909  10.064   4.659   6.330
23712SOL    HW172910  10.080   4.643   6.237
23712SOL    HW272911  10.002   4.591   6.356
23713SOL     OW72912   4.506   1.655   3.861
23713SOL    HW172913   4.425   1.691   3.823
23713SOL    HW272914   4.575   1.713   3.829
23714SOL     OW72915  13.980  10.925   9.629
23714SOL    HW172916  13.942  10.838   9.634
23714SOL    HW272917  14.046  10.927   9.699
23715SOL     OW72918  10.089  10.154   0.051
23715SOL    HW172919  10.025  10.186   0.115
23715SOL    HW272920  10.163  10.214   0.058
23716SOL     OW72921  10.858   7.348  14.785
23716SOL    HW172922  10.953   7.351  14.797
23716SOL    HW272923  10.823   7.340  14.874
23717SOL     OW72924   2.658   5.612  14.624
23717SOL    HW172925   2.653   5.640  14.533
23717SOL    HW272926   2.744   5.641  14.654
23718SOL     OW72927  12.925   7.207   7.723
23718SOL    HW172928  12.989   7.249   7.780
23718SOL    HW272929  12.841   7.221   7.766
23719SOL     OW72930  11.316   5.245  11.070
23719SOL    HW172931  11.408   5.255  11.047
23719SOL    HW272932  11.296   5.154  11.051
23720SOL     OW72933  14.657  10.677   0.139
23720SOL    HW172934  14.648  10.757   0.190
23720SOL    HW272935  14.628  10.608   0.199
23721SOL     OW72936  14.546  14.124   6.260
23721SOL    HW172937  14.639  14.109   6.273
23721SOL    HW272938  14.542  14.208   6.214
23722SOL     OW72939   1.597  13.015  10.173
23722SOL    HW172940   1.677  13.059  10.146
23722SOL    HW272941   1.539  13.022  10.097
23723SOL     OW72942   1.086   9.581   5.459
23723SOL    HW172943   1.051   9.508   5.511
23723SOL    HW272944   1.023   9.591   5.387
23724SOL     OW72945   8.683   3.161   7.931
23724SOL    HW172946   8.649   3.140   7.844
23724SOL    HW272947   8.710   3.253   7.925
23725SOL     OW72948   7.721   6.384   7.090
23725SOL    HW172949   7.777   6.410   7.164
23725SOL    HW272950   7.650   6.335   7.131
23726SOL     OW72951  10.799  14.672   5.345
23726SOL    HW172952  10.794  14.765   5.325
23726SOL    HW272953  10.767  14.665   5.435
23727SOL     OW72954   1.818   9.399  12.579
23727SOL    HW172955   1.831   9.436  12.666
23727SOL    HW272956   1.825   9.304  12.592
23728SOL     OW72957   6.518  11.141   2.475
23728SOL    HW172958   6.434  11.185   2.459
23728SOL    HW272959   6.582  11.194   2.428
23729SOL     OW72960   1.357  13.391  10.933
23729SOL    HW172961   1.389  13.481  10.939
23729SOL    HW272962   1.384  13.362  10.846
23730SOL     OW72963   4.244  13.704   5.387
23730SOL    HW172964   4.206  13.748   5.463
23730SOL    HW272965   4.337  13.699   5.406
23731SOL     OW72966   3.235   9.189  12.380
23731SOL    HW172967   3.246   9.174  12.474
23731SOL    HW272968   3.315   9.154  12.342
23732SOL     OW72969  12.558   9.266   8.642
23732SOL    HW172970  12.479   9.313   8.668
23732SOL    HW272971  12.592   9.315   8.567
23733SOL     OW72972  10.411   4.959   1.409
23733SOL    HW172973  10.383   5.032   1.355
23733SOL    HW272974  10.330   4.924   1.448
23734SOL     OW72975   9.751  10.318   4.569
23734SOL    HW172976   9.809  10.367   4.626
23734SOL    HW272977   9.738  10.234   4.614
23735SOL     OW72978   4.589   8.134   0.183
23735SOL    HW172979   4.674   8.133   0.140
23735SOL    HW272980   4.543   8.209   0.144
23736SOL     OW72981  10.354  12.287   6.849
23736SOL    HW172982  10.406  12.290   6.769
23736SOL    HW272983  10.338  12.379   6.872
23737SOL     OW72984  14.513   1.301  14.141
23737SOL    HW172985  14.594   1.337  14.105
23737SOL    HW272986  14.455   1.290  14.066
23738SOL     OW72987   8.179  14.556  14.032
23738SOL    HW172988   8.251  14.618  14.039
23738SOL    HW272989   8.122  14.577  14.106
23739SOL     OW72990   7.963   3.346   2.232
23739SOL    HW172991   7.923   3.368   2.148
23739SOL    HW272992   7.910   3.273   2.265
23740SOL     OW72993   3.914   7.949  12.543
23740SOL    HW172994   3.945   7.972  12.455
23740SOL    HW272995   3.950   7.862  12.559
23741SOL     OW72996   2.837  13.719   0.840
23741SOL    HW172997   2.779  13.727   0.764
23741SOL    HW272998   2.903  13.654   0.813
23742SOL     OW72999   0.470   0.702   7.531
23742SOL    HW173000   0.435   0.785   7.498
23742SOL    HW273001   0.472   0.645   7.454
23743SOL     OW73002  13.062   2.662   5.651
23743SOL    HW173003  12.995   2.731   5.653
23743SOL    HW273004  13.079   2.649   5.557
23744SOL     OW73005   3.232   3.545  13.540
23744SOL    HW173006   3.251   3.632  13.575
23744SOL    HW273007   3.226   3.489  13.617
23745SOL     OW73008   8.064  11.725  14.573
23745SOL    HW173009   8.126  11.696  14.506
23745SOL    HW273010   8.078  11.819  14.580
23746SOL     OW73011   7.971   9.907  13.391
23746SOL    HW173012   7.961   9.818  13.357
23746SOL    HW273013   7.883   9.932  13.419
23747SOL     OW73014  13.066   5.571   8.957
23747SOL    HW173015  13.004   5.513   9.000
23747SOL    HW273016  13.123   5.512   8.907
23748SOL     OW73017   6.882   8.023   8.048
23748SOL    HW173018   6.828   7.990   8.120
23748SOL    HW273019   6.888   7.949   7.988
23749SOL     OW73020   1.424   6.640  14.240
23749SOL    HW173021   1.511   6.667  14.213
23749SOL    HW273022   1.380   6.721  14.264
23750SOL     OW73023   2.536   1.833   0.160
23750SOL    HW173024   2.487   1.764   0.117
23750SOL    HW273025   2.529   1.908   0.101
23751SOL     OW73026   0.100   3.739   6.306
23751SOL    HW173027   0.194   3.754   6.296
23751SOL    HW273028   0.086   3.738   6.401
23752SOL     OW73029   8.613   1.241   5.509
23752SOL    HW173030   8.609   1.191   5.428
23752SOL    HW273031   8.607   1.176   5.579
23753SOL     OW73032   1.175  13.505   5.819
23753SOL    HW173033   1.092  13.539   5.852
23753SOL    HW273034   1.151  13.450   5.744
23754SOL     OW73035   3.324   0.299  10.566
23754SOL    HW173036   3.408   0.302  10.611
23754SOL    HW273037   3.301   0.206  10.563
23755SOL     OW73038   3.724   1.124  12.760
23755SOL    HW173039   3.795   1.142  12.822
23755SOL    HW273040   3.644   1.144  12.808
23756SOL     OW73041  10.898   9.525   9.995
23756SOL    HW173042  10.862   9.580   9.925
23756SOL    HW273043  10.883   9.576  10.075
23757SOL     OW73044  13.446   2.003   7.546
23757SOL    HW173045  13.369   1.992   7.491
23757SOL    HW273046  13.490   1.919   7.543
23758SOL     OW73047   3.506   0.592   4.482
23758SOL    HW173048   3.544   0.581   4.395
23758SOL    HW273049   3.411   0.598   4.466
23759SOL     OW73050   9.341   9.344  11.680
23759SOL    HW173051   9.330   9.270  11.739
23759SOL    HW273052   9.333   9.421  11.736
23760SOL     OW73053   8.974   2.755   9.538
23760SOL    HW173054   8.899   2.814   9.533
23760SOL    HW273055   9.039   2.793   9.478
23761SOL     OW73056   6.378  10.862  11.247
23761SOL    HW173057   6.458  10.810  11.236
23761SOL    HW273058   6.410  10.948  11.277
23762SOL     OW73059   0.178  14.590   8.277
23762SOL    HW173060   0.160  14.580   8.184
23762SOL    HW273061   0.271  14.569   8.285
23763SOL     OW73062   8.510  14.623   8.279
23763SOL    HW173063   8.511  14.567   8.202
23763SOL    HW273064   8.450  14.694   8.256
23764SOL     OW73065  12.557  11.314  14.644
23764SOL    HW173066  12.603  11.327  14.561
23764SOL    HW273067  12.626  11.323  14.710
23765SOL     OW73068  12.351  12.675   4.572
23765SOL    HW173069  12.257  12.670   4.591
23765SOL    HW273070  12.358  12.736   4.499
23766SOL     OW73071  11.602  14.490   6.920
23766SOL    HW173072  11.638  14.464   6.835
23766SOL    HW273073  11.597  14.586   6.916
23767SOL     OW73074  13.969  11.379   7.198
23767SOL    HW173075  13.947  11.472   7.192
23767SOL    HW273076  13.967  11.361   7.292
23768SOL     OW73077  12.456   2.613  14.558
23768SOL    HW173078  12.510   2.692  14.550
23768SOL    HW273079  12.445   2.601  14.652
23769SOL     OW73080   6.879   4.661   0.505
23769SOL    HW173081   6.923   4.582   0.534
23769SOL    HW273082   6.788   4.650   0.533
23770SOL     OW73083   8.395   2.661   3.921
23770SOL    HW173084   8.465   2.721   3.894
23770SOL    HW273085   8.322   2.683   3.863
23771SOL     OW73086  11.430  12.883   3.024
23771SOL    HW173087  11.496  12.846   3.083
23771SOL    HW273088  11.471  12.961   2.988
23772SOL     OW73089   3.966  13.346   2.868
23772SOL    HW173090   3.918  13.278   2.821
23772SOL    HW273091   3.941  13.335   2.959
23773SOL     OW73092   5.220   8.798   8.050
23773SOL    HW173093   5.263   8.882   8.032
23773SOL    HW273094   5.230   8.748   7.969
23774SOL     OW73095   6.305   3.249  11.758
23774SOL    HW173096   6.336   3.333  11.724
23774SOL    HW273097   6.221   3.270  11.799
23775SOL     OW73098   8.820  14.054  13.214
23775SOL    HW173099   8.876  13.984  13.179
23775SOL    HW273100   8.799  14.108  13.138
23776SOL     OW73101   7.752  14.620   4.720
23776SOL    HW173102   7.671  14.658   4.754
23776SOL    HW273103   7.773  14.673   4.643
23777SOL     OW73104  12.763  11.060  11.946
23777SOL    HW173105  12.762  10.967  11.967
23777SOL    HW273106  12.828  11.069  11.877
23778SOL     OW73107  11.718   2.423  12.311
23778SOL    HW173108  11.753   2.496  12.260
23778SOL    HW273109  11.712   2.351  12.249
23779SOL     OW73110   8.128   5.099  14.809
23779SOL    HW173111   8.142   5.154  14.733
23779SOL    HW273112   8.175   5.018  14.790
23780SOL     OW73113  11.164   4.689   3.424
23780SOL    HW173114  11.181   4.664   3.515
23780SOL    HW273115  11.183   4.782   3.420
23781SOL     OW73116   3.658  13.483   1.069
23781SOL    HW173117   3.721  13.417   1.098
23781SOL    HW273118   3.712  13.552   1.030
23782SOL     OW73119  13.763   8.184   0.040
23782SOL    HW173120  13.684   8.137   0.069
23782SOL    HW273121  13.754   8.272   0.078
23783SOL     OW73122  12.293  10.083   8.822
23783SOL    HW173123  12.243  10.133   8.887
23783SOL    HW273124  12.239  10.087   8.743
23784SOL     OW73125   0.682   1.278  14.699
23784SOL    HW173126   0.623   1.287  14.625
23784SOL    HW273127   0.629   1.302  14.775
23785SOL     OW73128   8.477   6.771  14.842
23785SOL    HW173129   8.436   6.705  14.786
23785SOL    HW273130   8.479   6.731   0.047
23786SOL     OW73131   3.560   9.726   0.160
23786SOL    HW173132   3.554   9.783   0.237
23786SOL    HW273133   3.644   9.748   0.120
23787SOL     OW73134   6.161   7.230   2.157
23787SOL    HW173135   6.102   7.282   2.102
23787SOL    HW273136   6.218   7.294   2.199
23788SOL     OW73137   6.939   1.814  10.999
23788SOL    HW173138   6.898   1.881  11.053
23788SOL    HW273139   6.987   1.759  11.061
23789SOL     OW73140   9.984  13.617   6.434
23789SOL    HW173141   9.957  13.617   6.525
23789SOL    HW273142   9.979  13.525   6.407
23790SOL     OW73143   1.671  12.433  11.551
23790SOL    HW173144   1.595  12.409  11.498
23790SOL    HW273145   1.675  12.528  11.546
23791SOL     OW73146   8.262   3.894   8.015
23791SOL    HW173147   8.231   3.847   7.938
23791SOL    HW273148   8.254   3.986   7.992
23792SOL     OW73149   5.445   5.991   7.311
23792SOL    HW173150   5.382   6.020   7.245
23792SOL    HW273151   5.524   6.044   7.294
23793SOL     OW73152   5.445   0.641   9.944
23793SOL    HW173153   5.527   0.626   9.896
23793SOL    HW273154   5.447   0.577  10.014
23794SOL     OW73155   7.890  12.321   2.327
23794SOL    HW173156   7.854  12.338   2.414
23794SOL    HW273157   7.972  12.274   2.344
23795SOL     OW73158   2.422   6.780   7.644
23795SOL    HW173159   2.359   6.848   7.667
23795SOL    HW273160   2.425   6.723   7.720
23796SOL     OW73161  12.495  14.336   9.132
23796SOL    HW173162  12.568  14.367   9.185
23796SOL    HW273163  12.417  14.365   9.179
23797SOL     OW73164  11.885  14.824   4.613
23797SOL    HW173165  11.954  14.806   4.549
23797SOL    HW273166  11.929  14.824   4.697
23798SOL     OW73167   1.218   3.359   8.043
23798SOL    HW173168   1.293   3.417   8.043
23798SOL    HW273169   1.254   3.272   8.031
23799SOL     OW73170   3.411   5.454   7.314
23799SOL    HW173171   3.411   5.531   7.371
23799SOL    HW273172   3.375   5.486   7.231
23800SOL     OW73173  10.844  11.577  13.042
23800SOL    HW173174  10.785  11.613  12.975
23800SOL    HW273175  10.787  11.526  13.099
23801SOL     OW73176  10.704  11.486   2.979
23801SOL    HW173177  10.690  11.391   2.978
23801SOL    HW273178  10.785  11.497   3.029
23802SOL     OW73179   5.245  13.997  10.295
23802SOL    HW173180   5.203  13.993  10.209
23802SOL    HW273181   5.183  14.046  10.349
23803SOL     OW73182  10.108   8.917   0.380
23803SOL    HW173183  10.045   8.846   0.375
23803SOL    HW273184  10.158   8.911   0.299
23804SOL     OW73185  13.935   0.096  10.625
23804SOL    HW173186  13.962   0.009  10.655
23804SOL    HW273187  13.994   0.116  10.553
23805SOL     OW73188   1.607  10.840   4.247
23805SOL    HW173189   1.572  10.794   4.323
23805SOL    HW273190   1.637  10.771   4.188
23806SOL     OW73191   5.526   9.077   2.287
23806SOL    HW173192   5.618   9.088   2.314
23806SOL    HW273193   5.490   9.165   2.287
23807SOL     OW73194  11.796  14.585  10.850
23807SOL    HW173195  11.734  14.650  10.816
23807SOL    HW273196  11.792  14.513  10.787
23808SOL     OW73197   3.517   0.648   1.406
23808SOL    HW173198   3.480   0.712   1.345
23808SOL    HW273199   3.461   0.654   1.484
23809SOL     OW73200   2.247   0.075   9.045
23809SOL    HW173201   2.225  14.865   9.026
23809SOL    HW273202   2.342   0.079   9.035
23810SOL     OW73203   2.969   7.722   6.656
23810SOL    HW173204   3.032   7.793   6.640
23810SOL    HW273205   2.960   7.680   6.570
23811SOL     OW73206   9.444  14.840   5.348
23811SOL    HW173207   9.436  14.760   5.297
23811SOL    HW273208   9.538  14.855   5.356
23812SOL     OW73209  14.664   5.062   4.496
23812SOL    HW173210  14.657   4.967   4.505
23812SOL    HW273211  14.636   5.096   4.580
23813SOL     OW73212   7.651   6.502   8.211
23813SOL    HW173213   7.674   6.505   8.304
23813SOL    HW273214   7.717   6.445   8.171
23814SOL     OW73215   7.080   2.988  13.471
23814SOL    HW173216   7.147   2.927  13.502
23814SOL    HW273217   7.014   2.988  13.541
23815SOL     OW73218  13.404   7.428   4.403
23815SOL    HW173219  13.424   7.349   4.453
23815SOL    HW273220  13.401   7.498   4.469
23816SOL     OW73221   2.637   6.347   5.859
23816SOL    HW173222   2.634   6.364   5.765
23816SOL    HW273223   2.600   6.259   5.869
23817SOL     OW73224   1.661  14.372   8.011
23817SOL    HW173225   1.686  14.445   7.955
23817SOL    HW273226   1.576  14.344   7.978
23818SOL     OW73227  11.494  10.150   3.715
23818SOL    HW173228  11.415  10.202   3.733
23818SOL    HW273229  11.566  10.204   3.746
23819SOL     OW73230   4.284   4.726   3.562
23819SOL    HW173231   4.368   4.739   3.518
23819SOL    HW273232   4.223   4.783   3.515
23820SOL     OW73233   0.639   3.421  13.573
23820SOL    HW173234   0.584   3.359  13.525
23820SOL    HW273235   0.698   3.365  13.624
23821SOL     OW73236   7.436   3.386  12.944
23821SOL    HW173237   7.388   3.416  13.021
23821SOL    HW273238   7.465   3.298  12.966
23822SOL     OW73239  14.443  12.980  14.454
23822SOL    HW173240  14.494  13.056  14.481
23822SOL    HW273241  14.353  13.001  14.477
23823SOL     OW73242  13.760   4.858   1.062
23823SOL    HW173243  13.768   4.827   1.152
23823SOL    HW273244  13.845   4.897   1.043
23824SOL     OW73245   8.272  14.109  10.706
23824SOL    HW173246   8.289  14.148  10.621
23824SOL    HW273247   8.176  14.108  10.714
23825SOL     OW73248   5.153   8.883   4.898
23825SOL    HW173249   5.096   8.943   4.850
23825SOL    HW273250   5.198   8.832   4.830
23826SOL     OW73251   9.458   5.266   0.912
23826SOL    HW173252   9.466   5.355   0.879
23826SOL    HW273253   9.401   5.221   0.849
23827SOL     OW73254  10.567   2.755   4.488
23827SOL    HW173255  10.472   2.751   4.490
23827SOL    HW273256  10.592   2.792   4.573
23828SOL     OW73257   5.705  13.272   1.316
23828SOL    HW173258   5.726  13.186   1.351
23828SOL    HW273259   5.628  13.300   1.365
23829SOL     OW73260   7.572  10.652   9.775
23829SOL    HW173261   7.623  10.587   9.823
23829SOL    HW273262   7.609  10.652   9.687
23830SOL     OW73263   3.526   5.211   8.443
23830SOL    HW173264   3.591   5.249   8.385
23830SOL    HW273265   3.566   5.130   8.476
23831SOL     OW73266   8.247   8.991   5.819
23831SOL    HW173267   8.267   9.057   5.752
23831SOL    HW273268   8.167   9.024   5.862
23832SOL     OW73269   4.199  11.944  12.349
23832SOL    HW173270   4.130  11.924  12.413
23832SOL    HW273271   4.154  11.951  12.266
23833SOL     OW73272  10.285   8.293   9.726
23833SOL    HW173273  10.298   8.262   9.815
23833SOL    HW273274  10.228   8.228   9.686
23834SOL     OW73275  10.236   1.618   2.851
23834SOL    HW173276  10.203   1.547   2.796
23834SOL    HW273277  10.228   1.696   2.797
23835SOL     OW73278  12.414   7.265   4.978
23835SOL    HW173279  12.333   7.242   4.932
23835SOL    HW273280  12.417   7.206   5.053
23836SOL     OW73281   5.127   9.781   5.188
23836SOL    HW173282   5.130   9.725   5.110
23836SOL    HW273283   5.216   9.780   5.222
23837SOL     OW73284  12.642   2.997  14.222
23837SOL    HW173285  12.627   2.964  14.133
23837SOL    HW273286  12.645   2.918  14.276
23838SOL     OW73287  10.406   4.783   6.446
23838SOL    HW173288  10.477   4.721   6.462
23838SOL    HW273289  10.401   4.836   6.527
23839SOL     OW73290   7.483   9.895   5.707
23839SOL    HW173291   7.550   9.932   5.765
23839SOL    HW273292   7.400   9.925   5.744
23840SOL     OW73293   7.287  11.781  11.947
23840SOL    HW173294   7.325  11.827  11.872
23840SOL    HW273295   7.193  11.784  11.933
23841SOL     OW73296   2.550  14.369   5.643
23841SOL    HW173297   2.459  14.399   5.644
23841SOL    HW273298   2.547  14.282   5.681
23842SOL     OW73299   3.788   7.049   2.018
23842SOL    HW173300   3.810   7.101   1.940
23842SOL    HW273301   3.804   7.109   2.091
23843SOL     OW73302   0.749   4.717   3.250
23843SOL    HW173303   0.685   4.672   3.196
23843SOL    HW273304   0.711   4.716   3.338
23844SOL     OW73305   2.408   9.926   9.634
23844SOL    HW173306   2.342   9.947   9.568
23844SOL    HW273307   2.395   9.991   9.703
23845SOL     OW73308   9.167  13.883  13.502
23845SOL    HW173309   9.086  13.933  13.502
23845SOL    HW273310   9.139  13.793  13.519
23846SOL     OW73311   5.348   1.752   6.093
23846SOL    HW173312   5.282   1.772   6.159
23846SOL    HW273313   5.313   1.676   6.046
23847SOL     OW73314  13.240   0.631   4.508
23847SOL    HW173315  13.246   0.719   4.545
23847SOL    HW273316  13.218   0.646   4.416
23848SOL     OW73317   1.923   4.063   7.608
23848SOL    HW173318   2.001   4.015   7.580
23848SOL    HW273319   1.881   4.005   7.672
23849SOL     OW73320   3.622   8.986  14.419
23849SOL    HW173321   3.672   9.048  14.472
23849SOL    HW273322   3.531   9.009  14.436
23850SOL     OW73323   7.364   7.885   1.652
23850SOL    HW173324   7.444   7.877   1.600
23850SOL    HW273325   7.300   7.925   1.593
23851SOL     OW73326   2.945   1.803   9.452
23851SOL    HW173327   2.938   1.865   9.379
23851SOL    HW273328   2.893   1.842   9.522
23852SOL     OW73329   4.698   1.289   2.010
23852SOL    HW173330   4.602   1.289   2.010
23852SOL    HW273331   4.722   1.224   2.076
23853SOL     OW73332   1.821   1.061   3.338
23853SOL    HW173333   1.861   1.146   3.322
23853SOL    HW273334   1.891   1.007   3.374
23854SOL     OW73335   2.638   6.012   2.543
23854SOL    HW173336   2.701   5.941   2.529
23854SOL    HW273337   2.609   6.001   2.633
23855SOL     OW73338   6.364   4.156   1.506
23855SOL    HW173339   6.373   4.103   1.586
23855SOL    HW273340   6.451   4.193   1.491
23856SOL     OW73341   2.603   9.216  10.016
23856SOL    HW173342   2.657   9.142  10.044
23856SOL    HW273343   2.521   9.205  10.063
23857SOL     OW73344   2.481  11.539   4.169
23857SOL    HW173345   2.457  11.537   4.261
23857SOL    HW273346   2.453  11.454   4.135
23858SOL     OW73347   9.384   5.219   2.719
23858SOL    HW173348   9.416   5.143   2.767
23858SOL    HW273349   9.456   5.282   2.722
23859SOL     OW73350   2.174  14.116   3.944
23859SOL    HW173351   2.132  14.202   3.945
23859SOL    HW273352   2.264  14.133   3.973
23860SOL     OW73353   7.658  13.706  14.753
23860SOL    HW173354   7.603  13.655  14.693
23860SOL    HW273355   7.727  13.645  14.779
23861SOL     OW73356   3.981   9.488   9.882
23861SOL    HW173357   4.040   9.491   9.807
23861SOL    HW273358   4.018   9.551   9.944
23862SOL     OW73359  12.364   3.680  12.567
23862SOL    HW173360  12.444   3.676  12.621
23862SOL    HW273361  12.341   3.589  12.551
23863SOL     OW73362   2.364   3.367   8.614
23863SOL    HW173363   2.352   3.279   8.580
23863SOL    HW273364   2.343   3.424   8.540
23864SOL     OW73365   3.432   7.579   8.565
23864SOL    HW173366   3.456   7.493   8.601
23864SOL    HW273367   3.484   7.585   8.484
23865SOL     OW73368  11.628   0.565   3.077
23865SOL    HW173369  11.538   0.551   3.048
23865SOL    HW273370  11.622   0.636   3.141
23866SOL     OW73371   9.095   7.415   5.795
23866SOL    HW173372   9.018   7.368   5.763
23866SOL    HW273373   9.143   7.349   5.847
23867SOL     OW73374   6.700   2.991  11.790
23867SOL    HW173375   6.709   3.002  11.695
23867SOL    HW273376   6.625   3.046  11.813
23868SOL     OW73377  10.750   6.425   6.722
23868SOL    HW173378  10.831   6.459   6.760
23868SOL    HW273379  10.743   6.469   6.637
23869SOL     OW73380   4.649   6.793  14.234
23869SOL    HW173381   4.645   6.699  14.214
23869SOL    HW273382   4.599   6.802  14.315
23870SOL     OW73383  11.110   2.432   7.635
23870SOL    HW173384  11.056   2.507   7.609
23870SOL    HW273385  11.048   2.369   7.672
23871SOL     OW73386   0.145   2.208  14.382
23871SOL    HW173387   0.203   2.248  14.446
23871SOL    HW273388   0.057   2.232  14.410
23872SOL     OW73389  12.548   8.474   1.283
23872SOL    HW173390  12.593   8.402   1.238
23872SOL    HW273391  12.518   8.435   1.365
23873SOL     OW73392   9.022  11.495   9.283
23873SOL    HW173393   8.937  11.497   9.240
23873SOL    HW273394   9.004  11.517   9.375
23874SOL     OW73395   5.908   9.764   4.497
23874SOL    HW173396   5.938   9.683   4.538
23874SOL    HW273397   5.873   9.816   4.569
23875SOL     OW73398  11.570   7.856   4.795
23875SOL    HW173399  11.665   7.847   4.807
23875SOL    HW273400  11.535   7.854   4.884
23876SOL     OW73401   5.300   3.396  10.335
23876SOL    HW173402   5.284   3.307  10.304
23876SOL    HW273403   5.388   3.393  10.372
23877SOL     OW73404   4.862  14.382   6.281
23877SOL    HW173405   4.826  14.294   6.294
23877SOL    HW273406   4.942  14.368   6.230
23878SOL     OW73407  11.345   5.439   9.594
23878SOL    HW173408  11.383   5.526   9.585
23878SOL    HW273409  11.273   5.450   9.656
23879SOL     OW73410   1.175  11.167  12.765
23879SOL    HW173411   1.172  11.149  12.859
23879SOL    HW273412   1.088  11.142  12.732
23880SOL     OW73413   7.661   4.447   2.655
23880SOL    HW173414   7.626   4.532   2.681
23880SOL    HW273415   7.755   4.463   2.641
23881SOL     OW73416   3.475  11.040  13.672
23881SOL    HW173417   3.492  11.025  13.765
23881SOL    HW273418   3.397  11.096  13.671
23882SOL     OW73419   4.833   6.985   8.246
23882SOL    HW173420   4.865   6.941   8.324
23882SOL    HW273421   4.743   6.953   8.235
23883SOL     OW73422   4.301   9.742  13.450
23883SOL    HW173423   4.303   9.775  13.360
23883SOL    HW273424   4.314   9.647  13.440
23884SOL     OW73425  12.781  12.845   9.959
23884SOL    HW173426  12.755  12.893  10.038
23884SOL    HW273427  12.708  12.857   9.898
23885SOL     OW73428   6.313  13.277  14.862
23885SOL    HW173429   6.321  13.372  14.851
23885SOL    HW273430   6.319  13.242  14.773
23886SOL     OW73431   4.512   5.261  12.740
23886SOL    HW173432   4.579   5.208  12.697
23886SOL    HW273433   4.532   5.351  12.714
23887SOL     OW73434  13.934  10.218   2.800
23887SOL    HW173435  13.986  10.146   2.834
23887SOL    HW273436  13.998  10.284   2.774
23888SOL     OW73437   4.366  11.030   5.660
23888SOL    HW173438   4.348  10.957   5.719
23888SOL    HW273439   4.417  11.092   5.713
23889SOL     OW73440  10.143   9.774   6.564
23889SOL    HW173441  10.087   9.718   6.510
23889SOL    HW273442  10.223   9.723   6.576
23890SOL     OW73443   8.424   7.453  12.288
23890SOL    HW173444   8.516   7.438  12.307
23890SOL    HW273445   8.379   7.375  12.319
23891SOL     OW73446   4.383  12.413   5.403
23891SOL    HW173447   4.436  12.487   5.434
23891SOL    HW273448   4.305  12.415   5.459
23892SOL     OW73449   2.103   2.572   4.865
23892SOL    HW173450   2.119   2.527   4.782
23892SOL    HW273451   2.043   2.643   4.842
23893SOL     OW73452   0.522   4.867  13.629
23893SOL    HW173453   0.468   4.945  13.619
23893SOL    HW273454   0.594   4.879  13.567
23894SOL     OW73455   7.636   9.283   8.792
23894SOL    HW173456   7.544   9.288   8.817
23894SOL    HW273457   7.680   9.247   8.869
23895SOL     OW73458   0.756   2.786   9.206
23895SOL    HW173459   0.691   2.736   9.156
23895SOL    HW273460   0.841   2.752   9.175
23896SOL     OW73461  14.353   3.677  11.069
23896SOL    HW173462  14.409   3.739  11.022
23896SOL    HW273463  14.301   3.732  11.128
23897SOL     OW73464   7.936   5.182   7.943
23897SOL    HW173465   7.863   5.151   7.997
23897SOL    HW273466   8.013   5.137   7.978
23898SOL     OW73467   4.742   9.369   6.450
23898SOL    HW173468   4.769   9.317   6.374
23898SOL    HW273469   4.685   9.437   6.414
23899SOL     OW73470  14.082  11.265   3.286
23899SOL    HW173471  14.132  11.338   3.249
23899SOL    HW273472  14.104  11.266   3.380
23900SOL     OW73473  11.650   1.582   4.763
23900SOL    HW173474  11.629   1.648   4.829
23900SOL    HW273475  11.606   1.503   4.794
23901SOL     OW73476   0.307   1.608   4.504
23901SOL    HW173477   0.341   1.696   4.490
23901SOL    HW273478   0.384   1.554   4.521
23902SOL     OW73479   0.312   6.331  13.930
23902SOL    HW173480   0.329   6.424  13.943
23902SOL    HW273481   0.398   6.290  13.933
23903SOL     OW73482  10.300   3.526   3.467
23903SOL    HW173483  10.221   3.474   3.455
23903SOL    HW273484  10.344   3.523   3.381
23904SOL     OW73485   2.859   9.329   1.075
23904SOL    HW173486   2.943   9.376   1.078
23904SOL    HW273487   2.824   9.348   0.988
23905SOL     OW73488   7.917  10.059   0.655
23905SOL    HW173489   7.833  10.028   0.691
23905SOL    HW273490   7.919  10.152   0.675
23906SOL     OW73491  10.370   0.777   2.622
23906SOL    HW173492  10.431   0.741   2.557
23906SOL    HW273493  10.403   0.743   2.706
23907SOL     OW73494   2.652   3.088  12.314
23907SOL    HW173495   2.663   3.072  12.220
23907SOL    HW273496   2.697   3.015  12.356
23908SOL     OW73497   4.898   4.838  11.111
23908SOL    HW173498   4.876   4.901  11.180
23908SOL    HW273499   4.984   4.804  11.135
23909SOL     OW73500  14.227   0.877  13.295
23909SOL    HW173501  14.230   0.959  13.345
23909SOL    HW273502  14.172   0.819  13.348
23910SOL     OW73503  11.671   6.472  14.841
23910SOL    HW173504  11.717   6.481   0.043
23910SOL    HW273505  11.698   6.386  14.809
23911SOL     OW73506  10.319   6.926   6.755
23911SOL    HW173507  10.231   6.891   6.770
23911SOL    HW273508  10.371   6.891   6.827
23912SOL     OW73509   6.931  13.778   7.992
23912SOL    HW173510   6.905  13.831   7.917
23912SOL    HW273511   6.862  13.712   8.001
23913SOL     OW73512   8.731   5.530   6.633
23913SOL    HW173513   8.806   5.560   6.684
23913SOL    HW273514   8.764   5.455   6.583
23914SOL     OW73515   1.767  11.745   0.202
23914SOL    HW173516   1.828  11.688   0.249
23914SOL    HW273517   1.705  11.685   0.161
23915SOL     OW73518  10.287  11.919   5.073
23915SOL    HW173519  10.277  12.012   5.094
23915SOL    HW273520  10.381  11.903   5.077
23916SOL     OW73521   0.652  11.011   4.993
23916SOL    HW173522   0.688  10.938   5.044
23916SOL    HW273523   0.557  11.001   5.003
23917SOL     OW73524   4.476   3.515  12.783
23917SOL    HW173525   4.530   3.494  12.706
23917SOL    HW273526   4.436   3.431  12.808
23918SOL     OW73527   8.705   0.232   4.250
23918SOL    HW173528   8.773   0.211   4.313
23918SOL    HW273529   8.626   0.245   4.302
23919SOL     OW73530  11.488   8.141   7.621
23919SOL    HW173531  11.583   8.140   7.635
23919SOL    HW273532  11.460   8.052   7.644
23920SOL     OW73533   4.843   6.279   1.705
23920SOL    HW173534   4.901   6.354   1.693
23920SOL    HW273535   4.849   6.259   1.799
23921SOL     OW73536   1.652   2.934  14.455
23921SOL    HW173537   1.683   2.948  14.545
23921SOL    HW273538   1.621   2.844  14.454
23922SOL     OW73539  12.828   5.729  13.082
23922SOL    HW173540  12.899   5.680  13.124
23922SOL    HW273541  12.873   5.789  13.022
23923SOL     OW73542  12.537  12.741   3.333
23923SOL    HW173543  12.621  12.732   3.288
23923SOL    HW273544  12.526  12.659   3.382
23924SOL     OW73545  10.533  14.686  13.997
23924SOL    HW173546  10.589  14.609  14.005
23924SOL    HW273547  10.455  14.654  13.953
23925SOL     OW73548  13.936   7.206   2.230
23925SOL    HW173549  13.910   7.298   2.223
23925SOL    HW273550  13.857   7.157   2.206
23926SOL     OW73551   5.205   7.088   0.486
23926SOL    HW173552   5.209   7.057   0.396
23926SOL    HW273553   5.119   7.058   0.518
23927SOL     OW73554   7.757  14.118   9.425
23927SOL    HW173555   7.787  14.027   9.419
23927SOL    HW273556   7.744  14.133   9.518
23928SOL     OW73557   5.049  11.158  13.288
23928SOL    HW173558   5.124  11.102  13.309
23928SOL    HW273559   5.068  11.190  13.200
23929SOL     OW73560   7.698   2.215   1.616
23929SOL    HW173561   7.745   2.289   1.655
23929SOL    HW273562   7.645   2.254   1.546
23930SOL     OW73563  10.397   6.513  11.272
23930SOL    HW173564  10.452   6.538  11.198
23930SOL    HW273565  10.401   6.417  11.274
23931SOL     OW73566   0.990   7.711  10.371
23931SOL    HW173567   0.929   7.667  10.312
23931SOL    HW273568   1.073   7.664  10.360
23932SOL     OW73569   7.961   7.904   8.603
23932SOL    HW173570   8.055   7.907   8.620
23932SOL    HW273571   7.955   7.891   8.508
23933SOL     OW73572  12.981   4.888  12.724
23933SOL    HW173573  13.038   4.830  12.673
23933SOL    HW273574  12.923   4.927  12.659
23934SOL     OW73575  14.833  11.252  14.827
23934SOL    HW173576  14.789  11.292  14.752
23934SOL    HW273577  14.871  11.325  14.875
23935SOL     OW73578   2.200   4.224  11.646
23935SOL    HW173579   2.253   4.178  11.711
23935SOL    HW273580   2.215   4.175  11.565
23936SOL     OW73581   0.620  14.794   2.524
23936SOL    HW173582   0.703  14.837   2.502
23936SOL    HW273583   0.641  14.701   2.529
23937SOL     OW73584  13.997  10.968  13.556
23937SOL    HW173585  13.919  10.938  13.509
23937SOL    HW273586  13.969  10.974  13.647
23938SOL     OW73587   5.548   7.584   6.964
23938SOL    HW173588   5.571   7.675   6.944
23938SOL    HW273589   5.624   7.533   6.936
23939SOL     OW73590  10.617  11.735   5.970
23939SOL    HW173591  10.657  11.821   5.980
23939SOL    HW273592  10.523  11.750   5.984
23940SOL     OW73593  12.772   0.266   7.810
23940SOL    HW173594  12.700   0.252   7.749
23940SOL    HW273595  12.737   0.241   7.895
23941SOL     OW73596  12.775   5.260   2.195
23941SOL    HW173597  12.718   5.337   2.190
23941SOL    HW273598  12.835   5.279   2.267
23942SOL     OW73599   6.855  12.918   3.324
23942SOL    HW173600   6.916  12.851   3.356
23942SOL    HW273601   6.776  12.907   3.376
23943SOL     OW73602   8.287   0.873  13.873
23943SOL    HW173603   8.325   0.836  13.794
23943SOL    HW273604   8.350   0.851  13.942
23944SOL     OW73605  10.508   4.706  11.048
23944SOL    HW173606  10.433   4.651  11.025
23944SOL    HW273607  10.505   4.712  11.144
23945SOL     OW73608   0.056  12.681  13.009
23945SOL    HW173609   0.092  12.753  13.061
23945SOL    HW273610   0.113  12.677  12.932
23946SOL     OW73611   2.663   7.349   4.818
23946SOL    HW173612   2.698   7.262   4.836
23946SOL    HW273613   2.698   7.371   4.732
23947SOL     OW73614   6.139   5.238  12.311
23947SOL    HW173615   6.106   5.209  12.396
23947SOL    HW273616   6.232   5.255  12.326
23948SOL     OW73617  11.414  13.504  14.848
23948SOL    HW173618  11.505  13.478  14.862
23948SOL    HW273619  11.415  13.546  14.762
23949SOL     OW73620  10.789   4.116  12.272
23949SOL    HW173621  10.859   4.074  12.222
23949SOL    HW273622  10.712   4.112  12.215
23950SOL     OW73623   3.588   9.276  11.974
23950SOL    HW173624   3.557   9.361  12.005
23950SOL    HW273625   3.509   9.232  11.943
23951SOL     OW73626   7.972  14.840  12.795
23951SOL    HW173627   7.916   0.034  12.777
23951SOL    HW273628   8.060  14.869  12.768
23952SOL     OW73629  14.369   4.761   3.235
23952SOL    HW173630  14.336   4.777   3.146
23952SOL    HW273631  14.343   4.839   3.284
23953SOL     OW73632   4.343   3.570   3.894
23953SOL    HW173633   4.401   3.627   3.843
23953SOL    HW273634   4.255   3.596   3.867
23954SOL     OW73635   6.693  11.245   5.961
23954SOL    HW173636   6.714  11.241   6.055
23954SOL    HW273637   6.779  11.245   5.918
23955SOL     OW73638  13.447   9.767   8.111
23955SOL    HW173639  13.383   9.711   8.156
23955SOL    HW273640  13.413   9.774   8.022
23956SOL     OW73641  13.524   0.410   1.618
23956SOL    HW173642  13.599   0.364   1.657
23956SOL    HW273643  13.452   0.393   1.679
23957SOL     OW73644  11.866   5.108  13.788
23957SOL    HW173645  11.949   5.125  13.833
23957SOL    HW273646  11.802   5.158  13.839
23958SOL     OW73647  11.828   9.156   0.707
23958SOL    HW173648  11.854   9.226   0.766
23958SOL    HW273649  11.881   9.081   0.732
23959SOL     OW73650   3.892   7.415  14.833
23959SOL    HW173651   3.950   7.343  14.856
23959SOL    HW273652   3.861   7.394  14.745
23960SOL     OW73653   8.469  11.554   6.053
23960SOL    HW173654   8.461  11.469   6.009
23960SOL    HW273655   8.396  11.606   6.017
23961SOL     OW73656   5.723  10.841  11.441
23961SOL    HW173657   5.759  10.878  11.360
23961SOL    HW273658   5.630  10.861  11.437
23962SOL     OW73659   2.938   8.867   3.815
23962SOL    HW173660   2.928   8.880   3.909
23962SOL    HW273661   3.001   8.796   3.807
23963SOL     OW73662  13.761   7.847   1.675
23963SOL    HW173663  13.670   7.866   1.652
23963SOL    HW273664  13.806   7.932   1.668
23964SOL     OW73665  10.688   1.114   9.501
23964SOL    HW173666  10.654   1.200   9.475
23964SOL    HW273667  10.769   1.104   9.450
23965SOL     OW73668   2.991   4.269   3.872
23965SOL    HW173669   3.069   4.218   3.893
23965SOL    HW273670   3.025   4.351   3.835
23966SOL     OW73671   0.331  10.611  11.350
23966SOL    HW173672   0.336  10.528  11.396
23966SOL    HW273673   0.290  10.590  11.266
23967SOL     OW73674   3.735   9.350   8.837
23967SOL    HW173675   3.688   9.266   8.848
23967SOL    HW273676   3.735   9.365   8.743
23968SOL     OW73677  11.108  13.909   3.561
23968SOL    HW173678  11.101  13.822   3.522
23968SOL    HW273679  11.031  13.916   3.619
23969SOL     OW73680  11.825   3.749  11.392
23969SOL    HW173681  11.897   3.787  11.342
23969SOL    HW273682  11.814   3.662  11.356
23970SOL     OW73683   2.947   6.176  11.957
23970SOL    HW173684   2.910   6.211  12.038
23970SOL    HW273685   3.002   6.246  11.923
23971SOL     OW73686   1.510   0.664   6.660
23971SOL    HW173687   1.496   0.667   6.754
23971SOL    HW273688   1.494   0.754   6.630
23972SOL     OW73689  10.909   7.094   7.017
23972SOL    HW173690  10.920   7.160   6.949
23972SOL    HW273691  10.997   7.081   7.053
23973SOL     OW73692   7.346   8.904   9.851
23973SOL    HW173693   7.277   8.935   9.909
23973SOL    HW273694   7.422   8.958   9.873
23974SOL     OW73695   4.011  13.625  14.642
23974SOL    HW173696   3.943  13.616  14.576
23974SOL    HW273697   4.054  13.539  14.644
23975SOL     OW73698   7.321   4.384   0.735
23975SOL    HW173699   7.328   4.290   0.753
23975SOL    HW273700   7.411   4.417   0.745
23976SOL     OW73701  14.798  12.965   5.998
23976SOL    HW173702   0.009  12.958   5.971
23976SOL    HW273703  14.782  13.059   6.003
23977SOL     OW73704   8.165   4.907   8.644
23977SOL    HW173705   8.187   4.984   8.697
23977SOL    HW273706   8.121   4.848   8.705
23978SOL     OW73707   0.870   0.528   8.392
23978SOL    HW173708   0.942   0.580   8.429
23978SOL    HW273709   0.844   0.576   8.313
23979SOL     OW73710   1.000  13.668   4.367
23979SOL    HW173711   1.094  13.690   4.368
23979SOL    HW273712   0.957  13.749   4.395
23980SOL     OW73713   5.708   9.924   9.735
23980SOL    HW173714   5.776   9.953   9.795
23980SOL    HW273715   5.752   9.913   9.651
23981SOL     OW73716   2.847   2.973   7.255
23981SOL    HW173717   2.896   2.947   7.334
23981SOL    HW273718   2.757   2.947   7.274
23982SOL     OW73719   6.287   3.236   0.285
23982SOL    HW173720   6.308   3.222   0.193
23982SOL    HW273721   6.349   3.182   0.333
23983SOL     OW73722   3.814  10.479  11.305
23983SOL    HW173723   3.821  10.385  11.288
23983SOL    HW273724   3.896  10.516  11.270
23984SOL     OW73725   3.110   4.930   7.257
23984SOL    HW173726   3.199   4.924   7.291
23984SOL    HW273727   3.054   4.927   7.336
23985SOL     OW73728   2.158   2.647  10.540
23985SOL    HW173729   2.080   2.620  10.491
23985SOL    HW273730   2.154   2.596  10.621
23986SOL     OW73731  12.842  13.715  13.978
23986SOL    HW173732  12.799  13.681  13.899
23986SOL    HW273733  12.775  13.768  14.021
23987SOL     OW73734  10.830   9.976   5.463
23987SOL    HW173735  10.745   9.990   5.504
23987SOL    HW273736  10.886   9.946   5.535
23988SOL     OW73737  11.984   9.442  14.425
23988SOL    HW173738  12.071   9.401  14.432
23988SOL    HW273739  11.959   9.431  14.333
23989SOL     OW73740  10.204   9.116  10.281
23989SOL    HW173741  10.214   9.206  10.249
23989SOL    HW273742  10.125   9.084  10.237
23990SOL     OW73743  10.095   7.656  12.036
23990SOL    HW173744  10.101   7.565  12.065
23990SOL    HW273745  10.016   7.690  12.079
23991SOL     OW73746   5.977   2.033   3.925
23991SOL    HW173747   5.924   2.044   3.846
23991SOL    HW273748   5.984   1.938   3.937
23992SOL     OW73749   7.090   5.143  13.031
23992SOL    HW173750   7.042   5.066  13.060
23992SOL    HW273751   7.135   5.115  12.951
23993SOL     OW73752   9.271   3.824   8.709
23993SOL    HW173753   9.325   3.760   8.755
23993SOL    HW273754   9.218   3.864   8.778
23994SOL     OW73755  10.254  14.438  12.785
23994SOL    HW173756  10.326  14.494  12.758
23994SOL    HW273757  10.180  14.497  12.796
23995SOL     OW73758   1.943   0.017   8.877
23995SOL    HW173759   1.992   0.042   8.799
23995SOL    HW273760   1.900   0.097   8.905
23996SOL     OW73761  14.038  11.213  10.386
23996SOL    HW173762  14.119  11.252  10.419
23996SOL    HW273763  14.005  11.161  10.459
23997SOL     OW73764   4.671   8.723   4.601
23997SOL    HW173765   4.668   8.669   4.522
23997SOL    HW273766   4.580   8.729   4.629
23998SOL     OW73767   8.157   5.742   1.695
23998SOL    HW173768   8.108   5.717   1.773
23998SOL    HW273769   8.100   5.721   1.622
23999SOL     OW73770  14.459  14.815   2.740
23999SOL    HW173771  14.448   0.013   2.688
23999SOL    HW273772  14.425  14.745   2.684
24000SOL     OW73773   0.690   2.766  14.005
24000SOL    HW173774   0.686   2.732  13.916
24000SOL    HW273775   0.605   2.808  14.019
24001SOL     OW73776   4.219   6.932   2.611
24001SOL    HW173777   4.153   6.990   2.648
24001SOL    HW273778   4.169   6.872   2.555
24002SOL     OW73779   8.867   5.498  13.340
24002SOL    HW173780   8.776   5.498  13.370
24002SOL    HW273781   8.900   5.584  13.364
24003SOL     OW73782   7.298  12.342   7.663
24003SOL    HW173783   7.203  12.353   7.675
24003SOL    HW273784   7.325  12.283   7.733
24004SOL     OW73785  12.943   4.564   3.616
24004SOL    HW173786  12.958   4.484   3.565
24004SOL    HW273787  12.964   4.635   3.556
24005SOL     OW73788  10.112   8.926   8.988
24005SOL    HW173789  10.120   8.958   9.078
24005SOL    HW273790  10.018   8.919   8.972
24006SOL     OW73791   0.237  14.549   6.893
24006SOL    HW173792   0.202  14.588   6.973
24006SOL    HW273793   0.210  14.457   6.896
24007SOL     OW73794   5.792   6.459   6.240
24007SOL    HW173795   5.776   6.535   6.183
24007SOL    HW273796   5.725   6.464   6.307
24008SOL     OW73797   0.877   1.390   0.574
24008SOL    HW173798   0.821   1.395   0.651
24008SOL    HW273799   0.935   1.466   0.581
24009SOL     OW73800   0.420   6.716  13.430
24009SOL    HW173801   0.363   6.738  13.356
24009SOL    HW273802   0.505   6.752  13.406
24010SOL     OW73803   8.237  12.445   9.916
24010SOL    HW173804   8.325  12.406   9.912
24010SOL    HW273805   8.248  12.531   9.876
24011SOL     OW73806  11.770   7.626   8.752
24011SOL    HW173807  11.704   7.589   8.811
24011SOL    HW273808  11.792   7.555   8.692
24012SOL     OW73809   1.335   0.731   3.277
24012SOL    HW173810   1.310   0.665   3.343
24012SOL    HW273811   1.281   0.807   3.298
24013SOL     OW73812   2.461  14.633   3.073
24013SOL    HW173813   2.405  14.690   3.125
24013SOL    HW273814   2.417  14.548   3.075
24014SOL     OW73815   9.437   7.917  10.433
24014SOL    HW173816   9.455   7.851  10.500
24014SOL    HW273817   9.433   7.868  10.351
24015SOL     OW73818  14.494   9.585  13.739
24015SOL    HW173819  14.444   9.650  13.690
24015SOL    HW273820  14.492   9.616  13.829
24016SOL     OW73821   7.332  14.682   8.925
24016SOL    HW173822   7.259  14.620   8.912
24016SOL    HW273823   7.376  14.684   8.840
24017SOL     OW73824   6.265   1.601   9.508
24017SOL    HW173825   6.283   1.654   9.586
24017SOL    HW273826   6.340   1.616   9.451
24018SOL     OW73827  13.744   8.824   3.014
24018SOL    HW173828  13.834   8.798   2.991
24018SOL    HW273829  13.756   8.901   3.070
24019SOL     OW73830   4.865  10.188   3.961
24019SOL    HW173831   4.860  10.235   3.877
24019SOL    HW273832   4.884  10.256   4.025
24020SOL     OW73833   7.869   1.644  10.121
24020SOL    HW173834   7.844   1.553  10.106
24020SOL    HW273835   7.788   1.687  10.150
24021SOL     OW73836   3.731  13.973   3.069
24021SOL    HW173837   3.651  14.025   3.069
24021SOL    HW273838   3.773  13.993   2.985
24022SOL     OW73839   7.399   5.401   4.049
24022SOL    HW173840   7.340   5.377   4.121
24022SOL    HW273841   7.451   5.323   4.034
24023SOL     OW73842   7.394   2.846  10.552
24023SOL    HW173843   7.489   2.846  10.556
24023SOL    HW273844   7.370   2.753  10.543
24024SOL     OW73845   0.833  10.848   0.440
24024SOL    HW173846   0.893  10.908   0.396
24024SOL    HW273847   0.812  10.782   0.373
24025SOL     OW73848   1.720  14.228  10.145
24025SOL    HW173849   1.755  14.214  10.057
24025SOL    HW273850   1.633  14.188  10.143
24026SOL     OW73851   5.171  10.492   2.261
24026SOL    HW173852   5.163  10.516   2.353
24026SOL    HW273853   5.206  10.403   2.262
24027SOL     OW73854  10.258  13.155   5.628
24027SOL    HW173855  10.201  13.109   5.688
24027SOL    HW273856  10.199  13.207   5.573
24028SOL     OW73857   9.301   9.132   5.471
24028SOL    HW173858   9.293   9.208   5.529
24028SOL    HW273859   9.353   9.163   5.398
24029SOL     OW73860   9.009  12.215  14.565
24029SOL    HW173861   8.983  12.193  14.476
24029SOL    HW273862   9.066  12.291  14.556
24030SOL     OW73863   5.875   3.438   0.011
24030SOL    HW173864   5.850   3.479  14.809
24030SOL    HW273865   5.943   3.495   0.046
24031SOL     OW73866   9.061   2.491  10.784
24031SOL    HW173867   9.004   2.456  10.716
24031SOL    HW273868   9.098   2.413  10.827
24032SOL     OW73869  14.735   3.402   7.152
24032SOL    HW173870  14.686   3.351   7.217
24032SOL    HW273871  14.697   3.375   7.068
24033SOL     OW73872  12.950   2.422   5.737
24033SOL    HW173873  12.973   2.340   5.693
24033SOL    HW273874  13.000   2.489   5.691
24034SOL     OW73875  10.604   8.923   3.310
24034SOL    HW173876  10.640   8.892   3.393
24034SOL    HW273877  10.521   8.965   3.334
24035SOL     OW73878  12.662   5.816   0.504
24035SOL    HW173879  12.676   5.904   0.539
24035SOL    HW273880  12.569   5.798   0.521
24036SOL     OW73881   5.133   5.651   0.259
24036SOL    HW173882   5.060   5.592   0.237
24036SOL    HW273883   5.131   5.718   0.191
24037SOL     OW73884   0.589   2.154   1.180
24037SOL    HW173885   0.541   2.122   1.103
24037SOL    HW273886   0.576   2.086   1.246
24038SOL     OW73887  10.754   1.322   2.664
24038SOL    HW173888  10.727   1.280   2.582
24038SOL    HW273889  10.741   1.255   2.731
24039SOL     OW73890   8.183   7.052   4.570
24039SOL    HW173891   8.139   7.119   4.517
24039SOL    HW273892   8.270   7.087   4.585
24040SOL     OW73893  14.251  13.343   3.789
24040SOL    HW173894  14.273  13.250   3.779
24040SOL    HW273895  14.171  13.343   3.842
24041SOL     OW73896   0.217   1.852   7.845
24041SOL    HW173897   0.138   1.892   7.810
24041SOL    HW273898   0.236   1.780   7.785
24042SOL     OW73899   7.684  12.958   9.699
24042SOL    HW173900   7.666  12.909   9.619
24042SOL    HW273901   7.646  12.905   9.769
24043SOL     OW73902   3.564   0.176   0.215
24043SOL    HW173903   3.499   0.127   0.164
24043SOL    HW273904   3.512   0.227   0.277
24044SOL     OW73905  10.801   1.415  12.147
24044SOL    HW173906  10.884   1.459  12.127
24044SOL    HW273907  10.811   1.386  12.238
24045SOL     OW73908  10.754   5.337   2.541
24045SOL    HW173909  10.668   5.327   2.582
24045SOL    HW273910  10.739   5.311   2.450
24046SOL     OW73911   1.901   3.928  12.769
24046SOL    HW173912   1.876   3.995  12.832
24046SOL    HW273913   1.817   3.895  12.735
24047SOL     OW73914   0.506   6.154  10.302
24047SOL    HW173915   0.537   6.106  10.379
24047SOL    HW273916   0.572   6.223  10.289
24048SOL     OW73917  11.685   5.858   5.061
24048SOL    HW173918  11.709   5.767   5.046
24048SOL    HW273919  11.703   5.902   4.979
24049SOL     OW73920  10.794   2.393   2.032
24049SOL    HW173921  10.883   2.380   2.064
24049SOL    HW273922  10.805   2.445   1.952
24050SOL     OW73923   6.141   4.790  11.622
24050SOL    HW173924   6.151   4.832  11.707
24050SOL    HW273925   6.183   4.704  11.632
24051SOL     OW73926   3.693  12.216   3.490
24051SOL    HW173927   3.690  12.268   3.570
24051SOL    HW273928   3.698  12.125   3.521
24052SOL     OW73929   1.245   5.959   4.232
24052SOL    HW173930   1.214   5.956   4.322
24052SOL    HW273931   1.234   5.870   4.200
24053SOL     OW73932   0.282   4.177  12.355
24053SOL    HW173933   0.258   4.229  12.278
24053SOL    HW273934   0.302   4.242  12.422
24054SOL     OW73935  12.083  11.119  11.104
24054SOL    HW173936  12.009  11.175  11.129
24054SOL    HW273937  12.118  11.160  11.024
24055SOL     OW73938   1.396   5.491  13.613
24055SOL    HW173939   1.448   5.507  13.534
24055SOL    HW273940   1.341   5.569  13.622
24056SOL     OW73941  13.649   4.388  14.630
24056SOL    HW173942  13.734   4.344  14.644
24056SOL    HW273943  13.671   4.467  14.580
24057SOL     OW73944   3.815   5.995   1.083
24057SOL    HW173945   3.773   6.020   1.001
24057SOL    HW273946   3.792   6.065   1.145
24058SOL     OW73947  11.417   4.232   3.263
24058SOL    HW173948  11.448   4.302   3.206
24058SOL    HW273949  11.492   4.173   3.272
24059SOL     OW73950   9.668   2.091   7.802
24059SOL    HW173951   9.719   2.019   7.839
24059SOL    HW273952   9.597   2.048   7.755
24060SOL     OW73953   0.257  13.629   8.565
24060SOL    HW173954   0.190  13.645   8.632
24060SOL    HW273955   0.207  13.607   8.487
24061SOL     OW73956   5.126  11.911   4.116
24061SOL    HW173957   5.163  11.921   4.204
24061SOL    HW273958   5.050  11.970   4.116
24062SOL     OW73959   5.062   0.517   2.404
24062SOL    HW173960   5.110   0.536   2.323
24062SOL    HW273961   4.974   0.492   2.375
24063SOL     OW73962   4.708   4.014   3.422
24063SOL    HW173963   4.662   3.930   3.424
24063SOL    HW273964   4.787   3.999   3.474
24064SOL     OW73965  11.024   5.511  13.828
24064SOL    HW173966  10.997   5.565  13.902
24064SOL    HW273967  10.943   5.492  13.781
24065SOL     OW73968  11.573   9.361   7.280
24065SOL    HW173969  11.531   9.383   7.363
24065SOL    HW273970  11.504   9.320   7.228
24066SOL     OW73971  13.376   8.608  10.093
24066SOL    HW173972  13.394   8.669  10.164
24066SOL    HW273973  13.362   8.524  10.136
24067SOL     OW73974   1.481   1.264   3.560
24067SOL    HW173975   1.487   1.201   3.488
24067SOL    HW273976   1.390   1.257   3.590
24068SOL     OW73977   3.107   9.434   8.134
24068SOL    HW173978   3.041   9.397   8.076
24068SOL    HW273979   3.091   9.529   8.132
24069SOL     OW73980  12.652  12.884  12.091
24069SOL    HW173981  12.732  12.855  12.046
24069SOL    HW273982  12.680  12.903  12.180
24070SOL     OW73983  14.643  13.271   1.312
24070SOL    HW173984  14.641  13.229   1.398
24070SOL    HW273985  14.561  13.320   1.307
24071SOL     OW73986   2.732  13.214   8.535
24071SOL    HW173987   2.805  13.217   8.597
24071SOL    HW273988   2.749  13.285   8.474
24072SOL     OW73989  11.165   9.632   0.312
24072SOL    HW173990  11.172   9.682   0.230
24072SOL    HW273991  11.108   9.684   0.368
24073SOL     OW73992   0.468   7.851   4.500
24073SOL    HW173993   0.382   7.855   4.457
24073SOL    HW273994   0.480   7.939   4.537
24074SOL     OW73995   5.653   7.632   4.572
24074SOL    HW173996   5.653   7.537   4.558
24074SOL    HW273997   5.693   7.644   4.658
24075SOL     OW73998   5.744  13.048  11.026
24075SOL    HW173999   5.784  13.073  11.109
24075SOL    HW274000   5.667  12.997  11.051
24076SOL     OW74001   4.307   1.658   5.244
24076SOL    HW174002   4.261   1.594   5.188
24076SOL    HW274003   4.293   1.742   5.201
24077SOL     OW74004   1.325  14.435   3.651
24077SOL    HW174005   1.406  14.385   3.655
24077SOL    HW274006   1.263  14.377   3.608
24078SOL     OW74007   9.621   6.010   1.136
24078SOL    HW174008   9.651   5.991   1.225
24078SOL    HW274009   9.527   6.028   1.146
24079SOL     OW74010  13.839   6.769  13.268
24079SOL    HW174011  13.822   6.677  13.286
24079SOL    HW274012  13.864   6.806  13.353
24080SOL     OW74013   4.396   1.688   9.038
24080SOL    HW174014   4.396   1.592   9.034
24080SOL    HW274015   4.339   1.714   8.966
24081SOL     OW74016  10.453  12.070   0.044
24081SOL    HW174017  10.365  12.097   0.071
24081SOL    HW274018  10.454  11.975   0.059
24082SOL     OW74019   0.055   8.712   1.897
24082SOL    HW174020  14.872   8.769   1.856
24082SOL    HW274021   0.042   8.724   1.991
24083SOL     OW74022   1.612   1.296   7.098
24083SOL    HW174023   1.605   1.310   7.192
24083SOL    HW274024   1.523   1.275   7.070
24084SOL     OW74025   2.404   9.459  11.427
24084SOL    HW174026   2.492   9.429  11.449
24084SOL    HW274027   2.398   9.448  11.332
24085SOL     OW74028  13.520   1.257   4.848
24085SOL    HW174029  13.516   1.332   4.907
24085SOL    HW274030  13.611   1.252   4.821
24086SOL     OW74031   3.039   6.092   3.635
24086SOL    HW174032   2.970   6.078   3.570
24086SOL    HW274033   2.993   6.092   3.719
24087SOL     OW74034   3.898  13.112   1.490
24087SOL    HW174035   3.906  13.029   1.444
24087SOL    HW274036   3.805  13.119   1.512
24088SOL     OW74037   8.568   4.955   4.347
24088SOL    HW174038   8.547   4.877   4.295
24088SOL    HW274039   8.602   4.920   4.430
24089SOL     OW74040   1.168   2.699   5.136
24089SOL    HW174041   1.205   2.776   5.092
24089SOL    HW274042   1.114   2.735   5.206
24090SOL     OW74043   9.116  12.155   3.524
24090SOL    HW174044   9.187  12.097   3.501
24090SOL    HW274045   9.121  12.228   3.462
24091SOL     OW74046  12.428   8.334   4.643
24091SOL    HW174047  12.375   8.288   4.708
24091SOL    HW274048  12.458   8.265   4.583
24092SOL     OW74049  10.594  14.588   4.848
24092SOL    HW174050  10.589  14.683   4.844
24092SOL    HW274051  10.503  14.558   4.848
24093SOL     OW74052   0.770   9.440  10.340
24093SOL    HW174053   0.809   9.435  10.252
24093SOL    HW274054   0.676   9.446  10.324
24094SOL     OW74055   3.732   7.763   1.767
24094SOL    HW174056   3.729   7.668   1.781
24094SOL    HW274057   3.643   7.793   1.786
24095SOL     OW74058  13.272   3.417   9.275
24095SOL    HW174059  13.246   3.389   9.363
24095SOL    HW274060  13.327   3.345   9.243
24096SOL     OW74061   1.790  12.412   0.333
24096SOL    HW174062   1.729  12.379   0.400
24096SOL    HW274063   1.860  12.453   0.383
24097SOL     OW74064   3.426   0.213   9.733
24097SOL    HW174065   3.400   0.305   9.730
24097SOL    HW274066   3.515   0.214   9.769
24098SOL     OW74067   7.704   8.339   1.959
24098SOL    HW174068   7.616   8.376   1.957
24098SOL    HW274069   7.756   8.404   2.006
24099SOL     OW74070   1.460   3.408   0.447
24099SOL    HW174071   1.446   3.457   0.529
24099SOL    HW274072   1.375   3.410   0.403
24100SOL     OW74073  10.039   8.238   3.277
24100SOL    HW174074  10.056   8.248   3.371
24100SOL    HW274075  10.108   8.179   3.246
24101SOL     OW74076   5.262  11.612   1.007
24101SOL    HW174077   5.215  11.584   0.928
24101SOL    HW274078   5.316  11.536   1.030
24102SOL     OW74079   6.742  14.346   4.574
24102SOL    HW174080   6.821  14.365   4.626
24102SOL    HW274081   6.692  14.285   4.628
24103SOL     OW74082   8.191   4.737   6.624
24103SOL    HW174083   8.210   4.770   6.536
24103SOL    HW274084   8.240   4.795   6.682
24104SOL     OW74085  13.598  13.409  14.204
24104SOL    HW174086  13.573  13.488  14.252
24104SOL    HW274087  13.682  13.384  14.242
24105SOL     OW74088   7.311   4.275   9.273
24105SOL    HW174089   7.388   4.221   9.296
24105SOL    HW274090   7.325   4.358   9.318
24106SOL     OW74091  10.758   4.047   2.766
24106SOL    HW174092  10.753   4.014   2.676
24106SOL    HW274093  10.762   4.142   2.757
24107SOL     OW74094   4.876  13.937   9.014
24107SOL    HW174095   4.935  13.878   8.966
24107SOL    HW274096   4.927  14.016   9.028
24108SOL     OW74097   2.418   6.454  11.434
24108SOL    HW174098   2.369   6.428  11.512
24108SOL    HW274099   2.358   6.438  11.361
24109SOL     OW74100  13.633   8.913   8.165
24109SOL    HW174101  13.679   8.832   8.145
24109SOL    HW274102  13.677   8.948   8.242
24110SOL     OW74103   7.168   2.453   3.908
24110SOL    HW174104   7.209   2.487   3.987
24110SOL    HW274105   7.156   2.359   3.926
24111SOL     OW74106   9.958   2.103   3.506
24111SOL    HW174107   9.963   2.198   3.495
24111SOL    HW274108  10.040   2.070   3.470
24112SOL     OW74109   5.625  13.231   9.980
24112SOL    HW174110   5.661  13.225   9.891
24112SOL    HW274111   5.621  13.325   9.997
24113SOL     OW74112   6.614   2.607  14.034
24113SOL    HW174113   6.697   2.602  14.083
24113SOL    HW274114   6.551   2.562  14.090
24114SOL     OW74115  12.164  12.918   1.982
24114SOL    HW174116  12.203  12.879   2.060
24114SOL    HW274117  12.172  12.850   1.915
24115SOL     OW74118   3.326   8.827   5.358
24115SOL    HW174119   3.295   8.871   5.437
24115SOL    HW274120   3.282   8.741   5.360
24116SOL     OW74121   3.869   1.248   0.832
24116SOL    HW174122   3.776   1.272   0.828
24116SOL    HW274123   3.869   1.163   0.875
24117SOL     OW74124   1.306  10.316   1.752
24117SOL    HW174125   1.240  10.258   1.790
24117SOL    HW274126   1.389  10.282   1.784
24118SOL     OW74127   4.519   7.621   9.379
24118SOL    HW174128   4.540   7.686   9.446
24118SOL    HW274129   4.583   7.551   9.392
24119SOL     OW74130  10.354   8.791   6.972
24119SOL    HW174131  10.315   8.772   6.887
24119SOL    HW274132  10.447   8.775   6.961
24120SOL     OW74133  10.950   5.216   5.186
24120SOL    HW174134  10.950   5.141   5.128
24120SOL    HW274135  11.039   5.250   5.182
24121SOL     OW74136   8.422  14.296   8.585
24121SOL    HW174137   8.401  14.318   8.675
24121SOL    HW274138   8.506  14.249   8.590
24122SOL     OW74139   4.221  11.273   0.169
24122SOL    HW174140   4.224  11.182   0.140
24122SOL    HW274141   4.309  11.306   0.152
24123SOL     OW74142  11.568  13.078   0.666
24123SOL    HW174143  11.622  13.058   0.743
24123SOL    HW274144  11.548  12.992   0.628
24124SOL     OW74145  10.913  14.476   9.760
24124SOL    HW174146  10.989  14.501   9.708
24124SOL    HW274147  10.851  14.548   9.749
24125SOL     OW74148   5.436  11.344   0.990
24125SOL    HW174149   5.451  11.353   1.084
24125SOL    HW274150   5.358  11.288   0.983
24126SOL     OW74151   0.049   0.028   7.679
24126SOL    HW174152   0.111   0.086   7.723
24126SOL    HW274153  14.849   0.077   7.677
24127SOL     OW74154   4.330  10.218   3.785
24127SOL    HW174155   4.252  10.223   3.841
24127SOL    HW274156   4.394  10.272   3.830
24128SOL     OW74157   9.644  13.838   1.372
24128SOL    HW174158   9.663  13.925   1.337
24128SOL    HW274159   9.707  13.827   1.443
24129SOL     OW74160   8.900   4.705   2.763
24129SOL    HW174161   8.871   4.791   2.794
24129SOL    HW274162   8.924   4.720   2.671
24130SOL     OW74163  12.352   8.999  13.359
24130SOL    HW174164  12.394   8.945  13.425
24130SOL    HW274165  12.262   9.011  13.391
24131SOL     OW74166  12.127   3.000   3.140
24131SOL    HW174167  12.106   2.924   3.084
24131SOL    HW274168  12.221   2.993   3.155
24132SOL     OW74169   9.907   9.735   6.806
24132SOL    HW174170   9.890   9.781   6.724
24132SOL    HW274171   9.900   9.642   6.783
24133SOL     OW74172  11.217   1.823   9.156
24133SOL    HW174173  11.285   1.762   9.127
24133SOL    HW274174  11.231   1.830   9.251
24134SOL     OW74175   1.589  10.812   4.897
24134SOL    HW174176   1.633  10.728   4.890
24134SOL    HW274177   1.545  10.810   4.982
24135SOL     OW74178   6.909   3.557  11.145
24135SOL    HW174179   6.827   3.512  11.162
24135SOL    HW274180   6.974   3.510  11.197
24136SOL     OW74181   1.547   4.881  12.545
24136SOL    HW174182   1.530   4.890  12.451
24136SOL    HW274183   1.461   4.867  12.583
24137SOL     OW74184   2.783  12.153   7.435
24137SOL    HW174185   2.731  12.073   7.434
24137SOL    HW274186   2.733  12.215   7.380
24138SOL     OW74187   0.025   2.129   7.036
24138SOL    HW174188  14.861   2.185   7.099
24138SOL    HW274189   0.110   2.111   7.076
24139SOL     OW74190  14.561  13.428   5.571
24139SOL    HW174191  14.479  13.471   5.594
24139SOL    HW274192  14.558  13.344   5.617
24140SOL     OW74193   2.165   9.963  10.317
24140SOL    HW174194   2.104   9.943  10.388
24140SOL    HW274195   2.224   9.888  10.314
24141SOL     OW74196   9.507   7.857   4.579
24141SOL    HW174197   9.413   7.871   4.571
24141SOL    HW274198   9.546   7.931   4.532
24142SOL     OW74199   1.922   3.147   1.625
24142SOL    HW174200   2.015   3.137   1.604
24142SOL    HW274201   1.892   3.220   1.571
24143SOL     OW74202  10.732   3.529   7.264
24143SOL    HW174203  10.697   3.560   7.181
24143SOL    HW274204  10.657   3.492   7.310
24144SOL     OW74205  11.814  14.694   5.625
24144SOL    HW174206  11.729  14.652   5.638
24144SOL    HW274207  11.808  14.776   5.673
24145SOL     OW74208   4.515  10.546   1.093
24145SOL    HW174209   4.461  10.571   1.019
24145SOL    HW274210   4.598  10.592   1.079
24146SOL     OW74211   7.785   2.613   6.134
24146SOL    HW174212   7.826   2.531   6.161
24146SOL    HW274213   7.700   2.587   6.099
24147SOL     OW74214  14.223   3.811  12.306
24147SOL    HW174215  14.289   3.878  12.326
24147SOL    HW274216  14.261   3.761  12.234
24148SOL     OW74217   3.296   5.421   5.078
24148SOL    HW174218   3.269   5.413   4.986
24148SOL    HW274219   3.357   5.349   5.092
24149SOL     OW74220   7.120   8.358   7.357
24149SOL    HW174221   7.096   8.271   7.390
24149SOL    HW274222   7.065   8.418   7.406
24150SOL     OW74223  13.790   9.551  14.110
24150SOL    HW174224  13.728   9.497  14.060
24150SOL    HW274225  13.787   9.514  14.198
24151SOL     OW74226   0.892   6.576   1.793
24151SOL    HW174227   0.940   6.657   1.810
24151SOL    HW274228   0.802   6.603   1.778
24152SOL     OW74229   7.972  14.590   5.615
24152SOL    HW174230   7.920  14.648   5.560
24152SOL    HW274231   7.910  14.556   5.680
24153SOL     OW74232   7.287   8.069  13.059
24153SOL    HW174233   7.219   8.099  12.998
24153SOL    HW274234   7.325   8.150  13.093
24154SOL     OW74235  11.339  10.617   4.685
24154SOL    HW174236  11.260  10.564   4.673
24154SOL    HW274237  11.307  10.701   4.718
24155SOL     OW74238   2.134   7.666   1.792
24155SOL    HW174239   2.092   7.730   1.735
24155SOL    HW274240   2.215   7.709   1.820
24156SOL     OW74241   9.819  13.706  10.283
24156SOL    HW174242   9.833  13.779  10.343
24156SOL    HW274243   9.724  13.703  10.270
24157SOL     OW74244   1.872   5.480   9.863
24157SOL    HW174245   1.887   5.444   9.951
24157SOL    HW274246   1.857   5.403   9.808
24158SOL     OW74247   5.457   5.937  11.314
24158SOL    HW174248   5.440   5.968  11.402
24158SOL    HW274249   5.470   5.842  11.324
24159SOL     OW74250   6.815  11.566  10.454
24159SOL    HW174251   6.741  11.594  10.508
24159SOL    HW274252   6.844  11.645  10.410
24160SOL     OW74253   4.337   4.775   2.629
24160SOL    HW174254   4.356   4.684   2.606
24160SOL    HW274255   4.406   4.825   2.586
24161SOL     OW74256   1.923  12.658   7.510
24161SOL    HW174257   1.971  12.736   7.481
24161SOL    HW274258   1.976  12.585   7.479
24162SOL     OW74259   6.587  11.285   1.635
24162SOL    HW174260   6.509  11.328   1.669
24162SOL    HW274261   6.593  11.314   1.545
24163SOL     OW74262   5.346   3.812   0.371
24163SOL    HW174263   5.309   3.814   0.459
24163SOL    HW274264   5.288   3.867   0.319
24164SOL     OW74265  12.526   0.235   3.971
24164SOL    HW174266  12.543   0.245   3.877
24164SOL    HW274267  12.612   0.224   4.010
24165SOL     OW74268   7.760   7.523  12.019
24165SOL    HW174269   7.829   7.582  11.990
24165SOL    HW274270   7.784   7.437  11.984
24166SOL     OW74271   8.618  10.485  12.209
24166SOL    HW174272   8.544  10.464  12.152
24166SOL    HW274273   8.640  10.576  12.188
24167SOL     OW74274   3.000   7.112   4.621
24167SOL    HW174275   3.047   7.062   4.554
24167SOL    HW274276   3.018   7.067   4.703
24168SOL     OW74277  10.842  11.796   9.703
24168SOL    HW174278  10.810  11.776   9.791
24168SOL    HW274279  10.780  11.860   9.669
24169SOL     OW74280   5.148   3.137  14.082
24169SOL    HW174281   5.070   3.166  14.035
24169SOL    HW274282   5.177   3.059  14.034
24170SOL     OW74283   6.777   0.490   9.005
24170SOL    HW174284   6.854   0.434   8.998
24170SOL    HW274285   6.756   0.514   8.915
24171SOL     OW74286   0.498   9.018  12.511
24171SOL    HW174287   0.510   9.043  12.420
24171SOL    HW274288   0.587   9.012  12.546
24172SOL     OW74289  10.549   6.086  13.040
24172SOL    HW174290  10.527   6.073  12.947
24172SOL    HW274291  10.464   6.094  13.084
24173SOL     OW74292  10.776   8.652  14.589
24173SOL    HW174293  10.812   8.741  14.593
24173SOL    HW274294  10.851   8.596  14.567
24174SOL     OW74295  14.114   0.050   3.615
24174SOL    HW174296  14.021   0.025   3.614
24174SOL    HW274297  14.146   0.026   3.528
24175SOL     OW74298  13.604   0.629  10.601
24175SOL    HW174299  13.700   0.628  10.600
24175SOL    HW274300  13.581   0.678  10.680
24176SOL     OW74301   4.025  14.117   7.753
24176SOL    HW174302   3.935  14.085   7.760
24176SOL    HW274303   4.062  14.104   7.840
24177SOL     OW74304  11.820  11.513   0.864
24177SOL    HW174305  11.733  11.545   0.888
24177SOL    HW274306  11.857  11.481   0.946
24178SOL     OW74307   3.652   2.406   4.152
24178SOL    HW174308   3.615   2.491   4.176
24178SOL    HW274309   3.706   2.381   4.227
24179SOL     OW74310  10.107  12.630   0.572
24179SOL    HW174311  10.048  12.607   0.500
24179SOL    HW274312  10.145  12.714   0.545
24180SOL     OW74313   5.028  13.694   1.939
24180SOL    HW174314   4.969  13.632   1.982
24180SOL    HW274315   5.007  13.779   1.977
24181SOL     OW74316   1.574  12.103   0.805
24181SOL    HW174317   1.521  12.082   0.728
24181SOL    HW274318   1.555  12.032   0.866
24182SOL     OW74319   4.712   9.132  13.716
24182SOL    HW174320   4.677   9.111  13.802
24182SOL    HW274321   4.781   9.068  13.701
24183SOL     OW74322  11.150   4.157   8.179
24183SOL    HW174323  11.136   4.082   8.236
24183SOL    HW274324  11.074   4.158   8.121
24184SOL     OW74325   1.010   4.422   1.596
24184SOL    HW174326   1.106   4.417   1.599
24184SOL    HW274327   0.986   4.360   1.527
24185SOL     OW74328  11.805  10.536  14.444
24185SOL    HW174329  11.747  10.486  14.387
24185SOL    HW274330  11.806  10.624  14.407
24186SOL     OW74331  14.858  13.225   4.316
24186SOL    HW174332  14.765  13.216   4.291
24186SOL    HW274333  14.861  13.306   4.367
24187SOL     OW74334   6.894   7.813  10.123
24187SOL    HW174335   6.821   7.873  10.141
24187SOL    HW274336   6.903   7.764  10.205
24188SOL     OW74337   1.505   2.790   8.916
24188SOL    HW174338   1.537   2.803   9.005
24188SOL    HW274339   1.489   2.878   8.883
24189SOL     OW74340   8.200  11.629  14.081
24189SOL    HW174341   8.134  11.666  14.140
24189SOL    HW274342   8.159  11.629  13.995
24190SOL     OW74343   6.525   2.381  11.663
24190SOL    HW174344   6.603   2.364  11.609
24190SOL    HW274345   6.549   2.349  11.750
24191SOL     OW74346   9.050   6.867   5.565
24191SOL    HW174347   8.988   6.937   5.582
24191SOL    HW274348   9.083   6.842   5.651
24192SOL     OW74349   9.036   3.025   1.960
24192SOL    HW174350   9.099   3.080   2.006
24192SOL    HW274351   9.089   2.975   1.898
24193SOL     OW74352   1.500  12.526   6.438
24193SOL    HW174353   1.558  12.602   6.430
24193SOL    HW274354   1.551  12.453   6.404
24194SOL     OW74355   2.550   3.046   8.231
24194SOL    HW174356   2.470   3.095   8.214
24194SOL    HW274357   2.611   3.111   8.265
24195SOL     OW74358   6.571  13.864   7.554
24195SOL    HW174359   6.540  13.782   7.515
24195SOL    HW274360   6.546  13.931   7.490
24196SOL     OW74361  11.220  12.109   3.466
24196SOL    HW174362  11.266  12.170   3.408
24196SOL    HW274363  11.144  12.157   3.498
24197SOL     OW74364  13.866   5.622   2.280
24197SOL    HW174365  13.785   5.571   2.287
24197SOL    HW274366  13.930   5.560   2.243
24198SOL     OW74367   0.052  14.492  11.351
24198SOL    HW174368   0.125  14.544  11.384
24198SOL    HW274369  14.857  14.547  11.365
24199SOL     OW74370   7.000   7.430  13.894
24199SOL    HW174371   7.039   7.441  13.808
24199SOL    HW274372   6.987   7.519  13.927
24200SOL     OW74373   0.670  10.281   6.849
24200SOL    HW174374   0.755  10.279   6.893
24200SOL    HW274375   0.645  10.189   6.840
24201SOL     OW74376  13.718   2.572  12.726
24201SOL    HW174377  13.789   2.615  12.679
24201SOL    HW274378  13.736   2.478  12.716
24202SOL     OW74379   7.076  12.270   5.976
24202SOL    HW174380   7.057  12.273   5.882
24202SOL    HW274381   7.166  12.240   5.981
24203SOL     OW74382   8.772   2.772  12.496
24203SOL    HW174383   8.745   2.858  12.463
24203SOL    HW274384   8.859   2.787  12.534
24204SOL     OW74385  10.251   5.121   6.718
24204SOL    HW174386  10.180   5.107   6.654
24204SOL    HW274387  10.276   5.212   6.706
24205SOL     OW74388   0.388   3.347   4.416
24205SOL    HW174389   0.388   3.254   4.393
24205SOL    HW274390   0.480   3.373   4.414
24206SOL     OW74391   9.863  13.957   0.664
24206SOL    HW174392   9.935  14.008   0.702
24206SOL    HW274393   9.884  13.951   0.571
24207SOL     OW74394   5.972  14.130   5.387
24207SOL    HW174395   5.965  14.210   5.334
24207SOL    HW274396   5.891  14.128   5.438
24208SOL     OW74397  10.526  13.056  11.261
24208SOL    HW174398  10.600  13.115  11.246
24208SOL    HW274399  10.565  12.969  11.264
24209SOL     OW74400   5.104   2.137  11.454
24209SOL    HW174401   5.094   2.231  11.442
24209SOL    HW274402   5.017   2.106  11.479
24210SOL     OW74403  11.505   5.385  14.823
24210SOL    HW174404  11.581   5.442  14.812
24210SOL    HW274405  11.482   5.359  14.733
24211SOL     OW74406   0.333  14.025   6.550
24211SOL    HW174407   0.362  13.942   6.513
24211SOL    HW274408   0.401  14.048   6.612
24212SOL     OW74409  11.951  13.861  12.910
24212SOL    HW174410  11.925  13.807  12.985
24212SOL    HW274411  11.875  13.917  12.893
24213SOL     OW74412   5.521   6.548  12.135
24213SOL    HW174413   5.595   6.602  12.164
24213SOL    HW274414   5.553   6.458  12.143
24214SOL     OW74415   3.853  10.987   2.216
24214SOL    HW174416   3.933  11.040   2.211
24214SOL    HW274417   3.837  10.959   2.127
24215SOL     OW74418  12.354  10.810  12.411
24215SOL    HW174419  12.424  10.872  12.392
24215SOL    HW274420  12.322  10.782  12.325
24216SOL     OW74421   8.840   5.978  10.152
24216SOL    HW174422   8.822   5.977  10.058
24216SOL    HW274423   8.929   5.944  10.160
24217SOL     OW74424  13.533   0.720  10.850
24217SOL    HW174425  13.591   0.778  10.899
24217SOL    HW274426  13.480   0.677  10.916
24218SOL     OW74427  10.679   0.735  14.385
24218SOL    HW174428  10.606   0.758  14.328
24218SOL    HW274429  10.751   0.792  14.357
24219SOL     OW74430   6.051   5.855  11.272
24219SOL    HW174431   5.978   5.813  11.317
24219SOL    HW274432   6.019   5.873  11.184
24220SOL     OW74433   2.238   2.692  12.327
24220SOL    HW174434   2.211   2.777  12.362
24220SOL    HW274435   2.267   2.712  12.237
24221SOL     OW74436   2.480   6.673  12.267
24221SOL    HW174437   2.409   6.612  12.246
24221SOL    HW274438   2.434   6.752  12.297
24222SOL     OW74439   0.405   8.859  12.112
24222SOL    HW174440   0.450   8.843  12.195
24222SOL    HW274441   0.368   8.774  12.088
24223SOL     OW74442   4.638   7.150   9.483
24223SOL    HW174443   4.733   7.141   9.489
24223SOL    HW274444   4.624   7.242   9.465
24224SOL     OW74445   8.301   4.894   9.258
24224SOL    HW174446   8.289   4.961   9.326
24224SOL    HW274447   8.382   4.850   9.282
24225SOL     OW74448  11.698   0.934  10.511
24225SOL    HW174449  11.646   0.944  10.431
24225SOL    HW274450  11.698   0.840  10.528
24226SOL     OW74451   8.776   4.488  12.228
24226SOL    HW174452   8.721   4.420  12.188
24226SOL    HW274453   8.771   4.562  12.167
24227SOL     OW74454   5.864   9.545   3.379
24227SOL    HW174455   5.937   9.527   3.321
24227SOL    HW274456   5.881   9.492   3.457
24228SOL     OW74457   6.654   3.620  13.804
24228SOL    HW174458   6.674   3.666  13.722
24228SOL    HW274459   6.603   3.544  13.777
24229SOL     OW74460  14.668   0.002  10.828
24229SOL    HW174461  14.672  14.822  10.901
24229SOL    HW274462  14.750  14.870  10.781
24230SOL     OW74463   4.303   3.013   9.970
24230SOL    HW174464   4.373   2.988   9.910
24230SOL    HW274465   4.223   2.987   9.924
24231SOL     OW74466  10.764   7.156   1.359
24231SOL    HW174467  10.780   7.074   1.312
24231SOL    HW274468  10.681   7.141   1.405
24232SOL     OW74469  14.087   0.522   5.538
24232SOL    HW174470  14.162   0.491   5.589
24232SOL    HW274471  14.059   0.446   5.487
24233SOL     OW74472  12.293  11.403   9.855
24233SOL    HW174473  12.327  11.492   9.849
24233SOL    HW274474  12.218  11.403   9.795
24234SOL     OW74475   5.004   3.346   0.209
24234SOL    HW174476   5.070   3.397   0.256
24234SOL    HW274477   4.970   3.284   0.274
24235SOL     OW74478   7.781   9.190  13.767
24235SOL    HW174479   7.816   9.212  13.854
24235SOL    HW274480   7.853   9.204  13.707
24236SOL     OW74481  12.110  10.773  10.173
24236SOL    HW174482  12.056  10.702  10.207
24236SOL    HW274483  12.193  10.732  10.151
24237SOL     OW74484   7.622   0.471   0.284
24237SOL    HW174485   7.662   0.387   0.307
24237SOL    HW274486   7.530   0.462   0.306
24238SOL     OW74487   0.159   1.252  12.862
24238SOL    HW174488   0.081   1.306  12.844
24238SOL    HW274489   0.218   1.310  12.909
24239SOL     OW74490   4.637   3.776   6.058
24239SOL    HW174491   4.686   3.712   6.109
24239SOL    HW274492   4.653   3.752   5.967
24240SOL     OW74493   5.353   2.127   6.199
24240SOL    HW174494   5.435   2.129   6.150
24240SOL    HW274495   5.306   2.206   6.170
24241SOL     OW74496   1.883   0.259   9.057
24241SOL    HW174497   1.943   0.306   8.999
24241SOL    HW274498   1.819   0.324   9.084
24242SOL     OW74499   2.635  13.612   5.285
24242SOL    HW174500   2.601  13.669   5.216
24242SOL    HW274501   2.722  13.645   5.304
24243SOL     OW74502   1.780  10.218   0.891
24243SOL    HW174503   1.691  10.238   0.921
24243SOL    HW274504   1.830  10.204   0.972
24244SOL     OW74505   2.687   1.942   9.015
24244SOL    HW174506   2.688   1.928   9.110
24244SOL    HW274507   2.756   1.885   8.982
24245SOL     OW74508   2.319   8.812   2.622
24245SOL    HW174509   2.411   8.803   2.600
24245SOL    HW274510   2.318   8.826   2.717
24246SOL     OW74511  14.474  14.809   6.000
24246SOL    HW174512  14.486  14.715   5.984
24246SOL    HW274513  14.381  14.824   5.987
24247SOL     OW74514  11.924   1.709   3.158
24247SOL    HW174515  11.835   1.744   3.152
24247SOL    HW274516  11.914   1.629   3.209
24248SOL     OW74517   0.435  14.161   4.142
24248SOL    HW174518   0.463  14.182   4.231
24248SOL    HW274519   0.516  14.143   4.095
24249SOL     OW74520   0.708   6.632   7.582
24249SOL    HW174521   0.616   6.647   7.561
24249SOL    HW274522   0.712   6.636   7.678
24250SOL     OW74523   4.644   4.700  11.599
24250SOL    HW174524   4.722   4.666  11.556
24250SOL    HW274525   4.657   4.795  11.599
24251SOL     OW74526   6.505   7.279   5.617
24251SOL    HW174527   6.440   7.305   5.552
24251SOL    HW274528   6.460   7.288   5.701
24252SOL     OW74529   0.384   5.468  11.278
24252SOL    HW174530   0.479   5.466  11.295
24252SOL    HW274531   0.346   5.413  11.346
24253SOL     OW74532  10.934   8.787  11.946
24253SOL    HW174533  11.003   8.744  11.894
24253SOL    HW274534  10.931   8.737  12.027
24254SOL     OW74535   6.905   0.976   8.758
24254SOL    HW174536   6.812   0.980   8.734
24254SOL    HW274537   6.906   0.934   8.844
24255SOL     OW74538   9.062  14.572   9.823
24255SOL    HW174539   9.026  14.613   9.744
24255SOL    HW274540   9.060  14.642   9.889
24256SOL     OW74541   4.893   9.791   9.522
24256SOL    HW174542   4.853   9.847   9.456
24256SOL    HW274543   4.849   9.707   9.512
24257SOL     OW74544   8.140  13.873   4.244
24257SOL    HW174545   8.168  13.782   4.234
24257SOL    HW274546   8.077  13.871   4.315
24258SOL     OW74547  12.546   4.503   6.350
24258SOL    HW174548  12.465   4.525   6.397
24258SOL    HW274549  12.574   4.586   6.311
24259SOL     OW74550   2.383   7.221   4.437
24259SOL    HW174551   2.348   7.251   4.353
24259SOL    HW274552   2.419   7.299   4.478
24260SOL     OW74553  11.964  14.758   4.344
24260SOL    HW174554  12.059  14.750   4.349
24260SOL    HW274555  11.930  14.691   4.403
24261SOL     OW74556   2.179  10.958   1.952
24261SOL    HW174557   2.099  11.000   1.983
24261SOL    HW274558   2.238  10.959   2.027
24262SOL     OW74559  12.121   6.923   2.193
24262SOL    HW174560  12.173   6.974   2.131
24262SOL    HW274561  12.099   6.842   2.147
24263SOL     OW74562   6.465   2.892  12.496
24263SOL    HW174563   6.396   2.876  12.561
24263SOL    HW274564   6.501   2.977  12.520
24264SOL     OW74565  13.764  10.957  11.452
24264SOL    HW174566  13.731  10.946  11.363
24264SOL    HW274567  13.857  10.936  11.446
24265SOL     OW74568   4.400  14.079  11.380
24265SOL    HW174569   4.446  14.138  11.440
24265SOL    HW274570   4.360  14.136  11.315
24266SOL     OW74571   5.271   8.364   3.232
24266SOL    HW174572   5.275   8.429   3.302
24266SOL    HW274573   5.357   8.321   3.235
24267SOL     OW74574   3.186   7.193   0.190
24267SOL    HW174575   3.216   7.131   0.257
24267SOL    HW274576   3.103   7.156   0.159
24268SOL     OW74577   9.732   3.066   1.108
24268SOL    HW174578   9.660   3.104   1.158
24268SOL    HW274579   9.795   3.137   1.097
24269SOL     OW74580   2.435   2.261  10.600
24269SOL    HW174581   2.482   2.336  10.638
24269SOL    HW274582   2.504   2.205  10.566
24270SOL     OW74583   9.540  10.074   1.036
24270SOL    HW174584   9.467  10.029   0.992
24270SOL    HW274585   9.575  10.008   1.096
24271SOL     OW74586  12.785   2.821   6.701
24271SOL    HW174587  12.873   2.842   6.730
24271SOL    HW274588  12.734   2.813   6.782
24272SOL     OW74589  10.863   0.278   2.316
24272SOL    HW174590  10.858   0.345   2.384
24272SOL    HW274591  10.929   0.216   2.347
24273SOL     OW74592  11.244  11.851   0.505
24273SOL    HW174593  11.186  11.865   0.580
24273SOL    HW274594  11.306  11.784   0.535
24274SOL     OW74595  12.385   7.447   0.085
24274SOL    HW174596  12.432   7.529   0.101
24274SOL    HW274597  12.305   7.474   0.041
24275SOL     OW74598   0.245   1.010   5.258
24275SOL    HW174599   0.264   0.916   5.248
24275SOL    HW274600   0.326   1.054   5.234
24276SOL     OW74601   3.914   2.716  14.856
24276SOL    HW174602   3.987   2.746  14.801
24276SOL    HW274603   3.835   2.744  14.808
24277SOL     OW74604   5.428   9.879   7.495
24277SOL    HW174605   5.354   9.900   7.439
24277SOL    HW274606   5.403   9.797   7.538
24278SOL     OW74607   9.708   1.575   9.410
24278SOL    HW174608   9.619   1.550   9.384
24278SOL    HW274609   9.752   1.596   9.327
24279SOL     OW74610   6.755   6.581   9.574
24279SOL    HW174611   6.796   6.656   9.532
24279SOL    HW274612   6.782   6.588   9.666
24280SOL     OW74613   0.415  13.207   8.375
24280SOL    HW174614   0.351  13.189   8.306
24280SOL    HW274615   0.429  13.122   8.417
24281SOL     OW74616  13.433   9.302  11.857
24281SOL    HW174617  13.366   9.260  11.804
24281SOL    HW274618  13.423   9.262  11.944
24282SOL     OW74619   9.142  10.494   3.975
24282SOL    HW174620   9.171  10.577   4.012
24282SOL    HW274621   9.121  10.439   4.051
24283SOL     OW74622   1.896   8.687   7.152
24283SOL    HW174623   1.903   8.657   7.062
24283SOL    HW274624   1.894   8.782   7.146
24284SOL     OW74625  10.174  13.325   1.575
24284SOL    HW174626  10.118  13.248   1.586
24284SOL    HW274627  10.114  13.399   1.581
24285SOL     OW74628  12.282   5.234   8.912
24285SOL    HW174629  12.261   5.169   8.844
24285SOL    HW274630  12.251   5.317   8.876
24286SOL     OW74631  14.559  10.946  11.476
24286SOL    HW174632  14.613  10.915  11.549
24286SOL    HW274633  14.615  11.009  11.430
24287SOL     OW74634   1.240   3.047   7.249
24287SOL    HW174635   1.273   2.973   7.300
24287SOL    HW274636   1.239   3.120   7.311
24288SOL     OW74637   2.972   0.049  14.195
24288SOL    HW174638   2.898   0.030  14.138
24288SOL    HW274639   2.993   0.141  14.178
24289SOL     OW74640   5.266  11.019   6.582
24289SOL    HW174641   5.244  10.928   6.564
24289SOL    HW274642   5.189  11.069   6.556
24290SOL     OW74643   6.272  11.515  13.029
24290SOL    HW174644   6.333  11.566  13.082
24290SOL    HW274645   6.198  11.574  13.013
24291SOL     OW74646   8.231  14.534   7.434
24291SOL    HW174647   8.234  14.440   7.450
24291SOL    HW274648   8.150  14.548   7.385
24292SOL     OW74649   5.648  11.787   3.624
24292SOL    HW174650   5.680  11.726   3.558
24292SOL    HW274651   5.610  11.860   3.574
24293SOL     OW74652   1.353   9.998   1.010
24293SOL    HW174653   1.310   9.916   0.986
24293SOL    HW274654   1.404   9.976   1.088
24294SOL     OW74655   5.936   6.172   0.812
24294SOL    HW174656   5.867   6.115   0.845
24294SOL    HW274657   5.942   6.152   0.719
24295SOL     OW74658   2.685  10.389   2.610
24295SOL    HW174659   2.759  10.406   2.668
24295SOL    HW274660   2.715  10.418   2.524
24296SOL     OW74661  12.860   8.124  12.637
24296SOL    HW174662  12.875   8.156  12.726
24296SOL    HW274663  12.866   8.029  12.645
24297SOL     OW74664   0.395   8.796   7.686
24297SOL    HW174665   0.363   8.861   7.749
24297SOL    HW274666   0.402   8.843   7.604
24298SOL     OW74667  12.642   2.207   6.710
24298SOL    HW174668  12.553   2.240   6.699
24298SOL    HW274669  12.679   2.208   6.622
24299SOL     OW74670  12.896   8.804   0.121
24299SOL    HW174671  12.970   8.865   0.118
24299SOL    HW274672  12.828   8.851   0.169
24300SOL     OW74673   1.154   4.350   4.949
24300SOL    HW174674   1.204   4.428   4.926
24300SOL    HW274675   1.184   4.283   4.887
24301SOL     OW74676   6.355  11.771   6.833
24301SOL    HW174677   6.316  11.857   6.849
24301SOL    HW274678   6.386  11.743   6.919
24302SOL     OW74679   2.294   3.068   5.894
24302SOL    HW174680   2.277   3.047   5.802
24302SOL    HW274681   2.211   3.103   5.926
24303SOL     OW74682   6.351   9.332  11.534
24303SOL    HW174683   6.416   9.354  11.468
24303SOL    HW274684   6.276   9.387  11.514
24304SOL     OW74685   6.028  12.279   8.351
24304SOL    HW174686   6.081  12.205   8.380
24304SOL    HW274687   6.088  12.354   8.351
24305SOL     OW74688   4.796  11.662   1.932
24305SOL    HW174689   4.730  11.686   1.997
24305SOL    HW274690   4.784  11.725   1.861
24306SOL     OW74691  12.774  13.539   1.073
24306SOL    HW174692  12.687  13.567   1.102
24306SOL    HW274693  12.830  13.615   1.090
24307SOL     OW74694  11.870   0.189   5.053
24307SOL    HW174695  11.790   0.152   5.014
24307SOL    HW274696  11.840   0.238   5.129
24308SOL     OW74697   7.639   4.007   3.162
24308SOL    HW174698   7.558   4.046   3.129
24308SOL    HW274699   7.706   4.033   3.099
24309SOL     OW74700  11.085   6.769  12.381
24309SOL    HW174701  11.078   6.792  12.288
24309SOL    HW274702  11.064   6.849  12.427
24310SOL     OW74703   8.472   6.046   6.936
24310SOL    HW174704   8.480   6.128   6.986
24310SOL    HW274705   8.503   5.979   6.996
24311SOL     OW74706   0.535  13.521   3.562
24311SOL    HW174707   0.610  13.473   3.525
24311SOL    HW274708   0.490  13.557   3.486
24312SOL     OW74709   4.927   5.299   6.097
24312SOL    HW174710   4.835   5.279   6.111
24312SOL    HW274711   4.973   5.250   6.165
24313SOL     OW74712   1.212   2.211   2.065
24313SOL    HW174713   1.198   2.255   2.148
24313SOL    HW274714   1.253   2.128   2.088
24314SOL     OW74715  14.609   1.075   5.427
24314SOL    HW174716  14.550   1.120   5.487
24314SOL    HW274717  14.690   1.065   5.477
24315SOL     OW74718   3.083   0.699  10.970
24315SOL    HW174719   3.093   0.670  11.061
24315SOL    HW274720   3.168   0.684  10.931
24316SOL     OW74721   5.664  10.852  10.807
24316SOL    HW174722   5.693  10.943  10.809
24316SOL    HW274723   5.729  10.807  10.753
24317SOL     OW74724   7.977   7.485   9.529
24317SOL    HW174725   7.951   7.545   9.599
24317SOL    HW274726   8.019   7.412   9.575
24318SOL     OW74727  14.085   6.355  13.653
24318SOL    HW174728  14.145   6.296  13.608
24318SOL    HW274729  14.003   6.348  13.605
24319SOL     OW74730   1.107  14.349   9.553
24319SOL    HW174731   1.118  14.305   9.636
24319SOL    HW274732   1.169  14.422   9.555
24320SOL     OW74733   2.445   7.627  12.052
24320SOL    HW174734   2.481   7.631  11.964
24320SOL    HW274735   2.457   7.715  12.087
24321SOL     OW74736   2.287   9.868   4.401
24321SOL    HW174737   2.353   9.913   4.349
24321SOL    HW274738   2.225   9.833   4.337
24322SOL     OW74739   5.774   3.189   7.601
24322SOL    HW174740   5.718   3.112   7.609
24322SOL    HW274741   5.857   3.162   7.641
24323SOL     OW74742   7.810   5.417   5.208
24323SOL    HW174743   7.861   5.370   5.274
24323SOL    HW274744   7.836   5.376   5.125
24324SOL     OW74745  13.847   1.789   3.831
24324SOL    HW174746  13.779   1.833   3.779
24324SOL    HW274747  13.897   1.739   3.766
24325SOL     OW74748   0.795   7.500  14.862
24325SOL    HW174749   0.779   7.516   0.073
24325SOL    HW274750   0.860   7.429  14.861
24326SOL     OW74751   7.918  14.574   2.785
24326SOL    HW174752   7.945  14.483   2.790
24326SOL    HW274753   7.989  14.618   2.738
24327SOL     OW74754   0.430  11.323  12.274
24327SOL    HW174755   0.514  11.326  12.319
24327SOL    HW274756   0.443  11.262  12.201
24328SOL     OW74757  10.515   6.082   2.012
24328SOL    HW174758  10.529   5.988   2.003
24328SOL    HW274759  10.420   6.091   2.022
24329SOL     OW74760   8.339  14.263   5.786
24329SOL    HW174761   8.291  14.297   5.711
24329SOL    HW274762   8.347  14.169   5.769
24330SOL     OW74763  12.083   4.317   7.451
24330SOL    HW174764  12.083   4.348   7.542
24330SOL    HW274765  12.096   4.222   7.459
24331SOL     OW74766   6.529   9.240  11.298
24331SOL    HW174767   6.537   9.281  11.212
24331SOL    HW274768   6.619   9.235  11.331
24332SOL     OW74769   6.670   9.857  13.749
24332SOL    HW174770   6.670   9.808  13.831
24332SOL    HW274771   6.762   9.854  13.720
24333SOL     OW74772   7.187  11.158   5.164
24333SOL    HW174773   7.095  11.180   5.175
24333SOL    HW274774   7.218  11.216   5.094
24334SOL     OW74775  14.495  10.616   8.820
24334SOL    HW174776  14.475  10.615   8.913
24334SOL    HW274777  14.581  10.575   8.813
24335SOL     OW74778  10.489   5.568   3.812
24335SOL    HW174779  10.394   5.567   3.800
24335SOL    HW274780  10.515   5.477   3.802
24336SOL     OW74781  14.064  11.648  12.814
24336SOL    HW174782  13.992  11.603  12.770
24336SOL    HW274783  14.112  11.579  12.859
24337SOL     OW74784   0.194  13.007   2.231
24337SOL    HW174785   0.285  13.033   2.241
24337SOL    HW274786   0.151  13.034   2.312
24338SOL     OW74787  11.307  12.531   5.086
24338SOL    HW174788  11.332  12.453   5.038
24338SOL    HW274789  11.327  12.603   5.026
24339SOL     OW74790   5.276   9.267   3.749
24339SOL    HW174791   5.289   9.361   3.754
24339SOL    HW274792   5.270   9.249   3.655
24340SOL     OW74793   1.985  12.635   7.155
24340SOL    HW174794   1.924  12.673   7.218
24340SOL    HW274795   2.046  12.584   7.208
24341SOL     OW74796   9.759   4.517   4.495
24341SOL    HW174797   9.776   4.593   4.440
24341SOL    HW274798   9.666   4.497   4.481
24342SOL     OW74799   4.053  10.397   9.185
24342SOL    HW174800   4.009  10.477   9.214
24342SOL    HW274801   4.049  10.339   9.261
24343SOL     OW74802  12.166  10.501   2.209
24343SOL    HW174803  12.225  10.577   2.206
24343SOL    HW274804  12.107  10.512   2.135
24344SOL     OW74805   9.295  11.937  10.254
24344SOL    HW174806   9.317  12.017  10.301
24344SOL    HW274807   9.336  11.948  10.168
24345SOL     OW74808   7.338  12.959  13.924
24345SOL    HW174809   7.256  12.913  13.904
24345SOL    HW274810   7.322  13.049  13.894
24346SOL     OW74811  13.915  12.772   5.358
24346SOL    HW174812  13.863  12.759   5.279
24346SOL    HW274813  13.956  12.858   5.346
24347SOL     OW74814  10.469   7.806  14.516
24347SOL    HW174815  10.410   7.789  14.589
24347SOL    HW274816  10.517   7.724  14.505
24348SOL     OW74817   1.250   5.378  13.073
24348SOL    HW174818   1.269   5.439  13.144
24348SOL    HW274819   1.319   5.312  13.079
24349SOL     OW74820  13.828  12.232   0.949
24349SOL    HW174821  13.912  12.209   0.908
24349SOL    HW274822  13.803  12.314   0.905
24350SOL     OW74823  13.661   3.791   0.607
24350SOL    HW174824  13.632   3.789   0.698
24350SOL    HW274825  13.658   3.884   0.584
24351SOL     OW74826   5.625   3.068  13.374
24351SOL    HW174827   5.557   3.006  13.401
24351SOL    HW274828   5.647   3.116  13.454
24352SOL     OW74829   3.158  12.190  10.823
24352SOL    HW174830   3.248  12.185  10.790
24352SOL    HW274831   3.165  12.238  10.905
24353SOL     OW74832   1.114   1.980   0.372
24353SOL    HW174833   1.128   2.008   0.462
24353SOL    HW274834   1.159   1.896   0.365
24354SOL     OW74835   0.895  14.711   9.490
24354SOL    HW174836   0.913  14.779   9.425
24354SOL    HW274837   0.956  14.641   9.468
24355SOL     OW74838  11.389   8.930   0.743
24355SOL    HW174839  11.326   8.997   0.717
24355SOL    HW274840  11.410   8.884   0.661
24356SOL     OW74841   1.427   8.670   5.237
24356SOL    HW174842   1.450   8.704   5.150
24356SOL    HW274843   1.391   8.746   5.283
24357SOL     OW74844  11.231   2.819  13.318
24357SOL    HW174845  11.153   2.777  13.281
24357SOL    HW274846  11.196   2.880  13.382
24358SOL     OW74847   8.357   4.676   7.020
24358SOL    HW174848   8.324   4.690   6.932
24358SOL    HW274849   8.296   4.613   7.058
24359SOL     OW74850   2.631   5.177  14.711
24359SOL    HW174851   2.688   5.142  14.780
24359SOL    HW274852   2.561   5.222  14.758
24360SOL     OW74853  13.588  12.248   9.136
24360SOL    HW174854  13.575  12.243   9.041
24360SOL    HW274855  13.598  12.157   9.164
24361SOL     OW74856   8.326   1.268   5.114
24361SOL    HW174857   8.387   1.195   5.101
24361SOL    HW274858   8.368   1.342   5.069
24362SOL     OW74859   2.150   0.892  11.504
24362SOL    HW174860   2.167   0.880  11.597
24362SOL    HW274861   2.065   0.849  11.489
24363SOL     OW74862   7.206   2.306  11.474
24363SOL    HW174863   7.286   2.359  11.468
24363SOL    HW274864   7.164   2.317  11.389
24364SOL     OW74865   0.194  10.881  11.117
24364SOL    HW174866   0.284  10.849  11.130
24364SOL    HW274867   0.174  10.930  11.196
24365SOL     OW74868  13.706  11.020   5.778
24365SOL    HW174869  13.632  11.043   5.834
24365SOL    HW274870  13.669  11.018   5.689
24366SOL     OW74871   8.263   2.673   8.072
24366SOL    HW174872   8.307   2.727   8.007
24366SOL    HW274873   8.327   2.664   8.143
24367SOL     OW74874   9.229   6.382   2.908
24367SOL    HW174875   9.214   6.473   2.934
24367SOL    HW274876   9.324   6.374   2.904
24368SOL     OW74877   6.688   7.780  10.713
24368SOL    HW174878   6.636   7.819  10.783
24368SOL    HW274879   6.759   7.844  10.698
24369SOL     OW74880  11.676   5.008   2.680
24369SOL    HW174881  11.643   5.037   2.595
24369SOL    HW274882  11.694   4.915   2.668
24370SOL     OW74883   9.755  11.304   4.708
24370SOL    HW174884   9.755  11.299   4.803
24370SOL    HW274885   9.664  11.326   4.685
24371SOL     OW74886   5.187  13.730  14.818
24371SOL    HW174887   5.112  13.770  14.775
24371SOL    HW274888   5.149  13.665  14.878
24372SOL     OW74889  12.956  12.623   7.023
24372SOL    HW174890  12.893  12.693   7.038
24372SOL    HW274891  12.905  12.553   6.983
24373SOL     OW74892   6.677   0.493  11.522
24373SOL    HW174893   6.688   0.398  11.519
24373SOL    HW274894   6.751   0.524  11.575
24374SOL     OW74895  12.069   2.782   3.019
24374SOL    HW174896  12.074   2.754   2.927
24374SOL    HW274897  11.983   2.753   3.048
24375SOL     OW74898   1.608   4.644  13.317
24375SOL    HW174899   1.611   4.733  13.282
24375SOL    HW274900   1.696   4.627  13.349
24376SOL     OW74901   9.538   4.327  12.445
24376SOL    HW174902   9.548   4.359  12.355
24376SOL    HW274903   9.444   4.310  12.453
24377SOL     OW74904   2.563   8.839   8.344
24377SOL    HW174905   2.575   8.907   8.411
24377SOL    HW274906   2.487   8.868   8.293
24378SOL     OW74907   0.007   3.462  11.031
24378SOL    HW174908   0.010   3.368  11.017
24378SOL    HW274909   0.021   3.500  10.944
24379SOL     OW74910  11.108   4.129  10.575
24379SOL    HW174911  11.086   4.178  10.496
24379SOL    HW274912  11.071   4.181  10.646
24380SOL     OW74913   6.909  13.111  10.119
24380SOL    HW174914   7.001  13.084  10.128
24380SOL    HW274915   6.890  13.100  10.026
24381SOL     OW74916  13.755   5.624  13.654
24381SOL    HW174917  13.808   5.545  13.653
24381SOL    HW274918  13.797   5.680  13.719
24382SOL     OW74919   1.042   7.981  13.545
24382SOL    HW174920   1.027   7.888  13.527
24382SOL    HW274921   1.136   7.994  13.531
24383SOL     OW74922  12.913   6.305   8.544
24383SOL    HW174923  12.820   6.308   8.525
24383SOL    HW274924  12.936   6.395   8.566
24384SOL     OW74925   6.279   0.165   0.572
24384SOL    HW174926   6.356   0.110   0.558
24384SOL    HW274927   6.205   0.110   0.549
24385SOL     OW74928   3.930  11.708   4.111
24385SOL    HW174929   3.914  11.771   4.041
24385SOL    HW274930   3.852  11.715   4.167
24386SOL     OW74931   7.762   1.009   9.841
24386SOL    HW174932   7.825   1.038   9.776
24386SOL    HW274933   7.806   0.938   9.888
24387SOL     OW74934  13.887   2.184   2.801
24387SOL    HW174935  13.865   2.244   2.872
24387SOL    HW274936  13.981   2.166   2.814
24388SOL     OW74937  13.969   2.162   3.599
24388SOL    HW174938  13.938   2.250   3.578
24388SOL    HW274939  13.908   2.130   3.666
24389SOL     OW74940  11.315   6.392   4.100
24389SOL    HW174941  11.270   6.309   4.084
24389SOL    HW274942  11.405   6.368   4.119
24390SOL     OW74943   9.796   5.660  14.677
24390SOL    HW174944   9.795   5.713  14.598
24390SOL    HW274945   9.844   5.581  14.652
24391SOL     OW74946  10.477   1.614   4.250
24391SOL    HW174947  10.510   1.695   4.289
24391SOL    HW274948  10.503   1.546   4.312
24392SOL     OW74949  11.478   5.492   3.658
24392SOL    HW174950  11.473   5.585   3.633
24392SOL    HW274951  11.486   5.445   3.574
24393SOL     OW74952   7.894   0.136  13.173
24393SOL    HW174953   7.847   0.211  13.136
24393SOL    HW274954   7.985   0.164  13.175
24394SOL     OW74955   7.434   5.642   1.147
24394SOL    HW174956   7.373   5.629   1.220
24394SOL    HW274957   7.434   5.737   1.132
24395SOL     OW74958   6.620   6.611   8.993
24395SOL    HW174959   6.578   6.556   8.926
24395SOL    HW274960   6.548   6.640   9.049
24396SOL     OW74961   0.023  13.020   1.104
24396SOL    HW174962   0.060  12.977   1.182
24396SOL    HW274963   0.098  13.058   1.059
24397SOL     OW74964   8.762   2.023   2.709
24397SOL    HW174965   8.848   2.013   2.749
24397SOL    HW274966   8.753   1.947   2.651
24398SOL     OW74967   2.226  12.463   5.426
24398SOL    HW174968   2.266  12.545   5.397
24398SOL    HW274969   2.133  12.475   5.409
24399SOL     OW74970   4.053   3.664   9.847
24399SOL    HW174971   4.084   3.587   9.895
24399SOL    HW274972   3.988   3.704   9.905
24400SOL     OW74973  13.940  12.801  13.773
24400SOL    HW174974  13.991  12.882  13.772
24400SOL    HW274975  13.999  12.735  13.737
24401SOL     OW74976   5.086   9.875   5.561
24401SOL    HW174977   5.181   9.862   5.554
24401SOL    HW274978   5.074   9.918   5.646
24402SOL     OW74979   1.404   2.206   6.312
24402SOL    HW174980   1.376   2.238   6.227
24402SOL    HW274981   1.485   2.253   6.331
24403SOL     OW74982   8.372   3.282  11.057
24403SOL    HW174983   8.388   3.368  11.095
24403SOL    HW274984   8.371   3.297  10.962
24404SOL     OW74985  12.523  13.103   4.588
24404SOL    HW174986  12.507  13.188   4.546
24404SOL    HW274987  12.437  13.076   4.619
24405SOL     OW74988  10.126   8.230  14.010
24405SOL    HW174989  10.160   8.196  14.093
24405SOL    HW274990  10.126   8.325  14.020
24406SOL     OW74991  10.855   6.845  11.533
24406SOL    HW174992  10.916   6.771  11.529
24406SOL    HW274993  10.881   6.894  11.611
24407SOL     OW74994  10.048   3.054   2.215
24407SOL    HW174995  10.007   3.140   2.214
24407SOL    HW274996  10.142   3.072   2.212
24408SOL     OW74997   5.475  13.759  12.020
24408SOL    HW174998   5.461  13.700  12.094
24408SOL    HW274999   5.401  13.820  12.023
24409SOL     OW75000   9.525   7.376  11.144
24409SOL    HW175001   9.617   7.355  11.156
24409SOL    HW275002   9.504   7.343  11.057
24410SOL     OW75003   6.302   0.550  10.955
24410SOL    HW175004   6.280   0.637  10.988
24410SOL    HW275005   6.225   0.496  10.976
24411SOL     OW75006   3.081  10.028   3.781
24411SOL    HW175007   3.005  10.031   3.724
24411SOL    HW275008   3.085  10.114   3.822
24412SOL     OW75009   1.304   3.143   9.688
24412SOL    HW175010   1.296   3.231   9.651
24412SOL    HW275011   1.220   3.102   9.667
24413SOL     OW75012   3.077   6.546   3.656
24413SOL    HW175013   3.144   6.561   3.590
24413SOL    HW275014   3.055   6.633   3.688
24414SOL     OW75015  12.097   3.200  12.230
24414SOL    HW175016  12.190   3.208  12.248
24414SOL    HW275017  12.061   3.154  12.306
24415SOL     OW75018   9.080  14.416   6.392
24415SOL    HW175019   9.116  14.497   6.429
24415SOL    HW275020   9.094  14.423   6.298
24416SOL     OW75021   6.199  13.138   9.999
24416SOL    HW175022   6.282  13.170  10.034
24416SOL    HW275023   6.168  13.076  10.065
24417SOL     OW75024   8.876   1.164   1.352
24417SOL    HW175025   8.782   1.184   1.353
24417SOL    HW275026   8.883   1.079   1.394
24418SOL     OW75027   5.394   1.281   7.889
24418SOL    HW175028   5.472   1.325   7.853
24418SOL    HW275029   5.330   1.285   7.819
24419SOL     OW75030  12.668   6.885   2.112
24419SOL    HW175031  12.735   6.892   2.179
24419SOL    HW275032  12.664   6.972   2.072
24420SOL     OW75033  12.965   5.679   2.011
24420SOL    HW175034  12.912   5.739   2.064
24420SOL    HW275035  13.054   5.714   2.018
24421SOL     OW75036  10.319   3.829   2.756
24421SOL    HW175037  10.319   3.817   2.661
24421SOL    HW275038  10.242   3.781   2.786
24422SOL     OW75039   9.980   3.145   9.479
24422SOL    HW175040   9.934   3.226   9.459
24422SOL    HW275041   9.961   3.088   9.404
24423SOL     OW75042   3.939   0.669  13.932
24423SOL    HW175043   3.988   0.724  13.994
24423SOL    HW275044   3.913   0.593  13.983
24424SOL     OW75045   2.919   3.149   9.875
24424SOL    HW175046   2.905   3.234   9.915
24424SOL    HW275047   2.914   3.166   9.781
24425SOL     OW75048   6.404   5.635   0.939
24425SOL    HW175049   6.391   5.722   0.976
24425SOL    HW275050   6.461   5.649   0.864
24426SOL     OW75051   4.264   6.939  11.797
24426SOL    HW175052   4.184   6.964  11.751
24426SOL    HW275053   4.334   6.966  11.739
24427SOL     OW75054   8.629   4.125   9.521
24427SOL    HW175055   8.619   4.036   9.487
24427SOL    HW275056   8.703   4.161   9.472
24428SOL     OW75057   1.019   2.125   7.656
24428SOL    HW175058   1.097   2.082   7.692
24428SOL    HW275059   0.945   2.078   7.694
24429SOL     OW75060  14.713   1.780   8.548
24429SOL    HW175061  14.708   1.686   8.531
24429SOL    HW275062  14.731   1.818   8.462
24430SOL     OW75063   7.894  13.421   4.382
24430SOL    HW175064   7.919  13.457   4.297
24430SOL    HW275065   7.798  13.419   4.380
24431SOL     OW75066   9.676   4.442  11.437
24431SOL    HW175067   9.603   4.452  11.375
24431SOL    HW275068   9.686   4.348  11.447
24432SOL     OW75069   3.984   8.617   7.505
24432SOL    HW175070   3.911   8.678   7.494
24432SOL    HW275071   3.953   8.536   7.464
24433SOL     OW75072  11.211  12.937   6.821
24433SOL    HW175073  11.212  12.873   6.893
24433SOL    HW275074  11.275  12.904   6.758
24434SOL     OW75075  14.366   6.992   8.480
24434SOL    HW175076  14.276   6.959   8.483
24434SOL    HW275077  14.358   7.085   8.459
24435SOL     OW75078  11.895  12.479   3.527
24435SOL    HW175079  11.943  12.560   3.507
24435SOL    HW275080  11.870  12.489   3.619
24436SOL     OW75081   1.553   4.466  12.427
24436SOL    HW175082   1.634   4.508  12.400
24436SOL    HW275083   1.520   4.423  12.348
24437SOL     OW75084  14.116  10.784   2.874
24437SOL    HW175085  14.092  10.796   2.783
24437SOL    HW275086  14.201  10.829   2.882
24438SOL     OW75087   3.229  13.356   9.597
24438SOL    HW175088   3.247  13.395   9.512
24438SOL    HW275089   3.134  13.346   9.599
24439SOL     OW75090  10.183   2.911  13.267
24439SOL    HW175091  10.110   2.848  13.269
24439SOL    HW275092  10.194   2.937  13.358
24440SOL     OW75093  10.360   9.027   4.954
24440SOL    HW175094  10.326   9.038   5.042
24440SOL    HW275095  10.317   8.948   4.921
24441SOL     OW75096   4.602   7.175   8.426
24441SOL    HW175097   4.583   7.098   8.373
24441SOL    HW275098   4.693   7.163   8.453
24442SOL     OW75099   3.229   3.362  10.517
24442SOL    HW175100   3.273   3.444  10.539
24442SOL    HW275101   3.179   3.340  10.596
24443SOL     OW75102   7.073   0.100   6.058
24443SOL    HW175103   7.005   0.157   6.023
24443SOL    HW275104   7.155   0.145   6.036
24444SOL     OW75105  13.356   9.512   9.845
24444SOL    HW175106  13.332   9.603   9.829
24444SOL    HW275107  13.336   9.467   9.763
24445SOL     OW75108   2.932  10.227   1.308
24445SOL    HW175109   2.852  10.251   1.355
24445SOL    HW275110   2.916  10.137   1.278
24446SOL     OW75111   5.335  12.324  12.793
24446SOL    HW175112   5.310  12.239  12.830
24446SOL    HW275113   5.348  12.306  12.700
24447SOL     OW75114   9.800  11.099   9.224
24447SOL    HW175115   9.841  11.182   9.200
24447SOL    HW275116   9.865  11.033   9.201
24448SOL     OW75117   4.289   5.988   3.924
24448SOL    HW175118   4.335   6.072   3.916
24448SOL    HW275119   4.220   5.992   3.858
24449SOL     OW75120  13.642  11.027   8.628
24449SOL    HW175121  13.617  10.996   8.715
24449SOL    HW275122  13.715  10.971   8.603
24450SOL     OW75123  11.190  11.001  14.167
24450SOL    HW175124  11.177  11.011  14.072
24450SOL    HW275125  11.277  10.963  14.175
24451SOL     OW75126  11.814  11.338   7.086
24451SOL    HW175127  11.788  11.286   7.163
24451SOL    HW275128  11.764  11.419   7.095
24452SOL     OW75129   7.387   6.898  14.842
24452SOL    HW175130   7.397   6.806  14.864
24452SOL    HW275131   7.398   6.901  14.747
24453SOL     OW75132  14.015  11.516   5.908
24453SOL    HW175133  13.981  11.543   5.994
24453SOL    HW275134  13.945  11.537   5.847
24454SOL     OW75135   0.505  13.399   2.298
24454SOL    HW175136   0.546  13.367   2.378
24454SOL    HW275137   0.413  13.374   2.307
24455SOL     OW75138  10.914   2.233   0.262
24455SOL    HW175139  10.882   2.175   0.194
24455SOL    HW275140  10.916   2.320   0.221
24456SOL     OW75141  13.567  13.523  12.846
24456SOL    HW175142  13.486  13.559  12.811
24456SOL    HW275143  13.624  13.512  12.770
24457SOL     OW75144  10.200   4.282  11.191
24457SOL    HW175145  10.263   4.249  11.254
24457SOL    HW275146  10.221   4.375  11.181
24458SOL     OW75147   6.750   3.848  10.567
24458SOL    HW175148   6.745   3.893  10.482
24458SOL    HW275149   6.707   3.763  10.551
24459SOL     OW75150   0.192   5.894   6.971
24459SOL    HW175151   0.178   5.800   6.963
24459SOL    HW275152   0.232   5.920   6.889
24460SOL     OW75153   7.815  11.471   2.317
24460SOL    HW175154   7.737  11.492   2.369
24460SOL    HW275155   7.805  11.520   2.236
24461SOL     OW75156   3.149   8.329  12.073
24461SOL    HW175157   3.064   8.369  12.093
24461SOL    HW275158   3.206   8.355  12.146
24462SOL     OW75159   5.898   2.116   4.792
24462SOL    HW175160   5.932   2.095   4.879
24462SOL    HW275161   5.970   2.097   4.732
24463SOL     OW75162   1.920   2.028   9.761
24463SOL    HW175163   1.933   2.065   9.674
24463SOL    HW275164   1.851   2.081   9.800
24464SOL     OW75165   8.522   5.405   0.734
24464SOL    HW175166   8.443   5.418   0.682
24464SOL    HW275167   8.593   5.441   0.680
24465SOL     OW75168  14.322   5.741  13.186
24465SOL    HW175169  14.256   5.763  13.120
24465SOL    HW275170  14.338   5.647  13.173
24466SOL     OW75171   6.720   8.569   8.952
24466SOL    HW175172   6.626   8.582   8.966
24466SOL    HW275173   6.758   8.656   8.955
24467SOL     OW75174  10.481   7.503  12.927
24467SOL    HW175175  10.415   7.571  12.940
24467SOL    HW275176  10.522   7.525  12.843
24468SOL     OW75177   8.385   9.003  10.831
24468SOL    HW175178   8.464   8.951  10.844
24468SOL    HW275179   8.396   9.077  10.891
24469SOL     OW75180  11.588   5.352  11.026
24469SOL    HW175181  11.668   5.405  11.027
24469SOL    HW275182  11.618   5.263  11.044
24470SOL     OW75183  13.999   0.889   5.987
24470SOL    HW175184  14.007   0.985   5.988
24470SOL    HW275185  14.079   0.860   5.942
24471SOL     OW75186   6.168   1.618   4.615
24471SOL    HW175187   6.206   1.572   4.690
24471SOL    HW275188   6.230   1.601   4.544
24472SOL     OW75189   5.606   7.241   1.629
24472SOL    HW175190   5.602   7.282   1.542
24472SOL    HW275191   5.535   7.176   1.627
24473SOL     OW75192  13.937   3.252  13.212
24473SOL    HW175193  14.026   3.245  13.178
24473SOL    HW275194  13.942   3.320  13.279
24474SOL     OW75195   5.185   7.220   5.840
24474SOL    HW175196   5.257   7.221   5.778
24474SOL    HW275197   5.107   7.238   5.787
24475SOL     OW75198   6.628  13.617  13.847
24475SOL    HW175199   6.562  13.580  13.789
24475SOL    HW275200   6.711  13.585  13.812
24476SOL     OW75201   5.241  12.602   7.365
24476SOL    HW175202   5.210  12.512   7.374
24476SOL    HW275203   5.263  12.610   7.272
24477SOL     OW75204   1.018   8.134  14.490
24477SOL    HW175205   1.069   8.064  14.451
24477SOL    HW275206   0.993   8.100  14.576
24478SOL     OW75207  12.468   9.692  13.905
24478SOL    HW175208  12.553   9.735  13.900
24478SOL    HW275209  12.448   9.689  13.999
24479SOL     OW75210   1.105   6.400   9.150
24479SOL    HW175211   1.180   6.459   9.152
24479SOL    HW275212   1.053   6.423   9.227
24480SOL     OW75213  12.530  10.978   2.860
24480SOL    HW175214  12.575  10.923   2.924
24480SOL    HW275215  12.574  11.063   2.866
24481SOL     OW75216   0.602  13.329   5.592
24481SOL    HW175217   0.509  13.325   5.569
24481SOL    HW275218   0.609  13.276   5.671
24482SOL     OW75219  11.683   2.707  13.151
24482SOL    HW175220  11.616   2.775  13.148
24482SOL    HW275221  11.649   2.643  13.214
24483SOL     OW75222   2.974   0.971   8.692
24483SOL    HW175223   2.997   1.062   8.710
24483SOL    HW275224   3.039   0.920   8.741
24484SOL     OW75225   0.972   1.657   2.530
24484SOL    HW175226   1.027   1.734   2.517
24484SOL    HW275227   0.926   1.645   2.447
24485SOL     OW75228   5.656   9.831   6.264
24485SOL    HW175229   5.712   9.891   6.214
24485SOL    HW275230   5.682   9.744   6.235
24486SOL     OW75231   4.594   0.510   2.878
24486SOL    HW175232   4.509   0.469   2.895
24486SOL    HW275233   4.577   0.604   2.882
24487SOL     OW75234   4.959   1.553   3.750
24487SOL    HW175235   4.927   1.530   3.837
24487SOL    HW275236   5.036   1.608   3.766
24488SOL     OW75237  11.470   6.021   3.578
24488SOL    HW175238  11.556   6.063   3.567
24488SOL    HW275239  11.421   6.081   3.634
24489SOL     OW75240   7.785   9.032   1.690
24489SOL    HW175241   7.719   9.097   1.666
24489SOL    HW275242   7.738   8.969   1.745
24490SOL     OW75243   9.918  14.483  12.023
24490SOL    HW175244   9.898  14.520  12.109
24490SOL    HW275245  10.014  14.487  12.017
24491SOL     OW75246  13.831  13.613   7.279
24491SOL    HW175247  13.857  13.616   7.187
24491SOL    HW275248  13.780  13.693   7.291
24492SOL     OW75249   0.419   6.740  13.025
24492SOL    HW175250   0.455   6.653  13.009
24492SOL    HW275251   0.334   6.723  13.067
24493SOL     OW75252   3.322   6.332   9.587
24493SOL    HW175253   3.291   6.418   9.617
24493SOL    HW275254   3.246   6.293   9.543
24494SOL     OW75255  10.740   9.588   4.952
24494SOL    HW175256  10.730   9.493   4.945
24494SOL    HW275257  10.835   9.603   4.951
24495SOL     OW75258  14.784  13.891   7.297
24495SOL    HW175259  14.839  13.916   7.223
24495SOL    HW275260  14.784  13.967   7.355
24496SOL     OW75261   5.240   1.827   0.428
24496SOL    HW175262   5.266   1.886   0.357
24496SOL    HW275263   5.152   1.856   0.452
24497SOL     OW75264   4.055   0.874   8.763
24497SOL    HW175265   4.058   0.969   8.777
24497SOL    HW275266   3.962   0.854   8.753
24498SOL     OW75267   3.027   8.866   5.637
24498SOL    HW175268   3.115   8.896   5.614
24498SOL    HW275269   2.976   8.880   5.557
24499SOL     OW75270  11.845   1.877   6.038
24499SOL    HW175271  11.755   1.847   6.048
24499SOL    HW275272  11.869   1.850   5.949
24500SOL     OW75273   4.688   3.336   0.541
24500SOL    HW175274   4.681   3.262   0.601
24500SOL    HW275275   4.669   3.298   0.455
24501SOL     OW75276   0.699   8.812  14.430
24501SOL    HW175277   0.631   8.753  14.397
24501SOL    HW275278   0.763   8.815  14.359
24502SOL     OW75279   8.715   1.548   2.271
24502SOL    HW175280   8.629   1.535   2.310
24502SOL    HW275281   8.774   1.495   2.324
24503SOL     OW75282   7.802   0.802   8.908
24503SOL    HW175283   7.868   0.744   8.946
24503SOL    HW275284   7.832   0.890   8.930
24504SOL     OW75285   4.342  14.348   8.009
24504SOL    HW175286   4.435  14.372   8.007
24504SOL    HW275287   4.296  14.427   7.981
24505SOL     OW75288   5.402  12.690  14.733
24505SOL    HW175289   5.457  12.634  14.679
24505SOL    HW275290   5.449  12.773  14.738
24506SOL     OW75291  11.318   9.681   2.603
24506SOL    HW175292  11.241   9.694   2.658
24506SOL    HW275293  11.388   9.658   2.665
24507SOL     OW75294  13.026   4.252   8.261
24507SOL    HW175295  12.979   4.259   8.177
24507SOL    HW275296  12.966   4.290   8.325
24508SOL     OW75297   4.725   0.213   4.487
24508SOL    HW175298   4.773   0.267   4.550
24508SOL    HW275299   4.791   0.154   4.451
24509SOL     OW75300  10.813  14.109   4.267
24509SOL    HW175301  10.822  14.121   4.362
24509SOL    HW275302  10.718  14.100   4.253
24510SOL     OW75303   3.079   9.845   7.827
24510SOL    HW175304   3.096   9.939   7.834
24510SOL    HW275305   3.004   9.839   7.769
24511SOL     OW75306   9.764   5.762   8.897
24511SOL    HW175307   9.690   5.728   8.948
24511SOL    HW275308   9.726   5.831   8.844
24512SOL     OW75309   8.525   5.610  10.120
24512SOL    HW175310   8.466   5.655  10.180
24512SOL    HW275311   8.507   5.649  10.034
24513SOL     OW75312   6.295  10.983  13.968
24513SOL    HW175313   6.282  11.060  13.913
24513SOL    HW275314   6.307  10.911  13.907
24514SOL     OW75315   4.098   3.022   1.202
24514SOL    HW175316   4.018   3.050   1.157
24514SOL    HW275317   4.096   3.070   1.285
24515SOL     OW75318   0.214   7.202   5.784
24515SOL    HW175319   0.176   7.246   5.859
24515SOL    HW275320   0.308   7.197   5.803
24516SOL     OW75321  13.618   4.918   0.316
24516SOL    HW175322  13.627   4.859   0.241
24516SOL    HW275323  13.691   4.979   0.308
24517SOL     OW75324   4.475   1.312   9.738
24517SOL    HW175325   4.445   1.376   9.802
24517SOL    HW275326   4.514   1.364   9.668
24518SOL     OW75327   7.617   2.789   4.388
24518SOL    HW175328   7.552   2.731   4.427
24518SOL    HW275329   7.571   2.834   4.317
24519SOL     OW75330   5.835   3.354   4.981
24519SOL    HW175331   5.747   3.333   4.949
24519SOL    HW275332   5.832   3.332   5.074
24520SOL     OW75333   1.109  13.251  10.898
24520SOL    HW175334   1.121  13.156  10.898
24520SOL    HW275335   1.191  13.286  10.932
24521SOL     OW75336  12.341   2.957   0.587
24521SOL    HW175337  12.387   2.947   0.504
24521SOL    HW275338  12.392   3.023   0.635
24522SOL     OW75339   6.827   3.320   2.576
24522SOL    HW175340   6.856   3.251   2.635
24522SOL    HW275341   6.907   3.367   2.553
24523SOL     OW75342   0.998   8.458  10.259
24523SOL    HW175343   0.908   8.491  10.253
24523SOL    HW275344   0.991   8.366  10.234
24524SOL     OW75345   7.047  11.894  13.792
24524SOL    HW175346   6.976  11.952  13.819
24524SOL    HW275347   7.016  11.852  13.712
24525SOL     OW75348   6.727  12.779   0.969
24525SOL    HW175349   6.687  12.862   0.998
24525SOL    HW275350   6.765  12.742   1.049
24526SOL     OW75351   0.861   0.257  12.787
24526SOL    HW175352   0.900   0.292  12.706
24526SOL    HW275353   0.936   0.229  12.839
24527SOL     OW75354   2.714  10.474  12.978
24527SOL    HW175355   2.742  10.565  12.986
24527SOL    HW275356   2.787  10.429  12.936
24528SOL     OW75357   3.201   7.999   6.310
24528SOL    HW175358   3.207   7.914   6.354
24528SOL    HW275359   3.190   8.062   6.381
24529SOL     OW75360   3.912  14.268  12.714
24529SOL    HW175361   3.894  14.224  12.797
24529SOL    HW275362   3.839  14.245  12.657
24530SOL     OW75363  10.473   0.689   1.558
24530SOL    HW175364  10.485   0.704   1.464
24530SOL    HW275365  10.538   0.622   1.580
24531SOL     OW75366   6.590   3.327   5.519
24531SOL    HW175367   6.565   3.275   5.442
24531SOL    HW275368   6.508   3.368   5.547
24532SOL     OW75369  11.828  13.676   4.686
24532SOL    HW175370  11.769  13.649   4.616
24532SOL    HW275371  11.775  13.734   4.741
24533SOL     OW75372   9.060   2.871  14.524
24533SOL    HW175373   9.005   2.816  14.579
24533SOL    HW275374   9.050   2.835  14.436
24534SOL     OW75375   2.371  12.159  12.634
24534SOL    HW175376   2.462  12.130  12.643
24534SOL    HW275377   2.328  12.130  12.714
24535SOL     OW75378  11.630   9.485  11.389
24535SOL    HW175379  11.545   9.469  11.429
24535SOL    HW275380  11.615   9.558  11.328
24536SOL     OW75381   2.712  10.051   7.651
24536SOL    HW175382   2.624  10.086   7.667
24536SOL    HW275383   2.770  10.127   7.658
24537SOL     OW75384   4.349   3.183   5.540
24537SOL    HW175385   4.310   3.129   5.609
24537SOL    HW275386   4.397   3.251   5.587
24538SOL     OW75387   3.212  13.325   3.569
24538SOL    HW175388   3.264  13.245   3.558
24538SOL    HW275389   3.274  13.396   3.552
24539SOL     OW75390  11.313   6.955   8.425
24539SOL    HW175391  11.390   6.904   8.402
24539SOL    HW275392  11.240   6.906   8.386
24540SOL     OW75393   2.365  12.867   9.307
24540SOL    HW175394   2.418  12.941   9.278
24540SOL    HW275395   2.282  12.906   9.335
24541SOL     OW75396   4.713   2.255  12.927
24541SOL    HW175397   4.657   2.203  12.984
24541SOL    HW275398   4.716   2.341  12.968
24542SOL     OW75399  10.424   5.207   1.723
24542SOL    HW175400  10.436   5.218   1.629
24542SOL    HW275401  10.462   5.286   1.762
24543SOL     OW75402  11.540   0.294   8.512
24543SOL    HW175403  11.488   0.258   8.441
24543SOL    HW275404  11.547   0.223   8.575
24544SOL     OW75405   8.604   5.586  13.292
24544SOL    HW175406   8.628   5.596  13.200
24544SOL    HW275407   8.542   5.514  13.293
24545SOL     OW75408  12.378  13.851   6.657
24545SOL    HW175409  12.409  13.769   6.693
24545SOL    HW275410  12.450  13.912   6.669
24546SOL     OW75411  12.614  10.205   0.286
24546SOL    HW175412  12.547  10.142   0.259
24546SOL    HW275413  12.690  10.186   0.230
24547SOL     OW75414   8.695   6.442   1.412
24547SOL    HW175415   8.780   6.466   1.449
24547SOL    HW275416   8.635   6.508   1.446
24548SOL     OW75417   7.117  11.780  10.073
24548SOL    HW175418   7.165  11.863  10.077
24548SOL    HW275419   7.185  11.714  10.058
24549SOL     OW75420   4.926  12.161   4.183
24549SOL    HW175421   4.924  12.153   4.088
24549SOL    HW275422   4.981  12.238   4.199
24550SOL     OW75423  11.216  10.291   4.079
24550SOL    HW175424  11.285  10.355   4.099
24550SOL    HW275425  11.213  10.288   3.983
24551SOL     OW75426  12.896  11.394   0.138
24551SOL    HW175427  12.876  11.440   0.219
24551SOL    HW275428  12.921  11.306   0.167
24552SOL     OW75429  12.265   1.198   4.586
24552SOL    HW175430  12.274   1.247   4.668
24552SOL    HW275431  12.321   1.121   4.599
24553SOL     OW75432   5.866  11.456   8.590
24553SOL    HW175433   5.921  11.481   8.516
24553SOL    HW275434   5.886  11.520   8.658
24554SOL     OW75435  14.562  11.454   9.215
24554SOL    HW175436  14.585  11.481   9.126
24554SOL    HW275437  14.569  11.359   9.214
24555SOL     OW75438   1.842   6.963  14.088
24555SOL    HW175439   1.838   7.056  14.110
24555SOL    HW275440   1.877   6.961  13.999
24556SOL     OW75441   8.041  11.226   2.129
24556SOL    HW175442   8.062  11.308   2.084
24556SOL    HW275443   8.123  11.177   2.131
24557SOL     OW75444   3.336   2.920   6.908
24557SOL    HW175445   3.395   2.845   6.902
24557SOL    HW275446   3.276   2.898   6.980
24558SOL     OW75447   2.022   6.720   0.042
24558SOL    HW175448   1.934   6.727   0.005
24558SOL    HW275449   2.026   6.788   0.108
24559SOL     OW75450   7.340  10.774   9.526
24559SOL    HW175451   7.422  10.821   9.544
24559SOL    HW275452   7.315  10.804   9.439
24560SOL     OW75453   3.099   5.553  14.845
24560SOL    HW175454   3.128   5.521  14.760
24560SOL    HW275455   3.020   5.604  14.826
24561SOL     OW75456   4.562   0.242  13.651
24561SOL    HW175457   4.534   0.172  13.711
24561SOL    HW275458   4.648   0.269  13.685
24562SOL     OW75459  12.352  13.666   4.181
24562SOL    HW175460  12.267  13.685   4.220
24562SOL    HW275461  12.333  13.643   4.091
24563SOL     OW75462   6.729   2.240  11.244
24563SOL    HW175463   6.690   2.327  11.246
24563SOL    HW275464   6.655   2.180  11.237
24564SOL     OW75465   7.126   2.791  10.748
24564SOL    HW175466   7.086   2.848  10.683
24564SOL    HW275467   7.146   2.710  10.700
24565SOL     OW75468   2.153  14.541   7.404
24565SOL    HW175469   2.128  14.472   7.342
24565SOL    HW275470   2.213  14.498   7.465
24566SOL     OW75471  12.016  14.871  12.371
24566SOL    HW175472  12.055   0.024  12.451
24566SOL    HW275473  12.090  14.861  12.311
24567SOL     OW75474  12.444   0.359   3.347
24567SOL    HW175475  12.499   0.425   3.388
24567SOL    HW275476  12.364   0.358   3.400
24568SOL     OW75477  13.361   7.841   8.975
24568SOL    HW175478  13.392   7.771   8.919
24568SOL    HW275479  13.266   7.844   8.960
24569SOL     OW75480   5.899  13.064   3.232
24569SOL    HW175481   5.862  12.991   3.282
24569SOL    HW275482   5.987  13.037   3.210
24570SOL     OW75483   4.931   3.541  11.434
24570SOL    HW175484   4.995   3.524  11.504
24570SOL    HW275485   4.924   3.636  11.431
24571SOL     OW75486  12.952  13.608   8.035
24571SOL    HW175487  12.925  13.594   8.126
24571SOL    HW275488  13.025  13.670   8.041
24572SOL     OW75489  11.768  11.651  14.868
24572SOL    HW175490  11.715  11.578   0.018
24572SOL    HW275491  11.825  11.612  14.801
24573SOL     OW75492   4.598  13.030   2.724
24573SOL    HW175493   4.568  13.113   2.687
24573SOL    HW275494   4.653  13.055   2.799
24574SOL     OW75495   2.319   8.669   3.267
24574SOL    HW175496   2.304   8.656   3.361
24574SOL    HW275497   2.233   8.690   3.232
24575SOL     OW75498  11.153   0.758   4.351
24575SOL    HW175499  11.183   0.698   4.419
24575SOL    HW275500  11.111   0.830   4.399
24576SOL     OW75501  10.476   6.190  12.317
24576SOL    HW175502  10.485   6.281  12.346
24576SOL    HW275503  10.390   6.186  12.275
24577SOL     OW75504   6.118  12.921   7.460
24577SOL    HW175505   6.189  12.881   7.510
24577SOL    HW275506   6.161  12.989   7.407
24578SOL     OW75507   1.009   2.143   9.712
24578SOL    HW175508   1.083   2.119   9.657
24578SOL    HW275509   1.002   2.072   9.776
24579SOL     OW75510   2.970  13.546   2.476
24579SOL    HW175511   2.946  13.613   2.412
24579SOL    HW275512   3.029  13.487   2.430
24580SOL     OW75513   9.512  14.533   0.281
24580SOL    HW175514   9.460  14.482   0.343
24580SOL    HW275515   9.510  14.622   0.315
24581SOL     OW75516  14.323  12.576   3.041
24581SOL    HW175517  14.270  12.608   3.114
24581SOL    HW275518  14.276  12.604   2.962
24582SOL     OW75519  14.813   8.176   2.199
24582SOL    HW175520  14.809   8.109   2.267
24582SOL    HW275521  14.875   8.142   2.135
24583SOL     OW75522   5.026  12.547   2.660
24583SOL    HW175523   5.035  12.452   2.657
24583SOL    HW275524   5.109  12.578   2.697
24584SOL     OW75525  10.954  14.709   7.327
24584SOL    HW175526  11.005  14.771   7.380
24584SOL    HW275527  10.973  14.735   7.237
24585SOL     OW75528   2.794  14.092   6.567
24585SOL    HW175529   2.846  14.062   6.642
24585SOL    HW275530   2.751  14.012   6.536
24586SOL     OW75531  10.034   7.665  13.666
24586SOL    HW175532  10.007   7.591  13.612
24586SOL    HW275533   9.955   7.690  13.715
24587SOL     OW75534   8.443   9.620   1.474
24587SOL    HW175535   8.446   9.709   1.510
24587SOL    HW275536   8.533   9.590   1.478
24588SOL     OW75537   1.016  12.648   8.332
24588SOL    HW175538   0.960  12.577   8.301
24588SOL    HW275539   1.059  12.612   8.410
24589SOL     OW75540   3.548   3.692  13.345
24589SOL    HW175541   3.461   3.681  13.306
24589SOL    HW275542   3.543   3.777  13.388
24590SOL     OW75543   9.935  12.888   7.394
24590SOL    HW175544   9.941  12.922   7.304
24590SOL    HW275545   9.879  12.950   7.440
24591SOL     OW75546  11.688  14.112   3.638
24591SOL    HW175547  11.705  14.118   3.732
24591SOL    HW275548  11.595  14.128   3.629
24592SOL     OW75549   9.418  10.646   0.314
24592SOL    HW175550   9.508  10.661   0.342
24592SOL    HW275551   9.366  10.653   0.394
24593SOL     OW75552   5.033   5.348  10.686
24593SOL    HW175553   4.992   5.279  10.634
24593SOL    HW275554   5.117   5.312  10.713
24594SOL     OW75555  13.966   2.559  11.864
24594SOL    HW175556  13.975   2.482  11.919
24594SOL    HW275557  13.886   2.543  11.814
24595SOL     OW75558  10.656  13.580   0.822
24595SOL    HW175559  10.593  13.621   0.763
24595SOL    HW275560  10.660  13.489   0.795
24596SOL     OW75561  13.259  11.858  12.034
24596SOL    HW175562  13.284  11.874  12.125
24596SOL    HW275563  13.204  11.779  12.037
24597SOL     OW75564   3.456  13.175  12.693
24597SOL    HW175565   3.412  13.224  12.762
24597SOL    HW275566   3.456  13.234  12.618
24598SOL     OW75567   1.466   2.582   5.265
24598SOL    HW175568   1.409   2.570   5.189
24598SOL    HW275569   1.526   2.507   5.263
24599SOL     OW75570  10.191   7.537   9.673
24599SOL    HW175571  10.176   7.556   9.581
24599SOL    HW275572  10.103   7.536   9.712
24600SOL     OW75573   9.726   9.486   8.078
24600SOL    HW175574   9.665   9.462   8.009
24600SOL    HW275575   9.713   9.420   8.146
24601SOL     OW75576   2.744  12.882   9.983
24601SOL    HW175577   2.744  12.978   9.984
24601SOL    HW275578   2.676  12.858   9.921
24602SOL     OW75579   2.870   6.951   2.645
24602SOL    HW175580   2.816   7.020   2.605
24602SOL    HW275581   2.811   6.908   2.708
24603SOL     OW75582   9.312   8.818   3.529
24603SOL    HW175583   9.375   8.764   3.481
24603SOL    HW275584   9.259   8.756   3.578
24604SOL     OW75585  14.507   8.119   4.311
24604SOL    HW175586  14.597   8.085   4.310
24604SOL    HW275587  14.473   8.100   4.223
24605SOL     OW75588  12.725   3.704   8.031
24605SOL    HW175589  12.667   3.719   7.956
24605SOL    HW275590  12.761   3.617   8.016
24606SOL     OW75591  11.217   6.815   2.829
24606SOL    HW175592  11.193   6.728   2.863
24606SOL    HW275593  11.209   6.806   2.734
24607SOL     OW75594   4.461  14.494   6.114
24607SOL    HW175595   4.390  14.500   6.178
24607SOL    HW275596   4.537  14.530   6.159
24608SOL     OW75597  13.968   1.055  12.140
24608SOL    HW175598  14.025   0.987  12.104
24608SOL    HW275599  14.000   1.137  12.102
24609SOL     OW75600  10.142  14.524   8.339
24609SOL    HW175601  10.199  14.590   8.378
24609SOL    HW275602  10.154  14.535   8.245
24610SOL     OW75603   2.714  11.329   5.865
24610SOL    HW175604   2.650  11.343   5.795
24610SOL    HW275605   2.798  11.320   5.820
24611SOL     OW75606   9.277  14.385  10.326
24611SOL    HW175607   9.203  14.403  10.269
24611SOL    HW275608   9.256  14.300  10.366
24612SOL     OW75609   3.248   3.600   1.201
24612SOL    HW175610   3.333   3.637   1.176
24612SOL    HW275611   3.187   3.632   1.134
24613SOL     OW75612   0.427  14.073   2.884
24613SOL    HW175613   0.385  14.136   2.826
24613SOL    HW275614   0.380  14.080   2.967
24614SOL     OW75615  11.977   5.632   2.379
24614SOL    HW175616  11.905   5.573   2.358
24614SOL    HW275617  11.935   5.707   2.422
24615SOL     OW75618  11.181   6.684   7.356
24615SOL    HW175619  11.149   6.774   7.349
24615SOL    HW275620  11.214   6.663   7.269
24616SOL     OW75621   7.880   7.831  12.839
24616SOL    HW175622   7.805   7.779  12.867
24616SOL    HW275623   7.927   7.852  12.919
24617SOL     OW75624   1.105   1.243   4.232
24617SOL    HW175625   1.172   1.275   4.291
24617SOL    HW275626   1.082   1.157   4.265
24618SOL     OW75627  14.720  13.599   0.354
24618SOL    HW175628  14.777  13.559   0.289
24618SOL    HW275629  14.713  13.535   0.424
24619SOL     OW75630   9.250   1.554   9.620
24619SOL    HW175631   9.158   1.545   9.595
24619SOL    HW275632   9.294   1.484   9.572
24620SOL     OW75633   4.829   0.617   1.560
24620SOL    HW175634   4.773   0.542   1.583
24620SOL    HW275635   4.866   0.646   1.643
24621SOL     OW75636   7.614   7.179  12.166
24621SOL    HW175637   7.648   7.129  12.092
24621SOL    HW275638   7.687   7.183  12.228
24622SOL     OW75639   9.007   9.453   5.729
24622SOL    HW175640   8.958   9.503   5.665
24622SOL    HW275641   9.092   9.497   5.735
24623SOL     OW75642   5.506   2.528   4.236
24623SOL    HW175643   5.465   2.613   4.220
24623SOL    HW275644   5.440   2.479   4.285
24624SOL     OW75645   8.659   8.186   1.237
24624SOL    HW175646   8.747   8.148   1.244
24624SOL    HW275647   8.635   8.172   1.145
24625SOL     OW75648   6.179  12.503  12.562
24625SOL    HW175649   6.185  12.595  12.537
24625SOL    HW275650   6.086  12.486  12.571
24626SOL     OW75651   2.988   5.222   4.647
24626SOL    HW175652   2.949   5.310   4.644
24626SOL    HW275653   2.913   5.163   4.654
24627SOL     OW75654  12.602  13.999  12.474
24627SOL    HW175655  12.535  14.003  12.406
24627SOL    HW275656  12.575  13.928  12.531
24628SOL     OW75657   7.649   4.929   2.142
24628SOL    HW175658   7.732   4.905   2.101
24628SOL    HW275659   7.630   5.017   2.110
24629SOL     OW75660  11.077   8.243   6.393
24629SOL    HW175661  11.142   8.173   6.401
24629SOL    HW275662  11.119   8.307   6.335
24630SOL     OW75663   8.488   6.594  13.573
24630SOL    HW175664   8.412   6.579  13.629
24630SOL    HW275665   8.516   6.507  13.546
24631SOL     OW75666   1.829   2.834   3.518
24631SOL    HW175667   1.873   2.749   3.516
24631SOL    HW275668   1.753   2.823   3.461
24632SOL     OW75669   0.476   7.678   1.687
24632SOL    HW175670   0.499   7.619   1.759
24632SOL    HW275671   0.386   7.655   1.665
24633SOL     OW75672  12.382   2.417  10.050
24633SOL    HW175673  12.413   2.329  10.026
24633SOL    HW275674  12.462   2.463  10.078
24634SOL     OW75675   5.128   0.460   4.506
24634SOL    HW175676   5.182   0.497   4.436
24634SOL    HW275677   5.165   0.495   4.587
24635SOL     OW75678  12.575   6.290   3.398
24635SOL    HW175679  12.628   6.363   3.365
24635SOL    HW275680  12.504   6.332   3.447
24636SOL     OW75681   9.559   0.895   9.081
24636SOL    HW175682   9.551   0.802   9.101
24636SOL    HW275683   9.475   0.917   9.039
24637SOL     OW75684   9.562  13.637   2.429
24637SOL    HW175685   9.494  13.572   2.415
24637SOL    HW275686   9.515  13.715   2.458
24638SOL     OW75687  13.935  12.831   3.772
24638SOL    HW175688  14.028  12.819   3.792
24638SOL    HW275689  13.895  12.747   3.793
24639SOL     OW75690   0.250   3.934  12.508
24639SOL    HW175691   0.251   4.014  12.455
24639SOL    HW275692   0.319   3.948  12.573
24640SOL     OW75693   2.322  12.054  13.129
24640SOL    HW175694   2.308  11.959  13.136
24640SOL    HW275695   2.394  12.072  13.189
24641SOL     OW75696  11.991  14.083  12.683
24641SOL    HW175697  11.964  14.118  12.598
24641SOL    HW275698  11.909  14.060  12.726
24642SOL     OW75699   4.943   5.988   0.447
24642SOL    HW175700   5.012   6.051   0.429
24642SOL    HW275701   4.887   6.031   0.512
24643SOL     OW75702  11.821   0.332   7.371
24643SOL    HW175703  11.914   0.319   7.349
24643SOL    HW275704  11.805   0.425   7.352
24644SOL     OW75705   6.728   5.682  11.288
24644SOL    HW175706   6.798   5.742  11.263
24644SOL    HW275707   6.693   5.719  11.370
24645SOL     OW75708   9.835   8.941   0.112
24645SOL    HW175709   9.818   9.033   0.131
24645SOL    HW275710   9.801   8.894   0.189
24646SOL     OW75711   7.894   3.180  10.528
24646SOL    HW175712   7.936   3.094  10.520
24646SOL    HW275713   7.965   3.242  10.511
24647SOL     OW75714   1.174  13.441  12.586
24647SOL    HW175715   1.087  13.402  12.594
24647SOL    HW275716   1.234  13.369  12.609
24648SOL     OW75717   6.412   2.889   7.587
24648SOL    HW175718   6.464   2.880   7.667
24648SOL    HW275719   6.474   2.924   7.522
24649SOL     OW75720   5.893   4.284  10.860
24649SOL    HW175721   5.970   4.228  10.854
24649SOL    HW275722   5.871   4.285  10.953
24650SOL     OW75723  10.215   8.598   0.994
24650SOL    HW175724  10.279   8.527   0.982
24650SOL    HW275725  10.269   8.675   1.012
24651SOL     OW75726  11.792   2.825   7.580
24651SOL    HW175727  11.880   2.802   7.609
24651SOL    HW275728  11.758   2.883   7.649
24652SOL     OW75729   8.960   5.894   6.583
24652SOL    HW175730   8.889   5.917   6.523
24652SOL    HW275731   8.953   5.958   6.654
24653SOL     OW75732   8.811  13.062   9.036
24653SOL    HW175733   8.804  13.038   9.128
24653SOL    HW275734   8.808  12.978   8.989
24654SOL     OW75735   4.805   7.700   2.769
24654SOL    HW175736   4.816   7.795   2.773
24654SOL    HW275737   4.878   7.665   2.820
24655SOL     OW75738   8.993   2.418   9.270
24655SOL    HW175739   8.996   2.506   9.232
24655SOL    HW275740   8.899   2.399   9.279
24656SOL     OW75741   3.514  10.928  13.920
24656SOL    HW175742   3.584  10.863  13.912
24656SOL    HW275743   3.434  10.881  13.895
24657SOL     OW75744   0.526  13.811   4.433
24657SOL    HW175745   0.538  13.787   4.525
24657SOL    HW275746   0.495  13.901   4.434
24658SOL     OW75747   9.206   7.305  12.293
24658SOL    HW175748   9.288   7.319  12.245
24658SOL    HW275749   9.168   7.392  12.302
24659SOL     OW75750   2.558   8.978   5.769
24659SOL    HW175751   2.554   8.955   5.676
24659SOL    HW275752   2.568   8.894   5.814
24660SOL     OW75753   3.789   0.419  13.121
24660SOL    HW175754   3.789   0.398  13.028
24660SOL    HW275755   3.871   0.382  13.154
24661SOL     OW75756  11.609   8.823  11.918
24661SOL    HW175757  11.662   8.853  11.992
24661SOL    HW275758  11.629   8.729  11.911
24662SOL     OW75759  13.169   5.035  11.860
24662SOL    HW175760  13.264   5.040  11.870
24662SOL    HW275761  13.156   4.983  11.781
24663SOL     OW75762   6.581  12.997   1.085
24663SOL    HW175763   6.526  13.073   1.070
24663SOL    HW275764   6.660  13.032   1.128
24664SOL     OW75765   6.926  12.783   9.078
24664SOL    HW175766   6.869  12.707   9.075
24664SOL    HW275767   6.907  12.824   9.163
24665SOL     OW75768  11.758  10.329   7.894
24665SOL    HW175769  11.766  10.234   7.887
24665SOL    HW275770  11.848  10.360   7.891
24666SOL     OW75771   1.005  13.571   8.119
24666SOL    HW175772   0.943  13.572   8.047
24666SOL    HW275773   0.954  13.540   8.194
24667SOL     OW75774  14.244   6.483  13.170
24667SOL    HW175775  14.315   6.545  13.184
24667SOL    HW275776  14.281   6.398  13.195
24668SOL     OW75777  10.506   0.189   4.915
24668SOL    HW175778  10.537   0.172   5.004
24668SOL    HW275779  10.499   0.285   4.910
24669SOL     OW75780  14.020   1.811   5.362
24669SOL    HW175781  14.089   1.759   5.321
24669SOL    HW275782  13.966   1.747   5.408
24670SOL     OW75783   2.098   4.370   3.366
24670SOL    HW175784   2.105   4.459   3.400
24670SOL    HW275785   2.018   4.370   3.314
24671SOL     OW75786   6.017  14.501   7.630
24671SOL    HW175787   5.975  14.501   7.716
24671SOL    HW275788   6.001  14.588   7.595
24672SOL     OW75789   9.686   3.991   5.038
24672SOL    HW175790   9.742   4.056   4.995
24672SOL    HW275791   9.612   3.981   4.978
24673SOL     OW75792   5.377  13.161  11.821
24673SOL    HW175793   5.290  13.126  11.843
24673SOL    HW275794   5.365  13.202  11.735
24674SOL     OW75795   6.426  11.069   4.363
24674SOL    HW175796   6.521  11.056   4.372
24674SOL    HW275797   6.415  11.110   4.277
24675SOL     OW75798  13.513   5.279  12.261
24675SOL    HW175799  13.506   5.334  12.183
24675SOL    HW275800  13.510   5.189  12.228
24676SOL     OW75801  10.319   8.206   4.235
24676SOL    HW175802  10.295   8.140   4.169
24676SOL    HW275803  10.314   8.289   4.188
24677SOL     OW75804  12.921   6.895   0.634
24677SOL    HW175805  12.972   6.858   0.563
24677SOL    HW275806  12.967   6.868   0.714
24678SOL     OW75807  12.362   4.856  10.929
24678SOL    HW175808  12.452   4.823  10.922
24678SOL    HW275809  12.320   4.796  10.990
24679SOL     OW75810  12.019   6.353   8.883
24679SOL    HW175811  12.022   6.258   8.875
24679SOL    HW275812  11.966   6.369   8.960
24680SOL     OW75813   3.885  11.409  14.556
24680SOL    HW175814   3.957  11.375  14.503
24680SOL    HW275815   3.922  11.483  14.603
24681SOL     OW75816   6.815   8.825   8.752
24681SOL    HW175817   6.910   8.810   8.750
24681SOL    HW275818   6.796   8.845   8.844
24682SOL     OW75819   0.284   4.254   6.264
24682SOL    HW175820   0.251   4.166   6.280
24682SOL    HW275821   0.237   4.283   6.185
24683SOL     OW75822   3.792  11.221  12.040
24683SOL    HW175823   3.840  11.150  12.082
24683SOL    HW275824   3.769  11.281  12.111
24684SOL     OW75825  13.391   9.767   6.540
24684SOL    HW175826  13.335   9.816   6.600
24684SOL    HW275827  13.334   9.699   6.504
24685SOL     OW75828  12.300   2.561   3.560
24685SOL    HW175829  12.309   2.634   3.622
24685SOL    HW275830  12.240   2.594   3.493
24686SOL     OW75831   7.575  13.339   7.433
24686SOL    HW175832   7.588  13.260   7.381
24686SOL    HW275833   7.490  13.328   7.475
24687SOL     OW75834   3.389   5.509   1.068
24687SOL    HW175835   3.451   5.491   0.998
24687SOL    HW275836   3.441   5.551   1.136
24688SOL     OW75837   2.035   9.635  14.879
24688SOL    HW175838   2.046   9.556  14.827
24688SOL    HW275839   2.103   9.694  14.849
24689SOL     OW75840   6.837   8.856   5.882
24689SOL    HW175841   6.760   8.878   5.831
24689SOL    HW275842   6.878   8.940   5.902
24690SOL     OW75843   1.991   8.422  12.284
24690SOL    HW175844   1.980   8.347  12.226
24690SOL    HW275845   2.068   8.467  12.251
24691SOL     OW75846  12.182   1.691   3.437
24691SOL    HW175847  12.191   1.783   3.461
24691SOL    HW275848  12.238   1.680   3.361
24692SOL     OW75849   4.193   8.451   3.660
24692SOL    HW175850   4.253   8.520   3.632
24692SOL    HW275851   4.160   8.413   3.579
24693SOL     OW75852  14.003  12.903   7.672
24693SOL    HW175853  14.086  12.937   7.637
24693SOL    HW275854  14.011  12.808   7.663
24694SOL     OW75855   0.620   9.493   1.548
24694SOL    HW175856   0.570   9.416   1.575
24694SOL    HW275857   0.562   9.539   1.486
24695SOL     OW75858  12.108   1.299   9.013
24695SOL    HW175859  12.101   1.330   9.103
24695SOL    HW275860  12.187   1.339   8.980
24696SOL     OW75861   6.814   9.327   6.197
24696SOL    HW175862   6.840   9.419   6.188
24696SOL    HW275863   6.842   9.303   6.285
24697SOL     OW75864  12.782  14.331   4.502
24697SOL    HW175865  12.776  14.383   4.422
24697SOL    HW275866  12.860  14.364   4.547
24698SOL     OW75867   7.151   6.453   8.934
24698SOL    HW175868   7.072   6.506   8.943
24698SOL    HW275869   7.181   6.440   9.024
24699SOL     OW75870   9.236   0.132   9.365
24699SOL    HW175871   9.262   0.220   9.392
24699SOL    HW275872   9.171   0.105   9.430
24700SOL     OW75873  11.430   0.253   0.568
24700SOL    HW175874  11.490   0.289   0.634
24700SOL    HW275875  11.461   0.290   0.486
24701SOL     OW75876   2.958   5.875   8.506
24701SOL    HW175877   2.917   5.801   8.552
24701SOL    HW275878   2.885   5.920   8.464
24702SOL     OW75879   4.221   0.763   3.123
24702SOL    HW175880   4.303   0.784   3.079
24702SOL    HW275881   4.190   0.684   3.080
24703SOL     OW75882   0.725  11.229   4.829
24703SOL    HW175883   0.643  11.256   4.786
24703SOL    HW275884   0.697  11.192   4.912
24704SOL     OW75885   4.083  12.823   2.274
24704SOL    HW175886   4.081  12.727   2.281
24704SOL    HW275887   4.146  12.849   2.341
24705SOL     OW75888  12.501  12.350  13.277
24705SOL    HW175889  12.512  12.354  13.372
24705SOL    HW275890  12.518  12.440  13.248
24706SOL     OW75891  11.226   8.342  14.367
24706SOL    HW175892  11.311   8.386  14.363
24706SOL    HW275893  11.247   8.252  14.394
24707SOL     OW75894   8.044  11.048   2.538
24707SOL    HW175895   8.127  11.050   2.491
24707SOL    HW275896   8.005  11.134   2.523
24708SOL     OW75897   3.361   3.879   7.020
24708SOL    HW175898   3.347   3.934   6.943
24708SOL    HW275899   3.389   3.794   6.984
24709SOL     OW75900   2.062   1.637   2.690
24709SOL    HW175901   2.130   1.701   2.668
24709SOL    HW275902   2.027   1.610   2.605
24710SOL     OW75903   0.203  14.186   4.333
24710SOL    HW175904   0.261  14.196   4.257
24710SOL    HW275905   0.141  14.259   4.326
24711SOL     OW75906   2.664   1.495  14.716
24711SOL    HW175907   2.673   1.511  14.622
24711SOL    HW275908   2.749   1.520  14.753
24712SOL     OW75909   1.400   9.393  12.688
24712SOL    HW175910   1.434   9.477  12.719
24712SOL    HW275911   1.425   9.330  12.756
24713SOL     OW75912  10.134   5.811  11.876
24713SOL    HW175913  10.051   5.860  11.882
24713SOL    HW275914  10.146   5.773  11.963
24714SOL     OW75915   3.094   4.240   0.563
24714SOL    HW175916   3.151   4.177   0.606
24714SOL    HW275917   3.132   4.326   0.583
24715SOL     OW75918   9.422   0.630   0.328
24715SOL    HW175919   9.516   0.619   0.344
24715SOL    HW275920   9.381   0.559   0.378
24716SOL     OW75921   0.898   9.432  11.685
24716SOL    HW175922   0.898   9.396  11.774
24716SOL    HW275923   0.990   9.437  11.661
24717SOL     OW75924  14.264  11.856  13.224
24717SOL    HW175925  14.275  11.849  13.129
24717SOL    HW275926  14.170  11.840  13.238
24718SOL     OW75927   5.801   7.775   0.831
24718SOL    HW175928   5.765   7.851   0.784
24718SOL    HW275929   5.724   7.724   0.856
24719SOL     OW75930  10.885   9.319  10.533
24719SOL    HW175931  10.850   9.232  10.553
24719SOL    HW275932  10.911   9.354  10.618
24720SOL     OW75933  12.945   6.307   5.147
24720SOL    HW175934  12.903   6.277   5.066
24720SOL    HW275935  13.012   6.241   5.165
24721SOL     OW75936   9.188  12.013   5.616
24721SOL    HW175937   9.108  11.992   5.568
24721SOL    HW275938   9.166  12.091   5.667
24722SOL     OW75939  13.237   6.954   4.509
24722SOL    HW175940  13.237   7.006   4.589
24722SOL    HW275941  13.329   6.943   4.486
24723SOL     OW75942  13.972  13.219   8.386
24723SOL    HW175943  14.006  13.179   8.466
24723SOL    HW275944  13.937  13.304   8.415
24724SOL     OW75945  14.105   1.586  11.661
24724SOL    HW175946  14.120   1.641  11.738
24724SOL    HW275947  14.010   1.586  11.650
24725SOL     OW75948  13.199  14.630  11.712
24725SOL    HW175949  13.206  14.537  11.689
24725SOL    HW275950  13.105  14.644  11.724
24726SOL     OW75951   8.611  10.949   8.107
24726SOL    HW175952   8.679  10.925   8.044
24726SOL    HW275953   8.531  10.910   8.073
24727SOL     OW75954   5.887   9.894   2.015
24727SOL    HW175955   5.886   9.844   2.097
24727SOL    HW275956   5.847   9.836   1.951
24728SOL     OW75957   6.007  12.929  10.167
24728SOL    HW175958   5.924  12.974  10.184
24728SOL    HW275959   6.069  12.970  10.227
24729SOL     OW75960   7.166  10.991  14.836
24729SOL    HW175961   7.233  10.923  14.836
24729SOL    HW275962   7.210  11.067  14.875
24730SOL     OW75963   2.694  12.665  11.524
24730SOL    HW175964   2.720  12.663  11.432
24730SOL    HW275965   2.704  12.574  11.553
24731SOL     OW75966  13.003   6.006   5.162
24731SOL    HW175967  12.935   6.001   5.230
24731SOL    HW275968  13.071   5.946   5.193
24732SOL     OW75969   3.961  12.619   6.929
24732SOL    HW175970   3.937  12.562   6.856
24732SOL    HW275971   3.908  12.588   7.002
24733SOL     OW75972   7.162   7.270  11.049
24733SOL    HW175973   7.216   7.325  10.992
24733SOL    HW275974   7.126   7.331  11.114
24734SOL     OW75975   2.904   7.234  11.189
24734SOL    HW175976   2.827   7.241  11.247
24734SOL    HW275977   2.945   7.151  11.213
24735SOL     OW75978   4.048   8.363   8.014
24735SOL    HW175979   4.116   8.414   7.969
24735SOL    HW275980   4.066   8.375   8.107
24736SOL     OW75981   4.957  11.022   2.093
24736SOL    HW175982   4.870  10.985   2.076
24736SOL    HW275983   4.944  11.116   2.089
24737SOL     OW75984   1.082   0.946   4.618
24737SOL    HW175985   1.086   0.906   4.532
24737SOL    HW275986   1.117   1.034   4.606
24738SOL     OW75987   6.661  13.737   9.966
24738SOL    HW175988   6.742  13.718  10.013
24738SOL    HW275989   6.609  13.657   9.972
24739SOL     OW75990  11.451  10.315  13.098
24739SOL    HW175991  11.530  10.329  13.046
24739SOL    HW275992  11.483  10.275  13.179
24740SOL     OW75993   9.831   0.848   6.174
24740SOL    HW175994   9.888   0.772   6.180
24740SOL    HW275995   9.755   0.827   6.229
24741SOL     OW75996  13.748  12.729   9.451
24741SOL    HW175997  13.759  12.641   9.414
24741SOL    HW275998  13.673  12.721   9.509
24742SOL     OW75999   0.932   4.543   4.927
24742SOL    HW176000   0.859   4.483   4.940
24742SOL    HW276001   1.010   4.493   4.952
24743SOL     OW76002  14.665  11.345   3.655
24743SOL    HW176003  14.635  11.261   3.620
24743SOL    HW276004  14.760  11.344   3.643
24744SOL     OW76005   9.443   4.730   4.229
24744SOL    HW176006   9.524   4.760   4.186
24744SOL    HW276007   9.374   4.780   4.186
24745SOL     OW76008   8.551   3.126   5.071
24745SOL    HW176009   8.525   3.101   5.160
24745SOL    HW276010   8.637   3.167   5.081
24746SOL     OW76011  12.467   3.017  13.274
24746SOL    HW176012  12.421   3.046  13.195
24746SOL    HW276013  12.403   2.965  13.322
24747SOL     OW76014   6.484   0.631   2.398
24747SOL    HW176015   6.524   0.646   2.484
24747SOL    HW276016   6.395   0.666   2.406
24748SOL     OW76017   6.224   7.236  14.340
24748SOL    HW176018   6.320   7.229  14.345
24748SOL    HW276019   6.197   7.258  14.429
24749SOL     OW76020  11.577  11.169   4.461
24749SOL    HW176021  11.563  11.075   4.449
24749SOL    HW276022  11.650  11.175   4.522
24750SOL     OW76023  13.425  12.624  10.584
24750SOL    HW176024  13.504  12.610  10.531
24750SOL    HW276025  13.439  12.570  10.662
24751SOL     OW76026   7.628   1.943   3.328
24751SOL    HW176027   7.663   1.906   3.247
24751SOL    HW276028   7.543   1.901   3.339
24752SOL     OW76029  10.066  10.517  13.783
24752SOL    HW176030   9.987  10.566  13.805
24752SOL    HW276031  10.100  10.486  13.867
24753SOL     OW76032   6.306   5.710   5.163
24753SOL    HW176033   6.213   5.690   5.169
24753SOL    HW276034   6.349   5.646   5.220
24754SOL     OW76035  13.817   7.751  10.109
24754SOL    HW176036  13.830   7.657  10.122
24754SOL    HW276037  13.799   7.785  10.197
24755SOL     OW76038   7.268   2.365   2.146
24755SOL    HW176039   7.271   2.302   2.073
24755SOL    HW276040   7.193   2.421   2.126
24756SOL     OW76041   1.334  13.083   6.154
24756SOL    HW176042   1.317  13.080   6.060
24756SOL    HW276043   1.428  13.102   6.161
24757SOL     OW76044   3.776   9.324   1.748
24757SOL    HW176045   3.850   9.271   1.721
24757SOL    HW276046   3.797   9.352   1.837
24758SOL     OW76047   2.027   1.451  13.734
24758SOL    HW176048   1.964   1.452  13.807
24758SOL    HW276049   2.109   1.481  13.774
24759SOL     OW76050   4.385  12.181   9.183
24759SOL    HW176051   4.437  12.113   9.226
24759SOL    HW276052   4.399  12.167   9.090
24760SOL     OW76053   9.713  12.289   8.271
24760SOL    HW176054   9.681  12.199   8.276
24760SOL    HW276055   9.794  12.283   8.219
24761SOL     OW76056   8.783   6.863  13.290
24761SOL    HW176057   8.837   6.815  13.228
24761SOL    HW276058   8.787   6.812  13.371
24762SOL     OW76059   5.347  12.574  12.676
24762SOL    HW176060   5.395  12.492  12.689
24762SOL    HW276061   5.412  12.642  12.691
24763SOL     OW76062  10.890   1.124  11.955
24763SOL    HW176063  10.831   1.164  12.020
24763SOL    HW276064  10.968   1.101  12.005
24764SOL     OW76065   3.436   2.370   8.931
24764SOL    HW176066   3.472   2.386   9.018
24764SOL    HW276067   3.510   2.340   8.880
24765SOL     OW76068   5.725   3.490   8.554
24765SOL    HW176069   5.678   3.544   8.618
24765SOL    HW276070   5.671   3.411   8.545
24766SOL     OW76071   4.782  12.256   8.670
24766SOL    HW176072   4.786  12.289   8.760
24766SOL    HW276073   4.874  12.238   8.648
24767SOL     OW76074   7.291   6.454  13.619
24767SOL    HW176075   7.373   6.451  13.669
24767SOL    HW276076   7.243   6.527  13.658
24768SOL     OW76077   0.230   3.387   7.458
24768SOL    HW176078   0.139   3.367   7.481
24768SOL    HW276079   0.282   3.326   7.511
24769SOL     OW76080  13.573   3.329  10.698
24769SOL    HW176081  13.495   3.349  10.645
24769SOL    HW276082  13.556   3.240  10.731
24770SOL     OW76083   9.901   4.580   7.489
24770SOL    HW176084   9.966   4.548   7.426
24770SOL    HW276085   9.952   4.604   7.566
24771SOL     OW76086  13.460   9.026  10.759
24771SOL    HW176087  13.451   9.077  10.839
24771SOL    HW276088  13.544   8.981  10.767
24772SOL     OW76089   6.111   9.403   9.417
24772SOL    HW176090   6.206   9.414   9.416
24772SOL    HW276091   6.078   9.487   9.450
24773SOL     OW76092  13.643   3.604   4.126
24773SOL    HW176093  13.667   3.650   4.046
24773SOL    HW276094  13.698   3.526   4.126
24774SOL     OW76095   4.905  14.686  13.461
24774SOL    HW176096   4.992  14.704  13.425
24774SOL    HW276097   4.878  14.769  13.501
24775SOL     OW76098  14.825  14.712   5.532
24775SOL    HW176099   0.025  14.661   5.529
24775SOL    HW276100  14.756  14.646   5.542
24776SOL     OW76101  13.320   7.437  14.107
24776SOL    HW176102  13.324   7.385  14.026
24776SOL    HW276103  13.319   7.528  14.077
24777SOL     OW76104  11.670  12.084  11.001
24777SOL    HW176105  11.622  12.144  10.944
24777SOL    HW276106  11.627  11.999  10.987
24778SOL     OW76107  11.200   0.733   5.684
24778SOL    HW176108  11.223   0.804   5.744
24778SOL    HW276109  11.264   0.664   5.702
24779SOL     OW76110   6.476  14.740   9.533
24779SOL    HW176111   6.461  14.764   9.442
24779SOL    HW276112   6.407  14.785   9.582
24780SOL     OW76113  14.059   7.988   1.706
24780SOL    HW176114  14.006   8.035   1.770
24780SOL    HW276115  14.105   8.057   1.658
24781SOL     OW76116  14.413  13.660   1.962
24781SOL    HW176117  14.506  13.668   1.980
24781SOL    HW276118  14.399  13.567   1.947
24782SOL     OW76119  13.216  11.855  14.790
24782SOL    HW176120  13.141  11.798  14.772
24782SOL    HW276121  13.291  11.810  14.749
24783SOL     OW76122  10.288   0.339  11.335
24783SOL    HW176123  10.247   0.252  11.340
24783SOL    HW276124  10.381   0.321  11.321
24784SOL     OW76125   7.810  13.976   1.482
24784SOL    HW176126   7.790  14.042   1.414
24784SOL    HW276127   7.849  14.027   1.553
24785SOL     OW76128   9.386   0.331  10.283
24785SOL    HW176129   9.398   0.349  10.377
24785SOL    HW276130   9.389   0.418  10.242
24786SOL     OW76131  14.188   3.904   1.481
24786SOL    HW176132  14.146   3.990   1.486
24786SOL    HW276133  14.281   3.923   1.491
24787SOL     OW76134   1.226   6.362  11.716
24787SOL    HW176135   1.303   6.383  11.769
24787SOL    HW276136   1.156   6.350  11.780
24788SOL     OW76137   7.838   5.579   2.745
24788SOL    HW176138   7.832   5.574   2.840
24788SOL    HW276139   7.798   5.497   2.714
24789SOL     OW76140   7.048   9.040   3.079
24789SOL    HW176141   7.142   9.049   3.099
24789SOL    HW276142   7.007   9.114   3.124
24790SOL     OW76143   3.322  14.234  10.537
24790SOL    HW176144   3.376  14.279  10.472
24790SOL    HW276145   3.359  14.259  10.621
24791SOL     OW76146  10.214   4.359   6.667
24791SOL    HW176147  10.308   4.354   6.650
24791SOL    HW276148  10.187   4.442   6.627
24792SOL     OW76149  11.057   7.684   3.658
24792SOL    HW176150  11.151   7.682   3.646
24792SOL    HW276151  11.031   7.591   3.660
24793SOL     OW76152  10.892   8.498   0.079
24793SOL    HW176153  10.880   8.591   0.057
24793SOL    HW276154  10.803   8.462   0.079
24794SOL     OW76155   1.057   5.489  12.920
24794SOL    HW176156   1.138   5.453  12.958
24794SOL    HW276157   1.088   5.556  12.859
24795SOL     OW76158  12.224   1.579   2.400
24795SOL    HW176159  12.183   1.598   2.315
24795SOL    HW276160  12.166   1.619   2.464
24796SOL     OW76161   6.466   3.141   9.973
24796SOL    HW176162   6.533   3.117  10.037
24796SOL    HW276163   6.398   3.075   9.984
24797SOL     OW76164  14.293   1.760  13.562
24797SOL    HW176165  14.268   1.695  13.496
24797SOL    HW276166  14.216   1.766  13.619
24798SOL     OW76167  13.888   8.801   5.828
24798SOL    HW176168  13.848   8.834   5.907
24798SOL    HW276169  13.860   8.709   5.822
24799SOL     OW76170   1.994   5.114   4.350
24799SOL    HW176171   1.971   5.206   4.358
24799SOL    HW276172   2.022   5.104   4.259
24800SOL     OW76173   9.307  14.197   5.612
24800SOL    HW176174   9.273  14.108   5.603
24800SOL    HW276175   9.230  14.253   5.609
24801SOL     OW76176  14.439   8.564   1.365
24801SOL    HW176177  14.413   8.598   1.279
24801SOL    HW276178  14.535   8.561   1.362
24802SOL     OW76179  13.734   9.845   2.203
24802SOL    HW176180  13.807   9.795   2.166
24802SOL    HW276181  13.697   9.788   2.269
24803SOL     OW76182  13.897  12.894   6.796
24803SOL    HW176183  13.875  12.984   6.771
24803SOL    HW276184  13.821  12.842   6.767
24804SOL     OW76185   5.468  14.804   5.903
24804SOL    HW176186   5.556  14.832   5.880
24804SOL    HW276187   5.412  14.878   5.877
24805SOL     OW76188  10.113   2.651  13.003
24805SOL    HW176189  10.072   2.714  13.061
24805SOL    HW276190  10.143   2.704  12.928
24806SOL     OW76191  14.633  10.076   9.749
24806SOL    HW176192  14.698  10.018   9.787
24806SOL    HW276193  14.571  10.018   9.705
24807SOL     OW76194   8.387   0.514  10.974
24807SOL    HW176195   8.364   0.586  11.033
24807SOL    HW276196   8.314   0.453  10.980
24808SOL     OW76197   3.003  14.165  12.075
24808SOL    HW176198   3.003  14.129  11.987
24808SOL    HW276199   2.986  14.258  12.063
24809SOL     OW76200   1.709  12.239   2.641
24809SOL    HW176201   1.798  12.256   2.610
24809SOL    HW276202   1.665  12.324   2.636
24810SOL     OW76203   9.955  10.375   2.879
24810SOL    HW176204   9.866  10.339   2.888
24810SOL    HW276205   9.974  10.410   2.966
24811SOL     OW76206   6.623   0.607  12.861
24811SOL    HW176207   6.680   0.545  12.905
24811SOL    HW276208   6.557   0.631  12.926
24812SOL     OW76209  13.845   0.008   7.780
24812SOL    HW176210  13.840  14.868   7.687
24812SOL    HW276211  13.763   0.055   7.798
24813SOL     OW76212   7.606   1.705   6.794
24813SOL    HW176213   7.597   1.777   6.733
24813SOL    HW276214   7.517   1.671   6.804
24814SOL     OW76215  14.558   3.938   3.167
24814SOL    HW176216  14.592   3.980   3.246
24814SOL    HW276217  14.484   3.992   3.140
24815SOL     OW76218   9.011  10.069   0.986
24815SOL    HW176219   9.016  10.117   0.904
24815SOL    HW276220   8.922  10.085   1.018
24816SOL     OW76221   2.103   5.210  12.383
24816SOL    HW176222   2.018   5.203  12.427
24816SOL    HW276223   2.164   5.234  12.452
24817SOL     OW76224  11.110   7.044   9.626
24817SOL    HW176225  11.188   7.079   9.584
24817SOL    HW276226  11.046   7.037   9.555
24818SOL     OW76227   9.530   0.763  10.794
24818SOL    HW176228   9.532   0.804  10.707
24818SOL    HW276229   9.600   0.806  10.843
24819SOL     OW76230   9.868   1.088   7.768
24819SOL    HW176231   9.860   1.011   7.712
24819SOL    HW276232   9.957   1.082   7.803
24820SOL     OW76233   4.526   2.747  10.963
24820SOL    HW176234   4.611   2.730  11.004
24820SOL    HW276235   4.464   2.702  11.020
24821SOL     OW76236   3.943   3.838  12.289
24821SOL    HW176237   4.033   3.869  12.282
24821SOL    HW276238   3.889   3.911  12.258
24822SOL     OW76239  10.582  12.937   9.646
24822SOL    HW176240  10.614  13.008   9.589
24822SOL    HW276241  10.587  12.859   9.591
24823SOL     OW76242   3.120   4.915   6.974
24823SOL    HW176243   3.135   4.897   7.067
24823SOL    HW276244   3.025   4.905   6.964
24824SOL     OW76245  14.714   2.840   3.820
24824SOL    HW176246  14.744   2.779   3.753
24824SOL    HW276247  14.793   2.865   3.867
24825SOL     OW76248   2.073   2.394  12.899
24825SOL    HW176249   2.038   2.418  12.985
24825SOL    HW276250   2.156   2.351  12.918
24826SOL     OW76251   7.928  12.195   0.829
24826SOL    HW176252   7.896  12.266   0.774
24826SOL    HW276253   7.854  12.174   0.887
24827SOL     OW76254   6.996   3.680  10.667
24827SOL    HW176255   6.917   3.728  10.643
24827SOL    HW276256   7.005   3.695  10.761
24828SOL     OW76257   4.432  10.914  11.137
24828SOL    HW176258   4.515  10.912  11.090
24828SOL    HW276259   4.456  10.915  11.230
24829SOL     OW76260  10.226   4.371   8.660
24829SOL    HW176261  10.183   4.341   8.579
24829SOL    HW276262  10.200   4.463   8.669
24830SOL     OW76263   3.200   5.677   1.004
24830SOL    HW176264   3.204   5.743   0.935
24830SOL    HW276265   3.287   5.638   1.006
24831SOL     OW76266  10.993  14.590  14.382
24831SOL    HW176267  10.998  14.632  14.468
24831SOL    HW276268  10.900  14.566  14.373
24832SOL     OW76269   8.062   3.492   9.426
24832SOL    HW176270   8.075   3.397   9.427
24832SOL    HW276271   8.144   3.527   9.461
24833SOL     OW76272   6.777   5.707   1.961
24833SOL    HW176273   6.843   5.683   2.026
24833SOL    HW276274   6.774   5.802   1.964
24834SOL     OW76275  11.648   2.238   9.748
24834SOL    HW176276  11.724   2.205   9.700
24834SOL    HW276277  11.593   2.279   9.681
24835SOL     OW76278   5.541   1.854   8.296
24835SOL    HW176279   5.581   1.941   8.287
24835SOL    HW276280   5.487   1.861   8.375
24836SOL     OW76281   8.565  14.104  11.395
24836SOL    HW176282   8.491  14.052  11.427
24836SOL    HW276283   8.578  14.171  11.462
24837SOL     OW76284   4.510   4.373   2.229
24837SOL    HW176285   4.492   4.290   2.273
24837SOL    HW276286   4.584   4.410   2.276
24838SOL     OW76287   6.660   3.001   2.383
24838SOL    HW176288   6.640   3.091   2.355
24838SOL    HW276289   6.689   3.011   2.474
24839SOL     OW76290   9.020  10.163   0.731
24839SOL    HW176291   9.014  10.256   0.753
24839SOL    HW276292   9.053  10.162   0.641
24840SOL     OW76293   7.984   4.070   4.283
24840SOL    HW176294   7.941   4.148   4.319
24840SOL    HW276295   8.018   4.025   4.360
24841SOL     OW76296   2.133   4.654   3.141
24841SOL    HW176297   2.110   4.648   3.234
24841SOL    HW276298   2.107   4.569   3.105
24842SOL     OW76299   9.613   6.286   1.043
24842SOL    HW176300   9.671   6.210   1.031
24842SOL    HW276301   9.570   6.296   0.958
24843SOL     OW76302   2.622  11.564   1.099
24843SOL    HW176303   2.687  11.494   1.088
24843SOL    HW276304   2.621  11.580   1.193
24844SOL     OW76305  11.482  13.601  13.019
24844SOL    HW176306  11.455  13.519  12.977
24844SOL    HW276307  11.518  13.653  12.947
24845SOL     OW76308   2.909   4.135   2.482
24845SOL    HW176309   2.916   4.215   2.533
24845SOL    HW276310   2.871   4.162   2.399
24846SOL     OW76311   0.745   6.000  14.378
24846SOL    HW176312   0.666   6.013  14.326
24846SOL    HW276313   0.715   5.950  14.454
24847SOL     OW76314   4.557  14.407  14.645
24847SOL    HW176315   4.529  14.316  14.653
24847SOL    HW276316   4.488  14.448  14.593
24848SOL     OW76317  11.573   7.724   2.423
24848SOL    HW176318  11.651   7.779   2.435
24848SOL    HW276319  11.608   7.638   2.399
24849SOL     OW76320   3.953   4.178  10.598
24849SOL    HW176321   3.887   4.214  10.538
24849SOL    HW276322   3.925   4.088  10.614
24850SOL     OW76323   2.151  10.720   0.659
24850SOL    HW176324   2.125  10.628   0.661
24850SOL    HW276325   2.093  10.760   0.593
24851SOL     OW76326   7.683   6.369   4.635
24851SOL    HW176327   7.743   6.315   4.585
24851SOL    HW276328   7.618   6.399   4.572
24852SOL     OW76329   1.284   7.458   4.266
24852SOL    HW176330   1.370   7.419   4.279
24852SOL    HW276331   1.247   7.463   4.354
24853SOL     OW76332   1.575  11.096  13.285
24853SOL    HW176333   1.512  11.152  13.239
24853SOL    HW276334   1.534  11.010  13.286
24854SOL     OW76335   0.586  12.634  10.742
24854SOL    HW176336   0.554  12.563  10.686
24854SOL    HW276337   0.665  12.666  10.698
24855SOL     OW76338   2.519   7.758  10.528
24855SOL    HW176339   2.530   7.693  10.459
24855SOL    HW276340   2.554   7.839  10.490
24856SOL     OW76341  11.964   2.928   9.243
24856SOL    HW176342  11.934   2.923   9.153
24856SOL    HW276343  11.944   3.017   9.271
24857SOL     OW76344   7.439  11.048  13.708
24857SOL    HW176345   7.506  10.983  13.685
24857SOL    HW276346   7.458  11.069  13.800
24858SOL     OW76347  12.170   4.663   1.016
24858SOL    HW176348  12.141   4.720   0.944
24858SOL    HW276349  12.090   4.629   1.054
24859SOL     OW76350   5.991  10.249   4.133
24859SOL    HW176351   6.050  10.174   4.124
24859SOL    HW276352   5.966  10.270   4.043
24860SOL     OW76353   1.188  11.951   3.724
24860SOL    HW176354   1.124  11.932   3.793
24860SOL    HW276355   1.257  11.886   3.738
24861SOL     OW76356   3.450  11.947  10.894
24861SOL    HW176357   3.415  11.943  10.805
24861SOL    HW276358   3.526  12.006  10.886
24862SOL     OW76359  11.238   9.253   3.224
24862SOL    HW176360  11.299   9.262   3.297
24862SOL    HW276361  11.294   9.263   3.146
24863SOL     OW76362   2.552   9.608   5.690
24863SOL    HW176363   2.626   9.547   5.697
24863SOL    HW276364   2.577   9.668   5.620
24864SOL     OW76365   2.117   0.376   4.752
24864SOL    HW176366   2.188   0.348   4.809
24864SOL    HW276367   2.151   0.452   4.706
24865SOL     OW76368   3.544   9.796  11.555
24865SOL    HW176369   3.501   9.764  11.635
24865SOL    HW276370   3.547   9.720  11.497
24866SOL     OW76371   1.029   0.007   9.311
24866SOL    HW176372   1.113   0.049   9.329
24866SOL    HW276373   0.964   0.076   9.323
24867SOL     OW76374  13.377  10.523  13.536
24867SOL    HW176375  13.388  10.607  13.581
24867SOL    HW276376  13.462  10.506  13.496
24868SOL     OW76377  11.390   5.480  11.402
24868SOL    HW176378  11.303   5.505  11.433
24868SOL    HW276379  11.384   5.385  11.389
24869SOL     OW76380   9.285   0.042  13.560
24869SOL    HW176381   9.321   0.130  13.556
24869SOL    HW276382   9.357  14.867  13.532
24870SOL     OW76383   1.129   6.277   0.392
24870SOL    HW176384   1.113   6.369   0.412
24870SOL    HW276385   1.158   6.278   0.300
24871SOL     OW76386  13.991   9.577   0.270
24871SOL    HW176387  14.036   9.588   0.354
24871SOL    HW276388  13.922   9.513   0.289
24872SOL     OW76389   6.534  14.077   0.172
24872SOL    HW176390   6.610  14.035   0.212
24872SOL    HW276391   6.567  14.160   0.139
24873SOL     OW76392   6.735   1.034   1.541
24873SOL    HW176393   6.784   1.047   1.622
24873SOL    HW276394   6.644   1.027   1.569
24874SOL     OW76395   9.445   9.389   5.597
24874SOL    HW176396   9.474   9.315   5.651
24874SOL    HW276397   9.399   9.447   5.658
24875SOL     OW76398   2.652  13.097  14.417
24875SOL    HW176399   2.718  13.049  14.467
24875SOL    HW276400   2.601  13.144  14.484
24876SOL     OW76401   0.569   2.360  12.299
24876SOL    HW176402   0.476   2.336  12.297
24876SOL    HW276403   0.575   2.427  12.367
24877SOL     OW76404  12.074  14.511   2.722
24877SOL    HW176405  12.072  14.497   2.627
24877SOL    HW276406  12.120  14.594   2.732
24878SOL     OW76407   3.918   3.600  11.165
24878SOL    HW176408   3.915   3.556  11.080
24878SOL    HW276409   3.870   3.682  11.151
24879SOL     OW76410  10.799   2.780   8.965
24879SOL    HW176411  10.752   2.833   8.900
24879SOL    HW276412  10.826   2.843   9.032
24880SOL     OW76413   6.950   1.150   7.457
24880SOL    HW176414   7.024   1.097   7.427
24880SOL    HW276415   6.895   1.089   7.506
24881SOL     OW76416   7.018   6.895   7.449
24881SOL    HW176417   6.994   6.843   7.526
24881SOL    HW276418   7.072   6.837   7.396
24882SOL     OW76419  13.874   9.982   5.601
24882SOL    HW176420  13.869  10.050   5.669
24882SOL    HW276421  13.871  10.031   5.518
24883SOL     OW76422   7.390  11.795   2.113
24883SOL    HW176423   7.459  11.850   2.148
24883SOL    HW276424   7.412  11.784   2.020
24884SOL     OW76425  10.371   9.839   6.225
24884SOL    HW176426  10.411   9.754   6.237
24884SOL    HW276427  10.280   9.820   6.200
24885SOL     OW76428  12.136   7.214  14.392
24885SOL    HW176429  12.123   7.280  14.460
24885SOL    HW276430  12.227   7.224  14.366
24886SOL     OW76431   7.881  12.385  11.969
24886SOL    HW176432   7.816  12.421  12.030
24886SOL    HW276433   7.890  12.452  11.902
24887SOL     OW76434  13.283   9.406   6.191
24887SOL    HW176435  13.219   9.475   6.210
24887SOL    HW276436  13.288   9.403   6.095
24888SOL     OW76437  10.275   8.780   9.294
24888SOL    HW176438  10.300   8.736   9.375
24888SOL    HW276439  10.180   8.785   9.298
24889SOL     OW76440   3.245  11.515  13.778
24889SOL    HW176441   3.149  11.517  13.777
24889SOL    HW276442   3.270  11.602  13.807
24890SOL     OW76443   1.743   0.115  12.532
24890SOL    HW176444   1.796   0.086  12.606
24890SOL    HW276445   1.805   0.163  12.477
24891SOL     OW76446   6.603   1.981  12.679
24891SOL    HW176447   6.663   1.917  12.718
24891SOL    HW276448   6.621   2.062  12.727
24892SOL     OW76449  13.261  10.648  11.459
24892SOL    HW176450  13.225  10.605  11.381
24892SOL    HW276451  13.191  10.704  11.490
24893SOL     OW76452   1.280   8.855  13.185
24893SOL    HW176453   1.338   8.929  13.203
24893SOL    HW276454   1.328   8.803  13.120
24894SOL     OW76455  14.126   4.879  13.079
24894SOL    HW176456  14.202   4.850  13.129
24894SOL    HW276457  14.162   4.906  12.995
24895SOL     OW76458   1.680  12.632   9.421
24895SOL    HW176459   1.698  12.631   9.515
24895SOL    HW276460   1.675  12.725   9.399
24896SOL     OW76461   4.075   5.784   8.099
24896SOL    HW176462   4.033   5.767   8.015
24896SOL    HW276463   4.162   5.747   8.091
24897SOL     OW76464   5.694  14.274   7.779
24897SOL    HW176465   5.634  14.253   7.850
24897SOL    HW276466   5.638  14.300   7.707
24898SOL     OW76467   7.806   5.718   7.671
24898SOL    HW176468   7.865   5.758   7.607
24898SOL    HW276469   7.807   5.625   7.650
24899SOL     OW76470   0.223   7.212   7.822
24899SOL    HW176471   0.217   7.141   7.886
24899SOL    HW276472   0.314   7.208   7.791
24900SOL     OW76473   0.527   0.249  11.172
24900SOL    HW176474   0.482   0.324  11.212
24900SOL    HW276475   0.457   0.196  11.135
24901SOL     OW76476   6.201   0.690   9.084
24901SOL    HW176477   6.227   0.776   9.050
24901SOL    HW276478   6.223   0.695   9.177
24902SOL     OW76479  14.505   1.131   8.969
24902SOL    HW176480  14.593   1.105   8.944
24902SOL    HW276481  14.512   1.156   9.061
24903SOL     OW76482  13.636  14.385   7.952
24903SOL    HW176483  13.722  14.417   7.926
24903SOL    HW276484  13.625  14.303   7.903
24904SOL     OW76485   0.861  12.020   7.760
24904SOL    HW176486   0.922  12.073   7.709
24904SOL    HW276487   0.788  12.003   7.700
24905SOL     OW76488  11.390   0.309   1.574
24905SOL    HW176489  11.306   0.321   1.619
24905SOL    HW276490  11.447   0.270   1.640
24906SOL     OW76491   0.722  14.838   6.125
24906SOL    HW176492   0.676   0.035   6.094
24906SOL    HW276493   0.656  14.790   6.176
24907SOL     OW76494   3.630   5.641   8.197
24907SOL    HW176495   3.686   5.584   8.143
24907SOL    HW276496   3.691   5.699   8.242
24908SOL     OW76497   3.543  11.497   4.767
24908SOL    HW176498   3.455  11.467   4.743
24908SOL    HW276499   3.549  11.480   4.861
24909SOL     OW76500   3.240   5.923  11.435
24909SOL    HW176501   3.277   5.953  11.352
24909SOL    HW276502   3.266   5.990  11.498
24910SOL     OW76503   8.353   3.400  13.966
24910SOL    HW176504   8.434   3.452  13.959
24910SOL    HW276505   8.290   3.449  13.914
24911SOL     OW76506   1.556  11.171   1.461
24911SOL    HW176507   1.500  11.183   1.384
24911SOL    HW276508   1.539  11.248   1.515
24912SOL     OW76509   3.245  10.756  10.384
24912SOL    HW176510   3.270  10.693  10.317
24912SOL    HW276511   3.184  10.709  10.441
24913SOL     OW76512   2.941  14.757   7.314
24913SOL    HW176513   2.973  14.788   7.399
24913SOL    HW276514   2.878  14.689   7.335
24914SOL     OW76515   6.925   6.266  11.688
24914SOL    HW176516   6.834   6.287  11.667
24914SOL    HW276517   6.930   6.275  11.783
24915SOL     OW76518   1.212   8.469   5.505
24915SOL    HW176519   1.209   8.377   5.531
24915SOL    HW276520   1.243   8.515   5.583
24916SOL     OW76521  10.667   6.371  11.391
24916SOL    HW176522  10.643   6.463  11.396
24916SOL    HW276523  10.718   6.355  11.470
24917SOL     OW76524   6.551   6.076   6.334
24917SOL    HW176525   6.570   6.154   6.283
24917SOL    HW276526   6.500   6.108   6.408
24918SOL     OW76527   8.962  14.005  10.457
24918SOL    HW176528   8.893  14.067  10.434
24918SOL    HW276529   8.917  13.933  10.501
24919SOL     OW76530  11.945  12.505   0.107
24919SOL    HW176531  11.866  12.459   0.079
24919SOL    HW276532  11.941  12.503   0.203
24920SOL     OW76533   3.168   0.269  10.222
24920SOL    HW176534   3.203   0.250  10.135
24920SOL    HW276535   3.221   0.216  10.281
24921SOL     OW76536  13.814   4.638   9.783
24921SOL    HW176537  13.802   4.716   9.837
24921SOL    HW276538  13.873   4.666   9.713
24922SOL     OW76539   5.420   6.193  11.115
24922SOL    HW176540   5.498   6.151  11.150
24922SOL    HW276541   5.428   6.285  11.140
24923SOL     OW76542  10.046   2.665   1.568
24923SOL    HW176543  10.029   2.598   1.634
24923SOL    HW276544   9.977   2.653   1.503
24924SOL     OW76545  10.413   9.375   4.553
24924SOL    HW176546  10.419   9.452   4.496
24924SOL    HW276547  10.392   9.411   4.639
24925SOL     OW76548  13.121   8.057   5.262
24925SOL    HW176549  13.137   8.136   5.313
24925SOL    HW276550  13.046   8.016   5.304
24926SOL     OW76551   1.612   3.277  11.757
24926SOL    HW176552   1.635   3.186  11.775
24926SOL    HW276553   1.643   3.291  11.667
24927SOL     OW76554  14.594   7.250  12.632
24927SOL    HW176555  14.628   7.264  12.720
24927SOL    HW276556  14.554   7.163  12.635
24928SOL     OW76557   3.909   6.459   1.240
24928SOL    HW176558   3.936   6.392   1.177
24928SOL    HW276559   3.906   6.540   1.189
24929SOL     OW76560   7.713   9.632   4.302
24929SOL    HW176561   7.750   9.715   4.331
24929SOL    HW276562   7.787   9.584   4.266
24930SOL     OW76563   1.500   6.641   4.106
24930SOL    HW176564   1.515   6.702   4.178
24930SOL    HW276565   1.459   6.694   4.038
24931SOL     OW76566  10.405  11.067  14.172
24931SOL    HW176567  10.366  11.109  14.096
24931SOL    HW276568  10.441  11.140  14.223
24932SOL     OW76569   8.012   7.345   2.246
24932SOL    HW176570   7.976   7.404   2.311
24932SOL    HW276571   8.026   7.399   2.168
24933SOL     OW76572   9.746   9.298  10.350
24933SOL    HW176573   9.756   9.203  10.357
24933SOL    HW276574   9.755   9.330  10.440
24934SOL     OW76575   3.694  10.553   6.141
24934SOL    HW176576   3.621  10.495   6.119
24934SOL    HW276577   3.749  10.553   6.063
24935SOL     OW76578   5.245  12.699   8.747
24935SOL    HW176579   5.309  12.747   8.800
24935SOL    HW276580   5.160  12.733   8.776
24936SOL     OW76581   0.204   7.009   3.220
24936SOL    HW176582   0.197   7.068   3.145
24936SOL    HW276583   0.250   6.932   3.187
24937SOL     OW76584  11.129   5.546  11.427
24937SOL    HW176585  11.046   5.549  11.380
24937SOL    HW276586  11.129   5.624  11.482
24938SOL     OW76587  10.003  13.955  13.883
24938SOL    HW176588  10.061  13.995  13.818
24938SOL    HW276589   9.929  13.922  13.831
24939SOL     OW76590   0.704  12.849   1.596
24939SOL    HW176591   0.726  12.861   1.689
24939SOL    HW276592   0.646  12.773   1.596
24940SOL     OW76593   3.329   5.479  14.245
24940SOL    HW176594   3.339   5.566  14.208
24940SOL    HW276595   3.240   5.478  14.281
24941SOL     OW76596  10.173  11.515  11.733
24941SOL    HW176597  10.145  11.604  11.754
24941SOL    HW276598  10.191  11.475  11.819
24942SOL     OW76599   1.752   8.180   8.461
24942SOL    HW176600   1.810   8.243   8.504
24942SOL    HW276601   1.758   8.203   8.368
24943SOL     OW76602   7.576  10.022  11.149
24943SOL    HW176603   7.485  10.035  11.121
24943SOL    HW276604   7.609   9.953  11.092
24944SOL     OW76605  13.316  13.935   0.367
24944SOL    HW176606  13.261  13.869   0.409
24944SOL    HW276607  13.282  14.018   0.400
24945SOL     OW76608  11.009   6.479   6.789
24945SOL    HW176609  11.052   6.482   6.874
24945SOL    HW276610  11.030   6.564   6.749
24946SOL     OW76611   8.346   7.250  14.881
24946SOL    HW176612   8.403   7.183  14.846
24946SOL    HW276613   8.338   7.315  14.811
24947SOL     OW76614   2.806  11.458   2.168
24947SOL    HW176615   2.843  11.517   2.103
24947SOL    HW276616   2.852  11.375   2.154
24948SOL     OW76617  13.084  10.222   3.792
24948SOL    HW176618  13.099  10.198   3.700
24948SOL    HW276619  13.108  10.144   3.841
24949SOL     OW76620  13.502   4.757   5.370
24949SOL    HW176621  13.535   4.701   5.300
24949SOL    HW276622  13.528   4.846   5.343
24950SOL     OW76623  11.316  14.434   8.773
24950SOL    HW176624  11.304  14.518   8.730
24950SOL    HW276625  11.410  14.418   8.770
24951SOL     OW76626  11.806   9.348  10.029
24951SOL    HW176627  11.895   9.319  10.053
24951SOL    HW276628  11.769   9.380  10.111
24952SOL     OW76629   0.283  12.452  10.751
24952SOL    HW176630   0.230  12.419  10.824
24952SOL    HW276631   0.290  12.546  10.767
24953SOL     OW76632   3.514   3.898   9.786
24953SOL    HW176633   3.603   3.932   9.775
24953SOL    HW276634   3.458   3.960   9.740
24954SOL     OW76635  14.445  10.289   7.046
24954SOL    HW176636  14.407  10.260   6.963
24954SOL    HW276637  14.428  10.217   7.106
24955SOL     OW76638  10.176   5.648   9.944
24955SOL    HW176639  10.195   5.566   9.989
24955SOL    HW276640  10.099   5.683   9.990
24956SOL     OW76641   5.283   1.699   5.159
24956SOL    HW176642   5.333   1.680   5.239
24956SOL    HW276643   5.191   1.695   5.187
24957SOL     OW76644   0.413   5.899   3.531
24957SOL    HW176645   0.352   5.827   3.515
24957SOL    HW276646   0.363   5.961   3.584
24958SOL     OW76647   3.146  10.055   5.156
24958SOL    HW176648   3.142  10.142   5.116
24958SOL    HW276649   3.125   9.995   5.085
24959SOL     OW76650  11.845   2.387   5.066
24959SOL    HW176651  11.868   2.480   5.061
24959SOL    HW276652  11.756   2.382   5.031
24960SOL     OW76653   4.358   6.408  13.434
24960SOL    HW176654   4.375   6.485  13.488
24960SOL    HW276655   4.314   6.442  13.356
24961SOL     OW76656  12.825   0.214   5.701
24961SOL    HW176657  12.784   0.185   5.619
24961SOL    HW276658  12.876   0.291   5.675
24962SOL     OW76659  13.042  13.153   8.911
24962SOL    HW176660  12.991  13.192   8.840
24962SOL    HW276661  13.064  13.066   8.880
24963SOL     OW76662   9.446  14.582  14.369
24963SOL    HW176663   9.377  14.577  14.435
24963SOL    HW276664   9.417  14.651  14.309
24964SOL     OW76665  13.901  12.155   8.508
24964SOL    HW176666  13.809  12.160   8.482
24964SOL    HW276667  13.944  12.111   8.434
24965SOL     OW76668  13.753  11.477   9.899
24965SOL    HW176669  13.720  11.466   9.809
24965SOL    HW276670  13.739  11.570   9.918
24966SOL     OW76671   8.082   6.469  12.930
24966SOL    HW176672   8.026   6.488  12.856
24966SOL    HW276673   8.161   6.521  12.915
24967SOL     OW76674   4.660   6.596   5.754
24967SOL    HW176675   4.703   6.533   5.812
24967SOL    HW276676   4.727   6.616   5.688
24968SOL     OW76677  11.936   9.719  11.485
24968SOL    HW176678  11.950   9.813  11.487
24968SOL    HW276679  12.018   9.683  11.450
24969SOL     OW76680   4.360   4.453   1.850
24969SOL    HW176681   4.373   4.507   1.927
24969SOL    HW276682   4.404   4.370   1.871
24970SOL     OW76683   2.389   8.640   8.412
24970SOL    HW176684   2.431   8.602   8.489
24970SOL    HW276685   2.461   8.668   8.356
24971SOL     OW76686   0.428  12.338   9.694
24971SOL    HW176687   0.369  12.277   9.650
24971SOL    HW276688   0.516  12.306   9.673
24972SOL     OW76689  12.015   9.417   5.608
24972SOL    HW176690  11.937   9.441   5.557
24972SOL    HW276691  11.993   9.332   5.646
24973SOL     OW76692  12.482   9.085  13.753
24973SOL    HW176693  12.465   9.158  13.694
24973SOL    HW276694  12.476   9.124  13.841
24974SOL     OW76695  13.993   8.112  11.769
24974SOL    HW176696  13.926   8.045  11.784
24974SOL    HW276697  13.955   8.192  11.806
24975SOL     OW76698   0.123   1.966   4.596
24975SOL    HW176699   0.129   2.061   4.602
24975SOL    HW276700   0.203   1.935   4.638
24976SOL     OW76701  12.328   4.484  14.154
24976SOL    HW176702  12.379   4.473  14.234
24976SOL    HW276703  12.269   4.409  14.152
24977SOL     OW76704  12.736   9.372  10.698
24977SOL    HW176705  12.672   9.421  10.749
24977SOL    HW276706  12.773   9.436  10.637
24978SOL     OW76707  10.571   0.685   7.709
24978SOL    HW176708  10.613   0.694   7.623
24978SOL    HW276709  10.497   0.626   7.693
24979SOL     OW76710   8.430  12.654   2.803
24979SOL    HW176711   8.402  12.694   2.721
24979SOL    HW276712   8.487  12.582   2.777
24980SOL     OW76713  14.652  10.483   0.315
24980SOL    HW176714  14.569  10.434   0.313
24980SOL    HW276715  14.712  10.425   0.361
24981SOL     OW76716  12.213  14.414  11.277
24981SOL    HW176717  12.293  14.384  11.235
24981SOL    HW276718  12.155  14.338  11.275
24982SOL     OW76719   8.775   8.451   8.597
24982SOL    HW176720   8.749   8.405   8.517
24982SOL    HW276721   8.866   8.425   8.611
24983SOL     OW76722   3.115  14.722  13.470
24983SOL    HW176723   3.198  14.733  13.423
24983SOL    HW276724   3.062  14.798  13.443
24984SOL     OW76725  11.378   4.654   9.529
24984SOL    HW176726  11.344   4.744   9.531
24984SOL    HW276727  11.425   4.649   9.445
24985SOL     OW76728  12.631  14.200   9.788
24985SOL    HW176729  12.618  14.142   9.713
24985SOL    HW276730  12.680  14.274   9.753
24986SOL     OW76731   1.137   2.812   3.448
24986SOL    HW176732   1.078   2.791   3.375
24986SOL    HW276733   1.152   2.906   3.441
24987SOL     OW76734   0.925   9.385   7.666
24987SOL    HW176735   0.954   9.312   7.721
24987SOL    HW276736   0.832   9.395   7.687
24988SOL     OW76737   6.156   0.385  12.124
24988SOL    HW176738   6.239   0.378  12.077
24988SOL    HW276739   6.180   0.403  12.215
24989SOL     OW76740  12.835   8.501  14.583
24989SOL    HW176741  12.819   8.529  14.493
24989SOL    HW276742  12.868   8.579  14.627
24990SOL     OW76743   2.546   9.038  12.280
24990SOL    HW176744   2.638   9.061  12.289
24990SOL    HW276745   2.513   9.038  12.370
24991SOL     OW76746   3.711   3.946   8.116
24991SOL    HW176747   3.646   3.933   8.186
24991SOL    HW276748   3.795   3.936   8.161
24992SOL     OW76749   5.959   9.550   1.816
24992SOL    HW176750   5.948   9.598   1.734
24992SOL    HW276751   5.871   9.544   1.853
24993SOL     OW76752   3.505  14.476   0.104
24993SOL    HW176753   3.544  14.438   0.182
24993SOL    HW276754   3.543  14.564   0.099
24994SOL     OW76755  13.166   8.339  10.588
24994SOL    HW176756  13.136   8.405  10.651
24994SOL    HW276757  13.218   8.279  10.640
24995SOL     OW76758   8.290   0.379   8.117
24995SOL    HW176759   8.281   0.391   8.022
24995SOL    HW276760   8.266   0.287   8.131
24996SOL     OW76761  11.820  13.039   7.565
24996SOL    HW176762  11.786  13.107   7.506
24996SOL    HW276763  11.915  13.044   7.554
24997SOL     OW76764   5.775   1.530  11.471
24997SOL    HW176765   5.781   1.560  11.562
24997SOL    HW276766   5.813   1.442  11.472
24998SOL     OW76767   6.454   9.437   1.392
24998SOL    HW176768   6.416   9.525   1.391
24998SOL    HW276769   6.544   9.449   1.360
24999SOL     OW76770   3.242   8.039   6.771
24999SOL    HW176771   3.279   7.975   6.832
24999SOL    HW276772   3.317   8.070   6.720
25000SOL     OW76773   3.362   4.590  10.491
25000SOL    HW176774   3.267   4.595  10.498
25000SOL    HW276775   3.384   4.501  10.520
25001SOL     OW76776   0.937   7.660   4.159
25001SOL    HW176777   0.869   7.708   4.112
25001SOL    HW276778   0.899   7.644   4.246
25002SOL     OW76779  10.957  12.400   0.367
25002SOL    HW176780  11.053  12.395   0.360
25002SOL    HW276781  10.929  12.439   0.285
25003SOL     OW76782   1.550  11.042   8.069
25003SOL    HW176783   1.482  11.083   8.122
25003SOL    HW276784   1.616  11.014   8.132
25004SOL     OW76785   0.182   6.606   9.064
25004SOL    HW176786   0.180   6.510   9.061
25004SOL    HW276787   0.274   6.627   9.080
25005SOL     OW76788   1.304   1.864  10.753
25005SOL    HW176789   1.232   1.851  10.692
25005SOL    HW276790   1.371   1.803  10.725
25006SOL     OW76791   6.595   2.448   1.077
25006SOL    HW176792   6.559   2.519   1.024
25006SOL    HW276793   6.677   2.483   1.112
25007SOL     OW76794   4.017   9.272   3.504
25007SOL    HW176795   4.081   9.238   3.441
25007SOL    HW276796   3.949   9.312   3.450
25008SOL     OW76797  11.534  11.519   0.064
25008SOL    HW176798  11.462  11.581   0.047
25008SOL    HW276799  11.508  11.440   0.017
25009SOL     OW76800   3.157  14.367  11.528
25009SOL    HW176801   3.220  14.301  11.556
25009SOL    HW276802   3.090  14.366  11.596
25010SOL     OW76803   1.340   0.920  12.018
25010SOL    HW176804   1.316   0.838  12.060
25010SOL    HW276805   1.433   0.911  11.999
25011SOL     OW76806   1.895   8.667   1.704
25011SOL    HW176807   1.913   8.574   1.721
25011SOL    HW276808   1.982   8.707   1.699
25012SOL     OW76809   2.365   6.006   2.508
25012SOL    HW176810   2.381   5.972   2.420
25012SOL    HW276811   2.446   5.989   2.556
25013SOL     OW76812   2.484   0.919   0.410
25013SOL    HW176813   2.468   1.000   0.459
25013SOL    HW276814   2.415   0.919   0.343
25014SOL     OW76815   8.658   3.691   0.420
25014SOL    HW176816   8.569   3.693   0.383
25014SOL    HW276817   8.705   3.760   0.374
25015SOL     OW76818   8.574   0.115   3.054
25015SOL    HW176819   8.593   0.041   2.996
25015SOL    HW276820   8.498   0.086   3.105
25016SOL     OW76821  12.212   6.321   5.287
25016SOL    HW176822  12.212   6.375   5.208
25016SOL    HW276823  12.295   6.343   5.330
25017SOL     OW76824   2.788   6.541   2.964
25017SOL    HW176825   2.755   6.451   2.960
25017SOL    HW276826   2.877   6.535   2.931
25018SOL     OW76827  10.671   2.207  14.521
25018SOL    HW176828  10.608   2.199  14.593
25018SOL    HW276829  10.643   2.284  14.472
25019SOL     OW76830  14.481   6.563   3.237
25019SOL    HW176831  14.546   6.504   3.274
25019SOL    HW276832  14.484   6.641   3.292
25020SOL     OW76833   7.192   8.529   1.476
25020SOL    HW176834   7.281   8.549   1.448
25020SOL    HW276835   7.163   8.458   1.418
25021SOL     OW76836   3.834   6.224  12.687
25021SOL    HW176837   3.805   6.261  12.770
25021SOL    HW276838   3.879   6.143  12.711
25022SOL     OW76839  11.952  10.701   8.285
25022SOL    HW176840  11.878  10.649   8.315
25022SOL    HW276841  11.929  10.726   8.196
25023SOL     OW76842   5.814   1.103   6.698
25023SOL    HW176843   5.742   1.112   6.635
25023SOL    HW276844   5.806   1.181   6.754
25024SOL     OW76845   0.943   1.174  11.220
25024SOL    HW176846   0.978   1.112  11.156
25024SOL    HW276847   0.927   1.121  11.298
25025SOL     OW76848   4.152  14.470   4.675
25025SOL    HW176849   4.110  14.418   4.743
25025SOL    HW276850   4.127  14.427   4.593
25026SOL     OW76851   1.471   1.111   4.130
25026SOL    HW176852   1.433   1.083   4.213
25026SOL    HW276853   1.522   1.189   4.152
25027SOL     OW76854  13.274   8.150  13.869
25027SOL    HW176855  13.213   8.154  13.943
25027SOL    HW276856  13.341   8.216  13.889
25028SOL     OW76857  14.646  11.749  13.407
25028SOL    HW176858  14.739  11.735  13.422
25028SOL    HW276859  14.642  11.811  13.334
25029SOL     OW76860   8.072   1.723   6.154
25029SOL    HW176861   8.119   1.758   6.230
25029SOL    HW276862   8.074   1.793   6.089
25030SOL     OW76863   0.743  10.051  14.037
25030SOL    HW176864   0.765  10.098  13.956
25030SOL    HW276865   0.827  10.031  14.077
25031SOL     OW76866   3.592  11.496  13.900
25031SOL    HW176867   3.632  11.548  13.971
25031SOL    HW276868   3.591  11.407  13.934
25032SOL     OW76869   6.705   3.067  13.575
25032SOL    HW176870   6.697   3.147  13.523
25032SOL    HW276871   6.656   3.001  13.526
25033SOL     OW76872   8.563   9.222   8.033
25033SOL    HW176873   8.601   9.143   7.996
25033SOL    HW276874   8.615   9.293   7.995
25034SOL     OW76875   4.351  13.270   0.193
25034SOL    HW176876   4.356  13.246   0.285
25034SOL    HW276877   4.328  13.188   0.149
25035SOL     OW76878   0.036   5.405   2.054
25035SOL    HW176879   0.129   5.402   2.075
25035SOL    HW276880  14.877   5.342   2.114
25036SOL     OW76881  11.687   1.174   6.945
25036SOL    HW176882  11.696   1.108   6.876
25036SOL    HW276883  11.616   1.230   6.914
25037SOL     OW76884   8.941   5.106  10.188
25037SOL    HW176885   8.956   5.188  10.235
25037SOL    HW276886   8.989   5.041  10.239
25038SOL     OW76887   4.754   3.104   1.022
25038SOL    HW176888   4.722   3.185   0.983
25038SOL    HW276889   4.676   3.063   1.060
25039SOL     OW76890   6.075  10.934   8.604
25039SOL    HW176891   6.031  10.849   8.600
25039SOL    HW276892   6.003  10.998   8.604
25040SOL     OW76893   7.512   0.700   3.993
25040SOL    HW176894   7.469   0.730   3.914
25040SOL    HW276895   7.511   0.775   4.052
25041SOL     OW76896   1.985   5.108   6.556
25041SOL    HW176897   1.929   5.083   6.483
25041SOL    HW276898   2.052   5.040   6.560
25042SOL     OW76899   4.367   5.143   4.044
25042SOL    HW176900   4.389   5.079   4.112
25042SOL    HW276901   4.393   5.101   3.962
25043SOL     OW76902  14.089  14.631   6.159
25043SOL    HW176903  14.072  14.593   6.073
25043SOL    HW276904  14.003  14.653   6.194
25044SOL     OW76905   0.077   3.627  10.837
25044SOL    HW176906   0.167   3.620  10.868
25044SOL    HW276907   0.071   3.714  10.799
25045SOL     OW76908   5.258   9.916  13.795
25045SOL    HW176909   5.297   9.869  13.869
25045SOL    HW276910   5.196   9.976  13.836
25046SOL     OW76911  10.571   8.302   7.813
25046SOL    HW176912  10.512   8.288   7.887
25046SOL    HW276913  10.524   8.267   7.738
25047SOL     OW76914  13.629   5.289   8.836
25047SOL    HW176915  13.702   5.228   8.826
25047SOL    HW276916  13.551   5.237   8.817
25048SOL     OW76917   5.658   7.627   2.527
25048SOL    HW176918   5.606   7.670   2.460
25048SOL    HW276919   5.604   7.630   2.606
25049SOL     OW76920   4.089   4.101  12.518
25049SOL    HW176921   4.072   4.158  12.593
25049SOL    HW276922   4.142   4.154  12.459
25050SOL     OW76923   6.946   7.277   2.088
25050SOL    HW176924   6.992   7.345   2.137
25050SOL    HW276925   6.985   7.195   2.119
25051SOL     OW76926   5.214  13.115   5.402
25051SOL    HW176927   5.251  13.150   5.483
25051SOL    HW276928   5.253  13.028   5.393
25052SOL     OW76929  13.892  11.904  12.252
25052SOL    HW176930  13.867  11.967  12.184
25052SOL    HW276931  13.826  11.835  12.245
25053SOL     OW76932  10.123   7.985   4.004
25053SOL    HW176933  10.115   7.891   4.017
25053SOL    HW276934  10.100   8.024   4.088
25054SOL     OW76935   7.323   0.914   5.922
25054SOL    HW176936   7.338   0.937   5.830
25054SOL    HW276937   7.228   0.917   5.932
25055SOL     OW76938   6.399  14.384  14.136
25055SOL    HW176939   6.304  14.378  14.147
25055SOL    HW276940   6.418  14.477  14.138
25056SOL     OW76941   3.143   4.078  12.944
25056SOL    HW176942   3.231   4.045  12.929
25056SOL    HW276943   3.123   4.053  13.035
25057SOL     OW76944   2.485   3.722  10.109
25057SOL    HW176945   2.561   3.681  10.067
25057SOL    HW276946   2.416   3.657  10.100
25058SOL     OW76947  12.800   9.219   8.821
25058SOL    HW176948  12.725   9.226   8.762
25058SOL    HW276949  12.765   9.177   8.900
25059SOL     OW76950   7.046   7.354   4.416
25059SOL    HW176951   7.108   7.281   4.420
25059SOL    HW276952   6.975   7.327   4.474
25060SOL     OW76953   3.885   5.773   7.234
25060SOL    HW176954   3.950   5.711   7.199
25060SOL    HW276955   3.804   5.723   7.238
25061SOL     OW76956   6.730   1.129  11.913
25061SOL    HW176957   6.655   1.106  11.968
25061SOL    HW276958   6.795   1.163  11.974
25062SOL     OW76959   2.162  10.958   7.434
25062SOL    HW176960   2.164  10.890   7.502
25062SOL    HW276961   2.182  10.911   7.353
25063SOL     OW76962   2.558   9.714   6.759
25063SOL    HW176963   2.574   9.633   6.710
25063SOL    HW276964   2.571   9.784   6.694
25064SOL     OW76965   2.505   8.736   4.850
25064SOL    HW176966   2.457   8.680   4.789
25064SOL    HW276967   2.488   8.825   4.819
25065SOL     OW76968   5.764  12.056   1.425
25065SOL    HW176969   5.734  11.969   1.399
25065SOL    HW276970   5.703  12.082   1.494
25066SOL     OW76971   2.101   4.824   0.825
25066SOL    HW176972   2.115   4.776   0.743
25066SOL    HW276973   2.152   4.775   0.890
25067SOL     OW76974  11.226  12.181  11.585
25067SOL    HW176975  11.228  12.166  11.490
25067SOL    HW276976  11.260  12.100  11.623
25068SOL     OW76977   6.079   4.088   7.003
25068SOL    HW176978   6.049   4.178   7.014
25068SOL    HW276979   6.121   4.066   7.085
25069SOL     OW76980   9.759   9.769  13.311
25069SOL    HW176981   9.789   9.714  13.238
25069SOL    HW276982   9.736   9.707  13.380
25070SOL     OW76983   9.956   4.009  10.519
25070SOL    HW176984  10.005   4.057  10.452
25070SOL    HW276985  10.014   3.938  10.544
25071SOL     OW76986   4.070   7.153   4.978
25071SOL    HW176987   4.077   7.080   4.916
25071SOL    HW276988   4.150   7.148   5.030
25072SOL     OW76989  11.913  10.761   8.567
25072SOL    HW176990  11.959  10.782   8.486
25072SOL    HW276991  11.827  10.729   8.538
25073SOL     OW76992   3.826   7.772   9.783
25073SOL    HW176993   3.902   7.797   9.732
25073SOL    HW276994   3.822   7.837   9.854
25074SOL     OW76995  10.399   1.329   7.348
25074SOL    HW176996  10.418   1.304   7.439
25074SOL    HW276997  10.426   1.421   7.343
25075SOL     OW76998   8.439   0.926   1.379
25075SOL    HW176999   8.401   1.000   1.332
25075SOL    HW277000   8.399   0.849   1.339
25076SOL     OW77001  11.689   6.795   7.915
25076SOL    HW177002  11.648   6.786   8.001
25076SOL    HW277003  11.618   6.824   7.857
25077SOL     OW77004  13.075   2.964  12.552
25077SOL    HW177005  13.033   2.938  12.634
25077SOL    HW277006  13.072   3.060  12.552
25078SOL     OW77007  14.024  13.217  11.105
25078SOL    HW177008  14.060  13.131  11.127
25078SOL    HW277009  14.092  13.279  11.131
25079SOL     OW77010   4.347  13.675   5.758
25079SOL    HW177011   4.391  13.608   5.707
25079SOL    HW277012   4.265  13.691   5.712
25080SOL     OW77013   4.723   4.735   9.065
25080SOL    HW177014   4.685   4.823   9.060
25080SOL    HW277015   4.782   4.739   9.141
25081SOL     OW77016   1.524  11.865  11.574
25081SOL    HW177017   1.599  11.924  11.559
25081SOL    HW277018   1.492  11.889  11.661
25082SOL     OW77019   9.949   1.409  13.998
25082SOL    HW177020   9.952   1.349  14.072
25082SOL    HW277021   9.874   1.380  13.946
25083SOL     OW77022   7.845  13.349  11.403
25083SOL    HW177023   7.860  13.387  11.316
25083SOL    HW277024   7.931  13.354  11.445
25084SOL     OW77025  11.403  11.113   3.238
25084SOL    HW177026  11.448  11.031   3.218
25084SOL    HW277027  11.333  11.118   3.173
25085SOL     OW77028   0.628   7.308   0.309
25085SOL    HW177029   0.537   7.330   0.288
25085SOL    HW277030   0.657   7.253   0.236
25086SOL     OW77031  14.121   9.310   6.455
25086SOL    HW177032  14.163   9.395   6.440
25086SOL    HW277033  14.157   9.254   6.386
25087SOL     OW77034   3.326   4.566   6.931
25087SOL    HW177035   3.278   4.535   7.008
25087SOL    HW277036   3.371   4.488   6.898
25088SOL     OW77037  11.144  13.537   4.294
25088SOL    HW177038  11.107  13.587   4.221
25088SOL    HW277039  11.080  13.547   4.365
25089SOL     OW77040  11.092  12.856   4.088
25089SOL    HW177041  11.036  12.931   4.071
25089SOL    HW277042  11.175  12.894   4.116
25090SOL     OW77043   8.701   7.133   2.785
25090SOL    HW177044   8.682   7.222   2.815
25090SOL    HW277045   8.706   7.081   2.865
25091SOL     OW77046  12.567  13.736   9.651
25091SOL    HW177047  12.573  13.744   9.746
25091SOL    HW277048  12.474  13.750   9.631
25092SOL     OW77049   3.977   9.994  11.243
25092SOL    HW177050   4.048  10.032  11.295
25092SOL    HW277051   4.014   9.987  11.155
25093SOL     OW77052   9.774   8.453  13.442
25093SOL    HW177053   9.845   8.464  13.505
25093SOL    HW277054   9.755   8.359  13.444
25094SOL     OW77055  14.709   0.177  12.360
25094SOL    HW177056  14.780   0.142  12.414
25094SOL    HW277057  14.685   0.105  12.301
25095SOL     OW77058   6.542   5.660   9.661
25095SOL    HW177059   6.537   5.601   9.736
25095SOL    HW277060   6.622   5.634   9.616
25096SOL     OW77061   1.228   6.281  14.748
25096SOL    HW177062   1.224   6.211  14.682
25096SOL    HW277063   1.198   6.359  14.703
25097SOL     OW77064   4.387   2.298   0.700
25097SOL    HW177065   4.382   2.389   0.672
25097SOL    HW277066   4.297   2.274   0.722
25098SOL     OW77067   7.272   6.551   4.142
25098SOL    HW177068   7.278   6.468   4.096
25098SOL    HW277069   7.358   6.592   4.130
25099SOL     OW77070  12.392   1.854  12.531
25099SOL    HW177071  12.458   1.792  12.499
25099SOL    HW277072  12.366   1.903  12.453
25100SOL     OW77073  13.234  10.148   8.765
25100SOL    HW177074  13.254  10.190   8.681
25100SOL    HW277075  13.299  10.184   8.825
25101SOL     OW77076   3.257   9.868   5.326
25101SOL    HW177077   3.207   9.923   5.266
25101SOL    HW277078   3.336   9.919   5.346
25102SOL     OW77079   1.081   3.901  11.110
25102SOL    HW177080   1.170   3.870  11.094
25102SOL    HW277081   1.031   3.821  11.128
25103SOL     OW77082   1.510   8.639   8.895
25103SOL    HW177083   1.528   8.578   8.966
25103SOL    HW277084   1.586   8.631   8.836
25104SOL     OW77085   6.908   7.495   1.583
25104SOL    HW177086   6.812   7.497   1.588
25104SOL    HW277087   6.928   7.409   1.547
25105SOL     OW77088   8.420   8.988   7.163
25105SOL    HW177089   8.441   8.951   7.249
25105SOL    HW277090   8.328   8.965   7.149
25106SOL     OW77091   1.374   6.172   1.395
25106SOL    HW177092   1.361   6.263   1.370
25106SOL    HW277093   1.469   6.159   1.390
25107SOL     OW77094   3.440   8.169   4.125
25107SOL    HW177095   3.493   8.128   4.056
25107SOL    HW277096   3.429   8.100   4.191
25108SOL     OW77097  12.079   5.233   3.143
25108SOL    HW177098  12.083   5.239   3.047
25108SOL    HW277099  12.101   5.142   3.162
25109SOL     OW77100   9.836  10.794   4.967
25109SOL    HW177101   9.858  10.850   5.042
25109SOL    HW277102   9.920  10.772   4.927
25110SOL     OW77103  10.338   2.034   1.480
25110SOL    HW177104  10.429   2.054   1.462
25110SOL    HW277105  10.301   2.009   1.395
25111SOL     OW77106   4.280   1.171  11.139
25111SOL    HW177107   4.330   1.130  11.209
25111SOL    HW277108   4.344   1.189  11.070
25112SOL     OW77109   8.929   8.562  13.420
25112SOL    HW177110   9.003   8.555  13.480
25112SOL    HW277111   8.948   8.496  13.353
25113SOL     OW77112   8.603  12.818  13.590
25113SOL    HW177113   8.661  12.836  13.664
25113SOL    HW277114   8.661  12.798  13.517
25114SOL     OW77115  12.484   3.312  12.971
25114SOL    HW177116  12.507   3.363  12.894
25114SOL    HW277117  12.454   3.376  13.035
25115SOL     OW77118   8.861   0.962   7.266
25115SOL    HW177119   8.816   1.044   7.247
25115SOL    HW277120   8.875   0.922   7.180
25116SOL     OW77121  11.094   6.022   5.306
25116SOL    HW177122  11.141   5.943   5.278
25116SOL    HW277123  11.150   6.094   5.278
25117SOL     OW77124   2.762   2.432   4.006
25117SOL    HW177125   2.708   2.358   4.034
25117SOL    HW277126   2.769   2.421   3.911
25118SOL     OW77127   9.541  10.083   6.606
25118SOL    HW177128   9.538  10.050   6.517
25118SOL    HW277129   9.491  10.019   6.657
25119SOL     OW77130   4.985   0.983   4.440
25119SOL    HW177131   4.957   0.951   4.526
25119SOL    HW277132   5.018   1.071   4.456
25120SOL     OW77133   5.061  14.611   9.278
25120SOL    HW177134   5.036  14.612   9.185
25120SOL    HW277135   4.979  14.630   9.324
25121SOL     OW77136  11.107  12.373  10.382
25121SOL    HW177137  11.114  12.397  10.474
25121SOL    HW277138  11.021  12.406  10.355
25122SOL     OW77139   9.716   2.157   8.448
25122SOL    HW177140   9.630   2.169   8.488
25122SOL    HW277141   9.736   2.064   8.460
25123SOL     OW77142   3.421  12.702   5.470
25123SOL    HW177143   3.442  12.795   5.463
25123SOL    HW277144   3.357  12.687   5.399
25124SOL     OW77145  14.262   3.594   7.693
25124SOL    HW177146  14.268   3.686   7.720
25124SOL    HW277147  14.285   3.544   7.772
25125SOL     OW77148   4.370  14.056   8.501
25125SOL    HW177149   4.327  14.112   8.566
25125SOL    HW277150   4.463  14.060   8.524
25126SOL     OW77151  12.022   2.618  10.090
25126SOL    HW177152  12.005   2.685  10.024
25126SOL    HW277153  11.954   2.631  10.156
25127SOL     OW77154   4.451   0.149   9.347
25127SOL    HW177155   4.510   0.177   9.417
25127SOL    HW277156   4.509   0.112   9.280
25128SOL     OW77157  12.125   2.149  11.545
25128SOL    HW177158  12.046   2.111  11.585
25128SOL    HW277159  12.166   2.198  11.616
25129SOL     OW77160   0.227   8.451   8.954
25129SOL    HW177161   0.195   8.370   8.914
25129SOL    HW277162   0.179   8.458   9.037
25130SOL     OW77163   0.954   8.847  12.254
25130SOL    HW177164   1.044   8.844  12.287
25130SOL    HW277165   0.901   8.813  12.327
25131SOL     OW77166   7.880  12.966   6.052
25131SOL    HW177167   7.912  13.048   6.088
25131SOL    HW277168   7.875  12.981   5.957
25132SOL     OW77169   7.426   1.274   9.054
25132SOL    HW177170   7.435   1.189   9.011
25132SOL    HW277171   7.494   1.328   9.015
25133SOL     OW77172   5.266   6.416  12.544
25133SOL    HW177173   5.186   6.435  12.496
25133SOL    HW277174   5.248   6.442  12.634
25134SOL     OW77175   4.821   2.355  11.240
25134SOL    HW177176   4.793   2.382  11.327
25134SOL    HW277177   4.916   2.346  11.248
25135SOL     OW77178  12.574   5.341  13.526
25135SOL    HW177179  12.576   5.306  13.615
25135SOL    HW277180  12.488   5.315  13.492
25136SOL     OW77181  13.074   8.209   3.865
25136SOL    HW177182  13.042   8.278   3.922
25136SOL    HW277183  13.168   8.226   3.858
25137SOL     OW77184   2.543  13.081  12.171
25137SOL    HW177185   2.483  13.085  12.096
25137SOL    HW277186   2.624  13.046  12.136
25138SOL     OW77187   8.430   2.549   6.152
25138SOL    HW177188   8.494   2.497   6.102
25138SOL    HW277189   8.373   2.587   6.085
25139SOL     OW77190  10.197   1.387  13.253
25139SOL    HW177191  10.147   1.464  13.226
25139SOL    HW277192  10.244   1.360  13.174
25140SOL     OW77193   2.994   2.410   3.809
25140SOL    HW177194   2.988   2.392   3.903
25140SOL    HW277195   2.960   2.330   3.767
25141SOL     OW77196   7.943   4.391   3.762
25141SOL    HW177197   7.888   4.468   3.744
25141SOL    HW277198   7.890   4.317   3.734
25142SOL     OW77199  12.626  10.013   8.524
25142SOL    HW177200  12.561   9.988   8.591
25142SOL    HW277201  12.663  10.095   8.557
25143SOL     OW77202  12.606  10.031  14.543
25143SOL    HW177203  12.546  10.106  14.543
25143SOL    HW277204  12.660  10.044  14.465
25144SOL     OW77205   0.999   2.204   5.891
25144SOL    HW177206   0.989   2.263   5.966
25144SOL    HW277207   0.916   2.156   5.887
25145SOL     OW77208   1.972   7.469   4.038
25145SOL    HW177209   1.926   7.389   4.063
25145SOL    HW277210   2.032   7.486   4.111
25146SOL     OW77211   0.483   1.189   0.756
25146SOL    HW177212   0.518   1.119   0.700
25146SOL    HW277213   0.409   1.149   0.801
25147SOL     OW77214   1.619   9.675   5.152
25147SOL    HW177215   1.614   9.579   5.156
25147SOL    HW277216   1.698   9.696   5.202
25148SOL     OW77217  14.417  12.362   5.428
25148SOL    HW177218  14.385  12.405   5.507
25148SOL    HW277219  14.491  12.416   5.399
25149SOL     OW77220   9.933   1.121   4.092
25149SOL    HW177221   9.851   1.096   4.134
25149SOL    HW277222   9.983   1.040   4.088
25150SOL     OW77223  12.682   1.126  11.840
25150SOL    HW177224  12.680   1.200  11.780
25150SOL    HW277225  12.699   1.050  11.784
25151SOL     OW77226   3.941   9.133   5.213
25151SOL    HW177227   3.972   9.216   5.176
25151SOL    HW277228   3.849   9.149   5.233
25152SOL     OW77229   1.127  13.368   7.035
25152SOL    HW177230   1.207  13.353   6.986
25152SOL    HW277231   1.157  13.394   7.122
25153SOL     OW77232   7.262  12.807  14.725
25153SOL    HW177233   7.358  12.803  14.724
25153SOL    HW277234   7.236  12.779  14.637
25154SOL     OW77235   0.150  13.853   4.365
25154SOL    HW177236   0.201  13.928   4.334
25154SOL    HW277237   0.102  13.888   4.441
25155SOL     OW77238  11.166   2.615  12.929
25155SOL    HW177239  11.226   2.680  12.893
25155SOL    HW277240  11.221   2.540  12.951
25156SOL     OW77241  12.099  14.102   5.907
25156SOL    HW177242  12.095  14.188   5.866
25156SOL    HW277243  12.147  14.117   5.989
25157SOL     OW77244  12.852   3.090   4.715
25157SOL    HW177245  12.801   3.133   4.784
25157SOL    HW277246  12.823   3.132   4.634
25158SOL     OW77247   1.017   0.704  11.052
25158SOL    HW177248   1.037   0.745  10.968
25158SOL    HW277249   1.046   0.613  11.042
25159SOL     OW77250   9.775  12.237   0.787
25159SOL    HW177251   9.826  12.220   0.866
25159SOL    HW277252   9.685  12.247   0.818
25160SOL     OW77253  13.834   4.015  10.929
25160SOL    HW177254  13.788   3.973  11.001
25160SOL    HW277255  13.770   4.078  10.894
25161SOL     OW77256  12.950   0.362  12.566
25161SOL    HW177257  12.987   0.450  12.569
25161SOL    HW277258  12.971   0.325  12.653
25162SOL     OW77259   0.091  11.820   5.314
25162SOL    HW177260   0.181  11.831   5.346
25162SOL    HW277261   0.037  11.869   5.375
25163SOL     OW77262   8.675   1.623   6.114
25163SOL    HW177263   8.717   1.705   6.086
25163SOL    HW277264   8.707   1.610   6.203
25164SOL     OW77265   6.560   9.868   4.228
25164SOL    HW177266   6.636   9.868   4.286
25164SOL    HW277267   6.494   9.817   4.274
25165SOL     OW77268   3.466   3.738  12.971
25165SOL    HW177269   3.432   3.654  12.940
25165SOL    HW277270   3.561   3.731  12.961
25166SOL     OW77271   5.347   6.461   9.232
25166SOL    HW177272   5.351   6.367   9.219
25166SOL    HW277273   5.257   6.485   9.212
25167SOL     OW77274   2.036  14.464  14.614
25167SOL    HW177275   1.946  14.466  14.647
25167SOL    HW277276   2.031  14.504  14.527
25168SOL     OW77277  12.741  12.827  11.226
25168SOL    HW177278  12.777  12.911  11.197
25168SOL    HW277279  12.667  12.850  11.282
25169SOL     OW77280   1.923   0.847  11.130
25169SOL    HW177281   1.970   0.826  11.049
25169SOL    HW277282   1.835   0.869  11.101
25170SOL     OW77283   3.966  14.328   0.862
25170SOL    HW177284   3.905  14.306   0.792
25170SOL    HW277285   4.011  14.407   0.830
25171SOL     OW77286   4.102   8.742   6.890
25171SOL    HW177287   4.167   8.804   6.924
25171SOL    HW277288   4.088   8.679   6.961
25172SOL     OW77289   9.302   5.915  10.271
25172SOL    HW177290   9.208   5.929  10.255
25172SOL    HW277291   9.333   5.997  10.307
25173SOL     OW77292   3.794  11.762   4.356
25173SOL    HW177293   3.888  11.763   4.368
25173SOL    HW277294   3.760  11.710   4.429
25174SOL     OW77295  10.753   6.569   9.890
25174SOL    HW177296  10.730   6.635   9.955
25174SOL    HW277297  10.707   6.490   9.919
25175SOL     OW77298   7.699   5.421   9.882
25175SOL    HW177299   7.634   5.383   9.822
25175SOL    HW277300   7.772   5.360   9.880
25176SOL     OW77301   2.128   2.015  11.069
25176SOL    HW177302   2.146   2.083  11.135
25176SOL    HW277303   2.037   1.990  11.086
25177SOL     OW77304  11.711   3.460   1.171
25177SOL    HW177305  11.631   3.427   1.129
25177SOL    HW277306  11.782   3.424   1.118
25178SOL     OW77307   0.275  14.202   7.993
25178SOL    HW177308   0.311  14.288   7.972
25178SOL    HW277309   0.343  14.160   8.046
25179SOL     OW77310   7.508   4.145  12.414
25179SOL    HW177311   7.558   4.185  12.343
25179SOL    HW277312   7.448   4.085  12.371
25180SOL     OW77313  12.728  11.873   1.613
25180SOL    HW177314  12.822  11.886   1.598
25180SOL    HW277315  12.714  11.779   1.598
25181SOL     OW77316   5.141   2.651   7.532
25181SOL    HW177317   5.055   2.657   7.574
25181SOL    HW277318   5.121   2.647   7.438
25182SOL     OW77319   3.681   3.272   5.733
25182SOL    HW177320   3.747   3.340   5.750
25182SOL    HW277321   3.600   3.321   5.717
25183SOL     OW77322   0.407  10.840   9.964
25183SOL    HW177323   0.394  10.865  10.056
25183SOL    HW277324   0.418  10.923   9.918
25184SOL     OW77325   2.497  10.929   3.170
25184SOL    HW177326   2.536  11.002   3.121
25184SOL    HW277327   2.478  10.863   3.104
25185SOL     OW77328   8.638  13.313   3.685
25185SOL    HW177329   8.702  13.370   3.726
25185SOL    HW277330   8.654  13.227   3.723
25186SOL     OW77331  13.246   4.332   2.141
25186SOL    HW177332  13.184   4.259   2.143
25186SOL    HW277333  13.289   4.330   2.227
25187SOL     OW77334  13.273  11.038   2.758
25187SOL    HW177335  13.200  10.978   2.744
25187SOL    HW277336  13.321  11.002   2.832
25188SOL     OW77337   3.036   2.354  14.684
25188SOL    HW177338   3.067   2.309  14.606
25188SOL    HW277339   3.104   2.418  14.704
25189SOL     OW77340  11.861   1.180   7.492
25189SOL    HW177341  11.941   1.152   7.448
25189SOL    HW277342  11.821   1.100   7.524
25190SOL     OW77343   1.727  11.541   1.343
25190SOL    HW177344   1.661  11.548   1.412
25190SOL    HW277345   1.677  11.530   1.262
25191SOL     OW77346  14.222  11.530   4.886
25191SOL    HW177347  14.243  11.527   4.793
25191SOL    HW277348  14.145  11.586   4.891
25192SOL     OW77349  13.204   8.841  12.057
25192SOL    HW177350  13.261   8.882  12.122
25192SOL    HW277351  13.253   8.765  12.027
25193SOL     OW77352  12.358   3.670   5.733
25193SOL    HW177353  12.291   3.602   5.729
25193SOL    HW277354  12.429   3.638   5.678
25194SOL     OW77355   5.529   4.496  13.675
25194SOL    HW177356   5.544   4.439  13.600
25194SOL    HW277357   5.436   4.486  13.695
25195SOL     OW77358   8.522  13.890   1.585
25195SOL    HW177359   8.551  13.859   1.670
25195SOL    HW277360   8.599  13.931   1.546
25196SOL     OW77361  11.011  14.366   6.253
25196SOL    HW177362  10.938  14.350   6.193
25196SOL    HW277363  11.089  14.343   6.203
25197SOL     OW77364  11.862   8.500  13.183
25197SOL    HW177365  11.902   8.576  13.225
25197SOL    HW277366  11.830   8.533  13.100
25198SOL     OW77367   7.681  11.620   8.831
25198SOL    HW177368   7.600  11.630   8.881
25198SOL    HW277369   7.706  11.529   8.845
25199SOL     OW77370  10.592   8.962   8.087
25199SOL    HW177371  10.573   9.029   8.021
25199SOL    HW277372  10.567   8.880   8.046
25200SOL     OW77373  11.086   3.337  11.931
25200SOL    HW177374  11.167   3.347  11.879
25200SOL    HW277375  11.028   3.404  11.898
25201SOL     OW77376   7.292  10.343   1.939
25201SOL    HW177377   7.346  10.369   2.014
25201SOL    HW277378   7.321  10.254   1.918
25202SOL     OW77379  11.825   1.448   1.555
25202SOL    HW177380  11.763   1.428   1.485
25202SOL    HW277381  11.774   1.501   1.617
25203SOL     OW77382   1.955   1.289   7.796
25203SOL    HW177383   2.003   1.250   7.722
25203SOL    HW277384   1.865   1.295   7.766
25204SOL     OW77385   4.114   2.991   4.410
25204SOL    HW177386   4.076   3.000   4.498
25204SOL    HW277387   4.040   2.969   4.354
25205SOL     OW77388   4.222  10.400   1.071
25205SOL    HW177389   4.294  10.405   1.009
25205SOL    HW277390   4.161  10.337   1.032
25206SOL     OW77391   4.047   1.395   8.516
25206SOL    HW177392   4.127   1.343   8.508
25206SOL    HW277393   4.057   1.443   8.599
25207SOL     OW77394   5.819  13.452   4.887
25207SOL    HW177395   5.753  13.478   4.952
25207SOL    HW277396   5.887  13.518   4.894
25208SOL     OW77397  10.561   0.082   8.001
25208SOL    HW177398  10.473   0.078   7.964
25208SOL    HW277399  10.618   0.048   7.932
25209SOL     OW77400  13.054  10.635   7.290
25209SOL    HW177401  12.966  10.603   7.271
25209SOL    HW277402  13.075  10.692   7.216
25210SOL     OW77403   3.959   5.460   3.752
25210SOL    HW177404   3.883   5.402   3.753
25210SOL    HW277405   3.928   5.541   3.792
25211SOL     OW77406   4.325  11.797   6.084
25211SOL    HW177407   4.373  11.727   6.128
25211SOL    HW277408   4.303  11.761   5.998
25212SOL     OW77409  10.809   3.817  11.646
25212SOL    HW177410  10.835   3.899  11.688
25212SOL    HW277411  10.714   3.823  11.639
25213SOL     OW77412   5.549  10.682   7.139
25213SOL    HW177413   5.554  10.729   7.223
25213SOL    HW277414   5.543  10.590   7.163
25214SOL     OW77415  13.297   8.779   7.988
25214SOL    HW177416  13.323   8.833   8.062
25214SOL    HW277417  13.363   8.798   7.921
25215SOL     OW77418  11.970   1.416   9.538
25215SOL    HW177419  11.929   1.453   9.459
25215SOL    HW277420  11.943   1.324   9.537
25216SOL     OW77421   8.788   4.229   3.950
25216SOL    HW177422   8.861   4.168   3.961
25216SOL    HW277423   8.712   4.173   3.933
25217SOL     OW77424   6.112  12.045  10.093
25217SOL    HW177425   6.040  12.010  10.042
25217SOL    HW277426   6.086  12.135  10.114
25218SOL     OW77427   3.690   7.806   0.123
25218SOL    HW177428   3.635   7.796   0.045
25218SOL    HW277429   3.640   7.864   0.181
25219SOL     OW77430  11.155  11.454  10.362
25219SOL    HW177431  11.126  11.477  10.274
25219SOL    HW277432  11.225  11.516  10.381
25220SOL     OW77433   1.214   5.649   5.189
25220SOL    HW177434   1.305   5.616   5.187
25220SOL    HW277435   1.220   5.731   5.237
25221SOL     OW77436  10.092   5.824  11.506
25221SOL    HW177437  10.061   5.869  11.584
25221SOL    HW277438  10.075   5.731  11.523
25222SOL     OW77439   9.524   6.805   3.789
25222SOL    HW177440   9.581   6.757   3.849
25222SOL    HW277441   9.461   6.740   3.759
25223SOL     OW77442   2.180   5.345   4.447
25223SOL    HW177443   2.152   5.376   4.361
25223SOL    HW277444   2.204   5.424   4.495
25224SOL     OW77445   7.663  14.203  14.476
25224SOL    HW177446   7.568  14.208  14.481
25224SOL    HW277447   7.680  14.125  14.423
25225SOL     OW77448  11.363   9.793   5.724
25225SOL    HW177449  11.367   9.703   5.692
25225SOL    HW277450  11.304   9.838   5.664
25226SOL     OW77451   9.929   5.069   8.262
25226SOL    HW177452   9.894   5.158   8.258
25226SOL    HW277453   9.853   5.014   8.281
25227SOL     OW77454   1.912  11.060   0.682
25227SOL    HW177455   1.883  11.000   0.613
25227SOL    HW277456   1.969  11.006   0.738
25228SOL     OW77457   9.708   7.302   0.485
25228SOL    HW177458   9.738   7.391   0.467
25228SOL    HW277459   9.754   7.248   0.420
25229SOL     OW77460   5.663  14.109   8.711
25229SOL    HW177461   5.716  14.163   8.652
25229SOL    HW277462   5.723  14.082   8.780
25230SOL     OW77463  12.775   1.332   2.671
25230SOL    HW177464  12.752   1.357   2.582
25230SOL    HW277465  12.840   1.262   2.660
25231SOL     OW77466   4.390   1.765   8.521
25231SOL    HW177467   4.340   1.709   8.581
25231SOL    HW277468   4.425   1.834   8.578
25232SOL     OW77469  14.213   8.966   2.275
25232SOL    HW177470  14.211   9.002   2.186
25232SOL    HW277471  14.122   8.974   2.306
25233SOL     OW77472  14.544   0.160   3.012
25233SOL    HW177473  14.572   0.134   2.924
25233SOL    HW277474  14.448   0.159   3.008
25234SOL     OW77475   6.424  12.281   3.307
25234SOL    HW177476   6.408  12.356   3.364
25234SOL    HW277477   6.420  12.205   3.365
25235SOL     OW77478  14.167   7.136  12.689
25235SOL    HW177479  14.189   7.105  12.777
25235SOL    HW277480  14.180   7.060  12.632
25236SOL     OW77481   8.775  12.259  13.883
25236SOL    HW177482   8.848  12.277  13.823
25236SOL    HW277483   8.705  12.226  13.826
25237SOL     OW77484   2.449  10.328   4.119
25237SOL    HW177485   2.443  10.423   4.132
25237SOL    HW277486   2.380  10.307   4.057
25238SOL     OW77487  11.681  12.423  10.014
25238SOL    HW177488  11.718  12.344  10.055
25238SOL    HW277489  11.630  12.464  10.083
25239SOL     OW77490  10.096   8.301   4.455
25239SOL    HW177491  10.183   8.290   4.494
25239SOL    HW277492  10.077   8.394   4.465
25240SOL     OW77493  13.773   8.082   9.770
25240SOL    HW177494  13.780   8.177   9.767
25240SOL    HW277495  13.834   8.056   9.839
25241SOL     OW77496   9.895   4.272   8.110
25241SOL    HW177497   9.901   4.196   8.052
25241SOL    HW277498   9.943   4.246   8.188
25242SOL     OW77499   8.632   2.704   2.283
25242SOL    HW177500   8.617   2.707   2.377
25242SOL    HW277501   8.728   2.700   2.274
25243SOL     OW77502   6.567   8.817  13.790
25243SOL    HW177503   6.630   8.884  13.816
25243SOL    HW277504   6.507   8.863  13.731
25244SOL     OW77505   8.634  10.036   6.644
25244SOL    HW177506   8.719  10.056   6.604
25244SOL    HW277507   8.591  10.121   6.652
25245SOL     OW77508  12.183   7.632   5.742
25245SOL    HW177509  12.278   7.628   5.759
25245SOL    HW277510  12.176   7.625   5.647
25246SOL     OW77511  11.915   7.746   9.494
25246SOL    HW177512  11.851   7.768   9.426
25246SOL    HW277513  11.881   7.786   9.574
25247SOL     OW77514  14.025   8.786  11.467
25247SOL    HW177515  13.973   8.836  11.404
25247SOL    HW277516  14.048   8.706  11.421
25248SOL     OW77517   8.342  10.169   7.075
25248SOL    HW177518   8.422  10.196   7.119
25248SOL    HW277519   8.294  10.119   7.141
25249SOL     OW77520  12.675   3.711   3.682
25249SOL    HW177521  12.699   3.781   3.743
25249SOL    HW277522  12.635   3.756   3.608
25250SOL     OW77523   9.310   1.587   8.228
25250SOL    HW177524   9.288   1.661   8.170
25250SOL    HW277525   9.246   1.592   8.298
25251SOL     OW77526  11.757   3.234  10.548
25251SOL    HW177527  11.757   3.170  10.619
25251SOL    HW277528  11.667   3.267  10.546
25252SOL     OW77529   1.464   9.676   9.768
25252SOL    HW177530   1.500   9.752   9.814
25252SOL    HW277531   1.418   9.627   9.836
25253SOL     OW77532   4.503   4.881  14.654
25253SOL    HW177533   4.562   4.954  14.640
25253SOL    HW277534   4.531   4.815  14.591
25254SOL     OW77535   8.005   6.192   3.953
25254SOL    HW177536   7.983   6.099   3.954
25254SOL    HW277537   8.039   6.210   4.041
25255SOL     OW77538   9.928   8.253   4.816
25255SOL    HW177539   9.955   8.192   4.884
25255SOL    HW277540  10.003   8.312   4.805
25256SOL     OW77541   8.842   7.267   9.760
25256SOL    HW177542   8.810   7.320   9.687
25256SOL    HW277543   8.934   7.251   9.740
25257SOL     OW77544   4.291   5.660   0.701
25257SOL    HW177545   4.299   5.649   0.607
25257SOL    HW277546   4.282   5.570   0.735
25258SOL     OW77547   1.195   8.044  12.345
25258SOL    HW177548   1.162   8.089  12.267
25258SOL    HW277549   1.290   8.056  12.340
25259SOL     OW77550   0.423   1.460   8.330
25259SOL    HW177551   0.482   1.425   8.263
25259SOL    HW277552   0.355   1.393   8.339
25260SOL     OW77553   8.699  14.046   9.244
25260SOL    HW177554   8.722  14.079   9.331
25260SOL    HW277555   8.701  14.124   9.188
25261SOL     OW77556   0.487  12.345   7.916
25261SOL    HW177557   0.529  12.430   7.916
25261SOL    HW277558   0.474  12.324   8.008
25262SOL     OW77559  10.544  10.392   1.983
25262SOL    HW177560  10.536  10.473   1.933
25262SOL    HW277561  10.630  10.398   2.025
25263SOL     OW77562  10.021   3.467  12.763
25263SOL    HW177563  10.033   3.561  12.778
25263SOL    HW277564   9.959   3.462  12.690
25264SOL     OW77565   3.626   5.182  14.396
25264SOL    HW177566   3.549   5.128  14.381
25264SOL    HW277567   3.700   5.124  14.378
25265SOL     OW77568   1.490   0.397   5.181
25265SOL    HW177569   1.400   0.415   5.154
25265SOL    HW277570   1.497   0.302   5.177
25266SOL     OW77571   7.060  11.507   9.556
25266SOL    HW177572   7.107  11.455   9.621
25266SOL    HW277573   7.065  11.597   9.589
25267SOL     OW77574   0.887   0.664  10.142
25267SOL    HW177575   0.819   0.725  10.171
25267SOL    HW277576   0.858   0.636  10.055
25268SOL     OW77577   7.711   2.563   0.757
25268SOL    HW177578   7.770   2.594   0.689
25268SOL    HW277579   7.710   2.634   0.822
25269SOL     OW77580   7.388  12.985   5.046
25269SOL    HW177581   7.374  12.973   4.952
25269SOL    HW277582   7.315  12.938   5.086
25270SOL     OW77583   9.589  12.515   8.699
25270SOL    HW177584   9.580  12.427   8.734
25270SOL    HW277585   9.649  12.504   8.624
25271SOL     OW77586   9.402  14.708   3.103
25271SOL    HW177587   9.480  14.753   3.136
25271SOL    HW277588   9.437  14.645   3.040
25272SOL     OW77589   8.290  11.114   8.119
25272SOL    HW177590   8.252  11.202   8.118
25272SOL    HW277591   8.341  11.112   8.200
25273SOL     OW77592  10.820   1.850   9.920
25273SOL    HW177593  10.755   1.916   9.944
25273SOL    HW277594  10.777   1.797   9.852
25274SOL     OW77595   8.115   4.183   4.774
25274SOL    HW177596   8.067   4.261   4.747
25274SOL    HW277597   8.181   4.170   4.706
25275SOL     OW77598   3.038   9.145   3.420
25275SOL    HW177599   3.025   9.059   3.461
25275SOL    HW277600   3.130   9.146   3.394
25276SOL     OW77601   0.304   8.634   2.606
25276SOL    HW177602   0.306   8.620   2.700
25276SOL    HW277603   0.375   8.696   2.589
25277SOL     OW77604   9.566   2.169   2.117
25277SOL    HW177605   9.552   2.237   2.184
25277SOL    HW277606   9.481   2.159   2.075
25278SOL     OW77607   9.297   5.861   4.645
25278SOL    HW177608   9.368   5.850   4.709
25278SOL    HW277609   9.218   5.836   4.693
25279SOL     OW77610  14.734   1.099   8.212
25279SOL    HW177611  14.702   1.186   8.235
25279SOL    HW277612  14.657   1.043   8.217
25280SOL     OW77613   8.530   9.548   7.094
25280SOL    HW177614   8.437   9.526   7.108
25280SOL    HW277615   8.533   9.586   7.006
25281SOL     OW77616   7.346   2.766  11.108
25281SOL    HW177617   7.363   2.783  11.201
25281SOL    HW277618   7.307   2.679  11.107
25282SOL     OW77619  12.635  13.853  11.242
25282SOL    HW177620  12.651  13.935  11.289
25282SOL    HW277621  12.723  13.821  11.220
25283SOL     OW77622   9.498  14.463  10.154
25283SOL    HW177623   9.462  14.391  10.103
25283SOL    HW277624   9.451  14.459  10.237
25284SOL     OW77625  10.900   0.406   5.896
25284SOL    HW177626  10.864   0.484   5.938
25284SOL    HW277627  10.829   0.372   5.843
25285SOL     OW77628  14.124   4.189   2.449
25285SOL    HW177629  14.175   4.121   2.405
25285SOL    HW277630  14.167   4.271   2.424
25286SOL     OW77631   4.442  12.292  10.605
25286SOL    HW177632   4.396  12.213  10.577
25286SOL    HW277633   4.523  12.292  10.554
25287SOL     OW77634  14.671   0.834  12.476
25287SOL    HW177635  14.593   0.780  12.463
25287SOL    HW277636  14.701   0.812  12.564
25288SOL     OW77637   1.300   3.444  12.323
25288SOL    HW177638   1.267   3.357  12.346
25288SOL    HW277639   1.254   3.465  12.242
25289SOL     OW77640  12.972   5.185   3.483
25289SOL    HW177641  12.944   5.237   3.408
25289SOL    HW277642  13.064   5.165   3.466
25290SOL     OW77643   4.802   5.998   1.453
25290SOL    HW177644   4.758   6.075   1.491
25290SOL    HW277645   4.740   5.965   1.388
25291SOL     OW77646   5.880   2.510  12.615
25291SOL    HW177647   5.971   2.479  12.608
25291SOL    HW277648   5.878   2.556  12.699
25292SOL     OW77649  12.703  13.178   5.970
25292SOL    HW177650  12.633  13.225   5.926
25292SOL    HW277651  12.659  13.104   6.013
25293SOL     OW77652   1.776   3.846   7.695
25293SOL    HW177653   1.738   3.847   7.782
25293SOL    HW277654   1.717   3.900   7.642
25294SOL     OW77655   1.988  11.318   9.418
25294SOL    HW177656   1.925  11.249   9.436
25294SOL    HW277657   2.005  11.358   9.503
25295SOL     OW77658   4.937  11.966  14.576
25295SOL    HW177659   5.015  11.983  14.629
25295SOL    HW277660   4.947  11.875  14.547
25296SOL     OW77661   8.492  10.914  12.781
25296SOL    HW177662   8.418  10.890  12.725
25296SOL    HW277663   8.467  10.882  12.868
25297SOL     OW77664  12.913   0.821   8.877
25297SOL    HW177665  12.959   0.738   8.883
25297SOL    HW277666  12.979   0.883   8.847
25298SOL     OW77667   4.833   6.975  14.049
25298SOL    HW177668   4.743   6.941  14.056
25298SOL    HW277669   4.872   6.956  14.134
25299SOL     OW77670   6.441   6.834  13.764
25299SOL    HW177671   6.393   6.910  13.794
25299SOL    HW277672   6.406   6.815  13.677
25300SOL     OW77673  14.754   8.512  13.458
25300SOL    HW177674  14.751   8.604  13.484
25300SOL    HW277675  14.709   8.509  13.374
25301SOL     OW77676   7.557  13.206  13.163
25301SOL    HW177677   7.541  13.135  13.101
25301SOL    HW277678   7.652  13.219  13.160
25302SOL     OW77679   2.074   3.465  13.378
25302SOL    HW177680   2.077   3.544  13.431
25302SOL    HW277681   1.982   3.454  13.355
25303SOL     OW77682  12.984  12.595   2.915
25303SOL    HW177683  13.013  12.599   3.006
25303SOL    HW277684  13.054  12.548   2.869
25304SOL     OW77685   7.902   4.745   1.339
25304SOL    HW177686   7.896   4.704   1.252
25304SOL    HW277687   7.912   4.838   1.321
25305SOL     OW77688  12.652  14.546   7.659
25305SOL    HW177689  12.635  14.624   7.712
25305SOL    HW277690  12.623  14.474   7.714
25306SOL     OW77691  10.198   6.103   8.075
25306SOL    HW177692  10.114   6.110   8.030
25306SOL    HW277693  10.201   6.181   8.132
25307SOL     OW77694   4.044   6.982   3.737
25307SOL    HW177695   4.130   6.994   3.697
25307SOL    HW277696   4.006   6.908   3.690
25308SOL     OW77697   7.343  10.523   2.542
25308SOL    HW177698   7.434  10.499   2.556
25308SOL    HW277699   7.338  10.615   2.568
25309SOL     OW77700   8.225   7.477  10.683
25309SOL    HW177701   8.167   7.402  10.672
25309SOL    HW277702   8.259   7.468  10.772
25310SOL     OW77703   9.464   7.526   1.075
25310SOL    HW177704   9.459   7.532   1.170
25310SOL    HW277705   9.379   7.559   1.045
25311SOL     OW77706  10.029   5.751   8.782
25311SOL    HW177707  10.078   5.759   8.864
25311SOL    HW277708   9.937   5.756   8.808
25312SOL     OW77709   5.397   7.285   2.797
25312SOL    HW177710   5.310   7.270   2.834
25312SOL    HW277711   5.399   7.379   2.778
25313SOL     OW77712  10.561   9.987  13.831
25313SOL    HW177713  10.536   9.905  13.788
25313SOL    HW277714  10.501  10.053  13.795
25314SOL     OW77715  14.605   6.312  14.789
25314SOL    HW177716  14.662   6.386  14.811
25314SOL    HW277717  14.531   6.352  14.742
25315SOL     OW77718   5.305   4.038  11.078
25315SOL    HW177719   5.297   4.109  11.142
25315SOL    HW277720   5.219   3.997  11.078
25316SOL     OW77721   1.906   4.827   5.147
25316SOL    HW177722   1.960   4.748   5.139
25316SOL    HW277723   1.818   4.793   5.163
25317SOL     OW77724  10.387   5.331  12.260
25317SOL    HW177725  10.429   5.246  12.266
25317SOL    HW277726  10.393   5.368  12.348
25318SOL     OW77727   8.796  11.129   1.097
25318SOL    HW177728   8.814  11.111   1.189
25318SOL    HW277729   8.704  11.104   1.085
25319SOL     OW77730  12.512   9.600  14.545
25319SOL    HW177731  12.466   9.608  14.462
25319SOL    HW277732  12.542   9.509  14.547
25320SOL     OW77733   8.031   2.222   1.500
25320SOL    HW177734   7.954   2.223   1.442
25320SOL    HW277735   8.082   2.146   1.470
25321SOL     OW77736   5.775   2.406  11.619
25321SOL    HW177737   5.825   2.339  11.572
25321SOL    HW277738   5.717   2.357  11.677
25322SOL     OW77739   1.963   7.050  11.301
25322SOL    HW177740   1.894   6.985  11.286
25322SOL    HW277741   1.923   7.113  11.362
25323SOL     OW77742  11.109   4.755   4.411
25323SOL    HW177743  11.176   4.687   4.414
25323SOL    HW277744  11.030   4.711   4.379
25324SOL     OW77745   9.015  14.358   9.619
25324SOL    HW177746   9.005  14.268   9.648
25324SOL    HW277747   9.012  14.409   9.700
25325SOL     OW77748   3.293   1.801  10.921
25325SOL    HW177749   3.326   1.777  11.007
25325SOL    HW277750   3.309   1.895  10.914
25326SOL     OW77751  12.498  13.449   4.264
25326SOL    HW177752  12.456  13.406   4.338
25326SOL    HW277753  12.454  13.534   4.258
25327SOL     OW77754   1.681   0.136   1.240
25327SOL    HW177755   1.710   0.062   1.186
25327SOL    HW277756   1.611   0.177   1.189
25328SOL     OW77757   4.681   3.258   5.917
25328SOL    HW177758   4.701   3.166   5.896
25328SOL    HW277759   4.660   3.257   6.010
25329SOL     OW77760   3.017   6.928   4.198
25329SOL    HW177761   2.977   6.915   4.112
25329SOL    HW277762   2.955   6.984   4.245
25330SOL     OW77763   8.499   1.102  14.485
25330SOL    HW177764   8.508   1.196  14.495
25330SOL    HW277765   8.505   1.087  14.390
25331SOL     OW77766  13.724   4.267   7.005
25331SOL    HW177767  13.817   4.287   7.013
25331SOL    HW277768  13.684   4.349   6.978
25332SOL     OW77769  14.764   4.060   5.130
25332SOL    HW177770  14.719   4.014   5.200
25332SOL    HW277771  14.850   4.017   5.124
25333SOL     OW77772   8.831   3.026   9.486
25333SOL    HW177773   8.756   3.057   9.537
25333SOL    HW277774   8.906   3.070   9.526
25334SOL     OW77775  10.177  12.108  13.199
25334SOL    HW177776  10.239  12.052  13.246
25334SOL    HW277777  10.166  12.065  13.114
25335SOL     OW77778   3.780   6.823   2.528
25335SOL    HW177779   3.697   6.776   2.513
25335SOL    HW277780   3.797   6.810   2.621
25336SOL     OW77781   5.613   4.122  12.374
25336SOL    HW177782   5.652   4.153  12.292
25336SOL    HW277783   5.534   4.175  12.384
25337SOL     OW77784   8.104   5.806  12.853
25337SOL    HW177785   8.093   5.792  12.947
25337SOL    HW277786   8.017   5.791  12.816
25338SOL     OW77787   3.148  10.258  10.101
25338SOL    HW177788   3.055  10.258  10.125
25338SOL    HW277789   3.194  10.263  10.185
25339SOL     OW77790   9.656  12.301  14.005
25339SOL    HW177791   9.634  12.393  14.019
25339SOL    HW277792   9.575  12.260  13.976
25340SOL     OW77793  11.473   8.820   6.812
25340SOL    HW177794  11.442   8.744   6.761
25340SOL    HW277795  11.533   8.783   6.876
25341SOL     OW77796   5.844   1.916   8.705
25341SOL    HW177797   5.902   1.861   8.653
25341SOL    HW277798   5.770   1.934   8.647
25342SOL     OW77799   7.659   7.210   5.320
25342SOL    HW177800   7.611   7.293   5.326
25342SOL    HW277801   7.611   7.160   5.254
25343SOL     OW77802   8.039  11.648  10.572
25343SOL    HW177803   7.975  11.578  10.582
25343SOL    HW277804   8.024  11.707  10.646
25344SOL     OW77805   7.169   6.377  14.294
25344SOL    HW177806   7.181   6.381  14.199
25344SOL    HW277807   7.256   6.398  14.329
25345SOL     OW77808  14.092   9.849   5.912
25345SOL    HW177809  14.137   9.825   5.831
25345SOL    HW277810  14.026   9.781   5.925
25346SOL     OW77811   5.198   4.658   8.770
25346SOL    HW177812   5.153   4.578   8.795
25346SOL    HW277813   5.131   4.711   8.727
25347SOL     OW77814   6.186   9.075  11.896
25347SOL    HW177815   6.092   9.082  11.882
25347SOL    HW277816   6.203   9.127  11.975
25348SOL     OW77817  13.537   4.332   5.686
25348SOL    HW177818  13.546   4.384   5.766
25348SOL    HW277819  13.620   4.341   5.641
25349SOL     OW77820   4.593   1.181   6.778
25349SOL    HW177821   4.560   1.104   6.824
25349SOL    HW277822   4.550   1.179   6.692
25350SOL     OW77823   7.295   5.576  12.107
25350SOL    HW177824   7.341   5.556  12.025
25350SOL    HW277825   7.237   5.501  12.121
25351SOL     OW77826  14.214   3.541   5.004
25351SOL    HW177827  14.120   3.558   5.003
25351SOL    HW277828  14.221   3.450   4.974
25352SOL     OW77829   5.514  11.211   6.191
25352SOL    HW177830   5.562  11.156   6.130
25352SOL    HW277831   5.440  11.245   6.140
25353SOL     OW77832  14.531  11.059   0.678
25353SOL    HW177833  14.502  11.068   0.769
25353SOL    HW277834  14.483  11.128   0.632
25354SOL     OW77835   3.243  13.758   1.155
25354SOL    HW177836   3.311  13.698   1.188
25354SOL    HW277837   3.273  13.783   1.068
25355SOL     OW77838   8.862  13.287   1.400
25355SOL    HW177839   8.877  13.357   1.463
25355SOL    HW277840   8.805  13.225   1.445
25356SOL     OW77841   2.745  10.347  14.680
25356SOL    HW177842   2.696  10.280  14.727
25356SOL    HW277843   2.708  10.430  14.712
25357SOL     OW77844  14.698   2.134  13.179
25357SOL    HW177845  14.744   2.183  13.111
25357SOL    HW277846  14.756   2.139  13.255
25358SOL     OW77847   3.261   6.438   6.376
25358SOL    HW177848   3.253   6.348   6.408
25358SOL    HW277849   3.326   6.433   6.306
25359SOL     OW77850  10.928   4.249   2.423
25359SOL    HW177851  10.922   4.274   2.331
25359SOL    HW277852  10.908   4.329   2.471
25360SOL     OW77853   7.145   7.766  12.746
25360SOL    HW177854   7.189   7.825  12.808
25360SOL    HW277855   7.131   7.820  12.668
25361SOL     OW77856   0.156   6.928   6.605
25361SOL    HW177857   0.143   6.896   6.694
25361SOL    HW277858   0.155   7.023   6.614
25362SOL     OW77859  13.255   4.185   7.238
25362SOL    HW177860  13.270   4.097   7.274
25362SOL    HW277861  13.340   4.212   7.205
25363SOL     OW77862   9.390  10.930   3.119
25363SOL    HW177863   9.352  10.845   3.099
25363SOL    HW277864   9.369  10.946   3.211
25364SOL     OW77865  10.819   1.727  10.859
25364SOL    HW177866  10.904   1.770  10.859
25364SOL    HW277867  10.808   1.693  10.770
25365SOL     OW77868   4.115  13.655  10.288
25365SOL    HW177869   4.123  13.744  10.321
25365SOL    HW277870   4.072  13.664  10.204
25366SOL     OW77871  14.308   6.431  13.473
25366SOL    HW177872  14.316   6.338  13.455
25366SOL    HW277873  14.394   6.467  13.453
25367SOL     OW77874   9.421   8.273   2.381
25367SOL    HW177875   9.337   8.264   2.335
25367SOL    HW277876   9.417   8.359   2.422
25368SOL     OW77877   8.016   2.138  11.483
25368SOL    HW177878   7.948   2.117  11.547
25368SOL    HW277879   8.051   2.053  11.456
25369SOL     OW77880   6.560   4.660   5.394
25369SOL    HW177881   6.611   4.634   5.317
25369SOL    HW277882   6.555   4.580   5.447
25370SOL     OW77883   0.187  13.383   2.302
25370SOL    HW177884   0.135  13.325   2.245
25370SOL    HW277885   0.184  13.340   2.388
25371SOL     OW77886   6.651  10.536   6.625
25371SOL    HW177887   6.590  10.544   6.698
25371SOL    HW277888   6.736  10.520   6.665
25372SOL     OW77889   5.197   5.980   2.072
25372SOL    HW177890   5.106   5.958   2.095
25372SOL    HW277891   5.201   5.968   1.978
25373SOL     OW77892   2.003  13.938   4.885
25373SOL    HW177893   2.036  13.969   4.969
25373SOL    HW277894   2.023  13.844   4.885
25374SOL     OW77895   1.752  13.936   4.133
25374SOL    HW177896   1.736  14.023   4.169
25374SOL    HW277897   1.843  13.918   4.153
25375SOL     OW77898   1.142  10.872  12.198
25375SOL    HW177899   1.216  10.885  12.257
25375SOL    HW277900   1.068  10.914  12.242
25376SOL     OW77901  11.467  12.717   1.539
25376SOL    HW177902  11.517  12.761   1.470
25376SOL    HW277903  11.512  12.741   1.620
25377SOL     OW77904   4.570  14.839   0.852
25377SOL    HW177905   4.525   0.025   0.903
25377SOL    HW277906   4.649  14.820   0.903
25378SOL     OW77907   3.799   9.973   0.804
25378SOL    HW177908   3.864   9.925   0.753
25378SOL    HW277909   3.744   9.905   0.844
25379SOL     OW77910  11.510   4.100  12.298
25379SOL    HW177911  11.507   4.082  12.392
25379SOL    HW277912  11.437   4.160  12.282
25380SOL     OW77913  13.932   4.265   5.005
25380SOL    HW177914  13.912   4.205   4.933
25380SOL    HW277915  14.023   4.292   4.989
25381SOL     OW77916  14.824   5.078  10.476
25381SOL    HW177917  14.775   5.041  10.550
25381SOL    HW277918  14.854   5.001  10.427
25382SOL     OW77919  13.654   3.142   9.509
25382SOL    HW177920  13.639   3.048   9.515
25382SOL    HW277921  13.576   3.176   9.466
25383SOL     OW77922  12.309   9.892   6.454
25383SOL    HW177923  12.214   9.892   6.461
25383SOL    HW277924  12.334   9.984   6.461
25384SOL     OW77925  10.148   5.870   7.273
25384SOL    HW177926  10.061   5.861   7.234
25384SOL    HW277927  10.187   5.783   7.263
25385SOL     OW77928   3.592  14.520  14.384
25385SOL    HW177929   3.526  14.461  14.348
25385SOL    HW277930   3.545  14.602  14.399
25386SOL     OW77931  10.062   5.316   1.251
25386SOL    HW177932  10.024   5.297   1.165
25386SOL    HW277933  10.043   5.408   1.267
25387SOL     OW77934   8.002   5.228   2.877
25387SOL    HW177935   7.958   5.152   2.839
25387SOL    HW277936   7.931   5.287   2.902
25388SOL     OW77937   0.057   5.630   1.711
25388SOL    HW177938   0.004   5.552   1.727
25388SOL    HW277939   0.110   5.607   1.635
25389SOL     OW77940  11.498   5.633  11.189
25389SOL    HW177941  11.556   5.579  11.136
25389SOL    HW277942  11.475   5.579  11.264
25390SOL     OW77943   3.719  10.420  14.362
25390SOL    HW177944   3.706  10.394  14.453
25390SOL    HW277945   3.712  10.515  14.362
25391SOL     OW77946   7.227   6.729   0.323
25391SOL    HW177947   7.258   6.817   0.300
25391SOL    HW277948   7.195   6.693   0.240
25392SOL     OW77949   6.243  11.150   2.773
25392SOL    HW177950   6.192  11.173   2.851
25392SOL    HW277951   6.300  11.226   2.758
25393SOL     OW77952   3.823   7.562   8.718
25393SOL    HW177953   3.849   7.559   8.626
25393SOL    HW277954   3.763   7.637   8.723
25394SOL     OW77955   8.436   8.734   9.621
25394SOL    HW177956   8.457   8.684   9.543
25394SOL    HW277957   8.348   8.707   9.645
25395SOL     OW77958  10.181   6.207   2.272
25395SOL    HW177959  10.219   6.288   2.306
25395SOL    HW277960  10.249   6.171   2.214
25396SOL     OW77961   4.611   3.817   1.377
25396SOL    HW177962   4.680   3.750   1.382
25396SOL    HW277963   4.537   3.779   1.424
25397SOL     OW77964  14.681   4.624   4.784
25397SOL    HW177965  14.730   4.542   4.786
25397SOL    HW277966  14.624   4.621   4.861
25398SOL     OW77967  14.216   1.410  10.594
25398SOL    HW177968  14.223   1.466  10.517
25398SOL    HW277969  14.199   1.322  10.559
25399SOL     OW77970  11.223  13.292  11.900
25399SOL    HW177971  11.191  13.254  11.818
25399SOL    HW277972  11.155  13.273  11.964
25400SOL     OW77973  14.169  14.030   0.540
25400SOL    HW177974  14.173  14.102   0.602
25400SOL    HW277975  14.254  14.031   0.496
25401SOL     OW77976   6.468   6.116   8.053
25401SOL    HW177977   6.467   6.165   8.135
25401SOL    HW277978   6.404   6.160   7.997
25402SOL     OW77979   4.557   9.862   8.609
25402SOL    HW177980   4.564   9.957   8.594
25402SOL    HW277981   4.636   9.840   8.658
25403SOL     OW77982   8.101  14.781   5.100
25403SOL    HW177983   8.166  14.821   5.157
25403SOL    HW277984   8.026  14.841   5.104
25404SOL     OW77985  11.840  11.467   3.554
25404SOL    HW177986  11.912  11.451   3.492
25404SOL    HW277987  11.840  11.390   3.611
25405SOL     OW77988  13.017  10.251   8.484
25405SOL    HW177989  13.078  10.324   8.492
25405SOL    HW277990  13.001  10.242   8.390
25406SOL     OW77991   0.359   8.557  12.017
25406SOL    HW177992   0.405   8.482  11.978
25406SOL    HW277993   0.332   8.526  12.103
25407SOL     OW77994   3.322   7.137   5.966
25407SOL    HW177995   3.351   7.141   6.057
25407SOL    HW277996   3.386   7.189   5.918
25408SOL     OW77997  14.148  10.518   9.702
25408SOL    HW177998  14.058  10.547   9.690
25408SOL    HW277999  14.142  10.422   9.704
25409SOL     OW78000   3.473  13.749   0.616
25409SOL    HW178001   3.563  13.729   0.589
25409SOL    HW278002   3.419  13.719   0.542
25410SOL     OW78003   7.333   7.308   3.061
25410SOL    HW178004   7.378   7.248   3.002
25410SOL    HW278005   7.359   7.280   3.148
25411SOL     OW78006  11.910   0.492  10.614
25411SOL    HW178007  11.893   0.438  10.691
25411SOL    HW278008  12.005   0.491  10.605
25412SOL     OW78009  11.970   9.139   5.682
25412SOL    HW178010  12.018   9.072   5.730
25412SOL    HW278011  11.891   9.154   5.735
25413SOL     OW78012   8.480  10.811   1.748
25413SOL    HW178013   8.431  10.740   1.708
25413SOL    HW278014   8.416  10.855   1.805
25414SOL     OW78015   6.177   5.163   9.056
25414SOL    HW178016   6.125   5.225   9.106
25414SOL    HW278017   6.268   5.186   9.075
25415SOL     OW78018   9.116   4.056   4.357
25415SOL    HW178019   9.177   4.121   4.323
25415SOL    HW278020   9.034   4.104   4.369
25416SOL     OW78021   1.587   0.716   9.826
25416SOL    HW178022   1.638   0.774   9.769
25416SOL    HW278023   1.646   0.699   9.900
25417SOL     OW78024   9.116  12.872  13.036
25417SOL    HW178025   9.188  12.831  13.084
25417SOL    HW278026   9.062  12.798  13.006
25418SOL     OW78027   8.220   2.606  13.631
25418SOL    HW178028   8.242   2.585  13.722
25418SOL    HW278029   8.275   2.682  13.610
25419SOL     OW78030  14.125  10.666  13.422
25419SOL    HW178031  14.094  10.716  13.497
25419SOL    HW278032  14.217  10.647  13.442
25420SOL     OW78033   7.946   4.417   5.969
25420SOL    HW178034   7.903   4.493   5.931
25420SOL    HW278035   7.958   4.357   5.896
25421SOL     OW78036   3.961   7.419   4.390
25421SOL    HW178037   4.017   7.341   4.387
25421SOL    HW278038   3.884   7.395   4.337
25422SOL     OW78039   7.866  13.121  10.019
25422SOL    HW178040   7.800  13.189  10.004
25422SOL    HW278041   7.936  13.165  10.067
25423SOL     OW78042   2.016  12.142  14.498
25423SOL    HW178043   1.987  12.146  14.407
25423SOL    HW278044   1.935  12.136  14.548
25424SOL     OW78045  11.036   6.441   1.081
25424SOL    HW178046  11.005   6.352   1.065
25424SOL    HW278047  11.016   6.458   1.173
25425SOL     OW78048   4.494   9.688  11.518
25425SOL    HW178049   4.585   9.686  11.487
25425SOL    HW278050   4.501   9.676  11.612
25426SOL     OW78051  10.892  14.473  12.433
25426SOL    HW178052  10.846  14.430  12.505
25426SOL    HW278053  10.903  14.564  12.462
25427SOL     OW78054  11.041  12.412  13.078
25427SOL    HW178055  10.992  12.361  13.143
25427SOL    HW278056  11.094  12.472  13.130
25428SOL     OW78057   3.414   1.614  13.583
25428SOL    HW178058   3.431   1.707  13.597
25428SOL    HW278059   3.333   1.611  13.533
25429SOL     OW78060  12.229   7.658  11.885
25429SOL    HW178061  12.258   7.685  11.798
25429SOL    HW278062  12.248   7.733  11.941
25430SOL     OW78063   0.320  13.135  13.110
25430SOL    HW178064   0.412  13.130  13.136
25430SOL    HW278065   0.316  13.085  13.028
25431SOL     OW78066   7.896  10.622   4.844
25431SOL    HW178067   7.835  10.597   4.914
25431SOL    HW278068   7.982  10.619   4.885
25432SOL     OW78069   9.156  13.710   1.808
25432SOL    HW178070   9.235  13.742   1.853
25432SOL    HW278071   9.183  13.700   1.717
25433SOL     OW78072  10.425  10.591  10.936
25433SOL    HW178073  10.368  10.652  10.983
25433SOL    HW278074  10.434  10.515  10.994
25434SOL     OW78075  13.012   7.035  14.494
25434SOL    HW178076  12.993   6.942  14.507
25434SOL    HW278077  13.093   7.036  14.443
25435SOL     OW78078   1.978  11.999   4.157
25435SOL    HW178079   2.028  11.936   4.210
25435SOL    HW278080   1.906  12.027   4.215
25436SOL     OW78081   5.478   5.010  11.311
25436SOL    HW178082   5.568   5.027  11.282
25436SOL    HW278083   5.424   5.069  11.259
25437SOL     OW78084   5.998   7.034   7.205
25437SOL    HW178085   5.944   7.055   7.281
25437SOL    HW278086   6.002   7.115   7.155
25438SOL     OW78087   7.084   3.934   1.549
25438SOL    HW178088   7.144   3.972   1.613
25438SOL    HW278089   7.027   3.877   1.601
25439SOL     OW78090   8.101   2.913   9.471
25439SOL    HW178091   8.176   2.856   9.489
25439SOL    HW278092   8.112   2.939   9.380
25440SOL     OW78093  11.308  13.804   5.994
25440SOL    HW178094  11.310  13.834   5.903
25440SOL    HW278095  11.357  13.722   5.994
25441SOL     OW78096  14.273   4.629   1.162
25441SOL    HW178097  14.307   4.674   1.085
25441SOL    HW278098  14.330   4.658   1.234
25442SOL     OW78099   2.816   8.729   9.941
25442SOL    HW178100   2.793   8.640   9.915
25442SOL    HW278101   2.828   8.724  10.036
25443SOL     OW78102  11.549  14.799   0.381
25443SOL    HW178103  11.513  14.808   0.470
25443SOL    HW278104  11.576   0.005   0.357
25444SOL     OW78105  14.296   8.959   4.921
25444SOL    HW178106  14.387   8.957   4.893
25444SOL    HW278107  14.288   8.889   4.985
25445SOL     OW78108   8.491   6.473   8.441
25445SOL    HW178109   8.537   6.468   8.525
25445SOL    HW278110   8.404   6.438   8.459
25446SOL     OW78111   5.415   5.587   4.389
25446SOL    HW178112   5.442   5.496   4.378
25446SOL    HW278113   5.320   5.582   4.401
25447SOL     OW78114   4.129  11.256  14.443
25447SOL    HW178115   4.069  11.199  14.395
25447SOL    HW278116   4.212  11.207  14.446
25448SOL     OW78117   1.147   9.327   5.054
25448SOL    HW178118   1.234   9.353   5.023
25448SOL    HW278119   1.152   9.232   5.062
25449SOL     OW78120   7.376   3.094   0.874
25449SOL    HW178121   7.458   3.139   0.894
25449SOL    HW278122   7.356   3.044   0.952
25450SOL     OW78123   2.787   0.138   1.138
25450SOL    HW178124   2.806   0.058   1.188
25450SOL    HW278125   2.696   0.126   1.109
25451SOL     OW78126   2.203   4.383   5.222
25451SOL    HW178127   2.236   4.298   5.193
25451SOL    HW278128   2.160   4.364   5.305
25452SOL     OW78129   4.968   2.978   0.811
25452SOL    HW178130   5.025   3.014   0.878
25452SOL    HW278131   5.013   2.900   0.780
25453SOL     OW78132   4.273  11.884   6.954
25453SOL    HW178133   4.191  11.858   6.995
25453SOL    HW278134   4.338  11.874   7.024
25454SOL     OW78135   2.636  13.614   1.044
25454SOL    HW178136   2.703  13.651   0.986
25454SOL    HW278137   2.619  13.683   1.108
25455SOL     OW78138   0.173   5.321  12.691
25455SOL    HW178139   0.101   5.347  12.747
25455SOL    HW278140   0.241   5.290  12.751
25456SOL     OW78141   0.878   6.175  11.050
25456SOL    HW178142   0.950   6.176  11.113
25456SOL    HW278143   0.835   6.259  11.061
25457SOL     OW78144   2.223   4.883  10.721
25457SOL    HW178145   2.301   4.845  10.761
25457SOL    HW278146   2.150   4.836  10.761
25458SOL     OW78147  12.507  10.182   3.989
25458SOL    HW178148  12.566  10.129   4.043
25458SOL    HW278149  12.547  10.268   3.988
25459SOL     OW78150   3.713   6.829   6.797
25459SOL    HW178151   3.767   6.811   6.874
25459SOL    HW278152   3.722   6.923   6.783
25460SOL     OW78153   4.245   3.451  11.675
25460SOL    HW178154   4.221   3.510  11.747
25460SOL    HW278155   4.167   3.447  11.620
25461SOL     OW78156   0.558   7.232   5.183
25461SOL    HW178157   0.586   7.323   5.174
25461SOL    HW278158   0.638   7.181   5.170
25462SOL     OW78159  13.799   7.004   8.579
25462SOL    HW178160  13.778   6.915   8.552
25462SOL    HW278161  13.776   7.008   8.672
25463SOL     OW78162   8.705   4.735  11.688
25463SOL    HW178163   8.780   4.730  11.628
25463SOL    HW278164   8.652   4.806  11.653
25464SOL     OW78165  11.716  13.328  11.294
25464SOL    HW178166  11.669  13.379  11.228
25464SOL    HW278167  11.801  13.310  11.254
25465SOL     OW78168   5.228   0.608   3.849
25465SOL    HW178169   5.229   0.704   3.844
25465SOL    HW278170   5.135   0.586   3.852
25466SOL     OW78171   2.379  12.216   9.919
25466SOL    HW178172   2.318  12.145   9.898
25466SOL    HW278173   2.417  12.191  10.003
25467SOL     OW78174   2.189  13.848   3.602
25467SOL    HW178175   2.201  13.810   3.515
25467SOL    HW278176   2.217  13.779   3.662
25468SOL     OW78177   0.631   5.993   8.156
25468SOL    HW178178   0.562   6.054   8.183
25468SOL    HW278179   0.675   6.038   8.084
25469SOL     OW78180   2.949  11.788   2.213
25469SOL    HW178181   2.952  11.851   2.285
25469SOL    HW278182   2.909  11.710   2.250
25470SOL     OW78183   7.083   7.621   5.114
25470SOL    HW178184   7.062   7.630   5.207
25470SOL    HW278185   7.155   7.682   5.100
25471SOL     OW78186   3.876   6.772   7.077
25471SOL    HW178187   3.917   6.744   7.159
25471SOL    HW278188   3.875   6.867   7.082
25472SOL     OW78189   1.195   0.095   2.504
25472SOL    HW178190   1.169   0.187   2.493
25472SOL    HW278191   1.290   0.096   2.496
25473SOL     OW78192   8.758  13.775   9.149
25473SOL    HW178193   8.795  13.729   9.225
25473SOL    HW278194   8.736  13.862   9.183
25474SOL     OW78195   4.115   0.188   0.169
25474SOL    HW178196   4.113   0.245   0.246
25474SOL    HW278197   4.024   0.164   0.153
25475SOL     OW78198   4.046  11.354   8.652
25475SOL    HW178199   4.052  11.413   8.577
25475SOL    HW278200   3.965  11.379   8.696
25476SOL     OW78201  10.744   0.866   3.877
25476SOL    HW178202  10.756   0.923   3.801
25476SOL    HW278203  10.768   0.779   3.846
25477SOL     OW78204  12.557   2.034   1.825
25477SOL    HW178205  12.463   2.021   1.841
25477SOL    HW278206  12.571   1.999   1.738
25478SOL     OW78207  13.418   7.278   1.585
25478SOL    HW178208  13.420   7.291   1.490
25478SOL    HW278209  13.326   7.256   1.604
25479SOL     OW78210   6.867   9.649   1.998
25479SOL    HW178211   6.889   9.616   1.911
25479SOL    HW278212   6.820   9.578   2.040
25480SOL     OW78213   3.651  13.618  10.720
25480SOL    HW178214   3.580  13.569  10.680
25480SOL    HW278215   3.676  13.682  10.654
25481SOL     OW78216   9.295   2.815  11.370
25481SOL    HW178217   9.294   2.719  11.364
25481SOL    HW278218   9.387   2.839  11.365
25482SOL     OW78219  12.338  14.437  13.780
25482SOL    HW178220  12.425  14.426  13.818
25482SOL    HW278221  12.278  14.407  13.849
25483SOL     OW78222   9.796  11.002  13.022
25483SOL    HW178223   9.743  11.034  13.095
25483SOL    HW278224   9.768  10.911  13.010
25484SOL     OW78225   7.242   3.211  11.563
25484SOL    HW178226   7.193   3.283  11.523
25484SOL    HW278227   7.194   3.191  11.644
25485SOL     OW78228   8.124  14.490   1.693
25485SOL    HW178229   8.203  14.534   1.726
25485SOL    HW278230   8.052  14.544   1.724
25486SOL     OW78231  12.290   3.405  11.304
25486SOL    HW178232  12.304   3.480  11.246
25486SOL    HW278233  12.353   3.419  11.375
25487SOL     OW78234  10.048  14.131   3.117
25487SOL    HW178235  10.059  14.039   3.140
25487SOL    HW278236  10.078  14.179   3.195
25488SOL     OW78237  11.243   2.445  11.170
25488SOL    HW178238  11.243   2.391  11.249
25488SOL    HW278239  11.326   2.423  11.127
25489SOL     OW78240   0.176  14.215   0.073
25489SOL    HW178241   0.117  14.187   0.003
25489SOL    HW278242   0.153  14.158   0.147
25490SOL     OW78243   4.533   3.188  10.535
25490SOL    HW178244   4.626   3.213  10.529
25490SOL    HW278245   4.511   3.156  10.448
25491SOL     OW78246   1.546   3.066   8.367
25491SOL    HW178247   1.488   3.141   8.384
25491SOL    HW278248   1.552   3.062   8.271
25492SOL     OW78249   6.558  13.669   4.578
25492SOL    HW178250   6.467  13.676   4.605
25492SOL    HW278251   6.559  13.704   4.489
25493SOL     OW78252   6.658   8.175   3.775
25493SOL    HW178253   6.611   8.092   3.779
25493SOL    HW278254   6.615   8.223   3.704
25494SOL     OW78255  10.055   8.565  10.040
25494SOL    HW178256   9.995   8.614  10.096
25494SOL    HW278257  10.023   8.581   9.951
25495SOL     OW78258   2.127   4.007  14.158
25495SOL    HW178259   2.043   3.961  14.157
25495SOL    HW278260   2.193   3.938  14.149
25496SOL     OW78261   6.022   0.982   6.575
25496SOL    HW178262   5.997   0.945   6.490
25496SOL    HW278263   5.939   1.005   6.616
25497SOL     OW78264   3.010  12.433  12.367
25497SOL    HW178265   3.026  12.527  12.358
25497SOL    HW278266   3.026  12.399  12.279
25498SOL     OW78267   6.378   2.841   9.502
25498SOL    HW178268   6.341   2.754   9.515
25498SOL    HW278269   6.327   2.878   9.429
25499SOL     OW78270   8.858   5.186  10.744
25499SOL    HW178271   8.892   5.120  10.803
25499SOL    HW278272   8.926   5.254  10.742
25500SOL     OW78273   7.938  14.127   0.291
25500SOL    HW178274   7.888  14.208   0.299
25500SOL    HW278275   7.950  14.115   0.196
25501SOL     OW78276   6.608   7.619   2.378
25501SOL    HW178277   6.689   7.663   2.405
25501SOL    HW278278   6.567   7.680   2.317
25502SOL     OW78279  11.578   6.804  11.107
25502SOL    HW178280  11.649   6.822  11.045
25502SOL    HW278281  11.614   6.737  11.166
25503SOL     OW78282  13.875   8.751   0.260
25503SOL    HW178283  13.780   8.751   0.250
25503SOL    HW278284  13.893   8.679   0.320
25504SOL     OW78285  14.865  11.401  12.589
25504SOL    HW178286  14.858  11.316  12.632
25504SOL    HW278287   0.073  11.429  12.606
25505SOL     OW78288   1.144   6.105   7.761
25505SOL    HW178289   1.062   6.153   7.751
25505SOL    HW278290   1.121   6.031   7.818
25506SOL     OW78291   2.214   7.562   9.656
25506SOL    HW178292   2.161   7.521   9.587
25506SOL    HW278293   2.265   7.629   9.611
25507SOL     OW78294  13.807  11.376  13.433
25507SOL    HW178295  13.768  11.305  13.381
25507SOL    HW278296  13.732  11.417  13.477
25508SOL     OW78297   9.310   1.125  14.222
25508SOL    HW178298   9.391   1.087  14.188
25508SOL    HW278299   9.331   1.151  14.312
25509SOL     OW78300   7.834   1.347  10.055
25509SOL    HW178301   7.866   1.258  10.072
25509SOL    HW278302   7.759   1.357  10.114
25510SOL     OW78303   3.801  10.378   7.206
25510SOL    HW178304   3.859  10.305   7.185
25510SOL    HW278305   3.748  10.346   7.280
25511SOL     OW78306   3.177   5.510   8.434
25511SOL    HW178307   3.097   5.511   8.381
25511SOL    HW278308   3.179   5.422   8.472
25512SOL     OW78309   5.938   0.596   3.444
25512SOL    HW178310   6.021   0.555   3.470
25512SOL    HW278311   5.892   0.611   3.527
25513SOL     OW78312   9.172   5.278   0.353
25513SOL    HW178313   9.228   5.330   0.412
25513SOL    HW278314   9.231   5.247   0.285
25514SOL     OW78315   6.696   1.764   5.561
25514SOL    HW178316   6.616   1.803   5.594
25514SOL    HW278317   6.722   1.820   5.488
25515SOL     OW78318   4.143  11.710  10.104
25515SOL    HW178319   4.144  11.619  10.072
25515SOL    HW278320   4.108  11.703  10.193
25516SOL     OW78321   2.630  14.352  13.180
25516SOL    HW178322   2.606  14.418  13.244
25516SOL    HW278323   2.551  14.340  13.127
25517SOL     OW78324   6.776   2.291   4.554
25517SOL    HW178325   6.732   2.211   4.527
25517SOL    HW278326   6.867   2.264   4.571
25518SOL     OW78327   9.243  11.634   0.431
25518SOL    HW178328   9.314  11.652   0.493
25518SOL    HW278329   9.228  11.540   0.438
25519SOL     OW78330   8.367   1.803  14.014
25519SOL    HW178331   8.360   1.797  14.109
25519SOL    HW278332   8.461   1.800  13.997
25520SOL     OW78333  13.611   2.409   6.195
25520SOL    HW178334  13.690   2.414   6.141
25520SOL    HW278335  13.539   2.418   6.133
25521SOL     OW78336   9.049   5.579   8.476
25521SOL    HW178337   9.006   5.503   8.515
25521SOL    HW278338   9.056   5.558   8.383
25522SOL     OW78339  11.707   4.149   9.060
25522SOL    HW178340  11.657   4.165   8.980
25522SOL    HW278341  11.745   4.234   9.082
25523SOL     OW78342   1.404   2.321  14.603
25523SOL    HW178343   1.464   2.252  14.632
25523SOL    HW278344   1.435   2.400  14.649
25524SOL     OW78345  14.066   4.793   4.307
25524SOL    HW178346  14.034   4.718   4.357
25524SOL    HW278347  14.061   4.866   4.369
25525SOL     OW78348  14.697   8.713  10.985
25525SOL    HW178349  14.724   8.791  11.034
25525SOL    HW278350  14.668   8.652  11.052
25526SOL     OW78351   0.243   2.830   8.929
25526SOL    HW178352   0.221   2.824   8.836
25526SOL    HW278353   0.182   2.770   8.972
25527SOL     OW78354   4.742   4.569   5.504
25527SOL    HW178355   4.659   4.546   5.460
25527SOL    HW278356   4.804   4.582   5.432
25528SOL     OW78357  13.798   5.571  12.692
25528SOL    HW178358  13.874   5.626  12.708
25528SOL    HW278359  13.746   5.578  12.772
25529SOL     OW78360   7.561  11.386   2.707
25529SOL    HW178361   7.560  11.430   2.622
25529SOL    HW278362   7.526  11.452   2.768
25530SOL     OW78363   4.364  14.294  10.931
25530SOL    HW178364   4.341  14.226  10.994
25530SOL    HW278365   4.441  14.337  10.968
25531SOL     OW78366   0.673   6.152   3.611
25531SOL    HW178367   0.681   6.101   3.530
25531SOL    HW278368   0.607   6.219   3.590
25532SOL     OW78369  13.383  12.579   5.979
25532SOL    HW178370  13.345  12.666   5.975
25532SOL    HW278371  13.396  12.562   6.073
25533SOL     OW78372   7.757   5.585  14.557
25533SOL    HW178373   7.733   5.661  14.504
25533SOL    HW278374   7.853   5.583  14.554
25534SOL     OW78375   8.369   0.781   5.106
25534SOL    HW178376   8.312   0.769   5.030
25534SOL    HW278377   8.457   0.787   5.068
25535SOL     OW78378   7.012   8.455   5.457
25535SOL    HW178379   6.975   8.492   5.537
25535SOL    HW278380   7.048   8.371   5.484
25536SOL     OW78381   7.703   2.043  13.791
25536SOL    HW178382   7.678   1.957  13.758
25536SOL    HW278383   7.708   2.099  13.714
25537SOL     OW78384  12.424  12.274   9.054
25537SOL    HW178385  12.488  12.319   9.110
25537SOL    HW278386  12.342  12.319   9.072
25538SOL     OW78387   4.002   3.411  10.952
25538SOL    HW178388   3.988   3.357  10.874
25538SOL    HW278389   4.093   3.394  10.977
25539SOL     OW78390  13.116  12.973   2.171
25539SOL    HW178391  13.166  13.033   2.115
25539SOL    HW278392  13.183  12.913   2.206
25540SOL     OW78393  14.683   4.588  10.272
25540SOL    HW178394  14.654   4.563  10.185
25540SOL    HW278395  14.767   4.633  10.258
25541SOL     OW78396   8.164   0.378  10.971
25541SOL    HW178397   8.128   0.319  10.905
25541SOL    HW278398   8.091   0.394  11.031
25542SOL     OW78399   2.764   3.461   2.042
25542SOL    HW178400   2.758   3.466   2.138
25542SOL    HW278401   2.764   3.367   2.023
25543SOL     OW78402   0.490  11.743   3.981
25543SOL    HW178403   0.413  11.693   4.007
25543SOL    HW278404   0.465  11.786   3.900
25544SOL     OW78405  12.579   5.228  14.824
25544SOL    HW178406  12.511   5.293  14.838
25544SOL    HW278407  12.560   5.159   0.007
25545SOL     OW78408  10.955   6.868   8.717
25545SOL    HW178409  10.972   6.909   8.632
25545SOL    HW278410  10.929   6.779   8.695
25546SOL     OW78411   4.459   4.927   3.127
25546SOL    HW178412   4.489   4.838   3.109
25546SOL    HW278413   4.447   4.966   3.041
25547SOL     OW78414   8.271  10.628   9.737
25547SOL    HW178415   8.198  10.621   9.799
25547SOL    HW278416   8.342  10.580   9.779
25548SOL     OW78417  13.196   7.584   6.522
25548SOL    HW178418  13.198   7.583   6.618
25548SOL    HW278419  13.131   7.650   6.500
25549SOL     OW78420   8.852   8.539   7.451
25549SOL    HW178421   8.836   8.633   7.437
25549SOL    HW278422   8.781   8.495   7.404
25550SOL     OW78423  11.320  11.706   9.567
25550SOL    HW178424  11.248  11.739   9.620
25550SOL    HW278425  11.279  11.649   9.502
25551SOL     OW78426  10.801  12.150   0.377
25551SOL    HW178427  10.783  12.183   0.289
25551SOL    HW278428  10.850  12.220   0.420
25552SOL     OW78429   2.777   0.617   8.107
25552SOL    HW178430   2.694   0.649   8.071
25552SOL    HW278431   2.797   0.676   8.179
25553SOL     OW78432   4.936   2.670   9.816
25553SOL    HW178433   4.902   2.746   9.770
25553SOL    HW278434   4.989   2.707   9.887
25554SOL     OW78435   0.090   5.768   8.819
25554SOL    HW178436   0.000   5.747   8.846
25554SOL    HW278437   0.116   5.840   8.877
25555SOL     OW78438   4.772   2.081   2.299
25555SOL    HW178439   4.694   2.053   2.347
25555SOL    HW278440   4.839   2.016   2.321
25556SOL     OW78441   8.781   0.760   0.769
25556SOL    HW178442   8.872   0.763   0.800
25556SOL    HW278443   8.756   0.851   0.759
25557SOL     OW78444  12.202   2.193  10.594
25557SOL    HW178445  12.220   2.102  10.617
25557SOL    HW278446  12.147   2.187  10.515
25558SOL     OW78447   0.673  10.258   4.093
25558SOL    HW178448   0.579  10.243   4.107
25558SOL    HW278449   0.708  10.277   4.180
25559SOL     OW78450  10.682   1.492   1.128
25559SOL    HW178451  10.645   1.457   1.047
25559SOL    HW278452  10.711   1.580   1.104
25560SOL     OW78453  12.309  14.204   7.488
25560SOL    HW178454  12.375  14.179   7.553
25560SOL    HW278455  12.306  14.299   7.491
25561SOL     OW78456   2.012   3.976   6.553
25561SOL    HW178457   1.919   3.965   6.535
25561SOL    HW278458   2.016   3.999   6.646
25562SOL     OW78459  11.386   8.083  10.223
25562SOL    HW178460  11.376   8.079  10.128
25562SOL    HW278461  11.301   8.113  10.254
25563SOL     OW78462  11.488   3.976  11.361
25563SOL    HW178463  11.572   3.968  11.406
25563SOL    HW278464  11.455   3.886  11.356
25564SOL     OW78465   6.427  14.680   2.668
25564SOL    HW178466   6.423  14.588   2.695
25564SOL    HW278467   6.347  14.719   2.704
25565SOL     OW78468  10.092   8.431   8.451
25565SOL    HW178469  10.023   8.404   8.390
25565SOL    HW278470  10.174   8.407   8.406
25566SOL     OW78471   3.197   8.393   9.606
25566SOL    HW178472   3.262   8.382   9.536
25566SOL    HW278473   3.112   8.384   9.562
25567SOL     OW78474  14.585   9.474   7.275
25567SOL    HW178475  14.496   9.505   7.261
25567SOL    HW278476  14.637   9.554   7.287
25568SOL     OW78477   6.186   8.395  13.802
25568SOL    HW178478   6.269   8.353  13.825
25568SOL    HW278479   6.124   8.323  13.796
25569SOL     OW78480   3.999   9.908   0.600
25569SOL    HW178481   4.001   9.905   0.505
25569SOL    HW278482   4.008   9.817   0.627
25570SOL     OW78483   2.508  12.881  11.630
25570SOL    HW178484   2.547  12.797  11.607
25570SOL    HW278485   2.418  12.876  11.596
25571SOL     OW78486   8.031  12.162  13.719
25571SOL    HW178487   8.060  12.251  13.698
25571SOL    HW278488   7.937  12.163  13.702
25572SOL     OW78489   6.579   7.087   7.240
25572SOL    HW178490   6.503   7.089   7.181
25572SOL    HW278491   6.549   7.035   7.315
25573SOL     OW78492  10.016  11.686   0.659
25573SOL    HW178493  10.025  11.595   0.634
25573SOL    HW278494   9.984  11.683   0.749
25574SOL     OW78495  14.624   6.819   2.824
25574SOL    HW178496  14.698   6.878   2.808
25574SOL    HW278497  14.582   6.853   2.903
25575SOL     OW78498   4.954   5.253   0.874
25575SOL    HW178499   4.983   5.186   0.935
25575SOL    HW278500   4.977   5.219   0.787
25576SOL     OW78501  14.164  11.480  11.672
25576SOL    HW178502  14.198  11.436  11.750
25576SOL    HW278503  14.242  11.506  11.623
25577SOL     OW78504  12.685   9.445   0.495
25577SOL    HW178505  12.687   9.522   0.550
25577SOL    HW278506  12.591   9.428   0.481
25578SOL     OW78507  13.567  10.335  13.247
25578SOL    HW178508  13.658  10.322  13.218
25578SOL    HW278509  13.575  10.355  13.340
25579SOL     OW78510   2.677   5.931   8.447
25579SOL    HW178511   2.655   5.966   8.361
25579SOL    HW278512   2.606   5.871   8.468
25580SOL     OW78513  10.646  11.578  10.021
25580SOL    HW178514  10.704  11.515  10.065
25580SOL    HW278515  10.601  11.525   9.955
25581SOL     OW78516   5.337   5.301   6.854
25581SOL    HW178517   5.350   5.375   6.795
25581SOL    HW278518   5.387   5.324   6.932
25582SOL     OW78519   7.005   4.590   2.149
25582SOL    HW178520   7.042   4.643   2.219
25582SOL    HW278521   7.071   4.593   2.079
25583SOL     OW78522   0.173   7.760  12.754
25583SOL    HW178523   0.178   7.676  12.801
25583SOL    HW278524   0.199   7.825  12.818
25584SOL     OW78525  10.574  13.204   8.721
25584SOL    HW178526  10.620  13.286   8.738
25584SOL    HW278527  10.643  13.141   8.699
25585SOL     OW78528   4.034   0.318   1.904
25585SOL    HW178529   4.106   0.279   1.856
25585SOL    HW278530   3.956   0.276   1.869
25586SOL     OW78531  12.264   4.824   8.212
25586SOL    HW178532  12.336   4.762   8.201
25586SOL    HW278533  12.185   4.771   8.209
25587SOL     OW78534   0.645  12.930   0.301
25587SOL    HW178535   0.561  12.906   0.339
25587SOL    HW278536   0.670  13.010   0.347
25588SOL     OW78537   6.424   8.662  12.945
25588SOL    HW178538   6.403   8.661  12.851
25588SOL    HW278539   6.368   8.731  12.981
25589SOL     OW78540  13.092   4.123   3.295
25589SOL    HW178541  13.011   4.080   3.324
25589SOL    HW278542  13.065   4.175   3.219
25590SOL     OW78543   1.693   6.969   6.620
25590SOL    HW178544   1.697   6.982   6.715
25590SOL    HW278545   1.668   7.054   6.585
25591SOL     OW78546   9.795   3.846   6.612
25591SOL    HW178547   9.764   3.916   6.556
25591SOL    HW278548   9.783   3.879   6.701
25592SOL     OW78549   4.954  14.005   0.027
25592SOL    HW178550   4.900  13.956   0.089
25592SOL    HW278551   4.948  13.955  14.827
25593SOL     OW78552  10.599  11.196   4.662
25593SOL    HW178553  10.640  11.123   4.616
25593SOL    HW278554  10.506  11.176   4.660
25594SOL     OW78555  10.962  12.164   2.897
25594SOL    HW178556  11.046  12.127   2.923
25594SOL    HW278557  10.918  12.183   2.980
25595SOL     OW78558   2.541   3.127   4.475
25595SOL    HW178559   2.521   3.152   4.385
25595SOL    HW278560   2.467   3.072   4.502
25596SOL     OW78561   6.460   1.343   8.900
25596SOL    HW178562   6.379   1.394   8.899
25596SOL    HW278563   6.443   1.271   8.839
25597SOL     OW78564   7.556   2.637   7.360
25597SOL    HW178565   7.536   2.545   7.343
25597SOL    HW278566   7.650   2.639   7.380
25598SOL     OW78567   1.554  13.423  13.460
25598SOL    HW178568   1.538  13.359  13.391
25598SOL    HW278569   1.572  13.370  13.538
25599SOL     OW78570   4.092   6.125   2.298
25599SOL    HW178571   4.070   6.202   2.351
25599SOL    HW278572   4.096   6.053   2.361
25600SOL     OW78573  14.134   1.118  11.280
25600SOL    HW178574  14.119   1.039  11.228
25600SOL    HW278575  14.187   1.174  11.224
25601SOL     OW78576  12.603   8.849  10.707
25601SOL    HW178577  12.661   8.808  10.771
25601SOL    HW278578  12.577   8.777  10.649
25602SOL     OW78579   5.601   7.576   7.894
25602SOL    HW178580   5.529   7.560   7.833
25602SOL    HW278581   5.571   7.540   7.977
25603SOL     OW78582  12.634   6.107  10.210
25603SOL    HW178583  12.634   6.106  10.305
25603SOL    HW278584  12.641   6.015  10.185
25604SOL     OW78585   0.245   4.283  13.709
25604SOL    HW178586   0.168   4.337  13.691
25604SOL    HW278587   0.216   4.193  13.691
25605SOL     OW78588   5.354   9.849   2.913
25605SOL    HW178589   5.316   9.796   2.983
25605SOL    HW278590   5.371   9.934   2.953
25606SOL     OW78591  12.230  14.793  12.219
25606SOL    HW178592  12.267  14.781  12.132
25606SOL    HW278593  12.255  14.715  12.268
25607SOL     OW78594  10.925  14.280   2.186
25607SOL    HW178595  10.838  14.277   2.147
25607SOL    HW278596  10.924  14.360   2.240
25608SOL     OW78597   6.672   2.999   4.108
25608SOL    HW178598   6.705   3.002   4.198
25608SOL    HW278599   6.633   2.912   4.099
25609SOL     OW78600   4.766  10.265   2.600
25609SOL    HW178601   4.789  10.353   2.629
25609SOL    HW278602   4.772  10.212   2.680
25610SOL     OW78603  10.947   5.392   8.298
25610SOL    HW178604  10.988   5.452   8.236
25610SOL    HW278605  10.891   5.447   8.353
25611SOL     OW78606  12.803   5.779   5.825
25611SOL    HW178607  12.796   5.772   5.730
25611SOL    HW278608  12.729   5.729   5.859
25612SOL     OW78609  10.889   8.035  10.217
25612SOL    HW178610  10.842   8.095  10.159
25612SOL    HW278611  10.913   7.961  10.162
25613SOL     OW78612   8.647   8.355   6.479
25613SOL    HW178613   8.698   8.275   6.472
25613SOL    HW278614   8.592   8.356   6.400
25614SOL     OW78615   0.774   2.218   4.386
25614SOL    HW178616   0.784   2.136   4.337
25614SOL    HW278617   0.684   2.214   4.419
25615SOL     OW78618   7.257   2.086  13.051
25615SOL    HW178619   7.205   2.159  13.085
25615SOL    HW278620   7.342   2.125  13.030
25616SOL     OW78621  12.681  14.524   4.929
25616SOL    HW178622  12.667  14.446   4.982
25616SOL    HW278623  12.614  14.519   4.861
25617SOL     OW78624   7.428  13.022   1.941
25617SOL    HW178625   7.509  12.989   1.901
25617SOL    HW278626   7.455  13.053   2.027
25618SOL     OW78627  11.388   9.022   3.982
25618SOL    HW178628  11.430   9.108   3.980
25618SOL    HW278629  11.433   8.975   4.052
25619SOL     OW78630  13.373   4.065   6.967
25619SOL    HW178631  13.429   4.136   6.997
25619SOL    HW278632  13.294   4.108   6.934
25620SOL     OW78633   3.355  11.180   3.513
25620SOL    HW178634   3.394  11.242   3.452
25620SOL    HW278635   3.406  11.189   3.594
25621SOL     OW78636   5.243  13.767   9.591
25621SOL    HW178637   5.304  13.777   9.519
25621SOL    HW278638   5.181  13.700   9.562
25622SOL     OW78639  12.364   4.136  11.833
25622SOL    HW178640  12.456   4.154  11.814
25622SOL    HW278641  12.366   4.061  11.892
25623SOL     OW78642   3.098  13.314   4.046
25623SOL    HW178643   3.137  13.262   3.975
25623SOL    HW278644   3.132  13.403   4.031
25624SOL     OW78645   7.190   2.455   3.327
25624SOL    HW178646   7.277   2.492   3.314
25624SOL    HW278647   7.171   2.409   3.245
25625SOL     OW78648  12.101   0.809   2.586
25625SOL    HW178649  12.123   0.774   2.673
25625SOL    HW278650  12.133   0.900   2.588
25626SOL     OW78651   3.996   5.510   8.700
25626SOL    HW178652   3.908   5.548   8.699
25626SOL    HW278653   3.989   5.429   8.649
25627SOL     OW78654   2.067   1.529   0.933
25627SOL    HW178655   2.004   1.495   0.997
25627SOL    HW278656   2.152   1.524   0.978
25628SOL     OW78657   7.044  11.443   8.925
25628SOL    HW178658   6.959  11.415   8.893
25628SOL    HW278659   7.029  11.464   9.018
25629SOL     OW78660   7.671   1.894  14.447
25629SOL    HW178661   7.682   1.989  14.455
25629SOL    HW278662   7.591   1.875  14.495
25630SOL     OW78663  11.150   1.015   6.170
25630SOL    HW178664  11.194   0.940   6.131
25630SOL    HW278665  11.178   1.017   6.261
25631SOL     OW78666   2.852   2.237   0.138
25631SOL    HW178667   2.811   2.179   0.074
25631SOL    HW278668   2.830   2.325   0.108
25632SOL     OW78669   4.508  11.892   9.574
25632SOL    HW178670   4.563  11.826   9.616
25632SOL    HW278671   4.515  11.872   9.480
25633SOL     OW78672   4.422  12.776  12.340
25633SOL    HW178673   4.472  12.798  12.261
25633SOL    HW278674   4.399  12.860  12.377
25634SOL     OW78675  13.469   9.858   0.190
25634SOL    HW178676  13.431   9.942   0.162
25634SOL    HW278677  13.396   9.810   0.227
25635SOL     OW78678   3.338   5.202   4.584
25635SOL    HW178679   3.289   5.238   4.658
25635SOL    HW278680   3.297   5.118   4.567
25636SOL     OW78681   1.615   3.061  10.527
25636SOL    HW178682   1.552   3.032  10.593
25636SOL    HW278683   1.700   3.053  10.571
25637SOL     OW78684   1.702  14.614  13.219
25637SOL    HW178685   1.741  14.545  13.166
25637SOL    HW278686   1.706  14.692  13.163
25638SOL     OW78687  12.609   7.094  10.843
25638SOL    HW178688  12.673   7.165  10.830
25638SOL    HW278689  12.586   7.067  10.754
25639SOL     OW78690   5.296  12.408  14.785
25639SOL    HW178691   5.379  12.360  14.786
25639SOL    HW278692   5.316  12.488  14.737
25640SOL     OW78693   6.841   0.436   3.160
25640SOL    HW178694   6.772   0.382   3.121
25640SOL    HW278695   6.822   0.435   3.254
25641SOL     OW78696   5.050  12.942  14.596
25641SOL    HW178697   5.123  12.906  14.547
25641SOL    HW278698   5.089  13.011  14.650
25642SOL     OW78699   1.207   0.392   7.452
25642SOL    HW178700   1.113   0.400   7.442
25642SOL    HW278701   1.236   0.480   7.477
25643SOL     OW78702  10.012  11.906  12.960
25643SOL    HW178703  10.080  11.883  12.896
25643SOL    HW278704   9.933  11.863  12.928
25644SOL     OW78705   2.972   3.294   2.241
25644SOL    HW178706   3.017   3.355   2.183
25644SOL    HW278707   2.967   3.339   2.325
25645SOL     OW78708   8.280   1.043  10.879
25645SOL    HW178709   8.309   0.955  10.856
25645SOL    HW278710   8.227   1.071  10.804
25646SOL     OW78711  11.680   8.442   7.187
25646SOL    HW178712  11.667   8.519   7.242
25646SOL    HW278713  11.731   8.381   7.240
25647SOL     OW78714  14.178   5.585   3.784
25647SOL    HW178715  14.181   5.511   3.846
25647SOL    HW278716  14.144   5.658   3.836
25648SOL     OW78717   8.739   8.118  10.500
25648SOL    HW178718   8.684   8.193  10.480
25648SOL    HW278719   8.825   8.141  10.464
25649SOL     OW78720  12.389   0.596   0.055
25649SOL    HW178721  12.335   0.672   0.077
25649SOL    HW278722  12.359   0.568  14.850
25650SOL     OW78723   3.553  14.270  12.826
25650SOL    HW178724   3.475  14.221  12.850
25650SOL    HW278725   3.613  14.203  12.792
25651SOL     OW78726  12.303  11.485   7.699
25651SOL    HW178727  12.315  11.479   7.604
25651SOL    HW278728  12.303  11.394   7.728
25652SOL     OW78729   0.066  10.552   7.200
25652SOL    HW178730   0.044  10.461   7.180
25652SOL    HW278731  14.879  10.581   7.260
25653SOL     OW78732   7.262  14.813  12.534
25653SOL    HW178733   7.286  14.849  12.449
25653SOL    HW278734   7.224  14.728  12.515
25654SOL     OW78735   6.557   1.157   7.745
25654SOL    HW178736   6.592   1.236   7.705
25654SOL    HW278737   6.464   1.174   7.756
25655SOL     OW78738   8.822   0.449  11.398
25655SOL    HW178739   8.733   0.482  11.404
25655SOL    HW278740   8.851   0.440  11.489
25656SOL     OW78741   8.314   6.267   3.023
25656SOL    HW178742   8.274   6.199   2.970
25656SOL    HW278743   8.378   6.221   3.078
25657SOL     OW78744   6.683  11.707  13.122
25657SOL    HW178745   6.592  11.731  13.103
25657SOL    HW278746   6.676  11.636  13.186
25658SOL     OW78747   8.483   8.860   9.960
25658SOL    HW178748   8.515   8.921   9.894
25658SOL    HW278749   8.490   8.908  10.042
25659SOL     OW78750  11.838   2.410  11.015
25659SOL    HW178751  11.792   2.347  10.960
25659SOL    HW278752  11.923   2.421  10.973
25660SOL     OW78753   1.365   2.699   4.622
25660SOL    HW178754   1.392   2.784   4.587
25660SOL    HW278755   1.301   2.666   4.559
25661SOL     OW78756  13.075   7.745  11.477
25661SOL    HW178757  13.161   7.711  11.500
25661SOL    HW278758  13.068   7.731  11.382
25662SOL     OW78759   3.915  10.540   1.250
25662SOL    HW178760   3.852  10.569   1.317
25662SOL    HW278761   3.872  10.466   1.207
25663SOL     OW78762   3.222  12.284  11.056
25663SOL    HW178763   3.219  12.378  11.037
25663SOL    HW278764   3.304  12.272  11.104
25664SOL     OW78765   7.041   9.611   0.570
25664SOL    HW178766   7.049   9.625   0.664
25664SOL    HW278767   6.961   9.559   0.561
25665SOL     OW78768   0.861   0.952  12.788
25665SOL    HW178769   0.894   0.873  12.745
25665SOL    HW278770   0.940   0.999  12.815
25666SOL     OW78771  13.326   1.294  14.309
25666SOL    HW178772  13.381   1.246  14.248
25666SOL    HW278773  13.326   1.240  14.389
25667SOL     OW78774   2.317   0.097   5.245
25667SOL    HW178775   2.351   0.071   5.330
25667SOL    HW278776   2.292   0.189   5.257
25668SOL     OW78777   6.773   9.854   8.077
25668SOL    HW178778   6.745   9.921   8.139
25668SOL    HW278779   6.695   9.838   8.023
25669SOL     OW78780   5.231   1.411   2.672
25669SOL    HW178781   5.150   1.406   2.723
25669SOL    HW278782   5.291   1.463   2.726
25670SOL     OW78783   6.985  11.285   2.546
25670SOL    HW178784   7.075  11.290   2.578
25670SOL    HW278785   6.990  11.229   2.469
25671SOL     OW78786  10.370  13.108  13.117
25671SOL    HW178787  10.289  13.118  13.067
25671SOL    HW278788  10.356  13.160  13.196
25672SOL     OW78789   0.204  13.704  12.216
25672SOL    HW178790   0.249  13.789  12.211
25672SOL    HW278791   0.116  13.722  12.182
25673SOL     OW78792   2.037  11.526   5.116
25673SOL    HW178793   1.983  11.605   5.109
25673SOL    HW278794   2.078  11.518   5.030
25674SOL     OW78795   5.149   6.249  11.009
25674SOL    HW178796   5.175   6.337  11.038
25674SOL    HW278797   5.188   6.190  11.073
25675SOL     OW78798   2.269   3.538   7.402
25675SOL    HW178799   2.278   3.497   7.316
25675SOL    HW278800   2.180   3.573   7.402
25676SOL     OW78801   1.459   4.351  10.956
25676SOL    HW178802   1.511   4.380  10.881
25676SOL    HW278803   1.518   4.361  11.031
25677SOL     OW78804  11.759  13.433   8.059
25677SOL    HW178805  11.755  13.528   8.068
25677SOL    HW278806  11.735  13.416   7.968
25678SOL     OW78807   3.435   8.062  12.364
25678SOL    HW178808   3.456   8.049  12.272
25678SOL    HW278809   3.485   7.994  12.410
25679SOL     OW78810   5.969   3.369   8.840
25679SOL    HW178811   5.898   3.321   8.796
25679SOL    HW278812   6.036   3.303   8.857
25680SOL     OW78813   8.562   9.299   1.489
25680SOL    HW178814   8.469   9.311   1.468
25680SOL    HW278815   8.606   9.306   1.404
25681SOL     OW78816  13.169   5.858   3.363
25681SOL    HW178817  13.094   5.820   3.408
25681SOL    HW278818  13.229   5.882   3.433
25682SOL     OW78819   8.616  14.360   5.310
25682SOL    HW178820   8.596  14.272   5.279
25682SOL    HW278821   8.533  14.407   5.305
25683SOL     OW78822   3.959   2.832   1.682
25683SOL    HW178823   3.938   2.788   1.599
25683SOL    HW278824   4.046   2.800   1.705
25684SOL     OW78825  13.265  11.243  12.311
25684SOL    HW178826  13.298  11.332  12.297
25684SOL    HW278827  13.182  11.241  12.265
25685SOL     OW78828   3.573  11.935  13.614
25685SOL    HW178829   3.588  12.029  13.608
25685SOL    HW278830   3.559  11.920  13.708
25686SOL     OW78831  11.787  11.951   5.578
25686SOL    HW178832  11.856  11.984   5.520
25686SOL    HW278833  11.768  11.864   5.545
25687SOL     OW78834   1.323  10.386  11.616
25687SOL    HW178835   1.257  10.353  11.554
25687SOL    HW278836   1.274  10.446  11.673
25688SOL     OW78837   9.780  14.411   7.920
25688SOL    HW178838   9.695  14.456   7.920
25688SOL    HW278839   9.810  14.418   8.011
25689SOL     OW78840   8.449   7.652  14.042
25689SOL    HW178841   8.408   7.591  14.103
25689SOL    HW278842   8.397   7.643  13.962
25690SOL     OW78843   5.714   9.692  11.470
25690SOL    HW178844   5.761   9.762  11.516
25690SOL    HW278845   5.707   9.622  11.535
25691SOL     OW78846   1.274  10.220  10.190
25691SOL    HW178847   1.226  10.149  10.148
25691SOL    HW278848   1.354  10.230  10.138
25692SOL     OW78849   3.603  11.722  10.985
25692SOL    HW178850   3.511  11.741  10.966
25692SOL    HW278851   3.614  11.747  11.077
25693SOL     OW78852  11.854   6.359  11.271
25693SOL    HW178853  11.845   6.324  11.182
25693SOL    HW278854  11.791   6.309  11.323
25694SOL     OW78855  12.791   4.778   0.971
25694SOL    HW178856  12.758   4.868   0.981
25694SOL    HW278857  12.875   4.778   1.017
25695SOL     OW78858  13.435   5.282   3.604
25695SOL    HW178859  13.426   5.352   3.669
25695SOL    HW278860  13.489   5.320   3.535
25696SOL     OW78861   7.268   2.789  14.798
25696SOL    HW178862   7.203   2.720  14.811
25696SOL    HW278863   7.245   2.827  14.713
25697SOL     OW78864   6.018   9.698  12.907
25697SOL    HW178865   5.974   9.640  12.845
25697SOL    HW278866   6.000   9.786  12.873
25698SOL     OW78867   8.701  14.014  11.027
25698SOL    HW178868   8.610  14.029  11.004
25698SOL    HW278869   8.699  13.941  11.089
25699SOL     OW78870   4.082   2.914   7.865
25699SOL    HW178871   4.176   2.922   7.883
25699SOL    HW278872   4.061   2.991   7.813
25700SOL     OW78873   1.499   5.223   5.686
25700SOL    HW178874   1.531   5.304   5.647
25700SOL    HW278875   1.404   5.229   5.681
25701SOL     OW78876  12.909   0.041   0.859
25701SOL    HW178877  12.978  14.858   0.846
25701SOL    HW278878  12.858   0.008   0.933
25702SOL     OW78879  11.236   2.161  10.848
25702SOL    HW178880  11.183   2.210  10.786
25702SOL    HW278881  11.211   2.069  10.834
25703SOL     OW78882   2.622  12.656  14.347
25703SOL    HW178883   2.572  12.580  14.377
25703SOL    HW278884   2.674  12.624  14.274
25704SOL     OW78885   0.572  13.086  13.219
25704SOL    HW178886   0.550  12.998  13.249
25704SOL    HW278887   0.622  13.125  13.291
25705SOL     OW78888  11.962  11.185   0.339
25705SOL    HW178889  11.956  11.222   0.251
25705SOL    HW278890  11.924  11.252   0.396
25706SOL     OW78891   0.395   5.652   4.424
25706SOL    HW178892   0.308   5.644   4.386
25706SOL    HW278893   0.396   5.739   4.463
25707SOL     OW78894   0.470  13.358  14.090
25707SOL    HW178895   0.436  13.394  14.007
25707SOL    HW278896   0.400  13.301  14.121
25708SOL     OW78897   0.593  13.403  14.749
25708SOL    HW178898   0.662  13.345  14.718
25708SOL    HW278899   0.534  13.412  14.673
25709SOL     OW78900   3.656   9.938   0.323
25709SOL    HW178901   3.725   9.882   0.358
25709SOL    HW278902   3.614   9.976   0.401
25710SOL     OW78903  13.736   2.894   7.767
25710SOL    HW178904  13.675   2.967   7.777
25710SOL    HW278905  13.791   2.897   7.845
25711SOL     OW78906   9.258   1.724   0.282
25711SOL    HW178907   9.304   1.646   0.251
25711SOL    HW278908   9.195   1.744   0.213
25712SOL     OW78909   4.479  11.223   9.923
25712SOL    HW178910   4.418  11.282   9.878
25712SOL    HW278911   4.476  11.142   9.872
25713SOL     OW78912   2.113  12.875  12.671
25713SOL    HW178913   2.097  12.781  12.666
25713SOL    HW278914   2.206  12.883  12.693
25714SOL     OW78915   9.646   2.898   7.783
25714SOL    HW178916   9.703   2.858   7.718
25714SOL    HW278917   9.652   2.992   7.766
25715SOL     OW78918   1.211   1.682   4.249
25715SOL    HW178919   1.195   1.731   4.330
25715SOL    HW278920   1.286   1.626   4.270
25716SOL     OW78921   2.500  13.412   4.100
25716SOL    HW178922   2.459  13.358   4.033
25716SOL    HW278923   2.533  13.488   4.052
25717SOL     OW78924  13.435  14.495   8.169
25717SOL    HW178925  13.364  14.445   8.129
25717SOL    HW278926  13.514  14.447   8.145
25718SOL     OW78927   6.051   4.898   2.183
25718SOL    HW178928   6.098   4.839   2.124
25718SOL    HW278929   5.978   4.845   2.216
25719SOL     OW78930  11.735   9.086   0.327
25719SOL    HW178931  11.709   9.105   0.417
25719SOL    HW278932  11.684   9.147   0.274
25720SOL     OW78933   1.398   5.712   1.855
25720SOL    HW178934   1.490   5.687   1.845
25720SOL    HW278935   1.367   5.723   1.765
25721SOL     OW78936   1.284   6.478  11.154
25721SOL    HW178937   1.346   6.550  11.154
25721SOL    HW278938   1.298   6.435  11.070
25722SOL     OW78939   7.821   8.729   8.478
25722SOL    HW178940   7.737   8.745   8.521
25722SOL    HW278941   7.802   8.665   8.410
25723SOL     OW78942  10.927   3.060   9.840
25723SOL    HW178943  10.888   3.041   9.925
25723SOL    HW278944  10.890   2.993   9.781
25724SOL     OW78945   5.017   8.732  10.050
25724SOL    HW178946   5.058   8.660  10.097
25724SOL    HW278947   4.954   8.769  10.112
25725SOL     OW78948   0.585   5.637  10.033
25725SOL    HW178949   0.490   5.640  10.037
25725SOL    HW278950   0.611   5.593  10.115
25726SOL     OW78951   4.472   1.737   2.765
25726SOL    HW178952   4.540   1.798   2.735
25726SOL    HW278953   4.404   1.741   2.698
25727SOL     OW78954   7.216  10.017   2.973
25727SOL    HW178955   7.157   9.950   2.941
25727SOL    HW278956   7.203  10.092   2.914
25728SOL     OW78957   4.046   4.516   9.389
25728SOL    HW178958   4.080   4.450   9.329
25728SOL    HW278959   3.973   4.473   9.434
25729SOL     OW78960   7.365   8.413   3.845
25729SOL    HW178961   7.337   8.371   3.926
25729SOL    HW278962   7.417   8.488   3.875
25730SOL     OW78963  14.010   9.070  13.156
25730SOL    HW178964  14.007   9.078  13.252
25730SOL    HW278965  13.995   8.977  13.139
25731SOL     OW78966   1.485   7.683  13.376
25731SOL    HW178967   1.426   7.733  13.319
25731SOL    HW278968   1.547   7.747  13.410
25732SOL     OW78969   2.503   2.794  14.806
25732SOL    HW178970   2.454   2.845  14.742
25732SOL    HW278971   2.587   2.839  14.815
25733SOL     OW78972   9.712  12.428  13.599
25733SOL    HW178973   9.788  12.416  13.543
25733SOL    HW278974   9.716  12.520  13.625
25734SOL     OW78975  10.728  10.311   4.659
25734SOL    HW178976  10.807  10.298   4.607
25734SOL    HW278977  10.748  10.273   4.744
25735SOL     OW78978  11.538   9.575  14.023
25735SOL    HW178979  11.586   9.529  14.092
25735SOL    HW278980  11.446   9.560  14.044
25736SOL     OW78981   6.753  10.109  10.668
25736SOL    HW178982   6.728  10.079  10.756
25736SOL    HW278983   6.723  10.200  10.666
25737SOL     OW78984   7.846   2.468   8.037
25737SOL    HW178985   7.910   2.409   8.076
25737SOL    HW278986   7.839   2.438   7.946
25738SOL     OW78987  13.235   3.873   3.086
25738SOL    HW178988  13.187   3.932   3.027
25738SOL    HW278989  13.177   3.861   3.161
25739SOL     OW78990   7.150   6.637   1.517
25739SOL    HW178991   7.113   6.562   1.564
25739SOL    HW278992   7.165   6.604   1.428
25740SOL     OW78993  13.673  13.559   5.033
25740SOL    HW178994  13.758  13.524   5.058
25740SOL    HW278995  13.654  13.626   5.098
25741SOL     OW78996   3.267  13.555  10.818
25741SOL    HW178997   3.232  13.643  10.831
25741SOL    HW278998   3.286  13.550  10.725
25742SOL     OW78999  12.063  14.484   2.185
25742SOL    HW179000  12.035  14.401   2.223
25742SOL    HW279001  12.101  14.532   2.259
25743SOL     OW79002  12.289  12.882  14.155
25743SOL    HW179003  12.340  12.820  14.206
25743SOL    HW279004  12.217  12.908  14.213
25744SOL     OW79005   8.525  13.656  11.941
25744SOL    HW179006   8.450  13.713  11.927
25744SOL    HW279007   8.531  13.646  12.036
25745SOL     OW79008   1.217   9.093   8.876
25745SOL    HW179009   1.281   9.151   8.919
25745SOL    HW279010   1.254   9.005   8.888
25746SOL     OW79011  13.357  14.608   0.592
25746SOL    HW179012  13.404  14.525   0.605
25746SOL    HW279013  13.368  14.627   0.499
25747SOL     OW79014   3.334   1.904  13.334
25747SOL    HW179015   3.314   1.984  13.383
25747SOL    HW279016   3.413   1.925  13.284
25748SOL     OW79017   4.979  13.489   2.143
25748SOL    HW179018   4.913  13.423   2.122
25748SOL    HW279019   4.944  13.533   2.220
25749SOL     OW79020  11.624   4.753   2.984
25749SOL    HW179021  11.571   4.690   2.935
25749SOL    HW279022  11.661   4.702   3.056
25750SOL     OW79023   6.075   4.326   2.137
25750SOL    HW179024   6.058   4.271   2.213
25750SOL    HW279025   6.029   4.408   2.157
25751SOL     OW79026   1.560   1.769  12.793
25751SOL    HW179027   1.477   1.818  12.790
25751SOL    HW279028   1.556   1.711  12.718
25752SOL     OW79029   4.164  13.687   1.658
25752SOL    HW179030   4.234  13.727   1.605
25752SOL    HW279031   4.085  13.732   1.631
25753SOL     OW79032  12.820   5.798   9.168
25753SOL    HW179033  12.779   5.855   9.234
25753SOL    HW279034  12.830   5.854   9.091
25754SOL     OW79035  14.668  11.255  13.715
25754SOL    HW179036  14.591  11.293  13.673
25754SOL    HW279037  14.691  11.181  13.660
25755SOL     OW79038  12.529  10.451  10.812
25755SOL    HW179039  12.595  10.489  10.753
25755SOL    HW279040  12.518  10.362  10.780
25756SOL     OW79041   1.784   7.663   5.159
25756SOL    HW179042   1.726   7.593   5.191
25756SOL    HW279043   1.753   7.681   5.070
25757SOL     OW79044   0.555   6.283  14.536
25757SOL    HW179045   0.569   6.312  14.446
25757SOL    HW279046   0.494   6.210  14.528
25758SOL     OW79047   3.171   7.482   0.171
25758SOL    HW179048   3.133   7.395   0.163
25758SOL    HW279049   3.124   7.522   0.244
25759SOL     OW79050   8.278   7.085   7.670
25759SOL    HW179051   8.265   7.157   7.732
25759SOL    HW279052   8.373   7.078   7.663
25760SOL     OW79053   4.261   6.779  14.358
25760SOL    HW179054   4.261   6.823  14.273
25760SOL    HW279055   4.170   6.751  14.370
25761SOL     OW79056  12.933   4.078  13.448
25761SOL    HW179057  12.897   4.166  13.436
25761SOL    HW279058  13.000   4.090  13.515
25762SOL     OW79059  12.214  10.050  12.359
25762SOL    HW179060  12.245  10.083  12.443
25762SOL    HW279061  12.280  10.079  12.296
25763SOL     OW79062   3.045  14.464   7.388
25763SOL    HW179063   3.128  14.507   7.370
25763SOL    HW279064   3.068  14.390   7.445
25764SOL     OW79065   4.392  14.088   3.589
25764SOL    HW179066   4.379  14.057   3.678
25764SOL    HW279067   4.457  14.029   3.552
25765SOL     OW79068   7.730  11.758  13.348
25765SOL    HW179069   7.701  11.682  13.398
25765SOL    HW279070   7.806  11.791  13.396
25766SOL     OW79071  12.977  14.100   6.195
25766SOL    HW179072  13.044  14.160   6.162
25766SOL    HW279073  12.917  14.155   6.244
25767SOL     OW79074   2.301  11.718   3.972
25767SOL    HW179075   2.218  11.745   4.012
25767SOL    HW279076   2.359  11.700   4.046
25768SOL     OW79077   4.689   7.944   8.894
25768SOL    HW179078   4.784   7.942   8.885
25768SOL    HW279079   4.660   7.860   8.861
25769SOL     OW79080  14.297  13.872  14.804
25769SOL    HW179081  14.384  13.889  14.766
25769SOL    HW279082  14.311  13.798  14.863
25770SOL     OW79083  14.603   5.252   1.544
25770SOL    HW179084  14.687   5.268   1.502
25770SOL    HW279085  14.539   5.255   1.472
25771SOL     OW79086  10.040   0.267   1.139
25771SOL    HW179087  10.018   0.279   1.232
25771SOL    HW279088  10.019   0.175   1.122
25772SOL     OW79089   0.118   8.704   4.962
25772SOL    HW179090   0.080   8.642   4.900
25772SOL    HW279091   0.195   8.739   4.916
25773SOL     OW79092   1.242   6.569   2.418
25773SOL    HW179093   1.152   6.568   2.385
25773SOL    HW279094   1.294   6.531   2.347
25774SOL     OW79095   2.659   2.267  13.296
25774SOL    HW179096   2.622   2.179  13.297
25774SOL    HW279097   2.582   2.324  13.294
25775SOL     OW79098   9.250   5.324  13.761
25775SOL    HW179099   9.212   5.269  13.693
25775SOL    HW279100   9.233   5.414  13.733
25776SOL     OW79101   7.455   4.768   8.354
25776SOL    HW179102   7.409   4.852   8.347
25776SOL    HW279103   7.477   4.745   8.264
25777SOL     OW79104   5.832   4.706   3.288
25777SOL    HW179105   5.765   4.770   3.265
25777SOL    HW279106   5.828   4.640   3.219
25778SOL     OW79107   0.795   5.291  11.880
25778SOL    HW179108   0.875   5.239  11.874
25778SOL    HW279109   0.822   5.380  11.856
25779SOL     OW79110   0.044   5.883  12.060
25779SOL    HW179111  14.852   5.945  12.058
25779SOL    HW279112   0.091   5.899  11.978
25780SOL     OW79113   9.638  12.662  11.714
25780SOL    HW179114   9.578  12.636  11.643
25780SOL    HW279115   9.581  12.698  11.782
25781SOL     OW79116   7.819   2.631   1.310
25781SOL    HW179117   7.811   2.726   1.313
25781SOL    HW279118   7.729   2.600   1.319
25782SOL     OW79119   0.612  12.204  11.482
25782SOL    HW179120   0.577  12.230  11.568
25782SOL    HW279121   0.542  12.152  11.443
25783SOL     OW79122  13.336   2.369   6.371
25783SOL    HW179123  13.356   2.427   6.298
25783SOL    HW279124  13.381   2.287   6.350
25784SOL     OW79125   5.238   2.056  14.019
25784SOL    HW179126   5.271   2.138  14.054
25784SOL    HW279127   5.147   2.052  14.049
25785SOL     OW79128   2.383   2.984   3.834
25785SOL    HW179129   2.295   3.014   3.858
25785SOL    HW279130   2.432   3.065   3.818
25786SOL     OW79131  10.856   4.415   7.536
25786SOL    HW179132  10.785   4.375   7.486
25786SOL    HW279133  10.903   4.341   7.576
25787SOL     OW79134   4.336   0.574  12.459
25787SOL    HW179135   4.372   0.641  12.516
25787SOL    HW279136   4.412   0.521  12.433
25788SOL     OW79137   4.915   3.644   1.971
25788SOL    HW179138   4.956   3.658   2.056
25788SOL    HW279139   4.831   3.691   1.978
25789SOL     OW79140   0.950   4.040   4.672
25789SOL    HW179141   1.001   3.965   4.702
25789SOL    HW279142   1.011   4.090   4.617
25790SOL     OW79143  14.013   8.991   7.420
25790SOL    HW179144  14.049   8.968   7.505
25790SOL    HW279145  14.040   8.919   7.362
25791SOL     OW79146  11.809   9.241  13.793
25791SOL    HW179147  11.777   9.302  13.727
25791SOL    HW279148  11.738   9.237  13.857
25792SOL     OW79149  13.129   6.126   9.596
25792SOL    HW179150  13.162   6.116   9.686
25792SOL    HW279151  13.047   6.174   9.607
25793SOL     OW79152  10.228   4.553   8.988
25793SOL    HW179153  10.161   4.540   9.056
25793SOL    HW279154  10.276   4.631   9.017
25794SOL     OW79155   3.958   9.537   5.044
25794SOL    HW179156   3.969   9.557   4.951
25794SOL    HW279157   3.904   9.608   5.078
25795SOL     OW79158   5.685  11.138   3.029
25795SOL    HW179159   5.668  11.147   2.936
25795SOL    HW279160   5.601  11.109   3.066
25796SOL     OW79161   3.160  10.421   0.922
25796SOL    HW179162   3.119  10.505   0.945
25796SOL    HW279163   3.130  10.404   0.833
25797SOL     OW79164   8.554  12.905   3.132
25797SOL    HW179165   8.604  12.823   3.134
25797SOL    HW279166   8.554  12.930   3.039
25798SOL     OW79167   5.093   6.476   9.166
25798SOL    HW179168   5.023   6.542   9.165
25798SOL    HW279169   5.054   6.400   9.209
25799SOL     OW79170  13.080   9.433  14.735
25799SOL    HW179171  13.169   9.462  14.714
25799SOL    HW279172  13.081   9.423  14.830
25800SOL     OW79173  11.924   9.126   2.075
25800SOL    HW179174  11.983   9.087   2.139
25800SOL    HW279175  11.894   9.052   2.022
25801SOL     OW79176   1.982   3.340   2.045
25801SOL    HW179177   1.945   3.282   1.979
25801SOL    HW279178   1.906   3.377   2.089
25802SOL     OW79179  11.391  13.660   6.494
25802SOL    HW179180  11.479  13.694   6.479
25802SOL    HW279181  11.397  13.616   6.579
25803SOL     OW79182  13.031   9.783  14.688
25803SOL    HW179183  13.044   9.876  14.707
25803SOL    HW279184  12.937   9.774  14.674
25804SOL     OW79185   4.529   3.187   9.472
25804SOL    HW179186   4.600   3.245   9.443
25804SOL    HW279187   4.481   3.239   9.536
25805SOL     OW79188   8.392   4.333   6.698
25805SOL    HW179189   8.427   4.404   6.644
25805SOL    HW279190   8.298   4.334   6.682
25806SOL     OW79191   2.866   0.910   7.022
25806SOL    HW179192   2.789   0.967   7.011
25806SOL    HW279193   2.856   0.843   6.955
25807SOL     OW79194   5.605  13.919  14.064
25807SOL    HW179195   5.689  13.926  14.109
25807SOL    HW279196   5.540  13.946  14.128
25808SOL     OW79197   0.155  13.673   7.028
25808SOL    HW179198   0.227  13.610   7.028
25808SOL    HW279199   0.108  13.655   7.110
25809SOL     OW79200  12.880   1.367   8.452
25809SOL    HW179201  12.796   1.396   8.417
25809SOL    HW279202  12.859   1.317   8.530
25810SOL     OW79203  12.164   9.694   4.800
25810SOL    HW179204  12.250   9.675   4.837
25810SOL    HW279205  12.181   9.755   4.729
25811SOL     OW79206  11.373   5.283  10.504
25811SOL    HW179207  11.322   5.225  10.561
25811SOL    HW279208  11.309   5.321  10.444
25812SOL     OW79209   9.497   0.636   7.174
25812SOL    HW179210   9.435   0.700   7.140
25812SOL    HW279211   9.463   0.552   7.144
25813SOL     OW79212   2.168   8.073  12.214
25813SOL    HW179213   2.209   8.014  12.150
25813SOL    HW279214   2.171   8.024  12.296
25814SOL     OW79215  10.816   6.185   6.890
25814SOL    HW179216  10.836   6.105   6.843
25814SOL    HW279217  10.803   6.251   6.822
25815SOL     OW79218   8.264   7.047   3.299
25815SOL    HW179219   8.324   7.111   3.336
25815SOL    HW279220   8.305   6.962   3.316
25816SOL     OW79221  10.073  14.237   4.324
25816SOL    HW179222  10.072  14.181   4.402
25816SOL    HW279223  10.079  14.326   4.358
25817SOL     OW79224   1.959   6.921   7.023
25817SOL    HW179225   1.904   6.857   7.069
25817SOL    HW279226   2.004   6.870   6.956
25818SOL     OW79227   6.176  12.045   1.474
25818SOL    HW179228   6.251  11.996   1.439
25818SOL    HW279229   6.126  12.070   1.397
25819SOL     OW79230   1.387  14.143  10.646
25819SOL    HW179231   1.477  14.123  10.621
25819SOL    HW279232   1.337  14.137  10.564
25820SOL     OW79233   3.911  12.825  11.469
25820SOL    HW179234   3.871  12.911  11.482
25820SOL    HW279235   3.973  12.817  11.540
25821SOL     OW79236   6.086   8.807   5.084
25821SOL    HW179237   6.176   8.835   5.069
25821SOL    HW279238   6.046   8.805   4.997
25822SOL     OW79239  12.722   4.067   9.545
25822SOL    HW179240  12.811   4.101   9.533
25822SOL    HW279241  12.735   3.983   9.589
25823SOL     OW79242   4.258   1.460  10.046
25823SOL    HW179243   4.217   1.477  10.130
25823SOL    HW279244   4.229   1.372  10.022
25824SOL     OW79245   6.699   9.212   8.269
25824SOL    HW179246   6.754   9.212   8.347
25824SOL    HW279247   6.754   9.173   8.201
25825SOL     OW79248  14.077  10.856   0.049
25825SOL    HW179249  14.025  10.851  14.850
25825SOL    HW279250  14.103  10.766   0.067
25826SOL     OW79251   7.100   5.248   6.248
25826SOL    HW179252   7.110   5.327   6.195
25826SOL    HW279253   7.062   5.183   6.189
25827SOL     OW79254   8.615  14.599  12.078
25827SOL    HW179255   8.635  14.685  12.115
25827SOL    HW279256   8.535  14.571  12.121
25828SOL     OW79257  11.042  10.961   0.522
25828SOL    HW179258  10.975  10.980   0.455
25828SOL    HW279259  11.077  10.876   0.497
25829SOL     OW79260  10.849  14.408   7.998
25829SOL    HW179261  10.883  14.326   8.034
25829SOL    HW279262  10.834  14.463   8.075
25830SOL     OW79263  10.738   9.003   3.703
25830SOL    HW179264  10.782   8.988   3.787
25830SOL    HW279265  10.808   9.000   3.638
25831SOL     OW79266   6.699   6.722   3.341
25831SOL    HW179267   6.734   6.642   3.301
25831SOL    HW279268   6.615   6.695   3.378
25832SOL     OW79269   3.470   8.118   2.235
25832SOL    HW179270   3.532   8.052   2.205
25832SOL    HW279271   3.390   8.069   2.256
25833SOL     OW79272   2.568  12.243  14.006
25833SOL    HW179273   2.556  12.264  13.913
25833SOL    HW279274   2.627  12.167  14.005
25834SOL     OW79275   4.168   0.043   9.578
25834SOL    HW179276   4.159   0.127   9.532
25834SOL    HW279277   4.106  14.867   9.536
25835SOL     OW79278   5.638   6.432   9.356
25835SOL    HW179279   5.624   6.358   9.297
25835SOL    HW279280   5.589   6.504   9.315
25836SOL     OW79281   4.113   5.247   3.827
25836SOL    HW179282   4.094   5.189   3.754
25836SOL    HW279283   4.075   5.331   3.802
25837SOL     OW79284   1.176  13.439   6.232
25837SOL    HW179285   1.242  13.405   6.171
25837SOL    HW279286   1.142  13.361   6.276
25838SOL     OW79287  10.426   5.413   6.062
25838SOL    HW179288  10.462   5.500   6.077
25838SOL    HW279289  10.383   5.419   5.977
25839SOL     OW79290   6.342   0.801  12.385
25839SOL    HW179291   6.281   0.863  12.425
25839SOL    HW279292   6.296   0.768  12.308
25840SOL     OW79293   0.726  11.282   7.645
25840SOL    HW179294   0.774  11.262   7.565
25840SOL    HW279295   0.723  11.378   7.647
25841SOL     OW79296   8.820   2.813  11.298
25841SOL    HW179297   8.861   2.886  11.251
25841SOL    HW279298   8.871   2.736  11.273
25842SOL     OW79299   0.289   7.178   6.949
25842SOL    HW179300   0.325   7.101   6.995
25842SOL    HW279301   0.260   7.236   7.020
25843SOL     OW79302   1.158   4.238   9.762
25843SOL    HW179303   1.201   4.281   9.688
25843SOL    HW279304   1.179   4.145   9.751
25844SOL     OW79305   4.409   5.563   7.127
25844SOL    HW179306   4.470   5.615   7.179
25844SOL    HW279307   4.411   5.477   7.168
25845SOL     OW79308   2.092  13.307  11.802
25845SOL    HW179309   2.027  13.365  11.840
25845SOL    HW279310   2.048  13.222  11.796
25846SOL     OW79311   7.031  12.095  10.862
25846SOL    HW179312   7.051  12.104  10.768
25846SOL    HW279313   6.939  12.070  10.865
25847SOL     OW79314   6.188   9.613   1.423
25847SOL    HW179315   6.210   9.640   1.334
25847SOL    HW279316   6.181   9.695   1.472
25848SOL     OW79317   8.212  10.072   8.811
25848SOL    HW179318   8.228  10.115   8.895
25848SOL    HW279319   8.300  10.058   8.775
25849SOL     OW79320   5.327   3.802   6.088
25849SOL    HW179321   5.241   3.819   6.049
25849SOL    HW279322   5.309   3.798   6.182
25850SOL     OW79323   8.936  13.132  12.602
25850SOL    HW179324   9.011  13.079  12.576
25850SOL    HW279325   8.920  13.108  12.694
25851SOL     OW79326  12.568  10.825   0.838
25851SOL    HW179327  12.475  10.817   0.858
25851SOL    HW279328  12.570  10.863   0.750
25852SOL     OW79329   3.690  14.870   5.224
25852SOL    HW179330   3.779   0.010   5.251
25852SOL    HW279331   3.646  14.843   5.305
25853SOL     OW79332   6.064  10.569   2.926
25853SOL    HW179333   6.101  10.645   2.971
25853SOL    HW279334   6.046  10.599   2.837
25854SOL     OW79335   2.801  13.338  14.276
25854SOL    HW179336   2.889  13.362  14.305
25854SOL    HW279337   2.759  13.303  14.354
25855SOL     OW79338   2.048  13.947  14.305
25855SOL    HW179339   1.984  13.935  14.375
25855SOL    HW279340   2.029  14.034  14.270
25856SOL     OW79341   8.521   0.081  13.422
25856SOL    HW179342   8.435   0.040  13.430
25856SOL    HW279343   8.509   0.150  13.358
25857SOL     OW79344   7.916  11.881   4.362
25857SOL    HW179345   7.936  11.938   4.288
25857SOL    HW279346   7.888  11.942   4.431
25858SOL     OW79347   4.170   7.175   3.052
25858SOL    HW179348   4.213   7.115   3.113
25858SOL    HW279349   4.215   7.161   2.968
25859SOL     OW79350   4.052   5.004  11.089
25859SOL    HW179351   3.965   4.972  11.113
25859SOL    HW279352   4.110   4.963  11.154
25860SOL     OW79353   0.218   5.266   7.350
25860SOL    HW179354   0.179   5.251   7.263
25860SOL    HW279355   0.153   5.231   7.411
25861SOL     OW79356  12.892   8.628  10.972
25861SOL    HW179357  12.803   8.640  10.940
25861SOL    HW279358  12.922   8.717  10.993
25862SOL     OW79359  10.157  10.160   8.146
25862SOL    HW179360  10.107  10.155   8.065
25862SOL    HW279361  10.125  10.087   8.199
25863SOL     OW79362  13.824   0.964   8.880
25863SOL    HW179363  13.858   0.882   8.844
25863SOL    HW279364  13.815   0.947   8.974
25864SOL     OW79365   5.874  11.726   3.894
25864SOL    HW179366   5.949  11.783   3.910
25864SOL    HW279367   5.842  11.753   3.807
25865SOL     OW79368   4.838  11.493  13.601
25865SOL    HW179369   4.910  11.453  13.552
25865SOL    HW279370   4.806  11.423  13.657
25866SOL     OW79371  11.562   8.241   4.786
25866SOL    HW179372  11.565   8.225   4.881
25866SOL    HW279373  11.515   8.324   4.777
25867SOL     OW79374  14.866   2.720   3.600
25867SOL    HW179375   0.080   2.720   3.600
25867SOL    HW279376  14.842   2.736   3.509
25868SOL     OW79377   8.234  10.508   4.201
25868SOL    HW179378   8.184  10.590   4.210
25868SOL    HW279379   8.195  10.450   4.266
25869SOL     OW79380   3.367   2.077   9.948
25869SOL    HW179381   3.418   2.152   9.980
25869SOL    HW279382   3.373   2.082   9.853
25870SOL     OW79383  13.778   5.831  13.456
25870SOL    HW179384  13.762   5.756  13.513
25870SOL    HW279385  13.866   5.860  13.478
25871SOL     OW79386  12.982   0.358  14.861
25871SOL    HW179387  12.907   0.347  14.803
25871SOL    HW279388  13.044   0.290  14.833
25872SOL     OW79389   8.777   9.072   2.469
25872SOL    HW179390   8.685   9.050   2.456
25872SOL    HW279391   8.809   9.004   2.529
25873SOL     OW79392   9.558   6.320   5.593
25873SOL    HW179393   9.551   6.236   5.548
25873SOL    HW279394   9.532   6.385   5.527
25874SOL     OW79395   2.972   3.675   8.808
25874SOL    HW179396   2.912   3.687   8.881
25874SOL    HW279397   2.924   3.707   8.732
25875SOL     OW79398   5.091  10.624  13.600
25875SOL    HW179399   4.996  10.621  13.611
25875SOL    HW279400   5.104  10.620  13.506
25876SOL     OW79401   4.719   2.517  12.703
25876SOL    HW179402   4.728   2.534  12.609
25876SOL    HW279403   4.627   2.536  12.722
25877SOL     OW79404   7.879   8.807   1.365
25877SOL    HW179405   7.822   8.847   1.431
25877SOL    HW279406   7.966   8.806   1.406
25878SOL     OW79407   1.932  11.601  10.704
25878SOL    HW179408   1.866  11.571  10.766
25878SOL    HW279409   1.900  11.686  10.674
25879SOL     OW79410   9.126   5.967  10.826
25879SOL    HW179411   9.127   6.058  10.857
25879SOL    HW279412   9.036   5.953  10.795
25880SOL     OW79413  11.093   7.082   4.222
25880SOL    HW179414  11.012   7.042   4.192
25880SOL    HW279415  11.161   7.044   4.166
25881SOL     OW79416  11.638   8.439   9.329
25881SOL    HW179417  11.572   8.374   9.303
25881SOL    HW279418  11.717   8.413   9.283
25882SOL     OW79419  12.999  12.910  12.278
25882SOL    HW179420  12.925  12.964  12.305
25882SOL    HW279421  13.029  12.868  12.358
25883SOL     OW79422   5.527  11.413   7.027
25883SOL    HW179423   5.574  11.343   7.072
25883SOL    HW279424   5.591  11.484   7.020
25884SOL     OW79425   0.141   7.684   9.588
25884SOL    HW179426   0.124   7.674   9.494
25884SOL    HW279427   0.152   7.594   9.620
25885SOL     OW79428   8.630  11.535   2.867
25885SOL    HW179429   8.583  11.527   2.950
25885SOL    HW279430   8.569  11.501   2.802
25886SOL     OW79431   1.593  11.156   4.612
25886SOL    HW179432   1.556  11.243   4.628
25886SOL    HW279433   1.519  11.096   4.625
25887SOL     OW79434   2.352  12.328   3.760
25887SOL    HW179435   2.286  12.393   3.736
25887SOL    HW279436   2.317  12.287   3.839
25888SOL     OW79437   6.306   8.075   6.282
25888SOL    HW179438   6.358   8.115   6.352
25888SOL    HW279439   6.361   8.083   6.204
25889SOL     OW79440   7.321  12.869  11.810
25889SOL    HW179441   7.351  12.778  11.820
25889SOL    HW279442   7.236  12.870  11.854
25890SOL     OW79443  11.484   5.887   0.045
25890SOL    HW179444  11.394   5.885   0.013
25890SOL    HW279445  11.502   5.980   0.059
25891SOL     OW79446  14.310   4.150  10.491
25891SOL    HW179447  14.252   4.177  10.420
25891SOL    HW279448  14.353   4.071  10.458
25892SOL     OW79449  11.637  13.527   6.303
25892SOL    HW179450  11.674  13.518   6.215
25892SOL    HW279451  11.621  13.621   6.313
25893SOL     OW79452  13.648   3.699   4.726
25893SOL    HW179453  13.585   3.765   4.757
25893SOL    HW279454  13.624   3.684   4.635
25894SOL     OW79455  10.789   4.849  10.172
25894SOL    HW179456  10.705   4.804  10.161
25894SOL    HW279457  10.768   4.942  10.158
25895SOL     OW79458   3.328  11.066   7.338
25895SOL    HW179459   3.356  11.126   7.269
25895SOL    HW279460   3.377  10.986   7.321
25896SOL     OW79461   2.732  12.212   9.027
25896SOL    HW179462   2.824  12.186   9.034
25896SOL    HW279463   2.698  12.204   9.117
25897SOL     OW79464   0.135   6.030   2.162
25897SOL    HW179465   0.179   6.051   2.080
25897SOL    HW279466   0.058   5.980   2.135
25898SOL     OW79467  10.978   7.535   5.622
25898SOL    HW179468  11.044   7.467   5.606
25898SOL    HW279469  10.909   7.517   5.558
25899SOL     OW79470  14.745   7.823   2.891
25899SOL    HW179471  14.741   7.911   2.856
25899SOL    HW279472  14.805   7.829   2.965
25900SOL     OW79473   2.456   4.718   4.640
25900SOL    HW179474   2.497   4.781   4.580
25900SOL    HW279475   2.514   4.717   4.716
25901SOL     OW79476  14.547   7.899   5.080
25901SOL    HW179477  14.458   7.921   5.054
25901SOL    HW279478  14.601   7.969   5.042
25902SOL     OW79479  11.080   8.142   5.550
25902SOL    HW179480  10.992   8.176   5.569
25902SOL    HW279481  11.132   8.220   5.532
25903SOL     OW79482   0.930  13.300  12.511
25903SOL    HW179483   0.901  13.344  12.431
25903SOL    HW279484   1.012  13.257  12.487
25904SOL     OW79485  11.270  13.295  10.497
25904SOL    HW179486  11.195  13.258  10.544
25904SOL    HW279487  11.231  13.363  10.441
25905SOL     OW79488   3.663   6.764   6.161
25905SOL    HW179489   3.656   6.830   6.092
25905SOL    HW279490   3.675   6.681   6.114
25906SOL     OW79491   7.914   7.355  12.903
25906SOL    HW179492   7.910   7.313  12.988
25906SOL    HW279493   7.972   7.430  12.916
25907SOL     OW79494   1.074   4.021   9.537
25907SOL    HW179495   0.985   4.052   9.554
25907SOL    HW279496   1.105   3.988   9.622
25908SOL     OW79497   5.050   7.375   7.838
25908SOL    HW179498   5.092   7.320   7.772
25908SOL    HW279499   4.958   7.350   7.837
25909SOL     OW79500  10.655   9.023   1.351
25909SOL    HW179501  10.697   9.104   1.320
25909SOL    HW279502  10.630   9.043   1.441
25910SOL     OW79503  10.135   0.355  13.900
25910SOL    HW179504  10.053   0.311  13.879
25910SOL    HW279505  10.185   0.353  13.819
25911SOL     OW79506  11.895  11.807   2.028
25911SOL    HW179507  11.881  11.727   2.080
25911SOL    HW279508  11.812  11.820   1.981
25912SOL     OW79509  13.389   0.238  14.507
25912SOL    HW179510  13.462   0.194  14.464
25912SOL    HW279511  13.417   0.249  14.598
25913SOL     OW79512   3.063   9.411   8.649
25913SOL    HW179513   3.149   9.447   8.627
25913SOL    HW279514   3.083   9.328   8.693
25914SOL     OW79515   2.183   1.837   1.693
25914SOL    HW179516   2.270   1.807   1.664
25914SOL    HW279517   2.189   1.933   1.689
25915SOL     OW79518   1.575   8.003   7.258
25915SOL    HW179519   1.565   7.920   7.211
25915SOL    HW279520   1.668   8.025   7.248
25916SOL     OW79521   3.345   3.483   5.718
25916SOL    HW179522   3.276   3.536   5.757
25916SOL    HW279523   3.299   3.421   5.662
25917SOL     OW79524  10.186   7.473   5.185
25917SOL    HW179525  10.130   7.478   5.263
25917SOL    HW279526  10.187   7.562   5.150
25918SOL     OW79527  14.654   4.490   9.121
25918SOL    HW179528  14.736   4.455   9.088
25918SOL    HW279529  14.592   4.478   9.049
25919SOL     OW79530  10.429   8.497  14.294
25919SOL    HW179531  10.503   8.556  14.310
25919SOL    HW279532  10.399   8.472  14.381
25920SOL     OW79533   0.383   1.703   0.183
25920SOL    HW179534   0.440   1.626   0.179
25920SOL    HW279535   0.385   1.729   0.275
25921SOL     OW79536  11.027   1.664   4.026
25921SOL    HW179537  11.060   1.752   4.009
25921SOL    HW279538  10.946   1.677   4.076
25922SOL     OW79539  14.351  10.319  11.051
25922SOL    HW179540  14.381  10.389  10.994
25922SOL    HW279541  14.305  10.363  11.123
25923SOL     OW79542   2.361   7.646   3.859
25923SOL    HW179543   2.450   7.681   3.851
25923SOL    HW279544   2.334   7.668   3.948
25924SOL     OW79545  12.686  14.091  11.378
25924SOL    HW179546  12.762  14.147  11.360
25924SOL    HW279547  12.682  14.088  11.474
25925SOL     OW79548   2.759   9.862   5.004
25925SOL    HW179549   2.767   9.818   5.089
25925SOL    HW279550   2.705   9.939   5.023
25926SOL     OW79551   7.601   6.809  13.202
25926SOL    HW179552   7.549   6.804  13.121
25926SOL    HW279553   7.573   6.734  13.254
25927SOL     OW79554  13.203   0.081  14.063
25927SOL    HW179555  13.172   0.136  14.135
25927SOL    HW279556  13.203  14.874  14.099
25928SOL     OW79557   3.431   0.306   3.701
25928SOL    HW179558   3.351   0.281   3.656
25928SOL    HW279559   3.466   0.378   3.649
25929SOL     OW79560   0.447   0.283   1.145
25929SOL    HW179561   0.479   0.259   1.058
25929SOL    HW279562   0.438   0.378   1.143
25930SOL     OW79563  11.275  14.177   6.175
25930SOL    HW179564  11.228  14.097   6.151
25930SOL    HW279565  11.265  14.234   6.099
25931SOL     OW79566  13.037   3.963   6.953
25931SOL    HW179567  13.045   3.911   6.874
25931SOL    HW279568  13.004   4.047   6.923
25932SOL     OW79569   8.576  12.246   3.191
25932SOL    HW179570   8.517  12.282   3.257
25932SOL    HW279571   8.564  12.151   3.197
25933SOL     OW79572  13.593   6.913  13.436
25933SOL    HW179573  13.684   6.944  13.444
25933SOL    HW279574  13.578   6.910  13.342
25934SOL     OW79575   1.558   6.644  11.063
25934SOL    HW179576   1.610   6.565  11.047
25934SOL    HW279577   1.492   6.644  10.993
25935SOL     OW79578   1.543   4.932   9.240
25935SOL    HW179579   1.626   4.955   9.198
25935SOL    HW279580   1.516   5.011   9.286
25936SOL     OW79581   8.718  14.084   7.325
25936SOL    HW179582   8.809  14.103   7.349
25936SOL    HW279583   8.669  14.163   7.350
25937SOL     OW79584  10.877   2.488  14.430
25937SOL    HW179585  10.867   2.574  14.389
25937SOL    HW279586  10.858   2.504  14.523
25938SOL     OW79587  12.733   7.075   7.284
25938SOL    HW179588  12.660   7.045   7.230
25938SOL    HW279589  12.694   7.101   7.367
25939SOL     OW79590   5.690   8.192   1.734
25939SOL    HW179591   5.646   8.277   1.733
25939SOL    HW279592   5.783   8.213   1.738
25940SOL     OW79593  12.709   9.061   9.362
25940SOL    HW179594  12.779   9.008   9.402
25940SOL    HW279595  12.657   9.090   9.437
25941SOL     OW79596   9.004  12.571   8.018
25941SOL    HW179597   9.048  12.534   8.094
25941SOL    HW279598   9.028  12.664   8.018
25942SOL     OW79599   8.009  13.825   0.868
25942SOL    HW179600   8.104  13.837   0.866
25942SOL    HW279601   7.983  13.852   0.957
25943SOL     OW79602   5.101   2.966  14.292
25943SOL    HW179603   5.089   3.036  14.228
25943SOL    HW279604   5.137   2.893  14.241
25944SOL     OW79605   3.936   6.130   9.671
25944SOL    HW179606   3.912   6.208   9.621
25944SOL    HW279607   3.927   6.058   9.608
25945SOL     OW79608   6.476   9.990   2.902
25945SOL    HW179609   6.565   9.961   2.881
25945SOL    HW279610   6.448  10.037   2.823
25946SOL     OW79611   7.408  10.893   3.734
25946SOL    HW179612   7.397  10.988   3.746
25946SOL    HW279613   7.371  10.875   3.648
25947SOL     OW79614   2.021   2.474  12.037
25947SOL    HW179615   2.056   2.385  12.042
25947SOL    HW279616   1.928   2.463  12.053
25948SOL     OW79617   5.183  13.035  10.201
25948SOL    HW179618   5.093  13.066  10.211
25948SOL    HW279619   5.175  12.950  10.158
25949SOL     OW79620   5.785   4.743   4.522
25949SOL    HW179621   5.857   4.793   4.485
25949SOL    HW279622   5.706   4.787   4.492
25950SOL     OW79623   8.938   3.982   9.284
25950SOL    HW179624   8.986   3.928   9.221
25950SOL    HW279625   8.998   3.993   9.357
25951SOL     OW79626   6.661   0.028   2.393
25951SOL    HW179627   6.634  14.820   2.412
25951SOL    HW279628   6.649   0.037   2.298
25952SOL     OW79629  14.067   3.301   1.990
25952SOL    HW179630  13.977   3.306   2.022
25952SOL    HW279631  14.115   3.260   2.061
25953SOL     OW79632   5.738   3.910  14.448
25953SOL    HW179633   5.742   3.967  14.524
25953SOL    HW279634   5.769   3.964  14.375
25954SOL     OW79635   2.496   3.672   7.992
25954SOL    HW179636   2.543   3.667   7.908
25954SOL    HW279637   2.556   3.719   8.050
25955SOL     OW79638   7.554  10.353  11.084
25955SOL    HW179639   7.516  10.419  11.026
25955SOL    HW279640   7.501  10.275  11.069
25956SOL     OW79641  12.765   1.206   4.403
25956SOL    HW179642  12.804   1.156   4.332
25956SOL    HW279643  12.740   1.141   4.469
25957SOL     OW79644   5.241  14.381   3.568
25957SOL    HW179645   5.222  14.288   3.553
25957SOL    HW279646   5.247  14.390   3.663
25958SOL     OW79647  13.966  11.257   3.574
25958SOL    HW179648  13.886  11.302   3.546
25958SOL    HW279649  13.944  11.217   3.658
25959SOL     OW79650   8.167  11.419   9.206
25959SOL    HW179651   8.076  11.412   9.236
25959SOL    HW279652   8.211  11.343   9.243
25960SOL     OW79653  14.256  11.822   8.268
25960SOL    HW179654  14.248  11.841   8.362
25960SOL    HW279655  14.350  11.818   8.252
25961SOL     OW79656  12.919  12.011   7.898
25961SOL    HW179657  12.988  12.049   7.843
25961SOL    HW279658  12.964  11.979   7.976
25962SOL     OW79659   1.513   2.749  10.635
25962SOL    HW179660   1.443   2.809  10.612
25962SOL    HW279661   1.554   2.788  10.712
25963SOL     OW79662   2.994   9.579   9.552
25963SOL    HW179663   3.058   9.632   9.504
25963SOL    HW279664   3.046   9.530   9.615
25964SOL     OW79665  12.409  12.137   1.590
25964SOL    HW179666  12.341  12.125   1.657
25964SOL    HW279667  12.424  12.048   1.556
25965SOL     OW79668   7.908   2.015   1.271
25965SOL    HW179669   7.879   1.961   1.197
25965SOL    HW279670   7.925   2.101   1.231
25966SOL     OW79671  11.141  13.624   3.779
25966SOL    HW179672  11.208  13.689   3.800
25966SOL    HW279673  11.058  13.669   3.791
25967SOL     OW79674   7.654   1.074  14.060
25967SOL    HW179675   7.578   1.130  14.077
25967SOL    HW279676   7.711   1.127  14.004
25968SOL     OW79677   0.851  14.340   5.018
25968SOL    HW179678   0.945  14.331   5.036
25968SOL    HW279679   0.847  14.385   4.934
25969SOL     OW79680   2.239  14.881   0.240
25969SOL    HW179681   2.333  14.870   0.226
25969SOL    HW279682   2.203   0.011   0.153
25970SOL     OW79683   9.606   5.985   8.806
25970SOL    HW179684   9.538   6.034   8.759
25970SOL    HW279685   9.602   6.018   8.896
25971SOL     OW79686   1.538  13.960   3.945
25971SOL    HW179687   1.596  13.990   3.875
25971SOL    HW279688   1.595  13.950   4.021
25972SOL     OW79689   9.744   8.119   0.120
25972SOL    HW179690   9.696   8.037   0.132
25972SOL    HW279691   9.824   8.093   0.074
25973SOL     OW79692  12.005   1.267   5.186
25973SOL    HW179693  11.955   1.288   5.265
25973SOL    HW279694  12.008   1.350   5.137
25974SOL     OW79695   4.484   6.716  11.480
25974SOL    HW179696   4.570   6.691  11.446
25974SOL    HW279697   4.503   6.785  11.544
25975SOL     OW79698   5.784  11.455   6.585
25975SOL    HW179699   5.720  11.400   6.629
25975SOL    HW279700   5.775  11.434   6.492
25976SOL     OW79701   8.741   5.690  14.517
25976SOL    HW179702   8.704   5.771  14.482
25976SOL    HW279703   8.834   5.709  14.528
25977SOL     OW79704   8.709   0.366   2.800
25977SOL    HW179705   8.636   0.369   2.862
25977SOL    HW279706   8.699   0.446   2.748
25978SOL     OW79707   2.832  11.850   4.868
25978SOL    HW179708   2.874  11.858   4.782
25978SOL    HW279709   2.750  11.898   4.860
25979SOL     OW79710   2.075   5.685   9.802
25979SOL    HW179711   2.022   5.620   9.757
25979SOL    HW279712   2.145   5.635   9.844
25980SOL     OW79713   8.489   6.359   9.135
25980SOL    HW179714   8.418   6.311   9.178
25980SOL    HW279715   8.563   6.350   9.194
25981SOL     OW79716   1.296   6.805   0.400
25981SOL    HW179717   1.245   6.723   0.394
25981SOL    HW279718   1.262   6.849   0.477
25982SOL     OW79719   8.846  10.485   9.506
25982SOL    HW179720   8.891  10.528   9.433
25982SOL    HW279721   8.784  10.426   9.465
25983SOL     OW79722  14.307   0.985  14.655
25983SOL    HW179723  14.271   0.966  14.569
25983SOL    HW279724  14.244   0.947  14.716
25984SOL     OW79725   3.195  13.392   5.928
25984SOL    HW179726   3.256  13.413   5.858
25984SOL    HW279727   3.240  13.418   6.008
25985SOL     OW79728   6.518  10.205   5.795
25985SOL    HW179729   6.477  10.277   5.842
25985SOL    HW279730   6.612  10.219   5.806
25986SOL     OW79731  11.519   0.367   1.004
25986SOL    HW179732  11.509   0.280   1.043
25986SOL    HW279733  11.429   0.398   0.992
25987SOL     OW79734  10.871   4.369   2.920
25987SOL    HW179735  10.915   4.436   2.868
25987SOL    HW279736  10.942   4.311   2.949
25988SOL     OW79737  14.149   3.459   3.552
25988SOL    HW179738  14.214   3.486   3.487
25988SOL    HW279739  14.069   3.445   3.501
25989SOL     OW79740   4.633  10.896   6.771
25989SOL    HW179741   4.725  10.877   6.755
25989SOL    HW279742   4.601  10.821   6.821
25990SOL     OW79743   9.484   7.294   9.842
25990SOL    HW179744   9.450   7.210   9.811
25990SOL    HW279745   9.481   7.351   9.766
25991SOL     OW79746   5.923   3.770   8.144
25991SOL    HW179747   5.849   3.752   8.202
25991SOL    HW279748   5.977   3.832   8.193
25992SOL     OW79749   6.451  11.338   7.350
25992SOL    HW179750   6.544  11.357   7.338
25992SOL    HW279751   6.436  11.258   7.299
25993SOL     OW79752  10.051  10.271  13.960
25993SOL    HW179753  10.108  10.194  13.963
25993SOL    HW279754   9.977  10.244  13.905
25994SOL     OW79755  10.911   3.404   5.838
25994SOL    HW179756  10.945   3.454   5.764
25994SOL    HW279757  10.839   3.457   5.872
25995SOL     OW79758   4.542  12.070   7.842
25995SOL    HW179759   4.626  12.109   7.818
25995SOL    HW279760   4.480  12.142   7.837
25996SOL     OW79761  11.262   8.256  13.515
25996SOL    HW179762  11.200   8.254  13.587
25996SOL    HW279763  11.334   8.310  13.547
25997SOL     OW79764  13.182   6.116  11.466
25997SOL    HW179765  13.246   6.085  11.402
25997SOL    HW279766  13.167   6.208  11.442
25998SOL     OW79767   2.623   0.657   2.175
25998SOL    HW179768   2.553   0.690   2.119
25998SOL    HW279769   2.650   0.732   2.228
25999SOL     OW79770   8.240  12.059  13.522
25999SOL    HW179771   8.154  12.076  13.559
25999SOL    HW279772   8.257  12.132  13.464
26000SOL     OW79773   6.100   6.233   9.284
26000SOL    HW179774   6.065   6.186   9.359
26000SOL    HW279775   6.195   6.229   9.295
26001SOL     OW79776   1.468   8.448  14.303
26001SOL    HW179777   1.388   8.464  14.352
26001SOL    HW279778   1.519   8.528  14.312
26002SOL     OW79779  11.471   8.316   6.778
26002SOL    HW179780  11.466   8.298   6.684
26002SOL    HW279781  11.545   8.376   6.787
26003SOL     OW79782  11.076   4.687   8.057
26003SOL    HW179783  11.077   4.593   8.070
26003SOL    HW279784  11.052   4.698   7.965
26004SOL     OW79785   2.068  11.770   7.194
26004SOL    HW179786   2.153  11.797   7.229
26004SOL    HW279787   2.034  11.709   7.259
26005SOL     OW79788   9.670   9.703   2.271
26005SOL    HW179789   9.677   9.797   2.283
26005SOL    HW279790   9.613   9.693   2.194
26006SOL     OW79791   3.261   2.483   0.585
26006SOL    HW179792   3.214   2.449   0.661
26006SOL    HW279793   3.351   2.453   0.598
26007SOL     OW79794   2.334   9.525   1.191
26007SOL    HW179795   2.272   9.462   1.154
26007SOL    HW279796   2.346   9.590   1.122
26008SOL     OW79797   6.431  11.664  11.546
26008SOL    HW179798   6.451  11.756  11.526
26008SOL    HW279799   6.412  11.625  11.461
26009SOL     OW79800  11.672  14.411   9.246
26009SOL    HW179801  11.762  14.383   9.233
26009SOL    HW279802  11.633  14.409   9.159
26010SOL     OW79803   8.359   6.925   7.007
26010SOL    HW179804   8.386   7.016   7.016
26010SOL    HW279805   8.342   6.914   6.914
26011SOL     OW79806   7.116  10.491  12.770
26011SOL    HW179807   7.035  10.479  12.720
26011SOL    HW279808   7.174  10.537  12.710
26012SOL     OW79809  10.939   4.370  13.584
26012SOL    HW179810  10.988   4.326  13.515
26012SOL    HW279811  10.959   4.463  13.571
26013SOL     OW79812   9.949   3.799   3.200
26013SOL    HW179813   9.962   3.893   3.193
26013SOL    HW279814   9.901   3.787   3.281
26014SOL     OW79815   8.981   2.395   5.432
26014SOL    HW179816   8.969   2.469   5.373
26014SOL    HW279817   9.072   2.403   5.461
26015SOL     OW79818  11.199   1.393   0.429
26015SOL    HW179819  11.189   1.410   0.336
26015SOL    HW279820  11.291   1.414   0.448
26016SOL     OW79821   1.293   1.067   9.734
26016SOL    HW179822   1.331   1.056   9.821
26016SOL    HW279823   1.279   1.161   9.725
26017SOL     OW79824  11.875   1.099   2.502
26017SOL    HW179825  11.860   1.052   2.419
26017SOL    HW279826  11.789   1.107   2.541
26018SOL     OW79827   1.212   0.733   5.234
26018SOL    HW179828   1.169   0.736   5.149
26018SOL    HW279829   1.219   0.824   5.261
26019SOL     OW79830   3.982  13.607  10.060
26019SOL    HW179831   3.890  13.633  10.063
26019SOL    HW279832   4.023  13.669   9.999
26020SOL     OW79833   7.251   0.221  14.336
26020SOL    HW179834   7.261   0.133  14.370
26020SOL    HW279835   7.274   0.278  14.409
26021SOL     OW79836   8.873   3.550   3.974
26021SOL    HW179837   8.903   3.481   4.032
26021SOL    HW279838   8.807   3.598   4.025
26022SOL     OW79839   8.787  14.093  13.990
26022SOL    HW179840   8.793  14.183  13.958
26022SOL    HW279841   8.696  14.068  13.974
26023SOL     OW79842  12.704   6.232  12.921
26023SOL    HW179843  12.723   6.220  12.828
26023SOL    HW279844  12.654   6.314  12.925
26024SOL     OW79845  14.322   6.716   1.664
26024SOL    HW179846  14.308   6.630   1.704
26024SOL    HW279847  14.286   6.707   1.576
26025SOL     OW79848   4.208   2.158  10.868
26025SOL    HW179849   4.194   2.160  10.774
26025SOL    HW279850   4.124   2.130  10.904
26026SOL     OW79851  12.248   3.426   6.876
26026SOL    HW179852  12.322   3.366   6.869
26026SOL    HW279853  12.196   3.393   6.948
26027SOL     OW79854   1.462   8.034   1.887
26027SOL    HW179855   1.504   8.120   1.889
26027SOL    HW279856   1.395   8.039   1.955
26028SOL     OW79857  13.595   1.801   1.678
26028SOL    HW179858  13.586   1.871   1.743
26028SOL    HW279859  13.519   1.745   1.691
26029SOL     OW79860   7.748   7.669  12.316
26029SOL    HW179861   7.733   7.737  12.250
26029SOL    HW279862   7.687   7.599  12.293
26030SOL     OW79863   5.140   3.667  12.305
26030SOL    HW179864   5.045   3.680  12.307
26030SOL    HW279865   5.163   3.642  12.394
26031SOL     OW79866   7.312   3.912   1.754
26031SOL    HW179867   7.241   3.889   1.813
26031SOL    HW279868   7.392   3.893   1.804
26032SOL     OW79869   6.427   7.509   5.743
26032SOL    HW179870   6.385   7.574   5.687
26032SOL    HW279871   6.519   7.512   5.716
26033SOL     OW79872   0.304   0.451   8.533
26033SOL    HW179873   0.389   0.489   8.510
26033SOL    HW279874   0.325   0.363   8.563
26034SOL     OW79875   6.099   7.482  13.223
26034SOL    HW179876   6.007   7.504  13.211
26034SOL    HW279877   6.147   7.551  13.176
26035SOL     OW79878   5.180   0.094  14.720
26035SOL    HW179879   5.156   0.026  14.656
26035SOL    HW279880   5.097   0.116  14.763
26036SOL     OW79881   4.241   0.640   8.957
26036SOL    HW179882   4.267   0.549   8.970
26036SOL    HW279883   4.168   0.635   8.895
26037SOL     OW79884  10.845  14.249   0.185
26037SOL    HW179885  10.754  14.227   0.207
26037SOL    HW279886  10.840  14.278   0.093
26038SOL     OW79887   3.903   3.027   6.946
26038SOL    HW179888   3.924   3.119   6.959
26038SOL    HW279889   3.855   3.001   7.025
26039SOL     OW79890   3.461   5.102   4.925
26039SOL    HW179891   3.472   5.196   4.909
26039SOL    HW279892   3.523   5.082   4.996
26040SOL     OW79893   2.163   9.939   5.345
26040SOL    HW179894   2.164  10.001   5.272
26040SOL    HW279895   2.200   9.858   5.307
26041SOL     OW79896   6.501   5.851  10.487
26041SOL    HW179897   6.499   5.865  10.581
26041SOL    HW279898   6.466   5.932  10.449
26042SOL     OW79899   6.678  12.557  12.977
26042SOL    HW179900   6.673  12.645  13.013
26042SOL    HW279901   6.647  12.500  13.048
26043SOL     OW79902   2.919   1.268  13.064
26043SOL    HW179903   2.856   1.258  12.992
26043SOL    HW279904   2.864   1.289  13.140
26044SOL     OW79905   1.553  10.218   1.841
26044SOL    HW179906   1.646  10.241   1.843
26044SOL    HW279907   1.552  10.125   1.816
26045SOL     OW79908   1.636  12.479   1.104
26045SOL    HW179909   1.561  12.460   1.048
26045SOL    HW279910   1.705  12.508   1.044
26046SOL     OW79911   0.486   7.646  10.157
26046SOL    HW179912   0.435   7.566  10.169
26046SOL    HW279913   0.554   7.622  10.093
26047SOL     OW79914  10.598   9.254   3.694
26047SOL    HW179915  10.507   9.224   3.704
26047SOL    HW279916  10.650   9.174   3.692
26048SOL     OW79917   1.866   4.918  14.031
26048SOL    HW179918   1.955   4.884  14.039
26048SOL    HW279919   1.877   5.013  14.035
26049SOL     OW79920   3.755  12.223   0.208
26049SOL    HW179921   3.782  12.306   0.169
26049SOL    HW279922   3.738  12.165   0.134
26050SOL     OW79923   2.792   1.367  10.416
26050SOL    HW179924   2.735   1.427  10.465
26050SOL    HW279925   2.782   1.394  10.325
26051SOL     OW79926  10.754   8.308   3.289
26051SOL    HW179927  10.687   8.371   3.314
26051SOL    HW279928  10.744   8.299   3.194
26052SOL     OW79929  10.337  11.453   6.809
26052SOL    HW179930  10.372  11.508   6.878
26052SOL    HW279931  10.371  11.365   6.829
26053SOL     OW79932   2.697   3.295  14.189
26053SOL    HW179933   2.695   3.374  14.134
26053SOL    HW279934   2.607   3.263  14.187
26054SOL     OW79935   9.888   6.272   6.464
26054SOL    HW179936   9.807   6.226   6.445
26054SOL    HW279937   9.894   6.271   6.559
26055SOL     OW79938  14.703   0.055   9.347
26055SOL    HW179939  14.625   0.089   9.303
26055SOL    HW279940  14.739   0.130   9.393
26056SOL     OW79941  10.676   4.688   3.786
26056SOL    HW179942  10.645   4.688   3.876
26056SOL    HW279943  10.720   4.772   3.776
26057SOL     OW79944   7.970   8.410   8.426
26057SOL    HW179945   7.919   8.461   8.363
26057SOL    HW279946   8.028   8.474   8.468
26058SOL     OW79947   4.758   1.380   0.411
26058SOL    HW179948   4.705   1.311   0.451
26058SOL    HW279949   4.843   1.374   0.455
26059SOL     OW79950  13.086   3.260  11.671
26059SOL    HW179951  13.072   3.347  11.707
26059SOL    HW279952  13.166   3.229  11.713
26060SOL     OW79953   3.150  14.626  10.355
26060SOL    HW179954   3.080  14.657  10.413
26060SOL    HW279955   3.133  14.670  10.272
26061SOL     OW79956  10.907  12.313   6.029
26061SOL    HW179957  10.951  12.287   6.109
26061SOL    HW279958  10.939  12.252   5.962
26062SOL     OW79959   3.773   4.930   9.636
26062SOL    HW179960   3.724   4.948   9.556
26062SOL    HW279961   3.834   4.861   9.612
26063SOL     OW79962  10.794   9.492   8.701
26063SOL    HW179963  10.777   9.447   8.619
26063SOL    HW279964  10.719   9.471   8.757
26064SOL     OW79965   7.599  11.406  12.127
26064SOL    HW179966   7.574  11.497  12.108
26064SOL    HW279967   7.632  11.408  12.217
26065SOL     OW79968   4.796   7.328   2.883
26065SOL    HW179969   4.747   7.247   2.866
26065SOL    HW279970   4.739   7.398   2.850
26066SOL     OW79971   6.169  14.336   8.278
26066SOL    HW179972   6.149  14.389   8.355
26066SOL    HW279973   6.244  14.380   8.238
26067SOL     OW79974   8.801   3.243   5.152
26067SOL    HW179975   8.836   3.323   5.114
26067SOL    HW279976   8.864   3.217   5.219
26068SOL     OW79977   1.968   5.208   1.907
26068SOL    HW179978   2.050   5.169   1.876
26068SOL    HW279979   1.993   5.297   1.934
26069SOL     OW79980   3.355   0.277   6.713
26069SOL    HW179981   3.377   0.208   6.775
26069SOL    HW279982   3.374   0.358   6.761
26070SOL     OW79983  11.745   1.619  14.228
26070SOL    HW179984  11.823   1.565  14.218
26070SOL    HW279985  11.714   1.599  14.316
26071SOL     OW79986   5.125   7.313  14.223
26071SOL    HW179987   5.167   7.239  14.268
26071SOL    HW279988   5.083   7.363  14.293
26072SOL     OW79989  13.231   0.921  11.907
26072SOL    HW179990  13.284   1.000  11.895
26072SOL    HW279991  13.292   0.857  11.944
26073SOL     OW79992   2.917   5.233   8.393
26073SOL    HW179993   2.925   5.306   8.331
26073SOL    HW279994   2.969   5.163   8.354
26074SOL     OW79995   2.062   0.578   3.141
26074SOL    HW179996   1.998   0.572   3.212
26074SOL    HW279997   2.038   0.656   3.093
26075SOL     OW79998   9.439   3.853   3.014
26075SOL    HW179999   9.447   3.933   3.067
26075SOL    HW280000   9.392   3.881   2.936
26076SOL     OW80001  12.470  10.397   3.420
26076SOL    HW180002  12.455  10.328   3.356
26076SOL    HW280003  12.535  10.455   3.380
26077SOL     OW80004  11.319  10.375  11.358
26077SOL    HW180005  11.355  10.452  11.402
26077SOL    HW280006  11.247  10.409  11.304
26078SOL     OW80007   5.629   8.847   7.392
26078SOL    HW180008   5.596   8.809   7.310
26078SOL    HW280009   5.567   8.916   7.413
26079SOL     OW80010   5.809   8.568   6.570
26079SOL    HW180011   5.894   8.606   6.551
26079SOL    HW280012   5.798   8.579   6.665
26080SOL     OW80013   1.898   3.291   7.316
26080SOL    HW180014   1.918   3.301   7.410
26080SOL    HW280015   1.918   3.199   7.298
26081SOL     OW80016   3.964   3.245  12.963
26081SOL    HW180017   3.922   3.248  12.877
26081SOL    HW280018   3.968   3.336  12.991
26082SOL     OW80019   8.011   9.789   3.452
26082SOL    HW180020   7.950   9.860   3.435
26082SOL    HW280021   8.094   9.818   3.414
26083SOL     OW80022  13.404  10.038   9.916
26083SOL    HW180023  13.327  10.061   9.968
26083SOL    HW280024  13.414  10.112   9.855
26084SOL     OW80025   0.717   9.488   6.875
26084SOL    HW180026   0.785   9.521   6.935
26084SOL    HW280027   0.717   9.394   6.889
26085SOL     OW80028  10.779  10.871  11.574
26085SOL    HW180029  10.764  10.953  11.527
26085SOL    HW280030  10.842  10.893  11.642
26086SOL     OW80031  14.749   2.366  10.249
26086SOL    HW180032  14.712   2.355  10.336
26086SOL    HW280033  14.843   2.379  10.264
26087SOL     OW80034   7.056  11.949   9.215
26087SOL    HW180035   7.121  11.994   9.161
26087SOL    HW280036   6.975  12.000   9.203
26088SOL     OW80037  10.742  13.992  11.895
26088SOL    HW180038  10.653  13.964  11.917
26088SOL    HW280039  10.766  14.052  11.965
26089SOL     OW80040   5.569   7.243  10.225
26089SOL    HW180041   5.517   7.214  10.300
26089SOL    HW280042   5.644   7.183  10.223
26090SOL     OW80043  10.185  10.930   8.781
26090SOL    HW180044  10.134  10.852   8.759
26090SOL    HW280045  10.272  10.896   8.801
26091SOL     OW80046   8.187  13.556   9.568
26091SOL    HW180047   8.094  13.572   9.585
26091SOL    HW280048   8.197  13.572   9.475
26092SOL     OW80049   7.870   9.864   4.378
26092SOL    HW180050   7.964   9.874   4.361
26092SOL    HW280051   7.830   9.939   4.335
26093SOL     OW80052   8.286   5.881   9.726
26093SOL    HW180053   8.295   5.963   9.678
26093SOL    HW280054   8.362   5.829   9.699
26094SOL     OW80055   0.512   4.545   9.411
26094SOL    HW180056   0.555   4.590   9.338
26094SOL    HW280057   0.529   4.601   9.487
26095SOL     OW80058  10.083   9.945  10.844
26095SOL    HW180059  10.129   9.952  10.927
26095SOL    HW280060  10.152   9.937  10.778
26096SOL     OW80061   5.505   5.823   8.260
26096SOL    HW180062   5.463   5.759   8.318
26096SOL    HW280063   5.435   5.885   8.239
26097SOL     OW80064  13.811   3.511  10.032
26097SOL    HW180065  13.829   3.434   9.979
26097SOL    HW280066  13.758   3.479  10.105
26098SOL     OW80067   9.896  10.245   5.870
26098SOL    HW180068   9.976  10.200   5.897
26098SOL    HW280069   9.839  10.174   5.840
26099SOL     OW80070  13.493   4.274   7.149
26099SOL    HW180071  13.458   4.359   7.123
26099SOL    HW280072  13.586   4.279   7.129
26100SOL     OW80073   0.109   4.997   6.315
26100SOL    HW180074   0.054   4.973   6.390
26100SOL    HW280075   0.102   5.092   6.309
26101SOL     OW80076   1.834   4.197  10.800
26101SOL    HW180077   1.791   4.138  10.862
26101SOL    HW280078   1.919   4.216  10.840
26102SOL     OW80079  12.761   7.006  11.785
26102SOL    HW180080  12.717   6.934  11.830
26102SOL    HW280081  12.749   6.988  11.692
26103SOL     OW80082   3.581   1.104   6.295
26103SOL    HW180083   3.608   1.023   6.251
26103SOL    HW280084   3.626   1.101   6.380
26104SOL     OW80085   6.799   7.767   8.856
26104SOL    HW180086   6.880   7.784   8.905
26104SOL    HW280087   6.820   7.791   8.766
26105SOL     OW80088   2.797  14.240  10.189
26105SOL    HW180089   2.846  14.209  10.265
26105SOL    HW280090   2.845  14.317  10.159
26106SOL     OW80091   9.192   9.387   4.911
26106SOL    HW180092   9.211   9.322   4.979
26106SOL    HW280093   9.217   9.345   4.829
26107SOL     OW80094   7.109  13.988  10.681
26107SOL    HW180095   7.114  13.961  10.589
26107SOL    HW280096   7.166  14.066  10.685
26108SOL     OW80097   2.930   7.669   3.642
26108SOL    HW180098   2.945   7.732   3.713
26108SOL    HW280099   2.966   7.712   3.565
26109SOL     OW80100  14.661   5.524  12.189
26109SOL    HW180101  14.690   5.433  12.196
26109SOL    HW280102  14.734   5.568  12.145
26110SOL     OW80103   8.108  13.869  10.838
26110SOL    HW180104   8.058  13.951  10.831
26110SOL    HW280105   8.161  13.880  10.917
26111SOL     OW80106   2.083   5.469  12.250
26111SOL    HW180107   1.991   5.449  12.232
26111SOL    HW280108   2.128   5.386  12.236
26112SOL     OW80109   1.823   1.896   1.147
26112SOL    HW180110   1.876   1.975   1.158
26112SOL    HW280111   1.850   1.838   1.218
26113SOL     OW80112   4.837   4.931  14.728
26113SOL    HW180113   4.861   4.876  14.653
26113SOL    HW280114   4.790   4.872  14.787
26114SOL     OW80115  13.026   0.699  13.779
26114SOL    HW180116  13.109   0.661  13.808
26114SOL    HW280117  12.965   0.625  13.777
26115SOL     OW80118   6.561   6.225  11.359
26115SOL    HW180119   6.478   6.215  11.314
26115SOL    HW280120   6.607   6.293  11.310
26116SOL     OW80121  12.595  10.468   0.688
26116SOL    HW180122  12.592  10.561   0.710
26116SOL    HW280123  12.589  10.424   0.773
26117SOL     OW80124   8.606   0.795   9.645
26117SOL    HW180125   8.584   0.708   9.610
26117SOL    HW280126   8.546   0.807   9.719
26118SOL     OW80127   7.237   0.099   2.783
26118SOL    HW180128   7.214   0.014   2.745
26118SOL    HW280129   7.236   0.084   2.877
26119SOL     OW80130   1.769   5.999   9.709
26119SOL    HW180131   1.677   6.005   9.680
26119SOL    HW280132   1.808   6.082   9.683
26120SOL     OW80133   9.159   7.799  13.594
26120SOL    HW180134   9.139   7.718  13.641
26120SOL    HW280135   9.113   7.867  13.644
26121SOL     OW80136   7.285   9.448   4.959
26121SOL    HW180137   7.208   9.413   4.914
26121SOL    HW280138   7.337   9.371   4.981
26122SOL     OW80139   5.771   5.912  10.570
26122SOL    HW180140   5.743   6.002  10.551
26122SOL    HW280141   5.848   5.922  10.627
26123SOL     OW80142  11.293   7.958   3.053
26123SOL    HW180143  11.365   7.896   3.065
26123SOL    HW280144  11.302   7.988   2.963
26124SOL     OW80145  14.048   5.536   6.338
26124SOL    HW180146  14.135   5.565   6.312
26124SOL    HW280147  14.063   5.463   6.398
26125SOL     OW80148   1.634  14.603  12.726
26125SOL    HW180149   1.547  14.572  12.751
26125SOL    HW280150   1.623  14.698  12.715
26126SOL     OW80151  14.698   7.266   7.729
26126SOL    HW180152  14.610   7.302   7.721
26126SOL    HW280153  14.685   7.179   7.768
26127SOL     OW80154   0.134  13.687   6.208
26127SOL    HW180155   0.197  13.696   6.280
26127SOL    HW280156   0.158  13.757   6.147
26128SOL     OW80157   1.967   5.609   8.410
26128SOL    HW180158   1.912   5.621   8.488
26128SOL    HW280159   1.905   5.585   8.341
26129SOL     OW80160   3.153   0.806   8.823
26129SOL    HW180161   3.178   0.716   8.842
26129SOL    HW280162   3.202   0.859   8.886
26130SOL     OW80163   2.045   8.069   8.237
26130SOL    HW180164   2.070   8.022   8.157
26130SOL    HW280165   2.076   8.158   8.223
26131SOL     OW80166   1.782   6.215  13.159
26131SOL    HW180167   1.861   6.268  13.174
26131SOL    HW280168   1.801   6.132  13.202
26132SOL     OW80169   6.703   2.052   6.749
26132SOL    HW180170   6.798   2.062   6.753
26132SOL    HW280171   6.688   1.999   6.671
26133SOL     OW80172  11.637  14.848   8.135
26133SOL    HW180173  11.635  14.773   8.195
26133SOL    HW280174  11.730  14.861   8.116
26134SOL     OW80175   6.062   4.062   9.510
26134SOL    HW180176   6.124   3.988   9.511
26134SOL    HW280177   6.105   4.129   9.563
26135SOL     OW80178  11.771   7.919   4.472
26135SOL    HW180179  11.683   7.943   4.503
26135SOL    HW280180  11.755   7.863   4.396
26136SOL     OW80181   1.476   3.073   6.952
26136SOL    HW180182   1.492   2.993   6.903
26136SOL    HW280183   1.528   3.063   7.032
26137SOL     OW80184   0.602   9.306   3.178
26137SOL    HW180185   0.576   9.398   3.175
26137SOL    HW280186   0.686   9.303   3.131
26138SOL     OW80187  14.812  10.507  13.589
26138SOL    HW180188  14.871  10.457  13.532
26138SOL    HW280189  14.729  10.461  13.583
26139SOL     OW80190   8.381   5.427  10.387
26139SOL    HW180191   8.461   5.424  10.439
26139SOL    HW280192   8.329   5.497  10.427
26140SOL     OW80193  13.033  11.326   0.676
26140SOL    HW180194  13.098  11.266   0.712
26140SOL    HW280195  12.957  11.271   0.658
26141SOL     OW80196  11.402   9.043   3.671
26141SOL    HW180197  11.361   9.077   3.591
26141SOL    HW280198  11.401   9.117   3.732
26142SOL     OW80199   1.258   5.958   5.374
26142SOL    HW180200   1.279   5.869   5.402
26142SOL    HW280201   1.341   6.005   5.382
26143SOL     OW80202   2.158   2.724   3.596
26143SOL    HW180203   2.117   2.742   3.681
26143SOL    HW280204   2.222   2.655   3.614
26144SOL     OW80205  11.761   5.855   0.997
26144SOL    HW180206  11.674   5.871   1.034
26144SOL    HW280207  11.803   5.794   1.058
26145SOL     OW80208   4.576   9.060   6.971
26145SOL    HW180209   4.571   9.054   6.876
26145SOL    HW280210   4.669   9.058   6.991
26146SOL     OW80211   8.235   7.466   3.945
26146SOL    HW180212   8.299   7.534   3.965
26146SOL    HW280213   8.218   7.423   4.029
26147SOL     OW80214   5.716  13.961   9.132
26147SOL    HW180215   5.741  13.991   9.219
26147SOL    HW280216   5.646  13.897   9.148
26148SOL     OW80217   3.724   2.273   0.193
26148SOL    HW180218   3.658   2.229   0.246
26148SOL    HW280219   3.744   2.211   0.123
26149SOL     OW80220   5.418   9.468   2.794
26149SOL    HW180221   5.325   9.487   2.805
26149SOL    HW280222   5.459   9.495   2.877
26150SOL     OW80223   3.060   8.053   8.644
26150SOL    HW180224   3.097   7.982   8.697
26150SOL    HW280225   3.112   8.054   8.564
26151SOL     OW80226   3.779   4.608   2.345
26151SOL    HW180227   3.712   4.666   2.381
26151SOL    HW280228   3.859   4.632   2.393
26152SOL     OW80229   9.346  13.613  10.131
26152SOL    HW180230   9.371  13.683  10.191
26152SOL    HW280231   9.421  13.605  10.072
26153SOL     OW80232   5.640  14.227   1.293
26153SOL    HW180233   5.706  14.279   1.338
26153SOL    HW280234   5.667  14.136   1.305
26154SOL     OW80235   0.934   1.869   1.643
26154SOL    HW180236   0.861   1.838   1.696
26154SOL    HW280237   0.894   1.895   1.559
26155SOL     OW80238   7.353  11.650   4.634
26155SOL    HW180239   7.415  11.691   4.694
26155SOL    HW280240   7.396  11.568   4.607
26156SOL     OW80241  10.951   0.116   1.193
26156SOL    HW180242  10.933   0.206   1.166
26156SOL    HW280243  10.997   0.125   1.276
26157SOL     OW80244   6.286   3.793   6.776
26157SOL    HW180245   6.348   3.748   6.833
26157SOL    HW280246   6.204   3.794   6.826
26158SOL     OW80247  13.619   3.108   3.534
26158SOL    HW180248  13.616   3.084   3.442
26158SOL    HW280249  13.564   3.043   3.578
26159SOL     OW80250   3.334  10.510   6.273
26159SOL    HW180251   3.344  10.452   6.198
26159SOL    HW280252   3.414  10.495   6.324
26160SOL     OW80253   2.203   3.576  11.768
26160SOL    HW180254   2.272   3.525  11.809
26160SOL    HW280255   2.135   3.584  11.835
26161SOL     OW80256  14.407  11.588   8.490
26161SOL    HW180257  14.437  11.503   8.522
26161SOL    HW280258  14.368  11.630   8.566
26162SOL     OW80259   5.587   2.392  11.207
26162SOL    HW180260   5.639   2.325  11.161
26162SOL    HW280261   5.582   2.465  11.145
26163SOL     OW80262  14.495   2.915   4.844
26163SOL    HW180263  14.437   2.902   4.769
26163SOL    HW280264  14.583   2.919   4.806
26164SOL     OW80265  10.407   0.377   7.912
26164SOL    HW180266  10.376   0.296   7.870
26164SOL    HW280267  10.349   0.445   7.877
26165SOL     OW80268   9.759   4.431  14.515
26165SOL    HW180269   9.785   4.404  14.427
26165SOL    HW280270   9.668   4.400  14.523
26166SOL     OW80271  11.642   3.788  11.026
26166SOL    HW180272  11.697   3.709  11.030
26166SOL    HW280273  11.702   3.858  11.000
26167SOL     OW80274  12.488   5.682  11.539
26167SOL    HW180275  12.413   5.669  11.481
26167SOL    HW280276  12.515   5.594  11.564
26168SOL     OW80277   4.902   5.905   2.992
26168SOL    HW180278   4.986   5.950   2.980
26168SOL    HW280279   4.865   5.900   2.904
26169SOL     OW80280   5.667  11.602   8.066
26169SOL    HW180281   5.613  11.524   8.075
26169SOL    HW280282   5.757  11.569   8.071
26170SOL     OW80283   3.455   3.979   6.597
26170SOL    HW180284   3.472   4.064   6.556
26170SOL    HW280285   3.542   3.938   6.602
26171SOL     OW80286  12.841  13.983  13.197
26171SOL    HW180287  12.903  13.948  13.133
26171SOL    HW280288  12.755  13.967  13.158
26172SOL     OW80289  12.901   0.306   6.797
26172SOL    HW180290  12.992   0.321   6.773
26172SOL    HW280291  12.850   0.351   6.730
26173SOL     OW80292   4.536  12.818  10.315
26173SOL    HW180293   4.516  12.838  10.224
26173SOL    HW280294   4.484  12.882  10.365
26174SOL     OW80295  11.859   6.463   7.710
26174SOL    HW180296  11.813   6.474   7.626
26174SOL    HW280297  11.943   6.508   7.697
26175SOL     OW80298   5.669   8.547  10.412
26175SOL    HW180299   5.622   8.510  10.487
26175SOL    HW280300   5.719   8.620  10.449
26176SOL     OW80301   2.687   6.753  13.173
26176SOL    HW180302   2.701   6.667  13.133
26176SOL    HW280303   2.694   6.814  13.100
26177SOL     OW80304   0.781   3.027   2.896
26177SOL    HW180305   0.690   3.049   2.876
26177SOL    HW280306   0.800   3.075   2.976
26178SOL     OW80307   8.882  12.318   0.875
26178SOL    HW180308   8.836  12.245   0.917
26178SOL    HW280309   8.815  12.386   0.867
26179SOL     OW80310  10.768   7.207   2.072
26179SOL    HW180311  10.719   7.128   2.093
26179SOL    HW280312  10.763   7.215   1.977
26180SOL     OW80313   0.113   8.357  12.091
26180SOL    HW180314   0.190   8.308  12.120
26180SOL    HW280315   0.108   8.340  11.997
26181SOL     OW80316   8.318   6.054   5.368
26181SOL    HW180317   8.285   6.133   5.410
26181SOL    HW280318   8.278   6.054   5.281
26182SOL     OW80319   1.005  12.017   3.543
26182SOL    HW180320   0.957  12.094   3.573
26182SOL    HW280321   1.076  12.007   3.607
26183SOL     OW80322   1.019   7.170   9.730
26183SOL    HW180323   1.085   7.232   9.762
26183SOL    HW280324   0.952   7.226   9.690
26184SOL     OW80325  12.118  14.577   8.449
26184SOL    HW180326  12.104  14.575   8.544
26184SOL    HW280327  12.034  14.605   8.413
26185SOL     OW80328  12.499  12.105   9.618
26185SOL    HW180329  12.575  12.063   9.660
26185SOL    HW280330  12.487  12.186   9.666
26186SOL     OW80331   3.433   1.133  14.376
26186SOL    HW180332   3.504   1.085  14.419
26186SOL    HW280333   3.385   1.067  14.326
26187SOL     OW80334   5.493  14.866   2.875
26187SOL    HW180335   5.561   0.027   2.927
26187SOL    HW280336   5.540  14.824   2.803
26188SOL     OW80337  10.293  13.110   1.052
26188SOL    HW180338  10.241  13.101   1.131
26188SOL    HW280339  10.383  13.098   1.080
26189SOL     OW80340  11.086   2.490   3.868
26189SOL    HW180341  11.028   2.491   3.792
26189SOL    HW280342  11.074   2.576   3.909
26190SOL     OW80343   1.823   4.164   8.617
26190SOL    HW180344   1.874   4.237   8.583
26190SOL    HW280345   1.736   4.175   8.577
26191SOL     OW80346  10.221   7.172  11.949
26191SOL    HW180347  10.286   7.177  12.018
26191SOL    HW280348  10.272   7.174  11.868
26192SOL     OW80349  12.618   2.929   6.476
26192SOL    HW180350  12.661   3.014   6.485
26192SOL    HW280351  12.663   2.872   6.539
26193SOL     OW80352   3.066  12.580  12.852
26193SOL    HW180353   3.125  12.630  12.908
26193SOL    HW280354   3.116  12.502  12.829
26194SOL     OW80355  12.865   5.818   4.226
26194SOL    HW180356  12.833   5.728   4.221
26194SOL    HW280357  12.931   5.816   4.296
26195SOL     OW80358   9.064  14.747   7.428
26195SOL    HW180359   9.004  14.762   7.501
26195SOL    HW280360   9.122  14.678   7.459
26196SOL     OW80361  13.387  13.527   6.310
26196SOL    HW180362  13.348  13.594   6.366
26196SOL    HW280363  13.368  13.444   6.354
26197SOL     OW80364  10.679   3.830  13.050
26197SOL    HW180365  10.716   3.897  12.993
26197SOL    HW280366  10.646   3.879  13.126
26198SOL     OW80367  12.504   2.928   0.299
26198SOL    HW180368  12.491   2.834   0.304
26198SOL    HW280369  12.589   2.939   0.255
26199SOL     OW80370   6.866   4.551   7.199
26199SOL    HW180371   6.782   4.597   7.190
26199SOL    HW280372   6.884   4.552   7.293
26200SOL     OW80373  13.638   4.652   4.257
26200SOL    HW180374  13.605   4.742   4.264
26200SOL    HW280375  13.694   4.653   4.179
26201SOL     OW80376  12.368   9.112   3.337
26201SOL    HW180377  12.419   9.032   3.324
26201SOL    HW280378  12.296   9.086   3.394
26202SOL     OW80379   2.816   8.422   9.122
26202SOL    HW180380   2.895   8.445   9.171
26202SOL    HW280381   2.841   8.344   9.072
26203SOL     OW80382   5.255  10.891   4.348
26203SOL    HW180383   5.287  10.974   4.383
26203SOL    HW280384   5.176  10.873   4.400
26204SOL     OW80385   1.642   2.988   7.690
26204SOL    HW180386   1.677   2.901   7.670
26204SOL    HW280387   1.706   3.027   7.749
26205SOL     OW80388  10.586   5.137   6.715
26205SOL    HW180389  10.615   5.120   6.805
26205SOL    HW280390  10.645   5.085   6.661
26206SOL     OW80391   1.783   3.660  10.398
26206SOL    HW180392   1.728   3.671  10.476
26206SOL    HW280393   1.800   3.750  10.369
26207SOL     OW80394   2.043  12.660  11.061
26207SOL    HW180395   2.024  12.678  10.969
26207SOL    HW280396   1.958  12.636  11.098
26208SOL     OW80397  13.892  10.018   6.406
26208SOL    HW180398  13.948   9.941   6.405
26208SOL    HW280399  13.953  10.092   6.400
26209SOL     OW80400   0.374   1.210   7.415
26209SOL    HW180401   0.399   1.296   7.381
26209SOL    HW280402   0.279   1.207   7.404
26210SOL     OW80403   7.365   4.975  14.588
26210SOL    HW180404   7.393   4.942  14.673
26210SOL    HW280405   7.276   5.006  14.602
26211SOL     OW80406  11.703   8.663  10.499
26211SOL    HW180407  11.740   8.684  10.412
26211SOL    HW280408  11.622   8.617  10.480
26212SOL     OW80409   7.718   0.596   7.767
26212SOL    HW180410   7.761   0.678   7.791
26212SOL    HW280411   7.691   0.557   7.850
26213SOL     OW80412   1.849  10.012  11.115
26213SOL    HW180413   1.872   9.919  11.122
26213SOL    HW280414   1.899  10.055  11.184
26214SOL     OW80415   0.108   0.222  10.913
26214SOL    HW180416   0.172   0.287  10.942
26214SOL    HW280417   0.048   0.272  10.857
26215SOL     OW80418   0.647   9.327   3.451
26215SOL    HW180419   0.610   9.314   3.364
26215SOL    HW280420   0.678   9.418   3.451
26216SOL     OW80421   3.460   2.794   1.572
26216SOL    HW180422   3.410   2.715   1.555
26216SOL    HW280423   3.394   2.862   1.588
26217SOL     OW80424   8.400   7.990   1.955
26217SOL    HW180425   8.343   8.031   1.891
26217SOL    HW280426   8.342   7.964   2.027
26218SOL     OW80427   2.290   7.436   6.664
26218SOL    HW180428   2.379   7.455   6.635
26218SOL    HW280429   2.276   7.494   6.739
26219SOL     OW80430  12.803   7.205  11.226
26219SOL    HW180431  12.876   7.197  11.165
26219SOL    HW280432  12.786   7.299  11.232
26220SOL     OW80433   5.427   4.617   3.513
26220SOL    HW180434   5.423   4.556   3.586
26220SOL    HW280435   5.519   4.643   3.509
26221SOL     OW80436   7.602   6.918   6.364
26221SOL    HW180437   7.657   6.843   6.343
26221SOL    HW280438   7.545   6.888   6.435
26222SOL     OW80439   9.962   0.829   7.026
26222SOL    HW180440   9.977   0.851   7.118
26222SOL    HW280441   9.871   0.799   7.023
26223SOL     OW80442   4.243  12.923  11.687
26223SOL    HW180443   4.335  12.903  11.703
26223SOL    HW280444   4.197  12.840  11.702
26224SOL     OW80445   0.416  12.359   0.855
26224SOL    HW180446   0.444  12.313   0.775
26224SOL    HW280447   0.328  12.390   0.835
26225SOL     OW80448   3.698   9.561  13.790
26225SOL    HW180449   3.752   9.492  13.752
26225SOL    HW280450   3.717   9.557  13.884
26226SOL     OW80451   0.273   6.088   8.991
26226SOL    HW180452   0.289   5.996   9.011
26226SOL    HW280453   0.361   6.125   8.977
26227SOL     OW80454   5.009   5.084   0.680
26227SOL    HW180455   4.957   5.019   0.728
26227SOL    HW280456   4.968   5.087   0.593
26228SOL     OW80457   6.666  10.912   2.350
26228SOL    HW180458   6.615  10.989   2.375
26228SOL    HW280459   6.723  10.943   2.279
26229SOL     OW80460   9.684  11.456   7.510
26229SOL    HW180461   9.607  11.470   7.566
26229SOL    HW280462   9.652  11.475   7.422
26230SOL     OW80463  10.797   9.240   2.205
26230SOL    HW180464  10.825   9.226   2.296
26230SOL    HW280465  10.775   9.334   2.202
26231SOL     OW80466   7.828  14.777   5.489
26231SOL    HW180467   7.835  14.863   5.530
26231SOL    HW280468   7.815  14.796   5.396
26232SOL     OW80469  13.355   1.923  12.151
26232SOL    HW180470  13.385   1.851  12.206
26232SOL    HW280471  13.320   1.881  12.073
26233SOL     OW80472  10.362   7.042  13.749
26233SOL    HW180473  10.417   6.971  13.715
26233SOL    HW280474  10.424   7.102  13.791
26234SOL     OW80475  11.486   2.540   3.501
26234SOL    HW180476  11.449   2.482   3.434
26234SOL    HW280477  11.441   2.515   3.582
26235SOL     OW80478   1.101   7.087  12.872
26235SOL    HW180479   1.041   7.019  12.842
26235SOL    HW280480   1.186   7.043  12.881
26236SOL     OW80481  12.925   9.672   0.839
26236SOL    HW180482  12.853   9.656   0.900
26236SOL    HW280483  12.999   9.625   0.878
26237SOL     OW80484   3.197   5.655  10.481
26237SOL    HW180485   3.286   5.624  10.500
26237SOL    HW280486   3.169   5.698  10.562
26238SOL     OW80487   3.804   9.298   3.903
26238SOL    HW180488   3.716   9.312   3.867
26238SOL    HW280489   3.794   9.318   3.996
26239SOL     OW80490   7.945   0.904  11.763
26239SOL    HW180491   7.953   0.979  11.823
26239SOL    HW280492   7.933   0.944  11.677
26240SOL     OW80493   7.909   9.053   8.788
26240SOL    HW180494   7.939   8.999   8.714
26240SOL    HW280495   7.979   9.116   8.801
26241SOL     OW80496  14.812  10.506   5.251
26241SOL    HW180497  14.865  10.489   5.173
26241SOL    HW280498  14.740  10.560   5.219
26242SOL     OW80499   6.067  13.889  13.528
26242SOL    HW180500   6.076  13.940  13.448
26242SOL    HW280501   6.114  13.808  13.510
26243SOL     OW80502   2.246   7.097   4.020
26243SOL    HW180503   2.203   7.121   4.103
26243SOL    HW280504   2.332   7.065   4.046
26244SOL     OW80505  10.252  12.880   8.427
26244SOL    HW180506  10.234  12.811   8.492
26244SOL    HW280507  10.269  12.958   8.479
26245SOL     OW80508   6.491   6.638  14.241
26245SOL    HW180509   6.491   6.679  14.327
26245SOL    HW280510   6.480   6.710  14.179
26246SOL     OW80511   6.323   2.333   2.950
26246SOL    HW180512   6.237   2.346   2.990
26246SOL    HW280513   6.380   2.395   2.995
26247SOL     OW80514  11.466   1.958   5.695
26247SOL    HW180515  11.425   1.918   5.619
26247SOL    HW280516  11.537   2.012   5.660
26248SOL     OW80517  13.619  14.162   2.709
26248SOL    HW180518  13.606  14.086   2.652
26248SOL    HW280519  13.550  14.155   2.775
26249SOL     OW80520   4.714   4.500   2.028
26249SOL    HW180521   4.674   4.445   2.096
26249SOL    HW280522   4.808   4.486   2.037
26250SOL     OW80523   8.207   1.432   8.535
26250SOL    HW180524   8.151   1.458   8.608
26250SOL    HW280525   8.269   1.369   8.573
26251SOL     OW80526   2.213  11.174   3.034
26251SOL    HW180527   2.139  11.233   3.049
26251SOL    HW280528   2.289  11.222   3.066
26252SOL     OW80529   8.492   9.053   3.417
26252SOL    HW180530   8.437   8.979   3.392
26252SOL    HW280531   8.432   9.127   3.423
26253SOL     OW80532  11.358  10.635   2.251
26253SOL    HW180533  11.386  10.597   2.168
26253SOL    HW280534  11.422  10.705   2.268
26254SOL     OW80535   7.468   4.154   8.283
26254SOL    HW180536   7.545   4.100   8.268
26254SOL    HW280537   7.427   4.116   8.361
26255SOL     OW80538   4.009   0.164   9.383
26255SOL    HW180539   3.958   0.108   9.442
26255SOL    HW280540   3.961   0.247   9.380
26256SOL     OW80541   2.745  10.462   2.369
26256SOL    HW180542   2.684  10.519   2.322
26256SOL    HW280543   2.796  10.420   2.299
26257SOL     OW80544   5.730  10.524   1.440
26257SOL    HW180545   5.723  10.478   1.523
26257SOL    HW280546   5.701  10.460   1.375
26258SOL     OW80547   2.230  14.018   9.857
26258SOL    HW180548   2.215  13.923   9.859
26258SOL    HW280549   2.146  14.057   9.881
26259SOL     OW80550  13.981   7.642   9.475
26259SOL    HW180551  14.051   7.676   9.531
26259SOL    HW280552  14.027   7.594   9.406
26260SOL     OW80553   7.867  13.847   0.255
26260SOL    HW180554   7.834  13.936   0.246
26260SOL    HW280555   7.937  13.853   0.320
26261SOL     OW80556  13.093   3.177  14.245
26261SOL    HW180557  13.015   3.152  14.295
26261SOL    HW280558  13.104   3.107  14.181
26262SOL     OW80559   1.144   7.768   1.789
26262SOL    HW180560   1.226   7.763   1.738
26262SOL    HW280561   1.160   7.712   1.865
26263SOL     OW80562  13.014  13.431   3.677
26263SOL    HW180563  13.066  13.401   3.751
26263SOL    HW280564  13.000  13.524   3.694
26264SOL     OW80565   3.595   0.636  10.736
26264SOL    HW180566   3.560   0.625  10.648
26264SOL    HW280567   3.616   0.547  10.765
26265SOL     OW80568   0.969  14.088   5.720
26265SOL    HW180569   0.885  14.111   5.761
26265SOL    HW280570   0.989  14.001   5.755
26266SOL     OW80571  13.374   0.315  11.648
26266SOL    HW180572  13.328   0.302  11.565
26266SOL    HW280573  13.330   0.389  11.688
26267SOL     OW80574   3.971  10.527  14.449
26267SOL    HW180575   3.991  10.497  14.537
26267SOL    HW280576   3.941  10.449  14.403
26268SOL     OW80577   5.119   8.749   6.756
26268SOL    HW180578   5.117   8.797   6.673
26268SOL    HW280579   5.187   8.793   6.807
26269SOL     OW80580  11.420  10.721   5.406
26269SOL    HW180581  11.389  10.808   5.431
26269SOL    HW280582  11.461  10.734   5.320
26270SOL     OW80583  11.421   6.518   0.294
26270SOL    HW180584  11.512   6.491   0.305
26270SOL    HW280585  11.417   6.605   0.334
26271SOL     OW80586  13.034  14.169  13.754
26271SOL    HW180587  13.038  14.094  13.695
26271SOL    HW280588  13.066  14.135  13.838
26272SOL     OW80589   9.683  12.208   1.221
26272SOL    HW180590   9.630  12.288   1.224
26272SOL    HW280591   9.621  12.139   1.196
26273SOL     OW80592   1.945   5.926  14.513
26273SOL    HW180593   1.983   5.842  14.489
26273SOL    HW280594   1.908   5.911  14.600
26274SOL     OW80595  14.507   3.096  11.658
26274SOL    HW180596  14.509   3.152  11.735
26274SOL    HW280597  14.425   3.047  11.666
26275SOL     OW80598   2.102  10.353   2.098
26275SOL    HW180599   2.043  10.320   2.167
26275SOL    HW280600   2.189  10.348   2.137
26276SOL     OW80601  13.746   7.521   8.644
26276SOL    HW180602  13.682   7.468   8.596
26276SOL    HW280603  13.829   7.475   8.632
26277SOL     OW80604   7.637  11.519   2.065
26277SOL    HW180605   7.558  11.466   2.077
26277SOL    HW280606   7.676  11.485   1.985
26278SOL     OW80607   7.198   7.975  11.913
26278SOL    HW180608   7.266   8.010  11.854
26278SOL    HW280609   7.137   8.048  11.924
26279SOL     OW80610   7.457   5.621  13.977
26279SOL    HW180611   7.404   5.676  14.035
26279SOL    HW280612   7.505   5.563  14.036
26280SOL     OW80613   7.078   1.647   0.051
26280SOL    HW180614   7.012   1.668  14.867
26280SOL    HW280615   7.131   1.579   0.011
26281SOL     OW80616   0.314   8.112   7.992
26281SOL    HW180617   0.281   8.038   7.940
26281SOL    HW280618   0.408   8.115   7.973
26282SOL     OW80619   5.446   1.570  13.854
26282SOL    HW180620   5.526   1.542  13.897
26282SOL    HW280621   5.401   1.624  13.920
26283SOL     OW80622  14.330   6.425  12.742
26283SOL    HW180623  14.421   6.404  12.719
26283SOL    HW280624  14.278   6.356  12.700
26284SOL     OW80625   6.930   7.749   1.770
26284SOL    HW180626   6.917   7.680   1.705
26284SOL    HW280627   6.941   7.702   1.853
26285SOL     OW80628  12.487  10.381   8.610
26285SOL    HW180629  12.445  10.344   8.688
26285SOL    HW280630  12.533  10.459   8.642
26286SOL     OW80631  10.900  12.370   5.666
26286SOL    HW180632  10.828  12.308   5.677
26286SOL    HW280633  10.918  12.370   5.572
26287SOL     OW80634  12.544   3.282  14.729
26287SOL    HW180635  12.631   3.294  14.765
26287SOL    HW280636  12.511   3.203  14.772
26288SOL     OW80637   3.766  14.336  12.454
26288SOL    HW180638   3.701  14.370  12.393
26288SOL    HW280639   3.766  14.241  12.438
26289SOL     OW80640   1.845   9.411   1.188
26289SOL    HW180641   1.846   9.358   1.267
26289SOL    HW280642   1.810   9.353   1.121
26290SOL     OW80643   1.662  12.929   8.154
26290SOL    HW180644   1.653  12.861   8.221
26290SOL    HW280645   1.581  12.980   8.162
26291SOL     OW80646   7.774   9.001   5.049
26291SOL    HW180647   7.802   9.072   5.107
26291SOL    HW280648   7.849   8.940   5.049
26292SOL     OW80649   7.399  13.756   6.360
26292SOL    HW180650   7.476  13.755   6.417
26292SOL    HW280651   7.325  13.760   6.420
26293SOL     OW80652   4.970   2.145   9.671
26293SOL    HW180653   4.962   2.239   9.689
26293SOL    HW280654   5.046   2.139   9.612
26294SOL     OW80655  12.385   7.884   2.347
26294SOL    HW180656  12.452   7.832   2.392
26294SOL    HW280657  12.429   7.914   2.266
26295SOL     OW80658   5.249   4.791  10.477
26295SOL    HW180659   5.280   4.838  10.555
26295SOL    HW280660   5.313   4.814  10.409
26296SOL     OW80661  10.552  10.111   0.151
26296SOL    HW180662  10.602  10.030   0.158
26296SOL    HW280663  10.575  10.161   0.229
26297SOL     OW80664   8.410  11.590  13.719
26297SOL    HW180665   8.339  11.526  13.715
26297SOL    HW280666   8.373  11.670  13.682
26298SOL     OW80667  12.573   1.001   1.445
26298SOL    HW180668  12.590   0.994   1.351
26298SOL    HW280669  12.615   1.083   1.471
26299SOL     OW80670  14.167   0.194  14.312
26299SOL    HW180671  14.237   0.172  14.251
26299SOL    HW280672  14.092   0.214  14.255
26300SOL     OW80673  14.099   8.810   7.619
26300SOL    HW180674  14.075   8.851   7.702
26300SOL    HW280675  14.194   8.798   7.626
26301SOL     OW80676   9.846   3.691   3.505
26301SOL    HW180677   9.797   3.611   3.522
26301SOL    HW280678   9.786   3.744   3.452
26302SOL     OW80679  10.170  14.829   3.803
26302SOL    HW180680  10.110  14.765   3.841
26302SOL    HW280681  10.201  14.788   3.722
26303SOL     OW80682   0.588   2.046  14.144
26303SOL    HW180683   0.572   1.951  14.149
26303SOL    HW280684   0.510   2.085  14.184
26304SOL     OW80685  11.582   8.294   3.562
26304SOL    HW180686  11.494   8.292   3.525
26304SOL    HW280687  11.581   8.367   3.624
26305SOL     OW80688   6.597   9.605   8.420
26305SOL    HW180689   6.562   9.693   8.434
26305SOL    HW280690   6.608   9.569   8.508
26306SOL     OW80691  10.853  13.482  14.365
26306SOL    HW180692  10.905  13.409  14.331
26306SOL    HW280693  10.887  13.559  14.320
26307SOL     OW80694   4.136  11.479   4.874
26307SOL    HW180695   4.154  11.492   4.781
26307SOL    HW280696   4.150  11.386   4.888
26308SOL     OW80697  12.974   7.395  13.584
26308SOL    HW180698  12.939   7.444  13.659
26308SOL    HW280699  12.950   7.304  13.601
26309SOL     OW80700   2.813  14.294   1.746
26309SOL    HW180701   2.833  14.318   1.837
26309SOL    HW280702   2.869  14.351   1.693
26310SOL     OW80703   0.366   0.797   0.879
26310SOL    HW180704   0.337   0.839   0.798
26310SOL    HW280705   0.286   0.786   0.931
26311SOL     OW80706   9.886   9.586  11.035
26311SOL    HW180707   9.903   9.653  10.969
26311SOL    HW280708   9.971   9.575  11.080
26312SOL     OW80709   9.888  11.855   4.538
26312SOL    HW180710   9.895  11.801   4.617
26312SOL    HW280711   9.817  11.814   4.487
26313SOL     OW80712   0.070  13.777  10.418
26313SOL    HW180713  14.881  13.720  10.445
26313SOL    HW280714   0.150  13.733  10.448
26314SOL     OW80715  13.510   7.569  12.884
26314SOL    HW180716  13.569   7.504  12.920
26314SOL    HW280717  13.444   7.518  12.837
26315SOL     OW80718   3.378   3.999  10.715
26315SOL    HW180719   3.453   4.049  10.684
26315SOL    HW280720   3.315   4.066  10.742
26316SOL     OW80721   4.420   1.652   3.010
26316SOL    HW180722   4.476   1.702   3.070
26316SOL    HW280723   4.426   1.699   2.927
26317SOL     OW80724   1.620  11.513   9.624
26317SOL    HW180725   1.586  11.497   9.536
26317SOL    HW280726   1.711  11.485   9.621
26318SOL     OW80727   5.375   6.983   3.679
26318SOL    HW180728   5.320   6.940   3.744
26318SOL    HW280729   5.320   6.987   3.600
26319SOL     OW80730   9.717  14.769   7.889
26319SOL    HW180731   9.770  14.798   7.815
26319SOL    HW280732   9.634  14.741   7.850
26320SOL     OW80733   7.078   1.962  13.531
26320SOL    HW180734   6.999   1.908  13.525
26320SOL    HW280735   7.075   1.998  13.620
26321SOL     OW80736  14.772   7.768  11.671
26321SOL    HW180737  14.739   7.705  11.735
26321SOL    HW280738  14.759   7.853  11.712
26322SOL     OW80739   0.673   6.777   2.281
26322SOL    HW180740   0.729   6.729   2.220
26322SOL    HW280741   0.724   6.856   2.303
26323SOL     OW80742   7.442   9.492   8.220
26323SOL    HW180743   7.490   9.573   8.205
26323SOL    HW280744   7.508   9.423   8.210
26324SOL     OW80745   6.974   8.064   4.798
26324SOL    HW180746   6.915   8.115   4.853
26324SOL    HW280747   6.927   8.053   4.716
26325SOL     OW80748   3.447   7.862   1.799
26325SOL    HW180749   3.390   7.824   1.733
26325SOL    HW280750   3.396   7.860   1.880
26326SOL     OW80751   7.811   2.975  10.986
26326SOL    HW180752   7.730   2.927  10.974
26326SOL    HW280753   7.833   3.007  10.898
26327SOL     OW80754   7.732   5.910  13.845
26327SOL    HW180755   7.703   5.858  13.770
26327SOL    HW280756   7.703   5.861  13.922
26328SOL     OW80757   6.486   0.734  11.203
26328SOL    HW180758   6.537   0.671  11.254
26328SOL    HW280759   6.548   0.769  11.139
26329SOL     OW80760   3.437  13.701  13.394
26329SOL    HW180761   3.390  13.704  13.477
26329SOL    HW280762   3.384  13.754  13.335
26330SOL     OW80763   3.677   2.308   2.668
26330SOL    HW180764   3.583   2.304   2.655
26330SOL    HW280765   3.711   2.227   2.631
26331SOL     OW80766   6.251   4.379   8.792
26331SOL    HW180767   6.245   4.410   8.882
26331SOL    HW280768   6.274   4.457   8.741
26332SOL     OW80769   4.609   3.192   8.304
26332SOL    HW180770   4.541   3.257   8.321
26332SOL    HW280771   4.691   3.239   8.316
26333SOL     OW80772   0.653   3.369   3.626
26333SOL    HW180773   0.747   3.380   3.611
26333SOL    HW280774   0.615   3.456   3.609
26334SOL     OW80775   5.530   8.887  10.465
26334SOL    HW180776   5.617   8.881  10.425
26334SOL    HW280777   5.542   8.856  10.554
26335SOL     OW80778  10.731   7.406   9.380
26335SOL    HW180779  10.658   7.415   9.441
26335SOL    HW280780  10.712   7.326   9.331
26336SOL     OW80781   5.515  11.133   6.482
26336SOL    HW180782   5.439  11.078   6.504
26336SOL    HW280783   5.528  11.119   6.388
26337SOL     OW80784   8.021   2.923   7.372
26337SOL    HW180785   8.112   2.918   7.345
26337SOL    HW280786   8.022   2.897   7.464
26338SOL     OW80787   1.407   8.016   2.738
26338SOL    HW180788   1.343   7.982   2.801
26338SOL    HW280789   1.479   7.953   2.741
26339SOL     OW80790   6.732   0.578   0.650
26339SOL    HW180791   6.791   0.637   0.602
26339SOL    HW280792   6.730   0.613   0.739
26340SOL     OW80793   3.804   5.509   8.023
26340SOL    HW180794   3.810   5.573   7.953
26340SOL    HW280795   3.793   5.425   7.978
26341SOL     OW80796   4.191   3.773   2.200
26341SOL    HW180797   4.167   3.682   2.220
26341SOL    HW280798   4.224   3.808   2.283
26342SOL     OW80799   5.943  11.770   8.649
26342SOL    HW180800   5.863  11.793   8.696
26342SOL    HW280801   5.994  11.719   8.712
26343SOL     OW80802   0.540   6.098   1.274
26343SOL    HW180803   0.573   6.175   1.227
26343SOL    HW280804   0.615   6.039   1.279
26344SOL     OW80805  12.849   9.918   1.965
26344SOL    HW180806  12.888   9.848   2.019
26344SOL    HW280807  12.765   9.936   2.007
26345SOL     OW80808  12.004   3.487  11.104
26345SOL    HW180809  12.026   3.406  11.149
26345SOL    HW280810  12.080   3.544  11.119
26346SOL     OW80811   1.177   4.741   8.206
26346SOL    HW180812   1.183   4.675   8.276
26346SOL    HW280813   1.102   4.713   8.153
26347SOL     OW80814   3.041   0.231   2.228
26347SOL    HW180815   3.055   0.323   2.206
26347SOL    HW280816   2.948   0.227   2.253
26348SOL     OW80817   9.483   5.638   7.962
26348SOL    HW180818   9.519   5.551   7.944
26348SOL    HW280819   9.436   5.628   8.045
26349SOL     OW80820   7.473   8.546   4.299
26349SOL    HW180821   7.387   8.533   4.258
26349SOL    HW280822   7.471   8.637   4.329
26350SOL     OW80823   5.634   8.762   9.275
26350SOL    HW180824   5.625   8.690   9.337
26350SOL    HW280825   5.551   8.809   9.280
26351SOL     OW80826   0.165   8.001   0.267
26351SOL    HW180827   0.254   7.983   0.295
26351SOL    HW280828   0.120   8.031   0.347
26352SOL     OW80829   8.156   4.879   0.977
26352SOL    HW180830   8.170   4.969   0.948
26352SOL    HW280831   8.061   4.870   0.982
26353SOL     OW80832   3.931   8.568   4.052
26353SOL    HW180833   3.942   8.647   3.999
26353SOL    HW280834   3.870   8.514   4.001
26354SOL     OW80835   6.521   9.403  14.225
26354SOL    HW180836   6.448   9.463  14.238
26354SOL    HW280837   6.573   9.443  14.155
26355SOL     OW80838  12.460   6.090   3.157
26355SOL    HW180839  12.477   6.062   3.247
26355SOL    HW280840  12.502   6.024   3.103
26356SOL     OW80841   9.475   4.918   9.226
26356SOL    HW180842   9.538   4.962   9.170
26356SOL    HW280843   9.518   4.837   9.252
26357SOL     OW80844   1.021   6.702   9.836
26357SOL    HW180845   1.110   6.715   9.868
26357SOL    HW280846   0.987   6.790   9.821
26358SOL     OW80847   2.492   0.785  12.588
26358SOL    HW180848   2.454   0.871  12.570
26358SOL    HW280849   2.543   0.797  12.667
26359SOL     OW80850  11.495   4.187   0.251
26359SOL    HW180851  11.513   4.222   0.164
26359SOL    HW280852  11.539   4.248   0.311
26360SOL     OW80853   2.757  12.805  10.276
26360SOL    HW180854   2.772  12.791  10.182
26360SOL    HW280855   2.830  12.860  10.304
26361SOL     OW80856  13.441  13.338   9.112
26361SOL    HW180857  13.444  13.249   9.148
26361SOL    HW280858  13.376  13.334   9.043
26362SOL     OW80859   1.083   1.642   9.013
26362SOL    HW180860   1.096   1.563   9.066
26362SOL    HW280861   1.045   1.706   9.074
26363SOL     OW80862   7.176   2.795   9.705
26363SOL    HW180863   7.148   2.850   9.778
26363SOL    HW280864   7.210   2.856   9.639
26364SOL     OW80865  14.181   5.283   1.502
26364SOL    HW180866  14.207   5.295   1.411
26364SOL    HW280867  14.085   5.291   1.501
26365SOL     OW80868  10.792   3.703   8.814
26365SOL    HW180869  10.788   3.794   8.846
26365SOL    HW280870  10.701   3.679   8.799
26366SOL     OW80871  11.994  10.849   3.575
26366SOL    HW180872  12.060  10.887   3.517
26366SOL    HW280873  12.026  10.759   3.590
26367SOL     OW80874   1.649   0.450   8.382
26367SOL    HW180875   1.643   0.541   8.353
26367SOL    HW280876   1.590   0.402   8.325
26368SOL     OW80877   2.668  14.057   3.019
26368SOL    HW180878   2.667  14.152   3.035
26368SOL    HW280879   2.598  14.023   3.075
26369SOL     OW80880   2.924  12.365   3.845
26369SOL    HW180881   2.872  12.310   3.903
26369SOL    HW280882   2.990  12.404   3.903
26370SOL     OW80883   1.594   7.589   3.206
26370SOL    HW180884   1.673   7.579   3.153
26370SOL    HW280885   1.620   7.565   3.294
26371SOL     OW80886  10.106   2.228   4.284
26371SOL    HW180887  10.095   2.234   4.189
26371SOL    HW280888  10.116   2.319   4.313
26372SOL     OW80889  10.908   9.674   3.278
26372SOL    HW180890  10.957   9.607   3.230
26372SOL    HW280891  10.905   9.643   3.368
26373SOL     OW80892   6.330   6.033   9.133
26373SOL    HW180893   6.316   6.038   9.227
26373SOL    HW280894   6.345   5.940   9.116
26374SOL     OW80895  14.061   3.844   0.573
26374SOL    HW180896  14.118   3.799   0.636
26374SOL    HW280897  14.021   3.774   0.522
26375SOL     OW80898   2.849   3.223   5.894
26375SOL    HW180899   2.760   3.253   5.881
26375SOL    HW280900   2.841   3.128   5.908
26376SOL     OW80901   3.208   0.750   4.757
26376SOL    HW180902   3.262   0.752   4.835
26376SOL    HW280903   3.166   0.664   4.758
26377SOL     OW80904   5.160   4.460   4.785
26377SOL    HW180905   5.232   4.438   4.844
26377SOL    HW280906   5.094   4.393   4.802
26378SOL     OW80907   1.065   7.783   7.417
26378SOL    HW180908   1.125   7.716   7.383
26378SOL    HW280909   1.000   7.795   7.348
26379SOL     OW80910   2.949   4.562   2.271
26379SOL    HW180911   3.014   4.530   2.334
26379SOL    HW280912   3.001   4.606   2.204
26380SOL     OW80913   3.310   5.561  11.387
26380SOL    HW180914   3.261   5.574  11.306
26380SOL    HW280915   3.348   5.646  11.407
26381SOL     OW80916   3.073  12.937   6.688
26381SOL    HW180917   3.141  12.885   6.731
26381SOL    HW280918   3.013  12.960   6.759
26382SOL     OW80919   5.695  10.913   8.734
26382SOL    HW180920   5.772  10.877   8.691
26382SOL    HW280921   5.711  11.007   8.737
26383SOL     OW80922   8.679   2.345  14.194
26383SOL    HW180923   8.625   2.414  14.154
26383SOL    HW280924   8.753   2.335  14.135
26384SOL     OW80925   6.627   8.693   8.596
26384SOL    HW180926   6.671   8.702   8.511
26384SOL    HW280927   6.685   8.737   8.658
26385SOL     OW80928   1.862   6.921   8.361
26385SOL    HW180929   1.954   6.904   8.343
26385SOL    HW280930   1.860   7.009   8.397
26386SOL     OW80931  13.044   7.168   2.398
26386SOL    HW180932  13.081   7.107   2.463
26386SOL    HW280933  13.036   7.251   2.445
26387SOL     OW80934   7.284   2.586  10.512
26387SOL    HW180935   7.242   2.576  10.427
26387SOL    HW280936   7.350   2.516  10.515
26388SOL     OW80937  14.630   2.794  13.532
26388SOL    HW180938  14.696   2.789  13.601
26388SOL    HW280939  14.640   2.882  13.496
26389SOL     OW80940  12.252   6.852   8.566
26389SOL    HW180941  12.285   6.786   8.506
26389SOL    HW280942  12.287   6.935   8.533
26390SOL     OW80943  11.135   4.004  11.790
26390SOL    HW180944  11.164   4.033  11.877
26390SOL    HW280945  11.133   4.084  11.738
26391SOL     OW80946   9.778   9.587  14.466
26391SOL    HW180947   9.761   9.591  14.372
26391SOL    HW280948   9.824   9.669  14.486
26392SOL     OW80949   0.173   7.376   4.769
26392SOL    HW180950   0.105   7.405   4.830
26392SOL    HW280951   0.254   7.386   4.818
26393SOL     OW80952   8.218   7.648   1.535
26393SOL    HW180953   8.163   7.704   1.590
26393SOL    HW280954   8.162   7.625   1.461
26394SOL     OW80955   1.840   8.115   5.028
26394SOL    HW180956   1.888   8.180   5.080
26394SOL    HW280957   1.852   8.144   4.938
26395SOL     OW80958   7.879   5.297   3.872
26395SOL    HW180959   7.839   5.283   3.786
26395SOL    HW280960   7.806   5.320   3.929
26396SOL     OW80961   9.779  14.398   2.666
26396SOL    HW180962   9.709  14.377   2.728
26396SOL    HW280963   9.737  14.454   2.601
26397SOL     OW80964   2.376   2.327   0.361
26397SOL    HW180965   2.471   2.340   0.355
26397SOL    HW280966   2.353   2.282   0.280
26398SOL     OW80967  11.093  13.514  10.609
26398SOL    HW180968  11.118  13.535  10.519
26398SOL    HW280969  11.087  13.599  10.652
26399SOL     OW80970   3.583   1.340   2.166
26399SOL    HW180971   3.639   1.372   2.236
26399SOL    HW280972   3.533   1.417   2.138
26400SOL     OW80973  14.322   7.855   4.000
26400SOL    HW180974  14.288   7.939   4.031
26400SOL    HW280975  14.253   7.792   4.023
26401SOL     OW80976  12.718  10.537  10.643
26401SOL    HW180977  12.673  10.553  10.560
26401SOL    HW280978  12.801  10.583  10.635
26402SOL     OW80979  13.265   9.164   5.313
26402SOL    HW180980  13.248   9.071   5.321
26402SOL    HW280981  13.316   9.187   5.390
26403SOL     OW80982   8.976   5.134   0.513
26403SOL    HW180983   8.981   5.051   0.464
26403SOL    HW280984   9.047   5.187   0.476
26404SOL     OW80985  11.225   6.512   3.854
26404SOL    HW180986  11.309   6.497   3.811
26404SOL    HW280987  11.244   6.501   3.947
26405SOL     OW80988  12.039   0.707   5.510
26405SOL    HW180989  12.041   0.613   5.525
26405SOL    HW280990  12.054   0.746   5.596
26406SOL     OW80991   0.656   4.160   5.564
26406SOL    HW180992   0.635   4.078   5.608
26406SOL    HW280993   0.699   4.134   5.482
26407SOL     OW80994  14.176  13.043   3.584
26407SOL    HW180995  14.205  13.075   3.498
26407SOL    HW280996  14.156  12.950   3.570
26408SOL     OW80997  12.798  14.065  10.512
26408SOL    HW180998  12.779  14.149  10.471
26408SOL    HW280999  12.890  14.048  10.491
26409SOL     OW81000   3.832  14.456   3.899
26409SOL    HW181001   3.810  14.499   3.816
26409SOL    HW281002   3.913  14.409   3.882
26410SOL     OW81003   1.305   8.396   6.574
26410SOL    HW181004   1.273   8.481   6.543
26410SOL    HW281005   1.262   8.332   6.518
26411SOL     OW81006   6.679  12.222   0.577
26411SOL    HW181007   6.590  12.240   0.546
26411SOL    HW281008   6.667  12.169   0.656
26412SOL     OW81009   7.402  12.781   2.560
26412SOL    HW181010   7.497  12.794   2.565
26412SOL    HW281011   7.388  12.695   2.602
26413SOL     OW81012  10.214  11.923   2.324
26413SOL    HW181013  10.193  12.005   2.279
26413SOL    HW281014  10.260  11.950   2.403
26414SOL     OW81015  14.858  10.621  10.546
26414SOL    HW181016  14.767  10.636  10.570
26414SOL    HW281017   0.019  10.706  10.562
26415SOL     OW81018  10.518   1.172   2.985
26415SOL    HW181019  10.492   1.138   2.899
26415SOL    HW281020  10.565   1.253   2.965
26416SOL     OW81021   2.624   1.608   5.576
26416SOL    HW181022   2.681   1.533   5.562
26416SOL    HW281023   2.665   1.657   5.647
26417SOL     OW81024  13.592   7.712   4.604
26417SOL    HW181025  13.507   7.670   4.592
26417SOL    HW281026  13.585   7.794   4.555
26418SOL     OW81027   4.466   0.189   4.598
26418SOL    HW181028   4.443   0.185   4.691
26418SOL    HW281029   4.562   0.183   4.597
26419SOL     OW81030   6.326   9.682   1.862
26419SOL    HW181031   6.415   9.676   1.828
26419SOL    HW281032   6.302   9.774   1.849
26420SOL     OW81033   8.454   4.868  11.778
26420SOL    HW181034   8.548   4.886  11.779
26420SOL    HW281035   8.427   4.880  11.869
26421SOL     OW81036  11.431   4.345  13.553
26421SOL    HW181037  11.495   4.274  13.545
26421SOL    HW281038  11.353   4.302  13.589
26422SOL     OW81039   3.645   7.635   0.849
26422SOL    HW181040   3.567   7.673   0.809
26422SOL    HW281041   3.658   7.552   0.804
26423SOL     OW81042  12.887   3.989  13.020
26423SOL    HW181043  12.953   4.057  13.037
26423SOL    HW281044  12.859   4.005  12.929
26424SOL     OW81045   4.347  11.688  12.905
26424SOL    HW181046   4.372  11.612  12.958
26424SOL    HW281047   4.420  11.701  12.845
26425SOL     OW81048  11.107  12.525   8.473
26425SOL    HW181049  11.087  12.615   8.446
26425SOL    HW281050  11.048  12.471   8.421
26426SOL     OW81051   6.329   3.758   9.883
26426SOL    HW181052   6.354   3.839   9.840
26426SOL    HW281053   6.263   3.719   9.825
26427SOL     OW81054  12.459   6.392   5.367
26427SOL    HW181055  12.527   6.354   5.313
26427SOL    HW281056  12.480   6.486   5.371
26428SOL     OW81057   3.413   8.938  12.013
26428SOL    HW181058   3.464   8.977  11.942
26428SOL    HW281059   3.443   8.847  12.017
26429SOL     OW81060   5.742   3.348   3.795
26429SOL    HW181061   5.832   3.319   3.781
26429SOL    HW281062   5.727   3.335   3.889
26430SOL     OW81063   1.716  13.341   1.491
26430SOL    HW181064   1.737  13.426   1.529
26430SOL    HW281065   1.791  13.286   1.513
26431SOL     OW81066  10.885   4.979   5.905
26431SOL    HW181067  10.834   4.901   5.884
26431SOL    HW281068  10.974   4.958   5.875
26432SOL     OW81069  14.222  14.146  11.397
26432SOL    HW181070  14.233  14.054  11.420
26432SOL    HW281071  14.243  14.193  11.478
26433SOL     OW81072   7.415  11.685  11.428
26433SOL    HW181073   7.480  11.615  11.429
26433SOL    HW281074   7.440  11.740  11.353
26434SOL     OW81075  14.569   0.578   1.949
26434SOL    HW181076  14.611   0.662   1.932
26434SOL    HW281077  14.571   0.532   1.865
26435SOL     OW81078   6.852   1.221   1.243
26435SOL    HW181079   6.946   1.233   1.228
26435SOL    HW281080   6.846   1.145   1.301
26436SOL     OW81081   4.372  11.510   8.052
26436SOL    HW181082   4.431  11.529   7.980
26436SOL    HW281083   4.365  11.592   8.101
26437SOL     OW81084   7.578   8.416   9.721
26437SOL    HW181085   7.547   8.334   9.758
26437SOL    HW281086   7.668   8.398   9.694
26438SOL     OW81087   5.449   3.673   0.928
26438SOL    HW181088   5.355   3.666   0.947
26438SOL    HW281089   5.474   3.758   0.963
26439SOL     OW81090   5.888  10.769  10.663
26439SOL    HW181091   5.930  10.737  10.583
26439SOL    HW281092   5.959  10.811  10.712
26440SOL     OW81093   8.501   2.312  12.509
26440SOL    HW181094   8.532   2.351  12.590
26440SOL    HW281095   8.409   2.339  12.503
26441SOL     OW81096  12.101  13.834   6.024
26441SOL    HW181097  12.087  13.928   6.035
26441SOL    HW281098  12.066  13.815   5.937
26442SOL     OW81099  12.620  14.210   2.024
26442SOL    HW181100  12.611  14.170   2.111
26442SOL    HW281101  12.553  14.278   2.023
26443SOL     OW81102  13.811  11.444   1.428
26443SOL    HW181103  13.724  11.412   1.404
26443SOL    HW281104  13.826  11.520   1.372
26444SOL     OW81105  12.511  13.049  11.857
26444SOL    HW181106  12.551  13.113  11.916
26444SOL    HW281107  12.576  12.979  11.849
26445SOL     OW81108  13.266   6.440   1.878
26445SOL    HW181109  13.205   6.421   1.950
26445SOL    HW281110  13.353   6.439   1.919
26446SOL     OW81111  10.225   0.005  11.245
26446SOL    HW181112  10.194  14.810  11.197
26446SOL    HW281113  10.183   0.079  11.202
26447SOL     OW81114   6.001   8.886  12.451
26447SOL    HW181115   5.959   8.876  12.536
26447SOL    HW281116   5.982   8.804  12.405
26448SOL     OW81117   8.561   9.922   8.227
26448SOL    HW181118   8.640   9.915   8.173
26448SOL    HW281119   8.492   9.881   8.174
26449SOL     OW81120  14.279   6.502  13.825
26449SOL    HW181121  14.331   6.444  13.880
26449SOL    HW281122  14.226   6.443  13.771
26450SOL     OW81123   4.233   4.048   3.162
26450SOL    HW181124   4.142   4.027   3.144
26450SOL    HW281125   4.283   3.987   3.107
26451SOL     OW81126   4.998   2.601  12.179
26451SOL    HW181127   4.941   2.645  12.242
26451SOL    HW281128   5.073   2.572  12.231
26452SOL     OW81129   3.662  13.428   4.465
26452SOL    HW181130   3.657  13.386   4.379
26452SOL    HW281131   3.654  13.522   4.446
26453SOL     OW81132  12.605   7.335  13.996
26453SOL    HW181133  12.637   7.289  13.918
26453SOL    HW281134  12.614   7.270  14.067
26454SOL     OW81135  14.171   9.657   7.076
26454SOL    HW181136  14.094   9.635   7.129
26454SOL    HW281137  14.139   9.656   6.986
26455SOL     OW81138  11.769  13.453  13.099
26455SOL    HW181139  11.808  13.366  13.107
26455SOL    HW281140  11.690  13.449  13.152
26456SOL     OW81141   9.464   4.857   1.721
26456SOL    HW181142   9.429   4.798   1.654
26456SOL    HW281143   9.522   4.802   1.773
26457SOL     OW81144   0.015   6.153  11.150
26457SOL    HW181145  14.849   6.225  11.109
26457SOL    HW281146   0.073   6.195  11.213
26458SOL     OW81147   8.923   0.265   9.085
26458SOL    HW181148   8.939   0.196   9.149
26458SOL    HW281149   8.989   0.332   9.104
26459SOL     OW81150  14.040  13.511   2.753
26459SOL    HW181151  13.955  13.467   2.757
26459SOL    HW281152  14.078  13.498   2.839
26460SOL     OW81153   9.178   3.221   2.160
26460SOL    HW181154   9.088   3.207   2.191
26460SOL    HW281155   9.223   3.260   2.234
26461SOL     OW81156   3.095   0.708   0.456
26461SOL    HW181157   3.068   0.793   0.490
26461SOL    HW281158   3.122   0.725   0.366
26462SOL     OW81159   7.837   9.579   0.049
26462SOL    HW181160   7.801   9.652  14.880
26462SOL    HW281161   7.843   9.613   0.139
26463SOL     OW81162  12.538   2.589   7.431
26463SOL    HW181163  12.595   2.527   7.387
26463SOL    HW281164  12.456   2.541   7.444
26464SOL     OW81165   1.422  13.137  10.318
26464SOL    HW181166   1.367  13.183  10.255
26464SOL    HW281167   1.489  13.094  10.264
26465SOL     OW81168   9.228  12.204   0.853
26465SOL    HW181169   9.198  12.295   0.847
26465SOL    HW281170   9.220  12.182   0.946
26466SOL     OW81171  11.181   2.934   7.340
26466SOL    HW181172  11.219   2.937   7.252
26466SOL    HW281173  11.234   2.995   7.391
26467SOL     OW81174   3.702   5.788   6.563
26467SOL    HW181175   3.727   5.804   6.654
26467SOL    HW281176   3.643   5.712   6.567
26468SOL     OW81177  12.187  10.442  14.313
26468SOL    HW181178  12.096  10.452  14.342
26468SOL    HW281179  12.193  10.496  14.234
26469SOL     OW81180   1.074   8.488   4.865
26469SOL    HW181181   1.014   8.417   4.885
26469SOL    HW281182   1.048   8.518   4.778
26470SOL     OW81183   0.533   3.928   5.629
26470SOL    HW181184   0.486   3.874   5.565
26470SOL    HW281185   0.556   3.866   5.699
26471SOL     OW81186   8.035  14.823   9.332
26471SOL    HW181187   8.071  14.808   9.420
26471SOL    HW281188   8.112  14.836   9.277
26472SOL     OW81189   1.681   2.316  14.432
26472SOL    HW181190   1.756   2.265  14.402
26472SOL    HW281191   1.658   2.277  14.517
26473SOL     OW81192   7.952  13.323  14.333
26473SOL    HW181193   8.038  13.364  14.322
26473SOL    HW281194   7.914  13.323  14.246
26474SOL     OW81195  11.361   3.808   3.914
26474SOL    HW181196  11.427   3.780   3.977
26474SOL    HW281197  11.311   3.728   3.894
26475SOL     OW81198   6.512  14.316   6.973
26475SOL    HW181199   6.453  14.284   7.042
26475SOL    HW281200   6.593  14.337   7.019
26476SOL     OW81201   1.333  12.221   7.835
26476SOL    HW181202   1.319  12.315   7.846
26476SOL    HW281203   1.361  12.191   7.921
26477SOL     OW81204   9.972   6.330   0.942
26477SOL    HW181205   9.884   6.322   0.905
26477SOL    HW281206   9.973   6.268   1.015
26478SOL     OW81207   4.745   4.055   0.395
26478SOL    HW181208   4.734   4.116   0.467
26478SOL    HW281209   4.833   4.019   0.407
26479SOL     OW81210  13.602   6.798   7.761
26479SOL    HW181211  13.587   6.718   7.812
26479SOL    HW281212  13.651   6.855   7.820
26480SOL     OW81213   6.850   2.157   2.770
26480SOL    HW181214   6.892   2.075   2.793
26480SOL    HW281215   6.765   2.132   2.734
26481SOL     OW81216  11.525   2.372   1.052
26481SOL    HW181217  11.476   2.388   0.972
26481SOL    HW281218  11.468   2.316   1.105
26482SOL     OW81219   6.785   9.260  12.201
26482SOL    HW181220   6.820   9.246  12.289
26482SOL    HW281221   6.691   9.273  12.214
26483SOL     OW81222  11.295   8.441   3.239
26483SOL    HW181223  11.251   8.363   3.204
26483SOL    HW281224  11.257   8.514   3.189
26484SOL     OW81225  13.102   6.934   3.867
26484SOL    HW181226  13.133   7.010   3.917
26484SOL    HW281227  13.177   6.875   3.865
26485SOL     OW81228   3.702   8.752   4.667
26485SOL    HW181229   3.780   8.701   4.687
26485SOL    HW281230   3.731   8.844   4.676
26486SOL     OW81231   6.404   4.140   0.013
26486SOL    HW181232   6.349   4.185   0.077
26486SOL    HW281233   6.493   4.161   0.039
26487SOL     OW81234   1.930   9.832  13.140
26487SOL    HW181235   1.895   9.914  13.105
26487SOL    HW281236   1.852   9.779  13.157
26488SOL     OW81237  13.242  13.362   6.767
26488SOL    HW181238  13.153  13.398   6.764
26488SOL    HW281239  13.229  13.267   6.768
26489SOL     OW81240   7.991  10.326  10.245
26489SOL    HW181241   7.939  10.246  10.255
26489SOL    HW281242   8.072  10.307  10.292
26490SOL     OW81243   1.076   9.305   4.202
26490SOL    HW181244   1.061   9.373   4.137
26490SOL    HW281245   1.152   9.257   4.170
26491SOL     OW81246   9.147  14.345  14.657
26491SOL    HW181247   9.138  14.290  14.579
26491SOL    HW281248   9.184  14.287  14.724
26492SOL     OW81249   7.076  14.748  12.884
26492SOL    HW181250   7.097  14.667  12.931
26492SOL    HW281251   7.027  14.801  12.947
26493SOL     OW81252   6.645  11.620  10.737
26493SOL    HW181253   6.557  11.601  10.770
26493SOL    HW281254   6.699  11.624  10.815
26494SOL     OW81255   3.441   7.494   6.159
26494SOL    HW181256   3.472   7.504   6.249
26494SOL    HW281257   3.388   7.572   6.144
26495SOL     OW81258  10.918   1.669   6.422
26495SOL    HW181259  10.972   1.621   6.484
26495SOL    HW281260  10.970   1.747   6.401
26496SOL     OW81261   0.255  13.214  14.199
26496SOL    HW181262   0.289  13.146  14.141
26496SOL    HW281263   0.160  13.209  14.189
26497SOL     OW81264   7.854  12.172   8.072
26497SOL    HW181265   7.824  12.217   7.993
26497SOL    HW281266   7.775  12.141   8.115
26498SOL     OW81267   8.155   0.681   0.786
26498SOL    HW181268   8.088   0.682   0.718
26498SOL    HW281269   8.108   0.702   0.866
26499SOL     OW81270   9.291  11.968   0.283
26499SOL    HW181271   9.257  11.958   0.194
26499SOL    HW281272   9.235  12.036   0.322
26500SOL     OW81273   4.631   3.807  10.045
26500SOL    HW181274   4.673   3.866  10.108
26500SOL    HW281275   4.701   3.783   9.984
26501SOL     OW81276   7.544   3.077   3.059
26501SOL    HW181277   7.457   3.114   3.041
26501SOL    HW281278   7.573   3.044   2.974
26502SOL     OW81279  13.973   3.334  12.898
26502SOL    HW181280  14.009   3.282  12.971
26502SOL    HW281281  13.884   3.357  12.926
26503SOL     OW81282  10.299   5.100  13.208
26503SOL    HW181283  10.364   5.163  13.174
26503SOL    HW281284  10.231   5.155  13.247
26504SOL     OW81285   2.364  10.812  11.555
26504SOL    HW181286   2.419  10.827  11.478
26504SOL    HW281287   2.419  10.837  11.629
26505SOL     OW81288  11.156  12.659   6.198
26505SOL    HW181289  11.215  12.589   6.230
26505SOL    HW281290  11.075  12.645   6.247
26506SOL     OW81291   0.613   6.782  11.066
26506SOL    HW181292   0.619   6.784  10.971
26506SOL    HW281293   0.704   6.777  11.096
26507SOL     OW81294  10.357   7.514  10.898
26507SOL    HW181295  10.385   7.431  10.938
26507SOL    HW281296  10.311   7.488  10.819
26508SOL     OW81297   5.578   7.613   0.961
26508SOL    HW181298   5.492   7.637   0.997
26508SOL    HW281299   5.557   7.557   0.886
26509SOL     OW81300   8.587   5.594   7.780
26509SOL    HW181301   8.545   5.543   7.850
26509SOL    HW281302   8.596   5.682   7.817
26510SOL     OW81303  10.150   8.651   7.104
26510SOL    HW181304  10.112   8.704   7.174
26510SOL    HW281305  10.221   8.705   7.069
26511SOL     OW81306   7.586   4.390   6.935
26511SOL    HW181307   7.517   4.385   6.868
26511SOL    HW281308   7.546   4.352   7.013
26512SOL     OW81309   1.130   5.630   9.164
26512SOL    HW181310   1.044   5.668   9.179
26512SOL    HW281311   1.113   5.549   9.117
26513SOL     OW81312   2.187   6.710   7.912
26513SOL    HW181313   2.120   6.704   7.980
26513SOL    HW281314   2.138   6.721   7.831
26514SOL     OW81315   8.092   4.222   6.425
26514SOL    HW181316   8.152   4.296   6.438
26514SOL    HW281317   8.049   4.241   6.342
26515SOL     OW81318  12.308  13.109   3.763
26515SOL    HW181319  12.400  13.130   3.778
26515SOL    HW281320  12.292  13.131   3.672
26516SOL     OW81321   2.443   7.944  13.675
26516SOL    HW181322   2.470   7.868  13.726
26516SOL    HW281323   2.520   7.969  13.625
26517SOL     OW81324   0.536   0.808   3.749
26517SOL    HW181325   0.622   0.847   3.766
26517SOL    HW281326   0.474   0.878   3.772
26518SOL     OW81327   8.480   1.244   4.373
26518SOL    HW181328   8.482   1.152   4.348
26518SOL    HW281329   8.422   1.247   4.449
26519SOL     OW81330   4.922  14.696   2.803
26519SOL    HW181331   4.921  14.718   2.896
26519SOL    HW281332   5.015  14.696   2.779
26520SOL     OW81333   9.022   0.967   0.721
26520SOL    HW181334   9.036   1.059   0.744
26520SOL    HW281335   9.017   0.966   0.625
26521SOL     OW81336   5.833   7.127   7.404
26521SOL    HW181337   5.904   7.161   7.459
26521SOL    HW281338   5.785   7.067   7.461
26522SOL     OW81339  13.616  14.164  10.786
26522SOL    HW181340  13.680  14.159  10.714
26522SOL    HW281341  13.532  14.175  10.743
26523SOL     OW81342   5.899   5.355   1.266
26523SOL    HW181343   5.919   5.316   1.351
26523SOL    HW281344   5.954   5.307   1.204
26524SOL     OW81345   4.426   1.862  10.230
26524SOL    HW181346   4.462   1.776  10.206
26524SOL    HW281347   4.339   1.842  10.265
26525SOL     OW81348   8.722   2.135   4.934
26525SOL    HW181349   8.664   2.209   4.915
26525SOL    HW281350   8.809   2.167   4.910
26526SOL     OW81351  10.000   5.383   6.713
26526SOL    HW181352   9.924   5.358   6.766
26526SOL    HW281353  10.005   5.317   6.644
26527SOL     OW81354   1.174  13.311   4.884
26527SOL    HW181355   1.213  13.384   4.932
26527SOL    HW281356   1.092  13.293   4.931
26528SOL     OW81357   2.472   1.396   1.619
26528SOL    HW181358   2.560   1.427   1.639
26528SOL    HW281359   2.478   1.360   1.530
26529SOL     OW81360  13.188   3.177   0.543
26529SOL    HW181361  13.157   3.141   0.626
26529SOL    HW281362  13.110   3.180   0.487
26530SOL     OW81363   3.358   3.445  13.029
26530SOL    HW181364   3.279   3.396  13.009
26530SOL    HW281365   3.412   3.383  13.078
26531SOL     OW81366  10.268   3.375   9.159
26531SOL    HW181367  10.332   3.446   9.150
26531SOL    HW281368  10.183   3.418   9.150
26532SOL     OW81369   9.093   6.238   7.428
26532SOL    HW181370   9.145   6.160   7.447
26532SOL    HW281371   9.012   6.226   7.477
26533SOL     OW81372   9.657   8.752  13.955
26533SOL    HW181373   9.713   8.800  14.016
26533SOL    HW281374   9.654   8.807  13.877
26534SOL     OW81375  11.610   7.187   3.585
26534SOL    HW181376  11.654   7.156   3.506
26534SOL    HW281377  11.551   7.256   3.555
26535SOL     OW81378   5.520   5.122   4.528
26535SOL    HW181379   5.607   5.137   4.565
26535SOL    HW281380   5.500   5.031   4.548
26536SOL     OW81381  10.641   0.688   3.576
26536SOL    HW181382  10.576   0.746   3.614
26536SOL    HW281383  10.621   0.602   3.613
26537SOL     OW81384  12.404   9.759   7.906
26537SOL    HW181385  12.387   9.853   7.911
26537SOL    HW281386  12.495   9.752   7.880
26538SOL     OW81387   8.172   4.240   3.729
26538SOL    HW181388   8.096   4.297   3.733
26538SOL    HW281389   8.163   4.183   3.806
26539SOL     OW81390  14.283   0.220  12.850
26539SOL    HW181391  14.188   0.211  12.847
26539SOL    HW281392  14.297   0.301  12.899
26540SOL     OW81393   8.039   1.542   8.727
26540SOL    HW181394   7.997   1.584   8.652
26540SOL    HW281395   7.978   1.474   8.754
26541SOL     OW81396  10.858   2.005   8.396
26541SOL    HW181397  10.879   2.090   8.356
26541SOL    HW281398  10.860   2.021   8.490
26542SOL     OW81399  11.731   7.723   7.073
26542SOL    HW181400  11.644   7.740   7.038
26542SOL    HW281401  11.738   7.781   7.149
26543SOL     OW81402   9.138  10.500  14.646
26543SOL    HW181403   9.182  10.416  14.658
26543SOL    HW281404   9.142  10.515  14.551
26544SOL     OW81405   8.855   3.873  12.634
26544SOL    HW181406   8.774   3.921  12.613
26544SOL    HW281407   8.858   3.803  12.568
26545SOL     OW81408  10.680   4.191  14.037
26545SOL    HW181409  10.587   4.184  14.015
26545SOL    HW281410  10.711   4.265  13.985
26546SOL     OW81411   8.709   5.236   6.345
26546SOL    HW181412   8.752   5.157   6.312
26546SOL    HW281413   8.778   5.303   6.343
26547SOL     OW81414  12.927   0.975   1.310
26547SOL    HW181415  12.879   0.927   1.377
26547SOL    HW281416  12.913   0.924   1.230
26548SOL     OW81417   0.266   3.861   3.714
26548SOL    HW181418   0.279   3.952   3.685
26548SOL    HW281419   0.204   3.824   3.652
26549SOL     OW81420   5.121   8.234   3.719
26549SOL    HW181421   5.027   8.246   3.733
26549SOL    HW281422   5.126   8.182   3.639
26550SOL     OW81423   1.630   3.829  13.258
26550SOL    HW181424   1.624   3.919  13.290
26550SOL    HW281425   1.579   3.777  13.320
26551SOL     OW81426   7.117   5.318   3.560
26551SOL    HW181427   7.183   5.378   3.525
26551SOL    HW281428   7.156   5.283   3.640
26552SOL     OW81429   1.056  13.215   6.310
26552SOL    HW181430   1.021  13.263   6.385
26552SOL    HW281431   1.004  13.135   6.305
26553SOL     OW81432   6.485  14.509   3.858
26553SOL    HW181433   6.545  14.436   3.851
26553SOL    HW281434   6.427  14.502   3.782
26554SOL     OW81435   4.157   0.957  14.314
26554SOL    HW181436   4.231   0.982  14.258
26554SOL    HW281437   4.098   1.033  14.310
26555SOL     OW81438   8.885  13.939   4.062
26555SOL    HW181439   8.943  14.009   4.092
26555SOL    HW281440   8.809  13.943   4.119
26556SOL     OW81441   3.602   2.059   8.230
26556SOL    HW181442   3.583   2.004   8.307
26556SOL    HW281443   3.575   2.006   8.155
26557SOL     OW81444   6.511   4.885   1.108
26557SOL    HW181445   6.531   4.901   1.201
26557SOL    HW281446   6.597   4.882   1.066
26558SOL     OW81447   6.009   3.511   5.848
26558SOL    HW181448   5.988   3.432   5.898
26558SOL    HW281449   6.070   3.481   5.781
26559SOL     OW81450   3.314  14.014   4.441
26559SOL    HW181451   3.402  14.049   4.421
26559SOL    HW281452   3.313  14.008   4.537
26560SOL     OW81453  12.920  11.460  13.321
26560SOL    HW181454  12.886  11.434  13.407
26560SOL    HW281455  12.916  11.555  13.322
26561SOL     OW81456   3.254  13.777   2.159
26561SOL    HW181457   3.177  13.832   2.170
26561SOL    HW281458   3.326  13.830   2.194
26562SOL     OW81459   5.685   6.115  11.183
26562SOL    HW181460   5.722   6.123  11.271
26562SOL    HW281461   5.653   6.025  11.178
26563SOL     OW81462   4.914  10.325   4.214
26563SOL    HW181463   4.996  10.318   4.262
26563SOL    HW281464   4.854  10.267   4.260
26564SOL     OW81465   6.102   3.434   2.602
26564SOL    HW181466   6.060   3.350   2.587
26564SOL    HW281467   6.194   3.413   2.616
26565SOL     OW81468   9.790  14.328   6.773
26565SOL    HW181469   9.762  14.299   6.860
26565SOL    HW281470   9.798  14.247   6.722
26566SOL     OW81471  11.378   8.285   2.324
26566SOL    HW181472  11.335   8.286   2.410
26566SOL    HW281473  11.402   8.194   2.311
26567SOL     OW81474   2.109   1.885  14.698
26567SOL    HW181475   2.028   1.843  14.669
26567SOL    HW281476   2.171   1.813  14.707
26568SOL     OW81477   8.341  10.378   2.110
26568SOL    HW181478   8.372  10.329   2.035
26568SOL    HW281479   8.365  10.324   2.186
26569SOL     OW81480   4.128   5.191   1.127
26569SOL    HW181481   4.092   5.216   1.212
26569SOL    HW281482   4.136   5.096   1.131
26570SOL     OW81483   3.406   9.466  12.001
26570SOL    HW181484   3.347   9.410  12.050
26570SOL    HW281485   3.445   9.524  12.067
26571SOL     OW81486   5.612   8.145   4.057
26571SOL    HW181487   5.567   8.212   4.006
26571SOL    HW281488   5.703   8.175   4.060
26572SOL     OW81489   5.216   8.308  11.006
26572SOL    HW181490   5.180   8.362  11.076
26572SOL    HW281491   5.247   8.229  11.051
26573SOL     OW81492   3.504   5.177   6.153
26573SOL    HW181493   3.435   5.163   6.088
26573SOL    HW281494   3.503   5.271   6.170
26574SOL     OW81495   0.395  14.116  14.327
26574SOL    HW181496   0.390  14.024  14.353
26574SOL    HW281497   0.465  14.119  14.262
26575SOL     OW81498  10.092   3.942   1.772
26575SOL    HW181499  10.099   3.982   1.858
26575SOL    HW281500  10.100   3.848   1.788
26576SOL     OW81501  14.681   0.277   6.740
26576SOL    HW181502  14.640   0.192   6.724
26576SOL    HW281503  14.773   0.263   6.719
26577SOL     OW81504   1.033  12.120   4.788
26577SOL    HW181505   1.062  12.206   4.757
26577SOL    HW281506   0.947  12.109   4.749
26578SOL     OW81507   3.467   3.300   7.717
26578SOL    HW181508   3.437   3.359   7.786
26578SOL    HW281509   3.554   3.272   7.745
26579SOL     OW81510  10.468  13.912  13.388
26579SOL    HW181511  10.501  13.974  13.324
26579SOL    HW281512  10.374  13.907  13.372
26580SOL     OW81513   1.625   9.636  10.435
26580SOL    HW181514   1.625   9.730  10.417
26580SOL    HW281515   1.620   9.595  10.348
26581SOL     OW81516   1.221   3.667  14.746
26581SOL    HW181517   1.132   3.683  14.713
26581SOL    HW281518   1.219   3.577  14.778
26582SOL     OW81519   7.058   6.325   7.501
26582SOL    HW181520   7.010   6.407   7.512
26582SOL    HW281521   7.070   6.292   7.590
26583SOL     OW81522   1.090  12.993   5.090
26583SOL    HW181523   1.027  13.040   5.144
26583SOL    HW281524   1.065  13.015   5.000
26584SOL     OW81525   9.894   8.054   6.736
26584SOL    HW181526   9.909   8.119   6.804
26584SOL    HW281527   9.869   7.974   6.783
26585SOL     OW81528   7.202   6.633  10.672
26585SOL    HW181529   7.153   6.654  10.593
26585SOL    HW281530   7.134   6.620  10.739
26586SOL     OW81531   3.375   3.192   7.008
26586SOL    HW181532   3.357   3.099   6.993
26586SOL    HW281533   3.442   3.192   7.077
26587SOL     OW81534   3.075   1.562   9.496
26587SOL    HW181535   3.018   1.490   9.472
26587SOL    HW281536   3.028   1.641   9.468
26588SOL     OW81537   0.818   1.997  12.156
26588SOL    HW181538   0.864   2.077  12.181
26588SOL    HW281539   0.803   1.951  12.239
26589SOL     OW81540  10.893   2.673   8.722
26589SOL    HW181541  10.852   2.721   8.794
26589SOL    HW281542  10.965   2.728   8.694
26590SOL     OW81543  11.305   6.936  11.989
26590SOL    HW181544  11.265   6.989  12.059
26590SOL    HW281545  11.261   6.965  11.909
26591SOL     OW81546   0.004  10.242  11.313
26591SOL    HW181547  14.799  10.281  11.299
26591SOL    HW281548   0.002  10.161  11.261
26592SOL     OW81549  14.657  13.211   8.708
26592SOL    HW181550  14.706  13.214   8.790
26592SOL    HW281551  14.682  13.127   8.668
26593SOL     OW81552   3.186  13.878  11.294
26593SOL    HW181553   3.139  13.958  11.318
26593SOL    HW281554   3.272  13.909  11.265
26594SOL     OW81555  12.131   0.837  12.011
26594SOL    HW181556  12.219   0.808  12.034
26594SOL    HW281557  12.127   0.825  11.916
26595SOL     OW81558   0.899  14.295  11.504
26595SOL    HW181559   0.811  14.333  11.509
26595SOL    HW281560   0.884  14.201  11.490
26596SOL     OW81561   1.152  14.095   6.073
26596SOL    HW181562   1.133  14.091   6.167
26596SOL    HW281563   1.247  14.085   6.067
26597SOL     OW81564  12.228   3.902   1.535
26597SOL    HW181565  12.152   3.868   1.583
26597SOL    HW281566  12.302   3.852   1.569
26598SOL     OW81567  11.595   2.515   7.697
26598SOL    HW181568  11.661   2.523   7.765
26598SOL    HW281569  11.512   2.522   7.743
26599SOL     OW81570  14.450   7.900   6.269
26599SOL    HW181571  14.533   7.946   6.284
26599SOL    HW281572  14.437   7.848   6.349
26600SOL     OW81573   7.499  14.198   6.324
26600SOL    HW181574   7.473  14.132   6.260
26600SOL    HW281575   7.455  14.172   6.405
26601SOL     OW81576   6.258  10.444   2.051
26601SOL    HW181577   6.327  10.441   2.117
26601SOL    HW281578   6.298  10.408   1.972
26602SOL     OW81579   4.466  11.394   0.130
26602SOL    HW181580   4.556  11.397   0.098
26602SOL    HW281581   4.456  11.475   0.180
26603SOL     OW81582  12.303   2.364   1.838
26603SOL    HW181583  12.317   2.319   1.755
26603SOL    HW281584  12.227   2.320   1.876
26604SOL     OW81585   7.817  14.397  14.399
26604SOL    HW181586   7.908  14.393  14.428
26604SOL    HW281587   7.776  14.320  14.439
26605SOL     OW81588   6.960   3.332  10.873
26605SOL    HW181589   7.039   3.383  10.854
26605SOL    HW281590   6.990   3.242  10.877
26606SOL     OW81591  13.115   4.474  10.830
26606SOL    HW181592  13.023   4.452  10.844
26606SOL    HW281593  13.155   4.393  10.799
26607SOL     OW81594  13.140  10.069   0.154
26607SOL    HW181595  13.169  10.049   0.244
26607SOL    HW281596  13.215  10.044   0.100
26608SOL     OW81597   1.453   2.517   2.769
26608SOL    HW181598   1.437   2.610   2.786
26608SOL    HW281599   1.366   2.477   2.768
26609SOL     OW81600  13.476  12.190   5.153
26609SOL    HW181601  13.500  12.150   5.237
26609SOL    HW281602  13.430  12.121   5.106
26610SOL     OW81603   6.782  12.216   6.780
26610SOL    HW181604   6.714  12.175   6.726
26610SOL    HW281605   6.861  12.209   6.726
26611SOL     OW81606  11.840   0.501   5.869
26611SOL    HW181607  11.893   0.422   5.867
26611SOL    HW281608  11.799   0.501   5.956
26612SOL     OW81609   7.410   2.721   5.853
26612SOL    HW181610   7.419   2.706   5.759
26612SOL    HW281611   7.337   2.783   5.861
26613SOL     OW81612  10.973   6.080   4.997
26613SOL    HW181613  10.986   6.174   4.998
26613SOL    HW281614  10.931   6.060   5.081
26614SOL     OW81615   5.596   8.292   6.673
26614SOL    HW181616   5.600   8.379   6.714
26614SOL    HW281617   5.687   8.273   6.652
26615SOL     OW81618   0.816   7.656   8.659
26615SOL    HW181619   0.893   7.599   8.666
26615SOL    HW281620   0.791   7.674   8.750
26616SOL     OW81621   9.409   4.836   6.204
26616SOL    HW181622   9.344   4.792   6.149
26616SOL    HW281623   9.381   4.928   6.206
26617SOL     OW81624   9.107   5.858   2.207
26617SOL    HW181625   9.125   5.951   2.201
26617SOL    HW281626   9.193   5.816   2.201
26618SOL     OW81627   3.813  12.335  13.310
26618SOL    HW181628   3.850  12.248  13.301
26618SOL    HW281629   3.885  12.389  13.341
26619SOL     OW81630   8.029  13.835  10.054
26619SOL    HW181631   7.974  13.864  10.127
26619SOL    HW281632   7.984  13.867   9.976
26620SOL     OW81633   7.572  14.452  10.576
26620SOL    HW181634   7.479  14.476  10.579
26620SOL    HW281635   7.572  14.357  10.576
26621SOL     OW81636   1.207   1.717   9.470
26621SOL    HW181637   1.170   1.635   9.503
26621SOL    HW281638   1.290   1.726   9.518
26622SOL     OW81639   3.073   5.935   4.029
26622SOL    HW181640   3.019   5.990   3.972
26622SOL    HW281641   3.160   5.974   4.024
26623SOL     OW81642   5.149   5.045   3.489
26623SOL    HW181643   5.098   5.029   3.409
26623SOL    HW281644   5.210   4.971   3.493
26624SOL     OW81645   6.320   9.014  12.679
26624SOL    HW181646   6.321   8.939  12.619
26624SOL    HW281647   6.235   9.009  12.723
26625SOL     OW81648   6.725   3.048   4.526
26625SOL    HW181649   6.710   3.110   4.456
26625SOL    HW281650   6.772   3.097   4.593
26626SOL     OW81651   6.466   1.293  12.970
26626SOL    HW181652   6.537   1.298  13.034
26626SOL    HW281653   6.444   1.385  12.952
26627SOL     OW81654   7.688   1.364   9.007
26627SOL    HW181655   7.710   1.332   9.094
26627SOL    HW281656   7.772   1.369   8.962
26628SOL     OW81657  13.662   7.838   4.228
26628SOL    HW181658  13.741   7.826   4.176
26628SOL    HW281659  13.632   7.750   4.247
26629SOL     OW81660  11.436   2.248   3.524
26629SOL    HW181661  11.506   2.282   3.580
26629SOL    HW281662  11.362   2.307   3.540
26630SOL     OW81663   3.558   8.765   3.083
26630SOL    HW181664   3.604   8.810   3.011
26630SOL    HW281665   3.601   8.680   3.088
26631SOL     OW81666   1.307   6.063   2.318
26631SOL    HW181667   1.379   6.078   2.257
26631SOL    HW281668   1.315   5.971   2.343
26632SOL     OW81669   1.910   0.289  12.689
26632SOL    HW181670   1.968   0.356  12.654
26632SOL    HW281671   1.968   0.226  12.731
26633SOL     OW81672   8.044   4.822   4.089
26633SOL    HW181673   8.025   4.728   4.086
26633SOL    HW281674   8.076   4.842   4.001
26634SOL     OW81675   5.559  10.630   9.786
26634SOL    HW181676   5.569  10.687   9.862
26634SOL    HW281677   5.645  10.630   9.745
26635SOL     OW81678   4.812   3.357   3.451
26635SOL    HW181679   4.888   3.302   3.433
26635SOL    HW281680   4.778   3.324   3.534
26636SOL     OW81681  11.134  14.027   5.544
26636SOL    HW181682  11.194  14.033   5.469
26636SOL    HW281683  11.176  13.966   5.604
26637SOL     OW81684   3.566   8.043  14.725
26637SOL    HW181685   3.536   7.988  14.798
26637SOL    HW281686   3.610   7.981  14.666
26638SOL     OW81687  10.958   1.705   9.147
26638SOL    HW181688  10.967   1.613   9.121
26638SOL    HW281689  11.047   1.740   9.138
26639SOL     OW81690  12.733   5.012  12.640
26639SOL    HW181691  12.701   4.925  12.617
26639SOL    HW281692  12.704   5.025  12.730
26640SOL     OW81693   8.871  10.996   7.642
26640SOL    HW181694   8.782  10.965   7.625
26640SOL    HW281695   8.898  11.038   7.561
26641SOL     OW81696   4.825   9.844   0.855
26641SOL    HW181697   4.913   9.808   0.861
26641SOL    HW281698   4.827   9.921   0.912
26642SOL     OW81699   9.297   3.972  14.856
26642SOL    HW181700   9.230   4.003  14.795
26642SOL    HW281701   9.327   4.051   0.021
26643SOL     OW81702   6.432  11.254  11.054
26643SOL    HW181703   6.386  11.302  10.984
26643SOL    HW281704   6.521  11.243  11.021
26644SOL     OW81705  14.263   6.843  11.972
26644SOL    HW181706  14.347   6.796  11.965
26644SOL    HW281707  14.288   6.935  11.975
26645SOL     OW81708   7.862  13.908  14.757
26645SOL    HW181709   7.827  13.954  14.834
26645SOL    HW281710   7.790  13.851  14.729
26646SOL     OW81711   3.549   8.368   2.789
26646SOL    HW181712   3.522   8.345   2.878
26646SOL    HW281713   3.484   8.434   2.762
26647SOL     OW81714   6.545   9.924   0.713
26647SOL    HW181715   6.625   9.965   0.681
26647SOL    HW281716   6.513   9.982   0.781
26648SOL     OW81717  12.720   8.110   7.050
26648SOL    HW181718  12.791   8.106   6.986
26648SOL    HW281719  12.762   8.088   7.133
26649SOL     OW81720   0.450   5.273   2.738
26649SOL    HW181721   0.450   5.342   2.805
26649SOL    HW281722   0.432   5.319   2.656
26650SOL     OW81723  14.167   8.064   7.786
26650SOL    HW181724  14.144   8.026   7.871
26650SOL    HW281725  14.095   8.038   7.728
26651SOL     OW81726   3.755   5.328  11.303
26651SOL    HW181727   3.690   5.337  11.373
26651SOL    HW281728   3.829   5.285  11.346
26652SOL     OW81729   3.636   1.494  12.711
26652SOL    HW181730   3.566   1.554  12.686
26652SOL    HW281731   3.715   1.547  12.707
26653SOL     OW81732   5.517   3.945   3.458
26653SOL    HW181733   5.532   4.022   3.403
26653SOL    HW281734   5.421   3.937   3.462
26654SOL     OW81735   7.503   4.146   0.722
26654SOL    HW181736   7.560   4.191   0.785
26654SOL    HW281737   7.534   4.174   0.636
26655SOL     OW81738   8.161   5.058   3.524
26655SOL    HW181739   8.170   5.060   3.620
26655SOL    HW281740   8.197   4.974   3.498
26656SOL     OW81741   7.358  12.539   4.374
26656SOL    HW181742   7.370  12.485   4.297
26656SOL    HW281743   7.327  12.623   4.340
26657SOL     OW81744   2.067   8.842   0.146
26657SOL    HW181745   2.080   8.865   0.054
26657SOL    HW281746   2.016   8.914   0.182
26658SOL     OW81747  13.222  12.356   7.498
26658SOL    HW181748  13.271  12.280   7.465
26658SOL    HW281749  13.289  12.412   7.537
26659SOL     OW81750   6.721   4.664  13.538
26659SOL    HW181751   6.704   4.699  13.451
26659SOL    HW281752   6.661   4.712  13.595
26660SOL     OW81753   1.096  10.904   2.468
26660SOL    HW181754   1.123  10.827   2.420
26660SOL    HW281755   1.145  10.977   2.429
26661SOL     OW81756   6.298   9.923   1.012
26661SOL    HW181757   6.374   9.963   0.970
26661SOL    HW281758   6.305   9.949   1.104
26662SOL     OW81759   4.247   7.419  11.166
26662SOL    HW181760   4.265   7.485  11.098
26662SOL    HW281761   4.246   7.469  11.248
26663SOL     OW81762  10.515  13.999   5.736
26663SOL    HW181763  10.493  13.948   5.658
26663SOL    HW281764  10.607  13.980   5.753
26664SOL     OW81765  12.536   6.189   8.899
26664SOL    HW181766  12.552   6.202   8.806
26664SOL    HW281767  12.573   6.103   8.919
26665SOL     OW81768   6.032   1.814  13.939
26665SOL    HW181769   6.098   1.882  13.946
26665SOL    HW281770   6.016   1.786  14.029
26666SOL     OW81771  12.919   7.442   5.773
26666SOL    HW181772  12.927   7.470   5.682
26666SOL    HW281773  12.943   7.349   5.771
26667SOL     OW81774   0.762   6.745   4.692
26667SOL    HW181775   0.850   6.776   4.712
26667SOL    HW281776   0.771   6.700   4.608
26668SOL     OW81777  10.691   6.715  10.113
26668SOL    HW181778  10.598   6.705  10.130
26668SOL    HW281779  10.723   6.771  10.184
26669SOL     OW81780  12.753   2.044  10.978
26669SOL    HW181781  12.685   2.059  10.912
26669SOL    HW281782  12.832   2.085  10.942
26670SOL     OW81783   7.538   5.821   9.473
26670SOL    HW181784   7.508   5.737   9.509
26670SOL    HW281785   7.542   5.879   9.549
26671SOL     OW81786   7.473   0.519   8.589
26671SOL    HW181787   7.437   0.607   8.574
26671SOL    HW281788   7.414   0.480   8.654
26672SOL     OW81789   0.053  10.594   4.709
26672SOL    HW181790   0.023  10.646   4.634
26672SOL    HW281791  14.855  10.554   4.744
26673SOL     OW81792  12.026  12.366   5.282
26673SOL    HW181793  11.957  12.427   5.255
26673SOL    HW281794  12.095  12.422   5.316
26674SOL     OW81795   4.051   8.728   9.511
26674SOL    HW181796   3.958   8.713   9.497
26674SOL    HW281797   4.093   8.649   9.475
26675SOL     OW81798   6.536   5.378  13.897
26675SOL    HW181799   6.497   5.459  13.865
26675SOL    HW281800   6.576   5.402  13.981
26676SOL     OW81801   7.438   3.017   3.828
26676SOL    HW181802   7.533   3.012   3.824
26676SOL    HW281803   7.421   3.099   3.875
26677SOL     OW81804  13.999   3.966   2.154
26677SOL    HW181805  13.947   4.044   2.133
26677SOL    HW281806  13.986   3.908   2.078
26678SOL     OW81807   7.621  13.537  11.107
26678SOL    HW181808   7.711  13.508  11.122
26678SOL    HW281809   7.631  13.623  11.065
26679SOL     OW81810   6.264   9.168   3.726
26679SOL    HW181811   6.177   9.128   3.724
26679SOL    HW281812   6.322   9.098   3.756
26680SOL     OW81813   0.533   7.781  12.001
26680SOL    HW181814   0.531   7.725  11.923
26680SOL    HW281815   0.534   7.871  11.966
26681SOL     OW81816   5.238   4.069   3.052
26681SOL    HW181817   5.232   4.137   2.985
26681SOL    HW281818   5.224   3.987   3.005
26682SOL     OW81819   1.164  11.725  14.490
26682SOL    HW181820   1.219  11.800  14.467
26682SOL    HW281821   1.222  11.667  14.540
26683SOL     OW81822   7.399   4.289   7.187
26683SOL    HW181823   7.336   4.359   7.203
26683SOL    HW281824   7.452   4.286   7.267
26684SOL     OW81825   7.702   9.237   7.207
26684SOL    HW181826   7.725   9.147   7.233
26684SOL    HW281827   7.780   9.289   7.227
26685SOL     OW81828  11.008   8.969   6.289
26685SOL    HW181829  11.026   8.898   6.351
26685SOL    HW281830  11.010   9.048   6.343
26686SOL     OW81831   0.662   6.331   7.755
26686SOL    HW181832   0.715   6.273   7.701
26686SOL    HW281833   0.577   6.333   7.712
26687SOL     OW81834   9.248  14.086   7.046
26687SOL    HW181835   9.252  14.131   7.130
26687SOL    HW281836   9.194  14.009   7.063
26688SOL     OW81837  13.507  12.694   9.567
26688SOL    HW181838  13.477  12.612   9.527
26688SOL    HW281839  13.430  12.729   9.611
26689SOL     OW81840   6.634   5.604   1.366
26689SOL    HW181841   6.590   5.687   1.350
26689SOL    HW281842   6.631   5.593   1.461
26690SOL     OW81843  14.052   9.557   3.764
26690SOL    HW181844  14.048   9.546   3.859
26690SOL    HW281845  14.119   9.496   3.735
26691SOL     OW81846   1.884   7.113   6.006
26691SOL    HW181847   1.895   7.043   5.942
26691SOL    HW281848   1.972   7.148   6.019
26692SOL     OW81849   0.564  14.292  12.342
26692SOL    HW181850   0.480  14.248  12.353
26692SOL    HW281851   0.629  14.231  12.377
26693SOL     OW81852  11.866   8.939  11.750
26693SOL    HW181853  11.820   8.946  11.666
26693SOL    HW281854  11.797   8.941  11.815
26694SOL     OW81855   2.109   3.022  13.218
26694SOL    HW181856   2.092   3.116  13.226
26694SOL    HW281857   2.144   2.997  13.304
26695SOL     OW81858   6.584   2.624   4.575
26695SOL    HW181859   6.631   2.625   4.658
26695SOL    HW281860   6.547   2.712   4.568
26696SOL     OW81861   8.797  14.534  13.375
26696SOL    HW181862   8.718  14.480  13.372
26696SOL    HW281863   8.770  14.618  13.337
26697SOL     OW81864   5.558   6.640   1.418
26697SOL    HW181865   5.641   6.615   1.377
26697SOL    HW281866   5.494   6.577   1.383
26698SOL     OW81867   5.472  14.331  14.205
26698SOL    HW181868   5.390  14.367  14.238
26698SOL    HW281869   5.480  14.246  14.249
26699SOL     OW81870  12.147   0.516   2.525
26699SOL    HW181871  12.136   0.498   2.432
26699SOL    HW281872  12.209   0.589   2.528
26700SOL     OW81873  10.012  11.238  11.127
26700SOL    HW181874   9.937  11.281  11.086
26700SOL    HW281875   9.993  11.144  11.119
26701SOL     OW81876   7.566  11.089   1.364
26701SOL    HW181877   7.519  11.140   1.299
26701SOL    HW281878   7.507  11.018   1.388
26702SOL     OW81879   5.980   3.129   0.159
26702SOL    HW181880   6.068   3.137   0.194
26702SOL    HW281881   5.953   3.040   0.181
26703SOL     OW81882   4.375   8.630   3.581
26703SOL    HW181883   4.384   8.707   3.526
26703SOL    HW281884   4.438   8.642   3.651
26704SOL     OW81885   2.833   6.826   9.638
26704SOL    HW181886   2.772   6.785   9.576
26704SOL    HW281887   2.785   6.900   9.673
26705SOL     OW81888   3.276   1.597   5.765
26705SOL    HW181889   3.257   1.690   5.782
26705SOL    HW281890   3.339   1.599   5.692
26706SOL     OW81891   1.855   3.167   0.554
26706SOL    HW181892   1.947   3.191   0.565
26706SOL    HW281893   1.810   3.250   0.540
26707SOL     OW81894  11.089   7.837  13.558
26707SOL    HW181895  11.019   7.811  13.499
26707SOL    HW281896  11.160   7.865  13.500
26708SOL     OW81897   6.673   2.298   5.402
26708SOL    HW181898   6.723   2.257   5.472
26708SOL    HW281899   6.606   2.233   5.380
26709SOL     OW81900  14.447  10.454   9.424
26709SOL    HW181901  14.402  10.503   9.493
26709SOL    HW281902  14.514  10.405   9.470
26710SOL     OW81903   1.944  13.478   6.788
26710SOL    HW181904   1.937  13.471   6.883
26710SOL    HW281905   2.026  13.524   6.773
26711SOL     OW81906   0.287  11.527   4.207
26711SOL    HW181907   0.233  11.600   4.177
26711SOL    HW281908   0.263  11.516   4.299
26712SOL     OW81909   7.878   4.768   1.780
26712SOL    HW181910   7.936   4.777   1.704
26712SOL    HW281911   7.791   4.757   1.743
26713SOL     OW81912   5.951   8.587   0.531
26713SOL    HW181913   5.957   8.497   0.562
26713SOL    HW281914   5.979   8.582   0.439
26714SOL     OW81915   0.986  11.684   0.429
26714SOL    HW181916   0.966  11.596   0.398
26714SOL    HW281917   0.943  11.742   0.366
26715SOL     OW81918  12.974  14.059   9.810
26715SOL    HW181919  13.002  13.974   9.843
26715SOL    HW281920  12.885  14.070   9.844
26716SOL     OW81921   9.075  13.364   8.919
26716SOL    HW181922   9.008  13.424   8.952
26716SOL    HW281923   9.141  13.361   8.988
26717SOL     OW81924   9.291  12.751   0.860
26717SOL    HW181925   9.381  12.759   0.830
26717SOL    HW281926   9.273  12.657   0.855
26718SOL     OW81927  12.414  13.683   1.827
26718SOL    HW181928  12.415  13.740   1.904
26718SOL    HW281929  12.486  13.622   1.840
26719SOL     OW81930   8.509   9.197   6.455
26719SOL    HW181931   8.556   9.122   6.492
26719SOL    HW281932   8.517   9.186   6.361
26720SOL     OW81933   2.687  10.484   5.946
26720SOL    HW181934   2.737  10.414   5.987
26720SOL    HW281935   2.740  10.562   5.957
26721SOL     OW81936  12.207   3.818   4.364
26721SOL    HW181937  12.233   3.833   4.273
26721SOL    HW281938  12.276   3.860   4.416
26722SOL     OW81939   3.346   3.954   0.180
26722SOL    HW181940   3.332   3.880   0.120
26722SOL    HW281941   3.355   4.030   0.123
26723SOL     OW81942   1.312   8.747   4.521
26723SOL    HW181943   1.354   8.828   4.550
26723SOL    HW281944   1.354   8.727   4.437
26724SOL     OW81945  12.550   3.521   6.424
26724SOL    HW181946  12.501   3.549   6.347
26724SOL    HW281947  12.482   3.492   6.486
26725SOL     OW81948   3.453  14.739  10.174
26725SOL    HW181949   3.505  14.687  10.236
26725SOL    HW281950   3.401  14.797  10.229
26726SOL     OW81951  10.275   6.169   5.276
26726SOL    HW181952  10.327   6.245   5.251
26726SOL    HW281953  10.332   6.094   5.260
26727SOL     OW81954  10.035   4.741  11.105
26727SOL    HW181955   9.949   4.700  11.112
26727SOL    HW281956  10.038   4.777  11.016
26728SOL     OW81957  14.130   7.712   2.732
26728SOL    HW181958  14.102   7.685   2.644
26728SOL    HW281959  14.202   7.773   2.715
26729SOL     OW81960  14.433   2.492   5.739
26729SOL    HW181961  14.446   2.526   5.651
26729SOL    HW281962  14.480   2.553   5.796
26730SOL     OW81963   6.520   8.040   6.873
26730SOL    HW181964   6.571   8.106   6.919
26730SOL    HW281965   6.448   8.089   6.833
26731SOL     OW81966   9.068  14.019   3.381
26731SOL    HW181967   8.976  13.996   3.396
26731SOL    HW281968   9.093  14.067   3.460
26732SOL     OW81969  10.447  14.356  13.057
26732SOL    HW181970  10.541  14.372  13.062
26732SOL    HW281971  10.413  14.426  13.000
26733SOL     OW81972  10.358  11.985   8.974
26733SOL    HW181973  10.337  11.899   8.937
26733SOL    HW281974  10.278  12.013   9.018
26734SOL     OW81975   6.982   9.534  12.586
26734SOL    HW181976   6.948   9.464  12.531
26734SOL    HW281977   6.908   9.558  12.643
26735SOL     OW81978  11.174   8.069  13.352
26735SOL    HW181979  11.187   8.132  13.281
26735SOL    HW281980  11.194   8.118  13.432
26736SOL     OW81981   6.806   9.318  12.484
26736SOL    HW181982   6.760   9.336  12.567
26736SOL    HW281983   6.864   9.245  12.505
26737SOL     OW81984   8.191  13.547   1.740
26737SOL    HW181985   8.208  13.638   1.714
26737SOL    HW281986   8.241  13.494   1.677
26738SOL     OW81987   4.402  14.866  12.680
26738SOL    HW181988   4.336  14.797  12.679
26738SOL    HW281989   4.357   0.060  12.718
26739SOL     OW81990   3.598   7.525  13.198
26739SOL    HW181991   3.630   7.437  13.177
26739SOL    HW281992   3.505   7.512  13.217
26740SOL     OW81993   5.970   4.211  12.234
26740SOL    HW181994   6.008   4.290  12.196
26740SOL    HW281995   5.990   4.142  12.172
26741SOL     OW81996   3.968   9.316   1.312
26741SOL    HW181997   3.916   9.245   1.349
26741SOL    HW281998   3.917   9.348   1.238
26742SOL     OW81999  11.264  13.476   2.355
26742SOL    HW182000  11.278  13.440   2.267
26742SOL    HW282001  11.180  13.521   2.349
26743SOL     OW82002  12.971   1.689   8.702
26743SOL    HW182003  13.038   1.758   8.708
26743SOL    HW282004  13.018   1.614   8.666
26744SOL     OW82005   3.429   5.541   7.858
26744SOL    HW182006   3.358   5.575   7.805
26744SOL    HW282007   3.420   5.585   7.942
26745SOL     OW82008   6.582   4.463  12.450
26745SOL    HW182009   6.502   4.444  12.499
26745SOL    HW282010   6.561   4.541  12.399
26746SOL     OW82011   7.914   8.994  13.414
26746SOL    HW182012   7.932   9.071  13.469
26746SOL    HW282013   7.960   9.013  13.332
26747SOL     OW82014   5.414   0.428  10.921
26747SOL    HW182015   5.399   0.495  10.988
26747SOL    HW282016   5.350   0.447  10.853
26748SOL     OW82017   3.183  14.579   3.094
26748SOL    HW182018   3.215  14.643   3.031
26748SOL    HW282019   3.213  14.612   3.179
26749SOL     OW82020   4.277  12.445   6.279
26749SOL    HW182021   4.184  12.468   6.287
26749SOL    HW282022   4.317  12.522   6.240
26750SOL     OW82023   0.608  14.338  11.060
26750SOL    HW182024   0.592  14.416  11.007
26750SOL    HW282025   0.701  14.321  11.050
26751SOL     OW82026   3.241   2.793   2.190
26751SOL    HW182027   3.280   2.878   2.170
26751SOL    HW282028   3.307   2.748   2.242
26752SOL     OW82029  12.486   1.529   6.899
26752SOL    HW182030  12.559   1.590   6.904
26752SOL    HW282031  12.408   1.585   6.894
26753SOL     OW82032  12.533   6.835  10.102
26753SOL    HW182033  12.496   6.900  10.163
26753SOL    HW282034  12.598   6.885  10.052
26754SOL     OW82035   4.941  12.018  14.258
26754SOL    HW182036   4.905  11.934  14.285
26754SOL    HW282037   4.948  12.068  14.339
26755SOL     OW82038   7.192   1.153  10.181
26755SOL    HW182039   7.119   1.158  10.119
26755SOL    HW282040   7.267   1.127  10.128
26756SOL     OW82041   4.577  12.042  13.318
26756SOL    HW182042   4.582  12.003  13.405
26756SOL    HW282043   4.495  12.009  13.281
26757SOL     OW82044   2.853   7.509   5.031
26757SOL    HW182045   2.830   7.423   4.995
26757SOL    HW282046   2.771   7.543   5.067
26758SOL     OW82047  11.910   6.088   8.627
26758SOL    HW182048  11.898   6.178   8.596
26758SOL    HW282049  11.877   6.034   8.556
26759SOL     OW82050  10.752   8.444  11.726
26759SOL    HW182051  10.757   8.423  11.819
26759SOL    HW282052  10.807   8.378  11.683
26760SOL     OW82053  14.522   5.852   4.898
26760SOL    HW182054  14.565   5.786   4.953
26760SOL    HW282055  14.434   5.819   4.884
26761SOL     OW82056   3.520   0.836  10.187
26761SOL    HW182057   3.595   0.811  10.241
26761SOL    HW282058   3.477   0.906  10.237
26762SOL     OW82059  12.526  13.363   1.252
26762SOL    HW182060  12.564  13.296   1.308
26762SOL    HW282061  12.517  13.320   1.166
26763SOL     OW82062  12.155  12.515   3.797
26763SOL    HW182063  12.111  12.598   3.780
26763SOL    HW282064  12.085  12.457   3.826
26764SOL     OW82065   6.364  12.699   0.963
26764SOL    HW182066   6.385  12.753   0.887
26764SOL    HW282067   6.387  12.610   0.936
26765SOL     OW82068   7.789   2.546  12.271
26765SOL    HW182069   7.793   2.491  12.193
26765SOL    HW282070   7.757   2.630  12.239
26766SOL     OW82071  14.387  13.062  10.842
26766SOL    HW182072  14.298  13.067  10.808
26766SOL    HW282073  14.406  12.968  10.845
26767SOL     OW82074  12.154  10.208   5.100
26767SOL    HW182075  12.079  10.172   5.053
26767SOL    HW282076  12.196  10.131   5.140
26768SOL     OW82077  12.375  12.132   6.701
26768SOL    HW182078  12.366  12.097   6.790
26768SOL    HW282079  12.367  12.055   6.645
26769SOL     OW82080  10.512   2.671   0.261
26769SOL    HW182081  10.482   2.620   0.185
26769SOL    HW282082  10.434   2.677   0.317
26770SOL     OW82083   4.030   1.146   8.780
26770SOL    HW182084   3.949   1.152   8.729
26770SOL    HW282085   4.049   1.236   8.805
26771SOL     OW82086   2.376  10.637   0.537
26771SOL    HW182087   2.308  10.681   0.589
26771SOL    HW282088   2.338  10.553   0.513
26772SOL     OW82089   4.063   0.241   0.873
26772SOL    HW182090   4.101   0.298   0.939
26772SOL    HW282091   4.083   0.153   0.903
26773SOL     OW82092   4.363   2.561   0.625
26773SOL    HW182093   4.446   2.607   0.611
26773SOL    HW282094   4.307   2.625   0.670
26774SOL     OW82095  10.892  12.888  13.696
26774SOL    HW182096  10.815  12.836  13.676
26774SOL    HW282097  10.884  12.966  13.641
26775SOL     OW82098   2.681   4.413   3.721
26775SOL    HW182099   2.650   4.484   3.777
26775SOL    HW282100   2.706   4.344   3.782
26776SOL     OW82101  14.119  14.728   8.460
26776SOL    HW182102  14.124  14.674   8.539
26776SOL    HW282103  14.203  14.774   8.458
26777SOL     OW82104   1.127   1.833   9.247
26777SOL    HW182105   1.034   1.851   9.250
26777SOL    HW282106   1.153   1.822   9.338
26778SOL     OW82107   7.657   8.676  11.496
26778SOL    HW182108   7.745   8.711  11.509
26778SOL    HW282109   7.649   8.606  11.561
26779SOL     OW82110  13.399   8.848   9.944
26779SOL    HW182111  13.394   8.899  10.025
26779SOL    HW282112  13.370   8.760   9.969
26780SOL     OW82113  13.243   5.130   8.111
26780SOL    HW182114  13.165   5.096   8.153
26780SOL    HW282115  13.294   5.053   8.087
26781SOL     OW82116   2.612   5.153  11.536
26781SOL    HW182117   2.686   5.213  11.541
26781SOL    HW282118   2.592   5.146  11.442
26782SOL     OW82119   7.080  13.182  14.211
26782SOL    HW182120   7.006  13.242  14.212
26782SOL    HW282121   7.156  13.237  14.192
26783SOL     OW82122   6.443   6.304  14.121
26783SOL    HW182123   6.400   6.273  14.041
26783SOL    HW282124   6.520   6.351  14.090
26784SOL     OW82125  11.994  11.532   4.582
26784SOL    HW182126  12.025  11.446   4.553
26784SOL    HW282127  11.921  11.552   4.523
26785SOL     OW82128   3.072   5.100  14.373
26785SOL    HW182129   3.154   5.114  14.327
26785SOL    HW282130   3.059   5.005  14.370
26786SOL     OW82131   5.864  13.647  10.354
26786SOL    HW182132   5.861  13.563  10.399
26786SOL    HW282133   5.774  13.680  10.357
26787SOL     OW82134  13.913   1.227  11.743
26787SOL    HW182135  13.879   1.304  11.698
26787SOL    HW282136  13.904   1.156  11.680
26788SOL     OW82137   7.972  10.019   0.169
26788SOL    HW182138   8.023   9.946   0.132
26788SOL    HW282139   7.908  10.040   0.101
26789SOL     OW82140   5.416   3.723   5.375
26789SOL    HW182141   5.480   3.786   5.342
26789SOL    HW282142   5.387   3.759   5.459
26790SOL     OW82143  11.212  11.015   2.229
26790SOL    HW182144  11.129  10.975   2.204
26790SOL    HW282145  11.243  10.961   2.302
26791SOL     OW82146   8.996   7.087   6.804
26791SOL    HW182147   9.011   7.119   6.893
26791SOL    HW282148   9.080   7.099   6.760
26792SOL     OW82149   9.713   7.776   4.850
26792SOL    HW182150   9.638   7.797   4.794
26792SOL    HW282151   9.675   7.728   4.924
26793SOL     OW82152   7.967   5.105   0.222
26793SOL    HW182153   7.889   5.160   0.215
26793SOL    HW282154   7.998   5.095   0.132
26794SOL     OW82155   9.304   0.005   5.023
26794SOL    HW182156   9.388   0.051   5.016
26794SOL    HW282157   9.306  14.823   4.951
26795SOL     OW82158   8.975   3.863   1.421
26795SOL    HW182159   8.904   3.865   1.485
26795SOL    HW282160   8.973   3.950   1.380
26796SOL     OW82161   5.624   2.862   9.674
26796SOL    HW182162   5.710   2.823   9.688
26796SOL    HW282163   5.635   2.953   9.702
26797SOL     OW82164   1.998   2.034   0.021
26797SOL    HW182165   2.053   1.996  14.834
26797SOL    HW282166   2.047   2.111   0.051
26798SOL     OW82167   7.323   0.677   4.874
26798SOL    HW182168   7.341   0.636   4.790
26798SOL    HW282169   7.278   0.759   4.852
26799SOL     OW82170   4.387   4.838  11.053
26799SOL    HW182171   4.369   4.828  11.146
26799SOL    HW282172   4.463   4.783  11.037
26800SOL     OW82173   6.975  10.141   6.176
26800SOL    HW182174   6.916  10.103   6.111
26800SOL    HW282175   7.060  10.098   6.160
26801SOL     OW82176  11.834   0.376   3.200
26801SOL    HW182177  11.905   0.441   3.199
26801SOL    HW282178  11.816   0.360   3.107
26802SOL     OW82179   1.512   5.678  13.101
26802SOL    HW182180   1.591   5.731  13.112
26802SOL    HW282181   1.518   5.646  13.010
26803SOL     OW82182   3.679  14.611   8.884
26803SOL    HW182183   3.619  14.670   8.929
26803SOL    HW282184   3.727  14.567   8.955
26804SOL     OW82185   7.250  14.709  11.476
26804SOL    HW182186   7.261  14.743  11.387
26804SOL    HW282187   7.280  14.618  11.471
26805SOL     OW82188  12.964   4.703   5.703
26805SOL    HW182189  12.997   4.683   5.791
26805SOL    HW282190  13.043   4.716   5.651
26806SOL     OW82191   2.317  10.210   2.528
26806SOL    HW182192   2.275  10.254   2.602
26806SOL    HW282193   2.314  10.117   2.550
26807SOL     OW82194   7.179   2.335   9.318
26807SOL    HW182195   7.178   2.343   9.223
26807SOL    HW282196   7.159   2.243   9.335
26808SOL     OW82197   6.292   0.173   1.557
26808SOL    HW182198   6.237   0.191   1.481
26808SOL    HW282199   6.259   0.231   1.626
26809SOL     OW82200  12.985   3.314   8.039
26809SOL    HW182201  13.070   3.283   8.009
26809SOL    HW282202  12.954   3.245   8.098
26810SOL     OW82203   7.537  14.727   4.518
26810SOL    HW182204   7.459  14.776   4.544
26810SOL    HW282205   7.503  14.643   4.487
26811SOL     OW82206   6.704   2.197   8.945
26811SOL    HW182207   6.703   2.102   8.947
26811SOL    HW282208   6.618   2.222   8.911
26812SOL     OW82209   4.202   1.026   0.534
26812SOL    HW182210   4.115   1.065   0.529
26812SOL    HW282211   4.195   0.962   0.606
26813SOL     OW82212   6.546  13.887   0.604
26813SOL    HW182213   6.505  13.895   0.690
26813SOL    HW282214   6.611  13.817   0.614
26814SOL     OW82215  12.445   0.581   6.740
26814SOL    HW182216  12.382   0.616   6.803
26814SOL    HW282217  12.528   0.579   6.787
26815SOL     OW82218  13.296  12.074   8.522
26815SOL    HW182219  13.282  12.015   8.596
26815SOL    HW282220  13.208  12.099   8.494
26816SOL     OW82221   5.917   2.056   8.280
26816SOL    HW182222   5.957   2.057   8.194
26816SOL    HW282223   5.901   1.963   8.298
26817SOL     OW82224   1.721  11.514  10.855
26817SOL    HW182225   1.669  11.558  10.922
26817SOL    HW282226   1.657  11.482  10.792
26818SOL     OW82227   7.428  14.218   9.724
26818SOL    HW182228   7.421  14.206   9.629
26818SOL    HW282229   7.454  14.310   9.734
26819SOL     OW82230   7.599   7.226   0.811
26819SOL    HW182231   7.674   7.222   0.869
26819SOL    HW282232   7.524   7.237   0.869
26820SOL     OW82233   6.409   3.609  14.500
26820SOL    HW182234   6.321   3.601  14.536
26820SOL    HW282235   6.435   3.519  14.481
26821SOL     OW82236   3.891   4.378  11.831
26821SOL    HW182237   3.803   4.405  11.808
26821SOL    HW282238   3.887   4.282  11.835
26822SOL     OW82239   7.685  10.248   8.400
26822SOL    HW182240   7.664  10.339   8.379
26822SOL    HW282241   7.600  10.208   8.417
26823SOL     OW82242   9.433  11.693   7.972
26823SOL    HW182243   9.477  11.712   8.054
26823SOL    HW282244   9.341  11.714   7.988
26824SOL     OW82245   3.820   4.726   6.676
26824SOL    HW182246   3.741   4.769   6.709
26824SOL    HW282247   3.788   4.664   6.611
26825SOL     OW82248  11.915   1.110   9.222
26825SOL    HW182249  11.865   1.139   9.298
26825SOL    HW282250  11.881   1.163   9.149
26826SOL     OW82251   6.218   8.734   3.692
26826SOL    HW182252   6.303   8.690   3.702
26826SOL    HW282253   6.205   8.779   3.776
26827SOL     OW82254   0.074   0.580  12.119
26827SOL    HW182255   0.053   0.662  12.164
26827SOL    HW282256  14.879   0.525  12.132
26828SOL     OW82257  10.816   3.677   7.530
26828SOL    HW182258  10.721   3.678   7.515
26828SOL    HW282259  10.841   3.769   7.530
26829SOL     OW82260   5.075   5.536   9.159
26829SOL    HW182261   5.002   5.583   9.199
26829SOL    HW282262   5.092   5.582   9.077
26830SOL     OW82263  12.778  12.210   5.974
26830SOL    HW182264  12.836  12.269   6.022
26830SOL    HW282265  12.690  12.233   6.004
26831SOL     OW82266   4.220  13.919  10.368
26831SOL    HW182267   4.232  13.979  10.442
26831SOL    HW282268   4.297  13.862  10.371
26832SOL     OW82269   4.246   6.236   6.641
26832SOL    HW182270   4.190   6.306   6.673
26832SOL    HW282271   4.275   6.190   6.720
26833SOL     OW82272   9.991   9.135   2.443
26833SOL    HW182273  10.003   9.056   2.390
26833SOL    HW282274   9.898   9.156   2.433
26834SOL     OW82275   2.973   5.944  12.896
26834SOL    HW182276   2.891   5.978  12.933
26834SOL    HW282277   2.957   5.940  12.801
26835SOL     OW82278   4.204   5.178  10.659
26835SOL    HW182279   4.190   5.272  10.672
26835SOL    HW282280   4.298   5.166  10.673
26836SOL     OW82281   4.826   2.815  13.749
26836SOL    HW182282   4.858   2.762  13.677
26836SOL    HW282283   4.830   2.905  13.716
26837SOL     OW82284  14.338   7.781   2.432
26837SOL    HW182285  14.335   7.686   2.417
26837SOL    HW282286  14.343   7.819   2.344
26838SOL     OW82287   2.877   5.534   9.839
26838SOL    HW182288   2.926   5.456   9.814
26838SOL    HW282289   2.944   5.601   9.852
26839SOL     OW82290   4.302   3.271   3.181
26839SOL    HW182291   4.368   3.338   3.200
26839SOL    HW282292   4.219   3.314   3.199
26840SOL     OW82293  10.486   6.471   2.868
26840SOL    HW182294  10.455   6.527   2.939
26840SOL    HW282295  10.495   6.385   2.909
26841SOL     OW82296  14.672   0.034  11.632
26841SOL    HW182297  14.704   0.116  11.670
26841SOL    HW282298  14.581   0.052  11.610
26842SOL     OW82299   1.191   9.928  12.067
26842SOL    HW182300   1.218   9.958  11.980
26842SOL    HW282301   1.239   9.985  12.128
26843SOL     OW82302   7.154   0.570   6.019
26843SOL    HW182303   7.179   0.496   5.963
26843SOL    HW282304   7.064   0.590   5.991
26844SOL     OW82305  13.444  11.718   0.387
26844SOL    HW182306  13.456  11.746   0.296
26844SOL    HW282307  13.397  11.635   0.381
26845SOL     OW82308  11.339   4.725   3.957
26845SOL    HW182309  11.290   4.803   3.981
26845SOL    HW282310  11.274   4.667   3.917
26846SOL     OW82311  11.778   4.448   7.986
26846SOL    HW182312  11.750   4.359   8.009
26846SOL    HW282313  11.757   4.500   8.063
26847SOL     OW82314   5.897   8.117   2.631
26847SOL    HW182315   5.859   8.199   2.661
26847SOL    HW282316   5.844   8.092   2.555
26848SOL     OW82317  10.580   9.902  11.657
26848SOL    HW182318  10.624   9.973  11.704
26848SOL    HW282319  10.576   9.932  11.567
26849SOL     OW82320  13.203   1.116   4.003
26849SOL    HW182321  13.283   1.074   3.972
26849SOL    HW282322  13.150   1.126   3.924
26850SOL     OW82323   3.187  10.742   1.737
26850SOL    HW182324   3.203  10.832   1.765
26850SOL    HW282325   3.114  10.712   1.792
26851SOL     OW82326   9.018   0.719   2.155
26851SOL    HW182327   9.019   0.811   2.132
26851SOL    HW282328   8.926   0.697   2.167
26852SOL     OW82329   5.606  14.727   3.873
26852SOL    HW182330   5.517  14.692   3.883
26852SOL    HW282331   5.604  14.811   3.920
26853SOL     OW82332   1.453   5.016   0.659
26853SOL    HW182333   1.548   5.016   0.659
26853SOL    HW282334   1.429   5.102   0.622
26854SOL     OW82335  12.119   4.781   1.483
26854SOL    HW182336  12.071   4.800   1.564
26854SOL    HW282337  12.207   4.756   1.513
26855SOL     OW82338   3.170   4.801  14.283
26855SOL    HW182339   3.226   4.860  14.233
26855SOL    HW282340   3.194   4.714  14.251
26856SOL     OW82341  10.547   5.004   4.376
26856SOL    HW182342  10.520   5.082   4.328
26856SOL    HW282343  10.492   4.934   4.341
26857SOL     OW82344   4.591   0.108  14.754
26857SOL    HW182345   4.651   0.050  14.801
26857SOL    HW282346   4.530   0.139  14.821
26858SOL     OW82347  11.190   5.172  13.317
26858SOL    HW182348  11.152   5.197  13.233
26858SOL    HW282349  11.161   5.081  13.330
26859SOL     OW82350   9.825   0.246  12.884
26859SOL    HW182351   9.871   0.281  12.807
26859SOL    HW282352   9.820   0.152  12.869
26860SOL     OW82353   5.718   2.735   7.771
26860SOL    HW182354   5.803   2.692   7.762
26860SOL    HW282355   5.655   2.671   7.738
26861SOL     OW82356   2.243   7.525  13.415
26861SOL    HW182357   2.177   7.462  13.385
26861SOL    HW282358   2.322   7.503  13.365
26862SOL     OW82359   2.909   3.919  12.266
26862SOL    HW182360   2.944   3.838  12.230
26862SOL    HW282361   2.841   3.945  12.203
26863SOL     OW82362  13.579   2.853  11.406
26863SOL    HW182363  13.617   2.823  11.323
26863SOL    HW282364  13.491   2.884  11.382
26864SOL     OW82365  11.875   4.596   1.137
26864SOL    HW182366  11.834   4.658   1.197
26864SOL    HW282367  11.871   4.639   1.051
26865SOL     OW82368   2.953  14.743   1.822
26865SOL    HW182369   2.907  14.683   1.881
26865SOL    HW282370   2.969  14.821   1.874
26866SOL     OW82371   5.673   2.292  12.603
26866SOL    HW182372   5.713   2.349  12.537
26866SOL    HW282373   5.622   2.228  12.553
26867SOL     OW82374  14.250  13.869  12.288
26867SOL    HW182375  14.320  13.852  12.351
26867SOL    HW282376  14.268  13.810  12.215
26868SOL     OW82377  13.798   7.416   6.263
26868SOL    HW182378  13.729   7.411   6.329
26868SOL    HW282379  13.754   7.398   6.180
26869SOL     OW82380  13.097   5.163  13.846
26869SOL    HW182381  13.033   5.187  13.779
26869SOL    HW282382  13.174   5.135  13.796
26870SOL     OW82383  10.766  14.565   8.194
26870SOL    HW182384  10.691  14.509   8.173
26870SOL    HW282385  10.735  14.621   8.265
26871SOL     OW82386  11.857   5.928   6.697
26871SOL    HW182387  11.776   5.959   6.658
26871SOL    HW282388  11.862   5.836   6.675
26872SOL     OW82389   0.574  12.530  11.086
26872SOL    HW182390   0.647  12.503  11.031
26872SOL    HW282391   0.609  12.530  11.175
26873SOL     OW82392  12.118  14.084  14.810
26873SOL    HW182393  12.031  14.122  14.824
26873SOL    HW282394  12.178  14.158  14.812
26874SOL     OW82395   4.056  11.724  13.421
26874SOL    HW182396   3.970  11.729  13.463
26874SOL    HW282397   4.040  11.751  13.330
26875SOL     OW82398   3.427   0.764   0.367
26875SOL    HW182399   3.371   0.738   0.294
26875SOL    HW282400   3.482   0.688   0.384
26876SOL     OW82401   0.340  10.918   1.988
26876SOL    HW182402   0.382  10.848   1.938
26876SOL    HW282403   0.382  10.998   1.956
26877SOL     OW82404   6.760   5.263   7.939
26877SOL    HW182405   6.803   5.331   7.887
26877SOL    HW282406   6.757   5.187   7.881
26878SOL     OW82407   2.717   5.231   0.454
26878SOL    HW182408   2.724   5.201   0.545
26878SOL    HW282409   2.773   5.308   0.450
26879SOL     OW82410   7.256   3.402   3.109
26879SOL    HW182411   7.323   3.449   3.160
26879SOL    HW282412   7.306   3.349   3.047
26880SOL     OW82413  13.523   3.295   4.193
26880SOL    HW182414  13.568   3.315   4.111
26880SOL    HW282415  13.593   3.293   4.259
26881SOL     OW82416   4.881   5.210   3.406
26881SOL    HW182417   4.863   5.242   3.494
26881SOL    HW282418   4.817   5.254   3.350
26882SOL     OW82419   1.926  11.887   4.647
26882SOL    HW182420   1.895  11.832   4.719
26882SOL    HW282421   1.850  11.898   4.590
26883SOL     OW82422   7.670  12.869  12.357
26883SOL    HW182423   7.649  12.894  12.447
26883SOL    HW282424   7.690  12.775  12.362
26884SOL     OW82425   4.693   7.034  14.626
26884SOL    HW182426   4.621   6.975  14.648
26884SOL    HW282427   4.691   7.099  14.696
26885SOL     OW82428   8.626   3.679   4.061
26885SOL    HW182429   8.686   3.753   4.071
26885SOL    HW282430   8.555   3.698   4.122
26886SOL     OW82431  10.555   3.336   5.690
26886SOL    HW182432  10.595   3.254   5.658
26886SOL    HW282433  10.471   3.309   5.728
26887SOL     OW82434  12.911   1.935   9.316
26887SOL    HW182435  12.866   1.974   9.241
26887SOL    HW282436  12.876   1.846   9.322
26888SOL     OW82437  14.027   7.977   6.051
26888SOL    HW182438  13.949   7.942   6.007
26888SOL    HW282439  14.100   7.927   6.014
26889SOL     OW82440   0.299   3.238   9.361
26889SOL    HW182441   0.222   3.211   9.311
26889SOL    HW282442   0.264   3.271   9.444
26890SOL     OW82443   9.940  11.080   3.225
26890SOL    HW182444  10.035  11.086   3.217
26890SOL    HW282445   9.914  11.014   3.160
26891SOL     OW82446  10.243   5.963   7.640
26891SOL    HW182447  10.171   6.008   7.595
26891SOL    HW282448  10.322   6.003   7.604
26892SOL     OW82449  14.489   5.042   3.863
26892SOL    HW182450  14.544   4.973   3.825
26892SOL    HW282451  14.515   5.045   3.955
26893SOL     OW82452   0.384   3.100   4.339
26893SOL    HW182453   0.348   3.015   4.313
26893SOL    HW282454   0.479   3.090   4.328
26894SOL     OW82455   8.602   5.804  11.555
26894SOL    HW182456   8.590   5.819  11.461
26894SOL    HW282457   8.581   5.711  11.567
26895SOL     OW82458   8.425   4.699  10.276
26895SOL    HW182459   8.376   4.771  10.235
26895SOL    HW282460   8.371   4.622  10.260
26896SOL     OW82461   3.678   6.311   5.276
26896SOL    HW182462   3.665   6.304   5.182
26896SOL    HW282463   3.700   6.222   5.304
26897SOL     OW82464   7.783   8.879   9.761
26897SOL    HW182465   7.696   8.847   9.785
26897SOL    HW282466   7.779   8.973   9.781
26898SOL     OW82467   9.175   4.495   2.520
26898SOL    HW182468   9.240   4.498   2.590
26898SOL    HW282469   9.135   4.408   2.528
26899SOL     OW82470  14.041   0.216   2.826
26899SOL    HW182471  14.069   0.125   2.823
26899SOL    HW282472  14.106   0.260   2.881
26900SOL     OW82473  12.166   5.669   5.594
26900SOL    HW182474  12.190   5.744   5.539
26900SOL    HW282475  12.167   5.705   5.683
26901SOL     OW82476   6.335   3.697   4.944
26901SOL    HW182477   6.292   3.716   5.027
26901SOL    HW282478   6.309   3.607   4.924
26902SOL     OW82479   7.157   3.789   0.757
26902SOL    HW182480   7.215   3.860   0.728
26902SOL    HW282481   7.210   3.740   0.820
26903SOL     OW82482   6.503  13.726   3.507
26903SOL    HW182483   6.448  13.762   3.577
26903SOL    HW282484   6.441  13.703   3.437
26904SOL     OW82485   5.276   2.241  14.701
26904SOL    HW182486   5.286   2.151  14.669
26904SOL    HW282487   5.190   2.242  14.743
26905SOL     OW82488   2.664   8.343  14.346
26905SOL    HW182489   2.729   8.325  14.415
26905SOL    HW282490   2.715   8.349  14.266
26906SOL     OW82491  11.793  12.992   8.933
26906SOL    HW182492  11.885  12.966   8.943
26906SOL    HW282493  11.765  12.948   8.852
26907SOL     OW82494   7.510   6.312  10.117
26907SOL    HW182495   7.539   6.237  10.169
26907SOL    HW282496   7.417   6.320  10.137
26908SOL     OW82497  10.913   8.572   3.135
26908SOL    HW182498  10.901   8.503   3.070
26908SOL    HW282499  11.007   8.589   3.135
26909SOL     OW82500  12.025   9.009   7.214
26909SOL    HW182501  11.938   9.045   7.197
26909SOL    HW282502  12.063   9.067   7.281
26910SOL     OW82503   8.770   2.040   9.069
26910SOL    HW182504   8.834   2.059   9.137
26910SOL    HW282505   8.816   2.056   8.987
26911SOL     OW82506  11.122   0.581   2.747
26911SOL    HW182507  11.190   0.594   2.681
26911SOL    HW282508  11.082   0.497   2.723
26912SOL     OW82509  13.572   2.679   7.254
26912SOL    HW182510  13.578   2.667   7.348
26912SOL    HW282511  13.480   2.703   7.239
26913SOL     OW82512  14.094   1.148   6.118
26913SOL    HW182513  14.124   1.156   6.209
26913SOL    HW282514  14.008   1.189   6.118
26914SOL     OW82515   0.411  14.212   7.223
26914SOL    HW182516   0.482  14.157   7.259
26914SOL    HW282517   0.342  14.208   7.289
26915SOL     OW82518   2.948  12.008   9.062
26915SOL    HW182519   2.885  11.936   9.068
26915SOL    HW282520   3.030  11.970   9.094
26916SOL     OW82521   1.064  10.073   7.152
26916SOL    HW182522   1.071  10.033   7.239
26916SOL    HW282523   0.971  10.070   7.132
26917SOL     OW82524  11.978  13.724   7.164
26917SOL    HW182525  11.994  13.816   7.144
26917SOL    HW282526  12.059  13.680   7.139
26918SOL     OW82527  10.740   7.496   8.774
26918SOL    HW182528  10.778   7.457   8.853
26918SOL    HW282529  10.816   7.520   8.721
26919SOL     OW82530  10.005   4.715   4.575
26919SOL    HW182531   9.980   4.720   4.482
26919SOL    HW282532  10.053   4.632   4.582
26920SOL     OW82533   7.288  12.832  10.384
26920SOL    HW182534   7.238  12.753  10.406
26920SOL    HW282535   7.377  12.801  10.370
26921SOL     OW82536  14.654   5.838   0.353
26921SOL    HW182537  14.614   5.875   0.274
26921SOL    HW282538  14.579   5.817   0.410
26922SOL     OW82539  12.859   4.893   9.042
26922SOL    HW182540  12.938   4.891   9.095
26922SOL    HW282541  12.812   4.972   9.071
26923SOL     OW82542   4.436   4.457   6.507
26923SOL    HW182543   4.433   4.428   6.598
26923SOL    HW282544   4.526   4.487   6.493
26924SOL     OW82545   2.916  11.492   8.029
26924SOL    HW182546   2.954  11.524   7.948
26924SOL    HW282547   2.881  11.406   8.007
26925SOL     OW82548  10.743  10.662  12.353
26925SOL    HW182549  10.796  10.596  12.399
26925SOL    HW282550  10.805  10.732  12.333
26926SOL     OW82551  12.439   6.817   3.763
26926SOL    HW182552  12.350   6.852   3.751
26926SOL    HW282553  12.457   6.828   3.856
26927SOL     OW82554  13.462  12.754   6.522
26927SOL    HW182555  13.390  12.712   6.569
26927SOL    HW282556  13.527  12.772   6.589
26928SOL     OW82557   4.682  12.383   3.333
26928SOL    HW182558   4.624  12.453   3.363
26928SOL    HW282559   4.706  12.408   3.244
26929SOL     OW82560  11.796  10.216   1.234
26929SOL    HW182561  11.717  10.265   1.210
26929SOL    HW282562  11.833  10.264   1.308
26930SOL     OW82563  12.077   5.072  14.309
26930SOL    HW182564  12.159   5.038  14.274
26930SOL    HW282565  12.041   4.999  14.359
26931SOL     OW82566  13.844   8.323  12.670
26931SOL    HW182567  13.916   8.371  12.629
26931SOL    HW282568  13.790   8.293  12.596
26932SOL     OW82569  12.146   5.867   4.221
26932SOL    HW182570  12.165   5.843   4.130
26932SOL    HW282571  12.066   5.817   4.242
26933SOL     OW82572   2.783   6.275   2.793
26933SOL    HW182573   2.841   6.350   2.778
26933SOL    HW282574   2.842   6.199   2.790
26934SOL     OW82575   5.664   0.672   7.963
26934SOL    HW182576   5.735   0.716   8.009
26934SOL    HW282577   5.584   0.716   7.993
26935SOL     OW82578   1.363   7.973  11.613
26935SOL    HW182579   1.325   8.060  11.603
26935SOL    HW282580   1.447   7.979  11.568
26936SOL     OW82581   7.007  14.075   1.982
26936SOL    HW182582   6.976  14.055   2.070
26936SOL    HW282583   6.944  14.138   1.948
26937SOL     OW82584   3.169  14.389  13.928
26937SOL    HW182585   3.201  14.316  13.875
26937SOL    HW282586   3.099  14.428  13.875
26938SOL     OW82587   4.046   4.730   8.226
26938SOL    HW182588   4.075   4.639   8.236
26938SOL    HW282589   4.020   4.737   8.134
26939SOL     OW82590   0.864   6.899   7.716
26939SOL    HW182591   0.919   6.906   7.639
26939SOL    HW282592   0.878   6.809   7.747
26940SOL     OW82593   6.631   4.703   7.194
26940SOL    HW182594   6.560   4.766   7.202
26940SOL    HW282595   6.599   4.625   7.240
26941SOL     OW82596  13.138   0.251  12.391
26941SOL    HW182597  13.074   0.246  12.462
26941SOL    HW282598  13.107   0.323  12.336
26942SOL     OW82599  13.602   7.279   1.942
26942SOL    HW182600  13.528   7.304   1.886
26942SOL    HW282601  13.675   7.332   1.910
26943SOL     OW82602   9.110  12.149  12.265
26943SOL    HW182603   9.101  12.207  12.189
26943SOL    HW282604   9.035  12.171  12.321
26944SOL     OW82605  11.510  13.673  11.386
26944SOL    HW182606  11.425  13.668  11.342
26944SOL    HW282607  11.563  13.606  11.343
26945SOL     OW82608   4.974  13.131   1.149
26945SOL    HW182609   5.041  13.070   1.120
26945SOL    HW282610   4.943  13.173   1.069
26946SOL     OW82611  13.274  11.371   1.327
26946SOL    HW182612  13.216  11.294   1.318
26946SOL    HW282613  13.269  11.414   1.241
26947SOL     OW82614  11.750   0.823  14.546
26947SOL    HW182615  11.753   0.729  14.530
26947SOL    HW282616  11.817   0.838  14.612
26948SOL     OW82617   5.095   5.998   6.717
26948SOL    HW182618   5.105   5.942   6.639
26948SOL    HW282619   5.056   5.940   6.782
26949SOL     OW82620   5.041   0.559  12.704
26949SOL    HW182621   4.968   0.575  12.764
26949SOL    HW282622   5.032   0.467  12.679
26950SOL     OW82623  13.572   6.866   9.274
26950SOL    HW182624  13.484   6.861   9.311
26950SOL    HW282625  13.558   6.858   9.179
26951SOL     OW82626   9.023   9.352   7.386
26951SOL    HW182627   8.994   9.434   7.426
26951SOL    HW282628   8.974   9.347   7.304
26952SOL     OW82629   7.555   1.469   4.991
26952SOL    HW182630   7.516   1.478   5.078
26952SOL    HW282631   7.570   1.375   4.982
26953SOL     OW82632  13.295   3.065  11.102
26953SOL    HW182633  13.390   3.076  11.102
26953SOL    HW282634  13.262   3.146  11.064
26954SOL     OW82635  11.310   8.112  14.471
26954SOL    HW182636  11.261   8.037  14.439
26954SOL    HW282637  11.354   8.081  14.550
26955SOL     OW82638   2.598  14.843   8.515
26955SOL    HW182639   2.588  14.748   8.501
26955SOL    HW282640   2.547  14.860   8.594
26956SOL     OW82641   5.475   8.646   1.051
26956SOL    HW182642   5.487   8.565   1.101
26956SOL    HW282643   5.546   8.644   0.986
26957SOL     OW82644   5.089   0.950  13.265
26957SOL    HW182645   5.002   0.989  13.257
26957SOL    HW282646   5.078   0.860  13.236
26958SOL     OW82647   4.443  13.223   5.842
26958SOL    HW182648   4.464  13.300   5.790
26958SOL    HW282649   4.395  13.257   5.917
26959SOL     OW82650  11.884   4.202  14.797
26959SOL    HW182651  11.867   4.111  14.773
26959SOL    HW282652  11.976   4.215  14.775
26960SOL     OW82653   0.051   2.751  10.081
26960SOL    HW182654  14.842   2.718  10.077
26960SOL    HW282655   0.105   2.673  10.074
26961SOL     OW82656   1.132   1.407  11.433
26961SOL    HW182657   1.203   1.460  11.471
26961SOL    HW282658   1.148   1.410  11.339
26962SOL     OW82659   8.270   3.369   4.680
26962SOL    HW182660   8.275   3.306   4.751
26962SOL    HW282661   8.260   3.315   4.601
26963SOL     OW82662   7.318   6.689   4.761
26963SOL    HW182663   7.413   6.676   4.768
26963SOL    HW282664   7.295   6.743   4.836
26964SOL     OW82665  10.072   5.986   6.207
26964SOL    HW182666  10.097   6.068   6.250
26964SOL    HW282667  10.035   5.932   6.276
26965SOL     OW82668  13.938   0.667  14.758
26965SOL    HW182669  13.961   0.722  14.683
26965SOL    HW282670  13.905   0.729  14.824
26966SOL     OW82671  13.651   4.106   9.323
26966SOL    HW182672  13.603   4.188   9.311
26966SOL    HW282673  13.583   4.039   9.320
26967SOL     OW82674   3.835   9.836   4.617
26967SOL    HW182675   3.866   9.906   4.675
26967SOL    HW282676   3.914   9.805   4.573
26968SOL     OW82677   6.695  13.649  12.614
26968SOL    HW182678   6.625  13.592  12.646
26968SOL    HW282679   6.682  13.731  12.662
26969SOL     OW82680  10.744  11.023   4.522
26969SOL    HW182681  10.709  11.032   4.434
26969SOL    HW282682  10.818  10.963   4.513
26970SOL     OW82683   9.688  13.137  10.320
26970SOL    HW182684   9.681  13.150  10.414
26970SOL    HW282685   9.632  13.061  10.303
26971SOL     OW82686   9.662   5.776   4.346
26971SOL    HW182687   9.587   5.742   4.297
26971SOL    HW282688   9.738   5.739   4.300
26972SOL     OW82689  10.318   2.252   2.980
26972SOL    HW182690  10.351   2.325   3.032
26972SOL    HW282691  10.230   2.278   2.953
26973SOL     OW82692   6.871   8.364   8.889
26973SOL    HW182693   6.951   8.397   8.850
26973SOL    HW282694   6.819   8.443   8.907
26974SOL     OW82695   5.836   6.617  11.517
26974SOL    HW182696   5.886   6.552  11.566
26974SOL    HW282697   5.835   6.694  11.574
26975SOL     OW82698  12.559   1.684   2.265
26975SOL    HW182699  12.637   1.695   2.211
26975SOL    HW282700  12.551   1.589   2.277
26976SOL     OW82701   3.000  10.973   0.005
26976SOL    HW182702   3.052  10.989   0.083
26976SOL    HW282703   3.064  10.962  14.816
26977SOL     OW82704   2.248   4.122   5.150
26977SOL    HW182705   2.280   4.094   5.064
26977SOL    HW282706   2.260   4.045   5.206
26978SOL     OW82707   8.485   6.210  13.122
26978SOL    HW182708   8.484   6.303  13.098
26978SOL    HW282709   8.395   6.181  13.109
26979SOL     OW82710   5.512  10.497  14.068
26979SOL    HW182711   5.450  10.519  14.137
26979SOL    HW282712   5.535  10.581  14.029
26980SOL     OW82713  13.834   3.959   1.613
26980SOL    HW182714  13.879   4.037   1.646
26980SOL    HW282715  13.788   3.990   1.535
26981SOL     OW82716   2.266   2.875   8.288
26981SOL    HW182717   2.225   2.790   8.307
26981SOL    HW282718   2.354   2.852   8.257
26982SOL     OW82719   3.917   8.656   1.229
26982SOL    HW182720   3.921   8.692   1.140
26982SOL    HW282721   3.996   8.688   1.271
26983SOL     OW82722   5.331  12.794  12.394
26983SOL    HW182723   5.276  12.717  12.410
26983SOL    HW282724   5.282  12.867  12.430
26984SOL     OW82725   8.645  11.543   1.693
26984SOL    HW182726   8.590  11.472   1.660
26984SOL    HW282727   8.729  11.502   1.710
26985SOL     OW82728   8.762   6.985   7.434
26985SOL    HW182729   8.823   6.914   7.449
26985SOL    HW282730   8.721   7.001   7.520
26986SOL     OW82731   5.208   4.851  13.626
26986SOL    HW182732   5.203   4.773  13.681
26986SOL    HW282733   5.272   4.829  13.559
26987SOL     OW82734   4.629  11.361   0.991
26987SOL    HW182735   4.722  11.340   1.000
26987SOL    HW282736   4.598  11.304   0.921
26988SOL     OW82737   6.882   8.271   0.292
26988SOL    HW182738   6.835   8.189   0.278
26988SOL    HW282739   6.858   8.298   0.381
26989SOL     OW82740  14.472   9.888   7.673
26989SOL    HW182741  14.489   9.916   7.763
26989SOL    HW282742  14.525   9.809   7.663
26990SOL     OW82743  10.791   5.341   9.318
26990SOL    HW182744  10.881   5.320   9.343
26990SOL    HW282745  10.799   5.421   9.266
26991SOL     OW82746   6.887  13.605   8.593
26991SOL    HW182747   6.901  13.648   8.678
26991SOL    HW282748   6.816  13.542   8.610
26992SOL     OW82749   8.057   9.205   4.178
26992SOL    HW182750   8.069   9.194   4.273
26992SOL    HW282751   8.024   9.120   4.148
26993SOL     OW82752   7.225  13.575   2.959
26993SOL    HW182753   7.151  13.633   2.980
26993SOL    HW282754   7.212  13.553   2.866
26994SOL     OW82755   4.515   5.923   5.709
26994SOL    HW182756   4.588   5.882   5.756
26994SOL    HW282757   4.503   6.008   5.752
26995SOL     OW82758  12.028   8.038  10.206
26995SOL    HW182759  12.075   8.032  10.289
26995SOL    HW282760  12.019   7.948  10.175
26996SOL     OW82761   5.876   3.818   8.518
26996SOL    HW182762   5.782   3.807   8.504
26996SOL    HW282763   5.884   3.852   8.607
26997SOL     OW82764   5.244   8.749  14.332
26997SOL    HW182765   5.296   8.700  14.268
26997SOL    HW282766   5.259   8.841  14.310
26998SOL     OW82767   7.225   3.184  10.419
26998SOL    HW182768   7.279   3.143  10.351
26998SOL    HW282769   7.153   3.225  10.371
26999SOL     OW82770   4.258   6.849   7.498
26999SOL    HW182771   4.224   6.938   7.502
26999SOL    HW282772   4.318   6.842   7.572
27000SOL     OW82773   6.141  11.695   2.050
27000SOL    HW182774   6.140  11.610   2.007
27000SOL    HW282775   6.229  11.704   2.086
27001SOL     OW82776   4.074  12.144   8.351
27001SOL    HW182777   4.114  12.162   8.266
27001SOL    HW282778   4.148  12.140   8.411
27002SOL     OW82779   1.092   8.572  11.900
27002SOL    HW182780   1.175   8.569  11.947
27002SOL    HW282781   1.089   8.660  11.862
27003SOL     OW82782  14.807   4.907   4.818
27003SOL    HW182783   0.012   4.879   4.848
27003SOL    HW282784  14.771   4.831   4.772
27004SOL     OW82785  12.193   0.227  10.378
27004SOL    HW182786  12.212   0.139  10.345
27004SOL    HW282787  12.277   0.272  10.376
27005SOL     OW82788   1.962  14.357   8.046
27005SOL    HW182789   1.908  14.344   8.124
27005SOL    HW282790   1.912  14.418   7.992
27006SOL     OW82791  12.620  14.485  10.861
27006SOL    HW182792  12.540  14.525  10.827
27006SOL    HW282793  12.598  14.462  10.952
27007SOL     OW82794   3.333   6.762   4.077
27007SOL    HW182795   3.332   6.856   4.057
27007SOL    HW282796   3.337   6.758   4.172
27008SOL     OW82797   8.354  11.439  11.365
27008SOL    HW182798   8.381  11.377  11.433
27008SOL    HW282799   8.279  11.485  11.404
27009SOL     OW82800   1.822  12.096  14.781
27009SOL    HW182801   1.891  12.045  14.823
27009SOL    HW282802   1.814  12.174  14.836
27010SOL     OW82803  12.289   5.770   8.158
27010SOL    HW182804  12.379   5.790   8.134
27010SOL    HW282805  12.238   5.844   8.124
27011SOL     OW82806  13.554  10.037   6.947
27011SOL    HW182807  13.489  10.004   7.009
27011SOL    HW282808  13.560   9.968   6.881
27012SOL     OW82809  11.003   4.962  13.683
27012SOL    HW182810  10.953   5.023  13.737
27012SOL    HW282811  11.034   4.895  13.744
27013SOL     OW82812   4.805   3.983   7.944
27013SOL    HW182813   4.785   3.933   7.865
27013SOL    HW282814   4.898   4.007   7.935
27014SOL     OW82815   0.357   8.850  11.278
27014SOL    HW182816   0.384   8.797  11.352
27014SOL    HW282817   0.375   8.795  11.201
27015SOL     OW82818  11.777   8.794   0.246
27015SOL    HW182819  11.738   8.789   0.158
27015SOL    HW282820  11.762   8.884   0.274
27016SOL     OW82821   0.365  11.637   9.965
27016SOL    HW182822   0.390  11.668  10.053
27016SOL    HW282823   0.373  11.542   9.971
27017SOL     OW82824   1.450   8.526   4.023
27017SOL    HW182825   1.526   8.473   4.046
27017SOL    HW282826   1.470   8.613   4.057
27018SOL     OW82827   4.180   2.086   2.593
27018SOL    HW182828   4.256   2.110   2.646
27018SOL    HW282829   4.140   2.013   2.641
27019SOL     OW82830   1.108   7.459   4.064
27019SOL    HW182831   1.046   7.526   4.093
27019SOL    HW282832   1.162   7.442   4.141
27020SOL     OW82833   8.921   1.757   0.825
27020SOL    HW182834   8.918   1.683   0.885
27020SOL    HW282835   8.988   1.733   0.761
27021SOL     OW82836   4.097   8.437   8.275
27021SOL    HW182837   4.129   8.525   8.298
27021SOL    HW282838   4.026   8.421   8.337
27022SOL     OW82839   9.464   4.462   6.184
27022SOL    HW182840   9.506   4.517   6.118
27022SOL    HW282841   9.411   4.400   6.134
27023SOL     OW82842  13.646   0.638   3.662
27023SOL    HW182843  13.737   0.638   3.693
27023SOL    HW282844  13.640   0.564   3.602
27024SOL     OW82845  11.686   2.154   5.590
27024SOL    HW182846  11.625   2.201   5.533
27024SOL    HW282847  11.772   2.166   5.549
27025SOL     OW82848   1.727   5.501   3.815
27025SOL    HW182849   1.674   5.566   3.861
27025SOL    HW282850   1.807   5.547   3.792
27026SOL     OW82851  13.804   1.270   1.733
27026SOL    HW182852  13.882   1.216   1.718
27026SOL    HW282853  13.813   1.300   1.824
27027SOL     OW82854   7.635   2.916   7.054
27027SOL    HW182855   7.684   2.846   7.097
27027SOL    HW282856   7.601   2.970   7.125
27028SOL     OW82857   2.757  11.295  10.522
27028SOL    HW182858   2.722  11.307  10.610
27028SOL    HW282859   2.836  11.348  10.520
27029SOL     OW82860   4.508   6.410  10.958
27029SOL    HW182861   4.548   6.326  10.978
27029SOL    HW282862   4.438   6.419  11.022
27030SOL     OW82863  10.489   0.880   7.300
27030SOL    HW182864  10.432   0.865   7.375
27030SOL    HW282865  10.429   0.895   7.226
27031SOL     OW82866   8.266  14.359   2.737
27031SOL    HW182867   8.184  14.351   2.687
27031SOL    HW282868   8.332  14.320   2.680
27032SOL     OW82869  14.421  11.796  12.060
27032SOL    HW182870  14.372  11.750  12.129
27032SOL    HW282871  14.412  11.740  11.983
27033SOL     OW82872   1.569  13.044   3.864
27033SOL    HW182873   1.644  13.020   3.809
27033SOL    HW282874   1.560  12.971   3.925
27034SOL     OW82875   7.045  13.440   1.052
27034SOL    HW182876   6.996  13.415   1.131
27034SOL    HW282877   7.098  13.362   1.031
27035SOL     OW82878   9.695  12.616   7.446
27035SOL    HW182879   9.686  12.712   7.444
27035SOL    HW282880   9.627  12.585   7.387
27036SOL     OW82881   3.392   4.870  12.167
27036SOL    HW182882   3.357   4.932  12.232
27036SOL    HW282883   3.335   4.882  12.091
27037SOL     OW82884   2.772  10.654   8.072
27037SOL    HW182885   2.724  10.702   8.139
27037SOL    HW282886   2.706  10.630   8.007
27038SOL     OW82887  14.731  13.721   7.774
27038SOL    HW182888  14.793  13.735   7.845
27038SOL    HW282889  14.733  13.802   7.723
27039SOL     OW82890  12.549   3.230   0.186
27039SOL    HW182891  12.574   3.233   0.279
27039SOL    HW282892  12.532   3.322   0.163
27040SOL     OW82893   8.091   1.739   4.381
27040SOL    HW182894   8.086   1.685   4.302
27040SOL    HW282895   8.155   1.807   4.359
27041SOL     OW82896   1.662   2.552  13.191
27041SOL    HW182897   1.626   2.605  13.262
27041SOL    HW282898   1.590   2.542  13.130
27042SOL     OW82899   3.060   8.235   3.245
27042SOL    HW182900   3.090   8.325   3.250
27042SOL    HW282901   2.997   8.234   3.174
27043SOL     OW82902   4.620   6.453   8.251
27043SOL    HW182903   4.615   6.408   8.335
27043SOL    HW282904   4.552   6.520   8.256
27044SOL     OW82905   2.574  11.925  14.312
27044SOL    HW182906   2.498  11.919  14.255
27044SOL    HW282907   2.636  11.862  14.275
27045SOL     OW82908   9.492  13.089   3.835
27045SOL    HW182909   9.533  13.072   3.919
27045SOL    HW282910   9.502  13.007   3.786
27046SOL     OW82911   7.989   4.307   9.103
27046SOL    HW182912   8.059   4.371   9.121
27046SOL    HW282913   7.997   4.290   9.009
27047SOL     OW82914  12.258   0.222  11.971
27047SOL    HW182915  12.306   0.288  11.921
27047SOL    HW282916  12.205   0.176  11.906
27048SOL     OW82917   5.327  14.598   8.715
27048SOL    HW182918   5.274  14.594   8.794
27048SOL    HW282919   5.265  14.588   8.643
27049SOL     OW82920  12.488   5.459  10.036
27049SOL    HW182921  12.460   5.535   9.985
27049SOL    HW282922  12.538   5.496  10.109
27050SOL     OW82923   3.840   4.998   1.016
27050SOL    HW182924   3.827   5.088   1.045
27050SOL    HW282925   3.797   4.995   0.930
27051SOL     OW82926   2.102   5.187   3.615
27051SOL    HW182927   2.141   5.226   3.693
27051SOL    HW282928   2.173   5.137   3.575
27052SOL     OW82929   7.166   8.188   3.135
27052SOL    HW182930   7.113   8.145   3.202
27052SOL    HW282931   7.168   8.126   3.062
27053SOL     OW82932  13.465   1.480  14.716
27053SOL    HW182933  13.453   1.386  14.702
27053SOL    HW282934  13.556   1.497  14.691
27054SOL     OW82935   0.467  11.776   2.524
27054SOL    HW182936   0.429  11.864   2.523
27054SOL    HW282937   0.520  11.772   2.445
27055SOL     OW82938   1.630   5.817   5.256
27055SOL    HW182939   1.557   5.860   5.301
27055SOL    HW282940   1.600   5.728   5.241
27056SOL     OW82941   4.547   7.567   1.583
27056SOL    HW182942   4.459   7.590   1.553
27056SOL    HW282943   4.542   7.569   1.678
27057SOL     OW82944  10.672   0.471   4.224
27057SOL    HW182945  10.746   0.528   4.245
27057SOL    HW282946  10.692   0.437   4.137
27058SOL     OW82947  12.324   3.907  14.510
27058SOL    HW182948  12.284   3.885  14.426
27058SOL    HW282949  12.358   3.824  14.544
27059SOL     OW82950   4.081   5.938   3.225
27059SOL    HW182951   4.073   5.845   3.206
27059SOL    HW282952   3.994   5.974   3.209
27060SOL     OW82953  13.414   7.071   2.952
27060SOL    HW182954  13.367   7.021   2.885
27060SOL    HW282955  13.496   7.098   2.909
27061SOL     OW82956   3.545   4.629   3.393
27061SOL    HW182957   3.514   4.647   3.482
27061SOL    HW282958   3.491   4.556   3.363
27062SOL     OW82959   7.472   6.256   7.170
27062SOL    HW182960   7.398   6.206   7.134
27062SOL    HW282961   7.527   6.190   7.213
27063SOL     OW82962   5.544  13.881  12.438
27063SOL    HW182963   5.470  13.885  12.499
27063SOL    HW282964   5.523  13.809  12.379
27064SOL     OW82965  10.490  10.034  10.331
27064SOL    HW182966  10.527  10.081  10.406
27064SOL    HW282967  10.516   9.943  10.346
27065SOL     OW82968  13.827  12.740   5.842
27065SOL    HW182969  13.768  12.664   5.848
27065SOL    HW282970  13.876  12.726   5.761
27066SOL     OW82971   0.503  14.417   0.268
27066SOL    HW182972   0.569  14.405   0.337
27066SOL    HW282973   0.548  14.469   0.201
27067SOL     OW82974  13.651   0.671  10.289
27067SOL    HW182975  13.680   0.747  10.339
27067SOL    HW282976  13.591   0.626  10.349
27068SOL     OW82977   4.420  11.089   1.513
27068SOL    HW182978   4.446  11.046   1.432
27068SOL    HW282979   4.485  11.158   1.526
27069SOL     OW82980   0.154  13.777   0.145
27069SOL    HW182981   0.098  13.843   0.186
27069SOL    HW282982   0.118  13.767   0.056
27070SOL     OW82983   0.358  12.540   4.656
27070SOL    HW182984   0.308  12.507   4.581
27070SOL    HW282985   0.420  12.469   4.675
27071SOL     OW82986   0.679   2.128   6.416
27071SOL    HW182987   0.595   2.081   6.409
27071SOL    HW282988   0.707   2.139   6.325
27072SOL     OW82989   2.042   1.510   1.249
27072SOL    HW182990   2.109   1.451   1.283
27072SOL    HW282991   1.963   1.455   1.244
27073SOL     OW82992   1.141  11.725   2.199
27073SOL    HW182993   1.236  11.737   2.206
27073SOL    HW282994   1.130  11.631   2.188
27074SOL     OW82995  13.469   0.440  13.412
27074SOL    HW182996  13.374   0.427  13.411
27074SOL    HW282997  13.482   0.512  13.474
27075SOL     OW82998   5.708   1.619   1.269
27075SOL    HW182999   5.742   1.588   1.186
27075SOL    HW283000   5.754   1.701   1.286
27076SOL     OW83001  11.901   9.839   9.222
27076SOL    HW183002  11.851   9.920   9.232
27076SOL    HW283003  11.949   9.850   9.141
27077SOL     OW83004   1.177   2.286   7.465
27077SOL    HW183005   1.261   2.242   7.478
27077SOL    HW283006   1.119   2.246   7.530
27078SOL     OW83007  10.548   4.226   5.700
27078SOL    HW183008  10.642   4.245   5.694
27078SOL    HW283009  10.541   4.132   5.687
27079SOL     OW83010   9.031  10.546   3.140
27079SOL    HW183011   9.086  10.519   3.066
27079SOL    HW283012   9.066  10.498   3.214
27080SOL     OW83013   7.537  11.139  13.967
27080SOL    HW183014   7.524  11.095  14.052
27080SOL    HW283015   7.607  11.202  13.984
27081SOL     OW83016   9.048  11.728   2.083
27081SOL    HW183017   9.104  11.653   2.062
27081SOL    HW283018   8.960  11.692   2.091
27082SOL     OW83019   9.885   3.015   9.011
27082SOL    HW183020   9.888   3.093   9.066
27082SOL    HW283021   9.948   3.032   8.941
27083SOL     OW83022   0.580   7.054  14.825
27083SOL    HW183023   0.587   7.141  14.787
27083SOL    HW283024   0.567   7.069   0.037
27084SOL     OW83025   3.845   8.096   6.526
27084SOL    HW183026   3.875   8.111   6.615
27084SOL    HW283027   3.858   8.179   6.481
27085SOL     OW83028   4.953   8.473  14.516
27085SOL    HW183029   5.023   8.528  14.549
27085SOL    HW283030   4.881   8.484  14.579
27086SOL     OW83031   8.726   7.396   3.404
27086SOL    HW183032   8.774   7.342   3.340
27086SOL    HW283033   8.711   7.479   3.358
27087SOL     OW83034  11.661  14.181   1.374
27087SOL    HW183035  11.689  14.268   1.344
27087SOL    HW283036  11.660  14.187   1.469
27088SOL     OW83037   3.523   9.674   3.635
27088SOL    HW183038   3.602   9.719   3.606
27088SOL    HW283039   3.515   9.697   3.728
27089SOL     OW83040   1.252  13.359  11.898
27089SOL    HW183041   1.178  13.363  11.838
27089SOL    HW283042   1.323  13.320  11.846
27090SOL     OW83043  11.653   1.404   1.302
27090SOL    HW183044  11.598   1.474   1.339
27090SOL    HW283045  11.611   1.381   1.220
27091SOL     OW83046   1.537  11.836  13.444
27091SOL    HW183047   1.563  11.777  13.374
27091SOL    HW283048   1.467  11.790  13.490
27092SOL     OW83049   8.594   9.238  12.384
27092SOL    HW183050   8.505   9.203  12.395
27092SOL    HW283051   8.646   9.191  12.449
27093SOL     OW83052   9.786   3.293   4.834
27093SOL    HW183053   9.736   3.320   4.757
27093SOL    HW283054   9.728   3.311   4.908
27094SOL     OW83055   2.369  13.182  10.031
27094SOL    HW183056   2.444  13.241  10.034
27094SOL    HW283057   2.379  13.135   9.949
27095SOL     OW83058  14.243   9.516  13.180
27095SOL    HW183059  14.300   9.444  13.205
27095SOL    HW283060  14.155   9.487  13.205
27096SOL     OW83061  14.388   7.360   0.928
27096SOL    HW183062  14.409   7.451   0.909
27096SOL    HW283063  14.400   7.315   0.844
27097SOL     OW83064   3.686  13.094   2.240
27097SOL    HW183065   3.616  13.075   2.303
27097SOL    HW283066   3.743  13.017   2.244
27098SOL     OW83067   2.919   0.720   7.898
27098SOL    HW183068   2.875   0.672   7.969
27098SOL    HW283069   2.994   0.666   7.875
27099SOL     OW83070   9.154   3.248  13.439
27099SOL    HW183071   9.089   3.314  13.462
27099SOL    HW283072   9.123   3.210  13.357
27100SOL     OW83073   7.806  13.642  12.790
27100SOL    HW183074   7.734  13.706  12.797
27100SOL    HW283075   7.873  13.677  12.848
27101SOL     OW83076  11.467   2.059   7.159
27101SOL    HW183077  11.450   2.009   7.079
27101SOL    HW283078  11.404   2.025   7.222
27102SOL     OW83079   7.435  13.696  13.437
27102SOL    HW183080   7.447  13.610  13.397
27102SOL    HW283081   7.341  13.703  13.452
27103SOL     OW83082   7.486   1.067  13.221
27103SOL    HW183083   7.483   0.978  13.255
27103SOL    HW283084   7.516   1.058  13.130
27104SOL     OW83085  12.054  11.359   8.436
27104SOL    HW183086  12.122  11.332   8.498
27104SOL    HW283087  12.022  11.443   8.469
27105SOL     OW83088  14.394  10.400  11.378
27105SOL    HW183089  14.485  10.422  11.398
27105SOL    HW283090  14.366  10.345  11.451
27106SOL     OW83091  11.205  10.176   7.905
27106SOL    HW183092  11.285  10.125   7.919
27106SOL    HW283093  11.140  10.135   7.962
27107SOL     OW83094  14.112  10.962  13.959
27107SOL    HW183095  14.080  11.000  14.040
27107SOL    HW283096  14.141  11.037  13.907
27108SOL     OW83097   9.208  12.167   2.681
27108SOL    HW183098   9.147  12.099   2.651
27108SOL    HW283099   9.197  12.238   2.618
27109SOL     OW83100   2.326   3.142   6.975
27109SOL    HW183101   2.323   3.052   6.942
27109SOL    HW283102   2.237   3.175   6.963
27110SOL     OW83103   9.914  14.756  11.373
27110SOL    HW183104   9.958  14.810  11.439
27110SOL    HW283105   9.858  14.818  11.326
27111SOL     OW83106   8.614  11.604  12.313
27111SOL    HW183107   8.522  11.629  12.318
27111SOL    HW283108   8.631  11.557  12.395
27112SOL     OW83109  13.351   8.935   4.030
27112SOL    HW183110  13.307   8.947   4.114
27112SOL    HW283111  13.439   8.970   4.043
27113SOL     OW83112  13.601   7.914  10.684
27113SOL    HW183113  13.574   7.987  10.629
27113SOL    HW283114  13.618   7.843  10.623
27114SOL     OW83115   5.203   6.710   0.124
27114SOL    HW183116   5.122   6.684   0.169
27114SOL    HW283117   5.182   6.701   0.031
27115SOL     OW83118  13.924   8.168   9.367
27115SOL    HW183119  13.884   8.193   9.283
27115SOL    HW283120  13.878   8.088   9.392
27116SOL     OW83121   8.901   3.350   2.825
27116SOL    HW183122   8.902   3.420   2.890
27116SOL    HW283123   8.965   3.378   2.759
27117SOL     OW83124  13.521   0.786   8.942
27117SOL    HW183125  13.455   0.717   8.932
27117SOL    HW283126  13.562   0.791   8.856
27118SOL     OW83127   7.807  12.907   5.600
27118SOL    HW183128   7.875  12.970   5.624
27118SOL    HW283129   7.741  12.959   5.553
27119SOL     OW83130  10.885   4.123   8.056
27119SOL    HW183131  10.849   4.204   8.092
27119SOL    HW283132  10.809   4.075   8.023
27120SOL     OW83133   4.280  11.721   6.733
27120SOL    HW183134   4.295  11.777   6.809
27120SOL    HW283135   4.193  11.684   6.747
27121SOL     OW83136  13.638   4.556   2.777
27121SOL    HW183137  13.687   4.638   2.785
27121SOL    HW283138  13.549   4.579   2.800
27122SOL     OW83139   1.013  10.927  14.114
27122SOL    HW183140   1.106  10.903  14.109
27122SOL    HW283141   1.014  11.020  14.136
27123SOL     OW83142   1.994  14.150  13.703
27123SOL    HW183143   2.078  14.120  13.669
27123SOL    HW283144   2.017  14.210  13.774
27124SOL     OW83145   9.902   1.777  12.900
27124SOL    HW183146   9.968   1.834  12.939
27124SOL    HW283147   9.842   1.757  12.972
27125SOL     OW83148   5.162   9.374   4.781
27125SOL    HW183149   5.102   9.307   4.747
27125SOL    HW283150   5.165   9.440   4.712
27126SOL     OW83151   0.999  12.889   1.816
27126SOL    HW183152   0.993  12.943   1.737
27126SOL    HW283153   0.998  12.953   1.888
27127SOL     OW83154   2.545   6.365  14.821
27127SOL    HW183155   2.478   6.430  14.801
27127SOL    HW283156   2.544   6.358   0.035
27128SOL     OW83157  10.544   1.907  13.309
27128SOL    HW183158  10.476   1.905  13.376
27128SOL    HW283159  10.561   2.000  13.293
27129SOL     OW83160   3.572   6.866   1.980
27129SOL    HW183161   3.625   6.794   1.945
27129SOL    HW283162   3.628   6.943   1.973
27130SOL     OW83163   5.837   6.247   1.866
27130SOL    HW183164   5.790   6.327   1.890
27130SOL    HW283165   5.888   6.271   1.790
27131SOL     OW83166   0.396   2.388   0.922
27131SOL    HW183167   0.339   2.465   0.917
27131SOL    HW283168   0.454   2.407   0.996
27132SOL     OW83169   2.493   7.569  13.053
27132SOL    HW183170   2.398   7.568  13.053
27132SOL    HW283171   2.517   7.598  13.141
27133SOL     OW83172   2.643   4.193  12.156
27133SOL    HW183173   2.614   4.243  12.080
27133SOL    HW283174   2.720   4.240  12.189
27134SOL     OW83175  11.450  14.315   4.493
27134SOL    HW183176  11.499  14.259   4.433
27134SOL    HW283177  11.378  14.350   4.440
27135SOL     OW83178   6.168   9.570  13.351
27135SOL    HW183179   6.144   9.518  13.427
27135SOL    HW283180   6.086   9.581  13.302
27136SOL     OW83181  13.598  12.681   3.501
27136SOL    HW183182  13.560  12.623   3.567
27136SOL    HW283183  13.638  12.622   3.437
27137SOL     OW83184   8.110  13.964   6.882
27137SOL    HW183185   8.136  14.056   6.884
27137SOL    HW283186   8.175  13.919   6.936
27138SOL     OW83187   9.268   6.799  14.477
27138SOL    HW183188   9.336   6.865  14.491
27138SOL    HW283189   9.300   6.748  14.402
27139SOL     OW83190  11.745   5.925   8.156
27139SOL    HW183191  11.742   6.013   8.118
27139SOL    HW283192  11.700   5.870   8.093
27140SOL     OW83193   0.728  12.396   1.478
27140SOL    HW183194   0.802  12.338   1.460
27140SOL    HW283195   0.650  12.341   1.467
27141SOL     OW83196  13.464  13.323   0.293
27141SOL    HW183197  13.532  13.309   0.228
27141SOL    HW283198  13.468  13.245   0.349
27142SOL     OW83199   9.656  10.071   1.518
27142SOL    HW183200   9.586  10.085   1.582
27142SOL    HW283201   9.734  10.053   1.571
27143SOL     OW83202   7.904   6.105   6.237
27143SOL    HW183203   7.824   6.086   6.187
27143SOL    HW283204   7.904   6.039   6.307
27144SOL     OW83205  14.188  11.937  14.660
27144SOL    HW183206  14.209  11.970  14.748
27144SOL    HW283207  14.093  11.929  14.659
27145SOL     OW83208   6.461   6.412   3.547
27145SOL    HW183209   6.488   6.335   3.597
27145SOL    HW283210   6.368   6.397   3.529
27146SOL     OW83211  13.004  13.316  11.165
27146SOL    HW183212  12.975  13.343  11.252
27146SOL    HW283213  12.953  13.237  11.146
27147SOL     OW83214   2.740   4.940   8.607
27147SOL    HW183215   2.762   4.968   8.695
27147SOL    HW283216   2.648   4.964   8.596
27148SOL     OW83217   3.813  12.675  14.736
27148SOL    HW183218   3.760  12.702  14.661
27148SOL    HW283219   3.897  12.649  14.698
27149SOL     OW83220  14.751   6.673  11.368
27149SOL    HW183221  14.670   6.635  11.403
27149SOL    HW283222  14.806   6.688  11.446
27150SOL     OW83223  13.204  11.603   4.219
27150SOL    HW183224  13.299  11.598   4.209
27150SOL    HW283225  13.189  11.588   4.313
27151SOL     OW83226  11.140   1.125  14.035
27151SOL    HW183227  11.072   1.167  14.089
27151SOL    HW283228  11.183   1.198  13.991
27152SOL     OW83229   5.253   9.146   7.129
27152SOL    HW183230   5.307   9.195   7.068
27152SOL    HW283231   5.180   9.205   7.150
27153SOL     OW83232  11.132   1.760   8.896
27153SOL    HW183233  11.146   1.806   8.978
27153SOL    HW283234  11.101   1.827   8.836
27154SOL     OW83235   9.879   3.879  13.015
27154SOL    HW183236   9.973   3.882  12.996
27154SOL    HW283237   9.847   3.966  12.992
27155SOL     OW83238   2.311   6.864   6.517
27155SOL    HW183239   2.260   6.929   6.566
27155SOL    HW283240   2.303   6.784   6.568
27156SOL     OW83241  10.760   3.212   8.109
27156SOL    HW183242  10.676   3.216   8.063
27156SOL    HW283243  10.743   3.255   8.193
27157SOL     OW83244   2.926   3.189   0.432
27157SOL    HW183245   2.953   3.184   0.524
27157SOL    HW283246   2.841   3.145   0.430
27158SOL     OW83247   8.226   4.327   4.340
27158SOL    HW183248   8.257   4.269   4.410
27158SOL    HW283249   8.131   4.323   4.346
27159SOL     OW83250  11.405  11.016   6.543
27159SOL    HW183251  11.490  11.058   6.536
27159SOL    HW283252  11.424  10.927   6.572
27160SOL     OW83253   9.290   8.400   1.802
27160SOL    HW183254   9.352   8.383   1.873
27160SOL    HW283255   9.325   8.477   1.758
27161SOL     OW83256   1.655   1.939  14.053
27161SOL    HW183257   1.647   2.022  14.100
27161SOL    HW283258   1.565   1.913  14.034
27162SOL     OW83259   4.442   8.669  10.811
27162SOL    HW183260   4.491   8.749  10.830
27162SOL    HW283261   4.453   8.615  10.889
27163SOL     OW83262   9.808   1.512   9.907
27163SOL    HW183263   9.746   1.502   9.835
27163SOL    HW283264   9.806   1.605   9.927
27164SOL     OW83265   6.429   4.901   7.265
27164SOL    HW183266   6.458   4.992   7.260
27164SOL    HW283267   6.364   4.899   7.335
27165SOL     OW83268  13.188  14.085   7.102
27165SOL    HW183269  13.165  14.137   7.025
27165SOL    HW283270  13.138  14.125   7.174
27166SOL     OW83271  12.131   0.055   2.382
27166SOL    HW183272  12.155   0.118   2.450
27166SOL    HW283273  12.141   0.104   2.300
27167SOL     OW83274   6.674   8.221   8.418
27167SOL    HW183275   6.647   8.290   8.479
27167SOL    HW283276   6.767   8.238   8.401
27168SOL     OW83277   9.456   5.918  11.614
27168SOL    HW183278   9.474   6.001  11.572
27168SOL    HW283279   9.459   5.938  11.708
27169SOL     OW83280   9.156   5.140   6.039
27169SOL    HW183281   9.157   5.166   5.947
27169SOL    HW283282   9.109   5.057   6.040
27170SOL     OW83283   0.597   2.708   1.172
27170SOL    HW183284   0.581   2.617   1.148
27170SOL    HW283285   0.670   2.704   1.234
27171SOL     OW83286   8.851  11.982   2.747
27171SOL    HW183287   8.778  11.953   2.691
27171SOL    HW283288   8.929  11.963   2.696
27172SOL     OW83289  14.114   7.956   3.778
27172SOL    HW183290  14.033   7.931   3.733
27172SOL    HW283291  14.175   7.884   3.761
27173SOL     OW83292   6.750  10.594  11.521
27173SOL    HW183293   6.811  10.521  11.539
27173SOL    HW283294   6.664  10.559  11.546
27174SOL     OW83295   0.352  12.016  11.463
27174SOL    HW183296   0.286  12.054  11.521
27174SOL    HW283297   0.408  11.964  11.522
27175SOL     OW83298   6.403  10.426   2.274
27175SOL    HW183299   6.342  10.357   2.299
27175SOL    HW283300   6.394  10.492   2.343
27176SOL     OW83301  14.690   8.639  12.386
27176SOL    HW183302  14.707   8.581  12.312
27176SOL    HW283303  14.726   8.724  12.359
27177SOL     OW83304   3.325   5.529  13.308
27177SOL    HW183305   3.393   5.568  13.362
27177SOL    HW283306   3.258   5.500  13.370
27178SOL     OW83307   6.778  14.814  10.316
27178SOL    HW183308   6.848  14.848  10.262
27178SOL    HW283309   6.723  14.764  10.256
27179SOL     OW83310   2.808  13.958  11.802
27179SOL    HW183311   2.719  13.933  11.776
27179SOL    HW283312   2.857  13.960  11.720
27180SOL     OW83313  13.909   2.218   5.487
27180SOL    HW183314  13.890   2.130   5.519
27180SOL    HW283315  13.966   2.204   5.411
27181SOL     OW83316   6.227   1.707  13.752
27181SOL    HW183317   6.224   1.731  13.660
27181SOL    HW283318   6.151   1.750  13.791
27182SOL     OW83319  11.280  11.891   0.850
27182SOL    HW183320  11.296  11.985   0.858
27182SOL    HW283321  11.363  11.855   0.820
27183SOL     OW83322  11.914  10.355   4.830
27183SOL    HW183323  11.983  10.325   4.771
27183SOL    HW283324  11.866  10.276   4.853
27184SOL     OW83325  13.262  14.005  10.153
27184SOL    HW183326  13.173  14.041  10.146
27184SOL    HW283327  13.306  14.064  10.213
27185SOL     OW83328   7.697   3.199   2.190
27185SOL    HW183329   7.614   3.153   2.200
27185SOL    HW283330   7.684   3.256   2.114
27186SOL     OW83331   5.934   9.367  13.034
27186SOL    HW183332   6.011   9.416  13.063
27186SOL    HW283333   5.922   9.392  12.942
27187SOL     OW83334   0.791   8.296  10.770
27187SOL    HW183335   0.729   8.337  10.831
27187SOL    HW283336   0.767   8.331  10.684
27188SOL     OW83337  14.184   3.575   8.427
27188SOL    HW183338  14.144   3.658   8.453
27188SOL    HW283339  14.112   3.524   8.388
27189SOL     OW83340   0.200   2.442   4.788
27189SOL    HW183341   0.173   2.468   4.700
27189SOL    HW283342   0.130   2.385   4.820
27190SOL     OW83343   3.267  10.907   8.923
27190SOL    HW183344   3.219  10.843   8.976
27190SOL    HW283345   3.298  10.971   8.987
27191SOL     OW83346  11.915  10.003  10.547
27191SOL    HW183347  11.892  10.091  10.516
27191SOL    HW283348  11.899   9.947  10.472
27192SOL     OW83349   1.881   4.379   9.437
27192SOL    HW183350   1.926   4.458   9.406
27192SOL    HW283351   1.812   4.363   9.373
27193SOL     OW83352   8.517   7.327   9.159
27193SOL    HW183353   8.522   7.273   9.237
27193SOL    HW283354   8.606   7.330   9.125
27194SOL     OW83355   9.054   8.363   6.059
27194SOL    HW183356   9.136   8.405   6.033
27194SOL    HW283357   9.041   8.294   5.994
27195SOL     OW83358   9.814   5.757   9.360
27195SOL    HW183359   9.767   5.773   9.442
27195SOL    HW283360   9.787   5.669   9.334
27196SOL     OW83361   4.810  14.753   0.957
27196SOL    HW183362   4.903  14.752   0.982
27196SOL    HW283363   4.767  14.701   1.024
27197SOL     OW83364   2.317   8.098  13.358
27197SOL    HW183365   2.402   8.120  13.396
27197SOL    HW283366   2.278   8.037  13.420
27198SOL     OW83367   4.523   1.370   4.565
27198SOL    HW183368   4.478   1.346   4.646
27198SOL    HW283369   4.578   1.295   4.545
27199SOL     OW83370  10.944  12.810  12.007
27199SOL    HW183371  11.035  12.837  12.011
27199SOL    HW283372  10.942  12.740  11.942
27200SOL     OW83373   9.545   8.080  11.603
27200SOL    HW183374   9.528   8.173  11.618
27200SOL    HW283375   9.570   8.046  11.689
27201SOL     OW83376  12.629   8.557   9.622
27201SOL    HW183377  12.652   8.619   9.552
27201SOL    HW283378  12.688   8.483   9.609
27202SOL     OW83379  13.718   1.232   2.684
27202SOL    HW183380  13.736   1.139   2.676
27202SOL    HW283381  13.704   1.262   2.594
27203SOL     OW83382   2.803  14.256   9.404
27203SOL    HW183383   2.738  14.319   9.373
27203SOL    HW283384   2.801  14.265   9.499
27204SOL     OW83385   4.251   2.379   9.188
27204SOL    HW183386   4.266   2.301   9.241
27204SOL    HW283387   4.289   2.451   9.238
27205SOL     OW83388  13.826  10.535   2.604
27205SOL    HW183389  13.909  10.506   2.566
27205SOL    HW283390  13.799  10.608   2.549
27206SOL     OW83391   5.140   4.746   4.882
27206SOL    HW183392   5.179   4.771   4.798
27206SOL    HW283393   5.084   4.672   4.862
27207SOL     OW83394  13.010   8.899   4.495
27207SOL    HW183395  12.945   8.905   4.425
27207SOL    HW283396  12.988   8.819   4.542
27208SOL     OW83397   8.030   5.559  14.041
27208SOL    HW183398   8.106   5.578  14.096
27208SOL    HW283399   8.025   5.634  13.980
27209SOL     OW83400   5.482   7.236   3.441
27209SOL    HW183401   5.524   7.318   3.467
27209SOL    HW283402   5.528   7.168   3.492
27210SOL     OW83403  12.263   2.766   1.286
27210SOL    HW183404  12.205   2.782   1.360
27210SOL    HW283405  12.274   2.671   1.286
27211SOL     OW83406  12.161   9.036   2.886
27211SOL    HW183407  12.154   9.059   2.979
27211SOL    HW283408  12.235   9.088   2.854
27212SOL     OW83409  11.081   0.529  10.353
27212SOL    HW183410  11.171   0.496  10.347
27212SOL    HW283411  11.036   0.466  10.409
27213SOL     OW83412  11.330   2.547   0.535
27213SOL    HW183413  11.377   2.558   0.452
27213SOL    HW283414  11.238   2.557   0.512
27214SOL     OW83415  14.192   9.416  10.189
27214SOL    HW183416  14.217   9.472  10.262
27214SOL    HW283417  14.271   9.365  10.169
27215SOL     OW83418   5.657  12.519   6.488
27215SOL    HW183419   5.589  12.456   6.514
27215SOL    HW283420   5.638  12.538   6.396
27216SOL     OW83421  12.074   9.201   6.045
27216SOL    HW183422  12.022   9.252   6.107
27216SOL    HW283423  12.148   9.258   6.023
27217SOL     OW83424   2.304   5.550  14.060
27217SOL    HW183425   2.268   5.477  14.110
27217SOL    HW283426   2.323   5.617  14.126
27218SOL     OW83427   1.794   5.856   9.377
27218SOL    HW183428   1.882   5.893   9.382
27218SOL    HW283429   1.782   5.813   9.462
27219SOL     OW83430  13.835   7.255   4.235
27219SOL    HW183431  13.868   7.166   4.243
27219SOL    HW283432  13.804   7.278   4.322
27220SOL     OW83433   6.013  10.664   7.166
27220SOL    HW183434   5.997  10.575   7.134
27220SOL    HW283435   5.932  10.711   7.147
27221SOL     OW83436   0.929   6.471   5.160
27221SOL    HW183437   0.969   6.558   5.151
27221SOL    HW283438   0.947   6.446   5.251
27222SOL     OW83439   8.847   9.302   4.185
27222SOL    HW183440   8.864   9.396   4.183
27222SOL    HW283441   8.917   9.265   4.238
27223SOL     OW83442   2.786   8.794   8.212
27223SOL    HW183443   2.714   8.807   8.273
27223SOL    HW283444   2.857   8.849   8.247
27224SOL     OW83445   2.509   3.014  12.049
27224SOL    HW183446   2.527   2.925  12.020
27224SOL    HW283447   2.432   3.041  12.000
27225SOL     OW83448   4.401   3.563  14.181
27225SOL    HW183449   4.427   3.605  14.099
27225SOL    HW283450   4.433   3.473  14.172
27226SOL     OW83451   0.334   2.262  11.225
27226SOL    HW183452   0.284   2.240  11.146
27226SOL    HW283453   0.420   2.223  11.211
27227SOL     OW83454   8.894   9.992   4.370
27227SOL    HW183455   8.837  10.047   4.425
27227SOL    HW283456   8.942   9.938   4.432
27228SOL     OW83457  11.395   0.024   9.476
27228SOL    HW183458  11.300   0.009   9.479
27228SOL    HW283459  11.406   0.114   9.505
27229SOL     OW83460   9.467   7.449   7.355
27229SOL    HW183461   9.455   7.391   7.279
27229SOL    HW283462   9.499   7.391   7.424
27230SOL     OW83463   3.239   5.021  12.361
27230SOL    HW183464   3.321   5.048  12.404
27230SOL    HW283465   3.173   5.081  12.395
27231SOL     OW83466   6.864   8.298   3.387
27231SOL    HW183467   6.856   8.207   3.416
27231SOL    HW283468   6.871   8.349   3.468
27232SOL     OW83469   9.539   6.375   2.699
27232SOL    HW183470   9.580   6.354   2.783
27232SOL    HW283471   9.492   6.295   2.674
27233SOL     OW83472   8.947  11.180  11.776
27233SOL    HW183473   8.869  11.217  11.817
27233SOL    HW283474   8.933  11.193  11.682
27234SOL     OW83475   0.158   5.906  11.777
27234SOL    HW183476   0.246   5.943  11.772
27234SOL    HW283477   0.121   5.919  11.690
27235SOL     OW83478  11.898  12.481  11.114
27235SOL    HW183479  11.803  12.475  11.110
27235SOL    HW283480  11.924  12.504  11.024
27236SOL     OW83481   9.802   5.861   0.633
27236SOL    HW183482   9.887   5.818   0.635
27236SOL    HW283483   9.759   5.827   0.554
27237SOL     OW83484   2.443  10.893   2.763
27237SOL    HW183485   2.428  10.808   2.804
27237SOL    HW283486   2.504  10.938   2.822
27238SOL     OW83487   9.869   0.197  13.544
27238SOL    HW183488   9.915   0.121  13.581
27238SOL    HW283489   9.792   0.208  13.600
27239SOL     OW83490  14.378   9.677  13.005
27239SOL    HW183491  14.337   9.762  13.017
27239SOL    HW283492  14.340   9.621  13.072
27240SOL     OW83493   4.398   5.788   8.488
27240SOL    HW183494   4.476   5.771   8.436
27240SOL    HW283495   4.336   5.828   8.427
27241SOL     OW83496  13.611   8.589   1.751
27241SOL    HW183497  13.590   8.516   1.808
27241SOL    HW283498  13.594   8.667   1.804
27242SOL     OW83499   8.010  12.623   4.228
27242SOL    HW183500   8.040  12.623   4.137
27242SOL    HW283501   8.089  12.643   4.279
27243SOL     OW83502   1.940  13.860  14.028
27243SOL    HW183503   1.958  13.953  14.043
27243SOL    HW283504   1.845  13.855  14.023
27244SOL     OW83505   2.366   3.714   4.186
27244SOL    HW183506   2.415   3.766   4.122
27244SOL    HW283507   2.276   3.716   4.155
27245SOL     OW83508  12.196   5.071   8.726
27245SOL    HW183509  12.269   5.045   8.669
27245SOL    HW283510  12.120   5.075   8.667
27246SOL     OW83511  11.061   6.285   1.974
27246SOL    HW183512  11.016   6.362   1.938
27246SOL    HW283513  11.003   6.255   2.044
27247SOL     OW83514   0.992   1.870   3.073
27247SOL    HW183515   0.943   1.884   3.154
27247SOL    HW283516   1.051   1.798   3.093
27248SOL     OW83517   6.093  11.537  10.651
27248SOL    HW183518   6.028  11.607  10.650
27248SOL    HW283519   6.050  11.463  10.609
27249SOL     OW83520   4.714   8.454   0.365
27249SOL    HW183521   4.669   8.532   0.397
27249SOL    HW283522   4.770   8.486   0.294
27250SOL     OW83523  12.848  13.360  13.829
27250SOL    HW183524  12.847  13.442  13.779
27250SOL    HW283525  12.832  13.388  13.919
27251SOL     OW83526  10.147   6.435   8.509
27251SOL    HW183527  10.120   6.352   8.549
27251SOL    HW283528  10.065   6.484   8.498
27252SOL     OW83529   6.378   2.390  13.177
27252SOL    HW183530   6.361   2.298  13.196
27252SOL    HW283531   6.310   2.415  13.115
27253SOL     OW83532  14.463  14.225  11.053
27253SOL    HW183533  14.458  14.225  10.958
27253SOL    HW283534  14.541  14.276  11.073
27254SOL     OW83535  12.671  13.985   0.479
27254SOL    HW183536  12.712  14.044   0.416
27254SOL    HW283537  12.631  13.917   0.425
27255SOL     OW83538  10.034   0.183   8.350
27255SOL    HW183539  10.042   0.271   8.313
27255SOL    HW283540   9.947   0.181   8.390
27256SOL     OW83541   8.217   8.002   3.673
27256SOL    HW183542   8.301   8.010   3.719
27256SOL    HW283543   8.237   7.950   3.596
27257SOL     OW83544   7.788  10.381  10.424
27257SOL    HW183545   7.744  10.449  10.475
27257SOL    HW283546   7.807  10.422  10.340
27258SOL     OW83547  10.315  14.215   7.773
27258SOL    HW183548  10.228  14.212   7.813
27258SOL    HW283549  10.298  14.202   7.679
27259SOL     OW83550  11.887   7.427   7.634
27259SOL    HW183551  11.851   7.416   7.722
27259SOL    HW283552  11.893   7.522   7.622
27260SOL     OW83553  14.854   4.162  13.343
27260SOL    HW183554   0.033   4.117  13.284
27260SOL    HW283555  14.876   4.255  13.333
27261SOL     OW83556   0.609   4.777   4.158
27261SOL    HW183557   0.645   4.820   4.080
27261SOL    HW283558   0.542   4.837   4.190
27262SOL     OW83559   6.825   7.768   0.564
27262SOL    HW183560   6.886   7.835   0.534
27262SOL    HW283561   6.828   7.700   0.497
27263SOL     OW83562   7.111  13.483  11.273
27263SOL    HW183563   7.023  13.512  11.296
27263SOL    HW283564   7.153  13.561  11.236
27264SOL     OW83565  14.605   7.819   3.193
27264SOL    HW183566  14.605   7.826   3.288
27264SOL    HW283567  14.598   7.909   3.162
27265SOL     OW83568  11.423   1.078   6.777
27265SOL    HW183569  11.435   0.983   6.767
27265SOL    HW283570  11.377   1.105   6.698
27266SOL     OW83571   4.292  13.955   9.501
27266SOL    HW183572   4.263  13.979   9.413
27266SOL    HW283573   4.387  13.953   9.494
27267SOL     OW83574  12.642  14.362   1.225
27267SOL    HW183575  12.637  14.391   1.133
27267SOL    HW283576  12.600  14.276   1.225
27268SOL     OW83577   5.886  10.550   7.955
27268SOL    HW183578   5.938  10.525   8.032
27268SOL    HW283579   5.829  10.474   7.940
27269SOL     OW83580   5.285   6.699  14.442
27269SOL    HW183581   5.201   6.661  14.418
27269SOL    HW283582   5.348   6.654  14.386
27270SOL     OW83583  10.770  12.598   2.500
27270SOL    HW183584  10.783  12.615   2.594
27270SOL    HW283585  10.829  12.660   2.457
27271SOL     OW83586   3.510   1.914  13.024
27271SOL    HW183587   3.542   1.935  13.112
27271SOL    HW283588   3.540   1.824  13.008
27272SOL     OW83589   5.962   7.518   4.041
27272SOL    HW183590   5.935   7.607   4.020
27272SOL    HW283591   5.900   7.462   3.995
27273SOL     OW83592   0.846   0.414   9.734
27273SOL    HW183593   0.935   0.402   9.767
27273SOL    HW283594   0.857   0.445   9.644
27274SOL     OW83595   7.452   5.512   5.132
27274SOL    HW183596   7.489   5.595   5.162
27274SOL    HW283597   7.492   5.446   5.189
27275SOL     OW83598  13.989   9.547   4.023
27275SOL    HW183599  13.925   9.519   4.089
27275SOL    HW283600  14.060   9.483   4.030
27276SOL     OW83601   2.218   5.333  10.094
27276SOL    HW183602   2.197   5.424  10.076
27276SOL    HW283603   2.305   5.335  10.134
27277SOL     OW83604   1.484   3.337   2.255
27277SOL    HW183605   1.424   3.378   2.192
27277SOL    HW283606   1.440   3.255   2.280
27278SOL     OW83607   7.528  11.014   6.144
27278SOL    HW183608   7.577  10.974   6.072
27278SOL    HW283609   7.543  11.108   6.134
27279SOL     OW83610   3.205   4.452  13.715
27279SOL    HW183611   3.157   4.430  13.795
27279SOL    HW283612   3.138   4.473  13.651
27280SOL     OW83613  11.061   2.099   5.445
27280SOL    HW183614  11.018   2.168   5.495
27280SOL    HW283615  11.155   2.113   5.461
27281SOL     OW83616  12.945   9.962   9.352
27281SOL    HW183617  13.041   9.962   9.352
27281SOL    HW283618  12.922  10.029   9.288
27282SOL     OW83619  13.889   8.383   4.749
27282SOL    HW183620  13.799   8.349   4.748
27282SOL    HW283621  13.929   8.341   4.825
27283SOL     OW83622  11.632   1.911   4.571
27283SOL    HW183623  11.629   1.837   4.631
27283SOL    HW283624  11.582   1.980   4.615
27284SOL     OW83625   1.794   3.252  12.618
27284SOL    HW183626   1.872   3.304  12.635
27284SOL    HW283627   1.777   3.264  12.525
27285SOL     OW83628  12.192   8.821   6.870
27285SOL    HW183629  12.220   8.733   6.842
27285SOL    HW283630  12.122   8.805   6.932
27286SOL     OW83631  11.069  10.612   1.524
27286SOL    HW183632  11.072  10.676   1.452
27286SOL    HW283633  11.153  10.623   1.569
27287SOL     OW83634   1.399   1.573  10.959
27287SOL    HW183635   1.405   1.595  10.866
27287SOL    HW283636   1.308   1.592  10.982
27288SOL     OW83637  10.314   5.266   8.232
27288SOL    HW183638  10.321   5.327   8.306
27288SOL    HW283639  10.277   5.318   8.161
27289SOL     OW83640  10.686   1.461   3.843
27289SOL    HW183641  10.734   1.429   3.920
27289SOL    HW283642  10.741   1.436   3.769
27290SOL     OW83643  14.733  14.733   8.798
27290SOL    HW183644  14.673  14.807   8.794
27290SOL    HW283645  14.756  14.726   8.890
27291SOL     OW83646   5.300   2.763  10.714
27291SOL    HW183647   5.299   2.672  10.682
27291SOL    HW283648   5.388   2.794  10.694
27292SOL     OW83649  14.223   0.382   2.950
27292SOL    HW183650  14.301   0.410   2.998
27292SOL    HW283651  14.231   0.425   2.865
27293SOL     OW83652  14.785   4.288   2.851
27293SOL    HW183653  14.791   4.206   2.899
27293SOL    HW283654  14.716   4.273   2.787
27294SOL     OW83655   4.480   7.260  12.119
27294SOL    HW183656   4.429   7.183  12.093
27294SOL    HW283657   4.567   7.225  12.139
27295SOL     OW83658  12.161  10.173   9.037
27295SOL    HW183659  12.226  10.200   9.102
27295SOL    HW283660  12.090  10.237   9.046
27296SOL     OW83661   6.986   7.280   6.766
27296SOL    HW183662   6.909   7.304   6.817
27296SOL    HW283663   7.059   7.288   6.828
27297SOL     OW83664   4.208   8.477   1.756
27297SOL    HW183665   4.117   8.450   1.741
27297SOL    HW283666   4.202   8.550   1.817
27298SOL     OW83667   9.102   2.851   2.485
27298SOL    HW183668   9.088   2.759   2.506
27298SOL    HW283669   9.142   2.851   2.399
27299SOL     OW83670  13.105   7.134  10.542
27299SOL    HW183671  13.085   7.048  10.506
27299SOL    HW283672  13.111   7.119  10.637
27300SOL     OW83673   6.050   1.710   8.278
27300SOL    HW183674   6.058   1.614   8.282
27300SOL    HW283675   5.958   1.727   8.298
27301SOL     OW83676  12.635  12.818  14.355
27301SOL    HW183677  12.570  12.886  14.341
27301SOL    HW283678  12.675  12.805  14.269
27302SOL     OW83679   2.052   6.051   3.263
27302SOL    HW183680   2.013   6.050   3.350
27302SOL    HW283681   1.978   6.064   3.204
27303SOL     OW83682   9.037  13.003   8.284
27303SOL    HW183683   9.062  13.024   8.374
27303SOL    HW283684   9.103  13.046   8.230
27304SOL     OW83685   7.190  12.223  13.162
27304SOL    HW183686   7.125  12.193  13.225
27304SOL    HW283687   7.148  12.295  13.116
27305SOL     OW83688   8.415   1.339  12.177
27305SOL    HW183689   8.475   1.268  12.153
27305SOL    HW283690   8.397   1.325  12.270
27306SOL     OW83691   2.720   3.546   2.728
27306SOL    HW183692   2.676   3.522   2.809
27306SOL    HW283693   2.795   3.488   2.723
27307SOL     OW83694  11.696  12.205   6.148
27307SOL    HW183695  11.720  12.170   6.062
27307SOL    HW283696  11.624  12.265   6.131
27308SOL     OW83697   8.811   3.664   7.943
27308SOL    HW183698   8.859   3.617   8.011
27308SOL    HW283699   8.766   3.734   7.989
27309SOL     OW83700  13.120  12.254  14.200
27309SOL    HW183701  13.129  12.301  14.283
27309SOL    HW283702  13.047  12.194  14.215
27310SOL     OW83703   6.889  13.029  12.427
27310SOL    HW183704   6.903  13.124  12.423
27310SOL    HW283705   6.970  12.992  12.395
27311SOL     OW83706  13.608  13.526   9.010
27311SOL    HW183707  13.640  13.564   9.092
27311SOL    HW283708  13.572  13.441   9.035
27312SOL     OW83709  11.333   3.062  11.746
27312SOL    HW183710  11.331   3.033  11.655
27312SOL    HW283711  11.335   3.158  11.741
27313SOL     OW83712   2.443  13.236   7.101
27313SOL    HW183713   2.485  13.240   7.015
27313SOL    HW283714   2.371  13.174   7.090
27314SOL     OW83715   1.526   3.335  10.429
27314SOL    HW183716   1.467   3.314  10.357
27314SOL    HW283717   1.548   3.250  10.468
27315SOL     OW83718   7.711  13.799   2.824
27315SOL    HW183719   7.720  13.894   2.815
27315SOL    HW283720   7.779  13.763   2.766
27316SOL     OW83721   1.563   5.005  13.893
27316SOL    HW183722   1.638   5.047  13.852
27316SOL    HW283723   1.595   4.917  13.915
27317SOL     OW83724   0.640   6.594  11.321
27317SOL    HW183725   0.583   6.518  11.330
27317SOL    HW283726   0.602   6.645  11.250
27318SOL     OW83727   9.465  13.399   1.735
27318SOL    HW183728   9.560  13.398   1.743
27318SOL    HW283729   9.442  13.308   1.716
27319SOL     OW83730   5.914  12.831  14.512
27319SOL    HW183731   5.885  12.769  14.579
27319SOL    HW283732   6.006  12.809  14.498
27320SOL     OW83733   8.072  11.298   1.060
27320SOL    HW183734   8.022  11.322   0.982
27320SOL    HW283735   8.014  11.318   1.133
27321SOL     OW83736   5.449  11.836  11.946
27321SOL    HW183737   5.414  11.751  11.921
27321SOL    HW283738   5.448  11.835  12.042
27322SOL     OW83739   8.988   0.121   0.640
27322SOL    HW183740   8.940   0.196   0.605
27322SOL    HW283741   9.076   0.155   0.657
27323SOL     OW83742   6.115   8.750   8.898
27323SOL    HW183743   6.172   8.800   8.956
27323SOL    HW283744   6.175   8.702   8.840
27324SOL     OW83745   0.036   3.409   0.916
27324SOL    HW183746  14.842   3.394   0.973
27324SOL    HW283747   0.029   3.501   0.891
27325SOL     OW83748   9.176   6.872   4.915
27325SOL    HW183749   9.225   6.814   4.974
27325SOL    HW283750   9.166   6.821   4.834
27326SOL     OW83751  10.587   4.509   8.330
27326SOL    HW183752  10.614   4.575   8.395
27326SOL    HW283753  10.491   4.510   8.334
27327SOL     OW83754   4.836   3.344   4.077
27327SOL    HW183755   4.820   3.381   3.991
27327SOL    HW283756   4.925   3.373   4.099
27328SOL     OW83757  10.650  10.043   4.134
27328SOL    HW183758  10.661  10.079   4.222
27328SOL    HW283759  10.555  10.031   4.126
27329SOL     OW83760  11.922  10.170   6.348
27329SOL    HW183761  11.882  10.251   6.379
27329SOL    HW283762  12.014  10.179   6.372
27330SOL     OW83763  10.834   4.870   2.966
27330SOL    HW183764  10.880   4.826   3.038
27330SOL    HW283765  10.742   4.844   2.978
27331SOL     OW83766   7.648  11.907   2.995
27331SOL    HW183767   7.688  11.830   2.955
27331SOL    HW283768   7.592  11.944   2.927
27332SOL     OW83769  13.495   3.896   2.820
27332SOL    HW183770  13.429   3.928   2.758
27332SOL    HW283771  13.461   3.811   2.848
27333SOL     OW83772  12.617   0.954   6.337
27333SOL    HW183773  12.613   0.965   6.432
27333SOL    HW283774  12.536   0.908   6.314
27334SOL     OW83775  14.436  10.048   4.553
27334SOL    HW183776  14.407  10.081   4.638
27334SOL    HW283777  14.485  10.120   4.515
27335SOL     OW83778   8.113   2.080  12.012
27335SOL    HW183779   8.061   2.147  11.969
27335SOL    HW283780   8.191   2.126  12.043
27336SOL     OW83781   1.783   3.708   8.718
27336SOL    HW183782   1.746   3.620   8.729
27336SOL    HW283783   1.723   3.765   8.766
27337SOL     OW83784  12.068  10.834  10.436
27337SOL    HW183785  12.080  10.929  10.446
27337SOL    HW283786  12.104  10.815  10.350
27338SOL     OW83787  11.316  10.569   9.027
27338SOL    HW183788  11.289  10.551   8.936
27338SOL    HW283789  11.373  10.496   9.050
27339SOL     OW83790  13.093   9.531   0.454
27339SOL    HW183791  13.024   9.517   0.389
27339SOL    HW283792  13.104   9.446   0.496
27340SOL     OW83793   7.176   9.275   6.528
27340SOL    HW183794   7.212   9.315   6.607
27340SOL    HW283795   7.098   9.229   6.558
27341SOL     OW83796   5.789   9.463   8.568
27341SOL    HW183797   5.794   9.377   8.526
27341SOL    HW283798   5.709   9.502   8.532
27342SOL     OW83799  12.399  11.500   0.339
27342SOL    HW183800  12.462  11.473   0.272
27342SOL    HW283801  12.422  11.449   0.416
27343SOL     OW83802  10.669   9.056  13.262
27343SOL    HW183803  10.651   9.119  13.332
27343SOL    HW283804  10.647   8.971  13.301
27344SOL     OW83805  10.973  12.953   8.170
27344SOL    HW183806  11.010  12.971   8.084
27344SOL    HW283807  10.886  12.995   8.168
27345SOL     OW83808   6.175   1.813   7.393
27345SOL    HW183809   6.115   1.850   7.457
27345SOL    HW283810   6.141   1.842   7.308
27346SOL     OW83811  12.339   7.097  12.122
27346SOL    HW183812  12.279   7.139  12.061
27346SOL    HW283813  12.336   7.004  12.098
27347SOL     OW83814  12.001   0.700   3.294
27347SOL    HW183815  11.984   0.693   3.388
27347SOL    HW283816  12.058   0.626   3.273
27348SOL     OW83817  12.344   4.571   6.527
27348SOL    HW183818  12.259   4.588   6.569
27348SOL    HW283819  12.408   4.608   6.588
27349SOL     OW83820   0.193  10.655  14.602
27349SOL    HW183821   0.218  10.727  14.543
27349SOL    HW283822   0.276  10.616  14.628
27350SOL     OW83823  12.998   0.017   6.206
27350SOL    HW183824  13.020   0.060   6.123
27350SOL    HW283825  13.072   0.035   6.263
27351SOL     OW83826   8.902  12.640   9.022
27351SOL    HW183827   8.974  12.666   8.964
27351SOL    HW283828   8.823  12.652   8.970
27352SOL     OW83829  14.696   9.667   5.746
27352SOL    HW183830  14.634   9.594   5.754
27352SOL    HW283831  14.737   9.654   5.661
27353SOL     OW83832   8.416  10.028   0.374
27353SOL    HW183833   8.323  10.004   0.367
27353SOL    HW283834   8.442  10.047   0.284
27354SOL     OW83835   5.902   7.800   3.032
27354SOL    HW183836   5.930   7.891   3.038
27354SOL    HW283837   5.929   7.761   3.115
27355SOL     OW83838   3.744   8.103   9.547
27355SOL    HW183839   3.767   8.133   9.635
27355SOL    HW283840   3.665   8.050   9.560
27356SOL     OW83841   2.709   8.634   4.064
27356SOL    HW183842   2.796   8.674   4.071
27356SOL    HW283843   2.651   8.708   4.044
27357SOL     OW83844  11.819  14.840  13.528
27357SOL    HW183845  11.826   0.049  13.497
27357SOL    HW283846  11.908  14.816  13.553
27358SOL     OW83847   4.046  12.514  13.288
27358SOL    HW183848   4.054  12.553  13.200
27358SOL    HW283849   4.064  12.587  13.347
27359SOL     OW83850   2.316  13.651   2.342
27359SOL    HW183851   2.299  13.635   2.249
27359SOL    HW283852   2.242  13.703   2.372
27360SOL     OW83853   8.348  11.496   8.157
27360SOL    HW183854   8.426  11.452   8.193
27360SOL    HW283855   8.343  11.579   8.205
27361SOL     OW83856  10.199   1.848   9.479
27361SOL    HW183857  10.290   1.826   9.496
27361SOL    HW283858  10.150   1.801   9.547
27362SOL     OW83859   5.794  12.330   5.056
27362SOL    HW183860   5.839  12.274   5.119
27362SOL    HW283861   5.832  12.305   4.971
27363SOL     OW83862  10.530   0.755  14.730
27363SOL    HW183863  10.562   0.680  14.679
27363SOL    HW283864  10.559   0.832  14.680
27364SOL     OW83865   3.019   3.673  10.390
27364SOL    HW183866   2.987   3.583  10.382
27364SOL    HW283867   3.021   3.689  10.484
27365SOL     OW83868   6.694   1.066   9.397
27365SOL    HW183869   6.649   1.001   9.452
27365SOL    HW283870   6.781   1.074   9.436
27366SOL     OW83871  11.444   2.815   0.161
27366SOL    HW183872  11.489   2.741   0.201
27366SOL    HW283873  11.370   2.775   0.113
27367SOL     OW83874  11.105   9.583  10.256
27367SOL    HW183875  11.169   9.521  10.291
27367SOL    HW283876  11.154   9.635  10.192
27368SOL     OW83877   1.642   5.295   0.903
27368SOL    HW183878   1.651   5.254   0.817
27368SOL    HW283879   1.732   5.318   0.928
27369SOL     OW83880  13.140   2.259  10.031
27369SOL    HW183881  13.125   2.328   9.966
27369SOL    HW283882  13.228   2.277  10.065
27370SOL     OW83883  13.983  13.978   1.916
27370SOL    HW183884  14.060  14.009   1.868
27370SOL    HW283885  14.019  13.935   1.994
27371SOL     OW83886   1.180  11.271  10.853
27371SOL    HW183887   1.220  11.184  10.856
27371SOL    HW283888   1.253  11.331  10.868
27372SOL     OW83889   7.872   3.725   9.642
27372SOL    HW183890   7.961   3.757   9.626
27372SOL    HW283891   7.846   3.685   9.559
27373SOL     OW83892  11.149  13.735   1.403
27373SOL    HW183893  11.084  13.805   1.413
27373SOL    HW283894  11.178  13.742   1.312
27374SOL     OW83895   3.403   9.607   5.933
27374SOL    HW183896   3.330   9.587   5.873
27374SOL    HW283897   3.386   9.697   5.961
27375SOL     OW83898   5.910  12.196   6.675
27375SOL    HW183899   5.901  12.112   6.721
27375SOL    HW283900   5.963  12.250   6.734
27376SOL     OW83901  11.837  12.607  12.734
27376SOL    HW183902  11.749  12.571  12.747
27376SOL    HW283903  11.894  12.553  12.789
27377SOL     OW83904   3.951  11.269   4.255
27377SOL    HW183905   3.949  11.309   4.343
27377SOL    HW283906   3.890  11.322   4.204
27378SOL     OW83907  10.780  13.925   5.126
27378SOL    HW183908  10.835  13.902   5.201
27378SOL    HW283909  10.839  13.919   5.051
27379SOL     OW83910   7.632   3.888   1.387
27379SOL    HW183911   7.705   3.826   1.386
27379SOL    HW283912   7.673   3.974   1.395
27380SOL     OW83913   8.213  14.490   0.872
27380SOL    HW183914   8.144  14.424   0.869
27380SOL    HW283915   8.166  14.573   0.883
27381SOL     OW83916   8.386   4.337   9.784
27381SOL    HW183917   8.451   4.294   9.839
27381SOL    HW283918   8.395   4.430   9.804
27382SOL     OW83919  11.590   1.694  13.309
27382SOL    HW183920  11.623   1.605  13.318
27382SOL    HW283921  11.496   1.684  13.298
27383SOL     OW83922   0.174  11.860  10.995
27383SOL    HW183923   0.185  11.909  11.076
27383SOL    HW283924   0.212  11.774  11.014
27384SOL     OW83925   1.589  11.487  10.225
27384SOL    HW183926   1.500  11.509  10.251
27384SOL    HW283927   1.643  11.516  10.299
27385SOL     OW83928   3.025   1.420   3.946
27385SOL    HW183929   2.986   1.434   3.860
27385SOL    HW283930   3.117   1.442   3.935
27386SOL     OW83931  12.996   2.405  10.654
27386SOL    HW183932  13.000   2.428  10.747
27386SOL    HW283933  13.019   2.486  10.608
27387SOL     OW83934   4.507   4.121   5.629
27387SOL    HW183935   4.581   4.177   5.654
27387SOL    HW283936   4.463   4.170   5.560
27388SOL     OW83937  12.594   5.770   9.491
27388SOL    HW183938  12.535   5.702   9.460
27388SOL    HW283939  12.559   5.852   9.456
27389SOL     OW83940  10.584   3.471   3.277
27389SOL    HW183941  10.663   3.474   3.223
27389SOL    HW283942  10.616   3.469   3.367
27390SOL     OW83943   9.871  10.047   1.674
27390SOL    HW183944   9.940   9.993   1.713
27390SOL    HW283945   9.911  10.134   1.666
27391SOL     OW83946   3.865  13.173   6.834
27391SOL    HW183947   3.772  13.160   6.814
27391SOL    HW283948   3.911  13.136   6.759
27392SOL     OW83949   8.858   0.656   1.298
27392SOL    HW183950   8.940   0.663   1.249
27392SOL    HW283951   8.885   0.658   1.390
27393SOL     OW83952  11.568   1.271  14.123
27393SOL    HW183953  11.557   1.321  14.203
27393SOL    HW283954  11.489   1.288  14.072
27394SOL     OW83955   4.721   0.465  12.078
27394SOL    HW183956   4.793   0.461  12.141
27394SOL    HW283957   4.707   0.374  12.053
27395SOL     OW83958   9.186  11.039   8.581
27395SOL    HW183959   9.155  11.120   8.539
27395SOL    HW283960   9.272  11.024   8.542
27396SOL     OW83961   5.338   8.219   0.405
27396SOL    HW183962   5.282   8.177   0.470
27396SOL    HW283963   5.384   8.146   0.362
27397SOL     OW83964   0.878   5.357  10.073
27397SOL    HW183965   0.887   5.387   9.982
27397SOL    HW283966   0.849   5.434  10.121
27398SOL     OW83967  13.907   3.004   5.055
27398SOL    HW183968  13.934   2.921   5.016
27398SOL    HW283969  13.895   2.984   5.148
27399SOL     OW83970   2.204  11.214   8.917
27399SOL    HW183971   2.288  11.184   8.950
27399SOL    HW283972   2.195  11.172   8.831
27400SOL     OW83973  10.626   1.973  11.020
27400SOL    HW183974  10.570   2.051  11.023
27400SOL    HW283975  10.628   1.948  10.928
27401SOL     OW83976  10.240  10.104  13.259
27401SOL    HW183977  10.267  10.071  13.173
27401SOL    HW283978  10.146  10.089  13.262
27402SOL     OW83979  14.590   7.254   6.714
27402SOL    HW183980  14.593   7.288   6.804
27402SOL    HW283981  14.584   7.332   6.659
27403SOL     OW83982   9.562   3.420   4.741
27403SOL    HW183983   9.469   3.402   4.756
27403SOL    HW283984   9.563   3.478   4.665
27404SOL     OW83985   9.784   6.304  14.252
27404SOL    HW183986   9.698   6.288  14.291
27404SOL    HW283987   9.797   6.399  14.260
27405SOL     OW83988   9.222   6.546  12.825
27405SOL    HW183989   9.308   6.509  12.803
27405SOL    HW283990   9.164   6.470  12.829
27406SOL     OW83991  11.943   1.068  11.271
27406SOL    HW183992  12.029   1.106  11.292
27406SOL    HW283993  11.963   0.996  11.211
27407SOL     OW83994   2.177  10.458   3.020
27407SOL    HW183995   2.112  10.419   2.962
27407SOL    HW283996   2.144  10.546   3.038
27408SOL     OW83997  14.042   5.165   9.161
27408SOL    HW183998  13.976   5.132   9.099
27408SOL    HW283999  14.001   5.240   9.202
27409SOL     OW84000   0.840  13.835  13.189
27409SOL    HW184001   0.830  13.869  13.100
27409SOL    HW284002   0.923  13.871  13.219
27410SOL     OW84003   9.059   3.001   8.125
27410SOL    HW184004   9.073   3.001   8.220
27410SOL    HW284005   9.045   2.909   8.103
27411SOL     OW84006  13.446   2.602  10.128
27411SOL    HW184007  13.390   2.679  10.119
27411SOL    HW284008  13.531   2.638  10.154
27412SOL     OW84009  10.998   5.015   3.341
27412SOL    HW184010  11.023   5.056   3.258
27412SOL    HW284011  10.913   4.975   3.323
27413SOL     OW84012   8.667   6.923  13.920
27413SOL    HW184013   8.751   6.933  13.964
27413SOL    HW284014   8.638   7.012  13.901
27414SOL     OW84015   7.221   4.076   6.303
27414SOL    HW184016   7.287   4.009   6.319
27414SOL    HW284017   7.266   4.144   6.253
27415SOL     OW84018  11.567   0.161   7.051
27415SOL    HW184019  11.576   0.223   6.979
27415SOL    HW284020  11.475   0.136   7.050
27416SOL     OW84021   9.105  12.962   0.858
27416SOL    HW184022   9.156  13.026   0.908
27416SOL    HW284023   9.170  12.901   0.825
27417SOL     OW84024   4.689   0.254   9.518
27417SOL    HW184025   4.710   0.340   9.482
27417SOL    HW284026   4.744   0.193   9.468
27418SOL     OW84027   3.825   8.459   5.548
27418SOL    HW184028   3.742   8.438   5.505
27418SOL    HW284029   3.803   8.529   5.609
27419SOL     OW84030   1.645  13.321   4.257
27419SOL    HW184031   1.643  13.363   4.344
27419SOL    HW284032   1.555  13.328   4.225
27420SOL     OW84033  13.759   1.656   2.726
27420SOL    HW184034  13.802   1.735   2.693
27420SOL    HW284035  13.830   1.592   2.734
27421SOL     OW84036  10.969   9.823  13.619
27421SOL    HW184037  10.903   9.801  13.553
27421SOL    HW284038  10.928   9.890  13.673
27422SOL     OW84039   9.432  14.690  13.978
27422SOL    HW184040   9.399  14.766  14.026
27422SOL    HW284041   9.515  14.720  13.940
27423SOL     OW84042   1.869   7.508   0.010
27423SOL    HW184043   1.915   7.454   0.074
27423SOL    HW284044   1.936   7.528  14.826
27424SOL     OW84045  11.013   1.331   3.789
27424SOL    HW184046  11.073   1.393   3.830
27424SOL    HW284047  10.955   1.303   3.860
27425SOL     OW84048   8.178   9.722   0.620
27425SOL    HW184049   8.249   9.786   0.622
27425SOL    HW284050   8.112   9.758   0.680
27426SOL     OW84051   1.297   8.791   9.604
27426SOL    HW184052   1.363   8.722   9.596
27426SOL    HW284053   1.348   8.872   9.609
27427SOL     OW84054   9.349   3.534  13.124
27427SOL    HW184055   9.263   3.509  13.090
27427SOL    HW284056   9.412   3.497  13.062
27428SOL     OW84057   2.996   5.675   8.904
27428SOL    HW184058   2.975   5.582   8.901
27428SOL    HW284059   3.088   5.680   8.879
27429SOL     OW84060   3.061   9.002   7.710
27429SOL    HW184061   3.011   8.994   7.628
27429SOL    HW284062   3.065   9.096   7.726
27430SOL     OW84063   6.875   6.221   2.276
27430SOL    HW184064   6.797   6.261   2.236
27430SOL    HW284065   6.903   6.284   2.342
27431SOL     OW84066   0.743   3.352  11.199
27431SOL    HW184067   0.670   3.300  11.163
27431SOL    HW284068   0.706   3.440  11.211
27432SOL     OW84069   8.302  12.902   6.684
27432SOL    HW184070   8.351  12.835   6.636
27432SOL    HW284071   8.352  12.982   6.670
27433SOL     OW84072   1.185  11.947   1.549
27433SOL    HW184073   1.272  11.987   1.548
27433SOL    HW284074   1.125  12.021   1.560
27434SOL     OW84075  10.383   0.561   3.661
27434SOL    HW184076  10.395   0.655   3.649
27434SOL    HW284077  10.331   0.554   3.741
27435SOL     OW84078   7.383   0.604   8.291
27435SOL    HW184079   7.299   0.588   8.248
27435SOL    HW284080   7.418   0.517   8.310
27436SOL     OW84081  12.870   1.930   2.086
27436SOL    HW184082  12.809   1.930   2.160
27436SOL    HW284083  12.955   1.948   2.125
27437SOL     OW84084   6.925  10.041  10.267
27437SOL    HW184085   6.920   9.947  10.254
27437SOL    HW284086   7.013  10.065  10.238
27438SOL     OW84087   7.528   2.376  14.297
27438SOL    HW184088   7.489   2.350  14.214
27438SOL    HW284089   7.499   2.310  14.359
27439SOL     OW84090   6.003   6.659   7.710
27439SOL    HW184091   5.958   6.617   7.637
27439SOL    HW284092   6.033   6.743   7.676
27440SOL     OW84093   8.708  12.006   4.604
27440SOL    HW184094   8.662  12.007   4.520
27440SOL    HW284095   8.702  12.097   4.634
27441SOL     OW84096   1.676   0.216   0.550
27441SOL    HW184097   1.681   0.159   0.627
27441SOL    HW284098   1.608   0.177   0.496
27442SOL     OW84099   9.217   3.308   4.267
27442SOL    HW184100   9.167   3.238   4.310
27442SOL    HW284101   9.162   3.386   4.278
27443SOL     OW84102  14.337   8.013  11.087
27443SOL    HW184103  14.338   8.035  11.181
27443SOL    HW284104  14.416   7.961  11.074
27444SOL     OW84105   9.096   7.650  11.865
27444SOL    HW184106   9.063   7.737  11.843
27444SOL    HW284107   9.049   7.591  11.806
27445SOL     OW84108   0.240   3.567  10.417
27445SOL    HW184109   0.307   3.584  10.483
27445SOL    HW284110   0.273   3.493  10.367
27446SOL     OW84111   0.584   0.812  14.253
27446SOL    HW184112   0.676   0.785  14.251
27446SOL    HW284113   0.535   0.730  14.264
27447SOL     OW84114   6.857  10.384  13.087
27447SOL    HW184115   6.936  10.347  13.047
27447SOL    HW284116   6.833  10.321  13.155
27448SOL     OW84117   6.477   9.149  14.449
27448SOL    HW184118   6.563   9.136  14.408
27448SOL    HW284119   6.478   9.092  14.525
27449SOL     OW84120   5.284   3.331  12.871
27449SOL    HW184121   5.272   3.238  12.889
27449SOL    HW284122   5.365   3.336  12.821
27450SOL     OW84123  12.170   0.205   9.623
27450SOL    HW184124  12.234   0.211   9.695
27450SOL    HW284125  12.131   0.292   9.619
27451SOL     OW84126   9.098   5.029   9.497
27451SOL    HW184127   9.081   5.044   9.404
27451SOL    HW284128   9.190   5.002   9.501
27452SOL     OW84129   7.388   1.082   8.497
27452SOL    HW184130   7.307   1.044   8.461
27452SOL    HW284131   7.452   1.011   8.491
27453SOL     OW84132   8.909  13.578   7.795
27453SOL    HW184133   8.814  13.587   7.785
27453SOL    HW284134   8.924  13.483   7.792
27454SOL     OW84135  10.120  10.813   7.564
27454SOL    HW184136  10.146  10.892   7.518
27454SOL    HW284137  10.201  10.781   7.604
27455SOL     OW84138  14.019   0.429  12.633
27455SOL    HW184139  13.943   0.372  12.626
27455SOL    HW284140  14.019   0.459  12.724
27456SOL     OW84141   4.107  12.774   7.465
27456SOL    HW184142   4.140  12.861   7.487
27456SOL    HW284143   4.085  12.778   7.372
27457SOL     OW84144   8.639  12.787   5.058
27457SOL    HW184145   8.635  12.851   5.129
27457SOL    HW284146   8.729  12.793   5.026
27458SOL     OW84147   4.998   6.956  11.219
27458SOL    HW184148   5.050   7.026  11.259
27458SOL    HW284149   4.932   7.002  11.167
27459SOL     OW84150  10.137   3.878   6.024
27459SOL    HW184151  10.068   3.898   5.960
27459SOL    HW284152  10.161   3.787   6.005
27460SOL     OW84153   7.717   6.107   3.559
27460SOL    HW184154   7.639   6.153   3.527
27460SOL    HW284155   7.782   6.121   3.490
27461SOL     OW84156  10.166   8.111   7.226
27461SOL    HW184157  10.186   8.169   7.152
27461SOL    HW284158  10.240   8.122   7.285
27462SOL     OW84159   1.423  12.821   7.691
27462SOL    HW184160   1.330  12.843   7.688
27462SOL    HW284161   1.436  12.786   7.780
27463SOL     OW84162   6.993   4.838  13.301
27463SOL    HW184163   6.943   4.919  13.290
27463SOL    HW284164   6.940   4.784  13.359
27464SOL     OW84165   5.502   1.386  10.286
27464SOL    HW184166   5.485   1.458  10.225
27464SOL    HW284167   5.418   1.371  10.329
27465SOL     OW84168   7.183   3.307   0.817
27465SOL    HW184169   7.219   3.223   0.844
27465SOL    HW284170   7.089   3.299   0.832
27466SOL     OW84171   5.977   8.623   9.533
27466SOL    HW184172   6.019   8.537   9.525
27466SOL    HW284173   6.040   8.676   9.583
27467SOL     OW84174   4.894   9.945   4.356
27467SOL    HW184175   4.829  10.015   4.354
27467SOL    HW284176   4.844   9.866   4.374
27468SOL     OW84177   5.830   1.039   4.594
27468SOL    HW184178   5.797   1.126   4.575
27468SOL    HW284179   5.865   1.045   4.683
27469SOL     OW84180  14.007   5.636  10.392
27469SOL    HW184181  13.930   5.582  10.375
27469SOL    HW284182  14.036   5.611  10.480
27470SOL     OW84183   2.123  10.354   6.831
27470SOL    HW184184   2.104  10.263   6.851
27470SOL    HW284185   2.188  10.351   6.761
27471SOL     OW84186   9.021   8.758   7.022
27471SOL    HW184187   9.039   8.683   6.966
27471SOL    HW284188   8.945   8.731   7.075
27472SOL     OW84189  11.959  12.809  13.837
27472SOL    HW184190  11.992  12.862  13.909
27472SOL    HW284191  11.886  12.860  13.801
27473SOL     OW84192  11.361   6.997   0.910
27473SOL    HW184193  11.333   7.067   0.851
27473SOL    HW284194  11.384   7.043   0.991
27474SOL     OW84195   2.629   4.743  11.260
27474SOL    HW184196   2.652   4.699  11.342
27474SOL    HW284197   2.567   4.811  11.286
27475SOL     OW84198   2.014   0.792  10.883
27475SOL    HW184199   2.013   0.831  10.795
27475SOL    HW284200   2.016   0.698  10.868
27476SOL     OW84201  12.237   5.762  13.521
27476SOL    HW184202  12.260   5.693  13.584
27476SOL    HW284203  12.313   5.768  13.463
27477SOL     OW84204  12.595   2.791   8.170
27477SOL    HW184205  12.624   2.860   8.231
27477SOL    HW284206  12.629   2.710   8.208
27478SOL     OW84207   9.959   0.477   7.243
27478SOL    HW184208   9.953   0.559   7.291
27478SOL    HW284209   9.995   0.502   7.158
27479SOL     OW84210   9.049   4.714   3.091
27479SOL    HW184211   9.037   4.665   3.173
27479SOL    HW284212   8.981   4.681   3.033
27480SOL     OW84213   5.242  13.747   9.862
27480SOL    HW184214   5.326  13.793   9.871
27480SOL    HW284215   5.229  13.738   9.768
27481SOL     OW84216   5.113   6.673  13.694
27481SOL    HW184217   5.190   6.699  13.744
27481SOL    HW284218   5.137   6.691  13.603
27482SOL     OW84219   7.458   6.485   1.275
27482SOL    HW184220   7.536   6.430   1.279
27482SOL    HW284221   7.477   6.558   1.334
27483SOL     OW84222   9.696   0.254   8.008
27483SOL    HW184223   9.755   0.203   7.952
27483SOL    HW284224   9.614   0.206   8.007
27484SOL     OW84225   2.907  12.095   6.779
27484SOL    HW184226   2.866  12.048   6.706
27484SOL    HW284227   2.851  12.171   6.793
27485SOL     OW84228   0.465   6.761   8.619
27485SOL    HW184229   0.468   6.820   8.695
27485SOL    HW284230   0.556   6.734   8.607
27486SOL     OW84231  10.186  13.723   8.105
27486SOL    HW184232  10.214  13.637   8.072
27486SOL    HW284233  10.225  13.728   8.193
27487SOL     OW84234  12.579   9.902   6.641
27487SOL    HW184235  12.519   9.827   6.642
27487SOL    HW284236  12.545   9.961   6.709
27488SOL     OW84237  11.085  13.967  10.487
27488SOL    HW184238  11.113  13.920  10.565
27488SOL    HW284239  10.990  13.956  10.485
27489SOL     OW84240   8.244   4.786   1.695
27489SOL    HW184241   8.181   4.734   1.644
27489SOL    HW284242   8.329   4.760   1.660
27490SOL     OW84243  12.836   9.065   8.542
27490SOL    HW184244  12.889   9.053   8.621
27490SOL    HW284245  12.848   8.983   8.492
27491SOL     OW84246   4.353  11.643   6.489
27491SOL    HW184247   4.345  11.679   6.577
27491SOL    HW284248   4.269  11.665   6.447
27492SOL     OW84249   9.907   1.707  13.965
27492SOL    HW184250   9.897   1.614  13.986
27492SOL    HW284251   9.982   1.736  14.017
27493SOL     OW84252   0.656   4.678  10.824
27493SOL    HW184253   0.635   4.721  10.741
27493SOL    HW284254   0.746   4.705  10.843
27494SOL     OW84255   1.786   3.180   9.658
27494SOL    HW184256   1.821   3.119   9.593
27494SOL    HW284257   1.858   3.194   9.720
27495SOL     OW84258  11.723   0.378   1.232
27495SOL    HW184259  11.688   0.300   1.275
27495SOL    HW284260  11.655   0.402   1.169
27496SOL     OW84261  12.529   6.770  12.210
27496SOL    HW184262  12.512   6.677  12.227
27496SOL    HW284263  12.494   6.816  12.286
27497SOL     OW84264   5.145   2.240  11.145
27497SOL    HW184265   5.239   2.224  11.148
27497SOL    HW284266   5.117   2.240  11.236
27498SOL     OW84267   3.241  10.767  10.881
27498SOL    HW184268   3.175  10.700  10.893
27498SOL    HW284269   3.308  10.726  10.825
27499SOL     OW84270  12.625  10.987   1.829
27499SOL    HW184271  12.678  10.978   1.750
27499SOL    HW284272  12.589  11.076   1.824
27500SOL     OW84273   8.308   8.326   3.840
27500SOL    HW184274   8.224   8.291   3.869
27500SOL    HW284275   8.285   8.403   3.787
27501SOL     OW84276  14.009  12.031   0.212
27501SOL    HW184277  13.936  12.050   0.271
27501SOL    HW284278  14.066  11.973   0.261
27502SOL     OW84279   8.802   1.362   5.820
27502SOL    HW184280   8.767   1.363   5.909
27502SOL    HW284281   8.866   1.433   5.818
27503SOL     OW84282   9.950  10.676  11.540
27503SOL    HW184283   9.901  10.748  11.582
27503SOL    HW284284   9.900  10.598  11.560
27504SOL     OW84285  11.905   0.743   2.417
27504SOL    HW184286  11.848   0.678   2.459
27504SOL    HW284287  11.966   0.770   2.486
27505SOL     OW84288   7.909   6.054   8.560
27505SOL    HW184289   7.977   6.039   8.494
27505SOL    HW284290   7.833   6.006   8.527
27506SOL     OW84291   5.176   3.960  13.784
27506SOL    HW184292   5.183   3.879  13.834
27506SOL    HW284293   5.122   3.937  13.708
27507SOL     OW84294   5.839   2.170   3.643
27507SOL    HW184295   5.831   2.252   3.594
27507SOL    HW284296   5.801   2.103   3.585
27508SOL     OW84297   1.976   0.937  10.638
27508SOL    HW184298   2.065   0.940  10.603
27508SOL    HW284299   1.930   0.874  10.583
27509SOL     OW84300   0.748   4.159  10.879
27509SOL    HW184301   0.780   4.155  10.970
27509SOL    HW284302   0.774   4.246  10.849
27510SOL     OW84303   7.785   7.942   0.701
27510SOL    HW184304   7.736   7.861   0.712
27510SOL    HW284305   7.874   7.914   0.680
27511SOL     OW84306  11.517   0.053   8.769
27511SOL    HW184307  11.570  14.855   8.767
27511SOL    HW284308  11.474   0.056   8.683
27512SOL     OW84309  10.164   4.510   3.155
27512SOL    HW184310  10.085   4.475   3.115
27512SOL    HW284311  10.228   4.440   3.148
27513SOL     OW84312   6.275  14.050   0.236
27513SOL    HW184313   6.306  14.060   0.326
27513SOL    HW284314   6.354  14.036   0.185
27514SOL     OW84315   5.362   1.081  12.334
27514SOL    HW184316   5.387   1.066  12.243
27514SOL    HW284317   5.446   1.082  12.381
27515SOL     OW84318  12.535   1.382   7.620
27515SOL    HW184319  12.551   1.372   7.526
27515SOL    HW284320  12.561   1.298   7.658
27516SOL     OW84321   5.723   3.527  10.566
27516SOL    HW184322   5.780   3.576  10.626
27516SOL    HW284323   5.754   3.550  10.479
27517SOL     OW84324   1.935  11.837  13.995
27517SOL    HW184325   1.943  11.932  13.991
27517SOL    HW284326   1.842  11.820  13.981
27518SOL     OW84327   3.252   4.899   9.690
27518SOL    HW184328   3.312   4.974   9.688
27518SOL    HW284329   3.251   4.871   9.781
27519SOL     OW84330   6.306   1.576   6.010
27519SOL    HW184331   6.277   1.542   6.094
27519SOL    HW284332   6.268   1.516   5.945
27520SOL     OW84333   3.402   9.638  13.607
27520SOL    HW184334   3.482   9.591  13.631
27520SOL    HW284335   3.425   9.731  13.619
27521SOL     OW84336   3.620   0.942   0.161
27521SOL    HW184337   3.599   0.893   0.082
27521SOL    HW284338   3.714   0.959   0.154
27522SOL     OW84339  13.673   8.276   3.124
27522SOL    HW184340  13.728   8.346   3.090
27522SOL    HW284341  13.735   8.214   3.162
27523SOL     OW84342   4.069  11.161   4.495
27523SOL    HW184343   4.119  11.089   4.457
27523SOL    HW284344   4.052  11.133   4.585
27524SOL     OW84345   9.165   9.902   9.513
27524SOL    HW184346   9.113   9.825   9.488
27524SOL    HW284347   9.139   9.920   9.603
27525SOL     OW84348  11.206  10.123  13.165
27525SOL    HW184349  11.219  10.212  13.131
27525SOL    HW284350  11.284  10.075  13.137
27526SOL     OW84351   6.475   9.460   4.178
27526SOL    HW184352   6.451   9.495   4.092
27526SOL    HW284353   6.410   9.499   4.237
27527SOL     OW84354   4.599  10.010  13.693
27527SOL    HW184355   4.630  10.100  13.682
27527SOL    HW284356   4.651   9.958  13.632
27528SOL     OW84357  10.871  12.766   2.720
27528SOL    HW184358  10.926  12.765   2.798
27528SOL    HW284359  10.799  12.825   2.742
27529SOL     OW84360   0.483   8.348  11.709
27529SOL    HW184361   0.516   8.364  11.797
27529SOL    HW284362   0.427   8.423  11.689
27530SOL     OW84363   8.843   0.336   4.673
27530SOL    HW184364   8.791   0.416   4.673
27530SOL    HW284365   8.932   0.365   4.657
27531SOL     OW84366  14.737   6.021  14.259
27531SOL    HW184367  14.716   6.046  14.169
27531SOL    HW284368  14.758   6.104  14.302
27532SOL     OW84369  13.393   6.803   4.843
27532SOL    HW184370  13.371   6.896   4.841
27532SOL    HW284371  13.312   6.758   4.820
27533SOL     OW84372   3.597   8.912   7.954
27533SOL    HW184373   3.645   8.970   7.895
27533SOL    HW284374   3.657   8.838   7.968
27534SOL     OW84375   4.363   1.306   6.338
27534SOL    HW184376   4.276   1.287   6.303
27534SOL    HW284377   4.418   1.321   6.261
27535SOL     OW84378  11.157   6.101   6.166
27535SOL    HW184379  11.107   6.130   6.090
27535SOL    HW284380  11.103   6.032   6.205
27536SOL     OW84381   1.363   7.886  14.063
27536SOL    HW184382   1.394   7.795  14.059
27536SOL    HW284383   1.274   7.880  14.095
27537SOL     OW84384   2.876  11.683   4.297
27537SOL    HW184385   2.963  11.678   4.337
27537SOL    HW284386   2.868  11.601   4.248
27538SOL     OW84387   1.603  13.940   1.662
27538SOL    HW184388   1.542  13.986   1.605
27538SOL    HW284389   1.579  13.848   1.654
27539SOL     OW84390   8.040   1.070   8.263
27539SOL    HW184391   8.033   0.995   8.323
27539SOL    HW284392   8.134   1.083   8.251
27540SOL     OW84393   1.829  12.306   1.991
27540SOL    HW184394   1.797  12.250   2.061
27540SOL    HW284395   1.750  12.336   1.946
27541SOL     OW84396   5.058   8.564   8.432
27541SOL    HW184397   5.101   8.648   8.419
27541SOL    HW284398   4.971   8.575   8.394
27542SOL     OW84399   7.187   7.551   6.885
27542SOL    HW184400   7.208   7.474   6.937
27542SOL    HW284401   7.269   7.573   6.841
27543SOL     OW84402   0.914   0.128   2.681
27543SOL    HW184403   0.957   0.046   2.660
27543SOL    HW284404   0.911   0.176   2.598
27544SOL     OW84405   3.488   9.201  13.045
27544SOL    HW184406   3.521   9.115  13.071
27544SOL    HW284407   3.508   9.207  12.952
27545SOL     OW84408  11.842   4.525  10.101
27545SOL    HW184409  11.844   4.599  10.040
27545SOL    HW284410  11.813   4.451  10.048
27546SOL     OW84411  14.223   0.839   7.746
27546SOL    HW184412  14.292   0.783   7.711
27546SOL    HW284413  14.202   0.900   7.675
27547SOL     OW84414   8.431  10.813   5.047
27547SOL    HW184415   8.462  10.794   4.958
27547SOL    HW284416   8.480  10.891   5.073
27548SOL     OW84417  11.005  13.292  11.090
27548SOL    HW184418  11.032  13.343  11.014
27548SOL    HW284419  11.079  13.233  11.107
27549SOL     OW84420  11.112   9.245   7.928
27549SOL    HW184421  11.162   9.259   7.848
27549SOL    HW284422  11.162   9.181   7.977
27550SOL     OW84423   8.703   0.194   4.913
27550SOL    HW184424   8.744   0.208   4.998
27550SOL    HW284425   8.741   0.262   4.856
27551SOL     OW84426   9.603   1.613   8.494
27551SOL    HW184427   9.654   1.546   8.447
27551SOL    HW284428   9.523   1.568   8.520
27552SOL     OW84429  14.563   7.018  14.092
27552SOL    HW184430  14.479   7.057  14.116
27552SOL    HW284431  14.603   6.994  14.176
27553SOL     OW84432   4.318  13.105   4.640
27553SOL    HW184433   4.286  13.045   4.707
27553SOL    HW284434   4.345  13.049   4.567
27554SOL     OW84435   1.288   7.827   6.566
27554SOL    HW184436   1.339   7.907   6.585
27554SOL    HW284437   1.208   7.859   6.525
27555SOL     OW84438   2.670   3.327  10.270
27555SOL    HW184439   2.750   3.379  10.258
27555SOL    HW284440   2.702   3.238  10.287
27556SOL     OW84441   0.135  14.691  14.767
27556SOL    HW184442   0.151  14.752  14.695
27556SOL    HW284443   0.177  14.610  14.739
27557SOL     OW84444   4.026   2.521  13.741
27557SOL    HW184445   3.937   2.555  13.732
27557SOL    HW284446   4.069   2.582  13.801
27558SOL     OW84447   0.469   0.577   5.705
27558SOL    HW184448   0.556   0.612   5.686
27558SOL    HW284449   0.435   0.549   5.619
27559SOL     OW84450  10.486   1.938   2.161
27559SOL    HW184451  10.469   2.013   2.218
27559SOL    HW284452  10.580   1.923   2.169
27560SOL     OW84453   3.686  12.606  12.547
27560SOL    HW184454   3.743  12.539  12.585
27560SOL    HW284455   3.604  12.599  12.596
27561SOL     OW84456  13.652   3.182  13.860
27561SOL    HW184457  13.620   3.106  13.811
27561SOL    HW284458  13.626   3.258  13.807
27562SOL     OW84459   1.918   2.269   2.990
27562SOL    HW184460   1.849   2.266   2.924
27562SOL    HW284461   1.955   2.357   2.981
27563SOL     OW84462   5.278  13.367   8.806
27563SOL    HW184463   5.219  13.312   8.858
27563SOL    HW284464   5.300  13.313   8.730
27564SOL     OW84465   4.949   8.523   4.772
27564SOL    HW184466   4.970   8.505   4.863
27564SOL    HW284467   4.915   8.613   4.772
27565SOL     OW84468   1.719   7.547  11.110
27565SOL    HW184469   1.738   7.464  11.065
27565SOL    HW284470   1.801   7.596  11.105
27566SOL     OW84471  10.825  14.291  11.059
27566SOL    HW184472  10.804  14.258  11.146
27566SOL    HW284473  10.877  14.220  11.019
27567SOL     OW84474   9.734  11.020  10.550
27567SOL    HW184475   9.673  10.971  10.496
27567SOL    HW284476   9.819  11.010  10.507
27568SOL     OW84477   6.969  11.202   5.957
27568SOL    HW184478   6.954  11.163   6.043
27568SOL    HW284479   6.980  11.127   5.899
27569SOL     OW84480   7.578   8.887  13.100
27569SOL    HW184481   7.488   8.905  13.126
27569SOL    HW284482   7.596   8.949  13.029
27570SOL     OW84483   6.449   4.348  11.556
27570SOL    HW184484   6.367   4.337  11.507
27570SOL    HW284485   6.493   4.264  11.549
27571SOL     OW84486  11.221   7.631   8.462
27571SOL    HW184487  11.158   7.699   8.437
27571SOL    HW284488  11.189   7.552   8.420
27572SOL     OW84489  10.912   1.050   1.390
27572SOL    HW184490  10.875   0.965   1.369
27572SOL    HW284491  11.005   1.034   1.404
27573SOL     OW84492   8.605   3.131   8.213
27573SOL    HW184493   8.652   3.159   8.134
27573SOL    HW284494   8.668   3.145   8.284
27574SOL     OW84495   4.267  12.799   8.870
27574SOL    HW184496   4.174  12.777   8.868
27574SOL    HW284497   4.312  12.715   8.867
27575SOL     OW84498  14.565   6.607   4.523
27575SOL    HW184499  14.601   6.577   4.606
27575SOL    HW284500  14.512   6.683   4.546
27576SOL     OW84501   3.202   0.968   1.205
27576SOL    HW184502   3.155   0.993   1.285
27576SOL    HW284503   3.137   0.919   1.154
27577SOL     OW84504   1.412  12.825   7.999
27577SOL    HW184505   1.424  12.915   7.969
27577SOL    HW284506   1.318  12.810   7.997
27578SOL     OW84507   7.065  14.471   1.943
27578SOL    HW184508   7.112  14.388   1.933
27578SOL    HW284509   7.132  14.538   1.931
27579SOL     OW84510   9.202  11.716   5.627
27579SOL    HW184511   9.214  11.810   5.612
27579SOL    HW284512   9.197  11.678   5.539
27580SOL     OW84513   1.833  11.156   1.439
27580SOL    HW184514   1.859  11.186   1.352
27580SOL    HW284515   1.742  11.184   1.449
27581SOL     OW84516   9.520   3.462   7.329
27581SOL    HW184517   9.476   3.547   7.338
27581SOL    HW284518   9.492   3.413   7.406
27582SOL     OW84519   0.697   3.319   9.936
27582SOL    HW184520   0.699   3.297   9.843
27582SOL    HW284521   0.606   3.339   9.954
27583SOL     OW84522   4.911   7.160   1.902
27583SOL    HW184523   4.868   7.245   1.891
27583SOL    HW284524   4.864   7.118   1.973
27584SOL     OW84525   2.266   1.262   2.392
27584SOL    HW184526   2.336   1.217   2.441
27584SOL    HW284527   2.204   1.290   2.459
27585SOL     OW84528   7.199   5.181  12.300
27585SOL    HW184529   7.245   5.228  12.230
27585SOL    HW284530   7.152   5.111  12.254
27586SOL     OW84531   4.745   0.178   7.749
27586SOL    HW184532   4.674   0.180   7.685
27586SOL    HW284533   4.780   0.267   7.749
27587SOL     OW84534   5.493   7.495   9.870
27587SOL    HW184535   5.489   7.403   9.846
27587SOL    HW284536   5.544   7.536   9.800
27588SOL     OW84537   9.132  12.147   3.202
27588SOL    HW184538   9.111  12.053   3.207
27588SOL    HW284539   9.126  12.168   3.109
27589SOL     OW84540  10.080   4.249  14.146
27589SOL    HW184541  10.093   4.159  14.176
27589SOL    HW284542   9.992   4.250  14.109
27590SOL     OW84543  12.086   0.757  12.366
27590SOL    HW184544  12.132   0.807  12.300
27590SOL    HW284545  12.020   0.707  12.318
27591SOL     OW84546   3.446   7.337  11.555
27591SOL    HW184547   3.474   7.266  11.612
27591SOL    HW284548   3.520   7.351  11.496
27592SOL     OW84549   4.902  13.333   7.644
27592SOL    HW184550   4.953  13.364   7.719
27592SOL    HW284551   4.838  13.273   7.683
27593SOL     OW84552   3.890   0.517   6.260
27593SOL    HW184553   3.812   0.495   6.211
27593SOL    HW284554   3.892   0.455   6.333
27594SOL     OW84555   3.496  13.298   8.885
27594SOL    HW184556   3.411  13.282   8.844
27594SOL    HW284557   3.516  13.217   8.933
27595SOL     OW84558   5.390  14.814  11.901
27595SOL    HW184559   5.363  14.760  11.827
27595SOL    HW284560   5.483  14.795  11.912
27596SOL     OW84561   8.982   6.161  14.241
27596SOL    HW184562   8.994   6.150  14.336
27596SOL    HW284563   9.035   6.091  14.203
27597SOL     OW84564   3.168   4.898   8.766
27597SOL    HW184565   3.123   4.865   8.688
27597SOL    HW284566   3.165   4.825   8.828
27598SOL     OW84567   6.142   3.885  13.870
27598SOL    HW184568   6.216   3.935  13.836
27598SOL    HW284569   6.074   3.951  13.886
27599SOL     OW84570  13.703   7.052  11.707
27599SOL    HW184571  13.763   7.079  11.776
27599SOL    HW284572  13.760   7.024  11.635
27600SOL     OW84573  11.709  10.207   8.186
27600SOL    HW184574  11.748  10.181   8.103
27600SOL    HW284575  11.686  10.300   8.174
27601SOL     OW84576   8.348   0.914   6.689
27601SOL    HW184577   8.287   0.988   6.691
27601SOL    HW284578   8.331   0.867   6.770
27602SOL     OW84579   1.238   6.183   2.917
27602SOL    HW184580   1.165   6.246   2.919
27602SOL    HW284581   1.316   6.237   2.924
27603SOL     OW84582   4.716   5.896   4.941
27603SOL    HW184583   4.680   5.951   5.010
27603SOL    HW284584   4.651   5.899   4.871
27604SOL     OW84585   1.381  11.257   1.245
27604SOL    HW184586   1.329  11.335   1.225
27604SOL    HW284587   1.457  11.263   1.188
27605SOL     OW84588  13.899  10.331   5.398
27605SOL    HW184589  13.962  10.395   5.433
27605SOL    HW284590  13.954  10.261   5.363
27606SOL     OW84591  10.839   8.173   7.287
27606SOL    HW184592  10.803   8.235   7.223
27606SOL    HW284593  10.844   8.223   7.369
27607SOL     OW84594   7.899  10.728   7.241
27607SOL    HW184595   7.968  10.700   7.181
27607SOL    HW284596   7.920  10.684   7.324
27608SOL     OW84597  12.592   0.511   0.775
27608SOL    HW184598  12.563   0.533   0.686
27608SOL    HW284599  12.658   0.443   0.762
27609SOL     OW84600   5.267  11.942   3.789
27609SOL    HW184601   5.327  11.894   3.845
27609SOL    HW284602   5.198  11.879   3.768
27610SOL     OW84603   1.237   3.230  12.765
27610SOL    HW184604   1.149   3.255  12.791
27610SOL    HW284605   1.294   3.275  12.829
27611SOL     OW84606   3.034   6.997   0.893
27611SOL    HW184607   2.966   7.058   0.922
27611SOL    HW284608   2.993   6.911   0.903
27612SOL     OW84609   5.346   4.596  12.666
27612SOL    HW184610   5.395   4.578  12.747
27612SOL    HW284611   5.317   4.687  12.676
27613SOL     OW84612   5.020   0.922  14.700
27613SOL    HW184613   4.995   0.869  14.624
27613SOL    HW284614   4.941   0.925  14.754
27614SOL     OW84615   7.077  11.128   0.364
27614SOL    HW184616   7.148  11.106   0.425
27614SOL    HW284617   7.002  11.148   0.421
27615SOL     OW84618   3.377  11.563  11.479
27615SOL    HW184619   3.357  11.491  11.539
27615SOL    HW284620   3.466  11.588  11.501
27616SOL     OW84621   6.764   2.621   6.977
27616SOL    HW184622   6.796   2.532   6.992
27616SOL    HW284623   6.815   2.675   7.037
27617SOL     OW84624  11.051  11.263  10.517
27617SOL    HW184625  10.986  11.230  10.455
27617SOL    HW284626  11.105  11.323  10.465
27618SOL     OW84627  11.410  13.976   7.326
27618SOL    HW184628  11.392  13.897   7.276
27618SOL    HW284629  11.498  13.964   7.362
27619SOL     OW84630   8.154  10.500   0.627
27619SOL    HW184631   8.233  10.446   0.624
27619SOL    HW284632   8.090  10.447   0.674
27620SOL     OW84633   5.015   6.705   7.557
27620SOL    HW184634   5.079   6.715   7.486
27620SOL    HW284635   4.942   6.659   7.517
27621SOL     OW84636   3.877   9.511   2.384
27621SOL    HW184637   3.936   9.480   2.453
27621SOL    HW284638   3.790   9.486   2.414
27622SOL     OW84639  13.652   2.632  11.936
27622SOL    HW184640  13.722   2.674  11.986
27622SOL    HW284641  13.645   2.544  11.972
27623SOL     OW84642   8.322  11.432   5.252
27623SOL    HW184643   8.244  11.459   5.204
27623SOL    HW284644   8.389  11.419   5.185
27624SOL     OW84645   1.989   2.670   0.320
27624SOL    HW184646   2.084   2.680   0.318
27624SOL    HW284647   1.969   2.642   0.410
27625SOL     OW84648  14.026   3.021  14.419
27625SOL    HW184649  13.999   2.929  14.421
27625SOL    HW284650  13.998   3.056  14.503
27626SOL     OW84651   5.658  10.040   8.568
27626SOL    HW184652   5.702  10.063   8.650
27626SOL    HW284653   5.571  10.012   8.595
27627SOL     OW84654   2.325  12.088   0.375
27627SOL    HW184655   2.270  12.016   0.344
27627SOL    HW284656   2.380  12.110   0.300
27628SOL     OW84657   9.619   7.308   0.979
27628SOL    HW184658   9.572   7.388   1.001
27628SOL    HW284659   9.652   7.322   0.891
27629SOL     OW84660  14.235   5.164   0.453
27629SOL    HW184661  14.248   5.221   0.529
27629SOL    HW284662  14.266   5.078   0.482
27630SOL     OW84663  10.615   2.327   7.173
27630SOL    HW184664  10.590   2.246   7.130
27630SOL    HW284665  10.536   2.381   7.170
27631SOL     OW84666   2.994   6.687   0.288
27631SOL    HW184667   2.974   6.773   0.325
27631SOL    HW284668   2.999   6.703   0.193
27632SOL     OW84669   9.908   1.016  14.038
27632SOL    HW184670   9.952   1.052  13.961
27632SOL    HW284671   9.916   1.084  14.104
27633SOL     OW84672   9.062   5.240   3.708
27633SOL    HW184673   9.088   5.166   3.762
27633SOL    HW284674   8.978   5.268   3.745
27634SOL     OW84675  10.864  10.461  12.477
27634SOL    HW184676  10.958  10.463  12.463
27634SOL    HW284677  10.841  10.368  12.478
27635SOL     OW84678   8.206   7.811   9.064
27635SOL    HW184679   8.237   7.898   9.087
27635SOL    HW284680   8.268   7.751   9.106
27636SOL     OW84681  11.148   4.979  11.074
27636SOL    HW184682  11.104   4.919  11.134
27636SOL    HW284683  11.163   4.927  10.995
27637SOL     OW84684   1.916  12.271  13.068
27637SOL    HW184685   1.918  12.337  12.999
27637SOL    HW284686   1.902  12.188  13.022
27638SOL     OW84687   3.355  13.742  12.325
27638SOL    HW184688   3.279  13.800  12.319
27638SOL    HW284689   3.427  13.795  12.291
27639SOL     OW84690   7.578   1.987  13.463
27639SOL    HW184691   7.591   1.917  13.399
27639SOL    HW284692   7.484   1.988  13.480
27640SOL     OW84693   3.351   1.318   0.334
27640SOL    HW184694   3.388   1.230   0.329
27640SOL    HW284695   3.294   1.326   0.258
27641SOL     OW84696  13.097  14.563   3.469
27641SOL    HW184697  13.159  14.522   3.530
27641SOL    HW284698  13.077  14.493   3.407
27642SOL     OW84699  10.924  11.313  12.329
27642SOL    HW184700  10.955  11.385  12.383
27642SOL    HW284701  10.997  11.250  12.330
27643SOL     OW84702  14.397   6.192   9.749
27643SOL    HW184703  14.444   6.149   9.821
27643SOL    HW284704  14.462   6.248   9.708
27644SOL     OW84705   2.997   2.875  11.007
27644SOL    HW184706   3.004   2.779  11.005
27644SOL    HW284707   2.903   2.892  10.993
27645SOL     OW84708   8.546   5.143  11.989
27645SOL    HW184709   8.503   5.058  11.996
27645SOL    HW284710   8.630   5.124  11.947
27646SOL     OW84711   1.060   9.340  14.616
27646SOL    HW184712   0.979   9.294  14.637
27646SOL    HW284713   1.113   9.335  14.696
27647SOL     OW84714  12.648   8.729  12.604
27647SOL    HW184715  12.655   8.668  12.678
27647SOL    HW284716  12.730   8.718  12.557
27648SOL     OW84717   3.276  11.259   8.673
27648SOL    HW184718   3.296  11.297   8.587
27648SOL    HW284719   3.206  11.196   8.655
27649SOL     OW84720  10.817   8.012   6.211
27649SOL    HW184721  10.882   7.941   6.214
27649SOL    HW284722  10.811   8.034   6.119
27650SOL     OW84723   1.959  12.482   6.140
27650SOL    HW184724   1.865  12.495   6.147
27650SOL    HW284725   1.997  12.563   6.174
27651SOL     OW84726   4.525   1.077  14.620
27651SOL    HW184727   4.490   1.045  14.703
27651SOL    HW284728   4.458   1.136  14.587
27652SOL     OW84729   9.948  14.469   9.270
27652SOL    HW184730  10.008  14.522   9.218
27652SOL    HW284731   9.978  14.478   9.360
27653SOL     OW84732   5.574  12.315   7.145
27653SOL    HW184733   5.502  12.253   7.160
27653SOL    HW284734   5.556  12.351   7.058
27654SOL     OW84735   3.762  14.290   3.193
27654SOL    HW184736   3.692  14.233   3.161
27654SOL    HW284737   3.797  14.332   3.115
27655SOL     OW84738   2.850   9.285  14.028
27655SOL    HW184739   2.884   9.337  13.955
27655SOL    HW284740   2.928   9.265  14.080
27656SOL     OW84741  13.937   0.895   9.389
27656SOL    HW184742  14.021   0.942   9.388
27656SOL    HW284743  13.928   0.866   9.480
27657SOL     OW84744  12.596   1.308   5.637
27657SOL    HW184745  12.579   1.250   5.563
27657SOL    HW284746  12.640   1.253   5.702
27658SOL     OW84747   5.487   8.544  13.467
27658SOL    HW184748   5.440   8.470  13.429
27658SOL    HW284749   5.486   8.528  13.561
27659SOL     OW84750   8.649   1.932  11.081
27659SOL    HW184751   8.710   1.905  11.014
27659SOL    HW284752   8.705   1.966  11.152
27660SOL     OW84753   4.753   2.398   8.114
27660SOL    HW184754   4.681   2.373   8.056
27660SOL    HW284755   4.830   2.352   8.080
27661SOL     OW84756   9.157   6.401  13.644
27661SOL    HW184757   9.158   6.350  13.562
27661SOL    HW284758   9.095   6.354  13.700
27662SOL     OW84759   5.932   4.198  13.637
27662SOL    HW184760   5.846   4.163  13.611
27662SOL    HW284761   5.956   4.147  13.714
27663SOL     OW84762   2.726   4.742  12.173
27663SOL    HW184763   2.662   4.672  12.182
27663SOL    HW284764   2.767   4.750  12.260
27664SOL     OW84765   9.468  12.962   1.445
27664SOL    HW184766   9.427  12.877   1.427
27664SOL    HW284767   9.428  12.991   1.527
27665SOL     OW84768   1.095   0.361   0.493
27665SOL    HW184769   1.038   0.404   0.430
27665SOL    HW284770   1.061   0.271   0.499
27666SOL     OW84771  14.165   6.213   5.461
27666SOL    HW184772  14.114   6.293   5.452
27666SOL    HW284773  14.256   6.241   5.455
27667SOL     OW84774   8.642   9.892  14.799
27667SOL    HW184775   8.557   9.934  14.784
27667SOL    HW284776   8.627   9.832  14.871
27668SOL     OW84777   7.310   8.663   5.466
27668SOL    HW184778   7.268   8.724   5.528
27668SOL    HW284779   7.252   8.587   5.464
27669SOL     OW84780   9.749   9.257   9.247
27669SOL    HW184781   9.706   9.176   9.276
27669SOL    HW284782   9.838   9.230   9.225
27670SOL     OW84783   7.197   6.721   8.151
27670SOL    HW184784   7.263   6.672   8.201
27670SOL    HW284785   7.238   6.734   8.065
27671SOL     OW84786   8.754   6.576   9.329
27671SOL    HW184787   8.821   6.643   9.341
27671SOL    HW284788   8.689   6.594   9.397
27672SOL     OW84789   1.813   1.538   4.182
27672SOL    HW184790   1.801   1.620   4.135
27672SOL    HW284791   1.864   1.484   4.123
27673SOL     OW84792   3.461  12.282   3.338
27673SOL    HW184793   3.513  12.263   3.260
27673SOL    HW284794   3.525  12.311   3.403
27674SOL     OW84795   2.104   4.426  13.023
27674SOL    HW184796   2.185   4.424  13.073
27674SOL    HW284797   2.035   4.438  13.089
27675SOL     OW84798   7.147   1.807   7.789
27675SOL    HW184799   7.205   1.882   7.800
27675SOL    HW284800   7.166   1.751   7.864
27676SOL     OW84801   0.103   3.839   5.473
27676SOL    HW184802   0.101   3.889   5.555
27676SOL    HW284803   0.034   3.774   5.482
27677SOL     OW84804   1.086   7.211  14.293
27677SOL    HW184805   0.992   7.194  14.286
27677SOL    HW284806   1.093   7.274  14.365
27678SOL     OW84807  11.792   4.481  11.506
27678SOL    HW184808  11.758   4.517  11.424
27678SOL    HW284809  11.748   4.396  11.515
27679SOL     OW84810   2.369   0.421  14.482
27679SOL    HW184811   2.464   0.432  14.491
27679SOL    HW284812   2.336   0.420  14.572
27680SOL     OW84813  11.703  10.112   2.755
27680SOL    HW184814  11.760  10.095   2.680
27680SOL    HW284815  11.763  10.136   2.825
27681SOL     OW84816   2.862  10.460   1.541
27681SOL    HW184817   2.773  10.494   1.543
27681SOL    HW284818   2.903  10.504   1.466
27682SOL     OW84819   3.387   0.681  14.291
27682SOL    HW184820   3.387   0.760  14.237
27682SOL    HW284821   3.391   0.608  14.228
27683SOL     OW84822   2.658  12.086   3.282
27683SOL    HW184823   2.744  12.112   3.315
27683SOL    HW284824   2.610  12.057   3.359
27684SOL     OW84825   3.444   4.244   5.900
27684SOL    HW184826   3.413   4.219   5.987
27684SOL    HW284827   3.393   4.321   5.877
27685SOL     OW84828  14.181   0.154  11.199
27685SOL    HW184829  14.100   0.121  11.239
27685SOL    HW284830  14.163   0.152  11.104
27686SOL     OW84831   6.224  13.434  10.808
27686SOL    HW184832   6.183  13.426  10.722
27686SOL    HW284833   6.318  13.432  10.791
27687SOL     OW84834  12.275  13.424   3.904
27687SOL    HW184835  12.302  13.406   3.814
27687SOL    HW284836  12.350  13.399   3.957
27688SOL     OW84837   4.354   9.486   2.612
27688SOL    HW184838   4.282   9.539   2.647
27688SOL    HW284839   4.398   9.543   2.550
27689SOL     OW84840  12.622  12.822  11.659
27689SOL    HW184841  12.604  12.729  11.646
27689SOL    HW284842  12.587  12.864  11.581
27690SOL     OW84843  12.316  11.435   5.123
27690SOL    HW184844  12.393  11.472   5.165
27690SOL    HW284845  12.304  11.487   5.044
27691SOL     OW84846  12.379   6.312  11.803
27691SOL    HW184847  12.353   6.229  11.763
27691SOL    HW284848  12.355   6.379  11.739
27692SOL     OW84849  14.417   9.426   9.862
27692SOL    HW184850  14.392   9.406   9.952
27692SOL    HW284851  14.506   9.392   9.854
27693SOL     OW84852   9.304   4.879   5.732
27693SOL    HW184853   9.396   4.898   5.714
27693SOL    HW284854   9.260   4.963   5.718
27694SOL     OW84855   9.297  14.264   7.870
27694SOL    HW184856   9.376  14.246   7.820
27694SOL    HW284857   9.327  14.275   7.960
27695SOL     OW84858   7.507  12.262  14.208
27695SOL    HW184859   7.473  12.225  14.126
27695SOL    HW284860   7.433  12.309  14.246
27696SOL     OW84861  10.805  14.172  10.474
27696SOL    HW184862  10.801  14.262  10.443
27696SOL    HW284863  10.826  14.121  10.396
27697SOL     OW84864   4.229   7.544   7.216
27697SOL    HW184865   4.186   7.478   7.271
27697SOL    HW284866   4.263   7.609   7.278
27698SOL     OW84867  12.157   7.057   8.202
27698SOL    HW184868  12.184   6.968   8.180
27698SOL    HW284869  12.193   7.072   8.289
27699SOL     OW84870   8.711   0.014   9.165
27699SOL    HW184871   8.684   0.041   9.078
27699SOL    HW284872   8.740   0.094   9.207
27700SOL     OW84873   7.640   9.649   8.850
27700SOL    HW184874   7.575   9.713   8.881
27700SOL    HW284875   7.623   9.641   8.756
27701SOL     OW84876   5.615   4.920   0.653
27701SOL    HW184877   5.580   4.878   0.575
27701SOL    HW284878   5.709   4.929   0.635
27702SOL     OW84879  13.033   5.251  10.060
27702SOL    HW184880  13.028   5.341  10.095
27702SOL    HW284881  13.037   5.196  10.138
27703SOL     OW84882   5.012   5.576   5.154
27703SOL    HW184883   5.023   5.647   5.218
27703SOL    HW284884   5.097   5.569   5.110
27704SOL     OW84885   6.544   8.968  11.934
27704SOL    HW184886   6.560   9.060  11.911
27704SOL    HW284887   6.617   8.920  11.894
27705SOL     OW84888   6.810   7.483  12.409
27705SOL    HW184889   6.876   7.540  12.448
27705SOL    HW284890   6.737   7.542  12.388
27706SOL     OW84891   0.216  13.769   0.515
27706SOL    HW184892   0.187  13.714   0.443
27706SOL    HW284893   0.137  13.814   0.545
27707SOL     OW84894   6.974   0.401  10.497
27707SOL    HW184895   6.894   0.437  10.458
27707SOL    HW284896   6.948   0.314  10.528
27708SOL     OW84897   4.961   9.138   3.059
27708SOL    HW184898   4.948   9.219   3.010
27708SOL    HW284899   4.900   9.076   3.019
27709SOL     OW84900  12.120  13.816  12.069
27709SOL    HW184901  12.029  13.807  12.096
27709SOL    HW284902  12.163  13.859  12.143
27710SOL     OW84903   6.507   5.908  11.359
27710SOL    HW184904   6.551   5.892  11.442
27710SOL    HW284905   6.568   5.964  11.310
27711SOL     OW84906   7.692   5.966  14.636
27711SOL    HW184907   7.741   6.042  14.666
27711SOL    HW284908   7.687   5.909  14.713
27712SOL     OW84909  13.747  13.748   2.773
27712SOL    HW184910  13.800  13.797   2.837
27712SOL    HW284911  13.683  13.701   2.826
27713SOL     OW84912   7.280   0.284   7.353
27713SOL    HW184913   7.317   0.363   7.392
27713SOL    HW284914   7.218   0.316   7.288
27714SOL     OW84915   4.183   7.214   2.118
27714SOL    HW184916   4.200   7.221   2.212
27714SOL    HW284917   4.243   7.145   2.088
27715SOL     OW84918  12.160   3.036   2.217
27715SOL    HW184919  12.197   3.018   2.131
27715SOL    HW284920  12.180   2.958   2.269
27716SOL     OW84921   2.587   8.596   5.382
27716SOL    HW184922   2.556   8.608   5.293
27716SOL    HW284923   2.540   8.519   5.415
27717SOL     OW84924  12.895  13.227   8.011
27717SOL    HW184925  12.828  13.197   8.072
27717SOL    HW284926  12.877  13.180   7.930
27718SOL     OW84927   5.452  13.487  13.480
27718SOL    HW184928   5.399  13.429  13.535
27718SOL    HW284929   5.431  13.575  13.512
27719SOL     OW84930   9.467   2.326   6.217
27719SOL    HW184931   9.555   2.353   6.194
27719SOL    HW284932   9.416   2.334   6.136
27720SOL     OW84933  12.353   6.451  11.572
27720SOL    HW184934  12.296   6.493  11.508
27720SOL    HW284935  12.433   6.503  11.572
27721SOL     OW84936   2.303  12.588  11.067
27721SOL    HW184937   2.315  12.504  11.022
27721SOL    HW284938   2.209  12.603  11.066
27722SOL     OW84939   8.309   0.096   9.231
27722SOL    HW184940   8.374   0.165   9.248
27722SOL    HW284941   8.361   0.017   9.216
27723SOL     OW84942  13.641   5.657  10.105
27723SOL    HW184943  13.698   5.646  10.181
27723SOL    HW284944  13.654   5.748  10.078
27724SOL     OW84945   1.909  12.042  12.921
27724SOL    HW184946   1.847  11.969  12.927
27724SOL    HW284947   1.994  12.001  12.909
27725SOL     OW84948  12.739   2.303   2.150
27725SOL    HW184949  12.816   2.321   2.204
27725SOL    HW284950  12.670   2.357   2.188
27726SOL     OW84951  14.380  10.056  13.382
27726SOL    HW184952  14.453  10.012  13.337
27726SOL    HW284953  14.317  10.075  13.313
27727SOL     OW84954   7.323   5.229  14.006
27727SOL    HW184955   7.413   5.210  14.033
27727SOL    HW284956   7.296   5.302  14.062
27728SOL     OW84957   9.725   8.108   9.521
27728SOL    HW184958   9.718   8.190   9.471
27728SOL    HW284959   9.732   8.041   9.454
27729SOL     OW84960   2.737  11.305   7.283
27729SOL    HW184961   2.750  11.272   7.372
27729SOL    HW284962   2.737  11.226   7.228
27730SOL     OW84963   2.342  14.338   6.755
27730SOL    HW184964   2.380  14.422   6.777
27730SOL    HW284965   2.411  14.274   6.775
27731SOL     OW84966   8.751  10.684   6.791
27731SOL    HW184967   8.736  10.591   6.802
27731SOL    HW284968   8.682  10.726   6.843
27732SOL     OW84969   0.251  12.089   5.598
27732SOL    HW184970   0.300  12.140   5.534
27732SOL    HW284971   0.267  11.998   5.574
27733SOL     OW84972   9.376   6.099   7.168
27733SOL    HW184973   9.319   6.137   7.102
27733SOL    HW284974   9.418   6.025   7.123
27734SOL     OW84975  13.752   5.651   2.825
27734SOL    HW184976  13.770   5.741   2.795
27734SOL    HW284977  13.805   5.642   2.904
27735SOL     OW84978  14.179   1.002   9.280
27735SOL    HW184979  14.206   1.094   9.277
27735SOL    HW284980  14.218   0.968   9.360
27736SOL     OW84981   4.811  13.899  11.194
27736SOL    HW184982   4.859  13.908  11.112
27736SOL    HW284983   4.764  13.816  11.186
27737SOL     OW84984   0.128   4.845  14.129
27737SOL    HW184985   0.108   4.933  14.097
27737SOL    HW284986   0.141   4.793  14.050
27738SOL     OW84987   4.446   5.307   6.340
27738SOL    HW184988   4.373   5.257   6.304
27738SOL    HW284989   4.410   5.394   6.357
27739SOL     OW84990   9.823   4.540   3.543
27739SOL    HW184991   9.866   4.572   3.464
27739SOL    HW284992   9.731   4.561   3.532
27740SOL     OW84993  14.427   1.154   4.636
27740SOL    HW184994  14.436   1.152   4.541
27740SOL    HW284995  14.512   1.186   4.668
27741SOL     OW84996   6.510   7.335  13.846
27741SOL    HW184997   6.438   7.300  13.897
27741SOL    HW284998   6.491   7.309  13.756
27742SOL     OW84999  13.851  10.974  11.047
27742SOL    HW185000  13.835  10.908  10.979
27742SOL    HW285001  13.881  11.052  10.998
27743SOL     OW85002  12.929  10.928  13.207
27743SOL    HW185003  13.014  10.913  13.166
27743SOL    HW285004  12.928  10.867  13.281
27744SOL     OW85005  14.001  14.450   2.342
27744SOL    HW185006  14.055  14.447   2.421
27744SOL    HW285007  14.057  14.489   2.275
27745SOL     OW85008   0.922   6.210   9.064
27745SOL    HW185009   0.896   6.200   8.972
27745SOL    HW285010   0.992   6.275   9.062
27746SOL     OW85011   5.796   3.431   6.581
27746SOL    HW185012   5.745   3.508   6.606
27746SOL    HW285013   5.887   3.461   6.585
27747SOL     OW85014  10.374   0.398  11.765
27747SOL    HW185015  10.339   0.315  11.734
27747SOL    HW285016  10.333   0.411  11.851
27748SOL     OW85017   0.609  10.978   6.298
27748SOL    HW185018   0.550  10.999   6.226
27748SOL    HW285019   0.609  11.056   6.353
27749SOL     OW85020   0.762   3.560   5.449
27749SOL    HW185021   0.704   3.579   5.523
27749SOL    HW285022   0.767   3.642   5.401
27750SOL     OW85023   3.681   9.861   3.104
27750SOL    HW185024   3.654   9.875   3.013
27750SOL    HW285025   3.724   9.942   3.130
27751SOL     OW85026  11.949  12.933   3.740
27751SOL    HW185027  11.870  12.975   3.775
27751SOL    HW285028  11.981  12.993   3.673
27752SOL     OW85029   2.272   4.870  11.488
27752SOL    HW185030   2.198   4.810  11.494
27752SOL    HW285031   2.244   4.947  11.537
27753SOL     OW85032   4.146   8.047  13.526
27753SOL    HW185033   4.193   8.035  13.444
27753SOL    HW285034   4.178   7.976  13.582
27754SOL     OW85035  11.909   1.254   1.759
27754SOL    HW185036  11.892   1.329   1.702
27754SOL    HW285037  11.992   1.275   1.802
27755SOL     OW85038   8.327  11.748   8.349
27755SOL    HW185039   8.375  11.714   8.425
27755SOL    HW285040   8.238  11.760   8.380
27756SOL     OW85041  13.039   5.950   0.236
27756SOL    HW185042  13.040   5.868   0.287
27756SOL    HW285043  12.970   6.002   0.277
27757SOL     OW85044   3.827  13.969   4.775
27757SOL    HW185045   3.738  13.978   4.739
27757SOL    HW285046   3.836  14.044   4.834
27758SOL     OW85047   5.567  10.577  11.144
27758SOL    HW185048   5.654  10.537  11.145
27758SOL    HW285049   5.585  10.671  11.140
27759SOL     OW85050  13.978   9.605   4.391
27759SOL    HW185051  14.013   9.694   4.395
27759SOL    HW285052  13.971   9.579   4.483
27760SOL     OW85053   7.796   7.170   1.829
27760SOL    HW185054   7.819   7.080   1.808
27760SOL    HW285055   7.700   7.172   1.827
27761SOL     OW85056   5.295   1.373   1.535
27761SOL    HW185057   5.368   1.430   1.509
27761SOL    HW285058   5.223   1.399   1.478
27762SOL     OW85059   8.998  13.191  13.400
27762SOL    HW185060   9.011  13.131  13.474
27762SOL    HW285061   8.960  13.270  13.439
27763SOL     OW85062  10.914  10.231   0.244
27763SOL    HW185063  10.904  10.247   0.150
27763SOL    HW285064  10.873  10.146   0.258
27764SOL     OW85065   6.189   3.855   7.193
27764SOL    HW185066   6.274   3.818   7.216
27764SOL    HW285067   6.143   3.865   7.277
27765SOL     OW85068  14.278   3.776   2.492
27765SOL    HW185069  14.340   3.832   2.538
27765SOL    HW285070  14.263   3.820   2.408
27766SOL     OW85071   1.076   7.888   0.090
27766SOL    HW185072   1.045   7.957   0.031
27766SOL    HW285073   1.053   7.806   0.045
27767SOL     OW85074   5.790  13.823   6.740
27767SOL    HW185075   5.789  13.750   6.801
27767SOL    HW285076   5.791  13.901   6.796
27768SOL     OW85077  12.267   7.039   4.077
27768SOL    HW185078  12.195   6.989   4.117
27768SOL    HW285079  12.309   7.083   4.151
27769SOL     OW85080   0.017   6.183   6.071
27769SOL    HW185081   0.077   6.131   6.124
27769SOL    HW285082  14.857   6.120   6.012
27770SOL     OW85083  10.640   4.143   7.219
27770SOL    HW185084  10.731   4.118   7.205
27770SOL    HW285085  10.602   4.148   7.131
27771SOL     OW85086  10.490   4.444   8.641
27771SOL    HW185087  10.525   4.421   8.555
27771SOL    HW285088  10.398   4.418   8.637
27772SOL     OW85089  12.521   3.918  13.825
27772SOL    HW185090  12.466   3.885  13.897
27772SOL    HW285091  12.564   3.995  13.862
27773SOL     OW85092   0.167   4.033   6.345
27773SOL    HW185093   0.218   3.999   6.418
27773SOL    HW285094   0.078   4.042   6.379
27774SOL     OW85095   0.469  11.949   2.966
27774SOL    HW185096   0.448  11.964   2.874
27774SOL    HW285097   0.472  11.853   2.975
27775SOL     OW85098   3.956   6.578  12.055
27775SOL    HW185099   3.933   6.631  11.978
27775SOL    HW285100   3.939   6.636  12.130
27776SOL     OW85101  10.284   2.072   6.712
27776SOL    HW185102  10.230   2.151   6.712
27776SOL    HW285103  10.244   2.016   6.777
27777SOL     OW85104   7.947   5.160   1.027
27777SOL    HW185105   7.897   5.183   0.948
27777SOL    HW285106   8.038   5.168   1.000
27778SOL     OW85107   6.825   4.830  12.244
27778SOL    HW185108   6.884   4.768  12.200
27778SOL    HW285109   6.850   4.915  12.208
27779SOL     OW85110  13.378   1.450   6.286
27779SOL    HW185111  13.376   1.491   6.373
27779SOL    HW285112  13.335   1.365   6.299
27780SOL     OW85113   3.973   9.321  12.375
27780SOL    HW185114   4.014   9.393  12.423
27780SOL    HW285115   3.885   9.353  12.354
27781SOL     OW85116  13.111   1.577  13.387
27781SOL    HW185117  13.087   1.646  13.325
27781SOL    HW285118  13.180   1.616  13.441
27782SOL     OW85119  13.075  11.054  12.476
27782SOL    HW185120  13.017  11.036  12.403
27782SOL    HW285121  13.161  11.067  12.437
27783SOL     OW85122   5.630  11.618   2.998
27783SOL    HW185123   5.663  11.706   2.979
27783SOL    HW285124   5.708  11.566   3.018
27784SOL     OW85125   7.665   5.913   6.697
27784SOL    HW185126   7.634   5.824   6.712
27784SOL    HW285127   7.700   5.941   6.782
27785SOL     OW85128   9.807   2.173   2.827
27785SOL    HW185129   9.796   2.268   2.825
27785SOL    HW285130   9.826   2.153   2.918
27786SOL     OW85131  11.679  12.770   8.231
27786SOL    HW185132  11.586  12.758   8.212
27786SOL    HW285133  11.681  12.840   8.296
27787SOL     OW85134   1.614   7.486  10.798
27787SOL    HW185135   1.554   7.515  10.868
27787SOL    HW285136   1.676   7.428  10.842
27788SOL     OW85137   0.513   4.395  11.675
27788SOL    HW185138   0.477   4.480  11.650
27788SOL    HW285139   0.591   4.385  11.621
27789SOL     OW85140   5.803   4.568   0.797
27789SOL    HW185141   5.810   4.517   0.878
27789SOL    HW285142   5.815   4.659   0.824
27790SOL     OW85143   8.236   7.888   6.542
27790SOL    HW185144   8.314   7.875   6.488
27790SOL    HW285145   8.163   7.861   6.486
27791SOL     OW85146  13.312   9.474  13.280
27791SOL    HW185147  13.310   9.424  13.362
27791SOL    HW285148  13.226   9.517  13.277
27792SOL     OW85149   8.814   5.847   8.077
27792SOL    HW185150   8.803   5.762   8.034
27792SOL    HW285151   8.805   5.827   8.171
27793SOL     OW85152   6.182  14.571  11.558
27793SOL    HW185153   6.265  14.541  11.519
27793SOL    HW285154   6.194  14.559  11.652
27794SOL     OW85155   9.749   7.511   7.261
27794SOL    HW185156   9.744   7.510   7.166
27794SOL    HW285157   9.760   7.419   7.285
27795SOL     OW85158   1.804  11.542  13.041
27795SOL    HW185159   1.794  11.479  12.969
27795SOL    HW285160   1.780  11.626  13.002
27796SOL     OW85161  12.549   4.225  12.728
27796SOL    HW185162  12.571   4.294  12.666
27796SOL    HW285163  12.465   4.190  12.697
27797SOL     OW85164  11.604   1.207   2.873
27797SOL    HW185165  11.614   1.125   2.920
27797SOL    HW285166  11.676   1.262   2.903
27798SOL     OW85167  14.244  10.845   5.803
27798SOL    HW185168  14.319  10.905   5.807
27798SOL    HW285169  14.249  10.796   5.886
27799SOL     OW85170   6.841   4.650   5.986
27799SOL    HW185171   6.910   4.607   6.037
27799SOL    HW285172   6.861   4.627   5.895
27800SOL     OW85173   5.031  12.760   2.995
27800SOL    HW185174   4.967  12.820   2.957
27800SOL    HW285175   5.080  12.812   3.059
27801SOL     OW85176  11.754  14.263   5.318
27801SOL    HW185177  11.767  14.257   5.412
27801SOL    HW285178  11.660  14.276   5.307
27802SOL     OW85179   4.342   4.685  14.374
27802SOL    HW185180   4.419   4.680  14.429
27802SOL    HW285181   4.306   4.772  14.391
27803SOL     OW85182   5.531  11.255   4.949
27803SOL    HW185183   5.507  11.319   4.882
27803SOL    HW285184   5.448  11.217   4.978
27804SOL     OW85185   9.581   0.910  11.193
27804SOL    HW185186   9.542   0.979  11.246
27804SOL    HW285187   9.511   0.882  11.134
27805SOL     OW85188  13.151  13.599  13.848
27805SOL    HW185189  13.121  13.550  13.771
27805SOL    HW285190  13.113  13.554  13.923
27806SOL     OW85191  14.495   0.482   0.731
27806SOL    HW185192  14.443   0.461   0.809
27806SOL    HW285193  14.444   0.549   0.685
27807SOL     OW85194   0.751   4.271   4.357
27807SOL    HW185195   0.776   4.270   4.449
27807SOL    HW285196   0.732   4.363   4.338
27808SOL     OW85197  10.429   3.017   9.485
27808SOL    HW185198  10.514   2.975   9.498
27808SOL    HW285199  10.367   2.962   9.532
27809SOL     OW85200   2.278   2.305   1.763
27809SOL    HW185201   2.295   2.248   1.688
27809SOL    HW285202   2.344   2.280   1.828
27810SOL     OW85203   5.136   4.150   0.608
27810SOL    HW185204   5.175   4.100   0.680
27810SOL    HW285205   5.083   4.216   0.652
27811SOL     OW85206  12.487   7.685  10.028
27811SOL    HW185207  12.564   7.741  10.030
27811SOL    HW285208  12.437   7.715   9.953
27812SOL     OW85209  11.782  14.457  14.825
27812SOL    HW185210  11.830  14.374  14.817
27812SOL    HW285211  11.782  14.475   0.038
27813SOL     OW85212   5.356   6.876  11.372
27813SOL    HW185213   5.401   6.899  11.454
27813SOL    HW285214   5.266   6.858  11.398
27814SOL     OW85215   2.561  10.431   8.448
27814SOL    HW185216   2.560  10.357   8.508
27814SOL    HW285217   2.564  10.392   8.361
27815SOL     OW85218  11.333  11.742  10.664
27815SOL    HW185219  11.277  11.677  10.707
27815SOL    HW285220  11.418  11.733  10.707
27816SOL     OW85221   9.769   2.880   7.050
27816SOL    HW185222   9.779   2.969   7.016
27816SOL    HW285223   9.674   2.866   7.051
27817SOL     OW85224   9.991   0.267   2.953
27817SOL    HW185225   9.936   0.344   2.936
27817SOL    HW285226  10.075   0.303   2.980
27818SOL     OW85227   0.920  12.293   2.259
27818SOL    HW185228   1.010  12.326   2.260
27818SOL    HW285229   0.922  12.221   2.195
27819SOL     OW85230   0.049   3.406   0.226
27819SOL    HW185231   0.055   3.448   0.140
27819SOL    HW285232   0.085   3.318   0.212
27820SOL     OW85233  13.397   6.250  13.449
27820SOL    HW185234  13.381   6.171  13.398
27820SOL    HW285235  13.394   6.321  13.385
27821SOL     OW85236   0.451  13.185   2.049
27821SOL    HW185237   0.423  13.166   1.959
27821SOL    HW285238   0.396  13.257   2.077
27822SOL     OW85239   3.150  10.814   5.906
27822SOL    HW185240   3.089  10.830   5.833
27822SOL    HW285241   3.237  10.817   5.865
27823SOL     OW85242  11.860   2.711  11.539
27823SOL    HW185243  11.784   2.770  11.537
27823SOL    HW285244  11.935   2.769  11.533
27824SOL     OW85245   5.917   1.517   7.683
27824SOL    HW185246   5.924   1.574   7.759
27824SOL    HW285247   6.003   1.522   7.641
27825SOL     OW85248   6.514   4.883   8.381
27825SOL    HW185249   6.525   4.830   8.302
27825SOL    HW285250   6.566   4.838   8.447
27826SOL     OW85251  14.787   0.360   1.110
27826SOL    HW185252  14.762   0.357   1.018
27826SOL    HW285253  14.862   0.302   1.116
27827SOL     OW85254   1.194   3.142   6.996
27827SOL    HW185255   1.281   3.114   6.967
27827SOL    HW285256   1.179   3.094   7.078
27828SOL     OW85257   9.302   2.433   1.562
27828SOL    HW185258   9.231   2.468   1.508
27828SOL    HW285259   9.266   2.353   1.602
27829SOL     OW85260  14.076   1.034   9.713
27829SOL    HW185261  14.167   1.022   9.685
27829SOL    HW285262  14.060   0.965   9.777
27830SOL     OW85263   5.626   7.607   1.897
27830SOL    HW185264   5.539   7.644   1.882
27830SOL    HW285265   5.684   7.683   1.901
27831SOL     OW85266   7.679   2.750   5.117
27831SOL    HW185267   7.700   2.842   5.101
27831SOL    HW285268   7.726   2.702   5.049
27832SOL     OW85269  13.761  12.851  10.471
27832SOL    HW185270  13.767  12.764  10.510
27832SOL    HW285271  13.667  12.867  10.462
27833SOL     OW85272   5.119   7.749  12.334
27833SOL    HW185273   5.180   7.822  12.335
27833SOL    HW285274   5.160   7.683  12.391
27834SOL     OW85275   7.696   1.590   9.632
27834SOL    HW185276   7.604   1.579   9.607
27834SOL    HW285277   7.710   1.684   9.631
27835SOL     OW85278  10.483   2.128   5.075
27835SOL    HW185279  10.538   2.053   5.097
27835SOL    HW285280  10.416   2.092   5.016
27836SOL     OW85281   0.715   4.037  11.422
27836SOL    HW185282   0.792   3.984  11.402
27836SOL    HW285283   0.706   4.029  11.517
27837SOL     OW85284   7.900  14.324   2.153
27837SOL    HW185285   7.853  14.355   2.230
27837SOL    HW285286   7.895  14.396   2.090
27838SOL     OW85287  10.179   6.056   2.514
27838SOL    HW185288  10.262   6.029   2.476
27838SOL    HW285289  10.136   6.107   2.445
27839SOL     OW85290   1.749   8.889   5.289
27839SOL    HW185291   1.658   8.916   5.306
27839SOL    HW285292   1.756   8.803   5.331
27840SOL     OW85293   4.748   4.975   7.045
27840SOL    HW185294   4.833   4.995   7.084
27840SOL    HW285295   4.748   5.022   6.962
27841SOL     OW85296  12.497   2.780  11.967
27841SOL    HW185297  12.574   2.744  12.012
27841SOL    HW285298  12.422   2.743  12.014
27842SOL     OW85299   6.349  13.108   8.104
27842SOL    HW185300   6.403  13.170   8.154
27842SOL    HW285301   6.276  13.160   8.071
27843SOL     OW85302   5.363   3.498   3.038
27843SOL    HW185303   5.379   3.588   3.067
27843SOL    HW285304   5.436   3.478   2.980
27844SOL     OW85305  12.473   6.175  12.196
27844SOL    HW185306  12.521   6.101  12.158
27844SOL    HW285307  12.416   6.204  12.126
27845SOL     OW85308  11.976   2.362   1.234
27845SOL    HW185309  11.919   2.325   1.166
27845SOL    HW285310  12.045   2.406   1.185
27846SOL     OW85311   4.893  12.120   0.919
27846SOL    HW185312   4.850  12.127   0.834
27846SOL    HW285313   4.872  12.202   0.963
27847SOL     OW85314   3.685  11.769  12.779
27847SOL    HW185315   3.672  11.781  12.873
27847SOL    HW285316   3.780  11.760  12.768
27848SOL     OW85317  12.502   9.984   7.389
27848SOL    HW185318  12.502   9.933   7.471
27848SOL    HW285319  12.594   9.996   7.368
27849SOL     OW85320  14.831   5.290   6.736
27849SOL    HW185321  14.819   5.273   6.829
27849SOL    HW285322   0.035   5.253   6.715
27850SOL     OW85323   3.658   4.762   4.178
27850SOL    HW185324   3.625   4.737   4.265
27850SOL    HW285325   3.736   4.815   4.197
27851SOL     OW85326  12.529   1.175   5.412
27851SOL    HW185327  12.596   1.138   5.356
27851SOL    HW285328  12.476   1.230   5.353
27852SOL     OW85329   5.169  10.746  10.629
27852SOL    HW185330   5.118  10.781  10.556
27852SOL    HW285331   5.247  10.801  10.632
27853SOL     OW85332  10.174   7.256   8.085
27853SOL    HW185333  10.101   7.244   8.146
27853SOL    HW285334  10.132   7.269   8.000
27854SOL     OW85335  10.268   8.669   7.765
27854SOL    HW185336  10.256   8.630   7.678
27854SOL    HW285337  10.179   8.679   7.799
27855SOL     OW85338  11.458   9.166   1.615
27855SOL    HW185339  11.542   9.195   1.650
27855SOL    HW285340  11.393   9.220   1.660
27856SOL     OW85341   0.352   8.008   3.852
27856SOL    HW185342   0.287   8.072   3.881
27856SOL    HW285343   0.303   7.925   3.845
27857SOL     OW85344   4.354   2.510   1.982
27857SOL    HW185345   4.431   2.476   2.027
27857SOL    HW285346   4.319   2.436   1.934
27858SOL     OW85347   3.850  11.830   5.775
27858SOL    HW185348   3.793  11.890   5.727
27858SOL    HW285349   3.798  11.750   5.785
27859SOL     OW85350   1.784   8.730   4.272
27859SOL    HW185351   1.879   8.737   4.259
27859SOL    HW285352   1.765   8.792   4.342
27860SOL     OW85353   6.592   1.232   3.588
27860SOL    HW185354   6.496   1.227   3.582
27860SOL    HW285355   6.617   1.156   3.639
27861SOL     OW85356  11.821   5.696   0.355
27861SOL    HW185357  11.808   5.777   0.306
27861SOL    HW285358  11.778   5.629   0.303
27862SOL     OW85359   0.265   7.800  11.750
27862SOL    HW185360   0.251   7.801  11.656
27862SOL    HW285361   0.224   7.719  11.780
27863SOL     OW85362  10.291   5.818   8.638
27863SOL    HW185363  10.207   5.789   8.673
27863SOL    HW285364  10.269   5.894   8.583
27864SOL     OW85365   3.478  10.378   6.084
27864SOL    HW185366   3.412  10.364   6.015
27864SOL    HW285367   3.466  10.305   6.144
27865SOL     OW85368   1.284   4.057  12.354
27865SOL    HW185369   1.190   4.040  12.356
27865SOL    HW285370   1.293   4.133  12.295
27866SOL     OW85371   2.912  12.482  11.823
27866SOL    HW185372   2.977  12.443  11.765
27866SOL    HW285373   2.832  12.432  11.808
27867SOL     OW85374  11.510   9.034   4.425
27867SOL    HW185375  11.465   8.975   4.365
27867SOL    HW285376  11.574   9.080   4.371
27868SOL     OW85377  11.507  13.410   1.920
27868SOL    HW185378  11.494  13.469   1.845
27868SOL    HW285379  11.602  13.408   1.933
27869SOL     OW85380  12.993   8.968  14.590
27869SOL    HW185381  12.923   9.031  14.608
27869SOL    HW285382  12.975   8.895  14.649
27870SOL     OW85383   0.995   2.735   0.347
27870SOL    HW185384   1.075   2.735   0.294
27870SOL    HW285385   0.943   2.663   0.312
27871SOL     OW85386  11.809   0.550  14.569
27871SOL    HW185387  11.857   0.483  14.618
27871SOL    HW285388  11.730   0.566  14.621
27872SOL     OW85389   7.436  13.435   6.238
27872SOL    HW185390   7.388  13.359   6.269
27872SOL    HW285391   7.460  13.482   6.318
27873SOL     OW85392   5.144   0.167   8.989
27873SOL    HW185393   5.170   0.159   9.080
27873SOL    HW285394   5.217   0.212   8.946
27874SOL     OW85395  10.649   3.321   8.336
27874SOL    HW185396  10.656   3.331   8.431
27874SOL    HW285397  10.554   3.315   8.319
27875SOL     OW85398   6.488   3.995  10.811
27875SOL    HW185399   6.579   3.991  10.782
27875SOL    HW285400   6.491   4.047  10.891
27876SOL     OW85401   7.380   7.618  12.543
27876SOL    HW185402   7.357   7.711  12.541
27876SOL    HW285403   7.330   7.579  12.471
27877SOL     OW85404   2.409   3.964   9.983
27877SOL    HW185405   2.447   3.972   9.895
27877SOL    HW285406   2.435   3.876  10.011
27878SOL     OW85407   7.430   5.019   5.018
27878SOL    HW185408   7.370   5.088   5.045
27878SOL    HW285409   7.373   4.948   4.988
27879SOL     OW85410   1.387   0.254   2.212
27879SOL    HW185411   1.318   0.252   2.146
27879SOL    HW285412   1.467   0.234   2.163
27880SOL     OW85413  12.082  14.661   1.654
27880SOL    HW185414  12.019  14.590   1.642
27880SOL    HW285415  12.117  14.647   1.742
27881SOL     OW85416  10.699   2.506  13.248
27881SOL    HW185417  10.628   2.445  13.227
27881SOL    HW285418  10.675   2.586  13.201
27882SOL     OW85419   4.484   5.394   3.046
27882SOL    HW185420   4.477   5.300   3.061
27882SOL    HW285421   4.578   5.410   3.036
27883SOL     OW85422   9.383   7.945   0.037
27883SOL    HW185423   9.349   8.007   0.102
27883SOL    HW285424   9.465   7.915   0.074
27884SOL     OW85425  12.197  11.625  10.657
27884SOL    HW185426  12.134  11.611  10.586
27884SOL    HW285427  12.167  11.705  10.700
27885SOL     OW85428   0.913   3.301   1.371
27885SOL    HW185429   0.895   3.280   1.462
27885SOL    HW285430   0.944   3.392   1.372
27886SOL     OW85431  14.288  12.621   4.957
27886SOL    HW185432  14.217  12.685   4.960
27886SOL    HW285433  14.300  12.595   5.049
27887SOL     OW85434   7.699  14.390   3.119
27887SOL    HW185435   7.713  14.304   3.079
27887SOL    HW285436   7.783  14.435   3.110
27888SOL     OW85437  13.761  12.036   2.919
27888SOL    HW185438  13.753  12.132   2.921
27888SOL    HW285439  13.726  12.008   3.004
27889SOL     OW85440  14.310   1.672   5.302
27889SOL    HW185441  14.309   1.767   5.286
27889SOL    HW285442  14.374   1.638   5.239
27890SOL     OW85443   1.728   4.733   6.554
27890SOL    HW185444   1.731   4.780   6.471
27890SOL    HW285445   1.662   4.780   6.606
27891SOL     OW85446   5.069   3.278  11.500
27891SOL    HW185447   5.061   3.211  11.432
27891SOL    HW285448   5.092   3.357  11.451
27892SOL     OW85449  14.260   9.091   0.694
27892SOL    HW185450  14.219   9.157   0.750
27892SOL    HW285451  14.353   9.097   0.714
27893SOL     OW85452   5.061  11.952   9.167
27893SOL    HW185453   5.073  11.857   9.159
27893SOL    HW285454   5.079  11.971   9.259
27894SOL     OW85455   7.376  10.259   9.012
27894SOL    HW185456   7.379  10.228   8.921
27894SOL    HW285457   7.409  10.348   9.008
27895SOL     OW85458   5.274  14.825   2.026
27895SOL    HW185459   5.344   0.009   2.016
27895SOL    HW285460   5.273  14.778   1.943
27896SOL     OW85461  14.524   9.420  12.207
27896SOL    HW185462  14.616   9.446  12.213
27896SOL    HW285463  14.492   9.465  12.129
27897SOL     OW85464  10.419  10.297   0.517
27897SOL    HW185465  10.374  10.378   0.493
27897SOL    HW285466  10.503  10.302   0.472
27898SOL     OW85467   9.354   6.871  13.922
27898SOL    HW185468   9.395   6.815  13.857
27898SOL    HW285469   9.260   6.862  13.906
27899SOL     OW85470  12.385   8.041  11.326
27899SOL    HW185471  12.358   7.970  11.384
27899SOL    HW285472  12.469   8.071  11.360
27900SOL     OW85473   1.850   4.797   2.075
27900SOL    HW185474   1.898   4.731   2.024
27900SOL    HW285475   1.856   4.877   2.023
27901SOL     OW85476   2.828  12.502  13.402
27901SOL    HW185477   2.736  12.489  13.376
27901SOL    HW285478   2.878  12.468  13.328
27902SOL     OW85479  11.230   4.877  10.517
27902SOL    HW185480  11.163   4.944  10.505
27902SOL    HW285481  11.212   4.812  10.450
27903SOL     OW85482   2.412   8.556   4.668
27903SOL    HW185483   2.496   8.512   4.650
27903SOL    HW285484   2.378   8.511   4.745
27904SOL     OW85485   8.883   7.191  13.846
27904SOL    HW185486   8.844   7.196  13.759
27904SOL    HW285487   8.877   7.280  13.881
27905SOL     OW85488   6.016  14.810  11.263
27905SOL    HW185489   5.972  14.733  11.298
27905SOL    HW285490   6.046  14.784  11.176
27906SOL     OW85491   3.995  10.418   0.263
27906SOL    HW185492   4.016  10.367   0.185
27906SOL    HW285493   4.024  10.363   0.336
27907SOL     OW85494   2.468   5.769   9.725
27907SOL    HW185495   2.450   5.727   9.641
27907SOL    HW285496   2.539   5.717   9.763
27908SOL     OW85497   8.118   3.769   1.933
27908SOL    HW185498   8.027   3.749   1.914
27908SOL    HW285499   8.155   3.685   1.962
27909SOL     OW85500   3.805   4.321   5.441
27909SOL    HW185501   3.802   4.362   5.354
27909SOL    HW285502   3.765   4.235   5.428
27910SOL     OW85503   5.523  13.313  11.326
27910SOL    HW185504   5.579  13.236  11.337
27910SOL    HW285505   5.571  13.384  11.368
27911SOL     OW85506  13.964  12.051  13.722
27911SOL    HW185507  13.924  12.123  13.674
27911SOL    HW285508  14.006  12.092  13.797
27912SOL     OW85509   0.833  12.371  12.361
27912SOL    HW185510   0.748  12.358  12.319
27912SOL    HW285511   0.891  12.396  12.289
27913SOL     OW85512   4.399  13.660   9.993
27913SOL    HW185513   4.482  13.616  10.008
27913SOL    HW285514   4.333  13.594  10.016
27914SOL     OW85515   0.829  10.984   2.862
27914SOL    HW185516   0.768  11.008   2.792
27914SOL    HW285517   0.785  11.010   2.942
27915SOL     OW85518   0.253   2.060  12.072
27915SOL    HW185519   0.239   2.022  11.985
27915SOL    HW285520   0.335   2.022  12.102
27916SOL     OW85521   2.309   5.872   1.469
27916SOL    HW185522   2.280   5.788   1.504
27916SOL    HW285523   2.329   5.925   1.546
27917SOL     OW85524  11.411   5.183  11.379
27917SOL    HW185525  11.356   5.118  11.423
27917SOL    HW285526  11.390   5.174  11.286
27918SOL     OW85527   9.105   5.636   6.490
27918SOL    HW185528   9.079   5.606   6.403
27918SOL    HW285529   9.063   5.722   6.499
27919SOL     OW85530   8.334   8.706   5.436
27919SOL    HW185531   8.275   8.778   5.413
27919SOL    HW285532   8.289   8.661   5.508
27920SOL     OW85533  13.621   8.520   2.621
27920SOL    HW185534  13.715   8.531   2.610
27920SOL    HW285535  13.613   8.462   2.697
27921SOL     OW85536   5.084  11.659   1.572
27921SOL    HW185537   5.131  11.722   1.518
27921SOL    HW285538   4.996  11.655   1.533
27922SOL     OW85539  14.298   3.890   0.400
27922SOL    HW185540  14.373   3.844   0.438
27922SOL    HW285541  14.232   3.889   0.470
27923SOL     OW85542   7.423  13.964   0.763
27923SOL    HW185543   7.390  13.994   0.678
27923SOL    HW285544   7.344  13.945   0.814
27924SOL     OW85545   3.310   1.123   0.761
27924SOL    HW185546   3.345   1.064   0.695
27924SOL    HW285547   3.218   1.096   0.771
27925SOL     OW85548  10.019   0.699   0.531
27925SOL    HW185549  10.009   0.633   0.463
27925SOL    HW285550  10.024   0.782   0.484
27926SOL     OW85551   2.796   2.813   8.632
27926SOL    HW185552   2.828   2.748   8.694
27926SOL    HW285553   2.742   2.764   8.570
27927SOL     OW85554  12.613  14.793   5.144
27927SOL    HW185555  12.531  14.749   5.120
27927SOL    HW285556  12.652  14.735   5.209
27928SOL     OW85557   4.216  14.212   8.215
27928SOL    HW185558   4.233  14.265   8.137
27928SOL    HW285559   4.169  14.271   8.274
27929SOL     OW85560   6.414   9.539  11.365
27929SOL    HW185561   6.425   9.617  11.311
27929SOL    HW285562   6.320   9.524  11.367
27930SOL     OW85563  14.636   2.651  11.540
27930SOL    HW185564  14.586   2.685  11.466
27930SOL    HW285565  14.576   2.590  11.584
27931SOL     OW85566   4.101  12.183   8.068
27931SOL    HW185567   4.012  12.213   8.085
27931SOL    HW285568   4.133  12.241   7.999
27932SOL     OW85569  12.406   9.704  11.499
27932SOL    HW185570  12.490   9.730  11.461
27932SOL    HW285571  12.429   9.657  11.579
27933SOL     OW85572   0.010   3.257   8.801
27933SOL    HW185573  14.854   3.341   8.776
27933SOL    HW285574  14.822   3.193   8.780
27934SOL     OW85575   5.956   6.585  11.275
27934SOL    HW185576   5.930   6.588  11.367
27934SOL    HW285577   6.043   6.625  11.273
27935SOL     OW85578   6.055  13.154  14.163
27935SOL    HW185579   6.074  13.154  14.256
27935SOL    HW285580   6.067  13.064  14.135
27936SOL     OW85581   6.761   1.960   3.318
27936SOL    HW185582   6.708   1.968   3.397
27936SOL    HW285583   6.852   1.964   3.349
27937SOL     OW85584   9.352   6.691   8.876
27937SOL    HW185585   9.428   6.748   8.868
27937SOL    HW285586   9.361   6.650   8.962
27938SOL     OW85587   8.947  14.778   7.681
27938SOL    HW185588   9.016  14.820   7.733
27938SOL    HW285589   8.886  14.849   7.661
27939SOL     OW85590   9.293  10.387  11.791
27939SOL    HW185591   9.213  10.377  11.740
27939SOL    HW285592   9.338  10.462  11.751
27940SOL     OW85593   2.624  13.832   7.306
27940SOL    HW185594   2.622  13.927   7.309
27940SOL    HW285595   2.540  13.807   7.266
27941SOL     OW85596  10.163  13.997  12.307
27941SOL    HW185597  10.224  13.941  12.354
27941SOL    HW285598  10.189  14.086  12.330
27942SOL     OW85599  14.308   4.477   3.794
27942SOL    HW185600  14.212   4.483   3.794
27942SOL    HW285601  14.337   4.558   3.834
27943SOL     OW85602  14.669  11.277   1.333
27943SOL    HW185603  14.765  11.284   1.326
27943SOL    HW285604  14.655  11.204   1.393
27944SOL     OW85605   6.315   6.140  14.817
27944SOL    HW185606   6.302   6.188   0.017
27944SOL    HW285607   6.382   6.075  14.837
27945SOL     OW85608  14.157   9.264  12.499
27945SOL    HW185609  14.168   9.174  12.532
27945SOL    HW285610  14.238   9.281  12.451
27946SOL     OW85611   5.542   5.364  13.197
27946SOL    HW185612   5.576   5.284  13.237
27946SOL    HW285613   5.471   5.334  13.140
27947SOL     OW85614   6.439  13.954   6.183
27947SOL    HW185615   6.382  14.030   6.189
27947SOL    HW285616   6.460  13.946   6.090
27948SOL     OW85617   1.148  11.675   1.584
27948SOL    HW185618   1.177  11.766   1.580
27948SOL    HW285619   1.058  11.680   1.617
27949SOL     OW85620  12.031  14.354   4.362
27949SOL    HW185621  11.999  14.437   4.397
27949SOL    HW285622  12.068  14.309   4.438
27950SOL     OW85623   9.032  10.363   9.192
27950SOL    HW185624   9.128  10.358   9.191
27950SOL    HW285625   9.006  10.298   9.257
27951SOL     OW85626  14.219   6.035  10.795
27951SOL    HW185627  14.239   6.108  10.736
27951SOL    HW285628  14.239   5.957  10.743
27952SOL     OW85629   8.257   6.230  12.949
27952SOL    HW185630   8.294   6.229  12.861
27952SOL    HW285631   8.178   6.284  12.941
27953SOL     OW85632   5.503   7.603   7.462
27953SOL    HW185633   5.457   7.554   7.530
27953SOL    HW285634   5.482   7.556   7.381
27954SOL     OW85635   7.948  13.398  10.349
27954SOL    HW185636   8.011  13.455  10.393
27954SOL    HW285637   8.000  13.324  10.318
27955SOL     OW85638   3.895   3.865  11.951
27955SOL    HW185639   3.962   3.872  11.883
27955SOL    HW285640   3.829   3.807  11.912
27956SOL     OW85641   3.852  13.861   4.163
27956SOL    HW185642   3.843  13.783   4.218
27956SOL    HW285643   3.925  13.909   4.202
27957SOL     OW85644   4.333   1.014   9.796
27957SOL    HW185645   4.403   0.951   9.816
27957SOL    HW285646   4.375   1.078   9.738
27958SOL     OW85647   2.039   5.984   9.322
27958SOL    HW185648   2.032   6.051   9.254
27958SOL    HW285649   2.128   5.993   9.356
27959SOL     OW85650  14.483   0.865   4.158
27959SOL    HW185651  14.511   0.775   4.173
27959SOL    HW285652  14.563   0.912   4.135
27960SOL     OW85653  14.521   8.147  13.785
27960SOL    HW185654  14.560   8.228  13.753
27960SOL    HW285655  14.505   8.095  13.706
27961SOL     OW85656  11.321   8.460  10.067
27961SOL    HW185657  11.411   8.436  10.044
27961SOL    HW285658  11.304   8.541  10.020
27962SOL     OW85659  11.951   1.912   3.443
27962SOL    HW185660  12.020   1.854   3.413
27962SOL    HW285661  11.929   1.964   3.366
27963SOL     OW85662   4.317   8.841   6.495
27963SOL    HW185663   4.371   8.899   6.549
27963SOL    HW285664   4.381   8.793   6.442
27964SOL     OW85665   5.493   9.983   1.503
27964SOL    HW185666   5.573  10.035   1.494
27964SOL    HW285667   5.524   9.894   1.518
27965SOL     OW85668   0.098   7.092   0.954
27965SOL    HW185669   0.157   7.075   1.027
27965SOL    HW285670   0.054   7.009   0.939
27966SOL     OW85671   9.248   1.219  11.914
27966SOL    HW185672   9.295   1.222  11.997
27966SOL    HW285673   9.156   1.213  11.939
27967SOL     OW85674   8.679   1.522  12.308
27967SOL    HW185675   8.699   1.436  12.344
27967SOL    HW285676   8.697   1.515  12.214
27968SOL     OW85677   6.527   9.733   5.986
27968SOL    HW185678   6.469   9.692   5.922
27968SOL    HW285679   6.468   9.761   6.056
27969SOL     OW85680   4.280   8.033  13.267
27969SOL    HW185681   4.330   7.951  13.274
27969SOL    HW285682   4.232   8.025  13.185
27970SOL     OW85683  11.353  11.647   8.500
27970SOL    HW185684  11.420  11.613   8.440
27970SOL    HW285685  11.370  11.742   8.503
27971SOL     OW85686   4.065  13.263   4.559
27971SOL    HW185687   4.025  13.235   4.476
27971SOL    HW285688   4.157  13.239   4.551
27972SOL     OW85689   0.990  10.411   4.963
27972SOL    HW185690   0.935  10.374   5.031
27972SOL    HW285691   1.016  10.497   4.996
27973SOL     OW85692   3.787   0.600  10.960
27973SOL    HW185693   3.819   0.511  10.974
27973SOL    HW285694   3.788   0.610  10.865
27974SOL     OW85695   3.740   4.597   5.485
27974SOL    HW185696   3.695   4.565   5.407
27974SOL    HW285697   3.818   4.541   5.493
27975SOL     OW85698   5.299   1.167   5.471
27975SOL    HW185699   5.215   1.129   5.445
27975SOL    HW285700   5.336   1.105   5.533
27976SOL     OW85701   9.943   3.992  14.087
27976SOL    HW185702  10.035   3.966  14.077
27976SOL    HW285703   9.915   3.948  14.167
27977SOL     OW85704   4.367   0.592   7.883
27977SOL    HW185705   4.286   0.602   7.834
27977SOL    HW285706   4.398   0.681   7.898
27978SOL     OW85707   8.627  14.564   4.481
27978SOL    HW185708   8.568  14.618   4.534
27978SOL    HW285709   8.576  14.485   4.460
27979SOL     OW85710   7.835  12.361  12.899
27979SOL    HW185711   7.751  12.315  12.902
27979SOL    HW285712   7.842  12.403  12.985
27980SOL     OW85713   1.198  13.358   8.889
27980SOL    HW185714   1.226  13.406   8.811
27980SOL    HW285715   1.120  13.405   8.919
27981SOL     OW85716  13.823   4.030  12.682
27981SOL    HW185717  13.757   3.980  12.730
27981SOL    HW285718  13.873   4.075  12.751
27982SOL     OW85719   0.994  14.718  11.399
27982SOL    HW185720   0.934  14.691  11.468
27982SOL    HW285721   1.056  14.645  11.392
27983SOL     OW85722  14.628  13.235  14.835
27983SOL    HW185723  14.568  13.262  14.766
27983SOL    HW285724  14.610  13.294   0.027
27984SOL     OW85725   9.849  13.485   4.150
27984SOL    HW185726   9.803  13.423   4.094
27984SOL    HW285727   9.793  13.495   4.226
27985SOL     OW85728   2.332  10.583   4.069
27985SOL    HW185729   2.269  10.581   4.142
27985SOL    HW285730   2.278  10.594   3.991
27986SOL     OW85731   0.932  12.704   2.266
27986SOL    HW185732   0.903  12.645   2.335
27986SOL    HW285733   1.004  12.658   2.223
27987SOL     OW85734   8.985   3.682   3.223
27987SOL    HW185735   9.000   3.764   3.176
27987SOL    HW285736   9.062   3.672   3.279
27988SOL     OW85737   7.165  13.298   7.171
27988SOL    HW185738   7.247  13.333   7.135
27988SOL    HW285739   7.193  13.229   7.231
27989SOL     OW85740  10.428   9.839  11.928
27989SOL    HW185741  10.455   9.858  11.838
27989SOL    HW285742  10.339   9.874  11.933
27990SOL     OW85743   5.478  12.628  10.758
27990SOL    HW185744   5.499  12.678  10.680
27990SOL    HW285745   5.563  12.609  10.798
27991SOL     OW85746  14.288   8.479   8.586
27991SOL    HW185747  14.220   8.506   8.647
27991SOL    HW285748  14.351   8.430   8.639
27992SOL     OW85749   7.513   6.548   2.171
27992SOL    HW185750   7.570   6.569   2.245
27992SOL    HW285751   7.509   6.452   2.170
27993SOL     OW85752   6.717  13.146   9.451
27993SOL    HW185753   6.651  13.089   9.491
27993SOL    HW285754   6.666  13.208   9.398
27994SOL     OW85755   5.060   1.739  11.307
27994SOL    HW185756   5.107   1.821  11.320
27994SOL    HW285757   5.117   1.673  11.346
27995SOL     OW85758   4.974   5.992  12.410
27995SOL    HW185759   4.981   6.027  12.321
27995SOL    HW285760   5.064   5.984  12.440
27996SOL     OW85761   4.249   5.391   4.366
27996SOL    HW185762   4.293   5.461   4.415
27996SOL    HW285763   4.319   5.329   4.344
27997SOL     OW85764   9.639   4.896  11.435
27997SOL    HW185765   9.580   4.824  11.456
27997SOL    HW285766   9.624   4.962  11.502
27998SOL     OW85767   4.263   3.635   4.684
27998SOL    HW185768   4.348   3.657   4.647
27998SOL    HW285769   4.214   3.717   4.685
27999SOL     OW85770   3.667  11.173   2.405
27999SOL    HW185771   3.606  11.104   2.432
27999SOL    HW285772   3.733  11.128   2.353
28000SOL     OW85773   5.536   3.229   0.047
28000SOL    HW185774   5.521   3.192   0.133
28000SOL    HW285775   5.502   3.164  14.867
28001SOL     OW85776  12.528  14.058   4.983
28001SOL    HW185777  12.593  13.994   4.953
28001SOL    HW285778  12.444  14.014   4.975
28002SOL     OW85779   5.904   6.926   5.275
28002SOL    HW185780   5.940   6.858   5.332
28002SOL    HW285781   5.854   6.983   5.333
28003SOL     OW85782  10.560   7.597  12.370
28003SOL    HW185783  10.635   7.573  12.316
28003SOL    HW285784  10.486   7.599  12.309
28004SOL     OW85785  12.747   5.561   9.716
28004SOL    HW185786  12.653   5.577   9.714
28004SOL    HW285787  12.766   5.543   9.808
28005SOL     OW85788   3.023  10.464  14.618
28005SOL    HW185789   2.959  10.474  14.548
28005SOL    HW285790   2.971  10.459  14.698
28006SOL     OW85791   8.198   1.605   6.973
28006SOL    HW185792   8.287   1.621   7.004
28006SOL    HW285793   8.141   1.647   7.037
28007SOL     OW85794   5.614   7.947   1.597
28007SOL    HW185795   5.659   8.014   1.648
28007SOL    HW285796   5.523   7.952   1.626
28008SOL     OW85797   4.155   9.668   2.708
28008SOL    HW185798   4.101   9.657   2.786
28008SOL    HW285799   4.123   9.750   2.669
28009SOL     OW85800  10.073   1.278   8.218
28009SOL    HW185801  10.163   1.245   8.221
28009SOL    HW285802  10.046   1.283   8.309
28010SOL     OW85803   8.010   8.884   8.603
28010SOL    HW185804   7.944   8.829   8.561
28010SOL    HW285805   8.062   8.919   8.531
28011SOL     OW85806   4.371   7.756  12.849
28011SOL    HW185807   4.356   7.783  12.759
28011SOL    HW285808   4.380   7.661  12.845
28012SOL     OW85809  12.291  11.865  11.833
28012SOL    HW185810  12.255  11.784  11.798
28012SOL    HW285811  12.235  11.934  11.799
28013SOL     OW85812  14.087   0.361  13.384
28013SOL    HW185813  14.123   0.278  13.417
28013SOL    HW285814  14.063   0.342  13.293
28014SOL     OW85815   0.429   9.381  12.371
28014SOL    HW185816   0.510   9.340  12.400
28014SOL    HW285817   0.393   9.421  12.450
28015SOL     OW85818   5.036   4.279   7.325
28015SOL    HW185819   5.035   4.275   7.229
28015SOL    HW285820   4.996   4.364   7.345
28016SOL     OW85821   5.841   7.616   0.100
28016SOL    HW185822   5.934   7.603   0.080
28016SOL    HW285823   5.795   7.563   0.035
28017SOL     OW85824   1.535   2.254  13.901
28017SOL    HW185825   1.576   2.221  13.981
28017SOL    HW285826   1.443   2.227  13.909
28018SOL     OW85827   0.821   7.828   0.627
28018SOL    HW185828   0.742   7.877   0.604
28018SOL    HW285829   0.823   7.828   0.723
28019SOL     OW85830   2.814  12.527  12.765
28019SOL    HW185831   2.820  12.432  12.770
28019SOL    HW285832   2.898  12.558  12.800
28020SOL     OW85833   5.976  10.218   5.111
28020SOL    HW185834   6.009  10.306   5.092
28020SOL    HW285835   5.967  10.215   5.206
28021SOL     OW85836   9.651   7.930   9.299
28021SOL    HW185837   9.607   7.911   9.216
28021SOL    HW285838   9.581   7.923   9.365
28022SOL     OW85839   1.192  12.931   4.061
28022SOL    HW185840   1.252  12.858   4.045
28022SOL    HW285841   1.112  12.907   4.015
28023SOL     OW85842  13.829   3.218   2.401
28023SOL    HW185843  13.816   3.303   2.360
28023SOL    HW285844  13.811   3.155   2.332
28024SOL     OW85845   7.296   0.989   7.995
28024SOL    HW185846   7.246   1.006   8.075
28024SOL    HW285847   7.232   0.997   7.924
28025SOL     OW85848   7.174   2.692   9.282
28025SOL    HW185849   7.231   2.622   9.251
28025SOL    HW285850   7.223   2.772   9.264
28026SOL     OW85851  11.591   2.374  10.119
28026SOL    HW185852  11.515   2.376  10.061
28026SOL    HW285853  11.636   2.292  10.096
28027SOL     OW85854   8.630  13.296   6.600
28027SOL    HW185855   8.606  13.386   6.620
28027SOL    HW285856   8.723  13.291   6.622
28028SOL     OW85857  10.455  10.589   2.598
28028SOL    HW185858  10.516  10.578   2.671
28028SOL    HW285859  10.474  10.514   2.540
28029SOL     OW85860  10.455   2.262   4.519
28029SOL    HW185861  10.410   2.346   4.530
28029SOL    HW285862  10.502   2.270   4.437
28030SOL     OW85863   2.447   1.828  14.100
28030SOL    HW185864   2.535   1.791  14.108
28030SOL    HW285865   2.389   1.753  14.109
28031SOL     OW85866  14.393  11.536   3.456
28031SOL    HW185867  14.363  11.462   3.509
28031SOL    HW285868  14.466  11.500   3.404
28032SOL     OW85869   0.232   4.851   5.787
28032SOL    HW185870   0.214   4.759   5.804
28032SOL    HW285871   0.210   4.895   5.869
28033SOL     OW85872   9.033  12.387   0.303
28033SOL    HW185873   9.079  12.379   0.220
28033SOL    HW285874   9.003  12.298   0.323
28034SOL     OW85875   2.188   8.598  12.201
28034SOL    HW185876   2.223   8.542  12.132
28034SOL    HW285877   2.195   8.687  12.166
28035SOL     OW85878   9.326   4.217   7.646
28035SOL    HW185879   9.407   4.194   7.600
28035SOL    HW285880   9.286   4.284   7.592
28036SOL     OW85881  12.113  14.621   6.748
28036SOL    HW185882  12.193  14.655   6.789
28036SOL    HW285883  12.143  14.580   6.667
28037SOL     OW85884   6.706   2.819   5.171
28037SOL    HW185885   6.675   2.772   5.094
28037SOL    HW285886   6.626   2.843   5.218
28038SOL     OW85887   7.674   2.985  14.773
28038SOL    HW185888   7.700   2.974  14.865
28038SOL    HW285889   7.641   2.899  14.746
28039SOL     OW85890   9.783   3.175  13.834
28039SOL    HW185891   9.822   3.247  13.785
28039SOL    HW285892   9.830   3.097  13.804
28040SOL     OW85893   6.709   7.225   0.002
28040SOL    HW185894   6.707   7.131   0.015
28040SOL    HW285895   6.659   7.239  14.803
28041SOL     OW85896   4.693   4.506  12.603
28041SOL    HW185897   4.727   4.451  12.532
28041SOL    HW285898   4.661   4.585  12.559
28042SOL     OW85899   9.680   9.686   9.848
28042SOL    HW185900   9.707   9.764   9.897
28042SOL    HW285901   9.740   9.681   9.774
28043SOL     OW85902   6.224   8.679   0.170
28043SOL    HW185903   6.264   8.727   0.098
28043SOL    HW285904   6.131   8.703   0.167
28044SOL     OW85905   0.382   2.958   9.529
28044SOL    HW185906   0.440   2.895   9.571
28044SOL    HW285907   0.434   2.995   9.458
28045SOL     OW85908   2.365   5.392   1.186
28045SOL    HW185909   2.405   5.477   1.169
28045SOL    HW285910   2.349   5.392   1.281
28046SOL     OW85911   0.120  10.859   8.456
28046SOL    HW185912   0.041  10.829   8.502
28046SOL    HW285913   0.188  10.862   8.524
28047SOL     OW85914  12.561  11.474   5.980
28047SOL    HW185915  12.498  11.441   6.044
28047SOL    HW285916  12.526  11.560   5.955
28048SOL     OW85917   2.543   5.085   7.550
28048SOL    HW185918   2.571   5.099   7.459
28048SOL    HW285919   2.535   4.989   7.558
28049SOL     OW85920   2.474  14.598   8.464
28049SOL    HW185921   2.455  14.569   8.553
28049SOL    HW285922   2.522  14.525   8.425
28050SOL     OW85923   3.358   0.093  12.925
28050SOL    HW185924   3.302   0.171  12.931
28050SOL    HW285925   3.400   0.101  12.840
28051SOL     OW85926  13.682  10.496  14.428
28051SOL    HW185927  13.649  10.436  14.362
28051SOL    HW285928  13.608  10.552  14.449
28052SOL     OW85929   5.485   7.491   6.287
28052SOL    HW185930   5.412   7.430   6.282
28052SOL    HW285931   5.448   7.575   6.263
28053SOL     OW85932   3.009   9.025  14.664
28053SOL    HW185933   3.040   9.033  14.754
28053SOL    HW285934   2.980   8.934  14.656
28054SOL     OW85935   8.804   4.111  11.458
28054SOL    HW185936   8.801   4.051  11.383
28054SOL    HW285937   8.730   4.086  11.513
28055SOL     OW85938   0.672  14.865   9.484
28055SOL    HW185939   0.735  14.793   9.482
28055SOL    HW285940   0.726   0.063   9.483
28056SOL     OW85941  13.503   4.883  11.060
28056SOL    HW185942  13.539   4.916  10.978
28056SOL    HW285943  13.578   4.847  11.107
28057SOL     OW85944   3.810   8.314   8.246
28057SOL    HW185945   3.733   8.316   8.190
28057SOL    HW285946   3.854   8.397   8.231
28058SOL     OW85947   7.922   4.442   1.136
28058SOL    HW185948   7.872   4.519   1.108
28058SOL    HW285949   7.990   4.433   1.070
28059SOL     OW85950   7.956  10.851   9.510
28059SOL    HW185951   7.903  10.827   9.586
28059SOL    HW285952   7.959  10.770   9.458
28060SOL     OW85953   8.231  10.548  13.652
28060SOL    HW185954   8.247  10.627  13.704
28060SOL    HW285955   8.317  10.506  13.644
28061SOL     OW85956   2.156   1.018  12.830
28061SOL    HW185957   2.234   1.019  12.886
28061SOL    HW285958   2.101   0.949  12.867
28062SOL     OW85959   8.021   1.679   7.169
28062SOL    HW185960   7.944   1.712   7.215
28062SOL    HW285961   8.046   1.600   7.217
28063SOL     OW85962  10.077   7.468  14.379
28063SOL    HW185963  10.129   7.500  14.453
28063SOL    HW285964  10.136   7.472  14.304
28064SOL     OW85965  10.656   5.742   1.977
28064SOL    HW185966  10.733   5.799   1.987
28064SOL    HW285967  10.645   5.733   1.883
28065SOL     OW85968   4.574   2.039  14.868
28065SOL    HW185969   4.586   1.973  14.800
28065SOL    HW285970   4.606   2.120  14.829
28066SOL     OW85971  12.521   6.377  13.524
28066SOL    HW185972  12.590   6.345  13.583
28066SOL    HW285973  12.468   6.435  13.578
28067SOL     OW85974   1.302   2.629   5.538
28067SOL    HW185975   1.307   2.542   5.579
28067SOL    HW285976   1.360   2.623   5.462
28068SOL     OW85977  12.526   7.543  14.250
28068SOL    HW185978  12.522   7.639  14.245
28068SOL    HW285979  12.618   7.522  14.236
28069SOL     OW85980   1.722   6.985  10.843
28069SOL    HW185981   1.669   6.948  10.913
28069SOL    HW285982   1.667   7.054  10.805
28070SOL     OW85983   0.992   3.876   5.591
28070SOL    HW185984   0.993   3.970   5.569
28070SOL    HW285985   0.952   3.872   5.678
28071SOL     OW85986  11.030   9.148  14.496
28071SOL    HW185987  11.006   9.160  14.404
28071SOL    HW285988  10.975   9.210  14.543
28072SOL     OW85989  11.455  13.137  14.083
28072SOL    HW185990  11.432  13.134  13.990
28072SOL    HW285991  11.499  13.221  14.094
28073SOL     OW85992   9.546   0.432   8.813
28073SOL    HW185993   9.473   0.380   8.780
28073SOL    HW285994   9.600   0.450   8.735
28074SOL     OW85995   9.015   5.676   1.316
28074SOL    HW185996   8.967   5.757   1.301
28074SOL    HW285997   8.970   5.634   1.389
28075SOL     OW85998  10.874   3.345   2.554
28075SOL    HW185999  10.889   3.300   2.471
28075SOL    HW286000  10.836   3.278   2.611
28076SOL     OW86001   6.290   8.811  13.352
28076SOL    HW186002   6.201   8.778  13.364
28076SOL    HW286003   6.286   8.864  13.272
28077SOL     OW86004   8.369   4.568   8.781
28077SOL    HW186005   8.461   4.554   8.801
28077SOL    HW286006   8.350   4.655   8.816
28078SOL     OW86007  13.533   3.927   1.092
28078SOL    HW186008  13.581   4.009   1.107
28078SOL    HW286009  13.591   3.859   1.126
28079SOL     OW86010  11.525  12.295   8.162
28079SOL    HW186011  11.483  12.213   8.188
28079SOL    HW286012  11.564  12.276   8.077
28080SOL     OW86013   6.384   5.143   2.541
28080SOL    HW186014   6.409   5.089   2.466
28080SOL    HW286015   6.420   5.229   2.521
28081SOL     OW86016   1.302  10.885  14.294
28081SOL    HW186017   1.268  10.795  14.297
28081SOL    HW286018   1.244  10.935  14.351
28082SOL     OW86019  13.766   8.017   0.327
28082SOL    HW186020  13.676   8.023   0.357
28082SOL    HW286021  13.793   8.107   0.311
28083SOL     OW86022   9.240  13.217   9.826
28083SOL    HW186023   9.218  13.260   9.909
28083SOL    HW286024   9.242  13.288   9.762
28084SOL     OW86025   9.009   1.749  10.035
28084SOL    HW186026   9.094   1.733   9.995
28084SOL    HW286027   9.019   1.720  10.126
28085SOL     OW86028   0.352  12.535   8.707
28085SOL    HW186029   0.294  12.577   8.644
28085SOL    HW286030   0.430  12.513   8.657
28086SOL     OW86031   9.699   8.691   8.029
28086SOL    HW186032   9.776   8.634   8.039
28086SOL    HW286033   9.676   8.684   7.937
28087SOL     OW86034   5.306   7.637  12.753
28087SOL    HW186035   5.373   7.621  12.820
28087SOL    HW286036   5.305   7.732  12.743
28088SOL     OW86037   7.076   4.575  14.430
28088SOL    HW186038   7.162   4.567  14.388
28088SOL    HW286039   7.030   4.640  14.377
28089SOL     OW86040   8.536   0.579   8.138
28089SOL    HW186041   8.518   0.578   8.232
28089SOL    HW286042   8.464   0.531   8.099
28090SOL     OW86043   1.323  10.759   2.994
28090SOL    HW186044   1.354  10.694   2.931
28090SOL    HW286045   1.227  10.751   2.992
28091SOL     OW86046   2.720  10.790   8.940
28091SOL    HW186047   2.762  10.836   9.013
28091SOL    HW286048   2.661  10.727   8.983
28092SOL     OW86049  12.452   5.402   0.243
28092SOL    HW186050  12.460   5.433   0.153
28092SOL    HW286051  12.360   5.413   0.265
28093SOL     OW86052   3.521  11.866   7.677
28093SOL    HW186053   3.492  11.805   7.609
28093SOL    HW286054   3.550  11.810   7.748
28094SOL     OW86055  12.554  12.116   8.851
28094SOL    HW186056  12.509  12.167   8.919
28094SOL    HW286057  12.646  12.139   8.861
28095SOL     OW86058   6.634   8.547  13.849
28095SOL    HW186059   6.593   8.514  13.769
28095SOL    HW286060   6.589   8.629  13.868
28096SOL     OW86061   7.152   5.758   0.091
28096SOL    HW186062   7.209   5.833   0.103
28096SOL    HW286063   7.092   5.760   0.165
28097SOL     OW86064   2.629   6.207   8.043
28097SOL    HW186065   2.690   6.273   8.009
28097SOL    HW286066   2.543   6.238   8.015
28098SOL     OW86067   6.952  13.851   4.458
28098SOL    HW186068   6.913  13.768   4.487
28098SOL    HW286069   6.897  13.918   4.497
28099SOL     OW86070   3.195   9.986  10.883
28099SOL    HW186071   3.181   9.926  10.810
28099SOL    HW286072   3.231  10.065  10.841
28100SOL     OW86073   0.231   6.820   9.802
28100SOL    HW186074   0.190   6.734   9.789
28100SOL    HW286075   0.221   6.863   9.717
28101SOL     OW86076  13.711   6.756   3.494
28101SOL    HW186077  13.676   6.694   3.429
28101SOL    HW286078  13.723   6.837   3.446
28102SOL     OW86079  12.135  12.236   9.817
28102SOL    HW186080  12.178  12.281   9.744
28102SOL    HW286081  12.194  12.249   9.891
28103SOL     OW86082   5.217  12.107   9.944
28103SOL    HW186083   5.164  12.164  10.001
28103SOL    HW286084   5.207  12.146   9.857
28104SOL     OW86085   8.762   9.503   0.406
28104SOL    HW186086   8.771   9.410   0.426
28104SOL    HW286087   8.769   9.508   0.311
28105SOL     OW86088   8.500   9.513   4.982
28105SOL    HW186089   8.507   9.465   5.065
28105SOL    HW286090   8.452   9.454   4.924
28106SOL     OW86091   0.901   0.433  12.227
28106SOL    HW186092   0.959   0.362  12.255
28106SOL    HW286093   0.829   0.390  12.182
28107SOL     OW86094  14.779   7.541   4.681
28107SOL    HW186095  14.760   7.632   4.700
28107SOL    HW286096  14.720   7.491   4.738
28108SOL     OW86097   4.036   4.800   1.014
28108SOL    HW186098   3.976   4.873   1.024
28108SOL    HW286099   4.096   4.807   1.088
28109SOL     OW86100   4.116   0.828  12.837
28109SOL    HW186101   4.068   0.761  12.789
28109SOL    HW286102   4.050   0.871  12.892
28110SOL     OW86103  12.721   8.566  11.224
28110SOL    HW186104  12.783   8.552  11.295
28110SOL    HW286105  12.772   8.611  11.156
28111SOL     OW86106   5.680  10.037  10.636
28111SOL    HW186107   5.676   9.952  10.592
28111SOL    HW286108   5.627  10.026  10.714
28112SOL     OW86109  12.885   2.620  11.457
28112SOL    HW186110  12.920   2.705  11.481
28112SOL    HW286111  12.823   2.599  11.527
28113SOL     OW86112   3.967   2.654  11.528
28113SOL    HW186113   3.921   2.580  11.489
28113SOL    HW286114   4.051   2.658  11.481
28114SOL     OW86115   8.179   2.521   4.771
28114SOL    HW186116   8.271   2.549   4.779
28114SOL    HW286117   8.131   2.582   4.827
28115SOL     OW86118   4.319   3.384   6.303
28115SOL    HW186119   4.311   3.472   6.265
28115SOL    HW286120   4.245   3.377   6.363
28116SOL     OW86121   2.155  11.736   7.834
28116SOL    HW186122   2.190  11.648   7.838
28116SOL    HW286123   2.112  11.742   7.748
28117SOL     OW86124   9.962  13.126   6.633
28117SOL    HW186125  10.013  13.051   6.602
28117SOL    HW286126   9.872  13.095   6.636
28118SOL     OW86127  12.386   4.922   9.713
28118SOL    HW186128  12.418   4.982   9.646
28118SOL    HW286129  12.313   4.876   9.672
28119SOL     OW86130  12.814  14.469   2.967
28119SOL    HW186131  12.730  14.499   2.933
28119SOL    HW286132  12.798  14.380   2.996
28120SOL     OW86133   0.040   1.066   7.244
28120SOL    HW186134   0.101   0.995   7.224
28120SOL    HW286135  14.839   1.037   7.205
28121SOL     OW86136   0.871  11.520   1.181
28121SOL    HW186137   0.851  11.589   1.245
28121SOL    HW286138   0.888  11.443   1.234
28122SOL     OW86139   7.289  10.107   0.029
28122SOL    HW186140   7.219  10.043   0.040
28122SOL    HW286141   7.365  10.056  14.880
28123SOL     OW86142  12.409   5.246   6.842
28123SOL    HW186143  12.493   5.287   6.865
28123SOL    HW286144  12.376   5.211   6.925
28124SOL     OW86145   4.006   6.428   2.076
28124SOL    HW186146   3.928   6.374   2.064
28124SOL    HW286147   3.992   6.504   2.019
28125SOL     OW86148  11.853   4.666  13.860
28125SOL    HW186149  11.772   4.717  13.863
28125SOL    HW286150  11.895   4.693  13.779
28126SOL     OW86151   1.768   0.872   9.652
28126SOL    HW186152   1.855   0.839   9.674
28126SOL    HW286153   1.729   0.803   9.599
28127SOL     OW86154   7.416   5.103   7.677
28127SOL    HW186155   7.348   5.074   7.616
28127SOL    HW286156   7.409   5.041   7.750
28128SOL     OW86157  11.038   1.070  10.465
28128SOL    HW186158  11.116   1.126  10.471
28128SOL    HW286159  11.073   0.981  10.465
28129SOL     OW86160   1.043  12.166   8.985
28129SOL    HW186161   1.050  12.148   9.079
28129SOL    HW286162   1.099  12.100   8.944
28130SOL     OW86163  13.105   9.582   4.481
28130SOL    HW186164  13.200   9.586   4.470
28130SOL    HW286165  13.089   9.493   4.512
28131SOL     OW86166   3.807   1.555   8.875
28131SOL    HW186167   3.770   1.615   8.939
28131SOL    HW286168   3.774   1.469   8.901
28132SOL     OW86169  11.709  13.554   4.469
28132SOL    HW186170  11.685  13.475   4.518
28132SOL    HW286171  11.760  13.522   4.395
28133SOL     OW86172   0.704   0.735   9.533
28133SOL    HW186173   0.789   0.694   9.519
28133SOL    HW286174   0.715   0.786   9.613
28134SOL     OW86175   1.808   0.640   5.183
28134SOL    HW186176   1.846   0.728   5.185
28134SOL    HW286177   1.828   0.603   5.269
28135SOL     OW86178   6.432  14.272   5.404
28135SOL    HW186179   6.509  14.327   5.395
28135SOL    HW286180   6.412  14.273   5.497
28136SOL     OW86181   1.166   5.954  11.180
28136SOL    HW186182   1.107   5.934  11.253
28136SOL    HW286183   1.251   5.917  11.206
28137SOL     OW86184   3.458   5.567  10.526
28137SOL    HW186185   3.535   5.624  10.531
28137SOL    HW286186   3.493   5.479  10.529
28138SOL     OW86187  12.617  12.870   5.333
28138SOL    HW186188  12.611  12.899   5.242
28138SOL    HW286189  12.708  12.888   5.357
28139SOL     OW86190  14.689   5.665  12.653
28139SOL    HW186191  14.775   5.639  12.621
28139SOL    HW286192  14.705   5.697  12.742
28140SOL     OW86193  13.270   5.631  13.353
28140SOL    HW186194  13.230   5.694  13.413
28140SOL    HW286195  13.281   5.552  13.405
28141SOL     OW86196   8.543  13.904  13.712
28141SOL    HW186197   8.508  13.826  13.754
28141SOL    HW286198   8.538  13.886  13.619
28142SOL     OW86199   5.850  11.969  13.284
28142SOL    HW186200   5.887  11.884  13.310
28142SOL    HW286201   5.756  11.959  13.299
28143SOL     OW86202  11.329   0.851   1.242
28143SOL    HW186203  11.353   0.761   1.260
28143SOL    HW286204  11.403   0.887   1.194
28144SOL     OW86205   3.264   3.305  12.670
28144SOL    HW186206   3.190   3.338  12.721
28144SOL    HW286207   3.283   3.376  12.608
28145SOL     OW86208   4.228   7.233  10.965
28145SOL    HW186209   4.231   7.292  11.040
28145SOL    HW286210   4.315   7.240  10.925
28146SOL     OW86211  13.385   9.103   5.921
28146SOL    HW186212  13.466   9.062   5.950
28146SOL    HW286213  13.407   9.195   5.907
28147SOL     OW86214   5.044   7.577   3.777
28147SOL    HW186215   5.054   7.672   3.789
28147SOL    HW286216   5.064   7.562   3.685
28148SOL     OW86217   1.710   6.756   3.192
28148SOL    HW186218   1.678   6.842   3.167
28148SOL    HW286219   1.685   6.699   3.118
28149SOL     OW86220   1.428  11.572  11.376
28149SOL    HW186221   1.336  11.572  11.402
28149SOL    HW286222   1.436  11.643  11.313
28150SOL     OW86223   9.249   5.450   7.375
28150SOL    HW186224   9.218   5.452   7.465
28150SOL    HW286225   9.212   5.530   7.335
28151SOL     OW86226  12.787  11.970  13.982
28151SOL    HW186227  12.706  12.005  14.018
28151SOL    HW286228  12.775  11.975  13.887
28152SOL     OW86229   5.638   2.227   2.686
28152SOL    HW186230   5.642   2.282   2.765
28152SOL    HW286231   5.601   2.284   2.619
28153SOL     OW86232   9.742  11.819   7.577
28153SOL    HW186233   9.764  11.725   7.579
28153SOL    HW286234   9.661  11.823   7.527
28154SOL     OW86235   6.184  13.867   5.962
28154SOL    HW186236   6.158  13.882   6.053
28154SOL    HW286237   6.261  13.811   5.969
28155SOL     OW86238   7.281  13.971   8.899
28155SOL    HW186239   7.291  14.012   8.985
28155SOL    HW286240   7.367  13.981   8.858
28156SOL     OW86241   8.335   3.419  11.716
28156SOL    HW186242   8.365   3.449  11.630
28156SOL    HW286243   8.268   3.483  11.741
28157SOL     OW86244  11.441   0.202   3.986
28157SOL    HW186245  11.363   0.169   3.941
28157SOL    HW286246  11.443   0.154   4.069
28158SOL     OW86247   4.887   7.855   1.793
28158SOL    HW186248   4.906   7.946   1.816
28158SOL    HW286249   4.823   7.861   1.722
28159SOL     OW86250   6.332   0.366  14.605
28159SOL    HW186251   6.298   0.315  14.678
28159SOL    HW286252   6.262   0.428  14.584
28160SOL     OW86253   4.503   9.540   6.403
28160SOL    HW186254   4.513   9.538   6.308
28160SOL    HW286255   4.408   9.544   6.417
28161SOL     OW86256   5.776  11.750   0.076
28161SOL    HW186257   5.732  11.824   0.034
28161SOL    HW286258   5.836  11.717   0.009
28162SOL     OW86259   4.086   0.978   7.261
28162SOL    HW186260   4.094   1.003   7.353
28162SOL    HW286261   4.017   0.911   7.261
28163SOL     OW86262  12.963   2.023   1.031
28163SOL    HW186263  13.032   2.053   1.090
28163SOL    HW286264  12.992   1.937   1.001
28164SOL     OW86265   4.074   6.821   6.622
28164SOL    HW186266   4.164   6.799   6.647
28164SOL    HW286267   4.020   6.755   6.666
28165SOL     OW86268   3.518   1.541   8.560
28165SOL    HW186269   3.602   1.501   8.535
28165SOL    HW286270   3.452   1.492   8.511
28166SOL     OW86271   4.828   8.827  13.463
28166SOL    HW186272   4.830   8.871  13.548
28166SOL    HW286273   4.916   8.839  13.428
28167SOL     OW86274   5.222   4.919   2.731
28167SOL    HW186275   5.229   4.852   2.798
28167SOL    HW286276   5.173   4.990   2.772
28168SOL     OW86277  12.487   1.694   5.157
28168SOL    HW186278  12.562   1.676   5.213
28168SOL    HW286279  12.524   1.741   5.082
28169SOL     OW86280   1.437  14.662  11.196
28169SOL    HW186281   1.442  14.662  11.292
28169SOL    HW286282   1.505  14.725  11.170
28170SOL     OW86283   9.639   4.315   8.332
28170SOL    HW186284   9.554   4.311   8.289
28170SOL    HW286285   9.632   4.255   8.406
28171SOL     OW86286  13.111   4.371  14.819
28171SOL    HW186287  13.105   4.349  14.726
28171SOL    HW286288  13.097   4.288  14.864
28172SOL     OW86289   8.071   5.556   5.543
28172SOL    HW186290   8.002   5.490   5.539
28172SOL    HW286291   8.086   5.569   5.637
28173SOL     OW86292   3.766   4.988  13.437
28173SOL    HW186293   3.719   4.945  13.366
28173SOL    HW286294   3.736   4.944  13.517
28174SOL     OW86295   4.645   5.378   0.642
28174SOL    HW186296   4.644   5.369   0.547
28174SOL    HW286297   4.557   5.356   0.670
28175SOL     OW86298   2.642   2.501  10.454
28175SOL    HW186299   2.643   2.497  10.359
28175SOL    HW286300   2.630   2.410  10.482
28176SOL     OW86301  12.526  12.383   9.686
28176SOL    HW186302  12.576  12.378   9.768
28176SOL    HW286303  12.576  12.445   9.632
28177SOL     OW86304   2.185   4.136   1.776
28177SOL    HW186305   2.223   4.119   1.690
28177SOL    HW286306   2.186   4.231   1.785
28178SOL     OW86307   7.292  13.100  11.667
28178SOL    HW186308   7.308  13.017  11.712
28178SOL    HW286309   7.197  13.111  11.669
28179SOL     OW86310  12.799  13.196   0.115
28179SOL    HW186311  12.809  13.261   0.185
28179SOL    HW286312  12.782  13.248   0.036
28180SOL     OW86313   5.310   9.866   7.189
28180SOL    HW186314   5.273   9.781   7.212
28180SOL    HW286315   5.404   9.851   7.186
28181SOL     OW86316   8.155   3.565   1.028
28181SOL    HW186317   8.078   3.591   1.078
28181SOL    HW286318   8.195   3.494   1.079
28182SOL     OW86319   2.990   7.111   1.953
28182SOL    HW186320   2.903   7.149   1.959
28182SOL    HW286321   3.018   7.102   2.045
28183SOL     OW86322   7.551   3.514   4.652
28183SOL    HW186323   7.510   3.459   4.584
28183SOL    HW286324   7.537   3.604   4.622
28184SOL     OW86325   9.440   8.523   8.050
28184SOL    HW186326   9.402   8.489   8.131
28184SOL    HW286327   9.428   8.618   8.056
28185SOL     OW86328  10.342   6.960   5.462
28185SOL    HW186329  10.289   7.040   5.469
28185SOL    HW286330  10.295   6.906   5.399
28186SOL     OW86331   7.869   9.344   5.968
28186SOL    HW186332   7.798   9.280   5.969
28186SOL    HW286333   7.866   9.382   5.880
28187SOL     OW86334   2.848   5.980   0.418
28187SOL    HW186335   2.872   5.963   0.327
28187SOL    HW286336   2.914   6.043   0.449
28188SOL     OW86337  14.170   2.183   2.870
28188SOL    HW186338  14.209   2.201   2.956
28188SOL    HW286339  14.196   2.092   2.851
28189SOL     OW86340   5.740  12.635  12.425
28189SOL    HW186341   5.731  12.725  12.394
28189SOL    HW286342   5.820  12.603  12.383
28190SOL     OW86343  10.358   1.283   4.474
28190SOL    HW186344  10.369   1.261   4.381
28190SOL    HW286345  10.272   1.323   4.479
28191SOL     OW86346   3.335  10.559   1.618
28191SOL    HW186347   3.271  10.539   1.550
28191SOL    HW286348   3.290  10.620   1.677
28192SOL     OW86349   2.631  11.506  13.408
28192SOL    HW186350   2.634  11.599  13.429
28192SOL    HW286351   2.538  11.483  13.410
28193SOL     OW86352  13.086   1.231   4.204
28193SOL    HW186353  12.993   1.231   4.179
28193SOL    HW286354  13.130   1.190   4.130
28194SOL     OW86355  10.649   6.297   7.082
28194SOL    HW186356  10.684   6.275   6.995
28194SOL    HW286357  10.726   6.307   7.137
28195SOL     OW86358   0.747  10.022   1.919
28195SOL    HW186359   0.791   9.969   1.852
28195SOL    HW286360   0.793  10.105   1.918
28196SOL     OW86361   7.184  13.801   6.882
28196SOL    HW186362   7.238  13.783   6.959
28196SOL    HW286363   7.233  13.763   6.809
28197SOL     OW86364  12.386  11.968   0.382
28197SOL    HW186365  12.413  11.973   0.474
28197SOL    HW286366  12.466  11.984   0.333
28198SOL     OW86367  12.455   1.547   5.411
28198SOL    HW186368  12.529   1.493   5.383
28198SOL    HW286369  12.449   1.616   5.345
28199SOL     OW86370   4.536  12.070   5.061
28199SOL    HW186371   4.560  12.102   5.148
28199SOL    HW286372   4.459  12.015   5.077
28200SOL     OW86373  11.787   3.560  10.931
28200SOL    HW186374  11.775   3.515  10.847
28200SOL    HW286375  11.879   3.545  10.953
28201SOL     OW86376   1.364   7.784   5.550
28201SOL    HW186377   1.450   7.805   5.514
28201SOL    HW286378   1.370   7.691   5.573
28202SOL     OW86379   8.312   4.952  12.804
28202SOL    HW186380   8.381   5.014  12.830
28202SOL    HW286381   8.349   4.904  12.730
28203SOL     OW86382   5.180  10.186   5.624
28203SOL    HW186383   5.252  10.246   5.602
28203SOL    HW286384   5.219  10.123   5.684
28204SOL     OW86385  10.273   1.126   5.225
28204SOL    HW186386  10.191   1.153   5.266
28204SOL    HW286387  10.328   1.204   5.226
28205SOL     OW86388  12.138   0.462   3.237
28205SOL    HW186389  12.130   0.382   3.289
28205SOL    HW286390  12.229   0.462   3.207
28206SOL     OW86391  14.519   0.604  11.588
28206SOL    HW186392  14.603   0.598  11.633
28206SOL    HW286393  14.519   0.531  11.527
28207SOL     OW86394   8.034  11.852   5.424
28207SOL    HW186395   8.006  11.863   5.333
28207SOL    HW286396   8.015  11.936   5.466
28208SOL     OW86397   6.754  13.950  14.259
28208SOL    HW186398   6.724  13.883  14.198
28208SOL    HW286399   6.720  14.032  14.223
28209SOL     OW86400   7.125   8.971   4.785
28209SOL    HW186401   7.182   8.894   4.785
28209SOL    HW286402   7.175   9.038   4.832
28210SOL     OW86403   7.561   9.962   7.524
28210SOL    HW186404   7.553  10.056   7.543
28210SOL    HW286405   7.472   9.929   7.533
28211SOL     OW86406   0.895   7.052   4.516
28211SOL    HW186407   0.977   7.048   4.566
28211SOL    HW286408   0.829   7.073   4.581
28212SOL     OW86409  14.579   3.471   2.989
28212SOL    HW186410  14.585   3.463   3.084
28212SOL    HW286411  14.487   3.493   2.973
28213SOL     OW86412   8.921   5.123  14.300
28213SOL    HW186413   8.939   5.065  14.373
28213SOL    HW286414   9.003   5.170  14.286
28214SOL     OW86415  10.953  11.077  12.032
28214SOL    HW186416  10.922  11.166  12.050
28214SOL    HW286417  11.048  11.081  12.046
28215SOL     OW86418   5.844  14.235  11.697
28215SOL    HW186419   5.836  14.329  11.681
28215SOL    HW286420   5.756  14.201  11.683
28216SOL     OW86421   1.055   3.303  13.252
28216SOL    HW186422   1.047   3.236  13.320
28216SOL    HW286423   0.977   3.357  13.262
28217SOL     OW86424   5.367   4.324   5.784
28217SOL    HW186425   5.336   4.255   5.724
28217SOL    HW286426   5.439   4.282   5.832
28218SOL     OW86427   4.642   7.409   7.724
28218SOL    HW186428   4.647   7.320   7.691
28218SOL    HW286429   4.703   7.459   7.670
28219SOL     OW86430  10.741   3.604  11.871
28219SOL    HW186431  10.805   3.630  11.937
28219SOL    HW286432  10.769   3.648  11.791
28220SOL     OW86433   4.947  10.157  11.110
28220SOL    HW186434   4.870  10.212  11.093
28220SOL    HW286435   4.994  10.202  11.180
28221SOL     OW86436   9.670   9.184  13.597
28221SOL    HW186437   9.597   9.172  13.536
28221SOL    HW286438   9.630   9.224  13.674
28222SOL     OW86439   3.026   1.868   1.671
28222SOL    HW186440   3.048   1.775   1.660
28222SOL    HW286441   3.079   1.913   1.607
28223SOL     OW86442   1.684   5.419   3.419
28223SOL    HW186443   1.702   5.409   3.325
28223SOL    HW286444   1.770   5.422   3.459
28224SOL     OW86445  13.727  13.124   6.776
28224SOL    HW186446  13.680  13.047   6.807
28224SOL    HW286447  13.659  13.180   6.740
28225SOL     OW86448   4.718   2.828   9.158
28225SOL    HW186449   4.707   2.917   9.193
28225SOL    HW286450   4.646   2.818   9.097
28226SOL     OW86451   1.977   2.470   2.718
28226SOL    HW186452   1.923   2.393   2.701
28226SOL    HW286453   2.052   2.460   2.660
28227SOL     OW86454   4.390   1.783  10.748
28227SOL    HW186455   4.336   1.757  10.823
28227SOL    HW286456   4.475   1.804  10.785
28228SOL     OW86457   3.720   4.536   4.787
28228SOL    HW186458   3.646   4.490   4.827
28228SOL    HW286459   3.681   4.584   4.714
28229SOL     OW86460  10.077   8.726  14.849
28229SOL    HW186461  10.156   8.674  14.861
28229SOL    HW286462  10.022   8.705   0.043
28230SOL     OW86463   1.575   7.523  12.141
28230SOL    HW186464   1.651   7.582  12.137
28230SOL    HW286465   1.577   7.477  12.057
28231SOL     OW86466  14.749   1.982   6.237
28231SOL    HW186467  14.674   2.030   6.271
28231SOL    HW286468  14.779   1.928   6.310
28232SOL     OW86469   9.607  12.549  14.086
28232SOL    HW186470   9.526  12.508  14.116
28232SOL    HW286471   9.622  12.622  14.146
28233SOL     OW86472  11.323   7.250  10.260
28233SOL    HW186473  11.276   7.332  10.246
28233SOL    HW286474  11.357   7.256  10.349
28234SOL     OW86475   5.819   1.681   1.973
28234SOL    HW186476   5.776   1.752   2.021
28234SOL    HW286477   5.909   1.711   1.961
28235SOL     OW86478   7.350   3.548   0.094
28235SOL    HW186479   7.324   3.523   0.006
28235SOL    HW286480   7.308   3.483   0.151
28236SOL     OW86481   9.311   0.879   3.088
28236SOL    HW186482   9.286   0.964   3.124
28236SOL    HW286483   9.400   0.892   3.055
28237SOL     OW86484  12.188   2.732   3.766
28237SOL    HW186485  12.205   2.799   3.700
28237SOL    HW286486  12.093   2.732   3.776
28238SOL     OW86487   5.631   2.305   7.427
28238SOL    HW186488   5.552   2.354   7.452
28238SOL    HW286489   5.703   2.358   7.459
28239SOL     OW86490   7.649   5.725   6.220
28239SOL    HW186491   7.573   5.746   6.167
28239SOL    HW286492   7.649   5.629   6.224
28240SOL     OW86493   1.100  13.871   9.108
28240SOL    HW186494   1.053  13.823   9.039
28240SOL    HW286495   1.144  13.803   9.159
28241SOL     OW86496   9.528   5.950   2.115
28241SOL    HW186497   9.493   5.903   2.190
28241SOL    HW286498   9.540   5.883   2.048
28242SOL     OW86499  11.280   9.858  12.785
28242SOL    HW186500  11.236   9.898  12.710
28242SOL    HW286501  11.360   9.820  12.749
28243SOL     OW86502   4.689   5.021   0.649
28243SOL    HW186503   4.604   5.030   0.692
28243SOL    HW286504   4.746   4.984   0.716
28244SOL     OW86505   2.025   8.079  10.694
28244SOL    HW186506   2.014   8.059  10.787
28244SOL    HW286507   2.120   8.079  10.681
28245SOL     OW86508   3.826   1.321   7.955
28245SOL    HW186509   3.891   1.253   7.972
28245SOL    HW286510   3.855   1.395   8.009
28246SOL     OW86511   5.788   2.523  13.778
28246SOL    HW186512   5.730   2.560  13.844
28246SOL    HW286513   5.872   2.568  13.791
28247SOL     OW86514  10.356   9.378   8.830
28247SOL    HW186515  10.342   9.287   8.856
28247SOL    HW286516  10.305   9.429   8.892
28248SOL     OW86517   1.857   5.505   4.577
28248SOL    HW186518   1.898   5.438   4.632
28248SOL    HW286519   1.782   5.535   4.629
28249SOL     OW86520   5.479  12.033   7.678
28249SOL    HW186521   5.418  11.992   7.739
28249SOL    HW286522   5.529  12.095   7.731
28250SOL     OW86523   1.419  10.715   3.259
28250SOL    HW186524   1.372  10.742   3.180
28250SOL    HW286525   1.456  10.630   3.237
28251SOL     OW86526   8.000   7.541   5.274
28251SOL    HW186527   7.925   7.595   5.298
28251SOL    HW286528   7.969   7.489   5.200
28252SOL     OW86529   4.100   3.941   9.800
28252SOL    HW186530   4.046   3.988   9.736
28252SOL    HW286531   4.117   3.856   9.758
28253SOL     OW86532  11.140  10.003   2.928
28253SOL    HW186533  11.213  10.016   2.989
28253SOL    HW286534  11.061  10.014   2.982
28254SOL     OW86535  11.396  10.035   9.971
28254SOL    HW186536  11.475  10.085   9.949
28254SOL    HW286537  11.375  10.060  10.061
28255SOL     OW86538   8.610   3.784  13.253
28255SOL    HW186539   8.655   3.716  13.203
28255SOL    HW286540   8.543   3.737  13.303
28256SOL     OW86541   6.572  12.673   0.293
28256SOL    HW186542   6.539  12.617   0.363
28256SOL    HW286543   6.651  12.712   0.330
28257SOL     OW86544   4.637   2.784   6.140
28257SOL    HW186545   4.543   2.766   6.140
28257SOL    HW286546   4.643   2.880   6.150
28258SOL     OW86547   2.137  12.274  10.749
28258SOL    HW186548   2.149  12.196  10.803
28258SOL    HW286549   2.176  12.345  10.800
28259SOL     OW86550   5.333  14.571   5.982
28259SOL    HW186551   5.388  14.497   5.956
28259SOL    HW286552   5.373  14.646   5.938
28260SOL     OW86553  12.040   4.268   3.219
28260SOL    HW186554  12.088   4.239   3.142
28260SOL    HW286555  11.986   4.193   3.244
28261SOL     OW86556  11.563  11.752   3.962
28261SOL    HW186557  11.586  11.842   3.984
28261SOL    HW286558  11.640  11.717   3.919
28262SOL     OW86559  14.618   0.532   5.428
28262SOL    HW186560  14.529   0.500   5.415
28262SOL    HW286561  14.628   0.599   5.360
28263SOL     OW86562   0.784  13.873   5.904
28263SOL    HW186563   0.752  13.962   5.890
28263SOL    HW286564   0.748  13.847   5.988
28264SOL     OW86565   3.504   6.174  10.632
28264SOL    HW186566   3.543   6.260  10.614
28264SOL    HW286567   3.473   6.180  10.722
28265SOL     OW86568  14.195  11.212   5.601
28265SOL    HW186569  14.192  11.181   5.691
28265SOL    HW286570  14.270  11.272   5.599
28266SOL     OW86571   1.187  12.454   9.512
28266SOL    HW186572   1.215  12.541   9.543
28266SOL    HW286573   1.178  12.464   9.418
28267SOL     OW86574   2.973   9.027  11.501
28267SOL    HW186575   3.057   8.983  11.491
28267SOL    HW286576   2.945   9.048  11.412
28268SOL     OW86577   0.921   2.306   6.202
28268SOL    HW186578   0.966   2.376   6.154
28268SOL    HW286579   0.950   2.317   6.292
28269SOL     OW86580   2.724   6.396  11.048
28269SOL    HW186581   2.662   6.459  11.086
28269SOL    HW286582   2.774   6.446  10.985
28270SOL     OW86583   9.773  10.665   6.853
28270SOL    HW186584   9.742  10.681   6.764
28270SOL    HW286585   9.699  10.623   6.897
28271SOL     OW86586  11.212   2.150  10.397
28271SOL    HW186587  11.231   2.057  10.412
28271SOL    HW286588  11.154   2.150  10.320
28272SOL     OW86589  10.981  10.436  14.454
28272SOL    HW186590  11.061  10.475  14.489
28272SOL    HW286591  10.915  10.505  14.462
28273SOL     OW86592   7.552  12.695  14.466
28273SOL    HW186593   7.628  12.701  14.524
28273SOL    HW286594   7.588  12.702  14.378
28274SOL     OW86595  11.542   1.519   7.943
28274SOL    HW186596  11.530   1.600   7.992
28274SOL    HW286597  11.596   1.544   7.868
28275SOL     OW86598   6.541   1.339  14.710
28275SOL    HW186599   6.477   1.302  14.770
28275SOL    HW286600   6.553   1.271  14.643
28276SOL     OW86601   4.046   7.037  11.649
28276SOL    HW186602   4.077   7.127  11.655
28276SOL    HW286603   4.050   7.016  11.556
28277SOL     OW86604   6.776  13.874   7.762
28277SOL    HW186605   6.778  13.783   7.733
28277SOL    HW286606   6.690  13.907   7.735
28278SOL     OW86607  10.500  14.189  11.497
28278SOL    HW186608  10.436  14.143  11.551
28278SOL    HW286609  10.582  14.184  11.546
28279SOL     OW86610   2.029   0.445   7.551
28279SOL    HW186611   2.029   0.376   7.618
28279SOL    HW286612   2.001   0.401   7.471
28280SOL     OW86613  10.036  10.580   3.831
28280SOL    HW186614   9.982  10.620   3.762
28280SOL    HW286615   9.986  10.596   3.912
28281SOL     OW86616  14.846   3.385  12.734
28281SOL    HW186617   0.046   3.342  12.757
28281SOL    HW286618  14.865   3.479  12.740
28282SOL     OW86619   4.083  13.899   5.986
28282SOL    HW186620   4.178  13.891   6.001
28282SOL    HW286621   4.051  13.809   5.992
28283SOL     OW86622   0.345   9.582   8.709
28283SOL    HW186623   0.358   9.523   8.784
28283SOL    HW286624   0.390   9.663   8.734
28284SOL     OW86625   5.993  13.514   0.794
28284SOL    HW186626   5.911  13.490   0.751
28284SOL    HW286627   6.047  13.435   0.787
28285SOL     OW86628  14.146   7.284   3.422
28285SOL    HW186629  14.114   7.205   3.379
28285SOL    HW286630  14.128   7.354   3.359
28286SOL     OW86631   8.989  13.555   8.480
28286SOL    HW186632   8.924  13.484   8.484
28286SOL    HW286633   9.073  13.510   8.476
28287SOL     OW86634   2.273  10.598   2.175
28287SOL    HW186635   2.269  10.507   2.204
28287SOL    HW286636   2.285  10.648   2.256
28288SOL     OW86637  11.870   7.655  13.817
28288SOL    HW186638  11.811   7.673  13.743
28288SOL    HW286639  11.811   7.638  13.891
28289SOL     OW86640  11.113   7.470  12.971
28289SOL    HW186641  11.090   7.409  12.902
28289SOL    HW286642  11.029   7.507  13.000
28290SOL     OW86643  13.503  11.355   7.648
28290SOL    HW186644  13.530  11.280   7.700
28290SOL    HW286645  13.584  11.406   7.636
28291SOL     OW86646   3.476   4.440   4.847
28291SOL    HW186647   3.393   4.401   4.822
28291SOL    HW286648   3.484   4.423   4.941
28292SOL     OW86649   7.627   4.644   2.944
28292SOL    HW186650   7.614   4.669   2.853
28292SOL    HW286651   7.574   4.566   2.955
28293SOL     OW86652   4.238  11.193   1.241
28293SOL    HW186653   4.203  11.106   1.219
28293SOL    HW286654   4.329  11.176   1.266
28294SOL     OW86655   4.189   4.106   9.346
28294SOL    HW186656   4.172   4.173   9.280
28294SOL    HW286657   4.133   4.033   9.322
28295SOL     OW86658   6.741   7.377   8.225
28295SOL    HW186659   6.731   7.285   8.198
28295SOL    HW286660   6.677   7.388   8.296
28296SOL     OW86661   9.536   1.926  10.643
28296SOL    HW186662   9.564   1.837  10.623
28296SOL    HW286663   9.611   1.966  10.687
28297SOL     OW86664  14.093   2.993   9.766
28297SOL    HW186665  14.104   3.075   9.719
28297SOL    HW286666  14.089   3.019   9.858
28298SOL     OW86667  13.914   5.092   5.138
28298SOL    HW186668  13.980   5.023   5.127
28298SOL    HW286669  13.899   5.097   5.233
28299SOL     OW86670   1.136   3.434   6.040
28299SOL    HW186671   1.202   3.370   6.068
28299SOL    HW286672   1.087   3.455   6.119
28300SOL     OW86673   7.951   0.330   9.502
28300SOL    HW186674   7.939   0.425   9.495
28300SOL    HW286675   7.928   0.296   9.416
28301SOL     OW86676   2.045   5.831   7.609
28301SOL    HW186677   2.049   5.739   7.584
28301SOL    HW286678   1.976   5.868   7.555
28302SOL     OW86679   6.028   1.404   3.175
28302SOL    HW186680   5.962   1.335   3.164
28302SOL    HW286681   6.026   1.451   3.091
28303SOL     OW86682   5.106  12.671   7.608
28303SOL    HW186683   5.161  12.667   7.529
28303SOL    HW286684   5.036  12.732   7.585
28304SOL     OW86685   1.473   2.835   8.488
28304SOL    HW186686   1.386   2.869   8.508
28304SOL    HW286687   1.515   2.904   8.436
28305SOL     OW86688   0.699  13.959   4.163
28305SOL    HW186689   0.625  13.899   4.161
28305SOL    HW286690   0.733  13.960   4.074
28306SOL     OW86691   2.361  12.255   6.956
28306SOL    HW186692   2.453  12.271   6.976
28306SOL    HW286693   2.363  12.205   6.875
28307SOL     OW86694  14.469  14.472  12.545
28307SOL    HW186695  14.508  14.403  12.492
28307SOL    HW286696  14.432  14.533  12.481
28308SOL     OW86697  12.288  11.268  11.486
28308SOL    HW186698  12.257  11.270  11.396
28308SOL    HW286699  12.360  11.332  11.488
28309SOL     OW86700   1.790   2.661   1.709
28309SOL    HW186701   1.822   2.719   1.778
28309SOL    HW286702   1.712   2.620   1.746
28310SOL     OW86703   3.373   6.434   4.296
28310SOL    HW186704   3.356   6.340   4.305
28310SOL    HW286705   3.287   6.473   4.284
28311SOL     OW86706   0.936   9.327   3.383
28311SOL    HW186707   0.845   9.356   3.389
28311SOL    HW286708   0.933   9.234   3.406
28312SOL     OW86709   4.671  14.434  13.230
28312SOL    HW186710   4.674  14.339  13.225
28312SOL    HW286711   4.578  14.454  13.242
28313SOL     OW86712   8.063   0.941   4.221
28313SOL    HW186713   7.982   0.939   4.272
28313SOL    HW286714   8.034   0.952   4.130
28314SOL     OW86715   4.660  14.350   3.051
28314SOL    HW186716   4.635  14.441   3.067
28314SOL    HW286717   4.714  14.353   2.972
28315SOL     OW86718  10.373   8.163   1.037
28315SOL    HW186719  10.448   8.164   1.097
28315SOL    HW286720  10.333   8.077   1.049
28316SOL     OW86721   8.777   4.135   8.664
28316SOL    HW186722   8.848   4.091   8.710
28316SOL    HW286723   8.711   4.067   8.651
28317SOL     OW86724  14.648   8.771   7.508
28317SOL    HW186725  14.645   8.711   7.583
28317SOL    HW286726  14.733   8.815   7.517
28318SOL     OW86727   1.952   6.042   5.916
28318SOL    HW186728   1.957   6.033   5.821
28318SOL    HW286729   1.859   6.027   5.936
28319SOL     OW86730   9.562   6.998   3.562
28319SOL    HW186731   9.552   6.973   3.653
28319SOL    HW286732   9.546   6.918   3.512
28320SOL     OW86733  12.611   9.142   2.127
28320SOL    HW186734  12.563   9.074   2.081
28320SOL    HW286735  12.620   9.109   2.216
28321SOL     OW86736   4.955   8.940   2.063
28321SOL    HW186737   4.971   8.867   2.122
28321SOL    HW286738   4.960   9.018   2.118
28322SOL     OW86739   6.538   8.530   8.164
28322SOL    HW186740   6.609   8.557   8.106
28322SOL    HW286741   6.473   8.599   8.156
28323SOL     OW86742   2.885  13.026   7.474
28323SOL    HW186743   2.843  12.986   7.398
28323SOL    HW286744   2.873  12.962   7.544
28324SOL     OW86745   4.172   2.416   9.549
28324SOL    HW186746   4.216   2.355   9.608
28324SOL    HW286747   4.125   2.360   9.487
28325SOL     OW86748   2.583   8.708  11.578
28325SOL    HW186749   2.604   8.793  11.540
28325SOL    HW286750   2.641   8.647  11.532
28326SOL     OW86751   6.985   0.794   5.488
28326SOL    HW186752   6.922   0.850   5.444
28326SOL    HW286753   6.980   0.819   5.580
28327SOL     OW86754  12.699   6.357   0.790
28327SOL    HW186755  12.638   6.286   0.808
28327SOL    HW286756  12.675   6.389   0.703
28328SOL     OW86757   8.045   8.064  10.346
28328SOL    HW186758   8.053   8.157  10.364
28328SOL    HW286759   8.119   8.024  10.393
28329SOL     OW86760   4.075   8.741  11.704
28329SOL    HW186761   4.124   8.659  11.718
28329SOL    HW286762   4.116   8.803  11.764
28330SOL     OW86763   2.153  11.414  10.942
28330SOL    HW186764   2.106  11.487  10.982
28330SOL    HW286765   2.106  11.396  10.861
28331SOL     OW86766  12.988  12.239   7.700
28331SOL    HW186767  12.971  12.160   7.649
28331SOL    HW286768  13.071  12.272   7.665
28332SOL     OW86769  12.555   4.496  12.130
28332SOL    HW186770  12.564   4.412  12.175
28332SOL    HW286771  12.589   4.481  12.042
28333SOL     OW86772  11.664   3.070   1.666
28333SOL    HW186773  11.744   3.067   1.718
28333SOL    HW286774  11.693   3.093   1.577
28334SOL     OW86775   2.889   9.383   7.989
28334SOL    HW186776   2.837   9.306   7.966
28334SOL    HW286777   2.825   9.453   8.004
28335SOL     OW86778   2.814   8.985   4.294
28335SOL    HW186779   2.859   8.957   4.374
28335SOL    HW286780   2.725   9.005   4.322
28336SOL     OW86781  12.242  13.424   0.138
28336SOL    HW186782  12.289  13.343   0.156
28336SOL    HW286783  12.151  13.404   0.163
28337SOL     OW86784   2.007  13.599   1.748
28337SOL    HW186785   2.032  13.523   1.802
28337SOL    HW286786   1.933  13.638   1.793
28338SOL     OW86787   8.031  13.141  13.834
28338SOL    HW186788   8.029  13.076  13.764
28338SOL    HW286789   7.951  13.192  13.822
28339SOL     OW86790  14.598   8.782   1.963
28339SOL    HW186791  14.577   8.688   1.959
28339SOL    HW286792  14.633   8.802   1.876
28340SOL     OW86793  13.948   8.907  12.726
28340SOL    HW186794  13.892   8.885  12.799
28340SOL    HW286795  13.897   8.968  12.673
28341SOL     OW86796  14.556  14.274   7.320
28341SOL    HW186797  14.560  14.260   7.226
28341SOL    HW286798  14.618  14.345   7.338
28342SOL     OW86799   3.335   2.493   7.483
28342SOL    HW186800   3.311   2.475   7.392
28342SOL    HW286801   3.323   2.410   7.528
28343SOL     OW86802  11.395  13.749   8.151
28343SOL    HW186803  11.426  13.713   8.234
28343SOL    HW286804  11.362  13.674   8.103
28344SOL     OW86805   6.229   7.330  11.282
28344SOL    HW186806   6.290   7.385  11.330
28344SOL    HW286807   6.240   7.355  11.191
28345SOL     OW86808   7.151   7.518  13.670
28345SOL    HW186809   7.204   7.440  13.653
28345SOL    HW286810   7.212   7.591  13.663
28346SOL     OW86811   4.215  10.918  10.046
28346SOL    HW186812   4.216  10.854  10.117
28346SOL    HW286813   4.266  10.877   9.976
28347SOL     OW86814  10.871   7.356   1.692
28347SOL    HW186815  10.807   7.357   1.621
28347SOL    HW286816  10.916   7.272   1.682
28348SOL     OW86817   9.247  12.700   4.848
28348SOL    HW186818   9.300  12.768   4.806
28348SOL    HW286819   9.276  12.618   4.809
28349SOL     OW86820   0.494  14.859   7.883
28349SOL    HW186821   0.470   0.052   7.827
28349SOL    HW286822   0.454  14.878   7.968
28350SOL     OW86823   2.960   2.205  13.746
28350SOL    HW186824   2.880   2.167  13.710
28350SOL    HW286825   2.931   2.283  13.792
28351SOL     OW86826  12.813   4.713   4.215
28351SOL    HW186827  12.835   4.780   4.280
28351SOL    HW286828  12.741   4.752   4.165
28352SOL     OW86829   1.861   3.546  11.533
28352SOL    HW186830   1.901   3.625  11.569
28352SOL    HW286831   1.775   3.541  11.575
28353SOL     OW86832   7.079   0.506   3.068
28353SOL    HW186833   6.998   0.485   3.116
28353SOL    HW286834   7.067   0.596   3.038
28354SOL     OW86835   9.413  10.281   8.224
28354SOL    HW186836   9.456  10.336   8.158
28354SOL    HW286837   9.484  10.254   8.283
28355SOL     OW86838   9.664   6.740  10.227
28355SOL    HW186839   9.621   6.657  10.244
28355SOL    HW286840   9.710   6.760  10.308
28356SOL     OW86841   7.724   1.847   2.289
28356SOL    HW186842   7.655   1.803   2.239
28356SOL    HW286843   7.708   1.941   2.274
28357SOL     OW86844   5.703   7.242  12.728
28357SOL    HW186845   5.722   7.328  12.690
28357SOL    HW286846   5.625   7.212  12.681
28358SOL     OW86847   5.016  11.022   7.855
28358SOL    HW186848   4.997  10.943   7.906
28358SOL    HW286849   4.958  11.088   7.892
28359SOL     OW86850   3.295   8.830   9.183
28359SOL    HW186851   3.304   8.830   9.278
28359SOL    HW286852   3.260   8.743   9.162
28360SOL     OW86853   3.025   6.533   6.475
28360SOL    HW186854   3.109   6.528   6.427
28360SOL    HW286855   2.972   6.592   6.422
28361SOL     OW86856  13.974   7.789   3.266
28361SOL    HW186857  14.042   7.734   3.228
28361SOL    HW286858  13.921   7.817   3.191
28362SOL     OW86859  12.736   0.296  13.486
28362SOL    HW186860  12.717   0.297  13.579
28362SOL    HW286861  12.656   0.331  13.445
28363SOL     OW86862  12.042   7.800  13.007
28363SOL    HW186863  12.017   7.733  13.070
28363SOL    HW286864  11.959   7.833  12.973
28364SOL     OW86865   0.110  11.308   8.964
28364SOL    HW186866   0.071  11.358   8.892
28364SOL    HW286867   0.130  11.374   9.031
28365SOL     OW86868  13.030   2.772   1.575
28365SOL    HW186869  12.966   2.708   1.606
28365SOL    HW286870  13.057   2.819   1.654
28366SOL     OW86871   6.967  13.867   3.480
28366SOL    HW186872   7.022  13.877   3.558
28366SOL    HW286873   6.899  13.806   3.506
28367SOL     OW86874   7.030   8.145   2.623
28367SOL    HW186875   7.026   8.238   2.646
28367SOL    HW286876   6.949   8.108   2.657
28368SOL     OW86877   9.526  10.884  10.392
28368SOL    HW186878   9.494  10.796  10.408
28368SOL    HW286879   9.446  10.936  10.377
28369SOL     OW86880   6.894  11.374   5.056
28369SOL    HW186881   6.853  11.366   4.970
28369SOL    HW286882   6.822  11.368   5.118
28370SOL     OW86883   0.176   5.966  10.624
28370SOL    HW186884   0.159   6.050  10.665
28370SOL    HW286885   0.197   5.907  10.696
28371SOL     OW86886   6.797  13.280  11.754
28371SOL    HW186887   6.771  13.363  11.715
28371SOL    HW286888   6.870  13.250  11.699
28372SOL     OW86889  10.648  10.382   3.422
28372SOL    HW186890  10.601  10.314   3.375
28372SOL    HW286891  10.585  10.454   3.430
28373SOL     OW86892   3.709   0.317   3.246
28373SOL    HW186893   3.716   0.389   3.183
28373SOL    HW286894   3.617   0.289   3.240
28374SOL     OW86895  14.360   9.488   1.142
28374SOL    HW186896  14.313   9.487   1.058
28374SOL    HW286897  14.355   9.579   1.171
28375SOL     OW86898   4.912   2.485   3.046
28375SOL    HW186899   4.957   2.561   3.008
28375SOL    HW286900   4.819   2.508   3.041
28376SOL     OW86901  13.317  14.840   1.252
28376SOL    HW186902  13.405  14.810   1.278
28376SOL    HW286903  13.308  14.812   1.161
28377SOL     OW86904   9.271   9.517  13.005
28377SOL    HW186905   9.258   9.498  12.912
28377SOL    HW286906   9.214   9.592  13.022
28378SOL     OW86907   5.344   4.067   2.330
28378SOL    HW186908   5.409   4.131   2.297
28378SOL    HW286909   5.285   4.119   2.383
28379SOL     OW86910   2.652   1.153   6.022
28379SOL    HW186911   2.733   1.170   6.070
28379SOL    HW286912   2.663   1.199   5.939
28380SOL     OW86913   0.534   1.673  11.234
28380SOL    HW186914   0.585   1.593  11.227
28380SOL    HW286915   0.502   1.674  11.324
28381SOL     OW86916   6.482   9.479   5.151
28381SOL    HW186917   6.528   9.457   5.070
28381SOL    HW286918   6.544   9.533   5.200
28382SOL     OW86919  11.150   8.408   6.779
28382SOL    HW186920  11.170   8.445   6.865
28382SOL    HW286921  11.215   8.339   6.767
28383SOL     OW86922  11.377   8.299   7.436
28383SOL    HW186923  11.388   8.241   7.511
28383SOL    HW286924  11.430   8.376   7.457
28384SOL     OW86925   4.677  12.472  14.585
28384SOL    HW186926   4.688  12.563  14.613
28384SOL    HW286927   4.730  12.464  14.506
28385SOL     OW86928   3.750   3.670  14.354
28385SOL    HW186929   3.713   3.696  14.270
28385SOL    HW286930   3.778   3.579  14.340
28386SOL     OW86931   4.948   1.637   9.841
28386SOL    HW186932   4.855   1.657   9.835
28386SOL    HW286933   4.982   1.648   9.752
28387SOL     OW86934   9.336   0.385   9.460
28387SOL    HW186935   9.390   0.401   9.537
28387SOL    HW286936   9.384   0.425   9.388
28388SOL     OW86937   8.000  11.016   0.877
28388SOL    HW186938   7.928  11.072   0.907
28388SOL    HW286939   8.040  10.983   0.958
28389SOL     OW86940   1.141   1.205  11.872
28389SOL    HW186941   1.146   1.156  11.790
28389SOL    HW286942   1.067   1.265  11.860
28390SOL     OW86943   8.009   4.868  12.557
28390SOL    HW186944   7.932   4.811  12.561
28390SOL    HW286945   8.048   4.849  12.472
28391SOL     OW86946   5.154   8.959   1.868
28391SOL    HW186947   5.077   8.974   1.923
28391SOL    HW286948   5.192   9.046   1.856
28392SOL     OW86949   9.941   8.913   4.369
28392SOL    HW186950  10.016   8.876   4.322
28392SOL    HW286951   9.972   8.998   4.400
28393SOL     OW86952   1.280   3.089   5.334
28393SOL    HW186953   1.189   3.116   5.346
28393SOL    HW286954   1.330   3.170   5.335
28394SOL     OW86955  10.034  14.164   4.630
28394SOL    HW186956   9.942  14.182   4.607
28394SOL    HW286957  10.030  14.082   4.680
28395SOL     OW86958  12.356   0.294   4.258
28395SOL    HW186959  12.287   0.230   4.248
28395SOL    HW286960  12.392   0.306   4.170
28396SOL     OW86961   4.653   3.082   6.205
28396SOL    HW186962   4.618   3.170   6.218
28396SOL    HW286963   4.610   3.029   6.272
28397SOL     OW86964   8.487   2.714   8.223
28397SOL    HW186965   8.548   2.782   8.253
28397SOL    HW286966   8.522   2.684   8.140
28398SOL     OW86967   6.457   3.464   0.175
28398SOL    HW186968   6.390   3.428   0.117
28398SOL    HW286969   6.487   3.544   0.131
28399SOL     OW86970   7.403  12.326   4.144
28399SOL    HW186971   7.495  12.330   4.117
28399SOL    HW286972   7.357  12.377   4.077
28400SOL     OW86973   0.170   6.543   0.784
28400SOL    HW186974   0.207   6.569   0.699
28400SOL    HW286975   0.186   6.449   0.789
28401SOL     OW86976   7.832   4.395   6.595
28401SOL    HW186977   7.820   4.369   6.687
28401SOL    HW286978   7.857   4.487   6.599
28402SOL     OW86979  14.609   2.643  11.077
28402SOL    HW186980  14.538   2.658  11.140
28402SOL    HW286981  14.689   2.645  11.130
28403SOL     OW86982   7.909   5.943   7.925
28403SOL    HW186983   7.938   6.030   7.952
28403SOL    HW286984   7.953   5.883   7.985
28404SOL     OW86985   4.071   2.494   4.833
28404SOL    HW186986   4.046   2.441   4.757
28404SOL    HW286987   4.137   2.554   4.800
28405SOL     OW86988   2.039   0.192   9.547
28405SOL    HW186989   2.022   0.283   9.569
28405SOL    HW286990   2.028   0.187   9.452
28406SOL     OW86991   0.979  14.185   3.038
28406SOL    HW186992   0.927  14.240   3.097
28406SOL    HW286993   0.973  14.097   3.075
28407SOL     OW86994   2.751   1.686   5.305
28407SOL    HW186995   2.658   1.701   5.288
28407SOL    HW286996   2.770   1.741   5.381
28408SOL     OW86997   6.202  10.143   9.843
28408SOL    HW186998   6.150  10.144   9.762
28408SOL    HW286999   6.291  10.159   9.814
28409SOL     OW87000   2.296   7.935   8.646
28409SOL    HW187001   2.257   8.014   8.683
28409SOL    HW287002   2.390   7.948   8.657
28410SOL     OW87003  11.562   8.943  10.437
28410SOL    HW187004  11.604   8.858  10.452
28410SOL    HW287005  11.502   8.953  10.511
28411SOL     OW87006  11.113  10.731  14.540
28411SOL    HW187007  11.095  10.745  14.447
28411SOL    HW287008  11.109  10.819  14.578
28412SOL     OW87009   7.370  11.528  13.747
28412SOL    HW187010   7.430  11.482  13.687
28412SOL    HW287011   7.406  11.617  13.752
28413SOL     OW87012   6.694   3.757   0.919
28413SOL    HW187013   6.656   3.832   0.874
28413SOL    HW287014   6.772   3.793   0.963
28414SOL     OW87015   5.877   2.464   3.018
28414SOL    HW187016   5.936   2.493   3.088
28414SOL    HW287017   5.865   2.542   2.964
28415SOL     OW87018   5.281  10.624   8.803
28415SOL    HW187019   5.333  10.700   8.778
28415SOL    HW287020   5.338  10.549   8.785
28416SOL     OW87021   6.849  12.230  13.488
28416SOL    HW187022   6.831  12.322  13.509
28416SOL    HW287023   6.839  12.224  13.393
28417SOL     OW87024   4.075  13.606  10.703
28417SOL    HW187025   4.042  13.561  10.625
28417SOL    HW287026   4.147  13.551  10.734
28418SOL     OW87027  11.875   5.200   5.413
28418SOL    HW187028  11.912   5.120   5.450
28418SOL    HW287029  11.926   5.271   5.453
28419SOL     OW87030   5.781  12.818   0.227
28419SOL    HW187031   5.844  12.883   0.258
28419SOL    HW287032   5.831  12.736   0.223
28420SOL     OW87033  10.933  12.721   3.905
28420SOL    HW187034  10.990  12.728   3.981
28420SOL    HW287035  10.981  12.664   3.844
28421SOL     OW87036   9.396  11.220  10.672
28421SOL    HW187037   9.353  11.137  10.692
28421SOL    HW287038   9.337  11.287  10.705
28422SOL     OW87039  13.409  11.418   6.118
28422SOL    HW187040  13.433  11.327   6.132
28422SOL    HW287041  13.388  11.451   6.205
28423SOL     OW87042   6.654   9.919   8.827
28423SOL    HW187043   6.652   9.961   8.741
28423SOL    HW287044   6.591   9.848   8.821
28424SOL     OW87045   4.049   8.693  12.027
28424SOL    HW187046   3.991   8.653  11.962
28424SOL    HW287047   4.132   8.705  11.980
28425SOL     OW87048  10.514   2.585   8.267
28425SOL    HW187049  10.573   2.653   8.298
28425SOL    HW287050  10.453   2.571   8.339
28426SOL     OW87051  10.888   0.450   1.418
28426SOL    HW187052  10.799   0.451   1.381
28426SOL    HW287053  10.944   0.426   1.344
28427SOL     OW87054  10.806   6.695  12.665
28427SOL    HW187055  10.720   6.661  12.692
28427SOL    HW287056  10.822   6.654  12.580
28428SOL     OW87057   6.250   9.390   6.899
28428SOL    HW187058   6.168   9.342   6.907
28428SOL    HW287059   6.317   9.325   6.920
28429SOL     OW87060  13.582   2.711   6.834
28429SOL    HW187061  13.647   2.695   6.903
28429SOL    HW287062  13.503   2.736   6.881
28430SOL     OW87063   5.074  10.283   0.051
28430SOL    HW187064   5.000  10.344   0.051
28430SOL    HW287065   5.151  10.338   0.058
28431SOL     OW87066   9.190  12.813  11.262
28431SOL    HW187067   9.148  12.868  11.196
28431SOL    HW287068   9.220  12.735  11.214
28432SOL     OW87069   8.337  13.369   5.315
28432SOL    HW187070   8.299  13.285   5.342
28432SOL    HW287071   8.303  13.384   5.227
28433SOL     OW87072   8.538   2.174   0.638
28433SOL    HW187073   8.489   2.110   0.586
28433SOL    HW287074   8.502   2.259   0.613
28434SOL     OW87075   5.326   4.679   6.687
28434SOL    HW187076   5.293   4.685   6.597
28434SOL    HW287077   5.360   4.767   6.705
28435SOL     OW87078   4.902   5.811   6.901
28435SOL    HW187079   4.807   5.798   6.899
28435SOL    HW287080   4.924   5.821   6.993
28436SOL     OW87081   9.843   9.035   8.214
28436SOL    HW187082   9.778   9.020   8.145
28436SOL    HW287083   9.926   9.041   8.167
28437SOL     OW87084  12.208  10.362   7.190
28437SOL    HW187085  12.136  10.423   7.209
28437SOL    HW287086  12.166  10.276   7.189
28438SOL     OW87087   2.438   5.794  12.647
28438SOL    HW187088   2.477   5.788  12.734
28438SOL    HW287089   2.472   5.718  12.600
28439SOL     OW87090   1.953   1.250  12.972
28439SOL    HW187091   1.993   1.337  12.972
28439SOL    HW287092   2.016   1.194  12.926
28440SOL     OW87093   5.958   8.582   6.842
28440SOL    HW187094   6.014   8.620   6.774
28440SOL    HW287095   6.005   8.600   6.924
28441SOL     OW87096   1.741   9.158   9.592
28441SOL    HW187097   1.780   9.245   9.581
28441SOL    HW287098   1.780   9.124   9.673
28442SOL     OW87099  14.618  12.884   4.427
28442SOL    HW187100  14.629  12.978   4.409
28442SOL    HW287101  14.648  12.875   4.518
28443SOL     OW87102   9.242   0.965   9.635
28443SOL    HW187103   9.233   0.900   9.565
28443SOL    HW287104   9.174   1.029   9.617
28444SOL     OW87105   5.396  11.073   5.626
28444SOL    HW187106   5.375  11.153   5.578
28444SOL    HW287107   5.448  11.021   5.564
28445SOL     OW87108   8.553  11.518   0.533
28445SOL    HW187109   8.545  11.434   0.579
28445SOL    HW287110   8.463  11.545   0.517
28446SOL     OW87111  13.710   8.486   7.912
28446SOL    HW187112  13.792   8.441   7.892
28446SOL    HW287113  13.713   8.566   7.859
28447SOL     OW87114   0.528  11.932  11.645
28447SOL    HW187115   0.465  11.900  11.710
28447SOL    HW287116   0.597  11.865  11.644
28448SOL     OW87117   3.633  12.958  14.231
28448SOL    HW187118   3.675  12.996  14.153
28448SOL    HW287119   3.705  12.915  14.277
28449SOL     OW87120   7.125  10.183  14.620
28449SOL    HW187121   7.152  10.199  14.710
28449SOL    HW287122   7.191  10.229  14.567
28450SOL     OW87123   7.249   4.229   2.453
28450SOL    HW187124   7.189   4.282   2.505
28450SOL    HW287125   7.198   4.204   2.376
28451SOL     OW87126  12.298  11.158   6.426
28451SOL    HW187127  12.209  11.195   6.420
28451SOL    HW287128  12.352  11.217   6.373
28452SOL     OW87129  12.646   2.704   0.808
28452SOL    HW187130  12.586   2.774   0.835
28452SOL    HW287131  12.695   2.741   0.735
28453SOL     OW87132  12.664   9.645   2.588
28453SOL    HW187133  12.714   9.600   2.657
28453SOL    HW287134  12.730   9.691   2.537
28454SOL     OW87135   7.325   2.783   3.915
28454SOL    HW187136   7.319   2.689   3.898
28454SOL    HW287137   7.358   2.821   3.834
28455SOL     OW87138   7.009   5.048   2.953
28455SOL    HW187139   7.060   5.064   3.032
28455SOL    HW287140   7.072   5.015   2.890
28456SOL     OW87141   5.485  10.709   2.446
28456SOL    HW187142   5.531  10.768   2.506
28456SOL    HW287143   5.514  10.736   2.359
28457SOL     OW87144   9.283   7.514   1.471
28457SOL    HW187145   9.349   7.549   1.411
28457SOL    HW287146   9.261   7.428   1.434
28458SOL     OW87147   1.855   8.453   0.657
28458SOL    HW187148   1.920   8.494   0.599
28458SOL    HW287149   1.879   8.361   0.657
28459SOL     OW87150   8.386   5.500   5.098
28459SOL    HW187151   8.401   5.405   5.100
28459SOL    HW287152   8.453   5.533   5.038
28460SOL     OW87153  10.621   8.121   2.052
28460SOL    HW187154  10.563   8.195   2.069
28460SOL    HW287155  10.709   8.158   2.061
28461SOL     OW87156  13.439   5.943   8.839
28461SOL    HW187157  13.516   5.998   8.844
28461SOL    HW287158  13.367   6.003   8.819
28462SOL     OW87159   8.489   4.690   4.323
28462SOL    HW187160   8.550   4.637   4.273
28462SOL    HW287161   8.482   4.646   4.408
28463SOL     OW87162   5.350  10.346  10.086
28463SOL    HW187163   5.300  10.274  10.126
28463SOL    HW287164   5.333  10.421  10.143
28464SOL     OW87165  11.104  14.317   1.479
28464SOL    HW187166  11.158  14.394   1.463
28464SOL    HW287167  11.015  14.351   1.486
28465SOL     OW87168  11.920  11.573  12.610
28465SOL    HW187169  11.973  11.630  12.554
28465SOL    HW287170  11.959  11.583  12.697
28466SOL     OW87171   1.707   8.291  12.426
28466SOL    HW187172   1.634   8.317  12.369
28466SOL    HW287173   1.737   8.374  12.464
28467SOL     OW87174  14.774   2.477   1.996
28467SOL    HW187175  14.716   2.537   2.043
28467SOL    HW287176  14.715   2.412   1.957
28468SOL     OW87177  12.440  13.029  13.509
28468SOL    HW187178  12.515  13.043  13.568
28468SOL    HW287179  12.364  13.056  13.560
28469SOL     OW87180  12.632   7.057   9.674
28469SOL    HW187181  12.575   7.125   9.710
28469SOL    HW287182  12.678   7.099   9.602
28470SOL     OW87183  10.660  13.131   5.228
28470SOL    HW187184  10.613  13.058   5.268
28470SOL    HW287185  10.651  13.116   5.133
28471SOL     OW87186   0.514   3.448  11.023
28471SOL    HW187187   0.556   3.374  10.980
28471SOL    HW287188   0.459   3.409  11.090
28472SOL     OW87189  10.881  11.135  12.565
28472SOL    HW187190  10.913  11.225  12.556
28472SOL    HW287191  10.960  11.084  12.585
28473SOL     OW87192   2.590   3.702  13.316
28473SOL    HW187193   2.622   3.754  13.390
28473SOL    HW287194   2.497   3.724  13.310
28474SOL     OW87195   8.517   0.873   2.341
28474SOL    HW187196   8.495   0.949   2.395
28474SOL    HW287197   8.498   0.901   2.252
28475SOL     OW87198   0.500   1.505  10.825
28475SOL    HW187199   0.575   1.486  10.882
28475SOL    HW287200   0.498   1.432  10.763
28476SOL     OW87201   2.758  14.800   0.525
28476SOL    HW187202   2.751   0.014   0.522
28476SOL    HW287203   2.850  14.784   0.545
28477SOL     OW87204   8.601   0.125  10.755
28477SOL    HW187205   8.576   0.216  10.745
28477SOL    HW287206   8.583   0.104  10.846
28478SOL     OW87207  10.230   5.837   5.479
28478SOL    HW187208  10.300   5.798   5.426
28478SOL    HW287209  10.275   5.868   5.558
28479SOL     OW87210   3.135   8.655   5.432
28479SOL    HW187211   3.080   8.729   5.407
28479SOL    HW287212   3.090   8.578   5.395
28480SOL     OW87213   4.517  14.036  11.097
28480SOL    HW187214   4.523  14.110  11.158
28480SOL    HW287215   4.595  13.984  11.116
28481SOL     OW87216  10.288   6.142   1.160
28481SOL    HW187217  10.236   6.101   1.091
28481SOL    HW287218  10.224   6.180   1.220
28482SOL     OW87219  12.843   4.295   9.679
28482SOL    HW187220  12.767   4.347   9.704
28482SOL    HW287221  12.916   4.334   9.727
28483SOL     OW87222  12.111   7.515   5.169
28483SOL    HW187223  12.062   7.453   5.116
28483SOL    HW287224  12.202   7.484   5.164
28484SOL     OW87225   8.976   8.985   0.552
28484SOL    HW187226   8.983   9.052   0.620
28484SOL    HW287227   9.026   8.911   0.585
28485SOL     OW87228   1.488   7.468   9.540
28485SOL    HW187229   1.469   7.510   9.624
28485SOL    HW287230   1.504   7.376   9.561
28486SOL     OW87231   5.862   0.282   5.745
28486SOL    HW187232   5.927   0.351   5.728
28486SOL    HW287233   5.806   0.318   5.814
28487SOL     OW87234   9.200   0.006   8.900
28487SOL    HW187235   9.121  14.879   8.846
28487SOL    HW287236   9.167   0.022   8.988
28488SOL     OW87237   6.305  11.374   1.482
28488SOL    HW187238   6.278  11.307   1.544
28488SOL    HW287239   6.235  11.378   1.418
28489SOL     OW87240  12.796   7.868   6.060
28489SOL    HW187241  12.791   7.785   6.108
28489SOL    HW287242  12.705   7.890   6.040
28490SOL     OW87243   3.146  12.886  11.887
28490SOL    HW187244   3.057  12.918  11.869
28490SOL    HW287245   3.168  12.923  11.972
28491SOL     OW87246   9.006   9.129  14.716
28491SOL    HW187247   8.942   9.190  14.752
28491SOL    HW287248   9.091   9.165  14.741
28492SOL     OW87249  10.226   6.481  11.679
28492SOL    HW187250  10.158   6.414  11.677
28492SOL    HW287251  10.192   6.553  11.626
28493SOL     OW87252  10.239   4.546  13.676
28493SOL    HW187253  10.332   4.572  13.678
28493SOL    HW287254  10.195   4.621  13.635
28494SOL     OW87255   9.031   9.938   9.733
28494SOL    HW187256   8.980   9.866   9.770
28494SOL    HW287257   9.025  10.007   9.798
28495SOL     OW87258   8.247   8.298  13.540
28495SOL    HW187259   8.209   8.320  13.625
28495SOL    HW287260   8.205   8.216  13.515
28496SOL     OW87261   1.386  11.514  14.341
28496SOL    HW187262   1.325  11.586  14.359
28496SOL    HW287263   1.428  11.538  14.259
28497SOL     OW87264   5.100   4.655   9.177
28497SOL    HW187265   5.094   4.586   9.110
28497SOL    HW287266   5.188   4.690   9.169
28498SOL     OW87267  12.832  13.165   7.165
28498SOL    HW187268  12.821  13.179   7.071
28498SOL    HW287269  12.876  13.080   7.172
28499SOL     OW87270   3.064   6.803   7.802
28499SOL    HW187271   3.054   6.708   7.809
28499SOL    HW287272   3.007   6.839   7.871
28500SOL     OW87273   3.493   7.943   2.712
28500SOL    HW187274   3.413   7.985   2.742
28500SOL    HW287275   3.523   7.998   2.640
28501SOL     OW87276  10.044   0.265   2.610
28501SOL    HW187277   9.952   0.282   2.629
28501SOL    HW287278  10.091   0.335   2.655
28502SOL     OW87279  12.973   6.712   1.612
28502SOL    HW187280  13.057   6.733   1.573
28502SOL    HW287281  12.921   6.791   1.601
28503SOL     OW87282   9.964  14.714   4.103
28503SOL    HW187283  10.053  14.688   4.076
28503SOL    HW287284   9.974  14.745   4.193
28504SOL     OW87285  12.107   5.153  14.762
28504SOL    HW187286  12.179   5.130  14.704
28504SOL    HW287287  12.130   5.239  14.797
28505SOL     OW87288   8.564  12.689   0.108
28505SOL    HW187289   8.574  12.768   0.054
28505SOL    HW287290   8.592  12.717   0.195
28506SOL     OW87291  10.864  14.479   1.769
28506SOL    HW187292  10.853  14.466   1.674
28506SOL    HW287293  10.917  14.405   1.797
28507SOL     OW87294  12.404   7.218   6.256
28507SOL    HW187295  12.359   7.163   6.192
28507SOL    HW287296  12.486   7.172   6.273
28508SOL     OW87297   2.923   9.624  10.159
28508SOL    HW187298   2.862   9.669  10.100
28508SOL    HW287299   2.941   9.688  10.227
28509SOL     OW87300   4.926   1.377   7.331
28509SOL    HW187301   4.915   1.381   7.426
28509SOL    HW287302   4.929   1.468   7.303
28510SOL     OW87303   9.984   9.033  14.751
28510SOL    HW187304   9.966   8.987  14.833
28510SOL    HW287305   9.933   9.114  14.757
28511SOL     OW87306   7.826   9.168  12.833
28511SOL    HW187307   7.867   9.081  12.829
28511SOL    HW287308   7.897   9.229  12.815
28512SOL     OW87309   2.463  10.139  12.842
28512SOL    HW187310   2.377  10.170  12.871
28512SOL    HW287311   2.456  10.044  12.843
28513SOL     OW87312  12.320   0.011   1.216
28513SOL    HW187313  12.365  14.846   1.145
28513SOL    HW287314  12.286  14.823   1.272
28514SOL     OW87315   2.224   8.922   9.585
28514SOL    HW187316   2.288   8.876   9.640
28514SOL    HW287317   2.253   9.013   9.586
28515SOL     OW87318  11.025   2.554  11.080
28515SOL    HW187319  10.987   2.491  11.018
28515SOL    HW287320  11.109   2.515  11.105
28516SOL     OW87321  11.062   3.366   1.296
28516SOL    HW187322  11.046   3.445   1.347
28516SOL    HW287323  11.151   3.340   1.317
28517SOL     OW87324   5.080   5.440  11.221
28517SOL    HW187325   4.998   5.478  11.188
28517SOL    HW287326   5.111   5.384  11.149
28518SOL     OW87327  12.190   9.012   4.822
28518SOL    HW187328  12.222   8.951   4.888
28518SOL    HW287329  12.219   9.098   4.853
28519SOL     OW87330   4.389   9.813   9.772
28519SOL    HW187331   4.306   9.768   9.786
28519SOL    HW287332   4.384   9.891   9.827
28520SOL     OW87333   0.655   0.460   2.963
28520SOL    HW187334   0.598   0.524   2.922
28520SOL    HW287335   0.733   0.510   2.988
28521SOL     OW87336  14.096   3.897  12.911
28521SOL    HW187337  14.090   3.982  12.955
28521SOL    HW287338  14.170   3.854  12.952
28522SOL     OW87339   3.480   8.448   0.542
28522SOL    HW187340   3.469   8.524   0.486
28522SOL    HW287341   3.521   8.482   0.621
28523SOL     OW87342   7.265  14.557   3.531
28523SOL    HW187343   7.173  14.577   3.547
28523SOL    HW287344   7.271  14.549   3.435
28524SOL     OW87345  13.981   2.029   0.306
28524SOL    HW187346  13.888   2.035   0.281
28524SOL    HW287347  14.024   2.097   0.255
28525SOL     OW87348   0.216  14.250   1.070
28525SOL    HW187349   0.197  14.264   1.163
28525SOL    HW287350   0.142  14.289   1.024
28526SOL     OW87351   2.584  14.095   3.947
28526SOL    HW187352   2.651  14.097   3.879
28526SOL    HW287353   2.528  14.171   3.929
28527SOL     OW87354   4.082   0.610   1.967
28527SOL    HW187355   4.046   0.525   1.941
28527SOL    HW287356   4.169   0.612   1.929
28528SOL     OW87357  13.877   0.259   5.636
28528SOL    HW187358  13.895   0.344   5.595
28528SOL    HW287359  13.890   0.276   5.730
28529SOL     OW87360   9.553   9.505   3.496
28529SOL    HW187361   9.576   9.427   3.446
28529SOL    HW287362   9.499   9.473   3.568
28530SOL     OW87363   0.340   2.072   1.817
28530SOL    HW187364   0.251   2.095   1.792
28530SOL    HW287365   0.346   1.978   1.804
28531SOL     OW87366   8.810  13.650   6.849
28531SOL    HW187367   8.897  13.655   6.809
28531SOL    HW287368   8.757  13.602   6.784
28532SOL     OW87369   0.361   2.996  10.538
28532SOL    HW187370   0.434   2.935  10.550
28532SOL    HW287371   0.316   2.965  10.460
28533SOL     OW87372   3.458   9.188   9.338
28533SOL    HW187373   3.416   9.271   9.314
28533SOL    HW287374   3.535   9.183   9.282
28534SOL     OW87375  13.068   1.004   2.287
28534SOL    HW187376  12.991   1.060   2.281
28534SOL    HW287377  13.032   0.915   2.295
28535SOL     OW87378  13.954   0.142   5.178
28535SOL    HW187379  13.904   0.209   5.224
28535SOL    HW287380  14.028   0.188   5.139
28536SOL     OW87381  10.188   0.918  10.199
28536SOL    HW187382  10.170   0.989  10.137
28536SOL    HW287383  10.146   0.947  10.281
28537SOL     OW87384  14.120   0.155  13.549
28537SOL    HW187385  14.034   0.116  13.565
28537SOL    HW287386  14.183   0.091  13.583
28538SOL     OW87387   8.151   2.457   0.684
28538SOL    HW187388   8.174   2.369   0.654
28538SOL    HW287389   8.177   2.459   0.776
28539SOL     OW87390  14.647  11.995  13.252
28539SOL    HW187391  14.557  12.026  13.243
28539SOL    HW287392  14.701  12.064  13.214
28540SOL     OW87393   8.068   9.088  11.987
28540SOL    HW187394   8.163   9.097  11.989
28540SOL    HW287395   8.037   9.148  12.055
28541SOL     OW87396   7.116  11.738   0.759
28541SOL    HW187397   7.165  11.814   0.791
28541SOL    HW287398   7.170  11.663   0.783
28542SOL     OW87399   4.141   5.029   7.801
28542SOL    HW187400   4.123   4.944   7.761
28542SOL    HW287401   4.144   5.090   7.727
28543SOL     OW87402   2.109  11.184   7.587
28543SOL    HW187403   2.129  11.111   7.527
28543SOL    HW287404   2.194  11.206   7.626
28544SOL     OW87405   1.199  13.257   7.756
28544SOL    HW187406   1.146  13.284   7.680
28544SOL    HW287407   1.135  13.246   7.826
28545SOL     OW87408  11.603   5.647  12.444
28545SOL    HW187409  11.633   5.595  12.370
28545SOL    HW287410  11.663   5.722  12.445
28546SOL     OW87411   2.798   3.958   9.835
28546SOL    HW187412   2.888   3.959   9.802
28546SOL    HW287413   2.807   3.936   9.928
28547SOL     OW87414  10.015   9.936  13.036
28547SOL    HW187415   9.977  10.009  13.086
28547SOL    HW287416  10.087   9.976  12.987
28548SOL     OW87417   7.894   8.800   9.477
28548SOL    HW187418   7.907   8.770   9.567
28548SOL    HW287419   7.979   8.785   9.434
28549SOL     OW87420   7.301  12.036   1.807
28549SOL    HW187421   7.355  12.098   1.757
28549SOL    HW287422   7.273  12.084   1.884
28550SOL     OW87423  13.649   1.013   0.397
28550SOL    HW187424  13.678   0.963   0.473
28550SOL    HW287425  13.555   0.997   0.393
28551SOL     OW87426   9.997   0.446   2.024
28551SOL    HW187427  10.085   0.454   1.988
28551SOL    HW287428  10.011   0.429   2.117
28552SOL     OW87429   8.676   9.125   1.670
28552SOL    HW187430   8.655   9.162   1.584
28552SOL    HW287431   8.767   9.099   1.663
28553SOL     OW87432   6.669   6.172   8.515
28553SOL    HW187433   6.583   6.181   8.556
28553SOL    HW287434   6.730   6.172   8.588
28554SOL     OW87435  12.889   3.432   6.413
28554SOL    HW187436  12.795   3.412   6.417
28554SOL    HW287437  12.895   3.523   6.444
28555SOL     OW87438  13.765   2.616  13.304
28555SOL    HW187439  13.688   2.604  13.248
28555SOL    HW287440  13.837   2.630  13.243
28556SOL     OW87441   6.319   4.454   5.650
28556SOL    HW187442   6.396   4.420   5.696
28556SOL    HW287443   6.248   4.395   5.674
28557SOL     OW87444  10.425  13.901  13.729
28557SOL    HW187445  10.442  13.882  13.637
28557SOL    HW287446  10.427  13.815  13.772
28558SOL     OW87447   4.114   9.584   7.438
28558SOL    HW187448   4.162   9.551   7.514
28558SOL    HW287449   4.122   9.513   7.374
28559SOL     OW87450  12.260  14.173  10.619
28559SOL    HW187451  12.338  14.142  10.664
28559SOL    HW287452  12.247  14.110  10.548
28560SOL     OW87453   5.007   2.476   8.655
28560SOL    HW187454   4.965   2.418   8.718
28560SOL    HW287455   5.027   2.555   8.705
28561SOL     OW87456  12.128   1.276   6.879
28561SOL    HW187457  12.103   1.215   6.948
28561SOL    HW287458  12.046   1.316   6.850
28562SOL     OW87459   9.809   2.752   8.987
28562SOL    HW187460   9.829   2.843   8.967
28562SOL    HW287461   9.890   2.717   9.024
28563SOL     OW87462  13.331  14.009  14.338
28563SOL    HW187463  13.409  13.976  14.382
28563SOL    HW287464  13.325  13.957  14.258
28564SOL     OW87465   2.395  14.347   8.567
28564SOL    HW187466   2.343  14.416   8.609
28564SOL    HW287467   2.422  14.290   8.639
28565SOL     OW87468  11.228  11.029  11.923
28565SOL    HW187469  11.311  11.027  11.970
28565SOL    HW287470  11.247  10.984  11.840
28566SOL     OW87471   9.943  14.846  13.743
28566SOL    HW187472   9.989  14.767  13.772
28566SOL    HW287473   9.857  14.815  13.715
28567SOL     OW87474   5.628   4.169   6.855
28567SOL    HW187475   5.645   4.171   6.949
28567SOL    HW287476   5.549   4.222   6.844
28568SOL     OW87477  11.108  11.288   8.174
28568SOL    HW187478  11.033  11.245   8.217
28568SOL    HW287479  11.092  11.381   8.187
28569SOL     OW87480  13.022  14.326   9.915
28569SOL    HW187481  13.002  14.254   9.855
28569SOL    HW287482  13.068  14.390   9.861
28570SOL     OW87483   5.130   2.861  14.548
28570SOL    HW187484   5.107   2.938  14.600
28570SOL    HW287485   5.119   2.890  14.457
28571SOL     OW87486   2.251  14.808  11.924
28571SOL    HW187487   2.276  14.734  11.980
28571SOL    HW287488   2.258   0.003  11.981
28572SOL     OW87489   4.775   7.226   5.073
28572SOL    HW187490   4.841   7.276   5.025
28572SOL    HW287491   4.727   7.179   5.005
28573SOL     OW87492   0.551   1.643   0.772
28573SOL    HW187493   0.592   1.656   0.687
28573SOL    HW287494   0.621   1.612   0.829
28574SOL     OW87495   8.520   6.345  12.584
28574SOL    HW187496   8.600   6.397  12.598
28574SOL    HW287497   8.478   6.386  12.509
28575SOL     OW87498   2.251   2.640  12.026
28575SOL    HW187499   2.314   2.575  11.996
28575SOL    HW287500   2.173   2.590  12.049
28576SOL     OW87501   9.642   4.554   8.623
28576SOL    HW187502   9.639   4.459   8.630
28576SOL    HW287503   9.685   4.582   8.704
28577SOL     OW87504  13.050   7.360   4.460
28577SOL    HW187505  13.024   7.445   4.424
28577SOL    HW287506  13.125   7.380   4.516
28578SOL     OW87507   7.204  12.399  12.188
28578SOL    HW187508   7.206  12.380  12.281
28578SOL    HW287509   7.172  12.319  12.147
28579SOL     OW87510  13.246  12.327   8.972
28579SOL    HW187511  13.189  12.327   8.895
28579SOL    HW287512  13.313  12.262   8.953
28580SOL     OW87513  11.934   3.754   4.343
28580SOL    HW187514  11.890   3.779   4.262
28580SOL    HW287515  12.022   3.789   4.335
28581SOL     OW87516   5.916  12.809   0.677
28581SOL    HW187517   5.967  12.758   0.614
28581SOL    HW287518   5.966  12.803   0.758
28582SOL     OW87519   5.654   6.990   2.099
28582SOL    HW187520   5.636   6.920   2.037
28582SOL    HW287521   5.731   7.035   2.063
28583SOL     OW87522   8.479   6.301   2.142
28583SOL    HW187523   8.483   6.207   2.125
28583SOL    HW287524   8.552   6.338   2.091
28584SOL     OW87525   8.689   1.848   9.493
28584SOL    HW187526   8.669   1.941   9.479
28584SOL    HW287527   8.606   1.809   9.520
28585SOL     OW87528   0.154  10.203   1.060
28585SOL    HW187529   0.220  10.176   1.123
28585SOL    HW287530   0.165  10.144   0.986
28586SOL     OW87531  12.879   8.371   5.480
28586SOL    HW187532  12.790   8.336   5.485
28586SOL    HW287533  12.882   8.418   5.397
28587SOL     OW87534  14.413   8.800  12.575
28587SOL    HW187535  14.331   8.752  12.568
28587SOL    HW287536  14.444   8.808  12.485
28588SOL     OW87537  11.495  14.066  13.457
28588SOL    HW187538  11.450  13.982  13.465
28588SOL    HW287539  11.429  14.131  13.480
28589SOL     OW87540   5.171   0.201  10.789
28589SOL    HW187541   5.089   0.151  10.784
28589SOL    HW287542   5.229   0.147  10.843
28590SOL     OW87543   5.594   0.595  14.879
28590SOL    HW187544   5.554   0.527  14.825
28590SOL    HW287545   5.637   0.653  14.816
28591SOL     OW87546   7.024   5.294   0.259
28591SOL    HW187547   7.096   5.319   0.317
28591SOL    HW287548   6.948   5.285   0.318
28592SOL     OW87549  14.311  12.342   8.588
28592SOL    HW187550  14.342  12.427   8.618
28592SOL    HW287551  14.267  12.360   8.505
28593SOL     OW87552   4.249  10.906   8.496
28593SOL    HW187553   4.328  10.957   8.515
28593SOL    HW287554   4.189  10.967   8.454
28594SOL     OW87555  11.491  11.947   6.366
28594SOL    HW187556  11.541  11.869   6.390
28594SOL    HW287557  11.523  11.970   6.279
28595SOL     OW87558   0.725   4.300  13.100
28595SOL    HW187559   0.721   4.395  13.115
28595SOL    HW287560   0.817   4.283  13.081
28596SOL     OW87561   9.263  13.358   7.618
28596SOL    HW187562   9.216  13.367   7.535
28596SOL    HW287563   9.249  13.442   7.663
28597SOL     OW87564   7.408  11.130   8.083
28597SOL    HW187565   7.484  11.153   8.031
28597SOL    HW287566   7.339  11.190   8.053
28598SOL     OW87567   8.950   2.360  12.012
28598SOL    HW187568   8.871   2.413  12.025
28598SOL    HW287569   9.016   2.402  12.066
28599SOL     OW87570   1.428   4.418   5.648
28599SOL    HW187571   1.448   4.325   5.641
28599SOL    HW287572   1.498   4.453   5.703
28600SOL     OW87573   2.218   2.412   4.643
28600SOL    HW187574   2.266   2.349   4.590
28600SOL    HW287575   2.276   2.488   4.648
28601SOL     OW87576   4.089  12.947   5.506
28601SOL    HW187577   4.168  12.978   5.551
28601SOL    HW287578   4.019  12.956   5.571
28602SOL     OW87579  13.292  12.545   1.269
28602SOL    HW187580  13.356  12.485   1.230
28602SOL    HW287581  13.208  12.502   1.255
28603SOL     OW87582  11.569   9.595  10.063
28603SOL    HW187583  11.647   9.649  10.074
28603SOL    HW287584  11.505   9.653  10.022
28604SOL     OW87585   9.791   2.910  12.811
28604SOL    HW187586   9.732   2.920  12.736
28604SOL    HW287587   9.876   2.942  12.779
28605SOL     OW87588  12.026   1.337   1.067
28605SOL    HW187589  12.007   1.399   0.996
28605SOL    HW287590  12.053   1.257   1.022
28606SOL     OW87591   1.964   8.735   3.752
28606SOL    HW187592   2.047   8.688   3.753
28606SOL    HW287593   1.988   8.826   3.733
28607SOL     OW87594   1.440  14.259   9.118
28607SOL    HW187595   1.425  14.173   9.158
28607SOL    HW287596   1.432  14.243   9.024
28608SOL     OW87597   1.401   5.275   1.087
28608SOL    HW187598   1.363   5.195   1.124
28608SOL    HW287599   1.487   5.248   1.055
28609SOL     OW87600   3.392   9.875   9.549
28609SOL    HW187601   3.339   9.920   9.615
28609SOL    HW287602   3.428   9.799   9.594
28610SOL     OW87603  10.413   4.303  12.740
28610SOL    HW187604  10.406   4.214  12.775
28610SOL    HW287605  10.454   4.292  12.654
28611SOL     OW87606   4.069  12.240   2.747
28611SOL    HW187607   4.139  12.306   2.741
28611SOL    HW287608   4.069  12.214   2.839
28612SOL     OW87609   9.436  14.007   9.519
28612SOL    HW187610   9.516  13.954   9.513
28612SOL    HW287611   9.467  14.097   9.519
28613SOL     OW87612   5.609   1.440   8.434
28613SOL    HW187613   5.519   1.408   8.447
28613SOL    HW287614   5.616   1.453   8.339
28614SOL     OW87615   0.224   6.817  13.935
28614SOL    HW187616   0.202   6.867  13.857
28614SOL    HW287617   0.265   6.881  13.994
28615SOL     OW87618   3.819  12.433  14.313
28615SOL    HW187619   3.821  12.448  14.407
28615SOL    HW287620   3.733  12.467  14.286
28616SOL     OW87621  11.149  14.399   9.944
28616SOL    HW187622  11.077  14.437   9.894
28616SOL    HW287623  11.211  14.368   9.877
28617SOL     OW87624  12.421  13.360   2.038
28617SOL    HW187625  12.389  13.350   2.128
28617SOL    HW287626  12.343  13.364   1.984
28618SOL     OW87627  12.142   6.680  12.103
28618SOL    HW187628  12.199   6.621  12.053
28618SOL    HW287629  12.147   6.648  12.193
28619SOL     OW87630  12.142   6.617   4.694
28619SOL    HW187631  12.215   6.557   4.680
28619SOL    HW287632  12.146   6.678   4.620
28620SOL     OW87633   9.463   7.832  11.473
28620SOL    HW187634   9.402   7.771  11.514
28620SOL    HW287635   9.485   7.894  11.542
28621SOL     OW87636   8.838  10.164   8.186
28621SOL    HW187637   8.917  10.115   8.163
28621SOL    HW287638   8.814  10.132   8.273
28622SOL     OW87639   2.461   8.230  12.702
28622SOL    HW187640   2.459   8.191  12.614
28622SOL    HW287641   2.487   8.321  12.687
28623SOL     OW87642  10.481   5.645   4.297
28623SOL    HW187643  10.532   5.724   4.280
28623SOL    HW287644  10.487   5.594   4.216
28624SOL     OW87645   3.664   4.851  13.675
28624SOL    HW187646   3.682   4.904  13.752
28624SOL    HW287647   3.569   4.854  13.665
28625SOL     OW87648   6.609   0.580  11.892
28625SOL    HW187649   6.558   0.621  11.823
28625SOL    HW287650   6.688   0.548  11.848
28626SOL     OW87651  13.874   9.273  14.784
28626SOL    HW187652  13.923   9.242  14.708
28626SOL    HW287653  13.785   9.242  14.770
28627SOL     OW87654   6.315   0.159   9.374
28627SOL    HW187655   6.309   0.173   9.468
28627SOL    HW287656   6.333   0.065   9.365
28628SOL     OW87657   5.860   8.408   2.031
28628SOL    HW187658   5.812   8.489   2.015
28628SOL    HW287659   5.951   8.436   2.043
28629SOL     OW87660   1.164   1.922  11.029
28629SOL    HW187661   1.223   1.942  10.957
28629SOL    HW287662   1.089   1.980  11.016
28630SOL     OW87663  14.741   2.200   3.967
28630SOL    HW187664  14.762   2.147   3.890
28630SOL    HW287665  14.715   2.285   3.932
28631SOL     OW87666   1.475   0.615  12.983
28631SOL    HW187667   1.436   0.648  12.902
28631SOL    HW287668   1.559   0.660  12.989
28632SOL     OW87669   3.029   9.285   1.345
28632SOL    HW187670   3.032   9.355   1.279
28632SOL    HW287671   3.115   9.287   1.386
28633SOL     OW87672   9.385   5.644   9.350
28633SOL    HW187673   9.394   5.701   9.427
28633SOL    HW287674   9.305   5.673   9.308
28634SOL     OW87675  12.470   4.918   1.391
28634SOL    HW187676  12.456   4.870   1.473
28634SOL    HW287677  12.406   4.989   1.394
28635SOL     OW87678  11.272  14.576   5.808
28635SOL    HW187679  11.343  14.640   5.809
28635SOL    HW287680  11.193  14.627   5.828
28636SOL     OW87681  14.029  12.489  14.472
28636SOL    HW187682  14.037  12.451  14.384
28636SOL    HW287683  13.965  12.560  14.462
28637SOL     OW87684  12.628  12.788   5.006
28637SOL    HW187685  12.641  12.694   5.016
28637SOL    HW287686  12.560  12.797   4.940
28638SOL     OW87687  11.749  13.269   9.026
28638SOL    HW187688  11.773  13.177   9.020
28638SOL    HW287689  11.767  13.292   9.117
28639SOL     OW87690   1.523   0.731  13.550
28639SOL    HW187691   1.507   0.644  13.586
28639SOL    HW287692   1.449   0.784  13.582
28640SOL     OW87693  14.788   4.359   7.737
28640SOL    HW187694  14.796   4.391   7.647
28640SOL    HW287695  14.826   4.428   7.791
28641SOL     OW87696   8.771  13.275   9.675
28641SOL    HW187697   8.741  13.349   9.623
28641SOL    HW287698   8.721  13.281   9.757
28642SOL     OW87699   9.259  10.989   7.399
28642SOL    HW187700   9.246  11.084   7.402
28642SOL    HW287701   9.252  10.961   7.490
28643SOL     OW87702   5.868  14.657  14.230
28643SOL    HW187703   5.796  14.605  14.267
28643SOL    HW287704   5.855  14.652  14.135
28644SOL     OW87705  12.583   0.456  12.577
28644SOL    HW187706  12.526   0.531  12.593
28644SOL    HW287707  12.627   0.442  12.661
28645SOL     OW87708   8.677  10.753   5.363
28645SOL    HW187709   8.598  10.702   5.378
28645SOL    HW287710   8.654  10.815   5.294
28646SOL     OW87711   4.559  10.421   3.866
28646SOL    HW187712   4.529  10.485   3.801
28646SOL    HW287713   4.542  10.463   3.950
28647SOL     OW87714   0.164  11.049   1.346
28647SOL    HW187715   0.253  11.015   1.351
28647SOL    HW287716   0.129  11.038   1.434
28648SOL     OW87717  11.584  12.116  12.706
28648SOL    HW187718  11.520  12.113  12.636
28648SOL    HW287719  11.534  12.139  12.784
28649SOL     OW87720   5.271   3.670   7.270
28649SOL    HW187721   5.234   3.711   7.192
28649SOL    HW287722   5.365   3.663   7.251
28650SOL     OW87723   2.767  12.586   5.806
28650SOL    HW187724   2.729  12.508   5.847
28650SOL    HW287725   2.694  12.648   5.801
28651SOL     OW87726   9.964  14.846   4.346
28651SOL    HW187727   9.928  14.849   4.435
28651SOL    HW287728   9.911   0.026   4.296
28652SOL     OW87729  12.742  10.026   0.086
28652SOL    HW187730  12.649  10.034   0.064
28652SOL    HW287731  12.747   9.950   0.145
28653SOL     OW87732   4.551   6.766  13.245
28653SOL    HW187733   4.544   6.855  13.213
28653SOL    HW287734   4.599   6.719  13.177
28654SOL     OW87735  11.704   7.156  10.230
28654SOL    HW187736  11.647   7.101  10.176
28654SOL    HW287737  11.792   7.124  10.214
28655SOL     OW87738   9.691   5.564  12.956
28655SOL    HW187739   9.698   5.553  13.051
28655SOL    HW287740   9.687   5.658  12.943
28656SOL     OW87741   3.622   5.519  10.164
28656SOL    HW187742   3.675   5.445  10.194
28656SOL    HW287743   3.662   5.545  10.081
28657SOL     OW87744   9.464   0.030   9.112
28657SOL    HW187745   9.516   0.110   9.119
28657SOL    HW287746   9.378   0.054   9.147
28658SOL     OW87747   3.752   4.040   7.368
28658SOL    HW187748   3.762   3.979   7.440
28658SOL    HW287749   3.802   4.000   7.296
28659SOL     OW87750  13.374  12.928   1.782
28659SOL    HW187751  13.463  12.963   1.782
28659SOL    HW287752  13.336  12.961   1.863
28660SOL     OW87753   2.765   5.537   3.958
28660SOL    HW187754   2.691   5.562   3.902
28660SOL    HW287755   2.739   5.453   3.996
28661SOL     OW87756   4.252   2.680   3.814
28661SOL    HW187757   4.219   2.719   3.733
28661SOL    HW287758   4.201   2.599   3.824
28662SOL     OW87759  13.582   6.583   3.308
28662SOL    HW187760  13.624   6.637   3.242
28662SOL    HW287761  13.577   6.496   3.268
28663SOL     OW87762   4.385   5.855   2.787
28663SOL    HW187763   4.326   5.888   2.855
28663SOL    HW287764   4.327   5.810   2.725
28664SOL     OW87765   8.061   5.285   4.103
28664SOL    HW187766   8.008   5.265   4.026
28664SOL    HW287767   8.085   5.200   4.139
28665SOL     OW87768   8.933   3.705   0.706
28665SOL    HW187769   8.984   3.625   0.694
28665SOL    HW287770   8.842   3.675   0.713
28666SOL     OW87771  10.813  14.172   3.461
28666SOL    HW187772  10.737  14.116   3.445
28666SOL    HW287773  10.784  14.259   3.433
28667SOL     OW87774   6.278   0.215   4.413
28667SOL    HW187775   6.278   0.142   4.475
28667SOL    HW287776   6.190   0.214   4.375
28668SOL     OW87777   8.381   6.036   6.394
28668SOL    HW187778   8.311   6.060   6.454
28668SOL    HW287779   8.387   6.109   6.333
28669SOL     OW87780   1.005  10.848  11.972
28669SOL    HW187781   0.982  10.757  11.952
28669SOL    HW287782   1.031  10.847  12.064
28670SOL     OW87783  14.335   2.587   0.937
28670SOL    HW187784  14.410   2.529   0.951
28670SOL    HW287785  14.370   2.675   0.952
28671SOL     OW87786   4.067  10.462   1.510
28671SOL    HW187787   3.973  10.468   1.526
28671SOL    HW287788   4.079  10.377   1.469
28672SOL     OW87789   2.249   1.125  11.026
28672SOL    HW187790   2.291   1.060  10.969
28672SOL    HW287791   2.261   1.091  11.114
28673SOL     OW87792   6.803   8.972  14.430
28673SOL    HW187793   6.840   9.029  14.496
28673SOL    HW287794   6.786   9.029  14.355
28674SOL     OW87795   0.423  11.492   1.813
28674SOL    HW187796   0.458  11.453   1.894
28674SOL    HW287797   0.351  11.435   1.788
28675SOL     OW87798  11.111   8.776   5.291
28675SOL    HW187799  11.124   8.739   5.203
28675SOL    HW287800  11.174   8.848   5.296
28676SOL     OW87801   7.537   4.384  14.116
28676SOL    HW187802   7.477   4.353  14.048
28676SOL    HW287803   7.605   4.432  14.068
28677SOL     OW87804   8.732  12.576   9.776
28677SOL    HW187805   8.787  12.649   9.747
28677SOL    HW287806   8.788  12.526   9.835
28678SOL     OW87807   8.101  11.398   4.525
28678SOL    HW187808   8.046  11.322   4.504
28678SOL    HW287809   8.161  11.406   4.451
28679SOL     OW87810   5.642   4.967   6.140
28679SOL    HW187811   5.735   4.950   6.121
28679SOL    HW287812   5.595   4.924   6.069
28680SOL     OW87813   6.615  10.684   8.348
28680SOL    HW187814   6.602  10.666   8.255
28680SOL    HW287815   6.578  10.771   8.362
28681SOL     OW87816  14.028   1.378   4.480
28681SOL    HW187817  14.096   1.435   4.443
28681SOL    HW287818  14.010   1.415   4.566
28682SOL     OW87819  14.348  13.226   7.563
28682SOL    HW187820  14.324  13.277   7.485
28682SOL    HW287821  14.294  13.147   7.557
28683SOL     OW87822   1.417   3.005   2.932
28683SOL    HW187823   1.349   3.072   2.937
28683SOL    HW287824   1.496   3.049   2.964
28684SOL     OW87825   8.133  10.254   0.266
28684SOL    HW187826   8.096  10.170   0.293
28684SOL    HW287827   8.087  10.275   0.185
28685SOL     OW87828   3.130  12.639   2.690
28685SOL    HW187829   3.103  12.586   2.615
28685SOL    HW287830   3.193  12.702   2.654
28686SOL     OW87831   8.679   1.988   4.484
28686SOL    HW187832   8.743   1.938   4.433
28686SOL    HW287833   8.626   2.032   4.418
28687SOL     OW87834  13.825   1.362   0.370
28687SOL    HW187835  13.917   1.373   0.344
28687SOL    HW287836  13.787   1.449   0.360
28688SOL     OW87837  12.194  13.930   3.984
28688SOL    HW187838  12.221  13.962   4.070
28688SOL    HW287839  12.169  13.839   4.000
28689SOL     OW87840   6.879   1.694  13.438
28689SOL    HW187841   6.880   1.600  13.421
28689SOL    HW287842   6.941   1.730  13.375
28690SOL     OW87843  12.445  11.173   6.038
28690SOL    HW187844  12.436  11.231   5.962
28690SOL    HW287845  12.369  11.114   6.032
28691SOL     OW87846   7.727  11.817   8.652
28691SOL    HW187847   7.794  11.864   8.701
28691SOL    HW287848   7.707  11.741   8.706
28692SOL     OW87849   8.804   5.224   4.523
28692SOL    HW187850   8.870   5.161   4.551
28692SOL    HW287851   8.795   5.210   4.429
28693SOL     OW87852  13.957   2.846   5.513
28693SOL    HW187853  14.030   2.784   5.520
28693SOL    HW287854  13.955   2.891   5.598
28694SOL     OW87855  13.177   1.369   2.383
28694SOL    HW187856  13.172   1.422   2.463
28694SOL    HW287857  13.211   1.284   2.414
28695SOL     OW87858   8.667  13.980  10.379
28695SOL    HW187859   8.634  14.006  10.293
28695SOL    HW287860   8.626  14.043  10.439
28696SOL     OW87861   7.435   6.089   5.630
28696SOL    HW187862   7.432   6.144   5.552
28696SOL    HW287863   7.528   6.084   5.652
28697SOL     OW87864   1.138  12.211   6.402
28697SOL    HW187865   1.191  12.132   6.406
28697SOL    HW287866   1.186  12.276   6.453
28698SOL     OW87867  11.582   0.382   9.021
28698SOL    HW187868  11.629   0.300   9.035
28698SOL    HW287869  11.639   0.433   8.963
28699SOL     OW87870   6.922   1.472   1.830
28699SOL    HW187871   6.957   1.529   1.762
28699SOL    HW287872   6.875   1.403   1.783
28700SOL     OW87873  12.024  11.636  10.385
28700SOL    HW187874  11.979  11.643  10.300
28700SOL    HW287875  12.014  11.722  10.425
28701SOL     OW87876   6.930  10.135  14.125
28701SOL    HW187877   6.841  10.145  14.160
28701SOL    HW287878   6.977  10.212  14.156
28702SOL     OW87879   2.270  14.438   3.150
28702SOL    HW187880   2.180  14.450   3.119
28702SOL    HW287881   2.266  14.457   3.243
28703SOL     OW87882   3.259   8.843   9.442
28703SOL    HW187883   3.236   8.931   9.472
28703SOL    HW287884   3.210   8.784   9.499
28704SOL     OW87885  11.757  10.083  14.421
28704SOL    HW187886  11.698  10.013  14.396
28704SOL    HW287887  11.711  10.131  14.490
28705SOL     OW87888  11.361   0.482   6.128
28705SOL    HW187889  11.294   0.422   6.160
28705SOL    HW287890  11.402   0.517   6.208
28706SOL     OW87891   4.240   6.758   2.041
28706SOL    HW187892   4.241   6.707   1.960
28706SOL    HW287893   4.147   6.764   2.064
28707SOL     OW87894  10.832   4.763  13.002
28707SOL    HW187895  10.914   4.754  13.051
28707SOL    HW287896  10.845   4.712  12.922
28708SOL     OW87897   6.949   9.071   6.561
28708SOL    HW187898   6.912   9.029   6.638
28708SOL    HW287899   7.029   9.023   6.544
28709SOL     OW87900  10.679   6.565  12.474
28709SOL    HW187901  10.706   6.540  12.385
28709SOL    HW287902  10.604   6.509  12.493
28710SOL     OW87903  12.221   8.421  11.293
28710SOL    HW187904  12.314   8.400  11.286
28710SOL    HW287905  12.217   8.484  11.365
28711SOL     OW87906  14.188  14.347   9.110
28711SOL    HW187907  14.137  14.268   9.127
28711SOL    HW287908  14.150  14.383   9.030
28712SOL     OW87909  14.422  11.348   5.623
28712SOL    HW187910  14.514  11.363   5.647
28712SOL    HW287911  14.378  11.429   5.645
28713SOL     OW87912  11.337   0.137   7.249
28713SOL    HW187913  11.338   0.047   7.217
28713SOL    HW287914  11.429   0.160   7.262
28714SOL     OW87915   9.117  11.255  12.231
28714SOL    HW187916   9.097  11.171  12.188
28714SOL    HW287917   9.047  11.265  12.296
28715SOL     OW87918   9.515  11.287   2.894
28715SOL    HW187919   9.457  11.334   2.834
28715SOL    HW287920   9.486  11.313   2.981
28716SOL     OW87921   4.217   9.167   1.502
28716SOL    HW187922   4.158   9.237   1.530
28716SOL    HW287923   4.221   9.177   1.407
28717SOL     OW87924   7.135   4.423   1.195
28717SOL    HW187925   7.110   4.420   1.288
28717SOL    HW287926   7.228   4.403   1.195
28718SOL     OW87927   9.607  13.365   3.565
28718SOL    HW187928   9.516  13.344   3.584
28718SOL    HW287929   9.608  13.461   3.555
28719SOL     OW87930   9.203  12.397   6.029
28719SOL    HW187931   9.257  12.474   6.012
28719SOL    HW287932   9.161  12.415   6.113
28720SOL     OW87933   9.521   0.978   0.207
28720SOL    HW187934   9.582   0.982   0.280
28720SOL    HW287935   9.545   0.899   0.160
28721SOL     OW87936   7.316   1.210   7.598
28721SOL    HW187937   7.299   1.301   7.572
28721SOL    HW287938   7.362   1.172   7.523
28722SOL     OW87939   7.734  13.569   2.188
28722SOL    HW187940   7.801  13.637   2.182
28722SOL    HW287941   7.725  13.552   2.282
28723SOL     OW87942   0.911   8.787  14.215
28723SOL    HW187943   0.919   8.703  14.170
28723SOL    HW287944   0.920   8.853  14.146
28724SOL     OW87945   5.880   0.800   4.475
28724SOL    HW187946   5.849   0.885   4.506
28724SOL    HW287947   5.939   0.769   4.544
28725SOL     OW87948   3.325  12.232   6.381
28725SOL    HW187949   3.337  12.325   6.363
28725SOL    HW287950   3.235  12.213   6.351
28726SOL     OW87951   3.980   0.383  10.238
28726SOL    HW187952   4.065   0.366  10.279
28726SOL    HW287953   3.921   0.400  10.311
28727SOL     OW87954  13.808   6.338  12.834
28727SOL    HW187955  13.886   6.341  12.889
28727SOL    HW287956  13.787   6.429  12.816
28728SOL     OW87957   6.025   5.161   5.399
28728SOL    HW187958   6.066   5.242   5.369
28728SOL    HW287959   6.002   5.178   5.491
28729SOL     OW87960   7.923  10.456   8.205
28729SOL    HW187961   7.939  10.370   8.242
28729SOL    HW287962   7.852  10.493   8.257
28730SOL     OW87963   6.310  14.873   8.334
28730SOL    HW187964   6.319   0.031   8.247
28730SOL    HW287965   6.215  14.869   8.348
28731SOL     OW87966  14.236   2.595   4.106
28731SOL    HW187967  14.157   2.547   4.133
28731SOL    HW287968  14.245   2.575   4.013
28732SOL     OW87969   2.621   5.110   6.002
28732SOL    HW187970   2.649   5.087   6.090
28732SOL    HW287971   2.526   5.107   6.004
28733SOL     OW87972   5.403  13.887   7.525
28733SOL    HW187973   5.404  13.800   7.484
28733SOL    HW287974   5.311  13.904   7.544
28734SOL     OW87975   4.390  10.911   3.931
28734SOL    HW187976   4.474  10.922   3.887
28734SOL    HW287977   4.325  10.929   3.863
28735SOL     OW87978   1.778   3.970   0.504
28735SOL    HW187979   1.797   3.990   0.413
28735SOL    HW287980   1.843   3.904   0.529
28736SOL     OW87981   8.668   8.593   7.080
28736SOL    HW187982   8.662   8.660   7.148
28736SOL    HW287983   8.582   8.595   7.037
28737SOL     OW87984  14.157   7.355   3.823
28737SOL    HW187985  14.102   7.351   3.902
28737SOL    HW287986  14.132   7.436   3.780
28738SOL     OW87987   0.481  10.713  10.626
28738SOL    HW187988   0.450  10.647  10.563
28738SOL    HW287989   0.572  10.729  10.601
28739SOL     OW87990   7.548  13.219   4.903
28739SOL    HW187991   7.635  13.259   4.898
28739SOL    HW287992   7.494  13.284   4.949
28740SOL     OW87993  14.436   5.482   6.669
28740SOL    HW187994  14.424   5.576   6.658
28740SOL    HW287995  14.354   5.451   6.708
28741SOL     OW87996   3.841   0.597  10.102
28741SOL    HW187997   3.815   0.567  10.015
28741SOL    HW287998   3.897   0.526  10.135
28742SOL     OW87999   9.888   9.673  12.456
28742SOL    HW188000   9.969   9.661  12.506
28742SOL    HW288001   9.819   9.667  12.522
28743SOL     OW88002   0.372   8.253   1.378
28743SOL    HW188003   0.295   8.303   1.404
28743SOL    HW288004   0.411   8.305   1.307
28744SOL     OW88005   4.626   5.784   6.950
28744SOL    HW188006   4.654   5.737   7.028
28744SOL    HW288007   4.593   5.868   6.983
28745SOL     OW88008   1.000   7.754   6.749
28745SOL    HW188009   1.022   7.847   6.745
28745SOL    HW288010   1.071   7.714   6.799
28746SOL     OW88011  13.314   5.766   8.294
28746SOL    HW188012  13.373   5.839   8.311
28746SOL    HW288013  13.311   5.717   8.377
28747SOL     OW88014   2.885   5.529   5.996
28747SOL    HW188015   2.835   5.595   5.947
28747SOL    HW288016   2.849   5.445   5.967
28748SOL     OW88017   4.575  13.151   3.223
28748SOL    HW188018   4.664  13.168   3.254
28748SOL    HW288019   4.547  13.234   3.184
28749SOL     OW88020   9.983   4.756   9.660
28749SOL    HW188021   9.995   4.665   9.684
28749SOL    HW288022   9.992   4.804   9.743
28750SOL     OW88023   5.776   2.764   6.271
28750SOL    HW188024   5.773   2.774   6.176
28750SOL    HW288025   5.688   2.787   6.301
28751SOL     OW88026  10.408  13.266   3.005
28751SOL    HW188027  10.330  13.311   2.973
28751SOL    HW288028  10.425  13.306   3.091
28752SOL     OW88029  13.033   3.399   5.285
28752SOL    HW188030  13.048   3.395   5.190
28752SOL    HW288031  13.110   3.443   5.320
28753SOL     OW88032   5.962  12.013   2.400
28753SOL    HW188033   5.941  12.021   2.493
28753SOL    HW288034   5.954  11.920   2.381
28754SOL     OW88035   4.452   8.438   4.803
28754SOL    HW188036   4.445   8.392   4.887
28754SOL    HW288037   4.504   8.516   4.822
28755SOL     OW88038  11.635  13.947  14.267
28755SOL    HW188039  11.578  13.873  14.250
28755SOL    HW288040  11.724  13.911  14.260
28756SOL     OW88041   1.072  10.317  13.821
28756SOL    HW188042   1.151  10.287  13.776
28756SOL    HW288043   1.050  10.400  13.778
28757SOL     OW88044  14.058   3.460   5.619
28757SOL    HW188045  14.130   3.397   5.609
28757SOL    HW288046  13.985   3.423   5.570
28758SOL     OW88047  11.345   5.122  12.435
28758SOL    HW188048  11.360   5.030  12.459
28758SOL    HW288049  11.377   5.129  12.345
28759SOL     OW88050   2.792   6.578   9.169
28759SOL    HW188051   2.713   6.581   9.223
28759SOL    HW288052   2.762   6.600   9.081
28760SOL     OW88053   1.296  13.264   5.914
28760SOL    HW188054   1.250  13.319   5.850
28760SOL    HW288055   1.386  13.262   5.883
28761SOL     OW88056   2.219  11.668   8.787
28761SOL    HW188057   2.239  11.595   8.846
28761SOL    HW288058   2.269  11.649   8.708
28762SOL     OW88059  12.927  11.288   2.177
28762SOL    HW188060  12.891  11.221   2.118
28762SOL    HW288061  12.999  11.245   2.222
28763SOL     OW88062   8.336  13.128  12.433
28763SOL    HW188063   8.241  13.116  12.432
28763SOL    HW288064   8.350  13.202  12.492
28764SOL     OW88065   5.817  11.715   6.172
28764SOL    HW188066   5.816  11.773   6.096
28764SOL    HW288067   5.774  11.765   6.241
28765SOL     OW88068   9.366   9.619   4.749
28765SOL    HW188069   9.316   9.636   4.829
28765SOL    HW288070   9.446   9.576   4.780
28766SOL     OW88071   0.912   4.505  14.399
28766SOL    HW188072   0.884   4.589  14.364
28766SOL    HW288073   1.006   4.514  14.412
28767SOL     OW88074   5.061  12.144   0.666
28767SOL    HW188075   5.055  12.237   0.689
28767SOL    HW288076   5.126  12.141   0.595
28768SOL     OW88077   7.416   5.839   1.813
28768SOL    HW188078   7.332   5.841   1.860
28768SOL    HW288079   7.480   5.812   1.879
28769SOL     OW88080   8.557   9.816   2.538
28769SOL    HW188081   8.555   9.874   2.614
28769SOL    HW288082   8.645   9.778   2.539
28770SOL     OW88083   1.032   5.121   9.946
28770SOL    HW188084   1.031   5.037   9.993
28770SOL    HW288085   0.988   5.182  10.005
28771SOL     OW88086   4.767   7.554   9.925
28771SOL    HW188087   4.700   7.494   9.891
28771SOL    HW288088   4.841   7.497   9.947
28772SOL     OW88089  13.376   4.522  10.177
28772SOL    HW188090  13.395   4.520  10.083
28772SOL    HW288091  13.324   4.602  10.189
28773SOL     OW88092   9.833  10.114  10.243
28773SOL    HW188093   9.926  10.136  10.238
28773SOL    HW288094   9.832  10.028  10.287
28774SOL     OW88095   8.922   3.452   6.956
28774SOL    HW188096   8.966   3.413   6.880
28774SOL    HW288097   8.879   3.378   6.999
28775SOL     OW88098   9.046   2.845  13.430
28775SOL    HW188099   9.010   2.929  13.460
28775SOL    HW288100   8.971   2.786  13.433
28776SOL     OW88101  13.367  12.581  12.842
28776SOL    HW188102  13.280  12.554  12.813
28776SOL    HW288103  13.351  12.635  12.919
28777SOL     OW88104   0.108  11.260  10.362
28777SOL    HW188105   0.034  11.276  10.420
28777SOL    HW288106   0.091  11.314  10.285
28778SOL     OW88107  12.990  10.065  14.724
28778SOL    HW188108  12.964  10.149  14.686
28778SOL    HW288109  12.968  10.074  14.817
28779SOL     OW88110  11.271   9.799   2.320
28779SOL    HW188111  11.215   9.732   2.280
28779SOL    HW288112  11.218   9.832   2.393
28780SOL     OW88113  12.774  12.384   9.068
28780SOL    HW188114  12.848  12.440   9.092
28780SOL    HW288115  12.806  12.332   8.995
28781SOL     OW88116   0.493   6.251   2.630
28781SOL    HW188117   0.528   6.179   2.684
28781SOL    HW288118   0.417   6.213   2.586
28782SOL     OW88119   0.943   0.226   3.317
28782SOL    HW188120   1.014   0.290   3.306
28782SOL    HW288121   0.923   0.197   3.228
28783SOL     OW88122  14.012   4.886  10.362
28783SOL    HW188123  14.102   4.877  10.395
28783SOL    HW288124  13.965   4.812  10.402
28784SOL     OW88125   4.183   8.833  13.460
28784SOL    HW188126   4.263   8.882  13.442
28784SOL    HW288127   4.132   8.841  13.379
28785SOL     OW88128  13.510   3.834  13.173
28785SOL    HW188129  13.478   3.814  13.085
28785SOL    HW288130  13.473   3.920  13.194
28786SOL     OW88131   0.562   6.615   3.856
28786SOL    HW188132   0.629   6.668   3.900
28786SOL    HW288133   0.603   6.530   3.844
28787SOL     OW88134  12.199  12.880   3.853
28787SOL    HW188135  12.112  12.901   3.820
28787SOL    HW288136  12.247  12.963   3.851
28788SOL     OW88137   0.242  12.880   2.614
28788SOL    HW188138   0.155  12.861   2.577
28788SOL    HW288139   0.301  12.822   2.566
28789SOL     OW88140   1.211   8.044   7.455
28789SOL    HW188141   1.186   8.071   7.543
28789SOL    HW288142   1.158   7.965   7.439
28790SOL     OW88143   9.047   7.152   1.399
28790SOL    HW188144   9.016   7.174   1.486
28790SOL    HW288145   9.111   7.221   1.378
28791SOL     OW88146   5.609   8.231   2.141
28791SOL    HW188147   5.579   8.181   2.065
28791SOL    HW288148   5.691   8.271   2.114
28792SOL     OW88149  13.386  10.245  10.651
28792SOL    HW188150  13.354  10.155  10.660
28792SOL    HW288151  13.420  10.249  10.561
28793SOL     OW88152  12.824   2.319   6.888
28793SOL    HW188153  12.767   2.263   6.835
28793SOL    HW288154  12.882   2.361   6.824
28794SOL     OW88155   7.607   9.713   8.221
28794SOL    HW188156   7.624   9.775   8.292
28794SOL    HW288157   7.604   9.766   8.142
28795SOL     OW88158   8.357  10.254  13.521
28795SOL    HW188159   8.358  10.263  13.426
28795SOL    HW288160   8.400  10.334  13.553
28796SOL     OW88161   3.433  11.060   8.502
28796SOL    HW188162   3.481  11.081   8.421
28796SOL    HW288163   3.500  11.028   8.562
28797SOL     OW88164   4.718   8.199  12.576
28797SOL    HW188165   4.804   8.237  12.557
28797SOL    HW288166   4.675   8.264  12.632
28798SOL     OW88167   1.044   7.741  11.015
28798SOL    HW188168   1.001   7.658  10.993
28798SOL    HW288169   1.119   7.745  10.956
28799SOL     OW88170   8.784   3.918   6.515
28799SOL    HW188171   8.722   3.991   6.515
28799SOL    HW288172   8.734   3.844   6.548
28800SOL     OW88173   7.988   7.156   7.096
28800SOL    HW188174   7.914   7.163   7.156
28800SOL    HW288175   8.054   7.107   7.146
28801SOL     OW88176   7.740  13.392   8.568
28801SOL    HW188177   7.834  13.380   8.551
28801SOL    HW288178   7.729  13.487   8.576
28802SOL     OW88179   7.712  12.677  10.810
28802SOL    HW188180   7.638  12.687  10.871
28802SOL    HW288181   7.720  12.763  10.769
28803SOL     OW88182   3.384   2.861   3.921
28803SOL    HW188183   3.312   2.816   3.877
28803SOL    HW288184   3.366   2.850   4.015
28804SOL     OW88185  13.839  11.635   2.884
28804SOL    HW188186  13.914  11.577   2.875
28804SOL    HW288187  13.783  11.612   2.809
28805SOL     OW88188   1.795  14.628   7.919
28805SOL    HW188189   1.828  14.718   7.919
28805SOL    HW288190   1.827  14.590   7.837
28806SOL     OW88191   3.803   1.612   4.188
28806SOL    HW188192   3.819   1.593   4.281
28806SOL    HW288193   3.712   1.589   4.174
28807SOL     OW88194  11.538   7.672   1.955
28807SOL    HW188195  11.564   7.655   1.864
28807SOL    HW288196  11.620   7.676   2.003
28808SOL     OW88197   7.781  10.991   9.782
28808SOL    HW188198   7.761  11.083   9.800
28808SOL    HW288199   7.736  10.943   9.852
28809SOL     OW88200  10.919  12.824   8.674
28809SOL    HW188201  10.993  12.850   8.618
28809SOL    HW288202  10.912  12.729   8.662
28810SOL     OW88203   2.894   7.824  11.907
28810SOL    HW188204   2.920   7.750  11.961
28810SOL    HW288205   2.957   7.893  11.929
28811SOL     OW88206   8.732   7.880   3.448
28811SOL    HW188207   8.668   7.816   3.480
28811SOL    HW288208   8.791   7.829   3.392
28812SOL     OW88209  10.633   6.072  13.447
28812SOL    HW188210  10.727   6.056  13.441
28812SOL    HW288211  10.615   6.138  13.380
28813SOL     OW88212  12.608   5.161  12.074
28813SOL    HW188213  12.662   5.235  12.046
28813SOL    HW288214  12.667   5.086  12.069
28814SOL     OW88215   6.870  11.041   8.145
28814SOL    HW188216   6.811  11.110   8.175
28814SOL    HW288217   6.957  11.080   8.148
28815SOL     OW88218  12.419   8.532  12.062
28815SOL    HW188219  12.362   8.594  12.108
28815SOL    HW288220  12.461   8.585  11.994
28816SOL     OW88221   1.378  13.133  11.386
28816SOL    HW188222   1.366  13.145  11.292
28816SOL    HW288223   1.391  13.221  11.420
28817SOL     OW88224   3.380  10.565  10.704
28817SOL    HW188225   3.392  10.558  10.609
28817SOL    HW288226   3.461  10.605  10.736
28818SOL     OW88227   4.013   4.433  14.076
28818SOL    HW188228   4.080   4.374  14.043
28818SOL    HW288229   3.967   4.463  13.998
28819SOL     OW88230  11.064   0.319  13.109
28819SOL    HW188231  11.154   0.334  13.138
28819SOL    HW288232  11.070   0.316  13.014
28820SOL     OW88233   8.310  11.656  10.666
28820SOL    HW188234   8.228  11.646  10.619
28820SOL    HW288235   8.334  11.567  10.692
28821SOL     OW88236   2.515   5.472   7.752
28821SOL    HW188237   2.561   5.541   7.800
28821SOL    HW288238   2.569   5.456   7.675
28822SOL     OW88239  13.851   0.342  14.389
28822SOL    HW188240  13.893   0.416  14.432
28822SOL    HW288241  13.850   0.273  14.455
28823SOL     OW88242   6.371  14.876  14.746
28823SOL    HW188243   6.374  14.830  14.830
28823SOL    HW288244   6.300   0.057  14.755
28824SOL     OW88245   0.624   3.488  14.670
28824SOL    HW188246   0.671   3.527  14.743
28824SOL    HW288247   0.683   3.420  14.636
28825SOL     OW88248   5.900  13.300  13.469
28825SOL    HW188249   5.837  13.356  13.424
28825SOL    HW288250   5.947  13.255  13.398
28826SOL     OW88251   4.067  10.799   7.546
28826SOL    HW188252   4.002  10.731   7.566
28826SOL    HW288253   4.111  10.767   7.467
28827SOL     OW88254   3.348   1.392  13.033
28827SOL    HW188255   3.355   1.476  13.077
28827SOL    HW288256   3.256   1.367  13.045
28828SOL     OW88257  13.689   7.167   9.594
28828SOL    HW188258  13.627   7.141   9.526
28828SOL    HW288259  13.757   7.215   9.546
28829SOL     OW88260   4.684  14.751   3.329
28829SOL    HW188261   4.752  14.761   3.396
28829SOL    HW288262   4.683  14.835   3.284
28830SOL     OW88263   4.141   7.375   5.322
28830SOL    HW188264   4.200   7.321   5.375
28830SOL    HW288265   4.174   7.365   5.232
28831SOL     OW88266  13.638   0.661  11.448
28831SOL    HW188267  13.690   0.627  11.375
28831SOL    HW288268  13.651   0.597  11.518
28832SOL     OW88269   3.947   0.279   0.614
28832SOL    HW188270   3.929   0.373   0.608
28832SOL    HW288271   3.983   0.268   0.702
28833SOL     OW88272   8.199  11.639   7.463
28833SOL    HW188273   8.287  11.655   7.427
28833SOL    HW288274   8.178  11.550   7.433
28834SOL     OW88275   9.249   5.514  12.390
28834SOL    HW188276   9.275   5.475  12.307
28834SOL    HW288277   9.194   5.589  12.365
28835SOL     OW88278  14.070   7.958  10.994
28835SOL    HW188279  14.152   7.969  11.041
28835SOL    HW288280  14.003   7.992  11.054
28836SOL     OW88281   1.631  11.261   4.937
28836SOL    HW188282   1.599  11.233   5.023
28836SOL    HW288283   1.718  11.297   4.955
28837SOL     OW88284  12.402   7.942   9.656
28837SOL    HW188285  12.370   8.033   9.657
28837SOL    HW288286  12.497   7.950   9.652
28838SOL     OW88287  13.949   1.960   0.883
28838SOL    HW188288  13.870   1.933   0.837
28838SOL    HW288289  13.923   1.966   0.975
28839SOL     OW88290   7.894  11.244   1.440
28839SOL    HW188291   7.935  11.330   1.435
28839SOL    HW288292   7.857  11.229   1.353
28840SOL     OW88293   2.598   2.713   1.632
28840SOL    HW188294   2.570   2.804   1.628
28840SOL    HW288295   2.526   2.666   1.675
28841SOL     OW88296  11.942   2.813   2.771
28841SOL    HW188297  11.899   2.888   2.813
28841SOL    HW288298  11.883   2.789   2.700
28842SOL     OW88299  13.470  11.017   7.496
28842SOL    HW188300  13.401  10.984   7.437
28842SOL    HW288301  13.477  11.110   7.474
28843SOL     OW88302   7.514  10.292   2.992
28843SOL    HW188303   7.525  10.325   3.081
28843SOL    HW288304   7.422  10.268   2.987
28844SOL     OW88305   9.834  13.852   2.654
28844SOL    HW188306   9.751  13.894   2.678
28844SOL    HW288307   9.899  13.923   2.660
28845SOL     OW88308   1.355   2.094   3.733
28845SOL    HW188309   1.296   2.164   3.761
28845SOL    HW288310   1.336   2.022   3.793
28846SOL     OW88311   1.058   6.118   7.384
28846SOL    HW188312   1.002   6.045   7.356
28846SOL    HW288313   1.137   6.076   7.417
28847SOL     OW88314   9.430   8.564   3.418
28847SOL    HW188315   9.475   8.538   3.338
28847SOL    HW288316   9.343   8.523   3.412
28848SOL     OW88317   1.795  13.446  10.673
28848SOL    HW188318   1.717  13.434  10.727
28848SOL    HW288319   1.858  13.490  10.730
28849SOL     OW88320   2.873   2.611   8.800
28849SOL    HW188321   2.786   2.571   8.810
28849SOL    HW288322   2.931   2.555   8.852
28850SOL     OW88323   5.456   3.678  13.743
28850SOL    HW188324   5.542   3.650  13.711
28850SOL    HW288325   5.409   3.705  13.664
28851SOL     OW88326   1.836   5.612  14.205
28851SOL    HW188327   1.743   5.637  14.207
28851SOL    HW288328   1.862   5.624  14.114
28852SOL     OW88329  10.441   9.402   1.036
28852SOL    HW188330  10.402   9.332   1.089
28852SOL    HW288331  10.395   9.397   0.953
28853SOL     OW88332  13.536  13.243   3.188
28853SOL    HW188333  13.459  13.189   3.204
28853SOL    HW288334  13.580  13.248   3.273
28854SOL     OW88335   0.014  13.141   2.434
28854SOL    HW188336   0.036  13.175   2.520
28854SOL    HW288337  14.806  13.173   2.417
28855SOL     OW88338   0.451   1.306  14.862
28855SOL    HW188339   0.400   1.232   0.011
28855SOL    HW288340   0.411   1.330  14.778
28856SOL     OW88341   8.709  10.388   8.833
28856SOL    HW188342   8.792  10.381   8.880
28856SOL    HW288343   8.731  10.435   8.752
28857SOL     OW88344   4.412  12.584   7.768
28857SOL    HW188345   4.364  12.644   7.826
28857SOL    HW288346   4.368  12.592   7.684
28858SOL     OW88347  10.913  14.588  11.997
28858SOL    HW188348  10.916  14.683  11.989
28858SOL    HW288349  10.851  14.571  12.068
28859SOL     OW88350  12.969   2.537  14.702
28859SOL    HW188351  12.882   2.518  14.667
28859SOL    HW288352  12.973   2.633  14.703
28860SOL     OW88353  10.915  12.676   5.455
28860SOL    HW188354  11.005  12.655   5.429
28860SOL    HW288355  10.922  12.703   5.547
28861SOL     OW88356   0.498   0.965   0.514
28861SOL    HW188357   0.586   0.966   0.475
28861SOL    HW288358   0.439   0.960   0.438
28862SOL     OW88359   6.165   0.990   8.727
28862SOL    HW188360   6.094   0.927   8.741
28862SOL    HW288361   6.233   0.939   8.684
28863SOL     OW88362   5.763  11.147   5.342
28863SOL    HW188363   5.698  11.081   5.368
28863SOL    HW288364   5.731  11.229   5.380
28864SOL     OW88365   8.658   4.125   5.297
28864SOL    HW188366   8.606   4.070   5.239
28864SOL    HW288367   8.749   4.105   5.274
28865SOL     OW88368   3.697   4.569  13.656
28865SOL    HW188369   3.737   4.592  13.572
28865SOL    HW288370   3.686   4.652  13.701
28866SOL     OW88371   0.864   3.166   1.606
28866SOL    HW188372   0.809   3.198   1.678
28866SOL    HW288373   0.919   3.099   1.646
28867SOL     OW88374   3.858   0.016   9.565
28867SOL    HW188375   3.878   0.098   9.608
28867SOL    HW288376   3.834  14.838   9.636
28868SOL     OW88377  11.691  10.634  11.808
28868SOL    HW188378  11.708  10.725  11.781
28868SOL    HW288379  11.723  10.581  11.735
28869SOL     OW88380   3.050  11.918  14.423
28869SOL    HW188381   3.139  11.894  14.448
28869SOL    HW288382   3.061  11.978  14.350
28870SOL     OW88383   0.099   6.992  14.581
28870SOL    HW188384   0.139   6.923  14.633
28870SOL    HW288385   0.170   7.025  14.526
28871SOL     OW88386  14.638   9.428   1.126
28871SOL    HW188387  14.544   9.440   1.139
28871SOL    HW288388  14.645   9.387   1.040
28872SOL     OW88389  12.997  14.379  10.176
28872SOL    HW188390  12.994  14.374  10.080
28872SOL    HW288391  13.080  14.424  10.194
28873SOL     OW88392   3.578  10.288  13.447
28873SOL    HW188393   3.504  10.296  13.387
28873SOL    HW288394   3.550  10.225  13.513
28874SOL     OW88395   3.252   1.175  13.760
28874SOL    HW188396   3.241   1.251  13.817
28874SOL    HW288397   3.310   1.206  13.690
28875SOL     OW88398   3.618   4.972   3.749
28875SOL    HW188399   3.634   4.985   3.655
28875SOL    HW288400   3.705   4.959   3.787
28876SOL     OW88401   8.964  14.487   2.171
28876SOL    HW188402   9.027  14.544   2.127
28876SOL    HW288403   8.920  14.442   2.100
28877SOL     OW88404   9.940  14.195  10.381
28877SOL    HW188405  10.003  14.231  10.319
28877SOL    HW288406   9.854  14.224  10.349
28878SOL     OW88407  13.055  13.266   5.579
28878SOL    HW188408  13.146  13.284   5.556
28878SOL    HW288409  13.055  13.261   5.674
28879SOL     OW88410  12.968  12.928  12.990
28879SOL    HW188411  12.882  12.970  12.993
28879SOL    HW288412  13.021  12.976  13.054
28880SOL     OW88413   1.560   4.619   0.921
28880SOL    HW188414   1.501   4.610   0.846
28880SOL    HW288415   1.628   4.679   0.891
28881SOL     OW88416   4.704  12.791  11.190
28881SOL    HW188417   4.682  12.778  11.282
28881SOL    HW288418   4.620  12.786  11.144
28882SOL     OW88419   3.255  11.787   0.002
28882SOL    HW188420   3.214  11.860   0.050
28882SOL    HW288421   3.339  11.822  14.855
28883SOL     OW88422   3.971   5.408   4.822
28883SOL    HW188423   3.894   5.352   4.834
28883SOL    HW288424   4.038   5.367   4.876
28884SOL     OW88425   6.959   9.941   0.206
28884SOL    HW188426   6.892   9.988   0.157
28884SOL    HW288427   6.943   9.849   0.186
28885SOL     OW88428   7.729  14.843   3.168
28885SOL    HW188429   7.742  14.846   3.262
28885SOL    HW288430   7.780  14.768   3.138
28886SOL     OW88431  11.450   1.700   3.477
28886SOL    HW188432  11.374   1.741   3.519
28886SOL    HW288433  11.504   1.669   3.550
28887SOL     OW88434  13.666   0.340  13.988
28887SOL    HW188435  13.740   0.291  14.024
28887SOL    HW288436  13.701   0.427  13.971
28888SOL     OW88437   1.163  10.697   0.499
28888SOL    HW188438   1.099  10.662   0.562
28888SOL    HW288439   1.143  10.791   0.495
28889SOL     OW88440  11.589  11.620   6.948
28889SOL    HW188441  11.614  11.531   6.925
28889SOL    HW288442  11.647  11.644   7.020
28890SOL     OW88443  11.076   8.038  10.397
28890SOL    HW188444  11.115   8.124  10.378
28890SOL    HW288445  11.003   8.030  10.335
28891SOL     OW88446  12.641  14.833   0.371
28891SOL    HW188447  12.677   0.036   0.345
28891SOL    HW288448  12.546  14.843   0.363
28892SOL     OW88449  11.732   5.166  10.510
28892SOL    HW188450  11.738   5.161  10.606
28892SOL    HW288451  11.681   5.089  10.485
28893SOL     OW88452  13.175  12.400   5.884
28893SOL    HW188453  13.118  12.381   5.958
28893SOL    HW288454  13.244  12.456   5.920
28894SOL     OW88455   5.377   6.427   4.060
28894SOL    HW188456   5.355   6.520   4.065
28894SOL    HW288457   5.318   6.392   3.993
28895SOL     OW88458   7.864   8.492  13.630
28895SOL    HW188459   7.868   8.427  13.700
28895SOL    HW288460   7.774   8.489  13.599
28896SOL     OW88461  13.977   5.014   0.863
28896SOL    HW188462  14.067   5.037   0.886
28896SOL    HW288463  13.924   5.079   0.908
28897SOL     OW88464  10.949  12.447   1.984
28897SOL    HW188465  11.013  12.458   2.055
28897SOL    HW288466  10.908  12.533   1.976
28898SOL     OW88467   3.923  12.019   9.397
28898SOL    HW188468   3.838  11.985   9.426
28898SOL    HW288469   3.981  12.005   9.472
28899SOL     OW88470  12.777   3.502  12.921
28899SOL    HW188471  12.818   3.578  12.881
28899SOL    HW288472  12.815   3.427  12.876
28900SOL     OW88473   4.197  13.315  13.500
28900SOL    HW188474   4.281  13.342  13.463
28900SOL    HW288475   4.137  13.314  13.425
28901SOL     OW88476  14.569   2.495   8.257
28901SOL    HW188477  14.592   2.526   8.344
28901SOL    HW288478  14.540   2.405   8.270
28902SOL     OW88479  14.390   8.193   2.897
28902SOL    HW188480  14.454   8.154   2.839
28902SOL    HW288481  14.406   8.287   2.892
28903SOL     OW88482   2.360  14.082   0.804
28903SOL    HW188483   2.398  14.160   0.847
28903SOL    HW288484   2.268  14.104   0.792
28904SOL     OW88485   7.684   4.209   9.064
28904SOL    HW188486   7.697   4.252   9.149
28904SOL    HW288487   7.772   4.202   9.027
28905SOL     OW88488   8.701   4.702   7.550
28905SOL    HW188489   8.616   4.660   7.540
28905SOL    HW288490   8.757   4.658   7.485
28906SOL     OW88491  14.485   9.565   6.914
28906SOL    HW188492  14.459   9.656   6.925
28906SOL    HW288493  14.420   9.529   6.854
28907SOL     OW88494   7.507   0.841  12.067
28907SOL    HW188495   7.468   0.928  12.073
28907SOL    HW288496   7.601   0.856  12.080
28908SOL     OW88497  11.518  11.167  11.959
28908SOL    HW188498  11.550  11.164  11.869
28908SOL    HW288499  11.557  11.090  12.001
28909SOL     OW88500   8.825  13.493   5.294
28909SOL    HW188501   8.783  13.452   5.218
28909SOL    HW288502   8.904  13.534   5.258
28910SOL     OW88503   4.909   4.842  10.572
28910SOL    HW188504   4.949   4.794  10.644
28910SOL    HW288505   4.972   4.834  10.500
28911SOL     OW88506  10.554   6.200   4.310
28911SOL    HW188507  10.599   6.194   4.225
28911SOL    HW288508  10.573   6.289   4.340
28912SOL     OW88509   0.878   2.855   9.777
28912SOL    HW188510   0.893   2.867   9.870
28912SOL    HW288511   0.915   2.768   9.758
28913SOL     OW88512  11.394  13.584   6.843
28913SOL    HW188513  11.468  13.574   6.783
28913SOL    HW288514  11.408  13.669   6.885
28914SOL     OW88515   7.647  11.925  14.663
28914SOL    HW188516   7.613  11.880  14.585
28914SOL    HW288517   7.664  11.855  14.726
28915SOL     OW88518   1.220   5.732  14.808
28915SOL    HW188519   1.124   5.728  14.801
28915SOL    HW288520   1.252   5.688  14.729
28916SOL     OW88521   5.053   2.760  10.463
28916SOL    HW188522   5.093   2.674  10.478
28916SOL    HW288523   5.060   2.773  10.369
28917SOL     OW88524   1.775   9.088  14.615
28917SOL    HW188525   1.805   8.997  14.610
28917SOL    HW288526   1.688   9.086  14.576
28918SOL     OW88527   3.210   3.738  10.809
28918SOL    HW188528   3.262   3.817  10.798
28918SOL    HW288529   3.272   3.666  10.793
28919SOL     OW88530   5.157   5.167   3.740
28919SOL    HW188531   5.178   5.259   3.733
28919SOL    HW288532   5.131   5.141   3.652
28920SOL     OW88533   7.374  14.764   7.676
28920SOL    HW188534   7.403  14.848   7.641
28920SOL    HW288535   7.437  14.744   7.745
28921SOL     OW88536  10.378   6.740   8.775
28921SOL    HW188537  10.387   6.758   8.868
28921SOL    HW288538  10.461   6.768   8.737
28922SOL     OW88539   0.158  13.767  12.951
28922SOL    HW188540   0.124  13.723  13.029
28922SOL    HW288541   0.090  13.757  12.885
28923SOL     OW88542   4.846   5.682   1.648
28923SOL    HW188543   4.776   5.655   1.589
28923SOL    HW288544   4.914   5.717   1.589
28924SOL     OW88545  11.448  12.445  12.250
28924SOL    HW188546  11.532  12.458  12.295
28924SOL    HW288547  11.426  12.531  12.215
28925SOL     OW88548   5.596  13.032   0.910
28925SOL    HW188549   5.685  13.001   0.894
28925SOL    HW288550   5.605  13.098   0.978
28926SOL     OW88551   3.681   3.202   4.950
28926SOL    HW188552   3.600   3.248   4.930
28926SOL    HW288553   3.693   3.142   4.877
28927SOL     OW88554   4.311   7.338   9.393
28927SOL    HW188555   4.261   7.420   9.392
28927SOL    HW288556   4.378   7.350   9.325
28928SOL     OW88557  10.012   6.610  11.043
28928SOL    HW188558   9.925   6.650  11.042
28928SOL    HW288559  10.003   6.532  10.988
28929SOL     OW88560   6.957   3.807   7.966
28929SOL    HW188561   7.003   3.772   7.890
28929SOL    HW288562   7.020   3.802   8.038
28930SOL     OW88563   4.275   0.828   6.327
28930SOL    HW188564   4.310   0.868   6.248
28930SOL    HW288565   4.286   0.734   6.314
28931SOL     OW88566   9.593   6.131   5.348
28931SOL    HW188567   9.527   6.093   5.291
28931SOL    HW288568   9.668   6.071   5.343
28932SOL     OW88569   0.960  12.417   0.654
28932SOL    HW188570   1.050  12.450   0.651
28932SOL    HW288571   0.963  12.333   0.607
28933SOL     OW88572   7.701   4.384   5.247
28933SOL    HW188573   7.620   4.343   5.280
28933SOL    HW288574   7.751   4.405   5.326
28934SOL     OW88575   6.364   1.845  14.758
28934SOL    HW188576   6.337   1.756  14.736
28934SOL    HW288577   6.457   1.848  14.732
28935SOL     OW88578   9.411   7.818  12.891
28935SOL    HW188579   9.380   7.774  12.970
28935SOL    HW288580   9.370   7.771  12.819
28936SOL     OW88581  13.626  10.122   2.509
28936SOL    HW188582  13.653  10.208   2.476
28936SOL    HW288583  13.708  10.075   2.524
28937SOL     OW88584   9.698   1.860   2.281
28937SOL    HW188585   9.686   1.855   2.376
28937SOL    HW288586   9.616   1.899   2.249
28938SOL     OW88587   3.884   9.338   2.066
28938SOL    HW188588   3.942   9.269   2.033
28938SOL    HW288589   3.936   9.384   2.132
28939SOL     OW88590   7.600   6.302   9.857
28939SOL    HW188591   7.551   6.284   9.938
28939SOL    HW288592   7.664   6.232   9.851
28940SOL     OW88593   2.127  10.217   4.755
28940SOL    HW188594   2.175  10.149   4.708
28940SOL    HW288595   2.036  10.187   4.754
28941SOL     OW88596   4.841   2.664  13.968
28941SOL    HW188597   4.896   2.620  13.903
28941SOL    HW288598   4.819   2.748  13.928
28942SOL     OW88599   2.270   9.511   2.687
28942SOL    HW188600   2.273   9.606   2.677
28942SOL    HW288601   2.258   9.497   2.781
28943SOL     OW88602   4.162   2.092  12.922
28943SOL    HW188603   4.158   2.040  12.841
28943SOL    HW288604   4.112   2.171  12.903
28944SOL     OW88605  14.003   5.065   4.763
28944SOL    HW188606  14.022   5.070   4.856
28944SOL    HW288607  13.952   5.144   4.744
28945SOL     OW88608   2.056   7.328  13.315
28945SOL    HW188609   2.016   7.402  13.269
28945SOL    HW288610   2.057   7.257  13.251
28946SOL     OW88611   7.289   6.445  12.209
28946SOL    HW188612   7.268   6.438  12.116
28946SOL    HW288613   7.322   6.534  12.220
28947SOL     OW88614  11.539   0.353  14.278
28947SOL    HW188615  11.538   0.296  14.355
28947SOL    HW288616  11.632   0.359  14.254
28948SOL     OW88617   7.063   6.969   0.127
28948SOL    HW188618   7.143   6.983   0.177
28948SOL    HW288619   6.995   7.014   0.178
28949SOL     OW88620   2.320   1.933   5.671
28949SOL    HW188621   2.263   1.873   5.623
28949SOL    HW288622   2.299   1.918   5.763
28950SOL     OW88623  12.125  11.161   8.814
28950SOL    HW188624  12.124  11.081   8.866
28950SOL    HW288625  12.057  11.149   8.748
28951SOL     OW88626   0.716   3.279   9.417
28951SOL    HW188627   0.659   3.316   9.350
28951SOL    HW288628   0.702   3.184   9.410
28952SOL     OW88629  12.757   3.653   6.554
28952SOL    HW188630  12.689   3.656   6.486
28952SOL    HW288631  12.709   3.664   6.636
28953SOL     OW88632  13.129   7.342   9.487
28953SOL    HW188633  13.186   7.389   9.426
28953SOL    HW288634  13.097   7.409   9.547
28954SOL     OW88635   3.327   3.736  12.137
28954SOL    HW188636   3.231   3.741  12.133
28954SOL    HW288637   3.357   3.796  12.069
28955SOL     OW88638   4.824   1.241   3.000
28955SOL    HW188639   4.827   1.204   2.912
28955SOL    HW288640   4.789   1.329   2.988
28956SOL     OW88641  14.874   9.468   8.214
28956SOL    HW188642  14.858   9.407   8.142
28956SOL    HW288643   0.060   9.427   8.267
28957SOL     OW88644   7.888   5.397   0.392
28957SOL    HW188645   7.951   5.383   0.321
28957SOL    HW288646   7.804   5.371   0.355
28958SOL     OW88647   7.854   8.668  12.530
28958SOL    HW188648   7.946   8.641  12.540
28958SOL    HW288649   7.808   8.587  12.507
28959SOL     OW88650  10.852   7.314  11.279
28959SOL    HW188651  10.888   7.261  11.209
28959SOL    HW288652  10.759   7.324  11.256
28960SOL     OW88653  10.792  13.715   7.846
28960SOL    HW188654  10.869  13.768   7.865
28960SOL    HW288655  10.807  13.681   7.758
28961SOL     OW88656  11.780   0.050  12.222
28961SOL    HW188657  11.779   0.140  12.191
28961SOL    HW288658  11.847   0.049  12.291
28962SOL     OW88659   5.737   0.331   5.968
28962SOL    HW188660   5.663   0.374   6.012
28962SOL    HW288661   5.801   0.316   6.038
28963SOL     OW88662   1.146   9.803   0.739
28963SOL    HW188663   1.185   9.787   0.825
28963SOL    HW288664   1.183   9.887   0.711
28964SOL     OW88665   2.408   2.047   2.955
28964SOL    HW188666   2.342   2.109   2.926
28964SOL    HW288667   2.482   2.060   2.896
28965SOL     OW88668  14.025   6.739  13.072
28965SOL    HW188669  13.958   6.729  13.139
28965SOL    HW288670  14.096   6.786  13.117
28966SOL     OW88671  11.246  10.934   8.171
28966SOL    HW188672  11.151  10.932   8.182
28966SOL    HW288673  11.278  10.981   8.248
28967SOL     OW88674   0.520  14.062   5.336
28967SOL    HW188675   0.560  14.040   5.252
28967SOL    HW288676   0.478  14.146   5.322
28968SOL     OW88677  12.197  10.932   2.419
28968SOL    HW188678  12.265  10.922   2.485
28968SOL    HW288679  12.127  10.981   2.463
28969SOL     OW88680   8.690  13.692  10.190
28969SOL    HW188681   8.756  13.696  10.259
28969SOL    HW288682   8.700  13.773  10.141
28970SOL     OW88683  12.283   4.979   4.438
28970SOL    HW188684  12.254   4.888   4.431
28970SOL    HW288685  12.259   5.006   4.526
28971SOL     OW88686  12.984   6.209   3.123
28971SOL    HW188687  13.009   6.120   3.099
28971SOL    HW288688  12.888   6.208   3.124
28972SOL     OW88689   1.194   4.886   9.805
28972SOL    HW188690   1.161   4.887   9.895
28972SOL    HW288691   1.116   4.900   9.751
28973SOL     OW88692   6.519   2.916   1.529
28973SOL    HW188693   6.497   2.927   1.436
28973SOL    HW288694   6.507   3.004   1.566
28974SOL     OW88695  10.909  13.341   6.981
28974SOL    HW188696  10.939  13.377   6.897
28974SOL    HW288697  10.981  13.359   7.041
28975SOL     OW88698   7.153   9.974   1.551
28975SOL    HW188699   7.151   9.977   1.646
28975SOL    HW288700   7.238   9.934   1.530
28976SOL     OW88701   1.010  12.681   6.221
28976SOL    HW188702   1.106  12.676   6.224
28976SOL    HW288703   0.987  12.740   6.293
28977SOL     OW88704  14.242   6.456  12.286
28977SOL    HW188705  14.303   6.528  12.305
28977SOL    HW288706  14.297   6.386  12.250
28978SOL     OW88707   8.035  12.181   9.049
28978SOL    HW188708   8.040  12.085   9.046
28978SOL    HW288709   7.944  12.200   9.028
28979SOL     OW88710   4.600   2.799   7.204
28979SOL    HW188711   4.657   2.739   7.252
28979SOL    HW288712   4.606   2.771   7.113
28980SOL     OW88713   3.901  12.751   7.944
28980SOL    HW188714   3.827  12.799   7.906
28980SOL    HW288715   3.931  12.806   8.016
28981SOL     OW88716   3.739   0.737  10.317
28981SOL    HW188717   3.781   0.822  10.303
28981SOL    HW288718   3.773   0.682  10.248
28982SOL     OW88719   8.127  11.987  10.917
28982SOL    HW188720   8.157  12.067  10.961
28982SOL    HW288721   8.150  11.917  10.977
28983SOL     OW88722  14.551   3.632  14.453
28983SOL    HW188723  14.577   3.543  14.477
28983SOL    HW288724  14.541   3.630  14.358
28984SOL     OW88725   9.910  13.811   8.692
28984SOL    HW188726   9.950  13.857   8.618
28984SOL    HW288727   9.910  13.719   8.665
28985SOL     OW88728  11.554  14.753   1.338
28985SOL    HW188729  11.523  14.777   1.426
28985SOL    HW288730  11.533  14.660   1.330
28986SOL     OW88731   1.834  12.499   3.086
28986SOL    HW188732   1.763  12.478   3.146
28986SOL    HW288733   1.912  12.502   3.141
28987SOL     OW88734   8.443   1.266   3.435
28987SOL    HW188735   8.446   1.172   3.417
28987SOL    HW288736   8.434   1.272   3.530
28988SOL     OW88737  10.284   1.265   1.652
28988SOL    HW188738  10.210   1.289   1.709
28988SOL    HW288739  10.353   1.327   1.675
28989SOL     OW88740  12.819   5.207  10.287
28989SOL    HW188741  12.905   5.165  10.282
28989SOL    HW288742  12.774   5.180  10.207
28990SOL     OW88743   2.295   3.319  10.477
28990SOL    HW188744   2.318   3.394  10.422
28990SOL    HW288745   2.225   3.275  10.429
28991SOL     OW88746   4.900   0.341   4.658
28991SOL    HW188747   4.909   0.267   4.718
28991SOL    HW288748   4.966   0.325   4.590
28992SOL     OW88749   9.877   7.700  10.406
28992SOL    HW188750   9.884   7.642  10.481
28992SOL    HW288751   9.968   7.720  10.383
28993SOL     OW88752   0.443   6.187  11.967
28993SOL    HW188753   0.410   6.177  12.056
28993SOL    HW288754   0.447   6.097  11.933
28994SOL     OW88755  13.344   1.777   1.468
28994SOL    HW188756  13.318   1.700   1.518
28994SOL    HW288757  13.409   1.744   1.406
28995SOL     OW88758   2.069   2.189   6.421
28995SOL    HW188759   2.009   2.120   6.447
28995SOL    HW288760   2.082   2.241   6.500
28996SOL     OW88761   1.755   9.401   6.038
28996SOL    HW188762   1.787   9.433   6.122
28996SOL    HW288763   1.826   9.421   5.976
28997SOL     OW88764   4.562   6.515  14.154
28997SOL    HW188765   4.505   6.538  14.081
28997SOL    HW288766   4.577   6.421  14.145
28998SOL     OW88767   2.256   8.927   0.861
28998SOL    HW188768   2.312   8.938   0.937
28998SOL    HW288769   2.247   8.832   0.850
28999SOL     OW88770  11.271   5.245  12.890
28999SOL    HW188771  11.213   5.271  12.962
28999SOL    HW288772  11.285   5.151  12.903
29000SOL     OW88773   9.302   4.450  13.313
29000SOL    HW188774   9.208   4.467  13.307
29000SOL    HW288775   9.321   4.453  13.406
29001SOL     OW88776  11.645  14.590   3.395
29001SOL    HW188777  11.672  14.597   3.304
29001SOL    HW288778  11.716  14.543   3.438
29002SOL     OW88779   8.754   1.900   3.610
29002SOL    HW188780   8.741   1.854   3.527
29002SOL    HW288781   8.733   1.992   3.590
29003SOL     OW88782  10.379  10.754   7.662
29003SOL    HW188783  10.371  10.804   7.743
29003SOL    HW288784  10.424  10.674   7.688
29004SOL     OW88785   1.522   5.003   7.900
29004SOL    HW188786   1.522   5.098   7.911
29004SOL    HW288787   1.577   4.970   7.971
29005SOL     OW88788   6.575   4.071  11.782
29005SOL    HW188789   6.641   4.033  11.724
29005SOL    HW288790   6.622   4.137  11.833
29006SOL     OW88791   1.552   0.777   5.376
29006SOL    HW188792   1.603   0.824   5.310
29006SOL    HW288793   1.594   0.691   5.381
29007SOL     OW88794  13.223  13.324   5.003
29007SOL    HW188795  13.248  13.347   4.913
29007SOL    HW288796  13.197  13.232   4.998
29008SOL     OW88797   0.054   1.402  11.632
29008SOL    HW188798   0.026   1.330  11.690
29008SOL    HW288799   0.149   1.392  11.627
29009SOL     OW88800   9.680  11.234   0.407
29009SOL    HW188801   9.767  11.274   0.416
29009SOL    HW288802   9.679  11.199   0.319
29010SOL     OW88803   2.737  11.082   3.143
29010SOL    HW188804   2.785  11.145   3.196
29010SOL    HW288805   2.758  10.997   3.182
29011SOL     OW88806  13.701   3.763   1.922
29011SOL    HW188807  13.657   3.687   1.883
29011SOL    HW288808  13.647   3.838   1.896
29012SOL     OW88809  14.407   6.354   5.289
29012SOL    HW188810  14.425   6.437   5.333
29012SOL    HW288811  14.352   6.378   5.215
29013SOL     OW88812   9.643   7.499   4.046
29013SOL    HW188813   9.559   7.529   4.083
29013SOL    HW288814   9.706   7.565   4.074
29014SOL     OW88815   8.039   2.532   1.604
29014SOL    HW188816   7.951   2.565   1.586
29014SOL    HW288817   8.040   2.444   1.566
29015SOL     OW88818  13.002  11.067   4.593
29015SOL    HW188819  12.995  11.156   4.557
29015SOL    HW288820  13.028  11.013   4.518
29016SOL     OW88821   1.551  11.951   6.860
29016SOL    HW188822   1.460  11.951   6.892
29016SOL    HW288823   1.587  12.034   6.889
29017SOL     OW88824   9.914  11.660  14.137
29017SOL    HW188825   9.921  11.721  14.064
29017SOL    HW288826   9.875  11.581  14.099
29018SOL     OW88827  11.762   7.393   5.286
29018SOL    HW188828  11.846   7.438   5.271
29018SOL    HW288829  11.697   7.452   5.248
29019SOL     OW88830  12.676  13.979   5.824
29019SOL    HW188831  12.710  14.040   5.759
29019SOL    HW288832  12.632  13.911   5.772
29020SOL     OW88833  14.670   5.221  13.943
29020SOL    HW188834  14.676   5.261  14.030
29020SOL    HW288835  14.743   5.159  13.941
29021SOL     OW88836   5.011   5.573  10.523
29021SOL    HW188837   5.048   5.649  10.568
29021SOL    HW288838   5.024   5.500  10.584
29022SOL     OW88839   6.806   5.963  12.949
29022SOL    HW188840   6.892   5.995  12.976
29022SOL    HW288841   6.824   5.913  12.870
29023SOL     OW88842  11.762   6.195   7.378
29023SOL    HW188843  11.766   6.109   7.335
29023SOL    HW288844  11.669   6.218   7.376
29024SOL     OW88845   5.203  14.008   0.648
29024SOL    HW188846   5.181  14.097   0.677
29024SOL    HW288847   5.296  13.999   0.666
29025SOL     OW88848   7.826  14.026   3.122
29025SOL    HW188849   7.770  13.948   3.122
29025SOL    HW288850   7.799  14.075   3.199
29026SOL     OW88851  14.728   6.382   9.257
29026SOL    HW188852  14.819   6.402   9.236
29026SOL    HW288853  14.698   6.327   9.185
29027SOL     OW88854   2.333  13.038  12.539
29027SOL    HW188855   2.261  13.002  12.488
29027SOL    HW288856   2.292  13.071  12.619
29028SOL     OW88857   2.865   7.066   6.266
29028SOL    HW188858   2.819   7.009   6.206
29028SOL    HW288859   2.950   7.024   6.278
29029SOL     OW88860  12.339   6.389   0.244
29029SOL    HW188861  12.320   6.383   0.338
29029SOL    HW288862  12.425   6.429   0.240
29030SOL     OW88863  13.538   0.290   5.405
29030SOL    HW188864  13.564   0.382   5.398
29030SOL    HW288865  13.450   0.287   5.367
29031SOL     OW88866  13.377  10.331  13.746
29031SOL    HW188867  13.375  10.405  13.685
29031SOL    HW288868  13.340  10.258  13.696
29032SOL     OW88869  11.957   1.258  13.173
29032SOL    HW188870  11.896   1.200  13.219
29032SOL    HW288871  12.041   1.244  13.216
29033SOL     OW88872  13.265   9.953  12.874
29033SOL    HW188873  13.286   9.867  12.912
29033SOL    HW288874  13.176   9.971  12.902
29034SOL     OW88875   0.609   1.571   1.158
29034SOL    HW188876   0.573   1.652   1.193
29034SOL    HW288877   0.532   1.518   1.137
29035SOL     OW88878  12.622  13.745   2.298
29035SOL    HW188879  12.533  13.715   2.277
29035SOL    HW288880  12.676  13.667   2.290
29036SOL     OW88881   0.816   4.063   9.648
29036SOL    HW188882   0.784   4.150   9.672
29036SOL    HW288883   0.738   4.018   9.613
29037SOL     OW88884   8.201   2.014   9.955
29037SOL    HW188885   8.140   2.032  10.027
29037SOL    HW288886   8.144   1.998   9.879
29038SOL     OW88887  10.262  14.420   2.563
29038SOL    HW188888  10.301  14.383   2.642
29038SOL    HW288889  10.307  14.504   2.551
29039SOL     OW88890   4.364  13.681  10.786
29039SOL    HW188891   4.352  13.743  10.715
29039SOL    HW288892   4.287  13.692  10.842
29040SOL     OW88893   5.157   2.565   6.402
29040SOL    HW188894   5.166   2.518   6.485
29040SOL    HW288895   5.231   2.626   6.400
29041SOL     OW88896  12.750  11.532   1.263
29041SOL    HW188897  12.710  11.449   1.237
29041SOL    HW288898  12.839  11.529   1.228
29042SOL     OW88899  12.680   0.580   8.068
29042SOL    HW188900  12.702   0.578   8.161
29042SOL    HW288901  12.764   0.593   8.024
29043SOL     OW88902  12.583   6.125   0.830
29043SOL    HW188903  12.619   6.050   0.878
29043SOL    HW288904  12.489   6.113   0.835
29044SOL     OW88905   5.187   6.290  10.318
29044SOL    HW188906   5.265   6.243  10.345
29044SOL    HW288907   5.179   6.361  10.382
29045SOL     OW88908   7.228   5.852   2.224
29045SOL    HW188909   7.304   5.807   2.260
29045SOL    HW288910   7.154   5.797   2.248
29046SOL     OW88911   9.546  11.047   5.868
29046SOL    HW188912   9.550  11.140   5.848
29046SOL    HW288913   9.637  11.017   5.859
29047SOL     OW88914  14.285   4.975   9.166
29047SOL    HW188915  14.341   5.047   9.195
29047SOL    HW288916  14.208   4.979   9.223
29048SOL     OW88917   8.185   1.120   4.379
29048SOL    HW188918   8.147   1.183   4.317
29048SOL    HW288919   8.173   1.035   4.336
29049SOL     OW88920   3.836  11.911   6.904
29049SOL    HW188921   3.928  11.893   6.919
29049SOL    HW288922   3.810  11.968   6.977
29050SOL     OW88923   2.951  10.625  14.851
29050SOL    HW188924   2.883  10.607   0.035
29050SOL    HW288925   2.907  10.682  14.787
29051SOL     OW88926   4.822   2.921   4.714
29051SOL    HW188927   4.791   2.954   4.799
29051SOL    HW288928   4.879   2.847   4.737
29052SOL     OW88929  14.340   9.593   6.122
29052SOL    HW188930  14.290   9.671   6.148
29052SOL    HW288931  14.431   9.616   6.143
29053SOL     OW88932  10.049  14.817   0.103
29053SOL    HW188933  10.108  14.761   0.053
29053SOL    HW288934  10.000  14.866   0.037
29054SOL     OW88935  11.615  10.618  12.784
29054SOL    HW188936  11.616  10.658  12.871
29054SOL    HW288937  11.703  10.582  12.773
29055SOL     OW88938   6.843  13.589   6.623
29055SOL    HW188939   6.780  13.556   6.559
29055SOL    HW288940   6.812  13.677   6.644
29056SOL     OW88941  10.554   0.207   4.194
29056SOL    HW188942  10.553   0.175   4.104
29056SOL    HW288943  10.486   0.275   4.196
29057SOL     OW88944  12.494   1.289  14.758
29057SOL    HW188945  12.496   1.383  14.738
29057SOL    HW288946  12.575   1.256  14.719
29058SOL     OW88947  13.368  13.231  13.269
29058SOL    HW188948  13.413  13.315  13.274
29058SOL    HW288949  13.339  13.213  13.359
29059SOL     OW88950  12.900  14.083  10.204
29059SOL    HW188951  12.928  14.174  10.207
29059SOL    HW288952  12.841  14.078  10.129
29060SOL     OW88953   6.935  10.228   4.042
29060SOL    HW188954   6.916  10.289   3.971
29060SOL    HW288955   6.990  10.278   4.103
29061SOL     OW88956   2.329   1.611   4.722
29061SOL    HW188957   2.277   1.608   4.802
29061SOL    HW288958   2.343   1.519   4.699
29062SOL     OW88959  10.188   6.256   7.651
29062SOL    HW188960  10.274   6.286   7.681
29062SOL    HW288961  10.138   6.243   7.732
29063SOL     OW88962   9.935   8.736   0.899
29063SOL    HW188963  10.024   8.747   0.931
29063SOL    HW288964   9.943   8.675   0.825
29064SOL     OW88965   4.721  14.788   5.183
29064SOL    HW188966   4.686  14.700   5.197
29064SOL    HW288967   4.811  14.773   5.153
29065SOL     OW88968  13.139   5.096  13.061
29065SOL    HW188969  13.108   5.186  13.060
29065SOL    HW288970  13.229   5.102  13.093
29066SOL     OW88971   7.710   0.827   0.352
29066SOL    HW188972   7.731   0.734   0.341
29066SOL    HW288973   7.790   0.866   0.386
29067SOL     OW88974  14.878   9.619   0.515
29067SOL    HW188975  14.859   9.576   0.599
29067SOL    HW288976  14.828   9.570   0.451
29068SOL     OW88977   1.490  10.759   0.652
29068SOL    HW188978   1.551  10.704   0.702
29068SOL    HW288979   1.537  10.841   0.639
29069SOL     OW88980   0.938  13.203   7.900
29069SOL    HW188981   0.951  13.175   7.990
29069SOL    HW288982   0.911  13.124   7.853
29070SOL     OW88983   1.061   4.440  14.702
29070SOL    HW188984   1.011   4.401  14.773
29070SOL    HW288985   1.041   4.533  14.707
29071SOL     OW88986   2.775  11.601   8.558
29071SOL    HW188987   2.827  11.527   8.586
29071SOL    HW288988   2.693  11.593   8.606
29072SOL     OW88989  10.677   7.076  13.433
29072SOL    HW188990  10.704   7.165  13.408
29072SOL    HW288991  10.581   7.077  13.424
29073SOL     OW88992   8.656   9.582   4.185
29073SOL    HW188993   8.571   9.595   4.226
29073SOL    HW288994   8.635   9.547   4.098
29074SOL     OW88995  14.044   5.474   2.871
29074SOL    HW188996  14.010   5.408   2.809
29074SOL    HW288997  14.139   5.469   2.861
29075SOL     OW88998   2.711   6.122   6.350
29075SOL    HW188999   2.625   6.085   6.332
29075SOL    HW289000   2.733   6.172   6.271
29076SOL     OW89001  11.807  13.908   6.495
29076SOL    HW189002  11.844  13.984   6.450
29076SOL    HW289003  11.752  13.944   6.564
29077SOL     OW89004  14.108  11.903  14.000
29077SOL    HW189005  14.085  11.996  13.996
29077SOL    HW289006  14.025  11.857  13.997
29078SOL     OW89007   9.568   5.091  10.223
29078SOL    HW189008   9.614   5.050  10.296
29078SOL    HW289009   9.575   5.027  10.152
29079SOL     OW89010   5.571  12.926   4.065
29079SOL    HW189011   5.480  12.924   4.095
29079SOL    HW289012   5.621  12.950   4.142
29080SOL     OW89013  14.020  13.173   7.394
29080SOL    HW189014  13.972  13.122   7.329
29080SOL    HW289015  14.062  13.107   7.450
29081SOL     OW89016   9.864   1.807  10.062
29081SOL    HW189017   9.783   1.858  10.069
29081SOL    HW289018   9.878   1.774  10.151
29082SOL     OW89019  11.091   8.575   6.587
29082SOL    HW189020  11.005   8.609   6.611
29082SOL    HW289021  11.102   8.497   6.642
29083SOL     OW89022   6.431   9.497   7.146
29083SOL    HW189023   6.404   9.430   7.084
29083SOL    HW289024   6.365   9.566   7.138
29084SOL     OW89025   3.472   8.354  12.994
29084SOL    HW189026   3.561   8.334  12.965
29084SOL    HW289027   3.447   8.431  12.943
29085SOL     OW89028  10.229   5.930  13.404
29085SOL    HW189029  10.217   5.838  13.426
29085SOL    HW289030  10.247   5.973  13.488
29086SOL     OW89031  11.195   0.992  11.109
29086SOL    HW189032  11.139   1.041  11.170
29086SOL    HW289033  11.149   0.998  11.025
29087SOL     OW89034  10.855  13.857   1.813
29087SOL    HW189035  10.780  13.884   1.866
29087SOL    HW289036  10.913  13.813   1.875
29088SOL     OW89037   7.146  12.730  12.749
29088SOL    HW189038   7.096  12.689  12.679
29088SOL    HW289039   7.081  12.776  12.802
29089SOL     OW89040   4.641   1.497   7.647
29089SOL    HW189041   4.592   1.520   7.568
29089SOL    HW289042   4.709   1.565   7.653
29090SOL     OW89043   9.046   1.584  14.311
29090SOL    HW189044   9.117   1.530  14.346
29090SOL    HW289045   9.025   1.644  14.381
29091SOL     OW89046  10.970   7.643   2.926
29091SOL    HW189047  11.025   7.592   2.867
29091SOL    HW289048  10.990   7.608   3.013
29092SOL     OW89049   7.282   8.911   5.608
29092SOL    HW189050   7.341   8.962   5.553
29092SOL    HW289051   7.268   8.965   5.686
29093SOL     OW89052   5.661  13.825   4.684
29093SOL    HW189053   5.582  13.878   4.689
29093SOL    HW289054   5.638  13.743   4.728
29094SOL     OW89055  13.728   1.185  11.063
29094SOL    HW189056  13.652   1.208  11.116
29094SOL    HW289057  13.803   1.196  11.122
29095SOL     OW89058   4.495   7.564  13.157
29095SOL    HW189059   4.502   7.654  13.123
29095SOL    HW289060   4.525   7.570  13.247
29096SOL     OW89061  12.270   5.160   3.425
29096SOL    HW189062  12.205   5.223   3.455
29096SOL    HW289063  12.220   5.094   3.377
29097SOL     OW89064  13.652  12.073   5.864
29097SOL    HW189065  13.636  11.992   5.914
29097SOL    HW289066  13.574  12.127   5.881
29098SOL     OW89067  14.143   2.509   8.862
29098SOL    HW189068  14.141   2.425   8.816
29098SOL    HW289069  14.130   2.487   8.954
29099SOL     OW89070   9.181  14.700  10.966
29099SOL    HW189071   9.274  14.688  10.948
29099SOL    HW289072   9.173  14.793  10.988
29100SOL     OW89073  10.468   7.460   8.839
29100SOL    HW189074  10.506   7.455   8.927
29100SOL    HW289075  10.531   7.511   8.788
29101SOL     OW89076   8.423  14.068  12.162
29101SOL    HW189077   8.413  14.163  12.174
29101SOL    HW289078   8.467  14.059  12.078
29102SOL     OW89079  10.416   5.682   8.302
29102SOL    HW189080  10.352   5.726   8.246
29102SOL    HW289081  10.383   5.593   8.310
29103SOL     OW89082   5.051  10.910  13.627
29103SOL    HW189083   4.985  10.858  13.581
29103SOL    HW289084   5.134  10.881  13.590
29104SOL     OW89085  12.003  11.039   2.541
29104SOL    HW189086  12.039  11.121   2.573
29104SOL    HW289087  11.909  11.054   2.536
29105SOL     OW89088  10.583  14.642   3.235
29105SOL    HW189089  10.614  14.625   3.146
29105SOL    HW289090  10.491  14.667   3.224
29106SOL     OW89091   8.424  14.701   5.181
29106SOL    HW189092   8.428  14.673   5.272
29106SOL    HW289093   8.395  14.793   5.185
29107SOL     OW89094  10.989  14.521   2.338
29107SOL    HW189095  11.052  14.510   2.266
29107SOL    HW289096  10.976  14.616   2.343
29108SOL     OW89097   6.761   6.931   5.461
29108SOL    HW189098   6.753   7.011   5.513
29108SOL    HW289099   6.836   6.947   5.404
29109SOL     OW89100   6.941  12.755  11.704
29109SOL    HW189101   6.879  12.784  11.637
29109SOL    HW289102   7.021  12.735  11.656
29110SOL     OW89103   1.408   4.264   8.143
29110SOL    HW189104   1.494   4.226   8.129
29110SOL    HW289105   1.423   4.337   8.202
29111SOL     OW89106  10.050  10.578  13.270
29111SOL    HW189107  10.057  10.513  13.200
29111SOL    HW289108  10.116  10.644  13.248
29112SOL     OW89109  12.478   1.212  12.007
29112SOL    HW189110  12.515   1.205  12.095
29112SOL    HW289111  12.546   1.178  11.949
29113SOL     OW89112   6.767   6.314   6.017
29113SOL    HW189113   6.773   6.275   5.930
29113SOL    HW289114   6.795   6.405   6.006
29114SOL     OW89115   7.283   2.989  13.219
29114SOL    HW189116   7.332   2.934  13.279
29114SOL    HW289117   7.242   3.055  13.276
29115SOL     OW89118   2.452   3.289   0.575
29115SOL    HW189119   2.483   3.351   0.509
29115SOL    HW289120   2.470   3.333   0.658
29116SOL     OW89121   8.721   4.581  14.703
29116SOL    HW189122   8.680   4.510  14.753
29116SOL    HW289123   8.700   4.561  14.612
29117SOL     OW89124   1.661  12.445   7.119
29117SOL    HW189125   1.742  12.406   7.086
29117SOL    HW289126   1.688  12.529   7.155
29118SOL     OW89127  12.543   7.785   5.352
29118SOL    HW189128  12.463   7.793   5.404
29118SOL    HW289129  12.547   7.692   5.329
29119SOL     OW89130   2.613  10.111  11.936
29119SOL    HW189131   2.675  10.091  11.865
29119SOL    HW289132   2.669  10.127  12.012
29120SOL     OW89133  10.959   8.483   7.876
29120SOL    HW189134  10.964   8.493   7.781
29120SOL    HW289135  10.986   8.392   7.892
29121SOL     OW89136   5.705  11.453   0.210
29121SOL    HW189137   5.709  11.358   0.227
29121SOL    HW289138   5.769  11.467   0.140
29122SOL     OW89139   4.274  10.235  14.520
29122SOL    HW189140   4.257  10.300  14.452
29122SOL    HW289141   4.312  10.285  14.592
29123SOL     OW89142   3.774   5.282   7.858
29123SOL    HW189143   3.805   5.229   7.784
29123SOL    HW289144   3.679   5.278   7.851
29124SOL     OW89145   0.256  11.366   7.504
29124SOL    HW189146   0.167  11.359   7.540
29124SOL    HW289147   0.288  11.451   7.535
29125SOL     OW89148   7.369   3.146  10.663
29125SOL    HW189149   7.357   3.055  10.639
29125SOL    HW289150   7.355   3.195  10.582
29126SOL     OW89151  13.031   1.465   1.756
29126SOL    HW189152  12.949   1.489   1.713
29126SOL    HW289153  13.091   1.536   1.734
29127SOL     OW89154  10.830   0.426  11.347
29127SOL    HW189155  10.739   0.415  11.318
29127SOL    HW289156  10.872   0.342  11.329
29128SOL     OW89157  12.478  13.027  12.537
29128SOL    HW189158  12.485  13.073  12.453
29128SOL    HW289159  12.396  12.977  12.530
29129SOL     OW89160   8.388   3.117   8.430
29129SOL    HW189161   8.385   3.161   8.345
29129SOL    HW289162   8.415   3.185   8.491
29130SOL     OW89163   9.805  10.756  12.319
29130SOL    HW189164   9.807  10.821  12.389
29130SOL    HW289165   9.897  10.733  12.305
29131SOL     OW89166  13.776   7.641   7.965
29131SOL    HW189167  13.838   7.665   8.035
29131SOL    HW289168  13.778   7.716   7.906
29132SOL     OW89169  14.600   4.346  14.566
29132SOL    HW189170  14.642   4.265  14.595
29132SOL    HW289171  14.666   4.388  14.510
29133SOL     OW89172  13.812   1.565  14.298
29133SOL    HW189173  13.731   1.595  14.339
29133SOL    HW289174  13.817   1.615  14.216
29134SOL     OW89175  10.450   1.720   1.202
29134SOL    HW189176  10.506   1.694   1.129
29134SOL    HW289177  10.361   1.705   1.171
29135SOL     OW89178   2.066   1.480   3.694
29135SOL    HW189179   2.078   1.505   3.785
29135SOL    HW289180   2.025   1.556   3.653
29136SOL     OW89181  12.727  10.769   9.304
29136SOL    HW189182  12.696  10.682   9.327
29136SOL    HW289183  12.715  10.821   9.383
29137SOL     OW89184   1.397   9.255   8.976
29137SOL    HW189185   1.468   9.262   9.040
29137SOL    HW289186   1.437   9.279   8.892
29138SOL     OW89187   3.692   8.332   9.238
29138SOL    HW189188   3.755   8.295   9.176
29138SOL    HW289189   3.738   8.332   9.322
29139SOL     OW89190  12.642  10.066  12.836
29139SOL    HW189191  12.646   9.972  12.851
29139SOL    HW289192  12.683  10.078  12.750
29140SOL     OW89193  10.347   7.379   9.372
29140SOL    HW189194  10.341   7.284   9.384
29140SOL    HW289195  10.256   7.409   9.378
29141SOL     OW89196   8.143   2.779   6.299
29141SOL    HW189197   8.238   2.770   6.308
29141SOL    HW289198   8.106   2.713   6.357
29142SOL     OW89199   6.048   3.859   1.640
29142SOL    HW189200   6.050   3.914   1.561
29142SOL    HW289201   6.091   3.913   1.707
29143SOL     OW89202   0.711  11.827  12.229
29143SOL    HW189203   0.619  11.802  12.229
29143SOL    HW289204   0.756  11.753  12.269
29144SOL     OW89205   0.540   6.145   5.625
29144SOL    HW189206   0.614   6.198   5.595
29144SOL    HW289207   0.518   6.182   5.711
29145SOL     OW89208   5.185   7.483   2.740
29145SOL    HW189209   5.118   7.528   2.793
29145SOL    HW289210   5.201   7.542   2.666
29146SOL     OW89211   5.566   2.850   2.452
29146SOL    HW189212   5.566   2.778   2.389
29146SOL    HW289213   5.501   2.826   2.517
29147SOL     OW89214  10.326  12.463   1.170
29147SOL    HW189215  10.357  12.527   1.234
29147SOL    HW289216  10.277  12.399   1.222
29148SOL     OW89217   0.970  13.965  14.710
29148SOL    HW189218   0.941  13.985  14.621
29148SOL    HW289219   1.058  13.928  14.699
29149SOL     OW89220  11.111  12.915   7.943
29149SOL    HW189221  11.119  12.857   7.867
29149SOL    HW289222  11.068  12.993   7.909
29150SOL     OW89223  12.543  14.135   3.858
29150SOL    HW189224  12.477  14.193   3.820
29150SOL    HW289225  12.514  14.047   3.836
29151SOL     OW89226   4.253  12.975   1.519
29151SOL    HW189227   4.223  12.892   1.554
29151SOL    HW289228   4.246  13.036   1.592
29152SOL     OW89229   3.055  14.542   7.679
29152SOL    HW189230   3.033  14.508   7.592
29152SOL    HW289231   2.970  14.562   7.719
29153SOL     OW89232   6.953   4.107   9.291
29153SOL    HW189233   7.016   4.096   9.362
29153SOL    HW289234   6.872   4.132   9.335
29154SOL     OW89235   1.898   6.046   6.594
29154SOL    HW189236   1.899   5.991   6.672
29154SOL    HW289237   1.812   6.031   6.556
29155SOL     OW89238   8.660  10.015   1.569
29155SOL    HW189239   8.719   9.947   1.600
29155SOL    HW289240   8.701  10.048   1.489
29156SOL     OW89241   5.136   2.667  12.468
29156SOL    HW189242   5.190   2.745  12.468
29156SOL    HW289243   5.057   2.692  12.517
29157SOL     OW89244  10.559   9.935   3.296
29157SOL    HW189245  10.623   9.899   3.234
29157SOL    HW289246  10.488   9.871   3.297
29158SOL     OW89247   6.458   8.949   5.726
29158SOL    HW189248   6.391   8.908   5.671
29158SOL    HW289249   6.540   8.911   5.695
29159SOL     OW89250   6.161   7.309  13.710
29159SOL    HW189251   6.239   7.254  13.707
29159SOL    HW289252   6.172   7.370  13.637
29160SOL     OW89253   2.398   6.572  13.336
29160SOL    HW189254   2.375   6.496  13.389
29160SOL    HW289255   2.477   6.607  13.379
29161SOL     OW89256  12.262   3.031  14.317
29161SOL    HW189257  12.215   3.029  14.400
29161SOL    HW289258  12.285   3.124  14.305
29162SOL     OW89259   2.255   6.372   7.004
29162SOL    HW189260   2.222   6.449   7.051
29162SOL    HW289261   2.178   6.335   6.962
29163SOL     OW89262   1.053   8.332  14.729
29163SOL    HW189263   1.108   8.337  14.651
29163SOL    HW289264   0.994   8.407  14.722
29164SOL     OW89265  13.429  13.113   1.559
29164SOL    HW189266  13.490  13.175   1.599
29164SOL    HW289267  13.392  13.064   1.633
29165SOL     OW89268  13.129  14.030  14.537
29165SOL    HW189269  13.166  13.997  14.619
29165SOL    HW289270  13.197  14.013  14.471
29166SOL     OW89271   2.254   2.839  11.851
29166SOL    HW189272   2.165   2.829  11.817
29166SOL    HW289273   2.258   2.780  11.926
29167SOL     OW89274  13.311   6.764  14.768
29167SOL    HW189275  13.302   6.674  14.735
29167SOL    HW289276  13.281   6.760  14.858
29168SOL     OW89277   1.367  10.334   3.844
29168SOL    HW189278   1.333  10.402   3.786
29168SOL    HW289279   1.451  10.309   3.805
29169SOL     OW89280   8.102   8.841  13.191
29169SOL    HW189281   8.042   8.770  13.215
29169SOL    HW289282   8.079   8.861  13.100
29170SOL     OW89283   6.747   3.575   6.853
29170SOL    HW189284   6.740   3.666   6.884
29170SOL    HW289285   6.704   3.523   6.922
29171SOL     OW89286   6.950  11.351  10.357
29171SOL    HW189287   6.988  11.397  10.283
29171SOL    HW289288   6.889  11.415  10.396
29172SOL     OW89289   0.913   7.026  13.821
29172SOL    HW189290   0.969   6.972  13.877
29172SOL    HW289291   0.861   7.078  13.882
29173SOL     OW89292  14.333  13.864   7.081
29173SOL    HW189293  14.253  13.863   7.135
29173SOL    HW289294  14.404  13.861   7.145
29174SOL     OW89295   6.259  12.442  11.098
29174SOL    HW189296   6.164  12.452  11.085
29174SOL    HW289297   6.267  12.392  11.179
29175SOL     OW89298  11.382   6.036  13.006
29175SOL    HW189299  11.475   6.048  13.022
29175SOL    HW289300  11.377   5.995  12.920
29176SOL     OW89301   0.776   7.138   3.766
29176SOL    HW189302   0.853   7.167   3.816
29176SOL    HW289303   0.740   7.218   3.730
29177SOL     OW89304  10.807   4.573   3.573
29177SOL    HW189305  10.761   4.605   3.650
29177SOL    HW289306  10.738   4.535   3.518
29178SOL     OW89307   6.857   7.125   9.198
29178SOL    HW189308   6.871   7.213   9.235
29178SOL    HW289309   6.779   7.135   9.144
29179SOL     OW89310  13.542   9.904  11.061
29179SOL    HW189311  13.611   9.838  11.064
29179SOL    HW289312  13.587   9.986  11.084
29180SOL     OW89313   3.545   8.166  13.210
29180SOL    HW189314   3.627   8.136  13.169
29180SOL    HW289315   3.499   8.213  13.141
29181SOL     OW89316   2.822  11.145   1.592
29181SOL    HW189317   2.898  11.099   1.626
29181SOL    HW289318   2.787  11.193   1.668
29182SOL     OW89319   5.921   4.991   5.052
29182SOL    HW189320   5.916   4.954   4.964
29182SOL    HW289321   5.926   4.914   5.109
29183SOL     OW89322  10.063   7.152   2.279
29183SOL    HW189323  10.141   7.201   2.255
29183SOL    HW289324  10.072   7.068   2.232
29184SOL     OW89325   1.321   7.679   5.226
29184SOL    HW189326   1.340   7.609   5.288
29184SOL    HW289327   1.366   7.756   5.262
29185SOL     OW89328  14.766  10.053  10.390
29185SOL    HW189329  14.831  10.015  10.331
29185SOL    HW289330  14.718   9.978  10.425
29186SOL     OW89331   1.512  13.801   5.831
29186SOL    HW189332   1.461  13.721   5.842
29186SOL    HW289333   1.578  13.797   5.900
29187SOL     OW89334   7.176   1.453   3.102
29187SOL    HW189335   7.257   1.492   3.133
29187SOL    HW289336   7.111   1.477   3.168
29188SOL     OW89337   0.463  12.930   4.133
29188SOL    HW189338   0.497  12.865   4.194
29188SOL    HW289339   0.375  12.949   4.164
29189SOL     OW89340   6.667   4.924  12.823
29189SOL    HW189341   6.648   5.015  12.800
29189SOL    HW289342   6.683   4.882  12.738
29190SOL     OW89343  14.031  10.477   8.108
29190SOL    HW189344  13.973  10.471   8.184
29190SOL    HW289345  14.019  10.566   8.076
29191SOL     OW89346  14.803   0.037  12.022
29191SOL    HW189347  14.749  14.842  12.005
29191SOL    HW289348   0.004   0.002  12.056
29192SOL     OW89349   9.001   2.678   2.864
29192SOL    HW189350   8.989   2.584   2.874
29192SOL    HW289351   8.925   2.708   2.814
29193SOL     OW89352   2.847   8.641   3.466
29193SOL    HW189353   2.903   8.610   3.538
29193SOL    HW289354   2.769   8.675   3.509
29194SOL     OW89355   5.786   5.509   6.547
29194SOL    HW189356   5.855   5.553   6.497
29194SOL    HW289357   5.705   5.550   6.517
29195SOL     OW89358   2.737  10.778   0.955
29195SOL    HW189359   2.685  10.851   0.920
29195SOL    HW289360   2.765  10.809   1.042
29196SOL     OW89361   6.256  10.732   4.510
29196SOL    HW189362   6.328  10.679   4.476
29196SOL    HW289363   6.236  10.692   4.595
29197SOL     OW89364  10.565  10.328   2.474
29197SOL    HW189365  10.503  10.255   2.482
29197SOL    HW289366  10.618  10.323   2.553
29198SOL     OW89367   7.259   9.797   6.944
29198SOL    HW189368   7.168   9.821   6.929
29198SOL    HW289369   7.302   9.814   6.860
29199SOL     OW89370  12.970   9.085  11.461
29199SOL    HW189371  12.904   9.097  11.530
29199SOL    HW289372  13.026   9.163  11.468
29200SOL     OW89373  10.507   0.612  12.884
29200SOL    HW189374  10.542   0.554  12.951
29200SOL    HW289375  10.582   0.663  12.854
29201SOL     OW89376   8.835   6.006  12.993
29201SOL    HW189377   8.767   6.000  12.926
29201SOL    HW289378   8.798   6.064  13.060
29202SOL     OW89379  12.146  12.791   0.749
29202SOL    HW189380  12.184  12.818   0.833
29202SOL    HW289381  12.176  12.857   0.687
29203SOL     OW89382   2.535   0.674   0.076
29203SOL    HW189383   2.494   0.596   0.113
29203SOL    HW289384   2.511   0.672  14.864
29204SOL     OW89385   1.068  10.678  10.016
29204SOL    HW189386   0.994  10.685  10.076
29204SOL    HW289387   1.133  10.627  10.064
29205SOL     OW89388  12.956   7.650  13.698
29205SOL    HW189389  13.030   7.590  13.694
29205SOL    HW289390  12.994   7.735  13.718
29206SOL     OW89391  13.807   9.578   7.956
29206SOL    HW189392  13.777   9.487   7.946
29206SOL    HW289393  13.892   9.580   7.913
29207SOL     OW89394   0.263   9.493  13.408
29207SOL    HW189395   0.282   9.423  13.471
29207SOL    HW289396   0.294   9.572  13.451
29208SOL     OW89397  14.873  10.073   6.526
29208SOL    HW189398  14.867   9.982   6.497
29208SOL    HW289399   0.073  10.077   6.576
29209SOL     OW89400  14.219  14.093   1.829
29209SOL    HW189401  14.238  14.145   1.907
29209SOL    HW289402  14.302  14.050   1.808
29210SOL     OW89403   6.891   5.497   1.284
29210SOL    HW189404   6.808   5.496   1.331
29210SOL    HW289405   6.950   5.547   1.339
29211SOL     OW89406   5.220   4.362  12.901
29211SOL    HW189407   5.271   4.297  12.949
29211SOL    HW289408   5.279   4.437  12.893
29212SOL     OW89409  12.074   6.471   4.267
29212SOL    HW189410  11.985   6.445   4.243
29212SOL    HW289411  12.131   6.420   4.209
29213SOL     OW89412   3.742  13.014   3.953
29213SOL    HW189413   3.823  12.975   3.918
29213SOL    HW289414   3.763  13.036   4.043
29214SOL     OW89415  10.462  10.525   7.210
29214SOL    HW189416  10.521  10.502   7.138
29214SOL    HW289417  10.422  10.442   7.235
29215SOL     OW89418   1.598  10.601  12.992
29215SOL    HW189419   1.527  10.656  13.027
29215SOL    HW289420   1.659  10.663  12.953
29216SOL     OW89421   5.056   4.197   4.238
29216SOL    HW189422   5.091   4.157   4.159
29216SOL    HW289423   4.981   4.249   4.208
29217SOL     OW89424   6.552  14.792   9.056
29217SOL    HW189425   6.611  14.804   8.982
29217SOL    HW289426   6.540  14.697   9.062
29218SOL     OW89427  13.927   9.595   6.003
29218SOL    HW189428  13.887   9.595   6.090
29218SOL    HW289429  13.857   9.622   5.944
29219SOL     OW89430  13.926   5.933  10.720
29219SOL    HW189431  13.890   6.014  10.756
29219SOL    HW289432  14.017   5.932  10.750
29220SOL     OW89433   4.053   9.376   0.834
29220SOL    HW189434   4.068   9.282   0.832
29220SOL    HW289435   4.141   9.414   0.829
29221SOL     OW89436   2.044   2.903   2.773
29221SOL    HW189437   2.072   2.991   2.798
29221SOL    HW289438   2.046   2.853   2.854
29222SOL     OW89439   4.472   3.207   4.316
29222SOL    HW189440   4.409   3.266   4.357
29222SOL    HW289441   4.543   3.264   4.287
29223SOL     OW89442   3.804   7.081  13.785
29223SOL    HW189443   3.845   7.060  13.869
29223SOL    HW289444   3.801   7.177  13.784
29224SOL     OW89445  14.032   9.867   4.484
29224SOL    HW189446  14.016   9.841   4.575
29224SOL    HW289447  13.990   9.953   4.476
29225SOL     OW89448   7.292  12.948  13.148
29225SOL    HW189449   7.259  13.037  13.157
29225SOL    HW289450   7.343  12.949  13.067
29226SOL     OW89451   4.517   8.089   1.419
29226SOL    HW189452   4.485   8.179   1.410
29226SOL    HW289453   4.519   8.055   1.329
29227SOL     OW89454  11.779   8.966  13.976
29227SOL    HW189455  11.719   9.015  13.920
29227SOL    HW289456  11.743   8.976  14.064
29228SOL     OW89457  14.254   5.765   2.402
29228SOL    HW189458  14.330   5.781   2.458
29228SOL    HW289459  14.291   5.743   2.316
29229SOL     OW89460   1.608   0.518   5.392
29229SOL    HW189461   1.692   0.485   5.423
29229SOL    HW289462   1.589   0.466   5.314
29230SOL     OW89463   2.071   9.065   3.417
29230SOL    HW189464   2.152   9.076   3.367
29230SOL    HW289465   2.089   9.108   3.501
29231SOL     OW89466   1.032   2.573   2.551
29231SOL    HW189467   0.955   2.612   2.592
29231SOL    HW289468   1.101   2.638   2.562
29232SOL     OW89469   6.331   5.818  12.118
29232SOL    HW189470   6.293   5.906  12.109
29232SOL    HW289471   6.290   5.767  12.048
29233SOL     OW89472   7.057  11.370   3.617
29233SOL    HW189473   6.971  11.332   3.603
29233SOL    HW289474   7.114  11.322   3.557
29234SOL     OW89475  11.377  12.432  13.374
29234SOL    HW189476  11.432  12.380  13.314
29234SOL    HW289477  11.306  12.373  13.399
29235SOL     OW89478   6.848   9.896   4.949
29235SOL    HW189479   6.925   9.855   4.909
29235SOL    HW289480   6.864   9.990   4.940
29236SOL     OW89481   6.692   8.525  12.446
29236SOL    HW189482   6.734   8.439  12.435
29236SOL    HW289483   6.640   8.537  12.366
29237SOL     OW89484   9.054   6.375  11.798
29237SOL    HW189485   9.127   6.336  11.846
29237SOL    HW289486   8.979   6.368  11.858
29238SOL     OW89487   9.485   7.472   8.729
29238SOL    HW189488   9.460   7.563   8.712
29238SOL    HW289489   9.522   7.473   8.817
29239SOL     OW89490   9.539  12.702   6.581
29239SOL    HW189491   9.507  12.682   6.493
29239SOL    HW289492   9.631  12.676   6.580
29240SOL     OW89493   2.271  13.636  14.450
29240SOL    HW189494   2.335  13.568  14.472
29240SOL    HW289495   2.189  13.604  14.487
29241SOL     OW89496  14.264   7.631  10.528
29241SOL    HW189497  14.286   7.594  10.614
29241SOL    HW289498  14.250   7.554  10.472
29242SOL     OW89499   1.636  14.314   2.701
29242SOL    HW189500   1.560  14.372   2.709
29242SOL    HW289501   1.635  14.288   2.609
29243SOL     OW89502   9.559   4.082   2.697
29243SOL    HW189503   9.651   4.108   2.694
29243SOL    HW289504   9.535   4.067   2.605
29244SOL     OW89505   9.972  11.576   6.052
29244SOL    HW189506  10.061  11.567   6.087
29244SOL    HW289507   9.932  11.644   6.106
29245SOL     OW89508   7.996   7.636  14.036
29245SOL    HW189509   7.936   7.706  14.059
29245SOL    HW289510   8.003   7.640  13.941
29246SOL     OW89511   7.278   8.209   5.491
29246SOL    HW189512   7.300   8.118   5.509
29246SOL    HW289513   7.202   8.227   5.547
29247SOL     OW89514   8.756   5.350   1.426
29247SOL    HW189515   8.693   5.405   1.472
29247SOL    HW289516   8.707   5.271   1.403
29248SOL     OW89517   1.577  13.814   3.238
29248SOL    HW189518   1.490  13.805   3.276
29248SOL    HW289519   1.585  13.738   3.180
29249SOL     OW89520   1.616  14.280  11.827
29249SOL    HW189521   1.539  14.318  11.784
29249SOL    HW289522   1.669  14.245  11.756
29250SOL     OW89523   7.173   0.360   3.668
29250SOL    HW189524   7.134   0.437   3.711
29250SOL    HW289525   7.110   0.338   3.598
29251SOL     OW89526  11.991   6.868   3.703
29251SOL    HW189527  12.053   6.937   3.677
29251SOL    HW289528  11.905   6.910   3.696
29252SOL     OW89529  10.577   0.285  10.318
29252SOL    HW189530  10.544   0.368  10.285
29252SOL    HW289531  10.653   0.308  10.371
29253SOL     OW89532   9.167   1.742  12.848
29253SOL    HW189533   9.123   1.731  12.932
29253SOL    HW289534   9.191   1.653  12.821
29254SOL     OW89535  12.677   3.393   0.809
29254SOL    HW189536  12.752   3.451   0.800
29254SOL    HW289537  12.714   3.305   0.809
29255SOL     OW89538   1.084   5.350  14.621
29255SOL    HW189539   1.171   5.385  14.639
29255SOL    HW289540   1.069   5.286  14.690
29256SOL     OW89541   4.584  14.748   4.193
29256SOL    HW189542   4.490  14.732   4.206
29256SOL    HW289543   4.617  14.764   4.281
29257SOL     OW89544   7.132   9.103  13.197
29257SOL    HW189545   7.054   9.070  13.153
29257SOL    HW289546   7.201   9.040  13.174
29258SOL     OW89547   0.988   7.669   5.967
29258SOL    HW189548   1.027   7.705   5.888
29258SOL    HW289549   1.053   7.607   6.000
29259SOL     OW89550   7.222   4.151  11.799
29259SOL    HW189551   7.271   4.229  11.824
29259SOL    HW289552   7.131   4.179  11.797
29260SOL     OW89553   1.506   3.623  11.215
29260SOL    HW189554   1.493   3.602  11.307
29260SOL    HW289555   1.595   3.657  11.210
29261SOL     OW89556   2.936   3.501   4.168
29261SOL    HW189557   2.892   3.532   4.247
29261SOL    HW289558   2.972   3.415   4.193
29262SOL     OW89559   5.338  11.534   4.112
29262SOL    HW189560   5.406  11.467   4.103
29262SOL    HW289561   5.347  11.588   4.034
29263SOL     OW89562  10.806   3.515  13.985
29263SOL    HW189563  10.787   3.497  14.077
29263SOL    HW289564  10.767   3.441  13.938
29264SOL     OW89565   3.643   5.613  11.259
29264SOL    HW189566   3.634   5.521  11.283
29264SOL    HW289567   3.645   5.660  11.343
29265SOL     OW89568   5.761   5.995   1.842
29265SOL    HW189569   5.688   5.990   1.904
29265SOL    HW289570   5.795   6.084   1.852
29266SOL     OW89571   5.702   1.876   2.136
29266SOL    HW189572   5.636   1.933   2.175
29266SOL    HW289573   5.785   1.911   2.167
29267SOL     OW89574   5.734  14.580  13.927
29267SOL    HW189575   5.829  14.587  13.919
29267SOL    HW289576   5.701  14.626  13.850
29268SOL     OW89577   9.899   7.066   4.188
29268SOL    HW189578   9.861   7.098   4.107
29268SOL    HW289579   9.891   6.970   4.182
29269SOL     OW89580   1.924   9.446   9.572
29269SOL    HW189581   1.973   9.365   9.582
29269SOL    HW289582   1.867   9.431   9.497
29270SOL     OW89583  10.730  10.065   5.103
29270SOL    HW189584  10.736  10.091   5.195
29270SOL    HW289585  10.681   9.982   5.106
29271SOL     OW89586   6.232  13.433   4.144
29271SOL    HW189587   6.280  13.476   4.074
29271SOL    HW289588   6.288  13.360   4.170
29272SOL     OW89589   0.569  14.835  10.674
29272SOL    HW189590   0.624  14.869  10.603
29272SOL    HW289591   0.631  14.800  10.737
29273SOL     OW89592   8.929  14.757   2.802
29273SOL    HW189593   8.930  14.753   2.897
29273SOL    HW289594   8.914  14.850   2.782
29274SOL     OW89595   5.652   0.148   3.015
29274SOL    HW189596   5.567   0.184   3.038
29274SOL    HW289597   5.714   0.219   3.030
29275SOL     OW89598   7.911   8.758   5.096
29275SOL    HW189599   7.848   8.708   5.149
29275SOL    HW289600   7.983   8.697   5.081
29276SOL     OW89601   4.546   5.490   7.676
29276SOL    HW189602   4.577   5.417   7.623
29276SOL    HW289603   4.459   5.464   7.705
29277SOL     OW89604  12.710   9.002  11.336
29277SOL    HW189605  12.777   8.962  11.281
29277SOL    HW289606  12.759   9.038  11.411
29278SOL     OW89607   1.190  13.608  13.188
29278SOL    HW189608   1.281  13.622  13.162
29278SOL    HW289609   1.143  13.594  13.105
29279SOL     OW89610   0.855   9.419   8.398
29279SOL    HW189611   0.898   9.433   8.482
29279SOL    HW289612   0.800   9.496   8.385
29280SOL     OW89613  14.161   0.260   4.980
29280SOL    HW189614  14.165   0.240   4.886
29280SOL    HW289615  14.084   0.315   4.990
29281SOL     OW89616  13.319   0.520  11.844
29281SOL    HW189617  13.377   0.583  11.886
29281SOL    HW289618  13.317   0.445  11.904
29282SOL     OW89619   2.109   7.955  10.991
29282SOL    HW189620   2.200   7.952  11.019
29282SOL    HW289621   2.105   7.900  10.913
29283SOL     OW89622   7.798   8.023   2.885
29283SOL    HW189623   7.787   7.927   2.884
29283SOL    HW289624   7.861   8.039   2.955
29284SOL     OW89625   2.667   8.020   3.534
29284SOL    HW189626   2.735   7.962   3.500
29284SOL    HW289627   2.683   8.024   3.628
29285SOL     OW89628  13.456   7.125  11.806
29285SOL    HW189629  13.403   7.084  11.738
29285SOL    HW289630  13.546   7.118  11.772
29286SOL     OW89631   4.720   0.300   0.847
29286SOL    HW189632   4.682   0.256   0.771
29286SOL    HW289633   4.693   0.247   0.922
29287SOL     OW89634  10.124   7.111   3.771
29287SOL    HW189635  10.077   7.040   3.816
29287SOL    HW289636  10.055   7.174   3.749
29288SOL     OW89637  12.228   0.535   6.581
29288SOL    HW189638  12.305   0.556   6.635
29288SOL    HW289639  12.232   0.441   6.568
29289SOL     OW89640   9.825  12.662   6.632
29289SOL    HW189641   9.900  12.702   6.677
29289SOL    HW289642   9.862  12.585   6.589
29290SOL     OW89643   7.367   1.166   0.312
29290SOL    HW189644   7.439   1.208   0.358
29290SOL    HW289645   7.289   1.213   0.343
29291SOL     OW89646   9.190  11.842   9.854
29291SOL    HW189647   9.134  11.765   9.862
29291SOL    HW289648   9.261  11.813   9.797
29292SOL     OW89649  12.282  11.293   3.356
29292SOL    HW189650  12.191  11.299   3.384
29292SOL    HW289651  12.280  11.232   3.282
29293SOL     OW89652  12.237   5.489  14.127
29293SOL    HW189653  12.199   5.455  14.208
29293SOL    HW289654  12.168   5.542  14.088
29294SOL     OW89655  11.429  11.758  13.528
29294SOL    HW189656  11.418  11.673  13.487
29294SOL    HW289657  11.340  11.784  13.553
29295SOL     OW89658   8.202   3.003   1.565
29295SOL    HW189659   8.126   3.031   1.616
29295SOL    HW289660   8.273   2.999   1.629
29296SOL     OW89661   0.110   2.679  14.396
29296SOL    HW189662   0.019   2.665  14.424
29296SOL    HW289663   0.122   2.774  14.401
29297SOL     OW89664  10.376   3.184   9.866
29297SOL    HW189665  10.419   3.171   9.782
29297SOL    HW289666  10.357   3.095   9.898
29298SOL     OW89667  11.571  14.761  13.668
29298SOL    HW189668  11.617  14.714  13.598
29298SOL    HW289669  11.622  14.841  13.680
29299SOL     OW89670   1.889   1.177  14.186
29299SOL    HW189671   1.807   1.129  14.169
29299SOL    HW289672   1.942   1.162  14.107
29300SOL     OW89673  10.845  13.096  13.538
29300SOL    HW189674  10.861  13.174  13.485
29300SOL    HW289675  10.816  13.030  13.475
29301SOL     OW89676  10.909   3.391   3.550
29301SOL    HW189677  10.862   3.470   3.576
29301SOL    HW289678  10.990   3.393   3.602
29302SOL     OW89679   5.819   3.716  12.473
29302SOL    HW189680   5.893   3.762  12.433
29302SOL    HW289681   5.858   3.660  12.540
29303SOL     OW89682   3.002   3.953   9.188
29303SOL    HW189683   2.917   3.995   9.173
29303SOL    HW289684   3.040   3.944   9.100
29304SOL     OW89685   8.043   3.629   1.495
29304SOL    HW189686   8.124   3.679   1.481
29304SOL    HW289687   7.985   3.691   1.540
29305SOL     OW89688   9.273   6.207  14.774
29305SOL    HW189689   9.222   6.178  14.849
29305SOL    HW289690   9.260   6.139  14.708
29306SOL     OW89691  14.311   4.139   8.928
29306SOL    HW189692  14.276   4.058   8.967
29306SOL    HW289693  14.370   4.109   8.859
29307SOL     OW89694   6.835  14.609   8.521
29307SOL    HW189695   6.840  14.556   8.442
29307SOL    HW289696   6.752  14.584   8.562
29308SOL     OW89697   0.908  11.284   5.387
29308SOL    HW189698   0.893  11.323   5.472
29308SOL    HW289699   0.899  11.356   5.325
29309SOL     OW89700   0.881   7.205   2.672
29309SOL    HW189701   0.829   7.183   2.750
29309SOL    HW289702   0.933   7.126   2.654
29310SOL     OW89703  13.585   7.676   6.380
29310SOL    HW189704  13.595   7.585   6.405
29310SOL    HW289705  13.673   7.705   6.357
29311SOL     OW89706   6.326  13.226  11.578
29311SOL    HW189707   6.392  13.240  11.510
29311SOL    HW289708   6.247  13.200  11.531
29312SOL     OW89709   6.654  11.311   3.963
29312SOL    HW189710   6.701  11.294   4.045
29312SOL    HW289711   6.605  11.392   3.980
29313SOL     OW89712   1.005   4.127   5.537
29313SOL    HW189713   0.952   4.204   5.518
29313SOL    HW289714   1.088   4.143   5.492
29314SOL     OW89715   3.715   5.265   5.468
29314SOL    HW189716   3.650   5.213   5.516
29314SOL    HW289717   3.729   5.217   5.387
29315SOL     OW89718   1.152  13.215  12.392
29315SOL    HW189719   1.177  13.260  12.311
29315SOL    HW289720   1.184  13.126  12.380
29316SOL     OW89721  13.685   9.134  11.038
29316SOL    HW189722  13.772   9.174  11.042
29316SOL    HW289723  13.695   9.061  10.976
29317SOL     OW89724  10.867  12.090  12.601
29317SOL    HW189725  10.780  12.115  12.570
29317SOL    HW289726  10.882  12.147  12.677
29318SOL     OW89727   3.702   2.309  13.845
29318SOL    HW189728   3.702   2.222  13.805
29318SOL    HW289729   3.728   2.293  13.936
29319SOL     OW89730   3.037  12.277   1.047
29319SOL    HW189731   3.002  12.195   1.083
29319SOL    HW289732   3.125  12.254   1.017
29320SOL     OW89733   9.758   7.050  13.456
29320SOL    HW189734   9.705   7.009  13.388
29320SOL    HW289735   9.824   7.100  13.408
29321SOL     OW89736   0.133   0.321   7.217
29321SOL    HW189737   0.044   0.286   7.223
29321SOL    HW289738   0.171   0.275   7.142
29322SOL     OW89739  12.458  10.476  12.825
29322SOL    HW189740  12.473  10.540  12.894
29322SOL    HW289741  12.389  10.514  12.771
29323SOL     OW89742   4.089   8.783   8.639
29323SOL    HW189743   4.060   8.871   8.662
29323SOL    HW289744   4.183   8.784   8.651
29324SOL     OW89745   4.110   2.770  10.607
29324SOL    HW189746   4.085   2.712  10.678
29324SOL    HW289747   4.147   2.712  10.540
29325SOL     OW89748   9.187  11.429  12.012
29325SOL    HW189749   9.138  11.392  12.086
29325SOL    HW289750   9.193  11.522  12.032
29326SOL     OW89751   5.318   0.241   6.361
29326SOL    HW189752   5.321   0.146   6.351
29326SOL    HW289753   5.250   0.268   6.299
29327SOL     OW89754  14.044   0.166  12.406
29327SOL    HW189755  14.075   0.257  12.408
29327SOL    HW289756  13.971   0.167  12.345
29328SOL     OW89757  12.367   0.365  11.745
29328SOL    HW189758  12.420   0.445  11.741
29328SOL    HW289759  12.424   0.296  11.710
29329SOL     OW89760   4.586   9.782   4.683
29329SOL    HW189761   4.680   9.803   4.689
29329SOL    HW289762   4.559   9.766   4.774
29330SOL     OW89763  13.718   8.473  11.637
29330SOL    HW189764  13.738   8.563  11.613
29330SOL    HW289765  13.786   8.449  11.700
29331SOL     OW89766   8.576  14.519  11.824
29331SOL    HW189767   8.613  14.433  11.803
29331SOL    HW289768   8.609  14.538  11.912
29332SOL     OW89769   7.120  12.571   8.758
29332SOL    HW189770   7.162  12.617   8.685
29332SOL    HW289771   7.124  12.632   8.831
29333SOL     OW89772  12.600   0.776  13.168
29333SOL    HW189773  12.607   0.798  13.075
29333SOL    HW289774  12.531   0.709  13.172
29334SOL     OW89775   0.153  13.530   3.479
29334SOL    HW189776   0.180  13.617   3.508
29334SOL    HW289777   0.057  13.532   3.483
29335SOL     OW89778  10.100   8.881   5.709
29335SOL    HW189779  10.076   8.937   5.784
29335SOL    HW289780  10.145   8.807   5.748
29336SOL     OW89781   4.536   1.946   1.177
29336SOL    HW189782   4.481   1.899   1.240
29336SOL    HW289783   4.533   2.037   1.206
29337SOL     OW89784   1.426  12.657  11.655
29337SOL    HW189785   1.409  12.738  11.605
29337SOL    HW289786   1.367  12.593  11.616
29338SOL     OW89787  14.112   3.122  10.009
29338SOL    HW189788  14.127   3.207   9.967
29338SOL    HW289789  14.195   3.102  10.054
29339SOL     OW89790   6.009  12.636   4.964
29339SOL    HW189791   6.080  12.699   4.977
29339SOL    HW289792   6.054  12.551   4.957
29340SOL     OW89793   6.967   3.528   8.161
29340SOL    HW189794   6.995   3.437   8.145
29340SOL    HW289795   6.946   3.562   8.074
29341SOL     OW89796   0.582  12.636   3.869
29341SOL    HW189797   0.606  12.692   3.795
29341SOL    HW289798   0.487  12.637   3.870
29342SOL     OW89799   8.015   1.680  10.909
29342SOL    HW189800   8.027   1.585  10.916
29342SOL    HW289801   7.924   1.695  10.936
29343SOL     OW89802  10.178  14.765   3.531
29343SOL    HW189803  10.132  14.710   3.467
29343SOL    HW289804  10.250  14.805   3.481
29344SOL     OW89805   9.521   8.096   2.868
29344SOL    HW189806   9.479   8.168   2.820
29344SOL    HW289807   9.596   8.072   2.813
29345SOL     OW89808  11.868   4.453   6.792
29345SOL    HW189809  11.935   4.386   6.789
29345SOL    HW289810  11.867   4.491   6.704
29346SOL     OW89811   0.210   6.291   0.306
29346SOL    HW189812   0.254   6.290   0.390
29346SOL    HW289813   0.280   6.285   0.241
29347SOL     OW89814  12.033   1.751   1.337
29347SOL    HW189815  12.042   1.664   1.375
29347SOL    HW289816  12.121   1.788   1.339
29348SOL     OW89817  11.981   7.431  14.208
29348SOL    HW189818  12.017   7.495  14.268
29348SOL    HW289819  12.045   7.361  14.205
29349SOL     OW89820   2.922  10.127   7.448
29349SOL    HW189821   2.833  10.151   7.424
29349SOL    HW289822   2.914  10.043   7.494
29350SOL     OW89823   9.952   6.587  14.289
29350SOL    HW189824   9.988   6.540  14.364
29350SOL    HW289825  10.026   6.596  14.229
29351SOL     OW89826  14.782   6.929  11.823
29351SOL    HW189827  14.729   6.983  11.765
29351SOL    HW289828  14.851   6.893  11.767
29352SOL     OW89829  14.667  10.804  12.340
29352SOL    HW189830  14.627  10.731  12.387
29352SOL    HW289831  14.601  10.829  12.275
29353SOL     OW89832  14.088  13.486  10.787
29353SOL    HW189833  14.003  13.456  10.819
29353SOL    HW289834  14.150  13.422  10.822
29354SOL     OW89835  12.142   7.141   8.746
29354SOL    HW189836  12.054   7.170   8.724
29354SOL    HW289837  12.135   7.047   8.758
29355SOL     OW89838  14.324   6.638   0.921
29355SOL    HW189839  14.254   6.698   0.948
29355SOL    HW289840  14.354   6.598   1.003
29356SOL     OW89841   4.976   8.370  12.507
29356SOL    HW189842   5.065   8.346  12.482
29356SOL    HW289843   4.931   8.389  12.424
29357SOL     OW89844   9.675   3.981  12.846
29357SOL    HW189845   9.617   3.906  12.860
29357SOL    HW289846   9.618   4.057  12.862
29358SOL     OW89847   2.378   8.715  14.630
29358SOL    HW189848   2.457   8.765  14.651
29358SOL    HW289849   2.333   8.704  14.714
29359SOL     OW89850   6.529   6.042  12.740
29359SOL    HW189851   6.586   6.002  12.674
29359SOL    HW289852   6.574   6.026  12.824
29360SOL     OW89853   0.258  13.351  12.872
29360SOL    HW189854   0.331  13.308  12.827
29360SOL    HW289855   0.230  13.420  12.812
29361SOL     OW89856  13.516  12.170   0.590
29361SOL    HW189857  13.607  12.187   0.613
29361SOL    HW289858  13.482  12.255   0.560
29362SOL     OW89859   3.847   9.082   8.391
29362SOL    HW189860   3.783   9.026   8.348
29362SOL    HW289861   3.901   9.116   8.321
29363SOL     OW89862   7.296   8.461  11.928
29363SOL    HW189863   7.221   8.500  11.973
29363SOL    HW289864   7.344   8.535  11.891
29364SOL     OW89865   1.216  10.765   6.151
29364SOL    HW189866   1.143  10.705   6.167
29364SOL    HW289867   1.237  10.800   6.238
29365SOL     OW89868  13.296  13.090   2.017
29365SOL    HW189869  13.260  13.158   1.959
29365SOL    HW289870  13.390  13.108   2.018
29366SOL     OW89871  13.551   7.586  14.494
29366SOL    HW189872  13.486   7.650  14.524
29366SOL    HW289873  13.501   7.519  14.448
29367SOL     OW89874   8.709   8.904   3.214
29367SOL    HW189875   8.679   8.837   3.153
29367SOL    HW289876   8.629   8.947   3.243
29368SOL     OW89877   2.365   8.386   0.547
29368SOL    HW189878   2.439   8.414   0.493
29368SOL    HW289879   2.288   8.400   0.492
29369SOL     OW89880  10.659   1.423   6.566
29369SOL    HW189881  10.666   1.388   6.477
29369SOL    HW289882  10.744   1.402   6.606
29370SOL     OW89883   5.165  14.160  14.697
29370SOL    HW189884   5.218  14.093  14.739
29370SOL    HW289885   5.091  14.112  14.660
29371SOL     OW89886   8.683   0.935  14.657
29371SOL    HW189887   8.655   0.998  14.590
29371SOL    HW289888   8.601   0.904  14.696
29372SOL     OW89889   6.355   7.313  11.017
29372SOL    HW189890   6.438   7.273  10.991
29372SOL    HW289891   6.291   7.241  11.010
29373SOL     OW89892   3.001  11.130   8.595
29373SOL    HW189893   3.032  11.065   8.533
29373SOL    HW289894   2.983  11.081   8.675
29374SOL     OW89895  11.553   4.669   5.381
29374SOL    HW189896  11.492   4.671   5.307
29374SOL    HW289897  11.580   4.760   5.392
29375SOL     OW89898   0.735   3.608   2.031
29375SOL    HW189899   0.723   3.702   2.017
29375SOL    HW289900   0.647   3.574   2.048
29376SOL     OW89901  14.338   1.050  12.711
29376SOL    HW189902  14.287   1.013  12.639
29376SOL    HW289903  14.304   1.006  12.789
29377SOL     OW89904  11.086   0.483   3.210
29377SOL    HW189905  11.016   0.441   3.260
29377SOL    HW289906  11.149   0.511   3.276
29378SOL     OW89907   3.096   5.832   9.730
29378SOL    HW189908   3.177   5.876   9.704
29378SOL    HW289909   3.113   5.801   9.819
29379SOL     OW89910   0.974  10.434  10.147
29379SOL    HW189911   0.920  10.388  10.212
29379SOL    HW289912   1.042  10.476  10.199
29380SOL     OW89913   1.252   4.001   0.746
29380SOL    HW189914   1.246   3.985   0.652
29380SOL    HW289915   1.212   4.087   0.759
29381SOL     OW89916   7.741  11.131   1.880
29381SOL    HW189917   7.722  11.224   1.893
29381SOL    HW289918   7.723  11.116   1.787
29382SOL     OW89919  10.264   5.893   3.402
29382SOL    HW189920  10.210   5.909   3.479
29382SOL    HW289921  10.264   5.798   3.391
29383SOL     OW89922   9.772   2.410  13.156
29383SOL    HW189923   9.853   2.368  13.182
29383SOL    HW289924   9.733   2.442  13.237
29384SOL     OW89925   2.026   9.184   9.393
29384SOL    HW189926   2.053   9.214   9.480
29384SOL    HW289927   2.051   9.092   9.391
29385SOL     OW89928   9.870   2.605   0.946
29385SOL    HW189929   9.877   2.642   0.858
29385SOL    HW289930   9.925   2.527   0.945
29386SOL     OW89931   7.905  11.436   9.289
29386SOL    HW189932   7.915  11.523   9.328
29386SOL    HW289933   7.814  11.433   9.259
29387SOL     OW89934   1.234   7.096   7.826
29387SOL    HW189935   1.260   7.161   7.761
29387SOL    HW289936   1.138   7.095   7.822
29388SOL     OW89937   3.000  11.394   4.409
29388SOL    HW189938   3.006  11.301   4.430
29388SOL    HW289939   3.050  11.403   4.327
29389SOL     OW89940   5.769   0.302   4.368
29389SOL    HW189941   5.696   0.350   4.330
29389SOL    HW289942   5.744   0.210   4.360
29390SOL     OW89943  13.536   0.837   1.912
29390SOL    HW189944  13.457   0.889   1.926
29390SOL    HW289945  13.525   0.761   1.969
29391SOL     OW89946  14.195  10.637   2.593
29391SOL    HW189947  14.281  10.642   2.634
29391SOL    HW289948  14.208  10.585   2.514
29392SOL     OW89949  10.596  11.423   4.559
29392SOL    HW189950  10.675  11.417   4.506
29392SOL    HW289951  10.591  11.339   4.604
29393SOL     OW89952   6.439  10.397   5.203
29393SOL    HW189953   6.404  10.359   5.284
29393SOL    HW289954   6.379  10.468   5.182
29394SOL     OW89955   0.191   0.335  13.896
29394SOL    HW189956   0.224   0.267  13.837
29394SOL    HW289957   0.266   0.393  13.909
29395SOL     OW89958   1.672  13.496   1.182
29395SOL    HW189959   1.715  13.423   1.227
29395SOL    HW289960   1.713  13.574   1.218
29396SOL     OW89961   6.698  12.718   3.999
29396SOL    HW189962   6.629  12.709   3.933
29396SOL    HW289963   6.660  12.778   4.064
29397SOL     OW89964  12.000   7.861  14.846
29397SOL    HW189965  12.063   7.860  14.774
29397SOL    HW289966  12.002   7.952  14.878
29398SOL     OW89967  14.678   2.202   2.448
29398SOL    HW189968  14.676   2.118   2.402
29398SOL    HW289969  14.655   2.180   2.538
29399SOL     OW89970   9.769  13.139   7.409
29399SOL    HW189971   9.678  13.157   7.384
29399SOL    HW289972   9.821  13.168   7.334
29400SOL     OW89973   7.747   8.939   3.435
29400SOL    HW189974   7.695   8.885   3.495
29400SOL    HW289975   7.720   8.910   3.348
29401SOL     OW89976   1.915   2.687  13.409
29401SOL    HW189977   1.954   2.608  13.372
29401SOL    HW289978   1.890   2.661  13.498
29402SOL     OW89979  11.396  10.657   7.704
29402SOL    HW189980  11.376  10.679   7.613
29402SOL    HW289981  11.483  10.617   7.700
29403SOL     OW89982   6.023   3.112   5.434
29403SOL    HW189983   6.067   3.045   5.487
29403SOL    HW289984   6.008   3.184   5.495
29404SOL     OW89985  10.879   2.917  14.358
29404SOL    HW189986  10.925   2.841  14.322
29404SOL    HW289987  10.946   2.965  14.407
29405SOL     OW89988  10.726   7.782  10.797
29405SOL    HW189989  10.635   7.770  10.768
29405SOL    HW289990  10.754   7.863  10.753
29406SOL     OW89991   7.969  10.523   3.220
29406SOL    HW189992   7.958  10.428   3.215
29406SOL    HW289993   8.057  10.535   3.254
29407SOL     OW89994  14.333   8.223   1.071
29407SOL    HW189995  14.298   8.256   0.988
29407SOL    HW289996  14.409   8.278   1.088
29408SOL     OW89997  13.247   6.411  12.739
29408SOL    HW189998  13.199   6.493  12.751
29408SOL    HW289999  13.301   6.426  12.661
29409SOL     OW90000   4.818  10.297   8.580
29409SOL    HW190001   4.755  10.298   8.508
29409SOL    HW290002   4.770  10.333   8.654
29410SOL     OW90003   3.034   2.004   7.174
29410SOL    HW190004   3.066   2.079   7.123
29410SOL    HW290005   3.077   2.012   7.259
29411SOL     OW90006   0.809   0.678  14.317
29411SOL    HW190007   0.845   0.595  14.348
29411SOL    HW290008   0.884   0.727  14.284
29412SOL     OW90009   9.528   9.719   1.321
29412SOL    HW190010   9.556   9.636   1.361
29412SOL    HW290011   9.433   9.717   1.326
29413SOL     OW90012   9.319  12.419  11.971
29413SOL    HW190013   9.323  12.376  12.056
29413SOL    HW290014   9.407  12.454  11.957
29414SOL     OW90015   7.024  13.566  13.038
29414SOL    HW190016   6.986  13.490  12.993
29414SOL    HW290017   7.087  13.601  12.975
29415SOL     OW90018   0.446   7.259   1.759
29415SOL    HW190019   0.386   7.304   1.699
29415SOL    HW290020   0.474   7.326   1.821
29416SOL     OW90021  11.363   8.989   2.662
29416SOL    HW190022  11.400   9.011   2.577
29416SOL    HW290023  11.291   8.929   2.643
29417SOL     OW90024   6.331   8.821   3.456
29417SOL    HW190025   6.355   8.776   3.537
29417SOL    HW290026   6.236   8.823   3.456
29418SOL     OW90027  12.360  10.102   1.051
29418SOL    HW190028  12.453  10.120   1.063
29418SOL    HW290029  12.344  10.022   1.100
29419SOL     OW90030   5.871  11.273   0.664
29419SOL    HW190031   5.824  11.319   0.734
29419SOL    HW290032   5.928  11.340   0.626
29420SOL     OW90033   1.946   6.329   0.481
29420SOL    HW190034   1.975   6.275   0.554
29420SOL    HW290035   1.863   6.290   0.453
29421SOL     OW90036   1.275   2.977  10.380
29421SOL    HW190037   1.296   3.058  10.333
29421SOL    HW290038   1.270   3.004  10.472
29422SOL     OW90039   9.266  10.759   1.627
29422SOL    HW190040   9.297  10.794   1.710
29422SOL    HW290041   9.344  10.754   1.572
29423SOL     OW90042   7.758  11.566  10.409
29423SOL    HW190043   7.722  11.486  10.447
29423SOL    HW290044   7.824  11.536  10.348
29424SOL     OW90045  13.086   6.347   2.377
29424SOL    HW190046  13.059   6.294   2.301
29424SOL    HW290047  13.045   6.303   2.452
29425SOL     OW90048   3.412   1.370  12.098
29425SOL    HW190049   3.479   1.421  12.143
29425SOL    HW290050   3.329   1.409  12.124
29426SOL     OW90051   1.042   9.755   6.405
29426SOL    HW190052   1.114   9.705   6.366
29426SOL    HW290053   1.016   9.816   6.335
29427SOL     OW90054   5.418  14.717   3.509
29427SOL    HW190055   5.441  14.658   3.437
29427SOL    HW290056   5.330  14.747   3.487
29428SOL     OW90057   9.579  10.002   1.826
29428SOL    HW190058   9.611  10.093   1.826
29428SOL    HW290059   9.488  10.009   1.852
29429SOL     OW90060   0.325   9.507   9.851
29429SOL    HW190061   0.380   9.517   9.929
29429SOL    HW290062   0.298   9.416   9.852
29430SOL     OW90063  13.612   9.896  10.053
29430SOL    HW190064  13.561   9.819  10.080
29430SOL    HW290065  13.546   9.958  10.022
29431SOL     OW90066   2.475   3.955  13.484
29431SOL    HW190067   2.554   3.923  13.528
29431SOL    HW290068   2.506   4.025  13.426
29432SOL     OW90069   6.303  12.963  14.836
29432SOL    HW190070   6.266  12.922   0.033
29432SOL    HW290071   6.265  12.914  14.763
29433SOL     OW90072   0.942   4.537   2.339
29433SOL    HW190073   0.889   4.587   2.401
29433SOL    HW290074   1.031   4.543   2.374
29434SOL     OW90075   8.250   1.686   9.123
29434SOL    HW190076   8.254   1.686   9.027
29434SOL    HW290077   8.229   1.596   9.147
29435SOL     OW90078  13.262   0.819   7.129
29435SOL    HW190079  13.238   0.898   7.179
29435SOL    HW290080  13.271   0.850   7.039
29436SOL     OW90081   6.029   2.807   1.529
29436SOL    HW190082   5.964   2.804   1.460
29436SOL    HW290083   6.097   2.867   1.496
29437SOL     OW90084   9.661   0.488   3.810
29437SOL    HW190085   9.657   0.404   3.855
29437SOL    HW290086   9.610   0.547   3.866
29438SOL     OW90087   4.408  14.650   6.714
29438SOL    HW190088   4.421  14.590   6.641
29438SOL    HW290089   4.494  14.691   6.728
29439SOL     OW90090   7.233   6.790  10.911
29439SOL    HW190091   7.249   6.884  10.917
29439SOL    HW290092   7.218   6.762  11.001
29440SOL     OW90093   7.269  10.145   5.407
29440SOL    HW190094   7.324  10.089   5.462
29440SOL    HW290095   7.180  10.127   5.436
29441SOL     OW90096   8.466   1.273   8.437
29441SOL    HW190097   8.446   1.204   8.374
29441SOL    HW290098   8.442   1.236   8.522
29442SOL     OW90099  11.349   9.445   2.181
29442SOL    HW190100  11.268   9.401   2.156
29442SOL    HW290101  11.355   9.432   2.276
29443SOL     OW90102  14.443   3.903  10.353
29443SOL    HW190103  14.414   3.825  10.401
29443SOL    HW290104  14.533   3.916  10.382
29444SOL     OW90105  14.816   4.858  10.923
29444SOL    HW190106   0.022   4.828  10.944
29444SOL    HW290107  14.759   4.783  10.942
29445SOL     OW90108  12.026  13.305   6.342
29445SOL    HW190109  11.941  13.330   6.379
29445SOL    HW290110  12.017  13.322   6.248
29446SOL     OW90111  10.293  11.865  12.097
29446SOL    HW190112  10.337  11.940  12.137
29446SOL    HW290113  10.318  11.869  12.005
29447SOL     OW90114  13.904   6.337   7.162
29447SOL    HW190115  13.825   6.375   7.200
29447SOL    HW290116  13.967   6.409   7.158
29448SOL     OW90117   7.927   6.334   9.354
29448SOL    HW190118   7.962   6.387   9.283
29448SOL    HW290119   7.908   6.396   9.424
29449SOL     OW90120   1.633  13.173   4.777
29449SOL    HW190121   1.557  13.220   4.741
29449SOL    HW290122   1.614  13.081   4.760
29450SOL     OW90123   8.366  13.886   8.199
29450SOL    HW190124   8.461  13.876   8.207
29450SOL    HW290125   8.331  13.844   8.278
29451SOL     OW90126  10.248   1.764  12.292
29451SOL    HW190127  10.221   1.837  12.236
29451SOL    HW290128  10.199   1.777  12.373
29452SOL     OW90129  11.456   1.081   7.546
29452SOL    HW190130  11.439   1.010   7.484
29452SOL    HW290131  11.439   1.043   7.632
29453SOL     OW90132   9.692   6.439   8.290
29453SOL    HW190133   9.693   6.484   8.206
29453SOL    HW290134   9.599   6.420   8.306
29454SOL     OW90135   4.495   0.761   2.997
29454SOL    HW190136   4.563   0.714   3.044
29454SOL    HW290137   4.529   0.851   2.989
29455SOL     OW90138   2.179   2.663   2.424
29455SOL    HW190139   2.112   2.727   2.447
29455SOL    HW290140   2.221   2.641   2.507
29456SOL     OW90141  10.046  12.484   8.836
29456SOL    HW190142   9.980  12.418   8.817
29456SOL    HW290143  10.038  12.547   8.764
29457SOL     OW90144   5.944   8.046   7.473
29457SOL    HW190145   5.963   8.131   7.513
29457SOL    HW290146   5.976   8.055   7.383
29458SOL     OW90147   5.059   2.973  11.916
29458SOL    HW190148   5.058   3.058  11.959
29458SOL    HW290149   5.049   2.992  11.823
29459SOL     OW90150   6.602   2.979   6.222
29459SOL    HW190151   6.635   2.937   6.301
29459SOL    HW290152   6.517   3.014   6.246
29460SOL     OW90153  13.564   9.424   7.317
29460SOL    HW190154  13.639   9.483   7.323
29460SOL    HW290155  13.516   9.439   7.399
29461SOL     OW90156   2.360  13.154  13.716
29461SOL    HW190157   2.423  13.085  13.691
29461SOL    HW290158   2.321  13.181  13.633
29462SOL     OW90159   6.862   9.161   8.485
29462SOL    HW190160   6.948   9.122   8.473
29462SOL    HW290161   6.878   9.236   8.544
29463SOL     OW90162   6.521   4.998  12.185
29463SOL    HW190163   6.577   4.980  12.261
29463SOL    HW290164   6.581   5.011  12.112
29464SOL     OW90165   6.032   8.263   6.992
29464SOL    HW190166   6.041   8.258   6.897
29464SOL    HW290167   6.036   8.356   7.013
29465SOL     OW90168   1.264  13.769   2.765
29465SOL    HW190169   1.271  13.712   2.688
29465SOL    HW290170   1.176  13.807   2.758
29466SOL     OW90171   8.465   0.762  14.067
29466SOL    HW190172   8.505   0.675  14.060
29466SOL    HW290173   8.538   0.823  14.060
29467SOL     OW90174   4.021   3.667  10.798
29467SOL    HW190175   4.036   3.588  10.851
29467SOL    HW290176   3.935   3.653  10.759
29468SOL     OW90177  10.370  14.310   9.810
29468SOL    HW190178  10.333  14.395   9.786
29468SOL    HW290179  10.296  14.250   9.810
29469SOL     OW90180   2.193   8.955   9.076
29469SOL    HW190181   2.159   8.960   9.165
29469SOL    HW290182   2.277   8.909   9.085
29470SOL     OW90183   3.084   6.438  10.654
29470SOL    HW190184   3.140   6.420  10.578
29470SOL    HW290185   3.065   6.532  10.649
29471SOL     OW90186  12.146  12.763   6.776
29471SOL    HW190187  12.104  12.846   6.754
29471SOL    HW290188  12.113  12.742   6.863
29472SOL     OW90189   7.676   1.932   6.632
29472SOL    HW190190   7.644   1.980   6.555
29472SOL    HW290191   7.679   1.998   6.701
29473SOL     OW90192   1.210  12.476   0.577
29473SOL    HW190193   1.219  12.512   0.489
29473SOL    HW290194   1.228  12.550   0.635
29474SOL     OW90195  11.813   9.185   2.470
29474SOL    HW190196  11.849   9.096   2.458
29474SOL    HW290197  11.770   9.182   2.556
29475SOL     OW90198   6.113   9.369   3.418
29475SOL    HW190199   6.042   9.370   3.482
29475SOL    HW290200   6.192   9.385   3.471
29476SOL     OW90201  14.691   0.283   4.180
29476SOL    HW190202  14.710   0.196   4.145
29476SOL    HW290203  14.652   0.331   4.107
29477SOL     OW90204  10.697   5.884   2.981
29477SOL    HW190205  10.613   5.890   2.935
29477SOL    HW290206  10.763   5.902   2.914
29478SOL     OW90207   0.575  12.643  13.917
29478SOL    HW190208   0.522  12.584  13.864
29478SOL    HW290209   0.656  12.654  13.867
29479SOL     OW90210   9.602   5.197  13.138
29479SOL    HW190211   9.575   5.109  13.110
29479SOL    HW290212   9.524   5.233  13.180
29480SOL     OW90213   3.709   3.877   5.110
29480SOL    HW190214   3.749   3.863   5.196
29480SOL    HW290215   3.657   3.798   5.095
29481SOL     OW90216   1.023   8.798   5.062
29481SOL    HW190217   1.114   8.786   5.035
29481SOL    HW290218   1.025   8.795   5.157
29482SOL     OW90219  11.041  12.660   9.567
29482SOL    HW190220  11.122  12.680   9.520
29482SOL    HW290221  11.047  12.567   9.588
29483SOL     OW90222  10.070  11.354  11.397
29483SOL    HW190223  10.103  11.348  11.307
29483SOL    HW290224  10.123  11.424  11.437
29484SOL     OW90225  12.767  14.877   4.139
29484SOL    HW190226  12.732   0.083   4.156
29484SOL    HW290227  12.845   0.011   4.086
29485SOL     OW90228   0.407   1.672  10.499
29485SOL    HW190229   0.327   1.625  10.477
29485SOL    HW290230   0.383   1.728  10.572
29486SOL     OW90231   7.509  13.847   3.498
29486SOL    HW190232   7.452  13.820   3.425
29486SOL    HW290233   7.496  13.778   3.564
29487SOL     OW90234   3.681   1.629   0.036
29487SOL    HW190235   3.669   1.554   0.095
29487SOL    HW290236   3.713   1.699   0.093
29488SOL     OW90237  10.240   8.128   3.132
29488SOL    HW190238  10.291   8.069   3.077
29488SOL    HW290239  10.295   8.206   3.140
29489SOL     OW90240   8.036   7.745   0.213
29489SOL    HW190241   8.079   7.790   0.140
29489SOL    HW290242   7.948   7.725   0.180
29490SOL     OW90243   2.221   2.650  13.566
29490SOL    HW190244   2.187   2.605  13.489
29490SOL    HW290245   2.298   2.697  13.534
29491SOL     OW90246   9.747   2.550   5.312
29491SOL    HW190247   9.683   2.528   5.379
29491SOL    HW290248   9.714   2.508   5.233
29492SOL     OW90249  13.756  11.755   9.520
29492SOL    HW190250  13.680  11.814   9.525
29492SOL    HW290251  13.810  11.779   9.595
29493SOL     OW90252  10.878   6.111   4.617
29493SOL    HW190253  10.834   6.048   4.560
29493SOL    HW290254  10.937   6.058   4.671
29494SOL     OW90255  14.719   0.289   9.536
29494SOL    HW190256  14.689   0.210   9.580
29494SOL    HW290257  14.779   0.330   9.598
29495SOL     OW90258   3.281   7.040  11.613
29495SOL    HW190259   3.269   7.102  11.540
29495SOL    HW290260   3.204   6.983  11.609
29496SOL     OW90261  13.003   6.005   0.984
29496SOL    HW190262  12.969   6.092   0.966
29496SOL    HW290263  13.011   5.964   0.898
29497SOL     OW90264   0.042   1.866   9.149
29497SOL    HW190265   0.015   1.776   9.166
29497SOL    HW290266   0.125   1.876   9.195
29498SOL     OW90267  10.809   8.623   3.373
29498SOL    HW190268  10.858   8.565   3.432
29498SOL    HW290269  10.848   8.607   3.287
29499SOL     OW90270  11.607   2.924   5.146
29499SOL    HW190271  11.602   2.960   5.234
29499SOL    HW290272  11.528   2.955   5.102
29500SOL     OW90273   0.022  12.696   4.768
29500SOL    HW190274   0.059  12.782   4.789
29500SOL    HW290275   0.030  12.690   4.672
29501SOL     OW90276  10.513   3.840  12.226
29501SOL    HW190277  10.535   3.888  12.146
29501SOL    HW290278  10.475   3.758  12.196
29502SOL     OW90279   0.111   3.796  13.780
29502SOL    HW190280   0.156   3.880  13.773
29502SOL    HW290281   0.049   3.807  13.852
29503SOL     OW90282   7.625   3.739  12.253
29503SOL    HW190283   7.654   3.701  12.336
29503SOL    HW290284   7.678   3.818  12.243
29504SOL     OW90285   2.284   1.371   4.266
29504SOL    HW190286   2.197   1.398   4.295
29504SOL    HW290287   2.268   1.314   4.191
29505SOL     OW90288   3.816   9.765   0.058
29505SOL    HW190289   3.908   9.784   0.040
29505SOL    HW290290   3.817   9.676   0.094
29506SOL     OW90291   6.611   1.523   9.005
29506SOL    HW190292   6.645   1.465   9.073
29506SOL    HW290293   6.546   1.470   8.959
29507SOL     OW90294   7.646  10.369   3.762
29507SOL    HW190295   7.667  10.393   3.852
29507SOL    HW290296   7.587  10.438   3.732
29508SOL     OW90297  10.072  11.765   9.981
29508SOL    HW190298  10.164  11.747   9.964
29508SOL    HW290299  10.053  11.844   9.931
29509SOL     OW90300   1.193  10.540  12.779
29509SOL    HW190301   1.276  10.531  12.732
29509SOL    HW290302   1.172  10.451  12.807
29510SOL     OW90303  11.965   3.621  12.385
29510SOL    HW190304  11.892   3.577  12.429
29510SOL    HW290305  11.974   3.573  12.302
29511SOL     OW90306  10.116  11.572   0.365
29511SOL    HW190307  10.178  11.519   0.414
29511SOL    HW290308  10.138  11.662   0.388
29512SOL     OW90309   5.050   7.937   4.720
29512SOL    HW190310   5.025   7.896   4.802
29512SOL    HW290311   4.970   7.977   4.687
29513SOL     OW90312  14.751   3.863   8.753
29513SOL    HW190313  14.694   3.788   8.738
29513SOL    HW290314  14.812   3.835   8.821
29514SOL     OW90315   2.633  11.659  12.184
29514SOL    HW190316   2.560  11.718  12.163
29514SOL    HW290317   2.637  11.599  12.109
29515SOL     OW90318   5.816   9.716   9.092
29515SOL    HW190319   5.754   9.651   9.060
29515SOL    HW290320   5.762   9.784   9.132
29516SOL     OW90321   6.034   4.970   3.148
29516SOL    HW190322   6.014   4.877   3.159
29516SOL    HW290323   6.069   4.997   3.232
29517SOL     OW90324   5.245  13.456   5.923
29517SOL    HW190325   5.319  13.427   5.869
29517SOL    HW290326   5.282  13.470   6.010
29518SOL     OW90327   5.616  10.943   9.305
29518SOL    HW190328   5.609  10.971   9.396
29518SOL    HW290329   5.613  10.847   9.309
29519SOL     OW90330   9.845   8.915   8.922
29519SOL    HW190331   9.865   9.008   8.933
29519SOL    HW290332   9.757   8.905   8.959
29520SOL     OW90333  10.603   4.608   6.503
29520SOL    HW190334  10.692   4.602   6.466
29520SOL    HW290335  10.614   4.588   6.596
29521SOL     OW90336   7.121   8.305   3.734
29521SOL    HW190337   7.160   8.346   3.812
29521SOL    HW290338   7.196   8.282   3.679
29522SOL     OW90339   4.488   3.519   6.557
29522SOL    HW190340   4.579   3.515   6.528
29522SOL    HW290341   4.446   3.446   6.511
29523SOL     OW90342   8.940   7.962   4.934
29523SOL    HW190343   9.006   8.013   4.888
29523SOL    HW290344   8.977   7.874   4.939
29524SOL     OW90345   3.111   0.121   0.629
29524SOL    HW190346   3.206   0.127   0.618
29524SOL    HW290347   3.095   0.030   0.652
29525SOL     OW90348   3.649   5.632   9.694
29525SOL    HW190349   3.680   5.627   9.603
29525SOL    HW290350   3.722   5.596   9.745
29526SOL     OW90351  13.394   4.426  13.588
29526SOL    HW190352  13.316   4.397  13.634
29526SOL    HW290353  13.422   4.504  13.637
29527SOL     OW90354  10.904   4.228  11.850
29527SOL    HW190355  10.943   4.259  11.931
29527SOL    HW290356  10.860   4.305  11.814
29528SOL     OW90357   2.168   3.831  12.068
29528SOL    HW190358   2.109   3.795  12.001
29528SOL    HW290359   2.254   3.796  12.046
29529SOL     OW90360  10.393   9.073   6.336
29529SOL    HW190361  10.414   9.000   6.278
29529SOL    HW290362  10.419   9.043   6.423
29530SOL     OW90363   4.579   4.443   3.275
29530SOL    HW190364   4.573   4.479   3.363
29530SOL    HW290365   4.590   4.349   3.288
29531SOL     OW90366  14.802   7.153   8.490
29531SOL    HW190367  14.766   7.197   8.566
29531SOL    HW290368   0.015   7.163   8.499
29532SOL     OW90369   1.702   6.357   8.709
29532SOL    HW190370   1.616   6.317   8.723
29532SOL    HW290371   1.688   6.450   8.727
29533SOL     OW90372  10.764   7.091  10.256
29533SOL    HW190373  10.793   7.181  10.268
29533SOL    HW290374  10.746   7.083  10.163
29534SOL     OW90375   4.764   8.571  10.984
29534SOL    HW190376   4.733   8.534  10.902
29534SOL    HW290377   4.746   8.665  10.976
29535SOL     OW90378  13.825  11.175   2.296
29535SOL    HW190379  13.764  11.249   2.301
29535SOL    HW290380  13.898  11.208   2.244
29536SOL     OW90381   5.997  12.533  14.373
29536SOL    HW190382   6.019  12.543  14.466
29536SOL    HW290383   5.904  12.555  14.368
29537SOL     OW90384  13.222   4.540   3.698
29537SOL    HW190385  13.217   4.598   3.774
29537SOL    HW290386  13.138   4.551   3.654
29538SOL     OW90387   4.357  14.472  14.270
29538SOL    HW190388   4.304  14.395  14.249
29538SOL    HW290389   4.378  14.461  14.363
29539SOL     OW90390   8.499  13.374  11.507
29539SOL    HW190391   8.422  13.397  11.559
29539SOL    HW290392   8.550  13.455  11.502
29540SOL     OW90393   5.820   0.167   2.331
29540SOL    HW190394   5.868   0.118   2.264
29540SOL    HW290395   5.778   0.100   2.385
29541SOL     OW90396   2.050   6.802   9.677
29541SOL    HW190397   2.125   6.758   9.636
29541SOL    HW290398   2.086   6.885   9.710
29542SOL     OW90399  10.676   7.311   7.462
29542SOL    HW190400  10.584   7.336   7.472
29542SOL    HW290401  10.673   7.218   7.438
29543SOL     OW90402   5.949   2.074   9.297
29543SOL    HW190403   5.974   2.066   9.389
29543SOL    HW290404   5.951   2.168   9.279
29544SOL     OW90405  12.161   1.745   7.121
29544SOL    HW190406  12.135   1.752   7.029
29544SOL    HW290407  12.148   1.833   7.156
29545SOL     OW90408   7.825   4.977   4.043
29545SOL    HW190409   7.845   4.996   3.951
29545SOL    HW290410   7.881   4.903   4.065
29546SOL     OW90411   9.413   3.643   8.836
29546SOL    HW190412   9.454   3.671   8.918
29546SOL    HW290413   9.365   3.563   8.858
29547SOL     OW90414   7.489   4.794  14.780
29547SOL    HW190415   7.433   4.721  14.753
29547SOL    HW290416   7.456   4.819  14.866
29548SOL     OW90417   0.346  13.264  12.308
29548SOL    HW190418   0.431  13.238  12.345
29548SOL    HW290419   0.340  13.358  12.323
29549SOL     OW90420   9.610   0.374   0.837
29549SOL    HW190421   9.575   0.356   0.925
29549SOL    HW290422   9.565   0.454   0.809
29550SOL     OW90423   0.429   8.542   4.962
29550SOL    HW190424   0.412   8.637   4.960
29550SOL    HW290425   0.490   8.530   5.034
29551SOL     OW90426  11.166  13.143   8.932
29551SOL    HW190427  11.103  13.124   9.001
29551SOL    HW290428  11.113  13.164   8.855
29552SOL     OW90429  14.636   8.570   6.852
29552SOL    HW190430  14.699   8.575   6.924
29552SOL    HW290431  14.567   8.632   6.876
29553SOL     OW90432  10.331   7.972   8.198
29553SOL    HW190433  10.349   7.878   8.195
29553SOL    HW290434  10.417   8.013   8.198
29554SOL     OW90435  12.004   3.620  12.816
29554SOL    HW190436  12.060   3.674  12.871
29554SOL    HW290437  11.972   3.681  12.749
29555SOL     OW90438   0.870  13.806  12.667
29555SOL    HW190439   0.965  13.798  12.674
29555SOL    HW290440   0.841  13.719  12.640
29556SOL     OW90441   0.083  12.777   2.404
29556SOL    HW190442   0.120  12.808   2.322
29556SOL    HW290443   0.001  12.734   2.380
29557SOL     OW90444  13.717  12.489   9.945
29557SOL    HW190445  13.797  12.536   9.969
29557SOL    HW290446  13.669  12.550   9.888
29558SOL     OW90447  13.108   1.469   5.122
29558SOL    HW190448  13.157   1.508   5.194
29558SOL    HW290449  13.043   1.536   5.098
29559SOL     OW90450  10.501   0.081   8.766
29559SOL    HW190451  10.428   0.119   8.816
29559SOL    HW290452  10.520  14.880   8.811
29560SOL     OW90453   4.434   7.679   0.617
29560SOL    HW190454   4.481   7.597   0.633
29560SOL    HW290455   4.504   7.745   0.610
29561SOL     OW90456   3.910   9.833  13.810
29561SOL    HW190457   3.927   9.780  13.733
29561SOL    HW290458   3.988   9.887  13.820
29562SOL     OW90459  10.550   3.955  13.532
29562SOL    HW190460  10.598   3.937  13.613
29562SOL    HW290461  10.468   3.994  13.561
29563SOL     OW90462   4.469   0.579   2.494
29563SOL    HW190463   4.398   0.631   2.457
29563SOL    HW290464   4.537   0.643   2.516
29564SOL     OW90465  11.000  13.033  14.500
29564SOL    HW190466  11.065  13.001  14.437
29564SOL    HW290467  10.945  13.092  14.449
29565SOL     OW90468  14.469   5.508  12.682
29565SOL    HW190469  14.558   5.542  12.694
29565SOL    HW290470  14.420   5.542  12.756
29566SOL     OW90471   4.644   5.221   6.129
29566SOL    HW190472   4.617   5.261   6.211
29566SOL    HW290473   4.637   5.127   6.144
29567SOL     OW90474   4.955  11.084   3.882
29567SOL    HW190475   4.960  11.141   3.805
29567SOL    HW290476   4.969  11.142   3.957
29568SOL     OW90477   5.079  13.552   8.275
29568SOL    HW190478   5.066  13.458   8.278
29568SOL    HW290479   5.172  13.564   8.293
29569SOL     OW90480   2.130   9.865   6.582
29569SOL    HW190481   2.189   9.897   6.650
29569SOL    HW290482   2.122   9.938   6.521
29570SOL     OW90483   7.366   6.634   0.017
29570SOL    HW190484   7.431   6.622   0.087
29570SOL    HW290485   7.302   6.565   0.032
29571SOL     OW90486   1.178   6.171   6.243
29571SOL    HW190487   1.140   6.257   6.254
29571SOL    HW290488   1.105   6.116   6.214
29572SOL     OW90489   3.129   7.189  14.188
29572SOL    HW190490   3.058   7.212  14.128
29572SOL    HW290491   3.125   7.094  14.195
29573SOL     OW90492   5.745  14.383  13.579
29573SOL    HW190493   5.778  14.344  13.661
29573SOL    HW290494   5.720  14.472  13.603
29574SOL     OW90495  12.580  12.959   6.072
29574SOL    HW190496  12.609  12.868   6.074
29574SOL    HW290497  12.512  12.961   6.005
29575SOL     OW90498  12.236  14.174   1.255
29575SOL    HW190499  12.148  14.144   1.233
29575SOL    HW290500  12.248  14.253   1.201
29576SOL     OW90501   3.225   5.519   3.173
29576SOL    HW190502   3.301   5.475   3.134
29576SOL    HW290503   3.240   5.612   3.156
29577SOL     OW90504  11.305   8.423  12.330
29577SOL    HW190505  11.379   8.416  12.269
29577SOL    HW290506  11.344   8.412  12.417
29578SOL     OW90507   7.693   6.915   7.046
29578SOL    HW190508   7.723   6.870   6.967
29578SOL    HW290509   7.763   6.900   7.110
29579SOL     OW90510   1.688  12.601   2.402
29579SOL    HW190511   1.734  12.517   2.396
29579SOL    HW290512   1.714  12.648   2.323
29580SOL     OW90513   6.955  11.742  13.590
29580SOL    HW190514   7.000  11.668  13.549
29580SOL    HW290515   6.876  11.755  13.537
29581SOL     OW90516  14.578   8.938  14.264
29581SOL    HW190517  14.614   9.016  14.307
29581SOL    HW290518  14.517   8.901  14.328
29582SOL     OW90519  10.087   4.510  14.350
29582SOL    HW190520  10.161   4.505  14.411
29582SOL    HW290521  10.073   4.420  14.321
29583SOL     OW90522   5.910  10.137   2.856
29583SOL    HW190523   5.877  10.220   2.890
29583SOL    HW290524   5.850  10.115   2.785
29584SOL     OW90525  12.632  13.444   9.339
29584SOL    HW190526  12.632  13.539   9.327
29584SOL    HW290527  12.578  13.411   9.268
29585SOL     OW90528  10.897  10.204  11.276
29585SOL    HW190529  10.858  10.186  11.361
29585SOL    HW290530  10.987  10.173  11.283
29586SOL     OW90531  13.932  11.072   2.509
29586SOL    HW190532  13.901  11.129   2.580
29586SOL    HW290533  13.881  11.098   2.433
29587SOL     OW90534   0.532   7.501   1.876
29587SOL    HW190535   0.466   7.499   1.946
29587SOL    HW290536   0.605   7.450   1.911
29588SOL     OW90537   7.379  14.358   5.201
29588SOL    HW190538   7.357  14.295   5.132
29588SOL    HW290539   7.428  14.426   5.156
29589SOL     OW90540   5.921   6.967   2.423
29589SOL    HW190541   5.875   7.034   2.473
29589SOL    HW290542   5.903   6.886   2.471
29590SOL     OW90543   2.104   4.802   9.154
29590SOL    HW190544   2.168   4.834   9.218
29590SOL    HW290545   2.111   4.864   9.081
29591SOL     OW90546  12.355  10.175   9.423
29591SOL    HW190547  12.420  10.116   9.385
29591SOL    HW290548  12.299  10.117   9.474
29592SOL     OW90549  11.743   1.839   3.897
29592SOL    HW190550  11.745   1.871   3.806
29592SOL    HW290551  11.787   1.754   3.894
29593SOL     OW90552  12.995   2.248   8.771
29593SOL    HW190553  13.047   2.267   8.693
29593SOL    HW290554  13.027   2.163   8.802
29594SOL     OW90555  11.785  12.592  12.269
29594SOL    HW190556  11.784  12.684  12.296
29594SOL    HW290557  11.874  12.563  12.288
29595SOL     OW90558  13.644   7.932  14.409
29595SOL    HW190559  13.600   7.867  14.464
29595SOL    HW290560  13.703   7.882  14.353
29596SOL     OW90561  14.016  13.310   1.792
29596SOL    HW190562  13.948  13.281   1.732
29596SOL    HW290563  13.983  13.391   1.830
29597SOL     OW90564   4.348   1.951  11.369
29597SOL    HW190565   4.398   1.887  11.419
29597SOL    HW290566   4.261   1.911  11.360
29598SOL     OW90567  10.574  12.992   0.072
29598SOL    HW190568  10.492  13.040   0.061
29598SOL    HW290569  10.546  12.901   0.087
29599SOL     OW90570   5.262   5.625   7.851
29599SOL    HW190571   5.214   5.682   7.790
29599SOL    HW290572   5.347   5.668   7.862
29600SOL     OW90573   8.272   1.237   0.615
29600SOL    HW190574   8.327   1.252   0.692
29600SOL    HW290575   8.319   1.279   0.544
29601SOL     OW90576  11.138   2.093   4.092
29601SOL    HW190577  11.057   2.141   4.077
29601SOL    HW290578  11.129   2.014   4.038
29602SOL     OW90579   6.762   4.974   5.361
29602SOL    HW190580   6.784   5.060   5.325
29602SOL    HW290581   6.669   4.963   5.342
29603SOL     OW90582  13.685   9.282  14.103
29603SOL    HW190583  13.610   9.306  14.157
29603SOL    HW290584  13.657   9.300  14.014
29604SOL     OW90585   8.221   6.479   1.521
29604SOL    HW190586   8.207   6.404   1.462
29604SOL    HW290587   8.160   6.546   1.488
29605SOL     OW90588   4.114  14.634   1.333
29605SOL    HW190589   4.164  14.560   1.369
29605SOL    HW290590   4.052  14.593   1.272
29606SOL     OW90591   8.552  14.738   6.770
29606SOL    HW190592   8.550  14.672   6.839
29606SOL    HW290593   8.463  14.774   6.769
29607SOL     OW90594   6.122   3.873   0.293
29607SOL    HW190595   6.128   3.872   0.388
29607SOL    HW290596   6.055   3.939   0.273
29608SOL     OW90597   9.000  11.874  10.268
29608SOL    HW190598   9.073  11.928  10.299
29608SOL    HW290599   8.979  11.909  10.182
29609SOL     OW90600   4.925   0.067  11.279
29609SOL    HW190601   4.838   0.096  11.308
29609SOL    HW290602   4.910   0.024  11.195
29610SOL     OW90603   4.568   5.967   4.729
29610SOL    HW190604   4.536   6.008   4.649
29610SOL    HW290605   4.627   5.898   4.699
29611SOL     OW90606   2.061   8.230   3.134
29611SOL    HW190607   1.995   8.299   3.144
29611SOL    HW290608   2.077   8.227   3.039
29612SOL     OW90609   7.597   7.275   7.675
29612SOL    HW190610   7.541   7.225   7.733
29612SOL    HW290611   7.614   7.357   7.722
29613SOL     OW90612  10.083   5.808   9.421
29613SOL    HW190613  10.082   5.884   9.480
29613SOL    HW290614   9.991   5.786   9.409
29614SOL     OW90615   6.096   6.643  12.235
29614SOL    HW190616   6.119   6.628  12.327
29614SOL    HW290617   6.111   6.558  12.192
29615SOL     OW90618  11.659   3.083   4.304
29615SOL    HW190619  11.596   3.132   4.250
29615SOL    HW290620  11.744   3.120   4.281
29616SOL     OW90621   2.729   0.274   3.173
29616SOL    HW190622   2.638   0.297   3.192
29616SOL    HW290623   2.725   0.221   3.094
29617SOL     OW90624   8.793   9.048  10.308
29617SOL    HW190625   8.804   8.994  10.387
29617SOL    HW290626   8.774   9.136  10.341
29618SOL     OW90627  10.432  12.188  11.421
29618SOL    HW190628  10.338  12.199  11.436
29618SOL    HW290629  10.458  12.268  11.374
29619SOL     OW90630  12.325  10.029  10.365
29619SOL    HW190631  12.253   9.967  10.376
29619SOL    HW290632  12.338  10.036  10.271
29620SOL     OW90633  12.967  11.573  12.995
29620SOL    HW190634  12.909  11.513  13.042
29620SOL    HW290635  13.045  11.579  13.051
29621SOL     OW90636   0.070  10.245   5.205
29621SOL    HW190637   0.145  10.303   5.213
29621SOL    HW290638   0.035  10.239   5.295
29622SOL     OW90639   8.405  13.825   2.226
29622SOL    HW190640   8.313  13.854   2.224
29622SOL    HW290641   8.411  13.759   2.157
29623SOL     OW90642  14.281   9.656   9.568
29623SOL    HW190643  14.207   9.711   9.593
29623SOL    HW290644  14.243   9.570   9.552
29624SOL     OW90645   4.556   6.159  11.900
29624SOL    HW190646   4.509   6.194  11.823
29624SOL    HW290647   4.623   6.102  11.863
29625SOL     OW90648   6.907  10.447   4.835
29625SOL    HW190649   6.972  10.440   4.905
29625SOL    HW290650   6.957  10.440   4.754
29626SOL     OW90651   6.070   1.292   9.005
29626SOL    HW190652   5.979   1.272   8.982
29626SOL    HW290653   6.070   1.294   9.101
29627SOL     OW90654  13.934   7.938   0.105
29627SOL    HW190655  13.851   7.961   0.146
29627SOL    HW290656  13.957   8.015   0.053
29628SOL     OW90657   9.843   3.134   0.737
29628SOL    HW190658   9.915   3.165   0.792
29628SOL    HW290659   9.764   3.158   0.785
29629SOL     OW90660  13.368   1.388  10.512
29629SOL    HW190661  13.322   1.471  10.503
29629SOL    HW290662  13.323   1.343  10.584
29630SOL     OW90663  14.643   8.240   9.577
29630SOL    HW190664  14.551   8.214   9.565
29630SOL    HW290665  14.642   8.335   9.572
29631SOL     OW90666   1.474   9.541   2.219
29631SOL    HW190667   1.385   9.552   2.184
29631SOL    HW290668   1.514   9.476   2.162
29632SOL     OW90669   1.466   1.008  11.086
29632SOL    HW190670   1.560   1.011  11.068
29632SOL    HW290671   1.456   0.936  11.149
29633SOL     OW90672  11.940  11.934   6.528
29633SOL    HW190673  11.983  12.017   6.548
29633SOL    HW290674  11.890  11.951   6.448
29634SOL     OW90675   0.526   3.931   0.454
29634SOL    HW190676   0.575   3.991   0.398
29634SOL    HW290677   0.456   3.985   0.491
29635SOL     OW90678  14.244   2.025  11.237
29635SOL    HW190679  14.159   2.066  11.252
29635SOL    HW290680  14.225   1.932  11.227
29636SOL     OW90681  14.524   5.179  13.154
29636SOL    HW190682  14.484   5.136  13.078
29636SOL    HW290683  14.451   5.192  13.214
29637SOL     OW90684   0.024   9.638  13.782
29637SOL    HW190685   0.109   9.680  13.767
29637SOL    HW290686   0.031   9.553  13.738
29638SOL     OW90687   4.816  13.881  12.873
29638SOL    HW190688   4.874  13.909  12.944
29638SOL    HW290689   4.816  13.786  12.878
29639SOL     OW90690  10.948   7.190   5.926
29639SOL    HW190691  10.858   7.158   5.918
29639SOL    HW290692  10.982   7.188   5.837
29640SOL     OW90693   4.953   7.743   5.562
29640SOL    HW190694   4.940   7.731   5.657
29640SOL    HW290695   4.874   7.708   5.522
29641SOL     OW90696  12.290   6.286   9.462
29641SOL    HW190697  12.218   6.323   9.513
29641SOL    HW290698  12.310   6.352   9.396
29642SOL     OW90699   4.773  12.644   2.712
29642SOL    HW190700   4.746  12.649   2.621
29642SOL    HW290701   4.858  12.599   2.710
29643SOL     OW90702   9.784   7.189   6.578
29643SOL    HW190703   9.787   7.100   6.611
29643SOL    HW290704   9.691   7.211   6.578
29644SOL     OW90705   3.159  12.094   8.652
29644SOL    HW190706   3.178  12.020   8.710
29644SOL    HW290707   3.244  12.117   8.614
29645SOL     OW90708   2.354   7.453   4.283
29645SOL    HW190709   2.392   7.515   4.345
29645SOL    HW290710   2.263   7.482   4.273
29646SOL     OW90711   5.836   4.793  13.839
29646SOL    HW190712   5.749   4.767  13.809
29646SOL    HW290713   5.885   4.710  13.846
29647SOL     OW90714  13.970  11.382   2.916
29647SOL    HW190715  13.933  11.323   2.982
29647SOL    HW290716  14.065  11.371   2.925
29648SOL     OW90717   1.464   2.949   4.600
29648SOL    HW190718   1.422   3.035   4.608
29648SOL    HW290719   1.489   2.927   4.690
29649SOL     OW90720   9.566   0.277   4.799
29649SOL    HW190721   9.567   0.247   4.708
29649SOL    HW290722   9.648   0.246   4.836
29650SOL     OW90723   4.979   1.603   2.686
29650SOL    HW190724   4.921   1.606   2.610
29650SOL    HW290725   4.949   1.528   2.737
29651SOL     OW90726   0.260   7.737  11.466
29651SOL    HW190727   0.277   7.807  11.403
29651SOL    HW290728   0.325   7.670  11.446
29652SOL     OW90729  10.430   7.614   4.217
29652SOL    HW190730  10.448   7.704   4.190
29652SOL    HW290731  10.405   7.621   4.309
29653SOL     OW90732   6.467   6.689  10.413
29653SOL    HW190733   6.417   6.607  10.415
29653SOL    HW290734   6.442   6.730  10.330
29654SOL     OW90735   1.251   0.152   9.418
29654SOL    HW190736   1.291   0.178   9.501
29654SOL    HW290737   1.307   0.192   9.352
29655SOL     OW90738   6.717   9.873  12.651
29655SOL    HW190739   6.790   9.905  12.599
29655SOL    HW290740   6.695   9.788  12.612
29656SOL     OW90741   6.252   0.305  13.709
29656SOL    HW190742   6.178   0.315  13.769
29656SOL    HW290743   6.221   0.343  13.627
29657SOL     OW90744  12.608  10.105  10.382
29657SOL    HW190745  12.516  10.093  10.404
29657SOL    HW290746  12.654  10.037  10.433
29658SOL     OW90747   1.577   3.348   5.886
29658SOL    HW190748   1.520   3.414   5.845
29658SOL    HW290749   1.556   3.267   5.841
29659SOL     OW90750  12.326  13.509   9.523
29659SOL    HW190751  12.278  13.573   9.575
29659SOL    HW290752  12.330  13.547   9.435
29660SOL     OW90753   5.401   0.224  13.932
29660SOL    HW190754   5.315   0.265  13.924
29660SOL    HW290755   5.411   0.172  13.852
29661SOL     OW90756   0.723  13.506   7.308
29661SOL    HW190757   0.770  13.445   7.252
29661SOL    HW290758   0.760  13.592   7.288
29662SOL     OW90759   6.552   7.380  13.360
29662SOL    HW190760   6.566   7.424  13.443
29662SOL    HW290761   6.460   7.351  13.363
29663SOL     OW90762   3.249   0.695  14.865
29663SOL    HW190763   3.265   0.722  14.775
29663SOL    HW290764   3.292   0.610  14.873
29664SOL     OW90765   3.574   7.588  10.533
29664SOL    HW190766   3.575   7.498  10.566
29664SOL    HW290767   3.552   7.579  10.440
29665SOL     OW90768  12.702   3.670  14.280
29665SOL    HW190769  12.656   3.593  14.314
29665SOL    HW290770  12.794   3.644  14.278
29666SOL     OW90771   1.985  14.401   8.831
29666SOL    HW190772   1.907  14.421   8.883
29666SOL    HW290773   2.036  14.343   8.887
29667SOL     OW90774   8.307   3.756  12.897
29667SOL    HW190775   8.239   3.790  12.839
29667SOL    HW290776   8.386   3.804  12.872
29668SOL     OW90777  13.134   2.252   7.100
29668SOL    HW190778  13.229   2.238   7.107
29668SOL    HW290779  13.116   2.252   7.006
29669SOL     OW90780  11.553   8.016  12.998
29669SOL    HW190781  11.632   7.963  13.001
29669SOL    HW290782  11.545   8.052  13.087
29670SOL     OW90783  10.845   1.515   7.269
29670SOL    HW190784  10.936   1.503   7.297
29670SOL    HW290785  10.813   1.427   7.252
29671SOL     OW90786   3.644  14.607   2.227
29671SOL    HW190787   3.644  14.609   2.131
29671SOL    HW290788   3.570  14.550   2.250
29672SOL     OW90789   4.574   5.709  13.765
29672SOL    HW190790   4.625   5.748  13.835
29672SOL    HW290791   4.628   5.719  13.687
29673SOL     OW90792   5.753   6.377  10.293
29673SOL    HW190793   5.738   6.355  10.201
29673SOL    HW290794   5.836   6.334  10.315
29674SOL     OW90795   1.056  11.239  14.192
29674SOL    HW190796   1.036  11.307  14.257
29674SOL    HW290797   1.147  11.255  14.169
29675SOL     OW90798  12.017   6.895   6.467
29675SOL    HW190799  12.066   6.955   6.523
29675SOL    HW290800  12.008   6.942   6.384
29676SOL     OW90801  14.457   4.595  11.623
29676SOL    HW190802  14.369   4.588  11.587
29676SOL    HW290803  14.460   4.530  11.694
29677SOL     OW90804   2.950   7.352   2.729
29677SOL    HW190805   2.954   7.434   2.778
29677SOL    HW290806   2.857   7.334   2.720
29678SOL     OW90807  13.470   6.024   3.899
29678SOL    HW190808  13.527   6.092   3.865
29678SOL    HW290809  13.389   6.070   3.922
29679SOL     OW90810  14.839   4.095   3.665
29679SOL    HW190811   0.005   4.026   3.619
29679SOL    HW290812  14.808   4.153   3.595
29680SOL     OW90813   5.368  12.480  14.100
29680SOL    HW190814   5.301  12.412  14.101
29680SOL    HW290815   5.451  12.432  14.106
29681SOL     OW90816   6.962   2.391  12.245
29681SOL    HW190817   6.927   2.475  12.214
29681SOL    HW290818   7.023   2.415  12.315
29682SOL     OW90819   9.369   5.750   9.592
29682SOL    HW190820   9.331   5.831   9.560
29682SOL    HW290821   9.327   5.735   9.676
29683SOL     OW90822   2.516   4.955   4.416
29683SOL    HW190823   2.453   5.008   4.464
29683SOL    HW290824   2.478   4.947   4.328
29684SOL     OW90825   0.129  11.498   4.781
29684SOL    HW190826   0.199  11.562   4.768
29684SOL    HW290827   0.052  11.551   4.806
29685SOL     OW90828  13.455  13.529   6.693
29685SOL    HW190829  13.409  13.455   6.732
29685SOL    HW290830  13.386  13.583   6.656
29686SOL     OW90831   3.477   5.827   4.969
29686SOL    HW190832   3.516   5.750   5.011
29686SOL    HW290833   3.499   5.817   4.876
29687SOL     OW90834   3.297   2.790   4.173
29687SOL    HW190835   3.295   2.809   4.266
29687SOL    HW290836   3.253   2.705   4.165
29688SOL     OW90837  10.388   7.099   1.704
29688SOL    HW190838  10.371   7.181   1.658
29688SOL    HW290839  10.406   7.125   1.795
29689SOL     OW90840   8.752  14.055   9.536
29689SOL    HW190841   8.666  14.081   9.569
29689SOL    HW290842   8.813  14.080   9.606
29690SOL     OW90843   5.151  13.186   5.722
29690SOL    HW190844   5.107  13.136   5.790
29690SOL    HW290845   5.081  13.217   5.665
29691SOL     OW90846  14.304  13.109   2.160
29691SOL    HW190847  14.221  13.091   2.116
29691SOL    HW290848  14.371  13.092   2.094
29692SOL     OW90849   3.231  12.702  13.029
29692SOL    HW190850   3.308  12.653  13.056
29692SOL    HW290851   3.194  12.735  13.111
29693SOL     OW90852   5.992   6.142  11.322
29693SOL    HW190853   6.037   6.059  11.308
29693SOL    HW290854   5.995   6.156  11.416
29694SOL     OW90855  13.011  13.140  10.847
29694SOL    HW190856  13.017  13.085  10.768
29694SOL    HW290857  12.997  13.229  10.813
29695SOL     OW90858   6.873  14.079   4.792
29695SOL    HW190859   6.864  13.991   4.830
29695SOL    HW290860   6.798  14.087   4.733
29696SOL     OW90861   7.170  10.218   7.526
29696SOL    HW190862   7.084  10.230   7.485
29696SOL    HW290863   7.173  10.125   7.548
29697SOL     OW90864  12.462  14.636   0.584
29697SOL    HW190865  12.485  14.582   0.660
29697SOL    HW290866  12.482  14.725   0.611
29698SOL     OW90867   0.343   1.798   0.877
29698SOL    HW190868   0.277   1.728   0.876
29698SOL    HW290869   0.420   1.758   0.836
29699SOL     OW90870  14.197   6.573  10.060
29699SOL    HW190871  14.150   6.581  10.143
29699SOL    HW290872  14.241   6.488  10.066
29700SOL     OW90873   2.562   3.962  11.101
29700SOL    HW190874   2.600   4.047  11.123
29700SOL    HW290875   2.542   3.922  11.185
29701SOL     OW90876   1.711   1.862  13.561
29701SOL    HW190877   1.658   1.925  13.611
29701SOL    HW290878   1.648   1.795  13.533
29702SOL     OW90879   6.610  13.437   0.484
29702SOL    HW190880   6.634  13.441   0.576
29702SOL    HW290881   6.689  13.462   0.437
29703SOL     OW90882   8.298  12.462   0.110
29703SOL    HW190883   8.207  12.491   0.104
29703SOL    HW290884   8.340  12.498   0.032
29704SOL     OW90885   6.521  14.581   9.939
29704SOL    HW190886   6.525  14.674   9.918
29704SOL    HW290887   6.574  14.539   9.871
29705SOL     OW90888   3.107   7.879   4.645
29705SOL    HW190889   3.067   7.835   4.720
29705SOL    HW290890   3.201   7.866   4.657
29706SOL     OW90891   5.426  14.077   9.680
29706SOL    HW190892   5.492  14.013   9.707
29706SOL    HW290893   5.384  14.038   9.604
29707SOL     OW90894  13.334  10.501   0.183
29707SOL    HW190895  13.282  10.449   0.245
29707SOL    HW290896  13.277  10.574   0.158
29708SOL     OW90897  10.294  13.246   0.438
29708SOL    HW190898  10.200  13.247   0.420
29708SOL    HW290899  10.305  13.179   0.506
29709SOL     OW90900   7.523   8.023   9.102
29709SOL    HW190901   7.486   8.002   9.017
29709SOL    HW290902   7.608   8.063   9.083
29710SOL     OW90903   4.542  11.552   4.172
29710SOL    HW190904   4.471  11.514   4.120
29710SOL    HW290905   4.532  11.647   4.159
29711SOL     OW90906   5.881   8.781   0.700
29711SOL    HW190907   5.911   8.722   0.631
29711SOL    HW290908   5.959   8.800   0.753
29712SOL     OW90909   1.551   5.316   2.712
29712SOL    HW190910   1.580   5.229   2.685
29712SOL    HW290911   1.550   5.368   2.632
29713SOL     OW90912  11.165  10.089  11.581
29713SOL    HW190913  11.212  10.085  11.664
29713SOL    HW290914  11.127  10.177  11.579
29714SOL     OW90915   5.695  13.578  11.417
29714SOL    HW190916   5.742  13.585  11.334
29714SOL    HW290917   5.759  13.541  11.478
29715SOL     OW90918   9.882   0.526   3.665
29715SOL    HW190919   9.810   0.526   3.727
29715SOL    HW290920   9.859   0.593   3.600
29716SOL     OW90921  14.800  12.576  12.749
29716SOL    HW190922   0.014  12.583  12.755
29716SOL    HW290923  14.776  12.513  12.817
29717SOL     OW90924   4.699   1.851   7.449
29717SOL    HW190925   4.637   1.781   7.431
29717SOL    HW290926   4.726   1.836   7.540
29718SOL     OW90927  11.208   5.322   4.178
29718SOL    HW190928  11.201   5.259   4.106
29718SOL    HW290929  11.293   5.303   4.218
29719SOL     OW90930   0.140   3.840   1.372
29719SOL    HW190931   0.158   3.819   1.280
29719SOL    HW290932   0.060   3.892   1.369
29720SOL     OW90933  10.573   2.410   6.634
29720SOL    HW190934  10.573   2.373   6.722
29720SOL    HW290935  10.623   2.348   6.581
29721SOL     OW90936  12.358   4.154  13.647
29721SOL    HW190937  12.416   4.184  13.717
29721SOL    HW290938  12.362   4.222  13.581
29722SOL     OW90939   7.352   0.727   3.766
29722SOL    HW190940   7.345   0.642   3.723
29722SOL    HW290941   7.264   0.765   3.758
29723SOL     OW90942   7.895   5.695   9.345
29723SOL    HW190943   7.938   5.721   9.426
29723SOL    HW290944   7.964   5.654   9.293
29724SOL     OW90945  11.305   1.371   7.464
29724SOL    HW190946  11.360   1.429   7.517
29724SOL    HW290947  11.263   1.313   7.527
29725SOL     OW90948  12.367   4.711   8.538
29725SOL    HW190949  12.392   4.722   8.629
29725SOL    HW290950  12.449   4.724   8.489
29726SOL     OW90951  12.185  11.226  10.867
29726SOL    HW190952  12.211  11.318  10.874
29726SOL    HW290953  12.241  11.190  10.798
29727SOL     OW90954   7.833  12.946   8.623
29727SOL    HW190955   7.780  12.963   8.545
29727SOL    HW290956   7.770  12.950   8.696
29728SOL     OW90957  12.763  11.223  11.320
29728SOL    HW190958  12.783  11.181  11.404
29728SOL    HW290959  12.822  11.180  11.257
29729SOL     OW90960   2.684   3.929  12.127
29729SOL    HW190961   2.658   4.013  12.165
29729SOL    HW290962   2.614   3.908  12.065
29730SOL     OW90963  11.775  14.784   6.114
29730SOL    HW190964  11.776  14.853   6.180
29730SOL    HW290965  11.844  14.723   6.142
29731SOL     OW90966   1.229   4.472  14.490
29731SOL    HW190967   1.273   4.389  14.473
29731SOL    HW290968   1.174   4.455  14.566
29732SOL     OW90969  13.912   0.277   4.669
29732SOL    HW190970  13.847   0.261   4.737
29732SOL    HW290971  13.885   0.359   4.628
29733SOL     OW90972  14.280   6.028  11.863
29733SOL    HW190973  14.365   5.996  11.834
29733SOL    HW290974  14.255   5.968  11.934
29734SOL     OW90975   3.434  10.354  14.511
29734SOL    HW190976   3.367  10.326  14.572
29734SOL    HW290977   3.386  10.399  14.441
29735SOL     OW90978   1.683   6.563   0.989
29735SOL    HW190979   1.629   6.485   1.005
29735SOL    HW290980   1.759   6.530   0.942
29736SOL     OW90981  13.468   3.244   9.173
29736SOL    HW190982  13.492   3.246   9.080
29736SOL    HW290983  13.434   3.156   9.187
29737SOL     OW90984   8.296  10.862  10.066
29737SOL    HW190985   8.257  10.911  10.139
29737SOL    HW290986   8.229  10.863   9.998
29738SOL     OW90987  10.194   2.756   2.008
29738SOL    HW190988  10.229   2.681   1.961
29738SOL    HW290989  10.267   2.788   2.060
29739SOL     OW90990  10.553  14.394  10.346
29739SOL    HW190991  10.584  14.383  10.436
29739SOL    HW290992  10.525  14.485  10.340
29740SOL     OW90993   5.080   9.204   6.499
29740SOL    HW190994   5.073   9.211   6.404
29740SOL    HW290995   5.171   9.229   6.518
29741SOL     OW90996   6.194   5.252   8.785
29741SOL    HW190997   6.137   5.328   8.774
29741SOL    HW290998   6.178   5.222   8.874
29742SOL     OW90999   2.307   3.120   8.479
29742SOL    HW191000   2.338   3.029   8.477
29742SOL    HW291001   2.220   3.116   8.438
29743SOL     OW91002  12.904  10.935   6.467
29743SOL    HW191003  12.874  10.844   6.462
29743SOL    HW291004  12.884  10.972   6.381
29744SOL     OW91005   2.166   8.588   2.702
29744SOL    HW191006   2.230   8.656   2.681
29744SOL    HW291007   2.198   8.510   2.657
29745SOL     OW91008   0.807   5.390   9.000
29745SOL    HW191009   0.768   5.306   9.025
29745SOL    HW291010   0.743   5.455   9.030
29746SOL     OW91011   8.321  14.861   7.287
29746SOL    HW191012   8.383  14.811   7.340
29746SOL    HW291013   8.367  14.877   7.204
29747SOL     OW91014   8.114   6.935  14.084
29747SOL    HW191015   8.034   6.910  14.038
29747SOL    HW291016   8.183   6.928  14.019
29748SOL     OW91017  10.077   2.030   1.984
29748SOL    HW191018  10.095   2.021   2.077
29748SOL    HW291019   9.981   2.029   1.978
29749SOL     OW91020  13.005   3.410   1.458
29749SOL    HW191021  12.931   3.397   1.399
29749SOL    HW291022  12.966   3.414   1.546
29750SOL     OW91023  10.681   8.964  11.066
29750SOL    HW191024  10.701   8.882  11.021
29750SOL    HW291025  10.733   8.961  11.146
29751SOL     OW91026   4.106  10.368   5.937
29751SOL    HW191027   4.014  10.343   5.933
29751SOL    HW291028   4.118  10.430   5.864
29752SOL     OW91029  14.417   7.677  11.266
29752SOL    HW191030  14.476   7.609  11.233
29752SOL    HW291031  14.472   7.730  11.324
29753SOL     OW91032  11.084  10.608   4.021
29753SOL    HW191033  11.016  10.587   3.957
29753SOL    HW291034  11.038  10.616   4.104
29754SOL     OW91035   7.266  13.430   5.667
29754SOL    HW191036   7.355  13.397   5.678
29754SOL    HW291037   7.255  13.438   5.573
29755SOL     OW91038  13.485   0.513   2.817
29755SOL    HW191039  13.521   0.483   2.734
29755SOL    HW291040  13.410   0.567   2.792
29756SOL     OW91041  14.283   4.969  11.385
29756SOL    HW191042  14.377   4.961  11.399
29756SOL    HW291043  14.268   4.928  11.299
29757SOL     OW91044  14.354  13.174   0.469
29757SOL    HW191045  14.411  13.101   0.445
29757SOL    HW291046  14.325  13.211   0.385
29758SOL     OW91047   6.800   5.570  12.421
29758SOL    HW191048   6.889   5.593  12.395
29758SOL    HW291049   6.781   5.627  12.495
29759SOL     OW91050  10.472   8.387   4.973
29759SOL    HW191051  10.396   8.342   5.009
29759SOL    HW291052  10.537   8.385   5.044
29760SOL     OW91053  11.358  12.312   5.334
29760SOL    HW191054  11.295  12.344   5.269
29760SOL    HW291055  11.352  12.374   5.406
29761SOL     OW91056   2.207   1.270  11.928
29761SOL    HW191057   2.193   1.302  12.017
29761SOL    HW291058   2.223   1.349  11.877
29762SOL     OW91059   6.684   8.111   2.430
29762SOL    HW191060   6.599   8.128   2.390
29762SOL    HW291061   6.725   8.045   2.374
29763SOL     OW91062  13.569   6.223   9.162
29763SOL    HW191063  13.478   6.195   9.155
29763SOL    HW291064  13.569   6.287   9.234
29764SOL     OW91065   3.828  11.104   0.637
29764SOL    HW191066   3.780  11.171   0.588
29764SOL    HW291067   3.920  11.128   0.625
29765SOL     OW91068  11.371   0.967  14.002
29765SOL    HW191069  11.306   1.037  14.002
29765SOL    HW291070  11.429   0.988  14.075
29766SOL     OW91071   2.888   8.531  13.885
29766SOL    HW191072   2.967   8.536  13.832
29766SOL    HW291073   2.821   8.577  13.833
29767SOL     OW91074  10.644  10.199  13.620
29767SOL    HW191075  10.555  10.183  13.650
29767SOL    HW291076  10.634  10.234  13.532
29768SOL     OW91077   7.845  12.277   2.610
29768SOL    HW191078   7.898  12.198   2.604
29768SOL    HW291079   7.857  12.308   2.699
29769SOL     OW91080   7.465  13.633   9.248
29769SOL    HW191081   7.396  13.579   9.211
29769SOL    HW291082   7.422  13.716   9.267
29770SOL     OW91083   5.290  11.179   9.458
29770SOL    HW191084   5.304  11.178   9.553
29770SOL    HW291085   5.353  11.243   9.425
29771SOL     OW91086   6.470   3.342   6.303
29771SOL    HW191087   6.381   3.309   6.288
29771SOL    HW291088   6.475   3.354   6.398
29772SOL     OW91089   1.233   5.328   1.817
29772SOL    HW191090   1.254   5.406   1.766
29772SOL    HW291091   1.178   5.360   1.889
29773SOL     OW91092   6.998  11.690   5.285
29773SOL    HW191093   6.919  11.711   5.336
29773SOL    HW291094   7.026  11.774   5.249
29774SOL     OW91095   7.567   6.190  11.771
29774SOL    HW191096   7.606   6.272  11.741
29774SOL    HW291097   7.556   6.138  11.691
29775SOL     OW91098   0.732   8.018   2.610
29775SOL    HW191099   0.765   8.083   2.672
29775SOL    HW291100   0.764   7.934   2.643
29776SOL     OW91101   5.290  14.361  11.899
29776SOL    HW191102   5.383  14.348  11.918
29776SOL    HW291103   5.288  14.435  11.839
29777SOL     OW91104   6.053   9.118  12.930
29777SOL    HW191105   5.978   9.173  12.953
29777SOL    HW291106   6.113   9.128  13.005
29778SOL     OW91107   0.174   1.621   0.010
29778SOL    HW191108   0.213   1.645  14.807
29778SOL    HW291109   0.244   1.638   0.073
29779SOL     OW91110   2.153   8.998   4.698
29779SOL    HW191111   2.222   8.948   4.742
29779SOL    HW291112   2.155   8.967   4.607
29780SOL     OW91113  13.478   2.255   1.375
29780SOL    HW191114  13.439   2.186   1.429
29780SOL    HW291115  13.430   2.334   1.398
29781SOL     OW91116   5.664  11.890  10.126
29781SOL    HW191117   5.663  11.820  10.191
29781SOL    HW291118   5.601  11.862  10.059
29782SOL     OW91119   2.675  14.428   8.368
29782SOL    HW191120   2.638  14.342   8.350
29782SOL    HW291121   2.769  14.419   8.351
29783SOL     OW91122  13.887  12.368   6.803
29783SOL    HW191123  13.832  12.289   6.800
29783SOL    HW291124  13.888  12.399   6.712
29784SOL     OW91125   3.898   3.989   6.024
29784SOL    HW191126   3.832   4.010   5.957
29784SOL    HW291127   3.949   4.069   6.033
29785SOL     OW91128  14.027   5.256   6.989
29785SOL    HW191129  13.984   5.191   6.933
29785SOL    HW291130  14.078   5.204   7.051
29786SOL     OW91131   6.728   0.847  11.740
29786SOL    HW191132   6.749   0.901  11.816
29786SOL    HW291133   6.659   0.895  11.695
29787SOL     OW91134   9.662   2.753   3.376
29787SOL    HW191135   9.661   2.843   3.343
29787SOL    HW291136   9.704   2.703   3.306
29788SOL     OW91137  14.689   7.481   8.010
29788SOL    HW191138  14.650   7.568   8.018
29788SOL    HW291139  14.637   7.437   7.943
29789SOL     OW91140   1.464   9.892   3.247
29789SOL    HW191141   1.512   9.910   3.166
29789SOL    HW291142   1.517   9.826   3.291
29790SOL     OW91143  11.467   1.783   0.790
29790SOL    HW191144  11.398   1.787   0.724
29790SOL    HW291145  11.469   1.870   0.829
29791SOL     OW91146   8.318   0.233  14.655
29791SOL    HW191147   8.342   0.209  14.744
29791SOL    HW291148   8.242   0.291  14.665
29792SOL     OW91149   0.542  12.879   8.801
29792SOL    HW191150   0.617  12.889   8.741
29792SOL    HW291151   0.531  12.785   8.809
29793SOL     OW91152  10.113   5.279  14.729
29793SOL    HW191153  10.207   5.292  14.719
29793SOL    HW291154  10.099   5.187  14.711
29794SOL     OW91155   3.528  14.510   7.040
29794SOL    HW191156   3.480  14.427   7.040
29794SOL    HW291157   3.548  14.527   7.132
29795SOL     OW91158   5.504   1.970   9.525
29795SOL    HW191159   5.581   2.017   9.558
29795SOL    HW291160   5.466   2.028   9.460
29796SOL     OW91161   5.249   9.390  14.048
29796SOL    HW191162   5.186   9.458  14.071
29796SOL    HW291163   5.217   9.354  13.965
29797SOL     OW91164   4.374  11.391  10.201
29797SOL    HW191165   4.297  11.430  10.158
29797SOL    HW291166   4.352  11.299  10.211
29798SOL     OW91167  13.081   9.560   6.169
29798SOL    HW191168  13.007   9.503   6.150
29798SOL    HW291169  13.045   9.629   6.225
29799SOL     OW91170   6.079  14.731   9.846
29799SOL    HW191171   6.095  14.685   9.764
29799SOL    HW291172   6.114  14.819   9.831
29800SOL     OW91173   0.537   0.004   1.208
29800SOL    HW191174   0.558  14.824   1.138
29800SOL    HW291175   0.510   0.084   1.163
29801SOL     OW91176   7.420   4.838   2.517
29801SOL    HW191177   7.488   4.819   2.452
29801SOL    HW291178   7.381   4.920   2.488
29802SOL     OW91179  12.205  13.230   7.969
29802SOL    HW191180  12.215  13.178   7.889
29802SOL    HW291181  12.157  13.172   8.029
29803SOL     OW91182   3.959   0.226  11.231
29803SOL    HW191183   3.879   0.215  11.180
29803SOL    HW291184   3.936   0.194  11.318
29804SOL     OW91185   6.542   1.915   3.073
29804SOL    HW191186   6.477   1.954   3.132
29804SOL    HW291187   6.626   1.949   3.105
29805SOL     OW91188   2.182   5.531  11.755
29805SOL    HW191189   2.186   5.435  11.753
29805SOL    HW291190   2.101   5.550  11.804
29806SOL     OW91191  10.426   7.258   4.576
29806SOL    HW191192  10.406   7.212   4.658
29806SOL    HW291193  10.520   7.248   4.565
29807SOL     OW91194  14.344   6.019   4.244
29807SOL    HW191195  14.401   6.039   4.318
29807SOL    HW291196  14.401   5.972   4.182
29808SOL     OW91197   8.539   3.483   3.886
29808SOL    HW191198   8.550   3.524   3.972
29808SOL    HW291199   8.572   3.549   3.825
29809SOL     OW91200   2.782   4.293   6.989
29809SOL    HW191201   2.725   4.300   7.065
29809SOL    HW291202   2.818   4.205   6.993
29810SOL     OW91203   8.829  14.650  12.477
29810SOL    HW191204   8.772  14.707  12.425
29810SOL    HW291205   8.867  14.709  12.543
29811SOL     OW91206  13.408  13.363   5.672
29811SOL    HW191207  13.395  13.338   5.581
29811SOL    HW291208  13.346  13.309   5.721
29812SOL     OW91209   9.032  12.144   6.738
29812SOL    HW191210   8.959  12.205   6.745
29812SOL    HW291211   9.005  12.069   6.790
29813SOL     OW91212   2.308   3.242  12.829
29813SOL    HW191213   2.313   3.190  12.749
29813SOL    HW291214   2.242   3.197  12.883
29814SOL     OW91215   5.689  11.417  14.262
29814SOL    HW191216   5.725  11.506  14.263
29814SOL    HW291217   5.747  11.369  14.203
29815SOL     OW91218   0.699  10.048   0.873
29815SOL    HW191219   0.663   9.959   0.883
29815SOL    HW291220   0.626  10.106   0.895
29816SOL     OW91221   5.695   4.692   3.541
29816SOL    HW191222   5.732   4.730   3.461
29816SOL    HW291223   5.706   4.760   3.607
29817SOL     OW91224   6.666   8.532  14.584
29817SOL    HW191225   6.734   8.487  14.634
29817SOL    HW291226   6.696   8.530  14.494
29818SOL     OW91227  10.151  10.561   8.077
29818SOL    HW191228  10.179  10.470   8.087
29818SOL    HW291229  10.120  10.567   7.986
29819SOL     OW91230   0.093  10.758   2.691
29819SOL    HW191231   0.121  10.762   2.783
29819SOL    HW291232   0.032  10.684   2.688
29820SOL     OW91233   6.472   2.180   8.779
29820SOL    HW191234   6.404   2.118   8.804
29820SOL    HW291235   6.427   2.264   8.771
29821SOL     OW91236  13.395  12.483   9.817
29821SOL    HW191237  13.475  12.435   9.797
29821SOL    HW291238  13.381  12.539   9.741
29822SOL     OW91239   7.465   4.705   6.513
29822SOL    HW191240   7.496   4.789   6.545
29822SOL    HW291241   7.398   4.678   6.576
29823SOL     OW91242   0.606   9.612   4.877
29823SOL    HW191243   0.660   9.656   4.812
29823SOL    HW291244   0.529   9.667   4.886
29824SOL     OW91245  12.706   5.231   5.639
29824SOL    HW191246  12.776   5.186   5.686
29824SOL    HW291247  12.697   5.184   5.557
29825SOL     OW91248   7.461   0.263   9.512
29825SOL    HW191249   7.441   0.223   9.597
29825SOL    HW291250   7.521   0.334   9.532
29826SOL     OW91251   7.831   5.197  14.781
29826SOL    HW191252   7.893   5.125  14.766
29826SOL    HW291253   7.747   5.154  14.796
29827SOL     OW91254   7.316  11.950  14.366
29827SOL    HW191255   7.256  11.922  14.436
29827SOL    HW291256   7.258  11.971  14.292
29828SOL     OW91257   8.732   3.481   2.213
29828SOL    HW191258   8.770   3.395   2.196
29828SOL    HW291259   8.804   3.543   2.198
29829SOL     OW91260   7.401   9.424   3.100
29829SOL    HW191261   7.495   9.406   3.094
29829SOL    HW291262   7.371   9.368   3.170
29830SOL     OW91263  14.378  14.856  12.119
29830SOL    HW191264  14.453  14.845  12.177
29830SOL    HW291265  14.414  14.843  12.031
29831SOL     OW91266   8.429   6.891  12.032
29831SOL    HW191267   8.432   6.978  11.992
29831SOL    HW291268   8.422   6.832  11.957
29832SOL     OW91269  10.532  10.621   6.510
29832SOL    HW191270  10.483  10.665   6.579
29832SOL    HW291271  10.591  10.689   6.476
29833SOL     OW91272   3.985   3.371  11.575
29833SOL    HW191273   3.955   3.355  11.486
29833SOL    HW291274   3.935   3.310  11.629
29834SOL     OW91275   8.586  12.541   6.537
29834SOL    HW191276   8.567  12.450   6.563
29834SOL    HW291277   8.623  12.580   6.616
29835SOL     OW91278  10.927   9.189   2.786
29835SOL    HW191279  10.926   9.274   2.830
29835SOL    HW291280  10.835   9.168   2.772
29836SOL     OW91281   9.244   7.135   4.173
29836SOL    HW191282   9.224   7.066   4.109
29836SOL    HW291283   9.212   7.101   4.256
29837SOL     OW91284   4.532  14.427  10.761
29837SOL    HW191285   4.462  14.372  10.797
29837SOL    HW291286   4.509  14.438  10.668
29838SOL     OW91287  10.508  11.300   8.425
29838SOL    HW191288  10.588  11.340   8.391
29838SOL    HW291289  10.530  11.271   8.513
29839SOL     OW91290  10.729   2.756   8.306
29839SOL    HW191291  10.783   2.679   8.325
29839SOL    HW291292  10.785   2.811   8.251
29840SOL     OW91293  10.023   5.484  13.541
29840SOL    HW191294  10.096   5.501  13.601
29840SOL    HW291295  10.048   5.528  13.460
29841SOL     OW91296  13.223  10.836  10.424
29841SOL    HW191297  13.175  10.852  10.505
29841SOL    HW291298  13.306  10.883  10.436
29842SOL     OW91299   6.927   0.597   7.862
29842SOL    HW191300   6.984   0.627   7.932
29842SOL    HW291301   6.852   0.558   7.907
29843SOL     OW91302   3.833   7.031   9.854
29843SOL    HW191303   3.918   7.073   9.866
29843SOL    HW291304   3.785   7.051   9.934
29844SOL     OW91305   8.736   7.046   0.010
29844SOL    HW191306   8.721   7.082   0.098
29844SOL    HW291307   8.649   7.027  14.857
29845SOL     OW91308   9.535   7.714   7.338
29845SOL    HW191309   9.604   7.732   7.402
29845SOL    HW291310   9.531   7.618   7.333
29846SOL     OW91311   8.685   6.834   5.216
29846SOL    HW191312   8.712   6.916   5.257
29846SOL    HW291313   8.757   6.773   5.233
29847SOL     OW91314  10.842  11.389   1.888
29847SOL    HW191315  10.838  11.327   1.816
29847SOL    HW291316  10.861  11.335   1.965
29848SOL     OW91317  10.945  11.225  10.091
29848SOL    HW191318  10.991  11.308  10.096
29848SOL    HW291319  10.971  11.178  10.170
29849SOL     OW91320   8.531   8.238   8.364
29849SOL    HW191321   8.500   8.228   8.274
29849SOL    HW291322   8.616   8.282   8.356
29850SOL     OW91323   4.264   0.505   5.186
29850SOL    HW191324   4.251   0.592   5.149
29850SOL    HW291325   4.351   0.479   5.155
29851SOL     OW91326   0.444   6.023   9.752
29851SOL    HW191327   0.435   6.085   9.824
29851SOL    HW291328   0.360   5.979   9.747
29852SOL     OW91329   4.483   4.770  11.877
29852SOL    HW191330   4.537   4.699  11.842
29852SOL    HW291331   4.541   4.847  11.877
29853SOL     OW91332   1.157   5.114   0.290
29853SOL    HW191333   1.093   5.182   0.270
29853SOL    HW291334   1.230   5.132   0.231
29854SOL     OW91335   3.063   2.943  10.436
29854SOL    HW191336   3.078   2.940  10.531
29854SOL    HW291337   3.086   2.855  10.406
29855SOL     OW91338   3.867   8.243   9.061
29855SOL    HW191339   3.939   8.306   9.059
29855SOL    HW291340   3.883   8.185   8.987
29856SOL     OW91341   4.545  11.430  13.751
29856SOL    HW191342   4.523  11.451  13.661
29856SOL    HW291343   4.599  11.351  13.745
29857SOL     OW91344  12.828  13.671   4.078
29857SOL    HW191345  12.755  13.711   4.126
29857SOL    HW291346  12.905  13.721   4.105
29858SOL     OW91347  10.530   8.128   6.784
29858SOL    HW191348  10.570   8.086   6.708
29858SOL    HW291349  10.539   8.221   6.768
29859SOL     OW91350   6.207  10.353   3.025
29859SOL    HW191351   6.150  10.412   2.976
29859SOL    HW291352   6.195  10.268   2.983
29860SOL     OW91353  12.630   8.769   3.073
29860SOL    HW191354  12.658   8.794   2.985
29860SOL    HW291355  12.559   8.706   3.058
29861SOL     OW91356   6.244  13.917  12.045
29861SOL    HW191357   6.244  13.845  11.982
29861SOL    HW291358   6.213  13.992  11.996
29862SOL     OW91359   5.595  12.560  11.596
29862SOL    HW191360   5.526  12.496  11.614
29862SOL    HW291361   5.557  12.617  11.529
29863SOL     OW91362   0.662  12.067   3.809
29863SOL    HW191363   0.714  11.987   3.802
29863SOL    HW291364   0.649  12.095   3.719
29864SOL     OW91365   1.976   8.254   8.980
29864SOL    HW191366   1.904   8.200   9.013
29864SOL    HW291367   2.053   8.197   8.986
29865SOL     OW91368  10.289   8.192   8.370
29865SOL    HW191369  10.280   8.109   8.323
29865SOL    HW291370  10.328   8.251   8.306
29866SOL     OW91371   3.106   8.581   7.736
29866SOL    HW191372   3.124   8.510   7.799
29866SOL    HW291373   3.042   8.636   7.780
29867SOL     OW91374  14.198  10.673   4.287
29867SOL    HW191375  14.156  10.738   4.343
29867SOL    HW291376  14.204  10.594   4.341
29868SOL     OW91377   4.322  10.636   9.213
29868SOL    HW191378   4.246  10.577   9.210
29868SOL    HW291379   4.373  10.606   9.289
29869SOL     OW91380   9.157   4.068   1.656
29869SOL    HW191381   9.133   4.095   1.568
29869SOL    HW291382   9.253   4.058   1.652
29870SOL     OW91383   9.016   9.640  13.585
29870SOL    HW191384   9.040   9.578  13.517
29870SOL    HW291385   8.938   9.684  13.550
29871SOL     OW91386  10.342   8.622  11.719
29871SOL    HW191387  10.359   8.712  11.744
29871SOL    HW291388  10.252   8.623  11.686
29872SOL     OW91389   9.914   6.434   2.794
29872SOL    HW191390   9.983   6.434   2.861
29872SOL    HW291391   9.939   6.365   2.733
29873SOL     OW91392   2.334  12.925   2.498
29873SOL    HW191393   2.358  12.971   2.418
29873SOL    HW291394   2.416  12.920   2.548
29874SOL     OW91395  12.525   9.837   7.632
29874SOL    HW191396  12.599   9.813   7.689
29874SOL    HW291397  12.509   9.758   7.580
29875SOL     OW91398   8.608  13.745   2.678
29875SOL    HW191399   8.542  13.771   2.613
29875SOL    HW291400   8.578  13.785   2.760
29876SOL     OW91401   3.066   0.795   0.181
29876SOL    HW191402   3.054   0.884   0.147
29876SOL    HW291403   3.127   0.754   0.118
29877SOL     OW91404   6.333   0.787   9.893
29877SOL    HW191405   6.378   0.730   9.830
29877SOL    HW291406   6.285   0.849   9.839
29878SOL     OW91407   3.779  14.850   3.842
29878SOL    HW191408   3.724   0.038   3.806
29878SOL    HW291409   3.818   0.007   3.921
29879SOL     OW91410   3.326  14.334   3.948
29879SOL    HW191411   3.323  14.294   3.861
29879SOL    HW291412   3.419  14.353   3.963
29880SOL     OW91413   9.475   4.414  11.230
29880SOL    HW191414   9.516   4.471  11.166
29880SOL    HW291415   9.439   4.341  11.179
29881SOL     OW91416   1.718   8.620   9.908
29881SOL    HW191417   1.760   8.639   9.824
29881SOL    HW291418   1.741   8.529   9.925
29882SOL     OW91419   7.105   9.935   2.613
29882SOL    HW191420   7.106  10.014   2.667
29882SOL    HW291421   7.061   9.869   2.667
29883SOL     OW91422  12.031  13.645  13.431
29883SOL    HW191423  12.106  13.586  13.433
29883SOL    HW291424  12.001  13.644  13.340
29884SOL     OW91425   8.509   8.435  13.765
29884SOL    HW191426   8.502   8.415  13.672
29884SOL    HW291427   8.474   8.524  13.773
29885SOL     OW91428   6.036  11.933   2.071
29885SOL    HW191429   5.951  11.921   2.029
29885SOL    HW291430   6.083  11.851   2.053
29886SOL     OW91431  10.948  10.227   1.780
29886SOL    HW191432  10.854  10.247   1.772
29886SOL    HW291433  10.987  10.262   1.700
29887SOL     OW91434   4.365  13.372   8.286
29887SOL    HW191435   4.322  13.396   8.368
29887SOL    HW291436   4.441  13.321   8.313
29888SOL     OW91437   6.283   1.352   5.088
29888SOL    HW191438   6.227   1.276   5.073
29888SOL    HW291439   6.286   1.362   5.183
29889SOL     OW91440   9.924   6.951   7.995
29889SOL    HW191441   9.865   7.026   7.989
29889SOL    HW291442  10.010   6.986   7.973
29890SOL     OW91443  11.930   9.501  10.347
29890SOL    HW191444  11.850   9.484  10.298
29890SOL    HW291445  11.972   9.415  10.354
29891SOL     OW91446  11.348  12.687  11.217
29891SOL    HW191447  11.303  12.624  11.272
29891SOL    HW291448  11.346  12.769  11.267
29892SOL     OW91449  12.682   5.385  10.940
29892SOL    HW191450  12.741   5.391  11.015
29892SOL    HW291451  12.734   5.414  10.866
29893SOL     OW91452   4.583  13.536   2.166
29893SOL    HW191453   4.633  13.553   2.086
29893SOL    HW291454   4.525  13.463   2.144
29894SOL     OW91455   3.076  12.600   5.970
29894SOL    HW191456   3.071  12.588   6.065
29894SOL    HW291457   3.020  12.530   5.935
29895SOL     OW91458  14.715  13.433   1.929
29895SOL    HW191459  14.695  13.509   1.985
29895SOL    HW291460  14.630  13.406   1.894
29896SOL     OW91461   9.578   2.880   0.919
29896SOL    HW191462   9.644   2.936   0.961
29896SOL    HW291463   9.506   2.878   0.981
29897SOL     OW91464  14.267  14.822  10.181
29897SOL    HW191465  14.223  14.758  10.238
29897SOL    HW291466  14.239  14.798  10.093
29898SOL     OW91467   6.026  11.389   3.343
29898SOL    HW191468   5.960  11.329   3.308
29898SOL    HW291469   6.076  11.416   3.266
29899SOL     OW91470   7.870   8.637  14.561
29899SOL    HW191471   7.853   8.573  14.492
29899SOL    HW291472   7.830   8.599  14.639
29900SOL     OW91473   9.183   1.210   3.664
29900SOL    HW191474   9.258   1.206   3.724
29900SOL    HW291475   9.109   1.235   3.719
29901SOL     OW91476   9.150  14.746   3.221
29901SOL    HW191477   9.232  14.742   3.170
29901SOL    HW291478   9.178  14.771   3.309
29902SOL     OW91479  13.711   1.628   6.680
29902SOL    HW191480  13.648   1.556   6.679
29902SOL    HW291481  13.675   1.691   6.618
29903SOL     OW91482   1.469   7.025   7.512
29903SOL    HW191483   1.466   6.956   7.578
29903SOL    HW291484   1.509   7.099   7.556
29904SOL     OW91485  10.586  12.929   7.772
29904SOL    HW191486  10.587  13.012   7.821
29904SOL    HW291487  10.505  12.887   7.799
29905SOL     OW91488   4.442   8.160   9.598
29905SOL    HW191489   4.504   8.232   9.584
29905SOL    HW291490   4.460   8.099   9.526
29906SOL     OW91491   3.464  11.427   5.908
29906SOL    HW191492   3.532  11.374   5.949
29906SOL    HW291493   3.487  11.427   5.815
29907SOL     OW91494  11.088   1.288   5.822
29907SOL    HW191495  11.102   1.349   5.749
29907SOL    HW291496  11.159   1.308   5.884
29908SOL     OW91497  14.540  13.159   8.993
29908SOL    HW191498  14.534  13.148   8.898
29908SOL    HW291499  14.634  13.149   9.012
29909SOL     OW91500   2.346  11.598   8.572
29909SOL    HW191501   2.406  11.525   8.591
29909SOL    HW291502   2.399  11.659   8.521
29910SOL     OW91503   1.361   3.798   8.160
29910SOL    HW191504   1.362   3.779   8.066
29910SOL    HW291505   1.334   3.889   8.166
29911SOL     OW91506  14.800   2.957  10.636
29911SOL    HW191507  14.841   3.006  10.564
29911SOL    HW291508  14.732   3.016  10.669
29912SOL     OW91509   4.779   5.657   7.156
29912SOL    HW191510   4.840   5.605   7.208
29912SOL    HW291511   4.732   5.711   7.220
29913SOL     OW91512   9.262   4.054  10.588
29913SOL    HW191513   9.356   4.046  10.602
29913SOL    HW291514   9.224   4.052  10.676
29914SOL     OW91515   0.697   7.114   1.074
29914SOL    HW191516   0.681   7.163   1.155
29914SOL    HW291517   0.719   7.180   1.009
29915SOL     OW91518   2.860   1.535   6.731
29915SOL    HW191519   2.856   1.477   6.807
29915SOL    HW291520   2.773   1.574   6.726
29916SOL     OW91521  10.581   1.648   5.290
29916SOL    HW191522  10.562   1.680   5.202
29916SOL    HW291523  10.639   1.714   5.328
29917SOL     OW91524  13.341  10.591   7.620
29917SOL    HW191525  13.334  10.517   7.559
29917SOL    HW291526  13.394  10.656   7.573
29918SOL     OW91527  11.124   9.299  12.136
29918SOL    HW191528  11.185   9.311  12.064
29918SOL    HW291529  11.073   9.380  12.138
29919SOL     OW91530  10.932  11.812  12.504
29919SOL    HW191531  10.899  11.898  12.531
29919SOL    HW291532  10.859  11.772  12.457
29920SOL     OW91533   4.761   9.521  10.676
29920SOL    HW191534   4.765   9.543  10.769
29920SOL    HW291535   4.679   9.558  10.645
29921SOL     OW91536   3.203   1.291   3.627
29921SOL    HW191537   3.162   1.254   3.549
29921SOL    HW291538   3.209   1.217   3.689
29922SOL     OW91539   5.558  13.893   3.382
29922SOL    HW191540   5.512  13.894   3.298
29922SOL    HW291541   5.632  13.833   3.368
29923SOL     OW91542   8.603   6.342   7.660
29923SOL    HW191543   8.536   6.307   7.601
29923SOL    HW291544   8.598   6.437   7.648
29924SOL     OW91545  10.414   2.679   6.853
29924SOL    HW191546  10.375   2.647   6.771
29924SOL    HW291547  10.498   2.633   6.859
29925SOL     OW91548   2.482  12.135  14.447
29925SOL    HW191549   2.513  12.063  14.392
29925SOL    HW291550   2.403  12.101  14.490
29926SOL     OW91551   9.562   7.815   9.730
29926SOL    HW191552   9.656   7.809   9.720
29926SOL    HW291553   9.550   7.859   9.814
29927SOL     OW91554   8.376   4.609   9.892
29927SOL    HW191555   8.395   4.675   9.959
29927SOL    HW291556   8.399   4.652   9.809
29928SOL     OW91557   5.841  12.694   5.266
29928SOL    HW191558   5.810  12.775   5.226
29928SOL    HW291559   5.765  12.658   5.311
29929SOL     OW91560   1.912   1.025   6.321
29929SOL    HW191561   1.962   1.015   6.401
29929SOL    HW291562   1.976   1.049   6.254
29930SOL     OW91563   2.273   9.726   9.238
29930SOL    HW191564   2.212   9.659   9.268
29930SOL    HW291565   2.357   9.680   9.230
29931SOL     OW91566  13.692   5.041  11.759
29931SOL    HW191567  13.721   5.009  11.674
29931SOL    HW291568  13.764   5.019  11.818
29932SOL     OW91569   3.991   6.698  14.438
29932SOL    HW191570   3.963   6.786  14.412
29932SOL    HW291571   3.913   6.658  14.475
29933SOL     OW91572   3.870   3.634  11.624
29933SOL    HW191573   3.891   3.541  11.628
29933SOL    HW291574   3.861   3.661  11.715
29934SOL     OW91575   0.241   6.419  13.183
29934SOL    HW191576   0.185   6.398  13.257
29934SOL    HW291577   0.330   6.405  13.215
29935SOL     OW91578  14.807   2.191   0.881
29935SOL    HW191579  14.736   2.134   0.912
29935SOL    HW291580  14.810   2.177   0.787
29936SOL     OW91581  13.752   4.464   1.853
29936SOL    HW191582  13.823   4.460   1.919
29936SOL    HW291583  13.676   4.494   1.902
29937SOL     OW91584   1.424   2.332   1.573
29937SOL    HW191585   1.384   2.323   1.660
29937SOL    HW291586   1.503   2.384   1.590
29938SOL     OW91587   2.951  12.245   2.795
29938SOL    HW191588   2.916  12.265   2.708
29938SOL    HW291589   3.021  12.183   2.779
29939SOL     OW91590   5.465   2.014  13.837
29939SOL    HW191591   5.452   1.992  13.745
29939SOL    HW291592   5.384   2.056  13.863
29940SOL     OW91593   6.376   8.376   6.068
29940SOL    HW191594   6.461   8.410   6.094
29940SOL    HW291595   6.378   8.377   5.972
29941SOL     OW91596  11.612  10.499   6.602
29941SOL    HW191597  11.524  10.463   6.613
29941SOL    HW291598  11.621  10.562   6.672
29942SOL     OW91599   5.235  11.773  14.337
29942SOL    HW191600   5.215  11.837  14.268
29942SOL    HW291601   5.273  11.826  14.407
29943SOL     OW91602   8.198  10.150   5.044
29943SOL    HW191603   8.165  10.089   4.979
29943SOL    HW291604   8.181  10.107   5.128
29944SOL     OW91605   7.090  12.745  11.928
29944SOL    HW191606   7.040  12.742  11.847
29944SOL    HW291607   7.027  12.722  11.996
29945SOL     OW91608   8.264  10.453   4.961
29945SOL    HW191609   8.176  10.417   4.971
29945SOL    HW291610   8.316  10.411   5.030
29946SOL     OW91611   9.955   3.190   5.957
29946SOL    HW191612   9.926   3.120   6.017
29946SOL    HW291613   9.890   3.259   5.968
29947SOL     OW91614   8.673   2.901   2.509
29947SOL    HW191615   8.644   2.992   2.517
29947SOL    HW291616   8.768   2.905   2.520
29948SOL     OW91617  12.330   1.719   3.204
29948SOL    HW191618  12.354   1.658   3.135
29948SOL    HW291619  12.414   1.750   3.239
29949SOL     OW91620  11.571   0.873   0.897
29949SOL    HW191621  11.619   0.810   0.844
29949SOL    HW291622  11.494   0.897   0.845
29950SOL     OW91623  11.482   0.149   8.251
29950SOL    HW191624  11.538   0.081   8.214
29950SOL    HW291625  11.393   0.116   8.237
29951SOL     OW91626   2.316  10.223  10.270
29951SOL    HW191627   2.363  10.283  10.329
29951SOL    HW291628   2.267  10.166  10.329
29952SOL     OW91629   0.352   2.237  12.642
29952SOL    HW191630   0.417   2.277  12.701
29952SOL    HW291631   0.279   2.298  12.642
29953SOL     OW91632   2.902   6.396   4.425
29953SOL    HW191633   2.887   6.475   4.478
29953SOL    HW291634   2.816   6.356   4.417
29954SOL     OW91635  12.855  13.933   2.458
29954SOL    HW191636  12.800  13.996   2.411
29954SOL    HW291637  12.864  13.860   2.398
29955SOL     OW91638  10.686  14.022   9.211
29955SOL    HW191639  10.598  13.984   9.214
29955SOL    HW291640  10.744  13.946   9.207
29956SOL     OW91641  12.813  10.939   1.641
29956SOL    HW191642  12.899  10.915   1.608
29956SOL    HW291643  12.757  10.941   1.564
29957SOL     OW91644  11.720   1.955   1.537
29957SOL    HW191645  11.766   2.007   1.471
29957SOL    HW291646  11.642   1.923   1.492
29958SOL     OW91647   1.112   5.989  10.896
29958SOL    HW191648   1.023   5.981  10.862
29958SOL    HW291649   1.108   5.949  10.983
29959SOL     OW91650   0.417   5.179  12.031
29959SOL    HW191651   0.343   5.224  11.990
29959SOL    HW291652   0.457   5.129  11.959
29960SOL     OW91653   6.185   3.063  11.230
29960SOL    HW191654   6.136   3.012  11.294
29960SOL    HW291655   6.200   3.003  11.157
29961SOL     OW91656  10.726  14.063   3.167
29961SOL    HW191657  10.678  13.998   3.115
29961SOL    HW291658  10.816  14.029   3.168
29962SOL     OW91659  11.895   3.971   3.218
29962SOL    HW191660  11.959   3.927   3.161
29962SOL    HW291661  11.899   3.923   3.300
29963SOL     OW91662   5.643   0.075  12.381
29963SOL    HW191663   5.673   0.032  12.300
29963SOL    HW291664   5.722   0.118  12.415
29964SOL     OW91665   0.648  12.125   3.084
29964SOL    HW191666   0.658  12.100   3.176
29964SOL    HW291667   0.566  12.084   3.057
29965SOL     OW91668  11.209   6.671   0.527
29965SOL    HW191669  11.173   6.605   0.587
29965SOL    HW291670  11.294   6.693   0.564
29966SOL     OW91671   1.576   8.094  11.499
29966SOL    HW191672   1.633   8.018  11.496
29966SOL    HW291673   1.618   8.154  11.561
29967SOL     OW91674   8.177   2.704  10.517
29967SOL    HW191675   8.121   2.653  10.574
29967SOL    HW291676   8.197   2.646  10.444
29968SOL     OW91677   4.567  11.775   5.553
29968SOL    HW191678   4.503  11.750   5.619
29968SOL    HW291679   4.650  11.785   5.601
29969SOL     OW91680   5.909   1.580   5.510
29969SOL    HW191681   5.937   1.666   5.544
29969SOL    HW291682   5.886   1.530   5.588
29970SOL     OW91683   4.751  11.090   8.033
29970SOL    HW191684   4.801  11.016   8.068
29970SOL    HW291685   4.659  11.064   8.043
29971SOL     OW91686   2.177  13.997   2.115
29971SOL    HW191687   2.253  13.960   2.069
29971SOL    HW291688   2.208  14.013   2.204
29972SOL     OW91689   2.408   3.808   1.786
29972SOL    HW191690   2.454   3.724   1.790
29972SOL    HW291691   2.415   3.844   1.874
29973SOL     OW91692  13.499   5.369   4.645
29973SOL    HW191693  13.567   5.402   4.704
29973SOL    HW291694  13.534   5.386   4.557
29974SOL     OW91695   1.664  11.343   3.367
29974SOL    HW191696   1.671  11.356   3.272
29974SOL    HW291697   1.573  11.318   3.381
29975SOL     OW91698   9.732   1.165  10.573
29975SOL    HW191699   9.790   1.156  10.650
29975SOL    HW291700   9.782   1.219  10.512
29976SOL     OW91701   0.579   0.124   5.507
29976SOL    HW191702   0.596   0.217   5.496
29976SOL    HW291703   0.652   0.081   5.462
29977SOL     OW91704  11.180  11.365  11.267
29977SOL    HW191705  11.166  11.280  11.308
29977SOL    HW291706  11.197  11.425  11.339
29978SOL     OW91707   8.902   8.056   3.101
29978SOL    HW191708   8.858   8.122   3.156
29978SOL    HW291709   8.969   8.106   3.054
29979SOL     OW91710   4.256  14.138   0.508
29979SOL    HW191711   4.265  14.151   0.602
29979SOL    HW291712   4.225  14.222   0.474
29980SOL     OW91713   3.360   3.115   5.682
29980SOL    HW191714   3.437   3.058   5.680
29980SOL    HW291715   3.285   3.055   5.681
29981SOL     OW91716   7.406  12.509   3.898
29981SOL    HW191717   7.488  12.509   3.849
29981SOL    HW291718   7.343  12.467   3.839
29982SOL     OW91719  11.111   7.505   0.477
29982SOL    HW191720  11.207   7.513   0.482
29982SOL    HW291721  11.080   7.553   0.555
29983SOL     OW91722  12.030   0.955   8.078
29983SOL    HW191723  12.083   0.944   7.999
29983SOL    HW291724  11.945   0.986   8.047
29984SOL     OW91725   1.792   8.649   6.910
29984SOL    HW191726   1.751   8.730   6.942
29984SOL    HW291727   1.841   8.676   6.832
29985SOL     OW91728   1.860  14.003   0.191
29985SOL    HW191729   1.771  13.982   0.220
29985SOL    HW291730   1.858  14.097   0.174
29986SOL     OW91731   0.613   1.682   3.265
29986SOL    HW191732   0.615   1.741   3.190
29986SOL    HW291733   0.644   1.598   3.232
29987SOL     OW91734  14.817   9.932  13.792
29987SOL    HW191735  14.726   9.961  13.797
29987SOL    HW291736  14.812   9.841  13.763
29988SOL     OW91737   3.001  12.030   6.431
29988SOL    HW191738   2.940  11.968   6.392
29988SOL    HW291739   3.087  11.994   6.415
29989SOL     OW91740   6.999   8.138  13.785
29989SOL    HW191741   6.964   8.170  13.702
29989SOL    HW291742   6.925   8.098  13.829
29990SOL     OW91743   9.218   1.815   5.141
29990SOL    HW191744   9.125   1.798   5.123
29990SOL    HW291745   9.218   1.860   5.225
29991SOL     OW91746   5.048   1.092  11.142
29991SOL    HW191747   5.134   1.071  11.178
29991SOL    HW291748   5.048   1.187  11.130
29992SOL     OW91749   5.844  11.050   1.475
29992SOL    HW191750   5.824  11.089   1.561
29992SOL    HW291751   5.802  10.964   1.478
29993SOL     OW91752   9.566   9.243   6.564
29993SOL    HW191753   9.629   9.177   6.536
29993SOL    HW291754   9.549   9.224   6.656
29994SOL     OW91755  13.211   0.472   1.272
29994SOL    HW191756  13.277   0.537   1.297
29994SOL    HW291757  13.261   0.392   1.256
29995SOL     OW91758  11.768   0.218   3.937
29995SOL    HW191759  11.717   0.272   3.877
29995SOL    HW291760  11.761   0.262   4.021
29996SOL     OW91761   0.011   6.026   6.415
29996SOL    HW191762   0.015   5.977   6.332
29996SOL    HW291763   0.029   5.960   6.482
29997SOL     OW91764   5.368   3.665   7.902
29997SOL    HW191765   5.379   3.749   7.946
29997SOL    HW291766   5.280   3.636   7.926
29998SOL     OW91767   8.640   0.895   5.007
29998SOL    HW191768   8.653   0.984   5.041
29998SOL    HW291769   8.676   0.899   4.918
29999SOL     OW91770   6.893  12.497  14.653
29999SOL    HW191771   6.894  12.581  14.698
29999SOL    HW291772   6.985  12.468  14.655
30000SOL     OW91773  14.584  13.842   1.095
30000SOL    HW191774  14.665  13.882   1.126
30000SOL    HW291775  14.595  13.832   1.001
30001SOL     OW91776   0.775   0.739  10.488
30001SOL    HW191777   0.818   0.817  10.453
30001SOL    HW291778   0.779   0.750  10.583
30002SOL     OW91779   2.222  12.265   9.388
30002SOL    HW191780   2.262  12.216   9.460
30002SOL    HW291781   2.141  12.219   9.370
30003SOL     OW91782  13.760   9.038   5.642
30003SOL    HW191783  13.700   8.975   5.603
30003SOL    HW291784  13.713   9.121   5.638
30004SOL     OW91785  11.992   0.988   1.710
30004SOL    HW191786  11.952   0.973   1.625
30004SOL    HW291787  11.985   1.082   1.724
30005SOL     OW91788  14.819  11.132   4.505
30005SOL    HW191789  14.769  11.176   4.574
30005SOL    HW291790   0.023  11.115   4.545
30006SOL     OW91791   5.849  14.491   7.853
30006SOL    HW191792   5.777  14.553   7.838
30006SOL    HW291793   5.812  14.406   7.828
30007SOL     OW91794   7.095  13.217  13.431
30007SOL    HW191795   7.155  13.234  13.358
30007SOL    HW291796   7.097  13.122  13.442
30008SOL     OW91797   4.023   4.115   6.377
30008SOL    HW191798   3.968   4.039   6.393
30008SOL    HW291799   4.107   4.079   6.347
30009SOL     OW91800   3.406   1.976  13.832
30009SOL    HW191801   3.481   1.950  13.778
30009SOL    HW291802   3.445   2.009  13.912
30010SOL     OW91803   4.793   8.755   3.730
30010SOL    HW191804   4.834   8.827   3.682
30010SOL    HW291805   4.836   8.755   3.815
30011SOL     OW91806   3.173   0.126  12.303
30011SOL    HW191807   3.257   0.129  12.257
30011SOL    HW291808   3.194   0.150  12.393
30012SOL     OW91809   3.061   2.883   8.132
30012SOL    HW191810   2.996   2.951   8.111
30012SOL    HW291811   3.105   2.916   8.210
30013SOL     OW91812  13.281   4.344   5.254
30013SOL    HW191813  13.220   4.404   5.297
30013SOL    HW291814  13.251   4.341   5.163
30014SOL     OW91815   7.508   9.585   5.722
30014SOL    HW191816   7.489   9.622   5.808
30014SOL    HW291817   7.428   9.598   5.672
30015SOL     OW91818   6.827  10.079  11.136
30015SOL    HW191819   6.775  10.126  11.202
30015SOL    HW291820   6.782   9.995  11.126
30016SOL     OW91821   1.295   2.682   9.593
30016SOL    HW191822   1.231   2.684   9.522
30016SOL    HW291823   1.356   2.612   9.568
30017SOL     OW91824   0.447   3.552   1.014
30017SOL    HW191825   0.424   3.488   1.080
30017SOL    HW291826   0.444   3.504   0.931
30018SOL     OW91827  11.056  10.170   0.620
30018SOL    HW191828  10.986  10.221   0.580
30018SOL    HW291829  11.136  10.218   0.599
30019SOL     OW91830   8.905  12.223  10.878
30019SOL    HW191831   8.927  12.161  10.808
30019SOL    HW291832   8.885  12.167  10.953
30020SOL     OW91833   4.958   6.726   7.261
30020SOL    HW191834   4.973   6.752   7.170
30020SOL    HW291835   4.918   6.803   7.301
30021SOL     OW91836  12.448   8.844  13.962
30021SOL    HW191837  12.541   8.824  13.967
30021SOL    HW291838  12.444   8.925  13.911
30022SOL     OW91839  11.530   3.725  14.852
30022SOL    HW191840  11.494   3.685  14.773
30022SOL    HW291841  11.489   3.676   0.042
30023SOL     OW91842  12.378  10.470   8.076
30023SOL    HW191843  12.285  10.473   8.099
30023SOL    HW291844  12.423  10.459   8.159
30024SOL     OW91845   5.139   1.625   6.444
30024SOL    HW191846   5.175   1.710   6.469
30024SOL    HW291847   5.115   1.584   6.528
30025SOL     OW91848   2.335  11.389   0.036
30025SOL    HW191849   2.384  11.399  14.836
30025SOL    HW291850   2.379  11.448   0.098
30026SOL     OW91851   6.100   1.021   3.062
30026SOL    HW191852   6.131   1.100   3.107
30026SOL    HW291853   6.170   1.000   3.000
30027SOL     OW91854   5.105   0.013   5.359
30027SOL    HW191855   5.071  14.805   5.370
30027SOL    HW291856   5.058   0.064   5.425
30028SOL     OW91857   1.353   5.278  11.565
30028SOL    HW191858   1.267   5.308  11.595
30028SOL    HW291859   1.409   5.355  11.569
30029SOL     OW91860   6.799   3.936  13.206
30029SOL    HW191861   6.708   3.909  13.195
30029SOL    HW291862   6.849   3.866  13.164
30030SOL     OW91863   3.016  10.932   9.842
30030SOL    HW191864   3.075  10.865   9.877
30030SOL    HW291865   2.931  10.887   9.836
30031SOL     OW91866   8.648   1.117   6.482
30031SOL    HW191867   8.602   1.179   6.425
30031SOL    HW291868   8.676   1.047   6.423
30032SOL     OW91869   1.272  11.832   0.992
30032SOL    HW191870   1.349  11.887   1.010
30032SOL    HW291871   1.238  11.810   1.079
30033SOL     OW91872   7.800   6.858   9.668
30033SOL    HW191873   7.779   6.840   9.760
30033SOL    HW291874   7.715   6.866   9.625
30034SOL     OW91875   3.732   4.037  13.082
30034SOL    HW191876   3.666   4.028  13.013
30034SOL    HW291877   3.777   4.119  13.062
30035SOL     OW91878  12.539  13.952  13.165
30035SOL    HW191879  12.501  14.037  13.187
30035SOL    HW291880  12.483  13.888  13.209
30036SOL     OW91881   9.746   8.702   9.259
30036SOL    HW191882   9.759   8.630   9.198
30036SOL    HW291883   9.834   8.731   9.282
30037SOL     OW91884   0.541  12.201  13.964
30037SOL    HW191885   0.493  12.212  14.046
30037SOL    HW291886   0.474  12.210  13.896
30038SOL     OW91887   6.814   3.230   4.688
30038SOL    HW191888   6.888   3.268   4.737
30038SOL    HW291889   6.743   3.292   4.701
30039SOL     OW91890   8.884   4.512  11.191
30039SOL    HW191891   8.888   4.431  11.141
30039SOL    HW291892   8.822   4.493  11.262
30040SOL     OW91893  13.359   4.864   8.114
30040SOL    HW191894  13.389   4.776   8.093
30040SOL    HW291895  13.397   4.883   8.200
30041SOL     OW91896   0.223   6.037   6.186
30041SOL    HW191897   0.255   6.037   6.277
30041SOL    HW291898   0.296   6.070   6.135
30042SOL     OW91899   3.148   5.040   1.457
30042SOL    HW191900   3.072   5.018   1.510
30042SOL    HW291901   3.127   5.008   1.370
30043SOL     OW91902   0.094   1.033   1.184
30043SOL    HW191903   0.169   1.040   1.243
30043SOL    HW291904   0.056   1.120   1.183
30044SOL     OW91905   6.392   9.287  12.655
30044SOL    HW191906   6.371   9.195  12.643
30044SOL    HW291907   6.319   9.323  12.706
30045SOL     OW91908  11.853  13.083  11.490
30045SOL    HW191909  11.838  13.002  11.539
30045SOL    HW291910  11.837  13.153  11.554
30046SOL     OW91911  11.077  13.958   5.228
30046SOL    HW191912  11.049  14.024   5.165
30046SOL    HW291913  11.152  13.916   5.187
30047SOL     OW91914   5.536   6.812   6.856
30047SOL    HW191915   5.563   6.900   6.883
30047SOL    HW291916   5.541   6.814   6.760
30048SOL     OW91917   9.338   2.079   1.302
30048SOL    HW191918   9.280   2.097   1.376
30048SOL    HW291919   9.402   2.150   1.304
30049SOL     OW91920   7.780  11.102  14.173
30049SOL    HW191921   7.827  11.185  14.186
30049SOL    HW291922   7.760  11.072  14.261
30050SOL     OW91923   6.227  11.884   4.992
30050SOL    HW191924   6.214  11.790   5.008
30050SOL    HW291925   6.167  11.927   5.054
30051SOL     OW91926   9.359  13.814   3.052
30051SOL    HW191927   9.357  13.723   3.083
30051SOL    HW291928   9.452  13.838   3.055
30052SOL     OW91929  11.765  12.605   6.364
30052SOL    HW191930  11.720  12.613   6.280
30052SOL    HW291931  11.854  12.577   6.342
30053SOL     OW91932   1.487   7.640   1.211
30053SOL    HW191933   1.531   7.578   1.270
30053SOL    HW291934   1.508   7.726   1.247
30054SOL     OW91935  14.819   1.636  14.281
30054SOL    HW191936  14.778   1.644  14.367
30054SOL    HW291937  14.752   1.665  14.219
30055SOL     OW91938  13.246   4.121  12.416
30055SOL    HW191939  13.168   4.170  12.387
30055SOL    HW291940  13.260   4.056  12.347
30056SOL     OW91941  10.118   5.814   2.408
30056SOL    HW191942  10.114   5.880   2.477
30056SOL    HW291943  10.183   5.750   2.439
30057SOL     OW91944  12.880   3.619  13.626
30057SOL    HW191945  12.914   3.592  13.541
30057SOL    HW291946  12.918   3.556  13.688
30058SOL     OW91947  13.615   8.308   1.030
30058SOL    HW191948  13.661   8.385   1.063
30058SOL    HW291949  13.524   8.336   1.022
30059SOL     OW91950   6.105  10.454   1.588
30059SOL    HW191951   6.052  10.505   1.649
30059SOL    HW291952   6.101  10.364   1.622
30060SOL     OW91953   3.846   8.061   3.104
30060SOL    HW191954   3.819   8.052   3.195
30060SOL    HW291955   3.767   8.043   3.054
30061SOL     OW91956  11.455   5.721   3.513
30061SOL    HW191957  11.521   5.739   3.446
30061SOL    HW291958  11.450   5.801   3.565
30062SOL     OW91959  12.152   3.788   7.497
30062SOL    HW191960  12.226   3.734   7.470
30062SOL    HW291961  12.075   3.736   7.472
30063SOL     OW91962   5.214   1.343   8.102
30063SOL    HW191963   5.273   1.346   8.028
30063SOL    HW291964   5.148   1.278   8.078
30064SOL     OW91965   0.456   1.005   6.769
30064SOL    HW191966   0.403   0.961   6.836
30064SOL    HW291967   0.425   0.968   6.687
30065SOL     OW91968  11.545   6.797   8.667
30065SOL    HW191969  11.561   6.776   8.759
30065SOL    HW291970  11.632   6.812   8.630
30066SOL     OW91971   2.553  11.573  11.241
30066SOL    HW191972   2.568  11.667  11.251
30066SOL    HW291973   2.634  11.533  11.274
30067SOL     OW91974   4.868   4.316   8.164
30067SOL    HW191975   4.862   4.221   8.170
30067SOL    HW291976   4.887   4.333   8.072
30068SOL     OW91977   3.778  10.233   9.156
30068SOL    HW191978   3.752  10.230   9.064
30068SOL    HW291979   3.823  10.150   9.171
30069SOL     OW91980  13.830  14.153   2.039
30069SOL    HW191981  13.883  14.087   1.995
30069SOL    HW291982  13.756  14.168   1.981
30070SOL     OW91983   4.486   6.838  12.322
30070SOL    HW191984   4.476   6.783  12.400
30070SOL    HW291985   4.524   6.780  12.256
30071SOL     OW91986  11.912  11.336   0.665
30071SOL    HW191987  11.917  11.387   0.584
30071SOL    HW291988  11.877  11.397   0.730
30072SOL     OW91989  14.658   3.587   6.224
30072SOL    HW191990  14.649   3.493   6.243
30072SOL    HW291991  14.691   3.625   6.305
30073SOL     OW91992   2.941  14.242   5.648
30073SOL    HW191993   2.937  14.277   5.559
30073SOL    HW291994   2.890  14.304   5.700
30074SOL     OW91995   8.863   3.374   1.608
30074SOL    HW191996   8.869   3.371   1.703
30074SOL    HW291997   8.908   3.295   1.578
30075SOL     OW91998  14.468   6.423  11.911
30075SOL    HW191999  14.522   6.425  11.990
30075SOL    HW292000  14.494   6.501  11.863
30076SOL     OW92001  10.021   5.910   9.838
30076SOL    HW192002  10.012   5.898   9.933
30076SOL    HW292003   9.965   5.843   9.800
30077SOL     OW92004  10.201   8.354   7.102
30077SOL    HW192005  10.212   8.305   7.020
30077SOL    HW292006  10.201   8.446   7.075
30078SOL     OW92007   2.338   8.254   0.248
30078SOL    HW192008   2.303   8.239   0.160
30078SOL    HW292009   2.430   8.273   0.235
30079SOL     OW92010   1.350   2.682  13.788
30079SOL    HW192011   1.367   2.776  13.788
30079SOL    HW292012   1.290   2.668  13.715
30080SOL     OW92013  10.783  13.461   1.449
30080SOL    HW192014  10.841  13.517   1.500
30080SOL    HW292015  10.820  13.373   1.460
30081SOL     OW92016   7.330   8.455  14.678
30081SOL    HW192017   7.254   8.492  14.634
30081SOL    HW292018   7.405   8.481  14.624
30082SOL     OW92019  11.593   1.630   3.698
30082SOL    HW192020  11.676   1.670   3.722
30082SOL    HW292021  11.614   1.539   3.677
30083SOL     OW92022   7.727   4.265  12.252
30083SOL    HW192023   7.776   4.296  12.176
30083SOL    HW292024   7.784   4.285  12.327
30084SOL     OW92025  12.491   2.960   3.772
30084SOL    HW192026  12.473   2.944   3.865
30084SOL    HW292027  12.415   3.010   3.741
30085SOL     OW92028   1.825  12.333   8.884
30085SOL    HW192029   1.852  12.241   8.884
30085SOL    HW292030   1.906  12.382   8.869
30086SOL     OW92031   7.789   7.590   7.056
30086SOL    HW192032   7.823   7.613   6.969
30086SOL    HW292033   7.695   7.609   7.050
30087SOL     OW92034   5.017   8.363   0.228
30087SOL    HW192035   5.078   8.425   0.188
30087SOL    HW292036   5.057   8.341   0.312
30088SOL     OW92037   2.244   5.580   7.711
30088SOL    HW192038   2.200   5.536   7.638
30088SOL    HW292039   2.335   5.551   7.704
30089SOL     OW92040  13.630   7.728   9.689
30089SOL    HW192041  13.629   7.718   9.593
30089SOL    HW292042  13.559   7.789   9.708
30090SOL     OW92043  10.731   0.976   2.319
30090SOL    HW192044  10.636   0.987   2.322
30090SOL    HW292045  10.745   0.885   2.344
30091SOL     OW92046  10.971   5.977   4.137
30091SOL    HW192047  11.022   5.904   4.172
30091SOL    HW292048  10.977   6.045   4.204
30092SOL     OW92049  11.208  10.958   0.192
30092SOL    HW192050  11.226  10.948   0.285
30092SOL    HW292051  11.293  10.972   0.152
30093SOL     OW92052   5.664  13.395   2.961
30093SOL    HW192053   5.639  13.418   2.871
30093SOL    HW292054   5.657  13.299   2.963
30094SOL     OW92055   5.870   6.744  13.257
30094SOL    HW192056   5.851   6.819  13.314
30094SOL    HW292057   5.822   6.764  13.176
30095SOL     OW92058   9.312   6.884   8.679
30095SOL    HW192059   9.355   6.960   8.718
30095SOL    HW292060   9.301   6.823   8.752
30096SOL     OW92061  11.455   6.818   0.352
30096SOL    HW192062  11.518   6.867   0.404
30096SOL    HW292063  11.504   6.791   0.274
30097SOL     OW92064   2.329   0.477   8.073
30097SOL    HW192065   2.313   0.470   7.978
30097SOL    HW292066   2.333   0.387   8.103
30098SOL     OW92067   7.089   0.557  13.886
30098SOL    HW192068   7.035   0.481  13.865
30098SOL    HW292069   7.146   0.527  13.958
30099SOL     OW92070  12.218   4.470   3.162
30099SOL    HW192071  12.159   4.398   3.185
30099SOL    HW292072  12.304   4.430   3.156
30100SOL     OW92073   5.883   5.040  12.338
30100SOL    HW192074   5.927   4.999  12.264
30100SOL    HW292075   5.916   5.129  12.340
30101SOL     OW92076   1.800  10.404   0.464
30101SOL    HW192077   1.786  10.420   0.557
30101SOL    HW292078   1.745  10.469   0.420
30102SOL     OW92079   0.452  13.118   1.787
30102SOL    HW192080   0.502  13.037   1.794
30102SOL    HW292081   0.375  13.093   1.735
30103SOL     OW92082   6.751   4.754   4.760
30103SOL    HW192083   6.755   4.828   4.699
30103SOL    HW292084   6.706   4.686   4.710
30104SOL     OW92085   9.906   9.280   3.663
30104SOL    HW192086   9.961   9.207   3.633
30104SOL    HW292087   9.894   9.334   3.584
30105SOL     OW92088   9.419  12.393   8.375
30105SOL    HW192089   9.343  12.335   8.378
30105SOL    HW292090   9.488  12.344   8.419
30106SOL     OW92091   3.102   6.961   9.627
30106SOL    HW192092   3.101   6.999   9.539
30106SOL    HW292093   3.022   6.910   9.632
30107SOL     OW92094  14.494   6.667  14.597
30107SOL    HW192095  14.419   6.724  14.579
30107SOL    HW292096  14.542   6.713  14.666
30108SOL     OW92097  11.362   9.807   4.652
30108SOL    HW192098  11.340   9.740   4.587
30108SOL    HW292099  11.299   9.878   4.636
30109SOL     OW92100  11.259   5.826  13.147
30109SOL    HW192101  11.285   5.848  13.236
30109SOL    HW292102  11.273   5.907  13.097
30110SOL     OW92103   4.252  12.080  13.892
30110SOL    HW192104   4.331  12.095  13.945
30110SOL    HW292105   4.185  12.134  13.933
30111SOL     OW92106  13.778   3.127   6.020
30111SOL    HW192107  13.800   3.058   5.957
30111SOL    HW292108  13.857   3.181   6.026
30112SOL     OW92109   9.099   5.684   7.339
30112SOL    HW192110   9.082   5.776   7.319
30112SOL    HW292111   9.017   5.639   7.318
30113SOL     OW92112   2.810  13.912  10.516
30113SOL    HW192113   2.759  13.843  10.558
30113SOL    HW292114   2.800  13.896  10.422
30114SOL     OW92115   5.990   8.733  13.463
30114SOL    HW192116   5.992   8.736  13.367
30114SOL    HW292117   5.987   8.640  13.484
30115SOL     OW92118  14.198   3.992   2.852
30115SOL    HW192119  14.119   4.045   2.853
30115SOL    HW292120  14.269   4.054   2.836
30116SOL     OW92121   1.290   1.366   1.729
30116SOL    HW192122   1.344   1.444   1.744
30116SOL    HW292123   1.200   1.398   1.734
30117SOL     OW92124   3.547   8.535   6.108
30117SOL    HW192125   3.551   8.625   6.138
30117SOL    HW292126   3.638   8.510   6.093
30118SOL     OW92127  10.818   6.020  11.831
30118SOL    HW192128  10.748   6.032  11.896
30118SOL    HW292129  10.871   6.099  11.838
30119SOL     OW92130   0.262  12.194   1.510
30119SOL    HW192131   0.241  12.264   1.572
30119SOL    HW292132   0.345  12.220   1.470
30120SOL     OW92133   2.780   0.557  13.606
30120SOL    HW192134   2.686   0.549  13.615
30120SOL    HW292135   2.814   0.549  13.695
30121SOL     OW92136  14.474   1.283   8.605
30121SOL    HW192137  14.456   1.270   8.512
30121SOL    HW292138  14.516   1.202   8.633
30122SOL     OW92139   9.711   9.649  10.248
30122SOL    HW192140   9.643   9.586  10.270
30122SOL    HW292141   9.790   9.596  10.239
30123SOL     OW92142  14.828   2.613   2.284
30123SOL    HW192143  14.732   2.607   2.281
30123SOL    HW292144  14.857   2.582   2.198
30124SOL     OW92145   3.089   7.614   7.687
30124SOL    HW192146   3.098   7.709   7.696
30124SOL    HW292147   3.028   7.603   7.615
30125SOL     OW92148   5.347  13.364   2.659
30125SOL    HW192149   5.313  13.444   2.698
30125SOL    HW292150   5.290  13.349   2.583
30126SOL     OW92151  13.709  10.719  14.782
30126SOL    HW192152  13.683  10.742  14.872
30126SOL    HW292153  13.674  10.631  14.769
30127SOL     OW92154   9.145   3.036  11.434
30127SOL    HW192155   9.085   3.062  11.365
30127SOL    HW292156   9.205   2.974  11.393
30128SOL     OW92157  12.822   1.486   5.527
30128SOL    HW192158  12.882   1.413   5.509
30128SOL    HW292159  12.738   1.444   5.547
30129SOL     OW92160   3.383   8.935   6.764
30129SOL    HW192161   3.399   8.920   6.671
30129SOL    HW292162   3.307   8.881   6.785
30130SOL     OW92163   1.342   5.481   1.617
30130SOL    HW192164   1.422   5.532   1.631
30130SOL    HW292165   1.370   5.408   1.561
30131SOL     OW92166   8.886   0.103   2.661
30131SOL    HW192167   8.815   0.063   2.609
30131SOL    HW292168   8.894   0.191   2.625
30132SOL     OW92169   1.629   6.992   0.096
30132SOL    HW192170   1.702   6.957   0.147
30132SOL    HW292171   1.639   7.087   0.101
30133SOL     OW92172  11.927   6.946   2.935
30133SOL    HW192173  11.879   7.029   2.936
30133SOL    HW292174  11.964   6.941   2.847
30134SOL     OW92175   4.649  10.579  14.092
30134SOL    HW192176   4.689  10.587  14.179
30134SOL    HW292177   4.722  10.583  14.031
30135SOL     OW92178   9.354   8.925   6.494
30135SOL    HW192179   9.316   8.841   6.467
30135SOL    HW292180   9.282   8.987   6.484
30136SOL     OW92181  11.654  13.774   3.839
30136SOL    HW192182  11.643  13.796   3.746
30136SOL    HW292183  11.566  13.751   3.869
30137SOL     OW92184   3.369   9.334   6.935
30137SOL    HW192185   3.326   9.323   7.019
30137SOL    HW292186   3.383   9.429   6.927
30138SOL     OW92187   7.812  10.521  11.578
30138SOL    HW192188   7.881  10.545  11.639
30138SOL    HW292189   7.858  10.480  11.504
30139SOL     OW92190   0.684  10.097   2.715
30139SOL    HW192191   0.695  10.018   2.767
30139SOL    HW292192   0.606  10.140   2.752
30140SOL     OW92193  11.705  14.603   4.124
30140SOL    HW192194  11.621  14.564   4.099
30140SOL    HW292195  11.710  14.684   4.073
30141SOL     OW92196  11.508   1.470   2.828
30141SOL    HW192197  11.470   1.404   2.886
30141SOL    HW292198  11.480   1.554   2.866
30142SOL     OW92199   8.460   9.836  13.633
30142SOL    HW192200   8.434   9.752  13.594
30142SOL    HW292201   8.477   9.815  13.725
30143SOL     OW92202  11.874   5.337   3.290
30143SOL    HW192203  11.895   5.369   3.378
30143SOL    HW292204  11.955   5.296   3.259
30144SOL     OW92205   8.472   7.219   7.347
30144SOL    HW192206   8.378   7.237   7.344
30144SOL    HW292207   8.479   7.126   7.324
30145SOL     OW92208   2.949   6.899  13.666
30145SOL    HW192209   3.026   6.921  13.613
30145SOL    HW292210   2.985   6.873  13.750
30146SOL     OW92211  14.419   0.696   7.626
30146SOL    HW192212  14.375   0.710   7.542
30146SOL    HW292213  14.498   0.648   7.604
30147SOL     OW92214   9.789   8.990   0.982
30147SOL    HW192215   9.705   8.951   1.005
30147SOL    HW292216   9.844   8.916   0.955
30148SOL     OW92217   4.253  10.564  13.004
30148SOL    HW192218   4.282  10.645  12.962
30148SOL    HW292219   4.163  10.553  12.974
30149SOL     OW92220  13.141  11.492  14.553
30149SOL    HW192221  13.108  11.495  14.643
30149SOL    HW292222  13.073  11.535  14.501
30150SOL     OW92223   7.404  12.247   3.347
30150SOL    HW192224   7.411  12.335   3.383
30150SOL    HW292225   7.313  12.222   3.360
30151SOL     OW92226  14.146   1.998  11.693
30151SOL    HW192227  14.154   1.935  11.764
30151SOL    HW292228  14.211   1.970  11.628
30152SOL     OW92229   6.695   4.201   9.426
30152SOL    HW192230   6.727   4.127   9.477
30152SOL    HW292231   6.713   4.277   9.481
30153SOL     OW92232   6.757   1.490   1.212
30153SOL    HW192233   6.786   1.399   1.212
30153SOL    HW292234   6.755   1.514   1.305
30154SOL     OW92235  13.326   4.539  11.657
30154SOL    HW192236  13.357   4.627  11.635
30154SOL    HW292237  13.345   4.529  11.750
30155SOL     OW92238  12.717  11.692   8.381
30155SOL    HW192239  12.715  11.619   8.319
30155SOL    HW292240  12.729  11.650   8.466
30156SOL     OW92241   6.556  12.445   6.212
30156SOL    HW192242   6.613  12.432   6.288
30156SOL    HW292243   6.567  12.365   6.160
30157SOL     OW92244   2.530   1.026   8.407
30157SOL    HW192245   2.463   1.012   8.474
30157SOL    HW292246   2.587   1.093   8.444
30158SOL     OW92247   4.362   9.222   2.541
30158SOL    HW192248   4.337   9.299   2.592
30158SOL    HW292249   4.433   9.252   2.485
30159SOL     OW92250  11.422   4.099  13.187
30159SOL    HW192251  11.399   4.186  13.154
30159SOL    HW292252  11.510   4.108  13.222
30160SOL     OW92253   3.625   5.334   9.530
30160SOL    HW192254   3.573   5.397   9.481
30160SOL    HW292255   3.636   5.260   9.470
30161SOL     OW92256   6.821  10.826   4.230
30161SOL    HW192257   6.820  10.919   4.251
30161SOL    HW292258   6.838  10.783   4.314
30162SOL     OW92259   2.592  11.874  13.228
30162SOL    HW192260   2.582  11.868  13.323
30162SOL    HW292261   2.684  11.898  13.215
30163SOL     OW92262   2.960   8.012   7.896
30163SOL    HW192263   2.945   7.980   7.807
30163SOL    HW292264   2.890   8.076   7.911
30164SOL     OW92265   4.343  10.006  13.141
30164SOL    HW192266   4.369  10.077  13.198
30164SOL    HW292267   4.368  10.035  13.053
30165SOL     OW92268  14.677  13.662   2.066
30165SOL    HW192269  14.664  13.690   2.157
30165SOL    HW292270  14.745  13.720   2.032
30166SOL     OW92271  13.922  14.785   8.041
30166SOL    HW192272  13.905  14.825   7.955
30166SOL    HW292273  13.844  14.805   8.092
30167SOL     OW92274  11.933   6.040  13.097
30167SOL    HW192275  11.957   6.109  13.159
30167SOL    HW292276  12.006   5.978  13.101
30168SOL     OW92277   7.708   8.649  11.856
30168SOL    HW192278   7.696   8.578  11.793
30168SOL    HW292279   7.779   8.619  11.913
30169SOL     OW92280   2.979   2.401   5.909
30169SOL    HW192281   3.054   2.357   5.871
30169SOL    HW292282   2.976   2.371   6.000
30170SOL     OW92283   3.238  11.739   1.123
30170SOL    HW192284   3.273  11.718   1.037
30170SOL    HW292285   3.310  11.781   1.169
30171SOL     OW92286   1.252   6.683   7.030
30171SOL    HW192287   1.170   6.635   7.043
30171SOL    HW292288   1.289   6.646   6.949
30172SOL     OW92289   0.166   6.262   7.400
30172SOL    HW192290   0.140   6.305   7.318
30172SOL    HW292291   0.188   6.173   7.375
30173SOL     OW92292   9.002   4.324   5.098
30173SOL    HW192293   9.038   4.383   5.165
30173SOL    HW292294   8.928   4.372   5.061
30174SOL     OW92295  14.007   9.168   6.071
30174SOL    HW192296  13.989   9.145   5.980
30174SOL    HW292297  14.076   9.234   6.067
30175SOL     OW92298   2.352   7.230   5.119
30175SOL    HW192299   2.264   7.267   5.125
30175SOL    HW292300   2.403   7.281   5.182
30176SOL     OW92301   5.541  11.960   5.900
30176SOL    HW192302   5.528  11.866   5.886
30176SOL    HW292303   5.634  11.974   5.880
30177SOL     OW92304   4.053   4.563   1.412
30177SOL    HW192305   4.083   4.517   1.333
30177SOL    HW292306   4.076   4.504   1.484
30178SOL     OW92307   7.055   0.517   9.857
30178SOL    HW192308   7.120   0.561   9.911
30178SOL    HW292309   7.050   0.569   9.777
30179SOL     OW92310   9.692   4.176   0.500
30179SOL    HW192311   9.716   4.087   0.474
30179SOL    HW292312   9.668   4.168   0.592
30180SOL     OW92313   7.348   6.290   8.107
30180SOL    HW192314   7.343   6.214   8.050
30180SOL    HW292315   7.288   6.354   8.067
30181SOL     OW92316   5.202   9.395   4.055
30181SOL    HW192317   5.260   9.421   3.984
30181SOL    HW292318   5.167   9.478   4.088
30182SOL     OW92319  10.014  13.776  13.313
30182SOL    HW192320  10.013  13.683  13.338
30182SOL    HW292321   9.961  13.779  13.233
30183SOL     OW92322   1.013  12.805   3.922
30183SOL    HW192323   0.948  12.873   3.903
30183SOL    HW292324   0.984  12.730   3.870
30184SOL     OW92325   3.681  12.578   5.793
30184SOL    HW192326   3.686  12.558   5.886
30184SOL    HW292327   3.768  12.611   5.770
30185SOL     OW92328   3.707  13.432   7.066
30185SOL    HW192329   3.738  13.502   7.009
30185SOL    HW292330   3.783  13.375   7.077
30186SOL     OW92331   3.670   5.115  12.124
30186SOL    HW192332   3.608   5.183  12.152
30186SOL    HW292333   3.617   5.035  12.120
30187SOL     OW92334  12.034  12.680   2.515
30187SOL    HW192335  12.127  12.702   2.525
30187SOL    HW292336  12.015  12.700   2.423
30188SOL     OW92337  14.542  10.069  11.556
30188SOL    HW192338  14.587  10.008  11.498
30188SOL    HW292339  14.451  10.068  11.525
30189SOL     OW92340   2.627   3.495  11.152
30189SOL    HW192341   2.552   3.473  11.097
30189SOL    HW292342   2.608   3.583  11.184
30190SOL     OW92343   0.265   0.194   9.390
30190SOL    HW192344   0.284   0.288   9.391
30190SOL    HW292345   0.277   0.168   9.299
30191SOL     OW92346   5.082   6.476   8.773
30191SOL    HW192347   5.132   6.499   8.695
30191SOL    HW292348   4.992   6.467   8.742
30192SOL     OW92349   8.860   0.667  14.438
30192SOL    HW192350   8.944   0.626  14.415
30192SOL    HW292351   8.845   0.642  14.529
30193SOL     OW92352  11.481  14.405   3.251
30193SOL    HW192353  11.415  14.462   3.213
30193SOL    HW292354  11.519  14.456   3.323
30194SOL     OW92355   5.790   4.908  12.604
30194SOL    HW192356   5.730   4.835  12.586
30194SOL    HW292357   5.832   4.925  12.520
30195SOL     OW92358   1.595   7.199   8.959
30195SOL    HW192359   1.521   7.243   8.917
30195SOL    HW292360   1.559   7.117   8.991
30196SOL     OW92361   2.435  11.335  12.257
30196SOL    HW192362   2.373  11.404  12.279
30196SOL    HW292363   2.417  11.265  12.320
30197SOL     OW92364   4.634  13.984  11.793
30197SOL    HW192365   4.714  13.953  11.753
30197SOL    HW292366   4.570  13.915  11.778
30198SOL     OW92367   1.244   0.430   8.343
30198SOL    HW192368   1.252   0.351   8.395
30198SOL    HW292369   1.175   0.480   8.386
30199SOL     OW92370   3.192  10.687  14.746
30199SOL    HW192371   3.113  10.660  14.794
30199SOL    HW292372   3.203  10.619  14.679
30200SOL     OW92373   7.234  10.045   6.177
30200SOL    HW192374   7.292  10.082   6.111
30200SOL    HW292375   7.267  10.080   6.260
30201SOL     OW92376   0.372   8.556  10.569
30201SOL    HW192377   0.306   8.517  10.626
30201SOL    HW292378   0.336   8.549  10.481
30202SOL     OW92379   0.820   0.157   1.025
30202SOL    HW192380   0.766   0.098   0.972
30202SOL    HW292381   0.800   0.134   1.115
30203SOL     OW92382   1.208   3.945   0.453
30203SOL    HW192383   1.121   3.950   0.414
30203SOL    HW292384   1.216   3.853   0.481
30204SOL     OW92385  13.346   8.126   0.695
30204SOL    HW192386  13.409   8.059   0.721
30204SOL    HW292387  13.343   8.186   0.769
30205SOL     OW92388   9.161  12.577  14.636
30205SOL    HW192389   9.177  12.668  14.659
30205SOL    HW292390   9.088  12.551  14.692
30206SOL     OW92391  14.513   6.404   2.062
30206SOL    HW192392  14.491   6.463   1.991
30206SOL    HW292393  14.606   6.385   2.051
30207SOL     OW92394  10.492  11.241   0.967
30207SOL    HW192395  10.455  11.323   0.934
30207SOL    HW292396  10.563  11.268   1.024
30208SOL     OW92397   0.090   2.949  14.174
30208SOL    HW192398   0.092   2.890  14.100
30208SOL    HW292399   0.028   3.018  14.149
30209SOL     OW92400   1.622   1.371   9.395
30209SOL    HW192401   1.704   1.399   9.435
30209SOL    HW292402   1.647   1.340   9.308
30210SOL     OW92403   1.366  14.247   4.756
30210SOL    HW192404   1.416  14.204   4.825
30210SOL    HW292405   1.315  14.314   4.802
30211SOL     OW92406   5.645   0.079   3.993
30211SOL    HW192407   5.723   0.135   3.982
30211SOL    HW292408   5.575   0.127   3.948
30212SOL     OW92409  10.587  11.772   6.469
30212SOL    HW192410  10.620  11.684   6.451
30212SOL    HW292411  10.561  11.769   6.561
30213SOL     OW92412   6.448   1.795  10.626
30213SOL    HW192413   6.480   1.840  10.705
30213SOL    HW292414   6.397   1.862  10.580
30214SOL     OW92415  14.240   3.288   6.440
30214SOL    HW192416  14.285   3.364   6.477
30214SOL    HW292417  14.170   3.326   6.387
30215SOL     OW92418   7.504  10.227   3.330
30215SOL    HW192419   7.557  10.151   3.308
30215SOL    HW292420   7.567  10.291   3.365
30216SOL     OW92421  14.730   1.243   6.180
30216SOL    HW192422  14.737   1.339   6.177
30216SOL    HW292423  14.817   1.213   6.205
30217SOL     OW92424   2.828   4.975   4.725
30217SOL    HW192425   2.823   4.898   4.669
30217SOL    HW292426   2.858   4.941   4.809
30218SOL     OW92427  11.194   0.998  13.550
30218SOL    HW192428  11.127   0.973  13.613
30218SOL    HW292429  11.211   0.919  13.499
30219SOL     OW92430   8.242  10.783   1.125
30219SOL    HW192431   8.217  10.875   1.127
30219SOL    HW292432   8.260  10.764   1.033
30220SOL     OW92433   2.417   7.961   3.008
30220SOL    HW192434   2.329   7.932   2.985
30220SOL    HW292435   2.404   8.025   3.078
30221SOL     OW92436   3.353   6.011  10.463
30221SOL    HW192437   3.375   5.934  10.516
30221SOL    HW292438   3.403   6.082  10.503
30222SOL     OW92439   4.528   6.981   8.246
30222SOL    HW192440   4.459   6.927   8.282
30222SOL    HW292441   4.493   7.011   8.162
30223SOL     OW92442   0.974  12.979  14.315
30223SOL    HW192443   0.902  13.039  14.332
30223SOL    HW292444   1.008  12.957  14.402
30224SOL     OW92445   1.160   7.586   4.534
30224SOL    HW192446   1.209   7.592   4.617
30224SOL    HW292447   1.072   7.613   4.557
30225SOL     OW92448  11.610  12.049  13.283
30225SOL    HW192449  11.673  12.017  13.348
30225SOL    HW292450  11.574  11.969  13.244
30226SOL     OW92451   5.687   1.380   7.780
30226SOL    HW192452   5.782   1.392   7.779
30226SOL    HW292453   5.652   1.468   7.770
30227SOL     OW92454   5.288  11.378   5.448
30227SOL    HW192455   5.200  11.344   5.463
30227SOL    HW292456   5.298  11.450   5.511
30228SOL     OW92457   6.544   2.548   7.818
30228SOL    HW192458   6.559   2.476   7.756
30228SOL    HW292459   6.614   2.539   7.882
30229SOL     OW92460   5.346   0.545  12.668
30229SOL    HW192461   5.252   0.535  12.686
30229SOL    HW292462   5.349   0.602  12.592
30230SOL     OW92463   1.183  11.433   8.535
30230SOL    HW192464   1.267  11.464   8.569
30230SOL    HW292465   1.173  11.478   8.451
30231SOL     OW92466   2.005   5.675  14.436
30231SOL    HW192467   2.094   5.683  14.399
30231SOL    HW292468   1.950   5.653  14.361
30232SOL     OW92469  11.566  10.496   4.776
30232SOL    HW192470  11.560  10.516   4.869
30232SOL    HW292471  11.487  10.537   4.738
30233SOL     OW92472  11.258   6.610   9.415
30233SOL    HW192473  11.195   6.621   9.487
30233SOL    HW292474  11.240   6.523   9.380
30234SOL     OW92475   3.395   6.555  10.696
30234SOL    HW192476   3.368   6.481  10.642
30234SOL    HW292477   3.333   6.625  10.674
30235SOL     OW92478  10.053  11.544  12.584
30235SOL    HW192479   9.965  11.566  12.612
30235SOL    HW292480  10.073  11.462  12.629
30236SOL     OW92481   0.586  10.038   9.740
30236SOL    HW192482   0.594   9.961   9.684
30236SOL    HW292483   0.500  10.030   9.781
30237SOL     OW92484  10.375  13.179   0.072
30237SOL    HW192485  10.449  13.210   0.019
30237SOL    HW292486  10.303  13.238   0.049
30238SOL     OW92487   7.072   9.337   9.336
30238SOL    HW192488   7.164   9.346   9.314
30238SOL    HW292489   7.068   9.358   9.429
30239SOL     OW92490  11.004   1.616  11.290
30239SOL    HW192491  11.005   1.702  11.333
30239SOL    HW292492  11.042   1.557  11.355
30240SOL     OW92493  12.977  11.186   3.457
30240SOL    HW192494  12.972  11.149   3.369
30240SOL    HW292495  12.898  11.238   3.466
30241SOL     OW92496  13.964   2.289   1.343
30241SOL    HW192497  13.923   2.323   1.262
30241SOL    HW292498  14.039   2.346   1.357
30242SOL     OW92499  10.466  11.476  12.546
30242SOL    HW192500  10.499  11.426  12.471
30242SOL    HW292501  10.441  11.561  12.509
30243SOL     OW92502   7.083   9.335   4.787
30243SOL    HW192503   7.112   9.284   4.711
30243SOL    HW292504   6.995   9.303   4.805
30244SOL     OW92505   3.223   2.452   2.480
30244SOL    HW192506   3.267   2.530   2.513
30244SOL    HW292507   3.284   2.415   2.416
30245SOL     OW92508   6.970   7.414   0.463
30245SOL    HW192509   6.897   7.452   0.414
30245SOL    HW292510   6.936   7.404   0.552
30246SOL     OW92511   6.328   9.794   6.940
30246SOL    HW192512   6.283   9.860   6.993
30246SOL    HW292513   6.402   9.841   6.901
30247SOL     OW92514   4.109   1.424   6.923
30247SOL    HW192515   4.146   1.368   6.855
30247SOL    HW292516   4.014   1.411   6.915
30248SOL     OW92517   3.824   5.952  13.903
30248SOL    HW192518   3.869   6.034  13.924
30248SOL    HW292519   3.893   5.887  13.894
30249SOL     OW92520  11.841   2.221  10.645
30249SOL    HW192521  11.900   2.148  10.664
30249SOL    HW292522  11.884   2.268  10.574
30250SOL     OW92523   4.316   1.772   7.548
30250SOL    HW192524   4.226   1.770   7.516
30250SOL    HW292525   4.309   1.808   7.636
30251SOL     OW92526  12.661  13.109   8.128
30251SOL    HW192527  12.592  13.158   8.084
30251SOL    HW292528  12.654  13.020   8.093
30252SOL     OW92529   7.893   5.728   0.158
30252SOL    HW192530   7.945   5.750   0.235
30252SOL    HW292531   7.870   5.636   0.170
30253SOL     OW92532   4.070   0.334   0.396
30253SOL    HW192533   4.164   0.326   0.411
30253SOL    HW292534   4.030   0.282   0.465
30254SOL     OW92535   8.659  10.529  11.768
30254SOL    HW192536   8.752  10.542  11.750
30254SOL    HW292537   8.615  10.592  11.711
30255SOL     OW92538  11.990   8.447   5.710
30255SOL    HW192539  12.080   8.477   5.698
30255SOL    HW292540  11.982   8.372   5.650
30256SOL     OW92541   9.050  10.655   1.253
30256SOL    HW192542   9.075  10.593   1.184
30256SOL    HW292543   9.097  10.625   1.331
30257SOL     OW92544   5.281   4.942   0.497
30257SOL    HW192545   5.343   4.906   0.434
30257SOL    HW292546   5.325   4.933   0.582
30258SOL     OW92547  14.330  10.796   0.275
30258SOL    HW192548  14.283  10.832   0.350
30258SOL    HW292549  14.400  10.859   0.259
30259SOL     OW92550   6.655  11.024  10.542
30259SOL    HW192551   6.725  11.088  10.556
30259SOL    HW292552   6.699  10.947  10.507
30260SOL     OW92553  11.454   8.863   9.415
30260SOL    HW192554  11.476   8.931   9.478
30260SOL    HW292555  11.359   8.868   9.406
30261SOL     OW92556   6.670   6.768  11.145
30261SOL    HW192557   6.589   6.810  11.172
30261SOL    HW292558   6.695   6.813  11.064
30262SOL     OW92559   1.506   9.494  11.710
30262SOL    HW192560   1.436   9.492  11.776
30262SOL    HW292561   1.498   9.581  11.670
30263SOL     OW92562   5.008   9.620   2.339
30263SOL    HW192563   5.018   9.639   2.246
30263SOL    HW292564   5.066   9.682   2.383
30264SOL     OW92565   0.865   9.106  11.036
30264SOL    HW192566   0.903   9.194  11.041
30264SOL    HW292567   0.825   9.102  10.949
30265SOL     OW92568   9.237   5.474  13.533
30265SOL    HW192569   9.161   5.415  13.536
30265SOL    HW292570   9.218   5.533  13.460
30266SOL     OW92571  10.026   5.502  11.304
30266SOL    HW192572   9.935   5.478  11.288
30266SOL    HW292573  10.027   5.531  11.396
30267SOL     OW92574   2.329   6.716  14.362
30267SOL    HW192575   2.274   6.721  14.284
30267SOL    HW292576   2.273   6.677  14.429
30268SOL     OW92577   3.978  14.616  13.780
30268SOL    HW192578   3.895  14.619  13.732
30268SOL    HW292579   3.954  14.634  13.871
30269SOL     OW92580   4.423   7.277  13.017
30269SOL    HW192581   4.437   7.359  13.065
30269SOL    HW292582   4.328   7.268  13.014
30270SOL     OW92583   4.612   5.177  14.621
30270SOL    HW192584   4.651   5.157  14.535
30270SOL    HW292585   4.687   5.175  14.681
30271SOL     OW92586  10.258   0.528   7.089
30271SOL    HW192587  10.333   0.509   7.032
30271SOL    HW292588  10.186   0.547   7.028
30272SOL     OW92589   5.207  12.663   3.436
30272SOL    HW192590   5.234  12.648   3.527
30272SOL    HW292591   5.130  12.608   3.424
30273SOL     OW92592   7.350   3.553   6.968
30273SOL    HW192593   7.410   3.625   6.947
30273SOL    HW292594   7.398   3.501   7.033
30274SOL     OW92595  14.488  11.642   4.639
30274SOL    HW192596  14.403  11.599   4.642
30274SOL    HW292597  14.551  11.570   4.643
30275SOL     OW92598   9.220   5.992  13.767
30275SOL    HW192599   9.305   6.007  13.725
30275SOL    HW292600   9.206   6.069  13.822
30276SOL     OW92601   7.672  11.952   6.187
30276SOL    HW192602   7.609  12.004   6.137
30276SOL    HW292603   7.717  11.899   6.122
30277SOL     OW92604   6.607  10.596   0.948
30277SOL    HW192605   6.596  10.648   1.028
30277SOL    HW292606   6.702  10.589   0.937
30278SOL     OW92607   5.416   0.620  11.372
30278SOL    HW192608   5.461   0.672  11.438
30278SOL    HW292609   5.324   0.622  11.397
30279SOL     OW92610  14.871   2.257   7.771
30279SOL    HW192611  14.792   2.294   7.731
30279SOL    HW292612   0.062   2.307   7.732
30280SOL     OW92613   4.240   6.588  10.567
30280SOL    HW192614   4.290   6.532  10.626
30280SOL    HW292615   4.267   6.677  10.590
30281SOL     OW92616  11.270  13.868   5.712
30281SOL    HW192617  11.266  13.793   5.654
30281SOL    HW292618  11.350  13.914   5.686
30282SOL     OW92619   6.837  10.288   9.228
30282SOL    HW192620   6.812  10.314   9.139
30282SOL    HW292621   6.932  10.277   9.224
30283SOL     OW92622   1.806   2.739   1.227
30283SOL    HW192623   1.867   2.808   1.252
30283SOL    HW292624   1.782   2.759   1.137
30284SOL     OW92625   5.766   6.907  14.252
30284SOL    HW192626   5.857   6.879  14.239
30284SOL    HW292627   5.773   6.996  14.288
30285SOL     OW92628  12.681   3.327   8.215
30285SOL    HW192629  12.688   3.399   8.153
30285SOL    HW292630  12.761   3.331   8.266
30286SOL     OW92631   3.558  14.590   0.519
30286SOL    HW192632   3.534  14.579   0.611
30286SOL    HW292633   3.494  14.653   0.486
30287SOL     OW92634   9.688   1.110  12.099
30287SOL    HW192635   9.601   1.081  12.126
30287SOL    HW292636   9.706   1.187  12.154
30288SOL     OW92637   1.824   7.437   1.655
30288SOL    HW192638   1.794   7.365   1.599
30288SOL    HW292639   1.772   7.428   1.735
30289SOL     OW92640   8.425   0.568   1.430
30289SOL    HW192641   8.469   0.631   1.488
30289SOL    HW292642   8.458   0.590   1.343
30290SOL     OW92643   0.070   3.879  10.713
30290SOL    HW192644   0.081   3.861  10.620
30290SOL    HW292645   0.004   3.949  10.716
30291SOL     OW92646   2.224   0.597  11.223
30291SOL    HW192647   2.152   0.556  11.175
30291SOL    HW292648   2.237   0.681  11.179
30292SOL     OW92649  14.090   8.965   3.109
30292SOL    HW192650  14.177   8.925   3.118
30292SOL    HW292651  14.051   8.923   3.033
30293SOL     OW92652   2.728   6.517   2.516
30293SOL    HW192653   2.715   6.608   2.489
30293SOL    HW292654   2.817   6.496   2.489
30294SOL     OW92655   4.056   1.663   3.305
30294SOL    HW192656   4.058   1.751   3.343
30294SOL    HW292657   4.146   1.648   3.275
30295SOL     OW92658  12.077   5.349   2.255
30295SOL    HW192659  12.057   5.441   2.235
30295SOL    HW292660  12.008   5.321   2.314
30296SOL     OW92661   5.235   2.797   5.432
30296SOL    HW192662   5.252   2.851   5.509
30296SOL    HW292663   5.320   2.789   5.389
30297SOL     OW92664   3.103   1.065   9.244
30297SOL    HW192665   3.187   1.095   9.211
30297SOL    HW292666   3.039   1.123   9.204
30298SOL     OW92667  13.580  13.134   7.240
30298SOL    HW192668  13.503  13.078   7.242
30298SOL    HW292669  13.547  13.219   7.211
30299SOL     OW92670   0.398  12.774   1.794
30299SOL    HW192671   0.453  12.721   1.736
30299SOL    HW292672   0.459  12.837   1.834
30300SOL     OW92673   4.272   5.462  11.938
30300SOL    HW192674   4.244   5.554  11.936
30300SOL    HW292675   4.356   5.462  11.892
30301SOL     OW92676  13.825   6.305   8.646
30301SOL    HW192677  13.854   6.215   8.658
30301SOL    HW292678  13.904   6.358   8.659
30302SOL     OW92679   8.237  11.235   4.691
30302SOL    HW192680   8.193  11.303   4.641
30302SOL    HW292681   8.182  11.157   4.680
30303SOL     OW92682   3.962  14.819   6.960
30303SOL    HW192683   3.997  14.730   6.966
30303SOL    HW292684   3.944  14.831   6.866
30304SOL     OW92685   6.436  11.384   2.157
30304SOL    HW192686   6.366  11.364   2.219
30304SOL    HW292687   6.459  11.299   2.118
30305SOL     OW92688   8.836   2.511   1.396
30305SOL    HW192689   8.791   2.490   1.478
30305SOL    HW292690   8.845   2.427   1.352
30306SOL     OW92691   8.850   3.832   9.503
30306SOL    HW192692   8.917   3.764   9.499
30306SOL    HW292693   8.861   3.882   9.422
30307SOL     OW92694   1.255  14.431   6.221
30307SOL    HW192695   1.349  14.443   6.208
30307SOL    HW292696   1.214  14.487   6.156
30308SOL     OW92697   1.618   2.552   6.460
30308SOL    HW192698   1.630   2.475   6.404
30308SOL    HW292699   1.528   2.579   6.444
30309SOL     OW92700   8.417   5.832  12.248
30309SOL    HW192701   8.410   5.861  12.157
30309SOL    HW292702   8.441   5.740  12.242
30310SOL     OW92703  11.833   3.886   0.229
30310SOL    HW192704  11.814   3.852   0.141
30310SOL    HW292705  11.928   3.886   0.234
30311SOL     OW92706   4.535   0.437  14.112
30311SOL    HW192707   4.519   0.344  14.097
30311SOL    HW292708   4.448   0.477  14.107
30312SOL     OW92709   8.798  11.997  13.627
30312SOL    HW192710   8.736  12.066  13.603
30312SOL    HW292711   8.858  12.038  13.689
30313SOL     OW92712   1.025   1.614   0.651
30313SOL    HW192713   0.970   1.674   0.703
30313SOL    HW292714   1.083   1.672   0.601
30314SOL     OW92715   4.650   4.634   6.500
30314SOL    HW192716   4.739   4.641   6.534
30314SOL    HW292717   4.612   4.720   6.516
30315SOL     OW92718  10.742   8.794   1.799
30315SOL    HW192719  10.757   8.887   1.787
30315SOL    HW292720  10.681   8.770   1.729
30316SOL     OW92721   2.568  12.993   5.951
30316SOL    HW192722   2.627  12.978   5.877
30316SOL    HW292723   2.530  13.079   5.935
30317SOL     OW92724   6.521   9.893  10.154
30317SOL    HW192725   6.512   9.801  10.127
30317SOL    HW292726   6.434   9.929  10.144
30318SOL     OW92727  11.870  14.149   6.067
30318SOL    HW192728  11.802  14.084   6.047
30318SOL    HW292729  11.943  14.125   6.009
30319SOL     OW92730   2.972   5.749   0.621
30319SOL    HW192731   2.896   5.774   0.570
30319SOL    HW292732   2.941   5.745   0.712
30320SOL     OW92733   0.999  12.210  12.852
30320SOL    HW192734   1.029  12.176  12.937
30320SOL    HW292735   1.032  12.147  12.788
30321SOL     OW92736   3.851   6.385   9.602
30321SOL    HW192737   3.914   6.455   9.619
30321SOL    HW292738   3.823   6.400   9.512
30322SOL     OW92739   5.110   0.731   8.887
30322SOL    HW192740   5.027   0.709   8.930
30322SOL    HW292741   5.119   0.826   8.899
30323SOL     OW92742   1.243   9.018  12.957
30323SOL    HW192743   1.225   8.997  13.049
30323SOL    HW292744   1.221   8.938  12.910
30324SOL     OW92745   6.347   1.108   2.127
30324SOL    HW192746   6.369   1.042   2.060
30324SOL    HW292747   6.276   1.159   2.088
30325SOL     OW92748   9.335   6.863  12.369
30325SOL    HW192749   9.350   6.775  12.403
30325SOL    HW292750   9.256   6.856  12.316
30326SOL     OW92751   9.340   5.604   4.382
30326SOL    HW192752   9.271   5.647   4.433
30326SOL    HW292753   9.377   5.540   4.442
30327SOL     OW92754  11.958   8.796   2.138
30327SOL    HW192755  12.038   8.831   2.099
30327SOL    HW292756  11.955   8.705   2.108
30328SOL     OW92757  12.613   2.182  14.701
30328SOL    HW192758  12.626   2.088  14.690
30328SOL    HW292759  12.593   2.214  14.613
30329SOL     OW92760   8.802   8.866   9.238
30329SOL    HW192761   8.897   8.878   9.236
30329SOL    HW292762   8.767   8.951   9.262
30330SOL     OW92763  11.617  10.356   6.148
30330SOL    HW192764  11.572  10.311   6.076
30330SOL    HW292765  11.685  10.295   6.175
30331SOL     OW92766  10.859   5.926   1.169
30331SOL    HW192767  10.881   6.010   1.128
30331SOL    HW292768  10.937   5.872   1.157
30332SOL     OW92769   5.951  13.367  14.363
30332SOL    HW192770   5.925  13.275  14.372
30332SOL    HW292771   5.998  13.386  14.444
30333SOL     OW92772   8.922   3.570   8.866
30333SOL    HW192773   8.882   3.553   8.951
30333SOL    HW292774   8.934   3.665   8.864
30334SOL     OW92775  14.306  11.586  13.261
30334SOL    HW192776  14.337  11.673  13.235
30334SOL    HW292777  14.384  11.541  13.292
30335SOL     OW92778   9.023  10.663  11.241
30335SOL    HW192779   9.039  10.571  11.263
30335SOL    HW292780   9.020  10.665  11.146
30336SOL     OW92781  14.403   6.598  12.974
30336SOL    HW192782  14.427   6.642  12.893
30336SOL    HW292783  14.339   6.531  12.948
30337SOL     OW92784  11.167  13.699  14.837
30337SOL    HW192785  11.208  13.678  14.753
30337SOL    HW292786  11.236  13.744   0.006
30338SOL     OW92787   4.875   0.282   7.014
30338SOL    HW192788   4.890   0.250   7.103
30338SOL    HW292789   4.930   0.359   7.007
30339SOL     OW92790  10.082  12.165  10.971
30339SOL    HW192791  10.085  12.070  10.983
30339SOL    HW292792  10.015  12.194  11.033
30340SOL     OW92793   5.776   3.048   4.679
30340SOL    HW192794   5.767   3.143   4.671
30340SOL    HW292795   5.759   3.030   4.771
30341SOL     OW92796   8.307   5.809   7.863
30341SOL    HW192797   8.288   5.841   7.774
30341SOL    HW292798   8.402   5.810   7.869
30342SOL     OW92799   8.848  13.524   1.581
30342SOL    HW192800   8.869  13.532   1.675
30342SOL    HW292801   8.925  13.560   1.537
30343SOL     OW92802   3.602  11.921   4.893
30343SOL    HW192803   3.558  12.006   4.893
30343SOL    HW292804   3.545  11.865   4.945
30344SOL     OW92805  11.217   8.757   1.931
30344SOL    HW192806  11.141   8.721   1.976
30344SOL    HW292807  11.186   8.776   1.843
30345SOL     OW92808  11.523   3.312  10.968
30345SOL    HW192809  11.469   3.274  10.898
30345SOL    HW292810  11.463   3.326  11.041
30346SOL     OW92811  10.909  11.065   6.171
30346SOL    HW192812  10.926  10.997   6.236
30346SOL    HW292813  10.970  11.135   6.193
30347SOL     OW92814   7.529   7.578  13.841
30347SOL    HW192815   7.443   7.609  13.869
30347SOL    HW292816   7.584   7.656  13.840
30348SOL     OW92817  12.261   5.560  13.200
30348SOL    HW192818  12.198   5.536  13.268
30348SOL    HW292819  12.340   5.584  13.249
30349SOL     OW92820   6.669   0.502  11.250
30349SOL    HW192821   6.598   0.439  11.258
30349SOL    HW292822   6.682   0.535  11.339
30350SOL     OW92823   7.175   5.562  13.042
30350SOL    HW192824   7.141   5.513  12.967
30350SOL    HW292825   7.180   5.652  13.011
30351SOL     OW92826   8.771   9.584   1.601
30351SOL    HW192827   8.774   9.495   1.637
30351SOL    HW292828   8.740   9.573   1.511
30352SOL     OW92829   5.931   1.588  13.530
30352SOL    HW192830   5.867   1.651  13.496
30352SOL    HW292831   6.015   1.634  13.526
30353SOL     OW92832   2.265  13.179  13.976
30353SOL    HW192833   2.312  13.175  13.892
30353SOL    HW292834   2.248  13.272  13.989
30354SOL     OW92835   6.932   8.131  14.851
30354SOL    HW192836   6.865   8.194  14.824
30354SOL    HW292837   7.011   8.157  14.804
30355SOL     OW92838   9.222  11.200   2.497
30355SOL    HW192839   9.178  11.267   2.550
30355SOL    HW292840   9.251  11.248   2.419
30356SOL     OW92841  10.851  13.182   7.311
30356SOL    HW192842  10.901  13.101   7.306
30356SOL    HW292843  10.900  13.237   7.372
30357SOL     OW92844  11.908   9.798   6.246
30357SOL    HW192845  11.910   9.799   6.150
30357SOL    HW292846  11.825   9.756   6.268
30358SOL     OW92847   7.843   9.553  13.489
30358SOL    HW192848   7.782   9.574  13.560
30358SOL    HW292849   7.804   9.477  13.445
30359SOL     OW92850  13.655  10.370   5.272
30359SOL    HW192851  13.743  10.353   5.306
30359SOL    HW292852  13.658  10.461   5.243
30360SOL     OW92853   9.030   5.535   6.740
30360SOL    HW192854   8.985   5.459   6.701
30360SOL    HW292855   9.072   5.578   6.665
30361SOL     OW92856  12.231   8.181  12.629
30361SOL    HW192857  12.164   8.244  12.603
30361SOL    HW292858  12.253   8.206  12.719
30362SOL     OW92859  11.651   0.669   1.132
30362SOL    HW192860  11.730   0.637   1.088
30362SOL    HW292861  11.617   0.737   1.074
30363SOL     OW92862   6.764   5.122   1.510
30363SOL    HW192863   6.703   5.063   1.465
30363SOL    HW292864   6.711   5.197   1.534
30364SOL     OW92865   9.215   4.030   5.223
30364SOL    HW192866   9.307   4.058   5.225
30364SOL    HW292867   9.214   3.946   5.268
30365SOL     OW92868   0.435  14.458   6.630
30365SOL    HW192869   0.352  14.473   6.585
30365SOL    HW292870   0.460  14.545   6.664
30366SOL     OW92871   6.213   0.471   7.465
30366SOL    HW192872   6.131   0.437   7.501
30366SOL    HW292873   6.281   0.416   7.504
30367SOL     OW92874   4.620   0.502   7.670
30367SOL    HW192875   4.622   0.432   7.605
30367SOL    HW292876   4.528   0.508   7.696
30368SOL     OW92877   1.157  14.276  11.102
30368SOL    HW192878   1.192  14.188  11.085
30368SOL    HW292879   1.229  14.335  11.077
30369SOL     OW92880   6.250  10.360   7.817
30369SOL    HW192881   6.310  10.417   7.866
30369SOL    HW292882   6.163  10.389   7.842
30370SOL     OW92883   3.967   9.506  12.013
30370SOL    HW192884   4.051   9.484  12.055
30370SOL    HW292885   3.941   9.426  11.968
30371SOL     OW92886  13.776  12.602   6.376
30371SOL    HW192887  13.818  12.614   6.290
30371SOL    HW292888  13.775  12.507   6.389
30372SOL     OW92889  14.695   4.202  10.504
30372SOL    HW192890  14.778   4.236  10.471
30372SOL    HW292891  14.635   4.277  10.498
30373SOL     OW92892   1.784   3.353  14.419
30373SOL    HW192893   1.828   3.438  14.411
30373SOL    HW292894   1.801   3.310  14.335
30374SOL     OW92895  12.741   7.555  14.860
30374SOL    HW192896  12.764   7.489  14.795
30374SOL    HW292897  12.676   7.610  14.816
30375SOL     OW92898  10.203  13.390   2.868
30375SOL    HW192899  10.176  13.391   2.776
30375SOL    HW292900  10.140  13.446   2.913
30376SOL     OW92901  13.429   8.515   9.074
30376SOL    HW192902  13.408   8.457   9.001
30376SOL    HW292903  13.467   8.458   9.140
30377SOL     OW92904   1.511  12.385   5.199
30377SOL    HW192905   1.576  12.362   5.266
30377SOL    HW292906   1.487  12.476   5.219
30378SOL     OW92907  12.171   6.098   4.357
30378SOL    HW192908  12.082   6.120   4.329
30378SOL    HW292909  12.187   6.011   4.320
30379SOL     OW92910   3.266   9.021   1.334
30379SOL    HW192911   3.288   9.112   1.314
30379SOL    HW292912   3.351   8.977   1.342
30380SOL     OW92913   1.924   6.298  14.762
30380SOL    HW192914   1.834   6.267  14.754
30380SOL    HW292915   1.973   6.221  14.793
30381SOL     OW92916   8.709   5.392  10.862
30381SOL    HW192917   8.717   5.303  10.828
30381SOL    HW292918   8.673   5.382  10.950
30382SOL     OW92919   6.687  12.021   1.160
30382SOL    HW192920   6.615  12.078   1.185
30382SOL    HW292921   6.763  12.079   1.156
30383SOL     OW92922   8.447   7.487   6.464
30383SOL    HW192923   8.477   7.563   6.514
30383SOL    HW292924   8.358   7.471   6.495
30384SOL     OW92925   8.238   7.314   1.554
30384SOL    HW192926   8.281   7.382   1.502
30384SOL    HW292927   8.220   7.357   1.638
30385SOL     OW92928   3.941   8.097  13.279
30385SOL    HW192929   4.037   8.100  13.282
30385SOL    HW292930   3.913   8.156  13.349
30386SOL     OW92931   7.837  12.834  10.390
30386SOL    HW192932   7.830  12.773  10.317
30386SOL    HW292933   7.799  12.915  10.358
30387SOL     OW92934   9.330   4.220  11.852
30387SOL    HW192935   9.397   4.254  11.911
30387SOL    HW292936   9.343   4.125  11.853
30388SOL     OW92937   4.877   9.360   7.574
30388SOL    HW192938   4.876   9.374   7.479
30388SOL    HW292939   4.856   9.267   7.584
30389SOL     OW92940   2.481   4.259   1.148
30389SOL    HW192941   2.541   4.200   1.102
30389SOL    HW292942   2.495   4.344   1.107
30390SOL     OW92943   3.154   8.698  11.801
30390SOL    HW192944   3.234   8.717  11.752
30390SOL    HW292945   3.140   8.604  11.790
30391SOL     OW92946   7.888   0.439   9.184
30391SOL    HW192947   7.962   0.380   9.201
30391SOL    HW292948   7.811   0.384   9.195
30392SOL     OW92949   8.182   8.510   4.515
30392SOL    HW192950   8.137   8.568   4.454
30392SOL    HW292951   8.199   8.431   4.465
30393SOL     OW92952   7.239   9.920  12.067
30393SOL    HW192953   7.176   9.924  11.995
30393SOL    HW292954   7.186   9.898  12.144
30394SOL     OW92955   9.446   0.145   7.997
30394SOL    HW192956   9.430   0.064   8.045
30394SOL    HW292957   9.361   0.188   7.992
30395SOL     OW92958  12.096   2.663   4.382
30395SOL    HW192959  12.148   2.704   4.313
30395SOL    HW292960  12.006   2.671   4.351
30396SOL     OW92961   7.393   8.351   7.482
30396SOL    HW192962   7.352   8.341   7.396
30396SOL    HW292963   7.320   8.367   7.541
30397SOL     OW92964  12.718   5.104   3.822
30397SOL    HW192965  12.697   5.196   3.807
30397SOL    HW292966  12.813   5.101   3.823
30398SOL     OW92967  11.765   8.057  14.017
30398SOL    HW192968  11.739   8.149  14.026
30398SOL    HW292969  11.687   8.014  13.981
30399SOL     OW92970  10.837   0.604   7.811
30399SOL    HW192971  10.803   0.551   7.739
30399SOL    HW292972  10.929   0.616   7.790
30400SOL     OW92973   9.797   3.769  14.017
30400SOL    HW192974   9.853   3.847  14.016
30400SOL    HW292975   9.845   3.704  13.966
30401SOL     OW92976   6.202   1.197  11.587
30401SOL    HW192977   6.228   1.253  11.513
30401SOL    HW292978   6.171   1.117  11.546
30402SOL     OW92979   7.123   2.824   3.346
30402SOL    HW192980   7.069   2.823   3.425
30402SOL    HW292981   7.181   2.899   3.357
30403SOL     OW92982   7.423  10.405   9.947
30403SOL    HW192983   7.377  10.364  10.020
30403SOL    HW292984   7.495  10.344   9.927
30404SOL     OW92985   4.408  14.434   8.307
30404SOL    HW192986   4.419  14.357   8.251
30404SOL    HW292987   4.335  14.413   8.364
30405SOL     OW92988   5.809  10.711  13.026
30405SOL    HW192989   5.791  10.633  12.974
30405SOL    HW292990   5.792  10.685  13.116
30406SOL     OW92991   9.736  13.257  14.194
30406SOL    HW192992   9.822  13.216  14.187
30406SOL    HW292993   9.716  13.254  14.288
30407SOL     OW92994   4.525   4.492  10.085
30407SOL    HW192995   4.618   4.478  10.069
30407SOL    HW292996   4.482   4.458  10.006
30408SOL     OW92997   2.349  14.497   4.747
30408SOL    HW192998   2.264  14.459   4.727
30408SOL    HW292999   2.386  14.439   4.814
30409SOL     OW93000  11.090   4.736  10.966
30409SOL    HW193001  10.997   4.714  10.968
30409SOL    HW293002  11.121   4.703  10.881
30410SOL     OW93003   1.620   2.335  12.272
30410SOL    HW193004   1.560   2.281  12.220
30410SOL    HW293005   1.563   2.380  12.335
30411SOL     OW93006   1.262   6.222  11.441
30411SOL    HW193007   1.218   6.239  11.358
30411SOL    HW293008   1.256   6.305  11.488
30412SOL     OW93009   9.739   3.796   2.820
30412SOL    HW193010   9.655   3.827   2.788
30412SOL    HW293011   9.717   3.739   2.895
30413SOL     OW93012   2.942   9.896  11.478
30413SOL    HW193013   2.992   9.977  11.484
30413SOL    HW293014   2.884   9.898  11.555
30414SOL     OW93015   1.819   8.948  11.307
30414SOL    HW193016   1.913   8.943  11.291
30414SOL    HW293017   1.801   9.042  11.317
30415SOL     OW93018   8.944  14.529   3.271
30415SOL    HW193019   9.026  14.578   3.269
30415SOL    HW293020   8.935  14.493   3.183
30416SOL     OW93021   7.492  12.544  12.293
30416SOL    HW193022   7.415  12.489  12.312
30416SOL    HW293023   7.490  12.612  12.360
30417SOL     OW93024   9.873  13.336   1.321
30417SOL    HW193025   9.790  13.381   1.305
30417SOL    HW293026   9.899  13.365   1.409
30418SOL     OW93027  11.699  12.142   0.216
30418SOL    HW193028  11.722  12.140   0.309
30418SOL    HW293029  11.692  12.050   0.192
30419SOL     OW93030  13.735  13.262   0.803
30419SOL    HW193031  13.642  13.274   0.785
30419SOL    HW293032  13.738  13.221   0.890
30420SOL     OW93033   3.820   7.056   0.754
30420SOL    HW193034   3.757   6.995   0.794
30420SOL    HW293035   3.772   7.095   0.681
30421SOL     OW93036   8.967  14.000   3.799
30421SOL    HW193037   8.968  13.961   3.886
30421SOL    HW293038   8.962  14.094   3.814
30422SOL     OW93039   1.899   6.956   0.682
30422SOL    HW193040   1.808   6.946   0.711
30422SOL    HW293041   1.901   7.039   0.635
30423SOL     OW93042   6.722   6.011   4.684
30423SOL    HW193043   6.734   6.033   4.591
30423SOL    HW293044   6.781   6.070   4.730
30424SOL     OW93045  13.928   8.850   4.902
30424SOL    HW193046  13.915   8.767   4.855
30424SOL    HW293047  13.990   8.899   4.848
30425SOL     OW93048   1.865   6.176   7.260
30425SOL    HW193049   1.843   6.265   7.231
30425SOL    HW293050   1.844   6.175   7.353
30426SOL     OW93051   4.019   9.690   7.888
30426SOL    HW193052   4.086   9.756   7.907
30426SOL    HW293053   4.016   9.686   7.793
30427SOL     OW93054   1.397   2.262   9.928
30427SOL    HW193055   1.366   2.289   9.841
30427SOL    HW293056   1.317   2.235   9.974
30428SOL     OW93057  13.621   7.995   8.760
30428SOL    HW193058  13.619   7.899   8.758
30428SOL    HW293059  13.564   8.018   8.833
30429SOL     OW93060   3.181   2.708   3.841
30429SOL    HW193061   3.210   2.623   3.873
30429SOL    HW293062   3.132   2.687   3.761
30430SOL     OW93063   1.323  11.190  11.816
30430SOL    HW193064   1.397  11.210  11.874
30430SOL    HW293065   1.348  11.229  11.732
30431SOL     OW93066   8.563   7.010   3.814
30431SOL    HW193067   8.610   7.092   3.829
30431SOL    HW293068   8.489   7.012   3.874
30432SOL     OW93069  13.732   7.856   9.181
30432SOL    HW193070  13.824   7.871   9.163
30432SOL    HW293071  13.714   7.768   9.149
30433SOL     OW93072  12.153   2.591  10.759
30433SOL    HW193073  12.107   2.658  10.708
30433SOL    HW293074  12.246   2.610  10.745
30434SOL     OW93075   6.002   6.599   2.896
30434SOL    HW193076   6.079   6.542   2.903
30434SOL    HW293077   6.021   6.656   2.822
30435SOL     OW93078   0.226   8.900   8.148
30435SOL    HW193079   0.207   8.958   8.222
30435SOL    HW293080   0.313   8.865   8.166
30436SOL     OW93081   9.218  10.903   6.630
30436SOL    HW193082   9.129  10.919   6.660
30436SOL    HW293083   9.225  10.808   6.623
30437SOL     OW93084   7.495  11.371   1.107
30437SOL    HW193085   7.427  11.429   1.141
30437SOL    HW293086   7.483  11.373   1.012
30438SOL     OW93087  12.898   6.334   4.603
30438SOL    HW193088  12.825   6.272   4.607
30438SOL    HW293089  12.913   6.347   4.509
30439SOL     OW93090   9.264   8.504   2.932
30439SOL    HW193091   9.358   8.516   2.918
30439SOL    HW293092   9.256   8.484   3.025
30440SOL     OW93093   8.392   2.872   9.562
30440SOL    HW193094   8.447   2.949   9.551
30440SOL    HW293095   8.452   2.798   9.562
30441SOL     OW93096  10.126   9.365   4.143
30441SOL    HW193097  10.157   9.412   4.066
30441SOL    HW293098  10.074   9.293   4.107
30442SOL     OW93099  14.662  13.726   8.062
30442SOL    HW193100  14.608  13.736   7.984
30442SOL    HW293101  14.691  13.635   8.059
30443SOL     OW93102   4.151   7.269  12.872
30443SOL    HW193103   4.071   7.245  12.918
30443SOL    HW293104   4.151   7.214  12.794
30444SOL     OW93105  11.611   2.963  14.722
30444SOL    HW193106  11.663   2.929  14.650
30444SOL    HW293107  11.520   2.952  14.693
30445SOL     OW93108   4.575   4.596   3.519
30445SOL    HW193109   4.523   4.557   3.589
30445SOL    HW293110   4.658   4.619   3.560
30446SOL     OW93111   6.560   4.734  11.732
30446SOL    HW193112   6.623   4.774  11.793
30446SOL    HW293113   6.591   4.644  11.723
30447SOL     OW93114   5.565   2.480   0.026
30447SOL    HW193115   5.507   2.404   0.027
30447SOL    HW293116   5.531   2.538   0.095
30448SOL     OW93117  11.639   1.341   7.520
30448SOL    HW193118  11.578   1.279   7.560
30448SOL    HW293119  11.716   1.288   7.498
30449SOL     OW93120   1.670   6.045   5.937
30449SOL    HW193121   1.678   6.138   5.915
30449SOL    HW293122   1.588   6.039   5.987
30450SOL     OW93123   9.101   0.416   2.428
30450SOL    HW193124   9.191   0.447   2.418
30450SOL    HW293125   9.090   0.351   2.359
30451SOL     OW93126   4.396  14.855   1.293
30451SOL    HW193127   4.381  14.817   1.206
30451SOL    HW293128   4.315  14.838   1.341
30452SOL     OW93129   9.618   0.488   7.903
30452SOL    HW193130   9.654   0.402   7.924
30452SOL    HW293131   9.640   0.501   7.810
30453SOL     OW93132  13.069   5.352   3.953
30453SOL    HW193133  12.976   5.374   3.949
30453SOL    HW293134  13.114   5.435   3.969
30454SOL     OW93135  10.998   7.300   6.851
30454SOL    HW193136  11.014   7.334   6.763
30454SOL    HW293137  11.078   7.319   6.899
30455SOL     OW93138   5.546  11.348   4.206
30455SOL    HW193139   5.568  11.269   4.157
30455SOL    HW293140   5.627  11.398   4.208
30456SOL     OW93141   2.834   6.830  11.935
30456SOL    HW193142   2.811   6.747  11.894
30456SOL    HW293143   2.773   6.893  11.898
30457SOL     OW93144   4.960   8.384  10.064
30457SOL    HW193145   5.016   8.332  10.122
30457SOL    HW293146   4.885   8.408  10.119
30458SOL     OW93147   2.684   0.398   7.975
30458SOL    HW193148   2.655   0.475   8.024
30458SOL    HW293149   2.604   0.346   7.965
30459SOL     OW93150  11.615  13.076   3.184
30459SOL    HW193151  11.635  13.030   3.266
30459SOL    HW293152  11.701  13.091   3.144
30460SOL     OW93153   7.228   4.492   9.940
30460SOL    HW193154   7.257   4.425   9.877
30460SOL    HW293155   7.148   4.456   9.978
30461SOL     OW93156  14.414  11.509  12.257
30461SOL    HW193157  14.379  11.586  12.303
30461SOL    HW293158  14.490  11.482  12.310
30462SOL     OW93159  12.073   7.786   3.897
30462SOL    HW193160  12.160   7.750   3.882
30462SOL    HW293161  12.045   7.750   3.981
30463SOL     OW93162  11.860   5.219  11.002
30463SOL    HW193163  11.946   5.255  11.027
30463SOL    HW293164  11.836   5.266  10.922
30464SOL     OW93165  14.789   5.627   2.054
30464SOL    HW193166  14.844   5.549   2.050
30464SOL    HW293167  14.850   5.700   2.046
30465SOL     OW93168  14.635   1.409   5.558
30465SOL    HW193169  14.547   1.378   5.535
30465SOL    HW293170  14.687   1.391   5.479
30466SOL     OW93171   4.743   0.748  14.876
30466SOL    HW193172   4.656   0.736   0.034
30466SOL    HW293173   4.757   0.842  14.878
30467SOL     OW93174  11.105   5.889  10.290
30467SOL    HW193175  11.037   5.955  10.306
30467SOL    HW293176  11.184   5.926  10.331
30468SOL     OW93177  10.331  10.222  10.187
30468SOL    HW193178  10.419  10.218  10.149
30468SOL    HW293179  10.339  10.172  10.269
30469SOL     OW93180   0.821  14.518  10.788
30469SOL    HW193181   0.753  14.492  10.727
30469SOL    HW293182   0.794  14.603  10.821
30470SOL     OW93183   9.814  11.457   8.390
30470SOL    HW193184   9.881  11.495   8.333
30470SOL    HW293185   9.733  11.464   8.340
30471SOL     OW93186   1.552  11.935   6.440
30471SOL    HW193187   1.573  11.910   6.530
30471SOL    HW293188   1.633  11.973   6.406
30472SOL     OW93189   8.194   4.736   9.027
30472SOL    HW193190   8.122   4.761   8.969
30472SOL    HW293191   8.174   4.779   9.110
30473SOL     OW93192   5.753  13.657  12.035
30473SOL    HW193193   5.778  13.681  12.125
30473SOL    HW293194   5.681  13.716  12.013
30474SOL     OW93195   5.833  13.520   3.562
30474SOL    HW193196   5.907  13.550   3.508
30474SOL    HW293197   5.831  13.425   3.549
30475SOL     OW93198   4.256   5.605  12.661
30475SOL    HW193199   4.312   5.603  12.584
30475SOL    HW293200   4.314   5.586  12.734
30476SOL     OW93201   8.416   4.223  11.807
30476SOL    HW193202   8.355   4.269  11.750
30476SOL    HW293203   8.374   4.138  11.823
30477SOL     OW93204   1.820  14.641   5.760
30477SOL    HW193205   1.792  14.681   5.677
30477SOL    HW293206   1.852  14.715   5.812
30478SOL     OW93207  14.342   7.113  11.968
30478SOL    HW193208  14.432   7.113  11.998
30478SOL    HW293209  14.296   7.174  12.026
30479SOL     OW93210   1.378   8.631   3.741
30479SOL    HW193211   1.425   8.712   3.721
30479SOL    HW293212   1.396   8.615   3.834
30480SOL     OW93213  11.179   1.455   7.111
30480SOL    HW193214  11.162   1.476   7.203
30480SOL    HW293215  11.274   1.461   7.102
30481SOL     OW93216   2.326   3.866   9.327
30481SOL    HW193217   2.367   3.903   9.249
30481SOL    HW293218   2.277   3.790   9.295
30482SOL     OW93219  10.034   9.783   8.999
30482SOL    HW193220   9.953   9.807   8.954
30482SOL    HW293221  10.017   9.802   9.091
30483SOL     OW93222  13.332   3.077   5.556
30483SOL    HW193223  13.240   3.057   5.571
30483SOL    HW293224  13.351   3.042   5.469
30484SOL     OW93225   3.451  10.952   1.226
30484SOL    HW193226   3.496  11.014   1.169
30484SOL    HW293227   3.471  10.866   1.189
30485SOL     OW93228   5.615   0.162  10.027
30485SOL    HW193229   5.675   0.136   9.957
30485SOL    HW293230   5.608   0.085  10.083
30486SOL     OW93231   1.549   6.045   0.096
30486SOL    HW193232   1.610   5.974   0.116
30486SOL    HW293233   1.466   6.001   0.076
30487SOL     OW93234   9.752   2.958  10.680
30487SOL    HW193235   9.718   3.028  10.735
30487SOL    HW293236   9.675   2.921  10.637
30488SOL     OW93237   9.486  13.589   2.719
30488SOL    HW193238   9.482  13.502   2.678
30488SOL    HW293239   9.465  13.650   2.647
30489SOL     OW93240   8.692   9.598   1.336
30489SOL    HW193241   8.658   9.647   1.260
30489SOL    HW293242   8.762   9.545   1.300
30490SOL     OW93243   3.782   5.534  10.661
30490SOL    HW193244   3.848   5.469  10.686
30490SOL    HW293245   3.809   5.565  10.575
30491SOL     OW93246   2.447  14.834  12.277
30491SOL    HW193247   2.522  14.786  12.239
30491SOL    HW293248   2.483   0.038  12.301
30492SOL     OW93249   2.195   5.555   6.935
30492SOL    HW193250   2.124   5.557   6.872
30492SOL    HW293251   2.163   5.499   7.006
30493SOL     OW93252   1.103   3.888   7.394
30493SOL    HW193253   1.075   3.891   7.486
30493SOL    HW293254   1.084   3.799   7.366
30494SOL     OW93255  12.267   7.749   7.191
30494SOL    HW193256  12.171   7.744   7.186
30494SOL    HW293257  12.296   7.658   7.189
30495SOL     OW93258   3.690   9.538  12.149
30495SOL    HW193259   3.744   9.560  12.225
30495SOL    HW293260   3.752   9.504  12.084
30496SOL     OW93261   3.393  13.019   4.089
30496SOL    HW193262   3.302  13.017   4.116
30496SOL    HW293263   3.405  13.107   4.052
30497SOL     OW93264   6.216   2.947   4.090
30497SOL    HW193265   6.153   2.903   4.148
30497SOL    HW293266   6.301   2.912   4.117
30498SOL     OW93267   8.031   3.521   8.500
30498SOL    HW193268   8.101   3.463   8.529
30498SOL    HW293269   8.019   3.500   8.407
30499SOL     OW93270   2.703   7.056  10.153
30499SOL    HW193271   2.753   7.072  10.233
30499SOL    HW293272   2.714   6.963  10.136
30500SOL     OW93273   9.941   7.091  12.728
30500SOL    HW193274  10.000   7.161  12.699
30500SOL    HW293275   9.995   7.012  12.725
30501SOL     OW93276  11.521   7.896  10.612
30501SOL    HW193277  11.427   7.876  10.607
30501SOL    HW293278  11.541   7.894  10.705
30502SOL     OW93279   1.098   8.499   2.573
30502SOL    HW193280   1.008   8.512   2.544
30502SOL    HW293281   1.151   8.508   2.493
30503SOL     OW93282  12.309   3.098  13.048
30503SOL    HW193283  12.359   3.174  13.017
30503SOL    HW293284  12.225   3.135  13.077
30504SOL     OW93285  12.421   5.226  13.250
30504SOL    HW193286  12.392   5.135  13.237
30504SOL    HW293287  12.355   5.264  13.307
30505SOL     OW93288   4.171   8.612   9.217
30505SOL    HW193289   4.153   8.702   9.242
30505SOL    HW293290   4.255   8.591   9.256
30506SOL     OW93291   7.042  10.372   4.599
30506SOL    HW193292   7.105  10.303   4.620
30506SOL    HW293293   7.087  10.426   4.533
30507SOL     OW93294  13.121   3.208   7.399
30507SOL    HW193295  13.170   3.177   7.322
30507SOL    HW293296  13.122   3.303   7.392
30508SOL     OW93297  14.805  14.117   8.602
30508SOL    HW193298  14.839  14.035   8.567
30508SOL    HW293299  14.839  14.120   8.692
30509SOL     OW93300   5.404  12.416   4.063
30509SOL    HW193301   5.384  12.343   4.005
30509SOL    HW293302   5.322  12.467   4.067
30510SOL     OW93303   2.858  10.698   8.488
30510SOL    HW193304   2.794  10.676   8.556
30510SOL    HW293305   2.855  10.793   8.482
30511SOL     OW93306  11.997   3.157  11.489
30511SOL    HW193307  12.034   3.069  11.492
30511SOL    HW293308  11.912   3.149  11.533
30512SOL     OW93309   8.265   6.405  11.582
30512SOL    HW193310   8.337   6.343  11.583
30512SOL    HW293311   8.188   6.352  11.561
30513SOL     OW93312  12.961  12.423   7.376
30513SOL    HW193313  13.019  12.492   7.345
30513SOL    HW293314  13.019  12.363   7.424
30514SOL     OW93315   1.049   1.906   2.433
30514SOL    HW193316   1.006   1.980   2.475
30514SOL    HW293317   1.142   1.920   2.448
30515SOL     OW93318   9.216   5.990  13.397
30515SOL    HW193319   9.192   5.937  13.473
30515SOL    HW293320   9.151   5.967  13.330
30516SOL     OW93321  10.680   3.497  11.369
30516SOL    HW193322  10.673   3.502  11.273
30516SOL    HW293323  10.639   3.578  11.400
30517SOL     OW93324  13.133  11.534   9.142
30517SOL    HW193325  13.074  11.534   9.217
30517SOL    HW293326  13.215  11.570   9.176
30518SOL     OW93327   3.876   9.701  11.237
30518SOL    HW193328   3.889   9.795  11.231
30518SOL    HW293329   3.896   9.668  11.149
30519SOL     OW93330  12.887   0.890   2.799
30519SOL    HW193331  12.930   0.832   2.861
30519SOL    HW293332  12.794   0.887   2.823
30520SOL     OW93333   3.797   7.170   1.753
30520SOL    HW193334   3.841   7.215   1.681
30520SOL    HW293335   3.725   7.123   1.712
30521SOL     OW93336  12.592   0.017   9.053
30521SOL    HW193337  12.531   0.003   8.980
30521SOL    HW293338  12.655   0.081   9.020
30522SOL     OW93339   5.787   1.171   8.924
30522SOL    HW193340   5.723   1.141   8.988
30522SOL    HW293341   5.737   1.226   8.864
30523SOL     OW93342   7.815   7.914   6.599
30523SOL    HW193343   7.823   7.867   6.683
30523SOL    HW293344   7.762   7.855   6.544
30524SOL     OW93345  10.650   1.069   7.437
30524SOL    HW193346  10.659   1.145   7.379
30524SOL    HW293347  10.615   1.000   7.380
30525SOL     OW93348   5.379   2.390  10.329
30525SOL    HW193349   5.304   2.355  10.378
30525SOL    HW293350   5.366   2.485  10.330
30526SOL     OW93351   8.661  10.891  13.434
30526SOL    HW193352   8.699  10.927  13.513
30526SOL    HW293353   8.731  10.897  13.368
30527SOL     OW93354  13.300  13.753   1.157
30527SOL    HW193355  13.367  13.705   1.206
30527SOL    HW293356  13.304  13.842   1.193
30528SOL     OW93357  12.739   8.883   2.514
30528SOL    HW193358  12.691   8.800   2.508
30528SOL    HW293359  12.805   8.868   2.583
30529SOL     OW93360   7.351  10.871   6.311
30529SOL    HW193361   7.407  10.928   6.259
30529SOL    HW293362   7.265  10.914   6.310
30530SOL     OW93363  10.970   2.789   9.317
30530SOL    HW193364  10.900   2.836   9.271
30530SOL    HW293365  10.947   2.696   9.307
30531SOL     OW93366   8.856   9.892   7.091
30531SOL    HW193367   8.760   9.894   7.088
30531SOL    HW293368   8.878   9.799   7.093
30532SOL     OW93369  13.374   6.673   4.102
30532SOL    HW193370  13.335   6.740   4.046
30532SOL    HW293371  13.457   6.652   4.061
30533SOL     OW93372   2.878   1.586   2.000
30533SOL    HW193373   2.938   1.654   1.971
30533SOL    HW293374   2.891   1.514   1.938
30534SOL     OW93375  12.097   7.144   7.361
30534SOL    HW193376  12.117   7.076   7.296
30534SOL    HW293377  12.004   7.164   7.346
30535SOL     OW93378   7.493   7.993   7.927
30535SOL    HW193379   7.587   7.993   7.945
30535SOL    HW293380   7.486   8.006   7.832
30536SOL     OW93381   2.700  13.400   9.736
30536SOL    HW193382   2.675  13.405   9.644
30536SOL    HW293383   2.671  13.483   9.774
30537SOL     OW93384   1.766   2.515  12.067
30537SOL    HW193385   1.737   2.456  12.137
30537SOL    HW293386   1.735   2.602  12.093
30538SOL     OW93387   7.920   2.971  13.268
30538SOL    HW193388   7.895   2.890  13.311
30538SOL    HW293389   7.971   2.943  13.192
30539SOL     OW93390   1.774  13.878   9.223
30539SOL    HW193391   1.835  13.933   9.172
30539SOL    HW293392   1.829  13.806   9.255
30540SOL     OW93393   1.671  11.806  13.914
30540SOL    HW193394   1.680  11.787  13.820
30540SOL    HW293395   1.580  11.833  13.924
30541SOL     OW93396  13.446  11.532   9.761
30541SOL    HW193397  13.473  11.485   9.841
30541SOL    HW293398  13.404  11.464   9.708
30542SOL     OW93399   9.329   3.462   6.818
30542SOL    HW193400   9.423   3.470   6.802
30542SOL    HW293401   9.323   3.412   6.900
30543SOL     OW93402  12.773   3.308  10.301
30543SOL    HW193403  12.828   3.250  10.248
30543SOL    HW293404  12.781   3.274  10.390
30544SOL     OW93405   0.461   3.171   1.075
30544SOL    HW193406   0.444   3.235   1.144
30544SOL    HW293407   0.396   3.191   1.008
30545SOL     OW93408  10.212   1.416  10.449
30545SOL    HW193409  10.223   1.338  10.502
30545SOL    HW293410  10.296   1.462  10.456
30546SOL     OW93411   0.235  11.798   7.842
30546SOL    HW193412   0.186  11.879   7.833
30546SOL    HW293413   0.197  11.755   7.919
30547SOL     OW93414   9.354   1.452  11.493
30547SOL    HW193415   9.443   1.448  11.529
30547SOL    HW293416   9.339   1.366  11.456
30548SOL     OW93417   2.777   9.566   6.868
30548SOL    HW193418   2.794   9.652   6.829
30548SOL    HW293419   2.729   9.519   6.800
30549SOL     OW93420  10.487  13.361   9.703
30549SOL    HW193421  10.457  13.317   9.623
30549SOL    HW293422  10.417  13.423   9.724
30550SOL     OW93423  10.531   3.223  10.370
30550SOL    HW193424  10.484   3.276  10.434
30550SOL    HW293425  10.593   3.172  10.422
30551SOL     OW93426   4.371  10.642   5.464
30551SOL    HW193427   4.293  10.586   5.457
30551SOL    HW293428   4.421  10.624   5.384
30552SOL     OW93429   4.539   0.419   6.255
30552SOL    HW193430   4.540   0.379   6.168
30552SOL    HW293431   4.463   0.380   6.299
30553SOL     OW93432   9.262   0.670  11.143
30553SOL    HW193433   9.198   0.612  11.183
30553SOL    HW293434   9.258   0.650  11.050
30554SOL     OW93435  14.026  11.653   1.570
30554SOL    HW193436  13.972  11.602   1.630
30554SOL    HW293437  13.963  11.697   1.512
30555SOL     OW93438   3.113   9.313   9.594
30555SOL    HW193439   3.184   9.356   9.546
30555SOL    HW293440   3.104   9.364   9.675
30556SOL     OW93441  12.292   1.314  11.551
30556SOL    HW193442  12.359   1.373  11.515
30556SOL    HW293443  12.342   1.249  11.600
30557SOL     OW93444   6.170   3.980  11.718
30557SOL    HW193445   6.133   4.065  11.742
30557SOL    HW293446   6.197   3.941  11.801
30558SOL     OW93447  14.811   2.368   3.076
30558SOL    HW193448  14.734   2.426   3.080
30558SOL    HW293449  14.844   2.367   3.166
30559SOL     OW93450   9.976   1.714   1.717
30559SOL    HW193451  10.020   1.708   1.802
30559SOL    HW293452   9.901   1.772   1.733
30560SOL     OW93453   6.314   3.880  13.209
30560SOL    HW193454   6.331   3.946  13.277
30560SOL    HW293455   6.230   3.841  13.234
30561SOL     OW93456  10.708  10.939   2.216
30561SOL    HW193457  10.728  10.975   2.129
30561SOL    HW293458  10.630  10.886   2.202
30562SOL     OW93459  13.100   2.478  12.072
30562SOL    HW193460  13.152   2.446  11.998
30562SOL    HW293461  13.144   2.558  12.099
30563SOL     OW93462  11.818   6.744   0.412
30563SOL    HW193463  11.779   6.696   0.339
30563SOL    HW293464  11.748   6.749   0.477
30564SOL     OW93465   9.164   1.900  10.824
30564SOL    HW193466   9.196   1.855  10.902
30564SOL    HW293467   9.235   1.958  10.798
30565SOL     OW93468   1.934   9.841   8.739
30565SOL    HW193469   1.948   9.894   8.817
30565SOL    HW293470   1.896   9.901   8.675
30566SOL     OW93471  14.409   8.151  11.477
30566SOL    HW193472  14.331   8.179  11.525
30566SOL    HW293473  14.383   8.153  11.385
30567SOL     OW93474   0.763   7.859   7.549
30567SOL    HW193475   0.768   7.899   7.463
30567SOL    HW293476   0.820   7.912   7.604
30568SOL     OW93477   2.390   3.880   2.043
30568SOL    HW193478   2.296   3.878   2.028
30568SOL    HW293479   2.408   3.802   2.096
30569SOL     OW93480   0.418   8.675  13.484
30569SOL    HW193481   0.510   8.695  13.469
30569SOL    HW293482   0.401   8.597  13.431
30570SOL     OW93483   4.449   1.759   7.144
30570SOL    HW193484   4.429   1.769   7.051
30570SOL    HW293485   4.412   1.837   7.185
30571SOL     OW93486   2.866   0.695   5.033
30571SOL    HW193487   2.804   0.694   5.106
30571SOL    HW293488   2.900   0.784   5.032
30572SOL     OW93489  13.092   7.485  13.096
30572SOL    HW193490  13.101   7.534  13.178
30572SOL    HW293491  13.164   7.422  13.098
30573SOL     OW93492   7.243   0.397  12.175
30573SOL    HW193493   7.276   0.485  12.157
30573SOL    HW293494   7.229   0.359  12.088
30574SOL     OW93495   0.769   1.084   3.553
30574SOL    HW193496   0.825   1.056   3.480
30574SOL    HW293497   0.796   1.029   3.626
30575SOL     OW93498   2.620  12.883   6.188
30575SOL    HW193499   2.700  12.933   6.209
30575SOL    HW293500   2.581  12.931   6.115
30576SOL     OW93501   8.006   5.488   4.303
30576SOL    HW193502   8.016   5.427   4.230
30576SOL    HW293503   7.993   5.432   4.379
30577SOL     OW93504  13.986   9.723  10.893
30577SOL    HW193505  14.041   9.800  10.877
30577SOL    HW293506  14.008   9.663  10.821
30578SOL     OW93507   0.607   4.432  10.964
30578SOL    HW193508   0.579   4.378  10.890
30578SOL    HW293509   0.646   4.510  10.925
30579SOL     OW93510  11.234  12.109  11.951
30579SOL    HW193511  11.247  12.185  12.008
30579SOL    HW293512  11.240  12.143  11.862
30580SOL     OW93513   5.654  10.812   0.377
30580SOL    HW193514   5.577  10.866   0.396
30580SOL    HW293515   5.675  10.832   0.286
30581SOL     OW93516   5.086   2.650   9.457
30581SOL    HW193517   4.997   2.634   9.489
30581SOL    HW293518   5.140   2.588   9.507
30582SOL     OW93519   5.565  11.462  10.849
30582SOL    HW193520   5.546  11.514  10.771
30582SOL    HW293521   5.657  11.481  10.869
30583SOL     OW93522   4.511   1.842   0.301
30583SOL    HW193523   4.562   1.763   0.284
30583SOL    HW293524   4.430   1.829   0.252
30584SOL     OW93525   3.317   2.953   6.626
30584SOL    HW193526   3.224   2.937   6.617
30584SOL    HW293527   3.334   2.951   6.720
30585SOL     OW93528   9.011   7.267   4.477
30585SOL    HW193529   8.999   7.343   4.420
30585SOL    HW293530   8.964   7.196   4.434
30586SOL     OW93531   3.103   8.023  10.900
30586SOL    HW193532   3.055   7.950  10.860
30586SOL    HW293533   3.135   7.987  10.983
30587SOL     OW93534   5.764   3.085   3.097
30587SOL    HW193535   5.712   3.161   3.072
30587SOL    HW293536   5.822   3.117   3.167
30588SOL     OW93537  11.266   3.197   5.429
30588SOL    HW193538  11.258   3.247   5.510
30588SOL    HW293539  11.225   3.252   5.362
30589SOL     OW93540   7.483   6.663   5.871
30589SOL    HW193541   7.443   6.744   5.838
30589SOL    HW293542   7.418   6.627   5.931
30590SOL     OW93543  13.803   1.531   7.890
30590SOL    HW193544  13.882   1.523   7.837
30590SOL    HW293545  13.752   1.452   7.871
30591SOL     OW93546  13.221   6.204   9.890
30591SOL    HW193547  13.167   6.194   9.968
30591SOL    HW293548  13.275   6.125   9.887
30592SOL     OW93549  11.356  11.928   6.899
30592SOL    HW193550  11.334  11.856   6.840
30592SOL    HW293551  11.425  11.893   6.955
30593SOL     OW93552  12.252   2.853   9.254
30593SOL    HW193553  12.163   2.877   9.279
30593SOL    HW293554  12.252   2.757   9.250
30594SOL     OW93555   3.538   3.970  13.827
30594SOL    HW193556   3.481   4.032  13.871
30594SOL    HW293557   3.618   4.019  13.809
30595SOL     OW93558   9.931   2.408  11.247
30595SOL    HW193559  10.023   2.380  11.240
30595SOL    HW293560   9.916   2.459  11.168
30596SOL     OW93561  12.730  10.416   2.139
30596SOL    HW193562  12.806  10.439   2.086
30596SOL    HW293563  12.660  10.397   2.076
30597SOL     OW93564   2.628  14.512   6.609
30597SOL    HW193565   2.722  14.524   6.598
30597SOL    HW293566   2.615  14.513   6.704
30598SOL     OW93567  14.196  10.802   1.138
30598SOL    HW193568  14.266  10.847   1.091
30598SOL    HW293569  14.218  10.709   1.132
30599SOL     OW93570   1.193   6.883   8.223
30599SOL    HW193571   1.278   6.898   8.263
30599SOL    HW293572   1.213   6.856   8.134
30600SOL     OW93573   3.765   1.425  11.661
30600SOL    HW193574   3.808   1.508  11.679
30600SOL    HW293575   3.811   1.361  11.716
30601SOL     OW93576  11.502   7.956   2.284
30601SOL    HW193577  11.510   7.925   2.374
30601SOL    HW293578  11.586   7.999   2.265
30602SOL     OW93579   7.661   9.156  11.845
30602SOL    HW193580   7.724   9.183  11.778
30602SOL    HW293581   7.655   9.061  11.838
30603SOL     OW93582   0.335   0.384  10.977
30603SOL    HW193583   0.296   0.463  11.016
30603SOL    HW293584   0.426   0.408  10.962
30604SOL     OW93585   4.376   5.110   3.644
30604SOL    HW193586   4.419   5.073   3.721
30604SOL    HW293587   4.443   5.162   3.600
30605SOL     OW93588   1.408  12.618   8.714
30605SOL    HW193589   1.466  12.549   8.745
30605SOL    HW293590   1.466  12.679   8.668
30606SOL     OW93591   9.444   6.879   7.619
30606SOL    HW193592   9.474   6.862   7.530
30606SOL    HW293593   9.515   6.848   7.675
30607SOL     OW93594  14.257  13.567  10.603
30607SOL    HW193595  14.217  13.539  10.685
30607SOL    HW293596  14.303  13.490  10.571
30608SOL     OW93597   3.220  12.011   9.424
30608SOL    HW193598   3.207  12.103   9.402
30608SOL    HW293599   3.186  12.002   9.514
30609SOL     OW93600   4.633  13.842   2.750
30609SOL    HW193601   4.538  13.830   2.756
30609SOL    HW293602   4.644  13.935   2.729
30610SOL     OW93603   6.256   6.987  14.045
30610SOL    HW193604   6.212   6.990  14.129
30610SOL    HW293605   6.188   6.959  13.983
30611SOL     OW93606   0.458   9.723   1.840
30611SOL    HW193607   0.484   9.757   1.925
30611SOL    HW293608   0.483   9.792   1.778
30612SOL     OW93609  11.244   2.156   6.289
30612SOL    HW193610  11.215   2.095   6.357
30612SOL    HW293611  11.248   2.103   6.210
30613SOL     OW93612   5.100  14.088  14.294
30613SOL    HW193613   5.139  14.005  14.267
30613SOL    HW293614   5.008  14.080  14.269
30614SOL     OW93615  13.418  14.368   1.375
30614SOL    HW193616  13.435  14.410   1.291
30614SOL    HW293617  13.359  14.295   1.353
30615SOL     OW93618   5.493   5.057  12.526
30615SOL    HW193619   5.588   5.071  12.527
30615SOL    HW293620   5.475   5.016  12.611
30616SOL     OW93621   9.076  13.795   4.307
30616SOL    HW193622   9.163  13.792   4.266
30616SOL    HW293623   9.074  13.880   4.351
30617SOL     OW93624   5.997   2.110  12.686
30617SOL    HW193625   6.066   2.056  12.648
30617SOL    HW293626   5.928   2.049  12.710
30618SOL     OW93627  13.733   5.393  11.648
30618SOL    HW193628  13.771   5.421  11.731
30618SOL    HW293629  13.697   5.306  11.667
30619SOL     OW93630  11.951  13.251   2.517
30619SOL    HW193631  12.029  13.299   2.489
30619SOL    HW293632  11.878  13.297   2.476
30620SOL     OW93633   9.992   5.539   6.043
30620SOL    HW193634   9.955   5.478   5.980
30620SOL    HW293635  10.006   5.620   5.994
30621SOL     OW93636   4.837   0.668  14.160
30621SOL    HW193637   4.855   0.699  14.249
30621SOL    HW293638   4.855   0.574  14.163
30622SOL     OW93639  10.053   9.304   7.170
30622SOL    HW193640  10.051   9.302   7.266
30622SOL    HW293641  10.029   9.215   7.144
30623SOL     OW93642   5.962  12.819  11.155
30623SOL    HW193643   5.982  12.843  11.246
30623SOL    HW293644   6.037  12.850  11.105
30624SOL     OW93645   7.681   8.809   7.923
30624SOL    HW193646   7.686   8.739   7.988
30624SOL    HW293647   7.700   8.889   7.971
30625SOL     OW93648  11.102   8.588   9.425
30625SOL    HW193649  11.152   8.670   9.429
30625SOL    HW293650  11.017   8.611   9.462
30626SOL     OW93651  10.424   5.848   7.825
30626SOL    HW193652  10.349   5.888   7.781
30626SOL    HW293653  10.446   5.771   7.772
30627SOL     OW93654   8.679   7.709  14.474
30627SOL    HW193655   8.748   7.675  14.531
30627SOL    HW293656   8.718   7.786  14.433
30628SOL     OW93657   1.500  13.938   7.049
30628SOL    HW193658   1.413  13.902   7.031
30628SOL    HW293659   1.542  13.943   6.963
30629SOL     OW93660   3.229   0.083   5.348
30629SOL    HW193661   3.278   0.007   5.381
30629SOL    HW293662   3.290   0.128   5.290
30630SOL     OW93663   1.671  10.022  14.078
30630SOL    HW193664   1.584  10.062  14.071
30630SOL    HW293665   1.653   9.930  14.096
30631SOL     OW93666   0.205  12.363   3.595
30631SOL    HW193667   0.130  12.354   3.653
30631SOL    HW293668   0.201  12.454   3.564
30632SOL     OW93669   6.822   2.016   9.298
30632SOL    HW193670   6.845   2.070   9.223
30632SOL    HW293671   6.727   2.011   9.295
30633SOL     OW93672  11.782   8.874   1.921
30633SOL    HW193673  11.827   8.819   1.985
30633SOL    HW293674  11.758   8.814   1.851
30634SOL     OW93675   9.401   1.512  11.860
30634SOL    HW193676   9.473   1.454  11.886
30634SOL    HW293677   9.323   1.458  11.870
30635SOL     OW93678   9.358  12.802   9.561
30635SOL    HW193679   9.355  12.804   9.465
30635SOL    HW293680   9.373  12.893   9.587
30636SOL     OW93681   7.659  13.383   9.870
30636SOL    HW193682   7.622  13.318   9.810
30636SOL    HW293683   7.627  13.358   9.956
30637SOL     OW93684   0.661  14.404   1.570
30637SOL    HW193685   0.612  14.486   1.567
30637SOL    HW293686   0.746  14.427   1.606
30638SOL     OW93687   5.290   7.887   6.698
30638SOL    HW193688   5.248   7.973   6.690
30638SOL    HW293689   5.375   7.906   6.738
30639SOL     OW93690   6.409  10.623   2.466
30639SOL    HW193691   6.425  10.553   2.530
30639SOL    HW293692   6.439  10.702   2.510
30640SOL     OW93693   2.326  12.004  14.838
30640SOL    HW193694   2.356  12.087  14.876
30640SOL    HW293695   2.355  11.938   0.019
30641SOL     OW93696   9.629   5.957  14.867
30641SOL    HW193697   9.681   5.887  14.828
30641SOL    HW293698   9.682   6.036  14.855
30642SOL     OW93699  14.801  11.922   5.480
30642SOL    HW193700  14.810  11.995   5.540
30642SOL    HW293701  14.725  11.873   5.512
30643SOL     OW93702  13.983   2.614  13.143
30643SOL    HW193703  13.964   2.520  13.132
30643SOL    HW293704  13.941   2.655  13.067
30644SOL     OW93705   6.589   9.414   5.764
30644SOL    HW193706   6.671   9.371   5.787
30644SOL    HW293707   6.545   9.353   5.705
30645SOL     OW93708  11.682   4.916  11.337
30645SOL    HW193709  11.764   4.868  11.340
30645SOL    HW293710  11.616   4.853  11.369
30646SOL     OW93711   5.257   4.705  10.841
30646SOL    HW193712   5.348   4.688  10.818
30646SOL    HW293713   5.261   4.772  10.908
30647SOL     OW93714   2.457  14.263   9.235
30647SOL    HW193715   2.390  14.201   9.205
30647SOL    HW293716   2.457  14.332   9.169
30648SOL     OW93717  10.322  12.601   3.533
30648SOL    HW193718  10.307  12.638   3.446
30648SOL    HW293719  10.280  12.515   3.530
30649SOL     OW93720   8.919  14.337   7.555
30649SOL    HW193721   9.012  14.317   7.542
30649SOL    HW293722   8.917  14.395   7.631
30650SOL     OW93723   4.509   2.189   5.866
30650SOL    HW193724   4.526   2.113   5.810
30650SOL    HW293725   4.558   2.171   5.946
30651SOL     OW93726   9.344   2.420  13.197
30651SOL    HW193727   9.307   2.333  13.214
30651SOL    HW293728   9.364   2.455  13.283
30652SOL     OW93729  13.163   4.409   7.924
30652SOL    HW193730  13.086   4.351   7.925
30652SOL    HW293731  13.170   4.436   7.832
30653SOL     OW93732   8.435   2.361   3.152
30653SOL    HW193733   8.508   2.324   3.102
30653SOL    HW293734   8.366   2.295   3.145
30654SOL     OW93735   3.716  13.839  13.712
30654SOL    HW193736   3.809  13.845  13.736
30654SOL    HW293737   3.717  13.837  13.616
30655SOL     OW93738   1.846   9.962  13.716
30655SOL    HW193739   1.904  10.015  13.661
30655SOL    HW293740   1.905   9.920  13.779
30656SOL     OW93741  10.159   7.184   5.583
30656SOL    HW193742  10.104   7.204   5.508
30656SOL    HW293743  10.226   7.253   5.583
30657SOL     OW93744   6.776   6.539   5.343
30657SOL    HW193745   6.816   6.519   5.428
30657SOL    HW293746   6.749   6.454   5.308
30658SOL     OW93747  12.041   0.204   3.309
30658SOL    HW193748  11.957   0.249   3.309
30658SOL    HW293749  12.042   0.153   3.391
30659SOL     OW93750   0.490  10.604   9.407
30659SOL    HW193751   0.458  10.537   9.468
30659SOL    HW293752   0.566  10.642   9.452
30660SOL     OW93753  10.281   8.496   4.122
30660SOL    HW193754  10.192   8.523   4.098
30660SOL    HW293755  10.323   8.475   4.039
30661SOL     OW93756   3.471   3.046   6.084
30661SOL    HW193757   3.479   2.991   6.006
30661SOL    HW293758   3.431   3.127   6.053
30662SOL     OW93759   5.601   5.631  13.141
30662SOL    HW193760   5.576   5.545  13.176
30662SOL    HW293761   5.599   5.621  13.046
30663SOL     OW93762   9.768   0.393   9.615
30663SOL    HW193763   9.848   0.385   9.667
30663SOL    HW293764   9.792   0.354   9.530
30664SOL     OW93765  14.225  13.039  14.574
30664SOL    HW193766  14.144  13.091  14.583
30664SOL    HW293767  14.246  13.013  14.664
30665SOL     OW93768   4.245  12.105   7.171
30665SOL    HW193769   4.172  12.048   7.194
30665SOL    HW293770   4.304  12.100   7.246
30666SOL     OW93771  11.075  12.449  11.615
30666SOL    HW193772  11.046  12.407  11.534
30666SOL    HW293773  11.134  12.385  11.655
30667SOL     OW93774   6.403   9.349   8.734
30667SOL    HW193775   6.349   9.315   8.662
30667SOL    HW293776   6.342   9.358   8.807
30668SOL     OW93777  13.326   2.922  11.333
30668SOL    HW193778  13.322   2.984  11.260
30668SOL    HW293779  13.321   2.836  11.291
30669SOL     OW93780  12.070  11.803   7.489
30669SOL    HW193781  12.064  11.708   7.494
30669SOL    HW293782  12.002  11.828   7.428
30670SOL     OW93783   8.194   4.159   0.267
30670SOL    HW193784   8.153   4.081   0.305
30670SOL    HW293785   8.211   4.217   0.341
30671SOL     OW93786   7.229   2.205   6.825
30671SOL    HW193787   7.256   2.121   6.860
30671SOL    HW293788   7.307   2.260   6.833
30672SOL     OW93789  13.207  11.131   6.469
30672SOL    HW193790  13.209  11.140   6.373
30672SOL    HW293791  13.116  11.112   6.490
30673SOL     OW93792  14.267   6.032   4.595
30673SOL    HW193793  14.241   5.944   4.566
30673SOL    HW293794  14.361   6.035   4.578
30674SOL     OW93795  13.599   9.101   9.079
30674SOL    HW193796  13.607   9.188   9.040
30674SOL    HW293797  13.560   9.047   9.010
30675SOL     OW93798   3.604   7.118  12.925
30675SOL    HW193799   3.593   7.032  12.967
30675SOL    HW293800   3.523   7.132  12.876
30676SOL     OW93801   2.478   8.041   5.505
30676SOL    HW193802   2.531   8.030   5.583
30676SOL    HW293803   2.393   8.072   5.537
30677SOL     OW93804   4.122  13.995   7.322
30677SOL    HW193805   4.105  14.058   7.392
30677SOL    HW293806   4.208  14.019   7.288
30678SOL     OW93807   2.660  13.679   9.235
30678SOL    HW193808   2.698  13.700   9.320
30678SOL    HW293809   2.692  13.590   9.216
30679SOL     OW93810  11.575  13.290   3.479
30679SOL    HW193811  11.523  13.366   3.508
30679SOL    HW293812  11.520  13.249   3.412
30680SOL     OW93813   5.051   6.947   8.784
30680SOL    HW193814   5.108   7.024   8.779
30680SOL    HW293815   5.087   6.886   8.720
30681SOL     OW93816  11.038   9.370   0.247
30681SOL    HW193817  10.979   9.413   0.185
30681SOL    HW293818  11.096   9.440   0.276
30682SOL     OW93819   4.190   5.904   3.637
30682SOL    HW193820   4.158   5.937   3.553
30682SOL    HW293821   4.122   5.926   3.700
30683SOL     OW93822  10.255   8.732   8.854
30683SOL    HW193823  10.218   8.734   8.766
30683SOL    HW293824  10.211   8.803   8.901
30684SOL     OW93825   9.218   7.757   9.549
30684SOL    HW193826   9.199   7.692   9.616
30684SOL    HW293827   9.213   7.841   9.595
30685SOL     OW93828   6.802   1.996   9.581
30685SOL    HW193829   6.835   1.971   9.495
30685SOL    HW293830   6.811   1.917   9.634
30686SOL     OW93831   2.712   6.375   9.919
30686SOL    HW193832   2.730   6.305   9.983
30686SOL    HW293833   2.773   6.358   9.847
30687SOL     OW93834   7.328   9.721   8.885
30687SOL    HW193835   7.338   9.704   8.979
30687SOL    HW293836   7.284   9.806   8.880
30688SOL     OW93837  14.006   1.219   6.686
30688SOL    HW193838  13.922   1.244   6.647
30688SOL    HW293839  14.066   1.289   6.659
30689SOL     OW93840   4.209  14.657   7.357
30689SOL    HW193841   4.246  14.587   7.411
30689SOL    HW293842   4.154  14.612   7.293
30690SOL     OW93843   7.832  13.276  13.147
30690SOL    HW193844   7.871  13.274  13.059
30690SOL    HW293845   7.892  13.330  13.198
30691SOL     OW93846   3.380  10.438   0.175
30691SOL    HW193847   3.384  10.530   0.148
30691SOL    HW293848   3.294  10.409   0.145
30692SOL     OW93849  10.072   7.579   1.110
30692SOL    HW193850  10.071   7.649   1.175
30692SOL    HW293851   9.980   7.551   1.104
30693SOL     OW93852   4.203   6.197   1.257
30693SOL    HW193853   4.165   6.139   1.323
30693SOL    HW293854   4.218   6.139   1.182
30694SOL     OW93855   6.067  14.800   4.767
30694SOL    HW193856   6.085  14.714   4.806
30694SOL    HW293857   6.034  14.852   4.840
30695SOL     OW93858  13.624  13.161  13.119
30695SOL    HW193859  13.620  13.256  13.109
30695SOL    HW293860  13.673  13.131  13.043
30696SOL     OW93861  11.375   0.245   7.598
30696SOL    HW193862  11.460   0.276   7.567
30696SOL    HW293863  11.312   0.277   7.533
30697SOL     OW93864   0.884  14.870  12.096
30697SOL    HW193865   0.946  14.810  12.056
30697SOL    HW293866   0.909   0.075  12.062
30698SOL     OW93867   4.216  12.396   7.908
30698SOL    HW193868   4.289  12.336   7.920
30698SOL    HW293869   4.250  12.481   7.937
30699SOL     OW93870   4.446   2.116  10.334
30699SOL    HW193871   4.500   2.176  10.281
30699SOL    HW293872   4.463   2.030  10.296
30700SOL     OW93873   2.166   0.150   1.726
30700SOL    HW193874   2.221   0.228   1.718
30700SOL    HW293875   2.101   0.173   1.792
30701SOL     OW93876   7.578   7.931   6.739
30701SOL    HW193877   7.671   7.922   6.719
30701SOL    HW293878   7.535   7.940   6.654
30702SOL     OW93879  14.861   6.480   1.269
30702SOL    HW193880  14.803   6.420   1.316
30702SOL    HW293881  14.802   6.542   1.227
30703SOL     OW93882  11.758   5.542   1.067
30703SOL    HW193883  11.844   5.520   1.104
30703SOL    HW293884  11.731   5.621   1.114
30704SOL     OW93885  12.539   4.177   5.774
30704SOL    HW193886  12.583   4.195   5.691
30704SOL    HW293887  12.609   4.147   5.833
30705SOL     OW93888   6.753  14.008   4.105
30705SOL    HW193889   6.769  13.962   4.187
30705SOL    HW293890   6.836  14.052   4.086
30706SOL     OW93891   5.557  11.263   3.391
30706SOL    HW193892   5.545  11.329   3.460
30706SOL    HW293893   5.494  11.194   3.413
30707SOL     OW93894   9.179   6.855   2.480
30707SOL    HW193895   9.211   6.765   2.480
30707SOL    HW293896   9.129   6.862   2.398
30708SOL     OW93897   3.444   1.648  14.026
30708SOL    HW193898   3.398   1.672  13.946
30708SOL    HW293899   3.387   1.680  14.096
30709SOL     OW93900  11.279   5.576   2.344
30709SOL    HW193901  11.341   5.585   2.417
30709SOL    HW293902  11.194   5.597   2.383
30710SOL     OW93903   5.764  14.584  11.540
30710SOL    HW193904   5.784  14.542  11.624
30710SOL    HW293905   5.680  14.627  11.555
30711SOL     OW93906  10.010  12.696   1.914
30711SOL    HW193907  10.019  12.606   1.880
30711SOL    HW293908   9.955  12.686   1.992
30712SOL     OW93909   3.158   1.250  10.765
30712SOL    HW193910   3.066   1.226  10.750
30712SOL    HW293911   3.155   1.342  10.790
30713SOL     OW93912  12.976   5.479   0.892
30713SOL    HW193913  13.049   5.447   0.944
30713SOL    HW293914  12.977   5.426   0.812
30714SOL     OW93915  14.799  10.189   4.909
30714SOL    HW193916  14.789  10.250   4.836
30714SOL    HW293917  14.840  10.241   4.978
30715SOL     OW93918   0.458  12.781  14.395
30715SOL    HW193919   0.469  12.772  14.300
30715SOL    HW293920   0.411  12.702  14.421
30716SOL     OW93921   2.230   8.193   8.768
30716SOL    HW193922   2.155   8.198   8.827
30716SOL    HW293923   2.218   8.267   8.708
30717SOL     OW93924   2.751   6.226   0.717
30717SOL    HW193925   2.696   6.288   0.670
30717SOL    HW293926   2.734   6.141   0.675
30718SOL     OW93927   5.132  13.634   7.483
30718SOL    HW193928   5.114  13.542   7.462
30718SOL    HW293929   5.227  13.642   7.476
30719SOL     OW93930   6.032   8.749   1.020
30719SOL    HW193931   6.067   8.746   1.109
30719SOL    HW293932   6.109   8.758   0.964
30720SOL     OW93933  14.675   5.072   8.782
30720SOL    HW193934  14.668   5.084   8.877
30720SOL    HW293935  14.585   5.059   8.752
30721SOL     OW93936  10.403   4.693   5.749
30721SOL    HW193937  10.325   4.637   5.758
30721SOL    HW293938  10.368   4.782   5.745
30722SOL     OW93939  10.152   3.632   9.432
30722SOL    HW193940  10.219   3.576   9.472
30722SOL    HW293941  10.069   3.597   9.464
30723SOL     OW93942   9.976   1.502  12.648
30723SOL    HW193943   9.897   1.455  12.676
30723SOL    HW293944  10.022   1.522  12.729
30724SOL     OW93945  13.222   8.075   1.713
30724SOL    HW193946  13.166   8.151   1.724
30724SOL    HW293947  13.196   8.015   1.783
30725SOL     OW93948   7.735   4.749   8.515
30725SOL    HW193949   7.757   4.665   8.475
30725SOL    HW293950   7.648   4.770   8.480
30726SOL     OW93951   2.651   7.674   6.844
30726SOL    HW193952   2.597   7.631   6.777
30726SOL    HW293953   2.734   7.628   6.841
30727SOL     OW93954   0.123   8.920  12.724
30727SOL    HW193955   0.132   8.968  12.642
30727SOL    HW293956   0.174   8.840  12.710
30728SOL     OW93957   2.553  14.006   1.826
30728SOL    HW193958   2.585  13.994   1.736
30728SOL    HW293959   2.632  14.003   1.880
30729SOL     OW93960   8.139  12.069  12.470
30729SOL    HW193961   8.195  12.142  12.444
30729SOL    HW293962   8.123  12.021  12.388
30730SOL     OW93963  14.827  11.429   4.329
30730SOL    HW193964   0.016  11.493   4.341
30730SOL    HW293965  14.858  11.373   4.258
30731SOL     OW93966   2.698   7.647   3.185
30731SOL    HW193967   2.772   7.595   3.154
30731SOL    HW293968   2.674   7.703   3.111
30732SOL     OW93969   4.533   8.748   3.782
30732SOL    HW193970   4.626   8.768   3.777
30732SOL    HW293971   4.521   8.710   3.869
30733SOL     OW93972   1.743   7.861  13.982
30733SOL    HW193973   1.733   7.917  14.059
30733SOL    HW293974   1.676   7.892  13.921
30734SOL     OW93975  12.311   1.620  11.357
30734SOL    HW193976  12.244   1.552  11.366
30734SOL    HW293977  12.320   1.657  11.445
30735SOL     OW93978   3.277   3.998   2.989
30735SOL    HW193979   3.213   4.021   3.055
30735SOL    HW293980   3.253   4.049   2.912
30736SOL     OW93981   6.755   2.444   9.265
30736SOL    HW193982   6.841   2.462   9.226
30736SOL    HW293983   6.727   2.528   9.300
30737SOL     OW93984   2.506  13.264   2.746
30737SOL    HW193985   2.498  13.356   2.722
30737SOL    HW293986   2.423  13.242   2.787
30738SOL     OW93987   5.225   0.166   3.446
30738SOL    HW193988   5.314   0.157   3.411
30738SOL    HW293989   5.229   0.125   3.533
30739SOL     OW93990   1.962   9.500   5.889
30739SOL    HW193991   1.964   9.544   5.804
30739SOL    HW293992   2.050   9.514   5.925
30740SOL     OW93993   4.003   2.195   5.281
30740SOL    HW193994   4.015   2.234   5.194
30740SOL    HW293995   3.927   2.239   5.317
30741SOL     OW93996  10.147   6.540   3.985
30741SOL    HW193997  10.240   6.564   3.976
30741SOL    HW293998  10.114   6.597   4.054
30742SOL     OW93999  10.617  13.035  11.678
30742SOL    HW194000  10.679  12.968  11.651
30742SOL    HW294001  10.568  13.057  11.599
30743SOL     OW94002   0.793   2.847  14.260
30743SOL    HW194003   0.716   2.858  14.315
30743SOL    HW294004   0.758   2.818  14.175
30744SOL     OW94005  14.723   7.912   3.870
30744SOL    HW194006  14.778   7.909   3.949
30744SOL    HW294007  14.768   7.973   3.812
30745SOL     OW94008  13.231   9.231   8.609
30745SOL    HW194009  13.147   9.212   8.651
30745SOL    HW294010  13.284   9.270   8.678
30746SOL     OW94011   4.487   1.357   0.057
30746SOL    HW194012   4.582   1.356   0.053
30746SOL    HW294013   4.460   1.386  14.851
30747SOL     OW94014   7.969   6.654   9.776
30747SOL    HW194015   7.878   6.631   9.790
30747SOL    HW294016   7.970   6.695   9.689
30748SOL     OW94017   6.669   2.452   8.075
30748SOL    HW194018   6.653   2.358   8.086
30748SOL    HW294019   6.752   2.467   8.119
30749SOL     OW94020  10.957  12.474  14.665
30749SOL    HW194021  10.991  12.556  14.701
30749SOL    HW294022  10.864  12.492  14.647
30750SOL     OW94023   7.576  10.967  11.620
30750SOL    HW194024   7.517  11.007  11.556
30750SOL    HW294025   7.550  11.005  11.704
30751SOL     OW94026  13.119   2.502  11.257
30751SOL    HW194027  13.068   2.421  11.247
30751SOL    HW294028  13.077   2.563  11.196
30752SOL     OW94029   2.601   1.838  11.107
30752SOL    HW194030   2.569   1.897  11.038
30752SOL    HW294031   2.639   1.897  11.172
30753SOL     OW94032  10.595  12.270  13.520
30753SOL    HW194033  10.673  12.232  13.560
30753SOL    HW294034  10.544  12.303  13.593
30754SOL     OW94035  12.231   5.159   7.116
30754SOL    HW194036  12.188   5.230   7.164
30754SOL    HW294037  12.160   5.109   7.077
30755SOL     OW94038   4.743   5.835  13.965
30755SOL    HW194039   4.678   5.867  14.028
30755SOL    HW294040   4.827   5.852  14.007
30756SOL     OW94041  12.775   9.930   7.396
30756SOL    HW194042  12.844   9.921   7.461
30756SOL    HW294043  12.773   9.846   7.351
30757SOL     OW94044   8.650  13.754   9.644
30757SOL    HW194045   8.570  13.800   9.670
30757SOL    HW294046   8.625  13.662   9.645
30758SOL     OW94047   0.219   9.927  11.927
30758SOL    HW194048   0.302   9.901  11.965
30758SOL    HW294049   0.155   9.916  11.998
30759SOL     OW94050   3.578  11.656   7.841
30759SOL    HW194051   3.618  11.635   7.925
30759SOL    HW294052   3.518  11.583   7.823
30760SOL     OW94053  13.882   8.641  12.958
30760SOL    HW194054  13.849   8.567  12.906
30760SOL    HW294055  13.819   8.711  12.943
30761SOL     OW94056   0.263   7.812   1.897
30761SOL    HW194057   0.357   7.804   1.883
30761SOL    HW294058   0.240   7.897   1.859
30762SOL     OW94059   8.573   2.818   5.929
30762SOL    HW194060   8.526   2.832   5.847
30762SOL    HW294061   8.641   2.754   5.907
30763SOL     OW94062   9.300   4.877   8.345
30763SOL    HW194063   9.225   4.819   8.360
30763SOL    HW294064   9.288   4.949   8.407
30764SOL     OW94065   8.923   9.036   1.618
30764SOL    HW194066   8.991   9.047   1.685
30764SOL    HW294067   8.953   8.964   1.564
30765SOL     OW94068   4.033   6.189   8.270
30765SOL    HW194069   4.088   6.260   8.237
30765SOL    HW294070   4.027   6.204   8.364
30766SOL     OW94071  12.873   3.505  11.429
30766SOL    HW194072  12.818   3.508  11.507
30766SOL    HW294073  12.924   3.425  11.438
30767SOL     OW94074  12.542   0.030   6.939
30767SOL    HW194075  12.632   0.031   6.972
30767SOL    HW294076  12.531   0.116   6.899
30768SOL     OW94077   1.868   3.811  13.136
30768SOL    HW194078   1.785   3.837  13.175
30768SOL    HW294079   1.864   3.844  13.046
30769SOL     OW94080   2.457   9.684   1.702
30769SOL    HW194081   2.430   9.667   1.612
30769SOL    HW294082   2.491   9.600   1.733
30770SOL     OW94083   9.553   7.041  12.729
30770SOL    HW194084   9.620   7.021  12.663
30770SOL    HW294085   9.482   6.979  12.711
30771SOL     OW94086   0.338   0.299  11.476
30771SOL    HW194087   0.425   0.310  11.513
30771SOL    HW294088   0.332   0.366  11.408
30772SOL     OW94089   8.012   2.395   2.862
30772SOL    HW194090   8.035   2.479   2.821
30772SOL    HW294091   8.000   2.416   2.955
30773SOL     OW94092  11.702   1.744  10.938
30773SOL    HW194093  11.731   1.750  11.029
30773SOL    HW294094  11.769   1.792  10.889
30774SOL     OW94095  13.281   0.431   2.045
30774SOL    HW194096  13.224   0.478   2.106
30774SOL    HW294097  13.272   0.339   2.071
30775SOL     OW94098  11.603   3.148   4.622
30775SOL    HW194099  11.556   3.205   4.681
30775SOL    HW294100  11.588   3.185   4.535
30776SOL     OW94101   7.874  12.156   4.829
30776SOL    HW194102   7.959  12.113   4.836
30776SOL    HW294103   7.882  12.234   4.884
30777SOL     OW94104   0.564   6.987   8.257
30777SOL    HW194105   0.596   6.918   8.199
30777SOL    HW294106   0.536   6.940   8.336
30778SOL     OW94107   5.503   0.367  12.309
30778SOL    HW194108   5.571   0.406  12.364
30778SOL    HW294109   5.529   0.275  12.301
30779SOL     OW94110   7.879   1.747   1.138
30779SOL    HW194111   7.885   1.678   1.204
30779SOL    HW294112   7.884   1.701   1.054
30780SOL     OW94113  11.709   3.944   6.071
30780SOL    HW194114  11.772   3.974   6.005
30780SOL    HW294115  11.750   3.867   6.109
30781SOL     OW94116  12.653  13.526   6.243
30781SOL    HW194117  12.610  13.518   6.158
30781SOL    HW294118  12.728  13.582   6.226
30782SOL     OW94119   8.951   0.397   1.776
30782SOL    HW194120   8.902   0.479   1.770
30782SOL    HW294121   8.884   0.329   1.782
30783SOL     OW94122   8.408  12.804   0.689
30783SOL    HW194123   8.501  12.827   0.699
30783SOL    HW294124   8.367  12.884   0.658
30784SOL     OW94125   1.908   4.084  13.019
30784SOL    HW194126   1.871   4.171  13.005
30784SOL    HW294127   1.927   4.081  13.113
30785SOL     OW94128   9.398  11.423  11.468
30785SOL    HW194129   9.419  11.338  11.508
30785SOL    HW294130   9.458  11.431  11.394
30786SOL     OW94131  13.421   8.876  11.859
30786SOL    HW194132  13.355   8.923  11.808
30786SOL    HW294133  13.503   8.891  11.812
30787SOL     OW94134   3.552   6.936   7.082
30787SOL    HW194135   3.637   6.980   7.096
30787SOL    HW294136   3.508   6.990   7.017
30788SOL     OW94137   6.932   5.730  12.771
30788SOL    HW194138   7.013   5.764  12.810
30788SOL    HW294139   6.946   5.635  12.769
30789SOL     OW94140  12.393   7.175   3.705
30789SOL    HW194141  12.365   7.222   3.627
30789SOL    HW294142  12.437   7.097   3.672
30790SOL     OW94143  13.523   0.862   3.769
30790SOL    HW194144  13.438   0.847   3.726
30790SOL    HW294145  13.570   0.779   3.757
30791SOL     OW94146   7.355  14.320  11.149
30791SOL    HW194147   7.275  14.368  11.128
30791SOL    HW294148   7.358  14.320  11.245
30792SOL     OW94149   2.469   4.321   6.708
30792SOL    HW194150   2.379   4.329   6.678
30792SOL    HW294151   2.463   4.320   6.803
30793SOL     OW94152   7.047   6.730   2.741
30793SOL    HW194153   7.005   6.752   2.658
30793SOL    HW294154   7.119   6.671   2.716
30794SOL     OW94155  14.781   7.572  13.595
30794SOL    HW194156  14.697   7.615  13.610
30794SOL    HW294157  14.758   7.489  13.552
30795SOL     OW94158  11.699   1.859   3.150
30795SOL    HW194159  11.661   1.872   3.236
30795SOL    HW294160  11.685   1.941   3.104
30796SOL     OW94161  14.118  10.411   2.777
30796SOL    HW194162  14.127  10.488   2.721
30796SOL    HW294163  14.133  10.444   2.866
30797SOL     OW94164   8.981   1.671   2.085
30797SOL    HW194165   8.930   1.700   2.161
30797SOL    HW294166   9.071   1.665   2.117
30798SOL     OW94167   0.466   2.199  10.321
30798SOL    HW194168   0.403   2.173  10.253
30798SOL    HW294169   0.464   2.294  10.321
30799SOL     OW94170   2.479  13.218   8.948
30799SOL    HW194171   2.573  13.219   8.928
30799SOL    HW294172   2.438  13.266   8.876
30800SOL     OW94173   7.058  10.447  13.458
30800SOL    HW194174   6.978  10.493  13.434
30800SOL    HW294175   7.112  10.513  13.503
30801SOL     OW94176   2.962   0.185   8.613
30801SOL    HW194177   2.972   0.207   8.520
30801SOL    HW294178   2.982   0.091   8.617
30802SOL     OW94179  13.428   3.050   0.420
30802SOL    HW194180  13.417   2.958   0.399
30802SOL    HW294181  13.347   3.076   0.464
30803SOL     OW94182   5.888   3.685   9.381
30803SOL    HW194183   5.901   3.758   9.321
30803SOL    HW294184   5.863   3.726   9.464
30804SOL     OW94185  10.846   9.281   8.906
30804SOL    HW194186  10.782   9.352   8.897
30804SOL    HW294187  10.794   9.201   8.908
30805SOL     OW94188   5.554  10.750   7.929
30805SOL    HW194189   5.632  10.721   7.882
30805SOL    HW294190   5.576  10.837   7.963
30806SOL     OW94191   0.989   1.673   8.743
30806SOL    HW194192   1.037   1.753   8.720
30806SOL    HW294193   1.042   1.632   8.811
30807SOL     OW94194   7.605  13.991   4.498
30807SOL    HW194195   7.653  14.026   4.573
30807SOL    HW294196   7.611  14.059   4.431
30808SOL     OW94197  14.340   3.885   6.480
30808SOL    HW194198  14.408   3.867   6.415
30808SOL    HW294199  14.307   3.799   6.505
30809SOL     OW94200   4.455   1.294   1.803
30809SOL    HW194201   4.479   1.368   1.749
30809SOL    HW294202   4.507   1.221   1.770
30810SOL     OW94203   3.106   1.183  13.320
30810SOL    HW194204   3.189   1.214  13.358
30810SOL    HW294205   3.047   1.258  13.328
30811SOL     OW94206   6.312  11.448  12.119
30811SOL    HW194207   6.246  11.465  12.052
30811SOL    HW294208   6.292  11.361  12.152
30812SOL     OW94209   6.378  14.809  13.813
30812SOL    HW194210   6.363  14.867  13.739
30812SOL    HW294211   6.407  14.866  13.884
30813SOL     OW94212   0.939  12.097   9.868
30813SOL    HW194213   0.944  12.149   9.947
30813SOL    HW294214   0.918  12.009   9.898
30814SOL     OW94215  11.171   9.022  11.625
30814SOL    HW194216  11.216   9.105  11.608
30814SOL    HW294217  11.172   9.014  11.721
30815SOL     OW94218   6.550  14.526   0.819
30815SOL    HW194219   6.557  14.431   0.826
30815SOL    HW294220   6.489  14.540   0.747
30816SOL     OW94221   3.072   2.029   4.461
30816SOL    HW194222   3.087   2.108   4.410
30816SOL    HW294223   2.977   2.029   4.477
30817SOL     OW94224   9.357  12.392   6.548
30817SOL    HW194225   9.311  12.385   6.631
30817SOL    HW294226   9.290  12.421   6.486
30818SOL     OW94227   7.672   4.339   0.131
30818SOL    HW194228   7.693   4.260   0.081
30818SOL    HW294229   7.641   4.307   0.216
30819SOL     OW94230  12.140   5.339   1.387
30819SOL    HW194231  12.062   5.289   1.412
30819SOL    HW294232  12.214   5.282   1.409
30820SOL     OW94233   9.325  11.000   5.118
30820SOL    HW194234   9.403  11.056   5.114
30820SOL    HW294235   9.343  10.929   5.056
30821SOL     OW94236   3.531  10.729   9.853
30821SOL    HW194237   3.613  10.772   9.879
30821SOL    HW294238   3.465  10.798   9.861
30822SOL     OW94239  10.129  10.241   4.962
30822SOL    HW194240  10.081  10.303   4.906
30822SOL    HW294241  10.172  10.296   5.028
30823SOL     OW94242   5.450   7.282  11.046
30823SOL    HW194243   5.424   7.234  11.125
30823SOL    HW294244   5.534   7.322  11.069
30824SOL     OW94245   8.725   2.833  14.832
30824SOL    HW194246   8.740   2.831   0.045
30824SOL    HW294247   8.690   2.920  14.815
30825SOL     OW94248   0.822  12.967   9.938
30825SOL    HW194249   0.807  12.884   9.983
30825SOL    HW294250   0.781  12.955   9.852
30826SOL     OW94251   2.673   2.218  13.722
30826SOL    HW194252   2.693   2.168  13.801
30826SOL    HW294253   2.714   2.303  13.737
30827SOL     OW94254   2.392   3.670   8.685
30827SOL    HW194255   2.325   3.645   8.748
30827SOL    HW294256   2.469   3.621   8.711
30828SOL     OW94257  11.683   2.922   5.772
30828SOL    HW194258  11.694   3.011   5.805
30828SOL    HW294259  11.589   2.909   5.770
30829SOL     OW94260  13.053  12.008  13.715
30829SOL    HW194261  13.081  11.960  13.637
30829SOL    HW294262  13.098  11.964  13.788
30830SOL     OW94263  11.405   0.132   1.975
30830SOL    HW194264  11.360   0.049   1.956
30830SOL    HW294265  11.346   0.178   2.035
30831SOL     OW94266   2.050   1.091   9.964
30831SOL    HW194267   2.115   1.030   9.929
30831SOL    HW294268   1.999   1.119   9.888
30832SOL     OW94269   3.992   3.898   8.426
30832SOL    HW194270   3.961   3.987   8.408
30832SOL    HW294271   3.912   3.848   8.443
30833SOL     OW94272   2.996   7.796  11.616
30833SOL    HW194273   2.961   7.818  11.702
30833SOL    HW294274   3.086   7.768  11.633
30834SOL     OW94275   2.954   4.230  12.331
30834SOL    HW194276   3.047   4.226  12.353
30834SOL    HW294277   2.937   4.146  12.287
30835SOL     OW94278   0.638   7.559   9.931
30835SOL    HW194279   0.663   7.646   9.900
30835SOL    HW294280   0.573   7.529   9.867
30836SOL     OW94281   2.476   5.420   8.450
30836SOL    HW194282   2.530   5.497   8.433
30836SOL    HW294283   2.488   5.365   8.373
30837SOL     OW94284  11.244  14.339   5.495
30837SOL    HW194285  11.186  14.332   5.571
30837SOL    HW294286  11.253  14.249   5.463
30838SOL     OW94287  10.198   1.084   1.999
30838SOL    HW194288  10.202   1.174   1.967
30838SOL    HW294289  10.286   1.050   1.986
30839SOL     OW94290   8.778   6.526   2.364
30839SOL    HW194291   8.851   6.470   2.390
30839SOL    HW294292   8.819   6.609   2.340
30840SOL     OW94293  11.741   7.564  14.055
30840SOL    HW194294  11.740   7.470  14.073
30840SOL    HW294295  11.650   7.592  14.062
30841SOL     OW94296  11.803   7.722   4.253
30841SOL    HW194297  11.887   7.710   4.208
30841SOL    HW294298  11.813   7.673   4.334
30842SOL     OW94299   7.185   3.405   0.284
30842SOL    HW194300   7.167   3.441   0.372
30842SOL    HW294301   7.105   3.423   0.235
30843SOL     OW94302  11.925  13.667  13.158
30843SOL    HW194303  11.847  13.723  13.159
30843SOL    HW294304  11.891  13.578  13.144
30844SOL     OW94305   5.941  11.077   5.109
30844SOL    HW194306   5.866  11.076   5.049
30844SOL    HW294307   5.905  11.108   5.192
30845SOL     OW94308  12.564   7.334  11.697
30845SOL    HW194309  12.593   7.263  11.639
30845SOL    HW294310  12.558   7.294  11.783
30846SOL     OW94311   1.601  10.896   1.454
30846SOL    HW194312   1.629  10.880   1.545
30846SOL    HW294313   1.589  10.991   1.449
30847SOL     OW94314   5.771   3.752  13.593
30847SOL    HW194315   5.730   3.752  13.507
30847SOL    HW294316   5.737   3.830  13.637
30848SOL     OW94317   9.586   9.262  11.599
30848SOL    HW194318   9.628   9.307  11.526
30848SOL    HW294319   9.496   9.292  11.598
30849SOL     OW94320  10.267   4.489  14.583
30849SOL    HW194321  10.339   4.435  14.617
30849SOL    HW294322  10.265   4.565  14.640
30850SOL     OW94323   1.220   2.417   2.244
30850SOL    HW194324   1.264   2.437   2.326
30850SOL    HW294325   1.263   2.472   2.179
30851SOL     OW94326   5.940   4.564  13.618
30851SOL    HW194327   6.028   4.550  13.583
30851SOL    HW294328   5.951   4.555  13.713
30852SOL     OW94329  11.787   9.868  12.448
30852SOL    HW194330  11.715   9.806  12.463
30852SOL    HW294331  11.751   9.931  12.385
30853SOL     OW94332   7.244  10.343   3.795
30853SOL    HW194333   7.297  10.286   3.740
30853SOL    HW294334   7.194  10.397   3.734
30854SOL     OW94335   0.814   1.765   8.160
30854SOL    HW194336   0.730   1.806   8.182
30854SOL    HW294337   0.877   1.805   8.221
30855SOL     OW94338   6.858   1.894   6.084
30855SOL    HW194339   6.781   1.942   6.053
30855SOL    HW294340   6.849   1.807   6.047
30856SOL     OW94341  14.428  10.248   6.358
30856SOL    HW194342  14.425  10.283   6.447
30856SOL    HW294343  14.519  10.259   6.331
30857SOL     OW94344   7.382   4.562   1.526
30857SOL    HW194345   7.342   4.615   1.458
30857SOL    HW294346   7.347   4.474   1.513
30858SOL     OW94347   5.534   6.038   0.786
30858SOL    HW194348   5.603   6.014   0.847
30858SOL    HW294349   5.479   5.959   0.779
30859SOL     OW94350   2.835  14.742   1.559
30859SOL    HW194351   2.849  14.756   1.653
30859SOL    HW294352   2.815  14.829   1.524
30860SOL     OW94353   7.923   5.216   0.625
30860SOL    HW194354   8.007   5.186   0.659
30860SOL    HW294355   7.946   5.285   0.562
30861SOL     OW94356   1.006  14.465   3.637
30861SOL    HW194357   1.073  14.523   3.601
30861SOL    HW294358   0.942  14.523   3.678
30862SOL     OW94359   5.609   2.581   3.282
30862SOL    HW194360   5.520   2.576   3.248
30862SOL    HW294361   5.635   2.672   3.270
30863SOL     OW94362   6.865  12.591   5.531
30863SOL    HW194363   6.780  12.567   5.495
30863SOL    HW294364   6.924  12.521   5.503
30864SOL     OW94365   9.818  14.123   4.217
30864SOL    HW194366   9.837  14.031   4.232
30864SOL    HW294367   9.866  14.169   4.286
30865SOL     OW94368  12.079   9.519   7.420
30865SOL    HW194369  12.119   9.517   7.333
30865SOL    HW294370  11.986   9.502   7.405
30866SOL     OW94371   1.064  14.520  14.620
30866SOL    HW194372   1.155  14.495  14.606
30866SOL    HW294373   1.067  14.583  14.692
30867SOL     OW94374   8.982   8.615   7.716
30867SOL    HW194375   8.909   8.576   7.669
30867SOL    HW294376   9.059   8.597   7.661
30868SOL     OW94377  13.094   4.016   2.909
30868SOL    HW194378  13.022   3.967   2.870
30868SOL    HW294379  13.145   4.049   2.835
30869SOL     OW94380  13.722   8.970   4.424
30869SOL    HW194381  13.777   8.987   4.501
30869SOL    HW294382  13.778   8.993   4.349
30870SOL     OW94383   8.525   9.067   1.092
30870SOL    HW194384   8.539   9.154   1.129
30870SOL    HW294385   8.449   9.078   1.035
30871SOL     OW94386   3.741   3.139  10.884
30871SOL    HW194387   3.649   3.120  10.864
30871SOL    HW294388   3.778   3.167  10.801
30872SOL     OW94389   7.636  10.996  14.843
30872SOL    HW194390   7.706  10.985  14.778
30872SOL    HW294391   7.619  10.908  14.876
30873SOL     OW94392  13.595   7.989   1.952
30873SOL    HW194393  13.579   8.062   2.012
30873SOL    HW294394  13.668   8.019   1.897
30874SOL     OW94395  11.225  11.942   1.334
30874SOL    HW194396  11.201  11.850   1.320
30874SOL    HW294397  11.168  11.971   1.404
30875SOL     OW94398   9.996   4.074   9.389
30875SOL    HW194399   9.997   4.081   9.485
30875SOL    HW294400  10.037   4.155   9.359
30876SOL     OW94401  13.653   6.318   6.581
30876SOL    HW194402  13.668   6.404   6.620
30876SOL    HW294403  13.628   6.262   6.655
30877SOL     OW94404   0.196   2.942   5.576
30877SOL    HW194405   0.190   2.877   5.647
30877SOL    HW294406   0.275   2.918   5.528
30878SOL     OW94407   0.686   5.265   3.219
30878SOL    HW194408   0.646   5.352   3.219
30878SOL    HW294409   0.678   5.235   3.310
30879SOL     OW94410   7.337   5.793   5.248
30879SOL    HW194411   7.382   5.835   5.175
30879SOL    HW294412   7.251   5.769   5.213
30880SOL     OW94413  12.474   6.207   5.621
30880SOL    HW194414  12.483   6.272   5.550
30880SOL    HW294415  12.556   6.158   5.618
30881SOL     OW94416   2.250   7.201   9.589
30881SOL    HW194417   2.236   7.223   9.497
30881SOL    HW294418   2.251   7.286   9.634
30882SOL     OW94419   5.642  14.822   2.444
30882SOL    HW194420   5.725  14.783   2.415
30882SOL    HW294421   5.577  14.788   2.383
30883SOL     OW94422   5.423   0.766   2.913
30883SOL    HW194423   5.493   0.728   2.966
30883SOL    HW294424   5.385   0.835   2.968
30884SOL     OW94425  11.645   4.823   6.155
30884SOL    HW194426  11.618   4.863   6.072
30884SOL    HW294427  11.567   4.830   6.210
30885SOL     OW94428   9.541   8.572   5.379
30885SOL    HW194429   9.530   8.645   5.440
30885SOL    HW294430   9.615   8.599   5.324
30886SOL     OW94431   9.546  13.248   2.296
30886SOL    HW194432   9.523  13.321   2.239
30886SOL    HW294433   9.637  13.228   2.273
30887SOL     OW94434   0.284   6.991   2.262
30887SOL    HW194435   0.203   6.940   2.250
30887SOL    HW294436   0.345   6.954   2.198
30888SOL     OW94437  10.386  13.868   0.990
30888SOL    HW194438  10.378  13.940   1.052
30888SOL    HW294439  10.421  13.908   0.911
30889SOL     OW94440   7.937   7.050   1.468
30889SOL    HW194441   7.944   6.986   1.398
30889SOL    HW294442   7.906   6.999   1.543
30890SOL     OW94443   5.465   6.899  13.810
30890SOL    HW194444   5.480   6.978  13.862
30890SOL    HW294445   5.548   6.884  13.764
30891SOL     OW94446  14.394   1.980   0.578
30891SOL    HW194447  14.345   1.982   0.495
30891SOL    HW294448  14.328   1.961   0.644
30892SOL     OW94449  14.270   1.314   9.812
30892SOL    HW194450  14.325   1.235   9.811
30892SOL    HW294451  14.256   1.334   9.719
30893SOL     OW94452  14.255  12.300  10.964
30893SOL    HW194453  14.195  12.305  11.038
30893SOL    HW294454  14.284  12.209  10.962
30894SOL     OW94455  10.501  10.400   1.327
30894SOL    HW194456  10.547  10.318   1.310
30894SOL    HW294457  10.409  10.373   1.337
30895SOL     OW94458   2.288   7.500   0.888
30895SOL    HW194459   2.373   7.499   0.843
30895SOL    HW294460   2.239   7.570   0.844
30896SOL     OW94461  14.601   9.275   4.741
30896SOL    HW194462  14.640   9.266   4.828
30896SOL    HW294463  14.515   9.234   4.749
30897SOL     OW94464   4.885   0.433   1.864
30897SOL    HW194465   4.806   0.413   1.813
30897SOL    HW294466   4.908   0.522   1.839
30898SOL     OW94467   3.853  12.294   8.395
30898SOL    HW194468   3.924  12.230   8.385
30898SOL    HW294469   3.788  12.267   8.331
30899SOL     OW94470   8.456  11.598  10.373
30899SOL    HW194471   8.533  11.609  10.317
30899SOL    HW294472   8.441  11.685  10.412
30900SOL     OW94473  10.801   2.578   5.489
30900SOL    HW194474  10.851   2.658   5.474
30900SOL    HW294475  10.739   2.602   5.558
30901SOL     OW94476   9.472  12.942   1.149
30901SOL    HW194477   9.455  12.855   1.186
30901SOL    HW294478   9.488  12.997   1.225
30902SOL     OW94479   7.900  13.344  12.531
30902SOL    HW194480   7.900  13.254  12.498
30902SOL    HW294481   7.882  13.335  12.625
30903SOL     OW94482  14.144  14.079   7.228
30903SOL    HW194483  14.065  14.112   7.271
30903SOL    HW294484  14.215  14.134   7.263
30904SOL     OW94485   2.959   1.010   7.939
30904SOL    HW194486   2.870   1.040   7.919
30904SOL    HW294487   2.952   0.915   7.948
30905SOL     OW94488   1.653  11.855   3.117
30905SOL    HW194489   1.661  11.951   3.119
30905SOL    HW294490   1.589  11.838   3.049
30906SOL     OW94491  12.870   0.113  10.336
30906SOL    HW194492  12.793   0.065  10.367
30906SOL    HW294493  12.860   0.116  10.241
30907SOL     OW94494   2.629   1.279   5.382
30907SOL    HW194495   2.704   1.339   5.394
30907SOL    HW294496   2.601   1.260   5.472
30908SOL     OW94497   6.151   3.091   0.624
30908SOL    HW194498   6.079   3.108   0.562
30908SOL    HW294499   6.107   3.073   0.707
30909SOL     OW94500  10.975  11.052   2.454
30909SOL    HW194501  10.899  11.024   2.504
30909SOL    HW294502  10.998  11.137   2.490
30910SOL     OW94503  10.343   4.036   9.169
30910SOL    HW194504  10.307   3.948   9.182
30910SOL    HW294505  10.393   4.053   9.248
30911SOL     OW94506   7.351  14.775  11.199
30911SOL    HW194507   7.329  14.848  11.141
30911SOL    HW294508   7.447  14.771  11.198
30912SOL     OW94509   6.399   4.606  14.503
30912SOL    HW194510   6.385   4.542  14.434
30912SOL    HW294511   6.312   4.641  14.522
30913SOL     OW94512   9.728  14.464   5.085
30913SOL    HW194513   9.671  14.400   5.127
30913SOL    HW294514   9.798  14.479   5.149
30914SOL     OW94515  10.632  11.093  11.054
30914SOL    HW194516  10.628  11.133  11.141
30914SOL    HW294517  10.550  11.118  11.012
30915SOL     OW94518   6.204  10.985   1.833
30915SOL    HW194519   6.268  10.916   1.814
30915SOL    HW294520   6.212  11.000   1.927
30916SOL     OW94521  13.029   3.012  10.296
30916SOL    HW194522  13.109   3.003  10.349
30916SOL    HW294523  13.038   3.098  10.254
30917SOL     OW94524  11.409  14.731   4.654
30917SOL    HW194525  11.360  14.651   4.637
30917SOL    HW294526  11.392  14.752   4.745
30918SOL     OW94527  13.087   0.499  12.223
30918SOL    HW194528  13.023   0.501  12.151
30918SOL    HW294529  13.070   0.580  12.272
30919SOL     OW94530   4.297   9.778  14.024
30919SOL    HW194531   4.236   9.707  14.041
30919SOL    HW294532   4.375   9.754  14.074
30920SOL     OW94533   0.543   8.111  10.881
30920SOL    HW194534   0.541   8.086  10.974
30920SOL    HW294535   0.547   8.206  10.882
30921SOL     OW94536  11.556   2.019  10.776
30921SOL    HW194537  11.627   1.956  10.791
30921SOL    HW294538  11.505   1.980  10.705
30922SOL     OW94539   2.740   1.620   8.652
30922SOL    HW194540   2.665   1.639   8.595
30922SOL    HW294541   2.760   1.704   8.693
30923SOL     OW94542  12.007   6.596   2.697
30923SOL    HW194543  12.031   6.534   2.766
30923SOL    HW294544  11.971   6.671   2.745
30924SOL     OW94545  12.671   2.266   3.651
30924SOL    HW194546  12.759   2.299   3.666
30924SOL    HW294547  12.618   2.343   3.631
30925SOL     OW94548   2.176  14.815   3.445
30925SOL    HW194549   2.128  14.803   3.527
30925SOL    HW294550   2.143   0.017   3.410
30926SOL     OW94551   9.179   2.282   5.125
30926SOL    HW194552   9.136   2.352   5.075
30926SOL    HW294553   9.172   2.310   5.216
30927SOL     OW94554  12.250  13.734   8.113
30927SOL    HW194555  12.336  13.728   8.153
30927SOL    HW294556  12.246  13.660   8.052
30928SOL     OW94557   5.250   9.246   3.483
30928SOL    HW194558   5.318   9.196   3.436
30928SOL    HW294559   5.177   9.249   3.422
30929SOL     OW94560   5.460  14.467   9.142
30929SOL    HW194561   5.421  14.532   9.202
30929SOL    HW294562   5.535  14.512   9.104
30930SOL     OW94563   3.901   4.230   4.132
30930SOL    HW194564   3.874   4.322   4.136
30930SOL    HW294565   3.845   4.191   4.066
30931SOL     OW94566   3.837   1.437   6.916
30931SOL    HW194567   3.801   1.408   7.000
30931SOL    HW294568   3.774   1.408   6.851
30932SOL     OW94569   9.346   8.162   9.912
30932SOL    HW194570   9.433   8.145   9.878
30932SOL    HW294571   9.344   8.120   9.998
30933SOL     OW94572   7.098   7.711  14.540
30933SOL    HW194573   7.120   7.630  14.494
30933SOL    HW294574   7.171   7.770  14.520
30934SOL     OW94575   5.563  13.340   0.810
30934SOL    HW194576   5.618  13.378   0.742
30934SOL    HW294577   5.623  13.322   0.882
30935SOL     OW94578  13.896   6.203   2.746
30935SOL    HW194579  13.963   6.209   2.677
30935SOL    HW294580  13.881   6.109   2.756
30936SOL     OW94581   1.813   6.356  11.433
30936SOL    HW194582   1.724   6.338  11.401
30936SOL    HW294583   1.863   6.377  11.355
30937SOL     OW94584  12.199  11.820   2.919
30937SOL    HW194585  12.213  11.901   2.870
30937SOL    HW294586  12.123  11.837   2.973
30938SOL     OW94587   1.983   5.289   1.305
30938SOL    HW194588   2.032   5.267   1.385
30938SOL    HW294589   1.924   5.360   1.332
30939SOL     OW94590   6.055  14.751   3.881
30939SOL    HW194591   6.136  14.764   3.831
30939SOL    HW294592   5.991  14.721   3.816
30940SOL     OW94593   3.766  14.495   1.409
30940SOL    HW194594   3.815  14.438   1.469
30940SOL    HW294595   3.810  14.484   1.324
30941SOL     OW94596   6.152   1.933  11.231
30941SOL    HW194597   6.223   1.868  11.228
30941SOL    HW294598   6.197   2.017  11.227
30942SOL     OW94599  12.699   3.483   4.439
30942SOL    HW194600  12.790   3.461   4.458
30942SOL    HW294601  12.651   3.402   4.458
30943SOL     OW94602   2.275   0.702   5.299
30943SOL    HW194603   2.349   0.761   5.316
30943SOL    HW294604   2.308   0.642   5.232
30944SOL     OW94605  13.639   3.537   7.766
30944SOL    HW194606  13.718   3.551   7.818
30944SOL    HW294607  13.571   3.586   7.812
30945SOL     OW94608   2.650   1.324   0.885
30945SOL    HW194609   2.712   1.392   0.857
30945SOL    HW294610   2.582   1.325   0.819
30946SOL     OW94611  10.755   0.102   3.797
30946SOL    HW194612  10.808   0.173   3.761
30946SOL    HW294613  10.675   0.145   3.827
30947SOL     OW94614   5.333   3.749  10.517
30947SOL    HW194615   5.379   3.748  10.600
30947SOL    HW294616   5.364   3.828  10.472
30948SOL     OW94617   0.803   6.156  10.287
30948SOL    HW194618   0.892   6.161  10.323
30948SOL    HW294619   0.765   6.243  10.304
30949SOL     OW94620  11.822  12.213   8.370
30949SOL    HW194621  11.759  12.149   8.404
30949SOL    HW294622  11.781  12.298   8.385
30950SOL     OW94623  14.652   8.036  14.229
30950SOL    HW194624  14.652   8.059  14.136
30950SOL    HW294625  14.569   8.067  14.263
30951SOL     OW94626   4.385   3.258  12.862
30951SOL    HW194627   4.311   3.310  12.834
30951SOL    HW294628   4.355   3.214  12.941
30952SOL     OW94629   6.103  10.865   3.913
30952SOL    HW194630   6.173  10.800   3.914
30952SOL    HW294631   6.099  10.897   4.004
30953SOL     OW94632  12.967   0.263   3.953
30953SOL    HW194633  12.969   0.347   3.908
30953SOL    HW294634  13.011   0.202   3.893
30954SOL     OW94635  14.877  12.228  14.368
30954SOL    HW194636  14.859  12.271  14.284
30954SOL    HW294637   0.079  12.183  14.354
30955SOL     OW94638   8.091   8.813   3.710
30955SOL    HW194639   8.016   8.757   3.732
30955SOL    HW294640   8.062   8.861   3.632
30956SOL     OW94641  10.971  14.470   7.595
30956SOL    HW194642  11.037  14.527   7.554
30956SOL    HW294643  10.892  14.485   7.544
30957SOL     OW94644   9.690   9.672   3.677
30957SOL    HW194645   9.765   9.616   3.695
30957SOL    HW294646   9.638   9.624   3.613
30958SOL     OW94647   9.308   3.899   7.933
30958SOL    HW194648   9.365   3.958   7.982
30958SOL    HW294649   9.220   3.935   7.946
30959SOL     OW94650   0.535   5.052   9.319
30959SOL    HW194651   0.456   5.089   9.359
30959SOL    HW294652   0.581   5.128   9.284
30960SOL     OW94653  13.792   3.702   1.605
30960SOL    HW194654  13.723   3.679   1.667
30960SOL    HW294655  13.802   3.797   1.615
30961SOL     OW94656   8.997   6.071   3.424
30961SOL    HW194657   9.067   6.057   3.360
30961SOL    HW294658   9.016   6.008   3.494
30962SOL     OW94659   7.279   8.703  10.152
30962SOL    HW194660   7.323   8.788  10.150
30962SOL    HW294661   7.186   8.724  10.144
30963SOL     OW94662   9.276   7.740   5.934
30963SOL    HW194663   9.238   7.827   5.928
30963SOL    HW294664   9.200   7.681   5.936
30964SOL     OW94665  10.679   4.556   7.680
30964SOL    HW194666  10.745   4.524   7.618
30964SOL    HW294667  10.714   4.533   7.766
30965SOL     OW94668   7.594   3.010  13.828
30965SOL    HW194669   7.631   3.017  13.916
30965SOL    HW294670   7.574   3.100  13.803
30966SOL     OW94671   1.028   6.420   6.286
30966SOL    HW194672   1.041   6.515   6.294
30966SOL    HW294673   0.938   6.406   6.316
30967SOL     OW94674   1.495   8.085   8.536
30967SOL    HW194675   1.483   8.012   8.597
30967SOL    HW294676   1.589   8.103   8.539
30968SOL     OW94677   6.876   8.433   5.098
30968SOL    HW194678   6.932   8.510   5.088
30968SOL    HW294679   6.805   8.462   5.155
30969SOL     OW94680  11.484   4.179   8.896
30969SOL    HW194681  11.448   4.235   8.964
30969SOL    HW294682  11.434   4.200   8.817
30970SOL     OW94683   9.101  13.402   5.397
30970SOL    HW194684   9.011  13.424   5.376
30970SOL    HW294685   9.116  13.318   5.353
30971SOL     OW94686   6.081   8.194  12.949
30971SOL    HW194687   6.122   8.215  13.033
30971SOL    HW294688   5.988   8.209  12.964
30972SOL     OW94689  14.725   9.257   7.389
30972SOL    HW194690  14.659   9.193   7.362
30972SOL    HW294691  14.692   9.341   7.356
30973SOL     OW94692   0.240  11.677   2.357
30973SOL    HW194693   0.248  11.582   2.350
30973SOL    HW294694   0.291  11.711   2.284
30974SOL     OW94695   6.390  10.914   3.737
30974SOL    HW194696   6.354  10.828   3.714
30974SOL    HW294697   6.426  10.947   3.655
30975SOL     OW94698   8.848   7.755  11.945
30975SOL    HW194699   8.921   7.797  11.900
30975SOL    HW294700   8.823   7.817  12.013
30976SOL     OW94701  11.820   5.528   8.014
30976SOL    HW194702  11.891   5.592   8.008
30976SOL    HW294703  11.742   5.576   7.988
30977SOL     OW94704   3.595   2.481  11.158
30977SOL    HW194705   3.506   2.446  11.167
30977SOL    HW294706   3.581   2.573  11.133
30978SOL     OW94707  10.636   5.076  10.214
30978SOL    HW194708  10.593   5.095  10.130
30978SOL    HW294709  10.574   5.021  10.261
30979SOL     OW94710   4.710   9.489   7.808
30979SOL    HW194711   4.736   9.456   7.722
30979SOL    HW294712   4.791   9.489   7.859
30980SOL     OW94713  10.230   9.313   1.659
30980SOL    HW194714  10.241   9.339   1.568
30980SOL    HW294715  10.302   9.253   1.676
30981SOL     OW94716  10.260   7.474   4.591
30981SOL    HW194717  10.309   7.395   4.569
30981SOL    HW294718  10.168   7.448   4.589
30982SOL     OW94719   6.284   7.558   8.068
30982SOL    HW194720   6.307   7.651   8.061
30982SOL    HW294721   6.365   7.516   8.096
30983SOL     OW94722   0.173   4.719   3.772
30983SOL    HW194723   0.150   4.762   3.854
30983SOL    HW294724   0.267   4.736   3.761
30984SOL     OW94725   3.177   3.430   7.823
30984SOL    HW194726   3.182   3.521   7.794
30984SOL    HW294727   3.175   3.436   7.919
30985SOL     OW94728   3.861   1.602   5.832
30985SOL    HW194729   3.814   1.520   5.823
30985SOL    HW294730   3.802   1.668   5.795
30986SOL     OW94731   8.792   9.429   6.351
30986SOL    HW194732   8.714   9.383   6.321
30986SOL    HW294733   8.841   9.448   6.271
30987SOL     OW94734   9.299  13.452  11.128
30987SOL    HW194735   9.325  13.394  11.199
30987SOL    HW294736   9.283  13.536  11.170
30988SOL     OW94737   4.436  11.541   7.604
30988SOL    HW194738   4.395  11.628   7.603
30988SOL    HW294739   4.380  11.488   7.660
30989SOL     OW94740   1.675   3.327   3.862
30989SOL    HW194741   1.636   3.409   3.830
30989SOL    HW294742   1.709   3.285   3.783
30990SOL     OW94743   7.739   5.641   9.143
30990SOL    HW194744   7.793   5.658   9.220
30990SOL    HW294745   7.668   5.706   9.150
30991SOL     OW94746  11.484  14.039   1.236
30991SOL    HW194747  11.553  14.086   1.284
30991SOL    HW294748  11.403  14.082   1.262
30992SOL     OW94749   1.154  12.713   7.900
30992SOL    HW194750   1.147  12.679   7.989
30992SOL    HW294751   1.070  12.755   7.883
30993SOL     OW94752   3.412   3.642  11.732
30993SOL    HW194753   3.393   3.719  11.677
30993SOL    HW294754   3.338   3.637  11.793
30994SOL     OW94755   9.754   8.625   7.204
30994SOL    HW194756   9.757   8.704   7.149
30994SOL    HW294757   9.836   8.627   7.253
30995SOL     OW94758   2.986   9.358   4.320
30995SOL    HW194759   2.963   9.312   4.239
30995SOL    HW294760   3.044   9.429   4.291
30996SOL     OW94761  13.636  13.844  14.880
30996SOL    HW194762  13.561  13.786  14.865
30996SOL    HW294763  13.648  13.844   0.093
30997SOL     OW94764   2.162   0.730  13.154
30997SOL    HW194765   2.256   0.741  13.143
30997SOL    HW294766   2.124   0.765  13.074
30998SOL     OW94767  14.002   6.698   6.571
30998SOL    HW194768  13.934   6.725   6.633
30998SOL    HW294769  13.973   6.612   6.540
30999SOL     OW94770   5.620   8.243  13.301
30999SOL    HW194771   5.674   8.166  13.287
30999SOL    HW294772   5.682   8.314  13.316
31000SOL     OW94773   1.361   1.074   2.579
31000SOL    HW194774   1.328   1.124   2.504
31000SOL    HW294775   1.295   1.087   2.647
31001SOL     OW94776   6.016   5.586  11.594
31001SOL    HW194777   6.018   5.660  11.535
31001SOL    HW294778   5.926   5.554  11.590
31002SOL     OW94779   3.190   1.753   4.124
31002SOL    HW194780   3.207   1.695   4.050
31002SOL    HW294781   3.269   1.806   4.131
31003SOL     OW94782   8.090   8.346   1.443
31003SOL    HW194783   8.073   8.327   1.350
31003SOL    HW294784   8.018   8.403   1.469
31004SOL     OW94785   7.991  11.783  14.261
31004SOL    HW194786   7.929  11.827  14.203
31004SOL    HW294787   7.998  11.840  14.337
31005SOL     OW94788   5.700   0.646  12.129
31005SOL    HW194789   5.769   0.591  12.165
31005SOL    HW294790   5.620   0.594  12.139
31006SOL     OW94791   0.521   9.618   7.455
31006SOL    HW194792   0.478   9.689   7.406
31006SOL    HW294793   0.448   9.566   7.490
31007SOL     OW94794   4.271   8.586   7.838
31007SOL    HW194795   4.273   8.608   7.745
31007SOL    HW294796   4.360   8.604   7.868
31008SOL     OW94797   2.973   7.838   9.572
31008SOL    HW194798   3.061   7.802   9.563
31008SOL    HW294799   2.954   7.832   9.665
31009SOL     OW94800   7.047  10.156  13.870
31009SOL    HW194801   7.029  10.146  13.964
31009SOL    HW294802   7.067  10.068  13.840
31010SOL     OW94803   8.855   5.264  12.609
31010SOL    HW194804   8.941   5.305  12.622
31010SOL    HW294805   8.795   5.317  12.661
31011SOL     OW94806  13.102  12.279  10.955
31011SOL    HW194807  13.163  12.348  10.981
31011SOL    HW294808  13.157  12.214  10.911
31012SOL     OW94809  11.896  10.403   5.992
31012SOL    HW194810  11.832  10.407   5.921
31012SOL    HW294811  11.956  10.333   5.967
31013SOL     OW94812   2.069   1.238  11.582
31013SOL    HW194813   2.083   1.166  11.644
31013SOL    HW294814   2.135   1.225  11.515
31014SOL     OW94815  10.600   6.943   8.391
31014SOL    HW194816  10.630   7.000   8.462
31014SOL    HW294817  10.566   6.865   8.436
31015SOL     OW94818   8.393   6.968  12.303
31015SOL    HW194819   8.398   6.939  12.212
31015SOL    HW294820   8.351   6.895  12.349
31016SOL     OW94821   5.373   0.655   8.829
31016SOL    HW194822   5.405   0.685   8.914
31016SOL    HW294823   5.278   0.665   8.834
31017SOL     OW94824   6.858   7.190  11.912
31017SOL    HW194825   6.908   7.174  11.832
31017SOL    HW294826   6.917   7.241  11.967
31018SOL     OW94827   4.937   0.644   2.667
31018SOL    HW194828   5.016   0.649   2.721
31018SOL    HW294829   4.963   0.595   2.589
31019SOL     OW94830   1.130   9.937   7.369
31019SOL    HW194831   1.132   9.847   7.338
31019SOL    HW294832   1.197   9.940   7.438
31020SOL     OW94833   4.933  10.559   5.019
31020SOL    HW194834   4.948  10.649   5.048
31020SOL    HW294835   4.875  10.521   5.085
31021SOL     OW94836   9.383  12.116   8.202
31021SOL    HW194837   9.346  12.032   8.230
31021SOL    HW294838   9.307  12.172   8.186
31022SOL     OW94839   1.340   4.431   6.582
31022SOL    HW194840   1.339   4.443   6.677
31022SOL    HW294841   1.256   4.468   6.553
31023SOL     OW94842  14.754   7.060   5.475
31023SOL    HW194843  14.782   7.017   5.394
31023SOL    HW294844  14.739   7.151   5.451
31024SOL     OW94845   4.677   2.868   7.861
31024SOL    HW194846   4.641   2.796   7.913
31024SOL    HW294847   4.723   2.923   7.925
31025SOL     OW94848   8.553  11.603  11.415
31025SOL    HW194849   8.481  11.540  11.414
31025SOL    HW294850   8.512  11.687  11.396
31026SOL     OW94851   5.897  11.113   9.469
31026SOL    HW194852   5.899  11.023   9.437
31026SOL    HW294853   5.976  11.122   9.522
31027SOL     OW94854  11.345   6.769   6.561
31027SOL    HW194855  11.429   6.743   6.599
31027SOL    HW294856  11.343   6.726   6.476
31028SOL     OW94857   6.604  11.923   0.710
31028SOL    HW194858   6.609  11.907   0.615
31028SOL    HW294859   6.510  11.918   0.729
31029SOL     OW94860  10.715   0.763   0.084
31029SOL    HW194861  10.675   0.681   0.113
31029SOL    HW294862  10.665   0.787   0.005
31030SOL     OW94863  10.063  14.856   6.028
31030SOL    HW194864  10.080  14.849   6.123
31030SOL    HW294865   9.969  14.874   6.022
31031SOL     OW94866   0.499   7.022   5.882
31031SOL    HW194867   0.574   6.979   5.923
31031SOL    HW294868   0.431   6.955   5.879
31032SOL     OW94869   9.114   7.763   4.643
31032SOL    HW194870   9.167   7.833   4.607
31032SOL    HW294871   9.054   7.738   4.573
31033SOL     OW94872   4.186  13.864   3.846
31033SOL    HW194873   4.155  13.874   3.936
31033SOL    HW294874   4.265  13.919   3.842
31034SOL     OW94875   3.831  14.630   7.921
31034SOL    HW194876   3.801  14.721   7.922
31034SOL    HW294877   3.834  14.605   8.013
31035SOL     OW94878   7.083  12.626  13.321
31035SOL    HW194879   7.121  12.551  13.368
31035SOL    HW294880   7.101  12.701  13.379
31036SOL     OW94881   2.446   5.061   0.658
31036SOL    HW194882   2.350   5.058   0.657
31036SOL    HW294883   2.468   5.128   0.722
31037SOL     OW94884  10.533  14.369   8.996
31037SOL    HW194885  10.477  14.425   8.943
31037SOL    HW294886  10.514  14.280   8.966
31038SOL     OW94887   6.837   8.319   5.691
31038SOL    HW194888   6.888   8.266   5.629
31038SOL    HW294889   6.886   8.400   5.699
31039SOL     OW94890   0.993   4.953   4.020
31039SOL    HW194891   0.972   5.017   3.952
31039SOL    HW294892   1.044   4.886   3.975
31040SOL     OW94893   6.804   3.517  14.861
31040SOL    HW194894   6.853   3.582   0.029
31040SOL    HW294895   6.723   3.561  14.836
31041SOL     OW94896   4.456   7.499  11.520
31041SOL    HW194897   4.389   7.538  11.464
31041SOL    HW294898   4.418   7.500  11.607
31042SOL     OW94899  11.645  10.692   1.355
31042SOL    HW194900  11.634  10.658   1.267
31042SOL    HW294901  11.573  10.754   1.367
31043SOL     OW94902   4.789   0.964   2.888
31043SOL    HW194903   4.722   0.935   2.826
31043SOL    HW294904   4.855   0.895   2.885
31044SOL     OW94905   4.592   4.085   4.215
31044SOL    HW194906   4.608   4.018   4.281
31044SOL    HW294907   4.661   4.071   4.149
31045SOL     OW94908  12.919  14.247   5.963
31045SOL    HW194909  12.922  14.160   6.001
31045SOL    HW294910  12.992  14.295   6.004
31046SOL     OW94911  10.058   6.902  14.223
31046SOL    HW194912  10.063   6.927  14.131
31046SOL    HW294913  10.099   6.816  14.227
31047SOL     OW94914   0.136   7.755  13.529
31047SOL    HW194915   0.077   7.740  13.603
31047SOL    HW294916   0.099   7.702  13.458
31048SOL     OW94917   3.185   5.335   0.829
31048SOL    HW194918   3.103   5.354   0.784
31048SOL    HW294919   3.160   5.323   0.921
31049SOL     OW94920   3.180   4.581   6.264
31049SOL    HW194921   3.176   4.675   6.284
31049SOL    HW294922   3.271   4.557   6.281
31050SOL     OW94923   1.871   7.910   8.494
31050SOL    HW194924   1.789   7.868   8.519
31050SOL    HW294925   1.845   7.994   8.456
31051SOL     OW94926  13.063   8.726  10.588
31051SOL    HW194927  13.089   8.749  10.677
31051SOL    HW294928  12.982   8.676  10.598
31052SOL     OW94929   5.159  11.001   1.924
31052SOL    HW194930   5.078  11.008   1.974
31052SOL    HW294931   5.184  10.909   1.933
31053SOL     OW94932   2.400   6.385   7.598
31053SOL    HW194933   2.457   6.441   7.546
31053SOL    HW294934   2.389   6.306   7.545
31054SOL     OW94935  12.371  12.078   3.494
31054SOL    HW194936  12.413  12.062   3.410
31054SOL    HW294937  12.376  11.994   3.540
31055SOL     OW94938   2.910   5.568   2.707
31055SOL    HW194939   2.852   5.492   2.708
31055SOL    HW294940   2.996   5.533   2.683
31056SOL     OW94941   1.818   8.048   6.977
31056SOL    HW194942   1.884   8.055   7.046
31056SOL    HW294943   1.799   8.139   6.953
31057SOL     OW94944   3.697  13.091  13.995
31057SOL    HW194945   3.687  13.173  14.042
31057SOL    HW294946   3.777  13.101  13.944
31058SOL     OW94947   9.214   8.249   6.468
31058SOL    HW194948   9.272   8.215   6.536
31058SOL    HW294949   9.130   8.263   6.512
31059SOL     OW94950  10.941  12.621   9.015
31059SOL    HW194951  10.858  12.573   9.006
31059SOL    HW294952  10.950  12.637   9.109
31060SOL     OW94953   7.927   4.657  11.044
31060SOL    HW194954   7.974   4.716  11.102
31060SOL    HW294955   7.842   4.700  11.030
31061SOL     OW94956   7.218  13.893   4.792
31061SOL    HW194957   7.176  13.976   4.815
31061SOL    HW294958   7.311  13.914   4.789
31062SOL     OW94959   1.495  10.508  12.045
31062SOL    HW194960   1.576  10.530  11.999
31062SOL    HW294961   1.445  10.589  12.047
31063SOL     OW94962   1.460  10.864   9.914
31063SOL    HW194963   1.431  10.786   9.867
31063SOL    HW294964   1.379  10.903   9.948
31064SOL     OW94965   3.012   3.690   7.060
31064SOL    HW194966   3.080   3.626   7.080
31064SOL    HW294967   2.943   3.674   7.125
31065SOL     OW94968  12.531   8.104   8.992
31065SOL    HW194969  12.511   8.052   8.914
31065SOL    HW294970  12.505   8.193   8.970
31066SOL     OW94971   3.565   9.925   3.346
31066SOL    HW194972   3.571   9.886   3.259
31066SOL    HW294973   3.471   9.940   3.358
31067SOL     OW94974   7.758   5.868  13.247
31067SOL    HW194975   7.719   5.954  13.235
31067SOL    HW294976   7.838   5.883  13.296
31068SOL     OW94977   4.798   1.310   1.470
31068SOL    HW194978   4.832   1.352   1.550
31068SOL    HW294979   4.845   1.227   1.466
31069SOL     OW94980  12.404   0.369   2.855
31069SOL    HW194981  12.400   0.435   2.786
31069SOL    HW294982  12.389   0.418   2.936
31070SOL     OW94983   8.148  13.036   7.351
31070SOL    HW194984   8.168  13.128   7.372
31070SOL    HW294985   8.165  13.029   7.258
31071SOL     OW94986  12.124  14.194   4.937
31071SOL    HW194987  12.064  14.237   4.877
31071SOL    HW294988  12.207  14.240   4.925
31072SOL     OW94989  10.034   4.340   9.889
31072SOL    HW194990  10.062   4.267   9.945
31072SOL    HW294991  10.116   4.377   9.855
31073SOL     OW94992   4.104   9.808   9.877
31073SOL    HW194993   4.075   9.897   9.898
31073SOL    HW294994   4.049   9.752   9.931
31074SOL     OW94995  11.716   2.318   5.365
31074SOL    HW194996  11.802   2.294   5.401
31074SOL    HW294997  11.735   2.387   5.302
31075SOL     OW94998   8.751   1.885   4.955
31075SOL    HW194999   8.708   1.841   4.882
31075SOL    HW295000   8.725   1.977   4.947
31076SOL     OW95001   0.413  10.312   3.786
31076SOL    HW195002   0.473  10.380   3.815
31076SOL    HW295003   0.370  10.350   3.709
31077SOL     OW95004  10.174  13.829   9.901
31077SOL    HW195005  10.133  13.800   9.983
31077SOL    HW295006  10.112  13.803   9.833
31078SOL     OW95007  14.638   3.427   3.253
31078SOL    HW195008  14.679   3.484   3.319
31078SOL    HW295009  14.649   3.339   3.287
31079SOL     OW95010   9.638  13.423  10.698
31079SOL    HW195011   9.625  13.504  10.648
31079SOL    HW295012   9.667  13.452  10.784
31080SOL     OW95013   0.369   8.345  11.450
31080SOL    HW195014   0.309   8.342  11.524
31080SOL    HW295015   0.454   8.318  11.487
31081SOL     OW95016   7.514   4.231   2.631
31081SOL    HW195017   7.580   4.288   2.671
31081SOL    HW295018   7.443   4.291   2.607
31082SOL     OW95019   5.115   1.609  14.046
31082SOL    HW195020   5.163   1.583  14.124
31082SOL    HW295021   5.181   1.652  13.991
31083SOL     OW95022   8.901   5.863  10.489
31083SOL    HW195023   8.981   5.811  10.481
31083SOL    HW295024   8.865   5.839  10.574
31084SOL     OW95025  11.371   4.119  10.520
31084SOL    HW195026  11.433   4.081  10.582
31084SOL    HW295027  11.287   4.118  10.566
31085SOL     OW95028   7.524   5.020   5.412
31085SOL    HW195029   7.437   4.982   5.398
31085SOL    HW295030   7.585   4.948   5.400
31086SOL     OW95031   2.289  12.877   5.623
31086SOL    HW195032   2.241  12.957   5.600
31086SOL    HW295033   2.348  12.862   5.549
31087SOL     OW95034  13.756  11.685  12.162
31087SOL    HW195035  13.699  11.738  12.107
31087SOL    HW295036  13.728  11.595  12.147
31088SOL     OW95037  12.896  12.893  14.635
31088SOL    HW195038  12.986  12.921  14.619
31088SOL    HW295039  12.899  12.852  14.722
31089SOL     OW95040  14.219  11.276   8.214
31089SOL    HW195041  14.167  11.209   8.258
31089SOL    HW295042  14.291  11.227   8.173
31090SOL     OW95043   4.662   2.621   5.723
31090SOL    HW195044   4.605   2.544   5.712
31090SOL    HW295045   4.698   2.612   5.811
31091SOL     OW95046   0.734   9.771   8.593
31091SOL    HW195047   0.789   9.841   8.557
31091SOL    HW295048   0.685   9.739   8.517
31092SOL     OW95049   6.836   3.721   0.162
31092SOL    HW195050   6.753   3.753   0.127
31092SOL    HW295051   6.867   3.791   0.219
31093SOL     OW95052   0.528   6.527   9.887
31093SOL    HW195053   0.490   6.466   9.951
31093SOL    HW295054   0.616   6.545   9.921
31094SOL     OW95055   1.202   7.306   3.120
31094SOL    HW195056   1.244   7.388   3.094
31094SOL    HW295057   1.111   7.316   3.091
31095SOL     OW95058   4.771  14.408   1.304
31095SOL    HW195059   4.815  14.348   1.364
31095SOL    HW295060   4.822  14.488   1.309
31096SOL     OW95061   8.763   1.969   6.590
31096SOL    HW195062   8.781   1.915   6.667
31096SOL    HW295063   8.766   1.908   6.517
31097SOL     OW95064   6.897  10.416   0.865
31097SOL    HW195065   6.946  10.336   0.848
31097SOL    HW295066   6.818  10.407   0.812
31098SOL     OW95067  10.334   5.702  14.380
31098SOL    HW195068  10.242   5.691  14.405
31098SOL    HW295069  10.369   5.763  14.445
31099SOL     OW95070   5.169   4.890   0.014
31099SOL    HW195071   5.160   4.797   0.033
31099SOL    HW295072   5.089   4.929   0.049
31100SOL     OW95073   4.762  10.458  11.578
31100SOL    HW195074   4.771  10.370  11.540
31100SOL    HW295075   4.669  10.465  11.598
31101SOL     OW95076  11.459  13.089   1.311
31101SOL    HW195077  11.369  13.085   1.276
31101SOL    HW295078  11.514  13.088   1.233
31102SOL     OW95079   7.587   2.382  14.601
31102SOL    HW195080   7.535   2.336  14.667
31102SOL    HW295081   7.554   2.472  14.602
31103SOL     OW95082  11.907   9.823   5.969
31103SOL    HW195083  11.965   9.774   5.910
31103SOL    HW295084  11.952   9.906   5.985
31104SOL     OW95085   7.174   4.893   3.272
31104SOL    HW195086   7.179   4.926   3.362
31104SOL    HW295087   7.183   4.972   3.218
31105SOL     OW95088  13.321   7.596   9.160
31105SOL    HW195089  13.255   7.651   9.117
31105SOL    HW295090  13.327   7.518   9.105
31106SOL     OW95091   1.243   2.335   8.735
31106SOL    HW195092   1.163   2.305   8.779
31106SOL    HW295093   1.314   2.302   8.790
31107SOL     OW95094   0.167   7.018   9.996
31107SOL    HW195095   0.208   6.944   9.952
31107SOL    HW295096   0.199   7.014  10.086
31108SOL     OW95097   8.513   9.808   6.568
31108SOL    HW195098   8.560   9.885   6.599
31108SOL    HW295099   8.580   9.752   6.531
31109SOL     OW95100   8.497   0.825   8.258
31109SOL    HW195101   8.501   0.797   8.349
31109SOL    HW295102   8.520   0.746   8.208
31110SOL     OW95103  10.966   6.201   1.504
31110SOL    HW195104  10.969   6.112   1.468
31110SOL    HW295105  10.977   6.258   1.427
31111SOL     OW95106  14.646   5.477   0.643
31111SOL    HW195107  14.739   5.497   0.640
31111SOL    HW295108  14.633   5.414   0.572
31112SOL     OW95109  13.510  11.510  10.324
31112SOL    HW195110  13.464  11.590  10.347
31112SOL    HW295111  13.579  11.537  10.263
31113SOL     OW95112   5.480   8.570   2.276
31113SOL    HW195113   5.424   8.605   2.345
31113SOL    HW295114   5.528   8.646   2.242
31114SOL     OW95115   0.653  14.479  14.731
31114SOL    HW195116   0.647  14.476  14.827
31114SOL    HW295117   0.618  14.395  14.702
31115SOL     OW95118   8.261   8.815   1.715
31115SOL    HW195119   8.344   8.860   1.731
31115SOL    HW295120   8.286   8.729   1.683
31116SOL     OW95121  12.310   7.680  14.656
31116SOL    HW195122  12.254   7.752  14.628
31116SOL    HW295123  12.249   7.613  14.687
31117SOL     OW95124  11.704   2.880   9.986
31117SOL    HW195125  11.661   2.800  10.017
31117SOL    HW295126  11.797   2.858   9.984
31118SOL     OW95127   4.525  10.902   1.071
31118SOL    HW195128   4.452  10.856   1.031
31118SOL    HW295129   4.603  10.867   1.028
31119SOL     OW95130   0.949   8.142  13.316
31119SOL    HW195131   0.895   8.095  13.254
31119SOL    HW295132   0.978   8.076  13.379
31120SOL     OW95133   7.528   9.748   2.532
31120SOL    HW195134   7.533   9.718   2.442
31120SOL    HW295135   7.539   9.843   2.527
31121SOL     OW95136  13.741   3.652  11.355
31121SOL    HW195137  13.738   3.568  11.401
31121SOL    HW295138  13.834   3.668  11.340
31122SOL     OW95139  13.168  12.982  11.034
31122SOL    HW195140  13.089  13.003  10.984
31122SOL    HW295141  13.227  13.055  11.018
31123SOL     OW95142   1.890  11.833   3.327
31123SOL    HW195143   1.857  11.787   3.404
31123SOL    HW295144   1.812  11.853   3.276
31124SOL     OW95145  14.780   2.371   9.166
31124SOL    HW195146  14.702   2.385   9.220
31124SOL    HW295147  14.854   2.390   9.225
31125SOL     OW95148  13.280  13.761   0.148
31125SOL    HW195149  13.201  13.742   0.199
31125SOL    HW295150  13.331  13.819   0.204
31126SOL     OW95151   1.304   8.438   7.270
31126SOL    HW195152   1.322   8.345   7.281
31126SOL    HW295153   1.248   8.461   7.344
31127SOL     OW95154   2.563  11.673  14.168
31127SOL    HW195155   2.481  11.722  14.157
31127SOL    HW295156   2.539  11.600  14.224
31128SOL     OW95157   2.947  13.050   3.311
31128SOL    HW195158   2.932  13.140   3.341
31128SOL    HW295159   2.924  13.051   3.218
31129SOL     OW95160   2.369   0.422   2.307
31129SOL    HW195161   2.304   0.358   2.277
31129SOL    HW295162   2.392   0.392   2.396
31130SOL     OW95163  11.843   2.251  12.506
31130SOL    HW195164  11.807   2.305  12.436
31130SOL    HW295165  11.886   2.179  12.460
31131SOL     OW95166   5.197   5.753  14.013
31131SOL    HW195167   5.224   5.670  14.053
31131SOL    HW295168   5.272   5.780  13.960
31132SOL     OW95169   0.711   8.352  10.282
31132SOL    HW195170   0.723   8.382  10.372
31132SOL    HW295171   0.662   8.270  10.291
31133SOL     OW95172  13.022   4.226  10.242
31133SOL    HW195173  12.995   4.236  10.333
31133SOL    HW295174  13.116   4.245  10.243
31134SOL     OW95175   7.386   1.817   7.149
31134SOL    HW195176   7.466   1.774   7.120
31134SOL    HW295177   7.376   1.792   7.241
31135SOL     OW95178   9.600   8.023   5.017
31135SOL    HW195179   9.669   7.958   5.011
31135SOL    HW295180   9.600   8.066   4.931
31136SOL     OW95181  12.562   9.997   9.352
31136SOL    HW195182  12.515   9.992   9.269
31136SOL    HW295183  12.612   9.916   9.356
31137SOL     OW95184   6.915  13.954   3.812
31137SOL    HW195185   6.936  14.015   3.741
31137SOL    HW295186   6.837  13.991   3.854
31138SOL     OW95187   5.765   7.399   7.177
31138SOL    HW195188   5.684   7.354   7.202
31138SOL    HW295189   5.746   7.492   7.188
31139SOL     OW95190   3.115  12.960   9.643
31139SOL    HW195191   3.094  12.867   9.631
31139SOL    HW295192   3.205  12.968   9.612
31140SOL     OW95193   4.258   9.057   5.571
31140SOL    HW195194   4.268   9.135   5.516
31140SOL    HW295195   4.168   9.028   5.555
31141SOL     OW95196   4.036   0.760   5.479
31141SOL    HW195197   4.032   0.708   5.559
31141SOL    HW295198   4.009   0.699   5.410
31142SOL     OW95199  10.878   4.157  14.557
31142SOL    HW195200  10.815   4.187  14.490
31142SOL    HW295201  10.868   4.061  14.557
31143SOL     OW95202  11.042   9.747   9.263
31143SOL    HW195203  11.025   9.814   9.196
31143SOL    HW295204  11.020   9.664   9.221
31144SOL     OW95205   4.199   8.682   8.335
31144SOL    HW195206   4.165   8.764   8.299
31144SOL    HW295207   4.277   8.709   8.385
31145SOL     OW95208   9.226   1.998   9.461
31145SOL    HW195209   9.232   2.083   9.418
31145SOL    HW295210   9.145   2.001   9.511
31146SOL     OW95211   6.407   3.363   3.348
31146SOL    HW195212   6.407   3.278   3.306
31146SOL    HW295213   6.483   3.408   3.312
31147SOL     OW95214   2.493   7.644   7.079
31147SOL    HW195215   2.507   7.555   7.111
31147SOL    HW295216   2.533   7.645   6.992
31148SOL     OW95217   9.803   1.418  13.646
31148SOL    HW195218   9.804   1.370  13.728
31148SOL    HW295219   9.816   1.351  13.579
31149SOL     OW95220   0.151  14.041   2.542
31149SOL    HW195221   0.063  14.004   2.545
31149SOL    HW295222   0.165  14.076   2.630
31150SOL     OW95223   8.564   7.490   7.755
31150SOL    HW195224   8.556   7.561   7.819
31150SOL    HW295225   8.530   7.413   7.800
31151SOL     OW95226  14.051  10.181   3.588
31151SOL    HW195227  13.963  10.200   3.620
31151SOL    HW295228  14.051  10.215   3.498
31152SOL     OW95229   1.419  10.793  11.165
31152SOL    HW195230   1.354  10.740  11.119
31152SOL    HW295231   1.423  10.756  11.253
31153SOL     OW95232   7.609   4.588   1.915
31153SOL    HW195233   7.626   4.581   1.821
31153SOL    HW295234   7.534   4.647   1.922
31154SOL     OW95235   5.239  14.572   7.020
31154SOL    HW195236   5.221  14.548   7.111
31154SOL    HW295237   5.207  14.662   7.012
31155SOL     OW95238   1.855   8.355   9.952
31155SOL    HW195239   1.938   8.342   9.906
31155SOL    HW295240   1.799   8.283   9.923
31156SOL     OW95241   4.996  10.583   8.688
31156SOL    HW195242   5.009  10.520   8.617
31156SOL    HW295243   5.084  10.600   8.721
31157SOL     OW95244   0.470  13.496  11.047
31157SOL    HW195245   0.459  13.412  11.004
31157SOL    HW295246   0.399  13.500  11.111
31158SOL     OW95247  10.087   3.291   8.890
31158SOL    HW195248  10.179   3.316   8.875
31158SOL    HW295249  10.038   3.349   8.833
31159SOL     OW95250   8.021   4.767  13.615
31159SOL    HW195251   8.099   4.822  13.611
31159SOL    HW295252   7.972   4.790  13.536
31160SOL     OW95253  11.459  13.130   1.925
31160SOL    HW195254  11.369  13.108   1.947
31160SOL    HW295255  11.460  13.226   1.925
31161SOL     OW95256   4.072   9.219  11.487
31161SOL    HW195257   4.060   9.191  11.577
31161SOL    HW295258   4.140   9.286  11.491
31162SOL     OW95259   6.865   7.568   6.327
31162SOL    HW195260   6.857   7.474   6.310
31162SOL    HW295261   6.853   7.609   6.241
31163SOL     OW95262  13.894  14.292   8.695
31163SOL    HW195263  13.964  14.229   8.684
31163SOL    HW295264  13.814  14.240   8.698
31164SOL     OW95265   8.228   7.968  10.507
31164SOL    HW195266   8.221   7.881  10.547
31164SOL    HW295267   8.247   8.026  10.581
31165SOL     OW95268   1.268  12.748   1.877
31165SOL    HW195269   1.247  12.739   1.970
31165SOL    HW295270   1.189  12.787   1.838
31166SOL     OW95271   6.399  10.475  13.959
31166SOL    HW195272   6.360  10.513  14.037
31166SOL    HW295273   6.336  10.492  13.890
31167SOL     OW95274   8.190   2.104   6.292
31167SOL    HW195275   8.216   2.091   6.201
31167SOL    HW295276   8.199   2.018   6.333
31168SOL     OW95277   3.106   7.262  12.575
31168SOL    HW195278   3.056   7.193  12.619
31168SOL    HW295279   3.147   7.311  12.647
31169SOL     OW95280   3.608  12.971   6.394
31169SOL    HW195281   3.658  12.905   6.442
31169SOL    HW295282   3.533  12.990   6.450
31170SOL     OW95283   8.688   1.670  14.446
31170SOL    HW195284   8.771   1.711  14.468
31170SOL    HW295285   8.691   1.585  14.490
31171SOL     OW95286  14.729   5.093  12.458
31171SOL    HW195287  14.703   5.123  12.545
31171SOL    HW295288  14.695   5.160  12.399
31172SOL     OW95289   7.124   2.867   5.452
31172SOL    HW195290   7.042   2.891   5.410
31172SOL    HW295291   7.112   2.776   5.478
31173SOL     OW95292   2.324   5.599   4.284
31173SOL    HW195293   2.395   5.548   4.323
31173SOL    HW295294   2.286   5.647   4.358
31174SOL     OW95295   3.312   9.168   3.668
31174SOL    HW195296   3.389   9.215   3.701
31174SOL    HW295297   3.339   9.134   3.583
31175SOL     OW95298  11.084  10.528   4.692
31175SOL    HW195299  11.029  10.514   4.615
31175SOL    HW295300  11.046  10.470   4.759
31176SOL     OW95301   4.274  14.813   3.217
31176SOL    HW195302   4.292  14.728   3.178
31176SOL    HW295303   4.180  14.824   3.210
31177SOL     OW95304   6.818   4.406   9.582
31177SOL    HW195305   6.786   4.496   9.581
31177SOL    HW295306   6.913   4.413   9.587
31178SOL     OW95307  10.109  12.584   3.959
31178SOL    HW195308  10.163  12.619   4.029
31178SOL    HW295309  10.019  12.606   3.984
31179SOL     OW95310   4.001   8.490   2.364
31179SOL    HW195311   4.047   8.483   2.447
31179SOL    HW295312   4.049   8.558   2.315
31180SOL     OW95313  13.957  11.557   3.902
31180SOL    HW195314  14.029  11.593   3.849
31180SOL    HW295315  14.000  11.501   3.966
31181SOL     OW95316  14.067   2.609   7.355
31181SOL    HW195317  14.162   2.601   7.360
31181SOL    HW295318  14.039   2.618   7.446
31182SOL     OW95319   0.524   4.794  14.420
31182SOL    HW195320   0.465   4.724  14.450
31182SOL    HW295321   0.468   4.852  14.368
31183SOL     OW95322   1.938  14.576   8.634
31183SOL    HW195323   1.958  14.512   8.701
31183SOL    HW295324   1.910  14.525   8.558
31184SOL     OW95325   5.972   3.165   1.253
31184SOL    HW195326   5.995   3.189   1.164
31184SOL    HW295327   6.045   3.197   1.307
31185SOL     OW95328  10.813   3.804   4.412
31185SOL    HW195329  10.730   3.825   4.455
31185SOL    HW295330  10.880   3.823   4.478
31186SOL     OW95331  12.303   5.320   6.308
31186SOL    HW195332  12.303   5.227   6.285
31186SOL    HW295333  12.284   5.321   6.402
31187SOL     OW95334   1.521   9.799  11.225
31187SOL    HW195335   1.450   9.742  11.256
31187SOL    HW295336   1.534   9.862  11.296
31188SOL     OW95337   5.367  13.527   8.042
31188SOL    HW195338   5.368  13.496   8.133
31188SOL    HW295339   5.352  13.448   7.991
31189SOL     OW95340   7.227   7.415   0.751
31189SOL    HW195341   7.312   7.399   0.709
31189SOL    HW295342   7.213   7.509   0.743
31190SOL     OW95343   1.243   8.436   5.258
31190SOL    HW195344   1.309   8.498   5.226
31190SOL    HW295345   1.235   8.455   5.351
31191SOL     OW95346   5.839   5.956   8.826
31191SOL    HW195347   5.876   6.017   8.762
31191SOL    HW295348   5.797   5.889   8.772
31192SOL     OW95349  12.746   9.576   8.968
31192SOL    HW195350  12.726   9.662   9.006
31192SOL    HW295351  12.675   9.519   8.997
31193SOL     OW95352   8.925   1.410   2.091
31193SOL    HW195353   8.919   1.501   2.063
31193SOL    HW295354   8.841   1.371   2.066
31194SOL     OW95355   9.694   1.346   5.756
31194SOL    HW195356   9.703   1.424   5.701
31194SOL    HW295357   9.747   1.365   5.834
31195SOL     OW95358  12.770   3.458   7.949
31195SOL    HW195359  12.853   3.415   7.970
31195SOL    HW295360  12.733   3.406   7.877
31196SOL     OW95361   1.307  14.027   6.736
31196SOL    HW195362   1.346  14.108   6.767
31196SOL    HW295363   1.365  13.997   6.667
31197SOL     OW95364   8.420   3.248  12.881
31197SOL    HW195365   8.353   3.316  12.876
31197SOL    HW295366   8.486   3.275  12.817
31198SOL     OW95367  12.156   9.426   2.734
31198SOL    HW195368  12.092   9.449   2.667
31198SOL    HW295369  12.193   9.509   2.762
31199SOL     OW95370  13.243  12.998   7.766
31199SOL    HW195371  13.219  13.042   7.684
31199SOL    HW295372  13.160  12.966   7.801
31200SOL     OW95373   4.563   0.360   5.989
31200SOL    HW195374   4.483   0.391   5.946
31200SOL    HW295375   4.578   0.273   5.953
31201SOL     OW95376   7.150  10.078   2.150
31201SOL    HW195377   7.138   9.991   2.112
31201SOL    HW295378   7.244  10.085   2.167
31202SOL     OW95379   5.386   4.569  12.973
31202SOL    HW195380   5.450   4.559  13.044
31202SOL    HW295381   5.362   4.662  12.974
31203SOL     OW95382  14.289   8.658   2.153
31203SOL    HW195383  14.259   8.671   2.063
31203SOL    HW295384  14.306   8.746   2.186
31204SOL     OW95385   0.849  12.371   9.726
31204SOL    HW195386   0.822  12.367   9.818
31204SOL    HW295387   0.875  12.462   9.712
31205SOL     OW95388   5.731   5.039  11.241
31205SOL    HW195389   5.809   4.994  11.273
31205SOL    HW295390   5.763   5.091  11.167
31206SOL     OW95391   9.370   8.507   9.149
31206SOL    HW195392   9.415   8.438   9.101
31206SOL    HW295393   9.292   8.465   9.184
31207SOL     OW95394   8.214   7.391   6.555
31207SOL    HW195395   8.200   7.311   6.504
31207SOL    HW295396   8.137   7.445   6.538
31208SOL     OW95397   4.226   6.606   1.820
31208SOL    HW195398   4.134   6.628   1.835
31208SOL    HW295399   4.224   6.545   1.746
31209SOL     OW95400   1.350   2.641  11.316
31209SOL    HW195401   1.257   2.620  11.307
31209SOL    HW295402   1.364   2.714  11.254
31210SOL     OW95403  13.254  12.831   3.049
31210SOL    HW195404  13.267  12.828   2.954
31210SOL    HW295405  13.163  12.806   3.062
31211SOL     OW95406   4.404   6.437  11.477
31211SOL    HW195407   4.429   6.529  11.487
31211SOL    HW295408   4.486   6.392  11.455
31212SOL     OW95409  11.729  11.924   1.460
31212SOL    HW195410  11.635  11.939   1.447
31212SOL    HW295411  11.756  11.873   1.383
31213SOL     OW95412   8.053   6.287   2.192
31213SOL    HW195413   8.101   6.207   2.167
31213SOL    HW295414   7.973   6.284   2.140
31214SOL     OW95415  13.128   5.263   9.111
31214SOL    HW195416  13.097   5.305   9.191
31214SOL    HW295417  13.049   5.245   9.061
31215SOL     OW95418   5.846   7.107   1.071
31215SOL    HW195419   5.941   7.097   1.075
31215SOL    HW295420   5.815   7.087   1.159
31216SOL     OW95421  12.987   0.566   0.151
31216SOL    HW195422  12.896   0.588   0.169
31216SOL    HW295423  12.985   0.523   0.065
31217SOL     OW95424   2.396  13.174   6.305
31217SOL    HW195425   2.345  13.225   6.242
31217SOL    HW295426   2.487  13.202   6.290
31218SOL     OW95427   5.084  12.265   2.654
31218SOL    HW195428   5.169  12.219   2.657
31218SOL    HW295429   5.027  12.211   2.709
31219SOL     OW95430   8.401   4.765   4.021
31219SOL    HW195431   8.406   4.859   4.007
31219SOL    HW295432   8.461   4.749   4.094
31220SOL     OW95433  13.767   2.312  12.694
31220SOL    HW195434  13.816   2.302  12.612
31220SOL    HW295435  13.731   2.225  12.712
31221SOL     OW95436  12.101  12.386   8.712
31221SOL    HW195437  12.099  12.296   8.747
31221SOL    HW295438  12.069  12.377   8.623
31222SOL     OW95439   8.753   6.325   7.343
31222SOL    HW195440   8.780   6.257   7.282
31222SOL    HW295441   8.749   6.404   7.290
31223SOL     OW95442  11.341   3.221   6.025
31223SOL    HW195443  11.252   3.186   6.018
31223SOL    HW295444  11.380   3.207   5.939
31224SOL     OW95445   8.484   4.278  11.105
31224SOL    HW195446   8.473   4.248  11.015
31224SOL    HW295447   8.532   4.208  11.148
31225SOL     OW95448   7.108  10.751  13.198
31225SOL    HW195449   7.033  10.727  13.143
31225SOL    HW295450   7.088  10.715  13.284
31226SOL     OW95451   5.325   7.784   8.505
31226SOL    HW195452   5.340   7.786   8.599
31226SOL    HW295453   5.270   7.860   8.488
31227SOL     OW95454  12.772   2.678   2.615
31227SOL    HW195455  12.864   2.667   2.639
31227SOL    HW295456  12.769   2.762   2.569
31228SOL     OW95457   8.997   4.770  11.593
31228SOL    HW195458   8.990   4.742  11.685
31228SOL    HW295459   9.045   4.698  11.551
31229SOL     OW95460  14.326   8.545  10.441
31229SOL    HW195461  14.274   8.473  10.405
31229SOL    HW295462  14.326   8.530  10.536
31230SOL     OW95463   9.084  13.485   3.130
31230SOL    HW195464   9.067  13.471   3.036
31230SOL    HW295465   9.002  13.519   3.165
31231SOL     OW95466   6.089   9.889  10.832
31231SOL    HW195467   6.071   9.868  10.740
31231SOL    HW295468   6.175   9.933  10.829
31232SOL     OW95469   8.888   8.710   8.617
31232SOL    HW195470   8.819   8.653   8.583
31232SOL    HW295471   8.841   8.788   8.648
31233SOL     OW95472   7.653   9.813   4.098
31233SOL    HW195473   7.746   9.834   4.092
31233SOL    HW295474   7.649   9.740   4.160
31234SOL     OW95475   4.070   8.431   9.054
31234SOL    HW195476   4.116   8.465   8.978
31234SOL    HW295477   4.084   8.497   9.122
31235SOL     OW95478   7.748   8.445   5.447
31235SOL    HW195479   7.681   8.436   5.379
31235SOL    HW295480   7.718   8.518   5.500
31236SOL     OW95481   6.038  14.235   7.506
31236SOL    HW195482   5.951  14.205   7.481
31236SOL    HW295483   6.023  14.321   7.547
31237SOL     OW95484   6.220  14.507  14.457
31237SOL    HW195485   6.274  14.438  14.418
31237SOL    HW295486   6.245  14.587  14.411
31238SOL     OW95487  11.503  11.185   8.168
31238SOL    HW195488  11.437  11.171   8.236
31238SOL    HW295489  11.455  11.224   8.095
31239SOL     OW95490  12.592  14.589   2.857
31239SOL    HW195491  12.500  14.563   2.855
31239SOL    HW295492  12.600  14.644   2.935
31240SOL     OW95493   6.620   5.189  10.038
31240SOL    HW195494   6.694   5.128  10.039
31240SOL    HW295495   6.546   5.138  10.070
31241SOL     OW95496   8.084   8.827  13.872
31241SOL    HW195497   8.112   8.738  13.892
31241SOL    HW295498   8.099   8.836  13.778
31242SOL     OW95499   8.132   3.299   1.929
31242SOL    HW195500   8.210   3.276   1.878
31242SOL    HW295501   8.126   3.230   1.996
31243SOL     OW95502   6.157   3.483   3.356
31243SOL    HW195503   6.140   3.495   3.449
31243SOL    HW295504   6.246   3.448   3.353
31244SOL     OW95505   2.511  11.707   7.525
31244SOL    HW195506   2.417  11.692   7.533
31244SOL    HW295507   2.547  11.680   7.610
31245SOL     OW95508   1.224   8.088   2.954
31245SOL    HW195509   1.197   8.122   2.868
31245SOL    HW295510   1.197   8.156   3.016
31246SOL     OW95511   4.385   5.058   0.490
31246SOL    HW195512   4.474   5.046   0.456
31246SOL    HW295513   4.395   5.120   0.562
31247SOL     OW95514   6.156  14.833   3.132
31247SOL    HW195515   6.197   0.036   3.114
31247SOL    HW295516   6.062  14.852   3.136
31248SOL     OW95517   7.803   8.974   9.286
31248SOL    HW195518   7.789   8.903   9.349
31248SOL    HW295519   7.866   8.938   9.223
31249SOL     OW95520  10.530  12.280   3.585
31249SOL    HW195521  10.561  12.368   3.606
31249SOL    HW295522  10.609  12.226   3.589
31250SOL     OW95523   3.741  14.608  10.892
31250SOL    HW195524   3.777  14.644  10.974
31250SOL    HW295525   3.762  14.674  10.826
31251SOL     OW95526  12.656  11.727   5.729
31251SOL    HW195527  12.716  11.783   5.680
31251SOL    HW295528  12.652  11.766   5.816
31252SOL     OW95529   2.231   6.657  11.696
31252SOL    HW195530   2.188   6.743  11.697
31252SOL    HW295531   2.317   6.673  11.657
31253SOL     OW95532   9.427  10.651   8.196
31253SOL    HW195533   9.438  10.730   8.142
31253SOL    HW295534   9.391  10.586   8.135
31254SOL     OW95535   5.322  12.388   5.804
31254SOL    HW195536   5.350  12.300   5.780
31254SOL    HW295537   5.230  12.391   5.778
31255SOL     OW95538   1.162  14.873   6.395
31255SOL    HW195539   1.236  14.830   6.438
31255SOL    HW295540   1.202   0.066   6.349
31256SOL     OW95541  11.380  11.091   7.311
31256SOL    HW195542  11.436  11.157   7.352
31256SOL    HW295543  11.291  11.122   7.328
31257SOL     OW95544  10.780   9.382   1.023
31257SOL    HW195545  10.729   9.432   0.959
31257SOL    HW295546  10.794   9.297   0.981
31258SOL     OW95547   5.665  13.566   9.874
31258SOL    HW195548   5.735  13.535   9.933
31258SOL    HW295549   5.584  13.540   9.918
31259SOL     OW95550   9.372   1.177   0.914
31259SOL    HW195551   9.429   1.248   0.883
31259SOL    HW295552   9.348   1.203   1.003
31260SOL     OW95553   3.966   9.858  11.646
31260SOL    HW195554   4.052   9.838  11.610
31260SOL    HW295555   3.981   9.867  11.740
31261SOL     OW95556  12.081   8.197   3.240
31261SOL    HW195557  12.047   8.270   3.291
31261SOL    HW295558  12.172   8.188   3.268
31262SOL     OW95559   8.635  11.266   5.465
31262SOL    HW195560   8.622  11.350   5.510
31262SOL    HW295561   8.678  11.210   5.530
31263SOL     OW95562   4.660   1.366   6.413
31263SOL    HW195563   4.712   1.332   6.486
31263SOL    HW295564   4.572   1.334   6.429
31264SOL     OW95565   9.545   4.564   9.848
31264SOL    HW195566   9.485   4.503   9.893
31264SOL    HW295567   9.631   4.523   9.858
31265SOL     OW95568  10.489   3.253  13.223
31265SOL    HW195569  10.418   3.222  13.167
31265SOL    HW295570  10.567   3.251  13.167
31266SOL     OW95571   7.541   5.447   1.864
31266SOL    HW195572   7.561   5.356   1.840
31266SOL    HW295573   7.616   5.497   1.832
31267SOL     OW95574   4.447  13.089   3.487
31267SOL    HW195575   4.368  13.143   3.485
31267SOL    HW295576   4.487  13.102   3.401
31268SOL     OW95577   4.469   2.940   2.179
31268SOL    HW195578   4.546   2.896   2.215
31268SOL    HW295579   4.413   2.957   2.255
31269SOL     OW95580   1.395   6.913  13.850
31269SOL    HW195581   1.300   6.921  13.842
31269SOL    HW295582   1.412   6.928  13.943
31270SOL     OW95583   9.750   6.390   0.727
31270SOL    HW195584   9.718   6.457   0.787
31270SOL    HW295585   9.745   6.430   0.641
31271SOL     OW95586   7.277   1.487   3.519
31271SOL    HW195587   7.362   1.478   3.560
31271SOL    HW295588   7.293   1.539   3.440
31272SOL     OW95589   3.221   8.246   7.558
31272SOL    HW195590   3.271   8.185   7.503
31272SOL    HW295591   3.130   8.232   7.532
31273SOL     OW95592  14.567   1.168  11.378
31273SOL    HW195593  14.544   1.260  11.390
31273SOL    HW295594  14.548   1.127  11.463
31274SOL     OW95595  13.036  10.232   5.407
31274SOL    HW195596  13.003  10.199   5.491
31274SOL    HW295597  12.993  10.317   5.396
31275SOL     OW95598   4.181   3.048   1.903
31275SOL    HW195599   4.232   2.971   1.878
31275SOL    HW295600   4.134   3.073   1.823
31276SOL     OW95601   2.005  11.750  12.808
31276SOL    HW195602   2.005  11.657  12.831
31276SOL    HW295603   1.916  11.769  12.781
31277SOL     OW95604   3.238   9.048  10.210
31277SOL    HW195605   3.251   9.127  10.263
31277SOL    HW295606   3.326   9.022  10.184
31278SOL     OW95607   8.676   3.068   9.712
31278SOL    HW195608   8.732   3.056   9.789
31278SOL    HW295609   8.643   3.158   9.720
31279SOL     OW95610   9.594   1.583   2.584
31279SOL    HW195611   9.547   1.614   2.662
31279SOL    HW295612   9.670   1.640   2.578
31280SOL     OW95613   3.042  11.694  11.608
31280SOL    HW195614   3.105  11.645  11.660
31280SOL    HW295615   2.987  11.738  11.672
31281SOL     OW95616   0.917   8.604   1.608
31281SOL    HW195617   0.862   8.570   1.679
31281SOL    HW295618   0.937   8.694   1.634
31282SOL     OW95619   8.734  11.977  11.663
31282SOL    HW195620   8.799  11.928  11.713
31282SOL    HW295621   8.750  12.068  11.687
31283SOL     OW95622  11.851  14.408  13.951
31283SOL    HW195623  11.805  14.462  14.014
31283SOL    HW295624  11.818  14.319  13.967
31284SOL     OW95625  10.243  12.353   3.531
31284SOL    HW195626  10.195  12.270   3.523
31284SOL    HW295627  10.335  12.328   3.528
31285SOL     OW95628   3.026   6.711   6.003
31285SOL    HW195629   3.012   6.776   5.935
31285SOL    HW295630   3.119   6.688   5.996
31286SOL     OW95631  12.589   2.858  14.658
31286SOL    HW195632  12.529   2.929  14.679
31286SOL    HW295633  12.581   2.797  14.731
31287SOL     OW95634   1.782   8.680   9.238
31287SOL    HW195635   1.775   8.611   9.172
31287SOL    HW295636   1.788   8.761   9.188
31288SOL     OW95637  12.006   5.625   8.945
31288SOL    HW195638  12.082   5.683   8.940
31288SOL    HW295639  12.040   5.543   8.980
31289SOL     OW95640  13.230  10.292  10.133
31289SOL    HW195641  13.215  10.256  10.046
31289SOL    HW295642  13.145  10.330  10.158
31290SOL     OW95643   8.237  14.314   8.374
31290SOL    HW195644   8.299  14.296   8.444
31290SOL    HW295645   8.227  14.409   8.374
31291SOL     OW95646   4.518   3.803   3.352
31291SOL    HW195647   4.496   3.839   3.265
31291SOL    HW295648   4.593   3.746   3.336
31292SOL     OW95649  11.517  12.305  10.911
31292SOL    HW195650  11.451  12.237  10.900
31292SOL    HW295651  11.492  12.374  10.849
31293SOL     OW95652   1.675   9.662   5.889
31293SOL    HW195653   1.684   9.591   5.953
31293SOL    HW295654   1.732   9.636   5.817
31294SOL     OW95655   4.138  10.880  11.236
31294SOL    HW195656   4.149  10.865  11.143
31294SOL    HW295657   4.150  10.975  11.247
31295SOL     OW95658   3.155   6.017   5.984
31295SOL    HW195659   3.127   6.055   6.067
31295SOL    HW295660   3.220   6.078   5.950
31296SOL     OW95661   4.855   1.840  10.649
31296SOL    HW195662   4.834   1.914  10.592
31296SOL    HW295663   4.860   1.765  10.590
31297SOL     OW95664  12.513   9.267   3.731
31297SOL    HW195665  12.509   9.178   3.695
31297SOL    HW295666  12.428   9.280   3.773
31298SOL     OW95667  12.904   9.714  11.284
31298SOL    HW195668  12.868   9.747  11.201
31298SOL    HW295669  12.961   9.642  11.259
31299SOL     OW95670  11.380   2.747   3.888
31299SOL    HW195671  11.453   2.752   3.826
31299SOL    HW295672  11.303   2.772   3.836
31300SOL     OW95673   9.865   5.256  14.449
31300SOL    HW195674   9.850   5.165  14.422
31300SOL    HW295675   9.810   5.308  14.391
31301SOL     OW95676   8.256  12.826  14.774
31301SOL    HW195677   8.171  12.789  14.800
31301SOL    HW295678   8.297  12.854  14.855
31302SOL     OW95679   7.371   8.143  12.772
31302SOL    HW195680   7.424   8.065  12.758
31302SOL    HW295681   7.407   8.208  12.711
31303SOL     OW95682   7.462   9.728   1.114
31303SOL    HW195683   7.417   9.781   1.049
31303SOL    HW295684   7.393   9.674   1.153
31304SOL     OW95685   7.246   2.195   7.737
31304SOL    HW195686   7.282   2.230   7.818
31304SOL    HW295687   7.310   2.129   7.709
31305SOL     OW95688   6.238   2.787  14.702
31305SOL    HW195689   6.200   2.735  14.631
31305SOL    HW295690   6.174   2.781  14.773
31306SOL     OW95691   4.907  11.917   8.508
31306SOL    HW195692   4.815  11.943   8.499
31306SOL    HW295693   4.904  11.824   8.528
31307SOL     OW95694   0.182   9.172  13.188
31307SOL    HW195695   0.153   9.112  13.257
31307SOL    HW295696   0.232   9.239  13.234
31308SOL     OW95697   7.345   6.041  10.006
31308SOL    HW195698   7.294   6.115  10.039
31308SOL    HW295699   7.326   6.038   9.913
31309SOL     OW95700  12.440  14.669   9.078
31309SOL    HW195701  12.487  14.751   9.093
31309SOL    HW295702  12.505  14.612   9.036
31310SOL     OW95703   7.613  10.481   2.538
31310SOL    HW195704   7.667  10.448   2.466
31310SOL    HW295705   7.646  10.436   2.616
31311SOL     OW95706   1.324  14.774  13.368
31311SOL    HW195707   1.390  14.718  13.410
31311SOL    HW295708   1.243  14.754  13.415
31312SOL     OW95709   0.994  13.694   6.417
31312SOL    HW195710   1.019  13.655   6.500
31312SOL    HW295711   0.904  13.723   6.430
31313SOL     OW95712   1.474   1.478   2.666
31313SOL    HW195713   1.465   1.483   2.571
31313SOL    HW295714   1.443   1.563   2.698
31314SOL     OW95715   6.598  12.835   5.529
31314SOL    HW195716   6.622  12.783   5.606
31314SOL    HW295717   6.577  12.770   5.462
31315SOL     OW95718  13.028   2.661   6.415
31315SOL    HW195719  13.036   2.685   6.323
31315SOL    HW295720  12.934   2.653   6.430
31316SOL     OW95721   7.792  11.543   7.158
31316SOL    HW195722   7.743  11.508   7.084
31316SOL    HW295723   7.809  11.467   7.214
31317SOL     OW95724   9.414  10.258  12.866
31317SOL    HW195725   9.354  10.289  12.799
31317SOL    HW295726   9.490  10.226  12.818
31318SOL     OW95727  12.166   0.172  13.528
31318SOL    HW195728  12.126   0.239  13.473
31318SOL    HW295729  12.177   0.097  13.470
31319SOL     OW95730   1.014  14.062   2.612
31319SOL    HW195731   0.996  13.987   2.668
31319SOL    HW295732   0.993  14.139   2.666
31320SOL     OW95733  13.088   5.895   8.656
31320SOL    HW195734  13.121   5.972   8.609
31320SOL    HW295735  13.116   5.909   8.746
31321SOL     OW95736   3.435  13.781   9.716
31321SOL    HW195737   3.510  13.726   9.740
31321SOL    HW295738   3.401  13.814   9.799
31322SOL     OW95739   0.838   2.531  14.130
31322SOL    HW195740   0.818   2.611  14.081
31322SOL    HW295741   0.752   2.491  14.147
31323SOL     OW95742  12.792   4.347   6.579
31323SOL    HW195743  12.883   4.318   6.587
31323SOL    HW295744  12.752   4.284   6.519
31324SOL     OW95745   2.079   4.443   2.989
31324SOL    HW195746   2.169   4.412   2.978
31324SOL    HW295747   2.029   4.401   2.920
31325SOL     OW95748  13.005   9.518  12.106
31325SOL    HW195749  13.040   9.538  12.193
31325SOL    HW295750  13.076   9.539  12.045
31326SOL     OW95751   4.736  14.350   4.938
31326SOL    HW195752   4.781  14.304   5.008
31326SOL    HW295753   4.645  14.359   4.969
31327SOL     OW95754   8.214   7.334   5.583
31327SOL    HW195755   8.234   7.311   5.492
31327SOL    HW295756   8.202   7.429   5.581
31328SOL     OW95757   1.272  11.593   2.865
31328SOL    HW195758   1.215  11.615   2.938
31328SOL    HW295759   1.219  11.534   2.810
31329SOL     OW95760   2.581  12.486  14.571
31329SOL    HW195761   2.503  12.462  14.620
31329SOL    HW295762   2.631  12.405  14.563
31330SOL     OW95763   3.983  13.056   3.477
31330SOL    HW195764   4.026  13.040   3.394
31330SOL    HW295765   3.907  13.110   3.455
31331SOL     OW95766  13.428   3.793   9.055
31331SOL    HW195767  13.372   3.717   9.037
31331SOL    HW295768  13.516   3.756   9.065
31332SOL     OW95769   2.230   7.740  14.305
31332SOL    HW195770   2.152   7.708  14.258
31332SOL    HW295771   2.244   7.828  14.271
31333SOL     OW95772  12.192   0.024   6.607
31333SOL    HW195773  12.212  14.880   6.698
31333SOL    HW295774  12.228   0.112   6.599
31334SOL     OW95775   7.286   9.342   1.291
31334SOL    HW195776   7.244   9.420   1.254
31334SOL    HW295777   7.246   9.269   1.244
31335SOL     OW95778  12.242   5.431   8.736
31335SOL    HW195779  12.149   5.413   8.745
31335SOL    HW295780  12.247   5.526   8.724
31336SOL     OW95781   2.652   6.002   0.618
31336SOL    HW195782   2.721   5.989   0.553
31336SOL    HW295783   2.570   5.991   0.568
31337SOL     OW95784   1.003  10.675  11.147
31337SOL    HW195785   1.007  10.770  11.153
31337SOL    HW295786   0.957  10.658  11.064
31338SOL     OW95787   3.061   8.123  10.542
31338SOL    HW195788   3.057   8.043  10.594
31338SOL    HW295789   2.971   8.138  10.514
31339SOL     OW95790   7.025   3.181  14.573
31339SOL    HW195791   7.109   3.187  14.620
31339SOL    HW295792   7.050   3.167  14.482
31340SOL     OW95793   3.368  14.614   8.256
31340SOL    HW195794   3.439  14.550   8.263
31340SOL    HW295795   3.404  14.693   8.297
31341SOL     OW95796   6.038  12.923   9.178
31341SOL    HW195797   6.108  12.867   9.144
31341SOL    HW295798   6.055  12.927   9.272
31342SOL     OW95799  11.726   1.541  13.834
31342SOL    HW195800  11.737   1.452  13.867
31342SOL    HW295801  11.807   1.586  13.858
31343SOL     OW95802   3.613  14.818   5.468
31343SOL    HW195803   3.522  14.813   5.500
31343SOL    HW295804   3.663  14.768   5.533
31344SOL     OW95805   0.353  10.508   4.309
31344SOL    HW195806   0.258  10.517   4.300
31344SOL    HW295807   0.370  10.536   4.399
31345SOL     OW95808   1.999   6.758   2.683
31345SOL    HW195809   1.950   6.834   2.654
31345SOL    HW295810   2.085   6.793   2.707
31346SOL     OW95811  10.931   7.680  13.378
31346SOL    HW195812  10.850   7.731  13.369
31346SOL    HW295813  10.931   7.621  13.303
31347SOL     OW95814   5.578   9.828   0.440
31347SOL    HW195815   5.484   9.816   0.458
31347SOL    HW295816   5.603   9.750   0.392
31348SOL     OW95817   7.758   0.916   8.655
31348SOL    HW195818   7.827   0.881   8.712
31348SOL    HW295819   7.696   0.958   8.716
31349SOL     OW95820   9.477   0.239   8.290
31349SOL    HW195821   9.446   0.240   8.199
31349SOL    HW295822   9.420   0.176   8.333
31350SOL     OW95823   2.989   8.820   7.272
31350SOL    HW195824   2.961   8.734   7.240
31350SOL    HW295825   3.084   8.810   7.286
31351SOL     OW95826  14.611   6.842  11.215
31351SOL    HW195827  14.610   6.792  11.134
31351SOL    HW295828  14.666   6.790  11.275
31352SOL     OW95829   4.849   5.211  14.767
31352SOL    HW195830   4.888   5.197  14.853
31352SOL    HW295831   4.836   5.123  14.732
31353SOL     OW95832   3.408   4.348   9.334
31353SOL    HW195833   3.431   4.269   9.286
31353SOL    HW295834   3.356   4.317   9.408
31354SOL     OW95835   5.541   9.482   1.673
31354SOL    HW195836   5.480   9.408   1.666
31354SOL    HW295837   5.535   9.508   1.765
31355SOL     OW95838  11.330   3.388   8.131
31355SOL    HW195839  11.290   3.474   8.141
31355SOL    HW295840  11.369   3.389   8.043
31356SOL     OW95841   7.456   3.151   0.565
31356SOL    HW195842   7.408   3.144   0.482
31356SOL    HW295843   7.403   3.101   0.627
31357SOL     OW95844   2.843   1.981  10.915
31357SOL    HW195845   2.862   2.062  10.962
31357SOL    HW295846   2.929   1.946  10.890
31358SOL     OW95847   9.517  14.666   7.465
31358SOL    HW195848   9.598  14.693   7.422
31358SOL    HW295849   9.475  14.748   7.492
31359SOL     OW95850   9.893   9.794   1.900
31359SOL    HW195851   9.941   9.872   1.926
31359SOL    HW295852   9.927   9.773   1.813
31360SOL     OW95853  10.212  11.584   2.671
31360SOL    HW195854  10.117  11.573   2.664
31360SOL    HW295855  10.240  11.607   2.582
31361SOL     OW95856   1.530   7.384   2.825
31361SOL    HW195857   1.462   7.362   2.761
31361SOL    HW295858   1.484   7.433   2.893
31362SOL     OW95859  13.869   5.473   7.043
31362SOL    HW195860  13.890   5.534   6.972
31362SOL    HW295861  13.931   5.401   7.033
31363SOL     OW95862   9.565   8.757  11.836
31363SOL    HW195863   9.534   8.691  11.898
31363SOL    HW295864   9.504   8.753  11.763
31364SOL     OW95865   3.950  10.072  13.015
31364SOL    HW195866   3.978  10.047  13.103
31364SOL    HW295867   3.860  10.040  13.008
31365SOL     OW95868   5.690  13.683   0.074
31365SOL    HW195869   5.705  13.712  14.865
31365SOL    HW295870   5.719  13.757   0.128
31366SOL     OW95871   3.373   6.238   5.967
31366SOL    HW195872   3.349   6.282   5.886
31366SOL    HW295873   3.372   6.307   6.033
31367SOL     OW95874  14.150   6.416  11.448
31367SOL    HW195875  14.179   6.325  11.443
31367SOL    HW295876  14.174   6.444  11.537
31368SOL     OW95877  12.229   8.438  13.707
31368SOL    HW195878  12.226   8.485  13.623
31368SOL    HW295879  12.294   8.369  13.694
31369SOL     OW95880  13.396  13.286  12.317
31369SOL    HW195881  13.443  13.285  12.234
31369SOL    HW295882  13.334  13.359  12.309
31370SOL     OW95883   0.512   8.858   0.682
31370SOL    HW195884   0.535   8.766   0.689
31370SOL    HW295885   0.580   8.904   0.731
31371SOL     OW95886   1.244  11.487  14.660
31371SOL    HW195887   1.173  11.446  14.611
31371SOL    HW295888   1.201  11.526  14.736
31372SOL     OW95889   4.462  12.788   2.718
31372SOL    HW195890   4.484  12.747   2.634
31372SOL    HW295891   4.521  12.863   2.724
31373SOL     OW95892  11.819   2.293   1.654
31373SOL    HW195893  11.794   2.256   1.739
31373SOL    HW295894  11.914   2.304   1.660
31374SOL     OW95895   4.330   0.841   1.673
31374SOL    HW195896   4.408   0.892   1.649
31374SOL    HW295897   4.280   0.899   1.731
31375SOL     OW95898   5.411  14.378   2.908
31375SOL    HW195899   5.401  14.296   2.955
31375SOL    HW295900   5.345  14.374   2.838
31376SOL     OW95901   2.580  12.298  13.739
31376SOL    HW195902   2.676  12.297  13.739
31376SOL    HW295903   2.557  12.346  13.660
31377SOL     OW95904   5.979   1.414  14.756
31377SOL    HW195905   6.072   1.397  14.764
31377SOL    HW295906   5.946   1.340  14.704
31378SOL     OW95907   4.288   8.661  13.646
31378SOL    HW195908   4.243   8.670  13.730
31378SOL    HW295909   4.242   8.720  13.587
31379SOL     OW95910  13.219   1.295   7.361
31379SOL    HW195911  13.275   1.325   7.289
31379SOL    HW295912  13.280   1.276   7.432
31380SOL     OW95913  13.259   3.333   7.805
31380SOL    HW195914  13.229   3.274   7.736
31380SOL    HW295915  13.207   3.412   7.793
31381SOL     OW95916   1.439  11.801  10.032
31381SOL    HW195917   1.499  11.731  10.006
31381SOL    HW295918   1.441  11.863   9.959
31382SOL     OW95919  12.210  10.493   8.325
31382SOL    HW195920  12.240  10.575   8.364
31382SOL    HW295921  12.247  10.424   8.380
31383SOL     OW95922  11.140  13.489  10.071
31383SOL    HW195923  11.135  13.495   9.976
31383SOL    HW295924  11.221  13.440  10.087
31384SOL     OW95925  10.119  11.052   9.653
31384SOL    HW195926  10.079  11.046   9.740
31384SOL    HW295927  10.058  11.006   9.595
31385SOL     OW95928   7.654   9.926  10.448
31385SOL    HW195929   7.705   9.865  10.501
31385SOL    HW295930   7.564   9.912  10.476
31386SOL     OW95931   1.962  11.950   8.477
31386SOL    HW195932   1.967  11.950   8.381
31386SOL    HW295933   2.014  11.874   8.504
31387SOL     OW95934  11.854  11.328  13.678
31387SOL    HW195935  11.858  11.237  13.706
31387SOL    HW295936  11.836  11.323  13.584
31388SOL     OW95937   8.617  11.043   9.654
31388SOL    HW195938   8.628  10.984   9.729
31388SOL    HW295939   8.624  10.986   9.578
31389SOL     OW95940   5.789   4.213  12.909
31389SOL    HW195941   5.781   4.206  12.814
31389SOL    HW295942   5.875   4.252  12.923
31390SOL     OW95943  13.066   9.265  12.469
31390SOL    HW195944  13.104   9.191  12.422
31390SOL    HW295945  12.984   9.283  12.424
31391SOL     OW95946   0.384   8.055   7.229
31391SOL    HW195947   0.320   8.113   7.188
31391SOL    HW295948   0.365   7.969   7.190
31392SOL     OW95949   3.609  12.402  13.454
31392SOL    HW195950   3.675  12.375  13.390
31392SOL    HW295951   3.644  12.482  13.492
31393SOL     OW95952  10.999   2.485  11.409
31393SOL    HW195953  11.039   2.533  11.337
31393SOL    HW295954  11.060   2.413  11.427
31394SOL     OW95955   0.188   2.805  13.533
31394SOL    HW195956   0.269   2.856  13.536
31394SOL    HW295957   0.182   2.765  13.620
31395SOL     OW95958   4.142   0.978   4.500
31395SOL    HW195959   4.189   0.944   4.424
31395SOL    HW295960   4.182   0.932   4.575
31396SOL     OW95961  13.896   5.978  11.719
31396SOL    HW195962  13.819   5.982  11.775
31396SOL    HW295963  13.954   5.914  11.762
31397SOL     OW95964   6.581   9.780  10.622
31397SOL    HW195965   6.637   9.781  10.700
31397SOL    HW295966   6.569   9.873  10.600
31398SOL     OW95967   8.144   1.652  11.737
31398SOL    HW195968   8.176   1.727  11.788
31398SOL    HW295969   8.205   1.646  11.664
31399SOL     OW95970   6.006  14.533   2.748
31399SOL    HW195971   5.920  14.519   2.788
31399SOL    HW295972   6.058  14.574   2.817
31400SOL     OW95973  12.033   2.387   5.367
31400SOL    HW195974  12.107   2.437   5.401
31400SOL    HW295975  12.028   2.411   5.274
31401SOL     OW95976   4.879  14.446   4.032
31401SOL    HW195977   4.893  14.379   3.965
31401SOL    HW295978   4.864  14.396   4.112
31402SOL     OW95979   3.802   1.824  13.109
31402SOL    HW195980   3.898   1.828  13.101
31402SOL    HW295981   3.783   1.730  13.118
31403SOL     OW95982   7.588   8.365   4.102
31403SOL    HW195983   7.602   8.290   4.160
31403SOL    HW295984   7.542   8.429   4.157
31404SOL     OW95985  10.333   8.926   9.768
31404SOL    HW195986  10.291   8.896   9.849
31404SOL    HW295987  10.333   9.022   9.776
31405SOL     OW95988  11.754   8.780   6.511
31405SOL    HW195989  11.771   8.770   6.605
31405SOL    HW295990  11.659   8.781   6.503
31406SOL     OW95991  10.223   1.464   9.302
31406SOL    HW195992  10.229   1.464   9.207
31406SOL    HW295993  10.261   1.547   9.330
31407SOL     OW95994   1.940   0.904  14.435
31407SOL    HW195995   1.971   0.980  14.385
31407SOL    HW295996   2.015   0.880  14.489
31408SOL     OW95997   2.627   6.194  13.642
31408SOL    HW195998   2.575   6.229  13.569
31408SOL    HW295999   2.614   6.257  13.713
31409SOL     OW96000   9.966   7.286  10.001
31409SOL    HW196001   9.895   7.237   9.959
31409SOL    HW296002   9.928   7.321  10.081
31410SOL     OW96003   2.457  14.624  11.128
31410SOL    HW196004   2.396  14.554  11.152
31410SOL    HW296005   2.402  14.702  11.120
31411SOL     OW96006  13.041  14.622  13.516
31411SOL    HW196007  13.088  14.539  13.522
31411SOL    HW296008  12.949  14.598  13.527
31412SOL     OW96009   5.527  14.048   1.777
31412SOL    HW196010   5.577  14.130   1.773
31412SOL    HW296011   5.590  13.983   1.807
31413SOL     OW96012  13.880  14.487  11.267
31413SOL    HW196013  13.966  14.527  11.258
31413SOL    HW296014  13.853  14.467  11.178
31414SOL     OW96015  10.683   0.734  13.711
31414SOL    HW196016  10.589   0.751  13.708
31414SOL    HW296017  10.695   0.655  13.659
31415SOL     OW96018  12.576   5.748   0.104
31415SOL    HW196019  12.664   5.777   0.129
31415SOL    HW296020  12.518   5.810   0.148
31416SOL     OW96021   4.863   3.808  11.903
31416SOL    HW196022   4.786   3.751  11.898
31416SOL    HW296023   4.938   3.748  11.898
31417SOL     OW96024   3.873   4.006   9.598
31417SOL    HW196025   3.840   4.063   9.667
31417SOL    HW296026   3.863   4.056   9.517
31418SOL     OW96027  12.417   0.767   7.092
31418SOL    HW196028  12.427   0.862   7.096
31418SOL    HW296029  12.497   0.736   7.048
31419SOL     OW96030   3.650   1.832   7.334
31419SOL    HW196031   3.690   1.779   7.265
31419SOL    HW296032   3.666   1.783   7.414
31420SOL     OW96033   9.109  10.873  14.034
31420SOL    HW196034   9.180  10.937  14.047
31420SOL    HW296035   9.032  10.927  14.016
31421SOL     OW96036   0.825   8.431   9.082
31421SOL    HW196037   0.770   8.481   9.022
31421SOL    HW296038   0.862   8.361   9.029
31422SOL     OW96039  14.223   7.194   0.104
31422SOL    HW196040  14.162   7.258   0.141
31422SOL    HW296041  14.279   7.170   0.177
31423SOL     OW96042   4.113   0.154   8.599
31423SOL    HW196043   4.110   0.062   8.625
31423SOL    HW296044   4.182   0.192   8.652
31424SOL     OW96045  10.978   0.700  12.222
31424SOL    HW196046  10.962   0.606  12.212
31424SOL    HW296047  11.046   0.720  12.159
31425SOL     OW96048  13.699   6.911  14.124
31425SOL    HW196049  13.683   6.919  14.218
31425SOL    HW296050  13.794   6.914  14.115
31426SOL     OW96051   3.949   0.726   7.102
31426SOL    HW196052   3.862   0.692   7.080
31426SOL    HW296053   3.996   0.649   7.136
31427SOL     OW96054   0.627  10.134   3.196
31427SOL    HW196055   0.590  10.222   3.201
31427SOL    HW296056   0.562  10.078   3.238
31428SOL     OW96057   2.654  11.545   2.595
31428SOL    HW196058   2.603  11.474   2.555
31428SOL    HW296059   2.608  11.625   2.571
31429SOL     OW96060   8.914   0.461   9.827
31429SOL    HW196061   8.974   0.521   9.783
31429SOL    HW296062   8.961   0.436   9.907
31430SOL     OW96063  10.492   7.626  13.353
31430SOL    HW196064  10.557   7.625  13.423
31430SOL    HW296065  10.528   7.686  13.288
31431SOL     OW96066  13.860   4.803   2.545
31431SOL    HW196067  13.812   4.840   2.470
31431SOL    HW296068  13.923   4.742   2.505
31432SOL     OW96069   7.086  12.409  14.101
31432SOL    HW196070   7.067  12.359  14.021
31432SOL    HW296071   7.016  12.385  14.161
31433SOL     OW96072   4.607   6.673   2.610
31433SOL    HW196073   4.550   6.734   2.657
31433SOL    HW296074   4.635   6.611   2.677
31434SOL     OW96075   0.325   2.092   5.697
31434SOL    HW196076   0.410   2.120   5.732
31434SOL    HW296077   0.279   2.056   5.772
31435SOL     OW96078   8.959   2.484  11.737
31435SOL    HW196079   8.925   2.439  11.814
31435SOL    HW296080   8.955   2.577  11.759
31436SOL     OW96081  13.385   8.814   1.727
31436SOL    HW196082  13.315   8.877   1.741
31436SOL    HW296083  13.375   8.787   1.636
31437SOL     OW96084   9.291  11.017   0.901
31437SOL    HW196085   9.204  11.056   0.900
31437SOL    HW296086   9.277  10.928   0.935
31438SOL     OW96087  12.629  10.886   7.508
31438SOL    HW196088  12.563  10.871   7.440
31438SOL    HW296089  12.713  10.872   7.464
31439SOL     OW96090   3.116   1.229  11.193
31439SOL    HW196091   3.210   1.214  11.198
31439SOL    HW296092   3.079   1.170  11.259
31440SOL     OW96093   9.698   3.302   6.296
31440SOL    HW196094   9.636   3.237   6.263
31440SOL    HW296095   9.751   3.254   6.360
31441SOL     OW96096   8.416   4.283   5.113
31441SOL    HW196097   8.329   4.270   5.076
31441SOL    HW296098   8.459   4.198   5.104
31442SOL     OW96099  11.537   7.966   1.974
31442SOL    HW196100  11.470   7.978   2.040
31442SOL    HW296101  11.570   7.877   1.988
31443SOL     OW96102   3.473   2.512   2.818
31443SOL    HW196103   3.513   2.445   2.762
31443SOL    HW296104   3.541   2.580   2.826
31444SOL     OW96105   4.784  12.326   3.580
31444SOL    HW196106   4.754  12.332   3.489
31444SOL    HW296107   4.722  12.379   3.629
31445SOL     OW96108   9.156   4.612   6.833
31445SOL    HW196109   9.209   4.639   6.908
31445SOL    HW296110   9.111   4.533   6.864
31446SOL     OW96111   3.515   1.817   5.297
31446SOL    HW196112   3.548   1.732   5.268
31446SOL    HW296113   3.592   1.862   5.331
31447SOL     OW96114   8.088   2.645   9.874
31447SOL    HW196115   8.105   2.738   9.864
31447SOL    HW296116   8.140   2.604   9.805
31448SOL     OW96117   3.799  10.688   3.623
31448SOL    HW196118   3.704  10.682   3.631
31448SOL    HW296119   3.815  10.714   3.532
31449SOL     OW96120   8.564   8.639   7.976
31449SOL    HW196121   8.649   8.677   7.957
31449SOL    HW296122   8.502   8.712   7.967
31450SOL     OW96123   6.409   0.411   2.220
31450SOL    HW196124   6.314   0.423   2.214
31450SOL    HW296125   6.438   0.478   2.282
31451SOL     OW96126   2.996   4.355   3.494
31451SOL    HW196127   2.998   4.443   3.533
31451SOL    HW296128   3.071   4.354   3.434
31452SOL     OW96129   9.186   8.172   3.566
31452SOL    HW196130   9.154   8.214   3.646
31452SOL    HW296131   9.116   8.113   3.540
31453SOL     OW96132  12.303   1.730  10.141
31453SOL    HW196133  12.278   1.646  10.101
31453SOL    HW296134  12.248   1.795  10.098
31454SOL     OW96135   7.760  11.756   1.838
31454SOL    HW196136   7.719  11.842   1.833
31454SOL    HW296137   7.750  11.730   1.930
31455SOL     OW96138  13.475   4.219   4.183
31455SOL    HW196139  13.464   4.217   4.088
31455SOL    HW296140  13.566   4.191   4.197
31456SOL     OW96141   0.165   4.934   6.042
31456SOL    HW196142   0.191   4.935   6.134
31456SOL    HW296143   0.129   5.021   6.027
31457SOL     OW96144  14.737   3.030   6.940
31457SOL    HW196145  14.664   2.969   6.928
31457SOL    HW296146  14.788   3.024   6.859
31458SOL     OW96147   9.961  13.850   7.964
31458SOL    HW196148   9.958  13.934   8.010
31458SOL    HW296149  10.042  13.810   7.993
31459SOL     OW96150   6.561   1.183   6.301
31459SOL    HW196151   6.616   1.214   6.373
31459SOL    HW296152   6.597   1.098   6.278
31460SOL     OW96153   2.115   2.056   6.025
31460SOL    HW196154   2.099   2.073   5.932
31460SOL    HW296155   2.149   2.139   6.059
31461SOL     OW96156   1.084   6.535   8.167
31461SOL    HW196157   1.152   6.488   8.216
31461SOL    HW296158   1.012   6.472   8.160
31462SOL     OW96159   6.850  13.165   9.825
31462SOL    HW196160   6.780  13.224   9.795
31462SOL    HW296161   6.822  13.078   9.796
31463SOL     OW96162   9.019  13.211  10.077
31463SOL    HW196163   8.938  13.248  10.113
31463SOL    HW296164   9.082  13.282  10.081
31464SOL     OW96165  11.119   7.543   6.289
31464SOL    HW196166  11.067   7.470   6.254
31464SOL    HW296167  11.120   7.608   6.219
31465SOL     OW96168  14.698  10.193   7.381
31465SOL    HW196169  14.737  10.143   7.452
31465SOL    HW296170  14.740  10.159   7.302
31466SOL     OW96171   0.335  11.003   2.526
31466SOL    HW196172   0.314  10.911   2.511
31466SOL    HW296173   0.361  11.007   2.618
31467SOL     OW96174   6.650   1.516  12.256
31467SOL    HW196175   6.703   1.518  12.176
31467SOL    HW296176   6.689   1.582  12.312
31468SOL     OW96177   6.435   8.562   2.327
31468SOL    HW196178   6.392   8.609   2.398
31468SOL    HW296179   6.462   8.479   2.365
31469SOL     OW96180   9.839   7.527  14.299
31469SOL    HW196181   9.796   7.453  14.342
31469SOL    HW296182   9.932   7.515  14.318
31470SOL     OW96183   0.077   7.666   4.101
31470SOL    HW196184   0.070   7.581   4.056
31470SOL    HW296185   0.072   7.644   4.194
31471SOL     OW96186   3.097   2.162  12.785
31471SOL    HW196187   3.098   2.067  12.773
31471SOL    HW296188   3.106   2.175  12.879
31472SOL     OW96189  14.086   8.085  13.367
31472SOL    HW196190  14.035   8.116  13.292
31472SOL    HW296191  14.038   8.117  13.443
31473SOL     OW96192   8.709   0.777  11.936
31473SOL    HW196193   8.750   0.819  12.013
31473SOL    HW296194   8.753   0.693  11.929
31474SOL     OW96195   8.891  14.314   4.719
31474SOL    HW196196   8.807  14.272   4.740
31474SOL    HW296197   8.933  14.254   4.656
31475SOL     OW96198   3.778   3.081   1.780
31475SOL    HW196199   3.729   3.130   1.715
31475SOL    HW296200   3.859   3.056   1.736
31476SOL     OW96201   2.883   5.000   2.932
31476SOL    HW196202   2.971   4.994   2.970
31476SOL    HW296203   2.825   4.996   3.008
31477SOL     OW96204  14.634  10.458  10.992
31477SOL    HW196205  14.679  10.458  10.908
31477SOL    HW296206  14.586  10.541  10.994
31478SOL     OW96207   2.714   7.041   8.581
31478SOL    HW196208   2.673   7.127   8.589
31478SOL    HW296209   2.641   6.979   8.583
31479SOL     OW96210   3.563   3.542   6.917
31479SOL    HW196211   3.475   3.545   6.955
31479SOL    HW296212   3.598   3.458   6.945
31480SOL     OW96213   0.906   8.225   8.827
31480SOL    HW196214   0.859   8.178   8.895
31480SOL    HW296215   0.987   8.175   8.814
31481SOL     OW96216   7.652  13.346   7.831
31481SOL    HW196217   7.681  13.279   7.769
31481SOL    HW296218   7.560  13.324   7.849
31482SOL     OW96219   6.849  10.364   7.660
31482SOL    HW196220   6.764  10.351   7.618
31482SOL    HW296221   6.847  10.308   7.738
31483SOL     OW96222   0.448   4.545   1.111
31483SOL    HW196223   0.471   4.553   1.204
31483SOL    HW296224   0.530   4.521   1.068
31484SOL     OW96225   6.136   4.978  10.608
31484SOL    HW196226   6.208   4.950  10.552
31484SOL    HW296227   6.166   4.960  10.697
31485SOL     OW96228   3.444   1.871   1.345
31485SOL    HW196229   3.450   1.799   1.282
31485SOL    HW296230   3.518   1.858   1.404
31486SOL     OW96231   9.901   2.169   3.096
31486SOL    HW196232   9.913   2.240   3.159
31486SOL    HW296233   9.970   2.107   3.117
31487SOL     OW96234   8.460   5.054  13.255
31487SOL    HW196235   8.535   5.031  13.200
31487SOL    HW296236   8.499   5.100  13.330
31488SOL     OW96237   0.258  13.365   0.878
31488SOL    HW196238   0.216  13.377   0.793
31488SOL    HW296239   0.220  13.432   0.934
31489SOL     OW96240  12.635  10.614  12.129
31489SOL    HW196241  12.678  10.580  12.208
31489SOL    HW296242  12.701  10.604  12.060
31490SOL     OW96243   6.652   9.602   5.315
31490SOL    HW196244   6.690   9.680   5.273
31490SOL    HW296245   6.726   9.562   5.361
31491SOL     OW96246   8.196   6.797   6.447
31491SOL    HW196247   8.222   6.705   6.440
31491SOL    HW296248   8.133   6.799   6.519
31492SOL     OW96249  10.438   4.808   3.631
31492SOL    HW196250  10.355   4.759   3.630
31492SOL    HW296251  10.501   4.746   3.667
31493SOL     OW96252   2.982  14.513   6.807
31493SOL    HW196253   2.998  14.482   6.717
31493SOL    HW296254   3.038  14.458   6.861
31494SOL     OW96255   5.605  11.970   3.433
31494SOL    HW196256   5.654  11.935   3.359
31494SOL    HW296257   5.569  12.053   3.402
31495SOL     OW96258  12.419   8.330   8.494
31495SOL    HW196259  12.443   8.343   8.586
31495SOL    HW296260  12.436   8.237   8.478
31496SOL     OW96261  14.449  11.290   9.783
31496SOL    HW196262  14.510  11.345   9.733
31496SOL    HW296263  14.365  11.302   9.739
31497SOL     OW96264   0.196   4.874   9.365
31497SOL    HW196265   0.144   4.829   9.432
31497SOL    HW296266   0.161   4.964   9.365
31498SOL     OW96267   1.473   1.473  13.682
31498SOL    HW196268   1.468   1.511  13.770
31498SOL    HW296269   1.543   1.522  13.639
31499SOL     OW96270   6.666  14.770   0.907
31499SOL    HW196271   6.635  14.686   0.874
31499SOL    HW296272   6.738  14.794   0.849
31500SOL     OW96273   4.739   8.227   8.933
31500SOL    HW196274   4.703   8.141   8.914
31500SOL    HW296275   4.824   8.210   8.973
31501SOL     OW96276   6.702  12.877   7.639
31501SOL    HW196277   6.682  12.810   7.574
31501SOL    HW296278   6.769  12.837   7.694
31502SOL     OW96279   6.097  10.184  10.289
31502SOL    HW196280   6.029  10.155  10.229
31502SOL    HW296281   6.064  10.160  10.376
31503SOL     OW96282   0.277   6.260   7.871
31503SOL    HW196283   0.338   6.243   7.800
31503SOL    HW296284   0.263   6.355   7.869
31504SOL     OW96285   7.668   9.130   5.533
31504SOL    HW196286   7.582   9.135   5.575
31504SOL    HW296287   7.679   9.215   5.491
31505SOL     OW96288   4.156   5.340  13.980
31505SOL    HW196289   4.197   5.331  13.894
31505SOL    HW296290   4.099   5.416  13.972
31506SOL     OW96291   0.131  10.452   1.948
31506SOL    HW196292   0.108  10.481   2.036
31506SOL    HW296293   0.088  10.514   1.889
31507SOL     OW96294   0.985   8.236   2.821
31507SOL    HW196295   0.911   8.253   2.879
31507SOL    HW296296   1.040   8.315   2.829
31508SOL     OW96297  10.648   2.162  11.523
31508SOL    HW196298  10.634   2.069  11.511
31508SOL    HW296299  10.729   2.168  11.573
31509SOL     OW96300  13.860  12.916  14.717
31509SOL    HW196301  13.881  12.986  14.654
31509SOL    HW296302  13.916  12.935  14.793
31510SOL     OW96303   1.348  13.252   8.420
31510SOL    HW196304   1.318  13.266   8.510
31510SOL    HW296305   1.332  13.335   8.375
31511SOL     OW96306  10.689  10.080   7.390
31511SOL    HW196307  10.687  10.174   7.406
31511SOL    HW296308  10.780  10.055   7.407
31512SOL     OW96309   4.722   5.892   4.335
31512SOL    HW196310   4.758   5.810   4.370
31512SOL    HW296311   4.729   5.953   4.409
31513SOL     OW96312   0.743   6.143  11.360
31513SOL    HW196313   0.733   6.216  11.299
31513SOL    HW296314   0.751   6.184  11.446
31514SOL     OW96315   6.356   2.470   4.633
31514SOL    HW196316   6.433   2.518   4.602
31514SOL    HW296317   6.289   2.537   4.644
31515SOL     OW96318   2.350   2.882   9.073
31515SOL    HW196319   2.377   2.900   9.163
31515SOL    HW296320   2.263   2.921   9.066
31516SOL     OW96321   4.121  14.228  12.495
31516SOL    HW196322   4.058  14.280  12.544
31516SOL    HW296323   4.166  14.290  12.439
31517SOL     OW96324   9.138   2.228  10.881
31517SOL    HW196325   9.135   2.166  10.808
31517SOL    HW296326   9.230   2.254  10.887
31518SOL     OW96327   8.078  14.088   7.198
31518SOL    HW196328   8.151  14.029   7.218
31518SOL    HW296329   8.034  14.101   7.282
31519SOL     OW96330  14.057   7.966   1.365
31519SOL    HW196331  14.012   7.881   1.373
31519SOL    HW296332  14.123   7.952   1.296
31520SOL     OW96333   4.313  10.814   5.157
31520SOL    HW196334   4.406  10.830   5.176
31520SOL    HW296335   4.312  10.733   5.106
31521SOL     OW96336  13.085   0.270   0.732
31521SOL    HW196337  13.024   0.198   0.748
31521SOL    HW296338  13.128   0.285   0.816
31522SOL     OW96339   8.259  14.038   2.537
31522SOL    HW196340   8.234  14.021   2.628
31522SOL    HW296341   8.181  14.078   2.498
31523SOL     OW96342  13.806  13.039  12.586
31523SOL    HW196343  13.729  13.054  12.532
31523SOL    HW296344  13.828  13.125  12.620
31524SOL     OW96345   1.778   0.506  14.228
31524SOL    HW196346   1.802   0.597  14.246
31524SOL    HW296347   1.855   0.469  14.185
31525SOL     OW96348  14.784   3.128   0.026
31525SOL    HW196349  14.773   3.201  14.846
31525SOL    HW296350  14.696   3.110   0.058
31526SOL     OW96351   3.789   2.503   6.354
31526SOL    HW196352   3.732   2.558   6.300
31526SOL    HW296353   3.876   2.542   6.344
31527SOL     OW96354   7.770   4.056   6.972
31527SOL    HW196355   7.705   4.038   6.905
31527SOL    HW296356   7.836   3.988   6.961
31528SOL     OW96357   9.881  14.136   2.640
31528SOL    HW196358   9.970  14.159   2.613
31528SOL    HW296359   9.839  14.220   2.657
31529SOL     OW96360   8.622   9.980   7.605
31529SOL    HW196361   8.564  10.055   7.591
31529SOL    HW296362   8.624   9.936   7.520
31530SOL     OW96363  10.763  10.961   2.604
31530SOL    HW196364  10.699  10.907   2.557
31530SOL    HW296365  10.822  10.897   2.644
31531SOL     OW96366   0.522   2.130   8.165
31531SOL    HW196367   0.464   2.089   8.101
31531SOL    HW296368   0.557   2.207   8.121
31532SOL     OW96369   6.284  10.052   7.701
31532SOL    HW196370   6.279  10.008   7.786
31532SOL    HW296371   6.236  10.134   7.713
31533SOL     OW96372   0.032  11.117   2.918
31533SOL    HW196373   0.086  11.169   2.859
31533SOL    HW296374   0.016  11.175   2.993
31534SOL     OW96375  13.833   6.169   6.192
31534SOL    HW196376  13.757   6.144   6.244
31534SOL    HW296377  13.802   6.240   6.136
31535SOL     OW96378  10.571  11.557   8.820
31535SOL    HW196379  10.538  11.541   8.908
31535SOL    HW296380  10.644  11.617   8.832
31536SOL     OW96381  13.313  10.669  10.809
31536SOL    HW196382  13.230  10.690  10.851
31536SOL    HW296383  13.365  10.749  10.817
31537SOL     OW96384   2.908   8.706  14.103
31537SOL    HW196385   2.991   8.696  14.150
31537SOL    HW296386   2.924   8.665  14.018
31538SOL     OW96387   1.707   1.391   4.611
31538SOL    HW196388   1.802   1.377   4.619
31538SOL    HW296389   1.680   1.420   4.698
31539SOL     OW96390   3.732   8.030   7.643
31539SOL    HW196391   3.734   7.935   7.635
31539SOL    HW296392   3.700   8.046   7.732
31540SOL     OW96393   8.126   0.326  11.404
31540SOL    HW196394   8.099   0.417  11.394
31540SOL    HW296395   8.199   0.330  11.466
31541SOL     OW96396   6.065  13.228   8.073
31541SOL    HW196397   6.096  13.311   8.109
31541SOL    HW296398   5.970  13.236   8.073
31542SOL     OW96399  13.273  11.105   9.566
31542SOL    HW196400  13.296  11.054   9.489
31542SOL    HW296401  13.331  11.072   9.635
31543SOL     OW96402   6.098   8.234   7.589
31543SOL    HW196403   6.068   8.284   7.665
31543SOL    HW296404   6.188   8.208   7.610
31544SOL     OW96405  13.500   0.202   5.671
31544SOL    HW196406  13.528   0.224   5.583
31544SOL    HW296407  13.406   0.219   5.672
31545SOL     OW96408   8.244   3.656  13.136
31545SOL    HW196409   8.179   3.717  13.170
31545SOL    HW296410   8.269   3.692  13.051
31546SOL     OW96411   3.560   8.584   1.282
31546SOL    HW196412   3.600   8.527   1.217
31546SOL    HW296413   3.526   8.523   1.348
31547SOL     OW96414   7.854  10.053   5.276
31547SOL    HW196415   7.876   9.964   5.305
31547SOL    HW296416   7.765  10.045   5.240
31548SOL     OW96417  13.233  12.405  13.305
31548SOL    HW196418  13.223  12.361  13.220
31548SOL    HW296419  13.239  12.498  13.283
31549SOL     OW96420  11.951   6.792  12.649
31549SOL    HW196421  11.896   6.861  12.686
31549SOL    HW296422  11.908   6.769  12.567
31550SOL     OW96423  11.037  13.814   4.059
31550SOL    HW196424  11.020  13.859   4.141
31550SOL    HW296425  11.080  13.880   4.004
31551SOL     OW96426  12.541   1.100   3.317
31551SOL    HW196427  12.592   1.019   3.307
31551SOL    HW296428  12.520   1.127   3.228
31552SOL     OW96429  14.877  11.924   7.807
31552SOL    HW196430  14.858  11.833   7.786
31552SOL    HW296431  14.834  11.974   7.739
31553SOL     OW96432   1.311   9.696   1.728
31553SOL    HW196433   1.341   9.605   1.731
31553SOL    HW296434   1.323   9.729   1.817
31554SOL     OW96435   7.741   6.059   6.938
31554SOL    HW196436   7.785   6.138   6.907
31554SOL    HW296437   7.789   6.035   7.018
31555SOL     OW96438  11.284   2.213   1.835
31555SOL    HW196439  11.347   2.220   1.764
31555SOL    HW296440  11.260   2.120   1.837
31556SOL     OW96441  13.111   8.325   0.391
31556SOL    HW196442  13.035   8.353   0.339
31556SOL    HW296443  13.179   8.388   0.369
31557SOL     OW96444   6.195   9.242   2.269
31557SOL    HW196445   6.157   9.158   2.245
31557SOL    HW296446   6.161   9.260   2.357
31558SOL     OW96447   6.169   7.438   2.681
31558SOL    HW196448   6.192   7.399   2.766
31558SOL    HW296449   6.080   7.410   2.664
31559SOL     OW96450  10.369   2.225   0.994
31559SOL    HW196451  10.381   2.248   0.902
31559SOL    HW296452  10.347   2.132   0.993
31560SOL     OW96453   4.551   1.466   7.190
31560SOL    HW196454   4.546   1.562   7.189
31560SOL    HW296455   4.566   1.442   7.099
31561SOL     OW96456  11.405   9.242   3.017
31561SOL    HW196457  11.495   9.236   2.984
31561SOL    HW296458  11.353   9.200   2.949
31562SOL     OW96459   3.561   2.214  14.657
31562SOL    HW196460   3.543   2.301  14.692
31562SOL    HW296461   3.474   2.179  14.636
31563SOL     OW96462  11.135  11.520   3.696
31563SOL    HW196463  11.173  11.608   3.694
31563SOL    HW296464  11.187  11.470   3.634
31564SOL     OW96465  13.115  10.468  14.459
31564SOL    HW196466  13.092  10.560  14.475
31564SOL    HW296467  13.169  10.470  14.380
31565SOL     OW96468   1.747  12.027   5.188
31565SOL    HW196469   1.765  12.078   5.109
31565SOL    HW296470   1.807  12.062   5.254
31566SOL     OW96471  12.409   6.334   3.857
31566SOL    HW196472  12.465   6.403   3.822
31566SOL    HW296473  12.390   6.278   3.782
31567SOL     OW96474  12.561   1.659   7.627
31567SOL    HW196475  12.559   1.564   7.618
31567SOL    HW296476  12.489   1.690   7.573
31568SOL     OW96477   6.970  11.455  10.940
31568SOL    HW196478   7.042  11.396  10.920
31568SOL    HW296479   6.978  11.473  11.033
31569SOL     OW96480   8.623  11.074   5.855
31569SOL    HW196481   8.680  11.081   5.779
31569SOL    HW296482   8.580  11.159   5.862
31570SOL     OW96483   0.974  12.211   0.438
31570SOL    HW196484   0.972  12.294   0.392
31570SOL    HW296485   0.885  12.176   0.428
31571SOL     OW96486   3.261  13.725   6.362
31571SOL    HW196487   3.196  13.717   6.432
31571SOL    HW296488   3.246  13.648   6.307
31572SOL     OW96489   7.178   7.306  11.460
31572SOL    HW196490   7.238   7.277  11.529
31572SOL    HW296491   7.214   7.388  11.429
31573SOL     OW96492   4.122   0.107   5.145
31573SOL    HW196493   4.131   0.199   5.121
31573SOL    HW296494   4.151   0.059   5.068
31574SOL     OW96495  12.433   8.557   2.354
31574SOL    HW196496  12.489   8.490   2.394
31574SOL    HW296497  12.371   8.507   2.300
31575SOL     OW96498   8.489  10.503   8.568
31575SOL    HW196499   8.583  10.489   8.575
31575SOL    HW296500   8.480  10.593   8.536
31576SOL     OW96501   3.288   0.345   6.292
31576SOL    HW196502   3.224   0.377   6.355
31576SOL    HW296503   3.311   0.258   6.324
31577SOL     OW96504   3.920   2.363   7.601
31577SOL    HW196505   3.873   2.369   7.517
31577SOL    HW296506   3.859   2.400   7.665
31578SOL     OW96507  14.257   8.526   3.390
31578SOL    HW196508  14.182   8.585   3.388
31578SOL    HW296509  14.273   8.503   3.299
31579SOL     OW96510   8.797   1.065   9.678
31579SOL    HW196511   8.713   1.055   9.722
31579SOL    HW296512   8.828   0.976   9.664
31580SOL     OW96513  11.045   2.073  12.935
31580SOL    HW196514  11.079   2.060  13.023
31580SOL    HW296515  10.950   2.081  12.947
31581SOL     OW96516   1.847   1.928  14.366
31581SOL    HW196517   1.813   1.881  14.442
31581SOL    HW296518   1.842   1.864  14.294
31582SOL     OW96519  12.215   6.457  10.148
31582SOL    HW196520  12.300   6.492  10.119
31582SOL    HW296521  12.161   6.457  10.069
31583SOL     OW96522  13.984   8.856   5.564
31583SOL    HW196523  13.928   8.892   5.633
31583SOL    HW296524  14.009   8.770   5.597
31584SOL     OW96525   6.185   8.294   0.110
31584SOL    HW196526   6.246   8.306   0.037
31584SOL    HW296527   6.101   8.275   0.068
31585SOL     OW96528  10.121   5.053   4.562
31585SOL    HW196529  10.077   5.017   4.640
31585SOL    HW296530  10.184   5.116   4.597
31586SOL     OW96531  12.820   7.539   9.342
31586SOL    HW196532  12.797   7.615   9.287
31586SOL    HW296533  12.834   7.468   9.279
31587SOL     OW96534   8.784   1.434  14.082
31587SOL    HW196535   8.836   1.416  14.160
31587SOL    HW296536   8.842   1.487  14.026
31588SOL     OW96537   9.375   1.964   7.411
31588SOL    HW196538   9.368   1.984   7.505
31588SOL    HW296539   9.469   1.966   7.393
31589SOL     OW96540   1.717  11.802  13.633
31589SOL    HW196541   1.652  11.809  13.564
31589SOL    HW296542   1.783  11.867  13.611
31590SOL     OW96543  13.730   4.071   4.728
31590SOL    HW196544  13.651   4.117   4.756
31590SOL    HW296545  13.722   4.064   4.633
31591SOL     OW96546   1.482   2.295   1.940
31591SOL    HW196547   1.392   2.264   1.951
31591SOL    HW296548   1.533   2.215   1.922
31592SOL     OW96549  14.659   7.350   0.710
31592SOL    HW196550  14.722   7.296   0.758
31592SOL    HW296551  14.714   7.411   0.659
31593SOL     OW96552   6.181   5.488   6.567
31593SOL    HW196553   6.090   5.507   6.543
31593SOL    HW296554   6.233   5.528   6.497
31594SOL     OW96555   4.701   2.588   2.017
31594SOL    HW196556   4.767   2.527   2.051
31594SOL    HW296557   4.647   2.535   1.958
31595SOL     OW96558   9.449   2.141   8.532
31595SOL    HW196559   9.379   2.195   8.569
31595SOL    HW296560   9.413   2.052   8.531
31596SOL     OW96561  12.121   2.532   6.933
31596SOL    HW196562  12.110   2.540   6.839
31596SOL    HW296563  12.070   2.454   6.958
31597SOL     OW96564  13.094   3.621  12.686
31597SOL    HW196565  13.162   3.581  12.632
31597SOL    HW296566  13.136   3.636  12.770
31598SOL     OW96567   7.717   4.888  10.782
31598SOL    HW196568   7.779   4.823  10.749
31598SOL    HW296569   7.653   4.837  10.832
31599SOL     OW96570   6.382  13.782   6.390
31599SOL    HW196571   6.355  13.841   6.320
31599SOL    HW296572   6.475  13.804   6.405
31600SOL     OW96573   8.143   1.690   1.718
31600SOL    HW196574   8.205   1.764   1.719
31600SOL    HW296575   8.059   1.729   1.742
31601SOL     OW96576   5.050   7.156  11.640
31601SOL    HW196577   4.970   7.107  11.658
31601SOL    HW296578   5.060   7.214  11.715
31602SOL     OW96579   3.827  13.028  12.962
31602SOL    HW196580   3.774  13.011  12.884
31602SOL    HW296581   3.909  13.065  12.927
31603SOL     OW96582   2.861   3.281  12.561
31603SOL    HW196583   2.824   3.290  12.649
31603SOL    HW296584   2.788   3.250  12.508
31604SOL     OW96585   7.445  13.717  10.313
31604SOL    HW196586   7.390  13.640  10.297
31604SOL    HW296587   7.535  13.683  10.307
31605SOL     OW96588   9.187  13.629   9.386
31605SOL    HW196589   9.197  13.724   9.382
31605SOL    HW296590   9.266  13.599   9.431
31606SOL     OW96591  13.460   4.704   1.929
31606SOL    HW196592  13.491   4.630   1.981
31606SOL    HW296593  13.375   4.676   1.895
31607SOL     OW96594   8.845  10.195  13.141
31607SOL    HW196595   8.752  10.173  13.133
31607SOL    HW296596   8.876  10.143  13.215
31608SOL     OW96597   5.515  14.829   0.257
31608SOL    HW196598   5.500  14.846   0.350
31608SOL    HW296599   5.596  14.779   0.254
31609SOL     OW96600  13.913   3.363  11.781
31609SOL    HW196601  13.992   3.325  11.743
31609SOL    HW296602  13.856   3.288  11.799
31610SOL     OW96603  12.736   0.595   9.297
31610SOL    HW196604  12.669   0.587   9.365
31610SOL    HW296605  12.732   0.512   9.249
31611SOL     OW96606   8.239   4.642   1.036
31611SOL    HW196607   8.209   4.731   1.019
31611SOL    HW296608   8.333   4.644   1.016
31612SOL     OW96609   1.239  12.747   3.233
31612SOL    HW196610   1.209  12.663   3.268
31612SOL    HW296611   1.331  12.732   3.209
31613SOL     OW96612   1.186  11.730   9.945
31613SOL    HW196613   1.191  11.814   9.900
31613SOL    HW296614   1.272  11.690   9.931
31614SOL     OW96615   1.522   8.572   7.129
31614SOL    HW196616   1.556   8.497   7.177
31614SOL    HW296617   1.428   8.554   7.120
31615SOL     OW96618  11.156   2.461   1.740
31615SOL    HW196619  11.175   2.371   1.766
31615SOL    HW296620  11.141   2.457   1.646
31616SOL     OW96621   7.836   0.928  11.400
31616SOL    HW196622   7.818   0.898  11.311
31616SOL    HW296623   7.810   0.855  11.456
31617SOL     OW96624  12.731   8.070   9.694
31617SOL    HW196625  12.670   8.126   9.740
31617SOL    HW296626  12.761   8.123   9.620
31618SOL     OW96627   6.452   3.149   4.205
31618SOL    HW196628   6.509   3.081   4.168
31618SOL    HW296629   6.411   3.190   4.128
31619SOL     OW96630   1.450   6.789  11.785
31619SOL    HW196631   1.525   6.757  11.835
31619SOL    HW296632   1.374   6.754  11.831
31620SOL     OW96633   8.990   9.341   4.657
31620SOL    HW196634   8.956   9.374   4.573
31620SOL    HW296635   8.975   9.247   4.653
31621SOL     OW96636   8.066   4.696   4.895
31621SOL    HW196637   7.988   4.741   4.927
31621SOL    HW296638   8.139   4.745   4.931
31622SOL     OW96639   7.778   0.515   5.171
31622SOL    HW196640   7.707   0.499   5.233
31622SOL    HW296641   7.745   0.483   5.087
31623SOL     OW96642   3.904   9.862   5.423
31623SOL    HW196643   3.859   9.943   5.446
31623SOL    HW296644   3.853   9.826   5.350
31624SOL     OW96645   9.518   4.141   1.338
31624SOL    HW196646   9.458   4.212   1.363
31624SOL    HW296647   9.596   4.156   1.392
31625SOL     OW96648   2.453  14.752  14.575
31625SOL    HW196649   2.501  14.670  14.588
31625SOL    HW296650   2.374  14.741  14.627
31626SOL     OW96651   7.030  13.636   4.756
31626SOL    HW196652   7.090  13.679   4.695
31626SOL    HW296653   6.943  13.651   4.718
31627SOL     OW96654   3.516   3.045   8.767
31627SOL    HW196655   3.521   3.132   8.806
31627SOL    HW296656   3.423   3.031   8.751
31628SOL     OW96657  12.035   5.434   5.466
31628SOL    HW196658  11.981   5.513   5.460
31628SOL    HW296659  12.122   5.465   5.491
31629SOL     OW96660  13.789  11.186   5.316
31629SOL    HW196661  13.696  11.202   5.303
31629SOL    HW296662  13.828  11.274   5.322
31630SOL     OW96663   2.150  12.654  13.145
31630SOL    HW196664   2.125  12.566  13.114
31630SOL    HW296665   2.068  12.701  13.153
31631SOL     OW96666   4.186  11.273   6.714
31631SOL    HW196667   4.126  11.233   6.777
31631SOL    HW296668   4.257  11.308   6.767
31632SOL     OW96669  10.479   5.164   5.389
31632SOL    HW196670  10.537   5.204   5.324
31632SOL    HW296671  10.538   5.131   5.456
31633SOL     OW96672   8.486  14.026  12.997
31633SOL    HW196673   8.555  14.091  12.990
31633SOL    HW296674   8.456  14.014  12.907
31634SOL     OW96675   8.309  14.107  13.345
31634SOL    HW196676   8.292  14.157  13.425
31634SOL    HW296677   8.401  14.126  13.325
31635SOL     OW96678   4.321   4.063   4.140
31635SOL    HW196679   4.281   4.015   4.213
31635SOL    HW296680   4.415   4.058   4.157
31636SOL     OW96681   1.586   9.056  10.770
31636SOL    HW196682   1.650   9.118  10.736
31636SOL    HW296683   1.626   9.023  10.851
31637SOL     OW96684  10.399   4.244   0.475
31637SOL    HW196685  10.492   4.264   0.469
31637SOL    HW296686  10.357   4.307   0.417
31638SOL     OW96687   9.555   5.435  12.172
31638SOL    HW196688   9.631   5.493  12.165
31638SOL    HW296689   9.480   5.490  12.150
31639SOL     OW96690   0.496   2.597   5.557
31639SOL    HW196691   0.490   2.585   5.462
31639SOL    HW296692   0.537   2.517   5.589
31640SOL     OW96693   6.382   9.858   8.259
31640SOL    HW196694   6.291   9.889   8.264
31640SOL    HW296695   6.383   9.778   8.311
31641SOL     OW96696   0.970  13.929  12.383
31641SOL    HW196697   1.056  13.934  12.422
31641SOL    HW296698   0.956  13.835  12.367
31642SOL     OW96699   5.709   2.834  10.472
31642SOL    HW196700   5.738   2.838  10.381
31642SOL    HW296701   5.788   2.814  10.521
31643SOL     OW96702   1.147  13.742  13.416
31643SOL    HW196703   1.223  13.799  13.404
31643SOL    HW296704   1.159  13.671  13.353
31644SOL     OW96705   0.329   7.886   6.768
31644SOL    HW196706   0.361   7.817   6.826
31644SOL    HW296707   0.295   7.840   6.692
31645SOL     OW96708  14.776   9.209   1.957
31645SOL    HW196709  14.855   9.156   1.958
31645SOL    HW296710  14.751   9.216   2.049
31646SOL     OW96711   6.575  12.978   8.788
31646SOL    HW196712   6.669  12.966   8.803
31646SOL    HW296713   6.570  13.048   8.722
31647SOL     OW96714  14.841   0.718   5.043
31647SOL    HW196715  14.852   0.734   4.949
31647SOL    HW296716  14.876   0.631   5.057
31648SOL     OW96717   8.565   8.516  13.366
31648SOL    HW196718   8.479   8.484  13.338
31648SOL    HW296719   8.625   8.445  13.346
31649SOL     OW96720   2.426   7.928  14.007
31649SOL    HW196721   2.505   7.956  14.053
31649SOL    HW296722   2.443   7.838  13.982
31650SOL     OW96723   2.340  12.204  11.563
31650SOL    HW196724   2.285  12.144  11.615
31650SOL    HW296725   2.349  12.282  11.618
31651SOL     OW96726   4.149  14.212   3.600
31651SOL    HW196727   4.108  14.171   3.524
31651SOL    HW296728   4.234  14.168   3.609
31652SOL     OW96729  10.866  13.018  10.589
31652SOL    HW196730  10.921  12.966  10.646
31652SOL    HW296731  10.889  13.109  10.610
31653SOL     OW96732   5.814  11.435   4.235
31653SOL    HW196733   5.881  11.372   4.208
31653SOL    HW296734   5.861  11.497   4.290
31654SOL     OW96735   4.392  13.237  11.061
31654SOL    HW196736   4.327  13.187  11.110
31654SOL    HW296737   4.382  13.207  10.971
31655SOL     OW96738   4.333   4.862   6.148
31655SOL    HW196739   4.342   4.790   6.210
31655SOL    HW296740   4.246   4.852   6.111
31656SOL     OW96741  14.748   8.458   3.937
31656SOL    HW196742  14.831   8.490   3.902
31656SOL    HW296743  14.771   8.378   3.983
31657SOL     OW96744   0.474  13.797   4.162
31657SOL    HW196745   0.502  13.725   4.106
31657SOL    HW296746   0.451  13.756   4.245
31658SOL     OW96747  12.969   7.982   4.008
31658SOL    HW196748  12.960   8.027   4.092
31658SOL    HW296749  12.983   8.052   3.944
31659SOL     OW96750   8.458   5.550   8.280
31659SOL    HW196751   8.409   5.602   8.345
31659SOL    HW296752   8.465   5.463   8.320
31660SOL     OW96753  10.821   7.188  12.029
31660SOL    HW196754  10.822   7.266  11.973
31660SOL    HW296755  10.742   7.141  12.004
31661SOL     OW96756   0.141   6.555   6.086
31661SOL    HW196757   0.095   6.553   6.170
31661SOL    HW296758   0.099   6.625   6.037
31662SOL     OW96759  14.407  10.950   2.637
31662SOL    HW196760  14.370  10.872   2.677
31662SOL    HW296761  14.337  10.982   2.580
31663SOL     OW96762   9.906   5.508   0.249
31663SOL    HW196763   9.908   5.413   0.255
31663SOL    HW296764   9.997   5.535   0.260
31664SOL     OW96765   5.012   7.793  11.416
31664SOL    HW196766   5.097   7.782  11.458
31664SOL    HW296767   4.965   7.856  11.471
31665SOL     OW96768   9.667   6.230  13.451
31665SOL    HW196769   9.742   6.216  13.393
31665SOL    HW296770   9.698   6.201  13.537
31666SOL     OW96771   4.280   6.769  13.591
31666SOL    HW196772   4.373   6.752  13.603
31666SOL    HW296773   4.276   6.851  13.541
31667SOL     OW96774   3.494   9.506  14.846
31667SOL    HW196775   3.483   9.570   0.034
31667SOL    HW296776   3.587   9.512  14.822
31668SOL     OW96777  11.621  13.581   6.631
31668SOL    HW196778  11.616  13.556   6.539
31668SOL    HW296779  11.710  13.558   6.657
31669SOL     OW96780  11.520  11.421   9.174
31669SOL    HW196781  11.591  11.463   9.125
31669SOL    HW296782  11.451  11.487   9.176
31670SOL     OW96783   0.119   9.847   3.177
31670SOL    HW196784   0.199   9.896   3.197
31670SOL    HW296785   0.053   9.914   3.162
31671SOL     OW96786   4.247   0.785  11.638
31671SOL    HW196787   4.158   0.769  11.607
31671SOL    HW296788   4.238   0.800  11.732
31672SOL     OW96789  10.769   0.469  13.230
31672SOL    HW196790  10.821   0.424  13.163
31672SOL    HW296791  10.788   0.421  13.310
31673SOL     OW96792   9.731  12.325   3.873
31673SOL    HW196793   9.697  12.283   3.794
31673SOL    HW296794   9.700  12.271   3.945
31674SOL     OW96795   1.543   5.532   3.625
31674SOL    HW196796   1.608   5.501   3.688
31674SOL    HW296797   1.563   5.485   3.544
31675SOL     OW96798  12.414   5.304  12.950
31675SOL    HW196799  12.448   5.232  13.002
31675SOL    HW296800  12.489   5.362  12.937
31676SOL     OW96801   7.985   9.473   1.942
31676SOL    HW196802   8.003   9.509   2.029
31676SOL    HW296803   7.985   9.378   1.954
31677SOL     OW96804  14.596   5.415   5.709
31677SOL    HW196805  14.576   5.443   5.799
31677SOL    HW296806  14.620   5.323   5.718
31678SOL     OW96807  11.727   6.137  14.683
31678SOL    HW196808  11.644   6.130  14.730
31678SOL    HW296809  11.701   6.157  14.593
31679SOL     OW96810  12.220   0.098   3.154
31679SOL    HW196811  12.299   0.103   3.207
31679SOL    HW296812  12.156   0.153   3.201
31680SOL     OW96813   9.804   8.926   5.408
31680SOL    HW196814   9.892   8.962   5.408
31680SOL    HW296815   9.747   9.001   5.392
31681SOL     OW96816   4.088   3.897   6.657
31681SOL    HW196817   4.069   3.971   6.714
31681SOL    HW296818   4.169   3.859   6.693
31682SOL     OW96819   0.881  13.975  10.478
31682SOL    HW196820   0.895  14.061  10.519
31682SOL    HW296821   0.786  13.971  10.464
31683SOL     OW96822   9.965   5.465   2.590
31683SOL    HW196823  10.023   5.405   2.543
31683SOL    HW296824   9.878   5.443   2.558
31684SOL     OW96825  10.949   7.475   3.149
31684SOL    HW196826  10.972   7.419   3.223
31684SOL    HW296827  10.903   7.549   3.189
31685SOL     OW96828   0.253  10.759   7.785
31685SOL    HW196829   0.258  10.840   7.734
31685SOL    HW296830   0.323  10.704   7.750
31686SOL     OW96831   3.659  13.881   6.145
31686SOL    HW196832   3.658  13.909   6.236
31686SOL    HW296833   3.704  13.951   6.098
31687SOL     OW96834   1.482   9.030   6.954
31687SOL    HW196835   1.401   9.017   7.003
31687SOL    HW296836   1.461   9.099   6.890
31688SOL     OW96837  11.340   3.190  13.786
31688SOL    HW196838  11.338   3.283  13.765
31688SOL    HW296839  11.256   3.172  13.828
31689SOL     OW96840  10.028  12.842   5.268
31689SOL    HW196841  10.023  12.747   5.256
31689SOL    HW296842  10.022  12.878   5.179
31690SOL     OW96843   0.769   0.934   9.313
31690SOL    HW196844   0.712   0.973   9.379
31690SOL    HW296845   0.712   0.925   9.236
31691SOL     OW96846   4.910   8.946  13.712
31691SOL    HW196847   4.885   8.893  13.788
31691SOL    HW296848   5.005   8.956  13.720
31692SOL     OW96849  11.888  11.354   5.564
31692SOL    HW196850  11.854  11.267   5.541
31692SOL    HW296851  11.954  11.372   5.497
31693SOL     OW96852   1.700   5.727   2.727
31693SOL    HW196853   1.612   5.735   2.763
31693SOL    HW296854   1.737   5.815   2.732
31694SOL     OW96855  11.545  12.205  14.413
31694SOL    HW196856  11.599  12.139  14.369
31694SOL    HW296857  11.474  12.222  14.352
31695SOL     OW96858   5.441  11.598   2.545
31695SOL    HW196859   5.493  11.677   2.561
31695SOL    HW296860   5.451  11.582   2.451
31696SOL     OW96861   0.959  10.000  13.119
31696SOL    HW196862   0.880   9.977  13.168
31696SOL    HW296863   0.927  10.031  13.034
31697SOL     OW96864  13.190   0.448  12.818
31697SOL    HW196865  13.282   0.423  12.824
31697SOL    HW296866  13.142   0.365  12.819
31698SOL     OW96867  10.656  10.771   4.340
31698SOL    HW196868  10.662  10.678   4.318
31698SOL    HW296869  10.669  10.774   4.435
31699SOL     OW96870   4.483   2.108   7.587
31699SOL    HW196871   4.573   2.084   7.608
31699SOL    HW296872   4.436   2.101   7.670
31700SOL     OW96873   8.524  11.225   6.110
31700SOL    HW196874   8.566  11.189   6.032
31700SOL    HW296875   8.593  11.228   6.176
31701SOL     OW96876  11.845   7.890   4.835
31701SOL    HW196877  11.882   7.834   4.903
31701SOL    HW296878  11.918   7.905   4.775
31702SOL     OW96879  13.130  13.458   7.270
31702SOL    HW196880  13.152  13.494   7.356
31702SOL    HW296881  13.044  13.496   7.250
31703SOL     OW96882   9.698   9.608   5.846
31703SOL    HW196883   9.661   9.670   5.784
31703SOL    HW296884   9.768   9.564   5.797
31704SOL     OW96885   7.562  14.470   9.583
31704SOL    HW196886   7.519  14.397   9.538
31704SOL    HW296887   7.648  14.437   9.606
31705SOL     OW96888   9.774  12.326   7.501
31705SOL    HW196889   9.847  12.328   7.440
31705SOL    HW296890   9.762  12.417   7.527
31706SOL     OW96891   6.602   1.724   2.057
31706SOL    HW196892   6.527   1.749   2.110
31706SOL    HW296893   6.566   1.670   1.988
31707SOL     OW96894  10.333  12.855   4.806
31707SOL    HW196895  10.368  12.887   4.723
31707SOL    HW296896  10.303  12.934   4.851
31708SOL     OW96897   4.980   4.715   1.276
31708SOL    HW196898   4.963   4.661   1.199
31708SOL    HW296899   4.976   4.654   1.350
31709SOL     OW96900   7.404   7.498   9.153
31709SOL    HW196901   7.399   7.550   9.073
31709SOL    HW296902   7.484   7.529   9.196
31710SOL     OW96903   5.552  14.487   2.427
31710SOL    HW196904   5.631  14.467   2.377
31710SOL    HW296905   5.510  14.558   2.380
31711SOL     OW96906  10.396   6.560   0.725
31711SOL    HW196907  10.479   6.560   0.677
31711SOL    HW296908  10.338   6.616   0.673
31712SOL     OW96909   4.794   8.445   7.619
31712SOL    HW196910   4.878   8.487   7.600
31712SOL    HW296911   4.774   8.395   7.540
31713SOL     OW96912   1.953   2.796   1.511
31713SOL    HW196913   1.903   2.727   1.553
31713SOL    HW296914   2.026   2.814   1.571
31714SOL     OW96915   0.396   5.156   3.152
31714SOL    HW196916   0.379   5.240   3.195
31714SOL    HW296917   0.311   5.131   3.115
31715SOL     OW96918   2.851  10.201   9.557
31715SOL    HW196919   2.938  10.176   9.528
31715SOL    HW296920   2.799  10.122   9.548
31716SOL     OW96921   8.380  10.015  14.471
31716SOL    HW196922   8.340  10.069  14.403
31716SOL    HW296923   8.434   9.952  14.424
31717SOL     OW96924   4.965   3.001   1.187
31717SOL    HW196925   4.893   3.048   1.145
31717SOL    HW296926   5.042   3.022   1.135
31718SOL     OW96927   4.086   3.484  13.359
31718SOL    HW196928   4.023   3.474  13.431
31718SOL    HW296929   4.125   3.398  13.349
31719SOL     OW96930   2.917  11.788  13.979
31719SOL    HW196931   2.941  11.695  13.984
31719SOL    HW296932   2.933  11.813  13.888
31720SOL     OW96933  12.663   6.491   1.802
31720SOL    HW196934  12.722   6.561   1.829
31720SOL    HW296935  12.577   6.533   1.798
31721SOL     OW96936  13.911  13.258   2.202
31721SOL    HW196937  13.891  13.263   2.295
31721SOL    HW296938  13.907  13.348   2.171
31722SOL     OW96939   4.354  10.822  10.680
31722SOL    HW196940   4.412  10.826  10.757
31722SOL    HW296941   4.385  10.893  10.624
31723SOL     OW96942   7.250   3.666   6.378
31723SOL    HW196943   7.212   3.723   6.445
31723SOL    HW296944   7.177   3.647   6.319
31724SOL     OW96945   3.262   1.651  14.229
31724SOL    HW196946   3.298   1.635  14.317
31724SOL    HW296947   3.245   1.564  14.194
31725SOL     OW96948   6.420  14.265   6.524
31725SOL    HW196949   6.488  14.234   6.584
31725SOL    HW296950   6.400  14.354   6.554
31726SOL     OW96951   1.489   1.510   3.650
31726SOL    HW196952   1.499   1.417   3.633
31726SOL    HW296953   1.556   1.531   3.715
31727SOL     OW96954  14.650   3.234   5.326
31727SOL    HW196955  14.609   3.241   5.240
31727SOL    HW296956  14.612   3.156   5.365
31728SOL     OW96957   5.235   6.381   0.276
31728SOL    HW196958   5.171   6.314   0.253
31728SOL    HW296959   5.206   6.459   0.229
31729SOL     OW96960  11.926   4.863   6.254
31729SOL    HW196961  11.909   4.848   6.347
31729SOL    HW296962  11.852   4.822   6.210
31730SOL     OW96963  10.405  13.666   9.948
31730SOL    HW196964  10.341  13.737   9.945
31730SOL    HW296965  10.489  13.710   9.962
31731SOL     OW96966   6.641  10.813   5.356
31731SOL    HW196967   6.698  10.764   5.416
31731SOL    HW296968   6.695  10.885   5.324
31732SOL     OW96969   8.298   2.449  14.704
31732SOL    HW196970   8.262   2.486  14.784
31732SOL    HW296971   8.382   2.494  14.693
31733SOL     OW96972  13.934   0.552   9.659
31733SOL    HW196973  13.915   0.486   9.593
31733SOL    HW296974  14.027   0.541   9.678
31734SOL     OW96975  13.984   6.513  13.277
31734SOL    HW196976  13.960   6.421  13.269
31734SOL    HW296977  14.067   6.520  13.230
31735SOL     OW96978   5.927   6.079   3.869
31735SOL    HW196979   5.838   6.048   3.851
31735SOL    HW296980   5.915   6.155   3.925
31736SOL     OW96981   1.434   1.098  11.795
31736SOL    HW196982   1.484   1.179  11.780
31736SOL    HW296983   1.385   1.116  11.875
31737SOL     OW96984  13.732   4.918   9.869
31737SOL    HW196985  13.679   4.919   9.789
31737SOL    HW296986  13.668   4.930   9.940
31738SOL     OW96987  14.732  10.947   9.838
31738SOL    HW196988  14.640  10.929   9.817
31738SOL    HW296989  14.730  11.031   9.883
31739SOL     OW96990  10.681   0.796   0.676
31739SOL    HW196991  10.730   0.718   0.647
31739SOL    HW296992  10.749   0.857   0.704
31740SOL     OW96993  10.443   0.148  14.223
31740SOL    HW196994  10.375   0.100  14.176
31740SOL    HW296995  10.433   0.239  14.195
31741SOL     OW96996  13.581   7.433   8.844
31741SOL    HW196997  13.652   7.453   8.784
31741SOL    HW296998  13.562   7.340   8.830
31742SOL     OW96999   5.888   9.493   2.601
31742SOL    HW197000   5.934   9.528   2.678
31742SOL    HW297001   5.889   9.565   2.538
31743SOL     OW97002  11.896  11.987  13.856
31743SOL    HW197003  11.889  12.043  13.779
31743SOL    HW297004  11.962  12.029  13.910
31744SOL     OW97005   7.731  14.085   6.420
31744SOL    HW197006   7.695  14.138   6.350
31744SOL    HW297007   7.740  14.145   6.494
31745SOL     OW97008   4.153   4.279  10.454
31745SOL    HW197009   4.090   4.247  10.519
31745SOL    HW297010   4.145   4.374  10.458
31746SOL     OW97011   0.587   5.229   1.484
31746SOL    HW197012   0.574   5.210   1.577
31746SOL    HW297013   0.682   5.239   1.474
31747SOL     OW97014   9.668  12.498   7.824
31747SOL    HW197015   9.685  12.421   7.878
31747SOL    HW297016   9.611  12.553   7.878
31748SOL     OW97017   0.524   9.936   1.672
31748SOL    HW197018   0.502  10.028   1.687
31748SOL    HW297019   0.569   9.935   1.588
31749SOL     OW97020  11.783   3.846  13.829
31749SOL    HW197021  11.806   3.763  13.871
31749SOL    HW297022  11.743   3.897  13.899
31750SOL     OW97023  13.690  10.472   7.685
31750SOL    HW197024  13.711  10.519   7.605
31750SOL    HW297025  13.626  10.406   7.657
31751SOL     OW97026  10.347   5.005  12.241
31751SOL    HW197027  10.437   5.025  12.268
31751SOL    HW297028  10.298   5.000  12.323
31752SOL     OW97029   0.580   6.747  10.659
31752SOL    HW197030   0.621   6.831  10.680
31752SOL    HW297031   0.487   6.762  10.676
31753SOL     OW97032   9.254   4.482  11.790
31753SOL    HW197033   9.237   4.393  11.822
31753SOL    HW297034   9.274   4.470  11.697
31754SOL     OW97035   7.920   1.608   9.009
31754SOL    HW197036   7.961   1.553   9.076
31754SOL    HW297037   7.964   1.584   8.928
31755SOL     OW97038   9.694   8.208  13.439
31755SOL    HW197039   9.611   8.162  13.429
31755SOL    HW297040   9.760   8.145  13.407
31756SOL     OW97041   5.390   1.078   8.337
31756SOL    HW197042   5.426   1.161   8.368
31756SOL    HW297043   5.298   1.097   8.318
31757SOL     OW97044  13.680   9.481   5.369
31757SOL    HW197045  13.696   9.406   5.312
31757SOL    HW297046  13.649   9.443   5.451
31758SOL     OW97047   6.691   3.646   8.652
31758SOL    HW197048   6.603   3.663   8.617
31758SOL    HW297049   6.694   3.696   8.733
31759SOL     OW97050   5.403   2.538  13.830
31759SOL    HW197051   5.469   2.549  13.899
31759SOL    HW297052   5.448   2.486  13.763
31760SOL     OW97053   7.344   2.152   5.340
31760SOL    HW197054   7.309   2.071   5.304
31760SOL    HW297055   7.410   2.180   5.277
31761SOL     OW97056  14.732   6.452   0.896
31761SOL    HW197057  14.681   6.475   0.819
31761SOL    HW297058  14.678   6.480   0.970
31762SOL     OW97059   0.922   7.331   5.867
31762SOL    HW197060   0.872   7.251   5.852
31762SOL    HW297061   0.919   7.343   5.962
31763SOL     OW97062   5.505   9.018   6.892
31763SOL    HW197063   5.547   9.039   6.976
31763SOL    HW297064   5.531   9.089   6.834
31764SOL     OW97065  10.569   7.005  12.817
31764SOL    HW197066  10.529   6.931  12.772
31764SOL    HW297067  10.495   7.058  12.846
31765SOL     OW97068  10.428   4.407   3.150
31765SOL    HW197069  10.404   4.412   3.243
31765SOL    HW297070  10.499   4.343   3.147
31766SOL     OW97071   8.762   0.359  10.450
31766SOL    HW197072   8.710   0.298  10.502
31766SOL    HW297073   8.753   0.443  10.495
31767SOL     OW97074  14.869  12.830  14.666
31767SOL    HW197075  14.879  12.908  14.720
31767SOL    HW297076  14.776  12.826  14.646
31768SOL     OW97077  13.678   1.715   8.847
31768SOL    HW197078  13.733   1.753   8.915
31768SOL    HW297079  13.735   1.655   8.799
31769SOL     OW97080   2.047   7.019   9.357
31769SOL    HW197081   2.126   6.973   9.328
31769SOL    HW297082   1.991   6.950   9.391
31770SOL     OW97083   1.323   0.163  10.839
31770SOL    HW197084   1.238   0.203  10.823
31770SOL    HW297085   1.323   0.141  10.932
31771SOL     OW97086   9.078  14.123   5.433
31771SOL    HW197087   9.082  14.210   5.472
31771SOL    HW297088   9.063  14.065   5.507
31772SOL     OW97089   5.993   5.203   7.613
31772SOL    HW197090   6.069   5.153   7.585
31772SOL    HW297091   6.029   5.278   7.660
31773SOL     OW97092   4.272  10.289  13.462
31773SOL    HW197093   4.337  10.352  13.431
31773SOL    HW297094   4.218  10.271  13.386
31774SOL     OW97095   1.095   7.125  10.784
31774SOL    HW197096   1.049   7.115  10.868
31774SOL    HW297097   1.030   7.103  10.718
31775SOL     OW97098   0.680   4.075  13.263
31775SOL    HW197099   0.657   4.118  13.345
31775SOL    HW297100   0.661   4.140  13.195
31776SOL     OW97101  12.122   7.438   5.911
31776SOL    HW197102  12.157   7.511   5.860
31776SOL    HW297103  12.197   7.405   5.961
31777SOL     OW97104  14.495  11.413  13.596
31777SOL    HW197105  14.522  11.422  13.505
31777SOL    HW297106  14.504  11.501  13.633
31778SOL     OW97107   9.406   8.834   5.586
31778SOL    HW197108   9.372   8.749   5.613
31778SOL    HW297109   9.336   8.896   5.609
31779SOL     OW97110   0.247   3.195  10.238
31779SOL    HW197111   0.342   3.201  10.229
31779SOL    HW297112   0.212   3.245  10.165
31780SOL     OW97113   6.724   0.264   2.496
31780SOL    HW197114   6.744   0.310   2.414
31780SOL    HW297115   6.709   0.174   2.469
31781SOL     OW97116   7.829   6.346   0.974
31781SOL    HW197117   7.798   6.269   1.022
31781SOL    HW297118   7.917   6.321   0.945
31782SOL     OW97119  14.296   7.092  10.331
31782SOL    HW197120  14.231   7.025  10.350
31782SOL    HW297121  14.271   7.126  10.244
31783SOL     OW97122   2.785   8.216   1.974
31783SOL    HW197123   2.694   8.236   1.955
31783SOL    HW297124   2.792   8.226   2.069
31784SOL     OW97125  11.052  10.784  14.264
31784SOL    HW197126  10.964  10.771  14.229
31784SOL    HW297127  11.081  10.867  14.226
31785SOL     OW97128   8.834  10.094  11.113
31785SOL    HW197129   8.841  10.113  11.206
31785SOL    HW297130   8.792  10.172  11.076
31786SOL     OW97131   8.376  14.393  13.175
31786SOL    HW197132   8.398  14.420  13.265
31786SOL    HW297133   8.305  14.330  13.186
31787SOL     OW97134  13.683   5.706   6.228
31787SOL    HW197135  13.617   5.759   6.272
31787SOL    HW297136  13.687   5.742   6.139
31788SOL     OW97137  12.531   9.382  14.144
31788SOL    HW197138  12.589   9.373  14.068
31788SOL    HW297139  12.556   9.309  14.202
31789SOL     OW97140  10.625   9.039  12.791
31789SOL    HW197141  10.569   8.964  12.813
31789SOL    HW297142  10.628   9.091  12.872
31790SOL     OW97143  12.486  10.360   1.725
31790SOL    HW197144  12.530  10.393   1.646
31790SOL    HW297145  12.486  10.265   1.714
31791SOL     OW97146   3.121   3.630   5.368
31791SOL    HW197147   3.193   3.569   5.353
31791SOL    HW297148   3.053   3.577   5.410
31792SOL     OW97149   3.480   4.669  12.591
31792SOL    HW197150   3.534   4.742  12.620
31792SOL    HW297151   3.506   4.654  12.500
31793SOL     OW97152   0.279  10.751   7.163
31793SOL    HW197153   0.247  10.661   7.172
31793SOL    HW297154   0.251  10.777   7.075
31794SOL     OW97155   0.225   5.956   0.683
31794SOL    HW197156   0.155   6.021   0.690
31794SOL    HW297157   0.197   5.884   0.739
31795SOL     OW97158   2.884   4.780   7.224
31795SOL    HW197159   2.923   4.694   7.242
31795SOL    HW297160   2.953   4.842   7.246
31796SOL     OW97161   1.521   8.500   6.863
31796SOL    HW197162   1.526   8.538   6.951
31796SOL    HW297163   1.537   8.574   6.805
31797SOL     OW97164   6.718  11.302   0.877
31797SOL    HW197165   6.795  11.345   0.840
31797SOL    HW297166   6.751  11.222   0.918
31798SOL     OW97167   2.407   3.613   6.464
31798SOL    HW197168   2.354   3.692   6.463
31798SOL    HW297169   2.490   3.639   6.423
31799SOL     OW97170  11.182   3.497   4.153
31799SOL    HW197171  11.237   3.439   4.206
31799SOL    HW297172  11.158   3.567   4.213
31800SOL     OW97173  13.950  11.829   9.739
31800SOL    HW197174  14.010  11.898   9.711
31800SOL    HW297175  13.997  11.747   9.721
31801SOL     OW97176   5.194   2.821   8.268
31801SOL    HW197177   5.232   2.799   8.353
31801SOL    HW297178   5.240   2.901   8.241
31802SOL     OW97179  14.666   6.399   3.366
31802SOL    HW197180  14.756   6.431   3.366
31802SOL    HW297181  14.653   6.363   3.454
31803SOL     OW97182   5.828   3.445  11.100
31803SOL    HW197183   5.782   3.472  11.021
31803SOL    HW297184   5.830   3.349  11.095
31804SOL     OW97185   0.617   2.701   6.646
31804SOL    HW197186   0.579   2.615   6.663
31804SOL    HW297187   0.543   2.762   6.652
31805SOL     OW97188   8.051  11.376   8.228
31805SOL    HW197189   8.096  11.427   8.161
31805SOL    HW297190   8.106  11.385   8.306
31806SOL     OW97191   1.100  10.728  13.673
31806SOL    HW197192   1.193  10.708  13.659
31806SOL    HW297193   1.078  10.685  13.755
31807SOL     OW97194   6.762   2.582  14.589
31807SOL    HW197195   6.713   2.505  14.618
31807SOL    HW297196   6.747   2.647  14.658
31808SOL     OW97197  13.760  12.425   2.778
31808SOL    HW197198  13.722  12.373   2.708
31808SOL    HW297199  13.781  12.361   2.847
31809SOL     OW97200   5.223   7.587   3.101
31809SOL    HW197201   5.264   7.646   3.164
31809SOL    HW297202   5.294   7.530   3.072
31810SOL     OW97203   0.047   3.135   5.234
31810SOL    HW197204  14.836   3.142   5.211
31810SOL    HW297205   0.048   3.145   5.330
31811SOL     OW97206   9.059   4.616   6.587
31811SOL    HW197207   9.040   4.524   6.606
31811SOL    HW297208   9.102   4.649   6.666
31812SOL     OW97209  11.289  11.101   3.517
31812SOL    HW197210  11.272  11.098   3.423
31812SOL    HW297211  11.219  11.047   3.555
31813SOL     OW97212  11.306   2.883  10.182
31813SOL    HW197213  11.341   2.794  10.187
31813SOL    HW297214  11.212   2.872  10.196
31814SOL     OW97215   1.693   6.501   0.183
31814SOL    HW197216   1.745   6.461   0.253
31814SOL    HW297217   1.638   6.565   0.229
31815SOL     OW97218   6.118   5.589   9.276
31815SOL    HW197219   6.107   5.647   9.200
31815SOL    HW297220   6.170   5.640   9.337
31816SOL     OW97221   6.156   2.606  13.053
31816SOL    HW197222   6.106   2.687  13.065
31816SOL    HW297223   6.243   2.636  13.029
31817SOL     OW97224  14.006   8.457   1.872
31817SOL    HW197225  14.100   8.450   1.891
31817SOL    HW297226  13.992   8.550   1.857
31818SOL     OW97227   2.735   2.163  11.100
31818SOL    HW197228   2.810   2.222  11.086
31818SOL    HW297229   2.762   2.106  11.171
31819SOL     OW97230  14.052   5.698  14.353
31819SOL    HW197231  14.131   5.731  14.311
31819SOL    HW297232  14.002   5.659  14.281
31820SOL     OW97233   3.084   6.231   1.012
31820SOL    HW197234   3.049   6.145   1.038
31820SOL    HW297235   3.008   6.278   0.977
31821SOL     OW97236  10.983  11.926   5.095
31821SOL    HW197237  11.055  11.929   5.032
31821SOL    HW297238  10.913  11.879   5.049
31822SOL     OW97239   7.712   6.898  14.595
31822SOL    HW197240   7.731   6.808  14.569
31822SOL    HW297241   7.630   6.919  14.551
31823SOL     OW97242  11.694  11.137   4.083
31823SOL    HW197243  11.629  11.166   4.020
31823SOL    HW297244  11.747  11.074   4.035
31824SOL     OW97245   8.928  11.335   2.086
31824SOL    HW197246   8.980  11.341   2.005
31824SOL    HW297247   8.891  11.247   2.085
31825SOL     OW97248   2.471   4.582  12.725
31825SOL    HW197249   2.555   4.545  12.695
31825SOL    HW297250   2.410   4.508  12.722
31826SOL     OW97251   8.847   7.930   3.764
31826SOL    HW197252   8.822   8.017   3.796
31826SOL    HW297253   8.860   7.942   3.670
31827SOL     OW97254   3.912   3.418   7.044
31827SOL    HW197255   3.834   3.422   7.099
31827SOL    HW297256   3.942   3.509   7.039
31828SOL     OW97257   1.124   1.124   6.558
31828SOL    HW197258   1.072   1.046   6.581
31828SOL    HW297259   1.059   1.192   6.541
31829SOL     OW97260   5.483   9.747   6.451
31829SOL    HW197261   5.433   9.825   6.428
31829SOL    HW297262   5.557   9.747   6.391
31830SOL     OW97263   7.484   9.498   4.004
31830SOL    HW197264   7.577   9.489   3.982
31830SOL    HW297265   7.457   9.411   4.030
31831SOL     OW97266   4.501  12.673   9.747
31831SOL    HW197267   4.448  12.716   9.680
31831SOL    HW297268   4.455  12.691   9.829
31832SOL     OW97269  12.085   7.404   3.929
31832SOL    HW197270  12.121   7.448   3.852
31832SOL    HW297271  12.113   7.313   3.920
31833SOL     OW97272   8.288   3.914   6.784
31833SOL    HW197273   8.320   3.895   6.872
31833SOL    HW297274   8.193   3.904   6.789
31834SOL     OW97275   0.396  13.689   2.502
31834SOL    HW197276   0.400  13.649   2.415
31834SOL    HW297277   0.409  13.615   2.562
31835SOL     OW97278   3.583   6.024  12.838
31835SOL    HW197279   3.616   6.078  12.766
31835SOL    HW297280   3.499   6.064  12.861
31836SOL     OW97281   2.160   5.212   2.743
31836SOL    HW197282   2.203   5.219   2.828
31836SOL    HW297283   2.138   5.119   2.735
31837SOL     OW97284   6.149   5.545   0.757
31837SOL    HW197285   6.176   5.612   0.694
31837SOL    HW297286   6.194   5.569   0.838
31838SOL     OW97287   5.986   4.212   2.879
31838SOL    HW197288   5.990   4.221   2.975
31838SOL    HW297289   5.931   4.135   2.865
31839SOL     OW97290   4.161  11.610   5.127
31839SOL    HW197291   4.197  11.528   5.162
31839SOL    HW297292   4.130  11.588   5.039
31840SOL     OW97293   0.241  14.750   3.899
31840SOL    HW197294   0.239  14.834   3.944
31840SOL    HW297295   0.206  14.769   3.812
31841SOL     OW97296  11.574   6.887   9.185
31841SOL    HW197297  11.486   6.888   9.222
31841SOL    HW297298  11.607   6.976   9.197
31842SOL     OW97299   4.118   0.319   5.344
31842SOL    HW197300   4.030   0.314   5.307
31842SOL    HW297301   4.160   0.391   5.297
31843SOL     OW97302  11.691   2.140  14.321
31843SOL    HW197303  11.735   2.098  14.395
31843SOL    HW297304  11.683   2.071  14.255
31844SOL     OW97305   4.721   0.330   0.143
31844SOL    HW197306   4.687   0.242   0.162
31844SOL    HW297307   4.663   0.364   0.074
31845SOL     OW97308   3.144   8.936  11.934
31845SOL    HW197309   3.126   8.857  11.884
31845SOL    HW297310   3.237   8.930  11.956
31846SOL     OW97311   3.896   0.129  13.887
31846SOL    HW197312   3.883   0.080  13.806
31846SOL    HW297313   3.919   0.062  13.952
31847SOL     OW97314   1.081   0.231  10.784
31847SOL    HW197315   1.044   0.158  10.834
31847SOL    HW297316   1.023   0.241  10.709
31848SOL     OW97317   9.334   0.293   2.163
31848SOL    HW197318   9.244   0.266   2.182
31848SOL    HW297319   9.325   0.381   2.126
31849SOL     OW97320   6.211   5.422  13.654
31849SOL    HW197321   6.272   5.405  13.725
31849SOL    HW297322   6.159   5.342  13.648
31850SOL     OW97323   1.522   1.092   6.251
31850SOL    HW197324   1.603   1.135   6.222
31850SOL    HW297325   1.503   1.131   6.337
31851SOL     OW97326  11.112   2.099   2.480
31851SOL    HW197327  11.201   2.102   2.515
31851SOL    HW297328  11.056   2.111   2.557
31852SOL     OW97329   9.488   1.777   5.069
31852SOL    HW197330   9.495   1.685   5.042
31852SOL    HW297331   9.411   1.779   5.125
31853SOL     OW97332   5.868   9.294  10.178
31853SOL    HW197333   5.873   9.276  10.272
31853SOL    HW297334   5.844   9.387  10.174
31854SOL     OW97335  12.142  12.486   0.399
31854SOL    HW197336  12.053  12.491   0.433
31854SOL    HW297337  12.183  12.415   0.448
31855SOL     OW97338  12.501   8.777   4.283
31855SOL    HW197339  12.466   8.691   4.308
31855SOL    HW297340  12.453   8.839   4.337
31856SOL     OW97341   7.343  14.083   6.516
31856SOL    HW197342   7.309  14.015   6.458
31856SOL    HW297343   7.269  14.142   6.530
31857SOL     OW97344   5.395   5.727  12.432
31857SOL    HW197345   5.322   5.786  12.452
31857SOL    HW297346   5.381   5.703  12.340
31858SOL     OW97347   5.780   9.140   7.982
31858SOL    HW197348   5.776   9.045   7.978
31858SOL    HW297349   5.757   9.169   7.894
31859SOL     OW97350   8.684  11.858   6.485
31859SOL    HW197351   8.666  11.901   6.569
31859SOL    HW297352   8.628  11.904   6.423
31860SOL     OW97353   6.281   2.922   5.069
31860SOL    HW197354   6.233   2.894   5.147
31860SOL    HW297355   6.213   2.956   5.010
31861SOL     OW97356   5.856  12.819  11.697
31861SOL    HW197357   5.858  12.861  11.783
31861SOL    HW297358   5.771  12.845  11.660
31862SOL     OW97359  14.324   9.930   2.647
31862SOL    HW197360  14.240   9.947   2.691
31862SOL    HW297361  14.313   9.968   2.560
31863SOL     OW97362   2.862  13.364  12.792
31863SOL    HW197363   2.934  13.405  12.841
31863SOL    HW297364   2.905  13.297  12.738
31864SOL     OW97365   2.092   5.249   7.975
31864SOL    HW197366   2.097   5.157   7.947
31864SOL    HW297367   2.140   5.252   8.058
31865SOL     OW97368   3.163  12.866   7.971
31865SOL    HW197369   3.074  12.854   8.002
31865SOL    HW297370   3.204  12.780   7.981
31866SOL     OW97371  14.217   3.359   3.786
31866SOL    HW197372  14.175   3.377   3.701
31866SOL    HW297373  14.277   3.432   3.799
31867SOL     OW97374  11.905   9.761   3.700
31867SOL    HW197375  11.939   9.845   3.731
31867SOL    HW297376  11.908   9.704   3.778
31868SOL     OW97377   3.421   5.340  11.269
31868SOL    HW197378   3.433   5.284  11.346
31868SOL    HW297379   3.376   5.417  11.302
31869SOL     OW97380   3.549   6.055   9.464
31869SOL    HW197381   3.607   6.065   9.389
31869SOL    HW297382   3.604   6.014   9.531
31870SOL     OW97383   7.602  14.666   0.262
31870SOL    HW197384   7.607  14.613   0.183
31870SOL    HW297385   7.686  14.711   0.267
31871SOL     OW97386   2.704   2.410   7.155
31871SOL    HW197387   2.686   2.481   7.216
31871SOL    HW297388   2.629   2.351   7.164
31872SOL     OW97389   7.396   2.228  11.722
31872SOL    HW197390   7.322   2.205  11.778
31872SOL    HW297391   7.467   2.173  11.753
31873SOL     OW97392  12.079  13.513   2.569
31873SOL    HW197393  12.145  13.566   2.615
31873SOL    HW297394  12.053  13.447   2.633
31874SOL     OW97395   2.314  10.140   1.671
31874SOL    HW197396   2.266  10.096   1.601
31874SOL    HW297397   2.247  10.192   1.717
31875SOL     OW97398   4.290   7.164   2.794
31875SOL    HW197399   4.256   7.093   2.738
31875SOL    HW297400   4.337   7.221   2.733
31876SOL     OW97401   7.117   3.393   1.566
31876SOL    HW197402   7.119   3.489   1.561
31876SOL    HW297403   7.028   3.370   1.541
31877SOL     OW97404   9.932   2.534   5.683
31877SOL    HW197405  10.013   2.582   5.699
31877SOL    HW297406   9.937   2.508   5.591
31878SOL     OW97407   0.844  10.558   5.323
31878SOL    HW197408   0.758  10.598   5.314
31878SOL    HW297409   0.857  10.550   5.417
31879SOL     OW97410   8.688  13.318  13.950
31879SOL    HW197411   8.603  13.277  13.936
31879SOL    HW297412   8.710  13.298  14.041
31880SOL     OW97413   4.939  14.399  12.681
31880SOL    HW197414   5.011  14.393  12.744
31880SOL    HW297415   4.868  14.442  12.729
31881SOL     OW97416  12.290  14.043   9.958
31881SOL    HW197417  12.325  14.132   9.966
31881SOL    HW297418  12.199  14.056   9.933
31882SOL     OW97419  11.265   2.001   4.467
31882SOL    HW197420  11.319   2.067   4.510
31882SOL    HW297421  11.278   2.015   4.373
31883SOL     OW97422   7.870   1.906   0.719
31883SOL    HW197423   7.956   1.923   0.757
31883SOL    HW297424   7.874   1.815   0.690
31884SOL     OW97425   0.420   8.713   3.445
31884SOL    HW197426   0.445   8.797   3.409
31884SOL    HW297427   0.327   8.723   3.467
31885SOL     OW97428   5.060   3.589   3.026
31885SOL    HW197429   5.012   3.519   2.982
31885SOL    HW297430   5.114   3.543   3.091
31886SOL     OW97431   7.845   7.804  10.224
31886SOL    HW197432   7.819   7.712  10.214
31886SOL    HW297433   7.823   7.845  10.141
31887SOL     OW97434  12.953   3.867  14.808
31887SOL    HW197435  12.866   3.828  14.821
31887SOL    HW297436  13.011   3.814  14.863
31888SOL     OW97437   1.190   5.495   3.015
31888SOL    HW197438   1.268   5.549   3.026
31888SOL    HW297439   1.204   5.447   2.933
31889SOL     OW97440   2.517   9.218   5.251
31889SOL    HW197441   2.520   9.312   5.268
31889SOL    HW297442   2.471   9.211   5.168
31890SOL     OW97443  14.186   9.395   5.778
31890SOL    HW197444  14.147   9.420   5.861
31890SOL    HW297445  14.121   9.420   5.712
31891SOL     OW97446  13.419  10.445   6.139
31891SOL    HW197447  13.455  10.490   6.216
31891SOL    HW297448  13.487  10.382   6.115
31892SOL     OW97449  11.053  10.588   5.736
31892SOL    HW197450  11.141  10.585   5.698
31892SOL    HW297451  11.013  10.667   5.699
31893SOL     OW97452  10.803  14.317   6.826
31893SOL    HW197453  10.754  14.377   6.882
31893SOL    HW297454  10.868  14.371   6.782
31894SOL     OW97455   0.590   4.588   8.295
31894SOL    HW197456   0.592   4.671   8.247
31894SOL    HW297457   0.679   4.578   8.330
31895SOL     OW97458   2.364   1.757   2.322
31895SOL    HW197459   2.415   1.830   2.287
31895SOL    HW297460   2.304   1.797   2.385
31896SOL     OW97461  10.966   2.687   6.240
31896SOL    HW197462  11.040   2.741   6.269
31896SOL    HW297463  11.006   2.607   6.206
31897SOL     OW97464  11.390  11.680   2.142
31897SOL    HW197465  11.461  11.669   2.205
31897SOL    HW297466  11.310  11.675   2.194
31898SOL     OW97467   0.941   6.204   6.641
31898SOL    HW197468   1.017   6.150   6.662
31898SOL    HW297469   0.960   6.289   6.682
31899SOL     OW97470  13.681  10.846  12.171
31899SOL    HW197471  13.739  10.869  12.098
31899SOL    HW297472  13.732  10.867  12.249
31900SOL     OW97473  14.874   9.542   7.559
31900SOL    HW197474  14.810   9.575   7.496
31900SOL    HW297475  14.850   9.583   7.642
31901SOL     OW97476  11.795   3.769  14.200
31901SOL    HW197477  11.805   3.698  14.136
31901SOL    HW297478  11.782   3.848  14.146
31902SOL     OW97479   4.200   7.278  11.624
31902SOL    HW197480   4.294   7.278  11.607
31902SOL    HW297481   4.162   7.327  11.551
31903SOL     OW97482   3.629   7.468   5.547
31903SOL    HW197483   3.658   7.427   5.628
31903SOL    HW297484   3.568   7.536   5.575
31904SOL     OW97485   6.308   6.306   5.408
31904SOL    HW197486   6.381   6.314   5.347
31904SOL    HW297487   6.348   6.279   5.491
31905SOL     OW97488   4.497  13.554   8.963
31905SOL    HW197489   4.502  13.612   8.887
31905SOL    HW297490   4.555  13.481   8.940
31906SOL     OW97491  11.439   7.458  11.697
31906SOL    HW197492  11.497   7.427  11.627
31906SOL    HW297493  11.370   7.392  11.702
31907SOL     OW97494   9.316   5.762   6.630
31907SOL    HW197495   9.257   5.718   6.569
31907SOL    HW297496   9.402   5.725   6.611
31908SOL     OW97497  11.304  13.391   4.445
31908SOL    HW197498  11.378  13.447   4.420
31908SOL    HW297499  11.227  13.434   4.408
31909SOL     OW97500  11.081  13.583   4.912
31909SOL    HW197501  11.143  13.550   4.977
31909SOL    HW297502  10.996  13.549   4.940
31910SOL     OW97503   2.965   6.569  14.531
31910SOL    HW197504   2.998   6.599  14.446
31910SOL    HW297505   2.872   6.592  14.530
31911SOL     OW97506  14.081   0.467   0.880
31911SOL    HW197507  14.051   0.378   0.896
31911SOL    HW297508  14.170   0.456   0.845
31912SOL     OW97509   7.877  12.669   9.471
31912SOL    HW197510   7.912  12.614   9.541
31912SOL    HW297511   7.935  12.745   9.468
31913SOL     OW97512  13.972   1.411   3.005
31913SOL    HW197513  13.965   1.360   2.925
31913SOL    HW297514  13.882   1.436   3.026
31914SOL     OW97515   4.814  11.566   0.324
31914SOL    HW197516   4.783  11.655   0.342
31914SOL    HW297517   4.792  11.551   0.232
31915SOL     OW97518  14.068   7.658   4.434
31915SOL    HW197519  14.039   7.723   4.497
31915SOL    HW297520  14.121   7.597   4.485
31916SOL     OW97521   9.977   6.265   5.345
31916SOL    HW197522   9.962   6.171   5.339
31916SOL    HW297523  10.019   6.277   5.431
31917SOL     OW97524   5.993   9.247   2.482
31917SOL    HW197525   5.901   9.255   2.507
31917SOL    HW297526   6.025   9.337   2.479
31918SOL     OW97527   9.700  11.140   7.994
31918SOL    HW197528   9.623  11.192   7.973
31918SOL    HW297529   9.691  11.060   7.941
31919SOL     OW97530   8.218  11.399  13.669
31919SOL    HW197531   8.156  11.336  13.631
31919SOL    HW297532   8.277  11.345  13.722
31920SOL     OW97533   3.270  11.598  10.434
31920SOL    HW197534   3.188  11.615  10.481
31920SOL    HW297535   3.284  11.504  10.444
31921SOL     OW97536   1.150   5.423   0.892
31921SOL    HW197537   1.127   5.508   0.854
31921SOL    HW297538   1.093   5.414   0.968
31922SOL     OW97539   4.070   2.333  12.813
31922SOL    HW197540   4.054   2.288  12.730
31922SOL    HW297541   4.074   2.426  12.789
31923SOL     OW97542  13.106   2.553  13.795
31923SOL    HW197543  13.061   2.494  13.855
31923SOL    HW297544  13.040   2.573  13.728
31924SOL     OW97545   8.590   8.520  12.558
31924SOL    HW197546   8.651   8.525  12.631
31924SOL    HW297547   8.636   8.560  12.484
31925SOL     OW97548  12.229   3.837   5.931
31925SOL    HW197549  12.274   3.772   5.877
31925SOL    HW297550  12.235   3.918   5.879
31926SOL     OW97551  14.256   5.420   7.367
31926SOL    HW197552  14.248   5.500   7.419
31926SOL    HW297553  14.200   5.435   7.291
31927SOL     OW97554   7.941  12.142   6.056
31927SOL    HW197555   7.852  12.122   6.029
31927SOL    HW297556   7.934  12.225   6.104
31928SOL     OW97557   3.124   0.598   2.986
31928SOL    HW197558   3.095   0.658   2.917
31928SOL    HW297559   3.182   0.651   3.041
31929SOL     OW97560   1.941   8.260   7.788
31929SOL    HW197561   1.873   8.246   7.854
31929SOL    HW297562   1.968   8.351   7.800
31930SOL     OW97563   8.755   7.767  12.352
31930SOL    HW197564   8.690   7.754  12.283
31930SOL    HW297565   8.721   7.717  12.426
31931SOL     OW97566   5.303   5.882  12.749
31931SOL    HW197567   5.398   5.874  12.744
31931SOL    HW297568   5.288   5.961  12.802
31932SOL     OW97569   3.037   1.048   0.077
31932SOL    HW197570   3.049   1.097  14.877
31932SOL    HW297571   3.066   1.108   0.146
31933SOL     OW97572   6.463   5.933   9.649
31933SOL    HW197573   6.545   5.885   9.660
31933SOL    HW297574   6.396   5.874   9.685
31934SOL     OW97575   5.590   4.303  11.169
31934SOL    HW197576   5.573   4.240  11.239
31934SOL    HW297577   5.683   4.294  11.150
31935SOL     OW97578  13.116   9.152  14.088
31935SOL    HW197579  13.113   9.243  14.058
31935SOL    HW297580  13.199   9.145  14.135
31936SOL     OW97581  13.595   0.455   1.361
31936SOL    HW197582  13.576   0.440   1.453
31936SOL    HW297583  13.509   0.459   1.319
31937SOL     OW97584   5.251   5.572  12.253
31937SOL    HW197585   5.191   5.516  12.303
31937SOL    HW297586   5.206   5.656  12.247
31938SOL     OW97587  14.307   4.353   8.742
31938SOL    HW197588  14.316   4.277   8.800
31938SOL    HW297589  14.350   4.424   8.790
31939SOL     OW97590   3.222   6.997   0.357
31939SOL    HW197591   3.247   6.923   0.302
31939SOL    HW297592   3.133   6.976   0.387
31940SOL     OW97593   9.676  13.988   8.762
31940SOL    HW197594   9.603  14.036   8.723
31940SOL    HW297595   9.744  13.989   8.694
31941SOL     OW97596   5.593   0.251  11.164
31941SOL    HW197597   5.529   0.233  11.095
31941SOL    HW297598   5.545   0.301  11.230
31942SOL     OW97599   2.511   0.883   8.664
31942SOL    HW197600   2.498   0.806   8.720
31942SOL    HW297601   2.582   0.931   8.706
31943SOL     OW97602   6.905   7.436   0.722
31943SOL    HW197603   6.981   7.395   0.763
31943SOL    HW297604   6.839   7.439   0.791
31944SOL     OW97605   2.515   7.289  10.073
31944SOL    HW197606   2.591   7.237  10.045
31944SOL    HW297607   2.514   7.281  10.168
31945SOL     OW97608  11.684   7.900   6.486
31945SOL    HW197609  11.727   7.971   6.535
31945SOL    HW297610  11.730   7.821   6.513
31946SOL     OW97611   3.645   6.101  13.180
31946SOL    HW197612   3.566   6.048  13.180
31946SOL    HW297613   3.650   6.138  13.092
31947SOL     OW97614  14.456  13.972   7.750
31947SOL    HW197615  14.401  13.949   7.825
31947SOL    HW297616  14.394  13.983   7.678
31948SOL     OW97617  12.643  14.523  10.007
31948SOL    HW197618  12.553  14.498   9.987
31948SOL    HW297619  12.696  14.448   9.979
31949SOL     OW97620   7.324  10.260   9.394
31949SOL    HW197621   7.382  10.321   9.348
31949SOL    HW297622   7.370  10.240   9.475
31950SOL     OW97623   9.803   5.930   2.172
31950SOL    HW197624   9.726   5.941   2.227
31950SOL    HW297625   9.793   5.843   2.133
31951SOL     OW97626  14.710   9.629   9.462
31951SOL    HW197627  14.722   9.557   9.400
31951SOL    HW297628  14.635   9.603   9.514
31952SOL     OW97629  10.004  12.252   4.207
31952SOL    HW197630  10.066  12.281   4.140
31952SOL    HW297631  10.047  12.273   4.290
31953SOL     OW97632   1.851  13.576   6.415
31953SOL    HW197633   1.870  13.537   6.330
31953SOL    HW297634   1.937  13.583   6.458
31954SOL     OW97635   5.802   5.216   8.335
31954SOL    HW197636   5.868   5.248   8.396
31954SOL    HW297637   5.849   5.202   8.253
31955SOL     OW97638   8.595  11.275  10.317
31955SOL    HW197639   8.606  11.332  10.393
31955SOL    HW297640   8.517  11.309  10.273
31956SOL     OW97641   2.111   8.909  14.783
31956SOL    HW197642   2.155   8.986  14.747
31956SOL    HW297643   2.032   8.900  14.731
31957SOL     OW97644   3.986  11.949   3.133
31957SOL    HW197645   4.041  11.979   3.205
31957SOL    HW297646   4.003  11.855   3.128
31958SOL     OW97647  10.034  10.326  14.218
31958SOL    HW197648  10.035  10.350  14.125
31958SOL    HW297649  10.120  10.351  14.250
31959SOL     OW97650   4.294  14.072   2.106
31959SOL    HW197651   4.358  14.045   2.172
31959SOL    HW297652   4.274  13.993   2.057
31960SOL     OW97653   1.490   8.012  12.326
31960SOL    HW197654   1.570   7.994  12.376
31960SOL    HW297655   1.517   8.076  12.260
31961SOL     OW97656  13.859  10.917   1.843
31961SOL    HW197657  13.802  10.864   1.898
31961SOL    HW297658  13.938  10.864   1.831
31962SOL     OW97659  12.754   2.439   3.276
31962SOL    HW197660  12.778   2.483   3.195
31962SOL    HW297661  12.659   2.426   3.269
31963SOL     OW97662  14.855   4.378   0.082
31963SOL    HW197663  14.800   4.417   0.014
31963SOL    HW297664   0.041   4.330   0.033
31964SOL     OW97665  11.537  11.529   9.534
31964SOL    HW197666  11.504  11.445   9.501
31964SOL    HW297667  11.459  11.583   9.545
31965SOL     OW97668  14.732   7.401  12.477
31965SOL    HW197669  14.673   7.341  12.523
31965SOL    HW297670  14.751   7.356  12.394
31966SOL     OW97671  12.815   7.093   8.363
31966SOL    HW197672  12.758   7.149   8.416
31966SOL    HW297673  12.904   7.118   8.389
31967SOL     OW97674   6.352   2.255   5.103
31967SOL    HW197675   6.367   2.329   5.045
31967SOL    HW297676   6.305   2.292   5.177
31968SOL     OW97677   4.779  11.556   2.493
31968SOL    HW197678   4.842  11.537   2.424
31968SOL    HW297679   4.735  11.473   2.509
31969SOL     OW97680   2.279   9.980   3.188
31969SOL    HW197681   2.237  10.031   3.119
31969SOL    HW297682   2.222   9.905   3.201
31970SOL     OW97683  14.042   9.770   6.437
31970SOL    HW197684  14.076   9.695   6.388
31970SOL    HW297685  14.068   9.754   6.527
31971SOL     OW97686   0.460   9.675  14.306
31971SOL    HW197687   0.432   9.766  14.305
31971SOL    HW297688   0.403   9.633  14.370
31972SOL     OW97689  12.942   1.622  13.737
31972SOL    HW197690  12.928   1.623  13.643
31972SOL    HW297691  12.970   1.533  13.757
31973SOL     OW97692   5.686   7.083  10.972
31973SOL    HW197693   5.603   7.078  10.925
31973SOL    HW297694   5.666   7.132  11.052
31974SOL     OW97695   7.999  13.168   4.300
31974SOL    HW197696   7.973  13.116   4.223
31974SOL    HW297697   7.946  13.248   4.294
31975SOL     OW97698  10.702   3.622   4.063
31975SOL    HW197699  10.760   3.673   4.006
31975SOL    HW297700  10.644   3.687   4.103
31976SOL     OW97701   6.482   7.840   9.964
31976SOL    HW197702   6.420   7.774   9.995
31976SOL    HW297703   6.434   7.923   9.972
31977SOL     OW97704   4.542   3.244   0.290
31977SOL    HW197705   4.615   3.272   0.235
31977SOL    HW297706   4.464   3.277   0.245
31978SOL     OW97707   0.316   9.611  14.051
31978SOL    HW197708   0.221   9.622  14.045
31978SOL    HW297709   0.337   9.635  14.142
31979SOL     OW97710  11.452  11.724   5.803
31979SOL    HW197711  11.499  11.642   5.785
31979SOL    HW297712  11.521  11.784   5.834
31980SOL     OW97713   2.544   3.971   5.077
31980SOL    HW197714   2.536   4.057   5.035
31980SOL    HW297715   2.632   3.942   5.057
31981SOL     OW97716   6.446   4.897  10.068
31981SOL    HW197717   6.365   4.917  10.022
31981SOL    HW297718   6.450   4.802  10.071
31982SOL     OW97719  10.476   9.746   4.303
31982SOL    HW197720  10.422   9.821   4.327
31982SOL    HW297721  10.565   9.771   4.331
31983SOL     OW97722  12.398   6.309   6.796
31983SOL    HW197723  12.366   6.228   6.755
31983SOL    HW297724  12.330   6.334   6.857
31984SOL     OW97725  11.674  13.225   8.559
31984SOL    HW197726  11.606  13.200   8.622
31984SOL    HW297727  11.755  13.227   8.610
31985SOL     OW97728  12.029   9.546   1.586
31985SOL    HW197729  11.990   9.633   1.593
31985SOL    HW297730  11.963   9.487   1.622
31986SOL     OW97731   2.389   0.504   0.223
31986SOL    HW197732   2.343   0.422   0.212
31986SOL    HW297733   2.463   0.483   0.280
31987SOL     OW97734  11.799   3.070   6.576
31987SOL    HW197735  11.869   3.111   6.626
31987SOL    HW297736  11.766   3.139   6.518
31988SOL     OW97737  13.074   2.871   1.800
31988SOL    HW197738  13.168   2.874   1.779
31988SOL    HW297739  13.070   2.850   1.893
31989SOL     OW97740   5.242   6.303   1.552
31989SOL    HW197741   5.281   6.390   1.545
31989SOL    HW297742   5.293   6.259   1.620
31990SOL     OW97743  10.776   9.482   2.584
31990SOL    HW197744  10.732   9.560   2.551
31990SOL    HW297745  10.706   9.417   2.591
31991SOL     OW97746   5.454   3.351   3.842
31991SOL    HW197747   5.386   3.341   3.775
31991SOL    HW297748   5.522   3.403   3.800
31992SOL     OW97749  11.651  12.391   3.002
31992SOL    HW197750  11.627  12.389   2.909
31992SOL    HW297751  11.605  12.467   3.037
31993SOL     OW97752  12.669   7.854   3.876
31993SOL    HW197753  12.640   7.934   3.832
31993SOL    HW297754  12.602   7.838   3.943
31994SOL     OW97755   2.708  11.976  12.449
31994SOL    HW197756   2.751  11.907  12.398
31994SOL    HW297757   2.624  11.938  12.476
31995SOL     OW97758   6.469   0.648   5.388
31995SOL    HW197759   6.547   0.593   5.379
31995SOL    HW297760   6.475   0.709   5.314
31996SOL     OW97761   5.235  11.780  12.472
31996SOL    HW197762   5.206  11.846  12.536
31996SOL    HW297763   5.159  11.769  12.414
31997SOL     OW97764  13.058  13.907   9.232
31997SOL    HW197765  13.112  13.979   9.199
31997SOL    HW297766  12.986  13.951   9.279
31998SOL     OW97767  10.570   4.345  12.088
31998SOL    HW197768  10.536   4.434  12.090
31998SOL    HW297769  10.609   4.336  12.001
31999SOL     OW97770   2.299   3.758  10.749
31999SOL    HW197771   2.371   3.700  10.773
31999SOL    HW297772   2.232   3.699  10.713
32000SOL     OW97773   7.754  12.188  13.724
32000SOL    HW197774   7.744  12.100  13.760
32000SOL    HW297775   7.688  12.195  13.655
32001SOL     OW97776   6.021   5.868   6.305
32001SOL    HW197777   6.107   5.889   6.270
32001SOL    HW297778   5.994   5.947   6.352
32002SOL     OW97779   6.464  10.470   6.817
32002SOL    HW197780   6.444  10.394   6.872
32002SOL    HW297781   6.399  10.467   6.747
32003SOL     OW97782   9.651   6.483   0.055
32003SOL    HW197783   9.728   6.435   0.085
32003SOL    HW297784   9.578   6.426   0.075
32004SOL     OW97785  13.000   8.763  11.488
32004SOL    HW197786  13.092   8.745  11.471
32004SOL    HW297787  12.998   8.856  11.509
32005SOL     OW97788   6.469   7.269   6.799
32005SOL    HW197789   6.427   7.327   6.862
32005SOL    HW297790   6.464   7.315   6.716
32006SOL     OW97791   5.683  12.589   4.443
32006SOL    HW197792   5.743  12.603   4.517
32006SOL    HW297793   5.726  12.634   4.370
32007SOL     OW97794   4.579   0.229   3.648
32007SOL    HW197795   4.533   0.229   3.732
32007SOL    HW297796   4.554   0.312   3.607
32008SOL     OW97797  14.497  13.905   4.058
32008SOL    HW197798  14.588  13.888   4.085
32008SOL    HW297799  14.498  13.996   4.031
32009SOL     OW97800   8.997   7.695   4.908
32009SOL    HW197801   9.030   7.717   4.821
32009SOL    HW297802   8.944   7.617   4.894
32010SOL     OW97803   0.864   1.986   2.871
32010SOL    HW197804   0.904   1.952   2.951
32010SOL    HW297805   0.774   2.006   2.895
32011SOL     OW97806   3.571   7.612  14.595
32011SOL    HW197807   3.659   7.651  14.596
32011SOL    HW297808   3.585   7.522  14.568
32012SOL     OW97809  10.973   8.621   7.055
32012SOL    HW197810  11.035   8.550   7.075
32012SOL    HW297811  11.029   8.696   7.035
32013SOL     OW97812   7.139  14.472   8.874
32013SOL    HW197813   7.091  14.483   8.792
32013SOL    HW297814   7.221  14.429   8.848
32014SOL     OW97815   6.160  11.764   3.692
32014SOL    HW197816   6.103  11.711   3.636
32014SOL    HW297817   6.242  11.714   3.696
32015SOL     OW97818   5.778  10.705  13.522
32015SOL    HW197819   5.792  10.781  13.465
32015SOL    HW297820   5.730  10.740  13.597
32016SOL     OW97821   0.789   0.310   1.349
32016SOL    HW197822   0.763   0.218   1.345
32016SOL    HW297823   0.828   0.319   1.436
32017SOL     OW97824  11.124   9.159   4.416
32017SOL    HW197825  11.123   9.134   4.508
32017SOL    HW297826  11.152   9.080   4.370
32018SOL     OW97827  11.432  12.708  12.248
32018SOL    HW197828  11.472  12.748  12.171
32018SOL    HW297829  11.479  12.746  12.322
32019SOL     OW97830   8.531   0.180   6.471
32019SOL    HW197831   8.503   0.136   6.552
32019SOL    HW297832   8.461   0.243   6.453
32020SOL     OW97833   4.397  13.730   4.249
32020SOL    HW197834   4.396  13.646   4.295
32020SOL    HW297835   4.489  13.756   4.248
32021SOL     OW97836   2.201   4.521   9.361
32021SOL    HW197837   2.255   4.578   9.416
32021SOL    HW297838   2.116   4.564   9.356
32022SOL     OW97839   0.107   8.435   1.771
32022SOL    HW197840   0.013   8.417   1.776
32022SOL    HW297841   0.120   8.508   1.832
32023SOL     OW97842   9.978   5.083   8.733
32023SOL    HW197843   9.920   5.142   8.685
32023SOL    HW297844  10.008   5.020   8.667
32024SOL     OW97845   1.561   0.454   5.697
32024SOL    HW197846   1.615   0.522   5.737
32024SOL    HW297847   1.537   0.490   5.611
32025SOL     OW97848   6.954   6.186   1.992
32025SOL    HW197849   6.883   6.242   1.961
32025SOL    HW297850   6.951   6.193   2.087
32026SOL     OW97851  11.471   6.052   2.902
32026SOL    HW197852  11.526   6.127   2.877
32026SOL    HW297853  11.422   6.083   2.978
32027SOL     OW97854  12.537   4.496   1.939
32027SOL    HW197855  12.530   4.570   2.000
32027SOL    HW297856  12.541   4.536   1.852
32028SOL     OW97857   1.267  14.071   8.645
32028SOL    HW197858   1.201  14.125   8.602
32028SOL    HW297859   1.224  13.986   8.657
32029SOL     OW97860   2.916   4.022   4.179
32029SOL    HW197861   2.961   4.104   4.198
32029SOL    HW297862   2.861   4.042   4.103
32030SOL     OW97863   0.586   9.116   4.304
32030SOL    HW197864   0.667   9.155   4.272
32030SOL    HW297865   0.614   9.064   4.380
32031SOL     OW97866   6.262  12.876   2.491
32031SOL    HW197867   6.179  12.902   2.451
32031SOL    HW297868   6.284  12.950   2.549
32032SOL     OW97869   1.323   7.929   7.884
32032SOL    HW197870   1.278   7.883   7.813
32032SOL    HW297871   1.256   7.984   7.924
32033SOL     OW97872   5.557   7.899   8.383
32033SOL    HW197873   5.526   7.989   8.372
32033SOL    HW297874   5.480   7.850   8.412
32034SOL     OW97875  11.608  10.822   0.881
32034SOL    HW197876  11.689  10.823   0.830
32034SOL    HW297877  11.546  10.871   0.826
32035SOL     OW97878   8.244   8.656  13.627
32035SOL    HW197879   8.273   8.712  13.555
32035SOL    HW297880   8.151   8.677  13.638
32036SOL     OW97881  10.752   2.525   9.092
32036SOL    HW197882  10.814   2.524   9.165
32036SOL    HW297883  10.757   2.613   9.057
32037SOL     OW97884   7.749   2.700  12.862
32037SOL    HW197885   7.746   2.605  12.863
32037SOL    HW297886   7.842   2.721  12.877
32038SOL     OW97887   3.802   7.708  13.836
32038SOL    HW197888   3.764   7.703  13.748
32038SOL    HW297889   3.883   7.656  13.830
32039SOL     OW97890  14.314   4.498  12.373
32039SOL    HW197891  14.334   4.408  12.350
32039SOL    HW297892  14.242   4.493  12.436
32040SOL     OW97893   1.956   2.373   0.901
32040SOL    HW197894   2.015   2.442   0.933
32040SOL    HW297895   1.888   2.367   0.969
32041SOL     OW97896   7.699   6.948  14.853
32041SOL    HW197897   7.645   7.027  14.857
32041SOL    HW297898   7.696   6.921  14.761
32042SOL     OW97899   2.388   1.121   7.749
32042SOL    HW197900   2.316   1.110   7.811
32042SOL    HW297901   2.438   1.040   7.755
32043SOL     OW97902  13.933   9.458   5.592
32043SOL    HW197903  13.926   9.398   5.518
32043SOL    HW297904  13.946   9.544   5.552
32044SOL     OW97905  11.651   4.316   0.021
32044SOL    HW197906  11.605   4.328  14.819
32044SOL    HW297907  11.731   4.268  14.879
32045SOL     OW97908   5.406   1.415   4.485
32045SOL    HW197909   5.457   1.395   4.564
32045SOL    HW297910   5.336   1.472   4.515
32046SOL     OW97911  11.369  12.738   9.833
32046SOL    HW197912  11.315  12.788   9.895
32046SOL    HW297913  11.388  12.800   9.762
32047SOL     OW97914  13.578   9.047   6.612
32047SOL    HW197915  13.616   9.067   6.698
32047SOL    HW297916  13.603   9.122   6.557
32048SOL     OW97917   8.202   3.751   7.784
32048SOL    HW197918   8.119   3.746   7.736
32048SOL    HW297919   8.263   3.792   7.722
32049SOL     OW97920  13.407   7.940  13.251
32049SOL    HW197921  13.411   7.915  13.343
32049SOL    HW297922  13.379   8.031  13.252
32050SOL     OW97923   1.900   0.724   9.262
32050SOL    HW197924   1.868   0.774   9.187
32050SOL    HW297925   1.944   0.648   9.224
32051SOL     OW97926  11.160  11.839   3.434
32051SOL    HW197927  11.243  11.791   3.425
32051SOL    HW297928  11.187  11.930   3.446
32052SOL     OW97929  13.364   4.394   8.666
32052SOL    HW197930  13.296   4.328   8.679
32052SOL    HW297931  13.445   4.344   8.656
32053SOL     OW97932   8.781  11.001  14.677
32053SOL    HW197933   8.822  10.970  14.596
32053SOL    HW297934   8.689  11.010  14.656
32054SOL     OW97935   1.410   1.510   6.886
32054SOL    HW197936   1.426   1.427   6.931
32054SOL    HW297937   1.496   1.553   6.885
32055SOL     OW97938  12.195   0.326  11.437
32055SOL    HW197939  12.287   0.302  11.427
32055SOL    HW297940  12.164   0.340  11.348
32056SOL     OW97941  11.820  14.004   2.846
32056SOL    HW197942  11.905  14.038   2.873
32056SOL    HW297943  11.809  13.923   2.896
32057SOL     OW97944   9.172   2.648   0.797
32057SOL    HW197945   9.179   2.645   0.701
32057SOL    HW297946   9.262   2.655   0.827
32058SOL     OW97947  11.050   8.774   7.826
32058SOL    HW197948  10.994   8.841   7.866
32058SOL    HW297949  10.990   8.708   7.794
32059SOL     OW97950   2.214   0.218   2.927
32059SOL    HW197951   2.186   0.265   3.005
32059SOL    HW297952   2.156   0.250   2.858
32060SOL     OW97953   7.817   9.363   8.626
32060SOL    HW197954   7.754   9.412   8.574
32060SOL    HW297955   7.766   9.326   8.698
32061SOL     OW97956   8.651  13.734   7.054
32061SOL    HW197957   8.591  13.750   6.981
32061SOL    HW297958   8.734  13.711   7.012
32062SOL     OW97959  11.071  10.653   7.755
32062SOL    HW197960  11.060  10.558   7.754
32062SOL    HW297961  11.062  10.679   7.663
32063SOL     OW97962  13.366  10.506   9.212
32063SOL    HW197963  13.315  10.497   9.293
32063SOL    HW297964  13.329  10.584   9.170
32064SOL     OW97965   8.129   3.051   3.220
32064SOL    HW197966   8.118   3.031   3.127
32064SOL    HW297967   8.220   3.027   3.239
32065SOL     OW97968   9.966   7.556   1.411
32065SOL    HW197969   9.980   7.642   1.371
32065SOL    HW297970  10.054   7.523   1.429
32066SOL     OW97971   1.034   9.353  12.621
32066SOL    HW197972   1.117   9.387  12.586
32066SOL    HW297973   1.058   9.272  12.665
32067SOL     OW97974   7.739  12.408   9.625
32067SOL    HW197975   7.711  12.316   9.632
32067SOL    HW297976   7.826  12.403   9.584
32068SOL     OW97977   7.913  14.879  11.687
32068SOL    HW197978   7.819  14.863  11.700
32068SOL    HW297979   7.951  14.792  11.680
32069SOL     OW97980  11.677   9.116   1.355
32069SOL    HW197981  11.681   9.064   1.435
32069SOL    HW297982  11.752   9.087   1.304
32070SOL     OW97983   1.204   3.316   8.927
32070SOL    HW197984   1.266   3.359   8.986
32070SOL    HW297985   1.258   3.257   8.874
32071SOL     OW97986  12.283   5.183  10.760
32071SOL    HW197987  12.237   5.250  10.709
32071SOL    HW297988  12.343   5.233  10.816
32072SOL     OW97989   4.343   3.813   9.393
32072SOL    HW197990   4.250   3.797   9.376
32072SOL    HW297991   4.389   3.748   9.340
32073SOL     OW97992   1.844  10.613   6.109
32073SOL    HW197993   1.850  10.597   6.203
32073SOL    HW297994   1.752  10.635   6.095
32074SOL     OW97995   8.102   6.641  14.378
32074SOL    HW197996   8.180   6.587  14.387
32074SOL    HW297997   8.124   6.723  14.423
32075SOL     OW97998  13.514   9.338   2.795
32075SOL    HW197999  13.470   9.289   2.725
32075SOL    HW298000  13.578   9.276   2.831
32076SOL     OW98001  11.026   9.909   3.257
32076SOL    HW198002  10.983   9.927   3.174
32076SOL    HW298003  11.010   9.815   3.273
32077SOL     OW98004   8.007   4.635   6.114
32077SOL    HW198005   8.004   4.621   6.209
32077SOL    HW298006   7.980   4.550   6.077
32078SOL     OW98007  10.557  13.807   7.746
32078SOL    HW198008  10.483  13.766   7.792
32078SOL    HW298009  10.635  13.772   7.789
32079SOL     OW98010   9.422   9.645   2.082
32079SOL    HW198011   9.332   9.628   2.054
32079SOL    HW298012   9.475   9.585   2.030
32080SOL     OW98013   9.362  14.487   1.733
32080SOL    HW198014   9.266  14.478   1.739
32080SOL    HW298015   9.395  14.400   1.755
32081SOL     OW98016   6.248   0.853   3.576
32081SOL    HW198017   6.223   0.889   3.491
32081SOL    HW298018   6.236   0.759   3.568
32082SOL     OW98019   0.905   6.976   9.860
32082SOL    HW198020   0.952   7.047   9.817
32082SOL    HW298021   0.818   6.977   9.821
32083SOL     OW98022   2.136   1.503   9.331
32083SOL    HW198023   2.226   1.470   9.330
32083SOL    HW298024   2.130   1.560   9.254
32084SOL     OW98025   8.311  14.696   0.034
32084SOL    HW198026   8.338  14.686   0.125
32084SOL    HW298027   8.366  14.766  14.881
32085SOL     OW98028   4.507  12.670   1.953
32085SOL    HW198029   4.547  12.730   2.015
32085SOL    HW298030   4.422  12.710   1.932
32086SOL     OW98031  13.176  14.822  11.949
32086SOL    HW198032  13.206  14.788  11.865
32086SOL    HW298033  13.240  14.789  12.012
32087SOL     OW98034  13.887   3.958   1.204
32087SOL    HW198035  13.844   3.884   1.161
32087SOL    HW298036  13.951   3.989   1.139
32088SOL     OW98037  14.764  12.978   2.212
32088SOL    HW198038  14.851  12.989   2.250
32088SOL    HW298039  14.727  12.903   2.259
32089SOL     OW98040   6.014   9.885  14.292
32089SOL    HW198041   6.048   9.948  14.356
32089SOL    HW298042   6.065   9.901  14.213
32090SOL     OW98043   6.222  13.604   1.361
32090SOL    HW198044   6.244  13.515   1.333
32090SOL    HW298045   6.147  13.592   1.419
32091SOL     OW98046   4.362  13.163   6.623
32091SOL    HW198047   4.339  13.205   6.706
32091SOL    HW298048   4.283  13.116   6.597
32092SOL     OW98049   7.551   9.575  14.064
32092SOL    HW198050   7.572   9.511  13.996
32092SOL    HW298051   7.464   9.549  14.095
32093SOL     OW98052   1.619  10.197   9.496
32093SOL    HW198053   1.698  10.149   9.472
32093SOL    HW298054   1.640  10.238   9.579
32094SOL     OW98055  10.408   2.690   7.424
32094SOL    HW198056  10.430   2.768   7.373
32094SOL    HW298057  10.314   2.698   7.441
32095SOL     OW98058   6.124  12.540  10.252
32095SOL    HW198059   6.140  12.569  10.342
32095SOL    HW298060   6.030  12.552  10.239
32096SOL     OW98061   0.127  10.010   5.521
32096SOL    HW198062   0.067  10.084   5.528
32096SOL    HW298063   0.125   9.969   5.608
32097SOL     OW98064  14.676  13.763   5.822
32097SOL    HW198065  14.592  13.802   5.797
32097SOL    HW298066  14.716  13.738   5.739
32098SOL     OW98067  12.703  14.477   7.012
32098SOL    HW198068  12.702  14.469   6.917
32098SOL    HW298069  12.793  14.456   7.037
32099SOL     OW98070   7.596   6.290   3.216
32099SOL    HW198071   7.556   6.361   3.165
32099SOL    HW298072   7.663   6.333   3.268
32100SOL     OW98073  12.545   6.692   0.015
32100SOL    HW198074  12.504   6.682  14.810
32100SOL    HW298075  12.548   6.787   0.029
32101SOL     OW98076   6.395   0.415  10.429
32101SOL    HW198077   6.444   0.395  10.509
32101SOL    HW298078   6.354   0.500  10.447
32102SOL     OW98079   0.561  12.751   9.353
32102SOL    HW198080   0.588  12.797   9.433
32102SOL    HW298081   0.615  12.671   9.352
32103SOL     OW98082   1.300  13.613  12.079
32103SOL    HW198083   1.334  13.554  12.012
32103SOL    HW298084   1.377  13.634  12.133
32104SOL     OW98085   7.402   7.289   1.580
32104SOL    HW198086   7.350   7.319   1.655
32104SOL    HW298087   7.377   7.348   1.509
32105SOL     OW98088  10.890  14.771   2.319
32105SOL    HW198089  10.857  14.787   2.230
32105SOL    HW298090  10.812  14.751   2.370
32106SOL     OW98091   3.674   1.885   0.711
32106SOL    HW198092   3.601   1.897   0.771
32106SOL    HW298093   3.636   1.899   0.624
32107SOL     OW98094  11.242   4.037  13.886
32107SOL    HW198095  11.202   3.992  13.811
32107SOL    HW298096  11.191   4.007  13.961
32108SOL     OW98097  10.523  12.307  14.820
32108SOL    HW198098  10.531  12.357   0.020
32108SOL    HW298099  10.497  12.219  14.849
32109SOL     OW98100   1.011   7.283  11.350
32109SOL    HW198101   0.960   7.349  11.398
32109SOL    HW298102   1.019   7.319  11.262
32110SOL     OW98103   6.777  10.031   7.193
32110SOL    HW198104   6.781   9.947   7.148
32110SOL    HW298105   6.724  10.087   7.136
32111SOL     OW98106   4.536   1.544   1.046
32111SOL    HW198107   4.559   1.522   1.136
32111SOL    HW298108   4.620   1.554   1.001
32112SOL     OW98109   4.807   1.334  14.399
32112SOL    HW198110   4.743   1.405  14.393
32112SOL    HW298111   4.794   1.283  14.319
32113SOL     OW98112   1.316  11.639   8.699
32113SOL    HW198113   1.375  11.697   8.747
32113SOL    HW298114   1.239  11.631   8.756
32114SOL     OW98115   4.985   4.320   2.070
32114SOL    HW198116   4.997   4.290   1.980
32114SOL    HW298117   4.964   4.241   2.119
32115SOL     OW98118   9.261   8.665   6.500
32115SOL    HW198119   9.335   8.605   6.507
32115SOL    HW298120   9.223   8.647   6.414
32116SOL     OW98121  10.656   5.421   4.783
32116SOL    HW198122  10.641   5.515   4.768
32116SOL    HW298123  10.717   5.419   4.857
32117SOL     OW98124  11.539  14.768   9.817
32117SOL    HW198125  11.526  14.858   9.787
32117SOL    HW298126  11.573  14.722   9.740
32118SOL     OW98127  14.484  10.830   4.144
32118SOL    HW198128  14.445  10.744   4.158
32118SOL    HW298129  14.477  10.874   4.229
32119SOL     OW98130   7.109  14.385   8.135
32119SOL    HW198131   7.102  14.292   8.113
32119SOL    HW298132   7.184  14.416   8.083
32120SOL     OW98133   9.567  12.918   8.829
32120SOL    HW198134   9.633  12.987   8.825
32120SOL    HW298135   9.498  12.948   8.770
32121SOL     OW98136   2.949   2.341   7.244
32121SOL    HW198137   2.854   2.341   7.230
32121SOL    HW298138   2.963   2.276   7.313
32122SOL     OW98139  14.421   3.122   1.734
32122SOL    HW198140  14.419   3.211   1.699
32122SOL    HW298141  14.456   3.132   1.823
32123SOL     OW98142  13.602  10.386   7.953
32123SOL    HW198143  13.659  10.320   7.992
32123SOL    HW298144  13.657  10.432   7.890
32124SOL     OW98145  11.322   8.849   3.259
32124SOL    HW198146  11.365   8.773   3.299
32124SOL    HW298147  11.359   8.854   3.171
32125SOL     OW98148  12.486   9.128  10.290
32125SOL    HW198149  12.424   9.102  10.222
32125SOL    HW298150  12.433   9.166  10.359
32126SOL     OW98151   6.859   7.443   7.277
32126SOL    HW198152   6.786   7.394   7.240
32126SOL    HW298153   6.936   7.414   7.228
32127SOL     OW98154   2.845   7.576  13.372
32127SOL    HW198155   2.783   7.504  13.357
32127SOL    HW298156   2.846   7.625  13.289
32128SOL     OW98157  13.757   4.085   6.726
32128SOL    HW198158  13.837   4.123   6.690
32128SOL    HW298159  13.728   4.147   6.792
32129SOL     OW98160  14.250   6.485  11.695
32129SOL    HW198161  14.312   6.443  11.755
32129SOL    HW298162  14.178   6.514  11.751
32130SOL     OW98163   4.142  11.200   9.330
32130SOL    HW198164   4.075  11.232   9.389
32130SOL    HW298165   4.224  11.206   9.380
32131SOL     OW98166   3.132   1.086  12.779
32131SOL    HW198167   3.182   1.162  12.752
32131SOL    HW298168   3.153   1.074  12.871
32132SOL     OW98169   2.313  12.604   2.633
32132SOL    HW198170   2.351  12.674   2.687
32132SOL    HW298171   2.346  12.622   2.545
32133SOL     OW98172   2.064   4.517   8.534
32133SOL    HW198173   2.002   4.589   8.530
32133SOL    HW298174   2.053   4.470   8.451
32134SOL     OW98175   3.466   4.372  13.626
32134SOL    HW198176   3.383   4.401  13.663
32134SOL    HW298177   3.532   4.401  13.689
32135SOL     OW98178   6.157   8.896   6.669
32135SOL    HW198179   6.164   8.989   6.651
32135SOL    HW298180   6.142   8.891   6.763
32136SOL     OW98181   8.086   9.821   9.264
32136SOL    HW198182   8.008   9.765   9.259
32136SOL    HW298183   8.066   9.894   9.205
32137SOL     OW98184  12.837   0.632   1.643
32137SOL    HW198185  12.750   0.592   1.643
32137SOL    HW298186  12.822   0.722   1.614
32138SOL     OW98187   0.516   2.942   5.767
32138SOL    HW198188   0.562   3.016   5.807
32138SOL    HW298189   0.539   2.947   5.674
32139SOL     OW98190  10.331  12.017  12.961
32139SOL    HW198191  10.348  12.092  12.904
32139SOL    HW298192  10.285  11.954  12.905
32140SOL     OW98193   8.526   2.813   2.720
32140SOL    HW198194   8.517   2.718   2.713
32140SOL    HW298195   8.558   2.840   2.634
32141SOL     OW98196   0.402   3.938   1.897
32141SOL    HW198197   0.370   3.848   1.894
32141SOL    HW298198   0.326   3.990   1.920
32142SOL     OW98199   8.339   4.800   1.944
32142SOL    HW198200   8.303   4.799   1.855
32142SOL    HW298201   8.315   4.885   1.979
32143SOL     OW98202   5.239  10.298  11.582
32143SOL    HW198203   5.223  10.392  11.582
32143SOL    HW298204   5.326  10.289  11.622
32144SOL     OW98205  10.013   3.369   5.063
32144SOL    HW198206   9.973   3.304   5.006
32144SOL    HW298207   9.998   3.453   5.019
32145SOL     OW98208   2.082   5.368   5.676
32145SOL    HW198209   2.098   5.274   5.677
32145SOL    HW298210   1.989   5.377   5.694
32146SOL     OW98211  10.525  14.083   7.872
32146SOL    HW198212  10.443  14.116   7.835
32146SOL    HW298213  10.554  14.016   7.810
32147SOL     OW98214   6.342  12.072   6.622
32147SOL    HW198215   6.272  12.032   6.571
32147SOL    HW298216   6.320  12.052   6.713
32148SOL     OW98217  13.536  11.480  11.237
32148SOL    HW198218  13.477  11.489  11.161
32148SOL    HW298219  13.597  11.554  11.229
32149SOL     OW98220   4.888   2.587   3.465
32149SOL    HW198221   4.802   2.627   3.482
32149SOL    HW298222   4.936   2.653   3.415
32150SOL     OW98223   3.953   8.285   0.067
32150SOL    HW198224   3.874   8.233   0.081
32150SOL    HW298225   3.988   8.299   0.155
32151SOL     OW98226   2.654   1.152  13.726
32151SOL    HW198227   2.709   1.221  13.691
32151SOL    HW298228   2.603   1.121  13.651
32152SOL     OW98229  11.742   0.483  13.394
32152SOL    HW198230  11.729   0.492  13.299
32152SOL    HW298231  11.823   0.531  13.411
32153SOL     OW98232  11.054   9.677  10.769
32153SOL    HW198233  10.988   9.731  10.725
32153SOL    HW298234  11.052   9.705  10.860
32154SOL     OW98235  10.693   5.954  13.975
32154SOL    HW198236  10.783   5.986  13.971
32154SOL    HW298237  10.702   5.861  13.998
32155SOL     OW98238   4.477   4.702   8.851
32155SOL    HW198239   4.438   4.634   8.795
32155SOL    HW298240   4.459   4.673   8.940
32156SOL     OW98241   5.391   2.751   2.631
32156SOL    HW198242   5.399   2.768   2.725
32156SOL    HW298243   5.296   2.747   2.616
32157SOL     OW98244   4.093  14.515   5.070
32157SOL    HW198245   4.181  14.516   5.107
32157SOL    HW298246   4.081  14.426   5.037
32158SOL     OW98247  11.026  12.018   4.265
32158SOL    HW198248  10.989  11.992   4.350
32158SOL    HW298249  10.951  12.049   4.214
32159SOL     OW98250   4.507   0.631  10.108
32159SOL    HW198251   4.512   0.725  10.092
32159SOL    HW298252   4.596   0.599  10.091
32160SOL     OW98253  11.284   4.977   3.433
32160SOL    HW198254  11.201   4.970   3.386
32160SOL    HW298255  11.271   5.048   3.495
32161SOL     OW98256   4.443  11.399   4.967
32161SOL    HW198257   4.441  11.399   4.871
32161SOL    HW298258   4.466  11.310   4.990
32162SOL     OW98259   4.716  11.419  12.241
32162SOL    HW198260   4.763  11.435  12.159
32162SOL    HW298261   4.771  11.459  12.308
32163SOL     OW98262   4.773   7.344   4.489
32163SOL    HW198263   4.867   7.333   4.475
32163SOL    HW298264   4.731   7.290   4.422
32164SOL     OW98265   9.426   2.878   9.016
32164SOL    HW198266   9.467   2.802   9.057
32164SOL    HW298267   9.439   2.863   8.922
32165SOL     OW98268  10.345   9.428  13.648
32165SOL    HW198269  10.355   9.429  13.553
32165SOL    HW298270  10.361   9.518  13.676
32166SOL     OW98271  12.145  10.224   3.323
32166SOL    HW198272  12.219  10.281   3.299
32166SOL    HW298273  12.068  10.271   3.293
32167SOL     OW98274   1.818  12.828   0.572
32167SOL    HW198275   1.903  12.867   0.592
32167SOL    HW298276   1.754  12.890   0.607
32168SOL     OW98277  11.993   8.376  12.587
32168SOL    HW198278  11.975   8.373  12.682
32168SOL    HW298279  12.023   8.465  12.572
32169SOL     OW98280   8.159  14.637   8.063
32169SOL    HW198281   8.183  14.631   7.970
32169SOL    HW298282   8.139  14.547   8.088
32170SOL     OW98283   7.475  11.141   2.771
32170SOL    HW198284   7.503  11.232   2.758
32170SOL    HW298285   7.518  11.093   2.700
32171SOL     OW98286   0.106   6.441  13.418
32171SOL    HW198287   0.078   6.410  13.505
32171SOL    HW298288   0.120   6.535  13.430
32172SOL     OW98289  10.998   5.224   2.481
32172SOL    HW198290  11.069   5.209   2.545
32172SOL    HW298291  10.944   5.291   2.522
32173SOL     OW98292   3.526   5.266  11.031
32173SOL    HW198293   3.505   5.303  11.117
32173SOL    HW298294   3.477   5.183  11.028
32174SOL     OW98295   6.551   0.207   1.321
32174SOL    HW198296   6.476   0.148   1.323
32174SOL    HW298297   6.568   0.220   1.227
32175SOL     OW98298  13.282   7.309   4.926
32175SOL    HW198299  13.321   7.381   4.975
32175SOL    HW298300  13.264   7.243   4.993
32176SOL     OW98301  11.980   5.991   5.724
32176SOL    HW198302  12.039   6.057   5.686
32176SOL    HW298303  12.039   5.929   5.767
32177SOL     OW98304   1.148   1.510   6.351
32177SOL    HW198305   1.153   1.448   6.278
32177SOL    HW298306   1.125   1.456   6.427
32178SOL     OW98307   0.667   5.099  11.315
32178SOL    HW198308   0.672   5.007  11.289
32178SOL    HW298309   0.671   5.148  11.232
32179SOL     OW98310  13.842   5.661   1.040
32179SOL    HW198311  13.877   5.743   1.076
32179SOL    HW298312  13.749   5.677   1.029
32180SOL     OW98313   9.727   6.675   2.737
32180SOL    HW198314   9.689   6.684   2.649
32180SOL    HW298315   9.757   6.584   2.741
32181SOL     OW98316   3.799  12.654   1.506
32181SOL    HW198317   3.732  12.597   1.468
32181SOL    HW298318   3.786  12.647   1.600
32182SOL     OW98319   2.751  12.715   8.440
32182SOL    HW198320   2.749  12.802   8.480
32182SOL    HW298321   2.688  12.664   8.490
32183SOL     OW98322   3.949   4.300   0.808
32183SOL    HW198323   3.949   4.381   0.858
32183SOL    HW298324   3.925   4.327   0.719
32184SOL     OW98325   7.940   8.868  12.709
32184SOL    HW198326   7.882   8.928  12.663
32184SOL    HW298327   7.929   8.784  12.664
32185SOL     OW98328  10.239   6.668   0.288
32185SOL    HW198329  10.215   6.708   0.204
32185SOL    HW298330  10.167   6.607   0.307
32186SOL     OW98331  13.888   4.433  14.135
32186SOL    HW198332  13.944   4.376  14.082
32186SOL    HW298333  13.845   4.374  14.196
32187SOL     OW98334   0.420   9.898   6.648
32187SOL    HW198335   0.328   9.922   6.644
32187SOL    HW298336   0.421   9.807   6.678
32188SOL     OW98337   3.074   1.837   0.671
32188SOL    HW198338   3.136   1.814   0.741
32188SOL    HW298339   3.013   1.898   0.712
32189SOL     OW98340  14.843  14.098   8.862
32189SOL    HW198341  14.775  14.119   8.926
32189SOL    HW298342   0.041  14.091   8.913
32190SOL     OW98343   4.680   9.573   9.443
32190SOL    HW198344   4.591   9.605   9.427
32190SOL    HW298345   4.686   9.493   9.390
32191SOL     OW98346   8.628   3.349   0.433
32191SOL    HW198347   8.579   3.405   0.493
32191SOL    HW298348   8.611   3.260   0.464
32192SOL     OW98349   7.314   3.016   1.318
32192SOL    HW198350   7.292   3.035   1.227
32192SOL    HW298351   7.351   2.928   1.317
32193SOL     OW98352   6.899   6.046   2.965
32193SOL    HW198353   6.862   5.960   2.987
32193SOL    HW298354   6.842   6.108   3.012
32194SOL     OW98355   8.418   1.901  10.377
32194SOL    HW198356   8.416   1.906  10.282
32194SOL    HW298357   8.408   1.808  10.397
32195SOL     OW98358   1.732   1.732   2.099
32195SOL    HW198359   1.657   1.688   2.139
32195SOL    HW298360   1.805   1.670   2.110
32196SOL     OW98361   4.610   8.379  12.775
32196SOL    HW198362   4.550   8.431  12.828
32196SOL    HW298363   4.696   8.418  12.792
32197SOL     OW98364   5.950   1.550  10.982
32197SOL    HW198365   6.008   1.509  10.918
32197SOL    HW298366   5.909   1.476  11.029
32198SOL     OW98367   5.346  13.642   6.556
32198SOL    HW198368   5.302  13.722   6.585
32198SOL    HW298369   5.426  13.639   6.608
32199SOL     OW98370   9.239  13.400   9.180
32199SOL    HW198371   9.189  13.463   9.232
32199SOL    HW298372   9.323  13.443   9.164
32200SOL     OW98373   1.467  11.771  10.752
32200SOL    HW198374   1.533  11.704  10.772
32200SOL    HW298375   1.473  11.833  10.825
32201SOL     OW98376   8.094   6.014   9.417
32201SOL    HW198377   8.008   6.021   9.376
32201SOL    HW298378   8.115   6.103   9.444
32202SOL     OW98379  10.437  11.166   0.115
32202SOL    HW198380  10.378  11.155   0.040
32202SOL    HW298381  10.482  11.081   0.123
32203SOL     OW98382   6.245   0.801   6.549
32203SOL    HW198383   6.185   0.865   6.587
32203SOL    HW298384   6.304   0.777   6.622
32204SOL     OW98385   5.093  10.475   1.516
32204SOL    HW198386   5.049  10.536   1.575
32204SOL    HW298387   5.164  10.438   1.569
32205SOL     OW98388   0.923   1.158   8.413
32205SOL    HW198389   0.933   1.207   8.495
32205SOL    HW298390   0.831   1.133   8.411
32206SOL     OW98391  11.621  12.660   9.115
32206SOL    HW198392  11.629  12.660   9.020
32206SOL    HW298393  11.706  12.693   9.146
32207SOL     OW98394  14.579  12.827   5.945
32207SOL    HW198395  14.662  12.871   5.963
32207SOL    HW298396  14.572  12.760   6.013
32208SOL     OW98397   5.094   2.903   0.041
32208SOL    HW198398   5.067   2.958  14.848
32208SOL    HW298399   5.019   2.905   0.100
32209SOL     OW98400   9.472   4.752   0.716
32209SOL    HW198401   9.527   4.683   0.678
32209SOL    HW298402   9.460   4.725   0.807
32210SOL     OW98403   6.155  12.760  14.337
32210SOL    HW198404   6.239  12.757  14.290
32210SOL    HW298405   6.117  12.673  14.324
32211SOL     OW98406  13.486   9.859  13.418
32211SOL    HW198407  13.509   9.774  13.379
32211SOL    HW298408  13.547   9.920  13.378
32212SOL     OW98409   2.236   3.089   6.214
32212SOL    HW198410   2.162   3.062   6.161
32212SOL    HW298411   2.313   3.065   6.162
32213SOL     OW98412   4.824   3.775  12.890
32213SOL    HW198413   4.811   3.827  12.811
32213SOL    HW298414   4.809   3.836  12.962
32214SOL     OW98415   1.714   3.684   7.430
32214SOL    HW198416   1.670   3.767   7.411
32214SOL    HW298417   1.681   3.624   7.364
32215SOL     OW98418  10.420   3.692   4.976
32215SOL    HW198419  10.404   3.760   5.041
32215SOL    HW298420  10.454   3.618   5.026
32216SOL     OW98421  12.555  14.191   4.134
32216SOL    HW198422  12.546  14.163   4.043
32216SOL    HW298423  12.465  14.206   4.163
32217SOL     OW98424   5.066   0.233   8.593
32217SOL    HW198425   5.123   0.286   8.538
32217SOL    HW298426   5.008   0.188   8.531
32218SOL     OW98427   5.758   8.019   2.421
32218SOL    HW198428   5.733   8.037   2.330
32218SOL    HW298429   5.679   7.983   2.461
32219SOL     OW98430   5.825   4.929   5.587
32219SOL    HW198431   5.888   4.907   5.519
32219SOL    HW298432   5.839   4.863   5.655
32220SOL     OW98433  11.141   3.135  10.673
32220SOL    HW198434  11.197   3.212  10.661
32220SOL    HW298435  11.057   3.161  10.636
32221SOL     OW98436   1.892   5.894   9.931
32221SOL    HW198437   1.964   5.842   9.896
32221SOL    HW298438   1.843   5.923   9.854
32222SOL     OW98439  14.673   6.144  10.779
32222SOL    HW198440  14.617   6.116  10.851
32222SOL    HW298441  14.678   6.068  10.721
32223SOL     OW98442   1.404   3.704   0.145
32223SOL    HW198443   1.446   3.700   0.231
32223SOL    HW298444   1.350   3.625   0.142
32224SOL     OW98445   8.186  12.336   4.066
32224SOL    HW198446   8.262  12.301   4.020
32224SOL    HW298447   8.223  12.401   4.127
32225SOL     OW98448   6.741   1.589   2.259
32225SOL    HW198449   6.675   1.625   2.201
32225SOL    HW298450   6.814   1.565   2.201
32226SOL     OW98451   7.243   6.321   4.983
32226SOL    HW198452   7.202   6.361   4.906
32226SOL    HW298453   7.170   6.291   5.037
32227SOL     OW98454  12.800   5.693  14.392
32227SOL    HW198455  12.853   5.720  14.467
32227SOL    HW298456  12.737   5.631  14.428
32228SOL     OW98457   0.096  13.810   3.095
32228SOL    HW198458   0.161  13.849   3.154
32228SOL    HW298459   0.142  13.799   3.012
32229SOL     OW98460   5.343   3.795   1.398
32229SOL    HW198461   5.333   3.724   1.335
32229SOL    HW298462   5.256   3.804   1.438
32230SOL     OW98463  14.528   7.539   0.318
32230SOL    HW198464  14.576   7.508   0.242
32230SOL    HW298465  14.436   7.541   0.290
32231SOL     OW98466  14.155   4.269  10.683
32231SOL    HW198467  14.110   4.189  10.709
32231SOL    HW298468  14.220   4.241  10.619
32232SOL     OW98469   6.042   7.387   0.985
32232SOL    HW198470   5.977   7.451   1.012
32232SOL    HW298471   6.033   7.383   0.889
32233SOL     OW98472   6.794   9.242   3.629
32233SOL    HW198473   6.859   9.295   3.584
32233SOL    HW298474   6.724   9.230   3.564
32234SOL     OW98475   0.847  13.707   4.639
32234SOL    HW198476   0.774  13.645   4.644
32234SOL    HW298477   0.855  13.727   4.546
32235SOL     OW98478  10.046  13.074  12.177
32235SOL    HW198479  10.121  13.053  12.122
32235SOL    HW298480   9.982  13.006  12.156
32236SOL     OW98481  10.065   0.036   5.269
32236SOL    HW198482  10.009   0.112   5.287
32236SOL    HW298483  10.132   0.069   5.210
32237SOL     OW98484   0.471   4.993  10.081
32237SOL    HW198485   0.464   5.019  10.173
32237SOL    HW298486   0.443   5.071  10.033
32238SOL     OW98487  10.941  12.021   4.768
32238SOL    HW198488  11.027  12.006   4.806
32238SOL    HW298489  10.887  12.052   4.841
32239SOL     OW98490   6.393  11.709  12.186
32239SOL    HW198491   6.351  11.633  12.146
32239SOL    HW298492   6.324  11.775  12.192
32240SOL     OW98493   1.110   7.822  11.487
32240SOL    HW198494   1.146   7.813  11.398
32240SOL    HW298495   1.143   7.906  11.518
32241SOL     OW98496  13.723   3.932   3.990
32241SOL    HW198497  13.729   3.924   4.086
32241SOL    HW298498  13.809   3.964   3.963
32242SOL     OW98499   1.889   6.151   4.395
32242SOL    HW198500   1.926   6.220   4.450
32242SOL    HW298501   1.888   6.189   4.307
32243SOL     OW98502   6.630   3.592   7.857
32243SOL    HW198503   6.613   3.542   7.937
32243SOL    HW298504   6.551   3.581   7.805
32244SOL     OW98505  11.304  10.066   8.339
32244SOL    HW198506  11.214  10.048   8.366
32244SOL    HW298507  11.347  10.097   8.418
32245SOL     OW98508   2.103   8.151   4.780
32245SOL    HW198509   2.099   8.210   4.705
32245SOL    HW298510   2.189   8.109   4.773
32246SOL     OW98511   9.139  10.640  13.865
32246SOL    HW198512   9.121  10.718  13.917
32246SOL    HW298513   9.054  10.598  13.853
32247SOL     OW98514   6.769   5.648   8.274
32247SOL    HW198515   6.717   5.569   8.261
32247SOL    HW298516   6.706   5.712   8.308
32248SOL     OW98517   4.752  12.087   1.935
32248SOL    HW198518   4.772  12.059   2.025
32248SOL    HW298519   4.670  12.041   1.914
32249SOL     OW98520   5.673   9.172  13.082
32249SOL    HW198521   5.758   9.147  13.120
32249SOL    HW298522   5.641   9.092  13.041
32250SOL     OW98523  14.361   2.849   1.053
32250SOL    HW198524  14.412   2.889   1.124
32250SOL    HW298525  14.331   2.923   1.000
32251SOL     OW98526   6.985   4.359   3.020
32251SOL    HW198527   7.077   4.380   3.004
32251SOL    HW298528   6.964   4.406   3.101
32252SOL     OW98529   2.200   2.873  13.719
32252SOL    HW198530   2.226   2.797  13.667
32252SOL    HW298531   2.109   2.857  13.742
32253SOL     OW98532  10.189   6.875   4.283
32253SOL    HW198533  10.187   6.942   4.352
32253SOL    HW298534  10.193   6.925   4.202
32254SOL     OW98535  11.897  10.051   3.439
32254SOL    HW198536  11.938  10.036   3.353
32254SOL    HW298537  11.969  10.082   3.495
32255SOL     OW98538   4.805  14.649   3.086
32255SOL    HW198539   4.777  14.665   3.177
32255SOL    HW298540   4.751  14.708   3.034
32256SOL     OW98541  13.451  11.764   8.906
32256SOL    HW198542  13.541  11.738   8.886
32256SOL    HW298543  13.444  11.756   9.001
32257SOL     OW98544   0.849   6.105  13.062
32257SOL    HW198545   0.914   6.153  13.113
32257SOL    HW298546   0.884   6.016  13.057
32258SOL     OW98547   4.133  13.854   9.061
32258SOL    HW198548   4.205  13.793   9.076
32258SOL    HW298549   4.068  13.803   9.012
32259SOL     OW98550   5.633   0.713  10.142
32259SOL    HW198551   5.648   0.622  10.118
32259SOL    HW298552   5.540   0.728  10.122
32260SOL     OW98553   3.116   5.043   0.840
32260SOL    HW198554   3.072   5.101   0.901
32260SOL    HW298555   3.209   5.049   0.863
32261SOL     OW98556   8.776   9.092   6.970
32261SOL    HW198557   8.718   9.165   6.950
32261SOL    HW298558   8.844   9.096   6.902
32262SOL     OW98559  12.241   7.956   5.022
32262SOL    HW198560  12.306   7.905   4.974
32262SOL    HW298561  12.290   8.030   5.057
32263SOL     OW98562   6.144  13.163   5.165
32263SOL    HW198563   6.068  13.146   5.110
32263SOL    HW298564   6.109  13.169   5.253
32264SOL     OW98565   5.704   4.914  10.787
32264SOL    HW198566   5.674   4.863  10.712
32264SOL    HW298567   5.767   4.976  10.749
32265SOL     OW98568   5.780   6.819   4.849
32265SOL    HW198569   5.820   6.903   4.870
32265SOL    HW298570   5.828   6.756   4.902
32266SOL     OW98571   1.963  13.156   5.803
32266SOL    HW198572   1.921  13.235   5.768
32266SOL    HW298573   2.048  13.153   5.761
32267SOL     OW98574   3.835  13.080  11.189
32267SOL    HW198575   3.833  12.988  11.165
32267SOL    HW298576   3.746  13.111  11.176
32268SOL     OW98577  10.320   7.811   9.738
32268SOL    HW198578  10.334   7.863   9.659
32268SOL    HW298579  10.273   7.734   9.709
32269SOL     OW98580   6.038   8.856   3.404
32269SOL    HW198581   5.963   8.835   3.459
32269SOL    HW298582   6.048   8.780   3.346
32270SOL     OW98583   4.739  10.917   9.634
32270SOL    HW198584   4.781  10.832   9.649
32270SOL    HW298585   4.746  10.930   9.539
32271SOL     OW98586   4.486   1.984   9.296
32271SOL    HW198587   4.421   1.916   9.314
32271SOL    HW298588   4.569   1.937   9.294
32272SOL     OW98589   0.241   0.204   6.696
32272SOL    HW198590   0.255   0.111   6.717
32272SOL    HW298591   0.312   0.225   6.636
32273SOL     OW98592  13.422   6.408  11.673
32273SOL    HW198593  13.338   6.444  11.702
32273SOL    HW298594  13.448   6.350  11.744
32274SOL     OW98595   2.820   6.284   0.978
32274SOL    HW198596   2.792   6.214   1.037
32274SOL    HW298597   2.797   6.252   0.891
32275SOL     OW98598   4.747   3.419   2.006
32275SOL    HW198599   4.799   3.495   1.978
32275SOL    HW298600   4.756   3.357   1.933
32276SOL     OW98601  10.440   7.516   9.919
32276SOL    HW198602  10.363   7.464   9.895
32276SOL    HW298603  10.407   7.578   9.984
32277SOL     OW98604  14.803   5.502   6.080
32277SOL    HW198605  14.868   5.501   6.009
32277SOL    HW298606  14.848   5.547   6.152
32278SOL     OW98607   2.749   5.015  10.877
32278SOL    HW198608   2.742   5.038  10.785
32278SOL    HW298609   2.753   4.919  10.878
32279SOL     OW98610   4.780   0.004   9.973
32279SOL    HW198611   4.688   0.017   9.948
32279SOL    HW298612   4.816  14.831   9.904
32280SOL     OW98613   9.220   6.197   4.826
32280SOL    HW198614   9.138   6.244   4.845
32280SOL    HW298615   9.220   6.124   4.888
32281SOL     OW98616  11.284   3.022   8.568
32281SOL    HW198617  11.284   3.104   8.519
32281SOL    HW298618  11.194   2.989   8.561
32282SOL     OW98619   2.962  12.213   0.791
32282SOL    HW198620   2.983  12.299   0.826
32282SOL    HW298621   3.046  12.177   0.762
32283SOL     OW98622  14.579  10.219   9.980
32283SOL    HW198623  14.577  10.165   9.901
32283SOL    HW298624  14.546  10.305   9.951
32284SOL     OW98625   9.225   8.181   1.624
32284SOL    HW198626   9.217   8.097   1.668
32284SOL    HW298627   9.229   8.245   1.695
32285SOL     OW98628  10.490   4.350   9.278
32285SOL    HW198629  10.432   4.344   9.353
32285SOL    HW298630  10.552   4.419   9.301
32286SOL     OW98631   6.794  14.294   8.441
32286SOL    HW198632   6.793  14.201   8.420
32286SOL    HW298633   6.883  14.322   8.421
32287SOL     OW98634   3.081   6.087   6.227
32287SOL    HW198635   3.122   6.053   6.306
32287SOL    HW298636   2.995   6.046   6.225
32288SOL     OW98637   9.406   8.326  10.556
32288SOL    HW198638   9.403   8.273  10.636
32288SOL    HW298639   9.435   8.265  10.489
32289SOL     OW98640   8.487   6.256   0.084
32289SOL    HW198641   8.396   6.250   0.114
32289SOL    HW298642   8.538   6.210   0.151
32290SOL     OW98643   7.450   9.393   9.278
32290SOL    HW198644   7.476   9.303   9.262
32290SOL    HW298645   7.529   9.445   9.262
32291SOL     OW98646  14.274  12.166   1.821
32291SOL    HW198647  14.219  12.240   1.796
32291SOL    HW298648  14.230  12.129   1.898
32292SOL     OW98649   8.765  11.793  10.723
32292SOL    HW198650   8.674  11.804  10.693
32292SOL    HW298651   8.763  11.818  10.815
32293SOL     OW98652  13.267   0.111   0.888
32293SOL    HW198653  13.262   0.095   0.794
32293SOL    HW298654  13.255   0.025   0.929
32294SOL     OW98655  11.395   5.854   9.734
32294SOL    HW198656  11.440   5.846   9.650
32294SOL    HW298657  11.452   5.912   9.786
32295SOL     OW98658  14.446  13.743  10.587
32295SOL    HW198659  14.362  13.697  10.584
32295SOL    HW298660  14.500  13.691  10.646
32296SOL     OW98661  14.197   0.026   3.348
32296SOL    HW198662  14.243   0.109   3.350
32296SOL    HW298663  14.178   0.011   3.255
32297SOL     OW98664   1.410   4.797  13.662
32297SOL    HW198665   1.330   4.777  13.710
32297SOL    HW298666   1.469   4.835  13.727
32298SOL     OW98667   8.512   2.229  13.786
32298SOL    HW198668   8.579   2.163  13.809
32298SOL    HW298669   8.429   2.184  13.800
32299SOL     OW98670   1.539   2.516   1.803
32299SOL    HW198671   1.522   2.432   1.846
32299SOL    HW298672   1.497   2.581   1.859
32300SOL     OW98673  11.644   6.967   8.225
32300SOL    HW198674  11.580   6.926   8.166
32300SOL    HW298675  11.607   7.054   8.243
32301SOL     OW98676   9.060   6.090   2.399
32301SOL    HW198677   8.966   6.073   2.409
32301SOL    HW298678   9.103   6.015   2.439
32302SOL     OW98679   9.207  13.652  11.982
32302SOL    HW198680   9.254  13.605  11.913
32302SOL    HW298681   9.183  13.583  12.045
32303SOL     OW98682   5.776   2.491   4.406
32303SOL    HW198683   5.724   2.499   4.326
32303SOL    HW298684   5.815   2.404   4.402
32304SOL     OW98685   1.368   8.330   8.468
32304SOL    HW198686   1.410   8.252   8.503
32304SOL    HW298687   1.423   8.356   8.394
32305SOL     OW98688   5.281  12.148   2.411
32305SOL    HW198689   5.287  12.064   2.365
32305SOL    HW298690   5.213  12.197   2.365
32306SOL     OW98691   0.360   8.610  11.126
32306SOL    HW198692   0.390   8.596  11.216
32306SOL    HW298693   0.408   8.546  11.074
32307SOL     OW98694  10.319   8.632   0.009
32307SOL    HW198695  10.413   8.638  14.873
32307SOL    HW298696  10.296   8.542  14.869
32308SOL     OW98697   1.442   9.844   6.459
32308SOL    HW198698   1.410   9.868   6.546
32308SOL    HW298699   1.415   9.916   6.402
32309SOL     OW98700   2.530   4.281   4.293
32309SOL    HW198701   2.456   4.319   4.340
32309SOL    HW298702   2.607   4.308   4.343
32310SOL     OW98703  12.557  11.246   6.296
32310SOL    HW198704  12.653  11.242   6.301
32310SOL    HW298705  12.534  11.179   6.233
32311SOL     OW98706   0.964  11.306   9.523
32311SOL    HW198707   0.871  11.325   9.535
32311SOL    HW298708   0.976  11.220   9.563
32312SOL     OW98709   0.541  13.357   5.879
32312SOL    HW198710   0.627  13.318   5.893
32312SOL    HW298711   0.558  13.451   5.876
32313SOL     OW98712  13.568   5.941  13.296
32313SOL    HW198713  13.550   5.862  13.246
32313SOL    HW298714  13.620   5.911  13.370
32314SOL     OW98715   9.180   0.152   9.715
32314SOL    HW198716   9.201   0.232   9.764
32314SOL    HW298717   9.238   0.085   9.750
32315SOL     OW98718   5.208   8.385   5.406
32315SOL    HW198719   5.157   8.355   5.481
32315SOL    HW298720   5.193   8.479   5.401
32316SOL     OW98721   1.863  10.709  14.856
32316SOL    HW198722   1.890  10.791  14.816
32316SOL    HW298723   1.842  10.733   0.065
32317SOL     OW98724  13.544   6.101  11.592
32317SOL    HW198725  13.548   6.010  11.621
32317SOL    HW298726  13.502   6.096  11.506
32318SOL     OW98727  14.411  12.337   3.572
32318SOL    HW198728  14.352  12.387   3.630
32318SOL    HW298729  14.365  12.254   3.558
32319SOL     OW98730   5.683  13.433   5.176
32319SOL    HW198731   5.659  13.493   5.247
32319SOL    HW298732   5.767  13.397   5.203
32320SOL     OW98733   8.810  12.001  14.034
32320SOL    HW198734   8.739  11.938  14.047
32320SOL    HW298735   8.766  12.082  14.008
32321SOL     OW98736   0.986   5.618   3.140
32321SOL    HW198737   0.975   5.695   3.085
32321SOL    HW298738   1.068   5.579   3.110
32322SOL     OW98739  12.087   4.259  13.453
32322SOL    HW198740  12.011   4.230  13.505
32322SOL    HW298741  12.134   4.178  13.433
32323SOL     OW98742  12.156   8.651  12.088
32323SOL    HW198743  12.069   8.657  12.128
32323SOL    HW298744  12.158   8.722  12.024
32324SOL     OW98745   4.312   3.824   2.843
32324SOL    HW198746   4.346   3.778   2.766
32324SOL    HW298747   4.382   3.817   2.908
32325SOL     OW98748  10.292   5.542   4.770
32325SOL    HW198749  10.209   5.561   4.725
32325SOL    HW298750  10.359   5.560   4.704
32326SOL     OW98751   3.159   4.918   3.392
32326SOL    HW198752   3.146   4.969   3.472
32326SOL    HW298753   3.187   4.982   3.327
32327SOL     OW98754   9.938   4.134  12.784
32327SOL    HW198755   9.853   4.171  12.758
32327SOL    HW298756  10.001   4.176  12.725
32328SOL     OW98757   4.065  13.420   6.862
32328SOL    HW198758   3.984  13.469   6.877
32328SOL    HW298759   4.134  13.478   6.897
32329SOL     OW98760   7.779  10.178   6.176
32329SOL    HW198761   7.801  10.196   6.085
32329SOL    HW298762   7.807  10.257   6.224
32330SOL     OW98763   6.082   5.561   3.442
32330SOL    HW198764   6.075   5.597   3.531
32330SOL    HW298765   5.997   5.578   3.403
32331SOL     OW98766  11.933   3.181  14.068
32331SOL    HW198767  11.983   3.209  14.144
32331SOL    HW298768  11.851   3.147  14.104
32332SOL     OW98769  12.898  12.642  12.498
32332SOL    HW198770  12.864  12.581  12.432
32332SOL    HW298771  12.898  12.592  12.580
32333SOL     OW98772  12.527   0.065   0.636
32333SOL    HW198773  12.463   0.134   0.615
32333SOL    HW298774  12.609   0.097   0.599
32334SOL     OW98775  13.504   3.064   8.273
32334SOL    HW198776  13.587   3.095   8.236
32334SOL    HW298777  13.445   3.060   8.197
32335SOL     OW98778   1.311   7.288   1.350
32335SOL    HW198779   1.316   7.362   1.289
32335SOL    HW298780   1.337   7.324   1.434
32336SOL     OW98781   2.791   4.548   0.542
32336SOL    HW198782   2.735   4.535   0.465
32336SOL    HW298783   2.874   4.579   0.506
32337SOL     OW98784   4.893   4.347  14.747
32337SOL    HW198785   4.864   4.319  14.834
32337SOL    HW298786   4.914   4.265  14.702
32338SOL     OW98787   1.598   7.086   5.553
32338SOL    HW198788   1.649   7.167   5.557
32338SOL    HW298789   1.584   7.062   5.645
32339SOL     OW98790  12.743   4.124   4.586
32339SOL    HW198791  12.702   4.210   4.590
32339SOL    HW298792  12.808   4.131   4.516
32340SOL     OW98793   7.691   2.813  10.539
32340SOL    HW198794   7.678   2.803  10.444
32340SOL    HW298795   7.701   2.723  10.571
32341SOL     OW98796  11.325  13.400   2.624
32341SOL    HW198797  11.237  13.402   2.662
32341SOL    HW298798  11.312  13.415   2.531
32342SOL     OW98799  14.285   6.891  12.550
32342SOL    HW198800  14.244   6.809  12.578
32342SOL    HW298801  14.224   6.929  12.488
32343SOL     OW98802   8.572  10.398  10.514
32343SOL    HW198803   8.480  10.372  10.513
32343SOL    HW298804   8.588  10.425  10.605
32344SOL     OW98805   3.870   2.434  14.300
32344SOL    HW198806   3.959   2.398  14.308
32344SOL    HW298807   3.878   2.504  14.235
32345SOL     OW98808   2.551   0.999  13.487
32345SOL    HW198809   2.487   1.065  13.461
32345SOL    HW298810   2.597   0.977  13.406
32346SOL     OW98811   4.033   6.139   4.052
32346SOL    HW198812   4.107   6.188   4.087
32346SOL    HW298813   4.072   6.079   3.988
32347SOL     OW98814   0.532   8.778  12.344
32347SOL    HW198815   0.622   8.764  12.317
32347SOL    HW298816   0.538   8.833  12.422
32348SOL     OW98817   4.028  10.660   4.690
32348SOL    HW198818   4.050  10.580   4.641
32348SOL    HW298819   4.088  10.726   4.655
32349SOL     OW98820  13.350   9.546   0.680
32349SOL    HW198821  13.404   9.588   0.613
32349SOL    HW298822  13.291   9.489   0.630
32350SOL     OW98823   7.857  14.806  13.348
32350SOL    HW198824   7.872  14.876  13.285
32350SOL    HW298825   7.890  14.840  13.431
32351SOL     OW98826   7.944   2.258  10.557
32351SOL    HW198827   7.868   2.295  10.601
32351SOL    HW298828   7.981   2.197  10.620
32352SOL     OW98829   6.330   5.038  11.849
32352SOL    HW198830   6.290   5.083  11.923
32352SOL    HW298831   6.325   4.945  11.871
32353SOL     OW98832   6.386  10.784  10.057
32353SOL    HW198833   6.305  10.739  10.033
32353SOL    HW298834   6.368  10.821  10.144
32354SOL     OW98835   5.360   3.514   4.533
32354SOL    HW198836   5.342   3.565   4.453
32354SOL    HW298837   5.396   3.578   4.594
32355SOL     OW98838   9.663  14.619   6.752
32355SOL    HW198839   9.748  14.581   6.730
32355SOL    HW298840   9.675  14.713   6.737
32356SOL     OW98841  12.386   8.950   8.396
32356SOL    HW198842  12.313   8.895   8.426
32356SOL    HW298843  12.440   8.962   8.474
32357SOL     OW98844  14.295   6.988   0.347
32357SOL    HW198845  14.356   6.963   0.417
32357SOL    HW298846  14.208   6.969   0.383
32358SOL     OW98847   6.002  14.797   6.398
32358SOL    HW198848   5.957  14.852   6.335
32358SOL    HW298849   5.939  14.728   6.420
32359SOL     OW98850   8.342   7.428  12.008
32359SOL    HW198851   8.345   7.442  12.102
32359SOL    HW298852   8.288   7.350  11.997
32360SOL     OW98853   8.555  10.748   4.804
32360SOL    HW198854   8.570  10.667   4.853
32360SOL    HW298855   8.585  10.729   4.715
32361SOL     OW98856   7.688   2.896   1.979
32361SOL    HW198857   7.693   2.963   1.911
32361SOL    HW298858   7.774   2.855   1.979
32362SOL     OW98859   5.570   2.637  14.259
32362SOL    HW198860   5.482   2.600  14.270
32362SOL    HW298861   5.583   2.690  14.338
32363SOL     OW98862   8.050  10.636  13.471
32363SOL    HW198863   8.114  10.593  13.528
32363SOL    HW298864   8.091  10.719  13.447
32364SOL     OW98865  11.914  14.108   6.339
32364SOL    HW198866  12.000  14.067   6.339
32364SOL    HW298867  11.906  14.147   6.251
32365SOL     OW98868   2.028   0.979   1.485
32365SOL    HW198869   1.950   0.988   1.540
32365SOL    HW298870   2.045   0.885   1.482
32366SOL     OW98871  13.319   3.545   9.025
32366SOL    HW198872  13.256   3.531   9.095
32366SOL    HW298873  13.400   3.506   9.057
32367SOL     OW98874  10.584   2.569  12.264
32367SOL    HW198875  10.680   2.572  12.273
32367SOL    HW298876  10.555   2.654  12.298
32368SOL     OW98877   3.936   1.275  11.810
32368SOL    HW198878   3.952   1.220  11.733
32368SOL    HW298879   3.951   1.218  11.885
32369SOL     OW98880   7.073   3.689  11.340
32369SOL    HW198881   7.010   3.704  11.270
32369SOL    HW298882   7.137   3.759  11.329
32370SOL     OW98883  10.736  10.506  11.240
32370SOL    HW198884  10.641  10.514  11.232
32370SOL    HW298885  10.748  10.456  11.321
32371SOL     OW98886   2.174   1.561   8.603
32371SOL    HW198887   2.235   1.590   8.535
32371SOL    HW298888   2.158   1.469   8.583
32372SOL     OW98889   2.959   1.956   4.191
32372SOL    HW198890   2.993   1.867   4.177
32372SOL    HW298891   2.976   1.973   4.284
32373SOL     OW98892   2.158  14.339   8.386
32373SOL    HW198893   2.227  14.322   8.450
32373SOL    HW298894   2.190  14.298   8.305
32374SOL     OW98895   8.029  14.099   0.551
32374SOL    HW198896   8.014  14.102   0.457
32374SOL    HW298897   8.012  14.188   0.581
32375SOL     OW98898   2.028  14.481   5.678
32375SOL    HW198899   1.992  14.393   5.682
32375SOL    HW298900   1.957  14.538   5.708
32376SOL     OW98901   5.851   2.792   5.973
32376SOL    HW198902   5.850   2.834   5.887
32376SOL    HW298903   5.841   2.699   5.955
32377SOL     OW98904   1.757   4.120   2.649
32377SOL    HW198905   1.705   4.200   2.653
32377SOL    HW298906   1.785   4.113   2.558
32378SOL     OW98907   5.308  11.528   8.131
32378SOL    HW198908   5.368  11.457   8.155
32378SOL    HW298909   5.328  11.546   8.039
32379SOL     OW98910   6.748   1.075   9.778
32379SOL    HW198911   6.674   1.050   9.722
32379SOL    HW298912   6.717   1.151   9.826
32380SOL     OW98913   2.719   0.407   0.027
32380SOL    HW198914   2.751   0.423  14.820
32380SOL    HW298915   2.760   0.476   0.080
32381SOL     OW98916   2.715   8.619  13.429
32381SOL    HW198917   2.744   8.691  13.373
32381SOL    HW298918   2.693   8.548  13.368
32382SOL     OW98919   3.601   8.864   1.040
32382SOL    HW198920   3.556   8.873   1.124
32382SOL    HW298921   3.594   8.771   1.019
32383SOL     OW98922   1.901   1.060   8.651
32383SOL    HW198923   1.944   0.999   8.591
32383SOL    HW298924   1.815   1.076   8.612
32384SOL     OW98925   3.850   0.819   7.546
32384SOL    HW198926   3.822   0.864   7.465
32384SOL    HW298927   3.890   0.738   7.515
32385SOL     OW98928  13.972   4.346   8.759
32385SOL    HW198929  14.055   4.379   8.791
32385SOL    HW298930  13.945   4.280   8.823
32386SOL     OW98931   4.115  11.894   0.847
32386SOL    HW198932   4.075  11.807   0.851
32386SOL    HW298933   4.199  11.880   0.803
32387SOL     OW98934   2.330  12.983   8.082
32387SOL    HW198935   2.346  12.896   8.045
32387SOL    HW298936   2.383  13.042   8.028
32388SOL     OW98937   0.646  10.392   0.720
32388SOL    HW198938   0.721  10.364   0.772
32388SOL    HW298939   0.648  10.337   0.642
32389SOL     OW98940   9.026   0.521  10.941
32389SOL    HW198941   8.981   0.604  10.955
32389SOL    HW298942   8.976   0.457  10.990
32390SOL     OW98943   4.351   8.286   8.260
32390SOL    HW198944   4.269   8.336   8.270
32390SOL    HW298945   4.393   8.323   8.183
32391SOL     OW98946   9.715   9.195   9.945
32391SOL    HW198947   9.695   9.287   9.962
32391SOL    HW298948   9.676   9.178   9.859
32392SOL     OW98949   2.556   5.986  14.517
32392SOL    HW198950   2.509   6.061  14.479
32392SOL    HW298951   2.498   5.911  14.502
32393SOL     OW98952   9.179   0.541   0.749
32393SOL    HW198953   9.210   0.462   0.793
32393SOL    HW298954   9.230   0.612   0.788
32394SOL     OW98955  14.333   4.379  11.107
32394SOL    HW198956  14.354   4.466  11.073
32394SOL    HW298957  14.406   4.358  11.166
32395SOL     OW98958   6.560  12.443   1.423
32395SOL    HW198959   6.522  12.429   1.510
32395SOL    HW298960   6.541  12.362   1.376
32396SOL     OW98961   6.756  10.967  11.327
32396SOL    HW198962   6.789  11.041  11.276
32396SOL    HW298963   6.786  10.984  11.416
32397SOL     OW98964   6.843   2.888  14.279
32397SOL    HW198965   6.914   2.929  14.230
32397SOL    HW298966   6.885   2.815  14.325
32398SOL     OW98967   8.363   9.532   0.335
32398SOL    HW198968   8.349   9.447   0.293
32398SOL    HW298969   8.407   9.585   0.269
32399SOL     OW98970   4.864   9.243   0.797
32399SOL    HW198971   4.905   9.190   0.866
32399SOL    HW298972   4.854   9.184   0.723
32400SOL     OW98973  13.015  11.046   6.695
32400SOL    HW198974  12.984  10.984   6.628
32400SOL    HW298975  12.950  11.116   6.693
32401SOL     OW98976  12.982   8.544  12.022
32401SOL    HW198977  13.019   8.600  11.954
32401SOL    HW298978  13.054   8.533  12.085
32402SOL     OW98979   5.751   4.749  14.701
32402SOL    HW198980   5.764   4.840  14.674
32402SOL    HW298981   5.799   4.698  14.636
32403SOL     OW98982  13.035   3.060   5.564
32403SOL    HW198983  13.040   3.049   5.469
32403SOL    HW298984  12.963   3.003   5.591
32404SOL     OW98985  13.071   6.767   5.020
32404SOL    HW198986  13.079   6.713   4.940
32404SOL    HW298987  13.091   6.706   5.091
32405SOL     OW98988   3.479   6.505   6.527
32405SOL    HW198989   3.392   6.490   6.490
32405SOL    HW298990   3.522   6.562   6.464
32406SOL     OW98991   8.002   6.848   4.551
32406SOL    HW198992   8.050   6.930   4.545
32406SOL    HW298993   8.001   6.814   4.461
32407SOL     OW98994   3.951  13.046   5.133
32407SOL    HW198995   4.027  13.102   5.150
32407SOL    HW298996   3.884  13.107   5.102
32408SOL     OW98997  13.420   4.245   6.344
32408SOL    HW198998  13.510   4.276   6.354
32408SOL    HW298999  13.412   4.173   6.406
32409SOL     OW99000   0.748   8.388   7.663
32409SOL    HW199001   0.684   8.451   7.693
32409SOL    HW299002   0.825   8.440   7.641
32410SOL     OW99003  13.540   9.052   3.791
32410SOL    HW199004  13.456   9.096   3.774
32410SOL    HW299005  13.591   9.065   3.711
32411SOL     OW99006  11.159   1.732   4.537
32411SOL    HW199007  11.215   1.754   4.463
32411SOL    HW299008  11.151   1.813   4.587
32412SOL     OW99009   5.985   0.805  11.706
32412SOL    HW199010   5.938   0.801  11.622
32412SOL    HW299011   6.072   0.769  11.687
32413SOL     OW99012   1.408  12.937  13.403
32413SOL    HW199013   1.356  12.858  13.417
32413SOL    HW299014   1.345  13.003  13.373
32414SOL     OW99015   5.956  14.241  10.280
32414SOL    HW199016   5.954  14.168  10.218
32414SOL    HW299017   5.980  14.200  10.363
32415SOL     OW99018  13.575  11.040  14.231
32415SOL    HW199019  13.537  10.959  14.264
32415SOL    HW299020  13.548  11.107  14.293
32416SOL     OW99021  13.801   2.329   3.022
32416SOL    HW199022  13.782   2.407   2.969
32416SOL    HW299023  13.877   2.354   3.075
32417SOL     OW99024  12.316   6.111   7.529
32417SOL    HW199025  12.289   6.026   7.494
32417SOL    HW299026  12.339   6.162   7.451
32418SOL     OW99027  12.640  10.094   0.779
32418SOL    HW199028  12.591  10.012   0.775
32418SOL    HW299029  12.649  10.122   0.688
32419SOL     OW99030   8.614   1.322  10.669
32419SOL    HW199031   8.670   1.364  10.734
32419SOL    HW299032   8.568   1.254  10.718
32420SOL     OW99033   5.535   1.935  10.829
32420SOL    HW199034   5.586   1.879  10.886
32420SOL    HW299035   5.531   1.888  10.746
32421SOL     OW99036   6.238   0.443   3.325
32421SOL    HW199037   6.300   0.370   3.317
32421SOL    HW299038   6.217   0.466   3.235
32422SOL     OW99039   1.753   8.465   0.997
32422SOL    HW199040   1.824   8.423   1.045
32422SOL    HW299041   1.790   8.548   0.967
32423SOL     OW99042  14.679  11.989  12.687
32423SOL    HW199043  14.634  11.922  12.635
32423SOL    HW299044  14.766  11.995  12.648
32424SOL     OW99045   2.363   7.192   7.562
32424SOL    HW199046   2.337   7.238   7.482
32424SOL    HW299047   2.458   7.193   7.561
32425SOL     OW99048   2.699   4.868   7.497
32425SOL    HW199049   2.792   4.860   7.473
32425SOL    HW299050   2.696   4.844   7.589
32426SOL     OW99051  11.910   9.932  14.091
32426SOL    HW199052  11.989   9.973  14.127
32426SOL    HW299053  11.911   9.843  14.126
32427SOL     OW99054   0.905  12.831  13.873
32427SOL    HW199055   0.991  12.801  13.901
32427SOL    HW299056   0.895  12.796  13.784
32428SOL     OW99057  13.661   9.603   1.950
32428SOL    HW199058  13.657   9.551   1.869
32428SOL    HW299059  13.577   9.587   1.993
32429SOL     OW99060   3.933  10.808   0.505
32429SOL    HW199061   3.896  10.722   0.524
32429SOL    HW299062   3.896  10.865   0.572
32430SOL     OW99063   2.969   9.799   8.261
32430SOL    HW199064   3.009   9.762   8.182
32430SOL    HW299065   3.001   9.889   8.264
32431SOL     OW99066   6.779   2.629   1.402
32431SOL    HW199067   6.814   2.715   1.425
32431SOL    HW299068   6.816   2.569   1.467
32432SOL     OW99069   8.865   9.033  12.148
32432SOL    HW199070   8.875   9.119  12.107
32432SOL    HW299071   8.833   8.977  12.077
32433SOL     OW99072   6.615   9.635   3.048
32433SOL    HW199073   6.550   9.704   3.059
32433SOL    HW299074   6.583   9.563   3.102
32434SOL     OW99075   6.752   8.940   1.113
32434SOL    HW199076   6.668   8.896   1.130
32434SOL    HW299077   6.795   8.943   1.199
32435SOL     OW99078   2.428  13.777   8.724
32435SOL    HW199079   2.414  13.734   8.640
32435SOL    HW299080   2.438  13.706   8.787
32436SOL     OW99081   3.550  13.611   2.091
32436SOL    HW199082   3.491  13.591   2.163
32436SOL    HW299083   3.516  13.559   2.018
32437SOL     OW99084   1.975  12.171   6.809
32437SOL    HW199085   1.912  12.181   6.881
32437SOL    HW299086   1.988  12.077   6.802
32438SOL     OW99087  12.652   1.901   5.766
32438SOL    HW199088  12.690   1.819   5.733
32438SOL    HW299089  12.650   1.958   5.689
32439SOL     OW99090   9.984   5.061   2.846
32439SOL    HW199091  10.026   5.112   2.916
32439SOL    HW299092  10.034   5.082   2.768
32440SOL     OW99093   4.519  11.928  14.397
32440SOL    HW199094   4.589  11.892  14.344
32440SOL    HW299095   4.562  11.990  14.456
32441SOL     OW99096  13.549  14.209   9.557
32441SOL    HW199097  13.557  14.145   9.628
32441SOL    HW299098  13.494  14.166   9.492
32442SOL     OW99099   9.074  14.092   2.933
32442SOL    HW199100   8.987  14.125   2.911
32442SOL    HW299101   9.104  14.148   3.004
32443SOL     OW99102  12.763  13.329  13.551
32443SOL    HW199103  12.743  13.265  13.620
32443SOL    HW299104  12.699  13.310  13.482
32444SOL     OW99105  14.245  11.864   5.171
32444SOL    HW199106  14.286  11.939   5.214
32444SOL    HW299107  14.304  11.842   5.099
32445SOL     OW99108   0.400   6.192   7.094
32445SOL    HW199109   0.404   6.286   7.080
32445SOL    HW299110   0.320   6.178   7.144
32446SOL     OW99111   8.653  10.998   6.803
32446SOL    HW199112   8.625  10.909   6.783
32446SOL    HW299113   8.581  11.035   6.853
32447SOL     OW99114   8.564   2.895  13.635
32447SOL    HW199115   8.611   2.849  13.704
32447SOL    HW299116   8.630   2.915  13.569
32448SOL     OW99117  14.100   3.995   3.651
32448SOL    HW199118  14.081   3.909   3.613
32448SOL    HW299119  14.072   3.988   3.742
32449SOL     OW99120  10.291   6.871   3.163
32449SOL    HW199121  10.262   6.954   3.202
32449SOL    HW299122  10.264   6.877   3.071
32450SOL     OW99123  12.971   9.868  14.306
32450SOL    HW199124  12.986   9.898  14.396
32450SOL    HW299125  12.899   9.806  14.313
32451SOL     OW99126   9.792   1.978  11.366
32451SOL    HW199127   9.760   2.068  11.362
32451SOL    HW299128   9.768   1.941  11.280
32452SOL     OW99129   2.909   6.497  10.897
32452SOL    HW199130   3.000   6.480  10.921
32452SOL    HW299131   2.914   6.541  10.812
32453SOL     OW99132  14.216  14.160   3.056
32453SOL    HW199133  14.145  14.120   3.007
32453SOL    HW299134  14.285  14.094   3.058
32454SOL     OW99135   1.263   2.672   8.149
32454SOL    HW199136   1.321   2.661   8.224
32454SOL    HW299137   1.209   2.748   8.172
32455SOL     OW99138   8.986   9.454  12.763
32455SOL    HW199139   8.994   9.430  12.671
32455SOL    HW299140   9.008   9.547  12.767
32456SOL     OW99141   1.664  10.838   8.246
32456SOL    HW199142   1.750  10.806   8.274
32456SOL    HW299143   1.646  10.792   8.165
32457SOL     OW99144  11.770  13.448   7.008
32457SOL    HW199145  11.682  13.412   7.001
32457SOL    HW299146  11.760  13.527   7.060
32458SOL     OW99147   2.757   2.702   1.075
32458SOL    HW199148   2.777   2.763   1.146
32458SOL    HW299149   2.818   2.629   1.089
32459SOL     OW99150   6.935  14.419   2.170
32459SOL    HW199151   6.970  14.486   2.229
32459SOL    HW299152   6.984  14.431   2.089
32460SOL     OW99153   8.958   0.721  10.405
32460SOL    HW199154   8.961   0.700  10.498
32460SOL    HW299155   8.865   0.740  10.388
32461SOL     OW99156  12.014   9.002   0.509
32461SOL    HW199157  11.990   9.085   0.549
32461SOL    HW299158  11.999   9.015   0.415
32462SOL     OW99159   2.199   5.914   7.242
32462SOL    HW199160   2.167   6.004   7.236
32462SOL    HW299161   2.185   5.890   7.334
32463SOL     OW99162   4.045   5.409  10.492
32463SOL    HW199163   4.002   5.493  10.478
32463SOL    HW299164   4.024   5.385  10.582
32464SOL     OW99165   1.784  11.109  12.905
32464SOL    HW199166   1.791  11.114  13.000
32464SOL    HW299167   1.703  11.155  12.884
32465SOL     OW99168   6.594  14.636   8.688
32465SOL    HW199169   6.646  14.603   8.762
32465SOL    HW299170   6.575  14.558   8.635
32466SOL     OW99171   8.134  10.164  13.669
32466SOL    HW199172   8.060  10.216  13.638
32466SOL    HW299173   8.209  10.197  13.621
32467SOL     OW99174   1.538   6.807   1.290
32467SOL    HW199175   1.599   6.774   1.357
32467SOL    HW299176   1.521   6.898   1.315
32468SOL     OW99177   6.305  11.303   3.880
32468SOL    HW199178   6.264  11.388   3.894
32468SOL    HW299179   6.365  11.317   3.806
32469SOL     OW99180   2.313   6.764  13.759
32469SOL    HW199181   2.314   6.843  13.813
32469SOL    HW299182   2.395   6.719  13.780
32470SOL     OW99183   6.538   6.754  12.642
32470SOL    HW199184   6.604   6.685  12.647
32470SOL    HW299185   6.474   6.721  12.580
32471SOL     OW99186   5.504  11.902   4.725
32471SOL    HW199187   5.437  11.893   4.793
32471SOL    HW299188   5.474  11.976   4.671
32472SOL     OW99189  12.558   1.815   4.028
32472SOL    HW199190  12.464   1.798   4.015
32472SOL    HW299191  12.572   1.799   4.122
32473SOL     OW99192  14.752   2.553   6.420
32473SOL    HW199193  14.706   2.476   6.385
32473SOL    HW299194  14.824   2.567   6.359
32474SOL     OW99195   3.368   9.518   0.220
32474SOL    HW199196   3.414   9.590   0.263
32474SOL    HW299197   3.279   9.523   0.256
32475SOL     OW99198   1.806   7.745   1.008
32475SOL    HW199199   1.773   7.738   1.097
32475SOL    HW299200   1.825   7.655   0.982
32476SOL     OW99201  14.066   6.770  14.269
32476SOL    HW199202  14.144   6.715  14.257
32476SOL    HW299203  13.994   6.708  14.282
32477SOL     OW99204   2.778  14.753   5.487
32477SOL    HW199205   2.838  14.828   5.480
32477SOL    HW299206   2.816  14.686   5.431
32478SOL     OW99207   8.133   2.274  11.693
32478SOL    HW199208   8.108   2.216  11.620
32478SOL    HW299209   8.228   2.272  11.693
32479SOL     OW99210   4.172   4.555   2.451
32479SOL    HW199211   4.234   4.586   2.385
32479SOL    HW299212   4.213   4.475   2.485
32480SOL     OW99213  11.939   5.250  10.342
32480SOL    HW199214  11.977   5.164  10.322
32480SOL    HW299215  11.874   5.232  10.410
32481SOL     OW99216   3.423   4.664   2.629
32481SOL    HW199217   3.371   4.727   2.679
32481SOL    HW299218   3.487   4.631   2.692
32482SOL     OW99219  13.791   8.539   3.134
32482SOL    HW199220  13.793   8.524   3.228
32482SOL    HW299221  13.705   8.580   3.118
32483SOL     OW99222   2.827   7.328  12.454
32483SOL    HW199223   2.911   7.294  12.485
32483SOL    HW299224   2.763   7.264  12.485
32484SOL     OW99225   0.206   0.533   7.379
32484SOL    HW199226   0.191   0.500   7.468
32484SOL    HW299227   0.183   0.460   7.322
32485SOL     OW99228  13.245  10.043   3.909
32485SOL    HW199229  13.266   9.950   3.920
32485SOL    HW299230  13.276  10.084   3.990
32486SOL     OW99231   2.011   4.490   0.932
32486SOL    HW199232   1.926   4.492   0.976
32486SOL    HW299233   2.074   4.473   1.001
32487SOL     OW99234   8.644  11.698   3.547
32487SOL    HW199235   8.731  11.726   3.520
32487SOL    HW299236   8.585  11.765   3.511
32488SOL     OW99237  11.910   7.902   6.779
32488SOL    HW199238  11.862   7.834   6.827
32488SOL    HW299239  12.002   7.885   6.798
32489SOL     OW99240   6.496  10.436  12.550
32489SOL    HW199241   6.469  10.458  12.639
32489SOL    HW299242   6.535  10.516  12.516
32490SOL     OW99243  13.398   5.774   9.064
32490SOL    HW199244  13.437   5.830   8.996
32490SOL    HW299245  13.412   5.685   9.032
32491SOL     OW99246   9.561   6.948  11.785
32491SOL    HW199247   9.609   7.025  11.754
32491SOL    HW299248   9.503   6.926  11.712
32492SOL     OW99249   5.825   1.098  11.168
32492SOL    HW199250   5.737   1.110  11.132
32492SOL    HW299251   5.871   1.179  11.145
32493SOL     OW99252   4.660  12.500  12.147
32493SOL    HW199253   4.639  12.425  12.091
32493SOL    HW299254   4.720  12.553  12.095
32494SOL     OW99255   3.824   0.151   6.212
32494SOL    HW199256   3.825   0.215   6.283
32494SOL    HW299257   3.877   0.079   6.244
32495SOL     OW99258   6.034  13.542   1.786
32495SOL    HW199259   6.025  13.482   1.860
32495SOL    HW299260   6.129  13.548   1.772
32496SOL     OW99261   7.399   6.944  11.654
32496SOL    HW199262   7.313   6.986  11.655
32496SOL    HW299263   7.430   6.954  11.565
32497SOL     OW99264   0.383  12.942   4.894
32497SOL    HW199265   0.377  12.847   4.903
32497SOL    HW299266   0.474  12.963   4.917
32498SOL     OW99267   4.153   4.406   3.027
32498SOL    HW199268   4.169   4.500   3.020
32498SOL    HW299269   4.225   4.373   3.081
32499SOL     OW99270   9.427  10.427  14.814
32499SOL    HW199271   9.446  10.348  14.865
32499SOL    HW299272   9.403  10.395  14.728
32500SOL     OW99273   0.950   8.645   6.126
32500SOL    HW199274   1.033   8.693   6.124
32500SOL    HW299275   0.942   8.606   6.039
32501SOL     OW99276  11.321   7.295  13.188
32501SOL    HW199277  11.283   7.225  13.134
32501SOL    HW299278  11.294   7.376  13.145
32502SOL     OW99279   2.037  14.881  13.937
32502SOL    HW199280   2.000  14.800  13.903
32502SOL    HW299281   2.048  14.865  14.031
32503SOL     OW99282   5.258   5.565   7.007
32503SOL    HW199283   5.255   5.648   7.053
32503SOL    HW299284   5.291   5.503   7.071
32504SOL     OW99285   9.079   9.902  11.353
32504SOL    HW199286   9.094   9.824  11.407
32504SOL    HW299287   9.142   9.894  11.282
32505SOL     OW99288   9.698   3.433   1.172
32505SOL    HW199289   9.784   3.391   1.164
32505SOL    HW299290   9.669   3.412   1.260
32506SOL     OW99291   8.955   9.717   5.929
32506SOL    HW199292   8.950   9.751   5.840
32506SOL    HW299293   8.875   9.666   5.941
32507SOL     OW99294   8.223  13.798  12.503
32507SOL    HW199295   8.252  13.787  12.594
32507SOL    HW299296   8.171  13.720  12.485
32508SOL     OW99297  10.759  10.536  14.855
32508SOL    HW199298  10.842  10.581  14.869
32508SOL    HW299299  10.712  10.591  14.793
32509SOL     OW99300   7.688  14.211   1.002
32509SOL    HW199301   7.713  14.297   0.970
32509SOL    HW299302   7.720  14.150   0.935
32510SOL     OW99303   5.761   0.486   1.722
32510SOL    HW199304   5.796   0.536   1.796
32510SOL    HW299305   5.712   0.414   1.763
32511SOL     OW99306  13.301  14.601   7.788
32511SOL    HW199307  13.286  14.634   7.699
32511SOL    HW299308  13.313  14.680   7.841
32512SOL     OW99309  13.617   0.247  12.148
32512SOL    HW199310  13.590   0.339  12.155
32512SOL    HW299311  13.632   0.234  12.054
32513SOL     OW99312  10.345   1.264   4.182
32513SOL    HW199313  10.335   1.277   4.088
32513SOL    HW299314  10.416   1.201   4.190
32514SOL     OW99315   1.943   7.173  13.842
32514SOL    HW199316   1.889   7.154  13.766
32514SOL    HW299317   2.027   7.131  13.823
32515SOL     OW99318  13.968   7.438   7.772
32515SOL    HW199319  14.002   7.422   7.684
32515SOL    HW299320  14.028   7.392   7.831
32516SOL     OW99321   3.428   6.763   9.036
32516SOL    HW199322   3.485   6.731   9.106
32516SOL    HW299323   3.406   6.852   9.062
32517SOL     OW99324   5.299   3.082   8.187
32517SOL    HW199325   5.236   3.147   8.217
32517SOL    HW299326   5.384   3.125   8.197
32518SOL     OW99327   8.884   5.860   1.724
32518SOL    HW199328   8.842   5.914   1.791
32518SOL    HW299329   8.940   5.800   1.773
32519SOL     OW99330   7.426  11.608   1.804
32519SOL    HW199331   7.516  11.583   1.826
32519SOL    HW299332   7.392  11.534   1.754
32520SOL     OW99333   7.734   9.439   5.720
32520SOL    HW199334   7.667   9.505   5.737
32520SOL    HW299335   7.686   9.364   5.683
32521SOL     OW99336   9.170   8.934  12.119
32521SOL    HW199337   9.076   8.951  12.123
32521SOL    HW299338   9.180   8.845  12.152
32522SOL     OW99339  14.795  11.658   4.831
32522SOL    HW199340  14.716  11.707   4.811
32522SOL    HW299341  14.789  11.640   4.925
32523SOL     OW99342   6.722   5.540   2.902
32523SOL    HW199343   6.754   5.452   2.921
32523SOL    HW299344   6.776   5.570   2.828
32524SOL     OW99345   7.323   1.923   9.606
32524SOL    HW199346   7.384   1.889   9.672
32524SOL    HW299347   7.251   1.960   9.657
32525SOL     OW99348   3.348   1.487   8.872
32525SOL    HW199349   3.346   1.566   8.818
32525SOL    HW299350   3.257   1.460   8.878
32526SOL     OW99351   9.440  10.625   9.905
32526SOL    HW199352   9.481  10.601   9.988
32526SOL    HW299353   9.352  10.590   9.911
32527SOL     OW99354   3.398  10.198  10.831
32527SOL    HW199355   3.459  10.139  10.875
32527SOL    HW299356   3.454  10.266  10.792
32528SOL     OW99357  11.207  10.166   9.768
32528SOL    HW199358  11.143  10.110   9.811
32528SOL    HW299359  11.291  10.138   9.803
32529SOL     OW99360  12.063   7.912   8.565
32529SOL    HW199361  12.111   7.877   8.489
32529SOL    HW299362  11.978   7.868   8.562
32530SOL     OW99363  13.091   3.697   1.439
32530SOL    HW199364  13.086   3.613   1.485
32530SOL    HW299365  13.182   3.703   1.410
32531SOL     OW99366  14.432  14.825  14.508
32531SOL    HW199367  14.345  14.851  14.537
32531SOL    HW299368  14.421  14.734  14.479
32532SOL     OW99369   8.950  10.891   3.589
32532SOL    HW199370   8.931  10.858   3.502
32532SOL    HW299371   8.865  10.896   3.633
32533SOL     OW99372  10.147  13.955   5.931
32533SOL    HW199373  10.185  14.009   6.000
32533SOL    HW299374  10.155  13.866   5.964
32534SOL     OW99375   4.436   1.071   8.309
32534SOL    HW199376   4.418   1.117   8.391
32534SOL    HW299377   4.351   1.063   8.266
32535SOL     OW99378  12.987   0.904   9.500
32535SOL    HW199379  12.974   0.887   9.406
32535SOL    HW299380  13.036   0.986   9.503
32536SOL     OW99381   7.276   7.129   1.897
32536SOL    HW199382   7.268   7.050   1.952
32536SOL    HW299383   7.211   7.117   1.828
32537SOL     OW99384   9.696   7.925   0.759
32537SOL    HW199385   9.621   7.950   0.812
32537SOL    HW299386   9.705   7.995   0.694
32538SOL     OW99387   4.846   0.111   3.245
32538SOL    HW199388   4.873   0.103   3.153
32538SOL    HW299389   4.894   0.187   3.278
32539SOL     OW99390   0.164   4.689   9.817
32539SOL    HW199391   0.233   4.650   9.763
32539SOL    HW299392   0.210   4.721   9.895
32540SOL     OW99393  14.707   8.256  12.703
32540SOL    HW199394  14.637   8.191  12.714
32540SOL    HW299395  14.666   8.326  12.652
32541SOL     OW99396   8.761   1.042   8.773
32541SOL    HW199397   8.814   1.036   8.693
32541SOL    HW299398   8.751   0.951   8.801
32542SOL     OW99399   7.006   2.692   9.487
32542SOL    HW199400   7.051   2.733   9.560
32542SOL    HW299401   7.066   2.701   9.413
32543SOL     OW99402  12.946  12.132   4.086
32543SOL    HW199403  12.942  12.038   4.100
32543SOL    HW299404  12.856  12.162   4.096
32544SOL     OW99405   3.674  14.237   8.392
32544SOL    HW199406   3.589  14.207   8.425
32544SOL    HW299407   3.686  14.187   8.311
32545SOL     OW99408   5.442   8.651  14.136
32545SOL    HW199409   5.494   8.573  14.116
32545SOL    HW299410   5.397   8.671  14.054
32546SOL     OW99411   7.961  11.645  12.506
32546SOL    HW199412   7.992  11.563  12.543
32546SOL    HW299413   8.017  11.712  12.545
32547SOL     OW99414   0.504   5.631  14.743
32547SOL    HW199415   0.485   5.551  14.694
32547SOL    HW299416   0.569   5.604  14.808
32548SOL     OW99417  12.139   0.914  10.127
32548SOL    HW199418  12.118   0.865  10.206
32548SOL    HW299419  12.144   1.005  10.157
32549SOL     OW99420  10.468  13.635   5.564
32549SOL    HW199421  10.384  13.682   5.565
32549SOL    HW299422  10.448  13.549   5.602
32550SOL     OW99423   5.085   0.764  10.149
32550SOL    HW199424   5.144   0.793  10.080
32550SOL    HW299425   5.138   0.704  10.202
32551SOL     OW99426  11.440   6.802  12.484
32551SOL    HW199427  11.422   6.821  12.576
32551SOL    HW299428  11.536   6.805  12.477
32552SOL     OW99429   4.951   0.329  11.592
32552SOL    HW199430   4.889   0.319  11.519
32552SOL    HW299431   4.896   0.355  11.666
32553SOL     OW99432   9.883   6.212  14.493
32553SOL    HW199433   9.896   6.304  14.514
32553SOL    HW299434   9.828   6.212  14.415
32554SOL     OW99435   9.494   0.675   3.962
32554SOL    HW199436   9.489   0.692   4.056
32554SOL    HW299437   9.434   0.739   3.923
32555SOL     OW99438   6.423   1.490   1.643
32555SOL    HW199439   6.347   1.537   1.609
32555SOL    HW299440   6.397   1.398   1.639
32556SOL     OW99441   7.554  10.840  12.458
32556SOL    HW199442   7.609  10.859  12.382
32556SOL    HW299443   7.492  10.774  12.428
32557SOL     OW99444   2.192   3.085   4.425
32557SOL    HW199445   2.276   3.044   4.405
32557SOL    HW299446   2.134   3.055   4.355
32558SOL     OW99447  12.540   2.616   7.736
32558SOL    HW199448  12.610   2.681   7.738
32558SOL    HW299449  12.487   2.639   7.660
32559SOL     OW99450  11.747  11.683  12.207
32559SOL    HW199451  11.659  11.698  12.172
32559SOL    HW299452  11.736  11.686  12.302
32560SOL     OW99453   1.228  11.375   9.559
32560SOL    HW199454   1.270  11.310   9.614
32560SOL    HW299455   1.135  11.350   9.558
32561SOL     OW99456  13.447  10.938   0.380
32561SOL    HW199457  13.531  10.893   0.370
32561SOL    HW299458  13.396  10.910   0.304
32562SOL     OW99459   9.341  12.598   9.719
32562SOL    HW199460   9.433  12.573   9.733
32562SOL    HW299461   9.346  12.684   9.678
32563SOL     OW99462   8.157  13.959   5.574
32563SOL    HW199463   8.121  13.874   5.599
32563SOL    HW299464   8.111  14.022   5.630
32564SOL     OW99465   1.762   3.315  10.649
32564SOL    HW199466   1.711   3.276  10.720
32564SOL    HW299467   1.697   3.341  10.584
32565SOL     OW99468   4.396   2.787  14.024
32565SOL    HW199469   4.398   2.843  13.946
32565SOL    HW299470   4.447   2.835  14.089
32566SOL     OW99471   0.201  10.960  11.565
32566SOL    HW199472   0.260  10.885  11.568
32566SOL    HW299473   0.242  11.025  11.621
32567SOL     OW99474   2.780   1.594   0.833
32567SOL    HW199475   2.778   1.657   0.905
32567SOL    HW299476   2.754   1.644   0.756
32568SOL     OW99477   0.938   1.308   8.643
32568SOL    HW199478   0.904   1.235   8.695
32568SOL    HW299479   0.996   1.354   8.703
32569SOL     OW99480   6.389  12.715   7.310
32569SOL    HW199481   6.436  12.666   7.377
32569SOL    HW299482   6.364  12.649   7.245
32570SOL     OW99483   2.363   2.221   8.751
32570SOL    HW199484   2.275   2.231   8.788
32570SOL    HW299485   2.372   2.295   8.691
32571SOL     OW99486   9.213   2.874   7.372
32571SOL    HW199487   9.258   2.813   7.430
32571SOL    HW299488   9.275   2.888   7.299
32572SOL     OW99489   8.370   0.844   9.774
32572SOL    HW199490   8.284   0.886   9.765
32572SOL    HW299491   8.378   0.826   9.868
32573SOL     OW99492   7.247   2.918  12.964
32573SOL    HW199493   7.219   2.928  13.055
32573SOL    HW299494   7.335   2.881  12.970
32574SOL     OW99495   1.568  13.885   7.738
32574SOL    HW199496   1.638  13.824   7.716
32574SOL    HW299497   1.532  13.913   7.654
32575SOL     OW99498   1.174   9.805   9.967
32575SOL    HW199499   1.164   9.715   9.935
32575SOL    HW299500   1.254   9.803  10.020
32576SOL     OW99501   8.443   1.056  12.608
32576SOL    HW199502   8.381   0.991  12.640
32576SOL    HW299503   8.479   1.096  12.687
32577SOL     OW99504   0.792   2.951   1.459
32577SOL    HW199505   0.792   3.032   1.509
32577SOL    HW299506   0.793   2.882   1.525
32578SOL     OW99507   3.968   8.992   9.963
32578SOL    HW199508   4.057   9.013   9.936
32578SOL    HW299509   3.973   8.982  10.058
32579SOL     OW99510   8.121   3.492   4.429
32579SOL    HW199511   8.067   3.532   4.361
32579SOL    HW299512   8.203   3.470   4.385
32580SOL     OW99513  10.321   1.366  11.857
32580SOL    HW199514  10.367   1.448  11.875
32580SOL    HW299515  10.230   1.392  11.842
32581SOL     OW99516   8.205   6.513   7.155
32581SOL    HW199517   8.144   6.579   7.122
32581SOL    HW299518   8.263   6.496   7.080
32582SOL     OW99519  10.248   4.359   6.289
32582SOL    HW199520  10.187   4.313   6.347
32582SOL    HW299521  10.192   4.419   6.239
32583SOL     OW99522   3.670  10.362   4.807
32583SOL    HW199523   3.742  10.418   4.835
32583SOL    HW299524   3.660  10.381   4.714
32584SOL     OW99525  12.014   7.014   9.776
32584SOL    HW199526  11.948   7.037   9.711
32584SOL    HW299527  12.016   6.918   9.775
32585SOL     OW99528   6.688   7.577   3.627
32585SOL    HW199529   6.608   7.534   3.597
32585SOL    HW299530   6.759   7.530   3.583
32586SOL     OW99531   5.522  12.624   9.978
32586SOL    HW199532   5.550  12.715   9.966
32586SOL    HW299533   5.522  12.587   9.890
32587SOL     OW99534   1.764   1.654  11.147
32587SOL    HW199535   1.749   1.571  11.103
32587SOL    HW299536   1.840   1.638  11.203
32588SOL     OW99537   8.906   4.303  14.327
32588SOL    HW199538   8.924   4.253  14.407
32588SOL    HW299539   8.908   4.238  14.257
32589SOL     OW99540   7.641   0.288  14.021
32589SOL    HW199541   7.709   0.319  13.961
32589SOL    HW299542   7.595   0.367  14.050
32590SOL     OW99543   3.916   1.738  11.429
32590SOL    HW199544   3.869   1.752  11.346
32590SOL    HW299545   3.932   1.643  11.430
32591SOL     OW99546   6.221   4.201   3.967
32591SOL    HW199547   6.311   4.232   3.954
32591SOL    HW299548   6.219   4.114   3.927
32592SOL     OW99549   8.366   8.263  14.457
32592SOL    HW199550   8.394   8.177  14.487
32592SOL    HW299551   8.339   8.249  14.366
32593SOL     OW99552   4.465  14.387   1.970
32593SOL    HW199553   4.548  14.341   1.959
32593SOL    HW299554   4.429  14.353   2.052
32594SOL     OW99555  11.629   0.764   3.254
32594SOL    HW199556  11.601   0.822   3.184
32594SOL    HW299557  11.606   0.811   3.335
32595SOL     OW99558   1.986   3.420   7.583
32595SOL    HW199559   1.910   3.439   7.637
32595SOL    HW299560   2.019   3.506   7.558
32596SOL     OW99561  12.898   5.123   8.185
32596SOL    HW199562  12.851   5.040   8.189
32596SOL    HW299563  12.938   5.124   8.098
32597SOL     OW99564   6.292   5.387   1.030
32597SOL    HW199565   6.340   5.312   1.065
32597SOL    HW299566   6.360   5.451   1.007
32598SOL     OW99567   0.359   8.266  12.173
32598SOL    HW199568   0.374   8.190  12.229
32598SOL    HW299569   0.441   8.315  12.177
32599SOL     OW99570  12.501  10.168   6.014
32599SOL    HW199571  12.480  10.195   5.925
32599SOL    HW299572  12.550  10.086   6.004
32600SOL     OW99573  13.813  11.034   7.770
32600SOL    HW199574  13.900  11.069   7.752
32600SOL    HW299575  13.828  10.965   7.834
32601SOL     OW99576  13.680  10.219  13.502
32601SOL    HW199577  13.732  10.143  13.476
32601SOL    HW299578  13.676  10.214  13.598
32602SOL     OW99579  13.367  14.837   7.902
32602SOL    HW199580  13.449  14.802   7.936
32602SOL    HW299581  13.318  14.863   7.980
32603SOL     OW99582   8.671  12.705   3.750
32603SOL    HW199583   8.705  12.674   3.666
32603SOL    HW299584   8.695  12.798   3.752
32604SOL     OW99585   1.658   6.054   4.306
32604SOL    HW199586   1.745   6.083   4.335
32604SOL    HW299587   1.614   6.135   4.281
32605SOL     OW99588  11.016   1.518   6.038
32605SOL    HW199589  10.926   1.495   6.016
32605SOL    HW299590  11.061   1.434   6.048
32606SOL     OW99591  14.594   6.856  14.762
32606SOL    HW199592  14.622   6.912  14.689
32606SOL    HW299593  14.552   6.915  14.823
32607SOL     OW99594   9.423   2.735   5.902
32607SOL    HW199595   9.487   2.733   5.973
32607SOL    HW299596   9.367   2.809   5.922
32608SOL     OW99597  10.197   4.402  11.980
32608SOL    HW199598  10.247   4.412  11.899
32608SOL    HW299599  10.194   4.490  12.017
32609SOL     OW99600   6.459  11.292  14.092
32609SOL    HW199601   6.366  11.270  14.103
32609SOL    HW299602   6.462  11.337  14.008
32610SOL     OW99603   2.638   9.640   3.148
32610SOL    HW199604   2.727   9.611   3.164
32610SOL    HW299605   2.587   9.606   3.222
32611SOL     OW99606  13.599   7.195   3.261
32611SOL    HW199607  13.673   7.251   3.235
32611SOL    HW299608  13.521   7.246   3.240
32612SOL     OW99609  11.740   9.155   3.141
32612SOL    HW199610  11.699   9.154   3.228
32612SOL    HW299611  11.813   9.093   3.149
32613SOL     OW99612  10.564  11.998   8.570
32613SOL    HW199613  10.533  11.917   8.612
32613SOL    HW299614  10.522  12.068   8.619
32614SOL     OW99615  14.085  12.777  10.479
32614SOL    HW199616  14.075  12.839  10.407
32614SOL    HW299617  14.113  12.695  10.437
32615SOL     OW99618  14.601  13.752   6.499
32615SOL    HW199619  14.632  13.839   6.525
32615SOL    HW299620  14.644  13.736   6.415
32616SOL     OW99621   5.530   8.541  13.729
32616SOL    HW199622   5.451   8.497  13.762
32616SOL    HW299623   5.557   8.599  13.800
32617SOL     OW99624   4.312   9.066  14.470
32617SOL    HW199625   4.259   9.129  14.421
32617SOL    HW299626   4.269   8.982  14.456
32618SOL     OW99627   6.802   5.121   5.659
32618SOL    HW199628   6.786   5.101   5.566
32618SOL    HW299629   6.852   5.045   5.691
32619SOL     OW99630   7.234   7.066   9.935
32619SOL    HW199631   7.203   7.049   9.846
32619SOL    HW299632   7.318   7.022   9.940
32620SOL     OW99633   7.941  10.690   7.700
32620SOL    HW199634   7.850  10.666   7.679
32620SOL    HW299635   7.934  10.739   7.782
32621SOL     OW99636   8.064   3.274   5.507
32621SOL    HW199637   8.092   3.365   5.495
32621SOL    HW299638   8.001   3.260   5.436
32622SOL     OW99639   6.931  13.355   9.506
32622SOL    HW199640   7.018  13.326   9.532
32622SOL    HW299641   6.882  13.275   9.490
32623SOL     OW99642  11.090   6.081  11.622
32623SOL    HW199643  11.088   6.086  11.527
32623SOL    HW299644  11.002   6.052  11.647
32624SOL     OW99645   0.770  10.440  13.463
32624SOL    HW199646   0.835  10.506  13.486
32624SOL    HW299647   0.687  10.477  13.493
32625SOL     OW99648   6.902  13.268   4.538
32625SOL    HW199649   6.967  13.219   4.588
32625SOL    HW299650   6.838  13.296   4.603
32626SOL     OW99651  10.654   6.247   5.412
32626SOL    HW199652  10.585   6.210   5.468
32626SOL    HW299653  10.607   6.299   5.347
32627SOL     OW99654  11.917   8.465   7.043
32627SOL    HW199655  11.978   8.539   7.038
32627SOL    HW299656  11.862   8.485   7.119
32628SOL     OW99657   5.516  12.177  11.164
32628SOL    HW199658   5.594  12.131  11.132
32628SOL    HW299659   5.493  12.130  11.245
32629SOL     OW99660   2.057   6.000   8.098
32629SOL    HW199661   2.032   5.971   8.010
32629SOL    HW299662   2.092   5.921   8.140
32630SOL     OW99663   4.122   9.375  12.956
32630SOL    HW199664   4.060   9.378  12.882
32630SOL    HW299665   4.188   9.442  12.934
32631SOL     OW99666   7.268  13.191   5.406
32631SOL    HW199667   7.341  13.149   5.360
32631SOL    HW299668   7.270  13.282   5.375
32632SOL     OW99669   7.281   1.583   3.876
32632SOL    HW199670   7.302   1.605   3.786
32632SOL    HW299671   7.365   1.583   3.921
32633SOL     OW99672   5.922  12.581   0.148
32633SOL    HW199673   6.004  12.534   0.165
32633SOL    HW299674   5.857  12.512   0.139
32634SOL     OW99675   1.168   4.463   5.751
32634SOL    HW199676   1.242   4.456   5.691
32634SOL    HW299677   1.107   4.523   5.708
32635SOL     OW99678   6.896   2.722   0.692
32635SOL    HW199679   6.828   2.737   0.626
32635SOL    HW299680   6.916   2.629   0.685
32636SOL     OW99681  12.707  14.015  10.759
32636SOL    HW199682  12.795  14.005  10.796
32636SOL    HW299683  12.722  14.056  10.673
32637SOL     OW99684   4.716   9.184   5.811
32637SOL    HW199685   4.640   9.136   5.778
32637SOL    HW299686   4.768   9.203   5.733
32638SOL     OW99687   9.510   5.386   7.326
32638SOL    HW199688   9.535   5.453   7.262
32638SOL    HW299689   9.415   5.384   7.323
32639SOL     OW99690   0.248  10.731   2.924
32639SOL    HW199691   0.209  10.717   3.010
32639SOL    HW299692   0.342  10.738   2.940
32640SOL     OW99693  12.979   8.485  14.044
32640SOL    HW199694  12.912   8.454  13.983
32640SOL    HW299695  12.930   8.534  14.110
32641SOL     OW99696   9.220   7.074  14.076
32641SOL    HW199697   9.266   7.113  14.150
32641SOL    HW299698   9.288   7.026  14.028
32642SOL     OW99699  11.235   3.346   8.904
32642SOL    HW199700  11.181   3.423   8.921
32642SOL    HW299701  11.316   3.362   8.953
32643SOL     OW99702   2.361   4.829   1.395
32643SOL    HW199703   2.286   4.835   1.336
32643SOL    HW299704   2.363   4.914   1.439
32644SOL     OW99705   7.770  12.084  11.371
32644SOL    HW199706   7.727  12.000  11.384
32644SOL    HW299707   7.859  12.061  11.341
32645SOL     OW99708  11.865  12.253   0.426
32645SOL    HW199709  11.932  12.201   0.382
32645SOL    HW299710  11.877  12.236   0.519
32646SOL     OW99711   7.688   9.988   4.574
32646SOL    HW199712   7.651  10.071   4.543
32646SOL    HW299713   7.754   9.966   4.508
32647SOL     OW99714   9.774  11.797  10.399
32647SOL    HW199715   9.709  11.769  10.464
32647SOL    HW299716   9.857  11.761  10.431
32648SOL     OW99717  12.383   4.258   1.988
32648SOL    HW199718  12.433   4.337   2.007
32648SOL    HW299719  12.376   4.256   1.893
32649SOL     OW99720  12.160  10.455   0.734
32649SOL    HW199721  12.209  10.426   0.810
32649SOL    HW299722  12.193  10.401   0.662
32650SOL     OW99723   9.869  13.083   1.192
32650SOL    HW199724   9.850  13.165   1.238
32650SOL    HW299725   9.825  13.016   1.244
32651SOL     OW99726   5.984   6.003   9.119
32651SOL    HW199727   5.895   6.036   9.103
32651SOL    HW299728   6.038   6.082   9.121
32652SOL     OW99729   8.096   8.406   7.969
32652SOL    HW199730   8.079   8.501   7.972
32652SOL    HW299731   8.014   8.366   7.997
32653SOL     OW99732  11.870   4.427   5.010
32653SOL    HW199733  11.856   4.368   5.083
32653SOL    HW299734  11.960   4.457   5.019
32654SOL     OW99735  10.222  10.964   7.134
32654SOL    HW199736  10.177  10.963   7.049
32654SOL    HW299737  10.212  10.876   7.168
32655SOL     OW99738   9.484   2.909  11.822
32655SOL    HW199739   9.478   2.966  11.745
32655SOL    HW299740   9.395   2.905  11.856
32656SOL     OW99741   9.655   5.491   1.871
32656SOL    HW199742   9.615   5.579   1.869
32656SOL    HW299743   9.581   5.432   1.884
32657SOL     OW99744  12.220  14.038   0.487
32657SOL    HW199745  12.196  14.074   0.401
32657SOL    HW299746  12.177  14.095   0.550
32658SOL     OW99747   1.941   0.875  12.308
32658SOL    HW199748   1.910   0.873  12.399
32658SOL    HW299749   1.935   0.967  12.283
32659SOL     OW99750   0.367   6.821   4.169
32659SOL    HW199751   0.315   6.881   4.223
32659SOL    HW299752   0.416   6.878   4.110
32660SOL     OW99753  13.187   5.395  11.383
32660SOL    HW199754  13.209   5.343  11.460
32660SOL    HW299755  13.257   5.378  11.321
32661SOL     OW99756   6.529   5.437  11.843
32661SOL    HW199757   6.436   5.461  11.843
32661SOL    HW299758   6.530   5.344  11.821
32662SOL     OW99759  13.937   4.470  12.727
32662SOL    HW199760  13.954   4.521  12.648
32662SOL    HW299761  13.865   4.411  12.703
32663SOL     OW99762  14.103  12.188  13.965
32663SOL    HW199763  14.153  12.203  14.045
32663SOL    HW299764  14.055  12.269  13.951
32664SOL     OW99765  14.697   3.213   5.698
32664SOL    HW199766  14.663   3.283   5.643
32664SOL    HW299767  14.713   3.255   5.783
32665SOL     OW99768  11.779   3.257   5.141
32665SOL    HW199769  11.713   3.244   5.073
32665SOL    HW299770  11.828   3.175   5.143
32666SOL     OW99771   0.721   2.790  14.743
32666SOL    HW199772   0.731   2.752  14.656
32666SOL    HW299773   0.808   2.782  14.783
32667SOL     OW99774   1.249   5.729  13.407
32667SOL    HW199775   1.183   5.766  13.348
32667SOL    HW299776   1.202   5.710  13.488
32668SOL     OW99777   0.589   4.819   2.145
32668SOL    HW199778   0.526   4.829   2.073
32668SOL    HW299779   0.633   4.735   2.127
32669SOL     OW99780   9.617  13.908   3.061
32669SOL    HW199781   9.626  13.985   3.005
32669SOL    HW299782   9.654  13.836   3.009
32670SOL     OW99783  10.477  13.630  13.733
32670SOL    HW199784  10.436  13.584  13.660
32670SOL    HW299785  10.415  13.620  13.805
32671SOL     OW99786   5.325   5.551   1.392
32671SOL    HW199787   5.323   5.554   1.488
32671SOL    HW299788   5.246   5.596   1.365
32672SOL     OW99789   6.664  11.067   8.602
32672SOL    HW199790   6.636  11.013   8.528
32672SOL    HW299791   6.672  11.155   8.565
32673SOL     OW99792   3.724   0.033   7.878
32673SOL    HW199793   3.804   0.067   7.840
32673SOL    HW299794   3.655   0.091   7.845
32674SOL     OW99795   5.736   6.351   5.495
32674SOL    HW199796   5.723   6.281   5.559
32674SOL    HW299797   5.657   6.351   5.441
32675SOL     OW99798   7.915   2.188   9.235
32675SOL    HW199799   7.937   2.114   9.180
32675SOL    HW299800   7.849   2.237   9.186
32676SOL     OW99801   3.894   3.458   5.745
32676SOL    HW199802   3.955   3.531   5.757
32676SOL    HW299803   3.937   3.385   5.790
32677SOL     OW99804   5.977   0.116   1.466
32677SOL    HW199805   5.976   0.051   1.396
32677SOL    HW299806   5.888   0.151   1.468
32678SOL     OW99807  12.653  12.727   6.424
32678SOL    HW199808  12.625  12.788   6.493
32678SOL    HW299809  12.583  12.731   6.359
32679SOL     OW99810   5.650   1.297  11.085
32679SOL    HW199811   5.683   1.382  11.056
32679SOL    HW299812   5.566   1.288  11.042
32680SOL     OW99813   5.724   6.398   6.635
32680SOL    HW199814   5.704   6.410   6.728
32680SOL    HW299815   5.791   6.464   6.617
32681SOL     OW99816   3.240   6.262   3.600
32681SOL    HW199817   3.172   6.194   3.597
32681SOL    HW299818   3.214   6.317   3.674
32682SOL     OW99819   6.170   8.335   6.310
32682SOL    HW199820   6.208   8.378   6.387
32682SOL    HW299821   6.220   8.254   6.301
32683SOL     OW99822   9.793  10.219  10.680
32683SOL    HW199823   9.840  10.140  10.652
32683SOL    HW299824   9.801  10.219  10.775
32684SOL     OW99825   1.350   8.763   1.165
32684SOL    HW199826   1.373   8.839   1.111
32684SOL    HW299827   1.346   8.798   1.254
32685SOL     OW99828   4.007   4.670   3.942
32685SOL    HW199829   4.088   4.653   3.895
32685SOL    HW299830   4.026   4.746   3.997
32686SOL     OW99831   2.197   8.096   6.067
32686SOL    HW199832   2.163   8.020   6.020
32686SOL    HW299833   2.250   8.060   6.138
32687SOL     OW99834  14.495   5.340  10.183
32687SOL    HW199835  14.403   5.314  10.190
32687SOL    HW299836  14.504   5.413  10.244
32688SOL     OW99837  12.566   0.875   7.545
32688SOL    HW199838  12.658   0.863   7.519
32688SOL    HW299839  12.541   0.958   7.505
32689SOL     OW99840   1.500   6.974  13.349
32689SOL    HW199841   1.490   6.930  13.434
32689SOL    HW299842   1.566   6.923  13.303
32690SOL     OW99843   4.062  12.208   0.534
32690SOL    HW199844   4.125  12.142   0.561
32690SOL    HW299845   4.018  12.234   0.615
32691SOL     OW99846  11.400   9.109  10.255
32691SOL    HW199847  11.462   9.051  10.299
32691SOL    HW299848  11.317   9.092  10.298
32692SOL     OW99849   3.480  11.231   1.796
32692SOL    HW199850   3.487  11.219   1.701
32692SOL    HW299851   3.564  11.200   1.831
32693SOL     OW99852   2.954   7.614  14.733
32693SOL    HW199853   2.963   7.519  14.727
32693SOL    HW299854   2.867   7.627  14.771
32694SOL     OW99855   4.079  12.045  13.643
32694SOL    HW199856   4.173  12.061  13.633
32694SOL    HW299857   4.073  11.962  13.690
32695SOL     OW99858   2.731  12.091   3.843
32695SOL    HW199859   2.706  12.000   3.860
32695SOL    HW299860   2.687  12.113   3.761
32696SOL     OW99861   5.294  11.310   7.685
32696SOL    HW199862   5.225  11.304   7.751
32696SOL    HW299863   5.340  11.392   7.706
32697SOL     OW99864   1.816  13.588   7.067
32697SOL    HW199865   1.759  13.616   7.139
32697SOL    HW299866   1.866  13.515   7.104
32698SOL     OW99867   7.788   6.157   7.401
32698SOL    HW199868   7.841   6.229   7.368
32698SOL    HW299869   7.832   6.129   7.481
32699SOL     OW99870   3.375  11.555  10.089
32699SOL    HW199871   3.399  11.478  10.140
32699SOL    HW299872   3.380  11.627  10.152
32700SOL     OW99873   3.553   2.621  11.650
32700SOL    HW199874   3.595   2.694  11.605
32700SOL    HW299875   3.500   2.663  11.718
32701SOL     OW99876  10.903   1.478  13.297
32701SOL    HW199877  10.833   1.436  13.247
32701SOL    HW299878  10.881   1.572  13.293
32702SOL     OW99879   0.350   0.321   2.038
32702SOL    HW199880   0.329   0.301   2.129
32702SOL    HW299881   0.409   0.251   2.011
32703SOL     OW99882   7.564   8.211   9.348
32703SOL    HW199883   7.655   8.185   9.358
32703SOL    HW299884   7.554   8.230   9.255
32704SOL     OW99885  14.213   7.236   7.810
32704SOL    HW199886  14.299   7.197   7.794
32704SOL    HW299887  14.151   7.170   7.782
32705SOL     OW99888   2.586  12.358  11.320
32705SOL    HW199889   2.554  12.438  11.278
32705SOL    HW299890   2.672  12.343  11.279
32706SOL     OW99891  12.612  14.378  11.551
32706SOL    HW199892  12.693  14.329  11.568
32706SOL    HW299893  12.580  14.401  11.638
32707SOL     OW99894   7.294   2.046  12.328
32707SOL    HW199895   7.340   1.975  12.372
32707SOL    HW299896   7.248   2.003  12.255
32708SOL     OW99897   4.984  14.626  10.550
32708SOL    HW199898   4.935  14.674  10.483
32708SOL    HW299899   5.075  14.630  10.520
32709SOL     OW99900   7.013   9.508   4.071
32709SOL    HW199901   7.097   9.486   4.030
32709SOL    HW299902   6.974   9.423   4.092
32710SOL     OW99903   5.674  13.545  14.448
32710SOL    HW199904   5.736  13.564  14.377
32710SOL    HW299905   5.685  13.452  14.465
32711SOL     OW99906  13.767   7.016  12.664
32711SOL    HW199907  13.799   6.928  12.646
32711SOL    HW299908  13.703   7.005  12.735
32712SOL     OW99909   2.917  14.829   3.051
32712SOL    HW199910   2.949  14.875   3.128
32712SOL    HW299911   2.841  14.880   3.022
32713SOL     OW99912  11.119  10.450  11.158
32713SOL    HW199913  11.077  10.385  11.102
32713SOL    HW299914  11.049  10.509  11.184
32714SOL     OW99915   0.057   9.331   7.213
32714SOL    HW199916  14.880   9.303   7.284
32714SOL    HW299917   0.013   9.302   7.133
32715SOL     OW99918   9.431  14.679   0.012
32715SOL    HW199919   9.493  14.607   0.026
32715SOL    HW299920   9.459  14.719  14.811
32716SOL     OW99921   2.924   1.171   3.631
32716SOL    HW199922   2.944   1.078   3.631
32716SOL    HW299923   2.851   1.180   3.692
32717SOL     OW99924   7.250   1.501   9.322
32717SOL    HW199925   7.332   1.543   9.294
32717SOL    HW299926   7.256   1.413   9.285
32718SOL     OW99927   5.160  13.979   1.437
32718SOL    HW199928   5.146  13.927   1.516
32718SOL    HW299929   5.232  14.038   1.460
32719SOL     OW99930   2.699  14.345   5.406
32719SOL    HW199931   2.620  14.350   5.459
32719SOL    HW299932   2.710  14.433   5.370
32720SOL     OW99933   4.684   0.697  14.581
32720SOL    HW199934   4.642   0.631  14.526
32720SOL    HW299935   4.773   0.665  14.594
32721SOL     OW99936   7.298  10.228   1.290
32721SOL    HW199937   7.218  10.176   1.296
32721SOL    HW299938   7.368  10.163   1.279
32722SOL     OW99939  10.436  14.292  11.946
32722SOL    HW199940  10.452  14.233  12.020
32722SOL    HW299941  10.505  14.358  11.952
32723SOL     OW99942  10.489   7.967  11.706
32723SOL    HW199943  10.442   7.893  11.746
32723SOL    HW299944  10.469   7.960  11.613
32724SOL     OW99945   5.031   7.934  13.551
32724SOL    HW199946   5.059   7.889  13.471
32724SOL    HW299947   4.946   7.972  13.528
32725SOL     OW99948   6.475  12.877  12.246
32725SOL    HW199949   6.570  12.885  12.252
32725SOL    HW299950   6.457  12.878  12.152
32726SOL     OW99951   9.433  12.258   5.361
32726SOL    HW199952   9.349  12.293   5.331
32726SOL    HW299953   9.447  12.181   5.306
32727SOL     OW99954  12.385  12.023   6.958
32727SOL    HW199955  12.427  12.094   7.006
32727SOL    HW299956  12.305  12.003   7.007
32728SOL     OW99957   1.952   9.868   8.062
32728SOL    HW199958   1.858   9.868   8.043
32728SOL    HW299959   1.966   9.947   8.114
32729SOL     OW99960   2.662   6.251   3.565
32729SOL    HW199961   2.617   6.257   3.481
32729SOL    HW299962   2.744   6.299   3.552
32730SOL     OW99963  10.071   6.490   5.212
32730SOL    HW199964  10.045   6.405   5.246
32730SOL    HW299965  10.136   6.522   5.275
32731SOL     OW99966   8.786   7.324   9.107
32731SOL    HW199967   8.798   7.231   9.084
32731SOL    HW299968   8.857   7.343   9.167
32732SOL     OW99969  11.107   3.048   0.354
32732SOL    HW199970  11.115   3.055   0.449
32732SOL    HW299971  11.197   3.036   0.323
32733SOL     OW99972  12.387   3.758   2.838
32733SOL    HW199973  12.386   3.756   2.742
32733SOL    HW299974  12.350   3.673   2.864
32734SOL     OW99975  12.478   7.434   0.686
32734SOL    HW199976  12.547   7.369   0.676
32734SOL    HW299977  12.402   7.395   0.642
32735SOL     OW99978   4.458  14.033  12.690
32735SOL    HW199979   4.543  13.991  12.673
32735SOL    HW299980   4.477  14.126  12.689
32736SOL     OW99981   5.060   1.046   5.399
32736SOL    HW199982   5.026   0.992   5.328
32736SOL    HW299983   4.998   1.118   5.407
32737SOL     OW99984   0.667   3.973  10.645
32737SOL    HW199985   0.727   3.961  10.571
32737SOL    HW299986   0.692   4.057  10.683
32738SOL     OW99987  10.007   1.049  13.038
32738SOL    HW199988   9.941   1.004  13.091
32738SOL    HW299989   9.971   1.047  12.949
32739SOL     OW99990   4.049  13.160   1.947
32739SOL    HW199991   3.974  13.114   1.909
32739SOL    HW299992   4.090  13.095   2.005
32740SOL     OW99993  11.481   2.903  13.239
32740SOL    HW199994  11.393   2.896  13.275
32740SOL    HW299995  11.482   2.986  13.192
32741SOL     OW99996   8.771   2.406   9.430
32741SOL    HW199997   8.776   2.430   9.523
32741SOL    HW299998   8.750   2.488   9.386
32742SOL     OW99999   0.666   9.926  14.525
32742SOL    HW1    0   0.717   9.855  14.486
32742SOL    HW2    1   0.664   9.993  14.457
32743SOL     OW    2   7.056   6.142  11.478
32743SOL    HW1    3   7.088   6.057  11.509
32743SOL    HW2    4   7.007   6.178  11.552
32744SOL     OW    5   5.840   5.340   3.632
32744SOL    HW1    6   5.825   5.418   3.578
32744SOL    HW2    7   5.808   5.267   3.578
32745SOL     OW    8   8.727   7.080   7.182
32745SOL    HW1    9   8.757   7.043   7.265
32745SOL    HW2   10   8.639   7.045   7.170
32746SOL     OW   11  13.342   3.902  13.456
32746SOL    HW1   12  13.365   3.939  13.370
32746SOL    HW2   13  13.406   3.939  13.516
32747SOL     OW   14   9.016  12.507  11.023
32747SOL    HW1   15   8.957  12.447  11.068
32747SOL    HW2   16   8.986  12.594  11.049
32748SOL     OW   17   1.572  13.486   9.087
32748SOL    HW1   18   1.543  13.444   9.168
32748SOL    HW2   19   1.577  13.415   9.023
32749SOL     OW   20   9.294   0.677  10.880
32749SOL    HW1   21   9.378   0.698  10.840
32749SOL    HW2   22   9.261   0.603  10.830
32750SOL     OW   23   4.846  10.582  13.920
32750SOL    HW1   24   4.885  10.535  13.847
32750SOL    HW2   25   4.786  10.644  13.879
32751SOL     OW   26  14.479  14.520   5.022
32751SOL    HW1   27  14.506  14.583   4.955
32751SOL    HW2   28  14.517  14.437   4.994
32752SOL     OW   29   4.471   8.964   2.622
32752SOL    HW1   30   4.494   8.975   2.714
32752SOL    HW2   31   4.494   9.047   2.581
32753SOL     OW   32  11.629   3.850  14.414
32753SOL    HW1   33  11.696   3.838  14.346
32753SOL    HW2   34  11.590   3.936  14.395
32754SOL     OW   35   4.754   0.523   3.733
32754SOL    HW1   36   4.740   0.468   3.655
32754SOL    HW2   37   4.669   0.522   3.778
32755SOL     OW   38   4.531   9.505   0.626
32755SOL    HW1   39   4.621   9.474   0.642
32755SOL    HW2   40   4.529   9.592   0.666
32756SOL     OW   41  11.683  11.040  10.622
32756SOL    HW1   42  11.768  11.073  10.649
32756SOL    HW2   43  11.682  10.948  10.651
32757SOL     OW   44  14.503  12.617   6.587
32757SOL    HW1   45  14.536  12.602   6.675
32757SOL    HW2   46  14.483  12.710   6.584
32758SOL     OW   47   4.743   1.591   4.797
32758SOL    HW1   48   4.734   1.683   4.820
32758SOL    HW2   49   4.663   1.550   4.830
32759SOL     OW   50  12.905   6.759  13.434
32759SOL    HW1   51  12.947   6.803  13.359
32759SOL    HW2   52  12.937   6.668  13.428
32760SOL     OW   53   0.716   4.920   1.837
32760SOL    HW1   54   0.630   4.894   1.805
32760SOL    HW2   55   0.778   4.873   1.782
32761SOL     OW   56  14.621   2.360   0.180
32761SOL    HW1   57  14.588   2.450   0.178
32761SOL    HW2   58  14.608   2.328   0.091
32762SOL     OW   59  12.750   3.396  10.673
32762SOL    HW1   60  12.662   3.367  10.698
32762SOL    HW2   61  12.736   3.474  10.620
32763SOL     OW   62   2.908  14.425  12.549
32763SOL    HW1   63   2.814  14.416  12.531
32763SOL    HW2   64   2.918  14.396  12.640
32764SOL     OW   65   1.761   6.107  14.070
32764SOL    HW1   66   1.684   6.092  14.015
32764SOL    HW2   67   1.725   6.120  14.158
32765SOL     OW   68  10.161  12.702   4.397
32765SOL    HW1   69  10.185  12.793   4.416
32765SOL    HW2   70  10.122  12.670   4.479
32766SOL     OW   71   6.843   1.187   3.997
32766SOL    HW1   72   6.901   1.263   4.006
32766SOL    HW2   73   6.901   1.111   4.000
32767SOL     OW   74   8.107  12.456  10.889
32767SOL    HW1   75   8.067  12.543  10.889
32767SOL    HW2   76   8.055  12.406  10.825
32768SOL     OW   77  12.326   3.133   4.539
32768SOL    HW1   78  12.245   3.145   4.489
32768SOL    HW2   79  12.348   3.221   4.569
32769SOL     OW   80  12.328   1.153   7.668
32769SOL    HW1   81  12.385   1.117   7.735
32769SOL    HW2   82  12.353   1.107   7.588
32770SOL     OW   83   7.012  10.725   7.095
32770SOL    HW1   84   6.955  10.772   7.156
32770SOL    HW2   85   7.059  10.662   7.150
32771SOL     OW   86  12.020  12.766   7.014
32771SOL    HW1   87  11.989  12.838   7.068
32771SOL    HW2   88  12.040  12.696   7.075
32772SOL     OW   89   2.929   5.615  12.633
32772SOL    HW1   90   2.944   5.710  12.627
32772SOL    HW2   91   2.917   5.598  12.726
32773SOL     OW   92   6.916   2.600   7.532
32773SOL    HW1   93   6.979   2.529   7.545
32773SOL    HW2   94   6.910   2.643   7.617
32774SOL     OW   95   4.646   4.763   2.059
32774SOL    HW1   96   4.612   4.764   1.970
32774SOL    HW2   97   4.655   4.670   2.080
32775SOL     OW   98   6.468   5.901  14.600
32775SOL    HW1   99   6.402   5.839  14.630
32775SOL    HW2  100   6.511   5.932  14.680
32776SOL     OW  101  10.977   0.805   6.596
32776SOL    HW1  102  10.883   0.817   6.583
32776SOL    HW2  103  11.018   0.856   6.527
32777SOL     OW  104  14.520   2.775  11.828
32777SOL    HW1  105  14.475   2.859  11.826
32777SOL    HW2  106  14.520   2.745  11.737
32778SOL     OW  107   1.003  12.187   1.655
32778SOL    HW1  108   1.045  12.270   1.677
32778SOL    HW2  109   0.974  12.197   1.564
32779SOL     OW  110   1.231   1.978   9.039
32779SOL    HW1  111   1.182   2.058   9.061
32779SOL    HW2  112   1.203   1.915   9.105
32780SOL     OW  113   2.348  14.222   3.715
32780SOL    HW1  114   2.411  14.277   3.763
32780SOL    HW2  115   2.298  14.284   3.663
32781SOL     OW  116   2.778   2.848   6.248
32781SOL    HW1  117   2.769   2.933   6.205
32781SOL    HW2  118   2.856   2.857   6.303
32782SOL     OW  119  14.237   7.912  14.612
32782SOL    HW1  120  14.182   7.873  14.681
32782SOL    HW2  121  14.233   7.849  14.540
32783SOL     OW  122  13.010   0.673  10.373
32783SOL    HW1  123  13.039   0.764  10.384
32783SOL    HW2  124  12.941   0.662  10.438
32784SOL     OW  125  11.931  14.561   4.537
32784SOL    HW1  126  11.955  14.549   4.629
32784SOL    HW2  127  11.836  14.577   4.538
32785SOL     OW  128  14.532  11.658   7.615
32785SOL    HW1  129  14.531  11.732   7.554
32785SOL    HW2  130  14.453  11.669   7.668
32786SOL     OW  131   0.462   3.828   8.240
32786SOL    HW1  132   0.432   3.737   8.247
32786SOL    HW2  133   0.530   3.836   8.306
32787SOL     OW  134   8.627  13.655   8.915
32787SOL    HW1  135   8.700  13.638   8.856
32787SOL    HW2  136   8.668  13.683   8.997
32788SOL     OW  137   8.034   0.338   7.599
32788SOL    HW1  138   8.076   0.321   7.515
32788SOL    HW2  139   7.977   0.262   7.613
32789SOL     OW  140   6.073  12.838  12.562
32789SOL    HW1  141   5.998  12.887  12.528
32789SOL    HW2  142   6.069  12.848  12.657
32790SOL     OW  143   8.765   3.306   7.194
32790SOL    HW1  144   8.698   3.356   7.147
32790SOL    HW2  145   8.737   3.215   7.186
32791SOL     OW  146   3.962   6.159  14.008
32791SOL    HW1  147   4.047   6.165  14.051
32791SOL    HW2  148   3.915   6.238  14.036
32792SOL     OW  149  13.097  12.072  14.635
32792SOL    HW1  150  13.133  12.013  14.702
32792SOL    HW2  151  13.074  12.013  14.562
32793SOL     OW  152   1.982  12.709   3.347
32793SOL    HW1  153   2.052  12.752   3.397
32793SOL    HW2  154   2.026  12.673   3.270
32794SOL     OW  155   6.755  14.801   7.968
32794SOL    HW1  156   6.809  14.736   7.922
32794SOL    HW2  157   6.689  14.749   8.014
32795SOL     OW  158  11.733  12.517   4.613
32795SOL    HW1  159  11.750  12.423   4.600
32795SOL    HW2  160  11.817  12.559   4.595
32796SOL     OW  161   3.068   3.522   3.412
32796SOL    HW1  162   2.998   3.489   3.355
32796SOL    HW2  163   3.120   3.445   3.434
32797SOL     OW  164   8.958  12.587  13.136
32797SOL    HW1  165   9.007  12.574  13.055
32797SOL    HW2  166   8.986  12.515  13.192
32798SOL     OW  167   6.122   2.141   3.644
32798SOL    HW1  168   6.122   2.074   3.576
32798SOL    HW2  169   6.030   2.163   3.657
32799SOL     OW  170   8.318   9.113   9.108
32799SOL    HW1  171   8.353   9.059   9.179
32799SOL    HW2  172   8.362   9.197   9.116
32800SOL     OW  173   4.883   4.146   5.039
32800SOL    HW1  174   4.849   4.195   5.114
32800SOL    HW2  175   4.974   4.127   5.061
32801SOL     OW  176   5.713  14.473   9.004
32801SOL    HW1  177   5.772  14.401   9.023
32801SOL    HW2  178   5.766  14.552   9.017
32802SOL     OW  179   0.024   0.931  12.306
32802SOL    HW1  180   0.016   0.989  12.382
32802SOL    HW2  181  14.880   0.845  12.339
32803SOL     OW  182   8.359   9.561  14.844
32803SOL    HW1  183   8.394   9.592  14.761
32803SOL    HW2  184   8.311   9.481  14.822
32804SOL     OW  185   2.217   4.156   2.084
32804SOL    HW1  186   2.184   4.236   2.127
32804SOL    HW2  187   2.197   4.169   1.992
32805SOL     OW  188   3.580  13.175   7.755
32805SOL    HW1  189   3.576  13.191   7.850
32805SOL    HW2  190   3.623  13.252   7.720
32806SOL     OW  191   2.374   4.009   2.483
32806SOL    HW1  192   2.309   4.044   2.422
32806SOL    HW2  193   2.348   3.918   2.496
32807SOL     OW  194  10.594   3.905   2.022
32807SOL    HW1  195  10.666   3.860   1.976
32807SOL    HW2  196  10.542   3.943   1.952
32808SOL     OW  197   2.683   6.070   1.218
32808SOL    HW1  198   2.619   6.099   1.153
32808SOL    HW2  199   2.631   6.051   1.296
32809SOL     OW  200  13.169  14.591  10.505
32809SOL    HW1  201  13.150  14.548  10.588
32809SOL    HW2  202  13.088  14.635  10.481
32810SOL     OW  203  12.278  10.281   0.164
32810SOL    HW1  204  12.337  10.206   0.161
32810SOL    HW2  205  12.324  10.350   0.117
32811SOL     OW  206  11.181   0.669   7.339
32811SOL    HW1  207  11.182   0.713   7.254
32811SOL    HW2  208  11.088   0.664   7.362
32812SOL     OW  209  12.713   9.639   6.466
32812SOL    HW1  210  12.709   9.706   6.534
32812SOL    HW2  211  12.757   9.565   6.508
32813SOL     OW  212   2.541   6.061  12.203
32813SOL    HW1  213   2.521   5.977  12.244
32813SOL    HW2  214   2.630   6.082  12.231
32814SOL     OW  215   9.981   6.886   1.512
32814SOL    HW1  216   9.942   6.956   1.566
32814SOL    HW2  217  10.028   6.932   1.443
32815SOL     OW  218  13.998   1.939  13.058
32815SOL    HW1  219  13.934   2.006  13.081
32815SOL    HW2  220  14.078   1.989  13.040
32816SOL     OW  221   2.569  13.543  10.242
32816SOL    HW1  222   2.556  13.470  10.302
32816SOL    HW2  223   2.533  13.512  10.158
32817SOL     OW  224  10.243   4.408   5.126
32817SOL    HW1  225  10.175   4.472   5.106
32817SOL    HW2  226  10.195   4.328   5.148
32818SOL     OW  227  13.739   9.723  11.003
32818SOL    HW1  228  13.684   9.667  10.948
32818SOL    HW2  229  13.825   9.720  10.961
32819SOL     OW  230  12.886  12.760   2.705
32819SOL    HW1  231  12.910  12.688   2.763
32819SOL    HW2  232  12.829  12.816   2.758
32820SOL     OW  233  10.634  13.191   6.507
32820SOL    HW1  234  10.539  13.181   6.521
32820SOL    HW2  235  10.665  13.102   6.493
32821SOL     OW  236  11.942  14.202   3.517
32821SOL    HW1  237  11.918  14.111   3.537
32821SOL    HW2  238  11.874  14.254   3.561
32822SOL     OW  239  10.462   4.132  13.020
32822SOL    HW1  240  10.419   4.053  13.052
32822SOL    HW2  241  10.414   4.204  13.062
32823SOL     OW  242   3.163   8.855   3.265
32823SOL    HW1  243   3.251   8.827   3.287
32823SOL    HW2  244   3.116   8.858   3.349
32824SOL     OW  245  11.705   3.740   3.063
32824SOL    HW1  246  11.728   3.832   3.076
32824SOL    HW2  247  11.638   3.741   2.994
32825SOL     OW  248   2.174   7.510  12.123
32825SOL    HW1  249   2.249   7.564  12.097
32825SOL    HW2  250   2.187   7.494  12.216
32826SOL     OW  251   5.361   9.592   5.502
32826SOL    HW1  252   5.395   9.638   5.579
32826SOL    HW2  253   5.382   9.649   5.429
32827SOL     OW  254   4.730   4.520   1.432
32827SOL    HW1  255   4.730   4.487   1.522
32827SOL    HW2  256   4.752   4.443   1.379
32828SOL     OW  257   9.006  10.894   7.389
32828SOL    HW1  258   9.091  10.938   7.391
32828SOL    HW2  259   8.991  10.875   7.297
32829SOL     OW  260  11.439   9.807   1.372
32829SOL    HW1  261  11.473   9.760   1.448
32829SOL    HW2  262  11.420   9.895   1.405
32830SOL     OW  263   3.213  11.975  13.401
32830SOL    HW1  264   3.198  12.060  13.359
32830SOL    HW2  265   3.306  11.974  13.422
32831SOL     OW  266   1.628  14.282   9.654
32831SOL    HW1  267   1.678  14.320   9.582
32831SOL    HW2  268   1.542  14.325   9.649
32832SOL     OW  269  13.285   0.359   1.785
32832SOL    HW1  270  13.301   0.388   1.875
32832SOL    HW2  271  13.223   0.422   1.750
32833SOL     OW  272   1.613  13.619   3.044
32833SOL    HW1  273   1.587  13.530   3.023
32833SOL    HW2  274   1.591  13.670   2.966
32834SOL     OW  275  12.368   4.721   8.925
32834SOL    HW1  276  12.276   4.706   8.906
32834SOL    HW2  277  12.403   4.635   8.949
32835SOL     OW  278   9.771   6.121   0.542
32835SOL    HW1  279   9.828   6.167   0.603
32835SOL    HW2  280   9.770   6.030   0.574
32836SOL     OW  281   0.721  10.304  11.029
32836SOL    HW1  282   0.639  10.286  10.985
32836SOL    HW2  283   0.777  10.345  10.963
32837SOL     OW  284   7.681  11.301  12.989
32837SOL    HW1  285   7.670  11.206  12.979
32837SOL    HW2  286   7.613  11.339  12.932
32838SOL     OW  287  10.819  14.163   0.701
32838SOL    HW1  288  10.884  14.229   0.678
32838SOL    HW2  289  10.815  14.105   0.624
32839SOL     OW  290   8.592   2.850   3.092
32839SOL    HW1  291   8.686   2.865   3.090
32839SOL    HW2  292   8.561   2.880   3.006
32840SOL     OW  293   7.571  10.647  12.215
32840SOL    HW1  294   7.496  10.622  12.270
32840SOL    HW2  295   7.536  10.715  12.157
32841SOL     OW  296   1.419  12.061  11.951
32841SOL    HW1  297   1.381  11.987  11.998
32841SOL    HW2  298   1.346  12.120  11.935
32842SOL     OW  299   3.466   0.303  14.346
32842SOL    HW1  300   3.459   0.299  14.441
32842SOL    HW2  301   3.375   0.309  14.315
32843SOL     OW  302   5.814   3.862   1.077
32843SOL    HW1  303   5.749   3.880   1.009
32843SOL    HW2  304   5.807   3.768   1.093
32844SOL     OW  305   7.571   7.214  11.714
32844SOL    HW1  306   7.584   7.255  11.629
32844SOL    HW2  307   7.651   7.163  11.729
32845SOL     OW  308   3.623  13.322  14.134
32845SOL    HW1  309   3.635  13.398  14.191
32845SOL    HW2  310   3.546  13.343  14.082
32846SOL     OW  311  12.467   4.711   3.222
32846SOL    HW1  312  12.464   4.785   3.283
32846SOL    HW2  313  12.395   4.727   3.161
32847SOL     OW  314   1.339   0.663   1.992
32847SOL    HW1  315   1.406   0.643   2.058
32847SOL    HW2  316   1.259   0.624   2.026
32848SOL     OW  317   7.505  11.735   1.132
32848SOL    HW1  318   7.454  11.718   1.211
32848SOL    HW2  319   7.572  11.798   1.159
32849SOL     OW  320   3.108   7.681   9.213
32849SOL    HW1  321   3.197   7.687   9.248
32849SOL    HW2  322   3.106   7.745   9.142
32850SOL     OW  323  11.992  12.116   5.732
32850SOL    HW1  324  11.980  12.097   5.639
32850SOL    HW2  325  12.008  12.210   5.736
32851SOL     OW  326   1.967   3.114   2.314
32851SOL    HW1  327   2.044   3.107   2.257
32851SOL    HW2  328   1.984   3.052   2.385
32852SOL     OW  329   0.039  10.778  13.355
32852SOL    HW1  330  14.827  10.764  13.370
32852SOL    HW2  331   0.080  10.762  13.440
32853SOL     OW  332  14.588   6.072   9.164
32853SOL    HW1  333  14.595   6.149   9.109
32853SOL    HW2  334  14.496   6.047   9.159
32854SOL     OW  335  13.595  12.488   1.679
32854SOL    HW1  336  13.689  12.498   1.690
32854SOL    HW2  337  13.558  12.564   1.726
32855SOL     OW  338   9.611   6.151  13.996
32855SOL    HW1  339   9.673   6.082  14.019
32855SOL    HW2  340   9.642   6.228  14.045
32856SOL     OW  341  10.757   2.499  10.651
32856SOL    HW1  342  10.695   2.430  10.675
32856SOL    HW2  343  10.750   2.564  10.721
32857SOL     OW  344   4.826  12.601   5.789
32857SOL    HW1  345   4.785  12.644   5.864
32857SOL    HW2  346   4.756  12.550   5.749
32858SOL     OW  347  14.873   7.419   5.222
32858SOL    HW1  348  14.840   7.405   5.311
32858SOL    HW2  349   0.087   7.411   5.231
32859SOL     OW  350   9.818   9.916   6.607
32859SOL    HW1  351   9.853   9.902   6.519
32859SOL    HW2  352   9.727   9.886   6.602
32860SOL     OW  353   2.655   5.730   7.418
32860SOL    HW1  354   2.573   5.745   7.372
32860SOL    HW2  355   2.671   5.811   7.466
32861SOL     OW  356   3.298   7.584  14.673
32861SOL    HW1  357   3.373   7.589  14.613
32861SOL    HW2  358   3.329   7.528  14.744
32862SOL     OW  359   2.166   0.281   8.350
32862SOL    HW1  360   2.100   0.214   8.365
32862SOL    HW2  361   2.249   0.235   8.356
32863SOL     OW  362   2.452   0.071  13.591
32863SOL    HW1  363   2.371   0.067  13.643
32863SOL    HW2  364   2.520   0.094  13.654
32864SOL     OW  365  11.501   8.764   9.132
32864SOL    HW1  366  11.509   8.763   9.228
32864SOL    HW2  367  11.453   8.684   9.111
32865SOL     OW  368   4.645   2.127   4.132
32865SOL    HW1  369   4.598   2.047   4.108
32865SOL    HW2  370   4.579   2.196   4.127
32866SOL     OW  371   5.997   7.685   7.940
32866SOL    HW1  372   5.999   7.594   7.912
32866SOL    HW2  373   6.071   7.726   7.895
32867SOL     OW  374   7.927   0.961   6.361
32867SOL    HW1  375   7.856   0.920   6.412
32867SOL    HW2  376   7.902   0.947   6.270
32868SOL     OW  377   4.715   1.336   6.962
32868SOL    HW1  378   4.656   1.288   6.903
32868SOL    HW2  379   4.758   1.268   7.013
32869SOL     OW  380   9.603   1.521  11.638
32869SOL    HW1  381   9.553   1.505  11.718
32869SOL    HW2  382   9.695   1.515  11.666
32870SOL     OW  383   2.680   6.137   1.979
32870SOL    HW1  384   2.683   6.126   1.884
32870SOL    HW2  385   2.764   6.104   2.010
32871SOL     OW  386   1.777   2.964   2.151
32871SOL    HW1  387   1.816   3.051   2.145
32871SOL    HW2  388   1.757   2.953   2.244
32872SOL     OW  389  12.963  14.827   7.449
32872SOL    HW1  390  12.946  14.779   7.529
32872SOL    HW2  391  12.879  14.827   7.402
32873SOL     OW  392   5.409   3.601   9.592
32873SOL    HW1  393   5.346   3.627   9.659
32873SOL    HW2  394   5.493   3.600   9.637
32874SOL     OW  395   1.535  12.828   2.666
32874SOL    HW1  396   1.506  12.890   2.599
32874SOL    HW2  397   1.455  12.806   2.714
32875SOL     OW  398   9.852   0.826   4.765
32875SOL    HW1  399   9.896   0.887   4.706
32875SOL    HW2  400   9.769   0.869   4.787
32876SOL     OW  401   4.647   4.886   2.328
32876SOL    HW1  402   4.690   4.963   2.290
32876SOL    HW2  403   4.708   4.814   2.311
32877SOL     OW  404   5.004   1.529   9.133
32877SOL    HW1  405   5.035   1.496   9.217
32877SOL    HW2  406   4.986   1.450   9.082
32878SOL     OW  407  13.108   4.602   0.058
32878SOL    HW1  408  13.203   4.608   0.067
32878SOL    HW2  409  13.093   4.515   0.020
32879SOL     OW  410   6.135   2.145   1.749
32879SOL    HW1  411   6.068   2.211   1.768
32879SOL    HW2  412   6.217   2.194   1.744
32880SOL     OW  413   9.866  10.783   8.640
32880SOL    HW1  414   9.790  10.724   8.647
32880SOL    HW2  415   9.941  10.725   8.629
32881SOL     OW  416  13.739   6.576   9.926
32881SOL    HW1  417  13.834   6.577   9.914
32881SOL    HW2  418  13.719   6.659   9.968
32882SOL     OW  419  12.351   1.170   1.441
32882SOL    HW1  420  12.277   1.110   1.433
32882SOL    HW2  421  12.428   1.113   1.441
32883SOL     OW  422   6.589  11.315  12.689
32883SOL    HW1  423   6.538  11.380  12.642
32883SOL    HW2  424   6.671  11.308  12.640
32884SOL     OW  425   9.692  11.819   5.738
32884SOL    HW1  426   9.640  11.811   5.818
32884SOL    HW2  427   9.729  11.732   5.725
32885SOL     OW  428   1.313   0.192  13.761
32885SOL    HW1  429   1.298   0.255  13.691
32885SOL    HW2  430   1.273   0.111  13.729
32886SOL     OW  431   6.752  11.901   3.103
32886SOL    HW1  432   6.679  11.866   3.051
32886SOL    HW2  433   6.804  11.824   3.126
32887SOL     OW  434   1.394   6.401   5.735
32887SOL    HW1  435   1.391   6.370   5.826
32887SOL    HW2  436   1.380   6.323   5.682
32888SOL     OW  437  10.196   2.673   0.865
32888SOL    HW1  438  10.286   2.691   0.839
32888SOL    HW2  439  10.201   2.592   0.916
32889SOL     OW  440   9.772  13.670   0.431
32889SOL    HW1  441   9.827  13.662   0.509
32889SOL    HW2  442   9.715  13.745   0.449
32890SOL     OW  443  10.657   3.093   5.595
32890SOL    HW1  444  10.706   3.042   5.659
32890SOL    HW2  445  10.571   3.053   5.592
32891SOL     OW  446   4.495  12.835   9.278
32891SOL    HW1  447   4.433  12.871   9.215
32891SOL    HW2  448   4.574  12.819   9.227
32892SOL     OW  449  11.504   8.292   4.515
32892SOL    HW1  450  11.426   8.248   4.479
32892SOL    HW2  451  11.539   8.229   4.578
32893SOL     OW  452   6.060   1.357  12.440
32893SOL    HW1  453   6.077   1.443  12.479
32893SOL    HW2  454   6.061   1.296  12.514
32894SOL     OW  455   4.339   4.503   5.661
32894SOL    HW1  456   4.361   4.583   5.709
32894SOL    HW2  457   4.248   4.515   5.635
32895SOL     OW  458   2.107   8.426   2.010
32895SOL    HW1  459   2.045   8.481   2.058
32895SOL    HW2  460   2.059   8.344   1.995
32896SOL     OW  461   1.842  12.862  11.705
32896SOL    HW1  462   1.754  12.872  11.739
32896SOL    HW2  463   1.874  12.781  11.744
32897SOL     OW  464   9.060   0.933   9.153
32897SOL    HW1  465   9.062   0.929   9.249
32897SOL    HW2  466   9.071   1.027   9.134
32898SOL     OW  467  10.893   3.273   1.096
32898SOL    HW1  468  10.932   3.330   1.030
32898SOL    HW2  469  10.937   3.297   1.178
32899SOL     OW  470   5.889  14.024   0.998
32899SOL    HW1  471   5.803  14.060   1.018
32899SOL    HW2  472   5.880  13.930   1.013
32900SOL     OW  473   2.280   0.921   9.856
32900SOL    HW1  474   2.265   0.915   9.762
32900SOL    HW2  475   2.287   0.830   9.885
32901SOL     OW  476   5.351   5.689   5.640
32901SOL    HW1  477   5.279   5.627   5.639
32901SOL    HW2  478   5.367   5.706   5.733
32902SOL     OW  479   3.401   4.358   7.945
32902SOL    HW1  480   3.456   4.333   8.019
32902SOL    HW2  481   3.446   4.323   7.868
32903SOL     OW  482   0.010   9.362  13.667
32903SOL    HW1  483   0.007   9.311  13.748
32903SOL    HW2  484   0.083   9.324  13.618
32904SOL     OW  485  12.941  11.455   3.158
32904SOL    HW1  486  12.849  11.454   3.135
32904SOL    HW2  487  12.962  11.548   3.172
32905SOL     OW  488   6.706   6.237  10.481
32905SOL    HW1  489   6.788   6.188  10.478
32905SOL    HW2  490   6.733   6.328  10.468
32906SOL     OW  491   2.905  14.687  12.783
32906SOL    HW1  492   2.895  14.768  12.733
32906SOL    HW2  493   2.844  14.626  12.742
32907SOL     OW  494  14.005   5.182  11.673
32907SOL    HW1  495  13.991   5.113  11.738
32907SOL    HW2  496  14.046   5.136  11.599
32908SOL     OW  497   8.025  11.870   7.278
32908SOL    HW1  498   8.001  11.938   7.215
32908SOL    HW2  499   8.057  11.797   7.225
32909SOL     OW  500   5.584  13.944   1.025
32909SOL    HW1  501   5.518  14.004   0.990
32909SOL    HW2  502   5.590  13.874   0.960
32910SOL     OW  503   3.437  11.967   5.588
32910SOL    HW1  504   3.411  11.926   5.505
32910SOL    HW2  505   3.354  11.988   5.631
32911SOL     OW  506   4.842  10.674   6.970
32911SOL    HW1  507   4.925  10.715   6.944
32911SOL    HW2  508   4.848  10.585   6.936
32912SOL     OW  509  12.948   9.735  10.764
32912SOL    HW1  510  12.986   9.737  10.852
32912SOL    HW2  511  12.991   9.807  10.718
32913SOL     OW  512   3.181  12.731   9.293
32913SOL    HW1  513   3.117  12.736   9.364
32913SOL    HW2  514   3.156  12.654   9.243
32914SOL     OW  515   0.808  11.461   6.429
32914SOL    HW1  516   0.770  11.525   6.369
32914SOL    HW2  517   0.901  11.481   6.430
32915SOL     OW  518  10.842   2.489  13.606
32915SOL    HW1  519  10.823   2.524  13.693
32915SOL    HW2  520  10.929   2.450  13.614
32916SOL     OW  521   3.543   9.604   6.948
32916SOL    HW1  522   3.536   9.686   6.997
32916SOL    HW2  523   3.574   9.540   7.012
32917SOL     OW  524   3.752   4.504  14.164
32917SOL    HW1  525   3.740   4.557  14.243
32917SOL    HW2  526   3.829   4.451  14.182
32918SOL     OW  527   2.004   1.345   8.670
32918SOL    HW1  528   2.071   1.348   8.739
32918SOL    HW2  529   1.974   1.254   8.669
32919SOL     OW  530  14.568   0.322   3.569
32919SOL    HW1  531  14.621   0.256   3.613
32919SOL    HW2  532  14.631   0.383   3.531
32920SOL     OW  533   4.454   3.045   0.475
32920SOL    HW1  534   4.479   2.956   0.450
32920SOL    HW2  535   4.497   3.102   0.411
32921SOL     OW  536   8.530   5.224  11.450
32921SOL    HW1  537   8.476   5.256  11.377
32921SOL    HW2  538   8.497   5.272  11.526
32922SOL     OW  539  14.748   6.693   0.060
32922SOL    HW1  540  14.703   6.742  14.873
32922SOL    HW2  541  14.717   6.733   0.142
32923SOL     OW  542  13.717   3.855   6.928
32923SOL    HW1  543  13.738   3.931   6.873
32923SOL    HW2  544  13.642   3.814   6.884
32924SOL     OW  545  12.463   9.879   0.618
32924SOL    HW1  546  12.373   9.897   0.591
32924SOL    HW2  547  12.507   9.848   0.539
32925SOL     OW  548   9.293  10.230   1.015
32925SOL    HW1  549   9.329  10.238   0.927
32925SOL    HW2  550   9.333  10.151   1.051
32926SOL     OW  551   4.432  10.454   8.432
32926SOL    HW1  552   4.515  10.470   8.386
32926SOL    HW2  553   4.455  10.458   8.524
32927SOL     OW  554  11.490   9.979   5.028
32927SOL    HW1  555  11.562   9.982   5.092
32927SOL    HW2  556  11.444  10.062   5.040
32928SOL     OW  557   0.038   9.175   7.575
32928SOL    HW1  558  14.852   9.188   7.508
32928SOL    HW2  559   0.113   9.141   7.527
32929SOL     OW  560   5.339   3.016  12.053
32929SOL    HW1  561   5.287   2.935  12.052
32929SOL    HW2  562   5.348   3.039  11.961
32930SOL     OW  563   6.637   5.434  12.231
32930SOL    HW1  564   6.653   5.499  12.299
32930SOL    HW2  565   6.724   5.398  12.211
32931SOL     OW  566  13.201   3.008  14.717
32931SOL    HW1  567  13.184   3.101  14.706
32931SOL    HW2  568  13.166   2.967  14.638
32932SOL     OW  569  12.162   9.601   7.954
32932SOL    HW1  570  12.252   9.626   7.974
32932SOL    HW2  571  12.128   9.568   8.037
32933SOL     OW  572   7.981   7.443  14.233
32933SOL    HW1  573   7.977   7.517  14.172
32933SOL    HW2  574   8.054   7.463  14.291
32934SOL     OW  575   5.209   5.613  11.413
32934SOL    HW1  576   5.159   5.557  11.352
32934SOL    HW2  577   5.301   5.589  11.396
32935SOL     OW  578  14.846  12.979  13.887
32935SOL    HW1  579  14.863  12.946  13.976
32935SOL    HW2  580  14.814  12.903  13.839
32936SOL     OW  581  10.808   6.730   9.693
32936SOL    HW1  582  10.799   6.680   9.773
32936SOL    HW2  583  10.721   6.726   9.652
32937SOL     OW  584   9.884   1.350  10.430
32937SOL    HW1  585   9.894   1.422  10.492
32937SOL    HW2  586   9.957   1.360  10.369
32938SOL     OW  587  13.326  11.878   2.921
32938SOL    HW1  588  13.354  11.893   3.012
32938SOL    HW2  589  13.243  11.926   2.914
32939SOL     OW  590  10.017   6.346   9.746
32939SOL    HW1  591   9.984   6.430   9.714
32939SOL    HW2  592   9.939   6.289   9.749
32940SOL     OW  593  12.794   6.130  11.920
32940SOL    HW1  594  12.745   6.182  11.856
32940SOL    HW2  595  12.792   6.041  11.885
32941SOL     OW  596   3.564   6.873  12.739
32941SOL    HW1  597   3.619   6.798  12.762
32941SOL    HW2  598   3.626   6.943  12.721
32942SOL     OW  599  13.281   2.740   7.222
32942SOL    HW1  600  13.272   2.784   7.307
32942SOL    HW2  601  13.201   2.690   7.212
32943SOL     OW  602  11.876   1.918  14.881
32943SOL    HW1  603  11.801   1.904  14.824
32943SOL    HW2  604  11.855   1.871   0.080
32944SOL     OW  605   8.191  12.141   6.247
32944SOL    HW1  606   8.247  12.215   6.270
32944SOL    HW2  607   8.130  12.133   6.320
32945SOL     OW  608   4.855   6.456   5.396
32945SOL    HW1  609   4.913   6.496   5.460
32945SOL    HW2  610   4.784   6.418   5.449
32946SOL     OW  611   7.208   0.302   6.410
32946SOL    HW1  612   7.254   0.244   6.349
32946SOL    HW2  613   7.176   0.374   6.355
32947SOL     OW  614   6.926   0.410   8.182
32947SOL    HW1  615   6.914   0.321   8.147
32947SOL    HW2  616   6.852   0.421   8.242
32948SOL     OW  617   1.736   3.508   9.915
32948SOL    HW1  618   1.718   3.602   9.909
32948SOL    HW2  619   1.807   3.493   9.852
32949SOL     OW  620  10.632  14.842   6.220
32949SOL    HW1  621  10.540  14.813   6.220
32949SOL    HW2  622  10.682  14.761   6.229
32950SOL     OW  623   6.855   0.239   4.947
32950SOL    HW1  624   6.828   0.227   4.856
32950SOL    HW2  625   6.951   0.239   4.944
32951SOL     OW  626  13.661   7.388   1.532
32951SOL    HW1  627  13.716   7.428   1.598
32951SOL    HW2  628  13.572   7.405   1.561
32952SOL     OW  629   1.306   5.730   3.923
32952SOL    HW1  630   1.354   5.812   3.934
32952SOL    HW2  631   1.328   5.678   4.001
32953SOL     OW  632   9.007  10.758   5.045
32953SOL    HW1  633   9.100  10.779   5.035
32953SOL    HW2  634   8.996  10.741   5.138
32954SOL     OW  635   7.603   1.380  13.071
32954SOL    HW1  636   7.630   1.411  13.158
32954SOL    HW2  637   7.523   1.428  13.053
32955SOL     OW  638   7.371   2.978   4.341
32955SOL    HW1  639   7.356   2.930   4.422
32955SOL    HW2  640   7.402   3.064   4.369
32956SOL     OW  641   6.420   3.884   8.851
32956SOL    HW1  642   6.512   3.913   8.850
32956SOL    HW2  643   6.406   3.848   8.763
32957SOL     OW  644  14.549  11.774  10.045
32957SOL    HW1  645  14.571  11.762  10.138
32957SOL    HW2  646  14.519  11.688  10.016
32958SOL     OW  647   2.386  13.642   1.745
32958SOL    HW1  648   2.404  13.727   1.787
32958SOL    HW2  649   2.461  13.629   1.687
32959SOL     OW  650  14.556  10.691   3.514
32959SOL    HW1  651  14.512  10.775   3.527
32959SOL    HW2  652  14.488  10.634   3.478
32960SOL     OW  653  13.898   2.126   9.537
32960SOL    HW1  654  13.818   2.089   9.500
32960SOL    HW2  655  13.873   2.213   9.567
32961SOL     OW  656   5.798   6.824   4.549
32961SOL    HW1  657   5.859   6.893   4.522
32961SOL    HW2  658   5.825   6.803   4.639
32962SOL     OW  659   9.120   8.804   9.271
32962SOL    HW1  660   9.091   8.874   9.329
32962SOL    HW2  661   9.077   8.726   9.305
32963SOL     OW  662   2.643  10.653   2.136
32963SOL    HW1  663   2.579  10.632   2.069
32963SOL    HW2  664   2.728  10.647   2.092
32964SOL     OW  665   1.528  10.737   3.795
32964SOL    HW1  666   1.552  10.649   3.765
32964SOL    HW2  667   1.456  10.764   3.738
32965SOL     OW  668  13.590  13.136   7.962
32965SOL    HW1  669  13.567  13.129   7.869
32965SOL    HW2  670  13.620  13.049   7.986
32966SOL     OW  671   4.085   5.287   2.284
32966SOL    HW1  672   4.115   5.339   2.209
32966SOL    HW2  673   4.081   5.198   2.250
32967SOL     OW  674   9.800   9.909  14.607
32967SOL    HW1  675   9.758   9.913  14.521
32967SOL    HW2  676   9.812  10.000  14.633
32968SOL     OW  677   0.111   8.271   7.340
32968SOL    HW1  678   0.111   8.367   7.343
32968SOL    HW2  679   0.198   8.247   7.373
32969SOL     OW  680   3.465   9.947   9.105
32969SOL    HW1  681   3.375   9.915   9.102
32969SOL    HW2  682   3.516   9.873   9.138
32970SOL     OW  683   8.505   9.461   6.565
32970SOL    HW1  684   8.494   9.386   6.506
32970SOL    HW2  685   8.577   9.511   6.526
32971SOL     OW  686   6.471   8.758   1.408
32971SOL    HW1  687   6.487   8.828   1.471
32971SOL    HW2  688   6.477   8.800   1.322
32972SOL     OW  689   5.804   9.914  13.027
32972SOL    HW1  690   5.785   9.821  13.024
32972SOL    HW2  691   5.734   9.952  13.079
32973SOL     OW  692   4.015   1.788   0.467
32973SOL    HW1  693   4.092   1.787   0.410
32973SOL    HW2  694   4.050   1.809   0.553
32974SOL     OW  695   9.804   9.385  14.109
32974SOL    HW1  696   9.877   9.428  14.153
32974SOL    HW2  697   9.790   9.304  14.158
32975SOL     OW  698   9.404  12.620   2.821
32975SOL    HW1  699   9.359  12.632   2.905
32975SOL    HW2  700   9.333  12.606   2.758
32976SOL     OW  701   0.408  11.756   0.716
32976SOL    HW1  702   0.410  11.842   0.757
32976SOL    HW2  703   0.335  11.710   0.759
32977SOL     OW  704  10.289   4.430   8.291
32977SOL    HW1  705  10.310   4.450   8.200
32977SOL    HW2  706  10.194   4.444   8.298
32978SOL     OW  707  10.733  14.415   3.364
32978SOL    HW1  708  10.802  14.476   3.337
32978SOL    HW2  709  10.653  14.452   3.326
32979SOL     OW  710   9.767  12.391  13.014
32979SOL    HW1  711   9.675  12.381  13.038
32979SOL    HW2  712   9.767  12.398  12.919
32980SOL     OW  713   6.984   6.653  14.213
32980SOL    HW1  714   6.953   6.579  14.265
32980SOL    HW2  715   6.916   6.666  14.147
32981SOL     OW  716   6.731   0.851   7.348
32981SOL    HW1  717   6.704   0.937   7.379
32981SOL    HW2  718   6.650   0.800   7.346
32982SOL     OW  719   2.161   3.351   3.813
32982SOL    HW1  720   2.099   3.297   3.763
32982SOL    HW2  721   2.171   3.430   3.759
32983SOL     OW  722  10.636   6.807   8.740
32983SOL    HW1  723  10.669   6.798   8.830
32983SOL    HW2  724  10.647   6.900   8.720
32984SOL     OW  725  10.704   4.743   6.996
32984SOL    HW1  726  10.741   4.688   6.927
32984SOL    HW2  727  10.688   4.683   7.069
32985SOL     OW  728   8.230   1.813   3.765
32985SOL    HW1  729   8.322   1.792   3.749
32985SOL    HW2  730   8.232   1.882   3.831
32986SOL     OW  731  13.603   0.942   4.451
32986SOL    HW1  732  13.637   0.893   4.377
32986SOL    HW2  733  13.668   1.010   4.467
32987SOL     OW  734  14.558   5.519   4.821
32987SOL    HW1  735  14.635   5.567   4.850
32987SOL    HW2  736  14.524   5.478   4.900
32988SOL     OW  737   4.417   4.729   2.328
32988SOL    HW1  738   4.487   4.792   2.312
32988SOL    HW2  739   4.456   4.663   2.385
32989SOL     OW  740   5.788  10.368  13.838
32989SOL    HW1  741   5.699  10.357  13.807
32989SOL    HW2  742   5.779  10.385  13.932
32990SOL     OW  743   8.744   9.126   9.215
32990SOL    HW1  744   8.704   9.145   9.300
32990SOL    HW2  745   8.773   9.211   9.183
32991SOL     OW  746   2.693  14.622   7.355
32991SOL    HW1  747   2.604  14.648   7.332
32991SOL    HW2  748   2.683  14.559   7.425
32992SOL     OW  749   1.218  13.781  14.612
32992SOL    HW1  750   1.314  13.781  14.607
32992SOL    HW2  751   1.198  13.715  14.678
32993SOL     OW  752   7.448   8.243  14.068
32993SOL    HW1  753   7.541   8.256  14.088
32993SOL    HW2  754   7.442   8.258  13.974
32994SOL     OW  755   2.196   1.349   3.971
32994SOL    HW1  756   2.257   1.283   3.939
32994SOL    HW2  757   2.243   1.432   3.962
32995SOL     OW  758  13.122   3.984   6.143
32995SOL    HW1  759  13.192   3.981   6.078
32995SOL    HW2  760  13.043   4.001   6.092
32996SOL     OW  761   8.823   2.040   5.296
32996SOL    HW1  762   8.832   1.945   5.289
32996SOL    HW2  763   8.911   2.074   5.280
32997SOL     OW  764   5.852   2.691   4.153
32997SOL    HW1  765   5.862   2.778   4.192
32997SOL    HW2  766   5.761   2.688   4.123
32998SOL     OW  767   5.674   4.474  13.957
32998SOL    HW1  768   5.606   4.511  14.013
32998SOL    HW2  769   5.631   4.459  13.873
32999SOL     OW  770   3.376  13.464   9.177
32999SOL    HW1  771   3.404  13.526   9.245
32999SOL    HW2  772   3.303  13.508   9.133
33000SOL     OW  773   4.047   0.676   4.267
33000SOL    HW1  774   4.070   0.584   4.280
33000SOL    HW2  775   4.115   0.710   4.208
33001SOL     OW  776   7.613   3.526   8.990
33001SOL    HW1  777   7.618   3.433   8.968
33001SOL    HW2  778   7.615   3.529   9.085
33002SOL     OW  779   7.196   8.232   9.735
33002SOL    HW1  780   7.217   8.228   9.829
33002SOL    HW2  781   7.231   8.151   9.699
33003SOL     OW  782   8.793  13.572   2.942
33003SOL    HW1  783   8.711  13.615   2.916
33003SOL    HW2  784   8.823  13.621   3.018
33004SOL     OW  785  12.685  10.584   5.587
33004SOL    HW1  786  12.646  10.550   5.667
33004SOL    HW2  787  12.622  10.650   5.556
33005SOL     OW  788  13.226   1.468   4.883
33005SOL    HW1  789  13.318   1.456   4.907
33005SOL    HW2  790  13.177   1.440   4.961
33006SOL     OW  791   9.659   9.924  12.981
33006SOL    HW1  792   9.683   9.837  13.013
33006SOL    HW2  793   9.616   9.907  12.897
33007SOL     OW  794   3.330  12.372   0.083
33007SOL    HW1  795   3.329  12.347  14.872
33007SOL    HW2  796   3.375  12.457   0.084
33008SOL     OW  797   9.024  14.373  13.263
33008SOL    HW1  798   9.013  14.437  13.192
33008SOL    HW2  799   8.945  14.383  13.316
33009SOL     OW  800   1.435   6.277   0.477
33009SOL    HW1  801   1.457   6.262   0.385
33009SOL    HW2  802   1.349   6.236   0.488
33010SOL     OW  803  13.440   3.394  13.830
33010SOL    HW1  804  13.385   3.472  13.836
33010SOL    HW2  805  13.389   3.325  13.873
33011SOL     OW  806  10.217   2.792   2.500
33011SOL    HW1  807  10.289   2.733   2.477
33011SOL    HW2  808  10.138   2.741   2.483
33012SOL     OW  809   2.759   9.178  10.488
33012SOL    HW1  810   2.806   9.260  10.499
33012SOL    HW2  811   2.791   9.122  10.559
33013SOL     OW  812   7.867   3.150   3.523
33013SOL    HW1  813   7.852   3.156   3.618
33013SOL    HW2  814   7.926   3.222   3.503
33014SOL     OW  815   9.848   8.696   6.457
33014SOL    HW1  816   9.874   8.605   6.442
33014SOL    HW2  817   9.753   8.696   6.442
33015SOL     OW  818   6.940   7.667   2.034
33015SOL    HW1  819   6.985   7.715   2.104
33015SOL    HW2  820   6.876   7.613   2.080
33016SOL     OW  821   6.403   9.799   7.214
33016SOL    HW1  822   6.468   9.821   7.148
33016SOL    HW2  823   6.354   9.880   7.228
33017SOL     OW  824  13.238  13.550  11.626
33017SOL    HW1  825  13.203  13.517  11.709
33017SOL    HW2  826  13.216  13.483  11.562
33018SOL     OW  827   4.541   2.317   5.275
33018SOL    HW1  828   4.526   2.366   5.194
33018SOL    HW2  829   4.636   2.305   5.279
33019SOL     OW  830   2.050   0.399  14.061
33019SOL    HW1  831   2.013   0.454  13.992
33019SOL    HW2  832   2.140   0.430  14.072
33020SOL     OW  833  12.594   3.845   6.277
33020SOL    HW1  834  12.593   3.750   6.277
33020SOL    HW2  835  12.547   3.870   6.198
33021SOL     OW  836   3.386   8.966   0.572
33021SOL    HW1  837   3.474   8.977   0.537
33021SOL    HW2  838   3.379   9.032   0.641
33022SOL     OW  839   7.629   1.604   6.458
33022SOL    HW1  840   7.659   1.611   6.548
33022SOL    HW2  841   7.597   1.514   6.450
33023SOL     OW  842   0.572   2.841   3.673
33023SOL    HW1  843   0.606   2.931   3.669
33023SOL    HW2  844   0.481   2.851   3.700
33024SOL     OW  845   1.037   5.021   8.865
33024SOL    HW1  846   0.976   5.046   8.935
33024SOL    HW2  847   1.069   5.104   8.830
33025SOL     OW  848   4.349  11.806   0.759
33025SOL    HW1  849   4.336  11.719   0.796
33025SOL    HW2  850   4.419  11.845   0.811
33026SOL     OW  851   7.081   6.509   7.126
33026SOL    HW1  852   7.168   6.529   7.092
33026SOL    HW2  853   7.073   6.414   7.118
33027SOL     OW  854  14.089   6.695   5.556
33027SOL    HW1  855  14.033   6.641   5.613
33027SOL    HW2  856  14.123   6.763   5.614
33028SOL     OW  857  11.161   0.063   3.367
33028SOL    HW1  858  11.147  14.850   3.370
33028SOL    HW2  859  11.250   0.075   3.398
33029SOL     OW  860  13.316   7.815   8.153
33029SOL    HW1  861  13.263   7.882   8.110
33029SOL    HW2  862  13.345   7.758   8.081
33030SOL     OW  863  12.233   7.141   2.729
33030SOL    HW1  864  12.277   7.175   2.651
33030SOL    HW2  865  12.206   7.053   2.705
33031SOL     OW  866   5.185  13.862  14.182
33031SOL    HW1  867   5.208  13.769  14.181
33031SOL    HW2  868   5.187  13.888  14.090
33032SOL     OW  869   3.281   9.832   2.710
33032SOL    HW1  870   3.253   9.837   2.801
33032SOL    HW2  871   3.317   9.919   2.691
33033SOL     OW  872   4.876   1.128  10.910
33033SOL    HW1  873   4.946   1.096  10.966
33033SOL    HW2  874   4.804   1.147  10.971
33034SOL     OW  875   5.837   4.336   5.442
33034SOL    HW1  876   5.923   4.320   5.404
33034SOL    HW2  877   5.779   4.352   5.368
33035SOL     OW  878   2.952   5.173   7.861
33035SOL    HW1  879   2.930   5.153   7.770
33035SOL    HW2  880   2.994   5.259   7.858
33036SOL     OW  881   8.467   9.600  14.602
33036SOL    HW1  882   8.405   9.636  14.538
33036SOL    HW2  883   8.536   9.560  14.549
33037SOL     OW  884   5.559   2.890   4.828
33037SOL    HW1  885   5.476   2.851   4.855
33037SOL    HW2  886   5.576   2.853   4.741
33038SOL     OW  887   3.095   8.564   2.486
33038SOL    HW1  888   3.012   8.601   2.458
33038SOL    HW2  889   3.072   8.481   2.527
33039SOL     OW  890  11.982   1.756   2.465
33039SOL    HW1  891  11.909   1.696   2.475
33039SOL    HW2  892  11.999   1.788   2.554
33040SOL     OW  893   0.682  11.764   7.571
33040SOL    HW1  894   0.736  11.709   7.628
33040SOL    HW2  895   0.632  11.820   7.632
33041SOL     OW  896   6.489   7.010  14.545
33041SOL    HW1  897   6.464   7.075  14.480
33041SOL    HW2  898   6.498   6.928  14.496
33042SOL     OW  899   1.392   5.282   0.549
33042SOL    HW1  900   1.308   5.317   0.519
33042SOL    HW2  901   1.434   5.356   0.592
33043SOL     OW  902  10.857   7.520  12.791
33043SOL    HW1  903  10.862   7.427  12.771
33043SOL    HW2  904  10.879   7.563  12.708
33044SOL     OW  905   5.678   0.856   0.729
33044SOL    HW1  906   5.655   0.849   0.637
33044SOL    HW2  907   5.686   0.765   0.759
33045SOL     OW  908   8.182   8.001  11.715
33045SOL    HW1  909   8.129   7.921  11.714
33045SOL    HW2  910   8.119   8.072  11.708
33046SOL     OW  911   4.575  10.247   3.120
33046SOL    HW1  912   4.512  10.178   3.100
33046SOL    HW2  913   4.535  10.296   3.191
33047SOL     OW  914  12.774   6.950   3.358
33047SOL    HW1  915  12.855   6.902   3.375
33047SOL    HW2  916  12.798   7.015   3.292
33048SOL     OW  917  12.663  11.333  14.409
33048SOL    HW1  918  12.749  11.358  14.441
33048SOL    HW2  919  12.662  11.361  14.318
33049SOL     OW  920   7.362   8.918  11.074
33049SOL    HW1  921   7.282   8.940  11.027
33049SOL    HW2  922   7.354   8.824  11.093
33050SOL     OW  923   5.130  13.089  11.287
33050SOL    HW1  924   5.111  13.084  11.193
33050SOL    HW2  925   5.215  13.047  11.297
33051SOL     OW  926   7.598   0.718   1.271
33051SOL    HW1  927   7.528   0.653   1.272
33051SOL    HW2  928   7.601   0.748   1.180
33052SOL     OW  929  13.492   7.805   5.680
33052SOL    HW1  930  13.551   7.749   5.630
33052SOL    HW2  931  13.532   7.891   5.678
33053SOL     OW  932  13.687  14.145   7.811
33053SOL    HW1  933  13.757  14.161   7.747
33053SOL    HW2  934  13.708  14.059   7.848
33054SOL     OW  935   5.637   4.099  10.175
33054SOL    HW1  936   5.567   4.151  10.136
33054SOL    HW2  937   5.716   4.128  10.130
33055SOL     OW  938   2.175   4.676   2.308
33055SOL    HW1  939   2.240   4.734   2.347
33055SOL    HW2  940   2.225   4.626   2.242
33056SOL     OW  941   8.808  12.159   7.104
33056SOL    HW1  942   8.900  12.144   7.083
33056SOL    HW2  943   8.804  12.156   7.199
33057SOL     OW  944   7.776   0.805  11.159
33057SOL    HW1  945   7.722   0.872  11.117
33057SOL    HW2  946   7.724   0.725  11.155
33058SOL     OW  947   7.907   1.311   5.567
33058SOL    HW1  948   7.912   1.217   5.586
33058SOL    HW2  949   7.985   1.329   5.516
33059SOL     OW  950  11.508   8.197   6.301
33059SOL    HW1  951  11.445   8.137   6.261
33059SOL    HW2  952  11.593   8.169   6.269
33060SOL     OW  953   8.757   7.524   6.244
33060SOL    HW1  954   8.766   7.430   6.230
33060SOL    HW2  955   8.796   7.539   6.330
33061SOL     OW  956   8.977  12.776  11.443
33061SOL    HW1  957   8.931  12.860  11.434
33061SOL    HW2  958   9.059  12.788  11.395
33062SOL     OW  959   6.521   7.249  12.876
33062SOL    HW1  960   6.439   7.243  12.925
33062SOL    HW2  961   6.529   7.165  12.832
33063SOL     OW  962   8.601  14.253  11.736
33063SOL    HW1  963   8.612  14.186  11.804
33063SOL    HW2  964   8.691  14.276  11.710
33064SOL     OW  965  10.572   5.094  11.965
33064SOL    HW1  966  10.569   5.149  12.044
33064SOL    HW2  967  10.562   5.155  11.893
33065SOL     OW  968   8.540   1.650   5.032
33065SOL    HW1  969   8.627   1.675   5.065
33065SOL    HW2  970   8.492   1.622   5.110
33066SOL     OW  971   7.710   3.670   4.177
33066SOL    HW1  972   7.682   3.754   4.140
33066SOL    HW2  973   7.804   3.665   4.159
33067SOL     OW  974   8.264  13.487   9.036
33067SOL    HW1  975   8.209  13.409   9.041
33067SOL    HW2  976   8.297  13.487   8.946
33068SOL     OW  977   8.837   3.806  10.302
33068SOL    HW1  978   8.821   3.766  10.387
33068SOL    HW2  979   8.755   3.794  10.254
33069SOL     OW  980   4.145   3.784   4.025
33069SOL    HW1  981   4.187   3.756   4.106
33069SOL    HW2  982   4.054   3.801   4.050
33070SOL     OW  983  12.382   8.855   7.232
33070SOL    HW1  984  12.443   8.857   7.305
33070SOL    HW2  985  12.351   8.945   7.224
33071SOL     OW  986   2.898   1.671   3.599
33071SOL    HW1  987   2.963   1.669   3.529
33071SOL    HW2  988   2.909   1.586   3.643
33072SOL     OW  989   3.218   5.344   0.174
33072SOL    HW1  990   3.132   5.316   0.205
33072SOL    HW2  991   3.200   5.406   0.103
33073SOL     OW  992   6.993   7.888   5.690
33073SOL    HW1  993   7.019   7.804   5.653
33073SOL    HW2  994   6.960   7.867   5.778
33074SOL     OW  995   0.260  14.170   7.443
33074SOL    HW1  996   0.193  14.235   7.425
33074SOL    HW2  997   0.293  14.192   7.530
33075SOL     OW  998   5.929  14.719   4.530
33075SOL    HW1  999   5.969  14.752   4.610
33075SOL    HW2 1000   5.956  14.627   4.525
33076SOL     OW 1001   6.771  14.498  13.321
33076SOL    HW1 1002   6.740  14.588  13.328
33076SOL    HW2 1003   6.766  14.478  13.227
33077SOL     OW 1004  12.918   9.972   3.918
33077SOL    HW1 1005  12.827   9.945   3.930
33077SOL    HW2 1006  12.950   9.919   3.845
33078SOL     OW 1007  10.130   0.149   7.622
33078SOL    HW1 1008  10.091   0.179   7.540
33078SOL    HW2 1009  10.114   0.221   7.683
33079SOL     OW 1010  12.441  14.091   5.364
33079SOL    HW1 1011  12.381  14.070   5.293
33079SOL    HW2 1012  12.413  14.177   5.395
33080SOL     OW 1013   6.916  12.434  11.415
33080SOL    HW1 1014   6.968  12.355  11.405
33080SOL    HW2 1015   6.830  12.411  11.381
33081SOL     OW 1016  11.399   9.188   8.123
33081SOL    HW1 1017  11.470   9.136   8.161
33081SOL    HW2 1018  11.329   9.124   8.109
33082SOL     OW 1019   9.293   9.494   9.053
33082SOL    HW1 1020   9.311   9.483   9.146
33082SOL    HW2 1021   9.246   9.414   9.028
33083SOL     OW 1022  10.972   2.591  11.950
33083SOL    HW1 1023  10.982   2.619  11.859
33083SOL    HW2 1024  10.891   2.632  11.979
33084SOL     OW 1025  12.440   8.976  14.881
33084SOL    HW1 1026  12.436   9.069   0.024
33084SOL    HW2 1027  12.438   8.929   0.083
33085SOL     OW 1028  13.254   5.893   5.250
33085SOL    HW1 1029  13.297   5.977   5.267
33085SOL    HW2 1030  13.327   5.832   5.234
33086SOL     OW 1031   2.677   9.790  14.659
33086SOL    HW1 1032   2.688   9.714  14.601
33086SOL    HW2 1033   2.588   9.819  14.644
33087SOL     OW 1034   6.192   4.352   1.382
33087SOL    HW1 1035   6.146   4.370   1.464
33087SOL    HW2 1036   6.262   4.291   1.407
33088SOL     OW 1037  13.428   6.305  14.877
33088SOL    HW1 1038  13.469   6.230   0.039
33088SOL    HW2 1039  13.498   6.370  14.869
33089SOL     OW 1040   5.305  11.763   8.584
33089SOL    HW1 1041   5.387  11.719   8.606
33089SOL    HW2 1042   5.278  11.723   8.501
33090SOL     OW 1043   2.864   0.610   0.154
33090SOL    HW1 1044   2.798   0.642   0.215
33090SOL    HW2 1045   2.935   0.674   0.161
33091SOL     OW 1046   6.840   7.168  14.363
33091SOL    HW1 1047   6.792   7.142  14.442
33091SOL    HW2 1048   6.878   7.087  14.329
33092SOL     OW 1049  13.994   0.904   6.991
33092SOL    HW1 1050  13.909   0.896   7.035
33092SOL    HW2 1051  13.989   0.846   6.916
33093SOL     OW 1052   1.996  13.418   7.172
33093SOL    HW1 1053   2.084  13.398   7.143
33093SOL    HW2 1054   1.953  13.333   7.184
33094SOL     OW 1055   5.791  13.640   8.401
33094SOL    HW1 1056   5.825  13.728   8.420
33094SOL    HW2 1057   5.867  13.583   8.407
33095SOL     OW 1058   1.864   4.589  13.390
33095SOL    HW1 1059   1.861   4.524  13.460
33095SOL    HW2 1060   1.945   4.637  13.406
33096SOL     OW 1061   8.095   3.549   5.458
33096SOL    HW1 1062   8.131   3.593   5.381
33096SOL    HW2 1063   8.011   3.592   5.473
33097SOL     OW 1064   7.392  13.493  13.667
33097SOL    HW1 1065   7.386  13.574  13.616
33097SOL    HW2 1066   7.451  13.513  13.739
33098SOL     OW 1067   6.030   1.185   5.716
33098SOL    HW1 1068   5.986   1.268   5.733
33098SOL    HW2 1069   5.959   1.120   5.715
33099SOL     OW 1070  13.008   5.652   1.097
33099SOL    HW1 1071  12.978   5.734   1.058
33099SOL    HW2 1072  13.004   5.589   1.025
33100SOL     OW 1073   1.682  11.978   8.811
33100SOL    HW1 1074   1.760  12.004   8.763
33100SOL    HW2 1075   1.613  12.035   8.778
33101SOL     OW 1076   1.556  11.032   0.668
33101SOL    HW1 1077   1.598  11.115   0.691
33101SOL    HW2 1078   1.463  11.048   0.685
33102SOL     OW 1079  11.933   9.941   1.134
33102SOL    HW1 1080  12.004   9.964   1.193
33102SOL    HW2 1081  11.867  10.009   1.148
33103SOL     OW 1082   3.000   1.683   2.937
33103SOL    HW1 1083   2.907   1.700   2.925
33103SOL    HW2 1084   3.043   1.764   2.911
33104SOL     OW 1085  12.031   9.118  10.063
33104SOL    HW1 1086  12.048   9.037  10.110
33104SOL    HW2 1087  12.015   9.091   9.972
33105SOL     OW 1088   7.154   5.545   6.840
33105SOL    HW1 1089   7.179   5.630   6.877
33105SOL    HW2 1090   7.082   5.565   6.780
33106SOL     OW 1091  14.137  10.403   9.344
33106SOL    HW1 1092  14.094  10.360   9.270
33106SOL    HW2 1093  14.087  10.484   9.357
33107SOL     OW 1094   5.973   3.749   9.092
33107SOL    HW1 1095   5.894   3.730   9.041
33107SOL    HW2 1096   5.945   3.814   9.156
33108SOL     OW 1097   7.907   4.163  12.687
33108SOL    HW1 1098   7.832   4.125  12.641
33108SOL    HW2 1099   7.870   4.199  12.767
33109SOL     OW 1100   7.025  14.000   6.658
33109SOL    HW1 1101   7.087  13.976   6.727
33109SOL    HW2 1102   7.029  14.095   6.654
33110SOL     OW 1103   5.298   6.066   8.293
33110SOL    HW1 1104   5.286   6.073   8.387
33110SOL    HW2 1105   5.231   6.124   8.256
33111SOL     OW 1106  11.949   2.108   8.905
33111SOL    HW1 1107  11.892   2.138   8.834
33111SOL    HW2 1108  12.024   2.067   8.861
33112SOL     OW 1109   3.992  14.579  11.913
33112SOL    HW1 1110   3.984  14.631  11.993
33112SOL    HW2 1111   4.084  14.551  11.912
33113SOL     OW 1112   2.302   6.986  13.899
33113SOL    HW1 1113   2.302   7.064  13.844
33113SOL    HW2 1114   2.263   7.015  13.982
33114SOL     OW 1115   5.456   7.237  11.629
33114SOL    HW1 1116   5.420   7.305  11.687
33114SOL    HW2 1117   5.546   7.224  11.661
33115SOL     OW 1118   5.758   8.024  14.300
33115SOL    HW1 1119   5.749   8.023  14.395
33115SOL    HW2 1120   5.816   8.098  14.281
33116SOL     OW 1121  11.381  10.924   5.165
33116SOL    HW1 1122  11.309  10.962   5.217
33116SOL    HW2 1123  11.356  10.832   5.153
33117SOL     OW 1124   6.907  13.013   0.501
33117SOL    HW1 1125   6.956  13.052   0.573
33117SOL    HW2 1126   6.942  13.056   0.423
33118SOL     OW 1127   7.629  12.322   0.700
33118SOL    HW1 1128   7.589  12.316   0.613
33118SOL    HW2 1129   7.722  12.332   0.683
33119SOL     OW 1130   3.958  12.236   7.485
33119SOL    HW1 1131   4.015  12.299   7.528
33119SOL    HW2 1132   3.875  12.283   7.472
33120SOL     OW 1133   9.430   6.749   0.809
33120SOL    HW1 1134   9.437   6.682   0.741
33120SOL    HW2 1135   9.441   6.832   0.762
33121SOL     OW 1136  12.498   1.258   4.811
33121SOL    HW1 1137  12.510   1.310   4.732
33121SOL    HW2 1138  12.566   1.191   4.807
33122SOL     OW 1139   3.504   7.166  11.753
33122SOL    HW1 1140   3.534   7.103  11.818
33122SOL    HW2 1141   3.433   7.121  11.707
33123SOL     OW 1142  11.098   0.337   0.330
33123SOL    HW1 1143  11.043   0.282   0.386
33123SOL    HW2 1144  11.056   0.334   0.244
33124SOL     OW 1145   2.673   6.212   2.340
33124SOL    HW1 1146   2.594   6.264   2.326
33124SOL    HW2 1147   2.649   6.150   2.409
33125SOL     OW 1148   8.535  11.038  13.157
33125SOL    HW1 1149   8.483  10.960  13.179
33125SOL    HW2 1150   8.495  11.070  13.076
33126SOL     OW 1151  10.835   2.695  10.448
33126SOL    HW1 1152  10.893   2.761  10.486
33126SOL    HW2 1153  10.845   2.619  10.504
33127SOL     OW 1154  10.742   4.201   9.146
33127SOL    HW1 1155  10.722   4.186   9.054
33127SOL    HW2 1156  10.666   4.247   9.181
33128SOL     OW 1157   2.786  10.184   3.917
33128SOL    HW1 1158   2.866  10.234   3.898
33128SOL    HW2 1159   2.800  10.149   4.005
33129SOL     OW 1160   5.323  11.171   3.706
33129SOL    HW1 1161   5.294  11.094   3.756
33129SOL    HW2 1162   5.295  11.246   3.758
33130SOL     OW 1163   6.208   4.520   7.051
33130SOL    HW1 1164   6.114   4.501   7.049
33130SOL    HW2 1165   6.248   4.438   7.081
33131SOL     OW 1166   3.284   4.727   0.734
33131SOL    HW1 1167   3.261   4.678   0.813
33131SOL    HW2 1168   3.200   4.760   0.701
33132SOL     OW 1169   2.825  13.656  12.600
33132SOL    HW1 1170   2.832  13.561  12.591
33132SOL    HW2 1171   2.838  13.689  12.511
33133SOL     OW 1172   4.778  12.277   0.409
33133SOL    HW1 1173   4.781  12.360   0.362
33133SOL    HW2 1174   4.863  12.237   0.393
33134SOL     OW 1175  14.403   2.378   2.096
33134SOL    HW1 1176  14.471   2.367   2.029
33134SOL    HW2 1177  14.451   2.371   2.179
33135SOL     OW 1178   1.984  10.390   3.964
33135SOL    HW1 1179   1.950  10.421   3.881
33135SOL    HW2 1180   1.912  10.341   4.004
33136SOL     OW 1181   7.231  14.202   4.148
33136SOL    HW1 1182   7.276  14.227   4.229
33136SOL    HW2 1183   7.219  14.107   4.155
33137SOL     OW 1184   0.015   5.124   5.442
33137SOL    HW1 1185  14.870   5.065   5.512
33137SOL    HW2 1186   0.108   5.142   5.460
33138SOL     OW 1187   6.941   3.702  13.105
33138SOL    HW1 1188   6.957   3.661  13.020
33138SOL    HW2 1189   7.028   3.729  13.136
33139SOL     OW 1190   7.728  14.393   8.153
33139SOL    HW1 1191   7.688  14.442   8.225
33139SOL    HW2 1192   7.710  14.301   8.172
33140SOL     OW 1193  11.990  12.519   1.047
33140SOL    HW1 1194  11.900  12.491   1.033
33140SOL    HW2 1195  12.030  12.518   0.960
33141SOL     OW 1196   9.449   2.837   9.442
33141SOL    HW1 1197   9.373   2.873   9.488
33141SOL    HW2 1198   9.515   2.906   9.447
33142SOL     OW 1199   6.255   7.757   4.380
33142SOL    HW1 1200   6.244   7.674   4.334
33142SOL    HW2 1201   6.333   7.796   4.341
33143SOL     OW 1202   9.793   9.388   1.223
33143SOL    HW1 1203   9.730   9.330   1.181
33143SOL    HW2 1204   9.776   9.474   1.185
33144SOL     OW 1205  14.108   8.917   0.307
33144SOL    HW1 1206  14.023   8.878   0.286
33144SOL    HW2 1207  14.087   8.999   0.352
33145SOL     OW 1208  14.128   2.285   6.760
33145SOL    HW1 1209  14.184   2.331   6.699
33145SOL    HW2 1210  14.131   2.338   6.840
33146SOL     OW 1211   9.794   1.559  11.863
33146SOL    HW1 1212   9.803   1.467  11.841
33146SOL    HW2 1213   9.714   1.564  11.914
33147SOL     OW 1214   8.185   4.446   0.366
33147SOL    HW1 1215   8.133   4.442   0.447
33147SOL    HW2 1216   8.229   4.531   0.369
33148SOL     OW 1217   9.619   2.354  11.034
33148SOL    HW1 1218   9.545   2.412  11.052
33148SOL    HW2 1219   9.695   2.411  11.034
33149SOL     OW 1220  13.212   7.993   1.461
33149SOL    HW1 1221  13.140   7.934   1.438
33149SOL    HW2 1222  13.190   8.022   1.550
33150SOL     OW 1223   9.255   7.918   5.488
33150SOL    HW1 1224   9.166   7.948   5.502
33150SOL    HW2 1225   9.305   7.959   5.559
33151SOL     OW 1226   9.013   7.723   7.734
33151SOL    HW1 1227   8.933   7.679   7.705
33151SOL    HW2 1228   8.990   7.815   7.737
33152SOL     OW 1229   6.783  14.198   2.716
33152SOL    HW1 1230   6.783  14.196   2.620
33152SOL    HW2 1231   6.742  14.283   2.737
33153SOL     OW 1232  10.700   6.500  13.376
33153SOL    HW1 1233  10.689   6.445  13.298
33153SOL    HW2 1234  10.629   6.474  13.435
33154SOL     OW 1235  13.679  11.833   0.854
33154SOL    HW1 1236  13.671  11.904   0.918
33154SOL    HW2 1237  13.608  11.849   0.792
33155SOL     OW 1238  11.727   8.583   3.725
33155SOL    HW1 1239  11.723   8.630   3.809
33155SOL    HW2 1240  11.639   8.592   3.688
33156SOL     OW 1241  13.129   2.969  14.062
33156SOL    HW1 1242  13.051   2.914  14.064
33156SOL    HW2 1243  13.198   2.912  14.029
33157SOL     OW 1244   5.185  14.368  12.815
33157SOL    HW1 1245   5.239  14.391  12.890
33157SOL    HW2 1246   5.220  14.421  12.743
33158SOL     OW 1247   4.372   3.455  10.000
33158SOL    HW1 1248   4.306   3.424   9.938
33158SOL    HW2 1249   4.402   3.539   9.964
33159SOL     OW 1250  14.875  14.639   6.685
33159SOL    HW1 1251  14.779  14.642   6.676
33159SOL    HW2 1252   0.015  14.547   6.677
33160SOL     OW 1253  14.799   0.880  11.643
33160SOL    HW1 1254  14.840   0.897  11.728
33160SOL    HW2 1255  14.720   0.830  11.664
33161SOL     OW 1256   3.168  14.009   6.617
33161SOL    HW1 1257   3.194  13.987   6.706
33161SOL    HW2 1258   3.118  13.933   6.587
33162SOL     OW 1259   1.472   6.777   7.678
33162SOL    HW1 1260   1.382   6.748   7.659
33162SOL    HW2 1261   1.511   6.704   7.725
33163SOL     OW 1262  12.993   1.665  14.499
33163SOL    HW1 1263  13.048   1.595  14.532
33163SOL    HW2 1264  13.032   1.689  14.415
33164SOL     OW 1265  11.768  11.169   4.659
33164SOL    HW1 1266  11.862  11.151   4.666
33164SOL    HW2 1267  11.751  11.235   4.727
33165SOL     OW 1268  11.457  13.858  10.695
33165SOL    HW1 1269  11.482  13.781  10.746
33165SOL    HW2 1270  11.363  13.849  10.681
33166SOL     OW 1271  13.480   3.296   2.711
33166SOL    HW1 1272  13.541   3.370   2.710
33166SOL    HW2 1273  13.498   3.251   2.793
33167SOL     OW 1274   6.451   7.822   3.419
33167SOL    HW1 1275   6.516   7.866   3.364
33167SOL    HW2 1276   6.370   7.869   3.401
33168SOL     OW 1277  14.415   1.374   5.012
33168SOL    HW1 1278  14.332   1.325   5.011
33168SOL    HW2 1279  14.483   1.307   5.012
33169SOL     OW 1280   6.560   2.094   1.509
33169SOL    HW1 1281   6.589   2.066   1.422
33169SOL    HW2 1282   6.640   2.109   1.558
33170SOL     OW 1283   3.092   5.321  12.756
33170SOL    HW1 1284   3.023   5.305  12.820
33170SOL    HW2 1285   3.146   5.242  12.758
33171SOL     OW 1286  12.173  14.416   1.430
33171SOL    HW1 1287  12.176  14.344   1.366
33171SOL    HW2 1288  12.250  14.402   1.485
33172SOL     OW 1289  12.343  10.505  11.288
33172SOL    HW1 1290  12.307  10.588  11.320
33172SOL    HW2 1291  12.318  10.501  11.196
33173SOL     OW 1292   9.850   3.986  14.355
33173SOL    HW1 1293   9.931   3.954  14.393
33173SOL    HW2 1294   9.783   3.968  14.422
33174SOL     OW 1295   8.628  12.507   4.447
33174SOL    HW1 1296   8.576  12.427   4.440
33174SOL    HW2 1297   8.569  12.571   4.486
33175SOL     OW 1298  10.608   2.227   6.152
33175SOL    HW1 1299  10.569   2.154   6.103
33175SOL    HW2 1300  10.536   2.263   6.203
33176SOL     OW 1301   3.711  11.580  10.439
33176SOL    HW1 1302   3.635  11.524  10.453
33176SOL    HW2 1303   3.719  11.586  10.344
33177SOL     OW 1304  13.316   6.763   3.822
33177SOL    HW1 1305  13.392   6.802   3.779
33177SOL    HW2 1306  13.259   6.736   3.750
33178SOL     OW 1307   5.035   0.934   3.874
33178SOL    HW1 1308   4.958   0.962   3.922
33178SOL    HW2 1309   5.008   0.932   3.782
33179SOL     OW 1310   3.199  12.756   3.955
33179SOL    HW1 1311   3.156  12.840   3.938
33179SOL    HW2 1312   3.290  12.771   3.930
33180SOL     OW 1313  10.627   4.999   1.813
33180SOL    HW1 1314  10.544   5.043   1.793
33180SOL    HW2 1315  10.675   5.000   1.730
33181SOL     OW 1316  14.511   6.050  11.001
33181SOL    HW1 1317  14.445   6.096  10.949
33181SOL    HW2 1318  14.465   6.025  11.081
33182SOL     OW 1319   3.497   1.832   8.469
33182SOL    HW1 1320   3.529   1.755   8.517
33182SOL    HW2 1321   3.452   1.795   8.392
33183SOL     OW 1322   0.913   2.789   7.166
33183SOL    HW1 1323   0.992   2.814   7.119
33183SOL    HW2 1324   0.923   2.827   7.253
33184SOL     OW 1325   2.204  13.261   2.826
33184SOL    HW1 1326   2.204  13.353   2.801
33184SOL    HW2 1327   2.155  13.217   2.756
33185SOL     OW 1328   8.485  13.112  11.923
33185SOL    HW1 1329   8.473  13.206  11.909
33185SOL    HW2 1330   8.409  13.085  11.975
33186SOL     OW 1331   1.207   5.855  14.367
33186SOL    HW1 1332   1.223   5.811  14.284
33186SOL    HW2 1333   1.268   5.813  14.428
33187SOL     OW 1334   7.271   1.798  11.501
33187SOL    HW1 1335   7.284   1.776  11.593
33187SOL    HW2 1336   7.347   1.761  11.457
33188SOL     OW 1337  12.138   0.046   5.602
33188SOL    HW1 1338  12.077   0.079   5.536
33188SOL    HW2 1339  12.225   0.073   5.571
33189SOL     OW 1340  12.759   4.921  12.025
33189SOL    HW1 1341  12.705   4.871  12.086
33189SOL    HW2 1342  12.848   4.893  12.043
33190SOL     OW 1343   4.823  12.925   7.290
33190SOL    HW1 1344   4.743  12.874   7.288
33190SOL    HW2 1345   4.862  12.912   7.203
33191SOL     OW 1346  14.260   3.648   7.984
33191SOL    HW1 1347  14.329   3.598   8.027
33191SOL    HW2 1348  14.270   3.737   8.017
33192SOL     OW 1349   7.979   4.297   8.831
33192SOL    HW1 1350   7.942   4.229   8.775
33192SOL    HW2 1351   8.074   4.286   8.823
33193SOL     OW 1352   4.423  10.317   4.552
33193SOL    HW1 1353   4.356  10.249   4.559
33193SOL    HW2 1354   4.396  10.385   4.614
33194SOL     OW 1355   2.448   3.491  10.327
33194SOL    HW1 1356   2.426   3.508  10.235
33194SOL    HW2 1357   2.524   3.433  10.323
33195SOL     OW 1358   2.010   4.234   9.992
33195SOL    HW1 1359   1.992   4.216   9.900
33195SOL    HW2 1360   2.068   4.163  10.019
33196SOL     OW 1361  12.863  12.221   1.242
33196SOL    HW1 1362  12.789  12.272   1.275
33196SOL    HW2 1363  12.854  12.136   1.285
33197SOL     OW 1364   1.617   5.808  12.310
33197SOL    HW1 1365   1.534   5.762  12.318
33197SOL    HW2 1366   1.616   5.845  12.221
33198SOL     OW 1367  13.582   2.562  10.671
33198SOL    HW1 1368  13.554   2.533  10.584
33198SOL    HW2 1369  13.502   2.557  10.724
33199SOL     OW 1370   9.006  10.766   0.135
33199SOL    HW1 1371   9.029  10.797   0.048
33199SOL    HW2 1372   8.993  10.672   0.124
33200SOL     OW 1373   1.221   8.363  13.024
33200SOL    HW1 1374   1.147   8.423  13.021
33200SOL    HW2 1375   1.209   8.314  13.105
33201SOL     OW 1376  11.030   7.185  13.154
33201SOL    HW1 1377  11.065   7.142  13.076
33201SOL    HW2 1378  10.951   7.229  13.123
33202SOL     OW 1379   4.606  14.464   7.553
33202SOL    HW1 1380   4.631  14.397   7.616
33202SOL    HW2 1381   4.611  14.420   7.468
33203SOL     OW 1382   8.674   9.254   8.821
33203SOL    HW1 1383   8.653   9.324   8.882
33203SOL    HW2 1384   8.718   9.188   8.874
33204SOL     OW 1385   4.716  12.048   9.943
33204SOL    HW1 1386   4.640  12.015   9.894
33204SOL    HW2 1387   4.702  12.015  10.032
33205SOL     OW 1388   9.515  11.709   1.230
33205SOL    HW1 1389   9.456  11.644   1.191
33205SOL    HW2 1390   9.601  11.669   1.225
33206SOL     OW 1391  14.109   6.741   2.161
33206SOL    HW1 1392  14.120   6.834   2.143
33206SOL    HW2 1393  14.015   6.725   2.153
33207SOL     OW 1394   4.907   2.835   0.221
33207SOL    HW1 1395   4.890   2.798   0.307
33207SOL    HW2 1396   4.820   2.844   0.181
33208SOL     OW 1397   6.501   2.845  10.653
33208SOL    HW1 1398   6.589   2.833  10.689
33208SOL    HW2 1399   6.515   2.880  10.565
33209SOL     OW 1400  12.383   6.930  13.249
33209SOL    HW1 1401  12.357   6.954  13.337
33209SOL    HW2 1402  12.304   6.895  13.209
33210SOL     OW 1403   5.026   3.867   7.829
33210SOL    HW1 1404   5.046   3.783   7.871
33210SOL    HW2 1405   5.000   3.844   7.740
33211SOL     OW 1406   3.522   0.907   8.326
33211SOL    HW1 1407   3.494   0.819   8.348
33211SOL    HW2 1408   3.474   0.929   8.246
33212SOL     OW 1409   4.122  12.657   4.747
33212SOL    HW1 1410   4.060  12.686   4.814
33212SOL    HW2 1411   4.068  12.610   4.683
33213SOL     OW 1412  11.562   5.072   1.821
33213SOL    HW1 1413  11.628   5.011   1.854
33213SOL    HW2 1414  11.507   5.090   1.897
33214SOL     OW 1415   8.783   0.716   7.826
33214SOL    HW1 1416   8.793   0.624   7.801
33214SOL    HW2 1417   8.840   0.727   7.902
33215SOL     OW 1418  12.972   4.490  14.484
33215SOL    HW1 1419  12.897   4.507  14.540
33215SOL    HW2 1420  12.994   4.398  14.499
33216SOL     OW 1421   2.049   0.959   7.826
33216SOL    HW1 1422   2.068   0.868   7.851
33216SOL    HW2 1423   2.004   0.996   7.902
33217SOL     OW 1424   7.403  13.790   0.503
33217SOL    HW1 1425   7.498  13.798   0.494
33217SOL    HW2 1426   7.371  13.879   0.494
33218SOL     OW 1427   2.585   3.363   7.527
33218SOL    HW1 1428   2.518   3.418   7.568
33218SOL    HW2 1429   2.607   3.408   7.446
33219SOL     OW 1430   3.712   6.481   3.068
33219SOL    HW1 1431   3.641   6.435   3.022
33219SOL    HW2 1432   3.791   6.456   3.020
33220SOL     OW 1433   6.722  13.276   5.915
33220SOL    HW1 1434   6.689  13.188   5.934
33220SOL    HW2 1435   6.743  13.275   5.822
33221SOL     OW 1436   5.901   1.006   2.268
33221SOL    HW1 1437   5.832   1.056   2.312
33221SOL    HW2 1438   5.893   0.918   2.303
33222SOL     OW 1439   7.362   7.797   6.011
33222SOL    HW1 1440   7.300   7.845   5.956
33222SOL    HW2 1441   7.326   7.708   6.015
33223SOL     OW 1442  12.891  14.545  14.141
33223SOL    HW1 1443  12.885  14.457  14.104
33223SOL    HW2 1444  12.958  14.539  14.209
33224SOL     OW 1445   5.008   7.148   6.506
33224SOL    HW1 1446   5.027   7.186   6.421
33224SOL    HW2 1447   5.077   7.181   6.563
33225SOL     OW 1448   2.860   0.857   3.603
33225SOL    HW1 1449   2.905   0.804   3.538
33225SOL    HW2 1450   2.806   0.918   3.551
33226SOL     OW 1451   2.668   3.407   9.444
33226SOL    HW1 1452   2.716   3.329   9.418
33226SOL    HW2 1453   2.709   3.435   9.526
33227SOL     OW 1454  12.729   7.128   0.702
33227SOL    HW1 1455  12.760   7.038   0.710
33227SOL    HW2 1456  12.671   7.140   0.777
33228SOL     OW 1457   6.434   0.981   6.903
33228SOL    HW1 1458   6.488   1.035   6.845
33228SOL    HW2 1459   6.374   0.935   6.843
33229SOL     OW 1460   6.851   5.724  10.909
33229SOL    HW1 1461   6.867   5.671  10.831
33229SOL    HW2 1462   6.858   5.815  10.878
33230SOL     OW 1463  14.487   9.237   6.919
33230SOL    HW1 1464  14.489   9.321   6.965
33230SOL    HW2 1465  14.396   9.227   6.892
33231SOL     OW 1466   0.627   8.026   8.417
33231SOL    HW1 1467   0.684   8.006   8.491
33231SOL    HW2 1468   0.598   7.940   8.385
33232SOL     OW 1469  11.758  11.625   7.181
33232SOL    HW1 1470  11.793  11.709   7.210
33232SOL    HW2 1471  11.674  11.616   7.227
33233SOL     OW 1472   3.460  11.829   6.317
33233SOL    HW1 1473   3.497  11.766   6.255
33233SOL    HW2 1474   3.491  11.799   6.402
33234SOL     OW 1475   0.767  10.685  12.199
33234SOL    HW1 1476   0.695  10.749  12.199
33234SOL    HW2 1477   0.822  10.711  12.273
33235SOL     OW 1478   1.441  11.521   2.676
33235SOL    HW1 1479   1.436  11.426   2.673
33235SOL    HW2 1480   1.401  11.545   2.759
33236SOL     OW 1481   0.226  11.376   2.513
33236SOL    HW1 1482   0.155  11.369   2.449
33236SOL    HW2 1483   0.185  11.360   2.597
33237SOL     OW 1484  12.302  12.074   9.282
33237SOL    HW1 1485  12.370  12.105   9.221
33237SOL    HW2 1486  12.230  12.047   9.225
33238SOL     OW 1487   0.405  10.641   5.572
33238SOL    HW1 1488   0.371  10.580   5.638
33238SOL    HW2 1489   0.375  10.727   5.602
33239SOL     OW 1490  12.872   5.558   3.456
33239SOL    HW1 1491  12.950   5.519   3.495
33239SOL    HW2 1492  12.853   5.503   3.380
33240SOL     OW 1493  11.748   1.256  11.178
33240SOL    HW1 1494  11.770   1.346  11.202
33240SOL    HW2 1495  11.818   1.203  11.215
33241SOL     OW 1496   5.046  10.033  14.796
33241SOL    HW1 1497   5.136  10.003  14.786
33241SOL    HW2 1498   5.054  10.123  14.828
33242SOL     OW 1499   8.779   9.629  12.579
33242SOL    HW1 1500   8.828   9.557  12.540
33242SOL    HW2 1501   8.729   9.666  12.507
33243SOL     OW 1502   9.826  11.991  12.249
33243SOL    HW1 1503   9.732  12.001  12.238
33243SOL    HW2 1504   9.855  11.946  12.170
33244SOL     OW 1505  14.470   6.016   1.240
33244SOL    HW1 1506  14.513   6.048   1.161
33244SOL    HW2 1507  14.488   6.083   1.306
33245SOL     OW 1508  11.033  13.937   4.938
33245SOL    HW1 1509  11.011  13.899   4.853
33245SOL    HW2 1510  11.126  13.961   4.930
33246SOL     OW 1511  12.244   2.512  12.347
33246SOL    HW1 1512  12.179   2.491  12.414
33246SOL    HW2 1513  12.227   2.450  12.276
33247SOL     OW 1514   8.757   6.436   6.175
33247SOL    HW1 1515   8.686   6.376   6.149
33247SOL    HW2 1516   8.733   6.519   6.134
33248SOL     OW 1517  10.151   7.428   2.455
33248SOL    HW1 1518  10.068   7.466   2.426
33248SOL    HW2 1519  10.127   7.370   2.528
33249SOL     OW 1520  12.154  12.967  13.260
33249SOL    HW1 1521  12.207  13.041  13.230
33249SOL    HW2 1522  12.087  12.956  13.193
33250SOL     OW 1523   2.110   0.898  10.253
33250SOL    HW1 1524   2.076   0.986  10.235
33250SOL    HW2 1525   2.128   0.898  10.347
33251SOL     OW 1526   7.036   5.449   3.186
33251SOL    HW1 1527   7.063   5.374   3.239
33251SOL    HW2 1528   6.969   5.492   3.239
33252SOL     OW 1529   4.090   6.571   2.655
33252SOL    HW1 1530   4.100   6.489   2.608
33252SOL    HW2 1531   4.148   6.632   2.610
33253SOL     OW 1532   1.916  10.238  13.557
33253SOL    HW1 1533   1.904  10.299  13.484
33253SOL    HW2 1534   1.960  10.290  13.624
33254SOL     OW 1535   9.136   5.247   4.398
33254SOL    HW1 1536   9.114   5.282   4.312
33254SOL    HW2 1537   9.230   5.231   4.394
33255SOL     OW 1538   7.959   5.974  13.397
33255SOL    HW1 1539   8.000   5.989  13.483
33255SOL    HW2 1540   7.928   6.061  13.370
33256SOL     OW 1541   5.798   4.474   0.009
33256SOL    HW1 1542   5.813   4.442  14.802
33256SOL    HW2 1543   5.878   4.524   0.030
33257SOL     OW 1544  13.693  10.388   5.627
33257SOL    HW1 1545  13.744  10.360   5.551
33257SOL    HW2 1546  13.643  10.464   5.596
33258SOL     OW 1547   8.306  11.154  10.824
33258SOL    HW1 1548   8.326  11.061  10.832
33258SOL    HW2 1549   8.261  11.176  10.906
33259SOL     OW 1550   8.048  14.195   6.278
33259SOL    HW1 1551   8.070  14.206   6.186
33259SOL    HW2 1552   7.984  14.123   6.279
33260SOL     OW 1553   7.266   9.178   3.734
33260SOL    HW1 1554   7.344   9.233   3.721
33260SOL    HW2 1555   7.228   9.170   3.646
33261SOL     OW 1556   3.968   3.291   6.802
33261SOL    HW1 1557   3.940   3.343   6.877
33261SOL    HW2 1558   3.891   3.287   6.745
33262SOL     OW 1559   8.928  13.013   2.709
33262SOL    HW1 1560   8.923  12.918   2.716
33262SOL    HW2 1561   8.958  13.030   2.619
33263SOL     OW 1562  13.536   0.322   4.455
33263SOL    HW1 1563  13.610   0.272   4.422
33263SOL    HW2 1564  13.470   0.316   4.386
33264SOL     OW 1565  11.361   6.332   0.125
33264SOL    HW1 1566  11.325   6.390   0.057
33264SOL    HW2 1567  11.384   6.391   0.197
33265SOL     OW 1568   8.612   8.754   1.609
33265SOL    HW1 1569   8.701   8.734   1.580
33265SOL    HW2 1570   8.555   8.721   1.539
33266SOL     OW 1571   6.435   1.485   5.571
33266SOL    HW1 1572   6.386   1.566   5.581
33266SOL    HW2 1573   6.507   1.507   5.512
33267SOL     OW 1574   9.723  13.266   4.035
33267SOL    HW1 1575   9.727  13.223   4.120
33267SOL    HW2 1576   9.793  13.225   3.984
33268SOL     OW 1577  13.353   8.611   2.585
33268SOL    HW1 1578  13.430   8.559   2.608
33268SOL    HW2 1579  13.380   8.701   2.604
33269SOL     OW 1580   4.768   7.870   1.025
33269SOL    HW1 1581   4.809   7.793   1.066
33269SOL    HW2 1582   4.674   7.856   1.038
33270SOL     OW 1583   7.450  13.169  10.770
33270SOL    HW1 1584   7.504  13.247  10.773
33270SOL    HW2 1585   7.489  13.110  10.835
33271SOL     OW 1586  11.108   5.075   6.181
33271SOL    HW1 1587  11.121   4.997   6.235
33271SOL    HW2 1588  11.153   5.145   6.228
33272SOL     OW 1589  12.601   2.674   1.651
33272SOL    HW1 1590  12.616   2.682   1.557
33272SOL    HW2 1591  12.516   2.630   1.658
33273SOL     OW 1592  14.840   1.995   7.801
33273SOL    HW1 1593  14.751   1.985   7.766
33273SOL    HW2 1594  14.864   2.086   7.780
33274SOL     OW 1595   8.138  10.826   7.545
33274SOL    HW1 1596   8.051  10.792   7.565
33274SOL    HW2 1597   8.185  10.822   7.629
33275SOL     OW 1598   6.322   1.404   7.700
33275SOL    HW1 1599   6.313   1.422   7.606
33275SOL    HW2 1600   6.295   1.486   7.742
33276SOL     OW 1601   7.623   9.266   9.889
33276SOL    HW1 1602   7.713   9.234   9.881
33276SOL    HW2 1603   7.573   9.191   9.922
33277SOL     OW 1604  13.577   5.708   7.610
33277SOL    HW1 1605  13.643   5.639   7.617
33277SOL    HW2 1606  13.547   5.721   7.701
33278SOL     OW 1607   6.536  14.796   4.807
33278SOL    HW1 1608   6.528  14.748   4.724
33278SOL    HW2 1609   6.544  14.729   4.874
33279SOL     OW 1610  13.126   1.898   2.171
33279SOL    HW1 1611  13.187   1.851   2.227
33279SOL    HW2 1612  13.176   1.920   2.093
33280SOL     OW 1613   1.569   4.203   6.761
33280SOL    HW1 1614   1.603   4.225   6.675
33280SOL    HW2 1615   1.585   4.281   6.814
33281SOL     OW 1616  11.973   8.106   6.389
33281SOL    HW1 1617  11.975   8.140   6.479
33281SOL    HW2 1618  12.065   8.087   6.368
33282SOL     OW 1619   9.149  12.113  11.534
33282SOL    HW1 1620   9.135  12.073  11.448
33282SOL    HW2 1621   9.144  12.207  11.517
33283SOL     OW 1622   9.504   4.624   6.604
33283SOL    HW1 1623   9.545   4.569   6.537
33283SOL    HW2 1624   9.447   4.683   6.555
33284SOL     OW 1625   5.579  13.140   3.008
33284SOL    HW1 1626   5.491  13.143   2.969
33284SOL    HW2 1627   5.562  13.128   3.101
33285SOL     OW 1628   6.768   6.389   3.865
33285SOL    HW1 1629   6.737   6.414   3.953
33285SOL    HW2 1630   6.688   6.378   3.814
33286SOL     OW 1631  13.754  13.789  10.547
33286SOL    HW1 1632  13.751  13.807  10.641
33286SOL    HW2 1633  13.841  13.750  10.533
33287SOL     OW 1634   2.900   2.158   9.536
33287SOL    HW1 1635   2.834   2.218   9.501
33287SOL    HW2 1636   2.978   2.173   9.482
33288SOL     OW 1637   3.519   1.546   7.239
33288SOL    HW1 1638   3.463   1.469   7.248
33288SOL    HW2 1639   3.577   1.542   7.315
33289SOL     OW 1640   8.674  14.396   3.381
33289SOL    HW1 1641   8.660  14.337   3.455
33289SOL    HW2 1642   8.755  14.442   3.401
33290SOL     OW 1643   3.394   2.848   4.450
33290SOL    HW1 1644   3.397   2.773   4.509
33290SOL    HW2 1645   3.485   2.878   4.446
33291SOL     OW 1646   7.963   2.827   1.940
33291SOL    HW1 1647   8.052   2.834   1.906
33291SOL    HW2 1648   7.973   2.828   2.035
33292SOL     OW 1649   4.868   6.483   8.115
33292SOL    HW1 1650   4.914   6.562   8.143
33292SOL    HW2 1651   4.776   6.510   8.112
33293SOL     OW 1652   4.190   2.529   0.933
33293SOL    HW1 1653   4.264   2.555   0.987
33293SOL    HW2 1654   4.187   2.433   0.940
33294SOL     OW 1655   8.671   3.834   2.495
33294SOL    HW1 1656   8.746   3.894   2.492
33294SOL    HW2 1657   8.612   3.873   2.560
33295SOL     OW 1658   7.881   2.370   8.943
33295SOL    HW1 1659   7.971   2.401   8.953
33295SOL    HW2 1660   7.889   2.276   8.928
33296SOL     OW 1661   3.298  10.693  13.860
33296SOL    HW1 1662   3.262  10.604  13.864
33296SOL    HW2 1663   3.268  10.726  13.775
33297SOL     OW 1664  10.905  14.001   0.230
33297SOL    HW1 1665  10.864  13.984   0.315
33297SOL    HW2 1666  10.890  14.094   0.214
33298SOL     OW 1667  11.186   0.507   5.479
33298SOL    HW1 1668  11.171   0.447   5.551
33298SOL    HW2 1669  11.099   0.523   5.443
33299SOL     OW 1670   6.545   0.393  10.927
33299SOL    HW1 1671   6.476   0.454  10.953
33299SOL    HW2 1672   6.624   0.446  10.920
33300SOL     OW 1673   9.134   0.052  11.869
33300SOL    HW1 1674   9.050   0.005  11.858
33300SOL    HW2 1675   9.125   0.098  11.952
33301SOL     OW 1676  10.161   3.306  11.582
33301SOL    HW1 1677  10.251   3.333  11.598
33301SOL    HW2 1678  10.115   3.387  11.562
33302SOL     OW 1679  13.970   2.954   1.826
33302SOL    HW1 1680  13.983   2.867   1.788
33302SOL    HW2 1681  14.053   2.999   1.810
33303SOL     OW 1682   9.530  14.166   1.968
33303SOL    HW1 1683   9.532  14.189   2.060
33303SOL    HW2 1684   9.439  14.146   1.949
33304SOL     OW 1685   3.097   4.162  12.648
33304SOL    HW1 1686   3.047   4.085  12.623
33304SOL    HW2 1687   3.109   4.154  12.743
33305SOL     OW 1688  10.569  12.821  10.891
33305SOL    HW1 1689  10.597  12.751  10.831
33305SOL    HW2 1690  10.591  12.787  10.978
33306SOL     OW 1691   3.249   3.898   4.366
33306SOL    HW1 1692   3.293   3.964   4.312
33306SOL    HW2 1693   3.220   3.832   4.304
33307SOL     OW 1694   1.905   4.328  13.838
33307SOL    HW1 1695   1.847   4.379  13.782
33307SOL    HW2 1696   1.854   4.314  13.918
33308SOL     OW 1697   6.651   6.827   0.335
33308SOL    HW1 1698   6.572   6.876   0.312
33308SOL    HW2 1699   6.677   6.861   0.420
33309SOL     OW 1700  12.352   3.213   2.960
33309SOL    HW1 1701  12.258   3.220   2.978
33309SOL    HW2 1702  12.377   3.128   2.998
33310SOL     OW 1703  12.018   7.859  10.854
33310SOL    HW1 1704  12.017   7.915  10.932
33310SOL    HW2 1705  12.087   7.897  10.799
33311SOL     OW 1706   6.842   9.105   6.038
33311SOL    HW1 1707   6.849   9.031   6.098
33311SOL    HW2 1708   6.832   9.181   6.095
33312SOL     OW 1709   0.936   8.169   7.836
33312SOL    HW1 1710   0.914   8.146   7.926
33312SOL    HW2 1711   0.938   8.265   7.836
33313SOL     OW 1712   3.525   7.374   4.041
33313SOL    HW1 1713   3.535   7.420   3.957
33313SOL    HW2 1714   3.437   7.337   4.037
33314SOL     OW 1715   6.895  10.684   4.472
33314SOL    HW1 1716   6.967  10.648   4.523
33314SOL    HW2 1717   6.832  10.716   4.537
33315SOL     OW 1718   3.935  14.005   1.380
33315SOL    HW1 1719   3.841  14.017   1.370
33315SOL    HW2 1720   3.949  13.911   1.368
33316SOL     OW 1721   1.821   0.811   8.979
33316SOL    HW1 1722   1.793   0.726   8.945
33316SOL    HW2 1723   1.908   0.825   8.941
33317SOL     OW 1724   3.627   9.810  10.476
33317SOL    HW1 1725   3.596   9.731  10.521
33317SOL    HW2 1726   3.710   9.830  10.519
33318SOL     OW 1727   4.183  14.752  11.366
33318SOL    HW1 1728   4.143  14.761  11.452
33318SOL    HW2 1729   4.128  14.689  11.320
33319SOL     OW 1730  10.067  12.223   5.707
33319SOL    HW1 1731   9.975  12.204   5.688
33319SOL    HW2 1732  10.113  12.143   5.683
33320SOL     OW 1733   8.023  13.805   1.516
33320SOL    HW1 1734   8.009  13.716   1.484
33320SOL    HW2 1735   7.935  13.842   1.521
33321SOL     OW 1736   7.079   6.589   3.006
33321SOL    HW1 1737   7.088   6.660   3.070
33321SOL    HW2 1738   7.054   6.634   2.925
33322SOL     OW 1739   1.543  13.205   5.835
33322SOL    HW1 1740   1.562  13.114   5.858
33322SOL    HW2 1741   1.592  13.220   5.754
33323SOL     OW 1742   5.066  11.816   6.663
33323SOL    HW1 1743   5.024  11.834   6.747
33323SOL    HW2 1744   5.160  11.818   6.682
33324SOL     OW 1745   2.454   2.682   5.815
33324SOL    HW1 1746   2.469   2.588   5.830
33324SOL    HW2 1747   2.365   2.686   5.780
33325SOL     OW 1748  10.939   9.363   8.363
33325SOL    HW1 1749  10.975   9.381   8.277
33325SOL    HW2 1750  10.989   9.419   8.423
33326SOL     OW 1751   1.948   2.618   7.720
33326SOL    HW1 1752   1.995   2.535   7.713
33326SOL    HW2 1753   1.999   2.679   7.669
33327SOL     OW 1754  11.178   0.264   8.528
33327SOL    HW1 1755  11.090   0.231   8.508
33327SOL    HW2 1756  11.236   0.190   8.512
33328SOL     OW 1757   7.378   7.298   8.005
33328SOL    HW1 1758   7.443   7.353   7.962
33328SOL    HW2 1759   7.318   7.272   7.934
33329SOL     OW 1760   5.851   3.965   2.967
33329SOL    HW1 1761   5.764   3.989   2.999
33329SOL    HW2 1762   5.835   3.894   2.904
33330SOL     OW 1763   3.812  13.054   4.219
33330SOL    HW1 1764   3.892  13.033   4.268
33330SOL    HW2 1765   3.754  12.980   4.236
33331SOL     OW 1766   0.706   3.629  10.257
33331SOL    HW1 1767   0.707   3.557  10.319
33331SOL    HW2 1768   0.708   3.587  10.171
33332SOL     OW 1769   1.726   5.700   8.889
33332SOL    HW1 1770   1.650   5.758   8.894
33332SOL    HW2 1771   1.752   5.686   8.980
33333SOL     OW 1772  14.657  13.856   1.707
33333SOL    HW1 1773  14.729  13.892   1.655
33333SOL    HW2 1774  14.593  13.827   1.642
33334SOL     OW 1775   0.350   1.363   4.244
33334SOL    HW1 1776   0.281   1.332   4.303
33334SOL    HW2 1777   0.306   1.426   4.187
33335SOL     OW 1778  11.277  10.823  10.850
33335SOL    HW1 1779  11.235  10.895  10.897
33335SOL    HW2 1780  11.273  10.749  10.910
33336SOL     OW 1781   5.636   9.106   4.051
33336SOL    HW1 1782   5.549   9.077   4.024
33336SOL    HW2 1783   5.676   9.029   4.092
33337SOL     OW 1784  10.626   6.449   3.229
33337SOL    HW1 1785  10.672   6.457   3.313
33337SOL    HW2 1786  10.548   6.397   3.250
33338SOL     OW 1787   6.337  10.407   6.568
33338SOL    HW1 1788   6.367  10.341   6.506
33338SOL    HW2 1789   6.278  10.463   6.518
33339SOL     OW 1790   6.814   2.174   0.342
33339SOL    HW1 1791   6.814   2.189   0.247
33339SOL    HW2 1792   6.905   2.193   0.368
33340SOL     OW 1793   3.081   2.872  12.818
33340SOL    HW1 1794   3.078   2.840  12.909
33340SOL    HW2 1795   3.173   2.896  12.804
33341SOL     OW 1796  11.361  10.013   2.185
33341SOL    HW1 1797  11.455  10.007   2.200
33341SOL    HW2 1798  11.323   9.943   2.238
33342SOL     OW 1799   0.503   4.831  12.122
33342SOL    HW1 1800   0.494   4.775  12.199
33342SOL    HW2 1801   0.580   4.885  12.141
33343SOL     OW 1802   3.339  13.504   2.671
33343SOL    HW1 1803   3.289  13.443   2.725
33343SOL    HW2 1804   3.430  13.484   2.691
33344SOL     OW 1805  13.922   9.023   0.796
33344SOL    HW1 1806  13.871   8.942   0.800
33344SOL    HW2 1807  13.927   9.053   0.886
33345SOL     OW 1808   3.945   8.457  13.436
33345SOL    HW1 1809   4.039   8.460  13.422
33345SOL    HW2 1810   3.933   8.399  13.511
33346SOL     OW 1811   5.261   4.004  12.629
33346SOL    HW1 1812   5.182   4.026  12.678
33346SOL    HW2 1813   5.233   4.003  12.537
33347SOL     OW 1814   3.410  11.288  14.528
33347SOL    HW1 1815   3.480  11.354  14.523
33347SOL    HW2 1816   3.415  11.256  14.619
33348SOL     OW 1817  10.555   6.938  10.648
33348SOL    HW1 1818  10.610   6.862  10.628
33348SOL    HW2 1819  10.570   6.997  10.574
33349SOL     OW 1820   0.714   1.109   2.851
33349SOL    HW1 1821   0.767   1.080   2.925
33349SOL    HW2 1822   0.665   1.185   2.885
33350SOL     OW 1823   3.513   8.448  14.520
33350SOL    HW1 1824   3.552   8.398  14.448
33350SOL    HW2 1825   3.576   8.439  14.592
33351SOL     OW 1826   5.698   7.626   8.858
33351SOL    HW1 1827   5.605   7.640   8.875
33351SOL    HW2 1828   5.736   7.610   8.945
33352SOL     OW 1829   5.997   4.529   2.263
33352SOL    HW1 1830   5.935   4.525   2.336
33352SOL    HW2 1831   6.083   4.538   2.305
33353SOL     OW 1832   5.970  12.096  11.310
33353SOL    HW1 1833   5.880  12.101  11.279
33353SOL    HW2 1834   5.970  12.023  11.372
33354SOL     OW 1835  10.424   8.982  13.440
33354SOL    HW1 1836  10.374   8.954  13.363
33354SOL    HW2 1837  10.427   8.904  13.496
33355SOL     OW 1838   5.474  10.881  10.441
33355SOL    HW1 1839   5.561  10.921  10.432
33355SOL    HW2 1840   5.455  10.885  10.534
33356SOL     OW 1841   1.795  11.028   4.257
33356SOL    HW1 1842   1.712  10.981   4.257
33356SOL    HW2 1843   1.854  10.973   4.206
33357SOL     OW 1844   6.921  12.401   6.965
33357SOL    HW1 1845   6.878  12.324   6.929
33357SOL    HW2 1846   6.911  12.468   6.896
33358SOL     OW 1847   8.164   7.260  13.646
33358SOL    HW1 1848   8.157   7.165  13.646
33358SOL    HW2 1849   8.193   7.282  13.557
33359SOL     OW 1850  13.101  13.362   8.480
33359SOL    HW1 1851  13.147  13.292   8.526
33359SOL    HW2 1852  13.092  13.329   8.390
33360SOL     OW 1853   1.640  12.611  11.095
33360SOL    HW1 1854   1.593  12.693  11.107
33360SOL    HW2 1855   1.709  12.613  11.162
33361SOL     OW 1856   6.754  12.024  10.943
33361SOL    HW1 1857   6.665  11.989  10.932
33361SOL    HW2 1858   6.790  11.974  11.017
33362SOL     OW 1859   0.831   5.619   5.749
33362SOL    HW1 1860   0.920   5.651   5.761
33362SOL    HW2 1861   0.775   5.696   5.761
33363SOL     OW 1862  13.663   8.407   0.142
33363SOL    HW1 1863  13.652   8.353   0.220
33363SOL    HW2 1864  13.629   8.493   0.168
33364SOL     OW 1865   9.341   5.700   8.218
33364SOL    HW1 1866   9.251   5.667   8.219
33364SOL    HW2 1867   9.358   5.728   8.308
33365SOL     OW 1868  11.409  13.148   7.645
33365SOL    HW1 1869  11.495  13.124   7.679
33365SOL    HW2 1870  11.423  13.160   7.551
33366SOL     OW 1871   7.279   8.532   3.618
33366SOL    HW1 1872   7.314   8.474   3.685
33366SOL    HW2 1873   7.194   8.560   3.652
33367SOL     OW 1874   5.233   3.005   6.951
33367SOL    HW1 1875   5.187   3.021   7.034
33367SOL    HW2 1876   5.318   2.971   6.977
33368SOL     OW 1877   5.254   9.114  10.142
33368SOL    HW1 1878   5.262   9.209  10.131
33368SOL    HW2 1879   5.222   9.103  10.232
33369SOL     OW 1880   0.861   6.482   0.609
33369SOL    HW1 1881   0.917   6.542   0.659
33369SOL    HW2 1882   0.777   6.483   0.655
33370SOL     OW 1883   3.482  14.183   1.927
33370SOL    HW1 1884   3.493  14.151   2.017
33370SOL    HW2 1885   3.448  14.108   1.879
33371SOL     OW 1886   5.734   0.749   5.552
33371SOL    HW1 1887   5.715   0.668   5.504
33371SOL    HW2 1888   5.768   0.719   5.636
33372SOL     OW 1889   2.787  14.307   6.932
33372SOL    HW1 1890   2.815  14.375   6.992
33372SOL    HW2 1891   2.862  14.292   6.875
33373SOL     OW 1892   6.663   4.484   0.001
33373SOL    HW1 1893   6.669   4.499  14.788
33373SOL    HW2 1894   6.569   4.488   0.020
33374SOL     OW 1895   2.244  10.385   9.095
33374SOL    HW1 1896   2.323  10.438   9.085
33374SOL    HW2 1897   2.277  10.296   9.110
33375SOL     OW 1898   2.681  10.864   7.489
33375SOL    HW1 1899   2.647  10.827   7.407
33375SOL    HW2 1900   2.711  10.788   7.539
33376SOL     OW 1901   8.863   7.144   8.189
33376SOL    HW1 1902   8.910   7.133   8.272
33376SOL    HW2 1903   8.772   7.126   8.211
33377SOL     OW 1904   6.220   4.974   5.109
33377SOL    HW1 1905   6.146   5.032   5.091
33377SOL    HW2 1906   6.286   4.998   5.043
33378SOL     OW 1907  14.798  13.343  10.420
33378SOL    HW1 1908  14.842  13.385  10.346
33378SOL    HW2 1909  14.826  13.393  10.496
33379SOL     OW 1910   3.530   8.766   9.449
33379SOL    HW1 1911   3.448   8.808   9.477
33379SOL    HW2 1912   3.575   8.834   9.398
33380SOL     OW 1913  12.696  10.748   3.010
33380SOL    HW1 1914  12.754  10.673   2.996
33380SOL    HW2 1915  12.755  10.822   3.023
33381SOL     OW 1916  11.705   3.077  14.429
33381SOL    HW1 1917  11.768   3.139  14.466
33381SOL    HW2 1918  11.752   3.037  14.356
33382SOL     OW 1919   4.501   2.002   2.927
33382SOL    HW1 1920   4.472   2.070   2.866
33382SOL    HW2 1921   4.433   1.936   2.924
33383SOL     OW 1922   6.294  14.765  10.797
33383SOL    HW1 1923   6.345  14.845  10.808
33383SOL    HW2 1924   6.297  14.747  10.703
33384SOL     OW 1925  13.817   2.691   2.355
33384SOL    HW1 1926  13.763   2.723   2.282
33384SOL    HW2 1927  13.769   2.717   2.433
33385SOL     OW 1928   6.663  13.795   7.006
33385SOL    HW1 1929   6.661  13.882   7.047
33385SOL    HW2 1930   6.740  13.797   6.949
33386SOL     OW 1931   3.229   3.083   1.137
33386SOL    HW1 1932   3.175   3.114   1.064
33386SOL    HW2 1933   3.302   3.038   1.095
33387SOL     OW 1934   1.287   9.228   4.683
33387SOL    HW1 1935   1.215   9.281   4.649
33387SOL    HW2 1936   1.346   9.217   4.608
33388SOL     OW 1937   7.218   5.284   5.991
33388SOL    HW1 1938   7.133   5.305   5.953
33388SOL    HW2 1939   7.219   5.188   5.996
33389SOL     OW 1940   6.568   7.755   0.019
33389SOL    HW1 1941   6.579   7.664  14.873
33389SOL    HW2 1942   6.647   7.799  14.870
33390SOL     OW 1943   0.401  14.057   8.427
33390SOL    HW1 1944   0.404  14.115   8.503
33390SOL    HW2 1945   0.329  14.090   8.373
33391SOL     OW 1946  13.246   8.657   0.810
33391SOL    HW1 1947  13.194   8.655   0.890
33391SOL    HW2 1948  13.302   8.733   0.820
33392SOL     OW 1949   0.311   7.149  14.438
33392SOL    HW1 1950   0.371   7.084  14.477
33392SOL    HW2 1951   0.326   7.143  14.344
33393SOL     OW 1952   2.640   8.992   0.092
33393SOL    HW1 1953   2.712   9.051   0.070
33393SOL    HW2 1954   2.653   8.972   0.185
33394SOL     OW 1955   3.787   5.676   9.460
33394SOL    HW1 1956   3.761   5.730   9.386
33394SOL    HW2 1957   3.861   5.625   9.428
33395SOL     OW 1958   5.598   9.835   7.133
33395SOL    HW1 1959   5.547   9.812   7.056
33395SOL    HW2 1960   5.687   9.805   7.112
33396SOL     OW 1961  13.583   5.404   4.381
33396SOL    HW1 1962  13.630   5.334   4.337
33396SOL    HW2 1963  13.602   5.482   4.328
33397SOL     OW 1964   8.891   3.687  11.736
33397SOL    HW1 1965   8.863   3.635  11.661
33397SOL    HW2 1966   8.983   3.663  11.748
33398SOL     OW 1967  11.339  13.818  12.751
33398SOL    HW1 1968  11.283  13.888  12.719
33398SOL    HW2 1969  11.284  13.769  12.812
33399SOL     OW 1970  11.488  11.709   6.690
33399SOL    HW1 1971  11.393  11.713   6.694
33399SOL    HW2 1972  11.514  11.685   6.780
33400SOL     OW 1973  11.057   9.838   7.107
33400SOL    HW1 1974  10.968   9.854   7.139
33400SOL    HW2 1975  11.054   9.862   7.014
33401SOL     OW 1976   5.063   5.957   9.846
33401SOL    HW1 1977   5.141   5.937   9.794
33401SOL    HW2 1978   5.094   6.015   9.915
33402SOL     OW 1979   0.595   2.402   9.998
33402SOL    HW1 1980   0.679   2.429  10.036
33402SOL    HW2 1981   0.618   2.337   9.932
33403SOL     OW 1982   7.845   6.783   7.270
33403SOL    HW1 1983   7.753   6.760   7.289
33403SOL    HW2 1984   7.870   6.842   7.340
33404SOL     OW 1985  11.394  14.677  13.425
33404SOL    HW1 1986  11.427  14.761  13.392
33404SOL    HW2 1987  11.355  14.635  13.349
33405SOL     OW 1988   0.143  14.103   1.477
33405SOL    HW1 1989   0.048  14.092   1.484
33405SOL    HW2 1990   0.175  14.019   1.445
33406SOL     OW 1991  11.286  10.124  10.207
33406SOL    HW1 1992  11.320  10.123  10.297
33406SOL    HW2 1993  11.196  10.155  10.215
33407SOL     OW 1994   4.590  14.534   5.189
33407SOL    HW1 1995   4.562  14.545   5.098
33407SOL    HW2 1996   4.558  14.447   5.213
33408SOL     OW 1997  13.970   0.442   2.209
33408SOL    HW1 1998  13.966   0.513   2.274
33408SOL    HW2 1999  13.956   0.485   2.125
33409SOL     OW 2000   7.368   2.002   2.758
33409SOL    HW1 2001   7.295   1.964   2.709
33409SOL    HW2 2002   7.435   2.019   2.691
33410SOL     OW 2003   1.925   3.384   5.634
33410SOL    HW1 2004   1.867   3.413   5.564
33410SOL    HW2 2005   1.912   3.448   5.704
33411SOL     OW 2006   1.888   5.522   0.865
33411SOL    HW1 2007   1.907   5.588   0.931
33411SOL    HW2 2008   1.905   5.439   0.909
33412SOL     OW 2009  10.140   0.296   4.027
33412SOL    HW1 2010  10.194   0.227   3.987
33412SOL    HW2 2011  10.076   0.317   3.959
33413SOL     OW 2012   6.537  10.594   4.451
33413SOL    HW1 2013   6.539  10.632   4.538
33413SOL    HW2 2014   6.553  10.500   4.465
33414SOL     OW 2015   7.105   1.489   6.994
33414SOL    HW1 2016   7.115   1.511   6.901
33414SOL    HW2 2017   7.140   1.400   7.000
33415SOL     OW 2018  14.533   9.870   2.803
33415SOL    HW1 2019  14.590   9.810   2.755
33415SOL    HW2 2020  14.456   9.881   2.746
33416SOL     OW 2021  14.436   3.986  12.340
33416SOL    HW1 2022  14.444   3.945  12.254
33416SOL    HW2 2023  14.526   3.988  12.374
33417SOL     OW 2024  13.968   7.652  13.245
33417SOL    HW1 2025  13.972   7.559  13.267
33417SOL    HW2 2026  14.057   7.675  13.221
33418SOL     OW 2027  14.351   9.500   2.956
33418SOL    HW1 2028  14.264   9.515   2.919
33418SOL    HW2 2029  14.410   9.500   2.881
33419SOL     OW 2030  12.046   7.448   6.971
33419SOL    HW1 2031  12.128   7.496   6.962
33419SOL    HW2 2032  12.045   7.389   6.895
33420SOL     OW 2033   4.644  11.345   8.002
33420SOL    HW1 2034   4.688  11.266   8.032
33420SOL    HW2 2035   4.554  11.316   7.983
33421SOL     OW 2036   9.234   4.426  14.487
33421SOL    HW1 2037   9.149   4.444  14.449
33421SOL    HW2 2038   9.235   4.476  14.569
33422SOL     OW 2039   5.354   9.512   6.530
33422SOL    HW1 2040   5.318   9.563   6.603
33422SOL    HW2 2041   5.383   9.577   6.467
33423SOL     OW 2042  11.656   3.996   7.964
33423SOL    HW1 2043  11.651   3.908   8.000
33423SOL    HW2 2044  11.682   4.051   8.038
33424SOL     OW 2045   0.147   4.111   0.267
33424SOL    HW1 2046   0.155   4.175   0.338
33424SOL    HW2 2047   0.142   4.026   0.312
33425SOL     OW 2048  10.785  11.526   3.804
33425SOL    HW1 2049  10.863  11.524   3.859
33425SOL    HW2 2050  10.766  11.434   3.786
33426SOL     OW 2051   9.124   7.721   9.075
33426SOL    HW1 2052   9.157   7.633   9.093
33426SOL    HW2 2053   9.123   7.764   9.161
33427SOL     OW 2054   3.994  10.487  12.627
33427SOL    HW1 2055   3.939  10.552  12.672
33427SOL    HW2 2056   4.026  10.533  12.549
33428SOL     OW 2057  11.392   7.485   4.618
33428SOL    HW1 2058  11.380   7.398   4.656
33428SOL    HW2 2059  11.305   7.525   4.620
33429SOL     OW 2060   0.240  12.182  12.601
33429SOL    HW1 2061   0.306  12.113  12.599
33429SOL    HW2 2062   0.247  12.221  12.688
33430SOL     OW 2063   0.533  13.293   7.555
33430SOL    HW1 2064   0.574  13.377   7.577
33430SOL    HW2 2065   0.441  13.304   7.582
33431SOL     OW 2066   0.670  13.630   6.987
33431SOL    HW1 2067   0.604  13.638   7.055
33431SOL    HW2 2068   0.621  13.599   6.910
33432SOL     OW 2069   5.936   0.925   6.327
33432SOL    HW1 2070   5.922   0.832   6.308
33432SOL    HW2 2071   5.907   0.969   6.247
33433SOL     OW 2072   1.927  13.009   4.046
33433SOL    HW1 2073   1.843  12.968   4.065
33433SOL    HW2 2074   1.941  13.070   4.118
33434SOL     OW 2075   8.110  11.648  13.503
33434SOL    HW1 2076   8.189  11.595  13.498
33434SOL    HW2 2077   8.039  11.588  13.481
33435SOL     OW 2078  10.116   4.280   1.566
33435SOL    HW1 2079  10.031   4.236   1.564
33435SOL    HW2 2080  10.095   4.371   1.586
33436SOL     OW 2081   7.617   0.752   5.331
33436SOL    HW1 2082   7.628   0.674   5.385
33436SOL    HW2 2083   7.616   0.719   5.241
33437SOL     OW 2084   2.162  11.725   0.242
33437SOL    HW1 2085   2.183  11.683   0.158
33437SOL    HW2 2086   2.149  11.652   0.303
33438SOL     OW 2087  10.343  12.059   5.433
33438SOL    HW1 2088  10.439  12.061   5.428
33438SOL    HW2 2089  10.313  12.100   5.352
33439SOL     OW 2090   9.594   9.309  11.228
33439SOL    HW1 2091   9.501   9.299  11.251
33439SOL    HW2 2092   9.617   9.227  11.185
33440SOL     OW 2093   2.867   3.159  14.598
33440SOL    HW1 2094   2.807   3.181  14.669
33440SOL    HW2 2095   2.890   3.067  14.614
33441SOL     OW 2096  11.403   1.814   6.946
33441SOL    HW1 2097  11.407   1.785   7.037
33441SOL    HW2 2098  11.470   1.762   6.901
33442SOL     OW 2099   7.830   3.056   0.834
33442SOL    HW1 2100   7.815   3.044   0.740
33442SOL    HW2 2101   7.743   3.069   0.871
33443SOL     OW 2102   0.795   2.490  10.347
33443SOL    HW1 2103   0.794   2.471  10.253
33443SOL    HW2 2104   0.784   2.404  10.389
33444SOL     OW 2105  12.826   7.869   4.621
33444SOL    HW1 2106  12.818   7.779   4.653
33444SOL    HW2 2107  12.736   7.899   4.610
33445SOL     OW 2108  12.283  11.602   8.714
33445SOL    HW1 2109  12.206  11.658   8.722
33445SOL    HW2 2110  12.282  11.547   8.793
33446SOL     OW 2111   5.071   6.400  13.708
33446SOL    HW1 2112   5.096   6.488  13.735
33446SOL    HW2 2113   5.016   6.413  13.631
33447SOL     OW 2114  13.065  10.818  11.609
33447SOL    HW1 2115  13.125  10.887  11.637
33447SOL    HW2 2116  13.089  10.742  11.661
33448SOL     OW 2117   9.315  13.083  14.748
33448SOL    HW1 2118   9.366  13.144  14.801
33448SOL    HW2 2119   9.369  13.068  14.670
33449SOL     OW 2120   7.952   6.653   8.248
33449SOL    HW1 2121   8.047   6.649   8.257
33449SOL    HW2 2122   7.937   6.694   8.163
33450SOL     OW 2123   7.354  14.105  13.981
33450SOL    HW1 2124   7.437  14.151  13.981
33450SOL    HW2 2125   7.304  14.144  13.910
33451SOL     OW 2126   7.667   5.949   0.745
33451SOL    HW1 2127   7.632   5.899   0.819
33451SOL    HW2 2128   7.589   5.984   0.701
33452SOL     OW 2129   8.484  14.147   2.717
33452SOL    HW1 2130   8.549  14.141   2.648
33452SOL    HW2 2131   8.403  14.116   2.676
33453SOL     OW 2132   3.540   9.632   5.152
33453SOL    HW1 2133   3.527   9.637   5.058
33453SOL    HW2 2134   3.463   9.585   5.184
33454SOL     OW 2135   9.947   8.443   8.678
33454SOL    HW1 2136   9.998   8.426   8.599
33454SOL    HW2 2137   9.906   8.528   8.662
33455SOL     OW 2138  14.747  14.275  13.073
33455SOL    HW1 2139  14.834  14.251  13.041
33455SOL    HW2 2140  14.727  14.358  13.030
33456SOL     OW 2141   4.810   4.313   5.237
33456SOL    HW1 2142   4.846   4.398   5.214
33456SOL    HW2 2143   4.832   4.301   5.329
33457SOL     OW 2144  13.253   6.263   9.417
33457SOL    HW1 2145  13.210   6.201   9.476
33457SOL    HW2 2146  13.268   6.341   9.471
33458SOL     OW 2147   1.918  12.705   4.996
33458SOL    HW1 2148   1.866  12.627   4.975
33458SOL    HW2 2149   1.856  12.778   4.985
33459SOL     OW 2150   2.362  11.578   2.871
33459SOL    HW1 2151   2.320  11.613   2.793
33459SOL    HW2 2152   2.420  11.647   2.901
33460SOL     OW 2153  11.576  11.427   3.768
33460SOL    HW1 2154  11.532  11.346   3.795
33460SOL    HW2 2155  11.595  11.414   3.676
33461SOL     OW 2156  10.645   6.894   0.632
33461SOL    HW1 2157  10.704   6.930   0.699
33461SOL    HW2 2158  10.570   6.952   0.633
33462SOL     OW 2159   0.780  12.474   3.951
33462SOL    HW1 2160   0.691  12.507   3.936
33462SOL    HW2 2161   0.831  12.507   3.877
33463SOL     OW 2162   4.107   6.995   9.973
33463SOL    HW1 2163   4.128   6.903   9.985
33463SOL    HW2 2164   4.166   7.025   9.905
33464SOL     OW 2165   4.863  14.520   5.267
33464SOL    HW1 2166   4.767  14.517   5.263
33464SOL    HW2 2167   4.881  14.558   5.353
33465SOL     OW 2168   2.389   7.568   1.381
33465SOL    HW1 2169   2.334   7.646   1.390
33465SOL    HW2 2170   2.436   7.562   1.464
33466SOL     OW 2171   8.387   7.549  12.651
33466SOL    HW1 2172   8.293   7.529  12.653
33466SOL    HW2 2173   8.426   7.488  12.714
33467SOL     OW 2174  13.083   3.071   2.912
33467SOL    HW1 2175  13.106   3.150   2.863
33467SOL    HW2 2176  13.072   3.102   3.002
33468SOL     OW 2177   2.893  12.198   4.605
33468SOL    HW1 2178   2.925  12.289   4.602
33468SOL    HW2 2179   2.944  12.157   4.675
33469SOL     OW 2180   0.459   3.007   9.262
33469SOL    HW1 2181   0.444   2.985   9.170
33469SOL    HW2 2182   0.394   3.075   9.281
33470SOL     OW 2183  12.168   7.536  14.831
33470SOL    HW1 2184  12.098   7.492  14.783
33470SOL    HW2 2185  12.133   7.549   0.037
33471SOL     OW 2186   5.066   1.490   1.413
33471SOL    HW1 2187   5.078   1.519   1.323
33471SOL    HW2 2188   4.991   1.431   1.409
33472SOL     OW 2189   4.219   5.062   5.414
33472SOL    HW1 2190   4.140   5.020   5.447
33472SOL    HW2 2191   4.192   5.100   5.330
33473SOL     OW 2192   0.115   9.203  11.430
33473SOL    HW1 2193   0.172   9.180  11.503
33473SOL    HW2 2194   0.156   9.162  11.354
33474SOL     OW 2195  10.208   8.163   2.115
33474SOL    HW1 2196  10.198   8.072   2.088
33474SOL    HW2 2197  10.218   8.160   2.210
33475SOL     OW 2198   1.170   5.242   4.461
33475SOL    HW1 2199   1.211   5.177   4.517
33475SOL    HW2 2200   1.099   5.196   4.417
33476SOL     OW 2201   8.823  10.999   2.397
33476SOL    HW1 2202   8.778  11.077   2.430
33476SOL    HW2 2203   8.911  11.005   2.435
33477SOL     OW 2204   1.430  11.907  10.520
33477SOL    HW1 2205   1.336  11.912  10.502
33477SOL    HW2 2206   1.437  11.852  10.598
33478SOL     OW 2207  12.275  11.759   9.137
33478SOL    HW1 2208  12.224  11.833   9.103
33478SOL    HW2 2209  12.365  11.790   9.136
33479SOL     OW 2210   5.670  10.724   6.022
33479SOL    HW1 2211   5.606  10.711   5.951
33479SOL    HW2 2212   5.736  10.781   5.984
33480SOL     OW 2213   3.986  11.318  13.620
33480SOL    HW1 2214   3.892  11.333  13.628
33480SOL    HW2 2215   3.995  11.271  13.536
33481SOL     OW 2216   2.229   6.284  11.592
33481SOL    HW1 2217   2.142   6.259  11.561
33481SOL    HW2 2218   2.280   6.203  11.589
33482SOL     OW 2219   7.722   8.093  10.294
33482SOL    HW1 2220   7.790   8.158  10.315
33482SOL    HW2 2221   7.697   8.114  10.204
33483SOL     OW 2222   2.565   3.396   9.068
33483SOL    HW1 2223   2.541   3.358   8.983
33483SOL    HW2 2224   2.652   3.433   9.054
33484SOL     OW 2225   5.924   2.061   2.454
33484SOL    HW1 2226   5.999   2.100   2.498
33484SOL    HW2 2227   5.882   2.134   2.409
33485SOL     OW 2228   7.036  13.773  13.258
33485SOL    HW1 2229   7.046  13.731  13.173
33485SOL    HW2 2230   6.944  13.757  13.283
33486SOL     OW 2231   2.670   2.433   9.342
33486SOL    HW1 2232   2.671   2.346   9.302
33486SOL    HW2 2233   2.753   2.472   9.316
33487SOL     OW 2234  10.155   1.916   7.786
33487SOL    HW1 2235  10.206   1.836   7.773
33487SOL    HW2 2236  10.152   1.927   7.881
33488SOL     OW 2237   1.926   4.064   9.749
33488SOL    HW1 2238   1.907   4.158   9.739
33488SOL    HW2 2239   1.871   4.037   9.822
33489SOL     OW 2240  11.543  12.003   8.006
33489SOL    HW1 2241  11.626  12.045   7.983
33489SOL    HW2 2242  11.496  11.996   7.923
33490SOL     OW 2243   4.117   1.624  14.483
33490SOL    HW1 2244   4.138   1.565  14.410
33490SOL    HW2 2245   4.202   1.657  14.513
33491SOL     OW 2246   7.006  10.367  12.500
33491SOL    HW1 2247   7.089  10.409  12.479
33491SOL    HW2 2248   7.001  10.291  12.441
33492SOL     OW 2249   4.409  10.655   4.670
33492SOL    HW1 2250   4.376  10.712   4.601
33492SOL    HW2 2251   4.501  10.679   4.679
33493SOL     OW 2252   8.786   1.831   1.427
33493SOL    HW1 2253   8.774   1.749   1.379
33493SOL    HW2 2254   8.876   1.857   1.408
33494SOL     OW 2255   5.296   8.287   2.598
33494SOL    HW1 2256   5.389   8.298   2.621
33494SOL    HW2 2257   5.284   8.193   2.590
33495SOL     OW 2258   7.265   5.473   3.816
33495SOL    HW1 2259   7.176   5.440   3.832
33495SOL    HW2 2260   7.313   5.450   3.896
33496SOL     OW 2261  12.556  12.561   9.483
33496SOL    HW1 2262  12.469  12.598   9.495
33496SOL    HW2 2263  12.555  12.525   9.394
33497SOL     OW 2264  11.489  12.104   4.463
33497SOL    HW1 2265  11.413  12.081   4.410
33497SOL    HW2 2266  11.559  12.046   4.432
33498SOL     OW 2267   9.394  12.481   6.951
33498SOL    HW1 2268   9.481  12.444   6.935
33498SOL    HW2 2269   9.389  12.556   6.892
33499SOL     OW 2270  12.493   5.589   7.435
33499SOL    HW1 2271  12.492   5.584   7.531
33499SOL    HW2 2272  12.570   5.538   7.410
33500SOL     OW 2273  13.769   0.798   4.246
33500SOL    HW1 2274  13.859   0.788   4.214
33500SOL    HW2 2275  13.731   0.711   4.238
33501SOL     OW 2276   3.251   9.848   9.949
33501SOL    HW1 2277   3.224   9.913  10.013
33501SOL    HW2 2278   3.221   9.764   9.985
33502SOL     OW 2279  14.725   4.582  14.458
33502SOL    HW1 2280  14.808   4.599  14.414
33502SOL    HW2 2281  14.666   4.650  14.424
33503SOL     OW 2282   6.905   9.712   3.952
33503SOL    HW1 2283   6.941   9.654   4.019
33503SOL    HW2 2284   6.857   9.654   3.893
33504SOL     OW 2285   0.812   6.527  13.126
33504SOL    HW1 2286   0.751   6.525  13.053
33504SOL    HW2 2287   0.898   6.514  13.085
33505SOL     OW 2288   9.941   7.186  13.619
33505SOL    HW1 2289  10.000   7.120  13.655
33505SOL    HW2 2290   9.865   7.137  13.590
33506SOL     OW 2291   9.702  10.091   3.960
33506SOL    HW1 2292   9.756  10.022   3.921
33506SOL    HW2 2293   9.720  10.085   4.054
33507SOL     OW 2294  12.884  10.154  10.857
33507SOL    HW1 2295  12.941  10.193  10.923
33507SOL    HW2 2296  12.801  10.200  10.867
33508SOL     OW 2297   0.315  10.324   4.983
33508SOL    HW1 2298   0.394  10.345   4.934
33508SOL    HW2 2299   0.266  10.265   4.925
33509SOL     OW 2300   9.530  13.366   1.444
33509SOL    HW1 2301   9.576  13.402   1.368
33509SOL    HW2 2302   9.437  13.378   1.423
33510SOL     OW 2303   6.118  13.888   3.920
33510SOL    HW1 2304   6.188  13.929   3.870
33510SOL    HW2 2305   6.096  13.953   3.988
33511SOL     OW 2306   5.165  13.538   5.028
33511SOL    HW1 2307   5.076  13.560   4.998
33511SOL    HW2 2308   5.182  13.600   5.099
33512SOL     OW 2309   1.425   9.557   0.135
33512SOL    HW1 2310   1.475   9.512   0.203
33512SOL    HW2 2311   1.400   9.640   0.175
33513SOL     OW 2312   8.181   0.533   9.288
33513SOL    HW1 2313   8.144   0.621   9.280
33513SOL    HW2 2314   8.233   0.537   9.368
33514SOL     OW 2315  12.906  11.862   6.558
33514SOL    HW1 2316  12.944  11.775   6.545
33514SOL    HW2 2317  12.975  11.912   6.602
33515SOL     OW 2318   0.071   8.769   7.906
33515SOL    HW1 2319   0.127   8.809   7.973
33515SOL    HW2 2320   0.129   8.709   7.859
33516SOL     OW 2321   5.552  11.301  13.077
33516SOL    HW1 2322   5.549  11.322  12.984
33516SOL    HW2 2323   5.491  11.227  13.087
33517SOL     OW 2324   4.688   5.672  14.670
33517SOL    HW1 2325   4.704   5.673  14.576
33517SOL    HW2 2326   4.775   5.669  14.709
33518SOL     OW 2327   5.491  13.858   5.818
33518SOL    HW1 2328   5.498  13.944   5.857
33518SOL    HW2 2329   5.490  13.797   5.892
33519SOL     OW 2330  13.869   6.444   6.817
33519SOL    HW1 2331  13.845   6.526   6.775
33519SOL    HW2 2332  13.806   6.435   6.889
33520SOL     OW 2333   4.692   2.517  10.556
33520SOL    HW1 2334   4.613   2.499  10.607
33520SOL    HW2 2335   4.694   2.613  10.549
33521SOL     OW 2336  14.388   7.245   2.716
33521SOL    HW1 2337  14.395   7.213   2.806
33521SOL    HW2 2338  14.362   7.168   2.665
33522SOL     OW 2339   0.798  13.789  14.383
33522SOL    HW1 2340   0.741  13.731  14.333
33522SOL    HW2 2341   0.771  13.777  14.474
33523SOL     OW 2342   3.968  14.284   1.509
33523SOL    HW1 2343   3.979  14.207   1.454
33523SOL    HW2 2344   4.057  14.313   1.528
33524SOL     OW 2345  10.224  10.771   3.572
33524SOL    HW1 2346  10.137  10.803   3.597
33524SOL    HW2 2347  10.276  10.776   3.652
33525SOL     OW 2348   3.238   2.179  13.417
33525SOL    HW1 2349   3.184   2.256  13.433
33525SOL    HW2 2350   3.314   2.212  13.369
33526SOL     OW 2351   1.162   0.172   5.438
33526SOL    HW1 2352   1.212   0.093   5.460
33526SOL    HW2 2353   1.117   0.150   5.357
33527SOL     OW 2354  14.764   3.813   8.350
33527SOL    HW1 2355  14.673   3.833   8.332
33527SOL    HW2 2356  14.800   3.895   8.385
33528SOL     OW 2357   6.761   4.467  10.002
33528SOL    HW1 2358   6.781   4.516  10.082
33528SOL    HW2 2359   6.669   4.442  10.012
33529SOL     OW 2360   6.368  11.574  10.263
33529SOL    HW1 2361   6.354  11.611  10.350
33529SOL    HW2 2362   6.328  11.638  10.203
33530SOL     OW 2363   3.962   4.924   5.516
33530SOL    HW1 2364   3.873   4.956   5.510
33530SOL    HW2 2365   3.979   4.916   5.610
33531SOL     OW 2366   7.544  10.083   6.949
33531SOL    HW1 2367   7.613  10.119   7.006
33531SOL    HW2 2368   7.533   9.993   6.980
33532SOL     OW 2369  14.565  11.817  13.812
33532SOL    HW1 2370  14.613  11.758  13.870
33532SOL    HW2 2371  14.494  11.852  13.866
33533SOL     OW 2372   5.307  14.460  11.142
33533SOL    HW1 2373   5.368  14.533  11.145
33533SOL    HW2 2374   5.221  14.500  11.156
33534SOL     OW 2375   6.260   4.640  10.117
33534SOL    HW1 2376   6.251   4.714  10.176
33534SOL    HW2 2377   6.173   4.629  10.079
33535SOL     OW 2378  11.481  11.428   7.194
33535SOL    HW1 2379  11.395  11.390   7.212
33535SOL    HW2 2380  11.482  11.441   7.099
33536SOL     OW 2381  10.592  13.110   2.867
33536SOL    HW1 2382  10.567  13.160   2.944
33536SOL    HW2 2383  10.549  13.156   2.794
33537SOL     OW 2384   0.028  13.486  10.211
33537SOL    HW1 2385   0.002  13.473  10.120
33537SOL    HW2 2386   0.123  13.487  10.209
33538SOL     OW 2387  10.045   0.859  10.911
33538SOL    HW1 2388  10.113   0.792  10.920
33538SOL    HW2 2389  10.030   0.890  11.001
33539SOL     OW 2390   3.695   0.991  11.573
33539SOL    HW1 2391   3.639   0.921  11.539
33539SOL    HW2 2392   3.648   1.024  11.650
33540SOL     OW 2393  13.442  13.800   3.725
33540SOL    HW1 2394  13.494  13.833   3.799
33540SOL    HW2 2395  13.353  13.792   3.760
33541SOL     OW 2396   0.918  11.312  10.778
33541SOL    HW1 2397   0.932  11.400  10.742
33541SOL    HW2 2398   1.006  11.283  10.804
33542SOL     OW 2399   2.356   1.544   5.488
33542SOL    HW1 2400   2.420   1.520   5.555
33542SOL    HW2 2401   2.275   1.561   5.536
33543SOL     OW 2402  14.836  12.436   0.597
33543SOL    HW1 2403   0.029  12.465   0.649
33543SOL    HW2 2404  14.790  12.517   0.575
33544SOL     OW 2405  12.242   0.992  12.458
33544SOL    HW1 2406  12.158   0.947  12.462
33544SOL    HW2 2407  12.287   0.967  12.539
33545SOL     OW 2408  12.577   0.378   6.076
33545SOL    HW1 2409  12.590   0.462   6.121
33545SOL    HW2 2410  12.498   0.392   6.023
33546SOL     OW 2411   3.963   1.906   0.730
33546SOL    HW1 2412   3.984   1.878   0.819
33546SOL    HW2 2413   3.871   1.883   0.719
33547SOL     OW 2414   5.843  12.758   9.284
33547SOL    HW1 2415   5.908  12.792   9.222
33547SOL    HW2 2416   5.771  12.726   9.229
33548SOL     OW 2417   1.903  11.332   4.900
33548SOL    HW1 2418   1.979  11.387   4.920
33548SOL    HW2 2419   1.886  11.347   4.807
33549SOL     OW 2420  13.974   9.214   8.124
33549SOL    HW1 2421  14.065   9.211   8.151
33549SOL    HW2 2422  13.936   9.287   8.174
33550SOL     OW 2423   0.609   0.281  14.380
33550SOL    HW1 2424   0.668   0.292  14.306
33550SOL    HW2 2425   0.522   0.276  14.341
33551SOL     OW 2426   3.997   8.729   6.039
33551SOL    HW1 2427   4.075   8.745   5.986
33551SOL    HW2 2428   4.029   8.732   6.130
33552SOL     OW 2429  13.465   2.538  11.744
33552SOL    HW1 2430  13.507   2.591  11.812
33552SOL    HW2 2431  13.419   2.602  11.690
33553SOL     OW 2432   5.418  12.943   8.154
33553SOL    HW1 2433   5.469  12.992   8.089
33553SOL    HW2 2434   5.447  12.852   8.143
33554SOL     OW 2435   1.349   1.682  12.547
33554SOL    HW1 2436   1.333   1.698  12.640
33554SOL    HW2 2437   1.270   1.715  12.503
33555SOL     OW 2438   9.740   7.821   7.508
33555SOL    HW1 2439   9.704   7.817   7.597
33555SOL    HW2 2440   9.802   7.749   7.504
33556SOL     OW 2441  12.866   1.376   6.957
33556SOL    HW1 2442  12.878   1.447   6.892
33556SOL    HW2 2443  12.878   1.419   7.041
33557SOL     OW 2444  10.732   9.077   9.892
33557SOL    HW1 2445  10.687   9.002   9.854
33557SOL    HW2 2446  10.716   9.149   9.831
33558SOL     OW 2447  14.847   8.364   6.420
33558SOL    HW1 2448  14.820   8.321   6.339
33558SOL    HW2 2449  14.804   8.449   6.418
33559SOL     OW 2450   1.394  12.735   4.650
33559SOL    HW1 2451   1.398  12.678   4.573
33559SOL    HW2 2452   1.315  12.707   4.696
33560SOL     OW 2453   4.524   1.599  11.697
33560SOL    HW1 2454   4.541   1.672  11.757
33560SOL    HW2 2455   4.465   1.636  11.631
33561SOL     OW 2456   1.785   9.787   0.845
33561SOL    HW1 2457   1.818   9.872   0.816
33561SOL    HW2 2458   1.727   9.808   0.919
33562SOL     OW 2459   3.567   5.391  14.707
33562SOL    HW1 2460   3.509   5.316  14.690
33562SOL    HW2 2461   3.524   5.465  14.665
33563SOL     OW 2462   8.008  13.475   7.709
33563SOL    HW1 2463   8.089  13.517   7.680
33563SOL    HW2 2464   7.964  13.542   7.762
33564SOL     OW 2465   4.485   2.144  13.046
33564SOL    HW1 2466   4.482   2.074  12.981
33564SOL    HW2 2467   4.422   2.118  13.113
33565SOL     OW 2468   9.116   1.199   7.363
33565SOL    HW1 2469   9.089   1.287   7.389
33565SOL    HW2 2470   9.081   1.188   7.275
33566SOL     OW 2471   8.929   7.985  13.306
33566SOL    HW1 2472   8.966   8.024  13.385
33566SOL    HW2 2473   8.835   7.986  13.320
33567SOL     OW 2474   0.940  10.411   7.481
33567SOL    HW1 2475   0.948  10.316   7.476
33567SOL    HW2 2476   0.940  10.440   7.390
33568SOL     OW 2477   8.204   0.813   3.760
33568SOL    HW1 2478   8.117   0.777   3.746
33568SOL    HW2 2479   8.247   0.809   3.675
33569SOL     OW 2480  11.766   3.881   2.817
33569SOL    HW1 2481  11.779   3.956   2.759
33569SOL    HW2 2482  11.674   3.856   2.804
33570SOL     OW 2483  13.395   9.884   0.571
33570SOL    HW1 2484  13.313   9.842   0.544
33570SOL    HW2 2485  13.386   9.974   0.540
33571SOL     OW 2486   8.155  13.896   6.249
33571SOL    HW1 2487   8.060  13.895   6.237
33571SOL    HW2 2488   8.168  13.908   6.343
33572SOL     OW 2489   8.759   8.784  14.855
33572SOL    HW1 2490   8.699   8.851   0.006
33572SOL    HW2 2491   8.704   8.707  14.842
33573SOL     OW 2492   4.757   8.494  11.554
33573SOL    HW1 2493   4.793   8.527  11.637
33573SOL    HW2 2494   4.663   8.489  11.568
33574SOL     OW 2495   7.338   4.886   4.339
33574SOL    HW1 2496   7.343   4.907   4.432
33574SOL    HW2 2497   7.315   4.793   4.337
33575SOL     OW 2498   0.013   9.135   9.104
33575SOL    HW1 2499   0.048   9.204   9.160
33575SOL    HW2 2500  14.800   9.151   9.103
33576SOL     OW 2501   3.514  14.465   1.246
33576SOL    HW1 2502   3.595  14.441   1.202
33576SOL    HW2 2503   3.522  14.430   1.335
33577SOL     OW 2504   5.235  10.591   4.062
33577SOL    HW1 2505   5.320  10.611   4.024
33577SOL    HW2 2506   5.254  10.568   4.153
33578SOL     OW 2507   8.094  11.919  13.787
33578SOL    HW1 2508   8.065  12.008  13.765
33578SOL    HW2 2509   8.181  11.931  13.825
33579SOL     OW 2510   5.214  13.410  12.149
33579SOL    HW1 2511   5.205  13.315  12.135
33579SOL    HW2 2512   5.246  13.417  12.239
33580SOL     OW 2513   9.949  12.154   3.689
33580SOL    HW1 2514   9.967  12.240   3.728
33580SOL    HW2 2515   9.853  12.146   3.691
33581SOL     OW 2516   8.617  11.723  12.658
33581SOL    HW1 2517   8.661  11.806  12.679
33581SOL    HW2 2518   8.538  11.723  12.712
33582SOL     OW 2519   3.858   5.685   1.130
33582SOL    HW1 2520   3.897   5.772   1.127
33582SOL    HW2 2521   3.796   5.683   1.057
33583SOL     OW 2522   9.526   5.922   1.668
33583SOL    HW1 2523   9.595   5.987   1.658
33583SOL    HW2 2524   9.462   5.944   1.599
33584SOL     OW 2525   7.072   8.130   7.520
33584SOL    HW1 2526   7.055   8.169   7.606
33584SOL    HW2 2527   7.139   8.064   7.536
33585SOL     OW 2528   2.536   8.409   7.897
33585SOL    HW1 2529   2.459   8.388   7.845
33585SOL    HW2 2530   2.503   8.466   7.966
33586SOL     OW 2531  11.576   0.938   3.466
33586SOL    HW1 2532  11.557   1.027   3.437
33586SOL    HW2 2533  11.581   0.944   3.561
33587SOL     OW 2534   3.203  12.823   0.529
33587SOL    HW1 2535   3.247  12.817   0.614
33587SOL    HW2 2536   3.120  12.777   0.542
33588SOL     OW 2537   9.788  13.922   7.732
33588SOL    HW1 2538   9.844  13.914   7.810
33588SOL    HW2 2539   9.750  14.009   7.740
33589SOL     OW 2540   5.439   0.931  13.716
33589SOL    HW1 2541   5.415   1.017  13.750
33589SOL    HW2 2542   5.411   0.870  13.784
33590SOL     OW 2543   3.282  11.562  13.030
33590SOL    HW1 2544   3.249  11.478  12.997
33590SOL    HW2 2545   3.252  11.566  13.120
33591SOL     OW 2546   5.747   5.586   1.312
33591SOL    HW1 2547   5.789   5.515   1.264
33591SOL    HW2 2548   5.817   5.626   1.363
33592SOL     OW 2549  10.605   4.048  12.032
33592SOL    HW1 2550  10.680   4.015  11.982
33592SOL    HW2 2551  10.543   4.076  11.965
33593SOL     OW 2552   6.400  10.411   3.639
33593SOL    HW1 2553   6.372  10.348   3.573
33593SOL    HW2 2554   6.466  10.364   3.690
33594SOL     OW 2555  14.740   6.880   4.826
33594SOL    HW1 2556  14.834   6.860   4.820
33594SOL    HW2 2557  14.705   6.815   4.886
33595SOL     OW 2558  11.007   3.925   1.678
33595SOL    HW1 2559  11.008   3.988   1.606
33595SOL    HW2 2560  10.915   3.898   1.684
33596SOL     OW 2561   0.123  12.840   0.148
33596SOL    HW1 2562   0.038  12.805   0.119
33596SOL    HW2 2563   0.156  12.887   0.071
33597SOL     OW 2564   2.611   9.088   8.432
33597SOL    HW1 2565   2.605   9.125   8.343
33597SOL    HW2 2566   2.624   9.164   8.488
33598SOL     OW 2567   3.283   3.329  14.418
33598SOL    HW1 2568   3.362   3.378  14.391
33598SOL    HW2 2569   3.305   3.294  14.504
33599SOL     OW 2570   3.935   6.768   4.284
33599SOL    HW1 2571   3.996   6.745   4.354
33599SOL    HW2 2572   3.850   6.776   4.327
33600SOL     OW 2573  11.394   9.075   6.916
33600SOL    HW1 2574  11.404   8.983   6.894
33600SOL    HW2 2575  11.314   9.103   6.872
33601SOL     OW 2576   2.811  14.811   3.740
33601SOL    HW1 2577   2.882  14.874   3.759
33601SOL    HW2 2578   2.822  14.791   3.647
33602SOL     OW 2579   4.176   2.352  14.471
33602SOL    HW1 2580   4.189   2.260  14.492
33602SOL    HW2 2581   4.209   2.362  14.382
33603SOL     OW 2582   6.048   6.853   7.489
33603SOL    HW1 2583   6.061   6.924   7.552
33603SOL    HW2 2584   6.068   6.892   7.404
33604SOL     OW 2585   5.410  11.583   9.108
33604SOL    HW1 2586   5.384  11.545   9.024
33604SOL    HW2 2587   5.396  11.677   9.097
33605SOL     OW 2588   9.803  11.031  13.893
33605SOL    HW1 2589   9.840  10.954  13.850
33605SOL    HW2 2590   9.733  10.996  13.948
33606SOL     OW 2591   3.773   7.174   2.858
33606SOL    HW1 2592   3.790   7.128   2.941
33606SOL    HW2 2593   3.686   7.144   2.832
33607SOL     OW 2594  12.739  14.833   3.075
33607SOL    HW1 2595  12.648  14.811   3.055
33607SOL    HW2 2596  12.763   0.018   3.010
33608SOL     OW 2597  12.725   6.050   7.223
33608SOL    HW1 2598  12.758   5.977   7.275
33608SOL    HW2 2599  12.675   6.008   7.153
33609SOL     OW 2600   0.404   9.380  13.221
33609SOL    HW1 2601   0.364   9.436  13.287
33609SOL    HW2 2602   0.487   9.352  13.259
33610SOL     OW 2603   3.466   7.793  12.491
33610SOL    HW1 2604   3.468   7.705  12.452
33610SOL    HW2 2605   3.495   7.779  12.581
33611SOL     OW 2606   2.939   7.090   0.088
33611SOL    HW1 2607   2.899   7.105   0.003
33611SOL    HW2 2608   2.867   7.061   0.144
33612SOL     OW 2609   2.318  13.000  12.984
33612SOL    HW1 2610   2.344  12.926  12.929
33612SOL    HW2 2611   2.289  13.067  12.921
33613SOL     OW 2612   1.832   6.266  10.495
33613SOL    HW1 2613   1.835   6.283  10.589
33613SOL    HW2 2614   1.770   6.331  10.461
33614SOL     OW 2615   4.477  13.580  11.358
33614SOL    HW1 2616   4.491  13.579  11.264
33614SOL    HW2 2617   4.420  13.655  11.373
33615SOL     OW 2618   6.369  13.696   3.998
33615SOL    HW1 2619   6.402  13.786   3.999
33615SOL    HW2 2620   6.292  13.699   3.942
33616SOL     OW 2621   3.919  10.839   1.222
33616SOL    HW1 2622   3.898  10.750   1.252
33616SOL    HW2 2623   3.839  10.889   1.240
33617SOL     OW 2624   4.798   7.163  12.519
33617SOL    HW1 2625   4.719   7.158  12.571
33617SOL    HW2 2626   4.809   7.257  12.501
33618SOL     OW 2627   0.778   0.201   7.236
33618SOL    HW1 2628   0.803   0.262   7.167
33618SOL    HW2 2629   0.746   0.124   7.189
33619SOL     OW 2630   0.628   6.664   7.252
33619SOL    HW1 2631   0.588   6.615   7.324
33619SOL    HW2 2632   0.706   6.703   7.290
33620SOL     OW 2633   5.655   3.200  13.610
33620SOL    HW1 2634   5.574   3.241  13.641
33620SOL    HW2 2635   5.713   3.274  13.591
33621SOL     OW 2636   5.725   4.840   3.769
33621SOL    HW1 2637   5.668   4.798   3.834
33621SOL    HW2 2638   5.715   4.934   3.786
33622SOL     OW 2639   3.886   2.245  12.603
33622SOL    HW1 2640   3.818   2.177  12.607
33622SOL    HW2 2641   3.895   2.263  12.509
33623SOL     OW 2642  10.548   4.467  12.367
33623SOL    HW1 2643  10.530   4.561  12.363
33623SOL    HW2 2644  10.475   4.427  12.319
33624SOL     OW 2645   2.460   8.908   9.067
33624SOL    HW1 2646   2.537   8.947   9.025
33624SOL    HW2 2647   2.473   8.924   9.160
33625SOL     OW 2648   3.708  10.323   7.446
33625SOL    HW1 2649   3.630  10.356   7.492
33625SOL    HW2 2650   3.718  10.234   7.477
33626SOL     OW 2651   6.353   6.300   2.618
33626SOL    HW1 2652   6.417   6.276   2.551
33626SOL    HW2 2653   6.342   6.395   2.608
33627SOL     OW 2654   7.307   0.098   3.062
33627SOL    HW1 2655   7.293   0.025   3.123
33627SOL    HW2 2656   7.388   0.075   3.016
33628SOL     OW 2657   0.518   3.158  10.242
33628SOL    HW1 2658   0.596   3.158  10.186
33628SOL    HW2 2659   0.540   3.098  10.313
33629SOL     OW 2660  10.236  10.000   5.813
33629SOL    HW1 2661  10.184  10.056   5.869
33629SOL    HW2 2662  10.325  10.035   5.820
33630SOL     OW 2663   5.867  10.842   8.314
33630SOL    HW1 2664   5.904  10.778   8.254
33630SOL    HW2 2665   5.901  10.927   8.283
33631SOL     OW 2666   8.470  14.348  12.666
33631SOL    HW1 2667   8.377  14.349  12.644
33631SOL    HW2 2668   8.481  14.419  12.729
33632SOL     OW 2669   2.524   6.677  14.760
33632SOL    HW1 2670   2.491   6.746  14.702
33632SOL    HW2 2671   2.445   6.638  14.798
33633SOL     OW 2672   4.976  14.185  12.501
33633SOL    HW1 2673   4.965  14.263  12.555
33633SOL    HW2 2674   5.070  14.174  12.492
33634SOL     OW 2675   7.795   6.861  12.995
33634SOL    HW1 2676   7.766   6.945  12.961
33634SOL    HW2 2677   7.746   6.849  13.076
33635SOL     OW 2678   2.198   7.684  11.491
33635SOL    HW1 2679   2.291   7.702  11.503
33635SOL    HW2 2680   2.168   7.749  11.428
33636SOL     OW 2681  13.307  10.251  13.271
33636SOL    HW1 2682  13.311  10.173  13.216
33636SOL    HW2 2683  13.390  10.296  13.254
33637SOL     OW 2684  10.799  11.774   5.282
33637SOL    HW1 2685  10.882  11.785   5.236
33637SOL    HW2 2686  10.807  11.831   5.359
33638SOL     OW 2687   2.717   8.289  12.893
33638SOL    HW1 2688   2.748   8.363  12.841
33638SOL    HW2 2689   2.630   8.316  12.923
33639SOL     OW 2690   4.773   7.346   7.346
33639SOL    HW1 2691   4.700   7.394   7.308
33639SOL    HW2 2692   4.781   7.382   7.435
33640SOL     OW 2693   2.933   2.025   8.326
33640SOL    HW1 2694   3.008   1.983   8.284
33640SOL    HW2 2695   2.962   2.046   8.414
33641SOL     OW 2696   4.329   5.333  14.625
33641SOL    HW1 2697   4.415   5.293  14.609
33641SOL    HW2 2698   4.296   5.289  14.702
33642SOL     OW 2699   3.535  13.967  14.879
33642SOL    HW1 2700   3.506  14.026   0.067
33642SOL    HW2 2701   3.623  13.998  14.857
33643SOL     OW 2702   6.276   1.050   4.752
33643SOL    HW1 2703   6.371   1.045   4.735
33643SOL    HW2 2704   6.248   1.128   4.705
33644SOL     OW 2705   2.209   4.773  12.397
33644SOL    HW1 2706   2.187   4.758  12.305
33644SOL    HW2 2707   2.210   4.685  12.436
33645SOL     OW 2708  14.060   3.810   2.690
33645SOL    HW1 2709  14.130   3.788   2.628
33645SOL    HW2 2710  14.104   3.863   2.757
33646SOL     OW 2711  10.118   0.938  12.147
33646SOL    HW1 2712  10.179   0.881  12.100
33646SOL    HW2 2713  10.111   1.016  12.093
33647SOL     OW 2714   7.809  14.527  10.437
33647SOL    HW1 2715   7.871  14.563  10.501
33647SOL    HW2 2716   7.728  14.514  10.487
33648SOL     OW 2717  10.778  14.236   2.600
33648SOL    HW1 2718  10.830  14.183   2.540
33648SOL    HW2 2719  10.692  14.242   2.559
33649SOL     OW 2720   4.225   7.510  12.771
33649SOL    HW1 2721   4.199   7.425  12.808
33649SOL    HW2 2722   4.172   7.518  12.692
33650SOL     OW 2723   0.543   4.653  11.880
33650SOL    HW1 2724   0.528   4.735  11.927
33650SOL    HW2 2725   0.494   4.663  11.798
33651SOL     OW 2726   4.253  14.299  11.258
33651SOL    HW1 2727   4.162  14.302  11.230
33651SOL    HW2 2728   4.249  14.308  11.353
33652SOL     OW 2729  12.782   9.334  12.031
33652SOL    HW1 2730  12.779   9.359  11.938
33652SOL    HW2 2731  12.862   9.375  12.064
33653SOL     OW 2732   5.628  10.298   0.351
33653SOL    HW1 2733   5.639  10.211   0.389
33653SOL    HW2 2734   5.715  10.336   0.352
33654SOL     OW 2735   1.142   6.005  10.587
33654SOL    HW1 2736   1.077   6.014  10.657
33654SOL    HW2 2737   1.143   5.912  10.567
33655SOL     OW 2738  13.868   9.009   9.567
33655SOL    HW1 2739  13.787   9.027   9.520
33655SOL    HW2 2740  13.860   8.918   9.595
33656SOL     OW 2741   6.707  11.269   0.173
33656SOL    HW1 2742   6.784  11.291   0.120
33656SOL    HW2 2743   6.742  11.226   0.251
33657SOL     OW 2744   8.316   8.112  12.956
33657SOL    HW1 2745   8.369   8.191  12.950
33657SOL    HW2 2746   8.290   8.107  13.048
33658SOL     OW 2747  11.795   0.742   5.324
33658SOL    HW1 2748  11.816   0.781   5.239
33658SOL    HW2 2749  11.869   0.765   5.380
33659SOL     OW 2750  13.447  10.792   6.830
33659SOL    HW1 2751  13.513  10.725   6.850
33659SOL    HW2 2752  13.492  10.852   6.771
33660SOL     OW 2753   2.676  10.576   9.809
33660SOL    HW1 2754   2.641  10.571   9.720
33660SOL    HW2 2755   2.763  10.535   9.802
33661SOL     OW 2756   2.873   8.230   6.598
33661SOL    HW1 2757   2.793   8.273   6.570
33661SOL    HW2 2758   2.905   8.283   6.671
33662SOL     OW 2759   6.953  12.388   3.134
33662SOL    HW1 2760   6.872  12.388   3.082
33662SOL    HW2 2761   6.964  12.297   3.160
33663SOL     OW 2762  10.509  10.416   0.785
33663SOL    HW1 2763  10.503  10.351   0.715
33663SOL    HW2 2764  10.436  10.476   0.768
33664SOL     OW 2765  14.066   9.848   8.258
33664SOL    HW1 2766  13.975   9.866   8.283
33664SOL    HW2 2767  14.092   9.924   8.207
33665SOL     OW 2768  14.109  10.536  12.814
33665SOL    HW1 2769  14.187  10.573  12.858
33665SOL    HW2 2770  14.039  10.544  12.879
33666SOL     OW 2771   1.308   1.519   9.209
33666SOL    HW1 2772   1.301   1.536   9.304
33666SOL    HW2 2773   1.329   1.605   9.172
33667SOL     OW 2774   4.364  12.996  12.727
33667SOL    HW1 2775   4.303  13.069  12.721
33667SOL    HW2 2776   4.450  13.037  12.731
33668SOL     OW 2777   1.184  14.158  10.825
33668SOL    HW1 2778   1.240  14.096  10.779
33668SOL    HW2 2779   1.134  14.201  10.756
33669SOL     OW 2780   8.233  13.536   2.271
33669SOL    HW1 2781   8.163  13.582   2.225
33669SOL    HW2 2782   8.221  13.444   2.250
33670SOL     OW 2783   2.135   3.913  14.837
33670SOL    HW1 2784   2.216   3.862  14.828
33670SOL    HW2 2785   2.164   3.997  14.871
33671SOL     OW 2786   2.122   6.856   0.548
33671SOL    HW1 2787   2.053   6.893   0.604
33671SOL    HW2 2788   2.095   6.766   0.533
33672SOL     OW 2789  10.190   4.639   0.355
33672SOL    HW1 2790  10.285   4.646   0.360
33672SOL    HW2 2791  10.173   4.550   0.324
33673SOL     OW 2792  13.442  13.292   0.771
33673SOL    HW1 2793  13.412  13.364   0.715
33673SOL    HW2 2794  13.386  13.297   0.848
33674SOL     OW 2795   5.289   2.501  14.207
33674SOL    HW1 2796   5.264   2.488  14.299
33674SOL    HW2 2797   5.272   2.594  14.191
33675SOL     OW 2798  11.533  13.607   3.327
33675SOL    HW1 2799  11.469  13.635   3.261
33675SOL    HW2 2800  11.570  13.688   3.361
33676SOL     OW 2801   1.909   0.782  11.394
33676SOL    HW1 2802   1.950   0.773  11.308
33676SOL    HW2 2803   1.824   0.821  11.376
33677SOL     OW 2804   2.270   0.431   7.803
33677SOL    HW1 2805   2.256   0.486   7.726
33677SOL    HW2 2806   2.183   0.419   7.841
33678SOL     OW 2807  10.976   9.023   6.772
33678SOL    HW1 2808  11.027   8.959   6.822
33678SOL    HW2 2809  11.040   9.089   6.745
33679SOL     OW 2810  14.511  11.586  10.253
33679SOL    HW1 2811  14.549  11.529  10.186
33679SOL    HW2 2812  14.419  11.559  10.257
33680SOL     OW 2813   2.868   1.962  12.600
33680SOL    HW1 2814   2.823   1.913  12.531
33680SOL    HW2 2815   2.958   1.928  12.599
33681SOL     OW 2816   5.873  12.741  10.005
33681SOL    HW1 2817   5.931  12.814  10.026
33681SOL    HW2 2818   5.785  12.776  10.017
33682SOL     OW 2819  14.786   9.146  14.272
33682SOL    HW1 2820  14.866   9.100  14.298
33682SOL    HW2 2821  14.797   9.160  14.178
33683SOL     OW 2822   7.134   9.802   4.473
33683SOL    HW1 2823   7.147   9.868   4.405
33683SOL    HW2 2824   7.194   9.732   4.451
33684SOL     OW 2825  13.299  13.022   6.556
33684SOL    HW1 2826  13.210  13.041   6.586
33684SOL    HW2 2827  13.320  12.938   6.597
33685SOL     OW 2828   4.911   1.882   6.514
33685SOL    HW1 2829   4.993   1.870   6.561
33685SOL    HW2 2830   4.878   1.793   6.499
33686SOL     OW 2831   5.928  14.800  14.484
33686SOL    HW1 2832   6.022  14.794  14.502
33686SOL    HW2 2833   5.919  14.779  14.391
33687SOL     OW 2834   0.385  11.961  13.243
33687SOL    HW1 2835   0.433  11.987  13.322
33687SOL    HW2 2836   0.432  12.005  13.172
33688SOL     OW 2837   3.902   4.163   8.541
33688SOL    HW1 2838   3.815   4.128   8.556
33688SOL    HW2 2839   3.927   4.205   8.624
33689SOL     OW 2840   9.773   1.051   2.856
33689SOL    HW1 2841   9.833   1.065   2.783
33689SOL    HW2 2842   9.771   1.135   2.902
33690SOL     OW 2843   4.435   6.758   2.417
33690SOL    HW1 2844   4.452   6.850   2.434
33690SOL    HW2 2845   4.492   6.711   2.478
33691SOL     OW 2846  14.142   8.446   9.745
33691SOL    HW1 2847  14.080   8.515   9.772
33691SOL    HW2 2848  14.098   8.402   9.673
33692SOL     OW 2849   6.519  13.912  11.619
33692SOL    HW1 2850   6.471  13.989  11.650
33692SOL    HW2 2851   6.493  13.904  11.527
33693SOL     OW 2852  13.791   2.609   4.666
33693SOL    HW1 2853  13.701   2.580   4.648
33693SOL    HW2 2854  13.812   2.666   4.593
33694SOL     OW 2855   1.917  14.775  14.853
33694SOL    HW1 2856   1.927  14.849  14.793
33694SOL    HW2 2857   1.851  14.720  14.812
33695SOL     OW 2858   5.848   6.700   2.607
33695SOL    HW1 2859   5.932   6.719   2.649
33695SOL    HW2 2860   5.787   6.764   2.644
33696SOL     OW 2861   6.320  13.186   0.272
33696SOL    HW1 2862   6.345  13.093   0.270
33696SOL    HW2 2863   6.376  13.227   0.206
33697SOL     OW 2864   9.944  13.007   2.763
33697SOL    HW1 2865   9.850  13.022   2.769
33697SOL    HW2 2866   9.978  13.031   2.850
33698SOL     OW 2867  11.949   0.823  11.140
33698SOL    HW1 2868  11.959   0.859  11.052
33698SOL    HW2 2869  11.865   0.777  11.138
33699SOL     OW 2870   7.417  13.291  11.516
33699SOL    HW1 2871   7.448  13.322  11.601
33699SOL    HW2 2872   7.390  13.201  11.531
33700SOL     OW 2873   3.429  14.240   7.017
33700SOL    HW1 2874   3.464  14.189   7.090
33700SOL    HW2 2875   3.362  14.296   7.057
33701SOL     OW 2876  14.654   4.921   3.144
33701SOL    HW1 2877  14.684   4.831   3.156
33701SOL    HW2 2878  14.608   4.941   3.225
33702SOL     OW 2879   5.206   1.232   3.585
33702SOL    HW1 2880   5.217   1.217   3.679
33702SOL    HW2 2881   5.124   1.281   3.579
33703SOL     OW 2882  10.428   1.934   3.299
33703SOL    HW1 2883  10.459   2.000   3.237
33703SOL    HW2 2884  10.453   1.850   3.259
33704SOL     OW 2885   9.958   9.623   7.341
33704SOL    HW1 2886  10.034   9.614   7.283
33704SOL    HW2 2887   9.906   9.544   7.324
33705SOL     OW 2888   9.199   7.437   9.478
33705SOL    HW1 2889   9.262   7.501   9.446
33705SOL    HW2 2890   9.209   7.437   9.573
33706SOL     OW 2891   8.804   3.008   0.552
33706SOL    HW1 2892   8.820   3.003   0.647
33706SOL    HW2 2893   8.831   2.922   0.519
33707SOL     OW 2894   3.347   2.669   2.588
33707SOL    HW1 2895   3.333   2.624   2.671
33707SOL    HW2 2896   3.414   2.734   2.606
33708SOL     OW 2897   7.179  10.688  13.482
33708SOL    HW1 2898   7.185  10.783  13.491
33708SOL    HW2 2899   7.264  10.656  13.513
33709SOL     OW 2900  14.702  10.294  10.556
33709SOL    HW1 2901  14.725  10.219  10.611
33709SOL    HW2 2902  14.718  10.264  10.466
33710SOL     OW 2903   4.370   3.905   6.765
33710SOL    HW1 2904   4.423   3.827   6.777
33710SOL    HW2 2905   4.425   3.963   6.712
33711SOL     OW 2906  14.872   5.015   6.568
33711SOL    HW1 2907   0.042   5.079   6.618
33711SOL    HW2 2908   0.001   4.933   6.616
33712SOL     OW 2909  12.091   7.428   2.019
33712SOL    HW1 2910  12.138   7.430   1.935
33712SOL    HW2 2911  12.149   7.381   2.079
33713SOL     OW 2912   3.041  12.040   4.456
33713SOL    HW1 2913   3.130  12.076   4.465
33713SOL    HW2 2914   2.986  12.102   4.503
33714SOL     OW 2915   7.701  12.273  10.412
33714SOL    HW1 2916   7.677  12.315  10.329
33714SOL    HW2 2917   7.637  12.203  10.423
33715SOL     OW 2918   0.410   7.134  14.154
33715SOL    HW1 2919   0.476   7.194  14.189
33715SOL    HW2 2920   0.448   7.101  14.073
33716SOL     OW 2921   7.199  11.784   9.647
33716SOL    HW1 2922   7.285  11.756   9.616
33716SOL    HW2 2923   7.218  11.852   9.712
33717SOL     OW 2924   5.298   8.781   0.663
33717SOL    HW1 2925   5.388   8.796   0.634
33717SOL    HW2 2926   5.254   8.746   0.585
33718SOL     OW 2927   9.599   4.936  13.057
33718SOL    HW1 2928   9.535   4.907  12.992
33718SOL    HW2 2929   9.683   4.933  13.012
33719SOL     OW 2930   3.280   3.779   3.598
33719SOL    HW1 2931   3.225   3.851   3.567
33719SOL    HW2 2932   3.218   3.708   3.615
33720SOL     OW 2933   7.987   5.709   5.318
33720SOL    HW1 2934   8.033   5.689   5.236
33720SOL    HW2 2935   8.042   5.671   5.386
33721SOL     OW 2936  11.975   2.172  14.692
33721SOL    HW1 2937  11.928   2.221  14.759
33721SOL    HW2 2938  12.060   2.214  14.685
33722SOL     OW 2939   2.649  13.959   6.005
33722SOL    HW1 2940   2.626  14.041   6.048
33722SOL    HW2 2941   2.566  13.926   5.970
33723SOL     OW 2942   8.452   4.406   9.226
33723SOL    HW1 2943   8.543   4.437   9.222
33723SOL    HW2 2944   8.442   4.371   9.314
33724SOL     OW 2945   7.555   0.293  10.563
33724SOL    HW1 2946   7.623   0.361  10.561
33724SOL    HW2 2947   7.596   0.217  10.521
33725SOL     OW 2948   2.643   1.045   5.746
33725SOL    HW1 2949   2.736   1.060   5.760
33725SOL    HW2 2950   2.625   0.961   5.788
33726SOL     OW 2951  11.474   9.253   8.391
33726SOL    HW1 2952  11.489   9.159   8.383
33726SOL    HW2 2953  11.398   9.261   8.448
33727SOL     OW 2954  14.253   1.705   5.571
33727SOL    HW1 2955  14.332   1.693   5.624
33727SOL    HW2 2956  14.278   1.676   5.483
33728SOL     OW 2957   2.156   8.106   7.428
33728SOL    HW1 2958   2.097   8.176   7.452
33728SOL    HW2 2959   2.172   8.118   7.335
33729SOL     OW 2960   5.191   9.515   2.932
33729SOL    HW1 2961   5.114   9.477   2.974
33729SOL    HW2 2962   5.199   9.602   2.971
33730SOL     OW 2963   0.015   1.173   8.752
33730SOL    HW1 2964  14.827   1.112   8.728
33730SOL    HW2 2965   0.087   1.151   8.693
33731SOL     OW 2966   8.723   8.913  11.903
33731SOL    HW1 2967   8.789   8.909  11.833
33731SOL    HW2 2968   8.724   8.825  11.942
33732SOL     OW 2969  14.050  13.661   5.881
33732SOL    HW1 2970  14.117  13.603   5.846
33732SOL    HW2 2971  13.968  13.625   5.849
33733SOL     OW 2972  11.537  10.982   3.548
33733SOL    HW1 2973  11.521  10.957   3.639
33733SOL    HW2 2974  11.464  11.041   3.527
33734SOL     OW 2975  13.241  14.395   6.339
33734SOL    HW1 2976  13.335  14.381   6.333
33734SOL    HW2 2977  13.230  14.490   6.326
33735SOL     OW 2978   7.567  10.728   0.034
33735SOL    HW1 2979   7.620  10.737   0.113
33735SOL    HW2 2980   7.578  10.636   0.008
33736SOL     OW 2981   7.089   6.846  10.024
33736SOL    HW1 2982   7.127   6.917   9.973
33736SOL    HW2 2983   7.092   6.876  10.115
33737SOL     OW 2984   6.230   3.062  14.612
33737SOL    HW1 2985   6.309   3.101  14.651
33737SOL    HW2 2986   6.214   2.984  14.665
33738SOL     OW 2987  11.334   8.924   5.270
33738SOL    HW1 2988  11.385   8.859   5.221
33738SOL    HW2 2989  11.400   8.985   5.304
33739SOL     OW 2990  12.725   3.909   9.223
33739SOL    HW1 2991  12.810   3.878   9.255
33739SOL    HW2 2992  12.709   3.856   9.144
33740SOL     OW 2993   6.973  13.666   5.995
33740SOL    HW1 2994   7.053  13.709   6.023
33740SOL    HW2 2995   6.910  13.737   5.984
33741SOL     OW 2996  12.784  13.138   0.811
33741SOL    HW1 2997  12.813  13.197   0.742
33741SOL    HW2 2998  12.796  13.188   0.892
33742SOL     OW 2999   2.574   1.472   7.404
33742SOL    HW1 3000   2.494   1.481   7.351
33742SOL    HW2 3001   2.619   1.396   7.367
33743SOL     OW 3002  13.803   9.242   6.254
33743SOL    HW1 3003  13.873   9.198   6.206
33743SOL    HW2 3004  13.827   9.232   6.346
33744SOL     OW 3005  10.551  12.491   7.127
33744SOL    HW1 3006  10.544  12.579   7.165
33744SOL    HW2 3007  10.585  12.437   7.198
33745SOL     OW 3008   0.092   4.631  12.572
33745SOL    HW1 3009   0.090   4.604  12.480
33745SOL    HW2 3010   0.030   4.703  12.577
33746SOL     OW 3011   6.919   8.567  13.814
33746SOL    HW1 3012   6.828   8.538  13.808
33746SOL    HW2 3013   6.956   8.549  13.728
33747SOL     OW 3014  11.037  13.638   9.113
33747SOL    HW1 3015  10.991  13.593   9.184
33747SOL    HW2 3016  10.972  13.697   9.075
33748SOL     OW 3017   0.953   0.351   8.943
33748SOL    HW1 3018   1.045   0.325   8.945
33748SOL    HW2 3019   0.944   0.402   8.862
33749SOL     OW 3020   4.378   3.724   0.564
33749SOL    HW1 3021   4.350   3.713   0.474
33749SOL    HW2 3022   4.458   3.672   0.571
33750SOL     OW 3023   0.221   6.986   1.573
33750SOL    HW1 3024   0.227   6.900   1.532
33750SOL    HW2 3025   0.224   7.048   1.501
33751SOL     OW 3026  10.579   4.457   9.035
33751SOL    HW1 3027  10.517   4.439   9.105
33751SOL    HW2 3028  10.649   4.507   9.077
33752SOL     OW 3029   4.675  10.520  13.321
33752SOL    HW1 3030   4.626  10.601  13.337
33752SOL    HW2 3031   4.767  10.547  13.322
33753SOL     OW 3032  14.398   3.520   2.430
33753SOL    HW1 3033  14.382   3.463   2.505
33753SOL    HW2 3034  14.370   3.607   2.460
33754SOL     OW 3035  10.841   9.522  11.413
33754SOL    HW1 3036  10.889   9.439  11.416
33754SOL    HW2 3037  10.757   9.502  11.453
33755SOL     OW 3038   8.631   5.842   0.020
33755SOL    HW1 3039   8.604   5.769  14.846
33755SOL    HW2 3040   8.591   5.919  14.862
33756SOL     OW 3041  13.738   2.494   7.813
33756SOL    HW1 3042  13.824   2.522   7.782
33756SOL    HW2 3043  13.741   2.398   7.807
33757SOL     OW 3044   6.432  13.439   8.070
33757SOL    HW1 3045   6.480  13.506   8.021
33757SOL    HW2 3046   6.487  13.420   8.146
33758SOL     OW 3047  14.688   7.231  10.677
33758SOL    HW1 3048  14.754   7.175  10.637
33758SOL    HW2 3049  14.614   7.228  10.617
33759SOL     OW 3050  13.786  10.103   7.093
33759SOL    HW1 3051  13.706  10.093   7.042
33759SOL    HW2 3052  13.825  10.015   7.092
33760SOL     OW 3053   0.808   1.216  12.554
33760SOL    HW1 3054   0.800   1.301  12.511
33760SOL    HW2 3055   0.864   1.232  12.629
33761SOL     OW 3056   4.769  10.808   2.657
33761SOL    HW1 3057   4.817  10.890   2.653
33761SOL    HW2 3058   4.787  10.765   2.573
33762SOL     OW 3059  14.756  14.267   2.857
33762SOL    HW1 3060  14.832  14.286   2.912
33762SOL    HW2 3061  14.784  14.290   2.769
33763SOL     OW 3062   4.106   5.186   5.185
33763SOL    HW1 3063   4.043   5.137   5.132
33763SOL    HW2 3064   4.054   5.253   5.228
33764SOL     OW 3065   1.267   2.925  14.672
33764SOL    HW1 3066   1.264   2.896  14.581
33764SOL    HW2 3067   1.265   3.020  14.667
33765SOL     OW 3068  11.058   2.924  12.803
33765SOL    HW1 3069  11.001   2.849  12.822
33765SOL    HW2 3070  11.139   2.904  12.850
33766SOL     OW 3071  12.246  13.494  11.103
33766SOL    HW1 3072  12.178  13.550  11.142
33766SOL    HW2 3073  12.327  13.543  11.117
33767SOL     OW 3074   7.782   4.655  12.458
33767SOL    HW1 3075   7.702   4.605  12.475
33767SOL    HW2 3076   7.844   4.626  12.525
33768SOL     OW 3077   2.911   8.037   1.784
33768SOL    HW1 3078   2.859   8.063   1.861
33768SOL    HW2 3079   2.847   8.000   1.724
33769SOL     OW 3080   5.080   8.029   9.615
33769SOL    HW1 3081   5.057   8.065   9.701
33769SOL    HW2 3082   5.120   7.944   9.635
33770SOL     OW 3083  13.711   5.969   9.836
33770SOL    HW1 3084  13.645   6.037   9.852
33770SOL    HW2 3085  13.746   5.949   9.923
33771SOL     OW 3086  10.679   6.946   0.048
33771SOL    HW1 3087  10.673   6.954  14.834
33771SOL    HW2 3088  10.743   7.013   0.073
33772SOL     OW 3089   4.814  11.104   6.560
33772SOL    HW1 3090   4.865  11.056   6.626
33772SOL    HW2 3091   4.802  11.191   6.597
33773SOL     OW 3092   7.367  11.667   7.354
33773SOL    HW1 3093   7.361  11.723   7.277
33773SOL    HW2 3094   7.349  11.725   7.428
33774SOL     OW 3095  10.157  13.113   8.910
33774SOL    HW1 3096  10.195  13.100   8.997
33774SOL    HW2 3097  10.124  13.027   8.885
33775SOL     OW 3098   2.317   1.212   6.111
33775SOL    HW1 3099   2.322   1.283   6.175
33775SOL    HW2 3100   2.401   1.167   6.119
33776SOL     OW 3101   2.656   8.441   4.269
33776SOL    HW1 3102   2.648   8.511   4.203
33776SOL    HW2 3103   2.728   8.470   4.325
33777SOL     OW 3104   4.686   8.329   6.229
33777SOL    HW1 3105   4.769   8.280   6.228
33777SOL    HW2 3106   4.642   8.303   6.148
33778SOL     OW 3107  13.743   6.512   9.215
33778SOL    HW1 3108  13.822   6.469   9.182
33778SOL    HW2 3109  13.703   6.447   9.273
33779SOL     OW 3110  13.650  12.458   6.613
33779SOL    HW1 3111  13.606  12.492   6.691
33779SOL    HW2 3112  13.656  12.533   6.554
33780SOL     OW 3113  14.008   2.972   0.651
33780SOL    HW1 3114  14.048   3.031   0.588
33780SOL    HW2 3115  14.065   2.895   0.652
33781SOL     OW 3116   4.871   4.143  12.713
33781SOL    HW1 3117   4.906   4.231  12.696
33781SOL    HW2 3118   4.814   4.125  12.638
33782SOL     OW 3119   2.992   0.332   7.615
33782SOL    HW1 3120   2.898   0.349   7.619
33782SOL    HW2 3121   3.032   0.414   7.646
33783SOL     OW 3122   7.231   9.837   2.385
33783SOL    HW1 3123   7.216   9.853   2.478
33783SOL    HW2 3124   7.201   9.747   2.371
33784SOL     OW 3125   8.160   1.227   4.633
33784SOL    HW1 3126   8.184   1.197   4.545
33784SOL    HW2 3127   8.243   1.244   4.676
33785SOL     OW 3128   8.729   6.310   9.268
33785SOL    HW1 3129   8.716   6.271   9.354
33785SOL    HW2 3130   8.746   6.402   9.285
33786SOL     OW 3131   3.616  10.049  12.617
33786SOL    HW1 3132   3.710  10.066  12.629
33786SOL    HW2 3133   3.606  10.036  12.523
33787SOL     OW 3134  14.581  10.394   7.259
33787SOL    HW1 3135  14.612  10.314   7.302
33787SOL    HW2 3136  14.546  10.365   7.175
33788SOL     OW 3137   5.728   7.366   1.843
33788SOL    HW1 3138   5.671   7.319   1.781
33788SOL    HW2 3139   5.681   7.447   1.862
33789SOL     OW 3140   2.983  13.739   3.525
33789SOL    HW1 3141   3.054  13.794   3.560
33789SOL    HW2 3142   2.972  13.670   3.590
33790SOL     OW 3143   5.728  11.379   7.760
33790SOL    HW1 3144   5.690  11.381   7.672
33790SOL    HW2 3145   5.746  11.471   7.780
33791SOL     OW 3146   8.297   9.947   7.757
33791SOL    HW1 3147   8.365  10.011   7.776
33791SOL    HW2 3148   8.223   9.998   7.726
33792SOL     OW 3149  13.095   6.695  11.430
33792SOL    HW1 3150  13.086   6.777  11.480
33792SOL    HW2 3151  13.006   6.677  11.399
33793SOL     OW 3152   9.055  10.782   9.992
33793SOL    HW1 3153   8.968  10.819   9.980
33793SOL    HW2 3154   9.070  10.785  10.087
33794SOL     OW 3155  14.788  10.586  14.616
33794SOL    HW1 3156  14.877  10.620  14.609
33794SOL    HW2 3157  14.732  10.657  14.585
33795SOL     OW 3158  11.293  11.233   5.408
33795SOL    HW1 3159  11.285  11.254   5.502
33795SOL    HW2 3160  11.229  11.289   5.366
33796SOL     OW 3161  14.717   1.908   9.856
33796SOL    HW1 3162  14.642   1.887   9.801
33796SOL    HW2 3163  14.722   2.004   9.855
33797SOL     OW 3164  10.573  11.942  12.764
33797SOL    HW1 3165  10.532  12.029  12.766
33797SOL    HW2 3166  10.606  11.933  12.674
33798SOL     OW 3167   5.231   8.730   1.438
33798SOL    HW1 3168   5.216   8.796   1.370
33798SOL    HW2 3169   5.276   8.778   1.508
33799SOL     OW 3170   7.766   7.898   6.288
33799SOL    HW1 3171   7.722   7.981   6.306
33799SOL    HW2 3172   7.700   7.845   6.242
33800SOL     OW 3173   7.975  14.512  12.965
33800SOL    HW1 3174   7.980  14.478  12.875
33800SOL    HW2 3175   7.882  14.530  12.979
33801SOL     OW 3176   2.105  14.565   1.844
33801SOL    HW1 3177   2.156  14.488   1.821
33801SOL    HW2 3178   2.022  14.554   1.797
33802SOL     OW 3179  11.228  10.251   2.162
33802SOL    HW1 3180  11.300  10.190   2.178
33802SOL    HW2 3181  11.244  10.284   2.074
33803SOL     OW 3182   9.401  14.738   9.545
33803SOL    HW1 3183   9.350  14.709   9.621
33803SOL    HW2 3184   9.454  14.810   9.579
33804SOL     OW 3185  13.981  14.585  14.124
33804SOL    HW1 3186  13.963  14.504  14.172
33804SOL    HW2 3187  13.899  14.605  14.079
33805SOL     OW 3188  12.816   0.135   4.382
33805SOL    HW1 3189  12.826   0.039   4.382
33805SOL    HW2 3190  12.905   0.167   4.366
33806SOL     OW 3191   6.785   2.343  11.584
33806SOL    HW1 3192   6.835   2.282  11.530
33806SOL    HW2 3193   6.848   2.412  11.608
33807SOL     OW 3194   5.313   0.480   9.252
33807SOL    HW1 3195   5.322   0.529   9.334
33807SOL    HW2 3196   5.227   0.506   9.218
33808SOL     OW 3197   8.704   6.978   6.024
33808SOL    HW1 3198   8.738   7.067   6.012
33808SOL    HW2 3199   8.643   6.986   6.098
33809SOL     OW 3200   4.307   0.225   0.424
33809SOL    HW1 3201   4.284   0.148   0.477
33809SOL    HW2 3202   4.382   0.196   0.372
33810SOL     OW 3203   6.286   2.884  13.693
33810SOL    HW1 3204   6.229   2.830  13.748
33810SOL    HW2 3205   6.324   2.948  13.754
33811SOL     OW 3206   0.668   3.220   2.441
33811SOL    HW1 3207   0.605   3.287   2.465
33811SOL    HW2 3208   0.620   3.137   2.448
33812SOL     OW 3209   4.105  11.109   8.378
33812SOL    HW1 3210   4.019  11.150   8.370
33812SOL    HW2 3211   4.165  11.172   8.340
33813SOL     OW 3212   2.235   1.532   7.768
33813SOL    HW1 3213   2.223   1.533   7.863
33813SOL    HW2 3214   2.146   1.529   7.733
33814SOL     OW 3215  10.843   6.025   6.227
33814SOL    HW1 3216  10.856   5.991   6.139
33814SOL    HW2 3217  10.788   5.960   6.270
33815SOL     OW 3218  13.535  14.453   1.135
33815SOL    HW1 3219  13.608  14.391   1.125
33815SOL    HW2 3220  13.506  14.470   1.045
33816SOL     OW 3221   9.676   6.961   0.685
33816SOL    HW1 3222   9.746   6.932   0.627
33816SOL    HW2 3223   9.595   6.936   0.639
33817SOL     OW 3224   1.287  10.828  11.635
33817SOL    HW1 3225   1.347  10.890  11.593
33817SOL    HW2 3226   1.220  10.883  11.674
33818SOL     OW 3227   7.830   0.535  10.055
33818SOL    HW1 3228   7.761   0.475  10.083
33818SOL    HW2 3229   7.892   0.538  10.128
33819SOL     OW 3230   0.879   4.750   1.716
33819SOL    HW1 3231   0.881   4.736   1.621
33819SOL    HW2 3232   0.894   4.663   1.753
33820SOL     OW 3233   7.087  10.852   6.804
33820SOL    HW1 3234   7.047  10.809   6.728
33820SOL    HW2 3235   7.094  10.783   6.870
33821SOL     OW 3236   4.841   1.424   9.533
33821SOL    HW1 3237   4.904   1.495   9.519
33821SOL    HW2 3238   4.889   1.344   9.511
33822SOL     OW 3239  14.564   2.426   2.287
33822SOL    HW1 3240  14.635   2.380   2.333
33822SOL    HW2 3241  14.506   2.457   2.356
33823SOL     OW 3242   3.242   8.081   9.156
33823SOL    HW1 3243   3.203   8.034   9.082
33823SOL    HW2 3244   3.198   8.046   9.233
33824SOL     OW 3245   1.544  12.256  10.247
33824SOL    HW1 3246   1.544  12.199  10.324
33824SOL    HW2 3247   1.489  12.211  10.183
33825SOL     OW 3248   5.895   2.993   9.896
33825SOL    HW1 3249   5.799   2.999   9.895
33825SOL    HW2 3250   5.923   3.065   9.952
33826SOL     OW 3251  11.390  10.432  12.089
33826SOL    HW1 3252  11.311  10.481  12.066
33826SOL    HW2 3253  11.396  10.364  12.021
33827SOL     OW 3254  12.376  10.263   0.627
33827SOL    HW1 3255  12.438  10.316   0.678
33827SOL    HW2 3256  12.349  10.193   0.686
33828SOL     OW 3257   2.327   7.657   2.476
33828SOL    HW1 3258   2.358   7.651   2.386
33828SOL    HW2 3259   2.399   7.624   2.529
33829SOL     OW 3260  10.394   8.183   3.498
33829SOL    HW1 3261  10.474   8.139   3.526
33829SOL    HW2 3262  10.422   8.270   3.470
33830SOL     OW 3263   8.997   5.124   8.315
33830SOL    HW1 3264   8.933   5.114   8.244
33830SOL    HW2 3265   9.052   5.197   8.287
33831SOL     OW 3266   1.565   1.562   1.782
33831SOL    HW1 3267   1.632   1.586   1.718
33831SOL    HW2 3268   1.612   1.512   1.848
33832SOL     OW 3269   4.529   5.291  11.761
33832SOL    HW1 3270   4.593   5.250  11.819
33832SOL    HW2 3271   4.449   5.239  11.772
33833SOL     OW 3272   3.824   3.018   2.920
33833SOL    HW1 3273   3.897   3.072   2.951
33833SOL    HW2 3274   3.859   2.928   2.923
33834SOL     OW 3275  10.318   2.467   7.884
33834SOL    HW1 3276  10.329   2.372   7.897
33834SOL    HW2 3277  10.333   2.480   7.790
33835SOL     OW 3278   8.815  14.607   2.626
33835SOL    HW1 3279   8.857  14.664   2.690
33835SOL    HW2 3280   8.804  14.523   2.671
33836SOL     OW 3281   0.451  10.186   5.862
33836SOL    HW1 3282   0.514  10.128   5.903
33836SOL    HW2 3283   0.461  10.172   5.768
33837SOL     OW 3284   9.863  10.697   7.858
33837SOL    HW1 3285   9.859  10.774   7.802
33837SOL    HW2 3286   9.882  10.731   7.945
33838SOL     OW 3287  13.579   4.304  11.185
33838SOL    HW1 3288  13.634   4.378  11.211
33838SOL    HW2 3289  13.503   4.344  11.143
33839SOL     OW 3290  13.225  10.243   1.006
33839SOL    HW1 3291  13.266  10.201   0.931
33839SOL    HW2 3292  13.288  10.309   1.035
33840SOL     OW 3293   0.876   5.277  12.795
33840SOL    HW1 3294   0.937   5.323  12.853
33840SOL    HW2 3295   0.930   5.252  12.720
33841SOL     OW 3296   2.515  12.610   1.525
33841SOL    HW1 3297   2.542  12.551   1.454
33841SOL    HW2 3298   2.419  12.607   1.523
33842SOL     OW 3299   3.488   7.745  12.772
33842SOL    HW1 3300   3.422   7.749  12.842
33842SOL    HW2 3301   3.545   7.673  12.797
33843SOL     OW 3302   0.603  13.590   7.586
33843SOL    HW1 3303   0.664  13.616   7.655
33843SOL    HW2 3304   0.659  13.571   7.510
33844SOL     OW 3305   7.174  12.162   3.433
33844SOL    HW1 3306   7.079  12.154   3.448
33844SOL    HW2 3307   7.213  12.097   3.490
33845SOL     OW 3308  10.589   8.324  10.900
33845SOL    HW1 3309  10.501   8.288  10.900
33845SOL    HW2 3310  10.621   8.311  10.811
33846SOL     OW 3311   1.310   7.212   8.154
33846SOL    HW1 3312   1.345   7.280   8.095
33846SOL    HW2 3313   1.221   7.197   8.123
33847SOL     OW 3314   5.220  12.954   1.315
33847SOL    HW1 3315   5.311  12.954   1.285
33847SOL    HW2 3316   5.172  12.911   1.244
33848SOL     OW 3317   4.038  10.226   0.026
33848SOL    HW1 3318   4.067  10.165  14.839
33848SOL    HW2 3319   3.943  10.231   0.014
33849SOL     OW 3320  14.353  10.833   6.704
33849SOL    HW1 3321  14.384  10.910   6.751
33849SOL    HW2 3322  14.284  10.797   6.760
33850SOL     OW 3323   4.756   0.903  11.400
33850SOL    HW1 3324   4.677   0.914  11.453
33850SOL    HW2 3325   4.826   0.888  11.463
33851SOL     OW 3326   0.780   4.174   7.849
33851SOL    HW1 3327   0.846   4.118   7.890
33851SOL    HW2 3328   0.700   4.122   7.850
33852SOL     OW 3329   1.755   9.754  11.669
33852SOL    HW1 3330   1.815   9.728  11.599
33852SOL    HW2 3331   1.809   9.803  11.731
33853SOL     OW 3332   2.017   7.321   4.592
33853SOL    HW1 3333   2.059   7.278   4.667
33853SOL    HW2 3334   1.926   7.291   4.596
33854SOL     OW 3335  10.254   0.218  13.651
33854SOL    HW1 3336  10.199   0.220  13.573
33854SOL    HW2 3337  10.337   0.257  13.623
33855SOL     OW 3338  12.074   8.536   0.450
33855SOL    HW1 3339  12.120   8.589   0.384
33855SOL    HW2 3340  12.044   8.599   0.515
33856SOL     OW 3341   7.659   5.766   3.864
33856SOL    HW1 3342   7.626   5.847   3.824
33856SOL    HW2 3343   7.619   5.764   3.951
33857SOL     OW 3344  10.999   9.009  13.154
33857SOL    HW1 3345  10.923   9.028  13.209
33857SOL    HW2 3346  10.962   8.990  13.067
33858SOL     OW 3347  11.036  14.613   6.933
33858SOL    HW1 3348  11.103  14.552   6.905
33858SOL    HW2 3349  10.976  14.618   6.859
33859SOL     OW 3350   7.227   0.664  14.157
33859SOL    HW1 3351   7.260   0.741  14.110
33859SOL    HW2 3352   7.132   0.675  14.156
33860SOL     OW 3353  10.149   9.042  12.839
33860SOL    HW1 3354  10.059   9.052  12.870
33860SOL    HW2 3355  10.177   9.132  12.819
33861SOL     OW 3356  13.822   9.075  12.539
33861SOL    HW1 3357  13.901   9.052  12.489
33861SOL    HW2 3358  13.830   9.169  12.555
33862SOL     OW 3359   2.393   5.129   1.419
33862SOL    HW1 3360   2.442   5.193   1.470
33862SOL    HW2 3361   2.346   5.181   1.354
33863SOL     OW 3362   2.333   5.485   3.662
33863SOL    HW1 3363   2.425   5.460   3.653
33863SOL    HW2 3364   2.293   5.414   3.712
33864SOL     OW 3365   6.834   8.913  12.888
33864SOL    HW1 3366   6.922   8.943  12.912
33864SOL    HW2 3367   6.786   8.994  12.869
33865SOL     OW 3368   7.315   6.037  11.386
33865SOL    HW1 3369   7.410   6.041  11.393
33865SOL    HW2 3370   7.289   6.123  11.353
33866SOL     OW 3371  11.676  11.205   0.103
33866SOL    HW1 3372  11.617  11.233   0.033
33866SOL    HW2 3373  11.749  11.162   0.058
33867SOL     OW 3374   5.344   7.224  10.049
33867SOL    HW1 3375   5.391   7.221   9.966
33867SOL    HW2 3376   5.411   7.238  10.115
33868SOL     OW 3377   1.429  13.343   4.694
33868SOL    HW1 3378   1.379  13.414   4.731
33868SOL    HW2 3379   1.384  13.321   4.612
33869SOL     OW 3380   6.967   8.509  12.706
33869SOL    HW1 3381   6.917   8.519  12.787
33869SOL    HW2 3382   6.921   8.564  12.642
33870SOL     OW 3383   2.808  13.799   8.516
33870SOL    HW1 3384   2.820  13.752   8.433
33870SOL    HW2 3385   2.890  13.784   8.564
33871SOL     OW 3386   2.794   5.113  12.305
33871SOL    HW1 3387   2.748   5.091  12.386
33871SOL    HW2 3388   2.884   5.131  12.332
33872SOL     OW 3389   8.519   8.929   5.779
33872SOL    HW1 3390   8.428   8.950   5.798
33872SOL    HW2 3391   8.516   8.881   5.696
33873SOL     OW 3392   9.473   7.755   2.559
33873SOL    HW1 3393   9.396   7.805   2.532
33873SOL    HW2 3394   9.509   7.719   2.478
33874SOL     OW 3395   6.863   0.236  12.535
33874SOL    HW1 3396   6.928   0.247  12.466
33874SOL    HW2 3397   6.869   0.144  12.560
33875SOL     OW 3398   0.972   1.704  12.626
33875SOL    HW1 3399   0.994   1.636  12.690
33875SOL    HW2 3400   1.013   1.674  12.545
33876SOL     OW 3401  10.500  13.594   1.813
33876SOL    HW1 3402  10.579  13.544   1.835
33876SOL    HW2 3403  10.504  13.603   1.718
33877SOL     OW 3404   6.818   7.087   6.114
33877SOL    HW1 3405   6.798   7.022   6.046
33877SOL    HW2 3406   6.888   7.046   6.165
33878SOL     OW 3407   6.311   7.686   5.570
33878SOL    HW1 3408   6.345   7.667   5.482
33878SOL    HW2 3409   6.306   7.782   5.572
33879SOL     OW 3410  10.249  11.611  10.527
33879SOL    HW1 3411  10.198  11.530  10.534
33879SOL    HW2 3412  10.310  11.607  10.601
33880SOL     OW 3413   9.883  10.522   8.250
33880SOL    HW1 3414   9.946  10.590   8.275
33880SOL    HW2 3415   9.797  10.562   8.267
33881SOL     OW 3416   2.972   7.591   8.672
33881SOL    HW1 3417   3.013   7.575   8.757
33881SOL    HW2 3418   3.017   7.532   8.612
33882SOL     OW 3419  11.256  10.674   3.794
33882SOL    HW1 3420  11.203  10.614   3.742
33882SOL    HW2 3421  11.232  10.654   3.885
33883SOL     OW 3422   2.857   0.210   9.929
33883SOL    HW1 3423   2.923   0.279   9.925
33883SOL    HW2 3424   2.848   0.191  10.023
33884SOL     OW 3425  14.075   1.937  12.552
33884SOL    HW1 3426  14.169   1.936  12.572
33884SOL    HW2 3427  14.033   1.924  12.637
33885SOL     OW 3428  11.215   3.751   1.727
33885SOL    HW1 3429  11.149   3.814   1.697
33885SOL    HW2 3430  11.165   3.672   1.747
33886SOL     OW 3431   7.975   8.894  11.340
33886SOL    HW1 3432   7.897   8.927  11.296
33886SOL    HW2 3433   8.022   8.845  11.272
33887SOL     OW 3434  14.427   7.599   5.946
33887SOL    HW1 3435  14.366   7.531   5.976
33887SOL    HW2 3436  14.483   7.554   5.883
33888SOL     OW 3437   6.313  14.780  14.264
33888SOL    HW1 3438   6.279  14.712  14.206
33888SOL    HW2 3439   6.329  14.854  14.206
33889SOL     OW 3440   8.815   7.824   9.338
33889SOL    HW1 3441   8.773   7.745   9.306
33889SOL    HW2 3442   8.744   7.890   9.339
33890SOL     OW 3443   4.249  13.341   8.762
33890SOL    HW1 3444   4.295  13.268   8.721
33890SOL    HW2 3445   4.196  13.300   8.831
33891SOL     OW 3446   4.496   1.508   8.427
33891SOL    HW1 3447   4.428   1.555   8.476
33891SOL    HW2 3448   4.492   1.546   8.339
33892SOL     OW 3449   9.294   9.855   3.569
33892SOL    HW1 3450   9.243   9.802   3.507
33892SOL    HW2 3451   9.365   9.892   3.517
33893SOL     OW 3452   0.653   0.006   8.769
33893SOL    HW1 3453   0.668  14.794   8.757
33893SOL    HW2 3454   0.608   0.013   8.853
33894SOL     OW 3455   0.505   5.440  12.582
33894SOL    HW1 3456   0.561   5.378  12.630
33894SOL    HW2 3457   0.423   5.442  12.631
33895SOL     OW 3458  13.676   6.014   5.429
33895SOL    HW1 3459  13.715   6.008   5.342
33895SOL    HW2 3460  13.749   6.038   5.487
33896SOL     OW 3461   5.102   1.064   9.729
33896SOL    HW1 3462   5.051   0.990   9.762
33896SOL    HW2 3463   5.130   1.111   9.808
33897SOL     OW 3464  12.202   9.306   4.545
33897SOL    HW1 3465  12.163   9.319   4.459
33897SOL    HW2 3466  12.146   9.355   4.606
33898SOL     OW 3467  13.743   4.854   2.038
33898SOL    HW1 3468  13.759   4.760   2.030
33898SOL    HW2 3469  13.716   4.882   1.951
33899SOL     OW 3470   2.737  14.283  12.786
33899SOL    HW1 3471   2.755  14.206  12.732
33899SOL    HW2 3472   2.651  14.267  12.823
33900SOL     OW 3473  11.109  12.837   2.594
33900SOL    HW1 3474  11.046  12.781   2.640
33900SOL    HW2 3475  11.097  12.923   2.634
33901SOL     OW 3476   6.858   7.989  10.859
33901SOL    HW1 3477   6.806   8.069  10.862
33901SOL    HW2 3478   6.882   7.972  10.950
33902SOL     OW 3479   2.718   8.632  13.685
33902SOL    HW1 3480   2.673   8.712  13.660
33902SOL    HW2 3481   2.708   8.574  13.609
33903SOL     OW 3482   3.782  13.237   3.547
33903SOL    HW1 3483   3.737  13.320   3.530
33903SOL    HW2 3484   3.846  13.259   3.614
33904SOL     OW 3485   5.431  12.487   8.532
33904SOL    HW1 3486   5.365  12.444   8.586
33904SOL    HW2 3487   5.499  12.421   8.521
33905SOL     OW 3488   0.096  11.804   3.485
33905SOL    HW1 3489   0.097  11.838   3.575
33905SOL    HW2 3490   0.174  11.749   3.480
33906SOL     OW 3491   0.716   0.514  12.634
33906SOL    HW1 3492   0.709   0.462  12.714
33906SOL    HW2 3493   0.764   0.592  12.660
33907SOL     OW 3494   9.014  11.987   2.535
33907SOL    HW1 3495   8.968  12.023   2.460
33907SOL    HW2 3496   9.066  11.915   2.500
33908SOL     OW 3497  11.449  12.438   1.548
33908SOL    HW1 3498  11.517  12.436   1.481
33908SOL    HW2 3499  11.423  12.530   1.552
33909SOL     OW 3500   1.354   9.478   5.227
33909SOL    HW1 3501   1.377   9.537   5.299
33909SOL    HW2 3502   1.307   9.533   5.165
33910SOL     OW 3503   9.067   4.478   8.040
33910SOL    HW1 3504   9.123   4.403   8.024
33910SOL    HW2 3505   9.033   4.502   7.953
33911SOL     OW 3506  13.125  13.714   0.754
33911SOL    HW1 3507  13.039  13.680   0.779
33911SOL    HW2 3508  13.187  13.655   0.797
33912SOL     OW 3509   6.932   6.367   8.490
33912SOL    HW1 3510   6.874   6.304   8.532
33912SOL    HW2 3511   7.002   6.381   8.553
33913SOL     OW 3512  13.530   3.134   1.143
33913SOL    HW1 3513  13.543   3.180   1.226
33913SOL    HW2 3514  13.618   3.131   1.104
33914SOL     OW 3515  12.806   7.634  13.068
33914SOL    HW1 3516  12.770   7.674  13.147
33914SOL    HW2 3517  12.864   7.566  13.100
33915SOL     OW 3518   9.948   0.687  12.419
33915SOL    HW1 3519   9.927   0.758  12.359
33915SOL    HW2 3520  10.016   0.637  12.373
33916SOL     OW 3521   6.238   9.871  12.988
33916SOL    HW1 3522   6.151   9.905  13.009
33916SOL    HW2 3523   6.223   9.807  12.918
33917SOL     OW 3524   0.862  12.403   6.246
33917SOL    HW1 3525   0.932  12.460   6.215
33917SOL    HW2 3526   0.871  12.404   6.342
33918SOL     OW 3527   1.448   2.117   8.813
33918SOL    HW1 3528   1.456   2.098   8.907
33918SOL    HW2 3529   1.386   2.052   8.780
33919SOL     OW 3530  13.500   3.648   9.390
33919SOL    HW1 3531  13.453   3.655   9.473
33919SOL    HW2 3532  13.516   3.554   9.380
33920SOL     OW 3533  14.512   5.413  11.887
33920SOL    HW1 3534  14.441   5.465  11.849
33920SOL    HW2 3535  14.473   5.369  11.962
33921SOL     OW 3536   1.723   7.314   9.167
33921SOL    HW1 3537   1.702   7.272   9.084
33921SOL    HW2 3538   1.694   7.252   9.233
33922SOL     OW 3539   8.725   7.238   6.158
33922SOL    HW1 3540   8.795   7.186   6.199
33922SOL    HW2 3541   8.645   7.205   6.197
33923SOL     OW 3542   9.560   6.401   3.393
33923SOL    HW1 3543   9.518   6.364   3.315
33923SOL    HW2 3544   9.648   6.363   3.392
33924SOL     OW 3545  12.825   9.323  12.360
33924SOL    HW1 3546  12.819   9.389  12.291
33924SOL    HW2 3547  12.737   9.320  12.398
33925SOL     OW 3548   6.111   2.821   6.643
33925SOL    HW1 3549   6.177   2.752   6.641
33925SOL    HW2 3550   6.081   2.824   6.734
33926SOL     OW 3551   9.614   1.626   7.241
33926SOL    HW1 3552   9.612   1.616   7.145
33926SOL    HW2 3553   9.522   1.625   7.267
33927SOL     OW 3554   3.540  14.227   6.784
33927SOL    HW1 3555   3.594  14.303   6.807
33927SOL    HW2 3556   3.499  14.202   6.867
33928SOL     OW 3557   0.172   5.303   4.276
33928SOL    HW1 3558   0.190   5.326   4.367
33928SOL    HW2 3559   0.094   5.247   4.280
33929SOL     OW 3560   7.937   9.832  10.078
33929SOL    HW1 3561   7.871   9.851  10.012
33929SOL    HW2 3562   7.927   9.901  10.144
33930SOL     OW 3563   4.937   1.894   6.073
33930SOL    HW1 3564   4.979   1.878   5.989
33930SOL    HW2 3565   5.007   1.886   6.137
33931SOL     OW 3566  14.537   9.988   8.742
33931SOL    HW1 3567  14.554   9.980   8.648
33931SOL    HW2 3568  14.616  10.031   8.777
33932SOL     OW 3569   2.104  12.236   9.106
33932SOL    HW1 3570   2.060  12.215   9.023
33932SOL    HW2 3571   2.102  12.154   9.155
33933SOL     OW 3572   4.643  12.632   6.749
33933SOL    HW1 3573   4.609  12.568   6.687
33933SOL    HW2 3574   4.591  12.711   6.734
33934SOL     OW 3575  11.752  13.391  11.566
33934SOL    HW1 3576  11.773  13.362  11.477
33934SOL    HW2 3577  11.657  13.396  11.569
33935SOL     OW 3578   1.472   9.473   6.039
33935SOL    HW1 3579   1.562   9.442   6.030
33935SOL    HW2 3580   1.478   9.550   6.096
33936SOL     OW 3581   7.621   9.142  11.501
33936SOL    HW1 3582   7.603   9.189  11.419
33936SOL    HW2 3583   7.543   9.089  11.516
33937SOL     OW 3584   1.009   7.538  10.720
33937SOL    HW1 3585   1.091   7.586  10.728
33937SOL    HW2 3586   1.034   7.454  10.682
33938SOL     OW 3587  13.497   9.528   4.011
33938SOL    HW1 3588  13.539   9.446   4.040
33938SOL    HW2 3589  13.500   9.525   3.916
33939SOL     OW 3590   3.460   3.469  10.109
33939SOL    HW1 3591   3.411   3.389  10.089
33939SOL    HW2 3592   3.406   3.514  10.174
33940SOL     OW 3593  14.307   1.934   3.572
33940SOL    HW1 3594  14.367   1.953   3.644
33940SOL    HW2 3595  14.290   2.019   3.532
33941SOL     OW 3596   5.829   2.111  14.353
33941SOL    HW1 3597   5.900   2.047  14.352
33941SOL    HW2 3598   5.784   2.096  14.436
33942SOL     OW 3599   2.422   0.453   0.812
33942SOL    HW1 3600   2.507   0.410   0.812
33942SOL    HW2 3601   2.371   0.407   0.745
33943SOL     OW 3602   4.023  10.139   8.360
33943SOL    HW1 3603   4.039  10.148   8.266
33943SOL    HW2 3604   4.095  10.085   8.391
33944SOL     OW 3605   8.023   0.696   5.712
33944SOL    HW1 3606   8.038   0.721   5.621
33944SOL    HW2 3607   8.095   0.636   5.732
33945SOL     OW 3608   6.889   7.920  12.314
33945SOL    HW1 3609   6.964   7.937  12.256
33945SOL    HW2 3610   6.833   7.997  12.302
33946SOL     OW 3611  14.845   9.546   3.439
33946SOL    HW1 3612  14.781   9.531   3.369
33946SOL    HW2 3613  14.814   9.494   3.512
33947SOL     OW 3614   8.379   9.307   1.951
33947SOL    HW1 3615   8.362   9.374   2.017
33947SOL    HW2 3616   8.378   9.355   1.868
33948SOL     OW 3617  14.442   0.893   5.287
33948SOL    HW1 3618  14.504   0.953   5.329
33948SOL    HW2 3619  14.497   0.825   5.249
33949SOL     OW 3620   3.393   2.780   6.435
33949SOL    HW1 3621   3.372   2.843   6.504
33949SOL    HW2 3622   3.452   2.827   6.376
33950SOL     OW 3623   8.625   1.957   9.830
33950SOL    HW1 3624   8.688   1.885   9.830
33950SOL    HW2 3625   8.647   2.008   9.908
33951SOL     OW 3626   7.306  11.844   7.565
33951SOL    HW1 3627   7.343  11.926   7.531
33951SOL    HW2 3628   7.288  11.863   7.657
33952SOL     OW 3629   5.941   5.354   3.892
33952SOL    HW1 3630   5.902   5.335   3.807
33952SOL    HW2 3631   6.035   5.343   3.879
33953SOL     OW 3632  12.529  11.488   3.122
33953SOL    HW1 3633  12.610  11.520   3.083
33953SOL    HW2 3634  12.491  11.430   3.056
33954SOL     OW 3635   7.950   3.693  10.405
33954SOL    HW1 3636   7.933   3.766  10.464
33954SOL    HW2 3637   7.863   3.660  10.381
33955SOL     OW 3638  12.477   6.580   1.204
33955SOL    HW1 3639  12.428   6.515   1.253
33955SOL    HW2 3640  12.566   6.575   1.239
33956SOL     OW 3641  10.535   8.477  11.528
33956SOL    HW1 3642  10.491   8.544  11.580
33956SOL    HW2 3643  10.603   8.443  11.586
33957SOL     OW 3644   1.118   8.277   0.142
33957SOL    HW1 3645   1.176   8.209   0.108
33957SOL    HW2 3646   1.157   8.301   0.227
33958SOL     OW 3647   0.205   2.237  10.549
33958SOL    HW1 3648   0.189   2.299  10.477
33958SOL    HW2 3649   0.119   2.222  10.588
33959SOL     OW 3650   7.554   7.209   3.665
33959SOL    HW1 3651   7.592   7.218   3.577
33959SOL    HW2 3652   7.629   7.200   3.723
33960SOL     OW 3653  11.295   5.768   2.678
33960SOL    HW1 3654  11.216   5.717   2.661
33960SOL    HW2 3655  11.267   5.859   2.677
33961SOL     OW 3656   9.178  11.819  12.490
33961SOL    HW1 3657   9.083  11.817  12.482
33961SOL    HW2 3658   9.209  11.825  12.400
33962SOL     OW 3659  14.655   7.765   4.767
33962SOL    HW1 3660  14.705   7.820   4.827
33962SOL    HW2 3661  14.582   7.821   4.739
33963SOL     OW 3662  10.441   8.443  11.932
33963SOL    HW1 3663  10.415   8.504  11.863
33963SOL    HW2 3664  10.464   8.362  11.885
33964SOL     OW 3665   9.975  14.363   5.632
33964SOL    HW1 3666  10.066  14.385   5.608
33964SOL    HW2 3667   9.983  14.296   5.699
33965SOL     OW 3668   7.979  12.330  13.308
33965SOL    HW1 3669   7.889  12.316  13.336
33965SOL    HW2 3670   8.022  12.245  13.317
33966SOL     OW 3671   6.161  10.952  11.148
33966SOL    HW1 3672   6.149  11.025  11.209
33966SOL    HW2 3673   6.235  10.903  11.183
33967SOL     OW 3674   8.273  14.379  13.504
33967SOL    HW1 3675   8.260  14.347  13.593
33967SOL    HW2 3676   8.185  14.397  13.471
33968SOL     OW 3677   6.059   9.220   1.948
33968SOL    HW1 3678   6.140   9.224   1.999
33968SOL    HW2 3679   6.053   9.306   1.907
33969SOL     OW 3680   6.654  13.605  10.237
33969SOL    HW1 3681   6.695  13.690  10.226
33969SOL    HW2 3682   6.715  13.555  10.292
33970SOL     OW 3683  12.191   2.302   7.928
33970SOL    HW1 3684  12.151   2.259   8.003
33970SOL    HW2 3685  12.285   2.281   7.936
33971SOL     OW 3686  11.718   9.768  11.312
33971SOL    HW1 3687  11.752   9.772  11.223
33971SOL    HW2 3688  11.794   9.749  11.367
33972SOL     OW 3689   0.289   0.348   8.873
33972SOL    HW1 3690   0.224   0.284   8.845
33972SOL    HW2 3691   0.370   0.319   8.832
33973SOL     OW 3692   1.786  11.494   7.133
33973SOL    HW1 3693   1.747  11.546   7.063
33973SOL    HW2 3694   1.741  11.410   7.129
33974SOL     OW 3695  11.419   3.634  14.353
33974SOL    HW1 3696  11.410   3.691  14.276
33974SOL    HW2 3697  11.497   3.666  14.398
33975SOL     OW 3698   8.683  10.928   3.553
33975SOL    HW1 3699   8.608  10.907   3.609
33975SOL    HW2 3700   8.645  10.975   3.478
33976SOL     OW 3701   6.592   5.328   5.067
33976SOL    HW1 3702   6.573   5.407   5.016
33976SOL    HW2 3703   6.512   5.312   5.116
33977SOL     OW 3704   6.908   9.593   3.002
33977SOL    HW1 3705   6.929   9.513   2.953
33977SOL    HW2 3706   6.814   9.604   2.991
33978SOL     OW 3707   4.485  10.625   6.032
33978SOL    HW1 3708   4.429  10.618   6.109
33978SOL    HW2 3709   4.508  10.535   6.011
33979SOL     OW 3710   3.540   4.220  12.211
33979SOL    HW1 3711   3.516   4.199  12.301
33979SOL    HW2 3712   3.490   4.299  12.190
33980SOL     OW 3713   2.922   1.280  10.087
33980SOL    HW1 3714   2.923   1.306   9.995
33980SOL    HW2 3715   3.011   1.297  10.118
33981SOL     OW 3716  14.028  13.310  14.273
33981SOL    HW1 3717  14.045  13.325  14.180
33981SOL    HW2 3718  14.021  13.214  14.281
33982SOL     OW 3719  12.158   8.356   6.340
33982SOL    HW1 3720  12.201   8.276   6.311
33982SOL    HW2 3721  12.175   8.359   6.434
33983SOL     OW 3722   2.093   5.400   7.155
33983SOL    HW1 3723   2.004   5.434   7.141
33983SOL    HW2 3724   2.086   5.307   7.133
33984SOL     OW 3725  11.789   8.630  10.220
33984SOL    HW1 3726  11.833   8.701  10.172
33984SOL    HW2 3727  11.858   8.567  10.240
33985SOL     OW 3728   6.976  10.707  10.764
33985SOL    HW1 3729   7.024  10.704  10.681
33985SOL    HW2 3730   6.968  10.800  10.785
33986SOL     OW 3731   8.639  11.671  13.470
33986SOL    HW1 3732   8.710  11.729  13.499
33986SOL    HW2 3733   8.586  11.658  13.548
33987SOL     OW 3734   5.307  11.474  13.489
33987SOL    HW1 3735   5.335  11.566  13.486
33987SOL    HW2 3736   5.308  11.453  13.583
33988SOL     OW 3737  13.294  11.331   2.120
33988SOL    HW1 3738  13.272  11.268   2.188
33988SOL    HW2 3739  13.312  11.412   2.168
33989SOL     OW 3740  14.517   8.234   8.301
33989SOL    HW1 3741  14.553   8.287   8.230
33989SOL    HW2 3742  14.472   8.162   8.256
33990SOL     OW 3743   6.412   0.833   7.786
33990SOL    HW1 3744   6.331   0.882   7.768
33990SOL    HW2 3745   6.444   0.807   7.700
33991SOL     OW 3746   5.632  14.245  11.132
33991SOL    HW1 3747   5.573  14.320  11.120
33991SOL    HW2 3748   5.573  14.171  11.143
33992SOL     OW 3749   0.122   6.267   6.487
33992SOL    HW1 3750   0.073   6.187   6.466
33992SOL    HW2 3751   0.211   6.249   6.458
33993SOL     OW 3752   5.411   4.513  12.108
33993SOL    HW1 3753   5.409   4.482  12.199
33993SOL    HW2 3754   5.363   4.448  12.059
33994SOL     OW 3755   8.325  13.807  13.470
33994SOL    HW1 3756   8.314  13.883  13.412
33994SOL    HW2 3757   8.420  13.793  13.472
33995SOL     OW 3758   2.734   4.614  10.320
33995SOL    HW1 3759   2.704   4.633  10.231
33995SOL    HW2 3760   2.827   4.596  10.310
33996SOL     OW 3761  11.721   7.839  10.118
33996SOL    HW1 3762  11.727   7.766  10.055
33996SOL    HW2 3763  11.725   7.796  10.204
33997SOL     OW 3764   0.932   4.913   8.605
33997SOL    HW1 3765   0.971   4.947   8.685
33997SOL    HW2 3766   0.838   4.919   8.618
33998SOL     OW 3767  14.752   6.180   7.357
33998SOL    HW1 3768  14.760   6.198   7.264
33998SOL    HW2 3769  14.686   6.242   7.388
33999SOL     OW 3770  14.711  13.611  13.622
33999SOL    HW1 3771  14.631  13.588  13.670
33999SOL    HW2 3772  14.781  13.566  13.668
34000SOL     OW 3773   6.783  11.686   9.158
34000SOL    HW1 3774   6.875  11.672   9.176
34000SOL    HW2 3775   6.781  11.759   9.096
34001SOL     OW 3776   7.563   5.801   4.394
34001SOL    HW1 3777   7.505   5.871   4.423
34001SOL    HW2 3778   7.636   5.846   4.351
34002SOL     OW 3779   8.598   6.535   1.753
34002SOL    HW1 3780   8.657   6.609   1.760
34002SOL    HW2 3781   8.551   6.550   1.671
34003SOL     OW 3782   0.408  10.067   8.250
34003SOL    HW1 3783   0.375  10.015   8.323
34003SOL    HW2 3784   0.487  10.021   8.222
34004SOL     OW 3785  14.250   9.458  13.476
34004SOL    HW1 3786  14.309   9.499  13.539
34004SOL    HW2 3787  14.275   9.365  13.477
34005SOL     OW 3788   3.401   8.282   6.008
34005SOL    HW1 3789   3.422   8.209   6.066
34005SOL    HW2 3790   3.402   8.359   6.065
34006SOL     OW 3791   0.923  12.935   7.511
34006SOL    HW1 3792   0.827  12.932   7.510
34006SOL    HW2 3793   0.947  12.967   7.424
34007SOL     OW 3794  12.497   7.831   4.090
34007SOL    HW1 3795  12.414   7.867   4.121
34007SOL    HW2 3796  12.536   7.790   4.166
34008SOL     OW 3797   7.143  10.201  13.522
34008SOL    HW1 3798   7.082  10.137  13.485
34008SOL    HW2 3799   7.108  10.286  13.496
34009SOL     OW 3800  14.484  14.370   6.091
34009SOL    HW1 3801  14.447  14.420   6.018
34009SOL    HW2 3802  14.579  14.383   6.083
34010SOL     OW 3803   1.403  12.117   3.051
34010SOL    HW1 3804   1.436  12.034   3.087
34010SOL    HW2 3805   1.317  12.128   3.091
34011SOL     OW 3806  11.835   9.680  12.694
34011SOL    HW1 3807  11.925   9.685  12.663
34011SOL    HW2 3808  11.786   9.641  12.621
34012SOL     OW 3809   7.719   5.179   6.402
34012SOL    HW1 3810   7.769   5.098   6.396
34012SOL    HW2 3811   7.635   5.158   6.360
34013SOL     OW 3812  13.880   8.249   0.583
34013SOL    HW1 3813  13.954   8.228   0.526
34013SOL    HW2 3814  13.908   8.220   0.670
34014SOL     OW 3815   3.731   4.310   7.404
34014SOL    HW1 3816   3.738   4.328   7.498
34014SOL    HW2 3817   3.750   4.217   7.395
34015SOL     OW 3818   4.468   6.083  14.634
34015SOL    HW1 3819   4.524   6.154  14.666
34015SOL    HW2 3820   4.410   6.124  14.571
34016SOL     OW 3821  13.324   5.024  13.729
34016SOL    HW1 3822  13.394   5.073  13.772
34016SOL    HW2 3823  13.345   4.932  13.745
34017SOL     OW 3824  11.546   9.820   6.702
34017SOL    HW1 3825  11.585   9.906   6.689
34017SOL    HW2 3826  11.592   9.783   6.777
34018SOL     OW 3827   7.122   5.776  13.784
34018SOL    HW1 3828   7.187   5.802  13.849
34018SOL    HW2 3829   7.142   5.829  13.707
34019SOL     OW 3830   4.092  10.400   9.718
34019SOL    HW1 3831   4.143  10.404   9.800
34019SOL    HW2 3832   4.115  10.315   9.680
34020SOL     OW 3833   8.495   5.903   0.294
34020SOL    HW1 3834   8.562   5.858   0.243
34020SOL    HW2 3835   8.418   5.904   0.237
34021SOL     OW 3836   0.961  11.893   6.182
34021SOL    HW1 3837   1.050  11.861   6.172
34021SOL    HW2 3838   0.907  11.829   6.136
34022SOL     OW 3839   0.785  10.191   6.443
34022SOL    HW1 3840   0.774  10.105   6.484
34022SOL    HW2 3841   0.719  10.246   6.484
34023SOL     OW 3842   0.426  13.856   9.177
34023SOL    HW1 3843   0.360  13.895   9.234
34023SOL    HW2 3844   0.471  13.931   9.138
34024SOL     OW 3845   3.021  12.928  10.567
34024SOL    HW1 3846   2.925  12.925  10.562
34024SOL    HW2 3847   3.041  13.020  10.585
34025SOL     OW 3848   6.350  12.140  13.121
34025SOL    HW1 3849   6.283  12.113  13.183
34025SOL    HW2 3850   6.322  12.227  13.092
34026SOL     OW 3851  14.226   3.155   3.010
34026SOL    HW1 3852  14.184   3.200   3.083
34026SOL    HW2 3853  14.176   3.181   2.933
34027SOL     OW 3854   6.033   2.900  12.082
34027SOL    HW1 3855   6.050   2.859  12.166
34027SOL    HW2 3856   5.972   2.971  12.102
34028SOL     OW 3857   4.710  10.626   9.738
34028SOL    HW1 3858   4.736  10.539   9.710
34028SOL    HW2 3859   4.776  10.650   9.804
34029SOL     OW 3860   1.195  13.316   5.619
34029SOL    HW1 3861   1.159  13.231   5.645
34029SOL    HW2 3862   1.248  13.296   5.542
34030SOL     OW 3863  14.496   1.612   0.285
34030SOL    HW1 3864  14.573   1.577   0.328
34030SOL    HW2 3865  14.529   1.647   0.202
34031SOL     OW 3866   7.163   8.028   0.937
34031SOL    HW1 3867   7.086   7.985   0.899
34031SOL    HW2 3868   7.127   8.097   0.993
34032SOL     OW 3869   9.732   4.872   9.613
34032SOL    HW1 3870   9.811   4.818   9.619
34032SOL    HW2 3871   9.723   4.913   9.699
34033SOL     OW 3872   0.925   8.371   9.411
34033SOL    HW1 3873   0.876   8.412   9.340
34033SOL    HW2 3874   0.868   8.377   9.487
34034SOL     OW 3875   5.426   5.218   9.897
34034SOL    HW1 3876   5.374   5.231   9.817
34034SOL    HW2 3877   5.514   5.198   9.865
34035SOL     OW 3878   3.258   8.315   6.917
34035SOL    HW1 3879   3.340   8.327   6.965
34035SOL    HW2 3880   3.255   8.221   6.899
34036SOL     OW 3881   9.189  13.337  10.652
34036SOL    HW1 3882   9.191  13.432  10.656
34036SOL    HW2 3883   9.202  13.308  10.742
34037SOL     OW 3884   5.343  13.972  14.759
34037SOL    HW1 3885   5.396  13.957  14.680
34037SOL    HW2 3886   5.308  13.885  14.781
34038SOL     OW 3887   3.802   2.387   7.328
34038SOL    HW1 3888   3.854   2.312   7.299
34038SOL    HW2 3889   3.830   2.459   7.271
34039SOL     OW 3890   2.534  10.175   0.455
34039SOL    HW1 3891   2.575  10.097   0.416
34039SOL    HW2 3892   2.604  10.215   0.507
34040SOL     OW 3893  10.269   5.356   4.062
34040SOL    HW1 3894  10.220   5.433   4.088
34040SOL    HW2 3895  10.214   5.313   3.997
34041SOL     OW 3896   9.193   9.689   6.870
34041SOL    HW1 3897   9.244   9.681   6.951
34041SOL    HW2 3898   9.217   9.611   6.819
34042SOL     OW 3899  13.896  10.512  13.318
34042SOL    HW1 3900  13.805  10.530  13.341
34042SOL    HW2 3901  13.947  10.574  13.370
34043SOL     OW 3902  12.447   5.491  14.856
34043SOL    HW1 3903  12.490   5.574  14.833
34043SOL    HW2 3904  12.369   5.488  14.801
34044SOL     OW 3905  12.002   2.005   1.840
34044SOL    HW1 3906  11.984   1.987   1.748
34044SOL    HW2 3907  11.969   1.929   1.887
34045SOL     OW 3908   1.097   8.007  11.810
34045SOL    HW1 3909   1.060   8.073  11.751
34045SOL    HW2 3910   1.191   8.008  11.789
34046SOL     OW 3911  13.596  13.543  11.037
34046SOL    HW1 3912  13.689  13.561  11.022
34046SOL    HW2 3913  13.585  13.551  11.132
34047SOL     OW 3914   1.793   2.912   9.181
34047SOL    HW1 3915   1.704   2.881   9.193
34047SOL    HW2 3916   1.799   2.933   9.087
34048SOL     OW 3917  11.118   5.146  14.497
34048SOL    HW1 3918  11.133   5.172  14.587
34048SOL    HW2 3919  11.196   5.094  14.474
34049SOL     OW 3920  12.093   4.253   8.897
34049SOL    HW1 3921  12.044   4.324   8.939
34049SOL    HW2 3922  12.077   4.177   8.952
34050SOL     OW 3923   4.812  12.619   8.361
34050SOL    HW1 3924   4.900  12.589   8.383
34050SOL    HW2 3925   4.757  12.542   8.375
34051SOL     OW 3926  12.024   3.622   2.281
34051SOL    HW1 3927  12.109   3.580   2.270
34051SOL    HW2 3928  12.044   3.708   2.317
34052SOL     OW 3929  12.013   0.476   0.216
34052SOL    HW1 3930  12.037   0.386   0.195
34052SOL    HW2 3931  11.931   0.491   0.169
34053SOL     OW 3932   0.589   7.245  11.945
34053SOL    HW1 3933   0.636   7.315  11.898
34053SOL    HW2 3934   0.499   7.252  11.914
34054SOL     OW 3935  14.689   4.507   1.229
34054SOL    HW1 3936  14.738   4.431   1.259
34054SOL    HW2 3937  14.601   4.496   1.264
34055SOL     OW 3938   8.818   8.948  10.554
34055SOL    HW1 3939   8.752   8.888  10.588
34055SOL    HW2 3940   8.868   8.975  10.631
34056SOL     OW 3941   6.930  14.620  11.334
34056SOL    HW1 3942   6.882  14.602  11.415
34056SOL    HW2 3943   6.983  14.541  11.319
34057SOL     OW 3944   0.911   3.210   4.016
34057SOL    HW1 3945   0.820   3.233   4.033
34057SOL    HW2 3946   0.910   3.166   3.931
34058SOL     OW 3947   0.880   7.834   4.486
34058SOL    HW1 3948   0.960   7.858   4.439
34058SOL    HW2 3949   0.811   7.884   4.444
34059SOL     OW 3950   8.620   3.621   8.494
34059SOL    HW1 3951   8.666   3.556   8.441
34059SOL    HW2 3952   8.688   3.664   8.545
34060SOL     OW 3953   6.575   9.516   4.583
34060SOL    HW1 3954   6.635   9.547   4.515
34060SOL    HW2 3955   6.581   9.582   4.653
34061SOL     OW 3956  11.783   6.741   1.109
34061SOL    HW1 3957  11.726   6.756   1.034
34061SOL    HW2 3958  11.725   6.704   1.176
34062SOL     OW 3959  12.388   4.390   6.003
34062SOL    HW1 3960  12.401   4.419   5.913
34062SOL    HW2 3961  12.390   4.470   6.055
34063SOL     OW 3962  14.649  10.214  12.524
34063SOL    HW1 3963  14.563  10.251  12.544
34063SOL    HW2 3964  14.692  10.204  12.609
34064SOL     OW 3965  10.707  14.195  13.186
34064SOL    HW1 3966  10.665  14.109  13.178
34064SOL    HW2 3967  10.669  14.233  13.265
34065SOL     OW 3968   0.610  10.604  11.170
34065SOL    HW1 3969   0.622  10.518  11.129
34065SOL    HW2 3970   0.538  10.591  11.232
34066SOL     OW 3971   9.236   9.615   5.238
34066SOL    HW1 3972   9.324   9.608   5.277
34066SOL    HW2 3973   9.202   9.699   5.269
34067SOL     OW 3974   9.946   6.543   8.357
34067SOL    HW1 3975   9.864   6.496   8.340
34067SOL    HW2 3976   9.919   6.634   8.371
34068SOL     OW 3977   7.245  12.827  11.341
34068SOL    HW1 3978   7.315  12.893  11.331
34068SOL    HW2 3979   7.181  12.869  11.397
34069SOL     OW 3980   6.703   1.637  12.813
34069SOL    HW1 3981   6.724   1.580  12.887
34069SOL    HW2 3982   6.770   1.705  12.816
34070SOL     OW 3983   0.785   4.294   4.620
34070SOL    HW1 3984   0.830   4.210   4.634
34070SOL    HW2 3985   0.692   4.270   4.614
34071SOL     OW 3986   3.571   3.668   5.616
34071SOL    HW1 3987   3.500   3.644   5.675
34071SOL    HW2 3988   3.587   3.590   5.564
34072SOL     OW 3989   1.560   4.264  12.906
34072SOL    HW1 3990   1.530   4.179  12.939
34072SOL    HW2 3991   1.488   4.324  12.924
34073SOL     OW 3992   9.575   3.151   8.218
34073SOL    HW1 3993   9.526   3.209   8.160
34073SOL    HW2 3994   9.508   3.101   8.264
34074SOL     OW 3995  12.433   4.820   6.340
34074SOL    HW1 3996  12.509   4.843   6.393
34074SOL    HW2 3997  12.361   4.816   6.403
34075SOL     OW 3998   2.990  14.474   2.710
34075SOL    HW1 3999   2.928  14.492   2.639
34075SOL    HW2 4000   2.944  14.500   2.789
34076SOL     OW 4001   9.018  14.645   5.535
34076SOL    HW1 4002   9.031  14.722   5.591
34076SOL    HW2 4003   8.936  14.662   5.490
34077SOL     OW 4004  13.707  10.093  12.690
34077SOL    HW1 4005  13.644  10.059  12.753
34077SOL    HW2 4006  13.753  10.163  12.737
34078SOL     OW 4007   3.961   1.729  14.829
34078SOL    HW1 4008   3.868   1.706  14.823
34078SOL    HW2 4009   4.003   1.651  14.866
34079SOL     OW 4010   4.718   7.069   2.581
34079SOL    HW1 4011   4.750   6.980   2.566
34079SOL    HW2 4012   4.761   7.122   2.514
34080SOL     OW 4013  11.959  11.111  10.724
34080SOL    HW1 4014  11.967  11.016  10.719
34080SOL    HW2 4015  12.017  11.136  10.796
34081SOL     OW 4016   5.421   3.258   9.629
34081SOL    HW1 4017   5.417   3.349   9.599
34081SOL    HW2 4018   5.414   3.264   9.724
34082SOL     OW 4019   0.513   6.156  12.481
34082SOL    HW1 4020   0.491   6.065  12.501
34082SOL    HW2 4021   0.431   6.203  12.492
34083SOL     OW 4022  11.622   7.406  10.268
34083SOL    HW1 4023  11.651   7.407  10.359
34083SOL    HW2 4024  11.646   7.319  10.236
34084SOL     OW 4025  14.654   7.330  11.062
34084SOL    HW1 4026  14.636   7.409  11.112
34084SOL    HW2 4027  14.703   7.360  10.985
34085SOL     OW 4028   8.366   6.599   3.884
34085SOL    HW1 4029   8.364   6.597   3.788
34085SOL    HW2 4030   8.318   6.521   3.911
34086SOL     OW 4031  13.241   0.676   9.579
34086SOL    HW1 4032  13.305   0.740   9.549
34086SOL    HW2 4033  13.177   0.671   9.507
34087SOL     OW 4034  10.051   9.549   7.048
34087SOL    HW1 4035  10.026   9.470   7.095
34087SOL    HW2 4036  10.004   9.543   6.965
34088SOL     OW 4037   3.373  12.539   9.064
34088SOL    HW1 4038   3.366  12.478   8.991
34088SOL    HW2 4039   3.289  12.531   9.110
34089SOL     OW 4040   2.001   2.495  12.350
34089SOL    HW1 4041   2.009   2.574  12.403
34089SOL    HW2 4042   2.026   2.522  12.262
34090SOL     OW 4043  10.488   4.882  13.794
34090SOL    HW1 4044  10.420   4.949  13.782
34090SOL    HW2 4045  10.458   4.831  13.869
34091SOL     OW 4046   9.807  12.989   3.965
34091SOL    HW1 4047   9.736  12.928   3.948
34091SOL    HW2 4048   9.859  12.948   4.033
34092SOL     OW 4049   9.874  10.704   5.699
34092SOL    HW1 4050   9.810  10.676   5.764
34092SOL    HW2 4051   9.890  10.797   5.719
34093SOL     OW 4052   0.400   5.703  10.330
34093SOL    HW1 4053   0.433   5.782  10.287
34093SOL    HW2 4054   0.449   5.632  10.290
34094SOL     OW 4055  10.040   4.764  12.887
34094SOL    HW1 4056  10.025   4.689  12.945
34094SOL    HW2 4057  10.136   4.766  12.876
34095SOL     OW 4058   3.139  11.329   1.246
34095SOL    HW1 4059   3.110  11.294   1.162
34095SOL    HW2 4060   3.122  11.423   1.239
34096SOL     OW 4061  12.312   1.517   4.079
34096SOL    HW1 4062  12.224   1.510   4.116
34096SOL    HW2 4063  12.364   1.452   4.126
34097SOL     OW 4064   4.305   3.382   2.860
34097SOL    HW1 4065   4.303   3.286   2.856
34097SOL    HW2 4066   4.226   3.409   2.814
34098SOL     OW 4067   0.444   8.673   6.616
34098SOL    HW1 4068   0.449   8.613   6.691
34098SOL    HW2 4069   0.519   8.649   6.561
34099SOL     OW 4070   3.530  13.747   7.417
34099SOL    HW1 4071   3.466  13.811   7.447
34099SOL    HW2 4072   3.611  13.770   7.462
34100SOL     OW 4073  11.741   8.969   5.587
34100SOL    HW1 4074  11.715   9.060   5.580
34100SOL    HW2 4075  11.837   8.971   5.579
34101SOL     OW 4076   7.167  10.551   7.235
34101SOL    HW1 4077   7.185  10.628   7.289
34101SOL    HW2 4078   7.238  10.490   7.257
34102SOL     OW 4079   6.765   2.713   9.333
34102SOL    HW1 4080   6.835   2.675   9.387
34102SOL    HW2 4081   6.724   2.778   9.389
34103SOL     OW 4082  14.775  10.929   6.949
34103SOL    HW1 4083  14.765  10.883   6.866
34103SOL    HW2 4084  14.776  11.022   6.925
34104SOL     OW 4085  10.718   7.909  13.422
34104SOL    HW1 4086  10.693   8.001  13.430
34104SOL    HW2 4087  10.705   7.889  13.329
34105SOL     OW 4088  14.293  14.105  14.042
34105SOL    HW1 4089  14.272  14.017  14.011
34105SOL    HW2 4090  14.209  14.150  14.047
34106SOL     OW 4091  10.675   3.465   5.943
34106SOL    HW1 4092  10.640   3.432   6.026
34106SOL    HW2 4093  10.623   3.422   5.876
34107SOL     OW 4094   2.294  13.928   6.783
34107SOL    HW1 4095   2.353  13.973   6.722
34107SOL    HW2 4096   2.251  13.999   6.831
34108SOL     OW 4097   0.722   4.585   3.757
34108SOL    HW1 4098   0.788   4.598   3.825
34108SOL    HW2 4099   0.650   4.540   3.801
34109SOL     OW 4100   3.926   6.509   9.015
34109SOL    HW1 4101   3.865   6.583   9.019
34109SOL    HW2 4102   3.975   6.514   9.097
34110SOL     OW 4103   4.370   5.685   0.201
34110SOL    HW1 4104   4.387   5.662   0.110
34110SOL    HW2 4105   4.447   5.735   0.228
34111SOL     OW 4106   2.798  12.525   4.450
34111SOL    HW1 4107   2.855  12.601   4.462
34111SOL    HW2 4108   2.841  12.473   4.382
34112SOL     OW 4109   1.601  11.253  11.009
34112SOL    HW1 4110   1.673  11.295  11.057
34112SOL    HW2 4111   1.644  11.187  10.955
34113SOL     OW 4112   7.215  13.700   9.508
34113SOL    HW1 4113   7.246  13.624   9.460
34113SOL    HW2 4114   7.295  13.748   9.529
34114SOL     OW 4115  12.292   0.974   3.671
34114SOL    HW1 4116  12.219   0.924   3.634
34114SOL    HW2 4117  12.348   0.908   3.711
34115SOL     OW 4118   6.948   8.295   9.469
34115SOL    HW1 4119   6.982   8.328   9.386
34115SOL    HW2 4120   6.925   8.373   9.519
34116SOL     OW 4121   3.495   2.345   8.017
34116SOL    HW1 4122   3.457   2.284   8.080
34116SOL    HW2 4123   3.572   2.300   7.984
34117SOL     OW 4124   7.547   9.748  10.897
34117SOL    HW1 4125   7.578   9.658  10.905
34117SOL    HW2 4126   7.456   9.745  10.927
34118SOL     OW 4127   5.469  11.389   4.737
34118SOL    HW1 4128   5.425  11.469   4.708
34118SOL    HW2 4129   5.498  11.347   4.655
34119SOL     OW 4130   7.723  10.770   6.628
34119SOL    HW1 4131   7.637  10.808   6.649
34119SOL    HW2 4132   7.745  10.807   6.542
34120SOL     OW 4133   9.173   9.511   2.822
34120SOL    HW1 4134   9.234   9.507   2.895
34120SOL    HW2 4135   9.229   9.516   2.744
34121SOL     OW 4136   8.003   8.410  12.184
34121SOL    HW1 4137   7.914   8.374  12.185
34121SOL    HW2 4138   8.055   8.344  12.139
34122SOL     OW 4139   4.551   9.622   2.470
34122SOL    HW1 4140   4.535   9.557   2.401
34122SOL    HW2 4141   4.638   9.600   2.504
34123SOL     OW 4142  11.208   7.710  14.581
34123SOL    HW1 4143  11.256   7.667  14.509
34123SOL    HW2 4144  11.158   7.780  14.538
34124SOL     OW 4145   1.200   6.977   5.139
34124SOL    HW1 4146   1.198   7.018   5.225
34124SOL    HW2 4147   1.185   7.049   5.078
34125SOL     OW 4148   5.975  13.849   5.345
34125SOL    HW1 4149   5.935  13.806   5.421
34125SOL    HW2 4150   5.986  13.940   5.372
34126SOL     OW 4151  11.001   7.798   6.571
34126SOL    HW1 4152  10.973   7.890   6.565
34126SOL    HW2 4153  10.925   7.753   6.609
34127SOL     OW 4154  12.841  11.395   8.002
34127SOL    HW1 4155  12.845  11.466   7.939
34127SOL    HW2 4156  12.904  11.419   8.070
34128SOL     OW 4157   4.613  12.067   2.710
34128SOL    HW1 4158   4.539  12.128   2.719
34128SOL    HW2 4159   4.608  12.037   2.620
34129SOL     OW 4160   7.291   0.919  14.481
34129SOL    HW1 4161   7.298   1.004  14.437
34129SOL    HW2 4162   7.250   0.939  14.565
34130SOL     OW 4163   0.236   5.406  13.156
34130SOL    HW1 4164   0.183   5.463  13.100
34130SOL    HW2 4165   0.297   5.466  13.199
34131SOL     OW 4166   2.766   6.797  11.547
34131SOL    HW1 4167   2.706   6.866  11.518
34131SOL    HW2 4168   2.714   6.717  11.543
34132SOL     OW 4169  12.035   9.312   4.023
34132SOL    HW1 4170  12.087   9.392   4.026
34132SOL    HW2 4171  12.098   9.241   4.034
34133SOL     OW 4172   5.991   6.820   0.956
34133SOL    HW1 4173   6.059   6.833   1.022
34133SOL    HW2 4174   6.006   6.890   0.892
34134SOL     OW 4175  14.658  12.539  14.363
34134SOL    HW1 4176  14.720  12.547  14.290
34134SOL    HW2 4177  14.713  12.511  14.437
34135SOL     OW 4178   0.133   1.440   8.621
34135SOL    HW1 4179   0.039   1.424   8.615
34135SOL    HW2 4180   0.141   1.536   8.625
34136SOL     OW 4181   0.047  10.075   3.873
34136SOL    HW1 4182   0.136  10.055   3.844
34136SOL    HW2 4183   0.040  10.170   3.865
34137SOL     OW 4184   4.185   9.898   6.092
34137SOL    HW1 4185   4.109   9.923   6.144
34137SOL    HW2 4186   4.258   9.896   6.154
34138SOL     OW 4187   7.680   9.463   3.332
34138SOL    HW1 4188   7.698   9.452   3.238
34138SOL    HW2 4189   7.765   9.454   3.374
34139SOL     OW 4190  13.664   7.129   2.815
34139SOL    HW1 4191  13.668   7.061   2.748
34139SOL    HW2 4192  13.707   7.090   2.891
34140SOL     OW 4193  12.134  13.978  11.099
34140SOL    HW1 4194  12.069  13.946  11.162
34140SOL    HW2 4195  12.085  14.036  11.041
34141SOL     OW 4196   8.602   6.703   6.766
34141SOL    HW1 4197   8.623   6.796   6.768
34141SOL    HW2 4198   8.545   6.693   6.690
34142SOL     OW 4199  11.212  10.363  12.321
34142SOL    HW1 4200  11.144  10.356  12.253
34142SOL    HW2 4201  11.290  10.391  12.273
34143SOL     OW 4202  12.213  10.115   6.723
34143SOL    HW1 4203  12.193  10.202   6.759
34143SOL    HW2 4204  12.143  10.059   6.754
34144SOL     OW 4205   2.136   6.226   7.908
34144SOL    HW1 4206   2.058   6.279   7.921
34144SOL    HW2 4207   2.125   6.152   7.967
34145SOL     OW 4208  13.041  10.196  13.135
34145SOL    HW1 4209  12.994  10.278  13.114
34145SOL    HW2 4210  13.124  10.225  13.172
34146SOL     OW 4211  14.342  11.772   0.390
34146SOL    HW1 4212  14.343  11.858   0.348
34146SOL    HW2 4213  14.386  11.786   0.474
34147SOL     OW 4214   2.445   4.055  14.725
34147SOL    HW1 4215   2.506   4.010  14.666
34147SOL    HW2 4216   2.494   4.065  14.807
34148SOL     OW 4217  14.373   1.609  11.620
34148SOL    HW1 4218  14.398   1.527  11.576
34148SOL    HW2 4219  14.277   1.604  11.626
34149SOL     OW 4220   3.415   2.220   4.648
34149SOL    HW1 4221   3.409   2.148   4.711
34149SOL    HW2 4222   3.482   2.277   4.685
34150SOL     OW 4223   1.946  14.795  12.028
34150SOL    HW1 4224   1.966  14.703  12.010
34150SOL    HW2 4225   2.010  14.844  11.977
34151SOL     OW 4226  11.644   9.380   5.775
34151SOL    HW1 4227  11.684   9.464   5.798
34151SOL    HW2 4228  11.687   9.317   5.833
34152SOL     OW 4229   7.357  12.663   3.009
34152SOL    HW1 4230   7.340  12.625   2.923
34152SOL    HW2 4231   7.436  12.715   2.997
34153SOL     OW 4232   4.381   7.034   1.274
34153SOL    HW1 4233   4.410   7.020   1.364
34153SOL    HW2 4234   4.400   6.952   1.229
34154SOL     OW 4235   1.184   8.309   3.111
34154SOL    HW1 4236   1.279   8.314   3.112
34154SOL    HW2 4237   1.157   8.373   3.044
34155SOL     OW 4238   8.451   2.077  11.340
34155SOL    HW1 4239   8.422   2.032  11.260
34155SOL    HW2 4240   8.484   2.161  11.309
34156SOL     OW 4241   6.602   2.503  11.249
34156SOL    HW1 4242   6.568   2.571  11.191
34156SOL    HW2 4243   6.637   2.550  11.325
34157SOL     OW 4244  10.362   1.032  11.559
34157SOL    HW1 4245  10.388   1.113  11.514
34157SOL    HW2 4246  10.426   1.022  11.629
34158SOL     OW 4247   1.891   3.791  11.732
34158SOL    HW1 4248   1.813   3.766  11.781
34158SOL    HW2 4249   1.935   3.854  11.789
34159SOL     OW 4250   8.746   5.083   3.541
34159SOL    HW1 4251   8.677   5.048   3.597
34159SOL    HW2 4252   8.734   5.178   3.544
34160SOL     OW 4253   6.361  13.317   0.499
34160SOL    HW1 4254   6.345  13.274   0.415
34160SOL    HW2 4255   6.452  13.347   0.493
34161SOL     OW 4256  13.842   7.367   3.276
34161SOL    HW1 4257  13.875   7.422   3.348
34161SOL    HW2 4258  13.847   7.423   3.199
34162SOL     OW 4259   0.457  13.922  10.606
34162SOL    HW1 4260   0.511  13.909  10.528
34162SOL    HW2 4261   0.484  14.006  10.641
34163SOL     OW 4262   8.234   2.418   3.604
34163SOL    HW1 4263   8.171   2.464   3.548
34163SOL    HW2 4264   8.318   2.430   3.559
34164SOL     OW 4265  14.467  10.658  13.842
34164SOL    HW1 4266  14.531  10.634  13.908
34164SOL    HW2 4267  14.423  10.736  13.877
34165SOL     OW 4268   3.756   6.165   4.045
34165SOL    HW1 4269   3.746   6.249   4.091
34165SOL    HW2 4270   3.850   6.150   4.043
34166SOL     OW 4271   6.159   8.830   6.977
34166SOL    HW1 4272   6.219   8.887   7.026
34166SOL    HW2 4273   6.184   8.741   7.003
34167SOL     OW 4274   9.914  12.200   1.047
34167SOL    HW1 4275   9.837  12.190   1.103
34167SOL    HW2 4276   9.946  12.288   1.067
34168SOL     OW 4277   9.929  12.280   4.720
34168SOL    HW1 4278   9.999  12.282   4.786
34168SOL    HW2 4279   9.973  12.251   4.640
34169SOL     OW 4280  14.184   7.696  14.433
34169SOL    HW1 4281  14.177   7.708  14.338
34169SOL    HW2 4282  14.095   7.673  14.460
34170SOL     OW 4283  11.674   6.504   7.889
34170SOL    HW1 4284  11.668   6.597   7.868
34170SOL    HW2 4285  11.756   6.475   7.849
34171SOL     OW 4286  10.848   5.638   0.801
34171SOL    HW1 4287  10.867   5.730   0.783
34171SOL    HW2 4288  10.764   5.622   0.759
34172SOL     OW 4289   5.868  14.525   5.149
34172SOL    HW1 4290   5.928  14.579   5.098
34172SOL    HW2 4291   5.921  14.451   5.178
34173SOL     OW 4292  14.851  14.842  14.328
34173SOL    HW1 4293  14.786   0.002  14.272
34173SOL    HW2 4294   0.046  14.829  14.271
34174SOL     OW 4295  13.666   4.249   7.992
34174SOL    HW1 4296  13.679   4.302   7.913
34174SOL    HW2 4297  13.583   4.204   7.977
34175SOL     OW 4298  12.024   2.974  13.194
34175SOL    HW1 4299  12.054   3.063  13.177
34175SOL    HW2 4300  11.958   2.984  13.263
34176SOL     OW 4301   8.716  12.037   3.566
34176SOL    HW1 4302   8.754  12.092   3.634
34176SOL    HW2 4303   8.787  12.025   3.503
34177SOL     OW 4304   1.172   1.152   0.437
34177SOL    HW1 4305   1.144   1.243   0.430
34177SOL    HW2 4306   1.193   1.126   0.347
34178SOL     OW 4307   7.796  14.080  13.583
34178SOL    HW1 4308   7.723  14.132  13.551
34178SOL    HW2 4309   7.783  13.994  13.544
34179SOL     OW 4310   8.910  13.960   8.256
34179SOL    HW1 4311   8.981  13.898   8.270
34179SOL    HW2 4312   8.948  14.046   8.276
34180SOL     OW 4313  13.071  14.245   1.221
34180SOL    HW1 4314  13.103  14.236   1.311
34180SOL    HW2 4315  13.069  14.339   1.206
34181SOL     OW 4316   9.673   7.231  10.144
34181SOL    HW1 4317   9.638   7.320  10.146
34181SOL    HW2 4318   9.596   7.176  10.129
34182SOL     OW 4319   4.483  14.091   0.100
34182SOL    HW1 4320   4.514  14.009   0.060
34182SOL    HW2 4321   4.476  14.070   0.194
34183SOL     OW 4322   5.112  14.469   9.584
34183SOL    HW1 4323   5.017  14.470   9.577
34183SOL    HW2 4324   5.141  14.413   9.511
34184SOL     OW 4325  10.014   1.065  11.770
34184SOL    HW1 4326  10.105   1.071  11.797
34184SOL    HW2 4327   9.965   1.113  11.838
34185SOL     OW 4328   7.102   3.498   9.565
34185SOL    HW1 4329   7.053   3.550   9.502
34185SOL    HW2 4330   7.038   3.478   9.634
34186SOL     OW 4331  10.134  14.548   2.837
34186SOL    HW1 4332  10.219  14.506   2.836
34186SOL    HW2 4333  10.102  14.539   2.747
34187SOL     OW 4334   3.342   2.957  10.971
34187SOL    HW1 4335   3.393   2.980  10.893
34187SOL    HW2 4336   3.286   2.885  10.943
34188SOL     OW 4337   6.247   0.776  14.139
34188SOL    HW1 4338   6.294   0.734  14.210
34188SOL    HW2 4339   6.248   0.870  14.160
34189SOL     OW 4340  12.168   0.630   0.787
34189SOL    HW1 4341  12.212   0.694   0.731
34189SOL    HW2 4342  12.198   0.651   0.876
34190SOL     OW 4343  11.800  14.512  12.383
34190SOL    HW1 4344  11.783  14.547  12.295
34190SOL    HW2 4345  11.739  14.439  12.392
34191SOL     OW 4346   8.088  11.623  12.181
34191SOL    HW1 4347   8.005  11.623  12.133
34191SOL    HW2 4348   8.089  11.539  12.228
34192SOL     OW 4349  10.559   6.014   9.983
34192SOL    HW1 4350  10.483   5.963   9.955
34192SOL    HW2 4351  10.621   6.007   9.910
34193SOL     OW 4352   2.738  10.085   6.788
34193SOL    HW1 4353   2.762   9.999   6.822
34193SOL    HW2 4354   2.758  10.081   6.695
34194SOL     OW 4355   1.115   8.560   9.057
34194SOL    HW1 4356   1.061   8.515   9.122
34194SOL    HW2 4357   1.130   8.647   9.095
34195SOL     OW 4358   4.871   7.524   7.554
34195SOL    HW1 4359   4.956   7.493   7.524
34195SOL    HW2 4360   4.890   7.609   7.594
34196SOL     OW 4361   7.345  13.964  14.494
34196SOL    HW1 4362   7.331  13.874  14.467
34196SOL    HW2 4363   7.413  13.960  14.560
34197SOL     OW 4364   0.727   7.849  14.653
34197SOL    HW1 4365   0.650   7.905  14.663
34197SOL    HW2 4366   0.696   7.761  14.677
34198SOL     OW 4367   1.960   4.319   5.896
34198SOL    HW1 4368   1.939   4.271   5.976
34198SOL    HW2 4369   1.881   4.369   5.876
34199SOL     OW 4370   1.519   0.732   1.716
34199SOL    HW1 4371   1.529   0.642   1.746
34199SOL    HW2 4372   1.468   0.775   1.784
34200SOL     OW 4373   1.338   5.528  10.953
34200SOL    HW1 4374   1.411   5.527  10.891
34200SOL    HW2 4375   1.379   5.537  11.039
34201SOL     OW 4376  12.818  10.281  12.198
34201SOL    HW1 4377  12.838  10.188  12.193
34201SOL    HW2 4378  12.775  10.292  12.283
34202SOL     OW 4379  12.685   5.408  10.627
34202SOL    HW1 4380  12.594   5.434  10.641
34202SOL    HW2 4381  12.682   5.313  10.618
34203SOL     OW 4382  10.986   2.380   4.962
34203SOL    HW1 4383  11.051   2.377   5.032
34203SOL    HW2 4384  10.928   2.305   4.980
34204SOL     OW 4385   7.607   5.765  13.022
34204SOL    HW1 4386   7.524   5.793  12.982
34204SOL    HW2 4387   7.637   5.842  13.071
34205SOL     OW 4388  11.755   9.057  10.325
34205SOL    HW1 4389  11.720   9.086  10.241
34205SOL    HW2 4390  11.687   9.000  10.361
34206SOL     OW 4391   6.227   0.165  10.456
34206SOL    HW1 4392   6.297   0.120  10.502
34206SOL    HW2 4393   6.261   0.252  10.438
34207SOL     OW 4394  11.818  10.974   4.888
34207SOL    HW1 4395  11.777  10.979   4.801
34207SOL    HW2 4396  11.748  10.943   4.945
34208SOL     OW 4397   2.330   3.526   2.732
34208SOL    HW1 4398   2.369   3.501   2.648
34208SOL    HW2 4399   2.264   3.458   2.749
34209SOL     OW 4400   4.439   1.122   5.320
34209SOL    HW1 4401   4.365   1.082   5.365
34209SOL    HW2 4402   4.463   1.197   5.374
34210SOL     OW 4403  14.516  14.588  13.346
34210SOL    HW1 4404  14.600  14.564  13.307
34210SOL    HW2 4405  14.453  14.581  13.275
34211SOL     OW 4406   0.718   9.138  13.621
34211SOL    HW1 4407   0.647   9.119  13.560
34211SOL    HW2 4408   0.740   9.230  13.604
34212SOL     OW 4409  14.459   4.306   7.990
34212SOL    HW1 4410  14.387   4.369   7.995
34212SOL    HW2 4411  14.508   4.318   8.071
34213SOL     OW 4412  11.747   9.464  10.796
34213SOL    HW1 4413  11.676   9.400  10.789
34213SOL    HW2 4414  11.725   9.532  10.733
34214SOL     OW 4415   0.009   3.448  13.447
34214SOL    HW1 4416   0.085   3.495  13.480
34214SOL    HW2 4417  14.841   3.514  13.399
34215SOL     OW 4418   3.612  12.756   9.071
34215SOL    HW1 4419   3.619  12.804   8.989
34215SOL    HW2 4420   3.556  12.681   9.050
34216SOL     OW 4421   0.731   3.661  13.673
34216SOL    HW1 4422   0.703   3.574  13.644
34216SOL    HW2 4423   0.821   3.648  13.702
34217SOL     OW 4424  12.475   5.526  12.659
34217SOL    HW1 4425  12.554   5.561  12.617
34217SOL    HW2 4426  12.495   5.433  12.672
34218SOL     OW 4427   3.839  10.168   8.621
34218SOL    HW1 4428   3.842  10.238   8.556
34218SOL    HW2 4429   3.928  10.133   8.623
34219SOL     OW 4430   2.921  12.440   7.793
34219SOL    HW1 4431   2.838  12.419   7.751
34219SOL    HW2 4432   2.944  12.361   7.842
34220SOL     OW 4433   2.227   5.225   0.876
34220SOL    HW1 4434   2.191   5.210   0.963
34220SOL    HW2 4435   2.194   5.152   0.823
34221SOL     OW 4436  13.928  12.489   2.025
34221SOL    HW1 4437  13.846  12.455   2.060
34221SOL    HW2 4438  13.967  12.538   2.098
34222SOL     OW 4439   0.069  11.935   8.347
34222SOL    HW1 4440   0.054  11.918   8.254
34222SOL    HW2 4441  14.871  11.979   8.376
34223SOL     OW 4442  10.991  13.512   6.767
34223SOL    HW1 4443  10.989  13.608   6.763
34223SOL    HW2 4444  10.963  13.484   6.680
34224SOL     OW 4445  12.169   2.679   3.339
34224SOL    HW1 4446  12.126   2.596   3.317
34224SOL    HW2 4447  12.171   2.728   3.257
34225SOL     OW 4448  14.038  13.276  10.328
34225SOL    HW1 4449  14.013  13.271  10.235
34225SOL    HW2 4450  14.097  13.352  10.333
34226SOL     OW 4451   2.351  11.663  14.520
34226SOL    HW1 4452   2.259  11.680  14.536
34226SOL    HW2 4453   2.393  11.749  14.524
34227SOL     OW 4454   9.909   1.381   2.982
34227SOL    HW1 4455   9.891   1.450   2.918
34227SOL    HW2 4456   9.822   1.344   3.001
34228SOL     OW 4457   0.336   5.710  10.036
34228SOL    HW1 4458   0.259   5.687  10.089
34228SOL    HW2 4459   0.359   5.798  10.065
34229SOL     OW 4460   7.438   4.370   1.179
34229SOL    HW1 4461   7.498   4.345   1.249
34229SOL    HW2 4462   7.488   4.360   1.099
34230SOL     OW 4463   4.289   5.016   5.820
34230SOL    HW1 4464   4.376   5.053   5.829
34230SOL    HW2 4465   4.235   5.063   5.883
34231SOL     OW 4466   0.468   0.077   2.055
34231SOL    HW1 4467   0.459   0.045   2.145
34231SOL    HW2 4468   0.394   0.037   2.009
34232SOL     OW 4469   2.623   2.682   0.201
34232SOL    HW1 4470   2.687   2.670   0.131
34232SOL    HW2 4471   2.545   2.717   0.158
34233SOL     OW 4472  13.552   0.235   6.077
34233SOL    HW1 4473  13.577   0.149   6.042
34233SOL    HW2 4474  13.560   0.295   6.003
34234SOL     OW 4475   2.016   4.567  10.554
34234SOL    HW1 4476   1.944   4.564  10.491
34234SOL    HW2 4477   2.064   4.485  10.540
34235SOL     OW 4478   8.373   8.601   6.551
34235SOL    HW1 4479   8.278   8.596   6.562
34235SOL    HW2 4480   8.405   8.517   6.583
34236SOL     OW 4481   7.693   3.033   8.764
34236SOL    HW1 4482   7.719   2.990   8.683
34236SOL    HW2 4483   7.644   2.966   8.812
34237SOL     OW 4484  13.489   1.338   2.256
34237SOL    HW1 4485  13.538   1.336   2.338
34237SOL    HW2 4486  13.425   1.267   2.265
34238SOL     OW 4487   7.371  14.464  13.854
34238SOL    HW1 4488   7.282  14.472  13.821
34238SOL    HW2 4489   7.370  14.509  13.938
34239SOL     OW 4490   2.110   1.806   5.542
34239SOL    HW1 4491   2.075   1.815   5.453
34239SOL    HW2 4492   2.109   1.712   5.558
34240SOL     OW 4493   6.692   4.441   7.901
34240SOL    HW1 4494   6.768   4.385   7.887
34240SOL    HW2 4495   6.727   4.522   7.939
34241SOL     OW 4496   4.819  10.473   5.250
34241SOL    HW1 4497   4.892  10.483   5.311
34241SOL    HW2 4498   4.788  10.384   5.265
34242SOL     OW 4499   5.440   8.415   4.420
34242SOL    HW1 4500   5.362   8.462   4.392
34242SOL    HW2 4501   5.428   8.326   4.385
34243SOL     OW 4502  14.512  12.055  11.199
34243SOL    HW1 4503  14.441  12.030  11.258
34243SOL    HW2 4504  14.592  12.045  11.250
34244SOL     OW 4505  11.716   9.409   9.100
34244SOL    HW1 4506  11.679   9.487   9.141
34244SOL    HW2 4507  11.687   9.413   9.009
34245SOL     OW 4508   4.473   2.467   6.598
34245SOL    HW1 4509   4.474   2.463   6.502
34245SOL    HW2 4510   4.482   2.560   6.618
34246SOL     OW 4511   6.075  12.025   8.668
34246SOL    HW1 4512   6.116  12.035   8.755
34246SOL    HW2 4513   6.033  11.939   8.672
34247SOL     OW 4514  14.825   4.899   6.887
34247SOL    HW1 4515  14.870   4.828   6.841
34247SOL    HW2 4516  14.745   4.913   6.837
34248SOL     OW 4517  12.409   6.404   0.997
34248SOL    HW1 4518  12.419   6.475   1.061
34248SOL    HW2 4519  12.318   6.409   0.969
34249SOL     OW 4520  11.840   2.952  11.275
34249SOL    HW1 4521  11.780   2.908  11.215
34249SOL    HW2 4522  11.785   2.980  11.348
34250SOL     OW 4523   6.405   7.767   6.552
34250SOL    HW1 4524   6.356   7.702   6.501
34250SOL    HW2 4525   6.478   7.792   6.494
34251SOL     OW 4526   9.208   5.701   3.480
34251SOL    HW1 4527   9.249   5.668   3.401
34251SOL    HW2 4528   9.166   5.624   3.519
34252SOL     OW 4529  11.390  12.471  11.816
34252SOL    HW1 4530  11.467  12.486  11.872
34252SOL    HW2 4531  11.422  12.414  11.747
34253SOL     OW 4532   0.112   7.387   1.761
34253SOL    HW1 4533   0.178   7.406   1.694
34253SOL    HW2 4534   0.085   7.297   1.743
34254SOL     OW 4535   3.441   8.206   1.285
34254SOL    HW1 4536   3.455   8.222   1.378
34254SOL    HW2 4537   3.439   8.110   1.277
34255SOL     OW 4538   5.275   6.015   1.074
34255SOL    HW1 4539   5.233   5.998   0.990
34255SOL    HW2 4540   5.310   5.930   1.102
34256SOL     OW 4541  14.870  12.619   7.451
34256SOL    HW1 4542  14.846  12.711   7.437
34256SOL    HW2 4543  14.796  12.570   7.417
34257SOL     OW 4544  10.614   1.997   9.523
34257SOL    HW1 4545  10.541   1.998   9.460
34257SOL    HW2 4546  10.667   1.922   9.496
34258SOL     OW 4547   4.859   8.965   4.946
34258SOL    HW1 4548   4.800   9.041   4.944
34258SOL    HW2 4549   4.843   8.924   5.031
34259SOL     OW 4550  13.652   4.231   3.303
34259SOL    HW1 4551  13.566   4.229   3.262
34259SOL    HW2 4552  13.706   4.174   3.249
34260SOL     OW 4553  11.292   3.577   0.606
34260SOL    HW1 4554  11.311   3.626   0.526
34260SOL    HW2 4555  11.295   3.643   0.676
34261SOL     OW 4556   7.373   4.268   3.688
34261SOL    HW1 4557   7.437   4.326   3.728
34261SOL    HW2 4558   7.300   4.325   3.664
34262SOL     OW 4559   1.697   6.985   1.584
34262SOL    HW1 4560   1.775   6.948   1.543
34262SOL    HW2 4561   1.682   6.930   1.661
34263SOL     OW 4562   9.052  11.038  11.026
34263SOL    HW1 4563   9.104  10.996  10.957
34263SOL    HW2 4564   9.081  11.129  11.027
34264SOL     OW 4565   0.165  11.794  12.652
34264SOL    HW1 4566   0.132  11.875  12.613
34264SOL    HW2 4567   0.089  11.754  12.693
34265SOL     OW 4568   0.447  11.726  12.290
34265SOL    HW1 4569   0.473  11.639  12.260
34265SOL    HW2 4570   0.414  11.713  12.379
34266SOL     OW 4571   1.056   5.198  14.320
34266SOL    HW1 4572   1.045   5.204  14.414
34266SOL    HW2 4573   0.970   5.221  14.284
34267SOL     OW 4574  11.540  10.397   5.134
34267SOL    HW1 4575  11.487  10.361   5.206
34267SOL    HW2 4576  11.629  10.398   5.169
34268SOL     OW 4577   5.139   0.582  14.768
34268SOL    HW1 4578   5.094   0.521  14.825
34268SOL    HW2 4579   5.193   0.527  14.711
34269SOL     OW 4580  10.544   9.227   4.290
34269SOL    HW1 4581  10.634   9.258   4.294
34269SOL    HW2 4582  10.537   9.162   4.361
34270SOL     OW 4583  11.748   4.457   9.023
34270SOL    HW1 4584  11.843   4.468   9.023
34270SOL    HW2 4585  11.713   4.545   9.013
34271SOL     OW 4586   8.257   2.914  11.956
34271SOL    HW1 4587   8.332   2.962  11.990
34271SOL    HW2 4588   8.195   2.913  12.029
34272SOL     OW 4589  14.876  10.281   4.266
34272SOL    HW1 4590   0.048  10.360   4.280
34272SOL    HW2 4591  14.818  10.304   4.194
34273SOL     OW 4592  12.600   2.099  14.024
34273SOL    HW1 4593  12.573   2.013  13.990
34273SOL    HW2 4594  12.670   2.079  14.086
34274SOL     OW 4595   6.882   2.932   7.545
34274SOL    HW1 4596   6.864   2.951   7.637
34274SOL    HW2 4597   6.955   2.869   7.548
34275SOL     OW 4598  12.883   1.142  12.281
34275SOL    HW1 4599  12.966   1.106  12.249
34275SOL    HW2 4600  12.850   1.196  12.209
34276SOL     OW 4601   2.567  12.419  13.109
34276SOL    HW1 4602   2.660  12.442  13.110
34276SOL    HW2 4603   2.561  12.340  13.162
34277SOL     OW 4604   5.044   8.723  11.797
34277SOL    HW1 4605   4.981   8.758  11.860
34277SOL    HW2 4606   5.043   8.787  11.725
34278SOL     OW 4607   2.807   3.175   0.684
34278SOL    HW1 4608   2.767   3.234   0.748
34278SOL    HW2 4609   2.760   3.092   0.694
34279SOL     OW 4610   5.185   2.540   8.180
34279SOL    HW1 4611   5.148   2.495   8.256
34279SOL    HW2 4612   5.195   2.631   8.208
34280SOL     OW 4613  14.527  12.940   5.154
34280SOL    HW1 4614  14.456  12.960   5.215
34280SOL    HW2 4615  14.544  13.023   5.109
34281SOL     OW 4616   9.833   2.548   4.600
34281SOL    HW1 4617   9.749   2.594   4.606
34281SOL    HW2 4618   9.818   2.479   4.536
34282SOL     OW 4619   5.459  10.654   5.519
34282SOL    HW1 4620   5.384  10.621   5.567
34282SOL    HW2 4621   5.434  10.649   5.427
34283SOL     OW 4622   9.915  12.630  13.131
34283SOL    HW1 4623   9.873  12.556  13.087
34283SOL    HW2 4624   9.851  12.659  13.196
34284SOL     OW 4625  14.359   2.962  11.048
34284SOL    HW1 4626  14.318   3.048  11.042
34284SOL    HW2 4627  14.329   2.926  11.131
34285SOL     OW 4628   3.003   1.108   4.330
34285SOL    HW1 4629   3.011   1.109   4.235
34285SOL    HW2 4630   2.933   1.045   4.348
34286SOL     OW 4631   6.118   9.778   7.686
34286SOL    HW1 4632   6.034   9.770   7.641
34286SOL    HW2 4633   6.145   9.688   7.703
34287SOL     OW 4634   5.804   6.539   9.154
34287SOL    HW1 4635   5.875   6.502   9.102
34287SOL    HW2 4636   5.793   6.478   9.227
34288SOL     OW 4637   1.877   0.666   7.613
34288SOL    HW1 4638   1.944   0.617   7.566
34288SOL    HW2 4639   1.900   0.657   7.705
34289SOL     OW 4640   9.986  11.846   6.428
34289SOL    HW1 4641   9.981  11.795   6.509
34289SOL    HW2 4642  10.027  11.928   6.454
34290SOL     OW 4643  11.138   0.311   5.968
34290SOL    HW1 4644  11.128   0.253   6.043
34290SOL    HW2 4645  11.054   0.356   5.962
34291SOL     OW 4646  12.260  13.050   1.228
34291SOL    HW1 4647  12.229  13.117   1.289
34291SOL    HW2 4648  12.355  13.052   1.237
34292SOL     OW 4649   4.882  12.332   2.436
34292SOL    HW1 4650   4.960  12.333   2.381
34292SOL    HW2 4651   4.904  12.274   2.509
34293SOL     OW 4652   4.304  12.462   9.172
34293SOL    HW1 4653   4.346  12.377   9.181
34293SOL    HW2 4654   4.280  12.487   9.262
34294SOL     OW 4655   6.063   4.531  11.863
34294SOL    HW1 4656   6.105   4.508  11.780
34294SOL    HW2 4657   6.110   4.481  11.929
34295SOL     OW 4658   5.384   4.934   0.184
34295SOL    HW1 4659   5.354   5.017   0.220
34295SOL    HW2 4660   5.322   4.914   0.114
34296SOL     OW 4661   7.739   4.217   2.966
34296SOL    HW1 4662   7.728   4.158   2.892
34296SOL    HW2 4663   7.806   4.279   2.938
34297SOL     OW 4664   7.403   6.419   9.702
34297SOL    HW1 4665   7.483   6.393   9.749
34297SOL    HW2 4666   7.429   6.421   9.610
34298SOL     OW 4667  11.705   1.887  14.169
34298SOL    HW1 4668  11.702   1.796  14.200
34298SOL    HW2 4669  11.796   1.900  14.143
34299SOL     OW 4670  10.693   2.904  10.240
34299SOL    HW1 4671  10.667   2.835  10.301
34299SOL    HW2 4672  10.715   2.857  10.159
34300SOL     OW 4673  10.046   8.809  14.579
34300SOL    HW1 4674  10.049   8.750  14.654
34300SOL    HW2 4675  10.055   8.896  14.617
34301SOL     OW 4676   4.927   3.533   3.685
34301SOL    HW1 4677   5.014   3.498   3.670
34301SOL    HW2 4678   4.878   3.460   3.722
34302SOL     OW 4679   1.740  13.515   7.356
34302SOL    HW1 4680   1.775  13.427   7.372
34302SOL    HW2 4681   1.653  13.499   7.320
34303SOL     OW 4682   0.052   6.950   3.973
34303SOL    HW1 4683   0.000   6.874   3.949
34303SOL    HW2 4684   0.088   6.928   4.059
34304SOL     OW 4685   5.854   5.199   5.955
34304SOL    HW1 4686   5.796   5.235   6.022
34304SOL    HW2 4687   5.889   5.119   5.994
34305SOL     OW 4688  11.595   5.865   2.036
34305SOL    HW1 4689  11.552   5.860   2.121
34305SOL    HW2 4690  11.631   5.778   2.021
34306SOL     OW 4691   2.561   3.337   1.913
34306SOL    HW1 4692   2.587   3.268   1.851
34306SOL    HW2 4693   2.599   3.417   1.876
34307SOL     OW 4694  10.692   0.063   1.383
34307SOL    HW1 4695  10.733  14.873   1.334
34307SOL    HW2 4696  10.604   0.071   1.346
34308SOL     OW 4697   3.152   1.075  10.294
34308SOL    HW1 4698   3.069   1.081  10.341
34308SOL    HW2 4699   3.215   1.047  10.360
34309SOL     OW 4700  11.293  13.962   3.275
34309SOL    HW1 4701  11.211  14.010   3.265
34309SOL    HW2 4702  11.360  14.022   3.244
34310SOL     OW 4703  13.243  14.026   6.655
34310SOL    HW1 4704  13.189  13.982   6.720
34310SOL    HW2 4705  13.206  14.000   6.571
34311SOL     OW 4706   3.546   0.046  11.341
34311SOL    HW1 4707   3.480   0.098  11.387
34311SOL    HW2 4708   3.593  14.881  11.410
34312SOL     OW 4709   3.443   2.773  11.430
34312SOL    HW1 4710   3.436   2.857  11.383
34312SOL    HW2 4711   3.537   2.762  11.445
34313SOL     OW 4712   5.953   7.709   8.744
34313SOL    HW1 4713   5.895   7.771   8.700
34313SOL    HW2 4714   5.896   7.637   8.770
34314SOL     OW 4715   0.216  10.150   6.680
34314SOL    HW1 4716   0.291  10.209   6.689
34314SOL    HW2 4717   0.153  10.181   6.744
34315SOL     OW 4718   5.266   2.765  14.152
34315SOL    HW1 4719   5.343   2.808  14.191
34315SOL    HW2 4720   5.262   2.800  14.063
34316SOL     OW 4721   1.649  12.361   3.270
34316SOL    HW1 4722   1.561  12.327   3.290
34316SOL    HW2 4723   1.679  12.400   3.352
34317SOL     OW 4724  13.440   7.317   2.660
34317SOL    HW1 4725  13.426   7.373   2.584
34317SOL    HW2 4726  13.533   7.327   2.681
34318SOL     OW 4727   9.571   9.086   6.138
34318SOL    HW1 4728   9.666   9.103   6.141
34318SOL    HW2 4729   9.564   9.001   6.096
34319SOL     OW 4730   2.942  10.488   9.764
34319SOL    HW1 4731   2.932  10.438   9.683
34319SOL    HW2 4732   3.032  10.521   9.761
34320SOL     OW 4733   6.872  10.683   9.995
34320SOL    HW1 4734   6.932  10.614  10.020
34320SOL    HW2 4735   6.905  10.714   9.910
34321SOL     OW 4736   1.779   7.388   1.978
34321SOL    HW1 4737   1.771   7.293   1.991
34321SOL    HW2 4738   1.869   7.408   2.001
34322SOL     OW 4739   7.798  11.914   8.392
34322SOL    HW1 4740   7.793  11.847   8.325
34322SOL    HW2 4741   7.760  11.874   8.470
34323SOL     OW 4742  13.895   6.991   4.209
34323SOL    HW1 4743  13.872   6.906   4.247
34323SOL    HW2 4744  13.976   6.974   4.161
34324SOL     OW 4745   5.932  14.117   0.348
34324SOL    HW1 4746   6.002  14.155   0.402
34324SOL    HW2 4747   5.914  14.032   0.389
34325SOL     OW 4748  12.235   7.429   1.770
34325SOL    HW1 4749  12.310   7.371   1.764
34325SOL    HW2 4750  12.173   7.394   1.705
34326SOL     OW 4751  11.175  10.603  11.625
34326SOL    HW1 4752  11.220  10.536  11.676
34326SOL    HW2 4753  11.236  10.623  11.554
34327SOL     OW 4754   2.032   3.310  10.701
34327SOL    HW1 4755   1.942   3.325  10.672
34327SOL    HW2 4756   2.072   3.262  10.628
34328SOL     OW 4757   7.585   5.520   8.480
34328SOL    HW1 4758   7.680   5.515   8.493
34328SOL    HW2 4759   7.559   5.600   8.525
34329SOL     OW 4760   8.181   2.366   2.440
34329SOL    HW1 4761   8.267   2.325   2.450
34329SOL    HW2 4762   8.124   2.294   2.412
34330SOL     OW 4763   5.695  11.379   0.859
34330SOL    HW1 4764   5.739  11.393   0.943
34330SOL    HW2 4765   5.608  11.347   0.883
34331SOL     OW 4766   5.315   1.903  10.986
34331SOL    HW1 4767   5.381   1.938  10.926
34331SOL    HW2 4768   5.366   1.861  11.056
34332SOL     OW 4769   3.875  14.628   0.949
34332SOL    HW1 4770   3.966  14.626   0.919
34332SOL    HW2 4771   3.858  14.720   0.966
34333SOL     OW 4772   5.173  10.536   7.223
34333SOL    HW1 4773   5.263  10.503   7.222
34333SOL    HW2 4774   5.181  10.626   7.257
34334SOL     OW 4775   8.104  11.173  11.318
34334SOL    HW1 4776   8.168  11.103  11.308
34334SOL    HW2 4777   8.142  11.231  11.384
34335SOL     OW 4778   3.620   5.004   8.121
34335SOL    HW1 4779   3.650   4.966   8.039
34335SOL    HW2 4780   3.536   4.962   8.138
34336SOL     OW 4781   4.834   1.602  10.822
34336SOL    HW1 4782   4.859   1.615  10.914
34336SOL    HW2 4783   4.844   1.688  10.782
34337SOL     OW 4784   5.691  12.187   8.242
34337SOL    HW1 4785   5.616  12.132   8.220
34337SOL    HW2 4786   5.763  12.155   8.188
34338SOL     OW 4787   4.879  12.180  12.777
34338SOL    HW1 4788   4.840  12.102  12.736
34338SOL    HW2 4789   4.807  12.221  12.824
34339SOL     OW 4790   2.247   3.989   0.867
34339SOL    HW1 4791   2.248   3.894   0.876
34339SOL    HW2 4792   2.195   4.019   0.942
34340SOL     OW 4793   4.054   1.906   3.423
34340SOL    HW1 4794   4.092   1.994   3.427
34340SOL    HW2 4795   3.965   1.920   3.391
34341SOL     OW 4796   4.738   5.595   5.538
34341SOL    HW1 4797   4.790   5.548   5.603
34341SOL    HW2 4798   4.702   5.526   5.482
34342SOL     OW 4799   1.618   0.587   8.933
34342SOL    HW1 4800   1.622   0.502   8.977
34342SOL    HW2 4801   1.566   0.642   8.993
34343SOL     OW 4802  11.524   4.690   5.944
34343SOL    HW1 4803  11.620   4.695   5.940
34343SOL    HW2 4804  11.503   4.705   6.036
34344SOL     OW 4805   7.422   5.148  12.582
34344SOL    HW1 4806   7.422   5.206  12.506
34344SOL    HW2 4807   7.507   5.105  12.579
34345SOL     OW 4808  14.770   3.962  13.928
34345SOL    HW1 4809  14.794   4.054  13.935
34345SOL    HW2 4810  14.722   3.943  14.009
34346SOL     OW 4811  10.196   8.770  11.229
34346SOL    HW1 4812  10.198   8.843  11.291
34346SOL    HW2 4813  10.140   8.801  11.158
34347SOL     OW 4814   3.331   8.505  14.709
34347SOL    HW1 4815   3.407   8.544  14.666
34347SOL    HW2 4816   3.361   8.418  14.736
34348SOL     OW 4817   5.559  10.435   3.946
34348SOL    HW1 4818   5.593  10.453   4.034
34348SOL    HW2 4819   5.528  10.520   3.915
34349SOL     OW 4820   7.971  14.841  14.538
34349SOL    HW1 4821   7.959   0.054  14.548
34349SOL    HW2 4822   7.898  14.813  14.483
34350SOL     OW 4823  11.706   5.528   9.330
34350SOL    HW1 4824  11.716   5.434   9.346
34350SOL    HW2 4825  11.795   5.563   9.332
34351SOL     OW 4826   2.025  12.471   4.472
34351SOL    HW1 4827   2.021  12.554   4.424
34351SOL    HW2 4828   2.115  12.467   4.504
34352SOL     OW 4829   3.518   6.955  11.920
34352SOL    HW1 4830   3.578   6.883  11.942
34352SOL    HW2 4831   3.495   6.993  12.005
34353SOL     OW 4832   2.151  11.208   0.859
34353SOL    HW1 4833   2.098  11.218   0.938
34353SOL    HW2 4834   2.161  11.297   0.825
34354SOL     OW 4835  13.194   3.721   1.869
34354SOL    HW1 4836  13.128   3.790   1.877
34354SOL    HW2 4837  13.257   3.755   1.805
34355SOL     OW 4838   5.863   3.892   8.778
34355SOL    HW1 4839   5.944   3.935   8.806
34355SOL    HW2 4840   5.861   3.811   8.828
34356SOL     OW 4841   8.440   5.918   3.385
34356SOL    HW1 4842   8.521   5.888   3.426
34356SOL    HW2 4843   8.372   5.900   3.449
34357SOL     OW 4844   6.371   8.196   7.599
34357SOL    HW1 4845   6.378   8.277   7.649
34357SOL    HW2 4846   6.453   8.149   7.615
34358SOL     OW 4847   0.881  11.524   9.967
34358SOL    HW1 4848   0.812  11.462   9.992
34358SOL    HW2 4849   0.927  11.480   9.895
34359SOL     OW 4850   4.218  14.194   3.301
34359SOL    HW1 4851   4.160  14.120   3.319
34359SOL    HW2 4852   4.161  14.270   3.297
34360SOL     OW 4853  14.623  10.307   5.997
34360SOL    HW1 4854  14.683  10.255   5.945
34360SOL    HW2 4855  14.539  10.300   5.951
34361SOL     OW 4856  11.454   2.083   3.858
34361SOL    HW1 4857  11.548   2.081   3.877
34361SOL    HW2 4858  11.423   2.164   3.898
34362SOL     OW 4859  11.678   5.257   1.648
34362SOL    HW1 4860  11.698   5.221   1.562
34362SOL    HW2 4861  11.607   5.202   1.681
34363SOL     OW 4862   0.206   1.397   7.716
34363SOL    HW1 4863   0.254   1.320   7.745
34363SOL    HW2 4864   0.114   1.371   7.720
34364SOL     OW 4865   9.585   1.639  12.028
34364SOL    HW1 4866   9.508   1.597  12.066
34364SOL    HW2 4867   9.559   1.730  12.015
34365SOL     OW 4868   9.932   6.767  10.749
34365SOL    HW1 4869   9.909   6.740  10.838
34365SOL    HW2 4870   9.940   6.686  10.700
34366SOL     OW 4871   8.277   0.740   4.030
34366SOL    HW1 4872   8.223   0.768   3.956
34366SOL    HW2 4873   8.312   0.655   4.004
34367SOL     OW 4874  14.712   7.260   2.424
34367SOL    HW1 4875  14.625   7.246   2.386
34367SOL    HW2 4876  14.713   7.353   2.446
34368SOL     OW 4877   1.131  11.257   8.829
34368SOL    HW1 4878   1.126  11.174   8.876
34368SOL    HW2 4879   1.135  11.231   8.736
34369SOL     OW 4880   6.339   7.172   9.258
34369SOL    HW1 4881   6.287   7.100   9.295
34369SOL    HW2 4882   6.324   7.245   9.317
34370SOL     OW 4883  13.968   0.150   7.408
34370SOL    HW1 4884  13.947   0.225   7.464
34370SOL    HW2 4885  13.969   0.075   7.467
34371SOL     OW 4886   7.944  13.471   3.338
34371SOL    HW1 4887   7.907  13.451   3.253
34371SOL    HW2 4888   7.870  13.467   3.399
34372SOL     OW 4889  11.249  13.471  14.027
34372SOL    HW1 4890  11.230  13.478  14.120
34372SOL    HW2 4891  11.179  13.415  13.992
34373SOL     OW 4892   6.386   7.428  11.486
34373SOL    HW1 4893   6.353   7.516  11.505
34373SOL    HW2 4894   6.471   7.424  11.530
34374SOL     OW 4895   4.414  10.830  13.236
34374SOL    HW1 4896   4.400  10.918  13.201
34374SOL    HW2 4897   4.508  10.814  13.222
34375SOL     OW 4898  10.274  12.733   4.170
34375SOL    HW1 4899  10.361  12.693   4.176
34375SOL    HW2 4900  10.232  12.714   4.254
34376SOL     OW 4901   0.741   6.069  14.096
34376SOL    HW1 4902   0.683   6.005  14.136
34376SOL    HW2 4903   0.819   6.068  14.152
34377SOL     OW 4904   8.818   7.441  11.077
34377SOL    HW1 4905   8.908   7.461  11.053
34377SOL    HW2 4906   8.813   7.345  11.077
34378SOL     OW 4907   5.608  11.340   8.960
34378SOL    HW1 4908   5.610  11.399   9.035
34378SOL    HW2 4909   5.695  11.347   8.922
34379SOL     OW 4910  13.856   1.532   4.697
34379SOL    HW1 4911  13.762   1.518   4.684
34379SOL    HW2 4912  13.870   1.624   4.676
34380SOL     OW 4913   5.940   0.997  14.384
34380SOL    HW1 4914   5.888   1.070  14.348
34380SOL    HW2 4915   5.929   0.926  14.321
34381SOL     OW 4916   7.271  13.435   0.357
34381SOL    HW1 4917   7.273  13.400   0.446
34381SOL    HW2 4918   7.363  13.454   0.338
34382SOL     OW 4919   4.819   5.221   7.357
34382SOL    HW1 4920   4.834   5.220   7.262
34382SOL    HW2 4921   4.885   5.161   7.392
34383SOL     OW 4922   2.861   8.229   0.874
34383SOL    HW1 4923   2.889   8.314   0.840
34383SOL    HW2 4924   2.788   8.203   0.819
34384SOL     OW 4925   6.815   7.609   1.311
34384SOL    HW1 4926   6.764   7.543   1.357
34384SOL    HW2 4927   6.851   7.563   1.235
34385SOL     OW 4928  13.630   7.608   2.874
34385SOL    HW1 4929  13.597   7.609   2.784
34385SOL    HW2 4930  13.589   7.532   2.914
34386SOL     OW 4931  12.182   5.048   4.731
34386SOL    HW1 4932  12.100   5.084   4.764
34386SOL    HW2 4933  12.191   4.964   4.776
34387SOL     OW 4934   9.912  14.329   9.851
34387SOL    HW1 4935   9.934  14.417   9.883
34387SOL    HW2 4936   9.863  14.288   9.922
34388SOL     OW 4937   6.147   1.718  11.538
34388SOL    HW1 4938   6.175   1.689  11.625
34388SOL    HW2 4939   6.202   1.793  11.518
34389SOL     OW 4940   1.922  14.391   0.858
34389SOL    HW1 4941   1.986  14.356   0.796
34389SOL    HW2 4942   1.898  14.316   0.913
34390SOL     OW 4943  13.743  13.479   0.985
34390SOL    HW1 4944  13.773  13.443   0.902
34390SOL    HW2 4945  13.808  13.545   1.008
34391SOL     OW 4946   3.474  13.820  11.742
34391SOL    HW1 4947   3.459  13.780  11.656
34391SOL    HW2 4948   3.562  13.791  11.767
34392SOL     OW 4949  14.479   4.895  10.812
34392SOL    HW1 4950  14.468   4.922  10.903
34392SOL    HW2 4951  14.538   4.960  10.774
34393SOL     OW 4952   1.079   1.827   5.088
34393SOL    HW1 4953   1.072   1.814   5.182
34393SOL    HW2 4954   1.172   1.812   5.069
34394SOL     OW 4955  14.215   6.238  10.608
34394SOL    HW1 4956  14.256   6.314  10.567
34394SOL    HW2 4957  14.129   6.269  10.637
34395SOL     OW 4958  11.654   1.400  13.233
34395SOL    HW1 4959  11.597   1.328  13.208
34395SOL    HW2 4960  11.657   1.457  13.157
34396SOL     OW 4961   3.140   2.256   3.265
34396SOL    HW1 4962   3.106   2.173   3.232
34396SOL    HW2 4963   3.111   2.260   3.356
34397SOL     OW 4964   3.918   7.905   0.682
34397SOL    HW1 4965   3.844   7.963   0.697
34397SOL    HW2 4966   3.920   7.849   0.759
34398SOL     OW 4967   0.645   8.612   0.695
34398SOL    HW1 4968   0.676   8.565   0.773
34398SOL    HW2 4969   0.628   8.543   0.631
34399SOL     OW 4970  11.627   4.080   3.778
34399SOL    HW1 4971  11.666   4.141   3.716
34399SOL    HW2 4972  11.533   4.087   3.762
34400SOL     OW 4973   6.854   7.202   4.560
34400SOL    HW1 4974   6.919   7.155   4.612
34400SOL    HW2 4975   6.810   7.134   4.509
34401SOL     OW 4976   0.472   8.199  13.126
34401SOL    HW1 4977   0.476   8.243  13.041
34401SOL    HW2 4978   0.385   8.220  13.160
34402SOL     OW 4979   3.744   5.113   1.987
34402SOL    HW1 4980   3.703   5.148   2.066
34402SOL    HW2 4981   3.804   5.045   2.019
34403SOL     OW 4982   8.337  14.325   3.614
34403SOL    HW1 4983   8.396  14.254   3.589
34403SOL    HW2 4984   8.322  14.374   3.533
34404SOL     OW 4985   2.586   6.970   1.456
34404SOL    HW1 4986   2.564   6.878   1.471
34404SOL    HW2 4987   2.535   7.017   1.522
34405SOL     OW 4988  13.994  11.350   5.482
34405SOL    HW1 4989  14.081  11.328   5.518
34405SOL    HW2 4990  13.932  11.306   5.540
34406SOL     OW 4991   4.288   9.838   8.583
34406SOL    HW1 4992   4.251   9.752   8.602
34406SOL    HW2 4993   4.380   9.831   8.610
34407SOL     OW 4994   8.535   6.893   1.524
34407SOL    HW1 4995   8.512   6.982   1.552
34407SOL    HW2 4996   8.597   6.906   1.452
34408SOL     OW 4997  11.334   4.674  12.525
34408SOL    HW1 4998  11.397   4.733  12.483
34408SOL    HW2 4999  11.357   4.677  12.618
34409SOL     OW 5000   5.690   8.155   0.438
34409SOL    HW1 5001   5.632   8.201   0.499
34409SOL    HW2 5002   5.682   8.204   0.356
34410SOL     OW 5003   0.796  11.421   2.195
34410SOL    HW1 5004   0.827  11.354   2.255
34410SOL    HW2 5005   0.873  11.474   2.176
34411SOL     OW 5006  12.865   8.436   2.607
34411SOL    HW1 5007  12.883   8.424   2.514
34411SOL    HW2 5008  12.942   8.481   2.641
34412SOL     OW 5009   2.104   3.288   0.615
34412SOL    HW1 5010   2.081   3.378   0.594
34412SOL    HW2 5011   2.178   3.295   0.676
34413SOL     OW 5012   4.218   1.190   9.969
34413SOL    HW1 5013   4.271   1.142   9.905
34413SOL    HW2 5014   4.131   1.193   9.931
34414SOL     OW 5015   8.703   9.150   5.754
34414SOL    HW1 5016   8.665   9.066   5.779
34414SOL    HW2 5017   8.751   9.132   5.673
34415SOL     OW 5018  11.311  12.334  13.708
34415SOL    HW1 5019  11.389  12.307  13.661
34415SOL    HW2 5020  11.240  12.325  13.645
34416SOL     OW 5021  10.572   1.164   7.056
34416SOL    HW1 5022  10.484   1.140   7.084
34416SOL    HW2 5023  10.582   1.125   6.969
34417SOL     OW 5024  10.023  12.025  12.439
34417SOL    HW1 5025   9.938  12.010  12.398
34417SOL    HW2 5026  10.054  12.107  12.401
34418SOL     OW 5027  12.412   1.352   8.246
34418SOL    HW1 5028  12.336   1.318   8.198
34418SOL    HW2 5029  12.377   1.373   8.332
34419SOL     OW 5030   0.097   1.923  12.655
34419SOL    HW1 5031   0.036   1.859  12.694
34419SOL    HW2 5032   0.152   1.951  12.728
34420SOL     OW 5033  13.995  13.965   3.587
34420SOL    HW1 5034  13.925  14.030   3.592
34420SOL    HW2 5035  14.049  13.984   3.664
34421SOL     OW 5036   2.531   0.295  10.384
34421SOL    HW1 5037   2.502   0.244  10.460
34421SOL    HW2 5038   2.516   0.238  10.309
34422SOL     OW 5039   7.814   1.296   8.571
34422SOL    HW1 5040   7.740   1.311   8.629
34422SOL    HW2 5041   7.884   1.264   8.629
34423SOL     OW 5042   2.106  10.388   7.442
34423SOL    HW1 5043   2.184  10.421   7.487
34423SOL    HW2 5044   2.137  10.313   7.392
34424SOL     OW 5045   8.802   2.110   0.615
34424SOL    HW1 5046   8.852   2.162   0.678
34424SOL    HW2 5047   8.714   2.149   0.616
34425SOL     OW 5048   7.722   2.823   8.571
34425SOL    HW1 5049   7.637   2.827   8.529
34425SOL    HW2 5050   7.785   2.833   8.499
34426SOL     OW 5051   4.054  10.972   3.738
34426SOL    HW1 5052   4.028  10.881   3.743
34426SOL    HW2 5053   3.976  11.019   3.711
34427SOL     OW 5054   2.364  11.200   5.457
34427SOL    HW1 5055   2.382  11.149   5.536
34427SOL    HW2 5056   2.367  11.136   5.385
34428SOL     OW 5057   7.905  11.835   2.538
34428SOL    HW1 5058   7.822  11.794   2.513
34428SOL    HW2 5059   7.958  11.762   2.571
34429SOL     OW 5060  11.974   1.672   6.250
34429SOL    HW1 5061  11.981   1.733   6.177
34429SOL    HW2 5062  11.894   1.699   6.296
34430SOL     OW 5063   3.674   8.804  12.829
34430SOL    HW1 5064   3.762   8.793  12.794
34430SOL    HW2 5065   3.632   8.866  12.768
34431SOL     OW 5066  13.876  12.478   4.556
34431SOL    HW1 5067  13.919  12.394   4.568
34431SOL    HW2 5068  13.911  12.534   4.625
34432SOL     OW 5069  10.040   6.739   9.026
34432SOL    HW1 5070  10.045   6.784   8.942
34432SOL    HW2 5071   9.966   6.779   9.071
34433SOL     OW 5072   6.000   1.943   7.546
34433SOL    HW1 5073   5.914   1.907   7.567
34433SOL    HW2 5074   5.982   2.035   7.524
34434SOL     OW 5075   5.469  10.220   1.018
34434SOL    HW1 5076   5.444  10.223   0.925
34434SOL    HW2 5077   5.518  10.138   1.027
34435SOL     OW 5078   0.687   8.190  13.589
34435SOL    HW1 5079   0.753   8.248  13.552
34435SOL    HW2 5080   0.613   8.248  13.608
34436SOL     OW 5081   5.129   8.720   2.919
34436SOL    HW1 5082   5.186   8.649   2.948
34436SOL    HW2 5083   5.171   8.800   2.951
34437SOL     OW 5084  11.892   2.468   5.596
34437SOL    HW1 5085  11.910   2.374   5.597
34437SOL    HW2 5086  11.973   2.508   5.629
34438SOL     OW 5087   4.232   1.222  12.424
34438SOL    HW1 5088   4.164   1.179  12.476
34438SOL    HW2 5089   4.314   1.188  12.460
34439SOL     OW 5090  14.318   5.947   6.253
34439SOL    HW1 5091  14.331   5.950   6.348
34439SOL    HW2 5092  14.406   5.937   6.217
34440SOL     OW 5093   1.886   3.759   1.102
34440SOL    HW1 5094   1.891   3.848   1.137
34440SOL    HW2 5095   1.871   3.771   1.008
34441SOL     OW 5096   2.480   8.942   7.476
34441SOL    HW1 5097   2.494   8.898   7.560
34441SOL    HW2 5098   2.417   9.011   7.497
34442SOL     OW 5099  13.410   0.481   8.456
34442SOL    HW1 5100  13.314   0.490   8.459
34442SOL    HW2 5101  13.442   0.567   8.482
34443SOL     OW 5102  12.888  14.812  11.997
34443SOL    HW1 5103  12.846   0.007  12.036
34443SOL    HW2 5104  12.981  14.835  11.993
34444SOL     OW 5105   3.517   1.759  14.694
34444SOL    HW1 5106   3.425   1.785  14.698
34444SOL    HW2 5107   3.532   1.711  14.776
34445SOL     OW 5108   5.628  13.317  14.192
34445SOL    HW1 5109   5.695  13.381  14.217
34445SOL    HW2 5110   5.628  13.320  14.096
34446SOL     OW 5111  13.872   5.307   0.113
34446SOL    HW1 5112  13.855   5.304   0.208
34446SOL    HW2 5113  13.805   5.365   0.078
34447SOL     OW 5114   6.853   5.617   3.955
34447SOL    HW1 5115   6.941   5.651   3.971
34447SOL    HW2 5116   6.804   5.692   3.921
34448SOL     OW 5117  10.569   2.552   7.989
34448SOL    HW1 5118  10.489   2.501   7.974
34448SOL    HW2 5119  10.572   2.563   8.084
34449SOL     OW 5120  10.718   5.586   8.726
34449SOL    HW1 5121  10.649   5.639   8.687
34449SOL    HW2 5122  10.722   5.508   8.670
34450SOL     OW 5123  11.503   7.107  10.981
34450SOL    HW1 5124  11.522   7.200  10.966
34450SOL    HW2 5125  11.589   7.066  10.988
34451SOL     OW 5126   7.552  11.534  12.728
34451SOL    HW1 5127   7.528  11.560  12.638
34451SOL    HW2 5128   7.640  11.570  12.741
34452SOL     OW 5129   2.260  14.526   3.783
34452SOL    HW1 5130   2.317  14.603   3.786
34452SOL    HW2 5131   2.178  14.554   3.823
34453SOL     OW 5132   9.318  10.900   5.950
34453SOL    HW1 5133   9.369  10.981   5.946
34453SOL    HW2 5134   9.265  10.901   5.870
34454SOL     OW 5135   1.854  13.259   3.082
34454SOL    HW1 5136   1.894  13.250   2.995
34454SOL    HW2 5137   1.872  13.350   3.106
34455SOL     OW 5138  14.037   0.557  11.103
34455SOL    HW1 5139  14.017   0.465  11.085
34455SOL    HW2 5140  14.047   0.597  11.016
34456SOL     OW 5141  12.616  13.602  12.255
34456SOL    HW1 5142  12.568  13.638  12.180
34456SOL    HW2 5143  12.556  13.539  12.294
34457SOL     OW 5144  10.863  14.482   4.729
34457SOL    HW1 5145  10.901  14.478   4.817
34457SOL    HW2 5146  10.769  14.482   4.744
34458SOL     OW 5147  14.531   8.098   3.125
34458SOL    HW1 5148  14.577   8.179   3.150
34458SOL    HW2 5149  14.479   8.122   3.049
34459SOL     OW 5150   8.232  13.397   8.694
34459SOL    HW1 5151   8.153  13.400   8.639
34459SOL    HW2 5152   8.266  13.308   8.682
34460SOL     OW 5153   4.440   9.368  10.461
34460SOL    HW1 5154   4.487   9.406  10.385
34460SOL    HW2 5155   4.444   9.274  10.446
34461SOL     OW 5156   0.324  10.698   3.209
34461SOL    HW1 5157   0.237  10.716   3.175
34461SOL    HW2 5158   0.324  10.738   3.297
34462SOL     OW 5159  11.782   3.650   0.311
34462SOL    HW1 5160  11.833   3.576   0.276
34462SOL    HW2 5161  11.832   3.727   0.285
34463SOL     OW 5162  13.487   3.962   3.124
34463SOL    HW1 5163  13.400   3.937   3.154
34463SOL    HW2 5164  13.476   3.978   3.030
34464SOL     OW 5165  14.703   9.839   3.476
34464SOL    HW1 5166  14.613   9.807   3.487
34464SOL    HW2 5167  14.743   9.829   3.562
34465SOL     OW 5168   0.554  12.863  14.879
34465SOL    HW1 5169   0.615  12.937  14.867
34465SOL    HW2 5170   0.529  12.868   0.090
34466SOL     OW 5171   4.171  12.715  10.995
34466SOL    HW1 5172   4.083  12.680  10.984
34466SOL    HW2 5173   4.229  12.639  10.988
34467SOL     OW 5174  11.038  13.805   7.845
34467SOL    HW1 5175  11.092  13.884   7.849
34467SOL    HW2 5176  11.063  13.763   7.763
34468SOL     OW 5177  12.746   8.496   4.888
34468SOL    HW1 5178  12.755   8.544   4.970
34468SOL    HW2 5179  12.681   8.545   4.838
34469SOL     OW 5180   0.905  10.710   4.678
34469SOL    HW1 5181   0.975  10.647   4.694
34469SOL    HW2 5182   0.944  10.795   4.697
34470SOL     OW 5183   5.916  11.198  13.042
34470SOL    HW1 5184   5.979  11.127  13.045
34470SOL    HW2 5185   5.843  11.168  13.095
34471SOL     OW 5186   8.070   5.621   6.152
34471SOL    HW1 5187   8.045   5.529   6.152
34471SOL    HW2 5188   8.007   5.664   6.094
34472SOL     OW 5189  12.668  13.484   8.405
34472SOL    HW1 5190  12.760  13.503   8.383
34472SOL    HW2 5191  12.641  13.557   8.460
34473SOL     OW 5192  11.620  11.782  13.335
34473SOL    HW1 5193  11.694  11.721  13.341
34473SOL    HW2 5194  11.561  11.756  13.406
34474SOL     OW 5195   3.600   4.090  14.165
34474SOL    HW1 5196   3.672   4.055  14.112
34474SOL    HW2 5197   3.644   4.145  14.230
34475SOL     OW 5198  12.678   9.951   8.794
34475SOL    HW1 5199  12.753   9.990   8.749
34475SOL    HW2 5200  12.682   9.987   8.883
34476SOL     OW 5201   5.707   3.997  11.574
34476SOL    HW1 5202   5.660   4.003  11.658
34476SOL    HW2 5203   5.730   3.904  11.567
34477SOL     OW 5204  10.373   4.519   3.449
34477SOL    HW1 5205  10.393   4.544   3.539
34477SOL    HW2 5206  10.298   4.459   3.456
34478SOL     OW 5207  12.500   3.778  13.576
34478SOL    HW1 5208  12.472   3.830  13.651
34478SOL    HW2 5209  12.594   3.796  13.568
34479SOL     OW 5210  14.120   7.148  13.450
34479SOL    HW1 5211  14.153   7.222  13.502
34479SOL    HW2 5212  14.187   7.081  13.458
34480SOL     OW 5213   9.809  11.645   1.901
34480SOL    HW1 5214   9.804  11.551   1.884
34480SOL    HW2 5215   9.756  11.685   1.832
34481SOL     OW 5216   9.281  12.854   0.441
34481SOL    HW1 5217   9.253  12.924   0.501
34481SOL    HW2 5218   9.221  12.782   0.459
34482SOL     OW 5219   9.116   3.194   2.524
34482SOL    HW1 5220   9.021   3.183   2.514
34482SOL    HW2 5221   9.145   3.115   2.570
34483SOL     OW 5222   7.560  10.541   7.894
34483SOL    HW1 5223   7.556  10.566   7.986
34483SOL    HW2 5224   7.476  10.497   7.877
34484SOL     OW 5225  13.266   5.809   3.628
34484SOL    HW1 5226  13.226   5.840   3.709
34484SOL    HW2 5227  13.333   5.874   3.608
34485SOL     OW 5228  12.152  12.695  11.960
34485SOL    HW1 5229  12.202  12.753  12.016
34485SOL    HW2 5230  12.193  12.609  11.972
34486SOL     OW 5231   1.715   7.698  10.637
34486SOL    HW1 5232   1.734   7.763  10.704
34486SOL    HW2 5233   1.749   7.616  10.673
34487SOL     OW 5234   0.137   5.317   3.598
34487SOL    HW1 5235   0.205   5.383   3.614
34487SOL    HW2 5236   0.085   5.318   3.679
34488SOL     OW 5237   1.053   9.115   3.966
34488SOL    HW1 5238   1.038   9.034   3.917
34488SOL    HW2 5239   1.121   9.092   4.029
34489SOL     OW 5240   3.832   0.301   4.832
34489SOL    HW1 5241   3.773   0.374   4.816
34489SOL    HW2 5242   3.788   0.248   4.898
34490SOL     OW 5243   1.696  13.485  11.801
34490SOL    HW1 5244   1.651  13.439  11.872
34490SOL    HW2 5245   1.776  13.519  11.841
34491SOL     OW 5246   8.665   2.892   1.386
34491SOL    HW1 5247   8.648   2.981   1.358
34491SOL    HW2 5248   8.684   2.844   1.306
34492SOL     OW 5249   4.507  10.994   9.777
34492SOL    HW1 5250   4.459  10.911   9.770
34492SOL    HW2 5251   4.589  10.978   9.729
34493SOL     OW 5252   0.067   5.327   9.004
34493SOL    HW1 5253  14.868   5.361   9.043
34493SOL    HW2 5254   0.069   5.364   8.916
34494SOL     OW 5255   3.046   3.547   2.897
34494SOL    HW1 5256   3.012   3.627   2.856
34494SOL    HW2 5257   3.111   3.577   2.960
34495SOL     OW 5258  10.024  11.559   6.415
34495SOL    HW1 5259  10.107  11.596   6.445
34495SOL    HW2 5260   9.970  11.636   6.394
34496SOL     OW 5261  11.815   6.119   4.838
34496SOL    HW1 5262  11.783   6.183   4.902
34496SOL    HW2 5263  11.848   6.172   4.766
34497SOL     OW 5264   3.550   9.143   6.854
34497SOL    HW1 5265   3.514   9.060   6.825
34497SOL    HW2 5266   3.474   9.193   6.884
34498SOL     OW 5267   9.458   6.777   3.460
34498SOL    HW1 5268   9.390   6.779   3.527
34498SOL    HW2 5269   9.516   6.706   3.487
34499SOL     OW 5270   3.090   0.702   7.407
34499SOL    HW1 5271   3.047   0.629   7.361
34499SOL    HW2 5272   3.071   0.779   7.353
34500SOL     OW 5273   1.863   5.568   5.340
34500SOL    HW1 5274   1.926   5.544   5.408
34500SOL    HW2 5275   1.813   5.640   5.378
34501SOL     OW 5276  11.721   0.828   6.854
34501SOL    HW1 5277  11.733   0.905   6.798
34501SOL    HW2 5278  11.796   0.772   6.834
34502SOL     OW 5279   5.707  13.228  10.818
34502SOL    HW1 5280   5.738  13.157  10.875
34502SOL    HW2 5281   5.669  13.292  10.878
34503SOL     OW 5282   3.130  10.947  11.869
34503SOL    HW1 5283   3.148  10.992  11.951
34503SOL    HW2 5284   3.090  10.864  11.895
34504SOL     OW 5285  13.019   4.696   0.296
34504SOL    HW1 5286  13.037   4.658   0.211
34504SOL    HW2 5287  13.035   4.790   0.285
34505SOL     OW 5288   1.397  14.503  12.933
34505SOL    HW1 5289   1.344  14.532  13.007
34505SOL    HW2 5290   1.377  14.565  12.863
34506SOL     OW 5291   0.951  13.854   4.872
34506SOL    HW1 5292   0.900  13.853   4.953
34506SOL    HW2 5293   0.912  13.785   4.818
34507SOL     OW 5294   0.510   8.767  13.861
34507SOL    HW1 5295   0.424   8.788  13.897
34507SOL    HW2 5296   0.549   8.852  13.841
34508SOL     OW 5297  11.301   0.791  11.486
34508SOL    HW1 5298  11.223   0.843  11.470
34508SOL    HW2 5299  11.331   0.818  11.573
34509SOL     OW 5300   0.540   4.910  14.056
34509SOL    HW1 5301   0.623   4.912  14.009
34509SOL    HW2 5302   0.483   4.854  14.003
34510SOL     OW 5303   0.201  11.302   4.433
34510SOL    HW1 5304   0.108  11.326   4.433
34510SOL    HW2 5305   0.215  11.261   4.518
34511SOL     OW 5306   1.803  12.816  14.495
34511SOL    HW1 5307   1.883  12.865  14.515
34511SOL    HW2 5308   1.827  12.725  14.508
34512SOL     OW 5309  13.192  13.803   7.097
34512SOL    HW1 5310  13.186  13.898   7.103
34512SOL    HW2 5311  13.286  13.785   7.092
34513SOL     OW 5312   7.587  10.832  13.684
34513SOL    HW1 5313   7.575  10.799  13.773
34513SOL    HW2 5314   7.682  10.842  13.675
34514SOL     OW 5315   4.324  13.109   7.206
34514SOL    HW1 5316   4.266  13.034   7.220
34514SOL    HW2 5317   4.283  13.180   7.254
34515SOL     OW 5318   4.332  10.837   5.850
34515SOL    HW1 5319   4.286  10.872   5.926
34515SOL    HW2 5320   4.379  10.761   5.883
34516SOL     OW 5321  13.101   9.306  11.809
34516SOL    HW1 5322  13.074   9.277  11.897
34516SOL    HW2 5323  13.133   9.227  11.767
34517SOL     OW 5324   6.766  12.283   4.400
34517SOL    HW1 5325   6.717  12.217   4.351
34517SOL    HW2 5326   6.699  12.333   4.447
34518SOL     OW 5327   9.426  14.726   2.128
34518SOL    HW1 5328   9.519  14.702   2.130
34518SOL    HW2 5329   9.380  14.645   2.153
34519SOL     OW 5330   8.408   1.580   3.023
34519SOL    HW1 5331   8.325   1.610   2.987
34519SOL    HW2 5332   8.450   1.532   2.951
34520SOL     OW 5333   1.394   9.530  14.505
34520SOL    HW1 5334   1.362   9.523  14.595
34520SOL    HW2 5335   1.446   9.451  14.492
34521SOL     OW 5336   5.613   0.873   4.637
34521SOL    HW1 5337   5.542   0.860   4.574
34521SOL    HW2 5338   5.680   0.921   4.588
34522SOL     OW 5339   7.992  13.944   2.927
34522SOL    HW1 5340   7.942  13.972   3.004
34522SOL    HW2 5341   7.948  13.985   2.853
34523SOL     OW 5342   0.010  13.952  11.498
34523SOL    HW1 5343  14.869  13.952  11.405
34523SOL    HW2 5344  14.823  13.900  11.540
34524SOL     OW 5345   7.726   6.080  10.030
34524SOL    HW1 5346   7.781   6.158  10.026
34524SOL    HW2 5347   7.736   6.040   9.943
34525SOL     OW 5348   1.390   7.687  11.645
34525SOL    HW1 5349   1.485   7.691  11.636
34525SOL    HW2 5350   1.363   7.779  11.650
34526SOL     OW 5351   5.863  13.746  10.099
34526SOL    HW1 5352   5.850  13.659  10.060
34526SOL    HW2 5353   5.877  13.728  10.193
34527SOL     OW 5354   9.703   6.404   1.834
34527SOL    HW1 5355   9.738   6.386   1.921
34527SOL    HW2 5356   9.613   6.370   1.837
34528SOL     OW 5357   0.390   9.370   9.509
34528SOL    HW1 5358   0.433   9.443   9.553
34528SOL    HW2 5359   0.296   9.391   9.512
34529SOL     OW 5360   4.546   1.709   1.783
34529SOL    HW1 5361   4.628   1.693   1.830
34529SOL    HW2 5362   4.558   1.666   1.698
34530SOL     OW 5363   0.039   4.520   3.919
34530SOL    HW1 5364   0.060   4.428   3.905
34530SOL    HW2 5365   0.064   4.563   3.837
34531SOL     OW 5366  13.228   3.398  13.484
34531SOL    HW1 5367  13.284   3.415  13.560
34531SOL    HW2 5368  13.269   3.447  13.413
34532SOL     OW 5369   1.963   0.681   5.426
34532SOL    HW1 5370   1.980   0.712   5.515
34532SOL    HW2 5371   2.043   0.701   5.378
34533SOL     OW 5372   9.688   0.207   9.382
34533SOL    HW1 5373   9.749   0.168   9.444
34533SOL    HW2 5374   9.743   0.262   9.325
34534SOL     OW 5375   0.611  12.978   9.507
34534SOL    HW1 5376   0.517  12.993   9.519
34534SOL    HW2 5377   0.649  13.066   9.501
34535SOL     OW 5378   5.354  12.578  13.401
34535SOL    HW1 5379   5.437  12.600  13.358
34535SOL    HW2 5380   5.327  12.659  13.445
34536SOL     OW 5381   2.337   2.372   4.918
34536SOL    HW1 5382   2.272   2.352   4.851
34536SOL    HW2 5383   2.381   2.451   4.887
34537SOL     OW 5384   9.104   8.680   2.753
34537SOL    HW1 5385   9.033   8.617   2.758
34537SOL    HW2 5386   9.176   8.641   2.803
34538SOL     OW 5387   8.242   4.430   6.408
34538SOL    HW1 5388   8.308   4.375   6.365
34538SOL    HW2 5389   8.280   4.518   6.408
34539SOL     OW 5390  14.742   6.343   1.775
34539SOL    HW1 5391  14.673   6.409   1.781
34539SOL    HW2 5392  14.778   6.337   1.863
34540SOL     OW 5393   3.515   5.796   7.086
34540SOL    HW1 5394   3.532   5.766   6.996
34540SOL    HW2 5395   3.599   5.832   7.115
34541SOL     OW 5396   5.747   5.820   9.256
34541SOL    HW1 5397   5.827   5.855   9.216
34541SOL    HW2 5398   5.763   5.826   9.350
34542SOL     OW 5399   0.666   3.136  14.354
34542SOL    HW1 5400   0.630   3.053  14.385
34542SOL    HW2 5401   0.729   3.112  14.286
34543SOL     OW 5402   9.800   0.767   1.612
34543SOL    HW1 5403   9.813   0.848   1.563
34543SOL    HW2 5404   9.815   0.791   1.704
34544SOL     OW 5405   0.841  11.188  13.605
34544SOL    HW1 5406   0.847  11.275  13.564
34544SOL    HW2 5407   0.842  11.206  13.699
34545SOL     OW 5408   7.394   3.017  14.429
34545SOL    HW1 5409   7.478   3.055  14.455
34545SOL    HW2 5410   7.415   2.960  14.355
34546SOL     OW 5411   9.425  13.121   2.951
34546SOL    HW1 5412   9.401  13.212   2.935
34546SOL    HW2 5413   9.346  13.071   2.927
34547SOL     OW 5414   6.481   7.261   1.837
34547SOL    HW1 5415   6.463   7.250   1.930
34547SOL    HW2 5416   6.397   7.284   1.798
34548SOL     OW 5417   3.264  14.201   3.192
34548SOL    HW1 5418   3.262  14.258   3.269
34548SOL    HW2 5419   3.213  14.247   3.126
34549SOL     OW 5420   2.581   4.119   8.391
34549SOL    HW1 5421   2.566   4.213   8.397
34549SOL    HW2 5422   2.497   4.083   8.361
34550SOL     OW 5423  12.429   6.056  12.606
34550SOL    HW1 5424  12.468   5.983  12.654
34550SOL    HW2 5425  12.486   6.131  12.628
34551SOL     OW 5426  12.258   6.791   0.122
34551SOL    HW1 5427  12.277   6.823   0.034
34551SOL    HW2 5428  12.191   6.724   0.109
34552SOL     OW 5429   0.814   0.453  10.740
34552SOL    HW1 5430   0.796   0.406  10.658
34552SOL    HW2 5431   0.740   0.430  10.797
34553SOL     OW 5432   7.908   0.154  11.450
34553SOL    HW1 5433   7.954   0.237  11.436
34553SOL    HW2 5434   7.943   0.120  11.532
34554SOL     OW 5435   3.333   8.087  14.508
34554SOL    HW1 5436   3.299   8.032  14.437
34554SOL    HW2 5437   3.428   8.088  14.494
34555SOL     OW 5438   2.102  13.904   7.414
34555SOL    HW1 5439   2.080  13.914   7.507
34555SOL    HW2 5440   2.085  13.812   7.395
34556SOL     OW 5441   5.539  10.781  11.821
34556SOL    HW1 5442   5.574  10.715  11.762
34556SOL    HW2 5443   5.529  10.736  11.905
34557SOL     OW 5444  12.994  14.205   4.939
34557SOL    HW1 5445  12.995  14.218   5.034
34557SOL    HW2 5446  12.922  14.259   4.908
34558SOL     OW 5447  12.210  10.529  14.061
34558SOL    HW1 5448  12.168  10.516  13.976
34558SOL    HW2 5449  12.292  10.480  14.054
34559SOL     OW 5450   9.165   0.443   1.210
34559SOL    HW1 5451   9.132   0.445   1.300
34559SOL    HW2 5452   9.256   0.471   1.217
34560SOL     OW 5453  13.115   3.309   2.066
34560SOL    HW1 5454  13.150   3.293   1.978
34560SOL    HW2 5455  13.131   3.402   2.082
34561SOL     OW 5456   7.009  10.523   3.308
34561SOL    HW1 5457   7.068  10.449   3.319
34561SOL    HW2 5458   6.921  10.485   3.314
34562SOL     OW 5459   3.060   4.973  14.090
34562SOL    HW1 5460   2.965   4.985  14.080
34562SOL    HW2 5461   3.079   4.890  14.047
34563SOL     OW 5462   8.113   5.715  11.768
34563SOL    HW1 5463   8.089   5.767  11.691
34563SOL    HW2 5464   8.089   5.625  11.745
34564SOL     OW 5465  10.918   5.925   0.795
34564SOL    HW1 5466  10.834   5.949   0.831
34564SOL    HW2 5467  10.929   5.982   0.719
34565SOL     OW 5468   6.019   2.188   2.906
34565SOL    HW1 5469   6.045   2.179   2.998
34565SOL    HW2 5470   5.929   2.220   2.911
34566SOL     OW 5471   9.786  12.582   2.473
34566SOL    HW1 5472   9.740  12.666   2.484
34566SOL    HW2 5473   9.861  12.588   2.532
34567SOL     OW 5474   4.758   1.902   3.878
34567SOL    HW1 5475   4.827   1.879   3.941
34567SOL    HW2 5476   4.776   1.847   3.802
34568SOL     OW 5477  14.581   1.571   3.300
34568SOL    HW1 5478  14.493   1.538   3.281
34568SOL    HW2 5479  14.623   1.580   3.214
34569SOL     OW 5480   5.086   1.582   4.077
34569SOL    HW1 5481   5.156   1.615   4.020
34569SOL    HW2 5482   5.125   1.507   4.121
34570SOL     OW 5483   2.731   8.689   7.123
34570SOL    HW1 5484   2.653   8.723   7.080
34570SOL    HW2 5485   2.717   8.707   7.216
34571SOL     OW 5486   3.470  13.021   5.197
34571SOL    HW1 5487   3.449  12.990   5.286
34571SOL    HW2 5488   3.393  13.072   5.171
34572SOL     OW 5489   8.238  10.990  10.310
34572SOL    HW1 5490   8.173  10.985  10.380
34572SOL    HW2 5491   8.314  11.033  10.351
34573SOL     OW 5492   8.994   5.649  13.099
34573SOL    HW1 5493   8.901   5.659  13.079
34573SOL    HW2 5494   9.018   5.565  13.060
34574SOL     OW 5495   8.319   0.620   5.652
34574SOL    HW1 5496   8.321   0.696   5.710
34574SOL    HW2 5497   8.383   0.642   5.583
34575SOL     OW 5498  11.848   5.360   5.664
34575SOL    HW1 5499  11.924   5.397   5.619
34575SOL    HW2 5500  11.781   5.428   5.656
34576SOL     OW 5501   9.307  10.111   9.429
34576SOL    HW1 5502   9.337  10.111   9.338
34576SOL    HW2 5503   9.248  10.035   9.435
34577SOL     OW 5504  13.274   4.080   4.748
34577SOL    HW1 5505  13.195   4.132   4.736
34577SOL    HW2 5506  13.250   4.014   4.813
34578SOL     OW 5507   2.291  13.997  12.533
34578SOL    HW1 5508   2.218  13.968  12.587
34578SOL    HW2 5509   2.268  13.968  12.445
34579SOL     OW 5510   2.175   8.231  14.508
34579SOL    HW1 5511   2.170   8.326  14.506
34579SOL    HW2 5512   2.267   8.212  14.526
34580SOL     OW 5513   3.182   2.104   1.898
34580SOL    HW1 5514   3.145   2.187   1.926
34580SOL    HW2 5515   3.175   2.105   1.802
34581SOL     OW 5516   8.034   2.469  11.011
34581SOL    HW1 5517   8.047   2.546  10.956
34581SOL    HW2 5518   8.115   2.420  11.003
34582SOL     OW 5519   2.043  11.449  13.631
34582SOL    HW1 5520   1.983  11.470  13.559
34582SOL    HW2 5521   2.109  11.519  13.629
34583SOL     OW 5522   7.552   4.485  12.478
34583SOL    HW1 5523   7.462   4.513  12.462
34583SOL    HW2 5524   7.591   4.479  12.391
34584SOL     OW 5525   5.287   0.807  11.750
34584SOL    HW1 5526   5.297   0.868  11.823
34584SOL    HW2 5527   5.266   0.723  11.791
34585SOL     OW 5528   1.760  10.692   5.631
34585SOL    HW1 5529   1.856  10.692   5.640
34585SOL    HW2 5530   1.744  10.742   5.551
34586SOL     OW 5531   3.534   3.329   6.312
34586SOL    HW1 5532   3.540   3.423   6.331
34586SOL    HW2 5533   3.624   3.298   6.320
34587SOL     OW 5534  14.277   5.750  12.072
34587SOL    HW1 5535  14.267   5.669  12.121
34587SOL    HW2 5536  14.364   5.783  12.096
34588SOL     OW 5537   2.577  10.677   9.177
34588SOL    HW1 5538   2.500  10.733   9.187
34588SOL    HW2 5539   2.560  10.602   9.235
34589SOL     OW 5540   1.693   0.622   0.670
34589SOL    HW1 5541   1.766   0.633   0.610
34589SOL    HW2 5542   1.665   0.711   0.690
34590SOL     OW 5543   0.002   7.940   4.109
34590SOL    HW1 5544   0.004   7.845   4.109
34590SOL    HW2 5545  14.834   7.964   4.188
34591SOL     OW 5546   8.594  13.361   5.935
34591SOL    HW1 5547   8.565  13.370   5.845
34591SOL    HW2 5548   8.683  13.396   5.935
34592SOL     OW 5549  11.316  11.400   5.647
34592SOL    HW1 5550  11.361  11.468   5.596
34592SOL    HW2 5551  11.387  11.353   5.692
34593SOL     OW 5552   0.407   5.531  12.880
34593SOL    HW1 5553   0.483   5.529  12.938
34593SOL    HW2 5554   0.404   5.443  12.841
34594SOL     OW 5555   8.972   8.904   4.834
34594SOL    HW1 5556   9.041   8.857   4.882
34594SOL    HW2 5557   8.905   8.923   4.900
34595SOL     OW 5558   3.625   2.125   4.169
34595SOL    HW1 5559   3.613   2.078   4.086
34595SOL    HW2 5560   3.649   2.214   4.143
34596SOL     OW 5561   7.243   6.358   1.500
34596SOL    HW1 5562   7.324   6.410   1.504
34596SOL    HW2 5563   7.272   6.268   1.513
34597SOL     OW 5564  10.432   9.643   6.935
34597SOL    HW1 5565  10.366   9.699   6.976
34597SOL    HW2 5566  10.444   9.680   6.847
34598SOL     OW 5567   7.578   5.484   7.048
34598SOL    HW1 5568   7.623   5.400   7.055
34598SOL    HW2 5569   7.540   5.484   6.960
34599SOL     OW 5570   2.845   8.168  12.673
34599SOL    HW1 5571   2.796   8.230  12.727
34599SOL    HW2 5572   2.840   8.203  12.584
34600SOL     OW 5573   3.308   5.939  10.187
34600SOL    HW1 5574   3.363   5.861  10.192
34600SOL    HW2 5575   3.328   5.987  10.267
34601SOL     OW 5576   8.150  11.157  14.740
34601SOL    HW1 5577   8.156  11.062  14.739
34601SOL    HW2 5578   8.241  11.187  14.737
34602SOL     OW 5579  12.602  10.590   8.743
34602SOL    HW1 5580  12.575  10.678   8.717
34602SOL    HW2 5581  12.617  10.596   8.838
34603SOL     OW 5582   4.825   3.504  14.545
34603SOL    HW1 5583   4.756   3.447  14.580
34603SOL    HW2 5584   4.854   3.459  14.465
34604SOL     OW 5585   3.188   9.318   3.104
34604SOL    HW1 5586   3.200   9.247   3.167
34604SOL    HW2 5587   3.146   9.277   3.029
34605SOL     OW 5588   4.066  14.014  13.051
34605SOL    HW1 5589   4.035  14.103  13.037
34605SOL    HW2 5590   4.027  13.963  12.980
34606SOL     OW 5591  10.269   9.396   0.768
34606SOL    HW1 5592  10.307   9.436   0.690
34606SOL    HW2 5593  10.290   9.303   0.761
34607SOL     OW 5594  11.134   6.784   5.910
34607SOL    HW1 5595  11.094   6.771   5.824
34607SOL    HW2 5596  11.132   6.697   5.951
34608SOL     OW 5597  14.326   4.340   1.741
34608SOL    HW1 5598  14.301   4.354   1.650
34608SOL    HW2 5599  14.248   4.302   1.782
34609SOL     OW 5600   4.152   4.795   2.827
34609SOL    HW1 5601   4.216   4.798   2.756
34609SOL    HW2 5602   4.126   4.886   2.839
34610SOL     OW 5603   1.243   3.497   0.858
34610SOL    HW1 5604   1.254   3.465   0.947
34610SOL    HW2 5605   1.248   3.592   0.865
34611SOL     OW 5606   9.440   7.378   3.126
34611SOL    HW1 5607   9.353   7.370   3.088
34611SOL    HW2 5608   9.500   7.362   3.054
34612SOL     OW 5609   0.927   5.642  12.084
34612SOL    HW1 5610   1.005   5.586  12.082
34612SOL    HW2 5611   0.961   5.731  12.075
34613SOL     OW 5612   1.594  14.473  13.729
34613SOL    HW1 5613   1.612  14.560  13.693
34613SOL    HW2 5614   1.662  14.417  13.692
34614SOL     OW 5615   7.844   9.029  12.525
34614SOL    HW1 5616   7.824   9.002  12.435
34614SOL    HW2 5617   7.897   9.108  12.516
34615SOL     OW 5618   7.602   7.463   1.324
34615SOL    HW1 5619   7.557   7.524   1.265
34615SOL    HW2 5620   7.557   7.472   1.407
34616SOL     OW 5621  12.494   5.453   9.096
34616SOL    HW1 5622  12.553   5.416   9.162
34616SOL    HW2 5623  12.552   5.489   9.029
34617SOL     OW 5624   8.454   3.143   1.427
34617SOL    HW1 5625   8.419   3.223   1.466
34617SOL    HW2 5626   8.464   3.083   1.501
34618SOL     OW 5627   3.971   1.078  11.638
34618SOL    HW1 5628   4.024   1.083  11.559
34618SOL    HW2 5629   3.913   1.003  11.623
34619SOL     OW 5630  13.355  13.983   1.251
34619SOL    HW1 5631  13.439  14.024   1.231
34619SOL    HW2 5632  13.350  13.986   1.347
34620SOL     OW 5633   9.284   9.492   0.972
34620SOL    HW1 5634   9.357   9.452   1.020
34620SOL    HW2 5635   9.242   9.420   0.926
34621SOL     OW 5636   5.146   2.265   6.983
34621SOL    HW1 5637   5.166   2.253   6.891
34621SOL    HW2 5638   5.086   2.194   7.004
34622SOL     OW 5639   4.661   2.769  14.409
34622SOL    HW1 5640   4.739   2.790  14.357
34622SOL    HW2 5641   4.694   2.754  14.497
34623SOL     OW 5642  14.484   7.005  11.375
34623SOL    HW1 5643  14.531   6.946  11.316
34623SOL    HW2 5644  14.511   7.093  11.347
34624SOL     OW 5645   2.304   2.719  14.621
34624SOL    HW1 5646   2.309   2.625  14.602
34624SOL    HW2 5647   2.259   2.724  14.706
34625SOL     OW 5648   1.167   6.259   8.061
34625SOL    HW1 5649   1.245   6.313   8.049
34625SOL    HW2 5650   1.195   6.170   8.040
34626SOL     OW 5651  12.163   3.844  10.978
34626SOL    HW1 5652  12.095   3.903  11.011
34626SOL    HW2 5653  12.163   3.857  10.884
34627SOL     OW 5654   2.061   4.218   4.747
34627SOL    HW1 5655   2.134   4.267   4.785
34627SOL    HW2 5656   2.034   4.157   4.816
34628SOL     OW 5657  10.563  10.851  14.049
34628SOL    HW1 5658  10.591  10.785  14.114
34628SOL    HW2 5659  10.531  10.924  14.101
34629SOL     OW 5660   7.420   0.059   0.183
34629SOL    HW1 5661   7.484   0.129   0.168
34629SOL    HW2 5662   7.464  14.881   0.243
34630SOL     OW 5663   3.814   1.160   2.022
34630SOL    HW1 5664   3.754   1.191   2.091
34630SOL    HW2 5665   3.839   1.239   1.975
34631SOL     OW 5666   5.481   7.670   2.333
34631SOL    HW1 5667   5.454   7.758   2.308
34631SOL    HW2 5668   5.410   7.613   2.303
34632SOL     OW 5669   9.259   3.499  11.944
34632SOL    HW1 5670   9.302   3.413  11.938
34632SOL    HW2 5671   9.226   3.502  12.034
34633SOL     OW 5672   1.132  12.318   9.761
34633SOL    HW1 5673   1.147  12.381   9.690
34633SOL    HW2 5674   1.040  12.295   9.754
34634SOL     OW 5675  13.521  13.052  13.409
34634SOL    HW1 5676  13.582  12.987  13.376
34634SOL    HW2 5677  13.511  13.115  13.337
34635SOL     OW 5678   9.512   6.894   7.345
34635SOL    HW1 5679   9.515   6.989   7.357
34635SOL    HW2 5680   9.575   6.875   7.276
34636SOL     OW 5681  11.663  12.577   6.110
34636SOL    HW1 5682  11.598  12.578   6.040
34636SOL    HW2 5683  11.747  12.581   6.065
34637SOL     OW 5684   2.824  14.033   0.787
34637SOL    HW1 5685   2.860  14.107   0.737
34637SOL    HW2 5686   2.814  13.964   0.722
34638SOL     OW 5687  11.441   0.685  13.120
34638SOL    HW1 5688  11.435   0.704  13.027
34638SOL    HW2 5689  11.496   0.607  13.126
34639SOL     OW 5690   4.176   4.136   2.220
34639SOL    HW1 5691   4.192   4.134   2.126
34639SOL    HW2 5692   4.083   4.156   2.229
34640SOL     OW 5693   8.941  14.787  11.772
34640SOL    HW1 5694   8.912  14.861  11.720
34640SOL    HW2 5695   8.990  14.732  11.710
34641SOL     OW 5696  12.350   6.345  12.624
34641SOL    HW1 5697  12.336   6.261  12.580
34641SOL    HW2 5698  12.412   6.392  12.568
34642SOL     OW 5699   0.699   9.148   1.111
34642SOL    HW1 5700   0.692   9.086   1.039
34642SOL    HW2 5701   0.737   9.098   1.183
34643SOL     OW 5702   0.560   3.804  10.838
34643SOL    HW1 5703   0.526   3.879  10.887
34643SOL    HW2 5704   0.578   3.838  10.750
34644SOL     OW 5705   7.900  14.369  11.587
34644SOL    HW1 5706   7.882  14.305  11.656
34644SOL    HW2 5707   7.867  14.329  11.507
34645SOL     OW 5708   7.371   8.686   1.972
34645SOL    HW1 5709   7.299   8.644   2.019
34645SOL    HW2 5710   7.356   8.662   1.880
34646SOL     OW 5711   3.330  10.085   1.492
34646SOL    HW1 5712   3.331  10.013   1.429
34646SOL    HW2 5713   3.314  10.163   1.440
34647SOL     OW 5714   8.890   7.986   8.569
34647SOL    HW1 5715   8.801   8.007   8.595
34647SOL    HW2 5716   8.945   8.036   8.629
34648SOL     OW 5717  12.827   7.127   2.839
34648SOL    HW1 5718  12.844   7.149   2.747
34648SOL    HW2 5719  12.856   7.204   2.888
34649SOL     OW 5720  10.665  10.903  12.774
34649SOL    HW1 5721  10.625  10.960  12.708
34649SOL    HW2 5722  10.621  10.819  12.762
34650SOL     OW 5723   4.167   4.472  14.699
34650SOL    HW1 5724   4.113   4.454  14.776
34650SOL    HW2 5725   4.178   4.567  14.699
34651SOL     OW 5726   4.757   0.338  10.300
34651SOL    HW1 5727   4.745   0.406  10.234
34651SOL    HW2 5728   4.674   0.336  10.347
34652SOL     OW 5729   4.362   0.949   2.029
34652SOL    HW1 5730   4.282   0.950   1.977
34652SOL    HW2 5731   4.394   0.859   2.022
34653SOL     OW 5732  13.414  11.161   9.111
34653SOL    HW1 5733  13.399  11.250   9.142
34653SOL    HW2 5734  13.407  11.167   9.016
34654SOL     OW 5735   0.098  12.988  10.241
34654SOL    HW1 5736   0.071  12.933  10.315
34654SOL    HW2 5737   0.145  13.061  10.281
34655SOL     OW 5738   3.217  13.198   8.738
34655SOL    HW1 5739   3.192  13.142   8.664
34655SOL    HW2 5740   3.268  13.140   8.795
34656SOL     OW 5741  14.336  12.305   7.890
34656SOL    HW1 5742  14.298  12.222   7.861
34656SOL    HW2 5743  14.280  12.372   7.849
34657SOL     OW 5744  11.132  11.071   1.907
34657SOL    HW1 5745  11.058  11.018   1.878
34657SOL    HW2 5746  11.154  11.125   1.832
34658SOL     OW 5747   1.912   4.452  12.566
34658SOL    HW1 5748   1.869   4.535  12.586
34658SOL    HW2 5749   1.887   4.434  12.475
34659SOL     OW 5750  14.197   3.893  11.168
34659SOL    HW1 5751  14.220   3.941  11.088
34659SOL    HW2 5752  14.189   3.960  11.235
34660SOL     OW 5753   2.037   8.052   4.511
34660SOL    HW1 5754   1.954   8.047   4.558
34660SOL    HW2 5755   2.044   8.143   4.482
34661SOL     OW 5756   5.278  12.036  12.141
34661SOL    HW1 5757   5.226  12.067  12.215
34661SOL    HW2 5758   5.282  11.941  12.152
34662SOL     OW 5759   5.461  11.637   4.634
34662SOL    HW1 5760   5.418  11.675   4.558
34662SOL    HW2 5761   5.510  11.710   4.673
34663SOL     OW 5762  14.148   2.323  13.487
34663SOL    HW1 5763  14.139   2.412  13.453
34663SOL    HW2 5764  14.146   2.268  13.409
34664SOL     OW 5765   9.659   1.251   7.635
34664SOL    HW1 5766   9.734   1.195   7.655
34664SOL    HW2 5767   9.592   1.227   7.699
34665SOL     OW 5768   1.780   1.852   9.446
34665SOL    HW1 5769   1.798   1.782   9.509
34665SOL    HW2 5770   1.835   1.925   9.475
34666SOL     OW 5771  10.568   5.518   2.877
34666SOL    HW1 5772  10.630   5.545   2.945
34666SOL    HW2 5773  10.483   5.545   2.909
34667SOL     OW 5774   8.417   2.208  14.731
34667SOL    HW1 5775   8.367   2.288  14.712
34667SOL    HW2 5776   8.364   2.137  14.696
34668SOL     OW 5777  10.959   1.152   1.012
34668SOL    HW1 5778  10.950   1.211   1.087
34668SOL    HW2 5779  10.958   1.064   1.050
34669SOL     OW 5780   4.131  11.200   3.990
34669SOL    HW1 5781   4.079  11.183   4.068
34669SOL    HW2 5782   4.071  11.183   3.917
34670SOL     OW 5783   8.416   0.489   4.649
34670SOL    HW1 5784   8.349   0.437   4.692
34670SOL    HW2 5785   8.369   0.562   4.608
34671SOL     OW 5786   7.639   1.602   7.889
34671SOL    HW1 5787   7.705   1.534   7.905
34671SOL    HW2 5788   7.651   1.664   7.960
34672SOL     OW 5789  10.825   4.541  11.135
34672SOL    HW1 5790  10.855   4.493  11.213
34672SOL    HW2 5791  10.805   4.629  11.167
34673SOL     OW 5792  11.607   7.260   6.296
34673SOL    HW1 5793  11.622   7.174   6.256
34673SOL    HW2 5794  11.549   7.305   6.234
34674SOL     OW 5795  12.186   0.180   2.108
34674SOL    HW1 5796  12.170   0.221   2.023
34674SOL    HW2 5797  12.237   0.101   2.087
34675SOL     OW 5798   2.084   2.441   3.594
34675SOL    HW1 5799   2.001   2.489   3.599
34675SOL    HW2 5800   2.083   2.383   3.670
34676SOL     OW 5801  12.073   8.498  14.447
34676SOL    HW1 5802  12.029   8.544  14.519
34676SOL    HW2 5803  12.120   8.568  14.400
34677SOL     OW 5804  14.251   9.218   2.857
34677SOL    HW1 5805  14.185   9.287   2.858
34677SOL    HW2 5806  14.281   9.212   2.947
34678SOL     OW 5807   0.980   3.536  10.813
34678SOL    HW1 5808   0.927   3.615  10.824
34678SOL    HW2 5809   0.982   3.522  10.718
34679SOL     OW 5810  14.558   4.206   5.088
34679SOL    HW1 5811  14.499   4.154   5.143
34679SOL    HW2 5812  14.642   4.162   5.093
34680SOL     OW 5813   4.412   6.338  10.067
34680SOL    HW1 5814   4.431   6.390  10.144
34680SOL    HW2 5815   4.335   6.380  10.028
34681SOL     OW 5816   6.797   9.596  14.734
34681SOL    HW1 5817   6.762   9.513  14.703
34681SOL    HW2 5818   6.876   9.609  14.682
34682SOL     OW 5819   8.048   1.228   3.109
34682SOL    HW1 5820   8.043   1.263   3.020
34682SOL    HW2 5821   8.138   1.248   3.137
34683SOL     OW 5822  14.068   4.502   6.992
34683SOL    HW1 5823  14.054   4.409   7.012
34683SOL    HW2 5824  14.157   4.520   7.022
34684SOL     OW 5825   5.779   3.196   8.436
34684SOL    HW1 5826   5.689   3.167   8.445
34684SOL    HW2 5827   5.828   3.117   8.413
34685SOL     OW 5828   6.496   6.803   0.036
34685SOL    HW1 5829   6.416   6.763   0.004
34685SOL    HW2 5830   6.510   6.762   0.122
34686SOL     OW 5831  13.372   9.625  14.534
34686SOL    HW1 5832  13.410   9.544  14.500
34686SOL    HW2 5833  13.306   9.650  14.469
34687SOL     OW 5834   4.939   1.291  12.316
34687SOL    HW1 5835   5.006   1.284  12.248
34687SOL    HW2 5836   4.882   1.362  12.287
34688SOL     OW 5837   3.818   2.620   9.807
34688SOL    HW1 5838   3.891   2.680   9.791
34688SOL    HW2 5839   3.821   2.603   9.901
34689SOL     OW 5840   0.725  13.328  11.756
34689SOL    HW1 5841   0.723  13.334  11.661
34689SOL    HW2 5842   0.633  13.328  11.782
34690SOL     OW 5843   4.476   7.552  10.724
34690SOL    HW1 5844   4.528   7.584  10.650
34690SOL    HW2 5845   4.531   7.487  10.766
34691SOL     OW 5846   2.318   2.407   7.424
34691SOL    HW1 5847   2.297   2.461   7.349
34691SOL    HW2 5848   2.384   2.456   7.473
34692SOL     OW 5849   6.358  11.447   0.707
34692SOL    HW1 5850   6.265  11.452   0.728
34692SOL    HW2 5851   6.399  11.512   0.764
34693SOL     OW 5852   5.394  11.056   3.466
34693SOL    HW1 5853   5.361  11.097   3.546
34693SOL    HW2 5854   5.338  10.979   3.453
34694SOL     OW 5855  13.763   6.306  14.114
34694SOL    HW1 5856  13.717   6.388  14.102
34694SOL    HW2 5857  13.855   6.331  14.124
34695SOL     OW 5858   3.595   6.541  13.382
34695SOL    HW1 5859   3.671   6.556  13.439
34695SOL    HW2 5860   3.542   6.477  13.428
34696SOL     OW 5861  10.743   7.329   3.004
34696SOL    HW1 5862  10.733   7.273   3.081
34696SOL    HW2 5863  10.789   7.406   3.037
34697SOL     OW 5864  12.318  11.156  10.659
34697SOL    HW1 5865  12.263  11.120  10.590
34697SOL    HW2 5866  12.351  11.238  10.624
34698SOL     OW 5867   8.330   1.011   8.370
34698SOL    HW1 5868   8.319   0.959   8.450
34698SOL    HW2 5869   8.376   0.954   8.310
34699SOL     OW 5870   0.806   9.608   5.998
34699SOL    HW1 5871   0.899   9.627   6.003
34699SOL    HW2 5872   0.800   9.534   5.937
34700SOL     OW 5873   9.954   4.839   8.859
34700SOL    HW1 5874   9.914   4.920   8.829
34700SOL    HW2 5875  10.047   4.849   8.836
34701SOL     OW 5876  13.448  11.446   0.056
34701SOL    HW1 5877  13.516  11.514   0.049
34701SOL    HW2 5878  13.418  11.452   0.146
34702SOL     OW 5879  14.340   5.528  13.910
34702SOL    HW1 5880  14.356   5.616  13.876
34702SOL    HW2 5881  14.409   5.474  13.872
34703SOL     OW 5882   4.449   2.675   0.987
34703SOL    HW1 5883   4.378   2.717   1.036
34703SOL    HW2 5884   4.420   2.678   0.895
34704SOL     OW 5885  10.725   1.970   5.127
34704SOL    HW1 5886  10.765   1.957   5.042
34704SOL    HW2 5887  10.764   1.902   5.183
34705SOL     OW 5888   6.326  13.702  13.805
34705SOL    HW1 5889   6.273  13.748  13.739
34705SOL    HW2 5890   6.367  13.772  13.855
34706SOL     OW 5891  13.739   0.680  11.880
34706SOL    HW1 5892  13.670   0.663  11.816
34706SOL    HW2 5893  13.821   0.671  11.831
34707SOL     OW 5894   0.654  14.086  14.202
34707SOL    HW1 5895   0.669  14.014  14.262
34707SOL    HW2 5896   0.661  14.046  14.115
34708SOL     OW 5897   4.308   6.822   9.872
34708SOL    HW1 5898   4.313   6.728   9.891
34708SOL    HW2 5899   4.399   6.851   9.871
34709SOL     OW 5900  14.270   2.365   8.033
34709SOL    HW1 5901  14.347   2.375   7.977
34709SOL    HW2 5902  14.292   2.413   8.113
34710SOL     OW 5903  13.112   0.267  14.221
34710SOL    HW1 5904  13.149   0.331  14.160
34710SOL    HW2 5905  13.120   0.307  14.307
34711SOL     OW 5906   5.211  14.266   8.436
34711SOL    HW1 5907   5.264  14.187   8.430
34711SOL    HW2 5908   5.186  14.272   8.528
34712SOL     OW 5909   8.891   2.613  10.016
34712SOL    HW1 5910   8.926   2.688   9.967
34712SOL    HW2 5911   8.963   2.551  10.019
34713SOL     OW 5912   5.573   9.971   2.255
34713SOL    HW1 5913   5.511   9.959   2.183
34713SOL    HW2 5914   5.518  10.003   2.327
34714SOL     OW 5915   5.088  11.163   6.131
34714SOL    HW1 5916   5.082  11.257   6.119
34714SOL    HW2 5917   5.083  11.150   6.226
34715SOL     OW 5918   7.074  12.856   1.265
34715SOL    HW1 5919   7.139  12.872   1.333
34715SOL    HW2 5920   7.066  12.940   1.220
34716SOL     OW 5921  10.758  14.501   8.555
34716SOL    HW1 5922  10.771  14.578   8.500
34716SOL    HW2 5923  10.814  14.516   8.632
34717SOL     OW 5924  12.805   4.789   4.559
34717SOL    HW1 5925  12.835   4.789   4.650
34717SOL    HW2 5926  12.710   4.780   4.566
34718SOL     OW 5927   7.245  11.078   7.445
34718SOL    HW1 5928   7.155  11.097   7.470
34718SOL    HW2 5929   7.294  11.076   7.527
34719SOL     OW 5930   3.334  13.780   2.642
34719SOL    HW1 5931   3.258  13.828   2.609
34719SOL    HW2 5932   3.300  13.693   2.664
34720SOL     OW 5933   2.376   0.999   4.285
34720SOL    HW1 5934   2.404   1.073   4.230
34720SOL    HW2 5935   2.456   0.947   4.296
34721SOL     OW 5936  13.754   1.677   3.010
34721SOL    HW1 5937  13.759   1.685   2.915
34721SOL    HW2 5938  13.736   1.585   3.026
34722SOL     OW 5939   5.970   1.598  12.917
34722SOL    HW1 5940   5.945   1.600  13.010
34722SOL    HW2 5941   5.899   1.645  12.873
34723SOL     OW 5942   4.555  14.765   5.957
34723SOL    HW1 5943   4.462  14.787   5.957
34723SOL    HW2 5944   4.562  14.690   5.898
34724SOL     OW 5945  12.250  14.535   0.421
34724SOL    HW1 5946  12.183  14.523   0.488
34724SOL    HW2 5947  12.326  14.568   0.469
34725SOL     OW 5948  11.723   0.824  11.886
34725SOL    HW1 5949  11.745   0.832  11.979
34725SOL    HW2 5950  11.640   0.777  11.886
34726SOL     OW 5951   9.380   1.554  13.194
34726SOL    HW1 5952   9.417   1.638  13.220
34726SOL    HW2 5953   9.433   1.526  13.119
34727SOL     OW 5954   4.888   8.186   3.043
34727SOL    HW1 5955   4.909   8.261   2.987
34727SOL    HW2 5956   4.946   8.196   3.119
34728SOL     OW 5957   6.796  12.989   2.799
34728SOL    HW1 5958   6.824  12.967   2.888
34728SOL    HW2 5959   6.700  12.994   2.804
34729SOL     OW 5960  14.376   7.488  10.114
34729SOL    HW1 5961  14.297   7.527  10.075
34729SOL    HW2 5962  14.363   7.393  10.106
34730SOL     OW 5963  11.768   5.874   9.720
34730SOL    HW1 5964  11.721   5.791   9.711
34730SOL    HW2 5965  11.701   5.936   9.748
34731SOL     OW 5966   2.369   8.657  11.163
34731SOL    HW1 5967   2.423   8.632  11.088
34731SOL    HW2 5968   2.406   8.607  11.237
34732SOL     OW 5969  13.798   4.938   2.300
34732SOL    HW1 5970  13.769   4.914   2.212
34732SOL    HW2 5971  13.724   4.986   2.337
34733SOL     OW 5972   4.631  11.120   4.175
34733SOL    HW1 5973   4.548  11.144   4.135
34733SOL    HW2 5974   4.656  11.038   4.132
34734SOL     OW 5975   9.925   9.539   5.673
34734SOL    HW1 5976   9.978   9.569   5.748
34734SOL    HW2 5977   9.930   9.443   5.677
34735SOL     OW 5978   8.881   6.980  11.212
34735SOL    HW1 5979   8.922   7.005  11.129
34735SOL    HW2 5980   8.948   6.927  11.256
34736SOL     OW 5981  14.274   0.303   9.153
34736SOL    HW1 5982  14.192   0.265   9.122
34736SOL    HW2 5983  14.277   0.390   9.114
34737SOL     OW 5984  13.662   8.267  11.336
34737SOL    HW1 5985  13.591   8.280  11.399
34737SOL    HW2 5986  13.719   8.202  11.378
34738SOL     OW 5987  11.458  14.279   8.092
34738SOL    HW1 5988  11.460  14.186   8.069
34738SOL    HW2 5989  11.403  14.319   8.025
34739SOL     OW 5990   3.028   1.222  14.207
34739SOL    HW1 5991   2.933   1.215  14.198
34739SOL    HW2 5992   3.042   1.258  14.295
34740SOL     OW 5993  13.030   0.113   0.498
34740SOL    HW1 5994  13.113   0.153   0.525
34740SOL    HW2 5995  12.973   0.187   0.478
34741SOL     OW 5996   7.931   2.087  10.771
34741SOL    HW1 5997   7.863   2.044  10.719
34741SOL    HW2 5998   7.885   2.117  10.850
34742SOL     OW 5999  14.877  14.407  11.959
34742SOL    HW1 6000   0.034  14.322  11.937
34742SOL    HW2 6001  14.851  14.397  12.051
34743SOL     OW 6002  12.052  11.980   6.170
34743SOL    HW1 6003  12.105  12.020   6.239
34743SOL    HW2 6004  11.964  11.975   6.206
34744SOL     OW 6005  10.318   2.632   2.904
34744SOL    HW1 6006  10.386   2.604   2.842
34744SOL    HW2 6007  10.266   2.695   2.855
34745SOL     OW 6008  11.937   7.176  13.834
34745SOL    HW1 6009  11.987   7.236  13.889
34745SOL    HW2 6010  11.975   7.090  13.851
34746SOL     OW 6011  13.185  14.061  13.192
34746SOL    HW1 6012  13.101  14.036  13.232
34746SOL    HW2 6013  13.230  13.979  13.177
34747SOL     OW 6014   7.309  13.780  10.645
34747SOL    HW1 6015   7.234  13.822  10.686
34747SOL    HW2 6016   7.298  13.798  10.552
34748SOL     OW 6017   5.398   8.351   7.748
34748SOL    HW1 6018   5.413   8.415   7.679
34748SOL    HW2 6019   5.486   8.321   7.772
34749SOL     OW 6020   8.816   3.661   4.715
34749SOL    HW1 6021   8.790   3.582   4.667
34749SOL    HW2 6022   8.901   3.638   4.754
34750SOL     OW 6023   7.619  11.502   3.042
34750SOL    HW1 6024   7.618  11.434   3.108
34750SOL    HW2 6025   7.577  11.577   3.084
34751SOL     OW 6026   2.749   5.704   2.035
34751SOL    HW1 6027   2.708   5.784   2.003
34751SOL    HW2 6028   2.758   5.717   2.129
34752SOL     OW 6029  10.933   7.581   9.213
34752SOL    HW1 6030  10.874   7.652   9.187
34752SOL    HW2 6031  10.879   7.524   9.267
34753SOL     OW 6032   1.126   2.370   4.697
34753SOL    HW1 6033   1.116   2.451   4.747
34753SOL    HW2 6034   1.205   2.329   4.732
34754SOL     OW 6035  11.663  10.849  12.058
34754SOL    HW1 6036  11.756  10.834  12.040
34754SOL    HW2 6037  11.640  10.781  12.122
34755SOL     OW 6038  13.127   9.118   4.313
34755SOL    HW1 6039  13.125   9.047   4.378
34755SOL    HW2 6040  13.181   9.186   4.354
34756SOL     OW 6041  10.289   8.317   7.740
34756SOL    HW1 6042  10.254   8.382   7.801
34756SOL    HW2 6043  10.259   8.345   7.654
34757SOL     OW 6044   1.791   2.798  10.144
34757SOL    HW1 6045   1.744   2.740  10.085
34757SOL    HW2 6046   1.725   2.861  10.173
34758SOL     OW 6047   1.085   6.926   8.723
34758SOL    HW1 6048   1.002   6.963   8.753
34758SOL    HW2 6049   1.145   6.939   8.796
34759SOL     OW 6050   5.961  10.257  14.881
34759SOL    HW1 6051   5.876  10.300  14.873
34759SOL    HW2 6052   5.952  10.176  14.830
34760SOL     OW 6053  14.662   1.935   0.586
34760SOL    HW1 6054  14.571   1.963   0.577
34760SOL    HW2 6055  14.690   1.913   0.497
34761SOL     OW 6056   7.292  13.798   3.316
34761SOL    HW1 6057   7.282  13.871   3.255
34761SOL    HW2 6058   7.343  13.733   3.268
34762SOL     OW 6059  14.816  11.590   5.459
34762SOL    HW1 6060  14.874  11.514   5.447
34762SOL    HW2 6061  14.748  11.580   5.392
34763SOL     OW 6062  10.954  14.504  14.775
34763SOL    HW1 6063  10.933  14.424  14.726
34763SOL    HW2 6064  10.870  14.532  14.811
34764SOL     OW 6065   6.191   3.163   8.766
34764SOL    HW1 6066   6.259   3.230   8.766
34764SOL    HW2 6067   6.200   3.119   8.681
34765SOL     OW 6068   9.053   0.735   9.892
34765SOL    HW1 6069   9.009   0.789   9.826
34765SOL    HW2 6070   9.016   0.764   9.975
34766SOL     OW 6071   6.049   8.101  13.988
34766SOL    HW1 6072   6.005   8.084  13.905
34766SOL    HW2 6073   6.037   8.020  14.038
34767SOL     OW 6074  13.330  10.081   1.819
34767SOL    HW1 6075  13.338  10.029   1.900
34767SOL    HW2 6076  13.257  10.041   1.772
34768SOL     OW 6077   6.672   5.850   3.861
34768SOL    HW1 6078   6.680   5.940   3.891
34768SOL    HW2 6079   6.585   5.822   3.890
34769SOL     OW 6080   5.877   8.996  10.511
34769SOL    HW1 6081   5.937   8.969  10.580
34769SOL    HW2 6082   5.819   8.921  10.498
34770SOL     OW 6083   6.653   8.214   3.183
34770SOL    HW1 6084   6.718   8.213   3.113
34770SOL    HW2 6085   6.703   8.234   3.262
34771SOL     OW 6086  12.821   5.990  12.344
34771SOL    HW1 6087  12.735   5.961  12.316
34771SOL    HW2 6088  12.875   5.985  12.265
34772SOL     OW 6089   1.709   4.403   7.609
34772SOL    HW1 6090   1.762   4.468   7.563
34772SOL    HW2 6091   1.769   4.361   7.670
34773SOL     OW 6092   3.753  11.231  11.754
34773SOL    HW1 6093   3.746  11.200  11.844
34773SOL    HW2 6094   3.735  11.153  11.701
34774SOL     OW 6095  12.699   3.898   1.418
34774SOL    HW1 6096  12.745   3.979   1.394
34774SOL    HW2 6097  12.731   3.833   1.356
34775SOL     OW 6098   4.660   6.139   7.146
34775SOL    HW1 6099   4.709   6.132   7.228
34775SOL    HW2 6100   4.576   6.176   7.172
34776SOL     OW 6101  13.061   1.392   8.038
34776SOL    HW1 6102  13.127   1.428   8.098
34776SOL    HW2 6103  12.979   1.431   8.067
34777SOL     OW 6104   0.459  11.963  10.504
34777SOL    HW1 6105   0.419  12.040  10.545
34777SOL    HW2 6106   0.409  11.889  10.540
34778SOL     OW 6107  13.229  12.060   7.324
34778SOL    HW1 6108  13.268  12.076   7.237
34778SOL    HW2 6109  13.304  12.055   7.383
34779SOL     OW 6110   4.661  11.297   2.520
34779SOL    HW1 6111   4.599  11.247   2.573
34779SOL    HW2 6112   4.680  11.240   2.446
34780SOL     OW 6113   9.338   1.575   1.696
34780SOL    HW1 6114   9.358   1.654   1.647
34780SOL    HW2 6115   9.379   1.504   1.645
34781SOL     OW 6116  14.001   3.279   1.037
34781SOL    HW1 6117  14.051   3.213   1.085
34781SOL    HW2 6118  14.034   3.274   0.948
34782SOL     OW 6119  12.845  10.893   0.472
34782SOL    HW1 6120  12.873  10.825   0.534
34782SOL    HW2 6121  12.800  10.844   0.403
34783SOL     OW 6122  14.853   0.217  13.996
34783SOL    HW1 6123   0.010   0.130  13.986
34783SOL    HW2 6124   0.044   0.277  13.977
34784SOL     OW 6125  11.411   2.636   5.881
34784SOL    HW1 6126  11.389   2.602   5.794
34784SOL    HW2 6127  11.507   2.641   5.881
34785SOL     OW 6128   0.150  11.091  13.082
34785SOL    HW1 6129   0.179  11.130  13.165
34785SOL    HW2 6130   0.157  11.162  13.019
34786SOL     OW 6131   3.563   1.944  12.181
34786SOL    HW1 6132   3.632   1.883  12.205
34786SOL    HW2 6133   3.570   2.015  12.246
34787SOL     OW 6134  13.940  11.580  11.315
34787SOL    HW1 6135  13.981  11.600  11.399
34787SOL    HW2 6136  14.007  11.598  11.250
34788SOL     OW 6137   3.049  12.619   3.046
34788SOL    HW1 6138   3.009  12.533   3.061
34788SOL    HW2 6139   3.009  12.651   2.966
34789SOL     OW 6140  10.553   5.427   3.191
34789SOL    HW1 6141  10.542   5.523   3.191
34789SOL    HW2 6142  10.626   5.412   3.250
34790SOL     OW 6143   1.117  11.591  14.879
34790SOL    HW1 6144   1.101  11.682  14.855
34790SOL    HW2 6145   1.040  11.566   0.049
34791SOL     OW 6146   4.353   2.231   4.392
34791SOL    HW1 6147   4.306   2.190   4.320
34791SOL    HW2 6148   4.322   2.186   4.471
34792SOL     OW 6149  12.892   8.084  11.890
34792SOL    HW1 6150  12.931   8.005  11.927
34792SOL    HW2 6151  12.903   8.075  11.796
34793SOL     OW 6152   0.234   8.270   0.638
34793SOL    HW1 6153   0.244   8.337   0.570
34793SOL    HW2 6154   0.198   8.195   0.592
34794SOL     OW 6155  13.076  11.770   5.938
34794SOL    HW1 6156  13.076  11.762   5.843
34794SOL    HW2 6157  13.004  11.830   5.957
34795SOL     OW 6158  10.947  13.192  11.714
34795SOL    HW1 6159  10.893  13.267  11.742
34795SOL    HW2 6160  10.934  13.188  11.620
34796SOL     OW 6161   9.559  10.116   5.022
34796SOL    HW1 6162   9.578  10.204   4.990
34796SOL    HW2 6163   9.635  10.094   5.077
34797SOL     OW 6164   3.997   1.836   9.662
34797SOL    HW1 6165   3.978   1.880   9.745
34797SOL    HW2 6166   4.027   1.749   9.688
34798SOL     OW 6167   5.946  12.321  11.888
34798SOL    HW1 6168   5.884  12.387  11.858
34798SOL    HW2 6169   5.940  12.251  11.822
34799SOL     OW 6170  13.834  11.624   7.205
34799SOL    HW1 6171  13.780  11.677   7.146
34799SOL    HW2 6172  13.770  11.575   7.258
34800SOL     OW 6173   7.937   5.682   3.003
34800SOL    HW1 6174   7.895   5.756   2.958
34800SOL    HW2 6175   8.011   5.660   2.947
34801SOL     OW 6176  11.772   7.358  12.202
34801SOL    HW1 6177  11.864   7.380  12.192
34801SOL    HW2 6178  11.738   7.355  12.112
34802SOL     OW 6179   9.396   0.889   7.416
34802SOL    HW1 6180   9.313   0.858   7.378
34802SOL    HW2 6181   9.374   0.973   7.457
34803SOL     OW 6182  10.389   2.768   1.340
34803SOL    HW1 6183  10.353   2.727   1.418
34803SOL    HW2 6184  10.313   2.807   1.296
34804SOL     OW 6185   6.746  12.404   2.448
34804SOL    HW1 6186   6.666  12.363   2.417
34804SOL    HW2 6187   6.757  12.481   2.392
34805SOL     OW 6188  13.506   6.090   5.169
34805SOL    HW1 6189  13.433   6.128   5.119
34805SOL    HW2 6190  13.579   6.087   5.106
34806SOL     OW 6191   8.262  11.366   1.417
34806SOL    HW1 6192   8.314  11.386   1.494
34806SOL    HW2 6193   8.176  11.402   1.436
34807SOL     OW 6194   6.904   9.946   4.122
34807SOL    HW1 6195   6.962  10.009   4.080
34807SOL    HW2 6196   6.900   9.873   4.060
34808SOL     OW 6197   8.967   4.004   1.082
34808SOL    HW1 6198   9.053   4.039   1.057
34808SOL    HW2 6199   8.987   3.931   1.140
34809SOL     OW 6200  10.579  10.430   5.873
34809SOL    HW1 6201  10.638  10.444   5.947
34809SOL    HW2 6202  10.519  10.504   5.876
34810SOL     OW 6203  10.219   8.015   5.071
34810SOL    HW1 6204  10.227   8.000   4.977
34810SOL    HW2 6205  10.223   7.927   5.110
34811SOL     OW 6206   4.493  14.517  11.431
34811SOL    HW1 6207   4.525  14.470  11.508
34811SOL    HW2 6208   4.411  14.474  11.408
34812SOL     OW 6209   7.590  10.732   4.799
34812SOL    HW1 6210   7.594  10.652   4.747
34812SOL    HW2 6211   7.616  10.802   4.738
34813SOL     OW 6212   6.613  12.768  14.652
34813SOL    HW1 6213   6.631  12.803  14.739
34813SOL    HW2 6214   6.551  12.697  14.668
34814SOL     OW 6215   1.526   9.908  14.573
34814SOL    HW1 6216   1.455   9.950  14.622
34814SOL    HW2 6217   1.582   9.980  14.544
34815SOL     OW 6218   9.594   1.084   6.206
34815SOL    HW1 6219   9.603   1.079   6.301
34815SOL    HW2 6220   9.551   1.001   6.183
34816SOL     OW 6221   6.426   3.160   9.256
34816SOL    HW1 6222   6.407   3.206   9.175
34816SOL    HW2 6223   6.413   3.225   9.325
34817SOL     OW 6224   3.825   9.834   1.602
34817SOL    HW1 6225   3.835   9.833   1.697
34817SOL    HW2 6226   3.849   9.923   1.576
34818SOL     OW 6227   8.748   5.825   2.199
34818SOL    HW1 6228   8.783   5.914   2.204
34818SOL    HW2 6229   8.663   5.831   2.245
34819SOL     OW 6230   7.347   8.124   7.171
34819SOL    HW1 6231   7.338   8.061   7.100
34819SOL    HW2 6232   7.333   8.209   7.130
34820SOL     OW 6233   8.938  13.272   0.028
34820SOL    HW1 6234   8.998  13.205   0.061
34820SOL    HW2 6235   8.942  13.262  14.815
34821SOL     OW 6236  13.366   8.975   6.328
34821SOL    HW1 6237  13.301   8.926   6.277
34821SOL    HW2 6238  13.450   8.948   6.292
34822SOL     OW 6239   2.834  14.175  14.039
34822SOL    HW1 6240   2.898  14.160  13.969
34822SOL    HW2 6241   2.867  14.252  14.084
34823SOL     OW 6242   1.920  12.395   7.969
34823SOL    HW1 6243   1.853  12.374   7.904
34823SOL    HW2 6244   1.948  12.310   8.002
34824SOL     OW 6245  11.803  14.136   9.424
34824SOL    HW1 6246  11.847  14.051   9.426
34824SOL    HW2 6247  11.845  14.186   9.494
34825SOL     OW 6248   1.866  12.238   4.996
34825SOL    HW1 6249   1.846  12.331   4.989
34825SOL    HW2 6250   1.801  12.195   4.940
34826SOL     OW 6251   3.333   9.542   3.029
34826SOL    HW1 6252   3.296   9.461   3.064
34826SOL    HW2 6253   3.358   9.593   3.106
34827SOL     OW 6254  14.280  13.407  12.026
34827SOL    HW1 6255  14.215  13.454  12.077
34827SOL    HW2 6256  14.298  13.327  12.076
34828SOL     OW 6257   3.352   1.570   3.635
34828SOL    HW1 6258   3.438   1.527   3.625
34828SOL    HW2 6259   3.292   1.497   3.652
34829SOL     OW 6260   6.716  10.774   2.576
34829SOL    HW1 6261   6.770  10.719   2.520
34829SOL    HW2 6262   6.661  10.824   2.515
34830SOL     OW 6263  13.840   9.069  14.186
34830SOL    HW1 6264  13.857   9.030  14.100
34830SOL    HW2 6265  13.798   9.153  14.167
34831SOL     OW 6266   8.502   6.815   5.012
34831SOL    HW1 6267   8.506   6.898   4.965
34831SOL    HW2 6268   8.559   6.827   5.088
34832SOL     OW 6269   5.678   0.794  12.979
34832SOL    HW1 6270   5.667   0.776  13.072
34832SOL    HW2 6271   5.588   0.804  12.946
34833SOL     OW 6272   0.920  13.815   7.946
34833SOL    HW1 6273   1.012  13.792   7.933
34833SOL    HW2 6274   0.872  13.752   7.893
34834SOL     OW 6275  10.602  14.733  11.066
34834SOL    HW1 6276  10.612  14.703  10.976
34834SOL    HW2 6277  10.652  14.671  11.119
34835SOL     OW 6278  13.965  12.671   5.598
34835SOL    HW1 6279  13.935  12.701   5.513
34835SOL    HW2 6280  14.023  12.597   5.579
34836SOL     OW 6281   5.964   1.760   6.294
34836SOL    HW1 6282   5.881   1.753   6.341
34836SOL    HW2 6283   5.981   1.671   6.263
34837SOL     OW 6284   7.523   8.531   2.673
34837SOL    HW1 6285   7.444   8.515   2.725
34837SOL    HW2 6286   7.575   8.591   2.726
34838SOL     OW 6287   6.818  14.251   5.564
34838SOL    HW1 6288   6.876  14.218   5.633
34838SOL    HW2 6289   6.757  14.308   5.610
34839SOL     OW 6290   4.365   9.196  13.007
34839SOL    HW1 6291   4.432   9.252  12.967
34839SOL    HW2 6292   4.286   9.250  13.009
34840SOL     OW 6293   2.130  14.249   9.221
34840SOL    HW1 6294   2.097  14.199   9.147
34840SOL    HW2 6295   2.128  14.188   9.295
34841SOL     OW 6296   9.967   6.852   8.539
34841SOL    HW1 6297   9.942   6.842   8.447
34841SOL    HW2 6298  10.043   6.796   8.549
34842SOL     OW 6299   2.637  10.269   9.714
34842SOL    HW1 6300   2.680  10.273   9.800
34842SOL    HW2 6301   2.709  10.253   9.653
34843SOL     OW 6302   5.909   4.998   7.052
34843SOL    HW1 6303   5.849   5.032   6.985
34843SOL    HW2 6304   5.894   5.052   7.129
34844SOL     OW 6305   7.668   6.330   2.782
34844SOL    HW1 6306   7.633   6.386   2.713
34844SOL    HW2 6307   7.763   6.343   2.777
34845SOL     OW 6308   2.248  14.310   5.501
34845SOL    HW1 6309   2.268  14.230   5.452
34845SOL    HW2 6310   2.157  14.331   5.477
34846SOL     OW 6311   9.030  13.942  13.072
34846SOL    HW1 6312   9.074  14.025  13.089
34846SOL    HW2 6313   9.041  13.928  12.978
34847SOL     OW 6314  10.899  13.078   7.659
34847SOL    HW1 6315  10.983  13.124   7.649
34847SOL    HW2 6316  10.895  13.055   7.751
34848SOL     OW 6317   5.672   3.673   6.687
34848SOL    HW1 6318   5.656   3.766   6.702
34848SOL    HW2 6319   5.745   3.652   6.746
34849SOL     OW 6320   9.034   2.390   2.779
34849SOL    HW1 6321   9.021   2.426   2.691
34849SOL    HW2 6322   9.129   2.393   2.792
34850SOL     OW 6323  12.557   8.501   8.167
34850SOL    HW1 6324  12.550   8.420   8.117
34850SOL    HW2 6325  12.481   8.552   8.140
34851SOL     OW 6326   0.269  13.359   5.528
34851SOL    HW1 6327   0.223  13.441   5.512
34851SOL    HW2 6328   0.234  13.328   5.612
34852SOL     OW 6329   1.366  13.934   1.969
34852SOL    HW1 6330   1.313  14.007   1.937
34852SOL    HW2 6331   1.341  13.924   2.061
34853SOL     OW 6332  10.742   6.742  12.196
34853SOL    HW1 6333  10.648   6.751  12.182
34853SOL    HW2 6334  10.771   6.830  12.221
34854SOL     OW 6335  11.060  14.215   0.566
34854SOL    HW1 6336  11.076  14.223   0.660
34854SOL    HW2 6337  11.122  14.148   0.537
34855SOL     OW 6338   4.519  10.532   4.129
34855SOL    HW1 6339   4.546  10.489   4.209
34855SOL    HW2 6340   4.459  10.601   4.158
34856SOL     OW 6341  13.180   1.217  10.098
34856SOL    HW1 6342  13.183   1.122  10.108
34856SOL    HW2 6343  13.106   1.233  10.039
34857SOL     OW 6344  12.467   2.410   2.874
34857SOL    HW1 6345  12.482   2.380   2.784
34857SOL    HW2 6346  12.537   2.473   2.890
34858SOL     OW 6347  13.961   4.502   3.450
34858SOL    HW1 6348  14.011   4.463   3.521
34858SOL    HW2 6349  13.932   4.427   3.398
34859SOL     OW 6350   2.734   0.047   8.159
34859SOL    HW1 6351   2.686  14.846   8.171
34859SOL    HW2 6352   2.695   0.107   8.222
34860SOL     OW 6353  13.163  13.527   6.146
34860SOL    HW1 6354  13.146  13.434   6.163
34860SOL    HW2 6355  13.246  13.545   6.188
34861SOL     OW 6356   5.384   6.963  14.098
34861SOL    HW1 6357   5.442   6.890  14.078
34861SOL    HW2 6358   5.304   6.922  14.129
34862SOL     OW 6359   3.109   7.330   1.001
34862SOL    HW1 6360   3.175   7.327   1.070
34862SOL    HW2 6361   3.036   7.279   1.036
34863SOL     OW 6362   6.883  10.839   0.726
34863SOL    HW1 6363   6.844  10.873   0.806
34863SOL    HW2 6364   6.821  10.864   0.657
34864SOL     OW 6365  10.064  14.120   0.688
34864SOL    HW1 6366  10.120  14.120   0.611
34864SOL    HW2 6367  10.074  14.208   0.725
34865SOL     OW 6368   1.631   5.772   8.155
34865SOL    HW1 6369   1.720   5.757   8.126
34865SOL    HW2 6370   1.606   5.856   8.115
34866SOL     OW 6371   1.231   4.770  14.512
34866SOL    HW1 6372   1.223   4.676  14.492
34866SOL    HW2 6373   1.263   4.772  14.603
34867SOL     OW 6374   6.415   2.406   4.072
34867SOL    HW1 6375   6.367   2.421   4.153
34867SOL    HW2 6376   6.378   2.325   4.037
34868SOL     OW 6377   4.566   1.629   9.375
34868SOL    HW1 6378   4.626   1.685   9.326
34868SOL    HW2 6379   4.483   1.677   9.376
34869SOL     OW 6380   8.795   8.734   6.326
34869SOL    HW1 6381   8.854   8.668   6.362
34869SOL    HW2 6382   8.715   8.724   6.376
34870SOL     OW 6383   3.902   3.715   2.629
34870SOL    HW1 6384   3.841   3.714   2.702
34870SOL    HW2 6385   3.906   3.623   2.600
34871SOL     OW 6386   5.119   6.404   3.941
34871SOL    HW1 6387   5.091   6.484   3.984
34871SOL    HW2 6388   5.144   6.432   3.853
34872SOL     OW 6389   8.576   0.237   3.407
34872SOL    HW1 6390   8.498   0.286   3.432
34872SOL    HW2 6391   8.542   0.157   3.367
34873SOL     OW 6392   0.168   0.166  11.748
34873SOL    HW1 6393   0.176   0.240  11.808
34873SOL    HW2 6394   0.118   0.201  11.674
34874SOL     OW 6395   7.587   1.483  10.494
34874SOL    HW1 6396   7.596   1.499  10.588
34874SOL    HW2 6397   7.492   1.473  10.481
34875SOL     OW 6398   2.195   5.129  14.432
34875SOL    HW1 6399   2.181   5.145  14.526
34875SOL    HW2 6400   2.138   5.054  14.412
34876SOL     OW 6401   7.671   2.690  14.696
34876SOL    HW1 6402   7.708   2.677  14.783
34876SOL    HW2 6403   7.745   2.677  14.637
34877SOL     OW 6404  12.081  14.796  13.594
34877SOL    HW1 6405  12.111   0.005  13.601
34877SOL    HW2 6406  12.157  14.744  13.622
34878SOL     OW 6407  11.319   7.166   6.749
34878SOL    HW1 6408  11.365   7.241   6.711
34878SOL    HW2 6409  11.316   7.101   6.679
34879SOL     OW 6410   2.389   5.176   9.404
34879SOL    HW1 6411   2.367   5.195   9.496
34879SOL    HW2 6412   2.419   5.260   9.369
34880SOL     OW 6413   0.527  11.709  14.010
34880SOL    HW1 6414   0.453  11.648  14.012
34880SOL    HW2 6415   0.511  11.769  14.084
34881SOL     OW 6416   8.868   8.422  10.039
34881SOL    HW1 6417   8.868   8.491   9.974
34881SOL    HW2 6418   8.876   8.341   9.989
34882SOL     OW 6419   7.232   3.929   2.630
34882SOL    HW1 6420   7.291   3.968   2.694
34882SOL    HW2 6421   7.187   4.003   2.590
34883SOL     OW 6422  10.095  13.034  13.088
34883SOL    HW1 6423  10.008  12.999  13.108
34883SOL    HW2 6424  10.124  12.984  13.012
34884SOL     OW 6425  10.898  12.115   2.346
34884SOL    HW1 6426  10.913  12.181   2.413
34884SOL    HW2 6427  10.913  12.161   2.263
34885SOL     OW 6428  12.631   0.791  14.515
34885SOL    HW1 6429  12.668   0.728  14.453
34885SOL    HW2 6430  12.545   0.813  14.479
34886SOL     OW 6431   9.619   8.679   6.823
34886SOL    HW1 6432   9.539   8.728   6.806
34886SOL    HW2 6433   9.641   8.700   6.914
34887SOL     OW 6434  14.513   6.319  12.327
34887SOL    HW1 6435  14.516   6.306  12.422
34887SOL    HW2 6436  14.456   6.249  12.295
34888SOL     OW 6437   5.643   7.837   0.195
34888SOL    HW1 6438   5.738   7.838   0.204
34888SOL    HW2 6439   5.622   7.748   0.168
34889SOL     OW 6440   9.877  12.274   8.758
34889SOL    HW1 6441   9.899  12.188   8.720
34889SOL    HW2 6442   9.782  12.273   8.766
34890SOL     OW 6443   8.900   7.846   0.027
34890SOL    HW1 6444   8.983   7.837   0.073
34890SOL    HW2 6445   8.922   7.890  14.827
34891SOL     OW 6446  11.753   4.734   9.036
34891SOL    HW1 6447  11.805   4.767   9.110
34891SOL    HW2 6448  11.813   4.736   8.962
34892SOL     OW 6449  12.300   7.115   5.725
34892SOL    HW1 6450  12.228   7.099   5.786
34892SOL    HW2 6451  12.295   7.042   5.663
34893SOL     OW 6452  13.253   7.164   9.643
34893SOL    HW1 6453  13.326   7.149   9.583
34893SOL    HW2 6454  13.194   7.222   9.594
34894SOL     OW 6455  11.510   4.849   9.042
34894SOL    HW1 6456  11.478   4.827   8.955
34894SOL    HW2 6457  11.600   4.814   9.044
34895SOL     OW 6458  11.672   5.220   3.728
34895SOL    HW1 6459  11.598   5.171   3.764
34895SOL    HW2 6460  11.645   5.239   3.638
34896SOL     OW 6461   3.595   2.909   6.277
34896SOL    HW1 6462   3.678   2.955   6.291
34896SOL    HW2 6463   3.548   2.962   6.213
34897SOL     OW 6464   3.100   7.692   3.346
34897SOL    HW1 6465   3.166   7.754   3.374
34897SOL    HW2 6466   3.085   7.712   3.253
34898SOL     OW 6467   8.919  10.158   3.583
34898SOL    HW1 6468   8.999  10.147   3.532
34898SOL    HW2 6469   8.907  10.073   3.626
34899SOL     OW 6470  14.842   8.035   8.618
34899SOL    HW1 6471  14.865   8.066   8.531
34899SOL    HW2 6472   0.041   7.995   8.652
34900SOL     OW 6473  13.533  12.845  11.009
34900SOL    HW1 6474  13.605  12.879  10.955
34900SOL    HW2 6475  13.460  12.836  10.948
34901SOL     OW 6476   8.997   9.238   3.301
34901SOL    HW1 6477   8.903   9.229   3.316
34901SOL    HW2 6478   9.015   9.184   3.224
34902SOL     OW 6479  13.415   1.022  10.488
34902SOL    HW1 6480  13.504   1.056  10.498
34902SOL    HW2 6481  13.379   1.072  10.415
34903SOL     OW 6482   3.105   3.348   7.565
34903SOL    HW1 6483   3.029   3.291   7.578
34903SOL    HW2 6484   3.147   3.351   7.651
34904SOL     OW 6485   1.660   3.361   4.276
34904SOL    HW1 6486   1.666   3.321   4.363
34904SOL    HW2 6487   1.628   3.449   4.292
34905SOL     OW 6488   0.619  13.255   7.832
34905SOL    HW1 6489   0.648  13.231   7.745
34905SOL    HW2 6490   0.642  13.180   7.887
34906SOL     OW 6491   4.487   0.179   1.923
34906SOL    HW1 6492   4.433   0.104   1.898
34906SOL    HW2 6493   4.569   0.140   1.954
34907SOL     OW 6494  12.265   9.693   9.884
34907SOL    HW1 6495  12.208   9.738   9.946
34907SOL    HW2 6496  12.308   9.764   9.836
34908SOL     OW 6497  13.258   7.558  10.265
34908SOL    HW1 6498  13.224   7.509  10.339
34908SOL    HW2 6499  13.195   7.544  10.195
34909SOL     OW 6500  11.334   6.758   2.277
34909SOL    HW1 6501  11.316   6.813   2.201
34909SOL    HW2 6502  11.429   6.765   2.290
34910SOL     OW 6503   3.126  12.581   7.679
34910SOL    HW1 6504   3.057  12.527   7.718
34910SOL    HW2 6505   3.181  12.607   7.754
34911SOL     OW 6506   5.790   1.771   6.739
34911SOL    HW1 6507   5.780   1.755   6.832
34911SOL    HW2 6508   5.885   1.775   6.725
34912SOL     OW 6509  10.689   7.796   1.098
34912SOL    HW1 6510  10.594   7.799   1.083
34912SOL    HW2 6511  10.718   7.718   1.052
34913SOL     OW 6512   8.780   9.687   6.737
34913SOL    HW1 6513   8.764   9.703   6.644
34913SOL    HW2 6514   8.859   9.739   6.756
34914SOL     OW 6515   9.297  12.829   0.158
34914SOL    HW1 6516   9.235  12.762   0.128
34914SOL    HW2 6517   9.281  12.836   0.252
34915SOL     OW 6518   5.998   1.332   3.591
34915SOL    HW1 6519   5.971   1.322   3.682
34915SOL    HW2 6520   6.046   1.415   3.589
34916SOL     OW 6521   4.802  11.372   6.632
34916SOL    HW1 6522   4.720  11.419   6.617
34916SOL    HW2 6523   4.870  11.440   6.629
34917SOL     OW 6524  10.706  12.680   8.456
34917SOL    HW1 6525  10.757  12.645   8.530
34917SOL    HW2 6526  10.637  12.616   8.442
34918SOL     OW 6527  13.806   7.845  12.038
34918SOL    HW1 6528  13.877   7.873  11.981
34918SOL    HW2 6529  13.765   7.771  11.992
34919SOL     OW 6530   4.340  12.675  13.334
34919SOL    HW1 6531   4.384  12.736  13.274
34919SOL    HW2 6532   4.293  12.615  13.276
34920SOL     OW 6533   6.197   6.188   6.383
34920SOL    HW1 6534   6.224   6.109   6.431
34920SOL    HW2 6535   6.102   6.185   6.383
34921SOL     OW 6536   8.326   5.920  11.982
34921SOL    HW1 6537   8.341   5.920  11.887
34921SOL    HW2 6538   8.230   5.923  11.991
34922SOL     OW 6539  11.892   4.785  14.676
34922SOL    HW1 6540  11.937   4.844  14.617
34922SOL    HW2 6541  11.842   4.727  14.619
34923SOL     OW 6542   6.228   3.538   1.488
34923SOL    HW1 6543   6.165   3.540   1.560
34923SOL    HW2 6544   6.287   3.612   1.506
34924SOL     OW 6545  13.834   3.711   7.899
34924SOL    HW1 6546  13.832   3.750   7.987
34924SOL    HW2 6547  13.826   3.786   7.840
34925SOL     OW 6548  11.121   0.319   5.149
34925SOL    HW1 6549  11.113   0.243   5.092
34925SOL    HW2 6550  11.161   0.285   5.229
34926SOL     OW 6551   8.621  12.006  12.530
34926SOL    HW1 6552   8.541  11.953  12.539
34926SOL    HW2 6553   8.671  11.962  12.461
34927SOL     OW 6554   3.209   1.861  13.013
34927SOL    HW1 6555   3.301   1.848  12.990
34927SOL    HW2 6556   3.202   1.954  13.034
34928SOL     OW 6557   8.318  13.011   3.582
34928SOL    HW1 6558   8.235  12.995   3.538
34928SOL    HW2 6559   8.320  13.106   3.596
34929SOL     OW 6560  14.116  14.012  10.821
34929SOL    HW1 6561  14.093  13.921  10.803
34929SOL    HW2 6562  14.156  14.043  10.739
34930SOL     OW 6563  14.484   6.711  11.822
34930SOL    HW1 6564  14.576   6.692  11.802
34930SOL    HW2 6565  14.451   6.753  11.743
34931SOL     OW 6566   6.336   5.676   3.341
34931SOL    HW1 6567   6.259   5.630   3.372
34931SOL    HW2 6568   6.318   5.768   3.359
34932SOL     OW 6569   2.985  11.899   1.867
34932SOL    HW1 6570   3.056  11.890   1.931
34932SOL    HW2 6571   2.962  11.992   1.870
34933SOL     OW 6572   3.306  13.301  12.891
34933SOL    HW1 6573   3.260  13.333  12.969
34933SOL    HW2 6574   3.369  13.370  12.870
34934SOL     OW 6575   9.364   3.361   6.155
34934SOL    HW1 6576   9.353   3.327   6.244
34934SOL    HW2 6577   9.376   3.455   6.166
34935SOL     OW 6578   9.128  12.376   9.915
34935SOL    HW1 6579   9.148  12.380   9.821
34935SOL    HW2 6580   9.207  12.341   9.955
34936SOL     OW 6581   2.507   6.183   3.193
34936SOL    HW1 6582   2.475   6.230   3.116
34936SOL    HW2 6583   2.483   6.238   3.267
34937SOL     OW 6584   8.187   7.145  14.396
34937SOL    HW1 6585   8.210   7.168  14.306
34937SOL    HW2 6586   8.141   7.223  14.429
34938SOL     OW 6587   8.390   5.650  11.786
34938SOL    HW1 6588   8.331   5.615  11.854
34938SOL    HW2 6589   8.356   5.738  11.769
34939SOL     OW 6590   9.062   4.167   0.412
34939SOL    HW1 6591   8.997   4.146   0.479
34939SOL    HW2 6592   9.024   4.136   0.330
34940SOL     OW 6593   9.223   6.600  13.418
34940SOL    HW1 6594   9.221   6.585  13.513
34940SOL    HW2 6595   9.199   6.516  13.380
34941SOL     OW 6596   2.705   4.359   2.977
34941SOL    HW1 6597   2.641   4.318   3.035
34941SOL    HW2 6598   2.681   4.452   2.976
34942SOL     OW 6599  10.355   4.516  11.751
34942SOL    HW1 6600  10.406   4.595  11.735
34942SOL    HW2 6601  10.411   4.444  11.721
34943SOL     OW 6602   2.735   9.072   6.365
34943SOL    HW1 6603   2.793   9.098   6.436
34943SOL    HW2 6604   2.647   9.086   6.399
34944SOL     OW 6605   3.015  12.292   9.667
34944SOL    HW1 6606   3.057  12.356   9.724
34944SOL    HW2 6607   2.923  12.319   9.663
34945SOL     OW 6608  10.995   3.029   1.408
34945SOL    HW1 6609  10.932   3.098   1.431
34945SOL    HW2 6610  10.988   3.021   1.313
34946SOL     OW 6611  13.073   2.956   4.782
34946SOL    HW1 6612  13.008   3.024   4.766
34946SOL    HW2 6613  13.108   2.934   4.696
34947SOL     OW 6614  13.211  14.167   9.460
34947SOL    HW1 6615  13.239  14.150   9.550
34947SOL    HW2 6616  13.135  14.110   9.448
34948SOL     OW 6617   8.935  10.859  10.701
34948SOL    HW1 6618   8.963  10.936  10.651
34948SOL    HW2 6619   8.856  10.888  10.746
34949SOL     OW 6620  11.861  11.604  13.413
34949SOL    HW1 6621  11.941  11.563  13.381
34949SOL    HW2 6622  11.888  11.652  13.492
34950SOL     OW 6623   5.610   3.535   5.966
34950SOL    HW1 6624   5.669   3.552   6.040
34950SOL    HW2 6625   5.667   3.531   5.890
34951SOL     OW 6626   0.541  12.358   7.149
34951SOL    HW1 6627   0.454  12.344   7.185
34951SOL    HW2 6628   0.600  12.354   7.224
34952SOL     OW 6629   4.742  14.780  14.830
34952SOL    HW1 6630   4.706  14.706  14.879
34952SOL    HW2 6631   4.806  14.741  14.771
34953SOL     OW 6632   5.300  13.063   3.822
34953SOL    HW1 6633   5.268  12.974   3.805
34953SOL    HW2 6634   5.267  13.083   3.910
34954SOL     OW 6635   8.049   1.720   2.650
34954SOL    HW1 6636   8.059   1.811   2.680
34954SOL    HW2 6637   7.969   1.690   2.693
34955SOL     OW 6638   8.476   4.678  14.447
34955SOL    HW1 6639   8.488   4.755  14.503
34955SOL    HW2 6640   8.564   4.644  14.433
34956SOL     OW 6641   2.872  14.582   2.948
34956SOL    HW1 6642   2.857  14.507   3.006
34956SOL    HW2 6643   2.895  14.654   3.006
34957SOL     OW 6644  10.840  10.599   2.040
34957SOL    HW1 6645  10.846  10.658   2.115
34957SOL    HW2 6646  10.828  10.513   2.078
34958SOL     OW 6647   2.017  10.953   5.666
34958SOL    HW1 6648   2.069  10.937   5.587
34958SOL    HW2 6649   2.019  10.870   5.713
34959SOL     OW 6650  11.935   6.850  11.982
34959SOL    HW1 6651  11.937   6.838  11.887
34959SOL    HW2 6652  12.011   6.803  12.015
34960SOL     OW 6653   8.416   9.454  13.974
34960SOL    HW1 6654   8.326   9.420  13.973
34960SOL    HW2 6655   8.461   9.404  13.906
34961SOL     OW 6656   1.385  13.096   1.759
34961SOL    HW1 6657   1.324  13.164   1.731
34961SOL    HW2 6658   1.394  13.109   1.854
34962SOL     OW 6659  12.114   1.958   8.512
34962SOL    HW1 6660  12.114   1.998   8.425
34962SOL    HW2 6661  12.027   1.920   8.521
34963SOL     OW 6662   7.628   0.900  14.697
34963SOL    HW1 6663   7.575   0.980  14.702
34963SOL    HW2 6664   7.714   0.929  14.667
34964SOL     OW 6665   5.333   4.354   3.921
34964SOL    HW1 6666   5.360   4.303   3.998
34964SOL    HW2 6667   5.282   4.293   3.869
34965SOL     OW 6668   4.444   8.200  14.576
34965SOL    HW1 6669   4.385   8.229  14.507
34965SOL    HW2 6670   4.528   8.186  14.531
34966SOL     OW 6671   7.859   0.274   2.094
34966SOL    HW1 6672   7.912   0.227   2.030
34966SOL    HW2 6673   7.770   0.270   2.058
34967SOL     OW 6674  11.197   4.213   2.106
34967SOL    HW1 6675  11.203   4.283   2.040
34967SOL    HW2 6676  11.182   4.134   2.055
34968SOL     OW 6677   8.007   8.843   7.304
34968SOL    HW1 6678   8.030   8.864   7.395
34968SOL    HW2 6679   7.981   8.751   7.308
34969SOL     OW 6680  13.432   7.110  13.587
34969SOL    HW1 6681  13.485   7.050  13.535
34969SOL    HW2 6682  13.361   7.136  13.528
34970SOL     OW 6683   8.242   9.526  11.979
34970SOL    HW1 6684   8.153   9.524  12.013
34970SOL    HW2 6685   8.232   9.549  11.886
34971SOL     OW 6686   2.443   9.774   8.111
34971SOL    HW1 6687   2.456   9.867   8.089
34971SOL    HW2 6688   2.525   9.748   8.153
34972SOL     OW 6689  11.123   7.247  14.037
34972SOL    HW1 6690  11.188   7.177  14.040
34972SOL    HW2 6691  11.138   7.290  13.952
34973SOL     OW 6692  10.340   0.407   9.980
34973SOL    HW1 6693  10.324   0.463   9.904
34973SOL    HW2 6694  10.254   0.368   9.999
34974SOL     OW 6695   3.368   0.082   9.134
34974SOL    HW1 6696   3.310   0.126   9.072
34974SOL    HW2 6697   3.370   0.139   9.210
34975SOL     OW 6698   0.106   2.836   1.042
34975SOL    HW1 6699   0.061   2.858   1.124
34975SOL    HW2 6700   0.061   2.887   0.975
34976SOL     OW 6701   6.410   0.821   1.626
34976SOL    HW1 6702   6.452   0.907   1.627
34976SOL    HW2 6703   6.392   0.804   1.533
34977SOL     OW 6704   4.252   6.765  13.030
34977SOL    HW1 6705   4.299   6.806  12.958
34977SOL    HW2 6706   4.207   6.838  13.073
34978SOL     OW 6707   5.583  13.102   0.194
34978SOL    HW1 6708   5.581  13.123   0.100
34978SOL    HW2 6709   5.674  13.115   0.220
34979SOL     OW 6710   3.499   8.619   8.265
34979SOL    HW1 6711   3.481   8.657   8.179
34979SOL    HW2 6712   3.519   8.527   8.247
34980SOL     OW 6713   0.805   7.527   3.441
34980SOL    HW1 6714   0.825   7.441   3.405
34980SOL    HW2 6715   0.714   7.543   3.413
34981SOL     OW 6716   3.851  10.690   0.966
34981SOL    HW1 6717   3.842  10.602   0.929
34981SOL    HW2 6718   3.930  10.685   1.020
34982SOL     OW 6719  13.634  10.497  13.483
34982SOL    HW1 6720  13.671  10.410  13.497
34982SOL    HW2 6721  13.679  10.554  13.546
34983SOL     OW 6722   6.727   5.097   1.046
34983SOL    HW1 6723   6.738   5.102   0.951
34983SOL    HW2 6724   6.722   5.189   1.074
34984SOL     OW 6725  14.100   9.722   2.257
34984SOL    HW1 6726  14.171   9.784   2.239
34984SOL    HW2 6727  14.133   9.638   2.225
34985SOL     OW 6728  10.254   6.088   1.965
34985SOL    HW1 6729  10.191   6.027   2.003
34985SOL    HW2 6730  10.200   6.155   1.923
34986SOL     OW 6731   6.287  12.304   0.767
34986SOL    HW1 6732   6.373  12.276   0.799
34986SOL    HW2 6733   6.306  12.360   0.692
34987SOL     OW 6734   2.482  14.424   5.992
34987SOL    HW1 6735   2.561  14.469   5.963
34987SOL    HW2 6736   2.422  14.432   5.918
34988SOL     OW 6737  11.274   5.694   5.068
34988SOL    HW1 6738  11.346   5.719   5.009
34988SOL    HW2 6739  11.248   5.607   5.039
34989SOL     OW 6740   6.099   3.167  11.462
34989SOL    HW1 6741   6.171   3.114  11.497
34989SOL    HW2 6742   6.030   3.104  11.443
34990SOL     OW 6743   5.191  10.490   9.266
34990SOL    HW1 6744   5.284  10.481   9.248
34990SOL    HW2 6745   5.148  10.480   9.181
34991SOL     OW 6746   7.882  13.783   2.249
34991SOL    HW1 6747   7.852  13.874   2.241
34991SOL    HW2 6748   7.971  13.784   2.212
34992SOL     OW 6749   3.110  13.636   6.891
34992SOL    HW1 6750   3.162  13.581   6.950
34992SOL    HW2 6751   3.029  13.654   6.939
34993SOL     OW 6752   8.871   8.294   3.620
34993SOL    HW1 6753   8.858   8.213   3.669
34993SOL    HW2 6754   8.817   8.283   3.542
34994SOL     OW 6755  12.279  13.679   0.942
34994SOL    HW1 6756  12.307  13.743   0.877
34994SOL    HW2 6757  12.251  13.603   0.890
34995SOL     OW 6758   7.756  10.855  11.406
34995SOL    HW1 6759   7.706  10.906  11.470
34995SOL    HW2 6760   7.701  10.778  11.389
34996SOL     OW 6761   3.107   0.531  10.192
34996SOL    HW1 6762   3.109   0.436  10.206
34996SOL    HW2 6763   3.194   0.562  10.218
34997SOL     OW 6764  10.604   6.484   8.219
34997SOL    HW1 6765  10.521   6.469   8.264
34997SOL    HW2 6766  10.581   6.531   8.140
34998SOL     OW 6767  11.672   5.039  11.939
34998SOL    HW1 6768  11.667   4.946  11.916
34998SOL    HW2 6769  11.611   5.048  12.013
34999SOL     OW 6770  14.707   3.838  10.456
34999SOL    HW1 6771  14.802   3.851  10.456
34999SOL    HW2 6772  14.692   3.774  10.386
35000SOL     OW 6773   2.857  13.835   1.079
35000SOL    HW1 6774   2.890  13.762   1.133
35000SOL    HW2 6775   2.855  13.799   0.990
35001SOL     OW 6776   8.658   5.987   9.187
35001SOL    HW1 6777   8.725   6.054   9.179
35001SOL    HW2 6778   8.595   6.023   9.249
35002SOL     OW 6779  11.821   4.224   5.209
35002SOL    HW1 6780  11.781   4.137   5.208
35002SOL    HW2 6781  11.870   4.227   5.291
35003SOL     OW 6782  12.337   3.947  12.191
35003SOL    HW1 6783  12.357   3.924  12.282
35003SOL    HW2 6784  12.320   4.041  12.194
35004SOL     OW 6785  12.550  13.975   2.441
35004SOL    HW1 6786  12.567  13.943   2.530
35004SOL    HW2 6787  12.545  13.896   2.388
35005SOL     OW 6788   0.284   6.864  14.250
35005SOL    HW1 6789   0.275   6.771  14.272
35005SOL    HW2 6790   0.327   6.902  14.327
35006SOL     OW 6791  12.892   5.027   5.656
35006SOL    HW1 6792  12.930   4.941   5.675
35006SOL    HW2 6793  12.940   5.059   5.580
35007SOL     OW 6794   7.549   3.590   0.855
35007SOL    HW1 6795   7.537   3.562   0.764
35007SOL    HW2 6796   7.631   3.639   0.854
35008SOL     OW 6797   0.218   1.427  12.321
35008SOL    HW1 6798   0.306   1.429  12.286
35008SOL    HW2 6799   0.228   1.447  12.414
35009SOL     OW 6800   2.374  11.105   6.743
35009SOL    HW1 6801   2.291  11.063   6.765
35009SOL    HW2 6802   2.421  11.040   6.692
35010SOL     OW 6803  13.645  12.536   5.904
35010SOL    HW1 6804  13.556  12.572   5.901
35010SOL    HW2 6805  13.636  12.446   5.875
35011SOL     OW 6806   1.306   3.661   4.615
35011SOL    HW1 6807   1.283   3.664   4.522
35011SOL    HW2 6808   1.366   3.734   4.627
35012SOL     OW 6809  12.707   4.369   5.609
35012SOL    HW1 6810  12.753   4.418   5.541
35012SOL    HW2 6811  12.649   4.310   5.561
35013SOL     OW 6812   5.944   0.202   7.299
35013SOL    HW1 6813   5.969   0.205   7.391
35013SOL    HW2 6814   5.951   0.109   7.275
35014SOL     OW 6815   7.768   2.272  11.332
35014SOL    HW1 6816   7.853   2.289  11.373
35014SOL    HW2 6817   7.753   2.179  11.344
35015SOL     OW 6818   6.875  11.880   0.686
35015SOL    HW1 6819   6.914  11.802   0.727
35015SOL    HW2 6820   6.782  11.874   0.706
35016SOL     OW 6821   0.255  14.417  12.641
35016SOL    HW1 6822   0.231  14.391  12.730
35016SOL    HW2 6823   0.345  14.386  12.631
35017SOL     OW 6824   5.989  14.337  14.523
35017SOL    HW1 6825   5.909  14.360  14.477
35017SOL    HW2 6826   6.053  14.402  14.496
35018SOL     OW 6827  14.609  10.007  12.050
35018SOL    HW1 6828  14.615  10.041  11.961
35018SOL    HW2 6829  14.614  10.085  12.106
35019SOL     OW 6830   7.261   4.256   2.948
35019SOL    HW1 6831   7.194   4.190   2.925
35019SOL    HW2 6832   7.267   4.311   2.870
35020SOL     OW 6833  11.480   7.084   1.157
35020SOL    HW1 6834  11.570   7.086   1.126
35020SOL    HW2 6835  11.463   7.172   1.191
35021SOL     OW 6836   2.926   2.397   0.362
35021SOL    HW1 6837   2.909   2.328   0.299
35021SOL    HW2 6838   3.022   2.404   0.366
35022SOL     OW 6839  13.101   0.472   3.805
35022SOL    HW1 6840  13.119   0.503   3.716
35022SOL    HW2 6841  13.171   0.410   3.823
35023SOL     OW 6842   5.221   3.827   4.779
35023SOL    HW1 6843   5.200   3.775   4.856
35023SOL    HW2 6844   5.196   3.772   4.705
35024SOL     OW 6845   7.242   9.255   4.258
35024SOL    HW1 6846   7.231   9.250   4.163
35024SOL    HW2 6847   7.281   9.341   4.273
35025SOL     OW 6848   3.962   3.747   3.353
35025SOL    HW1 6849   3.987   3.753   3.445
35025SOL    HW2 6850   3.995   3.662   3.324
35026SOL     OW 6851   4.467   0.749  14.753
35026SOL    HW1 6852   4.562   0.741  14.742
35026SOL    HW2 6853   4.431   0.700  14.679
35027SOL     OW 6854   7.212  10.243   4.951
35027SOL    HW1 6855   7.145  10.296   4.994
35027SOL    HW2 6856   7.258  10.304   4.894
35028SOL     OW 6857   7.072   3.341  11.233
35028SOL    HW1 6858   7.150   3.319  11.182
35028SOL    HW2 6859   7.106   3.382  11.312
35029SOL     OW 6860   5.551   5.100   9.034
35029SOL    HW1 6861   5.590   5.178   9.074
35029SOL    HW2 6862   5.618   5.032   9.043
35030SOL     OW 6863   2.790  13.736   2.784
35030SOL    HW1 6864   2.819  13.666   2.842
35030SOL    HW2 6865   2.822  13.816   2.825
35031SOL     OW 6866   7.935   0.994   1.166
35031SOL    HW1 6867   7.982   0.993   1.250
35031SOL    HW2 6868   7.842   0.995   1.191
35032SOL     OW 6869   6.851   8.508   0.139
35032SOL    HW1 6870   6.925   8.485   0.083
35032SOL    HW2 6871   6.838   8.430   0.194
35033SOL     OW 6872   9.885   8.378   2.691
35033SOL    HW1 6873   9.898   8.390   2.597
35033SOL    HW2 6874   9.965   8.333   2.720
35034SOL     OW 6875   4.498   7.253  13.896
35034SOL    HW1 6876   4.425   7.267  13.836
35034SOL    HW2 6877   4.467   7.287  13.980
35035SOL     OW 6878  13.296  11.386   5.109
35035SOL    HW1 6879  13.270  11.378   5.201
35035SOL    HW2 6880  13.371  11.328   5.101
35036SOL     OW 6881   4.944   9.775  14.329
35036SOL    HW1 6882   4.942   9.837  14.402
35036SOL    HW2 6883   4.898   9.821  14.258
35037SOL     OW 6884   9.042   8.732   0.246
35037SOL    HW1 6885   9.042   8.664   0.179
35037SOL    HW2 6886   9.134   8.738   0.273
35038SOL     OW 6887   7.684   4.778   9.020
35038SOL    HW1 6888   7.707   4.686   9.013
35038SOL    HW2 6889   7.687   4.811   8.930
35039SOL     OW 6890  13.154   8.176   5.520
35039SOL    HW1 6891  13.133   8.112   5.587
35039SOL    HW2 6892  13.074   8.228   5.510
35040SOL     OW 6893  11.623   1.586  12.665
35040SOL    HW1 6894  11.605   1.538  12.584
35040SOL    HW2 6895  11.679   1.659  12.638
35041SOL     OW 6896  12.930   4.162   6.057
35041SOL    HW1 6897  12.864   4.154   6.125
35041SOL    HW2 6898  12.970   4.248   6.072
35042SOL     OW 6899  14.105  14.102  14.444
35042SOL    HW1 6900  14.201  14.107  14.435
35042SOL    HW2 6901  14.079  14.034  14.383
35043SOL     OW 6902   3.684  13.921   1.017
35043SOL    HW1 6903   3.704  13.889   0.929
35043SOL    HW2 6904   3.722  14.009   1.020
35044SOL     OW 6905   2.169  14.841  14.166
35044SOL    HW1 6906   2.235  14.867  14.230
35044SOL    HW2 6907   2.213  14.777  14.110
35045SOL     OW 6908   7.060   5.230  11.452
35045SOL    HW1 6909   7.093   5.287  11.383
35045SOL    HW2 6910   7.044   5.146  11.408
35046SOL     OW 6911   6.414   5.100   3.418
35046SOL    HW1 6912   6.395   5.021   3.368
35046SOL    HW2 6913   6.454   5.160   3.354
35047SOL     OW 6914   8.713   4.049  14.833
35047SOL    HW1 6915   8.646   4.074  14.769
35047SOL    HW2 6916   8.786   4.108  14.816
35048SOL     OW 6917   9.405   7.264  11.486
35048SOL    HW1 6918   9.425   7.289  11.576
35048SOL    HW2 6919   9.491   7.258  11.443
35049SOL     OW 6920   6.441   9.783  11.202
35049SOL    HW1 6921   6.395   9.732  11.134
35049SOL    HW2 6922   6.532   9.783  11.174
35050SOL     OW 6923   6.504   2.378   7.563
35050SOL    HW1 6924   6.469   2.460   7.528
35050SOL    HW2 6925   6.567   2.348   7.496
35051SOL     OW 6926   1.863   6.287  10.784
35051SOL    HW1 6927   1.798   6.239  10.836
35051SOL    HW2 6928   1.936   6.300  10.845
35052SOL     OW 6929   8.223   0.880  10.261
35052SOL    HW1 6930   8.195   0.967  10.234
35052SOL    HW2 6931   8.252   0.838  10.181
35053SOL     OW 6932   1.538   7.143  14.490
35053SOL    HW1 6933   1.575   7.058  14.514
35053SOL    HW2 6934   1.602   7.207  14.522
35054SOL     OW 6935   7.168   3.743   2.948
35054SOL    HW1 6936   7.247   3.784   2.984
35054SOL    HW2 6937   7.193   3.651   2.935
35055SOL     OW 6938   9.791  11.588  13.629
35055SOL    HW1 6939   9.701  11.618  13.614
35055SOL    HW2 6940   9.829  11.583  13.541
35056SOL     OW 6941  14.800   0.539   5.748
35056SOL    HW1 6942  14.748   0.466   5.781
35056SOL    HW2 6943  14.852   0.500   5.677
35057SOL     OW 6944  14.253   0.555   2.230
35057SOL    HW1 6945  14.321   0.499   2.270
35057SOL    HW2 6946  14.272   0.552   2.137
35058SOL     OW 6947   8.417   8.562   7.356
35058SOL    HW1 6948   8.352   8.528   7.294
35058SOL    HW2 6949   8.401   8.514   7.437
35059SOL     OW 6950   0.598  10.937   5.749
35059SOL    HW1 6951   0.619  10.858   5.700
35059SOL    HW2 6952   0.662  11.002   5.718
35060SOL     OW 6953   6.788   6.190  10.103
35060SOL    HW1 6954   6.709   6.159  10.147
35060SOL    HW2 6955   6.763   6.274  10.064
35061SOL     OW 6956   7.676   0.803   2.614
35061SOL    HW1 6957   7.767   0.782   2.595
35061SOL    HW2 6958   7.637   0.719   2.639
35062SOL     OW 6959   7.389   3.704   6.146
35062SOL    HW1 6960   7.352   3.692   6.233
35062SOL    HW2 6961   7.349   3.635   6.093
35063SOL     OW 6962   4.196  11.604  11.071
35063SOL    HW1 6963   4.224  11.565  11.154
35063SOL    HW2 6964   4.170  11.693  11.093
35064SOL     OW 6965   3.119   5.910  11.892
35064SOL    HW1 6966   3.196   5.963  11.912
35064SOL    HW2 6967   3.045   5.964  11.921
35065SOL     OW 6968  12.850  10.841  11.254
35065SOL    HW1 6969  12.763  10.817  11.221
35065SOL    HW2 6970  12.873  10.771  11.315
35066SOL     OW 6971   2.008   8.553   8.696
35066SOL    HW1 6972   1.998   8.464   8.663
35066SOL    HW2 6973   2.002   8.608   8.618
35067SOL     OW 6974   2.208   4.923   5.436
35067SOL    HW1 6975   2.115   4.906   5.449
35067SOL    HW2 6976   2.213   5.017   5.419
35068SOL     OW 6977  14.226   0.191  12.113
35068SOL    HW1 6978  14.292   0.123  12.126
35068SOL    HW2 6979  14.221   0.237  12.197
35069SOL     OW 6980  12.229  14.700   1.382
35069SOL    HW1 6981  12.275  14.622   1.350
35069SOL    HW2 6982  12.204  14.677   1.472
35070SOL     OW 6983   1.577   0.219   9.994
35070SOL    HW1 6984   1.568   0.218   9.899
35070SOL    HW2 6985   1.587   0.127  10.018
35071SOL     OW 6986   2.437  12.761   8.650
35071SOL    HW1 6987   2.460  12.669   8.640
35071SOL    HW2 6988   2.471  12.803   8.571
35072SOL     OW 6989   6.659   6.984   1.455
35072SOL    HW1 6990   6.608   7.000   1.534
35072SOL    HW2 6991   6.605   7.019   1.384
35073SOL     OW 6992  12.060   6.259  13.213
35073SOL    HW1 6993  12.118   6.283  13.284
35073SOL    HW2 6994  12.022   6.342  13.183
35074SOL     OW 6995   2.908  12.402   3.036
35074SOL    HW1 6996   2.820  12.378   3.066
35074SOL    HW2 6997   2.921  12.351   2.956
35075SOL     OW 6998   4.060   2.752  13.057
35075SOL    HW1 6999   4.146   2.789  13.078
35075SOL    HW2 7000   4.044   2.688  13.126
35076SOL     OW 7001  13.029   6.453  12.966
35076SOL    HW1 7002  12.972   6.376  12.971
35076SOL    HW2 7003  12.972   6.525  12.940
35077SOL     OW 7004   5.305   3.228  12.559
35077SOL    HW1 7005   5.231   3.285  12.538
35077SOL    HW2 7006   5.309   3.167  12.486
35078SOL     OW 7007   4.640   4.044   9.072
35078SOL    HW1 7008   4.591   4.115   9.030
35078SOL    HW2 7009   4.630   4.060   9.166
35079SOL     OW 7010  10.729   9.440   9.483
35079SOL    HW1 7011  10.696   9.472   9.399
35079SOL    HW2 7012  10.686   9.355   9.495
35080SOL     OW 7013   7.932   6.746  11.998
35080SOL    HW1 7014   7.897   6.804  11.930
35080SOL    HW2 7015   7.973   6.674  11.949
35081SOL     OW 7016   3.442   6.086   5.023
35081SOL    HW1 7017   3.378   6.083   5.093
35081SOL    HW2 7018   3.447   5.996   4.991
35082SOL     OW 7019  10.474   8.120   5.703
35082SOL    HW1 7020  10.439   8.209   5.690
35082SOL    HW2 7021  10.431   8.089   5.783
35083SOL     OW 7022   6.193  12.076  13.338
35083SOL    HW1 7023   6.153  11.989  13.335
35083SOL    HW2 7024   6.241  12.078  13.420
35084SOL     OW 7025  14.614   4.793  13.239
35084SOL    HW1 7026  14.625   4.747  13.321
35084SOL    HW2 7027  14.643   4.883  13.258
35085SOL     OW 7028  10.027  13.052   6.257
35085SOL    HW1 7029   9.938  13.080   6.282
35085SOL    HW2 7030  10.059  13.005   6.334
35086SOL     OW 7031   1.882   6.658  14.428
35086SOL    HW1 7032   1.810   6.678  14.368
35086SOL    HW2 7033   1.961   6.672  14.377
35087SOL     OW 7034   2.455   9.929   0.948
35087SOL    HW1 7035   2.464   9.838   0.921
35087SOL    HW2 7036   2.372   9.931   0.996
35088SOL     OW 7037  10.804   4.427   4.033
35088SOL    HW1 7038  10.875   4.463   3.981
35088SOL    HW2 7039  10.846   4.397   4.114
35089SOL     OW 7040   3.220   0.899  13.902
35089SOL    HW1 7041   3.223   0.956  13.825
35089SOL    HW2 7042   3.200   0.813  13.867
35090SOL     OW 7043   5.792   8.475  13.971
35090SOL    HW1 7044   5.841   8.486  13.889
35090SOL    HW2 7045   5.734   8.552  13.975
35091SOL     OW 7046   5.191  14.690   0.448
35091SOL    HW1 7047   5.152  14.603   0.441
35091SOL    HW2 7048   5.285  14.676   0.434
35092SOL     OW 7049   8.800   7.355   7.893
35092SOL    HW1 7050   8.886   7.368   7.852
35092SOL    HW2 7051   8.814   7.374   7.985
35093SOL     OW 7052  11.695   1.104  12.775
35093SOL    HW1 7053  11.607   1.122  12.743
35093SOL    HW2 7054  11.684   1.089  12.869
35094SOL     OW 7055  12.458   9.184   6.539
35094SOL    HW1 7056  12.503   9.107   6.504
35094SOL    HW2 7057  12.419   9.227   6.463
35095SOL     OW 7058   9.559   1.579  13.692
35095SOL    HW1 7059   9.619   1.505  13.686
35095SOL    HW2 7060   9.589   1.640  13.624
35096SOL     OW 7061   7.672   4.588   4.496
35096SOL    HW1 7062   7.726   4.522   4.539
35096SOL    HW2 7063   7.607   4.538   4.446
35097SOL     OW 7064   4.151  10.249   7.134
35097SOL    HW1 7065   4.195  10.187   7.192
35097SOL    HW2 7066   4.104  10.194   7.071
35098SOL     OW 7067   9.867   9.200   8.912
35098SOL    HW1 7068   9.885   9.279   8.963
35098SOL    HW2 7069   9.875   9.228   8.821
35099SOL     OW 7070   5.368   4.370  14.316
35099SOL    HW1 7071   5.423   4.447  14.334
35099SOL    HW2 7072   5.304   4.369  14.386
35100SOL     OW 7073  13.276  12.941  13.432
35100SOL    HW1 7074  13.279  12.901  13.518
35100SOL    HW2 7075  13.359  12.988  13.424
35101SOL     OW 7076   1.155  14.819   7.065
35101SOL    HW1 7077   1.178   0.016   7.115
35101SOL    HW2 7078   1.229  14.805   7.007
35102SOL     OW 7079   1.127   7.157  13.662
35102SOL    HW1 7080   1.139   7.095  13.590
35102SOL    HW2 7081   1.058   7.118  13.716
35103SOL     OW 7082   6.944   7.900   0.841
35103SOL    HW1 7083   6.956   7.921   0.748
35103SOL    HW2 7084   6.860   7.939   0.864
35104SOL     OW 7085  10.254  14.733  14.778
35104SOL    HW1 7086  10.262  14.827  14.760
35104SOL    HW2 7087  10.344  14.703  14.789
35105SOL     OW 7088   2.337   5.909   4.527
35105SOL    HW1 7089   2.247   5.921   4.499
35105SOL    HW2 7090   2.388   5.911   4.446
35106SOL     OW 7091   0.655   7.513   2.222
35106SOL    HW1 7092   0.652   7.608   2.216
35106SOL    HW2 7093   0.563   7.486   2.226
35107SOL     OW 7094  13.494  11.598   5.446
35107SOL    HW1 7095  13.444  11.521   5.474
35107SOL    HW2 7096  13.459  11.619   5.359
35108SOL     OW 7097   2.358   7.916   4.979
35108SOL    HW1 7098   2.371   7.823   4.996
35108SOL    HW2 7099   2.264   7.926   4.967
35109SOL     OW 7100   0.343   1.036  13.945
35109SOL    HW1 7101   0.335   1.130  13.931
35109SOL    HW2 7102   0.259   1.010  13.984
35110SOL     OW 7103   3.830  11.294   2.073
35110SOL    HW1 7104   3.891  11.258   2.138
35110SOL    HW2 7105   3.885  11.349   2.016
35111SOL     OW 7106   6.575  12.364   8.497
35111SOL    HW1 7107   6.669  12.359   8.480
35111SOL    HW2 7108   6.569  12.398   8.586
35112SOL     OW 7109   7.744  13.627   3.696
35112SOL    HW1 7110   7.771  13.676   3.619
35112SOL    HW2 7111   7.648  13.625   3.690
35113SOL     OW 7112   9.947   8.537   6.917
35113SOL    HW1 7113   9.921   8.622   6.882
35113SOL    HW2 7114  10.015   8.558   6.981
35114SOL     OW 7115  10.725   8.900   3.065
35114SOL    HW1 7116  10.703   8.854   3.146
35114SOL    HW2 7117  10.752   8.988   3.093
35115SOL     OW 7118   6.242   6.146   7.367
35115SOL    HW1 7119   6.260   6.113   7.455
35115SOL    HW2 7120   6.147   6.143   7.359
35116SOL     OW 7121   1.539   7.130   7.812
35116SOL    HW1 7122   1.448   7.116   7.842
35116SOL    HW2 7123   1.592   7.078   7.873
35117SOL     OW 7124   7.670   8.757  14.717
35117SOL    HW1 7125   7.584   8.789  14.747
35117SOL    HW2 7126   7.675   8.668  14.753
35118SOL     OW 7127  10.497   4.609  12.049
35118SOL    HW1 7128  10.422   4.642  12.097
35118SOL    HW2 7129  10.530   4.684  11.999
35119SOL     OW 7130   1.124  11.150   4.181
35119SOL    HW1 7131   1.214  11.165   4.208
35119SOL    HW2 7132   1.086  11.237   4.172
35120SOL     OW 7133   6.284  11.578  13.768
35120SOL    HW1 7134   6.264  11.614  13.854
35120SOL    HW2 7135   6.342  11.504  13.786
35121SOL     OW 7136  13.092   8.305   1.730
35121SOL    HW1 7137  13.008   8.351   1.735
35121SOL    HW2 7138  13.156   8.369   1.760
35122SOL     OW 7139   8.441   3.731  12.549
35122SOL    HW1 7140   8.376   3.675  12.590
35122SOL    HW2 7141   8.440   3.706  12.457
35123SOL     OW 7142   7.862   0.263   8.559
35123SOL    HW1 7143   7.930   0.327   8.580
35123SOL    HW2 7144   7.799   0.310   8.505
35124SOL     OW 7145   1.488   5.548   0.279
35124SOL    HW1 7146   1.519   5.458   0.289
35124SOL    HW2 7147   1.480   5.580   0.369
35125SOL     OW 7148   6.416   2.281  10.976
35125SOL    HW1 7149   6.411   2.352  10.913
35125SOL    HW2 7150   6.387   2.320  11.058
35126SOL     OW 7151  11.181   6.573   3.545
35126SOL    HW1 7152  11.093   6.589   3.509
35126SOL    HW2 7153  11.182   6.622   3.627
35127SOL     OW 7154   5.720   2.928  12.428
35127SOL    HW1 7155   5.772   2.852  12.402
35127SOL    HW2 7156   5.675   2.955  12.347
35128SOL     OW 7157  13.468  11.867   4.541
35128SOL    HW1 7158  13.528  11.938   4.519
35128SOL    HW2 7159  13.519  11.809   4.598
35129SOL     OW 7160  14.332  10.130   8.891
35129SOL    HW1 7161  14.363  10.216   8.920
35129SOL    HW2 7162  14.380  10.114   8.809
35130SOL     OW 7163   6.134   6.622  10.457
35130SOL    HW1 7164   6.069   6.579  10.514
35130SOL    HW2 7165   6.112   6.715  10.461
35131SOL     OW 7166  13.244   3.170  12.266
35131SOL    HW1 7167  13.250   3.263  12.291
35131SOL    HW2 7168  13.270   3.122  12.344
35132SOL     OW 7169   9.112  13.289   6.377
35132SOL    HW1 7170   9.031  13.332   6.354
35132SOL    HW2 7171   9.181  13.344   6.340
35133SOL     OW 7172  10.690  10.117  14.331
35133SOL    HW1 7173  10.716  10.085  14.245
35133SOL    HW2 7174  10.772  10.146  14.372
35134SOL     OW 7175   7.328   6.119   9.425
35134SOL    HW1 7176   7.277   6.197   9.448
35134SOL    HW2 7177   7.410   6.129   9.472
35135SOL     OW 7178   5.896  12.659   6.590
35135SOL    HW1 7179   5.934  12.688   6.507
35135SOL    HW2 7180   5.804  12.640   6.569
35136SOL     OW 7181   5.984   5.863   1.926
35136SOL    HW1 7182   5.916   5.908   1.878
35136SOL    HW2 7183   5.967   5.884   2.018
35137SOL     OW 7184  10.238   8.581  13.682
35137SOL    HW1 7185  10.321   8.536  13.698
35137SOL    HW2 7186  10.172   8.527  13.726
35138SOL     OW 7187  11.893  11.942  11.292
35138SOL    HW1 7188  11.888  12.028  11.250
35138SOL    HW2 7189  11.842  11.951  11.372
35139SOL     OW 7190   1.166   3.425   6.550
35139SOL    HW1 7191   1.183   3.454   6.639
35139SOL    HW2 7192   1.209   3.340   6.544
35140SOL     OW 7193   3.706   0.564   1.692
35140SOL    HW1 7194   3.696   0.469   1.681
35140SOL    HW2 7195   3.754   0.574   1.774
35141SOL     OW 7196   2.928   3.887   4.421
35141SOL    HW1 7197   2.957   3.919   4.336
35141SOL    HW2 7198   2.989   3.816   4.442
35142SOL     OW 7199  10.228  10.893   3.344
35142SOL    HW1 7200  10.158  10.841   3.304
35142SOL    HW2 7201  10.241  10.851   3.429
35143SOL     OW 7202   3.306   2.528  14.638
35143SOL    HW1 7203   3.355   2.522  14.556
35143SOL    HW2 7204   3.283   2.621  14.645
35144SOL     OW 7205  14.171   6.641   7.878
35144SOL    HW1 7206  14.138   6.635   7.968
35144SOL    HW2 7207  14.258   6.603   7.882
35145SOL     OW 7208   9.654   0.017   1.782
35145SOL    HW1 7209   9.652   0.101   1.735
35145SOL    HW2 7210   9.563  14.868   1.780
35146SOL     OW 7211   4.158  12.302   3.970
35146SOL    HW1 7212   4.241  12.260   3.992
35146SOL    HW2 7213   4.158  12.383   4.020
35147SOL     OW 7214   3.868   5.353   0.392
35147SOL    HW1 7215   3.845   5.444   0.406
35147SOL    HW2 7216   3.948   5.356   0.339
35148SOL     OW 7217  12.470   0.914   9.167
35148SOL    HW1 7218  12.538   0.927   9.100
35148SOL    HW2 7219  12.401   0.976   9.143
35149SOL     OW 7220   9.447  13.150   3.286
35149SOL    HW1 7221   9.360  13.169   3.252
35149SOL    HW2 7222   9.507  13.198   3.229
35150SOL     OW 7223   4.198   5.775   4.716
35150SOL    HW1 7224   4.120   5.769   4.772
35150SOL    HW2 7225   4.183   5.710   4.647
35151SOL     OW 7226  11.606  12.219  13.825
35151SOL    HW1 7227  11.588  12.201  13.732
35151SOL    HW2 7228  11.598  12.134  13.868
35152SOL     OW 7229   2.896   8.955   7.481
35152SOL    HW1 7230   2.930   8.931   7.395
35152SOL    HW2 7231   2.867   8.872   7.519
35153SOL     OW 7232   0.688   1.738   4.314
35153SOL    HW1 7233   0.704   1.799   4.242
35153SOL    HW2 7234   0.766   1.743   4.369
35154SOL     OW 7235   2.418   6.724   4.011
35154SOL    HW1 7236   2.389   6.650   3.957
35154SOL    HW2 7237   2.420   6.798   3.950
35155SOL     OW 7238   9.762   7.936  14.030
35155SOL    HW1 7239   9.773   7.880  14.107
35155SOL    HW2 7240   9.811   7.891  13.961
35156SOL     OW 7241  11.141  11.131   9.491
35156SOL    HW1 7242  11.118  11.039   9.480
35156SOL    HW2 7243  11.057  11.178   9.487
35157SOL     OW 7244  10.891   5.031   8.370
35157SOL    HW1 7245  10.911   4.951   8.419
35157SOL    HW2 7246  10.947   5.098   8.408
35158SOL     OW 7247   6.278   2.081   2.321
35158SOL    HW1 7248   6.230   2.039   2.392
35158SOL    HW2 7249   6.209   2.111   2.261
35159SOL     OW 7250  10.889   2.734  12.875
35159SOL    HW1 7251  10.825   2.716  12.807
35159SOL    HW2 7252  10.838   2.763  12.950
35160SOL     OW 7253  12.160   8.801   9.279
35160SOL    HW1 7254  12.076   8.847   9.279
35160SOL    HW2 7255  12.159   8.748   9.359
35161SOL     OW 7256  14.697  12.969   8.569
35161SOL    HW1 7257  14.770  12.907   8.564
35161SOL    HW2 7258  14.669  12.981   8.478
35162SOL     OW 7259  13.620  13.972   5.217
35162SOL    HW1 7260  13.686  13.956   5.150
35162SOL    HW2 7261  13.554  13.905   5.202
35163SOL     OW 7262  11.001  12.857   9.758
35163SOL    HW1 7263  10.997  12.780   9.703
35163SOL    HW2 7264  10.911  12.870   9.789
35164SOL     OW 7265   3.016  10.149  12.445
35164SOL    HW1 7266   3.019  10.232  12.493
35164SOL    HW2 7267   2.925  10.122  12.450
35165SOL     OW 7268   4.769   4.020  12.474
35165SOL    HW1 7269   4.686   3.988  12.509
35165SOL    HW2 7270   4.768   3.993  12.382
35166SOL     OW 7271  14.500   4.173   7.146
35166SOL    HW1 7272  14.559   4.212   7.081
35166SOL    HW2 7273  14.556   4.114   7.196
35167SOL     OW 7274  12.244  13.564   8.377
35167SOL    HW1 7275  12.289  13.481   8.362
35167SOL    HW2 7276  12.204  13.585   8.293
35168SOL     OW 7277   1.254   2.099   5.858
35168SOL    HW1 7278   1.266   2.019   5.807
35168SOL    HW2 7279   1.159   2.110   5.862
35169SOL     OW 7280   8.905   0.962  14.838
35169SOL    HW1 7281   8.934   0.873  14.857
35169SOL    HW2 7282   8.818   0.952  14.800
35170SOL     OW 7283  13.645   6.530  12.005
35170SOL    HW1 7284  13.600   6.479  12.073
35170SOL    HW2 7285  13.616   6.620  12.019
35171SOL     OW 7286   6.795   8.818   9.761
35171SOL    HW1 7287   6.880   8.817   9.805
35171SOL    HW2 7288   6.732   8.833   9.831
35172SOL     OW 7289  14.047  13.944   0.019
35172SOL    HW1 7290  14.136  13.920  14.877
35172SOL    HW2 7291  14.048  13.946   0.115
35173SOL     OW 7292   8.716   0.651   9.873
35173SOL    HW1 7293   8.764   0.570   9.855
35173SOL    HW2 7294   8.747   0.680   9.958
35174SOL     OW 7295  13.592  10.612   6.540
35174SOL    HW1 7296  13.611  10.518   6.535
35174SOL    HW2 7297  13.535  10.620   6.616
35175SOL     OW 7298  11.565   3.768   3.319
35175SOL    HW1 7299  11.643   3.717   3.342
35175SOL    HW2 7300  11.562   3.767   3.224
35176SOL     OW 7301   7.135  13.273   2.601
35176SOL    HW1 7302   7.083  13.228   2.667
35176SOL    HW2 7303   7.198  13.207   2.570
35177SOL     OW 7304  10.860   6.695  13.990
35177SOL    HW1 7305  10.931   6.752  13.960
35177SOL    HW2 7306  10.863   6.620  13.930
35178SOL     OW 7307  12.861   0.378   2.859
35178SOL    HW1 7308  12.772   0.344   2.865
35178SOL    HW2 7309  12.913   0.305   2.825
35179SOL     OW 7310   6.080   3.546   6.254
35179SOL    HW1 7311   6.171   3.575   6.255
35179SOL    HW2 7312   6.053   3.550   6.346
35180SOL     OW 7313   6.945  13.682  10.092
35180SOL    HW1 7314   6.943  13.595  10.054
35180SOL    HW2 7315   7.028  13.686  10.139
35181SOL     OW 7316  10.724  12.671  12.763
35181SOL    HW1 7317  10.775  12.629  12.693
35181SOL    HW2 7318  10.714  12.762  12.735
35182SOL     OW 7319   7.902   9.396   6.396
35182SOL    HW1 7320   7.969   9.455   6.431
35182SOL    HW2 7321   7.852   9.368   6.472
35183SOL     OW 7322   6.987  12.748   2.337
35183SOL    HW1 7323   6.930  12.803   2.282
35183SOL    HW2 7324   6.982  12.788   2.424
35184SOL     OW 7325   5.178   0.017  13.642
35184SOL    HW1 7326   5.231   0.097  13.649
35184SOL    HW2 7327   5.109   0.039  13.579
35185SOL     OW 7328   4.508   2.916   7.663
35185SOL    HW1 7329   4.577   2.908   7.729
35185SOL    HW2 7330   4.462   2.832   7.665
35186SOL     OW 7331   2.711  10.732  13.620
35186SOL    HW1 7332   2.745  10.813  13.582
35186SOL    HW2 7333   2.694  10.676  13.544
35187SOL     OW 7334   3.705  10.698  14.407
35187SOL    HW1 7335   3.628  10.705  14.464
35187SOL    HW2 7336   3.691  10.764  14.339
35188SOL     OW 7337   0.484   3.447   2.450
35188SOL    HW1 7338   0.467   3.399   2.531
35188SOL    HW2 7339   0.439   3.530   2.462
35189SOL     OW 7340   2.916   2.582   9.328
35189SOL    HW1 7341   2.903   2.668   9.286
35189SOL    HW2 7342   2.996   2.549   9.289
35190SOL     OW 7343   6.800   9.911   1.101
35190SOL    HW1 7344   6.764   9.822   1.097
35190SOL    HW2 7345   6.730   9.963   1.140
35191SOL     OW 7346   1.105  13.942   4.140
35191SOL    HW1 7347   1.130  13.992   4.062
35191SOL    HW2 7348   1.037  13.881   4.109
35192SOL     OW 7349   0.018  12.664   4.487
35192SOL    HW1 7350   0.039  12.753   4.458
35192SOL    HW2 7351   0.075  12.608   4.434
35193SOL     OW 7352   7.602   2.023   5.480
35193SOL    HW1 7353   7.694   2.016   5.456
35193SOL    HW2 7354   7.581   2.115   5.466
35194SOL     OW 7355  10.423   7.999  12.364
35194SOL    HW1 7356  10.392   8.089  12.373
35194SOL    HW2 7357  10.418   7.980  12.270
35195SOL     OW 7358   6.985   8.215  14.567
35195SOL    HW1 7359   7.039   8.243  14.493
35195SOL    HW2 7360   6.970   8.296  14.617
35196SOL     OW 7361   2.895   4.550   6.983
35196SOL    HW1 7362   2.944   4.559   7.064
35196SOL    HW2 7363   2.861   4.461   6.984
35197SOL     OW 7364   2.489   3.049   5.161
35197SOL    HW1 7365   2.452   3.005   5.085
35197SOL    HW2 7366   2.568   3.092   5.128
35198SOL     OW 7367   4.562   3.403   7.551
35198SOL    HW1 7368   4.628   3.369   7.491
35198SOL    HW2 7369   4.530   3.325   7.597
35199SOL     OW 7370   6.000   7.365   5.224
35199SOL    HW1 7371   5.991   7.389   5.316
35199SOL    HW2 7372   6.022   7.272   5.226
35200SOL     OW 7373   3.084   3.416   1.317
35200SOL    HW1 7374   3.135   3.481   1.268
35200SOL    HW2 7375   3.056   3.352   1.251
35201SOL     OW 7376   0.655  12.594  11.982
35201SOL    HW1 7377   0.570  12.559  12.011
35201SOL    HW2 7378   0.713  12.518  11.979
35202SOL     OW 7379  10.761   3.574   2.667
35202SOL    HW1 7380  10.777   3.487   2.629
35202SOL    HW2 7381  10.711   3.556   2.746
35203SOL     OW 7382  10.519   3.693   8.072
35203SOL    HW1 7383  10.608   3.724   8.091
35203SOL    HW2 7384  10.478   3.684   8.158
35204SOL     OW 7385   6.025  11.970   1.673
35204SOL    HW1 7386   6.075  12.001   1.597
35204SOL    HW2 7387   6.083  11.983   1.747
35205SOL     OW 7388  10.141   2.297   6.742
35205SOL    HW1 7389  10.113   2.318   6.831
35205SOL    HW2 7390  10.098   2.363   6.687
35206SOL     OW 7391  11.228   1.341  12.540
35206SOL    HW1 7392  11.239   1.427  12.580
35206SOL    HW2 7393  11.190   1.359  12.454
35207SOL     OW 7394   4.792  13.702  10.891
35207SOL    HW1 7395   4.778  13.700  10.986
35207SOL    HW2 7396   4.734  13.634  10.857
35208SOL     OW 7397  11.475  14.147   3.201
35208SOL    HW1 7398  11.565  14.121   3.222
35208SOL    HW2 7399  11.476  14.242   3.205
35209SOL     OW 7400  13.149  11.461   5.931
35209SOL    HW1 7401  13.185  11.401   5.997
35209SOL    HW2 7402  13.174  11.548   5.962
35210SOL     OW 7403   1.085   0.203  12.977
35210SOL    HW1 7404   1.065   0.136  13.043
35210SOL    HW2 7405   1.085   0.285  13.026
35211SOL     OW 7406   7.162   0.828  11.478
35211SOL    HW1 7407   7.139   0.914  11.514
35211SOL    HW2 7408   7.080   0.796  11.440
35212SOL     OW 7409   5.767  12.388   0.635
35212SOL    HW1 7410   5.849  12.418   0.597
35212SOL    HW2 7411   5.767  12.423   0.724
35213SOL     OW 7412  12.447   3.533   0.728
35213SOL    HW1 7413  12.520   3.485   0.767
35213SOL    HW2 7414  12.488   3.596   0.670
35214SOL     OW 7415   4.847   3.529  13.442
35214SOL    HW1 7416   4.785   3.459  13.460
35214SOL    HW2 7417   4.800   3.589  13.385
35215SOL     OW 7418  13.635   1.867   5.427
35215SOL    HW1 7419  13.698   1.896   5.361
35215SOL    HW2 7420  13.671   1.899   5.510
35216SOL     OW 7421   7.211  12.299  10.356
35216SOL    HW1 7422   7.260  12.302  10.439
35216SOL    HW2 7423   7.188  12.207  10.345
35217SOL     OW 7424   2.753   6.652  12.218
35217SOL    HW1 7425   2.743   6.562  12.187
35217SOL    HW2 7426   2.666   6.675  12.251
35218SOL     OW 7427   4.959   7.109   1.556
35218SOL    HW1 7428   4.959   7.203   1.571
35218SOL    HW2 7429   4.876   7.078   1.594
35219SOL     OW 7430   6.168   3.269   4.243
35219SOL    HW1 7431   6.215   3.214   4.306
35219SOL    HW2 7432   6.089   3.297   4.290
35220SOL     OW 7433   1.826  13.737   5.108
35220SOL    HW1 7434   1.910  13.775   5.135
35220SOL    HW2 7435   1.845  13.695   5.024
35221SOL     OW 7436   5.776  11.728  12.947
35221SOL    HW1 7437   5.691  11.771  12.953
35221SOL    HW2 7438   5.768  11.669  12.872
35222SOL     OW 7439   5.819   6.826  13.925
35222SOL    HW1 7440   5.895   6.828  13.984
35222SOL    HW2 7441   5.841   6.759  13.860
35223SOL     OW 7442   5.659   8.614   0.521
35223SOL    HW1 7443   5.661   8.614   0.617
35223SOL    HW2 7444   5.749   8.600   0.494
35224SOL     OW 7445   4.203   8.988   8.298
35224SOL    HW1 7446   4.256   8.965   8.374
35224SOL    HW2 7447   4.172   9.077   8.316
35225SOL     OW 7448   4.057   4.600   0.700
35225SOL    HW1 7449   4.030   4.692   0.700
35225SOL    HW2 7450   3.986   4.554   0.656
35226SOL     OW 7451   5.582   0.509   7.538
35226SOL    HW1 7452   5.524   0.527   7.612
35226SOL    HW2 7453   5.669   0.534   7.568
35227SOL     OW 7454   0.657  10.659   7.728
35227SOL    HW1 7455   0.636  10.723   7.661
35227SOL    HW2 7456   0.670  10.711   7.808
35228SOL     OW 7457  11.163   0.699   0.851
35228SOL    HW1 7458  11.110   0.622   0.833
35228SOL    HW2 7459  11.246   0.683   0.804
35229SOL     OW 7460   2.146  11.518   4.853
35229SOL    HW1 7461   2.199  11.489   4.779
35229SOL    HW2 7462   2.081  11.577   4.814
35230SOL     OW 7463   8.289  11.725   5.967
35230SOL    HW1 7464   8.311  11.733   5.874
35230SOL    HW2 7465   8.238  11.803   5.987
35231SOL     OW 7466  12.066  14.791   4.801
35231SOL    HW1 7467  12.047  14.824   4.889
35231SOL    HW2 7468  12.152  14.828   4.780
35232SOL     OW 7469  12.627   3.838   3.447
35232SOL    HW1 7470  12.612   3.927   3.479
35232SOL    HW2 7471  12.637   3.848   3.352
35233SOL     OW 7472   9.308   2.750  12.007
35233SOL    HW1 7473   9.365   2.753  12.084
35233SOL    HW2 7474   9.230   2.799  12.033
35234SOL     OW 7475  11.066   4.183   3.528
35234SOL    HW1 7476  11.072   4.088   3.529
35234SOL    HW2 7477  10.993   4.203   3.587
35235SOL     OW 7478   7.512   0.973   6.827
35235SOL    HW1 7479   7.530   0.896   6.880
35235SOL    HW2 7480   7.498   1.043   6.890
35236SOL     OW 7481   6.248   7.019   9.819
35236SOL    HW1 7482   6.310   6.959   9.778
35236SOL    HW2 7483   6.231   6.981   9.905
35237SOL     OW 7484   6.225   2.984   1.442
35237SOL    HW1 7485   6.287   2.985   1.368
35237SOL    HW2 7486   6.250   3.061   1.494
35238SOL     OW 7487   5.954   7.092   4.151
35238SOL    HW1 7488   6.049   7.084   4.160
35238SOL    HW2 7489   5.930   7.159   4.215
35239SOL     OW 7490  11.096  13.450   7.172
35239SOL    HW1 7491  11.052  13.417   7.250
35239SOL    HW2 7492  11.187  13.420   7.180
35240SOL     OW 7493   9.838   4.954   1.507
35240SOL    HW1 7494   9.751   4.987   1.528
35240SOL    HW2 7495   9.884   5.030   1.471
35241SOL     OW 7496   7.397   4.200   1.695
35241SOL    HW1 7497   7.487   4.201   1.728
35241SOL    HW2 7498   7.368   4.109   1.706
35242SOL     OW 7499  13.559  11.556  14.025
35242SOL    HW1 7500  13.575  11.470  14.065
35242SOL    HW2 7501  13.597  11.619  14.086
35243SOL     OW 7502   1.543   8.812   5.971
35243SOL    HW1 7503   1.585   8.826   5.886
35243SOL    HW2 7504   1.582   8.731   6.004
35244SOL     OW 7505   4.748   4.485   2.365
35244SOL    HW1 7506   4.799   4.425   2.420
35244SOL    HW2 7507   4.796   4.568   2.371
35245SOL     OW 7508   4.254  13.134   2.855
35245SOL    HW1 7509   4.161  13.120   2.877
35245SOL    HW2 7510   4.301  13.098   2.930
35246SOL     OW 7511  14.554   7.913   9.100
35246SOL    HW1 7512  14.486   7.846   9.099
35246SOL    HW2 7513  14.636   7.864   9.108
35247SOL     OW 7514   9.457   9.773   6.310
35247SOL    HW1 7515   9.414   9.696   6.348
35247SOL    HW2 7516   9.427   9.774   6.219
35248SOL     OW 7517   9.684   6.275   5.052
35248SOL    HW1 7518   9.612   6.233   5.006
35248SOL    HW2 7519   9.763   6.238   5.012
35249SOL     OW 7520   5.241  10.000   6.895
35249SOL    HW1 7521   5.258   9.922   6.947
35249SOL    HW2 7522   5.201  10.062   6.957
35250SOL     OW 7523  13.588   3.077   0.041
35250SOL    HW1 7524  13.608   3.166   0.012
35250SOL    HW2 7525  13.549   3.035  14.845
35251SOL     OW 7526  11.933   0.565   7.746
35251SOL    HW1 7527  11.888   0.643   7.778
35251SOL    HW2 7528  12.013   0.560   7.798
35252SOL     OW 7529   5.688   2.784   4.628
35252SOL    HW1 7530   5.629   2.784   4.553
35252SOL    HW2 7531   5.724   2.873   4.631
35253SOL     OW 7532   4.281   5.378  13.721
35253SOL    HW1 7533   4.314   5.446  13.779
35253SOL    HW2 7534   4.315   5.400  13.635
35254SOL     OW 7535   1.234   5.315   8.505
35254SOL    HW1 7536   1.310   5.257   8.498
35254SOL    HW2 7537   1.184   5.299   8.426
35255SOL     OW 7538   3.188   9.675  14.566
35255SOL    HW1 7539   3.219   9.678  14.476
35255SOL    HW2 7540   3.171   9.767  14.589
35256SOL     OW 7541  13.140  10.686   6.453
35256SOL    HW1 7542  13.224  10.708   6.494
35256SOL    HW2 7543  13.163  10.656   6.365
35257SOL     OW 7544   5.029  13.622   6.127
35257SOL    HW1 7545   5.090  13.551   6.107
35257SOL    HW2 7546   5.070  13.668   6.200
35258SOL     OW 7547   9.267  10.584  12.852
35258SOL    HW1 7548   9.204  10.630  12.796
35258SOL    HW2 7549   9.291  10.507  12.801
35259SOL     OW 7550   2.399   1.252  10.194
35259SOL    HW1 7551   2.444   1.168  10.202
35259SOL    HW2 7552   2.388   1.282  10.284
35260SOL     OW 7553  12.175  12.029  13.034
35260SOL    HW1 7554  12.205  12.095  13.096
35260SOL    HW2 7555  12.242  12.027  12.965
35261SOL     OW 7556   8.937   7.732   9.700
35261SOL    HW1 7557   8.852   7.697   9.728
35261SOL    HW2 7558   8.975   7.769   9.780
35262SOL     OW 7559   8.725  12.097   0.941
35262SOL    HW1 7560   8.779  12.020   0.923
35262SOL    HW2 7561   8.663  12.067   1.008
35263SOL     OW 7562  10.518   0.993  13.608
35263SOL    HW1 7563  10.428   1.023  13.595
35263SOL    HW2 7564  10.562   1.066  13.652
35264SOL     OW 7565   5.060  12.694  10.359
35264SOL    HW1 7566   5.012  12.771  10.390
35264SOL    HW2 7567   5.085  12.716  10.269
35265SOL     OW 7568   2.937   9.595  11.570
35265SOL    HW1 7569   2.959   9.504  11.592
35265SOL    HW2 7570   3.016   9.629  11.528
35266SOL     OW 7571   5.871  14.248   4.524
35266SOL    HW1 7572   5.894  14.162   4.489
35266SOL    HW2 7573   5.950  14.300   4.514
35267SOL     OW 7574   7.069   8.904   9.259
35267SOL    HW1 7575   7.151   8.935   9.299
35267SOL    HW2 7576   7.033   8.842   9.322
35268SOL     OW 7577   2.109  13.528   3.868
35268SOL    HW1 7578   2.087  13.468   3.796
35268SOL    HW2 7579   2.173  13.588   3.830
35269SOL     OW 7580  10.196  13.167  10.510
35269SOL    HW1 7581  10.265  13.115  10.550
35269SOL    HW2 7582  10.165  13.114  10.437
35270SOL     OW 7583   2.218   5.326   2.514
35270SOL    HW1 7584   2.172   5.296   2.435
35270SOL    HW2 7585   2.180   5.275   2.585
35271SOL     OW 7586  11.525   5.742  12.811
35271SOL    HW1 7587  11.500   5.678  12.745
35271SOL    HW2 7588  11.485   5.711  12.892
35272SOL     OW 7589   0.564   5.274   5.202
35272SOL    HW1 7590   0.528   5.328   5.273
35272SOL    HW2 7591   0.567   5.332   5.127
35273SOL     OW 7592   1.747   3.037  14.192
35273SOL    HW1 7593   1.742   3.010  14.284
35273SOL    HW2 7594   1.788   3.123  14.195
35274SOL     OW 7595   7.531   8.817  13.968
35274SOL    HW1 7596   7.616   8.810  13.926
35274SOL    HW2 7597   7.468   8.797  13.898
35275SOL     OW 7598   4.620   3.702  11.877
35275SOL    HW1 7599   4.538   3.747  11.899
35275SOL    HW2 7600   4.596   3.645  11.804
35276SOL     OW 7601  13.628   0.154   3.615
35276SOL    HW1 7602  13.572   0.208   3.559
35276SOL    HW2 7603  13.708   0.206   3.626
35277SOL     OW 7604   9.167   3.593  12.475
35277SOL    HW1 7605   9.081   3.606  12.515
35277SOL    HW2 7606   9.148   3.583  12.381
35278SOL     OW 7607   1.061   8.505   4.174
35278SOL    HW1 7608   1.013   8.562   4.113
35278SOL    HW2 7609   0.994   8.447   4.210
35279SOL     OW 7610   9.190   2.605  14.558
35279SOL    HW1 7611   9.211   2.644  14.474
35279SOL    HW2 7612   9.120   2.660  14.594
35280SOL     OW 7613   7.229   1.659   8.007
35280SOL    HW1 7614   7.256   1.657   8.099
35280SOL    HW2 7615   7.273   1.584   7.967
35281SOL     OW 7616   3.570  11.059   5.375
35281SOL    HW1 7617   3.633  10.990   5.353
35281SOL    HW2 7618   3.488  11.030   5.336
35282SOL     OW 7619  13.813   0.907   9.160
35282SOL    HW1 7620  13.861   0.912   9.243
35282SOL    HW2 7621  13.792   0.815   9.150
35283SOL     OW 7622   6.769   8.712   8.358
35283SOL    HW1 7623   6.832   8.781   8.336
35283SOL    HW2 7624   6.711   8.708   8.282
35284SOL     OW 7625  12.886   1.802   4.521
35284SOL    HW1 7626  12.959   1.809   4.582
35284SOL    HW2 7627  12.922   1.832   4.437
35285SOL     OW 7628   0.541   9.574   9.612
35285SOL    HW1 7629   0.510   9.663   9.595
35285SOL    HW2 7630   0.608   9.584   9.679
35286SOL     OW 7631   7.072  14.620  12.607
35286SOL    HW1 7632   7.074  14.667  12.691
35286SOL    HW2 7633   7.020  14.542  12.625
35287SOL     OW 7634   3.560   5.555   6.532
35287SOL    HW1 7635   3.576   5.525   6.442
35287SOL    HW2 7636   3.466   5.573   6.535
35288SOL     OW 7637  11.849   8.747   9.302
35288SOL    HW1 7638  11.840   8.838   9.275
35288SOL    HW2 7639  11.777   8.733   9.364
35289SOL     OW 7640   4.604   6.413   1.604
35289SOL    HW1 7641   4.692   6.419   1.639
35289SOL    HW2 7642   4.558   6.353   1.663
35290SOL     OW 7643   8.874   0.156   1.215
35290SOL    HW1 7644   8.902   0.108   1.137
35290SOL    HW2 7645   8.866   0.247   1.185
35291SOL     OW 7646   7.515  14.575  12.494
35291SOL    HW1 7647   7.543  14.607  12.408
35291SOL    HW2 7648   7.547  14.642  12.555
35292SOL     OW 7649   1.365  13.579  12.830
35292SOL    HW1 7650   1.323  13.499  12.860
35292SOL    HW2 7651   1.437  13.549  12.774
35293SOL     OW 7652   9.306  13.345  10.300
35293SOL    HW1 7653   9.262  13.430  10.295
35293SOL    HW2 7654   9.396  13.363  10.270
35294SOL     OW 7655   1.362  10.568  13.152
35294SOL    HW1 7656   1.335  10.497  13.209
35294SOL    HW2 7657   1.285  10.624  13.144
35295SOL     OW 7658   4.299  12.202  12.245
35295SOL    HW1 7659   4.364  12.225  12.312
35295SOL    HW2 7660   4.216  12.198  12.292
35296SOL     OW 7661   2.220   5.206   4.878
35296SOL    HW1 7662   2.157   5.192   4.807
35296SOL    HW2 7663   2.289   5.142   4.862
35297SOL     OW 7664   6.121   9.879   2.475
35297SOL    HW1 7665   6.174   9.903   2.399
35297SOL    HW2 7666   6.046   9.833   2.439
35298SOL     OW 7667  12.487   5.857   2.037
35298SOL    HW1 7668  12.479   5.878   2.130
35298SOL    HW2 7669  12.580   5.871   2.017
35299SOL     OW 7670   7.022  11.879   9.497
35299SOL    HW1 7671   7.075  11.834   9.562
35299SOL    HW2 7672   7.080  11.891   9.422
35300SOL     OW 7673   6.943   0.871   3.278
35300SOL    HW1 7674   6.895   0.788   3.277
35300SOL    HW2 7675   7.029   0.848   3.312
35301SOL     OW 7676   5.863   6.549  14.819
35301SOL    HW1 7677   5.782   6.562  14.771
35301SOL    HW2 7678   5.836   6.535   0.028
35302SOL     OW 7679   9.549  12.853   3.720
35302SOL    HW1 7680   9.505  12.850   3.635
35302SOL    HW2 7681   9.564  12.761   3.743
35303SOL     OW 7682  14.211  10.517  12.279
35303SOL    HW1 7683  14.200  10.514  12.374
35303SOL    HW2 7684  14.132  10.561  12.247
35304SOL     OW 7685   9.676   6.449   0.443
35304SOL    HW1 7686   9.718   6.499   0.373
35304SOL    HW2 7687   9.664   6.361   0.406
35305SOL     OW 7688   3.104   4.299   9.119
35305SOL    HW1 7689   3.032   4.278   9.060
35305SOL    HW2 7690   3.066   4.292   9.207
35306SOL     OW 7691  11.164   7.528   0.174
35306SOL    HW1 7692  11.068   7.530   0.169
35306SOL    HW2 7693  11.186   7.601   0.233
35307SOL     OW 7694   9.567   9.024  11.119
35307SOL    HW1 7695   9.472   9.021  11.112
35307SOL    HW2 7696   9.594   8.932  11.118
35308SOL     OW 7697   3.987  11.583   8.477
35308SOL    HW1 7698   3.972  11.652   8.411
35308SOL    HW2 7699   4.081  11.587   8.494
35309SOL     OW 7700   0.981  11.522   8.684
35309SOL    HW1 7701   1.029  11.527   8.767
35309SOL    HW2 7702   1.044  11.482   8.623
35310SOL     OW 7703   9.420   6.465   8.303
35310SOL    HW1 7704   9.399   6.477   8.211
35310SOL    HW2 7705   9.366   6.529   8.349
35311SOL     OW 7706  12.540   9.522  11.263
35311SOL    HW1 7707  12.592   9.460  11.211
35311SOL    HW2 7708  12.600   9.594  11.281
35312SOL     OW 7709   3.358   3.037   4.889
35312SOL    HW1 7710   3.374   2.951   4.848
35312SOL    HW2 7711   3.401   3.030   4.975
35313SOL     OW 7712  14.109   4.712  13.412
35313SOL    HW1 7713  14.187   4.717  13.356
35313SOL    HW2 7714  14.035   4.717  13.350
35314SOL     OW 7715   3.104   4.826   1.965
35314SOL    HW1 7716   3.136   4.788   2.047
35314SOL    HW2 7717   3.029   4.879   1.991
35315SOL     OW 7718   2.277   5.967  12.832
35315SOL    HW1 7719   2.319   5.921  12.759
35315SOL    HW2 7720   2.231   6.040  12.791
35316SOL     OW 7721   5.663   1.886  11.621
35316SOL    HW1 7722   5.725   1.925  11.684
35316SOL    HW2 7723   5.622   1.962  11.578
35317SOL     OW 7724  14.170   7.980   6.300
35317SOL    HW1 7725  14.117   7.999   6.223
35317SOL    HW2 7726  14.260   7.976   6.267
35318SOL     OW 7727   6.719   5.085   2.983
35318SOL    HW1 7728   6.807   5.049   2.973
35318SOL    HW2 7729   6.711   5.148   2.910
35319SOL     OW 7730  13.663   6.418   2.601
35319SOL    HW1 7731  13.668   6.367   2.520
35319SOL    HW2 7732  13.611   6.495   2.577
35320SOL     OW 7733   4.124   4.736  13.544
35320SOL    HW1 7734   4.107   4.771  13.632
35320SOL    HW2 7735   4.217   4.714  13.544
35321SOL     OW 7736  11.235   0.438   9.661
35321SOL    HW1 7737  11.159   0.444   9.719
35321SOL    HW2 7738  11.285   0.518   9.679
35322SOL     OW 7739  13.085  11.612   7.961
35322SOL    HW1 7740  13.148  11.666   8.008
35322SOL    HW2 7741  13.062  11.542   8.022
35323SOL     OW 7742   5.698   2.056   7.071
35323SOL    HW1 7743   5.747   2.134   7.045
35323SOL    HW2 7744   5.667   2.018   6.989
35324SOL     OW 7745   5.826   5.116  10.031
35324SOL    HW1 7746   5.846   5.152  10.118
35324SOL    HW2 7747   5.893   5.048  10.018
35325SOL     OW 7748   8.860  12.075   8.435
35325SOL    HW1 7749   8.860  12.045   8.344
35325SOL    HW2 7750   8.831  11.999   8.486
35326SOL     OW 7751   0.065   4.505   1.902
35326SOL    HW1 7752   0.119   4.427   1.889
35326SOL    HW2 7753   0.094   4.540   1.986
35327SOL     OW 7754   9.782  13.803   9.980
35327SOL    HW1 7755   9.763  13.714  10.010
35327SOL    HW2 7756   9.844  13.791   9.908
35328SOL     OW 7757  14.067  14.452   7.223
35328SOL    HW1 7758  14.100  14.468   7.134
35328SOL    HW2 7759  14.107  14.369   7.248
35329SOL     OW 7760  13.772  10.590   3.861
35329SOL    HW1 7761  13.826  10.550   3.929
35329SOL    HW2 7762  13.756  10.679   3.893
35330SOL     OW 7763   9.686   9.924   1.261
35330SOL    HW1 7764   9.681   9.973   1.343
35330SOL    HW2 7765   9.621   9.854   1.271
35331SOL     OW 7766  12.643   9.607  13.219
35331SOL    HW1 7767  12.733   9.627  13.245
35331SOL    HW2 7768  12.618   9.532  13.273
35332SOL     OW 7769  12.217   8.474   1.000
35332SOL    HW1 7770  12.245   8.396   0.952
35332SOL    HW2 7771  12.132   8.450   1.037
35333SOL     OW 7772  12.170   4.979  12.215
35333SOL    HW1 7773  12.193   5.068  12.245
35333SOL    HW2 7774  12.085   4.989  12.174
35334SOL     OW 7775   7.108   2.504  10.697
35334SOL    HW1 7776   7.148   2.544  10.619
35334SOL    HW2 7777   7.119   2.410  10.684
35335SOL     OW 7778  11.285   8.287  11.238
35335SOL    HW1 7779  11.289   8.237  11.320
35335SOL    HW2 7780  11.363   8.343  11.240
35336SOL     OW 7781  11.041   3.293   3.838
35336SOL    HW1 7782  10.976   3.321   3.902
35336SOL    HW2 7783  11.093   3.228   3.885
35337SOL     OW 7784   9.035   8.432  11.698
35337SOL    HW1 7785   8.973   8.446  11.626
35337SOL    HW2 7786   8.983   8.391  11.767
35338SOL     OW 7787   8.513  11.503   9.283
35338SOL    HW1 7788   8.524  11.597   9.273
35338SOL    HW2 7789   8.436  11.493   9.339
35339SOL     OW 7790   1.595   5.385  10.295
35339SOL    HW1 7791   1.667   5.411  10.353
35339SOL    HW2 7792   1.543   5.323  10.348
35340SOL     OW 7793  10.276   9.039  11.029
35340SOL    HW1 7794  10.324   9.068  11.106
35340SOL    HW2 7795  10.256   9.120  10.982
35341SOL     OW 7796   5.372   2.653   6.590
35341SOL    HW1 7797   5.326   2.702   6.659
35341SOL    HW2 7798   5.447   2.614   6.635
35342SOL     OW 7799  14.012   0.704   9.198
35342SOL    HW1 7800  14.015   0.773   9.264
35342SOL    HW2 7801  13.935   0.652   9.221
35343SOL     OW 7802  11.187   3.552   5.294
35343SOL    HW1 7803  11.241   3.539   5.372
35343SOL    HW2 7804  11.226   3.495   5.228
35344SOL     OW 7805   3.355  11.314  11.605
35344SOL    HW1 7806   3.435  11.270  11.576
35344SOL    HW2 7807   3.284  11.262  11.567
35345SOL     OW 7808  13.422   5.330   0.596
35345SOL    HW1 7809  13.419   5.360   0.505
35345SOL    HW2 7810  13.440   5.236   0.590
35346SOL     OW 7811  12.501  11.397   0.588
35346SOL    HW1 7812  12.430  11.354   0.636
35346SOL    HW2 7813  12.573  11.400   0.651
35347SOL     OW 7814  12.456   5.604  14.240
35347SOL    HW1 7815  12.539   5.557  14.226
35347SOL    HW2 7816  12.394   5.561  14.182
35348SOL     OW 7817  13.213  12.706   3.863
35348SOL    HW1 7818  13.221  12.619   3.824
35348SOL    HW2 7819  13.279  12.758   3.819
35349SOL     OW 7820   5.021   5.067   7.431
35349SOL    HW1 7821   5.095   5.019   7.395
35349SOL    HW2 7822   5.039   5.072   7.525
35350SOL     OW 7823   1.593  10.840   3.434
35350SOL    HW1 7824   1.657  10.778   3.471
35350SOL    HW2 7825   1.543  10.788   3.371
35351SOL     OW 7826   9.675   1.938  10.300
35351SOL    HW1 7827   9.647   1.969  10.215
35351SOL    HW2 7828   9.617   1.982  10.363
35352SOL     OW 7829   1.335   9.338   9.781
35352SOL    HW1 7830   1.328   9.244   9.791
35352SOL    HW2 7831   1.254   9.364   9.735
35353SOL     OW 7832   2.992   9.317  11.594
35353SOL    HW1 7833   2.960   9.238  11.549
35353SOL    HW2 7834   3.070   9.287  11.640
35354SOL     OW 7835   6.492  12.936  11.346
35354SOL    HW1 7836   6.543  13.011  11.313
35354SOL    HW2 7837   6.538  12.859  11.312
35355SOL     OW 7838  11.071   9.930   6.853
35355SOL    HW1 7839  11.043   9.885   6.774
35355SOL    HW2 7840  11.042  10.020   6.841
35356SOL     OW 7841   7.148   1.038   7.758
35356SOL    HW1 7842   7.184   1.104   7.699
35356SOL    HW2 7843   7.164   0.955   7.713
35357SOL     OW 7844  11.004   1.556  10.593
35357SOL    HW1 7845  11.007   1.479  10.649
35357SOL    HW2 7846  10.911   1.576  10.584
35358SOL     OW 7847   3.692  12.270   1.370
35358SOL    HW1 7848   3.668  12.179   1.353
35358SOL    HW2 7849   3.777  12.281   1.328
35359SOL     OW 7850   5.104  13.249   7.178
35359SOL    HW1 7851   5.045  13.231   7.104
35359SOL    HW2 7852   5.153  13.326   7.150
35360SOL     OW 7853   3.959  10.158  14.235
35360SOL    HW1 7854   3.864  10.159  14.226
35360SOL    HW2 7855   3.989  10.090  14.174
35361SOL     OW 7856   7.807   0.432  13.115
35361SOL    HW1 7857   7.756   0.354  13.091
35361SOL    HW2 7858   7.786   0.496  13.047
35362SOL     OW 7859  12.230  11.991  14.362
35362SOL    HW1 7860  12.285  11.957  14.434
35362SOL    HW2 7861  12.233  12.086  14.372
35363SOL     OW 7862   8.966  11.056   2.614
35363SOL    HW1 7863   9.054  11.065   2.650
35363SOL    HW2 7864   8.909  11.052   2.691
35364SOL     OW 7865  14.690  14.077   0.090
35364SOL    HW1 7866  14.663  14.040   0.007
35364SOL    HW2 7867  14.777  14.041   0.107
35365SOL     OW 7868   5.710   3.638  11.638
35365SOL    HW1 7869   5.730   3.637  11.731
35365SOL    HW2 7870   5.792   3.613  11.595
35366SOL     OW 7871   3.461   5.896   2.341
35366SOL    HW1 7872   3.543   5.848   2.355
35366SOL    HW2 7873   3.488   5.983   2.313
35367SOL     OW 7874  14.435  14.818  11.859
35367SOL    HW1 7875  14.365  14.753  11.863
35367SOL    HW2 7876  14.424  14.859  11.772
35368SOL     OW 7877   4.190   9.173   3.752
35368SOL    HW1 7878   4.167   9.196   3.662
35368SOL    HW2 7879   4.228   9.086   3.746
35369SOL     OW 7880   8.815   8.423   6.894
35369SOL    HW1 7881   8.771   8.351   6.849
35369SOL    HW2 7882   8.744   8.479   6.925
35370SOL     OW 7883   0.721   0.083  14.820
35370SOL    HW1 7884   0.734  14.870  14.821
35370SOL    HW2 7885   0.657   0.099   0.008
35371SOL     OW 7886  14.242  10.199   5.638
35371SOL    HW1 7887  14.320  10.241   5.675
35371SOL    HW2 7888  14.186  10.271   5.612
35372SOL     OW 7889   2.533   1.576  11.279
35372SOL    HW1 7890   2.567   1.536  11.199
35372SOL    HW2 7891   2.527   1.669  11.258
35373SOL     OW 7892   0.965  10.356   4.060
35373SOL    HW1 7893   1.060  10.342   4.060
35373SOL    HW2 7894   0.930  10.281   4.109
35374SOL     OW 7895   6.463   5.192  10.733
35374SOL    HW1 7896   6.539   5.200  10.790
35374SOL    HW2 7897   6.410   5.270  10.752
35375SOL     OW 7898   3.082   1.031   3.331
35375SOL    HW1 7899   3.046   0.971   3.265
35375SOL    HW2 7900   3.019   1.103   3.333
35376SOL     OW 7901  12.902   3.535   3.769
35376SOL    HW1 7902  12.823   3.589   3.771
35376SOL    HW2 7903  12.889   3.477   3.694
35377SOL     OW 7904  11.430   8.695   5.061
35377SOL    HW1 7905  11.489   8.619   5.061
35377SOL    HW2 7906  11.353   8.664   5.014
35378SOL     OW 7907   7.195   2.473  10.960
35378SOL    HW1 7908   7.103   2.453  10.943
35378SOL    HW2 7909   7.207   2.457  11.054
35379SOL     OW 7910  14.206   0.525   2.719
35379SOL    HW1 7911  14.196   0.445   2.667
35379SOL    HW2 7912  14.203   0.596   2.655
35380SOL     OW 7913  13.122  12.603   9.859
35380SOL    HW1 7914  13.179  12.532   9.830
35380SOL    HW2 7915  13.058  12.613   9.788
35381SOL     OW 7916   7.585   0.831   7.064
35381SOL    HW1 7917   7.593   0.812   7.158
35381SOL    HW2 7918   7.668   0.873   7.041
35382SOL     OW 7919   5.145   6.920  12.218
35382SOL    HW1 7920   5.058   6.940  12.253
35382SOL    HW2 7921   5.142   6.827  12.198
35383SOL     OW 7922   5.899   3.984  10.882
35383SOL    HW1 7923   5.879   3.892  10.862
35383SOL    HW2 7924   5.986   3.982  10.921
35384SOL     OW 7925   2.624   9.747   3.951
35384SOL    HW1 7926   2.696   9.754   3.888
35384SOL    HW2 7927   2.546   9.770   3.901
35385SOL     OW 7928   1.812   8.520   7.373
35385SOL    HW1 7929   1.741   8.463   7.343
35385SOL    HW2 7930   1.823   8.583   7.302
35386SOL     OW 7931   2.937  10.420  13.980
35386SOL    HW1 7932   2.901  10.482  13.917
35386SOL    HW2 7933   2.907  10.334  13.949
35387SOL     OW 7934   6.953   0.438  13.629
35387SOL    HW1 7935   6.963   0.386  13.549
35387SOL    HW2 7936   6.985   0.382  13.699
35388SOL     OW 7937  12.820  11.525  10.378
35388SOL    HW1 7938  12.749  11.461  10.392
35388SOL    HW2 7939  12.868  11.491  10.303
35389SOL     OW 7940   4.695   8.952   5.379
35389SOL    HW1 7941   4.751   8.962   5.456
35389SOL    HW2 7942   4.623   8.896   5.408
35390SOL     OW 7943  14.777   2.082   3.005
35390SOL    HW1 7944  14.741   2.169   3.024
35390SOL    HW2 7945  14.774   2.036   3.088
35391SOL     OW 7946   9.721  11.987   8.846
35391SOL    HW1 7947   9.634  12.025   8.854
35391SOL    HW2 7948   9.716  11.932   8.768
35392SOL     OW 7949  12.390   6.606   7.668
35392SOL    HW1 7950  12.350   6.520   7.681
35392SOL    HW2 7951  12.475   6.600   7.712
35393SOL     OW 7952  13.177   8.641  12.373
35393SOL    HW1 7953  13.129   8.576  12.423
35393SOL    HW2 7954  13.267   8.636  12.406
35394SOL     OW 7955   3.012   5.900  14.152
35394SOL    HW1 7956   3.000   5.815  14.194
35394SOL    HW2 7957   3.072   5.882  14.080
35395SOL     OW 7958   1.098   2.825   5.576
35395SOL    HW1 7959   1.066   2.848   5.488
35395SOL    HW2 7960   1.170   2.764   5.559
35396SOL     OW 7961   0.301  12.610   9.396
35396SOL    HW1 7962   0.274  12.607   9.304
35396SOL    HW2 7963   0.369  12.678   9.398
35397SOL     OW 7964  13.456  13.747   7.344
35397SOL    HW1 7965  13.521  13.716   7.406
35397SOL    HW2 7966  13.384  13.778   7.397
35398SOL     OW 7967   4.667  11.688   5.950
35398SOL    HW1 7968   4.602  11.644   5.895
35398SOL    HW2 7969   4.654  11.781   5.933
35399SOL     OW 7970  10.298   9.923  10.601
35399SOL    HW1 7971  10.388   9.955  10.613
35399SOL    HW2 7972  10.271   9.960  10.516
35400SOL     OW 7973  13.203  12.050  14.014
35400SOL    HW1 7974  13.180  12.114  14.081
35400SOL    HW2 7975  13.284  12.083  13.976
35401SOL     OW 7976  12.469   5.203   1.898
35401SOL    HW1 7977  12.500   5.282   1.852
35401SOL    HW2 7978  12.548   5.168   1.940
35402SOL     OW 7979  14.407  13.610   7.205
35402SOL    HW1 7980  14.492  13.571   7.184
35402SOL    HW2 7981  14.429  13.694   7.246
35403SOL     OW 7982   0.991  11.964   6.656
35403SOL    HW1 7983   1.084  11.941   6.652
35403SOL    HW2 7984   0.953  11.919   6.581
35404SOL     OW 7985   2.258   0.995  12.158
35404SOL    HW1 7986   2.184   1.015  12.216
35404SOL    HW2 7987   2.291   0.912  12.191
35405SOL     OW 7988  10.517   6.725  13.394
35405SOL    HW1 7989  10.605   6.692  13.376
35405SOL    HW2 7990  10.459   6.666  13.346
35406SOL     OW 7991  12.563   0.336   1.414
35406SOL    HW1 7992  12.568   0.400   1.485
35406SOL    HW2 7993  12.630   0.271   1.435
35407SOL     OW 7994   4.931   1.084   5.708
35407SOL    HW1 7995   5.025   1.075   5.692
35407SOL    HW2 7996   4.891   1.009   5.664
35408SOL     OW 7997  10.596   7.505   0.095
35408SOL    HW1 7998  10.565   7.534   0.180
35408SOL    HW2 7999  10.678   7.458   0.114
35409SOL     OW 8000   0.386   7.426   0.239
35409SOL    HW1 8001   0.383   7.455   0.148
35409SOL    HW2 8002   0.302   7.383   0.253
35410SOL     OW 8003  12.417   3.488  13.159
35410SOL    HW1 8004  12.452   3.446  13.237
35410SOL    HW2 8005  12.461   3.572  13.153
35411SOL     OW 8006  10.976   3.263  14.268
35411SOL    HW1 8007  10.997   3.201  14.338
35411SOL    HW2 8008  10.911   3.322  14.308
35412SOL     OW 8009   8.061   5.710   8.203
35412SOL    HW1 8010   7.967   5.694   8.199
35412SOL    HW2 8011   8.086   5.724   8.112
35413SOL     OW 8012   3.506   9.207  13.421
35413SOL    HW1 8013   3.588   9.168  13.451
35413SOL    HW2 8014   3.525   9.300  13.413
35414SOL     OW 8015   7.550   5.734   4.129
35414SOL    HW1 8016   7.484   5.665   4.129
35414SOL    HW2 8017   7.548   5.769   4.218
35415SOL     OW 8018   7.992   6.586   4.893
35415SOL    HW1 8019   8.022   6.496   4.882
35415SOL    HW2 8020   7.981   6.597   4.987
35416SOL     OW 8021   2.614   7.452  12.834
35416SOL    HW1 8022   2.589   7.372  12.879
35416SOL    HW2 8023   2.581   7.522  12.891
35417SOL     OW 8024   8.077   0.066   6.299
35417SOL    HW1 8025   8.046  14.873   6.248
35417SOL    HW2 8026   8.171   0.071   6.281
35418SOL     OW 8027   2.041   3.820   9.047
35418SOL    HW1 8028   2.114   3.869   9.085
35418SOL    HW2 8029   1.965   3.877   9.059
35419SOL     OW 8030   1.464   4.598   6.389
35419SOL    HW1 8031   1.413   4.564   6.315
35419SOL    HW2 8032   1.450   4.534   6.458
35420SOL     OW 8033   6.087   6.695  11.638
35420SOL    HW1 8034   5.998   6.707  11.670
35420SOL    HW2 8035   6.091   6.602  11.613
35421SOL     OW 8036  11.439  11.798   1.111
35421SOL    HW1 8037  11.350  11.771   1.134
35421SOL    HW2 8038  11.430  11.891   1.087
35422SOL     OW 8039  11.216   4.462  13.946
35422SOL    HW1 8040  11.194   4.390  13.887
35422SOL    HW2 8041  11.132   4.497  13.976
35423SOL     OW 8042  11.924  11.680   6.547
35423SOL    HW1 8043  11.927  11.776   6.550
35423SOL    HW2 8044  11.917  11.654   6.639
35424SOL     OW 8045  13.609   6.612   3.988
35424SOL    HW1 8046  13.604   6.533   3.934
35424SOL    HW2 8047  13.658   6.675   3.935
35425SOL     OW 8048   4.791   8.945  10.763
35425SOL    HW1 8049   4.887   8.942  10.766
35425SOL    HW2 8050   4.770   8.939  10.670
35426SOL     OW 8051   6.211   5.835  14.137
35426SOL    HW1 8052   6.280   5.771  14.154
35426SOL    HW2 8053   6.197   5.879  14.221
35427SOL     OW 8054   2.180   5.610  11.013
35427SOL    HW1 8055   2.150   5.692  10.973
35427SOL    HW2 8056   2.210   5.635  11.100
35428SOL     OW 8057   0.739   7.983   4.309
35428SOL    HW1 8058   0.663   7.952   4.260
35428SOL    HW2 8059   0.762   8.066   4.267
35429SOL     OW 8060   5.603   8.225   3.134
35429SOL    HW1 8061   5.594   8.169   3.057
35429SOL    HW2 8062   5.673   8.185   3.185
35430SOL     OW 8063   3.304   5.126   0.591
35430SOL    HW1 8064   3.329   5.042   0.551
35430SOL    HW2 8065   3.332   5.119   0.682
35431SOL     OW 8066  13.487   8.695  14.628
35431SOL    HW1 8067  13.557   8.745  14.671
35431SOL    HW2 8068  13.443   8.649  14.700
35432SOL     OW 8069   0.574   4.237   8.306
35432SOL    HW1 8070   0.494   4.269   8.264
35432SOL    HW2 8071   0.550   4.225   8.398
35433SOL     OW 8072  14.815  13.946   8.120
35433SOL    HW1 8073  14.752  14.002   8.166
35433SOL    HW2 8074  14.772  13.861   8.115
35434SOL     OW 8075   2.528   5.541  12.023
35434SOL    HW1 8076   2.476   5.580  11.952
35434SOL    HW2 8077   2.486   5.457  12.040
35435SOL     OW 8078   5.380   9.795  13.990
35435SOL    HW1 8079   5.345   9.757  14.071
35435SOL    HW2 8080   5.441   9.729  13.957
35436SOL     OW 8081   2.085   7.877   7.118
35436SOL    HW1 8082   2.008   7.867   7.174
35436SOL    HW2 8083   2.068   7.821   7.042
35437SOL     OW 8084   6.067   6.432  11.617
35437SOL    HW1 8085   6.131   6.375  11.574
35437SOL    HW2 8086   5.999   6.372  11.649
35438SOL     OW 8087   5.625   2.324   7.147
35438SOL    HW1 8088   5.626   2.335   7.242
35438SOL    HW2 8089   5.537   2.291   7.127
35439SOL     OW 8090   0.198  11.809  14.872
35439SOL    HW1 8091   0.200  11.895   0.034
35439SOL    HW2 8092   0.290  11.784  14.864
35440SOL     OW 8093   9.449   4.134  13.995
35440SOL    HW1 8094   9.480   4.044  14.008
35440SOL    HW2 8095   9.511   4.173  13.934
35441SOL     OW 8096   7.233   5.180   6.940
35441SOL    HW1 8097   7.316   5.170   6.987
35441SOL    HW2 8098   7.186   5.248   6.988
35442SOL     OW 8099   8.690  13.773   4.596
35442SOL    HW1 8100   8.658  13.739   4.680
35442SOL    HW2 8101   8.611  13.792   4.546
35443SOL     OW 8102  13.006  11.893  14.408
35443SOL    HW1 8103  12.932  11.881  14.349
35443SOL    HW2 8104  13.083  11.871  14.354
35444SOL     OW 8105   6.742  11.284  11.964
35444SOL    HW1 8106   6.781  11.230  11.895
35444SOL    HW2 8107   6.803  11.278  12.037
35445SOL     OW 8108  13.397   4.679   9.459
35445SOL    HW1 8109  13.456   4.651   9.528
35445SOL    HW2 8110  13.434   4.762   9.428
35446SOL     OW 8111   5.856  14.755   3.421
35446SOL    HW1 8112   5.795  14.683   3.408
35446SOL    HW2 8113   5.934  14.714   3.458
35447SOL     OW 8114  14.834   3.289   1.654
35447SOL    HW1 8115  14.751   3.330   1.679
35447SOL    HW2 8116  14.820   3.195   1.668
35448SOL     OW 8117  14.515   8.973   3.876
35448SOL    HW1 8118  14.459   8.965   3.953
35448SOL    HW2 8119  14.543   8.883   3.857
35449SOL     OW 8120   6.211   1.496  13.307
35449SOL    HW1 8121   6.252   1.438  13.371
35449SOL    HW2 8122   6.278   1.561  13.288
35450SOL     OW 8123   1.842   4.780   9.757
35450SOL    HW1 8124   1.901   4.708   9.779
35450SOL    HW2 8125   1.756   4.750   9.786
35451SOL     OW 8126   5.048   8.394   1.129
35451SOL    HW1 8127   4.973   8.344   1.097
35451SOL    HW2 8128   5.083   8.437   1.051
35452SOL     OW 8129  13.025   4.517  11.309
35452SOL    HW1 8130  12.990   4.431  11.285
35452SOL    HW2 8131  13.047   4.558  11.226
35453SOL     OW 8132  10.134   7.259   8.677
35453SOL    HW1 8133  10.207   7.211   8.717
35453SOL    HW2 8134  10.155   7.351   8.693
35454SOL     OW 8135   8.909  10.073   5.543
35454SOL    HW1 8136   8.888  10.111   5.458
35454SOL    HW2 8137   8.825  10.057   5.585
35455SOL     OW 8138   4.428  12.647   6.154
35455SOL    HW1 8139   4.397  12.716   6.096
35455SOL    HW2 8140   4.518  12.670   6.174
35456SOL     OW 8141   7.621  13.912  10.491
35456SOL    HW1 8142   7.692  13.851  10.471
35456SOL    HW2 8143   7.541  13.863  10.471
35457SOL     OW 8144  10.436   4.217   6.177
35457SOL    HW1 8145  10.447   4.280   6.106
35457SOL    HW2 8146  10.358   4.247   6.224
35458SOL     OW 8147  13.641   9.103   1.144
35458SOL    HW1 8148  13.604   9.190   1.129
35458SOL    HW2 8149  13.735   9.114   1.131
35459SOL     OW 8150   4.740   5.429   4.891
35459SOL    HW1 8151   4.733   5.345   4.936
35459SOL    HW2 8152   4.818   5.421   4.837
35460SOL     OW 8153   1.717  11.695   8.984
35460SOL    HW1 8154   1.801  11.686   8.941
35460SOL    HW2 8155   1.739  11.715   9.075
35461SOL     OW 8156   0.696  14.575   0.108
35461SOL    HW1 8157   0.744  14.614   0.034
35461SOL    HW2 8158   0.740  14.609   0.185
35462SOL     OW 8159   2.701   6.012  13.836
35462SOL    HW1 8160   2.681   6.084  13.775
35462SOL    HW2 8161   2.618   5.963  13.843
35463SOL     OW 8162   1.670   0.704  10.206
35463SOL    HW1 8163   1.684   0.611  10.190
35463SOL    HW2 8164   1.580   0.710  10.237
35464SOL     OW 8165   3.867  12.585  10.728
35464SOL    HW1 8166   3.846  12.583  10.821
35464SOL    HW2 8167   3.956  12.618  10.724
35465SOL     OW 8168   9.829   9.859   8.809
35465SOL    HW1 8169   9.733   9.856   8.815
35465SOL    HW2 8170   9.848   9.952   8.794
35466SOL     OW 8171  14.628   2.579  10.510
35466SOL    HW1 8172  14.654   2.603  10.421
35466SOL    HW2 8173  14.695   2.616  10.566
35467SOL     OW 8174   0.053   1.752   3.894
35467SOL    HW1 8175   0.050   1.689   3.822
35467SOL    HW2 8176  14.843   1.768   3.916
35468SOL     OW 8177   5.317  14.664  11.599
35468SOL    HW1 8178   5.351  14.576  11.583
35468SOL    HW2 8179   5.389  14.722  11.573
35469SOL     OW 8180   2.889   7.795   9.326
35469SOL    HW1 8181   2.967   7.759   9.285
35469SOL    HW2 8182   2.917   7.818   9.415
35470SOL     OW 8183   8.129   2.095   8.808
35470SOL    HW1 8184   8.166   2.166   8.755
35470SOL    HW2 8185   8.205   2.042   8.833
35471SOL     OW 8186  12.397   9.330   5.505
35471SOL    HW1 8187  12.389   9.266   5.434
35471SOL    HW2 8188  12.324   9.310   5.563
35472SOL     OW 8189  11.989  10.188   4.139
35472SOL    HW1 8190  11.972  10.231   4.055
35472SOL    HW2 8191  12.082  10.168   4.137
35473SOL     OW 8192   1.058   0.930   9.678
35473SOL    HW1 8193   1.058   0.926   9.583
35473SOL    HW2 8194   1.144   0.965   9.701
35474SOL     OW 8195   9.064   8.419  11.005
35474SOL    HW1 8196   9.097   8.442  10.918
35474SOL    HW2 8197   9.029   8.330  10.994
35475SOL     OW 8198   1.524  14.528   1.768
35475SOL    HW1 8199   1.450  14.513   1.709
35475SOL    HW2 8200   1.526  14.451   1.824
35476SOL     OW 8201   2.161   4.882   8.270
35476SOL    HW1 8202   2.107   4.804   8.257
35476SOL    HW2 8203   2.156   4.929   8.186
35477SOL     OW 8204   9.898   0.927  13.256
35477SOL    HW1 8205   9.949   0.868  13.201
35477SOL    HW2 8206   9.949   0.934  13.337
35478SOL     OW 8207   2.317   4.354   6.369
35478SOL    HW1 8208   2.412   4.353   6.357
35478SOL    HW2 8209   2.301   4.413   6.442
35479SOL     OW 8210  14.384   4.428   9.806
35479SOL    HW1 8211  14.447   4.450   9.737
35479SOL    HW2 8212  14.300   4.423   9.762
35480SOL     OW 8213  14.511   1.001   9.257
35480SOL    HW1 8214  14.502   0.927   9.196
35480SOL    HW2 8215  14.595   1.040   9.234
35481SOL     OW 8216   7.137  10.324  14.222
35481SOL    HW1 8217   7.077  10.358  14.287
35481SOL    HW2 8218   7.139  10.390  14.153
35482SOL     OW 8219   3.478   9.403  10.932
35482SOL    HW1 8220   3.415   9.466  10.966
35482SOL    HW2 8221   3.476   9.331  10.994
35483SOL     OW 8222  13.645   6.830   9.978
35483SOL    HW1 8223  13.671   6.884   9.904
35483SOL    HW2 8224  13.560   6.794   9.953
35484SOL     OW 8225  12.889   0.561   6.927
35484SOL    HW1 8226  12.892   0.593   6.837
35484SOL    HW2 8227  12.912   0.469   6.921
35485SOL     OW 8228   0.295  10.431  10.144
35485SOL    HW1 8229   0.304  10.480  10.063
35485SOL    HW2 8230   0.209  10.455  10.178
35486SOL     OW 8231   8.946   5.464  11.803
35486SOL    HW1 8232   8.865   5.446  11.757
35486SOL    HW2 8233   8.938   5.555  11.832
35487SOL     OW 8234   5.887   4.656   1.733
35487SOL    HW1 8235   5.843   4.717   1.674
35487SOL    HW2 8236   5.842   4.573   1.718
35488SOL     OW 8237  11.315  14.370  13.017
35488SOL    HW1 8238  11.355  14.287  13.044
35488SOL    HW2 8239  11.226  14.346  12.992
35489SOL     OW 8240   0.498  12.111  10.060
35489SOL    HW1 8241   0.572  12.082  10.114
35489SOL    HW2 8242   0.422  12.066  10.097
35490SOL     OW 8243   4.587   4.746   9.345
35490SOL    HW1 8244   4.590   4.805   9.270
35490SOL    HW2 8245   4.669   4.697   9.341
35491SOL     OW 8246   4.344   6.466   1.023
35491SOL    HW1 8247   4.432   6.498   1.003
35491SOL    HW2 8248   4.291   6.494   0.948
35492SOL     OW 8249  10.319  11.164  11.992
35492SOL    HW1 8250  10.403  11.210  11.982
35492SOL    HW2 8251  10.259  11.231  12.024
35493SOL     OW 8252  11.219  11.374  12.737
35493SOL    HW1 8253  11.297  11.319  12.751
35493SOL    HW2 8254  11.246  11.461  12.767
35494SOL     OW 8255  12.661   5.876  13.943
35494SOL    HW1 8256  12.685   5.861  13.851
35494SOL    HW2 8257  12.643   5.970  13.948
35495SOL     OW 8258   8.412  11.092   7.858
35495SOL    HW1 8259   8.357  11.128   7.788
35495SOL    HW2 8260   8.369  11.120   7.939
35496SOL     OW 8261   2.710   6.819   6.785
35496SOL    HW1 8262   2.788   6.874   6.788
35496SOL    HW2 8263   2.675   6.832   6.697
35497SOL     OW 8264   0.023   8.590   3.196
35497SOL    HW1 8265  14.810   8.609   3.200
35497SOL    HW2 8266   0.062   8.673   3.169
35498SOL     OW 8267   1.557  10.411   5.867
35498SOL    HW1 8268   1.584  10.319   5.870
35498SOL    HW2 8269   1.589  10.444   5.783
35499SOL     OW 8270  14.171   7.499   0.579
35499SOL    HW1 8271  14.241   7.563   0.564
35499SOL    HW2 8272  14.102   7.549   0.622
35500SOL     OW 8273  14.497   3.623   8.140
35500SOL    HW1 8274  14.492   3.708   8.185
35500SOL    HW2 8275  14.531   3.563   8.206
35501SOL     OW 8276   5.455  12.771   7.823
35501SOL    HW1 8277   5.535  12.819   7.802
35501SOL    HW2 8278   5.388  12.839   7.828
35502SOL     OW 8279   9.671  10.968   6.758
35502SOL    HW1 8280   9.630  10.928   6.835
35502SOL    HW2 8281   9.704  11.052   6.789
35503SOL     OW 8282   1.220   3.466   2.815
35503SOL    HW1 8283   1.192   3.519   2.741
35503SOL    HW2 8284   1.316   3.466   2.810
35504SOL     OW 8285  10.808   7.507   4.147
35504SOL    HW1 8286  10.791   7.578   4.209
35504SOL    HW2 8287  10.728   7.454   4.149
35505SOL     OW 8288   7.981   8.057   3.102
35505SOL    HW1 8289   8.040   8.124   3.134
35505SOL    HW2 8290   7.981   7.990   3.171
35506SOL     OW 8291   7.292   5.470   3.439
35506SOL    HW1 8292   7.268   5.554   3.400
35506SOL    HW2 8293   7.360   5.492   3.503
35507SOL     OW 8294   6.862  10.454   2.667
35507SOL    HW1 8295   6.835  10.371   2.706
35507SOL    HW2 8296   6.815  10.520   2.718
35508SOL     OW 8297  13.649   5.592   8.309
35508SOL    HW1 8298  13.640   5.598   8.214
35508SOL    HW2 8299  13.632   5.681   8.340
35509SOL     OW 8300   4.966   1.185   1.750
35509SOL    HW1 8301   4.872   1.171   1.738
35509SOL    HW2 8302   4.976   1.280   1.754
35510SOL     OW 8303   0.928   7.527   7.120
35510SOL    HW1 8304   1.000   7.569   7.073
35510SOL    HW2 8305   0.971   7.471   7.184
35511SOL     OW 8306   6.359  11.906   0.831
35511SOL    HW1 8307   6.281  11.932   0.782
35511SOL    HW2 8308   6.351  11.811   0.841
35512SOL     OW 8309  12.206  11.528   6.158
35512SOL    HW1 8310  12.213  11.617   6.123
35512SOL    HW2 8311  12.266  11.527   6.232
35513SOL     OW 8312   9.962  13.234   8.108
35513SOL    HW1 8313  10.039  13.290   8.103
35513SOL    HW2 8314   9.971  13.174   8.034
35514SOL     OW 8315  11.635   0.745   6.553
35514SOL    HW1 8316  11.642   0.823   6.497
35514SOL    HW2 8317  11.723   0.734   6.589
35515SOL     OW 8318   6.427   0.587   8.735
35515SOL    HW1 8319   6.512   0.554   8.708
35515SOL    HW2 8320   6.443   0.627   8.820
35516SOL     OW 8321   3.956   0.968  14.761
35516SOL    HW1 8322   4.031   0.909  14.765
35516SOL    HW2 8323   3.931   0.981  14.853
35517SOL     OW 8324   5.382   4.966   5.791
35517SOL    HW1 8325   5.304   4.955   5.736
35517SOL    HW2 8326   5.368   5.048   5.837
35518SOL     OW 8327   4.516   0.081   7.917
35518SOL    HW1 8328   4.497   0.160   7.967
35518SOL    HW2 8329   4.611   0.084   7.903
35519SOL     OW 8330   5.176   0.043  12.026
35519SOL    HW1 8331   5.251   0.008  11.978
35519SOL    HW2 8332   5.173  14.873  12.106
35520SOL     OW 8333  12.651   5.046  13.688
35520SOL    HW1 8334  12.557   5.067  13.692
35520SOL    HW2 8335  12.689   5.094  13.761
35521SOL     OW 8336  14.548  10.971   4.360
35521SOL    HW1 8337  14.625  11.013   4.320
35521SOL    HW2 8338  14.576  10.949   4.448
35522SOL     OW 8339  14.369  12.798   4.361
35522SOL    HW1 8340  14.328  12.883   4.369
35522SOL    HW2 8341  14.459  12.812   4.391
35523SOL     OW 8342   9.385   8.858   8.955
35523SOL    HW1 8343   9.322   8.900   8.898
35523SOL    HW2 8344   9.404   8.774   8.912
35524SOL     OW 8345   5.586   1.500   3.658
35524SOL    HW1 8346   5.508   1.460   3.619
35524SOL    HW2 8347   5.657   1.477   3.599
35525SOL     OW 8348   0.298   0.749  13.821
35525SOL    HW1 8349   0.380   0.793  13.843
35525SOL    HW2 8350   0.283   0.689  13.894
35526SOL     OW 8351  14.289   3.387   2.650
35526SOL    HW1 8352  14.320   3.453   2.712
35526SOL    HW2 8353  14.298   3.304   2.697
35527SOL     OW 8354   5.268   3.047  12.345
35527SOL    HW1 8355   5.173   3.063  12.341
35527SOL    HW2 8356   5.299   3.065  12.256
35528SOL     OW 8357   9.521   9.279   2.504
35528SOL    HW1 8358   9.583   9.324   2.561
35528SOL    HW2 8359   9.518   9.190   2.538
35529SOL     OW 8360   8.282  13.945   5.318
35529SOL    HW1 8361   8.247  13.936   5.406
35529SOL    HW2 8362   8.283  13.855   5.283
35530SOL     OW 8363  14.301   8.536   2.604
35530SOL    HW1 8364  14.294   8.632   2.599
35530SOL    HW2 8365  14.219   8.508   2.644
35531SOL     OW 8366  10.544   7.934   3.524
35531SOL    HW1 8367  10.613   7.909   3.463
35531SOL    HW2 8368  10.573   7.901   3.609
35532SOL     OW 8369  14.082   7.335   1.835
35532SOL    HW1 8370  14.174   7.350   1.857
35532SOL    HW2 8371  14.078   7.351   1.740
35533SOL     OW 8372   3.409   0.041  13.758
35533SOL    HW1 8373   3.345   0.066  13.691
35533SOL    HW2 8374   3.380  14.837  13.789
35534SOL     OW 8375   2.163   5.592   5.556
35534SOL    HW1 8376   2.160   5.515   5.613
35534SOL    HW2 8377   2.180   5.556   5.469
35535SOL     OW 8378   5.300   4.734   2.892
35535SOL    HW1 8379   5.388   4.735   2.931
35535SOL    HW2 8380   5.241   4.728   2.967
35536SOL     OW 8381   0.003  11.975   6.386
35536SOL    HW1 8382   0.008  11.880   6.381
35536SOL    HW2 8383   0.092  12.005   6.367
35537SOL     OW 8384   3.179   0.632   1.041
35537SOL    HW1 8385   3.139   0.616   1.127
35537SOL    HW2 8386   3.154   0.722   1.020
35538SOL     OW 8387   1.212   0.681  14.355
35538SOL    HW1 8388   1.295   0.695  14.401
35538SOL    HW2 8389   1.237   0.635  14.275
35539SOL     OW 8390   5.078   5.348   1.545
35539SOL    HW1 8391   5.122   5.330   1.461
35539SOL    HW2 8392   4.994   5.386   1.520
35540SOL     OW 8393   1.127   7.120   4.898
35540SOL    HW1 8394   1.144   7.105   4.806
35540SOL    HW2 8395   1.091   7.209   4.902
35541SOL     OW 8396   8.493   8.139   1.003
35541SOL    HW1 8397   8.411   8.125   1.052
35541SOL    HW2 8398   8.481   8.225   0.961
35542SOL     OW 8399   9.685   5.170   8.074
35542SOL    HW1 8400   9.730   5.196   8.154
35542SOL    HW2 8401   9.620   5.105   8.102
35543SOL     OW 8402   4.184   8.577  14.719
35543SOL    HW1 8403   4.204   8.586  14.626
35543SOL    HW2 8404   4.202   8.485  14.738
35544SOL     OW 8405   7.369   4.540   2.515
35544SOL    HW1 8406   7.342   4.529   2.424
35544SOL    HW2 8407   7.409   4.626   2.518
35545SOL     OW 8408   5.378   8.488   1.367
35545SOL    HW1 8409   5.333   8.572   1.360
35545SOL    HW2 8410   5.380   8.470   1.461
35546SOL     OW 8411   3.459  11.171  14.777
35546SOL    HW1 8412   3.550  11.200  14.768
35546SOL    HW2 8413   3.456  11.130  14.864
35547SOL     OW 8414   5.782   3.418  13.441
35547SOL    HW1 8415   5.777   3.461  13.526
35547SOL    HW2 8416   5.700   3.441  13.398
35548SOL     OW 8417   5.083   0.517   9.135
35548SOL    HW1 8418   5.008   0.464   9.161
35548SOL    HW2 8419   5.048   0.606   9.126
35549SOL     OW 8420   8.606  10.782  12.184
35549SOL    HW1 8421   8.679  10.844  12.191
35549SOL    HW2 8422   8.563  10.804  12.101
35550SOL     OW 8423   8.595   5.818  11.278
35550SOL    HW1 8424   8.537   5.760  11.228
35550SOL    HW2 8425   8.563   5.906  11.259
35551SOL     OW 8426   2.559   2.776   8.231
35551SOL    HW1 8427   2.502   2.752   8.158
35551SOL    HW2 8428   2.572   2.871   8.220
35552SOL     OW 8429  11.430  14.724   3.490
35552SOL    HW1 8430  11.495  14.676   3.438
35552SOL    HW2 8431  11.461  14.815   3.489
35553SOL     OW 8432   0.705   9.377   3.745
35553SOL    HW1 8433   0.796   9.363   3.773
35553SOL    HW2 8434   0.705   9.465   3.708
35554SOL     OW 8435   1.374   0.204   6.471
35554SOL    HW1 8436   1.419   0.166   6.547
35554SOL    HW2 8437   1.357   0.295   6.497
35555SOL     OW 8438   8.344  10.789   7.381
35555SOL    HW1 8439   8.265  10.769   7.431
35555SOL    HW2 8440   8.319  10.776   7.290
35556SOL     OW 8441   6.961   4.891  11.674
35556SOL    HW1 8442   6.895   4.829  11.644
35556SOL    HW2 8443   7.033   4.836  11.707
35557SOL     OW 8444   8.724   3.391   5.412
35557SOL    HW1 8445   8.804   3.359   5.371
35557SOL    HW2 8446   8.753   3.424   5.497
35558SOL     OW 8447   3.236   0.366   7.878
35558SOL    HW1 8448   3.306   0.419   7.839
35558SOL    HW2 8449   3.156   0.415   7.859
35559SOL     OW 8450   5.704   7.808   2.839
35559SOL    HW1 8451   5.785   7.814   2.890
35559SOL    HW2 8452   5.691   7.714   2.826
35560SOL     OW 8453   7.027   9.861  11.831
35560SOL    HW1 8454   7.090   9.929  11.807
35560SOL    HW2 8455   6.952   9.876  11.774
35561SOL     OW 8456  12.623  11.929   7.077
35561SOL    HW1 8457  12.585  11.931   7.165
35561SOL    HW2 8458  12.548  11.918   7.019
35562SOL     OW 8459   9.052   6.162   6.119
35562SOL    HW1 8460   9.059   6.067   6.128
35562SOL    HW2 8461   9.091   6.197   6.200
35563SOL     OW 8462   9.928  10.234   6.986
35563SOL    HW1 8463   9.897  10.230   6.895
35563SOL    HW2 8464   9.854  10.271   7.034
35564SOL     OW 8465   0.624  10.678   2.464
35564SOL    HW1 8466   0.644  10.631   2.383
35564SOL    HW2 8467   0.709  10.709   2.495
35565SOL     OW 8468   2.998   9.965   1.535
35565SOL    HW1 8469   3.082   9.967   1.581
35565SOL    HW2 8470   3.017   9.920   1.453
35566SOL     OW 8471  12.073   8.116   1.120
35566SOL    HW1 8472  12.010   8.050   1.092
35566SOL    HW2 8473  12.145   8.108   1.057
35567SOL     OW 8474   0.275  12.623  12.303
35567SOL    HW1 8475   0.370  12.617  12.295
35567SOL    HW2 8476   0.249  12.540  12.342
35568SOL     OW 8477   8.323   4.697   0.399
35568SOL    HW1 8478   8.384   4.668   0.467
35568SOL    HW2 8479   8.316   4.791   0.412
35569SOL     OW 8480   1.914   7.240  14.105
35569SOL    HW1 8481   2.005   7.213  14.116
35569SOL    HW2 8482   1.908   7.269  14.014
35570SOL     OW 8483   2.275  14.170  14.867
35570SOL    HW1 8484   2.347  14.207   0.036
35570SOL    HW2 8485   2.317  14.116  14.800
35571SOL     OW 8486   8.825   0.106   9.787
35571SOL    HW1 8487   8.861   0.123   9.700
35571SOL    HW2 8488   8.902   0.111   9.845
35572SOL     OW 8489   0.425  13.907   2.354
35572SOL    HW1 8490   0.401  13.822   2.390
35572SOL    HW2 8491   0.505  13.891   2.304
35573SOL     OW 8492  14.657  13.909  12.844
35573SOL    HW1 8493  14.683  13.880  12.931
35573SOL    HW2 8494  14.619  13.995  12.857
35574SOL     OW 8495   6.763   3.004   9.703
35574SOL    HW1 8496   6.712   3.085   9.700
35574SOL    HW2 8497   6.758   2.969   9.614
35575SOL     OW 8498   6.066  12.013   8.962
35575SOL    HW1 8499   6.107  11.981   9.043
35575SOL    HW2 8500   5.999  12.074   8.992
35576SOL     OW 8501   8.632   0.975   5.871
35576SOL    HW1 8502   8.619   0.893   5.824
35576SOL    HW2 8503   8.550   0.990   5.918
35577SOL     OW 8504   7.768   1.851   9.012
35577SOL    HW1 8505   7.691   1.818   8.966
35577SOL    HW2 8506   7.828   1.776   9.015
35578SOL     OW 8507   6.510  10.812   3.179
35578SOL    HW1 8508   6.465  10.735   3.144
35578SOL    HW2 8509   6.603  10.794   3.163
35579SOL     OW 8510   2.923  12.820   4.138
35579SOL    HW1 8511   2.844  12.785   4.096
35579SOL    HW2 8512   2.915  12.915   4.126
35580SOL     OW 8513  10.683  11.198   3.017
35580SOL    HW1 8514  10.764  11.156   3.045
35580SOL    HW2 8515  10.675  11.174   2.924
35581SOL     OW 8516  10.091   4.983  14.723
35581SOL    HW1 8517  10.062   4.905  14.771
35581SOL    HW2 8518  10.058   4.971  14.634
35582SOL     OW 8519  14.514   6.483  10.045
35582SOL    HW1 8520  14.481   6.558   9.995
35582SOL    HW2 8521  14.499   6.506  10.137
35583SOL     OW 8522  14.342   4.750   0.923
35583SOL    HW1 8523  14.257   4.747   0.879
35583SOL    HW2 8524  14.405   4.762   0.852
35584SOL     OW 8525  13.581   2.769   6.238
35584SOL    HW1 8526  13.629   2.851   6.227
35584SOL    HW2 8527  13.587   2.726   6.153
35585SOL     OW 8528   7.300   8.889  13.096
35585SOL    HW1 8529   7.284   8.916  13.005
35585SOL    HW2 8530   7.312   8.794  13.091
35586SOL     OW 8531   0.835  12.569  12.535
35586SOL    HW1 8532   0.836  12.506  12.463
35586SOL    HW2 8533   0.773  12.533  12.598
35587SOL     OW 8534   2.898  14.114   7.213
35587SOL    HW1 8535   2.876  14.203   7.242
35587SOL    HW2 8536   2.819  14.083   7.169
35588SOL     OW 8537   5.697  14.559  13.171
35588SOL    HW1 8538   5.622  14.509  13.205
35588SOL    HW2 8539   5.666  14.593  13.087
35589SOL     OW 8540  10.081   1.852   8.228
35589SOL    HW1 8541  10.127   1.934   8.211
35589SOL    HW2 8542   9.989   1.872   8.216
35590SOL     OW 8543   3.762   9.696  14.234
35590SOL    HW1 8544   3.835   9.750  14.263
35590SOL    HW2 8545   3.686   9.753  14.239
35591SOL     OW 8546  11.789   0.386  13.785
35591SOL    HW1 8547  11.850   0.418  13.851
35591SOL    HW2 8548  11.741   0.464  13.757
35592SOL     OW 8549   7.567   4.950   6.605
35592SOL    HW1 8550   7.519   5.022   6.645
35592SOL    HW2 8551   7.565   4.969   6.511
35593SOL     OW 8552  10.825   1.737   4.191
35593SOL    HW1 8553  10.734   1.768   4.184
35593SOL    HW2 8554  10.874   1.813   4.221
35594SOL     OW 8555   3.608   1.491  12.287
35594SOL    HW1 8556   3.690   1.539  12.295
35594SOL    HW2 8557   3.586   1.466  12.377
35595SOL     OW 8558  12.863  13.804   2.687
35595SOL    HW1 8559  12.855  13.847   2.602
35595SOL    HW2 8560  12.909  13.722   2.668
35596SOL     OW 8561   3.748   6.981   8.198
35596SOL    HW1 8562   3.838   7.012   8.190
35596SOL    HW2 8563   3.714   6.984   8.108
35597SOL     OW 8564   4.656  10.427  10.805
35597SOL    HW1 8565   4.648  10.522  10.793
35597SOL    HW2 8566   4.583  10.405  10.863
35598SOL     OW 8567   0.022  11.897  10.146
35598SOL    HW1 8568   0.009  11.819  10.091
35598SOL    HW2 8569  14.828  11.952  10.127
35599SOL     OW 8570   9.813   2.081   2.427
35599SOL    HW1 8571   9.741   2.130   2.387
35599SOL    HW2 8572   9.785   2.068   2.518
35600SOL     OW 8573  14.355  12.825   2.333
35600SOL    HW1 8574  14.292  12.817   2.405
35600SOL    HW2 8575  14.324  12.901   2.283
35601SOL     OW 8576  13.959   8.910   2.362
35601SOL    HW1 8577  13.886   8.871   2.409
35601SOL    HW2 8578  13.933   8.907   2.270
35602SOL     OW 8579   3.806   6.357  14.136
35602SOL    HW1 8580   3.768   6.375  14.222
35602SOL    HW2 8581   3.848   6.439  14.110
35603SOL     OW 8582  14.783  13.333   7.752
35603SOL    HW1 8583  14.828  13.284   7.682
35603SOL    HW2 8584  14.692  13.305   7.745
35604SOL     OW 8585   5.610   3.841   7.524
35604SOL    HW1 8586   5.516   3.851   7.506
35604SOL    HW2 8587   5.630   3.913   7.584
35605SOL     OW 8588   9.066   6.585   3.637
35605SOL    HW1 8589   9.038   6.645   3.568
35605SOL    HW2 8590   9.037   6.499   3.607
35606SOL     OW 8591   1.923   8.751  10.739
35606SOL    HW1 8592   1.842   8.703  10.755
35606SOL    HW2 8593   1.965   8.756  10.824
35607SOL     OW 8594  11.966   4.877  13.720
35607SOL    HW1 8595  12.051   4.878  13.764
35607SOL    HW2 8596  11.930   4.964  13.734
35608SOL     OW 8597   6.048   7.868  14.112
35608SOL    HW1 8598   6.074   7.838  14.199
35608SOL    HW2 8599   5.967   7.820  14.093
35609SOL     OW 8600   5.990   3.095   7.763
35609SOL    HW1 8601   6.040   3.176   7.771
35609SOL    HW2 8602   5.966   3.072   7.852
35610SOL     OW 8603  13.330   2.989   1.746
35610SOL    HW1 8604  13.343   3.042   1.825
35610SOL    HW2 8605  13.324   3.052   1.675
35611SOL     OW 8606   0.073  11.473   0.051
35611SOL    HW1 8607   0.160  11.472   0.091
35611SOL    HW2 8608   0.069  11.556   0.003
35612SOL     OW 8609   8.409  13.807   2.499
35612SOL    HW1 8610   8.348  13.878   2.515
35612SOL    HW2 8611   8.429  13.812   2.406
35613SOL     OW 8612   2.758  11.596  14.402
35613SOL    HW1 8613   2.732  11.622  14.314
35613SOL    HW2 8614   2.814  11.667  14.433
35614SOL     OW 8615  13.163  12.963   7.311
35614SOL    HW1 8616  13.195  12.905   7.380
35614SOL    HW2 8617  13.154  13.048   7.354
35615SOL     OW 8618  14.172  10.241   6.215
35615SOL    HW1 8619  14.132  10.248   6.302
35615SOL    HW2 8620  14.265  10.258   6.230
35616SOL     OW 8621   9.657   8.925   1.517
35616SOL    HW1 8622   9.645   8.844   1.468
35616SOL    HW2 8623   9.719   8.902   1.586
35617SOL     OW 8624   0.924   9.794  13.534
35617SOL    HW1 8625   0.892   9.714  13.492
35617SOL    HW2 8626   1.007   9.768  13.574
35618SOL     OW 8627   7.227   6.776   8.863
35618SOL    HW1 8628   7.318   6.752   8.876
35618SOL    HW2 8629   7.181   6.739   8.939
35619SOL     OW 8630   9.491  12.205   5.896
35619SOL    HW1 8631   9.492  12.184   5.802
35619SOL    HW2 8632   9.418  12.153   5.931
35620SOL     OW 8633  12.400   3.829  14.795
35620SOL    HW1 8634  12.395   3.814   0.008
35620SOL    HW2 8635  12.351   3.756  14.757
35621SOL     OW 8636   6.451   7.890   9.051
35621SOL    HW1 8637   6.464   7.841   9.133
35621SOL    HW2 8638   6.445   7.823   8.984
35622SOL     OW 8639  13.340  13.042   3.228
35622SOL    HW1 8640  13.297  12.989   3.161
35622SOL    HW2 8641  13.276  13.110   3.250
35623SOL     OW 8642   9.654  12.917  11.447
35623SOL    HW1 8643   9.733  12.904  11.500
35623SOL    HW2 8644   9.608  12.989  11.490
35624SOL     OW 8645   5.317   3.534  13.104
35624SOL    HW1 8646   5.377   3.600  13.071
35624SOL    HW2 8647   5.288   3.487  13.025
35625SOL     OW 8648   3.248  14.338  12.929
35625SOL    HW1 8649   3.216  14.279  12.860
35625SOL    HW2 8650   3.209  14.423  12.908
35626SOL     OW 8651   1.754   9.220  12.251
35626SOL    HW1 8652   1.726   9.310  12.269
35626SOL    HW2 8653   1.758   9.179  12.338
35627SOL     OW 8654   0.464   7.248  13.754
35627SOL    HW1 8655   0.486   7.321  13.813
35627SOL    HW2 8656   0.402   7.286  13.692
35628SOL     OW 8657  13.252  12.118   0.280
35628SOL    HW1 8658  13.275  12.146   0.192
35628SOL    HW2 8659  13.335  12.097   0.322
35629SOL     OW 8660  10.783   1.187  10.590
35629SOL    HW1 8661  10.724   1.148  10.525
35629SOL    HW2 8662  10.832   1.112  10.626
35630SOL     OW 8663  12.689  14.810  11.121
35630SOL    HW1 8664  12.678  14.736  11.181
35630SOL    HW2 8665  12.600  14.829  11.090
35631SOL     OW 8666  13.225  10.830   8.774
35631SOL    HW1 8667  13.157  10.790   8.720
35631SOL    HW2 8668  13.223  10.923   8.751
35632SOL     OW 8669   0.417   1.561   9.572
35632SOL    HW1 8670   0.452   1.594   9.489
35632SOL    HW2 8671   0.345   1.504   9.547
35633SOL     OW 8672  10.100   3.612   2.089
35633SOL    HW1 8673  10.121   3.537   2.145
35633SOL    HW2 8674  10.176   3.621   2.032
35634SOL     OW 8675   6.325   9.210   9.175
35634SOL    HW1 8676   6.270   9.167   9.240
35634SOL    HW2 8677   6.412   9.210   9.213
35635SOL     OW 8678   4.726   8.825   2.296
35635SOL    HW1 8679   4.731   8.740   2.253
35635SOL    HW2 8680   4.796   8.823   2.361
35636SOL     OW 8681   6.391   9.813   4.886
35636SOL    HW1 8682   6.311   9.850   4.849
35636SOL    HW2 8683   6.455   9.884   4.884
35637SOL     OW 8684   3.475   3.983   8.744
35637SOL    HW1 8685   3.395   4.032   8.728
35637SOL    HW2 8686   3.456   3.895   8.713
35638SOL     OW 8687   2.995  14.206   0.684
35638SOL    HW1 8688   2.977  14.266   0.756
35638SOL    HW2 8689   2.984  14.259   0.605
35639SOL     OW 8690  14.761   5.280   4.932
35639SOL    HW1 8691  14.814   5.310   4.858
35639SOL    HW2 8692  14.823   5.231   4.986
35640SOL     OW 8693   5.835   1.298   4.533
35640SOL    HW1 8694   5.840   1.278   4.439
35640SOL    HW2 8695   5.833   1.393   4.537
35641SOL     OW 8696   5.261  13.011   9.198
35641SOL    HW1 8697   5.304  12.928   9.219
35641SOL    HW2 8698   5.168  12.994   9.211
35642SOL     OW 8699   8.218   2.654  12.266
35642SOL    HW1 8700   8.173   2.717  12.210
35642SOL    HW2 8701   8.311   2.666  12.247
35643SOL     OW 8702  14.713  11.688   6.459
35643SOL    HW1 8703  14.644  11.748   6.489
35643SOL    HW2 8704  14.750  11.653   6.540
35644SOL     OW 8705  14.351  10.516   0.329
35644SOL    HW1 8706  14.354  10.608   0.300
35644SOL    HW2 8707  14.292  10.517   0.405
35645SOL     OW 8708   6.098  14.729   5.219
35645SOL    HW1 8709   6.175  14.763   5.265
35645SOL    HW2 8710   6.133  14.662   5.160
35646SOL     OW 8711   6.110   6.182  14.253
35646SOL    HW1 8712   6.169   6.257  14.249
35646SOL    HW2 8713   6.163   6.112  14.292
35647SOL     OW 8714  11.276   0.816   3.029
35647SOL    HW1 8715  11.206   0.769   3.074
35647SOL    HW2 8716  11.233   0.891   2.989
35648SOL     OW 8717   4.292   5.402   3.611
35648SOL    HW1 8718   4.279   5.339   3.683
35648SOL    HW2 8719   4.247   5.481   3.642
35649SOL     OW 8720   4.493   4.537   3.992
35649SOL    HW1 8721   4.440   4.466   4.029
35649SOL    HW2 8722   4.435   4.582   3.932
35650SOL     OW 8723   9.807   8.725   2.786
35650SOL    HW1 8724   9.784   8.815   2.809
35650SOL    HW2 8725   9.828   8.683   2.869
35651SOL     OW 8726   9.203   8.039   2.074
35651SOL    HW1 8727   9.263   8.017   2.002
35651SOL    HW2 8728   9.155   8.116   2.042
35652SOL     OW 8729   8.020   9.567  13.021
35652SOL    HW1 8730   7.995   9.478  13.000
35652SOL    HW2 8731   8.032   9.610  12.936
35653SOL     OW 8732   3.088   5.893   7.725
35653SOL    HW1 8733   3.082   5.911   7.819
35653SOL    HW2 8734   3.134   5.968   7.689
35654SOL     OW 8735   6.756   6.008   8.319
35654SOL    HW1 8736   6.738   6.068   8.391
35654SOL    HW2 8737   6.688   5.941   8.326
35655SOL     OW 8738  10.892   4.161   0.693
35655SOL    HW1 8739  10.967   4.221   0.692
35655SOL    HW2 8740  10.841   4.187   0.770
35656SOL     OW 8741   0.364  11.640   4.727
35656SOL    HW1 8742   0.415  11.684   4.659
35656SOL    HW2 8743   0.314  11.710   4.769
35657SOL     OW 8744  12.303   5.759  12.346
35657SOL    HW1 8745  12.234   5.731  12.407
35657SOL    HW2 8746  12.260   5.763  12.261
35658SOL     OW 8747  12.674   9.017   1.728
35658SOL    HW1 8748  12.589   9.036   1.768
35658SOL    HW2 8749  12.737   9.069   1.779
35659SOL     OW 8750   1.487   8.324   9.284
35659SOL    HW1 8751   1.515   8.366   9.203
35659SOL    HW2 8752   1.394   8.308   9.272
35660SOL     OW 8753   7.151   3.541   7.148
35660SOL    HW1 8754   7.176   3.516   7.236
35660SOL    HW2 8755   7.233   3.551   7.101
35661SOL     OW 8756   7.981   0.910   3.962
35661SOL    HW1 8757   8.063   0.928   3.916
35661SOL    HW2 8758   7.915   0.907   3.893
35662SOL     OW 8759   3.897   2.246   8.606
35662SOL    HW1 8760   3.871   2.181   8.540
35662SOL    HW2 8761   3.937   2.317   8.556
35663SOL     OW 8762   3.481   8.412   2.233
35663SOL    HW1 8763   3.482   8.318   2.250
35663SOL    HW2 8764   3.563   8.430   2.189
35664SOL     OW 8765  12.970  10.891   8.293
35664SOL    HW1 8766  13.061  10.863   8.289
35664SOL    HW2 8767  12.954  10.932   8.207
35665SOL     OW 8768   2.124  10.626  14.829
35665SOL    HW1 8769   2.031  10.644  14.838
35665SOL    HW2 8770   2.167  10.693   0.002
35666SOL     OW 8771  12.222   6.173   9.057
35666SOL    HW1 8772  12.277   6.208   8.987
35666SOL    HW2 8773  12.202   6.083   9.029
35667SOL     OW 8774  13.216  10.828   3.823
35667SOL    HW1 8775  13.133  10.853   3.864
35667SOL    HW2 8776  13.279  10.825   3.895
35668SOL     OW 8777   2.459  12.048  13.806
35668SOL    HW1 8778   2.544  12.016  13.837
35668SOL    HW2 8779   2.480  12.119  13.745
35669SOL     OW 8780  10.487   6.077  13.812
35669SOL    HW1 8781  10.573   6.049  13.843
35669SOL    HW2 8782  10.448   6.123  13.886
35670SOL     OW 8783   8.948   2.966  12.645
35670SOL    HW1 8784   9.024   2.967  12.703
35670SOL    HW2 8785   8.934   3.058  12.622
35671SOL     OW 8786  12.274   2.407   6.059
35671SOL    HW1 8787  12.193   2.450   6.087
35671SOL    HW2 8788  12.315   2.377   6.140
35672SOL     OW 8789   7.767   1.300   1.796
35672SOL    HW1 8790   7.683   1.332   1.829
35672SOL    HW2 8791   7.765   1.206   1.814
35673SOL     OW 8792   8.795   3.456  10.189
35673SOL    HW1 8793   8.782   3.383  10.128
35673SOL    HW2 8794   8.725   3.447  10.253
35674SOL     OW 8795   7.171  14.195   2.373
35674SOL    HW1 8796   7.126  14.195   2.288
35674SOL    HW2 8797   7.188  14.102   2.390
35675SOL     OW 8798   6.324   5.848   2.317
35675SOL    HW1 8799   6.255   5.782   2.318
35675SOL    HW2 8800   6.341   5.865   2.410
35676SOL     OW 8801   1.150   6.788  11.864
35676SOL    HW1 8802   1.147   6.881  11.885
35676SOL    HW2 8803   1.070   6.773  11.814
35677SOL     OW 8804   9.442   8.252  13.047
35677SOL    HW1 8805   9.466   8.163  13.024
35677SOL    HW2 8806   9.349   8.259  13.024
35678SOL     OW 8807  10.775   7.585  11.775
35678SOL    HW1 8808  10.746   7.501  11.738
35678SOL    HW2 8809  10.863   7.567  11.809
35679SOL     OW 8810   2.153   2.490   1.897
35679SOL    HW1 8811   2.183   2.419   1.839
35679SOL    HW2 8812   2.061   2.471   1.911
35680SOL     OW 8813   3.458  14.672   4.940
35680SOL    HW1 8814   3.454  14.577   4.948
35680SOL    HW2 8815   3.445  14.704   5.030
35681SOL     OW 8816  12.378   7.510   0.365
35681SOL    HW1 8817  12.316   7.576   0.397
35681SOL    HW2 8818  12.361   7.504   0.271
35682SOL     OW 8819   9.354   0.823   2.665
35682SOL    HW1 8820   9.409   0.778   2.601
35682SOL    HW2 8821   9.287   0.867   2.611
35683SOL     OW 8822   9.197   1.875   1.192
35683SOL    HW1 8823   9.268   1.840   1.138
35683SOL    HW2 8824   9.233   1.957   1.226
35684SOL     OW 8825  10.355   5.398  13.663
35684SOL    HW1 8826  10.393   5.412  13.576
35684SOL    HW2 8827  10.313   5.481  13.684
35685SOL     OW 8828   1.483   9.782   6.021
35685SOL    HW1 8829   1.411   9.774   5.958
35685SOL    HW2 8830   1.560   9.756   5.971
35686SOL     OW 8831  13.003   6.773   2.937
35686SOL    HW1 8832  12.988   6.681   2.962
35686SOL    HW2 8833  12.976   6.777   2.846
35687SOL     OW 8834   3.150   8.605   9.079
35687SOL    HW1 8835   3.195   8.650   9.007
35687SOL    HW2 8836   3.171   8.513   9.066
35688SOL     OW 8837  13.208  13.125   0.614
35688SOL    HW1 8838  13.294  13.090   0.640
35688SOL    HW2 8839  13.146  13.057   0.640
35689SOL     OW 8840   0.536   9.611   9.999
35689SOL    HW1 8841   0.528   9.705  10.013
35689SOL    HW2 8842   0.616   9.600   9.947
35690SOL     OW 8843   5.087   5.660  10.939
35690SOL    HW1 8844   5.011   5.609  10.909
35690SOL    HW2 8845   5.104   5.721  10.868
35691SOL     OW 8846   5.649   5.376   6.209
35691SOL    HW1 8847   5.578   5.415   6.260
35691SOL    HW2 8848   5.707   5.450   6.190
35692SOL     OW 8849   7.458  14.219   5.404
35692SOL    HW1 8850   7.382  14.182   5.450
35692SOL    HW2 8851   7.421  14.256   5.324
35693SOL     OW 8852   8.199   7.650   1.124
35693SOL    HW1 8853   8.200   7.697   1.041
35693SOL    HW2 8854   8.225   7.561   1.101
35694SOL     OW 8855   9.788   2.010   2.060
35694SOL    HW1 8856   9.786   1.946   2.131
35694SOL    HW2 8857   9.718   2.071   2.082
35695SOL     OW 8858   5.842   6.950   2.727
35695SOL    HW1 8859   5.877   6.982   2.810
35695SOL    HW2 8860   5.819   7.029   2.678
35696SOL     OW 8861   5.528   8.471   5.936
35696SOL    HW1 8862   5.582   8.424   5.872
35696SOL    HW2 8863   5.588   8.492   6.008
35697SOL     OW 8864  10.436   3.378  12.905
35697SOL    HW1 8865  10.494   3.302  12.911
35697SOL    HW2 8866  10.493   3.452  12.926
35698SOL     OW 8867   7.461   7.505   6.396
35698SOL    HW1 8868   7.485   7.510   6.489
35698SOL    HW2 8869   7.545   7.495   6.350
35699SOL     OW 8870   4.474   4.053  12.922
35699SOL    HW1 8871   4.468   3.957  12.916
35699SOL    HW2 8872   4.568   4.069  12.935
35700SOL     OW 8873   8.067   3.517   6.002
35700SOL    HW1 8874   8.118   3.575   5.946
35700SOL    HW2 8875   8.128   3.490   6.071
35701SOL     OW 8876  12.564   0.299   6.803
35701SOL    HW1 8877  12.629   0.322   6.736
35701SOL    HW2 8878  12.595   0.344   6.882
35702SOL     OW 8879  14.484   8.701   3.875
35702SOL    HW1 8880  14.488   8.613   3.838
35702SOL    HW2 8881  14.441   8.690   3.960
35703SOL     OW 8882   9.240   8.819  10.665
35703SOL    HW1 8883   9.228   8.737  10.618
35703SOL    HW2 8884   9.217   8.887  10.601
35704SOL     OW 8885   6.172  11.193   0.570
35704SOL    HW1 8886   6.227  11.218   0.495
35704SOL    HW2 8887   6.215  11.234   0.646
35705SOL     OW 8888   3.355   2.989  11.256
35705SOL    HW1 8889   3.369   2.971  11.163
35705SOL    HW2 8890   3.264   2.963  11.271
35706SOL     OW 8891   4.501   1.350  10.564
35706SOL    HW1 8892   4.535   1.376  10.479
35706SOL    HW2 8893   4.520   1.256  10.569
35707SOL     OW 8894   0.347   4.683   1.811
35707SOL    HW1 8895   0.405   4.740   1.761
35707SOL    HW2 8896   0.320   4.737   1.886
35708SOL     OW 8897   4.550   8.699   7.998
35708SOL    HW1 8898   4.599   8.706   7.916
35708SOL    HW2 8899   4.530   8.790   8.022
35709SOL     OW 8900   7.189   6.327   5.617
35709SOL    HW1 8901   7.266   6.352   5.669
35709SOL    HW2 8902   7.143   6.409   5.602
35710SOL     OW 8903   8.999   2.230   1.321
35710SOL    HW1 8904   9.042   2.182   1.392
35710SOL    HW2 8905   8.915   2.186   1.310
35711SOL     OW 8906   3.762   8.841   4.089
35711SOL    HW1 8907   3.813   8.830   4.169
35711SOL    HW2 8908   3.824   8.826   4.018
35712SOL     OW 8909   5.065  10.706  12.657
35712SOL    HW1 8910   4.985  10.653  12.654
35712SOL    HW2 8911   5.136  10.642  12.651
35713SOL     OW 8912   0.235   2.679   3.473
35713SOL    HW1 8913   0.249   2.592   3.436
35713SOL    HW2 8914   0.265   2.739   3.406
35714SOL     OW 8915  12.328   4.937  13.233
35714SOL    HW1 8916  12.250   4.902  13.274
35714SOL    HW2 8917  12.398   4.920  13.297
35715SOL     OW 8918   0.773   4.738  14.329
35715SOL    HW1 8919   0.686   4.746  14.366
35715SOL    HW2 8920   0.808   4.827  14.329
35716SOL     OW 8921  12.144   9.401   7.000
35716SOL    HW1 8922  12.050   9.423   6.999
35716SOL    HW2 8923  12.152   9.328   6.938
35717SOL     OW 8924  13.415   8.958  13.402
35717SOL    HW1 8925  13.491   8.936  13.348
35717SOL    HW2 8926  13.344   8.974  13.340
35718SOL     OW 8927  11.985   8.493   0.818
35718SOL    HW1 8928  11.909   8.457   0.773
35718SOL    HW2 8929  12.041   8.524   0.746
35719SOL     OW 8930  11.785   4.604   8.543
35719SOL    HW1 8931  11.880   4.607   8.552
35719SOL    HW2 8932  11.758   4.526   8.592
35720SOL     OW 8933   5.638  12.326   2.685
35720SOL    HW1 8934   5.627  12.253   2.747
35720SOL    HW2 8935   5.660  12.401   2.740
35721SOL     OW 8936   2.225  11.488   4.309
35721SOL    HW1 8937   2.141  11.498   4.263
35721SOL    HW2 8938   2.263  11.575   4.307
35722SOL     OW 8939   7.386  12.235  10.587
35722SOL    HW1 8940   7.456  12.172  10.573
35722SOL    HW2 8941   7.429  12.310  10.628
35723SOL     OW 8942   7.732  14.218  13.186
35723SOL    HW1 8943   7.828  14.220  13.179
35723SOL    HW2 8944   7.706  14.310  13.186
35724SOL     OW 8945   0.217  11.049  12.510
35724SOL    HW1 8946   0.173  11.116  12.458
35724SOL    HW2 8947   0.201  10.967  12.462
35725SOL     OW 8948   0.903   2.444   7.674
35725SOL    HW1 8949   0.879   2.447   7.581
35725SOL    HW2 8950   0.931   2.353   7.688
35726SOL     OW 8951  14.787  10.229   1.649
35726SOL    HW1 8952  14.707  10.234   1.701
35726SOL    HW2 8953  14.853  10.195   1.709
35727SOL     OW 8954   3.101   7.610   2.734
35727SOL    HW1 8955   3.071   7.698   2.760
35727SOL    HW2 8956   3.194   7.610   2.756
35728SOL     OW 8957  10.007   7.933   1.866
35728SOL    HW1 8958   9.955   7.890   1.798
35728SOL    HW2 8959   9.955   7.922   1.946
35729SOL     OW 8960   3.491   5.171   8.743
35729SOL    HW1 8961   3.577   5.147   8.708
35729SOL    HW2 8962   3.472   5.105   8.809
35730SOL     OW 8963   0.080  12.865   6.882
35730SOL    HW1 8964   0.123  12.789   6.920
35730SOL    HW2 8965   0.005  12.829   6.834
35731SOL     OW 8966   8.114   4.510  13.580
35731SOL    HW1 8967   8.076   4.597  13.589
35731SOL    HW2 8968   8.056   4.453  13.631
35732SOL     OW 8969   3.969   6.502   5.100
35732SOL    HW1 8970   3.907   6.519   5.171
35732SOL    HW2 8971   4.026   6.433   5.135
35733SOL     OW 8972  10.116   0.349   9.333
35733SOL    HW1 8973  10.197   0.324   9.376
35733SOL    HW2 8974  10.091   0.432   9.374
35734SOL     OW 8975   5.738   4.081  14.667
35734SOL    HW1 8976   5.687   4.059  14.745
35734SOL    HW2 8977   5.695   4.159  14.632
35735SOL     OW 8978   9.069  11.885   3.181
35735SOL    HW1 8979   9.035  11.811   3.233
35735SOL    HW2 8980   9.047  11.862   3.090
35736SOL     OW 8981   6.745   5.401   9.521
35736SOL    HW1 8982   6.759   5.494   9.539
35736SOL    HW2 8983   6.778   5.388   9.432
35737SOL     OW 8984   9.301   5.668   9.848
35737SOL    HW1 8985   9.315   5.574   9.839
35737SOL    HW2 8986   9.356   5.694   9.921
35738SOL     OW 8987   3.118   4.954   4.385
35738SOL    HW1 8988   3.155   4.956   4.473
35738SOL    HW2 8989   3.193   4.939   4.327
35739SOL     OW 8990   0.059  12.904   0.411
35739SOL    HW1 8991   0.137  12.907   0.466
35739SOL    HW2 8992   0.092  12.902   0.322
35740SOL     OW 8993  11.762   6.070  11.895
35740SOL    HW1 8994  11.688   6.121  11.864
35740SOL    HW2 8995  11.759   5.989  11.844
35741SOL     OW 8996   6.191   1.693   3.925
35741SOL    HW1 8997   6.250   1.768   3.934
35741SOL    HW2 8998   6.249   1.617   3.925
35742SOL     OW 8999  12.072   8.151   8.677
35742SOL    HW1 9000  12.042   8.069   8.639
35742SOL    HW2 9001  12.125   8.124   8.752
35743SOL     OW 9002   6.341  10.061   5.609
35743SOL    HW1 9003   6.416  10.086   5.663
35743SOL    HW2 9004   6.265  10.091   5.658
35744SOL     OW 9005   6.139  14.547   0.377
35744SOL    HW1 9006   6.123  14.616   0.313
35744SOL    HW2 9007   6.150  14.467   0.325
35745SOL     OW 9008  13.215   3.871   3.737
35745SOL    HW1 9009  13.299   3.873   3.783
35745SOL    HW2 9010  13.235   3.901   3.648
35746SOL     OW 9011  10.739  13.393   7.199
35746SOL    HW1 9012  10.765  13.308   7.235
35746SOL    HW2 9013  10.785  13.399   7.116
35747SOL     OW 9014   5.269  13.013   4.208
35747SOL    HW1 9015   5.212  13.071   4.158
35747SOL    HW2 9016   5.324  13.072   4.260
35748SOL     OW 9017  11.524  10.342  13.847
35748SOL    HW1 9018  11.573  10.297  13.778
35748SOL    HW2 9019  11.439  10.299  13.847
35749SOL     OW 9020   5.381   6.532   2.060
35749SOL    HW1 9021   5.401   6.620   2.091
35749SOL    HW2 9022   5.312   6.501   2.119
35750SOL     OW 9023   0.427   2.696   8.727
35750SOL    HW1 9024   0.337   2.707   8.696
35750SOL    HW2 9025   0.430   2.607   8.762
35751SOL     OW 9026   2.890   7.065  10.689
35751SOL    HW1 9027   2.827   7.031  10.753
35751SOL    HW2 9028   2.971   7.017  10.707
35752SOL     OW 9029   4.652   0.480  12.726
35752SOL    HW1 9030   4.677   0.488  12.634
35752SOL    HW2 9031   4.690   0.558  12.767
35753SOL     OW 9032   0.113   6.600  11.086
35753SOL    HW1 9033   0.044   6.534  11.077
35753SOL    HW2 9034   0.146   6.589  11.175
35754SOL     OW 9035   8.292   3.818   4.912
35754SOL    HW1 9036   8.275   3.739   4.862
35754SOL    HW2 9037   8.300   3.789   5.003
35755SOL     OW 9038  12.567   0.538   1.627
35755SOL    HW1 9039  12.524   0.495   1.701
35755SOL    HW2 9040  12.514   0.617   1.612
35756SOL     OW 9041   2.466  14.654  12.951
35756SOL    HW1 9042   2.499  14.575  12.909
35756SOL    HW2 9043   2.514  14.726  12.908
35757SOL     OW 9044   7.191   8.749   2.413
35757SOL    HW1 9045   7.211   8.657   2.429
35757SOL    HW2 9046   7.269   8.796   2.442
35758SOL     OW 9047  12.390   7.938   8.186
35758SOL    HW1 9048  12.445   7.993   8.242
35758SOL    HW2 9049  12.368   7.995   8.112
35759SOL     OW 9050   5.212   5.173   8.454
35759SOL    HW1 9051   5.134   5.135   8.494
35759SOL    HW2 9052   5.257   5.098   8.414
35760SOL     OW 9053  13.061   8.582  10.252
35760SOL    HW1 9054  13.078   8.651  10.187
35760SOL    HW2 9055  13.148   8.557  10.282
35761SOL     OW 9056   3.699  11.996   3.628
35761SOL    HW1 9057   3.790  11.979   3.655
35761SOL    HW2 9058   3.652  12.006   3.710
35762SOL     OW 9059   6.731   7.380  14.273
35762SOL    HW1 9060   6.735   7.367  14.178
35762SOL    HW2 9061   6.772   7.302  14.310
35763SOL     OW 9062   5.105   6.467   1.148
35763SOL    HW1 9063   5.157   6.397   1.109
35763SOL    HW2 9064   5.137   6.547   1.106
35764SOL     OW 9065   6.183   0.884   5.376
35764SOL    HW1 9066   6.093   0.870   5.345
35764SOL    HW2 9067   6.232   0.809   5.344
35765SOL     OW 9068   8.830   4.809  12.468
35765SOL    HW1 9069   8.781   4.890  12.480
35765SOL    HW2 9070   8.874   4.820  12.384
35766SOL     OW 9071  11.154  14.115   6.538
35766SOL    HW1 9072  11.071  14.075   6.512
35766SOL    HW2 9073  11.221  14.053   6.509
35767SOL     OW 9074  14.203  11.993  11.369
35767SOL    HW1 9075  14.241  11.911  11.400
35767SOL    HW2 9076  14.135  12.014  11.433
35768SOL     OW 9077   6.795  14.269  14.387
35768SOL    HW1 9078   6.886  14.290  14.403
35768SOL    HW2 9079   6.763  14.232  14.469
35769SOL     OW 9080  11.261  12.043  10.783
35769SOL    HW1 9081  11.204  11.976  10.821
35769SOL    HW2 9082  11.251  12.033  10.688
35770SOL     OW 9083  14.711  12.611   9.505
35770SOL    HW1 9084  14.772  12.579   9.439
35770SOL    HW2 9085  14.760  12.609   9.587
35771SOL     OW 9086   2.494   9.481  10.470
35771SOL    HW1 9087   2.503   9.500  10.376
35771SOL    HW2 9088   2.490   9.386  10.475
35772SOL     OW 9089   2.958   4.261   1.956
35772SOL    HW1 9090   3.001   4.185   1.917
35772SOL    HW2 9091   3.023   4.298   2.016
35773SOL     OW 9092  12.929   9.518   4.265
35773SOL    HW1 9093  12.912   9.490   4.355
35773SOL    HW2 9094  13.025   9.524   4.260
35774SOL     OW 9095  13.372   2.776  13.663
35774SOL    HW1 9096  13.279   2.778  13.640
35774SOL    HW2 9097  13.403   2.864  13.643
35775SOL     OW 9098   0.864   7.929   1.083
35775SOL    HW1 9099   0.778   7.950   1.120
35775SOL    HW2 9100   0.889   7.846   1.124
35776SOL     OW 9101  13.032   7.620  11.896
35776SOL    HW1 9102  12.985   7.683  11.950
35776SOL    HW2 9103  13.084   7.568  11.958
35777SOL     OW 9104  12.786   5.738   7.023
35777SOL    HW1 9105  12.841   5.666   7.055
35777SOL    HW2 9106  12.814   5.753   6.933
35778SOL     OW 9107   7.041  12.689   0.234
35778SOL    HW1 9108   7.046  12.700   0.139
35778SOL    HW2 9109   6.948  12.698   0.254
35779SOL     OW 9110  14.085   0.515   7.728
35779SOL    HW1 9111  14.158   0.452   7.722
35779SOL    HW2 9112  14.102   0.563   7.810
35780SOL     OW 9113   8.984   2.255   4.338
35780SOL    HW1 9114   8.906   2.305   4.315
35780SOL    HW2 9115   9.043   2.267   4.263
35781SOL     OW 9116   5.278   2.432  12.544
35781SOL    HW1 9117   5.359   2.481  12.559
35781SOL    HW2 9118   5.217   2.498  12.512
35782SOL     OW 9119   7.879  14.075  14.157
35782SOL    HW1 9120   7.973  14.095  14.157
35782SOL    HW2 9121   7.871  13.998  14.102
35783SOL     OW 9122   7.671   0.009  11.448
35783SOL    HW1 9123   7.757   0.051  11.455
35783SOL    HW2 9124   7.678  14.834  11.371
35784SOL     OW 9125   7.765   9.135   0.403
35784SOL    HW1 9126   7.772   9.091   0.318
35784SOL    HW2 9127   7.792   9.225   0.386
35785SOL     OW 9128   9.428  10.369  14.166
35785SOL    HW1 9129   9.475  10.314  14.229
35785SOL    HW2 9130   9.437  10.458  14.200
35786SOL     OW 9131   6.595  14.793   1.171
35786SOL    HW1 9132   6.561  14.704   1.180
35786SOL    HW2 9133   6.621  14.800   1.079
35787SOL     OW 9134  12.458  10.290   4.642
35787SOL    HW1 9135  12.403  10.248   4.576
35787SOL    HW2 9136  12.432  10.250   4.725
35788SOL     OW 9137  12.474  13.307   7.304
35788SOL    HW1 9138  12.442  13.302   7.214
35788SOL    HW2 9139  12.465  13.219   7.338
35789SOL     OW 9140  11.725   3.848   3.857
35789SOL    HW1 9141  11.708   3.941   3.842
35789SOL    HW2 9142  11.642   3.813   3.887
35790SOL     OW 9143   8.504   0.384   1.162
35790SOL    HW1 9144   8.495   0.366   1.068
35790SOL    HW2 9145   8.532   0.475   1.167
35791SOL     OW 9146   5.565  13.748   7.216
35791SOL    HW1 9147   5.661  13.757   7.217
35791SOL    HW2 9148   5.532  13.837   7.222
35792SOL     OW 9149   1.347   9.075   0.151
35792SOL    HW1 9150   1.324   8.982   0.145
35792SOL    HW2 9151   1.436   9.075   0.186
35793SOL     OW 9152   1.444  10.485  12.688
35793SOL    HW1 9153   1.417  10.420  12.623
35793SOL    HW2 9154   1.536  10.502  12.668
35794SOL     OW 9155   7.338   6.170   4.688
35794SOL    HW1 9156   7.308   6.260   4.690
35794SOL    HW2 9157   7.398   6.162   4.762
35795SOL     OW 9158  10.287   4.737   4.045
35795SOL    HW1 9159  10.225   4.664   4.052
35795SOL    HW2 9160  10.244   4.810   4.088
35796SOL     OW 9161   0.454   8.880   5.454
35796SOL    HW1 9162   0.363   8.888   5.425
35796SOL    HW2 9163   0.479   8.970   5.477
35797SOL     OW 9164   0.412   9.216   8.221
35797SOL    HW1 9165   0.374   9.284   8.275
35797SOL    HW2 9166   0.428   9.143   8.281
35798SOL     OW 9167  14.875   3.730   4.798
35798SOL    HW1 9168   0.038   3.646   4.787
35798SOL    HW2 9169  14.833   3.725   4.883
35799SOL     OW 9170   5.440   0.471   0.636
35799SOL    HW1 9171   5.389   0.460   0.556
35799SOL    HW2 9172   5.516   0.524   0.609
35800SOL     OW 9173   1.321  12.124   1.246
35800SOL    HW1 9174   1.336  12.192   1.312
35800SOL    HW2 9175   1.409  12.093   1.224
35801SOL     OW 9176  13.246   2.537   6.902
35801SOL    HW1 9177  13.318   2.599   6.908
35801SOL    HW2 9178  13.206   2.556   6.817
35802SOL     OW 9179  11.352   7.817   8.647
35802SOL    HW1 9180  11.350   7.884   8.579
35802SOL    HW2 9181  11.341   7.734   8.600
35803SOL     OW 9182  14.745   9.446  14.120
35803SOL    HW1 9183  14.674   9.391  14.088
35803SOL    HW2 9184  14.810   9.385  14.154
35804SOL     OW 9185   0.281   5.384   4.524
35804SOL    HW1 9186   0.371   5.398   4.496
35804SOL    HW2 9187   0.288   5.342   4.609
35805SOL     OW 9188   2.047  10.881   1.144
35805SOL    HW1 9189   2.080  10.844   1.061
35805SOL    HW2 9190   1.982  10.818   1.174
35806SOL     OW 9191   2.220  11.245   4.023
35806SOL    HW1 9192   2.220  11.277   4.113
35806SOL    HW2 9193   2.128  11.240   3.999
35807SOL     OW 9194   6.754   6.012   1.844
35807SOL    HW1 9195   6.846   5.993   1.827
35807SOL    HW2 9196   6.714   6.018   1.756
35808SOL     OW 9197  14.559   4.929   8.479
35808SOL    HW1 9198  14.589   5.017   8.504
35808SOL    HW2 9199  14.639   4.884   8.451
35809SOL     OW 9200   3.619  11.421   5.012
35809SOL    HW1 9201   3.588  11.420   5.103
35809SOL    HW2 9202   3.699  11.473   5.015
35810SOL     OW 9203   6.336   3.562  10.623
35810SOL    HW1 9204   6.407   3.500  10.608
35810SOL    HW2 9205   6.362   3.609  10.702
35811SOL     OW 9206   0.932  12.247   3.644
35811SOL    HW1 9207   0.987  12.266   3.720
35811SOL    HW2 9208   0.885  12.329   3.628
35812SOL     OW 9209   2.381   5.532  10.795
35812SOL    HW1 9210   2.467   5.525  10.836
35812SOL    HW2 9211   2.322   5.551  10.868
35813SOL     OW 9212   2.594  10.060   1.164
35813SOL    HW1 9213   2.638  10.134   1.123
35813SOL    HW2 9214   2.542  10.021   1.093
35814SOL     OW 9215   3.790   7.480   7.694
35814SOL    HW1 9216   3.864   7.474   7.754
35814SOL    HW2 9217   3.723   7.425   7.735
35815SOL     OW 9218   5.174   3.504  11.629
35815SOL    HW1 9219   5.269   3.514  11.637
35815SOL    HW2 9220   5.161   3.409  11.631
35816SOL     OW 9221   1.107   6.978   5.852
35816SOL    HW1 9222   1.032   7.015   5.804
35816SOL    HW2 9223   1.109   7.026   5.934
35817SOL     OW 9224  14.030  14.783   6.396
35817SOL    HW1 9225  13.994  14.848   6.337
35817SOL    HW2 9226  14.087  14.832   6.455
35818SOL     OW 9227   6.640  10.548   9.071
35818SOL    HW1 9228   6.608  10.530   9.160
35818SOL    HW2 9229   6.618  10.640   9.056
35819SOL     OW 9230   2.404   8.751   9.697
35819SOL    HW1 9231   2.482   8.802   9.719
35819SOL    HW2 9232   2.438   8.667   9.667
35820SOL     OW 9233   5.419  12.313   9.619
35820SOL    HW1 9234   5.513  12.301   9.634
35820SOL    HW2 9235   5.413  12.388   9.560
35821SOL     OW 9236   9.215  13.646   7.430
35821SOL    HW1 9237   9.176  13.571   7.385
35821SOL    HW2 9238   9.148  13.714   7.428
35822SOL     OW 9239   9.107   0.150  12.105
35822SOL    HW1 9240   9.070   0.211  12.169
35822SOL    HW2 9241   9.107   0.066  12.149
35823SOL     OW 9242  12.970   7.850   1.453
35823SOL    HW1 9243  13.001   7.770   1.495
35823SOL    HW2 9244  12.887   7.825   1.413
35824SOL     OW 9245  10.043   9.681   3.033
35824SOL    HW1 9246  10.075   9.661   2.945
35824SOL    HW2 9247  10.073   9.607   3.087
35825SOL     OW 9248   6.144  10.989   7.939
35825SOL    HW1 9249   6.208  11.051   7.974
35825SOL    HW2 9250   6.064  11.040   7.927
35826SOL     OW 9251   0.069   9.659  10.931
35826SOL    HW1 9252   0.159   9.648  10.962
35826SOL    HW2 9253   0.019   9.680  11.009
35827SOL     OW 9254   6.379  11.793  14.078
35827SOL    HW1 9255   6.383  11.711  14.127
35827SOL    HW2 9256   6.470  11.820  14.069
35828SOL     OW 9257  14.878  13.130  10.877
35828SOL    HW1 9258   0.028  13.041  10.891
35828SOL    HW2 9259   0.063  13.170  10.820
35829SOL     OW 9260   1.760   7.742   1.979
35829SOL    HW1 9261   1.692   7.712   1.919
35829SOL    HW2 9262   1.818   7.795   1.925
35830SOL     OW 9263   7.123  10.562   3.637
35830SOL    HW1 9264   7.034  10.571   3.602
35830SOL    HW2 9265   7.179  10.603   3.571
35831SOL     OW 9266  12.666  12.148   4.113
35831SOL    HW1 9267  12.647  12.058   4.087
35831SOL    HW2 9268  12.637  12.153   4.204
35832SOL     OW 9269  12.553   6.463   6.041
35832SOL    HW1 9270  12.561   6.368   6.054
35832SOL    HW2 9271  12.509   6.493   6.120
35833SOL     OW 9272   7.469  10.818  12.021
35833SOL    HW1 9273   7.509  10.887  12.073
35833SOL    HW2 9274   7.399  10.862  11.973
35834SOL     OW 9275   6.786   7.748   3.065
35834SOL    HW1 9276   6.711   7.801   3.038
35834SOL    HW2 9277   6.777   7.667   3.014
35835SOL     OW 9278  13.600  14.222   9.941
35835SOL    HW1 9279  13.585  14.127   9.943
35835SOL    HW2 9280  13.518  14.258   9.908
35836SOL     OW 9281   8.092   2.220   5.786
35836SOL    HW1 9282   8.070   2.129   5.762
35836SOL    HW2 9283   8.007   2.264   5.793
35837SOL     OW 9284   8.457   0.873   9.379
35837SOL    HW1 9285   8.415   0.955   9.406
35837SOL    HW2 9286   8.481   0.829   9.461
35838SOL     OW 9287  13.793  13.841   4.890
35838SOL    HW1 9288  13.773  13.934   4.905
35838SOL    HW2 9289  13.840  13.814   4.968
35839SOL     OW 9290   4.710  10.511   6.399
35839SOL    HW1 9291   4.647  10.519   6.471
35839SOL    HW2 9292   4.712  10.417   6.379
35840SOL     OW 9293   4.604  13.779   0.384
35840SOL    HW1 9294   4.629  13.798   0.474
35840SOL    HW2 9295   4.527  13.723   0.390
35841SOL     OW 9296   2.961  10.504  10.084
35841SOL    HW1 9297   3.053  10.498  10.107
35841SOL    HW2 9298   2.960  10.527   9.991
35842SOL     OW 9299   6.583   4.666   8.682
35842SOL    HW1 9300   6.584   4.591   8.623
35842SOL    HW2 9301   6.491   4.676   8.706
35843SOL     OW 9302   8.984  13.524  11.830
35843SOL    HW1 9303   8.998  13.616  11.852
35843SOL    HW2 9304   9.047  13.477  11.884
35844SOL     OW 9305  14.134   2.291   3.319
35844SOL    HW1 9306  14.088   2.213   3.288
35844SOL    HW2 9307  14.215   2.257   3.358
35845SOL     OW 9308   6.102   1.243  10.356
35845SOL    HW1 9309   6.007   1.258  10.359
35845SOL    HW2 9310   6.125   1.255  10.264
35846SOL     OW 9311   7.230  13.494   5.404
35846SOL    HW1 9312   7.172  13.482   5.328
35846SOL    HW2 9313   7.223  13.587   5.425
35847SOL     OW 9314  11.990   4.552   2.376
35847SOL    HW1 9315  12.030   4.601   2.304
35847SOL    HW2 9316  11.984   4.615   2.448
35848SOL     OW 9317   3.784   6.339  12.446
35848SOL    HW1 9318   3.861   6.324  12.391
35848SOL    HW2 9319   3.809   6.304  12.532
35849SOL     OW 9320   1.795   8.068  12.877
35849SOL    HW1 9321   1.773   8.081  12.969
35849SOL    HW2 9322   1.866   8.003  12.878
35850SOL     OW 9323  11.537  12.711   4.205
35850SOL    HW1 9324  11.442  12.707   4.195
35850SOL    HW2 9325  11.551  12.724   4.299
35851SOL     OW 9326   5.090   7.159  10.097
35851SOL    HW1 9327   5.081   7.066  10.078
35851SOL    HW2 9328   5.183   7.178  10.083
35852SOL     OW 9329   5.665   4.938   4.321
35852SOL    HW1 9330   5.701   5.026   4.312
35852SOL    HW2 9331   5.683   4.896   4.236
35853SOL     OW 9332  11.532  10.761   6.492
35853SOL    HW1 9333  11.548  10.760   6.397
35853SOL    HW2 9334  11.565  10.677   6.523
35854SOL     OW 9335   3.763   3.142   0.136
35854SOL    HW1 9336   3.836   3.132   0.074
35854SOL    HW2 9337   3.757   3.057   0.179
35855SOL     OW 9338  12.856  12.109   9.324
35855SOL    HW1 9339  12.908  12.144   9.252
35855SOL    HW2 9340  12.920  12.084   9.390
35856SOL     OW 9341   1.321   9.540  14.766
35856SOL    HW1 9342   1.230   9.565  14.782
35856SOL    HW2 9343   1.368   9.566  14.846
35857SOL     OW 9344  14.277  10.010   3.610
35857SOL    HW1 9345  14.195  10.048   3.581
35857SOL    HW2 9346  14.252   9.950   3.681
35858SOL     OW 9347   6.824   1.743   7.246
35858SOL    HW1 9348   6.865   1.755   7.331
35858SOL    HW2 9349   6.896   1.729   7.185
35859SOL     OW 9350   9.176   4.770   9.315
35859SOL    HW1 9351   9.105   4.822   9.279
35859SOL    HW2 9352   9.253   4.796   9.264
35860SOL     OW 9353   2.314   4.258   4.575
35860SOL    HW1 9354   2.232   4.305   4.590
35860SOL    HW2 9355   2.295   4.167   4.599
35861SOL     OW 9356  11.113  14.733   6.442
35861SOL    HW1 9357  11.142  14.726   6.351
35861SOL    HW2 9358  11.193  14.742   6.492
35862SOL     OW 9359   9.830   0.739   5.735
35862SOL    HW1 9360   9.813   0.671   5.800
35862SOL    HW2 9361   9.925   0.744   5.729
35863SOL     OW 9362   0.078   6.484   6.338
35863SOL    HW1 9363   0.109   6.411   6.392
35863SOL    HW2 9364   0.080   6.560   6.396
35864SOL     OW 9365   5.476   6.288  12.822
35864SOL    HW1 9366   5.464   6.194  12.836
35864SOL    HW2 9367   5.514   6.295  12.735
35865SOL     OW 9368   8.699  12.346  14.508
35865SOL    HW1 9369   8.705  12.251  14.500
35865SOL    HW2 9370   8.734  12.379  14.425
35866SOL     OW 9371   3.651   9.049   7.233
35866SOL    HW1 9372   3.689   9.097   7.159
35866SOL    HW2 9373   3.650   8.958   7.205
35867SOL     OW 9374   8.627   6.474  14.852
35867SOL    HW1 9375   8.580   6.392  14.869
35867SOL    HW2 9376   8.591   6.536   0.034
35868SOL     OW 9377   3.858  11.641   6.117
35868SOL    HW1 9378   3.923  11.707   6.142
35868SOL    HW2 9379   3.859  11.577   6.188
35869SOL     OW 9380  12.747   7.425   1.217
35869SOL    HW1 9381  12.729   7.475   1.297
35869SOL    HW2 9382  12.725   7.484   1.145
35870SOL     OW 9383   8.452  13.191  14.088
35870SOL    HW1 9384   8.417  13.125  14.148
35870SOL    HW2 9385   8.481  13.141  14.012
35871SOL     OW 9386   7.728   3.497   6.609
35871SOL    HW1 9387   7.634   3.512   6.597
35871SOL    HW2 9388   7.738   3.403   6.597
35872SOL     OW 9389  12.961   7.680   3.942
35872SOL    HW1 9390  12.977   7.753   4.002
35872SOL    HW2 9391  13.045   7.666   3.898
35873SOL     OW 9392   5.463   3.664  12.917
35873SOL    HW1 9393   5.438   3.745  12.872
35873SOL    HW2 9394   5.559   3.663  12.914
35874SOL     OW 9395   2.227   3.253   7.578
35874SOL    HW1 9396   2.164   3.325   7.570
35874SOL    HW2 9397   2.259   3.259   7.668
35875SOL     OW 9398   6.137   8.365  14.558
35875SOL    HW1 9399   6.071   8.435  14.561
35875SOL    HW2 9400   6.219   8.410  14.538
35876SOL     OW 9401   6.688   7.189  13.525
35876SOL    HW1 9402   6.639   7.242  13.462
35876SOL    HW2 9403   6.668   7.229  13.610
35877SOL     OW 9404   3.210   1.360   0.703
35877SOL    HW1 9405   3.272   1.298   0.741
35877SOL    HW2 9406   3.135   1.306   0.677
35878SOL     OW 9407   2.390  12.750   4.826
35878SOL    HW1 9408   2.384  12.784   4.915
35878SOL    HW2 9409   2.328  12.678   4.823
35879SOL     OW 9410   0.840  10.170   1.117
35879SOL    HW1 9411   0.837  10.086   1.163
35879SOL    HW2 9412   0.891  10.228   1.175
35880SOL     OW 9413   0.723  14.714  13.973
35880SOL    HW1 9414   0.688  14.788  13.924
35880SOL    HW2 9415   0.753  14.751  14.056
35881SOL     OW 9416   0.306   0.931   0.300
35881SOL    HW1 9417   0.323   0.989   0.226
35881SOL    HW2 9418   0.331   0.844   0.268
35882SOL     OW 9419   0.859  14.305  11.968
35882SOL    HW1 9420   0.847  14.364  12.043
35882SOL    HW2 9421   0.871  14.364  11.893
35883SOL     OW 9422   4.811   4.801   8.269
35883SOL    HW1 9423   4.794   4.740   8.341
35883SOL    HW2 9424   4.865   4.870   8.308
35884SOL     OW 9425   4.916   4.098  10.831
35884SOL    HW1 9426   4.839   4.068  10.781
35884SOL    HW2 9427   4.972   4.021  10.836
35885SOL     OW 9428   7.345  13.736   8.600
35885SOL    HW1 9429   7.393  13.752   8.519
35885SOL    HW2 9430   7.412  13.744   8.669
35886SOL     OW 9431  11.555   7.518   8.924
35886SOL    HW1 9432  11.550   7.537   9.018
35886SOL    HW2 9433  11.469   7.482   8.902
35887SOL     OW 9434   1.425   3.251   3.385
35887SOL    HW1 9435   1.423   3.323   3.323
35887SOL    HW2 9436   1.456   3.176   3.334
35888SOL     OW 9437   9.027   6.537   7.946
35888SOL    HW1 9438   9.059   6.468   8.004
35888SOL    HW2 9439   8.982   6.598   8.004
35889SOL     OW 9440  10.015  14.210   0.317
35889SOL    HW1 9441  10.053  14.198   0.230
35889SOL    HW2 9442   9.984  14.300   0.317
35890SOL     OW 9443   4.044  11.668   3.136
35890SOL    HW1 9444   4.140  11.670   3.141
35890SOL    HW2 9445   4.026  11.626   3.052
35891SOL     OW 9446  10.550   7.124   9.672
35891SOL    HW1 9447  10.605   7.101   9.747
35891SOL    HW2 9448  10.461   7.113   9.704
35892SOL     OW 9449   1.174   3.720  11.353
35892SOL    HW1 9450   1.261   3.694  11.324
35892SOL    HW2 9451   1.116   3.649  11.324
35893SOL     OW 9452   4.411   8.995   5.939
35893SOL    HW1 9453   4.420   9.060   6.009
35893SOL    HW2 9454   4.320   8.967   5.945
35894SOL     OW 9455   5.415   7.227   7.824
35894SOL    HW1 9456   5.469   7.149   7.831
35894SOL    HW2 9457   5.329   7.199   7.857
35895SOL     OW 9458  10.342   3.293  10.180
35895SOL    HW1 9459  10.395   3.281  10.259
35895SOL    HW2 9460  10.407   3.297  10.109
35896SOL     OW 9461   4.057   6.263   1.567
35896SOL    HW1 9462   4.055   6.168   1.573
35896SOL    HW2 9463   3.968   6.288   1.542
35897SOL     OW 9464  14.014   9.039   3.908
35897SOL    HW1 9465  14.075   9.089   3.853
35897SOL    HW2 9466  13.962   8.988   3.846
35898SOL     OW 9467   3.518  13.003   7.154
35898SOL    HW1 9468   3.550  13.058   7.226
35898SOL    HW2 9469   3.596  12.987   7.100
35899SOL     OW 9470  13.587   2.291  11.770
35899SOL    HW1 9471  13.578   2.387  11.766
35899SOL    HW2 9472  13.528   2.264  11.840
35900SOL     OW 9473   1.844   8.127  12.596
35900SOL    HW1 9474   1.818   8.156  12.684
35900SOL    HW2 9475   1.787   8.176  12.537
35901SOL     OW 9476   1.975  13.569   4.120
35901SOL    HW1 9477   2.032  13.562   4.044
35901SOL    HW2 9478   1.894  13.526   4.094
35902SOL     OW 9479   9.898   6.817   9.319
35902SOL    HW1 9480   9.811   6.793   9.352
35902SOL    HW2 9481   9.956   6.750   9.355
35903SOL     OW 9482   9.006  12.374  13.761
35903SOL    HW1 9483   8.981  12.457  13.720
35903SOL    HW2 9484   9.032  12.399  13.850
35904SOL     OW 9485  10.852  10.090   3.512
35904SOL    HW1 9486  10.874  10.027   3.444
35904SOL    HW2 9487  10.762  10.069   3.537
35905SOL     OW 9488   2.726  14.648  10.759
35905SOL    HW1 9489   2.774  14.711  10.813
35905SOL    HW2 9490   2.685  14.702  10.691
35906SOL     OW 9491   0.548   9.134  13.097
35906SOL    HW1 9492   0.565   9.099  13.009
35906SOL    HW2 9493   0.485   9.204  13.083
35907SOL     OW 9494   3.693   7.334   9.475
35907SOL    HW1 9495   3.763   7.340   9.411
35907SOL    HW2 9496   3.679   7.240   9.486
35908SOL     OW 9497   2.888  11.858   8.812
35908SOL    HW1 9498   2.815  11.874   8.752
35908SOL    HW2 9499   2.849  11.811   8.886
35909SOL     OW 9500  12.161  14.091   0.908
35909SOL    HW1 9501  12.125  14.002   0.908
35909SOL    HW2 9502  12.126  14.130   0.988
35910SOL     OW 9503   4.358   2.309   2.245
35910SOL    HW1 9504   4.386   2.241   2.184
35910SOL    HW2 9505   4.435   2.327   2.298
35911SOL     OW 9506  12.594   8.768   0.555
35911SOL    HW1 9507  12.515   8.747   0.603
35911SOL    HW2 9508  12.598   8.703   0.484
35912SOL     OW 9509  11.355  12.745   7.983
35912SOL    HW1 9510  11.284  12.766   8.043
35912SOL    HW2 9511  11.386  12.659   8.012
35913SOL     OW 9512   3.747   1.237  12.254
35913SOL    HW1 9513   3.689   1.174  12.297
35913SOL    HW2 9514   3.730   1.320  12.298
35914SOL     OW 9515   5.074   2.552   0.862
35914SOL    HW1 9516   5.091   2.612   0.789
35914SOL    HW2 9517   5.051   2.608   0.936
35915SOL     OW 9518  12.885   8.798   8.459
35915SOL    HW1 9519  12.835   8.754   8.390
35915SOL    HW2 9520  12.911   8.727   8.519
35916SOL     OW 9521   5.533   0.393   9.135
35916SOL    HW1 9522   5.455   0.430   9.177
35916SOL    HW2 9523   5.576   0.343   9.205
35917SOL     OW 9524   5.453  13.480  10.038
35917SOL    HW1 9525   5.468  13.571  10.063
35917SOL    HW2 9526   5.366  13.459  10.073
35918SOL     OW 9527   7.236   3.108   6.262
35918SOL    HW1 9528   7.329   3.126   6.281
35918SOL    HW2 9529   7.194   3.110   6.348
35919SOL     OW 9530   9.741   6.575  14.061
35919SOL    HW1 9531   9.684   6.563  14.136
35919SOL    HW2 9532   9.817   6.622  14.095
35920SOL     OW 9533   9.517   7.906   1.340
35920SOL    HW1 9534   9.578   7.937   1.406
35920SOL    HW2 9535   9.483   7.986   1.299
35921SOL     OW 9536   7.205  10.966  14.035
35921SOL    HW1 9537   7.138  10.924  13.980
35921SOL    HW2 9538   7.201  10.919  14.118
35922SOL     OW 9539   7.810  13.859   9.419
35922SOL    HW1 9540   7.868  13.832   9.348
35922SOL    HW2 9541   7.854  13.828   9.498
35923SOL     OW 9542  13.202   5.530   3.313
35923SOL    HW1 9543  13.148   5.535   3.393
35923SOL    HW2 9544  13.231   5.620   3.299
35924SOL     OW 9545   8.597   9.944   4.260
35924SOL    HW1 9546   8.617  10.023   4.210
35924SOL    HW2 9547   8.550   9.887   4.198
35925SOL     OW 9548  11.718   9.409   6.356
35925SOL    HW1 9549  11.685   9.477   6.298
35925SOL    HW2 9550  11.643   9.386   6.411
35926SOL     OW 9551  12.498   9.452   0.904
35926SOL    HW1 9552  12.575   9.397   0.922
35926SOL    HW2 9553  12.441   9.396   0.852
35927SOL     OW 9554   9.393  10.098  13.822
35927SOL    HW1 9555   9.417  10.006  13.836
35927SOL    HW2 9556   9.442  10.124  13.744
35928SOL     OW 9557  11.790   3.961   1.138
35928SOL    HW1 9558  11.796   3.946   1.043
35928SOL    HW2 9559  11.780   3.874   1.175
35929SOL     OW 9560   1.566   0.966   8.910
35929SOL    HW1 9561   1.660   0.948   8.917
35929SOL    HW2 9562   1.559   1.061   8.915
35930SOL     OW 9563  13.303  14.237   3.482
35930SOL    HW1 9564  13.390  14.227   3.445
35930SOL    HW2 9565  13.250  14.274   3.412
35931SOL     OW 9566   2.874   3.181   1.958
35931SOL    HW1 9567   2.823   3.132   2.023
35931SOL    HW2 9568   2.964   3.174   1.988
35932SOL     OW 9569  10.759  11.899   9.979
35932SOL    HW1 9570  10.815  11.878  10.053
35932SOL    HW2 9571  10.676  11.924  10.018
35933SOL     OW 9572   7.198  14.014   1.691
35933SOL    HW1 9573   7.273  13.959   1.711
35933SOL    HW2 9574   7.123  13.955   1.693
35934SOL     OW 9575  10.873   4.187  13.127
35934SOL    HW1 9576  10.887   4.113  13.186
35934SOL    HW2 9577  10.808   4.241  13.172
35935SOL     OW 9578  11.073   6.396   8.274
35935SOL    HW1 9579  11.143   6.374   8.213
35935SOL    HW2 9580  11.032   6.473   8.236
35936SOL     OW 9581  13.108  12.910   3.424
35936SOL    HW1 9582  13.106  12.978   3.491
35936SOL    HW2 9583  13.201  12.894   3.409
35937SOL     OW 9584   0.445  13.489   0.240
35937SOL    HW1 9585   0.481  13.430   0.306
35937SOL    HW2 9586   0.513  13.556   0.228
35938SOL     OW 9587  13.976  10.241   8.848
35938SOL    HW1 9588  13.987  10.154   8.810
35938SOL    HW2 9589  14.050  10.292   8.814
35939SOL     OW 9590   9.983  11.878   8.235
35939SOL    HW1 9591   9.928  11.899   8.159
35939SOL    HW2 9592  10.003  11.963   8.273
35940SOL     OW 9593   2.900   9.715   4.092
35940SOL    HW1 9594   2.957   9.639   4.102
35940SOL    HW2 9595   2.891   9.727   3.998
35941SOL     OW 9596  12.099  12.373  12.704
35941SOL    HW1 9597  12.115  12.386  12.798
35941SOL    HW2 9598  12.008  12.343  12.699
35942SOL     OW 9599   6.195   0.144   0.190
35942SOL    HW1 9600   6.152   0.059   0.188
35942SOL    HW2 9601   6.172   0.180   0.276
35943SOL     OW 9602   0.824  14.645  12.276
35943SOL    HW1 9603   0.772  14.683  12.347
35943SOL    HW2 9604   0.877  14.718  12.243
35944SOL     OW 9605  10.699  11.228   3.691
35944SOL    HW1 9606  10.790  11.206   3.671
35944SOL    HW2 9607  10.665  11.263   3.609
35945SOL     OW 9608   2.205   3.231   3.132
35945SOL    HW1 9609   2.209   3.146   3.175
35945SOL    HW2 9610   2.112   3.254   3.132
35946SOL     OW 9611  13.432  13.802   9.176
35946SOL    HW1 9612  13.445  13.768   9.265
35946SOL    HW2 9613  13.515  13.842   9.153
35947SOL     OW 9614   8.134  13.404  12.255
35947SOL    HW1 9615   8.215  13.362  12.224
35947SOL    HW2 9616   8.064  13.350  12.217
35948SOL     OW 9617   7.528   7.496  11.418
35948SOL    HW1 9618   7.441   7.497  11.378
35948SOL    HW2 9619   7.579   7.557  11.364
35949SOL     OW 9620  14.012   5.355  12.133
35949SOL    HW1 9621  13.957   5.366  12.210
35949SOL    HW2 9622  14.024   5.260  12.126
35950SOL     OW 9623  11.201  12.765   1.471
35950SOL    HW1 9624  11.289  12.732   1.490
35950SOL    HW2 9625  11.203  12.857   1.494
35951SOL     OW 9626  11.073   1.107   5.523
35951SOL    HW1 9627  11.143   1.163   5.559
35951SOL    HW2 9628  10.997   1.165   5.519
35952SOL     OW 9629  13.308  13.967  12.045
35952SOL    HW1 9630  13.277  13.876  12.045
35952SOL    HW2 9631  13.392  13.963  12.091
35953SOL     OW 9632   2.877   2.591   7.641
35953SOL    HW1 9633   2.911   2.649   7.709
35953SOL    HW2 9634   2.909   2.630   7.559
35954SOL     OW 9635   0.914   1.279   9.405
35954SOL    HW1 9636   0.994   1.331   9.404
35954SOL    HW2 9637   0.922   1.222   9.329
35955SOL     OW 9638  11.085  14.293  12.452
35955SOL    HW1 9639  11.040  14.212  12.430
35955SOL    HW2 9640  11.026  14.362  12.421
35956SOL     OW 9641   5.363   3.881   8.610
35956SOL    HW1 9642   5.329   3.890   8.699
35956SOL    HW2 9643   5.339   3.963   8.567
35957SOL     OW 9644   8.652   6.046   6.715
35957SOL    HW1 9645   8.587   6.055   6.785
35957SOL    HW2 9646   8.644   5.954   6.688
35958SOL     OW 9647   3.632   1.077  10.361
35958SOL    HW1 9648   3.659   1.083  10.269
35958SOL    HW2 9649   3.674   1.152  10.403
35959SOL     OW 9650   3.569   8.713   2.531
35959SOL    HW1 9651   3.481   8.683   2.506
35959SOL    HW2 9652   3.571   8.703   2.627
35960SOL     OW 9653   9.435   6.350   0.135
35960SOL    HW1 9654   9.410   6.426   0.188
35960SOL    HW2 9655   9.362   6.338   0.075
35961SOL     OW 9656   0.134   4.393  10.124
35961SOL    HW1 9657   0.179   4.414  10.042
35961SOL    HW2 9658   0.056   4.344  10.096
35962SOL     OW 9659   0.538   8.796  10.578
35962SOL    HW1 9660   0.513   8.862  10.514
35962SOL    HW2 9661   0.465   8.734  10.579
35963SOL     OW 9662   3.796   9.119   7.809
35963SOL    HW1 9663   3.855   9.180   7.763
35963SOL    HW2 9664   3.846   9.038   7.814
35964SOL     OW 9665   1.731   2.483  10.170
35964SOL    HW1 9666   1.638   2.481  10.192
35964SOL    HW2 9667   1.772   2.531  10.242
35965SOL     OW 9668  10.323  11.689   9.170
35965SOL    HW1 9669  10.381  11.764   9.183
35965SOL    HW2 9670  10.277  11.680   9.254
35966SOL     OW 9671   7.446  11.062  12.771
35966SOL    HW1 9672   7.368  11.097  12.815
35966SOL    HW2 9673   7.426  11.067  12.678
35967SOL     OW 9674  12.061   3.957   2.531
35967SOL    HW1 9675  12.075   3.867   2.562
35967SOL    HW2 9676  12.095   3.956   2.441
35968SOL     OW 9677   7.669   4.999  12.848
35968SOL    HW1 9678   7.610   4.925  12.862
35968SOL    HW2 9679   7.682   5.002  12.753
35969SOL     OW 9680  11.978   3.552   9.529
35969SOL    HW1 9681  12.018   3.557   9.616
35969SOL    HW2 9682  11.929   3.634   9.521
35970SOL     OW 9683  13.365   1.854   8.475
35970SOL    HW1 9684  13.419   1.919   8.519
35970SOL    HW2 9685  13.369   1.878   8.382
35971SOL     OW 9686   9.426  14.150  14.678
35971SOL    HW1 9687   9.338  14.114  14.684
35971SOL    HW2 9688   9.445  14.182  14.766
35972SOL     OW 9689   0.190   6.380   8.452
35972SOL    HW1 9690   0.107   6.377   8.501
35972SOL    HW2 9691   0.167   6.351   8.364
35973SOL     OW 9692   4.013  14.859   6.024
35973SOL    HW1 9693   3.934  14.811   6.048
35973SOL    HW2 9694   4.062  14.867   6.106
35974SOL     OW 9695   9.802  11.620  10.901
35974SOL    HW1 9696   9.866  11.686  10.873
35974SOL    HW2 9697   9.761  11.590  10.820
35975SOL     OW 9698  11.565   7.461  12.361
35975SOL    HW1 9699  11.617   7.436  12.285
35975SOL    HW2 9700  11.620   7.524  12.408
35976SOL     OW 9701   2.127  13.694   4.874
35976SOL    HW1 9702   2.124  13.625   4.941
35976SOL    HW2 9703   2.220  13.708   4.859
35977SOL     OW 9704   3.132   3.482   7.259
35977SOL    HW1 9705   3.075   3.412   7.291
35977SOL    HW2 9706   3.121   3.552   7.323
35978SOL     OW 9707   6.313  12.094  13.584
35978SOL    HW1 9708   6.398  12.138  13.586
35978SOL    HW2 9709   6.250  12.160  13.611
35979SOL     OW 9710   7.049   6.898   7.820
35979SOL    HW1 9711   6.979   6.834   7.811
35979SOL    HW2 9712   7.117   6.869   7.759
35980SOL     OW 9713  14.124   9.806   9.112
35980SOL    HW1 9714  14.044   9.781   9.158
35980SOL    HW2 9715  14.184   9.834   9.181
35981SOL     OW 9716   2.896   2.093   6.195
35981SOL    HW1 9717   2.959   2.043   6.247
35981SOL    HW2 9718   2.891   2.178   6.239
35982SOL     OW 9719   2.405  12.385   6.705
35982SOL    HW1 9720   2.394  12.292   6.686
35982SOL    HW2 9721   2.345  12.402   6.778
35983SOL     OW 9722   9.054  11.445  10.461
35983SOL    HW1 9723   9.141  11.474  10.434
35983SOL    HW2 9724   9.011  11.525  10.492
35984SOL     OW 9725   5.815  13.559  12.501
35984SOL    HW1 9726   5.836  13.652  12.496
35984SOL    HW2 9727   5.898  13.514  12.486
35985SOL     OW 9728   8.005  14.307  12.780
35985SOL    HW1 9729   7.939  14.309  12.849
35985SOL    HW2 9730   8.021  14.214  12.764
35986SOL     OW 9731   1.549   0.045   5.790
35986SOL    HW1 9732   1.523  14.864   5.722
35986SOL    HW2 9733   1.593  14.874   5.856
35987SOL     OW 9734  13.696   4.819  12.358
35987SOL    HW1 9735  13.732   4.762  12.290
35987SOL    HW2 9736  13.718   4.908  12.328
35988SOL     OW 9737   7.055   6.873   8.343
35988SOL    HW1 9738   7.065   6.968   8.343
35988SOL    HW2 9739   7.102   6.843   8.266
35989SOL     OW 9740   3.797  12.521   8.903
35989SOL    HW1 9741   3.839  12.465   8.838
35989SOL    HW2 9742   3.734  12.464   8.947
35990SOL     OW 9743   3.959   6.822   9.756
35990SOL    HW1 9744   3.900   6.894   9.777
35990SOL    HW2 9745   3.953   6.763   9.832
35991SOL     OW 9746  13.727   4.707   9.093
35991SOL    HW1 9747  13.791   4.658   9.042
35991SOL    HW2 9748  13.775   4.738   9.169
35992SOL     OW 9749   3.478   1.067   7.310
35992SOL    HW1 9750   3.493   1.137   7.373
35992SOL    HW2 9751   3.556   1.011   7.318
35993SOL     OW 9752   3.632   9.279   0.872
35993SOL    HW1 9753   3.680   9.348   0.827
35993SOL    HW2 9754   3.685   9.201   0.859
35994SOL     OW 9755   0.465   3.963  12.664
35994SOL    HW1 9756   0.551   3.920  12.662
35994SOL    HW2 9757   0.485   4.055  12.680
35995SOL     OW 9758   3.445   4.664  12.318
35995SOL    HW1 9759   3.394   4.736  12.280
35995SOL    HW2 9760   3.468   4.610  12.243
35996SOL     OW 9761   4.106   5.572   4.201
35996SOL    HW1 9762   4.157   5.499   4.165
35996SOL    HW2 9763   4.058   5.534   4.274
35997SOL     OW 9764   9.176   3.430  11.322
35997SOL    HW1 9765   9.089   3.449  11.288
35997SOL    HW2 9766   9.161   3.404  11.413
35998SOL     OW 9767   9.753   6.818  14.270
35998SOL    HW1 9768   9.784   6.904  14.295
35998SOL    HW2 9769   9.819   6.757  14.303
35999SOL     OW 9770   0.045   9.655   6.916
35999SOL    HW1 9771   0.071   9.572   6.877
35999SOL    HW2 9772  14.846   9.635   6.964
36000SOL     OW 9773   8.172   5.365   9.340
36000SOL    HW1 9774   8.242   5.393   9.398
36000SOL    HW2 9775   8.125   5.297   9.388
36001SOL     OW 9776   7.501  14.495   5.513
36001SOL    HW1 9777   7.558  14.420   5.497
36001SOL    HW2 9778   7.442  14.466   5.583
36002SOL     OW 9779  11.858   7.082   4.891
36002SOL    HW1 9780  11.915   7.092   4.968
36002SOL    HW2 9781  11.891   7.146   4.829
36003SOL     OW 9782   6.622   3.926   3.856
36003SOL    HW1 9783   6.607   3.955   3.767
36003SOL    HW2 9784   6.654   3.836   3.847
36004SOL     OW 9785   5.016   8.804  10.490
36004SOL    HW1 9786   5.078   8.739  10.523
36004SOL    HW2 9787   5.028   8.879  10.548
36005SOL     OW 9788   2.059   8.946  11.532
36005SOL    HW1 9789   2.115   8.870  11.545
36005SOL    HW2 9790   2.045   8.980  11.620
36006SOL     OW 9791   1.196  11.079   8.574
36006SOL    HW1 9792   1.213  10.997   8.528
36006SOL    HW2 9793   1.239  11.067   8.659
36007SOL     OW 9794   4.070  11.190   5.828
36007SOL    HW1 9795   4.153  11.216   5.869
36007SOL    HW2 9796   4.004  11.244   5.871
36008SOL     OW 9797  12.974  14.173   1.683
36008SOL    HW1 9798  12.957  14.093   1.732
36008SOL    HW2 9799  12.928  14.241   1.732
36009SOL     OW 9800   5.764  11.189  14.715
36009SOL    HW1 9801   5.839  11.228  14.761
36009SOL    HW2 9802   5.688  11.210  14.769
36010SOL     OW 9803   9.071   0.416   3.250
36010SOL    HW1 9804   8.988   0.369   3.261
36010SOL    HW2 9805   9.059   0.497   3.300
36011SOL     OW 9806  13.580   6.920   5.882
36011SOL    HW1 9807  13.536   6.978   5.820
36011SOL    HW2 9808  13.541   6.834   5.866
36012SOL     OW 9809   0.415   5.217   9.949
36012SOL    HW1 9810   0.350   5.184   9.886
36012SOL    HW2 9811   0.496   5.224   9.898
36013SOL     OW 9812   4.544  12.607   4.319
36013SOL    HW1 9813   4.625  12.557   4.311
36013SOL    HW2 9814   4.496  12.562   4.389
36014SOL     OW 9815   8.689  11.071   0.061
36014SOL    HW1 9816   8.742  11.074  14.863
36014SOL    HW2 9817   8.747  11.103   0.130
36015SOL     OW 9818  10.090   3.420  10.592
36015SOL    HW1 9819  10.076   3.337  10.638
36015SOL    HW2 9820  10.002   3.460  10.588
36016SOL     OW 9821  12.017  13.988   7.168
36016SOL    HW1 9822  11.992  14.070   7.127
36016SOL    HW2 9823  11.995  14.000   7.261
36017SOL     OW 9824   6.140  13.566   3.683
36017SOL    HW1 9825   6.149  13.542   3.591
36017SOL    HW2 9826   6.045  13.576   3.696
36018SOL     OW 9827  14.302  12.721   5.542
36018SOL    HW1 9828  14.236  12.654   5.559
36018SOL    HW2 9829  14.317  12.763   5.626
36019SOL     OW 9830  14.263  13.195   9.088
36019SOL    HW1 9831  14.283  13.284   9.118
36019SOL    HW2 9832  14.348  13.158   9.065
36020SOL     OW 9833   4.084   5.730  11.245
36020SOL    HW1 9834   4.024   5.784  11.296
36020SOL    HW2 9835   4.035   5.705  11.167
36021SOL     OW 9836   4.698   2.763   2.244
36021SOL    HW1 9837   4.696   2.696   2.312
36021SOL    HW2 9838   4.701   2.714   2.162
36022SOL     OW 9839   4.375   7.949   6.752
36022SOL    HW1 9840   4.331   8.017   6.700
36022SOL    HW2 9841   4.372   7.871   6.697
36023SOL     OW 9842   6.030   3.175   6.817
36023SOL    HW1 9843   5.982   3.153   6.897
36023SOL    HW2 9844   5.972   3.149   6.746
36024SOL     OW 9845  10.558  11.762   2.737
36024SOL    HW1 9846  10.505  11.840   2.758
36024SOL    HW2 9847  10.639  11.775   2.787
36025SOL     OW 9848   6.762   7.614   0.314
36025SOL    HW1 9849   6.747   7.530   0.271
36025SOL    HW2 9850   6.693   7.671   0.280
36026SOL     OW 9851  10.737  11.765   8.180
36026SOL    HW1 9852  10.779  11.787   8.263
36026SOL    HW2 9853  10.663  11.709   8.205
36027SOL     OW 9854   9.331   8.882   7.592
36027SOL    HW1 9855   9.236   8.893   7.592
36027SOL    HW2 9856   9.362   8.941   7.523
36028SOL     OW 9857  14.688  13.993  10.821
36028SOL    HW1 9858  14.719  13.973  10.732
36028SOL    HW2 9859  14.646  13.912  10.850
36029SOL     OW 9860  13.041   4.666   0.578
36029SOL    HW1 9861  13.096   4.744   0.582
36029SOL    HW2 9862  13.053   4.633   0.490
36030SOL     OW 9863   6.811   4.102   8.670
36030SOL    HW1 9864   6.847   4.019   8.700
36030SOL    HW2 9865   6.869   4.130   8.599
36031SOL     OW 9866   9.115  14.654  11.605
36031SOL    HW1 9867   9.136  14.591  11.536
36031SOL    HW2 9868   9.200  14.687  11.634
36032SOL     OW 9869   8.519  11.505   3.099
36032SOL    HW1 9870   8.525  11.523   3.192
36032SOL    HW2 9871   8.460  11.429   3.092
36033SOL     OW 9872   0.463   9.246   2.838
36033SOL    HW1 9873   0.472   9.332   2.797
36033SOL    HW2 9874   0.456   9.185   2.764
36034SOL     OW 9875  12.257   2.128  14.259
36034SOL    HW1 9876  12.181   2.170  14.299
36034SOL    HW2 9877  12.285   2.190  14.190
36035SOL     OW 9878  14.687   8.531  10.052
36035SOL    HW1 9879  14.675   8.443  10.088
36035SOL    HW2 9880  14.696   8.588  10.128
36036SOL     OW 9881   9.581   0.156   0.677
36036SOL    HW1 9882   9.598   0.091   0.746
36036SOL    HW2 9883   9.599   0.240   0.719
36037SOL     OW 9884   0.573   1.360   7.181
36037SOL    HW1 9885   0.620   1.293   7.232
36037SOL    HW2 9886   0.541   1.422   7.246
36038SOL     OW 9887   2.780   7.192  11.445
36038SOL    HW1 9888   2.804   7.121  11.386
36038SOL    HW2 9889   2.786   7.154  11.532
36039SOL     OW 9890  10.746  10.954  13.401
36039SOL    HW1 9891  10.715  10.995  13.481
36039SOL    HW2 9892  10.674  10.899  13.371
36040SOL     OW 9893   4.064   5.946   1.237
36040SOL    HW1 9894   4.078   5.891   1.159
36040SOL    HW2 9895   3.970   5.965   1.237
36041SOL     OW 9896   7.090   0.205  14.713
36041SOL    HW1 9897   7.066   0.236  14.626
36041SOL    HW2 9898   7.007   0.179  14.753
36042SOL     OW 9899   8.985   2.432   8.915
36042SOL    HW1 9900   8.909   2.482   8.944
36042SOL    HW2 9901   9.047   2.498   8.885
36043SOL     OW 9902   2.264   1.618   6.389
36043SOL    HW1 9903   2.263   1.629   6.484
36043SOL    HW2 9904   2.312   1.537   6.375
36044SOL     OW 9905   4.855   1.410   8.131
36044SOL    HW1 9906   4.858   1.506   8.137
36044SOL    HW2 9907   4.834   1.382   8.220
36045SOL     OW 9908   4.536  12.132  12.940
36045SOL    HW1 9909   4.543  12.178  12.857
36045SOL    HW2 9910   4.446  12.149  12.970
36046SOL     OW 9911   1.919  11.149   2.627
36046SOL    HW1 9912   1.824  11.152   2.618
36046SOL    HW2 9913   1.936  11.175   2.718
36047SOL     OW 9914  11.985   5.590  12.308
36047SOL    HW1 9915  11.986   5.592  12.213
36047SOL    HW2 9916  12.019   5.676  12.335
36048SOL     OW 9917  13.843   8.361   8.696
36048SOL    HW1 9918  13.881   8.273   8.703
36048SOL    HW2 9919  13.915   8.420   8.718
36049SOL     OW 9920   6.823   1.996  13.855
36049SOL    HW1 9921   6.819   1.934  13.781
36049SOL    HW2 9922   6.731   2.010  13.879
36050SOL     OW 9923   7.409  13.416   2.304
36050SOL    HW1 9924   7.396  13.367   2.223
36050SOL    HW2 9925   7.493  13.386   2.337
36051SOL     OW 9926   0.561   7.392  12.789
36051SOL    HW1 9927   0.642   7.358  12.750
36051SOL    HW2 9928   0.550   7.342  12.870
36052SOL     OW 9929   4.485  11.682  13.289
36052SOL    HW1 9930   4.521  11.593  13.296
36052SOL    HW2 9931   4.425  11.689  13.363
36053SOL     OW 9932   2.240   8.868   6.686
36053SOL    HW1 9933   2.231   8.901   6.597
36053SOL    HW2 9934   2.226   8.945   6.742
36054SOL     OW 9935   4.482   1.935  12.887
36054SOL    HW1 9936   4.552   1.880  12.922
36054SOL    HW2 9937   4.434   1.878  12.827
36055SOL     OW 9938  13.435  14.352   6.147
36055SOL    HW1 9939  13.454  14.436   6.106
36055SOL    HW2 9940  13.455  14.287   6.079
36056SOL     OW 9941   7.721   0.610   6.137
36056SOL    HW1 9942   7.635   0.631   6.100
36056SOL    HW2 9943   7.783   0.647   6.074
36057SOL     OW 9944   2.118   1.244   5.606
36057SOL    HW1 9945   2.059   1.169   5.608
36057SOL    HW2 9946   2.169   1.232   5.525
36058SOL     OW 9947   1.096  10.788  13.167
36058SOL    HW1 9948   1.011  10.815  13.201
36058SOL    HW2 9949   1.075  10.740  13.087
36059SOL     OW 9950   9.194  13.296   2.588
36059SOL    HW1 9951   9.166  13.323   2.676
36059SOL    HW2 9952   9.231  13.209   2.601
36060SOL     OW 9953   3.536   0.893   2.639
36060SOL    HW1 9954   3.523   0.968   2.698
36060SOL    HW2 9955   3.590   0.928   2.569
36061SOL     OW 9956   3.049   2.700   2.598
36061SOL    HW1 9957   3.141   2.676   2.594
36061SOL    HW2 9958   3.039   2.769   2.532
36062SOL     OW 9959   7.595   9.458  13.380
36062SOL    HW1 9960   7.554   9.538  13.411
36062SOL    HW2 9961   7.566   9.450  13.289
36063SOL     OW 9962   6.327   2.369   8.488
36063SOL    HW1 9963   6.324   2.357   8.583
36063SOL    HW2 9964   6.292   2.457   8.474
36064SOL     OW 9965  12.568  13.766  10.857
36064SOL    HW1 9966  12.638  13.831  10.856
36064SOL    HW2 9967  12.496  13.810  10.902
36065SOL     OW 9968   8.607   2.573  11.183
36065SOL    HW1 9969   8.532   2.513  11.175
36065SOL    HW2 9970   8.668   2.528  11.241
36066SOL     OW 9971  10.329   5.915   5.933
36066SOL    HW1 9972  10.378   5.984   5.977
36066SOL    HW2 9973  10.313   5.849   6.001
36067SOL     OW 9974  11.926  13.467   5.772
36067SOL    HW1 9975  11.974  13.421   5.703
36067SOL    HW2 9976  11.871  13.399   5.812
36068SOL     OW 9977   2.012  12.835   6.218
36068SOL    HW1 9978   2.071  12.887   6.164
36068SOL    HW2 9979   1.936  12.818   6.162
36069SOL     OW 9980   0.315   2.142  13.533
36069SOL    HW1 9981   0.226   2.158  13.565
36069SOL    HW2 9982   0.330   2.210  13.467
36070SOL     OW 9983   2.404   6.108   5.603
36070SOL    HW1 9984   2.438   6.193   5.575
36070SOL    HW2 9985   2.402   6.056   5.523
36071SOL     OW 9986  12.786  11.613   0.281
36071SOL    HW1 9987  12.768  11.618   0.375
36071SOL    HW2 9988  12.818  11.700   0.258
36072SOL     OW 9989  11.492   5.479  13.191
36072SOL    HW1 9990  11.458   5.526  13.114
36072SOL    HW2 9991  11.484   5.387  13.168
36073SOL     OW 9992  14.176   3.289  11.751
36073SOL    HW1 9993  14.162   3.266  11.843
36073SOL    HW2 9994  14.267   3.318  11.748
36074SOL     OW 9995   9.875  10.507  10.288
36074SOL    HW1 9996   9.822  10.453  10.346
36074SOL    HW2 9997   9.952  10.453  10.269
36075SOL     OW 9998   2.207  12.516   6.894
36075SOL    HW1 9999   2.161  12.476   6.821
36075SOL    HW210000   2.167  12.602   6.905
36076SOL     OW10001  10.513   9.506   9.725
36076SOL    HW110002  10.499   9.535   9.815
36076SOL    HW210003  10.530   9.587   9.676
36077SOL     OW10004   6.669   7.085   4.113
36077SOL    HW110005   6.599   7.053   4.056
36077SOL    HW210006   6.749   7.048   4.076
36078SOL     OW10007   8.190  13.617   9.311
36078SOL    HW110008   8.267  13.673   9.323
36078SOL    HW210009   8.203  13.575   9.226
36079SOL     OW10010   4.364   3.390  10.706
36079SOL    HW110011   4.429   3.325  10.732
36079SOL    HW210012   4.309   3.343  10.642
36080SOL     OW10013   1.160   0.499   2.112
36080SOL    HW110014   1.075   0.477   2.149
36080SOL    HW210015   1.205   0.546   2.182
36081SOL     OW10016   9.764  14.676  13.577
36081SOL    HW110017   9.825  14.696  13.506
36081SOL    HW210018   9.730  14.589  13.555
36082SOL     OW10019   9.270   2.838  10.098
36082SOL    HW110020   9.361   2.857  10.076
36082SOL    HW210021   9.272   2.750  10.136
36083SOL     OW10022   2.116   5.126   5.934
36083SOL    HW110023   2.040   5.181   5.954
36083SOL    HW210024   2.132   5.140   5.840
36084SOL     OW10025   9.235  12.031   4.507
36084SOL    HW110026   9.304  11.980   4.551
36084SOL    HW210027   9.160  12.026   4.566
36085SOL     OW10028  12.971   1.374   6.140
36085SOL    HW110029  12.958   1.459   6.097
36085SOL    HW210030  12.909   1.376   6.214
36086SOL     OW10031  13.810   5.405  14.391
36086SOL    HW110032  13.902   5.395  14.416
36086SOL    HW210033  13.802   5.356  14.309
36087SOL     OW10034   0.839   7.762   2.370
36087SOL    HW110035   0.877   7.812   2.443
36087SOL    HW210036   0.915   7.731   2.320
36088SOL     OW10037  12.678  12.594  11.105
36088SOL    HW110038  12.593  12.593  11.150
36088SOL    HW210039  12.720  12.675  11.134
36089SOL     OW10040   9.417   6.778   1.414
36089SOL    HW110041   9.343   6.835   1.393
36089SOL    HW210042   9.490   6.838   1.431
36090SOL     OW10043   5.809   7.122  10.637
36090SOL    HW110044   5.821   7.029  10.656
36090SOL    HW210045   5.886   7.146  10.586
36091SOL     OW10046   1.570   5.793   0.851
36091SOL    HW110047   1.561   5.783   0.756
36091SOL    HW210048   1.482   5.776   0.885
36092SOL     OW10049   0.105  13.963   7.112
36092SOL    HW110050   0.127  13.924   7.027
36092SOL    HW210051   0.156  13.913   7.175
36093SOL     OW10052   7.232   4.903  14.294
36093SOL    HW110053   7.327   4.906  14.287
36093SOL    HW210054   7.214   4.853  14.373
36094SOL     OW10055   4.490  12.597  13.540
36094SOL    HW110056   4.440  12.536  13.593
36094SOL    HW210057   4.431  12.624  13.471
36095SOL     OW10058   5.185   7.847   5.645
36095SOL    HW110059   5.098   7.828   5.610
36095SOL    HW210060   5.219   7.761   5.671
36096SOL     OW10061   9.779   8.694   5.252
36096SOL    HW110062   9.765   8.781   5.289
36096SOL    HW210063   9.864   8.667   5.287
36097SOL     OW10064   0.949   7.499   1.975
36097SOL    HW110065   0.932   7.575   1.920
36097SOL    HW210066   0.862   7.465   1.998
36098SOL     OW10067   1.974   5.755   5.683
36098SOL    HW110068   2.024   5.837   5.685
36098SOL    HW210069   2.036   5.691   5.647
36099SOL     OW10070   7.238   6.905   4.976
36099SOL    HW110071   7.227   6.851   5.054
36099SOL    HW210072   7.149   6.930   4.951
36100SOL     OW10073   8.615   4.079   3.260
36100SOL    HW110074   8.609   3.984   3.269
36100SOL    HW210075   8.525   4.107   3.243
36101SOL     OW10076  12.396   9.327   8.061
36101SOL    HW110077  12.429   9.268   8.128
36101SOL    HW210078  12.405   9.415   8.099
36102SOL     OW10079   0.708   9.948   6.538
36102SOL    HW110080   0.744   9.898   6.612
36102SOL    HW210081   0.617   9.966   6.563
36103SOL     OW10082   5.666  12.913  14.472
36103SOL    HW110083   5.660  12.923  14.377
36103SOL    HW210084   5.759  12.900  14.489
36104SOL     OW10085   3.194  10.090   0.767
36104SOL    HW110086   3.194  10.083   0.863
36104SOL    HW210087   3.107  10.126   0.746
36105SOL     OW10088   6.334   3.850   0.827
36105SOL    HW110089   6.418   3.879   0.791
36105SOL    HW210090   6.357   3.787   0.895
36106SOL     OW10091  13.425  12.255  10.339
36106SOL    HW110092  13.373  12.191  10.289
36106SOL    HW210093  13.492  12.285  10.277
36107SOL     OW10094   5.721   2.119  13.526
36107SOL    HW110095   5.769   2.138  13.606
36107SOL    HW210096   5.690   2.204  13.496
36108SOL     OW10097   9.571   8.337   9.048
36108SOL    HW110098   9.628   8.413   9.035
36108SOL    HW210099   9.598   8.299   9.131
36109SOL     OW10100  13.964   2.927   6.413
36109SOL    HW110101  13.876   2.958   6.390
36109SOL    HW210102  14.012   3.006   6.436
36110SOL     OW10103   1.267   1.522  12.005
36110SOL    HW110104   1.336   1.514  11.940
36110SOL    HW210105   1.311   1.504  12.088
36111SOL     OW10106   7.965   5.890   6.051
36111SOL    HW110107   7.959   5.922   6.141
36111SOL    HW210108   8.059   5.894   6.031
36112SOL     OW10109   4.514   4.539  13.021
36112SOL    HW110110   4.610   4.540  13.017
36112SOL    HW210111   4.487   4.492  12.942
36113SOL     OW10112  14.468   4.634   5.715
36113SOL    HW110113  14.463   4.721   5.677
36113SOL    HW210114  14.382   4.596   5.698
36114SOL     OW10115   2.000   0.894   0.196
36114SOL    HW110116   2.070   0.899   0.130
36114SOL    HW210117   1.934   0.956   0.165
36115SOL     OW10118   3.568   9.788  11.980
36115SOL    HW110119   3.486   9.762  11.936
36115SOL    HW210120   3.636   9.769  11.916
36116SOL     OW10121  10.835   8.357   2.722
36116SOL    HW110122  10.921   8.397   2.704
36116SOL    HW210123  10.827   8.361   2.818
36117SOL     OW10124   3.097   0.891   6.812
36117SOL    HW110125   3.053   0.847   6.740
36117SOL    HW210126   3.061   0.852   6.891
36118SOL     OW10127   9.143  11.612   0.763
36118SOL    HW110128   9.188  11.529   0.780
36118SOL    HW210129   9.210  11.668   0.724
36119SOL     OW10130  14.698   0.989   7.118
36119SOL    HW110131  14.707   0.989   7.022
36119SOL    HW210132  14.685   0.897   7.141
36120SOL     OW10133   6.491   4.667   3.024
36120SOL    HW110134   6.407   4.676   3.070
36120SOL    HW210135   6.509   4.754   2.990
36121SOL     OW10136  14.590   3.949   0.167
36121SOL    HW110137  14.512   3.964   0.221
36121SOL    HW210138  14.644   4.027   0.181
36122SOL     OW10139   6.031   4.626  12.359
36122SOL    HW110140   5.949   4.675  12.353
36122SOL    HW210141   6.020   4.572  12.438
36123SOL     OW10142   6.458   7.258   7.537
36123SOL    HW110143   6.429   7.261   7.628
36123SOL    HW210144   6.514   7.180   7.532
36124SOL     OW10145  11.720   1.379   2.678
36124SOL    HW110146  11.707   1.285   2.663
36124SOL    HW210147  11.642   1.407   2.725
36125SOL     OW10148   4.344   9.587  11.063
36125SOL    HW110149   4.354   9.511  11.120
36125SOL    HW210150   4.372   9.662  11.117
36126SOL     OW10151   3.198   8.717   6.497
36126SOL    HW110152   3.104   8.731   6.484
36126SOL    HW210153   3.204   8.669   6.580
36127SOL     OW10154   9.973   7.727  11.626
36127SOL    HW110155   9.910   7.725  11.698
36127SOL    HW210156  10.022   7.808  11.639
36128SOL     OW10157   9.989   2.019   5.784
36128SOL    HW110158  10.081   2.012   5.757
36128SOL    HW210159   9.969   1.933   5.821
36129SOL     OW10160  13.467   2.130   4.669
36129SOL    HW110161  13.452   2.161   4.759
36129SOL    HW210162  13.462   2.035   4.676
36130SOL     OW10163   1.822   7.437   0.344
36130SOL    HW110164   1.753   7.494   0.309
36130SOL    HW210165   1.884   7.429   0.272
36131SOL     OW10166  11.223   8.212   5.081
36131SOL    HW110167  11.167   8.142   5.116
36131SOL    HW210168  11.231   8.191   4.988
36132SOL     OW10169   3.387   6.123  14.364
36132SOL    HW110170   3.294   6.138  14.350
36132SOL    HW210171   3.413   6.060  14.297
36133SOL     OW10172  11.733   7.009   7.634
36133SOL    HW110173  11.765   6.922   7.611
36133SOL    HW210174  11.654   6.993   7.685
36134SOL     OW10175   6.573   0.475   1.414
36134SOL    HW110176   6.480   0.479   1.433
36134SOL    HW210177   6.591   0.382   1.401
36135SOL     OW10178  14.352  12.854   5.785
36135SOL    HW110179  14.427  12.835   5.841
36135SOL    HW210180  14.276  12.846   5.843
36136SOL     OW10181   1.329   7.756   9.307
36136SOL    HW110182   1.300   7.666   9.314
36136SOL    HW210183   1.374   7.774   9.390
36137SOL     OW10184   0.516   5.660   4.763
36137SOL    HW110185   0.495   5.753   4.765
36137SOL    HW210186   0.579   5.648   4.834
36138SOL     OW10187   3.186   8.825   2.291
36138SOL    HW110188   3.179   8.807   2.385
36138SOL    HW210189   3.280   8.835   2.275
36139SOL     OW10190  11.446   1.578   6.325
36139SOL    HW110191  11.397   1.652   6.291
36139SOL    HW210192  11.524   1.574   6.270
36140SOL     OW10193   1.374   6.006   4.504
36140SOL    HW110194   1.279   5.996   4.504
36140SOL    HW210195   1.397   6.020   4.412
36141SOL     OW10196   1.884   5.294  11.352
36141SOL    HW110197   1.837   5.376  11.333
36141SOL    HW210198   1.922   5.308  11.438
36142SOL     OW10199   1.780   5.888  12.915
36142SOL    HW110200   1.773   5.839  12.997
36142SOL    HW210201   1.869   5.924  12.916
36143SOL     OW10202   2.908  13.502   1.559
36143SOL    HW110203   2.848  13.533   1.492
36143SOL    HW210204   2.856  13.443   1.613
36144SOL     OW10205   5.644  13.936   1.287
36144SOL    HW110206   5.565  13.887   1.308
36144SOL    HW210207   5.646  13.938   1.191
36145SOL     OW10208   1.228  13.180   2.153
36145SOL    HW110209   1.236  13.245   2.084
36145SOL    HW210210   1.315  13.177   2.193
36146SOL     OW10211   2.249   8.321   5.919
36146SOL    HW110212   2.240   8.229   5.944
36146SOL    HW210213   2.236   8.369   6.001
36147SOL     OW10214   6.319   4.128   8.681
36147SOL    HW110215   6.316   4.210   8.731
36147SOL    HW210216   6.403   4.131   8.636
36148SOL     OW10217   3.167   4.692   5.425
36148SOL    HW110218   3.075   4.707   5.446
36148SOL    HW210219   3.216   4.741   5.491
36149SOL     OW10220  12.979   9.600   1.360
36149SOL    HW110221  12.985   9.695   1.346
36149SOL    HW210222  12.932   9.591   1.443
36150SOL     OW10223  13.189  13.187   7.469
36150SOL    HW110224  13.281  13.210   7.481
36150SOL    HW210225  13.143  13.272   7.468
36151SOL     OW10226   4.169   2.720   5.375
36151SOL    HW110227   4.206   2.671   5.448
36151SOL    HW210228   4.120   2.791   5.416
36152SOL     OW10229  13.822   3.587  13.594
36152SOL    HW110230  13.778   3.573  13.678
36152SOL    HW210231  13.778   3.662  13.556
36153SOL     OW10232  11.746  11.461  11.531
36153SOL    HW110233  11.784  11.442  11.617
36153SOL    HW210234  11.703  11.546  11.542
36154SOL     OW10235  11.766   1.604   2.180
36154SOL    HW110236  11.701   1.674   2.189
36154SOL    HW210237  11.803   1.617   2.092
36155SOL     OW10238   8.648   1.178   9.176
36155SOL    HW110239   8.640   1.084   9.158
36155SOL    HW210240   8.689   1.182   9.263
36156SOL     OW10241  12.083   4.500   2.847
36156SOL    HW110242  12.096   4.443   2.923
36156SOL    HW210243  12.043   4.579   2.883
36157SOL     OW10244   0.221  11.164   8.726
36157SOL    HW110245   0.242  11.250   8.763
36157SOL    HW210246   0.229  11.176   8.632
36158SOL     OW10247  11.718   9.231   4.725
36158SOL    HW110248  11.789   9.209   4.666
36158SOL    HW210249  11.661   9.154   4.725
36159SOL     OW10250  11.321   6.206   8.535
36159SOL    HW110251  11.339   6.124   8.488
36159SOL    HW210252  11.256   6.181   8.601
36160SOL     OW10253   0.339   4.910  12.533
36160SOL    HW110254   0.355   5.002  12.511
36160SOL    HW210255   0.249   4.910  12.566
36161SOL     OW10256   5.715  11.750   9.268
36161SOL    HW110257   5.656  11.772   9.340
36161SOL    HW210258   5.663  11.764   9.189
36162SOL     OW10259   2.469   9.455  11.807
36162SOL    HW110260   2.459   9.361  11.792
36162SOL    HW210261   2.505   9.489  11.725
36163SOL     OW10262  12.842   6.933  10.241
36163SOL    HW110263  12.805   6.965  10.323
36163SOL    HW210264  12.874   7.011  10.197
36164SOL     OW10265   2.749   6.872  14.083
36164SOL    HW110266   2.662   6.893  14.117
36164SOL    HW210267   2.776   6.795  14.134
36165SOL     OW10268  10.687   8.981   6.738
36165SOL    HW110269  10.664   9.036   6.813
36165SOL    HW210270  10.781   8.995   6.725
36166SOL     OW10271  12.616   1.023   0.089
36166SOL    HW110272  12.669   0.969   0.149
36166SOL    HW210273  12.598   0.964   0.015
36167SOL     OW10274   2.115  11.433   8.276
36167SOL    HW110275   2.188  11.469   8.226
36167SOL    HW210276   2.137  11.340   8.286
36168SOL     OW10277   6.852   9.879   9.644
36168SOL    HW110278   6.917   9.882   9.715
36168SOL    HW210279   6.885   9.940   9.578
36169SOL     OW10280   9.641   3.951   9.739
36169SOL    HW110281   9.629   3.999   9.658
36169SOL    HW210282   9.602   3.865   9.722
36170SOL     OW10283  13.097   9.241   9.520
36170SOL    HW110284  13.041   9.301   9.569
36170SOL    HW210285  13.036   9.183   9.475
36171SOL     OW10286   6.995   5.205  10.108
36171SOL    HW110287   7.067   5.235  10.164
36171SOL    HW210288   6.923   5.188  10.169
36172SOL     OW10289   4.643   2.772   4.043
36172SOL    HW110290   4.565   2.828   4.038
36172SOL    HW210291   4.714   2.833   4.063
36173SOL     OW10292   8.823   6.119   0.538
36173SOL    HW110293   8.729   6.127   0.548
36173SOL    HW210294   8.849   6.051   0.601
36174SOL     OW10295  10.740   1.575   5.726
36174SOL    HW110296  10.703   1.513   5.789
36174SOL    HW210297  10.754   1.523   5.647
36175SOL     OW10298  14.666   9.282  14.717
36175SOL    HW110299  14.580   9.272  14.757
36175SOL    HW210300  14.726   9.286  14.791
36176SOL     OW10301  11.888   9.337  12.565
36176SOL    HW110302  11.808   9.389  12.571
36176SOL    HW210303  11.959   9.401  12.568
36177SOL     OW10304   1.407   0.010  14.442
36177SOL    HW110305   1.355   0.040  14.517
36177SOL    HW210306   1.465  14.825  14.479
36178SOL     OW10307  10.254   0.003  11.521
36178SOL    HW110308  10.268  14.790  11.528
36178SOL    HW210309  10.244   0.018  11.427
36179SOL     OW10310  14.403   3.019   0.628
36179SOL    HW110311  14.378   3.019   0.720
36179SOL    HW210312  14.390   2.929   0.599
36180SOL     OW10313   0.958   7.139   7.828
36180SOL    HW110314   0.918   7.053   7.812
36180SOL    HW210315   0.901   7.201   7.783
36181SOL     OW10316   0.409   4.028  11.648
36181SOL    HW110317   0.502   4.045  11.663
36181SOL    HW210318   0.385   3.967  11.718
36182SOL     OW10319  14.677   4.643   7.298
36182SOL    HW110320  14.594   4.621   7.342
36182SOL    HW210321  14.668   4.735   7.275
36183SOL     OW10322   0.202   6.890   8.937
36183SOL    HW110323   0.237   6.918   8.852
36183SOL    HW210324   0.185   6.796   8.925
36184SOL     OW10325   6.893   4.676   7.770
36184SOL    HW110326   6.834   4.732   7.820
36184SOL    HW210327   6.939   4.625   7.837
36185SOL     OW10328   2.450   1.389   8.708
36185SOL    HW110329   2.536   1.360   8.738
36185SOL    HW210330   2.388   1.345   8.766
36186SOL     OW10331   8.204  14.321   6.028
36186SOL    HW110332   8.203  14.407   5.985
36186SOL    HW210333   8.210  14.258   5.957
36187SOL     OW10334   6.387   7.126  12.481
36187SOL    HW110335   6.415   7.132  12.390
36187SOL    HW210336   6.356   7.214  12.502
36188SOL     OW10337  14.219   3.279  14.718
36188SOL    HW110338  14.162   3.286  14.642
36188SOL    HW210339  14.163   3.246  14.789
36189SOL     OW10340   6.804   3.427  13.586
36189SOL    HW110341   6.881   3.408  13.533
36189SOL    HW210342   6.797   3.523  13.584
36190SOL     OW10343   7.939   9.897   1.037
36190SOL    HW110344   7.979   9.821   1.078
36190SOL    HW210345   7.855   9.865   1.004
36191SOL     OW10346   1.307   7.288   5.628
36191SOL    HW110347   1.243   7.341   5.675
36191SOL    HW210348   1.341   7.227   5.693
36192SOL     OW10349  14.208   6.063  10.196
36192SOL    HW110350  14.116   6.083  10.179
36192SOL    HW210351  14.237   6.131  10.256
36193SOL     OW10352  10.729  10.107   0.835
36193SOL    HW110353  10.817  10.137   0.857
36193SOL    HW210354  10.671  10.157   0.892
36194SOL     OW10355   5.106   8.930  12.303
36194SOL    HW110356   5.079   8.996  12.367
36194SOL    HW210357   5.193   8.957  12.276
36195SOL     OW10358   5.619   8.085   8.754
36195SOL    HW110359   5.596   8.175   8.775
36195SOL    HW210360   5.671   8.054   8.828
36196SOL     OW10361  12.613   5.487  12.968
36196SOL    HW110362  12.709   5.483  12.979
36196SOL    HW210363  12.586   5.562  13.020
36197SOL     OW10364  13.170   1.833   9.333
36197SOL    HW110365  13.122   1.860   9.255
36197SOL    HW210366  13.108   1.848   9.405
36198SOL     OW10367   3.392   0.754   4.959
36198SOL    HW110368   3.452   0.682   4.977
36198SOL    HW210369   3.443   0.814   4.904
36199SOL     OW10370  13.728  10.645   5.212
36199SOL    HW110371  13.816  10.681   5.197
36199SOL    HW210372  13.685  10.710   5.267
36200SOL     OW10373   3.261   8.380   4.056
36200SOL    HW110374   3.346   8.337   4.060
36200SOL    HW210375   3.225   8.354   3.972
36201SOL     OW10376   3.891   5.726   1.977
36201SOL    HW110377   3.830   5.670   1.930
36201SOL    HW210378   3.845   5.810   1.985
36202SOL     OW10379  11.632   8.542   2.321
36202SOL    HW110380  11.558   8.482   2.320
36202SOL    HW210381  11.677   8.527   2.238
36203SOL     OW10382   6.101   6.819   8.096
36203SOL    HW110383   6.124   6.742   8.044
36203SOL    HW210384   6.057   6.784   8.173
36204SOL     OW10385  13.132  10.256  12.225
36204SOL    HW110386  13.177  10.176  12.253
36204SOL    HW210387  13.155  10.266  12.133
36205SOL     OW10388  11.156  14.291   0.817
36205SOL    HW110389  11.068  14.299   0.854
36205SOL    HW210390  11.208  14.250   0.885
36206SOL     OW10391  13.582   4.181   3.910
36206SOL    HW110392  13.615   4.095   3.933
36206SOL    HW210393  13.653   4.223   3.862
36207SOL     OW10394   5.131   7.989   4.290
36207SOL    HW110395   5.193   8.024   4.227
36207SOL    HW210396   5.183   7.970   4.368
36208SOL     OW10397  11.692   9.536  11.654
36208SOL    HW110398  11.786   9.543  11.638
36208SOL    HW210399  11.658   9.491  11.576
36209SOL     OW10400  13.865  14.768   2.386
36209SOL    HW110401  13.827  14.688   2.348
36209SOL    HW210402  13.791  14.810   2.430
36210SOL     OW10403   3.874   4.557   0.318
36210SOL    HW110404   3.943   4.623   0.328
36210SOL    HW210405   3.921   4.477   0.295
36211SOL     OW10406   1.045   1.289  12.688
36211SOL    HW110407   1.063   1.283  12.594
36211SOL    HW210408   1.074   1.205  12.723
36212SOL     OW10409  12.815   2.866   8.346
36212SOL    HW110410  12.863   2.800   8.297
36212SOL    HW210411  12.850   2.860   8.436
36213SOL     OW10412   8.330   3.074   3.748
36213SOL    HW110413   8.352   3.013   3.678
36213SOL    HW210414   8.410   3.125   3.762
36214SOL     OW10415   7.242   0.133   4.411
36214SOL    HW110416   7.200   0.134   4.325
36214SOL    HW210417   7.334   0.151   4.393
36215SOL     OW10418   7.584   1.109  12.962
36215SOL    HW110419   7.660   1.092  12.907
36215SOL    HW210420   7.602   1.193  13.004
36216SOL     OW10421  13.384  13.329   7.170
36216SOL    HW110422  13.438  13.403   7.142
36216SOL    HW210423  13.312  13.369   7.218
36217SOL     OW10424   3.267   5.473   2.003
36217SOL    HW110425   3.351   5.499   2.040
36217SOL    HW210426   3.257   5.528   1.925
36218SOL     OW10427   6.486  13.974   5.920
36218SOL    HW110428   6.487  14.063   5.955
36218SOL    HW210429   6.449  13.984   5.832
36219SOL     OW10430  13.599   3.955  13.795
36219SOL    HW110431  13.538   3.908  13.853
36219SOL    HW210432  13.542   4.005  13.737
36220SOL     OW10433  14.095   5.269   6.472
36220SOL    HW110434  14.184   5.234   6.480
36220SOL    HW210435  14.066   5.238   6.386
36221SOL     OW10436   1.086   5.953   7.071
36221SOL    HW110437   1.142   5.983   7.143
36221SOL    HW210438   1.087   5.858   7.078
36222SOL     OW10439  12.278  13.068  13.763
36222SOL    HW110440  12.300  12.985  13.807
36222SOL    HW210441  12.231  13.041  13.684
36223SOL     OW10442   0.843  12.838  12.352
36223SOL    HW110443   0.816  12.843  12.261
36223SOL    HW210444   0.784  12.774  12.392
36224SOL     OW10445  14.719   2.479   3.923
36224SOL    HW110446  14.692   2.524   3.843
36224SOL    HW210447  14.643   2.485   3.981
36225SOL     OW10448   5.697   8.689   9.603
36225SOL    HW110449   5.674   8.782   9.600
36225SOL    HW210450   5.793   8.689   9.609
36226SOL     OW10451   6.867   2.338   2.534
36226SOL    HW110452   6.866   2.242   2.526
36226SOL    HW210453   6.776   2.364   2.525
36227SOL     OW10454  11.507  13.108  12.223
36227SOL    HW110455  11.537  13.102  12.313
36227SOL    HW210456  11.411  13.109  12.230
36228SOL     OW10457  11.500  11.346   2.074
36228SOL    HW110458  11.548  11.333   2.155
36228SOL    HW210459  11.566  11.376   2.011
36229SOL     OW10460  12.127   5.608  10.341
36229SOL    HW110461  12.066   5.639  10.409
36229SOL    HW210462  12.126   5.677  10.276
36230SOL     OW10463   8.067   5.914  14.581
36230SOL    HW110464   8.008   5.965  14.525
36230SOL    HW210465   8.142   5.894  14.525
36231SOL     OW10466   5.199  10.990  14.514
36231SOL    HW110467   5.171  11.064  14.460
36231SOL    HW210468   5.247  11.031  14.586
36232SOL     OW10469  10.965   8.619   8.117
36232SOL    HW110470  10.957   8.574   8.033
36232SOL    HW210471  10.999   8.553   8.177
36233SOL     OW10472   0.568   2.932   8.744
36233SOL    HW110473   0.542   2.841   8.755
36233SOL    HW210474   0.498   2.971   8.692
36234SOL     OW10475  10.273   6.239   9.379
36234SOL    HW110476  10.313   6.271   9.299
36234SOL    HW210477  10.209   6.173   9.350
36235SOL     OW10478   9.405   9.823  13.215
36235SOL    HW110479   9.392   9.778  13.298
36235SOL    HW210480   9.487   9.871  13.226
36236SOL     OW10481   0.313  11.362   9.741
36236SOL    HW110482   0.348  11.439   9.695
36236SOL    HW210483   0.310  11.293   9.675
36237SOL     OW10484  10.907   7.066   2.650
36237SOL    HW110485  10.954   7.119   2.714
36237SOL    HW210486  10.954   6.983   2.647
36238SOL     OW10487   1.654   8.417  11.269
36238SOL    HW110488   1.592   8.360  11.224
36238SOL    HW210489   1.646   8.502  11.225
36239SOL     OW10490   9.413  10.562  13.682
36239SOL    HW110491   9.319  10.568  13.699
36239SOL    HW210492   9.445  10.652  13.692
36240SOL     OW10493   4.615   2.003   4.533
36240SOL    HW110494   4.683   2.059   4.498
36240SOL    HW210495   4.558   2.062   4.582
36241SOL     OW10496   5.064  13.818   7.198
36241SOL    HW110497   5.077  13.773   7.281
36241SOL    HW210498   4.974  13.799   7.174
36242SOL     OW10499   2.791   1.366   2.823
36242SOL    HW110500   2.748   1.372   2.909
36242SOL    HW210501   2.855   1.437   2.823
36243SOL     OW10502   0.789   2.287   5.006
36243SOL    HW110503   0.812   2.256   4.919
36243SOL    HW210504   0.693   2.295   5.004
36244SOL     OW10505   2.502  13.338   1.128
36244SOL    HW110506   2.565  13.408   1.140
36244SOL    HW210507   2.450  13.366   1.052
36245SOL     OW10508  14.661   2.634  14.204
36245SOL    HW110509  14.678   2.595  14.290
36245SOL    HW210510  14.565   2.635  14.196
36246SOL     OW10511  10.055   2.940   1.265
36246SOL    HW110512  10.118   2.917   1.197
36246SOL    HW210513   9.980   2.882   1.248
36247SOL     OW10514   1.766   2.926   6.050
36247SOL    HW110515   1.733   2.891   6.133
36247SOL    HW210516   1.693   2.914   5.988
36248SOL     OW10517  10.824   6.454   3.039
36248SOL    HW110518  10.788   6.377   2.995
36248SOL    HW210519  10.789   6.450   3.128
36249SOL     OW10520   7.286   5.854   5.543
36249SOL    HW110521   7.371   5.896   5.539
36249SOL    HW210522   7.289   5.786   5.476
36250SOL     OW10523   0.811   0.792   8.982
36250SOL    HW110524   0.779   0.866   8.930
36250SOL    HW210525   0.797   0.716   8.925
36251SOL     OW10526  12.180   2.038   5.521
36251SOL    HW110527  12.224   1.965   5.564
36251SOL    HW210528  12.175   2.012   5.429
36252SOL     OW10529   3.732   0.783   2.822
36252SOL    HW110530   3.716   0.737   2.741
36252SOL    HW210531   3.645   0.792   2.863
36253SOL     OW10532  11.345  10.386  11.702
36253SOL    HW110533  11.408  10.336  11.650
36253SOL    HW210534  11.309  10.323  11.764
36254SOL     OW10535  13.468   6.552   4.951
36254SOL    HW110536  13.551   6.536   4.906
36254SOL    HW210537  13.432   6.629   4.907
36255SOL     OW10538   0.211   8.456  11.654
36255SOL    HW110539   0.165   8.422  11.731
36255SOL    HW210540   0.149   8.517  11.614
36256SOL     OW10541   8.783   3.318  13.983
36256SOL    HW110542   8.709   3.378  13.992
36256SOL    HW210543   8.858   3.375  13.967
36257SOL     OW10544   4.229   7.611  13.921
36257SOL    HW110545   4.163   7.643  13.982
36257SOL    HW210546   4.310   7.656  13.947
36258SOL     OW10547   2.775   0.391   3.870
36258SOL    HW110548   2.787   0.304   3.908
36258SOL    HW210549   2.692   0.421   3.907
36259SOL     OW10550  14.640   8.902   8.402
36259SOL    HW110551  14.584   8.908   8.479
36259SOL    HW210552  14.728   8.891   8.437
36260SOL     OW10553   8.680  12.162   0.690
36260SOL    HW110554   8.641  12.247   0.669
36260SOL    HW210555   8.703  12.170   0.783
36261SOL     OW10556  11.085   9.386  12.521
36261SOL    HW110557  11.034   9.315  12.559
36261SOL    HW210558  11.022   9.435  12.467
36262SOL     OW10559   3.979   5.670  10.969
36262SOL    HW110560   3.933   5.588  10.982
36262SOL    HW210561   3.910   5.736  10.961
36263SOL     OW10562   4.692   5.130   2.748
36263SOL    HW110563   4.658   5.218   2.733
36263SOL    HW210564   4.787   5.142   2.753
36264SOL     OW10565  12.520   1.399  13.491
36264SOL    HW110566  12.468   1.379  13.414
36264SOL    HW210567  12.532   1.494  13.487
36265SOL     OW10568   4.093   2.540   7.126
36265SOL    HW110569   4.056   2.612   7.177
36265SOL    HW210570   4.028   2.523   7.058
36266SOL     OW10571  13.396   1.648  13.490
36266SOL    HW110572  13.465   1.634  13.425
36266SOL    HW210573  13.373   1.560  13.520
36267SOL     OW10574   3.369  10.121  13.709
36267SOL    HW110575   3.455  10.095  13.739
36267SOL    HW210576   3.360  10.079  13.623
36268SOL     OW10577   5.179   7.830   2.120
36268SOL    HW110578   5.195   7.889   2.046
36268SOL    HW210579   5.105   7.776   2.092
36269SOL     OW10580   3.524   9.634  14.501
36269SOL    HW110581   3.616   9.610  14.486
36269SOL    HW210582   3.502   9.592  14.584
36270SOL     OW10583   6.161  14.219   3.036
36270SOL    HW110584   6.233  14.274   3.069
36270SOL    HW210585   6.142  14.254   2.950
36271SOL     OW10586   2.710  13.939   2.449
36271SOL    HW110587   2.697  14.014   2.508
36271SOL    HW210588   2.785  13.964   2.395
36272SOL     OW10589   7.154  10.878   4.454
36272SOL    HW110590   7.119  10.965   4.431
36272SOL    HW210591   7.114  10.857   4.538
36273SOL     OW10592   3.412   9.106  14.076
36273SOL    HW110593   3.400   9.200  14.089
36273SOL    HW210594   3.325   9.073  14.055
36274SOL     OW10595  12.469   7.031   8.117
36274SOL    HW110596  12.376   7.015   8.137
36274SOL    HW210597  12.502   6.947   8.087
36275SOL     OW10598   9.983   8.167   9.671
36275SOL    HW110599   9.970   8.258   9.645
36275SOL    HW210600   9.908   8.121   9.633
36276SOL     OW10601  14.769   4.946  12.852
36276SOL    HW110602  14.738   4.878  12.913
36276SOL    HW210603  14.853   4.913  12.821
36277SOL     OW10604  14.117  11.911  11.061
36277SOL    HW110605  14.065  11.885  10.984
36277SOL    HW210606  14.176  11.980  11.028
36278SOL     OW10607  13.655  13.414   7.340
36278SOL    HW110608  13.715  13.487   7.357
36278SOL    HW210609  13.648  13.409   7.245
36279SOL     OW10610   1.921   5.107   0.143
36279SOL    HW110611   2.004   5.118   0.190
36279SOL    HW210612   1.920   5.014   0.119
36280SOL     OW10613   2.072   7.640   9.182
36280SOL    HW110614   2.027   7.574   9.130
36280SOL    HW210615   2.165   7.624   9.166
36281SOL     OW10616  14.599   6.803   8.964
36281SOL    HW110617  14.578   6.720   9.006
36281SOL    HW210618  14.680   6.832   9.006
36282SOL     OW10619   8.854  12.936   8.007
36282SOL    HW110620   8.931  12.962   8.059
36282SOL    HW210621   8.887  12.928   7.918
36283SOL     OW10622   5.376   5.467   6.408
36283SOL    HW110623   5.290   5.500   6.382
36283SOL    HW210624   5.437   5.537   6.384
36284SOL     OW10625   5.138   7.150  13.674
36284SOL    HW110626   5.204   7.105  13.621
36284SOL    HW210627   5.140   7.103  13.758
36285SOL     OW10628  11.044   9.066   3.291
36285SOL    HW110629  11.028   9.018   3.211
36285SOL    HW210630  11.111   9.131   3.268
36286SOL     OW10631   3.438   1.146   2.037
36286SOL    HW110632   3.484   1.207   2.094
36286SOL    HW210633   3.389   1.089   2.097
36287SOL     OW10634   6.078   1.779   8.586
36287SOL    HW110635   6.121   1.864   8.590
36287SOL    HW210636   6.111   1.738   8.506
36288SOL     OW10637   3.974   8.550   5.272
36288SOL    HW110638   3.928   8.590   5.198
36288SOL    HW210639   3.942   8.597   5.349
36289SOL     OW10640   2.493   2.387   4.556
36289SOL    HW110641   2.588   2.386   4.553
36289SOL    HW210642   2.471   2.459   4.615
36290SOL     OW10643  13.567   5.099   1.174
36290SOL    HW110644  13.573   5.082   1.080
36290SOL    HW210645  13.552   5.013   1.214
36291SOL     OW10646   0.525   3.109  13.012
36291SOL    HW110647   0.459   3.062  13.064
36291SOL    HW210648   0.529   3.061  12.929
36292SOL     OW10649   7.223   4.513   3.648
36292SOL    HW110650   7.171   4.506   3.568
36292SOL    HW210651   7.164   4.552   3.712
36293SOL     OW10652   5.617   6.425  11.846
36293SOL    HW110653   5.617   6.356  11.913
36293SOL    HW210654   5.524   6.444  11.831
36294SOL     OW10655   9.360  13.751  13.878
36294SOL    HW110656   9.396  13.663  13.877
36294SOL    HW210657   9.279  13.744  13.827
36295SOL     OW10658   5.328   6.279   3.748
36295SOL    HW110659   5.326   6.341   3.675
36295SOL    HW210660   5.259   6.215   3.727
36296SOL     OW10661   3.806  13.891   5.872
36296SOL    HW110662   3.847  13.947   5.938
36296SOL    HW210663   3.874  13.829   5.847
36297SOL     OW10664  13.031  14.764  10.339
36297SOL    HW110665  13.062  14.773  10.249
36297SOL    HW210666  12.983  14.844  10.357
36298SOL     OW10667   6.944   2.337   8.142
36298SOL    HW110668   7.000   2.303   8.211
36298SOL    HW210669   6.869   2.278   8.140
36299SOL     OW10670   1.446   0.494   2.649
36299SOL    HW110671   1.474   0.473   2.560
36299SOL    HW210672   1.357   0.528   2.638
36300SOL     OW10673   0.946   5.143   0.867
36300SOL    HW110674   0.870   5.137   0.810
36300SOL    HW210675   1.021   5.128   0.809
36301SOL     OW10676   0.335   1.434  13.027
36301SOL    HW110677   0.381   1.460  12.947
36301SOL    HW210678   0.298   1.516  13.060
36302SOL     OW10679  11.696   2.134   1.923
36302SOL    HW110680  11.653   2.219   1.931
36302SOL    HW210681  11.755   2.130   1.998
36303SOL     OW10682   7.423  10.444   2.160
36303SOL    HW110683   7.363  10.458   2.233
36303SOL    HW210684   7.502  10.492   2.184
36304SOL     OW10685   0.454   4.460   6.122
36304SOL    HW110686   0.408   4.399   6.180
36304SOL    HW210687   0.454   4.417   6.037
36305SOL     OW10688   3.548  14.282  11.380
36305SOL    HW110689   3.471  14.241  11.419
36305SOL    HW210690   3.577  14.346  11.446
36306SOL     OW10691   9.193   6.076   0.798
36306SOL    HW110692   9.202   6.024   0.878
36306SOL    HW210693   9.099   6.093   0.792
36307SOL     OW10694   6.972   0.532   4.029
36307SOL    HW110695   6.884   0.564   4.046
36307SOL    HW210696   7.023   0.560   4.105
36308SOL     OW10697   2.357   1.602   0.584
36308SOL    HW110698   2.264   1.585   0.570
36308SOL    HW210699   2.361   1.692   0.616
36309SOL     OW10700   5.644   3.952  12.923
36309SOL    HW110701   5.587   3.926  12.850
36309SOL    HW210702   5.701   3.877  12.936
36310SOL     OW10703  13.153   3.953   6.646
36310SOL    HW110704  13.088   4.006   6.600
36310SOL    HW210705  13.110   3.869   6.660
36311SOL     OW10706   9.180  13.672   2.664
36311SOL    HW110707   9.193  13.761   2.698
36311SOL    HW210708   9.268  13.634   2.662
36312SOL     OW10709  13.952  12.136   5.032
36312SOL    HW110710  13.977  12.227   5.019
36312SOL    HW210711  13.939  12.127   5.127
36313SOL     OW10712   0.583   5.892   6.633
36313SOL    HW110713   0.645   5.832   6.590
36313SOL    HW210714   0.636   5.968   6.658
36314SOL     OW10715   4.552  13.949   9.879
36314SOL    HW110716   4.533  13.869   9.927
36314SOL    HW210717   4.584  13.919   9.794
36315SOL     OW10718  14.026  12.133   5.309
36315SOL    HW110719  14.055  12.111   5.398
36315SOL    HW210720  14.080  12.207   5.283
36316SOL     OW10721  14.866   3.454   7.758
36316SOL    HW110722   0.014   3.397   7.687
36316SOL    HW210723  14.811   3.397   7.813
36317SOL     OW10724  11.293  13.394   8.006
36317SOL    HW110725  11.259  13.406   8.095
36317SOL    HW210726  11.277  13.301   7.986
36318SOL     OW10727   3.721  11.162   7.840
36318SOL    HW110728   3.749  11.073   7.863
36318SOL    HW210729   3.625  11.158   7.839
36319SOL     OW10730   0.749   6.947  12.503
36319SOL    HW110731   0.737   6.861  12.463
36319SOL    HW210732   0.664   6.989  12.496
36320SOL     OW10733   4.174  10.266  10.703
36320SOL    HW110734   4.214  10.339  10.751
36320SOL    HW210735   4.193  10.285  10.611
36321SOL     OW10736   5.468   7.808   7.252
36321SOL    HW110737   5.372   7.808   7.243
36321SOL    HW210738   5.482   7.786   7.344
36322SOL     OW10739   2.151  11.373   5.625
36322SOL    HW110740   2.143  11.319   5.704
36322SOL    HW210741   2.197  11.316   5.563
36323SOL     OW10742   5.406  10.722   6.410
36323SOL    HW110743   5.411  10.798   6.351
36323SOL    HW210744   5.381  10.649   6.353
36324SOL     OW10745   0.826   4.945   0.173
36324SOL    HW110746   0.915   4.914   0.156
36324SOL    HW210747   0.779   4.931   0.090
36325SOL     OW10748  11.685   3.038   7.724
36325SOL    HW110749  11.754   3.070   7.782
36325SOL    HW210750  11.613   3.015   7.783
36326SOL     OW10751   7.297   1.903   1.433
36326SOL    HW110752   7.386   1.869   1.422
36326SOL    HW210753   7.288   1.918   1.527
36327SOL     OW10754   9.223  11.368   0.505
36327SOL    HW110755   9.318  11.360   0.514
36327SOL    HW210756   9.188  11.337   0.589
36328SOL     OW10757  12.128   7.157   3.871
36328SOL    HW110758  12.203   7.169   3.812
36328SOL    HW210759  12.166   7.123   3.952
36329SOL     OW10760   8.886   2.120   0.313
36329SOL    HW110761   8.829   2.072   0.373
36329SOL    HW210762   8.974   2.098   0.341
36330SOL     OW10763  12.928  13.408  12.182
36330SOL    HW110764  12.857  13.348  12.204
36330SOL    HW210765  13.004  13.351  12.166
36331SOL     OW10766   6.081   4.367   3.768
36331SOL    HW110767   6.091   4.294   3.830
36331SOL    HW210768   6.012   4.421   3.805
36332SOL     OW10769   6.423  10.399   1.832
36332SOL    HW110770   6.510  10.425   1.865
36332SOL    HW210771   6.418  10.439   1.745
36333SOL     OW10772   7.311   9.193   9.613
36333SOL    HW110773   7.357   9.111   9.594
36333SOL    HW210774   7.245   9.168   9.678
36334SOL     OW10775  13.445  12.293   2.995
36334SOL    HW110776  13.478  12.360   2.935
36334SOL    HW210777  13.360  12.268   2.958
36335SOL     OW10778  13.575   5.613   3.680
36335SOL    HW110779  13.544   5.571   3.761
36335SOL    HW210780  13.651   5.664   3.707
36336SOL     OW10781   3.682   0.221  11.155
36336SOL    HW110782   3.638   0.163  11.217
36336SOL    HW210783   3.648   0.195  11.069
36337SOL     OW10784  14.126   5.080   7.193
36337SOL    HW110785  14.143   5.068   7.286
36337SOL    HW210786  14.108   4.991   7.161
36338SOL     OW10787   4.097   4.318   9.170
36338SOL    HW110788   4.128   4.371   9.096
36338SOL    HW210789   4.028   4.264   9.133
36339SOL     OW10790  11.098   6.369  11.411
36339SOL    HW110791  11.037   6.352  11.339
36339SOL    HW210792  11.135   6.283  11.433
36340SOL     OW10793   7.246  13.749  10.968
36340SOL    HW110794   7.287  13.680  10.916
36340SOL    HW210795   7.220  13.706  11.049
36341SOL     OW10796  14.769  10.800   0.685
36341SOL    HW110797  14.787  10.722   0.632
36341SOL    HW210798  14.846  10.809   0.741
36342SOL     OW10799   8.018   6.044  13.091
36342SOL    HW110800   8.043   6.061  13.000
36342SOL    HW210801   7.929   6.079  13.098
36343SOL     OW10802  12.934  13.483   8.882
36343SOL    HW110803  12.903  13.418   8.819
36343SOL    HW210804  13.017  13.515   8.846
36344SOL     OW10805   0.150  13.522  11.106
36344SOL    HW110806   0.096  13.601  11.120
36344SOL    HW210807   0.154  13.514  11.010
36345SOL     OW10808  14.823   1.043   7.750
36345SOL    HW110809  14.881   0.972   7.722
36345SOL    HW210810  14.746   1.035   7.694
36346SOL     OW10811  11.359  14.612  11.175
36346SOL    HW110812  11.447  14.591  11.141
36346SOL    HW210813  11.309  14.532  11.160
36347SOL     OW10814  11.025   4.829   0.224
36347SOL    HW110815  10.954   4.893   0.215
36347SOL    HW210816  11.069   4.829   0.139
36348SOL     OW10817   8.203  14.553   4.942
36348SOL    HW110818   8.118  14.541   4.898
36348SOL    HW210819   8.189  14.626   5.002
36349SOL     OW10820   2.147  10.553  14.355
36349SOL    HW110821   2.234  10.523  14.331
36349SOL    HW210822   2.156  10.648  14.369
36350SOL     OW10823   7.189  11.366  10.782
36350SOL    HW110824   7.277  11.357  10.819
36350SOL    HW210825   7.202  11.359  10.687
36351SOL     OW10826   0.785  12.591   1.303
36351SOL    HW110827   0.782  12.519   1.367
36351SOL    HW210828   0.694  12.602   1.276
36352SOL     OW10829  10.321  13.865  12.490
36352SOL    HW110830  10.303  13.801  12.559
36352SOL    HW210831  10.408  13.841  12.458
36353SOL     OW10832   3.127   7.786  13.181
36353SOL    HW110833   3.182   7.861  13.201
36353SOL    HW210834   3.156   7.717  13.241
36354SOL     OW10835   0.587   1.673   1.609
36354SOL    HW110836   0.526   1.649   1.540
36354SOL    HW210837   0.551   1.754   1.646
36355SOL     OW10838   9.577   9.476   1.758
36355SOL    HW110839   9.638   9.431   1.817
36355SOL    HW210840   9.568   9.563   1.797
36356SOL     OW10841   3.023   5.183   1.060
36356SOL    HW110842   3.045   5.246   1.129
36356SOL    HW210843   2.931   5.200   1.041
36357SOL     OW10844   3.119   5.855   6.618
36357SOL    HW110845   3.169   5.937   6.625
36357SOL    HW210846   3.043   5.868   6.673
36358SOL     OW10847   0.598   0.884  11.509
36358SOL    HW110848   0.585   0.844  11.595
36358SOL    HW210849   0.647   0.819  11.459
36359SOL     OW10850   9.113  10.298   8.045
36359SOL    HW110851   9.032  10.320   7.999
36359SOL    HW210852   9.146  10.220   8.000
36360SOL     OW10853   3.173  13.720   0.123
36360SOL    HW110854   3.228  13.642   0.125
36360SOL    HW210855   3.147  13.733   0.215
36361SOL     OW10856   7.879   6.709   3.082
36361SOL    HW110857   7.963   6.662   3.081
36361SOL    HW210858   7.873   6.746   3.170
36362SOL     OW10859  12.462  11.124   7.571
36362SOL    HW110860  12.466  11.155   7.480
36362SOL    HW210861  12.498  11.036   7.568
36363SOL     OW10862   3.549   0.680  13.146
36363SOL    HW110863   3.529   0.600  13.096
36363SOL    HW210864   3.622   0.655  13.203
36364SOL     OW10865  10.416   4.950  10.978
36364SOL    HW110866  10.466   4.869  10.989
36364SOL    HW210867  10.361   4.956  11.055
36365SOL     OW10868   0.841   2.214   5.390
36365SOL    HW110869   0.758   2.185   5.352
36365SOL    HW210870   0.904   2.147   5.365
36366SOL     OW10871  13.361  12.181  12.879
36366SOL    HW110872  13.352  12.093  12.841
36366SOL    HW210873  13.411  12.230  12.814
36367SOL     OW10874  13.847  11.860   8.296
36367SOL    HW110875  13.887  11.848   8.383
36367SOL    HW210876  13.826  11.771   8.268
36368SOL     OW10877   6.593   5.675   3.475
36368SOL    HW110878   6.655   5.655   3.404
36368SOL    HW210879   6.509   5.689   3.430
36369SOL     OW10880   1.198   9.091   6.370
36369SOL    HW110881   1.163   9.177   6.396
36369SOL    HW210882   1.127   9.030   6.387
36370SOL     OW10883   3.975  14.226   0.082
36370SOL    HW110884   4.051  14.280   0.061
36370SOL    HW210885   4.011  14.145   0.115
36371SOL     OW10886   5.029  13.341  11.242
36371SOL    HW110887   5.057  13.357  11.152
36371SOL    HW210888   5.065  13.255  11.264
36372SOL     OW10889  13.231   5.538  12.459
36372SOL    HW110890  13.287   5.551  12.535
36372SOL    HW210891  13.220   5.443  12.452
36373SOL     OW10892  14.691   2.672   9.682
36373SOL    HW110893  14.671   2.590   9.636
36373SOL    HW210894  14.783   2.664   9.706
36374SOL     OW10895  11.876   5.905  13.856
36374SOL    HW110896  11.942   5.887  13.923
36374SOL    HW210897  11.817   5.968  13.897
36375SOL     OW10898  10.096   4.614  11.349
36375SOL    HW110899  10.142   4.698  11.337
36375SOL    HW210900  10.011   4.628  11.308
36376SOL     OW10901  14.153   9.262   8.944
36376SOL    HW110902  14.074   9.210   8.955
36376SOL    HW210903  14.121   9.350   8.924
36377SOL     OW10904  13.360  12.965   8.609
36377SOL    HW110905  13.394  12.983   8.697
36377SOL    HW210906  13.380  13.044   8.559
36378SOL     OW10907  10.201   9.650   8.174
36378SOL    HW110908  10.125   9.626   8.121
36378SOL    HW210909  10.275   9.609   8.129
36379SOL     OW10910   3.430   6.452   8.506
36379SOL    HW110911   3.466   6.442   8.418
36379SOL    HW210912   3.342   6.488   8.493
36380SOL     OW10913   7.156  10.100  10.069
36380SOL    HW110914   7.200  10.014  10.071
36380SOL    HW210915   7.219  10.159  10.109
36381SOL     OW10916  14.609   7.839   1.921
36381SOL    HW110917  14.525   7.830   1.876
36381SOL    HW210918  14.604   7.781   1.996
36382SOL     OW10919  12.384   7.411   6.018
36382SOL    HW110920  12.414   7.361   6.093
36382SOL    HW210921  12.416   7.363   5.942
36383SOL     OW10922   6.421  11.561  10.889
36383SOL    HW110923   6.441  11.547  10.982
36383SOL    HW210924   6.393  11.475  10.858
36384SOL     OW10925   4.984  10.146   0.723
36384SOL    HW110926   4.919  10.076   0.710
36384SOL    HW210927   5.039  10.113   0.794
36385SOL     OW10928   1.741   8.280   1.331
36385SOL    HW110929   1.664   8.320   1.290
36385SOL    HW210930   1.760   8.203   1.276
36386SOL     OW10931   3.593   4.393  12.455
36386SOL    HW110932   3.607   4.450  12.530
36386SOL    HW210933   3.516   4.341  12.478
36387SOL     OW10934   2.401  10.827  12.545
36387SOL    HW110935   2.344  10.815  12.621
36387SOL    HW210936   2.474  10.767  12.559
36388SOL     OW10937   3.372   0.760  12.301
36388SOL    HW110938   3.332   0.680  12.335
36388SOL    HW210939   3.333   0.830  12.352
36389SOL     OW10940   2.468   3.582   9.366
36389SOL    HW110941   2.535   3.514   9.369
36389SOL    HW210942   2.509   3.653   9.316
36390SOL     OW10943  14.002   2.751   1.431
36390SOL    HW110944  14.032   2.733   1.520
36390SOL    HW210945  14.070   2.715   1.374
36391SOL     OW10946  14.617   9.886   0.933
36391SOL    HW110947  14.659   9.959   0.887
36391SOL    HW210948  14.563   9.928   1.000
36392SOL     OW10949  13.795  14.589   0.278
36392SOL    HW110950  13.868  14.650   0.272
36392SOL    HW210951  13.717  14.644   0.288
36393SOL     OW10952   0.723   5.182   0.254
36393SOL    HW110953   0.754   5.091   0.256
36393SOL    HW210954   0.694   5.195   0.164
36394SOL     OW10955  11.363   4.912   1.739
36394SOL    HW110956  11.454   4.937   1.729
36394SOL    HW210957  11.353   4.897   1.833
36395SOL     OW10958   3.645  13.837   5.039
36395SOL    HW110959   3.727  13.794   5.015
36395SOL    HW210960   3.656  13.927   5.007
36396SOL     OW10961   8.546  13.788  12.241
36396SOL    HW110962   8.490  13.712  12.228
36396SOL    HW210963   8.485  13.861  12.253
36397SOL     OW10964   6.410   7.552   0.937
36397SOL    HW110965   6.354   7.629   0.927
36397SOL    HW210966   6.481   7.581   0.994
36398SOL     OW10967   0.339   6.742   5.439
36398SOL    HW110968   0.356   6.808   5.371
36398SOL    HW210969   0.248   6.716   5.424
36399SOL     OW10970   2.695   9.173   7.951
36399SOL    HW110971   2.705   9.107   7.884
36399SOL    HW210972   2.616   9.221   7.926
36400SOL     OW10973  11.467   1.416   9.853
36400SOL    HW110974  11.472   1.496   9.906
36400SOL    HW210975  11.373   1.401   9.842
36401SOL     OW10976   6.045   5.953   5.861
36401SOL    HW110977   6.128   5.912   5.837
36401SOL    HW210978   6.024   6.010   5.786
36402SOL     OW10979   9.577   0.030   2.774
36402SOL    HW110980   9.545   0.081   2.699
36402SOL    HW210981   9.524   0.061   2.848
36403SOL     OW10982   8.033   7.199   4.120
36403SOL    HW110983   8.069   7.142   4.052
36403SOL    HW210984   7.938   7.189   4.113
36404SOL     OW10985  13.214  10.608   1.727
36404SOL    HW110986  13.265  10.623   1.806
36404SOL    HW210987  13.279  10.594   1.658
36405SOL     OW10988  14.509   3.825   2.916
36405SOL    HW110989  14.528   3.863   3.003
36405SOL    HW210990  14.423   3.786   2.926
36406SOL     OW10991  13.125   8.419   3.479
36406SOL    HW110992  13.052   8.462   3.524
36406SOL    HW210993  13.178   8.383   3.550
36407SOL     OW10994  11.194   4.737   1.070
36407SOL    HW110995  11.143   4.817   1.054
36407SOL    HW210996  11.241   4.722   0.988
36408SOL     OW10997   1.766  10.377  14.305
36408SOL    HW110998   1.699  10.431  14.348
36408SOL    HW210999   1.788  10.425  14.226
36409SOL     OW11000  14.348   0.663  12.181
36409SOL    HW111001  14.254   0.681  12.174
36409SOL    HW211002  14.379   0.664  12.090
36410SOL     OW11003   2.356  10.241  11.639
36410SOL    HW111004   2.381  10.279  11.555
36410SOL    HW211005   2.347  10.317  11.698
36411SOL     OW11006   9.307  14.764   6.927
36411SOL    HW111007   9.379  14.713   6.964
36411SOL    HW211008   9.314  14.849   6.969
36412SOL     OW11009   4.141  13.850   5.179
36412SOL    HW111010   4.188  13.786   5.232
36412SOL    HW211011   4.116  13.802   5.100
36413SOL     OW11012   7.379   8.762  12.596
36413SOL    HW111013   7.473   8.744  12.604
36413SOL    HW211014   7.339   8.676  12.586
36414SOL     OW11015  10.637   6.220   4.708
36414SOL    HW111016  10.664   6.249   4.795
36414SOL    HW211017  10.713   6.174   4.673
36415SOL     OW11018   2.021   2.089   3.173
36415SOL    HW111019   1.979   2.161   3.125
36415SOL    HW211020   2.080   2.132   3.234
36416SOL     OW11021   8.510   0.098   8.108
36416SOL    HW111022   8.535   0.164   8.043
36416SOL    HW211023   8.478   0.024   8.056
36417SOL     OW11024  10.165   7.720  14.559
36417SOL    HW111025  10.224   7.646  14.572
36417SOL    HW211026  10.089   7.700  14.614
36418SOL     OW11027  11.868   0.308   0.603
36418SOL    HW111028  11.940   0.297   0.542
36418SOL    HW211029  11.830   0.221   0.612
36419SOL     OW11030   0.170  11.201   0.883
36419SOL    HW111031   0.168  11.125   0.941
36419SOL    HW211032   0.262  11.213   0.862
36420SOL     OW11033   4.462  11.340   6.424
36420SOL    HW111034   4.381  11.302   6.388
36420SOL    HW211035   4.527  11.271   6.413
36421SOL     OW11036  12.751   1.934  12.383
36421SOL    HW111037  12.683   1.996  12.408
36421SOL    HW211038  12.759   1.876  12.459
36422SOL     OW11039   7.217   0.879  13.370
36422SOL    HW111040   7.183   0.796  13.405
36422SOL    HW211041   7.258   0.854  13.287
36423SOL     OW11042   1.524   8.461   5.896
36423SOL    HW111043   1.589   8.511   5.946
36423SOL    HW211044   1.510   8.382   5.948
36424SOL     OW11045   7.203   0.533   2.088
36424SOL    HW111046   7.123   0.581   2.108
36424SOL    HW211047   7.183   0.485   2.008
36425SOL     OW11048   5.128   1.866  13.326
36425SOL    HW111049   5.060   1.831  13.384
36425SOL    HW211050   5.157   1.946  13.370
36426SOL     OW11051  11.175  14.211  10.455
36426SOL    HW111052  11.150  14.122  10.482
36426SOL    HW211053  11.162  14.212  10.361
36427SOL     OW11054  12.841   0.855   7.456
36427SOL    HW111055  12.892   0.934   7.477
36427SOL    HW211056  12.904   0.784   7.464
36428SOL     OW11057   9.513   7.395   4.441
36428SOL    HW111058   9.517   7.359   4.353
36428SOL    HW211059   9.479   7.324   4.495
36429SOL     OW11060   0.114  10.506   6.082
36429SOL    HW111061   0.161  10.540   6.158
36429SOL    HW211062   0.171  10.439   6.045
36430SOL     OW11063   3.283   7.780  13.415
36430SOL    HW111064   3.209   7.770  13.476
36430SOL    HW211065   3.289   7.875  13.401
36431SOL     OW11066  12.217   9.213  13.548
36431SOL    HW111067  12.202   9.193  13.640
36431SOL    HW211068  12.259   9.299  13.549
36432SOL     OW11069   8.488   3.310   6.145
36432SOL    HW111070   8.497   3.390   6.093
36432SOL    HW211071   8.551   3.249   6.107
36433SOL     OW11072   4.367   6.585  10.217
36433SOL    HW111073   4.316   6.653  10.261
36433SOL    HW211074   4.313   6.561  10.142
36434SOL     OW11075  10.638   6.981   6.514
36434SOL    HW111076  10.591   6.899   6.527
36434SOL    HW211077  10.570   7.048   6.517
36435SOL     OW11078   9.024  14.360   6.114
36435SOL    HW111079   9.055  14.270   6.102
36435SOL    HW211080   8.932  14.357   6.090
36436SOL     OW11081   8.929  12.651  11.961
36436SOL    HW111082   8.889  12.573  11.999
36436SOL    HW211083   8.860  12.717  11.964
36437SOL     OW11084   0.997  14.225   2.136
36437SOL    HW111085   0.956  14.293   2.082
36437SOL    HW211086   1.051  14.273   2.199
36438SOL     OW11087   1.394   4.968   2.480
36438SOL    HW111088   1.480   5.002   2.455
36438SOL    HW211089   1.356   4.937   2.398
36439SOL     OW11090   4.095   6.664   5.725
36439SOL    HW111091   4.020   6.698   5.675
36439SOL    HW211092   4.171   6.708   5.686
36440SOL     OW11093   8.021   9.360  12.816
36440SOL    HW111094   8.115   9.373  12.802
36440SOL    HW211095   7.980   9.428  12.762
36441SOL     OW11096   0.320   7.751   1.338
36441SOL    HW111097   0.264   7.703   1.399
36441SOL    HW211098   0.274   7.834   1.324
36442SOL     OW11099  11.980  14.810   0.462
36442SOL    HW111100  11.907  14.752   0.486
36442SOL    HW211101  11.973   0.002   0.522
36443SOL     OW11102   1.334  11.308   1.617
36443SOL    HW111103   1.320  11.352   1.700
36443SOL    HW211104   1.344  11.215   1.641
36444SOL     OW11105  11.596   6.295  10.236
36444SOL    HW111106  11.505   6.322  10.248
36444SOL    HW211107  11.648   6.366  10.272
36445SOL     OW11108   1.205  10.037   3.752
36445SOL    HW111109   1.146  10.111   3.765
36445SOL    HW211110   1.156   9.961   3.784
36446SOL     OW11111  11.395  14.431   6.666
36446SOL    HW111112  11.476  14.393   6.630
36446SOL    HW211113  11.338  14.355   6.680
36447SOL     OW11114  10.186  13.920   1.712
36447SOL    HW111115  10.132  13.843   1.729
36447SOL    HW211116  10.253  13.890   1.651
36448SOL     OW11117  14.381  11.841   3.214
36448SOL    HW111118  14.416  11.880   3.294
36448SOL    HW211119  14.289  11.870   3.212
36449SOL     OW11120   3.909   8.053  12.824
36449SOL    HW111121   3.857   8.007  12.758
36449SOL    HW211122   3.993   8.071  12.780
36450SOL     OW11123   9.812   7.107   4.968
36450SOL    HW111124   9.818   7.014   4.946
36450SOL    HW211125   9.729   7.135   4.930
36451SOL     OW11126   4.586   0.896   6.680
36451SOL    HW111127   4.502   0.868   6.643
36451SOL    HW211128   4.572   0.895   6.774
36452SOL     OW11129  14.718   6.260   4.562
36452SOL    HW111130  14.712   6.230   4.652
36452SOL    HW211131  14.743   6.352   4.569
36453SOL     OW11132  14.348  13.258  14.174
36453SOL    HW111133  14.355  13.340  14.223
36453SOL    HW211134  14.342  13.285  14.082
36454SOL     OW11135   5.407  14.025   2.136
36454SOL    HW111136   5.437  13.941   2.100
36454SOL    HW211137   5.376  14.003   2.224
36455SOL     OW11138  13.387   6.161   6.472
36455SOL    HW111139  13.364   6.085   6.525
36455SOL    HW211140  13.330   6.231   6.504
36456SOL     OW11141   9.266  11.677  10.156
36456SOL    HW111142   9.327  11.728  10.102
36456SOL    HW211143   9.237  11.738  10.224
36457SOL     OW11144  13.406   5.776   3.978
36457SOL    HW111145  13.443   5.862   3.958
36457SOL    HW211146  13.316   5.795   4.005
36458SOL     OW11147   5.440   7.584   4.781
36458SOL    HW111148   5.379   7.605   4.710
36458SOL    HW211149   5.392   7.607   4.861
36459SOL     OW11150   6.094  14.289   2.795
36459SOL    HW111151   6.054  14.374   2.776
36459SOL    HW211152   6.029  14.225   2.764
36460SOL     OW11153   1.627  14.487  10.296
36460SOL    HW111154   1.572  14.532  10.231
36460SOL    HW211155   1.639  14.399  10.260
36461SOL     OW11156  10.931   6.230  13.103
36461SOL    HW111157  10.922   6.323  13.080
36461SOL    HW211158  11.015   6.224  13.147
36462SOL     OW11159  10.855   8.618  12.201
36462SOL    HW111160  10.948   8.624  12.224
36462SOL    HW211161  10.816   8.570  12.274
36463SOL     OW11162  11.730   0.997  10.008
36463SOL    HW111163  11.681   0.992   9.926
36463SOL    HW211164  11.768   0.910  10.019
36464SOL     OW11165   8.020   8.078  12.766
36464SOL    HW111166   7.958   8.009  12.788
36464SOL    HW211167   8.090   8.034  12.718
36465SOL     OW11168   4.152  12.962   1.239
36465SOL    HW111169   4.126  12.876   1.205
36465SOL    HW211170   4.163  12.948   1.333
36466SOL     OW11171  12.452   4.072   2.565
36466SOL    HW111172  12.431   4.017   2.489
36466SOL    HW211173  12.466   4.159   2.529
36467SOL     OW11174   5.153  12.422   8.118
36467SOL    HW111175   5.215  12.378   8.177
36467SOL    HW211176   5.203  12.494   8.081
36468SOL     OW11177   3.805  10.941  10.550
36468SOL    HW111178   3.807  11.033  10.577
36468SOL    HW211179   3.867  10.897  10.609
36469SOL     OW11180  14.235  11.970   7.207
36469SOL    HW111181  14.211  11.898   7.266
36469SOL    HW211182  14.216  11.936   7.119
36470SOL     OW11183   0.461   9.281   3.702
36470SOL    HW111184   0.463   9.264   3.607
36470SOL    HW211185   0.549   9.314   3.722
36471SOL     OW11186   3.551  13.361  12.502
36471SOL    HW111187   3.530  13.449  12.534
36471SOL    HW211188   3.640  13.345  12.534
36472SOL     OW11189  13.442   7.375  14.357
36472SOL    HW111190  13.479   7.293  14.326
36472SOL    HW211191  13.386   7.405  14.285
36473SOL     OW11192  12.557   7.384   7.031
36473SOL    HW111193  12.619   7.393   6.958
36473SOL    HW211194  12.591   7.443   7.099
36474SOL     OW11195   6.155  11.220   3.041
36474SOL    HW111196   6.060  11.231   3.034
36474SOL    HW211197   6.187  11.306   3.067
36475SOL     OW11198  10.664  11.154   2.760
36475SOL    HW111199  10.673  11.238   2.715
36475SOL    HW211200  10.715  11.093   2.707
36476SOL     OW11201   9.545   0.255   6.477
36476SOL    HW111202   9.463   0.208   6.461
36476SOL    HW211203   9.610   0.186   6.490
36477SOL     OW11204  13.476   6.082  10.937
36477SOL    HW111205  13.557   6.132  10.948
36477SOL    HW211206  13.431   6.125  10.865
36478SOL     OW11207   0.853  13.524   1.332
36478SOL    HW111208   0.771  13.508   1.285
36478SOL    HW211209   0.878  13.439   1.368
36479SOL     OW11210   9.871   2.553   2.603
36479SOL    HW111211   9.801   2.559   2.538
36479SOL    HW211212   9.946   2.520   2.555
36480SOL     OW11213  14.663  11.197  11.831
36480SOL    HW111214  14.580  11.181  11.785
36480SOL    HW211215  14.729  11.200  11.762
36481SOL     OW11216   6.994   6.966   3.719
36481SOL    HW111217   6.969   6.902   3.652
36481SOL    HW211218   7.089   6.957   3.726
36482SOL     OW11219  14.762   0.785   3.158
36482SOL    HW111220  14.668   0.786   3.178
36482SOL    HW211221  14.804   0.812   3.239
36483SOL     OW11222   9.911   4.754  14.368
36483SOL    HW111223   9.965   4.678  14.388
36483SOL    HW211224   9.868   4.732  14.285
36484SOL     OW11225   6.229   4.816   6.113
36484SOL    HW111226   6.172   4.767   6.053
36484SOL    HW211227   6.235   4.760   6.191
36485SOL     OW11228  14.873   8.173   8.366
36485SOL    HW111229  14.824   8.252   8.389
36485SOL    HW211230  14.849   8.156   8.275
36486SOL     OW11231   0.410  13.515   6.415
36486SOL    HW111232   0.364  13.431   6.421
36486SOL    HW211233   0.502  13.492   6.414
36487SOL     OW11234  11.770   1.936   3.644
36487SOL    HW111235  11.826   1.939   3.566
36487SOL    HW211236  11.687   1.975   3.616
36488SOL     OW11237  13.020  13.608   1.905
36488SOL    HW111238  12.972  13.639   1.828
36488SOL    HW211239  13.008  13.513   1.904
36489SOL     OW11240  11.713   9.763   1.832
36489SOL    HW111241  11.685   9.690   1.777
36489SOL    HW211242  11.641   9.826   1.827
36490SOL     OW11243   5.445   5.242   2.753
36490SOL    HW111244   5.506   5.213   2.686
36490SOL    HW211245   5.485   5.215   2.836
36491SOL     OW11246  10.143   0.074   1.835
36491SOL    HW111247  10.215   0.135   1.851
36491SOL    HW211248  10.064   0.128   1.843
36492SOL     OW11249   9.773   7.567   0.584
36492SOL    HW111250   9.731   7.541   0.665
36492SOL    HW211251   9.863   7.534   0.592
36493SOL     OW11252  10.205   1.070   4.882
36493SOL    HW111253  10.239   1.005   4.821
36493SOL    HW211254  10.210   1.028   4.968
36494SOL     OW11255  14.396  14.638   4.722
36494SOL    HW111256  14.485  14.634   4.687
36494SOL    HW211257  14.384  14.730   4.748
36495SOL     OW11258  14.474   1.793   8.671
36495SOL    HW111259  14.496   1.854   8.742
36495SOL    HW211260  14.557   1.781   8.624
36496SOL     OW11261   1.464   0.659   7.815
36496SOL    HW111262   1.524   0.621   7.751
36496SOL    HW211263   1.393   0.595   7.822
36497SOL     OW11264   1.030   4.064  10.408
36497SOL    HW111265   0.957   4.095  10.355
36497SOL    HW211266   1.067   3.991  10.359
36498SOL     OW11267  14.386  10.574  10.842
36498SOL    HW111268  14.329  10.649  10.858
36498SOL    HW211269  14.368  10.549  10.752
36499SOL     OW11270   0.333   2.393   9.956
36499SOL    HW111271   0.421   2.395   9.994
36499SOL    HW211272   0.345   2.352   9.871
36500SOL     OW11273   8.067   3.422   6.859
36500SOL    HW111274   8.050   3.357   6.791
36500SOL    HW211275   8.118   3.490   6.815
36501SOL     OW11276   1.410  10.986  11.451
36501SOL    HW111277   1.412  10.957  11.360
36501SOL    HW211278   1.351  11.061  11.451
36502SOL     OW11279   8.469  11.869  11.446
36502SOL    HW111280   8.483  11.964  11.447
36502SOL    HW211281   8.388  11.857  11.495
36503SOL     OW11282   1.731   2.597   0.186
36503SOL    HW111283   1.807   2.593   0.244
36503SOL    HW211284   1.709   2.690   0.180
36504SOL     OW11285   8.413   7.266  11.470
36504SOL    HW111286   8.345   7.199  11.480
36504SOL    HW211287   8.432   7.294  11.559
36505SOL     OW11288   7.218   3.734   4.417
36505SOL    HW111289   7.211   3.739   4.512
36505SOL    HW211290   7.288   3.796   4.394
36506SOL     OW11291  13.921   7.558   7.251
36506SOL    HW111292  13.920   7.552   7.155
36506SOL    HW211293  13.860   7.629   7.272
36507SOL     OW11294   3.438  14.527  11.272
36507SOL    HW111295   3.423  14.446  11.320
36507SOL    HW211296   3.507  14.571  11.320
36508SOL     OW11297   6.317   8.176   8.422
36508SOL    HW111298   6.310   8.221   8.338
36508SOL    HW211299   6.301   8.244   8.488
36509SOL     OW11300   8.313   8.416  11.345
36509SOL    HW111301   8.302   8.374  11.260
36509SOL    HW211302   8.233   8.396  11.393
36510SOL     OW11303  13.316   5.508   9.536
36510SOL    HW111304  13.287   5.562   9.462
36510SOL    HW211305  13.246   5.517   9.601
36511SOL     OW11306   6.440   2.017   8.247
36511SOL    HW111307   6.517   1.991   8.196
36511SOL    HW211308   6.392   1.935   8.262
36512SOL     OW11309  10.206  14.284  13.867
36512SOL    HW111310  10.116  14.281  13.897
36512SOL    HW211311  10.216  14.206  13.812
36513SOL     OW11312  11.388   5.199   6.208
36513SOL    HW111313  11.471   5.245   6.194
36513SOL    HW211314  11.414   5.112   6.239
36514SOL     OW11315   1.859  14.868  12.770
36514SOL    HW111316   1.858  14.781  12.811
36514SOL    HW211317   1.944   0.022  12.792
36515SOL     OW11318   1.715  12.303   4.622
36515SOL    HW111319   1.720  12.357   4.542
36515SOL    HW211320   1.767  12.351   4.686
36516SOL     OW11321   7.737  13.065  10.285
36516SOL    HW111322   7.758  13.060  10.192
36516SOL    HW211323   7.671  13.135  10.291
36517SOL     OW11324  14.025  12.876  14.388
36517SOL    HW111325  14.085  12.914  14.324
36517SOL    HW211326  14.043  12.924  14.469
36518SOL     OW11327   7.672  13.719  14.335
36518SOL    HW111328   7.631  13.655  14.394
36518SOL    HW211329   7.633  13.701  14.250
36519SOL     OW11330   5.197   9.886   4.667
36519SOL    HW111331   5.104   9.876   4.689
36519SOL    HW211332   5.197   9.941   4.589
36520SOL     OW11333   1.046  10.947   3.595
36520SOL    HW111334   0.986  11.016   3.622
36520SOL    HW211335   0.996  10.866   3.601
36521SOL     OW11336   1.355   7.533   7.414
36521SOL    HW111337   1.389   7.611   7.370
36521SOL    HW211338   1.419   7.464   7.394
36522SOL     OW11339   4.072   7.163  12.545
36522SOL    HW111340   3.992   7.168  12.493
36522SOL    HW211341   4.080   7.070  12.568
36523SOL     OW11342  12.332   5.566   5.956
36523SOL    HW111343  12.267   5.619   6.000
36523SOL    HW211344  12.392   5.538   6.025
36524SOL     OW11345  14.463   8.954   8.595
36524SOL    HW111346  14.497   8.892   8.659
36524SOL    HW211347  14.374   8.973   8.624
36525SOL     OW11348  13.840   2.931   0.390
36525SOL    HW111349  13.808   3.022   0.394
36525SOL    HW211350  13.822   2.896   0.477
36526SOL     OW11351  11.512  10.458   2.411
36526SOL    HW111352  11.593  10.459   2.359
36526SOL    HW211353  11.444  10.482   2.349
36527SOL     OW11354   8.500   5.787   9.113
36527SOL    HW111355   8.559   5.858   9.137
36527SOL    HW211356   8.443   5.825   9.046
36528SOL     OW11357   0.562   0.897   9.125
36528SOL    HW111358   0.558   0.985   9.088
36528SOL    HW211359   0.491   0.849   9.083
36529SOL     OW11360   7.453   3.558  11.525
36529SOL    HW111361   7.467   3.651  11.507
36529SOL    HW211362   7.467   3.549  11.619
36530SOL     OW11363   9.987   1.569  11.173
36530SOL    HW111364   9.897   1.598  11.161
36530SOL    HW211365  10.016   1.612  11.253
36531SOL     OW11366   9.986   6.217   8.645
36531SOL    HW111367   9.973   6.241   8.737
36531SOL    HW211368   9.899   6.190   8.615
36532SOL     OW11369  13.780   7.984   3.914
36532SOL    HW111370  13.810   7.918   3.975
36532SOL    HW211371  13.821   7.960   3.831
36533SOL     OW11372   6.323  10.029  10.817
36533SOL    HW111373   6.311  10.115  10.857
36533SOL    HW211374   6.372  10.047  10.736
36534SOL     OW11375   1.629   1.318   4.176
36534SOL    HW111376   1.722   1.342   4.178
36534SOL    HW211377   1.592   1.358   4.255
36535SOL     OW11378  13.472  13.839  11.526
36535SOL    HW111379  13.487  13.745  11.509
36535SOL    HW211380  13.427  13.870  11.448
36536SOL     OW11381   7.662  13.008   8.146
36536SOL    HW111382   7.593  13.073   8.160
36536SOL    HW211383   7.731  13.056   8.101
36537SOL     OW11384   6.123   4.279   8.434
36537SOL    HW111385   6.121   4.302   8.527
36537SOL    HW211386   6.099   4.186   8.431
36538SOL     OW11387  13.212   0.696   6.215
36538SOL    HW111388  13.156   0.772   6.196
36538SOL    HW211389  13.246   0.712   6.303
36539SOL     OW11390   5.114  14.038   6.318
36539SOL    HW111391   5.103  14.095   6.394
36539SOL    HW211392   5.184  14.078   6.267
36540SOL     OW11393   8.898  10.174   1.718
36540SOL    HW111394   8.805  10.184   1.736
36540SOL    HW211395   8.919  10.245   1.658
36541SOL     OW11396  13.069   6.431  11.128
36541SOL    HW111397  12.988   6.380  11.134
36541SOL    HW211398  13.043   6.514  11.088
36542SOL     OW11399   8.337  10.419   0.329
36542SOL    HW111400   8.275  10.349   0.349
36542SOL    HW211401   8.295  10.469   0.259
36543SOL     OW11402   4.971   5.275   9.135
36543SOL    HW111403   5.005   5.361   9.160
36543SOL    HW211404   5.041   5.236   9.082
36544SOL     OW11405   5.677  10.306   5.585
36544SOL    HW111406   5.646  10.257   5.661
36544SOL    HW211407   5.760  10.344   5.612
36545SOL     OW11408  10.457   6.094  11.677
36545SOL    HW111409  10.410   6.095  11.594
36545SOL    HW211410  10.466   6.001  11.698
36546SOL     OW11411   3.220   2.607  14.088
36546SOL    HW111412   3.262   2.588  14.004
36546SOL    HW211413   3.216   2.522  14.132
36547SOL     OW11414  12.465  10.675   3.257
36547SOL    HW111415  12.486  10.765   3.232
36547SOL    HW211416  12.539  10.623   3.224
36548SOL     OW11417  10.682   6.235  13.215
36548SOL    HW111418  10.625   6.202  13.145
36548SOL    HW211419  10.771   6.217  13.184
36549SOL     OW11420  10.418   4.024  10.887
36549SOL    HW111421  10.326   4.001  10.872
36549SOL    HW211422  10.464   3.993  10.810
36550SOL     OW11423   2.463  14.595   0.797
36550SOL    HW111424   2.463  14.499   0.788
36550SOL    HW211425   2.387  14.614   0.851
36551SOL     OW11426   1.547   6.662   5.031
36551SOL    HW111427   1.513   6.574   5.017
36551SOL    HW211428   1.597   6.657   5.112
36552SOL     OW11429   4.290   7.928   9.941
36552SOL    HW111430   4.361   7.970   9.991
36552SOL    HW211431   4.246   8.001   9.898
36553SOL     OW11432   3.797   3.687   1.008
36553SOL    HW111433   3.879   3.714   1.048
36553SOL    HW211434   3.732   3.750   1.040
36554SOL     OW11435   4.312   6.794   8.855
36554SOL    HW111436   4.347   6.854   8.921
36554SOL    HW211437   4.217   6.802   8.864
36555SOL     OW11438   8.217  11.076   7.225
36555SOL    HW111439   8.150  11.087   7.158
36555SOL    HW211440   8.255  10.989   7.208
36556SOL     OW11441   7.989   2.057  10.134
36556SOL    HW111442   8.027   2.068  10.222
36556SOL    HW211443   7.896   2.041  10.150
36557SOL     OW11444   4.463  12.807   0.576
36557SOL    HW111445   4.391  12.820   0.514
36557SOL    HW211446   4.514  12.887   0.571
36558SOL     OW11447   9.503  14.779   0.444
36558SOL    HW111448   9.426  14.805   0.495
36558SOL    HW211449   9.568  14.847   0.464
36559SOL     OW11450   7.500   9.239  13.503
36559SOL    HW111451   7.484   9.213  13.412
36559SOL    HW211452   7.564   9.310  13.496
36560SOL     OW11453  10.578   0.872   9.975
36560SOL    HW111454  10.593   0.785   9.939
36560SOL    HW211455  10.598   0.932   9.903
36561SOL     OW11456   6.027   8.025   1.612
36561SOL    HW111457   6.121   8.031   1.595
36561SOL    HW211458   6.014   8.078   1.691
36562SOL     OW11459   0.323   3.706   0.727
36562SOL    HW111460   0.322   3.612   0.710
36562SOL    HW211461   0.233   3.734   0.712
36563SOL     OW11462   4.577   7.758   3.670
36563SOL    HW111463   4.512   7.757   3.741
36563SOL    HW211464   4.529   7.728   3.593
36564SOL     OW11465   2.332   9.198  13.481
36564SOL    HW111466   2.329   9.194  13.576
36564SOL    HW211467   2.240   9.211  13.455
36565SOL     OW11468   3.651   7.210   0.579
36565SOL    HW111469   3.606   7.150   0.519
36565SOL    HW211470   3.716   7.254   0.524
36566SOL     OW11471   5.866  14.367  12.470
36566SOL    HW111472   5.837  14.422  12.397
36566SOL    HW211473   5.810  14.289  12.464
36567SOL     OW11474  14.038   3.901   8.312
36567SOL    HW111475  14.125   3.905   8.352
36567SOL    HW211476  13.993   3.980   8.343
36568SOL     OW11477  12.378   0.743  11.665
36568SOL    HW111478  12.302   0.764  11.719
36568SOL    HW211479  12.423   0.674  11.712
36569SOL     OW11480  14.411   3.068  13.341
36569SOL    HW111481  14.377   2.990  13.297
36569SOL    HW211482  14.495   3.040  13.378
36570SOL     OW11483  13.996   3.493  10.589
36570SOL    HW111484  13.961   3.463  10.673
36570SOL    HW211485  13.930   3.553  10.555
36571SOL     OW11486   4.569  11.290   2.008
36571SOL    HW111487   4.484  11.253   1.983
36571SOL    HW211488   4.551  11.381   2.030
36572SOL     OW11489  12.658   2.521   6.978
36572SOL    HW111490  12.701   2.440   6.951
36572SOL    HW211491  12.598   2.495   7.047
36573SOL     OW11492   1.364   9.853  13.584
36573SOL    HW111493   1.396   9.867  13.673
36573SOL    HW211494   1.337   9.761  13.583
36574SOL     OW11495   4.929   0.880  12.796
36574SOL    HW111496   4.901   0.915  12.711
36574SOL    HW211497   4.895   0.944  12.859
36575SOL     OW11498   9.745   6.431  13.690
36575SOL    HW111499   9.726   6.338  13.697
36575SOL    HW211500   9.664   6.474  13.716
36576SOL     OW11501  13.038   9.046   4.983
36576SOL    HW111502  13.127   9.052   5.017
36576SOL    HW211503  12.999   9.131   5.001
36577SOL     OW11504  11.501  11.790   4.514
36577SOL    HW111505  11.565  11.807   4.444
36577SOL    HW211506  11.432  11.740   4.470
36578SOL     OW11507   4.767   7.104   7.956
36578SOL    HW111508   4.790   7.015   7.980
36578SOL    HW211509   4.846   7.155   7.972
36579SOL     OW11510   4.913  13.847   0.376
36579SOL    HW111511   5.003  13.861   0.346
36579SOL    HW211512   4.883  13.769   0.329
36580SOL     OW11513   7.109   2.503  12.447
36580SOL    HW111514   7.141   2.451  12.521
36580SOL    HW211515   7.086   2.588  12.485
36581SOL     OW11516   3.235  12.222   4.479
36581SOL    HW111517   3.297  12.250   4.412
36581SOL    HW211518   3.189  12.301   4.504
36582SOL     OW11519  11.679   1.794   4.343
36582SOL    HW111520  11.616   1.722   4.339
36582SOL    HW211521  11.668   1.832   4.430
36583SOL     OW11522   1.682  11.748   7.692
36583SOL    HW111523   1.632  11.679   7.649
36583SOL    HW211524   1.758  11.762   7.635
36584SOL     OW11525  12.917   3.952   4.182
36584SOL    HW111526  12.829   3.923   4.159
36584SOL    HW211527  12.950   3.996   4.104
36585SOL     OW11528   0.343   9.555   3.507
36585SOL    HW111529   0.268   9.614   3.519
36585SOL    HW211530   0.394   9.565   3.587
36586SOL     OW11531   2.211   8.437   1.723
36586SOL    HW111532   2.199   8.357   1.672
36586SOL    HW211533   2.237   8.406   1.810
36587SOL     OW11534   5.597   5.968   3.584
36587SOL    HW111535   5.674   5.936   3.629
36587SOL    HW211536   5.585   6.057   3.616
36588SOL     OW11537   1.930   2.540   0.554
36588SOL    HW111538   1.994   2.573   0.617
36588SOL    HW211539   1.901   2.456   0.591
36589SOL     OW11540   4.247   2.135   5.962
36589SOL    HW111541   4.317   2.150   5.898
36589SOL    HW211542   4.278   2.177   6.042
36590SOL     OW11543   3.712   7.193  10.206
36590SOL    HW111544   3.644   7.221  10.267
36590SOL    HW211545   3.768   7.135  10.257
36591SOL     OW11546   5.763  13.746  11.024
36591SOL    HW111547   5.855  13.770  11.015
36591SOL    HW211548   5.764  13.670  11.082
36592SOL     OW11549   1.962   8.047  14.793
36592SOL    HW111550   1.873   8.081  14.786
36592SOL    HW211551   1.952   7.962  14.836
36593SOL     OW11552  14.170  10.552   4.686
36593SOL    HW111553  14.129  10.503   4.757
36593SOL    HW211554  14.141  10.508   4.606
36594SOL     OW11555   2.441   1.285   1.345
36594SOL    HW111556   2.389   1.353   1.301
36594SOL    HW211557   2.503   1.255   1.279
36595SOL     OW11558   9.518   5.999   7.618
36595SOL    HW111559   9.514   5.992   7.523
36595SOL    HW211560   9.461   6.072   7.640
36596SOL     OW11561   1.370  10.541   9.880
36596SOL    HW111562   1.331  10.504   9.959
36596SOL    HW211563   1.464  10.533   9.893
36597SOL     OW11564  11.616  10.676  13.072
36597SOL    HW111565  11.569  10.725  13.140
36597SOL    HW211566  11.641  10.594  13.114
36598SOL     OW11567   2.255  12.506  12.055
36598SOL    HW111568   2.332  12.513  12.111
36598SOL    HW211569   2.235  12.596  12.029
36599SOL     OW11570   8.081   8.915   4.616
36599SOL    HW111571   8.080   8.823   4.640
36599SOL    HW211572   8.166   8.947   4.645
36600SOL     OW11573  12.949  11.716  13.360
36600SOL    HW111574  13.033  11.741  13.320
36600SOL    HW211575  12.890  11.787  13.337
36601SOL     OW11576   6.779   2.682   4.755
36601SOL    HW111577   6.789   2.602   4.807
36601SOL    HW211578   6.821   2.750   4.809
36602SOL     OW11579   7.633   0.486   4.929
36602SOL    HW111580   7.574   0.414   4.907
36602SOL    HW211581   7.677   0.507   4.846
36603SOL     OW11582   0.148   2.462   9.270
36603SOL    HW111583   0.204   2.389   9.297
36603SOL    HW211584   0.185   2.539   9.313
36604SOL     OW11585  11.158   4.981   8.970
36604SOL    HW111586  11.130   4.958   9.058
36604SOL    HW211587  11.161   4.897   8.923
36605SOL     OW11588   2.319   9.949   2.600
36605SOL    HW111589   2.227   9.925   2.592
36605SOL    HW211590   2.366   9.878   2.556
36606SOL     OW11591  13.675   2.321   3.295
36606SOL    HW111592  13.696   2.385   3.363
36606SOL    HW211593  13.697   2.365   3.213
36607SOL     OW11594   2.249   7.267   9.996
36607SOL    HW111595   2.229   7.355   9.963
36607SOL    HW211596   2.344   7.266  10.007
36608SOL     OW11597  14.337   0.472   4.078
36608SOL    HW111598  14.357   0.497   4.168
36608SOL    HW211599  14.371   0.544   4.024
36609SOL     OW11600   2.838   8.700  10.192
36609SOL    HW111601   2.926   8.739  10.192
36609SOL    HW211602   2.836   8.646  10.270
36610SOL     OW11603   6.060   9.418   0.881
36610SOL    HW111604   5.986   9.465   0.843
36610SOL    HW211605   6.071   9.341   0.824
36611SOL     OW11606   8.915   3.606  12.749
36611SOL    HW111607   8.903   3.700  12.763
36611SOL    HW211608   8.943   3.572  12.834
36612SOL     OW11609   2.663  13.950   4.192
36612SOL    HW111610   2.734  13.979   4.250
36612SOL    HW211611   2.641  14.027   4.140
36613SOL     OW11612  14.101  13.281   1.254
36613SOL    HW111613  14.070  13.342   1.187
36613SOL    HW211614  14.194  13.304   1.265
36614SOL     OW11615  13.282  14.610   9.234
36614SOL    HW111616  13.354  14.644   9.287
36614SOL    HW211617  13.276  14.517   9.258
36615SOL     OW11618   4.054  10.178   4.158
36615SOL    HW111619   4.068  10.186   4.063
36615SOL    HW211620   4.069  10.086   4.177
36616SOL     OW11621   4.689   4.385  12.845
36616SOL    HW111622   4.785   4.378  12.847
36616SOL    HW211623   4.672   4.444  12.772
36617SOL     OW11624   3.273   5.616  13.058
36617SOL    HW111625   3.362   5.641  13.031
36617SOL    HW211626   3.280   5.603  13.153
36618SOL     OW11627   5.647   3.437   0.921
36618SOL    HW111628   5.601   3.520   0.905
36618SOL    HW211629   5.700   3.454   0.998
36619SOL     OW11630  12.180   5.430   9.064
36619SOL    HW111631  12.213   5.341   9.074
36619SOL    HW211632  12.258   5.485   9.057
36620SOL     OW11633   2.529  12.313  10.723
36620SOL    HW111634   2.616  12.276  10.711
36620SOL    HW211635   2.473  12.264  10.663
36621SOL     OW11636   4.341   1.617  12.863
36621SOL    HW111637   4.391   1.616  12.945
36621SOL    HW211638   4.341   1.526  12.834
36622SOL     OW11639  10.814  12.667  13.372
36622SOL    HW111640  10.761  12.587  13.369
36622SOL    HW211641  10.895  12.642  13.327
36623SOL     OW11642   5.752  12.985   9.748
36623SOL    HW111643   5.826  12.939   9.707
36623SOL    HW211644   5.695  13.009   9.675
36624SOL     OW11645   1.199   1.569   3.566
36624SOL    HW111646   1.132   1.501   3.569
36624SOL    HW211647   1.280   1.525   3.591
36625SOL     OW11648   9.894  12.638   0.170
36625SOL    HW111649   9.974  12.681   0.201
36625SOL    HW211650   9.916  12.605   0.083
36626SOL     OW11651   6.706   3.480   4.954
36626SOL    HW111652   6.723   3.574   4.948
36626SOL    HW211653   6.632   3.473   5.014
36627SOL     OW11654   9.633   9.180  13.138
36627SOL    HW111655   9.719   9.213  13.163
36627SOL    HW211656   9.576   9.257  13.137
36628SOL     OW11657  13.504   8.121   0.072
36628SOL    HW111658  13.479   8.137   0.163
36628SOL    HW211659  13.423   8.135   0.022
36629SOL     OW11660  11.834  11.500   5.044
36629SOL    HW111661  11.868  11.528   4.959
36629SOL    HW211662  11.871  11.562   5.107
36630SOL     OW11663  11.435  10.027   9.152
36630SOL    HW111664  11.414  10.098   9.092
36630SOL    HW211665  11.377  10.040   9.227
36631SOL     OW11666  10.309   1.482  12.304
36631SOL    HW111667  10.305   1.573  12.278
36631SOL    HW211668  10.218   1.457  12.321
36632SOL     OW11669   6.429   0.682   9.615
36632SOL    HW111670   6.486   0.606   9.618
36632SOL    HW211671   6.404   0.690   9.523
36633SOL     OW11672   7.903  14.503  14.004
36633SOL    HW111673   7.859  14.566  13.947
36633SOL    HW211674   7.834  14.442  14.029
36634SOL     OW11675   3.843   3.492   2.261
36634SOL    HW111676   3.873   3.580   2.282
36634SOL    HW211677   3.924   3.440   2.254
36635SOL     OW11678  13.782  12.439   0.789
36635SOL    HW111679  13.794  12.383   0.713
36635SOL    HW211680  13.851  12.505   0.782
36636SOL     OW11681  13.228   4.889   8.759
36636SOL    HW111682  13.241   4.803   8.799
36636SOL    HW211683  13.134   4.905   8.769
36637SOL     OW11684   7.324   5.089   2.383
36637SOL    HW111685   7.329   5.026   2.311
36637SOL    HW211686   7.260   5.154   2.353
36638SOL     OW11687  14.299  11.379  12.024
36638SOL    HW111688  14.214  11.338  12.008
36638SOL    HW211689  14.305  11.385  12.120
36639SOL     OW11690  14.068  14.249   5.014
36639SOL    HW111691  13.997  14.261   5.077
36639SOL    HW211692  14.114  14.333   5.013
36640SOL     OW11693  13.451   8.842   2.659
36640SOL    HW111694  13.519   8.874   2.600
36640SOL    HW211695  13.472   8.881   2.744
36641SOL     OW11696  14.458   2.682  12.915
36641SOL    HW111697  14.363   2.683  12.917
36641SOL    HW211698  14.481   2.591  12.894
36642SOL     OW11699   8.151   0.537  12.230
36642SOL    HW111700   8.150   0.485  12.149
36642SOL    HW211701   8.064   0.576  12.233
36643SOL     OW11702   8.500  13.667  13.853
36643SOL    HW111703   8.593  13.660  13.876
36643SOL    HW211704   8.460  13.590  13.893
36644SOL     OW11705   0.176   4.581   4.181
36644SOL    HW111706   0.216   4.648   4.126
36644SOL    HW211707   0.128   4.525   4.120
36645SOL     OW11708   5.582  12.160   4.163
36645SOL    HW111709   5.528  12.086   4.133
36645SOL    HW211710   5.544  12.236   4.120
36646SOL     OW11711   8.381   1.808   7.348
36646SOL    HW111712   8.296   1.813   7.392
36646SOL    HW211713   8.422   1.893   7.364
36647SOL     OW11714   0.903   2.457   5.684
36647SOL    HW111715   0.808   2.470   5.694
36647SOL    HW211716   0.915   2.363   5.693
36648SOL     OW11717  11.144   0.618  13.823
36648SOL    HW111718  11.073   0.555  13.809
36648SOL    HW211719  11.165   0.650  13.735
36649SOL     OW11720  14.784   2.551  10.831
36649SOL    HW111721  14.715   2.583  10.889
36649SOL    HW211722  14.854   2.524  10.890
36650SOL     OW11723  12.501   0.346   0.112
36650SOL    HW111724  12.568   0.359   0.045
36650SOL    HW211725  12.435   0.413   0.094
36651SOL     OW11726  13.282   4.763  13.242
36651SOL    HW111727  13.209   4.726  13.292
36651SOL    HW211728  13.285   4.710  13.162
36652SOL     OW11729  11.251   5.069   5.651
36652SOL    HW111730  11.265   5.047   5.743
36652SOL    HW211731  11.201   4.996   5.616
36653SOL     OW11732   5.030   5.250   8.230
36653SOL    HW111733   4.976   5.193   8.284
36653SOL    HW211734   5.110   5.264   8.281
36654SOL     OW11735  11.153   2.089   6.686
36654SOL    HW111736  11.106   2.173   6.691
36654SOL    HW211737  11.090   2.029   6.646
36655SOL     OW11738   0.979  11.685   6.576
36655SOL    HW111739   1.011  11.720   6.659
36655SOL    HW211740   1.037  11.612   6.556
36656SOL     OW11741  14.352   1.423   2.388
36656SOL    HW111742  14.437   1.452   2.355
36656SOL    HW211743  14.289   1.453   2.322
36657SOL     OW11744  13.343   3.989   5.948
36657SOL    HW111745  13.356   4.014   5.856
36657SOL    HW211746  13.427   4.007   5.990
36658SOL     OW11747   4.837   6.314   3.503
36658SOL    HW111748   4.797   6.259   3.436
36658SOL    HW211749   4.827   6.265   3.584
36659SOL     OW11750   9.115  10.973   6.175
36659SOL    HW111751   9.146  11.064   6.174
36659SOL    HW211752   9.130  10.942   6.086
36660SOL     OW11753   0.324   4.309   7.925
36660SOL    HW111754   0.335   4.359   7.844
36660SOL    HW211755   0.399   4.249   7.926
36661SOL     OW11756   7.509  10.861   7.673
36661SOL    HW111757   7.470  10.872   7.760
36661SOL    HW211758   7.495  10.946   7.630
36662SOL     OW11759  10.858  10.189   4.901
36662SOL    HW111760  10.820  10.143   4.976
36662SOL    HW211761  10.916  10.124   4.861
36663SOL     OW11762   0.154  12.224   6.169
36663SOL    HW111763   0.179  12.133   6.185
36663SOL    HW211764   0.087  12.242   6.235
36664SOL     OW11765   8.910   8.852  14.459
36664SOL    HW111766   8.851   8.927  14.462
36664SOL    HW211767   8.996   8.890  14.478
36665SOL     OW11768  13.101   1.024   5.749
36665SOL    HW111769  13.080   1.085   5.819
36665SOL    HW211770  13.027   0.963   5.747
36666SOL     OW11771   2.178   8.968   7.031
36666SOL    HW111772   2.210   9.031   7.096
36666SOL    HW211773   2.092   9.002   7.005
36667SOL     OW11774  10.373   5.627   9.757
36667SOL    HW111775  10.286   5.626   9.797
36667SOL    HW211776  10.356   5.628   9.663
36668SOL     OW11777  14.590  13.163   4.258
36668SOL    HW111778  14.537  13.203   4.327
36668SOL    HW211779  14.529  13.107   4.211
36669SOL     OW11780  12.164  10.769  14.404
36669SOL    HW111781  12.254  10.766  14.369
36669SOL    HW211782  12.108  10.771  14.327
36670SOL     OW11783   8.167   1.653  12.066
36670SOL    HW111784   8.242   1.680  12.119
36670SOL    HW211785   8.153   1.727  12.006
36671SOL     OW11786   9.028   0.840   4.154
36671SOL    HW111787   8.963   0.850   4.085
36671SOL    HW211788   9.029   0.747   4.175
36672SOL     OW11789  13.116   7.560  13.394
36672SOL    HW111790  13.084   7.497  13.459
36672SOL    HW211791  13.209   7.571  13.415
36673SOL     OW11792   4.818   5.338   8.898
36673SOL    HW111793   4.738   5.292   8.872
36673SOL    HW211794   4.816   5.339   8.993
36674SOL     OW11795   4.766   4.941  11.914
36674SOL    HW111796   4.820   4.918  11.838
36674SOL    HW211797   4.795   4.881  11.982
36675SOL     OW11798  13.649  14.610  14.506
36675SOL    HW111799  13.741  14.607  14.532
36675SOL    HW211800  13.644  14.685  14.446
36676SOL     OW11801   5.182  14.415   8.206
36676SOL    HW111802   5.173  14.385   8.297
36676SOL    HW211803   5.274  14.398   8.185
36677SOL     OW11804   5.358   5.963   3.100
36677SOL    HW111805   5.424   6.031   3.114
36677SOL    HW211806   5.360   5.911   3.181
36678SOL     OW11807  11.175  13.547  14.306
36678SOL    HW111808  11.090  13.575  14.339
36678SOL    HW211809  11.212  13.494  14.376
36679SOL     OW11810   9.410  11.737   9.719
36679SOL    HW111811   9.477  11.794   9.756
36679SOL    HW211812   9.447  11.649   9.726
36680SOL     OW11813  10.250   3.398  13.568
36680SOL    HW111814  10.297   3.342  13.507
36680SOL    HW211815  10.182   3.440  13.515
36681SOL     OW11816  14.601  10.242   4.448
36681SOL    HW111817  14.645  10.248   4.364
36681SOL    HW211818  14.625  10.323   4.493
36682SOL     OW11819   9.278   4.228   4.235
36682SOL    HW111820   9.367   4.245   4.265
36682SOL    HW211821   9.254   4.305   4.184
36683SOL     OW11822   2.195   3.096   2.889
36683SOL    HW111823   2.185   3.146   2.970
36683SOL    HW211824   2.260   3.144   2.838
36684SOL     OW11825   1.323  14.432   6.622
36684SOL    HW111826   1.367  14.371   6.681
36684SOL    HW211827   1.376  14.430   6.542
36685SOL     OW11828   8.072   5.496   9.677
36685SOL    HW111829   8.048   5.531   9.763
36685SOL    HW211830   8.097   5.572   9.626
36686SOL     OW11831  10.456   7.148  14.697
36686SOL    HW111832  10.545   7.152  14.661
36686SOL    HW211833  10.443   7.232  14.740
36687SOL     OW11834   4.385   8.404   9.371
36687SOL    HW111835   4.366   8.390   9.278
36687SOL    HW211836   4.443   8.480   9.373
36688SOL     OW11837  12.334   2.654   8.737
36688SOL    HW111838  12.380   2.735   8.757
36688SOL    HW211839  12.255   2.681   8.691
36689SOL     OW11840   6.898   2.521   3.826
36689SOL    HW111841   6.883   2.607   3.865
36689SOL    HW211842   6.989   2.501   3.846
36690SOL     OW11843  14.446   3.047   5.383
36690SOL    HW111844  14.437   2.991   5.461
36690SOL    HW211845  14.469   2.986   5.313
36691SOL     OW11846  14.394   2.272   6.897
36691SOL    HW111847  14.414   2.364   6.911
36691SOL    HW211848  14.472   2.225   6.926
36692SOL     OW11849   7.942   3.544  11.980
36692SOL    HW111850   7.978   3.506  12.060
36692SOL    HW211851   7.972   3.635  11.981
36693SOL     OW11852   9.939   9.451   8.954
36693SOL    HW111853   9.890   9.466   8.873
36693SOL    HW211854  10.025   9.490   8.938
36694SOL     OW11855  10.895  11.004  11.125
36694SOL    HW111856  10.871  10.915  11.098
36694SOL    HW211857  10.813  11.053  11.120
36695SOL     OW11858   1.806  14.176  11.615
36695SOL    HW111859   1.849  14.207  11.535
36695SOL    HW211860   1.849  14.093  11.635
36696SOL     OW11861   2.550  11.344   1.682
36696SOL    HW111862   2.482  11.304   1.735
36696SOL    HW211863   2.617  11.372   1.745
36697SOL     OW11864   1.369  11.308  10.443
36697SOL    HW111865   1.412  11.268  10.367
36697SOL    HW211866   1.375  11.241  10.511
36698SOL     OW11867   3.286   3.682  14.510
36698SOL    HW111868   3.324   3.687  14.598
36698SOL    HW211869   3.332   3.608  14.469
36699SOL     OW11870   6.987   0.825   6.209
36699SOL    HW111871   6.981   0.826   6.305
36699SOL    HW211872   7.079   0.807   6.191
36700SOL     OW11873  11.179  10.669  12.160
36700SOL    HW111874  11.237  10.712  12.097
36700SOL    HW211875  11.196  10.714  12.243
36701SOL     OW11876   4.785  11.406   8.587
36701SOL    HW111877   4.747  11.343   8.525
36701SOL    HW211878   4.817  11.351   8.659
36702SOL     OW11879   8.682   7.276   3.640
36702SOL    HW111880   8.645   7.308   3.558
36702SOL    HW211881   8.770   7.245   3.617
36703SOL     OW11882   6.568   9.292   6.505
36703SOL    HW111883   6.551   9.235   6.430
36703SOL    HW211884   6.483   9.333   6.524
36704SOL     OW11885   9.281   8.320   4.183
36704SOL    HW111886   9.299   8.239   4.135
36704SOL    HW211887   9.193   8.307   4.218
36705SOL     OW11888  14.111   8.464   6.306
36705SOL    HW111889  14.052   8.388   6.301
36705SOL    HW211890  14.077   8.525   6.240
36706SOL     OW11891   4.512   0.487   5.561
36706SOL    HW111892   4.602   0.513   5.583
36706SOL    HW211893   4.465   0.570   5.551
36707SOL     OW11894  10.774   8.062  13.745
36707SOL    HW111895  10.684   8.047  13.715
36707SOL    HW211896  10.766   8.076  13.839
36708SOL     OW11897   8.837  12.186  13.127
36708SOL    HW111898   8.833  12.205  13.033
36708SOL    HW211899   8.899  12.114  13.134
36709SOL     OW11900   1.743   8.830  10.071
36709SOL    HW111901   1.664   8.869  10.107
36709SOL    HW211902   1.712   8.758  10.016
36710SOL     OW11903  11.961   2.677   1.116
36710SOL    HW111904  11.879   2.648   1.078
36710SOL    HW211905  12.026   2.613   1.087
36711SOL     OW11906   6.921   8.349   0.817
36711SOL    HW111907   6.951   8.405   0.746
36711SOL    HW211908   6.866   8.283   0.774
36712SOL     OW11909   1.814  10.323   5.425
36712SOL    HW111910   1.873  10.351   5.355
36712SOL    HW211911   1.848  10.238   5.452
36713SOL     OW11912  10.865   2.936   5.730
36713SOL    HW111913  10.858   2.849   5.769
36713SOL    HW211914  10.848   2.997   5.802
36714SOL     OW11915  11.157   9.437   1.526
36714SOL    HW111916  11.195   9.384   1.597
36714SOL    HW211917  11.229   9.492   1.496
36715SOL     OW11918   1.149   7.163   4.234
36715SOL    HW111919   1.174   7.071   4.243
36715SOL    HW211920   1.218   7.201   4.179
36716SOL     OW11921  13.534   8.452   2.876
36716SOL    HW111922  13.515   8.402   2.956
36716SOL    HW211923  13.511   8.542   2.898
36717SOL     OW11924  12.042   9.238   9.381
36717SOL    HW111925  11.988   9.222   9.304
36717SOL    HW211926  12.008   9.178   9.447
36718SOL     OW11927   1.784  12.211   5.694
36718SOL    HW111928   1.845  12.170   5.756
36718SOL    HW211929   1.725  12.141   5.667
36719SOL     OW11930   9.666   7.564   6.993
36719SOL    HW111931   9.585   7.516   6.981
36719SOL    HW211932   9.734   7.506   6.960
36720SOL     OW11933   2.535   8.230   3.111
36720SOL    HW111934   2.462   8.215   3.171
36720SOL    HW211935   2.563   8.142   3.084
36721SOL     OW11936  12.851   6.916   6.169
36721SOL    HW111937  12.867   6.933   6.076
36721SOL    HW211938  12.814   6.998   6.202
36722SOL     OW11939   9.916   1.873  12.253
36722SOL    HW111940   9.979   1.878  12.181
36722SOL    HW211941   9.968   1.846  12.328
36723SOL     OW11942   5.329   0.851   6.522
36723SOL    HW111943   5.392   0.802   6.575
36723SOL    HW211944   5.264   0.786   6.495
36724SOL     OW11945   7.647   1.727   7.063
36724SOL    HW111946   7.635   1.711   6.970
36724SOL    HW211947   7.638   1.641   7.104
36725SOL     OW11948   3.144   2.159   0.020
36725SOL    HW111949   3.072   2.216  14.874
36725SOL    HW211950   3.205   2.218   0.064
36726SOL     OW11951  12.788   6.060  13.437
36726SOL    HW111952  12.836   5.980  13.461
36726SOL    HW211953  12.855   6.119  13.403
36727SOL     OW11954  12.183  13.797   9.310
36727SOL    HW111955  12.229  13.825   9.231
36727SOL    HW211956  12.225  13.714   9.334
36728SOL     OW11957  10.992  12.317   1.743
36728SOL    HW111958  11.007  12.370   1.664
36728SOL    HW211959  10.989  12.381   1.814
36729SOL     OW11960   1.649   7.585   6.931
36729SOL    HW111961   1.730   7.567   6.979
36729SOL    HW211962   1.679   7.613   6.844
36730SOL     OW11963   2.508   2.126   5.387
36730SOL    HW111964   2.508   2.187   5.313
36730SOL    HW211965   2.599   2.123   5.415
36731SOL     OW11966  14.653  12.771   2.351
36731SOL    HW111967  14.662  12.721   2.432
36731SOL    HW211968  14.562  12.800   2.351
36732SOL     OW11969   5.483   5.004  10.932
36732SOL    HW111970   5.563   4.984  10.883
36732SOL    HW211971   5.457   4.920  10.970
36733SOL     OW11972   8.642   6.628   0.878
36733SOL    HW111973   8.705   6.620   0.949
36733SOL    HW211974   8.644   6.543   0.833
36734SOL     OW11975   4.643  11.249  14.098
36734SOL    HW111976   4.566  11.225  14.047
36734SOL    HW211977   4.608  11.282  14.181
36735SOL     OW11978   6.752   8.785   5.369
36735SOL    HW111979   6.780   8.794   5.460
36735SOL    HW211980   6.801   8.852   5.322
36736SOL     OW11981  13.746   7.138  10.222
36736SOL    HW111982  13.796   7.102  10.149
36736SOL    HW211983  13.691   7.206  10.183
36737SOL     OW11984   3.097   4.058   7.182
36737SOL    HW111985   3.040   4.074   7.107
36737SOL    HW211986   3.174   4.015   7.144
36738SOL     OW11987   7.733   7.794   8.275
36738SOL    HW111988   7.720   7.706   8.311
36738SOL    HW211989   7.654   7.842   8.300
36739SOL     OW11990  11.713   6.031   5.549
36739SOL    HW111991  11.656   6.091   5.501
36739SOL    HW211992  11.653   5.974   5.597
36740SOL     OW11993  10.335  11.118   4.647
36740SOL    HW111994  10.264  11.091   4.589
36740SOL    HW211995  10.292  11.169   4.716
36741SOL     OW11996  12.984   9.780   3.729
36741SOL    HW111997  12.946   9.725   3.662
36741SOL    HW211998  13.077   9.786   3.706
36742SOL     OW11999   6.945   1.670  12.163
36742SOL    HW112000   6.887   1.645  12.091
36742SOL    HW212001   6.952   1.766  12.156
36743SOL     OW12002   4.006   4.817   7.942
36743SOL    HW112003   4.016   4.901   7.896
36743SOL    HW212004   3.972   4.758   7.876
36744SOL     OW12005  10.294  11.588  11.478
36744SOL    HW112006  10.280  11.548  11.564
36744SOL    HW212007  10.241  11.668  11.479
36745SOL     OW12008   8.820   1.079   8.377
36745SOL    HW112009   8.737   1.079   8.329
36745SOL    HW212010   8.887   1.075   8.308
36746SOL     OW12011   6.513   6.791   5.461
36746SOL    HW112012   6.606   6.812   5.469
36746SOL    HW212013   6.486   6.766   5.550
36747SOL     OW12014  10.110   9.931  10.337
36747SOL    HW112015  10.145   9.843  10.348
36747SOL    HW212016  10.104   9.943  10.242
36748SOL     OW12017  13.204  11.222  10.046
36748SOL    HW112018  13.204  11.193  10.137
36748SOL    HW212019  13.254  11.304  10.047
36749SOL     OW12020   0.176  12.049   1.043
36749SOL    HW112021   0.255  12.048   0.989
36749SOL    HW212022   0.208  12.032   1.132
36750SOL     OW12023  11.618   5.532  12.189
36750SOL    HW112024  11.582   5.566  12.107
36750SOL    HW212025  11.693   5.479  12.161
36751SOL     OW12026   5.222  13.450  10.191
36751SOL    HW112027   5.182  13.535  10.174
36751SOL    HW212028   5.162  13.406  10.251
36752SOL     OW12029   2.467   1.261   5.621
36752SOL    HW112030   2.516   1.201   5.677
36752SOL    HW212031   2.401   1.300   5.679
36753SOL     OW12032   8.811  14.544   7.347
36753SOL    HW112033   8.904  14.524   7.344
36753SOL    HW212034   8.771  14.466   7.386
36754SOL     OW12035   5.112   5.134   7.709
36754SOL    HW112036   5.123   5.197   7.780
36754SOL    HW212037   5.191   5.081   7.710
36755SOL     OW12038   2.298   3.393   6.614
36755SOL    HW112039   2.208   3.378   6.586
36755SOL    HW212040   2.328   3.467   6.561
36756SOL     OW12041   2.367   7.974   1.167
36756SOL    HW112042   2.458   8.002   1.153
36756SOL    HW212043   2.364   7.885   1.132
36757SOL     OW12044   1.614   3.656  12.236
36757SOL    HW112045   1.550   3.711  12.280
36757SOL    HW212046   1.680   3.717  12.203
36758SOL     OW12047   8.912   6.101   0.856
36758SOL    HW112048   8.932   6.024   0.909
36758SOL    HW212049   8.844   6.147   0.904
36759SOL     OW12050   1.818   8.194   1.601
36759SOL    HW112051   1.805   8.233   1.515
36759SOL    HW212052   1.739   8.140   1.615
36760SOL     OW12053   9.540  10.256  12.435
36760SOL    HW112054   9.511  10.175  12.477
36760SOL    HW212055   9.459  10.307  12.423
36761SOL     OW12056  11.475   4.157   4.675
36761SOL    HW112057  11.556   4.201   4.701
36761SOL    HW212058  11.438   4.125   4.756
36762SOL     OW12059   6.658   3.489   3.345
36762SOL    HW112060   6.651   3.460   3.435
36762SOL    HW212061   6.615   3.575   3.344
36763SOL     OW12062   1.220   8.818   1.960
36763SOL    HW112063   1.181   8.734   1.986
36763SOL    HW212064   1.207   8.874   2.036
36764SOL     OW12065   2.206   5.977   5.724
36764SOL    HW112066   2.124   6.003   5.682
36764SOL    HW212067   2.273   6.029   5.680
36765SOL     OW12068   7.448   5.542   0.582
36765SOL    HW112069   7.503   5.468   0.609
36765SOL    HW212070   7.389   5.555   0.656
36766SOL     OW12071  14.202   4.403   2.269
36766SOL    HW112072  14.208   4.467   2.198
36766SOL    HW212073  14.274   4.426   2.328
36767SOL     OW12074  12.608   1.876   4.313
36767SOL    HW112075  12.624   1.949   4.254
36767SOL    HW212076  12.623   1.912   4.401
36768SOL     OW12077   9.382   7.355   5.455
36768SOL    HW112078   9.317   7.424   5.468
36768SOL    HW212079   9.336   7.274   5.475
36769SOL     OW12080   8.480  13.657   3.985
36769SOL    HW112081   8.454  13.585   3.928
36769SOL    HW212082   8.576  13.660   3.978
36770SOL     OW12083   4.940   6.193   0.606
36770SOL    HW112084   4.987   6.263   0.558
36770SOL    HW212085   4.871   6.239   0.653
36771SOL     OW12086  14.877   4.887  13.744
36771SOL    HW112087  14.864   4.979  13.719
36771SOL    HW212088   0.040   4.848  13.670
36772SOL     OW12089   7.069  14.493   0.725
36772SOL    HW112090   6.988  14.451   0.753
36772SOL    HW212091   7.040  14.574   0.682
36773SOL     OW12092  12.419   2.390   8.133
36773SOL    HW112093  12.445   2.473   8.091
36773SOL    HW212094  12.329   2.404   8.160
36774SOL     OW12095  12.510  12.244   5.387
36774SOL    HW112096  12.526  12.262   5.480
36774SOL    HW212097  12.577  12.181   5.362
36775SOL     OW12098   6.338   1.348  11.385
36775SOL    HW112099   6.282   1.401  11.329
36775SOL    HW212100   6.397   1.411  11.426
36776SOL     OW12101  13.957   0.184   0.105
36776SOL    HW112102  13.866   0.193   0.135
36776SOL    HW212103  13.971   0.260   0.049
36777SOL     OW12104   8.343  12.365   3.314
36777SOL    HW112105   8.258  12.334   3.344
36777SOL    HW212106   8.336  12.460   3.315
36778SOL     OW12107  13.754   1.673   7.445
36778SOL    HW112108  13.761   1.743   7.380
36778SOL    HW212109  13.843   1.662   7.478
36779SOL     OW12110   1.700   3.555   4.989
36779SOL    HW112111   1.780   3.574   4.939
36779SOL    HW212112   1.639   3.624   4.963
36780SOL     OW12113   1.065   4.958  11.384
36780SOL    HW112114   1.020   5.032  11.425
36780SOL    HW212115   1.060   4.976  11.290
36781SOL     OW12116  10.425  13.062  12.440
36781SOL    HW112117  10.451  13.030  12.354
36781SOL    HW212118  10.449  13.154  12.440
36782SOL     OW12119   4.084   3.641   6.536
36782SOL    HW112120   4.083   3.722   6.587
36782SOL    HW212121   3.992   3.620   6.523
36783SOL     OW12122   7.932   5.605  10.720
36783SOL    HW112123   7.992   5.668  10.680
36783SOL    HW212124   7.871   5.582  10.650
36784SOL     OW12125  11.534   4.512   1.711
36784SOL    HW112126  11.599   4.442   1.711
36784SOL    HW212127  11.490   4.504   1.795
36785SOL     OW12128   7.323   7.145  12.710
36785SOL    HW112129   7.414   7.158  12.683
36785SOL    HW212130   7.283   7.101  12.636
36786SOL     OW12131  14.153  12.464   6.081
36786SOL    HW112132  14.219  12.527   6.109
36786SOL    HW212133  14.174  12.384   6.129
36787SOL     OW12134   4.051   3.856  11.721
36787SOL    HW112135   4.130   3.883  11.674
36787SOL    HW212136   4.018   3.782  11.670
36788SOL     OW12137   2.278   8.000  14.226
36788SOL    HW112138   2.207   8.063  14.221
36788SOL    HW212139   2.293   7.973  14.136
36789SOL     OW12140   5.546   3.694   3.661
36789SOL    HW112141   5.636   3.668   3.681
36789SOL    HW212142   5.544   3.704   3.566
36790SOL     OW12143  12.738   2.872   7.710
36790SOL    HW112144  12.808   2.806   7.711
36790SOL    HW212145  12.775   2.948   7.755
36791SOL     OW12146  12.034   8.343  10.012
36791SOL    HW112147  12.018   8.429   9.973
36791SOL    HW212148  11.976   8.340  10.088
36792SOL     OW12149  10.173  14.311  12.049
36792SOL    HW112150  10.260  14.291  12.017
36792SOL    HW212151  10.123  14.231  12.036
36793SOL     OW12152  10.513   1.495   9.739
36793SOL    HW112153  10.494   1.407   9.772
36793SOL    HW212154  10.609   1.497   9.733
36794SOL     OW12155  14.036  13.392   9.288
36794SOL    HW112156  14.129  13.370   9.285
36794SOL    HW212157  14.034  13.486   9.269
36795SOL     OW12158   5.917   0.800   7.590
36795SOL    HW112159   5.851   0.860   7.624
36795SOL    HW212160   5.948   0.841   7.509
36796SOL     OW12161  13.625   7.366   3.595
36796SOL    HW112162  13.720   7.361   3.594
36796SOL    HW212163  13.602   7.369   3.688
36797SOL     OW12164   9.115  13.036  13.650
36797SOL    HW112165   9.185  12.979  13.616
36797SOL    HW212166   9.072  12.983  13.717
36798SOL     OW12167  13.944  10.157  12.209
36798SOL    HW112168  14.010  10.197  12.151
36798SOL    HW212169  13.864  10.206  12.192
36799SOL     OW12170   1.652   0.753   8.296
36799SOL    HW112171   1.562   0.753   8.328
36799SOL    HW212172   1.647   0.790   8.208
36800SOL     OW12173   7.023   7.659   3.392
36800SOL    HW112174   6.989   7.576   3.424
36800SOL    HW212175   7.110   7.667   3.433
36801SOL     OW12176   8.242   8.020  14.034
36801SOL    HW112177   8.242   7.941  14.088
36801SOL    HW212178   8.307   8.001  13.965
36802SOL     OW12179   4.119   8.705  10.971
36802SOL    HW112180   4.156   8.785  11.010
36802SOL    HW212181   4.123   8.720  10.877
36803SOL     OW12182   2.759   8.407  14.101
36803SOL    HW112183   2.818   8.464  14.052
36803SOL    HW212184   2.675   8.415  14.056
36804SOL     OW12185   8.257  14.376  10.068
36804SOL    HW112186   8.284  14.405  10.155
36804SOL    HW212187   8.171  14.337  10.081
36805SOL     OW12188  12.082  11.758   5.478
36805SOL    HW112189  12.010  11.712   5.434
36805SOL    HW212190  12.097  11.707   5.558
36806SOL     OW12191  12.119   7.766   7.803
36806SOL    HW112192  12.202   7.737   7.840
36806SOL    HW212193  12.140   7.796   7.715
36807SOL     OW12194   7.942   8.992   0.572
36807SOL    HW112195   8.005   9.060   0.594
36807SOL    HW212196   7.880   9.034   0.512
36808SOL     OW12197   8.289   3.119  14.352
36808SOL    HW112198   8.235   3.055  14.305
36808SOL    HW212199   8.326   3.175  14.284
36809SOL     OW12200   4.492   2.838  11.885
36809SOL    HW112201   4.474   2.873  11.797
36809SOL    HW212202   4.476   2.744  11.878
36810SOL     OW12203   9.280   3.589   2.394
36810SOL    HW112204   9.191   3.597   2.429
36810SOL    HW212205   9.267   3.577   2.300
36811SOL     OW12206   6.038  10.239  13.869
36811SOL    HW112207   6.025  10.149  13.899
36811SOL    HW212208   5.951  10.267  13.839
36812SOL     OW12209   1.152   5.342  10.598
36812SOL    HW112210   1.068   5.388  10.599
36812SOL    HW212211   1.136   5.262  10.547
36813SOL     OW12212  11.261  10.164  11.867
36813SOL    HW112213  11.183  10.154  11.920
36813SOL    HW212214  11.308  10.082  11.877
36814SOL     OW12215   0.359   1.054   3.492
36814SOL    HW112216   0.420   1.088   3.557
36814SOL    HW212217   0.304   1.129   3.468
36815SOL     OW12218   2.840  12.428   5.128
36815SOL    HW112219   2.909  12.458   5.069
36815SOL    HW212220   2.869  12.343   5.160
36816SOL     OW12221  11.479  12.010   2.747
36816SOL    HW112222  11.567  12.011   2.709
36816SOL    HW212223  11.453  11.918   2.743
36817SOL     OW12224   3.675   2.065   0.002
36817SOL    HW112225   3.610   2.073  14.814
36817SOL    HW212226   3.755   2.102  14.845
36818SOL     OW12227  11.620   7.796   6.016
36818SOL    HW112228  11.540   7.791   6.067
36818SOL    HW212229  11.685   7.748   6.068
36819SOL     OW12230   9.018   4.595   1.192
36819SOL    HW112231   8.967   4.528   1.147
36819SOL    HW212232   8.985   4.678   1.158
36820SOL     OW12233  13.942   4.762   8.541
36820SOL    HW112234  13.973   4.688   8.592
36820SOL    HW212235  13.885   4.724   8.474
36821SOL     OW12236   3.378  13.146   1.865
36821SOL    HW112237   3.326  13.068   1.846
36821SOL    HW212238   3.464  13.112   1.888
36822SOL     OW12239   8.708   1.847   0.644
36822SOL    HW112240   8.771   1.807   0.704
36822SOL    HW212241   8.744   1.933   0.624
36823SOL     OW12242  11.975   3.217   2.990
36823SOL    HW112243  12.012   3.191   3.074
36823SOL    HW212244  11.889   3.252   3.012
36824SOL     OW12245  11.204  10.039  11.033
36824SOL    HW112246  11.144   9.966  11.021
36824SOL    HW212247  11.209  10.051  11.128
36825SOL     OW12248  11.161   6.477   6.018
36825SOL    HW112249  11.178   6.448   6.107
36825SOL    HW212250  11.231   6.438   5.966
36826SOL     OW12251   9.568   3.341   5.619
36826SOL    HW112252   9.522   3.337   5.703
36826SOL    HW212253   9.650   3.295   5.634
36827SOL     OW12254   6.228   7.963  12.970
36827SOL    HW112255   6.163   8.029  12.949
36827SOL    HW212256   6.187   7.880  12.946
36828SOL     OW12257   7.581  12.896   9.095
36828SOL    HW112258   7.499  12.907   9.143
36828SOL    HW212259   7.642  12.956   9.138
36829SOL     OW12260  11.142  11.349  14.002
36829SOL    HW112261  11.061  11.312  13.968
36829SOL    HW212262  11.204  11.276  14.002
36830SOL     OW12263  12.505   7.711   6.691
36830SOL    HW112264  12.598   7.705   6.669
36830SOL    HW212265  12.496   7.797   6.733
36831SOL     OW12266   0.854  12.935  10.373
36831SOL    HW112267   0.938  12.892  10.391
36831SOL    HW212268   0.875  12.999  10.304
36832SOL     OW12269   7.639   3.607   0.211
36832SOL    HW112270   7.556   3.600   0.164
36832SOL    HW212271   7.642   3.529   0.266
36833SOL     OW12272   7.617  11.769   9.971
36833SOL    HW112273   7.630  11.824   9.893
36833SOL    HW212274   7.681  11.699   9.962
36834SOL     OW12275   7.852   5.909   2.827
36834SOL    HW112276   7.759   5.902   2.802
36834SOL    HW212277   7.890   5.967   2.761
36835SOL     OW12278   3.080  11.942   5.914
36835SOL    HW112279   3.080  11.868   5.854
36835SOL    HW212280   3.155  11.927   5.971
36836SOL     OW12281  12.403   5.215   2.379
36836SOL    HW112282  12.415   5.144   2.316
36836SOL    HW212283  12.443   5.291   2.337
36837SOL     OW12284  13.866   7.310  11.302
36837SOL    HW112285  13.801   7.297  11.233
36837SOL    HW212286  13.940   7.254  11.277
36838SOL     OW12287   8.666   8.036  10.147
36838SOL    HW112288   8.695   8.117  10.189
36838SOL    HW212289   8.740   8.010  10.092
36839SOL     OW12290  11.885   3.429   9.164
36839SOL    HW112291  11.861   3.479   9.086
36839SOL    HW212292  11.951   3.483   9.208
36840SOL     OW12293  10.562   6.618   6.305
36840SOL    HW112294  10.595   6.704   6.279
36840SOL    HW212295  10.623   6.588   6.372
36841SOL     OW12296  10.399  10.415   6.417
36841SOL    HW112297  10.456  10.410   6.341
36841SOL    HW212298  10.444  10.475   6.477
36842SOL     OW12299  13.571   4.374   6.079
36842SOL    HW112300  13.476   4.383   6.071
36842SOL    HW212301  13.606   4.440   6.021
36843SOL     OW12302   5.393   2.437  12.262
36843SOL    HW112303   5.373   2.445  12.355
36843SOL    HW212304   5.324   2.381  12.227
36844SOL     OW12305   5.855   4.675  11.946
36844SOL    HW112306   5.913   4.627  11.887
36844SOL    HW212307   5.803   4.732  11.889
36845SOL     OW12308   0.606   9.898   4.314
36845SOL    HW112309   0.557   9.816   4.317
36845SOL    HW212310   0.614   9.918   4.220
36846SOL     OW12311   3.803   0.300  10.856
36846SOL    HW112312   3.873   0.235  10.853
36846SOL    HW212313   3.795   0.332  10.766
36847SOL     OW12314  10.291  10.225  11.112
36847SOL    HW112315  10.332  10.148  11.151
36847SOL    HW212316  10.210  10.237  11.163
36848SOL     OW12317   4.477   9.410   8.073
36848SOL    HW112318   4.437   9.478   8.128
36848SOL    HW212319   4.547   9.456   8.027
36849SOL     OW12320   4.630  10.751   8.501
36849SOL    HW112321   4.544  10.723   8.532
36849SOL    HW212322   4.687  10.746   8.578
36850SOL     OW12323  10.903   7.342   5.014
36850SOL    HW112324  10.981   7.306   5.057
36850SOL    HW212325  10.842   7.358   5.086
36851SOL     OW12326  10.620   8.284   6.057
36851SOL    HW112327  10.688   8.325   6.109
36851SOL    HW212328  10.602   8.201   6.101
36852SOL     OW12329   1.362  10.120   9.454
36852SOL    HW112330   1.440  10.152   9.499
36852SOL    HW212331   1.386  10.121   9.361
36853SOL     OW12332   5.315  13.428  12.400
36853SOL    HW112333   5.406  13.399  12.399
36853SOL    HW212334   5.318  13.516  12.438
36854SOL     OW12335   8.216   9.776   8.916
36854SOL    HW112336   8.203   9.871   8.907
36854SOL    HW212337   8.128   9.740   8.908
36855SOL     OW12338   4.575  13.609   9.733
36855SOL    HW112339   4.561  13.539   9.796
36855SOL    HW212340   4.572  13.566   9.648
36856SOL     OW12341  14.799   5.997   4.413
36856SOL    HW112342  14.809   5.998   4.508
36856SOL    HW212343  14.779   5.906   4.391
36857SOL     OW12344  10.404   3.017   6.941
36857SOL    HW112345  10.475   3.072   6.909
36857SOL    HW212346  10.402   2.943   6.880
36858SOL     OW12347   7.912   1.100  10.163
36858SOL    HW112348   7.948   1.052  10.088
36858SOL    HW212349   7.990   1.131  10.210
36859SOL     OW12350   5.018   0.516   0.581
36859SOL    HW112351   4.949   0.503   0.517
36859SOL    HW212352   5.075   0.440   0.572
36860SOL     OW12353   2.237  14.460  10.545
36860SOL    HW112354   2.195  14.499  10.621
36860SOL    HW212355   2.272  14.376  10.577
36861SOL     OW12356   3.975   0.229  14.255
36861SOL    HW112357   4.026   0.155  14.288
36861SOL    HW212358   3.936   0.198  14.174
36862SOL     OW12359  11.480  11.363   6.903
36862SOL    HW112360  11.499  11.270   6.919
36862SOL    HW212361  11.451  11.366   6.812
36863SOL     OW12362  13.498   2.253  10.652
36863SOL    HW112363  13.558   2.248  10.727
36863SOL    HW212364  13.443   2.329  10.669
36864SOL     OW12365   0.755   4.222  12.752
36864SOL    HW112366   0.791   4.311  12.746
36864SOL    HW212367   0.679   4.223  12.694
36865SOL     OW12368   9.594   8.416   0.457
36865SOL    HW112369   9.510   8.460   0.441
36865SOL    HW212370   9.637   8.471   0.523
36866SOL     OW12371   1.322  13.820  10.820
36866SOL    HW112372   1.369  13.765  10.883
36866SOL    HW212373   1.240  13.775  10.805
36867SOL     OW12374  14.846   7.978   9.184
36867SOL    HW112375  14.855   7.897   9.235
36867SOL    HW212376  14.832   7.949   9.094
36868SOL     OW12377   9.005  10.884   1.872
36868SOL    HW112378   8.915  10.862   1.848
36868SOL    HW212379   9.051  10.800   1.873
36869SOL     OW12380   9.067   3.077  13.703
36869SOL    HW112381   9.147   3.061  13.752
36869SOL    HW212382   9.073   3.169  13.676
36870SOL     OW12383   1.086   3.568  14.193
36870SOL    HW112384   1.037   3.490  14.167
36870SOL    HW212385   1.020   3.638  14.194
36871SOL     OW12386   1.089  10.522  13.272
36871SOL    HW112387   1.149  10.476  13.330
36871SOL    HW212388   1.107  10.615  13.286
36872SOL     OW12389  13.273   1.841   0.901
36872SOL    HW112390  13.227   1.924   0.893
36872SOL    HW212391  13.287   1.830   0.995
36873SOL     OW12392   9.875  12.663  13.980
36873SOL    HW112393   9.824  12.693  14.055
36873SOL    HW212394   9.945  12.728  13.971
36874SOL     OW12395   2.705  10.249   0.096
36874SOL    HW112396   2.654  10.180   0.052
36874SOL    HW212397   2.757  10.202   0.161
36875SOL     OW12398   6.392   7.864  10.292
36875SOL    HW112399   6.392   7.780  10.339
36875SOL    HW212400   6.304   7.871  10.255
36876SOL     OW12401   8.341   0.988   7.612
36876SOL    HW112402   8.358   0.970   7.520
36876SOL    HW212403   8.421   1.030   7.644
36877SOL     OW12404   9.712   3.561   8.840
36877SOL    HW112405   9.619   3.561   8.818
36877SOL    HW212406   9.731   3.653   8.861
36878SOL     OW12407   7.760   2.279   4.799
36878SOL    HW112408   7.746   2.204   4.857
36878SOL    HW212409   7.822   2.334   4.847
36879SOL     OW12410   7.292  12.442   4.663
36879SOL    HW112411   7.348  12.519   4.664
36879SOL    HW212412   7.301  12.407   4.574
36880SOL     OW12413   9.136   1.015  13.569
36880SOL    HW112414   9.207   1.039  13.509
36880SOL    HW212415   9.056   1.036  13.520
36881SOL     OW12416   7.009  14.701   5.846
36881SOL    HW112417   7.056  14.771   5.891
36881SOL    HW212418   7.048  14.698   5.758
36882SOL     OW12419  12.467   4.470  14.415
36882SOL    HW112420  12.539   4.523  14.450
36882SOL    HW212421  12.465   4.392  14.470
36883SOL     OW12422  11.094  10.579   9.243
36883SOL    HW112423  11.177  10.543   9.210
36883SOL    HW212424  11.074  10.651   9.183
36884SOL     OW12425   6.499  13.087  14.123
36884SOL    HW112426   6.494  13.172  14.079
36884SOL    HW212427   6.548  13.104  14.203
36885SOL     OW12428  11.401   9.119  13.703
36885SOL    HW112429  11.469   9.051  13.708
36885SOL    HW212430  11.358   9.116  13.788
36886SOL     OW12431   6.012  14.812   7.898
36886SOL    HW112432   5.996  14.811   7.803
36886SOL    HW212433   6.017  14.720   7.922
36887SOL     OW12434   5.486  14.710   8.486
36887SOL    HW112435   5.445  14.701   8.572
36887SOL    HW212436   5.546  14.784   8.495
36888SOL     OW12437  11.455   7.470   8.516
36888SOL    HW112438  11.437   7.379   8.495
36888SOL    HW212439  11.368   7.511   8.521
36889SOL     OW12440   7.636   9.306  10.288
36889SOL    HW112441   7.679   9.365  10.226
36889SOL    HW212442   7.543   9.330  10.283
36890SOL     OW12443   9.151   0.294  11.737
36890SOL    HW112444   9.143   0.215  11.790
36890SOL    HW212445   9.210   0.351  11.787
36891SOL     OW12446   6.793  14.264   1.873
36891SOL    HW112447   6.719  14.215   1.837
36891SOL    HW212448   6.790  14.348   1.826
36892SOL     OW12449   4.625   5.294   6.942
36892SOL    HW112450   4.582   5.270   7.025
36892SOL    HW212451   4.596   5.227   6.880
36893SOL     OW12452   8.516   0.334   6.162
36893SOL    HW112453   8.611   0.340   6.176
36893SOL    HW212454   8.502   0.377   6.078
36894SOL     OW12455   9.049  11.798   0.962
36894SOL    HW112456   9.038  11.866   0.895
36894SOL    HW212457   9.068  11.719   0.913
36895SOL     OW12458   8.354   2.308  10.246
36895SOL    HW112459   8.445   2.294  10.272
36895SOL    HW212460   8.305   2.241  10.292
36896SOL     OW12461   4.195  14.476  10.784
36896SOL    HW112462   4.227  14.401  10.834
36896SOL    HW212463   4.225  14.552  10.833
36897SOL     OW12464  12.598   5.844  10.133
36897SOL    HW112465  12.533   5.781  10.163
36897SOL    HW212466  12.637   5.804  10.055
36898SOL     OW12467   6.114   1.813   8.021
36898SOL    HW112468   6.104   1.765   8.103
36898SOL    HW212469   6.142   1.901   8.048
36899SOL     OW12470   3.501  13.295   4.024
36899SOL    HW112471   3.526  13.356   3.954
36899SOL    HW212472   3.428  13.338   4.068
36900SOL     OW12473   4.852   0.041   6.824
36900SOL    HW112474   4.909   0.048   6.747
36900SOL    HW212475   4.846   0.130   6.857
36901SOL     OW12476  13.835   4.348  11.672
36901SOL    HW112477  13.768   4.280  11.682
36901SOL    HW212478  13.793   4.416  11.620
36902SOL     OW12479   6.491   4.687   1.570
36902SOL    HW112480   6.487   4.597   1.603
36902SOL    HW212481   6.403   4.722   1.588
36903SOL     OW12482  12.517  12.415  10.398
36903SOL    HW112483  12.586  12.481  10.392
36903SOL    HW212484  12.444  12.459  10.441
36904SOL     OW12485  14.194   6.402   6.857
36904SOL    HW112486  14.108   6.359   6.853
36904SOL    HW212487  14.225   6.401   6.766
36905SOL     OW12488   6.727   0.343  13.104
36905SOL    HW112489   6.732   0.431  13.141
36905SOL    HW212490   6.753   0.355  13.012
36906SOL     OW12491  12.297   7.243   6.833
36906SOL    HW112492  12.379   7.228   6.786
36906SOL    HW212493  12.305   7.332   6.867
36907SOL     OW12494   3.068   6.888  13.899
36907SOL    HW112495   3.031   6.830  13.966
36907SOL    HW212496   3.113   6.956  13.949
36908SOL     OW12497   5.961   9.700   3.667
36908SOL    HW112498   5.948   9.608   3.645
36908SOL    HW212499   5.927   9.709   3.756
36909SOL     OW12500   9.330  13.485   6.351
36909SOL    HW112501   9.408  13.454   6.305
36909SOL    HW212502   9.347  13.464   6.443
36910SOL     OW12503   0.054   9.701  10.640
36910SOL    HW112504   0.087   9.660  10.721
36910SOL    HW212505   0.080   9.793  10.647
36911SOL     OW12506  11.026   6.919   7.374
36911SOL    HW112507  11.071   6.989   7.326
36911SOL    HW212508  10.989   6.963   7.450
36912SOL     OW12509  13.865   1.941   6.686
36912SOL    HW112510  13.846   1.863   6.739
36912SOL    HW212511  13.793   1.946   6.623
36913SOL     OW12512  14.417   6.034   9.480
36913SOL    HW112513  14.396   5.941   9.491
36913SOL    HW212514  14.335   6.074   9.454
36914SOL     OW12515  10.290   8.510   4.636
36914SOL    HW112516  10.350   8.448   4.595
36914SOL    HW212517  10.272   8.575   4.567
36915SOL     OW12518  14.857   0.136  11.141
36915SOL    HW112519  14.863   0.040  11.142
36915SOL    HW212520   0.027   0.162  11.065
36916SOL     OW12521   1.033   0.319  14.190
36916SOL    HW112522   1.032   0.312  14.095
36916SOL    HW212523   1.115   0.275  14.216
36917SOL     OW12524   1.682  10.460   2.867
36917SOL    HW112525   1.735  10.535   2.837
36917SOL    HW212526   1.591  10.488   2.854
36918SOL     OW12527   2.052   2.671  10.107
36918SOL    HW112528   2.029   2.599  10.048
36918SOL    HW212529   1.971   2.720  10.119
36919SOL     OW12530   2.984   0.743  12.827
36919SOL    HW112531   3.056   0.804  12.812
36919SOL    HW212532   3.027   0.666  12.865
36920SOL     OW12533  11.681   7.347   8.583
36920SOL    HW112534  11.640   7.269   8.620
36920SOL    HW212535  11.608   7.407   8.567
36921SOL     OW12536   7.893   3.803   4.377
36921SOL    HW112537   7.891   3.714   4.342
36921SOL    HW212538   7.944   3.796   4.457
36922SOL     OW12539   1.315   9.520  11.060
36922SOL    HW112540   1.352   9.482  11.140
36922SOL    HW212541   1.274   9.446  11.015
36923SOL     OW12542  14.027   3.162  10.806
36923SOL    HW112543  14.089   3.171  10.878
36923SOL    HW212544  13.981   3.080  10.823
36924SOL     OW12545  13.399   5.024  12.301
36924SOL    HW112546  13.361   4.944  12.265
36924SOL    HW212547  13.354   5.035  12.385
36925SOL     OW12548  14.768   1.644  13.054
36925SOL    HW112549  14.680   1.668  13.083
36925SOL    HW212550  14.812   1.615  13.133
36926SOL     OW12551   8.926   0.735   6.254
36926SOL    HW112552   9.003   0.790   6.238
36926SOL    HW212553   8.888   0.770   6.335
36927SOL     OW12554  13.839  13.195  13.383
36927SOL    HW112555  13.802  13.113  13.349
36927SOL    HW212556  13.808  13.199  13.473
36928SOL     OW12557  13.169   5.503   4.288
36928SOL    HW112558  13.192   5.569   4.354
36928SOL    HW212559  13.094   5.457   4.325
36929SOL     OW12560  14.200   6.147   9.381
36929SOL    HW112561  14.115   6.104   9.377
36929SOL    HW212562  14.180   6.240   9.382
36930SOL     OW12563  10.329   9.881   8.794
36930SOL    HW112564  10.297   9.794   8.773
36930SOL    HW212565  10.269   9.940   8.748
36931SOL     OW12566   1.493  11.906   9.342
36931SOL    HW112567   1.427  11.868   9.400
36931SOL    HW212568   1.533  11.975   9.394
36932SOL     OW12569   7.267  10.797   5.872
36932SOL    HW112570   7.297  10.716   5.832
36932SOL    HW212571   7.232  10.771   5.957
36933SOL     OW12572  13.885  12.551   8.758
36933SOL    HW112573  13.941  12.479   8.729
36933SOL    HW212574  13.920  12.575   8.844
36934SOL     OW12575  11.441  11.416   4.645
36934SOL    HW112576  11.472  11.460   4.565
36934SOL    HW212577  11.451  11.482   4.714
36935SOL     OW12578  11.157  10.848  12.367
36935SOL    HW112579  11.081  10.808  12.409
36935SOL    HW212580  11.132  10.940  12.356
36936SOL     OW12581   4.727   2.247  13.286
36936SOL    HW112582   4.803   2.192  13.269
36936SOL    HW212583   4.652   2.190  13.272
36937SOL     OW12584   1.421  11.073  11.160
36937SOL    HW112585   1.432  10.983  11.129
36937SOL    HW212586   1.488  11.123  11.113
36938SOL     OW12587  13.100   1.957   4.312
36938SOL    HW112588  13.041   2.025   4.345
36938SOL    HW212589  13.066   1.935   4.226
36939SOL     OW12590  14.153  10.575   0.127
36939SOL    HW112591  14.178  10.505   0.067
36939SOL    HW212592  14.225  10.579   0.190
36940SOL     OW12593   3.929   5.330   1.869
36940SOL    HW112594   3.875   5.259   1.903
36940SOL    HW212595   3.865   5.394   1.835
36941SOL     OW12596   7.337   4.530   5.268
36941SOL    HW112597   7.353   4.525   5.363
36941SOL    HW212598   7.242   4.533   5.261
36942SOL     OW12599   0.935   5.317   8.605
36942SOL    HW112600   1.007   5.304   8.543
36942SOL    HW212601   0.915   5.229   8.637
36943SOL     OW12602   8.746   0.205  12.412
36943SOL    HW112603   8.824   0.260  12.408
36943SOL    HW212604   8.677   0.258  12.371
36944SOL     OW12605   2.944   9.334   5.318
36944SOL    HW112606   2.864   9.371   5.355
36944SOL    HW212607   2.976   9.402   5.258
36945SOL     OW12608   0.933  13.034   4.555
36945SOL    HW112609   1.014  13.085   4.545
36945SOL    HW212610   0.940  12.966   4.488
36946SOL     OW12611   8.694   5.301  13.749
36946SOL    HW112612   8.652   5.227  13.706
36946SOL    HW212613   8.624   5.340  13.803
36947SOL     OW12614   5.269   0.064  12.714
36947SOL    HW112615   5.228  14.860  12.726
36947SOL    HW212616   5.362   0.045  12.701
36948SOL     OW12617  13.281  11.736   4.702
36948SOL    HW112618  13.305  11.793   4.630
36948SOL    HW212619  13.364  11.716   4.746
36949SOL     OW12620   1.482  11.474  12.624
36949SOL    HW112621   1.515  11.444  12.538
36949SOL    HW212622   1.490  11.569  12.621
36950SOL     OW12623   2.803   9.462  11.932
36950SOL    HW112624   2.760   9.498  11.855
36950SOL    HW212625   2.800   9.534  11.996
36951SOL     OW12626  10.226   0.249   3.255
36951SOL    HW112627  10.257   0.293   3.175
36951SOL    HW212628  10.273   0.293   3.326
36952SOL     OW12629  11.211  10.742   6.602
36952SOL    HW112630  11.255  10.663   6.633
36952SOL    HW212631  11.276  10.785   6.547
36953SOL     OW12632  14.647  12.582   9.030
36953SOL    HW112633  14.722  12.530   9.000
36953SOL    HW212634  14.575  12.558   8.971
36954SOL     OW12635  13.311  12.316  12.571
36954SOL    HW112636  13.336  12.408  12.561
36954SOL    HW212637  13.357  12.271  12.499
36955SOL     OW12638  11.388   4.353   7.977
36955SOL    HW112639  11.420   4.404   8.052
36955SOL    HW212640  11.413   4.263   7.998
36956SOL     OW12641  12.936  11.800   1.285
36956SOL    HW112642  12.851  11.757   1.285
36956SOL    HW212643  12.918  11.890   1.313
36957SOL     OW12644   5.158   2.661   7.941
36957SOL    HW112645   5.241   2.690   7.902
36957SOL    HW212646   5.183   2.617   8.022
36958SOL     OW12647   1.317  14.503   1.610
36958SOL    HW112648   1.241  14.559   1.624
36958SOL    HW212649   1.281  14.421   1.576
36959SOL     OW12650  11.329   4.638   7.096
36959SOL    HW112651  11.288   4.722   7.073
36959SOL    HW212652  11.329   4.637   7.192
36960SOL     OW12653   7.005  12.103   1.588
36960SOL    HW112654   7.041  12.064   1.508
36960SOL    HW212655   6.980  12.029   1.643
36961SOL     OW12656  12.477   0.065   8.812
36961SOL    HW112657  12.528   0.053   8.732
36961SOL    HW212658  12.463   0.160   8.817
36962SOL     OW12659   9.035   3.157   2.992
36962SOL    HW112660   9.042   3.076   2.940
36962SOL    HW212661   8.997   3.220   2.932
36963SOL     OW12662  13.328   3.655  10.330
36963SOL    HW112663  13.253   3.698  10.290
36963SOL    HW212664  13.335   3.695  10.417
36964SOL     OW12665   9.859   6.332   0.132
36964SOL    HW112666   9.815   6.258   0.174
36964SOL    HW212667   9.862   6.400   0.200
36965SOL     OW12668   9.899   9.048   5.907
36965SOL    HW112669   9.964   8.980   5.925
36965SOL    HW212670   9.948   9.130   5.907
36966SOL     OW12671   2.947   5.318  10.480
36966SOL    HW112672   2.948   5.410  10.453
36966SOL    HW212673   3.012   5.312  10.550
36967SOL     OW12674  11.717   1.225  13.619
36967SOL    HW112675  11.774   1.153  13.591
36967SOL    HW212676  11.653   1.183  13.677
36968SOL     OW12677   7.191  13.761  13.507
36968SOL    HW112678   7.203  13.854  13.487
36968SOL    HW212679   7.102  13.742  13.478
36969SOL     OW12680   8.189   6.905   0.458
36969SOL    HW112681   8.192   6.974   0.525
36969SOL    HW212682   8.103   6.864   0.469
36970SOL     OW12683   5.832   1.818   3.805
36970SOL    HW112684   5.768   1.826   3.876
36970SOL    HW212685   5.793   1.866   3.732
36971SOL     OW12686   2.358   8.943   8.189
36971SOL    HW112687   2.263   8.952   8.179
36971SOL    HW212688   2.394   9.023   8.150
36972SOL     OW12689   0.140  14.153  14.232
36972SOL    HW112690   0.226  14.166  14.272
36972SOL    HW212691   0.158  14.126  14.142
36973SOL     OW12692   6.548  13.350   1.677
36973SOL    HW112693   6.627  13.348   1.731
36973SOL    HW212694   6.484  13.398   1.729
36974SOL     OW12695   5.652   4.587   0.558
36974SOL    HW112696   5.697   4.572   0.641
36974SOL    HW212697   5.721   4.584   0.492
36975SOL     OW12698  10.019   9.124   4.091
36975SOL    HW112699  10.043   9.036   4.062
36975SOL    HW212700   9.924   9.122   4.095
36976SOL     OW12701   9.889   4.230   6.528
36976SOL    HW112702   9.838   4.152   6.549
36976SOL    HW212703   9.970   4.196   6.490
36977SOL     OW12704  14.558   5.952  14.042
36977SOL    HW112705  14.483   5.968  13.985
36977SOL    HW212706  14.626   5.918  13.982
36978SOL     OW12707  12.754  12.757   3.178
36978SOL    HW112708  12.812  12.831   3.163
36978SOL    HW212709  12.704  12.747   3.097
36979SOL     OW12710  13.265   9.057  11.654
36979SOL    HW112711  13.231   9.045  11.566
36979SOL    HW212712  13.195   9.024  11.711
36980SOL     OW12713   2.894   0.315  10.930
36980SOL    HW112714   2.967   0.260  10.901
36980SOL    HW212715   2.825   0.300  10.866
36981SOL     OW12716   0.107   8.531   6.622
36981SOL    HW112717   0.122   8.436   6.618
36981SOL    HW212718   0.013   8.541   6.603
36982SOL     OW12719  12.208  13.421   9.964
36982SOL    HW112720  12.221  13.484  10.034
36982SOL    HW212721  12.297  13.395   9.939
36983SOL     OW12722  14.774   1.577  11.472
36983SOL    HW112723  14.712   1.505  11.458
36983SOL    HW212724  14.845   1.538  11.522
36984SOL     OW12725  14.521   3.915  10.670
36984SOL    HW112726  14.436   3.874  10.650
36984SOL    HW212727  14.583   3.872  10.612
36985SOL     OW12728   2.448   5.739   7.206
36985SOL    HW112729   2.382   5.761   7.271
36985SOL    HW212730   2.496   5.820   7.191
36986SOL     OW12731   8.959  13.901   0.800
36986SOL    HW112732   8.996  13.939   0.880
36986SOL    HW212733   8.910  13.973   0.760
36987SOL     OW12734   0.720   1.444   9.262
36987SOL    HW112735   0.799   1.406   9.301
36987SOL    HW212736   0.648   1.394   9.299
36988SOL     OW12737  10.493   8.892   7.753
36988SOL    HW112738  10.467   8.982   7.731
36988SOL    HW212739  10.417   8.839   7.731
36989SOL     OW12740   0.366   7.487  11.240
36989SOL    HW112741   0.280   7.475  11.281
36989SOL    HW212742   0.423   7.517  11.311
36990SOL     OW12743   6.444  11.298   7.617
36990SOL    HW112744   6.503  11.222   7.616
36990SOL    HW212745   6.430  11.318   7.525
36991SOL     OW12746  13.675  12.585   7.602
36991SOL    HW112747  13.582  12.570   7.623
36991SOL    HW212748  13.704  12.647   7.669
36992SOL     OW12749  10.929   3.301  12.722
36992SOL    HW112750  10.891   3.234  12.779
36992SOL    HW212751  11.021   3.306  12.749
36993SOL     OW12752   8.883  12.748   6.227
36993SOL    HW112753   8.829  12.669   6.234
36993SOL    HW212754   8.905  12.753   6.134
36994SOL     OW12755  11.391   9.457  12.152
36994SOL    HW112756  11.366   9.418  12.068
36994SOL    HW212757  11.407   9.549  12.132
36995SOL     OW12758   3.175  12.596  11.989
36995SOL    HW112759   3.270  12.592  11.993
36995SOL    HW212760   3.156  12.646  11.909
36996SOL     OW12761  10.313   5.010   8.678
36996SOL    HW112762  10.348   5.002   8.589
36996SOL    HW212763  10.332   5.101   8.703
36997SOL     OW12764   1.979   3.346   9.388
36997SOL    HW112765   2.036   3.279   9.351
36997SOL    HW212766   2.038   3.413   9.422
36998SOL     OW12767   6.693   6.067   7.116
36998SOL    HW112768   6.608   6.023   7.114
36998SOL    HW212769   6.679   6.144   7.172
36999SOL     OW12770   3.485   6.372  14.274
36999SOL    HW112771   3.572   6.351  14.309
36999SOL    HW212772   3.428   6.302  14.307
37000SOL     OW12773   4.029   0.851   0.735
37000SOL    HW112774   3.983   0.899   0.803
37000SOL    HW212775   4.120   0.850   0.764
37001SOL     OW12776   1.583   4.583  14.781
37001SOL    HW112777   1.609   4.573  14.873
37001SOL    HW212778   1.575   4.494  14.748
37002SOL     OW12779   7.344  12.500   3.446
37002SOL    HW112780   7.429  12.540   3.432
37002SOL    HW212781   7.289  12.571   3.479
37003SOL     OW12782  13.284   4.542   1.621
37003SOL    HW112783  13.265   4.539   1.714
37003SOL    HW212784  13.248   4.461   1.586
37004SOL     OW12785   5.032   1.998   0.990
37004SOL    HW112786   5.108   1.940   0.996
37004SOL    HW212787   4.959   1.945   1.022
37005SOL     OW12788  12.031   6.604   6.447
37005SOL    HW112789  12.101   6.585   6.385
37005SOL    HW212790  12.026   6.700   6.450
37006SOL     OW12791   7.856  11.661  11.508
37006SOL    HW112792   7.778  11.675  11.562
37006SOL    HW212793   7.841  11.577  11.464
37007SOL     OW12794   4.089  14.449   3.271
37007SOL    HW112795   4.169  14.486   3.234
37007SOL    HW212796   4.022  14.514   3.254
37008SOL     OW12797   4.266   6.687   7.903
37008SOL    HW112798   4.206   6.643   7.842
37008SOL    HW212799   4.221   6.683   7.988
37009SOL     OW12800  13.516  13.465  13.241
37009SOL    HW112801  13.609  13.466  13.216
37009SOL    HW212802  13.505  13.544  13.294
37010SOL     OW12803   6.866   1.032   3.493
37010SOL    HW112804   6.775   1.001   3.496
37010SOL    HW212805   6.904   0.984   3.419
37011SOL     OW12806   7.580   5.269   7.556
37011SOL    HW112807   7.537   5.213   7.621
37011SOL    HW212808   7.510   5.298   7.499
37012SOL     OW12809   6.507   2.687   9.879
37012SOL    HW112810   6.512   2.760   9.942
37012SOL    HW212811   6.576   2.627   9.907
37013SOL     OW12812  12.645   1.891  14.792
37013SOL    HW112813  12.709   1.834  14.750
37013SOL    HW212814  12.561   1.846  14.781
37014SOL     OW12815  12.243   9.704   2.962
37014SOL    HW112816  12.227   9.699   2.868
37014SOL    HW212817  12.294   9.784   2.974
37015SOL     OW12818   5.842   3.489   0.376
37015SOL    HW112819   5.836   3.479   0.471
37015SOL    HW212820   5.936   3.499   0.359
37016SOL     OW12821   8.858   7.488   2.797
37016SOL    HW112822   8.906   7.562   2.833
37016SOL    HW212823   8.925   7.421   2.782
37017SOL     OW12824  14.079   9.538  12.374
37017SOL    HW112825  14.015   9.574  12.436
37017SOL    HW212826  14.134   9.480  12.427
37018SOL     OW12827   5.628  13.140   5.046
37018SOL    HW112828   5.567  13.177   5.110
37018SOL    HW212829   5.589  13.163   4.961
37019SOL     OW12830   3.375  13.110   0.476
37019SOL    HW112831   3.307  13.072   0.421
37019SOL    HW212832   3.431  13.037   0.501
37020SOL     OW12833   8.088  13.182  10.200
37020SOL    HW112834   8.153  13.198  10.132
37020SOL    HW212835   8.094  13.089  10.218
37021SOL     OW12836  14.603  10.355  11.860
37021SOL    HW112837  14.634  10.355  11.770
37021SOL    HW212838  14.680  10.330  11.912
37022SOL     OW12839   8.122   8.301   0.394
37022SOL    HW112840   8.055   8.293   0.326
37022SOL    HW212841   8.079   8.269   0.473
37023SOL     OW12842   3.656   9.416   7.157
37023SOL    HW112843   3.591   9.356   7.194
37023SOL    HW212844   3.720   9.359   7.115
37024SOL     OW12845  14.006   2.316   0.661
37024SOL    HW112846  14.068   2.244   0.646
37024SOL    HW212847  14.061   2.393   0.675
37025SOL     OW12848   2.868   5.873   6.196
37025SOL    HW112849   2.833   5.937   6.134
37025SOL    HW212850   2.798   5.861   6.260
37026SOL     OW12851   0.102   8.823   1.013
37026SOL    HW112852   0.082   8.901   0.960
37026SOL    HW212853   0.097   8.751   0.951
37027SOL     OW12854   6.662   4.342   9.197
37027SOL    HW112855   6.629   4.428   9.222
37027SOL    HW212856   6.663   4.292   9.279
37028SOL     OW12857  12.198   3.167  10.921
37028SOL    HW112858  12.115   3.124  10.944
37028SOL    HW212859  12.259   3.138  10.988
37029SOL     OW12860   5.596   3.258  13.963
37029SOL    HW112861   5.583   3.302  13.879
37029SOL    HW212862   5.511   3.263  14.006
37030SOL     OW12863   3.450   7.990   5.265
37030SOL    HW112864   3.495   8.066   5.301
37030SOL    HW212865   3.377   7.974   5.325
37031SOL     OW12866   0.941   2.311  13.968
37031SOL    HW112867   0.887   2.382  14.005
37031SOL    HW212868   0.910   2.232  14.013
37032SOL     OW12869   1.839  13.529   8.661
37032SOL    HW112870   1.745  13.517   8.647
37032SOL    HW212871   1.845  13.595   8.730
37033SOL     OW12872   7.639   0.962  10.979
37033SOL    HW112873   7.688   0.898  10.926
37033SOL    HW212874   7.567   0.990  10.923
37034SOL     OW12875  12.449   7.169   2.191
37034SOL    HW112876  12.382   7.155   2.124
37034SOL    HW212877  12.419   7.118   2.266
37035SOL     OW12878   2.998  13.827   0.593
37035SOL    HW112879   3.011  13.733   0.604
37035SOL    HW212880   3.052  13.867   0.661
37036SOL     OW12881   1.909   0.493  12.319
37036SOL    HW112882   1.836   0.553  12.305
37036SOL    HW212883   1.873   0.407  12.298
37037SOL     OW12884  14.766   8.392   0.719
37037SOL    HW112885  14.850   8.368   0.758
37037SOL    HW212886  14.789   8.444   0.642
37038SOL     OW12887  13.927   1.963  13.891
37038SOL    HW112888  13.843   1.930  13.860
37038SOL    HW212889  13.961   2.015  13.818
37039SOL     OW12890  13.167   6.530  13.544
37039SOL    HW112891  13.222   6.467  13.591
37039SOL    HW212892  13.181   6.613  13.590
37040SOL     OW12893  11.510   6.961   7.791
37040SOL    HW112894  11.468   7.036   7.749
37040SOL    HW212895  11.438   6.903   7.816
37041SOL     OW12896   2.192  11.888  12.715
37041SOL    HW112897   2.205  11.970  12.762
37041SOL    HW212898   2.128  11.840  12.768
37042SOL     OW12899   6.975   3.703  13.862
37042SOL    HW112900   7.000   3.763  13.791
37042SOL    HW212901   6.879   3.699  13.857
37043SOL     OW12902   6.618   2.732   3.779
37043SOL    HW112903   6.693   2.754   3.835
37043SOL    HW212904   6.546   2.717   3.840
37044SOL     OW12905  14.015   5.181   6.230
37044SOL    HW112906  14.046   5.120   6.163
37044SOL    HW212907  13.925   5.153   6.247
37045SOL     OW12908   0.577   3.759  11.767
37045SOL    HW112909   0.545   3.769  11.857
37045SOL    HW212910   0.500   3.738  11.716
37046SOL     OW12911   8.167   8.181  12.130
37046SOL    HW112912   8.125   8.111  12.080
37046SOL    HW212913   8.259   8.178  12.102
37047SOL     OW12914   5.390  11.282  10.535
37047SOL    HW112915   5.343  11.360  10.508
37047SOL    HW212916   5.371  11.274  10.629
37048SOL     OW12917  14.525   4.593   9.342
37048SOL    HW112918  14.569   4.678   9.351
37048SOL    HW212919  14.566   4.553   9.265
37049SOL     OW12920   8.594   3.184   4.729
37049SOL    HW112921   8.609   3.224   4.643
37049SOL    HW212922   8.548   3.103   4.710
37050SOL     OW12923  13.132   5.055   9.523
37050SOL    HW112924  13.209   5.012   9.562
37050SOL    HW212925  13.110   5.125   9.584
37051SOL     OW12926   9.934   3.400   8.004
37051SOL    HW112927   9.996   3.373   8.072
37051SOL    HW212928   9.987   3.448   7.940
37052SOL     OW12929   8.423   9.052   3.089
37052SOL    HW112930   8.464   9.053   3.003
37052SOL    HW212931   8.330   9.065   3.072
37053SOL     OW12932  10.073  11.191   6.806
37053SOL    HW112933   9.998  11.162   6.859
37053SOL    HW212934  10.034  11.230   6.728
37054SOL     OW12935  14.821  14.284   2.596
37054SOL    HW112936   0.016  14.332   2.563
37054SOL    HW212937  14.802  14.219   2.528
37055SOL     OW12938  10.425  14.426   6.102
37055SOL    HW112939  10.365  14.355   6.125
37055SOL    HW212940  10.371  14.491   6.058
37056SOL     OW12941   7.541  13.482   5.944
37056SOL    HW112942   7.466  13.482   6.004
37056SOL    HW212943   7.590  13.561   5.967
37057SOL     OW12944  12.440   7.021   2.884
37057SOL    HW112945  12.413   6.995   2.796
37057SOL    HW212946  12.532   6.994   2.890
37058SOL     OW12947   2.609   9.764   9.801
37058SOL    HW112948   2.693   9.787   9.763
37058SOL    HW212949   2.545   9.812   9.749
37059SOL     OW12950   4.855   3.064  14.322
37059SOL    HW112951   4.809   3.021  14.250
37059SOL    HW212952   4.938   3.018  14.328
37060SOL     OW12953   5.719  13.380  11.954
37060SOL    HW112954   5.748  13.467  11.980
37060SOL    HW212955   5.626  13.378  11.977
37061SOL     OW12956  10.664   8.249   0.303
37061SOL    HW112957  10.708   8.277   0.384
37061SOL    HW212958  10.734   8.249   0.237
37062SOL     OW12959  13.008   2.691  11.083
37062SOL    HW112960  12.946   2.753  11.121
37062SOL    HW212961  13.059   2.742  11.021
37063SOL     OW12962   2.305   5.978   3.163
37063SOL    HW112963   2.376   6.041   3.178
37063SOL    HW212964   2.236   6.005   3.223
37064SOL     OW12965   5.285   7.488   2.259
37064SOL    HW112966   5.330   7.408   2.286
37064SOL    HW212967   5.217   7.457   2.199
37065SOL     OW12968   9.939   7.270   0.937
37065SOL    HW112969   9.874   7.200   0.937
37065SOL    HW212970   9.908   7.331   1.005
37066SOL     OW12971  12.282   7.719   2.705
37066SOL    HW112972  12.349   7.787   2.709
37066SOL    HW212973  12.207   7.756   2.752
37067SOL     OW12974  13.245   5.119   6.890
37067SOL    HW112975  13.271   5.043   6.838
37067SOL    HW212976  13.184   5.167   6.834
37068SOL     OW12977   8.931  14.056  14.771
37068SOL    HW112978   8.898  14.011  14.848
37068SOL    HW212979   8.857  14.108  14.740
37069SOL     OW12980  14.804  11.716   4.534
37069SOL    HW112981  14.808  11.766   4.616
37069SOL    HW212982  14.740  11.647   4.551
37070SOL     OW12983   7.457   7.485  12.770
37070SOL    HW112984   7.431   7.523  12.687
37070SOL    HW212985   7.375   7.467  12.816
37071SOL     OW12986   3.677   0.309  12.273
37071SOL    HW112987   3.734   0.337  12.345
37071SOL    HW212988   3.671   0.385  12.216
37072SOL     OW12989   2.534   1.818   7.872
37072SOL    HW112990   2.536   1.772   7.788
37072SOL    HW212991   2.600   1.887   7.863
37073SOL     OW12992  10.099   8.725  11.594
37073SOL    HW112993  10.160   8.783  11.548
37073SOL    HW212994  10.021   8.724  11.538
37074SOL     OW12995   7.510   5.286   4.748
37074SOL    HW112996   7.451   5.250   4.814
37074SOL    HW212997   7.549   5.363   4.789
37075SOL     OW12998   7.114   3.528   9.987
37075SOL    HW112999   7.031   3.567   9.959
37075SOL    HW213000   7.154   3.497   9.905
37076SOL     OW13001  12.497   8.568   4.754
37076SOL    HW113002  12.421   8.593   4.807
37076SOL    HW213003  12.480   8.478   4.729
37077SOL     OW13004   4.452  14.527  13.354
37077SOL    HW113005   4.420  14.452  13.406
37077SOL    HW213006   4.381  14.591  13.359
37078SOL     OW13007   1.232   8.747  14.326
37078SOL    HW113008   1.326   8.740  14.339
37078SOL    HW213009   1.209   8.833  14.362
37079SOL     OW13010   4.825   6.721   4.027
37079SOL    HW113011   4.920   6.715   4.017
37079SOL    HW213012   4.794   6.631   4.017
37080SOL     OW13013   5.806  10.897  12.822
37080SOL    HW113014   5.727  10.949  12.805
37080SOL    HW213015   5.781  10.839  12.894
37081SOL     OW13016   9.109   9.986  14.737
37081SOL    HW113017   9.143  10.072  14.712
37081SOL    HW213018   9.032   9.974  14.682
37082SOL     OW13019  13.642   6.376   6.945
37082SOL    HW113020  13.559   6.345   6.908
37082SOL    HW213021  13.626   6.380   7.039
37083SOL     OW13022   2.927   8.584  12.539
37083SOL    HW113023   2.971   8.666  12.560
37083SOL    HW213024   2.991   8.516  12.560
37084SOL     OW13025   0.243  14.809   6.751
37084SOL    HW113026   0.153  14.796   6.721
37084SOL    HW213027   0.266  14.727   6.794
37085SOL     OW13028   8.981   1.319   5.552
37085SOL    HW113029   8.992   1.280   5.638
37085SOL    HW213030   8.887   1.334   5.543
37086SOL     OW13031  14.752   6.502   4.732
37086SOL    HW113032  14.770   6.434   4.796
37086SOL    HW213033  14.691   6.562   4.776
37087SOL     OW13034   1.904  14.725  10.890
37087SOL    HW113035   1.942  14.806  10.925
37087SOL    HW213036   1.944  14.656  10.943
37088SOL     OW13037  10.978   1.282   2.911
37088SOL    HW113038  11.034   1.282   2.833
37088SOL    HW213039  10.903   1.227   2.886
37089SOL     OW13040   9.911   1.230   4.972
37089SOL    HW113041   9.956   1.200   4.893
37089SOL    HW213042   9.912   1.154   5.030
37090SOL     OW13043   3.702   4.640  14.413
37090SOL    HW113044   3.796   4.657  14.417
37090SOL    HW213045   3.662   4.714  14.458
37091SOL     OW13046  12.265  12.924   3.007
37091SOL    HW113047  12.201  12.950   2.940
37091SOL    HW213048  12.326  12.867   2.961
37092SOL     OW13049   1.677  13.397   0.775
37092SOL    HW113050   1.713  13.463   0.715
37092SOL    HW213051   1.716  13.315   0.746
37093SOL     OW13052   0.613   6.798  10.365
37093SOL    HW113053   0.613   6.791  10.461
37093SOL    HW213054   0.655   6.882  10.347
37094SOL     OW13055   6.384   5.635  13.894
37094SOL    HW113056   6.359   5.660  13.983
37094SOL    HW213057   6.465   5.684  13.878
37095SOL     OW13058  13.977   8.876  10.159
37095SOL    HW113059  14.048   8.816  10.182
37095SOL    HW213060  13.900   8.820  10.151
37096SOL     OW13061   2.526   0.450  13.704
37096SOL    HW113062   2.484   0.391  13.766
37096SOL    HW213063   2.454   0.495  13.660
37097SOL     OW13064   3.773   5.322   5.774
37097SOL    HW113065   3.860   5.361   5.760
37097SOL    HW213066   3.714   5.377   5.722
37098SOL     OW13067  10.716  13.495  13.388
37098SOL    HW113068  10.630  13.504  13.348
37098SOL    HW213069  10.746  13.585  13.402
37099SOL     OW13070   8.813  10.254   1.099
37099SOL    HW113071   8.879  10.298   1.046
37099SOL    HW213072   8.768  10.324   1.146
37100SOL     OW13073   6.990  12.112   2.172
37100SOL    HW113074   6.921  12.080   2.231
37100SOL    HW213075   7.037  12.033   2.146
37101SOL     OW13076   5.656   9.887   5.195
37101SOL    HW113077   5.733   9.876   5.251
37101SOL    HW213078   5.660   9.979   5.167
37102SOL     OW13079   8.524   9.505   0.596
37102SOL    HW113080   8.470   9.541   0.526
37102SOL    HW213081   8.592   9.571   0.610
37103SOL     OW13082   1.971   4.658   9.412
37103SOL    HW113083   1.999   4.721   9.479
37103SOL    HW213084   1.888   4.695   9.379
37104SOL     OW13085  11.510  10.473  13.355
37104SOL    HW113086  11.570  10.479  13.280
37104SOL    HW213087  11.504  10.380  13.374
37105SOL     OW13088  12.967   8.839   9.332
37105SOL    HW113089  12.980   8.927   9.297
37105SOL    HW213090  12.930   8.790   9.259
37106SOL     OW13091   7.753  11.635   6.575
37106SOL    HW113092   7.788  11.640   6.486
37106SOL    HW213093   7.693  11.709   6.583
37107SOL     OW13094  10.583  11.723  13.238
37107SOL    HW113095  10.631  11.790  13.288
37107SOL    HW213096  10.639  11.645  13.242
37108SOL     OW13097   3.457   1.168   2.673
37108SOL    HW113098   3.386   1.225   2.644
37108SOL    HW213099   3.430   1.137   2.759
37109SOL     OW13100  14.143  10.022   9.742
37109SOL    HW113101  14.162  10.062   9.657
37109SOL    HW213102  14.111  10.094   9.796
37110SOL     OW13103   8.755  14.234   3.595
37110SOL    HW113104   8.772  14.147   3.559
37110SOL    HW213105   8.723  14.216   3.684
37111SOL     OW13106  12.782   7.899   1.763
37111SOL    HW113107  12.822   7.979   1.728
37111SOL    HW213108  12.820   7.890   1.851
37112SOL     OW13109  13.163   2.383  12.945
37112SOL    HW113110  13.125   2.439  12.877
37112SOL    HW213111  13.090   2.328  12.974
37113SOL     OW13112  11.188  10.991  11.046
37113SOL    HW113113  11.111  10.971  11.099
37113SOL    HW213114  11.184  11.085  11.031
37114SOL     OW13115  11.379   3.319   0.594
37114SOL    HW113116  11.349   3.410   0.594
37114SOL    HW213117  11.473   3.325   0.576
37115SOL     OW13118  11.004   1.049  13.165
37115SOL    HW113119  10.992   1.104  13.087
37115SOL    HW213120  11.046   1.106  13.229
37116SOL     OW13121   1.045  12.737   0.876
37116SOL    HW113122   0.955  12.712   0.856
37116SOL    HW213123   1.046  12.832   0.865
37117SOL     OW13124   7.669   5.636   6.792
37117SOL    HW113125   7.593   5.579   6.797
37117SOL    HW213126   7.713   5.625   6.877
37118SOL     OW13127  13.636  12.010   1.539
37118SOL    HW113128  13.555  12.004   1.489
37118SOL    HW213129  13.609  12.044   1.625
37119SOL     OW13130   2.988  13.424  12.098
37119SOL    HW113131   2.955  13.346  12.142
37119SOL    HW213132   3.071  13.397  12.059
37120SOL     OW13133   2.007  14.536  11.540
37120SOL    HW113134   2.031  14.598  11.609
37120SOL    HW213135   2.080  14.538  11.479
37121SOL     OW13136   1.458  11.478  13.820
37121SOL    HW113137   1.531  11.431  13.778
37121SOL    HW213138   1.436  11.547  13.758
37122SOL     OW13139   1.999  11.189  14.540
37122SOL    HW113140   1.921  11.243  14.526
37122SOL    HW213141   2.043  11.188  14.455
37123SOL     OW13142   8.247   6.314   1.907
37123SOL    HW113143   8.284   6.390   1.952
37123SOL    HW213144   8.199   6.267   1.975
37124SOL     OW13145  14.548  13.316   3.513
37124SOL    HW113146  14.539  13.234   3.561
37124SOL    HW213147  14.459  13.339   3.488
37125SOL     OW13148   6.588   9.282  13.911
37125SOL    HW113149   6.653   9.221  13.875
37125SOL    HW213150   6.545   9.234  13.981
37126SOL     OW13151   0.630   8.076  10.328
37126SOL    HW113152   0.701   8.045  10.385
37126SOL    HW213153   0.653   8.043  10.241
37127SOL     OW13154  14.766   3.001   6.415
37127SOL    HW113155  14.810   2.990   6.499
37127SOL    HW213156  14.692   2.940   6.419
37128SOL     OW13157  12.232   1.395   7.755
37128SOL    HW113158  12.253   1.304   7.735
37128SOL    HW213159  12.310   1.428   7.801
37129SOL     OW13160   8.765   6.089   6.103
37129SOL    HW113161   8.848   6.124   6.069
37129SOL    HW213162   8.704   6.163   6.099
37130SOL     OW13163   6.110  11.126   9.649
37130SOL    HW113164   6.192  11.076   9.643
37130SOL    HW213165   6.137  11.212   9.681
37131SOL     OW13166   5.510   9.363  13.903
37131SOL    HW113167   5.568   9.287  13.896
37131SOL    HW213168   5.422   9.326  13.910
37132SOL     OW13169   6.155   9.313  10.346
37132SOL    HW113170   6.070   9.293  10.384
37132SOL    HW213171   6.210   9.338  10.421
37133SOL     OW13172  11.237  12.917  14.400
37133SOL    HW113173  11.204  12.828  14.410
37133SOL    HW213174  11.326  12.906  14.366
37134SOL     OW13175   5.289   4.042  10.794
37134SOL    HW113176   5.264   3.951  10.779
37134SOL    HW213177   5.283   4.054  10.888
37135SOL     OW13178   7.956  13.922   9.169
37135SOL    HW113179   8.049  13.947   9.171
37135SOL    HW213180   7.956  13.827   9.180
37136SOL     OW13181   4.117  10.628   0.156
37136SOL    HW113182   4.084  10.714   0.182
37136SOL    HW213183   4.059  10.565   0.198
37137SOL     OW13184  12.057   5.757  12.780
37137SOL    HW113185  12.071   5.845  12.745
37137SOL    HW213186  11.963   5.752  12.794
37138SOL     OW13187   6.392   9.532   6.630
37138SOL    HW113188   6.391   9.487   6.714
37138SOL    HW213189   6.305   9.570   6.621
37139SOL     OW13190   8.498   1.382  14.476
37139SOL    HW113191   8.495   1.405  14.383
37139SOL    HW213192   8.590   1.392  14.500
37140SOL     OW13193   1.435   4.104  10.371
37140SOL    HW113194   1.472   4.121  10.285
37140SOL    HW213195   1.416   4.011  10.372
37141SOL     OW13196   5.130   5.248  11.460
37141SOL    HW113197   5.044   5.247  11.418
37141SOL    HW213198   5.187   5.294  11.397
37142SOL     OW13199   1.613   2.175   0.205
37142SOL    HW113200   1.564   2.141   0.280
37142SOL    HW213201   1.579   2.263   0.191
37143SOL     OW13202   8.251  12.748   9.302
37143SOL    HW113203   8.242  12.653   9.309
37143SOL    HW213204   8.183  12.774   9.241
37144SOL     OW13205   0.807   2.806  13.073
37144SOL    HW113206   0.712   2.802  13.066
37144SOL    HW213207   0.838   2.790  12.983
37145SOL     OW13208  10.856  13.486  10.342
37145SOL    HW113209  10.787  13.519  10.400
37145SOL    HW213210  10.899  13.565  10.309
37146SOL     OW13211   2.781  12.140  14.131
37146SOL    HW113212   2.768  12.057  14.178
37146SOL    HW213213   2.754  12.207  14.193
37147SOL     OW13214   0.629   7.780   2.202
37147SOL    HW113215   0.675   7.808   2.122
37147SOL    HW213216   0.694   7.788   2.271
37148SOL     OW13217   8.292  12.216   8.212
37148SOL    HW113218   8.312  12.136   8.164
37148SOL    HW213219   8.217  12.254   8.167
37149SOL     OW13220   8.253  11.051   1.373
37149SOL    HW113221   8.286  11.137   1.346
37149SOL    HW213222   8.262  11.051   1.469
37150SOL     OW13223   2.540   4.192  13.227
37150SOL    HW113224   2.476   4.153  13.167
37150SOL    HW213225   2.555   4.279  13.193
37151SOL     OW13226   4.618   4.063   2.065
37151SOL    HW113227   4.680   4.007   2.111
37151SOL    HW213228   4.550   4.082   2.131
37152SOL     OW13229  14.431  13.880   9.481
37152SOL    HW113230  14.418  13.910   9.571
37152SOL    HW213231  14.472  13.954   9.436
37153SOL     OW13232   9.050   0.269  10.574
37153SOL    HW113233   8.979   0.332  10.563
37153SOL    HW213234   9.020   0.190  10.529
37154SOL     OW13235  11.872   2.398   5.891
37154SOL    HW113236  11.902   2.366   5.976
37154SOL    HW213237  11.933   2.360   5.828
37155SOL     OW13238   7.439  10.305   4.410
37155SOL    HW113239   7.365  10.358   4.442
37155SOL    HW213240   7.398  10.228   4.369
37156SOL     OW13241  12.684   0.097   4.889
37156SOL    HW113242  12.636   0.132   4.814
37156SOL    HW213243  12.618   0.047   4.938
37157SOL     OW13244   4.483  11.452   1.216
37157SOL    HW113245   4.497  11.394   1.141
37157SOL    HW213246   4.533  11.531   1.195
37158SOL     OW13247   1.026  12.674   4.485
37158SOL    HW113248   1.097  12.669   4.421
37158SOL    HW213249   0.973  12.748   4.456
37159SOL     OW13250   3.586   8.224   0.299
37159SOL    HW113251   3.532   8.303   0.298
37159SOL    HW213252   3.525   8.153   0.314
37160SOL     OW13253  12.951   8.566   7.196
37160SOL    HW113254  12.860   8.576   7.167
37160SOL    HW213255  12.976   8.652   7.229
37161SOL     OW13256   3.907   7.479   6.884
37161SOL    HW113257   3.815   7.453   6.888
37161SOL    HW213258   3.939   7.466   6.974
37162SOL     OW13259  11.640   2.914   2.499
37162SOL    HW113260  11.704   2.845   2.514
37162SOL    HW213261  11.557   2.877   2.529
37163SOL     OW13262   6.228   2.361   9.456
37163SOL    HW113263   6.231   2.286   9.515
37163SOL    HW213264   6.252   2.326   9.370
37164SOL     OW13265   2.694   2.111  12.762
37164SOL    HW113266   2.718   2.076  12.848
37164SOL    HW213267   2.731   2.049  12.699
37165SOL     OW13268   1.376   2.064   3.251
37165SOL    HW113269   1.454   2.009   3.250
37165SOL    HW213270   1.311   2.015   3.200
37166SOL     OW13271   7.808  14.511   1.708
37166SOL    HW113272   7.776  14.546   1.624
37166SOL    HW213273   7.743  14.446   1.733
37167SOL     OW13274   2.958   1.500   2.612
37167SOL    HW113275   2.964   1.435   2.542
37167SOL    HW213276   2.893   1.563   2.580
37168SOL     OW13277   2.397   7.991  11.872
37168SOL    HW113278   2.456   8.066  11.869
37168SOL    HW213279   2.355   7.991  11.786
37169SOL     OW13280   2.719  12.473   1.905
37169SOL    HW113281   2.712  12.567   1.886
37169SOL    HW213282   2.710  12.467   2.000
37170SOL     OW13283   9.414   3.729   7.731
37170SOL    HW113284   9.358   3.742   7.655
37170SOL    HW213285   9.385   3.795   7.794
37171SOL     OW13286   7.963   0.965   3.143
37171SOL    HW113287   7.993   1.055   3.130
37171SOL    HW213288   8.035   0.923   3.189
37172SOL     OW13289   9.943   7.396   4.906
37172SOL    HW113290   9.852   7.387   4.875
37172SOL    HW213291   9.946   7.343   4.986
37173SOL     OW13292  10.697  12.649   7.476
37173SOL    HW113293  10.609  12.631   7.441
37173SOL    HW213294  10.728  12.723   7.424
37174SOL     OW13295  12.948   9.537   8.090
37174SOL    HW113296  12.944   9.471   8.021
37174SOL    HW213297  12.891   9.503   8.159
37175SOL     OW13298  11.198   7.063   5.960
37175SOL    HW113299  11.111   7.103   5.959
37175SOL    HW213300  11.181   6.969   5.946
37176SOL     OW13301   5.919  10.769  14.470
37176SOL    HW113302   5.846  10.757  14.531
37176SOL    HW213303   5.911  10.860  14.440
37177SOL     OW13304  11.021   1.160  11.680
37177SOL    HW113305  10.982   1.161  11.768
37177SOL    HW213306  10.948   1.175  11.621
37178SOL     OW13307   2.544   8.496  12.542
37178SOL    HW113308   2.553   8.550  12.463
37178SOL    HW213309   2.452   8.471  12.543
37179SOL     OW13310  11.095   8.768   1.708
37179SOL    HW113311  11.099   8.830   1.635
37179SOL    HW213312  11.016   8.717   1.692
37180SOL     OW13313  10.871   8.094  11.883
37180SOL    HW113314  10.964   8.116  11.878
37180SOL    HW213315  10.837   8.112  11.795
37181SOL     OW13316   1.486   0.346   7.458
37181SOL    HW113317   1.519   0.426   7.499
37181SOL    HW213318   1.393   0.344   7.482
37182SOL     OW13319   9.155   5.010   7.461
37182SOL    HW113320   9.063   5.033   7.460
37182SOL    HW213321   9.185   5.032   7.549
37183SOL     OW13322   9.741   4.921  13.864
37183SOL    HW113323   9.672   4.885  13.808
37183SOL    HW213324   9.786   4.845  13.899
37184SOL     OW13325  11.336  13.947   2.374
37184SOL    HW113326  11.396  14.020   2.358
37184SOL    HW213327  11.266  13.985   2.428
37185SOL     OW13328   8.494   6.748   6.519
37185SOL    HW113329   8.494   6.657   6.489
37185SOL    HW213330   8.541   6.796   6.450
37186SOL     OW13331  10.430   9.370   5.319
37186SOL    HW113332  10.463   9.421   5.245
37186SOL    HW213333  10.492   9.298   5.328
37187SOL     OW13334   7.416   5.926   0.132
37187SOL    HW113335   7.469   5.877   0.069
37187SOL    HW213336   7.459   5.911   0.216
37188SOL     OW13337  12.618   7.452   8.750
37188SOL    HW113338  12.536   7.444   8.798
37188SOL    HW213339  12.680   7.398   8.799
37189SOL     OW13340  10.127  10.486   0.280
37189SOL    HW113341  10.115  10.392   0.290
37189SOL    HW213342  10.222  10.498   0.275
37190SOL     OW13343   0.532  14.491  10.848
37190SOL    HW113344   0.542  14.474  10.755
37190SOL    HW213345   0.543  14.586  10.857
37191SOL     OW13346   0.904   3.333   2.440
37191SOL    HW113347   0.867   3.413   2.402
37191SOL    HW213348   0.829   3.277   2.456
37192SOL     OW13349   3.493   3.455   3.358
37192SOL    HW113350   3.516   3.547   3.368
37192SOL    HW213351   3.507   3.437   3.265
37193SOL     OW13352   5.959   6.790   1.969
37193SOL    HW113353   5.871   6.763   1.998
37193SOL    HW213354   5.981   6.864   2.026
37194SOL     OW13355   7.014  14.006  10.204
37194SOL    HW113356   7.012  13.980  10.112
37194SOL    HW213357   7.069  14.084  10.206
37195SOL     OW13358   8.425  10.248   1.262
37195SOL    HW113359   8.405  10.194   1.185
37195SOL    HW213360   8.340  10.263   1.303
37196SOL     OW13361   4.486   1.475   4.968
37196SOL    HW113362   4.562   1.508   5.015
37196SOL    HW213363   4.453   1.403   5.022
37197SOL     OW13364   7.044   9.684  13.475
37197SOL    HW113365   7.028   9.596  13.509
37197SOL    HW213366   6.966   9.705  13.424
37198SOL     OW13367   3.431  13.832   1.481
37198SOL    HW113368   3.340  13.856   1.462
37198SOL    HW213369   3.476  13.837   1.397
37199SOL     OW13370   5.804   8.149  12.084
37199SOL    HW113371   5.715   8.177  12.107
37199SOL    HW213372   5.805   8.055  12.100
37200SOL     OW13373   0.002   6.964  12.310
37200SOL    HW113374  14.870   7.006  12.225
37200SOL    HW213375   0.097   6.955  12.317
37201SOL     OW13376   5.528   4.171  11.423
37201SOL    HW113377   5.449   4.125  11.452
37201SOL    HW213378   5.598   4.135  11.477
37202SOL     OW13379   9.233   1.514  10.440
37202SOL    HW113380   9.253   1.549  10.527
37202SOL    HW213381   9.235   1.419  10.451
37203SOL     OW13382   0.456   9.522   7.814
37203SOL    HW113383   0.491   9.610   7.795
37203SOL    HW213384   0.387   9.537   7.877
37204SOL     OW13385   6.746  13.174   2.238
37204SOL    HW113386   6.731  13.256   2.285
37204SOL    HW213387   6.750  13.108   2.307
37205SOL     OW13388   3.398   9.408   4.506
37205SOL    HW113389   3.328   9.362   4.552
37205SOL    HW213390   3.403   9.493   4.550
37206SOL     OW13391   8.459   7.149  14.519
37206SOL    HW113392   8.514   7.149  14.440
37206SOL    HW213393   8.373   7.177  14.488
37207SOL     OW13394   0.938   8.476   0.233
37207SOL    HW113395   0.988   8.404   0.194
37207SOL    HW213396   0.986   8.555   0.208
37208SOL     OW13397  13.398   0.934  13.239
37208SOL    HW113398  13.470   0.880  13.273
37208SOL    HW213399  13.320   0.881  13.254
37209SOL     OW13400   2.856   8.484   2.138
37209SOL    HW113401   2.937   8.434   2.152
37209SOL    HW213402   2.870   8.565   2.187
37210SOL     OW13403   7.445   2.388   6.764
37210SOL    HW113404   7.455   2.482   6.783
37210SOL    HW213405   7.437   2.384   6.669
37211SOL     OW13406   4.771   5.495  13.980
37211SOL    HW113407   4.718   5.574  13.972
37211SOL    HW213408   4.719   5.427  13.939
37212SOL     OW13409  10.230   8.965  10.518
37212SOL    HW113410  10.238   8.995  10.427
37212SOL    HW213411  10.238   8.870  10.513
37213SOL     OW13412   4.803   0.831   7.260
37213SOL    HW113413   4.804   0.911   7.312
37213SOL    HW213414   4.872   0.777   7.299
37214SOL     OW13415   7.241  12.038  10.056
37214SOL    HW113416   7.336  12.030  10.045
37214SOL    HW213417   7.223  12.131  10.038
37215SOL     OW13418  13.488   4.757  11.954
37215SOL    HW113419  13.555   4.708  12.001
37215SOL    HW213420  13.417   4.766  12.018
37216SOL     OW13421  12.296   5.440   5.712
37216SOL    HW113422  12.280   5.519   5.659
37216SOL    HW213423  12.295   5.471   5.802
37217SOL     OW13424  11.385   7.540   0.455
37217SOL    HW113425  11.398   7.491   0.374
37217SOL    HW213426  11.419   7.628   0.436
37218SOL     OW13427   5.751  10.362   9.184
37218SOL    HW113428   5.697  10.433   9.148
37218SOL    HW213429   5.810  10.338   9.113
37219SOL     OW13430  12.382   0.855   6.250
37219SOL    HW113431  12.305   0.801   6.266
37219SOL    HW213432  12.348   0.938   6.216
37220SOL     OW13433   6.278   3.778   9.169
37220SOL    HW113434   6.204   3.721   9.149
37220SOL    HW213435   6.252   3.864   9.135
37221SOL     OW13436   4.609  10.128   3.521
37221SOL    HW113437   4.598  10.136   3.616
37221SOL    HW213438   4.541  10.067   3.494
37222SOL     OW13439   8.364   6.236   4.708
37222SOL    HW113440   8.417   6.293   4.764
37222SOL    HW213441   8.423   6.165   4.682
37223SOL     OW13442   5.584   5.939  12.667
37223SOL    HW113443   5.610   5.849  12.648
37223SOL    HW213444   5.666   5.984  12.689
37224SOL     OW13445   0.826  12.053   2.044
37224SOL    HW113446   0.809  12.144   2.020
37224SOL    HW213447   0.919  12.052   2.067
37225SOL     OW13448   7.278   3.056   2.997
37225SOL    HW113449   7.252   3.077   3.087
37225SOL    HW213450   7.209   2.997   2.966
37226SOL     OW13451   7.234   4.517   4.848
37226SOL    HW113452   7.154   4.556   4.882
37226SOL    HW213453   7.281   4.486   4.925
37227SOL     OW13454   4.139  13.816   5.593
37227SOL    HW113455   4.139  13.910   5.610
37227SOL    HW213456   4.064  13.783   5.641
37228SOL     OW13457   3.043   2.780  14.397
37228SOL    HW113458   3.025   2.871  14.422
37228SOL    HW213459   3.014   2.775  14.305
37229SOL     OW13460   1.232   4.541   9.171
37229SOL    HW113461   1.282   4.615   9.205
37229SOL    HW213462   1.153   4.579   9.134
37230SOL     OW13463   4.391  14.869   8.723
37230SOL    HW113464   4.353   0.012   8.807
37230SOL    HW213465   4.456   0.054   8.705
37231SOL     OW13466   7.570   2.377   8.214
37231SOL    HW113467   7.648   2.433   8.214
37231SOL    HW213468   7.603   2.291   8.239
37232SOL     OW13469   7.768   4.105  13.203
37232SOL    HW113470   7.735   4.015  13.204
37232SOL    HW213471   7.861   4.096  13.182
37233SOL     OW13472   3.801   0.735   4.729
37233SOL    HW113473   3.857   0.752   4.653
37233SOL    HW213474   3.764   0.648   4.713
37234SOL     OW13475   1.871  10.207   7.875
37234SOL    HW113476   1.942  10.223   7.936
37234SOL    HW213477   1.912  10.161   7.801
37235SOL     OW13478   6.753  12.637  10.437
37235SOL    HW113479   6.832  12.583  10.446
37235SOL    HW213480   6.784  12.721  10.406
37236SOL     OW13481   5.420  12.785   5.255
37236SOL    HW113482   5.334  12.778   5.295
37236SOL    HW213483   5.405  12.771   5.162
37237SOL     OW13484   2.069  12.131   4.589
37237SOL    HW113485   2.086  12.155   4.680
37237SOL    HW213486   2.008  12.058   4.594
37238SOL     OW13487   3.871  12.707   4.524
37238SOL    HW113488   3.937  12.638   4.513
37238SOL    HW213489   3.790  12.660   4.542
37239SOL     OW13490   1.987  13.083   4.791
37239SOL    HW113491   2.045  13.077   4.867
37239SOL    HW213492   1.932  13.159   4.810
37240SOL     OW13493   8.303   7.739   3.826
37240SOL    HW113494   8.368   7.678   3.861
37240SOL    HW213495   8.292   7.805   3.895
37241SOL     OW13496   6.412   4.691   7.000
37241SOL    HW113497   6.492   4.642   7.017
37241SOL    HW213498   6.341   4.628   7.017
37242SOL     OW13499  10.721  14.605   0.924
37242SOL    HW113500  10.767  14.680   0.962
37242SOL    HW213501  10.764  14.590   0.840
37243SOL     OW13502  10.230   8.399  10.494
37243SOL    HW113503  10.185   8.425  10.574
37243SOL    HW213504  10.267   8.313  10.514
37244SOL     OW13505   0.180  11.105   2.304
37244SOL    HW113506   0.212  11.080   2.390
37244SOL    HW213507   0.125  11.181   2.319
37245SOL     OW13508   7.719   8.446   7.794
37245SOL    HW113509   7.779   8.520   7.791
37245SOL    HW213510   7.649   8.470   7.733
37246SOL     OW13511   3.792   4.828   4.609
37246SOL    HW113512   3.716   4.836   4.551
37246SOL    HW213513   3.857   4.888   4.571
37247SOL     OW13514   0.268   1.355   8.860
37247SOL    HW113515   0.242   1.351   8.767
37247SOL    HW213516   0.211   1.423   8.897
37248SOL     OW13517   2.758   0.461   4.892
37248SOL    HW113518   2.791   0.521   4.960
37248SOL    HW213519   2.719   0.519   4.827
37249SOL     OW13520  13.588   3.470   0.639
37249SOL    HW113521  13.563   3.382   0.666
37249SOL    HW213522  13.653   3.498   0.703
37250SOL     OW13523  13.406   2.185   2.217
37250SOL    HW113524  13.335   2.132   2.180
37250SOL    HW213525  13.428   2.247   2.148
37251SOL     OW13526  10.426  12.019  10.635
37251SOL    HW113527  10.407  12.110  10.658
37251SOL    HW213528  10.475  12.025  10.553
37252SOL     OW13529   2.028   1.340   1.907
37252SOL    HW113530   2.021   1.418   1.852
37252SOL    HW213531   2.121   1.336   1.932
37253SOL     OW13532   1.079  12.575  13.638
37253SOL    HW113533   1.093  12.612  13.725
37253SOL    HW213534   0.988  12.595  13.618
37254SOL     OW13535   0.161  10.548   9.065
37254SOL    HW113536   0.096  10.483   9.093
37254SOL    HW213537   0.232  10.496   9.027
37255SOL     OW13538  14.813   0.978   5.814
37255SOL    HW113539  14.741   0.916   5.822
37255SOL    HW213540  14.777   1.060   5.848
37256SOL     OW13541   9.553   3.677   9.712
37256SOL    HW113542   9.517   3.649   9.796
37256SOL    HW213543   9.497   3.635   9.646
37257SOL     OW13544   4.521   5.095   5.907
37257SOL    HW113545   4.600   5.096   5.854
37257SOL    HW213546   4.549   5.128   5.993
37258SOL     OW13547   9.797  14.466   4.335
37258SOL    HW113548   9.716  14.501   4.297
37258SOL    HW213549   9.842  14.425   4.261
37259SOL     OW13550   4.956   6.187   2.383
37259SOL    HW113551   5.044   6.151   2.375
37259SOL    HW213552   4.956   6.233   2.467
37260SOL     OW13553   9.838  10.798  13.518
37260SOL    HW113554   9.782  10.823  13.591
37260SOL    HW213555   9.859  10.880  13.474
37261SOL     OW13556  13.128   8.950   0.123
37261SOL    HW113557  13.188   8.988   0.059
37261SOL    HW213558  13.164   8.863   0.141
37262SOL     OW13559   2.977   8.591  13.216
37262SOL    HW113560   3.011   8.681  13.215
37262SOL    HW213561   3.002   8.557  13.302
37263SOL     OW13562  12.560  10.673  12.982
37263SOL    HW113563  12.578  10.746  12.922
37263SOL    HW213564  12.566  10.712  13.069
37264SOL     OW13565  11.925   3.434   5.279
37264SOL    HW113566  12.014   3.426   5.245
37264SOL    HW213567  11.870   3.397   5.210
37265SOL     OW13568  14.140  11.881  13.616
37265SOL    HW113569  14.079  11.936  13.665
37265SOL    HW213570  14.207  11.942  13.584
37266SOL     OW13571  11.867   2.476   9.778
37266SOL    HW113572  11.858   2.382   9.795
37266SOL    HW213573  11.962   2.490   9.771
37267SOL     OW13574   0.086  10.133  13.950
37267SOL    HW113575   0.023  10.200  13.976
37267SOL    HW213576   0.045  10.091  13.874
37268SOL     OW13577   5.566   0.823  10.687
37268SOL    HW113578   5.531   0.861  10.607
37268SOL    HW213579   5.649   0.868  10.701
37269SOL     OW13580   9.316  11.417   8.491
37269SOL    HW113581   9.309  11.369   8.408
37269SOL    HW213582   9.329  11.508   8.465
37270SOL     OW13583  10.911  13.428  14.817
37270SOL    HW113584  10.949  13.340  14.811
37270SOL    HW213585  10.965  13.481  14.758
37271SOL     OW13586   7.248   7.478   5.798
37271SOL    HW113587   7.276   7.387   5.805
37271SOL    HW213588   7.270   7.517   5.883
37272SOL     OW13589  11.989  12.787   7.340
37272SOL    HW113590  12.001  12.710   7.284
37272SOL    HW213591  11.968  12.857   7.278
37273SOL     OW13592   8.127   4.885   0.662
37273SOL    HW113593   8.194   4.894   0.594
37273SOL    HW213594   8.047   4.865   0.615
37274SOL     OW13595   0.916   9.813   1.770
37274SOL    HW113596   0.905   9.751   1.697
37274SOL    HW213597   0.920   9.758   1.848
37275SOL     OW13598   1.329   2.467  10.822
37275SOL    HW113599   1.325   2.410  10.899
37275SOL    HW213600   1.419   2.500  10.822
37276SOL     OW13601  13.438  10.036  13.992
37276SOL    HW113602  13.469  10.126  13.991
37276SOL    HW213603  13.445  10.007  13.901
37277SOL     OW13604   1.082  14.036  11.718
37277SOL    HW113605   1.168  13.995  11.719
37277SOL    HW213606   1.082  14.093  11.796
37278SOL     OW13607   2.323  11.123   8.259
37278SOL    HW113608   2.340  11.108   8.352
37278SOL    HW213609   2.271  11.048   8.231
37279SOL     OW13610   5.512   6.132   9.578
37279SOL    HW113611   5.545   6.222   9.583
37279SOL    HW213612   5.417   6.141   9.585
37280SOL     OW13613   1.121   8.897   2.943
37280SOL    HW113614   1.206   8.875   2.907
37280SOL    HW213615   1.060   8.885   2.870
37281SOL     OW13616   8.487  14.330  10.714
37281SOL    HW113617   8.407  14.330  10.766
37281SOL    HW213618   8.557  14.344  10.778
37282SOL     OW13619   3.672   8.410   6.758
37282SOL    HW113620   3.625   8.473   6.812
37282SOL    HW213621   3.763   8.437   6.762
37283SOL     OW13622  13.315   3.158  10.268
37283SOL    HW113623  13.349   3.246  10.254
37283SOL    HW213624  13.289   3.156  10.360
37284SOL     OW13625   1.652  14.737   7.000
37284SOL    HW113626   1.571  14.755   6.952
37284SOL    HW213627   1.651  14.800   7.073
37285SOL     OW13628   6.429   4.064  13.019
37285SOL    HW113629   6.369   4.003  13.060
37285SOL    HW213630   6.475   4.012  12.953
37286SOL     OW13631   0.103   0.444  14.660
37286SOL    HW113632   0.040   0.508  14.627
37286SOL    HW213633   0.181   0.457  14.606
37287SOL     OW13634   8.330  10.585  10.408
37287SOL    HW113635   8.331  10.500  10.453
37287SOL    HW213636   8.249  10.626  10.437
37288SOL     OW13637  10.490   2.775   5.970
37288SOL    HW113638  10.580   2.764   6.002
37288SOL    HW213639  10.463   2.861   6.002
37289SOL     OW13640  10.454  11.993  11.740
37289SOL    HW113641  10.428  12.083  11.721
37289SOL    HW213642  10.548  11.990  11.721
37290SOL     OW13643   2.226  10.330  13.689
37290SOL    HW113644   2.257  10.253  13.642
37290SOL    HW213645   2.304  10.385  13.700
37291SOL     OW13646   4.242  10.859   6.682
37291SOL    HW113647   4.209  10.817   6.603
37291SOL    HW213648   4.318  10.909   6.652
37292SOL     OW13649   8.375   7.843   7.764
37292SOL    HW113650   8.408   7.791   7.837
37292SOL    HW213651   8.453   7.871   7.717
37293SOL     OW13652   0.161  12.783   8.240
37293SOL    HW113653   0.107  12.721   8.191
37293SOL    HW213654   0.119  12.868   8.225
37294SOL     OW13655   5.114   3.585  13.485
37294SOL    HW113656   5.029   3.546  13.461
37294SOL    HW213657   5.178   3.521  13.455
37295SOL     OW13658   5.197   1.119   6.020
37295SOL    HW113659   5.213   1.026   6.037
37295SOL    HW213660   5.198   1.127   5.925
37296SOL     OW13661   9.300   0.223   5.752
37296SOL    HW113662   9.295   0.136   5.713
37296SOL    HW213663   9.261   0.212   5.839
37297SOL     OW13664   0.629   0.347  10.561
37297SOL    HW113665   0.583   0.327  10.642
37297SOL    HW213666   0.575   0.415  10.519
37298SOL     OW13667   2.697   4.349  10.362
37298SOL    HW113668   2.701   4.445  10.358
37298SOL    HW213669   2.777   4.324  10.407
37299SOL     OW13670   2.791   4.188   2.218
37299SOL    HW113671   2.725   4.119   2.205
37299SOL    HW213672   2.848   4.181   2.141
37300SOL     OW13673  10.619  14.406  10.926
37300SOL    HW113674  10.538  14.379  10.971
37300SOL    HW213675  10.689  14.376  10.984
37301SOL     OW13676   5.141  11.258   0.554
37301SOL    HW113677   5.116  11.336   0.504
37301SOL    HW213678   5.060  11.228   0.594
37302SOL     OW13679   7.048   5.133   7.616
37302SOL    HW113680   7.065   5.109   7.525
37302SOL    HW213681   7.057   5.228   7.617
37303SOL     OW13682   5.325  12.141   2.699
37303SOL    HW113683   5.336  12.149   2.604
37303SOL    HW213684   5.345  12.050   2.718
37304SOL     OW13685  12.768   9.463  11.487
37304SOL    HW113686  12.855   9.423  11.477
37304SOL    HW213687  12.715   9.421  11.419
37305SOL     OW13688   3.934  13.757   7.306
37305SOL    HW113689   3.928  13.741   7.212
37305SOL    HW213690   3.994  13.831   7.314
37306SOL     OW13691   0.972  13.138   9.426
37306SOL    HW113692   0.962  13.134   9.331
37306SOL    HW213693   0.941  13.226   9.450
37307SOL     OW13694   2.288   5.775  12.157
37307SOL    HW113695   2.372   5.804  12.193
37307SOL    HW213696   2.308   5.751  12.066
37308SOL     OW13697   7.183   1.156  13.645
37308SOL    HW113698   7.204   1.128  13.556
37308SOL    HW213699   7.239   1.103  13.701
37309SOL     OW13700  10.359   4.179  12.121
37309SOL    HW113701  10.313   4.240  12.063
37309SOL    HW213702  10.451   4.202  12.112
37310SOL     OW13703   1.917   0.305   3.448
37310SOL    HW113704   1.896   0.381   3.394
37310SOL    HW213705   2.011   0.311   3.463
37311SOL     OW13706  11.058  13.046   1.803
37311SOL    HW113707  11.136  13.035   1.749
37311SOL    HW213708  11.004  13.109   1.755
37312SOL     OW13709  10.435   4.479  14.178
37312SOL    HW113710  10.489   4.558  14.183
37312SOL    HW213711  10.435   4.445  14.268
37313SOL     OW13712   5.702   0.045   5.792
37313SOL    HW113713   5.739   0.133   5.795
37313SOL    HW213714   5.712   0.017   5.701
37314SOL     OW13715   3.955   1.533  14.174
37314SOL    HW113716   3.872   1.496  14.205
37314SOL    HW213717   3.964   1.616  14.221
37315SOL     OW13718   3.409   9.576  10.193
37315SOL    HW113719   3.389   9.592  10.286
37315SOL    HW213720   3.454   9.492  10.193
37316SOL     OW13721   8.471   5.605   6.565
37316SOL    HW113722   8.560   5.572   6.574
37316SOL    HW213723   8.480   5.690   6.522
37317SOL     OW13724  11.810   5.824   1.811
37317SOL    HW113725  11.832   5.893   1.873
37317SOL    HW213726  11.811   5.744   1.863
37318SOL     OW13727  11.182   4.788   8.690
37318SOL    HW113728  11.183   4.709   8.744
37318SOL    HW213729  11.270   4.824   8.700
37319SOL     OW13730   3.131   5.150   8.822
37319SOL    HW113731   3.154   5.211   8.752
37319SOL    HW213732   3.160   5.065   8.790
37320SOL     OW13733   0.216   9.562  12.018
37320SOL    HW113734   0.264   9.539  11.938
37320SOL    HW213735   0.158   9.633  11.992
37321SOL     OW13736  14.732  12.704   0.476
37321SOL    HW113737  14.816  12.749   0.487
37321SOL    HW213738  14.668  12.760   0.520
37322SOL     OW13739  12.895   7.170   1.039
37322SOL    HW113740  12.882   7.241   0.977
37322SOL    HW213741  12.815   7.169   1.091
37323SOL     OW13742  11.398   2.210   4.602
37323SOL    HW113743  11.419   2.208   4.696
37323SOL    HW213744  11.354   2.294   4.589
37324SOL     OW13745   6.963   3.465  14.015
37324SOL    HW113746   6.908   3.489  14.090
37324SOL    HW213747   6.986   3.548  13.974
37325SOL     OW13748   9.238  13.141   3.693
37325SOL    HW113749   9.206  13.174   3.609
37325SOL    HW213750   9.322  13.099   3.672
37326SOL     OW13751   2.036  14.667   6.817
37326SOL    HW113752   2.063  14.750   6.855
37326SOL    HW213753   2.087  14.660   6.736
37327SOL     OW13754   3.183   8.333   9.043
37327SOL    HW113755   3.210   8.261   9.100
37327SOL    HW213756   3.111   8.296   8.991
37328SOL     OW13757  14.261  12.549   7.760
37328SOL    HW113758  14.167  12.566   7.765
37328SOL    HW213759  14.275  12.515   7.672
37329SOL     OW13760   4.286  10.256   2.030
37329SOL    HW113761   4.314  10.300   1.950
37329SOL    HW213762   4.234  10.181   1.999
37330SOL     OW13763  14.547  11.770   5.696
37330SOL    HW113764  14.487  11.713   5.745
37330SOL    HW213765  14.498  11.793   5.617
37331SOL     OW13766   3.746   5.671   4.240
37331SOL    HW113767   3.747   5.655   4.334
37331SOL    HW213768   3.810   5.742   4.227
37332SOL     OW13769  10.370   5.995   9.590
37332SOL    HW113770  10.364   5.987   9.685
37332SOL    HW213771  10.435   6.063   9.575
37333SOL     OW13772   7.705   2.589  13.116
37333SOL    HW113773   7.684   2.505  13.077
37333SOL    HW213774   7.704   2.651  13.042
37334SOL     OW13775   8.929   0.558  12.611
37334SOL    HW113776   8.856   0.499  12.591
37334SOL    HW213777   8.900   0.644  12.579
37335SOL     OW13778  10.208  11.624   9.432
37335SOL    HW113779  10.172  11.589   9.514
37335SOL    HW213780  10.133  11.626   9.373
37336SOL     OW13781  12.239   2.945   1.979
37336SOL    HW113782  12.322   2.928   1.935
37336SOL    HW213783  12.217   3.035   1.956
37337SOL     OW13784   4.479   7.680   5.654
37337SOL    HW113785   4.391   7.713   5.635
37337SOL    HW213786   4.494   7.705   5.746
37338SOL     OW13787   4.086   1.021  10.354
37338SOL    HW113788   4.012   1.048  10.300
37338SOL    HW213789   4.070   1.062  10.439
37339SOL     OW13790  14.786   8.802   5.905
37339SOL    HW113791  14.730   8.830   5.978
37339SOL    HW213792  14.739   8.729   5.865
37340SOL     OW13793   0.917   4.124   3.658
37340SOL    HW113794   0.843   4.185   3.664
37340SOL    HW213795   0.886   4.044   3.699
37341SOL     OW13796   8.329   6.166   3.730
37341SOL    HW113797   8.368   6.185   3.645
37341SOL    HW213798   8.356   6.076   3.749
37342SOL     OW13799   0.488  12.789   4.617
37342SOL    HW113800   0.415  12.730   4.634
37342SOL    HW213801   0.561  12.754   4.668
37343SOL     OW13802   5.141   5.896   2.749
37343SOL    HW113803   5.094   5.831   2.698
37343SOL    HW213804   5.212   5.846   2.791
37344SOL     OW13805  10.218   2.429  11.487
37344SOL    HW113806  10.202   2.398  11.398
37344SOL    HW213807  10.286   2.370  11.520
37345SOL     OW13808   0.587   0.373   9.511
37345SOL    HW113809   0.598   0.282   9.486
37345SOL    HW213810   0.664   0.393   9.564
37346SOL     OW13811   7.162  14.443   6.102
37346SOL    HW113812   7.133  14.475   6.188
37346SOL    HW213813   7.254  14.468   6.097
37347SOL     OW13814   1.681   6.677  12.263
37347SOL    HW113815   1.772   6.657  12.241
37347SOL    HW213816   1.665   6.762  12.222
37348SOL     OW13817  11.507  10.853   8.447
37348SOL    HW113818  11.417  10.825   8.466
37348SOL    HW213819  11.516  10.937   8.491
37349SOL     OW13820   1.619   9.048  13.621
37349SOL    HW113821   1.684   8.988  13.657
37349SOL    HW213822   1.645   9.059  13.529
37350SOL     OW13823   6.710   2.377   4.820
37350SOL    HW113824   6.733   2.333   4.738
37350SOL    HW213825   6.791   2.419   4.848
37351SOL     OW13826  13.270   0.341   4.864
37351SOL    HW113827  13.212   0.280   4.910
37351SOL    HW213828  13.210   0.397   4.815
37352SOL     OW13829   0.641   2.611  12.382
37352SOL    HW113830   0.546   2.614  12.368
37352SOL    HW213831   0.655   2.662  12.462
37353SOL     OW13832   9.167   3.772   5.287
37353SOL    HW113833   9.213   3.691   5.311
37353SOL    HW213834   9.104   3.786   5.357
37354SOL     OW13835  14.246   6.818   4.499
37354SOL    HW113836  14.226   6.765   4.422
37354SOL    HW213837  14.238   6.757   4.573
37355SOL     OW13838   3.587   1.577   7.983
37355SOL    HW113839   3.623   1.539   8.063
37355SOL    HW213840   3.501   1.535   7.973
37356SOL     OW13841  12.539  11.572   5.197
37356SOL    HW113842  12.514  11.664   5.190
37356SOL    HW213843  12.622  11.573   5.244
37357SOL     OW13844  14.513  14.272   1.932
37357SOL    HW113845  14.519  14.177   1.938
37357SOL    HW213846  14.525  14.302   2.023
37358SOL     OW13847   1.940   3.549  13.120
37358SOL    HW113848   1.911   3.631  13.161
37358SOL    HW213849   1.966   3.575  13.032
37359SOL     OW13850  11.597  13.714   9.347
37359SOL    HW113851  11.533  13.649   9.376
37359SOL    HW213852  11.552  13.798   9.357
37360SOL     OW13853   6.184   0.126   9.147
37360SOL    HW113854   6.236   0.148   9.225
37360SOL    HW213855   6.131   0.204   9.131
37361SOL     OW13856   2.967   9.166  12.483
37361SOL    HW113857   3.037   9.186  12.421
37361SOL    HW213858   2.886   9.180  12.435
37362SOL     OW13859   6.123   8.954   0.812
37362SOL    HW113860   6.169   8.932   0.731
37362SOL    HW213861   6.058   9.020   0.786
37363SOL     OW13862  13.258   8.221   9.435
37363SOL    HW113863  13.320   8.288   9.406
37363SOL    HW213864  13.256   8.158   9.364
37364SOL     OW13865  13.404   3.579  14.081
37364SOL    HW113866  13.398   3.543  14.170
37364SOL    HW213867  13.313   3.589  14.052
37365SOL     OW13868  12.715  13.057   3.816
37365SOL    HW113869  12.664  13.079   3.737
37365SOL    HW213870  12.739  12.965   3.804
37366SOL     OW13871  11.393   6.077   9.208
37366SOL    HW113872  11.305   6.066   9.242
37366SOL    HW213873  11.388   6.154   9.151
37367SOL     OW13874   9.266   1.249   8.661
37367SOL    HW113875   9.254   1.294   8.744
37367SOL    HW213876   9.223   1.164   8.673
37368SOL     OW13877   0.201   7.506  12.887
37368SOL    HW113878   0.134   7.482  12.951
37368SOL    HW213879   0.218   7.424  12.839
37369SOL     OW13880   7.492  10.038   1.216
37369SOL    HW113881   7.555   9.978   1.255
37369SOL    HW213882   7.457   9.991   1.141
37370SOL     OW13883  12.005  10.996   9.620
37370SOL    HW113884  12.035  11.053   9.691
37370SOL    HW213885  12.061  10.919   9.625
37371SOL     OW13886   9.387   5.194  11.764
37371SOL    HW113887   9.426   5.222  11.681
37371SOL    HW213888   9.348   5.274  11.799
37372SOL     OW13889  12.767  12.503   2.318
37372SOL    HW113890  12.720  12.523   2.399
37372SOL    HW213891  12.720  12.552   2.250
37373SOL     OW13892   8.571  11.498   5.595
37373SOL    HW113893   8.657  11.529   5.624
37373SOL    HW213894   8.544  11.562   5.529
37374SOL     OW13895  10.767   0.611   6.065
37374SOL    HW113896  10.699   0.559   6.023
37374SOL    HW213897  10.756   0.699   6.030
37375SOL     OW13898  11.866   2.981   8.947
37375SOL    HW113899  11.774   3.003   8.932
37375SOL    HW213900  11.871   2.887   8.928
37376SOL     OW13901   9.046   1.908   2.362
37376SOL    HW113902   8.959   1.895   2.323
37376SOL    HW213903   9.105   1.915   2.287
37377SOL     OW13904   7.881  14.249  13.828
37377SOL    HW113905   7.786  14.256  13.842
37377SOL    HW213906   7.890  14.180  13.762
37378SOL     OW13907   6.508   6.344   4.576
37378SOL    HW113908   6.454   6.293   4.636
37378SOL    HW213909   6.528   6.424   4.624
37379SOL     OW13910   9.860   5.336   1.944
37379SOL    HW113911   9.808   5.265   1.909
37379SOL    HW213912   9.818   5.416   1.912
37380SOL     OW13913   9.489   5.483   3.887
37380SOL    HW113914   9.571   5.443   3.856
37380SOL    HW213915   9.506   5.577   3.885
37381SOL     OW13916   3.073   7.556   6.876
37381SOL    HW113917   3.045   7.647   6.880
37381SOL    HW213918   3.032   7.522   6.797
37382SOL     OW13919   6.392   2.714   2.439
37382SOL    HW113920   6.420   2.653   2.371
37382SOL    HW213921   6.417   2.671   2.521
37383SOL     OW13922   1.655   1.300   3.042
37383SOL    HW113923   1.592   1.229   3.040
37383SOL    HW213924   1.639   1.345   3.126
37384SOL     OW13925  11.868   8.245  13.372
37384SOL    HW113926  11.901   8.165  13.332
37384SOL    HW213927  11.877   8.311  13.304
37385SOL     OW13928   3.645   3.402   3.909
37385SOL    HW113929   3.604   3.346   3.844
37385SOL    HW213930   3.585   3.401   3.984
37386SOL     OW13931   9.788  11.666   1.262
37386SOL    HW113932   9.848  11.666   1.337
37386SOL    HW213933   9.817  11.740   1.208
37387SOL     OW13934   4.302   3.741   8.948
37387SOL    HW113935   4.218   3.704   8.919
37387SOL    HW213936   4.286   3.835   8.953
37388SOL     OW13937   4.179   2.932   5.145
37388SOL    HW113938   4.268   2.904   5.168
37388SOL    HW213939   4.130   2.923   5.227
37389SOL     OW13940   7.551   0.120   2.293
37389SOL    HW113941   7.484   0.166   2.243
37389SOL    HW213942   7.613   0.189   2.320
37390SOL     OW13943   5.124  13.242   5.038
37390SOL    HW113944   5.134  13.338   5.037
37390SOL    HW213945   5.070  13.224   5.115
37391SOL     OW13946   9.705  12.434   5.664
37391SOL    HW113947   9.717  12.445   5.569
37391SOL    HW213948   9.610  12.424   5.675
37392SOL     OW13949   6.628   6.988   7.846
37392SOL    HW113950   6.657   6.907   7.804
37392SOL    HW213951   6.685   7.056   7.809
37393SOL     OW13952   0.234  12.947   3.620
37393SOL    HW113953   0.177  13.013   3.579
37393SOL    HW213954   0.255  12.886   3.549
37394SOL     OW13955   6.244  14.416  12.138
37394SOL    HW113956   6.231  14.472  12.215
37394SOL    HW213957   6.175  14.350  12.145
37395SOL     OW13958  10.466  11.074   5.788
37395SOL    HW113959  10.510  11.091   5.704
37395SOL    HW213960  10.486  10.982   5.807
37396SOL     OW13961   6.097   9.403   0.081
37396SOL    HW113962   6.024   9.438   0.030
37396SOL    HW213963   6.172   9.457   0.056
37397SOL     OW13964   4.405  10.450   2.967
37397SOL    HW113965   4.452  10.507   3.028
37397SOL    HW213966   4.459  10.450   2.888
37398SOL     OW13967   8.464   1.859   0.246
37398SOL    HW113968   8.507   1.774   0.248
37398SOL    HW213969   8.528   1.917   0.203
37399SOL     OW13970   1.420   9.222   6.779
37399SOL    HW113971   1.381   9.296   6.734
37399SOL    HW213972   1.448   9.163   6.709
37400SOL     OW13973  12.210   8.823  14.079
37400SOL    HW113974  12.288   8.835  14.024
37400SOL    HW213975  12.151   8.894  14.053
37401SOL     OW13976   7.063   0.499   1.215
37401SOL    HW113977   7.070   0.430   1.282
37401SOL    HW213978   6.974   0.488   1.180
37402SOL     OW13979   5.274  10.004   5.089
37402SOL    HW113980   5.240   9.961   5.168
37402SOL    HW213981   5.302  10.090   5.119
37403SOL     OW13982   5.089  13.182   4.068
37403SOL    HW113983   5.047  13.123   4.005
37403SOL    HW213984   5.024  13.251   4.084
37404SOL     OW13985  12.836  10.431   2.549
37404SOL    HW113986  12.769  10.386   2.497
37404SOL    HW213987  12.904  10.454   2.485
37405SOL     OW13988   3.603  14.061   3.507
37405SOL    HW113989   3.633  14.001   3.438
37405SOL    HW213990   3.666  14.133   3.504
37406SOL     OW13991   9.525   1.811  14.848
37406SOL    HW113992   9.538   1.793   0.060
37406SOL    HW213993   9.597   1.765  14.804
37407SOL     OW13994   3.472   4.570   5.758
37407SOL    HW113995   3.526   4.491   5.760
37407SOL    HW213996   3.393   4.546   5.806
37408SOL     OW13997   1.033   2.802   0.602
37408SOL    HW113998   0.948   2.820   0.642
37408SOL    HW213999   1.013   2.768   0.515
37409SOL     OW14000  10.514   2.616   4.917
37409SOL    HW114001  10.589   2.673   4.936
37409SOL    HW214002  10.522   2.544   4.978
37410SOL     OW14003   9.836  13.122  13.408
37410SOL    HW114004   9.776  13.054  13.440
37410SOL    HW214005   9.908  13.121  13.470
37411SOL     OW14006  12.906  13.784   1.137
37411SOL    HW114007  12.996  13.798   1.108
37411SOL    HW214008  12.879  13.868   1.173
37412SOL     OW14009   4.259   5.815   6.075
37412SOL    HW114010   4.346   5.828   6.114
37412SOL    HW214011   4.215   5.756   6.136
37413SOL     OW14012   7.414   1.532  13.377
37413SOL    HW114013   7.462   1.478  13.439
37413SOL    HW214014   7.322   1.520  13.401
37414SOL     OW14015   5.678   9.941   1.247
37414SOL    HW114016   5.624   9.862   1.241
37414SOL    HW214017   5.655   9.993   1.170
37415SOL     OW14018   7.914   1.770   9.884
37415SOL    HW114019   7.915   1.725   9.969
37415SOL    HW214020   7.842   1.832   9.891
37416SOL     OW14021  12.869   5.757  14.138
37416SOL    HW114022  12.781   5.785  14.110
37416SOL    HW214023  12.857   5.730  14.229
37417SOL     OW14024   2.956  14.143   3.318
37417SOL    HW114025   3.006  14.082   3.264
37417SOL    HW214026   2.879  14.093   3.346
37418SOL     OW14027   2.281  11.113   3.499
37418SOL    HW114028   2.292  11.025   3.462
37418SOL    HW214029   2.351  11.164   3.459
37419SOL     OW14030   3.088   0.121   7.184
37419SOL    HW114031   3.104   0.102   7.276
37419SOL    HW214032   3.028   0.052   7.156
37420SOL     OW14033   5.592   9.063   0.070
37420SOL    HW114034   5.544   9.088   0.149
37420SOL    HW214035   5.592   9.143   0.017
37421SOL     OW14036  11.326  14.327   1.088
37421SOL    HW114037  11.287  14.271   1.155
37421SOL    HW214038  11.418  14.299   1.083
37422SOL     OW14039  13.138   6.382  11.396
37422SOL    HW114040  13.117   6.388  11.303
37422SOL    HW214041  13.169   6.470  11.419
37423SOL     OW14042   1.094  10.402   8.079
37423SOL    HW114043   1.053  10.343   8.016
37423SOL    HW214044   1.046  10.387   8.160
37424SOL     OW14045   0.522  12.399   2.533
37424SOL    HW114046   0.557  12.357   2.611
37424SOL    HW214047   0.501  12.488   2.561
37425SOL     OW14048   0.991   1.611   8.452
37425SOL    HW114049   0.952   1.617   8.539
37425SOL    HW214050   0.948   1.536   8.412
37426SOL     OW14051  12.750  11.561  11.097
37426SOL    HW114052  12.743  11.654  11.118
37426SOL    HW214053  12.662  11.527  11.109
37427SOL     OW14054   4.369   6.699   0.677
37427SOL    HW114055   4.273   6.698   0.671
37427SOL    HW214056   4.391   6.792   0.679
37428SOL     OW14057  12.052  12.140   0.228
37428SOL    HW114058  12.075  12.132   0.321
37428SOL    HW214059  12.118  12.200   0.192
37429SOL     OW14060   6.066   8.981   9.724
37429SOL    HW114061   6.004   9.024   9.664
37429SOL    HW214062   6.020   8.903   9.755
37430SOL     OW14063  11.212   8.815   7.599
37430SOL    HW114064  11.137   8.809   7.659
37430SOL    HW214065  11.288   8.797   7.654
37431SOL     OW14066   7.994  14.736  11.305
37431SOL    HW114067   8.078  14.724  11.261
37431SOL    HW214068   8.014  14.736  11.398
37432SOL     OW14069   0.036  13.286   9.325
37432SOL    HW114070   0.041  13.205   9.376
37432SOL    HW214071   0.123  13.296   9.287
37433SOL     OW14072  12.025   9.271  11.105
37433SOL    HW114073  12.054   9.221  11.028
37433SOL    HW214074  12.079   9.238  11.177
37434SOL     OW14075   7.707  12.657  13.896
37434SOL    HW114076   7.707  12.752  13.905
37434SOL    HW214077   7.632  12.638  13.839
37435SOL     OW14078   6.029   2.017  13.397
37435SOL    HW114079   6.050   1.978  13.312
37435SOL    HW214080   6.031   2.111  13.381
37436SOL     OW14081   4.719  12.661   9.587
37436SOL    HW114082   4.670  12.657   9.669
37436SOL    HW214083   4.656  12.636   9.520
37437SOL     OW14084  13.462  13.584   2.489
37437SOL    HW114085  13.534  13.601   2.550
37437SOL    HW214086  13.499  13.525   2.423
37438SOL     OW14087   9.163   9.982   9.092
37438SOL    HW114088   9.206   9.908   9.048
37438SOL    HW214089   9.235  10.033   9.128
37439SOL     OW14090  12.256  12.458   8.080
37439SOL    HW114091  12.316  12.503   8.020
37439SOL    HW214092  12.305  12.450   8.162
37440SOL     OW14093  10.290  13.605   3.129
37440SOL    HW114094  10.309  13.684   3.078
37440SOL    HW214095  10.197  13.589   3.115
37441SOL     OW14096  13.813   1.237  13.536
37441SOL    HW114097  13.798   1.323  13.497
37441SOL    HW214098  13.730   1.216  13.579
37442SOL     OW14099   6.775   1.000   7.600
37442SOL    HW114100   6.690   1.025   7.637
37442SOL    HW214101   6.806   0.930   7.658
37443SOL     OW14102   2.828   0.262   6.401
37443SOL    HW114103   2.919   0.291   6.405
37443SOL    HW214104   2.832   0.175   6.362
37444SOL     OW14105   0.341   6.914   7.063
37444SOL    HW114106   0.323   6.885   6.973
37444SOL    HW214107   0.435   6.901   7.074
37445SOL     OW14108  10.208   1.705  10.276
37445SOL    HW114109  10.212   1.778  10.214
37445SOL    HW214110  10.124   1.718  10.321
37446SOL     OW14111   8.503  10.436   1.519
37446SOL    HW114112   8.489  10.350   1.559
37446SOL    HW214113   8.560  10.419   1.445
37447SOL     OW14114  12.421   0.489   9.966
37447SOL    HW114115  12.509   0.509   9.934
37447SOL    HW214116  12.382   0.575   9.985
37448SOL     OW14117  12.336   5.046   3.658
37448SOL    HW114118  12.407   4.986   3.635
37448SOL    HW214119  12.296   5.069   3.574
37449SOL     OW14120  10.863   9.625   1.838
37449SOL    HW114121  10.900   9.639   1.751
37449SOL    HW214122  10.930   9.577   1.886
37450SOL     OW14123  11.157   3.395   6.961
37450SOL    HW114124  11.157   3.299   6.959
37450SOL    HW214125  11.202   3.421   6.880
37451SOL     OW14126   1.282  12.501  11.185
37451SOL    HW114127   1.285  12.596  11.187
37451SOL    HW214128   1.188  12.479  11.193
37452SOL     OW14129   6.905   5.480   0.989
37452SOL    HW114130   6.946   5.458   1.073
37452SOL    HW214131   6.923   5.574   0.978
37453SOL     OW14132   3.813  10.201   9.500
37453SOL    HW114133   3.732  10.166   9.464
37453SOL    HW214134   3.836  10.273   9.441
37454SOL     OW14135   5.026  10.708   8.255
37454SOL    HW114136   5.031  10.620   8.219
37454SOL    HW214137   5.062  10.701   8.343
37455SOL     OW14138  13.173  11.581  12.095
37455SOL    HW114139  13.247  11.528  12.065
37455SOL    HW214140  13.097  11.524  12.082
37456SOL     OW14141  12.643   7.366   3.603
37456SOL    HW114142  12.645   7.277   3.638
37456SOL    HW214143  12.627   7.354   3.509
37457SOL     OW14144   7.624   8.878   1.867
37457SOL    HW114145   7.529   8.874   1.870
37457SOL    HW214146   7.653   8.802   1.918
37458SOL     OW14147   9.560   2.728   6.585
37458SOL    HW114148   9.645   2.725   6.627
37458SOL    HW214149   9.558   2.650   6.528
37459SOL     OW14150   4.554   3.044   8.748
37459SOL    HW114151   4.465   3.075   8.732
37459SOL    HW214152   4.582   3.094   8.825
37460SOL     OW14153  13.890   0.148   1.261
37460SOL    HW114154  13.975   0.105   1.251
37460SOL    HW214155  13.834   0.105   1.197
37461SOL     OW14156  10.679   2.414  12.550
37461SOL    HW114157  10.631   2.335  12.527
37461SOL    HW214158  10.753   2.415  12.489
37462SOL     OW14159   9.470   1.194   7.839
37462SOL    HW114160   9.428   1.221   7.921
37462SOL    HW214161   9.417   1.120   7.809
37463SOL     OW14162  10.512  10.639   9.595
37463SOL    HW114163  10.497  10.544   9.595
37463SOL    HW214164  10.498  10.664   9.503
37464SOL     OW14165   3.069   1.254   8.710
37464SOL    HW114166   3.089   1.316   8.639
37464SOL    HW214167   3.041   1.310   8.783
37465SOL     OW14168   7.129  13.288   1.888
37465SOL    HW114169   7.064  13.227   1.923
37465SOL    HW214170   7.171  13.239   1.817
37466SOL     OW14171  14.208   2.991   9.025
37466SOL    HW114172  14.275   2.973   8.958
37466SOL    HW214173  14.213   2.915   9.084
37467SOL     OW14174   1.606  14.679  11.491
37467SOL    HW114175   1.534  14.741  11.502
37467SOL    HW214176   1.612  14.634  11.575
37468SOL     OW14177   9.539  12.705  10.571
37468SOL    HW114178   9.484  12.773  10.608
37468SOL    HW214179   9.518  12.627  10.622
37469SOL     OW14180  10.269   0.232   5.854
37469SOL    HW114181  10.225   0.153   5.822
37469SOL    HW214182  10.302   0.208   5.940
37470SOL     OW14183   8.215   5.852  10.575
37470SOL    HW114184   8.292   5.806  10.541
37470SOL    HW214185   8.146   5.835  10.510
37471SOL     OW14186  12.488   6.726  10.751
37471SOL    HW114187  12.577   6.693  10.759
37471SOL    HW214188  12.464   6.753  10.840
37472SOL     OW14189   8.519  14.873   6.094
37472SOL    HW114190   8.500  14.785   6.062
37472SOL    HW214191   8.549  14.860   6.184
37473SOL     OW14192   4.300   9.112   2.915
37473SOL    HW114193   4.243   9.098   2.840
37473SOL    HW214194   4.338   9.199   2.901
37474SOL     OW14195   6.342  11.319  10.790
37474SOL    HW114196   6.419  11.289  10.740
37474SOL    HW214197   6.272  11.260  10.763
37475SOL     OW14198   1.714  11.478   8.517
37475SOL    HW114199   1.695  11.415   8.587
37475SOL    HW214200   1.782  11.534   8.553
37476SOL     OW14201   3.955   5.711   5.926
37476SOL    HW114202   3.916   5.783   5.975
37476SOL    HW214203   3.881   5.652   5.910
37477SOL     OW14204   1.142   1.782   7.576
37477SOL    HW114205   1.095   1.728   7.512
37477SOL    HW214206   1.193   1.842   7.523
37478SOL     OW14207  13.247  13.024  14.422
37478SOL    HW114208  13.197  12.954  14.380
37478SOL    HW214209  13.182  13.074  14.470
37479SOL     OW14210   9.566  11.553  11.682
37479SOL    HW114211   9.516  11.498  11.742
37479SOL    HW214212   9.522  11.544  11.598
37480SOL     OW14213   3.404  11.945   8.948
37480SOL    HW114214   3.499  11.946   8.962
37480SOL    HW214215   3.388  11.870   8.891
37481SOL     OW14216   7.172   1.010   8.720
37481SOL    HW114217   7.179   1.011   8.625
37481SOL    HW214218   7.080   0.987   8.737
37482SOL     OW14219   3.599  10.232   6.317
37482SOL    HW114220   3.663  10.216   6.248
37482SOL    HW214221   3.611  10.325   6.339
37483SOL     OW14222   2.134   0.803   3.658
37483SOL    HW114223   2.226   0.783   3.671
37483SOL    HW214224   2.123   0.890   3.698
37484SOL     OW14225  11.721   6.237   9.614
37484SOL    HW114226  11.704   6.156   9.567
37484SOL    HW214227  11.681   6.305   9.560
37485SOL     OW14228  13.203  10.277   1.944
37485SOL    HW114229  13.255  10.219   1.889
37485SOL    HW214230  13.114  10.243   1.937
37486SOL     OW14231   5.082   2.443   3.596
37486SOL    HW114232   5.105   2.356   3.563
37486SOL    HW214233   5.021   2.478   3.531
37487SOL     OW14234   5.683   8.765  14.806
37487SOL    HW114235   5.665   8.675  14.777
37487SOL    HW214236   5.616   8.818  14.764
37488SOL     OW14237   7.750   8.147   8.582
37488SOL    HW114238   7.675   8.104   8.541
37488SOL    HW214239   7.826   8.110   8.537
37489SOL     OW14240   5.720  10.371   3.415
37489SOL    HW114241   5.638  10.413   3.389
37489SOL    HW214242   5.695  10.312   3.486
37490SOL     OW14243   7.303   0.988   5.614
37490SOL    HW114244   7.291   0.893   5.625
37490SOL    HW214245   7.227   1.015   5.562
37491SOL     OW14246  14.798   1.977  11.494
37491SOL    HW114247  14.795   1.893  11.539
37491SOL    HW214248   0.008   1.987  11.468
37492SOL     OW14249  13.015   0.919   1.798
37492SOL    HW114250  13.077   0.945   1.730
37492SOL    HW214251  12.934   0.900   1.750
37493SOL     OW14252   2.047  14.613   9.407
37493SOL    HW114253   2.064  14.610   9.501
37493SOL    HW214254   1.971  14.670   9.398
37494SOL     OW14255   4.747   5.964  13.140
37494SOL    HW114256   4.842   5.965  13.127
37494SOL    HW214257   4.736   5.919  13.224
37495SOL     OW14258   2.674   5.014  11.891
37495SOL    HW114259   2.751   5.044  11.939
37495SOL    HW214260   2.600   5.034  11.949
37496SOL     OW14261   4.138   9.362   5.101
37496SOL    HW114262   4.189   9.432   5.140
37496SOL    HW214263   4.061   9.406   5.064
37497SOL     OW14264  14.770   8.722   3.986
37497SOL    HW114265  14.724   8.638   3.977
37497SOL    HW214266  14.863   8.699   3.980
37498SOL     OW14267  12.382   9.951   3.026
37498SOL    HW114268  12.473   9.937   3.051
37498SOL    HW214269  12.383  10.031   2.973
37499SOL     OW14270  12.386   6.893  14.475
37499SOL    HW114271  12.296   6.924  14.465
37499SOL    HW214272  12.380   6.821  14.538
37500SOL     OW14273   7.870   1.400   4.085
37500SOL    HW114274   7.801   1.466   4.074
37500SOL    HW214275   7.880   1.391   4.180
37501SOL     OW14276  13.532  10.665   0.632
37501SOL    HW114277  13.558  10.657   0.540
37501SOL    HW214278  13.485  10.584   0.650
37502SOL     OW14279   9.858   6.499   5.544
37502SOL    HW114280   9.934   6.533   5.498
37502SOL    HW214281   9.806   6.456   5.476
37503SOL     OW14282   8.621   0.984  14.034
37503SOL    HW114283   8.714   0.961  14.032
37503SOL    HW214284   8.620   1.079  14.045
37504SOL     OW14285   1.060   8.218  12.116
37504SOL    HW114286   1.027   8.168  12.042
37504SOL    HW214287   0.989   8.214  12.181
37505SOL     OW14288   6.441   8.893   1.637
37505SOL    HW114289   6.513   8.920   1.694
37505SOL    HW214290   6.388   8.973   1.627
37506SOL     OW14291  14.573   4.493   0.412
37506SOL    HW114292  14.518   4.416   0.424
37506SOL    HW214293  14.632   4.493   0.488
37507SOL     OW14294   6.411   0.258   5.718
37507SOL    HW114295   6.423   0.291   5.629
37507SOL    HW214296   6.479   0.302   5.769
37508SOL     OW14297   0.983   4.184   1.440
37508SOL    HW114298   0.899   4.161   1.400
37508SOL    HW214299   1.048   4.141   1.385
37509SOL     OW14300   4.629  13.816   6.869
37509SOL    HW114301   4.699  13.757   6.894
37509SOL    HW214302   4.673  13.899   6.851
37510SOL     OW14303   7.784   3.487  14.291
37510SOL    HW114304   7.720   3.416  14.283
37510SOL    HW214305   7.842   3.475  14.217
37511SOL     OW14306   1.569   8.484   5.400
37511SOL    HW114307   1.530   8.429   5.468
37511SOL    HW214308   1.511   8.560   5.396
37512SOL     OW14309   1.226   8.218  11.613
37512SOL    HW114310   1.272   8.263  11.542
37512SOL    HW214311   1.156   8.279  11.638
37513SOL     OW14312   1.240   8.780  10.332
37513SOL    HW114313   1.313   8.721  10.353
37513SOL    HW214314   1.174   8.761  10.399
37514SOL     OW14315   8.521   9.594   4.660
37514SOL    HW114316   8.475   9.678   4.667
37514SOL    HW214317   8.613   9.615   4.680
37515SOL     OW14318  10.809   4.953   3.607
37515SOL    HW114319  10.788   4.910   3.524
37515SOL    HW214320  10.878   4.899   3.645
37516SOL     OW14321  11.189   7.763  12.445
37516SOL    HW114322  11.251   7.701  12.483
37516SOL    HW214323  11.116   7.764  12.506
37517SOL     OW14324   8.146   2.037  14.326
37517SOL    HW114325   8.146   1.952  14.370
37517SOL    HW214326   8.099   2.021  14.244
37518SOL     OW14327  13.708  14.327  13.994
37518SOL    HW114328  13.719  14.301  13.903
37518SOL    HW214329  13.715  14.422  13.994
37519SOL     OW14330   4.333   6.257   4.497
37519SOL    HW114331   4.247   6.232   4.464
37519SOL    HW214332   4.380   6.174   4.505
37520SOL     OW14333  10.721   0.054   5.793
37520SOL    HW114334  10.744  14.863   5.852
37520SOL    HW214335  10.704   0.128   5.852
37521SOL     OW14336   1.430  11.137   7.827
37521SOL    HW114337   1.493  11.134   7.755
37521SOL    HW214338   1.484  11.125   7.906
37522SOL     OW14339   2.179   1.608   8.041
37522SOL    HW114340   2.200   1.624   8.133
37522SOL    HW214341   2.149   1.692   8.008
37523SOL     OW14342   5.141  12.969   8.106
37523SOL    HW114343   5.222  12.948   8.153
37523SOL    HW214344   5.150  12.924   8.022
37524SOL     OW14345   4.992  12.213   3.715
37524SOL    HW114346   4.905  12.235   3.683
37524SOL    HW214347   5.051  12.264   3.659
37525SOL     OW14348  12.635  12.685  13.400
37525SOL    HW114349  12.546  12.721  13.393
37525SOL    HW214350  12.644  12.664  13.493
37526SOL     OW14351   9.372   1.917   0.675
37526SOL    HW114352   9.303   1.915   0.609
37526SOL    HW214353   9.336   1.970   0.746
37527SOL     OW14354  11.421   2.274   5.785
37527SOL    HW114355  11.511   2.241   5.785
37527SOL    HW214356  11.427   2.358   5.829
37528SOL     OW14357   7.626  10.714   3.480
37528SOL    HW114358   7.604  10.770   3.406
37528SOL    HW214359   7.550  10.656   3.491
37529SOL     OW14360   8.056   3.267   2.791
37529SOL    HW114361   8.125   3.333   2.802
37529SOL    HW214362   8.012   3.290   2.710
37530SOL     OW14363   9.802   4.568  13.369
37530SOL    HW114364   9.747   4.574  13.291
37530SOL    HW214365   9.859   4.645  13.364
37531SOL     OW14366  11.230  11.829   7.770
37531SOL    HW114367  11.320  11.799   7.756
37531SOL    HW214368  11.197  11.848   7.682
37532SOL     OW14369   9.338   2.036  14.792
37532SOL    HW114370   9.409   1.976  14.812
37532SOL    HW214371   9.354   2.112  14.848
37533SOL     OW14372  14.034  14.177   1.330
37533SOL    HW114373  14.003  14.179   1.240
37533SOL    HW214374  14.001  14.258   1.369
37534SOL     OW14375   8.781   3.703  14.508
37534SOL    HW114376   8.700   3.666  14.541
37534SOL    HW214377   8.840   3.629  14.499
37535SOL     OW14378   6.707   4.574   2.531
37535SOL    HW114379   6.787   4.538   2.569
37535SOL    HW214380   6.690   4.654   2.581
37536SOL     OW14381   5.681   4.036   7.723
37536SOL    HW114382   5.668   3.964   7.785
37536SOL    HW214383   5.776   4.046   7.718
37537SOL     OW14384   3.075   1.552   6.182
37537SOL    HW114385   3.100   1.642   6.161
37537SOL    HW214386   3.102   1.501   6.105
37538SOL     OW14387  13.575   0.614   6.048
37538SOL    HW114388  13.624   0.624   6.129
37538SOL    HW214389  13.619   0.543   6.001
37539SOL     OW14390  11.489  13.059   2.370
37539SOL    HW114391  11.466  12.968   2.383
37539SOL    HW214392  11.582  13.064   2.392
37540SOL     OW14393   2.837   5.811   9.694
37540SOL    HW114394   2.933   5.813   9.705
37540SOL    HW214395   2.810   5.732   9.740
37541SOL     OW14396   0.523  14.668   9.011
37541SOL    HW114397   0.531  14.763   9.019
37541SOL    HW214398   0.431  14.650   9.028
37542SOL     OW14399   2.763  13.553  14.850
37542SOL    HW114400   2.728  13.592  14.769
37542SOL    HW214401   2.691  13.498   0.001
37543SOL     OW14402  12.702   4.749  11.271
37543SOL    HW114403  12.619   4.782  11.305
37543SOL    HW214404  12.756   4.737  11.348
37544SOL     OW14405   2.744   6.043   3.221
37544SOL    HW114406   2.662   6.073   3.183
37544SOL    HW214407   2.804   6.117   3.208
37545SOL     OW14408   7.060   2.319   2.740
37545SOL    HW114409   7.057   2.364   2.655
37545SOL    HW214410   6.979   2.269   2.744
37546SOL     OW14411   1.035  10.507   1.410
37546SOL    HW114412   1.019  10.539   1.321
37546SOL    HW214413   1.082  10.579   1.453
37547SOL     OW14414   9.665   8.067  10.428
37547SOL    HW114415   9.697   7.997  10.371
37547SOL    HW214416   9.570   8.055  10.430
37548SOL     OW14417   1.539   5.713  11.560
37548SOL    HW114418   1.483   5.676  11.629
37548SOL    HW214419   1.480   5.769  11.510
37549SOL     OW14420   4.936   1.314   4.752
37549SOL    HW114421   4.997   1.329   4.824
37549SOL    HW214422   4.851   1.306   4.794
37550SOL     OW14423   1.921   1.376   3.994
37550SOL    HW114424   1.888   1.342   3.911
37550SOL    HW214425   2.016   1.367   3.987
37551SOL     OW14426   0.648   2.399   1.086
37551SOL    HW114427   0.706   2.383   1.011
37551SOL    HW214428   0.645   2.316   1.133
37552SOL     OW14429  12.223   1.607   4.728
37552SOL    HW114430  12.293   1.582   4.668
37552SOL    HW214431  12.150   1.548   4.706
37553SOL     OW14432   1.987   1.947   2.682
37553SOL    HW114433   1.960   1.880   2.619
37553SOL    HW214434   1.930   1.933   2.758
37554SOL     OW14435  13.042   9.169   5.520
37554SOL    HW114436  13.017   9.251   5.477
37554SOL    HW214437  13.136   9.178   5.534
37555SOL     OW14438  14.147   9.684   2.776
37555SOL    HW114439  14.183   9.683   2.688
37555SOL    HW214440  14.122   9.776   2.790
37556SOL     OW14441   6.054   6.423   9.076
37556SOL    HW114442   6.060   6.360   9.148
37556SOL    HW214443   6.145   6.446   9.056
37557SOL     OW14444   5.683   1.670   8.565
37557SOL    HW114445   5.674   1.587   8.517
37557SOL    HW214446   5.701   1.643   8.655
37558SOL     OW14447  13.685  13.914   9.174
37558SOL    HW114448  13.694  13.969   9.251
37558SOL    HW214449  13.651  13.973   9.106
37559SOL     OW14450  11.689   5.391   4.045
37559SOL    HW114451  11.635   5.345   4.109
37559SOL    HW214452  11.779   5.369   4.069
37560SOL     OW14453   9.282  11.213  11.257
37560SOL    HW114454   9.210  11.260  11.215
37560SOL    HW214455   9.258  11.210  11.350
37561SOL     OW14456   4.767  14.591   3.762
37561SOL    HW114457   4.692  14.610   3.820
37561SOL    HW214458   4.734  14.527   3.700
37562SOL     OW14459   4.316   4.323   4.059
37562SOL    HW114460   4.297   4.230   4.070
37562SOL    HW214461   4.242   4.357   4.008
37563SOL     OW14462   0.952  11.128  11.325
37563SOL    HW114463   0.948  11.141  11.420
37563SOL    HW214464   1.041  11.155  11.302
37564SOL     OW14465   9.065  10.270   2.485
37564SOL    HW114466   9.085  10.191   2.434
37564SOL    HW214467   8.971  10.282   2.473
37565SOL     OW14468   7.424   8.249   7.990
37565SOL    HW114469   7.349   8.230   8.046
37565SOL    HW214470   7.446   8.165   7.949
37566SOL     OW14471   2.731   9.566   3.506
37566SOL    HW114472   2.792   9.622   3.554
37566SOL    HW214473   2.773   9.480   3.505
37567SOL     OW14474   1.897   9.899   2.045
37567SOL    HW114475   1.901   9.906   1.949
37567SOL    HW214476   1.818   9.947   2.069
37568SOL     OW14477  14.251  12.336   1.207
37568SOL    HW114478  14.199  12.390   1.148
37568SOL    HW214479  14.249  12.382   1.291
37569SOL     OW14480   3.787   9.798   5.956
37569SOL    HW114481   3.734   9.835   6.026
37569SOL    HW214482   3.796   9.705   5.979
37570SOL     OW14483  14.361   4.457   2.740
37570SOL    HW114484  14.347   4.502   2.823
37570SOL    HW214485  14.273   4.433   2.711
37571SOL     OW14486  14.799   8.866   6.754
37571SOL    HW114487  14.825   8.872   6.662
37571SOL    HW214488  14.855   8.798   6.792
37572SOL     OW14489   5.155   0.616   7.091
37572SOL    HW114490   5.217   0.656   7.152
37572SOL    HW214491   5.210   0.564   7.031
37573SOL     OW14492  12.879  13.623   0.833
37573SOL    HW114493  12.821  13.695   0.812
37573SOL    HW214494  12.844  13.588   0.915
37574SOL     OW14495  10.815   4.942   4.422
37574SOL    HW114496  10.843   4.865   4.374
37574SOL    HW214497  10.721   4.950   4.403
37575SOL     OW14498  10.453  10.883   9.074
37575SOL    HW114499  10.533  10.922   9.110
37575SOL    HW214500  10.443  10.924   8.988
37576SOL     OW14501   5.794   9.495   8.206
37576SOL    HW114502   5.796   9.503   8.302
37576SOL    HW214503   5.747   9.413   8.190
37577SOL     OW14504   7.177   1.796  14.539
37577SOL    HW114505   7.160   1.739  14.464
37577SOL    HW214506   7.106   1.776  14.601
37578SOL     OW14507  14.794   8.564   4.365
37578SOL    HW114508  14.711   8.548   4.319
37578SOL    HW214509  14.798   8.659   4.374
37579SOL     OW14510   8.113   9.037  10.784
37579SOL    HW114511   8.192   9.011  10.831
37579SOL    HW214512   8.045   9.040  10.852
37580SOL     OW14513   3.552  13.187  11.091
37580SOL    HW114514   3.523  13.129  11.021
37580SOL    HW214515   3.524  13.274  11.063
37581SOL     OW14516   8.719   6.949   2.990
37581SOL    HW114517   8.637   6.909   2.964
37581SOL    HW214518   8.727   6.933   3.084
37582SOL     OW14519   5.119  14.137   3.507
37582SOL    HW114520   5.141  14.109   3.418
37582SOL    HW214521   5.039  14.189   3.496
37583SOL     OW14522   4.723   7.359   1.235
37583SOL    HW114523   4.666   7.291   1.199
37583SOL    HW214524   4.808   7.343   1.195
37584SOL     OW14525   9.304   9.164  13.535
37584SOL    HW114526   9.364   9.153  13.461
37584SOL    HW214527   9.352   9.219  13.597
37585SOL     OW14528   6.807   0.343   2.249
37585SOL    HW114529   6.776   0.307   2.166
37585SOL    HW214530   6.772   0.432   2.252
37586SOL     OW14531   1.444   7.439  12.503
37586SOL    HW114532   1.497   7.378  12.452
37586SOL    HW214533   1.475   7.526  12.474
37587SOL     OW14534  11.354  12.347   7.740
37587SOL    HW114535  11.299  12.276   7.707
37587SOL    HW214536  11.440  12.305   7.754
37588SOL     OW14537  13.997   8.183   3.522
37588SOL    HW114538  13.956   8.103   3.553
37588SOL    HW214539  14.070   8.198   3.583
37589SOL     OW14540  14.305  12.677   6.150
37589SOL    HW114541  14.392  12.652   6.181
37589SOL    HW214542  14.306  12.772   6.150
37590SOL     OW14543   5.576  13.488   6.185
37590SOL    HW114544   5.602  13.534   6.265
37590SOL    HW214545   5.657  13.451   6.150
37591SOL     OW14546   8.786   5.044  11.891
37591SOL    HW114547   8.858   5.107  11.893
37591SOL    HW214548   8.794   5.002  11.806
37592SOL     OW14549  14.103   2.717   6.557
37592SOL    HW114550  14.045   2.670   6.617
37592SOL    HW214551  14.047   2.784   6.517
37593SOL     OW14552   0.831  10.446   9.493
37593SOL    HW114553   0.892  10.381   9.459
37593SOL    HW214554   0.760  10.394   9.531
37594SOL     OW14555   2.834   4.411   8.799
37594SOL    HW114556   2.787   4.440   8.877
37594SOL    HW214557   2.829   4.315   8.802
37595SOL     OW14558  14.282   6.914  10.624
37595SOL    HW114559  14.248   6.990  10.671
37595SOL    HW214560  14.233   6.913  10.541
37596SOL     OW14561  11.602   4.891  14.865
37596SOL    HW114562  11.613   4.799  14.840
37596SOL    HW214563  11.508   4.900  14.879
37597SOL     OW14564  12.641  13.764   4.237
37597SOL    HW114565  12.549  13.740   4.226
37597SOL    HW214566  12.638  13.848   4.283
37598SOL     OW14567   0.206   3.861   8.455
37598SOL    HW114568   0.112   3.855   8.443
37598SOL    HW214569   0.239   3.776   8.428
37599SOL     OW14570   8.057   3.589   0.758
37599SOL    HW114571   8.130   3.625   0.807
37599SOL    HW214572   8.063   3.494   0.771
37600SOL     OW14573   5.044   6.234   8.411
37600SOL    HW114574   4.969   6.202   8.362
37600SOL    HW214575   5.045   6.328   8.395
37601SOL     OW14576   4.666   8.672   7.737
37601SOL    HW114577   4.750   8.708   7.766
37601SOL    HW214578   4.689   8.585   7.703
37602SOL     OW14579   4.253   1.309   5.707
37602SOL    HW114580   4.302   1.247   5.760
37602SOL    HW214581   4.312   1.333   5.636
37603SOL     OW14582   9.578   1.028   3.306
37603SOL    HW114583   9.646   1.036   3.372
37603SOL    HW214584   9.507   1.084   3.337
37604SOL     OW14585   1.370   4.266  14.427
37604SOL    HW114586   1.327   4.184  14.452
37604SOL    HW214587   1.397   4.253  14.336
37605SOL     OW14588   0.225   9.960  12.920
37605SOL    HW114589   0.195   9.956  12.830
37605SOL    HW214590   0.147   9.942  12.973
37606SOL     OW14591   8.574  10.541  13.192
37606SOL    HW114592   8.637  10.526  13.263
37606SOL    HW214593   8.628  10.564  13.117
37607SOL     OW14594  12.195  13.352  12.650
37607SOL    HW114595  12.163  13.440  12.671
37607SOL    HW214596  12.281  13.367  12.610
37608SOL     OW14597  14.245  10.452   4.423
37608SOL    HW114598  14.194  10.372   4.436
37608SOL    HW214599  14.336  10.426   4.440
37609SOL     OW14600   8.851   6.447   8.517
37609SOL    HW114601   8.862   6.541   8.532
37609SOL    HW214602   8.940   6.412   8.522
37610SOL     OW14603   1.902   2.307   1.749
37610SOL    HW114604   1.897   2.211   1.749
37610SOL    HW214605   1.870   2.332   1.836
37611SOL     OW14606   1.929   8.129   4.150
37611SOL    HW114607   1.886   8.057   4.104
37611SOL    HW214608   1.873   8.147   4.225
37612SOL     OW14609   8.908  14.500  10.460
37612SOL    HW114610   8.867  14.430  10.509
37612SOL    HW214611   8.932  14.565  10.526
37613SOL     OW14612   7.504   8.720   4.629
37613SOL    HW114613   7.447   8.758   4.562
37613SOL    HW214614   7.586   8.769   4.621
37614SOL     OW14615   0.555   5.441   0.802
37614SOL    HW114616   0.518   5.425   0.715
37614SOL    HW214617   0.487   5.490   0.848
37615SOL     OW14618  12.779   0.975  13.966
37615SOL    HW114619  12.810   1.039  13.903
37615SOL    HW214620  12.760   1.026  14.045
37616SOL     OW14621  10.287   9.410  10.470
37616SOL    HW114622  10.326   9.339  10.520
37616SOL    HW214623  10.305   9.387  10.378
37617SOL     OW14624  11.245   4.045  10.985
37617SOL    HW114625  11.161   4.074  11.021
37617SOL    HW214626  11.291   4.126  10.963
37618SOL     OW14627   8.980   2.162  10.136
37618SOL    HW114628   8.918   2.102  10.095
37618SOL    HW214629   9.056   2.107  10.159
37619SOL     OW14630  11.375   2.015   5.969
37619SOL    HW114631  11.404   1.953   5.901
37619SOL    HW214632  11.431   2.091   5.957
37620SOL     OW14633   4.490  12.867   4.564
37620SOL    HW114634   4.515  12.784   4.605
37620SOL    HW214635   4.568  12.896   4.517
37621SOL     OW14636   6.338  10.773   4.164
37621SOL    HW114637   6.425  10.750   4.132
37621SOL    HW214638   6.302  10.691   4.197
37622SOL     OW14639  13.140   8.601   9.897
37622SOL    HW114640  13.216   8.648   9.933
37622SOL    HW214641  13.146   8.618   9.802
37623SOL     OW14642   8.773   1.244  12.411
37623SOL    HW114643   8.764   1.161  12.457
37623SOL    HW214644   8.855   1.236  12.362
37624SOL     OW14645   6.301  13.730   0.139
37624SOL    HW114646   6.276  13.819   0.165
37624SOL    HW214647   6.365  13.742   0.069
37625SOL     OW14648  12.593  11.291  10.994
37625SOL    HW114649  12.518  11.258  11.044
37625SOL    HW214650  12.591  11.241  10.912
37626SOL     OW14651  10.066   3.273   0.285
37626SOL    HW114652   9.971   3.271   0.271
37626SOL    HW214653  10.101   3.316   0.207
37627SOL     OW14654  11.582  14.030   5.187
37627SOL    HW114655  11.582  13.950   5.240
37627SOL    HW214656  11.644  14.088   5.230
37628SOL     OW14657  13.774   4.397  12.007
37628SOL    HW114658  13.746   4.307  11.993
37628SOL    HW214659  13.846   4.409  11.946
37629SOL     OW14660  10.225   6.956  11.753
37629SOL    HW114661  10.134   6.977  11.771
37629SOL    HW214662  10.264   7.039  11.725
37630SOL     OW14663  14.430   6.644   8.727
37630SOL    HW114664  14.445   6.632   8.633
37630SOL    HW214665  14.429   6.738   8.739
37631SOL     OW14666   5.641  11.372   8.498
37631SOL    HW114667   5.727  11.394   8.532
37631SOL    HW214668   5.656  11.351   8.406
37632SOL     OW14669  13.927   7.607  14.395
37632SOL    HW114670  13.930   7.520  14.355
37632SOL    HW214671  13.867   7.657  14.339
37633SOL     OW14672  14.349  11.902   4.112
37633SOL    HW114673  14.342  11.857   4.197
37633SOL    HW214674  14.438  11.936   4.111
37634SOL     OW14675   7.827   1.132  12.079
37634SOL    HW114676   7.819   1.050  12.128
37634SOL    HW214677   7.744   1.177  12.094
37635SOL     OW14678   3.922  14.412   7.694
37635SOL    HW114679   3.986  14.478   7.723
37635SOL    HW214680   3.918  14.350   7.767
37636SOL     OW14681   4.272   4.665   3.845
37636SOL    HW114682   4.318   4.749   3.840
37636SOL    HW214683   4.262   4.638   3.754
37637SOL     OW14684   6.384  11.719   1.783
37637SOL    HW114685   6.372  11.650   1.717
37637SOL    HW214686   6.439  11.678   1.850
37638SOL     OW14687   3.199   7.962   8.405
37638SOL    HW114688   3.208   7.869   8.383
37638SOL    HW214689   3.153   8.000   8.330
37639SOL     OW14690  12.028   6.321  12.341
37639SOL    HW114691  11.971   6.244  12.339
37639SOL    HW214692  12.115   6.286  12.361
37640SOL     OW14693   5.036  12.434   3.435
37640SOL    HW114694   4.946  12.423   3.466
37640SOL    HW214695   5.057  12.350   3.394
37641SOL     OW14696  11.551   3.955   3.517
37641SOL    HW114697  11.549   3.897   3.441
37641SOL    HW214698  11.597   4.033   3.486
37642SOL     OW14699   0.906   8.227   1.889
37642SOL    HW114700   0.933   8.149   1.839
37642SOL    HW214701   0.847   8.193   1.956
37643SOL     OW14702  14.009   1.849   2.008
37643SOL    HW114703  13.946   1.779   2.027
37643SOL    HW214704  14.018   1.848   1.913
37644SOL     OW14705   7.618   4.559   7.610
37644SOL    HW114706   7.693   4.579   7.666
37644SOL    HW214707   7.635   4.605   7.528
37645SOL     OW14708   3.200   8.079  11.431
37645SOL    HW114709   3.263   8.022  11.475
37645SOL    HW214710   3.254   8.141  11.382
37646SOL     OW14711   8.671  12.356   3.978
37646SOL    HW114712   8.745  12.379   3.923
37646SOL    HW214713   8.620  12.436   3.986
37647SOL     OW14714   8.508  10.843  11.849
37647SOL    HW114715   8.561  10.819  11.773
37647SOL    HW214716   8.422  10.806  11.832
37648SOL     OW14717   7.635  14.646   6.553
37648SOL    HW114718   7.684  14.565   6.569
37648SOL    HW214719   7.547  14.627   6.585
37649SOL     OW14720   0.925  12.478   1.121
37649SOL    HW114721   0.997  12.542   1.117
37649SOL    HW214722   0.865  12.515   1.186
37650SOL     OW14723  12.738   8.783   2.058
37650SOL    HW114724  12.826   8.821   2.053
37650SOL    HW214725  12.748   8.695   2.023
37651SOL     OW14726  11.404   4.127   9.831
37651SOL    HW114727  11.354   4.049   9.806
37651SOL    HW214728  11.467   4.095   9.896
37652SOL     OW14729   8.483   3.422   8.079
37652SOL    HW114730   8.472   3.514   8.055
37652SOL    HW214731   8.404   3.400   8.128
37653SOL     OW14732   1.670   1.207  13.710
37653SOL    HW114733   1.739   1.245  13.764
37653SOL    HW214734   1.607   1.278  13.697
37654SOL     OW14735   3.976   0.560  12.721
37654SOL    HW114736   3.922   0.495  12.766
37654SOL    HW214737   4.066   0.534  12.741
37655SOL     OW14738   6.734   8.835   3.422
37655SOL    HW114739   6.683   8.915   3.438
37655SOL    HW214740   6.714   8.811   3.332
37656SOL     OW14741  12.245  12.530   8.880
37656SOL    HW114742  12.199  12.486   8.810
37656SOL    HW214743  12.207  12.496   8.961
37657SOL     OW14744   1.632  12.051   2.833
37657SOL    HW114745   1.659  12.121   2.774
37657SOL    HW214746   1.627  12.092   2.919
37658SOL     OW14747  13.270   3.172  10.539
37658SOL    HW114748  13.339   3.238  10.529
37658SOL    HW214749  13.253   3.170  10.633
37659SOL     OW14750   6.830   3.815   7.260
37659SOL    HW114751   6.789   3.899   7.281
37659SOL    HW214752   6.787   3.753   7.319
37660SOL     OW14753  10.761  11.443   8.412
37660SOL    HW114754  10.807  11.361   8.394
37660SOL    HW214755  10.784  11.500   8.339
37661SOL     OW14756  12.238  13.687   5.001
37661SOL    HW114757  12.305  13.638   4.954
37661SOL    HW214758  12.218  13.761   4.943
37662SOL     OW14759   9.105   2.619   7.576
37662SOL    HW114760   9.147   2.669   7.646
37662SOL    HW214761   9.025   2.669   7.556
37663SOL     OW14762   4.292   3.889  11.592
37663SOL    HW114763   4.282   3.824  11.522
37663SOL    HW214764   4.321   3.969  11.547
37664SOL     OW14765   8.834  10.977   8.899
37664SOL    HW114766   8.884  10.991   8.979
37664SOL    HW214767   8.893  10.927   8.842
37665SOL     OW14768   4.085  10.245  13.249
37665SOL    HW114769   4.137  10.268  13.172
37665SOL    HW214770   4.012  10.307  13.247
37666SOL     OW14771  10.829   1.503   3.148
37666SOL    HW114772  10.842   1.584   3.099
37666SOL    HW214773  10.917   1.470   3.164
37667SOL     OW14774  12.383  11.691   5.890
37667SOL    HW114775  12.314  11.727   5.946
37667SOL    HW214776  12.414  11.766   5.839
37668SOL     OW14777  13.244   3.587   2.537
37668SOL    HW114778  13.335   3.608   2.558
37668SOL    HW214779  13.195   3.610   2.616
37669SOL     OW14780  14.749   6.671   4.336
37669SOL    HW114781  14.829   6.676   4.388
37669SOL    HW214782  14.681   6.651   4.400
37670SOL     OW14783   7.361   4.138   3.215
37670SOL    HW114784   7.326   4.200   3.151
37670SOL    HW214785   7.376   4.189   3.294
37671SOL     OW14786   8.806   1.348   6.542
37671SOL    HW114787   8.754   1.281   6.585
37671SOL    HW214788   8.834   1.308   6.459
37672SOL     OW14789   8.457   3.225  11.505
37672SOL    HW114790   8.412   3.245  11.587
37672SOL    HW214791   8.434   3.134  11.486
37673SOL     OW14792   2.567   6.449   2.709
37673SOL    HW114793   2.600   6.363   2.735
37673SOL    HW214794   2.632   6.482   2.648
37674SOL     OW14795  13.031   8.198   8.107
37674SOL    HW114796  12.937   8.185   8.121
37674SOL    HW214797  13.057   8.259   8.175
37675SOL     OW14798   7.668   4.264  10.608
37675SOL    HW114799   7.667   4.356  10.635
37675SOL    HW214800   7.623   4.264  10.524
37676SOL     OW14801   4.222   9.993   1.920
37676SOL    HW114802   4.290   9.980   1.985
37676SOL    HW214803   4.243   9.931   1.850
37677SOL     OW14804  13.400  10.115  14.295
37677SOL    HW114805  13.402  10.053  14.222
37677SOL    HW214806  13.350  10.070  14.363
37678SOL     OW14807  14.402  10.220   1.587
37678SOL    HW114808  14.323  10.187   1.630
37678SOL    HW214809  14.456  10.252   1.659
37679SOL     OW14810   2.863   1.695  11.061
37679SOL    HW114811   2.814   1.774  11.039
37679SOL    HW214812   2.944   1.727  11.102
37680SOL     OW14813  13.484   5.441   3.864
37680SOL    HW114814  13.522   5.365   3.909
37680SOL    HW214815  13.441   5.491   3.933
37681SOL     OW14816   9.573  11.205   9.327
37681SOL    HW114817   9.650  11.169   9.283
37681SOL    HW214818   9.552  11.284   9.277
37682SOL     OW14819   1.401  13.990  14.053
37682SOL    HW114820   1.343  13.920  14.084
37682SOL    HW214821   1.341  14.062  14.029
37683SOL     OW14822   4.275  14.527   2.542
37683SOL    HW114823   4.296  14.611   2.582
37683SOL    HW214824   4.180  14.528   2.533
37684SOL     OW14825   5.385   1.207  14.290
37684SOL    HW114826   5.439   1.152  14.233
37684SOL    HW214827   5.322   1.146  14.329
37685SOL     OW14828   7.515  11.583   0.045
37685SOL    HW114829   7.433  11.556   0.004
37685SOL    HW214830   7.583  11.556  14.865
37686SOL     OW14831   4.959   0.401   2.127
37686SOL    HW114832   4.938   0.415   2.035
37686SOL    HW214833   5.044   0.442   2.139
37687SOL     OW14834  12.264  11.083  13.794
37687SOL    HW114835  12.334  11.040  13.844
37687SOL    HW214836  12.256  11.032  13.714
37688SOL     OW14837   0.869   4.329   9.800
37688SOL    HW114838   0.963   4.332   9.785
37688SOL    HW214839   0.858   4.266   9.871
37689SOL     OW14840   1.526   1.186   6.796
37689SOL    HW114841   1.578   1.265   6.804
37689SOL    HW214842   1.443   1.216   6.759
37690SOL     OW14843   4.082   3.479   4.436
37690SOL    HW114844   4.017   3.482   4.507
37690SOL    HW214845   4.083   3.568   4.401
37691SOL     OW14846  13.483   8.226  11.941
37691SOL    HW114847  13.410   8.184  11.986
37691SOL    HW214848  13.560   8.172  11.964
37692SOL     OW14849  11.479  14.252  12.181
37692SOL    HW114850  11.550  14.213  12.129
37692SOL    HW214851  11.470  14.341  12.144
37693SOL     OW14852   9.935  10.795   2.758
37693SOL    HW114853   9.900  10.726   2.701
37693SOL    HW214854   9.952  10.869   2.700
37694SOL     OW14855  12.650   3.481   8.930
37694SOL    HW114856  12.692   3.430   8.861
37694SOL    HW214857  12.567   3.510   8.892
37695SOL     OW14858   4.212   5.871   8.313
37695SOL    HW114859   4.154   5.827   8.251
37695SOL    HW214860   4.231   5.956   8.273
37696SOL     OW14861  14.382   6.999   2.582
37696SOL    HW114862  14.456   6.965   2.532
37696SOL    HW214863  14.306   6.982   2.526
37697SOL     OW14864   5.599   6.643   5.598
37697SOL    HW114865   5.594   6.622   5.691
37697SOL    HW214866   5.640   6.566   5.558
37698SOL     OW14867   4.634  14.199   9.567
37698SOL    HW114868   4.639  14.104   9.557
37698SOL    HW214869   4.567  14.213   9.634
37699SOL     OW14870   8.768   7.615   0.365
37699SOL    HW114871   8.740   7.612   0.456
37699SOL    HW214872   8.796   7.525   0.345
37700SOL     OW14873  11.182   8.055   5.950
37700SOL    HW114874  11.103   8.110   5.945
37700SOL    HW214875  11.180   8.003   5.870
37701SOL     OW14876   9.583   9.773   6.661
37701SOL    HW114877   9.596   9.679   6.672
37701SOL    HW214878   9.492   9.789   6.685
37702SOL     OW14879   3.156   4.370   8.578
37702SOL    HW114880   3.215   4.426   8.629
37702SOL    HW214881   3.120   4.428   8.510
37703SOL     OW14882   5.451  11.267  12.427
37703SOL    HW114883   5.415  11.338  12.480
37703SOL    HW214884   5.531  11.303  12.389
37704SOL     OW14885   6.680   7.553   2.102
37704SOL    HW114886   6.618   7.624   2.118
37704SOL    HW214887   6.681   7.503   2.184
37705SOL     OW14888   7.499  12.943   7.340
37705SOL    HW114889   7.458  12.857   7.355
37705SOL    HW214890   7.543  12.934   7.256
37706SOL     OW14891  14.430  11.850   5.471
37706SOL    HW114892  14.350  11.803   5.448
37706SOL    HW214893  14.404  11.942   5.472
37707SOL     OW14894   6.024   3.746   6.576
37707SOL    HW114895   6.021   3.829   6.624
37707SOL    HW214896   6.060   3.683   6.639
37708SOL     OW14897  13.703   7.369   2.669
37708SOL    HW114898  13.777   7.401   2.720
37708SOL    HW214899  13.707   7.273   2.678
37709SOL     OW14900   6.263  10.068   3.045
37709SOL    HW114901   6.292  10.043   2.958
37709SOL    HW214902   6.169  10.047   3.046
37710SOL     OW14903   7.306   1.917   9.322
37710SOL    HW114904   7.312   1.900   9.416
37710SOL    HW214905   7.365   1.853   9.283
37711SOL     OW14906   3.346   4.369  10.132
37711SOL    HW114907   3.398   4.395  10.207
37711SOL    HW214908   3.264   4.419  10.141
37712SOL     OW14909   2.053   5.851   1.226
37712SOL    HW114910   2.141   5.859   1.190
37712SOL    HW214911   2.006   5.928   1.193
37713SOL     OW14912  12.162  12.427   6.537
37713SOL    HW114913  12.241  12.387   6.501
37713SOL    HW214914  12.183  12.442   6.629
37714SOL     OW14915  14.132  11.173   8.524
37714SOL    HW114916  14.055  11.173   8.467
37714SOL    HW214917  14.164  11.263   8.523
37715SOL     OW14918   8.151   0.124   2.731
37715SOL    HW114919   8.080   0.111   2.793
37715SOL    HW214920   8.169   0.218   2.734
37716SOL     OW14921   5.599  10.377   8.268
37716SOL    HW114922   5.580  10.283   8.269
37716SOL    HW214923   5.547  10.412   8.341
37717SOL     OW14924  12.949   3.577  14.325
37717SOL    HW114925  12.971   3.531  14.406
37717SOL    HW214926  13.002   3.657  14.328
37718SOL     OW14927   6.297   5.399   3.007
37718SOL    HW114928   6.254   5.338   3.067
37718SOL    HW214929   6.349   5.455   3.065
37719SOL     OW14930  11.944   7.318   9.453
37719SOL    HW114931  12.031   7.330   9.491
37719SOL    HW214932  11.894   7.394   9.481
37720SOL     OW14933   1.264  10.626   7.909
37720SOL    HW114934   1.285  10.541   7.872
37720SOL    HW214935   1.197  10.608   7.975
37721SOL     OW14936  14.250  13.005   6.566
37721SOL    HW114937  14.161  12.978   6.543
37721SOL    HW214938  14.289  13.033   6.483
37722SOL     OW14939  12.098  10.556   2.691
37722SOL    HW114940  12.183  10.601   2.685
37722SOL    HW214941  12.079  10.530   2.601
37723SOL     OW14942   2.237   1.919   1.040
37723SOL    HW114943   2.318   1.956   1.004
37723SOL    HW214944   2.173   1.989   1.030
37724SOL     OW14945   7.348  12.603   9.353
37724SOL    HW114946   7.420  12.609   9.414
37724SOL    HW214947   7.315  12.692   9.345
37725SOL     OW14948   2.967  11.247   5.000
37725SOL    HW114949   2.993  11.271   4.911
37725SOL    HW214950   3.049  11.235   5.047
37726SOL     OW14951   8.498   1.698   1.199
37726SOL    HW114952   8.541   1.694   1.113
37726SOL    HW214953   8.418   1.748   1.183
37727SOL     OW14954   2.712   1.764   1.577
37727SOL    HW114955   2.621   1.780   1.599
37727SOL    HW214956   2.730   1.676   1.612
37728SOL     OW14957   4.142   4.787   4.283
37728SOL    HW114958   4.065   4.730   4.290
37728SOL    HW214959   4.189   4.774   4.365
37729SOL     OW14960  10.977  13.556  13.855
37729SOL    HW114961  11.000  13.625  13.917
37729SOL    HW214962  10.919  13.599  13.793
37730SOL     OW14963  13.151  12.129  12.183
37730SOL    HW114964  13.163  12.101  12.274
37730SOL    HW214965  13.083  12.070  12.149
37731SOL     OW14966   5.870  12.545  14.757
37731SOL    HW114967   5.884  12.584  14.844
37731SOL    HW214968   5.885  12.452  14.770
37732SOL     OW14969   4.697   3.112   9.185
37732SOL    HW114970   4.788   3.101   9.157
37732SOL    HW214971   4.701   3.169   9.261
37733SOL     OW14972  13.200  14.664   7.535
37733SOL    HW114973  13.220  14.619   7.453
37733SOL    HW214974  13.104  14.669   7.536
37734SOL     OW14975   1.058   3.273   9.849
37734SOL    HW114976   0.988   3.260   9.784
37734SOL    HW214977   1.122   3.204   9.829
37735SOL     OW14978  13.364   0.366  14.065
37735SOL    HW114979  13.445   0.400  14.025
37735SOL    HW214980  13.334   0.299  14.004
37736SOL     OW14981  10.588  10.687  14.682
37736SOL    HW114982  10.547  10.701  14.597
37736SOL    HW214983  10.542  10.747  14.741
37737SOL     OW14984  13.033  13.146   1.510
37737SOL    HW114985  13.105  13.163   1.450
37737SOL    HW214986  13.019  13.052   1.506
37738SOL     OW14987  11.713   0.588   9.471
37738SOL    HW114988  11.751   0.626   9.550
37738SOL    HW214989  11.681   0.663   9.421
37739SOL     OW14990   7.522   8.102   8.351
37739SOL    HW114991   7.492   8.021   8.392
37739SOL    HW214992   7.451   8.127   8.291
37740SOL     OW14993   0.085  11.149   9.788
37740SOL    HW114994  14.880  11.150   9.746
37740SOL    HW214995   0.146  11.133   9.716
37741SOL     OW14996  12.234  14.558   0.895
37741SOL    HW114997  12.200  14.622   0.833
37741SOL    HW214998  12.255  14.482   0.842
37742SOL     OW14999   3.119  14.243   5.221
37742SOL    HW115000   3.161  14.329   5.227
37742SOL    HW215001   3.026  14.263   5.211
37743SOL     OW15002   3.134  11.240   0.329
37743SOL    HW115003   3.127  11.149   0.301
37743SOL    HW215004   3.079  11.288   0.267
37744SOL     OW15005   5.249   2.227   9.493
37744SOL    HW115006   5.278   2.195   9.407
37744SOL    HW215007   5.268   2.321   9.491
37745SOL     OW15008  14.030   1.557   0.087
37745SOL    HW115009  13.977   1.554   0.008
37745SOL    HW215010  14.119   1.541   0.058
37746SOL     OW15011   0.092  14.860   3.184
37746SOL    HW115012   0.187  14.868   3.182
37746SOL    HW215013   0.073  14.780   3.135
37747SOL     OW15014   2.789   0.808  13.765
37747SOL    HW115015   2.837   0.838  13.688
37747SOL    HW215016   2.701   0.789  13.732
37748SOL     OW15017   7.353   2.667  12.724
37748SOL    HW115018   7.383   2.700  12.809
37748SOL    HW215019   7.348   2.745  12.669
37749SOL     OW15020   9.414   4.154   3.633
37749SOL    HW115021   9.401   4.126   3.542
37749SOL    HW215022   9.361   4.094   3.685
37750SOL     OW15023   6.300   9.624  11.799
37750SOL    HW115024   6.376   9.611  11.742
37750SOL    HW215025   6.279   9.717  11.791
37751SOL     OW15026   6.266   2.103   9.592
37751SOL    HW115027   6.217   2.033   9.635
37751SOL    HW215028   6.271   2.076   9.501
37752SOL     OW15029   3.127   8.507  11.398
37752SOL    HW115030   3.170   8.548  11.323
37752SOL    HW215031   3.196   8.457  11.441
37753SOL     OW15032   4.380  12.831  13.064
37753SOL    HW115033   4.461  12.875  13.037
37753SOL    HW215034   4.348  12.883  13.138
37754SOL     OW15035   9.821   9.309   9.626
37754SOL    HW115036   9.916   9.303   9.614
37754SOL    HW215037   9.800   9.400   9.608
37755SOL     OW15038  12.611  10.722   1.076
37755SOL    HW115039  12.581  10.776   1.003
37755SOL    HW215040  12.676  10.664   1.037
37756SOL     OW15041   1.974  11.675   1.414
37756SOL    HW115042   1.967  11.763   1.377
37756SOL    HW215043   1.883  11.645   1.421
37757SOL     OW15044  11.891   6.300   0.798
37757SOL    HW115045  11.841   6.233   0.753
37757SOL    HW215046  11.835   6.378   0.796
37758SOL     OW15047   9.691   3.359   0.859
37758SOL    HW115048   9.701   3.356   0.954
37758SOL    HW215049   9.695   3.452   0.837
37759SOL     OW15050  14.490   4.282   5.534
37759SOL    HW115051  14.457   4.273   5.624
37759SOL    HW215052  14.412   4.288   5.480
37760SOL     OW15053  10.392   3.350  11.366
37760SOL    HW115054  10.379   3.357  11.461
37760SOL    HW215055  10.454   3.419  11.345
37761SOL     OW15056   1.350  14.714   4.844
37761SOL    HW115057   1.410  14.749   4.779
37761SOL    HW215058   1.263  14.726   4.806
37762SOL     OW15059   3.182  10.942   8.460
37762SOL    HW115060   3.196  10.868   8.519
37762SOL    HW215061   3.263  10.993   8.466
37763SOL     OW15062   5.380   1.665   4.798
37763SOL    HW115063   5.410   1.742   4.847
37763SOL    HW215064   5.326   1.701   4.728
37764SOL     OW15065   8.561   7.780  12.168
37764SOL    HW115066   8.499   7.853  12.177
37764SOL    HW215067   8.533   7.735  12.088
37765SOL     OW15068   6.281   9.797  12.280
37765SOL    HW115069   6.260   9.866  12.344
37765SOL    HW215070   6.221   9.726  12.302
37766SOL     OW15071   7.666   9.581   7.037
37766SOL    HW115072   7.610   9.506   7.055
37766SOL    HW215073   7.732   9.579   7.107
37767SOL     OW15074   3.335   8.218   5.108
37767SOL    HW115075   3.316   8.241   5.199
37767SOL    HW215076   3.379   8.133   5.114
37768SOL     OW15077   7.887  10.362   9.515
37768SOL    HW115078   7.880  10.340   9.422
37768SOL    HW215079   7.980  10.378   9.529
37769SOL     OW15080   2.721   6.292   6.132
37769SOL    HW115081   2.765   6.377   6.129
37769SOL    HW215082   2.682   6.283   6.045
37770SOL     OW15083   8.741   7.177  14.623
37770SOL    HW115084   8.693   7.097  14.601
37770SOL    HW215085   8.765   7.166  14.715
37771SOL     OW15086  11.468  14.148  12.955
37771SOL    HW115087  11.488  14.184  12.869
37771SOL    HW215088  11.519  14.067  12.959
37772SOL     OW15089  12.917  12.118   5.528
37772SOL    HW115090  12.941  12.158   5.444
37772SOL    HW215091  12.957  12.176   5.594
37773SOL     OW15092  12.146   1.633   5.795
37773SOL    HW115093  12.217   1.605   5.738
37773SOL    HW215094  12.162   1.587   5.877
37774SOL     OW15095  11.652  13.068   7.798
37774SOL    HW115096  11.712  13.058   7.724
37774SOL    HW215097  11.662  13.160   7.824
37775SOL     OW15098  14.503   4.067  11.937
37775SOL    HW115099  14.592   4.100  11.951
37775SOL    HW215100  14.446   4.136  11.970
37776SOL     OW15101   8.615  10.514   4.960
37776SOL    HW115102   8.549  10.482   5.022
37776SOL    HW215103   8.680  10.559   5.014
37777SOL     OW15104   3.421   8.691   4.748
37777SOL    HW115105   3.413   8.608   4.796
37777SOL    HW215106   3.507   8.687   4.708
37778SOL     OW15107  11.957   2.216   3.971
37778SOL    HW115108  11.945   2.311   3.971
37778SOL    HW215109  12.035   2.202   3.917
37779SOL     OW15110   5.533   1.521   6.278
37779SOL    HW115111   5.440   1.498   6.278
37779SOL    HW215112   5.564   1.496   6.191
37780SOL     OW15113   3.132  14.377  12.393
37780SOL    HW115114   3.161  14.465  12.419
37780SOL    HW215115   3.062  14.356  12.456
37781SOL     OW15116   3.555   6.676   8.072
37781SOL    HW115117   3.467   6.675   8.110
37781SOL    HW215118   3.604   6.612   8.123
37782SOL     OW15119   9.275   7.407   4.149
37782SOL    HW115120   9.254   7.457   4.227
37782SOL    HW215121   9.293   7.319   4.181
37783SOL     OW15122  12.864  14.647   8.940
37783SOL    HW115123  12.776  14.609   8.939
37783SOL    HW215124  12.905  14.611   9.018
37784SOL     OW15125   3.946   0.789  13.282
37784SOL    HW115126   3.991   0.874  13.282
37784SOL    HW215127   3.904   0.785  13.196
37785SOL     OW15128   3.249  14.573  11.887
37785SOL    HW115129   3.182  14.634  11.918
37785SOL    HW215130   3.281  14.613  11.806
37786SOL     OW15131  12.108  14.355   5.783
37786SOL    HW115132  12.046  14.426   5.798
37786SOL    HW215133  12.174  14.365   5.851
37787SOL     OW15134  13.106   2.667   4.211
37787SOL    HW115135  13.011   2.677   4.213
37787SOL    HW215136  13.139   2.757   4.219
37788SOL     OW15137   3.223  11.755   6.084
37788SOL    HW115138   3.233  11.753   6.179
37788SOL    HW215139   3.131  11.731   6.070
37789SOL     OW15140   6.623  14.207   4.765
37789SOL    HW115141   6.528  14.200   4.774
37789SOL    HW215142   6.650  14.253   4.845
37790SOL     OW15143  13.135   9.517   2.721
37790SOL    HW115144  13.118   9.500   2.814
37790SOL    HW215145  13.163   9.608   2.718
37791SOL     OW15146   6.198  10.717  14.486
37791SOL    HW115147   6.217  10.633  14.444
37791SOL    HW215148   6.114  10.744  14.448
37792SOL     OW15149  12.652   4.257  11.414
37792SOL    HW115150  12.561   4.234  11.433
37792SOL    HW215151  12.703   4.184  11.449
37793SOL     OW15152   2.241   1.299   2.137
37793SOL    HW115153   2.282   1.385   2.125
37793SOL    HW215154   2.208   1.301   2.227
37794SOL     OW15155   1.282  11.089   5.449
37794SOL    HW115156   1.372  11.085   5.482
37794SOL    HW215157   1.237  11.147   5.509
37795SOL     OW15158   1.564  11.078   9.295
37795SOL    HW115159   1.584  11.123   9.213
37795SOL    HW215160   1.584  11.143   9.363
37796SOL     OW15161  14.254   5.324   0.239
37796SOL    HW115162  14.240   5.283   0.324
37796SOL    HW215163  14.205   5.407   0.243
37797SOL     OW15164  12.887  10.518   8.268
37797SOL    HW115165  12.967  10.561   8.300
37797SOL    HW215166  12.821  10.588   8.267
37798SOL     OW15167  10.055   7.034   3.200
37798SOL    HW115168   9.976   6.998   3.239
37798SOL    HW215169  10.107   7.064   3.274
37799SOL     OW15170   3.210   3.548  11.921
37799SOL    HW115171   3.253   3.613  11.976
37799SOL    HW215172   3.150   3.598  11.867
37800SOL     OW15173  10.832   8.261   1.363
37800SOL    HW115174  10.840   8.264   1.458
37800SOL    HW215175  10.866   8.175   1.338
37801SOL     OW15176   0.181  12.627  12.778
37801SOL    HW115177   0.256  12.573  12.803
37801SOL    HW215178   0.208  12.671  12.698
37802SOL     OW15179  10.237   5.261   5.448
37802SOL    HW115180  10.256   5.353   5.466
37802SOL    HW215181  10.321   5.217   5.457
37803SOL     OW15182   8.793   4.763   4.586
37803SOL    HW115183   8.700   4.787   4.585
37803SOL    HW215184   8.840   4.846   4.585
37804SOL     OW15185   2.754  11.847  12.858
37804SOL    HW115186   2.845  11.851  12.829
37804SOL    HW215187   2.711  11.789  12.795
37805SOL     OW15188  11.709   5.151   1.380
37805SOL    HW115189  11.704   5.236   1.335
37805SOL    HW215190  11.684   5.087   1.313
37806SOL     OW15191   9.114   3.715   9.109
37806SOL    HW115192   9.159   3.635   9.081
37806SOL    HW215193   9.073   3.692   9.192
37807SOL     OW15194  10.677  11.687  12.389
37807SOL    HW115195  10.689  11.598  12.358
37807SOL    HW215196  10.585  11.692  12.414
37808SOL     OW15197   9.522   3.411   2.976
37808SOL    HW115198   9.576   3.352   3.028
37808SOL    HW215199   9.494   3.478   3.038
37809SOL     OW15200   6.329   5.396   5.710
37809SOL    HW115201   6.329   5.303   5.733
37809SOL    HW215202   6.237   5.420   5.708
37810SOL     OW15203  12.650  13.508  10.237
37810SOL    HW115204  12.701  13.589  10.245
37810SOL    HW215205  12.625  13.487  10.327
37811SOL     OW15206   4.788   6.994   6.400
37811SOL    HW115207   4.867   7.032   6.439
37811SOL    HW215208   4.820   6.942   6.327
37812SOL     OW15209  12.039   0.655   9.291
37812SOL    HW115210  12.012   0.591   9.225
37812SOL    HW215211  12.131   0.673   9.270
37813SOL     OW15212  11.789  14.182   0.568
37813SOL    HW115213  11.818  14.216   0.652
37813SOL    HW215214  11.775  14.089   0.583
37814SOL     OW15215   0.680  11.949   8.776
37814SOL    HW115216   0.692  12.042   8.795
37814SOL    HW215217   0.769  11.914   8.771
37815SOL     OW15218   2.620   3.653   5.384
37815SOL    HW115219   2.581   3.722   5.439
37815SOL    HW215220   2.640   3.582   5.446
37816SOL     OW15221   6.355   5.474   4.319
37816SOL    HW115222   6.289   5.536   4.351
37816SOL    HW215223   6.427   5.482   4.382
37817SOL     OW15224   1.514   4.113   3.743
37817SOL    HW115225   1.543   4.199   3.774
37817SOL    HW215226   1.420   4.111   3.763
37818SOL     OW15227  11.306  10.284  10.826
37818SOL    HW115228  11.250  10.295  10.748
37818SOL    HW215229  11.276  10.203  10.866
37819SOL     OW15230  11.913   7.769  12.709
37819SOL    HW115231  11.939   7.840  12.769
37819SOL    HW215232  11.995   7.731  12.679
37820SOL     OW15233   7.529   9.149   6.849
37820SOL    HW115234   7.609   9.194   6.874
37820SOL    HW215235   7.533   9.064   6.893
37821SOL     OW15236   1.277   2.633   4.230
37821SOL    HW115237   1.301   2.541   4.219
37821SOL    HW215238   1.244   2.639   4.320
37822SOL     OW15239   3.987  13.860  10.729
37822SOL    HW115240   4.006  13.766  10.724
37822SOL    HW215241   4.072  13.902  10.732
37823SOL     OW15242   0.909   1.879   4.506
37823SOL    HW115243   0.928   1.953   4.448
37823SOL    HW215244   0.870   1.919   4.584
37824SOL     OW15245   2.893   3.670  12.645
37824SOL    HW115246   2.816   3.678  12.589
37824SOL    HW215247   2.912   3.760  12.673
37825SOL     OW15248   6.152  13.300   0.759
37825SOL    HW115249   6.219  13.246   0.799
37825SOL    HW215250   6.147  13.270   0.669
37826SOL     OW15251   7.664  12.897   1.857
37826SOL    HW115252   7.642  12.880   1.766
37826SOL    HW215253   7.699  12.814   1.890
37827SOL     OW15254   0.325  12.334   5.768
37827SOL    HW115255   0.351  12.266   5.706
37827SOL    HW215256   0.302  12.409   5.712
37828SOL     OW15257  13.633   6.758   3.068
37828SOL    HW115258  13.684   6.677   3.061
37828SOL    HW215259  13.695   6.827   3.045
37829SOL     OW15260  13.868  13.745   4.280
37829SOL    HW115261  13.894  13.689   4.353
37829SOL    HW215262  13.784  13.782   4.308
37830SOL     OW15263   8.003  11.103   1.661
37830SOL    HW115264   7.946  11.041   1.706
37830SOL    HW215265   7.956  11.124   1.580
37831SOL     OW15266   8.670   8.655  14.215
37831SOL    HW115267   8.705   8.568  14.195
37831SOL    HW215268   8.724   8.686  14.287
37832SOL     OW15269  12.731   2.097   0.940
37832SOL    HW115270  12.735   2.057   0.853
37832SOL    HW215271  12.820   2.089   0.974
37833SOL     OW15272   0.125   5.718  12.551
37833SOL    HW115273   0.159   5.766  12.476
37833SOL    HW215274   0.168   5.632  12.546
37834SOL     OW15275   4.387   8.060   3.083
37834SOL    HW115276   4.364   8.119   3.155
37834SOL    HW215277   4.312   8.062   3.024
37835SOL     OW15278   3.782   0.555   7.902
37835SOL    HW115279   3.696   0.548   7.943
37835SOL    HW215280   3.824   0.471   7.918
37836SOL     OW15281   2.703  10.039  10.723
37836SOL    HW115282   2.790  10.072  10.747
37836SOL    HW215283   2.707  10.028  10.628
37837SOL     OW15284  13.399  12.035   0.981
37837SOL    HW115285  13.485  12.024   1.020
37837SOL    HW215286  13.344  12.069   1.052
37838SOL     OW15287   4.257   6.952   3.239
37838SOL    HW115288   4.253   6.914   3.326
37838SOL    HW215289   4.336   7.007   3.240
37839SOL     OW15290  14.573   6.199  13.419
37839SOL    HW115291  14.658   6.225  13.384
37839SOL    HW215292  14.512   6.211  13.346
37840SOL     OW15293  10.189  14.203  12.894
37840SOL    HW115294  10.219  14.147  12.822
37840SOL    HW215295  10.212  14.292  12.867
37841SOL     OW15296  14.140   0.999  13.517
37841SOL    HW115297  14.178   1.086  13.509
37841SOL    HW215298  14.045   1.013  13.513
37842SOL     OW15299   4.430   0.593   0.250
37842SOL    HW115300   4.353   0.606   0.305
37842SOL    HW215301   4.503   0.593   0.312
37843SOL     OW15302   6.558   0.111  10.887
37843SOL    HW115303   6.490   0.117  10.820
37843SOL    HW215304   6.558   0.197  10.929
37844SOL     OW15305   3.616   9.383   6.512
37844SOL    HW115306   3.555   9.314   6.483
37844SOL    HW215307   3.701   9.355   6.477
37845SOL     OW15308  10.822   1.294   1.567
37845SOL    HW115309  10.864   1.258   1.489
37845SOL    HW215310  10.756   1.354   1.534
37846SOL     OW15311  12.457   8.518   7.833
37846SOL    HW115312  12.410   8.582   7.887
37846SOL    HW215313  12.489   8.453   7.896
37847SOL     OW15314   1.663   2.772   6.257
37847SOL    HW115315   1.639   2.722   6.336
37847SOL    HW215316   1.648   2.710   6.185
37848SOL     OW15317  11.361  14.719   7.732
37848SOL    HW115318  11.298  14.739   7.801
37848SOL    HW215319  11.430  14.670   7.776
37849SOL     OW15320   3.693   0.709  13.743
37849SOL    HW115321   3.647   0.626  13.756
37849SOL    HW215322   3.765   0.707  13.806
37850SOL     OW15323  10.088   7.367   3.083
37850SOL    HW115324  10.080   7.442   3.142
37850SOL    HW215325  10.156   7.312   3.123
37851SOL     OW15326   4.467   4.082  13.733
37851SOL    HW115327   4.510   4.122  13.657
37851SOL    HW215328   4.375   4.107  13.724
37852SOL     OW15329   5.311   6.919   2.485
37852SOL    HW115330   5.271   6.851   2.540
37852SOL    HW215331   5.240   6.950   2.430
37853SOL     OW15332   1.825   1.111   4.180
37853SOL    HW115333   1.765   1.146   4.245
37853SOL    HW215334   1.788   1.137   4.096
37854SOL     OW15335  12.330   3.925  14.036
37854SOL    HW115336  12.339   3.982  14.112
37854SOL    HW215337  12.236   3.922  14.019
37855SOL     OW15338   7.912  11.478   6.743
37855SOL    HW115339   7.997  11.498   6.705
37855SOL    HW215340   7.849  11.526   6.689
37856SOL     OW15341   9.730  12.511   1.931
37856SOL    HW115342   9.697  12.592   1.971
37856SOL    HW215343   9.798  12.481   1.991
37857SOL     OW15344   9.168   2.735  12.665
37857SOL    HW115345   9.084   2.707  12.702
37857SOL    HW215346   9.173   2.828  12.687
37858SOL     OW15347   8.520  10.569   2.966
37858SOL    HW115348   8.610  10.586   2.994
37858SOL    HW215349   8.466  10.610   3.033
37859SOL     OW15350   2.118   4.249   3.801
37859SOL    HW115351   2.064   4.254   3.880
37859SOL    HW215352   2.112   4.337   3.763
37860SOL     OW15353  13.437   6.357   1.060
37860SOL    HW115354  13.367   6.293   1.074
37860SOL    HW215355  13.518   6.309   1.080
37861SOL     OW15356  10.944   2.331   5.576
37861SOL    HW115357  10.955   2.330   5.671
37861SOL    HW215358  10.899   2.413   5.558
37862SOL     OW15359  10.311  13.986   1.949
37862SOL    HW115360  10.243  13.954   1.890
37862SOL    HW215361  10.390  13.941   1.921
37863SOL     OW15362   2.248   1.933   3.149
37863SOL    HW115363   2.302   1.975   3.083
37863SOL    HW215364   2.162   1.975   3.140
37864SOL     OW15365   7.563   3.301   3.721
37864SOL    HW115366   7.487   3.296   3.779
37864SOL    HW215367   7.623   3.233   3.753
37865SOL     OW15368   9.579   9.514   6.884
37865SOL    HW115369   9.617   9.427   6.891
37865SOL    HW215370   9.603   9.557   6.967
37866SOL     OW15371  14.553   4.779   0.713
37866SOL    HW115372  14.613   4.827   0.655
37866SOL    HW215373  14.532   4.699   0.666
37867SOL     OW15374   6.826  12.769   4.693
37867SOL    HW115375   6.834  12.744   4.785
37867SOL    HW215376   6.831  12.686   4.646
37868SOL     OW15377   7.605   0.164   7.700
37868SOL    HW115378   7.685   0.115   7.714
37868SOL    HW215379   7.631   0.256   7.707
37869SOL     OW15380  12.747  13.101   4.762
37869SOL    HW115381  12.777  13.119   4.673
37869SOL    HW215382  12.667  13.152   4.772
37870SOL     OW15383   8.192   7.865   4.632
37870SOL    HW115384   8.132   7.891   4.702
37870SOL    HW215385   8.241   7.791   4.669
37871SOL     OW15386   2.388   2.923   4.320
37871SOL    HW115387   2.392   2.828   4.309
37871SOL    HW215388   2.424   2.958   4.239
37872SOL     OW15389   3.459   8.874  14.845
37872SOL    HW115390   3.432   8.959  14.810
37872SOL    HW215391   3.510   8.835  14.774
37873SOL     OW15392   6.559   6.629   2.501
37873SOL    HW115393   6.578   6.721   2.520
37873SOL    HW215394   6.523   6.631   2.412
37874SOL     OW15395   2.834   3.606   0.668
37874SOL    HW115396   2.742   3.624   0.687
37874SOL    HW215397   2.867   3.687   0.630
37875SOL     OW15398  14.016   5.998  12.804
37875SOL    HW115399  13.975   5.918  12.838
37875SOL    HW215400  13.980   6.009  12.717
37876SOL     OW15401  12.960  13.810   8.761
37876SOL    HW115402  12.925  13.851   8.682
37876SOL    HW215403  12.919  13.723   8.763
37877SOL     OW15404  13.197  13.114   2.459
37877SOL    HW115405  13.168  13.199   2.427
37877SOL    HW215406  13.123  13.056   2.446
37878SOL     OW15407   1.984   6.295  14.484
37878SOL    HW115408   1.968   6.308  14.578
37878SOL    HW215409   1.917   6.232  14.457
37879SOL     OW15410   3.150   8.997  14.063
37879SOL    HW115411   3.138   8.941  14.139
37879SOL    HW215412   3.103   9.078  14.084
37880SOL     OW15413   5.508   6.882   7.214
37880SOL    HW115414   5.556   6.799   7.208
37880SOL    HW215415   5.424   6.864   7.172
37881SOL     OW15416  12.780   7.190   6.345
37881SOL    HW115417  12.853   7.201   6.406
37881SOL    HW215418  12.716   7.137   6.393
37882SOL     OW15419  13.479  13.605   1.303
37882SOL    HW115420  13.478  13.595   1.398
37882SOL    HW215421  13.482  13.515   1.269
37883SOL     OW15422   3.975  14.870   3.239
37883SOL    HW115423   3.951   0.006   3.330
37883SOL    HW215424   3.902  14.818   3.206
37884SOL     OW15425   0.702  13.237   6.943
37884SOL    HW115426   0.647  13.315   6.937
37884SOL    HW215427   0.641  13.166   6.964
37885SOL     OW15428   6.204   7.980   6.655
37885SOL    HW115429   6.191   7.936   6.739
37885SOL    HW215430   6.211   7.910   6.591
37886SOL     OW15431  11.509  13.358   6.993
37886SOL    HW115432  11.463  13.431   6.953
37886SOL    HW215433  11.491  13.284   6.935
37887SOL     OW15434  10.032   5.905   4.316
37887SOL    HW115435  10.016   5.856   4.397
37887SOL    HW215436  10.113   5.953   4.334
37888SOL     OW15437  10.482   8.139   0.555
37888SOL    HW115438  10.568   8.180   0.546
37888SOL    HW215439  10.428   8.180   0.488
37889SOL     OW15440  13.441   0.861   9.560
37889SOL    HW115441  13.433   0.929   9.493
37889SOL    HW215442  13.526   0.819   9.542
37890SOL     OW15443  14.425   3.002  10.327
37890SOL    HW115444  14.404   2.922  10.278
37890SOL    HW215445  14.439   2.972  10.416
37891SOL     OW15446   9.081  11.959   6.967
37891SOL    HW115447   9.130  12.008   7.033
37891SOL    HW215448   9.066  11.873   7.007
37892SOL     OW15449  12.227  11.027   7.358
37892SOL    HW115450  12.145  11.028   7.308
37892SOL    HW215451  12.293  10.994   7.297
37893SOL     OW15452  13.407   0.274  12.892
37893SOL    HW115453  13.498   0.260  12.918
37893SOL    HW215454  13.379   0.349  12.944
37894SOL     OW15455  10.793   2.195   7.844
37894SOL    HW115456  10.760   2.117   7.888
37894SOL    HW215457  10.777   2.178   7.751
37895SOL     OW15458   0.529   3.427   3.207
37895SOL    HW115459   0.569   3.514   3.216
37895SOL    HW215460   0.471   3.435   3.131
37896SOL     OW15461   4.556  14.645   3.946
37896SOL    HW115462   4.530  14.732   3.915
37896SOL    HW215463   4.568  14.656   4.041
37897SOL     OW15464   6.360   1.117  10.857
37897SOL    HW115465   6.355   1.172  10.778
37897SOL    HW215466   6.306   1.163  10.921
37898SOL     OW15467   4.082   6.241   7.201
37898SOL    HW115468   4.135   6.228   7.279
37898SOL    HW215469   4.025   6.315   7.223
37899SOL     OW15470   9.901   7.993   3.023
37899SOL    HW115471   9.848   8.072   3.024
37899SOL    HW215472   9.845   7.928   2.980
37900SOL     OW15473   2.599  14.858   8.943
37900SOL    HW115474   2.596  14.852   9.038
37900SOL    HW215475   2.586  14.768   8.913
37901SOL     OW15476  11.945  13.127   0.814
37901SOL    HW115477  11.928  13.140   0.721
37901SOL    HW215478  11.858  13.124   0.854
37902SOL     OW15479  14.088   8.244  12.227
37902SOL    HW115480  14.049   8.206  12.306
37902SOL    HW215481  14.180   8.215  12.231
37903SOL     OW15482   9.210  14.859   2.310
37903SOL    HW115483   9.219  14.805   2.388
37903SOL    HW215484   9.265  14.816   2.245
37904SOL     OW15485   1.307   1.367   4.833
37904SOL    HW115486   1.331   1.305   4.901
37904SOL    HW215487   1.254   1.432   4.877
37905SOL     OW15488   3.239   2.619   5.512
37905SOL    HW115489   3.308   2.653   5.455
37905SOL    HW215490   3.244   2.673   5.590
37906SOL     OW15491   5.443  11.557  12.540
37906SOL    HW115492   5.482  11.587  12.459
37906SOL    HW215493   5.349  11.574  12.530
37907SOL     OW15494   5.000   2.680  11.047
37907SOL    HW115495   5.011   2.618  10.975
37907SOL    HW215496   4.906   2.689  11.058
37908SOL     OW15497   0.375  11.431  13.901
37908SOL    HW115498   0.344  11.385  13.979
37908SOL    HW215499   0.344  11.377  13.828
37909SOL     OW15500  10.009   4.118   3.907
37909SOL    HW115501  10.091   4.152   3.941
37909SOL    HW215502  10.035   4.059   3.836
37910SOL     OW15503   1.076   9.181   7.076
37910SOL    HW115504   0.990   9.182   7.034
37910SOL    HW215505   1.107   9.091   7.063
37911SOL     OW15506  14.499   3.682  14.183
37911SOL    HW115507  14.535   3.656  14.098
37911SOL    HW215508  14.489   3.777  14.176
37912SOL     OW15509   3.844   8.421   3.591
37912SOL    HW115510   3.886   8.488   3.537
37912SOL    HW215511   3.916   8.376   3.634
37913SOL     OW15512  12.920   1.612  10.333
37913SOL    HW115513  12.877   1.616  10.248
37913SOL    HW215514  12.849   1.599  10.396
37914SOL     OW15515   1.225   1.433   0.519
37914SOL    HW115516   1.226   1.519   0.477
37914SOL    HW215517   1.197   1.450   0.608
37915SOL     OW15518   3.221   0.072   3.606
37915SOL    HW115519   3.253   0.051   3.694
37915SOL    HW215520   3.182  14.872   3.575
37916SOL     OW15521  14.630   7.747   0.478
37916SOL    HW115522  14.718   7.739   0.441
37916SOL    HW215523  14.578   7.682   0.432
37917SOL     OW15524   1.870  11.290   4.093
37917SOL    HW115525   1.882  11.290   3.998
37917SOL    HW215526   1.787  11.244   4.107
37918SOL     OW15527   6.403  13.259   4.267
37918SOL    HW115528   6.356  13.175   4.269
37918SOL    HW215529   6.476  13.244   4.207
37919SOL     OW15530  12.209   2.219   9.558
37919SOL    HW115531  12.199   2.145   9.498
37919SOL    HW215532  12.238   2.180   9.640
37920SOL     OW15533   8.454   3.708   0.218
37920SOL    HW115534   8.546   3.690   0.198
37920SOL    HW215535   8.433   3.786   0.167
37921SOL     OW15536   6.272   5.178   0.157
37921SOL    HW115537   6.178   5.171   0.175
37921SOL    HW215538   6.310   5.099   0.195
37922SOL     OW15539   6.121   6.040   2.807
37922SOL    HW115540   6.200   6.090   2.790
37922SOL    HW215541   6.052   6.086   2.758
37923SOL     OW15542  10.381  12.484  12.645
37923SOL    HW115543  10.362  12.556  12.704
37923SOL    HW215544  10.314  12.491  12.577
37924SOL     OW15545  12.932   3.914   0.937
37924SOL    HW115546  12.946   3.996   0.890
37924SOL    HW215547  12.838   3.915   0.959
37925SOL     OW15548  11.951   4.785   0.065
37925SOL    HW115549  11.931   4.796  14.854
37925SOL    HW215550  11.866   4.774   0.107
37926SOL     OW15551  14.465   2.797   5.240
37926SOL    HW115552  14.555   2.825   5.257
37926SOL    HW215553  14.474   2.719   5.185
37927SOL     OW15554   1.503  10.760   7.575
37927SOL    HW115555   1.533  10.673   7.602
37927SOL    HW215556   1.472  10.800   7.655
37928SOL     OW15557   3.671  12.753  10.167
37928SOL    HW115558   3.633  12.766  10.253
37928SOL    HW215559   3.717  12.835  10.148
37929SOL     OW15560   5.369   9.447   1.353
37929SOL    HW115561   5.412   9.385   1.412
37929SOL    HW215562   5.330   9.513   1.410
37930SOL     OW15563   6.065   9.622   9.529
37930SOL    HW115564   6.139   9.597   9.584
37930SOL    HW215565   6.100   9.690   9.471
37931SOL     OW15566   7.190   7.662  12.337
37931SOL    HW115567   7.199   7.736  12.277
37931SOL    HW215568   7.096   7.659  12.358
37932SOL     OW15569  13.382  13.607   9.596
37932SOL    HW115570  13.393  13.557   9.515
37932SOL    HW215571  13.289  13.600   9.616
37933SOL     OW15572   7.637  11.251   9.580
37933SOL    HW115573   7.677  11.290   9.657
37933SOL    HW215574   7.709  11.209   9.534
37934SOL     OW15575   4.213  12.486   5.914
37934SOL    HW115576   4.206  12.398   5.876
37934SOL    HW215577   4.298  12.486   5.958
37935SOL     OW15578   0.482  12.222   6.702
37935SOL    HW115579   0.469  12.163   6.775
37935SOL    HW215580   0.398  12.223   6.656
37936SOL     OW15581  10.863  10.455   7.974
37936SOL    HW115582  10.912  10.417   8.048
37936SOL    HW215583  10.802  10.516   8.015
37937SOL     OW15584  12.084   2.040  12.433
37937SOL    HW115585  12.173   2.063  12.409
37937SOL    HW215586  12.092   1.995  12.517
37938SOL     OW15587   7.781   4.866   6.760
37938SOL    HW115588   7.853   4.925   6.737
37938SOL    HW215589   7.707   4.896   6.707
37939SOL     OW15590   5.914  10.816   9.017
37939SOL    HW115591   5.821  10.836   9.009
37939SOL    HW215592   5.931  10.820   9.112
37940SOL     OW15593  12.645   7.640   9.005
37940SOL    HW115594  12.739   7.639   9.020
37940SOL    HW215595  12.611   7.706   9.065
37941SOL     OW15596  12.406  12.661  14.291
37941SOL    HW115597  12.421  12.687  14.382
37941SOL    HW215598  12.431  12.568  14.288
37942SOL     OW15599   9.381   8.830   2.155
37942SOL    HW115600   9.395   8.742   2.121
37942SOL    HW215601   9.287   8.844   2.147
37943SOL     OW15602   7.886   2.402  13.724
37943SOL    HW115603   7.833   2.340  13.673
37943SOL    HW215604   7.928   2.458  13.659
37944SOL     OW15605  10.201   3.483  10.008
37944SOL    HW115606  10.274   3.457   9.952
37944SOL    HW215607  10.220   3.442  10.092
37945SOL     OW15608   1.652   6.429   0.475
37945SOL    HW115609   1.595   6.504   0.456
37945SOL    HW215610   1.593   6.354   0.477
37946SOL     OW15611  12.761   3.322  12.242
37946SOL    HW115612  12.813   3.246  12.217
37946SOL    HW215613  12.739   3.365  12.159
37947SOL     OW15614  12.142  12.785  14.827
37947SOL    HW115615  12.076  12.772   0.014
37947SOL    HW215616  12.102  12.849  14.768
37948SOL     OW15617  13.615   3.544   1.735
37948SOL    HW115618  13.558   3.524   1.810
37948SOL    HW215619  13.683   3.476   1.739
37949SOL     OW15620   8.512   3.350  13.153
37949SOL    HW115621   8.463   3.331  13.233
37949SOL    HW215622   8.447   3.388  13.094
37950SOL     OW15623  10.476   6.361   5.228
37950SOL    HW115624  10.553   6.418   5.228
37950SOL    HW215625  10.432   6.380   5.146
37951SOL     OW15626   9.380  10.793  13.841
37951SOL    HW115627   9.294  10.752  13.845
37951SOL    HW215628   9.433  10.743  13.903
37952SOL     OW15629  12.209   0.800  14.620
37952SOL    HW115630  12.255   0.717  14.610
37952SOL    HW215631  12.279   0.864  14.634
37953SOL     OW15632   6.060   7.696  12.348
37953SOL    HW115633   6.083   7.750  12.272
37953SOL    HW215634   5.970   7.668  12.332
37954SOL     OW15635  12.169  12.346   5.029
37954SOL    HW115636  12.132  12.339   5.117
37954SOL    HW215637  12.155  12.438   5.005
37955SOL     OW15638   9.975   0.694   2.337
37955SOL    HW115639  10.041   0.677   2.270
37955SOL    HW215640  10.022   0.684   2.420
37956SOL     OW15641  13.351   6.045   4.228
37956SOL    HW115642  13.276   6.030   4.285
37956SOL    HW215643  13.315   6.089   4.151
37957SOL     OW15644   3.465  12.292   6.640
37957SOL    HW115645   3.444  12.373   6.685
37957SOL    HW215646   3.458  12.314   6.547
37958SOL     OW15647  11.644   5.993   6.548
37958SOL    HW115648  11.555   5.960   6.534
37958SOL    HW215649  11.677   6.011   6.460
37959SOL     OW15650   2.983   1.987   0.280
37959SOL    HW115651   2.903   1.937   0.294
37959SOL    HW215652   2.953   2.076   0.260
37960SOL     OW15653  12.765   4.058  11.546
37960SOL    HW115654  12.848   4.027  11.583
37960SOL    HW215655  12.716   3.978  11.525
37961SOL     OW15656   6.826   0.522   9.989
37961SOL    HW115657   6.887   0.510   9.916
37961SOL    HW215658   6.843   0.447  10.047
37962SOL     OW15659   9.620  13.048  12.985
37962SOL    HW115660   9.556  13.085  12.923
37962SOL    HW215661   9.566  13.007  13.052
37963SOL     OW15662  12.326   2.034  11.400
37963SOL    HW115663  12.401   2.092  11.414
37963SOL    HW215664  12.264   2.058  11.468
37964SOL     OW15665  10.616  12.546  11.053
37964SOL    HW115666  10.702  12.504  11.060
37964SOL    HW215667  10.582  12.518  10.968
37965SOL     OW15668   5.607   2.343   2.215
37965SOL    HW115669   5.530   2.319   2.267
37965SOL    HW215670   5.577   2.339   2.124
37966SOL     OW15671   4.415   5.209  14.331
37966SOL    HW115672   4.376   5.273  14.391
37966SOL    HW215673   4.445   5.261  14.256
37967SOL     OW15674   1.621  11.639   0.851
37967SOL    HW115675   1.536  11.663   0.887
37967SOL    HW215676   1.603  11.608   0.762
37968SOL     OW15677   8.397  11.445  12.848
37968SOL    HW115678   8.318  11.495  12.870
37968SOL    HW215679   8.463  11.477  12.909
37969SOL     OW15680   6.280   4.772  11.871
37969SOL    HW115681   6.234   4.689  11.863
37969SOL    HW215682   6.372   4.748  11.886
37970SOL     OW15683   8.487   4.162  10.852
37970SOL    HW115684   8.427   4.212  10.797
37970SOL    HW215685   8.509   4.086  10.800
37971SOL     OW15686  11.193  12.477  11.292
37971SOL    HW115687  11.198  12.432  11.207
37971SOL    HW215688  11.109  12.449  11.328
37972SOL     OW15689  12.019   6.644  10.493
37972SOL    HW115690  11.932   6.665  10.458
37972SOL    HW215691  12.079   6.660  10.420
37973SOL     OW15692   1.996  11.902   9.707
37973SOL    HW115693   1.925  11.868   9.761
37973SOL    HW215694   1.978  11.868   9.619
37974SOL     OW15695   6.827   3.017  11.002
37974SOL    HW115696   6.891   2.976  11.060
37974SOL    HW215697   6.874   3.029  10.919
37975SOL     OW15698  13.186   5.899   5.692
37975SOL    HW115699  13.175   5.918   5.785
37975SOL    HW215700  13.258   5.836   5.689
37976SOL     OW15701   9.608   8.036   6.019
37976SOL    HW115702   9.548   8.019   5.946
37976SOL    HW215703   9.629   8.129   6.012
37977SOL     OW15704   8.883   1.911  12.234
37977SOL    HW115705   8.928   1.911  12.150
37977SOL    HW215706   8.924   1.841  12.284
37978SOL     OW15707  10.502   6.761   6.618
37978SOL    HW115708  10.435   6.821   6.650
37978SOL    HW215709  10.461   6.674   6.623
37979SOL     OW15710   6.333   4.870   9.684
37979SOL    HW115711   6.371   4.798   9.735
37979SOL    HW215712   6.395   4.942   9.692
37980SOL     OW15713  13.916  11.452   2.547
37980SOL    HW115714  13.853  11.522   2.566
37980SOL    HW215715  13.872  11.372   2.574
37981SOL     OW15716  11.708   8.060   1.786
37981SOL    HW115717  11.786   8.008   1.806
37981SOL    HW215718  11.657   8.059   1.866
37982SOL     OW15719   9.701  12.024  12.499
37982SOL    HW115720   9.624  11.968  12.490
37982SOL    HW215721   9.746  12.018  12.414
37983SOL     OW15722   0.392  10.380   9.542
37983SOL    HW115723   0.450  10.328   9.597
37983SOL    HW215724   0.308  10.380   9.587
37984SOL     OW15725   5.517  14.273  12.534
37984SOL    HW115726   5.582  14.305  12.596
37984SOL    HW215727   5.498  14.348  12.478
37985SOL     OW15728  12.550   0.843   1.918
37985SOL    HW115729  12.633   0.804   1.944
37985SOL    HW215730  12.526   0.899   1.992
37986SOL     OW15731  14.029   4.142   8.026
37986SOL    HW115732  13.967   4.105   8.089
37986SOL    HW215733  13.977   4.156   7.947
37987SOL     OW15734  10.302   5.486   8.062
37987SOL    HW115735  10.279   5.525   7.978
37987SOL    HW215736  10.227   5.506   8.119
37988SOL     OW15737   9.137   9.811   2.503
37988SOL    HW115738   9.178   9.873   2.563
37988SOL    HW215739   9.200   9.739   2.497
37989SOL     OW15740  13.185   6.617   4.301
37989SOL    HW115741  13.143   6.544   4.256
37989SOL    HW215742  13.256   6.644   4.243
37990SOL     OW15743  10.401  11.453   0.188
37990SOL    HW115744  10.394  11.365   0.225
37990SOL    HW215745  10.408  11.511   0.264
37991SOL     OW15746   6.876   8.974   5.224
37991SOL    HW115747   6.960   8.971   5.268
37991SOL    HW215748   6.893   8.945   5.135
37992SOL     OW15749  10.236   2.384   8.659
37992SOL    HW115750  10.150   2.405   8.697
37992SOL    HW215751  10.294   2.374   8.734
37993SOL     OW15752  12.189   4.966   5.675
37993SOL    HW115753  12.118   5.017   5.713
37993SOL    HW215754  12.246   5.031   5.633
37994SOL     OW15755   4.430   7.090  14.466
37994SOL    HW115756   4.429   7.028  14.539
37994SOL    HW215757   4.392   7.170  14.501
37995SOL     OW15758  10.158   7.469  11.284
37995SOL    HW115759  10.141   7.383  11.246
37995SOL    HW215760  10.076   7.495  11.325
37996SOL     OW15761   9.159   7.452   2.337
37996SOL    HW115762   9.223   7.416   2.275
37996SOL    HW215763   9.080   7.400   2.323
37997SOL     OW15764   6.968  14.337  13.506
37997SOL    HW115765   7.008  14.260  13.465
37997SOL    HW215766   6.881  14.343  13.465
37998SOL     OW15767  10.825   4.687  10.393
37998SOL    HW115768  10.793   4.728  10.313
37998SOL    HW215769  10.834   4.759  10.455
37999SOL     OW15770   8.496   3.195   9.498
37999SOL    HW115771   8.540   3.239   9.425
37999SOL    HW215772   8.407   3.178   9.466
38000SOL     OW15773   0.403  12.046   8.736
38000SOL    HW115774   0.352  12.006   8.666
38000SOL    HW215775   0.492  12.016   8.721
38001SOL     OW15776   9.206  14.342   9.224
38001SOL    HW115777   9.245  14.341   9.311
38001SOL    HW215778   9.278  14.319   9.165
38002SOL     OW15779   2.939   0.976   6.065
38002SOL    HW115780   2.865   0.987   6.124
38002SOL    HW215781   3.011   1.021   6.108
38003SOL     OW15782  14.608   3.601  14.783
38003SOL    HW115783  14.652   3.627  14.701
38003SOL    HW215784  14.583   3.510  14.769
38004SOL     OW15785   7.678  11.008  10.567
38004SOL    HW115786   7.610  10.947  10.539
38004SOL    HW215787   7.708  10.972  10.651
38005SOL     OW15788  10.956   6.788   2.554
38005SOL    HW115789  11.051   6.798   2.553
38005SOL    HW215790  10.941   6.701   2.517
38006SOL     OW15791   9.308  10.309   2.307
38006SOL    HW115792   9.263  10.372   2.250
38006SOL    HW215793   9.241  10.243   2.327
38007SOL     OW15794   0.383   7.573  12.165
38007SOL    HW115795   0.477   7.560  12.161
38007SOL    HW215796   0.373   7.663  12.196
38008SOL     OW15797   0.936   9.342   2.742
38008SOL    HW115798   0.903   9.254   2.726
38008SOL    HW215799   0.859   9.398   2.736
38009SOL     OW15800   3.341   6.883  12.472
38009SOL    HW115801   3.286   6.842  12.539
38009SOL    HW215802   3.387   6.810  12.431
38010SOL     OW15803   6.408   4.910   0.559
38010SOL    HW115804   6.331   4.867   0.594
38010SOL    HW215805   6.421   4.986   0.616
38011SOL     OW15806  10.101   1.229   1.436
38011SOL    HW115807  10.165   1.268   1.496
38011SOL    HW215808  10.153   1.173   1.378
38012SOL     OW15809  13.079  13.509   1.422
38012SOL    HW115810  12.998  13.560   1.424
38012SOL    HW215811  13.105  13.509   1.330
38013SOL     OW15812   1.303  12.220   9.379
38013SOL    HW115813   1.266  12.132   9.377
38013SOL    HW215814   1.247  12.268   9.439
38014SOL     OW15815   5.120   0.030   5.077
38014SOL    HW115816   5.110   0.066   5.165
38014SOL    HW215817   5.190  14.847   5.086
38015SOL     OW15818   6.061  10.239   0.237
38015SOL    HW115819   6.006  10.312   0.268
38015SOL    HW215820   6.027  10.218   0.150
38016SOL     OW15821   0.188   1.226   6.505
38016SOL    HW115822   0.238   1.301   6.536
38016SOL    HW215823   0.097   1.251   6.516
38017SOL     OW15824  12.466   5.518   1.347
38017SOL    HW115825  12.449   5.453   1.416
38017SOL    HW215826  12.446   5.602   1.388
38018SOL     OW15827   7.688  11.728  10.607
38018SOL    HW115828   7.660  11.652  10.658
38018SOL    HW215829   7.715  11.692  10.523
38019SOL     OW15830  13.145   7.187   3.413
38019SOL    HW115831  13.182   7.109   3.372
38019SOL    HW215832  13.098   7.155   3.490
38020SOL     OW15833  12.999   3.707   5.531
38020SOL    HW115834  12.968   3.729   5.443
38020SOL    HW215835  13.033   3.789   5.566
38021SOL     OW15836   9.019   0.122   9.956
38021SOL    HW115837   9.102   0.114   9.910
38021SOL    HW215838   9.039   0.176  10.032
38022SOL     OW15839   5.552  10.844  12.157
38022SOL    HW115840   5.458  10.863  12.161
38022SOL    HW215841   5.558  10.762  12.107
38023SOL     OW15842  11.730  11.242  10.188
38023SOL    HW115843  11.739  11.217  10.096
38023SOL    HW215844  11.679  11.322  10.187
38024SOL     OW15845  12.876  11.531   5.639
38024SOL    HW115846  12.815  11.601   5.664
38024SOL    HW215847  12.951  11.543   5.696
38025SOL     OW15848   6.620  11.030  13.003
38025SOL    HW115849   6.541  11.039  12.950
38025SOL    HW215850   6.603  11.083  13.081
38026SOL     OW15851   9.729   8.855   0.357
38026SOL    HW115852   9.750   8.888   0.445
38026SOL    HW215853   9.635   8.839   0.360
38027SOL     OW15854   6.244   6.440   5.976
38027SOL    HW115855   6.292   6.521   5.993
38027SOL    HW215856   6.261   6.386   6.053
38028SOL     OW15857   4.451  11.047   6.600
38028SOL    HW115858   4.420  11.122   6.650
38028SOL    HW215859   4.536  11.026   6.639
38029SOL     OW15860   1.532   8.923  10.247
38029SOL    HW115861   1.566   8.857  10.306
38029SOL    HW215862   1.440   8.935  10.274
38030SOL     OW15863   9.208   1.952   6.714
38030SOL    HW115864   9.196   2.037   6.671
38030SOL    HW215865   9.283   1.966   6.772
38031SOL     OW15866   9.801   1.963  14.646
38031SOL    HW115867   9.738   1.901  14.610
38031SOL    HW215868   9.746   2.030  14.689
38032SOL     OW15869  12.344   9.432  12.049
38032SOL    HW115870  12.285   9.380  12.103
38032SOL    HW215871  12.287   9.495  12.005
38033SOL     OW15872   0.357   4.286   1.729
38033SOL    HW115873   0.405   4.212   1.692
38033SOL    HW215874   0.266   4.255   1.734
38034SOL     OW15875  12.802  10.867   5.750
38034SOL    HW115876  12.791  10.962   5.749
38034SOL    HW215877  12.786  10.839   5.660
38035SOL     OW15878   8.428   8.625  10.969
38035SOL    HW115879   8.334   8.622  10.954
38035SOL    HW215880   8.467   8.637  10.882
38036SOL     OW15881   2.300  12.608   9.388
38036SOL    HW115882   2.337  12.689   9.352
38036SOL    HW215883   2.242  12.576   9.319
38037SOL     OW15884   4.942  14.475   1.773
38037SOL    HW115885   5.036  14.465   1.785
38037SOL    HW215886   4.921  14.556   1.821
38038SOL     OW15887   3.341   4.769   6.503
38038SOL    HW115888   3.255   4.794   6.536
38038SOL    HW215889   3.346   4.808   6.416
38039SOL     OW15890   0.131  13.101  14.569
38039SOL    HW115891   0.084  13.076  14.648
38039SOL    HW215892   0.145  13.019  14.522
38040SOL     OW15893   7.065  14.151  13.360
38040SOL    HW115894   7.152  14.123  13.387
38040SOL    HW215895   7.032  14.079  13.305
38041SOL     OW15896  14.857   8.330   9.842
38041SOL    HW115897  14.860   8.239   9.813
38041SOL    HW215898   0.016   8.329   9.929
38042SOL     OW15899  11.728  10.344  14.193
38042SOL    HW115900  11.809  10.308  14.228
38042SOL    HW215901  11.701  10.283  14.125
38043SOL     OW15902   8.598   8.975   6.555
38043SOL    HW115903   8.572   8.931   6.474
38043SOL    HW215904   8.662   8.916   6.595
38044SOL     OW15905   0.356   5.089  13.694
38044SOL    HW115906   0.412   5.142  13.750
38044SOL    HW215907   0.309   5.032  13.755
38045SOL     OW15908  13.131   7.146   4.046
38045SOL    HW115909  13.191   7.212   4.081
38045SOL    HW215910  13.086   7.112   4.123
38046SOL     OW15911  11.816   1.212  10.195
38046SOL    HW115912  11.745   1.246  10.142
38046SOL    HW215913  11.788   1.124  10.219
38047SOL     OW15914   7.923   3.135  14.134
38047SOL    HW115915   7.841   3.094  14.105
38047SOL    HW215916   7.895   3.212  14.183
38048SOL     OW15917  14.575  14.269   8.628
38048SOL    HW115918  14.651  14.211   8.626
38048SOL    HW215919  14.612  14.357   8.640
38049SOL     OW15920   9.833   5.841   5.746
38049SOL    HW115921   9.862   5.908   5.684
38049SOL    HW215922   9.885   5.856   5.825
38050SOL     OW15923   0.402  10.457   3.536
38050SOL    HW115924   0.339  10.526   3.521
38050SOL    HW215925   0.481  10.502   3.567
38051SOL     OW15926   7.433   6.997  11.110
38051SOL    HW115927   7.466   6.909  11.091
38051SOL    HW215928   7.391   7.024  11.028
38052SOL     OW15929   6.619   0.235  14.722
38052SOL    HW115930   6.559   0.219  14.795
38052SOL    HW215931   6.607   0.159  14.664
38053SOL     OW15932   4.769   0.164  13.452
38053SOL    HW115933   4.737   0.177  13.362
38053SOL    HW215934   4.708   0.102  13.490
38054SOL     OW15935  14.173   5.245  11.365
38054SOL    HW115936  14.086   5.279  11.384
38054SOL    HW215937  14.177   5.160  11.408
38055SOL     OW15938   3.109  12.959  13.927
38055SOL    HW115939   3.194  12.918  13.909
38055SOL    HW215940   3.063  12.955  13.843
38056SOL     OW15941   8.530  13.541   9.281
38056SOL    HW115942   8.492  13.471   9.334
38056SOL    HW215943   8.622  13.542   9.306
38057SOL     OW15944   5.555  10.214   6.055
38057SOL    HW115945   5.488  10.227   6.122
38057SOL    HW215946   5.585  10.124   6.067
38058SOL     OW15947   7.514   6.677   6.498
38058SOL    HW115948   7.514   6.585   6.472
38058SOL    HW215949   7.526   6.675   6.593
38059SOL     OW15950  14.724  13.053   6.419
38059SOL    HW115951  14.772  12.996   6.360
38059SOL    HW215952  14.781  13.129   6.431
38060SOL     OW15953   7.302  14.538   7.537
38060SOL    HW115954   7.308  14.623   7.580
38060SOL    HW215955   7.354  14.548   7.457
38061SOL     OW15956   3.806   6.014   2.344
38061SOL    HW115957   3.893   6.018   2.382
38061SOL    HW215958   3.747   6.008   2.419
38062SOL     OW15959  12.567   5.915   2.964
38062SOL    HW115960  12.628   5.846   2.991
38062SOL    HW215961  12.560   5.905   2.869
38063SOL     OW15962   3.572  10.345   6.890
38063SOL    HW115963   3.520  10.315   6.964
38063SOL    HW215964   3.577  10.269   6.832
38064SOL     OW15965   3.978  13.895  13.779
38064SOL    HW115966   4.005  13.978  13.739
38064SOL    HW215967   4.060  13.858  13.814
38065SOL     OW15968   9.859   9.457  13.426
38065SOL    HW115969   9.902   9.452  13.511
38065SOL    HW215970   9.766   9.458  13.446
38066SOL     OW15971  14.142  12.779   6.734
38066SOL    HW115972  14.216  12.839   6.727
38066SOL    HW215973  14.065  12.833   6.719
38067SOL     OW15974  10.777   5.950   3.932
38067SOL    HW115975  10.791   5.867   3.886
38067SOL    HW215976  10.844   5.951   4.000
38068SOL     OW15977  12.365  10.845  11.606
38068SOL    HW115978  12.382  10.939  11.602
38068SOL    HW215979  12.429  10.812  11.670
38069SOL     OW15980   9.410  13.792   4.677
38069SOL    HW115981   9.395  13.870   4.623
38069SOL    HW215982   9.343  13.730   4.647
38070SOL     OW15983   8.859   6.317  12.909
38070SOL    HW115984   8.812   6.290  12.989
38070SOL    HW215985   8.859   6.412  12.913
38071SOL     OW15986  11.079   5.559   8.038
38071SOL    HW115987  11.169   5.547   8.007
38071SOL    HW215988  11.045   5.632   7.986
38072SOL     OW15989   3.986  10.029   9.152
38072SOL    HW115990   4.055  10.077   9.197
38072SOL    HW215991   3.992  10.059   9.061
38073SOL     OW15992   7.375   4.135  14.636
38073SOL    HW115993   7.381   4.062  14.697
38073SOL    HW215994   7.390   4.213  14.690
38074SOL     OW15995   6.912   2.639  12.142
38074SOL    HW115996   6.861   2.702  12.193
38074SOL    HW215997   6.869   2.638  12.056
38075SOL     OW15998  10.707  13.130  14.450
38075SOL    HW115999  10.649  13.202  14.426
38075SOL    HW216000  10.691  13.116  14.543
38076SOL     OW16001   5.718  12.092   2.837
38076SOL    HW116002   5.749  12.036   2.765
38076SOL    HW216003   5.688  12.030   2.904
38077SOL     OW16004   0.170  14.455  12.373
38077SOL    HW116005   0.184  14.429  12.464
38077SOL    HW216006   0.248  14.506  12.351
38078SOL     OW16007   7.918  13.100  12.428
38078SOL    HW116008   7.921  13.070  12.337
38078SOL    HW216009   7.928  13.020  12.480
38079SOL     OW16010   3.935   5.497  14.009
38079SOL    HW116011   3.892   5.527  14.090
38079SOL    HW216012   3.874   5.433  13.973
38080SOL     OW16013  12.352  13.612   5.726
38080SOL    HW116014  12.275  13.638   5.675
38080SOL    HW216015  12.425  13.658   5.684
38081SOL     OW16016   6.526   9.397   0.063
38081SOL    HW116017   6.557   9.348   0.139
38081SOL    HW216018   6.563   9.351  14.870
38082SOL     OW16019  13.523   7.130   8.160
38082SOL    HW116020  13.486   7.061   8.216
38082SOL    HW216021  13.615   7.136   8.187
38083SOL     OW16022  14.038   7.416   0.065
38083SOL    HW116023  13.952   7.391   0.100
38083SOL    HW216024  14.019   7.477  14.875
38084SOL     OW16025   6.175  11.355   8.700
38084SOL    HW116026   6.235  11.302   8.752
38084SOL    HW216027   6.149  11.426   8.758
38085SOL     OW16028  13.018   0.061   2.395
38085SOL    HW116029  13.087   0.001   2.367
38085SOL    HW216030  12.940   0.007   2.399
38086SOL     OW16031   5.263   2.168  13.138
38086SOL    HW116032   5.253   2.132  13.226
38086SOL    HW216033   5.187   2.225  13.126
38087SOL     OW16034   7.170  11.035  11.075
38087SOL    HW116035   7.133  10.991  11.151
38087SOL    HW216036   7.136  10.986  11.000
38088SOL     OW16037  12.698  12.616  13.654
38088SOL    HW116038  12.770  12.564  13.691
38088SOL    HW216039  12.656  12.656  13.730
38089SOL     OW16040  12.773   4.250   0.440
38089SOL    HW116041  12.770   4.329   0.386
38089SOL    HW216042  12.827   4.275   0.515
38090SOL     OW16043   9.969   1.247  13.250
38090SOL    HW116044   9.982   1.178  13.185
38090SOL    HW216045  10.055   1.286  13.262
38091SOL     OW16046   8.477   1.862   3.111
38091SOL    HW116047   8.488   1.945   3.064
38091SOL    HW216048   8.485   1.795   3.043
38092SOL     OW16049   0.268  11.878   0.381
38092SOL    HW116050   0.260  11.828   0.462
38092SOL    HW216051   0.246  11.967   0.405
38093SOL     OW16052  12.362   1.697   7.339
38093SOL    HW116053  12.306   1.721   7.266
38093SOL    HW216054  12.303   1.686   7.413
38094SOL     OW16055   4.080  10.697   9.792
38094SOL    HW116056   4.157  10.691   9.849
38094SOL    HW216057   4.062  10.606   9.767
38095SOL     OW16058   9.006   2.220   4.888
38095SOL    HW116059   9.006   2.132   4.849
38095SOL    HW216060   9.076   2.217   4.953
38096SOL     OW16061  10.759   6.125   3.206
38096SOL    HW116062  10.675   6.084   3.224
38096SOL    HW216063  10.823   6.054   3.214
38097SOL     OW16064   3.480   4.041   0.976
38097SOL    HW116065   3.511   4.052   0.886
38097SOL    HW216066   3.387   4.020   0.967
38098SOL     OW16067   6.444   0.045   6.145
38098SOL    HW116068   6.531   0.083   6.141
38098SOL    HW216069   6.452  14.855   6.208
38099SOL     OW16070   5.964   4.916  12.107
38099SOL    HW116071   5.933   4.828  12.086
38099SOL    HW216072   6.059   4.911  12.098
38100SOL     OW16073  11.264   9.536   7.794
38100SOL    HW116074  11.246   9.621   7.832
38100SOL    HW216075  11.181   9.509   7.754
38101SOL     OW16076   8.481  10.812   4.236
38101SOL    HW116077   8.386  10.810   4.232
38101SOL    HW216078   8.508  10.721   4.240
38102SOL     OW16079   5.628   4.978   2.325
38102SOL    HW116080   5.712   4.933   2.319
38102SOL    HW216081   5.643   5.063   2.285
38103SOL     OW16082   3.450   5.303  10.596
38103SOL    HW116083   3.507   5.311  10.673
38103SOL    HW216084   3.473   5.218  10.558
38104SOL     OW16085  13.285   8.076   9.203
38104SOL    HW116086  13.318   8.071   9.113
38104SOL    HW216087  13.315   7.994   9.243
38105SOL     OW16088  10.614   8.525   0.758
38105SOL    HW116089  10.630   8.606   0.806
38105SOL    HW216090  10.520   8.509   0.769
38106SOL     OW16091  13.426   1.860   9.301
38106SOL    HW116092  13.469   1.775   9.306
38106SOL    HW216093  13.334   1.841   9.319
38107SOL     OW16094  10.288   7.208   6.220
38107SOL    HW116095  10.373   7.175   6.249
38107SOL    HW216096  10.284   7.297   6.255
38108SOL     OW16097   0.954  10.320  14.566
38108SOL    HW116098   0.879  10.331  14.507
38108SOL    HW216099   0.978  10.228  14.558
38109SOL     OW16100   5.460  10.237   1.855
38109SOL    HW116101   5.476  10.255   1.948
38109SOL    HW216102   5.508  10.156   1.838
38110SOL     OW16103   5.516   9.609  14.603
38110SOL    HW116104   5.569   9.687  14.584
38110SOL    HW216105   5.515   9.560  14.520
38111SOL     OW16106   3.560   1.276   8.740
38111SOL    HW116107   3.479   1.226   8.730
38111SOL    HW216108   3.540   1.361   8.698
38112SOL     OW16109   8.251   7.648   9.575
38112SOL    HW116110   8.163   7.616   9.595
38112SOL    HW216111   8.261   7.726   9.630
38113SOL     OW16112  11.645  12.714   1.746
38113SOL    HW116113  11.708  12.642   1.755
38113SOL    HW216114  11.697  12.793   1.762
38114SOL     OW16115   2.482  14.350  10.631
38114SOL    HW116116   2.480  14.402  10.551
38114SOL    HW216117   2.557  14.291  10.620
38115SOL     OW16118   8.364   5.090  11.098
38115SOL    HW116119   8.407   5.007  11.117
38115SOL    HW216120   8.354   5.092  11.003
38116SOL     OW16121   8.856  12.050  11.224
38116SOL    HW116122   8.863  12.144  11.210
38116SOL    HW216123   8.773  12.039  11.272
38117SOL     OW16124   5.109   5.763   9.537
38117SOL    HW116125   5.202   5.754   9.559
38117SOL    HW216126   5.091   5.684   9.485
38118SOL     OW16127   8.940  11.272   6.155
38118SOL    HW116128   8.893  11.207   6.104
38118SOL    HW216129   8.878  11.344   6.167
38119SOL     OW16130  13.181  12.637   4.793
38119SOL    HW116131  13.261  12.663   4.747
38119SOL    HW216132  13.157  12.713   4.845
38120SOL     OW16133   6.734   6.256   7.739
38120SOL    HW116134   6.797   6.328   7.747
38120SOL    HW216135   6.721   6.226   7.830
38121SOL     OW16136   1.722  13.196  12.784
38121SOL    HW116137   1.754  13.112  12.816
38121SOL    HW216138   1.788  13.223  12.720
38122SOL     OW16139   5.235  13.548   1.076
38122SOL    HW116140   5.307  13.488   1.094
38122SOL    HW216141   5.249  13.575   0.985
38123SOL     OW16142  14.470   9.070   8.001
38123SOL    HW116143  14.409   9.063   7.927
38123SOL    HW216144  14.455   8.990   8.052
38124SOL     OW16145   2.381  11.835  12.245
38124SOL    HW116146   2.326  11.813  12.321
38124SOL    HW216147   2.415  11.922  12.264
38125SOL     OW16148   1.034   2.278  12.978
38125SOL    HW116149   0.967   2.336  13.015
38125SOL    HW216150   1.000   2.190  12.990
38126SOL     OW16151   5.343  11.728   6.871
38126SOL    HW116152   5.297  11.807   6.899
38126SOL    HW216153   5.287  11.656   6.900
38127SOL     OW16154   7.800   8.354   0.541
38127SOL    HW116155   7.772   8.267   0.512
38127SOL    HW216156   7.860   8.337   0.613
38128SOL     OW16157  11.626   7.049   2.613
38128SOL    HW116158  11.572   7.087   2.544
38128SOL    HW216159  11.588   6.961   2.627
38129SOL     OW16160  12.405  11.032   4.888
38129SOL    HW116161  12.464  10.982   4.944
38129SOL    HW216162  12.440  11.121   4.889
38130SOL     OW16163  14.738  11.701  10.690
38130SOL    HW116164  14.821  11.656  10.708
38130SOL    HW216165  14.727  11.693  10.595
38131SOL     OW16166   9.182   9.985   6.487
38131SOL    HW116167   9.193  10.077   6.513
38131SOL    HW216168   9.192   9.986   6.392
38132SOL     OW16169  14.365   7.372   8.023
38132SOL    HW116170  14.313   7.319   7.963
38132SOL    HW216171  14.411   7.307   8.077
38133SOL     OW16172   4.584   8.882   9.514
38133SOL    HW116173   4.551   8.967   9.483
38133SOL    HW216174   4.589   8.892   9.609
38134SOL     OW16175   3.393   9.892   4.848
38134SOL    HW116176   3.428   9.980   4.865
38134SOL    HW216177   3.298   9.905   4.845
38135SOL     OW16178   7.227   8.637   6.572
38135SOL    HW116179   7.168   8.578   6.620
38135SOL    HW216180   7.288   8.669   6.639
38136SOL     OW16181   0.277   8.304   9.409
38136SOL    HW116182   0.187   8.300   9.442
38136SOL    HW216183   0.278   8.245   9.333
38137SOL     OW16184  13.309  14.581   2.017
38137SOL    HW116185  13.286  14.497   2.056
38137SOL    HW216186  13.325  14.562   1.925
38138SOL     OW16187   6.049   2.496   4.212
38138SOL    HW116188   5.988   2.566   4.191
38138SOL    HW216189   6.013   2.418   4.169
38139SOL     OW16190   8.958   8.475  12.334
38139SOL    HW116191   8.892   8.543  12.345
38139SOL    HW216192   8.908   8.398  12.308
38140SOL     OW16193   5.840   2.258   8.905
38140SOL    HW116194   5.790   2.307   8.840
38140SOL    HW216195   5.793   2.175   8.914
38141SOL     OW16196  14.229   7.939   6.820
38141SOL    HW116197  14.196   8.028   6.805
38141SOL    HW216198  14.323   7.950   6.835
38142SOL     OW16199   1.153  14.223  13.709
38142SOL    HW116200   1.075  14.264  13.670
38142SOL    HW216201   1.119  14.166  13.778
38143SOL     OW16202   0.116   5.936  13.001
38143SOL    HW116203   0.096   5.938  12.908
38143SOL    HW216204   0.155   6.022  13.018
38144SOL     OW16205   9.154   3.628   8.304
38144SOL    HW116206   9.120   3.717   8.294
38144SOL    HW216207   9.231   3.626   8.247
38145SOL     OW16208   3.843   2.200   9.617
38145SOL    HW116209   3.892   2.231   9.542
38145SOL    HW216210   3.886   2.240   9.693
38146SOL     OW16211  11.936  10.280  13.300
38146SOL    HW116212  11.956  10.272  13.207
38146SOL    HW216213  12.020  10.294  13.342
38147SOL     OW16214   0.318  10.553   4.596
38147SOL    HW116215   0.237  10.545   4.646
38147SOL    HW216216   0.334  10.647   4.592
38148SOL     OW16217  12.035   5.598  13.776
38148SOL    HW116218  12.012   5.690  13.788
38148SOL    HW216219  12.023   5.559  13.863
38149SOL     OW16220   2.812   4.488  12.888
38149SOL    HW116221   2.754   4.459  12.817
38149SOL    HW216222   2.847   4.407  12.925
38150SOL     OW16223  10.479  14.813  14.548
38150SOL    HW116224  10.411  14.769  14.497
38150SOL    HW216225  10.554  14.816  14.489
38151SOL     OW16226   1.626   4.402   5.001
38151SOL    HW116227   1.692   4.383   5.068
38151SOL    HW216228   1.660   4.361   4.921
38152SOL     OW16229   7.578   4.650   3.995
38152SOL    HW116230   7.590   4.668   4.088
38152SOL    HW216231   7.658   4.684   3.954
38153SOL     OW16232  13.583  12.978  14.720
38153SOL    HW116233  13.664  12.940  14.752
38153SOL    HW216234  13.555  12.919  14.650
38154SOL     OW16235  11.487  13.187   8.768
38154SOL    HW116236  11.498  13.147   8.854
38154SOL    HW216237  11.408  13.240   8.776
38155SOL     OW16238  10.148  11.428   5.457
38155SOL    HW116239  10.146  11.412   5.552
38155SOL    HW216240  10.195  11.511   5.448
38156SOL     OW16241   2.690   4.442   5.080
38156SOL    HW116242   2.778   4.406   5.079
38156SOL    HW216243   2.691   4.509   5.148
38157SOL     OW16244  14.114   2.281   4.586
38157SOL    HW116245  14.160   2.321   4.512
38157SOL    HW216246  14.105   2.353   4.649
38158SOL     OW16247   0.750  10.659  10.941
38158SOL    HW116248   0.672  10.651  10.995
38158SOL    HW216249   0.745  10.747  10.904
38159SOL     OW16250   0.594   8.065   3.989
38159SOL    HW116251   0.612   8.121   3.913
38159SOL    HW216252   0.518   8.013   3.964
38160SOL     OW16253  14.053  12.515   7.399
38160SOL    HW116254  14.130  12.469   7.434
38160SOL    HW216255  14.085  12.602   7.377
38161SOL     OW16256   7.436  13.636   3.147
38161SOL    HW116257   7.380  13.598   3.080
38161SOL    HW216258   7.448  13.566   3.212
38162SOL     OW16259   1.033   7.372  12.478
38162SOL    HW116260   1.014   7.465  12.463
38162SOL    HW216261   1.061   7.339  12.393
38163SOL     OW16262  11.035   1.936  11.692
38163SOL    HW116263  10.968   1.890  11.742
38163SOL    HW216264  11.117   1.916  11.736
38164SOL     OW16265   1.063   3.956   8.999
38164SOL    HW116266   1.129   3.908   9.050
38164SOL    HW216267   0.982   3.947   9.051
38165SOL     OW16268   5.091   2.748   3.283
38165SOL    HW116269   5.099   2.654   3.264
38165SOL    HW216270   5.164   2.767   3.341
38166SOL     OW16271   4.059   5.562   7.165
38166SOL    HW116272   4.093   5.554   7.076
38166SOL    HW216273   4.083   5.481   7.209
38167SOL     OW16274   7.365   3.087  10.925
38167SOL    HW116275   7.277   3.053  10.944
38167SOL    HW216276   7.370   3.087  10.829
38168SOL     OW16277  14.159   8.802   4.009
38168SOL    HW116278  14.090   8.738   4.024
38168SOL    HW216279  14.123   8.863   3.944
38169SOL     OW16280   6.021  14.018   6.643
38169SOL    HW116281   5.938  13.971   6.632
38169SOL    HW216282   6.027  14.074   6.566
38170SOL     OW16283   1.412   2.269   3.052
38170SOL    HW116284   1.389   2.197   3.110
38170SOL    HW216285   1.330   2.317   3.040
38171SOL     OW16286  13.384   1.011   7.402
38171SOL    HW116287  13.442   1.084   7.425
38171SOL    HW216288  13.422   0.936   7.448
38172SOL     OW16289   5.863   5.103  14.200
38172SOL    HW116290   5.820   5.093  14.115
38172SOL    HW216291   5.814   5.172  14.243
38173SOL     OW16292   8.066  12.395   8.837
38173SOL    HW116293   8.121  12.317   8.842
38173SOL    HW216294   8.120  12.464   8.876
38174SOL     OW16295  13.380  12.693   7.302
38174SOL    HW116296  13.358  12.726   7.389
38174SOL    HW216297  13.474  12.678   7.305
38175SOL     OW16298   7.994  11.762  11.131
38175SOL    HW116299   7.944  11.843  11.141
38175SOL    HW216300   8.084  11.787  11.147
38176SOL     OW16301   1.834  13.208   3.771
38176SOL    HW116302   1.767  13.229   3.836
38176SOL    HW216303   1.899  13.156   3.818
38177SOL     OW16304   5.460   0.489   3.375
38177SOL    HW116305   5.544   0.467   3.414
38177SOL    HW216306   5.417   0.544   3.440
38178SOL     OW16307   5.662   7.894   9.973
38178SOL    HW116308   5.669   7.966   9.910
38178SOL    HW216309   5.575   7.856   9.957
38179SOL     OW16310  14.563   3.949   6.802
38179SOL    HW116311  14.470   3.972   6.800
38179SOL    HW216312  14.585   3.946   6.895
38180SOL     OW16313   5.315   1.190   2.514
38180SOL    HW116314   5.404   1.221   2.494
38180SOL    HW216315   5.277   1.258   2.569
38181SOL     OW16316   2.759   0.974   6.278
38181SOL    HW116317   2.769   0.995   6.371
38181SOL    HW216318   2.712   0.891   6.278
38182SOL     OW16319  10.471  10.979   7.875
38182SOL    HW116320  10.381  11.011   7.867
38182SOL    HW216321  10.486  10.976   7.970
38183SOL     OW16322   4.174   2.088   0.732
38183SOL    HW116323   4.096   2.034   0.720
38183SOL    HW216324   4.247   2.032   0.708
38184SOL     OW16325   7.455  13.722   5.592
38184SOL    HW116326   7.378  13.719   5.648
38184SOL    HW216327   7.502  13.800   5.620
38185SOL     OW16328   6.601   2.639  11.490
38185SOL    HW116329   6.636   2.651  11.579
38185SOL    HW216330   6.508   2.620  11.504
38186SOL     OW16331  11.326  10.899   0.421
38186SOL    HW116332  11.335  10.976   0.477
38186SOL    HW216333  11.406  10.850   0.436
38187SOL     OW16334   5.899  13.102  11.599
38187SOL    HW116335   5.859  13.113  11.684
38187SOL    HW216336   5.950  13.021  11.606
38188SOL     OW16337  10.171   8.419   9.520
38188SOL    HW116338  10.211   8.372   9.594
38188SOL    HW216339  10.083   8.441   9.551
38189SOL     OW16340  13.924   5.715  13.859
38189SOL    HW116341  13.957   5.625  13.851
38189SOL    HW216342  13.872   5.714  13.940
38190SOL     OW16343   7.836   4.988   3.060
38190SOL    HW116344   7.838   5.037   2.978
38190SOL    HW216345   7.878   4.905   3.040
38191SOL     OW16346  11.351   2.260   2.123
38191SOL    HW116347  11.377   2.273   2.032
38191SOL    HW216348  11.294   2.183   2.120
38192SOL     OW16349   5.864   6.013  14.786
38192SOL    HW116350   5.908   6.092  14.819
38192SOL    HW216351   5.832   6.037  14.699
38193SOL     OW16352  10.910   4.719  12.553
38193SOL    HW116353  10.863   4.801  12.567
38193SOL    HW216354  10.966   4.735  12.477
38194SOL     OW16355   9.508   0.510   4.234
38194SOL    HW116356   9.512   0.429   4.285
38194SOL    HW216357   9.470   0.484   4.150
38195SOL     OW16358   7.044   3.352   4.799
38195SOL    HW116359   7.062   3.418   4.866
38195SOL    HW216360   7.120   3.293   4.803
38196SOL     OW16361   9.689   9.029   7.988
38196SOL    HW116362   9.664   8.985   7.907
38196SOL    HW216363   9.607   9.064   8.023
38197SOL     OW16364  14.004   5.963  13.809
38197SOL    HW116365  14.005   5.868  13.824
38197SOL    HW216366  14.021   5.973  13.716
38198SOL     OW16367  14.514  12.263  13.703
38198SOL    HW116368  14.458  12.186  13.713
38198SOL    HW216369  14.493  12.318  13.779
38199SOL     OW16370   3.154   1.785   2.693
38199SOL    HW116371   3.101   1.712   2.723
38199SOL    HW216372   3.100   1.830   2.628
38200SOL     OW16373   0.980   2.781   8.641
38200SOL    HW116374   0.911   2.828   8.595
38200SOL    HW216375   1.034   2.743   8.572
38201SOL     OW16376   0.587   4.246   0.315
38201SOL    HW116377   0.633   4.324   0.284
38201SOL    HW216378   0.649   4.204   0.375
38202SOL     OW16379   2.504   6.653   9.775
38202SOL    HW116380   2.441   6.710   9.819
38202SOL    HW216381   2.476   6.564   9.798
38203SOL     OW16382  10.038   4.119  10.282
38203SOL    HW116383   9.946   4.145  10.275
38203SOL    HW216384  10.066   4.106  10.191
38204SOL     OW16385   5.440  12.608   4.866
38204SOL    HW116386   5.411  12.671   4.932
38204SOL    HW216387   5.439  12.657   4.784
38205SOL     OW16388   6.242  12.556   3.002
38205SOL    HW116389   6.330  12.569   2.966
38205SOL    HW216390   6.209  12.478   2.958
38206SOL     OW16391   2.117   6.675  12.585
38206SOL    HW116392   2.120   6.763  12.549
38206SOL    HW216393   2.033   6.640  12.555
38207SOL     OW16394  14.369  14.579   0.223
38207SOL    HW116395  14.360  14.572   0.318
38207SOL    HW216396  14.390  14.491   0.194
38208SOL     OW16397  10.015  12.617   4.840
38208SOL    HW116398   9.983  12.694   4.792
38208SOL    HW216399  10.106  12.607   4.810
38209SOL     OW16400  10.054   0.452   8.275
38209SOL    HW116401  10.120   0.508   8.234
38209SOL    HW216402  10.013   0.508   8.341
38210SOL     OW16403   3.029  11.513   2.569
38210SOL    HW116404   2.978  11.583   2.528
38210SOL    HW216405   3.094  11.489   2.504
38211SOL     OW16406  14.881   0.673   1.443
38211SOL    HW116407   0.050   0.678   1.524
38211SOL    HW216408   0.049   0.614   1.387
38212SOL     OW16409  10.363   0.936  12.761
38212SOL    HW116410  10.409   0.943  12.845
38212SOL    HW216411  10.324   0.848  12.762
38213SOL     OW16412   2.620   9.782   5.919
38213SOL    HW116413   2.697   9.804   5.972
38213SOL    HW216414   2.628   9.836   5.841
38214SOL     OW16415   9.086   3.924  11.914
38214SOL    HW116416   9.046   3.963  11.992
38214SOL    HW216417   9.020   3.931  11.846
38215SOL     OW16418   5.195   0.449   5.443
38215SOL    HW116419   5.265   0.484   5.497
38215SOL    HW216420   5.184   0.359   5.473
38216SOL     OW16421  14.710  14.846   1.759
38216SOL    HW116422  14.737   0.023   1.688
38216SOL    HW216423  14.731  14.759   1.726
38217SOL     OW16424   8.708   5.391   5.082
38217SOL    HW116425   8.650   5.327   5.041
38217SOL    HW216426   8.685   5.474   5.041
38218SOL     OW16427  11.800   9.776   0.419
38218SOL    HW116428  11.732   9.711   0.437
38218SOL    HW216429  11.767   9.826   0.344
38219SOL     OW16430   2.134  12.233   3.967
38219SOL    HW116431   2.055  12.180   3.969
38219SOL    HW216432   2.106  12.321   3.992
38220SOL     OW16433   6.608   2.776   8.006
38220SOL    HW116434   6.556   2.723   8.067
38220SOL    HW216435   6.682   2.807   8.058
38221SOL     OW16436   0.025   5.630   3.599
38221SOL    HW116437   0.102   5.660   3.551
38221SOL    HW216438  14.859   5.576   3.536
38222SOL     OW16439   3.266   8.360  13.213
38222SOL    HW116440   3.288   8.362  13.120
38222SOL    HW216441   3.318   8.431  13.251
38223SOL     OW16442   2.653   0.044   7.447
38223SOL    HW116443   2.684   0.012   7.532
38223SOL    HW216444   2.703  14.875   7.383
38224SOL     OW16445   8.569  14.764   7.374
38224SOL    HW116446   8.625  14.833   7.338
38224SOL    HW216447   8.575  14.692   7.310
38225SOL     OW16448   5.885   8.017  12.351
38225SOL    HW116449   5.829   8.093  12.335
38225SOL    HW216450   5.914   7.991  12.264
38226SOL     OW16451   1.920  14.163  13.060
38226SOL    HW116452   1.988  14.197  13.002
38226SOL    HW216453   1.939  14.069  13.068
38227SOL     OW16454   6.919   4.088  12.925
38227SOL    HW116455   6.955   4.172  12.953
38227SOL    HW216456   6.990   4.025  12.939
38228SOL     OW16457   4.392  12.104  10.828
38228SOL    HW116458   4.443  12.153  10.763
38228SOL    HW216459   4.301  12.131  10.813
38229SOL     OW16460   5.297   2.055   2.864
38229SOL    HW116461   5.215   2.007   2.879
38229SOL    HW216462   5.292   2.130   2.923
38230SOL     OW16463  11.633   3.740   2.587
38230SOL    HW116464  11.695   3.813   2.593
38230SOL    HW216465  11.631   3.717   2.494
38231SOL     OW16466  11.556  12.513   2.126
38231SOL    HW116467  11.524  12.498   2.215
38231SOL    HW216468  11.642  12.554   2.138
38232SOL     OW16469  11.878  14.555   9.905
38232SOL    HW116470  11.944  14.577   9.839
38232SOL    HW216471  11.844  14.640   9.935
38233SOL     OW16472   1.608   1.900   3.231
38233SOL    HW116473   1.666   1.836   3.188
38233SOL    HW216474   1.634   1.897   3.323
38234SOL     OW16475   0.224   5.846  12.323
38234SOL    HW116476   0.289   5.854  12.253
38234SOL    HW216477   0.165   5.921  12.310
38235SOL     OW16478  11.937  13.943   8.436
38235SOL    HW116479  12.026  13.945   8.472
38235SOL    HW216480  11.882  13.912   8.509
38236SOL     OW16481   5.096  14.694   0.056
38236SOL    HW116482   5.084  14.685  14.843
38236SOL    HW216483   5.017  14.656   0.095
38237SOL     OW16484  12.693   2.626   5.690
38237SOL    HW116485  12.726   2.572   5.619
38237SOL    HW216486  12.603   2.647   5.664
38238SOL     OW16487   9.119   0.368   6.371
38238SOL    HW116488   9.116   0.359   6.276
38238SOL    HW216489   9.185   0.436   6.386
38239SOL     OW16490  10.614   7.737   9.712
38239SOL    HW116491  10.524   7.708   9.729
38239SOL    HW216492  10.660   7.658   9.684
38240SOL     OW16493   7.180   9.273   1.843
38240SOL    HW116494   7.205   9.234   1.927
38240SOL    HW216495   7.125   9.206   1.802
38241SOL     OW16496  12.460   1.447   8.624
38241SOL    HW116497  12.397   1.457   8.553
38241SOL    HW216498  12.502   1.532   8.632
38242SOL     OW16499   4.333  10.184   6.343
38242SOL    HW116500   4.339  10.272   6.380
38242SOL    HW216501   4.298  10.130   6.414
38243SOL     OW16502  12.614   9.010   8.007
38243SOL    HW116503  12.676   8.937   8.013
38243SOL    HW216504  12.644   9.072   8.073
38244SOL     OW16505   7.224  12.420   3.105
38244SOL    HW116506   7.130  12.413   3.120
38244SOL    HW216507   7.246  12.508   3.133
38245SOL     OW16508  14.260  13.931   8.265
38245SOL    HW116509  14.316  13.947   8.342
38245SOL    HW216510  14.171  13.929   8.300
38246SOL     OW16511   0.290   3.093   3.575
38246SOL    HW116512   0.275   3.175   3.621
38246SOL    HW216513   0.277   3.025   3.641
38247SOL     OW16514   6.319   2.406   7.987
38247SOL    HW116515   6.328   2.353   8.066
38247SOL    HW216516   6.378   2.365   7.923
38248SOL     OW16517  12.649   7.385   3.258
38248SOL    HW116518  12.603   7.317   3.207
38248SOL    HW216519  12.580   7.430   3.306
38249SOL     OW16520   3.183  12.357   3.390
38249SOL    HW116521   3.149  12.437   3.350
38249SOL    HW216522   3.276  12.357   3.367
38250SOL     OW16523   4.023   4.010   2.793
38250SOL    HW116524   3.977   3.953   2.855
38250SOL    HW216525   4.107   3.967   2.779
38251SOL     OW16526  13.362   0.615   0.474
38251SOL    HW116527  13.281   0.566   0.490
38251SOL    HW216528  13.341   0.670   0.397
38252SOL     OW16529   0.871   1.382   3.986
38252SOL    HW116530   0.850   1.290   4.001
38252SOL    HW216531   0.818   1.429   4.051
38253SOL     OW16532   1.921  13.651   9.662
38253SOL    HW116533   1.918  13.593   9.587
38253SOL    HW216534   1.829  13.666   9.685
38254SOL     OW16535   3.421   3.505   2.063
38254SOL    HW116536   3.494   3.556   2.027
38254SOL    HW216537   3.460   3.454   2.133
38255SOL     OW16538   5.081  10.334   2.581
38255SOL    HW116539   5.154  10.395   2.566
38255SOL    HW216540   5.009  10.390   2.610
38256SOL     OW16541  12.832   6.890   7.858
38256SOL    HW116542  12.841   6.872   7.765
38256SOL    HW216543  12.796   6.979   7.861
38257SOL     OW16544  10.510  13.461   0.218
38257SOL    HW116545  10.581  13.490   0.275
38257SOL    HW216546  10.548  13.391   0.165
38258SOL     OW16547  13.491   3.392   3.409
38258SOL    HW116548  13.536   3.321   3.455
38258SOL    HW216549  13.410   3.405   3.458
38259SOL     OW16550  10.401  12.620   9.626
38259SOL    HW116551  10.492  12.610   9.596
38259SOL    HW216552  10.386  12.543   9.682
38260SOL     OW16553   8.133  14.409   4.133
38260SOL    HW116554   8.103  14.332   4.183
38260SOL    HW216555   8.160  14.373   4.048
38261SOL     OW16556   5.114   7.389   2.074
38261SOL    HW116557   5.183   7.376   2.009
38261SOL    HW216558   5.036   7.351   2.034
38262SOL     OW16559   7.986   2.058  14.118
38262SOL    HW116560   7.900   2.096  14.099
38262SOL    HW216561   8.000   1.995  14.047
38263SOL     OW16562  12.876   1.869  11.150
38263SOL    HW116563  12.811   1.898  11.213
38263SOL    HW216564  12.854   1.915  11.069
38264SOL     OW16565  10.082   9.942   8.291
38264SOL    HW116566  10.149   9.877   8.268
38264SOL    HW216567  10.001   9.906   8.255
38265SOL     OW16568   1.316   8.574   5.734
38265SOL    HW116569   1.388   8.619   5.690
38265SOL    HW216570   1.359   8.516   5.797
38266SOL     OW16571   2.057  11.597   5.514
38266SOL    HW116572   2.100  11.513   5.529
38266SOL    HW216573   1.964  11.579   5.523
38267SOL     OW16574   3.890   0.840  13.570
38267SOL    HW116575   3.822   0.782  13.605
38267SOL    HW216576   3.943   0.783  13.515
38268SOL     OW16577  12.320   9.805   5.557
38268SOL    HW116578  12.231   9.773   5.570
38268SOL    HW216579  12.361   9.740   5.501
38269SOL     OW16580   7.004   1.792   5.753
38269SOL    HW116581   7.079   1.834   5.795
38269SOL    HW216582   6.950   1.763   5.827
38270SOL     OW16583   7.911   5.063   9.695
38270SOL    HW116584   7.935   4.982   9.739
38270SOL    HW216585   7.815   5.061   9.691
38271SOL     OW16586   5.920   5.143  11.953
38271SOL    HW116587   5.869   5.117  11.876
38271SOL    HW216588   5.922   5.065  12.008
38272SOL     OW16589  10.156  13.318   0.018
38272SOL    HW116590  10.156  13.383  14.829
38272SOL    HW216591  10.131  13.368   0.095
38273SOL     OW16592  14.651  10.286   9.518
38273SOL    HW116593  14.741  10.253   9.524
38273SOL    HW216594  14.619  10.284   9.608
38274SOL     OW16595   7.918  10.259   1.593
38274SOL    HW116596   7.945  10.321   1.525
38274SOL    HW216597   7.920  10.174   1.550
38275SOL     OW16598   8.284   9.463   6.398
38275SOL    HW116599   8.367   9.421   6.379
38275SOL    HW216600   8.229   9.444   6.321
38276SOL     OW16601   6.734  10.398   5.590
38276SOL    HW116602   6.748  10.370   5.681
38276SOL    HW216603   6.683  10.327   5.552
38277SOL     OW16604   4.406   8.615   4.363
38277SOL    HW116605   4.410   8.556   4.287
38277SOL    HW216606   4.364   8.694   4.329
38278SOL     OW16607   7.124  14.718   6.579
38278SOL    HW116608   7.064  14.793   6.586
38278SOL    HW216609   7.158  14.706   6.667
38279SOL     OW16610  12.864   6.268   0.992
38279SOL    HW116611  12.842   6.273   0.899
38279SOL    HW216612  12.779   6.267   1.036
38280SOL     OW16613   0.172  10.602   3.534
38280SOL    HW116614   0.102  10.641   3.481
38280SOL    HW216615   0.127  10.561   3.608
38281SOL     OW16616   3.877   9.052   4.339
38281SOL    HW116617   3.931   9.061   4.418
38281SOL    HW216618   3.787   9.054   4.371
38282SOL     OW16619  13.227   2.742   2.742
38282SOL    HW116620  13.268   2.798   2.677
38282SOL    HW216621  13.158   2.696   2.694
38283SOL     OW16622   5.888   6.731   6.464
38283SOL    HW116623   5.887   6.701   6.373
38283SOL    HW216624   5.953   6.801   6.466
38284SOL     OW16625   9.606  10.137   9.765
38284SOL    HW116626   9.582  10.229   9.758
38284SOL    HW216627   9.523  10.091   9.775
38285SOL     OW16628  13.773   6.163  14.879
38285SOL    HW116629  13.682   6.166   0.027
38285SOL    HW216630  13.819   6.228   0.050
38286SOL     OW16631  13.283   4.798   4.180
38286SOL    HW116632  13.205   4.851   4.163
38286SOL    HW216633  13.330   4.846   4.248
38287SOL     OW16634  13.221  11.158  10.644
38287SOL    HW116635  13.231  11.211  10.723
38287SOL    HW216636  13.155  11.204  10.592
38288SOL     OW16637  11.509   5.644  13.420
38288SOL    HW116638  11.463   5.722  13.388
38288SOL    HW216639  11.493   5.577  13.353
38289SOL     OW16640  13.989   0.833   4.529
38289SOL    HW116641  13.911   0.776   4.528
38289SOL    HW216642  14.001   0.858   4.438
38290SOL     OW16643   3.789  10.674  14.845
38290SOL    HW116644   3.776  10.630   0.048
38290SOL    HW216645   3.738  10.622  14.783
38291SOL     OW16646   6.807   2.145   7.794
38291SOL    HW116647   6.844   2.060   7.816
38291SOL    HW216648   6.874   2.208   7.819
38292SOL     OW16649   3.869   8.597  11.042
38292SOL    HW116650   3.946   8.647  11.018
38292SOL    HW216651   3.847   8.627  11.131
38293SOL     OW16652  14.450   9.750  12.433
38293SOL    HW116653  14.458   9.662  12.471
38293SOL    HW216654  14.388   9.795  12.490
38294SOL     OW16655   6.629   3.478   2.933
38294SOL    HW116656   6.629   3.430   3.015
38294SOL    HW216657   6.720   3.475   2.902
38295SOL     OW16658   1.957   4.211   1.930
38295SOL    HW116659   1.897   4.196   1.857
38295SOL    HW216660   1.904   4.254   1.997
38296SOL     OW16661   6.142  14.025   6.877
38296SOL    HW116662   6.223  14.042   6.828
38296SOL    HW216663   6.075  14.015   6.809
38297SOL     OW16664   7.967   0.145   5.126
38297SOL    HW116665   7.887   0.148   5.180
38297SOL    HW216666   7.936   0.129   5.037
38298SOL     OW16667   1.509   3.520  12.727
38298SOL    HW116668   1.565   3.590  12.760
38298SOL    HW216669   1.438   3.513  12.791
38299SOL     OW16670   4.302   3.999   6.336
38299SOL    HW116671   4.330   3.927   6.392
38299SOL    HW216672   4.353   3.990   6.256
38300SOL     OW16673   6.321  12.131   2.862
38300SOL    HW116674   6.312  12.038   2.844
38300SOL    HW216675   6.392  12.137   2.926
38301SOL     OW16676   9.784   5.629   5.494
38301SOL    HW116677   9.833   5.616   5.575
38301SOL    HW216678   9.697   5.593   5.511
38302SOL     OW16679   1.648   3.362   9.547
38302SOL    HW116680   1.688   3.300   9.608
38302SOL    HW216681   1.664   3.323   9.461
38303SOL     OW16682  14.231   3.961  13.266
38303SOL    HW116683  14.249   4.033  13.326
38303SOL    HW216684  14.203   3.889  13.323
38304SOL     OW16685   6.478  12.323  11.929
38304SOL    HW116686   6.489  12.327  12.024
38304SOL    HW216687   6.393  12.280  11.917
38305SOL     OW16688   4.908   4.016  14.880
38305SOL    HW116689   4.873   4.095   0.041
38305SOL    HW216690   4.857   4.007  14.800
38306SOL     OW16691   7.278  12.387  11.036
38306SOL    HW116692   7.198  12.418  10.994
38306SOL    HW216693   7.276  12.426  11.123
38307SOL     OW16694  14.319   2.127   0.925
38307SOL    HW116695  14.273   2.104   1.006
38307SOL    HW216696  14.271   2.080   0.857
38308SOL     OW16697   8.133   5.745   6.726
38308SOL    HW116698   8.221   5.738   6.764
38308SOL    HW216699   8.148   5.747   6.632
38309SOL     OW16700   3.654  11.471   4.333
38309SOL    HW116701   3.746  11.491   4.348
38309SOL    HW216702   3.644  11.470   4.238
38310SOL     OW16703   2.944   9.967  11.215
38310SOL    HW116704   2.943   9.913  11.294
38310SOL    HW216705   2.918  10.054  11.245
38311SOL     OW16706   8.147   4.095   4.040
38311SOL    HW116707   8.148   4.126   4.131
38311SOL    HW216708   8.054   4.089   4.018
38312SOL     OW16709   4.059  12.096   2.512
38312SOL    HW116710   3.967  12.109   2.486
38312SOL    HW216711   4.059  12.106   2.607
38313SOL     OW16712   7.637   6.275   1.315
38313SOL    HW116713   7.729   6.251   1.325
38313SOL    HW216714   7.589   6.192   1.322
38314SOL     OW16715   1.741   4.481   6.692
38314SOL    HW116716   1.782   4.415   6.636
38314SOL    HW216717   1.733   4.558   6.636
38315SOL     OW16718   2.487   0.718   2.410
38315SOL    HW116719   2.466   0.635   2.369
38315SOL    HW216720   2.406   0.769   2.405
38316SOL     OW16721   9.025   9.879  10.152
38316SOL    HW116722   9.061   9.800  10.193
38316SOL    HW216723   9.100   9.925  10.117
38317SOL     OW16724  14.278   1.608  13.348
38317SOL    HW116725  14.214   1.634  13.282
38317SOL    HW216726  14.313   1.524  13.316
38318SOL     OW16727  14.378   7.401   5.124
38318SOL    HW116728  14.415   7.368   5.205
38318SOL    HW216729  14.325   7.328   5.090
38319SOL     OW16730  13.237   7.973   2.491
38319SOL    HW116731  13.259   7.923   2.413
38319SOL    HW216732  13.319   8.016   2.516
38320SOL     OW16733   1.992  13.234   1.910
38320SOL    HW116734   2.082  13.260   1.925
38320SOL    HW216735   1.996  13.139   1.898
38321SOL     OW16736   8.256  13.204   2.316
38321SOL    HW116737   8.302  13.228   2.396
38321SOL    HW216738   8.267  13.109   2.309
38322SOL     OW16739   4.927   6.190  11.643
38322SOL    HW116740   4.871   6.268  11.645
38322SOL    HW216741   4.978   6.200  11.563
38323SOL     OW16742   2.696  10.047   4.681
38323SOL    HW116743   2.674  10.107   4.752
38323SOL    HW216744   2.614  10.000   4.663
38324SOL     OW16745   4.913  13.203   3.720
38324SOL    HW116746   4.982  13.255   3.762
38324SOL    HW216747   4.875  13.261   3.654
38325SOL     OW16748  10.752   4.806   0.807
38325SOL    HW116749  10.704   4.850   0.877
38325SOL    HW216750  10.743   4.713   0.827
38326SOL     OW16751   3.304   8.670   7.096
38326SOL    HW116752   3.284   8.688   7.188
38326SOL    HW216753   3.311   8.575   7.092
38327SOL     OW16754   9.594  11.027   4.380
38327SOL    HW116755   9.618  11.106   4.332
38327SOL    HW216756   9.521  11.054   4.436
38328SOL     OW16757  12.583   2.396   0.455
38328SOL    HW116758  12.674   2.368   0.449
38328SOL    HW216759  12.540   2.356   0.379
38329SOL     OW16760   8.462   4.565   4.576
38329SOL    HW116761   8.470   4.551   4.671
38329SOL    HW216762   8.371   4.593   4.563
38330SOL     OW16763   5.135   2.458   2.093
38330SOL    HW116764   5.191   2.535   2.090
38330SOL    HW216765   5.195   2.383   2.096
38331SOL     OW16766  11.077  10.738   0.744
38331SOL    HW116767  11.126  10.787   0.810
38331SOL    HW216768  11.000  10.792   0.725
38332SOL     OW16769   6.834  13.329   8.664
38332SOL    HW116770   6.819  13.279   8.744
38332SOL    HW216771   6.924  13.360   8.672
38333SOL     OW16772   2.497   0.742   7.001
38333SOL    HW116773   2.478   0.705   6.915
38333SOL    HW216774   2.581   0.704   7.026
38334SOL     OW16775   8.516   4.773   5.015
38334SOL    HW116776   8.456   4.821   5.073
38334SOL    HW216777   8.560   4.711   5.072
38335SOL     OW16778   7.002   3.649   0.561
38335SOL    HW116779   7.062   3.573   0.566
38335SOL    HW216780   7.042   3.714   0.618
38336SOL     OW16781   6.731   3.321   3.147
38336SOL    HW116782   6.825   3.332   3.165
38336SOL    HW216783   6.689   3.347   3.229
38337SOL     OW16784   0.948   0.895  13.626
38337SOL    HW116785   0.897   0.910  13.706
38337SOL    HW216786   0.959   0.981  13.587
38338SOL     OW16787   5.647  10.606  13.278
38338SOL    HW116788   5.650  10.512  13.291
38338SOL    HW216789   5.554  10.626  13.266
38339SOL     OW16790  13.991   5.100  13.255
38339SOL    HW116791  14.011   5.009  13.231
38339SOL    HW216792  13.925   5.092  13.323
38340SOL     OW16793  11.106  10.828   5.969
38340SOL    HW116794  11.172  10.769   5.932
38340SOL    HW216795  11.082  10.788   6.053
38341SOL     OW16796   7.107  12.614   9.573
38341SOL    HW116797   7.129  12.619   9.480
38341SOL    HW216798   7.070  12.699   9.594
38342SOL     OW16799   3.322   1.133  14.746
38342SOL    HW116800   3.396   1.156  14.802
38342SOL    HW216801   3.325   1.037  14.741
38343SOL     OW16802  13.796   5.467   1.639
38343SOL    HW116803  13.862   5.411   1.597
38343SOL    HW216804  13.742   5.498   1.566
38344SOL     OW16805  14.838  10.550   9.389
38344SOL    HW116806  14.785  10.485   9.342
38344SOL    HW216807   0.002  10.598   9.320
38345SOL     OW16808   5.329   0.955   3.140
38345SOL    HW116809   5.357   1.041   3.109
38345SOL    HW216810   5.263   0.973   3.207
38346SOL     OW16811  12.143   5.939   2.778
38346SOL    HW116812  12.204   6.001   2.739
38346SOL    HW216813  12.197   5.882   2.833
38347SOL     OW16814   9.214   2.333   6.935
38347SOL    HW116815   9.208   2.266   7.003
38347SOL    HW216816   9.128   2.332   6.893
38348SOL     OW16817  13.026   6.857   9.980
38348SOL    HW116818  12.998   6.949   9.983
38348SOL    HW216819  13.082   6.847  10.057
38349SOL     OW16820  13.458  11.015  12.089
38349SOL    HW116821  13.545  10.988  12.121
38349SOL    HW216822  13.399  10.947  12.123
38350SOL     OW16823   5.538   5.173   7.789
38350SOL    HW116824   5.524   5.232   7.715
38350SOL    HW216825   5.451   5.137   7.807
38351SOL     OW16826   3.844  12.158   5.529
38351SOL    HW116827   3.759  12.136   5.566
38351SOL    HW216828   3.882  12.074   5.502
38352SOL     OW16829  11.007   4.500  10.293
38352SOL    HW116830  10.943   4.442  10.253
38352SOL    HW216831  10.958   4.580  10.312
38353SOL     OW16832   0.529   5.697   4.061
38353SOL    HW116833   0.531   5.726   3.970
38353SOL    HW216834   0.460   5.631   4.063
38354SOL     OW16835   7.342   8.269  14.323
38354SOL    HW116836   7.362   8.270  14.230
38354SOL    HW216837   7.426   8.281  14.367
38355SOL     OW16838  13.690   7.392   8.055
38355SOL    HW116839  13.734   7.472   8.025
38355SOL    HW216840  13.729   7.322   8.004
38356SOL     OW16841   6.785   7.752   9.269
38356SOL    HW116842   6.690   7.740   9.258
38356SOL    HW216843   6.813   7.676   9.319
38357SOL     OW16844  12.908   3.988   3.443
38357SOL    HW116845  12.896   4.043   3.520
38357SOL    HW216846  12.896   3.898   3.475
38358SOL     OW16847  10.258   6.408  11.955
38358SOL    HW116848  10.346   6.417  11.992
38358SOL    HW216849  10.272   6.408  11.860
38359SOL     OW16850  10.127  14.049   8.225
38359SOL    HW116851  10.215  14.019   8.204
38359SOL    HW216852  10.140  14.133   8.269
38360SOL     OW16853  13.704   3.796  13.532
38360SOL    HW116854  13.740   3.859  13.594
38360SOL    HW216855  13.726   3.831  13.445
38361SOL     OW16856   9.760  13.294   2.643
38361SOL    HW116857   9.667  13.311   2.626
38361SOL    HW216858   9.768  13.198   2.640
38362SOL     OW16859  11.679   6.499  12.626
38362SOL    HW116860  11.766   6.498  12.666
38362SOL    HW216861  11.694   6.523  12.535
38363SOL     OW16862  13.092   2.179   5.726
38363SOL    HW116863  13.022   2.127   5.687
38363SOL    HW216864  13.132   2.121   5.791
38364SOL     OW16865  13.508  10.187   5.650
38364SOL    HW116866  13.417  10.212   5.641
38364SOL    HW216867  13.556  10.270   5.648
38365SOL     OW16868   7.449   0.571   4.305
38365SOL    HW116869   7.526   0.535   4.261
38365SOL    HW216870   7.449   0.664   4.282
38366SOL     OW16871   4.186   8.594   5.769
38366SOL    HW116872   4.201   8.500   5.761
38366SOL    HW216873   4.200   8.629   5.680
38367SOL     OW16874   6.748  12.317  14.833
38367SOL    HW116875   6.833  12.282  14.861
38367SOL    HW216876   6.767  12.364  14.752
38368SOL     OW16877   3.249  10.506  10.199
38368SOL    HW116878   3.343  10.511  10.183
38368SOL    HW216879   3.240  10.443  10.270
38369SOL     OW16880  13.211   3.956  12.791
38369SOL    HW116881  13.161   3.923  12.716
38369SOL    HW216882  13.174   4.043  12.807
38370SOL     OW16883   2.301   3.528  10.091
38370SOL    HW116884   2.213   3.548  10.123
38370SOL    HW216885   2.287   3.483  10.008
38371SOL     OW16886   3.401   4.878   8.157
38371SOL    HW116887   3.340   4.880   8.083
38371SOL    HW216888   3.390   4.790   8.194
38372SOL     OW16889  10.927   9.967   1.544
38372SOL    HW116890  10.840   9.929   1.553
38372SOL    HW216891  10.967   9.955   1.630
38373SOL     OW16892   8.997  10.624  10.928
38373SOL    HW116893   8.952  10.540  10.937
38373SOL    HW216894   8.987  10.647  10.836
38374SOL     OW16895   6.261  12.760   4.205
38374SOL    HW116896   6.290  12.727   4.291
38374SOL    HW216897   6.174  12.722   4.193
38375SOL     OW16898   2.430  14.808  13.366
38375SOL    HW116899   2.428  14.865  13.443
38375SOL    HW216900   2.513  14.761  13.373
38376SOL     OW16901   8.582   3.953  12.556
38376SOL    HW116902   8.551   4.001  12.479
38376SOL    HW216903   8.535   3.870  12.553
38377SOL     OW16904   7.849   2.838   6.443
38377SOL    HW116905   7.889   2.915   6.402
38377SOL    HW216906   7.755   2.850   6.428
38378SOL     OW16907  12.346  11.392   5.566
38378SOL    HW116908  12.417  11.452   5.544
38378SOL    HW216909  12.319  11.354   5.483
38379SOL     OW16910  13.801  13.517   1.510
38379SOL    HW116911  13.868  13.553   1.568
38379SOL    HW216912  13.781  13.589   1.450
38380SOL     OW16913   0.122  14.680  12.165
38380SOL    HW116914   0.158  14.755  12.212
38380SOL    HW216915   0.197  14.621  12.152
38381SOL     OW16916   8.658   0.262   8.636
38381SOL    HW116917   8.667   0.178   8.680
38381SOL    HW216918   8.652   0.240   8.543
38382SOL     OW16919  11.771  13.241   7.383
38382SOL    HW116920  11.734  13.329   7.381
38382SOL    HW216921  11.830  13.238   7.308
38383SOL     OW16922  10.081  11.652   7.911
38383SOL    HW116923  10.069  11.646   8.006
38383SOL    HW216924  10.046  11.570   7.877
38384SOL     OW16925   7.627   3.845   5.653
38384SOL    HW116926   7.541   3.812   5.677
38384SOL    HW216927   7.689   3.780   5.686
38385SOL     OW16928  11.196   1.490   9.850
38385SOL    HW116929  11.203   1.586   9.843
38385SOL    HW216930  11.138   1.464   9.779
38386SOL     OW16931   2.854   2.540   9.981
38386SOL    HW116932   2.773   2.521   9.934
38386SOL    HW216933   2.906   2.593   9.920
38387SOL     OW16934   7.727  11.786   0.354
38387SOL    HW116935   7.786  11.812   0.425
38387SOL    HW216936   7.763  11.703   0.323
38388SOL     OW16937  14.184   5.937   5.491
38388SOL    HW116938  14.238   5.914   5.415
38388SOL    HW216939  14.172   6.031   5.484
38389SOL     OW16940   6.409  12.431  10.091
38389SOL    HW116941   6.412  12.499  10.159
38389SOL    HW216942   6.461  12.359  10.128
38390SOL     OW16943  12.442   3.512   8.753
38390SOL    HW116944  12.486   3.442   8.705
38390SOL    HW216945  12.354   3.478   8.771
38391SOL     OW16946  13.054   3.461   0.530
38391SOL    HW116947  13.060   3.548   0.569
38391SOL    HW216948  13.135   3.418   0.558
38392SOL     OW16949  12.289  10.428   3.125
38392SOL    HW116950  12.223  10.409   3.058
38392SOL    HW216951  12.349  10.490   3.082
38393SOL     OW16952  10.206  12.604   5.448
38393SOL    HW116953  10.238  12.612   5.538
38393SOL    HW216954  10.160  12.520   5.446
38394SOL     OW16955  10.267   7.555   7.889
38394SOL    HW116956  10.359   7.547   7.911
38394SOL    HW216957  10.262   7.532   7.796
38395SOL     OW16958  11.498   8.021   1.585
38395SOL    HW116959  11.525   7.981   1.502
38395SOL    HW216960  11.581   8.037   1.631
38396SOL     OW16961   6.159  14.388  11.784
38396SOL    HW116962   6.137  14.354  11.697
38396SOL    HW216963   6.213  14.320  11.823
38397SOL     OW16964   0.621   9.850   1.290
38397SOL    HW116965   0.587   9.893   1.211
38397SOL    HW216966   0.712   9.879   1.296
38398SOL     OW16967  12.027  10.553  11.126
38398SOL    HW116968  11.978  10.595  11.197
38398SOL    HW216969  12.043  10.464  11.157
38399SOL     OW16970   2.978   6.696   2.514
38399SOL    HW116971   2.920   6.694   2.438
38399SOL    HW216972   2.958   6.779   2.558
38400SOL     OW16973   1.645   1.426   6.761
38400SOL    HW116974   1.636   1.487   6.688
38400SOL    HW216975   1.714   1.464   6.816
38401SOL     OW16976  14.858  12.367  12.404
38401SOL    HW116977  14.848  12.462  12.403
38401SOL    HW216978  14.798  12.337  12.471
38402SOL     OW16979  14.172   4.610   9.194
38402SOL    HW116980  14.211   4.523   9.192
38402SOL    HW216981  14.226   4.661   9.133
38403SOL     OW16982  12.929   1.075   9.117
38403SOL    HW116983  12.899   1.144   9.177
38403SOL    HW216984  13.018   1.102   9.094
38404SOL     OW16985   7.627   9.560   0.852
38404SOL    HW116986   7.578   9.604   0.782
38404SOL    HW216987   7.568   9.491   0.883
38405SOL     OW16988   7.759  11.970   5.193
38405SOL    HW116989   7.732  11.881   5.216
38405SOL    HW216990   7.845  11.959   5.152
38406SOL     OW16991   2.147   4.635   1.664
38406SOL    HW116992   2.088   4.710   1.649
38406SOL    HW216993   2.233   4.668   1.638
38407SOL     OW16994  11.793  11.276   5.164
38407SOL    HW116995  11.703  11.285   5.197
38407SOL    HW216996  11.810  11.357   5.117
38408SOL     OW16997  10.673   7.929   1.331
38408SOL    HW116998  10.686   7.869   1.258
38408SOL    HW216999  10.742   7.907   1.394
38409SOL     OW17000   6.539   4.909   2.903
38409SOL    HW117001   6.469   4.968   2.876
38409SOL    HW217002   6.608   4.966   2.936
38410SOL     OW17003  11.614  11.720  11.426
38410SOL    HW117004  11.650  11.696  11.341
38410SOL    HW217005  11.675  11.785  11.461
38411SOL     OW17006  11.200   0.742   7.964
38411SOL    HW117007  11.238   0.655   7.969
38411SOL    HW217008  11.249   0.786   7.895
38412SOL     OW17009   7.133   4.005  14.561
38412SOL    HW117010   7.202   4.071  14.564
38412SOL    HW217011   7.145   3.961  14.477
38413SOL     OW17012   1.522   2.064   9.121
38413SOL    HW117013   1.584   1.992   9.130
38413SOL    HW217014   1.520   2.104   9.208
38414SOL     OW17015   3.775   7.163   5.830
38414SOL    HW117016   3.866   7.190   5.845
38414SOL    HW217017   3.782   7.092   5.766
38415SOL     OW17018   4.822  10.523   9.366
38415SOL    HW117019   4.870  10.447   9.399
38415SOL    HW217020   4.848  10.594   9.425
38416SOL     OW17021  14.740   4.815  13.963
38416SOL    HW117022  14.761   4.868  14.040
38416SOL    HW217023  14.799   4.848  13.895
38417SOL     OW17024   1.576  11.166   7.563
38417SOL    HW117025   1.515  11.119   7.507
38417SOL    HW217026   1.657  11.116   7.559
38418SOL     OW17027   0.341  14.458   7.860
38418SOL    HW117028   0.349  14.541   7.813
38418SOL    HW217029   0.356  14.482   7.952
38419SOL     OW17030   6.877  10.894   6.014
38419SOL    HW117031   6.832  10.879   6.097
38419SOL    HW217032   6.878  10.808   5.971
38420SOL     OW17033   6.155  10.533  14.120
38420SOL    HW117034   6.115  10.448  14.101
38420SOL    HW217035   6.134  10.587  14.044
38421SOL     OW17036   4.635   5.165  10.433
38421SOL    HW117037   4.552   5.121  10.420
38421SOL    HW217038   4.614   5.259  10.426
38422SOL     OW17039   1.787   2.223  11.693
38422SOL    HW117040   1.775   2.131  11.668
38422SOL    HW217041   1.778   2.223  11.788
38423SOL     OW17042   4.342   5.496   2.572
38423SOL    HW117043   4.331   5.406   2.541
38423SOL    HW217044   4.340   5.489   2.667
38424SOL     OW17045   2.871   2.560  14.506
38424SOL    HW117046   2.934   2.624  14.472
38424SOL    HW217047   2.921   2.479  14.511
38425SOL     OW17048   3.722   3.447  12.694
38425SOL    HW117049   3.719   3.543  12.690
38425SOL    HW217050   3.732   3.428  12.788
38426SOL     OW17051  11.169   5.992   9.354
38426SOL    HW117052  11.095   5.938   9.327
38426SOL    HW217053  11.131   6.077   9.375
38427SOL     OW17054   0.344  11.287  11.246
38427SOL    HW117055   0.267  11.323  11.201
38427SOL    HW217056   0.364  11.353  11.313
38428SOL     OW17057  13.244   7.429  13.647
38428SOL    HW117058  13.262   7.342  13.684
38428SOL    HW217059  13.153   7.424  13.617
38429SOL     OW17060   0.800  11.348   1.770
38429SOL    HW117061   0.725  11.356   1.828
38429SOL    HW217062   0.820  11.438   1.744
38430SOL     OW17063  14.478   4.707  12.409
38430SOL    HW117064  14.490   4.735  12.499
38430SOL    HW217065  14.419   4.631  12.415
38431SOL     OW17066  10.650  13.021  13.039
38431SOL    HW117067  10.606  13.014  13.124
38431SOL    HW217068  10.739  12.990  13.055
38432SOL     OW17069   7.100  13.089   0.928
38432SOL    HW117070   7.029  13.060   0.985
38432SOL    HW217071   7.130  13.009   0.885
38433SOL     OW17072   6.296   7.768  10.925
38433SOL    HW117073   6.271   7.829  10.995
38433SOL    HW217074   6.379   7.802  10.892
38434SOL     OW17075   9.981   4.516   8.051
38434SOL    HW117076   9.953   4.440   8.102
38434SOL    HW217077  10.011   4.579   8.116
38435SOL     OW17078   0.577   1.228   6.896
38435SOL    HW117079   0.515   1.156   6.900
38435SOL    HW217080   0.604   1.243   6.987
38436SOL     OW17081  14.742   6.252   7.099
38436SOL    HW117082  14.720   6.296   7.017
38436SOL    HW217083  14.697   6.168   7.094
38437SOL     OW17084   8.647  11.784   6.070
38437SOL    HW117085   8.609  11.696   6.067
38437SOL    HW217086   8.629  11.815   6.159
38438SOL     OW17087  12.495   0.533   0.512
38438SOL    HW117088  12.476   0.439   0.515
38438SOL    HW217089  12.440   0.565   0.440
38439SOL     OW17090   6.170   8.449   4.693
38439SOL    HW117091   6.242   8.390   4.671
38439SOL    HW217092   6.210   8.536   4.694
38440SOL     OW17093   9.494   0.964   8.207
38440SOL    HW117094   9.520   0.960   8.115
38440SOL    HW217095   9.562   0.914   8.253
38441SOL     OW17096   9.534   2.628   0.557
38441SOL    HW117097   9.530   2.676   0.474
38441SOL    HW217098   9.626   2.635   0.584
38442SOL     OW17099   0.409   7.466  14.860
38442SOL    HW117100   0.315   7.452  14.851
38442SOL    HW217101   0.448   7.412  14.791
38443SOL     OW17102   3.702  11.663   4.602
38443SOL    HW117103   3.755  11.672   4.681
38443SOL    HW217104   3.654  11.580   4.614
38444SOL     OW17105   1.730  12.629  12.584
38444SOL    HW117106   1.671  12.599  12.652
38444SOL    HW217107   1.810  12.654  12.630
38445SOL     OW17108   0.693   9.647  10.745
38445SOL    HW117109   0.716   9.680  10.832
38445SOL    HW217110   0.619   9.701  10.717
38446SOL     OW17111  14.459  14.702   9.302
38446SOL    HW117112  14.382  14.645   9.316
38446SOL    HW217113  14.425  14.775   9.251
38447SOL     OW17114   1.663  11.679  13.285
38447SOL    HW117115   1.692  11.618  13.216
38447SOL    HW217116   1.706  11.762  13.263
38448SOL     OW17117   2.798   4.836   5.710
38448SOL    HW117118   2.864   4.830   5.780
38448SOL    HW217119   2.778   4.930   5.704
38449SOL     OW17120   5.429  10.402   6.557
38449SOL    HW117121   5.370  10.456   6.610
38449SOL    HW217122   5.417  10.314   6.592
38450SOL     OW17123   6.689  13.476   3.806
38450SOL    HW117124   6.755  13.545   3.805
38450SOL    HW217125   6.718  13.413   3.740
38451SOL     OW17126   1.466  13.542   5.916
38451SOL    HW117127   1.371  13.553   5.909
38451SOL    HW217128   1.478  13.489   5.995
38452SOL     OW17129   2.314   6.865  10.960
38452SOL    HW117130   2.233   6.903  10.926
38452SOL    HW217131   2.339   6.924  11.032
38453SOL     OW17132   5.041  12.526   3.146
38453SOL    HW117133   5.025  12.601   3.088
38453SOL    HW217134   5.012  12.556   3.232
38454SOL     OW17135   1.144   9.745  11.016
38454SOL    HW117136   1.082   9.702  10.958
38454SOL    HW217137   1.218   9.684  11.022
38455SOL     OW17138  11.468   3.759  12.410
38455SOL    HW117139  11.408   3.790  12.342
38455SOL    HW217140  11.415   3.701  12.465
38456SOL     OW17141  10.253   0.465   1.945
38456SOL    HW117142  10.293   0.414   2.016
38456SOL    HW217143  10.312   0.451   1.870
38457SOL     OW17144   5.564  14.100   5.936
38457SOL    HW117145   5.659  14.105   5.923
38457SOL    HW217146   5.532  14.185   5.907
38458SOL     OW17147   2.946   9.293  12.734
38458SOL    HW117148   2.872   9.346  12.705
38458SOL    HW217149   2.968   9.238  12.659
38459SOL     OW17150   4.609   1.862  13.293
38459SOL    HW117151   4.628   1.834  13.204
38459SOL    HW217152   4.689   1.842  13.342
38460SOL     OW17153   0.746   3.102   5.618
38460SOL    HW117154   0.694   3.152   5.681
38460SOL    HW217155   0.715   3.130   5.532
38461SOL     OW17156   5.541   4.121   5.883
38461SOL    HW117157   5.633   4.106   5.906
38461SOL    HW217158   5.508   4.035   5.856
38462SOL     OW17159   0.496   4.974  10.801
38462SOL    HW117160   0.534   4.910  10.740
38462SOL    HW217161   0.421   5.010  10.753
38463SOL     OW17162   0.054   7.373   6.712
38463SOL    HW117163   0.079   7.442   6.773
38463SOL    HW217164  14.842   7.360   6.727
38464SOL     OW17165  10.403   5.037  14.083
38464SOL    HW117166  10.412   4.944  14.064
38464SOL    HW217167  10.403   5.080  13.997
38465SOL     OW17168   7.407   0.423   1.705
38465SOL    HW117169   7.444   0.392   1.622
38465SOL    HW217170   7.416   0.518   1.701
38466SOL     OW17171   0.730   4.698  12.412
38466SOL    HW117172   0.646   4.682  12.456
38466SOL    HW217173   0.795   4.657  12.468
38467SOL     OW17174   1.503  13.596  10.581
38467SOL    HW117175   1.439  13.662  10.554
38467SOL    HW217176   1.574  13.605  10.518
38468SOL     OW17177   3.318  12.391   4.270
38468SOL    HW117178   3.266  12.437   4.204
38468SOL    HW217179   3.354  12.315   4.224
38469SOL     OW17180   7.708   4.131   4.540
38469SOL    HW117181   7.710   4.092   4.452
38469SOL    HW217182   7.778   4.086   4.588
38470SOL     OW17183   2.125   3.051   1.058
38470SOL    HW117184   2.170   2.996   1.122
38470SOL    HW217185   2.035   3.018   1.057
38471SOL     OW17186  10.289   8.673   9.546
38471SOL    HW117187  10.279   8.676   9.641
38471SOL    HW217188  10.251   8.589   9.520
38472SOL     OW17189  13.852  10.710   0.503
38472SOL    HW117190  13.919  10.683   0.440
38472SOL    HW217191  13.851  10.806   0.498
38473SOL     OW17192  11.224   9.069   5.592
38473SOL    HW117193  11.155   9.119   5.548
38473SOL    HW217194  11.270   9.134   5.645
38474SOL     OW17195   0.127  11.172   3.339
38474SOL    HW117196   0.079  11.218   3.270
38474SOL    HW217197   0.209  11.145   3.297
38475SOL     OW17198  13.165  14.257   2.731
38475SOL    HW117199  13.230  14.241   2.663
38475SOL    HW217200  13.081  14.258   2.685
38476SOL     OW17201  10.345   3.636   0.843
38476SOL    HW117202  10.341   3.706   0.778
38476SOL    HW217203  10.287   3.665   0.913
38477SOL     OW17204   4.084   2.323   1.617
38477SOL    HW117205   4.044   2.395   1.570
38477SOL    HW217206   4.024   2.305   1.690
38478SOL     OW17207   2.303  14.081   4.749
38478SOL    HW117208   2.326  13.991   4.726
38478SOL    HW217209   2.208  14.085   4.740
38479SOL     OW17210   2.498   7.716  14.332
38479SOL    HW117211   2.404   7.718  14.312
38479SOL    HW217212   2.504   7.750  14.421
38480SOL     OW17213  12.681   8.275  11.670
38480SOL    HW117214  12.754   8.333  11.690
38480SOL    HW217215  12.654   8.241  11.756
38481SOL     OW17216   9.772   2.555   9.648
38481SOL    HW117217   9.753   2.465   9.621
38481SOL    HW217218   9.702   2.578   9.708
38482SOL     OW17219  10.910   4.277  14.784
38482SOL    HW117220  10.992   4.326  14.787
38482SOL    HW217221  10.911   4.234  14.698
38483SOL     OW17222  12.601  10.858   6.926
38483SOL    HW117223  12.666  10.923   6.898
38483SOL    HW217224  12.615  10.850   7.020
38484SOL     OW17225  11.617   7.115   4.795
38484SOL    HW117226  11.699   7.089   4.836
38484SOL    HW217227  11.559   7.040   4.808
38485SOL     OW17228   0.245   5.332  14.689
38485SOL    HW117229   0.201   5.411  14.721
38485SOL    HW217230   0.174   5.274  14.663
38486SOL     OW17231   0.003   0.185   1.542
38486SOL    HW117232   0.052   0.237   1.606
38486SOL    HW217233  14.804   0.235   1.527
38487SOL     OW17234   0.809   7.263  14.300
38487SOL    HW117235   0.730   7.293  14.256
38487SOL    HW217236   0.799   7.292  14.391
38488SOL     OW17237   7.703   9.471  10.082
38488SOL    HW117238   7.713   9.454   9.988
38488SOL    HW217239   7.621   9.520  10.088
38489SOL     OW17240   7.393  13.034   6.885
38489SOL    HW117241   7.407  12.950   6.928
38489SOL    HW217242   7.388  13.013   6.792
38490SOL     OW17243   5.850  13.176  10.195
38490SOL    HW117244   5.789  13.123  10.244
38490SOL    HW217245   5.823  13.166  10.103
38491SOL     OW17246  13.288   1.331  11.188
38491SOL    HW117247  13.296   1.321  11.093
38491SOL    HW217248  13.293   1.425  11.203
38492SOL     OW17249   1.934  12.116   7.486
38492SOL    HW117250   2.027  12.126   7.505
38492SOL    HW217251   1.914  12.185   7.423
38493SOL     OW17252   7.675   0.764  13.134
38493SOL    HW117253   7.746   0.777  13.071
38493SOL    HW217254   7.715   0.779  13.219
38494SOL     OW17255   8.070   9.581   5.622
38494SOL    HW117256   8.087   9.654   5.563
38494SOL    HW217257   8.147   9.578   5.679
38495SOL     OW17258   1.353  11.939   7.811
38495SOL    HW117259   1.347  12.031   7.786
38495SOL    HW217260   1.275  11.899   7.773
38496SOL     OW17261  12.968   5.119   7.318
38496SOL    HW117262  12.971   5.185   7.388
38496SOL    HW217263  12.928   5.165   7.244
38497SOL     OW17264   1.214   4.121  11.088
38497SOL    HW117265   1.165   4.191  11.045
38497SOL    HW217266   1.151   4.049  11.097
38498SOL     OW17267   3.542   2.358   5.189
38498SOL    HW117268   3.609   2.306   5.232
38498SOL    HW217269   3.577   2.448   5.190
38499SOL     OW17270  10.419  10.058   7.100
38499SOL    HW117271  10.390  10.042   7.010
38499SOL    HW217272  10.436   9.971   7.136
38500SOL     OW17273  12.863  10.642  13.045
38500SOL    HW117274  12.769  10.646  13.026
38500SOL    HW217275  12.895  10.730  13.029
38501SOL     OW17276  14.343   3.542   1.308
38501SOL    HW117277  14.329   3.517   1.216
38501SOL    HW217278  14.282   3.614   1.322
38502SOL     OW17279  14.803   3.822  12.320
38502SOL    HW117280  14.853   3.777  12.388
38502SOL    HW217281  14.785   3.909  12.357
38503SOL     OW17282   3.436   8.259   7.775
38503SOL    HW117283   3.395   8.237   7.692
38503SOL    HW217284   3.379   8.326   7.812
38504SOL     OW17285   3.829   4.029   4.932
38504SOL    HW117286   3.781   3.954   4.967
38504SOL    HW217287   3.767   4.072   4.874
38505SOL     OW17288   7.331  12.547  12.656
38505SOL    HW117289   7.358  12.475  12.714
38505SOL    HW217290   7.273  12.600  12.710
38506SOL     OW17291   2.981   5.965   8.940
38506SOL    HW117292   2.933   5.886   8.966
38506SOL    HW217293   3.019   5.943   8.856
38507SOL     OW17294   6.941   5.199   8.188
38507SOL    HW117295   6.949   5.168   8.278
38507SOL    HW217296   6.894   5.282   8.195
38508SOL     OW17297   6.945  13.808  14.753
38508SOL    HW117298   6.951  13.903  14.765
38508SOL    HW217299   6.927  13.797  14.660
38509SOL     OW17300   0.300   1.952   8.733
38509SOL    HW117301   0.248   1.981   8.808
38509SOL    HW217302   0.253   1.875   8.700
38510SOL     OW17303   1.747   0.002  12.179
38510SOL    HW117304   1.811  14.849  12.117
38510SOL    HW217305   1.779   0.090  12.199
38511SOL     OW17306  10.059  12.782  13.780
38511SOL    HW117307  10.080  12.705  13.833
38511SOL    HW217308  10.143  12.808  13.741
38512SOL     OW17309   5.350   0.929  11.980
38512SOL    HW117310   5.297   0.874  12.037
38512SOL    HW217311   5.440   0.905  12.002
38513SOL     OW17312   5.253  12.337   3.089
38513SOL    HW117313   5.337  12.381   3.075
38513SOL    HW217314   5.195  12.407   3.119
38514SOL     OW17315  13.304   8.495  10.367
38514SOL    HW117316  13.348   8.433  10.309
38514SOL    HW217317  13.262   8.440  10.433
38515SOL     OW17318   1.421   2.051   2.244
38515SOL    HW117319   1.330   2.025   2.254
38515SOL    HW217320   1.428   2.134   2.290
38516SOL     OW17321   9.766  14.721   2.289
38516SOL    HW117322   9.766  14.740   2.195
38516SOL    HW217323   9.838  14.772   2.324
38517SOL     OW17324  14.716   2.583  12.495
38517SOL    HW117325  14.803   2.619  12.515
38517SOL    HW217326  14.655   2.640  12.542
38518SOL     OW17327   7.980  12.368   5.013
38518SOL    HW117328   8.069  12.370   5.049
38518SOL    HW217329   7.927  12.332   5.084
38519SOL     OW17330   4.975  10.308   9.390
38519SOL    HW117331   5.037  10.289   9.460
38519SOL    HW217332   5.017  10.376   9.337
38520SOL     OW17333   4.571   7.826  13.406
38520SOL    HW117334   4.582   7.852  13.315
38520SOL    HW217335   4.615   7.741  13.412
38521SOL     OW17336   9.983   6.969  11.494
38521SOL    HW117337   9.920   6.898  11.479
38521SOL    HW217338  10.032   6.975  11.411
38522SOL     OW17339   5.658   7.509  14.815
38522SOL    HW117340   5.636   7.545   0.019
38522SOL    HW217341   5.619   7.570  14.752
38523SOL     OW17342   0.274   1.217  14.666
38523SOL    HW117343   0.265   1.268  14.585
38523SOL    HW217344   0.309   1.132  14.637
38524SOL     OW17345  10.320  11.900  11.535
38524SOL    HW117346  10.379  11.935  11.601
38524SOL    HW217347  10.352  11.935  11.452
38525SOL     OW17348   0.585   0.686   5.393
38525SOL    HW117349   0.613   0.679   5.485
38525SOL    HW217350   0.510   0.627   5.386
38526SOL     OW17351   2.779  14.735   8.748
38526SOL    HW117352   2.869  14.732   8.716
38526SOL    HW217353   2.765  14.827   8.771
38527SOL     OW17354  11.566   8.845   3.799
38527SOL    HW117355  11.544   8.898   3.876
38527SOL    HW217356  11.494   8.860   3.738
38528SOL     OW17357   9.767   0.832  14.144
38528SOL    HW117358   9.828   0.891  14.100
38528SOL    HW217359   9.822   0.762  14.180
38529SOL     OW17360   3.395   5.629  14.630
38529SOL    HW117361   3.362   5.701  14.577
38529SOL    HW217362   3.320   5.572  14.645
38530SOL     OW17363   8.907   5.171  11.267
38530SOL    HW117364   8.873   5.083  11.284
38530SOL    HW217365   8.966   5.189  11.340
38531SOL     OW17366  13.708   2.743   7.518
38531SOL    HW117367  13.691   2.812   7.582
38531SOL    HW217368  13.783   2.695   7.554
38532SOL     OW17369   3.309   0.276   8.317
38532SOL    HW117370   3.297   0.203   8.378
38532SOL    HW217371   3.268   0.247   8.236
38533SOL     OW17372   0.161   2.316   5.974
38533SOL    HW117373   0.115   2.287   5.895
38533SOL    HW217374   0.156   2.242   6.034
38534SOL     OW17375   4.756   3.260  11.701
38534SOL    HW117376   4.788   3.198  11.636
38534SOL    HW217377   4.704   3.207  11.761
38535SOL     OW17378  11.513   7.108  13.920
38535SOL    HW117379  11.479   7.152  13.842
38535SOL    HW217380  11.435   7.080  13.968
38536SOL     OW17381   7.055   3.113  12.419
38536SOL    HW117382   7.055   3.058  12.340
38536SOL    HW217383   7.148   3.128  12.438
38537SOL     OW17384   9.630   5.047   7.671
38537SOL    HW117385   9.635   5.041   7.576
38537SOL    HW217386   9.626   5.141   7.689
38538SOL     OW17387  14.119  10.898   1.451
38538SOL    HW117388  14.105  10.817   1.403
38538SOL    HW217389  14.035  10.944   1.446
38539SOL     OW17390   5.597   3.467   2.848
38539SOL    HW117391   5.680   3.426   2.824
38539SOL    HW217392   5.553   3.484   2.765
38540SOL     OW17393   7.102  14.265   6.584
38540SOL    HW117394   7.015  14.291   6.553
38540SOL    HW217395   7.161  14.332   6.549
38541SOL     OW17396  13.021   4.927   9.316
38541SOL    HW117397  13.087   4.969   9.370
38541SOL    HW217398  13.035   4.833   9.329
38542SOL     OW17399   8.652   5.935   4.006
38542SOL    HW117400   8.611   5.977   4.081
38542SOL    HW217401   8.642   5.999   3.935
38543SOL     OW17402   2.002   1.282   5.109
38543SOL    HW117403   2.022   1.342   5.181
38543SOL    HW217404   1.936   1.328   5.056
38544SOL     OW17405   9.141   5.768  11.024
38544SOL    HW117406   9.207   5.711  10.985
38544SOL    HW217407   9.132   5.840  10.962
38545SOL     OW17408   8.255   7.264   5.329
38545SOL    HW117409   8.185   7.263   5.264
38545SOL    HW217410   8.335   7.278   5.278
38546SOL     OW17411   9.127   4.522   9.739
38546SOL    HW117412   9.141   4.560   9.826
38546SOL    HW217413   9.193   4.563   9.684
38547SOL     OW17414  14.643   9.671   1.405
38547SOL    HW117415  14.568   9.611   1.413
38547SOL    HW217416  14.717   9.621   1.440
38548SOL     OW17417  12.983   4.881   3.797
38548SOL    HW117418  12.967   4.867   3.890
38548SOL    HW217419  12.971   4.976   3.784
38549SOL     OW17420  13.348   7.985   5.819
38549SOL    HW117421  13.277   7.980   5.756
38549SOL    HW217422  13.392   7.900   5.813
38550SOL     OW17423   3.519  10.745   1.093
38550SOL    HW117424   3.564  10.669   1.130
38550SOL    HW217425   3.546  10.747   1.002
38551SOL     OW17426  13.031   0.909  14.284
38551SOL    HW117427  13.057   0.909  14.192
38551SOL    HW217428  12.935   0.914  14.281
38552SOL     OW17429   9.530  10.313  10.676
38552SOL    HW117430   9.509  10.404  10.699
38552SOL    HW217431   9.626  10.311  10.670
38553SOL     OW17432   8.232   3.428   8.227
38553SOL    HW117433   8.159   3.458   8.173
38553SOL    HW217434   8.206   3.341   8.257
38554SOL     OW17435  13.167   9.589   7.758
38554SOL    HW117436  13.199   9.499   7.763
38554SOL    HW217437  13.075   9.581   7.732
38555SOL     OW17438   1.489   7.077  12.550
38555SOL    HW117439   1.570   7.067  12.499
38555SOL    HW217440   1.424   7.028  12.500
38556SOL     OW17441   5.490   3.877  13.155
38556SOL    HW117442   5.535   3.904  13.075
38556SOL    HW217443   5.399   3.868  13.130
38557SOL     OW17444   6.289  14.513   9.246
38557SOL    HW117445   6.304  14.469   9.329
38557SOL    HW217446   6.195  14.500   9.229
38558SOL     OW17447  13.758  13.100   5.038
38558SOL    HW117448  13.808  13.159   5.095
38558SOL    HW217449  13.802  13.106   4.954
38559SOL     OW17450   3.480  12.921  12.487
38559SOL    HW117451   3.575  12.915  12.485
38559SOL    HW217452   3.461  13.015  12.483
38560SOL     OW17453   1.854   9.130   7.961
38560SOL    HW117454   1.858   9.068   8.034
38560SOL    HW217455   1.893   9.210   7.995
38561SOL     OW17456   4.814   1.720  11.491
38561SOL    HW117457   4.883   1.734  11.427
38561SOL    HW217458   4.742   1.777  11.462
38562SOL     OW17459   9.291   6.040   3.627
38562SOL    HW117460   9.207   6.076   3.655
38562SOL    HW217461   9.349   6.053   3.702
38563SOL     OW17462   4.554   4.776  12.514
38563SOL    HW117463   4.482   4.729  12.471
38563SOL    HW217464   4.520   4.864  12.530
38564SOL     OW17465   2.680   1.255  11.825
38564SOL    HW117466   2.707   1.311  11.752
38564SOL    HW217467   2.632   1.183  11.784
38565SOL     OW17468   7.142   7.528   0.123
38565SOL    HW117469   7.212   7.484   0.075
38565SOL    HW217470   7.082   7.457   0.146
38566SOL     OW17471   1.875   2.237   5.479
38566SOL    HW117472   1.938   2.303   5.450
38566SOL    HW217473   1.929   2.171   5.523
38567SOL     OW17474  10.907  14.026  10.233
38567SOL    HW117475  10.996  14.056  10.252
38567SOL    HW217476  10.898  14.033  10.138
38568SOL     OW17477   7.399   8.907   3.515
38568SOL    HW117478   7.317   8.857   3.518
38568SOL    HW217479   7.451   8.872   3.588
38569SOL     OW17480   4.211   8.377   9.758
38569SOL    HW117481   4.273   8.344   9.824
38569SOL    HW217482   4.138   8.412   9.809
38570SOL     OW17483   1.872   4.352  13.546
38570SOL    HW117484   1.965   4.365  13.561
38570SOL    HW217485   1.866   4.264  13.508
38571SOL     OW17486  12.238   6.224  14.748
38571SOL    HW117487  12.258   6.316  14.733
38571SOL    HW217488  12.193   6.195  14.669
38572SOL     OW17489   6.437  14.179   8.379
38572SOL    HW117490   6.445  14.270   8.349
38572SOL    HW217491   6.478  14.179   8.465
38573SOL     OW17492  10.325  11.597  12.738
38573SOL    HW117493  10.384  11.548  12.682
38573SOL    HW217494  10.248  11.540  12.749
38574SOL     OW17495   6.765  10.470   8.408
38574SOL    HW117496   6.848  10.492   8.366
38574SOL    HW217497   6.714  10.551   8.405
38575SOL     OW17498   3.104   1.943   2.341
38575SOL    HW117499   3.101   1.980   2.429
38575SOL    HW217500   3.116   2.018   2.283
38576SOL     OW17501   5.425   7.902   2.186
38576SOL    HW117502   5.484   7.894   2.111
38576SOL    HW217503   5.341   7.870   2.153
38577SOL     OW17504  12.239   6.877   3.545
38577SOL    HW117505  12.226   6.923   3.462
38577SOL    HW217506  12.279   6.794   3.521
38578SOL     OW17507   0.171   0.574  13.073
38578SOL    HW117508   0.161   0.605  13.163
38578SOL    HW217509   0.082   0.551  13.046
38579SOL     OW17510  12.906   0.667   4.978
38579SOL    HW117511  12.864   0.710   4.903
38579SOL    HW217512  12.855   0.696   5.053
38580SOL     OW17513  10.930   2.491   9.306
38580SOL    HW117514  10.893   2.448   9.383
38580SOL    HW217515  11.000   2.432   9.277
38581SOL     OW17516   2.604   2.688   3.566
38581SOL    HW117517   2.521   2.642   3.578
38581SOL    HW217518   2.621   2.683   3.472
38582SOL     OW17519   9.410   2.927   3.644
38582SOL    HW117520   9.503   2.907   3.628
38582SOL    HW217521   9.401   2.918   3.739
38583SOL     OW17522   4.416   4.972   1.030
38583SOL    HW117523   4.385   4.985   0.941
38583SOL    HW217524   4.457   4.886   1.029
38584SOL     OW17525  13.647   3.862   2.541
38584SOL    HW117526  13.742   3.870   2.539
38584SOL    HW217527  13.615   3.952   2.545
38585SOL     OW17528   3.752   5.643   7.750
38585SOL    HW117529   3.674   5.692   7.778
38585SOL    HW217530   3.717   5.564   7.710
38586SOL     OW17531   2.100  13.687   7.079
38586SOL    HW117532   2.011  13.657   7.098
38586SOL    HW217533   2.119  13.654   6.991
38587SOL     OW17534   1.339   8.935   5.754
38587SOL    HW117535   1.431   8.960   5.766
38587SOL    HW217536   1.311   8.903   5.839
38588SOL     OW17537   8.702   8.952   7.175
38588SOL    HW117538   8.761   9.007   7.123
38588SOL    HW217539   8.618   8.998   7.173
38589SOL     OW17540   9.846   4.177   2.552
38589SOL    HW117541   9.917   4.131   2.509
38589SOL    HW217542   9.781   4.192   2.483
38590SOL     OW17543   3.327   3.189   7.525
38590SOL    HW117544   3.365   3.229   7.603
38590SOL    HW217545   3.246   3.238   7.510
38591SOL     OW17546  10.884   5.459  10.120
38591SOL    HW117547  10.810   5.484  10.174
38591SOL    HW217548  10.956   5.514  10.151
38592SOL     OW17549   4.243   7.327   2.358
38592SOL    HW117550   4.241   7.418   2.389
38592SOL    HW217551   4.178   7.282   2.412
38593SOL     OW17552  10.977   5.290   7.331
38593SOL    HW117553  11.068   5.316   7.346
38593SOL    HW217554  10.937   5.366   7.290
38594SOL     OW17555  13.157   4.790   2.977
38594SOL    HW117556  13.069   4.794   3.015
38594SOL    HW217557  13.209   4.742   3.042
38595SOL     OW17558  14.729   5.941   1.918
38595SOL    HW117559  14.721   5.930   2.012
38595SOL    HW217560  14.820   5.918   1.899
38596SOL     OW17561  10.788   1.570   0.032
38596SOL    HW117562  10.839   1.517  14.852
38596SOL    HW217563  10.849   1.591   0.102
38597SOL     OW17564  10.195   0.166  13.318
38597SOL    HW117565  10.279   0.119  13.324
38597SOL    HW217566  10.144   0.115  13.255
38598SOL     OW17567  10.037   3.736   8.123
38598SOL    HW117568  10.018   3.748   8.216
38598SOL    HW217569  10.102   3.804   8.103
38599SOL     OW17570  10.925   0.835  13.678
38599SOL    HW117571  10.833   0.810  13.676
38599SOL    HW217572  10.946   0.847  13.770
38600SOL     OW17573   9.473   7.428  12.493
38600SOL    HW117574   9.547   7.389  12.539
38600SOL    HW217575   9.447   7.503  12.548
38601SOL     OW17576   6.391  14.033  11.111
38601SOL    HW117577   6.466  14.093  11.107
38601SOL    HW217578   6.368  14.017  11.020
38602SOL     OW17579  14.472   1.278  10.514
38602SOL    HW117580  14.406   1.329  10.467
38602SOL    HW217581  14.535   1.343  10.546
38603SOL     OW17582   1.681   0.604   6.071
38603SOL    HW117583   1.598   0.556   6.075
38603SOL    HW217584   1.668   0.679   6.130
38604SOL     OW17585  12.777  12.898   1.862
38604SOL    HW117586  12.696  12.945   1.879
38604SOL    HW217587  12.769  12.868   1.771
38605SOL     OW17588   4.818  11.159   4.528
38605SOL    HW117589   4.839  11.102   4.454
38605SOL    HW217590   4.870  11.238   4.514
38606SOL     OW17591   3.960   8.376  14.383
38606SOL    HW117592   3.924   8.447  14.329
38606SOL    HW217593   3.898   8.304  14.371
38607SOL     OW17594   8.710   5.571  11.152
38607SOL    HW117595   8.770   5.645  11.158
38607SOL    HW217596   8.724   5.523  11.234
38608SOL     OW17597  13.190   9.733   5.446
38608SOL    HW117598  13.281   9.718   5.419
38608SOL    HW217599  13.139   9.679   5.385
38609SOL     OW17600   1.780   8.896   6.377
38609SOL    HW117601   1.843   8.825   6.388
38609SOL    HW217602   1.796   8.929   6.289
38610SOL     OW17603   5.462   0.614   0.274
38610SOL    HW117604   5.506   0.571   0.200
38610SOL    HW217605   5.443   0.702   0.243
38611SOL     OW17606  12.436   0.711   8.085
38611SOL    HW117607  12.519   0.666   8.069
38611SOL    HW217608  12.385   0.648   8.135
38612SOL     OW17609   9.603  13.484   6.896
38612SOL    HW117610   9.677  13.517   6.948
38612SOL    HW217611   9.526  13.525   6.934
38613SOL     OW17612   9.886   9.550  10.730
38613SOL    HW117613   9.921   9.463  10.713
38613SOL    HW217614   9.811   9.535  10.788
38614SOL     OW17615   7.147   1.651   9.777
38614SOL    HW117616   7.137   1.595   9.701
38614SOL    HW217617   7.107   1.734   9.752
38615SOL     OW17618   4.968   3.925   0.455
38615SOL    HW117619   5.045   3.975   0.427
38615SOL    HW217620   4.998   3.834   0.454
38616SOL     OW17621  10.929  13.178  12.886
38616SOL    HW117622  10.953  13.246  12.948
38616SOL    HW217623  10.996  13.110  12.897
38617SOL     OW17624   2.391   6.650  13.043
38617SOL    HW117625   2.409   6.599  13.122
38617SOL    HW217626   2.310   6.613  13.009
38618SOL     OW17627   8.428   2.439   5.582
38618SOL    HW117628   8.397   2.349   5.594
38618SOL    HW217629   8.499   2.431   5.517
38619SOL     OW17630   9.419  11.201   8.210
38619SOL    HW117631   9.478  11.132   8.241
38619SOL    HW217632   9.336  11.156   8.194
38620SOL     OW17633   5.229   0.544   1.839
38620SOL    HW117634   5.269   0.459   1.821
38620SOL    HW217635   5.303   0.605   1.843
38621SOL     OW17636   4.312   6.582  12.456
38621SOL    HW117637   4.289   6.597  12.365
38621SOL    HW217638   4.233   6.543  12.494
38622SOL     OW17639   0.009   2.461   8.510
38622SOL    HW117640  14.809   2.511   8.517
38622SOL    HW217641  14.881   2.390   8.574
38623SOL     OW17642   9.827  10.651   8.928
38623SOL    HW117643   9.775  10.696   8.994
38623SOL    HW217644   9.889  10.717   8.897
38624SOL     OW17645   9.375  13.763  12.388
38624SOL    HW117646   9.297  13.707  12.395
38624SOL    HW217647   9.372  13.797  12.299
38625SOL     OW17648   7.434   5.733   2.354
38625SOL    HW117649   7.433   5.675   2.430
38625SOL    HW217650   7.506   5.794   2.370
38626SOL     OW17651  14.457   2.729  12.361
38626SOL    HW117652  14.510   2.800  12.324
38626SOL    HW217653  14.507   2.697  12.436
38627SOL     OW17654  12.037   7.463  12.188
38627SOL    HW117655  11.991   7.488  12.108
38627SOL    HW217656  12.129   7.460  12.162
38628SOL     OW17657   5.824  12.319  12.164
38628SOL    HW117658   5.878  12.278  12.097
38628SOL    HW217659   5.833  12.413  12.147
38629SOL     OW17660   9.343   3.601   2.690
38629SOL    HW117661   9.423   3.629   2.645
38629SOL    HW217662   9.283   3.675   2.680
38630SOL     OW17663   6.705  12.512  10.987
38630SOL    HW117664   6.630  12.544  10.937
38630SOL    HW217665   6.665  12.472  11.065
38631SOL     OW17666  14.363  11.005   1.421
38631SOL    HW117667  14.360  11.100   1.412
38631SOL    HW217668  14.274  10.980   1.447
38632SOL     OW17669   1.204  11.778   0.576
38632SOL    HW117670   1.128  11.730   0.542
38632SOL    HW217671   1.233  11.726   0.651
38633SOL     OW17672   8.624   7.071   8.954
38633SOL    HW117673   8.686   7.006   8.921
38633SOL    HW217674   8.544   7.056   8.903
38634SOL     OW17675  13.398  10.857   7.801
38634SOL    HW117676  13.383  10.882   7.892
38634SOL    HW217677  13.316  10.816   7.773
38635SOL     OW17678   9.205   3.038   6.573
38635SOL    HW117679   9.270   3.093   6.618
38635SOL    HW217680   9.206   2.955   6.621
38636SOL     OW17681  12.272  11.984   2.447
38636SOL    HW117682  12.242  12.053   2.505
38636SOL    HW217683  12.280  11.907   2.503
38637SOL     OW17684   4.083  12.829   1.714
38637SOL    HW117685   4.085  12.755   1.653
38637SOL    HW217686   3.994  12.831   1.748
38638SOL     OW17687   4.975  14.810  12.573
38638SOL    HW117688   5.034  14.842  12.504
38638SOL    HW217689   4.889  14.844  12.548
38639SOL     OW17690   3.279   3.430  14.815
38639SOL    HW117691   3.184   3.432  14.805
38639SOL    HW217692   3.308   3.515  14.784
38640SOL     OW17693   4.551   1.207  13.210
38640SOL    HW117694   4.467   1.249  13.229
38640SOL    HW217695   4.535   1.158  13.129
38641SOL     OW17696   3.390   9.852   1.302
38641SOL    HW117697   3.425   9.764   1.288
38641SOL    HW217698   3.449   9.910   1.254
38642SOL     OW17699   0.259   4.734   1.040
38642SOL    HW117700   0.226   4.736   1.130
38642SOL    HW217701   0.312   4.654   1.035
38643SOL     OW17702   3.374   4.634  13.369
38643SOL    HW117703   3.432   4.690  13.316
38643SOL    HW217704   3.423   4.553  13.381
38644SOL     OW17705   0.279  14.466   9.471
38644SOL    HW117706   0.202  14.446   9.524
38644SOL    HW217707   0.300  14.557   9.492
38645SOL     OW17708   4.531  12.978   5.737
38645SOL    HW117709   4.625  12.971   5.754
38645SOL    HW217710   4.506  13.063   5.771
38646SOL     OW17711   6.441  12.528  14.313
38646SOL    HW117712   6.379  12.458  14.331
38646SOL    HW217713   6.402  12.578  14.242
38647SOL     OW17714   4.156   4.302   2.698
38647SOL    HW117715   4.158   4.368   2.767
38647SOL    HW217716   4.069   4.263   2.705
38648SOL     OW17717  11.606   8.439  10.087
38648SOL    HW117718  11.628   8.530  10.105
38648SOL    HW217719  11.614   8.395  10.172
38649SOL     OW17720   4.586  10.709   6.964
38649SOL    HW117721   4.555  10.620   6.982
38649SOL    HW217722   4.680  10.705   6.978
38650SOL     OW17723   2.650   2.780   5.347
38650SOL    HW117724   2.581   2.781   5.281
38650SOL    HW217725   2.606   2.809   5.427
38651SOL     OW17726  10.217   6.702  14.212
38651SOL    HW117727  10.248   6.707  14.122
38651SOL    HW217728  10.286   6.657  14.260
38652SOL     OW17729   6.556   2.532   3.569
38652SOL    HW117730   6.489   2.470   3.596
38652SOL    HW217731   6.559   2.597   3.640
38653SOL     OW17732   1.412   8.728   2.308
38653SOL    HW117733   1.351   8.779   2.256
38653SOL    HW217734   1.481   8.704   2.247
38654SOL     OW17735  12.511   6.441  14.263
38654SOL    HW117736  12.487   6.348  14.266
38654SOL    HW217737  12.582   6.446  14.200
38655SOL     OW17738  13.678   9.166  11.302
38655SOL    HW117739  13.726   9.083  11.310
38655SOL    HW217740  13.655   9.170  11.209
38656SOL     OW17741  13.342   9.944   6.214
38656SOL    HW117742  13.425   9.901   6.239
38656SOL    HW217743  13.291   9.875   6.172
38657SOL     OW17744   0.753   5.805   4.563
38657SOL    HW117745   0.787   5.822   4.475
38657SOL    HW217746   0.663   5.777   4.549
38658SOL     OW17747   4.968   4.980   3.296
38658SOL    HW117748   4.930   5.056   3.339
38658SOL    HW217749   4.904   4.910   3.307
38659SOL     OW17750   3.204   9.050   3.060
38659SOL    HW117751   3.220   9.004   3.142
38659SOL    HW217752   3.291   9.074   3.028
38660SOL     OW17753  13.606   4.758   7.961
38660SOL    HW117754  13.688   4.734   8.003
38660SOL    HW217755  13.631   4.783   7.872
38661SOL     OW17756  10.870  10.302  14.835
38661SOL    HW117757  10.833  10.390  14.826
38661SOL    HW217758  10.819  10.247  14.776
38662SOL     OW17759  10.070   8.001  13.844
38662SOL    HW117760  10.088   8.066  13.912
38662SOL    HW217761  10.144   7.941  13.848
38663SOL     OW17762   8.122   9.576   7.422
38663SOL    HW117763   8.151   9.511   7.357
38663SOL    HW217764   8.199   9.631   7.436
38664SOL     OW17765   6.212   4.495   9.056
38664SOL    HW117766   6.122   4.471   9.078
38664SOL    HW217767   6.231   4.571   9.111
38665SOL     OW17768   4.562   6.983   5.082
38665SOL    HW117769   4.634   6.968   5.143
38665SOL    HW217770   4.520   6.898   5.071
38666SOL     OW17771   0.122  12.173   0.355
38666SOL    HW117772   0.068  12.152   0.431
38666SOL    HW217773   0.093  12.260   0.328
38667SOL     OW17774  14.266  11.325   8.825
38667SOL    HW117775  14.205  11.253   8.842
38667SOL    HW217776  14.271  11.372   8.909
38668SOL     OW17777   9.309   8.178   5.067
38668SOL    HW117778   9.300   8.166   4.973
38668SOL    HW217779   9.257   8.257   5.087
38669SOL     OW17780   2.010   9.214  10.030
38669SOL    HW117781   2.029   9.298  10.071
38669SOL    HW217782   2.017   9.151  10.102
38670SOL     OW17783  11.851  12.933   2.712
38670SOL    HW117784  11.788  12.971   2.651
38670SOL    HW217785  11.839  12.838   2.703
38671SOL     OW17786   0.307   1.800   4.004
38671SOL    HW117787   0.212   1.807   4.009
38671SOL    HW217788   0.323   1.736   3.935
38672SOL     OW17789   1.126   1.762  10.570
38672SOL    HW117790   1.131   1.835  10.508
38672SOL    HW217791   1.034   1.759  10.596
38673SOL     OW17792   9.032   6.839   2.244
38673SOL    HW117793   9.039   6.746   2.221
38673SOL    HW217794   9.037   6.885   2.161
38674SOL     OW17795   8.710  14.487  11.577
38674SOL    HW117796   8.679  14.505  11.666
38674SOL    HW217797   8.805  14.490  11.584
38675SOL     OW17798  10.486   4.153   5.267
38675SOL    HW117799  10.488   4.176   5.174
38675SOL    HW217800  10.457   4.062   5.269
38676SOL     OW17801   1.870   6.980   2.730
38676SOL    HW117802   1.862   7.049   2.664
38676SOL    HW217803   1.781   6.964   2.760
38677SOL     OW17804  10.139  12.638   5.981
38677SOL    HW117805  10.105  12.568   6.038
38677SOL    HW217806  10.178  12.701   6.042
38678SOL     OW17807  12.528   1.961   5.488
38678SOL    HW117808  12.473   2.038   5.479
38678SOL    HW217809  12.472   1.897   5.534
38679SOL     OW17810  11.303   5.493   8.322
38679SOL    HW117811  11.229   5.471   8.266
38679SOL    HW217812  11.277   5.575   8.365
38680SOL     OW17813   2.613   3.913  14.557
38680SOL    HW117814   2.689   3.957  14.521
38680SOL    HW217815   2.636   3.820  14.555
38681SOL     OW17816   6.426   6.961   0.313
38681SOL    HW117817   6.395   7.024   0.379
38681SOL    HW217818   6.349   6.941   0.261
38682SOL     OW17819  12.155  12.092  11.780
38682SOL    HW117820  12.090  12.096  11.850
38682SOL    HW217821  12.104  12.102  11.699
38683SOL     OW17822   9.268   0.903   8.585
38683SOL    HW117823   9.354   0.873   8.614
38683SOL    HW217824   9.282   0.934   8.496
38684SOL     OW17825   6.558   3.289   1.017
38684SOL    HW117826   6.535   3.240   0.938
38684SOL    HW217827   6.598   3.370   0.984
38685SOL     OW17828  10.658   7.187  12.248
38685SOL    HW117829  10.716   7.113  12.228
38685SOL    HW217830  10.703   7.263  12.211
38686SOL     OW17831   4.505   0.906   5.084
38686SOL    HW117832   4.524   0.832   5.142
38686SOL    HW217833   4.505   0.982   5.142
38687SOL     OW17834  10.821   2.442  13.907
38687SOL    HW117835  10.871   2.372  13.948
38687SOL    HW217836  10.882   2.515  13.900
38688SOL     OW17837  14.200   1.408   6.589
38688SOL    HW117838  14.293   1.419   6.574
38688SOL    HW217839  14.162   1.494   6.569
38689SOL     OW17840  11.749   6.045   3.990
38689SOL    HW117841  11.759   5.951   3.983
38689SOL    HW217842  11.811   6.081   3.926
38690SOL     OW17843   8.131  14.769   0.875
38690SOL    HW117844   8.100  14.773   0.966
38690SOL    HW217845   8.055  14.793   0.823
38691SOL     OW17846   2.982   2.879   6.437
38691SOL    HW117847   2.936   2.848   6.515
38691SOL    HW217848   3.019   2.964   6.463
38692SOL     OW17849   6.635  11.048   3.015
38692SOL    HW117850   6.683  11.034   2.934
38692SOL    HW217851   6.640  10.965   3.061
38693SOL     OW17852   9.349   1.169   7.500
38693SOL    HW117853   9.267   1.186   7.453
38693SOL    HW217854   9.416   1.211   7.447
38694SOL     OW17855   0.470   9.449   0.318
38694SOL    HW117856   0.508   9.462   0.232
38694SOL    HW217857   0.518   9.509   0.376
38695SOL     OW17858  12.334   7.034   6.060
38695SOL    HW117859  12.310   7.012   5.970
38695SOL    HW217860  12.392   6.963   6.088
38696SOL     OW17861  10.522   4.239   3.746
38696SOL    HW117862  10.467   4.184   3.690
38696SOL    HW217863  10.492   4.328   3.729
38697SOL     OW17864  11.153  12.257  13.477
38697SOL    HW117865  11.086  12.256  13.409
38697SOL    HW217866  11.164  12.165  13.502
38698SOL     OW17867   1.063  13.970  13.226
38698SOL    HW117868   1.110  13.908  13.282
38698SOL    HW217869   1.108  13.966  13.142
38699SOL     OW17870  11.446   8.904   1.701
38699SOL    HW117871  11.477   8.928   1.788
38699SOL    HW217872  11.447   8.985   1.651
38700SOL     OW17873  12.008  10.492  13.027
38700SOL    HW117874  12.032  10.401  13.043
38700SOL    HW217875  12.084  10.542  13.057
38701SOL     OW17876   6.797   3.873   2.721
38701SOL    HW117877   6.843   3.834   2.646
38701SOL    HW217878   6.841   3.837   2.798
38702SOL     OW17879   3.110   7.914   8.974
38702SOL    HW117880   3.023   7.913   8.934
38702SOL    HW217881   3.167   7.875   8.907
38703SOL     OW17882   1.472  12.332   5.861
38703SOL    HW117883   1.490  12.359   5.771
38703SOL    HW217884   1.472  12.236   5.858
38704SOL     OW17885   8.954   8.428  14.400
38704SOL    HW117886   8.958   8.489  14.474
38704SOL    HW217887   9.031   8.373  14.410
38705SOL     OW17888  10.210   6.990   4.059
38705SOL    HW117889  10.142   6.957   4.000
38705SOL    HW217890  10.237   7.073   4.021
38706SOL     OW17891   3.250   3.250   9.741
38706SOL    HW117892   3.190   3.208   9.803
38706SOL    HW217893   3.225   3.342   9.740
38707SOL     OW17894   4.466  11.674   0.164
38707SOL    HW117895   4.445  11.699   0.254
38707SOL    HW217896   4.477  11.757   0.118
38708SOL     OW17897  12.018   2.213  14.397
38708SOL    HW117898  11.936   2.169  14.376
38708SOL    HW217899  11.999   2.262  14.477
38709SOL     OW17900   9.139  10.115  12.388
38709SOL    HW117901   9.084  10.040  12.370
38709SOL    HW217902   9.195  10.122  12.311
38710SOL     OW17903  13.254   7.511   2.929
38710SOL    HW117904  13.297   7.486   2.847
38710SOL    HW217905  13.167   7.541   2.902
38711SOL     OW17906   1.226   3.781   9.155
38711SOL    HW117907   1.302   3.824   9.194
38711SOL    HW217908   1.165   3.769   9.228
38712SOL     OW17909   2.010   1.615   3.349
38712SOL    HW117910   1.961   1.695   3.330
38712SOL    HW217911   1.971   1.549   3.292
38713SOL     OW17912  14.272  13.265   2.765
38713SOL    HW117913  14.188  13.277   2.720
38713SOL    HW217914  14.287  13.171   2.763
38714SOL     OW17915  13.836  14.498  10.614
38714SOL    HW117916  13.878  14.444  10.548
38714SOL    HW217917  13.891  14.575  10.622
38715SOL     OW17918   6.995   7.073   5.364
38715SOL    HW117919   7.063   7.086   5.431
38715SOL    HW217920   6.981   7.160   5.327
38716SOL     OW17921  13.955   8.685  12.235
38716SOL    HW117922  14.044   8.667  12.205
38716SOL    HW217923  13.907   8.707  12.155
38717SOL     OW17924   2.930   8.763   9.066
38717SOL    HW117925   2.866   8.762   9.137
38717SOL    HW217926   2.989   8.690   9.085
38718SOL     OW17927   5.316   1.053   3.416
38718SOL    HW117928   5.363   1.008   3.486
38718SOL    HW217929   5.259   1.115   3.461
38719SOL     OW17930  11.984   8.739   5.991
38719SOL    HW117931  11.927   8.718   6.064
38719SOL    HW217932  12.054   8.673   5.995
38720SOL     OW17933   0.028  12.505  11.120
38720SOL    HW117934   0.001  12.585  11.166
38720SOL    HW217935  14.867  12.511  11.035
38721SOL     OW17936   3.432   8.435   9.951
38721SOL    HW117937   3.462   8.491   9.879
38721SOL    HW217938   3.499   8.444  10.019
38722SOL     OW17939   6.269  11.882   8.060
38722SOL    HW117940   6.327  11.923   8.124
38722SOL    HW217941   6.229  11.955   8.014
38723SOL     OW17942   0.727  11.448   8.702
38723SOL    HW117943   0.682  11.514   8.649
38723SOL    HW217944   0.819  11.475   8.701
38724SOL     OW17945   8.982  10.678   4.311
38724SOL    HW117946   9.027  10.749   4.357
38724SOL    HW217947   9.016  10.681   4.222
38725SOL     OW17948  13.060   2.611   8.553
38725SOL    HW117949  12.983   2.554   8.546
38725SOL    HW217950  13.025   2.699   8.566
38726SOL     OW17951   8.501   1.765  13.635
38726SOL    HW117952   8.432   1.701  13.651
38726SOL    HW217953   8.490   1.790  13.543
38727SOL     OW17954   9.911  14.125  14.660
38727SOL    HW117955   9.838  14.118  14.598
38727SOL    HW217956   9.938  14.035  14.676
38728SOL     OW17957   5.041   5.234   8.807
38728SOL    HW117958   5.105   5.209   8.873
38728SOL    HW217959   4.959   5.245   8.856
38729SOL     OW17960  11.752   9.720   7.794
38729SOL    HW117961  11.691   9.647   7.793
38729SOL    HW217962  11.804   9.710   7.714
38730SOL     OW17963  11.477  13.354   5.957
38730SOL    HW117964  11.453  13.292   6.026
38730SOL    HW217965  11.403  13.352   5.896
38731SOL     OW17966   2.720   6.620   8.913
38731SOL    HW117967   2.679   6.536   8.892
38731SOL    HW217968   2.647   6.681   8.921
38732SOL     OW17969   2.974   0.086  11.661
38732SOL    HW117970   2.947   0.006  11.706
38732SOL    HW217971   3.070   0.082  11.660
38733SOL     OW17972   9.194  13.351   4.220
38733SOL    HW117973   9.263  13.349   4.286
38733SOL    HW217974   9.223  13.416   4.156
38734SOL     OW17975   0.431  14.262   5.550
38734SOL    HW117976   0.463  14.282   5.462
38734SOL    HW217977   0.474  14.326   5.607
38735SOL     OW17978   0.484   3.674   3.097
38735SOL    HW117979   0.549   3.739   3.125
38735SOL    HW217980   0.489   3.674   3.002
38736SOL     OW17981  14.548   9.524   0.643
38736SOL    HW117982  14.512   9.613   0.647
38736SOL    HW217983  14.537   9.498   0.552
38737SOL     OW17984   5.602   6.916   9.421
38737SOL    HW117985   5.697   6.915   9.438
38737SOL    HW217986   5.595   6.949   9.331
38738SOL     OW17987   8.897   4.708  13.918
38738SOL    HW117988   8.980   4.674  13.951
38738SOL    HW217989   8.911   4.718  13.824
38739SOL     OW17990   0.605  10.491   3.927
38739SOL    HW117991   0.676  10.538   3.885
38739SOL    HW217992   0.647  10.442   3.997
38740SOL     OW17993   2.431   4.345  10.416
38740SOL    HW117994   2.393   4.269  10.371
38740SOL    HW217995   2.525   4.331  10.411
38741SOL     OW17996   0.888  11.835   5.456
38741SOL    HW117997   0.865  11.751   5.416
38741SOL    HW217998   0.809  11.861   5.505
38742SOL     OW17999   2.118   9.820  14.244
38742SOL    HW118000   2.161   9.872  14.177
38742SOL    HW218001   2.150   9.857  14.327
38743SOL     OW18002  12.457  10.629   2.442
38743SOL    HW118003  12.398  10.646   2.369
38743SOL    HW218004  12.472  10.534   2.438
38744SOL     OW18005  11.137   3.891   3.475
38744SOL    HW118006  11.197   3.886   3.550
38744SOL    HW218007  11.193   3.875   3.399
38745SOL     OW18008  10.257   4.194   7.140
38745SOL    HW118009  10.202   4.264   7.106
38745SOL    HW218010  10.334   4.193   7.083
38746SOL     OW18011   3.781  11.047  11.046
38746SOL    HW118012   3.707  11.041  11.107
38746SOL    HW218013   3.835  10.970  11.066
38747SOL     OW18014  13.107  14.870  12.589
38747SOL    HW118015  13.164   0.058  12.621
38747SOL    HW218016  13.164  14.815  12.535
38748SOL     OW18017  12.747  13.075   6.468
38748SOL    HW118018  12.673  13.015   6.458
38748SOL    HW218019  12.742  13.132   6.391
38749SOL     OW18020   2.443   3.956   9.070
38749SOL    HW118021   2.366   4.012   9.059
38749SOL    HW218022   2.485   3.955   8.984
38750SOL     OW18023   1.458  10.465   4.444
38750SOL    HW118024   1.385  10.409   4.471
38750SOL    HW218025   1.417  10.545   4.413
38751SOL     OW18026  14.046  12.610   2.242
38751SOL    HW118027  14.039  12.672   2.314
38751SOL    HW218028  14.139  12.588   2.238
38752SOL     OW18029   7.455   9.762   5.197
38752SOL    HW118030   7.414   9.680   5.226
38752SOL    HW218031   7.406   9.786   5.118
38753SOL     OW18032   3.781   8.445  12.061
38753SOL    HW118033   3.733   8.518  12.099
38753SOL    HW218034   3.779   8.461  11.966
38754SOL     OW18035   5.925  12.569   1.898
38754SOL    HW118036   5.864  12.496   1.897
38754SOL    HW218037   6.009  12.530   1.924
38755SOL     OW18038   8.846   2.513   3.393
38755SOL    HW118039   8.782   2.559   3.338
38755SOL    HW218040   8.921   2.498   3.335
38756SOL     OW18041   2.508   8.544  10.942
38756SOL    HW118042   2.571   8.507  11.003
38756SOL    HW218043   2.513   8.487  10.865
38757SOL     OW18044  13.600   2.211   8.825
38757SOL    HW118045  13.640   2.244   8.745
38757SOL    HW218046  13.515   2.254   8.829
38758SOL     OW18047   0.693   0.841   2.536
38758SOL    HW118048   0.685   0.800   2.450
38758SOL    HW218049   0.694   0.935   2.518
38759SOL     OW18050  14.566  14.127  12.939
38759SOL    HW118051  14.518  14.091  13.014
38759SOL    HW218052  14.635  14.180  12.979
38760SOL     OW18053   6.745  11.993  14.632
38760SOL    HW118054   6.808  12.062  14.611
38760SOL    HW218055   6.699  11.977  14.550
38761SOL     OW18056  13.564   6.704  11.277
38761SOL    HW118057  13.487   6.676  11.227
38761SOL    HW218058  13.555   6.660  11.362
38762SOL     OW18059   0.376  12.712   0.837
38762SOL    HW118060   0.395  12.692   0.745
38762SOL    HW218061   0.284  12.735   0.837
38763SOL     OW18062   0.506   6.926  13.202
38763SOL    HW118063   0.600   6.923  13.217
38763SOL    HW218064   0.495   6.887  13.115
38764SOL     OW18065   5.969   2.795   3.244
38764SOL    HW118066   5.876   2.815   3.236
38764SOL    HW218067   6.010   2.847   3.175
38765SOL     OW18068   8.244   0.238   3.170
38765SOL    HW118069   8.233   0.218   3.263
38765SOL    HW218070   8.320   0.186   3.143
38766SOL     OW18071   5.223  11.574  10.172
38766SOL    HW118072   5.222  11.486  10.211
38766SOL    HW218073   5.185  11.630  10.239
38767SOL     OW18074   7.283  10.645  14.516
38767SOL    HW118075   7.342  10.584  14.560
38767SOL    HW218076   7.200  10.637  14.563
38768SOL     OW18077   0.485   2.896   8.999
38768SOL    HW118078   0.536   2.922   8.922
38768SOL    HW218079   0.399   2.875   8.964
38769SOL     OW18080  11.469   5.901  12.070
38769SOL    HW118081  11.397   5.942  12.024
38769SOL    HW218082  11.428   5.847  12.137
38770SOL     OW18083   9.720  14.027   9.538
38770SOL    HW118084   9.677  14.037   9.624
38770SOL    HW218085   9.780  14.101   9.533
38771SOL     OW18086   6.738   1.057   5.795
38771SOL    HW118087   6.664   1.004   5.767
38771SOL    HW218088   6.699   1.136   5.834
38772SOL     OW18089  14.365   1.411   1.171
38772SOL    HW118090  14.337   1.449   1.088
38772SOL    HW218091  14.381   1.318   1.152
38773SOL     OW18092   8.209   2.762  14.529
38773SOL    HW118093   8.155   2.706  14.473
38773SOL    HW218094   8.292   2.770  14.481
38774SOL     OW18095  12.702   2.123  13.333
38774SOL    HW118096  12.647   2.186  13.289
38774SOL    HW218097  12.700   2.149  13.425
38775SOL     OW18098   3.772   2.280  14.100
38775SOL    HW118099   3.793   2.327  14.180
38775SOL    HW218100   3.771   2.188  14.125
38776SOL     OW18101   6.032   1.027  10.896
38776SOL    HW118102   6.088   1.034  10.973
38776SOL    HW218103   6.016   0.934  10.886
38777SOL     OW18104  14.530   6.073   4.481
38777SOL    HW118105  14.541   6.168   4.473
38777SOL    HW218106  14.613   6.036   4.452
38778SOL     OW18107   1.806   6.268   1.212
38778SOL    HW118108   1.740   6.337   1.212
38778SOL    HW218109   1.889   6.314   1.224
38779SOL     OW18110   7.330  10.700   4.637
38779SOL    HW118111   7.255  10.757   4.653
38779SOL    HW218112   7.401  10.760   4.613
38780SOL     OW18113   3.967   8.777   4.992
38780SOL    HW118114   3.987   8.853   4.937
38780SOL    HW218115   3.872   8.778   5.000
38781SOL     OW18116   0.927   6.387  14.500
38781SOL    HW118117   0.904   6.297  14.523
38781SOL    HW218118   1.004   6.406  14.553
38782SOL     OW18119  11.020   9.292  12.940
38782SOL    HW118120  11.097   9.251  12.902
38782SOL    HW218121  11.049   9.324  13.025
38783SOL     OW18122  12.997   3.164   8.748
38783SOL    HW118123  13.004   3.225   8.674
38783SOL    HW218124  13.060   3.197   8.812
38784SOL     OW18125   8.648   8.797  11.400
38784SOL    HW118126   8.579   8.777  11.337
38784SOL    HW218127   8.729   8.769  11.357
38785SOL     OW18128   2.768   7.928   9.891
38785SOL    HW118129   2.706   7.895   9.956
38785SOL    HW218130   2.714   7.950   9.815
38786SOL     OW18131   0.556   5.906  11.590
38786SOL    HW118132   0.629   5.847  11.568
38786SOL    HW218133   0.480   5.848  11.596
38787SOL     OW18134  13.589  11.806   8.513
38787SOL    HW118135  13.594  11.886   8.564
38787SOL    HW218136  13.525  11.825   8.445
38788SOL     OW18137  10.209   5.275  11.458
38788SOL    HW118138  10.138   5.231  11.505
38788SOL    HW218139  10.180   5.365  11.449
38789SOL     OW18140  12.506  13.047  14.289
38789SOL    HW118141  12.448  13.005  14.226
38789SOL    HW218142  12.461  13.129  14.312
38790SOL     OW18143   1.822   3.231   0.902
38790SOL    HW118144   1.914   3.222   0.878
38790SOL    HW218145   1.774   3.181   0.837
38791SOL     OW18146   2.048  11.089   7.172
38791SOL    HW118147   2.069  11.090   7.265
38791SOL    HW218148   1.984  11.018   7.163
38792SOL     OW18149  13.072   8.176   0.620
38792SOL    HW118150  13.076   8.236   0.545
38792SOL    HW218151  13.164   8.162   0.644
38793SOL     OW18152   1.459   8.655   0.518
38793SOL    HW118153   1.511   8.724   0.476
38793SOL    HW218154   1.368   8.676   0.494
38794SOL     OW18155   5.334   7.668  13.524
38794SOL    HW118156   5.400   7.669  13.455
38794SOL    HW218157   5.352   7.747  13.575
38795SOL     OW18158   1.154   8.332   1.197
38795SOL    HW118159   1.237   8.285   1.192
38795SOL    HW218160   1.123   8.317   1.287
38796SOL     OW18161   9.224  13.193   6.635
38796SOL    HW118162   9.215  13.261   6.701
38796SOL    HW218163   9.172  13.224   6.561
38797SOL     OW18164   5.243  10.256   7.531
38797SOL    HW118165   5.248  10.216   7.618
38797SOL    HW218166   5.328  10.300   7.521
38798SOL     OW18167   3.691   0.784  14.782
38798SOL    HW118168   3.743   0.732  14.842
38798SOL    HW218169   3.754   0.826  14.724
38799SOL     OW18170  12.350   6.026  10.088
38799SOL    HW118171  12.344   6.089  10.161
38799SOL    HW218172  12.440   5.995  10.092
38800SOL     OW18173   7.867  13.908   9.757
38800SOL    HW118174   7.943  13.954   9.721
38800SOL    HW218175   7.793  13.965   9.737
38801SOL     OW18176  13.420  10.821  14.325
38801SOL    HW118177  13.340  10.872  14.320
38801SOL    HW218178  13.430  10.800  14.418
38802SOL     OW18179  10.556   0.989  11.726
38802SOL    HW118180  10.573   0.896  11.743
38802SOL    HW218181  10.557   1.029  11.813
38803SOL     OW18182   5.942   2.886   0.310
38803SOL    HW118183   5.861   2.861   0.354
38803SOL    HW218184   6.006   2.821   0.339
38804SOL     OW18185   3.447   0.412  11.849
38804SOL    HW118186   3.358   0.388  11.820
38804SOL    HW218187   3.444   0.404  11.944
38805SOL     OW18188   8.175   8.274   4.386
38805SOL    HW118189   8.172   8.194   4.333
38805SOL    HW218190   8.121   8.255   4.462
38806SOL     OW18191   1.126   4.354   0.474
38806SOL    HW118192   1.193   4.315   0.418
38806SOL    HW218193   1.059   4.386   0.414
38807SOL     OW18194   5.913   9.252  10.436
38807SOL    HW118195   5.894   9.162  10.463
38807SOL    HW218196   5.869   9.306  10.501
38808SOL     OW18197  14.777   1.238  14.857
38808SOL    HW118198  14.814   1.156   0.007
38808SOL    HW218199  14.691   1.243   0.016
38809SOL     OW18200  11.398   3.890   8.216
38809SOL    HW118201  11.468   3.826   8.232
38809SOL    HW218202  11.327   3.862   8.274
38810SOL     OW18203   5.413  12.067  14.331
38810SOL    HW118204   5.382  12.092  14.244
38810SOL    HW218205   5.382  12.137  14.388
38811SOL     OW18206   1.218  12.359  10.444
38811SOL    HW118207   1.294  12.374  10.388
38811SOL    HW218208   1.254  12.350  10.532
38812SOL     OW18209   4.237   5.929  12.907
38812SOL    HW118210   4.180   5.854  12.888
38812SOL    HW218211   4.305   5.893  12.964
38813SOL     OW18212  12.012   5.916   1.665
38813SOL    HW118213  12.080   5.852   1.644
38813SOL    HW218214  11.942   5.864   1.705
38814SOL     OW18215  14.444   4.643   1.371
38814SOL    HW118216  14.496   4.719   1.396
38814SOL    HW218217  14.474   4.573   1.429
38815SOL     OW18218   7.303   4.949   5.966
38815SOL    HW118219   7.299   4.926   5.873
38815SOL    HW218220   7.218   4.922   6.002
38816SOL     OW18221   9.558   3.081   6.195
38816SOL    HW118222   9.506   3.038   6.127
38816SOL    HW218223   9.527   3.042   6.277
38817SOL     OW18224   6.197   0.387   9.792
38817SOL    HW118225   6.160   0.445   9.857
38817SOL    HW218226   6.227   0.444   9.722
38818SOL     OW18227   0.864   7.856  11.766
38818SOL    HW118228   0.928   7.925  11.782
38818SOL    HW218229   0.914   7.785  11.725
38819SOL     OW18230   7.154   5.675   6.428
38819SOL    HW118231   7.117   5.637   6.508
38819SOL    HW218232   7.095   5.646   6.359
38820SOL     OW18233   9.320  11.832   0.677
38820SOL    HW118234   9.342  11.835   0.770
38820SOL    HW218235   9.313  11.923   0.650
38821SOL     OW18236  14.092  13.365  12.904
38821SOL    HW118237  14.049  13.319  12.976
38821SOL    HW218238  14.091  13.457  12.930
38822SOL     OW18239  13.325   3.183  13.023
38822SOL    HW118240  13.334   3.127  13.100
38822SOL    HW218241  13.230   3.187  13.007
38823SOL     OW18242   8.035   8.747   6.543
38823SOL    HW118243   8.050   8.801   6.620
38823SOL    HW218244   7.944   8.719   6.550
38824SOL     OW18245   9.282   1.232   8.020
38824SOL    HW118246   9.217   1.278   7.968
38824SOL    HW218247   9.249   1.238   8.110
38825SOL     OW18248  13.186  14.489   1.481
38825SOL    HW118249  13.254  14.481   1.414
38825SOL    HW218250  13.170  14.399   1.510
38826SOL     OW18251   1.829   7.223  12.927
38826SOL    HW118252   1.778   7.153  12.968
38826SOL    HW218253   1.768   7.266  12.867
38827SOL     OW18254   2.377  10.342   3.354
38827SOL    HW118255   2.384  10.322   3.260
38827SOL    HW218256   2.313  10.413   3.358
38828SOL     OW18257   5.648   0.038   8.540
38828SOL    HW118258   5.637   0.133   8.542
38828SOL    HW218259   5.727   0.022   8.592
38829SOL     OW18260   7.231  11.961   8.625
38829SOL    HW118261   7.138  11.940   8.620
38829SOL    HW218262   7.261  11.923   8.708
38830SOL     OW18263   9.904   8.994  12.158
38830SOL    HW118264   9.873   9.073  12.114
38830SOL    HW218265   9.851   8.924  12.121
38831SOL     OW18266   9.415   0.325  11.074
38831SOL    HW118267   9.356   0.332  10.999
38831SOL    HW218268   9.455   0.412  11.081
38832SOL     OW18269  13.642   9.043   9.436
38832SOL    HW118270  13.554   9.020   9.465
38832SOL    HW218271  13.629   9.096   9.357
38833SOL     OW18272   0.712  13.199  13.421
38833SOL    HW118273   0.626  13.197  13.464
38833SOL    HW218274   0.754  13.278  13.455
38834SOL     OW18275  14.276   9.455   6.799
38834SOL    HW118276  14.329   9.422   6.727
38834SOL    HW218277  14.211   9.386   6.814
38835SOL     OW18278  11.633  14.686   1.058
38835SOL    HW118279  11.628  14.675   1.153
38835SOL    HW218280  11.556  14.640   1.025
38836SOL     OW18281  12.078   8.400   1.743
38836SOL    HW118282  12.087   8.341   1.668
38836SOL    HW218283  12.110   8.484   1.710
38837SOL     OW18284   4.792   5.855   2.441
38837SOL    HW118285   4.770   5.948   2.446
38837SOL    HW218286   4.712   5.812   2.409
38838SOL     OW18287   9.930   8.883   7.732
38838SOL    HW118288   9.859   8.932   7.774
38838SOL    HW218289   9.941   8.805   7.786
38839SOL     OW18290   6.196   9.536   5.504
38839SOL    HW118291   6.137   9.572   5.437
38839SOL    HW218292   6.280   9.578   5.486
38840SOL     OW18293   4.096   6.129  10.346
38840SOL    HW118294   4.018   6.184  10.348
38840SOL    HW218295   4.079   6.066  10.277
38841SOL     OW18296   6.425   6.946   4.371
38841SOL    HW118297   6.334   6.922   4.387
38841SOL    HW218298   6.466   6.949   4.458
38842SOL     OW18299   1.694  10.306   6.927
38842SOL    HW118300   1.660  10.386   6.968
38842SOL    HW218301   1.671  10.236   6.989
38843SOL     OW18302   2.189   7.956  13.879
38843SOL    HW118303   2.277   7.944  13.917
38843SOL    HW218304   2.202   7.946  13.785
38844SOL     OW18305  10.595   5.235  13.267
38844SOL    HW118306  10.596   5.167  13.334
38844SOL    HW218307  10.686   5.265  13.263
38845SOL     OW18308  11.208  13.833   0.664
38845SOL    HW118309  11.193  13.739   0.652
38845SOL    HW218310  11.220  13.867   0.575
38846SOL     OW18311   1.821  10.754  12.273
38846SOL    HW118312   1.853  10.680  12.221
38846SOL    HW218313   1.864  10.831  12.235
38847SOL     OW18314   3.533   7.882   9.291
38847SOL    HW118315   3.627   7.893   9.277
38847SOL    HW218316   3.492   7.929   9.218
38848SOL     OW18317  14.570   3.314   8.926
38848SOL    HW118318  14.634   3.384   8.939
38848SOL    HW218319  14.486   3.353   8.949
38849SOL     OW18320   0.775   2.700   2.948
38849SOL    HW118321   0.789   2.794   2.965
38849SOL    HW218322   0.700   2.697   2.890
38850SOL     OW18323   3.149   2.257   0.761
38850SOL    HW118324   3.083   2.217   0.704
38850SOL    HW218325   3.205   2.184   0.787
38851SOL     OW18326   0.526  12.820  14.121
38851SOL    HW118327   0.613  12.837  14.159
38851SOL    HW218328   0.544  12.766  14.045
38852SOL     OW18329   7.164  10.129   4.587
38852SOL    HW118330   7.143  10.123   4.494
38852SOL    HW218331   7.135  10.045   4.624
38853SOL     OW18332   1.369  12.298  10.657
38853SOL    HW118333   1.442  12.256  10.612
38853SOL    HW218334   1.364  12.254  10.741
38854SOL     OW18335   4.777   8.676   9.930
38854SOL    HW118336   4.797   8.733   9.855
38854SOL    HW218337   4.857   8.675   9.982
38855SOL     OW18338   8.769   2.624   9.265
38855SOL    HW118339   8.694   2.670   9.227
38855SOL    HW218340   8.837   2.691   9.270
38856SOL     OW18341   8.863  11.499  14.839
38856SOL    HW118342   8.870  11.570   0.021
38856SOL    HW218343   8.936  11.441  14.860
38857SOL     OW18344  12.668  13.062  13.676
38857SOL    HW118345  12.749  13.051  13.626
38857SOL    HW218346  12.695  13.066  13.767
38858SOL     OW18347   5.019  12.334   6.622
38858SOL    HW118348   4.963  12.391   6.569
38858SOL    HW218349   5.044  12.263   6.562
38859SOL     OW18350   1.170   8.514  10.518
38859SOL    HW118351   1.239   8.450  10.537
38859SOL    HW218352   1.133   8.484  10.435
38860SOL     OW18353  13.006   0.632  10.734
38860SOL    HW118354  12.965   0.716  10.715
38860SOL    HW218355  13.054   0.647  10.816
38861SOL     OW18356   6.571  12.504   0.024
38861SOL    HW118357   6.627  12.427   0.016
38861SOL    HW218358   6.618  12.562   0.084
38862SOL     OW18359   0.956  14.798   7.241
38862SOL    HW118360   0.952  14.703   7.241
38862SOL    HW218361   1.027  14.819   7.180
38863SOL     OW18362   1.702   9.132  10.266
38863SOL    HW118363   1.639   9.069  10.232
38863SOL    HW218364   1.680   9.141  10.359
38864SOL     OW18365   2.254  14.328   3.461
38864SOL    HW118366   2.186  14.394   3.449
38864SOL    HW218367   2.336  14.378   3.453
38865SOL     OW18368   5.475   0.763   9.088
38865SOL    HW118369   5.421   0.716   9.151
38865SOL    HW218370   5.447   0.854   9.096
38866SOL     OW18371   8.493   4.552   6.584
38866SOL    HW118372   8.496   4.611   6.659
38866SOL    HW218373   8.568   4.494   6.596
38867SOL     OW18374   6.682  12.933   9.813
38867SOL    HW118375   6.633  12.970   9.887
38867SOL    HW218376   6.689  12.840   9.834
38868SOL     OW18377   4.977   9.922   4.983
38868SOL    HW118378   5.034   9.884   5.050
38868SOL    HW218379   4.927   9.848   4.950
38869SOL     OW18380   9.609  10.701   5.080
38869SOL    HW118381   9.694  10.731   5.046
38869SOL    HW218382   9.618  10.706   5.175
38870SOL     OW18383  13.102   9.885   9.992
38870SOL    HW118384  13.037   9.832  10.038
38870SOL    HW218385  13.151   9.822   9.939
38871SOL     OW18386  12.270   1.625   7.587
38871SOL    HW118387  12.295   1.557   7.649
38871SOL    HW218388  12.177   1.639   7.603
38872SOL     OW18389  11.990  10.496   6.241
38872SOL    HW118390  12.086  10.503   6.240
38872SOL    HW218391  11.971  10.417   6.189
38873SOL     OW18392   4.336  10.793   0.662
38873SOL    HW118393   4.420  10.803   0.618
38873SOL    HW218394   4.273  10.837   0.605
38874SOL     OW18395  12.080  12.836  10.250
38874SOL    HW118396  12.037  12.910  10.206
38874SOL    HW218397  12.015  12.766  10.246
38875SOL     OW18398   7.083  11.018   5.790
38875SOL    HW118399   7.170  11.002   5.826
38875SOL    HW218400   7.040  10.932   5.792
38876SOL     OW18401   4.411   2.256   9.403
38876SOL    HW118402   4.409   2.202   9.482
38876SOL    HW218403   4.449   2.199   9.336
38877SOL     OW18404  12.687   2.357  13.934
38877SOL    HW118405  12.635   2.355  13.854
38877SOL    HW218406  12.660   2.279  13.983
38878SOL     OW18407   9.396   7.400  11.747
38878SOL    HW118408   9.302   7.384  11.756
38878SOL    HW218409   9.434   7.369  11.829
38879SOL     OW18410   7.883  12.705   8.003
38879SOL    HW118411   7.826  12.710   8.080
38879SOL    HW218412   7.936  12.784   8.008
38880SOL     OW18413   1.604  12.591   5.561
38880SOL    HW118414   1.534  12.640   5.518
38880SOL    HW218415   1.565  12.507   5.583
38881SOL     OW18416  10.785   1.957   4.515
38881SOL    HW118417  10.744   2.039   4.544
38881SOL    HW218418  10.863   1.984   4.468
38882SOL     OW18419  12.436  11.087  13.535
38882SOL    HW118420  12.459  10.997  13.561
38882SOL    HW218421  12.488  11.102  13.456
38883SOL     OW18422   8.900   8.562   8.182
38883SOL    HW118423   8.907   8.506   8.104
38883SOL    HW218424   8.899   8.651   8.147
38884SOL     OW18425  13.246  13.034   8.088
38884SOL    HW118426  13.315  12.970   8.105
38884SOL    HW218427  13.208  13.005   8.004
38885SOL     OW18428   7.495  12.031   0.883
38885SOL    HW118429   7.563  12.097   0.870
38885SOL    HW218430   7.511  11.966   0.815
38886SOL     OW18431   7.653   0.407   8.424
38886SOL    HW118432   7.604   0.469   8.479
38886SOL    HW218433   7.585   0.357   8.379
38887SOL     OW18434   2.811   9.391   3.089
38887SOL    HW118435   2.848   9.303   3.085
38887SOL    HW218436   2.717   9.379   3.076
38888SOL     OW18437   7.522  11.494   0.313
38888SOL    HW118438   7.520  11.550   0.235
38888SOL    HW218439   7.500  11.553   0.385
38889SOL     OW18440   0.416   7.413   4.907
38889SOL    HW118441   0.487   7.418   4.843
38889SOL    HW218442   0.430   7.489   4.964
38890SOL     OW18443  10.931   9.735   7.717
38890SOL    HW118444  10.867   9.749   7.788
38890SOL    HW218445  10.965   9.647   7.733
38891SOL     OW18446   3.612  12.689   0.719
38891SOL    HW118447   3.616  12.602   0.758
38891SOL    HW218448   3.596  12.748   0.793
38892SOL     OW18449  14.840  14.316   9.117
38892SOL    HW118450   0.020  14.254   9.078
38892SOL    HW218451  14.754  14.281   9.095
38893SOL     OW18452   5.694   2.283   3.334
38893SOL    HW118453   5.718   2.371   3.308
38893SOL    HW218454   5.626   2.295   3.400
38894SOL     OW18455   4.206  13.662  11.708
38894SOL    HW118456   4.181  13.754  11.712
38894SOL    HW218457   4.145  13.623  11.645
38895SOL     OW18458  12.622   0.657   6.527
38895SOL    HW118459  12.562   0.594   6.568
38895SOL    HW218460  12.704   0.648   6.576
38896SOL     OW18461  13.179  11.462   5.670
38896SOL    HW118462  13.163  11.429   5.758
38896SOL    HW218463  13.159  11.555   5.676
38897SOL     OW18464   1.218   6.733   4.982
38897SOL    HW118465   1.182   6.806   5.032
38897SOL    HW218466   1.259   6.774   4.906
38898SOL     OW18467   6.303   5.085   1.594
38898SOL    HW118468   6.231   5.147   1.601
38898SOL    HW218469   6.264   5.005   1.560
38899SOL     OW18470   4.046  11.775   7.081
38899SOL    HW118471   4.038  11.695   7.029
38899SOL    HW218472   3.998  11.756   7.162
38900SOL     OW18473   9.865   3.064   3.683
38900SOL    HW118474   9.891   3.152   3.709
38900SOL    HW218475   9.943   3.026   3.643
38901SOL     OW18476   0.764  14.760   8.334
38901SOL    HW118477   0.683  14.761   8.283
38901SOL    HW218478   0.738  14.792   8.420
38902SOL     OW18479   6.489   9.997   7.504
38902SOL    HW118480   6.470   9.921   7.448
38902SOL    HW218481   6.413  10.003   7.562
38903SOL     OW18482  14.559   5.465  13.390
38903SOL    HW118483  14.598   5.550  13.413
38903SOL    HW218484  14.625   5.401  13.416
38904SOL     OW18485  12.623  10.504   9.431
38904SOL    HW118486  12.643  10.450   9.507
38904SOL    HW218487  12.547  10.462   9.392
38905SOL     OW18488   6.398   0.419  11.964
38905SOL    HW118489   6.338   0.485  11.930
38905SOL    HW218490   6.484   0.447  11.933
38906SOL     OW18491   8.031  13.433   0.768
38906SOL    HW118492   8.094  13.486   0.719
38906SOL    HW218493   7.946  13.457   0.731
38907SOL     OW18494   3.674   2.590   5.121
38907SOL    HW118495   3.726   2.627   5.193
38907SOL    HW218496   3.724   2.610   5.042
38908SOL     OW18497  11.359   4.280  10.865
38908SOL    HW118498  11.427   4.222  10.830
38908SOL    HW218499  11.323   4.325  10.789
38909SOL     OW18500  13.291   4.837   3.383
38909SOL    HW118501  13.280   4.902   3.313
38909SOL    HW218502  13.383   4.843   3.408
38910SOL     OW18503  10.742   9.330   6.962
38910SOL    HW118504  10.745   9.371   6.875
38910SOL    HW218505  10.833   9.305   6.979
38911SOL     OW18506   8.191  10.987   4.538
38911SOL    HW118507   8.227  10.926   4.602
38911SOL    HW218508   8.267  11.021   4.491
38912SOL     OW18509   4.411   8.735   4.669
38912SOL    HW118510   4.395   8.785   4.749
38912SOL    HW218511   4.432   8.801   4.603
38913SOL     OW18512  14.307   5.778   7.269
38913SOL    HW118513  14.359   5.798   7.191
38913SOL    HW218514  14.274   5.689   7.253
38914SOL     OW18515   8.071  12.303   2.071
38914SOL    HW118516   8.048  12.254   2.150
38914SOL    HW218517   8.002  12.369   2.063
38915SOL     OW18518  13.700  12.427  12.547
38915SOL    HW118519  13.776  12.400  12.496
38915SOL    HW218520  13.695  12.521  12.535
38916SOL     OW18521   9.546   1.690   8.758
38916SOL    HW118522   9.568   1.683   8.665
38916SOL    HW218523   9.628   1.672   8.803
38917SOL     OW18524   3.484   5.850   4.685
38917SOL    HW118525   3.456   5.940   4.706
38917SOL    HW218526   3.424   5.823   4.615
38918SOL     OW18527  12.959   0.441  13.033
38918SOL    HW118528  12.955   0.535  13.016
38918SOL    HW218529  12.974   0.402  12.947
38919SOL     OW18530   8.582   6.906  13.107
38919SOL    HW118531   8.577   6.999  13.129
38919SOL    HW218532   8.641   6.869  13.173
38920SOL     OW18533   4.006   3.870   1.009
38920SOL    HW118534   3.938   3.918   0.962
38920SOL    HW218535   4.085   3.924   0.997
38921SOL     OW18536   8.327  14.012   3.935
38921SOL    HW118537   8.279  13.930   3.943
38921SOL    HW218538   8.353  14.016   3.843
38922SOL     OW18539   3.639   8.270  14.254
38922SOL    HW118540   3.706   8.224  14.306
38922SOL    HW218541   3.687   8.305  14.179
38923SOL     OW18542   0.711  13.710   0.725
38923SOL    HW118543   0.755  13.703   0.809
38923SOL    HW218544   0.626  13.669   0.738
38924SOL     OW18545   6.230  13.520  12.107
38924SOL    HW118546   6.165  13.574  12.152
38924SOL    HW218547   6.219  13.541  12.014
38925SOL     OW18548   0.276  11.612  14.501
38925SOL    HW118549   0.243  11.696  14.533
38925SOL    HW218550   0.305  11.566  14.579
38926SOL     OW18551   3.004   5.355   3.178
38926SOL    HW118552   2.941   5.420   3.208
38926SOL    HW218553   3.088   5.400   3.179
38927SOL     OW18554   9.688   2.860   4.836
38927SOL    HW118555   9.626   2.800   4.877
38927SOL    HW218556   9.634   2.932   4.803
38928SOL     OW18557   2.784   5.068   9.642
38928SOL    HW118558   2.863   5.113   9.672
38928SOL    HW218559   2.712   5.126   9.666
38929SOL     OW18560   8.556   6.771   9.839
38929SOL    HW118561   8.578   6.864   9.850
38929SOL    HW218562   8.521   6.744   9.924
38930SOL     OW18563   1.615  10.985  10.585
38930SOL    HW118564   1.529  11.019  10.560
38930SOL    HW218565   1.667  10.990  10.505
38931SOL     OW18566   2.794   3.212   9.318
38931SOL    HW118567   2.731   3.149   9.281
38931SOL    HW218568   2.828   3.259   9.242
38932SOL     OW18569   5.187  11.054   0.007
38932SOL    HW118570   5.114  11.001  14.855
38932SOL    HW218571   5.233  11.084  14.810
38933SOL     OW18572   4.444  12.020   9.792
38933SOL    HW118573   4.398  11.940   9.817
38933SOL    HW218574   4.457  12.012   9.697
38934SOL     OW18575  10.740  12.867   9.863
38934SOL    HW118576  10.678  12.910   9.803
38934SOL    HW218577  10.738  12.921   9.942
38935SOL     OW18578  12.010  14.556  14.535
38935SOL    HW118579  11.964  14.493  14.590
38935SOL    HW218580  12.066  14.502  14.479
38936SOL     OW18581   9.160   1.273   2.162
38936SOL    HW118582   9.219   1.244   2.092
38936SOL    HW218583   9.087   1.315   2.117
38937SOL     OW18584  10.602   7.878  14.013
38937SOL    HW118585  10.623   7.845  13.926
38937SOL    HW218586  10.530   7.822  14.043
38938SOL     OW18587   1.776  10.544  12.661
38938SOL    HW118588   1.814  10.542  12.749
38938SOL    HW218589   1.844  10.584  12.606
38939SOL     OW18590  14.051   9.196   9.236
38939SOL    HW118591  14.021   9.108   9.259
38939SOL    HW218592  14.095   9.228   9.315
38940SOL     OW18593   6.717   0.594   5.699
38940SOL    HW118594   6.743   0.537   5.626
38940SOL    HW218595   6.795   0.600   5.753
38941SOL     OW18596  12.467  11.869  12.632
38941SOL    HW118597  12.391  11.818  12.605
38941SOL    HW218598  12.536  11.843  12.571
38942SOL     OW18599   9.985   9.910   4.879
38942SOL    HW118600   9.930   9.932   4.804
38942SOL    HW218601   9.990   9.815   4.879
38943SOL     OW18602  12.222   7.191   0.014
38943SOL    HW118603  12.176   7.190   0.098
38943SOL    HW218604  12.291   7.256   0.026
38944SOL     OW18605  13.432   6.890   8.238
38944SOL    HW118606  13.421   6.849   8.153
38944SOL    HW218607  13.452   6.818   8.297
38945SOL     OW18608  12.410   4.204   6.208
38945SOL    HW118609  12.409   4.247   6.123
38945SOL    HW218610  12.325   4.225   6.247
38946SOL     OW18611  12.341   5.398   0.632
38946SOL    HW118612  12.326   5.361   0.546
38946SOL    HW218613  12.429   5.369   0.656
38947SOL     OW18614   6.336   4.281   7.080
38947SOL    HW118615   6.307   4.234   7.158
38947SOL    HW218616   6.361   4.211   7.018
38948SOL     OW18617   6.882   8.804   6.140
38948SOL    HW118618   6.795   8.808   6.180
38948SOL    HW218619   6.867   8.775   6.051
38949SOL     OW18620  14.158  12.992  11.168
38949SOL    HW118621  14.162  12.929  11.096
38949SOL    HW218622  14.248  12.999  11.200
38950SOL     OW18623   6.971   2.163  12.858
38950SOL    HW118624   7.041   2.149  12.795
38950SOL    HW218625   6.898   2.197  12.806
38951SOL     OW18626  12.395   0.667   4.349
38951SOL    HW118627  12.313   0.620   4.367
38951SOL    HW218628  12.370   0.759   4.345
38952SOL     OW18629   8.023   0.553  12.716
38952SOL    HW118630   8.014   0.481  12.654
38952SOL    HW218631   8.082   0.615  12.673
38953SOL     OW18632  13.050   6.943   9.344
38953SOL    HW118633  12.982   6.921   9.280
38953SOL    HW218634  13.004   6.994   9.410
38954SOL     OW18635  14.556   1.760   9.455
38954SOL    HW118636  14.561   1.764   9.360
38954SOL    HW218637  14.552   1.666   9.475
38955SOL     OW18638   2.440   9.542   8.811
38955SOL    HW118639   2.512   9.537   8.874
38955SOL    HW218640   2.367   9.497   8.854
38956SOL     OW18641   7.644  10.059  12.852
38956SOL    HW118642   7.563  10.075  12.901
38956SOL    HW218643   7.626  10.098  12.765
38957SOL     OW18644  11.358  12.768   2.153
38957SOL    HW118645  11.274  12.809   2.129
38957SOL    HW218646  11.402  12.754   2.069
38958SOL     OW18647  12.863  11.508  14.570
38958SOL    HW118648  12.797  11.503  14.639
38958SOL    HW218649  12.900  11.596  14.579
38959SOL     OW18650  12.809  12.592  10.344
38959SOL    HW118651  12.831  12.597  10.437
38959SOL    HW218652  12.893  12.603  10.299
38960SOL     OW18653   6.691   1.046   4.236
38960SOL    HW118654   6.746   0.968   4.227
38960SOL    HW218655   6.722   1.105   4.168
38961SOL     OW18656   3.365   8.309   5.369
38961SOL    HW118657   3.345   8.361   5.447
38961SOL    HW218658   3.459   8.295   5.374
38962SOL     OW18659  10.533   8.331   3.838
38962SOL    HW118660  10.571   8.416   3.817
38962SOL    HW218661  10.439   8.349   3.847
38963SOL     OW18662  14.248   8.883   5.897
38963SOL    HW118663  14.292   8.826   5.835
38963SOL    HW218664  14.228   8.962   5.847
38964SOL     OW18665   2.909   0.699  10.256
38964SOL    HW118666   2.966   0.622  10.261
38964SOL    HW218667   2.915   0.728  10.165
38965SOL     OW18668   5.089  14.611   9.827
38965SOL    HW118669   5.097  14.683   9.765
38965SOL    HW218670   5.070  14.535   9.773
38966SOL     OW18671   0.458  12.472   1.375
38966SOL    HW118672   0.374  12.489   1.334
38966SOL    HW218673   0.487  12.388   1.337
38967SOL     OW18674  10.636   0.466   4.895
38967SOL    HW118675  10.703   0.501   4.955
38967SOL    HW218676  10.553   0.481   4.941
38968SOL     OW18677   2.599  10.484   2.971
38968SOL    HW118678   2.576  10.469   3.063
38968SOL    HW218679   2.635  10.400   2.941
38969SOL     OW18680  11.851   1.491   8.665
38969SOL    HW118681  11.813   1.519   8.748
38969SOL    HW218682  11.893   1.407   8.686
38970SOL     OW18683   2.727  13.852   6.469
38970SOL    HW118684   2.799  13.817   6.417
38970SOL    HW218685   2.651  13.847   6.411
38971SOL     OW18686  12.113   3.676   6.743
38971SOL    HW118687  12.138   3.638   6.827
38971SOL    HW218688  12.048   3.616   6.707
38972SOL     OW18689   6.582  12.866  10.217
38972SOL    HW118690   6.541  12.922  10.282
38972SOL    HW218691   6.647  12.815  10.266
38973SOL     OW18692  14.364  11.785   3.532
38973SOL    HW118693  14.270  11.776   3.547
38973SOL    HW218694  14.395  11.695   3.522
38974SOL     OW18695  10.902   9.851   5.230
38974SOL    HW118696  10.825   9.810   5.192
38974SOL    HW218697  10.872   9.883   5.315
38975SOL     OW18698   2.100   4.924   4.820
38975SOL    HW118699   2.167   4.907   4.886
38975SOL    HW218700   2.017   4.915   4.867
38976SOL     OW18701  11.182   8.436   7.079
38976SOL    HW118702  11.182   8.356   7.130
38976SOL    HW218703  11.246   8.493   7.122
38977SOL     OW18704   4.006   1.525   2.731
38977SOL    HW118705   3.979   1.594   2.671
38977SOL    HW218706   3.977   1.444   2.689
38978SOL     OW18707   7.877  14.712   8.126
38978SOL    HW118708   7.915  14.798   8.112
38978SOL    HW218709   7.865  14.676   8.038
38979SOL     OW18710   6.372  14.116   9.101
38979SOL    HW118711   6.432  14.173   9.054
38979SOL    HW218712   6.397  14.125   9.193
38980SOL     OW18713   3.694   5.821   3.058
38980SOL    HW118714   3.626   5.879   3.093
38980SOL    HW218715   3.721   5.861   2.976
38981SOL     OW18716   6.931   5.118   4.382
38981SOL    HW118717   6.902   5.143   4.295
38981SOL    HW218718   7.021   5.088   4.370
38982SOL     OW18719  13.721   0.892   5.613
38982SOL    HW118720  13.698   0.908   5.522
38982SOL    HW218721  13.799   0.837   5.609
38983SOL     OW18722   4.839  13.055   0.450
38983SOL    HW118723   4.816  12.963   0.453
38983SOL    HW218724   4.902  13.067   0.521
38984SOL     OW18725   8.384   7.235   4.610
38984SOL    HW118726   8.327   7.312   4.612
38984SOL    HW218727   8.462   7.263   4.563
38985SOL     OW18728  14.432   5.530   1.044
38985SOL    HW118729  14.483   5.547   1.123
38985SOL    HW218730  14.347   5.501   1.076
38986SOL     OW18731  12.019  14.318   8.389
38986SOL    HW118732  11.973  14.345   8.310
38986SOL    HW218733  12.076  14.392   8.411
38987SOL     OW18734   4.681   9.335   5.533
38987SOL    HW118735   4.697   9.348   5.440
38987SOL    HW218736   4.594   9.295   5.537
38988SOL     OW18737   6.520  10.361  10.175
38988SOL    HW118738   6.545  10.439  10.126
38988SOL    HW218739   6.601  10.310  10.181
38989SOL     OW18740   4.423   2.987  11.651
38989SOL    HW118741   4.346   3.035  11.682
38989SOL    HW218742   4.409   2.980  11.556
38990SOL     OW18743   6.687   0.441  13.804
38990SOL    HW118744   6.752   0.383  13.766
38990SOL    HW218745   6.612   0.436  13.745
38991SOL     OW18746  10.103   5.446  12.270
38991SOL    HW118747  10.170   5.471  12.333
38991SOL    HW218748  10.113   5.511  12.199
38992SOL     OW18749   3.024   1.530   3.186
38992SOL    HW118750   3.012   1.602   3.123
38992SOL    HW218751   3.108   1.490   3.161
38993SOL     OW18752  13.730   4.924   6.643
38993SOL    HW118753  13.727   4.880   6.728
38993SOL    HW218754  13.793   4.995   6.655
38994SOL     OW18755   7.662   6.653   1.796
38994SOL    HW118756   7.595   6.617   1.855
38994SOL    HW218757   7.618   6.723   1.749
38995SOL     OW18758   2.606   5.450   2.023
38995SOL    HW118759   2.671   5.518   2.041
38995SOL    HW218760   2.542   5.457   2.094
38996SOL     OW18761  11.508  14.449   6.003
38996SOL    HW118762  11.542  14.535   5.979
38996SOL    HW218763  11.427  14.441   5.952
38997SOL     OW18764  14.299   5.863  12.501
38997SOL    HW118765  14.225   5.814  12.464
38997SOL    HW218766  14.284   5.954  12.473
38998SOL     OW18767   7.169   6.730  12.814
38998SOL    HW118768   7.104   6.787  12.771
38998SOL    HW218769   7.152   6.741  12.907
38999SOL     OW18770   8.574  10.315   4.405
38999SOL    HW118771   8.644  10.370   4.370
38999SOL    HW218772   8.618  10.235   4.434
39000SOL     OW18773  10.678  13.537   2.334
39000SOL    HW118774  10.714  13.497   2.412
39000SOL    HW218775  10.740  13.517   2.265
39001SOL     OW18776   2.382  13.246   6.579
39001SOL    HW118777   2.390  13.209   6.491
39001SOL    HW218778   2.323  13.185   6.625
39002SOL     OW18779   7.707  12.502   6.922
39002SOL    HW118780   7.634  12.444   6.899
39002SOL    HW218781   7.687  12.531   7.011
39003SOL     OW18782  10.257   8.348   1.802
39003SOL    HW118783  10.266   8.253   1.801
39003SOL    HW218784  10.325   8.378   1.863
39004SOL     OW18785   9.141   5.622  10.792
39004SOL    HW118786   9.062   5.660  10.830
39004SOL    HW218787   9.111   5.540  10.752
39005SOL     OW18788   8.168   1.689  12.672
39005SOL    HW118789   8.079   1.659  12.652
39005SOL    HW218790   8.182   1.762  12.611
39006SOL     OW18791  10.121   0.451   0.920
39006SOL    HW118792  10.092   0.411   1.001
39006SOL    HW218793  10.040   0.478   0.876
39007SOL     OW18794  13.445   8.542   8.741
39007SOL    HW118795  13.539   8.554   8.729
39007SOL    HW218796  13.438   8.461   8.792
39008SOL     OW18797   5.254  11.441  13.187
39008SOL    HW118798   5.240  11.357  13.143
39008SOL    HW218799   5.239  11.422  13.279
39009SOL     OW18800  12.553   5.905  11.703
39009SOL    HW118801  12.640   5.945  11.691
39009SOL    HW218802  12.560   5.820  11.658
39010SOL     OW18803   4.071   0.465   8.802
39010SOL    HW118804   4.066   0.385   8.853
39010SOL    HW218805   4.136   0.446   8.734
39011SOL     OW18806   3.661   4.986   9.882
39011SOL    HW118807   3.618   5.072   9.883
39011SOL    HW218808   3.696   4.978   9.793
39012SOL     OW18809   5.113   0.151   3.942
39012SOL    HW118810   5.162   0.077   3.978
39012SOL    HW218811   5.130   0.223   4.004
39013SOL     OW18812   0.491  13.817   8.519
39013SOL    HW118813   0.467  13.886   8.457
39013SOL    HW218814   0.423  13.750   8.508
39014SOL     OW18815  14.285   1.616   9.369
39014SOL    HW118816  14.196   1.590   9.395
39014SOL    HW218817  14.325   1.647   9.450
39015SOL     OW18818  11.277   4.391   7.022
39015SOL    HW118819  11.348   4.337   7.055
39015SOL    HW218820  11.301   4.480   7.047
39016SOL     OW18821  11.093   1.456   3.305
39016SOL    HW118822  11.084   1.502   3.388
39016SOL    HW218823  11.125   1.369   3.329
39017SOL     OW18824   8.380  10.087   5.583
39017SOL    HW118825   8.406  10.138   5.659
39017SOL    HW218826   8.290  10.059   5.603
39018SOL     OW18827   9.357   0.875   5.783
39018SOL    HW118828   9.268   0.912   5.783
39018SOL    HW218829   9.390   0.893   5.695
39019SOL     OW18830   2.157   3.984   2.302
39019SOL    HW118831   2.165   3.895   2.268
39019SOL    HW218832   2.188   4.040   2.231
39020SOL     OW18833  11.610   8.428   5.800
39020SOL    HW118834  11.598   8.448   5.893
39020SOL    HW218835  11.646   8.508   5.762
39021SOL     OW18836   6.615   9.066  12.508
39021SOL    HW118837   6.607   9.153  12.547
39021SOL    HW218838   6.626   9.006  12.582
39022SOL     OW18839   6.344   7.645  12.404
39022SOL    HW118840   6.358   7.711  12.337
39022SOL    HW218841   6.281   7.685  12.464
39023SOL     OW18842   8.355   3.639   3.423
39023SOL    HW118843   8.389   3.553   3.451
39023SOL    HW218844   8.276   3.618   3.373
39024SOL     OW18845   0.502  14.874   4.664
39024SOL    HW118846   0.488  14.784   4.694
39024SOL    HW218847   0.507   0.045   4.744
39025SOL     OW18848   8.555   5.540   1.094
39025SOL    HW118849   8.619   5.597   1.136
39025SOL    HW218850   8.497   5.513   1.166
39026SOL     OW18851  11.858   1.222   9.864
39026SOL    HW118852  11.948   1.244   9.886
39026SOL    HW218853  11.833   1.155   9.928
39027SOL     OW18854   7.167   4.766  10.576
39027SOL    HW118855   7.118   4.787  10.656
39027SOL    HW218856   7.259   4.765  10.605
39028SOL     OW18857  10.495   2.192   9.896
39028SOL    HW118858  10.521   2.229   9.981
39028SOL    HW218859  10.525   2.102   9.900
39029SOL     OW18860   9.943  12.552  12.180
39029SOL    HW118861   9.868  12.493  12.171
39029SOL    HW218862  10.019  12.495  12.180
39030SOL     OW18863   3.031   8.149   2.231
39030SOL    HW118864   3.077   8.231   2.214
39030SOL    HW218865   3.089   8.100   2.289
39031SOL     OW18866   1.718   1.229   1.628
39031SOL    HW118867   1.745   1.197   1.714
39031SOL    HW218868   1.622   1.232   1.633
39032SOL     OW18869   6.229  13.552  13.499
39032SOL    HW118870   6.134  13.561  13.497
39032SOL    HW218871   6.245  13.475  13.554
39033SOL     OW18872   9.667  12.662  11.003
39033SOL    HW118873   9.616  12.683  11.081
39033SOL    HW218874   9.672  12.744  10.954
39034SOL     OW18875  14.614  14.534  13.001
39034SOL    HW118876  14.630  14.555  12.909
39034SOL    HW218877  14.638  14.613  13.049
39035SOL     OW18878  10.071   4.046   8.261
39035SOL    HW118879  10.109   4.059   8.174
39035SOL    HW218880  10.138   3.999   8.310
39036SOL     OW18881   6.205   3.950   2.470
39036SOL    HW118882   6.167   4.027   2.510
39036SOL    HW218883   6.156   3.937   2.389
39037SOL     OW18884  12.483   3.795   1.556
39037SOL    HW118885  12.517   3.707   1.575
39037SOL    HW218886  12.537   3.827   1.484
39038SOL     OW18887   5.436   2.571  11.044
39038SOL    HW118888   5.442   2.617  10.960
39038SOL    HW218889   5.355   2.520  11.038
39039SOL     OW18890   3.280   8.947   7.089
39039SOL    HW118891   3.347   8.949   7.157
39039SOL    HW218892   3.275   8.855   7.063
39040SOL     OW18893  14.040   0.755   2.131
39040SOL    HW118894  14.107   0.693   2.159
39040SOL    HW218895  13.989   0.708   2.065
39041SOL     OW18896   8.270   7.643   2.911
39041SOL    HW118897   8.296   7.551   2.904
39041SOL    HW218898   8.195   7.651   2.852
39042SOL     OW18899   6.164   1.673  12.072
39042SOL    HW118900   6.090   1.714  12.118
39042SOL    HW218901   6.211   1.626  12.141
39043SOL     OW18902   7.810  10.157   8.954
39043SOL    HW118903   7.720  10.162   8.923
39043SOL    HW218904   7.861  10.206   8.889
39044SOL     OW18905   8.785   7.612   7.625
39044SOL    HW118906   8.716   7.559   7.665
39044SOL    HW218907   8.775   7.598   7.531
39045SOL     OW18908   2.162   1.352  10.733
39045SOL    HW118909   2.121   1.435  10.758
39045SOL    HW218910   2.092   1.287  10.742
39046SOL     OW18911   7.971   3.628   1.206
39046SOL    HW118912   7.973   3.671   1.292
39046SOL    HW218913   7.878   3.618   1.187
39047SOL     OW18914   9.286   3.327   4.695
39047SOL    HW118915   9.307   3.246   4.649
39047SOL    HW218916   9.193   3.321   4.715
39048SOL     OW18917   4.391   0.301   8.053
39048SOL    HW118918   4.375   0.329   8.143
39048SOL    HW218919   4.312   0.327   8.005
39049SOL     OW18920  14.193   7.960   1.144
39049SOL    HW118921  14.129   7.951   1.074
39049SOL    HW218922  14.234   8.045   1.129
39050SOL     OW18923   1.803   9.763  12.305
39050SOL    HW118924   1.853   9.688  12.339
39050SOL    HW218925   1.787   9.817  12.382
39051SOL     OW18926  12.588   1.114  11.299
39051SOL    HW118927  12.662   1.174  11.304
39051SOL    HW218928  12.561   1.101  11.390
39052SOL     OW18929   5.081   3.790   7.087
39052SOL    HW118930   5.099   3.728   7.016
39052SOL    HW218931   5.140   3.864   7.069
39053SOL     OW18932  12.924   5.440   4.412
39053SOL    HW118933  12.874   5.361   4.430
39053SOL    HW218934  12.871   5.511   4.448
39054SOL     OW18935  12.641  12.951   0.705
39054SOL    HW118936  12.716  12.996   0.743
39054SOL    HW218937  12.569  13.014   0.711
39055SOL     OW18938   3.002   2.181   6.445
39055SOL    HW118939   3.083   2.230   6.441
39055SOL    HW218940   3.029   2.089   6.438
39056SOL     OW18941  13.294  14.495  11.465
39056SOL    HW118942  13.224  14.511  11.402
39056SOL    HW218943  13.259  14.428  11.523
39057SOL     OW18944   9.286  10.193   0.186
39057SOL    HW118945   9.246  10.280   0.186
39057SOL    HW218946   9.378  10.208   0.167
39058SOL     OW18947   0.375   8.552   1.483
39058SOL    HW118948   0.285   8.583   1.482
39058SOL    HW218949   0.383   8.504   1.566
39059SOL     OW18950  14.270  14.189   2.718
39059SOL    HW118951  14.352  14.179   2.766
39059SOL    HW218952  14.202  14.161   2.780
39060SOL     OW18953  12.327   8.119   7.984
39060SOL    HW118954  12.376   8.092   7.907
39060SOL    HW218955  12.235   8.105   7.960
39061SOL     OW18956  10.842  11.307  12.068
39061SOL    HW118957  10.853  11.402  12.062
39061SOL    HW218958  10.871  11.285  12.157
39062SOL     OW18959   0.068  13.874   8.569
39062SOL    HW118960   0.012  13.797   8.573
39062SOL    HW218961   0.111  13.868   8.484
39063SOL     OW18962   0.198   7.581   2.412
39063SOL    HW118963   0.254   7.504   2.415
39063SOL    HW218964   0.257   7.653   2.389
39064SOL     OW18965   1.212  11.921   8.882
39064SOL    HW118966   1.196  11.827   8.886
39064SOL    HW218967   1.296  11.933   8.927
39065SOL     OW18968   1.821   5.295  13.199
39065SOL    HW118969   1.736   5.305  13.241
39065SOL    HW218970   1.863   5.380  13.208
39066SOL     OW18971   9.706   9.387  12.883
39066SOL    HW118972   9.745   9.303  12.910
39066SOL    HW218973   9.634   9.362  12.825
39067SOL     OW18974   6.818  13.854  12.356
39067SOL    HW118975   6.844  13.775  12.310
39067SOL    HW218976   6.724  13.863  12.337
39068SOL     OW18977   3.698  13.632   9.542
39068SOL    HW118978   3.743  13.549   9.530
39068SOL    HW218979   3.718  13.658   9.632
39069SOL     OW18980  12.148  13.962   6.382
39069SOL    HW118981  12.118  13.906   6.454
39069SOL    HW218982  12.206  13.906   6.330
39070SOL     OW18983   5.085   2.494   9.201
39070SOL    HW118984   5.101   2.529   9.288
39070SOL    HW218985   5.033   2.561   9.157
39071SOL     OW18986   4.460   2.013  14.397
39071SOL    HW118987   4.371   1.983  14.413
39071SOL    HW218988   4.453   2.109  14.397
39072SOL     OW18989   6.458   9.809   8.001
39072SOL    HW118990   6.447   9.823   8.095
39072SOL    HW218991   6.377   9.841   7.962
39073SOL     OW18992   4.256  12.091   5.999
39073SOL    HW118993   4.263  12.001   6.032
39073SOL    HW218994   4.204  12.137   6.065
39074SOL     OW18995   2.570  11.472   5.645
39074SOL    HW118996   2.476  11.457   5.654
39074SOL    HW218997   2.577  11.554   5.596
39075SOL     OW18998   4.039   7.435  12.552
39075SOL    HW118999   4.037   7.344  12.580
39075SOL    HW219000   4.043   7.430  12.456
39076SOL     OW19001   3.037   1.256  12.046
39076SOL    HW119002   3.056   1.346  12.071
39076SOL    HW219003   2.942   1.250  12.046
39077SOL     OW19004   5.862  13.474   4.439
39077SOL    HW119005   5.947  13.442   4.470
39077SOL    HW219006   5.799  13.441   4.502
39078SOL     OW19007  12.095   3.294   2.323
39078SOL    HW119008  12.124   3.204   2.342
39078SOL    HW219009  12.112   3.305   2.230
39079SOL     OW19010   1.523  11.081   5.598
39079SOL    HW119011   1.614  11.098   5.574
39079SOL    HW219012   1.522  11.086   5.693
39080SOL     OW19013   3.663  10.431   4.454
39080SOL    HW119014   3.749  10.419   4.414
39080SOL    HW219015   3.603  10.379   4.400
39081SOL     OW19016  11.550   0.926   3.973
39081SOL    HW119017  11.472   0.907   4.025
39081SOL    HW219018  11.544   1.020   3.953
39082SOL     OW19019  10.802  10.526   1.556
39082SOL    HW119020  10.811  10.501   1.464
39082SOL    HW219021  10.856  10.605   1.565
39083SOL     OW19022   4.563   7.572  13.912
39083SOL    HW119023   4.566   7.645  13.973
39083SOL    HW219024   4.572   7.494  13.968
39084SOL     OW19025  13.121   3.429   1.078
39084SOL    HW119026  13.189   3.445   1.143
39084SOL    HW219027  13.075   3.513   1.070
39085SOL     OW19028  12.137   8.998   8.687
39085SOL    HW119029  12.152   8.937   8.614
39085SOL    HW219030  12.052   8.972   8.723
39086SOL     OW19031   5.876   1.467   1.834
39086SOL    HW119032   5.804   1.438   1.777
39086SOL    HW219033   5.842   1.545   1.877
39087SOL     OW19034   4.051   6.833   8.846
39087SOL    HW119035   4.031   6.776   8.771
39087SOL    HW219036   4.066   6.919   8.807
39088SOL     OW19037   3.530   9.894   4.128
39088SOL    HW119038   3.624   9.893   4.148
39088SOL    HW219039   3.499   9.808   4.158
39089SOL     OW19040   5.556   0.437  13.828
39089SOL    HW119041   5.488   0.374  13.849
39089SOL    HW219042   5.631   0.411  13.882
39090SOL     OW19043  11.259   4.847   4.683
39090SOL    HW119044  11.261   4.752   4.698
39090SOL    HW219045  11.260   4.857   4.588
39091SOL     OW19046   5.007   7.943  12.807
39091SOL    HW119047   4.929   7.891  12.827
39091SOL    HW219048   4.995   7.970  12.716
39092SOL     OW19049   0.234   5.354  11.959
39092SOL    HW119050   0.257   5.422  12.023
39092SOL    HW219051   0.153   5.315  11.993
39093SOL     OW19052   0.371  13.368   8.606
39093SOL    HW119053   0.373  13.311   8.529
39093SOL    HW219054   0.367  13.457   8.570
39094SOL     OW19055   4.740   9.587   0.975
39094SOL    HW119056   4.748   9.652   0.905
39094SOL    HW219057   4.760   9.635   1.055
39095SOL     OW19058   2.698   6.327   9.605
39095SOL    HW119059   2.734   6.247   9.566
39095SOL    HW219060   2.614   6.300   9.642
39096SOL     OW19061   9.979   6.428   4.703
39096SOL    HW119062   9.928   6.506   4.680
39096SOL    HW219063   9.980   6.429   4.799
39097SOL     OW19064  11.684  14.668  12.177
39097SOL    HW119065  11.713  14.752  12.213
39097SOL    HW219066  11.694  14.678  12.082
39098SOL     OW19067  14.204   0.101   6.503
39098SOL    HW119068  14.276   0.045   6.475
39098SOL    HW219069  14.214   0.181   6.451
39099SOL     OW19070   2.636   9.017  14.269
39099SOL    HW119071   2.656   8.929  14.300
39099SOL    HW219072   2.646   9.012  14.174
39100SOL     OW19073   7.476   7.033   9.072
39100SOL    HW119074   7.528   7.012   9.149
39100SOL    HW219075   7.538   7.070   9.010
39101SOL     OW19076   9.654   2.023  10.056
39101SOL    HW119077   9.580   1.993  10.003
39101SOL    HW219078   9.664   2.116  10.033
39102SOL     OW19079   7.964   3.383  11.754
39102SOL    HW119080   8.002   3.301  11.788
39102SOL    HW219081   7.958   3.440  11.831
39103SOL     OW19082   6.576  10.165  13.022
39103SOL    HW119083   6.533  10.250  13.022
39103SOL    HW219084   6.603  10.152  12.932
39104SOL     OW19085   6.411  10.169   6.459
39104SOL    HW119086   6.477  10.149   6.391
39104SOL    HW219087   6.333  10.122   6.431
39105SOL     OW19088   3.940   1.545   3.522
39105SOL    HW119089   3.993   1.567   3.445
39105SOL    HW219090   3.864   1.603   3.517
39106SOL     OW19091   8.483   3.556   6.039
39106SOL    HW119092   8.427   3.622   6.079
39106SOL    HW219093   8.514   3.596   5.958
39107SOL     OW19094  12.519   8.171  14.646
39107SOL    HW119095  12.502   8.085  14.608
39107SOL    HW219096  12.451   8.228  14.610
39108SOL     OW19097  14.647   9.475   3.268
39108SOL    HW119098  14.555   9.453   3.282
39108SOL    HW219099  14.675   9.418   3.197
39109SOL     OW19100   9.378   7.966   3.711
39109SOL    HW119101   9.319   8.034   3.676
39109SOL    HW219102   9.366   7.891   3.653
39110SOL     OW19103   0.369   3.599  10.857
39110SOL    HW119104   0.388   3.556  10.941
39110SOL    HW219105   0.427   3.675  10.856
39111SOL     OW19106   7.844  10.259   7.992
39111SOL    HW119107   7.837  10.326   8.059
39111SOL    HW219108   7.817  10.178   8.036
39112SOL     OW19109  13.994  12.230  12.756
39112SOL    HW119110  14.002  12.324  12.744
39112SOL    HW219111  13.987  12.194  12.668
39113SOL     OW19112   3.865   4.955   1.671
39113SOL    HW119113   3.908   4.874   1.643
39113SOL    HW219114   3.834   4.995   1.590
39114SOL     OW19115   0.012  10.677   1.715
39114SOL    HW119116  14.847  10.740   1.659
39114SOL    HW219117   0.019  10.598   1.661
39115SOL     OW19118  10.088   1.624  13.176
39115SOL    HW119119  10.033   1.669  13.241
39115SOL    HW219120  10.170   1.672  13.178
39116SOL     OW19121  12.448  11.079  12.232
39116SOL    HW119122  12.362  11.078  12.276
39116SOL    HW219123  12.449  11.163  12.186
39117SOL     OW19124   3.099   3.482  11.503
39117SOL    HW119125   3.008   3.495  11.476
39117SOL    HW219126   3.093   3.431  11.583
39118SOL     OW19127  12.875   2.596   3.448
39118SOL    HW119128  12.806   2.655   3.475
39118SOL    HW219129  12.831   2.529   3.396
39119SOL     OW19130   5.131   5.372  12.709
39119SOL    HW119131   5.218   5.360  12.669
39119SOL    HW219132   5.131   5.463  12.738
39120SOL     OW19133   5.644   5.093   3.861
39120SOL    HW119134   5.611   5.110   3.773
39120SOL    HW219135   5.588   5.145   3.918
39121SOL     OW19136  13.969   2.027  10.703
39121SOL    HW119137  13.999   2.056  10.617
39121SOL    HW219138  13.992   2.099  10.762
39122SOL     OW19139   8.801   2.083   3.291
39122SOL    HW119140   8.745   2.077   3.368
39122SOL    HW219141   8.751   2.134   3.227
39123SOL     OW19142   0.808   8.519  13.938
39123SOL    HW119143   0.839   8.553  13.854
39123SOL    HW219144   0.884   8.527  13.996
39124SOL     OW19145  14.515   6.623   4.804
39124SOL    HW119146  14.444   6.560   4.815
39124SOL    HW219147  14.475   6.697   4.759
39125SOL     OW19148   4.463  14.160  14.292
39125SOL    HW119149   4.427  14.098  14.356
39125SOL    HW219150   4.452  14.116  14.208
39126SOL     OW19151   3.389   2.176   2.414
39126SOL    HW119152   3.453   2.118   2.373
39126SOL    HW219153   3.360   2.234   2.343
39127SOL     OW19154  14.658  14.861  13.777
39127SOL    HW119155  14.587  14.827  13.832
39127SOL    HW219156  14.737  14.847  13.828
39128SOL     OW19157  10.030  10.669   6.981
39128SOL    HW119158  10.089  10.665   6.906
39128SOL    HW219159   9.955  10.615   6.956
39129SOL     OW19160   5.208   8.290  12.378
39129SOL    HW119161   5.293   8.268  12.338
39129SOL    HW219162   5.202   8.385  12.370
39130SOL     OW19163   1.290   0.098  12.843
39130SOL    HW119164   1.208   0.123  12.886
39130SOL    HW219165   1.264   0.079  12.753
39131SOL     OW19166   4.687   6.469   5.090
39131SOL    HW119167   4.641   6.423   5.019
39131SOL    HW219168   4.761   6.412   5.111
39132SOL     OW19169   5.295  13.630  14.156
39132SOL    HW119170   5.366  13.618  14.093
39132SOL    HW219171   5.287  13.545  14.199
39133SOL     OW19172   8.953  11.646  13.428
39133SOL    HW119173   8.949  11.678  13.338
39133SOL    HW219174   9.035  11.682  13.462
39134SOL     OW19175  11.245  10.048   3.457
39134SOL    HW119176  11.177  10.023   3.394
39134SOL    HW219177  11.297  10.114   3.410
39135SOL     OW19178  14.530   2.211  12.229
39135SOL    HW119179  14.573   2.171  12.153
39135SOL    HW219180  14.594   2.275  12.261
39136SOL     OW19181   4.197  13.782   4.691
39136SOL    HW119182   4.140  13.745   4.759
39136SOL    HW219183   4.236  13.706   4.648
39137SOL     OW19184  10.534   0.767   9.269
39137SOL    HW119185  10.504   0.820   9.195
39137SOL    HW219186  10.627   0.785   9.275
39138SOL     OW19187  12.845   4.446  13.752
39138SOL    HW119188  12.789   4.427  13.678
39138SOL    HW219189  12.833   4.371  13.811
39139SOL     OW19190   7.542  10.177  12.107
39139SOL    HW119191   7.569  10.162  12.198
39139SOL    HW219192   7.602  10.122  12.055
39140SOL     OW19193  12.289   7.996   4.107
39140SOL    HW119194  12.218   8.012   4.044
39140SOL    HW219195  12.271   8.055   4.179
39141SOL     OW19196   9.066  14.764   6.521
39141SOL    HW119197   9.062  14.851   6.560
39141SOL    HW219198   9.006  14.711   6.573
39142SOL     OW19199  12.564  14.733  12.143
39142SOL    HW119200  12.541  14.824  12.125
39142SOL    HW219201  12.515  14.712  12.223
39143SOL     OW19202   0.168   7.379  11.386
39143SOL    HW119203   0.114   7.449  11.422
39143SOL    HW219204   0.160   7.307  11.448
39144SOL     OW19205   5.516   6.934   5.915
39144SOL    HW119206   5.610   6.937   5.901
39144SOL    HW219207   5.481   6.898   5.834
39145SOL     OW19208  14.092   3.350   2.875
39145SOL    HW119209  14.022   3.403   2.913
39145SOL    HW219210  14.054   3.311   2.797
39146SOL     OW19211  10.566  12.374   0.198
39146SOL    HW119212  10.603  12.441   0.254
39146SOL    HW219213  10.499  12.331   0.252
39147SOL     OW19214  10.539  12.511   9.135
39147SOL    HW119215  10.457  12.482   9.096
39147SOL    HW219216  10.548  12.458   9.215
39148SOL     OW19217  12.104   1.856  14.738
39148SOL    HW119218  12.038   1.862  14.807
39148SOL    HW219219  12.087   1.932  14.682
39149SOL     OW19220   2.062  11.468   2.363
39149SOL    HW119221   2.048  11.375   2.348
39149SOL    HW219222   2.056  11.479   2.458
39150SOL     OW19223   0.792   1.094   6.849
39150SOL    HW119224   0.835   1.172   6.814
39150SOL    HW219225   0.705   1.124   6.876
39151SOL     OW19226   8.581   8.043  14.104
39151SOL    HW119227   8.567   8.132  14.073
39151SOL    HW219228   8.539   7.988  14.038
39152SOL     OW19229  11.521  10.580   9.584
39152SOL    HW119230  11.468  10.631   9.644
39152SOL    HW219231  11.557  10.510   9.637
39153SOL     OW19232   9.798   7.784  11.925
39153SOL    HW119233   9.715   7.761  11.967
39153SOL    HW219234   9.831   7.702  11.889
39154SOL     OW19235   7.375  11.405  11.739
39154SOL    HW119236   7.391  11.346  11.666
39154SOL    HW219237   7.328  11.479  11.701
39155SOL     OW19238   6.051   0.464  10.956
39155SOL    HW119239   5.977   0.421  10.998
39155SOL    HW219240   6.021   0.483  10.867
39156SOL     OW19241   1.996   8.437   2.856
39156SOL    HW119242   2.060   8.368   2.872
39156SOL    HW219243   2.037   8.491   2.788
39157SOL     OW19244  10.006  11.569   8.229
39157SOL    HW119245  10.101  11.580   8.234
39157SOL    HW219246   9.974  11.654   8.198
39158SOL     OW19247   2.036   4.026  12.550
39158SOL    HW119248   2.005   3.977  12.626
39158SOL    HW219249   2.076   3.961  12.493
39159SOL     OW19250   2.691  12.634   6.323
39159SOL    HW119251   2.679  12.728   6.317
39159SOL    HW219252   2.658  12.611   6.410
39160SOL     OW19253   9.616   5.163   6.481
39160SOL    HW119254   9.599   5.244   6.530
39160SOL    HW219255   9.583   5.093   6.538
39161SOL     OW19256   1.360  13.872   5.618
39161SOL    HW119257   1.408  13.850   5.697
39161SOL    HW219258   1.329  13.961   5.632
39162SOL     OW19259   7.495   3.327  10.931
39162SOL    HW119260   7.584   3.307  10.901
39162SOL    HW219261   7.453   3.242  10.941
39163SOL     OW19262   0.133   0.236   3.610
39163SOL    HW119263   0.113   0.236   3.517
39163SOL    HW219264   0.228   0.223   3.615
39164SOL     OW19265  10.925  14.501   4.456
39164SOL    HW119266  10.908  14.471   4.545
39164SOL    HW219267  10.908  14.596   4.459
39165SOL     OW19268  14.673   3.412   4.975
39165SOL    HW119269  14.600   3.379   5.026
39165SOL    HW219270  14.694   3.341   4.914
39166SOL     OW19271   0.977  14.142   1.670
39166SOL    HW119272   1.005  14.060   1.631
39166SOL    HW219273   0.953  14.120   1.760
39167SOL     OW19274  12.377   9.430  13.480
39167SOL    HW119275  12.443   9.485  13.523
39167SOL    HW219276  12.309   9.492  13.453
39168SOL     OW19277  14.755   0.490  11.724
39168SOL    HW119278  14.758   0.428  11.797
39168SOL    HW219279  14.825   0.552  11.743
39169SOL     OW19280   8.430   0.782   6.263
39169SOL    HW119281   8.395   0.839   6.194
39169SOL    HW219282   8.521   0.766   6.237
39170SOL     OW19283   5.564   2.964   0.625
39170SOL    HW119284   5.599   3.050   0.649
39170SOL    HW219285   5.603   2.904   0.689
39171SOL     OW19286  11.830  12.686  10.208
39171SOL    HW119287  11.874  12.610  10.169
39171SOL    HW219288  11.775  12.720  10.138
39172SOL     OW19289   7.584  10.416  12.788
39172SOL    HW119290   7.517  10.484  12.779
39172SOL    HW219291   7.566  10.376  12.872
39173SOL     OW19292   9.684   4.869   1.933
39173SOL    HW119293   9.738   4.884   2.010
39173SOL    HW219294   9.636   4.788   1.953
39174SOL     OW19295   7.381   0.598   4.591
39174SOL    HW119296   7.460   0.642   4.622
39174SOL    HW219297   7.397   0.584   4.498
39175SOL     OW19298   2.302   3.450   3.439
39175SOL    HW119299   2.207   3.438   3.444
39175SOL    HW219300   2.323   3.507   3.512
39176SOL     OW19301   8.554   4.875  12.622
39176SOL    HW119302   8.601   4.951  12.587
39176SOL    HW219303   8.480   4.864  12.563
39177SOL     OW19304  14.357  14.470   2.264
39177SOL    HW119305  14.378  14.503   2.351
39177SOL    HW219306  14.351  14.548   2.209
39178SOL     OW19307   9.473   1.490   1.342
39178SOL    HW119308   9.563   1.488   1.308
39178SOL    HW219309   9.484   1.483   1.436
39179SOL     OW19310  14.764   8.861   4.994
39179SOL    HW119311  14.707   8.785   4.982
39179SOL    HW219312  14.853   8.824   4.996
39180SOL     OW19313   8.430   9.486   4.378
39180SOL    HW119314   8.450   9.503   4.470
39180SOL    HW219315   8.334   9.489   4.374
39181SOL     OW19316   7.633   6.154  13.878
39181SOL    HW119317   7.673   6.068  13.872
39181SOL    HW219318   7.618   6.180  13.788
39182SOL     OW19319   1.599  11.597  11.586
39182SOL    HW119320   1.575  11.689  11.571
39182SOL    HW219321   1.556  11.549  11.515
39183SOL     OW19322   8.046  11.601   2.155
39183SOL    HW119323   8.113  11.667   2.139
39183SOL    HW219324   7.963  11.645   2.137
39184SOL     OW19325   7.962   3.559   9.877
39184SOL    HW119326   7.904   3.624   9.836
39184SOL    HW219327   7.958   3.579   9.971
39185SOL     OW19328   6.595  13.443   2.619
39185SOL    HW119329   6.689  13.455   2.602
39185SOL    HW219330   6.557  13.530   2.604
39186SOL     OW19331   3.000  11.186  11.829
39186SOL    HW119332   3.093  11.205  11.831
39186SOL    HW219333   2.995  11.091  11.820
39187SOL     OW19334   0.236   2.970   0.405
39187SOL    HW119335   0.269   2.959   0.494
39187SOL    HW219336   0.306   2.937   0.348
39188SOL     OW19337   6.469   9.026   3.370
39188SOL    HW119338   6.437   8.946   3.411
39188SOL    HW219339   6.389   9.075   3.347
39189SOL     OW19340   5.463  14.240   1.074
39189SOL    HW119341   5.398  14.308   1.095
39189SOL    HW219342   5.519  14.236   1.152
39190SOL     OW19343   1.242   8.445   0.797
39190SOL    HW119344   1.196   8.487   0.870
39190SOL    HW219345   1.332   8.436   0.828
39191SOL     OW19346   0.553   3.512   7.641
39191SOL    HW119347   0.505   3.581   7.687
39191SOL    HW219348   0.632   3.499   7.694
39192SOL     OW19349   2.659  12.333   7.775
39192SOL    HW119350   2.575  12.297   7.801
39192SOL    HW219351   2.642  12.425   7.756
39193SOL     OW19352   7.446  14.427   0.601
39193SOL    HW119353   7.501  14.450   0.676
39193SOL    HW219354   7.418  14.510   0.565
39194SOL     OW19355   2.192  14.711  12.270
39194SOL    HW119356   2.274  14.748  12.238
39194SOL    HW219357   2.138  14.788  12.290
39195SOL     OW19358   2.832   1.429   9.457
39195SOL    HW119359   2.756   1.394   9.503
39195SOL    HW219360   2.796   1.483   9.387
39196SOL     OW19361   6.736  10.394   1.746
39196SOL    HW119362   6.702  10.451   1.677
39196SOL    HW219363   6.821  10.365   1.713
39197SOL     OW19364   2.728  14.106   4.822
39197SOL    HW119365   2.725  14.138   4.912
39197SOL    HW219366   2.636  14.096   4.796
39198SOL     OW19367   6.914   9.423  14.375
39198SOL    HW119368   6.979   9.467  14.429
39198SOL    HW219369   6.961   9.349  14.336
39199SOL     OW19370   7.468   7.946  10.317
39199SOL    HW119371   7.518   8.020  10.285
39199SOL    HW219372   7.520   7.911  10.390
39200SOL     OW19373  13.431   8.447   2.014
39200SOL    HW119374  13.455   8.537   2.033
39200SOL    HW219375  13.404   8.448   1.922
39201SOL     OW19376   1.444   5.078  10.823
39201SOL    HW119377   1.536   5.058  10.807
39201SOL    HW219378   1.436   5.085  10.918
39202SOL     OW19379   0.435   4.754  13.865
39202SOL    HW119380   0.395   4.668  13.847
39202SOL    HW219381   0.459   4.787  13.778
39203SOL     OW19382   2.139   6.527   7.578
39203SOL    HW119383   2.228   6.499   7.602
39203SOL    HW219384   2.151   6.576   7.496
39204SOL     OW19385   4.253  13.226  13.194
39204SOL    HW119386   4.193  13.297  13.214
39204SOL    HW219387   4.297  13.254  13.113
39205SOL     OW19388   9.451   2.749  12.882
39205SOL    HW119389   9.406   2.784  12.806
39205SOL    HW219390   9.444   2.817  12.949
39206SOL     OW19391   4.019  12.310  12.344
39206SOL    HW119392   3.946  12.249  12.345
39206SOL    HW219393   4.010  12.357  12.261
39207SOL     OW19394   0.720   2.860  10.816
39207SOL    HW119395   0.671   2.870  10.735
39207SOL    HW219396   0.790   2.798  10.794
39208SOL     OW19397   7.008   0.554   5.377
39208SOL    HW119398   7.089   0.553   5.325
39208SOL    HW219399   7.003   0.643   5.411
39209SOL     OW19400   5.529   6.767  10.984
39209SOL    HW119401   5.573   6.851  10.968
39209SOL    HW219402   5.537   6.719  10.902
39210SOL     OW19403   9.057   7.563   3.889
39210SOL    HW119404   9.126   7.622   3.860
39210SOL    HW219405   9.096   7.475   3.881
39211SOL     OW19406   6.432  10.682  14.170
39211SOL    HW119407   6.342  10.715  14.169
39211SOL    HW219408   6.479  10.738  14.108
39212SOL     OW19409   4.562  14.745  13.734
39212SOL    HW119410   4.563  14.757  13.639
39212SOL    HW219411   4.537  14.654  13.746
39213SOL     OW19412  13.944  12.581  10.009
39213SOL    HW119413  13.913  12.671   9.993
39213SOL    HW219414  14.009  12.566   9.940
39214SOL     OW19415   5.482   0.218   3.802
39214SOL    HW119416   5.405   0.163   3.794
39214SOL    HW219417   5.537   0.194   3.727
39215SOL     OW19418   0.217  11.163   4.669
39215SOL    HW119419   0.162  11.167   4.747
39215SOL    HW219420   0.300  11.126   4.700
39216SOL     OW19421   8.148  11.801  12.642
39216SOL    HW119422   8.165  11.883  12.687
39216SOL    HW219423   8.167  11.733  12.707
39217SOL     OW19424   3.914  10.295  14.653
39217SOL    HW119425   3.845  10.284  14.719
39217SOL    HW219426   3.922  10.209  14.612
39218SOL     OW19427  12.766   5.902   6.272
39218SOL    HW119428  12.715   5.825   6.248
39218SOL    HW219429  12.778   5.950   6.190
39219SOL     OW19430  13.884   6.755   4.726
39219SOL    HW119431  13.913   6.775   4.637
39219SOL    HW219432  13.840   6.670   4.719
39220SOL     OW19433   3.046   3.473   6.776
39220SOL    HW119434   2.954   3.499   6.765
39220SOL    HW219435   3.093   3.556   6.785
39221SOL     OW19436   7.954   2.420   4.910
39221SOL    HW119437   8.041   2.407   4.874
39221SOL    HW219438   7.960   2.503   4.958
39222SOL     OW19439  10.782   4.630  14.426
39222SOL    HW119440  10.724   4.556  14.443
39222SOL    HW219441  10.829   4.644  14.508
39223SOL     OW19442   4.938   4.258   6.753
39223SOL    HW119443   5.021   4.243   6.708
39223SOL    HW219444   4.882   4.184   6.727
39224SOL     OW19445   9.227   9.183   7.803
39224SOL    HW119446   9.173   9.107   7.826
39224SOL    HW219447   9.201   9.250   7.866
39225SOL     OW19448  10.253   5.549   2.081
39225SOL    HW119449  10.311   5.538   2.006
39225SOL    HW219450  10.311   5.548   2.157
39226SOL     OW19451   9.631  10.329   6.701
39226SOL    HW119452   9.717  10.313   6.740
39226SOL    HW219453   9.596  10.242   6.684
39227SOL     OW19454   8.960   7.718   2.921
39227SOL    HW119455   9.004   7.704   3.005
39227SOL    HW219456   9.031   7.720   2.857
39228SOL     OW19457  14.880  11.240   6.744
39228SOL    HW119458   0.017  11.201   6.830
39228SOL    HW219459   0.001  11.334   6.759
39229SOL     OW19460   6.646   3.372  11.930
39229SOL    HW119461   6.720   3.350  11.987
39229SOL    HW219462   6.593   3.292  11.928
39230SOL     OW19463   2.593  13.272   7.703
39230SOL    HW119464   2.646  13.193   7.690
39230SOL    HW219465   2.657  13.341   7.722
39231SOL     OW19466  10.642  10.879   0.285
39231SOL    HW119467  10.575  10.935   0.325
39231SOL    HW219468  10.663  10.922   0.202
39232SOL     OW19469   6.771  12.611   2.241
39232SOL    HW119470   6.856  12.651   2.263
39232SOL    HW219471   6.792  12.547   2.173
39233SOL     OW19472   9.356   8.803   0.956
39233SOL    HW119473   9.397   8.883   0.989
39233SOL    HW219474   9.426   8.758   0.908
39234SOL     OW19475   5.423   1.618   6.676
39234SOL    HW119476   5.356   1.550   6.679
39234SOL    HW219477   5.498   1.576   6.634
39235SOL     OW19478   4.638  12.445   2.460
39235SOL    HW119479   4.588  12.383   2.513
39235SOL    HW219480   4.726  12.407   2.455
39236SOL     OW19481   6.601   9.118   1.325
39236SOL    HW119482   6.549   9.134   1.404
39236SOL    HW219483   6.653   9.197   1.313
39237SOL     OW19484   2.177   3.933   3.886
39237SOL    HW119485   2.272   3.941   3.876
39237SOL    HW219486   2.147   3.897   3.803
39238SOL     OW19487   2.050   9.752   3.855
39238SOL    HW119488   2.056   9.819   3.787
39238SOL    HW219489   2.140   9.733   3.878
39239SOL     OW19490   4.779   1.671   5.736
39239SOL    HW119491   4.792   1.589   5.688
39239SOL    HW219492   4.693   1.702   5.706
39240SOL     OW19493  10.321  10.743  11.791
39240SOL    HW119494  10.255  10.813  11.791
39240SOL    HW219495  10.283  10.675  11.847
39241SOL     OW19496  11.074   7.828  10.803
39241SOL    HW119497  10.994   7.877  10.782
39241SOL    HW219498  11.042   7.744  10.835
39242SOL     OW19499   1.483   2.789   3.664
39242SOL    HW119500   1.540   2.732   3.716
39242SOL    HW219501   1.499   2.762   3.574
39243SOL     OW19502  12.442   3.570   5.050
39243SOL    HW119503  12.359   3.525   5.035
39243SOL    HW219504  12.471   3.539   5.136
39244SOL     OW19505  13.657   9.794  14.199
39244SOL    HW119506  13.711   9.834  14.268
39244SOL    HW219507  13.713   9.727  14.161
39245SOL     OW19508   9.947  13.554   4.713
39245SOL    HW119509   9.952  13.478   4.771
39245SOL    HW219510   9.998  13.528   4.636
39246SOL     OW19511   3.673  13.385   4.792
39246SOL    HW119512   3.664  13.424   4.705
39246SOL    HW219513   3.746  13.324   4.783
39247SOL     OW19514   1.115  14.770   7.708
39247SOL    HW119515   1.077  14.809   7.629
39247SOL    HW219516   1.053  14.791   7.777
39248SOL     OW19517   5.828  11.837   5.933
39248SOL    HW119518   5.879  11.770   5.888
39248SOL    HW219519   5.821  11.908   5.870
39249SOL     OW19520   6.968  11.306  11.471
39249SOL    HW119521   6.883  11.328  11.509
39249SOL    HW219522   7.027  11.297  11.546
39250SOL     OW19523   0.218   2.110   5.040
39250SOL    HW119524   0.180   2.169   4.975
39250SOL    HW219525   0.147   2.091   5.101
39251SOL     OW19526   6.073   4.926   0.510
39251SOL    HW119527   6.115   4.877   0.581
39251SOL    HW219528   6.052   4.860   0.444
39252SOL     OW19529   3.792   5.607   9.952
39252SOL    HW119530   3.882   5.576   9.942
39252SOL    HW219531   3.801   5.703   9.956
39253SOL     OW19532  11.164  10.692  13.138
39253SOL    HW119533  11.167  10.608  13.182
39253SOL    HW219534  11.179  10.672  13.046
39254SOL     OW19535   6.299  13.498   7.815
39254SOL    HW119536   6.326  13.453   7.895
39254SOL    HW219537   6.263  13.582   7.845
39255SOL     OW19538   3.681   6.418  11.246
39255SOL    HW119539   3.677   6.514  11.253
39255SOL    HW219540   3.763   6.400  11.201
39256SOL     OW19541  12.665   6.312  11.744
39256SOL    HW119542  12.571   6.327  11.747
39256SOL    HW219543  12.702   6.395  11.714
39257SOL     OW19544  11.936   5.751   7.206
39257SOL    HW119545  11.979   5.748   7.121
39257SOL    HW219546  11.883   5.672   7.210
39258SOL     OW19547  10.672   0.538  13.513
39258SOL    HW119548  10.640   0.600  13.448
39258SOL    HW219549  10.733   0.482  13.466
39259SOL     OW19550   9.366   6.038   9.188
39259SOL    HW119551   9.441   5.987   9.217
39259SOL    HW219552   9.369   6.117   9.243
39260SOL     OW19553  12.358  10.423   8.933
39260SOL    HW119554  12.285  10.413   8.871
39260SOL    HW219555  12.316  10.446   9.016
39261SOL     OW19556   5.399   4.609   0.230
39261SOL    HW119557   5.421   4.521   0.197
39261SOL    HW219558   5.370   4.594   0.320
39262SOL     OW19559  10.971   9.516   2.416
39262SOL    HW119560  11.029   9.440   2.419
39262SOL    HW219561  10.908   9.501   2.486
39263SOL     OW19562   9.451   6.318   1.915
39263SOL    HW119563   9.480   6.300   2.005
39263SOL    HW219564   9.403   6.239   1.889
39264SOL     OW19565   9.904   4.282   3.454
39264SOL    HW119566   9.853   4.209   3.489
39264SOL    HW219567   9.864   4.360   3.491
39265SOL     OW19568  12.380  13.789   8.473
39265SOL    HW119569  12.318  13.719   8.454
39265SOL    HW219570  12.325  13.864   8.495
39266SOL     OW19571   8.702   0.957  13.532
39266SOL    HW119572   8.653   0.983  13.454
39266SOL    HW219573   8.771   1.023  13.540
39267SOL     OW19574  13.761  13.879   6.911
39267SOL    HW119575  13.822  13.827   6.963
39267SOL    HW219576  13.777  13.969   6.937
39268SOL     OW19577   6.780  11.809   5.394
39268SOL    HW119578   6.708  11.780   5.451
39268SOL    HW219579   6.740  11.820   5.308
39269SOL     OW19580   7.653   5.076   8.045
39269SOL    HW119581   7.711   5.010   8.082
39269SOL    HW219582   7.634   5.135   8.119
39270SOL     OW19583   7.909   2.156   8.142
39270SOL    HW119584   7.976   2.225   8.142
39270SOL    HW219585   7.888   2.145   8.049
39271SOL     OW19586   4.307   2.418  10.898
39271SOL    HW119587   4.304   2.437  10.992
39271SOL    HW219588   4.288   2.324  10.892
39272SOL     OW19589   6.883   2.635   6.035
39272SOL    HW119590   6.840   2.710   5.994
39272SOL    HW219591   6.857   2.560   5.982
39273SOL     OW19592   9.090  14.207  11.392
39273SOL    HW119593   9.167  14.150  11.394
39273SOL    HW219594   9.024  14.156  11.344
39274SOL     OW19595   8.185   3.626  11.444
39274SOL    HW119596   8.182   3.641  11.539
39274SOL    HW219597   8.148   3.538  11.432
39275SOL     OW19598   4.875   0.013   4.362
39275SOL    HW119599   4.866   0.002   4.267
39275SOL    HW219600   4.945   0.077   4.372
39276SOL     OW19601  10.783   5.442  12.268
39276SOL    HW119602  10.857   5.428  12.209
39276SOL    HW219603  10.815   5.413  12.354
39277SOL     OW19604   1.512  11.740   0.372
39277SOL    HW119605   1.452  11.717   0.302
39277SOL    HW219606   1.566  11.662   0.383
39278SOL     OW19607  11.057  10.082   5.206
39278SOL    HW119608  11.025  10.154   5.260
39278SOL    HW219609  10.983  10.021   5.200
39279SOL     OW19610   8.289   3.245  12.494
39279SOL    HW119611   8.279   3.303  12.570
39279SOL    HW219612   8.333   3.300  12.429
39280SOL     OW19613   7.156  12.594   5.872
39280SOL    HW119614   7.239  12.550   5.853
39280SOL    HW219615   7.089  12.534   5.837
39281SOL     OW19616   2.750   7.311  10.676
39281SOL    HW119617   2.696   7.240  10.712
39281SOL    HW219618   2.788   7.354  10.753
39282SOL     OW19619  10.182   4.132  14.735
39282SOL    HW119620  10.133   4.069  14.682
39282SOL    HW219621  10.117   4.170  14.794
39283SOL     OW19622   5.486   4.721  11.952
39283SOL    HW119623   5.436   4.802  11.956
39283SOL    HW219624   5.446   4.664  12.019
39284SOL     OW19625   2.515   5.285  11.897
39284SOL    HW119626   2.455   5.239  11.838
39284SOL    HW219627   2.501   5.244  11.982
39285SOL     OW19628  10.926   1.750   8.325
39285SOL    HW119629  11.006   1.747   8.378
39285SOL    HW219630  10.883   1.830   8.352
39286SOL     OW19631   4.014   3.883  10.218
39286SOL    HW119632   4.061   3.842  10.290
39286SOL    HW219633   4.028   3.977  10.231
39287SOL     OW19634  11.606   0.508   4.397
39287SOL    HW119635  11.660   0.536   4.471
39287SOL    HW219636  11.637   0.419   4.377
39288SOL     OW19637   5.286   4.720   6.417
39288SOL    HW119638   5.355   4.785   6.409
39288SOL    HW219639   5.223   4.743   6.348
39289SOL     OW19640   4.531   1.155  13.656
39289SOL    HW119641   4.545   1.116  13.742
39289SOL    HW219642   4.501   1.244  13.673
39290SOL     OW19643   9.852   3.253  12.833
39290SOL    HW119644   9.930   3.308  12.833
39290SOL    HW219645   9.861   3.198  12.911
39291SOL     OW19646   4.608   4.725   4.591
39291SOL    HW119647   4.568   4.737   4.677
39291SOL    HW219648   4.673   4.656   4.604
39292SOL     OW19649  14.098   2.451   3.669
39292SOL    HW119650  14.146   2.477   3.747
39292SOL    HW219651  14.135   2.505   3.599
39293SOL     OW19652   0.641   0.671   5.101
39293SOL    HW119653   0.609   0.734   5.167
39293SOL    HW219654   0.706   0.619   5.148
39294SOL     OW19655   3.060  12.529   6.243
39294SOL    HW119656   3.002  12.572   6.305
39294SOL    HW219657   3.045  12.436   6.256
39295SOL     OW19658   7.298   5.925   4.318
39295SOL    HW119659   7.319   6.006   4.272
39295SOL    HW219660   7.263   5.953   4.402
39296SOL     OW19661  10.397   3.319   7.251
39296SOL    HW119662  10.419   3.384   7.318
39296SOL    HW219663  10.420   3.362   7.169
39297SOL     OW19664  14.037   0.094   6.719
39297SOL    HW119665  14.076   0.023   6.770
39297SOL    HW219666  14.088   0.097   6.638
39298SOL     OW19667  11.023  10.874   4.445
39298SOL    HW119668  11.110  10.913   4.442
39298SOL    HW219669  11.031  10.795   4.391
39299SOL     OW19670  10.290   5.472   8.440
39299SOL    HW119671  10.205   5.518   8.436
39299SOL    HW219672  10.315   5.477   8.532
39300SOL     OW19673   1.656   0.539   0.348
39300SOL    HW119674   1.729   0.478   0.346
39300SOL    HW219675   1.681   0.604   0.414
39301SOL     OW19676   6.168   6.618   1.948
39301SOL    HW119677   6.092   6.673   1.968
39301SOL    HW219678   6.189   6.574   2.030
39302SOL     OW19679  12.012   9.996  11.612
39302SOL    HW119680  12.012  10.057  11.538
39302SOL    HW219681  12.099  10.005  11.650
39303SOL     OW19682   0.634   7.798   5.761
39303SOL    HW119683   0.588   7.798   5.677
39303SOL    HW219684   0.727   7.792   5.738
39304SOL     OW19685   6.669   9.685   4.808
39304SOL    HW119686   6.746   9.731   4.773
39304SOL    HW219687   6.626   9.749   4.864
39305SOL     OW19688  12.155  11.925   7.134
39305SOL    HW119689  12.147  11.887   7.222
39305SOL    HW219690  12.099  11.870   7.079
39306SOL     OW19691  11.334   9.291  14.370
39306SOL    HW119692  11.251   9.327  14.399
39306SOL    HW219693  11.395   9.307  14.443
39307SOL     OW19694   3.107   3.647   8.342
39307SOL    HW119695   3.073   3.727   8.302
39307SOL    HW219696   3.030   3.591   8.352
39308SOL     OW19697  12.557   8.685   2.559
39308SOL    HW119698  12.517   8.657   2.477
39308SOL    HW219699  12.550   8.609   2.616
39309SOL     OW19700   5.540  11.492   7.334
39309SOL    HW119701   5.458  11.481   7.288
39309SOL    HW219702   5.595  11.420   7.304
39310SOL     OW19703  12.976   1.106   5.997
39310SOL    HW119704  13.016   1.189   6.024
39310SOL    HW219705  12.892   1.132   5.958
39311SOL     OW19706   2.851  10.557  13.778
39311SOL    HW119707   2.849  10.477  13.726
39311SOL    HW219708   2.815  10.625  13.721
39312SOL     OW19709  10.762   9.399   4.618
39312SOL    HW119710  10.716   9.355   4.546
39312SOL    HW219711  10.738   9.491   4.609
39313SOL     OW19712   5.052   4.829   0.463
39313SOL    HW119713   5.009   4.875   0.390
39313SOL    HW219714   5.129   4.881   0.482
39314SOL     OW19715   7.565   5.417   4.305
39314SOL    HW119716   7.572   5.474   4.381
39314SOL    HW219717   7.474   5.427   4.277
39315SOL     OW19718   8.469   2.544  10.476
39315SOL    HW119719   8.440   2.559  10.386
39315SOL    HW219720   8.444   2.624  10.523
39316SOL     OW19721  14.020  12.008   2.809
39316SOL    HW119722  13.924  12.005   2.808
39316SOL    HW219723  14.043  12.076   2.746
39317SOL     OW19724  14.651   0.080  10.264
39317SOL    HW119725  14.680   0.095  10.174
39317SOL    HW219726  14.673   0.161  10.310
39318SOL     OW19727  12.638   4.756  10.937
39318SOL    HW119728  12.668   4.823  10.998
39318SOL    HW219729  12.709   4.749  10.872
39319SOL     OW19730   8.288   9.552   6.069
39319SOL    HW119731   8.197   9.576   6.087
39319SOL    HW219732   8.338   9.594   6.138
39320SOL     OW19733   4.880   4.814  14.466
39320SOL    HW119734   4.876   4.722  14.490
39320SOL    HW219735   4.934   4.816  14.387
39321SOL     OW19736   3.535  14.431  11.028
39321SOL    HW119737   3.501  14.468  11.109
39321SOL    HW219738   3.594  14.497  10.993
39322SOL     OW19739  12.397   4.999   8.573
39322SOL    HW119740  12.401   4.934   8.504
39322SOL    HW219741  12.455   4.966   8.642
39323SOL     OW19742  12.800   5.431  12.454
39323SOL    HW119743  12.713   5.444  12.417
39323SOL    HW219744  12.858   5.481  12.396
39324SOL     OW19745   7.529   0.262  11.594
39324SOL    HW119746   7.547   0.196  11.528
39324SOL    HW219747   7.437   0.248  11.618
39325SOL     OW19748  11.990   7.852   8.178
39325SOL    HW119749  12.053   7.821   8.243
39325SOL    HW219750  11.997   7.947   8.181
39326SOL     OW19751   9.584   8.013  10.968
39326SOL    HW119752   9.522   7.973  10.906
39326SOL    HW219753   9.669   8.004  10.926
39327SOL     OW19754  10.625  13.717   2.805
39327SOL    HW119755  10.646  13.758   2.721
39327SOL    HW219756  10.543  13.671   2.788
39328SOL     OW19757   0.764   9.700   7.387
39328SOL    HW119758   0.691   9.650   7.424
39328SOL    HW219759   0.722   9.769   7.336
39329SOL     OW19760   8.864   3.552   6.314
39329SOL    HW119761   8.939   3.498   6.287
39329SOL    HW219762   8.801   3.490   6.348
39330SOL     OW19763   5.831  10.670  12.046
39330SOL    HW119764   5.866  10.632  12.126
39330SOL    HW219765   5.736  10.671  12.060
39331SOL     OW19766   1.659   9.069   1.294
39331SOL    HW119767   1.613   8.997   1.251
39331SOL    HW219768   1.591   9.136   1.307
39332SOL     OW19769  11.043   3.168   9.184
39332SOL    HW119770  11.015   3.088   9.139
39332SOL    HW219771  11.124   3.142   9.229
39333SOL     OW19772   7.486   3.416   0.617
39333SOL    HW119773   7.480   3.322   0.605
39333SOL    HW219774   7.555   3.444   0.557
39334SOL     OW19775   6.980  10.462   6.575
39334SOL    HW119776   7.040  10.388   6.586
39334SOL    HW219777   6.922  10.457   6.651
39335SOL     OW19778   8.080   3.449   3.756
39335SOL    HW119779   7.989   3.440   3.727
39335SOL    HW219780   8.131   3.403   3.690
39336SOL     OW19781   7.622  14.825   1.679
39336SOL    HW119782   7.574  14.767   1.620
39336SOL    HW219783   7.560  14.845   1.749
39337SOL     OW19784  10.534   6.131   1.339
39337SOL    HW119785  10.463   6.148   1.276
39337SOL    HW219786  10.591   6.208   1.331
39338SOL     OW19787   2.721   1.297  14.241
39338SOL    HW119788   2.653   1.259  14.296
39338SOL    HW219789   2.702   1.264  14.153
39339SOL     OW19790   7.742  11.238   8.479
39339SOL    HW119791   7.695  11.183   8.542
39339SOL    HW219792   7.834  11.232   8.505
39340SOL     OW19793  12.785  14.650  10.246
39340SOL    HW119794  12.745  14.605  10.171
39340SOL    HW219795  12.870  14.679  10.214
39341SOL     OW19796   4.497  11.861   7.153
39341SOL    HW119797   4.566  11.896   7.209
39341SOL    HW219798   4.448  11.800   7.209
39342SOL     OW19799   7.878   6.244   7.892
39342SOL    HW119800   7.817   6.294   7.947
39342SOL    HW219801   7.944   6.308   7.866
39343SOL     OW19802   2.099   6.142   9.743
39343SOL    HW119803   2.134   6.058   9.716
39343SOL    HW219804   2.100   6.139   9.839
39344SOL     OW19805   1.055   2.119  14.791
39344SOL    HW119806   0.968   2.135  14.755
39344SOL    HW219807   1.045   2.132   0.004
39345SOL     OW19808   8.337   7.085   1.032
39345SOL    HW119809   8.381   7.000   1.039
39345SOL    HW219810   8.398   7.140   0.982
39346SOL     OW19811   7.837   9.699   1.839
39346SOL    HW119812   7.798   9.695   1.751
39346SOL    HW219813   7.873   9.612   1.853
39347SOL     OW19814   1.117  11.285   4.999
39347SOL    HW119815   1.051  11.319   4.938
39347SOL    HW219816   1.184  11.247   4.942
39348SOL     OW19817   3.554   7.317   7.389
39348SOL    HW119818   3.494   7.371   7.439
39348SOL    HW219819   3.539   7.228   7.421
39349SOL     OW19820   4.020   8.436  13.867
39349SOL    HW119821   4.082   8.386  13.813
39349SOL    HW219822   4.038   8.528  13.846
39350SOL     OW19823   1.893   0.581   1.679
39350SOL    HW119824   1.901   0.489   1.653
39350SOL    HW219825   1.917   0.582   1.772
39351SOL     OW19826   7.119  11.139   6.380
39351SOL    HW119827   7.132  11.135   6.474
39351SOL    HW219828   7.131  11.232   6.358
39352SOL     OW19829   5.413   1.573  10.129
39352SOL    HW119830   5.419   1.634  10.055
39352SOL    HW219831   5.418   1.629  10.206
39353SOL     OW19832   7.427   4.473  10.909
39353SOL    HW119833   7.375   4.408  10.957
39353SOL    HW219834   7.363   4.540  10.885
39354SOL     OW19835   2.742   4.450   3.300
39354SOL    HW119836   2.802   4.481   3.368
39354SOL    HW219837   2.731   4.356   3.318
39355SOL     OW19838   3.142   1.091   6.201
39355SOL    HW119839   3.207   1.096   6.130
39355SOL    HW219840   3.191   1.117   6.279
39356SOL     OW19841  11.478   8.696   1.489
39356SOL    HW119842  11.403   8.639   1.471
39356SOL    HW219843  11.450   8.752   1.561
39357SOL     OW19844  12.919   6.409  13.796
39357SOL    HW119845  13.002   6.387  13.838
39357SOL    HW219846  12.930   6.499  13.766
39358SOL     OW19847   8.500   6.063  11.194
39358SOL    HW119848   8.412   6.099  11.188
39358SOL    HW219849   8.546   6.099  11.118
39359SOL     OW19850  13.551   4.327   5.195
39359SOL    HW119851  13.458   4.339   5.212
39359SOL    HW219852  13.574   4.245   5.237
39360SOL     OW19853   3.278   0.834  13.057
39360SOL    HW119854   3.370   0.853  13.040
39360SOL    HW219855   3.238   0.920  13.072
39361SOL     OW19856   7.489   3.712  14.603
39361SOL    HW119857   7.511   3.691  14.694
39361SOL    HW219858   7.422   3.779  14.609
39362SOL     OW19859  10.943  11.913  11.161
39362SOL    HW119860  10.864  11.936  11.210
39362SOL    HW219861  10.948  11.818  11.166
39363SOL     OW19862  11.726  13.937   0.725
39363SOL    HW119863  11.634  13.936   0.699
39363SOL    HW219864  11.740  13.853   0.767
39364SOL     OW19865   2.276   5.573   3.028
39364SOL    HW119866   2.271   5.571   3.124
39364SOL    HW219867   2.214   5.505   3.001
39365SOL     OW19868  14.444  10.229   2.965
39365SOL    HW119869  14.474  10.244   2.875
39365SOL    HW219870  14.404  10.143   2.963
39366SOL     OW19871  14.304  13.880  10.111
39366SOL    HW119872  14.239  13.949  10.098
39366SOL    HW219873  14.302  13.862  10.205
39367SOL     OW19874  11.115   1.932   0.187
39367SOL    HW119875  11.128   1.853   0.133
39367SOL    HW219876  11.118   2.004   0.125
39368SOL     OW19877  13.853   5.978   9.580
39368SOL    HW119878  13.835   5.963   9.672
39368SOL    HW219879  13.776   6.025   9.548
39369SOL     OW19880   2.946  12.499   7.463
39369SOL    HW119881   2.956  12.405   7.454
39369SOL    HW219882   3.025  12.528   7.508
39370SOL     OW19883   6.439   8.622   6.916
39370SOL    HW119884   6.408   8.674   6.843
39370SOL    HW219885   6.512   8.571   6.880
39371SOL     OW19886   4.612  11.739   4.779
39371SOL    HW119887   4.518  11.750   4.796
39371SOL    HW219888   4.653  11.816   4.818
39372SOL     OW19889  13.245   9.564   8.191
39372SOL    HW119890  13.240   9.501   8.263
39372SOL    HW219891  13.154   9.582   8.168
39373SOL     OW19892  11.069  10.027  12.896
39373SOL    HW119893  11.008   9.991  12.961
39373SOL    HW219894  11.144   9.967  12.898
39374SOL     OW19895   8.394   1.711   4.030
39374SOL    HW119896   8.341   1.779   3.988
39374SOL    HW219897   8.343   1.630   4.018
39375SOL     OW19898  11.999   2.363   8.995
39375SOL    HW119899  12.001   2.268   8.980
39375SOL    HW219900  12.047   2.400   8.921
39376SOL     OW19901   6.165  10.838   5.787
39376SOL    HW119902   6.222  10.840   5.864
39376SOL    HW219903   6.196  10.910   5.732
39377SOL     OW19904   9.037  14.809   1.033
39377SOL    HW119905   8.979  14.772   0.966
39377SOL    HW219906   9.104  14.855   0.983
39378SOL     OW19907  11.710   0.469   2.371
39378SOL    HW119908  11.696   0.415   2.449
39378SOL    HW219909  11.787   0.430   2.329
39379SOL     OW19910   4.745   6.437  13.766
39379SOL    HW119911   4.801   6.365  13.794
39379SOL    HW219912   4.784   6.515  13.806
39380SOL     OW19913   9.580   6.515   6.820
39380SOL    HW119914   9.582   6.551   6.909
39380SOL    HW219915   9.488   6.499   6.802
39381SOL     OW19916  14.780  11.988  11.329
39381SOL    HW119917  14.873  11.983  11.352
39381SOL    HW219918  14.761  11.902  11.289
39382SOL     OW19919   9.171   2.160   0.435
39382SOL    HW119920   9.207   2.231   0.382
39382SOL    HW219921   9.179   2.190   0.525
39383SOL     OW19922   6.623  13.747  14.084
39383SOL    HW119923   6.627  13.704  13.999
39383SOL    HW219924   6.672  13.689  14.142
39384SOL     OW19925  12.496   6.087   4.848
39384SOL    HW119926  12.538   6.039   4.777
39384SOL    HW219927  12.455   6.018   4.901
39385SOL     OW19928   2.962   2.307  13.445
39385SOL    HW119929   2.965   2.322  13.351
39385SOL    HW219930   2.905   2.231  13.456
39386SOL     OW19931   4.909   8.349   8.546
39386SOL    HW119932   4.940   8.343   8.636
39386SOL    HW219933   4.988   8.348   8.492
39387SOL     OW19934   2.796   0.865   9.407
39387SOL    HW119935   2.747   0.836   9.484
39387SOL    HW219936   2.796   0.961   9.413
39388SOL     OW19937  14.742   8.799  14.831
39388SOL    HW119938  14.661   8.808  14.881
39388SOL    HW219939  14.787   8.883  14.840
39389SOL     OW19940  11.844   1.429   5.357
39389SOL    HW119941  11.862   1.523   5.357
39389SOL    HW219942  11.772   1.418   5.420
39390SOL     OW19943  13.117   5.586   3.580
39390SOL    HW119944  13.197   5.639   3.579
39390SOL    HW219945  13.076   5.609   3.664
39391SOL     OW19946   5.661   8.199   9.587
39391SOL    HW119947   5.697   8.285   9.565
39391SOL    HW219948   5.717   8.137   9.541
39392SOL     OW19949  10.656  12.001   4.349
39392SOL    HW119950  10.635  11.941   4.277
39392SOL    HW219951  10.750  12.015   4.343
39393SOL     OW19952   2.151   1.293  13.547
39393SOL    HW119953   2.130   1.366  13.606
39393SOL    HW219954   2.066   1.265  13.513
39394SOL     OW19955  12.957   2.233   2.868
39394SOL    HW119956  13.043   2.194   2.878
39394SOL    HW219957  12.904   2.166   2.825
39395SOL     OW19958   4.834  12.674   3.261
39395SOL    HW119959   4.815  12.746   3.200
39395SOL    HW219960   4.850  12.717   3.345
39396SOL     OW19961  10.167  12.560   6.614
39396SOL    HW119962  10.236  12.626   6.608
39396SOL    HW219963  10.109  12.579   6.541
39397SOL     OW19964  14.677   3.661  10.844
39397SOL    HW119965  14.764   3.655  10.882
39397SOL    HW219966  14.660   3.573  10.810
39398SOL     OW19967   3.539   3.045   9.154
39398SOL    HW119968   3.504   2.982   9.217
39398SOL    HW219969   3.467   3.060   9.093
39399SOL     OW19970   4.411  12.912   8.413
39399SOL    HW119971   4.350  12.846   8.379
39399SOL    HW219972   4.494  12.866   8.419
39400SOL     OW19973   8.913   8.621  14.610
39400SOL    HW119974   8.901   8.714  14.588
39400SOL    HW219975   8.825   8.589  14.628
39401SOL     OW19976  12.868  12.259   1.614
39401SOL    HW119977  12.940  12.260   1.677
39401SOL    HW219978  12.789  12.263   1.668
39402SOL     OW19979  10.821  12.250   7.983
39402SOL    HW119980  10.816  12.202   8.065
39402SOL    HW219981  10.743  12.224   7.934
39403SOL     OW19982   9.781   3.717  12.181
39403SOL    HW119983   9.848   3.785  12.186
39403SOL    HW219984   9.753   3.703  12.271
39404SOL     OW19985   9.439   1.864   5.474
39404SOL    HW119986   9.506   1.889   5.538
39404SOL    HW219987   9.453   1.771   5.460
39405SOL     OW19988   7.958   0.245  14.485
39405SOL    HW119989   7.888   0.272  14.425
39405SOL    HW219990   8.014   0.323  14.492
39406SOL     OW19991   9.079   3.839  13.343
39406SOL    HW119992   9.170   3.812  13.329
39406SOL    HW219993   9.075   3.929  13.312
39407SOL     OW19994   4.450   8.732   1.907
39407SOL    HW119995   4.533   8.717   1.953
39407SOL    HW219996   4.467   8.703   1.817
39408SOL     OW19997   5.830  13.835   3.693
39408SOL    HW119998   5.777  13.891   3.750
39408SOL    HW219999   5.816  13.747   3.727
39409SOL     OW20000   3.618   0.242   7.418
39409SOL    HW120001   3.542   0.262   7.363
39409SOL    HW220002   3.669   0.323   7.419
39410SOL     OW20003   1.554  13.276   8.935
39410SOL    HW120004   1.564  13.268   8.840
39410SOL    HW220005   1.515  13.193   8.962
39411SOL     OW20006   0.138   9.404   0.975
39411SOL    HW120007   0.177   9.444   1.053
39411SOL    HW220008   0.203   9.340   0.945
39412SOL     OW20009   6.678  13.902   2.160
39412SOL    HW120010   6.645  13.885   2.072
39412SOL    HW220011   6.663  13.820   2.207
39413SOL     OW20012   3.330   5.167   3.294
39413SOL    HW120013   3.426   5.169   3.299
39413SOL    HW220014   3.302   5.247   3.338
39414SOL     OW20015   3.103   6.286   8.064
39414SOL    HW120016   3.069   6.330   7.986
39414SOL    HW220017   3.143   6.356   8.115
39415SOL     OW20018  10.150  12.937  11.343
39415SOL    HW120019  10.138  12.858  11.291
39415SOL    HW220020  10.064  12.979  11.345
39416SOL     OW20021   5.215  10.721   0.039
39416SOL    HW120022   5.278  10.783   0.077
39416SOL    HW220023   5.184  10.764  14.841
39417SOL     OW20024   0.011  12.481  10.040
39417SOL    HW120025  14.822  12.528  10.083
39417SOL    HW220026   0.088  12.537  10.051
39418SOL     OW20027   3.513  14.064   9.093
39418SOL    HW120028   3.480  13.982   9.130
39418SOL    HW220029   3.565  14.103   9.163
39419SOL     OW20030   8.457   5.735   4.689
39419SOL    HW120031   8.548   5.761   4.675
39419SOL    HW220032   8.412   5.755   4.607
39420SOL     OW20033   8.251   3.627  13.701
39420SOL    HW120034   8.193   3.650  13.628
39420SOL    HW220035   8.199   3.647  13.779
39421SOL     OW20036   6.025   8.820   1.716
39421SOL    HW120037   5.974   8.745   1.684
39421SOL    HW220038   6.043   8.872   1.637
39422SOL     OW20039   1.190  14.500   5.762
39422SOL    HW120040   1.238  14.417   5.767
39422SOL    HW220041   1.208  14.534   5.675
39423SOL     OW20042   4.641   6.307  12.667
39423SOL    HW120043   4.573   6.269  12.723
39423SOL    HW220044   4.705   6.236  12.656
39424SOL     OW20045   4.625   1.357   9.306
39424SOL    HW120046   4.691   1.344   9.375
39424SOL    HW220047   4.591   1.445   9.322
39425SOL     OW20048   5.953   3.148   1.684
39425SOL    HW120049   5.942   3.058   1.655
39425SOL    HW220050   5.871   3.170   1.728
39426SOL     OW20051  10.074   5.702  14.521
39426SOL    HW120052  10.041   5.654  14.598
39426SOL    HW220053   9.996   5.721  14.470
39427SOL     OW20054   6.639   3.978  12.424
39427SOL    HW120055   6.644   3.921  12.500
39427SOL    HW220056   6.663   3.921  12.350
39428SOL     OW20057   3.735   2.960   6.718
39428SOL    HW120058   3.765   3.005   6.797
39428SOL    HW220059   3.645   2.932   6.739
39429SOL     OW20060   8.244  13.609   0.755
39429SOL    HW120061   8.243  13.700   0.726
39429SOL    HW220062   8.312  13.606   0.822
39430SOL     OW20063  12.657  10.341   2.374
39430SOL    HW120064  12.565  10.335   2.347
39430SOL    HW220065  12.701  10.384   2.300
39431SOL     OW20066  12.947  11.108   5.578
39431SOL    HW120067  12.989  11.091   5.494
39431SOL    HW220068  12.879  11.172   5.559
39432SOL     OW20069  11.305   0.607   2.240
39432SOL    HW120070  11.391   0.587   2.201
39432SOL    HW220071  11.319   0.600   2.334
39433SOL     OW20072   4.430   9.159   6.150
39433SOL    HW120073   4.362   9.207   6.102
39433SOL    HW220074   4.404   9.167   6.242
39434SOL     OW20075   7.190   3.205  14.340
39434SOL    HW120076   7.231   3.120  14.354
39434SOL    HW220077   7.208   3.225  14.248
39435SOL     OW20078   5.087  12.175   3.358
39435SOL    HW120079   5.037  12.107   3.312
39435SOL    HW220080   5.152  12.204   3.294
39436SOL     OW20081   8.262   3.189  13.563
39436SOL    HW120082   8.167   3.189  13.560
39436SOL    HW220083   8.283   3.171  13.655
39437SOL     OW20084  12.621   1.586  12.725
39437SOL    HW120085  12.563   1.647  12.771
39437SOL    HW220086  12.585   1.500  12.745
39438SOL     OW20087  13.016   5.089   5.383
39438SOL    HW120088  13.063   5.043   5.314
39438SOL    HW220089  13.037   5.181   5.369
39439SOL     OW20090   3.124   5.391  13.063
39439SOL    HW120091   3.174   5.472  13.061
39439SOL    HW220092   3.066   5.397  12.988
39440SOL     OW20093  13.345  10.618   2.722
39440SOL    HW120094  13.434  10.590   2.743
39440SOL    HW220095  13.323  10.573   2.641
39441SOL     OW20096  12.238  12.808  11.218
39441SOL    HW120097  12.224  12.752  11.295
39441SOL    HW220098  12.217  12.896  11.248
39442SOL     OW20099   0.740   1.641   9.470
39442SOL    HW120100   0.705   1.593   9.395
39442SOL    HW220101   0.769   1.573   9.531
39443SOL     OW20102  12.548  12.425   3.006
39443SOL    HW120103  12.534  12.341   3.050
39443SOL    HW220104  12.467  12.473   3.020
39444SOL     OW20105   2.608   8.116   1.128
39444SOL    HW120106   2.700   8.133   1.148
39444SOL    HW220107   2.579   8.193   1.080
39445SOL     OW20108   2.915   3.408  11.049
39445SOL    HW120109   2.990   3.467  11.058
39445SOL    HW220110   2.866   3.419  11.131
39446SOL     OW20111  13.491   3.765   7.839
39446SOL    HW120112  13.560   3.815   7.883
39446SOL    HW220113  13.446   3.829   7.784
39447SOL     OW20114   1.442   0.640  14.571
39447SOL    HW120115   1.533   0.657  14.546
39447SOL    HW220116   1.445   0.627  14.666
39448SOL     OW20117   9.266   8.711   1.773
39448SOL    HW120118   9.252   8.715   1.679
39448SOL    HW220119   9.351   8.752   1.787
39449SOL     OW20120  12.864  11.963  10.440
39449SOL    HW120121  12.782  12.005  10.467
39449SOL    HW220122  12.858  11.875  10.477
39450SOL     OW20123  13.501  12.473   0.095
39450SOL    HW120124  13.503  12.377   0.096
39450SOL    HW220125  13.554  12.497   0.019
39451SOL     OW20126  12.818   5.849   7.367
39451SOL    HW120127  12.849   5.762   7.342
39451SOL    HW220128  12.793   5.840   7.459
39452SOL     OW20129  11.631   8.553   8.071
39452SOL    HW120130  11.576   8.552   7.993
39452SOL    HW220131  11.675   8.468   8.071
39453SOL     OW20132   9.580   5.821  13.415
39453SOL    HW120133   9.499   5.815  13.365
39453SOL    HW220134   9.648   5.830  13.349
39454SOL     OW20135  10.216   4.988   8.220
39454SOL    HW120136  10.124   4.975   8.198
39454SOL    HW220137  10.229   5.082   8.216
39455SOL     OW20138   2.697   0.744   9.626
39455SOL    HW120139   2.678   0.787   9.710
39455SOL    HW220140   2.773   0.688   9.645
39456SOL     OW20141   8.672  11.814   7.315
39456SOL    HW120142   8.759  11.786   7.345
39456SOL    HW220143   8.674  11.800   7.220
39457SOL     OW20144   1.480   4.327   5.235
39457SOL    HW120145   1.504   4.401   5.180
39457SOL    HW220146   1.562   4.300   5.276
39458SOL     OW20147   3.221  11.095  14.390
39458SOL    HW120148   3.185  11.184  14.396
39458SOL    HW220149   3.298  11.097  14.447
39459SOL     OW20150   4.544   6.336   7.997
39459SOL    HW120151   4.582   6.250   7.981
39459SOL    HW220152   4.575   6.361   8.084
39460SOL     OW20153   2.883   4.740  12.766
39460SOL    HW120154   2.837   4.746  12.682
39460SOL    HW220155   2.856   4.656  12.802
39461SOL     OW20156   2.442   0.535   7.333
39461SOL    HW120157   2.426   0.478   7.408
39461SOL    HW220158   2.494   0.481   7.273
39462SOL     OW20159   8.353   1.831  10.117
39462SOL    HW120160   8.302   1.905  10.086
39462SOL    HW220161   8.309   1.754  10.081
39463SOL     OW20162  12.617   9.176  11.839
39463SOL    HW120163  12.637   9.269  11.825
39463SOL    HW220164  12.599   9.169  11.932
39464SOL     OW20165   5.861   6.622  10.884
39464SOL    HW120166   5.857   6.702  10.937
39464SOL    HW220167   5.828   6.553  10.942
39465SOL     OW20168  12.445   9.387   6.800
39465SOL    HW120169  12.374   9.361   6.742
39465SOL    HW220170  12.520   9.402   6.742
39466SOL     OW20171   4.947   5.175   2.639
39466SOL    HW120172   5.010   5.231   2.684
39466SOL    HW220173   4.996   5.095   2.620
39467SOL     OW20174   9.326   5.217  10.258
39467SOL    HW120175   9.265   5.144  10.245
39467SOL    HW220176   9.413   5.177  10.255
39468SOL     OW20177   7.569  14.847  13.310
39468SOL    HW120178   7.656  14.812  13.330
39468SOL    HW220179   7.517  14.829  13.389
39469SOL     OW20180   1.078  12.137   1.146
39469SOL    HW120181   1.168  12.123   1.178
39469SOL    HW220182   1.074  12.085   1.066
39470SOL     OW20183  10.528  12.489   8.386
39470SOL    HW120184  10.559  12.501   8.296
39470SOL    HW220185  10.528  12.394   8.399
39471SOL     OW20186  10.213   2.206   3.662
39471SOL    HW120187  10.288   2.181   3.608
39471SOL    HW220188  10.166   2.124   3.678
39472SOL     OW20189   1.012  11.993  13.174
39472SOL    HW120190   0.929  11.998  13.127
39472SOL    HW220191   1.047  12.082  13.173
39473SOL     OW20192   5.521  11.298  11.606
39473SOL    HW120193   5.610  11.300  11.570
39473SOL    HW220194   5.512  11.211  11.643
39474SOL     OW20195  12.043   7.158  10.953
39474SOL    HW120196  12.126   7.131  10.914
39474SOL    HW220197  12.066   7.193  11.039
39475SOL     OW20198   3.017  13.843  13.720
39475SOL    HW120199   2.950  13.871  13.782
39475SOL    HW220200   3.100  13.865  13.762
39476SOL     OW20201  14.009   4.225   7.060
39476SOL    HW120202  14.032   4.219   6.967
39476SOL    HW220203  14.092   4.212   7.106
39477SOL     OW20204   7.684   4.649   7.346
39477SOL    HW120205   7.726   4.573   7.307
39477SOL    HW220206   7.715   4.724   7.295
39478SOL     OW20207   4.868   0.820   9.374
39478SOL    HW120208   4.894   0.749   9.432
39478SOL    HW220209   4.773   0.818   9.375
39479SOL     OW20210  13.501  14.474  13.573
39479SOL    HW120211  13.542  14.429  13.499
39479SOL    HW220212  13.574  14.504  13.626
39480SOL     OW20213   8.844  11.052   2.113
39480SOL    HW120214   8.929  11.016   2.089
39480SOL    HW220215   8.824  11.013   2.198
39481SOL     OW20216   9.973  13.393  11.669
39481SOL    HW120217  10.020  13.315  11.639
39481SOL    HW220218   9.948  13.438  11.589
39482SOL     OW20219  14.635  13.171  10.307
39482SOL    HW120220  14.597  13.133  10.386
39482SOL    HW220221  14.697  13.236  10.338
39483SOL     OW20222   7.831   3.710   6.869
39483SOL    HW120223   7.868   3.684   6.785
39483SOL    HW220224   7.908   3.724   6.925
39484SOL     OW20225   9.499   7.253   0.655
39484SOL    HW120226   9.513   7.163   0.623
39484SOL    HW220227   9.547   7.308   0.593
39485SOL     OW20228  10.588  12.883   3.834
39485SOL    HW120229  10.561  12.806   3.784
39485SOL    HW220230  10.528  12.952   3.805
39486SOL     OW20231  13.628  12.458   8.706
39486SOL    HW120232  13.659  12.431   8.619
39486SOL    HW220233  13.707  12.477   8.755
39487SOL     OW20234   0.026   5.553  10.571
39487SOL    HW120235   0.071   5.634  10.546
39487SOL    HW220236   0.068   5.485  10.519
39488SOL     OW20237   3.898   2.039   0.374
39488SOL    HW120238   3.942   1.969   0.421
39488SOL    HW220239   3.968   2.086   0.329
39489SOL     OW20240   9.178   6.694   5.401
39489SOL    HW120241   9.154   6.728   5.315
39489SOL    HW220242   9.126   6.746   5.462
39490SOL     OW20243   1.075   1.063   4.932
39490SOL    HW120244   1.115   1.032   4.850
39490SOL    HW220245   0.981   1.058   4.915
39491SOL     OW20246  12.486  10.390  10.286
39491SOL    HW120247  12.524  10.310  10.322
39491SOL    HW220248  12.447  10.363  10.203
39492SOL     OW20249  11.531   7.555  10.699
39492SOL    HW120250  11.487   7.616  10.758
39492SOL    HW220251  11.484   7.564  10.616
39493SOL     OW20252   9.241   1.416   5.461
39493SOL    HW120253   9.151   1.409   5.493
39493SOL    HW220254   9.273   1.325   5.460
39494SOL     OW20255   8.305  11.109   2.425
39494SOL    HW120256   8.341  11.044   2.485
39494SOL    HW220257   8.336  11.193   2.459
39495SOL     OW20258   5.388  14.469  12.979
39495SOL    HW120259   5.422  14.440  13.063
39495SOL    HW220260   5.385  14.565  12.986
39496SOL     OW20261   4.897   4.409   5.668
39496SOL    HW120262   4.923   4.496   5.639
39496SOL    HW220263   4.808   4.398   5.634
39497SOL     OW20264   9.566  13.740  13.630
39497SOL    HW120265   9.563  13.658  13.680
39497SOL    HW220266   9.628  13.722  13.560
39498SOL     OW20267   4.417   0.924   7.801
39498SOL    HW120268   4.452   0.903   7.714
39498SOL    HW220269   4.371   1.007   7.789
39499SOL     OW20270   2.424   5.465   6.707
39499SOL    HW120271   2.512   5.484   6.740
39499SOL    HW220272   2.380   5.550   6.708
39500SOL     OW20273   6.319   7.481   1.690
39500SOL    HW120274   6.264   7.412   1.653
39500SOL    HW220275   6.321   7.549   1.622
39501SOL     OW20276  11.648  11.489  11.139
39501SOL    HW120277  11.558  11.505  11.112
39501SOL    HW220278  11.685  11.576  11.153
39502SOL     OW20279  14.856   8.213  13.875
39502SOL    HW120280  14.859   8.240  13.783
39502SOL    HW220281   0.064   8.225  13.906
39503SOL     OW20282   6.905   4.914   0.400
39503SOL    HW120283   6.825   4.958   0.371
39503SOL    HW220284   6.880   4.823   0.409
39504SOL     OW20285   2.041   7.357  12.575
39504SOL    HW120286   1.968   7.386  12.519
39504SOL    HW220287   2.119   7.396  12.534
39505SOL     OW20288  11.551  10.858  10.887
39505SOL    HW120289  11.543  10.940  10.936
39505SOL    HW220290  11.461  10.835  10.864
39506SOL     OW20291   1.799   8.308  13.799
39506SOL    HW120292   1.794   8.399  13.769
39506SOL    HW220293   1.713   8.290  13.835
39507SOL     OW20294  14.861   7.769   2.116
39507SOL    HW120295   0.044   7.753   2.048
39507SOL    HW220296  14.786   7.714   2.091
39508SOL     OW20297   2.550   3.091   2.332
39508SOL    HW120298   2.533   3.171   2.282
39508SOL    HW220299   2.628   3.053   2.291
39509SOL     OW20300   6.797  10.815  10.417
39509SOL    HW120301   6.804  10.722  10.392
39509SOL    HW220302   6.813  10.862  10.336
39510SOL     OW20303   2.049   7.734   6.170
39510SOL    HW120304   2.104   7.755   6.094
39510SOL    HW220305   1.998   7.658   6.142
39511SOL     OW20306  14.264  11.662   7.705
39511SOL    HW120307  14.255  11.617   7.789
39511SOL    HW220308  14.262  11.593   7.639
39512SOL     OW20309   7.721  14.042   4.765
39512SOL    HW120310   7.662  14.061   4.837
39512SOL    HW220311   7.735  13.947   4.770
39513SOL     OW20312  14.627  12.947   3.426
39513SOL    HW120313  14.693  12.935   3.357
39513SOL    HW220314  14.570  12.871   3.417
39514SOL     OW20315  10.933   9.334   5.025
39514SOL    HW120316  10.958   9.356   4.935
39514SOL    HW220317  10.864   9.268   5.015
39515SOL     OW20318  12.853   7.117   5.152
39515SOL    HW120319  12.788   7.105   5.083
39515SOL    HW220320  12.807   7.167   5.220
39516SOL     OW20321   1.780  12.629   7.725
39516SOL    HW120322   1.747  12.547   7.688
39516SOL    HW220323   1.831  12.668   7.653
39517SOL     OW20324   2.923   8.478   4.397
39517SOL    HW120325   2.986   8.412   4.368
39517SOL    HW220326   2.903   8.455   4.488
39518SOL     OW20327   4.270  12.442   6.579
39518SOL    HW120328   4.235  12.392   6.505
39518SOL    HW220329   4.225  12.407   6.655
39519SOL     OW20330   8.458   4.897   3.584
39519SOL    HW120331   8.517   4.834   3.542
39519SOL    HW220332   8.392   4.842   3.626
39520SOL     OW20333  14.430   5.428  14.263
39520SOL    HW120334  14.391   5.418  14.350
39520SOL    HW220335  14.356   5.439  14.204
39521SOL     OW20336  11.480  11.243   5.225
39521SOL    HW120337  11.419  11.213   5.293
39521SOL    HW220338  11.437  11.319   5.187
39522SOL     OW20339  10.280   4.786   9.607
39522SOL    HW120340  10.329   4.731   9.669
39522SOL    HW220341  10.231   4.724   9.554
39523SOL     OW20342   5.234   2.431  14.457
39523SOL    HW120343   5.238   2.495  14.528
39523SOL    HW220344   5.275   2.352  14.493
39524SOL     OW20345   4.327  13.485   0.022
39524SOL    HW120346   4.240  13.493   0.060
39524SOL    HW220347   4.375  13.430   0.084
39525SOL     OW20348  13.087   7.184   8.388
39525SOL    HW120349  13.086   7.249   8.459
39525SOL    HW220350  13.163   7.130   8.407
39526SOL     OW20351   4.350  12.041   1.528
39526SOL    HW120352   4.386  12.124   1.558
39526SOL    HW220353   4.349  12.048   1.432
39527SOL     OW20354   6.908   9.525   5.439
39527SOL    HW120355   6.885   9.433   5.449
39527SOL    HW220356   6.938   9.552   5.526
39528SOL     OW20357  11.075   8.155  13.095
39528SOL    HW120358  11.038   8.115  13.016
39528SOL    HW220359  11.157   8.195  13.065
39529SOL     OW20360  11.621  11.561   1.307
39529SOL    HW120361  11.662  11.643   1.278
39529SOL    HW220362  11.547  11.589   1.360
39530SOL     OW20363   9.995   1.369   3.984
39530SOL    HW120364  10.090   1.354   3.978
39530SOL    HW220365   9.958   1.281   3.983
39531SOL     OW20366   1.288   2.937   5.038
39531SOL    HW120367   1.353   3.001   5.009
39531SOL    HW220368   1.279   2.952   5.132
39532SOL     OW20369  13.555   6.579   9.025
39532SOL    HW120370  13.474   6.532   9.042
39532SOL    HW220371  13.621   6.534   9.078
39533SOL     OW20372   5.349   8.537   1.650
39533SOL    HW120373   5.339   8.631   1.668
39533SOL    HW220374   5.432   8.513   1.691
39534SOL     OW20375   6.712   9.228  11.882
39534SOL    HW120376   6.633   9.267  11.919
39534SOL    HW220377   6.697   9.229  11.787
39535SOL     OW20378   5.828   7.709  10.726
39535SOL    HW120379   5.922   7.726  10.724
39535SOL    HW220380   5.793   7.762  10.653
39536SOL     OW20381  13.195   8.456  11.415
39536SOL    HW120382  13.161   8.450  11.326
39536SOL    HW220383  13.198   8.550  11.433
39537SOL     OW20384   8.163   5.890  10.819
39537SOL    HW120385   8.171   5.876  10.724
39537SOL    HW220386   8.109   5.969  10.827
39538SOL     OW20387   0.057   9.691  12.810
39538SOL    HW120388   0.122   9.697  12.741
39538SOL    HW220389  14.859   9.729  12.772
39539SOL     OW20390   9.033   0.454   7.917
39539SOL    HW120391   8.956   0.476   7.970
39539SOL    HW220392   8.997   0.429   7.832
39540SOL     OW20393   7.204  10.688  10.282
39540SOL    HW120394   7.257  10.692  10.202
39540SOL    HW220395   7.134  10.627  10.261
39541SOL     OW20396  10.232  12.826   6.162
39541SOL    HW120397  10.297  12.842   6.231
39541SOL    HW220398  10.213  12.913   6.127
39542SOL     OW20399  11.617   5.269   5.370
39542SOL    HW120400  11.710   5.254   5.381
39542SOL    HW220401  11.605   5.362   5.388
39543SOL     OW20402  14.368   8.023   4.543
39543SOL    HW120403  14.325   8.062   4.467
39543SOL    HW220404  14.461   8.046   4.533
39544SOL     OW20405  14.198   0.537   5.928
39544SOL    HW120406  14.238   0.482   5.995
39544SOL    HW220407  14.113   0.562   5.964
39545SOL     OW20408   9.597   1.506  13.022
39545SOL    HW120409   9.676   1.540  13.065
39545SOL    HW220410   9.585   1.564  12.947
39546SOL     OW20411  14.384   8.534  13.430
39546SOL    HW120412  14.409   8.454  13.384
39546SOL    HW220413  14.429   8.605  13.384
39547SOL     OW20414   3.056  10.365   7.512
39547SOL    HW120415   3.018  10.282   7.543
39547SOL    HW220416   3.041  10.364   7.418
39548SOL     OW20417  14.029   6.290   5.190
39548SOL    HW120418  14.035   6.353   5.262
39548SOL    HW220419  14.017   6.345   5.112
39549SOL     OW20420   2.791   9.779  13.604
39549SOL    HW120421   2.777   9.766  13.698
39549SOL    HW220422   2.879   9.817  13.598
39550SOL     OW20423  14.571  12.516   6.842
39550SOL    HW120424  14.504  12.458   6.878
39550SOL    HW220425  14.571  12.592   6.899
39551SOL     OW20426   6.462   7.670   7.670
39551SOL    HW120427   6.527   7.728   7.708
39551SOL    HW220428   6.437   7.611   7.742
39552SOL     OW20429  11.690   9.699   5.211
39552SOL    HW120430  11.652   9.733   5.129
39552SOL    HW220431  11.616   9.659   5.257
39553SOL     OW20432   3.431   0.161  14.607
39553SOL    HW120433   3.471   0.089  14.559
39553SOL    HW220434   3.354   0.123  14.648
39554SOL     OW20435   5.424   3.472   0.132
39554SOL    HW120436   5.496   3.533   0.152
39554SOL    HW220437   5.468   3.394   0.100
39555SOL     OW20438   4.234   1.046   1.491
39555SOL    HW120439   4.192   1.088   1.566
39555SOL    HW220440   4.276   0.968   1.526
39556SOL     OW20441   3.840  13.330   8.679
39556SOL    HW120442   3.866  13.347   8.589
39556SOL    HW220443   3.923  13.310   8.724
39557SOL     OW20444   5.614   3.936   2.193
39557SOL    HW120445   5.641   3.970   2.279
39557SOL    HW220446   5.583   4.014   2.146
39558SOL     OW20447  10.987  10.165  12.554
39558SOL    HW120448  11.045  10.241  12.551
39558SOL    HW220449  10.933  10.179  12.632
39559SOL     OW20450   1.413   8.732  13.553
39559SOL    HW120451   1.507   8.737  13.569
39559SOL    HW220452   1.406   8.678  13.473
39560SOL     OW20453   1.870   7.478  12.387
39560SOL    HW120454   1.888   7.467  12.294
39560SOL    HW220455   1.784   7.438  12.401
39561SOL     OW20456   9.924   0.842   5.318
39561SOL    HW120457   9.883   0.912   5.369
39561SOL    HW220458   9.920   0.873   5.228
39562SOL     OW20459   0.572  14.226   4.917
39562SOL    HW120460   0.564  14.320   4.901
39562SOL    HW220461   0.622  14.220   4.998
39563SOL     OW20462   1.555   7.441   1.841
39563SOL    HW120463   1.552   7.537   1.841
39563SOL    HW220464   1.621   7.419   1.906
39564SOL     OW20465  11.533   6.213  11.818
39564SOL    HW120466  11.541   6.306  11.841
39564SOL    HW220467  11.439   6.198  11.814
39565SOL     OW20468   2.700   4.280   9.926
39565SOL    HW120469   2.611   4.265   9.897
39565SOL    HW220470   2.712   4.222  10.001
39566SOL     OW20471   1.969   2.765  13.810
39566SOL    HW120472   1.925   2.786  13.892
39566SOL    HW220473   1.930   2.681  13.783
39567SOL     OW20474   6.337   5.061   2.797
39567SOL    HW120475   6.329   5.078   2.703
39567SOL    HW220476   6.247   5.058   2.829
39568SOL     OW20477   1.467   4.801   7.260
39568SOL    HW120478   1.464   4.895   7.279
39568SOL    HW220479   1.376   4.777   7.244
39569SOL     OW20480   8.243  13.593   7.162
39569SOL    HW120481   8.279  13.682   7.158
39569SOL    HW220482   8.173  13.599   7.227
39570SOL     OW20483   6.955   5.260   8.613
39570SOL    HW120484   6.951   5.196   8.684
39570SOL    HW220485   6.981   5.209   8.536
39571SOL     OW20486   3.918   2.971   7.591
39571SOL    HW120487   3.975   2.938   7.521
39571SOL    HW220488   3.957   3.053   7.618
39572SOL     OW20489  11.060  11.407   5.020
39572SOL    HW120490  11.131  11.385   4.960
39572SOL    HW220491  10.997  11.456   4.967
39573SOL     OW20492   5.106  13.427   6.976
39573SOL    HW120493   5.144  13.510   6.947
39573SOL    HW220494   5.012  13.445   6.983
39574SOL     OW20495   9.307   4.035   0.505
39574SOL    HW120496   9.247   4.095   0.461
39574SOL    HW220497   9.273   3.948   0.487
39575SOL     OW20498   2.665  10.815   4.877
39575SOL    HW120499   2.744  10.825   4.824
39575SOL    HW220500   2.647  10.902   4.911
39576SOL     OW20501   4.834   7.926  12.574
39576SOL    HW120502   4.828   7.995  12.507
39576SOL    HW220503   4.759   7.942  12.631
39577SOL     OW20504  11.693   7.659  11.193
39577SOL    HW120505  11.720   7.732  11.249
39577SOL    HW220506  11.600   7.647  11.212
39578SOL     OW20507   3.726  13.556   1.761
39578SOL    HW120508   3.784  13.587   1.830
39578SOL    HW220509   3.669  13.630   1.741
39579SOL     OW20510   3.436   6.407   4.875
39579SOL    HW120511   3.513   6.370   4.919
39579SOL    HW220512   3.388   6.453   4.944
39580SOL     OW20513   2.651  12.300   1.668
39580SOL    HW120514   2.707  12.223   1.673
39580SOL    HW220515   2.689  12.362   1.731
39581SOL     OW20516   0.102   3.852  13.424
39581SOL    HW120517   0.136   3.795  13.493
39581SOL    HW220518   0.016   3.816  13.404
39582SOL     OW20519   6.351  11.107   4.098
39582SOL    HW120520   6.259  11.112   4.124
39582SOL    HW220521   6.354  11.152   4.013
39583SOL     OW20522   8.882   1.893   3.858
39583SOL    HW120523   8.811   1.840   3.894
39583SOL    HW220524   8.873   1.884   3.763
39584SOL     OW20525   2.330   3.826  14.114
39584SOL    HW120526   2.334   3.742  14.070
39584SOL    HW220527   2.422   3.848  14.132
39585SOL     OW20528   4.469   4.116   2.289
39585SOL    HW120529   4.488   4.022   2.296
39585SOL    HW220530   4.374   4.121   2.286
39586SOL     OW20531   1.783   2.354   4.616
39586SOL    HW120532   1.752   2.361   4.707
39586SOL    HW220533   1.705   2.332   4.566
39587SOL     OW20534  11.209   7.534  10.752
39587SOL    HW120535  11.134   7.530  10.693
39587SOL    HW220536  11.205   7.453  10.802
39588SOL     OW20537   5.559   9.025  14.229
39588SOL    HW120538   5.650   9.038  14.205
39588SOL    HW220539   5.555   8.933  14.258
39589SOL     OW20540   1.237   8.621  11.407
39589SOL    HW120541   1.269   8.709  11.391
39589SOL    HW220542   1.205   8.591  11.322
39590SOL     OW20543   9.788   9.586  12.683
39590SOL    HW120544   9.847   9.625  12.747
39590SOL    HW220545   9.731   9.528  12.734
39591SOL     OW20546   5.201   3.909   3.517
39591SOL    HW120547   5.212   3.963   3.439
39591SOL    HW220548   5.107   3.899   3.527
39592SOL     OW20549  10.231   9.742   7.839
39592SOL    HW120550  10.249   9.832   7.811
39592SOL    HW220551  10.298   9.724   7.905
39593SOL     OW20552   4.330   2.013  11.905
39593SOL    HW120553   4.317   2.056  11.990
39593SOL    HW220554   4.383   2.075  11.855
39594SOL     OW20555   9.762  12.466   9.114
39594SOL    HW120556   9.829  12.453   9.182
39594SOL    HW220557   9.762  12.561   9.100
39595SOL     OW20558   2.421   1.969   4.273
39595SOL    HW120559   2.482   1.897   4.290
39595SOL    HW220560   2.336   1.936   4.302
39596SOL     OW20561   9.216   0.371   5.559
39596SOL    HW120562   9.251   0.327   5.636
39596SOL    HW220563   9.218   0.304   5.490
39597SOL     OW20564  13.673   3.489   0.386
39597SOL    HW120565  13.652   3.454   0.473
39597SOL    HW220566  13.588   3.518   0.351
39598SOL     OW20567   1.176  14.221  11.445
39598SOL    HW120568   1.172  14.128  11.423
39598SOL    HW220569   1.086  14.243  11.471
39599SOL     OW20570  10.091   3.797   2.305
39599SOL    HW120571  10.168   3.759   2.262
39599SOL    HW220572  10.078   3.743   2.384
39600SOL     OW20573  10.073  12.398   3.759
39600SOL    HW120574  10.119  12.407   3.676
39600SOL    HW220575  10.080  12.484   3.800
39601SOL     OW20576   9.034   1.254   0.416
39601SOL    HW120577   8.983   1.333   0.432
39601SOL    HW220578   9.082   1.272   0.335
39602SOL     OW20579   8.800   6.051   2.967
39602SOL    HW120580   8.854   6.061   2.889
39602SOL    HW220581   8.809   6.136   3.012
39603SOL     OW20582   5.322   5.254   4.130
39603SOL    HW120583   5.231   5.281   4.116
39603SOL    HW220584   5.373   5.334   4.114
39604SOL     OW20585  13.797   2.938  12.344
39604SOL    HW120586  13.707   2.970  12.349
39604SOL    HW220587  13.848   2.999  12.397
39605SOL     OW20588  11.154  13.368   3.867
39605SOL    HW120589  11.155  13.461   3.847
39605SOL    HW220590  11.096  13.330   3.801
39606SOL     OW20591  10.618   6.707   9.048
39606SOL    HW120592  10.538   6.759   9.051
39606SOL    HW220593  10.639   6.690   9.140
39607SOL     OW20594   9.706  14.477   9.445
39607SOL    HW120595   9.761  14.460   9.369
39607SOL    HW220596   9.650  14.550   9.419
39608SOL     OW20597   9.204  13.035   4.571
39608SOL    HW120598   9.234  13.121   4.598
39608SOL    HW220599   9.272  12.975   4.601
39609SOL     OW20600  14.589  10.638   6.322
39609SOL    HW120601  14.635  10.595   6.249
39609SOL    HW220602  14.596  10.731   6.302
39610SOL     OW20603   5.333  11.405  11.410
39610SOL    HW120604   5.398  11.389  11.342
39610SOL    HW220605   5.380  11.391  11.492
39611SOL     OW20606   0.378   5.027   9.736
39611SOL    HW120607   0.407   4.949   9.688
39611SOL    HW220608   0.341   5.084   9.668
39612SOL     OW20609   4.524   3.642   5.642
39612SOL    HW120610   4.461   3.570   5.644
39612SOL    HW220611   4.470   3.720   5.626
39613SOL     OW20612   3.232   7.056   3.592
39613SOL    HW120613   3.164   7.067   3.525
39613SOL    HW220614   3.232   7.138   3.640
39614SOL     OW20615   6.280  12.492   0.513
39614SOL    HW120616   6.278  12.437   0.435
39614SOL    HW220617   6.373  12.509   0.528
39615SOL     OW20618   4.363   3.338  13.650
39615SOL    HW120619   4.275   3.305  13.635
39615SOL    HW220620   4.419   3.286  13.593
39616SOL     OW20621   2.686   5.550   9.626
39616SOL    HW120622   2.772   5.534   9.589
39616SOL    HW220623   2.681   5.493   9.703
39617SOL     OW20624   0.669  10.234   8.004
39617SOL    HW120625   0.597  10.213   7.944
39617SOL    HW220626   0.629  10.232   8.091
39618SOL     OW20627   7.129  10.782  10.522
39618SOL    HW120628   7.087  10.849  10.468
39618SOL    HW220629   7.174  10.726  10.459
39619SOL     OW20630   2.763   9.075   1.046
39619SOL    HW120631   2.819   9.151   1.062
39619SOL    HW220632   2.791   9.010   1.111
39620SOL     OW20633  10.840  10.006  11.483
39620SOL    HW120634  10.892  10.041  11.555
39620SOL    HW220635  10.892   9.933  11.449
39621SOL     OW20636   8.160   0.409   0.578
39621SOL    HW120637   8.122   0.324   0.555
39621SOL    HW220638   8.084   0.462   0.604
39622SOL     OW20639   8.295  13.753  10.045
39622SOL    HW120640   8.297  13.679   9.985
39622SOL    HW220641   8.203  13.777  10.051
39623SOL     OW20642   6.882  14.171   3.621
39623SOL    HW120643   6.940  14.179   3.546
39623SOL    HW220644   6.918  14.230   3.686
39624SOL     OW20645   1.243  12.587   8.144
39624SOL    HW120646   1.159  12.574   8.188
39624SOL    HW220647   1.305  12.603   8.216
39625SOL     OW20648  10.038  14.577  14.770
39625SOL    HW120649  10.121  14.624  14.766
39625SOL    HW220650  10.051  14.500  14.715
39626SOL     OW20651   7.746  13.472  11.989
39626SOL    HW120652   7.774  13.382  11.975
39626SOL    HW220653   7.709  13.499  11.905
39627SOL     OW20654   6.406   6.256   8.632
39627SOL    HW120655   6.360   6.174   8.647
39627SOL    HW220656   6.359   6.298   8.559
39628SOL     OW20657  12.999  13.568   0.402
39628SOL    HW120658  13.050  13.643   0.434
39628SOL    HW220659  13.018  13.498   0.465
39629SOL     OW20660   0.977   7.392   0.182
39629SOL    HW120661   0.964   7.438   0.265
39629SOL    HW220662   0.961   7.300   0.204
39630SOL     OW20663   4.806   8.506  12.309
39630SOL    HW120664   4.831   8.593  12.281
39630SOL    HW220665   4.715   8.497  12.280
39631SOL     OW20666   0.120   1.550   1.542
39631SOL    HW120667   0.128   1.644   1.556
39631SOL    HW220668   0.074   1.518   1.619
39632SOL     OW20669   2.380   5.776   5.325
39632SOL    HW120670   2.446   5.846   5.328
39632SOL    HW220671   2.417   5.712   5.264
39633SOL     OW20672  10.019   6.058   3.284
39633SOL    HW120673  10.056   6.109   3.356
39633SOL    HW220674  10.058   5.971   3.293
39634SOL     OW20675  13.027  14.081  12.650
39634SOL    HW120676  12.982  14.158  12.615
39634SOL    HW220677  13.095  14.116  12.707
39635SOL     OW20678   5.288  13.815  12.798
39635SOL    HW120679   5.371  13.858  12.780
39635SOL    HW220680   5.229  13.886  12.824
39636SOL     OW20681   0.835   7.687  12.014
39636SOL    HW120682   0.799   7.751  11.952
39636SOL    HW220683   0.888   7.739  12.075
39637SOL     OW20684   6.471   8.050  13.034
39637SOL    HW120685   6.397   8.005  12.993
39637SOL    HW220686   6.474   8.136  12.992
39638SOL     OW20687   7.158   5.749   5.027
39638SOL    HW120688   7.069   5.716   5.037
39638SOL    HW220689   7.195   5.697   4.956
39639SOL     OW20690   9.834  11.816   0.480
39639SOL    HW120691   9.788  11.877   0.537
39639SOL    HW220692   9.885  11.762   0.539
39640SOL     OW20693   4.185   1.786   8.074
39640SOL    HW120694   4.118   1.780   8.006
39640SOL    HW220695   4.193   1.879   8.092
39641SOL     OW20696   0.487   0.002  13.509
39641SOL    HW120697   0.421  14.836  13.459
39641SOL    HW220698   0.564   0.005  13.452
39642SOL     OW20699   3.522  12.456  10.323
39642SOL    HW120700   3.507  12.506  10.243
39642SOL    HW220701   3.616  12.462  10.338
39643SOL     OW20702  12.798  11.512   7.406
39643SOL    HW120703  12.738  11.476   7.341
39643SOL    HW220704  12.752  11.588   7.442
39644SOL     OW20705   5.996  12.659   2.750
39644SOL    HW120706   6.080  12.645   2.706
39644SOL    HW220707   5.936  12.686   2.680
39645SOL     OW20708  12.000   0.603   4.478
39645SOL    HW120709  11.958   0.548   4.412
39645SOL    HW220710  12.093   0.583   4.470
39646SOL     OW20711  13.757  11.607   3.752
39646SOL    HW120712  13.830  11.596   3.812
39646SOL    HW220713  13.718  11.690   3.777
39647SOL     OW20714  14.592  10.951   3.308
39647SOL    HW120715  14.537  10.873   3.320
39647SOL    HW220716  14.578  10.975   3.216
39648SOL     OW20717   3.977   8.719   0.253
39648SOL    HW120718   4.053   8.712   0.195
39648SOL    HW220719   3.939   8.631   0.253
39649SOL     OW20720  11.674   6.094  14.404
39649SOL    HW120721  11.637   6.042  14.333
39649SOL    HW220722  11.699   6.029  14.470
39650SOL     OW20723   9.175  10.511   2.923
39650SOL    HW120724   9.242  10.443   2.923
39650SOL    HW220725   9.138  10.507   2.834
39651SOL     OW20726   0.922   2.128   6.514
39651SOL    HW120727   0.966   2.206   6.479
39651SOL    HW220728   0.830   2.141   6.493
39652SOL     OW20729   3.015   8.085   5.411
39652SOL    HW120730   2.947   8.045   5.464
39652SOL    HW220731   3.005   8.179   5.425
39653SOL     OW20732   5.871  12.456   6.172
39653SOL    HW120733   5.853  12.533   6.227
39653SOL    HW220734   5.965  12.458   6.159
39654SOL     OW20735  11.086   1.201  13.361
39654SOL    HW120736  11.138   1.129  13.398
39654SOL    HW220737  11.150   1.266  13.335
39655SOL     OW20738   1.768  12.533   8.145
39655SOL    HW120739   1.682  12.542   8.103
39655SOL    HW220740   1.822  12.489   8.079
39656SOL     OW20741   5.287   8.760  13.488
39656SOL    HW120742   5.353   8.699  13.455
39656SOL    HW220743   5.234   8.783  13.412
39657SOL     OW20744   4.640   9.890   9.322
39657SOL    HW120745   4.733   9.907   9.303
39657SOL    HW220746   4.638   9.869   9.415
39658SOL     OW20747   9.568   0.140  13.469
39658SOL    HW120748   9.518   0.221  13.473
39658SOL    HW220749   9.652   0.165  13.431
39659SOL     OW20750   7.930  14.130   7.454
39659SOL    HW120751   7.839  14.152   7.473
39659SOL    HW220752   7.952  14.062   7.518
39660SOL     OW20753   2.206  10.006   8.710
39660SOL    HW120754   2.130  10.041   8.755
39660SOL    HW220755   2.170   9.961   8.634
39661SOL     OW20756   6.566   2.031  11.239
39661SOL    HW120757   6.506   2.026  11.165
39661SOL    HW220758   6.578   1.940  11.267
39662SOL     OW20759   5.555   4.002   5.058
39662SOL    HW120760   5.475   4.053   5.071
39662SOL    HW220761   5.555   3.938   5.129
39663SOL     OW20762   8.582   0.482   8.771
39663SOL    HW120763   8.598   0.408   8.712
39663SOL    HW220764   8.610   0.451   8.857
39664SOL     OW20765   6.895   8.464   8.370
39664SOL    HW120766   6.981   8.503   8.389
39664SOL    HW220767   6.833   8.536   8.385
39665SOL     OW20768   6.224  13.315   1.351
39665SOL    HW120769   6.135  13.322   1.318
39665SOL    HW220770   6.215  13.273   1.437
39666SOL     OW20771   8.666   5.021  13.058
39666SOL    HW120772   8.725   5.015  12.983
39666SOL    HW220773   8.592   5.074  13.026
39667SOL     OW20774  10.723  12.375   4.307
39667SOL    HW120775  10.780  12.438   4.263
39667SOL    HW220776  10.765  12.290   4.292
39668SOL     OW20777   1.940   3.695   2.318
39668SOL    HW120778   1.972   3.758   2.253
39668SOL    HW220779   1.902   3.624   2.266
39669SOL     OW20780   0.524   9.490  11.576
39669SOL    HW120781   0.612   9.525  11.559
39669SOL    HW220782   0.508   9.429  11.505
39670SOL     OW20783   1.745  14.473  11.668
39670SOL    HW120784   1.832  14.484  11.631
39670SOL    HW220785   1.719  14.384  11.644
39671SOL     OW20786   0.805   2.299   0.888
39671SOL    HW120787   0.840   2.242   0.819
39671SOL    HW220788   0.829   2.387   0.860
39672SOL     OW20789  12.150   8.207   0.432
39672SOL    HW120790  12.070   8.234   0.387
39672SOL    HW220791  12.146   8.251   0.517
39673SOL     OW20792   1.038   7.878  12.067
39673SOL    HW120793   1.050   7.914  11.979
39673SOL    HW220794   1.096   7.803  12.071
39674SOL     OW20795   0.577  10.563   2.713
39674SOL    HW120796   0.481  10.569   2.721
39674SOL    HW220797   0.593  10.565   2.618
39675SOL     OW20798   3.877   2.795   3.213
39675SOL    HW120799   3.791   2.821   3.180
39675SOL    HW220800   3.918   2.877   3.241
39676SOL     OW20801   7.895  11.739  10.072
39676SOL    HW120802   7.822  11.793  10.101
39676SOL    HW220803   7.960  11.746  10.143
39677SOL     OW20804   4.179   7.100   9.181
39677SOL    HW120805   4.248   7.134   9.124
39677SOL    HW220806   4.113   7.170   9.182
39678SOL     OW20807   2.721  10.989  12.260
39678SOL    HW120808   2.693  10.919  12.200
39678SOL    HW220809   2.639  11.028  12.291
39679SOL     OW20810   2.436   5.896   7.986
39679SOL    HW120811   2.382   5.915   7.909
39679SOL    HW220812   2.401   5.813   8.018
39680SOL     OW20813  14.671   3.829   5.447
39680SOL    HW120814  14.680   3.917   5.483
39680SOL    HW220815  14.595   3.793   5.493
39681SOL     OW20816   4.274   4.005  12.051
39681SOL    HW120817   4.191   4.042  12.023
39681SOL    HW220818   4.293   3.936  11.987
39682SOL     OW20819   4.174   4.563   0.451
39682SOL    HW120820   4.147   4.539   0.539
39682SOL    HW220821   4.186   4.658   0.454
39683SOL     OW20822   9.619   1.156  12.553
39683SOL    HW120823   9.704   1.156  12.509
39683SOL    HW220824   9.557   1.186  12.486
39684SOL     OW20825   5.676  12.604   1.442
39684SOL    HW120826   5.709  12.662   1.511
39684SOL    HW220827   5.731  12.623   1.366
39685SOL     OW20828  10.178   8.829  14.231
39685SOL    HW120829  10.249   8.866  14.284
39685SOL    HW220830  10.165   8.741  14.267
39686SOL     OW20831   2.322   8.048   8.390
39686SOL    HW120832   2.277   8.016   8.469
39686SOL    HW220833   2.282   7.998   8.318
39687SOL     OW20834  12.981   7.503   7.076
39687SOL    HW120835  13.071   7.535   7.071
39687SOL    HW220836  12.985   7.429   7.137
39688SOL     OW20837  13.509  14.677   9.376
39688SOL    HW120838  13.500  14.728   9.456
39688SOL    HW220839  13.596  14.700   9.342
39689SOL     OW20840   7.245  14.357  13.509
39689SOL    HW120841   7.150  14.355  13.520
39689SOL    HW220842   7.278  14.299  13.578
39690SOL     OW20843   3.463   4.622   6.228
39690SOL    HW120844   3.523   4.556   6.194
39690SOL    HW220845   3.516   4.673   6.290
39691SOL     OW20846   6.187  11.867   4.715
39691SOL    HW120847   6.212  11.881   4.806
39691SOL    HW220848   6.135  11.944   4.691
39692SOL     OW20849  11.559   9.497   7.793
39692SOL    HW120850  11.474   9.502   7.750
39692SOL    HW220851  11.560   9.412   7.836
39693SOL     OW20852   7.357   6.806   3.477
39693SOL    HW120853   7.310   6.886   3.454
39693SOL    HW220854   7.396   6.825   3.562
39694SOL     OW20855   3.240  14.109   9.313
39694SOL    HW120856   3.177  14.077   9.378
39694SOL    HW220857   3.273  14.030   9.270
39695SOL     OW20858   1.083  10.852   1.536
39695SOL    HW120859   1.154  10.874   1.476
39695SOL    HW220860   1.004  10.883   1.492
39696SOL     OW20861   8.359   9.144   5.257
39696SOL    HW120862   8.290   9.115   5.197
39696SOL    HW220863   8.315   9.150   5.343
39697SOL     OW20864   2.460   0.543   5.149
39697SOL    HW120865   2.455   0.632   5.115
39697SOL    HW220866   2.479   0.489   5.072
39698SOL     OW20867   2.990  14.191   3.577
39698SOL    HW120868   3.051  14.135   3.625
39698SOL    HW220869   2.993  14.158   3.487
39699SOL     OW20870  10.036   7.706   7.879
39699SOL    HW120871  10.108   7.651   7.911
39699SOL    HW220872   9.986   7.649   7.821
39700SOL     OW20873   7.941  13.894   2.564
39700SOL    HW120874   8.000  13.819   2.579
39700SOL    HW220875   7.990  13.951   2.505
39701SOL     OW20876   2.151  10.625   8.854
39701SOL    HW120877   2.239  10.622   8.891
39701SOL    HW220878   2.161  10.586   8.767
39702SOL     OW20879   3.394   1.995   7.314
39702SOL    HW120880   3.403   2.017   7.222
39702SOL    HW220881   3.477   1.952   7.336
39703SOL     OW20882   5.411   5.837   6.555
39703SOL    HW120883   5.460   5.911   6.591
39703SOL    HW220884   5.321   5.869   6.546
39704SOL     OW20885   1.635   5.710   3.937
39704SOL    HW120886   1.695   5.744   4.003
39704SOL    HW220887   1.553   5.757   3.952
39705SOL     OW20888   0.404   9.070   1.027
39705SOL    HW120889   0.480   9.029   0.985
39705SOL    HW220890   0.434   9.086   1.117
39706SOL     OW20891  13.087   5.956   3.120
39706SOL    HW120892  13.156   5.932   3.058
39706SOL    HW220893  13.111   5.912   3.201
39707SOL     OW20894   6.029   1.309  11.284
39707SOL    HW120895   6.034   1.401  11.309
39707SOL    HW220896   6.015   1.262  11.366
39708SOL     OW20897   1.651  11.257   1.818
39708SOL    HW120898   1.706  11.298   1.752
39708SOL    HW220899   1.618  11.330   1.871
39709SOL     OW20900   2.567   3.444  12.044
39709SOL    HW120901   2.643   3.424  12.099
39709SOL    HW220902   2.502   3.379  12.068
39710SOL     OW20903   8.860   6.567   4.956
39710SOL    HW120904   8.844   6.638   5.017
39710SOL    HW220905   8.776   6.523   4.948
39711SOL     OW20906   3.276   6.502   0.713
39711SOL    HW120907   3.302   6.552   0.790
39711SOL    HW220908   3.358   6.482   0.668
39712SOL     OW20909   1.504  11.407   4.675
39712SOL    HW120910   1.568  11.449   4.733
39712SOL    HW220911   1.423  11.455   4.691
39713SOL     OW20912  11.571  14.357   7.393
39713SOL    HW120913  11.585  14.451   7.388
39713SOL    HW220914  11.476  14.347   7.401
39714SOL     OW20915   1.576  14.479   9.200
39714SOL    HW120916   1.546  14.392   9.173
39714SOL    HW220917   1.593  14.470   9.294
39715SOL     OW20918  11.000  13.723   3.200
39715SOL    HW120919  11.033  13.677   3.278
39715SOL    HW220920  10.913  13.753   3.225
39716SOL     OW20921  12.455   1.196   2.819
39716SOL    HW120922  12.366   1.227   2.831
39716SOL    HW220923  12.467   1.192   2.724
39717SOL     OW20924  13.625  12.306  13.815
39717SOL    HW120925  13.564  12.368  13.775
39717SOL    HW220926  13.653  12.250  13.742
39718SOL     OW20927  14.521   7.370   5.822
39718SOL    HW120928  14.612   7.355   5.848
39718SOL    HW220929  14.484   7.283   5.812
39719SOL     OW20930   6.923   9.208   1.694
39719SOL    HW120931   6.840   9.219   1.741
39719SOL    HW220932   6.915   9.124   1.650
39720SOL     OW20933   3.934  14.569   6.791
39720SOL    HW120934   3.851  14.521   6.790
39720SOL    HW220935   3.998  14.507   6.825
39721SOL     OW20936   7.681   2.957  12.751
39721SOL    HW120937   7.748   2.889  12.754
39721SOL    HW220938   7.709   3.023  12.815
39722SOL     OW20939   0.671  11.995   8.184
39722SOL    HW120940   0.747  12.031   8.139
39722SOL    HW220941   0.696  11.995   8.277
39723SOL     OW20942  13.271   3.987   3.460
39723SOL    HW120943  13.210   4.034   3.403
39723SOL    HW220944  13.323   4.055   3.502
39724SOL     OW20945   0.502  12.199   1.354
39724SOL    HW120946   0.546  12.121   1.387
39724SOL    HW220947   0.479  12.178   1.264
39725SOL     OW20948   2.183   1.186   8.461
39725SOL    HW120949   2.223   1.148   8.539
39725SOL    HW220950   2.134   1.114   8.421
39726SOL     OW20951   3.813   9.501   5.950
39726SOL    HW120952   3.729   9.479   5.989
39726SOL    HW220953   3.877   9.481   6.019
39727SOL     OW20954   4.870   2.859  13.205
39727SOL    HW120955   4.786   2.812  13.201
39727SOL    HW220956   4.845   2.952  13.211
39728SOL     OW20957  11.755   1.225  14.596
39728SOL    HW120958  11.683   1.169  14.624
39728SOL    HW220959  11.777   1.194  14.508
39729SOL     OW20960  11.750  12.357   4.935
39729SOL    HW120961  11.781  12.270   4.961
39729SOL    HW220962  11.830  12.408   4.922
39730SOL     OW20963  13.272  12.991  12.741
39730SOL    HW120964  13.210  13.021  12.675
39730SOL    HW220965  13.331  13.065  12.755
39731SOL     OW20966   1.445   0.572   4.466
39731SOL    HW120967   1.367   0.563   4.412
39731SOL    HW220968   1.513   0.524   4.418
39732SOL     OW20969   8.469   1.590   0.498
39732SOL    HW120970   8.469   1.500   0.465
39732SOL    HW220971   8.386   1.599   0.544
39733SOL     OW20972   7.246   9.435   8.036
39733SOL    HW120973   7.315   9.454   8.100
39733SOL    HW220974   7.164   9.445   8.085
39734SOL     OW20975  14.860   1.619   9.507
39734SOL    HW120976   0.020   1.575   9.581
39734SOL    HW220977  14.769   1.592   9.510
39735SOL     OW20978   8.047   7.306  12.325
39735SOL    HW120979   8.041   7.397  12.354
39735SOL    HW220980   8.137   7.280  12.345
39736SOL     OW20981   1.808  12.993   1.540
39736SOL    HW120982   1.745  12.984   1.611
39736SOL    HW220983   1.858  13.072   1.561
39737SOL     OW20984   9.178   7.381   3.010
39737SOL    HW120985   9.164   7.423   2.925
39737SOL    HW220986   9.144   7.292   2.998
39738SOL     OW20987   6.611  11.137  14.662
39738SOL    HW120988   6.537  11.082  14.688
39738SOL    HW220989   6.685  11.101  14.709
39739SOL     OW20990   2.173  10.152  13.210
39739SOL    HW120991   2.247  10.104  13.173
39739SOL    HW220992   2.146  10.100  13.287
39740SOL     OW20993   0.922   2.593   9.698
39740SOL    HW120994   0.940   2.550   9.614
39740SOL    HW220995   0.958   2.533   9.763
39741SOL     OW20996  13.741   5.130  12.966
39741SOL    HW120997  13.759   5.045  13.007
39741SOL    HW220998  13.693   5.108  12.886
39742SOL     OW20999   3.023   8.713   0.792
39742SOL    HW121000   3.106   8.753   0.819
39742SOL    HW221001   3.049   8.638   0.738
39743SOL     OW21002   0.115   2.456  10.091
39743SOL    HW121003   0.194   2.435  10.041
39743SOL    HW221004   0.044   2.419  10.039
39744SOL     OW21005  14.502   5.318   8.446
39744SOL    HW121006  14.449   5.290   8.371
39744SOL    HW221007  14.448   5.298   8.523
39745SOL     OW21008   0.228   1.214  11.924
39745SOL    HW121009   0.220   1.182  12.014
39745SOL    HW221010   0.311   1.177  11.893
39746SOL     OW21011   0.287  11.718   8.201
39746SOL    HW121012   0.378  11.698   8.220
39746SOL    HW221013   0.282  11.814   8.206
39747SOL     OW21014  10.738  10.247  12.013
39747SOL    HW121015  10.648  10.215  12.007
39747SOL    HW221016  10.734  10.321  12.074
39748SOL     OW21017   2.645   1.522   3.489
39748SOL    HW121018   2.673   1.492   3.576
39748SOL    HW221019   2.572   1.581   3.507
39749SOL     OW21020  10.155  12.096   3.473
39749SOL    HW121021  10.100  12.085   3.550
39749SOL    HW221022  10.162  12.009   3.435
39750SOL     OW21023  10.899   5.608  11.301
39750SOL    HW121024  10.839   5.593  11.228
39750SOL    HW221025  10.885   5.700  11.324
39751SOL     OW21026  12.444   6.785   2.236
39751SOL    HW121027  12.524   6.804   2.185
39751SOL    HW221028  12.410   6.870   2.260
39752SOL     OW21029  13.395  14.736  12.109
39752SOL    HW121030  13.438  14.795  12.171
39752SOL    HW221031  13.453  14.735  12.033
39753SOL     OW21032   7.104   8.441   3.272
39753SOL    HW121033   7.119   8.382   3.198
39753SOL    HW221034   7.065   8.385   3.340
39754SOL     OW21035   6.385  14.393   4.588
39754SOL    HW121036   6.420  14.353   4.509
39754SOL    HW221037   6.424  14.480   4.590
39755SOL     OW21038   2.619   5.523   1.454
39755SOL    HW121039   2.668   5.601   1.479
39755SOL    HW221040   2.615   5.470   1.534
39756SOL     OW21041  14.795   5.053  11.688
39756SOL    HW121042  14.880   5.067  11.731
39756SOL    HW221043  14.813   5.067  11.595
39757SOL     OW21044   1.624   0.895   0.737
39757SOL    HW121045   1.630   0.903   0.832
39757SOL    HW221046   1.530   0.902   0.718
39758SOL     OW21047   1.971   1.395   4.609
39758SOL    HW121048   1.998   1.456   4.540
39758SOL    HW221049   2.042   1.331   4.614
39759SOL     OW21050   4.671   7.509  12.938
39759SOL    HW121051   4.632   7.511  12.851
39759SOL    HW221052   4.595   7.503  12.997
39760SOL     OW21053  10.252   5.326   7.520
39760SOL    HW121054  10.211   5.413   7.517
39760SOL    HW221055  10.245   5.294   7.430
39761SOL     OW21056   9.436   5.987  14.666
39761SOL    HW121057   9.528   6.010  14.682
39761SOL    HW221058   9.401   5.968  14.752
39762SOL     OW21059   2.354  11.283   3.768
39762SOL    HW121060   2.387  11.203   3.808
39762SOL    HW221061   2.302  11.325   3.837
39763SOL     OW21062   2.534  14.017   3.654
39763SOL    HW121063   2.574  14.089   3.606
39763SOL    HW221064   2.453  14.053   3.689
39764SOL     OW21065   0.599   2.419  13.839
39764SOL    HW121066   0.548   2.341  13.817
39764SOL    HW221067   0.579   2.436  13.931
39765SOL     OW21068  11.109   1.706   5.816
39765SOL    HW121069  11.045   1.683   5.884
39765SOL    HW221070  11.102   1.801   5.809
39766SOL     OW21071   0.711  12.412   0.778
39766SOL    HW121072   0.805  12.406   0.759
39766SOL    HW221073   0.672  12.439   0.695
39767SOL     OW21074   6.550  14.700  14.388
39767SOL    HW121075   6.501  14.748  14.321
39767SOL    HW221076   6.603  14.637  14.339
39768SOL     OW21077  10.551   1.631  14.546
39768SOL    HW121078  10.558   1.648  14.641
39768SOL    HW221079  10.548   1.718  14.507
39769SOL     OW21080   7.790   4.557  13.126
39769SOL    HW121081   7.747   4.641  13.140
39769SOL    HW221082   7.881   4.579  13.106
39770SOL     OW21083  12.921  14.492   0.104
39770SOL    HW121084  13.008  14.478   0.067
39770SOL    HW221085  12.931  14.475   0.198
39771SOL     OW21086   8.370   0.903   5.333
39771SOL    HW121087   8.285   0.946   5.318
39771SOL    HW221088   8.389   0.859   5.250
39772SOL     OW21089  10.713   3.196  11.676
39772SOL    HW121090  10.695   3.103  11.666
39772SOL    HW221091  10.757   3.220  11.594
39773SOL     OW21092   4.421  10.466   1.851
39773SOL    HW121093   4.352  10.513   1.804
39773SOL    HW221094   4.489  10.453   1.786
39774SOL     OW21095  10.898   7.922   2.949
39774SOL    HW121096  10.970   7.900   2.890
39774SOL    HW221097  10.860   7.837   2.973
39775SOL     OW21098  12.755   0.281   4.109
39775SOL    HW121099  12.789   0.279   4.198
39775SOL    HW221100  12.833   0.282   4.053
39776SOL     OW21101   2.908   2.452   6.949
39776SOL    HW121102   2.841   2.420   7.010
39776SOL    HW221103   2.991   2.434   6.994
39777SOL     OW21104  13.600   2.876   0.241
39777SOL    HW121105  13.680   2.879   0.292
39777SOL    HW221106  13.608   2.947   0.178
39778SOL     OW21107   3.629  12.228   8.248
39778SOL    HW121108   3.636  12.296   8.181
39778SOL    HW221109   3.545  12.186   8.232
39779SOL     OW21110  13.349   3.223  14.222
39779SOL    HW121111  13.261   3.208  14.256
39779SOL    HW221112  13.344   3.198  14.130
39780SOL     OW21113   7.081   7.697   6.675
39780SOL    HW121114   7.113   7.643   6.747
39780SOL    HW221115   7.149   7.763   6.662
39781SOL     OW21116   5.939   0.425  11.428
39781SOL    HW121117   5.883   0.392  11.499
39781SOL    HW221118   5.878   0.446  11.358
39782SOL     OW21119  14.090  12.849   8.230
39782SOL    HW121120  14.027  12.845   8.302
39782SOL    HW221121  14.054  12.915   8.170
39783SOL     OW21122   6.860  13.932   9.274
39783SOL    HW121123   6.954  13.940   9.256
39783SOL    HW221124   6.830  14.023   9.282
39784SOL     OW21125   2.219   9.325  14.605
39784SOL    HW121126   2.276   9.374  14.546
39784SOL    HW221127   2.275   9.258  14.643
39785SOL     OW21128   6.490   2.541   2.259
39785SOL    HW121129   6.515   2.449   2.268
39785SOL    HW221130   6.431   2.543   2.184
39786SOL     OW21131   0.110  12.309  10.931
39786SOL    HW121132   0.082  12.220  10.951
39786SOL    HW221133   0.126  12.349  11.017
39787SOL     OW21134  11.924   0.056   2.134
39787SOL    HW121135  11.910   0.061   2.228
39787SOL    HW221136  12.003   0.107   2.118
39788SOL     OW21137   3.535   6.477  11.961
39788SOL    HW121138   3.450   6.510  11.990
39788SOL    HW221139   3.545   6.509  11.872
39789SOL     OW21140  11.334   7.738  11.967
39789SOL    HW121141  11.366   7.648  11.968
39789SOL    HW221142  11.277   7.744  12.043
39790SOL     OW21143   4.285   1.166  12.167
39790SOL    HW121144   4.264   1.077  12.139
39790SOL    HW221145   4.228   1.183  12.241
39791SOL     OW21146   8.095  14.703   6.172
39791SOL    HW121147   8.187  14.678   6.173
39791SOL    HW221148   8.049  14.626   6.204
39792SOL     OW21149  13.550   8.397  13.436
39792SOL    HW121150  13.530   8.311  13.472
39792SOL    HW221151  13.546   8.456  13.511
39793SOL     OW21152   3.692   0.103  13.273
39793SOL    HW121153   3.736   0.166  13.330
39793SOL    HW221154   3.761   0.074  13.213
39794SOL     OW21155   7.877   1.996   8.395
39794SOL    HW121156   7.901   2.089   8.398
39794SOL    HW221157   7.811   1.990   8.325
39795SOL     OW21158  11.117   1.309  10.657
39795SOL    HW121159  11.092   1.300  10.749
39795SOL    HW221160  11.186   1.244  10.644
39796SOL     OW21161   1.718  11.281  14.750
39796SOL    HW121162   1.700  11.352  14.688
39796SOL    HW221163   1.637  11.229  14.752
39797SOL     OW21164  10.638  14.847   0.486
39797SOL    HW121165  10.633  14.853   0.391
39797SOL    HW221166  10.582  14.772   0.508
39798SOL     OW21167   6.105  13.844  14.101
39798SOL    HW121168   6.164  13.831  14.176
39798SOL    HW221169   6.163  13.847  14.025
39799SOL     OW21170  11.252  12.110  11.314
39799SOL    HW121171  11.298  12.034  11.277
39799SOL    HW221172  11.169  12.112  11.268
39800SOL     OW21173   7.197   2.900  14.563
39800SOL    HW121174   7.125   2.958  14.539
39800SOL    HW221175   7.271   2.929  14.510
39801SOL     OW21176   0.866  12.711   2.617
39801SOL    HW121177   0.802  12.713   2.688
39801SOL    HW221178   0.886  12.803   2.600
39802SOL     OW21179   0.371   7.288   3.494
39802SOL    HW121180   0.433   7.300   3.565
39802SOL    HW221181   0.296   7.343   3.518
39803SOL     OW21182   7.349   2.563  11.465
39803SOL    HW121183   7.358   2.658  11.475
39803SOL    HW221184   7.439   2.530  11.468
39804SOL     OW21185   7.486   7.933   0.528
39804SOL    HW121186   7.451   7.986   0.600
39804SOL    HW221187   7.454   7.844   0.546
39805SOL     OW21188   2.074   0.451  14.636
39805SOL    HW121189   2.086   0.397  14.558
39805SOL    HW221190   2.145   0.425  14.694
39806SOL     OW21191   1.515   2.221   8.562
39806SOL    HW121192   1.456   2.292   8.539
39806SOL    HW221193   1.498   2.205   8.654
39807SOL     OW21194  12.701   7.286  12.470
39807SOL    HW121195  12.745   7.202  12.476
39807SOL    HW221196  12.630   7.272  12.407
39808SOL     OW21197   2.809   2.605  12.265
39808SOL    HW121198   2.745   2.573  12.201
39808SOL    HW221199   2.888   2.619  12.214
39809SOL     OW21200  12.184   0.995  14.010
39809SOL    HW121201  12.189   1.079  14.057
39809SOL    HW221202  12.275   0.968  13.999
39810SOL     OW21203   9.136  10.179   2.747
39810SOL    HW121204   9.100  10.222   2.670
39810SOL    HW221205   9.158  10.091   2.718
39811SOL     OW21206   9.636   0.723   5.119
39811SOL    HW121207   9.610   0.647   5.066
39811SOL    HW221208   9.676   0.684   5.197
39812SOL     OW21209  11.096   8.848   6.521
39812SOL    HW121210  11.031   8.865   6.589
39812SOL    HW221211  11.138   8.765   6.547
39813SOL     OW21212  13.699  10.845   9.799
39813SOL    HW121213  13.750  10.907   9.850
39813SOL    HW221214  13.687  10.888   9.714
39814SOL     OW21215   1.117   6.255   2.361
39814SOL    HW121216   1.188   6.192   2.348
39814SOL    HW221217   1.137   6.297   2.445
39815SOL     OW21218  10.963   4.415   4.253
39815SOL    HW121219  11.047   4.414   4.206
39815SOL    HW221220  10.975   4.354   4.326
39816SOL     OW21221  10.033   9.235   4.804
39816SOL    HW121222  10.115   9.208   4.763
39816SOL    HW221223  10.039   9.203   4.893
39817SOL     OW21224   8.676   7.723  11.687
39817SOL    HW121225   8.623   7.761  11.757
39817SOL    HW221226   8.745   7.675  11.733
39818SOL     OW21227  12.832   2.828   3.944
39818SOL    HW121228  12.758   2.815   4.003
39818SOL    HW221229  12.820   2.915   3.909
39819SOL     OW21230  10.879   4.566  10.632
39819SOL    HW121231  10.883   4.600  10.543
39819SOL    HW221232  10.853   4.642  10.685
39820SOL     OW21233   9.326   0.325  11.517
39820SOL    HW121234   9.260   0.335  11.586
39820SOL    HW221235   9.327   0.231  11.498
39821SOL     OW21236   4.736  10.018  11.297
39821SOL    HW121237   4.800  10.025  11.227
39821SOL    HW221238   4.653   9.999  11.252
39822SOL     OW21239  11.177   0.237   1.760
39822SOL    HW121240  11.122   0.315   1.773
39822SOL    HW221241  11.114   0.166   1.749
39823SOL     OW21242  11.896   2.938  12.939
39823SOL    HW121243  11.864   2.848  12.943
39823SOL    HW221244  11.960   2.945  13.010
39824SOL     OW21245   8.602  11.189  14.240
39824SOL    HW121246   8.658  11.259  14.274
39824SOL    HW221247   8.518  11.231  14.224
39825SOL     OW21248   2.854   8.681   5.188
39825SOL    HW121249   2.842   8.586   5.178
39825SOL    HW221250   2.766   8.717   5.184
39826SOL     OW21251   8.385  14.281   5.506
39826SOL    HW121252   8.311  14.275   5.446
39826SOL    HW221253   8.458  14.241   5.459
39827SOL     OW21254   3.828   2.725   2.414
39827SOL    HW121255   3.746   2.750   2.372
39827SOL    HW221256   3.814   2.634   2.442
39828SOL     OW21257   2.447   1.207   2.571
39828SOL    HW121258   2.400   1.201   2.654
39828SOL    HW221259   2.536   1.181   2.592
39829SOL     OW21260  12.979   3.638   6.187
39829SOL    HW121261  13.056   3.596   6.148
39829SOL    HW221262  13.003   3.653   6.278
39830SOL     OW21263   4.068   4.901   6.253
39830SOL    HW121264   4.046   4.813   6.284
39830SOL    HW221265   3.989   4.930   6.207
39831SOL     OW21266   9.637   6.085   4.591
39831SOL    HW121267   9.599   6.152   4.533
39831SOL    HW221268   9.617   6.002   4.548
39832SOL     OW21269   9.248  13.908   2.800
39832SOL    HW121270   9.309  13.897   2.872
39832SOL    HW221271   9.185  13.973   2.831
39833SOL     OW21272   0.021  10.256   2.319
39833SOL    HW121273   0.109  10.263   2.356
39833SOL    HW221274  14.860  10.339   2.344
39834SOL     OW21275   7.529   6.742   0.470
39834SOL    HW121276   7.507   6.800   0.543
39834SOL    HW221277   7.618   6.712   0.488
39835SOL     OW21278   8.781  13.822  10.586
39835SOL    HW121279   8.722  13.840  10.658
39835SOL    HW221280   8.739  13.860  10.509
39836SOL     OW21281   2.255   6.283   0.949
39836SOL    HW121282   2.232   6.326   0.866
39836SOL    HW221283   2.188   6.216   0.960
39837SOL     OW21284   6.474   4.408   1.955
39837SOL    HW121285   6.460   4.375   2.043
39837SOL    HW221286   6.483   4.503   1.965
39838SOL     OW21287  12.239  14.321  14.835
39838SOL    HW121288  12.190  14.399  14.863
39838SOL    HW221289  12.331  14.347  14.844
39839SOL     OW21290   2.726   8.656  14.811
39839SOL    HW121291   2.761   8.646   0.018
39839SOL    HW221292   2.689   8.745  14.810
39840SOL     OW21293   4.184   0.209   1.353
39840SOL    HW121294   4.143   0.171   1.276
39840SOL    HW221295   4.112   0.219   1.416
39841SOL     OW21296   8.243  14.729  13.713
39841SOL    HW121297   8.180  14.675  13.665
39841SOL    HW221298   8.191  14.766  13.785
39842SOL     OW21299   2.984   0.446   8.053
39842SOL    HW121300   2.902   0.455   8.005
39842SOL    HW221301   2.966   0.484   8.139
39843SOL     OW21302   2.772  13.997   3.443
39843SOL    HW121303   2.712  13.929   3.473
39843SOL    HW221304   2.773  14.061   3.515
39844SOL     OW21305   1.874   3.283   1.216
39844SOL    HW121306   1.799   3.289   1.156
39844SOL    HW221307   1.856   3.205   1.269
39845SOL     OW21308   1.668   2.662   3.829
39845SOL    HW121309   1.582   2.645   3.867
39845SOL    HW221310   1.712   2.719   3.892
39846SOL     OW21311  10.668   1.687   6.246
39846SOL    HW121312  10.652   1.763   6.302
39846SOL    HW221313  10.748   1.648   6.281
39847SOL     OW21314  11.558  12.507   3.509
39847SOL    HW121315  11.562  12.460   3.593
39847SOL    HW221316  11.506  12.585   3.528
39848SOL     OW21317   5.252   0.860   4.634
39848SOL    HW121318   5.164   0.832   4.608
39848SOL    HW221319   5.308   0.785   4.614
39849SOL     OW21320   7.264   5.208   3.762
39849SOL    HW121321   7.358   5.200   3.777
39849SOL    HW221322   7.224   5.180   3.845
39850SOL     OW21323   0.953   6.428   5.972
39850SOL    HW121324   1.032   6.437   6.025
39850SOL    HW221325   0.937   6.517   5.938
39851SOL     OW21326   8.409  11.073  11.943
39851SOL    HW121327   8.366  11.058  11.859
39851SOL    HW221328   8.490  11.023  11.938
39852SOL     OW21329  11.440   5.934   8.904
39852SOL    HW121330  11.413   5.949   8.994
39852SOL    HW221331  11.504   6.003   8.886
39853SOL     OW21332  13.411  13.848   6.323
39853SOL    HW121333  13.344  13.864   6.390
39853SOL    HW221334  13.435  13.936   6.292
39854SOL     OW21335  13.056  10.223   8.213
39854SOL    HW121336  13.030  10.240   8.122
39854SOL    HW221337  13.089  10.133   8.212
39855SOL     OW21338   9.890   7.541   7.741
39855SOL    HW121339   9.852   7.589   7.667
39855SOL    HW221340   9.950   7.478   7.701
39856SOL     OW21341  10.418  14.714   5.806
39856SOL    HW121342  10.379  14.699   5.892
39856SOL    HW221343  10.368  14.787   5.770
39857SOL     OW21344  10.590   9.943   7.697
39857SOL    HW121345  10.609   9.902   7.781
39857SOL    HW221346  10.675   9.972   7.664
39858SOL     OW21347  14.852   0.172  13.110
39858SOL    HW121348  14.879   0.110  13.177
39858SOL    HW221349  14.835   0.254  13.157
39859SOL     OW21350   2.126  14.358   0.658
39859SOL    HW121351   2.201  14.311   0.621
39859SOL    HW221352   2.132  14.446   0.620
39860SOL     OW21353   9.353   9.669   1.663
39860SOL    HW121354   9.321   9.582   1.689
39860SOL    HW221355   9.381   9.658   1.573
39861SOL     OW21356  10.031   4.983  12.705
39861SOL    HW121357  10.032   4.895  12.741
39861SOL    HW221358  10.087   5.034  12.764
39862SOL     OW21359   3.384   5.216  12.877
39862SOL    HW121360   3.345   5.151  12.818
39862SOL    HW221361   3.461   5.248  12.829
39863SOL     OW21362   8.901  10.277   0.025
39863SOL    HW121363   8.807  10.288   0.010
39863SOL    HW221364   8.911  10.184   0.045
39864SOL     OW21365   1.260  11.923   2.618
39864SOL    HW121366   1.258  11.979   2.696
39864SOL    HW221367   1.173  11.932   2.580
39865SOL     OW21368  14.528   9.584  14.061
39865SOL    HW121369  14.484   9.500  14.076
39865SOL    HW221370  14.620   9.567  14.083
39866SOL     OW21371  11.329  10.450   6.667
39866SOL    HW121372  11.354  10.423   6.756
39866SOL    HW221373  11.247  10.403   6.650
39867SOL     OW21374   8.706  13.840  11.317
39867SOL    HW121375   8.673  13.911  11.372
39867SOL    HW221376   8.680  13.760  11.364
39868SOL     OW21377  11.609   9.293   3.392
39868SOL    HW121378  11.660   9.367   3.426
39868SOL    HW221379  11.613   9.228   3.462
39869SOL     OW21380  11.792   3.426   2.788
39869SOL    HW121381  11.721   3.435   2.724
39869SOL    HW221382  11.832   3.512   2.793
39870SOL     OW21383   6.807   3.921  12.688
39870SOL    HW121384   6.727   3.974  12.679
39870SOL    HW221385   6.852   3.960  12.763
39871SOL     OW21386  13.200   1.749   2.681
39871SOL    HW121387  13.269   1.792   2.732
39871SOL    HW221388  13.183   1.810   2.609
39872SOL     OW21389   8.537  13.830   8.535
39872SOL    HW121390   8.451  13.816   8.576
39872SOL    HW221391   8.564  13.743   8.505
39873SOL     OW21392  10.290   8.253   0.687
39873SOL    HW121393  10.274   8.310   0.612
39873SOL    HW221394  10.365   8.199   0.661
39874SOL     OW21395   1.555  11.953   8.386
39874SOL    HW121396   1.477  11.904   8.413
39874SOL    HW221397   1.607  11.890   8.336
39875SOL     OW21398   6.551   4.327   0.432
39875SOL    HW121399   6.512   4.410   0.405
39875SOL    HW221400   6.483   4.262   0.414
39876SOL     OW21401   2.002   7.358  14.450
39876SOL    HW121402   2.022   7.422  14.519
39876SOL    HW221403   1.912   7.379  14.423
39877SOL     OW21404   0.900   2.579  13.423
39877SOL    HW121405   0.948   2.610  13.346
39877SOL    HW221406   0.937   2.493  13.441
39878SOL     OW21407   6.729   3.249  14.875
39878SOL    HW121408   6.724   3.227  14.782
39878SOL    HW221409   6.778   3.331  14.878
39879SOL     OW21410   8.034   0.238   0.784
39879SOL    HW121411   8.068   0.215   0.870
39879SOL    HW221412   8.111   0.259   0.732
39880SOL     OW21413  13.394  10.884  13.361
39880SOL    HW121414  13.454  10.938  13.413
39880SOL    HW221415  13.439  10.800  13.351
39881SOL     OW21416  12.611   5.906  14.312
39881SOL    HW121417  12.634   5.821  14.350
39881SOL    HW221418  12.516   5.905  14.309
39882SOL     OW21419  10.941   8.417   0.820
39882SOL    HW121420  10.972   8.430   0.730
39882SOL    HW221421  10.915   8.504   0.849
39883SOL     OW21422  12.861   3.803   6.027
39883SOL    HW121423  12.892   3.745   6.096
39883SOL    HW221424  12.786   3.756   5.988
39884SOL     OW21425   1.014   1.537  12.864
39884SOL    HW121426   1.017   1.447  12.831
39884SOL    HW221427   0.963   1.532  12.945
39885SOL     OW21428  10.982   2.983   8.836
39885SOL    HW121429  11.030   3.014   8.760
39885SOL    HW221430  10.893   3.016   8.824
39886SOL     OW21431   8.687  14.501   6.489
39886SOL    HW121432   8.720  14.584   6.523
39886SOL    HW221433   8.632  14.466   6.560
39887SOL     OW21434  13.946  14.782   5.355
39887SOL    HW121435  13.864  14.831   5.361
39887SOL    HW221436  13.928  14.712   5.292
39888SOL     OW21437   9.144   8.419  11.267
39888SOL    HW121438   9.112   8.453  11.183
39888SOL    HW221439   9.091   8.340  11.282
39889SOL     OW21440  11.445   9.862   3.321
39889SOL    HW121441  11.515   9.911   3.278
39889SOL    HW221442  11.469   9.863   3.414
39890SOL     OW21443   9.445  11.570   6.523
39890SOL    HW121444   9.407  11.482   6.532
39890SOL    HW221445   9.392  11.612   6.455
39891SOL     OW21446  14.041   0.291  10.018
39891SOL    HW121447  13.973   0.327   9.960
39891SOL    HW221448  13.993   0.266  10.097
39892SOL     OW21449   7.941   4.305   5.729
39892SOL    HW121450   7.892   4.224   5.710
39892SOL    HW221451   8.031   4.286   5.702
39893SOL     OW21452   7.229   8.881  14.682
39893SOL    HW121453   7.157   8.858  14.741
39893SOL    HW221454   7.218   8.824  14.606
39894SOL     OW21455   1.496  12.279   8.071
39894SOL    HW121456   1.424  12.342   8.065
39894SOL    HW221457   1.495  12.250   8.162
39895SOL     OW21458  10.659   5.494   1.445
39895SOL    HW121459  10.740   5.477   1.493
39895SOL    HW221460  10.590   5.470   1.506
39896SOL     OW21461   4.598   2.803  13.197
39896SOL    HW121462   4.592   2.768  13.109
39896SOL    HW221463   4.520   2.858  13.207
39897SOL     OW21464  11.379   2.588  11.484
39897SOL    HW121465  11.322   2.536  11.541
39897SOL    HW221466  11.454   2.612  11.540
39898SOL     OW21467   2.628   2.475   3.336
39898SOL    HW121468   2.710   2.469   3.287
39898SOL    HW221469   2.636   2.411   3.406
39899SOL     OW21470  13.191  14.445   0.232
39899SOL    HW121471  13.152  14.365   0.266
39899SOL    HW221472  13.212  14.425   0.140
39900SOL     OW21473   1.925  10.529   1.729
39900SOL    HW121474   1.920  10.571   1.643
39900SOL    HW221475   1.946  10.601   1.789
39901SOL     OW21476  11.525   6.380  14.218
39901SOL    HW121477  11.431   6.365  14.210
39901SOL    HW221478  11.550   6.337  14.299
39902SOL     OW21479  13.042   7.794   7.631
39902SOL    HW121480  13.080   7.808   7.718
39902SOL    HW221481  13.057   7.701   7.613
39903SOL     OW21482  10.250  12.955   4.458
39903SOL    HW121483  10.196  13.015   4.509
39903SOL    HW221484  10.339  12.970   4.488
39904SOL     OW21485  13.171   8.897  13.933
39904SOL    HW121486  13.178   8.921  13.840
39904SOL    HW221487  13.146   8.978  13.977
39905SOL     OW21488  13.615   7.065   6.878
39905SOL    HW121489  13.534   7.053   6.928
39905SOL    HW221490  13.633   6.979   6.840
39906SOL     OW21491   2.892   7.128   5.901
39906SOL    HW121492   2.828   7.064   5.930
39906SOL    HW221493   2.873   7.139   5.807
39907SOL     OW21494  14.345  12.093   5.349
39907SOL    HW121495  14.355  12.183   5.381
39907SOL    HW221496  14.416  12.083   5.285
39908SOL     OW21497  10.734   8.493   2.513
39908SOL    HW121498  10.742   8.458   2.602
39908SOL    HW221499  10.767   8.582   2.519
39909SOL     OW21500   9.079   2.270   3.777
39909SOL    HW121501   9.145   2.208   3.809
39909SOL    HW221502   9.128   2.351   3.762
39910SOL     OW21503   7.993  14.262   3.449
39910SOL    HW121504   7.899  14.247   3.433
39910SOL    HW221505   8.036  14.187   3.409
39911SOL     OW21506   3.408  10.348   0.419
39911SOL    HW121507   3.399  10.369   0.326
39911SOL    HW221508   3.455  10.423   0.456
39912SOL     OW21509   3.182   9.237   4.590
39912SOL    HW121510   3.188   9.193   4.505
39912SOL    HW221511   3.097   9.282   4.588
39913SOL     OW21512   3.523  14.766   9.890
39913SOL    HW121513   3.511  14.743   9.982
39913SOL    HW221514   3.436  14.794   9.861
39914SOL     OW21515   7.072   1.313   4.085
39914SOL    HW121516   7.136   1.374   4.123
39914SOL    HW221517   7.067   1.242   4.149
39915SOL     OW21518   4.247   3.162   0.011
39915SOL    HW121519   4.287   3.084   0.049
39915SOL    HW221520   4.272   3.233   0.070
39916SOL     OW21521   7.899   3.333   1.810
39916SOL    HW121522   7.989   3.350   1.840
39916SOL    HW221523   7.889   3.239   1.816
39917SOL     OW21524   3.874   4.538   8.609
39917SOL    HW121525   3.911   4.455   8.640
39917SOL    HW221526   3.940   4.604   8.631
39918SOL     OW21527   1.599   9.097   3.774
39918SOL    HW121528   1.609   9.152   3.696
39918SOL    HW221529   1.675   9.039   3.773
39919SOL     OW21530   8.254   1.371  11.045
39919SOL    HW121531   8.320   1.422  11.092
39919SOL    HW221532   8.226   1.305  11.108
39920SOL     OW21533   0.996   2.868   5.317
39920SOL    HW121534   0.942   2.945   5.337
39920SOL    HW221535   0.937   2.794   5.329
39921SOL     OW21536  11.913  14.454   1.582
39921SOL    HW121537  11.918  14.403   1.663
39921SOL    HW221538  11.978  14.413   1.525
39922SOL     OW21539   3.210   8.255  10.800
39922SOL    HW121540   3.304   8.249  10.814
39922SOL    HW221541   3.173   8.184  10.852
39923SOL     OW21542   2.130   9.025   1.112
39923SOL    HW121543   2.089   9.073   1.040
39923SOL    HW221544   2.063   9.021   1.180
39924SOL     OW21545   8.979   0.941   4.483
39924SOL    HW121546   9.000   0.894   4.564
39924SOL    HW221547   9.006   0.882   4.413
39925SOL     OW21548  11.133   0.396   6.270
39925SOL    HW121549  11.158   0.354   6.352
39925SOL    HW221550  11.056   0.448   6.291
39926SOL     OW21551   0.157   5.062  10.096
39926SOL    HW121552   0.109   4.991  10.139
39926SOL    HW221553   0.111   5.142  10.122
39927SOL     OW21554   2.442   6.246  10.249
39927SOL    HW121555   2.463   6.299  10.173
39927SOL    HW221556   2.362   6.200  10.225
39928SOL     OW21557   0.919  14.318   2.783
39928SOL    HW121558   0.824  14.314   2.791
39928SOL    HW221559   0.952  14.279   2.864
39929SOL     OW21560  13.873   0.338   6.717
39929SOL    HW121561  13.939   0.392   6.674
39929SOL    HW221562  13.916   0.253   6.729
39930SOL     OW21563   7.626   7.427  10.108
39930SOL    HW121564   7.574   7.361  10.062
39930SOL    HW221565   7.562   7.477  10.158
39931SOL     OW21566   8.417  11.446  10.818
39931SOL    HW121567   8.441  11.409  10.903
39931SOL    HW221568   8.380  11.372  10.770
39932SOL     OW21569   5.505   1.781  10.616
39932SOL    HW121570   5.514   1.686  10.623
39932SOL    HW221571   5.434   1.794  10.554
39933SOL     OW21572   7.559  10.806   1.715
39933SOL    HW121573   7.557  10.848   1.629
39933SOL    HW221574   7.647  10.768   1.722
39934SOL     OW21575   6.990  10.930  13.629
39934SOL    HW121576   6.956  10.903  13.544
39934SOL    HW221577   7.084  10.938  13.616
39935SOL     OW21578  12.954   7.588   5.548
39935SOL    HW121579  12.994   7.578   5.462
39935SOL    HW221580  12.883   7.651   5.535
39936SOL     OW21581   8.396   7.514   4.298
39936SOL    HW121582   8.376   7.607   4.293
39936SOL    HW221583   8.310   7.471   4.293
39937SOL     OW21584  12.268   1.703   9.235
39937SOL    HW121585  12.261   1.798   9.229
39937SOL    HW221586  12.355   1.683   9.200
39938SOL     OW21587   2.840   3.510   1.459
39938SOL    HW121588   2.846   3.463   1.543
39938SOL    HW221589   2.930   3.513   1.428
39939SOL     OW21590  10.555   2.919  12.228
39939SOL    HW121591  10.650   2.915  12.217
39939SOL    HW221592  10.521   2.909  12.139
39940SOL     OW21593  13.800   1.676   1.092
39940SOL    HW121594  13.732   1.642   1.034
39940SOL    HW221595  13.779   1.639   1.178
39941SOL     OW21596  14.335   6.097  14.594
39941SOL    HW121597  14.328   6.142  14.679
39941SOL    HW221598  14.351   6.167  14.531
39942SOL     OW21599   5.608   8.477   3.716
39942SOL    HW121600   5.535   8.537   3.704
39942SOL    HW221601   5.568   8.390   3.717
39943SOL     OW21602   5.273  13.500   4.295
39943SOL    HW121603   5.263  13.480   4.389
39943SOL    HW221604   5.349  13.449   4.269
39944SOL     OW21605   6.624  13.529  11.019
39944SOL    HW121606   6.670  13.613  11.025
39944SOL    HW221607   6.692  13.466  10.997
39945SOL     OW21608   0.495  12.300   4.708
39945SOL    HW121609   0.496  12.282   4.614
39945SOL    HW221610   0.420  12.251   4.741
39946SOL     OW21611   8.171  13.747   7.694
39946SOL    HW121612   8.219  13.665   7.683
39946SOL    HW221613   8.207  13.784   7.775
39947SOL     OW21614   6.808  14.274   5.270
39947SOL    HW121615   6.888  14.321   5.246
39947SOL    HW221616   6.806  14.277   5.366
39948SOL     OW21617   6.984   2.396   9.500
39948SOL    HW121618   7.042   2.391   9.424
39948SOL    HW221619   7.018   2.469   9.551
39949SOL     OW21620   1.461   0.429   6.074
39949SOL    HW121621   1.521   0.365   6.111
39949SOL    HW221622   1.424   0.386   5.997
39950SOL     OW21623  13.798  10.218  10.303
39950SOL    HW121624  13.803  10.309  10.332
39950SOL    HW221625  13.790  10.168  10.384
39951SOL     OW21626   3.609   6.086   3.808
39951SOL    HW121627   3.607   6.171   3.764
39951SOL    HW221628   3.632   6.105   3.898
39952SOL     OW21629   1.570  12.967   7.490
39952SOL    HW121630   1.513  13.042   7.508
39952SOL    HW221631   1.525  12.893   7.531
39953SOL     OW21632   9.519   2.376  14.683
39953SOL    HW121633   9.439   2.350  14.636
39953SOL    HW221634   9.487   2.414  14.765
39954SOL     OW21635  12.177   0.257  14.736
39954SOL    HW121636  12.191   0.170  14.698
39954SOL    HW221637  12.093   0.285  14.701
39955SOL     OW21638  10.515   0.122   0.901
39955SOL    HW121639  10.544   0.151   0.815
39955SOL    HW221640  10.550   0.188   0.961
39956SOL     OW21641   9.495   0.378   1.097
39956SOL    HW121642   9.498   0.328   1.178
39956SOL    HW221643   9.483   0.469   1.124
39957SOL     OW21644   5.494   3.344   7.925
39957SOL    HW121645   5.537   3.424   7.895
39957SOL    HW221646   5.490   3.289   7.847
39958SOL     OW21647   9.356  14.352   6.108
39958SOL    HW121648   9.360  14.337   6.203
39958SOL    HW221649   9.287  14.294   6.078
39959SOL     OW21650   4.935  10.734   9.551
39959SOL    HW121651   4.998  10.728   9.623
39959SOL    HW221652   4.989  10.753   9.474
39960SOL     OW21653   1.166   3.660   9.922
39960SOL    HW121654   1.099   3.728   9.922
39960SOL    HW221655   1.249   3.708   9.922
39961SOL     OW21656   6.314  10.484   5.621
39961SOL    HW121657   6.391  10.541   5.630
39961SOL    HW221658   6.255  10.512   5.691
39962SOL     OW21659   9.821   7.036   0.894
39962SOL    HW121660   9.762   7.002   0.826
39962SOL    HW221661   9.811   6.976   0.967
39963SOL     OW21662   6.430   2.710   6.062
39963SOL    HW121663   6.426   2.800   6.094
39963SOL    HW221664   6.453   2.658   6.139
39964SOL     OW21665   6.572   2.138   4.989
39964SOL    HW121666   6.513   2.198   5.035
39964SOL    HW221667   6.659   2.172   5.007
39965SOL     OW21668  13.264   0.668   7.883
39965SOL    HW121669  13.244   0.604   7.815
39965SOL    HW221670  13.360   0.667   7.889
39966SOL     OW21671   7.652  12.802   2.225
39966SOL    HW121672   7.701  12.730   2.264
39966SOL    HW221673   7.708  12.879   2.237
39967SOL     OW21674  11.381   2.110   3.289
39967SOL    HW121675  11.460   2.056   3.285
39967SOL    HW221676  11.393   2.164   3.367
39968SOL     OW21677  11.216  10.000   1.511
39968SOL    HW121678  11.125   9.998   1.541
39968SOL    HW221679  11.268   9.994   1.592
39969SOL     OW21680   5.413   6.256   2.085
39969SOL    HW121681   5.431   6.350   2.084
39969SOL    HW221682   5.356   6.241   2.010
39970SOL     OW21683  11.077   5.696  11.655
39970SOL    HW121684  11.161   5.729  11.688
39970SOL    HW221685  11.016   5.708  11.728
39971SOL     OW21686   3.563  14.787  12.386
39971SOL    HW121687   3.516  14.870  12.400
39971SOL    HW221688   3.514  14.723  12.436
39972SOL     OW21689   1.767   6.601   5.791
39972SOL    HW121690   1.840   6.625   5.848
39972SOL    HW221691   1.705   6.674   5.799
39973SOL     OW21692   9.075   9.230  13.674
39973SOL    HW121693   9.086   9.229  13.769
39973SOL    HW221694   9.152   9.185  13.640
39974SOL     OW21695   3.435   9.873  12.716
39974SOL    HW121696   3.348   9.883  12.680
39974SOL    HW221697   3.478   9.957  12.700
39975SOL     OW21698   2.112   8.913  13.786
39975SOL    HW121699   2.060   8.986  13.819
39975SOL    HW221700   2.086   8.904  13.694
39976SOL     OW21701  13.481  13.972  13.309
39976SOL    HW121702  13.558  14.027  13.294
39976SOL    HW221703  13.418  14.001  13.244
39977SOL     OW21704   1.591   4.126  12.262
39977SOL    HW121705   1.583   4.033  12.241
39977SOL    HW221706   1.597   4.129  12.357
39978SOL     OW21707   3.090   7.119   8.187
39978SOL    HW121708   3.096   7.050   8.120
39978SOL    HW221709   3.152   7.092   8.255
39979SOL     OW21710   9.033  12.356  12.091
39979SOL    HW121711   8.938  12.352  12.085
39979SOL    HW221712   9.063  12.352  12.000
39980SOL     OW21713   4.380  14.117   2.546
39980SOL    HW121714   4.352  14.191   2.600
39980SOL    HW221715   4.434  14.156   2.477
39981SOL     OW21716  12.815   8.645   7.882
39981SOL    HW121717  12.885   8.591   7.919
39981SOL    HW221718  12.849   8.734   7.886
39982SOL     OW21719  12.379  14.520  12.044
39982SOL    HW121720  12.419  14.564  12.119
39982SOL    HW221721  12.331  14.588  11.997
39983SOL     OW21722   2.737   0.485   8.615
39983SOL    HW121723   2.819   0.438   8.603
39983SOL    HW221724   2.755   0.574   8.583
39984SOL     OW21725  11.079   9.662   5.137
39984SOL    HW121726  11.029   9.734   5.175
39984SOL    HW221727  11.037   9.583   5.170
39985SOL     OW21728   1.740   4.873  12.032
39985SOL    HW121729   1.796   4.903  12.104
39985SOL    HW221730   1.669   4.826  12.076
39986SOL     OW21731  13.804  12.420   5.527
39986SOL    HW121732  13.791  12.361   5.453
39986SOL    HW221733  13.896  12.446   5.522
39987SOL     OW21734   2.083   0.192   6.031
39987SOL    HW121735   2.005   0.246   6.038
39987SOL    HW221736   2.153   0.252   6.005
39988SOL     OW21737   0.575   2.509   9.654
39988SOL    HW121738   0.620   2.579   9.607
39988SOL    HW221739   0.645   2.448   9.680
39989SOL     OW21740   1.895   8.811   4.704
39989SOL    HW121741   1.898   8.853   4.790
39989SOL    HW221742   1.981   8.772   4.693
39990SOL     OW21743   7.863  11.440   0.910
39990SOL    HW121744   7.933  11.498   0.939
39990SOL    HW221745   7.783  11.492   0.918
39991SOL     OW21746  11.008   1.065   0.398
39991SOL    HW121747  11.041   0.976   0.411
39991SOL    HW221748  10.913   1.055   0.397
39992SOL     OW21749   7.921   0.467  10.356
39992SOL    HW121750   7.916   0.383  10.310
39992SOL    HW221751   7.946   0.443  10.445
39993SOL     OW21752   0.884   8.652   2.864
39993SOL    HW121753   0.844   8.662   2.950
39993SOL    HW221754   0.823   8.596   2.816
39994SOL     OW21755   2.760   7.156   9.700
39994SOL    HW121756   2.841   7.160   9.752
39994SOL    HW221757   2.713   7.081   9.737
39995SOL     OW21758   1.816   4.278   1.396
39995SOL    HW121759   1.799   4.351   1.337
39995SOL    HW221760   1.897   4.239   1.364
39996SOL     OW21761   8.127  11.245   4.081
39996SOL    HW121762   8.133  11.299   4.002
39996SOL    HW221763   8.134  11.308   4.153
39997SOL     OW21764   0.267   2.129  10.157
39997SOL    HW121765   0.205   2.190  10.197
39997SOL    HW221766   0.256   2.142  10.063
39998SOL     OW21767  10.597   7.551   0.739
39998SOL    HW121768  10.581   7.511   0.654
39998SOL    HW221769  10.613   7.644   0.720
39999SOL     OW21770  11.173   0.430  13.523
39999SOL    HW121771  11.098   0.378  13.551
39999SOL    HW221772  11.135   0.505  13.477
40000SOL     OW21773  12.779   5.860   2.129
40000SOL    HW121774  12.787   5.916   2.052
40000SOL    HW221775  12.772   5.920   2.203
40001SOL     OW21776   8.467   8.824   7.391
40001SOL    HW121777   8.438   8.736   7.412
40001SOL    HW221778   8.563   8.819   7.396
40002SOL     OW21779   3.893  14.062   8.683
40002SOL    HW121780   3.862  13.973   8.701
40002SOL    HW221781   3.953  14.052   8.609
40003SOL     OW21782   5.663   5.351  12.844
40003SOL    HW121783   5.686   5.338  12.752
40003SOL    HW221784   5.649   5.445  12.852
40004SOL     OW21785   4.915  10.949   6.764
40004SOL    HW121786   5.004  10.947   6.800
40004SOL    HW221787   4.905  10.864   6.721
40005SOL     OW21788   3.906   9.276   2.833
40005SOL    HW121789   3.928   9.218   2.905
40005SOL    HW221790   3.841   9.336   2.869
40006SOL     OW21791   0.041   8.559  10.965
40006SOL    HW121792   0.047   8.541  11.059
40006SOL    HW221793  14.843   8.611  10.955
40007SOL     OW21794   0.578   0.270  10.834
40007SOL    HW121795   0.504   0.222  10.798
40007SOL    HW221796   0.626   0.205  10.885
40008SOL     OW21797  11.861  14.073   2.557
40008SOL    HW121798  11.880  13.987   2.519
40008SOL    HW221799  11.862  14.057   2.652
40009SOL     OW21800   1.071   2.427   1.340
40009SOL    HW121801   1.033   2.436   1.427
40009SOL    HW221802   1.061   2.514   1.300
40010SOL     OW21803   1.305  13.705   9.204
40010SOL    HW121804   1.367  13.667   9.142
40010SOL    HW221805   1.325  13.664   9.288
40011SOL     OW21806  10.043  11.085  12.230
40011SOL    HW121807   9.954  11.119  12.217
40011SOL    HW221808  10.087  11.154  12.280
40012SOL     OW21809   1.727   1.847   8.018
40012SOL    HW121810   1.705   1.940   8.026
40012SOL    HW221811   1.813   1.847   7.976
40013SOL     OW21812  13.170   9.544   0.906
40013SOL    HW121813  13.168   9.449   0.911
40013SOL    HW221814  13.223   9.563   0.828
40014SOL     OW21815   9.231   0.075  10.367
40014SOL    HW121816   9.143   0.056  10.400
40014SOL    HW221817   9.289   0.043  10.436
40015SOL     OW21818  11.979  13.721   5.767
40015SOL    HW121819  11.967  13.629   5.791
40015SOL    HW221820  11.958  13.724   5.673
40016SOL     OW21821   3.042   7.344  14.755
40016SOL    HW121822   3.124   7.334  14.708
40016SOL    HW221823   2.996   7.261  14.742
40017SOL     OW21824   2.148   5.995   6.432
40017SOL    HW121825   2.058   6.028   6.441
40017SOL    HW221826   2.172   6.018   6.342
40018SOL     OW21827   7.372   3.252   1.144
40018SOL    HW121828   7.381   3.244   1.239
40018SOL    HW221829   7.314   3.326   1.131
40019SOL     OW21830  13.740   4.053   3.123
40019SOL    HW121831  13.757   4.013   3.038
40019SOL    HW221832  13.667   4.003   3.160
40020SOL     OW21833   4.263   1.467   1.049
40020SOL    HW121834   4.227   1.517   0.976
40020SOL    HW221835   4.356   1.491   1.050
40021SOL     OW21836   5.418   2.696   6.333
40021SOL    HW121837   5.416   2.654   6.419
40021SOL    HW221838   5.464   2.778   6.347
40022SOL     OW21839   7.281   6.457   2.485
40022SOL    HW121840   7.228   6.379   2.470
40022SOL    HW221841   7.261   6.514   2.411
40023SOL     OW21842   6.452  13.175   3.897
40023SOL    HW121843   6.505  13.173   3.977
40023SOL    HW221844   6.424  13.267   3.890
40024SOL     OW21845   1.441   1.264   5.053
40024SOL    HW121846   1.518   1.318   5.073
40024SOL    HW221847   1.473   1.174   5.054
40025SOL     OW21848  10.583   8.681  11.332
40025SOL    HW121849  10.564   8.734  11.410
40025SOL    HW221850  10.557   8.592  11.358
40026SOL     OW21851   4.182   3.997   7.304
40026SOL    HW121852   4.133   4.076   7.329
40026SOL    HW221853   4.186   4.000   7.209
40027SOL     OW21854   9.837  10.046  11.242
40027SOL    HW121855   9.770  10.071  11.306
40027SOL    HW221856   9.860   9.956  11.265
40028SOL     OW21857   5.894   7.876   0.470
40028SOL    HW121858   5.912   7.899   0.379
40028SOL    HW221859   5.873   7.960   0.512
40029SOL     OW21860   1.375   8.993  11.056
40029SOL    HW121861   1.370   9.076  11.104
40029SOL    HW221862   1.432   9.012  10.981
40030SOL     OW21863  11.755   6.264   6.264
40030SOL    HW121864  11.761   6.332   6.331
40030SOL    HW221865  11.765   6.311   6.181
40031SOL     OW21866  10.197   4.224   2.121
40031SOL    HW121867  10.288   4.241   2.143
40031SOL    HW221868  10.156   4.310   2.121
40032SOL     OW21869   5.556  10.479   8.805
40032SOL    HW121870   5.647  10.468   8.776
40032SOL    HW221871   5.507  10.414   8.757
40033SOL     OW21872   6.137   3.617  11.466
40033SOL    HW121873   6.125   3.672  11.544
40033SOL    HW221874   6.056   3.627  11.417
40034SOL     OW21875   7.460   8.388   6.390
40034SOL    HW121876   7.483   8.391   6.297
40034SOL    HW221877   7.388   8.450   6.399
40035SOL     OW21878  14.040   6.060   1.828
40035SOL    HW121879  14.097   6.082   1.754
40035SOL    HW221880  14.098   6.063   1.904
40036SOL     OW21881   8.703   0.102   5.495
40036SOL    HW121882   8.634   0.076   5.556
40036SOL    HW221883   8.681   0.192   5.471
40037SOL     OW21884  13.093   6.356  11.924
40037SOL    HW121885  13.029   6.427  11.934
40037SOL    HW221886  13.129   6.343  12.012
40038SOL     OW21887   4.580   2.562   8.787
40038SOL    HW121888   4.539   2.487   8.829
40038SOL    HW221889   4.667   2.532   8.763
40039SOL     OW21890  14.415   8.442  14.020
40039SOL    HW121891  14.505   8.410  14.009
40039SOL    HW221892  14.399   8.495  13.941
40040SOL     OW21893   1.391   0.762   8.375
40040SOL    HW121894   1.319   0.812   8.337
40040SOL    HW221895   1.400   0.796   8.464
40041SOL     OW21896  11.372   3.774   6.578
40041SOL    HW121897  11.403   3.829   6.650
40041SOL    HW221898  11.426   3.800   6.503
40042SOL     OW21899   8.414   9.554  12.966
40042SOL    HW121900   8.380   9.631  12.921
40042SOL    HW221901   8.340   9.518  13.014
40043SOL     OW21902   4.233  14.314   9.026
40043SOL    HW121903   4.138  14.309   9.011
40043SOL    HW221904   4.263  14.224   9.012
40044SOL     OW21905  12.099   2.892   0.290
40044SOL    HW121906  12.057   2.862   0.370
40044SOL    HW221907  12.173   2.945   0.320
40045SOL     OW21908   1.024  13.932   6.718
40045SOL    HW121909   1.098  13.993   6.714
40045SOL    HW221910   1.060  13.849   6.685
40046SOL     OW21911   6.961   0.274  11.663
40046SOL    HW121912   6.965   0.179  11.674
40046SOL    HW221913   7.049   0.299  11.635
40047SOL     OW21914   8.731   3.786   6.264
40047SOL    HW121915   8.754   3.694   6.273
40047SOL    HW221916   8.763   3.827   6.344
40048SOL     OW21917   0.665   5.724   4.991
40048SOL    HW121918   0.685   5.757   5.079
40048SOL    HW221919   0.746   5.739   4.942
40049SOL     OW21920   1.972   5.884   8.655
40049SOL    HW121921   1.967   5.930   8.572
40049SOL    HW221922   2.009   5.947   8.716
40050SOL     OW21923   4.746   5.243   9.836
40050SOL    HW121924   4.668   5.235   9.891
40050SOL    HW221925   4.739   5.330   9.796
40051SOL     OW21926   0.130   2.167  13.746
40051SOL    HW121927   0.149   2.075  13.732
40051SOL    HW221928   0.196   2.196  13.810
40052SOL     OW21929   1.590   1.031  14.453
40052SOL    HW121930   1.652   0.982  14.507
40052SOL    HW221931   1.507   1.025  14.500
40053SOL     OW21932   6.650   4.854  10.899
40053SOL    HW121933   6.648   4.909  10.978
40053SOL    HW221934   6.561   4.819  10.892
40054SOL     OW21935   1.136   5.682   2.307
40054SOL    HW121936   1.130   5.655   2.399
40054SOL    HW221937   1.162   5.774   2.310
40055SOL     OW21938   8.886   1.066  12.643
40055SOL    HW121939   8.939   1.141  12.668
40055SOL    HW221940   8.862   1.025  12.726
40056SOL     OW21941   1.510   1.674   6.227
40056SOL    HW121942   1.545   1.743   6.283
40056SOL    HW221943   1.563   1.597   6.247
40057SOL     OW21944  10.460   4.593   9.681
40057SOL    HW121945  10.510   4.602   9.600
40057SOL    HW221946  10.526   4.603   9.750
40058SOL     OW21947  10.133  13.958  14.371
40058SOL    HW121948  10.201  14.020  14.399
40058SOL    HW221949  10.126  13.971  14.277
40059SOL     OW21950   5.966   0.796   2.550
40059SOL    HW121951   5.926   0.756   2.628
40059SOL    HW221952   5.921   0.754   2.477
40060SOL     OW21953   5.861  14.636   6.030
40060SOL    HW121954   5.887  14.608   5.942
40060SOL    HW221955   5.943  14.667   6.069
40061SOL     OW21956   5.429  10.312   8.626
40061SOL    HW121957   5.370  10.350   8.561
40061SOL    HW221958   5.431  10.218   8.605
40062SOL     OW21959   1.145   8.893   3.826
40062SOL    HW121960   1.101   8.868   3.744
40062SOL    HW221961   1.151   8.811   3.875
40063SOL     OW21962  12.404   3.603   7.703
40063SOL    HW121963  12.354   3.522   7.696
40063SOL    HW221964  12.464   3.601   7.629
40064SOL     OW21965   0.112   7.529   1.411
40064SOL    HW121966   0.024   7.568   1.410
40064SOL    HW221967   0.137   7.523   1.319
40065SOL     OW21968   7.060   5.672  11.422
40065SOL    HW121969   7.046   5.663  11.516
40065SOL    HW221970   7.133   5.613  11.403
40066SOL     OW21971   4.860   6.131   7.481
40066SOL    HW121972   4.774   6.164   7.456
40066SOL    HW221973   4.921   6.181   7.427
40067SOL     OW21974   8.241   8.753   1.262
40067SOL    HW121975   8.336   8.752   1.276
40067SOL    HW221976   8.211   8.830   1.311
40068SOL     OW21977   6.997  10.745   5.582
40068SOL    HW121978   7.068  10.681   5.586
40068SOL    HW221979   7.029  10.812   5.521
40069SOL     OW21980  12.363   7.639   8.464
40069SOL    HW121981  12.426   7.590   8.411
40069SOL    HW221982  12.364   7.595   8.549
40070SOL     OW21983   4.388   2.976   4.451
40070SOL    HW121984   4.428   3.049   4.404
40070SOL    HW221985   4.298   2.973   4.420
40071SOL     OW21986   0.581  10.893  12.192
40071SOL    HW121987   0.527  10.896  12.113
40071SOL    HW221988   0.520  10.877  12.263
40072SOL     OW21989   4.631  12.362  11.016
40072SOL    HW121990   4.701  12.414  11.056
40072SOL    HW221991   4.676  12.286  10.979
40073SOL     OW21992  14.639   1.784   2.803
40073SOL    HW121993  14.610   1.728   2.731
40073SOL    HW221994  14.565   1.843   2.818
40074SOL     OW21995   2.898  12.157   3.365
40074SOL    HW121996   2.836  12.215   3.411
40074SOL    HW221997   2.978  12.164   3.416
40075SOL     OW21998  11.772   6.584   6.861
40075SOL    HW121999  11.743   6.553   6.947
40075SOL    HW222000  11.826   6.512   6.828
40076SOL     OW22001   1.436  12.726   6.107
40076SOL    HW122002   1.401  12.658   6.051
40076SOL    HW222003   1.359  12.774   6.137
40077SOL     OW22004   5.582  12.867   5.967
40077SOL    HW122005   5.587  12.943   5.909
40077SOL    HW222006   5.655  12.811   5.941
40078SOL     OW22007   1.583  10.564   0.284
40078SOL    HW122008   1.530  10.623   0.338
40078SOL    HW222009   1.635  10.623   0.228
40079SOL     OW22010   1.791   4.889  14.849
40079SOL    HW122011   1.816   4.842  14.769
40079SOL    HW222012   1.868   4.882   0.024
40080SOL     OW22013  11.433   2.154   1.276
40080SOL    HW122014  11.510   2.142   1.330
40080SOL    HW222015  11.360   2.159   1.338
40081SOL     OW22016   0.243   3.206  13.666
40081SOL    HW122017   0.233   3.162  13.751
40081SOL    HW222018   0.231   3.299  13.686
40082SOL     OW22019   6.415  14.753   5.242
40082SOL    HW122020   6.387  14.705   5.164
40082SOL    HW222021   6.388  14.844   5.225
40083SOL     OW22022  11.789  10.110   4.924
40083SOL    HW122023  11.816  10.031   4.876
40083SOL    HW222024  11.713  10.142   4.875
40084SOL     OW22025  10.242   4.052   0.552
40084SOL    HW122026  10.314   4.111   0.530
40084SOL    HW222027  10.285   3.971   0.579
40085SOL     OW22028   1.988   7.388   0.768
40085SOL    HW122029   1.961   7.322   0.705
40085SOL    HW222030   2.014   7.463   0.715
40086SOL     OW22031  14.432  12.286  11.945
40086SOL    HW122032  14.381  12.216  11.903
40086SOL    HW222033  14.367  12.353  11.966
40087SOL     OW22034  12.235  14.800   9.733
40087SOL    HW122035  12.299  14.769   9.669
40087SOL    HW222036  12.236   0.014   9.723
40088SOL     OW22037   2.464   0.297   3.252
40088SOL    HW122038   2.424   0.342   3.178
40088SOL    HW222039   2.394   0.244   3.290
40089SOL     OW22040   4.560  14.209   6.100
40089SOL    HW122041   4.592  14.119   6.089
40089SOL    HW222042   4.627  14.251   6.154
40090SOL     OW22043  10.513   0.919   5.008
40090SOL    HW122044  10.526   1.014   5.013
40090SOL    HW222045  10.479   0.895   5.094
40091SOL     OW22046   2.497   2.465   2.856
40091SOL    HW122047   2.425   2.426   2.906
40091SOL    HW222048   2.559   2.393   2.843
40092SOL     OW22049  10.902  11.784  11.422
40092SOL    HW122050  10.930  11.698  11.392
40092SOL    HW222051  10.903  11.778  11.517
40093SOL     OW22052   0.994  11.873   4.283
40093SOL    HW122053   1.071  11.921   4.314
40093SOL    HW222054   0.923  11.937   4.284
40094SOL     OW22055   4.761   8.037   3.976
40094SOL    HW122056   4.833   8.080   4.023
40094SOL    HW222057   4.772   7.944   3.996
40095SOL     OW22058   5.464  13.750   2.467
40095SOL    HW122059   5.458  13.684   2.397
40095SOL    HW222060   5.424  13.828   2.430
40096SOL     OW22061   2.257   4.072  11.889
40096SOL    HW122062   2.222   4.001  11.835
40096SOL    HW222063   2.223   4.055  11.977
40097SOL     OW22064  13.895  13.277  12.167
40097SOL    HW122065  13.961  13.228  12.216
40097SOL    HW222066  13.851  13.210  12.114
40098SOL     OW22067  10.678   6.585   9.279
40098SOL    HW122068  10.750   6.640   9.308
40098SOL    HW222069  10.679   6.510   9.340
40099SOL     OW22070   8.259   5.295  12.300
40099SOL    HW122071   8.248   5.356  12.227
40099SOL    HW222072   8.264   5.351  12.378
40100SOL     OW22073   2.053  13.963   7.133
40100SOL    HW122074   2.077  13.877   7.098
40100SOL    HW222075   2.074  13.958   7.226
40101SOL     OW22076   5.619   3.990  11.873
40101SOL    HW122077   5.541   3.941  11.899
40101SOL    HW222078   5.589   4.081  11.867
40102SOL     OW22079  14.420  13.653  13.787
40102SOL    HW122080  14.482  13.685  13.853
40102SOL    HW222081  14.459  13.571  13.757
40103SOL     OW22082  11.037   9.083   8.333
40103SOL    HW122083  10.963   9.023   8.330
40103SOL    HW222084  10.998   9.170   8.323
40104SOL     OW22085   8.935   9.547   5.099
40104SOL    HW122086   9.028   9.543   5.075
40104SOL    HW222087   8.889   9.510   5.024
40105SOL     OW22088   7.681  10.635   5.947
40105SOL    HW122089   7.613  10.612   6.010
40105SOL    HW222090   7.689  10.557   5.891
40106SOL     OW22091  13.976   3.418   4.743
40106SOL    HW122092  14.059   3.460   4.761
40106SOL    HW222093  13.911   3.488   4.750
40107SOL     OW22094  14.312  12.175   9.857
40107SOL    HW122095  14.257  12.118   9.911
40107SOL    HW222096  14.369  12.115   9.810
40108SOL     OW22097   8.034   7.150   1.925
40108SOL    HW122098   8.080   7.089   1.866
40108SOL    HW222099   7.945   7.155   1.889
40109SOL     OW22100  12.511  14.795   4.484
40109SOL    HW122101  12.517   0.005   4.455
40109SOL    HW222102  12.570  14.748   4.427
40110SOL     OW22103   3.639   4.314   9.134
40110SOL    HW122104   3.651   4.406   9.158
40110SOL    HW222105   3.627   4.316   9.039
40111SOL     OW22106  13.873  12.947   8.407
40111SOL    HW122107  13.911  13.035   8.412
40111SOL    HW222108  13.823  12.937   8.488
40112SOL     OW22109  13.030   7.960   0.362
40112SOL    HW122110  13.073   7.927   0.283
40112SOL    HW222111  13.066   8.048   0.374
40113SOL     OW22112   9.092   8.806   0.920
40113SOL    HW122113   9.186   8.798   0.931
40113SOL    HW222114   9.071   8.894   0.953
40114SOL     OW22115   2.123   3.507   1.748
40114SOL    HW122116   2.182   3.459   1.690
40114SOL    HW222117   2.066   3.440   1.784
40115SOL     OW22118   4.821  11.230  11.485
40115SOL    HW122119   4.740  11.272  11.513
40115SOL    HW222120   4.870  11.216  11.566
40116SOL     OW22121   4.423   3.137   1.771
40116SOL    HW122122   4.479   3.153   1.847
40116SOL    HW222123   4.364   3.213   1.769
40117SOL     OW22124  11.479   8.420  12.137
40117SOL    HW122125  11.537   8.351  12.170
40117SOL    HW222126  11.422   8.375  12.074
40118SOL     OW22127   5.353  11.675   1.828
40118SOL    HW122128   5.310  11.641   1.907
40118SOL    HW222129   5.297  11.646   1.756
40119SOL     OW22130   9.205  11.203   1.566
40119SOL    HW122131   9.131  11.204   1.627
40119SOL    HW222132   9.219  11.110   1.546
40120SOL     OW22133   2.552   5.021  14.445
40120SOL    HW122134   2.610   4.973  14.504
40120SOL    HW222135   2.497   5.073  14.503
40121SOL     OW22136   4.162   2.215   0.401
40121SOL    HW122137   4.201   2.146   0.454
40121SOL    HW222138   4.185   2.193   0.311
40122SOL     OW22139  10.286  13.477   3.958
40122SOL    HW122140  10.297  13.571   3.950
40122SOL    HW222141  10.372  13.440   3.936
40123SOL     OW22142   4.753   7.968  10.094
40123SOL    HW122143   4.793   8.032  10.154
40123SOL    HW222144   4.828   7.928  10.050
40124SOL     OW22145   5.561  11.879   7.087
40124SOL    HW122146   5.634  11.820   7.069
40124SOL    HW222147   5.557  11.936   7.009
40125SOL     OW22148   8.823   8.836  12.680
40125SOL    HW122149   8.919   8.826  12.680
40125SOL    HW222150   8.803   8.873  12.766
40126SOL     OW22151   1.888   2.520  14.089
40126SOL    HW122152   1.802   2.530  14.129
40126SOL    HW222153   1.936   2.598  14.116
40127SOL     OW22154   2.191   9.607  12.138
40127SOL    HW122155   2.109   9.630  12.095
40127SOL    HW222156   2.223   9.690  12.174
40128SOL     OW22157   5.251   8.905   6.939
40128SOL    HW122158   5.342   8.923   6.917
40128SOL    HW222159   5.234   8.959   7.016
40129SOL     OW22160   2.762   4.965  14.074
40129SOL    HW122161   2.751   5.060  14.066
40129SOL    HW222162   2.741   4.931  13.987
40130SOL     OW22163   5.006   0.539   3.003
40130SOL    HW122164   4.992   0.632   3.023
40130SOL    HW222165   5.057   0.506   3.077
40131SOL     OW22166  10.330   5.924   9.843
40131SOL    HW122167  10.300   5.834   9.854
40131SOL    HW222168  10.268   5.976   9.893
40132SOL     OW22169   4.117   2.246   2.971
40132SOL    HW122170   4.136   2.218   2.882
40132SOL    HW222171   4.195   2.222   3.021
40133SOL     OW22172   1.396   7.152   3.204
40133SOL    HW122173   1.466   7.172   3.142
40133SOL    HW222174   1.324   7.209   3.178
40134SOL     OW22175   9.158  12.863  11.784
40134SOL    HW122176   9.210  12.816  11.849
40134SOL    HW222177   9.104  12.795  11.743
40135SOL     OW22178   5.529  13.685  13.946
40135SOL    HW122179   5.558  13.765  13.989
40135SOL    HW222180   5.597  13.667  13.881
40136SOL     OW22181  13.004  11.394   9.658
40136SOL    HW122182  12.913  11.424   9.659
40136SOL    HW222183  13.034  11.407   9.748
40137SOL     OW22184   2.592   9.442   1.797
40137SOL    HW122185   2.582   9.351   1.826
40137SOL    HW222186   2.650   9.437   1.721
40138SOL     OW22187  10.809   1.969   0.318
40138SOL    HW122188  10.843   2.058   0.307
40138SOL    HW222189  10.881   1.920   0.357
40139SOL     OW22190   6.871  12.321  14.269
40139SOL    HW122191   6.872  12.292  14.360
40139SOL    HW222192   6.789  12.369  14.260
40140SOL     OW22193  10.399   1.014  13.964
40140SOL    HW122194  10.368   1.053  14.045
40140SOL    HW222195  10.357   1.065  13.895
40141SOL     OW22196   8.698   0.919   1.253
40141SOL    HW122197   8.736   0.832   1.262
40141SOL    HW222198   8.606   0.908   1.276
40142SOL     OW22199   9.518  12.042   0.980
40142SOL    HW122200   9.562  11.997   1.052
40142SOL    HW222201   9.453  11.979   0.948
40143SOL     OW22202   0.527   3.578   1.689
40143SOL    HW122203   0.562   3.551   1.604
40143SOL    HW222204   0.602   3.617   1.734
40144SOL     OW22205   0.215   3.130   2.302
40144SOL    HW122206   0.246   3.163   2.218
40144SOL    HW222207   0.139   3.076   2.280
40145SOL     OW22208  13.324   8.267   6.132
40145SOL    HW122209  13.385   8.331   6.169
40145SOL    HW222210  13.361   8.182   6.155
40146SOL     OW22211   2.321   4.352  11.037
40146SOL    HW122212   2.312   4.436  11.082
40146SOL    HW222213   2.349   4.291  11.105
40147SOL     OW22214  13.530   5.002  10.813
40147SOL    HW122215  13.438   5.017  10.795
40147SOL    HW222216  13.574   5.083  10.787
40148SOL     OW22217   6.305   8.748  13.931
40148SOL    HW122218   6.248   8.686  13.885
40148SOL    HW222219   6.276   8.834  13.900
40149SOL     OW22220  10.088  14.677  10.510
40149SOL    HW122221  10.014  14.662  10.451
40149SOL    HW222222  10.091  14.772  10.522
40150SOL     OW22223  14.871   3.670   0.302
40150SOL    HW122224  14.788   3.674   0.254
40150SOL    HW222225   0.022   3.582   0.286
40151SOL     OW22226   7.009   6.749   1.767
40151SOL    HW122227   7.020   6.661   1.731
40151SOL    HW222228   6.959   6.797   1.701
40152SOL     OW22229   1.357   4.115   5.067
40152SOL    HW122230   1.370   4.196   5.117
40152SOL    HW222231   1.440   4.101   5.022
40153SOL     OW22232  14.338   0.793  14.267
40153SOL    HW122233  14.401   0.744  14.320
40153SOL    HW222234  14.259   0.738  14.267
40154SOL     OW22235   4.669   2.442   0.965
40154SOL    HW122236   4.731   2.428   0.894
40154SOL    HW222237   4.613   2.513   0.935
40155SOL     OW22238  10.136   0.615   9.021
40155SOL    HW122239  10.187   0.546   8.979
40155SOL    HW222240  10.175   0.625   9.108
40156SOL     OW22241  12.187  13.406   9.067
40156SOL    HW122242  12.152  13.434   8.983
40156SOL    HW222243  12.187  13.310   9.063
40157SOL     OW22244  14.512   9.128   9.940
40157SOL    HW122245  14.558   9.050   9.971
40157SOL    HW222246  14.421   9.099   9.929
40158SOL     OW22247   0.807  11.105  14.221
40158SOL    HW122248   0.889  11.142  14.255
40158SOL    HW222249   0.823  11.011  14.216
40159SOL     OW22250  10.058  14.875   9.449
40159SOL    HW122251  10.127  14.819   9.414
40159SOL    HW222252   9.986  14.865   9.388
40160SOL     OW22253  10.359   5.505  11.561
40160SOL    HW122254  10.409   5.452  11.623
40160SOL    HW222255  10.308   5.564  11.616
40161SOL     OW22256   4.178   5.635   2.886
40161SOL    HW122257   4.174   5.666   2.976
40161SOL    HW222258   4.268   5.604   2.875
40162SOL     OW22259   2.359   4.413  14.595
40162SOL    HW122260   2.327   4.393  14.507
40162SOL    HW222261   2.283   4.398  14.652
40163SOL     OW22262  14.646   5.048   9.427
40163SOL    HW122263  14.562   5.093   9.423
40163SOL    HW222264  14.662   5.034   9.520
40164SOL     OW22265  11.334  11.763  11.492
40164SOL    HW122266  11.284  11.683  11.476
40164SOL    HW222267  11.425  11.737  11.487
40165SOL     OW22268  12.496   4.515  10.329
40165SOL    HW122269  12.527   4.524  10.419
40165SOL    HW222270  12.404   4.540  10.332
40166SOL     OW22271  10.636  14.282   1.325
40166SOL    HW122272  10.588  14.242   1.252
40166SOL    HW222273  10.610  14.374   1.323
40167SOL     OW22274   5.133   8.115  12.027
40167SOL    HW122275   5.156   8.056  11.955
40167SOL    HW222276   5.082   8.185  11.985
40168SOL     OW22277  10.963   2.965  10.856
40168SOL    HW122278  11.022   2.915  10.913
40168SOL    HW222279  10.997   3.055  10.859
40169SOL     OW22280   2.292   1.864   5.954
40169SOL    HW122281   2.214   1.913   5.981
40169SOL    HW222282   2.364   1.906   6.000
40170SOL     OW22283   6.860  11.753   2.802
40170SOL    HW122284   6.882  11.659   2.801
40170SOL    HW222285   6.884  11.784   2.715
40171SOL     OW22286   9.767   7.336  12.529
40171SOL    HW122287   9.772   7.424  12.491
40171SOL    HW222288   9.761   7.351  12.623
40172SOL     OW22289  12.389   8.590  10.742
40172SOL    HW122290  12.407   8.554  10.829
40172SOL    HW222291  12.301   8.627  10.749
40173SOL     OW22292   4.695   5.646   4.013
40173SOL    HW122293   4.755   5.687   4.075
40173SOL    HW222294   4.692   5.554   4.039
40174SOL     OW22295   4.063   9.910   0.334
40174SOL    HW122296   4.096   9.999   0.345
40174SOL    HW222297   4.116   9.872   0.265
40175SOL     OW22298   7.262  10.373   8.422
40175SOL    HW122299   7.231  10.411   8.339
40175SOL    HW222300   7.182  10.344   8.465
40176SOL     OW22301  12.592   5.178   8.982
40176SOL    HW122302  12.542   5.256   9.007
40176SOL    HW222303  12.532   5.127   8.928
40177SOL     OW22304   6.183  10.225  10.624
40177SOL    HW122305   6.118  10.161  10.598
40177SOL    HW222306   6.267  10.187  10.598
40178SOL     OW22307   3.224  11.016   0.159
40178SOL    HW122308   3.199  10.938   0.207
40178SOL    HW222309   3.319  11.009   0.151
40179SOL     OW22310   2.100   7.543   4.267
40179SOL    HW122311   2.036   7.478   4.297
40179SOL    HW222312   2.069   7.626   4.304
40180SOL     OW22313   7.887   3.717  10.680
40180SOL    HW122314   7.812   3.724  10.622
40180SOL    HW222315   7.856   3.663  10.753
40181SOL     OW22316  10.993  10.820  13.366
40181SOL    HW122317  10.909  10.866  13.360
40181SOL    HW222318  11.015  10.800  13.275
40182SOL     OW22319   8.400   3.740  11.917
40182SOL    HW122320   8.413   3.829  11.951
40182SOL    HW222321   8.461   3.734  11.843
40183SOL     OW22322  13.742  12.528   9.180
40183SOL    HW122323  13.734  12.436   9.203
40183SOL    HW222324  13.652  12.561   9.180
40184SOL     OW22325   5.371  14.663   5.375
40184SOL    HW122326   5.310  14.618   5.317
40184SOL    HW222327   5.451  14.672   5.323
40185SOL     OW22328  11.598   2.391   3.751
40185SOL    HW122329  11.644   2.312   3.779
40185SOL    HW222330  11.525   2.399   3.812
40186SOL     OW22331   5.372  14.149   7.155
40186SOL    HW122332   5.444  14.212   7.145
40186SOL    HW222333   5.407  14.082   7.215
40187SOL     OW22334   0.655   5.149   7.238
40187SOL    HW122335   0.599   5.183   7.168
40187SOL    HW222336   0.703   5.077   7.198
40188SOL     OW22337  12.485   1.549  14.662
40188SOL    HW122338  12.551   1.594  14.609
40188SOL    HW222339  12.402   1.578  14.626
40189SOL     OW22340  10.138  14.329   5.988
40189SOL    HW122341  10.050  14.297   5.966
40189SOL    HW222342  10.196  14.281   5.929
40190SOL     OW22343   4.660   6.102   6.006
40190SOL    HW122344   4.646   6.165   6.077
40190SOL    HW222345   4.701   6.026   6.048
40191SOL     OW22346   9.912  11.190   5.495
40191SOL    HW122347   9.972  11.144   5.436
40191SOL    HW222348   9.955  11.274   5.512
40192SOL     OW22349  10.900   4.655  14.796
40192SOL    HW122350  10.974   4.596  14.785
40192SOL    HW222351  10.875   4.646   0.007
40193SOL     OW22352  14.756   9.928   9.455
40193SOL    HW122353  14.669   9.950   9.489
40193SOL    HW222354  14.769   9.837   9.479
40194SOL     OW22355  13.642   0.359   1.979
40194SOL    HW122356  13.606   0.271   1.975
40194SOL    HW222357  13.682   0.373   1.893
40195SOL     OW22358  10.307   7.491   6.234
40195SOL    HW122359  10.222   7.534   6.231
40195SOL    HW222360  10.326   7.480   6.328
40196SOL     OW22361  12.123   9.463   9.793
40196SOL    HW122362  12.071   9.523   9.740
40196SOL    HW222363  12.175   9.521   9.850
40197SOL     OW22364   6.172   4.727   5.703
40197SOL    HW122365   6.209   4.795   5.646
40197SOL    HW222366   6.243   4.664   5.714
40198SOL     OW22367   4.507  14.513   4.918
40198SOL    HW122368   4.436  14.470   4.870
40198SOL    HW222369   4.536  14.583   4.860
40199SOL     OW22370  10.817   2.778  11.222
40199SOL    HW122371  10.734   2.732  11.206
40199SOL    HW222372  10.883   2.720  11.184
40200SOL     OW22373   6.104  13.438   6.600
40200SOL    HW122374   6.113  13.532   6.615
40200SOL    HW222375   6.187  13.412   6.558
40201SOL     OW22376   0.194   6.718  10.621
40201SOL    HW122377   0.249   6.786  10.661
40201SOL    HW222378   0.134   6.692  10.691
40202SOL     OW22379  11.828   8.383   3.154
40202SOL    HW122380  11.896   8.315   3.158
40202SOL    HW222381  11.760   8.352   3.215
40203SOL     OW22382   2.939  13.760   3.922
40203SOL    HW122383   2.967  13.849   3.943
40203SOL    HW222384   2.878  13.771   3.849
40204SOL     OW22385   5.986  11.773   4.891
40204SOL    HW122386   6.025  11.754   4.806
40204SOL    HW222387   5.908  11.826   4.869
40205SOL     OW22388   9.853   9.871   3.856
40205SOL    HW122389   9.940   9.894   3.824
40205SOL    HW222390   9.829   9.793   3.806
40206SOL     OW22391   6.899   1.262   3.693
40206SOL    HW122392   6.873   1.201   3.624
40206SOL    HW222393   6.859   1.227   3.773
40207SOL     OW22394  12.119   1.858  13.028
40207SOL    HW122395  12.171   1.882  12.951
40207SOL    HW222396  12.030   1.851  12.995
40208SOL     OW22397   2.334   1.018   7.331
40208SOL    HW122398   2.242   1.043   7.325
40208SOL    HW222399   2.363   1.015   7.240
40209SOL     OW22400   6.947  10.684  14.297
40209SOL    HW122401   6.942  10.612  14.360
40209SOL    HW222402   7.002  10.651  14.226
40210SOL     OW22403  14.321   6.174  12.135
40210SOL    HW122404  14.407   6.142  12.109
40210SOL    HW222405  14.300   6.242  12.070
40211SOL     OW22406  13.503   9.897   1.238
40211SOL    HW122407  13.533   9.988   1.235
40211SOL    HW222408  13.412   9.900   1.209
40212SOL     OW22409  11.387   9.949  13.078
40212SOL    HW122410  11.386   9.886  13.005
40212SOL    HW222411  11.478   9.977  13.084
40213SOL     OW22412  13.667  13.433  14.826
40213SOL    HW122413  13.690  13.429  14.734
40213SOL    HW222414  13.661  13.342  14.854
40214SOL     OW22415   9.500  12.817   2.644
40214SOL    HW122416   9.477  12.748   2.707
40214SOL    HW222417   9.519  12.770   2.563
40215SOL     OW22418   8.847   0.718   2.438
40215SOL    HW122419   8.916   0.741   2.500
40215SOL    HW222420   8.892   0.668   2.370
40216SOL     OW22421   6.201   1.031  12.454
40216SOL    HW122422   6.260   1.094  12.495
40216SOL    HW222423   6.123   1.031  12.510
40217SOL     OW22424   4.106  12.718  13.460
40217SOL    HW122425   4.087  12.811  13.469
40217SOL    HW222426   4.195  12.715  13.426
40218SOL     OW22427   7.520   2.843   7.682
40218SOL    HW122428   7.585   2.870   7.616
40218SOL    HW222429   7.559   2.765   7.722
40219SOL     OW22430   7.899   7.201   8.633
40219SOL    HW122431   7.917   7.229   8.723
40219SOL    HW222432   7.804   7.207   8.624
40220SOL     OW22433   3.941  13.795  11.193
40220SOL    HW122434   3.871  13.730  11.182
40220SOL    HW222435   3.933  13.852  11.116
40221SOL     OW22436  14.393   5.778  10.919
40221SOL    HW122437  14.448   5.730  10.858
40221SOL    HW222438  14.346   5.841  10.865
40222SOL     OW22439   5.662   2.482  13.281
40222SOL    HW122440   5.749   2.488  13.240
40222SOL    HW222441   5.611   2.429  13.221
40223SOL     OW22442   1.115   2.767  13.938
40223SOL    HW122443   1.106   2.711  14.015
40223SOL    HW222444   1.130   2.855  13.973
40224SOL     OW22445   2.405   8.176   0.730
40224SOL    HW122446   2.386   8.236   0.657
40224SOL    HW222447   2.394   8.230   0.808
40225SOL     OW22448   0.804   4.873  11.492
40225SOL    HW122449   0.891   4.892  11.457
40225SOL    HW222450   0.776   4.794  11.445
40226SOL     OW22451   8.371   9.396   9.097
40226SOL    HW122452   8.346   9.480   9.133
40226SOL    HW222453   8.322   9.389   9.015
40227SOL     OW22454   2.002   9.138  10.836
40227SOL    HW122455   1.947   9.193  10.779
40227SOL    HW222456   2.078   9.118  10.783
40228SOL     OW22457   5.541   9.700   2.394
40228SOL    HW122458   5.579   9.643   2.460
40228SOL    HW222459   5.447   9.689   2.404
40229SOL     OW22460   1.461  12.617  10.444
40229SOL    HW122461   1.514  12.543  10.473
40229SOL    HW222462   1.523  12.673  10.396
40230SOL     OW22463  14.726  11.621  10.413
40230SOL    HW122464  14.646  11.612  10.362
40230SOL    HW222465  14.795  11.637  10.348
40231SOL     OW22466   6.689   4.609   5.154
40231SOL    HW122467   6.605   4.618   5.109
40231SOL    HW222468   6.742   4.682   5.121
40232SOL     OW22469   4.287   2.512   6.194
40232SOL    HW122470   4.252   2.497   6.107
40232SOL    HW222471   4.209   2.519   6.250
40233SOL     OW22472   6.276  13.542   6.240
40233SOL    HW122473   6.305  13.498   6.320
40233SOL    HW222474   6.281  13.635   6.261
40234SOL     OW22475   6.629   9.453  12.729
40234SOL    HW122476   6.586   9.509  12.794
40234SOL    HW222477   6.558   9.404  12.688
40235SOL     OW22478  13.091  11.268   9.123
40235SOL    HW122479  13.099  11.363   9.117
40235SOL    HW222480  13.077  11.250   9.216
40236SOL     OW22481   0.706   5.406   9.700
40236SOL    HW122482   0.781   5.435   9.751
40236SOL    HW222483   0.641   5.476   9.711
40237SOL     OW22484  13.161   1.125   4.448
40237SOL    HW122485  13.153   1.157   4.358
40237SOL    HW222486  13.142   1.201   4.502
40238SOL     OW22487   2.738   6.723  13.732
40238SOL    HW122488   2.681   6.782  13.781
40238SOL    HW222489   2.808   6.780  13.698
40239SOL     OW22490   5.941  10.098  10.963
40239SOL    HW122491   5.937  10.025  10.900
40239SOL    HW222492   5.852  10.104  10.998
40240SOL     OW22493   8.833   1.874   6.027
40240SOL    HW122494   8.903   1.866   5.962
40240SOL    HW222495   8.878   1.907   6.105
40241SOL     OW22496   4.123   8.654  14.134
40241SOL    HW122497   4.096   8.661  14.042
40241SOL    HW222498   4.207   8.699  14.138
40242SOL     OW22499   9.673  12.186  13.301
40242SOL    HW122500   9.763  12.206  13.325
40242SOL    HW222501   9.681  12.131  13.223
40243SOL     OW22502   1.093   2.886   8.238
40243SOL    HW122503   1.094   2.940   8.317
40243SOL    HW222504   1.074   2.948   8.167
40244SOL     OW22505   8.440  10.301  12.647
40244SOL    HW122506   8.481  10.387  12.659
40244SOL    HW222507   8.354  10.309  12.688
40245SOL     OW22508  12.484   0.205  12.345
40245SOL    HW122509  12.576   0.209  12.372
40245SOL    HW222510  12.435   0.192  12.426
40246SOL     OW22511   4.742   7.600   5.430
40246SOL    HW122512   4.655   7.596   5.470
40246SOL    HW222513   4.728   7.571   5.340
40247SOL     OW22514  13.324   2.649  11.274
40247SOL    HW122515  13.250   2.587  11.272
40247SOL    HW222516  13.386   2.614  11.210
40248SOL     OW22517   2.213   6.306   3.638
40248SOL    HW122518   2.124   6.318   3.604
40248SOL    HW222519   2.200   6.291   3.732
40249SOL     OW22520  10.129  13.992   2.801
40249SOL    HW122521  10.121  14.074   2.851
40249SOL    HW222522  10.134  14.020   2.710
40250SOL     OW22523   2.504   5.087   3.890
40250SOL    HW122524   2.581   5.037   3.861
40250SOL    HW222525   2.446   5.022   3.929
40251SOL     OW22526  14.595   3.304   6.258
40251SOL    HW122527  14.538   3.300   6.335
40251SOL    HW222528  14.534   3.307   6.184
40252SOL     OW22529   0.784   4.290   2.297
40252SOL    HW122530   0.696   4.317   2.322
40252SOL    HW222531   0.832   4.372   2.286
40253SOL     OW22532  14.391   0.219   3.374
40253SOL    HW122533  14.459   0.228   3.441
40253SOL    HW222534  14.437   0.231   3.291
40254SOL     OW22535   4.112   2.744  12.312
40254SOL    HW122536   4.159   2.705  12.238
40254SOL    HW222537   4.156   2.828  12.326
40255SOL     OW22538   2.000  14.826   5.998
40255SOL    HW122539   2.058   0.020   6.010
40255SOL    HW222540   1.920  14.862   5.959
40256SOL     OW22541   2.151   5.473   0.760
40256SOL    HW122542   2.059   5.497   0.765
40256SOL    HW222543   2.155   5.386   0.798
40257SOL     OW22544  12.550  13.256  10.716
40257SOL    HW122545  12.537  13.212  10.632
40257SOL    HW222546  12.492  13.209  10.776
40258SOL     OW22547   1.771   3.304   0.020
40258SOL    HW122548   1.789   3.381   0.074
40258SOL    HW222549   1.765   3.232   0.082
40259SOL     OW22550   6.988   3.885   3.647
40259SOL    HW122551   6.921   3.852   3.707
40259SOL    HW222552   7.008   3.811   3.590
40260SOL     OW22553   3.096   1.994  10.584
40260SOL    HW122554   3.030   2.002  10.515
40260SOL    HW222555   3.176   2.031  10.545
40261SOL     OW22556   0.336   6.092   8.075
40261SOL    HW122557   0.329   6.144   7.995
40261SOL    HW222558   0.313   6.003   8.049
40262SOL     OW22559   5.919  12.494   9.410
40262SOL    HW122560   5.997  12.468   9.360
40262SOL    HW222561   5.914  12.589   9.398
40263SOL     OW22562   2.509   5.948   0.861
40263SOL    HW122563   2.561   5.973   0.784
40263SOL    HW222564   2.509   6.026   0.916
40264SOL     OW22565   8.016   0.612   7.886
40264SOL    HW122566   8.028   0.698   7.846
40264SOL    HW222567   8.028   0.628   7.980
40265SOL     OW22568   4.124  14.164   6.740
40265SOL    HW122569   4.119  14.103   6.666
40265SOL    HW222570   4.034  14.195   6.750
40266SOL     OW22571   9.598   3.234  12.147
40266SOL    HW122572   9.524   3.196  12.099
40266SOL    HW222573   9.586   3.329  12.139
40267SOL     OW22574  11.149   6.484  12.800
40267SOL    HW122575  11.062   6.509  12.832
40267SOL    HW222576  11.187   6.433  12.873
40268SOL     OW22577   2.438   7.482   8.355
40268SOL    HW122578   2.409   7.418   8.291
40268SOL    HW222579   2.358   7.529   8.380
40269SOL     OW22580   8.247   8.200   8.938
40269SOL    HW122581   8.245   8.136   9.009
40269SOL    HW222582   8.324   8.176   8.886
40270SOL     OW22583   9.114  14.092  14.413
40270SOL    HW122584   9.045  14.086  14.348
40270SOL    HW222585   9.195  14.103  14.362
40271SOL     OW22586   2.403  11.940   5.462
40271SOL    HW122587   2.350  11.863   5.439
40271SOL    HW222588   2.339  12.005   5.492
40272SOL     OW22589  13.833  12.029   6.889
40272SOL    HW122590  13.766  11.978   6.842
40272SOL    HW222591  13.916  11.989   6.861
40273SOL     OW22592   6.655   2.684  11.865
40273SOL    HW122593   6.709   2.607  11.845
40273SOL    HW222594   6.715   2.758  11.855
40274SOL     OW22595   1.245   2.371   9.676
40274SOL    HW122596   1.223   2.429   9.604
40274SOL    HW222597   1.260   2.286   9.635
40275SOL     OW22598   0.878  13.324   0.532
40275SOL    HW122599   0.837  13.244   0.566
40275SOL    HW222600   0.947  13.345   0.595
40276SOL     OW22601   0.915   0.283  11.195
40276SOL    HW122602   0.876   0.330  11.268
40276SOL    HW222603   0.940   0.352  11.133
40277SOL     OW22604   1.665   1.566  13.512
40277SOL    HW122605   1.759   1.579  13.530
40277SOL    HW222606   1.654   1.598  13.423
40278SOL     OW22607   8.984   1.496   9.586
40278SOL    HW122608   8.929   1.478   9.663
40278SOL    HW222609   8.923   1.533   9.522
40279SOL     OW22610   5.604  11.977   5.295
40279SOL    HW122611   5.622  12.047   5.358
40279SOL    HW222612   5.549  12.017   5.229
40280SOL     OW22613   0.223   8.664  12.679
40280SOL    HW122614   0.309   8.627  12.701
40280SOL    HW222615   0.196   8.617  12.600
40281SOL     OW22616  11.210  10.571  14.745
40281SOL    HW122617  11.302  10.575  14.720
40281SOL    HW222618  11.169  10.641  14.695
40282SOL     OW22619   2.121   0.164  10.588
40282SOL    HW122620   2.167   0.097  10.638
40282SOL    HW222621   2.036   0.172  10.632
40283SOL     OW22622   6.000   8.551   6.232
40283SOL    HW122623   5.985   8.531   6.324
40283SOL    HW222624   6.094   8.540   6.219
40284SOL     OW22625   4.806   4.562   4.478
40284SOL    HW122626   4.728   4.555   4.423
40284SOL    HW222627   4.833   4.471   4.493
40285SOL     OW22628  14.255  11.495   4.634
40285SOL    HW122629  14.280  11.403   4.618
40285SOL    HW222630  14.199  11.517   4.560
40286SOL     OW22631  12.646  14.514  13.600
40286SOL    HW122632  12.613  14.504  13.689
40286SOL    HW222633  12.728  14.464  13.599
40287SOL     OW22634  10.463  11.798  13.544
40287SOL    HW122635  10.480  11.709  13.574
40287SOL    HW222636  10.533  11.851  13.582
40288SOL     OW22637   8.217   7.169   8.714
40288SOL    HW122638   8.140   7.142   8.764
40288SOL    HW222639   8.228   7.262   8.735
40289SOL     OW22640   6.371  10.656   6.281
40289SOL    HW122641   6.452  10.626   6.323
40289SOL    HW222642   6.302  10.613   6.330
40290SOL     OW22643   1.191  12.348   4.740
40290SOL    HW122644   1.154  12.435   4.755
40290SOL    HW222645   1.258  12.339   4.808
40291SOL     OW22646   2.099   2.790  13.032
40291SOL    HW122647   2.005   2.775  13.041
40291SOL    HW222648   2.116   2.864  13.090
40292SOL     OW22649   8.706  11.585   8.512
40292SOL    HW122650   8.771  11.602   8.444
40292SOL    HW222651   8.751  11.605   8.594
40293SOL     OW22652   0.245   7.311   9.242
40293SOL    HW122653   0.328   7.358   9.252
40293SOL    HW222654   0.264   7.241   9.179
40294SOL     OW22655  11.679   1.225   4.125
40294SOL    HW122656  11.656   1.297   4.066
40294SOL    HW222657  11.616   1.232   4.197
40295SOL     OW22658   1.726   1.961   3.471
40295SOL    HW122659   1.691   1.956   3.559
40295SOL    HW222660   1.743   2.054   3.457
40296SOL     OW22661   1.955   9.523  12.784
40296SOL    HW122662   2.034   9.512  12.838
40296SOL    HW222663   1.905   9.592  12.828
40297SOL     OW22664  14.305   9.602   8.965
40297SOL    HW122665  14.367   9.674   8.952
40297SOL    HW222666  14.230   9.643   9.009
40298SOL     OW22667   1.617   4.294  11.371
40298SOL    HW122668   1.703   4.251  11.373
40298SOL    HW222669   1.619   4.347  11.291
40299SOL     OW22670   4.526   0.919  10.013
40299SOL    HW122671   4.447   0.939  10.064
40299SOL    HW222672   4.553   1.003   9.977
40300SOL     OW22673   2.556   8.142   1.846
40300SOL    HW122674   2.572   8.082   1.774
40300SOL    HW222675   2.533   8.225   1.804
40301SOL     OW22676   6.731   8.035   6.675
40301SOL    HW122677   6.702   8.104   6.615
40301SOL    HW222678   6.677   8.048   6.754
40302SOL     OW22679   1.059   0.061  11.280
40302SOL    HW122680   1.006  14.875  11.322
40302SOL    HW222681   0.996   0.124  11.246
40303SOL     OW22682   3.068  12.320   6.620
40303SOL    HW122683   2.983  12.303   6.580
40303SOL    HW222684   3.109  12.234   6.627
40304SOL     OW22685   6.230   2.064  14.858
40304SOL    HW122686   6.279   1.990  14.823
40304SOL    HW222687   6.261   2.139  14.807
40305SOL     OW22688   4.771   5.435   3.033
40305SOL    HW122689   4.770   5.496   2.960
40305SOL    HW222690   4.858   5.397   3.032
40306SOL     OW22691  12.499   5.149  14.406
40306SOL    HW122692  12.542   5.142  14.320
40306SOL    HW222693  12.571   5.140  14.469
40307SOL     OW22694  14.115  13.320   7.108
40307SOL    HW122695  14.046  13.279   7.054
40307SOL    HW222696  14.109  13.274   7.192
40308SOL     OW22697   7.383   0.464   1.406
40308SOL    HW122698   7.307   0.416   1.439
40308SOL    HW222699   7.348   0.519   1.336
40309SOL     OW22700   5.858  11.931   9.916
40309SOL    HW122701   5.786  11.944   9.978
40309SOL    HW222702   5.850  11.840   9.889
40310SOL     OW22703   8.355   3.794   9.717
40310SOL    HW122704   8.436   3.744   9.709
40310SOL    HW222705   8.381   3.877   9.755
40311SOL     OW22706   4.030   4.482   7.609
40311SOL    HW122707   4.112   4.520   7.578
40311SOL    HW222708   3.966   4.505   7.542
40312SOL     OW22709   5.245   7.419  13.440
40312SOL    HW122710   5.260   7.510  13.467
40312SOL    HW222711   5.168   7.391  13.488
40313SOL     OW22712   1.864   1.462  12.064
40313SOL    HW122713   1.864   1.557  12.068
40313SOL    HW222714   1.778   1.439  12.028
40314SOL     OW22715   2.579  10.225   6.482
40314SOL    HW122716   2.540  10.306   6.516
40314SOL    HW222717   2.578  10.237   6.387
40315SOL     OW22718  11.869   0.229  14.455
40315SOL    HW122719  11.779   0.196  14.455
40315SOL    HW222720  11.882   0.263  14.366
40316SOL     OW22721   1.170   7.971   4.676
40316SOL    HW122722   1.168   7.878   4.698
40316SOL    HW222723   1.132   8.014   4.752
40317SOL     OW22724  12.145   5.254  11.710
40317SOL    HW122725  12.228   5.298  11.695
40317SOL    HW222726  12.148   5.176  11.655
40318SOL     OW22727   6.239  14.547  12.403
40318SOL    HW122728   6.235  14.459  12.441
40318SOL    HW222729   6.277  14.601  12.472
40319SOL     OW22730   0.100   8.922   0.277
40319SOL    HW122731   0.011   8.908   0.310
40319SOL    HW222732   0.089   8.938   0.184
40320SOL     OW22733   8.098   1.456   5.157
40320SOL    HW122734   8.162   1.387   5.172
40320SOL    HW222735   8.108   1.479   5.065
40321SOL     OW22736  12.297  12.861   5.199
40321SOL    HW122737  12.339  12.908   5.271
40321SOL    HW222738  12.274  12.930   5.136
40322SOL     OW22739   4.178   7.964   1.091
40322SOL    HW122740   4.222   8.014   1.023
40322SOL    HW222741   4.113   8.024   1.128
40323SOL     OW22742   8.058   4.866   0.316
40323SOL    HW122743   8.144   4.905   0.301
40323SOL    HW222744   7.996   4.934   0.287
40324SOL     OW22745   1.169   4.497   1.211
40324SOL    HW122746   1.202   4.530   1.295
40324SOL    HW222747   1.247   4.475   1.161
40325SOL     OW22748   6.910   9.514   3.599
40325SOL    HW122749   6.841   9.529   3.663
40325SOL    HW222750   6.991   9.530   3.647
40326SOL     OW22751   2.969   7.135   7.838
40326SOL    HW122752   2.935   7.099   7.756
40326SOL    HW222753   2.945   7.228   7.836
40327SOL     OW22754  14.596   1.492  12.243
40327SOL    HW122755  14.666   1.536  12.291
40327SOL    HW222756  14.578   1.413  12.293
40328SOL     OW22757   1.229   8.738   0.440
40328SOL    HW122758   1.252   8.770   0.353
40328SOL    HW222759   1.134   8.746   0.445
40329SOL     OW22760   3.468   7.504  10.837
40329SOL    HW122761   3.521   7.438  10.792
40329SOL    HW222762   3.528   7.577  10.852
40330SOL     OW22763   1.234   8.154  14.803
40330SOL    HW122764   1.155   8.206  14.790
40330SOL    HW222765   1.208   8.064  14.780
40331SOL     OW22766   2.399   0.348  12.619
40331SOL    HW122767   2.386   0.407  12.545
40331SOL    HW222768   2.489   0.363  12.647
40332SOL     OW22769   2.917   1.657  11.700
40332SOL    HW122770   2.893   1.565  11.694
40332SOL    HW222771   2.858   1.701  11.639
40333SOL     OW22772   2.411   0.170   9.447
40333SOL    HW122773   2.420   0.086   9.403
40333SOL    HW222774   2.489   0.220   9.421
40334SOL     OW22775   2.955   6.602   3.267
40334SOL    HW122776   2.970   6.676   3.209
40334SOL    HW222777   2.984   6.632   3.353
40335SOL     OW22778  14.146   3.799   0.197
40335SOL    HW122779  14.086   3.870   0.177
40335SOL    HW222780  14.197   3.831   0.271
40336SOL     OW22781  14.472   1.450   4.528
40336SOL    HW122782  14.566   1.467   4.513
40336SOL    HW222783  14.450   1.384   4.462
40337SOL     OW22784  12.554  11.412  11.422
40337SOL    HW122785  12.558  11.415  11.517
40337SOL    HW222786  12.614  11.341  11.397
40338SOL     OW22787   3.927  12.197   6.850
40338SOL    HW122788   3.909  12.254   6.924
40338SOL    HW222789   3.843  12.188   6.805
40339SOL     OW22790  11.640   2.501   1.703
40339SOL    HW122791  11.696   2.432   1.669
40339SOL    HW222792  11.700   2.563   1.745
40340SOL     OW22793  13.895  13.958  12.628
40340SOL    HW122794  13.849  13.932  12.548
40340SOL    HW222795  13.988  13.953  12.605
40341SOL     OW22796   1.209  13.636  10.442
40341SOL    HW122797   1.263  13.698  10.492
40341SOL    HW222798   1.120  13.649  10.476
40342SOL     OW22799   7.670   7.385   3.177
40342SOL    HW122800   7.620   7.452   3.130
40342SOL    HW222801   7.695   7.322   3.109
40343SOL     OW22802   2.937   2.453   6.664
40343SOL    HW122803   2.919   2.477   6.755
40343SOL    HW222804   2.892   2.369   6.652
40344SOL     OW22805  11.771   8.589   9.070
40344SOL    HW122806  11.824   8.641   9.009
40344SOL    HW222807  11.753   8.649   9.142
40345SOL     OW22808   7.691  11.367  13.965
40345SOL    HW122809   7.746  11.383  14.042
40345SOL    HW222810   7.633  11.442  13.960
40346SOL     OW22811   1.315   1.685   5.990
40346SOL    HW122812   1.305   1.590   5.979
40346SOL    HW222813   1.365   1.694   6.071
40347SOL     OW22814  10.909   7.599  10.848
40347SOL    HW122815  10.839   7.662  10.829
40347SOL    HW222816  10.950   7.583  10.763
40348SOL     OW22817   6.227   2.523  10.654
40348SOL    HW122818   6.151   2.575  10.681
40348SOL    HW222819   6.264   2.571  10.580
40349SOL     OW22820   5.368  11.123   2.080
40349SOL    HW122821   5.424  11.068   2.025
40349SOL    HW222822   5.282  11.083   2.075
40350SOL     OW22823   7.276  10.814   2.583
40350SOL    HW122824   7.288  10.864   2.663
40350SOL    HW222825   7.329  10.859   2.518
40351SOL     OW22826   0.598   5.889   1.763
40351SOL    HW122827   0.652   5.812   1.780
40351SOL    HW222828   0.641   5.959   1.811
40352SOL     OW22829   7.946  12.610  14.698
40352SOL    HW122830   7.856  12.577  14.700
40352SOL    HW222831   8.000  12.531  14.692
40353SOL     OW22832   0.974   2.542   2.870
40353SOL    HW122833   0.898   2.598   2.885
40353SOL    HW222834   0.938   2.454   2.865
40354SOL     OW22835   0.468  11.030  12.596
40354SOL    HW122836   0.375  11.025  12.571
40354SOL    HW222837   0.498  10.939  12.592
40355SOL     OW22838  13.084   4.609  11.068
40355SOL    HW122839  13.107   4.563  10.987
40355SOL    HW222840  13.159   4.666  11.085
40356SOL     OW22841   4.987  11.829  11.455
40356SOL    HW122842   5.064  11.795  11.501
40356SOL    HW222843   4.943  11.751  11.421
40357SOL     OW22844   4.358   9.694   1.932
40357SOL    HW122845   4.294   9.698   1.861
40357SOL    HW222846   4.403   9.611   1.919
40358SOL     OW22847   2.393  13.954   9.311
40358SOL    HW122848   2.346  14.009   9.374
40358SOL    HW222849   2.484  13.983   9.319
40359SOL     OW22850   1.525   3.142  13.003
40359SOL    HW122851   1.577   3.065  12.980
40359SOL    HW222852   1.538   3.203  12.931
40360SOL     OW22853  14.686  12.874  10.261
40360SOL    HW122854  14.653  12.953  10.303
40360SOL    HW222855  14.623  12.855  10.191
40361SOL     OW22856   6.794   8.816   1.410
40361SOL    HW122857   6.781   8.775   1.496
40361SOL    HW222858   6.816   8.743   1.352
40362SOL     OW22859  10.347   9.177   3.795
40362SOL    HW122860  10.338   9.093   3.841
40362SOL    HW222861  10.289   9.169   3.719
40363SOL     OW22862   5.294   6.754  11.103
40363SOL    HW122863   5.375   6.762  11.052
40363SOL    HW222864   5.321   6.771  11.193
40364SOL     OW22865   8.434   8.808   2.626
40364SOL    HW122866   8.408   8.755   2.701
40364SOL    HW222867   8.525   8.833   2.644
40365SOL     OW22868  10.730   7.698   6.934
40365SOL    HW122869  10.763   7.665   6.851
40365SOL    HW222870  10.730   7.793   6.923
40366SOL     OW22871  12.769   6.074   0.610
40366SOL    HW122872  12.847   6.112   0.651
40366SOL    HW222873  12.702   6.081   0.678
40367SOL     OW22874   8.901  12.941  11.747
40367SOL    HW122875   8.995  12.957  11.742
40367SOL    HW222876   8.861  13.027  11.735
40368SOL     OW22877   5.002   8.968   0.874
40368SOL    HW122878   4.947   8.944   0.799
40368SOL    HW222879   4.999   8.891   0.931
40369SOL     OW22880   8.450   8.112   5.151
40369SOL    HW122881   8.410   8.030   5.182
40369SOL    HW222882   8.535   8.085   5.116
40370SOL     OW22883  14.780  13.475  11.508
40370SOL    HW122884  14.780  13.482  11.412
40370SOL    HW222885  14.822  13.391  11.526
40371SOL     OW22886   1.837   5.370  10.113
40371SOL    HW122887   1.902   5.303  10.135
40371SOL    HW222888   1.769   5.359  10.179
40372SOL     OW22889   7.149   1.188   4.587
40372SOL    HW122890   7.181   1.157   4.672
40372SOL    HW222891   7.118   1.277   4.604
40373SOL     OW22892  12.523   6.543   8.712
40373SOL    HW122893  12.430   6.563   8.720
40373SOL    HW222894  12.556   6.549   8.801
40374SOL     OW22895  13.864   1.031   0.773
40374SOL    HW122896  13.881   1.068   0.860
40374SOL    HW222897  13.806   1.093   0.731
40375SOL     OW22898  14.443   6.382   8.817
40375SOL    HW122899  14.438   6.465   8.771
40375SOL    HW222900  14.368   6.332   8.784
40376SOL     OW22901   6.047  14.141  11.407
40376SOL    HW122902   5.975  14.172  11.463
40376SOL    HW222903   6.125  14.180  11.446
40377SOL     OW22904   5.490  10.427  10.350
40377SOL    HW122905   5.508  10.353  10.292
40377SOL    HW222906   5.502  10.391  10.438
40378SOL     OW22907   0.918  12.253  10.107
40378SOL    HW122908   0.830  12.273  10.138
40378SOL    HW222909   0.955  12.338  10.083
40379SOL     OW22910  12.461  12.979   2.130
40379SOL    HW122911  12.366  12.990   2.126
40379SOL    HW222912  12.491  12.998   2.042
40380SOL     OW22913   8.732   8.848   7.414
40380SOL    HW122914   8.828   8.843   7.416
40380SOL    HW222915   8.711   8.887   7.329
40381SOL     OW22916  14.423   8.989  10.606
40381SOL    HW122917  14.376   9.047  10.547
40381SOL    HW222918  14.488   9.045  10.648
40382SOL     OW22919   8.642   5.653   4.979
40382SOL    HW122920   8.585   5.726   5.006
40382SOL    HW222921   8.723   5.695   4.952
40383SOL     OW22922   5.766   8.968   9.057
40383SOL    HW122923   5.825   9.040   9.035
40383SOL    HW222924   5.726   8.994   9.140
40384SOL     OW22925   9.817   3.744   4.459
40384SOL    HW122926   9.727   3.772   4.473
40384SOL    HW222927   9.848   3.720   4.547
40385SOL     OW22928  10.851   0.892   6.884
40385SOL    HW122929  10.803   0.898   6.966
40385SOL    HW222930  10.839   0.802   6.855
40386SOL     OW22931   5.632  14.782   6.154
40386SOL    HW122932   5.714  14.766   6.109
40386SOL    HW222933   5.567  14.792   6.085
40387SOL     OW22934   8.809   4.834   4.165
40387SOL    HW122935   8.765   4.821   4.081
40387SOL    HW222936   8.809   4.748   4.206
40388SOL     OW22937   8.412   7.806   4.165
40388SOL    HW122938   8.416   7.852   4.248
40388SOL    HW222939   8.377   7.870   4.103
40389SOL     OW22940   9.357   8.905   0.667
40389SOL    HW122941   9.360   8.997   0.690
40389SOL    HW222942   9.264   8.882   0.672
40390SOL     OW22943   1.398   6.040   0.691
40390SOL    HW122944   1.389   6.080   0.777
40390SOL    HW222945   1.492   6.045   0.672
40391SOL     OW22946   3.931   5.642   0.724
40391SOL    HW122947   3.948   5.553   0.755
40391SOL    HW222948   3.898   5.631   0.635
40392SOL     OW22949   8.429  13.249   3.248
40392SOL    HW122950   8.402  13.158   3.239
40392SOL    HW222951   8.357  13.291   3.295
40393SOL     OW22952   4.796   5.491   8.648
40393SOL    HW122953   4.807   5.447   8.732
40393SOL    HW222954   4.873   5.548   8.640
40394SOL     OW22955  13.857   4.181   2.092
40394SOL    HW122956  13.771   4.161   2.130
40394SOL    HW222957  13.883   4.263   2.134
40395SOL     OW22958   7.223   2.096  11.886
40395SOL    HW122959   7.204   2.008  11.918
40395SOL    HW222960   7.179   2.154  11.948
40396SOL     OW22961  11.552   7.972   3.710
40396SOL    HW122962  11.569   7.890   3.756
40396SOL    HW222963  11.470   7.957   3.663
40397SOL     OW22964  12.572   4.939   6.560
40397SOL    HW122965  12.581   4.862   6.615
40397SOL    HW222966  12.500   4.989   6.599
40398SOL     OW22967  10.524  10.850   2.491
40398SOL    HW122968  10.557  10.760   2.495
40398SOL    HW222969  10.436  10.842   2.455
40399SOL     OW22970   6.215   4.449  13.210
40399SOL    HW122971   6.131   4.403  13.212
40399SOL    HW222972   6.196   4.531  13.163
40400SOL     OW22973   8.336   0.556  11.770
40400SOL    HW122974   8.390   0.621  11.725
40400SOL    HW222975   8.313   0.597  11.854
40401SOL     OW22976   8.489   3.684   1.641
40401SOL    HW122977   8.485   3.679   1.736
40401SOL    HW222978   8.515   3.596   1.613
40402SOL     OW22979   3.549   4.787   7.098
40402SOL    HW122980   3.609   4.851   7.135
40402SOL    HW222981   3.508   4.831   7.023
40403SOL     OW22982  14.571  10.129   2.735
40403SOL    HW122983  14.594  10.142   2.643
40403SOL    HW222984  14.582  10.035   2.749
40404SOL     OW22985   6.784   8.817   7.715
40404SOL    HW122986   6.732   8.897   7.707
40404SOL    HW222987   6.773   8.772   7.632
40405SOL     OW22988  14.804   9.190   6.355
40405SOL    HW122989  14.735   9.210   6.292
40405SOL    HW222990   0.001   9.177   6.301
40406SOL     OW22991  14.730  13.424   3.077
40406SOL    HW122992  14.819  13.448   3.101
40406SOL    HW222993  14.734  13.412   2.982
40407SOL     OW22994  10.168   4.535   9.675
40407SOL    HW122995  10.255   4.509   9.645
40407SOL    HW222996  10.183   4.586   9.754
40408SOL     OW22997   6.914   5.085   4.926
40408SOL    HW122998   6.947   5.170   4.896
40408SOL    HW222999   6.987   5.048   4.975
40409SOL     OW23000   0.940  11.801  14.034
40409SOL    HW123001   0.979  11.843  14.110
40409SOL    HW223002   0.971  11.852  13.959
40410SOL     OW23003   6.189   0.796   3.192
40410SOL    HW123004   6.146   0.869   3.148
40410SOL    HW223005   6.161   0.802   3.283
40411SOL     OW23006   3.401   4.531   1.118
40411SOL    HW123007   3.479   4.518   1.062
40411SOL    HW223008   3.400   4.454   1.175
40412SOL     OW23009   4.870   0.059  14.596
40412SOL    HW123010   4.793   0.111  14.573
40412SOL    HW223011   4.876   0.065  14.692
40413SOL     OW23012   1.488  11.951   9.770
40413SOL    HW123013   1.544  11.926   9.696
40413SOL    HW223014   1.400  11.927   9.742
40414SOL     OW23015   7.500   3.403   7.148
40414SOL    HW123016   7.546   3.354   7.079
40414SOL    HW223017   7.469   3.336   7.208
40415SOL     OW23018   0.665   9.105   9.190
40415SOL    HW123019   0.624   9.185   9.223
40415SOL    HW223020   0.759   9.123   9.191
40416SOL     OW23021   9.636   7.398  11.614
40416SOL    HW123022   9.564   7.422  11.672
40416SOL    HW223023   9.619   7.448  11.534
40417SOL     OW23024  11.883   0.290  14.739
40417SOL    HW123025  11.866   0.218  14.800
40417SOL    HW223026  11.866   0.253  14.653
40418SOL     OW23027   3.101   6.233   1.973
40418SOL    HW123028   3.136   6.153   1.935
40418SOL    HW223029   3.072   6.208   2.061
40419SOL     OW23030  11.283   8.246   8.434
40419SOL    HW123031  11.226   8.176   8.467
40419SOL    HW223032  11.305   8.297   8.512
40420SOL     OW23033   4.680   9.241   2.685
40420SOL    HW123034   4.714   9.224   2.597
40420SOL    HW223035   4.743   9.198   2.743
40421SOL     OW23036   3.498   6.163   1.028
40421SOL    HW123037   3.461   6.210   1.103
40421SOL    HW223038   3.500   6.228   0.957
40422SOL     OW23039   3.525   4.190   7.056
40422SOL    HW123040   3.515   4.096   7.071
40422SOL    HW223041   3.619   4.203   7.045
40423SOL     OW23042   2.305   6.753   9.535
40423SOL    HW123043   2.326   6.789   9.449
40423SOL    HW223044   2.381   6.774   9.589
40424SOL     OW23045   8.874  10.931  14.434
40424SOL    HW123046   8.912  10.864  14.378
40424SOL    HW223047   8.909  11.013  14.402
40425SOL     OW23048  12.710   8.389  13.655
40425SOL    HW123049  12.688   8.479  13.632
40425SOL    HW223050  12.730   8.391  13.748
40426SOL     OW23051  11.120  12.154   7.608
40426SOL    HW123052  11.118  12.142   7.703
40426SOL    HW223053  11.062  12.228   7.592
40427SOL     OW23054  11.910  14.848   2.548
40427SOL    HW123055  11.972   0.027   2.508
40427SOL    HW223056  11.869  14.802   2.475
40428SOL     OW23057  10.426   3.347  11.659
40428SOL    HW123058  10.393   3.295  11.733
40428SOL    HW223059  10.518   3.364  11.681
40429SOL     OW23060  10.174  13.260   7.461
40429SOL    HW123061  10.124  13.254   7.542
40429SOL    HW223062  10.254  13.307   7.484
40430SOL     OW23063  10.334   7.926   6.397
40430SOL    HW123064  10.412   7.940   6.450
40430SOL    HW223065  10.262   7.955   6.453
40431SOL     OW23066   4.642  13.811   8.022
40431SOL    HW123067   4.643  13.716   8.013
40431SOL    HW223068   4.671  13.827   8.112
40432SOL     OW23069   7.803   7.840   0.388
40432SOL    HW123070   7.893   7.869   0.401
40432SOL    HW223071   7.811   7.748   0.363
40433SOL     OW23072  12.796   9.713   4.140
40433SOL    HW123073  12.833   9.715   4.051
40433SOL    HW223074  12.843   9.641   4.183
40434SOL     OW23075  14.714   4.619  10.994
40434SOL    HW123076  14.685   4.529  10.976
40434SOL    HW223077  14.698   4.631  11.087
40435SOL     OW23078  11.780   7.886  13.099
40435SOL    HW123079  11.819   7.947  13.162
40435SOL    HW223080  11.744   7.816  13.152
40436SOL     OW23081  12.786   1.350  13.530
40436SOL    HW123082  12.694   1.376  13.526
40436SOL    HW223083  12.784   1.263  13.571
40437SOL     OW23084  10.564  10.049  10.614
40437SOL    HW123085  10.588   9.968  10.659
40437SOL    HW223086  10.599  10.119  10.669
40438SOL     OW23087  11.891   1.028   4.445
40438SOL    HW123088  11.802   1.008   4.477
40438SOL    HW223089  11.888   1.005   4.352
40439SOL     OW23090   8.028   9.886  13.006
40439SOL    HW123091   7.939   9.853  13.002
40439SOL    HW223092   8.058   9.862  13.094
40440SOL     OW23093   7.924   9.685   8.931
40440SOL    HW123094   7.851   9.639   8.891
40440SOL    HW223095   7.890   9.715   9.016
40441SOL     OW23096  12.383   9.701   6.660
40441SOL    HW123097  12.337   9.761   6.601
40441SOL    HW223098  12.407   9.627   6.606
40442SOL     OW23099   2.772   6.686  14.272
40442SOL    HW123100   2.829   6.627  14.223
40442SOL    HW223101   2.760   6.643  14.356
40443SOL     OW23102   1.141   8.750   8.728
40443SOL    HW123103   1.200   8.791   8.791
40443SOL    HW223104   1.087   8.690   8.780
40444SOL     OW23105  11.830   4.629   7.198
40444SOL    HW123106  11.914   4.666   7.222
40444SOL    HW223107  11.849   4.538   7.176
40445SOL     OW23108   3.339   5.969  12.616
40445SOL    HW123109   3.421   6.016  12.630
40445SOL    HW223110   3.363   5.877  12.623
40446SOL     OW23111  14.384   3.005  14.673
40446SOL    HW123112  14.317   3.070  14.692
40446SOL    HW223113  14.360   2.929  14.727
40447SOL     OW23114  10.455  12.291   4.638
40447SOL    HW123115  10.462  12.220   4.574
40447SOL    HW223116  10.381  12.343   4.607
40448SOL     OW23117   4.260  12.198  14.372
40448SOL    HW123118   4.180  12.247  14.353
40448SOL    HW223119   4.254  12.119  14.318
40449SOL     OW23120  10.744   1.852   7.567
40449SOL    HW123121  10.688   1.781   7.598
40449SOL    HW223122  10.684   1.914   7.526
40450SOL     OW23123   1.274  10.590  11.015
40450SOL    HW123124   1.345  10.550  11.065
40450SOL    HW223125   1.199  10.532  11.029
40451SOL     OW23126   2.296   8.060  10.592
40451SOL    HW123127   2.339   7.977  10.610
40451SOL    HW223128   2.367   8.120  10.568
40452SOL     OW23129  11.219  13.802   1.785
40452SOL    HW123130  11.200  13.708   1.788
40452SOL    HW223131  11.291  13.811   1.723
40453SOL     OW23132  10.300  12.760  10.965
40453SOL    HW123133  10.337  12.708  10.893
40453SOL    HW223134  10.364  12.831  10.979
40454SOL     OW23135   8.264  14.454   3.836
40454SOL    HW123136   8.280  14.392   3.765
40454SOL    HW223137   8.344  14.506   3.841
40455SOL     OW23138   0.153   6.661  13.080
40455SOL    HW123139   0.163   6.580  13.131
40455SOL    HW223140   0.060   6.682  13.087
40456SOL     OW23141   2.286   2.003   6.626
40456SOL    HW123142   2.343   1.978   6.553
40456SOL    HW223143   2.322   2.087   6.656
40457SOL     OW23144  11.525   5.316   7.691
40457SOL    HW123145  11.476   5.344   7.769
40457SOL    HW223146  11.595   5.261   7.726
40458SOL     OW23147  14.867  13.797   1.939
40458SOL    HW123148   0.047  13.854   1.984
40458SOL    HW223149  14.842  13.846   1.861
40459SOL     OW23150  13.904  10.115   4.611
40459SOL    HW123151  13.834  10.177   4.587
40459SOL    HW223152  13.898  10.108   4.706
40460SOL     OW23153  12.291   6.750   6.832
40460SOL    HW123154  12.223   6.698   6.789
40460SOL    HW223155  12.287   6.836   6.789
40461SOL     OW23156   0.600  14.180   2.161
40461SOL    HW123157   0.631  14.168   2.072
40461SOL    HW223158   0.519  14.129   2.165
40462SOL     OW23159  10.967  10.661   7.487
40462SOL    HW123160  10.892  10.623   7.533
40462SOL    HW223161  10.934  10.745   7.454
40463SOL     OW23162   9.867   9.243   7.634
40463SOL    HW123163   9.903   9.329   7.657
40463SOL    HW223164   9.895   9.230   7.543
40464SOL     OW23165  13.938   5.801   5.722
40464SOL    HW123166  14.033   5.792   5.708
40464SOL    HW223167  13.913   5.877   5.671
40465SOL     OW23168   5.576  12.452  12.232
40465SOL    HW123169   5.649  12.421  12.286
40465SOL    HW223170   5.541  12.373  12.191
40466SOL     OW23171  14.225   7.382  13.579
40466SOL    HW123172  14.272   7.459  13.548
40466SOL    HW223173  14.260   7.365  13.666
40467SOL     OW23174   5.025   2.048   5.133
40467SOL    HW123175   5.065   2.129   5.101
40467SOL    HW223176   5.089   2.014   5.196
40468SOL     OW23177  11.498   6.790  13.514
40468SOL    HW123178  11.545   6.842  13.579
40468SOL    HW223179  11.496   6.702  13.551
40469SOL     OW23180   9.934   1.712   0.052
40469SOL    HW123181   9.938   1.698   0.146
40469SOL    HW223182   9.974   1.634   0.014
40470SOL     OW23183  14.770   0.227   0.857
40470SOL    HW123184  14.805   0.146   0.820
40470SOL    HW223185  14.754   0.283   0.782
40471SOL     OW23186   0.326   9.131   9.051
40471SOL    HW123187   0.264   9.059   9.065
40471SOL    HW223188   0.342   9.165   9.139
40472SOL     OW23189   5.790  11.747   7.084
40472SOL    HW123190   5.823  11.722   7.170
40472SOL    HW223191   5.826  11.681   7.024
40473SOL     OW23192   2.143  12.389   6.396
40473SOL    HW123193   2.206  12.428   6.335
40473SOL    HW223194   2.083  12.461   6.416
40474SOL     OW23195  14.078   6.061   6.145
40474SOL    HW123196  14.127   6.007   6.207
40474SOL    HW223197  14.015   6.109   6.199
40475SOL     OW23198   6.147   4.453   3.084
40475SOL    HW123199   6.154   4.464   2.989
40475SOL    HW223200   6.190   4.370   3.102
40476SOL     OW23201   4.871   1.284   4.187
40476SOL    HW123202   4.917   1.342   4.248
40476SOL    HW223203   4.783   1.322   4.179
40477SOL     OW23204   3.006  12.131  13.032
40477SOL    HW123205   3.001  12.153  12.939
40477SOL    HW223206   2.936  12.068  13.046
40478SOL     OW23207   2.513   2.243   7.250
40478SOL    HW123208   2.571   2.167   7.243
40478SOL    HW223209   2.441   2.223   7.190
40479SOL     OW23210   5.351  13.075   2.213
40479SOL    HW123211   5.391  12.992   2.186
40479SOL    HW223212   5.351  13.128   2.133
40480SOL     OW23213   4.435   8.292   0.746
40480SOL    HW123214   4.529   8.297   0.729
40480SOL    HW223215   4.395   8.336   0.670
40481SOL     OW23216  14.715  11.009  10.430
40481SOL    HW123217  14.695  10.978  10.518
40481SOL    HW223218  14.633  11.048  10.399
40482SOL     OW23219  13.322  12.280   3.782
40482SOL    HW123220  13.370  12.289   3.699
40482SOL    HW223221  13.246  12.337   3.772
40483SOL     OW23222  10.361   6.732   4.033
40483SOL    HW123223  10.324   6.789   4.101
40483SOL    HW223224  10.328   6.767   3.951
40484SOL     OW23225   7.307   6.118  11.031
40484SOL    HW123226   7.386   6.064  11.035
40484SOL    HW223227   7.255   6.092  11.107
40485SOL     OW23228  11.257  12.331  12.084
40485SOL    HW123229  11.229  12.416  12.051
40485SOL    HW223230  11.328  12.351  12.146
40486SOL     OW23231   1.672  14.381  14.092
40486SOL    HW123232   1.619  14.458  14.113
40486SOL    HW223233   1.644  14.314  14.154
40487SOL     OW23234   4.708   4.773  10.007
40487SOL    HW123235   4.801   4.791   9.999
40487SOL    HW223236   4.695   4.690   9.960
40488SOL     OW23237   2.483  10.063  14.232
40488SOL    HW123238   2.477   9.969  14.249
40488SOL    HW223239   2.564  10.090  14.274
40489SOL     OW23240  13.344  12.725   5.436
40489SOL    HW123241  13.279  12.654   5.432
40489SOL    HW223242  13.427  12.682   5.415
40490SOL     OW23243  12.061   1.929  13.872
40490SOL    HW123244  12.005   1.977  13.811
40490SOL    HW223245  12.006   1.916  13.949
40491SOL     OW23246   3.647  13.287  10.266
40491SOL    HW123247   3.610  13.270  10.179
40491SOL    HW223248   3.692  13.207  10.289
40492SOL     OW23249   0.627   2.856  10.545
40492SOL    HW123250   0.685   2.782  10.564
40492SOL    HW223251   0.612   2.851  10.451
40493SOL     OW23252   8.582   2.784   6.568
40493SOL    HW123253   8.515   2.718   6.583
40493SOL    HW223254   8.577   2.804   6.475
40494SOL     OW23255   3.341   7.258  13.561
40494SOL    HW123256   3.419   7.261  13.507
40494SOL    HW223257   3.271   7.229  13.501
40495SOL     OW23258   6.794   7.070  12.780
40495SOL    HW123259   6.791   7.018  12.861
40495SOL    HW223260   6.717   7.042  12.731
40496SOL     OW23261   6.942   1.788   2.378
40496SOL    HW123262   6.997   1.721   2.420
40496SOL    HW223263   6.915   1.749   2.295
40497SOL     OW23264   0.711  12.109   9.114
40497SOL    HW123265   0.616  12.109   9.103
40497SOL    HW223266   0.728  12.035   9.172
40498SOL     OW23267   3.573  13.731  10.290
40498SOL    HW123268   3.573  13.726  10.386
40498SOL    HW223269   3.506  13.795  10.269
40499SOL     OW23270   1.300   7.579   9.907
40499SOL    HW123271   1.304   7.488   9.876
40499SOL    HW223272   1.337   7.631   9.836
40500SOL     OW23273   0.245   8.217  13.959
40500SOL    HW123274   0.310   8.286  13.943
40500SOL    HW223275   0.295   8.147  14.002
40501SOL     OW23276  14.837  10.523   7.891
40501SOL    HW123277   0.045  10.491   7.888
40501SOL    HW223278  14.836  10.585   7.964
40502SOL     OW23279  14.273  13.715  13.515
40502SOL    HW123280  14.298  13.703  13.607
40502SOL    HW223281  14.356  13.708  13.467
40503SOL     OW23282  13.749   3.735   6.515
40503SOL    HW123283  13.689   3.808   6.533
40503SOL    HW223284  13.694   3.669   6.474
40504SOL     OW23285  12.351  14.404   4.327
40504SOL    HW123286  12.363  14.374   4.417
40504SOL    HW223287  12.295  14.337   4.287
40505SOL     OW23288   0.707  12.455   5.856
40505SOL    HW123289   0.691  12.500   5.773
40505SOL    HW223290   0.740  12.523   5.914
40506SOL     OW23291   1.613   7.913   6.302
40506SOL    HW123292   1.609   8.008   6.310
40506SOL    HW223293   1.706   7.891   6.310
40507SOL     OW23294  14.213  12.120  13.035
40507SOL    HW123295  14.251  12.101  13.121
40507SOL    HW223296  14.262  12.064  12.975
40508SOL     OW23297  11.263  12.621   4.249
40508SOL    HW123298  11.188  12.588   4.199
40508SOL    HW223299  11.226  12.646   4.334
40509SOL     OW23300   8.559   6.635   3.112
40509SOL    HW123301   8.641   6.587   3.117
40509SOL    HW223302   8.505   6.583   3.052
40510SOL     OW23303   1.898   8.406  10.789
40510SOL    HW123304   1.964   8.470  10.764
40510SOL    HW223305   1.944   8.322  10.790
40511SOL     OW23306  12.448   2.988   6.927
40511SOL    HW123307  12.514   2.929   6.892
40511SOL    HW223308  12.454   2.978   7.022
40512SOL     OW23309   4.288   8.918   2.145
40512SOL    HW123310   4.363   8.887   2.196
40512SOL    HW223311   4.273   9.007   2.176
40513SOL     OW23312   4.479   8.342   7.781
40513SOL    HW123313   4.392   8.328   7.745
40513SOL    HW223314   4.534   8.360   7.705
40514SOL     OW23315  10.952   7.930   1.176
40514SOL    HW123316  10.889   7.875   1.130
40514SOL    HW223317  10.949   8.014   1.130
40515SOL     OW23318  12.979   4.594  13.078
40515SOL    HW123319  12.895   4.572  13.038
40515SOL    HW223320  12.993   4.686  13.054
40516SOL     OW23321  10.473   4.972  10.430
40516SOL    HW123322  10.412   5.033  10.388
40516SOL    HW223323  10.483   4.901  10.367
40517SOL     OW23324   4.911   9.634   9.874
40517SOL    HW123325   4.960   9.556   9.899
40517SOL    HW223326   4.819   9.606   9.878
40518SOL     OW23327   2.430   6.981   5.827
40518SOL    HW123328   2.387   6.898   5.843
40518SOL    HW223329   2.380   7.021   5.756
40519SOL     OW23330  10.670  13.916  13.194
40519SOL    HW123331  10.759  13.881  13.185
40519SOL    HW223332  10.614  13.839  13.198
40520SOL     OW23333  12.607   2.118   4.519
40520SOL    HW123334  12.640   2.205   4.539
40520SOL    HW223335  12.513   2.123   4.535
40521SOL     OW23336   9.525  10.421  13.882
40521SOL    HW123337   9.463  10.387  13.946
40521SOL    HW223338   9.471  10.439  13.804
40522SOL     OW23339  10.672   4.254   0.509
40522SOL    HW123340  10.715   4.214   0.434
40522SOL    HW223341  10.732   4.238   0.582
40523SOL     OW23342   8.984  12.544   1.050
40523SOL    HW123343   8.932  12.465   1.034
40523SOL    HW223344   8.920  12.610   1.074
40524SOL     OW23345   1.172   6.573   5.709
40524SOL    HW123346   1.233   6.503   5.732
40524SOL    HW223347   1.207   6.609   5.628
40525SOL     OW23348  12.916   4.141   5.434
40525SOL    HW123349  12.989   4.149   5.496
40525SOL    HW223350  12.839   4.129   5.490
40526SOL     OW23351   7.968  11.803   3.322
40526SOL    HW123352   7.991  11.764   3.237
40526SOL    HW223353   8.007  11.890   3.319
40527SOL     OW23354  10.591   2.926  14.005
40527SOL    HW123355  10.548   2.964  13.928
40527SOL    HW223356  10.559   2.978  14.079
40528SOL     OW23357  11.051   6.873   8.336
40528SOL    HW123358  11.007   6.956   8.354
40528SOL    HW223359  10.982   6.815   8.303
40529SOL     OW23360  14.018   3.529   9.591
40529SOL    HW123361  13.988   3.577   9.668
40529SOL    HW223362  13.984   3.440   9.603
40530SOL     OW23363   7.236  11.700  12.495
40530SOL    HW123364   7.142  11.717  12.496
40530SOL    HW223365   7.262  11.696  12.587
40531SOL     OW23366   6.012   9.693   5.881
40531SOL    HW123367   6.057   9.617   5.918
40531SOL    HW223368   6.048   9.701   5.793
40532SOL     OW23369   6.612  13.106  11.699
40532SOL    HW123370   6.679  13.061  11.648
40532SOL    HW223371   6.654  13.187  11.729
40533SOL     OW23372   9.552   9.415   3.759
40533SOL    HW123373   9.476   9.399   3.814
40533SOL    HW223374   9.612   9.342   3.778
40534SOL     OW23375   9.644   8.922  14.567
40534SOL    HW123376   9.717   8.898  14.625
40534SOL    HW223377   9.614   9.006  14.600
40535SOL     OW23378   1.323   4.708  12.033
40535SOL    HW123379   1.325   4.772  11.962
40535SOL    HW223380   1.263   4.745  12.097
40536SOL     OW23381   1.670   2.136   8.033
40536SOL    HW123382   1.762   2.148   8.053
40536SOL    HW223383   1.624   2.161   8.113
40537SOL     OW23384  13.815   0.377   5.190
40537SOL    HW123385  13.779   0.450   5.240
40537SOL    HW223386  13.739   0.323   5.167
40538SOL     OW23387   5.633   8.848   5.851
40538SOL    HW123388   5.614   8.930   5.897
40538SOL    HW223389   5.578   8.851   5.772
40539SOL     OW23390   9.440  12.460  10.105
40539SOL    HW123391   9.415  12.378  10.062
40539SOL    HW223392   9.535  12.462  10.101
40540SOL     OW23393   9.711   1.487   1.511
40540SOL    HW123394   9.712   1.576   1.547
40540SOL    HW223395   9.666   1.435   1.576
40541SOL     OW23396  11.803  12.871  11.641
40541SOL    HW123397  11.766  12.798  11.591
40541SOL    HW223398  11.888  12.839  11.672
40542SOL     OW23399   5.079   5.593   1.845
40542SOL    HW123400   5.056   5.521   1.904
40542SOL    HW223401   4.996   5.616   1.803
40543SOL     OW23402   4.256  13.448  10.159
40543SOL    HW123403   4.258  13.367  10.210
40543SOL    HW223404   4.205  13.509  10.213
40544SOL     OW23405   5.276   4.409   0.023
40544SOL    HW123406   5.321   4.366  14.832
40544SOL    HW223407   5.334   4.396   0.099
40545SOL     OW23408   0.778   9.260  14.385
40545SOL    HW123409   0.733   9.343  14.396
40545SOL    HW223410   0.708   9.194  14.387
40546SOL     OW23411  11.793   9.290  12.293
40546SOL    HW123412  11.846   9.266  12.368
40546SOL    HW223413  11.835   9.369  12.257
40547SOL     OW23414   0.019   0.042   7.061
40547SOL    HW123415   0.040   0.065   7.151
40547SOL    HW223416  14.859   0.120   7.025
40548SOL     OW23417  13.489   1.626   3.712
40548SOL    HW123418  13.455   1.715   3.703
40548SOL    HW223419  13.475   1.603   3.804
40549SOL     OW23420   7.481   5.536   3.631
40549SOL    HW123421   7.507   5.627   3.625
40549SOL    HW223422   7.453   5.524   3.722
40550SOL     OW23423   3.718   9.505   0.749
40550SOL    HW123424   3.658   9.577   0.768
40550SOL    HW223425   3.750   9.522   0.661
40551SOL     OW23426  11.630   7.172  13.604
40551SOL    HW123427  11.720   7.138  13.610
40551SOL    HW223428  11.595   7.132  13.524
40552SOL     OW23429   7.291   5.416  14.388
40552SOL    HW123430   7.372   5.412  14.439
40552SOL    HW223431   7.319   5.433  14.298
40553SOL     OW23432   9.853  12.430  11.282
40553SOL    HW123433   9.778  12.387  11.324
40553SOL    HW223434   9.886  12.491  11.349
40554SOL     OW23435   4.690   6.207  11.110
40554SOL    HW123436   4.715   6.117  11.090
40554SOL    HW223437   4.732   6.260  11.042
40555SOL     OW23438   1.335   4.084   9.451
40555SOL    HW123439   1.344   4.010   9.511
40555SOL    HW223440   1.244   4.111   9.461
40556SOL     OW23441   1.597   5.616  10.138
40556SOL    HW123442   1.566   5.601  10.049
40556SOL    HW223443   1.620   5.528  10.170
40557SOL     OW23444   9.971  10.067  12.372
40557SOL    HW123445  10.020  10.012  12.311
40557SOL    HW223446  10.015  10.056  12.456
40558SOL     OW23447   5.249   3.816   2.583
40558SOL    HW123448   5.331   3.768   2.596
40558SOL    HW223449   5.247   3.880   2.655
40559SOL     OW23450  14.389   2.640   0.036
40559SOL    HW123451  14.317   2.624  14.856
40559SOL    HW223452  14.455   2.685  14.865
40560SOL     OW23453  14.812  11.254   4.767
40560SOL    HW123454  14.834  11.175   4.815
40560SOL    HW223455  14.861  11.323   4.810
40561SOL     OW23456   7.176   0.272  10.124
40561SOL    HW123457   7.218   0.319  10.196
40561SOL    HW223458   7.240   0.276  10.052
40562SOL     OW23459  12.477  11.372  13.284
40562SOL    HW123460  12.506  11.411  13.367
40562SOL    HW223461  12.401  11.425  13.259
40563SOL     OW23462   5.855   6.981   0.173
40563SOL    HW123463   5.853   6.975   0.078
40563SOL    HW223464   5.826   7.071   0.192
40564SOL     OW23465  11.384   3.887   2.338
40564SOL    HW123466  11.432   3.809   2.313
40564SOL    HW223467  11.412   3.954   2.276
40565SOL     OW23468   1.279   4.246   6.159
40565SOL    HW123469   1.331   4.251   6.079
40565SOL    HW223470   1.278   4.336   6.192
40566SOL     OW23471   8.550   2.535  14.087
40566SOL    HW123472   8.533   2.520  13.994
40566SOL    HW223473   8.474   2.586  14.117
40567SOL     OW23474   5.802   3.683   6.420
40567SOL    HW123475   5.713   3.684   6.455
40567SOL    HW223476   5.854   3.728   6.487
40568SOL     OW23477  14.056   6.124   7.795
40568SOL    HW123478  13.999   6.092   7.865
40568SOL    HW223479  14.011   6.100   7.714
40569SOL     OW23480   8.893   8.841   4.503
40569SOL    HW123481   8.962   8.785   4.539
40569SOL    HW223482   8.823   8.835   4.568
40570SOL     OW23483  12.937   0.437   6.421
40570SOL    HW123484  12.998   0.364   6.421
40570SOL    HW223485  12.924   0.458   6.328
40571SOL     OW23486   6.592   7.226   9.140
40571SOL    HW123487   6.618   7.313   9.171
40571SOL    HW223488   6.502   7.216   9.170
40572SOL     OW23489   7.381  11.622  14.440
40572SOL    HW123490   7.436  11.545  14.439
40572SOL    HW223491   7.440  11.695  14.422
40573SOL     OW23492   9.175   9.625   8.276
40573SOL    HW123493   9.121   9.652   8.203
40573SOL    HW223494   9.257   9.595   8.236
40574SOL     OW23495   0.233   3.583   5.768
40574SOL    HW123496   0.210   3.491   5.782
40574SOL    HW223497   0.149   3.629   5.773
40575SOL     OW23498  14.858   6.708   2.565
40575SOL    HW123499  14.810   6.781   2.525
40575SOL    HW223500   0.059   6.705   2.517
40576SOL     OW23501  13.632   5.194   4.154
40576SOL    HW123502  13.558   5.184   4.094
40576SOL    HW223503  13.708   5.209   4.098
40577SOL     OW23504   5.756   9.298   5.733
40577SOL    HW123505   5.734   9.221   5.681
40577SOL    HW223506   5.830   9.338   5.688
40578SOL     OW23507   5.083   3.276   4.348
40578SOL    HW123508   5.149   3.207   4.346
40578SOL    HW223509   5.045   3.271   4.436
40579SOL     OW23510   0.684   6.207   7.987
40579SOL    HW123511   0.617   6.274   8.002
40579SOL    HW223512   0.704   6.214   7.894
40580SOL     OW23513  10.063  10.835   6.005
40580SOL    HW123514  10.036  10.927   6.001
40580SOL    HW223515  10.029  10.804   6.089
40581SOL     OW23516   9.785   7.099   4.469
40581SOL    HW123517   9.690   7.109   4.472
40581SOL    HW223518   9.807   7.110   4.377
40582SOL     OW23519  10.639  11.868   2.183
40582SOL    HW123520  10.667  11.958   2.162
40582SOL    HW223521  10.559  11.855   2.131
40583SOL     OW23522   1.103   6.372  10.063
40583SOL    HW123523   1.082   6.447  10.118
40583SOL    HW223524   1.023   6.355  10.014
40584SOL     OW23525   2.283  10.908   4.377
40584SOL    HW123526   2.242  10.980   4.329
40584SOL    HW223527   2.373  10.905   4.346
40585SOL     OW23528   7.284   8.393  12.899
40585SOL    HW123529   7.268   8.312  12.851
40585SOL    HW223530   7.379   8.404  12.898
40586SOL     OW23531   0.024   1.115  13.242
40586SOL    HW123532   0.012   1.140  13.333
40586SOL    HW223533   0.102   1.163  13.214
40587SOL     OW23534  13.409   0.707   6.448
40587SOL    HW123535  13.448   0.782   6.403
40587SOL    HW223536  13.365   0.745   6.524
40588SOL     OW23537   5.827   4.572   2.470
40588SOL    HW123538   5.854   4.545   2.558
40588SOL    HW223539   5.733   4.590   2.479
40589SOL     OW23540  13.838   2.651   3.746
40589SOL    HW123541  13.845   2.587   3.675
40589SOL    HW223542  13.809   2.600   3.822
40590SOL     OW23543  10.360  12.784   0.838
40590SOL    HW123544  10.435  12.803   0.895
40590SOL    HW223545  10.385  12.820   0.753
40591SOL     OW23546   6.288   3.474   0.889
40591SOL    HW123547   6.351   3.543   0.907
40591SOL    HW223548   6.310   3.404   0.950
40592SOL     OW23549  11.822  11.352  11.789
40592SOL    HW123550  11.788  11.435  11.824
40592SOL    HW223551  11.869  11.313  11.863
40593SOL     OW23552   9.261   2.913   2.243
40593SOL    HW123553   9.284   2.886   2.154
40593SOL    HW223554   9.324   2.982   2.264
40594SOL     OW23555  10.274   9.441   9.650
40594SOL    HW123556  10.358   9.471   9.686
40594SOL    HW223557  10.298   9.386   9.576
40595SOL     OW23558  14.842  14.358  12.243
40595SOL    HW123559  14.769  14.419  12.251
40595SOL    HW223560   0.034  14.402  12.285
40596SOL     OW23561   1.903  14.581   1.055
40596SOL    HW123562   1.915  14.529   0.976
40596SOL    HW223563   1.982  14.566   1.106
40597SOL     OW23564  11.865  13.416   4.758
40597SOL    HW123565  11.883  13.503   4.724
40597SOL    HW223566  11.866  13.426   4.853
40598SOL     OW23567  12.133  14.767   2.991
40598SOL    HW123568  12.147  14.790   2.900
40598SOL    HW223569  12.166  14.842   3.041
40599SOL     OW23570   5.496  11.714   7.473
40599SOL    HW123571   5.510  11.623   7.448
40599SOL    HW223572   5.400  11.723   7.477
40600SOL     OW23573   0.448   6.352   9.287
40600SOL    HW123574   0.540   6.365   9.264
40600SOL    HW223575   0.450   6.303   9.369
40601SOL     OW23576   6.184   6.044   1.384
40601SOL    HW123577   6.260   6.038   1.327
40601SOL    HW223578   6.110   6.059   1.324
40602SOL     OW23579   8.852   4.582   7.355
40602SOL    HW123580   8.823   4.599   7.265
40602SOL    HW223581   8.940   4.621   7.360
40603SOL     OW23582   9.730  12.650  12.422
40603SOL    HW123583   9.707  12.618  12.335
40603SOL    HW223584   9.826  12.642  12.425
40604SOL     OW23585  12.817   7.865   3.267
40604SOL    HW123586  12.805   7.777   3.232
40604SOL    HW223587  12.857   7.914   3.195
40605SOL     OW23588   7.022   1.638  11.205
40605SOL    HW123589   6.956   1.569  11.211
40605SOL    HW223590   7.078   1.625  11.281
40606SOL     OW23591   5.468   7.282   6.679
40606SOL    HW123592   5.458   7.369   6.642
40606SOL    HW223593   5.557   7.256   6.656
40607SOL     OW23594  14.059   9.187  14.617
40607SOL    HW123595  14.029   9.136  14.542
40607SOL    HW223596  14.153   9.174  14.619
40608SOL     OW23597  13.678  14.196   5.369
40608SOL    HW123598  13.659  14.106   5.343
40608SOL    HW223599  13.606  14.219   5.429
40609SOL     OW23600   1.707   5.559  11.992
40609SOL    HW123601   1.713   5.526  12.082
40609SOL    HW223602   1.678   5.649  12.001
40610SOL     OW23603  10.707  13.460  11.022
40610SOL    HW123604  10.656  13.540  11.011
40610SOL    HW223605  10.728  13.432  10.933
40611SOL     OW23606  12.903   2.495  10.176
40611SOL    HW123607  12.908   2.550  10.098
40611SOL    HW223608  12.984   2.513  10.223
40612SOL     OW23609  12.279   3.932   5.574
40612SOL    HW123610  12.287   3.997   5.644
40612SOL    HW223611  12.284   3.848   5.620
40613SOL     OW23612   4.119   5.735  14.399
40613SOL    HW123613   4.027   5.737  14.374
40613SOL    HW223614   4.132   5.648  14.436
40614SOL     OW23615   4.056  10.662   1.934
40614SOL    HW123616   4.012  10.693   2.013
40614SOL    HW223617   4.021  10.574   1.921
40615SOL     OW23618   7.518  13.244  12.110
40615SOL    HW123619   7.439  13.231  12.057
40615SOL    HW223620   7.558  13.323  12.072
40616SOL     OW23621   4.705   9.677   1.258
40616SOL    HW123622   4.753   9.598   1.282
40616SOL    HW223623   4.761   9.749   1.287
40617SOL     OW23624   2.106   4.446   4.534
40617SOL    HW123625   2.072   4.491   4.612
40617SOL    HW223626   2.162   4.510   4.491
40618SOL     OW23627   6.154   5.214   1.370
40618SOL    HW123628   6.217   5.152   1.333
40618SOL    HW223629   6.072   5.165   1.376
40619SOL     OW23630  14.052  14.488  12.276
40619SOL    HW123631  14.080  14.462  12.364
40619SOL    HW223632  14.104  14.566  12.258
40620SOL     OW23633   9.583   6.609  13.821
40620SOL    HW123634   9.627   6.611  13.906
40620SOL    HW223635   9.506   6.554  13.836
40621SOL     OW23636   0.680   9.230   8.504
40621SOL    HW123637   0.639   9.271   8.580
40621SOL    HW223638   0.734   9.300   8.467
40622SOL     OW23639  10.629   9.539   0.827
40622SOL    HW123640  10.541   9.552   0.790
40622SOL    HW223641  10.641   9.614   0.884
40623SOL     OW23642   9.816   4.659   4.812
40623SOL    HW123643   9.855   4.737   4.850
40623SOL    HW223644   9.854   4.652   4.725
40624SOL     OW23645  14.615   6.853   7.679
40624SOL    HW123646  14.593   6.766   7.645
40624SOL    HW223647  14.563   6.862   7.758
40625SOL     OW23648   6.361  13.741   0.424
40625SOL    HW123649   6.343  13.736   0.331
40625SOL    HW223650   6.457  13.738   0.431
40626SOL     OW23651   9.443   4.699   1.049
40626SOL    HW123652   9.485   4.622   1.009
40626SOL    HW223653   9.350   4.679   1.048
40627SOL     OW23654  10.119   2.352   5.880
40627SOL    HW123655  10.191   2.411   5.899
40627SOL    HW223656  10.147   2.304   5.802
40628SOL     OW23657   5.899  11.726  10.749
40628SOL    HW123658   5.809  11.752  10.729
40628SOL    HW223659   5.939  11.806  10.786
40629SOL     OW23660   6.004  13.617   1.512
40629SOL    HW123661   5.950  13.695   1.498
40629SOL    HW223662   5.996  13.598   1.605
40630SOL     OW23663   2.598   7.736  11.836
40630SOL    HW123664   2.679   7.780  11.863
40630SOL    HW223665   2.535   7.807  11.826
40631SOL     OW23666   9.404   9.057  12.163
40631SOL    HW123667   9.397   9.052  12.258
40631SOL    HW223668   9.321   9.022  12.131
40632SOL     OW23669   4.035   7.677   4.363
40632SOL    HW123670   4.005   7.586   4.361
40632SOL    HW223671   4.130   7.671   4.370
40633SOL     OW23672   5.357   0.084  13.243
40633SOL    HW123673   5.277   0.109  13.196
40633SOL    HW223674   5.398   0.167  13.268
40634SOL     OW23675  14.293  10.470  13.153
40634SOL    HW123676  14.366  10.531  13.168
40634SOL    HW223677  14.254  10.458  13.240
40635SOL     OW23678   2.428   9.968  10.803
40635SOL    HW123679   2.357  10.027  10.777
40635SOL    HW223680   2.508  10.011  10.774
40636SOL     OW23681  13.628  14.424  13.141
40636SOL    HW123682  13.655  14.373  13.065
40636SOL    HW223683  13.568  14.490  13.106
40637SOL     OW23684   4.701  11.589   4.986
40637SOL    HW123685   4.694  11.667   4.931
40637SOL    HW223686   4.625  11.536   4.963
40638SOL     OW23687   5.615  12.530   7.828
40638SOL    HW123688   5.549  12.600   7.828
40638SOL    HW223689   5.647  12.528   7.738
40639SOL     OW23690   3.566   5.058   7.466
40639SOL    HW123691   3.487   5.109   7.485
40639SOL    HW223692   3.634   5.124   7.455
40640SOL     OW23693   7.184   3.046   7.765
40640SOL    HW123694   7.149   2.962   7.734
40640SOL    HW223695   7.157   3.050   7.857
40641SOL     OW23696   0.643  12.360   8.323
40641SOL    HW123697   0.668  12.326   8.409
40641SOL    HW223698   0.592  12.439   8.341
40642SOL     OW23699   9.685  14.297  11.352
40642SOL    HW123700   9.693  14.383  11.393
40642SOL    HW223701   9.715  14.236  11.419
40643SOL     OW23702  13.678   1.019   5.859
40643SOL    HW123703  13.725   1.096   5.892
40643SOL    HW223704  13.714   1.005   5.772
40644SOL     OW23705  12.029  10.858  10.743
40644SOL    HW123706  12.093  10.811  10.796
40644SOL    HW223707  12.032  10.814  10.658
40645SOL     OW23708   7.913   7.223   8.119
40645SOL    HW123709   7.846   7.161   8.091
40645SOL    HW223710   7.941   7.191   8.205
40646SOL     OW23711  12.498   3.052  10.456
40646SOL    HW123712  12.475   3.074  10.547
40646SOL    HW223713  12.570   2.990  10.464
40647SOL     OW23714  12.557  10.979  13.896
40647SOL    HW123715  12.484  10.933  13.936
40647SOL    HW223716  12.559  10.946  13.806
40648SOL     OW23717   5.768  14.519   8.699
40648SOL    HW123718   5.707  14.493   8.768
40648SOL    HW223719   5.851  14.532   8.744
40649SOL     OW23720   3.375   8.262   9.423
40649SOL    HW123721   3.432   8.210   9.480
40649SOL    HW223722   3.294   8.213   9.417
40650SOL     OW23723   9.969   3.343   6.239
40650SOL    HW123724   9.965   3.369   6.331
40650SOL    HW223725   9.880   3.357   6.207
40651SOL     OW23726  12.991   9.305   1.497
40651SOL    HW123727  12.928   9.288   1.427
40651SOL    HW223728  12.938   9.340   1.569
40652SOL     OW23729   9.861  13.146   5.035
40652SOL    HW123730   9.895  13.189   5.113
40652SOL    HW223731   9.916  13.069   5.024
40653SOL     OW23732   6.718   1.089   5.008
40653SOL    HW123733   6.764   1.083   5.091
40653SOL    HW223734   6.780   1.057   4.943
40654SOL     OW23735   0.924   7.212  14.750
40654SOL    HW123736   1.009   7.189  14.714
40654SOL    HW223737   0.911   7.153  14.824
40655SOL     OW23738   9.314   2.813   5.616
40655SOL    HW123739   9.308   2.888   5.676
40655SOL    HW223740   9.346   2.742   5.671
40656SOL     OW23741   6.184  12.402  11.623
40656SOL    HW123742   6.253  12.411  11.688
40656SOL    HW223743   6.118  12.348  11.665
40657SOL     OW23744   5.092  12.425   1.170
40657SOL    HW123745   5.099  12.498   1.109
40657SOL    HW223746   5.015  12.377   1.140
40658SOL     OW23747  14.423   1.255   4.328
40658SOL    HW123748  14.338   1.233   4.290
40658SOL    HW223749  14.468   1.304   4.259
40659SOL     OW23750   4.592   1.409  10.304
40659SOL    HW123751   4.672   1.358  10.288
40659SOL    HW223752   4.601   1.486  10.248
40660SOL     OW23753  14.360   2.175   9.966
40660SOL    HW123754  14.330   2.263   9.989
40660SOL    HW223755  14.286   2.118   9.989
40661SOL     OW23756   2.319  12.971   3.872
40661SOL    HW123757   2.326  12.942   3.781
40661SOL    HW223758   2.325  13.066   3.868
40662SOL     OW23759   0.652   0.852   5.893
40662SOL    HW123760   0.592   0.889   5.829
40662SOL    HW223761   0.605   0.858   5.977
40663SOL     OW23762   3.083   1.341  14.439
40663SOL    HW123763   3.168   1.365  14.475
40663SOL    HW223764   3.027   1.330  14.516
40664SOL     OW23765  12.007   4.759  10.445
40664SOL    HW123766  11.950   4.685  10.424
40664SOL    HW223767  12.004   4.815  10.367
40665SOL     OW23768   5.402   4.889   4.357
40665SOL    HW123769   5.393   4.798   4.385
40665SOL    HW223770   5.496   4.901   4.344
40666SOL     OW23771   8.690   7.225   5.189
40666SOL    HW123772   8.739   7.179   5.121
40666SOL    HW223773   8.692   7.165   5.264
40667SOL     OW23774   4.889   7.460   8.415
40667SOL    HW123775   4.809   7.491   8.371
40667SOL    HW223776   4.952   7.531   8.403
40668SOL     OW23777   6.462   6.842   9.773
40668SOL    HW123778   6.506   6.777   9.827
40668SOL    HW223779   6.533   6.892   9.733
40669SOL     OW23780   9.758  11.244   3.694
40669SOL    HW123781   9.677  11.198   3.671
40669SOL    HW223782   9.827  11.194   3.649
40670SOL     OW23783   8.423   3.064   9.257
40670SOL    HW123784   8.398   2.982   9.300
40670SOL    HW223785   8.517   3.056   9.243
40671SOL     OW23786   8.922   5.487   0.703
40671SOL    HW123787   8.910   5.445   0.789
40671SOL    HW223788   8.960   5.572   0.724
40672SOL     OW23789   8.521   9.846   3.508
40672SOL    HW123790   8.595   9.803   3.466
40672SOL    HW223791   8.550   9.936   3.522
40673SOL     OW23792   9.662  11.405  11.355
40673SOL    HW123793   9.689  11.329  11.407
40673SOL    HW223794   9.717  11.402  11.277
40674SOL     OW23795   2.350   2.128   1.554
40674SOL    HW123796   2.292   2.157   1.483
40674SOL    HW223797   2.435   2.113   1.511
40675SOL     OW23798   4.629   7.705  10.104
40675SOL    HW123799   4.661   7.795  10.111
40675SOL    HW223800   4.678   7.667  10.031
40676SOL     OW23801  11.163   2.022  11.193
40676SOL    HW123802  11.114   1.993  11.270
40676SOL    HW223803  11.096   2.029  11.125
40677SOL     OW23804   3.463   1.327  14.143
40677SOL    HW123805   3.540   1.306  14.091
40677SOL    HW223806   3.471   1.272  14.221
40678SOL     OW23807   0.303   9.238   7.344
40678SOL    HW123808   0.390   9.273   7.324
40678SOL    HW223809   0.255   9.246   7.262
40679SOL     OW23810   9.326   3.782  13.287
40679SOL    HW123811   9.344   3.691  13.260
40679SOL    HW223812   9.363   3.788  13.375
40680SOL     OW23813  10.216   7.259  13.921
40680SOL    HW123814  10.186   7.338  13.876
40680SOL    HW223815  10.312   7.263  13.914
40681SOL     OW23816  11.698   9.647   6.908
40681SOL    HW123817  11.711   9.615   6.819
40681SOL    HW223818  11.603   9.640   6.922
40682SOL     OW23819   2.060  14.012   1.155
40682SOL    HW123820   2.095  13.924   1.139
40682SOL    HW223821   1.999  14.001   1.228
40683SOL     OW23822   1.023   9.599  14.072
40683SOL    HW123823   1.020   9.542  14.149
40683SOL    HW223824   1.072   9.676  14.102
40684SOL     OW23825   7.493  11.118   4.160
40684SOL    HW123826   7.533  11.188   4.108
40684SOL    HW223827   7.541  11.039   4.134
40685SOL     OW23828   4.833   7.966   8.548
40685SOL    HW123829   4.881   7.960   8.631
40685SOL    HW223830   4.880   7.907   8.488
40686SOL     OW23831   5.491   7.079   6.946
40686SOL    HW123832   5.532   7.116   7.024
40686SOL    HW223833   5.493   7.150   6.882
40687SOL     OW23834   0.741   1.411  12.047
40687SOL    HW123835   0.656   1.421  12.003
40687SOL    HW223836   0.736   1.325  12.089
40688SOL     OW23837   4.172   5.318   8.847
40688SOL    HW123838   4.113   5.388   8.819
40688SOL    HW223839   4.259   5.349   8.823
40689SOL     OW23840   9.375   4.829   5.252
40689SOL    HW123841   9.333   4.751   5.288
40689SOL    HW223842   9.413   4.873   5.328
40690SOL     OW23843   9.974   7.306  11.834
40690SOL    HW123844  10.059   7.281  11.871
40690SOL    HW223845   9.995   7.339  11.747
40691SOL     OW23846  10.130   8.544  10.979
40691SOL    HW123847  10.166   8.520  11.064
40691SOL    HW223848  10.038   8.518  10.984
40692SOL     OW23849   3.308   1.108   8.752
40692SOL    HW123850   3.232   1.166   8.748
40692SOL    HW223851   3.323   1.082   8.661
40693SOL     OW23852   1.485   4.676   4.598
40693SOL    HW123853   1.566   4.658   4.551
40693SOL    HW223854   1.460   4.591   4.635
40694SOL     OW23855  10.331  13.800   2.396
40694SOL    HW123856  10.243  13.771   2.422
40694SOL    HW223857  10.360  13.733   2.333
40695SOL     OW23858   2.206   0.969   4.027
40695SOL    HW123859   2.262   0.897   3.996
40695SOL    HW223860   2.233   0.982   4.118
40696SOL     OW23861  13.260   2.810   0.492
40696SOL    HW123862  13.222   2.894   0.464
40696SOL    HW223863  13.275   2.763   0.410
40697SOL     OW23864   5.286   1.706   9.121
40697SOL    HW123865   5.275   1.801   9.119
40697SOL    HW223866   5.212   1.675   9.174
40698SOL     OW23867  11.471   3.612   5.502
40698SOL    HW123868  11.532   3.620   5.575
40698SOL    HW223869  11.433   3.700   5.493
40699SOL     OW23870  10.114  13.616   5.031
40699SOL    HW123871  10.167  13.629   5.109
40699SOL    HW223872  10.162  13.661   4.962
40700SOL     OW23873   8.054  13.707   4.568
40700SOL    HW123874   7.997  13.772   4.527
40700SOL    HW223875   8.079  13.648   4.496
40701SOL     OW23876  10.021   5.236   1.550
40701SOL    HW123877  10.041   5.243   1.456
40701SOL    HW223878   9.940   5.287   1.561
40702SOL     OW23879   1.248   7.716  12.559
40702SOL    HW123880   1.300   7.758  12.491
40702SOL    HW223881   1.163   7.700  12.519
40703SOL     OW23882   3.945   6.356  11.192
40703SOL    HW123883   4.037   6.381  11.198
40703SOL    HW223884   3.928   6.348  11.099
40704SOL     OW23885  12.237   6.282  11.246
40704SOL    HW123886  12.204   6.258  11.160
40704SOL    HW223887  12.230   6.377  11.250
40705SOL     OW23888   9.640   2.429   6.529
40705SOL    HW123889   9.583   2.353   6.541
40705SOL    HW223890   9.596   2.481   6.462
40706SOL     OW23891   6.151   4.893   8.994
40706SOL    HW123892   6.236   4.850   8.982
40706SOL    HW223893   6.172   4.982   9.020
40707SOL     OW23894  13.265  10.950   1.402
40707SOL    HW123895  13.294  10.911   1.320
40707SOL    HW223896  13.346  10.974   1.447
40708SOL     OW23897  10.836   5.104   7.182
40708SOL    HW123898  10.811   5.037   7.245
40708SOL    HW223899  10.892   5.164   7.232
40709SOL     OW23900   2.193   0.517  12.951
40709SOL    HW123901   2.286   0.531  12.931
40709SOL    HW223902   2.188   0.427  12.982
40710SOL     OW23903   7.850   8.774   6.973
40710SOL    HW123904   7.861   8.679   6.979
40710SOL    HW223905   7.891   8.798   6.891
40711SOL     OW23906   5.537   1.187   3.290
40711SOL    HW123907   5.456   1.161   3.333
40711SOL    HW223908   5.602   1.122   3.317
40712SOL     OW23909   9.661   0.139   3.754
40712SOL    HW123910   9.709   0.070   3.799
40712SOL    HW223911   9.721   0.214   3.753
40713SOL     OW23912   1.521   6.641   4.705
40713SOL    HW123913   1.615   6.646   4.690
40713SOL    HW223914   1.512   6.636   4.800
40714SOL     OW23915   7.646   9.642  12.666
40714SOL    HW123916   7.585   9.671  12.599
40714SOL    HW223917   7.595   9.583  12.721
40715SOL     OW23918   2.095   8.964   8.111
40715SOL    HW123919   2.093   8.983   8.017
40715SOL    HW223920   2.046   8.883   8.121
40716SOL     OW23921   7.253   0.994  12.054
40716SOL    HW123922   7.189   0.925  12.074
40716SOL    HW223923   7.236   1.017  11.963
40717SOL     OW23924  13.161   4.064   7.753
40717SOL    HW123925  13.182   3.971   7.740
40717SOL    HW223926  13.130   4.093   7.667
40718SOL     OW23927   7.992   8.446   7.646
40718SOL    HW123928   7.981   8.519   7.707
40718SOL    HW223929   7.953   8.477   7.564
40719SOL     OW23930  13.205   2.315   5.029
40719SOL    HW123931  13.182   2.334   5.120
40719SOL    HW223932  13.171   2.390   4.979
40720SOL     OW23933  12.543   0.142   7.356
40720SOL    HW123934  12.595   0.219   7.333
40720SOL    HW223935  12.592   0.068   7.318
40721SOL     OW23936   6.832   2.196   5.601
40721SOL    HW123937   6.905   2.157   5.552
40721SOL    HW223938   6.830   2.148   5.684
40722SOL     OW23939   3.750  14.322   0.209
40722SOL    HW123940   3.814  14.297   0.142
40722SOL    HW223941   3.721  14.239   0.247
40723SOL     OW23942   0.746   3.950  12.939
40723SOL    HW123943   0.709   4.023  12.889
40723SOL    HW223944   0.673   3.916  12.991
40724SOL     OW23945  11.811   9.305   9.733
40724SOL    HW123946  11.725   9.322   9.770
40724SOL    HW223947  11.869   9.298   9.809
40725SOL     OW23948   4.289   3.168   7.398
40725SOL    HW123949   4.216   3.231   7.403
40725SOL    HW223950   4.343   3.189   7.474
40726SOL     OW23951  12.533   4.965   3.377
40726SOL    HW123952  12.500   5.044   3.421
40726SOL    HW223953  12.617   4.948   3.420
40727SOL     OW23954   1.484   9.009   5.161
40727SOL    HW123955   1.396   8.991   5.195
40727SOL    HW223956   1.496   9.103   5.173
40728SOL     OW23957  12.435  14.384  10.601
40728SOL    HW123958  12.368  14.324  10.636
40728SOL    HW223959  12.500  14.390  10.672
40729SOL     OW23960  11.725   4.126  14.504
40729SOL    HW123961  11.791   4.191  14.479
40729SOL    HW223962  11.641   4.167  14.480
40730SOL     OW23963   9.727   5.243   0.599
40730SOL    HW123964   9.709   5.292   0.680
40730SOL    HW223965   9.715   5.152   0.623
40731SOL     OW23966  10.418   2.858  11.994
40731SOL    HW123967  10.471   2.853  11.915
40731SOL    HW223968  10.328   2.867  11.963
40732SOL     OW23969  10.019  11.099   0.491
40732SOL    HW123970   9.959  11.029   0.465
40732SOL    HW223971   9.977  11.139   0.567
40733SOL     OW23972   4.202  11.246   6.346
40733SOL    HW123973   4.151  11.181   6.394
40733SOL    HW223974   4.169  11.330   6.376
40734SOL     OW23975  10.570   6.602  12.769
40734SOL    HW123976  10.594   6.640  12.854
40734SOL    HW223977  10.493   6.548  12.789
40735SOL     OW23978   0.414   0.963  14.672
40735SOL    HW123979   0.404   0.942  14.579
40735SOL    HW223980   0.509   0.962  14.686
40736SOL     OW23981  10.520   2.049  10.267
40736SOL    HW123982  10.602   2.001  10.281
40736SOL    HW223983  10.543   2.119  10.205
40737SOL     OW23984   0.634  12.142  10.375
40737SOL    HW123985   0.682  12.072  10.331
40737SOL    HW223986   0.561  12.098  10.419
40738SOL     OW23987  10.478   3.639   4.702
40738SOL    HW123988  10.423   3.688   4.763
40738SOL    HW223989  10.552   3.609   4.755
40739SOL     OW23990  13.421   1.390   0.216
40739SOL    HW123991  13.436   1.475   0.174
40739SOL    HW223992  13.507   1.348   0.216
40740SOL     OW23993   9.467  14.596   0.936
40740SOL    HW123994   9.471  14.642   1.020
40740SOL    HW223995   9.555  14.604   0.900
40741SOL     OW23996   4.415  12.045   6.300
40741SOL    HW123997   4.448  12.080   6.217
40741SOL    HW223998   4.322  12.065   6.299
40742SOL     OW23999  13.890   7.242   5.549
40742SOL    HW124000  13.947   7.308   5.590
40742SOL    HW224001  13.855   7.285   5.471
40743SOL     OW24002   7.932   0.594   8.554
40743SOL    HW124003   7.880   0.628   8.481
40743SOL    HW224004   7.868   0.553   8.612
40744SOL     OW24005   8.008   5.092   6.052
40744SOL    HW124006   7.947   5.018   6.050
40744SOL    HW224007   8.088   5.058   6.012
40745SOL     OW24008   6.814   2.894   0.909
40745SOL    HW124009   6.829   2.830   0.840
40745SOL    HW224010   6.888   2.955   0.902
40746SOL     OW24011  13.812  11.274   3.111
40746SOL    HW124012  13.779  11.359   3.140
40746SOL    HW224013  13.796  11.216   3.185
40747SOL     OW24014  14.809   2.270  10.973
40747SOL    HW124015  14.779   2.309  11.055
40747SOL    HW224016   0.022   2.287  10.971
40748SOL     OW24017   3.421   4.997  14.362
40748SOL    HW124018   3.349   5.048  14.324
40748SOL    HW224019   3.390   4.975  14.450
40749SOL     OW24020   1.408   2.303   7.159
40749SOL    HW124021   1.364   2.240   7.103
40749SOL    HW224022   1.363   2.386   7.143
40750SOL     OW24023   4.118   3.862   6.119
40750SOL    HW124024   4.176   3.937   6.108
40750SOL    HW224025   4.032   3.895   6.094
40751SOL     OW24026   1.734  10.628   4.142
40751SOL    HW124027   1.675  10.554   4.148
40751SOL    HW224028   1.810  10.602   4.194
40752SOL     OW24029   3.155   3.921  12.403
40752SOL    HW124030   3.162   4.009  12.365
40752SOL    HW224031   3.077   3.883  12.363
40753SOL     OW24032   7.118   6.246   6.061
40753SOL    HW124033   7.186   6.206   6.116
40753SOL    HW224034   7.057   6.284   6.124
40754SOL     OW24035  12.396  13.080  14.782
40754SOL    HW124036  12.465  13.051  14.722
40754SOL    HW224037  12.429  13.162  14.819
40755SOL     OW24038  10.127   2.248   0.641
40755SOL    HW124039  10.051   2.260   0.584
40755SOL    HW224040  10.129   2.154   0.658
40756SOL     OW24041   6.600   0.822  12.355
40756SOL    HW124042   6.506   0.819  12.374
40756SOL    HW224043   6.641   0.830  12.441
40757SOL     OW24044   0.046   4.246   3.894
40757SOL    HW124045   0.007   4.217   3.812
40757SOL    HW224046  14.878   4.199   3.962
40758SOL     OW24047  11.640  12.858   1.410
40758SOL    HW124048  11.577  12.926   1.433
40758SOL    HW224049  11.709  12.865   1.477
40759SOL     OW24050   4.945   9.275   4.064
40759SOL    HW124051   4.928   9.289   4.157
40759SOL    HW224052   5.036   9.301   4.052
40760SOL     OW24053  13.413  11.461  14.660
40760SOL    HW124054  13.325  11.440  14.628
40760SOL    HW224055  13.412  11.432  14.752
40761SOL     OW24056   0.679   3.304   5.380
40761SOL    HW124057   0.717   3.389   5.403
40761SOL    HW224058   0.591   3.325   5.350
40762SOL     OW24059   0.935  14.716  12.933
40762SOL    HW124060   0.853  14.762  12.912
40762SOL    HW224061   0.967  14.685  12.848
40763SOL     OW24062   8.354   3.995   3.148
40763SOL    HW124063   8.385   3.921   3.201
40763SOL    HW224064   8.400   3.986   3.065
40764SOL     OW24065   1.540  10.372   5.405
40764SOL    HW124066   1.636  10.370   5.410
40764SOL    HW224067   1.517  10.464   5.415
40765SOL     OW24068   5.924   6.310  13.320
40765SOL    HW124069   5.967   6.226  13.304
40765SOL    HW224070   5.992   6.366  13.357
40766SOL     OW24071   6.642  14.769  10.718
40766SOL    HW124072   6.608  14.831  10.782
40766SOL    HW224073   6.717  14.728  10.762
40767SOL     OW24074   1.889   2.917   8.903
40767SOL    HW124075   1.857   2.840   8.856
40767SOL    HW224076   1.819   2.981   8.893
40768SOL     OW24077   2.099   3.593  10.633
40768SOL    HW124078   2.005   3.603  10.648
40768SOL    HW224079   2.114   3.498  10.637
40769SOL     OW24080   4.744   0.507   5.717
40769SOL    HW124081   4.811   0.575   5.727
40769SOL    HW224082   4.731   0.472   5.805
40770SOL     OW24083   1.014  10.222   9.412
40770SOL    HW124084   1.033  10.134   9.443
40770SOL    HW224085   1.062  10.229   9.329
40771SOL     OW24086   2.656  12.381  14.862
40771SOL    HW124087   2.676  12.335  14.781
40771SOL    HW224088   2.583  12.439  14.840
40772SOL     OW24089   5.393  11.182   7.466
40772SOL    HW124090   5.352  11.226   7.540
40772SOL    HW224091   5.336  11.200   7.392
40773SOL     OW24092   1.412  12.179  10.027
40773SOL    HW124093   1.385  12.254   9.974
40773SOL    HW224094   1.505  12.169  10.008
40774SOL     OW24095  10.308  13.863   2.980
40774SOL    HW124096  10.322  13.835   2.889
40774SOL    HW224097  10.216  13.887   2.984
40775SOL     OW24098  10.978   9.780   8.188
40775SOL    HW124099  11.067   9.752   8.210
40775SOL    HW224100  10.922   9.710   8.221
40776SOL     OW24101   7.501   5.927  11.022
40776SOL    HW124102   7.583   5.939  10.975
40776SOL    HW224103   7.504   5.836  11.054
40777SOL     OW24104   5.887  14.784   6.890
40777SOL    HW124105   5.864  14.863   6.842
40777SOL    HW224106   5.905  14.719   6.822
40778SOL     OW24107   5.861   3.101  13.247
40778SOL    HW124108   5.852   3.073  13.156
40778SOL    HW224109   5.783   3.068  13.290
40779SOL     OW24110  14.351  10.895   3.502
40779SOL    HW124111  14.318  10.982   3.481
40779SOL    HW224112  14.299  10.836   3.447
40780SOL     OW24113  11.608   4.714  10.644
40780SOL    HW124114  11.564   4.715  10.559
40780SOL    HW224115  11.690   4.760  10.629
40781SOL     OW24116   8.856   0.208   3.418
40781SOL    HW124117   8.770   0.239   3.446
40781SOL    HW224118   8.848   0.199   3.323
40782SOL     OW24119   0.790   8.539   4.248
40782SOL    HW124120   0.771   8.559   4.340
40782SOL    HW224121   0.789   8.624   4.205
40783SOL     OW24122   7.325  14.275   1.696
40783SOL    HW124123   7.353  14.198   1.648
40783SOL    HW224124   7.277  14.241   1.772
40784SOL     OW24125  11.522   4.373   8.434
40784SOL    HW124126  11.605   4.329   8.415
40784SOL    HW224127  11.461   4.301   8.449
40785SOL     OW24128  12.271   5.578  10.923
40785SOL    HW124129  12.235   5.632  10.852
40785SOL    HW224130  12.200   5.572  10.987
40786SOL     OW24131  11.889  11.921  12.204
40786SOL    HW124132  11.832  11.949  12.133
40786SOL    HW224133  11.854  11.836  12.231
40787SOL     OW24134   5.342  11.757  11.109
40787SOL    HW124135   5.333  11.796  11.196
40787SOL    HW224136   5.328  11.830  11.049
40788SOL     OW24137  10.492  13.103   8.966
40788SOL    HW124138  10.473  13.195   8.988
40788SOL    HW224139  10.551  13.109   8.891
40789SOL     OW24140  13.429   2.279   6.663
40789SOL    HW124141  13.440   2.374   6.672
40789SOL    HW224142  13.455   2.261   6.573
40790SOL     OW24143  10.928   5.968  12.686
40790SOL    HW124144  10.853   5.944  12.631
40790SOL    HW224145  10.889   5.998  12.768
40791SOL     OW24146   9.313   7.892   6.440
40791SOL    HW124147   9.230   7.889   6.392
40791SOL    HW224148   9.347   7.803   6.434
40792SOL     OW24149  12.012  11.040  10.137
40792SOL    HW124150  12.048  10.953  10.151
40792SOL    HW224151  11.918  11.031  10.156
40793SOL     OW24152   7.250   3.399   5.666
40793SOL    HW124153   7.206   3.336   5.723
40793SOL    HW224154   7.207   3.389   5.581
40794SOL     OW24155   8.522   2.397   3.856
40794SOL    HW124156   8.610   2.434   3.848
40794SOL    HW224157   8.464   2.473   3.850
40795SOL     OW24158   7.552  12.091   5.288
40795SOL    HW124159   7.554  12.186   5.273
40795SOL    HW224160   7.620  12.057   5.230
40796SOL     OW24161   5.382   4.616   4.390
40796SOL    HW124162   5.462   4.577   4.356
40796SOL    HW224163   5.313   4.556   4.363
40797SOL     OW24164   5.786   6.492   7.823
40797SOL    HW124165   5.711   6.530   7.870
40797SOL    HW224166   5.849   6.564   7.817
40798SOL     OW24167   8.594   4.606   7.177
40798SOL    HW124168   8.678   4.588   7.134
40798SOL    HW224169   8.530   4.608   7.107
40799SOL     OW24170  10.246  13.465  14.433
40799SOL    HW124171  10.339  13.487  14.432
40799SOL    HW224172  10.239  13.392  14.494
40800SOL     OW24173   3.172   4.200   8.186
40800SOL    HW124174   3.136   4.270   8.133
40800SOL    HW224175   3.231   4.153   8.128
40801SOL     OW24176  12.217   8.068  11.914
40801SOL    HW124177  12.252   8.144  11.961
40801SOL    HW224178  12.264   7.993  11.952
40802SOL     OW24179   2.964  14.064   8.761
40802SOL    HW124180   2.911  14.121   8.815
40802SOL    HW224181   2.978  13.985   8.814
40803SOL     OW24182  11.757  10.469   0.475
40803SOL    HW124183  11.785  10.550   0.518
40803SOL    HW224184  11.750  10.493   0.382
40804SOL     OW24185  11.181   0.972   1.454
40804SOL    HW124186  11.232   0.928   1.385
40804SOL    HW224187  11.231   0.956   1.534
40805SOL     OW24188   6.033  14.582   6.750
40805SOL    HW124189   6.098  14.651   6.763
40805SOL    HW224190   6.084  14.503   6.733
40806SOL     OW24191   8.952   3.764   7.600
40806SOL    HW124192   8.949   3.685   7.654
40806SOL    HW224193   8.982   3.833   7.660
40807SOL     OW24194   1.037   0.650   8.176
40807SOL    HW124195   1.093   0.580   8.144
40807SOL    HW224196   1.096   0.724   8.190
40808SOL     OW24197   4.594   8.234   6.469
40808SOL    HW124198   4.542   8.159   6.440
40808SOL    HW224199   4.634   8.267   6.389
40809SOL     OW24200  14.806   3.382   9.103
40809SOL    HW124201  14.832   3.341   9.021
40809SOL    HW224202  14.861   3.460   9.109
40810SOL     OW24203   6.253   2.944   9.794
40810SOL    HW124204   6.344   2.920   9.774
40810SOL    HW224205   6.241   2.919   9.886
40811SOL     OW24206   8.455   2.007   9.623
40811SOL    HW124207   8.527   2.061   9.591
40811SOL    HW224208   8.474   1.995   9.716
40812SOL     OW24209   4.776   5.492   2.446
40812SOL    HW124210   4.846   5.459   2.390
40812SOL    HW224211   4.794   5.586   2.453
40813SOL     OW24212   8.959  13.205  10.986
40813SOL    HW124213   8.924  13.204  10.897
40813SOL    HW224214   8.886  13.236  11.040
40814SOL     OW24215  12.491  10.858   8.771
40814SOL    HW124216  12.406  10.870   8.727
40814SOL    HW224217  12.551  10.916   8.724
40815SOL     OW24218   6.051   0.095  10.966
40815SOL    HW124219   6.054   0.002  10.988
40815SOL    HW224220   6.054   0.097  10.871
40816SOL     OW24221   4.182   8.150  12.783
40816SOL    HW124222   4.276   8.135  12.774
40816SOL    HW224223   4.167   8.234  12.739
40817SOL     OW24224  14.555   5.921   5.717
40817SOL    HW124225  14.634   5.918   5.770
40817SOL    HW224226  14.493   5.865   5.764
40818SOL     OW24227   3.474   3.708  11.201
40818SOL    HW124228   3.432   3.622  11.211
40818SOL    HW224229   3.420   3.767  11.254
40819SOL     OW24230   9.690  11.342   1.567
40819SOL    HW124231   9.783  11.345   1.544
40819SOL    HW224232   9.644  11.364   1.486
40820SOL     OW24233  13.173   1.721  12.877
40820SOL    HW124234  13.104   1.785  12.891
40820SOL    HW224235  13.168   1.699  12.784
40821SOL     OW24236   4.071  13.223   3.665
40821SOL    HW124237   4.053  13.153   3.603
40821SOL    HW224238   4.162  13.210   3.691
40822SOL     OW24239  12.250  12.117   5.326
40822SOL    HW124240  12.192  12.181   5.285
40822SOL    HW224241  12.337  12.156   5.321
40823SOL     OW24242   8.165  13.525   4.380
40823SOL    HW124243   8.103  13.452   4.382
40823SOL    HW224244   8.178  13.543   4.287
40824SOL     OW24245   6.304   5.249   9.287
40824SOL    HW124246   6.223   5.296   9.307
40824SOL    HW224247   6.371   5.293   9.340
40825SOL     OW24248   1.095  11.908   5.874
40825SOL    HW124249   1.008  11.934   5.904
40825SOL    HW224250   1.153  11.925   5.948
40826SOL     OW24251  13.670  11.604   1.968
40826SOL    HW124252  13.658  11.646   1.883
40826SOL    HW224253  13.656  11.511   1.951
40827SOL     OW24254   7.857   9.093   2.469
40827SOL    HW124255   7.949   9.116   2.457
40827SOL    HW224256   7.849   9.006   2.430
40828SOL     OW24257   1.019   2.257   8.844
40828SOL    HW124258   0.963   2.325   8.883
40828SOL    HW224259   0.958   2.193   8.807
40829SOL     OW24260   4.221   3.915  14.027
40829SOL    HW124261   4.164   3.840  14.044
40829SOL    HW224262   4.306   3.876  14.006
40830SOL     OW24263  10.846   7.121  14.054
40830SOL    HW124264  10.939   7.143  14.053
40830SOL    HW224265  10.809   7.170  13.981
40831SOL     OW24266   0.341   6.911  10.712
40831SOL    HW124267   0.273   6.966  10.752
40831SOL    HW224268   0.402   6.974  10.673
40832SOL     OW24269   4.483   5.675  11.637
40832SOL    HW124270   4.563   5.706  11.596
40832SOL    HW224271   4.441   5.621  11.570
40833SOL     OW24272   9.970   7.183   8.242
40833SOL    HW124273   9.882   7.220   8.228
40833SOL    HW224274   9.972   7.162   8.335
40834SOL     OW24275   3.066   6.055  10.133
40834SOL    HW124276   3.063   6.147  10.157
40834SOL    HW224277   3.149   6.023  10.170
40835SOL     OW24278  11.946  13.955   7.763
40835SOL    HW124279  11.979  14.034   7.721
40835SOL    HW224280  11.893  13.987   7.837
40836SOL     OW24281   3.401   9.532   8.974
40836SOL    HW124282   3.397   9.541   8.878
40836SOL    HW224283   3.490   9.559   8.997
40837SOL     OW24284   8.173  12.096   5.842
40837SOL    HW124285   8.152  12.029   5.907
40837SOL    HW224286   8.155  12.179   5.887
40838SOL     OW24287   0.155   2.928   9.774
40838SOL    HW124288   0.156   3.011   9.726
40838SOL    HW224289   0.241   2.924   9.816
40839SOL     OW24290   3.228   5.398   4.786
40839SOL    HW124291   3.154   5.337   4.781
40839SOL    HW224292   3.203   5.471   4.729
40840SOL     OW24293   1.831  10.215   2.396
40840SOL    HW124294   1.772  10.230   2.322
40840SOL    HW224295   1.817  10.124   2.420
40841SOL     OW24296   6.461   0.643  11.676
40841SOL    HW124297   6.504   0.581  11.617
40841SOL    HW224298   6.377   0.663  11.634
40842SOL     OW24299  13.784  11.867   4.274
40842SOL    HW124300  13.852  11.865   4.207
40842SOL    HW224301  13.816  11.929   4.339
40843SOL     OW24302   8.140   0.271  12.539
40843SOL    HW124303   8.134   0.176  12.536
40843SOL    HW224304   8.167   0.290  12.629
40844SOL     OW24305   1.974   3.308   8.215
40844SOL    HW124306   2.027   3.315   8.135
40844SOL    HW224307   2.011   3.234   8.262
40845SOL     OW24308   7.931   9.295   7.345
40845SOL    HW124309   8.018   9.326   7.318
40845SOL    HW224310   7.948   9.235   7.417
40846SOL     OW24311   5.967   8.207  14.336
40846SOL    HW124312   6.050   8.170  14.366
40846SOL    HW224313   5.993   8.275  14.274
40847SOL     OW24314  14.405   5.940   9.990
40847SOL    HW124315  14.381   5.847   9.996
40847SOL    HW224316  14.357   5.981  10.062
40848SOL     OW24317   6.923   1.994   5.148
40848SOL    HW124318   6.899   2.082   5.119
40848SOL    HW224319   6.911   1.939   5.070
40849SOL     OW24320   4.805  12.629  13.675
40849SOL    HW124321   4.863  12.626  13.598
40849SOL    HW224322   4.831  12.552  13.726
40850SOL     OW24323   3.425   4.981   0.820
40850SOL    HW124324   3.496   4.991   0.884
40850SOL    HW224325   3.412   4.886   0.814
40851SOL     OW24326   8.348   5.856  12.773
40851SOL    HW124327   8.255   5.834  12.770
40851SOL    HW224328   8.352   5.949  12.749
40852SOL     OW24329  10.941  13.450   9.746
40852SOL    HW124330  10.977  13.395   9.815
40852SOL    HW224331  11.001  13.440   9.672
40853SOL     OW24332   1.852   7.188   4.119
40853SOL    HW124333   1.761   7.173   4.143
40853SOL    HW224334   1.860   7.156   4.029
40854SOL     OW24335   6.655   4.543  14.614
40854SOL    HW124336   6.568   4.573  14.585
40854SOL    HW224337   6.676   4.470  14.557
40855SOL     OW24338   3.218   7.447   2.968
40855SOL    HW124339   3.238   7.365   3.012
40855SOL    HW224340   3.292   7.460   2.908
40856SOL     OW24341   5.650  12.137   9.489
40856SOL    HW124342   5.686  12.223   9.468
40856SOL    HW224343   5.644  12.092   9.405
40857SOL     OW24344   2.673   3.277   0.917
40857SOL    HW124345   2.640   3.362   0.886
40857SOL    HW224346   2.594   3.232   0.948
40858SOL     OW24347   4.631   3.582   4.864
40858SOL    HW124348   4.547   3.572   4.910
40858SOL    HW224349   4.606   3.602   4.774
40859SOL     OW24350  10.328   5.049   0.543
40859SOL    HW124351  10.372   4.982   0.491
40859SOL    HW224352  10.252   5.073   0.491
40860SOL     OW24353   4.225  12.708   7.976
40860SOL    HW124354   4.135  12.731   7.999
40860SOL    HW224355   4.259  12.785   7.930
40861SOL     OW24356  11.804   4.039   2.575
40861SOL    HW124357  11.768   4.059   2.488
40861SOL    HW224358  11.896   4.019   2.559
40862SOL     OW24359   3.250   0.190   2.557
40862SOL    HW124360   3.245   0.115   2.498
40862SOL    HW224361   3.305   0.253   2.511
40863SOL     OW24362   3.229   6.667   7.461
40863SOL    HW124363   3.172   6.743   7.473
40863SOL    HW224364   3.198   6.625   7.381
40864SOL     OW24365   4.820  14.848   7.887
40864SOL    HW124366   4.808   0.051   7.842
40864SOL    HW224367   4.827  14.784   7.816
40865SOL     OW24368   3.943   0.911   1.782
40865SOL    HW124369   3.848   0.910   1.772
40865SOL    HW224370   3.976   0.918   1.692
40866SOL     OW24371   6.626  10.225   7.571
40866SOL    HW124372   6.629  10.138   7.531
40866SOL    HW224373   6.536  10.254   7.557
40867SOL     OW24374   2.229   8.385   7.356
40867SOL    HW124375   2.291   8.352   7.420
40867SOL    HW224376   2.275   8.458   7.314
40868SOL     OW24377   4.791   2.043   4.989
40868SOL    HW124378   4.868   2.039   5.046
40868SOL    HW224379   4.772   2.136   4.981
40869SOL     OW24380   0.836   7.089   2.284
40869SOL    HW124381   0.851   7.175   2.323
40869SOL    HW224382   0.771   7.105   2.216
40870SOL     OW24383   0.937   4.923  10.574
40870SOL    HW124384   0.992   4.845  10.564
40870SOL    HW224385   0.917   4.927  10.667
40871SOL     OW24386  12.152   8.318  14.023
40871SOL    HW124387  12.244   8.328  13.996
40871SOL    HW224388  12.104   8.314  13.940
40872SOL     OW24389  10.267  10.619   4.624
40872SOL    HW124390  10.283  10.706   4.587
40872SOL    HW224391  10.350  10.595   4.666
40873SOL     OW24392  12.371   9.533  10.264
40873SOL    HW124393  12.452   9.534  10.315
40873SOL    HW224394  12.401   9.543  10.173
40874SOL     OW24395  12.700   3.000   4.178
40874SOL    HW124396  12.665   3.079   4.219
40874SOL    HW224397  12.642   2.985   4.104
40875SOL     OW24398   1.150   2.309   9.075
40875SOL    HW124399   1.093   2.309   9.152
40875SOL    HW224400   1.093   2.283   9.003
40876SOL     OW24401   2.595   2.032   6.511
40876SOL    HW124402   2.637   1.978   6.578
40876SOL    HW224403   2.538   1.971   6.465
40877SOL     OW24404   9.304   4.010   2.266
40877SOL    HW124405   9.301   3.961   2.185
40877SOL    HW224406   9.229   3.979   2.316
40878SOL     OW24407   0.629   1.981  10.662
40878SOL    HW124408   0.541   1.961  10.695
40878SOL    HW224409   0.688   1.943  10.726
40879SOL     OW24410   7.767   4.943  14.855
40879SOL    HW124411   7.714   4.890   0.033
40879SOL    HW224412   7.726   4.933  14.769
40880SOL     OW24413  10.044   8.574   4.432
40880SOL    HW124414   9.949   8.590   4.429
40880SOL    HW224415  10.076   8.635   4.498
40881SOL     OW24416  13.019  12.410   9.394
40881SOL    HW124417  12.958  12.471   9.352
40881SOL    HW224418  12.999  12.417   9.487
40882SOL     OW24419  12.363   6.503  10.568
40882SOL    HW124420  12.281   6.527  10.611
40882SOL    HW224421  12.379   6.573  10.505
40883SOL     OW24422   4.246   9.824   3.673
40883SOL    HW124423   4.244   9.732   3.647
40883SOL    HW224424   4.339   9.846   3.680
40884SOL     OW24425  11.364   5.664   7.527
40884SOL    HW124426  11.413   5.721   7.467
40884SOL    HW224427  11.276   5.701   7.528
40885SOL     OW24428   9.817   2.614   1.379
40885SOL    HW124429   9.860   2.681   1.326
40885SOL    HW224430   9.723   2.632   1.367
40886SOL     OW24431   7.451   2.229   2.301
40886SOL    HW124432   7.391   2.205   2.370
40886SOL    HW224433   7.400   2.285   2.242
40887SOL     OW24434  11.573   6.127  13.699
40887SOL    HW124435  11.544   6.053  13.647
40887SOL    HW224436  11.579   6.093  13.789
40888SOL     OW24437   0.399   7.395   2.455
40888SOL    HW124438   0.453   7.319   2.479
40888SOL    HW224439   0.441   7.469   2.497
40889SOL     OW24440   3.776   7.901  11.645
40889SOL    HW124441   3.696   7.860  11.679
40889SOL    HW224442   3.761   7.907  11.550
40890SOL     OW24443   5.669  13.201  13.019
40890SOL    HW124444   5.679  13.285  12.974
40890SOL    HW224445   5.602  13.155  12.970
40891SOL     OW24446   2.376   7.958  11.074
40891SOL    HW124447   2.415   8.029  11.023
40891SOL    HW224448   2.433   7.951  11.151
40892SOL     OW24449  12.188   7.549  11.399
40892SOL    HW124450  12.151   7.618  11.343
40892SOL    HW224451  12.126   7.542  11.472
40893SOL     OW24452  12.338  11.621   7.200
40893SOL    HW124453  12.390  11.641   7.279
40893SOL    HW224454  12.256  11.585   7.234
40894SOL     OW24455  11.742   4.782   3.692
40894SOL    HW124456  11.661   4.821   3.660
40894SOL    HW224457  11.715   4.699   3.731
40895SOL     OW24458   6.538  10.394   0.209
40895SOL    HW124459   6.446  10.416   0.218
40895SOL    HW224460   6.548  10.364   0.118
40896SOL     OW24461   5.521   4.436   1.125
40896SOL    HW124462   5.547   4.524   1.152
40896SOL    HW224463   5.550   4.430   1.034
40897SOL     OW24464   8.806  14.504   1.509
40897SOL    HW124465   8.890  14.458   1.504
40897SOL    HW224466   8.810  14.569   1.439
40898SOL     OW24467   3.760   1.261   0.182
40898SOL    HW124468   3.838   1.220   0.219
40898SOL    HW224469   3.760   1.349   0.219
40899SOL     OW24470   8.129   8.830   8.192
40899SOL    HW124471   8.127   8.866   8.280
40899SOL    HW224472   8.222   8.817   8.173
40900SOL     OW24473   4.831   2.898   3.674
40900SOL    HW124474   4.830   2.894   3.578
40900SOL    HW224475   4.908   2.847   3.700
40901SOL     OW24476  12.706   5.963  10.543
40901SOL    HW124477  12.663   5.887  10.505
40901SOL    HW224478  12.704   5.947  10.638
40902SOL     OW24479  11.420  11.476   3.218
40902SOL    HW124480  11.490  11.423   3.257
40902SOL    HW224481  11.450  11.566   3.226
40903SOL     OW24482   9.541   0.440  12.214
40903SOL    HW124483   9.562   0.398  12.131
40903SOL    HW224484   9.556   0.372  12.279
40904SOL     OW24485  11.491   0.870   2.186
40904SOL    HW124486  11.433   0.847   2.113
40904SOL    HW224487  11.543   0.943   2.152
40905SOL     OW24488   3.730   8.395  12.685
40905SOL    HW124489   3.736   8.368  12.776
40905SOL    HW224490   3.718   8.313  12.636
40906SOL     OW24491  12.950  14.478   0.924
40906SOL    HW124492  12.928  14.515   0.838
40906SOL    HW224493  12.966  14.386   0.907
40907SOL     OW24494  11.203  13.989   2.934
40907SOL    HW124495  11.180  14.063   2.878
40907SOL    HW224496  11.288  13.959   2.901
40908SOL     OW24497   4.809  10.873  13.483
40908SOL    HW124498   4.809  10.954  13.431
40908SOL    HW224499   4.825  10.804  13.419
40909SOL     OW24500   6.658  12.850   4.234
40909SOL    HW124501   6.708  12.921   4.274
40909SOL    HW224502   6.633  12.794   4.308
40910SOL     OW24503   1.702   2.439   8.608
40910SOL    HW124504   1.641   2.367   8.595
40910SOL    HW224505   1.746   2.449   8.524
40911SOL     OW24506   4.391  12.055   6.741
40911SOL    HW124507   4.330  12.080   6.673
40911SOL    HW224508   4.336  12.020   6.812
40912SOL     OW24509   0.415   7.201   0.931
40912SOL    HW124510   0.498   7.158   0.910
40912SOL    HW224511   0.406   7.270   0.866
40913SOL     OW24512   0.815   2.463   1.771
40913SOL    HW124513   0.859   2.456   1.686
40913SOL    HW224514   0.807   2.373   1.802
40914SOL     OW24515   6.897   3.135  14.026
40914SOL    HW124516   6.976   3.082  14.013
40914SOL    HW224517   6.908   3.210  13.968
40915SOL     OW24518  12.527   9.316   9.623
40915SOL    HW124519  12.561   9.280   9.705
40915SOL    HW224520  12.484   9.398   9.648
40916SOL     OW24521  10.121  14.006  12.018
40916SOL    HW124522  10.154  13.924  11.982
40916SOL    HW224523  10.123  13.993  12.113
40917SOL     OW24524   5.868  13.921   4.842
40917SOL    HW124525   5.801  13.897   4.777
40917SOL    HW224526   5.951  13.910   4.795
40918SOL     OW24527  14.680  10.753  13.699
40918SOL    HW124528  14.742  10.698  13.747
40918SOL    HW224529  14.601  10.753  13.753
40919SOL     OW24530   3.044   4.740  13.945
40919SOL    HW124531   3.090   4.677  13.889
40919SOL    HW224532   2.983   4.784  13.887
40920SOL     OW24533  11.752  13.882  13.604
40920SOL    HW124534  11.663  13.886  13.641
40920SOL    HW224535  11.790  13.802  13.641
40921SOL     OW24536  11.068   8.254   4.662
40921SOL    HW124537  10.993   8.195   4.659
40921SOL    HW224538  11.126   8.216   4.727
40922SOL     OW24539   9.200   7.357  13.444
40922SOL    HW124540   9.255   7.410  13.387
40922SOL    HW224541   9.240   7.366  13.531
40923SOL     OW24542  14.451  13.213   8.079
40923SOL    HW124543  14.390  13.248   8.144
40923SOL    HW224544  14.418  13.126   8.059
40924SOL     OW24545   8.730   4.853  12.068
40924SOL    HW124546   8.797   4.842  12.135
40924SOL    HW224547   8.765   4.919  12.009
40925SOL     OW24548   7.315   3.800  13.484
40925SOL    HW124549   7.348   3.873  13.431
40925SOL    HW224550   7.316   3.833  13.574
40926SOL     OW24551   1.205   7.670   6.157
40926SOL    HW124552   1.226   7.637   6.245
40926SOL    HW224553   1.218   7.594   6.100
40927SOL     OW24554  12.750   4.052   4.867
40927SOL    HW124555  12.768   4.066   4.774
40927SOL    HW224556  12.671   4.104   4.884
40928SOL     OW24557  13.649   2.895   6.615
40928SOL    HW124558  13.735   2.887   6.656
40928SOL    HW224559  13.590   2.849   6.675
40929SOL     OW24560  13.562   9.108   0.791
40929SOL    HW124561  13.625   9.179   0.781
40929SOL    HW224562  13.477   9.151   0.794
40930SOL     OW24563  14.157  10.158   1.705
40930SOL    HW124564  14.129  10.185   1.793
40930SOL    HW224565  14.115  10.220   1.646
40931SOL     OW24566  12.971   0.006  14.465
40931SOL    HW124567  13.019  14.855  14.541
40931SOL    HW224568  13.038   0.046  14.409
40932SOL     OW24569   5.400  14.620   7.917
40932SOL    HW124570   5.307  14.599   7.907
40932SOL    HW224571   5.415  14.618   8.011
40933SOL     OW24572   7.035   8.632  12.005
40933SOL    HW124573   6.957   8.578  12.015
40933SOL    HW224574   7.023   8.675  11.920
40934SOL     OW24575  13.165   6.483  11.685
40934SOL    HW124576  13.120   6.471  11.601
40934SOL    HW224577  13.122   6.420  11.744
40935SOL     OW24578   3.501   5.084  10.436
40935SOL    HW124579   3.451   5.134  10.371
40935SOL    HW224580   3.545   5.017  10.385
40936SOL     OW24581   1.608   4.022   0.695
40936SOL    HW124582   1.658   4.032   0.613
40936SOL    HW224583   1.616   4.108   0.737
40937SOL     OW24584  12.602  12.577   0.959
40937SOL    HW124585  12.506  12.572   0.955
40937SOL    HW224586  12.629  12.489   0.986
40938SOL     OW24587   4.856   7.972  12.295
40938SOL    HW124588   4.939   7.925  12.299
40938SOL    HW224589   4.881   8.064  12.280
40939SOL     OW24590  12.896  10.155   9.189
40939SOL    HW124591  12.882  10.228   9.249
40939SOL    HW224592  12.949  10.192   9.119
40940SOL     OW24593  10.500  11.687   9.483
40940SOL    HW124594  10.406  11.672   9.472
40940SOL    HW224595  10.508  11.733   9.566
40941SOL     OW24596  11.683  13.837   5.689
40941SOL    HW124597  11.766  13.789   5.685
40941SOL    HW224598  11.624  13.778   5.736
40942SOL     OW24599   5.118   0.342  13.954
40942SOL    HW124600   5.099   0.377  13.867
40942SOL    HW224601   5.104   0.248  13.946
40943SOL     OW24602   1.354   6.034   6.015
40943SOL    HW124603   1.350   5.942   6.041
40943SOL    HW224604   1.328   6.082   6.094
40944SOL     OW24605   0.875   1.770   3.894
40944SOL    HW124606   0.913   1.751   3.808
40944SOL    HW224607   0.927   1.718   3.956
40945SOL     OW24608   9.296  11.920   6.406
40945SOL    HW124609   9.280  11.947   6.497
40945SOL    HW224610   9.239  11.845   6.393
40946SOL     OW24611   2.193  13.788   9.642
40946SOL    HW124612   2.254  13.717   9.621
40946SOL    HW224613   2.108  13.745   9.652
40947SOL     OW24614   4.039  14.804   5.647
40947SOL    HW124615   3.979  14.809   5.572
40947SOL    HW224616   4.026  14.715   5.682
40948SOL     OW24617   9.390   1.030   5.564
40948SOL    HW124618   9.308   1.058   5.523
40948SOL    HW224619   9.399   1.086   5.641
40949SOL     OW24620  13.758   5.746   4.868
40949SOL    HW124621  13.690   5.810   4.847
40949SOL    HW224622  13.768   5.752   4.963
40950SOL     OW24623   1.966   6.990  14.511
40950SOL    HW124624   1.875   6.965  14.526
40950SOL    HW224625   2.016   6.913  14.538
40951SOL     OW24626  13.656  13.868   5.502
40951SOL    HW124627  13.586  13.803   5.498
40951SOL    HW224628  13.653  13.912   5.417
40952SOL     OW24629   4.971  13.817   0.638
40952SOL    HW124630   5.029  13.893   0.640
40952SOL    HW224631   4.926  13.822   0.554
40953SOL     OW24632   2.687  12.661   4.745
40953SOL    HW124633   2.652  12.750   4.743
40953SOL    HW224634   2.749  12.657   4.672
40954SOL     OW24635   9.023   8.031  13.045
40954SOL    HW124636   8.943   8.029  12.993
40954SOL    HW224637   8.993   8.037  13.136
40955SOL     OW24638   5.412   9.350   5.415
40955SOL    HW124639   5.361   9.428   5.438
40955SOL    HW224640   5.410   9.296   5.494
40956SOL     OW24641  14.844  12.727  11.753
40956SOL    HW124642  14.856  12.702  11.845
40956SOL    HW224643   0.021  12.670  11.704
40957SOL     OW24644   6.005  10.171   8.268
40957SOL    HW124645   6.009  10.148   8.175
40957SOL    HW224646   6.028  10.264   8.271
40958SOL     OW24647   8.886   3.174   7.434
40958SOL    HW124648   8.888   3.237   7.505
40958SOL    HW224649   8.873   3.226   7.355
40959SOL     OW24650   8.453   0.968   4.261
40959SOL    HW124651   8.524   0.913   4.228
40959SOL    HW224652   8.385   0.906   4.288
40960SOL     OW24653   9.113  13.899   6.196
40960SOL    HW124654   9.147  13.988   6.192
40960SOL    HW224655   9.133  13.862   6.110
40961SOL     OW24656   2.985   4.385   2.601
40961SOL    HW124657   3.078   4.377   2.577
40961SOL    HW224658   2.972   4.478   2.618
40962SOL     OW24659   5.593   2.218  10.764
40962SOL    HW124660   5.570   2.144  10.819
40962SOL    HW224661   5.546   2.202  10.682
40963SOL     OW24662   7.411   4.711   3.579
40963SOL    HW124663   7.346   4.655   3.623
40963SOL    HW224664   7.469   4.650   3.534
40964SOL     OW24665   8.365   6.930  14.216
40964SOL    HW124666   8.368   6.930  14.312
40964SOL    HW224667   8.272   6.926  14.195
40965SOL     OW24668  12.905  12.007  12.740
40965SOL    HW124669  12.941  11.919  12.733
40965SOL    HW224670  12.981  12.065  12.727
40966SOL     OW24671   1.372   9.166  14.139
40966SOL    HW124672   1.342   9.164  14.048
40966SOL    HW224673   1.458   9.207  14.134
40967SOL     OW24674   9.505   1.852   8.381
40967SOL    HW124675   9.582   1.879   8.431
40967SOL    HW224676   9.508   1.757   8.382
40968SOL     OW24677   5.223   0.518  12.332
40968SOL    HW124678   5.284   0.580  12.370
40968SOL    HW224679   5.267   0.433  12.340
40969SOL     OW24680   1.359  11.866  12.339
40969SOL    HW124681   1.325  11.848  12.251
40969SOL    HW224682   1.283  11.858  12.396
40970SOL     OW24683   2.830   2.617   2.303
40970SOL    HW124684   2.880   2.698   2.290
40970SOL    HW224685   2.739   2.645   2.305
40971SOL     OW24686  13.031   6.224   1.448
40971SOL    HW124687  12.993   6.274   1.375
40971SOL    HW224688  13.018   6.280   1.524
40972SOL     OW24689   0.727   1.850   8.635
40972SOL    HW124690   0.708   1.766   8.595
40972SOL    HW224691   0.660   1.909   8.598
40973SOL     OW24692   6.601   8.271  11.574
40973SOL    HW124693   6.656   8.235  11.643
40973SOL    HW224694   6.512   8.261  11.606
40974SOL     OW24695   0.382   8.989   1.562
40974SOL    HW124696   0.406   9.006   1.653
40974SOL    HW224697   0.449   8.928   1.530
40975SOL     OW24698   7.246  14.477   8.517
40975SOL    HW124699   7.331  14.517   8.537
40975SOL    HW224700   7.183  14.526   8.571
40976SOL     OW24701   9.356  12.115   1.791
40976SOL    HW124702   9.378  12.079   1.705
40976SOL    HW224703   9.404  12.060   1.853
40977SOL     OW24704   9.855   3.884   6.880
40977SOL    HW124705   9.861   3.963   6.934
40977SOL    HW224706   9.876   3.812   6.939
40978SOL     OW24707   4.749   4.065  12.940
40978SOL    HW124708   4.791   4.085  12.857
40978SOL    HW224709   4.807   4.104  13.006
40979SOL     OW24710   7.285   3.581   0.946
40979SOL    HW124711   7.378   3.578   0.924
40979SOL    HW224712   7.248   3.503   0.905
40980SOL     OW24713  11.552  12.186  13.563
40980SOL    HW124714  11.607  12.250  13.518
40980SOL    HW224715  11.555  12.109  13.507
40981SOL     OW24716   9.114   7.357  11.552
40981SOL    HW124717   9.156   7.286  11.600
40981SOL    HW224718   9.109   7.326  11.462
40982SOL     OW24719   3.122   3.730   6.334
40982SOL    HW124720   3.199   3.761   6.382
40982SOL    HW224721   3.144   3.641   6.308
40983SOL     OW24722   8.708   8.754   2.955
40983SOL    HW124723   8.684   8.842   2.926
40983SOL    HW224724   8.629   8.701   2.939
40984SOL     OW24725   8.093   2.196   1.762
40984SOL    HW124726   8.002   2.200   1.791
40984SOL    HW224727   8.088   2.204   1.667
40985SOL     OW24728   6.762   0.672   4.626
40985SOL    HW124729   6.837   0.731   4.626
40985SOL    HW224730   6.744   0.656   4.533
40986SOL     OW24731   8.029   0.691   1.960
40986SOL    HW124732   8.021   0.711   1.867
40986SOL    HW224733   8.072   0.606   1.963
40987SOL     OW24734   0.007   1.451   2.081
40987SOL    HW124735   0.014   1.396   2.159
40987SOL    HW224736   0.098   1.470   2.056
40988SOL     OW24737   9.915   5.570   2.880
40988SOL    HW124738   9.968   5.535   2.951
40988SOL    HW224739   9.927   5.509   2.808
40989SOL     OW24740   5.230  10.024   6.145
40989SOL    HW124741   5.192   9.936   6.135
40989SOL    HW224742   5.287  10.017   6.222
40990SOL     OW24743   8.285   6.822   6.754
40990SOL    HW124744   8.267   6.730   6.735
40990SOL    HW224745   8.342   6.850   6.683
40991SOL     OW24746  13.851   3.294  14.807
40991SOL    HW124747  13.816   3.303  14.718
40991SOL    HW224748  13.777   3.312  14.864
40992SOL     OW24749  13.312   8.969   6.613
40992SOL    HW124750  13.405   8.989   6.621
40992SOL    HW224751  13.298   8.958   6.519
40993SOL     OW24752   9.833  11.898   8.009
40993SOL    HW124753   9.766  11.967   8.013
40993SOL    HW224754   9.889  11.924   7.936
40994SOL     OW24755  11.595  12.485  14.282
40994SOL    HW124756  11.565  12.405  14.323
40994SOL    HW224757  11.595  12.465  14.188
40995SOL     OW24758   0.523   2.293   4.431
40995SOL    HW124759   0.448   2.267   4.378
40995SOL    HW224760   0.547   2.380   4.397
40996SOL     OW24761   2.354   1.247   7.052
40996SOL    HW124762   2.372   1.154   7.064
40996SOL    HW224763   2.380   1.266   6.962
40997SOL     OW24764  12.887  12.493   0.429
40997SOL    HW124765  12.946  12.430   0.388
40997SOL    HW224766  12.892  12.571   0.373
40998SOL     OW24767   8.880  14.088   7.724
40998SOL    HW124768   8.897  14.141   7.647
40998SOL    HW224769   8.965  14.051   7.747
40999SOL     OW24770  14.766   8.237   9.243
40999SOL    HW124771  14.680   8.255   9.205
40999SOL    HW224772  14.796   8.157   9.200
41000SOL     OW24773  10.366   7.350   0.002
41000SOL    HW124774  10.326   7.320   0.083
41000SOL    HW224775  10.434   7.411   0.031
41001SOL     OW24776  14.615  11.553   1.218
41001SOL    HW124777  14.639  11.462   1.199
41001SOL    HW224778  14.543  11.547   1.280
41002SOL     OW24779   7.361   1.456  11.497
41002SOL    HW124780   7.333   1.365  11.509
41002SOL    HW224781   7.360   1.493  11.586
41003SOL     OW24782   1.665   6.188  14.769
41003SOL    HW124783   1.648   6.129  14.696
41003SOL    HW224784   1.631   6.141  14.846
41004SOL     OW24785   2.419  10.422   7.555
41004SOL    HW124786   2.385  10.479   7.486
41004SOL    HW224787   2.510  10.449   7.566
41005SOL     OW24788   6.597   0.183   3.901
41005SOL    HW124789   6.657   0.186   3.826
41005SOL    HW224790   6.612   0.097   3.940
41006SOL     OW24791   1.755   1.233   6.198
41006SOL    HW124792   1.793   1.255   6.113
41006SOL    HW224793   1.804   1.157   6.228
41007SOL     OW24794   9.421  11.776   0.018
41007SOL    HW124795   9.504  11.824   0.018
41007SOL    HW224796   9.357  11.840   0.049
41008SOL     OW24797   8.316  12.573   0.969
41008SOL    HW124798   8.293  12.657   0.930
41008SOL    HW224799   8.240  12.517   0.952
41009SOL     OW24800  11.065   5.228  13.076
41009SOL    HW124801  10.989   5.286  13.082
41009SOL    HW224802  11.030   5.146  13.041
41010SOL     OW24803   2.799  10.755  13.058
41010SOL    HW124804   2.840  10.794  13.135
41010SOL    HW224805   2.818  10.816  12.987
41011SOL     OW24806   4.076   5.878   2.136
41011SOL    HW124807   4.046   5.960   2.175
41011SOL    HW224808   3.996   5.829   2.118
41012SOL     OW24809  10.595   1.719   3.823
41012SOL    HW124810  10.666   1.778   3.846
41012SOL    HW224811  10.636   1.632   3.818
41013SOL     OW24812   2.140   4.858  10.014
41013SOL    HW124813   2.204   4.827   9.949
41013SOL    HW224814   2.088   4.780  10.034
41014SOL     OW24815   9.613   2.627   9.361
41014SOL    HW124816   9.578   2.547   9.401
41014SOL    HW224817   9.552   2.696   9.386
41015SOL     OW24818   8.841   7.375   5.643
41015SOL    HW124819   8.754   7.413   5.651
41015SOL    HW224820   8.894   7.443   5.602
41016SOL     OW24821   0.004   3.183  10.987
41016SOL    HW124822  14.877   3.215  10.897
41016SOL    HW224823  14.833   3.104  10.990
41017SOL     OW24824   0.343  13.813  11.948
41017SOL    HW124825   0.327  13.847  12.036
41017SOL    HW224826   0.280  13.859  11.893
41018SOL     OW24827   4.944   2.231   2.595
41018SOL    HW124828   5.004   2.167   2.557
41018SOL    HW224829   4.994   2.273   2.665
41019SOL     OW24830  12.963  10.957   8.556
41019SOL    HW124831  12.879  10.997   8.574
41019SOL    HW224832  12.954  10.922   8.467
41020SOL     OW24833   3.891   8.876   7.750
41020SOL    HW124834   3.945   8.800   7.771
41020SOL    HW224835   3.839   8.847   7.675
41021SOL     OW24836   1.727  14.761   9.044
41021SOL    HW124837   1.775  14.811   8.978
41021SOL    HW224838   1.762  14.673   9.038
41022SOL     OW24839   5.691   2.786   8.421
41022SOL    HW124840   5.693   2.731   8.500
41022SOL    HW224841   5.781   2.783   8.389
41023SOL     OW24842   4.096   8.086   9.357
41023SOL    HW124843   4.121   8.104   9.448
41023SOL    HW224844   4.134   8.158   9.307
41024SOL     OW24845  11.443   0.928  11.665
41024SOL    HW124846  11.537   0.944  11.656
41024SOL    HW224847  11.402   1.011  11.639
41025SOL     OW24848  12.389   1.365   3.596
41025SOL    HW124849  12.457   1.315   3.549
41025SOL    HW224850  12.432   1.395   3.676
41026SOL     OW24851   0.952   5.421   5.444
41026SOL    HW124852   0.932   5.381   5.360
41026SOL    HW224853   0.884   5.488   5.456
41027SOL     OW24854  11.755   7.111  11.015
41027SOL    HW124855  11.781   7.165  11.090
41027SOL    HW224856  11.837   7.072  10.985
41028SOL     OW24857   7.831   4.880   9.253
41028SOL    HW124858   7.869   4.956   9.210
41028SOL    HW224859   7.756   4.857   9.198
41029SOL     OW24860   0.009  13.287   6.384
41029SOL    HW124861   0.037  13.337   6.308
41029SOL    HW224862   0.086  13.236   6.410
41030SOL     OW24863   0.274  13.241   2.555
41030SOL    HW124864   0.299  13.158   2.596
41030SOL    HW224865   0.351  13.297   2.566
41031SOL     OW24866   5.708   8.438  10.013
41031SOL    HW124867   5.762   8.404   9.942
41031SOL    HW224868   5.764   8.499  10.060
41032SOL     OW24869   3.221  14.065   3.940
41032SOL    HW124870   3.246  14.157   3.931
41032SOL    HW224871   3.165  14.063   4.018
41033SOL     OW24872   6.956  10.401   3.832
41033SOL    HW124873   6.913  10.418   3.748
41033SOL    HW224874   7.048  10.389   3.810
41034SOL     OW24875  13.818   0.407  14.825
41034SOL    HW124876  13.837   0.494  14.792
41034SOL    HW224877  13.731   0.415  14.864
41035SOL     OW24878  12.199   6.693  12.596
41035SOL    HW124879  12.119   6.746  12.600
41035SOL    HW224880  12.189   6.640  12.517
41036SOL     OW24881   8.946   5.717  13.529
41036SOL    HW124882   8.954   5.670  13.611
41036SOL    HW224883   9.034   5.716  13.491
41037SOL     OW24884   0.105   4.617   6.904
41037SOL    HW124885   0.089   4.629   6.997
41037SOL    HW224886   0.200   4.609   6.897
41038SOL     OW24887   1.682   6.461  10.366
41038SOL    HW124888   1.633   6.479  10.286
41038SOL    HW224889   1.748   6.530  10.371
41039SOL     OW24890  13.184   9.502  10.767
41039SOL    HW124891  13.226   9.430  10.721
41039SOL    HW224892  13.168   9.568  10.699
41040SOL     OW24893  10.960  12.613   0.574
41040SOL    HW124894  10.958  12.537   0.516
41040SOL    HW224895  10.914  12.584   0.653
41041SOL     OW24896   3.602   3.189   7.159
41041SOL    HW124897   3.589   3.189   7.254
41041SOL    HW224898   3.653   3.110   7.142
41042SOL     OW24899   2.661   4.652   6.005
41042SOL    HW124900   2.581   4.616   5.969
41042SOL    HW224901   2.727   4.584   5.992
41043SOL     OW24902  10.725   3.537   9.841
41043SOL    HW124903  10.786   3.567   9.773
41043SOL    HW224904  10.779   3.485   9.900
41044SOL     OW24905   8.398  12.396  13.740
41044SOL    HW124906   8.423  12.487  13.754
41044SOL    HW224907   8.319  12.399  13.687
41045SOL     OW24908   0.907   9.087  11.753
41045SOL    HW124909   0.935   9.132  11.833
41045SOL    HW224910   0.967   9.013  11.745
41046SOL     OW24911   1.401   5.603   7.079
41046SOL    HW124912   1.462   5.557   7.020
41046SOL    HW224913   1.396   5.546   7.156
41047SOL     OW24914   0.224  11.326   1.695
41047SOL    HW124915   0.202  11.371   1.613
41047SOL    HW224916   0.147  11.335   1.750
41048SOL     OW24917   3.694  13.985   6.394
41048SOL    HW124918   3.675  13.985   6.487
41048SOL    HW224919   3.739  14.068   6.378
41049SOL     OW24920   0.566   1.605   5.918
41049SOL    HW124921   0.647   1.643   5.885
41049SOL    HW224922   0.518   1.680   5.954
41050SOL     OW24923   9.572   7.849  13.833
41050SOL    HW124924   9.648   7.793  13.817
41050SOL    HW224925   9.607   7.919  13.889
41051SOL     OW24926   6.843   0.850   3.928
41051SOL    HW124927   6.887   0.822   3.847
41051SOL    HW224928   6.891   0.806   3.998
41052SOL     OW24929   8.163   2.225   7.642
41052SOL    HW124930   8.098   2.161   7.615
41052SOL    HW224931   8.246   2.191   7.608
41053SOL     OW24932   8.834   7.606  11.409
41053SOL    HW124933   8.868   7.538  11.351
41053SOL    HW224934   8.872   7.586  11.495
41054SOL     OW24935  12.974  11.237  12.936
41054SOL    HW124936  13.061  11.275  12.921
41054SOL    HW224937  12.969  11.163  12.875
41055SOL     OW24938   5.261  12.526   6.322
41055SOL    HW124939   5.275  12.618   6.341
41055SOL    HW224940   5.322  12.480   6.380
41056SOL     OW24941  11.388   2.770   8.641
41056SOL    HW124942  11.324   2.769   8.712
41056SOL    HW224943  11.380   2.857   8.603
41057SOL     OW24944   4.431  12.216   9.971
41057SOL    HW124945   4.435  12.140   9.913
41057SOL    HW224946   4.496  12.277   9.935
41058SOL     OW24947   5.082   6.229   7.340
41058SOL    HW124948   5.157   6.234   7.281
41058SOL    HW224949   5.119   6.204   7.424
41059SOL     OW24950   8.959  14.786   1.714
41059SOL    HW124951   9.010  14.710   1.686
41059SOL    HW224952   8.965  14.848   1.641
41060SOL     OW24953   6.063   1.296   9.868
41060SOL    HW124954   6.089   1.279   9.778
41060SOL    HW224955   6.083   1.388   9.882
41061SOL     OW24956   7.897   2.580  10.066
41061SOL    HW124957   7.926   2.493  10.093
41061SOL    HW224958   7.964   2.609  10.004
41062SOL     OW24959   9.305   7.300   5.167
41062SOL    HW124960   9.372   7.325   5.230
41062SOL    HW224961   9.242   7.372   5.168
41063SOL     OW24962   5.459   4.315  10.082
41063SOL    HW124963   5.384   4.287  10.134
41063SOL    HW224964   5.424   4.325   9.994
41064SOL     OW24965  12.901   0.568   4.296
41064SOL    HW124966  12.931   0.478   4.304
41064SOL    HW224967  12.806   0.563   4.308
41065SOL     OW24968   1.189  11.292   7.073
41065SOL    HW124969   1.094  11.281   7.069
41065SOL    HW224970   1.209  11.351   6.999
41066SOL     OW24971   7.481   2.897  14.194
41066SOL    HW124972   7.553   2.834  14.187
41066SOL    HW224973   7.404   2.848  14.165
41067SOL     OW24974  13.303  13.893  10.577
41067SOL    HW124975  13.311  13.814  10.630
41067SOL    HW224976  13.377  13.888  10.516
41068SOL     OW24977  14.177  13.931  13.174
41068SOL    HW124978  14.105  13.894  13.225
41068SOL    HW224979  14.136  13.962  13.094
41069SOL     OW24980  11.450   6.539   0.718
41069SOL    HW124981  11.427   6.627   0.750
41069SOL    HW224982  11.371   6.488   0.730
41070SOL     OW24983  11.773   9.996   4.122
41070SOL    HW124984  11.829  10.063   4.161
41070SOL    HW224985  11.725   9.958   4.196
41071SOL     OW24986  12.689   4.938   1.921
41071SOL    HW124987  12.714   4.950   2.013
41071SOL    HW224988  12.716   5.019   1.878
41072SOL     OW24989  14.282   3.145  14.040
41072SOL    HW124990  14.314   3.233  14.062
41072SOL    HW224991  14.309   3.131  13.950
41073SOL     OW24992   4.845   1.149  11.444
41073SOL    HW124993   4.803   1.066  11.419
41073SOL    HW224994   4.818   1.163  11.535
41074SOL     OW24995  12.260   9.721   5.266
41074SOL    HW124996  12.222   9.649   5.317
41074SOL    HW224997  12.343   9.685   5.233
41075SOL     OW24998  13.873  10.471   9.372
41075SOL    HW124999  13.793  10.466   9.319
41075SOL    HW225000  13.919  10.389   9.353
41076SOL     OW25001   2.361   1.424   3.657
41076SOL    HW125002   2.267   1.406   3.659
41076SOL    HW225003   2.368   1.519   3.648
41077SOL     OW25004   3.108   1.979   3.045
41077SOL    HW125005   3.188   2.008   3.002
41077SOL    HW225006   3.037   2.019   2.995
41078SOL     OW25007   9.457  11.465   9.843
41078SOL    HW125008   9.521  11.517   9.892
41078SOL    HW225009   9.381  11.460   9.902
41079SOL     OW25010   1.108   5.964   4.480
41079SOL    HW125011   1.025   5.952   4.433
41079SOL    HW225012   1.085   6.015   4.557
41080SOL     OW25013  11.472   2.186  12.897
41080SOL    HW125014  11.417   2.108  12.884
41080SOL    HW225015  11.536   2.183  12.826
41081SOL     OW25016   8.419   0.884   5.584
41081SOL    HW125017   8.417   0.889   5.488
41081SOL    HW225018   8.366   0.958   5.612
41082SOL     OW25019  13.478   4.919   8.933
41082SOL    HW125020  13.477   4.864   9.011
41082SOL    HW225021  13.391   4.907   8.894
41083SOL     OW25022  10.060   8.443  12.873
41083SOL    HW125023  10.094   8.355  12.852
41083SOL    HW225024  10.025   8.475  12.790
41084SOL     OW25025  13.669   9.634  13.559
41084SOL    HW125026  13.755   9.657  13.522
41084SOL    HW225027  13.610   9.637  13.484
41085SOL     OW25028   9.777   9.861  10.397
41085SOL    HW125029   9.757   9.787  10.340
41085SOL    HW225030   9.708   9.859  10.464
41086SOL     OW25031   3.909   4.651   7.764
41086SOL    HW125032   3.835   4.596   7.789
41086SOL    HW225033   3.972   4.591   7.725
41087SOL     OW25034   6.589   2.928   7.801
41087SOL    HW125035   6.663   2.987   7.799
41087SOL    HW225036   6.609   2.865   7.871
41088SOL     OW25037   2.315   9.470   7.081
41088SOL    HW125038   2.385   9.535   7.093
41088SOL    HW225039   2.361   9.389   7.058
41089SOL     OW25040   5.375  11.671   4.348
41089SOL    HW125041   5.369  11.646   4.256
41089SOL    HW225042   5.452  11.727   4.353
41090SOL     OW25043  11.148   4.289   4.713
41090SOL    HW125044  11.200   4.245   4.780
41090SOL    HW225045  11.059   4.256   4.726
41091SOL     OW25046   9.565  13.434   7.342
41091SOL    HW125047   9.573  13.349   7.300
41091SOL    HW225048   9.586  13.418   7.434
41092SOL     OW25049  14.562   6.382   3.858
41092SOL    HW125050  14.618   6.452   3.825
41092SOL    HW225051  14.481   6.390   3.808
41093SOL     OW25052   3.457  14.495   4.325
41093SOL    HW125053   3.517  14.425   4.350
41093SOL    HW225054   3.474  14.564   4.390
41094SOL     OW25055   1.480   8.817   4.052
41094SOL    HW125056   1.436   8.894   4.016
41094SOL    HW225057   1.572   8.842   4.057
41095SOL     OW25058   1.174   2.839   6.109
41095SOL    HW125059   1.219   2.758   6.135
41095SOL    HW225060   1.239   2.908   6.122
41096SOL     OW25061   1.176   9.628  11.708
41096SOL    HW125062   1.160   9.576  11.629
41096SOL    HW225063   1.264   9.663  11.696
41097SOL     OW25064  10.666   8.395   4.124
41097SOL    HW125065  10.591   8.337   4.108
41097SOL    HW225066  10.628   8.483   4.126
41098SOL     OW25067   7.537   0.511  13.001
41098SOL    HW125068   7.586   0.587  13.033
41098SOL    HW225069   7.534   0.523  12.906
41099SOL     OW25070   2.200  13.163   5.637
41099SOL    HW125071   2.291  13.179   5.664
41099SOL    HW225072   2.182  13.230   5.572
41100SOL     OW25073  13.483   1.083  12.811
41100SOL    HW125074  13.559   1.090  12.752
41100SOL    HW225075  13.434   1.164  12.795
41101SOL     OW25076   8.598  13.593  10.949
41101SOL    HW125077   8.628  13.513  10.992
41101SOL    HW225078   8.506  13.576  10.928
41102SOL     OW25079  10.623  14.658   1.795
41102SOL    HW125080  10.630  14.743   1.753
41102SOL    HW225081  10.712  14.638   1.825
41103SOL     OW25082   8.046  10.329  10.599
41103SOL    HW125083   8.020  10.246  10.639
41103SOL    HW225084   7.987  10.341  10.525
41104SOL     OW25085   0.914  11.415  11.866
41104SOL    HW125086   0.886  11.453  11.949
41104SOL    HW225087   1.002  11.382  11.884
41105SOL     OW25088   9.068  14.432   3.035
41105SOL    HW125089   9.126  14.362   3.063
41105SOL    HW225090   9.120  14.483   2.973
41106SOL     OW25091   3.012   5.146   1.798
41106SOL    HW125092   2.963   5.159   1.879
41106SOL    HW225093   3.104   5.142   1.826
41107SOL     OW25094   1.530   6.439   7.483
41107SOL    HW125095   1.484   6.415   7.563
41107SOL    HW225096   1.472   6.502   7.440
41108SOL     OW25097  12.293   2.086  10.245
41108SOL    HW125098  12.317   2.166  10.292
41108SOL    HW225099  12.198   2.082  10.250
41109SOL     OW25100  10.700  14.450  14.019
41109SOL    HW125101  10.735  14.395  13.949
41109SOL    HW225102  10.653  14.389  14.076
41110SOL     OW25103   3.833  11.565  10.063
41110SOL    HW125104   3.892  11.635  10.033
41110SOL    HW225105   3.883  11.484  10.050
41111SOL     OW25106   3.343   0.203   1.341
41111SOL    HW125107   3.413   0.261   1.369
41111SOL    HW225108   3.263   0.248   1.365
41112SOL     OW25109  10.259  14.637   7.771
41112SOL    HW125110  10.330  14.579   7.747
41112SOL    HW225111  10.187  14.579   7.796
41113SOL     OW25112   8.555   8.995  10.200
41113SOL    HW125113   8.495   9.034  10.264
41113SOL    HW225114   8.642   9.024  10.228
41114SOL     OW25115   3.332  14.591   6.215
41114SOL    HW125116   3.346  14.504   6.252
41114SOL    HW225117   3.238  14.594   6.198
41115SOL     OW25118   5.274   4.837   7.104
41115SOL    HW125119   5.327   4.905   7.062
41115SOL    HW225120   5.296   4.757   7.056
41116SOL     OW25121   5.052  13.321  10.326
41116SOL    HW125122   5.029  13.248  10.269
41116SOL    HW225123   5.041  13.286  10.415
41117SOL     OW25124   7.725  11.897  10.937
41117SOL    HW125125   7.721  11.818  10.991
41117SOL    HW225126   7.650  11.950  10.966
41118SOL     OW25127   2.365   0.962  12.970
41118SOL    HW125128   2.385   0.878  13.012
41118SOL    HW225129   2.447   0.990  12.930
41119SOL     OW25130  10.906  11.529   5.612
41119SOL    HW125131  10.830  11.563   5.661
41119SOL    HW225132  10.952  11.474   5.675
41120SOL     OW25133   3.794   6.000  11.875
41120SOL    HW125134   3.752   6.071  11.924
41120SOL    HW225135   3.887   6.007  11.896
41121SOL     OW25136   6.942  14.607   9.796
41121SOL    HW125137   6.923  14.564   9.713
41121SOL    HW225138   6.885  14.684   9.798
41122SOL     OW25139   5.259  13.951  13.931
41122SOL    HW125140   5.264  14.046  13.937
41122SOL    HW225141   5.333  13.927  13.875
41123SOL     OW25142   1.904   0.847  12.596
41123SOL    HW125143   1.965   0.774  12.610
41123SOL    HW225144   1.818   0.812  12.620
41124SOL     OW25145   1.076   8.305  14.281
41124SOL    HW125146   1.032   8.274  14.202
41124SOL    HW225147   1.047   8.244  14.349
41125SOL     OW25148   5.993   3.272   1.001
41125SOL    HW125149   5.969   3.341   0.940
41125SOL    HW225150   6.075   3.237   0.967
41126SOL     OW25151   3.678   3.235   1.549
41126SOL    HW125152   3.599   3.208   1.596
41126SOL    HW225153   3.645   3.280   1.472
41127SOL     OW25154  10.844  12.879  11.635
41127SOL    HW125155  10.890  12.960  11.611
41127SOL    HW225156  10.910  12.826  11.679
41128SOL     OW25157   3.769  10.203  14.857
41128SOL    HW125158   3.769  10.109  14.844
41128SOL    HW225159   3.680  10.231  14.836
41129SOL     OW25160   7.315   6.570   9.240
41129SOL    HW125161   7.368   6.491   9.227
41129SOL    HW225162   7.347   6.608   9.321
41130SOL     OW25163   8.135   8.501   0.739
41130SOL    HW125164   8.113   8.586   0.701
41130SOL    HW225165   8.224   8.484   0.708
41131SOL     OW25166  11.997   8.352   8.859
41131SOL    HW125167  11.992   8.279   8.921
41131SOL    HW225168  12.017   8.310   8.775
41132SOL     OW25169   3.392   2.346   0.157
41132SOL    HW125170   3.447   2.374   0.084
41132SOL    HW225171   3.452   2.300   0.216
41133SOL     OW25172   8.917   1.751   4.580
41133SOL    HW125173   8.942   1.816   4.646
41133SOL    HW225174   8.913   1.800   4.498
41134SOL     OW25175   9.663  13.426   8.609
41134SOL    HW125176   9.666  13.399   8.517
41134SOL    HW225177   9.704  13.512   8.611
41135SOL     OW25178   1.288  13.942  13.038
41135SOL    HW125179   1.323  13.953  13.126
41135SOL    HW225180   1.359  13.901  12.989
41136SOL     OW25181   3.787   4.930  13.937
41136SOL    HW125182   3.712   4.918  13.995
41136SOL    HW225183   3.850   4.980  13.989
41137SOL     OW25184   3.529   5.236   1.300
41137SOL    HW125185   3.554   5.329   1.298
41137SOL    HW225186   3.567   5.203   1.381
41138SOL     OW25187   2.845  14.410  13.821
41138SOL    HW125188   2.750  14.418  13.821
41138SOL    HW225189   2.862  14.321  13.789
41139SOL     OW25190   7.305  14.052   0.516
41139SOL    HW125191   7.377  14.107   0.484
41139SOL    HW225192   7.228  14.107   0.507
41140SOL     OW25193   2.279  10.226   8.152
41140SOL    HW125194   2.256  10.179   8.071
41140SOL    HW225195   2.357  10.277   8.129
41141SOL     OW25196   6.787   0.055   2.041
41141SOL    HW125197   6.798  14.846   2.067
41141SOL    HW225198   6.702   0.081   2.079
41142SOL     OW25199  14.358   3.147  10.103
41142SOL    HW125200  14.376   3.123  10.194
41142SOL    HW225201  14.355   3.243  10.104
41143SOL     OW25202  12.225  12.115   1.769
41143SOL    HW125203  12.257  12.149   1.853
41143SOL    HW225204  12.180  12.034   1.792
41144SOL     OW25205  13.495   4.918   8.345
41144SOL    HW125206  13.573   4.862   8.343
41144SOL    HW225207  13.449   4.893   8.425
41145SOL     OW25208  13.937   2.099   6.393
41145SOL    HW125209  13.989   2.155   6.334
41145SOL    HW225210  13.887   2.161   6.447
41146SOL     OW25211   8.183  10.629  12.920
41146SOL    HW125212   8.134  10.608  12.841
41146SOL    HW225213   8.193  10.546  12.965
41147SOL     OW25214   1.956  10.099   1.362
41147SOL    HW125215   2.031  10.040   1.355
41147SOL    HW225216   1.959  10.132   1.451
41148SOL     OW25217  11.394  13.846  13.475
41148SOL    HW125218  11.434  13.780  13.417
41148SOL    HW225219  11.404  13.811  13.563
41149SOL     OW25220  12.972  10.703   1.783
41149SOL    HW125221  12.970  10.765   1.709
41149SOL    HW225222  13.041  10.641   1.760
41150SOL     OW25223  14.679  12.359  11.791
41150SOL    HW125224  14.599  12.315  11.820
41150SOL    HW225225  14.651  12.447  11.767
41151SOL     OW25226   4.967   6.375  12.436
41151SOL    HW125227   4.929   6.375  12.524
41151SOL    HW225228   5.031   6.304  12.437
41152SOL     OW25229   1.498   6.858  13.593
41152SOL    HW125230   1.452   6.775  13.600
41152SOL    HW225231   1.475   6.905  13.673
41153SOL     OW25232   2.813  13.180  14.843
41153SOL    HW125233   2.853  13.262  14.872
41153SOL    HW225234   2.886  13.125  14.816
41154SOL     OW25235  12.369   8.627   7.064
41154SOL    HW125236  12.389   8.708   7.111
41154SOL    HW225237  12.451   8.604   7.020
41155SOL     OW25238   5.525   4.512   6.277
41155SOL    HW125239   5.563   4.473   6.198
41155SOL    HW225240   5.430   4.504   6.264
41156SOL     OW25241   1.817   8.768  11.559
41156SOL    HW125242   1.875   8.816  11.500
41156SOL    HW225243   1.876   8.723  11.619
41157SOL     OW25244  10.432   9.113  14.053
41157SOL    HW125245  10.384   9.168  14.114
41157SOL    HW225246  10.380   9.033  14.046
41158SOL     OW25247   8.346   8.032   2.623
41158SOL    HW125248   8.359   8.000   2.534
41158SOL    HW225249   8.430   8.016   2.667
41159SOL     OW25250   4.638  10.864   5.958
41159SOL    HW125251   4.592  10.796   5.909
41159SOL    HW225252   4.581  10.881   6.034
41160SOL     OW25253   0.936  14.537   7.984
41160SOL    HW125254   0.859  14.593   7.981
41160SOL    HW225255   0.981  14.553   7.901
41161SOL     OW25256  14.780   2.531   7.834
41161SOL    HW125257  14.871   2.541   7.862
41161SOL    HW225258  14.761   2.612   7.787
41162SOL     OW25259  12.976   4.213  14.568
41162SOL    HW125260  12.914   4.220  14.641
41162SOL    HW225261  12.923   4.183  14.494
41163SOL     OW25262  12.067  14.162   7.661
41163SOL    HW125263  12.096  14.240   7.614
41163SOL    HW225264  12.147  14.125   7.699
41164SOL     OW25265   8.866   6.499   4.426
41164SOL    HW125266   8.888   6.413   4.462
41164SOL    HW225267   8.818   6.479   4.345
41165SOL     OW25268  10.690   9.179   4.016
41165SOL    HW125269  10.651   9.097   3.989
41165SOL    HW225270  10.616   9.233   4.044
41166SOL     OW25271  13.778  13.168   3.021
41166SOL    HW125272  13.686  13.173   2.995
41166SOL    HW225273  13.778  13.190   3.114
41167SOL     OW25274  11.077   0.043  10.695
41167SOL    HW125275  10.982   0.046  10.708
41167SOL    HW225276  11.104   0.134  10.694
41168SOL     OW25277  12.885   2.247   7.190
41168SOL    HW125278  12.973   2.211   7.182
41168SOL    HW225279  12.856   2.261   7.099
41169SOL     OW25280  12.936   4.130   6.776
41169SOL    HW125281  12.977   4.159   6.695
41169SOL    HW225282  12.889   4.207   6.807
41170SOL     OW25283   3.507   6.068  10.010
41170SOL    HW125284   3.439   6.077  10.077
41170SOL    HW225285   3.481   6.130   9.941
41171SOL     OW25286   3.325   6.583  13.196
41171SOL    HW125287   3.326   6.579  13.100
41171SOL    HW225288   3.359   6.670  13.217
41172SOL     OW25289   3.125   0.367   3.893
41172SOL    HW125290   3.219   0.377   3.909
41172SOL    HW225291   3.098   0.451   3.855
41173SOL     OW25292   4.137   4.666   2.102
41173SOL    HW125293   4.228   4.651   2.128
41173SOL    HW225294   4.143   4.700   2.012
41174SOL     OW25295   3.765  11.476  13.302
41174SOL    HW125296   3.778  11.382  13.292
41174SOL    HW225297   3.845  11.515  13.267
41175SOL     OW25298  14.123   4.077   9.658
41175SOL    HW125299  14.207   4.101   9.698
41175SOL    HW225300  14.108   3.986   9.684
41176SOL     OW25301   5.631  12.304   8.492
41176SOL    HW125302   5.696  12.367   8.523
41176SOL    HW225303   5.669  12.269   8.411
41177SOL     OW25304   6.032   4.737   2.866
41177SOL    HW125305   6.080   4.802   2.918
41177SOL    HW225306   6.099   4.695   2.811
41178SOL     OW25307   4.917   2.839  12.598
41178SOL    HW125308   4.828   2.810  12.616
41178SOL    HW225309   4.947   2.878  12.680
41179SOL     OW25310   4.021   2.570   1.865
41179SOL    HW125311   3.972   2.594   1.944
41179SOL    HW225312   4.086   2.507   1.896
41180SOL     OW25313   6.857  11.674  11.652
41180SOL    HW125314   6.877  11.636  11.738
41180SOL    HW225315   6.767  11.704  11.659
41181SOL     OW25316   0.265  11.862   4.233
41181SOL    HW125317   0.348  11.825   4.262
41181SOL    HW225318   0.258  11.837   4.141
41182SOL     OW25319   9.325   3.116   4.552
41182SOL    HW125320   9.363   3.072   4.476
41182SOL    HW225321   9.230   3.102   4.543
41183SOL     OW25322   3.688  14.881   4.726
41183SOL    HW125323   3.755   0.051   4.680
41183SOL    HW225324   3.614   0.061   4.736
41184SOL     OW25325   6.475  13.964   4.410
41184SOL    HW125326   6.492  13.878   4.372
41184SOL    HW225327   6.388  13.987   4.380
41185SOL     OW25328  13.913  12.549   0.215
41185SOL    HW125329  13.896  12.497   0.137
41185SOL    HW225330  13.827  12.563   0.254
41186SOL     OW25331   9.708   8.359  14.125
41186SOL    HW125332   9.644   8.293  14.095
41186SOL    HW225333   9.758   8.381  14.047
41187SOL     OW25334   8.450   3.934   0.054
41187SOL    HW125335   8.380   3.996   0.034
41187SOL    HW225336   8.526   3.966   0.005
41188SOL     OW25337  13.716  12.885   6.395
41188SOL    HW125338  13.707  12.793   6.421
41188SOL    HW225339  13.805  12.891   6.361
41189SOL     OW25340   2.584   5.196  12.140
41189SOL    HW125341   2.528   5.119  12.149
41189SOL    HW225342   2.657   5.180  12.200
41190SOL     OW25343   0.068  12.053  10.639
41190SOL    HW125344   0.153  12.097  10.637
41190SOL    HW225345   0.073  11.995  10.715
41191SOL     OW25346   1.610   2.636  10.418
41191SOL    HW125347   1.582   2.670  10.502
41191SOL    HW225348   1.615   2.712  10.361
41192SOL     OW25349   5.932   1.701  14.192
41192SOL    HW125350   5.942   1.611  14.225
41192SOL    HW225351   5.947   1.756  14.270
41193SOL     OW25352   9.578   0.604   4.503
41193SOL    HW125353   9.573   0.612   4.407
41193SOL    HW225354   9.672   0.604   4.522
41194SOL     OW25355   3.550   9.676   1.663
41194SOL    HW125356   3.632   9.652   1.706
41194SOL    HW225357   3.501   9.723   1.730
41195SOL     OW25358   2.368   2.144   9.992
41195SOL    HW125359   2.316   2.102  10.061
41195SOL    HW225360   2.304   2.183   9.933
41196SOL     OW25361  12.375   9.424  10.927
41196SOL    HW125362  12.457   9.470  10.910
41196SOL    HW225363  12.359   9.373  10.848
41197SOL     OW25364  14.121   3.979   8.738
41197SOL    HW125365  14.089   4.051   8.793
41197SOL    HW225366  14.108   3.901   8.791
41198SOL     OW25367  12.239   8.337  10.206
41198SOL    HW125368  12.232   8.255  10.256
41198SOL    HW225369  12.177   8.327  10.135
41199SOL     OW25370  12.353  14.644  14.443
41199SOL    HW125371  12.275  14.612  14.488
41199SOL    HW225372  12.320  14.708  14.380
41200SOL     OW25373   8.773  12.465   3.343
41200SOL    HW125374   8.700  12.441   3.399
41200SOL    HW225375   8.744  12.442   3.254
41201SOL     OW25376   6.141  13.903   4.757
41201SOL    HW125377   6.157  13.986   4.713
41201SOL    HW225378   6.125  13.841   4.687
41202SOL     OW25379  11.238   1.093   4.344
41202SOL    HW125380  11.307   1.154   4.371
41202SOL    HW225381  11.229   1.108   4.249
41203SOL     OW25382   6.588  11.324   4.815
41203SOL    HW125383   6.610  11.417   4.804
41203SOL    HW225384   6.580  11.313   4.909
41204SOL     OW25385   7.401   9.453  10.602
41204SOL    HW125386   7.436   9.365  10.591
41204SOL    HW225387   7.380   9.460  10.695
41205SOL     OW25388   1.121  12.973   1.437
41205SOL    HW125389   1.212  12.946   1.451
41205SOL    HW225390   1.071  12.892   1.446
41206SOL     OW25391   1.696   1.551   8.022
41206SOL    HW125392   1.751   1.627   8.044
41206SOL    HW225393   1.630   1.586   7.962
41207SOL     OW25394  11.600   6.912  13.744
41207SOL    HW125395  11.542   6.872  13.808
41207SOL    HW225396  11.622   6.997  13.782
41208SOL     OW25397  13.198   1.196   8.352
41208SOL    HW125398  13.140   1.145   8.296
41208SOL    HW225399  13.184   1.161   8.440
41209SOL     OW25400  11.941   6.402   7.246
41209SOL    HW125401  11.892   6.332   7.290
41209SOL    HW225402  11.877   6.442   7.187
41210SOL     OW25403   0.021   8.853   2.560
41210SOL    HW125404  14.856   8.855   2.644
41210SOL    HW225405   0.106   8.892   2.580
41211SOL     OW25406   2.447   0.140  14.820
41211SOL    HW125407   2.509   0.106   0.002
41211SOL    HW225408   2.369   0.085  14.830
41212SOL     OW25409   2.797   3.955   8.338
41212SOL    HW125410   2.869   4.006   8.301
41212SOL    HW225411   2.739   4.020   8.378
41213SOL     OW25412   1.184  11.480  13.137
41213SOL    HW125413   1.115  11.437  13.086
41213SOL    HW225414   1.140  11.509  13.217
41214SOL     OW25415   4.993   0.977   6.684
41214SOL    HW125416   5.007   0.889   6.720
41214SOL    HW225417   4.927   0.964   6.616
41215SOL     OW25418  10.428   5.796   0.302
41215SOL    HW125419  10.476   5.830   0.227
41215SOL    HW225420  10.439   5.701   0.296
41216SOL     OW25421   0.566   6.690   9.457
41216SOL    HW125422   0.640   6.660   9.405
41216SOL    HW225423   0.555   6.624   9.524
41217SOL     OW25424   3.092   2.948   0.677
41217SOL    HW125425   3.153   3.004   0.726
41217SOL    HW225426   3.085   2.869   0.730
41218SOL     OW25427  13.883   3.008  13.118
41218SOL    HW125428  13.828   2.955  13.175
41218SOL    HW225429  13.887   3.094  13.161
41219SOL     OW25430   7.197   5.539   8.647
41219SOL    HW125431   7.265   5.502   8.704
41219SOL    HW225432   7.116   5.530   8.697
41220SOL     OW25433   7.357   9.038   1.721
41220SOL    HW125434   7.387   9.088   1.797
41220SOL    HW225435   7.274   9.000   1.748
41221SOL     OW25436   2.174  14.194  12.931
41221SOL    HW125437   2.209  14.119  12.884
41221SOL    HW225438   2.224  14.197  13.013
41222SOL     OW25439   5.495   5.603   0.907
41222SOL    HW125440   5.484   5.604   0.812
41222SOL    HW225441   5.525   5.691   0.929
41223SOL     OW25442   7.323   0.889   2.860
41223SOL    HW125443   7.331   0.960   2.797
41223SOL    HW225444   7.263   0.827   2.819
41224SOL     OW25445   5.866   7.075   4.916
41224SOL    HW125446   5.835   7.148   4.863
41224SOL    HW225447   5.957   7.097   4.936
41225SOL     OW25448   8.589  13.316  12.227
41225SOL    HW125449   8.656  13.365  12.180
41225SOL    HW225450   8.638  13.253  12.280
41226SOL     OW25451   6.079   1.183  12.703
41226SOL    HW125452   6.009   1.243  12.729
41226SOL    HW225453   6.130   1.170  12.782
41227SOL     OW25454  10.709   1.953  14.707
41227SOL    HW125455  10.662   1.877  14.743
41227SOL    HW225456  10.657   1.979  14.631
41228SOL     OW25457   2.732   7.029   7.095
41228SOL    HW125458   2.824   7.054   7.098
41228SOL    HW225459   2.725   6.970   7.020
41229SOL     OW25460   3.632   2.646   9.574
41229SOL    HW125461   3.544   2.657   9.610
41229SOL    HW225462   3.687   2.629   9.650
41230SOL     OW25463  10.184   9.584   8.934
41230SOL    HW125464  10.135   9.663   8.957
41230SOL    HW225465  10.212   9.599   8.844
41231SOL     OW25466   9.731  10.474  11.430
41231SOL    HW125467   9.635  10.476  11.434
41231SOL    HW225468   9.758  10.446  11.518
41232SOL     OW25469   2.498  11.361   8.594
41232SOL    HW125470   2.452  11.291   8.547
41232SOL    HW225471   2.560  11.396   8.530
41233SOL     OW25472   9.543   0.841   7.818
41233SOL    HW125473   9.516   0.764   7.768
41233SOL    HW225474   9.486   0.912   7.788
41234SOL     OW25475   9.153   8.322   7.890
41234SOL    HW125476   9.078   8.352   7.942
41234SOL    HW225477   9.228   8.331   7.948
41235SOL     OW25478   5.990  12.795   8.763
41235SOL    HW125479   5.978  12.875   8.713
41235SOL    HW225480   5.971  12.724   8.702
41236SOL     OW25481  11.967   3.380   5.914
41236SOL    HW125482  11.887   3.346   5.875
41236SOL    HW225483  11.963   3.352   6.006
41237SOL     OW25484   6.968  14.559   1.087
41237SOL    HW125485   7.039  14.498   1.107
41237SOL    HW225486   6.888  14.509   1.105
41238SOL     OW25487  10.760  12.376   1.136
41238SOL    HW125488  10.846  12.399   1.170
41238SOL    HW225489  10.731  12.302   1.190
41239SOL     OW25490  13.766   7.015   6.528
41239SOL    HW125491  13.762   7.068   6.448
41239SOL    HW225492  13.791   6.928   6.498
41240SOL     OW25493  11.196   8.653   3.673
41240SOL    HW125494  11.189   8.698   3.757
41240SOL    HW225495  11.167   8.718   3.609
41241SOL     OW25496   1.759  13.612   9.999
41241SOL    HW125497   1.819  13.621  10.073
41241SOL    HW225498   1.771  13.692   9.948
41242SOL     OW25499  11.755   9.814   3.301
41242SOL    HW125500  11.802   9.849   3.377
41242SOL    HW225501  11.737   9.891   3.246
41243SOL     OW25502  12.290   8.700   9.867
41243SOL    HW125503  12.202   8.664   9.860
41243SOL    HW225504  12.348   8.623   9.863
41244SOL     OW25505   6.397  13.117   0.782
41244SOL    HW125506   6.357  13.032   0.797
41244SOL    HW225507   6.454  13.104   0.706
41245SOL     OW25508  11.439   3.594   3.612
41245SOL    HW125509  11.503   3.606   3.542
41245SOL    HW225510  11.403   3.681   3.627
41246SOL     OW25511   4.383  13.738   6.962
41246SOL    HW125512   4.463  13.780   6.931
41246SOL    HW225513   4.406  13.703   7.048
41247SOL     OW25514   1.296   0.760   9.873
41247SOL    HW125515   1.249   0.721   9.799
41247SOL    HW225516   1.388   0.740   9.856
41248SOL     OW25517   8.523   4.481  12.603
41248SOL    HW125518   8.536   4.518  12.691
41248SOL    HW225519   8.603   4.505  12.556
41249SOL     OW25520  12.253   3.034   4.784
41249SOL    HW125521  12.271   3.062   4.695
41249SOL    HW225522  12.163   3.004   4.782
41250SOL     OW25523  12.577   7.843  11.623
41250SOL    HW125524  12.666   7.830  11.657
41250SOL    HW225525  12.587   7.911  11.556
41251SOL     OW25526   6.327   3.102  10.721
41251SOL    HW125527   6.376   3.172  10.764
41251SOL    HW225528   6.386   3.027  10.723
41252SOL     OW25529   1.493  12.465  12.732
41252SOL    HW125530   1.460  12.377  12.746
41252SOL    HW225531   1.416  12.521  12.737
41253SOL     OW25532   0.326   8.829   8.606
41253SOL    HW125533   0.345   8.736   8.620
41253SOL    HW225534   0.408   8.866   8.573
41254SOL     OW25535  10.209  13.046  11.845
41254SOL    HW125536  10.221  13.106  11.772
41254SOL    HW225537  10.240  13.094  11.921
41255SOL     OW25538  14.801   1.905   5.916
41255SOL    HW125539  14.779   1.854   5.994
41255SOL    HW225540  14.719   1.910   5.867
41256SOL     OW25541   4.712   6.427   9.144
41256SOL    HW125542   4.647   6.427   9.074
41256SOL    HW225543   4.696   6.346   9.192
41257SOL     OW25544   3.153   0.506  13.511
41257SOL    HW125545   3.086   0.490  13.578
41257SOL    HW225546   3.103   0.528  13.432
41258SOL     OW25547   5.588  13.631   5.331
41258SOL    HW125548   5.585  13.634   5.427
41258SOL    HW225549   5.528  13.700   5.303
41259SOL     OW25550   9.274   9.590  11.806
41259SOL    HW125551   9.307   9.639  11.881
41259SOL    HW225552   9.260   9.656  11.738
41260SOL     OW25553   0.963   5.472   9.814
41260SOL    HW125554   0.988   5.559   9.783
41260SOL    HW225555   1.045   5.425   9.821
41261SOL     OW25556   7.373   4.051   7.034
41261SOL    HW125557   7.302   4.005   7.078
41261SOL    HW225558   7.366   4.142   7.064
41262SOL     OW25559   6.567   2.548   5.521
41262SOL    HW125560   6.586   2.473   5.465
41262SOL    HW225561   6.486   2.585   5.486
41263SOL     OW25562  10.142   8.793   4.599
41263SOL    HW125563  10.163   8.820   4.688
41263SOL    HW225564  10.067   8.848   4.574
41264SOL     OW25565   8.215   3.644   3.009
41264SOL    HW125566   8.155   3.718   3.000
41264SOL    HW225567   8.191   3.604   3.093
41265SOL     OW25568   8.332  12.683   2.354
41265SOL    HW125569   8.330  12.597   2.313
41265SOL    HW225570   8.297  12.742   2.288
41266SOL     OW25571  13.157  12.798  14.808
41266SOL    HW125572  13.202  12.742  14.872
41266SOL    HW225573  13.105  12.858  14.862
41267SOL     OW25574   2.295   4.754  12.887
41267SOL    HW125575   2.341   4.696  12.826
41267SOL    HW225576   2.203   4.729  12.880
41268SOL     OW25577   5.179   0.950   4.902
41268SOL    HW125578   5.088   0.974   4.884
41268SOL    HW225579   5.216   0.930   4.817
41269SOL     OW25580   1.359   7.694   1.623
41269SOL    HW125581   1.395   7.713   1.537
41269SOL    HW225582   1.277   7.648   1.605
41270SOL     OW25583   7.494   7.855   8.449
41270SOL    HW125584   7.436   7.798   8.398
41270SOL    HW225585   7.484   7.824   8.540
41271SOL     OW25586   0.603   0.618   1.546
41271SOL    HW125587   0.638   0.620   1.457
41271SOL    HW225588   0.653   0.550   1.590
41272SOL     OW25589  13.440  14.738  12.702
41272SOL    HW125590  13.399  14.728  12.616
41272SOL    HW225591  13.533  14.728  12.686
41273SOL     OW25592   2.564   9.771  11.871
41273SOL    HW125593   2.598   9.782  11.960
41273SOL    HW225594   2.640   9.740  11.821
41274SOL     OW25595   7.085  14.160   7.110
41274SOL    HW125596   7.049  14.117   7.188
41274SOL    HW225597   7.060  14.252   7.120
41275SOL     OW25598  14.378  13.800   0.877
41275SOL    HW125599  14.333  13.753   0.807
41275SOL    HW225600  14.315  13.866   0.906
41276SOL     OW25601   2.380   5.392  11.295
41276SOL    HW125602   2.436   5.398  11.372
41276SOL    HW225603   2.409   5.313  11.250
41277SOL     OW25604   2.535   8.163  12.129
41277SOL    HW125605   2.496   8.243  12.163
41277SOL    HW225606   2.608   8.145  12.188
41278SOL     OW25607   9.515  13.367   9.434
41278SOL    HW125608   9.449  13.344   9.369
41278SOL    HW225609   9.520  13.463   9.430
41279SOL     OW25610   7.905  12.948   2.272
41279SOL    HW125611   7.951  12.913   2.348
41279SOL    HW225612   7.933  12.892   2.199
41280SOL     OW25613   4.104   3.328   7.956
41280SOL    HW125614   4.107   3.363   8.045
41280SOL    HW225615   4.192   3.294   7.940
41281SOL     OW25616   3.218   3.163   2.534
41281SOL    HW125617   3.215   3.172   2.629
41281SOL    HW225618   3.155   3.228   2.502
41282SOL     OW25619  12.631   3.894   8.772
41282SOL    HW125620  12.629   3.849   8.856
41282SOL    HW225621  12.581   3.838   8.713
41283SOL     OW25622   7.296   6.650   7.902
41283SOL    HW125623   7.380   6.619   7.868
41283SOL    HW225624   7.260   6.704   7.832
41284SOL     OW25625   1.414  11.256   3.331
41284SOL    HW125626   1.381  11.282   3.245
41284SOL    HW225627   1.381  11.167   3.343
41285SOL     OW25628   0.707  14.702  10.358
41285SOL    HW125629   0.667  14.716  10.273
41285SOL    HW225630   0.749  14.786  10.379
41286SOL     OW25631   2.653   3.163   2.702
41286SOL    HW125632   2.719   3.195   2.763
41286SOL    HW225633   2.695   3.089   2.658
41287SOL     OW25634  12.565   3.689  12.334
41287SOL    HW125635  12.487   3.637  12.313
41287SOL    HW225636  12.536   3.752  12.400
41288SOL     OW25637   8.453  12.863   5.795
41288SOL    HW125638   8.470  12.775   5.761
41288SOL    HW225639   8.462  12.920   5.719
41289SOL     OW25640   9.668   3.810  13.184
41289SOL    HW125641   9.585   3.841  13.147
41289SOL    HW225642   9.734   3.862  13.139
41290SOL     OW25643   0.195   0.203   7.846
41290SOL    HW125644   0.249   0.147   7.902
41290SOL    HW225645   0.202   0.290   7.885
41291SOL     OW25646   3.857   2.181  10.508
41291SOL    HW125647   3.781   2.127  10.490
41291SOL    HW225648   3.839   2.264  10.464
41292SOL     OW25649   2.364   9.723   0.167
41292SOL    HW125650   2.322   9.712   0.082
41292SOL    HW225651   2.433   9.787   0.152
41293SOL     OW25652  12.960   6.228   1.859
41293SOL    HW125653  12.965   6.317   1.824
41293SOL    HW225654  13.037   6.220   1.915
41294SOL     OW25655   4.638   3.959   7.128
41294SOL    HW125656   4.605   4.011   7.201
41294SOL    HW225657   4.605   3.871   7.145
41295SOL     OW25658  10.161   7.113   7.141
41295SOL    HW125659  10.191   7.034   7.188
41295SOL    HW225660  10.165   7.183   7.207
41296SOL     OW25661   7.782  14.773  13.013
41296SOL    HW125662   7.789  14.859  13.054
41296SOL    HW225663   7.840  14.778  12.937
41297SOL     OW25664   6.448  10.888   1.564
41297SOL    HW125665   6.523  10.850   1.517
41297SOL    HW225666   6.446  10.841   1.647
41298SOL     OW25667  11.293   3.991   0.197
41298SOL    HW125668  11.376   4.039   0.196
41298SOL    HW225669  11.277   3.970   0.105
41299SOL     OW25670   2.254   8.826  10.843
41299SOL    HW125671   2.230   8.899  10.785
41299SOL    HW225672   2.291   8.867  10.920
41300SOL     OW25673  14.378   5.424   2.351
41300SOL    HW125674  14.428   5.475   2.288
41300SOL    HW225675  14.424   5.437   2.434
41301SOL     OW25676  12.949   6.673  13.717
41301SOL    HW125677  12.957   6.698  13.624
41301SOL    HW225678  12.989   6.747  13.764
41302SOL     OW25679  14.751  13.419  14.004
41302SOL    HW125680  14.821  13.437  13.942
41302SOL    HW225681  14.790  13.359  14.067
41303SOL     OW25682   3.426   5.520   0.315
41303SOL    HW125683   3.474   5.510   0.233
41303SOL    HW225684   3.354   5.457   0.309
41304SOL     OW25685   2.036   4.831  13.138
41304SOL    HW125686   2.088   4.756  13.167
41304SOL    HW225687   2.043   4.895  13.209
41305SOL     OW25688  10.694   7.084   5.019
41305SOL    HW125689  10.740   7.104   5.100
41305SOL    HW225690  10.714   6.993   5.001
41306SOL     OW25691   6.860  13.083   4.120
41306SOL    HW125692   6.904  13.158   4.078
41306SOL    HW225693   6.896  13.007   4.075
41307SOL     OW25694  12.326   7.454   7.180
41307SOL    HW125695  12.395   7.424   7.122
41307SOL    HW225696  12.278   7.374   7.204
41308SOL     OW25697   4.030   5.677  10.456
41308SOL    HW125698   4.099   5.732  10.419
41308SOL    HW225699   3.957   5.737  10.472
41309SOL     OW25700   2.971   1.253   3.280
41309SOL    HW125701   2.882   1.262   3.316
41309SOL    HW225702   2.986   1.336   3.235
41310SOL     OW25703   9.639   4.526   4.999
41310SOL    HW125704   9.691   4.524   4.919
41310SOL    HW225705   9.556   4.484   4.974
41311SOL     OW25706   9.034   9.766   6.655
41311SOL    HW125707   9.099   9.823   6.613
41311SOL    HW225708   9.074   9.742   6.739
41312SOL     OW25709  12.589   6.330   7.078
41312SOL    HW125710  12.547   6.286   7.003
41312SOL    HW225711  12.623   6.411   7.041
41313SOL     OW25712   1.494  12.623   1.493
41313SOL    HW125713   1.575  12.572   1.491
41313SOL    HW225714   1.455  12.609   1.407
41314SOL     OW25715   3.786   0.035  12.291
41314SOL    HW125716   3.729  14.848  12.327
41314SOL    HW225717   3.738   0.116  12.306
41315SOL     OW25718   8.030   8.023   9.595
41315SOL    HW125719   8.066   8.112   9.590
41315SOL    HW225720   8.097   7.967   9.556
41316SOL     OW25721  11.155  13.594   3.423
41316SOL    HW125722  11.078  13.597   3.478
41316SOL    HW225723  11.146  13.513   3.372
41317SOL     OW25724   0.496   9.568  12.174
41317SOL    HW125725   0.502   9.513  12.252
41317SOL    HW225726   0.415   9.540  12.131
41318SOL     OW25727   1.967   6.563  10.582
41318SOL    HW125728   2.045   6.580  10.634
41318SOL    HW225729   1.900   6.537  10.646
41319SOL     OW25730  13.790   0.524  11.251
41319SOL    HW125731  13.779   0.431  11.268
41319SOL    HW225732  13.829   0.529  11.164
41320SOL     OW25733   6.279  12.662   9.242
41320SOL    HW125734   6.338  12.624   9.177
41320SOL    HW225735   6.323  12.646   9.326
41321SOL     OW25736   1.010   8.770   0.170
41321SOL    HW125737   1.015   8.818   0.252
41321SOL    HW225738   0.967   8.830   0.109
41322SOL     OW25739   5.937   4.536  13.898
41322SOL    HW125740   5.861   4.538  13.957
41322SOL    HW225741   6.012   4.520  13.956
41323SOL     OW25742  12.806   7.278   2.578
41323SOL    HW125743  12.883   7.334   2.566
41323SOL    HW225744  12.769   7.269   2.490
41324SOL     OW25745   8.622  12.963   5.279
41324SOL    HW125746   8.660  13.041   5.321
41324SOL    HW225747   8.544  12.996   5.235
41325SOL     OW25748   9.086   3.179   9.876
41325SOL    HW125749   9.023   3.170   9.948
41325SOL    HW225750   9.166   3.137   9.909
41326SOL     OW25751   6.481   1.542   8.019
41326SOL    HW125752   6.487   1.614   8.082
41326SOL    HW225753   6.412   1.486   8.053
41327SOL     OW25754   5.334   5.838   0.822
41327SOL    HW125755   5.320   5.838   0.727
41327SOL    HW225756   5.262   5.784   0.856
41328SOL     OW25757  13.382   5.956   4.907
41328SOL    HW125758  13.461   6.001   4.876
41328SOL    HW225759  13.415   5.875   4.946
41329SOL     OW25760   3.774  12.157   4.920
41329SOL    HW125761   3.727  12.087   4.965
41329SOL    HW225762   3.705  12.215   4.888
41330SOL     OW25763   9.303   9.958   7.174
41330SOL    HW125764   9.359   9.991   7.244
41330SOL    HW225765   9.344   9.875   7.148
41331SOL     OW25766   8.122   7.501   6.092
41331SOL    HW125767   8.081   7.484   6.177
41331SOL    HW225768   8.214   7.477   6.105
41332SOL     OW25769  14.322  10.208  14.557
41332SOL    HW125770  14.313  10.235  14.649
41332SOL    HW225771  14.277  10.123  14.553
41333SOL     OW25772   1.329   4.543   4.860
41333SOL    HW125773   1.355   4.604   4.929
41333SOL    HW225774   1.410   4.499   4.836
41334SOL     OW25775   6.981  11.837   8.141
41334SOL    HW125776   7.072  11.859   8.117
41334SOL    HW225777   6.961  11.894   8.215
41335SOL     OW25778   8.131  10.038   8.066
41335SOL    HW125779   8.183  10.079   8.135
41335SOL    HW225780   8.137  10.099   7.992
41336SOL     OW25781  13.828  13.982  13.807
41336SOL    HW125782  13.877  14.051  13.763
41336SOL    HW225783  13.809  13.918  13.738
41337SOL     OW25784   9.399   4.607   2.684
41337SOL    HW125785   9.491   4.617   2.706
41337SOL    HW225786   9.359   4.691   2.710
41338SOL     OW25787   2.334   2.187   4.530
41338SOL    HW125788   2.374   2.117   4.478
41338SOL    HW225789   2.408   2.239   4.562
41339SOL     OW25790   5.638   8.105   9.824
41339SOL    HW125791   5.643   8.154   9.742
41339SOL    HW225792   5.568   8.149   9.873
41340SOL     OW25793   8.926   6.375  13.375
41340SOL    HW125794   9.006   6.350  13.329
41340SOL    HW225795   8.907   6.302  13.433
41341SOL     OW25796  12.485   4.899  13.988
41341SOL    HW125797  12.475   4.833  13.919
41341SOL    HW225798  12.417   4.878  14.052
41342SOL     OW25799   0.747   7.986   5.431
41342SOL    HW125800   0.702   8.050   5.487
41342SOL    HW225801   0.808   7.943   5.490
41343SOL     OW25802   4.200   8.784   0.790
41343SOL    HW125803   4.239   8.828   0.715
41343SOL    HW225804   4.264   8.716   0.814
41344SOL     OW25805   0.656   3.085   6.792
41344SOL    HW125806   0.717   3.070   6.865
41344SOL    HW225807   0.707   3.133   6.727
41345SOL     OW25808  13.426   3.647   9.647
41345SOL    HW125809  13.495   3.582   9.633
41345SOL    HW225810  13.405   3.639   9.740
41346SOL     OW25811  11.837  13.377   3.470
41346SOL    HW125812  11.828  13.447   3.534
41346SOL    HW225813  11.751  13.334   3.469
41347SOL     OW25814   5.946   2.235  11.894
41347SOL    HW125815   5.890   2.312  11.907
41347SOL    HW225816   6.030   2.272  11.865
41348SOL     OW25817   3.322   5.555   5.407
41348SOL    HW125818   3.277   5.631   5.369
41348SOL    HW225819   3.414   5.567   5.383
41349SOL     OW25820   4.857  14.629   4.778
41349SOL    HW125821   4.854  14.595   4.688
41349SOL    HW225822   4.851  14.550   4.833
41350SOL     OW25823   2.890  10.841  10.679
41350SOL    HW125824   2.840  10.914  10.643
41350SOL    HW225825   2.906  10.866  10.770
41351SOL     OW25826   8.072   1.648   9.417
41351SOL    HW125827   8.019   1.727   9.431
41351SOL    HW225828   8.159   1.681   9.396
41352SOL     OW25829  12.380   9.097  12.810
41352SOL    HW125830  12.345   9.104  12.898
41352SOL    HW225831  12.433   9.017  12.811
41353SOL     OW25832  14.410   8.918   7.752
41353SOL    HW125833  14.445   8.831   7.733
41353SOL    HW225834  14.324   8.902   7.790
41354SOL     OW25835   3.422  13.655   4.553
41354SOL    HW125836   3.340  13.652   4.502
41354SOL    HW225837   3.474  13.723   4.510
41355SOL     OW25838   7.417  13.154   1.272
41355SOL    HW125839   7.476  13.227   1.293
41355SOL    HW225840   7.386  13.174   1.183
41356SOL     OW25841  13.047   8.703   5.274
41356SOL    HW125842  13.020   8.661   5.356
41356SOL    HW225843  12.969   8.749   5.243
41357SOL     OW25844  13.596   7.734  10.486
41357SOL    HW125845  13.564   7.651  10.521
41357SOL    HW225846  13.568   7.734  10.395
41358SOL     OW25847   6.707  10.654  12.085
41358SOL    HW125848   6.641  10.700  12.033
41358SOL    HW225849   6.659  10.615  12.157
41359SOL     OW25850   8.424  14.208   4.938
41359SOL    HW125851   8.357  14.163   4.990
41359SOL    HW225852   8.419  14.168   4.851
41360SOL     OW25853   6.178   9.851  11.686
41360SOL    HW125854   6.092   9.878  11.719
41360SOL    HW225855   6.162   9.825  11.595
41361SOL     OW25856   3.157   5.736  11.694
41361SOL    HW125857   3.158   5.781  11.609
41361SOL    HW225858   3.163   5.806  11.759
41362SOL     OW25859  11.070  13.626  11.643
41362SOL    HW125860  11.148  13.649  11.694
41362SOL    HW225861  10.998  13.666  11.691
41363SOL     OW25862  13.935   3.583   4.986
41363SOL    HW125863  13.898   3.671   4.977
41363SOL    HW225864  13.860   3.527   5.002
41364SOL     OW25865   9.225   4.183  12.822
41364SOL    HW125866   9.237   4.205  12.915
41364SOL    HW225867   9.155   4.118  12.822
41365SOL     OW25868   0.788   4.208   1.767
41365SOL    HW125869   0.753   4.246   1.687
41365SOL    HW225870   0.710   4.191   1.821
41366SOL     OW25871   0.331   1.690  11.457
41366SOL    HW125872   0.322   1.611  11.404
41366SOL    HW225873   0.298   1.664  11.544
41367SOL     OW25874   6.659   5.252   7.115
41367SOL    HW125875   6.675   5.276   7.206
41367SOL    HW225876   6.744   5.219   7.084
41368SOL     OW25877  12.699   3.456   2.057
41368SOL    HW125878  12.634   3.507   2.106
41368SOL    HW225879  12.692   3.368   2.095
41369SOL     OW25880   3.085   1.637   8.073
41369SOL    HW125881   3.086   1.718   8.021
41369SOL    HW225882   2.996   1.631   8.106
41370SOL     OW25883  12.834   2.758  12.441
41370SOL    HW125884  12.880   2.693  12.496
41370SOL    HW225885  12.836   2.838  12.493
41371SOL     OW25886  11.352   1.348  13.998
41371SOL    HW125887  11.308   1.429  14.024
41371SOL    HW225888  11.331   1.338  13.905
41372SOL     OW25889  12.045   1.820  12.210
41372SOL    HW125890  12.109   1.886  12.237
41372SOL    HW225891  12.098   1.743  12.188
41373SOL     OW25892   5.128   3.856   1.079
41373SOL    HW125893   5.220   3.879   1.096
41373SOL    HW225894   5.133   3.773   1.030
41374SOL     OW25895  12.115  11.041   1.315
41374SOL    HW125896  12.193  10.988   1.301
41374SOL    HW225897  12.043  10.984   1.289
41375SOL     OW25898  11.469   4.991   6.496
41375SOL    HW125899  11.399   4.926   6.493
41375SOL    HW225900  11.546   4.942   6.525
41376SOL     OW25901   5.043  14.576   3.768
41376SOL    HW125902   5.072  14.592   3.678
41376SOL    HW225903   4.951  14.602   3.769
41377SOL     OW25904  13.855  14.825   6.955
41377SOL    HW125905  13.906   0.003   6.900
41377SOL    HW225906  13.846  14.871   7.039
41378SOL     OW25907   5.634  14.674  12.917
41378SOL    HW125908   5.573  14.748  12.912
41378SOL    HW225909   5.679  14.675  12.832
41379SOL     OW25910   2.536  14.273  10.336
41379SOL    HW125911   2.620  14.306  10.305
41379SOL    HW225912   2.483  14.262  10.257
41380SOL     OW25913   8.715   3.788   9.828
41380SOL    HW125914   8.647   3.849   9.798
41380SOL    HW225915   8.786   3.845   9.860
41381SOL     OW25916  14.830  13.501   4.765
41381SOL    HW125917  14.828  13.463   4.852
41381SOL    HW225918  14.825  13.596   4.780
41382SOL     OW25919  11.084  13.295   3.004
41382SOL    HW125920  11.149  13.365   2.992
41382SOL    HW225921  11.027  13.301   2.928
41383SOL     OW25922   4.753   5.733  14.405
41383SOL    HW125923   4.721   5.657  14.356
41383SOL    HW225924   4.845   5.741  14.379
41384SOL     OW25925   5.799   2.008  12.344
41384SOL    HW125926   5.759   2.032  12.428
41384SOL    HW225927   5.790   2.087  12.290
41385SOL     OW25928   5.363  10.444   9.746
41385SOL    HW125929   5.380  10.537   9.728
41385SOL    HW225930   5.433  10.418   9.806
41386SOL     OW25931   3.092  10.889  11.178
41386SOL    HW125932   3.067  10.950  11.248
41386SOL    HW225933   3.104  10.805  11.223
41387SOL     OW25934   8.384   0.483   6.670
41387SOL    HW125935   8.372   0.558   6.612
41387SOL    HW225936   8.345   0.410   6.623
41388SOL     OW25937  14.287  10.087  14.042
41388SOL    HW125938  14.294  10.027  14.117
41388SOL    HW225939  14.371  10.133  14.040
41389SOL     OW25940  10.570  13.299   8.372
41389SOL    HW125941  10.558  13.341   8.286
41389SOL    HW225942  10.659  13.262   8.368
41390SOL     OW25943   2.844   9.093   2.129
41390SOL    HW125944   2.767   9.151   2.129
41390SOL    HW225945   2.879   9.099   2.040
41391SOL     OW25946   7.910  13.242   2.372
41391SOL    HW125947   7.916  13.148   2.354
41391SOL    HW225948   7.957  13.283   2.299
41392SOL     OW25949  13.736   8.998   0.437
41392SOL    HW125950  13.742   8.913   0.480
41392SOL    HW225951  13.804   9.051   0.479
41393SOL     OW25952  10.606   0.952  14.561
41393SOL    HW125953  10.701   0.955  14.573
41393SOL    HW225954  10.585   1.033  14.516
41394SOL     OW25955   8.298   5.772  10.012
41394SOL    HW125956   8.283   5.831  10.085
41394SOL    HW225957   8.269   5.821   9.935
41395SOL     OW25958   6.805   3.143  12.926
41395SOL    HW125959   6.804   3.143  13.021
41395SOL    HW225960   6.880   3.087  12.903
41396SOL     OW25961   2.967   9.723   3.548
41396SOL    HW125962   3.050   9.754   3.583
41396SOL    HW225963   2.967   9.752   3.457
41397SOL     OW25964   1.257  14.247   0.252
41397SOL    HW125965   1.335  14.235   0.306
41397SOL    HW225966   1.288  14.296   0.176
41398SOL     OW25967   3.133   5.494   3.431
41398SOL    HW125968   3.087   5.578   3.436
41398SOL    HW225969   3.145   5.480   3.337
41399SOL     OW25970  11.226  11.240  10.719
41399SOL    HW125971  11.200  11.190  10.796
41399SOL    HW225972  11.165  11.213  10.651
41400SOL     OW25973   1.380   4.442   3.725
41400SOL    HW125974   1.410   4.533   3.735
41400SOL    HW225975   1.332   4.442   3.642
41401SOL     OW25976   2.424  11.043   5.732
41401SOL    HW125977   2.422  10.956   5.773
41401SOL    HW225978   2.517  11.063   5.724
41402SOL     OW25979   7.125   1.048   2.192
41402SOL    HW125980   7.103   1.136   2.222
41402SOL    HW225981   7.048   0.996   2.213
41403SOL     OW25982   5.172   3.088   7.243
41403SOL    HW125983   5.267   3.096   7.244
41403SOL    HW225984   5.152   3.022   7.309
41404SOL     OW25985   7.622  10.703   8.124
41404SOL    HW125986   7.563  10.760   8.172
41404SOL    HW225987   7.696  10.759   8.099
41405SOL     OW25988   4.415  12.845   9.539
41405SOL    HW125989   4.449  12.825   9.452
41405SOL    HW225990   4.352  12.916   9.525
41406SOL     OW25991   1.417  12.420  12.140
41406SOL    HW125992   1.376  12.408  12.055
41406SOL    HW225993   1.489  12.356  12.142
41407SOL     OW25994   6.584   8.169  13.547
41407SOL    HW125995   6.580   8.176  13.452
41407SOL    HW225996   6.588   8.075  13.565
41408SOL     OW25997   6.920   4.732  10.421
41408SOL    HW125998   7.008   4.712  10.451
41408SOL    HW225999   6.932   4.765  10.332
41409SOL     OW26000  12.527  11.941   3.200
41409SOL    HW126001  12.572  11.872   3.249
41409SOL    HW226002  12.588  11.966   3.131
41410SOL     OW26003  12.811   2.047   1.542
41410SOL    HW126004  12.738   1.990   1.518
41410SOL    HW226005  12.815   2.042   1.638
41411SOL     OW26006   8.649  13.561   1.396
41411SOL    HW126007   8.582  13.615   1.437
41411SOL    HW226008   8.710  13.540   1.466
41412SOL     OW26009   4.203   9.980   6.960
41412SOL    HW126010   4.183   9.942   7.046
41412SOL    HW226011   4.151   9.928   6.899
41413SOL     OW26012   1.010  14.716   8.532
41413SOL    HW126013   0.982  14.784   8.469
41413SOL    HW226014   0.983  14.750   8.617
41414SOL     OW26015  11.798  11.201   2.848
41414SOL    HW126016  11.766  11.225   2.761
41414SOL    HW226017  11.834  11.113   2.838
41415SOL     OW26018  13.235   4.618  12.761
41415SOL    HW126019  13.222   4.647  12.671
41415SOL    HW226020  13.147   4.597  12.792
41416SOL     OW26021   0.373   2.619  12.313
41416SOL    HW126022   0.353   2.602  12.221
41416SOL    HW226023   0.340   2.707  12.329
41417SOL     OW26024  11.330   9.230   9.620
41417SOL    HW126025  11.252   9.203   9.570
41417SOL    HW226026  11.351   9.317   9.586
41418SOL     OW26027  13.272   0.763  10.723
41418SOL    HW126028  13.204   0.821  10.756
41418SOL    HW226029  13.340   0.764  10.790
41419SOL     OW26030   7.226   3.433   6.718
41419SOL    HW126031   7.137   3.408   6.742
41419SOL    HW226032   7.281   3.361   6.749
41420SOL     OW26033   0.388   0.674   4.013
41420SOL    HW126034   0.347   0.754   3.980
41420SOL    HW226035   0.468   0.703   4.056
41421SOL     OW26036   1.752   7.557   3.896
41421SOL    HW126037   1.847   7.565   3.908
41421SOL    HW226038   1.717   7.550   3.985
41422SOL     OW26039  11.856  12.803   3.108
41422SOL    HW126040  11.803  12.808   3.187
41422SOL    HW226041  11.823  12.873   3.052
41423SOL     OW26042   1.259   8.142  10.584
41423SOL    HW126043   1.200   8.110  10.516
41423SOL    HW226044   1.305   8.215  10.543
41424SOL     OW26045  14.422   3.839  14.834
41424SOL    HW126046  14.487   3.873   0.014
41424SOL    HW226047  14.436   3.744  14.834
41425SOL     OW26048   0.634   9.214   6.310
41425SOL    HW126049   0.675   9.300   6.318
41425SOL    HW226050   0.617   9.186   6.400
41426SOL     OW26051  13.417   1.121   9.948
41426SOL    HW126052  13.417   1.027   9.967
41426SOL    HW226053  13.476   1.158  10.014
41427SOL     OW26054   3.900   3.697  12.528
41427SOL    HW126055   3.887   3.749  12.449
41427SOL    HW226056   3.990   3.664  12.520
41428SOL     OW26057  11.571   0.887  10.267
41428SOL    HW126058  11.562   0.904  10.173
41428SOL    HW226059  11.592   0.794  10.272
41429SOL     OW26060   8.439   6.188  11.597
41429SOL    HW126061   8.436   6.128  11.522
41429SOL    HW226062   8.531   6.192  11.622
41430SOL     OW26063   2.809   4.334  11.925
41430SOL    HW126064   2.893   4.359  11.885
41430SOL    HW226065   2.803   4.389  12.003
41431SOL     OW26066   6.282   9.504  11.093
41431SOL    HW126067   6.354   9.462  11.140
41431SOL    HW226068   6.259   9.442  11.024
41432SOL     OW26069   8.520   7.057   0.551
41432SOL    HW126070   8.504   6.980   0.606
41432SOL    HW226071   8.433   7.094   0.535
41433SOL     OW26072   1.913   6.519  13.774
41433SOL    HW126073   1.838   6.512  13.715
41433SOL    HW226074   1.881   6.486  13.858
41434SOL     OW26075  14.561   7.099  10.893
41434SOL    HW126076  14.580   7.147  10.974
41434SOL    HW226077  14.622   7.136  10.829
41435SOL     OW26078  10.819  12.024   2.722
41435SOL    HW126079  10.869  11.945   2.737
41435SOL    HW226080  10.852  12.087   2.786
41436SOL     OW26081  10.085  13.122  13.579
41436SOL    HW126082  10.088  13.090  13.669
41436SOL    HW226083  10.108  13.214  13.585
41437SOL     OW26084  14.077   3.230   1.733
41437SOL    HW126085  13.997   3.277   1.712
41437SOL    HW226086  14.093   3.250   1.826
41438SOL     OW26087  10.431   4.774   2.259
41438SOL    HW126088  10.407   4.774   2.352
41438SOL    HW226089  10.479   4.856   2.246
41439SOL     OW26090  12.920   2.807  10.119
41439SOL    HW126091  12.956   2.865  10.186
41439SOL    HW226092  12.860   2.750  10.166
41440SOL     OW26093   3.366   0.385   3.961
41440SOL    HW126094   3.409   0.313   4.007
41440SOL    HW226095   3.429   0.411   3.894
41441SOL     OW26096   8.025  14.125   5.774
41441SOL    HW126097   8.064  14.202   5.732
41441SOL    HW226098   7.988  14.158   5.856
41442SOL     OW26099   7.217   1.671  12.267
41442SOL    HW126100   7.150   1.691  12.201
41442SOL    HW226101   7.176   1.695  12.351
41443SOL     OW26102  11.220   1.990   7.218
41443SOL    HW126103  11.224   1.897   7.195
41443SOL    HW226104  11.218   2.035   7.134
41444SOL     OW26105   6.997   0.039   9.745
41444SOL    HW126106   6.953   0.124   9.750
41444SOL    HW226107   6.926  14.856   9.743
41445SOL     OW26108  14.869   8.050   3.681
41445SOL    HW126109  14.858   8.143   3.704
41445SOL    HW226110   0.005   8.051   3.587
41446SOL     OW26111  13.870   8.258   5.632
41446SOL    HW126112  13.888   8.299   5.716
41446SOL    HW226113  13.781   8.286   5.610
41447SOL     OW26114  10.868   8.257   9.225
41447SOL    HW126115  10.915   8.180   9.256
41447SOL    HW226116  10.835   8.232   9.139
41448SOL     OW26117  12.149  10.842   8.385
41448SOL    HW126118  12.145  10.919   8.328
41448SOL    HW226119  12.111  10.771   8.332
41449SOL     OW26120   4.686   1.985   0.857
41449SOL    HW126121   4.738   1.931   0.916
41449SOL    HW226122   4.646   2.051   0.914
41450SOL     OW26123   6.622  10.086   8.620
41450SOL    HW126124   6.606  10.144   8.694
41450SOL    HW226125   6.600  10.139   8.543
41451SOL     OW26126   2.321  12.197   1.591
41451SOL    HW126127   2.233  12.166   1.572
41451SOL    HW226128   2.364  12.201   1.506
41452SOL     OW26129   7.823   2.285   8.466
41452SOL    HW126130   7.767   2.267   8.542
41452SOL    HW226131   7.911   2.289   8.503
41453SOL     OW26132   4.982  12.292   1.511
41453SOL    HW126133   5.061  12.318   1.463
41453SOL    HW226134   4.941  12.374   1.536
41454SOL     OW26135   6.564  11.514  12.502
41454SOL    HW126136   6.562  11.601  12.543
41454SOL    HW226137   6.640  11.517  12.444
41455SOL     OW26138   9.496   9.752  11.331
41455SOL    HW126139   9.431   9.689  11.300
41455SOL    HW226140   9.447   9.812  11.387
41456SOL     OW26141   3.985   6.043  13.577
41456SOL    HW126142   3.951   5.954  13.588
41456SOL    HW226143   4.041   6.057  13.653
41457SOL     OW26144   3.259   1.658   0.252
41457SOL    HW126145   3.285   1.600   0.325
41457SOL    HW226146   3.247   1.744   0.293
41458SOL     OW26147  13.401   6.826   9.814
41458SOL    HW126148  13.441   6.834   9.727
41458SOL    HW226149  13.380   6.915   9.838
41459SOL     OW26150  14.532   5.937   3.707
41459SOL    HW126151  14.616   5.926   3.663
41459SOL    HW226152  14.551   5.994   3.781
41460SOL     OW26153   5.668   2.730   0.745
41460SOL    HW126154   5.673   2.724   0.840
41460SOL    HW226155   5.621   2.650   0.719
41461SOL     OW26156   0.378   7.527   9.796
41461SOL    HW126157   0.368   7.496   9.706
41461SOL    HW226158   0.304   7.488   9.843
41462SOL     OW26159   2.101  10.767  14.022
41462SOL    HW126160   2.077  10.794  13.933
41462SOL    HW226161   2.194  10.790  14.030
41463SOL     OW26162  10.907   7.748   8.851
41463SOL    HW126163  10.820   7.713   8.872
41463SOL    HW226164  10.915   7.827   8.905
41464SOL     OW26165   0.456  11.515   0.595
41464SOL    HW126166   0.420  11.596   0.632
41464SOL    HW226167   0.543  11.508   0.634
41465SOL     OW26168   0.550  14.694  13.179
41465SOL    HW126169   0.569  14.600  13.173
41465SOL    HW226170   0.469  14.700  13.230
41466SOL     OW26171  13.754   5.945   3.389
41466SOL    HW126172  13.804   5.980   3.462
41466SOL    HW226173  13.731   5.856   3.416
41467SOL     OW26174   0.789   5.970  12.174
41467SOL    HW126175   0.854   5.959  12.105
41467SOL    HW226176   0.836   6.012  12.246
41468SOL     OW26177  13.829  13.660  14.086
41468SOL    HW126178  13.766  13.712  14.035
41468SOL    HW226179  13.812  13.684  14.177
41469SOL     OW26180   2.094   9.381  12.266
41469SOL    HW126181   2.158   9.320  12.231
41469SOL    HW226182   2.121   9.466  12.231
41470SOL     OW26183   1.752  14.518   0.683
41470SOL    HW126184   1.680  14.521   0.746
41470SOL    HW226185   1.831  14.512   0.736
41471SOL     OW26186   3.709   9.766   7.512
41471SOL    HW126187   3.698   9.697   7.447
41471SOL    HW226188   3.798   9.755   7.544
41472SOL     OW26189  13.370   9.209   4.726
41472SOL    HW126190  13.421   9.139   4.686
41472SOL    HW226191  13.379   9.195   4.820
41473SOL     OW26192   2.663  14.468   7.565
41473SOL    HW126193   2.707  14.531   7.623
41473SOL    HW226194   2.572  14.467   7.595
41474SOL     OW26195   0.862  10.419  10.811
41474SOL    HW126196   0.820  10.397  10.728
41474SOL    HW226197   0.826  10.504  10.835
41475SOL     OW26198   9.417   8.639  10.310
41475SOL    HW126199   9.363   8.717  10.306
41475SOL    HW226200   9.401   8.595  10.226
41476SOL     OW26201  10.975   5.346   6.474
41476SOL    HW126202  10.959   5.431   6.516
41476SOL    HW226203  10.906   5.338   6.409
41477SOL     OW26204  13.148   5.320   0.395
41477SOL    HW126205  13.101   5.313   0.312
41477SOL    HW226206  13.238   5.343   0.369
41478SOL     OW26207   3.977  10.109   5.542
41478SOL    HW126208   4.006  10.079   5.628
41478SOL    HW226209   4.030  10.058   5.480
41479SOL     OW26210  11.561   1.818   2.189
41479SOL    HW126211  11.628   1.880   2.219
41479SOL    HW226212  11.478   1.861   2.211
41480SOL     OW26213  10.296   3.082   3.744
41480SOL    HW126214  10.216   3.034   3.723
41480SOL    HW226215  10.366   3.016   3.739
41481SOL     OW26216   9.684   8.397   1.387
41481SOL    HW126217   9.682   8.389   1.292
41481SOL    HW226218   9.592   8.392   1.414
41482SOL     OW26219  11.636   9.099  10.094
41482SOL    HW126220  11.684   9.178  10.071
41482SOL    HW226221  11.547   9.130  10.115
41483SOL     OW26222   1.663  12.442   1.379
41483SOL    HW126223   1.731  12.376   1.370
41483SOL    HW226224   1.636  12.461   1.289
41484SOL     OW26225   5.206   9.670   8.561
41484SOL    HW126226   5.141   9.717   8.613
41484SOL    HW226227   5.236   9.599   8.617
41485SOL     OW26228   4.187   3.609   6.813
41485SOL    HW126229   4.181   3.523   6.854
41485SOL    HW226230   4.280   3.620   6.792
41486SOL     OW26231   3.946   9.291   4.622
41486SOL    HW126232   3.870   9.317   4.570
41486SOL    HW226233   3.909   9.240   4.694
41487SOL     OW26234  11.386  13.532   5.549
41487SOL    HW126235  11.305  13.583   5.548
41487SOL    HW226236  11.372  13.463   5.484
41488SOL     OW26237   7.244  13.068   7.315
41488SOL    HW126238   7.328  13.026   7.333
41488SOL    HW226239   7.188  13.043   7.388
41489SOL     OW26240   2.607   3.531   1.707
41489SOL    HW126241   2.651   3.604   1.664
41489SOL    HW226242   2.561   3.486   1.636
41490SOL     OW26243   3.780   3.958   5.612
41490SOL    HW126244   3.764   3.986   5.702
41490SOL    HW226245   3.695   3.963   5.570
41491SOL     OW26246   6.246   5.481   7.135
41491SOL    HW126247   6.327   5.531   7.132
41491SOL    HW226248   6.264   5.403   7.082
41492SOL     OW26249   8.012  12.055  11.208
41492SOL    HW126250   8.084  12.003  11.244
41492SOL    HW226251   8.055  12.124  11.157
41493SOL     OW26252  14.772   0.284  13.474
41493SOL    HW126253  14.677   0.274  13.463
41493SOL    HW226254  14.781   0.351  13.542
41494SOL     OW26255   3.423   3.889   6.222
41494SOL    HW126256   3.449   3.810   6.174
41494SOL    HW226257   3.433   3.865   6.314
41495SOL     OW26258  10.435   3.646  13.413
41495SOL    HW126259  10.465   3.714  13.352
41495SOL    HW226260  10.341   3.642  13.399
41496SOL     OW26261  14.510  13.391  10.511
41496SOL    HW126262  14.441  13.325  10.501
41496SOL    HW226263  14.577  13.365  10.448
41497SOL     OW26264   2.591   4.788  10.543
41497SOL    HW126265   2.632   4.869  10.512
41497SOL    HW226266   2.618   4.722  10.480
41498SOL     OW26267  10.387  12.193   2.692
41498SOL    HW126268  10.407  12.170   2.601
41498SOL    HW226269  10.401  12.287   2.696
41499SOL     OW26270  12.513  11.004  11.349
41499SOL    HW126271  12.577  10.942  11.313
41499SOL    HW226272  12.527  11.001  11.443
41500SOL     OW26273  11.146   3.754   1.183
41500SOL    HW126274  11.136   3.808   1.261
41500SOL    HW226275  11.219   3.794   1.135
41501SOL     OW26276   4.762  12.981   4.073
41501SOL    HW126277   4.773  12.894   4.111
41501SOL    HW226278   4.825  12.984   4.001
41502SOL     OW26279   6.846   0.103  14.791
41502SOL    HW126280   6.840   0.008  14.789
41502SOL    HW226281   6.764   0.133  14.750
41503SOL     OW26282  10.323   0.221   4.716
41503SOL    HW126283  10.373   0.302   4.712
41503SOL    HW226284  10.331   0.192   4.807
41504SOL     OW26285  11.701   9.401   9.482
41504SOL    HW126286  11.781   9.415   9.431
41504SOL    HW226287  11.725   9.422   9.572
41505SOL     OW26288  13.589   4.183   7.557
41505SOL    HW126289  13.519   4.248   7.558
41505SOL    HW226290  13.637   4.199   7.476
41506SOL     OW26291  11.715   0.611  14.112
41506SOL    HW126292  11.766   0.672  14.165
41506SOL    HW226293  11.629   0.608  14.154
41507SOL     OW26294   1.911  12.113   3.460
41507SOL    HW126295   1.873  12.025   3.467
41507SOL    HW226296   1.923  12.126   3.366
41508SOL     OW26297   2.417  12.536   0.632
41508SOL    HW126298   2.441  12.449   0.600
41508SOL    HW226299   2.499  12.574   0.663
41509SOL     OW26300   1.680   1.880   8.755
41509SOL    HW126301   1.599   1.918   8.789
41509SOL    HW226302   1.668   1.785   8.766
41510SOL     OW26303   1.365  11.631   0.160
41510SOL    HW126304   1.396  11.671   0.078
41510SOL    HW226305   1.278  11.597   0.138
41511SOL     OW26306  13.836  12.134  14.860
41511SOL    HW126307  13.857  12.045  14.831
41511SOL    HW226308  13.807  12.122   0.070
41512SOL     OW26309   9.406   2.946   7.878
41512SOL    HW126310   9.440   3.028   7.915
41512SOL    HW226311   9.473   2.918   7.816
41513SOL     OW26312   8.314   3.058  13.788
41513SOL    HW126313   8.366   3.009  13.725
41513SOL    HW226314   8.303   2.998  13.862
41514SOL     OW26315  11.019   0.306  14.528
41514SOL    HW126316  10.949   0.248  14.499
41514SOL    HW226317  11.065   0.256  14.595
41515SOL     OW26318   5.346   2.486  10.652
41515SOL    HW126319   5.429   2.443  10.630
41515SOL    HW226320   5.301   2.422  10.707
41516SOL     OW26321   0.623  11.282   2.915
41516SOL    HW126322   0.559  11.291   2.845
41516SOL    HW226323   0.605  11.197   2.954
41517SOL     OW26324  12.835   2.456   8.589
41517SOL    HW126325  12.845   2.368   8.627
41517SOL    HW226326  12.817   2.512   8.664
41518SOL     OW26327  14.423  13.826   5.761
41518SOL    HW126328  14.405  13.771   5.685
41518SOL    HW226329  14.337  13.852   5.793
41519SOL     OW26330   8.557   1.310  11.879
41519SOL    HW126331   8.573   1.261  11.960
41519SOL    HW226332   8.587   1.399  11.899
41520SOL     OW26333  11.004  12.702  11.743
41520SOL    HW126334  10.987  12.615  11.709
41520SOL    HW226335  11.095  12.699  11.773
41521SOL     OW26336   4.426   8.504  12.939
41521SOL    HW126337   4.503   8.551  12.970
41521SOL    HW226338   4.378   8.480  13.019
41522SOL     OW26339   4.523   3.713   4.644
41522SOL    HW126340   4.530   3.713   4.548
41522SOL    HW226341   4.597   3.765   4.673
41523SOL     OW26342  11.519   5.735   9.470
41523SOL    HW126343  11.564   5.697   9.546
41523SOL    HW226344  11.517   5.664   9.406
41524SOL     OW26345  10.405   6.740  11.462
41524SOL    HW126346  10.463   6.707  11.393
41524SOL    HW226347  10.454   6.812  11.502
41525SOL     OW26348   6.642   1.357   2.402
41525SOL    HW126349   6.687   1.440   2.386
41525SOL    HW226350   6.569   1.381   2.460
41526SOL     OW26351   6.475   1.833  14.178
41526SOL    HW126352   6.564   1.863  14.195
41526SOL    HW226353   6.474   1.812  14.084
41527SOL     OW26354  10.732  11.249   6.413
41527SOL    HW126355  10.687  11.204   6.342
41527SOL    HW226356  10.823  11.221   6.405
41528SOL     OW26357  14.804  13.202   5.672
41528SOL    HW126358   0.015  13.197   5.693
41528SOL    HW226359  14.772  13.277   5.724
41529SOL     OW26360   3.962  14.704   1.988
41529SOL    HW126361   4.039  14.748   2.025
41529SOL    HW226362   3.892  14.769   1.994
41530SOL     OW26363   3.271   8.294   0.589
41530SOL    HW126364   3.350   8.347   0.577
41530SOL    HW226365   3.231   8.290   0.503
41531SOL     OW26366   1.891   8.634   0.847
41531SOL    HW126367   1.866   8.581   0.772
41531SOL    HW226368   1.986   8.630   0.849
41532SOL     OW26369   4.970   5.077   4.661
41532SOL    HW126370   5.062   5.064   4.684
41532SOL    HW226371   4.960   5.036   4.575
41533SOL     OW26372  10.954   1.657   9.540
41533SOL    HW126373  11.002   1.606   9.474
41533SOL    HW226374  11.020   1.682   9.604
41534SOL     OW26375   2.042   5.507   7.941
41534SOL    HW126376   2.032   5.412   7.943
41534SOL    HW226377   2.103   5.527   8.012
41535SOL     OW26378   8.562   1.988   9.254
41535SOL    HW126379   8.629   1.989   9.186
41535SOL    HW226380   8.547   1.896   9.272
41536SOL     OW26381  12.075   3.421   4.404
41536SOL    HW126382  11.989   3.434   4.444
41536SOL    HW226383  12.137   3.425   4.477
41537SOL     OW26384   3.926  14.535   9.705
41537SOL    HW126385   3.876  14.603   9.750
41537SOL    HW226386   3.861  14.485   9.656
41538SOL     OW26387   5.969   9.584   8.009
41538SOL    HW126388   5.917   9.537   8.074
41538SOL    HW226389   6.015   9.515   7.961
41539SOL     OW26390   1.845  14.521  10.464
41539SOL    HW126391   1.878  14.433  10.447
41539SOL    HW226392   1.768  14.529  10.407
41540SOL     OW26393   4.394   7.568   0.337
41540SOL    HW126394   4.307   7.607   0.336
41540SOL    HW226395   4.428   7.587   0.424
41541SOL     OW26396   2.206   4.516   7.781
41541SOL    HW126397   2.248   4.480   7.703
41541SOL    HW226398   2.203   4.442   7.842
41542SOL     OW26399   1.807   2.534   3.623
41542SOL    HW126400   1.727   2.535   3.570
41542SOL    HW226401   1.780   2.568   3.708
41543SOL     OW26402   5.281  11.081  14.087
41543SOL    HW126403   5.370  11.116  14.084
41543SOL    HW226404   5.242  11.121  14.165
41544SOL     OW26405  13.762  11.641   4.648
41544SOL    HW126406  13.783  11.550   4.624
41544SOL    HW226407  13.828  11.693   4.602
41545SOL     OW26408   7.904   0.160   8.987
41545SOL    HW126409   7.989   0.116   8.976
41545SOL    HW226410   7.892   0.166   9.082
41546SOL     OW26411   5.803   9.754   7.853
41546SOL    HW126412   5.883   9.721   7.895
41546SOL    HW226413   5.733   9.702   7.891
41547SOL     OW26414   8.675  14.612   9.795
41547SOL    HW126415   8.694  14.524   9.830
41547SOL    HW226416   8.759  14.644   9.763
41548SOL     OW26417   3.576   5.609   5.072
41548SOL    HW126418   3.637   5.565   5.131
41548SOL    HW226419   3.536   5.538   5.021
41549SOL     OW26420   3.850   8.358   9.462
41549SOL    HW126421   3.942   8.384   9.463
41549SOL    HW226422   3.852   8.263   9.474
41550SOL     OW26423   0.023   0.351   2.794
41550SOL    HW126424   0.087   0.416   2.822
41550SOL    HW226425   0.075   0.271   2.782
41551SOL     OW26426   6.391  14.334   9.693
41551SOL    HW126427   6.364  14.243   9.706
41551SOL    HW226428   6.397  14.370   9.782
41552SOL     OW26429  14.792   2.179   0.629
41552SOL    HW126430  14.762   2.092   0.601
41552SOL    HW226431   0.005   2.177   0.617
41553SOL     OW26432   7.909   1.558   6.518
41553SOL    HW126433   7.891   1.525   6.430
41553SOL    HW226434   7.998   1.527   6.537
41554SOL     OW26435   4.877   5.372   4.265
41554SOL    HW126436   4.814   5.377   4.193
41554SOL    HW226437   4.961   5.392   4.224
41555SOL     OW26438  14.710  10.050  12.341
41555SOL    HW126439  14.714   9.958  12.366
41555SOL    HW226440  14.676  10.094  12.419
41556SOL     OW26441   2.867   8.182  10.741
41556SOL    HW126442   2.961   8.197  10.746
41556SOL    HW226443   2.859   8.089  10.718
41557SOL     OW26444  13.293  12.672   8.007
41557SOL    HW126445  13.366  12.734   8.016
41557SOL    HW226446  13.290  12.628   8.092
41558SOL     OW26447   9.247   9.339   4.253
41558SOL    HW126448   9.173   9.293   4.292
41558SOL    HW226449   9.233   9.332   4.159
41559SOL     OW26450   0.905   3.570  12.835
41559SOL    HW126451   0.999   3.568  12.853
41559SOL    HW226452   0.894   3.639  12.769
41560SOL     OW26453  11.812   6.602  14.499
41560SOL    HW126454  11.827   6.641  14.584
41560SOL    HW226455  11.884   6.634  14.444
41561SOL     OW26456   5.025  10.433   6.077
41561SOL    HW126457   4.976  10.497   6.025
41561SOL    HW226458   5.020  10.467   6.167
41562SOL     OW26459  12.599   1.728   5.977
41562SOL    HW126460  12.684   1.712   6.018
41562SOL    HW226461  12.605   1.818   5.944
41563SOL     OW26462   2.578   6.625  11.928
41563SOL    HW126463   2.566   6.535  11.897
41563SOL    HW226464   2.620   6.615  12.013
41564SOL     OW26465   8.059   0.725   6.905
41564SOL    HW126466   7.970   0.709   6.875
41564SOL    HW226467   8.052   0.740   6.999
41565SOL     OW26468   9.706   6.187  14.763
41565SOL    HW126469   9.778   6.211  14.704
41565SOL    HW226470   9.643   6.259  14.754
41566SOL     OW26471   0.344   8.218   5.447
41566SOL    HW126472   0.332   8.137   5.397
41566SOL    HW226473   0.332   8.192   5.538
41567SOL     OW26474   1.203   1.080   2.805
41567SOL    HW126475   1.116   1.119   2.797
41567SOL    HW226476   1.249   1.137   2.868
41568SOL     OW26477   2.921  14.508   4.523
41568SOL    HW126478   3.012  14.537   4.518
41568SOL    HW226479   2.919  14.426   4.474
41569SOL     OW26480  10.126   5.264   4.983
41569SOL    HW126481  10.163   5.224   5.063
41569SOL    HW226482  10.184   5.235   4.913
41570SOL     OW26483   9.057   4.317   2.200
41570SOL    HW126484   9.123   4.329   2.268
41570SOL    HW226485   9.060   4.398   2.148
41571SOL     OW26486  10.683   7.501   8.222
41571SOL    HW126487  10.600   7.464   8.193
41571SOL    HW226488  10.659   7.570   8.284
41572SOL     OW26489  10.906   5.567   2.468
41572SOL    HW126490  10.926   5.597   2.557
41572SOL    HW226491  10.885   5.474   2.478
41573SOL     OW26492   3.497   7.233   7.990
41573SOL    HW126493   3.403   7.249   7.981
41573SOL    HW226494   3.504   7.164   8.055
41574SOL     OW26495   7.669   3.364  10.188
41574SOL    HW126496   7.635   3.306  10.120
41574SOL    HW226497   7.716   3.432  10.140
41575SOL     OW26498  14.022  13.752  13.747
41575SOL    HW126499  13.991  13.842  13.734
41575SOL    HW226500  14.014  13.711  13.661
41576SOL     OW26501  11.245  12.238   6.370
41576SOL    HW126502  11.173  12.235   6.433
41576SOL    HW226503  11.219  12.176   6.301
41577SOL     OW26504   3.008   6.774  13.174
41577SOL    HW126505   3.027   6.746  13.264
41577SOL    HW226506   2.972   6.697  13.132
41578SOL     OW26507   2.597  13.537   2.985
41578SOL    HW126508   2.521  13.592   3.006
41578SOL    HW226509   2.618  13.494   3.068
41579SOL     OW26510   3.620  11.285   6.083
41579SOL    HW126511   3.598  11.193   6.098
41579SOL    HW226512   3.605  11.327   6.168
41580SOL     OW26513   9.868   8.047   0.477
41580SOL    HW126514   9.817   7.966   0.468
41580SOL    HW226515   9.959   8.019   0.470
41581SOL     OW26516  13.137   1.449   8.529
41581SOL    HW126517  13.052   1.421   8.495
41581SOL    HW226518  13.200   1.415   8.466
41582SOL     OW26519   1.516   6.620   8.418
41582SOL    HW126520   1.480   6.708   8.405
41582SOL    HW226521   1.585   6.632   8.483
41583SOL     OW26522   2.935  11.701  11.166
41583SOL    HW126523   2.962  11.651  11.243
41583SOL    HW226524   2.995  11.776  11.163
41584SOL     OW26525   6.693   3.921  10.301
41584SOL    HW126526   6.680   4.015  10.295
41584SOL    HW226527   6.614   3.884  10.261
41585SOL     OW26528   3.973   1.291   5.602
41585SOL    HW126529   4.063   1.294   5.634
41585SOL    HW226530   3.974   1.342   5.521
41586SOL     OW26531   8.477  10.803  10.567
41586SOL    HW126532   8.556  10.757  10.595
41586SOL    HW226533   8.441  10.749  10.497
41587SOL     OW26534   0.001   1.671  12.327
41587SOL    HW126535   0.088   1.632  12.328
41587SOL    HW226536   0.007   1.740  12.261
41588SOL     OW26537   1.365   2.725  12.810
41588SOL    HW126538   1.355   2.803  12.864
41588SOL    HW226539   1.417   2.665  12.863
41589SOL     OW26540   0.708   5.202  10.860
41589SOL    HW126541   0.626   5.174  10.901
41589SOL    HW226542   0.713   5.296  10.877
41590SOL     OW26543   2.183  12.583   2.958
41590SOL    HW126544   2.094  12.592   2.925
41590SOL    HW226545   2.202  12.490   2.952
41591SOL     OW26546   9.816   0.231   4.934
41591SOL    HW126547   9.885   0.193   4.989
41591SOL    HW226548   9.862   0.261   4.856
41592SOL     OW26549   9.141   9.053   1.057
41592SOL    HW126550   9.087   9.132   1.062
41592SOL    HW226551   9.178   9.043   1.144
41593SOL     OW26552  11.265   0.795   7.690
41593SOL    HW126553  11.220   0.853   7.628
41593SOL    HW226554  11.305   0.728   7.634
41594SOL     OW26555   1.229  11.884  12.065
41594SOL    HW126556   1.251  11.792  12.049
41594SOL    HW226557   1.138  11.892  12.039
41595SOL     OW26558   2.037   2.771   7.141
41595SOL    HW126559   2.047   2.838   7.073
41595SOL    HW226560   2.101   2.796   7.207
41596SOL     OW26561   7.443   5.454   0.182
41596SOL    HW126562   7.357   5.478   0.218
41596SOL    HW226563   7.427   5.439   0.089
41597SOL     OW26564   0.062   2.009   5.561
41597SOL    HW126565   0.095   2.095   5.586
41597SOL    HW226566  14.848   2.018   5.564
41598SOL     OW26567  14.246  11.086   4.947
41598SOL    HW126568  14.231  11.179   4.960
41598SOL    HW226569  14.224  11.046   5.031
41599SOL     OW26570  13.637  10.063   2.077
41599SOL    HW126571  13.668   9.985   2.124
41599SOL    HW226572  13.631  10.035   1.985
41600SOL     OW26573   5.348   8.699   6.027
41600SOL    HW126574   5.357   8.633   6.095
41600SOL    HW226575   5.421   8.683   5.968
41601SOL     OW26576  14.700   3.004   6.059
41601SOL    HW126577  14.767   2.965   6.003
41601SOL    HW226578  14.746   3.075   6.104
41602SOL     OW26579   0.086   4.085   4.408
41602SOL    HW126580   0.051   4.163   4.450
41602SOL    HW226581   0.078   4.016   4.474
41603SOL     OW26582  14.630   3.517   2.702
41603SOL    HW126583  14.593   3.513   2.790
41603SOL    HW226584  14.666   3.606   2.696
41604SOL     OW26585   3.763  12.561   7.104
41604SOL    HW126586   3.691  12.565   7.168
41604SOL    HW226587   3.736  12.493   7.042
41605SOL     OW26588   5.792  11.753   2.437
41605SOL    HW126589   5.854  11.719   2.373
41605SOL    HW226590   5.745  11.822   2.391
41606SOL     OW26591   4.482   8.180  14.102
41606SOL    HW126592   4.407   8.240  14.100
41606SOL    HW226593   4.531   8.205  14.180
41607SOL     OW26594   3.138   4.197  10.261
41607SOL    HW126595   3.068   4.134  10.243
41607SOL    HW226596   3.219   4.147  10.249
41608SOL     OW26597  10.661   5.988   0.164
41608SOL    HW126598  10.733   5.941   0.121
41608SOL    HW226599  10.692   6.002   0.253
41609SOL     OW26600  13.505   4.368   9.818
41609SOL    HW126601  13.565   4.303   9.855
41609SOL    HW226602  13.423   4.353   9.864
41610SOL     OW26603  12.396   4.602  11.848
41610SOL    HW126604  12.378   4.654  11.770
41610SOL    HW226605  12.491   4.587  11.846
41611SOL     OW26606   7.496   4.244  10.365
41611SOL    HW126607   7.474   4.171  10.422
41611SOL    HW226608   7.423   4.249  10.303
41612SOL     OW26609  14.720   9.994  14.327
41612SOL    HW126610  14.795   9.972  14.272
41612SOL    HW226611  14.715  10.089  14.324
41613SOL     OW26612   2.802   4.367   8.539
41613SOL    HW126613   2.805   4.361   8.634
41613SOL    HW226614   2.769   4.455   8.521
41614SOL     OW26615  13.477   6.166  12.034
41614SOL    HW126616  13.476   6.255  12.069
41614SOL    HW226617  13.385   6.144  12.022
41615SOL     OW26618   8.616   2.107   2.343
41615SOL    HW126619   8.670   2.131   2.267
41615SOL    HW226620   8.612   2.012   2.339
41616SOL     OW26621  13.055  12.138   6.972
41616SOL    HW126622  12.989  12.179   7.028
41616SOL    HW226623  13.139  12.161   7.011
41617SOL     OW26624  11.126   2.755   8.334
41617SOL    HW126625  11.114   2.715   8.247
41617SOL    HW226626  11.153   2.682   8.390
41618SOL     OW26627  12.427  14.585   1.757
41618SOL    HW126628  12.418  14.519   1.688
41618SOL    HW226629  12.376  14.550   1.830
41619SOL     OW26630  11.710   6.900  12.158
41619SOL    HW126631  11.756   6.839  12.101
41619SOL    HW226632  11.619   6.873  12.154
41620SOL     OW26633  13.465   0.362   7.875
41620SOL    HW126634  13.392   0.302   7.890
41620SOL    HW226635  13.511   0.365   7.958
41621SOL     OW26636  10.157   2.406  12.112
41621SOL    HW126637  10.210   2.325  12.113
41621SOL    HW226638  10.221   2.475  12.095
41622SOL     OW26639  13.232   5.797   7.106
41622SOL    HW126640  13.319   5.781   7.071
41622SOL    HW226641  13.180   5.827   7.031
41623SOL     OW26642   2.704  14.291   9.080
41623SOL    HW126643   2.722  14.268   8.989
41623SOL    HW226644   2.634  14.230   9.107
41624SOL     OW26645   1.671   7.487  13.051
41624SOL    HW126646   1.600   7.538  13.011
41624SOL    HW226647   1.654   7.397  13.025
41625SOL     OW26648  12.966  14.826   3.964
41625SOL    HW126649  12.887  14.856   3.920
41625SOL    HW226650  12.995  14.750   3.914
41626SOL     OW26651  14.756  13.982   2.645
41626SOL    HW126652  14.737  14.044   2.716
41626SOL    HW226653  14.672  13.971   2.600
41627SOL     OW26654   8.562   5.121   6.861
41627SOL    HW126655   8.618   5.166   6.923
41627SOL    HW226656   8.586   5.157   6.776
41628SOL     OW26657  13.160   1.212  12.446
41628SOL    HW126658  13.101   1.164  12.504
41628SOL    HW226659  13.178   1.294  12.492
41629SOL     OW26660   1.717   4.467   5.837
41629SOL    HW126661   1.648   4.524   5.802
41629SOL    HW226662   1.793   4.524   5.843
41630SOL     OW26663  13.557   2.576   3.252
41630SOL    HW126664  13.551   2.609   3.341
41630SOL    HW226665  13.493   2.505   3.248
41631SOL     OW26666   6.626   0.293   8.158
41631SOL    HW126667   6.577   0.307   8.240
41631SOL    HW226668   6.573   0.229   8.110
41632SOL     OW26669   2.865   9.594   8.719
41632SOL    HW126670   2.884   9.601   8.812
41632SOL    HW226671   2.913   9.667   8.679
41633SOL     OW26672  12.784   1.237  12.505
41633SOL    HW126673  12.829   1.203  12.428
41633SOL    HW226674  12.775   1.331  12.488
41634SOL     OW26675   6.395   4.150   9.472
41634SOL    HW126676   6.370   4.064   9.439
41634SOL    HW226677   6.482   4.166   9.434
41635SOL     OW26678  13.458   3.732  12.203
41635SOL    HW126679  13.378   3.739  12.254
41635SOL    HW226680  13.528   3.756  12.264
41636SOL     OW26681  10.937  11.198   3.145
41636SOL    HW126682  10.910  11.157   3.227
41636SOL    HW226683  10.901  11.286   3.149
41637SOL     OW26684  10.179   3.091   2.553
41637SOL    HW126685  10.088   3.116   2.570
41637SOL    HW226686  10.173   3.003   2.515
41638SOL     OW26687   5.520   3.199   7.407
41638SOL    HW126688   5.519   3.272   7.345
41638SOL    HW226689   5.605   3.208   7.451
41639SOL     OW26690   2.663   1.251   8.148
41639SOL    HW126691   2.609   1.256   8.227
41639SOL    HW226692   2.606   1.286   8.079
41640SOL     OW26693   6.421   3.352   1.240
41640SOL    HW126694   6.457   3.411   1.305
41640SOL    HW226695   6.484   3.354   1.168
41641SOL     OW26696  12.748   4.084   2.722
41641SOL    HW126697  12.659   4.077   2.756
41641SOL    HW226698  12.738   4.079   2.627
41642SOL     OW26699   4.422  12.031   8.204
41642SOL    HW126700   4.399  12.120   8.233
41642SOL    HW226701   4.359  11.975   8.250
41643SOL     OW26702   8.463   1.353   2.792
41643SOL    HW126703   8.520   1.283   2.823
41643SOL    HW226704   8.375   1.324   2.816
41644SOL     OW26705  13.616  12.342  10.131
41644SOL    HW126706  13.649  12.397  10.059
41644SOL    HW226707  13.676  12.268  10.134
41645SOL     OW26708   4.722   8.296   5.470
41645SOL    HW126709   4.739   8.348   5.391
41645SOL    HW226710   4.771   8.215   5.456
41646SOL     OW26711  13.188   0.891  10.475
41646SOL    HW126712  13.261   0.943  10.442
41646SOL    HW226713  13.223   0.844  10.550
41647SOL     OW26714   7.020   6.993  11.132
41647SOL    HW126715   7.043   7.023  11.220
41647SOL    HW226716   7.084   7.036  11.075
41648SOL     OW26717   3.413  12.129  11.999
41648SOL    HW126718   3.417  12.034  12.011
41648SOL    HW226719   3.437  12.164  12.085
41649SOL     OW26720   9.157   2.642   8.848
41649SOL    HW126721   9.250   2.634   8.826
41649SOL    HW226722   9.142   2.736   8.853
41650SOL     OW26723   3.753   6.566   4.890
41650SOL    HW126724   3.838   6.570   4.934
41650SOL    HW226725   3.733   6.473   4.883
41651SOL     OW26726   4.899  14.226   7.951
41651SOL    HW126727   4.989  14.196   7.940
41651SOL    HW226728   4.906  14.304   8.007
41652SOL     OW26729   1.812   5.718   1.902
41652SOL    HW126730   1.748   5.770   1.949
41652SOL    HW226731   1.762   5.646   1.863
41653SOL     OW26732  12.865   2.255   0.510
41653SOL    HW126733  12.947   2.230   0.551
41653SOL    HW226734  12.863   2.204   0.428
41654SOL     OW26735  14.826   7.697  10.620
41654SOL    HW126736   0.009   7.628  10.637
41654SOL    HW226737  14.751   7.673  10.674
41655SOL     OW26738  14.312  14.477   8.555
41655SOL    HW126739  14.347  14.437   8.634
41655SOL    HW226740  14.385  14.525   8.517
41656SOL     OW26741  10.002   2.578  14.310
41656SOL    HW126742   9.921   2.572  14.258
41656SOL    HW226743  10.057   2.507  14.277
41657SOL     OW26744   7.716   4.171   7.223
41657SOL    HW126745   7.719   4.149   7.130
41657SOL    HW226746   7.711   4.087   7.268
41658SOL     OW26747  14.881   7.437   4.963
41658SOL    HW126748  14.805   7.441   4.905
41658SOL    HW226749  14.844   7.419   5.050
41659SOL     OW26750   0.552   4.902   9.077
41659SOL    HW126751   0.552   4.968   9.008
41659SOL    HW226752   0.524   4.950   9.156
41660SOL     OW26753   6.124   8.597   5.843
41660SOL    HW126754   6.135   8.600   5.748
41660SOL    HW226755   6.042   8.643   5.859
41661SOL     OW26756   9.213  10.550  13.133
41661SOL    HW126757   9.120  10.531  13.143
41661SOL    HW226758   9.225  10.563  13.039
41662SOL     OW26759   2.726   5.733  12.039
41662SOL    HW126760   2.792   5.688  11.986
41662SOL    HW226761   2.652   5.672  12.044
41663SOL     OW26762   4.588  11.895   0.952
41663SOL    HW126763   4.640  11.938   1.021
41663SOL    HW226764   4.590  11.802   0.974
41664SOL     OW26765  14.629   6.604   3.694
41664SOL    HW126766  14.677   6.686   3.704
41664SOL    HW226767  14.579   6.615   3.613
41665SOL     OW26768   3.333   8.576   5.630
41665SOL    HW126769   3.261   8.609   5.577
41665SOL    HW226770   3.314   8.607   5.719
41666SOL     OW26771   5.477   1.591   9.300
41666SOL    HW126772   5.563   1.619   9.334
41666SOL    HW226773   5.448   1.665   9.247
41667SOL     OW26774  12.753   8.090   7.980
41667SOL    HW126775  12.764   7.995   7.978
41667SOL    HW226776  12.824   8.124   7.926
41668SOL     OW26777   0.482  12.830  11.079
41668SOL    HW126778   0.574  12.856  11.070
41668SOL    HW226779   0.484  12.735  11.082
41669SOL     OW26780  13.252   1.711  12.593
41669SOL    HW126781  13.177   1.767  12.572
41669SOL    HW226782  13.307   1.713  12.514
41670SOL     OW26783   0.990   0.642   3.364
41670SOL    HW126784   1.044   0.602   3.297
41670SOL    HW226785   1.051   0.665   3.434
41671SOL     OW26786  14.793   8.519   7.068
41671SOL    HW126787  14.873   8.566   7.091
41671SOL    HW226788  14.749   8.505   7.151
41672SOL     OW26789   1.695  11.597   2.563
41672SOL    HW126790   1.693  11.692   2.558
41672SOL    HW226791   1.607  11.572   2.590
41673SOL     OW26792   6.880   6.138   2.676
41673SOL    HW126793   6.850   6.104   2.761
41673SOL    HW226794   6.860   6.232   2.680
41674SOL     OW26795   7.067   6.809   5.414
41674SOL    HW126796   7.081   6.735   5.355
41674SOL    HW226797   7.074   6.886   5.359
41675SOL     OW26798  11.268   2.335   6.983
41675SOL    HW126799  11.268   2.245   6.952
41675SOL    HW226800  11.180   2.366   6.967
41676SOL     OW26801  10.383   3.413   1.802
41676SOL    HW126802  10.314   3.373   1.854
41676SOL    HW226803  10.382   3.366   1.719
41677SOL     OW26804   5.770   9.889  10.867
41677SOL    HW126805   5.747   9.865  10.778
41677SOL    HW226806   5.835   9.823  10.894
41678SOL     OW26807  12.825   4.389   8.426
41678SOL    HW126808  12.739   4.358   8.398
41678SOL    HW226809  12.833   4.358   8.517
41679SOL     OW26810   0.603  12.853  10.297
41679SOL    HW126811   0.691  12.878  10.328
41679SOL    HW226812   0.595  12.898  10.213
41680SOL     OW26813   3.925   6.004  12.433
41680SOL    HW126814   4.005   5.953  12.439
41680SOL    HW226815   3.955   6.093  12.415
41681SOL     OW26816   7.164   8.640   2.148
41681SOL    HW126817   7.203   8.716   2.190
41681SOL    HW226818   7.096   8.610   2.209
41682SOL     OW26819  13.936  14.390   1.441
41682SOL    HW126820  13.966  14.370   1.529
41682SOL    HW226821  13.847  14.423   1.452
41683SOL     OW26822  13.233   1.377   3.734
41683SOL    HW126823  13.273   1.449   3.782
41683SOL    HW226824  13.301   1.309   3.733
41684SOL     OW26825   4.643   5.379   3.371
41684SOL    HW126826   4.569   5.318   3.373
41684SOL    HW226827   4.649   5.413   3.460
41685SOL     OW26828  14.102   5.325  10.415
41685SOL    HW126829  14.158   5.322  10.338
41685SOL    HW226830  14.015   5.347  10.380
41686SOL     OW26831   5.402   8.246   8.952
41686SOL    HW126832   5.479   8.218   9.002
41686SOL    HW226833   5.439   8.302   8.883
41687SOL     OW26834   3.296   3.369   1.839
41687SOL    HW126835   3.229   3.432   1.813
41687SOL    HW226836   3.350   3.415   1.903
41688SOL     OW26837   1.297  10.070   6.352
41688SOL    HW126838   1.334  10.140   6.298
41688SOL    HW226839   1.208  10.098   6.370
41689SOL     OW26840   8.873  10.258  13.751
41689SOL    HW126841   8.831  10.255  13.665
41689SOL    HW226842   8.966  10.254  13.732
41690SOL     OW26843   1.319  11.032  10.511
41690SOL    HW126844   1.241  11.066  10.468
41690SOL    HW226845   1.287  10.991  10.591
41691SOL     OW26846   6.717   1.552   4.787
41691SOL    HW126847   6.655   1.570   4.858
41691SOL    HW226848   6.729   1.457   4.788
41692SOL     OW26849  12.529  10.379   0.930
41692SOL    HW126850  12.562  10.291   0.944
41692SOL    HW226851  12.442  10.379   0.970
41693SOL     OW26852   7.596  10.752  13.962
41693SOL    HW126853   7.597  10.658  13.979
41693SOL    HW226854   7.532  10.787  14.023
41694SOL     OW26855  12.525  10.062  14.826
41694SOL    HW126856  12.583  10.042  14.753
41694SOL    HW226857  12.443  10.089  14.785
41695SOL     OW26858   3.761   0.455   7.308
41695SOL    HW126859   3.727   0.517   7.243
41695SOL    HW226860   3.819   0.397   7.259
41696SOL     OW26861   1.392   2.082   5.077
41696SOL    HW126862   1.300   2.105   5.083
41696SOL    HW226863   1.393   1.996   5.034
41697SOL     OW26864   1.811   6.123  14.365
41697SOL    HW126865   1.735   6.112  14.421
41697SOL    HW226866   1.866   6.047  14.382
41698SOL     OW26867  13.469   6.992  13.994
41698SOL    HW126868  13.407   6.920  13.982
41698SOL    HW226869  13.550   6.949  14.025
41699SOL     OW26870  12.946   8.908  10.821
41699SOL    HW126871  13.042   8.905  10.827
41699SOL    HW226872  12.928   8.976  10.756
41700SOL     OW26873  12.697   2.086   3.191
41700SOL    HW126874  12.639   2.160   3.172
41700SOL    HW226875  12.783   2.116   3.162
41701SOL     OW26876   9.255  12.416  10.334
41701SOL    HW126877   9.284  12.348  10.395
41701SOL    HW226878   9.328  12.427  10.273
41702SOL     OW26879   1.589   0.682   5.031
41702SOL    HW126880   1.512   0.651   5.080
41702SOL    HW226881   1.663   0.665   5.089
41703SOL     OW26882   0.504  10.382  11.633
41703SOL    HW126883   0.522  10.291  11.654
41703SOL    HW226884   0.419  10.381  11.589
41704SOL     OW26885   5.934   2.769   3.776
41704SOL    HW126886   5.957   2.836   3.840
41704SOL    HW226887   6.012   2.714   3.770
41705SOL     OW26888   1.826   2.897   1.873
41705SOL    HW126889   1.781   2.981   1.865
41705SOL    HW226890   1.826   2.879   1.967
41706SOL     OW26891  10.302   1.339  10.177
41706SOL    HW126892  10.252   1.342  10.259
41706SOL    HW226893  10.242   1.299  10.114
41707SOL     OW26894   3.393  11.369   7.005
41707SOL    HW126895   3.370  11.315   6.929
41707SOL    HW226896   3.309  11.390   7.046
41708SOL     OW26897   3.470   2.620  13.576
41708SOL    HW126898   3.425   2.690  13.624
41708SOL    HW226899   3.495   2.660  13.493
41709SOL     OW26900   4.114   4.492  14.323
41709SOL    HW126901   4.082   4.457  14.240
41709SOL    HW226902   4.206   4.513  14.307
41710SOL     OW26903   9.184   6.023   5.028
41710SOL    HW126904   9.237   5.944   5.027
41710SOL    HW226905   9.094   5.991   5.042
41711SOL     OW26906   1.675   9.372   6.958
41711SOL    HW126907   1.591   9.362   6.913
41711SOL    HW226908   1.739   9.335   6.897
41712SOL     OW26909  14.415   4.163   0.738
41712SOL    HW126910  14.470   4.189   0.665
41712SOL    HW226911  14.376   4.080   0.710
41713SOL     OW26912   6.947   5.105   1.287
41713SOL    HW126913   6.896   5.139   1.360
41713SOL    HW226914   6.894   5.034   1.251
41714SOL     OW26915  12.140  12.399  13.008
41714SOL    HW126916  12.212  12.336  13.016
41714SOL    HW226917  12.181  12.484  13.025
41715SOL     OW26918   5.750   0.520  11.263
41715SOL    HW126919   5.802   0.487  11.190
41715SOL    HW226920   5.679   0.457  11.272
41716SOL     OW26921  10.293  12.252  11.718
41716SOL    HW126922  10.307  12.336  11.676
41716SOL    HW226923  10.260  12.273  11.805
41717SOL     OW26924  11.076   3.722   0.045
41717SOL    HW126925  11.122   3.685   0.120
41717SOL    HW226926  11.132   3.793   0.014
41718SOL     OW26927   9.255  10.833  14.394
41718SOL    HW126928   9.197  10.906  14.415
41718SOL    HW226929   9.263  10.784  14.476
41719SOL     OW26930  14.518   0.410  11.356
41719SOL    HW126931  14.590   0.351  11.332
41719SOL    HW226932  14.453   0.399  11.287
41720SOL     OW26933   3.580  10.322   7.749
41720SOL    HW126934   3.534  10.371   7.817
41720SOL    HW226935   3.671  10.353   7.755
41721SOL     OW26936   1.766   8.286   3.760
41721SOL    HW126937   1.752   8.351   3.691
41721SOL    HW226938   1.785   8.339   3.838
41722SOL     OW26939  13.640   0.436  11.624
41722SOL    HW126940  13.696   0.385  11.565
41722SOL    HW226941  13.554   0.394  11.617
41723SOL     OW26942   4.332   1.674   9.683
41723SOL    HW126943   4.314   1.616   9.609
41723SOL    HW226944   4.378   1.749   9.645
41724SOL     OW26945   7.672   6.853   8.745
41724SOL    HW126946   7.626   6.878   8.664
41724SOL    HW226947   7.753   6.812   8.714
41725SOL     OW26948   1.577  10.715   4.489
41725SOL    HW126949   1.634  10.703   4.564
41725SOL    HW226950   1.521  10.637   4.488
41726SOL     OW26951   2.579   9.220  13.921
41726SOL    HW126952   2.548   9.141  13.965
41726SOL    HW226953   2.655   9.248  13.972
41727SOL     OW26954   9.238  14.017   2.516
41727SOL    HW126955   9.179  13.946   2.492
41727SOL    HW226956   9.242  14.013   2.612
41728SOL     OW26957   3.411   1.583  12.522
41728SOL    HW126958   3.354   1.506  12.527
41728SOL    HW226959   3.386   1.625  12.440
41729SOL     OW26960  13.197   2.017   7.397
41729SOL    HW126961  13.197   2.009   7.301
41729SOL    HW226962  13.147   2.097   7.414
41730SOL     OW26963   3.177   2.370   9.861
41730SOL    HW126964   3.224   2.380   9.944
41730SOL    HW226965   3.113   2.301   9.878
41731SOL     OW26966   1.570   1.594  12.409
41731SOL    HW126967   1.489   1.620  12.454
41731SOL    HW226968   1.611   1.531  12.468
41732SOL     OW26969  11.445   9.286   0.067
41732SOL    HW126970  11.408   9.373   0.051
41732SOL    HW226971  11.512   9.300   0.134
41733SOL     OW26972   0.246   6.275  14.304
41733SOL    HW126973   0.337   6.299  14.287
41733SOL    HW226974   0.227   6.208  14.238
41734SOL     OW26975   0.310   7.081   8.699
41734SOL    HW126976   0.361   7.028   8.760
41734SOL    HW226977   0.370   7.151   8.673
41735SOL     OW26978   6.384   3.038   2.902
41735SOL    HW126979   6.448   3.010   2.837
41735SOL    HW226980   6.424   3.115   2.943
41736SOL     OW26981  12.016  11.136   5.034
41736SOL    HW126982  11.957  11.180   5.095
41736SOL    HW226983  11.958  11.087   4.975
41737SOL     OW26984   1.452  12.025   1.534
41737SOL    HW126985   1.439  12.120   1.542
41737SOL    HW226986   1.538  12.009   1.572
41738SOL     OW26987   0.663   1.159   5.987
41738SOL    HW126988   0.628   1.087   5.935
41738SOL    HW226989   0.728   1.201   5.931
41739SOL     OW26990  14.707  10.123   3.091
41739SOL    HW126991  14.717  10.032   3.063
41739SOL    HW226992  14.615  10.132   3.114
41740SOL     OW26993   4.602   7.279   4.704
41740SOL    HW126994   4.547   7.261   4.629
41740SOL    HW226995   4.689   7.295   4.667
41741SOL     OW26996   8.587   7.612   3.058
41741SOL    HW126997   8.560   7.536   3.005
41741SOL    HW226998   8.521   7.616   3.128
41742SOL     OW26999   2.828  14.095  14.331
41742SOL    HW127000   2.819  14.132  14.243
41742SOL    HW227001   2.765  14.022  14.333
41743SOL     OW27002   8.453   7.960  13.843
41743SOL    HW127003   8.493   8.046  13.827
41743SOL    HW227004   8.469   7.910  13.763
41744SOL     OW27005  12.340   0.096   2.847
41744SOL    HW127006  12.386   0.150   2.782
41744SOL    HW227007  12.298   0.160   2.905
41745SOL     OW27008  13.167  10.528  11.225
41745SOL    HW127009  13.114  10.592  11.177
41745SOL    HW227010  13.185  10.459  11.161
41746SOL     OW27011  14.401   2.788   0.491
41746SOL    HW127012  14.377   2.703   0.453
41746SOL    HW227013  14.490   2.805   0.458
41747SOL     OW27014   8.913  11.900  12.482
41747SOL    HW127015   8.861  11.876  12.405
41747SOL    HW227016   8.907  11.996  12.485
41748SOL     OW27017   0.608   8.610   7.689
41748SOL    HW127018   0.679   8.647   7.741
41748SOL    HW227019   0.536   8.674   7.698
41749SOL     OW27020  12.460   8.622   1.059
41749SOL    HW127021  12.388   8.577   1.014
41749SOL    HW227022  12.481   8.566   1.133
41750SOL     OW27023   5.176   6.076   3.560
41750SOL    HW127024   5.099   6.035   3.519
41750SOL    HW227025   5.234   6.098   3.488
41751SOL     OW27026   7.691   1.089   8.075
41751SOL    HW127027   7.691   1.107   8.170
41751SOL    HW227028   7.600   1.063   8.056
41752SOL     OW27029   4.395  12.758  12.027
41752SOL    HW127030   4.372  12.669  12.054
41752SOL    HW227031   4.314  12.808  12.035
41753SOL     OW27032   6.506  13.607   7.423
41753SOL    HW127033   6.535  13.528   7.469
41753SOL    HW227034   6.562  13.611   7.345
41754SOL     OW27035   5.976   6.261   2.713
41754SOL    HW127036   5.906   6.240   2.651
41754SOL    HW227037   6.037   6.314   2.663
41755SOL     OW27038  11.761   3.212  13.760
41755SOL    HW127039  11.732   3.236  13.848
41755SOL    HW227040  11.841   3.262  13.746
41756SOL     OW27041  12.508   4.237  13.276
41756SOL    HW127042  12.568   4.171  13.310
41756SOL    HW227043  12.555   4.278  13.203
41757SOL     OW27044  12.056   8.895   9.522
41757SOL    HW127045  12.142   8.932   9.505
41757SOL    HW227046  11.999   8.970   9.536
41758SOL     OW27047  10.180  11.586   9.702
41758SOL    HW127048  10.237  11.637   9.759
41758SOL    HW227049  10.139  11.522   9.760
41759SOL     OW27050  13.174   6.417   5.400
41759SOL    HW127051  13.203   6.454   5.484
41759SOL    HW227052  13.171   6.323   5.417
41760SOL     OW27053   9.209   7.159   5.598
41760SOL    HW127054   9.114   7.157   5.611
41760SOL    HW227055   9.245   7.116   5.676
41761SOL     OW27056   9.858  14.704   0.273
41761SOL    HW127057   9.917  14.729   0.201
41761SOL    HW227058   9.780  14.669   0.230
41762SOL     OW27059  12.692   6.979   9.945
41762SOL    HW127060  12.676   7.034   9.868
41762SOL    HW227061  12.741   7.035  10.005
41763SOL     OW27062  11.242   9.199   8.512
41763SOL    HW127063  11.187   9.216   8.589
41763SOL    HW227064  11.181   9.163   8.447
41764SOL     OW27065   5.475  12.706  11.388
41764SOL    HW127066   5.539  12.709  11.317
41764SOL    HW227067   5.398  12.666  11.349
41765SOL     OW27068   4.450   4.984   8.246
41765SOL    HW127069   4.475   4.895   8.223
41765SOL    HW227070   4.360   4.977   8.275
41766SOL     OW27071   6.741   1.274   4.778
41766SOL    HW127072   6.804   1.202   4.768
41766SOL    HW227073   6.722   1.276   4.872
41767SOL     OW27074   9.191   3.422   9.432
41767SOL    HW127075   9.263   3.374   9.391
41767SOL    HW227076   9.125   3.356   9.450
41768SOL     OW27077  14.420   7.931   1.516
41768SOL    HW127078  14.391   8.022   1.513
41768SOL    HW227079  14.428   7.912   1.610
41769SOL     OW27080   4.521   8.000   1.171
41769SOL    HW127081   4.504   7.940   1.098
41769SOL    HW227082   4.493   8.085   1.138
41770SOL     OW27083   7.676   4.582  13.970
41770SOL    HW127084   7.689   4.573  13.875
41770SOL    HW227085   7.764   4.597  14.005
41771SOL     OW27086   2.722   0.771   9.004
41771SOL    HW127087   2.651   0.738   8.949
41771SOL    HW227088   2.772   0.693   9.028
41772SOL     OW27089   9.864  14.621  12.975
41772SOL    HW127090   9.932  14.554  12.979
41772SOL    HW227091   9.804  14.599  13.047
41773SOL     OW27092   0.944  10.024   8.571
41773SOL    HW127093   0.958  10.079   8.648
41773SOL    HW227094   0.863  10.055   8.533
41774SOL     OW27095  12.139   1.712   1.756
41774SOL    HW127096  12.235   1.706   1.754
41774SOL    HW227097  12.116   1.758   1.676
41775SOL     OW27098   1.303   1.216   5.312
41775SOL    HW127099   1.323   1.202   5.219
41775SOL    HW227100   1.375   1.173   5.358
41776SOL     OW27101   4.683  13.847   9.681
41776SOL    HW127102   4.659  13.756   9.699
41776SOL    HW227103   4.778  13.845   9.668
41777SOL     OW27104   1.028   7.668   9.931
41777SOL    HW127105   1.018   7.698   9.841
41777SOL    HW227106   1.121   7.677   9.949
41778SOL     OW27107   3.279  11.371   0.784
41778SOL    HW127108   3.314  11.283   0.788
41778SOL    HW227109   3.216  11.369   0.712
41779SOL     OW27110   2.527   9.126  13.099
41779SOL    HW127111   2.433   9.135  13.082
41779SOL    HW227112   2.531   9.082  13.184
41780SOL     OW27113   1.172   5.942   5.828
41780SOL    HW127114   1.108   6.007   5.800
41780SOL    HW227115   1.226   5.988   5.893
41781SOL     OW27116   7.690   1.958   1.452
41781SOL    HW127117   7.679   2.044   1.492
41781SOL    HW227118   7.736   1.975   1.370
41782SOL     OW27119   5.676  13.055  13.404
41782SOL    HW127120   5.675  13.136  13.352
41782SOL    HW227121   5.693  13.085  13.494
41783SOL     OW27122   0.179  14.061   4.573
41783SOL    HW127123   0.163  14.124   4.503
41783SOL    HW227124   0.269  14.032   4.558
41784SOL     OW27125   4.051   2.653   6.421
41784SOL    HW127126   4.008   2.707   6.356
41784SOL    HW227127   4.075   2.714   6.491
41785SOL     OW27128   1.170  13.492  11.550
41785SOL    HW127129   1.199  13.503  11.641
41785SOL    HW227130   1.191  13.576  11.509
41786SOL     OW27131   8.391   1.233  13.467
41786SOL    HW127132   8.358   1.292  13.400
41786SOL    HW227133   8.315   1.180  13.492
41787SOL     OW27134  12.850   3.766   1.769
41787SOL    HW127135  12.910   3.837   1.745
41787SOL    HW227136  12.907   3.695   1.797
41788SOL     OW27137   9.364   4.731   7.335
41788SOL    HW127138   9.456   4.756   7.334
41788SOL    HW227139   9.346   4.712   7.428
41789SOL     OW27140  11.179   6.258   1.302
41789SOL    HW127141  11.245   6.215   1.356
41789SOL    HW227142  11.156   6.193   1.235
41790SOL     OW27143   0.850   8.860   1.985
41790SOL    HW127144   0.839   8.914   2.064
41790SOL    HW227145   0.778   8.797   1.990
41791SOL     OW27146  13.003  13.841  14.208
41791SOL    HW127147  12.969  13.789  14.281
41791SOL    HW227148  12.980  13.792  14.130
41792SOL     OW27149   5.652   4.155   3.794
41792SOL    HW127150   5.739   4.144   3.832
41792SOL    HW227151   5.655   4.240   3.750
41793SOL     OW27152   4.224  13.423   9.535
41793SOL    HW127153   4.200  13.515   9.524
41793SOL    HW227154   4.301  13.411   9.479
41794SOL     OW27155  10.855  12.599   7.961
41794SOL    HW127156  10.846  12.633   7.872
41794SOL    HW227157  10.943  12.626   7.988
41795SOL     OW27158   8.504   9.731  12.511
41795SOL    HW127159   8.480   9.716  12.603
41795SOL    HW227160   8.458   9.662  12.463
41796SOL     OW27161   9.259  10.217   8.521
41796SOL    HW127162   9.330  10.251   8.467
41796SOL    HW227163   9.301  10.153   8.578
41797SOL     OW27164  10.855  12.181  13.594
41797SOL    HW127165  10.903  12.130  13.659
41797SOL    HW227166  10.888  12.149  13.510
41798SOL     OW27167   5.871   0.924   8.049
41798SOL    HW127168   5.944   0.959   8.100
41798SOL    HW227169   5.793   0.966   8.086
41799SOL     OW27170   4.656  12.715   0.712
41799SOL    HW127171   4.732  12.737   0.658
41799SOL    HW227172   4.582  12.750   0.663
41800SOL     OW27173   0.979   2.236   7.272
41800SOL    HW127174   0.899   2.285   7.289
41800SOL    HW227175   1.040   2.265   7.340
41801SOL     OW27176   5.861   1.240   8.133
41801SOL    HW127177   5.814   1.191   8.200
41801SOL    HW227178   5.793   1.274   8.075
41802SOL     OW27179  12.817  12.642   9.376
41802SOL    HW127180  12.740  12.645   9.432
41802SOL    HW227181  12.874  12.712   9.409
41803SOL     OW27182  11.361   2.904   2.767
41803SOL    HW127183  11.363   2.838   2.698
41803SOL    HW227184  11.357   2.987   2.721
41804SOL     OW27185   8.342   2.433   2.788
41804SOL    HW127186   8.270   2.381   2.751
41804SOL    HW227187   8.298   2.500   2.840
41805SOL     OW27188   1.690  12.718  11.497
41805SOL    HW127189   1.604  12.743  11.465
41805SOL    HW227190   1.720  12.793  11.549
41806SOL     OW27191   0.194   4.129   1.146
41806SOL    HW127192   0.286   4.144   1.127
41806SOL    HW227193   0.165   4.067   1.078
41807SOL     OW27194   0.905   5.449   1.059
41807SOL    HW127195   0.831   5.508   1.060
41807SOL    HW227196   0.871   5.368   1.021
41808SOL     OW27197   8.931  11.490   4.395
41808SOL    HW127198   9.020  11.481   4.430
41808SOL    HW227199   8.897  11.568   4.439
41809SOL     OW27200  13.559   4.458  13.196
41809SOL    HW127201  13.652   4.441  13.212
41809SOL    HW227202  13.559   4.534  13.137
41810SOL     OW27203  12.436   5.911   5.636
41810SOL    HW127204  12.481   5.996   5.637
41810SOL    HW227205  12.495   5.851   5.681
41811SOL     OW27206   2.687   5.027   6.819
41811SOL    HW127207   2.757   4.979   6.864
41811SOL    HW227208   2.687   5.113   6.862
41812SOL     OW27209   4.869  10.468  10.065
41812SOL    HW127210   4.892  10.423  10.146
41812SOL    HW227211   4.906  10.413   9.996
41813SOL     OW27212   0.268   8.624  10.303
41813SOL    HW127213   0.326   8.563  10.258
41813SOL    HW227214   0.200   8.645  10.238
41814SOL     OW27215   7.291  11.668   2.960
41814SOL    HW127216   7.272  11.729   3.032
41814SOL    HW227217   7.327  11.590   3.003
41815SOL     OW27218   7.137  13.051   3.530
41815SOL    HW127219   7.106  13.079   3.444
41815SOL    HW227220   7.223  13.090   3.539
41816SOL     OW27221  12.438  12.769   2.865
41816SOL    HW127222  12.518  12.717   2.859
41816SOL    HW227223  12.455  12.847   2.811
41817SOL     OW27224   9.139   0.094  10.950
41817SOL    HW127225   9.061   0.083  10.896
41817SOL    HW227226   9.170   0.182  10.929
41818SOL     OW27227   3.687  11.269   3.122
41818SOL    HW127228   3.710  11.361   3.130
41818SOL    HW227229   3.769  11.222   3.137
41819SOL     OW27230   8.971   1.571   6.508
41819SOL    HW127231   9.052   1.566   6.457
41819SOL    HW227232   8.952   1.480   6.533
41820SOL     OW27233   6.878  14.519   9.554
41820SOL    HW127234   6.933  14.447   9.522
41820SOL    HW227235   6.870  14.578   9.480
41821SOL     OW27236  12.952  11.420  10.110
41821SOL    HW127237  12.993  11.498  10.074
41821SOL    HW227238  13.010  11.392  10.181
41822SOL     OW27239   9.282   7.206   2.614
41822SOL    HW127240   9.304   7.132   2.557
41822SOL    HW227241   9.314   7.283   2.567
41823SOL     OW27242  14.815   9.971  13.393
41823SOL    HW127243  14.745  10.034  13.413
41823SOL    HW227244  14.772   9.886  13.398
41824SOL     OW27245  14.105  11.740   9.044
41824SOL    HW127246  14.076  11.825   9.010
41824SOL    HW227247  14.162  11.705   8.975
41825SOL     OW27248   4.695   2.445  13.107
41825SOL    HW127249   4.732   2.389  13.174
41825SOL    HW227250   4.604   2.457  13.134
41826SOL     OW27251   9.629  12.494   2.772
41826SOL    HW127252   9.552  12.545   2.798
41826SOL    HW227253   9.607  12.459   2.686
41827SOL     OW27254   8.062   3.233   5.018
41827SOL    HW127255   8.101   3.314   5.050
41827SOL    HW227256   7.969   3.251   5.011
41828SOL     OW27257  11.778  13.010   6.450
41828SOL    HW127258  11.750  12.942   6.511
41828SOL    HW227259  11.772  12.969   6.364
41829SOL     OW27260   3.267   7.398  14.063
41829SOL    HW127261   3.289   7.359  13.978
41829SOL    HW227262   3.207   7.335  14.104
41830SOL     OW27263  12.245  11.004   1.767
41830SOL    HW127264  12.206  10.916   1.773
41830SOL    HW227265  12.196  11.056   1.830
41831SOL     OW27266  14.020  13.950  11.574
41831SOL    HW127267  14.024  14.044  11.593
41831SOL    HW227268  14.035  13.944  11.480
41832SOL     OW27269  11.411  14.717   3.798
41832SOL    HW127270  11.418  14.808   3.826
41832SOL    HW227271  11.416  14.721   3.702
41833SOL     OW27272   6.636   2.730  12.142
41833SOL    HW127273   6.589   2.812  12.158
41833SOL    HW227274   6.645   2.726  12.047
41834SOL     OW27275   7.113   8.895   4.517
41834SOL    HW127276   7.078   8.806   4.516
41834SOL    HW227277   7.126   8.914   4.610
41835SOL     OW27278   8.545  12.975   9.682
41835SOL    HW127279   8.632  12.978   9.643
41835SOL    HW227280   8.543  12.892   9.730
41836SOL     OW27281   8.359  14.623   6.147
41836SOL    HW127282   8.436  14.567   6.138
41836SOL    HW227283   8.376  14.676   6.225
41837SOL     OW27284   4.798  13.989   4.501
41837SOL    HW127285   4.722  14.035   4.466
41837SOL    HW227286   4.781  13.897   4.482
41838SOL     OW27287   1.337  13.155   3.985
41838SOL    HW127288   1.422  13.132   3.948
41838SOL    HW227289   1.302  13.073   4.018
41839SOL     OW27290  13.961  10.825  12.227
41839SOL    HW127291  13.955  10.834  12.322
41839SOL    HW227292  14.034  10.881  12.202
41840SOL     OW27293   4.089   1.083  11.401
41840SOL    HW127294   4.138   1.162  11.378
41840SOL    HW227295   4.016   1.081  11.340
41841SOL     OW27296   0.484   9.300  12.030
41841SOL    HW127297   0.434   9.372  11.991
41841SOL    HW227298   0.418   9.234  12.050
41842SOL     OW27299  12.121   5.866   3.722
41842SOL    HW127300  12.111   5.956   3.690
41842SOL    HW227301  12.041   5.822   3.694
41843SOL     OW27302   2.397  11.074   9.796
41843SOL    HW127303   2.426  11.125   9.720
41843SOL    HW227304   2.316  11.033   9.767
41844SOL     OW27305   9.521   3.844  14.298
41844SOL    HW127306   9.596   3.785  14.308
41844SOL    HW227307   9.455   3.809  14.359
41845SOL     OW27308   5.172   0.815   0.051
41845SOL    HW127309   5.147   0.733   0.006
41845SOL    HW227310   5.151   0.883  14.869
41846SOL     OW27311   4.268  12.984   8.654
41846SOL    HW127312   4.322  12.941   8.588
41846SOL    HW227313   4.256  12.918   8.722
41847SOL     OW27314   2.910   5.411   0.756
41847SOL    HW127315   2.910   5.424   0.661
41847SOL    HW227316   2.818   5.393   0.778
41848SOL     OW27317   9.522   1.570   0.373
41848SOL    HW127318   9.515   1.476   0.357
41848SOL    HW227319   9.559   1.576   0.461
41849SOL     OW27320   0.676   1.303  13.775
41849SOL    HW127321   0.693   1.238  13.842
41849SOL    HW227322   0.673   1.253  13.693
41850SOL     OW27323  14.340   2.118   1.646
41850SOL    HW127324  14.303   2.114   1.557
41850SOL    HW227325  14.264   2.111   1.703
41851SOL     OW27326   5.163   6.816  14.037
41851SOL    HW127327   5.100   6.752  14.071
41851SOL    HW227328   5.208   6.769  13.966
41852SOL     OW27329   5.719  13.892   7.762
41852SOL    HW127330   5.640  13.945   7.767
41852SOL    HW227331   5.695  13.808   7.802
41853SOL     OW27332  14.819   7.573   2.784
41853SOL    HW127333  14.808   7.544   2.874
41853SOL    HW227334  14.771   7.656   2.780
41854SOL     OW27335   7.273  13.649   1.823
41854SOL    HW127336   7.332  13.575   1.832
41854SOL    HW227337   7.186  13.614   1.845
41855SOL     OW27338   2.556  10.942   4.324
41855SOL    HW127339   2.621  10.966   4.257
41855SOL    HW227340   2.598  10.964   4.407
41856SOL     OW27341   0.680   8.430  10.572
41856SOL    HW127342   0.601   8.437  10.626
41856SOL    HW227343   0.688   8.515  10.529
41857SOL     OW27344  13.857   2.818  12.663
41857SOL    HW127345  13.864   2.887  12.596
41857SOL    HW227346  13.943   2.775  12.662
41858SOL     OW27347   6.801   7.937   7.506
41858SOL    HW127348   6.795   7.843   7.486
41858SOL    HW227349   6.893   7.950   7.530
41859SOL     OW27350   3.661   4.810  11.306
41859SOL    HW127351   3.609   4.888  11.287
41859SOL    HW227352   3.748   4.843  11.329
41860SOL     OW27353   4.589   7.847   8.558
41860SOL    HW127354   4.674   7.888   8.575
41860SOL    HW227355   4.597   7.813   8.469
41861SOL     OW27356   5.974   8.812   4.815
41861SOL    HW127357   5.899   8.871   4.809
41861SOL    HW227358   5.937   8.725   4.799
41862SOL     OW27359   2.108   2.228   1.354
41862SOL    HW127360   2.104   2.137   1.384
41862SOL    HW227361   2.048   2.275   1.411
41863SOL     OW27362   3.669   6.080  13.523
41863SOL    HW127363   3.717   6.008  13.562
41863SOL    HW227364   3.737   6.138  13.488
41864SOL     OW27365   3.040   4.086  13.216
41864SOL    HW127366   3.114   4.056  13.269
41864SOL    HW227367   2.988   4.140  13.275
41865SOL     OW27368   5.048  11.760   1.827
41865SOL    HW127369   5.060  11.716   1.744
41865SOL    HW227370   4.962  11.731   1.858
41866SOL     OW27371  14.357  10.198   1.936
41866SOL    HW127372  14.286  10.189   2.000
41866SOL    HW227373  14.399  10.112   1.936
41867SOL     OW27374  11.816  10.642   2.524
41867SOL    HW127375  11.737  10.695   2.527
41867SOL    HW227376  11.857  10.655   2.610
41868SOL     OW27377  14.250  11.100   1.911
41868SOL    HW127378  14.180  11.166   1.911
41868SOL    HW227379  14.238  11.054   1.828
41869SOL     OW27380   4.915   3.346  10.024
41869SOL    HW127381   4.846   3.402  10.060
41869SOL    HW227382   4.927   3.378   9.935
41870SOL     OW27383  14.657   7.597  13.100
41870SOL    HW127384  14.653   7.614  13.006
41870SOL    HW227385  14.671   7.684  13.140
41871SOL     OW27386  13.795   8.915   9.117
41871SOL    HW127387  13.799   8.863   9.037
41871SOL    HW227388  13.748   8.995   9.092
41872SOL     OW27389   8.574   5.862   7.858
41872SOL    HW127390   8.545   5.891   7.944
41872SOL    HW227391   8.646   5.920   7.836
41873SOL     OW27392   5.673   4.474  10.208
41873SOL    HW127393   5.637   4.478  10.297
41873SOL    HW227394   5.599   4.449  10.153
41874SOL     OW27395   7.779  10.681   3.978
41874SOL    HW127396   7.715  10.628   4.025
41874SOL    HW227397   7.741  10.693   3.891
41875SOL     OW27398   7.704   9.517  10.631
41875SOL    HW127399   7.786   9.518  10.582
41875SOL    HW227400   7.644   9.465  10.577
41876SOL     OW27401   2.490   0.039   5.742
41876SOL    HW127402   2.553   0.107   5.715
41876SOL    HW227403   2.521  14.841   5.698
41877SOL     OW27404   1.199   1.109   8.506
41877SOL    HW127405   1.106   1.126   8.492
41877SOL    HW227406   1.213   1.127   8.599
41878SOL     OW27407  12.293   2.556   4.905
41878SOL    HW127408  12.369   2.610   4.927
41878SOL    HW227409  12.269   2.583   4.816
41879SOL     OW27410   3.723   0.139   8.586
41879SOL    HW127411   3.655   0.206   8.589
41879SOL    HW227412   3.795   0.180   8.538
41880SOL     OW27413   1.369   3.405  12.973
41880SOL    HW127414   1.445   3.430  13.027
41880SOL    HW227415   1.293   3.432  13.025
41881SOL     OW27416   0.366   3.536  12.752
41881SOL    HW127417   0.302   3.486  12.803
41881SOL    HW227418   0.380   3.616  12.802
41882SOL     OW27419   5.948  11.641  14.770
41882SOL    HW127420   5.895  11.655  14.692
41882SOL    HW227421   6.038  11.632  14.737
41883SOL     OW27422   5.956  13.910   0.156
41883SOL    HW127423   6.010  13.988   0.163
41883SOL    HW227424   5.994  13.862   0.082
41884SOL     OW27425  13.484   0.234   4.724
41884SOL    HW127426  13.403   0.265   4.766
41884SOL    HW227427  13.493   0.288   4.646
41885SOL     OW27428   1.504  12.007   3.922
41885SOL    HW127429   1.598  11.999   3.906
41885SOL    HW227430   1.482  11.931   3.976
41886SOL     OW27431   3.089   6.213   9.463
41886SOL    HW127432   3.033   6.274   9.414
41886SOL    HW227433   3.124   6.154   9.396
41887SOL     OW27434   0.216   5.708  10.783
41887SOL    HW127435   0.252   5.655  10.855
41887SOL    HW227436   0.121   5.701  10.793
41888SOL     OW27437  14.770  12.953   4.118
41888SOL    HW127438  14.751  12.941   4.025
41888SOL    HW227439  14.706  13.018   4.148
41889SOL     OW27440   3.020   6.857  14.449
41889SOL    HW127441   3.001   6.880  14.359
41889SOL    HW227442   3.101   6.806  14.444
41890SOL     OW27443   1.887  10.370   3.673
41890SOL    HW127444   1.949  10.356   3.601
41890SOL    HW227445   1.831  10.293   3.672
41891SOL     OW27446   6.364   7.425   4.034
41891SOL    HW127447   6.402   7.499   3.987
41891SOL    HW227448   6.431   7.401   4.098
41892SOL     OW27449   3.317   5.204   7.450
41892SOL    HW127450   3.238   5.200   7.395
41892SOL    HW227451   3.357   5.288   7.427
41893SOL     OW27452   8.318   0.919  10.521
41893SOL    HW127453   8.262   0.933  10.444
41893SOL    HW227454   8.354   1.005  10.541
41894SOL     OW27455   1.209   3.619   1.443
41894SOL    HW127456   1.123   3.597   1.478
41894SOL    HW227457   1.271   3.575   1.501
41895SOL     OW27458  14.265   6.448   1.724
41895SOL    HW127459  14.230   6.436   1.812
41895SOL    HW227460  14.335   6.383   1.717
41896SOL     OW27461   4.620  12.242   1.314
41896SOL    HW127462   4.675  12.179   1.268
41896SOL    HW227463   4.533  12.230   1.277
41897SOL     OW27464   1.606  11.514   7.340
41897SOL    HW127465   1.667  11.446   7.368
41897SOL    HW227466   1.629  11.530   7.249
41898SOL     OW27467   7.030   2.589   1.523
41898SOL    HW127468   7.084   2.584   1.602
41898SOL    HW227469   7.004   2.499   1.506
41899SOL     OW27470   9.845   2.790   1.157
41899SOL    HW127471   9.835   2.740   1.076
41899SOL    HW227472   9.805   2.875   1.138
41900SOL     OW27473   2.017   7.556   9.442
41900SOL    HW127474   2.008   7.466   9.411
41900SOL    HW227475   2.067   7.600   9.373
41901SOL     OW27476   7.061   4.274   5.964
41901SOL    HW127477   7.049   4.203   6.027
41901SOL    HW227478   6.975   4.282   5.922
41902SOL     OW27479   9.206  12.390   0.082
41902SOL    HW127480   9.275  12.364   0.143
41902SOL    HW227481   9.242  12.369  14.877
41903SOL     OW27482  10.824   6.538   4.744
41903SOL    HW127483  10.888   6.601   4.711
41903SOL    HW227484  10.786   6.499   4.665
41904SOL     OW27485   3.641   7.998  12.788
41904SOL    HW127486   3.646   7.994  12.884
41904SOL    HW227487   3.598   7.916  12.763
41905SOL     OW27488   6.032   8.473   4.446
41905SOL    HW127489   6.120   8.473   4.410
41905SOL    HW227490   6.043   8.440   4.536
41906SOL     OW27491   0.938   8.546   6.751
41906SOL    HW127492   0.894   8.547   6.836
41906SOL    HW227493   0.947   8.453   6.730
41907SOL     OW27494   0.373   2.164   3.281
41907SOL    HW127495   0.361   2.237   3.341
41907SOL    HW227496   0.308   2.178   3.212
41908SOL     OW27497   1.673   8.617   1.880
41908SOL    HW127498   1.731   8.640   1.807
41908SOL    HW227499   1.597   8.577   1.839
41909SOL     OW27500   0.038   1.856   1.829
41909SOL    HW127501   0.051   1.806   1.910
41909SOL    HW227502   0.061   1.946   1.852
41910SOL     OW27503   4.990   2.484  14.378
41910SOL    HW127504   4.986   2.439  14.294
41910SOL    HW227505   5.078   2.466  14.412
41911SOL     OW27506   0.281  10.124  13.423
41911SOL    HW127507   0.226  10.130  13.345
41911SOL    HW227508   0.242  10.054  13.476
41912SOL     OW27509   9.372  13.885  10.520
41912SOL    HW127510   9.393  13.894  10.613
41912SOL    HW227511   9.291  13.835  10.518
41913SOL     OW27512   9.593   5.395   6.676
41913SOL    HW127513   9.536   5.402   6.753
41913SOL    HW227514   9.662   5.333   6.703
41914SOL     OW27515  13.033  12.180   4.473
41914SOL    HW127516  12.986  12.109   4.428
41914SOL    HW227517  13.042  12.150   4.563
41915SOL     OW27518   3.571   8.574   0.751
41915SOL    HW127519   3.648   8.630   0.744
41915SOL    HW227520   3.508   8.626   0.800
41916SOL     OW27521   0.964   4.709  12.230
41916SOL    HW127522   0.905   4.697  12.157
41916SOL    HW227523   0.908   4.702  12.308
41917SOL     OW27524  13.750   5.115  14.794
41917SOL    HW127525  13.674   5.064  14.765
41917SOL    HW227526  13.733   5.203  14.761
41918SOL     OW27527  13.105  14.218   0.339
41918SOL    HW127528  13.104  14.130   0.301
41918SOL    HW227529  13.158  14.210   0.418
41919SOL     OW27530   8.418   5.974   8.381
41919SOL    HW127531   8.360   6.013   8.447
41919SOL    HW227532   8.504   6.009   8.400
41920SOL     OW27533  10.712   7.812   9.230
41920SOL    HW127534  10.792   7.839   9.276
41920SOL    HW227535  10.645   7.872   9.261
41921SOL     OW27536   6.629  14.844   7.307
41921SOL    HW127537   6.620  14.752   7.331
41921SOL    HW227538   6.640  14.843   7.212
41922SOL     OW27539   4.742  13.881  12.619
41922SOL    HW127540   4.767  13.790  12.605
41922SOL    HW227541   4.786  13.906  12.700
41923SOL     OW27542  10.012   6.352   3.042
41923SOL    HW127543  10.001   6.329   3.134
41923SOL    HW227544  10.034   6.445   3.042
41924SOL     OW27545  14.679  11.788   1.042
41924SOL    HW127546  14.642  11.710   1.083
41924SOL    HW227547  14.737  11.825   1.109
41925SOL     OW27548  11.112   2.785  10.996
41925SOL    HW127549  11.062   2.709  11.026
41925SOL    HW227550  11.175   2.802  11.066
41926SOL     OW27551   0.627  13.957   3.016
41926SOL    HW127552   0.636  13.873   2.970
41926SOL    HW227553   0.557  14.003   2.970
41927SOL     OW27554  13.062   5.788   2.753
41927SOL    HW127555  12.975   5.796   2.714
41927SOL    HW227556  13.114   5.856   2.711
41928SOL     OW27557   0.232  13.576   9.969
41928SOL    HW127558   0.302  13.539   9.915
41928SOL    HW227559   0.172  13.617   9.906
41929SOL     OW27560  14.228  12.274   4.446
41929SOL    HW127561  14.168  12.274   4.520
41929SOL    HW227562  14.247  12.367   4.431
41930SOL     OW27563   1.498   7.190  14.081
41930SOL    HW127564   1.403   7.188  14.074
41930SOL    HW227565   1.528   7.211  13.992
41931SOL     OW27566  11.392   3.128  14.101
41931SOL    HW127567  11.378   3.053  14.044
41931SOL    HW227568  11.416   3.090  14.186
41932SOL     OW27569  10.808   8.961   5.316
41932SOL    HW127570  10.836   8.954   5.407
41932SOL    HW227571  10.887   8.942   5.265
41933SOL     OW27572  13.705   8.117  12.039
41933SOL    HW127573  13.782   8.171  12.023
41933SOL    HW227574  13.740   8.029  12.054
41934SOL     OW27575   5.285   2.847   4.529
41934SOL    HW127576   5.302   2.759   4.563
41934SOL    HW227577   5.251   2.896   4.604
41935SOL     OW27578   1.407   7.396   6.659
41935SOL    HW127579   1.422   7.340   6.735
41935SOL    HW227580   1.494   7.410   6.622
41936SOL     OW27581   6.974  13.140   2.050
41936SOL    HW127582   7.035  13.110   2.118
41936SOL    HW227583   6.889  13.143   2.094
41937SOL     OW27584   9.254  12.570  11.129
41937SOL    HW127585   9.175  12.525  11.100
41937SOL    HW227586   9.283  12.521  11.206
41938SOL     OW27587   9.994   4.397   4.652
41938SOL    HW127588  10.064   4.431   4.596
41938SOL    HW227589   9.915   4.440   4.620
41939SOL     OW27590  10.923  10.207   1.387
41939SOL    HW127591  10.933  10.112   1.389
41939SOL    HW227592  10.962  10.236   1.470
41940SOL     OW27593   1.750   6.132   0.388
41940SOL    HW127594   1.708   6.079   0.320
41940SOL    HW227595   1.751   6.075   0.465
41941SOL     OW27596   9.563  12.509   4.675
41941SOL    HW127597   9.473  12.484   4.652
41941SOL    HW227598   9.611  12.503   4.592
41942SOL     OW27599   1.426  11.913  13.911
41942SOL    HW127600   1.401  11.979  13.976
41942SOL    HW227601   1.434  11.963  13.829
41943SOL     OW27602  11.980  14.134  14.304
41943SOL    HW127603  11.901  14.187  14.296
41943SOL    HW227604  12.029  14.174  14.376
41944SOL     OW27605   6.691   5.566   1.766
41944SOL    HW127606   6.711   5.632   1.832
41944SOL    HW227607   6.748   5.492   1.788
41945SOL     OW27608  14.301   6.424  14.165
41945SOL    HW127609  14.360   6.398  14.094
41945SOL    HW227610  14.318   6.518  14.176
41946SOL     OW27611   2.964   1.142  11.395
41946SOL    HW127612   2.869   1.145  11.405
41946SOL    HW227613   2.998   1.143  11.484
41947SOL     OW27614  10.976  13.267  14.219
41947SOL    HW127615  10.915  13.208  14.176
41947SOL    HW227616  11.061  13.223  14.210
41948SOL     OW27617   2.969   6.129  13.853
41948SOL    HW127618   2.966   6.205  13.910
41948SOL    HW227619   2.887   6.082  13.871
41949SOL     OW27620  12.076  14.592   9.710
41949SOL    HW127621  12.140  14.656   9.743
41949SOL    HW227622  12.066  14.614   9.617
41950SOL     OW27623   8.101  12.243   3.388
41950SOL    HW127624   8.007  12.259   3.382
41950SOL    HW227625   8.115  12.214   3.478
41951SOL     OW27626   8.627  12.072  14.419
41951SOL    HW127627   8.547  12.026  14.445
41951SOL    HW227628   8.696  12.005  14.424
41952SOL     OW27629   1.756   2.348  11.070
41952SOL    HW127630   1.752   2.444  11.070
41952SOL    HW227631   1.835   2.328  11.121
41953SOL     OW27632  11.058   4.406   8.137
41953SOL    HW127633  11.117   4.335   8.161
41953SOL    HW227634  11.017   4.433   8.219
41954SOL     OW27635  10.278   3.843  10.297
41954SOL    HW127636  10.186   3.816  10.304
41954SOL    HW227637  10.285   3.918  10.356
41955SOL     OW27638   2.403   9.453   9.204
41955SOL    HW127639   2.309   9.436   9.197
41955SOL    HW227640   2.443   9.367   9.191
41956SOL     OW27641  11.191  14.543   2.135
41956SOL    HW127642  11.213  14.462   2.089
41956SOL    HW227643  11.201  14.612   2.070
41957SOL     OW27644   0.889   0.540   2.170
41957SOL    HW127645   0.838   0.620   2.166
41957SOL    HW227646   0.831   0.472   2.138
41958SOL     OW27647   5.385   4.220   1.229
41958SOL    HW127648   5.452   4.257   1.172
41958SOL    HW227649   5.428   4.146   1.271
41959SOL     OW27650   9.857   7.134  12.260
41959SOL    HW127651   9.806   7.136  12.341
41959SOL    HW227652   9.839   7.048  12.223
41960SOL     OW27653  11.422   8.953   8.967
41960SOL    HW127654  11.477   9.031   8.976
41960SOL    HW227655  11.457   8.891   9.031
41961SOL     OW27656   4.951   0.701   5.771
41961SOL    HW127657   5.001   0.755   5.710
41961SOL    HW227658   5.016   0.642   5.808
41962SOL     OW27659  13.020   9.373  13.397
41962SOL    HW127660  13.099   9.333  13.433
41962SOL    HW227661  12.998   9.443  13.457
41963SOL     OW27662  10.024   6.900  10.374
41963SOL    HW127663  10.115   6.891  10.344
41963SOL    HW227664   9.985   6.961  10.312
41964SOL     OW27665  14.713   3.242  13.026
41964SOL    HW127666  14.768   3.185  13.079
41964SOL    HW227667  14.721   3.207  12.937
41965SOL     OW27668   8.334   4.034   9.877
41965SOL    HW127669   8.262   4.098   9.882
41965SOL    HW227670   8.313   3.969   9.944
41966SOL     OW27671   8.481   1.455   2.369
41966SOL    HW127672   8.473   1.361   2.385
41966SOL    HW227673   8.505   1.491   2.455
41967SOL     OW27674   1.032   4.998   7.062
41967SOL    HW127675   1.033   5.012   6.967
41967SOL    HW227676   1.064   5.081   7.098
41968SOL     OW27677   7.448  10.497   3.470
41968SOL    HW127678   7.415  10.424   3.521
41968SOL    HW227679   7.434  10.472   3.379
41969SOL     OW27680   9.726   7.880   7.204
41969SOL    HW127681   9.728   7.945   7.275
41969SOL    HW227682   9.659   7.817   7.232
41970SOL     OW27683   6.121  12.670   0.821
41970SOL    HW127684   6.051  12.606   0.836
41970SOL    HW227685   6.181  12.658   0.894
41971SOL     OW27686  11.636   1.835   2.813
41971SOL    HW127687  11.687   1.756   2.830
41971SOL    HW227688  11.631   1.839   2.718
41972SOL     OW27689   6.330   3.577   9.454
41972SOL    HW127690   6.362   3.583   9.364
41972SOL    HW227691   6.240   3.545   9.446
41973SOL     OW27692  11.070  13.944   8.384
41973SOL    HW127693  11.141  13.954   8.448
41973SOL    HW227694  11.105  13.983   8.304
41974SOL     OW27695   8.619   9.909   7.010
41974SOL    HW127696   8.608   9.834   6.951
41974SOL    HW227697   8.546   9.900   7.072
41975SOL     OW27698   6.707  12.817   4.998
41975SOL    HW127699   6.669  12.758   4.932
41975SOL    HW227700   6.680  12.904   4.970
41976SOL     OW27701   5.113  10.594   1.129
41976SOL    HW127702   5.061  10.657   1.079
41976SOL    HW227703   5.180  10.564   1.068
41977SOL     OW27704   2.609  12.913   8.111
41977SOL    HW127705   2.535  12.970   8.130
41977SOL    HW227706   2.641  12.885   8.197
41978SOL     OW27707  13.195   8.170   9.837
41978SOL    HW127708  13.156   8.137   9.918
41978SOL    HW227709  13.193   8.094   9.778
41979SOL     OW27710   1.813   7.791   9.189
41979SOL    HW127711   1.801   7.867   9.132
41979SOL    HW227712   1.892   7.811   9.239
41980SOL     OW27713   0.321  10.723   0.864
41980SOL    HW127714   0.231  10.691   0.869
41980SOL    HW227715   0.371  10.648   0.830
41981SOL     OW27716   9.717   9.291   5.097
41981SOL    HW127717   9.767   9.369   5.121
41981SOL    HW227718   9.729   9.283   5.002
41982SOL     OW27719  14.801   6.743   0.673
41982SOL    HW127720  14.854   6.719   0.597
41982SOL    HW227721  14.783   6.659   0.716
41983SOL     OW27722   5.212   2.776  12.047
41983SOL    HW127723   5.132   2.735  12.079
41983SOL    HW227724   5.198   2.786  11.953
41984SOL     OW27725  11.811   9.189   5.911
41984SOL    HW127726  11.869   9.216   5.982
41984SOL    HW227727  11.759   9.117   5.949
41985SOL     OW27728   4.821   0.078   9.367
41985SOL    HW127729   4.775   0.002   9.329
41985SOL    HW227730   4.910   0.046   9.383
41986SOL     OW27731   5.532   3.732   1.605
41986SOL    HW127732   5.451   3.735   1.555
41986SOL    HW227733   5.511   3.778   1.687
41987SOL     OW27734   0.630   2.350   9.355
41987SOL    HW127735   0.707   2.404   9.334
41987SOL    HW227736   0.580   2.402   9.418
41988SOL     OW27737  14.265   4.769   4.858
41988SOL    HW127738  14.248   4.676   4.874
41988SOL    HW227739  14.194   4.797   4.800
41989SOL     OW27740   7.200   1.060   3.939
41989SOL    HW127741   7.217   1.072   4.033
41989SOL    HW227742   7.211   1.147   3.901
41990SOL     OW27743   4.957   4.393   1.655
41990SOL    HW127744   4.991   4.320   1.706
41990SOL    HW227745   4.863   4.375   1.646
41991SOL     OW27746  13.801  14.093  10.564
41991SOL    HW127747  13.802  13.999  10.545
41991SOL    HW227748  13.760  14.132  10.486
41992SOL     OW27749  11.732   5.459  12.713
41992SOL    HW127750  11.758   5.538  12.761
41992SOL    HW227751  11.690   5.492  12.633
41993SOL     OW27752  12.879   0.907  11.061
41993SOL    HW127753  12.841   0.976  11.006
41993SOL    HW227754  12.805   0.874  11.112
41994SOL     OW27755   2.912   5.277   4.380
41994SOL    HW127756   2.963   5.231   4.447
41994SOL    HW227757   2.851   5.212   4.347
41995SOL     OW27758  13.449  12.966  13.104
41995SOL    HW127759  13.528  13.019  13.093
41995SOL    HW227760  13.380  13.018  13.064
41996SOL     OW27761  14.765   5.940   5.893
41996SOL    HW127762  14.813   6.006   5.843
41996SOL    HW227763  14.831   5.899   5.948
41997SOL     OW27764   7.528   2.425  10.504
41997SOL    HW127765   7.531   2.330  10.513
41997SOL    HW227766   7.562   2.442  10.417
41998SOL     OW27767   1.305  12.669   5.356
41998SOL    HW127768   1.249  12.598   5.323
41998SOL    HW227769   1.332  12.640   5.443
41999SOL     OW27770  14.683   2.294   8.908
41999SOL    HW127771  14.752   2.333   8.854
41999SOL    HW227772  14.710   2.313   8.998
42000SOL     OW27773  12.232   4.327   3.874
42000SOL    HW127774  12.306   4.352   3.929
42000SOL    HW227775  12.155   4.342   3.929
42001SOL     OW27776   9.263  10.352   0.462
42001SOL    HW127777   9.232  10.396   0.383
42001SOL    HW227778   9.323  10.414   0.503
42002SOL     OW27779   7.417  11.389   7.169
42002SOL    HW127780   7.427  11.391   7.264
42002SOL    HW227781   7.420  11.481   7.143
42003SOL     OW27782   9.900   8.836  10.870
42003SOL    HW127783   9.995   8.831  10.863
42003SOL    HW227784   9.871   8.869  10.784
42004SOL     OW27785   0.230   9.013   7.468
42004SOL    HW127786   0.294   8.949   7.437
42004SOL    HW227787   0.250   9.092   7.419
42005SOL     OW27788  13.327  10.529   9.598
42005SOL    HW127789  13.247  10.567   9.634
42005SOL    HW227790  13.379  10.605   9.570
42006SOL     OW27791   1.187   5.505   4.386
42006SOL    HW127792   1.093   5.514   4.398
42006SOL    HW227793   1.204   5.411   4.398
42007SOL     OW27794   7.528   1.062   3.798
42007SOL    HW127795   7.487   1.144   3.827
42007SOL    HW227796   7.492   1.046   3.711
42008SOL     OW27797   5.374   0.998  10.865
42008SOL    HW127798   5.336   1.059  10.802
42008SOL    HW227799   5.444   0.954  10.816
42009SOL     OW27800   7.330   0.441   5.097
42009SOL    HW127801   7.330   0.424   5.003
42009SOL    HW227802   7.312   0.535   5.105
42010SOL     OW27803  12.965   9.366   1.147
42010SOL    HW127804  12.991   9.447   1.190
42010SOL    HW227805  12.927   9.312   1.217
42011SOL     OW27806   4.044  14.573  14.247
42011SOL    HW127807   4.027  14.493  14.197
42011SOL    HW227808   4.042  14.544  14.338
42012SOL     OW27809  12.371  14.870   2.124
42012SOL    HW127810  12.414  14.786   2.139
42012SOL    HW227811  12.416   0.049   2.185
42013SOL     OW27812   1.226   4.376   4.470
42013SOL    HW127813   1.160   4.445   4.464
42013SOL    HW227814   1.265   4.372   4.382
42014SOL     OW27815  14.361   0.749   3.913
42014SOL    HW127816  14.411   0.821   3.951
42014SOL    HW227817  14.285   0.791   3.873
42015SOL     OW27818   1.516  13.372   4.990
42015SOL    HW127819   1.455  13.419   4.934
42015SOL    HW227820   1.549  13.301   4.936
42016SOL     OW27821   9.087   7.853   9.320
42016SOL    HW127822   8.997   7.831   9.345
42016SOL    HW227823   9.140   7.823   9.394
42017SOL     OW27824   3.484   2.158   2.046
42017SOL    HW127825   3.456   2.248   2.063
42017SOL    HW227826   3.540   2.165   1.968
42018SOL     OW27827   2.163   9.739  13.018
42018SOL    HW127828   2.078   9.758  13.059
42018SOL    HW227829   2.220   9.717  13.091
42019SOL     OW27830   3.134  10.909   6.166
42019SOL    HW127831   3.122  10.891   6.073
42019SOL    HW227832   3.229  10.908   6.178
42020SOL     OW27833   1.380  10.013  10.898
42020SOL    HW127834   1.311  10.012  10.832
42020SOL    HW227835   1.358  10.088  10.954
42021SOL     OW27836  11.475   7.120   8.018
42021SOL    HW127837  11.499   7.208   7.989
42021SOL    HW227838  11.503   7.062   7.946
42022SOL     OW27839   3.770   1.008  10.721
42022SOL    HW127840   3.780   0.957  10.640
42022SOL    HW227841   3.854   0.999  10.765
42023SOL     OW27842   7.438   2.657  10.010
42023SOL    HW127843   7.369   2.629   9.950
42023SOL    HW227844   7.518   2.653   9.958
42024SOL     OW27845  11.737  12.863  12.301
42024SOL    HW127846  11.721  12.864  12.395
42024SOL    HW227847  11.768  12.951  12.280
42025SOL     OW27848  11.060  13.247   9.325
42025SOL    HW127849  11.011  13.217   9.248
42025SOL    HW227850  11.132  13.185   9.335
42026SOL     OW27851   9.617   4.895  10.029
42026SOL    HW127852   9.542   4.901   9.969
42026SOL    HW227853   9.622   4.802  10.052
42027SOL     OW27854  11.752  10.797  10.712
42027SOL    HW127855  11.684  10.788  10.779
42027SOL    HW227856  11.834  10.802  10.762
42028SOL     OW27857  12.596   5.281   8.110
42028SOL    HW127858  12.531   5.265   8.178
42028SOL    HW227859  12.601   5.199   8.062
42029SOL     OW27860  12.780   4.396   8.858
42029SOL    HW127861  12.732   4.467   8.901
42029SOL    HW227862  12.726   4.318   8.874
42030SOL     OW27863   5.267   1.858  12.385
42030SOL    HW127864   5.181   1.889  12.413
42030SOL    HW227865   5.302   1.812  12.461
42031SOL     OW27866   3.667   5.187   2.233
42031SOL    HW127867   3.578   5.177   2.267
42031SOL    HW227868   3.683   5.282   2.236
42032SOL     OW27869   2.846  13.055   6.253
42032SOL    HW127870   2.916  13.082   6.194
42032SOL    HW227871   2.880  12.976   6.297
42033SOL     OW27872   4.072  13.115  10.867
42033SOL    HW127873   4.016  13.038  10.867
42033SOL    HW227874   4.139  13.096  10.802
42034SOL     OW27875   7.389   2.230   3.585
42034SOL    HW127876   7.370   2.323   3.599
42034SOL    HW227877   7.330   2.204   3.514
42035SOL     OW27878   0.153   7.978   9.541
42035SOL    HW127879   0.158   7.886   9.569
42035SOL    HW227880   0.059   7.996   9.536
42036SOL     OW27881   8.305  13.709   6.452
42036SOL    HW127882   8.315  13.614   6.449
42036SOL    HW227883   8.337  13.739   6.367
42037SOL     OW27884   2.200   7.152   1.534
42037SOL    HW127885   2.185   7.149   1.439
42037SOL    HW227886   2.179   7.242   1.558
42038SOL     OW27887  11.531   2.625   7.179
42038SOL    HW127888  11.613   2.653   7.138
42038SOL    HW227889  11.544   2.643   7.272
42039SOL     OW27890   7.392   3.647   8.567
42039SOL    HW127891   7.482   3.672   8.585
42039SOL    HW227892   7.381   3.664   8.473
42040SOL     OW27893   0.290  13.632  10.524
42040SOL    HW127894   0.324  13.710  10.569
42040SOL    HW227895   0.333  13.559  10.569
42041SOL     OW27896  14.647  14.159  11.750
42041SOL    HW127897  14.598  14.102  11.809
42041SOL    HW227898  14.735  14.163  11.788
42042SOL     OW27899   5.040   3.675  10.101
42042SOL    HW127900   4.995   3.669  10.185
42042SOL    HW227901   4.972   3.704  10.040
42043SOL     OW27902   3.454   3.221   6.622
42043SOL    HW127903   3.413   3.160   6.560
42043SOL    HW227904   3.387   3.236   6.689
42044SOL     OW27905  11.638  10.065   8.848
42044SOL    HW127906  11.687   9.988   8.877
42044SOL    HW227907  11.547  10.035   8.844
42045SOL     OW27908  10.444  11.632   5.288
42045SOL    HW127909  10.512  11.698   5.273
42045SOL    HW227910  10.373  11.681   5.331
42046SOL     OW27911   4.343   9.156  11.854
42046SOL    HW127912   4.335   9.196  11.767
42046SOL    HW227913   4.308   9.068  11.844
42047SOL     OW27914  12.041   7.557   7.383
42047SOL    HW127915  12.029   7.585   7.292
42047SOL    HW227916  12.013   7.465   7.383
42048SOL     OW27917   4.621  10.368   0.812
42048SOL    HW127918   4.625  10.349   0.718
42048SOL    HW227919   4.552  10.433   0.820
42049SOL     OW27920   3.953   8.179   1.465
42049SOL    HW127921   3.915   8.117   1.527
42049SOL    HW227922   3.883   8.243   1.450
42050SOL     OW27923  14.277   9.426  11.296
42050SOL    HW127924  14.241   9.410  11.209
42050SOL    HW227925  14.337   9.354  11.312
42051SOL     OW27926   6.780   3.366   9.294
42051SOL    HW127927   6.839   3.301   9.256
42051SOL    HW227928   6.746   3.325   9.374
42052SOL     OW27929   7.438  14.282   1.157
42052SOL    HW127930   7.486  14.205   1.127
42052SOL    HW227931   7.369  14.294   1.093
42053SOL     OW27932   2.668  14.171  10.552
42053SOL    HW127933   2.661  14.208  10.464
42053SOL    HW227934   2.740  14.108  10.546
42054SOL     OW27935   1.667   0.444  10.136
42054SOL    HW127936   1.752   0.477  10.105
42054SOL    HW227937   1.652   0.365  10.084
42055SOL     OW27938  14.797   4.516  14.705
42055SOL    HW127939  14.755   4.527  14.620
42055SOL    HW227940  14.873   4.461  14.687
42056SOL     OW27941   6.004  12.796   1.775
42056SOL    HW127942   5.984  12.715   1.823
42056SOL    HW227943   6.083  12.776   1.726
42057SOL     OW27944   8.376   7.968   3.182
42057SOL    HW127945   8.368   7.941   3.273
42057SOL    HW227946   8.459   7.931   3.153
42058SOL     OW27947   7.883   6.664   8.714
42058SOL    HW127948   7.973   6.692   8.733
42058SOL    HW227949   7.877   6.576   8.751
42059SOL     OW27950   0.648  11.007  10.337
42059SOL    HW127951   0.553  11.013  10.341
42059SOL    HW227952   0.678  11.072  10.402
42060SOL     OW27953  13.949   3.030   3.046
42060SOL    HW127954  13.948   2.978   2.966
42060SOL    HW227955  13.987   2.972   3.112
42061SOL     OW27956  12.269   4.094   9.961
42061SOL    HW127957  12.219   4.168   9.927
42061SOL    HW227958  12.343   4.134  10.006
42062SOL     OW27959   4.621   7.927  13.927
42062SOL    HW127960   4.688   7.897  13.865
42062SOL    HW227961   4.641   8.019  13.942
42063SOL     OW27962   5.055   9.285   6.223
42063SOL    HW127963   5.113   9.359   6.240
42063SOL    HW227964   5.003   9.313   6.148
42064SOL     OW27965   3.281   5.691   5.150
42064SOL    HW127966   3.342   5.728   5.086
42064SOL    HW227967   3.293   5.596   5.144
42065SOL     OW27968   9.781  13.882   4.348
42065SOL    HW127969   9.795  13.854   4.438
42065SOL    HW227970   9.691  13.914   4.347
42066SOL     OW27971   8.551   2.091   0.120
42066SOL    HW127972   8.532   2.155   0.189
42066SOL    HW227973   8.493   2.114   0.048
42067SOL     OW27974   3.190   3.156   3.416
42067SOL    HW127975   3.118   3.131   3.473
42067SOL    HW227976   3.152   3.157   3.328
42068SOL     OW27977  14.665   8.358  14.006
42068SOL    HW127978  14.722   8.434  14.013
42068SOL    HW227979  14.719   8.291  13.964
42069SOL     OW27980   9.100   2.552   5.772
42069SOL    HW127981   9.127   2.474   5.722
42069SOL    HW227982   9.054   2.606   5.708
42070SOL     OW27983   9.700   3.140  10.045
42070SOL    HW127984   9.742   3.182   9.970
42070SOL    HW227985   9.698   3.207  10.113
42071SOL     OW27986   0.510  10.826   3.015
42071SOL    HW127987   0.586  10.769   3.001
42071SOL    HW227988   0.476  10.801   3.101
42072SOL     OW27989   1.375   5.143  13.246
42072SOL    HW127990   1.371   5.076  13.178
42072SOL    HW227991   1.348   5.098  13.326
42073SOL     OW27992  12.754  10.159  11.506
42073SOL    HW127993  12.660  10.180  11.505
42073SOL    HW227994  12.763  10.095  11.576
42074SOL     OW27995  12.179   9.216  12.655
42074SOL    HW127996  12.106   9.170  12.698
42074SOL    HW227997  12.257   9.168  12.683
42075SOL     OW27998   8.901   4.185   1.763
42075SOL    HW127999   8.917   4.155   1.852
42075SOL    HW228000   8.965   4.136   1.710
42076SOL     OW28001  10.190   1.718   8.006
42076SOL    HW128002  10.151   1.753   8.086
42076SOL    HW228003  10.203   1.625   8.024
42077SOL     OW28004   6.026   2.317   0.617
42077SOL    HW128005   5.956   2.259   0.647
42077SOL    HW228006   5.982   2.400   0.599
42078SOL     OW28007   7.256  13.988   9.824
42078SOL    HW128008   7.329  13.945   9.779
42078SOL    HW228009   7.275  14.081   9.816
42079SOL     OW28010  11.887  10.184   1.693
42079SOL    HW128011  11.926  10.100   1.719
42079SOL    HW228012  11.836  10.210   1.770
42080SOL     OW28013   2.650   0.873   9.870
42080SOL    HW128014   2.590   0.837   9.935
42080SOL    HW228015   2.638   0.968   9.875
42081SOL     OW28016  11.265   1.767   0.359
42081SOL    HW128017  11.194   1.808   0.310
42081SOL    HW228018  11.245   1.785   0.451
42082SOL     OW28019  14.861   5.473   7.270
42082SOL    HW128020  14.803   5.398   7.281
42082SOL    HW228021   0.016   5.488   7.357
42083SOL     OW28022   6.708   7.222  12.421
42083SOL    HW128023   6.715   7.317  12.413
42083SOL    HW228024   6.768   7.200  12.492
42084SOL     OW28025  13.332   0.052  11.742
42084SOL    HW128026  13.404   0.112  11.722
42084SOL    HW228027  13.259   0.108  11.765
42085SOL     OW28028   1.752   1.100   2.284
42085SOL    HW128029   1.764   1.170   2.349
42085SOL    HW228030   1.804   1.128   2.209
42086SOL     OW28031  14.278  13.635   2.355
42086SOL    HW128032  14.214  13.680   2.300
42086SOL    HW228033  14.286  13.548   2.316
42087SOL     OW28034  14.114  11.703   8.079
42087SOL    HW128035  14.178  11.655   8.025
42087SOL    HW228036  14.167  11.742   8.149
42088SOL     OW28037  10.463  12.557   6.421
42088SOL    HW128038  10.408  12.541   6.345
42088SOL    HW228039  10.551  12.532   6.393
42089SOL     OW28040  12.961  14.601   6.243
42089SOL    HW128041  13.031  14.662   6.265
42089SOL    HW228042  13.005  14.518   6.225
42090SOL     OW28043   1.882  10.014   0.698
42090SOL    HW128044   1.857  10.017   0.606
42090SOL    HW228045   1.820  10.073   0.741
42091SOL     OW28046   6.358  10.479   8.751
42091SOL    HW128047   6.358  10.461   8.656
42091SOL    HW228048   6.336  10.572   8.758
42092SOL     OW28049  11.530  14.878   7.594
42092SOL    HW128050  11.478  14.807   7.631
42092SOL    HW228051  11.471   0.072   7.593
42093SOL     OW28052   9.047  13.538   6.654
42093SOL    HW128053   9.041  13.616   6.599
42093SOL    HW228054   9.140  13.532   6.677
42094SOL     OW28055  12.284   2.940   8.048
42094SOL    HW128056  12.376   2.944   8.074
42094SOL    HW228057  12.250   3.027   8.066
42095SOL     OW28058  13.652   0.545   6.332
42095SOL    HW128059  13.723   0.605   6.355
42095SOL    HW228060  13.572   0.590   6.359
42096SOL     OW28061   9.685   5.610   7.220
42096SOL    HW128062   9.636   5.654   7.290
42096SOL    HW228063   9.751   5.558   7.267
42097SOL     OW28064   1.573   1.026   0.998
42097SOL    HW128065   1.558   0.958   1.064
42097SOL    HW228066   1.668   1.036   0.996
42098SOL     OW28067  11.942   4.371   7.221
42098SOL    HW128068  11.869   4.375   7.283
42098SOL    HW228069  12.017   4.343   7.274
42099SOL     OW28070   7.945  10.907   4.783
42099SOL    HW128071   7.941  10.812   4.770
42099SOL    HW228072   8.038  10.927   4.788
42100SOL     OW28073  10.642  11.414  13.451
42100SOL    HW128074  10.719  11.384  13.499
42100SOL    HW228075  10.569  11.367  13.490
42101SOL     OW28076   3.508   6.381  10.311
42101SOL    HW128077   3.579   6.330  10.273
42101SOL    HW228078   3.446   6.392  10.238
42102SOL     OW28079   2.642  13.368  11.071
42102SOL    HW128080   2.665  13.363  11.164
42102SOL    HW228081   2.561  13.420  11.069
42103SOL     OW28082   7.403  11.133  10.005
42103SOL    HW128083   7.377  11.042  10.020
42103SOL    HW228084   7.397  11.144   9.910
42104SOL     OW28085   9.441  12.393   1.808
42104SOL    HW128086   9.386  12.315   1.807
42104SOL    HW228087   9.531  12.360   1.807
42105SOL     OW28088  11.986   1.550  12.840
42105SOL    HW128089  11.931   1.626  12.819
42105SOL    HW228090  12.075   1.578  12.820
42106SOL     OW28091   1.946   4.930   8.492
42106SOL    HW128092   1.890   5.008   8.497
42106SOL    HW228093   2.004   4.947   8.418
42107SOL     OW28094   9.670   1.685  12.447
42107SOL    HW128095   9.633   1.748  12.385
42107SOL    HW228096   9.703   1.739  12.519
42108SOL     OW28097   8.961   7.961  14.667
42108SOL    HW128098   8.882   7.999  14.630
42108SOL    HW228099   9.021   7.953  14.593
42109SOL     OW28100   7.780   2.848   9.758
42109SOL    HW128101   7.751   2.802   9.836
42109SOL    HW228102   7.805   2.935   9.789
42110SOL     OW28103   0.902  13.829   2.028
42110SOL    HW128104   0.915  13.734   2.023
42110SOL    HW228105   0.821  13.840   2.077
42111SOL     OW28106   0.713   0.651  12.919
42111SOL    HW128107   0.699   0.561  12.947
42111SOL    HW228108   0.631   0.677  12.877
42112SOL     OW28109  14.148   1.985   5.030
42112SOL    HW128110  14.179   1.997   4.940
42112SOL    HW228111  14.225   1.954   5.078
42113SOL     OW28112   3.402   5.589   3.811
42113SOL    HW128113   3.334   5.613   3.875
42113SOL    HW228114   3.464   5.662   3.813
42114SOL     OW28115   6.382   7.742  13.438
42114SOL    HW128116   6.396   7.683  13.365
42114SOL    HW228117   6.453   7.807  13.431
42115SOL     OW28118  13.362   1.513   3.946
42115SOL    HW128119  13.381   1.568   4.022
42115SOL    HW228120  13.376   1.424   3.976
42116SOL     OW28121   6.260   9.687   1.155
42116SOL    HW128122   6.300   9.620   1.100
42116SOL    HW228123   6.239   9.759   1.094
42117SOL     OW28124   3.373  12.554   7.506
42117SOL    HW128125   3.432  12.629   7.497
42117SOL    HW228126   3.306  12.584   7.568
42118SOL     OW28127   5.964   5.446   7.163
42118SOL    HW128128   5.909   5.423   7.238
42118SOL    HW228129   6.053   5.433   7.194
42119SOL     OW28130   9.048  14.728  11.311
42119SOL    HW128131   9.083  14.798  11.365
42119SOL    HW228132   9.102  14.651  11.333
42120SOL     OW28133   4.888  14.341  14.468
42120SOL    HW128134   4.859  14.372  14.554
42120SOL    HW228135   4.815  14.364  14.409
42121SOL     OW28136  10.954   4.977   1.606
42121SOL    HW128137  10.864   4.949   1.592
42121SOL    HW228138  11.007   4.908   1.566
42122SOL     OW28139   5.528   4.871   3.255
42122SOL    HW128140   5.611   4.900   3.217
42122SOL    HW228141   5.501   4.798   3.198
42123SOL     OW28142  10.774   6.903  11.284
42123SOL    HW128143  10.858   6.908  11.238
42123SOL    HW228144  10.798   6.905  11.377
42124SOL     OW28145  12.398   0.625  12.688
42124SOL    HW128146  12.313   0.614  12.646
42124SOL    HW228147  12.384   0.595  12.778
42125SOL     OW28148  11.917   6.182   1.286
42125SOL    HW128149  11.921   6.160   1.193
42125SOL    HW228150  11.900   6.277   1.287
42126SOL     OW28151   5.445   8.997   0.473
42126SOL    HW128152   5.516   9.010   0.536
42126SOL    HW228153   5.458   8.909   0.439
42127SOL     OW28154   3.510   7.046   8.649
42127SOL    HW128155   3.524   6.994   8.569
42127SOL    HW228156   3.568   7.005   8.714
42128SOL     OW28157   5.021   2.334   7.990
42128SOL    HW128158   5.089   2.272   7.963
42128SOL    HW228159   5.061   2.386   8.059
42129SOL     OW28160  13.440  10.251   9.292
42129SOL    HW128161  13.509  10.284   9.350
42129SOL    HW228162  13.426  10.322   9.229
42130SOL     OW28163   4.822   2.586   8.470
42130SOL    HW128164   4.777   2.508   8.437
42130SOL    HW228165   4.878   2.554   8.540
42131SOL     OW28166  10.171   4.822   1.348
42131SOL    HW128167  10.216   4.819   1.263
42131SOL    HW228168  10.096   4.881   1.334
42132SOL     OW28169   3.590   4.793   2.430
42132SOL    HW128170   3.543   4.845   2.364
42132SOL    HW228171   3.527   4.783   2.501
42133SOL     OW28172  13.240   4.901   1.197
42133SOL    HW128173  13.243   4.942   1.284
42133SOL    HW228174  13.185   4.960   1.145
42134SOL     OW28175   9.406   1.363   4.268
42134SOL    HW128176   9.465   1.311   4.322
42134SOL    HW228177   9.394   1.445   4.317
42135SOL     OW28178  11.694  12.158   1.862
42135SOL    HW128179  11.715  12.185   1.773
42135SOL    HW228180  11.615  12.208   1.885
42136SOL     OW28181   1.066  13.849   5.989
42136SOL    HW128182   0.972  13.856   6.002
42136SOL    HW228183   1.101  13.933   6.019
42137SOL     OW28184  11.537  13.948   4.188
42137SOL    HW128185  11.504  13.914   4.105
42137SOL    HW228186  11.479  13.910   4.254
42138SOL     OW28187   7.467  11.724   9.114
42138SOL    HW128188   7.405  11.729   9.041
42138SOL    HW228189   7.508  11.810   9.116
42139SOL     OW28190   4.534   1.000   2.700
42139SOL    HW128191   4.464   0.934   2.700
42139SOL    HW228192   4.528   1.041   2.786
42140SOL     OW28193  14.519  12.800   0.609
42140SOL    HW128194  14.461  12.822   0.682
42140SOL    HW228195  14.500  12.708   0.591
42141SOL     OW28196   9.155   4.630  13.497
42141SOL    HW128197   9.250   4.635  13.494
42141SOL    HW228198   9.125   4.677  13.420
42142SOL     OW28199   4.916  13.037   1.569
42142SOL    HW128200   4.909  13.059   1.476
42142SOL    HW228201   4.886  12.946   1.574
42143SOL     OW28202   0.904   3.290   8.592
42143SOL    HW128203   0.961   3.362   8.618
42143SOL    HW228204   0.885   3.243   8.673
42144SOL     OW28205   9.261   1.912   4.095
42144SOL    HW128206   9.321   1.970   4.049
42144SOL    HW228207   9.182   1.964   4.108
42145SOL     OW28208   4.973  13.525   4.299
42145SOL    HW128209   5.064  13.507   4.322
42145SOL    HW228210   4.979  13.583   4.223
42146SOL     OW28211   6.993  11.390   6.406
42146SOL    HW128212   6.976  11.406   6.499
42146SOL    HW228213   6.938  11.453   6.360
42147SOL     OW28214   5.960  14.031  10.858
42147SOL    HW128215   5.894  14.100  10.867
42147SOL    HW228216   6.043  14.077  10.851
42148SOL     OW28217   1.264  13.979  11.341
42148SOL    HW128218   1.357  14.001  11.341
42148SOL    HW228219   1.235  14.000  11.252
42149SOL     OW28220  14.644   8.522   7.338
42149SOL    HW128221  14.567   8.573   7.364
42149SOL    HW228222  14.715   8.556   7.394
42150SOL     OW28223  14.770   9.591  12.597
42150SOL    HW128224  14.761   9.556  12.686
42150SOL    HW228225  14.800   9.517  12.545
42151SOL     OW28226   5.103  11.784  10.316
42151SOL    HW128227   5.186  11.826  10.339
42151SOL    HW228228   5.066  11.839  10.248
42152SOL     OW28229  12.714   9.486   9.795
42152SOL    HW128230  12.632   9.523   9.763
42152SOL    HW228231  12.687   9.410   9.846
42153SOL     OW28232   5.546   7.759  11.925
42153SOL    HW128233   5.599   7.709  11.863
42153SOL    HW228234   5.492   7.816  11.871
42154SOL     OW28235   8.261  14.416   6.615
42154SOL    HW128236   8.276  14.425   6.521
42154SOL    HW228237   8.169  14.390   6.622
42155SOL     OW28238  12.435   1.089   7.927
42155SOL    HW128239  12.497   1.143   7.976
42155SOL    HW228240  12.488   1.016   7.894
42156SOL     OW28241   1.053   3.214   9.281
42156SOL    HW128242   1.020   3.302   9.299
42156SOL    HW228243   1.146   3.228   9.260
42157SOL     OW28244   7.828  14.362  11.276
42157SOL    HW128245   7.820  14.404  11.190
42157SOL    HW228246   7.916  14.324  11.276
42158SOL     OW28247   7.074   1.940   1.779
42158SOL    HW128248   7.169   1.941   1.783
42158SOL    HW228249   7.051   2.005   1.714
42159SOL     OW28250   9.874   0.226   5.362
42159SOL    HW128251   9.846   0.135   5.375
42159SOL    HW228252   9.792   0.274   5.347
42160SOL     OW28253   4.115   8.934   5.871
42160SOL    HW128254   4.023   8.914   5.889
42160SOL    HW228255   4.114   8.977   5.785
42161SOL     OW28256  13.863   9.017   4.177
42161SOL    HW128257  13.920   9.000   4.102
42161SOL    HW228258  13.915   9.074   4.235
42162SOL     OW28259  14.461   0.098   0.379
42162SOL    HW128260  14.553   0.087   0.357
42162SOL    HW228261  14.416   0.093   0.294
42163SOL     OW28262   6.666   1.277   7.062
42163SOL    HW128263   6.629   1.365   7.058
42163SOL    HW228264   6.732   1.281   7.131
42164SOL     OW28265  12.211  14.081   3.085
42164SOL    HW128266  12.220  13.997   3.128
42164SOL    HW228267  12.167  14.137   3.149
42165SOL     OW28268   7.429   9.184  12.210
42165SOL    HW128269   7.516   9.152  12.184
42165SOL    HW228270   7.404   9.128  12.283
42166SOL     OW28271  12.064   2.366  10.886
42166SOL    HW128272  12.096   2.426  10.818
42166SOL    HW228273  12.128   2.374  10.957
42167SOL     OW28274  12.831   6.393   5.413
42167SOL    HW128275  12.755   6.335   5.413
42167SOL    HW228276  12.884   6.361   5.339
42168SOL     OW28277  14.220  14.687  14.218
42168SOL    HW128278  14.254  14.682  14.307
42168SOL    HW228279  14.150  14.623  14.216
42169SOL     OW28280   1.101   4.409   5.194
42169SOL    HW128281   1.138   4.334   5.241
42169SOL    HW228282   1.114   4.388   5.101
42170SOL     OW28283   9.942  12.392   2.056
42170SOL    HW128284   9.916  12.300   2.047
42170SOL    HW228285   9.924  12.413   2.147
42171SOL     OW28286   6.303   8.409   1.894
42171SOL    HW128287   6.242   8.418   1.821
42171SOL    HW228288   6.307   8.315   1.911
42172SOL     OW28289   7.470  12.537   8.098
42172SOL    HW128290   7.487  12.444   8.087
42172SOL    HW228291   7.536  12.566   8.162
42173SOL     OW28292   7.999   8.637   5.469
42173SOL    HW128293   8.030   8.694   5.398
42173SOL    HW228294   7.928   8.586   5.431
42174SOL     OW28295   1.591   3.556  10.251
42174SOL    HW128296   1.665   3.598  10.295
42174SOL    HW228297   1.592   3.466  10.282
42175SOL     OW28298  14.072   0.900  10.847
42175SOL    HW128299  13.979   0.897  10.823
42175SOL    HW228300  14.106   0.976  10.799
42176SOL     OW28301   5.853   6.768  12.490
42176SOL    HW128302   5.947   6.755  12.503
42176SOL    HW228303   5.836   6.856  12.525
42177SOL     OW28304   1.528   3.483  14.191
42177SOL    HW128305   1.477   3.486  14.272
42177SOL    HW228306   1.584   3.560  14.196
42178SOL     OW28307  13.836   7.711   3.021
42178SOL    HW128308  13.902   7.734   2.956
42178SOL    HW228309  13.765   7.672   2.970
42179SOL     OW28310   4.271  11.174   5.433
42179SOL    HW128311   4.305  11.121   5.504
42179SOL    HW228312   4.212  11.115   5.385
42180SOL     OW28313   7.974   4.133   9.326
42180SOL    HW128314   7.937   4.194   9.263
42180SOL    HW228315   7.965   4.047   9.285
42181SOL     OW28316  12.138  13.220  14.406
42181SOL    HW128317  12.051  13.258  14.397
42181SOL    HW228318  12.124  13.126  14.405
42182SOL     OW28319   0.659   4.311   1.547
42182SOL    HW128320   0.671   4.241   1.483
42182SOL    HW228321   0.708   4.385   1.511
42183SOL     OW28322   8.547   8.786  10.431
42183SOL    HW128323   8.555   8.868  10.382
42183SOL    HW228324   8.466   8.747  10.400
42184SOL     OW28325   8.185   1.868   7.709
42184SOL    HW128326   8.211   1.786   7.750
42184SOL    HW228327   8.092   1.878   7.729
42185SOL     OW28328   8.211   6.699   1.759
42185SOL    HW128329   8.122   6.687   1.727
42185SOL    HW228330   8.249   6.611   1.759
42186SOL     OW28331  11.166  11.255  14.302
42186SOL    HW128332  11.158  11.198  14.379
42186SOL    HW228333  11.163  11.196  14.228
42187SOL     OW28334  11.025   8.494   7.609
42187SOL    HW128335  11.050   8.552   7.537
42187SOL    HW228336  10.985   8.418   7.566
42188SOL     OW28337  12.705   5.467   8.338
42188SOL    HW128338  12.713   5.426   8.252
42188SOL    HW228339  12.795   5.486   8.365
42189SOL     OW28340   8.199   0.976  12.741
42189SOL    HW128341   8.135   1.025  12.792
42189SOL    HW228342   8.161   0.972  12.653
42190SOL     OW28343   1.953  14.382  12.235
42190SOL    HW128344   1.929  14.310  12.294
42190SOL    HW228345   1.936  14.461  12.285
42191SOL     OW28346   6.028  10.908  12.675
42191SOL    HW128347   5.948  10.936  12.719
42191SOL    HW228348   6.056  10.830  12.723
42192SOL     OW28349   1.827  11.532   8.183
42192SOL    HW128350   1.759  11.470   8.206
42192SOL    HW228351   1.891  11.527   8.254
42193SOL     OW28352   7.357   7.312  13.678
42193SOL    HW128353   7.330   7.286  13.766
42193SOL    HW228354   7.342   7.234  13.625
42194SOL     OW28355   5.352   6.308   1.015
42194SOL    HW128356   5.365   6.216   1.039
42194SOL    HW228357   5.283   6.306   0.948
42195SOL     OW28358   9.009   8.133  10.416
42195SOL    HW128359   9.075   8.067  10.439
42195SOL    HW228360   9.060   8.210  10.392
42196SOL     OW28361   5.092   1.596  12.535
42196SOL    HW128362   5.010   1.568  12.494
42196SOL    HW228363   5.158   1.581  12.468
42197SOL     OW28364   2.993  11.860   2.651
42197SOL    HW128365   2.971  11.804   2.725
42197SOL    HW228366   2.914  11.860   2.596
42198SOL     OW28367  12.716   5.694  12.581
42198SOL    HW128368  12.669   5.760  12.530
42198SOL    HW228369  12.791   5.670  12.527
42199SOL     OW28370  13.547   3.947  11.045
42199SOL    HW128371  13.512   3.870  11.089
42199SOL    HW228372  13.490   4.019  11.074
42200SOL     OW28373   4.357  11.557  14.801
42200SOL    HW128374   4.399  11.637  14.770
42200SOL    HW228375   4.405  11.535  14.881
42201SOL     OW28376   8.149   4.820   2.791
42201SOL    HW128377   8.111   4.825   2.704
42201SOL    HW228378   8.083   4.776   2.844
42202SOL     OW28379  11.405  12.018   1.762
42202SOL    HW128380  11.405  12.113   1.773
42202SOL    HW228381  11.377  11.985   1.848
42203SOL     OW28382  13.631  12.560  10.404
42203SOL    HW128383  13.584  12.594  10.328
42203SOL    HW228384  13.723  12.558  10.377
42204SOL     OW28385   4.362   1.140   4.398
42204SOL    HW128386   4.397   1.104   4.317
42204SOL    HW228387   4.297   1.205   4.370
42205SOL     OW28388   2.378   2.529   3.602
42205SOL    HW128389   2.409   2.468   3.668
42205SOL    HW228390   2.291   2.497   3.579
42206SOL     OW28391   7.972  11.110  12.340
42206SOL    HW128392   7.994  11.042  12.403
42206SOL    HW228393   7.881  11.134  12.361
42207SOL     OW28394   1.630   9.913  10.405
42207SOL    HW128395   1.624   9.990  10.348
42207SOL    HW228396   1.619   9.948  10.493
42208SOL     OW28397  14.868  14.761   5.228
42208SOL    HW128398  14.833  14.776   5.316
42208SOL    HW228399  14.880  14.667   5.223
42209SOL     OW28400  13.304   7.518  11.493
42209SOL    HW128401  13.279   7.463  11.567
42209SOL    HW228402  13.397   7.538  11.508
42210SOL     OW28403   9.635  14.159   9.271
42210SOL    HW128404   9.628  14.082   9.215
42210SOL    HW228405   9.668  14.125   9.354
42211SOL     OW28406   3.271   0.179   0.244
42211SOL    HW128407   3.255   0.091   0.211
42211SOL    HW228408   3.186   0.222   0.243
42212SOL     OW28409   7.709   3.986   4.828
42212SOL    HW128410   7.788   4.007   4.779
42212SOL    HW228411   7.646   4.054   4.802
42213SOL     OW28412   8.056  12.736   7.088
42213SOL    HW128413   8.054  12.750   6.994
42213SOL    HW228414   8.082  12.644   7.099
42214SOL     OW28415   5.943  13.151  13.723
42214SOL    HW128416   5.951  13.212  13.796
42214SOL    HW228417   5.945  13.207  13.645
42215SOL     OW28418   4.991   6.567   5.628
42215SOL    HW128419   5.008   6.577   5.722
42215SOL    HW228420   5.077   6.572   5.587
42216SOL     OW28421   0.365   5.283   4.856
42216SOL    HW128422   0.332   5.218   4.794
42216SOL    HW228423   0.460   5.283   4.841
42217SOL     OW28424   1.072   6.544   0.038
42217SOL    HW128425   1.137   6.602   0.000
42217SOL    HW228426   1.121   6.466   0.064
42218SOL     OW28427   1.759   8.349   6.836
42218SOL    HW128428   1.826   8.404   6.877
42218SOL    HW228429   1.678   8.398   6.847
42219SOL     OW28430   5.906   0.154   1.768
42219SOL    HW128431   5.958   0.234   1.772
42219SOL    HW228432   5.902   0.133   1.675
42220SOL     OW28433   4.016   2.356   3.334
42220SOL    HW128434   3.974   2.314   3.258
42220SOL    HW228435   4.100   2.312   3.343
42221SOL     OW28436   9.970  11.898   1.879
42221SOL    HW128437  10.052  11.890   1.831
42221SOL    HW228438   9.928  11.812   1.870
42222SOL     OW28439  12.929   6.743   7.584
42222SOL    HW128440  12.834   6.747   7.570
42222SOL    HW228441  12.955   6.659   7.549
42223SOL     OW28442   1.116   7.980   3.836
42223SOL    HW128443   1.135   7.929   3.757
42223SOL    HW228444   1.020   7.976   3.845
42224SOL     OW28445  10.576   7.071   8.636
42224SOL    HW128446  10.495   7.064   8.587
42224SOL    HW228447  10.550   7.106   8.722
42225SOL     OW28448   1.622   6.101   6.217
42225SOL    HW128449   1.610   6.162   6.290
42225SOL    HW228450   1.574   6.022   6.242
42226SOL     OW28451   4.576   5.028   9.984
42226SOL    HW128452   4.482   5.029  10.002
42226SOL    HW228453   4.604   4.939  10.005
42227SOL     OW28454  12.640   2.708   1.392
42227SOL    HW128455  12.575   2.657   1.343
42227SOL    HW228456  12.681   2.764   1.326
42228SOL     OW28457  14.541  10.105   4.867
42228SOL    HW128458  14.633  10.124   4.882
42228SOL    HW228459  14.536  10.009   4.869
42229SOL     OW28460  10.495   1.417  14.366
42229SOL    HW128461  10.554   1.452  14.299
42229SOL    HW228462  10.513   1.471  14.443
42230SOL     OW28463   1.532   1.774   3.876
42230SOL    HW128464   1.567   1.856   3.841
42230SOL    HW228465   1.448   1.763   3.833
42231SOL     OW28466   0.897   4.943   3.712
42231SOL    HW128467   0.927   5.033   3.726
42231SOL    HW228468   0.967   4.902   3.661
42232SOL     OW28469   7.829   3.305   7.204
42232SOL    HW128470   7.892   3.377   7.199
42232SOL    HW228471   7.774   3.315   7.126
42233SOL     OW28472  13.511   7.559  10.010
42233SOL    HW128473  13.467   7.636   9.975
42233SOL    HW228474  13.579   7.538   9.946
42234SOL     OW28475   3.901   9.438   5.297
42234SOL    HW128476   3.932   9.474   5.214
42234SOL    HW228477   3.980   9.429   5.350
42235SOL     OW28478   5.766   3.078   0.936
42235SOL    HW128479   5.692   3.056   0.993
42235SOL    HW228480   5.826   3.128   0.991
42236SOL     OW28481   3.600  14.426   8.161
42236SOL    HW128482   3.651  14.506   8.163
42236SOL    HW228483   3.624  14.380   8.242
42237SOL     OW28484  13.630  13.717   7.562
42237SOL    HW128485  13.632  13.788   7.626
42237SOL    HW228486  13.673  13.644   7.606
42238SOL     OW28487  10.333  14.671   4.578
42238SOL    HW128488  10.394  14.744   4.590
42238SOL    HW228489  10.319  14.637   4.667
42239SOL     OW28490  13.457   9.735   5.387
42239SOL    HW128491  13.493   9.824   5.390
42239SOL    HW228492  13.467   9.708   5.296
42240SOL     OW28493   3.202  10.285   1.307
42240SOL    HW128494   3.202  10.380   1.291
42240SOL    HW228495   3.110  10.261   1.312
42241SOL     OW28496  10.235  12.987   1.521
42241SOL    HW128497  10.196  12.971   1.607
42241SOL    HW228498  10.328  12.997   1.538
42242SOL     OW28499   0.130   7.769  14.064
42242SOL    HW128500   0.083   7.781  13.982
42242SOL    HW228501   0.061   7.772  14.131
42243SOL     OW28502  11.962   5.360   4.027
42243SOL    HW128503  11.973   5.302   4.102
42243SOL    HW228504  12.038   5.419   4.031
42244SOL     OW28505   4.140  13.154  11.168
42244SOL    HW128506   4.045  13.144  11.164
42244SOL    HW228507   4.174  13.082  11.115
42245SOL     OW28508   2.062   7.742  10.386
42245SOL    HW128509   2.126   7.812  10.372
42245SOL    HW228510   2.089   7.673  10.324
42246SOL     OW28511  10.082   8.497   6.424
42246SOL    HW128512  10.019   8.442   6.377
42246SOL    HW228513  10.130   8.542   6.354
42247SOL     OW28514   0.600  12.482  14.293
42247SOL    HW128515   0.571  12.413  14.233
42247SOL    HW228516   0.524  12.500  14.348
42248SOL     OW28517   8.556   9.475   2.468
42248SOL    HW128518   8.536   9.488   2.561
42248SOL    HW228519   8.643   9.436   2.468
42249SOL     OW28520   9.254   0.047  12.777
42249SOL    HW128521   9.295   0.003  12.852
42249SOL    HW228522   9.210  14.858  12.730
42250SOL     OW28523   0.157  14.348  11.636
42250SOL    HW128524   0.222  14.412  11.605
42250SOL    HW228525   0.186  14.265  11.599
42251SOL     OW28526  13.031   4.598  12.262
42251SOL    HW128527  13.019   4.581  12.169
42251SOL    HW228528  13.110   4.551  12.286
42252SOL     OW28529   9.813   8.752   5.840
42252SOL    HW128530   9.762   8.833   5.846
42252SOL    HW228531   9.822   8.736   5.746
42253SOL     OW28532  13.871  14.386  11.030
42253SOL    HW128533  13.877  14.364  10.937
42253SOL    HW228534  13.931  14.325  11.073
42254SOL     OW28535   4.540   0.296   9.813
42254SOL    HW128536   4.582   0.382   9.810
42254SOL    HW228537   4.583   0.246   9.745
42255SOL     OW28538   0.103  12.569   8.074
42255SOL    HW128539   0.146  12.484   8.071
42255SOL    HW228540   0.031  12.562   8.011
42256SOL     OW28541   7.597   4.214  11.736
42256SOL    HW128542   7.661   4.145  11.757
42256SOL    HW228543   7.647   4.279  11.687
42257SOL     OW28544  10.774  13.514  12.294
42257SOL    HW128545  10.747  13.426  12.268
42257SOL    HW228546  10.789  13.507  12.389
42258SOL     OW28547   3.807  13.260   5.034
42258SOL    HW128548   3.827  13.251   4.941
42258SOL    HW228549   3.863  13.333   5.063
42259SOL     OW28550  11.738   7.462  12.984
42259SOL    HW128551  11.808   7.461  12.919
42259SOL    HW228552  11.685   7.538  12.961
42260SOL     OW28553  13.962   4.157   8.334
42260SOL    HW128554  14.019   4.196   8.401
42260SOL    HW228555  13.889   4.219   8.327
42261SOL     OW28556   4.042   3.443   2.815
42261SOL    HW128557   3.948   3.450   2.830
42261SOL    HW228558   4.069   3.368   2.868
42262SOL     OW28559  12.383   0.243  13.202
42262SOL    HW128560  12.327   0.179  13.245
42262SOL    HW228561  12.339   0.261  13.119
42263SOL     OW28562   2.043  12.424  11.759
42263SOL    HW128563   2.125  12.444  11.805
42263SOL    HW228564   2.051  12.332  11.735
42264SOL     OW28565   9.878  11.287  12.509
42264SOL    HW128566   9.793  11.318  12.479
42264SOL    HW228567   9.860  11.244  12.592
42265SOL     OW28568   7.981   5.353  14.187
42265SOL    HW128569   8.044   5.372  14.256
42265SOL    HW228570   7.977   5.433  14.135
42266SOL     OW28571  11.254   0.746   0.115
42266SOL    HW128572  11.268   0.831   0.074
42266SOL    HW228573  11.160   0.731   0.107
42267SOL     OW28574  10.462   3.426   0.393
42267SOL    HW128575  10.422   3.434   0.480
42267SOL    HW228576  10.551   3.395   0.410
42268SOL     OW28577   3.059  12.039   5.126
42268SOL    HW128578   3.055  11.947   5.099
42268SOL    HW228579   2.968  12.069   5.122
42269SOL     OW28580   9.931  14.404   6.343
42269SOL    HW128581   9.891  14.334   6.292
42269SOL    HW228582   9.885  14.484   6.317
42270SOL     OW28583  11.511  10.408  10.935
42270SOL    HW128584  11.562  10.339  10.979
42270SOL    HW228585  11.441  10.362  10.890
42271SOL     OW28586   2.642   0.680  10.787
42271SOL    HW128587   2.680   0.750  10.733
42271SOL    HW228588   2.714   0.650  10.841
42272SOL     OW28589   2.405  11.827  11.987
42272SOL    HW128590   2.490  11.871  11.997
42272SOL    HW228591   2.366  11.829  12.074
42273SOL     OW28592  10.568   9.052   5.978
42273SOL    HW128593  10.619   9.133   5.973
42273SOL    HW228594  10.620   8.994   6.033
42274SOL     OW28595   6.725  10.611  13.384
42274SOL    HW128596   6.778  10.620  13.464
42274SOL    HW228597   6.668  10.536  13.402
42275SOL     OW28598   2.121   7.843   5.216
42275SOL    HW128599   2.033   7.876   5.234
42275SOL    HW228600   2.136   7.862   5.124
42276SOL     OW28601  13.137   1.528   6.698
42276SOL    HW128602  13.070   1.569   6.753
42276SOL    HW228603  13.087   1.471   6.639
42277SOL     OW28604   0.728   0.596   9.924
42277SOL    HW128605   0.762   0.523   9.871
42277SOL    HW228606   0.731   0.671   9.865
42278SOL     OW28607   1.768  10.272   4.102
42278SOL    HW128608   1.679  10.289   4.071
42278SOL    HW228609   1.765  10.184   4.139
42279SOL     OW28610  12.399   2.961   4.043
42279SOL    HW128611  12.354   3.023   4.100
42279SOL    HW228612  12.339   2.886   4.038
42280SOL     OW28613  13.802   5.380   5.280
42280SOL    HW128614  13.847   5.323   5.342
42280SOL    HW228615  13.840   5.358   5.195
42281SOL     OW28616   1.249   1.251   7.526
42281SOL    HW128617   1.283   1.163   7.512
42281SOL    HW228618   1.259   1.266   7.620
42282SOL     OW28619   0.234  11.268  13.346
42282SOL    HW128620   0.244  11.176  13.372
42282SOL    HW228621   0.309  11.312  13.387
42283SOL     OW28622  11.772   9.295  13.478
42283SOL    HW128623  11.682   9.269  13.459
42283SOL    HW228624  11.780   9.382  13.440
42284SOL     OW28625  14.659  10.524   0.834
42284SOL    HW128626  14.729  10.476   0.790
42284SOL    HW228627  14.664  10.612   0.797
42285SOL     OW28628  14.283   6.350   0.206
42285SOL    HW128629  14.292   6.262   0.169
42285SOL    HW228630  14.341   6.350   0.282
42286SOL     OW28631   4.154  10.384   6.875
42286SOL    HW128632   4.108  10.403   6.957
42286SOL    HW228633   4.183  10.470   6.844
42287SOL     OW28634  14.029  10.842  12.723
42287SOL    HW128635  14.068  10.755  12.719
42287SOL    HW228636  14.050  10.874  12.810
42288SOL     OW28637   5.479   7.440   7.197
42288SOL    HW128638   5.407   7.384   7.172
42288SOL    HW228639   5.508   7.481   7.116
42289SOL     OW28640   1.548  14.245   4.969
42289SOL    HW128641   1.639  14.217   4.983
42289SOL    HW228642   1.555  14.338   4.948
42290SOL     OW28643   9.018   3.593  10.201
42290SOL    HW128644   8.982   3.662  10.258
42290SOL    HW228645   8.954   3.522  10.206
42291SOL     OW28646   9.928  13.791   6.254
42291SOL    HW128647   9.834  13.796   6.274
42291SOL    HW228648   9.964  13.734   6.322
42292SOL     OW28649  12.093   3.854  10.364
42292SOL    HW128650  12.181   3.889  10.350
42292SOL    HW228651  12.107   3.761  10.383
42293SOL     OW28652  12.928   3.381  14.125
42293SOL    HW128653  12.936   3.290  14.152
42293SOL    HW228654  12.950   3.432  14.203
42294SOL     OW28655   3.240   4.510   8.814
42294SOL    HW128656   3.273   4.434   8.862
42294SOL    HW228657   3.217   4.574   8.883
42295SOL     OW28658   5.340   1.202  11.924
42295SOL    HW128659   5.332   1.109  11.946
42295SOL    HW228660   5.434   1.219  11.921
42296SOL     OW28661   1.167   4.756  11.114
42296SOL    HW128662   1.226   4.692  11.154
42296SOL    HW228663   1.080   4.731  11.145
42297SOL     OW28664  13.342  14.569  10.289
42297SOL    HW128665  13.290  14.564  10.369
42297SOL    HW228666  13.311  14.496  10.235
42298SOL     OW28667   1.274   6.002   7.550
42298SOL    HW128668   1.231   6.029   7.631
42298SOL    HW228669   1.348   5.948   7.579
42299SOL     OW28670  10.881   0.619   9.772
42299SOL    HW128671  10.860   0.566   9.849
42299SOL    HW228672  10.907   0.555   9.706
42300SOL     OW28673   2.351  10.108   0.252
42300SOL    HW128674   2.327  10.187   0.202
42300SOL    HW228675   2.374  10.141   0.339
42301SOL     OW28676   8.263   4.651   3.792
42301SOL    HW128677   8.292   4.585   3.728
42301SOL    HW228678   8.320   4.637   3.868
42302SOL     OW28679   4.989  10.269   5.472
42302SOL    HW128680   5.017  10.360   5.486
42302SOL    HW228681   5.023  10.223   5.549
42303SOL     OW28682  10.693  13.849   1.296
42303SOL    HW128683  10.780  13.835   1.260
42303SOL    HW228684  10.639  13.781   1.257
42304SOL     OW28685   3.815   9.767  12.330
42304SOL    HW128686   3.778   9.797  12.413
42304SOL    HW228687   3.909   9.766  12.345
42305SOL     OW28688   8.470   3.313   7.374
42305SOL    HW128689   8.504   3.225   7.389
42305SOL    HW228690   8.526   3.370   7.427
42306SOL     OW28691   6.246   6.443   7.036
42306SOL    HW128692   6.325   6.389   7.027
42306SOL    HW228693   6.222   6.435   7.129
42307SOL     OW28694   6.677   4.154  13.081
42307SOL    HW128695   6.722   4.070  13.075
42307SOL    HW228696   6.584   4.133  13.077
42308SOL     OW28697   8.302   5.728  11.281
42308SOL    HW128698   8.354   5.682  11.215
42308SOL    HW228699   8.224   5.758  11.234
42309SOL     OW28700   9.613  12.186   2.163
42309SOL    HW128701   9.546  12.251   2.183
42309SOL    HW228702   9.633  12.146   2.247
42310SOL     OW28703  14.479   2.970   9.909
42310SOL    HW128704  14.529   3.035   9.860
42310SOL    HW228705  14.439   3.020   9.980
42311SOL     OW28706  10.224   3.526   8.135
42311SOL    HW128707  10.247   3.569   8.053
42311SOL    HW228708  10.136   3.558   8.156
42312SOL     OW28709  14.880   3.621   6.079
42312SOL    HW128710   0.060   3.672   6.131
42312SOL    HW228711  14.798   3.623   6.128
42313SOL     OW28712  12.750  11.608   3.030
42313SOL    HW128713  12.780  11.554   2.957
42313SOL    HW228714  12.822  11.668   3.047
42314SOL     OW28715  11.232  14.791   5.219
42314SOL    HW128716  11.162  14.829   5.165
42314SOL    HW228717  11.254  14.861   5.280
42315SOL     OW28718  11.675   8.740   3.079
42315SOL    HW128719  11.703   8.812   3.022
42315SOL    HW228720  11.580   8.737   3.069
42316SOL     OW28721   6.039   0.438  14.550
42316SOL    HW128722   6.002   0.484  14.625
42316SOL    HW228723   6.005   0.349  14.557
42317SOL     OW28724  11.162  12.027   2.224
42317SOL    HW128725  11.073  12.004   2.249
42317SOL    HW228726  11.183  12.103   2.278
42318SOL     OW28727  13.200   3.528   8.512
42318SOL    HW128728  13.255   3.605   8.499
42318SOL    HW228729  13.111   3.564   8.522
42319SOL     OW28730   9.689   4.293   7.717
42319SOL    HW128731   9.768   4.347   7.721
42319SOL    HW228732   9.668   4.274   7.808
42320SOL     OW28733  14.532   7.502   9.472
42320SOL    HW128734  14.585   7.580   9.492
42320SOL    HW228735  14.589   7.429   9.495
42321SOL     OW28736   3.717   0.775   3.777
42321SOL    HW128737   3.810   0.758   3.770
42321SOL    HW228738   3.711   0.854   3.831
42322SOL     OW28739   6.955   3.384   3.641
42322SOL    HW128740   6.972   3.301   3.685
42322SOL    HW228741   7.024   3.442   3.672
42323SOL     OW28742   5.200  13.786   1.176
42323SOL    HW128743   5.108  13.776   1.202
42323SOL    HW228744   5.221  13.704   1.132
42324SOL     OW28745   2.667   5.264   5.408
42324SOL    HW128746   2.650   5.332   5.343
42324SOL    HW228747   2.652   5.308   5.492
42325SOL     OW28748  10.788  11.469   6.703
42325SOL    HW128749  10.765  11.542   6.759
42325SOL    HW228750  10.726  11.474   6.630
42326SOL     OW28751   0.140   9.101  11.900
42326SOL    HW128752   0.132   9.180  11.846
42326SOL    HW228753   0.123   9.029  11.839
42327SOL     OW28754   3.195   4.626   3.146
42327SOL    HW128755   3.267   4.591   3.200
42327SOL    HW228756   3.117   4.615   3.201
42328SOL     OW28757   5.145   0.619   6.141
42328SOL    HW128758   5.061   0.606   6.186
42328SOL    HW228759   5.171   0.707   6.166
42329SOL     OW28760   2.829  14.212   5.127
42329SOL    HW128761   2.896  14.155   5.090
42329SOL    HW228762   2.773  14.154   5.178
42330SOL     OW28763  12.842   1.085   0.497
42330SOL    HW128764  12.884   1.073   0.412
42330SOL    HW228765  12.802   1.000   0.516
42331SOL     OW28766   5.589   4.734   9.597
42331SOL    HW128767   5.649   4.748   9.523
42331SOL    HW228768   5.517   4.795   9.581
42332SOL     OW28769   1.378  10.187  14.869
42332SOL    HW128770   1.467  10.159   0.010
42332SOL    HW228771   1.367  10.158  14.778
42333SOL     OW28772   3.270  12.536   8.505
42333SOL    HW128773   3.312  12.473   8.446
42333SOL    HW228774   3.253  12.613   8.450
42334SOL     OW28775   3.309   3.080   9.042
42334SOL    HW128776   3.268   2.998   9.011
42334SOL    HW228777   3.235   3.139   9.055
42335SOL     OW28778   4.111   2.480   8.993
42335SOL    HW128779   4.175   2.432   9.046
42335SOL    HW228780   4.071   2.542   9.054
42336SOL     OW28781   1.331   0.886   5.541
42336SOL    HW128782   1.326   0.814   5.604
42336SOL    HW228783   1.416   0.875   5.499
42337SOL     OW28784   8.998   8.684  14.285
42337SOL    HW128785   8.985   8.744  14.358
42337SOL    HW228786   8.981   8.597  14.322
42338SOL     OW28787   0.430   7.725   3.592
42338SOL    HW128788   0.372   7.693   3.661
42338SOL    HW228789   0.376   7.726   3.513
42339SOL     OW28790   3.717   4.528   6.521
42339SOL    HW128791   3.724   4.473   6.443
42339SOL    HW228792   3.626   4.519   6.549
42340SOL     OW28793  14.618  13.708  13.960
42340SOL    HW128794  14.627  13.802  13.977
42340SOL    HW228795  14.672  13.666  14.027
42341SOL     OW28796  14.553   0.632  11.023
42341SOL    HW128797  14.609   0.583  11.083
42341SOL    HW228798  14.611   0.699  10.985
42342SOL     OW28799   0.144   9.100   6.240
42342SOL    HW128800   0.239   9.107   6.226
42342SOL    HW228801   0.113   9.048   6.165
42343SOL     OW28802   1.277   7.454  11.964
42343SOL    HW128803   1.254   7.385  11.901
42343SOL    HW228804   1.371   7.445  11.976
42344SOL     OW28805   4.405  14.035   0.987
42344SOL    HW128806   4.415  13.942   0.972
42344SOL    HW228807   4.424  14.047   1.080
42345SOL     OW28808   9.308  10.768   1.897
42345SOL    HW128809   9.366  10.831   1.940
42345SOL    HW228810   9.357  10.686   1.898
42346SOL     OW28811  13.332  12.839   9.768
42346SOL    HW128812  13.281  12.915   9.740
42346SOL    HW228813  13.295  12.815   9.853
42347SOL     OW28814  12.001  11.783  14.470
42347SOL    HW128815  12.009  11.879  14.465
42347SOL    HW228816  12.057  11.751  14.400
42348SOL     OW28817   7.201   3.514  12.268
42348SOL    HW128818   7.241   3.426  12.264
42348SOL    HW228819   7.258   3.568  12.214
42349SOL     OW28820   7.487  11.541  13.997
42349SOL    HW128821   7.433  11.507  13.925
42349SOL    HW228822   7.442  11.511  14.076
42350SOL     OW28823   8.854   5.391   8.021
42350SOL    HW128824   8.811   5.416   8.103
42350SOL    HW228825   8.796   5.425   7.953
42351SOL     OW28826   4.084   3.674   5.446
42351SOL    HW128827   4.108   3.650   5.536
42351SOL    HW228828   4.167   3.672   5.398
42352SOL     OW28829   8.867   5.856  10.756
42352SOL    HW128830   8.778   5.886  10.776
42352SOL    HW228831   8.871   5.766  10.789
42353SOL     OW28832   6.121   2.819   9.355
42353SOL    HW128833   6.080   2.885   9.299
42353SOL    HW228834   6.104   2.848   9.444
42354SOL     OW28835  12.017  14.292   5.203
42354SOL    HW128836  12.050  14.206   5.176
42354SOL    HW228837  11.935  14.274   5.248
42355SOL     OW28838   2.485   2.193   0.073
42355SOL    HW128839   2.494   2.134  14.880
42355SOL    HW228840   2.438   2.269   0.037
42356SOL     OW28841   5.156  11.476  12.532
42356SOL    HW128842   5.167  11.451  12.440
42356SOL    HW228843   5.069  11.514  12.537
42357SOL     OW28844   6.281   8.758   3.192
42357SOL    HW128845   6.329   8.794   3.267
42357SOL    HW228846   6.294   8.822   3.122
42358SOL     OW28847   4.084   0.125   4.206
42358SOL    HW128848   4.041   0.068   4.269
42358SOL    HW228849   4.085   0.211   4.248
42359SOL     OW28850   6.985   5.472  11.950
42359SOL    HW128851   7.050   5.516  11.895
42359SOL    HW228852   6.905   5.470  11.897
42360SOL     OW28853   6.234   4.305  12.432
42360SOL    HW128854   6.259   4.398  12.430
42360SOL    HW228855   6.264   4.271  12.347
42361SOL     OW28856   6.254   1.404  13.775
42361SOL    HW128857   6.284   1.390  13.865
42361SOL    HW228858   6.238   1.498  13.770
42362SOL     OW28859   2.758   7.101   4.808
42362SOL    HW128860   2.799   7.103   4.721
42362SOL    HW228861   2.822   7.056   4.863
42363SOL     OW28862  11.615   1.089   2.580
42363SOL    HW128863  11.566   1.098   2.662
42363SOL    HW228864  11.556   1.120   2.512
42364SOL     OW28865   2.010   5.468  13.266
42364SOL    HW128866   2.022   5.544  13.210
42364SOL    HW228867   2.087   5.467  13.323
42365SOL     OW28868  11.692   0.137  13.754
42365SOL    HW128869  11.760   0.071  13.754
42365SOL    HW228870  11.739   0.220  13.748
42366SOL     OW28871   1.235   1.515   2.158
42366SOL    HW128872   1.269   1.550   2.076
42366SOL    HW228873   1.186   1.437   2.132
42367SOL     OW28874   4.441   4.012   4.662
42367SOL    HW128875   4.428   4.074   4.734
42367SOL    HW228876   4.388   3.936   4.687
42368SOL     OW28877   1.626  14.339   8.553
42368SOL    HW128878   1.718  14.352   8.530
42368SOL    HW228879   1.588  14.294   8.477
42369SOL     OW28880   4.646   8.942   9.756
42369SOL    HW128881   4.741   8.955   9.756
42369SOL    HW228882   4.611   9.023   9.792
42370SOL     OW28883  13.421  12.549  10.177
42370SOL    HW128884  13.403  12.492  10.251
42370SOL    HW228885  13.486  12.501  10.125
42371SOL     OW28886   6.358   0.108   5.155
42371SOL    HW128887   6.340   0.129   5.063
42371SOL    HW228888   6.321   0.183   5.203
42372SOL     OW28889   4.702   3.617   6.981
42372SOL    HW128890   4.654   3.563   7.044
42372SOL    HW228891   4.760   3.672   7.035
42373SOL     OW28892   9.210   0.365   7.003
42373SOL    HW128893   9.131   0.391   6.956
42373SOL    HW228894   9.282   0.396   6.948
42374SOL     OW28895   3.243  13.046   9.152
42374SOL    HW128896   3.156  13.064   9.115
42374SOL    HW228897   3.225  12.998   9.233
42375SOL     OW28898   2.108   8.573   8.947
42375SOL    HW128899   2.078   8.536   8.865
42375SOL    HW228900   2.200   8.596   8.930
42376SOL     OW28901   2.001   3.551   6.673
42376SOL    HW128902   2.080   3.548   6.727
42376SOL    HW228903   2.033   3.566   6.584
42377SOL     OW28904   3.170   9.069   4.355
42377SOL    HW128905   3.077   9.054   4.338
42377SOL    HW228906   3.199   9.126   4.284
42378SOL     OW28907   3.947   6.632   1.035
42378SOL    HW128908   4.029   6.680   1.024
42378SOL    HW228909   3.926   6.601   0.947
42379SOL     OW28910   5.268  12.202   6.262
42379SOL    HW128911   5.194  12.181   6.318
42379SOL    HW228912   5.278  12.297   6.270
42380SOL     OW28913  11.699   8.945  12.158
42380SOL    HW128914  11.681   8.962  12.250
42380SOL    HW228915  11.724   9.030  12.122
42381SOL     OW28916   8.826   2.355   8.679
42381SOL    HW128917   8.849   2.333   8.769
42381SOL    HW228918   8.901   2.326   8.627
42382SOL     OW28919   2.436  12.352   8.805
42382SOL    HW128920   2.385  12.415   8.856
42382SOL    HW228921   2.371  12.303   8.755
42383SOL     OW28922   1.393   7.454  14.244
42383SOL    HW128923   1.435   7.378  14.204
42383SOL    HW228924   1.333   7.487  14.178
42384SOL     OW28925   9.162   4.432   7.505
42384SOL    HW128926   9.101   4.429   7.579
42384SOL    HW228927   9.234   4.488   7.535
42385SOL     OW28928  13.341   8.010   2.990
42385SOL    HW128929  13.421   7.968   2.957
42385SOL    HW228930  13.336   7.982   3.082
42386SOL     OW28931  11.320   3.231  12.152
42386SOL    HW128932  11.228   3.205  12.156
42386SOL    HW228933  11.367   3.162  12.199
42387SOL     OW28934   2.859   4.468   5.647
42387SOL    HW128935   2.876   4.552   5.604
42387SOL    HW228936   2.784   4.432   5.600
42388SOL     OW28937   9.804   1.300   0.656
42388SOL    HW128938   9.794   1.273   0.747
42388SOL    HW228939   9.875   1.364   0.657
42389SOL     OW28940  11.024   0.352  14.157
42389SOL    HW128941  11.115   0.352  14.187
42389SOL    HW228942  10.980   0.417  14.211
42390SOL     OW28943  10.833   9.071   9.307
42390SOL    HW128944  10.875   9.020   9.377
42390SOL    HW228945  10.770   9.127   9.353
42391SOL     OW28946   0.055  10.555  10.199
42391SOL    HW128947   0.008  10.638  10.192
42391SOL    HW228948   0.021  10.514  10.278
42392SOL     OW28949   4.552   6.325   7.726
42392SOL    HW128950   4.645   6.323   7.703
42392SOL    HW228951   4.550   6.370   7.811
42393SOL     OW28952   0.876  13.394  12.883
42393SOL    HW128953   0.891  13.310  12.840
42393SOL    HW228954   0.789  13.386  12.922
42394SOL     OW28955  10.313  11.985  12.562
42394SOL    HW128956  10.364  12.064  12.544
42394SOL    HW228957  10.243  11.987  12.496
42395SOL     OW28958   3.463   2.762   1.952
42395SOL    HW128959   3.548   2.783   1.911
42395SOL    HW228960   3.398   2.803   1.895
42396SOL     OW28961  13.752  10.381  11.899
42396SOL    HW128962  13.747  10.429  11.816
42396SOL    HW228963  13.711  10.440  11.963
42397SOL     OW28964   3.924   6.692  12.733
42397SOL    HW128965   3.980   6.667  12.807
42397SOL    HW228966   3.836   6.661  12.758
42398SOL     OW28967  14.446  13.024   4.083
42398SOL    HW128968  14.441  12.928   4.076
42398SOL    HW228969  14.378  13.055   4.023
42399SOL     OW28970   3.150  11.992  10.090
42399SOL    HW128971   3.174  12.011  10.181
42399SOL    HW228972   3.164  11.898  10.080
42400SOL     OW28973  10.131  12.209  13.912
42400SOL    HW128974  10.074  12.282  13.937
42400SOL    HW228975  10.153  12.226  13.820
42401SOL     OW28976   7.652   8.179   7.709
42401SOL    HW128977   7.738   8.137   7.709
42401SOL    HW228978   7.666   8.264   7.749
42402SOL     OW28979  12.142   1.984   6.388
42402SOL    HW128980  12.180   2.070   6.367
42402SOL    HW228981  12.111   1.950   6.304
42403SOL     OW28982   0.929  11.713   7.359
42403SOL    HW128983   0.838  11.721   7.386
42403SOL    HW228984   0.964  11.802   7.367
42404SOL     OW28985   3.679   6.777  12.067
42404SOL    HW128986   3.748   6.777  12.001
42404SOL    HW228987   3.727   6.774  12.150
42405SOL     OW28988   5.473   3.453   5.312
42405SOL    HW128989   5.427   3.410   5.240
42405SOL    HW228990   5.421   3.530   5.332
42406SOL     OW28991  10.643   1.517   0.840
42406SOL    HW128992  10.689   1.458   0.782
42406SOL    HW228993  10.707   1.585   0.862
42407SOL     OW28994  10.519   0.584   0.156
42407SOL    HW128995  10.477   0.649   0.212
42407SOL    HW228996  10.454   0.567   0.087
42408SOL     OW28997   5.432   0.351  12.851
42408SOL    HW128998   5.375   0.353  12.928
42408SOL    HW228999   5.408   0.430  12.802
42409SOL     OW29000  14.741   4.527  13.999
42409SOL    HW129001  14.646   4.526  14.005
42409SOL    HW229002  14.765   4.619  14.013
42410SOL     OW29003   9.064   8.250   7.423
42410SOL    HW129004   9.103   8.218   7.504
42410SOL    HW229005   8.970   8.232   7.433
42411SOL     OW29006   1.589   7.865   5.430
42411SOL    HW129007   1.525   7.918   5.383
42411SOL    HW229008   1.663   7.857   5.369
42412SOL     OW29009   4.742   5.594   2.808
42412SOL    HW129010   4.718   5.680   2.775
42412SOL    HW229011   4.700   5.532   2.748
42413SOL     OW29012  11.421   9.860   8.157
42413SOL    HW129013  11.512   9.844   8.180
42413SOL    HW229014  11.388   9.917   8.226
42414SOL     OW29015   9.836   6.919   3.320
42414SOL    HW129016   9.797   6.852   3.377
42414SOL    HW229017   9.811   7.002   3.360
42415SOL     OW29018  10.374   7.677  12.153
42415SOL    HW129019  10.440   7.662  12.085
42415SOL    HW229020  10.300   7.716  12.106
42416SOL     OW29021   3.687  12.558   9.792
42416SOL    HW129022   3.656  12.468   9.783
42416SOL    HW229023   3.762  12.563   9.733
42417SOL     OW29024   2.776   7.117   6.554
42417SOL    HW129025   2.695   7.066   6.555
42417SOL    HW229026   2.845   7.051   6.566
42418SOL     OW29027  14.754  14.287   9.394
42418SOL    HW129028  14.803  14.325   9.321
42418SOL    HW229029  14.692  14.356   9.420
42419SOL     OW29030   5.256   9.707   3.434
42419SOL    HW129031   5.204   9.753   3.499
42419SOL    HW229032   5.306   9.775   3.390
42420SOL     OW29033  11.447   5.650   5.672
42420SOL    HW129034  11.395   5.570   5.683
42420SOL    HW229035  11.429   5.702   5.751
42421SOL     OW29036   4.578   9.923   9.593
42421SOL    HW129037   4.539   9.935   9.680
42421SOL    HW229038   4.649   9.988   9.590
42422SOL     OW29039  14.118   6.631  13.489
42422SOL    HW129040  14.190   6.572  13.470
42422SOL    HW229041  14.040   6.585  13.457
42423SOL     OW29042   4.232  10.344   7.691
42423SOL    HW129043   4.303  10.288   7.659
42423SOL    HW229044   4.156  10.320   7.639
42424SOL     OW29045   4.054  13.974   1.049
42424SOL    HW129046   3.999  13.943   1.121
42424SOL    HW229047   4.141  13.938   1.068
42425SOL     OW29048   9.695  14.425  13.414
42425SOL    HW129049   9.733  14.373  13.344
42425SOL    HW229050   9.651  14.361  13.470
42426SOL     OW29051   2.649   5.759  14.091
42426SOL    HW129052   2.569   5.794  14.130
42426SOL    HW229053   2.635   5.664  14.088
42427SOL     OW29054   4.972   8.917   4.235
42427SOL    HW129055   4.893   8.958   4.199
42427SOL    HW229056   4.940   8.844   4.287
42428SOL     OW29057  13.864   0.291  12.249
42428SOL    HW129058  13.779   0.259  12.218
42428SOL    HW229059  13.890   0.356  12.183
42429SOL     OW29060   9.306   9.476   2.593
42429SOL    HW129061   9.294   9.498   2.501
42429SOL    HW229062   9.388   9.425   2.595
42430SOL     OW29063  10.309   3.929  13.152
42430SOL    HW129064  10.261   3.846  13.147
42430SOL    HW229065  10.261   3.980  13.217
42431SOL     OW29066   7.912  13.843   6.762
42431SOL    HW129067   7.847  13.911   6.777
42431SOL    HW229068   7.994  13.881   6.794
42432SOL     OW29069  11.308  11.275   7.988
42432SOL    HW129070  11.239  11.294   8.052
42432SOL    HW229071  11.273  11.203   7.935
42433SOL     OW29072  11.876   7.813   7.905
42433SOL    HW129073  11.878   7.762   7.987
42433SOL    HW229074  11.963   7.799   7.867
42434SOL     OW29075   3.827  11.855   6.584
42434SOL    HW129076   3.835  11.890   6.673
42434SOL    HW229077   3.738  11.821   6.579
42435SOL     OW29078   2.313  12.937   9.857
42435SOL    HW129079   2.248  12.905   9.920
42435SOL    HW229080   2.377  12.867   9.851
42436SOL     OW29081   1.481   1.594  13.943
42436SOL    HW129082   1.462   1.541  14.020
42436SOL    HW229083   1.428   1.673  13.955
42437SOL     OW29084  13.262   1.447   8.225
42437SOL    HW129085  13.342   1.466   8.177
42437SOL    HW229086  13.264   1.353   8.240
42438SOL     OW29087   4.942   4.319   3.126
42438SOL    HW129088   5.002   4.338   3.197
42438SOL    HW229089   4.924   4.225   3.134
42439SOL     OW29090  14.661  14.059  10.291
42439SOL    HW129091  14.738  14.097  10.334
42439SOL    HW229092  14.621  14.132  10.244
42440SOL     OW29093   9.540  13.662   2.025
42440SOL    HW129094   9.600  13.607   2.076
42440SOL    HW229095   9.545  13.627   1.936
42441SOL     OW29096  13.280   4.124  11.437
42441SOL    HW129097  13.370   4.101  11.416
42441SOL    HW229098  13.283   4.218  11.454
42442SOL     OW29099   7.583   6.390   8.661
42442SOL    HW129100   7.534   6.309   8.672
42442SOL    HW229101   7.545   6.450   8.724
42443SOL     OW29102   6.983   4.379  12.964
42443SOL    HW129103   7.046   4.415  12.903
42443SOL    HW229104   6.915   4.446  12.972
42444SOL     OW29105   2.032   3.049   6.013
42444SOL    HW129106   1.948   3.029   6.054
42444SOL    HW229107   2.015   3.126   5.959
42445SOL     OW29108   9.466  12.916   3.423
42445SOL    HW129109   9.457  13.002   3.382
42445SOL    HW229110   9.533  12.872   3.370
42446SOL     OW29111   2.570   9.909   6.551
42446SOL    HW129112   2.655   9.953   6.553
42446SOL    HW229113   2.541   9.918   6.460
42447SOL     OW29114   5.121   5.408  12.421
42447SOL    HW129115   5.147   5.399  12.513
42447SOL    HW229116   5.030   5.439  12.425
42448SOL     OW29117  10.657   5.013   5.554
42448SOL    HW129118  10.733   5.049   5.509
42448SOL    HW229119  10.691   4.939   5.605
42449SOL     OW29120  14.476  12.164   1.377
42449SOL    HW129121  14.412  12.230   1.350
42449SOL    HW229122  14.425  12.100   1.426
42450SOL     OW29123  13.927   6.329   4.269
42450SOL    HW129124  13.983   6.362   4.199
42450SOL    HW229125  13.925   6.400   4.334
42451SOL     OW29126   9.019  14.481  14.173
42451SOL    HW129127   9.073  14.410  14.138
42451SOL    HW229128   8.941  14.437  14.208
42452SOL     OW29129   2.482   5.554   7.014
42452SOL    HW129130   2.461   5.620   7.080
42452SOL    HW229131   2.414   5.566   6.947
42453SOL     OW29132   3.021   3.065  13.393
42453SOL    HW129133   3.059   3.126  13.330
42453SOL    HW229134   2.975   3.121  13.455
42454SOL     OW29135   3.415   7.034   9.112
42454SOL    HW129136   3.322   7.019   9.133
42454SOL    HW229137   3.413   7.091   9.035
42455SOL     OW29138   8.505  12.674  12.589
42455SOL    HW129139   8.503  12.768  12.570
42455SOL    HW229140   8.413  12.648  12.591
42456SOL     OW29141   8.025  10.732   6.497
42456SOL    HW129142   7.971  10.711   6.421
42456SOL    HW229143   8.050  10.648   6.533
42457SOL     OW29144  10.356   6.536   1.959
42457SOL    HW129145  10.359   6.484   2.039
42457SOL    HW229146  10.362   6.472   1.888
42458SOL     OW29147  14.748   7.041   7.015
42458SOL    HW129148  14.686   6.968   7.010
42458SOL    HW229149  14.821   7.008   7.067
42459SOL     OW29150  12.263  11.672  11.164
42459SOL    HW129151  12.179  11.634  11.138
42459SOL    HW229152  12.321  11.596  11.173
42460SOL     OW29153  12.735   1.006   9.663
42460SOL    HW129154  12.786   0.940   9.616
42460SOL    HW229155  12.774   1.089   9.636
42461SOL     OW29156   4.475  12.898   4.190
42461SOL    HW129157   4.497  12.842   4.264
42461SOL    HW229158   4.559  12.939   4.165
42462SOL     OW29159   9.579  12.492   3.571
42462SOL    HW129160   9.554  12.436   3.644
42462SOL    HW229161   9.503  12.549   3.559
42463SOL     OW29162   5.404   7.477   5.444
42463SOL    HW129163   5.321   7.520   5.465
42463SOL    HW229164   5.471   7.535   5.481
42464SOL     OW29165   1.285   1.728   0.528
42464SOL    HW129166   1.377   1.735   0.500
42464SOL    HW229167   1.282   1.777   0.610
42465SOL     OW29168   9.626   9.141   9.670
42465SOL    HW129169   9.684   9.212   9.643
42465SOL    HW229170   9.676   9.061   9.653
42466SOL     OW29171  10.432  14.566   2.897
42466SOL    HW129172  10.524  14.578   2.921
42466SOL    HW229173  10.422  14.472   2.885
42467SOL     OW29174   2.326  10.712  11.939
42467SOL    HW129175   2.292  10.793  11.900
42467SOL    HW229176   2.344  10.735  12.030
42468SOL     OW29177  13.836   6.470  10.432
42468SOL    HW129178  13.774   6.397  10.431
42468SOL    HW229179  13.784   6.546  10.460
42469SOL     OW29180   9.678   2.173   5.229
42469SOL    HW129181   9.702   2.259   5.195
42469SOL    HW229182   9.664   2.120   5.151
42470SOL     OW29183   9.489   3.281   0.664
42470SOL    HW129184   9.569   3.321   0.696
42470SOL    HW229185   9.442   3.255   0.743
42471SOL     OW29186   4.302  12.471  12.066
42471SOL    HW129187   4.332  12.406  12.130
42471SOL    HW229188   4.347  12.448  11.985
42472SOL     OW29189   8.324  11.935   5.130
42472SOL    HW129190   8.415  11.912   5.111
42472SOL    HW229191   8.273  11.863   5.093
42473SOL     OW29192  12.922   5.962   8.401
42473SOL    HW129193  12.967   5.886   8.364
42473SOL    HW229194  12.922   5.946   8.495
42474SOL     OW29195   4.097  12.651   1.511
42474SOL    HW129196   4.004  12.643   1.490
42474SOL    HW229197   4.128  12.561   1.515
42475SOL     OW29198  13.971   4.162   4.522
42475SOL    HW129199  14.040   4.134   4.462
42475SOL    HW229200  13.900   4.099   4.509
42476SOL     OW29201   3.349   3.532   3.952
42476SOL    HW129202   3.388   3.613   3.984
42476SOL    HW229203   3.376   3.466   4.015
42477SOL     OW29204   8.771  10.994  13.663
42477SOL    HW129205   8.858  10.962  13.686
42477SOL    HW229206   8.717  10.971  13.739
42478SOL     OW29207  12.499   3.473   0.041
42478SOL    HW129208  12.584   3.514   0.055
42478SOL    HW229209  12.507   3.427  14.838
42479SOL     OW29210   4.474   3.757   2.635
42479SOL    HW129211   4.553   3.787   2.681
42479SOL    HW229212   4.479   3.662   2.639
42480SOL     OW29213  12.842  10.153   1.231
42480SOL    HW129214  12.912  10.217   1.238
42480SOL    HW229215  12.768  10.192   1.278
42481SOL     OW29216   2.960  13.725   2.291
42481SOL    HW129217   2.936  13.692   2.204
42481SOL    HW229218   2.924  13.814   2.293
42482SOL     OW29219   8.485  11.139   9.957
42482SOL    HW129220   8.399  11.176   9.941
42482SOL    HW229221   8.482  11.052   9.917
42483SOL     OW29222   1.088  14.127   7.510
42483SOL    HW129223   1.155  14.176   7.558
42483SOL    HW229224   1.018  14.190   7.496
42484SOL     OW29225   5.796   3.601  11.913
42484SOL    HW129226   5.793   3.506  11.897
42484SOL    HW229227   5.828   3.609  12.002
42485SOL     OW29228   5.173   7.188   8.719
42485SOL    HW129229   5.160   7.268   8.668
42485SOL    HW229230   5.250   7.207   8.773
42486SOL     OW29231   6.985   4.242   1.424
42486SOL    HW129232   6.940   4.201   1.350
42486SOL    HW229233   6.915   4.287   1.472
42487SOL     OW29234  12.851   9.684  11.815
42487SOL    HW129235  12.901   9.706  11.736
42487SOL    HW229236  12.899   9.728  11.885
42488SOL     OW29237  13.980   5.030   6.821
42488SOL    HW129238  13.948   5.076   6.743
42488SOL    HW229239  13.907   4.972   6.846
42489SOL     OW29240   2.366   1.413  14.316
42489SOL    HW129241   2.448   1.398  14.363
42489SOL    HW229242   2.342   1.328  14.280
42490SOL     OW29243  10.304  14.854   3.329
42490SOL    HW129244  10.285   0.065   3.316
42490SOL    HW229245  10.317  14.819   3.240
42491SOL     OW29246   3.720   3.941  14.398
42491SOL    HW129247   3.658   3.939  14.325
42491SOL    HW229248   3.757   3.853  14.400
42492SOL     OW29249   2.052   9.936  12.305
42492SOL    HW129250   2.089   9.943  12.217
42492SOL    HW229251   2.096   9.860  12.344
42493SOL     OW29252   2.572   5.434   2.370
42493SOL    HW129253   2.521   5.439   2.451
42493SOL    HW229254   2.612   5.521   2.361
42494SOL     OW29255   5.631  12.635   2.552
42494SOL    HW129256   5.570  12.562   2.563
42494SOL    HW229257   5.717  12.593   2.547
42495SOL     OW29258   0.972  12.475   2.898
42495SOL    HW129259   0.983  12.519   2.814
42495SOL    HW229260   1.012  12.389   2.884
42496SOL     OW29261   9.444  10.798   5.733
42496SOL    HW129262   9.499  10.752   5.796
42496SOL    HW229263   9.415  10.877   5.780
42497SOL     OW29264   1.397   8.986   7.665
42497SOL    HW129265   1.374   8.928   7.738
42497SOL    HW229266   1.371   9.073   7.694
42498SOL     OW29267   1.032   4.558   4.386
42498SOL    HW129268   1.079   4.641   4.374
42498SOL    HW229269   0.979   4.549   4.307
42499SOL     OW29270   3.374   1.852   9.040
42499SOL    HW129271   3.313   1.786   9.072
42499SOL    HW229272   3.448   1.801   9.005
42500SOL     OW29273   3.777   3.407   2.880
42500SOL    HW129274   3.731   3.474   2.830
42500SOL    HW229275   3.724   3.329   2.871
42501SOL     OW29276  10.332   9.355  13.151
42501SOL    HW129277  10.323   9.262  13.171
42501SOL    HW229278  10.321   9.399  13.235
42502SOL     OW29279   3.188  13.321  11.939
42502SOL    HW129280   3.279  13.293  11.925
42502SOL    HW229281   3.140  13.283  11.865
42503SOL     OW29282   6.587   7.448   1.339
42503SOL    HW129283   6.563   7.358   1.315
42503SOL    HW229284   6.504   7.490   1.360
42504SOL     OW29285   1.340  13.088   7.901
42504SOL    HW129286   1.434  13.077   7.884
42504SOL    HW229287   1.315  13.162   7.845
42505SOL     OW29288  12.865   5.256   6.204
42505SOL    HW129289  12.773   5.241   6.182
42505SOL    HW229290  12.908   5.172   6.185
42506SOL     OW29291   1.725   4.739  14.595
42506SOL    HW129292   1.672   4.703  14.666
42506SOL    HW229293   1.666   4.738  14.519
42507SOL     OW29294  12.884   2.465  13.309
42507SOL    HW129295  12.844   2.481  13.224
42507SOL    HW229296  12.977   2.486  13.297
42508SOL     OW29297  13.466  11.964  11.158
42508SOL    HW129298  13.556  11.984  11.184
42508SOL    HW229299  13.458  12.000  11.069
42509SOL     OW29300   0.926  11.998  13.789
42509SOL    HW129301   0.880  12.049  13.856
42509SOL    HW229302   1.002  12.050  13.767
42510SOL     OW29303   2.316  11.988   4.910
42510SOL    HW129304   2.333  12.031   4.993
42510SOL    HW229305   2.307  11.895   4.932
42511SOL     OW29306   0.311  14.713  13.322
42511SOL    HW129307   0.281  14.627  13.349
42511SOL    HW229308   0.231  14.766  13.316
42512SOL     OW29309   6.645   2.671  12.915
42512SOL    HW129310   6.663   2.756  12.875
42512SOL    HW229311   6.688   2.675  13.000
42513SOL     OW29312   9.724   7.621   2.080
42513SOL    HW129313   9.774   7.702   2.075
42513SOL    HW229314   9.639   7.643   2.041
42514SOL     OW29315  11.477   9.359   6.059
42514SOL    HW129316  11.448   9.276   6.022
42514SOL    HW229317  11.487   9.417   5.983
42515SOL     OW29318   7.863   1.433  12.450
42515SOL    HW129319   7.909   1.399  12.374
42515SOL    HW229320   7.849   1.356  12.506
42516SOL     OW29321   5.078   7.926  10.078
42516SOL    HW129322   5.171   7.915  10.098
42516SOL    HW229323   5.056   8.013  10.111
42517SOL     OW29324   8.451   2.668  11.874
42517SOL    HW129325   8.389   2.740  11.865
42517SOL    HW229326   8.520   2.688  11.811
42518SOL     OW29327  12.099   5.096  12.916
42518SOL    HW129328  12.058   5.138  12.991
42518SOL    HW229329  12.084   5.156  12.843
42519SOL     OW29330   3.165  10.036   5.590
42519SOL    HW129331   3.229  10.106   5.600
42519SOL    HW229332   3.192   9.970   5.654
42520SOL     OW29333   6.363   4.285  14.607
42520SOL    HW129334   6.436   4.235  14.570
42520SOL    HW229335   6.359   4.257  14.699
42521SOL     OW29336   9.497   8.501  14.578
42521SOL    HW129337   9.525   8.489  14.487
42521SOL    HW229338   9.420   8.444  14.587
42522SOL     OW29339   1.509   6.508  10.163
42522SOL    HW129340   1.558   6.465  10.093
42522SOL    HW229341   1.417   6.503  10.135
42523SOL     OW29342   3.408   0.553   2.867
42523SOL    HW129343   3.333   0.574   2.923
42523SOL    HW229344   3.387   0.592   2.782
42524SOL     OW29345   6.589  11.566   8.386
42524SOL    HW129346   6.547  11.592   8.468
42524SOL    HW229347   6.577  11.642   8.329
42525SOL     OW29348   2.096   4.241  12.418
42525SOL    HW129349   2.191   4.239  12.424
42525SOL    HW229350   2.066   4.168  12.471
42526SOL     OW29351  14.528  13.942   3.433
42526SOL    HW129352  14.598  13.939   3.368
42526SOL    HW229353  14.468  13.872   3.407
42527SOL     OW29354   8.909  12.782  12.320
42527SOL    HW129355   8.914  12.787  12.415
42527SOL    HW229356   8.816  12.779  12.300
42528SOL     OW29357   4.119   5.487  10.229
42528SOL    HW129358   4.122   5.458  10.320
42528SOL    HW229359   4.123   5.582  10.234
42529SOL     OW29360   0.733   6.093   6.801
42529SOL    HW129361   0.734   6.003   6.835
42529SOL    HW229362   0.819   6.105   6.763
42530SOL     OW29363   9.518   1.052  10.053
42530SOL    HW129364   9.541   1.008  10.135
42530SOL    HW229365   9.431   1.019  10.031
42531SOL     OW29366   7.576  10.134   8.793
42531SOL    HW129367   7.652  10.084   8.764
42531SOL    HW229368   7.535  10.163   8.712
42532SOL     OW29369   2.843   7.906  11.424
42532SOL    HW129370   2.888   7.975  11.375
42532SOL    HW229371   2.904   7.881  11.493
42533SOL     OW29372  12.358   4.573   7.517
42533SOL    HW129373  12.435   4.531   7.555
42533SOL    HW229374  12.311   4.611   7.591
42534SOL     OW29375  11.617   3.380   0.486
42534SOL    HW129376  11.683   3.389   0.554
42534SOL    HW229377  11.665   3.348   0.409
42535SOL     OW29378   9.143   2.251   1.747
42535SOL    HW129379   9.192   2.294   1.817
42535SOL    HW229380   9.072   2.204   1.792
42536SOL     OW29381   1.117  14.269  10.529
42536SOL    HW129382   1.043  14.248  10.472
42536SOL    HW229383   1.134  14.362  10.513
42537SOL     OW29384   9.302  11.984   3.460
42537SOL    HW129385   9.397  11.974   3.452
42537SOL    HW229386   9.272  11.900   3.494
42538SOL     OW29387   8.676   5.431   3.109
42538SOL    HW129388   8.615   5.442   3.036
42538SOL    HW229389   8.628   5.376   3.172
42539SOL     OW29390  10.857  13.440  11.881
42539SOL    HW129391  10.887  13.525  11.848
42539SOL    HW229392  10.761  13.448  11.882
42540SOL     OW29393  13.328   0.220   2.428
42540SOL    HW129394  13.381   0.277   2.373
42540SOL    HW229395  13.259   0.188   2.369
42541SOL     OW29396  11.139   9.221   7.615
42541SOL    HW129397  11.234   9.209   7.615
42541SOL    HW229398  11.105   9.153   7.557
42542SOL     OW29399   1.604   2.279   6.949
42542SOL    HW129400   1.535   2.282   7.016
42542SOL    HW229401   1.556   2.263   6.867
42543SOL     OW29402   9.492   2.570   6.364
42543SOL    HW129403   9.406   2.613   6.366
42543SOL    HW229404   9.478   2.494   6.307
42544SOL     OW29405   3.758   2.254   3.459
42544SOL    HW129406   3.679   2.307   3.473
42544SOL    HW229407   3.814   2.309   3.404
42545SOL     OW29408   7.956   0.387   8.884
42545SOL    HW129409   7.936   0.302   8.922
42545SOL    HW229410   7.876   0.414   8.839
42546SOL     OW29411   6.751   7.865   2.278
42546SOL    HW129412   6.798   7.809   2.340
42546SOL    HW229413   6.808   7.869   2.201
42547SOL     OW29414   2.682   9.904   8.219
42547SOL    HW129415   2.642   9.959   8.287
42547SOL    HW229416   2.767   9.879   8.254
42548SOL     OW29417   5.444   1.512  10.594
42548SOL    HW129418   5.377   1.488  10.658
42548SOL    HW229419   5.429   1.454  10.519
42549SOL     OW29420   4.435   9.221   1.844
42549SOL    HW129421   4.490   9.146   1.820
42549SOL    HW229422   4.420   9.266   1.761
42550SOL     OW29423   0.473  11.164   2.322
42550SOL    HW129424   0.448  11.251   2.291
42550SOL    HW229425   0.407  11.141   2.387
42551SOL     OW29426   9.939   6.807   2.707
42551SOL    HW129427   9.888   6.831   2.630
42551SOL    HW229428   9.876   6.765   2.765
42552SOL     OW29429   5.090   6.145   0.167
42552SOL    HW129430   5.119   6.173   0.080
42552SOL    HW229431   5.099   6.050   0.165
42553SOL     OW29432  10.985   1.250   7.093
42553SOL    HW129433  10.962   1.257   7.000
42553SOL    HW229434  11.049   1.320   7.107
42554SOL     OW29435   5.935   0.450  14.199
42554SOL    HW129436   5.979   0.366  14.187
42554SOL    HW229437   5.945   0.495  14.115
42555SOL     OW29438   5.439   2.527   6.109
42555SOL    HW129439   5.360   2.477   6.130
42555SOL    HW229440   5.460   2.575   6.189
42556SOL     OW29441   9.804   5.796  14.438
42556SOL    HW129442   9.798   5.720  14.382
42556SOL    HW229443   9.751   5.863  14.395
42557SOL     OW29444   4.278   7.717  10.507
42557SOL    HW129445   4.269   7.706  10.412
42557SOL    HW229446   4.347   7.783  10.517
42558SOL     OW29447   7.029  10.712   2.556
42558SOL    HW129448   7.119  10.742   2.550
42558SOL    HW229449   6.989  10.769   2.622
42559SOL     OW29450   8.133   8.159   5.426
42559SOL    HW129451   8.171   8.100   5.490
42559SOL    HW229452   8.051   8.188   5.466
42560SOL     OW29453  12.443  12.868   4.375
42560SOL    HW129454  12.390  12.818   4.314
42560SOL    HW229455  12.524  12.888   4.327
42561SOL     OW29456   7.078  12.319   6.424
42561SOL    HW129457   7.105  12.410   6.430
42561SOL    HW229458   7.129  12.284   6.350
42562SOL     OW29459   3.423   4.850   0.493
42562SOL    HW129460   3.456   4.790   0.425
42562SOL    HW229461   3.380   4.792   0.556
42563SOL     OW29462  10.877   5.743  11.823
42563SOL    HW129463  10.841   5.726  11.911
42563SOL    HW229464  10.891   5.838  11.820
42564SOL     OW29465   1.469   8.827   7.215
42564SOL    HW129466   1.528   8.846   7.288
42564SOL    HW229467   1.504   8.747   7.176
42565SOL     OW29468  12.639  11.914  10.932
42565SOL    HW129469  12.652  11.934  11.025
42565SOL    HW229470  12.640  11.999  10.889
42566SOL     OW29471   4.091  13.439   3.938
42566SOL    HW129472   4.164  13.486   3.979
42566SOL    HW229473   4.112  13.347   3.951
42567SOL     OW29474   2.010  10.074   8.228
42567SOL    HW129475   1.950  10.038   8.294
42567SOL    HW229476   2.075  10.122   8.279
42568SOL     OW29477   5.391   9.185   5.654
42568SOL    HW129478   5.395   9.236   5.735
42568SOL    HW229479   5.299   9.160   5.646
42569SOL     OW29480   4.299   4.036   8.931
42569SOL    HW129481   4.270   4.019   8.842
42569SOL    HW229482   4.351   4.116   8.925
42570SOL     OW29483  13.883   9.008   8.432
42570SOL    HW129484  13.962   9.014   8.378
42570SOL    HW229485  13.886   8.919   8.469
42571SOL     OW29486   1.119  12.900   3.032
42571SOL    HW129487   1.041  12.852   3.057
42571SOL    HW229488   1.183  12.878   3.100
42572SOL     OW29489  14.485   2.290  12.587
42572SOL    HW129490  14.567   2.295  12.539
42572SOL    HW229491  14.459   2.198  12.580
42573SOL     OW29492   8.828   3.682   7.059
42573SOL    HW129493   8.880   3.620   7.008
42573SOL    HW229494   8.867   3.681   7.146
42574SOL     OW29495  12.082  10.278  11.826
42574SOL    HW129496  12.170  10.249  11.801
42574SOL    HW229497  12.083  10.280  11.921
42575SOL     OW29498   0.915  11.331   6.961
42575SOL    HW129499   0.837  11.283   6.990
42575SOL    HW229500   0.880  11.412   6.924
42576SOL     OW29501   3.947   1.666   8.339
42576SOL    HW129502   3.971   1.759   8.339
42576SOL    HW229503   3.979   1.633   8.423
42577SOL     OW29504   1.250   3.565   7.218
42577SOL    HW129505   1.329   3.533   7.173
42577SOL    HW229506   1.215   3.632   7.159
42578SOL     OW29507  14.455   0.490   5.836
42578SOL    HW129508  14.385   0.553   5.857
42578SOL    HW229509  14.492   0.467   5.921
42579SOL     OW29510   6.458   3.592   8.978
42579SOL    HW129511   6.550   3.601   9.004
42579SOL    HW229512   6.440   3.671   8.928
42580SOL     OW29513   0.499   9.821   0.003
42580SOL    HW129514   0.485   9.904   0.048
42580SOL    HW229515   0.462   9.754   0.061
42581SOL     OW29516  12.162   8.769   4.660
42581SOL    HW129517  12.183   8.852   4.702
42581SOL    HW229518  12.182   8.703   4.726
42582SOL     OW29519   7.176  13.830   3.864
42582SOL    HW129520   7.097  13.883   3.859
42582SOL    HW229521   7.220  13.845   3.780
42583SOL     OW29522   5.472  11.722   0.136
42583SOL    HW129523   5.439  11.795   0.084
42583SOL    HW229524   5.567  11.736   0.140
42584SOL     OW29525  11.899   1.707  12.405
42584SOL    HW129526  11.829   1.651  12.373
42584SOL    HW229527  11.921   1.763  12.331
42585SOL     OW29528   9.575  14.819   3.440
42585SOL    HW129529   9.528  14.748   3.483
42585SOL    HW229530   9.556   0.015   3.493
42586SOL     OW29531   4.335   7.931   4.045
42586SOL    HW129532   4.353   8.008   3.991
42586SOL    HW229533   4.247   7.944   4.079
42587SOL     OW29534   1.700  10.001  13.056
42587SOL    HW129535   1.675  10.005  13.148
42587SOL    HW229536   1.721  10.092  13.034
42588SOL     OW29537   2.749   7.763   8.581
42588SOL    HW129538   2.810   7.690   8.589
42588SOL    HW229539   2.712   7.755   8.493
42589SOL     OW29540  13.352  12.572  11.362
42589SOL    HW129541  13.282  12.510  11.379
42589SOL    HW229542  13.309  12.647  11.321
42590SOL     OW29543   1.311  11.659   6.337
42590SOL    HW129544   1.282  11.610   6.414
42590SOL    HW229545   1.403  11.633   6.326
42591SOL     OW29546  13.394   2.574   4.209
42591SOL    HW129547  13.301   2.562   4.190
42591SOL    HW229548  13.395   2.640   4.278
42592SOL     OW29549   5.539  12.098   1.642
42592SOL    HW129550   5.449  12.097   1.675
42592SOL    HW229551   5.583  12.029   1.692
42593SOL     OW29552   9.517   8.649  14.826
42593SOL    HW129553   9.460   8.682  14.758
42593SOL    HW229554   9.511   8.553  14.818
42594SOL     OW29555   2.798   2.434  11.249
42594SOL    HW129556   2.826   2.378  11.322
42594SOL    HW229557   2.852   2.406  11.175
42595SOL     OW29558   3.403   7.023  12.190
42595SOL    HW129559   3.318   7.024  12.235
42595SOL    HW229560   3.441   7.108  12.210
42596SOL     OW29561   5.884  11.360   9.578
42596SOL    HW129562   5.883  11.299   9.504
42596SOL    HW229563   5.952  11.327   9.636
42597SOL     OW29564   7.292   2.255   9.860
42597SOL    HW129565   7.295   2.223   9.770
42597SOL    HW229566   7.280   2.350   9.851
42598SOL     OW29567   7.682   3.020   5.070
42598SOL    HW129568   7.745   3.092   5.059
42598SOL    HW229569   7.607   3.046   5.016
42599SOL     OW29570   5.231  14.739   1.768
42599SOL    HW129571   5.183  14.762   1.688
42599SOL    HW229572   5.230  14.644   1.769
42600SOL     OW29573   3.138   1.316  12.589
42600SOL    HW129574   3.061   1.344  12.539
42600SOL    HW229575   3.151   1.385  12.654
42601SOL     OW29576  12.903   4.368   0.200
42601SOL    HW129577  12.906   4.277   0.230
42601SOL    HW229578  12.987   4.405   0.228
42602SOL     OW29579   0.655   8.908   5.874
42602SOL    HW129580   0.701   8.826   5.855
42602SOL    HW229581   0.563   8.887   5.861
42603SOL     OW29582   9.136   4.995   2.572
42603SOL    HW129583   9.179   4.967   2.653
42603SOL    HW229584   9.179   4.944   2.503
42604SOL     OW29585   1.550   2.875   6.802
42604SOL    HW129586   1.571   2.933   6.728
42604SOL    HW229587   1.621   2.811   6.803
42605SOL     OW29588  14.670   4.726   9.642
42605SOL    HW129589  14.585   4.760   9.668
42605SOL    HW229590  14.652   4.635   9.615
42606SOL     OW29591   4.054   5.242   6.402
42606SOL    HW129592   3.992   5.310   6.429
42606SOL    HW229593   4.088   5.207   6.484
42607SOL     OW29594   6.539   8.183   2.696
42607SOL    HW129595   6.575   8.147   2.614
42607SOL    HW229596   6.550   8.277   2.688
42608SOL     OW29597   3.234   7.302   7.974
42608SOL    HW129598   3.220   7.325   8.066
42608SOL    HW229599   3.148   7.274   7.942
42609SOL     OW29600   6.954   6.481   2.410
42609SOL    HW129601   6.897   6.553   2.437
42609SOL    HW229602   7.033   6.525   2.376
42610SOL     OW29603   5.663   0.918   2.691
42610SOL    HW129604   5.709   0.879   2.766
42610SOL    HW229605   5.571   0.896   2.706
42611SOL     OW29606   4.367   4.751  13.153
42611SOL    HW129607   4.425   4.692  13.106
42611SOL    HW229608   4.287   4.754  13.100
42612SOL     OW29609  11.907   4.309  14.395
42612SOL    HW129610  11.889   4.393  14.436
42612SOL    HW229611  12.001   4.311  14.376
42613SOL     OW29612   0.702   1.336   0.366
42613SOL    HW129613   0.783   1.319   0.413
42613SOL    HW229614   0.633   1.330   0.432
42614SOL     OW29615   6.220   2.713   8.786
42614SOL    HW129616   6.298   2.657   8.784
42614SOL    HW229617   6.244   2.786   8.844
42615SOL     OW29618   2.590   9.870   3.442
42615SOL    HW129619   2.547   9.901   3.362
42615SOL    HW229620   2.669   9.826   3.411
42616SOL     OW29621   1.866   3.227  14.657
42616SOL    HW129622   1.834   3.284  14.586
42616SOL    HW229623   1.815   3.255  14.734
42617SOL     OW29624   2.017  11.437   7.987
42617SOL    HW129625   2.026  11.471   8.076
42617SOL    HW229626   1.937  11.477   7.954
42618SOL     OW29627   1.786   8.052   4.667
42618SOL    HW129628   1.691   8.053   4.656
42618SOL    HW229629   1.805   8.128   4.722
42619SOL     OW29630   3.054   3.582  13.082
42619SOL    HW129631   3.057   3.551  12.992
42619SOL    HW229632   2.978   3.640  13.086
42620SOL     OW29633   9.297   0.622   5.979
42620SOL    HW129634   9.379   0.640   5.934
42620SOL    HW229635   9.235   0.685   5.942
42621SOL     OW29636   4.580   4.709   1.571
42621SOL    HW129637   4.644   4.740   1.635
42621SOL    HW229638   4.630   4.654   1.511
42622SOL     OW29639  12.789   1.087   2.371
42622SOL    HW129640  12.756   1.100   2.460
42622SOL    HW229641  12.832   1.170   2.350
42623SOL     OW29642  13.000  12.829  14.085
42623SOL    HW129643  12.983  12.883  14.007
42623SOL    HW229644  13.075  12.775  14.060
42624SOL     OW29645   1.679  11.064  10.307
42624SOL    HW129646   1.699  11.137  10.248
42624SOL    HW229647   1.750  11.001  10.291
42625SOL     OW29648   2.349   8.965   0.052
42625SOL    HW129649   2.330   8.990  14.843
42625SOL    HW229650   2.441   8.989   0.064
42626SOL     OW29651  14.298   0.273   9.734
42626SOL    HW129652  14.236   0.200   9.728
42626SOL    HW229653  14.252   0.340   9.784
42627SOL     OW29654  14.803   1.223   3.623
42627SOL    HW129655  14.717   1.263   3.607
42627SOL    HW229656  14.786   1.129   3.619
42628SOL     OW29657   4.476   8.369  10.375
42628SOL    HW129658   4.440   8.410  10.297
42628SOL    HW229659   4.435   8.415  10.448
42629SOL     OW29660  13.006  11.740  12.786
42629SOL    HW129661  12.978  11.698  12.867
42629SOL    HW229662  12.982  11.678  12.717
42630SOL     OW29663  11.851   8.456   4.637
42630SOL    HW129664  11.839   8.493   4.724
42630SOL    HW229665  11.847   8.361   4.651
42631SOL     OW29666   6.904  13.364   3.344
42631SOL    HW129667   6.853  13.394   3.268
42631SOL    HW229668   6.994  13.388   3.324
42632SOL     OW29669   9.793  12.929   6.103
42632SOL    HW129670   9.764  12.994   6.038
42632SOL    HW229671   9.881  12.955   6.126
42633SOL     OW29672   2.749   2.989   1.473
42633SOL    HW129673   2.785   2.961   1.557
42633SOL    HW229674   2.805   2.946   1.408
42634SOL     OW29675  13.481   6.631   5.254
42634SOL    HW129676  13.460   6.605   5.164
42634SOL    HW229677  13.525   6.715   5.245
42635SOL     OW29678  10.859   2.920  14.044
42635SOL    HW129679  10.826   2.890  14.129
42635SOL    HW229680  10.782   2.921  13.988
42636SOL     OW29681   9.392  10.350   4.814
42636SOL    HW129682   9.395  10.441   4.783
42636SOL    HW229683   9.306  10.318   4.787
42637SOL     OW29684  10.705  10.847   0.770
42637SOL    HW129685  10.710  10.943   0.765
42637SOL    HW229686  10.744  10.817   0.687
42638SOL     OW29687  13.076   8.960   8.157
42638SOL    HW129688  13.114   9.046   8.177
42638SOL    HW229689  13.149   8.899   8.162
42639SOL     OW29690  10.247  11.343   8.057
42639SOL    HW129691  10.293  11.427   8.052
42639SOL    HW229692  10.181  11.347   7.988
42640SOL     OW29693   6.923   5.102  13.968
42640SOL    HW129694   6.875   5.165  14.022
42640SOL    HW229695   6.897   5.017  14.003
42641SOL     OW29696   3.050   7.061   9.380
42641SOL    HW129697   3.053   6.993   9.312
42641SOL    HW229698   2.966   7.105   9.367
42642SOL     OW29699  14.005  12.032   9.949
42642SOL    HW129700  13.930  12.073   9.991
42642SOL    HW229701  13.993  12.052   9.856
42643SOL     OW29702   9.744   7.798   2.901
42643SOL    HW129703   9.745   7.729   2.968
42643SOL    HW229704   9.828   7.788   2.856
42644SOL     OW29705  10.076   7.154   6.068
42644SOL    HW129706  10.034   7.235   6.038
42644SOL    HW229707  10.158   7.184   6.109
42645SOL     OW29708   6.833   3.172   5.407
42645SOL    HW129709   6.834   3.236   5.478
42645SOL    HW229710   6.744   3.178   5.371
42646SOL     OW29711   1.052   7.798   0.904
42646SOL    HW129712   1.052   7.893   0.910
42646SOL    HW229713   1.063   7.767   0.994
42647SOL     OW29714  10.841  12.397  11.046
42647SOL    HW129715  10.846  12.354  10.961
42647SOL    HW229716  10.830  12.325  11.109
42648SOL     OW29717  12.400   4.031   0.987
42648SOL    HW129718  12.480   4.018   1.038
42648SOL    HW229719  12.362   3.944   0.979
42649SOL     OW29720   1.610  10.022   3.060
42649SOL    HW129721   1.655  10.093   3.105
42649SOL    HW229722   1.671   9.994   2.992
42650SOL     OW29723   3.225   9.325   2.128
42650SOL    HW129724   3.257   9.264   2.062
42650SOL    HW229725   3.163   9.273   2.180
42651SOL     OW29726   1.174   2.803   2.561
42651SOL    HW129727   1.171   2.855   2.481
42651SOL    HW229728   1.101   2.836   2.614
42652SOL     OW29729  10.064   2.200   7.767
42652SOL    HW129730   9.997   2.141   7.732
42652SOL    HW229731  10.147   2.161   7.740
42653SOL     OW29732   0.982   5.946   9.883
42653SOL    HW129733   0.898   5.976   9.919
42653SOL    HW229734   1.030   5.912   9.959
42654SOL     OW29735   5.385   1.762   9.924
42654SOL    HW129736   5.448   1.754   9.853
42654SOL    HW229737   5.379   1.856   9.940
42655SOL     OW29738  11.103  11.114   7.807
42655SOL    HW129739  11.067  11.049   7.746
42655SOL    HW229740  11.077  11.082   7.893
42656SOL     OW29741   3.164   1.807  11.649
42656SOL    HW129742   3.196   1.796  11.739
42656SOL    HW229743   3.088   1.750  11.644
42657SOL     OW29744   8.776   5.114   7.820
42657SOL    HW129745   8.791   5.207   7.803
42657SOL    HW229746   8.784   5.106   7.916
42658SOL     OW29747  11.551  14.122   2.405
42658SOL    HW129748  11.574  14.066   2.479
42658SOL    HW229749  11.497  14.191   2.443
42659SOL     OW29750   1.395   3.529   7.470
42659SOL    HW129751   1.446   3.448   7.464
42659SOL    HW229752   1.346   3.533   7.388
42660SOL     OW29753   3.119   0.321   1.428
42660SOL    HW129754   3.139   0.412   1.449
42660SOL    HW229755   3.045   0.327   1.367
42661SOL     OW29756   0.648  10.410   5.518
42661SOL    HW129757   0.562  10.450   5.508
42661SOL    HW229758   0.642  10.328   5.469
42662SOL     OW29759   9.536   1.696  11.200
42662SOL    HW129760   9.609   1.717  11.259
42662SOL    HW229761   9.460   1.691  11.258
42663SOL     OW29762  13.974  10.741   7.198
42663SOL    HW129763  13.989  10.792   7.119
42663SOL    HW229764  14.047  10.763   7.256
42664SOL     OW29765  13.258   1.457   1.336
42664SOL    HW129766  13.286   1.487   1.249
42664SOL    HW229767  13.164   1.473   1.338
42665SOL     OW29768  12.443   5.488   8.374
42665SOL    HW129769  12.535   5.469   8.355
42665SOL    HW229770  12.421   5.431   8.448
42666SOL     OW29771   6.520   9.076  13.380
42666SOL    HW129772   6.474   9.156  13.356
42666SOL    HW229773   6.613   9.098  13.374
42667SOL     OW29774   9.582  10.449   5.417
42667SOL    HW129775   9.549  10.426   5.504
42667SOL    HW229776   9.668  10.408   5.411
42668SOL     OW29777   9.563  12.422   2.532
42668SOL    HW129778   9.498  12.412   2.462
42668SOL    HW229779   9.621  12.492   2.502
42669SOL     OW29780   2.077   3.272   9.009
42669SOL    HW129781   2.008   3.338   8.997
42669SOL    HW229782   2.157   3.322   9.022
42670SOL     OW29783  12.005   1.688   6.866
42670SOL    HW129784  11.945   1.708   6.794
42670SOL    HW229785  11.977   1.603   6.898
42671SOL     OW29786  11.611   8.966  14.261
42671SOL    HW129787  11.561   8.948  14.341
42671SOL    HW229788  11.545   8.998  14.199
42672SOL     OW29789   0.209   1.549  14.242
42672SOL    HW129790   0.229   1.559  14.149
42672SOL    HW229791   0.116   1.572  14.248
42673SOL     OW29792   3.144   5.666   2.391
42673SOL    HW129793   3.122   5.618   2.471
42673SOL    HW229794   3.120   5.757   2.411
42674SOL     OW29795  11.215  13.332  14.854
42674SOL    HW129796  11.248  13.273   0.041
42674SOL    HW229797  11.286  13.395  14.840
42675SOL     OW29798  10.554   6.310  11.836
42675SOL    HW129799  10.572   6.246  11.905
42675SOL    HW229800  10.543   6.257  11.756
42676SOL     OW29801   4.808   6.490   9.420
42676SOL    HW129802   4.791   6.489   9.326
42676SOL    HW229803   4.723   6.473   9.460
42677SOL     OW29804   3.757   4.617   8.305
42677SOL    HW129805   3.812   4.682   8.348
42677SOL    HW229806   3.704   4.580   8.375
42678SOL     OW29807   2.255   0.505   2.729
42678SOL    HW129808   2.222   0.589   2.761
42678SOL    HW229809   2.341   0.496   2.770
42679SOL     OW29810   5.627   5.952   7.721
42679SOL    HW129811   5.556   6.012   7.742
42679SOL    HW229812   5.668   5.988   7.642
42680SOL     OW29813   8.898   6.758  14.152
42680SOL    HW129814   8.888   6.830  14.089
42680SOL    HW229815   8.811   6.748  14.191
42681SOL     OW29816   2.586   1.046   0.855
42681SOL    HW129817   2.598   1.140   0.870
42681SOL    HW229818   2.496   1.029   0.883
42682SOL     OW29819   3.872   8.916  14.147
42682SOL    HW129820   3.937   8.951  14.087
42682SOL    HW229821   3.788   8.929  14.103
42683SOL     OW29822   0.143   0.058   2.591
42683SOL    HW129823   0.149   0.048   2.686
42683SOL    HW229824   0.234   0.061   2.561
42684SOL     OW29825   2.786  14.633   7.777
42684SOL    HW129826   2.720  14.702   7.763
42684SOL    HW229827   2.781  14.614   7.870
42685SOL     OW29828   7.346   7.801  14.462
42685SOL    HW129829   7.405   7.859  14.510
42685SOL    HW229830   7.387   7.714  14.469
42686SOL     OW29831   4.452  14.852   9.645
42686SOL    HW129832   4.358  14.867   9.650
42686SOL    HW229833   4.486   0.044   9.594
42687SOL     OW29834   1.880  12.367   8.603
42687SOL    HW129835   1.807  12.417   8.638
42687SOL    HW229836   1.853  12.275   8.611
42688SOL     OW29837   3.306   3.478  11.312
42688SOL    HW129838   3.347   3.392  11.313
42688SOL    HW229839   3.246   3.478  11.386
42689SOL     OW29840  14.670  12.028   9.113
42689SOL    HW129841  14.739  12.066   9.166
42689SOL    HW229842  14.619  12.102   9.081
42690SOL     OW29843   2.212   2.120  10.215
42690SOL    HW129844   2.196   2.208  10.248
42690SOL    HW229845   2.130   2.094  10.173
42691SOL     OW29846   1.465   0.260   7.082
42691SOL    HW129847   1.396   0.205   7.119
42691SOL    HW229848   1.433   0.283   6.995
42692SOL     OW29849   1.027   8.464  13.197
42692SOL    HW129850   1.002   8.399  13.262
42692SOL    HW229851   1.095   8.517  13.241
42693SOL     OW29852   4.289  14.589   6.354
42693SOL    HW129853   4.353  14.537   6.403
42693SOL    HW229854   4.301  14.678   6.386
42694SOL     OW29855   9.739   4.736  14.587
42694SOL    HW129856   9.646   4.723  14.565
42694SOL    HW229857   9.785   4.731  14.504
42695SOL     OW29858   7.759   2.417  12.531
42695SOL    HW129859   7.728   2.327  12.528
42695SOL    HW229860   7.761   2.445  12.439
42696SOL     OW29861   7.978   2.413  12.743
42696SOL    HW129862   7.926   2.445  12.669
42696SOL    HW229863   8.037   2.485  12.765
42697SOL     OW29864   5.465   1.747   2.659
42697SOL    HW129865   5.399   1.709   2.717
42697SOL    HW229866   5.500   1.821   2.708
42698SOL     OW29867   7.708  10.332   6.825
42698SOL    HW129868   7.667  10.417   6.842
42698SOL    HW229869   7.653  10.269   6.872
42699SOL     OW29870  11.295   2.651   7.081
42699SOL    HW129871  11.244   2.581   7.122
42699SOL    HW229872  11.384   2.639   7.115
42700SOL     OW29873  11.384  12.685   8.570
42700SOL    HW129874  11.434  12.603   8.574
42700SOL    HW229875  11.323  12.680   8.644
42701SOL     OW29876  12.226  12.312   0.620
42701SOL    HW129877  12.315  12.280   0.634
42701SOL    HW229878  12.171  12.233   0.625
42702SOL     OW29879  14.313   6.307   7.810
42702SOL    HW129880  14.258   6.330   7.734
42702SOL    HW229881  14.250   6.295   7.881
42703SOL     OW29882   6.752  14.305  12.892
42703SOL    HW129883   6.675  14.251  12.875
42703SOL    HW229884   6.795  14.312  12.807
42704SOL     OW29885   6.484   9.732   9.865
42704SOL    HW129886   6.438   9.703   9.944
42704SOL    HW229887   6.497   9.652   9.815
42705SOL     OW29888   8.187  14.124   8.182
42705SOL    HW129889   8.191  14.175   8.263
42705SOL    HW229890   8.262  14.065   8.188
42706SOL     OW29891   6.960  12.193  14.539
42706SOL    HW129892   7.018  12.117  14.533
42706SOL    HW229893   7.017  12.265  14.567
42707SOL     OW29894  14.611   2.776   2.524
42707SOL    HW129895  14.647   2.695   2.561
42707SOL    HW229896  14.571   2.748   2.441
42708SOL     OW29897   1.456   0.853   7.504
42708SOL    HW129898   1.426   0.897   7.584
42708SOL    HW229899   1.512   0.917   7.461
42709SOL     OW29900   2.559   9.081   4.357
42709SOL    HW129901   2.493   9.085   4.426
42709SOL    HW229902   2.533   9.148   4.295
42710SOL     OW29903   5.564   3.857  10.617
42710SOL    HW129904   5.648   3.839  10.575
42710SOL    HW229905   5.545   3.948  10.596
42711SOL     OW29906   6.142   5.017   9.320
42711SOL    HW129907   6.084   5.050   9.252
42711SOL    HW229908   6.229   5.049   9.295
42712SOL     OW29909   0.593  11.190   8.867
42712SOL    HW129910   0.615  11.199   8.959
42712SOL    HW229911   0.676  11.167   8.825
42713SOL     OW29912  10.909   7.025   9.448
42713SOL    HW129913  10.832   6.986   9.489
42713SOL    HW229914  10.879   7.051   9.361
42714SOL     OW29915   3.239   6.584  14.677
42714SOL    HW129916   3.186   6.599  14.599
42714SOL    HW229917   3.228   6.491  14.695
42715SOL     OW29918  11.215   4.994   1.425
42715SOL    HW129919  11.280   4.946   1.374
42715SOL    HW229920  11.202   4.941   1.504
42716SOL     OW29921   8.823   6.784   6.448
42716SOL    HW129922   8.817   6.865   6.498
42716SOL    HW229923   8.817   6.715   6.514
42717SOL     OW29924   2.890  13.919  10.805
42717SOL    HW129925   2.822  13.913  10.872
42717SOL    HW229926   2.847  13.889  10.725
42718SOL     OW29927  12.584   5.574  11.958
42718SOL    HW129928  12.521   5.504  11.942
42718SOL    HW229929  12.534   5.641  12.004
42719SOL     OW29930   6.429   9.352  10.208
42719SOL    HW129931   6.340   9.378  10.233
42719SOL    HW229932   6.475   9.341  10.292
42720SOL     OW29933  13.420  14.850   0.674
42720SOL    HW129934  13.504  14.805   0.679
42720SOL    HW229935  13.358  14.784   0.644
42721SOL     OW29936   7.870   3.220   5.313
42721SOL    HW129937   7.865   3.311   5.285
42721SOL    HW229938   7.793   3.208   5.369
42722SOL     OW29939   5.032  12.998   0.133
42722SOL    HW129940   5.116  12.972   0.094
42722SOL    HW229941   5.039  12.973   0.225
42723SOL     OW29942   8.728   9.488   3.133
42723SOL    HW129943   8.687   9.406   3.108
42723SOL    HW229944   8.814   9.487   3.090
42724SOL     OW29945   6.232  14.370   7.966
42724SOL    HW129946   6.179  14.314   7.909
42724SOL    HW229947   6.294  14.310   8.008
42725SOL     OW29948  11.931  14.335  11.567
42725SOL    HW129949  12.011  14.372  11.604
42725SOL    HW229950  11.961  14.289  11.488
42726SOL     OW29951   1.782   6.761   0.482
42726SOL    HW129952   1.828   6.685   0.515
42726SOL    HW229953   1.794   6.828   0.550
42727SOL     OW29954  14.525   3.418  12.102
42727SOL    HW129955  14.516   3.378  12.188
42727SOL    HW229956  14.601   3.476  12.110
42728SOL     OW29957   2.106   1.045   5.106
42728SOL    HW129958   2.076   1.134   5.090
42728SOL    HW229959   2.153   1.021   5.026
42729SOL     OW29960  10.645   7.626   5.310
42729SOL    HW129961  10.740   7.635   5.306
42729SOL    HW229962  10.628   7.535   5.286
42730SOL     OW29963   6.656  14.348   7.805
42730SOL    HW129964   6.650  14.435   7.768
42730SOL    HW229965   6.574  14.305   7.781
42731SOL     OW29966   7.322   9.094  13.867
42731SOL    HW129967   7.360   9.139  13.943
42731SOL    HW229968   7.395   9.083  13.807
42732SOL     OW29969  10.483   5.433   3.492
42732SOL    HW129970  10.493   5.383   3.573
42732SOL    HW229971  10.570   5.470   3.476
42733SOL     OW29972   0.743   6.381   4.618
42733SOL    HW129973   0.766   6.295   4.654
42733SOL    HW229974   0.776   6.444   4.683
42734SOL     OW29975   9.426   0.938  11.612
42734SOL    HW129976   9.341   0.946  11.656
42734SOL    HW229977   9.404   0.910  11.523
42735SOL     OW29978   2.556  12.514   8.590
42735SOL    HW129979   2.573  12.452   8.520
42735SOL    HW229980   2.517  12.462   8.660
42736SOL     OW29981   7.832   2.152   6.096
42736SOL    HW129982   7.798   2.075   6.050
42736SOL    HW229983   7.841   2.124   6.187
42737SOL     OW29984   6.240   3.345   7.119
42737SOL    HW129985   6.314   3.402   7.140
42737SOL    HW229986   6.229   3.290   7.196
42738SOL     OW29987   7.228  13.366   1.433
42738SOL    HW129988   7.202  13.457   1.423
42738SOL    HW229989   7.320  13.369   1.458
42739SOL     OW29990   0.641   9.449   4.234
42739SOL    HW129991   0.608   9.419   4.149
42739SOL    HW229992   0.582   9.520   4.259
42740SOL     OW29993  12.343   6.552  13.649
42740SOL    HW129994  12.287   6.557  13.726
42740SOL    HW229995  12.364   6.643  13.628
42741SOL     OW29996   0.088   2.786   6.760
42741SOL    HW129997   0.127   2.790   6.848
42741SOL    HW229998   0.010   2.732   6.771
42742SOL     OW29999  10.403   0.781   2.042
42742SOL    HW130000  10.439   0.827   2.118
42742SOL    HW230001  10.478   0.736   2.004
42743SOL     OW30002   0.630  11.492   5.058
42743SOL    HW130003   0.619  11.462   4.968
42743SOL    HW230004   0.713  11.455   5.086
42744SOL     OW30005  10.852   5.057   6.171
42744SOL    HW130006  10.829   5.025   6.083
42744SOL    HW230007  10.944   5.082   6.165
42745SOL     OW30008  10.732   2.470  11.536
42745SOL    HW130009  10.706   2.379  11.547
42745SOL    HW230010  10.826   2.468  11.524
42746SOL     OW30011   8.686  10.039   9.417
42746SOL    HW130012   8.717   9.999   9.335
42746SOL    HW230013   8.670   9.964   9.475
42747SOL     OW30014   7.955   9.658   4.104
42747SOL    HW130015   8.046   9.685   4.116
42747SOL    HW230016   7.931   9.690   4.018
42748SOL     OW30017   9.260  12.680   3.799
42748SOL    HW130018   9.186  12.622   3.818
42748SOL    HW230019   9.239  12.761   3.846
42749SOL     OW30020  12.748   7.249   4.161
42749SOL    HW130021  12.702   7.236   4.244
42749SOL    HW230022  12.724   7.337   4.134
42750SOL     OW30023   6.297  12.673   4.473
42750SOL    HW130024   6.347  12.723   4.537
42750SOL    HW230025   6.210  12.663   4.511
42751SOL     OW30026   6.634   1.246   5.334
42751SOL    HW130027   6.729   1.242   5.325
42751SOL    HW230028   6.618   1.261   5.427
42752SOL     OW30029   6.080   7.507  10.476
42752SOL    HW130030   6.071   7.565  10.551
42752SOL    HW230031   6.129   7.558  10.411
42753SOL     OW30032   9.766  10.473   7.229
42753SOL    HW130033   9.786  10.560   7.195
42753SOL    HW230034   9.817  10.466   7.310
42754SOL     OW30035   0.244  14.040   8.671
42754SOL    HW130036   0.170  13.997   8.628
42754SOL    HW230037   0.303  13.968   8.693
42755SOL     OW30038  12.816   5.415  11.177
42755SOL    HW130039  12.829   5.321  11.192
42755SOL    HW230040  12.904   5.452  11.181
42756SOL     OW30041   4.532   2.951   8.333
42756SOL    HW130042   4.567   3.040   8.330
42756SOL    HW230043   4.593   2.904   8.390
42757SOL     OW30044   7.254  14.249  10.685
42757SOL    HW130045   7.273  14.304  10.608
42757SOL    HW230046   7.335  14.201  10.700
42758SOL     OW30047   8.300  11.700   4.143
42758SOL    HW130048   8.271  11.778   4.192
42758SOL    HW230049   8.372  11.664   4.195
42759SOL     OW30050   4.009   2.360  14.725
42759SOL    HW130051   3.986   2.384  14.814
42759SOL    HW230052   3.973   2.430  14.671
42760SOL     OW30053  14.007   0.881   2.478
42760SOL    HW130054  14.071   0.824   2.436
42760SOL    HW230055  13.927   0.829   2.482
42761SOL     OW30056   9.369   9.443  10.961
42761SOL    HW130057   9.456   9.422  10.994
42761SOL    HW230058   9.382   9.523  10.909
42762SOL     OW30059   1.042   3.210   3.605
42762SOL    HW130060   1.065   3.202   3.697
42762SOL    HW230061   0.969   3.149   3.593
42763SOL     OW30062   3.143   9.496   8.400
42763SOL    HW130063   3.211   9.433   8.424
42763SOL    HW230064   3.115   9.470   8.313
42764SOL     OW30065  13.156  13.915   8.373
42764SOL    HW130066  13.203  13.996   8.353
42764SOL    HW230067  13.221  13.845   8.362
42765SOL     OW30068   1.758   2.440   9.096
42765SOL    HW130069   1.717   2.433   9.009
42765SOL    HW230070   1.819   2.513   9.087
42766SOL     OW30071   1.154   9.060   5.075
42766SOL    HW130072   1.073   9.012   5.061
42766SOL    HW230073   1.218   9.019   5.017
42767SOL     OW30074   4.776  11.060   8.730
42767SOL    HW130075   4.688  11.065   8.767
42767SOL    HW230076   4.797  10.966   8.730
42768SOL     OW30077  12.907   1.718   0.363
42768SOL    HW130078  12.945   1.747   0.280
42768SOL    HW230079  12.866   1.634   0.343
42769SOL     OW30080  13.052  10.370  10.470
42769SOL    HW130081  13.037  10.455  10.512
42769SOL    HW230082  13.117  10.327  10.525
42770SOL     OW30083   2.424  11.269   7.392
42770SOL    HW130084   2.504  11.313   7.418
42770SOL    HW230085   2.363  11.339   7.372
42771SOL     OW30086   5.942  11.881  11.458
42771SOL    HW130087   5.952  11.786  11.455
42771SOL    HW230088   5.861  11.895  11.508
42772SOL     OW30089   7.393   8.007   0.802
42772SOL    HW130090   7.309   7.996   0.846
42772SOL    HW230091   7.424   8.093   0.832
42773SOL     OW30092  10.833   0.499   2.555
42773SOL    HW130093  10.883   0.433   2.603
42773SOL    HW230094  10.779   0.541   2.622
42774SOL     OW30095  13.051   6.876   8.151
42774SOL    HW130096  12.965   6.894   8.114
42774SOL    HW230097  13.052   6.925   8.234
42775SOL     OW30098  12.885  10.080  11.924
42775SOL    HW130099  12.850  10.047  11.841
42775SOL    HW230100  12.855  10.016  11.989
42776SOL     OW30101   2.465   1.348   0.690
42776SOL    HW130102   2.408   1.306   0.626
42776SOL    HW230103   2.467   1.440   0.664
42777SOL     OW30104  10.885   0.530   6.601
42777SOL    HW130105  10.950   0.482   6.653
42777SOL    HW230106  10.925   0.617   6.589
42778SOL     OW30107   4.895   1.915  11.149
42778SOL    HW130108   4.971   1.938  11.096
42778SOL    HW230109   4.929   1.861  11.220
42779SOL     OW30110   4.302   5.371   7.758
42779SOL    HW130111   4.341   5.307   7.817
42779SOL    HW230112   4.222   5.400   7.804
42780SOL     OW30113   4.011   9.839   4.961
42780SOL    HW130114   4.015   9.903   5.033
42780SOL    HW230115   3.917   9.827   4.945
42781SOL     OW30116  13.857  12.545   1.748
42781SOL    HW130117  13.893  12.631   1.728
42781SOL    HW230118  13.866  12.536   1.843
42782SOL     OW30119   4.599   1.700  11.068
42782SOL    HW130120   4.678   1.657  11.101
42782SOL    HW230121   4.632   1.768  11.009
42783SOL     OW30122   7.435   6.539  10.358
42783SOL    HW130123   7.376   6.609  10.331
42783SOL    HW230124   7.515   6.553  10.306
42784SOL     OW30125   8.736   6.500   8.213
42784SOL    HW130126   8.827   6.506   8.241
42784SOL    HW230127   8.686   6.535   8.287
42785SOL     OW30128  10.330   3.101   1.012
42785SOL    HW130129  10.410   3.150   0.997
42785SOL    HW230130  10.269   3.133   0.945
42786SOL     OW30131   8.809   0.242   3.149
42786SOL    HW130132   8.841   0.300   3.079
42786SOL    HW230133   8.726   0.209   3.116
42787SOL     OW30134   4.549   6.599   1.852
42787SOL    HW130135   4.470   6.570   1.807
42787SOL    HW230136   4.522   6.610   1.943
42788SOL     OW30137   3.942   1.321  14.858
42788SOL    HW130138   3.992   1.296   0.054
42788SOL    HW230139   3.850   1.318   0.005
42789SOL     OW30140   0.189  10.243  12.616
42789SOL    HW130141   0.274  10.272  12.583
42789SOL    HW230142   0.176  10.158  12.575
42790SOL     OW30143   5.354   2.342   2.367
42790SOL    HW130144   5.315   2.429   2.356
42790SOL    HW230145   5.280   2.286   2.390
42791SOL     OW30146   2.518  12.718   3.489
42791SOL    HW130147   2.475  12.660   3.426
42791SOL    HW230148   2.611  12.704   3.475
42792SOL     OW30149  11.614   8.326  13.051
42792SOL    HW130150  11.620   8.305  13.144
42792SOL    HW230151  11.630   8.421  13.047
42793SOL     OW30152   6.860   1.219  10.094
42793SOL    HW130153   6.859   1.298  10.148
42793SOL    HW230154   6.770   1.186  10.097
42794SOL     OW30155   6.754   7.053   4.780
42794SOL    HW130156   6.717   7.100   4.705
42794SOL    HW230157   6.771   6.965   4.747
42795SOL     OW30158   3.728   8.457  14.658
42795SOL    HW130159   3.774   8.528  14.704
42795SOL    HW230160   3.782   8.380  14.676
42796SOL     OW30161   4.532   8.395   2.090
42796SOL    HW130162   4.450   8.444   2.092
42796SOL    HW230163   4.511   8.315   2.043
42797SOL     OW30164   3.843  12.861   1.331
42797SOL    HW130165   3.906  12.815   1.276
42797SOL    HW230166   3.800  12.792   1.382
42798SOL     OW30167   1.544  13.987  11.382
42798SOL    HW130168   1.566  13.899  11.349
42798SOL    HW230169   1.620  14.012  11.435
42799SOL     OW30170  11.750  10.636   3.239
42799SOL    HW130171  11.677  10.690   3.269
42799SOL    HW230172  11.738  10.552   3.284
42800SOL     OW30173   0.185   9.207   7.793
42800SOL    HW130174   0.128   9.278   7.823
42800SOL    HW230175   0.132   9.160   7.728
42801SOL     OW30176  10.948   4.008   8.605
42801SOL    HW130177  10.978   4.096   8.584
42801SOL    HW230178  10.889   4.019   8.679
42802SOL     OW30179   9.811   9.046  12.424
42802SOL    HW130180   9.847   9.056  12.336
42802SOL    HW230181   9.820   9.133  12.463
42803SOL     OW30182   6.568   2.298   6.711
42803SOL    HW130183   6.596   2.355   6.782
42803SOL    HW230184   6.624   2.221   6.718
42804SOL     OW30185   7.223  11.569   5.970
42804SOL    HW130186   7.141  11.594   5.928
42804SOL    HW230187   7.250  11.489   5.925
42805SOL     OW30188  12.511   5.901   9.016
42805SOL    HW130189  12.439   5.859   9.063
42805SOL    HW230190  12.554   5.957   9.081
42806SOL     OW30191  10.880   8.484  13.426
42806SOL    HW130192  10.912   8.432  13.500
42806SOL    HW230193  10.791   8.452  13.411
42807SOL     OW30194  14.745  11.361   2.135
42807SOL    HW130195  14.666  11.311   2.115
42807SOL    HW230196  14.757  11.418   2.059
42808SOL     OW30197  14.401   2.667   6.654
42808SOL    HW130198  14.418   2.719   6.576
42808SOL    HW230199  14.333   2.605   6.627
42809SOL     OW30200   3.034  12.962   2.195
42809SOL    HW130201   3.017  12.893   2.259
42809SOL    HW230202   3.042  13.042   2.248
42810SOL     OW30203   6.413  12.591   9.453
42810SOL    HW130204   6.405  12.638   9.536
42810SOL    HW230205   6.503  12.607   9.425
42811SOL     OW30206   6.249   5.879  12.862
42811SOL    HW130207   6.284   5.899  12.776
42811SOL    HW230208   6.321   5.834  12.907
42812SOL     OW30209   3.833   7.043   1.477
42812SOL    HW130210   3.763   6.984   1.505
42812SOL    HW230211   3.894   6.986   1.430
42813SOL     OW30212   0.117   0.818  12.918
42813SOL    HW130213   0.203   0.853  12.940
42813SOL    HW230214   0.098   0.756  12.988
42814SOL     OW30215   9.019   4.203   7.437
42814SOL    HW130216   9.063   4.118   7.441
42814SOL    HW230217   9.082   4.264   7.475
42815SOL     OW30218  12.551   8.836   7.463
42815SOL    HW130219  12.487   8.892   7.507
42815SOL    HW230220  12.565   8.763   7.523
42816SOL     OW30221   5.436  11.253  11.192
42816SOL    HW130222   5.374  11.283  11.126
42816SOL    HW230223   5.427  11.158  11.191
42817SOL     OW30224   9.789   0.621   2.004
42817SOL    HW130225   9.859   0.558   2.017
42817SOL    HW230226   9.828   0.690   1.951
42818SOL     OW30227  13.831  13.191  13.690
42818SOL    HW130228  13.898  13.242  13.736
42818SOL    HW230229  13.763  13.177  13.756
42819SOL     OW30230   7.818  14.114  12.565
42819SOL    HW130231   7.743  14.088  12.511
42819SOL    HW230232   7.870  14.170  12.509
42820SOL     OW30233   1.439   7.329   1.611
42820SOL    HW130234   1.356   7.329   1.659
42820SOL    HW230235   1.502   7.369   1.671
42821SOL     OW30236  14.713   4.445   4.320
42821SOL    HW130237  14.776   4.485   4.380
42821SOL    HW230238  14.762   4.373   4.280
42822SOL     OW30239   5.426   5.752  14.875
42822SOL    HW130240   5.470   5.765  14.791
42822SOL    HW230241   5.348   5.808  14.871
42823SOL     OW30242   4.026  10.808   6.279
42823SOL    HW130243   3.935  10.782   6.292
42823SOL    HW230244   4.078  10.739   6.321
42824SOL     OW30245   6.186   9.214   9.837
42824SOL    HW130246   6.139   9.144   9.792
42824SOL    HW230247   6.161   9.205   9.929
42825SOL     OW30248   7.635  13.145   5.611
42825SOL    HW130249   7.542  13.129   5.600
42825SOL    HW230250   7.641  13.205   5.686
42826SOL     OW30251   8.321   7.227  12.357
42826SOL    HW130252   8.341   7.222  12.450
42826SOL    HW230253   8.373   7.156  12.318
42827SOL     OW30254   2.689   5.903  11.832
42827SOL    HW130255   2.704   5.844  11.906
42827SOL    HW230256   2.758   5.881  11.770
42828SOL     OW30257  11.244   2.046   6.951
42828SOL    HW130258  11.195   2.050   6.869
42828SOL    HW230259  11.309   1.977   6.937
42829SOL     OW30260   7.959   0.005   9.723
42829SOL    HW130261   8.022  14.854   9.659
42829SOL    HW230262   7.879  14.838   9.704
42830SOL     OW30263   1.546   3.970   7.546
42830SOL    HW130264   1.479   3.987   7.612
42830SOL    HW230265   1.496   3.954   7.465
42831SOL     OW30266  10.071  14.849  13.105
42831SOL    HW130267  10.106   0.018  13.032
42831SOL    HW230268   9.982  14.826  13.079
42832SOL     OW30269  12.197  11.037  11.974
42832SOL    HW130270  12.288  11.067  11.977
42832SOL    HW230271  12.191  10.984  11.895
42833SOL     OW30272   8.211   1.426   0.183
42833SOL    HW130273   8.303   1.441   0.163
42833SOL    HW230274   8.164   1.495   0.136
42834SOL     OW30275   6.978  10.440  14.393
42834SOL    HW130276   6.884  10.422  14.395
42834SOL    HW230277   7.002  10.454  14.484
42835SOL     OW30278   2.414   8.723   0.181
42835SOL    HW130279   2.366   8.806   0.179
42835SOL    HW230280   2.479   8.732   0.111
42836SOL     OW30281   2.499   6.690   1.435
42836SOL    HW130282   2.534   6.615   1.387
42836SOL    HW230283   2.506   6.665   1.527
42837SOL     OW30284   8.592   1.029   7.442
42837SOL    HW130285   8.647   1.018   7.519
42837SOL    HW230286   8.552   0.943   7.428
42838SOL     OW30287   8.494  14.646  10.107
42838SOL    HW130288   8.539  14.679  10.030
42838SOL    HW230289   8.555  14.582  10.145
42839SOL     OW30290  14.054  13.506  12.174
42839SOL    HW130291  13.997  13.433  12.153
42839SOL    HW230292  14.009  13.583  12.138
42840SOL     OW30293   2.489   4.666  11.566
42840SOL    HW130294   2.403   4.696  11.538
42840SOL    HW230295   2.531   4.744  11.602
42841SOL     OW30296   0.533   5.522   9.469
42841SOL    HW130297   0.450   5.475   9.461
42841SOL    HW230298   0.599   5.452   9.471
42842SOL     OW30299   4.108   7.167  13.257
42842SOL    HW130300   4.024   7.161  13.302
42842SOL    HW230301   4.147   7.249  13.289
42843SOL     OW30302  12.581  10.799   7.785
42843SOL    HW130303  12.613  10.833   7.701
42843SOL    HW230304  12.612  10.862   7.850
42844SOL     OW30305  12.132   2.117  13.192
42844SOL    HW130306  12.112   2.028  13.163
42844SOL    HW230307  12.097   2.173  13.123
42845SOL     OW30308   8.923  12.293   5.186
42845SOL    HW130309   8.868  12.325   5.257
42845SOL    HW230310   8.874  12.220   5.148
42846SOL     OW30311   0.974  14.540   1.851
42846SOL    HW130312   0.949  14.488   1.774
42846SOL    HW230313   1.048  14.592   1.821
42847SOL     OW30314   4.365   9.131   8.871
42847SOL    HW130315   4.372   9.055   8.813
42847SOL    HW230316   4.456   9.153   8.892
42848SOL     OW30317  13.658   1.479   5.844
42848SOL    HW130318  13.722   1.412   5.820
42848SOL    HW230319  13.582   1.460   5.788
42849SOL     OW30320   8.058   6.182   0.998
42849SOL    HW130321   8.119   6.198   0.927
42849SOL    HW230322   8.090   6.102   1.040
42850SOL     OW30323  13.852   0.920  14.241
42850SOL    HW130324  13.929   0.959  14.199
42850SOL    HW230325  13.805   0.994  14.279
42851SOL     OW30326   0.031   9.249   2.690
42851SOL    HW130327   0.018   9.341   2.714
42851SOL    HW230328  14.842   9.202   2.736
42852SOL     OW30329  14.088   0.323   1.186
42852SOL    HW130330  14.007   0.305   1.233
42852SOL    HW230331  14.084   0.266   1.109
42853SOL     OW30332   1.961   5.747   3.345
42853SOL    HW130333   1.988   5.713   3.430
42853SOL    HW230334   1.868   5.725   3.339
42854SOL     OW30335   6.656  14.108  10.015
42854SOL    HW130336   6.585  14.047   9.997
42854SOL    HW230337   6.708  14.109   9.934
42855SOL     OW30338   0.770  13.661   8.999
42855SOL    HW130339   0.720  13.722   8.945
42855SOL    HW230340   0.715  13.648   9.076
42856SOL     OW30341  13.659   4.362   3.540
42856SOL    HW130342  13.674   4.312   3.460
42856SOL    HW230343  13.643   4.452   3.510
42857SOL     OW30344  10.804  11.961  12.896
42857SOL    HW130345  10.743  11.924  12.832
42857SOL    HW230346  10.750  12.019  12.951
42858SOL     OW30347   0.133   8.190   8.944
42858SOL    HW130348   0.141   8.169   9.038
42858SOL    HW230349   0.173   8.115   8.900
42859SOL     OW30350   2.863  14.520   3.400
42859SOL    HW130351   2.955  14.528   3.425
42859SOL    HW230352   2.862  14.448   3.337
42860SOL     OW30353   3.338   7.049  10.885
42860SOL    HW130354   3.256   7.010  10.854
42860SOL    HW230355   3.315   7.137  10.913
42861SOL     OW30356   9.080   7.772   4.200
42861SOL    HW130357   9.166   7.741   4.170
42861SOL    HW230358   9.078   7.748   4.293
42862SOL     OW30359   3.067   7.567  14.034
42862SOL    HW130360   3.090   7.633  14.098
42862SOL    HW230361   3.151   7.526  14.011
42863SOL     OW30362  14.718  13.411   5.325
42863SOL    HW130363  14.672  13.419   5.408
42863SOL    HW230364  14.763  13.327   5.330
42864SOL     OW30365   3.712   1.791   2.275
42864SOL    HW130366   3.759   1.713   2.247
42864SOL    HW230367   3.720   1.791   2.370
42865SOL     OW30368  12.892   5.991  11.057
42865SOL    HW130369  12.948   6.027  10.988
42865SOL    HW230370  12.936   5.911  11.085
42866SOL     OW30371   8.709   7.891   7.414
42866SOL    HW130372   8.719   7.873   7.321
42866SOL    HW230373   8.793   7.866   7.452
42867SOL     OW30374  13.823  12.654   4.967
42867SOL    HW130375  13.744  12.629   4.919
42867SOL    HW230376  13.791  12.697   5.046
42868SOL     OW30377   2.723   2.999   0.466
42868SOL    HW130378   2.648   2.947   0.497
42868SOL    HW230379   2.796   2.937   0.466
42869SOL     OW30380   4.900   3.157  13.225
42869SOL    HW130381   4.907   3.211  13.147
42869SOL    HW230382   4.965   3.192  13.285
42870SOL     OW30383   5.797   2.464   5.373
42870SOL    HW130384   5.860   2.469   5.302
42870SOL    HW230385   5.712   2.482   5.332
42871SOL     OW30386   7.665  11.473   5.186
42871SOL    HW130387   7.606  11.470   5.262
42871SOL    HW230388   7.719  11.394   5.195
42872SOL     OW30389   7.637  10.351   5.820
42872SOL    HW130390   7.558  10.298   5.808
42872SOL    HW230391   7.653  10.390   5.734
42873SOL     OW30392   1.477   1.612  13.035
42873SOL    HW130393   1.385   1.631  13.019
42873SOL    HW230394   1.522   1.644  12.957
42874SOL     OW30395   5.187  11.715  14.004
42874SOL    HW130396   5.113  11.656  13.989
42874SOL    HW230397   5.264  11.658  14.001
42875SOL     OW30398   0.607   2.537   8.429
42875SOL    HW130399   0.535   2.559   8.370
42875SOL    HW230400   0.587   2.448   8.458
42876SOL     OW30401   1.193   8.507  14.432
42876SOL    HW130402   1.123   8.455  14.393
42876SOL    HW230403   1.177   8.596  14.402
42877SOL     OW30404   2.675   9.924   3.058
42877SOL    HW130405   2.653   9.834   3.083
42877SOL    HW230406   2.628   9.979   3.120
42878SOL     OW30407   6.484   6.902   2.217
42878SOL    HW130408   6.434   6.929   2.140
42878SOL    HW230409   6.464   6.809   2.227
42879SOL     OW30410   4.265  13.269   3.392
42879SOL    HW130411   4.224  13.331   3.451
42879SOL    HW230412   4.301  13.323   3.321
42880SOL     OW30413   3.934   6.951  10.181
42880SOL    HW130414   3.954   7.027  10.235
42880SOL    HW230415   3.980   6.967  10.098
42881SOL     OW30416  13.157   2.859   8.189
42881SOL    HW130417  13.091   2.804   8.148
42881SOL    HW230418  13.205   2.800   8.247
42882SOL     OW30419   8.356  12.972  14.240
42882SOL    HW130420   8.356  12.877  14.255
42882SOL    HW230421   8.282  13.004  14.292
42883SOL     OW30422   6.572  12.998   2.434
42883SOL    HW130423   6.543  13.075   2.484
42883SOL    HW230424   6.502  12.933   2.449
42884SOL     OW30425   8.192  12.485   9.205
42884SOL    HW130426   8.191  12.395   9.236
42884SOL    HW230427   8.262  12.486   9.139
42885SOL     OW30428   4.852   3.435   4.965
42885SOL    HW130429   4.779   3.482   4.926
42885SOL    HW230430   4.816   3.350   4.989
42886SOL     OW30431   3.384   7.587  12.336
42886SOL    HW130432   3.302   7.580  12.385
42886SOL    HW230433   3.357   7.605  12.246
42887SOL     OW30434  11.160  14.589   9.550
42887SOL    HW130435  11.095  14.604   9.482
42887SOL    HW230436  11.146  14.659   9.613
42888SOL     OW30437   1.566   7.380  11.670
42888SOL    HW130438   1.472   7.379  11.651
42888SOL    HW230439   1.595   7.467  11.645
42889SOL     OW30440   4.316  14.386   0.138
42889SOL    HW130441   4.342  14.457   0.080
42889SOL    HW230442   4.355  14.308   0.101
42890SOL     OW30443  11.938  13.942  11.295
42890SOL    HW130444  11.917  13.911  11.383
42890SOL    HW230445  11.854  13.943  11.249
42891SOL     OW30446   5.632  10.513   7.780
42891SOL    HW130447   5.673  10.435   7.818
42891SOL    HW230448   5.585  10.554   7.853
42892SOL     OW30449   0.618   1.247  11.613
42892SOL    HW130450   0.665   1.298  11.547
42892SOL    HW230451   0.682   1.234  11.683
42893SOL     OW30452  13.829  14.405   0.831
42893SOL    HW130453  13.856  14.432   0.743
42893SOL    HW230454  13.840  14.483   0.885
42894SOL     OW30455   7.303  13.215  11.942
42894SOL    HW130456   7.217  13.188  11.973
42894SOL    HW230457   7.320  13.159  11.866
42895SOL     OW30458  12.790   9.064  11.654
42895SOL    HW130459  12.723   9.122  11.690
42895SOL    HW230460  12.845   9.042  11.729
42896SOL     OW30461  10.224   1.251   0.060
42896SOL    HW130462  10.218   1.211   0.146
42896SOL    HW230463  10.222   1.178  14.880
42897SOL     OW30464   4.693   9.870   0.171
42897SOL    HW130465   4.604   9.890   0.200
42897SOL    HW230466   4.733   9.826   0.246
42898SOL     OW30467  11.921   7.149   0.890
42898SOL    HW130468  11.992   7.197   0.848
42898SOL    HW230469  11.961   7.068   0.921
42899SOL     OW30470  13.183   1.693   1.730
42899SOL    HW130471  13.196   1.788   1.717
42899SOL    HW230472  13.257   1.666   1.783
42900SOL     OW30473   2.828   1.507  12.626
42900SOL    HW130474   2.873   1.504  12.542
42900SOL    HW230475   2.759   1.572  12.614
42901SOL     OW30476   3.206   6.522   8.159
42901SOL    HW130477   3.195   6.527   8.254
42901SOL    HW230478   3.174   6.606   8.127
42902SOL     OW30479  11.527   8.879   4.177
42902SOL    HW130480  11.617   8.891   4.148
42902SOL    HW230481  11.526   8.793   4.220
42903SOL     OW30482   0.463   0.549   3.491
42903SOL    HW130483   0.446   0.637   3.457
42903SOL    HW230484   0.494   0.564   3.581
42904SOL     OW30485   6.100   7.429  10.850
42904SOL    HW130486   6.084   7.341  10.883
42904SOL    HW230487   6.014   7.461  10.822
42905SOL     OW30488  12.597  11.724   0.936
42905SOL    HW130489  12.646  11.803   0.911
42905SOL    HW230490  12.527  11.756   0.992
42906SOL     OW30491  13.373   6.068   3.501
42906SOL    HW130492  13.460   6.107   3.508
42906SOL    HW230493  13.317   6.125   3.553
42907SOL     OW30494   8.760  13.318  10.147
42907SOL    HW130495   8.765  13.398  10.095
42907SOL    HW230496   8.669  13.289  10.138
42908SOL     OW30497  11.230  10.666   0.308
42908SOL    HW130498  11.293  10.636   0.243
42908SOL    HW230499  11.267  10.748   0.341
42909SOL     OW30500   8.200   4.489   9.164
42909SOL    HW130501   8.199   4.571   9.116
42909SOL    HW230502   8.293   4.465   9.167
42910SOL     OW30503   4.130  13.861  14.505
42910SOL    HW130504   4.079  13.782  14.525
42910SOL    HW230505   4.084  13.932  14.549
42911SOL     OW30506   6.922   5.825  10.530
42911SOL    HW130507   6.945   5.744  10.576
42911SOL    HW230508   7.001   5.850  10.483
42912SOL     OW30509   4.808   7.984  13.179
42912SOL    HW130510   4.897   8.006  13.152
42912SOL    HW230511   4.752   8.044  13.129
42913SOL     OW30512   2.634   2.502   7.693
42913SOL    HW130513   2.631   2.427   7.634
42913SOL    HW230514   2.722   2.538   7.683
42914SOL     OW30515   2.169  12.140   2.321
42914SOL    HW130516   2.116  12.126   2.242
42914SOL    HW230517   2.182  12.053   2.357
42915SOL     OW30518   7.379  10.198   3.601
42915SOL    HW130519   7.466  10.164   3.584
42915SOL    HW230520   7.340  10.209   3.514
42916SOL     OW30521   5.699  14.374  10.587
42916SOL    HW130522   5.696  14.412  10.675
42916SOL    HW230523   5.616  14.329  10.577
42917SOL     OW30524  13.872   0.327   6.989
42917SOL    HW130525  13.935   0.388   7.029
42917SOL    HW230526  13.870   0.352   6.897
42918SOL     OW30527   7.107  12.939   7.070
42918SOL    HW130528   7.146  12.984   7.145
42918SOL    HW230529   7.074  13.010   7.014
42919SOL     OW30530  11.484   5.027  14.288
42919SOL    HW130531  11.557   4.965  14.280
42919SOL    HW230532  11.500   5.093  14.221
42920SOL     OW30533  13.343   3.008   8.058
42920SOL    HW130534  13.271   2.978   8.114
42920SOL    HW230535  13.303   3.025   7.973
42921SOL     OW30536   3.457   4.698  10.767
42921SOL    HW130537   3.475   4.785  10.733
42921SOL    HW230538   3.397   4.659  10.704
42922SOL     OW30539   6.742   2.309  12.644
42922SOL    HW130540   6.786   2.386  12.608
42922SOL    HW230541   6.681   2.283  12.575
42923SOL     OW30542   9.579   1.281   8.956
42923SOL    HW130543   9.671   1.257   8.955
42923SOL    HW230544   9.562   1.309   9.046
42924SOL     OW30545   9.874   2.436   2.852
42924SOL    HW130546   9.868   2.498   2.924
42924SOL    HW230547   9.870   2.490   2.773
42925SOL     OW30548   1.048   5.365   0.206
42925SOL    HW130549   1.119   5.389   0.147
42925SOL    HW230550   0.973   5.415   0.175
42926SOL     OW30551  14.694  14.685   1.082
42926SOL    HW130552  14.686  14.773   1.118
42926SOL    HW230553  14.762  14.643   1.135
42927SOL     OW30554  13.176   0.684   3.966
42927SOL    HW130555  13.117   0.617   3.931
42927SOL    HW230556  13.195   0.740   3.891
42928SOL     OW30557  12.617   7.097   3.524
42928SOL    HW130558  12.654   7.084   3.611
42928SOL    HW230559  12.684   7.065   3.464
42929SOL     OW30560   3.075  10.734  14.234
42929SOL    HW130561   3.061  10.808  14.293
42929SOL    HW230562   3.136  10.767  14.168
42930SOL     OW30563  12.917   8.057   2.256
42930SOL    HW130564  12.848   8.121   2.235
42930SOL    HW230565  12.877   7.999   2.320
42931SOL     OW30566   7.202  12.627   5.523
42931SOL    HW130567   7.142  12.553   5.518
42931SOL    HW230568   7.181  12.680   5.446
42932SOL     OW30569   4.559   1.075  11.916
42932SOL    HW130570   4.594   1.153  11.959
42932SOL    HW230571   4.519   1.107  11.836
42933SOL     OW30572   0.497  11.621  10.676
42933SOL    HW130573   0.582  11.581  10.693
42933SOL    HW230574   0.442  11.596  10.750
42934SOL     OW30575   7.109   4.803   6.074
42934SOL    HW130576   7.094   4.838   6.161
42934SOL    HW230577   7.109   4.708   6.085
42935SOL     OW30578   0.511   5.918   4.218
42935SOL    HW130579   0.443   5.883   4.275
42935SOL    HW230580   0.544   5.842   4.170
42936SOL     OW30581   5.852  12.824   9.562
42936SOL    HW130582   5.825  12.813   9.471
42936SOL    HW230583   5.942  12.856   9.557
42937SOL     OW30584  12.161   3.326  13.721
42937SOL    HW130585  12.177   3.261  13.653
42937SOL    HW230586  12.209   3.404  13.692
42938SOL     OW30587  13.141  14.226   1.493
42938SOL    HW130588  13.185  14.143   1.475
42938SOL    HW230589  13.065  14.201   1.546
42939SOL     OW30590   4.734   3.965  14.665
42939SOL    HW130591   4.647   3.987  14.699
42939SOL    HW230592   4.743   4.018  14.586
42940SOL     OW30593   8.550  13.806   2.931
42940SOL    HW130594   8.571  13.785   3.023
42940SOL    HW230595   8.493  13.882   2.937
42941SOL     OW30596   7.719   3.149   7.628
42941SOL    HW130597   7.801   3.184   7.592
42941SOL    HW230598   7.701   3.071   7.576
42942SOL     OW30599   5.456   6.107   8.582
42942SOL    HW130600   5.394   6.058   8.637
42942SOL    HW230601   5.448   6.198   8.612
42943SOL     OW30602   7.729  12.759   6.713
42943SOL    HW130603   7.706  12.834   6.769
42943SOL    HW230604   7.748  12.688   6.775
42944SOL     OW30605  11.045   8.912   2.814
42944SOL    HW130606  11.003   8.994   2.789
42944SOL    HW230607  11.058   8.866   2.731
42945SOL     OW30608   0.648   7.978   8.776
42945SOL    HW130609   0.725   7.978   8.720
42945SOL    HW230610   0.673   8.031   8.852
42946SOL     OW30611  12.248  14.189   6.518
42946SOL    HW130612  12.280  14.235   6.440
42946SOL    HW230613  12.223  14.102   6.486
42947SOL     OW30614   9.331   1.517   7.270
42947SOL    HW130615   9.274   1.500   7.346
42947SOL    HW230616   9.302   1.602   7.237
42948SOL     OW30617   8.483  11.339   5.809
42948SOL    HW130618   8.514  11.395   5.738
42948SOL    HW230619   8.394  11.315   5.784
42949SOL     OW30620   7.054   5.480   5.500
42949SOL    HW130621   7.149   5.494   5.493
42949SOL    HW230622   7.017   5.523   5.423
42950SOL     OW30623  13.485   2.366  12.487
42950SOL    HW130624  13.502   2.455  12.515
42950SOL    HW230625  13.549   2.349  12.417
42951SOL     OW30626   7.418   2.039   4.989
42951SOL    HW130627   7.456   2.119   5.028
42951SOL    HW230628   7.482   2.012   4.924
42952SOL     OW30629   0.176   9.059   7.132
42952SOL    HW130630   0.150   8.980   7.180
42952SOL    HW230631   0.123   9.058   7.053
42953SOL     OW30632  12.519  12.373  14.663
42953SOL    HW130633  12.520  12.392  14.757
42953SOL    HW230634  12.431  12.400  14.634
42954SOL     OW30635   6.587  13.667   7.951
42954SOL    HW130636   6.634  13.615   7.887
42954SOL    HW230637   6.565  13.748   7.905
42955SOL     OW30638   0.280   2.435   2.810
42955SOL    HW130639   0.246   2.348   2.792
42955SOL    HW230640   0.314   2.429   2.899
42956SOL     OW30641   1.451   6.138   4.728
42956SOL    HW130642   1.396   6.083   4.785
42956SOL    HW230643   1.446   6.094   4.643
42957SOL     OW30644   6.571  11.506  11.991
42957SOL    HW130645   6.499  11.490  12.051
42957SOL    HW230646   6.633  11.435  12.009
42958SOL     OW30647   4.343   1.877   0.994
42958SOL    HW130648   4.378   1.838   0.914
42958SOL    HW230649   4.420   1.903   1.044
42959SOL     OW30650   6.232  13.995   5.344
42959SOL    HW130651   6.251  13.961   5.431
42959SOL    HW230652   6.159  14.055   5.357
42960SOL     OW30653  10.591   4.499  10.481
42960SOL    HW130654  10.683   4.497  10.454
42960SOL    HW230655  10.590   4.552  10.560
42961SOL     OW30656  13.346   6.389   2.331
42961SOL    HW130657  13.321   6.429   2.248
42961SOL    HW230658  13.266   6.346   2.362
42962SOL     OW30659   0.642   2.220   6.673
42962SOL    HW130660   0.690   2.157   6.727
42962SOL    HW230661   0.631   2.175   6.589
42963SOL     OW30662   1.121   4.639   6.891
42963SOL    HW130663   1.205   4.601   6.864
42963SOL    HW230664   1.115   4.721   6.842
42964SOL     OW30665   3.976  10.829   1.603
42964SOL    HW130666   4.059  10.853   1.561
42964SOL    HW230667   3.924  10.789   1.533
42965SOL     OW30668   4.860   4.284   4.551
42965SOL    HW130669   4.908   4.276   4.633
42965SOL    HW230670   4.774   4.246   4.569
42966SOL     OW30671   0.488   0.001  11.857
42966SOL    HW130672   0.481  14.803  11.804
42966SOL    HW230673   0.491  14.851  11.947
42967SOL     OW30674   3.099   2.850   4.849
42967SOL    HW130675   3.054   2.902   4.916
42967SOL    HW230676   3.081   2.759   4.873
42968SOL     OW30677   2.056   3.323   2.659
42968SOL    HW130678   1.998   3.315   2.582
42968SOL    HW230679   2.134   3.273   2.636
42969SOL     OW30680   9.954  11.088   5.986
42969SOL    HW130681  10.005  11.156   6.031
42969SOL    HW230682   9.873  11.083   6.036
42970SOL     OW30683   3.829   6.588  11.674
42970SOL    HW130684   3.808   6.640  11.596
42970SOL    HW230685   3.891   6.522  11.642
42971SOL     OW30686   7.555   7.455  12.267
42971SOL    HW130687   7.575   7.377  12.215
42971SOL    HW230688   7.508   7.421  12.343
42972SOL     OW30689  14.750   9.912   0.542
42972SOL    HW130690  14.800   9.837   0.574
42972SOL    HW230691  14.806   9.951   0.474
42973SOL     OW30692   4.541   6.265   9.765
42973SOL    HW130693   4.612   6.325   9.789
42973SOL    HW230694   4.495   6.247   9.847
42974SOL     OW30695   2.224  10.596   0.233
42974SOL    HW130696   2.224  10.647   0.152
42974SOL    HW230697   2.275  10.649   0.295
42975SOL     OW30698  13.768   0.739   6.995
42975SOL    HW130699  13.686   0.717   6.950
42975SOL    HW230700  13.744   0.747   7.087
42976SOL     OW30701   0.883   8.004   6.602
42976SOL    HW130702   0.892   8.036   6.692
42976SOL    HW230703   0.804   7.950   6.603
42977SOL     OW30704  13.329   2.347  11.440
42977SOL    HW130705  13.238   2.343  11.408
42977SOL    HW230706  13.333   2.426  11.493
42978SOL     OW30707  10.471   1.197   7.634
42978SOL    HW130708  10.517   1.135   7.578
42978SOL    HW230709  10.486   1.164   7.723
42979SOL     OW30710  13.425   2.475  13.678
42979SOL    HW130711  13.512   2.496  13.713
42979SOL    HW230712  13.386   2.561  13.659
42980SOL     OW30713   4.459  13.441  11.990
42980SOL    HW130714   4.514  13.364  11.998
42980SOL    HW230715   4.470  13.470  11.900
42981SOL     OW30716   4.566   2.035   7.250
42981SOL    HW130717   4.509   2.106   7.279
42981SOL    HW230718   4.580   1.982   7.328
42982SOL     OW30719  13.872  13.159   9.598
42982SOL    HW130720  13.808  13.094   9.625
42982SOL    HW230721  13.874  13.222   9.670
42983SOL     OW30722   8.016   2.551   8.702
42983SOL    HW130723   8.107   2.547   8.674
42983SOL    HW230724   8.014   2.508   8.787
42984SOL     OW30725  13.010   6.614  14.135
42984SOL    HW130726  13.063   6.535  14.141
42984SOL    HW230727  12.999   6.642  14.225
42985SOL     OW30728   0.634  14.474   4.330
42985SOL    HW130729   0.577  14.515   4.265
42985SOL    HW230730   0.699  14.427   4.279
42986SOL     OW30731  12.732   9.721   4.890
42986SOL    HW130732  12.707   9.799   4.839
42986SOL    HW230733  12.821   9.701   4.861
42987SOL     OW30734   4.475  12.772  10.759
42987SOL    HW130735   4.473  12.722  10.677
42987SOL    HW230736   4.474  12.706  10.828
42988SOL     OW30737   6.585   8.938   6.544
42988SOL    HW130738   6.640   8.949   6.621
42988SOL    HW230739   6.604   8.850   6.513
42989SOL     OW30740  13.469  11.919  13.716
42989SOL    HW130741  13.507  11.835  13.741
42989SOL    HW230742  13.497  11.932  13.625
42990SOL     OW30743   1.452   7.441  14.755
42990SOL    HW130744   1.457   7.468  14.663
42990SOL    HW230745   1.365   7.404  14.765
42991SOL     OW30746   7.080  10.185  13.086
42991SOL    HW130747   7.037  10.158  13.005
42991SOL    HW230748   7.158  10.131  13.091
42992SOL     OW30749  13.856  12.229  10.294
42992SOL    HW130750  13.869  12.323  10.307
42992SOL    HW230751  13.866  12.217  10.200
42993SOL     OW30752   7.357   4.943  13.640
42993SOL    HW130753   7.266   4.918  13.657
42993SOL    HW230754   7.385   4.987  13.720
42994SOL     OW30755  10.737   0.864   7.838
42994SOL    HW130756  10.670   0.809   7.796
42994SOL    HW230757  10.806   0.802   7.862
42995SOL     OW30758  10.597  10.986   9.531
42995SOL    HW130759  10.593  10.945   9.617
42995SOL    HW230760  10.509  10.978   9.495
42996SOL     OW30761  13.508  11.845   0.638
42996SOL    HW130762  13.432  11.903   0.632
42996SOL    HW230763  13.511  11.801   0.552
42997SOL     OW30764   1.551   4.289  13.513
42997SOL    HW130765   1.544   4.384  13.525
42997SOL    HW230766   1.575   4.255  13.599
42998SOL     OW30767   5.080   8.577  13.544
42998SOL    HW130768   4.996   8.584  13.499
42998SOL    HW230769   5.145   8.607  13.480
42999SOL     OW30770   2.085  10.232  12.034
42999SOL    HW130771   2.163  10.179  12.019
42999SOL    HW230772   2.062  10.215  12.125
43000SOL     OW30773   7.601  10.070   2.887
43000SOL    HW130774   7.616  10.148   2.941
43000SOL    HW230775   7.531  10.096   2.827
43001SOL     OW30776   9.591   2.511  12.897
43001SOL    HW130777   9.636   2.523  12.981
43001SOL    HW230778   9.554   2.597  12.878
43002SOL     OW30779  14.312   3.778  13.054
43002SOL    HW130780  14.382   3.715  13.069
43002SOL    HW230781  14.293   3.813  13.140
43003SOL     OW30782  10.906  12.206   6.328
43003SOL    HW130783  10.917  12.119   6.290
43003SOL    HW230784  10.945  12.200   6.415
43004SOL     OW30785  13.821  10.287  13.121
43004SOL    HW130786  13.882  10.284  13.195
43004SOL    HW230787  13.838  10.206  13.072
43005SOL     OW30788   9.918   5.797  13.174
43005SOL    HW130789   9.867   5.858  13.228
43005SOL    HW230790   9.903   5.826  13.084
43006SOL     OW30791   7.568  14.240  13.470
43006SOL    HW130792   7.523  14.209  13.392
43006SOL    HW230793   7.600  14.327  13.446
43007SOL     OW30794   2.915   2.665   3.064
43007SOL    HW130795   2.925   2.710   2.980
43007SOL    HW230796   2.821   2.660   3.078
43008SOL     OW30797  10.223   0.181   5.070
43008SOL    HW130798  10.157   0.249   5.084
43008SOL    HW230799  10.295   0.227   5.026
43009SOL     OW30800   5.435   1.725   1.878
43009SOL    HW130801   5.485   1.668   1.936
43009SOL    HW230802   5.372   1.666   1.835
43010SOL     OW30803  11.691   0.511   8.729
43010SOL    HW130804  11.664   0.559   8.808
43010SOL    HW230805  11.629   0.539   8.662
43011SOL     OW30806  13.498  14.613   9.948
43011SOL    HW130807  13.517  14.678  10.015
43011SOL    HW230808  13.580  14.563   9.939
43012SOL     OW30809   1.154  11.476  12.775
43012SOL    HW130810   1.133  11.403  12.833
43012SOL    HW230811   1.218  11.528  12.824
43013SOL     OW30812   8.017   0.548   6.580
43013SOL    HW130813   7.927   0.523   6.558
43013SOL    HW230814   8.046   0.599   6.505
43014SOL     OW30815  12.279  11.105   4.178
43014SOL    HW130816  12.201  11.130   4.229
43014SOL    HW230817  12.256  11.128   4.088
43015SOL     OW30818   7.051   9.907   9.161
43015SOL    HW130819   7.034   9.875   9.249
43015SOL    HW230820   7.094   9.991   9.173
43016SOL     OW30821   4.109   5.828  13.408
43016SOL    HW130822   4.057   5.899  13.370
43016SOL    HW230823   4.065   5.808  13.491
43017SOL     OW30824   4.565  12.588  13.867
43017SOL    HW130825   4.625  12.617  13.798
43017SOL    HW230826   4.488  12.557  13.820
43018SOL     OW30827   7.363   8.055  11.723
43018SOL    HW130828   7.363   8.015  11.636
43018SOL    HW230829   7.455   8.079  11.738
43019SOL     OW30830   0.389   8.468   9.874
43019SOL    HW130831   0.352   8.444   9.789
43019SOL    HW230832   0.339   8.417   9.938
43020SOL     OW30833   1.774   1.391   4.947
43020SOL    HW130834   1.682   1.413   4.938
43020SOL    HW230835   1.819   1.449   4.886
43021SOL     OW30836   0.832   6.444   7.397
43021SOL    HW130837   0.755   6.493   7.426
43021SOL    HW230838   0.810   6.414   7.309
43022SOL     OW30839   3.178   3.685   7.759
43022SOL    HW130840   3.135   3.745   7.698
43022SOL    HW230841   3.265   3.722   7.772
43023SOL     OW30842   0.078   7.432  10.606
43023SOL    HW130843  14.877   7.435  10.656
43023SOL    HW230844   0.083   7.341  10.575
43024SOL     OW30845  13.075  11.636   2.496
43024SOL    HW130846  12.997  11.658   2.548
43024SOL    HW230847  13.067  11.542   2.481
43025SOL     OW30848   2.684   7.556   2.903
43025SOL    HW130849   2.780   7.560   2.901
43025SOL    HW230850   2.657   7.644   2.931
43026SOL     OW30851   7.818   2.017   6.325
43026SOL    HW130852   7.731   1.978   6.320
43026SOL    HW230853   7.867   1.960   6.385
43027SOL     OW30854   9.148   1.276   0.174
43027SOL    HW130855   9.214   1.229   0.125
43027SOL    HW230856   9.110   1.338   0.111
43028SOL     OW30857  11.543   2.133  11.904
43028SOL    HW130858  11.602   2.205  11.880
43028SOL    HW230859  11.463   2.149  11.853
43029SOL     OW30860   5.005   5.468  14.224
43029SOL    HW130861   4.995   5.409  14.149
43029SOL    HW230862   4.937   5.443  14.285
43030SOL     OW30863   1.271   4.838  12.642
43030SOL    HW130864   1.270   4.923  12.597
43030SOL    HW230865   1.247   4.858  12.732
43031SOL     OW30866  11.619  10.817   5.705
43031SOL    HW130867  11.610  10.791   5.613
43031SOL    HW230868  11.706  10.855   5.711
43032SOL     OW30869  13.480   7.405   8.259
43032SOL    HW130870  13.546   7.380   8.194
43032SOL    HW230871  13.423   7.329   8.266
43033SOL     OW30872   7.868  10.100  14.523
43033SOL    HW130873   7.932  10.052  14.471
43033SOL    HW230874   7.918  10.132  14.599
43034SOL     OW30875   6.758   2.433   2.796
43034SOL    HW130876   6.677   2.385   2.812
43034SOL    HW230877   6.794   2.394   2.717
43035SOL     OW30878  13.191   8.283   7.857
43035SOL    HW130879  13.174   8.377   7.867
43035SOL    HW230880  13.287   8.276   7.860
43036SOL     OW30881   4.843   5.722   1.935
43036SOL    HW130882   4.783   5.661   1.978
43036SOL    HW230883   4.837   5.699   1.842
43037SOL     OW30884   5.526   2.952  10.313
43037SOL    HW130885   5.611   2.978  10.350
43037SOL    HW230886   5.462   2.989  10.374
43038SOL     OW30887   6.316  10.076   5.915
43038SOL    HW130888   6.307   9.989   5.876
43038SOL    HW230889   6.398  10.110   5.879
43039SOL     OW30890   4.597   3.858   8.047
43039SOL    HW130891   4.662   3.898   7.990
43039SOL    HW230892   4.513   3.874   8.005
43040SOL     OW30893   3.601   5.479   2.576
43040SOL    HW130894   3.692   5.456   2.557
43040SOL    HW230895   3.549   5.414   2.530
43041SOL     OW30896   3.554   5.977   3.419
43041SOL    HW130897   3.631   5.926   3.395
43041SOL    HW230898   3.492   5.914   3.455
43042SOL     OW30899   3.464   6.811   3.361
43042SOL    HW130900   3.476   6.830   3.454
43042SOL    HW230901   3.537   6.755   3.338
43043SOL     OW30902   8.564   0.941   2.965
43043SOL    HW130903   8.644   0.901   2.928
43043SOL    HW230904   8.499   0.932   2.895
43044SOL     OW30905   5.029  12.263  14.421
43044SOL    HW130906   4.960  12.328  14.407
43044SOL    HW230907   5.064  12.283  14.508
43045SOL     OW30908  11.337   5.382  14.032
43045SOL    HW130909  11.271   5.443  14.068
43045SOL    HW230910  11.386   5.435  13.969
43046SOL     OW30911   3.039  12.468   5.423
43046SOL    HW130912   3.123  12.426   5.442
43046SOL    HW230913   2.984  12.397   5.390
43047SOL     OW30914   6.025   1.443   8.412
43047SOL    HW130915   6.032   1.445   8.508
43047SOL    HW230916   5.973   1.365   8.394
43048SOL     OW30917   3.885   4.181   9.092
43048SOL    HW130918   3.820   4.251   9.105
43048SOL    HW230919   3.839   4.101   9.119
43049SOL     OW30920   1.036   6.156   0.631
43049SOL    HW130921   1.054   6.065   0.607
43049SOL    HW230922   1.080   6.207   0.563
43050SOL     OW30923   9.008   1.972  13.900
43050SOL    HW130924   9.019   1.892  13.951
43050SOL    HW230925   9.060   1.956  13.820
43051SOL     OW30926  10.143   9.778   0.359
43051SOL    HW130927  10.197   9.713   0.315
43051SOL    HW230928  10.150   9.856   0.304
43052SOL     OW30929   9.435  14.810   8.131
43052SOL    HW130930   9.501  14.802   8.199
43052SOL    HW230931   9.358  14.766   8.168
43053SOL     OW30932   8.096  13.308  13.570
43053SOL    HW130933   8.004  13.283  13.561
43053SOL    HW230934   8.096  13.404  13.559
43054SOL     OW30935   8.387  11.205  13.840
43054SOL    HW130936   8.360  11.194  13.932
43054SOL    HW230937   8.474  11.244  13.845
43055SOL     OW30938   2.749  10.898  11.971
43055SOL    HW130939   2.801  10.821  11.996
43055SOL    HW230940   2.807  10.972  11.990
43056SOL     OW30941   9.645   9.490   9.312
43056SOL    HW130942   9.696   9.412   9.293
43056SOL    HW230943   9.554   9.459   9.312
43057SOL     OW30944   8.862  13.735   1.895
43057SOL    HW130945   8.873  13.829   1.879
43057SOL    HW230946   8.942  13.696   1.858
43058SOL     OW30947   0.990   5.990   2.069
43058SOL    HW130948   1.000   5.905   2.113
43058SOL    HW230949   1.072   6.001   2.021
43059SOL     OW30950   5.059   8.024  14.373
43059SOL    HW130951   5.117   7.986  14.306
43059SOL    HW230952   4.974   8.028  14.330
43060SOL     OW30953  13.091  12.366   1.265
43060SOL    HW130954  13.013  12.321   1.231
43060SOL    HW230955  13.069  12.388   1.355
43061SOL     OW30956   8.539   3.808   3.242
43061SOL    HW130957   8.511   3.763   3.322
43061SOL    HW230958   8.537   3.741   3.175
43062SOL     OW30959  11.889  12.033   9.059
43062SOL    HW130960  11.857  12.002   9.144
43062SOL    HW230961  11.887  12.128   9.066
43063SOL     OW30962   3.101  13.702   8.279
43063SOL    HW130963   3.185  13.689   8.234
43063SOL    HW230964   3.046  13.745   8.214
43064SOL     OW30965   1.939   9.236   4.911
43064SOL    HW130966   1.895   9.190   4.840
43064SOL    HW230967   2.032   9.218   4.896
43065SOL     OW30968  13.225   2.260   2.549
43065SOL    HW130969  13.136   2.280   2.523
43065SOL    HW230970  13.220   2.172   2.587
43066SOL     OW30971   2.163  12.792  10.140
43066SOL    HW130972   2.241  12.759  10.184
43066SOL    HW230973   2.149  12.878  10.179
43067SOL     OW30974   4.311   1.935   1.625
43067SOL    HW130975   4.321   1.890   1.709
43067SOL    HW230976   4.216   1.943   1.613
43068SOL     OW30977  11.494   8.636   4.275
43068SOL    HW130978  11.427   8.630   4.344
43068SOL    HW230979  11.568   8.587   4.310
43069SOL     OW30980  13.334   9.500   6.753
43069SOL    HW130981  13.244   9.489   6.723
43069SOL    HW230982  13.379   9.540   6.679
43070SOL     OW30983   9.648  14.764  10.712
43070SOL    HW130984   9.687  14.753  10.798
43070SOL    HW230985   9.700  14.709  10.654
43071SOL     OW30986  10.451  14.516   2.265
43071SOL    HW130987  10.452  14.452   2.336
43071SOL    HW230988  10.390  14.583   2.295
43072SOL     OW30989   2.661   0.031   2.563
43072SOL    HW130990   2.587   0.021   2.623
43072SOL    HW230991   2.704   0.112   2.592
43073SOL     OW30992   3.161   7.511  12.452
43073SOL    HW130993   3.075   7.526  12.414
43073SOL    HW230994   3.170   7.415  12.452
43074SOL     OW30995  14.717   6.436   6.250
43074SOL    HW130996  14.685   6.526   6.243
43074SOL    HW230997  14.805   6.444   6.288
43075SOL     OW30998   1.313   1.227   3.275
43075SOL    HW130999   1.288   1.185   3.357
43075SOL    HW231000   1.404   1.200   3.260
43076SOL     OW31001   9.083   7.516  11.072
43076SOL    HW131002   9.075   7.610  11.057
43076SOL    HW231003   9.140   7.509  11.149
43077SOL     OW31004   7.054  14.273   2.715
43077SOL    HW131005   6.969  14.249   2.676
43077SOL    HW231006   7.095  14.329   2.649
43078SOL     OW31007   7.432   6.368   4.040
43078SOL    HW131008   7.477   6.315   3.974
43078SOL    HW231009   7.503   6.408   4.090
43079SOL     OW31010   3.663   2.855   3.562
43079SOL    HW131011   3.741   2.910   3.561
43079SOL    HW231012   3.593   2.911   3.528
43080SOL     OW31013   9.500   2.223   9.799
43080SOL    HW131014   9.590   2.245   9.825
43080SOL    HW231015   9.510   2.148   9.740
43081SOL     OW31016  13.380   8.101   4.385
43081SOL    HW131017  13.333   8.181   4.407
43081SOL    HW231018  13.328   8.060   4.316
43082SOL     OW31019   2.403  14.491  13.985
43082SOL    HW131020   2.336  14.525  14.044
43082SOL    HW231021   2.392  14.542  13.905
43083SOL     OW31022   1.288  12.794   2.782
43083SOL    HW131023   1.221  12.791   2.850
43083SOL    HW231024   1.265  12.870   2.729
43084SOL     OW31025   8.044   2.301   3.774
43084SOL    HW131026   8.092   2.337   3.699
43084SOL    HW231027   8.059   2.207   3.769
43085SOL     OW31028  14.721   8.881   0.376
43085SOL    HW131029  14.660   8.871   0.449
43085SOL    HW231030  14.664   8.894   0.300
43086SOL     OW31031   5.914   7.385   2.186
43086SOL    HW131032   5.902   7.467   2.138
43086SOL    HW231033   5.825   7.351   2.199
43087SOL     OW31034   0.727   1.393   5.403
43087SOL    HW131035   0.713   1.404   5.309
43087SOL    HW231036   0.815   1.355   5.411
43088SOL     OW31037  10.387   4.297   0.803
43088SOL    HW131038  10.409   4.230   0.738
43088SOL    HW231039  10.381   4.378   0.753
43089SOL     OW31040   7.678   9.600   1.598
43089SOL    HW131041   7.630   9.605   1.515
43089SOL    HW231042   7.684   9.507   1.617
43090SOL     OW31043   2.049  14.076   8.599
43090SOL    HW131044   2.109  14.142   8.635
43090SOL    HW231045   1.970  14.083   8.652
43091SOL     OW31046   5.948   9.321   6.670
43091SOL    HW131047   5.952   9.333   6.765
43091SOL    HW231048   5.899   9.397   6.639
43092SOL     OW31049   3.497   2.592   4.295
43092SOL    HW131050   3.451   2.511   4.274
43092SOL    HW231051   3.449   2.660   4.249
43093SOL     OW31052   9.140   1.194  13.783
43093SOL    HW131053   9.120   1.129  13.716
43093SOL    HW231054   9.090   1.271  13.757
43094SOL     OW31055   3.964  13.319   1.675
43094SOL    HW131056   3.935  13.238   1.634
43094SOL    HW231057   3.899  13.337   1.743
43095SOL     OW31058   3.788  14.257  14.461
43095SOL    HW131059   3.855  14.324  14.466
43095SOL    HW231060   3.772  14.245  14.367
43096SOL     OW31061   4.148  12.553  14.242
43096SOL    HW131062   4.058  12.520  14.243
43096SOL    HW231063   4.185  12.519  14.161
43097SOL     OW31064   9.331   1.686  12.116
43097SOL    HW131065   9.248   1.643  12.136
43097SOL    HW231066   9.307   1.775  12.090
43098SOL     OW31067  13.967  13.173   2.813
43098SOL    HW131068  13.899  13.223   2.858
43098SOL    HW231069  13.920  13.128   2.742
43099SOL     OW31070   7.087  13.924   2.857
43099SOL    HW131071   7.023  13.995   2.851
43099SOL    HW231072   7.057  13.871   2.930
43100SOL     OW31073   4.249  10.963   2.654
43100SOL    HW131074   4.332  10.916   2.656
43100SOL    HW231075   4.185  10.899   2.686
43101SOL     OW31076   1.756  10.333   5.006
43101SOL    HW131077   1.813  10.394   5.053
43101SOL    HW231078   1.690  10.307   5.070
43102SOL     OW31079   7.772   0.857  12.188
43102SOL    HW131080   7.798   0.877  12.278
43102SOL    HW231081   7.813   0.773  12.170
43103SOL     OW31082  12.171  10.579   9.114
43103SOL    HW131083  12.207  10.620   9.192
43103SOL    HW231084  12.129  10.499   9.145
43104SOL     OW31085   3.813   5.286   9.871
43104SOL    HW131086   3.864   5.334   9.806
43104SOL    HW231087   3.864   5.291   9.951
43105SOL     OW31088  13.546   5.793  12.525
43105SOL    HW131089  13.523   5.705  12.496
43105SOL    HW231090  13.534   5.848  12.447
43106SOL     OW31091   7.514   4.766  13.489
43106SOL    HW131092   7.518   4.820  13.410
43106SOL    HW231093   7.498   4.829  13.560
43107SOL     OW31094   3.797  13.368   8.407
43107SOL    HW131095   3.875  13.346   8.356
43107SOL    HW231096   3.725  13.322   8.364
43108SOL     OW31097  12.462   1.449   3.824
43108SOL    HW131098  12.465   1.354   3.841
43108SOL    HW231099  12.421   1.486   3.902
43109SOL     OW31100   5.739   4.862   4.064
43109SOL    HW131101   5.794   4.914   4.005
43109SOL    HW231102   5.784   4.779   4.073
43110SOL     OW31103   5.283   6.722  10.402
43110SOL    HW131104   5.207   6.780  10.394
43110SOL    HW231105   5.256   6.656  10.466
43111SOL     OW31106   0.239   0.259   5.429
43111SOL    HW131107   0.234   0.191   5.361
43111SOL    HW231108   0.177   0.229   5.496
43112SOL     OW31109  14.797   4.541   0.569
43112SOL    HW131110  14.839   4.579   0.646
43112SOL    HW231111  14.833   4.590   0.495
43113SOL     OW31112  13.885  14.379   0.012
43113SOL    HW131113  13.816  14.359  14.831
43113SOL    HW231114  13.906  14.471  14.877
43114SOL     OW31115  13.016  13.720   3.710
43114SOL    HW131116  13.079  13.735   3.639
43114SOL    HW231117  12.934  13.755   3.676
43115SOL     OW31118   3.809   5.961   3.663
43115SOL    HW131119   3.731   5.998   3.704
43115SOL    HW231120   3.823   6.013   3.584
43116SOL     OW31121   5.357   8.208   6.762
43116SOL    HW131122   5.445   8.221   6.728
43116SOL    HW231123   5.314   8.293   6.750
43117SOL     OW31124  14.698   5.309  11.415
43117SOL    HW131125  14.703   5.350  11.328
43117SOL    HW231126  14.742   5.225  11.404
43118SOL     OW31127   6.217   2.217  14.493
43118SOL    HW131128   6.132   2.260  14.481
43118SOL    HW231129   6.277   2.288  14.514
43119SOL     OW31130  10.172   9.096   2.142
43119SOL    HW131131  10.115   9.172   2.132
43119SOL    HW231132  10.159   9.046   2.061
43120SOL     OW31133   2.866   3.223  13.576
43120SOL    HW131134   2.859   3.244  13.670
43120SOL    HW231135   2.901   3.303  13.537
43121SOL     OW31136   5.649  12.633   9.131
43121SOL    HW131137   5.609  12.546   9.129
43121SOL    HW231138   5.635  12.668   9.043
43122SOL     OW31139  12.578  11.197   0.920
43122SOL    HW131140  12.570  11.281   0.965
43122SOL    HW231141  12.499  11.191   0.865
43123SOL     OW31142   7.437  13.955   6.144
43123SOL    HW131143   7.430  13.891   6.073
43123SOL    HW231144   7.411  13.907   6.223
43124SOL     OW31145   0.871   2.183   1.718
43124SOL    HW131146   0.793   2.130   1.704
43124SOL    HW231147   0.902   2.158   1.805
43125SOL     OW31148  11.968   7.504  12.510
43125SOL    HW131149  11.939   7.519  12.420
43125SOL    HW231150  12.050   7.552  12.518
43126SOL     OW31151  10.092  12.202   3.057
43126SOL    HW131152  10.164  12.148   3.091
43126SOL    HW231153  10.078  12.170   2.968
43127SOL     OW31154   9.517  11.675   3.535
43127SOL    HW131155   9.570  11.748   3.503
43127SOL    HW231156   9.555  11.598   3.492
43128SOL     OW31157   3.458   1.312   6.139
43128SOL    HW131158   3.513   1.257   6.195
43128SOL    HW231159   3.427   1.253   6.071
43129SOL     OW31160  12.028  11.881  13.230
43129SOL    HW131161  11.998  11.801  13.187
43129SOL    HW231162  12.073  11.929  13.161
43130SOL     OW31163   9.769   8.100   4.134
43130SOL    HW131164   9.780   8.182   4.086
43130SOL    HW231165   9.676   8.098   4.155
43131SOL     OW31166  14.392   5.101   4.170
43131SOL    HW131167  14.471   5.156   4.168
43131SOL    HW231168  14.416   5.028   4.227
43132SOL     OW31169  10.626   4.892   9.277
43132SOL    HW131170  10.588   4.973   9.242
43132SOL    HW231171  10.602   4.893   9.369
43133SOL     OW31172   0.557  12.726   3.590
43133SOL    HW131173   0.474  12.714   3.636
43133SOL    HW231174   0.535  12.719   3.497
43134SOL     OW31175   9.409   6.946   2.583
43134SOL    HW131176   9.320   6.916   2.565
43134SOL    HW231177   9.414   6.948   2.679
43135SOL     OW31178   9.987   5.369   3.086
43135SOL    HW131179   9.987   5.412   3.172
43135SOL    HW231180   9.899   5.332   3.079
43136SOL     OW31181   6.794  13.230  13.144
43136SOL    HW131182   6.715  13.254  13.095
43136SOL    HW231183   6.776  13.259  13.233
43137SOL     OW31184   6.006  10.383   9.938
43137SOL    HW131185   5.977  10.412  10.024
43137SOL    HW231186   6.037  10.294   9.952
43138SOL     OW31187  10.060  13.647  12.288
43138SOL    HW131188  10.036  13.630  12.197
43138SOL    HW231189  10.123  13.577  12.310
43139SOL     OW31190   6.183   1.282  11.058
43139SOL    HW131191   6.265   1.306  11.100
43139SOL    HW231192   6.117   1.291  11.127
43140SOL     OW31193   4.315   6.022   9.625
43140SOL    HW131194   4.333   5.928   9.628
43140SOL    HW231195   4.306   6.048   9.717
43141SOL     OW31196   3.379   1.319   9.937
43141SOL    HW131197   3.393   1.300  10.030
43141SOL    HW231198   3.373   1.414   9.933
43142SOL     OW31199   9.003   6.023  12.048
43142SOL    HW131200   9.085   6.034  12.000
43142SOL    HW231201   9.008   6.088  12.118
43143SOL     OW31202  11.181   5.156   3.632
43143SOL    HW131203  11.207   5.232   3.684
43143SOL    HW231204  11.098   5.183   3.591
43144SOL     OW31205  14.154   7.861   8.488
43144SOL    HW131206  14.173   7.922   8.416
43144SOL    HW231207  14.066   7.885   8.517
43145SOL     OW31208  11.849  11.101  14.064
43145SOL    HW131209  11.834  11.194  14.079
43145SOL    HW231210  11.761  11.064  14.055
43146SOL     OW31211  10.535   8.413   9.096
43146SOL    HW131212  10.470   8.368   9.150
43146SOL    HW231213  10.500   8.502   9.087
43147SOL     OW31214   7.198   6.050  13.219
43147SOL    HW131215   7.278   6.075  13.264
43147SOL    HW231216   7.128   6.076  13.279
43148SOL     OW31217   8.298  12.782   9.987
43148SOL    HW131218   8.375  12.783   9.930
43148SOL    HW231219   8.226  12.756   9.929
43149SOL     OW31220   9.677   2.174   4.216
43149SOL    HW131221   9.607   2.126   4.171
43149SOL    HW231222   9.707   2.114   4.285
43150SOL     OW31223   2.535   4.652   1.482
43150SOL    HW131224   2.572   4.710   1.549
43150SOL    HW231225   2.455   4.695   1.455
43151SOL     OW31226  12.937   0.736   8.244
43151SOL    HW131227  12.945   0.699   8.156
43151SOL    HW231228  12.866   0.799   8.237
43152SOL     OW31229   6.796  11.278   3.585
43152SOL    HW131230   6.739  11.257   3.511
43152SOL    HW231231   6.773  11.213   3.651
43153SOL     OW31232  14.665   1.977   1.943
43153SOL    HW131233  14.591   1.947   1.890
43153SOL    HW231234  14.739   1.923   1.912
43154SOL     OW31235   9.498   1.616   9.058
43154SOL    HW131236   9.569   1.649   9.114
43154SOL    HW231237   9.510   1.662   8.975
43155SOL     OW31238   6.324   7.701  11.797
43155SOL    HW131239   6.297   7.609  11.798
43155SOL    HW231240   6.331   7.723  11.704
43156SOL     OW31241   4.014   1.111   2.299
43156SOL    HW131242   3.933   1.061   2.293
43156SOL    HW231243   4.082   1.048   2.274
43157SOL     OW31244   9.554  11.430   9.182
43157SOL    HW131245   9.604  11.450   9.104
43157SOL    HW231246   9.508  11.512   9.203
43158SOL     OW31247  10.904   6.338   3.330
43158SOL    HW131248  10.856   6.394   3.390
43158SOL    HW231249  10.836   6.283   3.290
43159SOL     OW31250   6.252   0.999  11.226
43159SOL    HW131251   6.269   0.924  11.169
43159SOL    HW231252   6.336   1.016  11.268
43160SOL     OW31253   2.735   6.615   7.272
43160SOL    HW131254   2.652   6.615   7.320
43160SOL    HW231255   2.715   6.661   7.190
43161SOL     OW31256  12.254   8.277   0.194
43161SOL    HW131257  12.224   8.248   0.280
43161SOL    HW231258  12.176   8.267   0.138
43162SOL     OW31259  12.412   5.228   1.423
43162SOL    HW131260  12.501   5.248   1.454
43162SOL    HW231261  12.372   5.181   1.496
43163SOL     OW31262   8.546   5.766   6.107
43163SOL    HW131263   8.621   5.803   6.154
43163SOL    HW231264   8.499   5.715   6.173
43164SOL     OW31265  11.317   4.160   4.946
43164SOL    HW131266  11.244   4.194   4.999
43164SOL    HW231267  11.394   4.202   4.983
43165SOL     OW31268   9.100   7.192   7.040
43165SOL    HW131269   9.010   7.202   7.070
43165SOL    HW231270   9.153   7.188   7.120
43166SOL     OW31271   4.271   6.147  10.698
43166SOL    HW131272   4.292   6.233  10.661
43166SOL    HW231273   4.233   6.167  10.784
43167SOL     OW31274   0.188   2.012   6.384
43167SOL    HW131275   0.135   2.069   6.439
43167SOL    HW231276   0.167   1.923   6.414
43168SOL     OW31277  13.133  14.230  11.052
43168SOL    HW131278  13.111  14.163  10.987
43168SOL    HW231279  13.061  14.293  11.048
43169SOL     OW31280   0.454   6.722   4.439
43169SOL    HW131281   0.448   6.734   4.345
43169SOL    HW231282   0.540   6.684   4.454
43170SOL     OW31283   7.122   9.984  12.603
43170SOL    HW131284   7.053   9.977  12.537
43170SOL    HW231285   7.165   9.898  12.602
43171SOL     OW31286   8.716  13.461   4.294
43171SOL    HW131287   8.806  13.481   4.267
43171SOL    HW231288   8.674  13.547   4.300
43172SOL     OW31289  10.083   3.049  10.015
43172SOL    HW131290  10.067   3.089  10.100
43172SOL    HW231291  10.001   3.059   9.967
43173SOL     OW31292   9.537   5.571   8.669
43173SOL    HW131293   9.496   5.607   8.747
43173SOL    HW231294   9.465   5.528   8.622
43174SOL     OW31295   0.469   5.201   6.968
43174SOL    HW131296   0.412   5.129   6.942
43174SOL    HW231297   0.411   5.263   7.011
43175SOL     OW31298   8.176   8.220   3.253
43175SOL    HW131299   8.149   8.281   3.184
43175SOL    HW231300   8.261   8.188   3.224
43176SOL     OW31301   7.107   5.880   1.245
43176SOL    HW131302   7.059   5.861   1.326
43176SOL    HW231303   7.064   5.826   1.179
43177SOL     OW31304   2.436   1.208   0.444
43177SOL    HW131305   2.366   1.186   0.382
43177SOL    HW231306   2.504   1.249   0.390
43178SOL     OW31307  10.542  14.518   9.222
43178SOL    HW131308  10.533  14.476   9.136
43178SOL    HW231309  10.472  14.480   9.275
43179SOL     OW31310  14.788  13.151   0.717
43179SOL    HW131311  14.806  13.245   0.711
43179SOL    HW231312  14.805  13.118   0.629
43180SOL     OW31313  11.111   4.580   6.293
43180SOL    HW131314  11.123   4.543   6.205
43180SOL    HW231315  11.161   4.521   6.350
43181SOL     OW31316  10.219  14.457  11.776
43181SOL    HW131317  10.252  14.450  11.865
43181SOL    HW231318  10.178  14.373  11.758
43182SOL     OW31319  13.295  11.757   9.821
43182SOL    HW131320  13.342  11.684   9.780
43182SOL    HW231321  13.267  11.723   9.906
43183SOL     OW31322  12.738   9.040   6.044
43183SOL    HW131323  12.679   9.109   6.071
43183SOL    HW231324  12.776   9.071   5.962
43184SOL     OW31325   8.814   3.846   8.887
43184SOL    HW131326   8.723   3.830   8.912
43184SOL    HW231327   8.846   3.909   8.952
43185SOL     OW31328   8.017   7.271  14.003
43185SOL    HW131329   8.001   7.329  14.078
43185SOL    HW231330   8.093   7.220  14.029
43186SOL     OW31331   1.210   4.949   4.832
43186SOL    HW131332   1.185   4.863   4.798
43186SOL    HW231333   1.163   4.957   4.915
43187SOL     OW31334  12.334  14.160   1.822
43187SOL    HW131335  12.310  14.072   1.794
43187SOL    HW231336  12.415  14.147   1.872
43188SOL     OW31337  13.071   2.312   3.462
43188SOL    HW131338  13.085   2.231   3.512
43188SOL    HW231339  12.979   2.334   3.478
43189SOL     OW31340   0.065   3.213   9.768
43189SOL    HW131341   0.102   3.273   9.703
43189SOL    HW231342   0.002   3.160   9.718
43190SOL     OW31343   7.489   5.760   7.953
43190SOL    HW131344   7.396   5.758   7.929
43190SOL    HW231345   7.489   5.793   8.043
43191SOL     OW31346   7.389   4.185  13.065
43191SOL    HW131347   7.320   4.246  13.091
43191SOL    HW231348   7.468   4.219  13.106
43192SOL     OW31349  13.566   5.981   1.883
43192SOL    HW131350  13.628   6.051   1.901
43192SOL    HW231351  13.575   5.964   1.789
43193SOL     OW31352   7.923  11.533   9.866
43193SOL    HW131353   7.876  11.504   9.944
43193SOL    HW231354   7.938  11.626   9.880
43194SOL     OW31355   1.312   7.612   8.741
43194SOL    HW131356   1.379   7.564   8.789
43194SOL    HW231357   1.337   7.704   8.749
43195SOL     OW31358   8.478  11.952   4.055
43195SOL    HW131359   8.491  11.868   4.099
43195SOL    HW231360   8.525  11.943   3.972
43196SOL     OW31361   1.298   0.919   9.001
43196SOL    HW131362   1.387   0.935   8.967
43196SOL    HW231363   1.287   0.824   8.992
43197SOL     OW31364   2.730   8.025   3.795
43197SOL    HW131365   2.710   8.021   3.889
43197SOL    HW231366   2.797   8.092   3.788
43198SOL     OW31367   7.722   3.489   1.679
43198SOL    HW131368   7.647   3.443   1.641
43198SOL    HW231369   7.769   3.422   1.728
43199SOL     OW31370   1.020  11.154   5.885
43199SOL    HW131371   0.940  11.130   5.932
43199SOL    HW231372   0.994  11.158   5.793
43200SOL     OW31373  11.909  11.568   5.750
43200SOL    HW131374  12.004  11.563   5.760
43200SOL    HW231375  11.884  11.486   5.707
43201SOL     OW31376   1.472   3.310  13.751
43201SOL    HW131377   1.508   3.254  13.820
43201SOL    HW231378   1.383   3.329  13.779
43202SOL     OW31379   4.429   4.205   4.466
43202SOL    HW131380   4.334   4.215   4.463
43202SOL    HW231381   4.444   4.133   4.527
43203SOL     OW31382  14.081  13.847  14.296
43203SOL    HW131383  14.059  13.854  14.203
43203SOL    HW231384  14.007  13.799  14.334
43204SOL     OW31385   7.354  13.816  14.769
43204SOL    HW131386   7.321  13.727  14.774
43204SOL    HW231387   7.449  13.807  14.777
43205SOL     OW31388   4.760   5.053  12.350
43205SOL    HW131389   4.837   5.093  12.311
43205SOL    HW231390   4.686   5.107  12.321
43206SOL     OW31391  11.027   1.228   2.418
43206SOL    HW131392  11.004   1.171   2.345
43206SOL    HW231393  11.061   1.307   2.377
43207SOL     OW31394   8.852   3.937  14.371
43207SOL    HW131395   8.840   3.846  14.398
43207SOL    HW231396   8.774   3.957  14.319
43208SOL     OW31397  13.147   7.065   1.341
43208SOL    HW131398  13.197   7.114   1.406
43208SOL    HW231399  13.155   7.116   1.261
43209SOL     OW31400  11.010   9.399  10.811
43209SOL    HW131401  11.065   9.389  10.889
43209SOL    HW231402  11.021   9.490  10.785
43210SOL     OW31403  14.096   9.704  13.808
43210SOL    HW131404  14.181   9.742  13.787
43210SOL    HW231405  14.116   9.615  13.836
43211SOL     OW31406  12.027   5.006   1.972
43211SOL    HW131407  11.956   5.070   1.959
43211SOL    HW231408  12.102   5.059   1.999
43212SOL     OW31409   7.881  11.610   7.872
43212SOL    HW131410   7.870  11.689   7.924
43212SOL    HW231411   7.821  11.621   7.798
43213SOL     OW31412   6.307   0.361   6.480
43213SOL    HW131413   6.306   0.425   6.409
43213SOL    HW231414   6.286   0.278   6.437
43214SOL     OW31415  10.808   7.059   8.052
43214SOL    HW131416  10.728   7.106   8.074
43214SOL    HW231417  10.788   6.967   8.070
43215SOL     OW31418  14.715   8.589   5.250
43215SOL    HW131419  14.699   8.683   5.256
43215SOL    HW231420  14.811   8.581   5.253
43216SOL     OW31421  11.663   2.382  14.413
43216SOL    HW131422  11.659   2.291  14.383
43216SOL    HW231423  11.575   2.415  14.401
43217SOL     OW31424   5.688   9.114   5.957
43217SOL    HW131425   5.745   9.101   6.033
43217SOL    HW231426   5.742   9.162   5.894
43218SOL     OW31427   2.661   8.375  10.766
43218SOL    HW131428   2.704   8.290  10.776
43218SOL    HW231429   2.733   8.436  10.751
43219SOL     OW31430  12.894   0.663   0.467
43219SOL    HW131431  12.847   0.725   0.521
43219SOL    HW231432  12.976   0.647   0.515
43220SOL     OW31433   4.546   3.128   5.356
43220SOL    HW131434   4.472   3.133   5.417
43220SOL    HW231435   4.553   3.217   5.320
43221SOL     OW31436   3.236  10.155   2.315
43221SOL    HW131437   3.207  10.188   2.230
43221SOL    HW231438   3.263  10.065   2.298
43222SOL     OW31439   1.890   7.244  11.508
43222SOL    HW131440   1.893   7.228  11.603
43222SOL    HW231441   1.923   7.333  11.498
43223SOL     OW31442  14.347   9.259  11.010
43223SOL    HW131443  14.367   9.276  10.918
43223SOL    HW231444  14.424   9.291  11.057
43224SOL     OW31445   9.951   9.711   1.314
43224SOL    HW131446   9.989   9.624   1.300
43224SOL    HW231447   9.890   9.722   1.241
43225SOL     OW31448   8.719   2.405   6.476
43225SOL    HW131449   8.637   2.437   6.436
43225SOL    HW231450   8.788   2.439   6.419
43226SOL     OW31451   9.488  10.164   2.173
43226SOL    HW131452   9.560  10.215   2.136
43226SOL    HW231453   9.437  10.227   2.224
43227SOL     OW31454   3.120   5.273   5.788
43227SOL    HW131455   3.084   5.361   5.785
43227SOL    HW231456   3.170   5.264   5.707
43228SOL     OW31457   0.922  11.962   1.759
43228SOL    HW131458   0.895  11.991   1.846
43228SOL    HW231459   0.942  12.042   1.711
43229SOL     OW31460   2.227   6.989   7.652
43229SOL    HW131461   2.135   7.011   7.666
43229SOL    HW231462   2.269   7.073   7.635
43230SOL     OW31463  11.274   5.606   7.785
43230SOL    HW131464  11.309   5.604   7.696
43230SOL    HW231465  11.285   5.517   7.818
43231SOL     OW31466   2.299   5.891   8.996
43231SOL    HW131467   2.317   5.940   9.076
43231SOL    HW231468   2.381   5.846   8.976
43232SOL     OW31469  12.568   9.650   2.202
43232SOL    HW131470  12.652   9.695   2.211
43232SOL    HW231471  12.570   9.581   2.267
43233SOL     OW31472  13.065   5.782  11.126
43233SOL    HW131473  13.132   5.819  11.184
43233SOL    HW231474  13.068   5.688  11.144
43234SOL     OW31475   0.081   5.788   3.207
43234SOL    HW131476   0.143   5.860   3.222
43234SOL    HW231477   0.002   5.816   3.253
43235SOL     OW31478   5.990  14.834  14.779
43235SOL    HW131479   5.957  14.766  14.720
43235SOL    HW231480   5.917  14.852  14.839
43236SOL     OW31481   1.355   7.311  13.789
43236SOL    HW131482   1.296   7.238  13.769
43236SOL    HW231483   1.364   7.357  13.706
43237SOL     OW31484   0.563   9.310  13.854
43237SOL    HW131485   0.628   9.302  13.925
43237SOL    HW231486   0.611   9.353  13.783
43238SOL     OW31487   9.015  11.667   0.146
43238SOL    HW131488   8.975  11.723   0.213
43238SOL    HW231489   9.062  11.600   0.195
43239SOL     OW31490  10.262   7.271   0.254
43239SOL    HW131491  10.181   7.254   0.302
43239SOL    HW231492  10.329   7.220   0.300
43240SOL     OW31493   0.001  11.306   1.862
43240SOL    HW131494   0.020  11.392   1.900
43240SOL    HW231495   0.030  11.243   1.929
43241SOL     OW31496   3.205  14.342   2.589
43241SOL    HW131497   3.257  14.400   2.533
43241SOL    HW231498   3.146  14.401   2.635
43242SOL     OW31499   6.760   9.988   5.600
43242SOL    HW131500   6.668   9.965   5.587
43242SOL    HW231501   6.787  10.025   5.516
43243SOL     OW31502   4.760   5.761   4.700
43243SOL    HW131503   4.804   5.689   4.655
43243SOL    HW231504   4.810   5.774   4.781
43244SOL     OW31505   8.687   9.610   8.363
43244SOL    HW131506   8.748   9.537   8.375
43244SOL    HW231507   8.732   9.668   8.302
43245SOL     OW31508   1.576  10.889  14.379
43245SOL    HW131509   1.488  10.924  14.362
43245SOL    HW231510   1.633  10.965  14.374
43246SOL     OW31511   4.172   7.560   3.977
43246SOL    HW131512   4.217   7.566   4.061
43246SOL    HW231513   4.079   7.553   3.999
43247SOL     OW31514   7.959   1.967  12.225
43247SOL    HW131515   8.023   2.005  12.165
43247SOL    HW231516   7.925   1.891  12.178
43248SOL     OW31517   2.296   0.445   9.504
43248SOL    HW131518   2.352   0.496   9.563
43248SOL    HW231519   2.358   0.390   9.455
43249SOL     OW31520   8.183   9.015   5.077
43249SOL    HW131521   8.230   8.975   5.004
43249SOL    HW231522   8.125   9.079   5.036
43250SOL     OW31523   9.127   7.146   6.400
43250SOL    HW131524   9.180   7.144   6.320
43250SOL    HW231525   9.158   7.222   6.448
43251SOL     OW31526  13.362   2.081   3.224
43251SOL    HW131527  13.442   2.053   3.179
43251SOL    HW231528  13.340   2.008   3.281
43252SOL     OW31529   2.124   6.036   2.782
43252SOL    HW131530   2.138   6.005   2.872
43252SOL    HW231531   2.181   6.113   2.775
43253SOL     OW31532   7.896   7.307   0.360
43253SOL    HW131533   7.977   7.333   0.316
43253SOL    HW231534   7.922   7.237   0.420
43254SOL     OW31535   3.563   4.852   1.691
43254SOL    HW131536   3.590   4.815   1.607
43254SOL    HW231537   3.621   4.811   1.755
43255SOL     OW31538   3.429  11.547   6.675
43255SOL    HW131539   3.360  11.545   6.741
43255SOL    HW231540   3.382  11.544   6.592
43256SOL     OW31541   3.372   4.547  11.151
43256SOL    HW131542   3.382   4.641  11.142
43256SOL    HW231543   3.448   4.510  11.105
43257SOL     OW31544   0.516   9.149  10.694
43257SOL    HW131545   0.550   9.108  10.615
43257SOL    HW231546   0.552   9.237  10.694
43258SOL     OW31547   0.520   9.601  12.762
43258SOL    HW131548   0.492   9.570  12.848
43258SOL    HW231549   0.454   9.567  12.702
43259SOL     OW31550  14.223  13.214  12.602
43259SOL    HW131551  14.268  13.221  12.686
43259SOL    HW231552  14.158  13.285  12.603
43260SOL     OW31553  13.036   1.524   0.984
43260SOL    HW131554  12.948   1.498   1.012
43260SOL    HW231555  13.095   1.475   1.042
43261SOL     OW31556  12.578   7.082  14.627
43261SOL    HW131557  12.529   7.162  14.648
43261SOL    HW231558  12.520   7.032  14.570
43262SOL     OW31559  10.067   5.786  14.823
43262SOL    HW131560   9.978   5.769  14.853
43262SOL    HW231561  10.078   5.881  14.832
43263SOL     OW31562   6.436  13.449   3.940
43263SOL    HW131563   6.516  13.451   3.887
43263SOL    HW231564   6.430  13.536   3.978
43264SOL     OW31565   4.887  14.351   2.065
43264SOL    HW131566   4.797  14.343   2.096
43264SOL    HW231567   4.878  14.365   1.970
43265SOL     OW31568   0.805   2.085  14.658
43265SOL    HW131569   0.784   2.149  14.590
43265SOL    HW231570   0.784   2.000  14.618
43266SOL     OW31571   8.286   9.875   2.882
43266SOL    HW131572   8.270   9.927   2.803
43266SOL    HW231573   8.236   9.795   2.868
43267SOL     OW31574   7.392   6.043   0.683
43267SOL    HW131575   7.402   6.083   0.597
43267SOL    HW231576   7.344   6.108   0.734
43268SOL     OW31577   0.770  13.842   8.420
43268SOL    HW131578   0.742  13.819   8.508
43268SOL    HW231579   0.730  13.928   8.404
43269SOL     OW31580   0.035  13.788   5.386
43269SOL    HW131581   0.083  13.748   5.459
43269SOL    HW231582   0.029  13.881   5.410
43270SOL     OW31583  11.404  14.520   1.512
43270SOL    HW131584  11.353  14.598   1.486
43270SOL    HW231585  11.467  14.508   1.441
43271SOL     OW31586   4.476   9.072   9.370
43271SOL    HW131587   4.426   9.149   9.343
43271SOL    HW231588   4.453   9.005   9.305
43272SOL     OW31589   1.510   0.766  14.261
43272SOL    HW131590   1.571   0.791  14.331
43272SOL    HW231591   1.516   0.671  14.257
43273SOL     OW31592   3.257   7.270   1.641
43273SOL    HW131593   3.184   7.305   1.692
43273SOL    HW231594   3.334   7.291   1.694
43274SOL     OW31595  13.282   4.283   1.827
43274SOL    HW131596  13.294   4.278   1.922
43274SOL    HW231597  13.200   4.236   1.810
43275SOL     OW31598   4.045   1.507   4.839
43275SOL    HW131599   3.997   1.584   4.872
43275SOL    HW231600   3.977   1.444   4.818
43276SOL     OW31601   6.052   5.153   6.832
43276SOL    HW131602   6.074   5.114   6.917
43276SOL    HW231603   5.997   5.228   6.854
43277SOL     OW31604  13.936  10.115   0.752
43277SOL    HW131605  14.023  10.120   0.713
43277SOL    HW231606  13.879  10.161   0.690
43278SOL     OW31607   0.707  14.050   4.582
43278SOL    HW131608   0.635  14.033   4.643
43278SOL    HW231609   0.743  14.134   4.611
43279SOL     OW31610  12.268  10.469   4.130
43279SOL    HW131611  12.256  10.490   4.038
43279SOL    HW231612  12.322  10.540   4.164
43280SOL     OW31613   3.014   4.985  13.472
43280SOL    HW131614   3.096   4.938  13.484
43280SOL    HW231615   2.976   4.948  13.392
43281SOL     OW31616   0.292   3.614   5.042
43281SOL    HW131617   0.376   3.656   5.024
43281SOL    HW231618   0.264   3.651   5.126
43282SOL     OW31619   2.615  10.478   6.934
43282SOL    HW131620   2.651  10.441   6.853
43282SOL    HW231621   2.559  10.409   6.969
43283SOL     OW31622   4.418   9.743  10.317
43283SOL    HW131623   4.341   9.790  10.348
43283SOL    HW231624   4.486   9.763  10.382
43284SOL     OW31625   2.599   3.261   5.817
43284SOL    HW131626   2.546   3.234   5.892
43284SOL    HW231627   2.536   3.270   5.745
43285SOL     OW31628   5.409  10.709  13.279
43285SOL    HW131629   5.417  10.773  13.208
43285SOL    HW231630   5.318  10.714  13.307
43286SOL     OW31631   1.935   7.733   9.620
43286SOL    HW131632   1.976   7.813   9.589
43286SOL    HW231633   1.955   7.668   9.552
43287SOL     OW31634   3.883  12.825   3.193
43287SOL    HW131635   3.827  12.788   3.124
43287SOL    HW231636   3.821  12.858   3.258
43288SOL     OW31637   0.172  11.245   6.109
43288SOL    HW131638   0.116  11.277   6.180
43288SOL    HW231639   0.111  11.201   6.050
43289SOL     OW31640   8.920  11.541   9.529
43289SOL    HW131641   8.852  11.506   9.587
43289SOL    HW231642   8.901  11.635   9.523
43290SOL     OW31643   6.329   7.210  10.313
43290SOL    HW131644   6.297   7.206  10.403
43290SOL    HW231645   6.421   7.182  10.319
43291SOL     OW31646  12.148  10.011  14.273
43291SOL    HW131647  12.206  10.083  14.247
43291SOL    HW231648  12.204   9.933  14.267
43292SOL     OW31649   4.964  12.678   8.119
43292SOL    HW131650   5.058  12.672   8.137
43292SOL    HW231651   4.926  12.712   8.200
43293SOL     OW31652   0.723   4.493   6.137
43293SOL    HW131653   0.629   4.508   6.143
43293SOL    HW231654   0.731   4.405   6.100
43294SOL     OW31655  14.067   9.494  11.083
43294SOL    HW131656  14.008   9.530  11.149
43294SOL    HW231657  14.120   9.569  11.055
43295SOL     OW31658  13.717  11.698  11.219
43295SOL    HW131659  13.740  11.789  11.200
43295SOL    HW231660  13.794  11.663  11.263
43296SOL     OW31661   1.132   3.892   5.154
43296SOL    HW131662   1.171   3.922   5.236
43296SOL    HW231663   1.183   3.814   5.129
43297SOL     OW31664   7.471   0.129  12.508
43297SOL    HW131665   7.397   0.125  12.568
43297SOL    HW231666   7.452   0.202  12.450
43298SOL     OW31667  12.557   8.550   0.412
43298SOL    HW131668  12.637   8.499   0.397
43298SOL    HW231669  12.509   8.545   0.330
43299SOL     OW31670   7.877  13.964   8.899
43299SOL    HW131671   7.954  14.014   8.870
43299SOL    HW231672   7.883  13.965   8.995
43300SOL     OW31673   2.148   1.734   1.950
43300SOL    HW131674   2.187   1.646   1.946
43300SOL    HW231675   2.178   1.778   1.871
43301SOL     OW31676   9.309   6.041   1.289
43301SOL    HW131677   9.322   6.085   1.373
43301SOL    HW231678   9.370   5.967   1.291
43302SOL     OW31679   8.050   9.302   9.612
43302SOL    HW131680   8.109   9.252   9.555
43302SOL    HW231681   7.966   9.301   9.565
43303SOL     OW31682   7.843  12.328  11.262
43303SOL    HW131683   7.807  12.258  11.317
43303SOL    HW231684   7.894  12.383  11.323
43304SOL     OW31685  12.965   8.547   3.652
43304SOL    HW131686  13.048   8.559   3.698
43304SOL    HW231687  12.914   8.625   3.673
43305SOL     OW31688   5.940  11.297  12.774
43305SOL    HW131689   6.024  11.336  12.754
43305SOL    HW231690   5.946  11.273  12.867
43306SOL     OW31691   8.028   3.760   4.634
43306SOL    HW131692   8.083   3.727   4.706
43306SOL    HW231693   7.959   3.695   4.624
43307SOL     OW31694  10.688   2.004  12.501
43307SOL    HW131695  10.688   1.974  12.410
43307SOL    HW231696  10.775   2.041  12.515
43308SOL     OW31697   7.013   4.656  11.375
43308SOL    HW131698   7.089   4.715  11.381
43308SOL    HW231699   7.002   4.623  11.464
43309SOL     OW31700  13.086   2.416   3.879
43309SOL    HW131701  13.005   2.434   3.926
43309SOL    HW231702  13.133   2.500   3.879
43310SOL     OW31703  11.747   5.100  14.760
43310SOL    HW131704  11.831   5.071  14.725
43310SOL    HW231705  11.713   5.025  14.808
43311SOL     OW31706   1.943   8.674   6.428
43311SOL    HW131707   2.019   8.647   6.377
43311SOL    HW231708   1.906   8.592   6.462
43312SOL     OW31709   6.727  13.080   1.324
43312SOL    HW131710   6.685  13.009   1.372
43312SOL    HW231711   6.692  13.160   1.364
43313SOL     OW31712  11.506  11.291  10.927
43313SOL    HW131713  11.501  11.325  10.838
43313SOL    HW231714  11.487  11.367  10.983
43314SOL     OW31715   4.559   7.475  11.986
43314SOL    HW131716   4.532   7.405  12.045
43314SOL    HW231717   4.623   7.525  12.036
43315SOL     OW31718   4.224   7.388   0.837
43315SOL    HW131719   4.200   7.392   0.929
43315SOL    HW231720   4.191   7.469   0.800
43316SOL     OW31721   9.613  12.924   7.514
43316SOL    HW131722   9.596  12.954   7.603
43316SOL    HW231723   9.665  12.993   7.474
43317SOL     OW31724   1.769   1.442   5.432
43317SOL    HW131725   1.729   1.373   5.485
43317SOL    HW231726   1.722   1.438   5.348
43318SOL     OW31727   0.752  13.195   4.137
43318SOL    HW131728   0.686  13.257   4.169
43318SOL    HW231729   0.724  13.111   4.173
43319SOL     OW31730   7.230   3.029   0.035
43319SOL    HW131731   7.303   3.074   0.077
43319SOL    HW231732   7.266   2.943   0.011
43320SOL     OW31733  12.254  13.492  13.026
43320SOL    HW131734  12.199  13.518  12.952
43320SOL    HW231735  12.196  13.445  13.085
43321SOL     OW31736  12.565   5.736   8.408
43321SOL    HW131737  12.519   5.652   8.415
43321SOL    HW231738  12.569   5.754   8.314
43322SOL     OW31739  12.754   1.790  12.594
43322SOL    HW131740  12.724   1.833  12.674
43322SOL    HW231741  12.714   1.703  12.598
43323SOL     OW31742   1.555   0.346   2.848
43323SOL    HW131743   1.549   0.260   2.806
43323SOL    HW231744   1.513   0.406   2.785
43324SOL     OW31745  14.796   6.395  11.037
43324SOL    HW131746  14.705   6.368  11.041
43324SOL    HW231747  14.804   6.441  10.954
43325SOL     OW31748   6.941  14.695  13.742
43325SOL    HW131749   6.975  14.677  13.655
43325SOL    HW231750   6.860  14.744  13.727
43326SOL     OW31751  10.696   5.712   2.380
43326SOL    HW131752  10.642   5.711   2.459
43326SOL    HW231753  10.755   5.637   2.390
43327SOL     OW31754   2.044  11.440   7.644
43327SOL    HW131755   2.036  11.350   7.614
43327SOL    HW231756   1.964  11.457   7.694
43328SOL     OW31757   5.910   9.944   5.335
43328SOL    HW131758   5.994   9.916   5.373
43328SOL    HW231759   5.897  10.032   5.368
43329SOL     OW31760   7.721  11.128  13.572
43329SOL    HW131761   7.802  11.078  13.581
43329SOL    HW231762   7.661  11.069  13.526
43330SOL     OW31763   8.473   0.400   8.438
43330SOL    HW131764   8.517   0.317   8.422
43330SOL    HW231765   8.427   0.387   8.521
43331SOL     OW31766   8.109   5.137  10.579
43331SOL    HW131767   8.041   5.158  10.515
43331SOL    HW231768   8.190   5.132  10.528
43332SOL     OW31769  14.336   6.656  11.391
43332SOL    HW131770  14.347   6.699  11.307
43332SOL    HW231771  14.274   6.585  11.374
43333SOL     OW31772  10.877   7.611  10.137
43333SOL    HW131773  10.829   7.668  10.197
43333SOL    HW231774  10.809   7.567  10.086
43334SOL     OW31775   3.463   9.141  11.730
43334SOL    HW131776   3.500   9.057  11.700
43334SOL    HW231777   3.517   9.207  11.687
43335SOL     OW31778   1.895  12.251   1.701
43335SOL    HW131779   1.914  12.329   1.650
43335SOL    HW231780   1.891  12.282   1.792
43336SOL     OW31781   5.738   6.247  12.472
43336SOL    HW131782   5.662   6.304  12.458
43336SOL    HW231783   5.717   6.168  12.422
43337SOL     OW31784  11.567  12.085   9.974
43337SOL    HW131785  11.536  12.000  10.007
43337SOL    HW231786  11.657  12.067   9.944
43338SOL     OW31787  11.900   6.294  14.856
43338SOL    HW131788  11.952   6.323  14.781
43338SOL    HW231789  11.839   6.229  14.820
43339SOL     OW31790  14.710   9.087   4.611
43339SOL    HW131791  14.664   9.165   4.644
43339SOL    HW231792  14.800   9.098   4.642
43340SOL     OW31793  12.670   2.725  14.346
43340SOL    HW131794  12.574   2.732  14.350
43340SOL    HW231795  12.686   2.641  14.302
43341SOL     OW31796   6.695   3.158   6.624
43341SOL    HW131797   6.712   3.159   6.718
43341SOL    HW231798   6.613   3.207   6.614
43342SOL     OW31799   1.106   3.284  13.925
43342SOL    HW131800   1.198   3.299  13.946
43342SOL    HW231801   1.100   3.302  13.831
43343SOL     OW31802   2.848  13.593   6.604
43343SOL    HW131803   2.792  13.654   6.652
43343SOL    HW231804   2.829  13.507   6.643
43344SOL     OW31805  14.763   0.728   0.061
43344SOL    HW131806  14.677   0.689   0.046
43344SOL    HW231807  14.805   0.726  14.857
43345SOL     OW31808   4.177   0.688   8.148
43345SOL    HW131809   4.246   0.742   8.109
43345SOL    HW231810   4.110   0.681   8.079
43346SOL     OW31811  10.890   8.940   7.995
43346SOL    HW131812  10.901   9.032   7.970
43346SOL    HW231813  10.831   8.943   8.070
43347SOL     OW31814  14.849   7.194  12.816
43347SOL    HW131815  14.857   7.108  12.775
43347SOL    HW231816   0.048   7.241  12.791
43348SOL     OW31817  12.802   9.000  12.307
43348SOL    HW131818  12.894   8.975  12.300
43348SOL    HW231819  12.796   9.083  12.260
43349SOL     OW31820  13.710  13.878   6.444
43349SOL    HW131821  13.615  13.875   6.451
43349SOL    HW231822  13.741  13.840   6.526
43350SOL     OW31823  11.559   3.034  13.734
43350SOL    HW131824  11.625   3.104  13.738
43350SOL    HW231825  11.477   3.079  13.719
43351SOL     OW31826   4.906  12.046   2.704
43351SOL    HW131827   4.813  12.061   2.689
43351SOL    HW231828   4.923  11.959   2.666
43352SOL     OW31829   5.091   0.189   7.968
43352SOL    HW131830   5.006   0.148   7.952
43352SOL    HW231831   5.090   0.212   8.061
43353SOL     OW31832  13.395   3.885  14.579
43353SOL    HW131833  13.333   3.952  14.549
43353SOL    HW231834  13.470   3.935  14.611
43354SOL     OW31835   9.941   4.624   2.316
43354SOL    HW131836   9.853   4.612   2.352
43354SOL    HW231837   9.966   4.537   2.285
43355SOL     OW31838   2.656   6.930   5.429
43355SOL    HW131839   2.655   6.897   5.518
43355SOL    HW231840   2.723   6.998   5.429
43356SOL     OW31841   3.118   0.603   7.724
43356SOL    HW131842   3.076   0.633   7.643
43356SOL    HW231843   3.211   0.600   7.702
43357SOL     OW31844  10.692  14.515  13.723
43357SOL    HW131845  10.735  14.431  13.739
43357SOL    HW231846  10.602  14.502  13.751
43358SOL     OW31847   7.239   2.866  11.738
43358SOL    HW131848   7.150   2.901  11.746
43358SOL    HW231849   7.227   2.772  11.728
43359SOL     OW31850  12.110   8.785   4.053
43359SOL    HW131851  12.190   8.827   4.021
43359SOL    HW231852  12.097   8.823   4.140
43360SOL     OW31853   0.772   8.770   6.292
43360SOL    HW131854   0.828   8.741   6.220
43360SOL    HW231855   0.700   8.816   6.249
43361SOL     OW31856   0.090   9.167  10.982
43361SOL    HW131857   0.164   9.143  10.926
43361SOL    HW231858   0.117   9.249  11.024
43362SOL     OW31859   5.679   8.670   1.999
43362SOL    HW131860   5.589   8.675   2.030
43362SOL    HW231861   5.673   8.684   1.904
43363SOL     OW31862   3.407   2.697  10.226
43363SOL    HW131863   3.453   2.615  10.242
43363SOL    HW231864   3.476   2.758  10.200
43364SOL     OW31865  10.357   1.142   5.638
43364SOL    HW131866  10.399   1.117   5.555
43364SOL    HW231867  10.315   1.226   5.619
43365SOL     OW31868  14.422  11.186  13.952
43365SOL    HW131869  14.507  11.215  13.918
43365SOL    HW231870  14.375  11.267  13.971
43366SOL     OW31871  11.295   5.360   6.801
43366SOL    HW131872  11.387   5.373   6.823
43366SOL    HW231873  11.286   5.265   6.792
43367SOL     OW31874  14.038   8.505   3.042
43367SOL    HW131875  13.943   8.512   3.050
43367SOL    HW231876  14.069   8.494   3.132
43368SOL     OW31877   3.209   6.757  10.555
43368SOL    HW131878   3.290   6.807  10.557
43368SOL    HW231879   3.199   6.732  10.463
43369SOL     OW31880   9.560  12.720   0.784
43369SOL    HW131881   9.597  12.670   0.856
43369SOL    HW231882   9.599  12.682   0.706
43370SOL     OW31883   8.672   7.592   5.283
43370SOL    HW131884   8.746   7.548   5.241
43370SOL    HW231885   8.710   7.635   5.360
43371SOL     OW31886   0.093   8.513   3.829
43371SOL    HW131887   0.187   8.510   3.845
43371SOL    HW231888   0.085   8.536   3.736
43372SOL     OW31889   7.646  11.863   7.567
43372SOL    HW131890   7.567  11.828   7.607
43372SOL    HW231891   7.662  11.805   7.492
43373SOL     OW31892   3.486  10.852   3.781
43373SOL    HW131893   3.567  10.902   3.789
43373SOL    HW231894   3.443  10.861   3.866
43374SOL     OW31895  11.357  11.554   8.095
43374SOL    HW131896  11.381  11.537   8.004
43374SOL    HW231897  11.431  11.520   8.146
43375SOL     OW31898  11.775  14.751   7.575
43375SOL    HW131899  11.815  14.757   7.488
43375SOL    HW231900  11.699  14.809   7.570
43376SOL     OW31901   9.664   5.799   6.093
43376SOL    HW131902   9.662   5.893   6.074
43376SOL    HW231903   9.619   5.791   6.177
43377SOL     OW31904  14.498  13.570   7.783
43377SOL    HW131905  14.580  13.620   7.791
43377SOL    HW231906  14.522  13.481   7.809
43378SOL     OW31907   2.771   6.805   2.071
43378SOL    HW131908   2.844   6.816   2.010
43378SOL    HW231909   2.718   6.883   2.060
43379SOL     OW31910  13.243   8.853   2.299
43379SOL    HW131911  13.265   8.809   2.217
43379SOL    HW231912  13.211   8.783   2.356
43380SOL     OW31913  11.054   0.090   2.397
43380SOL    HW131914  10.992   0.018   2.402
43380SOL    HW231915  11.135   0.051   2.365
43381SOL     OW31916  11.251   7.494   3.022
43381SOL    HW131917  11.260   7.590   3.022
43381SOL    HW231918  11.316   7.464   2.958
43382SOL     OW31919   8.248  14.375   6.339
43382SOL    HW131920   8.224  14.294   6.294
43382SOL    HW231921   8.328  14.404   6.295
43383SOL     OW31922   9.683   3.690  14.734
43383SOL    HW131923   9.713   3.600  14.749
43383SOL    HW231924   9.592   3.680  14.704
43384SOL     OW31925  10.990   8.923   9.146
43384SOL    HW131926  10.934   8.856   9.107
43384SOL    HW231927  10.929   8.987   9.183
43385SOL     OW31928  11.191   7.474   5.946
43385SOL    HW131929  11.167   7.566   5.953
43385SOL    HW231930  11.122   7.427   5.993
43386SOL     OW31931   4.677  11.932   6.129
43386SOL    HW131932   4.616  11.875   6.176
43386SOL    HW231933   4.702  11.998   6.193
43387SOL     OW31934   8.803   6.244   2.472
43387SOL    HW131935   8.744   6.293   2.414
43387SOL    HW231936   8.806   6.157   2.434
43388SOL     OW31937   9.129   4.594  12.981
43388SOL    HW131938   9.215   4.615  13.018
43388SOL    HW231939   9.076   4.570  13.057
43389SOL     OW31940  10.035  12.729  10.296
43389SOL    HW131941   9.990  12.772  10.368
43389SOL    HW231942  10.103  12.676  10.338
43390SOL     OW31943  11.924   3.972   8.494
43390SOL    HW131944  11.999   3.936   8.447
43390SOL    HW231945  11.875   3.896   8.524
43391SOL     OW31946   9.163   8.343  10.022
43391SOL    HW131947   9.072   8.316  10.034
43391SOL    HW231948   9.201   8.274   9.968
43392SOL     OW31949  12.665   0.641   0.068
43392SOL    HW131950  12.590   0.585   0.048
43392SOL    HW231951  12.672   0.700  14.874
43393SOL     OW31952   9.658   8.588   3.151
43393SOL    HW131953   9.701   8.554   3.073
43393SOL    HW231954   9.696   8.537   3.223
43394SOL     OW31955  11.976   7.350   5.014
43394SOL    HW131956  12.026   7.306   4.945
43394SOL    HW231957  11.893   7.373   4.972
43395SOL     OW31958   7.223  13.718  14.414
43395SOL    HW131959   7.262  13.632  14.432
43395SOL    HW231960   7.129  13.701  14.409
43396SOL     OW31961   7.756   5.020  10.086
43396SOL    HW131962   7.732   4.980  10.002
43396SOL    HW231963   7.673   5.029  10.133
43397SOL     OW31964  10.588   7.018  11.100
43397SOL    HW131965  10.536   6.945  11.066
43397SOL    HW231966  10.655   6.976  11.154
43398SOL     OW31967  11.751   0.340   6.123
43398SOL    HW131968  11.740   0.435   6.122
43398SOL    HW231969  11.816   0.324   6.191
43399SOL     OW31970   6.734   1.689   8.386
43399SOL    HW131971   6.699   1.714   8.472
43399SOL    HW231972   6.770   1.602   8.399
43400SOL     OW31973  12.961   3.650   8.532
43400SOL    HW131974  13.004   3.716   8.476
43400SOL    HW231975  12.931   3.699   8.608
43401SOL     OW31976  10.223   4.729   2.978
43401SOL    HW131977  10.216   4.735   2.883
43401SOL    HW231978  10.242   4.636   2.995
43402SOL     OW31979   7.477   0.292   2.765
43402SOL    HW131980   7.404   0.231   2.753
43402SOL    HW231981   7.553   0.235   2.780
43403SOL     OW31982   7.897   6.426  12.720
43403SOL    HW131983   7.871   6.361  12.655
43403SOL    HW231984   7.815   6.454  12.759
43404SOL     OW31985   6.004  13.620  13.986
43404SOL    HW131986   6.032  13.700  14.029
43404SOL    HW231987   6.084  13.567  13.979
43405SOL     OW31988  13.695   1.850  13.786
43405SOL    HW131989  13.639   1.918  13.822
43405SOL    HW231990  13.649   1.819  13.708
43406SOL     OW31991  13.151  12.661   9.509
43406SOL    HW131992  13.103  12.608   9.572
43406SOL    HW231993  13.090  12.730   9.483
43407SOL     OW31994  14.757   3.154   2.784
43407SOL    HW131995  14.732   3.133   2.874
43407SOL    HW231996  14.793   3.072   2.749
43408SOL     OW31997  13.974  11.538   3.344
43408SOL    HW131998  13.899  11.546   3.284
43408SOL    HW231999  13.939  11.490   3.419
43409SOL     OW32000  10.684   3.860  12.432
43409SOL    HW132001  10.604   3.842  12.382
43409SOL    HW232002  10.705   3.951  12.411
43410SOL     OW32003   6.139   4.033   6.000
43410SOL    HW132004   6.099   4.084   6.070
43410SOL    HW232005   6.172   3.954   6.043
43411SOL     OW32006  13.169   0.766   0.716
43411SOL    HW132007  13.236   0.698   0.706
43411SOL    HW232008  13.167   0.811   0.632
43412SOL     OW32009   9.889   0.569   4.071
43412SOL    HW132010   9.846   0.490   4.037
43412SOL    HW232011   9.819   0.634   4.077
43413SOL     OW32012  14.513  12.970   1.192
43413SOL    HW132013  14.585  12.982   1.130
43413SOL    HW232014  14.473  12.887   1.167
43414SOL     OW32015  14.244   1.438   0.642
43414SOL    HW132016  14.218   1.474   0.557
43414SOL    HW232017  14.162   1.427   0.690
43415SOL     OW32018  11.040   0.948   4.748
43415SOL    HW132019  11.096   1.017   4.786
43415SOL    HW232020  10.983   0.921   4.820
43416SOL     OW32021   1.195   1.178  10.336
43416SOL    HW132022   1.169   1.226  10.257
43416SOL    HW232023   1.118   1.180  10.392
43417SOL     OW32024  11.294   4.093   7.471
43417SOL    HW132025  11.365   4.129   7.418
43417SOL    HW232026  11.317   4.115   7.561
43418SOL     OW32027   2.956   8.024  14.230
43418SOL    HW132028   2.887   8.009  14.294
43418SOL    HW232029   3.010   7.945  14.232
43419SOL     OW32030  10.486   2.342   0.481
43419SOL    HW132031  10.579   2.362   0.495
43419SOL    HW232032  10.482   2.247   0.476
43420SOL     OW32033   6.135  12.717  10.466
43420SOL    HW132034   6.171  12.711  10.555
43420SOL    HW232035   6.181  12.790  10.426
43421SOL     OW32036   9.448   0.026   7.542
43421SOL    HW132037   9.451   0.016   7.637
43421SOL    HW232038   9.387   0.098   7.527
43422SOL     OW32039  14.451  13.044  10.471
43422SOL    HW132040  14.404  12.993  10.405
43422SOL    HW232041  14.501  12.979  10.520
43423SOL     OW32042   4.535  11.487   8.729
43423SOL    HW132043   4.513  11.394   8.731
43423SOL    HW232044   4.630  11.488   8.718
43424SOL     OW32045  11.844   3.663   3.677
43424SOL    HW132046  11.870   3.581   3.719
43424SOL    HW232047  11.811   3.718   3.748
43425SOL     OW32048  10.642   9.838   6.395
43425SOL    HW132049  10.690   9.782   6.334
43425SOL    HW232050  10.563   9.864   6.347
43426SOL     OW32051   2.569   3.854  12.977
43426SOL    HW132052   2.647   3.902  12.952
43426SOL    HW232053   2.601   3.785  13.036
43427SOL     OW32054   9.685   2.301  12.514
43427SOL    HW132055   9.646   2.233  12.459
43427SOL    HW232056   9.774   2.312  12.480
43428SOL     OW32057   5.498   0.885  10.418
43428SOL    HW132058   5.529   0.938  10.344
43428SOL    HW232059   5.405   0.872  10.400
43429SOL     OW32060   9.093   4.967   1.800
43429SOL    HW132061   9.035   5.025   1.849
43429SOL    HW232062   9.110   5.015   1.718
43430SOL     OW32063  13.129   0.035   3.021
43430SOL    HW132064  13.062  14.848   3.030
43430SOL    HW232065  13.212  14.869   3.029
43431SOL     OW32066   1.709  13.163  12.227
43431SOL    HW132067   1.775  13.109  12.270
43431SOL    HW232068   1.646  13.183  12.296
43432SOL     OW32069   5.375  12.337   7.639
43432SOL    HW132070   5.293  12.366   7.678
43432SOL    HW232071   5.349  12.299   7.554
43433SOL     OW32072   6.142   4.643   5.055
43433SOL    HW132073   6.048   4.649   5.068
43433SOL    HW232074   6.181   4.684   5.132
43434SOL     OW32075   2.954  10.142   4.588
43434SOL    HW132076   2.864  10.109   4.588
43434SOL    HW232077   2.983  10.132   4.497
43435SOL     OW32078   8.804   8.389   0.620
43435SOL    HW132079   8.747   8.314   0.603
43435SOL    HW232080   8.788   8.449   0.546
43436SOL     OW32081   4.803  12.431  14.358
43436SOL    HW132082   4.877  12.476  14.318
43436SOL    HW232083   4.749  12.402  14.285
43437SOL     OW32084   3.182  10.465  13.869
43437SOL    HW132085   3.113  10.432  13.927
43437SOL    HW232086   3.161  10.428  13.783
43438SOL     OW32087   5.285   7.978   8.943
43438SOL    HW132088   5.296   8.060   8.896
43438SOL    HW232089   5.261   8.005   9.032
43439SOL     OW32090   2.195  13.912   2.394
43439SOL    HW132091   2.185  13.966   2.473
43439SOL    HW232092   2.105  13.899   2.364
43440SOL     OW32093  14.838   1.257  13.490
43440SOL    HW132094  14.747   1.270  13.463
43440SOL    HW232095  14.851   1.319  13.562
43441SOL     OW32096   1.562  13.309  13.823
43441SOL    HW132097   1.598  13.300  13.734
43441SOL    HW232098   1.600  13.235  13.871
43442SOL     OW32099  13.488  14.835   5.061
43442SOL    HW132100  13.580  14.863   5.059
43442SOL    HW232101  13.443   0.024   5.109
43443SOL     OW32102   0.981  10.525  11.833
43443SOL    HW132103   0.976  10.526  11.928
43443SOL    HW232104   1.066  10.564  11.813
43444SOL     OW32105   7.051   3.934  12.511
43444SOL    HW132106   7.089   3.849  12.489
43444SOL    HW232107   6.964   3.913  12.545
43445SOL     OW32108  11.823   8.258   8.335
43445SOL    HW132109  11.801   8.264   8.242
43445SOL    HW232110  11.793   8.340   8.373
43446SOL     OW32111  10.342   1.906   8.759
43446SOL    HW132112  10.388   1.989   8.751
43446SOL    HW232113  10.279   1.906   8.687
43447SOL     OW32114   7.923   6.247  13.337
43447SOL    HW132115   8.012   6.247  13.301
43447SOL    HW232116   7.875   6.310  13.282
43448SOL     OW32117   9.291   6.999   1.644
43448SOL    HW132118   9.322   7.016   1.733
43448SOL    HW232119   9.355   7.041   1.587
43449SOL     OW32120   1.085   2.829   7.609
43449SOL    HW132121   1.027   2.753   7.604
43449SOL    HW232122   1.085   2.854   7.701
43450SOL     OW32123  13.746   0.568  13.810
43450SOL    HW132124  13.829   0.526  13.785
43450SOL    HW232125  13.773   0.654  13.843
43451SOL     OW32126   2.336   9.188   1.264
43451SOL    HW132127   2.321   9.141   1.346
43451SOL    HW232128   2.406   9.250   1.285
43452SOL     OW32129   4.648   7.832  10.714
43452SOL    HW132130   4.564   7.874  10.696
43452SOL    HW232131   4.669   7.784  10.633
43453SOL     OW32132   4.332   5.003   2.269
43453SOL    HW132133   4.240   5.020   2.247
43453SOL    HW232134   4.331   4.917   2.311
43454SOL     OW32135  11.962  14.439   0.734
43454SOL    HW132136  11.995  14.515   0.687
43454SOL    HW232137  11.919  14.476   0.812
43455SOL     OW32138  12.117   2.597  13.501
43455SOL    HW132139  12.097   2.577  13.409
43455SOL    HW232140  12.086   2.686  13.514
43456SOL     OW32141   4.598   5.771   2.644
43456SOL    HW132142   4.553   5.755   2.561
43456SOL    HW232143   4.529   5.798   2.704
43457SOL     OW32144   0.132   0.717   3.324
43457SOL    HW132145   0.223   0.742   3.340
43457SOL    HW232146   0.129   0.623   3.344
43458SOL     OW32147   0.658   6.821   6.042
43458SOL    HW132148   0.662   6.755   6.111
43458SOL    HW232149   0.620   6.898   6.084
43459SOL     OW32150  10.684   3.567   4.855
43459SOL    HW132151  10.621   3.556   4.927
43459SOL    HW232152  10.761   3.606   4.896
43460SOL     OW32153   2.524   7.119   4.064
43460SOL    HW132154   2.528   7.129   3.969
43460SOL    HW232155   2.543   7.206   4.098
43461SOL     OW32156  10.648   5.499   7.441
43461SOL    HW132157  10.720   5.497   7.377
43461SOL    HW232158  10.684   5.457   7.519
43462SOL     OW32159   4.356   5.846   4.935
43462SOL    HW132160   4.314   5.838   4.849
43462SOL    HW232161   4.432   5.788   4.930
43463SOL     OW32162  13.940  12.416  10.619
43463SOL    HW132163  13.890  12.337  10.639
43463SOL    HW232164  14.025  12.402  10.662
43464SOL     OW32165   1.299  11.166   4.825
43464SOL    HW132166   1.316  11.079   4.788
43464SOL    HW232167   1.377  11.217   4.802
43465SOL     OW32168   5.069  12.660   9.258
43465SOL    HW132169   5.133  12.708   9.207
43465SOL    HW232170   5.017  12.612   9.193
43466SOL     OW32171  12.348  12.803   7.763
43466SOL    HW132172  12.304  12.784   7.680
43466SOL    HW232173  12.278  12.835   7.820
43467SOL     OW32174   5.009  13.672   6.729
43467SOL    HW132175   4.997  13.767   6.720
43467SOL    HW232176   5.096  13.663   6.769
43468SOL     OW32177  12.278   5.630   0.312
43468SOL    HW132178  12.366   5.663   0.292
43468SOL    HW232179  12.247   5.686   0.383
43469SOL     OW32180   9.516  14.547   7.934
43469SOL    HW132181   9.484  14.637   7.935
43469SOL    HW232182   9.460  14.501   7.997
43470SOL     OW32183   6.480   5.285   6.724
43470SOL    HW132184   6.553   5.240   6.681
43470SOL    HW232185   6.419   5.215   6.746
43471SOL     OW32186   6.771   1.612   0.982
43471SOL    HW132187   6.866   1.626   0.986
43471SOL    HW232188   6.747   1.588   1.072
43472SOL     OW32189   3.139   2.186   9.396
43472SOL    HW132190   3.195   2.113   9.371
43472SOL    HW232191   3.189   2.232   9.465
43473SOL     OW32192  12.811   4.102  14.404
43473SOL    HW132193  12.816   4.026  14.463
43473SOL    HW232194  12.791   4.064  14.318
43474SOL     OW32195   7.860  10.087   6.987
43474SOL    HW132196   7.857  10.018   7.053
43474SOL    HW232197   7.865  10.040   6.903
43475SOL     OW32198   2.579   3.780  12.687
43475SOL    HW132199   2.602   3.812  12.774
43475SOL    HW232200   2.633   3.703  12.673
43476SOL     OW32201   7.356  10.261  10.207
43476SOL    HW132202   7.301  10.289  10.280
43476SOL    HW232203   7.425  10.208  10.248
43477SOL     OW32204   7.795   3.946  12.259
43477SOL    HW132205   7.818   3.961  12.350
43477SOL    HW232206   7.742   4.022  12.235
43478SOL     OW32207  13.468   1.825  12.830
43478SOL    HW132208  13.470   1.747  12.775
43478SOL    HW232209  13.378   1.828  12.864
43479SOL     OW32210   9.016  11.670   2.389
43479SOL    HW132211   9.041  11.577   2.388
43479SOL    HW232212   8.980  11.686   2.301
43480SOL     OW32213  10.919  10.701   3.538
43480SOL    HW132214  10.849  10.738   3.484
43480SOL    HW232215  10.884  10.703   3.627
43481SOL     OW32216  11.705   6.393   5.539
43481SOL    HW132217  11.739   6.330   5.603
43481SOL    HW232218  11.682   6.339   5.463
43482SOL     OW32219  11.419  11.186   2.847
43482SOL    HW132220  11.472  11.249   2.897
43482SOL    HW232221  11.354  11.154   2.909
43483SOL     OW32222   2.276  13.946  13.102
43483SOL    HW132223   2.287  13.943  13.197
43483SOL    HW232224   2.325  13.870  13.071
43484SOL     OW32225   5.078   7.116   8.412
43484SOL    HW132226   4.986   7.144   8.417
43484SOL    HW232227   5.125   7.178   8.467
43485SOL     OW32228  13.605   0.911  11.027
43485SOL    HW132229  13.659   0.987  11.046
43485SOL    HW232230  13.562   0.890  11.110
43486SOL     OW32231   4.806   8.127   6.991
43486SOL    HW132232   4.720   8.158   6.964
43486SOL    HW232233   4.823   8.050   6.936
43487SOL     OW32234   1.922  13.385   5.663
43487SOL    HW132235   1.931  13.391   5.568
43487SOL    HW232236   1.831  13.408   5.680
43488SOL     OW32237  13.572   0.408   6.728
43488SOL    HW132238  13.645   0.470   6.721
43488SOL    HW232239  13.614   0.322   6.738
43489SOL     OW32240   5.324  10.637   5.991
43489SOL    HW132241   5.390  10.594   5.937
43489SOL    HW232242   5.299  10.571   6.055
43490SOL     OW32243   8.241   8.322   3.510
43490SOL    HW132244   8.227   8.292   3.420
43490SOL    HW232245   8.165   8.378   3.529
43491SOL     OW32246   3.252  11.246   1.503
43491SOL    HW132247   3.229  11.265   1.412
43491SOL    HW232248   3.267  11.151   1.505
43492SOL     OW32249   9.171  11.822   9.205
43492SOL    HW132250   9.256  11.780   9.196
43492SOL    HW232251   9.192  11.914   9.221
43493SOL     OW32252   2.197   5.783   6.599
43493SOL    HW132253   2.165   5.860   6.551
43493SOL    HW232254   2.177   5.709   6.542
43494SOL     OW32255  13.677   3.502  10.302
43494SOL    HW132256  13.674   3.569  10.371
43494SOL    HW232257  13.695   3.421  10.349
43495SOL     OW32258   1.076  12.843  11.247
43495SOL    HW132259   1.047  12.787  11.175
43495SOL    HW232260   1.168  12.819  11.261
43496SOL     OW32261   6.494  11.220  10.576
43496SOL    HW132262   6.547  11.141  10.562
43496SOL    HW232263   6.519  11.278  10.505
43497SOL     OW32264   0.581   9.810   0.989
43497SOL    HW132265   0.507   9.870   0.995
43497SOL    HW232266   0.543   9.723   0.999
43498SOL     OW32267  14.724  11.132  13.332
43498SOL    HW132268  14.688  11.066  13.273
43498SOL    HW232269  14.727  11.088  13.417
43499SOL     OW32270  13.257  12.311   1.039
43499SOL    HW132271  13.188  12.315   1.105
43499SOL    HW232272  13.218  12.349   0.961
43500SOL     OW32273   1.844  13.987   1.349
43500SOL    HW132274   1.789  13.911   1.366
43500SOL    HW232275   1.788  14.048   1.302
43501SOL     OW32276   6.598   8.542  13.115
43501SOL    HW132277   6.557   8.602  13.053
43501SOL    HW232278   6.529   8.523  13.179
43502SOL     OW32279   6.341   5.164  13.497
43502SOL    HW132280   6.341   5.160  13.593
43502SOL    HW232281   6.433   5.179  13.474
43503SOL     OW32282   7.948   4.159   0.103
43503SOL    HW132283   8.037   4.124   0.112
43503SOL    HW232284   7.893   4.083   0.087
43504SOL     OW32285   6.343   5.597   7.587
43504SOL    HW132286   6.403   5.628   7.656
43504SOL    HW232287   6.339   5.670   7.525
43505SOL     OW32288  14.044   5.576  10.644
43505SOL    HW132289  14.125   5.527  10.660
43505SOL    HW232290  13.987   5.553  10.717
43506SOL     OW32291  13.779  12.937   0.157
43506SOL    HW132292  13.747  12.905   0.242
43506SOL    HW232293  13.740  12.878   0.093
43507SOL     OW32294   5.772  12.336  11.421
43507SOL    HW132295   5.721  12.380  11.353
43507SOL    HW232296   5.736  12.368  11.503
43508SOL     OW32297   3.808   6.861   5.362
43508SOL    HW132298   3.735   6.858   5.300
43508SOL    HW232299   3.815   6.772   5.395
43509SOL     OW32300  11.467  12.540   3.135
43509SOL    HW132301  11.402  12.490   3.086
43509SOL    HW232302  11.416  12.596   3.192
43510SOL     OW32303  12.984   5.182   2.008
43510SOL    HW132304  12.891   5.206   2.011
43510SOL    HW232305  12.987   5.094   2.046
43511SOL     OW32306   0.389   7.596  14.484
43511SOL    HW132307   0.340   7.519  14.513
43511SOL    HW232308   0.352   7.617  14.398
43512SOL     OW32309  13.072   6.593   2.285
43512SOL    HW132310  12.992   6.596   2.337
43512SOL    HW232311  13.113   6.510   2.309
43513SOL     OW32312  11.299   5.061   2.986
43513SOL    HW132313  11.363   5.051   3.057
43513SOL    HW232314  11.352   5.067   2.907
43514SOL     OW32315   3.831  11.858   7.525
43514SOL    HW132316   3.738  11.851   7.502
43514SOL    HW232317   3.835  11.835   7.618
43515SOL     OW32318   9.343   7.180   5.870
43515SOL    HW132319   9.387   7.251   5.823
43515SOL    HW232320   9.413   7.139   5.921
43516SOL     OW32321   4.299  14.393  10.378
43516SOL    HW132322   4.347  14.468  10.414
43516SOL    HW232323   4.208  14.407  10.404
43517SOL     OW32324  11.864   9.643  10.049
43517SOL    HW132325  11.955   9.620  10.066
43517SOL    HW232326  11.820   9.558  10.039
43518SOL     OW32327   0.711   3.929   2.302
43518SOL    HW132328   0.708   4.002   2.240
43518SOL    HW232329   0.646   3.867   2.269
43519SOL     OW32330   3.445  13.883  10.684
43519SOL    HW132331   3.369  13.841  10.725
43519SOL    HW232332   3.422  13.890  10.592
43520SOL     OW32333   1.421   8.609   6.206
43520SOL    HW132334   1.422   8.664   6.285
43520SOL    HW232335   1.393   8.523   6.238
43521SOL     OW32336   6.130   3.135   5.984
43521SOL    HW132337   6.080   3.201   6.031
43521SOL    HW232338   6.115   3.054   6.033
43522SOL     OW32339  12.207   7.107  11.506
43522SOL    HW132340  12.288   7.068  11.538
43522SOL    HW232341  12.206   7.085  11.413
43523SOL     OW32342   0.510  12.265   5.945
43523SOL    HW132343   0.579  12.321   5.908
43523SOL    HW232344   0.431  12.291   5.898
43524SOL     OW32345  11.341  13.796   3.487
43524SOL    HW132346  11.311  13.869   3.434
43524SOL    HW232347  11.286  13.722   3.460
43525SOL     OW32348   3.932  13.029   7.671
43525SOL    HW132349   3.911  13.051   7.580
43525SOL    HW232350   3.941  13.113   7.715
43526SOL     OW32351   9.188   6.890   0.056
43526SOL    HW132352   9.127   6.935  14.879
43526SOL    HW232353   9.173   6.931   0.142
43527SOL     OW32354   9.476   3.732   8.515
43527SOL    HW132355   9.407   3.724   8.449
43527SOL    HW232356   9.430   3.754   8.596
43528SOL     OW32357   3.793   8.841  10.400
43528SOL    HW132358   3.711   8.792  10.409
43528SOL    HW232359   3.790   8.907  10.469
43529SOL     OW32360   2.521   9.094  10.315
43529SOL    HW132361   2.607   9.126  10.343
43529SOL    HW232362   2.513   9.008  10.357
43530SOL     OW32363   1.877  12.721   2.264
43530SOL    HW132364   1.882  12.713   2.169
43530SOL    HW232365   1.952  12.776   2.288
43531SOL     OW32366  13.994   3.886  14.049
43531SOL    HW132367  14.005   3.830  14.125
43531SOL    HW232368  13.902   3.912  14.051
43532SOL     OW32369   5.250   4.494   7.657
43532SOL    HW132370   5.288   4.513   7.743
43532SOL    HW232371   5.191   4.568   7.641
43533SOL     OW32372  12.513   8.080   8.408
43533SOL    HW132373  12.445   8.039   8.461
43533SOL    HW232374  12.595   8.043   8.442
43534SOL     OW32375  14.489  10.976   7.394
43534SOL    HW132376  14.431  10.908   7.361
43534SOL    HW232377  14.576  10.951   7.363
43535SOL     OW32378   8.487   9.610   8.584
43535SOL    HW132379   8.532   9.678   8.634
43535SOL    HW232380   8.551   9.581   8.519
43536SOL     OW32381   5.286   7.012  11.694
43536SOL    HW132382   5.207   7.033  11.645
43536SOL    HW232383   5.340   7.091  11.688
43537SOL     OW32384   3.653   7.059   4.430
43537SOL    HW132385   3.709   6.981   4.432
43537SOL    HW232386   3.604   7.051   4.348
43538SOL     OW32387   2.844   2.285   5.702
43538SOL    HW132388   2.797   2.360   5.664
43538SOL    HW232389   2.883   2.320   5.781
43539SOL     OW32390   8.628  13.342   4.841
43539SOL    HW132391   8.593  13.358   4.929
43539SOL    HW232392   8.704  13.287   4.856
43540SOL     OW32393   4.008   5.400  10.770
43540SOL    HW132394   3.995   5.348  10.849
43540SOL    HW232395   4.062   5.474  10.797
43541SOL     OW32396   1.763  11.805  10.572
43541SOL    HW132397   1.752  11.883  10.627
43541SOL    HW232398   1.708  11.822  10.496
43542SOL     OW32399  14.852   0.549  10.748
43542SOL    HW132400  14.779   0.505  10.704
43542SOL    HW232401  14.848   0.640  10.716
43543SOL     OW32402  14.166  11.987  11.775
43543SOL    HW132403  14.252  12.008  11.812
43543SOL    HW232404  14.138  11.908  11.822
43544SOL     OW32405  12.559   1.817  14.061
43544SOL    HW132406  12.519   1.740  14.021
43544SOL    HW232407  12.653   1.805  14.046
43545SOL     OW32408   5.913   2.459  13.152
43545SOL    HW132409   5.971   2.529  13.121
43545SOL    HW232410   5.905   2.400  13.078
43546SOL     OW32411  11.240  12.100  10.511
43546SOL    HW132412  11.281  12.186  10.519
43546SOL    HW232413  11.308  12.044  10.472
43547SOL     OW32414   5.534   9.388   4.036
43547SOL    HW132415   5.507   9.412   3.947
43547SOL    HW232416   5.528   9.293   4.038
43548SOL     OW32417   6.194   6.455   6.457
43548SOL    HW132418   6.169   6.487   6.370
43548SOL    HW232419   6.204   6.360   6.445
43549SOL     OW32420  11.396   3.147   3.378
43549SOL    HW132421  11.315   3.195   3.391
43549SOL    HW232422  11.417   3.158   3.285
43550SOL     OW32423  11.748   6.188   8.003
43550SOL    HW132424  11.810   6.166   7.933
43550SOL    HW232425  11.782   6.270   8.038
43551SOL     OW32426   0.847   3.497  14.854
43551SOL    HW132427   0.780   3.515   0.038
43551SOL    HW232428   0.891   3.418   0.003
43552SOL     OW32429  14.841   0.839  13.558
43552SOL    HW132430  14.866   0.913  13.614
43552SOL    HW232431  14.780   0.877  13.495
43553SOL     OW32432  11.631  10.585   2.996
43553SOL    HW132433  11.663  10.627   3.075
43553SOL    HW232434  11.623  10.493   3.018
43554SOL     OW32435   3.631   8.344   9.669
43554SOL    HW132436   3.610   8.436   9.686
43554SOL    HW232437   3.700   8.347   9.603
43555SOL     OW32438   3.250   9.964  11.246
43555SOL    HW132439   3.162   9.983  11.215
43555SOL    HW232440   3.292   9.919  11.172
43556SOL     OW32441   4.237  13.175   5.045
43556SOL    HW132442   4.228  13.188   5.140
43556SOL    HW232443   4.330  13.184   5.028
43557SOL     OW32444   6.279  14.571   5.076
43557SOL    HW132445   6.237  14.546   4.994
43557SOL    HW232446   6.320  14.491   5.109
43558SOL     OW32447   8.278   5.341  13.547
43558SOL    HW132448   8.196   5.336  13.596
43558SOL    HW232449   8.342   5.373  13.610
43559SOL     OW32450  13.963   6.287   4.890
43559SOL    HW132451  14.039   6.230   4.883
43559SOL    HW232452  13.941   6.311   4.800
43560SOL     OW32453  12.303   2.182   6.294
43560SOL    HW132454  12.376   2.242   6.310
43560SOL    HW232455  12.345   2.096   6.287
43561SOL     OW32456   9.752   9.909   7.918
43561SOL    HW132457   9.674   9.959   7.943
43561SOL    HW232458   9.734   9.880   7.828
43562SOL     OW32459  13.815   8.863  11.327
43562SOL    HW132460  13.739   8.817  11.363
43562SOL    HW232461  13.825   8.827  11.239
43563SOL     OW32462   1.268   4.121   1.445
43563SOL    HW132463   1.258   4.187   1.513
43563SOL    HW232464   1.242   4.039   1.487
43564SOL     OW32465  11.892   5.182   4.226
43564SOL    HW132466  11.814   5.182   4.282
43564SOL    HW232467  11.885   5.101   4.175
43565SOL     OW32468  11.535  10.188  13.349
43565SOL    HW132469  11.613  10.132  13.355
43565SOL    HW232470  11.468  10.140  13.398
43566SOL     OW32471   7.283   3.783  11.051
43566SOL    HW132472   7.339   3.705  11.057
43566SOL    HW232473   7.335   3.846  11.002
43567SOL     OW32474   8.616   6.910  13.627
43567SOL    HW132475   8.651   6.835  13.579
43567SOL    HW232476   8.639   6.892  13.719
43568SOL     OW32477  12.311   4.063   5.796
43568SOL    HW132478  12.395   4.107   5.783
43568SOL    HW232479  12.250   4.134   5.815
43569SOL     OW32480   4.568  10.766  14.377
43569SOL    HW132481   4.473  10.763  14.369
43569SOL    HW232482   4.594  10.675  14.390
43570SOL     OW32483  13.905  10.692   4.322
43570SOL    HW132484  13.908  10.607   4.366
43570SOL    HW232485  13.954  10.751   4.380
43571SOL     OW32486   5.926   5.681   3.659
43571SOL    HW132487   5.893   5.763   3.622
43571SOL    HW232488   5.849   5.638   3.696
43572SOL     OW32489  12.008   6.675   7.029
43572SOL    HW132490  11.975   6.593   6.994
43572SOL    HW232491  12.034   6.725   6.951
43573SOL     OW32492  14.077   0.482   6.626
43573SOL    HW132493  14.039   0.492   6.539
43573SOL    HW232494  14.169   0.460   6.609
43574SOL     OW32495   9.722  14.629  14.401
43574SOL    HW132496   9.631  14.628  14.371
43574SOL    HW232497   9.766  14.567  14.344
43575SOL     OW32498  12.797   3.191   0.085
43575SOL    HW132499  12.718   3.207   0.137
43575SOL    HW232500  12.835   3.113   0.124
43576SOL     OW32501   3.383  10.173   7.189
43576SOL    HW132502   3.312  10.149   7.249
43576SOL    HW232503   3.389  10.100   7.128
43577SOL     OW32504  14.170   5.345   3.950
43577SOL    HW132505  14.177   5.250   3.951
43577SOL    HW232506  14.248   5.376   3.995
43578SOL     OW32507   4.565  13.021  13.880
43578SOL    HW132508   4.479  13.055  13.858
43578SOL    HW232509   4.581  12.951  13.816
43579SOL     OW32510  13.561   0.834  12.362
43579SOL    HW132511  13.481   0.784  12.350
43579SOL    HW232512  13.595   0.848  12.274
43580SOL     OW32513   1.287   2.800  10.144
43580SOL    HW132514   1.317   2.849  10.068
43580SOL    HW232515   1.234   2.863  10.194
43581SOL     OW32516   7.617   2.466  10.218
43581SOL    HW132517   7.669   2.424  10.149
43581SOL    HW232518   7.645   2.557  10.216
43582SOL     OW32519   5.878   5.914   4.794
43582SOL    HW132520   5.973   5.925   4.801
43582SOL    HW232521   5.855   5.851   4.861
43583SOL     OW32522   5.034  11.999   7.799
43583SOL    HW132523   5.108  12.028   7.746
43583SOL    HW232524   5.072  11.981   7.885
43584SOL     OW32525  10.696   5.586   9.534
43584SOL    HW132526  10.629   5.545   9.481
43584SOL    HW232527  10.777   5.542   9.508
43585SOL     OW32528   9.950   3.109   8.720
43585SOL    HW132529   9.974   3.118   8.627
43585SOL    HW232530   9.995   3.182   8.763
43586SOL     OW32531   7.453   2.880   9.809
43586SOL    HW132532   7.513   2.831   9.754
43586SOL    HW232533   7.501   2.892   9.891
43587SOL     OW32534   5.059  11.049   1.211
43587SOL    HW132535   5.106  10.992   1.273
43587SOL    HW232536   4.968  11.044   1.239
43588SOL     OW32537  13.118  11.514   1.128
43588SOL    HW132538  13.152  11.506   1.039
43588SOL    HW232539  13.025  11.533   1.117
43589SOL     OW32540   1.535   6.021  11.447
43589SOL    HW132541   1.615   6.023  11.394
43589SOL    HW232542   1.471   6.070  11.394
43590SOL     OW32543   4.942  10.777   7.993
43590SOL    HW132544   4.983  10.708   7.941
43590SOL    HW232545   4.963  10.755   8.083
43591SOL     OW32546  14.074   5.454   9.487
43591SOL    HW132547  14.014   5.442   9.414
43591SOL    HW232548  14.041   5.396   9.556
43592SOL     OW32549   6.824   3.332  12.312
43592SOL    HW132550   6.878   3.411  12.302
43592SOL    HW232551   6.827   3.290  12.226
43593SOL     OW32552  12.019   3.275   6.641
43593SOL    HW132553  12.085   3.232   6.696
43593SOL    HW232554  12.069   3.310   6.567
43594SOL     OW32555   3.555   8.726   6.556
43594SOL    HW132556   3.643   8.762   6.565
43594SOL    HW232557   3.504   8.799   6.519
43595SOL     OW32558  11.282  13.084   7.270
43595SOL    HW132559  11.312  13.164   7.227
43595SOL    HW232560  11.360  13.049   7.312
43596SOL     OW32561   0.899  10.611   3.349
43596SOL    HW132562   0.905  10.611   3.253
43596SOL    HW232563   0.889  10.518   3.371
43597SOL     OW32564   9.847  11.102   6.963
43597SOL    HW132565   9.825  11.018   7.003
43597SOL    HW232566   9.828  11.167   7.030
43598SOL     OW32567   4.103   2.830  11.242
43598SOL    HW132568   4.040   2.864  11.306
43598SOL    HW232569   4.127   2.906  11.189
43599SOL     OW32570   4.240   9.845   1.682
43599SOL    HW132571   4.335   9.852   1.675
43599SOL    HW232572   4.209   9.844   1.592
43600SOL     OW32573  12.054  14.489   4.778
43600SOL    HW132574  12.043  14.582   4.758
43600SOL    HW232575  12.095  14.488   4.865
43601SOL     OW32576  11.242   8.613  10.286
43601SOL    HW132577  11.175   8.675  10.258
43601SOL    HW232578  11.268   8.568  10.206
43602SOL     OW32579   6.798   3.961   3.402
43602SOL    HW132580   6.823   3.952   3.310
43602SOL    HW232581   6.856   4.030   3.435
43603SOL     OW32582  14.445  14.529   5.857
43603SOL    HW132583  14.465  14.474   5.781
43603SOL    HW232584  14.359  14.567   5.837
43604SOL     OW32585   4.462   9.557   6.142
43604SOL    HW132586   4.500   9.633   6.098
43604SOL    HW232587   4.476   9.484   6.082
43605SOL     OW32588  10.016   0.391   2.314
43605SOL    HW132589  10.099   0.355   2.345
43605SOL    HW232590   9.988   0.451   2.384
43606SOL     OW32591   4.550   5.221   2.244
43606SOL    HW132592   4.628   5.203   2.296
43606SOL    HW232593   4.495   5.144   2.256
43607SOL     OW32594  12.268  14.755  11.936
43607SOL    HW132595  12.222  14.825  11.890
43607SOL    HW232596  12.355  14.754  11.896
43608SOL     OW32597   7.186  12.738   3.486
43608SOL    HW132598   7.206  12.831   3.500
43608SOL    HW232599   7.096  12.728   3.518
43609SOL     OW32600   3.254   6.050   9.637
43609SOL    HW132601   3.336   6.073   9.593
43609SOL    HW232602   3.185   6.078   9.576
43610SOL     OW32603   1.876  12.934  13.934
43610SOL    HW132604   1.899  12.851  13.892
43610SOL    HW232605   1.916  13.001  13.880
43611SOL     OW32606   6.345  12.282   6.413
43611SOL    HW132607   6.380  12.366   6.441
43611SOL    HW232608   6.335  12.232   6.494
43612SOL     OW32609   0.175   2.339  12.072
43612SOL    HW132610   0.146   2.256  12.034
43612SOL    HW232611   0.246   2.315  12.131
43613SOL     OW32612   7.342   0.348  14.547
43613SOL    HW132613   7.321   0.441  14.544
43613SOL    HW232614   7.325   0.322  14.637
43614SOL     OW32615   3.788  10.299   1.203
43614SOL    HW132616   3.835  10.220   1.174
43614SOL    HW232617   3.798  10.298   1.298
43615SOL     OW32618   9.602   0.471   7.512
43615SOL    HW132619   9.665   0.420   7.562
43615SOL    HW232620   9.554   0.406   7.461
43616SOL     OW32621  10.215   0.902   9.484
43616SOL    HW132622  10.213   0.996   9.471
43616SOL    HW232623  10.308   0.879   9.477
43617SOL     OW32624   6.402  13.961   1.855
43617SOL    HW132625   6.367  13.984   1.941
43617SOL    HW232626   6.460  13.887   1.871
43618SOL     OW32627  10.652   0.704  13.191
43618SOL    HW132628  10.700   0.621  13.189
43618SOL    HW232629  10.721   0.771  13.198
43619SOL     OW32630   6.579   2.097  13.678
43619SOL    HW132631   6.526   2.164  13.719
43619SOL    HW232632   6.526   2.065  13.605
43620SOL     OW32633   1.633   1.024   8.236
43620SOL    HW132634   1.674   1.107   8.211
43620SOL    HW232635   1.546   1.048   8.268
43621SOL     OW32636   4.575  11.028   1.792
43621SOL    HW132637   4.544  10.991   1.709
43621SOL    HW232638   4.660  11.067   1.770
43622SOL     OW32639   2.198   3.159   9.603
43622SOL    HW132640   2.147   3.163   9.522
43622SOL    HW232641   2.285   3.189   9.577
43623SOL     OW32642  14.808  13.179   8.955
43623SOL    HW132643  14.825  13.241   9.026
43623SOL    HW232644   0.011  13.139   8.937
43624SOL     OW32645   1.275   9.564   3.203
43624SOL    HW132646   1.283   9.529   3.115
43624SOL    HW232647   1.250   9.489   3.257
43625SOL     OW32648  12.772   2.488  13.065
43625SOL    HW132649  12.688   2.443  13.058
43625SOL    HW232650  12.823   2.455  12.991
43626SOL     OW32651  14.553  11.468   9.596
43626SOL    HW132652  14.629  11.521   9.622
43626SOL    HW232653  14.517  11.514   9.521
43627SOL     OW32654   9.900  12.753   5.505
43627SOL    HW132655   9.944  12.745   5.421
43627SOL    HW232656   9.971  12.768   5.568
43628SOL     OW32657   2.435   2.875   2.753
43628SOL    HW132658   2.370   2.920   2.699
43628SOL    HW232659   2.519   2.896   2.713
43629SOL     OW32660   1.263  14.176  11.887
43629SOL    HW132661   1.293  14.089  11.913
43629SOL    HW232662   1.306  14.191  11.802
43630SOL     OW32663   6.895   1.665  14.104
43630SOL    HW132664   6.822   1.603  14.116
43630SOL    HW232665   6.893   1.687  14.011
43631SOL     OW32666   6.000  11.763   8.040
43631SOL    HW132667   6.065  11.750   7.970
43631SOL    HW232668   6.053  11.778   8.119
43632SOL     OW32669   5.737   0.334   6.577
43632SOL    HW132670   5.642   0.326   6.591
43632SOL    HW232671   5.775   0.264   6.630
43633SOL     OW32672   3.423  10.952   4.076
43633SOL    HW132673   3.384  11.036   4.097
43633SOL    HW232674   3.416  10.901   4.157
43634SOL     OW32675   2.625   7.631  12.475
43634SOL    HW132676   2.663   7.673  12.398
43634SOL    HW232677   2.657   7.684  12.549
43635SOL     OW32678   6.851   9.317   6.488
43635SOL    HW132679   6.756   9.311   6.492
43635SOL    HW232680   6.881   9.232   6.521
43636SOL     OW32681   8.210   8.097  10.748
43636SOL    HW132682   8.149   8.158  10.789
43636SOL    HW232683   8.220   8.027  10.813
43637SOL     OW32684   2.872  11.368   9.206
43637SOL    HW132685   2.796  11.371   9.149
43637SOL    HW232686   2.836  11.371   9.295
43638SOL     OW32687  10.981   5.145   8.845
43638SOL    HW132688  11.046   5.089   8.888
43638SOL    HW232689  10.900   5.094   8.846
43639SOL     OW32690  13.696   7.606   0.322
43639SOL    HW132691  13.697   7.595   0.417
43639SOL    HW232692  13.603   7.613   0.300
43640SOL     OW32693   5.271  12.170   3.571
43640SOL    HW132694   5.291  12.095   3.626
43640SOL    HW232695   5.194  12.144   3.522
43641SOL     OW32696   7.949   6.079  11.348
43641SOL    HW132697   7.938   6.080  11.253
43641SOL    HW232698   7.885   6.016  11.380
43642SOL     OW32699   9.278   6.344   0.425
43642SOL    HW132700   9.311   6.306   0.507
43642SOL    HW232701   9.189   6.373   0.446
43643SOL     OW32702   2.810   6.268   0.283
43643SOL    HW132703   2.807   6.363   0.298
43643SOL    HW232704   2.725   6.248   0.242
43644SOL     OW32705   7.459   4.757  10.571
43644SOL    HW132706   7.520   4.831  10.580
43644SOL    HW232707   7.478   4.721  10.485
43645SOL     OW32708   3.243   6.796   4.977
43645SOL    HW132709   3.209   6.707   4.966
43645SOL    HW232710   3.338   6.784   4.984
43646SOL     OW32711   9.864   5.817  12.725
43646SOL    HW132712   9.835   5.860  12.805
43646SOL    HW232713   9.922   5.747  12.755
43647SOL     OW32714  10.253  12.286  14.637
43647SOL    HW132715  10.315  12.222  14.672
43647SOL    HW232716  10.167  12.252  14.662
43648SOL     OW32717   1.070   3.795   9.373
43648SOL    HW132718   0.992   3.796   9.318
43648SOL    HW232719   1.063   3.874   9.426
43649SOL     OW32720   5.711  10.877   4.100
43649SOL    HW132721   5.769  10.838   4.035
43649SOL    HW232722   5.651  10.806   4.125
43650SOL     OW32723   6.901   7.786   7.888
43650SOL    HW132724   6.981   7.751   7.848
43650SOL    HW232725   6.876   7.720   7.952
43651SOL     OW32726   3.623   8.373   1.935
43651SOL    HW132727   3.642   8.437   1.866
43651SOL    HW232728   3.577   8.302   1.890
43652SOL     OW32729   6.843  10.437   8.699
43652SOL    HW132730   6.925  10.487   8.694
43652SOL    HW232731   6.792  10.467   8.624
43653SOL     OW32732   5.512  14.071  10.229
43653SOL    HW132733   5.420  14.063  10.251
43653SOL    HW232734   5.515  14.058  10.134
43654SOL     OW32735  14.227  10.825  10.504
43654SOL    HW132736  14.262  10.740  10.531
43654SOL    HW232737  14.134  10.821  10.526
43655SOL     OW32738   8.741   3.515  13.195
43655SOL    HW132739   8.791   3.503  13.114
43655SOL    HW232740   8.668   3.453  13.187
43656SOL     OW32741   3.018   2.805   7.816
43656SOL    HW132742   3.042   2.809   7.909
43656SOL    HW232743   3.009   2.896   7.789
43657SOL     OW32744   2.232   6.435   5.495
43657SOL    HW132745   2.174   6.433   5.572
43657SOL    HW232746   2.226   6.347   5.459
43658SOL     OW32747   5.963   0.379   6.425
43658SOL    HW132748   5.888   0.341   6.471
43658SOL    HW232749   6.004   0.438   6.488
43659SOL     OW32750   9.126   6.873  13.043
43659SOL    HW132751   9.191   6.834  13.101
43659SOL    HW232752   9.044   6.827  13.063
43660SOL     OW32753   3.720   5.915  10.284
43660SOL    HW132754   3.626   5.920  10.270
43660SOL    HW232755   3.732   5.939  10.376
43661SOL     OW32756   7.250   5.665  10.763
43661SOL    HW132757   7.293   5.748  10.743
43661SOL    HW232758   7.206   5.681  10.847
43662SOL     OW32759   1.838   4.948   6.348
43662SOL    HW132760   1.753   4.949   6.306
43662SOL    HW232761   1.899   4.921   6.280
43663SOL     OW32762  14.141   0.237   2.099
43663SOL    HW132763  14.109   0.325   2.120
43663SOL    HW232764  14.118   0.185   2.176
43664SOL     OW32765   0.474   1.440  12.230
43664SOL    HW132766   0.508   1.352  12.248
43664SOL    HW232767   0.482   1.449  12.135
43665SOL     OW32768  10.573   0.284  11.301
43665SOL    HW132769  10.573   0.213  11.237
43665SOL    HW232770  10.586   0.240  11.385
43666SOL     OW32771   4.352  14.764  10.744
43666SOL    HW132772   4.263  14.791  10.720
43666SOL    HW232773   4.409  14.825  10.698
43667SOL     OW32774   6.906   9.717   0.081
43667SOL    HW132775   6.875   9.669   0.004
43667SOL    HW232776   6.895   9.655   0.153
43668SOL     OW32777  13.945   9.623   8.592
43668SOL    HW132778  13.983   9.698   8.638
43668SOL    HW232779  13.870   9.659   8.545
43669SOL     OW32780   1.307   7.065  14.386
43669SOL    HW132781   1.245   7.132  14.357
43669SOL    HW232782   1.371   7.113  14.439
43670SOL     OW32783   7.832   9.891   5.625
43670SOL    HW132784   7.771   9.964   5.640
43670SOL    HW232785   7.876   9.879   5.709
43671SOL     OW32786   2.225  10.295  12.595
43671SOL    HW132787   2.213  10.383  12.629
43671SOL    HW232788   2.281  10.306  12.518
43672SOL     OW32789   5.811   2.453   2.487
43672SOL    HW132790   5.717   2.464   2.470
43672SOL    HW232791   5.840   2.389   2.422
43673SOL     OW32792  11.669   0.699   1.396
43673SOL    HW132793  11.679   0.671   1.305
43673SOL    HW232794  11.584   0.665   1.422
43674SOL     OW32795   3.486  10.292  12.730
43674SOL    HW132796   3.402  10.326  12.701
43674SOL    HW232797   3.506  10.221  12.670
43675SOL     OW32798   3.022   1.119   4.056
43675SOL    HW132799   3.053   1.197   4.012
43675SOL    HW232800   3.034   1.049   3.992
43676SOL     OW32801   6.786   2.934   9.130
43676SOL    HW132802   6.724   2.951   9.060
43676SOL    HW232803   6.740   2.872   9.188
43677SOL     OW32804  11.341   7.511   9.879
43677SOL    HW132805  11.368   7.593   9.837
43677SOL    HW232806  11.247   7.519   9.889
43678SOL     OW32807   0.635   4.837   9.926
43678SOL    HW132808   0.665   4.901   9.862
43678SOL    HW232809   0.565   4.881   9.974
43679SOL     OW32810  13.653   4.929   1.630
43679SOL    HW132811  13.731   4.890   1.589
43679SOL    HW232812  13.588   4.859   1.629
43680SOL     OW32813   3.816   2.593  12.335
43680SOL    HW132814   3.880   2.560  12.397
43680SOL    HW232815   3.741   2.618  12.388
43681SOL     OW32816  10.168   2.130  12.300
43681SOL    HW132817  10.228   2.075  12.351
43681SOL    HW232818  10.210   2.138  12.215
43682SOL     OW32819  11.688  11.736  12.509
43682SOL    HW132820  11.700  11.807  12.572
43682SOL    HW232821  11.730  11.660  12.549
43683SOL     OW32822   4.615   9.974   7.204
43683SOL    HW132823   4.626  10.005   7.114
43683SOL    HW232824   4.598   9.880   7.195
43684SOL     OW32825  14.700  14.058  13.271
43684SOL    HW132826  14.714  14.153  13.271
43684SOL    HW232827  14.609  14.047  13.246
43685SOL     OW32828   2.490   3.803   9.559
43685SOL    HW132829   2.534   3.721   9.535
43685SOL    HW232830   2.429   3.819   9.487
43686SOL     OW32831  14.098   1.702  13.748
43686SOL    HW132832  14.062   1.614  13.758
43686SOL    HW232833  14.028   1.752  13.706
43687SOL     OW32834   1.528   6.968  14.278
43687SOL    HW132835   1.470   6.993  14.350
43687SOL    HW232836   1.513   7.035  14.211
43688SOL     OW32837   3.034   9.791   7.493
43688SOL    HW132838   3.013   9.716   7.436
43688SOL    HW232839   2.971   9.785   7.565
43689SOL     OW32840   6.418   8.214   9.693
43689SOL    HW132841   6.395   8.148   9.758
43689SOL    HW232842   6.419   8.297   9.742
43690SOL     OW32843   0.655   4.198  13.519
43690SOL    HW132844   0.561   4.187  13.537
43690SOL    HW232845   0.695   4.200  13.606
43691SOL     OW32846   6.937  13.549  10.676
43691SOL    HW132847   6.885  13.609  10.621
43691SOL    HW232848   6.972  13.605  10.745
43692SOL     OW32849   6.659  11.841  14.135
43692SOL    HW132850   6.747  11.860  14.167
43692SOL    HW232851   6.664  11.751  14.104
43693SOL     OW32852  13.521   8.520  13.666
43693SOL    HW132853  13.600   8.543  13.715
43693SOL    HW232854  13.464   8.597  13.677
43694SOL     OW32855   7.963   1.149   6.554
43694SOL    HW132856   7.938   1.229   6.507
43694SOL    HW232857   7.979   1.085   6.484
43695SOL     OW32858  11.449   8.435  10.804
43695SOL    HW132859  11.387   8.496  10.765
43695SOL    HW232860  11.510   8.492  10.852
43696SOL     OW32861   2.761  13.105  12.995
43696SOL    HW132862   2.729  13.120  12.907
43696SOL    HW232863   2.851  13.139  12.994
43697SOL     OW32864  13.630   5.159   2.399
43697SOL    HW132865  13.657   5.250   2.386
43697SOL    HW232866  13.551   5.165   2.453
43698SOL     OW32867  11.569  10.753   0.450
43698SOL    HW132868  11.583  10.675   0.396
43698SOL    HW232869  11.654  10.798   0.448
43699SOL     OW32870  14.465   2.614  14.556
43699SOL    HW132871  14.418   2.532  14.538
43699SOL    HW232872  14.402   2.682  14.531
43700SOL     OW32873  12.484  14.098   3.104
43700SOL    HW132874  12.391  14.077   3.099
43700SOL    HW232875  12.516  14.046   3.178
43701SOL     OW32876  12.684   2.318   1.240
43701SOL    HW132877  12.770   2.352   1.264
43701SOL    HW232878  12.683   2.322   1.144
43702SOL     OW32879   2.627   2.239   4.148
43702SOL    HW132880   2.570   2.179   4.100
43702SOL    HW232881   2.567   2.297   4.195
43703SOL     OW32882   4.412   3.415   1.195
43703SOL    HW132883   4.389   3.324   1.173
43703SOL    HW232884   4.335   3.449   1.239
43704SOL     OW32885   4.792   1.133   9.155
43704SOL    HW132886   4.751   1.059   9.112
43704SOL    HW232887   4.723   1.199   9.162
43705SOL     OW32888   7.147   5.988   0.336
43705SOL    HW132889   7.135   5.963   0.428
43705SOL    HW232890   7.242   5.985   0.323
43706SOL     OW32891  10.224   5.420   0.561
43706SOL    HW132892  10.307   5.466   0.577
43706SOL    HW232893  10.245   5.355   0.494
43707SOL     OW32894   5.933  11.634   1.211
43707SOL    HW132895   5.946  11.657   1.303
43707SOL    HW232896   6.021  11.630   1.174
43708SOL     OW32897   3.408   1.114  11.265
43708SOL    HW132898   3.479   1.164  11.226
43708SOL    HW232899   3.385   1.049  11.199
43709SOL     OW32900  10.433   5.438  13.404
43709SOL    HW132901  10.364   5.444  13.338
43709SOL    HW232902  10.486   5.362  13.376
43710SOL     OW32903   8.720  10.019   0.247
43710SOL    HW132904   8.755   9.931   0.254
43710SOL    HW232905   8.737  10.059   0.333
43711SOL     OW32906  14.413   6.883   4.171
43711SOL    HW132907  14.501   6.867   4.206
43711SOL    HW232908  14.395   6.807   4.117
43712SOL     OW32909   5.765   3.017   1.349
43712SOL    HW132910   5.822   3.060   1.286
43712SOL    HW232911   5.799   3.044   1.434
43713SOL     OW32912  10.470   4.862   0.401
43713SOL    HW132913  10.447   4.792   0.462
43713SOL    HW232914  10.495   4.816   0.321
43714SOL     OW32915   4.442   2.834  12.911
43714SOL    HW132916   4.496   2.913  12.904
43714SOL    HW232917   4.429   2.806  12.820
43715SOL     OW32918   4.807   6.965   3.388
43715SOL    HW132919   4.737   6.920   3.435
43715SOL    HW232920   4.762   7.025   3.329
43716SOL     OW32921   5.436  10.917   5.854
43716SOL    HW132922   5.434  10.969   5.773
43716SOL    HW232923   5.477  10.834   5.827
43717SOL     OW32924   7.543   5.034  11.011
43717SOL    HW132925   7.626   5.003  10.973
43717SOL    HW232926   7.567   5.114  11.058
43718SOL     OW32927   6.772  13.244   8.390
43718SOL    HW132928   6.804  13.280   8.473
43718SOL    HW232929   6.773  13.149   8.403
43719SOL     OW32930   1.407   2.411   9.095
43719SOL    HW132931   1.460   2.403   9.015
43719SOL    HW232932   1.330   2.358   9.078
43720SOL     OW32933   4.375   7.154   9.565
43720SOL    HW132934   4.334   7.213   9.501
43720SOL    HW232935   4.458   7.129   9.524
43721SOL     OW32936   1.640   3.982  13.534
43721SOL    HW132937   1.584   4.019  13.602
43721SOL    HW232938   1.627   4.039  13.458
43722SOL     OW32939   5.842   5.052   2.018
43722SOL    HW132940   5.884   5.016   2.096
43722SOL    HW232941   5.769   4.993   2.000
43723SOL     OW32942   8.444  14.048   3.618
43723SOL    HW132943   8.488  13.971   3.655
43723SOL    HW232944   8.411  14.018   3.533
43724SOL     OW32945   3.012   2.339   7.709
43724SOL    HW132946   3.099   2.358   7.745
43724SOL    HW232947   2.970   2.425   7.702
43725SOL     OW32948  14.163   4.203   1.924
43725SOL    HW132949  14.093   4.154   1.968
43725SOL    HW232950  14.244   4.166   1.960
43726SOL     OW32951   6.576   7.863  10.947
43726SOL    HW132952   6.557   7.953  10.918
43726SOL    HW232953   6.584   7.870  11.042
43727SOL     OW32954  10.445   1.521   1.977
43727SOL    HW132955  10.364   1.571   1.984
43727SOL    HW232956  10.449   1.492   1.886
43728SOL     OW32957   4.510  13.659   5.418
43728SOL    HW132958   4.572  13.704   5.476
43728SOL    HW232959   4.566  13.603   5.363
43729SOL     OW32960   5.980   2.789  13.427
43729SOL    HW132961   5.966   2.853  13.498
43729SOL    HW232962   6.069   2.807  13.396
43730SOL     OW32963   9.929  11.287   4.339
43730SOL    HW132964   9.949  11.370   4.296
43730SOL    HW232965   9.846  11.260   4.301
43731SOL     OW32966   9.206   7.723   3.405
43731SOL    HW132967   9.252   7.644   3.378
43731SOL    HW232968   9.154   7.748   3.328
43732SOL     OW32969  10.362  12.542  14.867
43732SOL    HW132970  10.323  12.462  14.830
43732SOL    HW232971  10.381  12.596  14.790
43733SOL     OW32972  13.414  11.765   6.923
43733SOL    HW132973  13.377  11.731   6.841
43733SOL    HW232974  13.432  11.686   6.975
43734SOL     OW32975   7.268   3.640   5.138
43734SOL    HW132976   7.259   3.622   5.231
43734SOL    HW232977   7.307   3.560   5.101
43735SOL     OW32978  12.502   8.957   1.474
43735SOL    HW132979  12.525   8.967   1.566
43735SOL    HW232980  12.437   9.026   1.458
43736SOL     OW32981   2.041   6.037  13.670
43736SOL    HW132982   1.962   6.022  13.721
43736SOL    HW232983   2.096   5.961  13.689
43737SOL     OW32984   4.967   0.044  11.632
43737SOL    HW132985   4.898   0.008  11.577
43737SOL    HW232986   4.940   0.135  11.649
43738SOL     OW32987   4.160   0.893   0.295
43738SOL    HW132988   4.187   0.809   0.332
43738SOL    HW232989   4.196   0.958   0.355
43739SOL     OW32990   8.424   2.295  11.678
43739SOL    HW132991   8.497   2.246  11.640
43739SOL    HW232992   8.406   2.365  11.616
43740SOL     OW32993   5.687   5.243   3.154
43740SOL    HW132994   5.606   5.267   3.110
43740SOL    HW232995   5.748   5.314   3.134
43741SOL     OW32996   5.024  13.382  14.475
43741SOL    HW132997   4.930  13.374  14.487
43741SOL    HW232998   5.040  13.350  14.386
43742SOL     OW32999   8.561   2.007  10.573
43742SOL    HW133000   8.503   1.983  10.501
43742SOL    HW233001   8.604   2.087  10.544
43743SOL     OW33002   9.366   9.698   7.092
43743SOL    HW133003   9.457   9.666   7.089
43743SOL    HW233004   9.320   9.633   7.145
43744SOL     OW33005  13.693   0.337   7.481
43744SOL    HW133006  13.742   0.310   7.558
43744SOL    HW233007  13.647   0.258   7.453
43745SOL     OW33008   7.122   8.004   8.891
43745SOL    HW133009   7.101   8.077   8.949
43745SOL    HW233010   7.084   7.928   8.934
43746SOL     OW33011   4.626   5.214   1.986
43746SOL    HW133012   4.652   5.139   2.039
43746SOL    HW233013   4.612   5.285   2.049
43747SOL     OW33014   6.270   1.143   6.324
43747SOL    HW133015   6.259   1.097   6.241
43747SOL    HW233016   6.362   1.169   6.324
43748SOL     OW33017  14.413   2.130   9.696
43748SOL    HW133018  14.461   2.048   9.688
43748SOL    HW233019  14.402   2.143   9.790
43749SOL     OW33020   8.212   0.694   0.095
43749SOL    HW133021   8.130   0.648   0.113
43749SOL    HW233022   8.273   0.661   0.161
43750SOL     OW33023   2.624   3.138   7.658
43750SOL    HW133024   2.545   3.088   7.681
43750SOL    HW233025   2.592   3.213   7.609
43751SOL     OW33026  12.051  11.920   3.522
43751SOL    HW133027  12.078  12.011   3.510
43751SOL    HW233028  12.071  11.877   3.438
43752SOL     OW33029   8.707  12.744   5.416
43752SOL    HW133030   8.667  12.824   5.384
43752SOL    HW233031   8.800  12.753   5.394
43753SOL     OW33032   2.109  13.483  13.788
43753SOL    HW133033   2.141  13.478  13.879
43753SOL    HW233034   2.081  13.574  13.778
43754SOL     OW33035  10.229   7.260   7.357
43754SOL    HW133036  10.248   7.331   7.296
43754SOL    HW233037  10.298   7.267   7.423
43755SOL     OW33038   7.531   0.683   5.686
43755SOL    HW133039   7.568   0.771   5.690
43755SOL    HW233040   7.570   0.637   5.761
43756SOL     OW33041   5.760   1.090   0.011
43756SOL    HW133042   5.774   0.999   0.037
43756SOL    HW233043   5.825   1.106  14.824
43757SOL     OW33044   8.507  12.157   8.968
43757SOL    HW133045   8.543  12.099   8.901
43757SOL    HW233046   8.495  12.101   9.044
43758SOL     OW33047  14.277   6.982   5.246
43758SOL    HW133048  14.312   7.002   5.159
43758SOL    HW233049  14.184   6.962   5.229
43759SOL     OW33050   6.146   9.679   7.216
43759SOL    HW133051   6.237   9.704   7.235
43759SOL    HW233052   6.093   9.741   7.267
43760SOL     OW33053   6.115   5.834   4.132
43760SOL    HW133054   6.065   5.831   4.051
43760SOL    HW233055   6.142   5.744   4.147
43761SOL     OW33056   9.351   7.684  13.130
43761SOL    HW133057   9.370   7.627  13.205
43761SOL    HW233058   9.261   7.713  13.144
43762SOL     OW33059   8.022  13.765   3.230
43762SOL    HW133060   7.984  13.735   3.147
43762SOL    HW233061   7.960  13.734   3.297
43763SOL     OW33062  11.045   2.362   6.645
43763SOL    HW133063  11.106   2.416   6.595
43763SOL    HW233064  11.059   2.388   6.736
43764SOL     OW33065   7.885   9.503   6.680
43764SOL    HW133066   7.812   9.564   6.691
43764SOL    HW233067   7.955   9.556   6.643
43765SOL     OW33068  13.049   8.776   6.734
43765SOL    HW133069  12.974   8.835   6.737
43765SOL    HW233070  13.111   8.812   6.798
43766SOL     OW33071   1.343   0.462   6.553
43766SOL    HW133072   1.258   0.462   6.598
43766SOL    HW233073   1.399   0.514   6.610
43767SOL     OW33074  14.735  13.400   8.344
43767SOL    HW133075  14.729  13.328   8.281
43767SOL    HW233076  14.677  13.374   8.416
43768SOL     OW33077   8.188   9.370   4.000
43768SOL    HW133078   8.273   9.390   4.040
43768SOL    HW233079   8.142   9.318   4.065
43769SOL     OW33080   0.975   0.254  12.016
43769SOL    HW133081   0.881   0.270  12.023
43769SOL    HW233082   1.002   0.304  11.938
43770SOL     OW33083   2.250   6.506  12.196
43770SOL    HW133084   2.259   6.411  12.188
43770SOL    HW233085   2.157   6.522  12.179
43771SOL     OW33086  10.756   3.986   5.507
43771SOL    HW133087  10.688   3.982   5.574
43771SOL    HW233088  10.792   4.074   5.514
43772SOL     OW33089   3.451   3.310   4.865
43772SOL    HW133090   3.414   3.356   4.940
43772SOL    HW233091   3.389   3.239   4.847
43773SOL     OW33092   2.254   8.854   2.198
43773SOL    HW133093   2.232   8.926   2.257
43773SOL    HW233094   2.181   8.851   2.136
43774SOL     OW33095   1.829  13.925   6.361
43774SOL    HW133096   1.752  13.869   6.373
43774SOL    HW233097   1.845  13.962   6.448
43775SOL     OW33098   2.494   7.357   1.563
43775SOL    HW133099   2.496   7.303   1.642
43775SOL    HW233100   2.429   7.314   1.507
43776SOL     OW33101   5.727   7.584   3.100
43776SOL    HW133102   5.763   7.653   3.045
43776SOL    HW233103   5.784   7.508   3.086
43777SOL     OW33104  13.140  10.326   7.583
43777SOL    HW133105  13.222  10.343   7.537
43777SOL    HW233106  13.073  10.334   7.515
43778SOL     OW33107  14.418   3.263   0.483
43778SOL    HW133108  14.460   3.269   0.568
43778SOL    HW233109  14.411   3.169   0.466
43779SOL     OW33110  12.458   3.063  14.864
43779SOL    HW133111  12.368   3.093  14.855
43779SOL    HW233112  12.478   3.076   0.076
43780SOL     OW33113  10.973  10.821   9.877
43780SOL    HW133114  10.940  10.869   9.953
43780SOL    HW233115  10.900  10.765   9.851
43781SOL     OW33116  14.236  13.338  13.557
43781SOL    HW133117  14.324  13.315  13.527
43781SOL    HW233118  14.229  13.298  13.644
43782SOL     OW33119   0.199  13.084   1.690
43782SOL    HW133120   0.171  13.055   1.603
43782SOL    HW233121   0.149  13.029   1.751
43783SOL     OW33122   5.401  14.395  11.570
43783SOL    HW133123   5.457  14.332  11.524
43783SOL    HW233124   5.316  14.350  11.577
43784SOL     OW33125  10.006   5.413   2.141
43784SOL    HW133126   9.961   5.366   2.071
43784SOL    HW233127  10.094   5.428   2.108
43785SOL     OW33128  12.371   4.828  12.326
43785SOL    HW133129  12.384   4.863  12.414
43785SOL    HW233130  12.301   4.883  12.289
43786SOL     OW33131   8.896   1.137  13.484
43786SOL    HW133132   8.950   1.200  13.435
43786SOL    HW233133   8.827   1.190  13.523
43787SOL     OW33134   9.483  12.566   6.302
43787SOL    HW133135   9.519  12.477   6.302
43787SOL    HW233136   9.467  12.586   6.210
43788SOL     OW33137   7.469   7.460   8.316
43788SOL    HW133138   7.502   7.443   8.404
43788SOL    HW233139   7.404   7.391   8.302
43789SOL     OW33140  13.415   1.707   8.825
43789SOL    HW133141  13.509   1.711   8.841
43789SOL    HW233142  13.404   1.635   8.764
43790SOL     OW33143  13.166   1.961   1.624
43790SOL    HW133144  13.140   2.048   1.595
43790SOL    HW233145  13.124   1.901   1.562
43791SOL     OW33146   7.004  10.834   2.257
43791SOL    HW133147   6.909  10.826   2.249
43791SOL    HW233148   7.032  10.869   2.172
43792SOL     OW33149   9.549  12.273   6.287
43792SOL    HW133150   9.463  12.231   6.298
43792SOL    HW233151   9.608  12.220   6.341
43793SOL     OW33152   3.425   6.053   7.294
43793SOL    HW133153   3.510   6.031   7.331
43793SOL    HW233154   3.373   5.973   7.303
43794SOL     OW33155   6.034  12.529   3.408
43794SOL    HW133156   6.063  12.468   3.340
43794SOL    HW233157   5.978  12.476   3.465
43795SOL     OW33158   1.183   6.519   7.845
43795SOL    HW133159   1.248   6.484   7.905
43795SOL    HW233160   1.203   6.478   7.761
43796SOL     OW33161   1.215   0.779   4.816
43796SOL    HW133162   1.265   0.715   4.765
43796SOL    HW233163   1.278   0.848   4.837
43797SOL     OW33164   0.871   7.475   0.419
43797SOL    HW133165   0.793   7.430   0.449
43797SOL    HW233166   0.845   7.567   0.412
43798SOL     OW33167   3.469  12.405   8.390
43798SOL    HW133168   3.545  12.363   8.350
43798SOL    HW233169   3.505  12.451   8.466
43799SOL     OW33170   6.347  12.478   8.596
43799SOL    HW133171   6.393  12.486   8.679
43799SOL    HW233172   6.416  12.471   8.531
43800SOL     OW33173  14.009   1.255   3.348
43800SOL    HW133174  13.954   1.325   3.313
43800SOL    HW233175  13.948   1.184   3.369
43801SOL     OW33176   4.236   1.912   2.879
43801SOL    HW133177   4.218   1.857   2.803
43801SOL    HW233178   4.153   1.915   2.927
43802SOL     OW33179   0.912  10.245   1.391
43802SOL    HW133180   0.908  10.162   1.439
43802SOL    HW233181   0.999  10.279   1.409
43803SOL     OW33182   0.658  13.001   4.971
43803SOL    HW133183   0.724  12.942   5.008
43803SOL    HW233184   0.697  13.033   4.890
43804SOL     OW33185  12.133  11.318  10.112
43804SOL    HW133186  12.104  11.229  10.090
43804SOL    HW233187  12.162  11.354  10.028
43805SOL     OW33188   1.632   6.307   5.896
43805SOL    HW133189   1.604   6.352   5.975
43805SOL    HW233190   1.683   6.372   5.848
43806SOL     OW33191  10.612   2.964  12.704
43806SOL    HW133192  10.669   3.014  12.646
43806SOL    HW233193  10.658   2.881  12.718
43807SOL     OW33194   5.566   6.501   2.768
43807SOL    HW133195   5.541   6.445   2.694
43807SOL    HW233196   5.662   6.497   2.769
43808SOL     OW33197   3.045   6.491   7.580
43808SOL    HW133198   3.121   6.542   7.551
43808SOL    HW233199   3.081   6.406   7.605
43809SOL     OW33200  11.978   6.222  12.657
43809SOL    HW133201  11.902   6.170  12.632
43809SOL    HW233202  12.047   6.157  12.672
43810SOL     OW33203   7.941  12.642  13.741
43810SOL    HW133204   7.951  12.548  13.725
43810SOL    HW233205   7.875  12.648  13.810
43811SOL     OW33206   2.706  14.035   8.523
43811SOL    HW133207   2.735  13.946   8.505
43811SOL    HW233208   2.759  14.064   8.597
43812SOL     OW33209   3.221  12.763   4.924
43812SOL    HW133210   3.274  12.787   4.999
43812SOL    HW233211   3.242  12.828   4.857
43813SOL     OW33212  14.782   8.280   6.187
43813SOL    HW133213  14.867   8.310   6.156
43813SOL    HW233214  14.720   8.304   6.118
43814SOL     OW33215   9.281   3.028  14.474
43814SOL    HW133216   9.215   2.964  14.499
43814SOL    HW233217   9.233   3.098  14.430
43815SOL     OW33218   2.680   9.352   0.461
43815SOL    HW133219   2.664   9.257   0.468
43815SOL    HW233220   2.771   9.363   0.488
43816SOL     OW33221   5.120   0.293   6.635
43816SOL    HW133222   5.118   0.199   6.652
43816SOL    HW233223   5.079   0.303   6.549
43817SOL     OW33224  10.156   2.223  10.142
43817SOL    HW133225  10.190   2.232  10.231
43817SOL    HW233226  10.125   2.311  10.119
43818SOL     OW33227  14.752  13.852   3.296
43818SOL    HW133228  14.771  13.916   3.228
43818SOL    HW233229  14.824  13.789   3.291
43819SOL     OW33230   5.213   6.634   5.494
43819SOL    HW133231   5.288   6.689   5.517
43819SOL    HW233232   5.228   6.610   5.403
43820SOL     OW33233   7.075  10.554  11.438
43820SOL    HW133234   7.048  10.532  11.349
43820SOL    HW233235   7.035  10.639  11.455
43821SOL     OW33236  12.235   2.877  12.880
43821SOL    HW133237  12.245   2.939  12.953
43821SOL    HW233238  12.167   2.816  12.909
43822SOL     OW33239   2.962  13.131  13.426
43822SOL    HW133240   2.909  13.191  13.479
43822SOL    HW233241   2.917  13.047  13.434
43823SOL     OW33242   7.324   2.663   0.819
43823SOL    HW133243   7.389   2.617   0.766
43823SOL    HW233244   7.297   2.737   0.766
43824SOL     OW33245   6.607   3.011  11.532
43824SOL    HW133246   6.577   2.988  11.444
43824SOL    HW233247   6.527   3.024  11.582
43825SOL     OW33248   9.006   6.680   8.582
43825SOL    HW133249   8.954   6.748   8.540
43825SOL    HW233250   8.991   6.691   8.676
43826SOL     OW33251   4.821   3.378   8.029
43826SOL    HW133252   4.841   3.438   7.957
43826SOL    HW233253   4.781   3.302   7.988
43827SOL     OW33254   8.528   0.427  11.935
43827SOL    HW133255   8.484   0.343  11.925
43827SOL    HW233256   8.479   0.486  11.878
43828SOL     OW33257   9.352   1.975   5.969
43828SOL    HW133258   9.429   1.920   5.954
43828SOL    HW233259   9.354   1.993   6.063
43829SOL     OW33260   0.665   0.569   4.572
43829SOL    HW133261   0.723   0.548   4.644
43829SOL    HW233262   0.708   0.532   4.494
43830SOL     OW33263  10.409   8.660   9.092
43830SOL    HW133264  10.356   8.684   9.017
43830SOL    HW233265  10.376   8.714   9.163
43831SOL     OW33266   2.859   4.696  10.700
43831SOL    HW133267   2.766   4.701  10.677
43831SOL    HW233268   2.891   4.786  10.691
43832SOL     OW33269   1.384   7.365   8.399
43832SOL    HW133270   1.356   7.318   8.320
43832SOL    HW233271   1.477   7.382   8.385
43833SOL     OW33272   4.257   5.739  12.018
43833SOL    HW133273   4.314   5.763  11.945
43833SOL    HW233274   4.285   5.794  12.090
43834SOL     OW33275   0.787   3.932  13.651
43834SOL    HW133276   0.802   3.852  13.700
43834SOL    HW233277   0.754   3.903  13.566
43835SOL     OW33278   2.095   4.136  12.147
43835SOL    HW133279   2.116   4.118  12.239
43835SOL    HW233280   2.005   4.168  12.149
43836SOL     OW33281   9.561   6.254  14.414
43836SOL    HW133282   9.545   6.271  14.506
43836SOL    HW233283   9.483   6.207  14.384
43837SOL     OW33284  13.836  14.116   6.985
43837SOL    HW133285  13.846  14.147   7.076
43837SOL    HW233286  13.822  14.196   6.934
43838SOL     OW33287   7.087   6.498   1.259
43838SOL    HW133288   7.061   6.470   1.171
43838SOL    HW233289   7.115   6.417   1.302
43839SOL     OW33290   2.502   2.071  11.933
43839SOL    HW133291   2.549   2.003  11.886
43839SOL    HW233292   2.556   2.150  11.920
43840SOL     OW33293   0.168   0.033   1.890
43840SOL    HW133294   0.138   0.106   1.837
43840SOL    HW233295   0.138   0.053   1.979
43841SOL     OW33296  13.990  12.485   0.580
43841SOL    HW133297  14.074  12.492   0.623
43841SOL    HW233298  13.976  12.391   0.568
43842SOL     OW33299   7.223   0.732  13.028
43842SOL    HW133300   7.296   0.752  13.088
43842SOL    HW233301   7.265   0.687  12.955
43843SOL     OW33302  10.280   2.830   4.489
43843SOL    HW133303  10.301   2.910   4.539
43843SOL    HW233304  10.205   2.793   4.535
43844SOL     OW33305  12.049  13.016  14.004
43844SOL    HW133306  11.995  13.087  14.040
43844SOL    HW233307  12.129  13.019  14.056
43845SOL     OW33308   9.074   6.613  14.012
43845SOL    HW133309   9.100   6.677  13.946
43845SOL    HW233310   9.009   6.658  14.065
43846SOL     OW33311   3.005   7.643   1.020
43846SOL    HW133312   3.095   7.625   0.992
43846SOL    HW233313   2.995   7.738   1.012
43847SOL     OW33314   2.764   1.124   8.527
43847SOL    HW133315   2.791   1.046   8.575
43847SOL    HW233316   2.833   1.136   8.461
43848SOL     OW33317  14.471   9.276   8.176
43848SOL    HW133318  14.482   9.263   8.271
43848SOL    HW233319  14.465   9.187   8.141
43849SOL     OW33320   7.996   9.665   8.057
43849SOL    HW133321   7.922   9.727   8.057
43849SOL    HW233322   8.042   9.684   7.975
43850SOL     OW33323   9.542   0.484   9.293
43850SOL    HW133324   9.505   0.531   9.218
43850SOL    HW233325   9.560   0.396   9.260
43851SOL     OW33326   0.573   4.190  13.956
43851SOL    HW133327   0.581   4.119  14.020
43851SOL    HW233328   0.572   4.270  14.008
43852SOL     OW33329   1.690   0.817   8.560
43852SOL    HW133330   1.687   0.801   8.466
43852SOL    HW233331   1.674   0.912   8.568
43853SOL     OW33332   9.085   7.755  10.927
43853SOL    HW133333   9.083   7.795  10.840
43853SOL    HW233334   9.161   7.697  10.925
43854SOL     OW33335   5.278   9.002  12.591
43854SOL    HW133336   5.243   8.913  12.581
43854SOL    HW233337   5.303   9.028  12.502
43855SOL     OW33338   7.838   9.910  13.990
43855SOL    HW133339   7.748   9.901  14.019
43855SOL    HW233340   7.839   9.875  13.901
43856SOL     OW33341  12.007  10.105   9.696
43856SOL    HW133342  12.096  10.088   9.667
43856SOL    HW233343  11.959  10.024   9.678
43857SOL     OW33344  13.360   7.930   2.055
43857SOL    HW133345  13.369   8.020   2.085
43857SOL    HW233346  13.442   7.911   2.010
43858SOL     OW33347  11.887  12.290   9.124
43858SOL    HW133348  11.811  12.335   9.162
43858SOL    HW233349  11.898  12.330   9.038
43859SOL     OW33350  12.008   1.292   3.321
43859SOL    HW133351  11.943   1.226   3.345
43859SOL    HW233352  12.086   1.268   3.371
43860SOL     OW33353   7.065   9.364  10.841
43860SOL    HW133354   7.054   9.288  10.784
43860SOL    HW233355   6.990   9.361  10.900
43861SOL     OW33356   8.448   8.182  10.949
43861SOL    HW133357   8.423   8.237  10.874
43861SOL    HW233358   8.500   8.112  10.910
43862SOL     OW33359   0.537  11.361   2.127
43862SOL    HW133360   0.553  11.305   2.051
43862SOL    HW233361   0.622  11.397   2.150
43863SOL     OW33362   6.744   0.387  13.430
43863SOL    HW133363   6.755   0.431  13.514
43863SOL    HW233364   6.652   0.398  13.408
43864SOL     OW33365  12.201  11.154   1.012
43864SOL    HW133366  12.166  11.241   0.990
43864SOL    HW233367  12.145  11.123   1.083
43865SOL     OW33368   8.260  10.661   5.591
43865SOL    HW133369   8.323  10.724   5.557
43865SOL    HW233370   8.180  10.677   5.542
43866SOL     OW33371   5.028  10.214  13.539
43866SOL    HW133372   5.010  10.141  13.597
43866SOL    HW233373   5.021  10.177  13.451
43867SOL     OW33374  11.035  11.496  11.723
43867SOL    HW133375  11.102  11.456  11.779
43867SOL    HW233376  10.961  11.434  11.726
43868SOL     OW33377   3.959   8.991   9.554
43868SOL    HW133378   3.973   8.913   9.500
43868SOL    HW233379   3.895   8.963   9.620
43869SOL     OW33380   7.676   9.852   9.998
43869SOL    HW133381   7.711   9.904   9.925
43869SOL    HW233382   7.626   9.783   9.955
43870SOL     OW33383   8.827   8.787  10.051
43870SOL    HW133384   8.913   8.807  10.014
43870SOL    HW233385   8.776   8.867  10.038
43871SOL     OW33386   3.541   0.325   2.889
43871SOL    HW133387   3.508   0.414   2.875
43871SOL    HW233388   3.606   0.334   2.958
43872SOL     OW33389  11.067  14.748   5.880
43872SOL    HW133390  11.073  14.809   5.806
43872SOL    HW233391  10.973  14.739   5.897
43873SOL     OW33392   6.017  14.560   8.820
43873SOL    HW133393   6.045  14.626   8.884
43873SOL    HW233394   6.071  14.483   8.840
43874SOL     OW33395   8.385  13.041   5.124
43874SOL    HW133396   8.305  12.999   5.158
43874SOL    HW233397   8.395  13.006   5.036
43875SOL     OW33398  10.250   0.277   2.421
43875SOL    HW133399  10.283   0.191   2.396
43875SOL    HW233400  10.190   0.259   2.493
43876SOL     OW33401  10.680   4.301   8.185
43876SOL    HW133402  10.723   4.242   8.248
43876SOL    HW233403  10.650   4.374   8.239
43877SOL     OW33404   9.671  11.748   8.632
43877SOL    HW133405   9.765  11.756   8.653
43877SOL    HW233406   9.652  11.655   8.642
43878SOL     OW33407   0.466  14.856   2.321
43878SOL    HW133408   0.527  14.844   2.394
43878SOL    HW233409   0.382  14.823   2.354
43879SOL     OW33410   9.685   4.255  13.819
43879SOL    HW133411   9.625   4.196  13.773
43879SOL    HW233412   9.714   4.316  13.753
43880SOL     OW33413   3.503   5.676   1.297
43880SOL    HW133414   3.459   5.651   1.377
43880SOL    HW233415   3.573   5.611   1.286
43881SOL     OW33416   0.658  11.828   2.288
43881SOL    HW133417   0.709  11.851   2.366
43881SOL    HW233418   0.686  11.890   2.221
43882SOL     OW33419   3.030   1.788   6.832
43882SOL    HW133420   2.976   1.735   6.773
43882SOL    HW233421   2.969   1.815   6.902
43883SOL     OW33422  12.907   8.471   5.214
43883SOL    HW133423  13.000   8.489   5.205
43883SOL    HW233424  12.864   8.556   5.204
43884SOL     OW33425  13.200   8.700  14.449
43884SOL    HW133426  13.172   8.641  14.520
43884SOL    HW233427  13.120   8.742  14.420
43885SOL     OW33428   7.363   3.566  12.701
43885SOL    HW133429   7.443   3.518  12.679
43885SOL    HW233430   7.379   3.599  12.790
43886SOL     OW33431  12.062  14.438   9.185
43886SOL    HW133432  12.086  14.346   9.177
43886SOL    HW233433  12.027  14.461   9.098
43887SOL     OW33434   8.294  13.232  13.116
43887SOL    HW133435   8.308  13.313  13.067
43887SOL    HW233436   8.356  13.236  13.188
43888SOL     OW33437  12.961   4.692   1.856
43888SOL    HW133438  12.945   4.640   1.777
43888SOL    HW233439  12.926   4.778   1.836
43889SOL     OW33440   8.458  13.788   1.135
43889SOL    HW133441   8.455  13.869   1.186
43889SOL    HW233442   8.404  13.726   1.184
43890SOL     OW33443   9.648   2.122  13.366
43890SOL    HW133444   9.693   2.122  13.450
43890SOL    HW233445   9.571   2.177  13.379
43891SOL     OW33446  11.817  12.961  10.817
43891SOL    HW133447  11.816  12.953  10.722
43891SOL    HW233448  11.739  12.913  10.846
43892SOL     OW33449   4.372  14.615  10.508
43892SOL    HW133450   4.364  14.648  10.597
43892SOL    HW233451   4.324  14.678  10.454
43893SOL     OW33452   9.256   3.212   1.175
43893SOL    HW133453   9.223   3.128   1.145
43893SOL    HW233454   9.179   3.268   1.180
43894SOL     OW33455  11.808  14.091   8.253
43894SOL    HW133456  11.884  14.060   8.303
43894SOL    HW233457  11.739  14.099   8.318
43895SOL     OW33458  11.929  13.743  14.806
43895SOL    HW133459  11.915  13.757  14.712
43895SOL    HW233460  11.871  13.670  14.828
43896SOL     OW33461   6.905   2.437   0.687
43896SOL    HW133462   6.918   2.396   0.601
43896SOL    HW233463   6.987   2.420   0.734
43897SOL     OW33464   2.003   8.372   0.032
43897SOL    HW133465   2.039   8.444   0.085
43897SOL    HW233466   2.078   8.313   0.020
43898SOL     OW33467   7.587   2.098   6.886
43898SOL    HW133468   7.503   2.073   6.925
43898SOL    HW233469   7.563   2.163   6.819
43899SOL     OW33470   0.474   6.177  11.163
43899SOL    HW133471   0.443   6.130  11.239
43899SOL    HW233472   0.518   6.110  11.110
43900SOL     OW33473   0.311  13.403  13.153
43900SOL    HW133474   0.325  13.432  13.063
43900SOL    HW233475   0.300  13.308  13.147
43901SOL     OW33476   7.891  10.004   4.035
43901SOL    HW133477   7.968  10.060   4.046
43901SOL    HW233478   7.912   9.949   3.959
43902SOL     OW33479  11.890  10.628   5.355
43902SOL    HW133480  11.795  10.642   5.360
43902SOL    HW233481  11.902  10.581   5.272
43903SOL     OW33482  13.211  13.774   8.049
43903SOL    HW133483  13.250  13.704   8.101
43903SOL    HW233484  13.284  13.808   7.996
43904SOL     OW33485  14.699   6.313   5.636
43904SOL    HW133486  14.624   6.263   5.602
43904SOL    HW233487  14.689   6.309   5.731
43905SOL     OW33488   4.185   8.684   1.979
43905SOL    HW133489   4.271   8.725   1.968
43905SOL    HW233490   4.201   8.612   2.040
43906SOL     OW33491   3.046   4.853   6.264
43906SOL    HW133492   2.963   4.855   6.217
43906SOL    HW233493   3.086   4.938   6.246
43907SOL     OW33494   2.848   2.071   1.892
43907SOL    HW133495   2.817   2.158   1.865
43907SOL    HW233496   2.832   2.016   1.815
43908SOL     OW33497   0.909  10.885   9.177
43908SOL    HW133498   0.818  10.854   9.176
43908SOL    HW233499   0.950  10.840   9.103
43909SOL     OW33500   4.922   7.131   0.241
43909SOL    HW133501   4.870   7.054   0.263
43909SOL    HW233502   4.883   7.202   0.291
43910SOL     OW33503   3.606   0.312   0.776
43910SOL    HW133504   3.548   0.256   0.828
43910SOL    HW233505   3.680   0.331   0.834
43911SOL     OW33506   3.566   0.870   4.539
43911SOL    HW133507   3.561   0.777   4.516
43911SOL    HW233508   3.575   0.915   4.455
43912SOL     OW33509   8.093  10.477   2.202
43912SOL    HW133510   8.102  10.491   2.296
43912SOL    HW233511   8.179  10.448   2.173
43913SOL     OW33512   6.453   1.472   1.254
43913SOL    HW133513   6.415   1.552   1.218
43913SOL    HW233514   6.542   1.496   1.278
43914SOL     OW33515   9.824  10.524  12.155
43914SOL    HW133516   9.856  10.455  12.214
43914SOL    HW233517   9.887  10.595  12.166
43915SOL     OW33518   6.247   9.283   5.483
43915SOL    HW133519   6.235   9.376   5.502
43915SOL    HW233520   6.182   9.239   5.538
43916SOL     OW33521  14.074   4.853   8.798
43916SOL    HW133522  14.057   4.939   8.759
43916SOL    HW233523  14.133   4.810   8.736
43917SOL     OW33524   4.634  12.891   7.573
43917SOL    HW133525   4.637  12.825   7.642
43917SOL    HW233526   4.568  12.859   7.512
43918SOL     OW33527   0.094   1.707  11.779
43918SOL    HW133528   0.091   1.632  11.838
43918SOL    HW233529   0.107   1.668  11.692
43919SOL     OW33530  12.204   3.083   4.184
43919SOL    HW133531  12.151   3.084   4.264
43919SOL    HW233532  12.214   3.176   4.162
43920SOL     OW33533   6.516  13.385   2.898
43920SOL    HW133534   6.503  13.439   2.820
43920SOL    HW233535   6.506  13.446   2.972
43921SOL     OW33536  10.250   4.922  13.417
43921SOL    HW133537  10.255   4.962  13.330
43921SOL    HW233538  10.339   4.893  13.435
43922SOL     OW33539   8.386  12.183   5.098
43922SOL    HW133540   8.354  12.094   5.081
43922SOL    HW233541   8.407  12.184   5.191
43923SOL     OW33542  13.533   7.675  12.635
43923SOL    HW133543  13.556   7.593  12.591
43923SOL    HW233544  13.540   7.656  12.728
43924SOL     OW33545   2.401  13.740   9.162
43924SOL    HW133546   2.494  13.721   9.168
43924SOL    HW233547   2.392  13.827   9.203
43925SOL     OW33548   8.065   5.324  12.859
43925SOL    HW133549   8.044   5.250  12.802
43925SOL    HW233550   7.979   5.360  12.882
43926SOL     OW33551  12.784  10.438   1.854
43926SOL    HW133552  12.710  10.462   1.798
43926SOL    HW233553  12.840  10.515   1.854
43927SOL     OW33554   1.226   6.888   1.448
43927SOL    HW133555   1.214   6.877   1.353
43927SOL    HW233556   1.318   6.912   1.458
43928SOL     OW33557   8.885   2.227   6.615
43928SOL    HW133558   8.838   2.290   6.560
43928SOL    HW233559   8.842   2.143   6.597
43929SOL     OW33560   4.140   8.980   6.266
43929SOL    HW133561   4.068   8.922   6.241
43929SOL    HW233562   4.208   8.920   6.298
43930SOL     OW33563  10.111   0.062   8.095
43930SOL    HW133564  10.034   0.006   8.107
43930SOL    HW233565  10.123   0.104   8.180
43931SOL     OW33566   7.420  14.729   9.562
43931SOL    HW133567   7.344  14.734   9.620
43931SOL    HW233568   7.437  14.635   9.553
43932SOL     OW33569   3.464  11.170   7.860
43932SOL    HW133570   3.399  11.100   7.860
43932SOL    HW233571   3.484  11.185   7.952
43933SOL     OW33572  13.399  11.041  12.434
43933SOL    HW133573  13.354  11.070  12.514
43933SOL    HW233574  13.381  11.109  12.370
43934SOL     OW33575   3.351  12.075   7.651
43934SOL    HW133576   3.261  12.062   7.680
43934SOL    HW233577   3.394  11.992   7.672
43935SOL     OW33578  13.713   0.430   3.373
43935SOL    HW133579  13.769   0.401   3.445
43935SOL    HW233580  13.774   0.454   3.303
43936SOL     OW33581  12.541   4.207  10.053
43936SOL    HW133582  12.498   4.284  10.015
43936SOL    HW233583  12.533   4.220  10.148
43937SOL     OW33584  11.542   7.404   8.030
43937SOL    HW133585  11.524   7.454   8.110
43937SOL    HW233586  11.469   7.425   7.972
43938SOL     OW33587  13.822   3.171   9.201
43938SOL    HW133588  13.803   3.135   9.114
43938SOL    HW233589  13.843   3.262   9.185
43939SOL     OW33590   4.270   6.592  10.853
43939SOL    HW133591   4.212   6.666  10.835
43939SOL    HW233592   4.358   6.628  10.846
43940SOL     OW33593   0.024  11.589  14.068
43940SOL    HW133594   0.005  11.682  14.080
43940SOL    HW233595   0.071  11.564  14.148
43941SOL     OW33596  11.130  10.427   0.825
43941SOL    HW133597  11.059  10.386   0.874
43941SOL    HW233598  11.141  10.373   0.747
43942SOL     OW33599   5.232   4.123   8.579
43942SOL    HW133600   5.162   4.156   8.636
43942SOL    HW233601   5.216   4.166   8.495
43943SOL     OW33602   6.688  12.121   8.101
43943SOL    HW133603   6.611  12.178   8.103
43943SOL    HW233604   6.752  12.169   8.050
43944SOL     OW33605   3.383   2.692   9.655
43944SOL    HW133606   3.333   2.629   9.604
43944SOL    HW233607   3.328   2.770   9.657
43945SOL     OW33608  10.530   6.278   6.747
43945SOL    HW133609  10.614   6.321   6.728
43945SOL    HW233610  10.467   6.350   6.751
43946SOL     OW33611  10.450   6.434  12.467
43946SOL    HW133612  10.402   6.381  12.531
43946SOL    HW233613  10.392   6.508  12.450
43947SOL     OW33614   4.799   1.560   3.969
43947SOL    HW133615   4.727   1.622   3.962
43947SOL    HW233616   4.806   1.541   4.063
43948SOL     OW33617   0.666   7.361   9.445
43948SOL    HW133618   0.674   7.267   9.426
43948SOL    HW233619   0.594   7.390   9.389
43949SOL     OW33620   1.839   6.816  12.019
43949SOL    HW133621   1.854   6.832  11.926
43949SOL    HW233622   1.915   6.855  12.063
43950SOL     OW33623   9.192   9.707  10.535
43950SOL    HW133624   9.223   9.783  10.486
43950SOL    HW233625   9.183   9.738  10.625
43951SOL     OW33626   8.477   5.302   8.002
43951SOL    HW133627   8.386   5.311   7.975
43951SOL    HW233628   8.482   5.351   8.084
43952SOL     OW33629  11.238   8.720   7.998
43952SOL    HW133630  11.165   8.740   7.939
43952SOL    HW233631  11.244   8.625   7.997
43953SOL     OW33632   9.024  11.355   7.113
43953SOL    HW133633   9.000  11.432   7.165
43953SOL    HW233634   8.943  11.329   7.069
43954SOL     OW33635   7.704   2.437  12.892
43954SOL    HW133636   7.623   2.446  12.841
43954SOL    HW233637   7.753   2.368  12.847
43955SOL     OW33638   8.277   0.300   6.439
43955SOL    HW133639   8.193   0.256   6.428
43955SOL    HW233640   8.282   0.360   6.365
43956SOL     OW33641   2.986   6.813  12.166
43956SOL    HW133642   2.948   6.814  12.078
43956SOL    HW233643   2.918   6.775  12.221
43957SOL     OW33644   6.449  14.582  12.855
43957SOL    HW133645   6.481  14.637  12.926
43957SOL    HW233646   6.379  14.530  12.895
43958SOL     OW33647   0.818   4.484   6.689
43958SOL    HW133648   0.775   4.444   6.614
43958SOL    HW233649   0.758   4.468   6.762
43959SOL     OW33650   4.225   0.996   5.895
43959SOL    HW133651   4.159   0.938   5.933
43959SOL    HW233652   4.174   1.062   5.848
43960SOL     OW33653   3.031   9.418   9.002
43960SOL    HW133654   2.943   9.399   9.034
43960SOL    HW233655   3.031   9.513   8.987
43961SOL     OW33656   8.511  12.257  12.080
43961SOL    HW133657   8.474  12.204  12.151
43961SOL    HW233658   8.574  12.199  12.038
43962SOL     OW33659   1.066  13.246   3.581
43962SOL    HW133660   1.134  13.304   3.548
43962SOL    HW233661   0.986  13.298   3.579
43963SOL     OW33662   2.964  11.255  10.941
43963SOL    HW133663   2.873  11.251  10.911
43963SOL    HW233664   3.015  11.262  10.861
43964SOL     OW33665   0.696   5.780   9.390
43964SOL    HW133666   0.632   5.709   9.391
43964SOL    HW233667   0.718   5.794   9.482
43965SOL     OW33668   7.202  10.580   5.576
43965SOL    HW133669   7.221  10.632   5.498
43965SOL    HW233670   7.287  10.558   5.612
43966SOL     OW33671  12.980   4.374   0.623
43966SOL    HW133672  13.028   4.376   0.541
43966SOL    HW233673  12.970   4.466   0.648
43967SOL     OW33674   7.081   4.279   5.524
43967SOL    HW133675   7.022   4.354   5.520
43967SOL    HW233676   7.037   4.210   5.476
43968SOL     OW33677  12.913   4.816  11.080
43968SOL    HW133678  12.959   4.736  11.053
43968SOL    HW233679  12.867   4.792  11.160
43969SOL     OW33680   7.384  11.109   4.728
43969SOL    HW133681   7.478  11.095   4.714
43969SOL    HW233682   7.345  11.095   4.642
43970SOL     OW33683   4.832  13.457   5.975
43970SOL    HW133684   4.870  13.541   6.000
43970SOL    HW233685   4.739  13.475   5.965
43971SOL     OW33686  13.781  11.939   0.380
43971SOL    HW133687  13.783  11.857   0.332
43971SOL    HW233688  13.812  11.916   0.468
43972SOL     OW33689   8.830  13.877  14.581
43972SOL    HW133690   8.837  13.837  14.668
43972SOL    HW233691   8.825  13.971  14.598
43973SOL     OW33692   2.780   1.641   7.818
43973SOL    HW133693   2.797   1.678   7.905
43973SOL    HW233694   2.692   1.603   7.825
43974SOL     OW33695   0.374   5.500   5.024
43974SOL    HW133696   0.459   5.532   4.992
43974SOL    HW233697   0.360   5.418   4.976
43975SOL     OW33698   5.657  13.112   0.642
43975SOL    HW133699   5.752  13.098   0.638
43975SOL    HW233700   5.640  13.127   0.735
43976SOL     OW33701   5.324   8.838   1.693
43976SOL    HW133702   5.241   8.879   1.719
43976SOL    HW233703   5.390   8.882   1.745
43977SOL     OW33704  14.201   6.650   3.609
43977SOL    HW133705  14.139   6.681   3.543
43977SOL    HW233706  14.249   6.729   3.636
43978SOL     OW33707   3.129   3.804  11.435
43978SOL    HW133708   3.034   3.811  11.432
43978SOL    HW233709   3.146   3.734  11.499
43979SOL     OW33710   6.096   2.879   6.095
43979SOL    HW133711   6.105   2.815   6.165
43979SOL    HW233712   6.023   2.846   6.041
43980SOL     OW33713  11.768  12.960  10.554
43980SOL    HW133714  11.689  12.979  10.503
43980SOL    HW233715  11.812  12.890  10.506
43981SOL     OW33716   5.183  12.765   4.139
43981SOL    HW133717   5.222  12.852   4.146
43981SOL    HW233718   5.220  12.716   4.212
43982SOL     OW33719   2.222   8.724   6.138
43982SOL    HW133720   2.203   8.673   6.217
43982SOL    HW233721   2.314   8.705   6.120
43983SOL     OW33722  14.460  10.564   9.170
43983SOL    HW133723  14.465  10.573   9.265
43983SOL    HW233724  14.416  10.643   9.140
43984SOL     OW33725   4.743  11.492  14.056
43984SOL    HW133726   4.729  11.399  14.074
43984SOL    HW233727   4.659  11.522  14.021
43985SOL     OW33728   7.685  11.341   1.603
43985SOL    HW133729   7.607  11.354   1.549
43985SOL    HW233730   7.741  11.284   1.551
43986SOL     OW33731  14.452   0.202   0.095
43986SOL    HW133732  14.544   0.227   0.086
43986SOL    HW233733  14.428   0.170   0.008
43987SOL     OW33734   6.718   0.188  10.071
43987SOL    HW133735   6.644   0.244  10.096
43987SOL    HW233736   6.789   0.215  10.130
43988SOL     OW33737   9.680   6.508   9.240
43988SOL    HW133738   9.701   6.590   9.284
43988SOL    HW233739   9.763   6.462   9.234
43989SOL     OW33740  11.660  12.587   0.841
43989SOL    HW133741  11.711  12.566   0.919
43989SOL    HW233742  11.721  12.634   0.784
43990SOL     OW33743  10.315  13.667  13.948
43990SOL    HW133744  10.281  13.695  14.032
43990SOL    HW233745  10.341  13.576  13.962
43991SOL     OW33746   7.931  13.397   4.097
43991SOL    HW133747   7.928  13.473   4.038
43991SOL    HW233748   7.848  13.352   4.081
43992SOL     OW33749  11.753   0.379  11.564
43992SOL    HW133750  11.768   0.286  11.550
43992SOL    HW233751  11.761   0.418  11.477
43993SOL     OW33752   1.945  10.044  10.173
43993SOL    HW133753   1.853  10.036  10.196
43993SOL    HW233754   1.992  10.011  10.250
43994SOL     OW33755  13.620  14.623   4.809
43994SOL    HW133756  13.547  14.571   4.844
43994SOL    HW233757  13.578  14.700   4.771
43995SOL     OW33758   3.435   7.000  13.833
43995SOL    HW133759   3.373   6.930  13.855
43995SOL    HW233760   3.488   6.965  13.762
43996SOL     OW33761   0.946   4.234   1.008
43996SOL    HW133762   0.916   4.244   0.918
43996SOL    HW233763   0.914   4.312   1.053
43997SOL     OW33764  12.036   3.935   3.712
43997SOL    HW133765  12.039   3.947   3.807
43997SOL    HW233766  12.095   3.861   3.695
43998SOL     OW33767   1.273   0.828   2.839
43998SOL    HW133768   1.261   0.922   2.827
43998SOL    HW233769   1.367   0.814   2.828
43999SOL     OW33770   5.528   7.719  13.373
43999SOL    HW133771   5.492   7.731  13.285
43999SOL    HW233772   5.554   7.627  13.376
44000SOL     OW33773  10.062  11.230  14.636
44000SOL    HW133774  10.109  11.281  14.570
44000SOL    HW233775  10.010  11.294  14.684
44001SOL     OW33776   2.949   0.837  11.771
44001SOL    HW133777   2.948   0.749  11.733
44001SOL    HW233778   2.970   0.895  11.698
44002SOL     OW33779   6.140   7.849   8.570
44002SOL    HW133780   6.086   7.806   8.636
44002SOL    HW233781   6.208   7.894   8.621
44003SOL     OW33782   1.771   1.576  10.686
44003SOL    HW133783   1.821   1.576  10.604
44003SOL    HW233784   1.835   1.599  10.753
44004SOL     OW33785   0.686   0.098  11.692
44004SOL    HW133786   0.622   0.073  11.759
44004SOL    HW233787   0.670   0.038  11.620
44005SOL     OW33788   3.487  12.227   2.810
44005SOL    HW133789   3.420  12.269   2.864
44005SOL    HW233790   3.455  12.137   2.799
44006SOL     OW33791   6.975  14.619   3.544
44006SOL    HW133792   6.926  14.537   3.543
44006SOL    HW233793   6.999  14.634   3.452
44007SOL     OW33794   1.916   5.748   3.045
44007SOL    HW133795   1.945   5.752   3.136
44007SOL    HW233796   1.985   5.791   2.995
44008SOL     OW33797   7.146  14.268   0.582
44008SOL    HW133798   7.105  14.344   0.624
44008SOL    HW233799   7.239  14.289   0.579
44009SOL     OW33800   7.381   1.331   6.074
44009SOL    HW133801   7.381   1.426   6.065
44009SOL    HW233802   7.401   1.298   5.986
44010SOL     OW33803  12.458   5.464  11.192
44010SOL    HW133804  12.422   5.400  11.253
44010SOL    HW233805  12.458   5.420  11.107
44011SOL     OW33806  10.192   4.789   0.105
44011SOL    HW133807  10.204   4.738   0.185
44011SOL    HW233808  10.102   4.820   0.109
44012SOL     OW33809  12.227  14.500  13.080
44012SOL    HW133810  12.143  14.454  13.086
44012SOL    HW233811  12.267  14.466  12.999
44013SOL     OW33812   0.549   4.572   0.405
44013SOL    HW133813   0.471   4.625   0.422
44013SOL    HW233814   0.620   4.635   0.398
44014SOL     OW33815   8.417  10.060   1.054
44014SOL    HW133816   8.377   9.979   1.085
44014SOL    HW233817   8.353  10.096   0.992
44015SOL     OW33818   7.192   6.603   3.398
44015SOL    HW133819   7.119   6.664   3.407
44015SOL    HW233820   7.269   6.653   3.426
44016SOL     OW33821  14.321   0.702  11.172
44016SOL    HW133822  14.394   0.667  11.121
44016SOL    HW233823  14.362   0.739  11.251
44017SOL     OW33824  14.411   9.950   6.500
44017SOL    HW133825  14.434  10.008   6.427
44017SOL    HW233826  14.492   9.939   6.548
44018SOL     OW33827  13.488   1.625  10.838
44018SOL    HW133828  13.438   1.548  10.867
44018SOL    HW233829  13.536   1.594  10.761
44019SOL     OW33830   7.643   0.220  12.824
44019SOL    HW133831   7.725   0.236  12.871
44019SOL    HW233832   7.671   0.202  12.734
44020SOL     OW33833   4.427   4.400   9.848
44020SOL    HW133834   4.342   4.359   9.830
44020SOL    HW233835   4.490   4.345   9.801
44021SOL     OW33836   0.245  10.216   0.747
44021SOL    HW133837   0.225  10.262   0.666
44021SOL    HW233838   0.209  10.128   0.735
44022SOL     OW33839   4.354   7.619   6.949
44022SOL    HW133840   4.287   7.586   7.008
44022SOL    HW233841   4.398   7.688   6.999
44023SOL     OW33842   4.655   2.311   3.632
44023SOL    HW133843   4.685   2.341   3.718
44023SOL    HW233844   4.563   2.337   3.629
44024SOL     OW33845  11.257   1.462   9.105
44024SOL    HW133846  11.286   1.553   9.119
44024SOL    HW233847  11.213   1.464   9.020
44025SOL     OW33848  13.140   0.163  14.773
44025SOL    HW133849  13.081   0.089  14.765
44025SOL    HW233850  13.222   0.125  14.804
44026SOL     OW33851   4.269  14.713   5.521
44026SOL    HW133852   4.328  14.772   5.568
44026SOL    HW233853   4.181  14.744   5.543
44027SOL     OW33854   8.138  12.629   7.613
44027SOL    HW133855   8.133  12.565   7.541
44027SOL    HW233856   8.181  12.705   7.574
44028SOL     OW33857   0.251   2.552  11.682
44028SOL    HW133858   0.223   2.467  11.717
44028SOL    HW233859   0.171   2.589  11.644
44029SOL     OW33860   2.504   0.442  10.662
44029SOL    HW133861   2.544   0.528  10.677
44029SOL    HW233862   2.547   0.384  10.725
44030SOL     OW33863   7.282  13.707  11.250
44030SOL    HW133864   7.360  13.670  11.292
44030SOL    HW233865   7.265  13.788  11.299
44031SOL     OW33866   7.539   6.393   6.431
44031SOL    HW133867   7.520   6.312   6.478
44031SOL    HW233868   7.631   6.411   6.452
44032SOL     OW33869   0.054   6.475   5.141
44032SOL    HW133870  14.862   6.415   5.131
44032SOL    HW233871   0.018   6.562   5.122
44033SOL     OW33872   2.907  11.189  13.995
44033SOL    HW133873   2.882  11.168  14.086
44033SOL    HW233874   2.965  11.117  13.969
44034SOL     OW33875   0.800   6.608   1.403
44034SOL    HW133876   0.849   6.542   1.452
44034SOL    HW233877   0.732   6.558   1.356
44035SOL     OW33878   8.878  12.170  12.438
44035SOL    HW133879   8.793  12.148  12.476
44035SOL    HW233880   8.890  12.263  12.458
44036SOL     OW33881   8.624   0.587   6.764
44036SOL    HW133882   8.536   0.555   6.743
44036SOL    HW233883   8.637   0.662   6.705
44037SOL     OW33884   2.748   1.179   1.677
44037SOL    HW133885   2.734   1.236   1.752
44037SOL    HW233886   2.788   1.236   1.611
44038SOL     OW33887   9.086   8.986   5.376
44038SOL    HW133888   9.093   9.017   5.285
44038SOL    HW233889   9.169   9.010   5.416
44039SOL     OW33890   8.070  11.209  12.824
44039SOL    HW133891   7.998  11.167  12.776
44039SOL    HW233892   8.027  11.253  12.897
44040SOL     OW33893   6.191   9.711   0.100
44040SOL    HW133894   6.203   9.691   0.193
44040SOL    HW233895   6.265   9.669   0.057
44041SOL     OW33896   7.661  13.914  12.287
44041SOL    HW133897   7.708  13.969  12.225
44041SOL    HW233898   7.582  13.887  12.240
44042SOL     OW33899   6.098   2.077   5.448
44042SOL    HW133900   6.044   2.155   5.460
44042SOL    HW233901   6.153   2.074   5.526
44043SOL     OW33902   8.967   5.822   7.804
44043SOL    HW133903   9.044   5.799   7.856
44043SOL    HW233904   8.949   5.913   7.827
44044SOL     OW33905   3.361   8.724  12.588
44044SOL    HW133906   3.278   8.723  12.542
44044SOL    HW233907   3.426   8.744  12.521
44045SOL     OW33908   2.280   8.350   8.530
44045SOL    HW133909   2.238   8.433   8.507
44045SOL    HW233910   2.263   8.293   8.456
44046SOL     OW33911   2.601   6.117   6.822
44046SOL    HW133912   2.614   6.024   6.842
44046SOL    HW233913   2.666   6.136   6.754
44047SOL     OW33914   2.707  10.016  14.393
44047SOL    HW133915   2.659   9.962  14.456
44047SOL    HW233916   2.757  10.077  14.448
44048SOL     OW33917  12.855   2.805   1.209
44048SOL    HW133918  12.944   2.797   1.244
44048SOL    HW233919  12.859   2.767   1.122
44049SOL     OW33920   5.231   7.058  14.362
44049SOL    HW133921   5.154   7.015  14.324
44049SOL    HW233922   5.234   7.026  14.452
44050SOL     OW33923   7.305  10.928   2.845
44050SOL    HW133924   7.323  10.925   2.939
44050SOL    HW233925   7.348  11.008   2.816
44051SOL     OW33926   3.741   1.469   6.218
44051SOL    HW133927   3.817   1.444   6.167
44051SOL    HW233928   3.668   1.467   6.155
44052SOL     OW33929  13.238  11.614  14.172
44052SOL    HW133930  13.214  11.692  14.221
44052SOL    HW233931  13.289  11.647  14.098
44053SOL     OW33932   4.303   6.057   8.013
44053SOL    HW133933   4.341   5.972   7.992
44053SOL    HW233934   4.281   6.095   7.928
44054SOL     OW33935  10.805   3.863   0.056
44054SOL    HW133936  10.882   3.806   0.051
44054SOL    HW233937  10.763   3.839   0.138
44055SOL     OW33938   0.126   4.245  12.687
44055SOL    HW133939   0.205   4.285  12.650
44055SOL    HW233940   0.133   4.259  12.781
44056SOL     OW33941   5.548   1.318   2.545
44056SOL    HW133942   5.589   1.271   2.471
44056SOL    HW233943   5.520   1.401   2.508
44057SOL     OW33944   6.068  14.781   9.339
44057SOL    HW133945   5.982  14.814   9.313
44057SOL    HW233946   6.128  14.817   9.274
44058SOL     OW33947  12.216   1.298  10.547
44058SOL    HW133948  12.237   1.347  10.627
44058SOL    HW233949  12.212   1.207  10.576
44059SOL     OW33950   9.767   2.394   8.341
44059SOL    HW133951   9.762   2.309   8.384
44059SOL    HW233952   9.805   2.375   8.255
44060SOL     OW33953  11.114   9.893  11.984
44060SOL    HW133954  11.079   9.975  12.019
44060SOL    HW233955  11.098   9.829  12.053
44061SOL     OW33956   6.703  14.437  10.678
44061SOL    HW133957   6.731  14.498  10.746
44061SOL    HW233958   6.732  14.477  10.596
44062SOL     OW33959   3.757  11.485   9.353
44062SOL    HW133960   3.724  11.522   9.434
44062SOL    HW233961   3.742  11.553   9.287
44063SOL     OW33962   8.829  10.319  12.612
44063SOL    HW133963   8.856  10.247  12.670
44063SOL    HW233964   8.760  10.281  12.558
44064SOL     OW33965   1.011  12.725  11.714
44064SOL    HW133966   0.978  12.809  11.683
44064SOL    HW233967   1.077  12.700  11.649
44065SOL     OW33968  13.834  11.425  11.985
44065SOL    HW133969  13.910  11.427  12.044
44065SOL    HW233970  13.850  11.496  11.923
44066SOL     OW33971  13.436   8.317   9.775
44066SOL    HW133972  13.359   8.260   9.781
44066SOL    HW233973  13.496   8.284   9.842
44067SOL     OW33974   1.421  14.649  10.701
44067SOL    HW133975   1.515  14.646  10.681
44067SOL    HW233976   1.396  14.557  10.711
44068SOL     OW33977  14.853   1.831   6.491
44068SOL    HW133978  14.764   1.805   6.514
44068SOL    HW233979   0.018   1.748   6.480
44069SOL     OW33980   3.073  14.225   4.127
44069SOL    HW133981   3.121  14.307   4.114
44069SOL    HW233982   3.082  14.207   4.221
44070SOL     OW33983   4.024   4.082   5.467
44070SOL    HW133984   3.960   4.017   5.498
44070SOL    HW233985   3.979   4.127   5.395
44071SOL     OW33986   3.930   6.865   0.148
44071SOL    HW133987   3.914   6.831   0.236
44071SOL    HW233988   3.849   6.847   0.101
44072SOL     OW33989   1.587   2.199  14.176
44072SOL    HW133990   1.643   2.213  14.251
44072SOL    HW233991   1.500   2.227  14.205
44073SOL     OW33992   1.823  14.697   4.376
44073SOL    HW133993   1.788  14.740   4.454
44073SOL    HW233994   1.756  14.711   4.309
44074SOL     OW33995  14.142   1.602   4.118
44074SOL    HW133996  14.186   1.669   4.065
44074SOL    HW233997  14.078   1.651   4.169
44075SOL     OW33998  13.417  10.288   1.431
44075SOL    HW133999  13.438  10.227   1.361
44075SOL    HW234000  13.500  10.301   1.477
44076SOL     OW34001   9.245   9.944   8.688
44076SOL    HW134002   9.276   9.874   8.746
44076SOL    HW234003   9.213  10.011   8.748
44077SOL     OW34004   9.723   3.870   5.371
44077SOL    HW134005   9.749   3.828   5.289
44077SOL    HW234006   9.804   3.911   5.403
44078SOL     OW34007   2.788   7.671  14.105
44078SOL    HW134008   2.876   7.682  14.142
44078SOL    HW234009   2.804   7.656  14.012
44079SOL     OW34010   1.405  13.300  10.685
44079SOL    HW134011   1.412  13.218  10.637
44079SOL    HW234012   1.429  13.367  10.621
44080SOL     OW34013  13.064   7.605   2.330
44080SOL    HW134014  13.040   7.569   2.245
44080SOL    HW234015  13.130   7.672   2.311
44081SOL     OW34016   8.794  10.356   6.078
44081SOL    HW134017   8.862  10.304   6.036
44081SOL    HW234018   8.840  10.407   6.145
44082SOL     OW34019  11.978  12.455  10.144
44082SOL    HW134020  11.941  12.382  10.095
44082SOL    HW234021  12.056  12.419  10.186
44083SOL     OW34022   9.150  11.249   7.365
44083SOL    HW134023   9.149  11.345   7.374
44083SOL    HW234024   9.090  11.232   7.292
44084SOL     OW34025  12.183   6.150   5.545
44084SOL    HW134026  12.173   6.206   5.468
44084SOL    HW234027  12.277   6.151   5.564
44085SOL     OW34028  14.750   5.831   3.011
44085SOL    HW134029  14.799   5.777   3.073
44085SOL    HW234030  14.703   5.768   2.956
44086SOL     OW34031  13.039  12.336   5.654
44086SOL    HW134032  13.074  12.412   5.607
44086SOL    HW234033  13.080  12.339   5.740
44087SOL     OW34034   9.420  11.684   9.218
44087SOL    HW134035   9.393  11.669   9.309
44087SOL    HW234036   9.478  11.760   9.222
44088SOL     OW34037   5.644   9.570   5.147
44088SOL    HW134038   5.560   9.524   5.147
44088SOL    HW234039   5.662   9.587   5.055
44089SOL     OW34040   2.777   4.895   0.534
44089SOL    HW134041   2.782   4.880   0.439
44089SOL    HW234042   2.813   4.982   0.547
44090SOL     OW34043   1.672  10.119   6.398
44090SOL    HW134044   1.655  10.198   6.347
44090SOL    HW234045   1.661  10.047   6.335
44091SOL     OW34046   2.597   9.380   6.708
44091SOL    HW134047   2.529   9.341   6.763
44091SOL    HW234048   2.565   9.368   6.619
44092SOL     OW34049   7.643  13.820   3.089
44092SOL    HW134050   7.664  13.791   3.001
44092SOL    HW234051   7.585  13.753   3.124
44093SOL     OW34052  13.975   0.902  12.760
44093SOL    HW134053  13.908   0.888  12.826
44093SOL    HW234054  14.054   0.926  12.810
44094SOL     OW34055   0.521   6.051   0.972
44094SOL    HW134056   0.468   6.126   0.998
44094SOL    HW234057   0.515   6.051   0.876
44095SOL     OW34058   0.492  11.487   2.541
44095SOL    HW134059   0.472  11.580   2.540
44095SOL    HW234060   0.411  11.444   2.513
44096SOL     OW34061  13.842   7.741   6.275
44096SOL    HW134062  13.901   7.687   6.327
44096SOL    HW234063  13.892   7.821   6.259
44097SOL     OW34064   0.065  13.263  11.601
44097SOL    HW134065   0.033  13.236  11.686
44097SOL    HW234066   0.090  13.182  11.557
44098SOL     OW34067   6.830  12.594  12.763
44098SOL    HW134068   6.767  12.575  12.833
44098SOL    HW234069   6.843  12.688  12.768
44099SOL     OW34070   2.972   1.617  14.207
44099SOL    HW134071   3.032   1.688  14.187
44099SOL    HW234072   3.025   1.537  14.200
44100SOL     OW34073  12.912   8.426   7.571
44100SOL    HW134074  12.913   8.366   7.497
44100SOL    HW234075  12.949   8.507   7.537
44101SOL     OW34076   3.184   2.528   0.055
44101SOL    HW134077   3.224   2.447   0.087
44101SOL    HW234078   3.243   2.597   0.084
44102SOL     OW34079   6.969  12.524   4.730
44102SOL    HW134080   7.006  12.565   4.652
44102SOL    HW234081   6.966  12.430   4.709
44103SOL     OW34082   0.549   7.484   8.221
44103SOL    HW134083   0.605   7.408   8.234
44103SOL    HW234084   0.572   7.543   8.292
44104SOL     OW34085   4.809  10.357   2.065
44104SOL    HW134086   4.818  10.448   2.091
44104SOL    HW234087   4.758  10.316   2.135
44105SOL     OW34088  14.135   2.375  12.885
44105SOL    HW134089  14.193   2.444  12.918
44105SOL    HW234090  14.193   2.317  12.835
44106SOL     OW34091   5.293  10.140   4.106
44106SOL    HW134092   5.289  10.057   4.154
44106SOL    HW234093   5.334  10.201   4.166
44107SOL     OW34094  13.017  11.900  10.179
44107SOL    HW134095  12.978  11.919  10.264
44107SOL    HW234096  12.951  11.848  10.134
44108SOL     OW34097   6.107  11.018  11.426
44108SOL    HW134098   6.180  11.014  11.487
44108SOL    HW234099   6.042  10.958  11.462
44109SOL     OW34100   2.328   5.725  10.309
44109SOL    HW134101   2.247   5.675  10.305
44109SOL    HW234102   2.349   5.744  10.217
44110SOL     OW34103  10.186  13.321  14.191
44110SOL    HW134104  10.253  13.254  14.203
44110SOL    HW234105  10.187  13.371  14.273
44111SOL     OW34106   5.954   6.111   0.537
44111SOL    HW134107   6.041   6.141   0.511
44111SOL    HW234108   5.954   6.017   0.519
44112SOL     OW34109  12.152  11.183  14.301
44112SOL    HW134110  12.072  11.227  14.274
44112SOL    HW234111  12.139  11.164  14.394
44113SOL     OW34112   3.020   6.518   7.861
44113SOL    HW134113   2.931   6.533   7.892
44113SOL    HW234114   3.009   6.468   7.780
44114SOL     OW34115   9.101   0.779   5.928
44114SOL    HW134116   9.122   0.850   5.867
44114SOL    HW234117   9.085   0.823   6.012
44115SOL     OW34118   7.464  10.002   0.418
44115SOL    HW134119   7.497  10.088   0.393
44115SOL    HW234120   7.369  10.014   0.427
44116SOL     OW34121   0.353   1.074   7.784
44116SOL    HW134122   0.333   1.035   7.869
44116SOL    HW234123   0.285   1.041   7.726
44117SOL     OW34124   0.614   5.222  12.725
44117SOL    HW134125   0.630   5.153  12.660
44117SOL    HW234126   0.701   5.241  12.762
44118SOL     OW34127   6.061   1.008   8.277
44118SOL    HW134128   6.089   0.928   8.322
44118SOL    HW234129   6.067   1.076   8.344
44119SOL     OW34130  13.715  14.460   9.976
44119SOL    HW134131  13.661  14.381   9.970
44119SOL    HW234132  13.799  14.430  10.009
44120SOL     OW34133   3.176   7.647   9.568
44120SOL    HW134134   3.231   7.666   9.644
44120SOL    HW234135   3.237   7.650   9.494
44121SOL     OW34136   4.367   7.872   0.385
44121SOL    HW134137   4.430   7.853   0.455
44121SOL    HW234138   4.403   7.828   0.308
44122SOL     OW34139   0.675  12.862  11.791
44122SOL    HW134140   0.705  12.782  11.836
44122SOL    HW234141   0.632  12.913  11.859
44123SOL     OW34142  12.289   0.097   6.116
44123SOL    HW134143  12.219   0.102   6.050
44123SOL    HW234144  12.368   0.077   6.065
44124SOL     OW34145   7.660   2.116   8.238
44124SOL    HW134146   7.620   2.065   8.167
44124SOL    HW234147   7.740   2.152   8.200
44125SOL     OW34148   2.781  11.949   8.393
44125SOL    HW134149   2.821  12.031   8.423
44125SOL    HW234150   2.786  11.953   8.298
44126SOL     OW34151   7.015   0.565   3.759
44126SOL    HW134152   6.990   0.542   3.848
44126SOL    HW234153   7.045   0.655   3.765
44127SOL     OW34154  13.776  14.360   3.234
44127SOL    HW134155  13.790  14.319   3.148
44127SOL    HW234156  13.856  14.341   3.283
44128SOL     OW34157   7.495  13.682  14.073
44128SOL    HW134158   7.406  13.666  14.104
44128SOL    HW234159   7.493  13.770  14.037
44129SOL     OW34160   6.910  12.021   3.756
44129SOL    HW134161   6.961  12.070   3.820
44129SOL    HW234162   6.947  11.932   3.759
44130SOL     OW34163   5.809  13.631   4.195
44130SOL    HW134164   5.855  13.600   4.273
44130SOL    HW234165   5.759  13.555   4.164
44131SOL     OW34166   0.655  10.734   9.567
44131SOL    HW134167   0.711  10.666   9.605
44131SOL    HW234168   0.653  10.803   9.633
44132SOL     OW34169  11.688   9.576   8.806
44132SOL    HW134170  11.599   9.545   8.790
44132SOL    HW234171  11.735   9.555   8.725
44133SOL     OW34172   2.599  11.487  10.967
44133SOL    HW134173   2.518  11.506  10.919
44133SOL    HW234174   2.573  11.489  11.060
44134SOL     OW34175   7.406   6.462  10.880
44134SOL    HW134176   7.420   6.377  10.838
44134SOL    HW234177   7.412   6.445  10.974
44135SOL     OW34178   3.965   5.304  10.104
44135SOL    HW134179   4.028   5.360  10.150
44135SOL    HW234180   4.014   5.225  10.082
44136SOL     OW34181  11.149   7.580   2.496
44136SOL    HW134182  11.206   7.657   2.488
44136SOL    HW234183  11.063   7.611   2.469
44137SOL     OW34184   5.970   4.348   7.025
44137SOL    HW134185   5.896   4.323   7.081
44137SOL    HW234186   5.935   4.342   6.936
44138SOL     OW34187  12.301   7.091   7.819
44138SOL    HW134188  12.274   7.116   7.731
44138SOL    HW234189  12.230   7.035   7.851
44139SOL     OW34190   6.628   2.901   7.148
44139SOL    HW134191   6.615   2.919   7.055
44139SOL    HW234192   6.711   2.853   7.152
44140SOL     OW34193  10.239   1.786  13.865
44140SOL    HW134194  10.185   1.802  13.943
44140SOL    HW234195  10.328   1.774  13.900
44141SOL     OW34196   5.754   8.837   2.838
44141SOL    HW134197   5.833   8.878   2.874
44141SOL    HW234198   5.705   8.910   2.800
44142SOL     OW34199   9.128  13.583  13.526
44142SOL    HW134200   9.151  13.503  13.574
44142SOL    HW234201   9.198  13.593  13.462
44143SOL     OW34202   5.472   2.294   6.751
44143SOL    HW134203   5.477   2.390   6.750
44143SOL    HW234204   5.379   2.275   6.745
44144SOL     OW34205  12.215  13.795   6.970
44144SOL    HW134206  12.284  13.858   6.952
44144SOL    HW234207  12.258  13.725   7.019
44145SOL     OW34208  14.384   8.574  12.334
44145SOL    HW134209  14.410   8.667  12.332
44145SOL    HW234210  14.459   8.528  12.299
44146SOL     OW34211   3.290   1.910   7.631
44146SOL    HW134212   3.378   1.949   7.638
44146SOL    HW234213   3.305   1.816   7.643
44147SOL     OW34214   2.774   3.395   4.993
44147SOL    HW134215   2.806   3.416   4.905
44147SOL    HW234216   2.760   3.480   5.034
44148SOL     OW34217   6.037  13.488   9.348
44148SOL    HW134218   6.001  13.576   9.336
44148SOL    HW234219   6.129  13.497   9.325
44149SOL     OW34220  11.305   9.333  11.916
44149SOL    HW134221  11.322   9.244  11.886
44149SOL    HW234222  11.346   9.389  11.850
44150SOL     OW34223   3.614   7.672  13.636
44150SOL    HW134224   3.530   7.627  13.639
44150SOL    HW234225   3.648   7.653  13.548
44151SOL     OW34226  12.367   4.289  10.628
44151SOL    HW134227  12.272   4.278  10.618
44151SOL    HW234228  12.378   4.317  10.719
44152SOL     OW34229   2.791   6.389  13.426
44152SOL    HW134230   2.851   6.444  13.475
44152SOL    HW234231   2.724   6.449  13.394
44153SOL     OW34232   9.384   8.203   3.351
44153SOL    HW134233   9.390   8.108   3.337
44153SOL    HW234234   9.320   8.213   3.422
44154SOL     OW34235  13.665  13.357  10.280
44154SOL    HW134236  13.714  13.330  10.358
44154SOL    HW234237  13.727  13.344  10.207
44155SOL     OW34238  10.247   6.422  14.087
44155SOL    HW134239  10.326   6.386  14.125
44155SOL    HW234240  10.275   6.502  14.042
44156SOL     OW34241   2.964  11.742   3.202
44156SOL    HW134242   3.006  11.791   3.273
44156SOL    HW234243   2.871  11.740   3.226
44157SOL     OW34244  10.971  13.708  13.545
44157SOL    HW134245  10.952  13.764  13.469
44157SOL    HW234246  11.054  13.665  13.523
44158SOL     OW34247   0.415  14.193  11.183
44158SOL    HW134248   0.488  14.246  11.150
44158SOL    HW234249   0.452  14.105  11.193
44159SOL     OW34250  10.268  13.466   6.635
44159SOL    HW134251  10.259  13.384   6.685
44159SOL    HW234252  10.361  13.470   6.613
44160SOL     OW34253   4.074  14.358  13.375
44160SOL    HW134254   4.147  14.358  13.437
44160SOL    HW234255   4.115  14.353  13.289
44161SOL     OW34256   9.471  13.751   9.856
44161SOL    HW134257   9.414  13.761   9.780
44161SOL    HW234258   9.507  13.838   9.870
44162SOL     OW34259   3.062   6.265  12.349
44162SOL    HW134260   3.073   6.211  12.427
44162SOL    HW234261   3.148   6.266  12.308
44163SOL     OW34262   6.797  11.869   4.587
44163SOL    HW134263   6.827  11.789   4.546
44163SOL    HW234264   6.877  11.919   4.605
44164SOL     OW34265   2.130   1.784   7.040
44164SOL    HW134266   2.127   1.690   7.026
44164SOL    HW234267   2.187   1.796   7.116
44165SOL     OW34268   4.788  10.120   6.885
44165SOL    HW134269   4.772  10.164   6.969
44165SOL    HW234270   4.874  10.153   6.858
44166SOL     OW34271   3.967   0.468   4.078
44166SOL    HW134272   3.874   0.484   4.091
44166SOL    HW234273   3.995   0.422   4.157
44167SOL     OW34274   2.115  14.157  10.847
44167SOL    HW134275   2.138  14.165  10.754
44167SOL    HW234276   2.182  14.208  10.892
44168SOL     OW34277  11.739   5.034  13.508
44168SOL    HW134278  11.787   5.069  13.583
44168SOL    HW234279  11.663   5.091  13.500
44169SOL     OW34280   4.913   4.723  12.694
44169SOL    HW134281   4.871   4.646  12.733
44169SOL    HW234282   4.915   4.788  12.764
44170SOL     OW34283   6.990   6.388  13.263
44170SOL    HW134284   7.009   6.395  13.170
44170SOL    HW234285   6.898   6.360  13.267
44171SOL     OW34286   7.805   4.121  14.134
44171SOL    HW134287   7.752   4.181  14.187
44171SOL    HW234288   7.750   4.044  14.122
44172SOL     OW34289   6.648   4.821  12.564
44172SOL    HW134290   6.565   4.794  12.526
44172SOL    HW234291   6.714   4.767  12.520
44173SOL     OW34292   3.869  10.760   8.549
44173SOL    HW134293   3.906  10.847   8.567
44173SOL    HW234294   3.908  10.704   8.617
44174SOL     OW34295  11.041   3.981   2.040
44174SOL    HW134296  10.970   3.949   2.094
44174SOL    HW234297  11.033   3.931   1.958
44175SOL     OW34298   0.071  13.592   8.344
44175SOL    HW134299   0.094  13.531   8.274
44175SOL    HW234300  14.870  13.558   8.379
44176SOL     OW34301   4.516   9.672  11.805
44176SOL    HW134302   4.510   9.650  11.898
44176SOL    HW234303   4.609   9.689  11.790
44177SOL     OW34304  12.469  13.609   1.355
44177SOL    HW134305  12.434  13.596   1.443
44177SOL    HW234306  12.515  13.528   1.334
44178SOL     OW34307   2.571  11.423   9.679
44178SOL    HW134308   2.551  11.469   9.597
44178SOL    HW234309   2.666  11.431   9.688
44179SOL     OW34310   2.249   5.791  13.691
44179SOL    HW134311   2.284   5.744  13.615
44179SOL    HW234312   2.208   5.724  13.745
44180SOL     OW34313  14.776   4.877   0.221
44180SOL    HW134314  14.682   4.877   0.241
44180SOL    HW234315  14.784   4.821   0.145
44181SOL     OW34316   0.191  13.905   1.065
44181SOL    HW134317   0.155  13.861   0.989
44181SOL    HW234318   0.286  13.906   1.050
44182SOL     OW34319   5.455   2.414   1.972
44182SOL    HW134320   5.400   2.341   1.944
44182SOL    HW234321   5.402   2.492   1.958
44183SOL     OW34322   5.847   2.281  12.881
44183SOL    HW134323   5.863   2.232  12.801
44183SOL    HW234324   5.785   2.349  12.856
44184SOL     OW34325   2.294   2.983   3.514
44184SOL    HW134326   2.242   3.003   3.436
44184SOL    HW234327   2.243   2.916   3.560
44185SOL     OW34328   7.623   5.526   4.758
44185SOL    HW134329   7.619   5.521   4.663
44185SOL    HW234330   7.673   5.606   4.777
44186SOL     OW34331   5.421   8.662  14.552
44186SOL    HW134332   5.371   8.688  14.475
44186SOL    HW234333   5.429   8.743  14.603
44187SOL     OW34334  14.652   1.020  13.280
44187SOL    HW134335  14.626   1.084  13.346
44187SOL    HW234336  14.736   1.053  13.248
44188SOL     OW34337   2.958   5.883  12.609
44188SOL    HW134338   3.020   5.884  12.537
44188SOL    HW234339   2.888   5.943  12.582
44189SOL     OW34340   5.059   1.697  12.190
44189SOL    HW134341   5.149   1.697  12.223
44189SOL    HW234342   5.058   1.765  12.123
44190SOL     OW34343   1.761   4.356   3.982
44190SOL    HW134344   1.667   4.354   3.967
44190SOL    HW234345   1.796   4.287   3.925
44191SOL     OW34346   9.338   5.002   2.160
44191SOL    HW134347   9.363   5.071   2.222
44191SOL    HW234348   9.324   5.049   2.077
44192SOL     OW34349   3.726   8.758   8.721
44192SOL    HW134350   3.764   8.730   8.638
44192SOL    HW234351   3.752   8.691   8.784
44193SOL     OW34352  10.916   6.288  11.844
44193SOL    HW134353  10.867   6.312  11.923
44193SOL    HW234354  10.977   6.361  11.832
44194SOL     OW34355  14.301   8.639  14.210
44194SOL    HW134356  14.211   8.614  14.190
44194SOL    HW234357  14.355   8.578  14.160
44195SOL     OW34358  13.488   6.656   2.790
44195SOL    HW134359  13.541   6.711   2.847
44195SOL    HW234360  13.481   6.572   2.836
44196SOL     OW34361   6.031  14.531   8.084
44196SOL    HW134362   5.968  14.541   8.013
44196SOL    HW234363   6.102  14.480   8.045
44197SOL     OW34364   8.346   8.499  12.793
44197SOL    HW134365   8.406   8.574  12.796
44197SOL    HW234366   8.333   8.482  12.699
44198SOL     OW34367   0.537  12.593   1.013
44198SOL    HW134368   0.485  12.636   0.946
44198SOL    HW234369   0.553  12.505   0.979
44199SOL     OW34370   0.537   8.024   3.592
44199SOL    HW134371   0.482   7.987   3.661
44199SOL    HW234372   0.586   7.949   3.558
44200SOL     OW34373   3.903   7.539   4.047
44200SOL    HW134374   3.853   7.618   4.070
44200SOL    HW234375   3.864   7.470   4.100
44201SOL     OW34376  10.398   8.977  14.361
44201SOL    HW134377  10.491   8.991  14.376
44201SOL    HW234378  10.359   9.065  14.368
44202SOL     OW34379   9.538   2.167  12.170
44202SOL    HW134380   9.483   2.179  12.248
44202SOL    HW234381   9.610   2.112  12.200
44203SOL     OW34382  11.406   9.228   7.579
44203SOL    HW134383  11.433   9.199   7.491
44203SOL    HW234384  11.475   9.196   7.637
44204SOL     OW34385   9.811  13.077   0.348
44204SOL    HW134386   9.847  13.037   0.428
44204SOL    HW234387   9.767  13.005   0.303
44205SOL     OW34388   0.302   1.800   6.602
44205SOL    HW134389   0.219   1.752   6.599
44205SOL    HW234390   0.297   1.850   6.683
44206SOL     OW34391   7.030   3.202   3.828
44206SOL    HW134392   7.087   3.264   3.874
44206SOL    HW234393   7.021   3.128   3.889
44207SOL     OW34394  14.573  14.696  10.256
44207SOL    HW134395  14.587  14.791  10.245
44207SOL    HW234396  14.563  14.685  10.351
44208SOL     OW34397  13.148   9.191  14.381
44208SOL    HW134398  13.147   9.283  14.357
44208SOL    HW234399  13.056   9.169  14.397
44209SOL     OW34400   8.124   3.297  10.439
44209SOL    HW134401   8.168   3.382  10.428
44209SOL    HW234402   8.194   3.233  10.426
44210SOL     OW34403   4.623  13.943   4.967
44210SOL    HW134404   4.598  13.983   5.050
44210SOL    HW234405   4.541  13.910   4.930
44211SOL     OW34406  11.711   7.381  10.543
44211SOL    HW134407  11.680   7.297  10.577
44211SOL    HW234408  11.682   7.446  10.607
44212SOL     OW34409   6.441   1.856   7.385
44212SOL    HW134410   6.458   1.883   7.475
44212SOL    HW234411   6.345   1.855   7.378
44213SOL     OW34412   6.093   9.953   1.861
44213SOL    HW134413   6.138  10.025   1.905
44213SOL    HW234414   6.017   9.935   1.917
44214SOL     OW34415   8.307   5.498  13.131
44214SOL    HW134416   8.338   5.513  13.041
44214SOL    HW234417   8.284   5.406  13.134
44215SOL     OW34418   7.091  11.205   5.474
44215SOL    HW134419   7.082  11.288   5.426
44215SOL    HW234420   7.085  11.230   5.566
44216SOL     OW34421   7.882   4.081  10.631
44216SOL    HW134422   7.826   4.158  10.640
44216SOL    HW234423   7.821   4.008  10.622
44217SOL     OW34424   2.469   8.216   7.207
44217SOL    HW134425   2.452   8.287   7.145
44217SOL    HW234426   2.397   8.155   7.193
44218SOL     OW34427   6.957  11.311  12.133
44218SOL    HW134428   6.998  11.391  12.165
44218SOL    HW234429   6.907  11.278  12.208
44219SOL     OW34430  11.712   5.725   0.056
44219SOL    HW134431  11.704   5.653  14.875
44219SOL    HW234432  11.623   5.759   0.066
44220SOL     OW34433  12.828   4.250  13.962
44220SOL    HW134434  12.733   4.259  13.956
44220SOL    HW234435  12.846   4.163  13.925
44221SOL     OW34436   8.515  12.176   6.122
44221SOL    HW134437   8.611  12.174   6.119
44221SOL    HW234438   8.488  12.188   6.032
44222SOL     OW34439   1.743  10.728  11.255
44222SOL    HW134440   1.819  10.717  11.312
44222SOL    HW234441   1.685  10.656  11.280
44223SOL     OW34442   9.086  12.976   1.259
44223SOL    HW134443   9.108  12.895   1.212
44223SOL    HW234444   9.122  13.046   1.205
44224SOL     OW34445   9.449   4.395  14.313
44224SOL    HW134446   9.372   4.420  14.364
44224SOL    HW234447   9.452   4.300  14.320
44225SOL     OW34448   5.187   5.461  14.714
44225SOL    HW134449   5.260   5.404  14.690
44225SOL    HW234450   5.109   5.415  14.683
44226SOL     OW34451  10.850  13.038   0.060
44226SOL    HW134452  10.757  13.027   0.045
44226SOL    HW234453  10.888  13.048  14.854
44227SOL     OW34454   5.057   1.224   4.541
44227SOL    HW134455   5.146   1.242   4.572
44227SOL    HW234456   5.000   1.275   4.600
44228SOL     OW34457   1.257   9.473   9.318
44228SOL    HW134458   1.283   9.521   9.397
44228SOL    HW234459   1.333   9.477   9.261
44229SOL     OW34460   1.420   8.440  11.574
44229SOL    HW134461   1.511   8.468  11.571
44229SOL    HW234462   1.371   8.512  11.537
44230SOL     OW34463   4.525  13.180   5.009
44230SOL    HW134464   4.600  13.133   4.973
44230SOL    HW234465   4.553  13.271   5.012
44231SOL     OW34466   0.117   6.788   3.705
44231SOL    HW134467   0.151   6.858   3.649
44231SOL    HW234468   0.069   6.834   3.774
44232SOL     OW34469   9.190  13.861  14.104
44232SOL    HW134470   9.234  13.809  14.037
44232SOL    HW234471   9.257  13.875  14.171
44233SOL     OW34472  10.572  12.843  14.114
44233SOL    HW134473  10.660  12.877  14.099
44233SOL    HW234474  10.529  12.848  14.028
44234SOL     OW34475  11.821   1.131  14.842
44234SOL    HW134476  11.816   1.154  14.749
44234SOL    HW234477  11.907   1.162  14.870
44235SOL     OW34478  10.395  12.660   0.550
44235SOL    HW134479  10.320  12.609   0.582
44235SOL    HW234480  10.471  12.609   0.575
44236SOL     OW34481  13.690   6.060  11.874
44236SOL    HW134482  13.648   6.077  11.957
44236SOL    HW234483  13.638   6.109  11.810
44237SOL     OW34484   9.417  13.549  14.724
44237SOL    HW134485   9.366  13.550  14.643
44237SOL    HW234486   9.421  13.641  14.751
44238SOL     OW34487   5.622   9.999   9.095
44238SOL    HW134488   5.673  10.013   9.015
44238SOL    HW234489   5.682  10.019   9.166
44239SOL     OW34490   4.313  12.954  13.584
44239SOL    HW134491   4.281  12.915  13.665
44239SOL    HW234492   4.358  13.034  13.611
44240SOL     OW34493   9.514  14.555   6.969
44240SOL    HW134494   9.564  14.615   7.025
44240SOL    HW234495   9.570  14.543   6.891
44241SOL     OW34496   4.614   3.237  10.018
44241SOL    HW134497   4.702   3.256   9.987
44241SOL    HW234498   4.570   3.322  10.022
44242SOL     OW34499   0.938   8.895   0.408
44242SOL    HW134500   0.940   8.988   0.432
44242SOL    HW234501   0.858   8.862   0.449
44243SOL     OW34502  10.568   1.624  13.609
44243SOL    HW134503  10.628   1.563  13.651
44243SOL    HW234504  10.527   1.671  13.681
44244SOL     OW34505   7.876   8.195  13.007
44244SOL    HW134506   7.822   8.274  13.015
44244SOL    HW234507   7.908   8.197  12.917
44245SOL     OW34508  10.822  14.423  11.391
44245SOL    HW134509  10.806  14.515  11.411
44245SOL    HW234510  10.917  14.416  11.385
44246SOL     OW34511  11.653   5.392   1.273
44246SOL    HW134512  11.568   5.435   1.276
44246SOL    HW234513  11.708   5.451   1.221
44247SOL     OW34514  14.309   8.156  10.834
44247SOL    HW134515  14.321   8.097  10.908
44247SOL    HW234516  14.253   8.226  10.868
44248SOL     OW34517   7.984  12.982   4.114
44248SOL    HW134518   7.912  12.919   4.125
44248SOL    HW234519   8.057  12.929   4.083
44249SOL     OW34520  12.205   1.406   3.785
44249SOL    HW134521  12.265   1.385   3.713
44249SOL    HW234522  12.213   1.332   3.845
44250SOL     OW34523  12.672   7.548   4.473
44250SOL    HW134524  12.738   7.573   4.408
44250SOL    HW234525  12.700   7.591   4.553
44251SOL     OW34526   4.571  12.965   0.057
44251SOL    HW134527   4.625  13.034   0.096
44251SOL    HW234528   4.632  12.893   0.040
44252SOL     OW34529   5.763  12.907   5.118
44252SOL    HW134530   5.734  12.981   5.064
44252SOL    HW234531   5.749  12.830   5.063
44253SOL     OW34532   9.604   8.358   0.179
44253SOL    HW134533   9.638   8.377   0.266
44253SOL    HW234534   9.656   8.283   0.148
44254SOL     OW34535   4.371   9.287  14.231
44254SOL    HW134536   4.369   9.303  14.136
44254SOL    HW234537   4.455   9.244  14.246
44255SOL     OW34538  14.096   7.200  14.730
44255SOL    HW134539  14.099   7.213  14.825
44255SOL    HW234540  14.050   7.278  14.697
44256SOL     OW34541  11.223   5.531  14.234
44256SOL    HW134542  11.300   5.519  14.290
44256SOL    HW234543  11.171   5.452  14.249
44257SOL     OW34544   0.995  12.746   3.550
44257SOL    HW134545   1.046  12.820   3.515
44257SOL    HW234546   0.923  12.787   3.596
44258SOL     OW34547   4.744   0.497   9.817
44258SOL    HW134548   4.819   0.489   9.876
44258SOL    HW234549   4.735   0.592   9.802
44259SOL     OW34550  12.646  14.084   7.364
44259SOL    HW134551  12.608  14.006   7.324
44259SOL    HW234552  12.640  14.151   7.296
44260SOL     OW34553   2.632   8.889  13.624
44260SOL    HW134554   2.540   8.887  13.650
44260SOL    HW234555   2.655   8.982  13.624
44261SOL     OW34556   7.759   9.225   0.700
44261SOL    HW134557   7.791   9.201   0.613
44261SOL    HW234558   7.719   9.145   0.734
44262SOL     OW34559   8.239   6.494   8.767
44262SOL    HW134560   8.181   6.567   8.787
44262SOL    HW234561   8.219   6.428   8.833
44263SOL     OW34562  11.448  11.885   8.697
44263SOL    HW134563  11.544  11.880   8.699
44263SOL    HW234564  11.428  11.974   8.725
44264SOL     OW34565   9.153   7.369   8.006
44264SOL    HW134566   9.131   7.343   7.916
44264SOL    HW234567   9.175   7.287   8.050
44265SOL     OW34568   7.091   5.622  12.361
44265SOL    HW134569   7.176   5.651  12.395
44265SOL    HW234570   7.081   5.533  12.396
44266SOL     OW34571  10.445   2.881   7.248
44266SOL    HW134572  10.532   2.919   7.237
44266SOL    HW234573  10.385   2.950   7.223
44267SOL     OW34574  13.818   1.108  14.007
44267SOL    HW134575  13.807   1.188  14.059
44267SOL    HW234576  13.912   1.102  13.992
44268SOL     OW34577   2.076   7.936   7.988
44268SOL    HW134578   2.102   7.915   7.898
44268SOL    HW234579   1.984   7.909   7.993
44269SOL     OW34580   7.603   7.959  14.244
44269SOL    HW134581   7.640   7.894  14.304
44269SOL    HW234582   7.510   7.935  14.238
44270SOL     OW34583   0.772  11.581  14.012
44270SOL    HW134584   0.829  11.652  14.043
44270SOL    HW234585   0.701  11.626  13.966
44271SOL     OW34586   6.996  11.919   5.112
44271SOL    HW134587   7.077  11.905   5.062
44271SOL    HW234588   6.931  11.864   5.068
44272SOL     OW34589  13.944   9.541   9.366
44272SOL    HW134590  14.037   9.534   9.344
44272SOL    HW234591  13.934   9.488   9.445
44273SOL     OW34592  11.902  11.812   4.920
44273SOL    HW134593  11.962  11.779   4.852
44273SOL    HW234594  11.908  11.907   4.913
44274SOL     OW34595   7.367   2.907   0.687
44274SOL    HW134596   7.274   2.929   0.685
44274SOL    HW234597   7.406   2.974   0.744
44275SOL     OW34598   5.873   7.202   8.442
44275SOL    HW134599   5.952   7.202   8.388
44275SOL    HW234600   5.858   7.294   8.462
44276SOL     OW34601   8.290   6.457  14.368
44276SOL    HW134602   8.286   6.393  14.297
44276SOL    HW234603   8.338   6.413  14.437
44277SOL     OW34604   7.729   7.295  12.727
44277SOL    HW134605   7.675   7.373  12.713
44277SOL    HW234606   7.794   7.323  12.792
44278SOL     OW34607  11.878   8.121   5.542
44278SOL    HW134608  11.844   8.154   5.626
44278SOL    HW234609  11.973   8.120   5.554
44279SOL     OW34610   6.118   6.470  13.426
44279SOL    HW134611   6.144   6.544  13.371
44279SOL    HW234612   6.199   6.438  13.464
44280SOL     OW34613   1.153   3.451   4.745
44280SOL    HW134614   1.207   3.518   4.703
44280SOL    HW234615   1.076   3.444   4.689
44281SOL     OW34616   1.829   2.348   2.379
44281SOL    HW134617   1.755   2.348   2.318
44281SOL    HW234618   1.849   2.256   2.393
44282SOL     OW34619   3.717   9.126  13.682
44282SOL    HW134620   3.723   9.114  13.776
44282SOL    HW234621   3.770   9.056  13.645
44283SOL     OW34622   1.984   2.102  10.440
44283SOL    HW134623   2.028   2.021  10.412
44283SOL    HW234624   2.046   2.144  10.500
44284SOL     OW34625   9.720  11.281  13.478
44284SOL    HW134626   9.746  11.285  13.570
44284SOL    HW234627   9.631  11.315  13.476
44285SOL     OW34628  12.319   6.158   8.603
44285SOL    HW134629  12.359   6.168   8.517
44285SOL    HW234630  12.352   6.074   8.635
44286SOL     OW34631  11.881   3.194   7.419
44286SOL    HW134632  11.902   3.264   7.481
44286SOL    HW234633  11.935   3.120   7.448
44287SOL     OW34634   0.431  14.665   5.557
44287SOL    HW134635   0.413  14.736   5.619
44287SOL    HW234636   0.526  14.651   5.563
44288SOL     OW34637  12.878  12.921   4.129
44288SOL    HW134638  12.907  12.908   4.039
44288SOL    HW234639  12.957  12.949   4.175
44289SOL     OW34640  13.544   4.963  14.708
44289SOL    HW134641  13.547   4.925  14.620
44289SOL    HW234642  13.470   4.921  14.750
44290SOL     OW34643  11.649   8.047   1.024
44290SOL    HW134644  11.582   7.998   0.977
44290SOL    HW234645  11.603   8.088   1.097
44291SOL     OW34646  11.066   5.550   0.637
44291SOL    HW134647  11.048   5.566   0.730
44291SOL    HW234648  11.012   5.473   0.615
44292SOL     OW34649   8.404   8.887   7.913
44292SOL    HW134650   8.377   8.950   7.847
44292SOL    HW234651   8.369   8.921   7.995
44293SOL     OW34652   6.860   6.543  11.971
44293SOL    HW134653   6.888   6.564  11.882
44293SOL    HW234654   6.790   6.605  11.990
44294SOL     OW34655   4.253   0.662  13.631
44294SOL    HW134656   4.316   0.592  13.620
44294SOL    HW234657   4.172   0.628  13.593
44295SOL     OW34658   2.120  12.364  14.204
44295SOL    HW134659   2.100  12.456  14.224
44295SOL    HW234660   2.211  12.352  14.232
44296SOL     OW34661  12.805  14.718   9.337
44296SOL    HW134662  12.720  14.759   9.320
44296SOL    HW234663  12.867  14.765   9.281
44297SOL     OW34664   0.638   7.946  12.348
44297SOL    HW134665   0.601   7.990  12.424
44297SOL    HW234666   0.723   7.913  12.378
44298SOL     OW34667   6.060   5.856   3.860
44298SOL    HW134668   6.044   5.818   3.773
44298SOL    HW234669   6.004   5.933   3.863
44299SOL     OW34670   6.940   3.248   1.390
44299SOL    HW134671   6.868   3.195   1.356
44299SOL    HW234672   6.971   3.297   1.314
44300SOL     OW34673  12.234   7.945   0.744
44300SOL    HW134674  12.225   7.911   0.833
44300SOL    HW234675  12.319   7.990   0.744
44301SOL     OW34676   4.166   5.694  10.751
44301SOL    HW134677   4.114   5.727  10.677
44301SOL    HW234678   4.109   5.703  10.827
44302SOL     OW34679   8.546   8.818   1.209
44302SOL    HW134680   8.586   8.768   1.138
44302SOL    HW234681   8.556   8.910   1.182
44303SOL     OW34682   8.041   6.458   7.881
44303SOL    HW134683   8.102   6.529   7.860
44303SOL    HW234684   8.053   6.443   7.975
44304SOL     OW34685  10.592   6.402   9.457
44304SOL    HW134686  10.543   6.363   9.384
44304SOL    HW234687  10.536   6.386   9.533
44305SOL     OW34688   7.847   3.214   0.046
44305SOL    HW134689   7.844   3.304   0.012
44305SOL    HW234690   7.919   3.173  14.880
44306SOL     OW34691  14.213   8.156   6.586
44306SOL    HW134692  14.244   8.244   6.564
44306SOL    HW234693  14.277   8.097   6.546
44307SOL     OW34694   4.116   1.969   4.808
44307SOL    HW134695   4.060   1.925   4.743
44307SOL    HW234696   4.070   1.956   4.891
44308SOL     OW34697  13.875   4.641   5.340
44308SOL    HW134698  13.922   4.560   5.359
44308SOL    HW234699  13.825   4.622   5.261
44309SOL     OW34700   8.804  14.070   2.724
44309SOL    HW134701   8.827  13.977   2.714
44309SOL    HW234702   8.757  14.091   2.643
44310SOL     OW34703  12.329  13.860   9.655
44310SOL    HW134704  12.283  13.932   9.698
44310SOL    HW234705  12.281  13.847   9.573
44311SOL     OW34706   5.445  12.142   5.697
44311SOL    HW134707   5.430  12.054   5.662
44311SOL    HW234708   5.486  12.127   5.782
44312SOL     OW34709   7.651  13.852   0.697
44312SOL    HW134710   7.568  13.883   0.734
44312SOL    HW234711   7.716  13.916   0.727
44313SOL     OW34712  14.839   5.507   8.562
44313SOL    HW134713   0.005   5.478   8.485
44313SOL    HW234714  14.776   5.571   8.529
44314SOL     OW34715  10.853   6.795   5.277
44314SOL    HW134716  10.833   6.763   5.365
44314SOL    HW234717  10.923   6.737   5.246
44315SOL     OW34718  13.228   0.630   7.486
44315SOL    HW134719  13.154   0.642   7.545
44315SOL    HW234720  13.296   0.591   7.542
44316SOL     OW34721  12.517   9.897  13.217
44316SOL    HW134722  12.544   9.811  13.183
44316SOL    HW234723  12.428   9.908  13.183
44317SOL     OW34724   0.070   6.328  12.455
44317SOL    HW134725   0.035   6.263  12.395
44317SOL    HW234726   0.163   6.335  12.432
44318SOL     OW34727   1.270   2.851  14.410
44318SOL    HW134728   1.301   2.928  14.363
44318SOL    HW234729   1.184   2.833  14.372
44319SOL     OW34730   3.906   7.985  11.248
44319SOL    HW134731   3.828   8.008  11.198
44319SOL    HW234732   3.968   8.056  11.229
44320SOL     OW34733   1.060   6.877  11.066
44320SOL    HW134734   1.115   6.860  11.143
44320SOL    HW234735   0.983   6.822  11.081
44321SOL     OW34736   3.568   8.813   6.173
44321SOL    HW134737   3.508   8.849   6.239
44321SOL    HW234738   3.533   8.844   6.090
44322SOL     OW34739  14.345   5.859   1.055
44322SOL    HW134740  14.411   5.897   1.113
44322SOL    HW234741  14.299   5.796   1.110
44323SOL     OW34742  14.852   3.643   7.118
44323SOL    HW134743  14.826   3.552   7.127
44323SOL    HW234744   0.028   3.659   7.192
44324SOL     OW34745   1.355  10.398   7.769
44324SOL    HW134746   1.312  10.321   7.731
44324SOL    HW234747   1.404  10.436   7.696
44325SOL     OW34748  10.846   5.736  13.009
44325SOL    HW134749  10.751   5.741  13.001
44325SOL    HW234750  10.875   5.826  12.998
44326SOL     OW34751   5.704   2.409   4.087
44326SOL    HW134752   5.637   2.460   4.134
44326SOL    HW234753   5.684   2.423   3.995
44327SOL     OW34754  10.389  11.457   7.281
44327SOL    HW134755  10.458  11.470   7.346
44327SOL    HW234756  10.398  11.365   7.255
44328SOL     OW34757   4.734   3.057   3.871
44328SOL    HW134758   4.757   2.982   3.816
44328SOL    HW234759   4.814   3.079   3.919
44329SOL     OW34760  10.211   5.597   9.535
44329SOL    HW134761  10.149   5.524   9.541
44329SOL    HW234762  10.159   5.671   9.503
44330SOL     OW34763   4.857   3.317  12.295
44330SOL    HW134764   4.790   3.257  12.327
44330SOL    HW234765   4.814   3.369  12.228
44331SOL     OW34766   0.775   3.910   3.758
44331SOL    HW134767   0.797   3.835   3.814
44331SOL    HW234768   0.682   3.925   3.774
44332SOL     OW34769   8.491   3.511   2.302
44332SOL    HW134770   8.570   3.501   2.248
44332SOL    HW234771   8.491   3.603   2.327
44333SOL     OW34772   1.321  12.425  11.865
44333SOL    HW134773   1.275  12.509  11.866
44333SOL    HW234774   1.413  12.447  11.850
44334SOL     OW34775   5.965  11.535  12.107
44334SOL    HW134776   6.008  11.493  12.033
44334SOL    HW234777   5.989  11.482  12.182
44335SOL     OW34778  13.704   8.821   1.618
44335SOL    HW134779  13.661   8.800   1.535
44335SOL    HW234780  13.632   8.833   1.680
44336SOL     OW34781   3.174   7.733   3.024
44336SOL    HW134782   3.109   7.757   2.959
44336SOL    HW234783   3.193   7.641   3.007
44337SOL     OW34784   9.866  10.572   0.257
44337SOL    HW134785   9.956  10.551   0.280
44337SOL    HW234786   9.836  10.630   0.328
44338SOL     OW34787  11.193  14.283   2.313
44338SOL    HW134788  11.237  14.342   2.374
44338SOL    HW234789  11.113  14.328   2.289
44339SOL     OW34790   2.870   5.956   0.131
44339SOL    HW134791   2.944   5.996   0.086
44339SOL    HW234792   2.793   6.002   0.098
44340SOL     OW34793  13.210   1.097   2.915
44340SOL    HW134794  13.135   1.122   2.969
44340SOL    HW234795  13.209   1.159   2.842
44341SOL     OW34796   0.442  12.964   8.497
44341SOL    HW134797   0.535  12.979   8.515
44341SOL    HW234798   0.438  12.873   8.468
44342SOL     OW34799   9.232   2.030   4.976
44342SOL    HW134800   9.238   1.956   5.037
44342SOL    HW234801   9.230   2.108   5.032
44343SOL     OW34802   0.137   6.861   6.876
44343SOL    HW134803   0.130   6.779   6.925
44343SOL    HW234804   0.048   6.894   6.870
44344SOL     OW34805  11.891   8.422   6.280
44344SOL    HW134806  11.974   8.382   6.307
44344SOL    HW234807  11.903   8.515   6.296
44345SOL     OW34808   2.709   1.579   4.250
44345SOL    HW134809   2.744   1.518   4.314
44345SOL    HW234810   2.616   1.589   4.273
44346SOL     OW34811   0.786   9.632   6.484
44346SOL    HW134812   0.867   9.601   6.525
44346SOL    HW234813   0.780   9.724   6.509
44347SOL     OW34814  11.349  11.282   5.984
44347SOL    HW134815  11.324  11.374   5.988
44347SOL    HW234816  11.420  11.273   6.047
44348SOL     OW34817   7.528  14.026   6.735
44348SOL    HW134818   7.513  13.932   6.741
44348SOL    HW234819   7.471  14.056   6.664
44349SOL     OW34820  13.828  14.092   6.048
44349SOL    HW134821  13.806  14.167   6.103
44349SOL    HW234822  13.833  14.019   6.110
44350SOL     OW34823   1.711   7.735   7.550
44350SOL    HW134824   1.770   7.809   7.536
44350SOL    HW234825   1.718   7.683   7.470
44351SOL     OW34826  12.270  12.967   0.585
44351SOL    HW134827  12.324  13.017   0.646
44351SOL    HW234828  12.321  12.964   0.504
44352SOL     OW34829  14.645   7.951   7.884
44352SOL    HW134830  14.575   7.985   7.828
44352SOL    HW234831  14.681   7.877   7.835
44353SOL     OW34832   7.336   0.846  10.629
44353SOL    HW134833   7.249   0.859  10.591
44353SOL    HW234834   7.396   0.886  10.565
44354SOL     OW34835   4.543  14.299   3.709
44354SOL    HW134836   4.545  14.379   3.656
44354SOL    HW234837   4.502  14.234   3.653
44355SOL     OW34838  12.469  13.482  10.884
44355SOL    HW134839  12.491  13.467  10.792
44355SOL    HW234840  12.493  13.573  10.900
44356SOL     OW34841   4.471  12.784  14.267
44356SOL    HW134842   4.532  12.715  14.245
44356SOL    HW234843   4.384  12.743  14.262
44357SOL     OW34844   0.928   9.045   9.769
44357SOL    HW134845   1.020   9.021   9.776
44357SOL    HW234846   0.900   9.008   9.685
44358SOL     OW34847   7.453   5.339   2.545
44358SOL    HW134848   7.525   5.390   2.582
44358SOL    HW234849   7.443   5.265   2.604
44359SOL     OW34850  10.422   8.374  11.305
44359SOL    HW134851  10.330   8.397  11.292
44359SOL    HW234852  10.442   8.403  11.393
44360SOL     OW34853   1.842   9.210   3.374
44360SOL    HW134854   1.831   9.300   3.345
44360SOL    HW234855   1.934   9.190   3.354
44361SOL     OW34856   1.816  11.050  14.156
44361SOL    HW134857   1.805  11.084  14.244
44361SOL    HW234858   1.899  11.087  14.126
44362SOL     OW34859  14.040   8.757   6.737
44362SOL    HW134860  14.079   8.708   6.665
44362SOL    HW234861  14.058   8.704   6.815
44363SOL     OW34862  13.876   0.334   3.556
44363SOL    HW134863  13.905   0.341   3.647
44363SOL    HW234864  13.957   0.339   3.505
44364SOL     OW34865   9.390   4.276   3.146
44364SOL    HW134866   9.388   4.371   3.159
44364SOL    HW234867   9.300   4.254   3.122
44365SOL     OW34868  10.546   0.285   3.861
44365SOL    HW134869  10.567   0.316   3.773
44365SOL    HW234870  10.523   0.365   3.910
44366SOL     OW34871  10.843   6.366   8.047
44366SOL    HW134872  10.748   6.356   8.038
44366SOL    HW234873  10.868   6.299   8.110
44367SOL     OW34874  12.324   4.370  10.880
44367SOL    HW134875  12.232   4.344  10.880
44367SOL    HW234876  12.352   4.360  10.971
44368SOL     OW34877   6.020  11.117   1.269
44368SOL    HW134878   5.953  11.088   1.331
44368SOL    HW234879   6.101  11.075   1.299
44369SOL     OW34880   8.191   0.143  11.206
44369SOL    HW134881   8.109   0.110  11.170
44369SOL    HW234882   8.165   0.214  11.264
44370SOL     OW34883   9.157   2.341   3.425
44370SOL    HW134884   9.216   2.281   3.378
44370SOL    HW234885   9.108   2.385   3.357
44371SOL     OW34886   9.962  10.020   6.170
44371SOL    HW134887  10.017   9.985   6.241
44371SOL    HW234888   9.877   9.979   6.184
44372SOL     OW34889   6.127   9.828   6.272
44372SOL    HW134890   6.217   9.834   6.240
44372SOL    HW234891   6.103   9.736   6.262
44373SOL     OW34892   7.444   6.343   9.155
44373SOL    HW134893   7.392   6.298   9.088
44373SOL    HW234894   7.530   6.300   9.150
44374SOL     OW34895   8.370   9.986   6.243
44374SOL    HW134896   8.390   9.997   6.336
44374SOL    HW234897   8.313  10.060   6.222
44375SOL     OW34898   6.751  10.420  12.291
44375SOL    HW134899   6.695  10.343  12.306
44375SOL    HW234900   6.694  10.495  12.309
44376SOL     OW34901   2.808   2.791   6.638
44376SOL    HW134902   2.753   2.715   6.656
44376SOL    HW234903   2.749   2.866   6.649
44377SOL     OW34904   1.229   3.028   1.966
44377SOL    HW134905   1.173   3.101   1.993
44377SOL    HW234906   1.313   3.046   2.008
44378SOL     OW34907   1.168  13.786   8.711
44378SOL    HW134908   1.208  13.700   8.695
44378SOL    HW234909   1.076  13.773   8.688
44379SOL     OW34910   0.935   0.666  12.392
44379SOL    HW134911   0.864   0.725  12.366
44379SOL    HW234912   0.927   0.591  12.332
44380SOL     OW34913  12.450   8.470  11.635
44380SOL    HW134914  12.457   8.494  11.543
44380SOL    HW234915  12.487   8.382  11.640
44381SOL     OW34916   6.988  11.260   7.599
44381SOL    HW134917   6.934  11.187   7.568
44381SOL    HW234918   6.928  11.335   7.603
44382SOL     OW34919  14.098   6.435  12.529
44382SOL    HW134920  14.141   6.428  12.444
44382SOL    HW234921  14.100   6.345  12.564
44383SOL     OW34922   3.924   9.809   8.597
44383SOL    HW134923   3.856   9.858   8.643
44383SOL    HW234924   3.917   9.836   8.506
44384SOL     OW34925   4.663   1.886  11.364
44384SOL    HW134926   4.595   1.834  11.321
44384SOL    HW234927   4.667   1.967  11.314
44385SOL     OW34928   7.906  14.359   9.846
44385SOL    HW134929   7.934  14.368   9.937
44385SOL    HW234930   7.824  14.310   9.852
44386SOL     OW34931   4.032  11.286  10.283
44386SOL    HW134932   3.975  11.238  10.222
44386SOL    HW234933   4.022  11.239  10.366
44387SOL     OW34934  13.749   3.234   4.987
44387SOL    HW134935  13.747   3.291   4.910
44387SOL    HW234936  13.790   3.153   4.956
44388SOL     OW34937   2.158  11.730  13.637
44388SOL    HW134938   2.124  11.745  13.725
44388SOL    HW234939   2.203  11.811  13.614
44389SOL     OW34940   6.418   0.400   0.458
44389SOL    HW134941   6.353   0.448   0.405
44389SOL    HW234942   6.369   0.325   0.491
44390SOL     OW34943  12.929   7.280   7.260
44390SOL    HW134944  12.989   7.210   7.232
44390SOL    HW234945  12.846   7.237   7.274
44391SOL     OW34946   8.504   7.728   6.987
44391SOL    HW134947   8.418   7.737   7.029
44391SOL    HW234948   8.565   7.718   7.060
44392SOL     OW34949   4.258  13.978  11.010
44392SOL    HW134950   4.234  13.885  11.016
44392SOL    HW234951   4.335  13.986  11.067
44393SOL     OW34952  11.979  14.097   1.806
44393SOL    HW134953  12.018  14.185   1.806
44393SOL    HW234954  11.885  14.113   1.796
44394SOL     OW34955   1.094  10.139   9.144
44394SOL    HW134956   1.001  10.135   9.166
44394SOL    HW234957   1.095  10.163   9.051
44395SOL     OW34958   1.943   7.468   3.357
44395SOL    HW134959   1.993   7.545   3.380
44395SOL    HW234960   1.954   7.408   3.431
44396SOL     OW34961  13.479  14.415   2.419
44396SOL    HW134962  13.523  14.398   2.335
44396SOL    HW234963  13.400  14.464   2.394
44397SOL     OW34964  11.105   8.648   4.967
44397SOL    HW134965  11.121   8.600   4.885
44397SOL    HW234966  11.112   8.581   5.035
44398SOL     OW34967   6.824  14.650   7.021
44398SOL    HW134968   6.793  14.734   7.055
44398SOL    HW234969   6.765  14.630   6.948
44399SOL     OW34970   6.515  12.044   4.175
44399SOL    HW134971   6.598  12.080   4.143
44399SOL    HW234972   6.539  11.968   4.227
44400SOL     OW34973   6.758   9.085  13.244
44400SOL    HW134974   6.791   8.997  13.228
44400SOL    HW234975   6.740   9.121  13.157
44401SOL     OW34976   3.670   3.723  11.867
44401SOL    HW134977   3.620   3.787  11.919
44401SOL    HW234978   3.618   3.711  11.788
44402SOL     OW34979  11.574  11.356   2.421
44402SOL    HW134980  11.623  11.277   2.397
44402SOL    HW234981  11.510  11.326   2.485
44403SOL     OW34982  10.087   2.480   9.266
44403SOL    HW134983  10.071   2.401   9.317
44403SOL    HW234984  10.161   2.458   9.209
44404SOL     OW34985  14.288  10.954   9.294
44404SOL    HW134986  14.281  10.876   9.239
44404SOL    HW234987  14.203  10.997   9.285
44405SOL     OW34988   8.432   3.047  14.591
44405SOL    HW134989   8.392   3.115  14.645
44405SOL    HW234990   8.402   3.066  14.502
44406SOL     OW34991  12.136   4.147   2.992
44406SOL    HW134992  12.178   4.070   3.029
44406SOL    HW234993  12.133   4.130   2.898
44407SOL     OW34994   8.059   6.307  13.764
44407SOL    HW134995   8.001   6.234  13.784
44407SOL    HW234996   8.066   6.354  13.847
44408SOL     OW34997   4.018   7.123   6.922
44408SOL    HW134998   3.975   7.094   6.841
44408SOL    HW234999   4.089   7.180   6.892
44409SOL     OW35000   3.591   8.167  11.363
44409SOL    HW135001   3.644   8.213  11.298
44409SOL    HW235002   3.500   8.181  11.334
44410SOL     OW35003  10.972   0.788  13.209
44410SOL    HW135004  10.996   0.876  13.178
44410SOL    HW235005  11.010   0.729  13.144
44411SOL     OW35006   5.607   0.860   7.628
44411SOL    HW135007   5.551   0.875   7.705
44411SOL    HW235008   5.560   0.794   7.577
44412SOL     OW35009   3.051   7.696   1.479
44412SOL    HW135010   2.975   7.671   1.427
44412SOL    HW235011   3.115   7.627   1.463
44413SOL     OW35012   6.831  10.273   1.418
44413SOL    HW135013   6.809  10.246   1.508
44413SOL    HW235014   6.747  10.295   1.379
44414SOL     OW35015   1.616  14.411  10.926
44414SOL    HW135016   1.694  14.393  10.873
44414SOL    HW235017   1.549  14.434  10.862
44415SOL     OW35018   0.537   9.655  14.617
44415SOL    HW135019   0.574   9.742  14.628
44415SOL    HW235020   0.513   9.628  14.705
44416SOL     OW35021   5.141  12.692   2.074
44416SOL    HW135022   5.058  12.707   2.118
44416SOL    HW235023   5.157  12.598   2.083
44417SOL     OW35024  13.444   3.480   7.560
44417SOL    HW135025  13.493   3.496   7.641
44417SOL    HW235026  13.435   3.567   7.521
44418SOL     OW35027  11.569  11.260   6.150
44418SOL    HW135028  11.556  11.165   6.143
44418SOL    HW235029  11.651  11.276   6.102
44419SOL     OW35030  10.361   5.937   2.924
44419SOL    HW135031  10.424   5.969   2.859
44419SOL    HW235032  10.311   6.014   2.949
44420SOL     OW35033   8.702   9.261   2.082
44420SOL    HW135034   8.669   9.339   2.127
44420SOL    HW235035   8.628   9.199   2.084
44421SOL     OW35036   3.082   0.865  12.132
44421SOL    HW135037   3.130   0.786  12.105
44421SOL    HW235038   3.026   0.885  12.057
44422SOL     OW35039   3.134   5.287  11.979
44422SOL    HW135040   3.137   5.193  11.997
44422SOL    HW235041   3.057   5.318  12.027
44423SOL     OW35042   0.538   9.628  13.596
44423SOL    HW135043   0.518   9.691  13.527
44423SOL    HW235044   0.457   9.619  13.645
44424SOL     OW35045  12.386   4.229  11.461
44424SOL    HW135046  12.367   4.265  11.548
44424SOL    HW235047  12.322   4.159  11.450
44425SOL     OW35048   0.748   7.311   8.523
44425SOL    HW135049   0.761   7.406   8.522
44425SOL    HW235050   0.822   7.278   8.573
44426SOL     OW35051   0.199  13.543  10.837
44426SOL    HW135052   0.275  13.501  10.796
44426SOL    HW235053   0.219  13.636  10.836
44427SOL     OW35054  14.039   6.386  12.983
44427SOL    HW135055  14.083   6.302  12.995
44427SOL    HW235056  14.091   6.449  13.033
44428SOL     OW35057   6.996   0.274  14.142
44428SOL    HW135058   6.982   0.363  14.173
44428SOL    HW235059   7.033   0.284  14.055
44429SOL     OW35060   2.388   2.019  12.843
44429SOL    HW135061   2.482   2.016  12.825
44429SOL    HW235062   2.348   2.050  12.762
44430SOL     OW35063   5.649   7.495  11.689
44430SOL    HW135064   5.678   7.584  11.707
44430SOL    HW235065   5.571   7.483  11.743
44431SOL     OW35066   4.317   3.959   7.884
44431SOL    HW135067   4.375   3.991   7.815
44431SOL    HW235068   4.317   3.863   7.873
44432SOL     OW35069   5.908   9.757   3.929
44432SOL    HW135070   5.845   9.829   3.941
44432SOL    HW235071   5.865   9.681   3.968
44433SOL     OW35072  13.561   5.089   8.026
44433SOL    HW135073  13.538   5.102   7.934
44433SOL    HW235074  13.578   4.995   8.034
44434SOL     OW35075  12.328   2.960  10.049
44434SOL    HW135076  12.275   2.996   9.977
44434SOL    HW235077  12.416   2.950  10.011
44435SOL     OW35078  10.829   3.120   5.916
44435SOL    HW135079  10.813   3.130   6.009
44435SOL    HW235080  10.827   3.210   5.882
44436SOL     OW35081   7.210   6.844   1.959
44436SOL    HW135082   7.129   6.810   1.920
44436SOL    HW235083   7.230   6.782   2.029
44437SOL     OW35084   3.321   1.074   2.286
44437SOL    HW135085   3.331   0.981   2.266
44437SOL    HW235086   3.397   1.095   2.339
44438SOL     OW35087  11.895  13.671  14.540
44438SOL    HW135088  11.957  13.601  14.559
44438SOL    HW235089  11.919  13.702  14.452
44439SOL     OW35090   8.974  11.901   6.391
44439SOL    HW135091   8.951  11.885   6.299
44439SOL    HW235092   8.914  11.846   6.441
44440SOL     OW35093  13.241   0.833  11.367
44440SOL    HW135094  13.208   0.823  11.456
44440SOL    HW235095  13.171   0.799  11.311
44441SOL     OW35096  10.534   0.400   2.473
44441SOL    HW135097  10.601   0.377   2.538
44441SOL    HW235098  10.510   0.318   2.432
44442SOL     OW35099  13.538  13.364   1.161
44442SOL    HW135100  13.569  13.317   1.238
44442SOL    HW235101  13.615  13.411   1.128
44443SOL     OW35102  13.013   1.390   2.033
44443SOL    HW135103  13.054   1.473   2.055
44443SOL    HW235104  13.022   1.383   1.938
44444SOL     OW35105   3.674  12.406   0.808
44444SOL    HW135106   3.606  12.340   0.795
44444SOL    HW235107   3.754  12.364   0.774
44445SOL     OW35108   4.680   3.525  12.956
44445SOL    HW135109   4.614   3.535  12.887
44445SOL    HW235110   4.734   3.603  12.950
44446SOL     OW35111   7.092   1.803   8.678
44446SOL    HW135112   7.012   1.787   8.728
44446SOL    HW235113   7.155   1.836   8.742
44447SOL     OW35114   9.069   5.467  10.048
44447SOL    HW135115   9.001   5.530  10.023
44447SOL    HW235116   9.150   5.519  10.050
44448SOL     OW35117  11.278  12.481   9.761
44448SOL    HW135118  11.361  12.437   9.778
44448SOL    HW235119  11.293  12.572   9.785
44449SOL     OW35120  12.990  11.848   4.141
44449SOL    HW135121  12.929  11.775   4.128
44449SOL    HW235122  13.074  11.805   4.158
44450SOL     OW35123  14.251   0.257   7.704
44450SOL    HW135124  14.190   0.197   7.748
44450SOL    HW235125  14.326   0.263   7.763
44451SOL     OW35126   2.652  11.759   4.109
44451SOL    HW135127   2.608  11.674   4.122
44451SOL    HW235128   2.728  11.755   4.168
44452SOL     OW35129   2.331   6.246   1.457
44452SOL    HW135130   2.400   6.284   1.403
44452SOL    HW235131   2.266   6.215   1.395
44453SOL     OW35132   8.422   4.500   8.513
44453SOL    HW135133   8.462   4.578   8.474
44453SOL    HW235134   8.444   4.505   8.606
44454SOL     OW35135   2.900   8.484  11.625
44454SOL    HW135136   2.884   8.568  11.583
44454SOL    HW235137   2.959   8.438  11.565
44455SOL     OW35138   1.792   6.170   7.727
44455SOL    HW135139   1.818   6.242   7.784
44455SOL    HW235140   1.839   6.094   7.762
44456SOL     OW35141   4.243   4.050  11.081
44456SOL    HW135142   4.259   4.105  11.158
44456SOL    HW235143   4.305   4.082  11.016
44457SOL     OW35144  10.346  10.532  13.561
44457SOL    HW135145  10.429  10.559  13.600
44457SOL    HW235146  10.369  10.504  13.473
44458SOL     OW35147  13.119  13.527   1.146
44458SOL    HW135148  13.185  13.592   1.170
44458SOL    HW235149  13.136  13.509   1.053
44459SOL     OW35150   5.361   2.179  12.498
44459SOL    HW135151   5.281   2.132  12.476
44459SOL    HW235152   5.333   2.248  12.558
44460SOL     OW35153   5.583   6.791   2.272
44460SOL    HW135154   5.489   6.791   2.253
44460SOL    HW235155   5.612   6.879   2.250
44461SOL     OW35156   6.981   1.014   6.892
44461SOL    HW135157   6.936   1.029   6.808
44461SOL    HW235158   6.912   0.981   6.950
44462SOL     OW35159   4.080   2.686   9.910
44462SOL    HW135160   4.090   2.779   9.889
44462SOL    HW235161   4.168   2.656   9.931
44463SOL     OW35162  11.728   0.507   5.428
44463SOL    HW135163  11.733   0.540   5.518
44463SOL    HW235164  11.733   0.586   5.374
44464SOL     OW35165  10.956   1.903   1.903
44464SOL    HW135166  11.044   1.928   1.875
44464SOL    HW235167  10.921   1.854   1.829
44465SOL     OW35168  13.007   1.940   4.739
44465SOL    HW135169  13.096   1.973   4.725
44465SOL    HW235170  12.969   2.000   4.803
44466SOL     OW35171   4.551   1.127   0.677
44466SOL    HW135172   4.601   1.148   0.756
44466SOL    HW235173   4.616   1.090   0.617
44467SOL     OW35174  12.679   8.145   3.250
44467SOL    HW135175  12.718   8.058   3.257
44467SOL    HW235176  12.718   8.183   3.171
44468SOL     OW35177   4.603  10.451  11.303
44468SOL    HW135178   4.595  10.541  11.272
44468SOL    HW235179   4.605  10.458  11.398
44469SOL     OW35180   8.989   6.300   9.224
44469SOL    HW135181   9.015   6.382   9.181
44469SOL    HW235182   8.896   6.312   9.243
44470SOL     OW35183  11.617   2.375   7.063
44470SOL    HW135184  11.587   2.458   7.101
44470SOL    HW235185  11.556   2.310   7.095
44471SOL     OW35186   5.259   5.512  14.074
44471SOL    HW135187   5.262   5.444  14.008
44471SOL    HW235188   5.197   5.480  14.139
44472SOL     OW35189  14.579   3.563  13.918
44472SOL    HW135190  14.566   3.479  13.963
44472SOL    HW235191  14.640   3.542  13.847
44473SOL     OW35192   0.588  13.403   1.829
44473SOL    HW135193   0.551  13.318   1.807
44473SOL    HW235194   0.656  13.383   1.894
44474SOL     OW35195   0.572   2.457  10.622
44474SOL    HW135196   0.657   2.432  10.655
44474SOL    HW235197   0.510   2.433  10.691
44475SOL     OW35198   4.123   8.033  11.829
44475SOL    HW135199   4.151   8.061  11.742
44475SOL    HW235200   4.078   7.950  11.814
44476SOL     OW35201   6.383   2.845  12.238
44476SOL    HW135202   6.350   2.930  12.208
44476SOL    HW235203   6.403   2.859  12.331
44477SOL     OW35204  11.992  11.872  12.858
44477SOL    HW135205  12.023  11.944  12.914
44477SOL    HW235206  12.063  11.859  12.795
44478SOL     OW35207  11.173  13.293   6.681
44478SOL    HW135208  11.086  13.255   6.667
44478SOL    HW235209  11.155  13.377   6.724
44479SOL     OW35210   2.015  10.288  11.047
44479SOL    HW135211   1.985  10.307  10.958
44479SOL    HW235212   1.943  10.238  11.086
44480SOL     OW35213   5.261  11.360   3.884
44480SOL    HW135214   5.343  11.348   3.932
44480SOL    HW235215   5.245  11.454   3.888
44481SOL     OW35216  12.075   7.543  11.661
44481SOL    HW135217  12.110   7.552  11.750
44481SOL    HW235218  12.037   7.629  11.642
44482SOL     OW35219   0.565  12.614   8.426
44482SOL    HW135220   0.610  12.626   8.510
44482SOL    HW235221   0.604  12.679   8.368
44483SOL     OW35222   8.250   1.855  11.875
44483SOL    HW135223   8.190   1.929  11.873
44483SOL    HW235224   8.334   1.893  11.899
44484SOL     OW35225  10.787   1.915   7.137
44484SOL    HW135226  10.766   1.845   7.076
44484SOL    HW235227  10.821   1.870   7.214
44485SOL     OW35228   7.824   6.395  14.548
44485SOL    HW135229   7.750   6.337  14.527
44485SOL    HW235230   7.789   6.483  14.536
44486SOL     OW35231   8.995   4.726  11.888
44486SOL    HW135232   8.956   4.721  11.976
44486SOL    HW235233   9.039   4.811  11.886
44487SOL     OW35234  13.448  14.739  14.206
44487SOL    HW135235  13.481  14.649  14.216
44487SOL    HW235236  13.463  14.759  14.113
44488SOL     OW35237  14.631   2.629   5.046
44488SOL    HW135238  14.550   2.659   5.003
44488SOL    HW235239  14.622   2.533   5.050
44489SOL     OW35240   5.002   9.775  10.637
44489SOL    HW135241   4.982   9.747  10.548
44489SOL    HW235242   5.035   9.696  10.680
44490SOL     OW35243   3.378   7.546  13.649
44490SOL    HW135244   3.290   7.575  13.674
44490SOL    HW235245   3.372   7.451  13.643
44491SOL     OW35246   0.321   7.143   9.499
44491SOL    HW135247   0.411   7.110   9.501
44491SOL    HW235248   0.301   7.151   9.405
44492SOL     OW35249   5.705   3.561   4.194
44492SOL    HW135250   5.754   3.627   4.145
44492SOL    HW235251   5.628   3.542   4.141
44493SOL     OW35252   2.536  14.794   7.696
44493SOL    HW135253   2.529  14.875   7.747
44493SOL    HW235254   2.446  14.764   7.686
44494SOL     OW35255   1.386  11.820   1.369
44494SOL    HW135256   1.402  11.901   1.418
44494SOL    HW235257   1.298  11.829   1.334
44495SOL     OW35258  14.579  13.010   2.855
44495SOL    HW135259  14.639  13.061   2.908
44495SOL    HW235260  14.523  12.965   2.918
44496SOL     OW35261   2.926  13.835  13.135
44496SOL    HW135262   2.877  13.904  13.091
44496SOL    HW235263   2.876  13.817  13.214
44497SOL     OW35264   9.348   4.886   2.761
44497SOL    HW135265   9.302   4.891   2.845
44497SOL    HW235266   9.440   4.875   2.784
44498SOL     OW35267   7.813   2.326   5.800
44498SOL    HW135268   7.779   2.374   5.875
44498SOL    HW235269   7.740   2.271   5.771
44499SOL     OW35270   6.177   6.880   4.403
44499SOL    HW135271   6.101   6.847   4.452
44499SOL    HW235272   6.156   6.862   4.312
44500SOL     OW35273  10.138   3.067  11.388
44500SOL    HW135274  10.231   3.075  11.369
44500SOL    HW235275  10.107   3.157  11.397
44501SOL     OW35276  11.968   5.123   5.684
44501SOL    HW135277  11.912   5.046   5.677
44501SOL    HW235278  11.908   5.198   5.680
44502SOL     OW35279   8.380  10.331  13.266
44502SOL    HW135280   8.308  10.383  13.232
44502SOL    HW235281   8.459  10.374  13.234
44503SOL     OW35282   5.391   7.729   6.231
44503SOL    HW135283   5.393   7.730   6.327
44503SOL    HW235284   5.474   7.768   6.204
44504SOL     OW35285  11.275   6.039   2.657
44504SOL    HW135286  11.294   6.079   2.572
44504SOL    HW235287  11.291   6.108   2.720
44505SOL     OW35288  11.726   9.521   2.225
44505SOL    HW135289  11.701   9.430   2.239
44505SOL    HW235290  11.665   9.572   2.279
44506SOL     OW35291   9.368   5.469   2.277
44506SOL    HW135292   9.315   5.401   2.319
44506SOL    HW235293   9.458   5.437   2.285
44507SOL     OW35294   8.079  10.930   9.846
44507SOL    HW135295   8.103  10.892   9.762
44507SOL    HW235296   7.990  10.899   9.861
44508SOL     OW35297  11.219   6.245   7.493
44508SOL    HW135298  11.177   6.327   7.467
44508SOL    HW235299  11.149   6.180   7.489
44509SOL     OW35300  10.209   3.389   2.226
44509SOL    HW135301  10.117   3.365   2.227
44509SOL    HW235302  10.242   3.363   2.312
44510SOL     OW35303  11.444  12.801  14.646
44510SOL    HW135304  11.447  12.757  14.561
44510SOL    HW235305  11.536  12.813  14.669
44511SOL     OW35306   6.922   2.400   7.838
44511SOL    HW135307   6.920   2.365   7.928
44511SOL    HW235308   6.881   2.486   7.845
44512SOL     OW35309   0.801   1.808   6.106
44512SOL    HW135310   0.846   1.727   6.129
44512SOL    HW235311   0.871   1.869   6.083
44513SOL     OW35312   9.415  14.318  11.733
44513SOL    HW135313   9.394  14.333  11.825
44513SOL    HW235314   9.338  14.348  11.686
44514SOL     OW35315   0.011   9.842   4.300
44514SOL    HW135316  14.805   9.882   4.294
44514SOL    HW235317  14.878   9.760   4.347
44515SOL     OW35318   8.239   7.053   4.216
44515SOL    HW135319   8.181   6.979   4.233
44515SOL    HW235320   8.183   7.130   4.229
44516SOL     OW35321   0.890   5.333   3.014
44516SOL    HW135322   0.971   5.302   3.055
44516SOL    HW235323   0.828   5.261   3.025
44517SOL     OW35324   7.248   8.524  12.657
44517SOL    HW135325   7.270   8.513  12.750
44517SOL    HW235326   7.152   8.530  12.656
44518SOL     OW35327  12.931  13.731  13.079
44518SOL    HW135328  12.837  13.713  13.073
44518SOL    HW235329  12.958  13.748  12.988
44519SOL     OW35330   2.290   5.378   6.106
44519SOL    HW135331   2.345   5.336   6.172
44519SOL    HW235332   2.202   5.377   6.143
44520SOL     OW35333   1.635   2.689   5.670
44520SOL    HW135334   1.651   2.594   5.672
44520SOL    HW235335   1.643   2.712   5.577
44521SOL     OW35336   2.635   8.730   7.378
44521SOL    HW135337   2.575   8.793   7.419
44521SOL    HW235338   2.708   8.723   7.440
44522SOL     OW35339   7.908   9.265   1.579
44522SOL    HW135340   7.814   9.275   1.588
44522SOL    HW235341   7.926   9.178   1.613
44523SOL     OW35342  14.648   7.110  13.001
44523SOL    HW135343  14.596   7.048  12.950
44523SOL    HW235344  14.712   7.144  12.938
44524SOL     OW35345  14.496   6.863   6.977
44524SOL    HW135346  14.522   6.771   6.986
44524SOL    HW235347  14.421   6.872   7.035
44525SOL     OW35348   7.367  13.468  12.264
44525SOL    HW135349   7.368  13.436  12.174
44525SOL    HW235350   7.449  13.516  12.274
44526SOL     OW35351  14.179  10.288   8.215
44526SOL    HW135352  14.149  10.369   8.172
44526SOL    HW235353  14.112  10.223   8.193
44527SOL     OW35354  14.476   4.494  14.780
44527SOL    HW135355  14.502   4.460  14.866
44527SOL    HW235356  14.524   4.441  14.717
44528SOL     OW35357   1.312  12.681  11.929
44528SOL    HW135358   1.357  12.731  11.862
44528SOL    HW235359   1.379  12.664  11.996
44529SOL     OW35360   0.456   1.277   8.628
44529SOL    HW135361   0.453   1.251   8.536
44529SOL    HW235362   0.421   1.366   8.630
44530SOL     OW35363   4.333   5.686   6.476
44530SOL    HW135364   4.320   5.759   6.536
44530SOL    HW235365   4.327   5.608   6.531
44531SOL     OW35366  11.718   3.182  11.556
44531SOL    HW135367  11.719   3.228  11.640
44531SOL    HW235368  11.664   3.105  11.572
44532SOL     OW35369   7.225   5.463  11.641
44532SOL    HW135370   7.207   5.474  11.548
44532SOL    HW235371   7.175   5.532  11.684
44533SOL     OW35372   8.765  14.197   1.989
44533SOL    HW135373   8.763  14.134   2.061
44533SOL    HW235374   8.725  14.276   2.026
44534SOL     OW35375  10.978   0.956   3.366
44534SOL    HW135376  10.927   0.911   3.297
44534SOL    HW235377  10.922   1.029   3.393
44535SOL     OW35378   9.764   3.380   3.200
44535SOL    HW135379   9.724   3.407   3.283
44535SOL    HW235380   9.717   3.301   3.176
44536SOL     OW35381   6.464   0.289   9.029
44536SOL    HW135382   6.446   0.201   8.995
44536SOL    HW235383   6.377   0.327   9.045
44537SOL     OW35384   6.295   8.691   8.105
44537SOL    HW135385   6.249   8.755   8.159
44537SOL    HW235386   6.271   8.713   8.015
44538SOL     OW35387  11.853   1.428   6.362
44538SOL    HW135388  11.925   1.402   6.421
44538SOL    HW235389  11.876   1.517   6.335
44539SOL     OW35390   5.013   8.092   9.372
44539SOL    HW135391   4.922   8.114   9.392
44539SOL    HW235392   5.053   8.075   9.457
44540SOL     OW35393   3.801  10.441   0.823
44540SOL    HW135394   3.707  10.453   0.838
44540SOL    HW235395   3.810  10.349   0.798
44541SOL     OW35396  10.781  11.741   8.765
44541SOL    HW135397  10.793  11.835   8.751
44541SOL    HW235398  10.865  11.711   8.800
44542SOL     OW35399   4.722  11.622  11.059
44542SOL    HW135400   4.697  11.558  10.992
44542SOL    HW235401   4.730  11.705  11.012
44543SOL     OW35402   0.405   3.071  14.744
44543SOL    HW135403   0.461   3.134  14.790
44543SOL    HW235404   0.456   2.990  14.744
44544SOL     OW35405  10.025   1.375   7.654
44544SOL    HW135406   9.985   1.460   7.674
44544SOL    HW235407  10.018   1.325   7.735
44545SOL     OW35408   9.935   9.712  11.490
44545SOL    HW135409   9.897   9.736  11.405
44545SOL    HW235410   9.954   9.618  11.482
44546SOL     OW35411   3.267   3.163  12.933
44546SOL    HW135412   3.332   3.199  12.872
44546SOL    HW235413   3.271   3.068  12.918
44547SOL     OW35414  10.622   1.821  12.293
44547SOL    HW135415  10.600   1.812  12.386
44547SOL    HW235416  10.553   1.773  12.248
44548SOL     OW35417   8.592   5.108  10.306
44548SOL    HW135418   8.618   5.023  10.269
44548SOL    HW235419   8.669   5.137  10.356
44549SOL     OW35420  10.127  13.009  10.273
44549SOL    HW135421  10.100  12.919  10.289
44549SOL    HW235422  10.211  13.002  10.229
44550SOL     OW35423   4.239   9.537   3.616
44550SOL    HW135424   4.156   9.498   3.644
44550SOL    HW235425   4.238   9.530   3.521
44551SOL     OW35426   4.193   0.788   5.132
44551SOL    HW135427   4.134   0.858   5.158
44551SOL    HW235428   4.268   0.796   5.191
44552SOL     OW35429   5.168   5.337   5.659
44552SOL    HW135430   5.153   5.247   5.630
44552SOL    HW235431   5.263   5.344   5.666
44553SOL     OW35432  12.976   2.869   8.556
44553SOL    HW135433  13.059   2.915   8.542
44553SOL    HW235434  12.959   2.880   8.650
44554SOL     OW35435   6.295  10.675  11.491
44554SOL    HW135436   6.217  10.658  11.544
44554SOL    HW235437   6.260  10.702  11.406
44555SOL     OW35438   1.065  12.814   0.086
44555SOL    HW135439   0.976  12.790   0.110
44555SOL    HW235440   1.077  12.901   0.125
44556SOL     OW35441   8.253   0.367  12.781
44556SOL    HW135442   8.311   0.361  12.706
44556SOL    HW235443   8.292   0.309  12.847
44557SOL     OW35444   2.111  11.265   5.207
44557SOL    HW135445   2.171  11.259   5.282
44557SOL    HW235446   2.093  11.359   5.198
44558SOL     OW35447  12.200  12.359   6.796
44558SOL    HW135448  12.275  12.356   6.855
44558SOL    HW235449  12.125  12.337   6.851
44559SOL     OW35450  10.798   8.818   4.132
44559SOL    HW135451  10.723   8.791   4.185
44559SOL    HW235452  10.776   8.790   4.044
44560SOL     OW35453   1.209   7.214  14.050
44560SOL    HW135454   1.167   7.279  13.993
44560SOL    HW235455   1.156   7.212  14.129
44561SOL     OW35456   1.154  14.557   0.356
44561SOL    HW135457   1.246  14.547   0.330
44561SOL    HW235458   1.154  14.633   0.414
44562SOL     OW35459   1.183   5.421   9.986
44562SOL    HW135460   1.231   5.345  10.020
44562SOL    HW235461   1.249   5.477   9.948
44563SOL     OW35462  14.521  11.398   4.321
44563SOL    HW135463  14.483  11.310   4.331
44563SOL    HW235464  14.596  11.398   4.380
44564SOL     OW35465  10.267  11.442  10.241
44564SOL    HW135466  10.336  11.507  10.253
44564SOL    HW235467  10.187  11.487  10.271
44565SOL     OW35468   5.374  11.927  10.345
44565SOL    HW135469   5.368  12.004  10.401
44565SOL    HW235470   5.372  11.962  10.255
44566SOL     OW35471   9.068   2.987   3.192
44566SOL    HW135472   9.073   3.055   3.125
44566SOL    HW235473   9.159   2.971   3.216
44567SOL     OW35474   5.127  12.691  14.764
44567SOL    HW135475   5.114  12.784  14.747
44567SOL    HW235476   5.222  12.680  14.763
44568SOL     OW35477   0.372   3.686  13.329
44568SOL    HW135478   0.370   3.696  13.424
44568SOL    HW235479   0.283   3.659  13.305
44569SOL     OW35480   5.676   4.469  10.517
44569SOL    HW135481   5.729   4.407  10.467
44569SOL    HW235482   5.712   4.465  10.606
44570SOL     OW35483   7.976  13.644  14.579
44570SOL    HW135484   8.041  13.710  14.605
44570SOL    HW235485   8.013  13.561  14.608
44571SOL     OW35486   5.032   0.807   2.003
44571SOL    HW135487   4.970   0.776   2.068
44571SOL    HW235488   4.990   0.789   1.919
44572SOL     OW35489  11.965   0.289  10.819
44572SOL    HW135490  12.047   0.277  10.868
44572SOL    HW235491  11.897   0.255  10.876
44573SOL     OW35492  12.364  12.609  11.662
44573SOL    HW135493  12.290  12.565  11.703
44573SOL    HW235494  12.426  12.624  11.733
44574SOL     OW35495   1.948   5.804   0.398
44574SOL    HW135496   2.041   5.787   0.383
44574SOL    HW235497   1.928   5.761   0.481
44575SOL     OW35498   4.796   2.619   7.598
44575SOL    HW135499   4.706   2.586   7.594
44575SOL    HW235500   4.827   2.594   7.685
44576SOL     OW35501   5.056   0.023   1.581
44576SOL    HW135502   5.056   0.039   1.487
44576SOL    HW235503   4.970  14.867   1.599
44577SOL     OW35504   5.130   9.562   8.129
44577SOL    HW135505   5.205   9.531   8.180
44577SOL    HW235506   5.060   9.572   8.193
44578SOL     OW35507   1.690   8.543  11.842
44578SOL    HW135508   1.727   8.556  11.755
44578SOL    HW235509   1.741   8.599  11.900
44579SOL     OW35510   5.532  11.638   4.952
44579SOL    HW135511   5.505  11.572   4.888
44579SOL    HW235512   5.456  11.696   4.961
44580SOL     OW35513   5.665   0.166   7.707
44580SOL    HW135514   5.595   0.146   7.771
44580SOL    HW235515   5.719   0.231   7.751
44581SOL     OW35516   0.299  14.374   5.046
44581SOL    HW135517   0.368  14.401   4.986
44581SOL    HW235518   0.292  14.279   5.034
44582SOL     OW35519  11.883   2.795   7.940
44582SOL    HW135520  11.906   2.886   7.957
44582SOL    HW235521  11.966   2.753   7.915
44583SOL     OW35522   3.795   3.114   5.417
44583SOL    HW135523   3.829   3.106   5.328
44583SOL    HW235524   3.805   3.207   5.438
44584SOL     OW35525  14.607  11.620   2.182
44584SOL    HW135526  14.519  11.589   2.201
44584SOL    HW235527  14.665  11.561   2.230
44585SOL     OW35528  12.028  10.486   3.658
44585SOL    HW135529  12.016  10.525   3.744
44585SOL    HW235530  11.940  10.460   3.631
44586SOL     OW35531   0.087   7.654  10.358
44586SOL    HW135532   0.064   7.718  10.425
44586SOL    HW235533   0.105   7.707  10.280
44587SOL     OW35534   4.597   1.025   8.642
44587SOL    HW135535   4.506   1.025   8.672
44587SOL    HW235536   4.626   1.115   8.655
44588SOL     OW35537  11.255  11.962  13.124
44588SOL    HW135538  11.168  11.939  13.091
44588SOL    HW235539  11.308  11.884  13.108
44589SOL     OW35540   0.397  13.976   5.776
44589SOL    HW135541   0.469  14.000   5.718
44589SOL    HW235542   0.403  14.038   5.849
44590SOL     OW35543  12.840  14.065   3.358
44590SOL    HW135544  12.929  14.090   3.382
44590SOL    HW235545  12.791  14.067   3.441
44591SOL     OW35546   5.427   6.796   1.162
44591SOL    HW135547   5.409   6.845   1.082
44591SOL    HW235548   5.504   6.743   1.141
44592SOL     OW35549  14.471   2.024   6.767
44592SOL    HW135550  14.517   2.047   6.848
44592SOL    HW235551  14.379   2.020   6.791
44593SOL     OW35552  11.386   4.080   1.015
44593SOL    HW135553  11.412   4.156   0.962
44593SOL    HW235554  11.312   4.041   0.967
44594SOL     OW35555  11.470   4.740   8.387
44594SOL    HW135556  11.535   4.781   8.444
44594SOL    HW235557  11.412   4.812   8.361
44595SOL     OW35558   4.439  12.896   1.749
44595SOL    HW135559   4.479  12.869   1.666
44595SOL    HW235560   4.400  12.981   1.731
44596SOL     OW35561  10.640  13.388  14.729
44596SOL    HW135562  10.659  13.297  14.705
44596SOL    HW235563  10.723  13.434  14.714
44597SOL     OW35564  13.657  11.736   1.715
44597SOL    HW135565  13.650  11.730   1.620
44597SOL    HW235566  13.744  11.771   1.731
44598SOL     OW35567   3.672   4.487  11.086
44598SOL    HW135568   3.695   4.514  11.175
44598SOL    HW235569   3.720   4.548  11.030
44599SOL     OW35570   3.299   3.241  10.068
44599SOL    HW135571   3.256   3.243  10.154
44599SOL    HW235572   3.263   3.164  10.024
44600SOL     OW35573   0.955   3.781   3.358
44600SOL    HW135574   1.021   3.729   3.404
44600SOL    HW235575   0.885   3.720   3.337
44601SOL     OW35576   5.007  13.207   1.830
44601SOL    HW135577   5.047  13.177   1.749
44601SOL    HW235578   5.012  13.131   1.889
44602SOL     OW35579   0.725   5.578   5.454
44602SOL    HW135580   0.744   5.671   5.456
44602SOL    HW235581   0.670   5.563   5.531
44603SOL     OW35582  10.070   4.285   7.471
44603SOL    HW135583   9.983   4.264   7.437
44603SOL    HW235584  10.099   4.360   7.419
44604SOL     OW35585  12.540   8.273   8.014
44604SOL    HW135586  12.475   8.232   7.958
44604SOL    HW235587  12.621   8.225   7.997
44605SOL     OW35588   8.892   9.471  14.325
44605SOL    HW135589   8.945   9.398  14.357
44605SOL    HW235590   8.914   9.479  14.232
44606SOL     OW35591   5.862   4.325  10.360
44606SOL    HW135592   5.955   4.340  10.341
44606SOL    HW235593   5.816   4.361  10.284
44607SOL     OW35594  14.175  10.912   7.283
44607SOL    HW135595  14.122  10.987   7.255
44607SOL    HW235596  14.186  10.925   7.377
44608SOL     OW35597   6.761   5.973  12.533
44608SOL    HW135598   6.751   5.990  12.439
44608SOL    HW235599   6.847   6.010  12.554
44609SOL     OW35600  10.913  12.026   5.339
44609SOL    HW135601  10.917  12.008   5.245
44609SOL    HW235602  10.838  12.084   5.350
44610SOL     OW35603  13.899   0.817   6.227
44610SOL    HW135604  13.844   0.879   6.274
44610SOL    HW235605  13.927   0.864   6.148
44611SOL     OW35606   3.761  12.858   0.927
44611SOL    HW135607   3.686  12.847   0.985
44611SOL    HW235608   3.733  12.925   0.865
44612SOL     OW35609  11.209   3.531   6.681
44612SOL    HW135610  11.289   3.584   6.678
44612SOL    HW235611  11.141   3.593   6.709
44613SOL     OW35612   0.154   0.994  10.499
44613SOL    HW135613   0.090   0.965  10.565
44613SOL    HW235614   0.181   1.080  10.529
44614SOL     OW35615   6.058   2.124   4.553
44614SOL    HW135616   6.102   2.046   4.519
44614SOL    HW235617   6.128   2.187   4.567
44615SOL     OW35618   9.371   3.175   9.743
44615SOL    HW135619   9.363   3.135   9.656
44615SOL    HW235620   9.461   3.210   9.745
44616SOL     OW35621  10.838   5.256   9.940
44616SOL    HW135622  10.811   5.328   9.998
44616SOL    HW235623  10.898   5.297   9.878
44617SOL     OW35624   0.326   2.848   3.756
44617SOL    HW135625   0.307   2.923   3.813
44617SOL    HW235626   0.306   2.772   3.810
44618SOL     OW35627   9.955  10.114   2.330
44618SOL    HW135628  10.032  10.058   2.342
44618SOL    HW235629   9.977  10.172   2.258
44619SOL     OW35630   5.374  12.807  12.917
44619SOL    HW135631   5.410  12.729  12.877
44619SOL    HW235632   5.317  12.774  12.987
44620SOL     OW35633   4.208   9.054   6.707
44620SOL    HW135634   4.182   9.091   6.792
44620SOL    HW235635   4.303   9.051   6.711
44621SOL     OW35636   4.863  11.559   9.900
44621SOL    HW135637   4.805  11.520   9.966
44621SOL    HW235638   4.892  11.641   9.939
44622SOL     OW35639  12.639   6.260   1.162
44622SOL    HW135640  12.553   6.281   1.126
44622SOL    HW235641  12.640   6.303   1.248
44623SOL     OW35642   1.844   5.961  11.973
44623SOL    HW135643   1.910   5.906  12.014
44623SOL    HW235644   1.860   5.954  11.879
44624SOL     OW35645   1.258   1.239   0.788
44624SOL    HW135646   1.306   1.302   0.735
44624SOL    HW235647   1.304   1.238   0.872
44625SOL     OW35648   6.404  10.105   6.168
44625SOL    HW135649   6.359  10.109   6.084
44625SOL    HW235650   6.335  10.117   6.233
44626SOL     OW35651   8.228  11.624   6.271
44626SOL    HW135652   8.250  11.673   6.191
44626SOL    HW235653   8.250  11.533   6.250
44627SOL     OW35654   3.529   9.322  13.755
44627SOL    HW135655   3.590   9.396  13.752
44627SOL    HW235656   3.584   9.245  13.738
44628SOL     OW35657  12.831   8.020   7.288
44628SOL    HW135658  12.794   7.946   7.240
44628SOL    HW235659  12.847   7.986   7.376
44629SOL     OW35660  10.923   9.346  13.332
44629SOL    HW135661  10.965   9.396  13.262
44629SOL    HW235662  10.834   9.329  13.300
44630SOL     OW35663   8.654   4.170   5.740
44630SOL    HW135664   8.691   4.187   5.827
44630SOL    HW235665   8.701   4.229   5.681
44631SOL     OW35666   6.263   8.174   8.963
44631SOL    HW135667   6.264   8.270   8.957
44631SOL    HW235668   6.341   8.146   8.915
44632SOL     OW35669   2.895   0.101   6.071
44632SOL    HW135670   2.879   0.195   6.082
44632SOL    HW235671   2.899   0.067   6.160
44633SOL     OW35672  10.202   3.484  12.957
44633SOL    HW135673  10.139   3.443  12.898
44633SOL    HW235674  10.281   3.432  12.948
44634SOL     OW35675  11.451   0.969   6.008
44634SOL    HW135676  11.376   0.973   5.948
44634SOL    HW235677  11.505   1.044   5.985
44635SOL     OW35678  11.161   3.273   2.454
44635SOL    HW135679  11.072   3.256   2.484
44635SOL    HW235680  11.216   3.216   2.508
44636SOL     OW35681   3.414  14.209   8.468
44636SOL    HW135682   3.380  14.220   8.557
44636SOL    HW235683   3.383  14.286   8.421
44637SOL     OW35684   1.685  10.741   8.677
44637SOL    HW135685   1.608  10.686   8.690
44637SOL    HW235686   1.747  10.686   8.630
44638SOL     OW35687   3.048   2.050   1.087
44638SOL    HW135688   3.040   1.973   1.031
44638SOL    HW235689   2.962   2.059   1.128
44639SOL     OW35690   5.996  13.006   2.616
44639SOL    HW135691   5.956  13.092   2.629
44639SOL    HW235692   6.089  13.020   2.636
44640SOL     OW35693  12.936   1.119   7.635
44640SOL    HW135694  12.948   1.169   7.716
44640SOL    HW235695  13.013   1.062   7.630
44641SOL     OW35696   7.380   0.040   8.469
44641SOL    HW135697   7.310   0.037   8.405
44641SOL    HW235698   7.452   0.085   8.424
44642SOL     OW35699   8.060   5.756   8.584
44642SOL    HW135700   7.966   5.768   8.597
44642SOL    HW235701   8.099   5.837   8.617
44643SOL     OW35702   9.848   5.625  13.745
44643SOL    HW135703   9.897   5.543  13.739
44643SOL    HW235704   9.911   5.688  13.781
44644SOL     OW35705  14.579  12.388  13.463
44644SOL    HW135706  14.550  12.347  13.544
44644SOL    HW235707  14.660  12.343  13.441
44645SOL     OW35708  13.734  14.521   2.308
44645SOL    HW135709  13.811  14.465   2.316
44645SOL    HW235710  13.674  14.490   2.375
44646SOL     OW35711   8.164   9.758  12.606
44646SOL    HW135712   8.159   9.851  12.628
44646SOL    HW235713   8.172   9.756  12.511
44647SOL     OW35714  10.533   3.506   2.256
44647SOL    HW135715  10.502   3.543   2.339
44647SOL    HW235716  10.476   3.546   2.189
44648SOL     OW35717   7.423   0.640   3.115
44648SOL    HW135718   7.427   0.619   3.022
44648SOL    HW235719   7.495   0.591   3.154
44649SOL     OW35720   9.529  13.831  14.465
44649SOL    HW135721   9.494  13.799  14.548
44649SOL    HW235722   9.565  13.918  14.486
44650SOL     OW35723   1.849   6.348   5.653
44650SOL    HW135724   1.944   6.357   5.666
44650SOL    HW235725   1.813   6.431   5.684
44651SOL     OW35726  12.565   4.703   6.697
44651SOL    HW135727  12.581   4.609   6.691
44651SOL    HW235728  12.550   4.720   6.790
44652SOL     OW35729   8.722   4.210   6.002
44652SOL    HW135730   8.672   4.266   6.061
44652SOL    HW235731   8.759   4.143   6.059
44653SOL     OW35732   0.420   9.308  14.259
44653SOL    HW135733   0.401   9.312  14.166
44653SOL    HW235734   0.484   9.378  14.274
44654SOL     OW35735   1.512   3.846  14.806
44654SOL    HW135736   1.458   3.815  14.879
44654SOL    HW235737   1.464   3.821  14.727
44655SOL     OW35738   2.289   2.271   0.643
44655SOL    HW135739   2.227   2.212   0.600
44655SOL    HW235740   2.363   2.276   0.583
44656SOL     OW35741   3.076  13.471   5.152
44656SOL    HW135742   3.142  13.448   5.218
44656SOL    HW235743   3.054  13.388   5.111
44657SOL     OW35744   2.918   1.477   0.283
44657SOL    HW135745   2.829   1.470   0.248
44657SOL    HW235746   2.909   1.533   0.361
44658SOL     OW35747   3.713   7.010   5.062
44658SOL    HW135748   3.739   7.034   5.151
44658SOL    HW235749   3.763   6.931   5.042
44659SOL     OW35750   1.846  12.934  11.010
44659SOL    HW135751   1.776  12.978  10.962
44659SOL    HW235752   1.914  12.920  10.945
44660SOL     OW35753   3.366  12.918  14.212
44660SOL    HW135754   3.459  12.919  14.234
44660SOL    HW235755   3.332  12.999  14.250
44661SOL     OW35756  14.440   9.267   0.007
44661SOL    HW135757  14.408   9.197   0.065
44661SOL    HW235758  14.487   9.327   0.066
44662SOL     OW35759   5.854   7.085  10.264
44662SOL    HW135760   5.858   7.128  10.179
44662SOL    HW235761   5.902   7.144  10.323
44663SOL     OW35762   1.511   1.857   9.415
44663SOL    HW135763   1.476   1.788   9.472
44663SOL    HW235764   1.606   1.853   9.428
44664SOL     OW35765   7.811  14.405   8.727
44664SOL    HW135766   7.881  14.357   8.683
44664SOL    HW235767   7.843  14.416   8.816
44665SOL     OW35768  11.330   0.107  10.257
44665SOL    HW135769  11.392   0.124  10.187
44665SOL    HW235770  11.269   0.044  10.220
44666SOL     OW35771   4.789   6.058  12.174
44666SOL    HW135772   4.784   6.153  12.187
44666SOL    HW235773   4.698   6.030  12.165
44667SOL     OW35774   4.559   0.791   8.456
44667SOL    HW135775   4.547   0.849   8.531
44667SOL    HW235776   4.611   0.842   8.394
44668SOL     OW35777   0.665  12.293  13.684
44668SOL    HW135778   0.674  12.274  13.777
44668SOL    HW235779   0.572  12.312  13.672
44669SOL     OW35780  11.506   8.611  12.639
44669SOL    HW135781  11.587   8.618  12.689
44669SOL    HW235782  11.534   8.615  12.548
44670SOL     OW35783   5.488   1.828   5.037
44670SOL    HW135784   5.407   1.801   5.080
44670SOL    HW235785   5.510   1.912   5.078
44671SOL     OW35786   6.639  10.341  11.183
44671SOL    HW135787   6.569  10.399  11.156
44671SOL    HW235788   6.606  10.253  11.167
44672SOL     OW35789   9.846  10.282   5.274
44672SOL    HW135790   9.893  10.251   5.352
44672SOL    HW235791   9.802  10.204   5.240
44673SOL     OW35792   5.986   6.077  10.712
44673SOL    HW135793   5.988   6.172  10.722
44673SOL    HW235794   5.966   6.044  10.800
44674SOL     OW35795   5.737  12.420   3.292
44674SOL    HW135796   5.738  12.510   3.260
44674SOL    HW235797   5.809  12.377   3.244
44675SOL     OW35798   4.515   0.615   6.854
44675SOL    HW135799   4.580   0.584   6.791
44675SOL    HW235800   4.550   0.589   6.939
44676SOL     OW35801   6.266   4.711   9.220
44676SOL    HW135802   6.311   4.794   9.207
44676SOL    HW235803   6.291   4.684   9.308
44677SOL     OW35804  13.578   8.450   3.524
44677SOL    HW135805  13.571   8.359   3.553
44677SOL    HW235806  13.544   8.449   3.435
44678SOL     OW35807  11.873   2.475   3.976
44678SOL    HW135808  11.795   2.468   4.029
44678SOL    HW235809  11.943   2.498   4.038
44679SOL     OW35810   8.362  14.608   1.716
44679SOL    HW135811   8.448  14.617   1.674
44679SOL    HW235812   8.383  14.582   1.806
44680SOL     OW35813  12.208  14.667   8.956
44680SOL    HW135814  12.294  14.667   8.999
44680SOL    HW235815  12.147  14.695   9.024
44681SOL     OW35816   2.157   8.689   1.912
44681SOL    HW135817   2.130   8.599   1.934
44681SOL    HW235818   2.249   8.680   1.885
44682SOL     OW35819   8.169  10.702   9.170
44682SOL    HW135820   8.258  10.713   9.202
44682SOL    HW235821   8.172  10.622   9.117
44683SOL     OW35822   0.071   9.163   5.714
44683SOL    HW135823   0.146   9.126   5.760
44683SOL    HW235824   0.108   9.233   5.660
44684SOL     OW35825   7.682   0.361  11.782
44684SOL    HW135826   7.647   0.313  11.707
44684SOL    HW235827   7.604   0.388  11.832
44685SOL     OW35828   0.268   4.909  12.016
44685SOL    HW135829   0.258   4.998  12.049
44685SOL    HW235830   0.361   4.889  12.029
44686SOL     OW35831   8.516  10.103   7.828
44686SOL    HW135832   8.609  10.094   7.806
44686SOL    HW235833   8.517  10.157   7.908
44687SOL     OW35834  13.942  13.546   5.047
44687SOL    HW135835  14.009  13.498   5.096
44687SOL    HW235836  13.973  13.637   5.048
44688SOL     OW35837   5.259  10.975  13.365
44688SOL    HW135838   5.311  10.960  13.444
44688SOL    HW235839   5.217  10.891  13.348
44689SOL     OW35840   6.091  11.952   0.799
44689SOL    HW135841   6.009  11.904   0.812
44689SOL    HW235842   6.070  12.043   0.820
44690SOL     OW35843  13.312  12.428  11.618
44690SOL    HW135844  13.308  12.336  11.592
44690SOL    HW235845  13.225  12.462  11.598
44691SOL     OW35846  12.639  11.360   2.280
44691SOL    HW135847  12.580  11.288   2.301
44691SOL    HW235848  12.726  11.328   2.304
44692SOL     OW35849  14.490   0.609  11.924
44692SOL    HW135850  14.584   0.626  11.933
44692SOL    HW235851  14.459   0.677  11.865
44693SOL     OW35852   7.276   8.626   7.597
44693SOL    HW135853   7.328   8.576   7.533
44693SOL    HW235854   7.226   8.687   7.543
44694SOL     OW35855   0.652   8.686   6.920
44694SOL    HW135856   0.707   8.632   6.976
44694SOL    HW235857   0.596   8.624   6.874
44695SOL     OW35858  12.114   2.816   1.615
44695SOL    HW135859  12.097   2.892   1.560
44695SOL    HW235860  12.209   2.804   1.609
44696SOL     OW35861   0.333   1.791   5.376
44696SOL    HW135862   0.298   1.804   5.288
44696SOL    HW235863   0.377   1.706   5.373
44697SOL     OW35864   3.437   2.435  10.829
44697SOL    HW135865   3.531   2.424  10.847
44697SOL    HW235866   3.426   2.401  10.740
44698SOL     OW35867   5.021   4.706   2.606
44698SOL    HW135868   5.038   4.801   2.609
44698SOL    HW235869   4.993   4.690   2.516
44699SOL     OW35870   9.687   0.926   5.601
44699SOL    HW135871   9.727   0.879   5.675
44699SOL    HW235872   9.595   0.898   5.603
44700SOL     OW35873   0.712   2.220  13.130
44700SOL    HW135874   0.711   2.316  13.133
44700SOL    HW235875   0.631   2.194  13.175
44701SOL     OW35876   8.125  14.406   9.385
44701SOL    HW135877   8.202  14.424   9.439
44701SOL    HW235878   8.153  14.426   9.296
44702SOL     OW35879   7.490   5.686  11.532
44702SOL    HW135880   7.436   5.723  11.463
44702SOL    HW235881   7.459   5.727  11.613
44703SOL     OW35882  13.891   3.294   9.845
44703SOL    HW135883  13.976   3.329   9.872
44703SOL    HW235884  13.905   3.261   9.756
44704SOL     OW35885  14.639   7.372   8.644
44704SOL    HW135886  14.638   7.368   8.739
44704SOL    HW235887  14.711   7.431   8.623
44705SOL     OW35888   2.464   0.718   0.847
44705SOL    HW135889   2.433   0.627   0.843
44705SOL    HW235890   2.413   0.758   0.917
44706SOL     OW35891   5.625   7.253   9.251
44706SOL    HW135892   5.629   7.159   9.236
44706SOL    HW235893   5.631   7.262   9.346
44707SOL     OW35894   4.357   5.511  13.460
44707SOL    HW135895   4.264   5.497  13.442
44707SOL    HW235896   4.366   5.606  13.467
44708SOL     OW35897   0.103   4.528   8.601
44708SOL    HW135898   0.136   4.491   8.520
44708SOL    HW235899   0.179   4.566   8.644
44709SOL     OW35900  14.423   4.858  10.282
44709SOL    HW135901  14.448   4.936  10.233
44709SOL    HW235902  14.505   4.823  10.316
44710SOL     OW35903   8.687   0.015   6.950
44710SOL    HW135904   8.623   0.009   6.879
44710SOL    HW235905   8.737  14.815   6.944
44711SOL     OW35906   0.333   4.606   8.336
44711SOL    HW135907   0.319   4.694   8.372
44711SOL    HW235908   0.428   4.592   8.345
44712SOL     OW35909   0.030   4.439   9.002
44712SOL    HW135910   0.078   4.493   9.064
44712SOL    HW235911   0.098   4.395   8.951
44713SOL     OW35912  11.779   5.305  12.023
44713SOL    HW135913  11.870   5.314  11.993
44713SOL    HW235914  11.747   5.226  11.981
44714SOL     OW35915  12.309   0.511   3.891
44714SOL    HW135916  12.347   0.431   3.855
44714SOL    HW235917  12.302   0.494   3.985
44715SOL     OW35918  13.289  13.400   4.756
44715SOL    HW135919  13.376  13.424   4.789
44715SOL    HW235920  13.264  13.472   4.698
44716SOL     OW35921   5.129   9.649  13.462
44716SOL    HW135922   5.207   9.605  13.495
44716SOL    HW235923   5.149   9.742  13.471
44717SOL     OW35924   7.437   8.517  10.032
44717SOL    HW135925   7.385   8.437  10.043
44717SOL    HW235926   7.387   8.585  10.077
44718SOL     OW35927  10.252   2.853   1.073
44718SOL    HW135928  10.275   2.944   1.054
44718SOL    HW235929  10.248   2.811   0.987
44719SOL     OW35930   6.102   0.923   1.662
44719SOL    HW135931   6.171   0.968   1.613
44719SOL    HW235932   6.047   0.994   1.695
44720SOL     OW35933   1.273  12.795  12.265
44720SOL    HW135934   1.264  12.874  12.212
44720SOL    HW235935   1.242  12.821  12.352
44721SOL     OW35936   5.194   8.677   1.923
44721SOL    HW135937   5.286   8.653   1.933
44721SOL    HW235938   5.192   8.772   1.932
44722SOL     OW35939  11.581  12.683   9.509
44722SOL    HW135940  11.649  12.700   9.444
44722SOL    HW235941  11.627  12.679   9.593
44723SOL     OW35942   1.645  13.033   6.420
44723SOL    HW135943   1.619  13.066   6.506
44723SOL    HW235944   1.575  13.060   6.361
44724SOL     OW35945  12.712  11.776   4.885
44724SOL    HW135946  12.668  11.855   4.852
44724SOL    HW235947  12.727  11.794   4.977
44725SOL     OW35948  11.990   8.531   9.389
44725SOL    HW135949  12.004   8.450   9.340
44725SOL    HW235950  11.948   8.590   9.326
44726SOL     OW35951   4.349   4.086   5.124
44726SOL    HW135952   4.385   4.026   5.190
44726SOL    HW235953   4.261   4.051   5.107
44727SOL     OW35954  10.315   0.491   7.366
44727SOL    HW135955  10.386   0.430   7.343
44727SOL    HW235956  10.276   0.514   7.281
44728SOL     OW35957  14.724   4.751  14.858
44728SOL    HW135958  14.635   4.722  14.876
44728SOL    HW235959  14.761   4.682  14.802
44729SOL     OW35960  10.922   1.772  12.904
44729SOL    HW135961  10.842   1.796  12.952
44729SOL    HW235962  10.907   1.804  12.815
44730SOL     OW35963   6.561   2.225   7.788
44730SOL    HW135964   6.651   2.196   7.782
44730SOL    HW235965   6.544   2.270   7.705
44731SOL     OW35966   1.654   3.004  11.380
44731SOL    HW135967   1.746   2.982  11.394
44731SOL    HW235968   1.610   2.972  11.459
44732SOL     OW35969   4.852  12.699  10.075
44732SOL    HW135970   4.803  12.623  10.108
44732SOL    HW235971   4.917  12.662  10.016
44733SOL     OW35972  13.086   5.072   6.153
44733SOL    HW135973  13.149   5.142   6.136
44733SOL    HW235974  13.140   4.996   6.176
44734SOL     OW35975   2.175  10.090   2.954
44734SOL    HW135976   2.230  10.126   2.885
44734SOL    HW235977   2.087  10.091   2.918
44735SOL     OW35978   0.059   4.047  14.864
44735SOL    HW135979   0.041   4.090   0.067
44735SOL    HW235980   0.128   4.101  14.824
44736SOL     OW35981  14.442  11.571   9.914
44736SOL    HW135982  14.491  11.498   9.876
44736SOL    HW235983  14.445  11.640   9.847
44737SOL     OW35984   9.754   1.150  10.278
44737SOL    HW135985   9.776   1.215  10.345
44737SOL    HW235986   9.792   1.184  10.197
44738SOL     OW35987   7.568  14.087   1.647
44738SOL    HW135988   7.519  14.005   1.635
44738SOL    HW235989   7.609  14.103   1.562
44739SOL     OW35990  12.470   3.346   2.334
44739SOL    HW135991  12.474   3.441   2.326
44739SOL    HW235992  12.479   3.329   2.428
44740SOL     OW35993  14.444   4.732   8.291
44740SOL    HW135994  14.357   4.694   8.278
44740SOL    HW235995  14.427   4.815   8.335
44741SOL     OW35996  14.039  10.669   1.856
44741SOL    HW135997  14.092  10.676   1.777
44741SOL    HW235998  14.099  10.632   1.922
44742SOL     OW35999  13.743   3.499  12.032
44742SOL    HW136000  13.705   3.544  11.956
44742SOL    HW236001  13.677   3.509  12.100
44743SOL     OW36002  10.569  11.221   5.135
44743SOL    HW136003  10.626  11.224   5.211
44743SOL    HW236004  10.484  11.195   5.169
44744SOL     OW36005  10.754   2.496   8.566
44744SOL    HW136006  10.793   2.487   8.479
44744SOL    HW236007  10.806   2.565   8.608
44745SOL     OW36008   1.981   0.067   1.128
44745SOL    HW136009   2.053   0.019   1.087
44745SOL    HW236010   1.928   0.098   1.055
44746SOL     OW36011  13.284   9.395   3.347
44746SOL    HW136012  13.199   9.393   3.390
44746SOL    HW236013  13.283   9.476   3.296
44747SOL     OW36014   3.187   8.323  14.526
44747SOL    HW136015   3.230   8.373  14.596
44747SOL    HW236016   3.224   8.235  14.535
44748SOL     OW36017  14.203  13.263   6.717
44748SOL    HW136018  14.237  13.181   6.681
44748SOL    HW236019  14.111  13.264   6.692
44749SOL     OW36020   6.597   8.967   5.135
44749SOL    HW136021   6.572   9.039   5.076
44749SOL    HW236022   6.692   8.969   5.137
44750SOL     OW36023   5.842   5.995   5.230
44750SOL    HW136024   5.774   6.012   5.295
44750SOL    HW236025   5.884   6.080   5.216
44751SOL     OW36026   1.336   3.915  12.680
44751SOL    HW136027   1.266   3.953  12.732
44751SOL    HW236028   1.300   3.833  12.646
44752SOL     OW36029  12.621  13.920   3.253
44752SOL    HW136030  12.677  13.988   3.290
44752SOL    HW236031  12.661  13.838   3.282
44753SOL     OW36032  11.497   7.227  12.107
44753SOL    HW136033  11.460   7.200  12.191
44753SOL    HW236034  11.457   7.312  12.090
44754SOL     OW36035  12.662   5.058   7.035
44754SOL    HW136036  12.745   5.068   6.988
44754SOL    HW236037  12.667   4.971   7.075
44755SOL     OW36038  14.419   8.318   2.501
44755SOL    HW136039  14.415   8.347   2.410
44755SOL    HW236040  14.389   8.394   2.552
44756SOL     OW36041  14.645  12.198   0.492
44756SOL    HW136042  14.555  12.207   0.523
44756SOL    HW236043  14.649  12.109   0.455
44757SOL     OW36044   4.796  13.289  12.640
44757SOL    HW136045   4.840  13.307  12.557
44757SOL    HW236046   4.865  13.252  12.696
44758SOL     OW36047   0.052  10.824  11.765
44758SOL    HW136048   0.044  10.919  11.764
44758SOL    HW236049   0.068  10.800  11.674
44759SOL     OW36050   6.087  14.358   4.246
44759SOL    HW136051   6.102  14.415   4.170
44759SOL    HW236052   6.128  14.275   4.222
44760SOL     OW36053  10.298  12.885   3.530
44760SOL    HW136054  10.203  12.888   3.519
44760SOL    HW236055  10.317  12.793   3.549
44761SOL     OW36056  11.039   8.545  11.493
44761SOL    HW136057  11.015   8.453  11.507
44761SOL    HW236058  11.003   8.567  11.408
44762SOL     OW36059  11.762   0.740  11.476
44762SOL    HW136060  11.852   0.718  11.501
44762SOL    HW236061  11.742   0.819  11.527
44763SOL     OW36062   3.147  14.169  13.454
44763SOL    HW136063   3.180  14.199  13.370
44763SOL    HW236064   3.223  14.132  13.499
44764SOL     OW36065   2.465   2.173  12.608
44764SOL    HW136066   2.547   2.187  12.656
44764SOL    HW236067   2.488   2.192  12.517
44765SOL     OW36068   7.520  10.007  11.782
44765SOL    HW136069   7.578  10.015  11.858
44765SOL    HW236070   7.513  10.097  11.749
44766SOL     OW36071  12.087   6.556   1.180
44766SOL    HW136072  12.105   6.649   1.189
44766SOL    HW236073  12.131   6.530   1.100
44767SOL     OW36074   8.758   7.192   7.671
44767SOL    HW136075   8.829   7.149   7.719
44767SOL    HW236076   8.745   7.275   7.718
44768SOL     OW36077   2.871   3.295   9.080
44768SOL    HW136078   2.814   3.244   9.023
44768SOL    HW236079   2.959   3.278   9.048
44769SOL     OW36080  11.886  13.209  10.656
44769SOL    HW136081  11.832  13.175  10.727
44769SOL    HW236082  11.945  13.137  10.634
44770SOL     OW36083  12.874  10.065   6.248
44770SOL    HW136084  12.890  10.159   6.242
44770SOL    HW236085  12.951  10.030   6.292
44771SOL     OW36086   9.698   3.781   6.112
44771SOL    HW136087   9.639   3.837   6.163
44771SOL    HW236088   9.685   3.809   6.021
44772SOL     OW36089   1.144   4.046   2.553
44772SOL    HW136090   1.099   4.086   2.479
44772SOL    HW236091   1.082   3.981   2.586
44773SOL     OW36092   7.857   6.907   6.567
44773SOL    HW136093   7.906   6.848   6.624
44773SOL    HW236094   7.798   6.954   6.626
44774SOL     OW36095   3.405  14.478   9.187
44774SOL    HW136096   3.483  14.426   9.207
44774SOL    HW236097   3.366  14.436   9.110
44775SOL     OW36098   1.737  14.617   3.737
44775SOL    HW136099   1.672  14.588   3.672
44775SOL    HW236100   1.816  14.569   3.714
44776SOL     OW36101   7.518   1.749  11.945
44776SOL    HW136102   7.564   1.705  12.016
44776SOL    HW236103   7.512   1.841  11.972
44777SOL     OW36104   7.132   7.627   9.324
44777SOL    HW136105   7.064   7.654   9.262
44777SOL    HW236106   7.167   7.546   9.287
44778SOL     OW36107   4.550   7.690   2.905
44778SOL    HW136108   4.604   7.649   2.972
44778SOL    HW236109   4.604   7.687   2.826
44779SOL     OW36110   8.736   7.532   1.364
44779SOL    HW136111   8.781   7.475   1.301
44779SOL    HW236112   8.736   7.618   1.323
44780SOL     OW36113   8.073   5.986   8.297
44780SOL    HW136114   8.079   5.892   8.285
44780SOL    HW236115   8.162   6.018   8.283
44781SOL     OW36116   1.656   9.495  12.216
44781SOL    HW136117   1.731   9.496  12.157
44781SOL    HW236118   1.670   9.570  12.274
44782SOL     OW36119   2.928  12.688   7.935
44782SOL    HW136120   2.940  12.599   7.903
44782SOL    HW236121   2.833  12.703   7.931
44783SOL     OW36122   3.468   4.569   7.245
44783SOL    HW136123   3.490   4.640   7.185
44783SOL    HW236124   3.471   4.610   7.332
44784SOL     OW36125  12.303  12.426   4.272
44784SOL    HW136126  12.364  12.395   4.339
44784SOL    HW236127  12.347  12.501   4.232
44785SOL     OW36128   5.277   8.555  13.240
44785SOL    HW136129   5.346   8.617  13.219
44785SOL    HW236130   5.316   8.469  13.224
44786SOL     OW36131   4.936   1.339  11.819
44786SOL    HW136132   4.854   1.297  11.791
44786SOL    HW236133   4.921   1.432  11.806
44787SOL     OW36134   2.192   1.380  11.111
44787SOL    HW136135   2.218   1.292  11.083
44787SOL    HW236136   2.162   1.422  11.030
44788SOL     OW36137  12.569  12.534   2.523
44788SOL    HW136138  12.594  12.496   2.607
44788SOL    HW236139  12.603  12.623   2.526
44789SOL     OW36140  13.941   4.069   7.269
44789SOL    HW136141  13.929   4.122   7.191
44789SOL    HW236142  14.019   4.017   7.252
44790SOL     OW36143  10.486  11.002   8.824
44790SOL    HW136144  10.572  11.028   8.856
44790SOL    HW236145  10.499  10.985   8.730
44791SOL     OW36146  12.868  11.449   1.005
44791SOL    HW136147  12.785  11.402   0.992
44791SOL    HW236148  12.870  11.513   0.934
44792SOL     OW36149  13.244   2.053   8.845
44792SOL    HW136150  13.291   2.058   8.929
44792SOL    HW236151  13.278   2.127   8.795
44793SOL     OW36152  13.487  10.564  14.149
44793SOL    HW136153  13.455  10.528  14.232
44793SOL    HW236154  13.500  10.657  14.166
44794SOL     OW36155   3.903   7.419  14.325
44794SOL    HW136156   3.851   7.438  14.247
44794SOL    HW236157   3.994   7.433  14.297
44795SOL     OW36158   8.413   0.501   5.953
44795SOL    HW136159   8.336   0.468   5.908
44795SOL    HW236160   8.417   0.594   5.930
44796SOL     OW36161  11.663  14.814  10.745
44796SOL    HW136162  11.596  14.853  10.801
44796SOL    HW236163  11.627  14.822  10.656
44797SOL     OW36164   3.283   0.346   5.610
44797SOL    HW136165   3.249   0.394   5.535
44797SOL    HW236166   3.206   0.303   5.648
44798SOL     OW36167  11.923   4.279   4.740
44798SOL    HW136168  11.960   4.266   4.828
44798SOL    HW236169  11.896   4.192   4.713
44799SOL     OW36170  12.150   2.607  13.785
44799SOL    HW136171  12.094   2.667  13.835
44799SOL    HW236172  12.163   2.650  13.701
44800SOL     OW36173   0.407   4.356  13.391
44800SOL    HW136174   0.392   4.281  13.449
44800SOL    HW236175   0.461   4.416  13.443
44801SOL     OW36176   5.206   8.326   5.678
44801SOL    HW136177   5.137   8.362   5.734
44801SOL    HW236178   5.212   8.234   5.703
44802SOL     OW36179  12.799  13.375  14.774
44802SOL    HW136180  12.854  13.451  14.759
44802SOL    HW236181  12.791  13.333  14.688
44803SOL     OW36182  14.249   3.234   5.499
44803SOL    HW136183  14.323   3.188   5.460
44803SOL    HW236184  14.197   3.264   5.424
44804SOL     OW36185  10.762   6.502   0.339
44804SOL    HW136186  10.744   6.422   0.289
44804SOL    HW236187  10.842   6.538   0.301
44805SOL     OW36188  10.468   5.382  11.822
44805SOL    HW136189  10.530   5.417  11.886
44805SOL    HW236190  10.387   5.371  11.870
44806SOL     OW36191   4.661   9.672   8.111
44806SOL    HW136192   4.702   9.593   8.077
44806SOL    HW236193   4.667   9.663   8.206
44807SOL     OW36194   4.275   8.510   6.325
44807SOL    HW136195   4.266   8.476   6.236
44807SOL    HW236196   4.367   8.537   6.331
44808SOL     OW36197   3.466   8.663   0.386
44808SOL    HW136198   3.412   8.740   0.369
44808SOL    HW236199   3.549   8.681   0.341
44809SOL     OW36200   0.618   8.666  14.803
44809SOL    HW136201   0.541   8.669  14.747
44809SOL    HW236202   0.669   8.744  14.779
44810SOL     OW36203  14.583   2.535   3.684
44810SOL    HW136204  14.499   2.497   3.657
44810SOL    HW236205  14.585   2.620   3.640
44811SOL     OW36206   2.108   8.570   1.108
44811SOL    HW136207   2.017   8.586   1.133
44811SOL    HW236208   2.110   8.478   1.082
44812SOL     OW36209  14.514  13.978   8.426
44812SOL    HW136210  14.511  13.883   8.415
44812SOL    HW236211  14.602  14.002   8.396
44813SOL     OW36212   0.103   6.953   7.185
44813SOL    HW136213   0.181   6.955   7.130
44813SOL    HW236214   0.133   6.984   7.270
44814SOL     OW36215   9.236   5.266   4.718
44814SOL    HW136216   9.276   5.323   4.784
44814SOL    HW236217   9.151   5.306   4.701
44815SOL     OW36218   7.743  11.599   5.470
44815SOL    HW136219   7.675  11.631   5.411
44815SOL    HW236220   7.777  11.678   5.512
44816SOL     OW36221   9.792   3.520   0.556
44816SOL    HW136222   9.820   3.567   0.478
44816SOL    HW236223   9.737   3.582   0.604
44817SOL     OW36224   4.377  10.148  12.907
44817SOL    HW136225   4.324  10.208  12.960
44817SOL    HW236226   4.447  10.204  12.872
44818SOL     OW36227   9.016   4.904   9.014
44818SOL    HW136228   8.994   4.814   9.037
44818SOL    HW236229   9.015   4.904   8.918
44819SOL     OW36230  12.588  14.026   6.705
44819SOL    HW136231  12.650  13.979   6.648
44819SOL    HW236232  12.632  14.108   6.725
44820SOL     OW36233  14.690  12.144  10.991
44820SOL    HW136234  14.639  12.097  11.056
44820SOL    HW236235  14.636  12.143  10.912
44821SOL     OW36236  13.943  14.753  13.008
44821SOL    HW136237  13.861  14.731  12.964
44821SOL    HW236238  13.993  14.672  13.009
44822SOL     OW36239   4.013  14.581  11.270
44822SOL    HW136240   4.002  14.571  11.175
44822SOL    HW236241   3.954  14.517  11.308
44823SOL     OW36242   8.371   8.229   3.070
44823SOL    HW136243   8.372   8.133   3.064
44823SOL    HW236244   8.349   8.258   2.981
44824SOL     OW36245  10.962   1.446   9.056
44824SOL    HW136246  10.868   1.434   9.040
44824SOL    HW236247  11.003   1.428   8.971
44825SOL     OW36248   6.326   9.336   1.151
44825SOL    HW136249   6.385   9.355   1.224
44825SOL    HW236250   6.379   9.350   1.073
44826SOL     OW36251  14.508  11.164   1.685
44826SOL    HW136252  14.450  11.226   1.641
44826SOL    HW236253  14.467  11.079   1.670
44827SOL     OW36254  10.846   8.872  11.285
44827SOL    HW136255  10.860   8.777  11.291
44827SOL    HW236256  10.799   8.895  11.365
44828SOL     OW36257   5.902   9.333  11.637
44828SOL    HW136258   5.896   9.396  11.565
44828SOL    HW236259   5.985   9.352  11.679
44829SOL     OW36260   0.535   3.958  10.234
44829SOL    HW136261   0.573   3.877  10.198
44829SOL    HW236262   0.513   3.936  10.324
44830SOL     OW36263   7.740  14.341  14.139
44830SOL    HW136264   7.792  14.261  14.153
44830SOL    HW236265   7.746  14.388  14.222
44831SOL     OW36266   6.768  11.528  10.134
44831SOL    HW136267   6.717  11.590  10.082
44831SOL    HW236268   6.850  11.517  10.086
44832SOL     OW36269  13.266   5.201   2.891
44832SOL    HW136270  13.227   5.170   2.809
44832SOL    HW236271  13.358   5.174   2.886
44833SOL     OW36272  11.829   6.281  11.015
44833SOL    HW136273  11.847   6.303  10.924
44833SOL    HW236274  11.735   6.259  11.016
44834SOL     OW36275   7.050   3.268   8.096
44834SOL    HW136276   7.123   3.225   8.142
44834SOL    HW236277   7.020   3.203   8.033
44835SOL     OW36278   5.847   0.316   4.755
44835SOL    HW136279   5.880   0.394   4.709
44835SOL    HW236280   5.889   0.319   4.840
44836SOL     OW36281   4.829   7.326   9.672
44836SOL    HW136282   4.833   7.254   9.610
44836SOL    HW236283   4.827   7.405   9.618
44837SOL     OW36284  13.605   6.093   3.650
44837SOL    HW136285  13.697   6.067   3.650
44837SOL    HW236286  13.559   6.019   3.689
44838SOL     OW36287   2.950   8.771  13.585
44838SOL    HW136288   2.957   8.682  13.551
44838SOL    HW236289   2.863   8.775  13.625
44839SOL     OW36290   2.826  11.455   9.780
44839SOL    HW136291   2.893  11.487   9.841
44839SOL    HW236292   2.862  11.473   9.694
44840SOL     OW36293  11.163   6.304   3.439
44840SOL    HW136294  11.195   6.379   3.489
44840SOL    HW236295  11.076   6.330   3.409
44841SOL     OW36296   6.611  10.009  10.388
44841SOL    HW136297   6.707  10.016  10.391
44841SOL    HW236298   6.592   9.976  10.301
44842SOL     OW36299   7.462   1.816   5.847
44842SOL    HW136300   7.473   1.758   5.771
44842SOL    HW236301   7.486   1.903   5.814
44843SOL     OW36302   8.313   0.781  10.842
44843SOL    HW136303   8.229   0.754  10.806
44843SOL    HW236304   8.373   0.711  10.819
44844SOL     OW36305  11.581   2.629  10.027
44844SOL    HW136306  11.521   2.618   9.953
44844SOL    HW236307  11.588   2.542  10.066
44845SOL     OW36308   9.497   4.865   8.793
44845SOL    HW136309   9.401   4.857   8.794
44845SOL    HW236310   9.515   4.934   8.730
44846SOL     OW36311  13.595  12.381   8.139
44846SOL    HW136312  13.680  12.424   8.145
44846SOL    HW236313  13.531  12.451   8.155
44847SOL     OW36314  10.658   7.069   2.542
44847SOL    HW136315  10.750   7.061   2.567
44847SOL    HW236316  10.634   7.157   2.570
44848SOL     OW36317   8.825   0.773   3.944
44848SOL    HW136318   8.852   0.682   3.930
44848SOL    HW236319   8.893   0.825   3.900
44849SOL     OW36320   8.046   7.812   4.349
44849SOL    HW136321   7.968   7.863   4.368
44849SOL    HW236322   8.088   7.799   4.434
44850SOL     OW36323   1.601  13.917   7.300
44850SOL    HW136324   1.578  13.935   7.208
44850SOL    HW236325   1.653  13.993   7.326
44851SOL     OW36326  13.100   7.733   5.746
44851SOL    HW136327  13.083   7.720   5.653
44851SOL    HW236328  13.132   7.648   5.776
44852SOL     OW36329   5.472   3.270   4.479
44852SOL    HW136330   5.488   3.231   4.565
44852SOL    HW236331   5.441   3.359   4.499
44853SOL     OW36332   9.293   9.295   0.370
44853SOL    HW136333   9.298   9.289   0.466
44853SOL    HW236334   9.344   9.221   0.339
44854SOL     OW36335   4.034   1.273   1.808
44854SOL    HW136336   4.053   1.340   1.743
44854SOL    HW236337   3.971   1.215   1.765
44855SOL     OW36338   7.414   8.643   9.107
44855SOL    HW136339   7.385   8.661   9.196
44855SOL    HW236340   7.334   8.641   9.055
44856SOL     OW36341  11.506   3.750   1.394
44856SOL    HW136342  11.423   3.715   1.429
44856SOL    HW236343  11.488   3.765   1.301
44857SOL     OW36344   1.715  13.145   1.885
44857SOL    HW136345   1.720  13.051   1.904
44857SOL    HW236346   1.806  13.171   1.871
44858SOL     OW36347   0.613   6.909   7.121
44858SOL    HW136348   0.615   6.816   7.144
44858SOL    HW236349   0.684   6.947   7.172
44859SOL     OW36350   1.765   4.895  11.740
44859SOL    HW136351   1.728   4.818  11.697
44859SOL    HW236352   1.750   4.880  11.834
44860SOL     OW36353  14.514   6.890   1.043
44860SOL    HW136354  14.542   6.804   1.074
44860SOL    HW236355  14.473   6.931   1.119
44861SOL     OW36356   7.225   4.852  12.203
44861SOL    HW136357   7.189   4.833  12.290
44861SOL    HW236358   7.160   4.817  12.142
44862SOL     OW36359   6.054   2.555  11.973
44862SOL    HW136360   6.092   2.549  11.885
44862SOL    HW236361   6.125   2.590  12.027
44863SOL     OW36362   1.332   9.477  12.304
44863SOL    HW136363   1.352   9.570  12.313
44863SOL    HW236364   1.411   9.439  12.265
44864SOL     OW36365   8.757  13.400  11.714
44864SOL    HW136366   8.769  13.314  11.674
44864SOL    HW236367   8.844  13.427  11.741
44865SOL     OW36368   0.221   2.035   7.470
44865SOL    HW136369   0.310   2.054   7.501
44865SOL    HW236370   0.221   2.063   7.378
44866SOL     OW36371   0.633   7.989  10.001
44866SOL    HW136372   0.722   7.957   9.985
44866SOL    HW236373   0.615   8.048   9.928
44867SOL     OW36374  11.228   9.314   1.752
44867SOL    HW136375  11.144   9.307   1.797
44867SOL    HW236376  11.293   9.311   1.822
44868SOL     OW36377   2.679   8.289   0.180
44868SOL    HW136378   2.723   8.244   0.108
44868SOL    HW236379   2.750   8.320   0.236
44869SOL     OW36380  12.425  13.881  13.510
44869SOL    HW136381  12.486  13.824  13.462
44869SOL    HW236382  12.475  13.960  13.528
44870SOL     OW36383  14.225   1.873  12.808
44870SOL    HW136384  14.300   1.840  12.856
44870SOL    HW236385  14.197   1.801  12.752
44871SOL     OW36386   2.874   9.400  10.955
44871SOL    HW136387   2.848   9.492  10.947
44871SOL    HW236388   2.948   9.402  11.017
44872SOL     OW36389   2.556  13.401  13.601
44872SOL    HW136390   2.551  13.328  13.540
44872SOL    HW236391   2.586  13.361  13.684
44873SOL     OW36392   1.694   5.772  14.665
44873SOL    HW136393   1.624   5.754  14.728
44873SOL    HW236394   1.723   5.685  14.637
44874SOL     OW36395  14.025   2.126   2.077
44874SOL    HW136396  14.009   2.033   2.062
44874SOL    HW236397  13.939   2.164   2.093
44875SOL     OW36398   7.364   8.879  10.775
44875SOL    HW136399   7.437   8.824  10.805
44875SOL    HW236400   7.287   8.823  10.784
44876SOL     OW36401   6.321   6.939   5.343
44876SOL    HW136402   6.353   7.028   5.354
44876SOL    HW236403   6.386   6.884   5.386
44877SOL     OW36404   1.302  12.768  10.603
44877SOL    HW136405   1.305  12.727  10.690
44877SOL    HW236406   1.351  12.709  10.546
44878SOL     OW36407   2.937   8.425   6.348
44878SOL    HW136408   3.002   8.356   6.358
44878SOL    HW236409   2.987   8.506   6.344
44879SOL     OW36410   2.021   8.411   8.178
44879SOL    HW136411   1.933   8.380   8.157
44879SOL    HW236412   2.043   8.473   8.109
44880SOL     OW36413   2.196  12.407  12.825
44880SOL    HW136414   2.230  12.390  12.737
44880SOL    HW236415   2.261  12.465  12.865
44881SOL     OW36416   4.080  11.577   1.156
44881SOL    HW136417   4.105  11.540   1.241
44881SOL    HW236418   4.030  11.655   1.178
44882SOL     OW36419   0.366   9.703  10.389
44882SOL    HW136420   0.447   9.668  10.353
44882SOL    HW236421   0.372   9.684  10.483
44883SOL     OW36422   9.631   8.489   6.394
44883SOL    HW136423   9.578   8.487   6.474
44883SOL    HW236424   9.606   8.410   6.347
44884SOL     OW36425  11.758   3.392   9.464
44884SOL    HW136426  11.828   3.442   9.506
44884SOL    HW236427  11.775   3.401   9.370
44885SOL     OW36428   5.372  13.022  13.947
44885SOL    HW136429   5.284  12.986  13.941
44885SOL    HW236430   5.361  13.106  13.992
44886SOL     OW36431  12.544  14.659   5.427
44886SOL    HW136432  12.463  14.615   5.404
44886SOL    HW236433  12.569  14.620   5.511
44887SOL     OW36434  14.526   1.030  10.411
44887SOL    HW136435  14.617   1.014  10.385
44887SOL    HW236436  14.527   1.118  10.448
44888SOL     OW36437   8.406   4.641   2.673
44888SOL    HW136438   8.445   4.594   2.600
44888SOL    HW236439   8.374   4.571   2.731
44889SOL     OW36440  11.106  12.840   3.585
44889SOL    HW136441  11.064  12.904   3.642
44889SOL    HW236442  11.037  12.815   3.523
44890SOL     OW36443   2.867   4.308  11.326
44890SOL    HW136444   2.936   4.374  11.328
44890SOL    HW236445   2.844   4.295  11.418
44891SOL     OW36446   1.699   8.847  11.015
44891SOL    HW136447   1.718   8.778  10.951
44891SOL    HW236448   1.784   8.864  11.057
44892SOL     OW36449  10.241   9.698   9.583
44892SOL    HW136450  10.256   9.618   9.633
44892SOL    HW236451  10.247   9.672   9.491
44893SOL     OW36452  13.776  14.868   9.844
44893SOL    HW136453  13.775   0.004   9.938
44893SOL    HW236454  13.862  14.828   9.828
44894SOL     OW36455   8.051  11.282   6.931
44894SOL    HW136456   8.040  11.374   6.907
44894SOL    HW236457   7.962  11.246   6.931
44895SOL     OW36458   5.484  11.553  11.707
44895SOL    HW136459   5.475  11.458  11.698
44895SOL    HW236460   5.416  11.589  11.650
44896SOL     OW36461   4.141   6.943   4.744
44896SOL    HW136462   4.177   6.855   4.746
44896SOL    HW236463   4.082   6.943   4.668
44897SOL     OW36464   5.442   6.059  12.485
44897SOL    HW136465   5.481   6.020  12.563
44897SOL    HW236466   5.504   6.038  12.414
44898SOL     OW36467   1.165   0.442   4.816
44898SOL    HW136468   1.117   0.408   4.740
44898SOL    HW236469   1.253   0.405   4.807
44899SOL     OW36470   5.476   2.349  13.092
44899SOL    HW136471   5.469   2.401  13.012
44899SOL    HW236472   5.450   2.261  13.065
44900SOL     OW36473  12.655   7.890   4.996
44900SOL    HW136474  12.703   7.958   4.949
44900SOL    HW236475  12.722   7.830   5.028
44901SOL     OW36476   2.414   0.426   3.665
44901SOL    HW136477   2.456   0.354   3.618
44901SOL    HW236478   2.386   0.388   3.748
44902SOL     OW36479   5.150  12.951  13.222
44902SOL    HW136480   5.178  12.938  13.312
44902SOL    HW236481   5.181  12.873  13.176
44903SOL     OW36482   7.275   2.479   3.654
44903SOL    HW136483   7.248   2.485   3.746
44903SOL    HW236484   7.194   2.459   3.607
44904SOL     OW36485   5.812   5.572  10.831
44904SOL    HW136486   5.879   5.631  10.798
44904SOL    HW236487   5.731   5.602  10.791
44905SOL     OW36488  11.464  11.302  14.816
44905SOL    HW136489  11.369  11.311  14.821
44905SOL    HW236490  11.481  11.275  14.726
44906SOL     OW36491   3.902  14.078   2.840
44906SOL    HW136492   3.948  14.124   2.769
44906SOL    HW236493   3.948  14.105   2.920
44907SOL     OW36494   9.323   8.525   6.986
44907SOL    HW136495   9.356   8.613   7.005
44907SOL    HW236496   9.244   8.541   6.934
44908SOL     OW36497   4.287   0.901   0.796
44908SOL    HW136498   4.368   0.868   0.758
44908SOL    HW236499   4.304   0.993   0.814
44909SOL     OW36500  12.142   5.670   0.068
44909SOL    HW136501  12.180   5.651   0.153
44909SOL    HW236502  12.153   5.765   0.058
44910SOL     OW36503   2.487  10.894  12.093
44910SOL    HW136504   2.519  10.864  12.008
44910SOL    HW236505   2.469  10.987  12.081
44911SOL     OW36506  13.452   9.863   4.363
44911SOL    HW136507  13.434   9.781   4.317
44911SOL    HW236508  13.381   9.922   4.337
44912SOL     OW36509   5.526   9.098   3.036
44912SOL    HW136510   5.469   9.174   3.024
44912SOL    HW236511   5.582   9.097   2.958
44913SOL     OW36512   2.150   1.214   0.678
44913SOL    HW136513   2.193   1.184   0.598
44913SOL    HW236514   2.070   1.258   0.647
44914SOL     OW36515  10.629   8.853  13.702
44914SOL    HW136516  10.641   8.826  13.793
44914SOL    HW236517  10.534   8.862  13.692
44915SOL     OW36518   0.405   2.728   9.691
44915SOL    HW136519   0.484   2.675   9.682
44915SOL    HW236520   0.407   2.758   9.782
44916SOL     OW36521   9.320   9.920  10.447
44916SOL    HW136522   9.413   9.902  10.465
44916SOL    HW236523   9.314  10.016  10.445
44917SOL     OW36524   4.128   0.540  13.233
44917SOL    HW136525   4.076   0.620  13.242
44917SOL    HW236526   4.188   0.559  13.161
44918SOL     OW36527  14.253  13.921   7.948
44918SOL    HW136528  14.280  13.865   8.021
44918SOL    HW236529  14.172  13.962   7.978
44919SOL     OW36530   9.423  11.379   2.638
44919SOL    HW136531   9.456  11.458   2.595
44919SOL    HW236532   9.457  11.307   2.584
44920SOL     OW36533   4.296   7.515  14.753
44920SOL    HW136534   4.347   7.481  14.680
44920SOL    HW236535   4.282   7.440  14.810
44921SOL     OW36536   5.076  14.524  13.658
44921SOL    HW136537   5.145  14.522  13.725
44921SOL    HW236538   5.022  14.600  13.682
44922SOL     OW36539   1.495   9.684   3.766
44922SOL    HW136540   1.461   9.638   3.688
44922SOL    HW236541   1.426   9.673   3.832
44923SOL     OW36542  14.727   3.905   9.351
44923SOL    HW136543  14.672   3.828   9.362
44923SOL    HW236544  14.668   3.973   9.319
44924SOL     OW36545   1.901  14.004   2.792
44924SOL    HW136546   1.892  14.097   2.773
44924SOL    HW236547   1.990  13.995   2.826
44925SOL     OW36548   0.989   8.885   7.068
44925SOL    HW136549   0.924   8.822   7.100
44925SOL    HW236550   0.953   8.915   6.984
44926SOL     OW36551   0.351   5.158  11.183
44926SOL    HW136552   0.345   5.165  11.278
44926SOL    HW236553   0.268   5.119  11.156
44927SOL     OW36554   8.540   6.662  13.315
44927SOL    HW136555   8.533   6.661  13.410
44927SOL    HW236556   8.534   6.755  13.292
44928SOL     OW36557  12.140  10.745   9.594
44928SOL    HW136558  12.114  10.658   9.565
44928SOL    HW236559  12.230  10.755   9.563
44929SOL     OW36560  12.741  13.571   0.403
44929SOL    HW136561  12.715  13.661   0.384
44929SOL    HW236562  12.834  13.568   0.379
44930SOL     OW36563   6.242   4.890   1.085
44930SOL    HW136564   6.253   4.947   1.009
44930SOL    HW236565   6.308   4.822   1.073
44931SOL     OW36566  14.767  10.851   8.192
44931SOL    HW136567  14.849  10.900   8.191
44931SOL    HW236568  14.715  10.894   8.260
44932SOL     OW36569   2.275   9.642  14.433
44932SOL    HW136570   2.325   9.575  14.480
44932SOL    HW236571   2.275   9.612  14.342
44933SOL     OW36572   1.688   4.766  11.095
44933SOL    HW136573   1.725   4.689  11.052
44933SOL    HW236574   1.610   4.787  11.044
44934SOL     OW36575   2.075   1.373  10.354
44934SOL    HW136576   1.994   1.398  10.398
44934SOL    HW236577   2.052   1.293  10.306
44935SOL     OW36578   3.039   5.277  10.221
44935SOL    HW136579   3.014   5.282  10.313
44935SOL    HW236580   3.098   5.351  10.208
44936SOL     OW36581   0.276   9.701   2.045
44936SOL    HW136582   0.193   9.703   1.997
44936SOL    HW236583   0.343   9.714   1.977
44937SOL     OW36584  12.655   5.805   6.714
44937SOL    HW136585  12.665   5.880   6.656
44937SOL    HW236586  12.611   5.739   6.660
44938SOL     OW36587   3.720   9.030   0.857
44938SOL    HW136588   3.688   8.976   0.929
44938SOL    HW236589   3.792   8.980   0.819
44939SOL     OW36590  12.079  13.275   7.522
44939SOL    HW136591  12.144  13.305   7.586
44939SOL    HW236592  11.995  13.303   7.559
44940SOL     OW36593   3.483  14.772   2.891
44940SOL    HW136594   3.488  14.689   2.939
44940SOL    HW236595   3.415  14.757   2.825
44941SOL     OW36596   0.458   9.527  11.851
44941SOL    HW136597   0.519   9.599  11.866
44941SOL    HW236598   0.467   9.507  11.758
44942SOL     OW36599  12.585   6.495   5.047
44942SOL    HW136600  12.595   6.413   4.997
44942SOL    HW236601  12.595   6.563   4.981
44943SOL     OW36602   5.014   4.323   9.908
44943SOL    HW136603   5.097   4.370   9.914
44943SOL    HW236604   4.999   4.313   9.814
44944SOL     OW36605  11.754   9.867   4.764
44944SOL    HW136606  11.767   9.773   4.752
44944SOL    HW236607  11.751   9.880   4.859
44945SOL     OW36608  11.921   2.449  10.526
44945SOL    HW136609  12.000   2.490  10.492
44945SOL    HW236610  11.858   2.454  10.454
44946SOL     OW36611   4.528   8.237   5.645
44946SOL    HW136612   4.590   8.296   5.601
44946SOL    HW236613   4.566   8.150   5.633
44947SOL     OW36614   6.800   3.292   7.884
44947SOL    HW136615   6.849   3.364   7.845
44947SOL    HW236616   6.720   3.333   7.918
44948SOL     OW36617   0.479  10.187  10.946
44948SOL    HW136618   0.386  10.202  10.957
44948SOL    HW236619   0.497  10.215  10.856
44949SOL     OW36620   6.540  12.630   7.534
44949SOL    HW136621   6.610  12.576   7.499
44949SOL    HW236622   6.553  12.629   7.629
44950SOL     OW36623   7.603   2.237   9.175
44950SOL    HW136624   7.511   2.232   9.152
44950SOL    HW236625   7.642   2.159   9.137
44951SOL     OW36626  13.502  12.640   9.215
44951SOL    HW136627  13.433  12.574   9.218
44951SOL    HW236628  13.467  12.713   9.267
44952SOL     OW36629   8.719   9.626  12.860
44952SOL    HW136630   8.674   9.705  12.830
44952SOL    HW236631   8.792   9.614  12.799
44953SOL     OW36632   5.024   0.870   5.179
44953SOL    HW136633   5.068   0.858   5.095
44953SOL    HW236634   5.058   0.801   5.235
44954SOL     OW36635   1.592   8.367   7.279
44954SOL    HW136636   1.653   8.296   7.262
44954SOL    HW236637   1.524   8.328   7.334
44955SOL     OW36638   2.823   3.711  11.449
44955SOL    HW136639   2.767   3.640  11.479
44955SOL    HW236640   2.796   3.787  11.501
44956SOL     OW36641   8.892  14.084   6.764
44956SOL    HW136642   8.931  14.162   6.725
44956SOL    HW236643   8.964  14.043   6.813
44957SOL     OW36644  12.245   6.560  11.281
44957SOL    HW136645  12.241   6.599  11.194
44957SOL    HW236646  12.214   6.629  11.340
44958SOL     OW36647   7.392   0.198   9.961
44958SOL    HW136648   7.457   0.268   9.946
44958SOL    HW236649   7.444   0.123   9.990
44959SOL     OW36650  12.580   1.362   4.573
44959SOL    HW136651  12.594   1.457   4.564
44959SOL    HW236652  12.614   1.325   4.492
44960SOL     OW36653   5.037   9.500  10.647
44960SOL    HW136654   5.053   9.406  10.652
44960SOL    HW236655   4.942   9.509  10.655
44961SOL     OW36656   9.715  11.700   0.261
44961SOL    HW136657   9.772  11.704   0.338
44961SOL    HW236658   9.646  11.763   0.279
44962SOL     OW36659  11.611  13.803   1.404
44962SOL    HW136660  11.675  13.747   1.360
44962SOL    HW236661  11.601  13.878   1.347
44963SOL     OW36662   6.832  13.333   7.834
44963SOL    HW136663   6.789  13.277   7.770
44963SOL    HW236664   6.798  13.303   7.919
44964SOL     OW36665   7.943   9.337  14.873
44964SOL    HW136666   7.917   9.428   0.004
44964SOL    HW236667   7.909   9.314  14.786
44965SOL     OW36668  12.694   2.997  10.895
44965SOL    HW136669  12.616   2.948  10.922
44965SOL    HW236670  12.684   3.083  10.937
44966SOL     OW36671   0.380   5.771   9.558
44966SOL    HW136672   0.340   5.780   9.644
44966SOL    HW236673   0.452   5.710   9.571
44967SOL     OW36674  11.307   3.341  11.720
44967SOL    HW136675  11.373   3.376  11.661
44967SOL    HW236676  11.234   3.315  11.664
44968SOL     OW36677  10.478   0.500  10.210
44968SOL    HW136678  10.477   0.594  10.191
44968SOL    HW236679  10.409   0.463  10.155
44969SOL     OW36680  14.868  12.660  12.015
44969SOL    HW136681   0.041  12.725  12.060
44969SOL    HW236682  14.881  12.579  12.064
44970SOL     OW36683   4.820   5.083   8.331
44970SOL    HW136684   4.789   5.160   8.378
44970SOL    HW236685   4.760   5.074   8.257
44971SOL     OW36686   7.375   1.547   6.804
44971SOL    HW136687   7.370   1.513   6.893
44971SOL    HW236688   7.351   1.472   6.749
44972SOL     OW36689  11.325  11.811  10.187
44972SOL    HW136690  11.346  11.895  10.227
44972SOL    HW236691  11.400  11.792  10.131
44973SOL     OW36692   3.726   1.524  13.910
44973SOL    HW136693   3.681   1.606  13.891
44973SOL    HW236694   3.726   1.518  14.005
44974SOL     OW36695   3.886  12.537  10.993
44974SOL    HW136696   3.812  12.483  11.022
44974SOL    HW236697   3.928  12.566  11.074
44975SOL     OW36698  10.674   5.700  14.749
44975SOL    HW136699  10.670   5.664  14.660
44975SOL    HW236700  10.626   5.783  14.744
44976SOL     OW36701   1.257  10.523   9.091
44976SOL    HW136702   1.345  10.486   9.093
44976SOL    HW236703   1.238  10.544   9.183
44977SOL     OW36704   9.322  12.664   3.070
44977SOL    HW136705   9.331  12.625   3.157
44977SOL    HW236706   9.228  12.679   3.060
44978SOL     OW36707   3.205   6.103   9.227
44978SOL    HW136708   3.166   6.057   9.153
44978SOL    HW236709   3.258   6.172   9.187
44979SOL     OW36710   7.119   9.600   2.457
44979SOL    HW136711   7.070   9.614   2.539
44979SOL    HW236712   7.190   9.541   2.482
44980SOL     OW36713   9.882   4.005   7.227
44980SOL    HW136714   9.908   4.047   7.146
44980SOL    HW236715   9.815   3.941   7.201
44981SOL     OW36716   4.937   2.538  10.820
44981SOL    HW136717   4.878   2.474  10.860
44981SOL    HW236718   4.879   2.600  10.776
44982SOL     OW36719   0.665   1.438  13.486
44982SOL    HW136720   0.604   1.377  13.444
44982SOL    HW236721   0.670   1.409  13.577
44983SOL     OW36722   6.789  11.224  11.203
44983SOL    HW136723   6.799  11.245  11.111
44983SOL    HW236724   6.872  11.251  11.244
44984SOL     OW36725  11.799   1.696  11.784
44984SOL    HW136726  11.769   1.606  11.771
44984SOL    HW236727  11.865   1.690  11.853
44985SOL     OW36728   2.501   5.823  12.321
44985SOL    HW136729   2.446   5.770  12.379
44985SOL    HW236730   2.589   5.787  12.333
44986SOL     OW36731   9.341   1.559   5.744
44986SOL    HW136732   9.273   1.608   5.697
44986SOL    HW236733   9.409   1.544   5.679
44987SOL     OW36734   6.976  12.383   7.218
44987SOL    HW136735   6.967  12.385   7.123
44987SOL    HW236736   6.899  12.336   7.249
44988SOL     OW36737   8.393  11.434   1.643
44988SOL    HW136738   8.414  11.358   1.698
44988SOL    HW236739   8.357  11.498   1.704
44989SOL     OW36740   6.060   7.715   3.224
44989SOL    HW136741   6.134   7.758   3.268
44989SOL    HW236742   6.101   7.654   3.162
44990SOL     OW36743   3.776   2.505   8.293
44990SOL    HW136744   3.811   2.524   8.380
44990SOL    HW236745   3.768   2.409   8.291
44991SOL     OW36746  13.795  11.372   4.604
44991SOL    HW136747  13.712  11.367   4.556
44991SOL    HW236748  13.862  11.358   4.537
44992SOL     OW36749   8.996   4.967  14.546
44992SOL    HW136750   8.922   4.921  14.586
44992SOL    HW236751   9.022   5.032  14.612
44993SOL     OW36752   4.766   7.071  11.705
44993SOL    HW136753   4.815   7.050  11.785
44993SOL    HW236754   4.698   7.132  11.734
44994SOL     OW36755  12.845  10.778   5.063
44994SOL    HW136756  12.844  10.703   5.123
44994SOL    HW236757  12.935  10.781   5.030
44995SOL     OW36758   8.119   2.498  14.275
44995SOL    HW136759   8.101   2.460  14.361
44995SOL    HW236760   8.037   2.488  14.227
44996SOL     OW36761   8.230   3.617   2.315
44996SOL    HW136762   8.298   3.672   2.276
44996SOL    HW236763   8.269   3.530   2.317
44997SOL     OW36764   8.927   4.122  13.794
44997SOL    HW136765   8.875   4.185  13.743
44997SOL    HW236766   8.962   4.174  13.867
44998SOL     OW36767   1.556  10.680   5.156
44998SOL    HW136768   1.508  10.745   5.208
44998SOL    HW236769   1.487  10.622   5.123
44999SOL     OW36770   2.970   1.634   4.570
44999SOL    HW136771   2.991   1.663   4.481
44999SOL    HW236772   3.011   1.548   4.578
45000SOL     OW36773   9.509   9.899  10.158
45000SOL    HW136774   9.460   9.859  10.086
45000SOL    HW236775   9.567   9.829  10.189
45001SOL     OW36776   8.918   6.332  12.529
45001SOL    HW136777   8.896   6.298  12.616
45001SOL    HW236778   8.971   6.409  12.546
45002SOL     OW36779   3.200   0.883  12.508
45002SOL    HW136780   3.114   0.914  12.478
45002SOL    HW236781   3.236   0.958  12.556
45003SOL     OW36782   8.880   7.210   9.456
45003SOL    HW136783   8.873   7.305   9.457
45003SOL    HW236784   8.827   7.182   9.382
45004SOL     OW36785   0.934   0.737   0.256
45004SOL    HW136786   1.025   0.711   0.266
45004SOL    HW236787   0.921   0.746   0.162
45005SOL     OW36788   4.442   5.114   4.693
45005SOL    HW136789   4.533   5.122   4.723
45005SOL    HW236790   4.390   5.128   4.772
45006SOL     OW36791  14.092  13.518   0.195
45006SOL    HW136792  13.997  13.507   0.198
45006SOL    HW236793  14.126  13.453   0.256
45007SOL     OW36794   2.223  14.741  10.437
45007SOL    HW136795   2.164  14.798  10.388
45007SOL    HW236796   2.185  14.654  10.429
45008SOL     OW36797   2.080   5.006   3.334
45008SOL    HW136798   2.167   4.968   3.342
45008SOL    HW236799   2.092   5.083   3.278
45009SOL     OW36800   0.680   4.564   2.044
45009SOL    HW136801   0.759   4.554   1.991
45009SOL    HW236802   0.611   4.524   1.990
45010SOL     OW36803   4.396   4.199   4.861
45010SOL    HW136804   4.464   4.258   4.895
45010SOL    HW236805   4.361   4.155   4.939
45011SOL     OW36806   4.212   2.905   2.301
45011SOL    HW136807   4.126   2.948   2.312
45011SOL    HW236808   4.190   2.813   2.287
45012SOL     OW36809   4.098   0.231   4.780
45012SOL    HW136810   4.071   0.176   4.707
45012SOL    HW236811   4.017   0.271   4.811
45013SOL     OW36812   0.276   7.401   9.552
45013SOL    HW136813   0.312   7.312   9.547
45013SOL    HW236814   0.191   7.394   9.508
45014SOL     OW36815  11.373   7.472  12.933
45014SOL    HW136816  11.389   7.567  12.933
45014SOL    HW236817  11.280   7.463  12.916
45015SOL     OW36818   8.137   0.117  13.768
45015SOL    HW136819   8.114   0.165  13.689
45015SOL    HW236820   8.232   0.126  13.775
45016SOL     OW36821  14.709  12.861  12.323
45016SOL    HW136822  14.653  12.924  12.368
45016SOL    HW236823  14.701  12.781  12.373
45017SOL     OW36824  14.761   7.675  12.396
45017SOL    HW136825  14.836   7.711  12.444
45017SOL    HW236826  14.744   7.591  12.438
45018SOL     OW36827  14.763  14.596   9.085
45018SOL    HW136828  14.672  14.590   9.056
45018SOL    HW236829  14.786  14.507   9.111
45019SOL     OW36830   2.338   8.728   7.060
45019SOL    HW136831   2.286   8.809   7.063
45019SOL    HW236832   2.378   8.729   6.974
45020SOL     OW36833   7.057   6.728   4.172
45020SOL    HW136834   7.127   6.676   4.211
45020SOL    HW236835   6.977   6.698   4.214
45021SOL     OW36836   8.430   8.729   2.257
45021SOL    HW136837   8.523   8.752   2.261
45021SOL    HW236838   8.423   8.648   2.307
45022SOL     OW36839   4.799   1.961  14.069
45022SOL    HW136840   4.763   2.046  14.095
45022SOL    HW236841   4.724   1.912  14.035
45023SOL     OW36842  11.128   4.324   1.786
45023SOL    HW136843  11.037   4.298   1.774
45023SOL    HW236844  11.175   4.242   1.799
45024SOL     OW36845   7.248   9.532   9.848
45024SOL    HW136846   7.264   9.488   9.764
45024SOL    HW236847   7.279   9.469   9.914
45025SOL     OW36848  10.325   0.973   7.086
45025SOL    HW136849  10.250   0.954   7.144
45025SOL    HW236850  10.289   1.033   7.021
45026SOL     OW36851   3.033  12.247   7.457
45026SOL    HW136852   2.946  12.209   7.450
45026SOL    HW236853   3.091  12.172   7.473
45027SOL     OW36854  10.833  12.366   3.966
45027SOL    HW136855  10.768  12.432   3.993
45027SOL    HW236856  10.896  12.415   3.913
45028SOL     OW36857   8.804   9.967  10.042
45028SOL    HW136858   8.892   9.935  10.059
45028SOL    HW236859   8.752   9.889  10.023
45029SOL     OW36860   9.217  13.587   3.551
45029SOL    HW136861   9.202  13.515   3.613
45029SOL    HW236862   9.302  13.568   3.513
45030SOL     OW36863   6.149   8.556   7.065
45030SOL    HW136864   6.137   8.532   7.157
45030SOL    HW236865   6.226   8.507   7.038
45031SOL     OW36866   7.465   0.492  12.708
45031SOL    HW136867   7.513   0.409  12.700
45031SOL    HW236868   7.380   0.474  12.668
45032SOL     OW36869   6.447  13.013   6.187
45032SOL    HW136870   6.394  13.058   6.121
45032SOL    HW236871   6.512  13.078   6.214
45033SOL     OW36872  14.296  12.542   2.525
45033SOL    HW136873  14.316  12.486   2.600
45033SOL    HW236874  14.381  12.560   2.485
45034SOL     OW36875   7.384   1.475   7.839
45034SOL    HW136876   7.375   1.382   7.821
45034SOL    HW236877   7.470   1.483   7.880
45035SOL     OW36878  14.190  13.225   5.743
45035SOL    HW136879  14.199  13.304   5.796
45035SOL    HW236880  14.229  13.156   5.796
45036SOL     OW36881   8.764   6.816  12.405
45036SOL    HW136882   8.852   6.820  12.366
45036SOL    HW236883   8.706   6.798  12.331
45037SOL     OW36884   2.949   9.188   4.925
45037SOL    HW136885   2.924   9.193   5.017
45037SOL    HW236886   2.874   9.224   4.878
45038SOL     OW36887  12.703  10.883   3.403
45038SOL    HW136888  12.685  10.803   3.453
45038SOL    HW236889  12.762  10.933   3.459
45039SOL     OW36890  13.387  13.188  10.957
45039SOL    HW136891  13.343  13.229  10.883
45039SOL    HW236892  13.391  13.257  11.023
45040SOL     OW36893  11.591  10.225   4.788
45040SOL    HW136894  11.604  10.319   4.800
45040SOL    HW236895  11.515  10.204   4.843
45041SOL     OW36896   0.368  11.449   7.198
45041SOL    HW136897   0.412  11.453   7.283
45041SOL    HW236898   0.437  11.464   7.134
45042SOL     OW36899   6.982   6.028   5.316
45042SOL    HW136900   7.036   6.025   5.237
45042SOL    HW236901   7.045   6.031   5.388
45043SOL     OW36902   8.494  13.379  11.840
45043SOL    HW136903   8.565  13.369  11.776
45043SOL    HW236904   8.501  13.470  11.869
45044SOL     OW36905   4.789   0.850  13.298
45044SOL    HW136906   4.838   0.868  13.378
45044SOL    HW236907   4.702   0.885  13.315
45045SOL     OW36908   0.812   4.185   2.548
45045SOL    HW136909   0.811   4.222   2.460
45045SOL    HW236910   0.859   4.250   2.600
45046SOL     OW36911   3.780  14.482   5.355
45046SOL    HW136912   3.730  14.451   5.430
45046SOL    HW236913   3.847  14.415   5.341
45047SOL     OW36914   6.488  10.985   0.773
45047SOL    HW136915   6.458  11.064   0.818
45047SOL    HW236916   6.522  11.015   0.689
45048SOL     OW36917  13.961  13.712   7.037
45048SOL    HW136918  14.025  13.748   7.099
45048SOL    HW236919  14.004  13.635   7.000
45049SOL     OW36920   2.325   1.225   9.335
45049SOL    HW136921   2.319   1.231   9.430
45049SOL    HW236922   2.377   1.301   9.309
45050SOL     OW36923   5.639   1.010   4.151
45050SOL    HW136924   5.597   1.063   4.218
45050SOL    HW236925   5.688   1.073   4.098
45051SOL     OW36926  12.289  13.335  14.608
45051SOL    HW136927  12.336  13.261  14.646
45051SOL    HW236928  12.226  13.295  14.548
45052SOL     OW36929   8.201   0.617  10.398
45052SOL    HW136930   8.188   0.574  10.313
45052SOL    HW236931   8.164   0.704  10.386
45053SOL     OW36932   6.311   4.116  14.130
45053SOL    HW136933   6.400   4.129  14.162
45053SOL    HW236934   6.309   4.025  14.099
45054SOL     OW36935   2.006   2.796   5.743
45054SOL    HW136936   1.952   2.768   5.817
45054SOL    HW236937   1.947   2.845   5.687
45055SOL     OW36938   8.243  12.911   8.448
45055SOL    HW136939   8.295  12.956   8.381
45055SOL    HW236940   8.233  12.822   8.414
45056SOL     OW36941  11.070  13.720  14.066
45056SOL    HW136942  11.104  13.800  14.024
45056SOL    HW236943  11.143  13.687  14.118
45057SOL     OW36944   6.547   1.511  13.755
45057SOL    HW136945   6.615   1.575  13.775
45057SOL    HW236946   6.501   1.548  13.680
45058SOL     OW36947   5.759   9.722   0.026
45058SOL    HW136948   5.827   9.670  14.866
45058SOL    HW236949   5.804   9.799   0.060
45059SOL     OW36950   1.823  11.204   6.013
45059SOL    HW136951   1.793  11.203   6.104
45059SOL    HW236952   1.917  11.188   6.019
45060SOL     OW36953   8.389  12.347   6.278
45060SOL    HW136954   8.371  12.431   6.235
45060SOL    HW236955   8.445  12.300   6.215
45061SOL     OW36956   7.017   0.351  13.315
45061SOL    HW136957   6.938   0.379  13.269
45061SOL    HW236958   7.079   0.331  13.245
45062SOL     OW36959   5.299   1.514  14.572
45062SOL    HW136960   5.335   1.529  14.659
45062SOL    HW236961   5.364   1.459  14.528
45063SOL     OW36962   3.972  11.019   4.143
45063SOL    HW136963   3.890  10.976   4.118
45063SOL    HW236964   3.944  11.096   4.192
45064SOL     OW36965   2.194  13.062  14.459
45064SOL    HW136966   2.130  13.104  14.517
45064SOL    HW236967   2.161  12.973  14.447
45065SOL     OW36968   2.980   2.536   1.175
45065SOL    HW136969   3.004   2.504   1.088
45065SOL    HW236970   3.062   2.532   1.225
45066SOL     OW36971   6.170   0.547   3.042
45066SOL    HW136972   6.186   0.561   2.949
45066SOL    HW236973   6.207   0.624   3.085
45067SOL     OW36974   3.036   9.113  11.206
45067SOL    HW136975   3.069   9.163  11.131
45067SOL    HW236976   3.019   9.025  11.170
45068SOL     OW36977   6.231   8.560   7.697
45068SOL    HW136978   6.305   8.501   7.711
45068SOL    HW236979   6.174   8.513   7.635
45069SOL     OW36980  12.391   3.927   2.336
45069SOL    HW136981  12.299   3.953   2.336
45069SOL    HW236982  12.434   3.991   2.280
45070SOL     OW36983   4.984  10.977   9.154
45070SOL    HW136984   4.964  10.899   9.102
45070SOL    HW236985   5.072  10.962   9.188
45071SOL     OW36986   2.126   1.337  12.418
45071SOL    HW136987   2.148   1.387  12.497
45071SOL    HW236988   2.168   1.252  12.431
45072SOL     OW36989   3.493   0.449  13.394
45072SOL    HW136990   3.510   0.429  13.486
45072SOL    HW236991   3.570   0.498  13.365
45073SOL     OW36992  11.464  11.985   1.490
45073SOL    HW136993  11.385  11.936   1.469
45073SOL    HW236994  11.462  11.994   1.585
45074SOL     OW36995  13.311  12.799   2.250
45074SOL    HW136996  13.396  12.820   2.212
45074SOL    HW236997  13.303  12.704   2.240
45075SOL     OW36998   1.647   6.511   1.254
45075SOL    HW136999   1.664   6.568   1.178
45075SOL    HW237000   1.662   6.568   1.329
45076SOL     OW37001   3.164  10.454  11.467
45076SOL    HW137002   3.186  10.467  11.375
45076SOL    HW237003   3.245  10.422  11.506
45077SOL     OW37004  14.724  11.788   1.975
45077SOL    HW137005  14.716  11.875   2.016
45077SOL    HW237006  14.643  11.743   1.999
45078SOL     OW37007   8.651   4.079   4.550
45078SOL    HW137008   8.696   4.001   4.514
45078SOL    HW237009   8.721   4.144   4.559
45079SOL     OW37010   0.494  11.134  12.848
45079SOL    HW137011   0.524  11.062  12.904
45079SOL    HW237012   0.492  11.096  12.760
45080SOL     OW37013   0.934   0.575   9.484
45080SOL    HW137014   0.903   0.571   9.393
45080SOL    HW237015   1.013   0.521   9.485
45081SOL     OW37016   6.206  11.989  11.669
45081SOL    HW137017   6.148  11.967  11.597
45081SOL    HW237018   6.147  12.000  11.744
45082SOL     OW37019   3.381   0.926  14.140
45082SOL    HW137020   3.453   0.955  14.084
45082SOL    HW237021   3.302   0.941  14.088
45083SOL     OW37022   2.404   1.828   9.084
45083SOL    HW137023   2.425   1.795   8.996
45083SOL    HW237024   2.372   1.917   9.069
45084SOL     OW37025  11.931   4.992  12.072
45084SOL    HW137026  11.862   5.022  12.012
45084SOL    HW237027  11.944   4.900  12.049
45085SOL     OW37028  14.675   7.848   3.470
45085SOL    HW137029  14.757   7.831   3.517
45085SOL    HW237030  14.617   7.884   3.537
45086SOL     OW37031   4.843  11.135   1.719
45086SOL    HW137032   4.848  11.223   1.756
45086SOL    HW237033   4.929  11.120   1.681
45087SOL     OW37034   9.282   8.520   8.616
45087SOL    HW137035   9.204   8.507   8.563
45087SOL    HW237036   9.328   8.436   8.613
45088SOL     OW37037  10.093  11.350   5.712
45088SOL    HW137038  10.030  11.319   5.778
45088SOL    HW237039  10.165  11.386   5.764
45089SOL     OW37040  12.112   9.603  10.166
45089SOL    HW137041  12.193   9.567  10.201
45089SOL    HW237042  12.044   9.577  10.228
45090SOL     OW37043   5.571  11.006   0.891
45090SOL    HW137044   5.660  10.983   0.918
45090SOL    HW237045   5.528  11.031   0.972
45091SOL     OW37046   8.708   4.153   0.625
45091SOL    HW137047   8.623   4.187   0.595
45091SOL    HW237048   8.685   4.084   0.688
45092SOL     OW37049   6.394   0.897   1.963
45092SOL    HW137050   6.447   0.818   1.974
45092SOL    HW237051   6.391   0.911   1.869
45093SOL     OW37052  12.892  11.779   9.120
45093SOL    HW137053  12.890  11.775   9.024
45093SOL    HW237054  12.862  11.693   9.148
45094SOL     OW37055   4.596   6.018   5.146
45094SOL    HW137056   4.614   6.011   5.240
45094SOL    HW237057   4.508   6.053   5.141
45095SOL     OW37058   5.798  10.932   9.887
45095SOL    HW137059   5.840  10.854   9.851
45095SOL    HW237060   5.871  10.990   9.908
45096SOL     OW37061  13.444   4.326   0.174
45096SOL    HW137062  13.437   4.235   0.146
45096SOL    HW237063  13.383   4.332   0.248
45097SOL     OW37064   4.669  11.110   2.788
45097SOL    HW137065   4.738  11.068   2.737
45097SOL    HW237066   4.716  11.169   2.848
45098SOL     OW37067  14.534   5.271  10.524
45098SOL    HW137068  14.597   5.226  10.468
45098SOL    HW237069  14.455   5.217  10.521
45099SOL     OW37070  12.956   5.150  11.754
45099SOL    HW137071  12.976   5.175  11.664
45099SOL    HW237072  13.039   5.118  11.789
45100SOL     OW37073  12.808  11.313   5.936
45100SOL    HW137074  12.878  11.360   5.891
45100SOL    HW237075  12.730  11.367   5.922
45101SOL     OW37076  13.380   4.608   4.912
45101SOL    HW137077  13.390   4.594   4.817
45101SOL    HW237078  13.363   4.702   4.919
45102SOL     OW37079  11.451   2.792   1.867
45102SOL    HW137080  11.541   2.761   1.862
45102SOL    HW237081  11.427   2.782   1.959
45103SOL     OW37082   0.373   7.888  10.077
45103SOL    HW137083   0.456   7.927  10.049
45103SOL    HW237084   0.399   7.807  10.121
45104SOL     OW37085   9.530   8.488  13.850
45104SOL    HW137086   9.527   8.540  13.770
45104SOL    HW237087   9.568   8.547  13.916
45105SOL     OW37088   7.422  10.342  13.398
45105SOL    HW137089   7.348  10.367  13.343
45105SOL    HW237090   7.493  10.401  13.372
45106SOL     OW37091  10.083   2.361   9.568
45106SOL    HW137092  10.124   2.281   9.535
45106SOL    HW237093   9.989   2.343   9.566
45107SOL     OW37094   1.850  12.341  13.927
45107SOL    HW137095   1.878  12.356  13.837
45107SOL    HW237096   1.765  12.386  13.933
45108SOL     OW37097  11.531  11.010  12.612
45108SOL    HW137098  11.612  10.960  12.622
45108SOL    HW237099  11.536  11.047  12.524
45109SOL     OW37100  14.360   0.027   8.963
45109SOL    HW137101  14.269   0.028   8.933
45109SOL    HW237102  14.411   0.012   8.883
45110SOL     OW37103   2.502  13.663   0.299
45110SOL    HW137104   2.585  13.705   0.278
45110SOL    HW237105   2.451  13.669   0.218
45111SOL     OW37106   4.846  13.256  11.832
45111SOL    HW137107   4.897  13.333  11.805
45111SOL    HW237108   4.835  13.205  11.752
45112SOL     OW37109  11.650   3.281   7.240
45112SOL    HW137110  11.576   3.267   7.298
45112SOL    HW237111  11.726   3.249   7.289
45113SOL     OW37112   4.463   3.904   9.672
45113SOL    HW137113   4.421   3.859   9.598
45113SOL    HW237114   4.427   3.993   9.669
45114SOL     OW37115  13.439   0.903   0.897
45114SOL    HW137116  13.459   0.868   0.810
45114SOL    HW237117  13.503   0.863   0.955
45115SOL     OW37118   9.255   5.888   5.993
45115SOL    HW137119   9.301   5.930   5.920
45115SOL    HW237120   9.300   5.805   6.005
45116SOL     OW37121  11.477   1.076   5.399
45116SOL    HW137122  11.544   1.127   5.354
45116SOL    HW237123  11.473   0.994   5.349
45117SOL     OW37124   8.942  12.617   9.974
45117SOL    HW137125   8.949  12.543  10.034
45117SOL    HW237126   9.013  12.676  10.001
45118SOL     OW37127   0.904   0.539   1.030
45118SOL    HW137128   0.860   0.479   0.969
45118SOL    HW237129   0.882   0.626   0.998
45119SOL     OW37130   2.562  14.520   6.869
45119SOL    HW137131   2.620  14.459   6.914
45119SOL    HW237132   2.578  14.604   6.911
45120SOL     OW37133   6.168   0.333   0.752
45120SOL    HW137134   6.223   0.255   0.745
45120SOL    HW237135   6.093   0.315   0.695
45121SOL     OW37136  14.679  14.460   1.260
45121SOL    HW137137  14.655  14.386   1.315
45121SOL    HW237138  14.596  14.497   1.231
45122SOL     OW37139   0.430  14.623   5.216
45122SOL    HW137140   0.468  14.611   5.129
45122SOL    HW237141   0.336  14.633   5.200
45123SOL     OW37142   4.485   3.247  13.396
45123SOL    HW137143   4.412   3.194  13.365
45123SOL    HW237144   4.534   3.270  13.317
45124SOL     OW37145  10.231   3.097  14.610
45124SOL    HW137146  10.203   3.032  14.675
45124SOL    HW237147  10.274   3.046  14.542
45125SOL     OW37148   5.624  12.034  13.626
45125SOL    HW137149   5.600  11.947  13.593
45125SOL    HW237150   5.656  12.018  13.715
45126SOL     OW37151   5.449   0.649   6.657
45126SOL    HW137152   5.452   0.638   6.752
45126SOL    HW237153   5.541   0.646   6.629
45127SOL     OW37154  11.480   5.822  10.612
45127SOL    HW137155  11.532   5.896  10.580
45127SOL    HW237156  11.494   5.823  10.707
45128SOL     OW37157  12.578  13.267   6.311
45128SOL    HW137158  12.628  13.337   6.270
45128SOL    HW237159  12.514  13.241   6.244
45129SOL     OW37160  10.986  12.354  12.242
45129SOL    HW137161  11.013  12.378  12.331
45129SOL    HW237162  11.060  12.379  12.187
45130SOL     OW37163   9.375   5.097   2.426
45130SOL    HW137164   9.307   5.113   2.492
45130SOL    HW237165   9.457   5.120   2.469
45131SOL     OW37166   3.619   5.836   0.677
45131SOL    HW137167   3.679   5.892   0.628
45131SOL    HW237168   3.535   5.844   0.632
45132SOL     OW37169   4.502  13.249  14.267
45132SOL    HW137170   4.552  13.171  14.246
45132SOL    HW237171   4.411  13.219  14.272
45133SOL     OW37172  12.475   4.871  11.366
45133SOL    HW137173  12.463   4.959  11.402
45133SOL    HW237174  12.408   4.864  11.297
45134SOL     OW37175   4.512   2.575   9.848
45134SOL    HW137176   4.469   2.493   9.875
45134SOL    HW237177   4.515   2.569   9.752
45135SOL     OW37178  12.101  13.097  14.862
45135SOL    HW137179  12.079  13.045   0.057
45135SOL    HW237180  12.194  13.081  14.847
45136SOL     OW37181   4.217  12.296   2.405
45136SOL    HW137182   4.166  12.219   2.431
45136SOL    HW237183   4.252  12.274   2.319
45137SOL     OW37184   9.023   3.628   9.354
45137SOL    HW137185   8.951   3.569   9.331
45137SOL    HW237186   9.093   3.570   9.383
45138SOL     OW37187   3.868  10.144   4.584
45138SOL    HW137188   3.960  10.146   4.559
45138SOL    HW237189   3.824  10.200   4.521
45139SOL     OW37190  10.432   5.723  12.477
45139SOL    HW137191  10.515   5.696  12.439
45139SOL    HW237192  10.448   5.722  12.572
45140SOL     OW37193   9.960  12.180   1.696
45140SOL    HW137194  10.006  12.099   1.720
45140SOL    HW237195   9.916  12.159   1.614
45141SOL     OW37196   9.648  12.588   1.484
45141SOL    HW137197   9.609  12.526   1.423
45141SOL    HW237198   9.730  12.614   1.443
45142SOL     OW37199  12.944   9.558   2.045
45142SOL    HW137200  12.921   9.556   2.138
45142SOL    HW237201  12.862   9.580   2.001
45143SOL     OW37202  11.645   4.816   7.078
45143SOL    HW137203  11.587   4.840   7.150
45143SOL    HW237204  11.732   4.807   7.119
45144SOL     OW37205  14.201   5.768   4.537
45144SOL    HW137206  14.143   5.773   4.613
45144SOL    HW237207  14.279   5.723   4.570
45145SOL     OW37208   9.201  11.814  14.048
45145SOL    HW137209   9.144  11.849  14.117
45145SOL    HW237210   9.290  11.829  14.080
45146SOL     OW37211   4.617   2.630   6.419
45146SOL    HW137212   4.588   2.600   6.333
45146SOL    HW237213   4.709   2.606   6.424
45147SOL     OW37214  14.810  12.421   6.753
45147SOL    HW137215  14.813  12.327   6.770
45147SOL    HW237216  14.716  12.440   6.742
45148SOL     OW37217  12.303   9.680   7.236
45148SOL    HW137218  12.238   9.727   7.184
45148SOL    HW237219  12.322   9.601   7.184
45149SOL     OW37220   5.959   3.778   4.887
45149SOL    HW137221   6.041   3.823   4.907
45149SOL    HW237222   5.892   3.846   4.895
45150SOL     OW37223   3.222   4.944   4.938
45150SOL    HW137224   3.237   4.883   5.010
45150SOL    HW237225   3.304   4.994   4.932
45151SOL     OW37226   5.219  12.963   8.843
45151SOL    HW137227   5.177  13.040   8.883
45151SOL    HW237228   5.238  12.905   8.917
45152SOL     OW37229  11.904   0.288   2.871
45152SOL    HW137230  11.995   0.317   2.864
45152SOL    HW237231  11.853   0.362   2.838
45153SOL     OW37232  14.866   1.525   4.252
45153SOL    HW137233   0.066   1.570   4.231
45153SOL    HW237234  14.807   1.595   4.281
45154SOL     OW37235  13.225   9.646  10.536
45154SOL    HW137236  13.297   9.685  10.487
45154SOL    HW237237  13.172   9.601  10.470
45155SOL     OW37238  14.664  14.687   0.433
45155SOL    HW137239  14.746  14.653   0.397
45155SOL    HW237240  14.667  14.781   0.413
45156SOL     OW37241   9.653   4.608   2.358
45156SOL    HW137242   9.610   4.523   2.353
45156SOL    HW237243   9.605   4.663   2.296
45157SOL     OW37244  10.562  11.348  11.707
45157SOL    HW137245  10.485  11.308  11.666
45157SOL    HW237246  10.559  11.440  11.680
45158SOL     OW37247  14.117  14.822   2.048
45158SOL    HW137248  14.048  14.871   2.093
45158SOL    HW237249  14.175  14.793   2.117
45159SOL     OW37250   8.507  10.493  13.557
45159SOL    HW137251   8.546  10.567  13.604
45159SOL    HW237252   8.572  10.470  13.490
45160SOL     OW37253   4.667   5.987  14.349
45160SOL    HW137254   4.700   5.902  14.321
45160SOL    HW237255   4.741   6.029  14.392
45161SOL     OW37256  10.371  11.826   0.648
45161SOL    HW137257  10.404  11.816   0.559
45161SOL    HW237258  10.349  11.919   0.655
45162SOL     OW37259   6.027  13.430   0.486
45162SOL    HW137260   6.065  13.518   0.487
45162SOL    HW237261   5.947  13.438   0.537
45163SOL     OW37262   9.356  14.483   7.242
45163SOL    HW137263   9.367  14.518   7.153
45163SOL    HW237264   9.443  14.490   7.281
45164SOL     OW37265  11.583  13.815   4.468
45164SOL    HW137266  11.609  13.731   4.429
45164SOL    HW237267  11.493  13.828   4.439
45165SOL     OW37268  10.818  13.266   1.775
45165SOL    HW137269  10.756  13.201   1.809
45165SOL    HW237270  10.848  13.229   1.691
45166SOL     OW37271  11.585  10.178   2.473
45166SOL    HW137272  11.521  10.106   2.472
45166SOL    HW237273  11.533  10.256   2.455
45167SOL     OW37274  11.199  10.387   2.969
45167SOL    HW137275  11.115  10.364   2.929
45167SOL    HW237276  11.177  10.415   3.058
45168SOL     OW37277   8.006  13.631  14.090
45168SOL    HW137278   8.086  13.579  14.077
45168SOL    HW237279   8.020  13.676  14.173
45169SOL     OW37280   3.918   1.573  12.425
45169SOL    HW137281   3.918   1.567  12.520
45169SOL    HW237282   4.001   1.534  12.399
45170SOL     OW37283   9.862   8.750   4.960
45170SOL    HW137284   9.882   8.844   4.955
45170SOL    HW237285   9.797   8.743   5.030
45171SOL     OW37286   8.334   2.813   7.870
45171SOL    HW137287   8.386   2.878   7.918
45171SOL    HW237288   8.296   2.862   7.797
45172SOL     OW37289  11.805  13.435  12.557
45172SOL    HW137290  11.737  13.489  12.515
45172SOL    HW237291  11.813  13.472  12.645
45173SOL     OW37292  11.171  10.745  12.843
45173SOL    HW137293  11.180  10.649  12.845
45173SOL    HW237294  11.078  10.760  12.828
45174SOL     OW37295   9.649   2.024   2.670
45174SOL    HW137296   9.584   1.965   2.708
45174SOL    HW237297   9.701   2.055   2.744
45175SOL     OW37298   1.234   7.231  11.797
45175SOL    HW137299   1.142   7.219  11.821
45175SOL    HW237300   1.231   7.267  11.709
45176SOL     OW37301   0.867   0.637   1.860
45176SOL    HW137302   0.861   0.679   1.774
45176SOL    HW237303   0.949   0.670   1.897
45177SOL     OW37304   2.622   0.216   5.536
45177SOL    HW137305   2.604   0.143   5.477
45177SOL    HW237306   2.545   0.272   5.530
45178SOL     OW37307   2.265   7.879   6.645
45178SOL    HW137308   2.348   7.925   6.655
45178SOL    HW237309   2.252   7.875   6.550
45179SOL     OW37310   4.541   1.497   2.415
45179SOL    HW137311   4.460   1.496   2.466
45179SOL    HW237312   4.528   1.429   2.349
45180SOL     OW37313  13.983  14.841   1.063
45180SOL    HW137314  14.074  14.813   1.074
45180SOL    HW237315  13.932  14.776   1.111
45181SOL     OW37316   4.151  10.770  10.494
45181SOL    HW137317   4.076  10.791  10.550
45181SOL    HW237318   4.223  10.758  10.555
45182SOL     OW37319   0.247   3.093   2.564
45182SOL    HW137320   0.210   3.171   2.603
45182SOL    HW237321   0.227   3.101   2.470
45183SOL     OW37322   4.929   7.221   3.530
45183SOL    HW137323   4.943   7.130   3.507
45183SOL    HW237324   4.861   7.252   3.471
45184SOL     OW37325  12.222  10.066   7.416
45184SOL    HW137326  12.201  10.086   7.325
45184SOL    HW237327  12.313  10.039   7.415
45185SOL     OW37328   5.664   3.539  12.310
45185SOL    HW137329   5.616   3.577  12.237
45185SOL    HW237330   5.719   3.610  12.343
45186SOL     OW37331  11.574   2.776   3.705
45186SOL    HW137332  11.550   2.853   3.654
45186SOL    HW237333  11.552   2.702   3.648
45187SOL     OW37334   2.299   2.772   6.485
45187SOL    HW137335   2.306   2.685   6.446
45187SOL    HW237336   2.365   2.824   6.440
45188SOL     OW37337   7.180   3.920   3.351
45188SOL    HW137338   7.246   3.987   3.334
45188SOL    HW237339   7.117   3.930   3.280
45189SOL     OW37340   9.003   2.902   4.623
45189SOL    HW137341   8.923   2.850   4.634
45189SOL    HW237342   8.974   2.981   4.576
45190SOL     OW37343  10.547   5.701   2.627
45190SOL    HW137344  10.550   5.611   2.660
45190SOL    HW237345  10.462   5.734   2.656
45191SOL     OW37346   9.437  14.823   7.793
45191SOL    HW137347   9.436   0.008   7.862
45191SOL    HW237348   9.346  14.798   7.782
45192SOL     OW37349   7.966  14.648  11.852
45192SOL    HW137350   7.880  14.689  11.861
45192SOL    HW237351   7.961  14.569  11.904
45193SOL     OW37352  14.608   2.623  13.857
45193SOL    HW137353  14.665   2.548  13.876
45193SOL    HW237354  14.667   2.690  13.823
45194SOL     OW37355   0.647  12.763   3.070
45194SOL    HW137356   0.638  12.855   3.045
45194SOL    HW237357   0.731  12.736   3.034
45195SOL     OW37358   0.007   7.931   6.114
45195SOL    HW137359  14.838   7.886   6.182
45195SOL    HW237360   0.086   7.877   6.103
45196SOL     OW37361   2.220   1.786  12.719
45196SOL    HW137362   2.180   1.869  12.696
45196SOL    HW237363   2.160   1.747  12.783
45197SOL     OW37364   3.080   5.602   7.346
45197SOL    HW137365   3.068   5.511   7.318
45197SOL    HW237366   2.996   5.644   7.329
45198SOL     OW37367   1.535   5.392  11.864
45198SOL    HW137368   1.607   5.444  11.900
45198SOL    HW237369   1.555   5.385  11.771
45199SOL     OW37370   5.806  14.340   0.312
45199SOL    HW137371   5.834  14.252   0.334
45199SOL    HW237372   5.722  14.328   0.266
45200SOL     OW37373   2.311  14.147   7.543
45200SOL    HW137374   2.247  14.086   7.508
45200SOL    HW237375   2.386  14.092   7.567
45201SOL     OW37376   2.107  13.128   2.618
45201SOL    HW137377   2.187  13.117   2.567
45201SOL    HW237378   2.072  13.039   2.627
45202SOL     OW37379   2.139  14.723   5.650
45202SOL    HW137380   2.117  14.633   5.671
45202SOL    HW237381   2.147  14.724   5.555
45203SOL     OW37382   3.297   1.188   8.219
45203SOL    HW137383   3.302   1.099   8.183
45203SOL    HW237384   3.241   1.236   8.157
45204SOL     OW37385  13.619   0.923   3.437
45204SOL    HW137386  13.583   0.899   3.522
45204SOL    HW237387  13.617   0.842   3.386
45205SOL     OW37388  12.883   5.106   6.884
45205SOL    HW137389  12.929   5.175   6.835
45205SOL    HW237390  12.913   5.025   6.843
45206SOL     OW37391  14.795  13.464   9.640
45206SOL    HW137392  14.881  13.497   9.615
45206SOL    HW237393  14.733  13.525   9.600
45207SOL     OW37394   2.220  10.685  10.218
45207SOL    HW137395   2.163  10.697  10.142
45207SOL    HW237396   2.262  10.770  10.231
45208SOL     OW37397   7.637  14.534   3.323
45208SOL    HW137398   7.665  14.480   3.249
45208SOL    HW237399   7.693  14.611   3.319
45209SOL     OW37400  12.391   5.191   5.622
45209SOL    HW137401  12.374   5.193   5.528
45209SOL    HW237402  12.336   5.261   5.658
45210SOL     OW37403   6.888   0.783  12.277
45210SOL    HW137404   6.916   0.871  12.303
45210SOL    HW237405   6.792   0.789  12.275
45211SOL     OW37406   0.647  14.004   0.812
45211SOL    HW137407   0.671  13.959   0.730
45211SOL    HW237408   0.610  13.935   0.867
45212SOL     OW37409   8.267   9.706  11.450
45212SOL    HW137410   8.313   9.786  11.425
45212SOL    HW237411   8.291   9.643  11.382
45213SOL     OW37412   0.859   7.448   1.118
45213SOL    HW137413   0.829   7.392   1.190
45213SOL    HW237414   0.783   7.454   1.060
45214SOL     OW37415  13.702  10.989   6.483
45214SOL    HW137416  13.645  10.941   6.424
45214SOL    HW237417  13.740  10.921   6.540
45215SOL     OW37418   8.363  13.963  11.525
45215SOL    HW137419   8.381  13.874  11.554
45215SOL    HW237420   8.302  13.997  11.590
45216SOL     OW37421  13.521   9.611  10.083
45216SOL    HW137422  13.518   9.605   9.988
45216SOL    HW237423  13.453   9.551  10.113
45217SOL     OW37424  10.078   4.901   6.853
45217SOL    HW137425  10.118   4.987   6.838
45217SOL    HW237426  10.007   4.897   6.789
45218SOL     OW37427   7.917   4.184   2.386
45218SOL    HW137428   7.979   4.162   2.455
45218SOL    HW237429   7.950   4.266   2.349
45219SOL     OW37430  12.452  13.677  13.980
45219SOL    HW137431  12.507  13.660  13.903
45219SOL    HW237432  12.373  13.717  13.944
45220SOL     OW37433  12.099   1.942   6.124
45220SOL    HW137434  12.126   1.999   6.053
45220SOL    HW237435  12.011   1.911   6.099
45221SOL     OW37436   1.162   2.328   0.467
45221SOL    HW137437   1.097   2.366   0.525
45221SOL    HW237438   1.231   2.394   0.462
45222SOL     OW37439  10.051   2.318   1.338
45222SOL    HW137440  10.073   2.399   1.292
45222SOL    HW237441  10.121   2.306   1.401
45223SOL     OW37442   9.283  13.183  13.842
45223SOL    HW137443   9.221  13.131  13.791
45223SOL    HW237444   9.369  13.146  13.821
45224SOL     OW37445  13.633   9.990  10.774
45224SOL    HW137446  13.588   9.917  10.817
45224SOL    HW237447  13.668   9.953  10.693
45225SOL     OW37448  12.767  14.649   0.786
45225SOL    HW137449  12.804  14.696   0.712
45225SOL    HW237450  12.711  14.713   0.830
45226SOL     OW37451  10.041  13.362  12.096
45226SOL    HW137452  10.067  13.372  12.188
45226SOL    HW237453  10.091  13.286  12.065
45227SOL     OW37454   9.834   1.926   8.171
45227SOL    HW137455   9.855   1.923   8.078
45227SOL    HW237456   9.775   2.000   8.181
45228SOL     OW37457  11.510   2.927   0.923
45228SOL    HW137458  11.434   2.905   0.977
45228SOL    HW237459  11.479   2.996   0.865
45229SOL     OW37460   3.100   7.284  10.754
45229SOL    HW137461   3.014   7.244  10.744
45229SOL    HW237462   3.147   7.258  10.674
45230SOL     OW37463   3.116   9.795   1.337
45230SOL    HW137464   3.123   9.702   1.316
45230SOL    HW237465   3.207   9.827   1.333
45231SOL     OW37466  13.994   8.815  13.611
45231SOL    HW137467  14.009   8.897  13.658
45231SOL    HW237468  13.900   8.812  13.597
45232SOL     OW37469  12.331   0.825   5.181
45232SOL    HW137470  12.361   0.869   5.101
45232SOL    HW237471  12.319   0.734   5.155
45233SOL     OW37472  13.528   2.623  12.543
45233SOL    HW137473  13.584   2.603  12.618
45233SOL    HW237474  13.590   2.641  12.472
45234SOL     OW37475   0.049   2.230   6.510
45234SOL    HW137476  14.865   2.258   6.446
45234SOL    HW237477   0.015   2.259   6.594
45235SOL     OW37478   1.290  11.031   9.270
45235SOL    HW137479   1.379  11.066   9.280
45235SOL    HW237480   1.294  10.944   9.311
45236SOL     OW37481   6.080   9.141  12.361
45236SOL    HW137482   6.046   9.134  12.271
45236SOL    HW237483   6.058   9.057  12.401
45237SOL     OW37484   5.144   2.003   7.238
45237SOL    HW137485   5.158   1.921   7.191
45237SOL    HW237486   5.053   2.000   7.266
45238SOL     OW37487   3.017   9.258   2.286
45238SOL    HW137488   2.979   9.176   2.254
45238SOL    HW237489   2.960   9.326   2.249
45239SOL     OW37490  10.899  12.806  10.767
45239SOL    HW137491  10.821  12.789  10.714
45239SOL    HW237492  10.969  12.757  10.725
45240SOL     OW37493  13.972  10.733  11.832
45240SOL    HW137494  13.898  10.792  11.841
45240SOL    HW237495  13.937  10.656  11.787
45241SOL     OW37496   9.823   9.887   0.461
45241SOL    HW137497   9.826   9.913   0.369
45241SOL    HW237498   9.819   9.791   0.459
45242SOL     OW37499  13.336   3.179  13.961
45242SOL    HW137500  13.259   3.125  13.942
45242SOL    HW237501  13.410   3.119  13.951
45243SOL     OW37502   3.553   8.457   3.793
45243SOL    HW137503   3.571   8.409   3.712
45243SOL    HW237504   3.627   8.435   3.850
45244SOL     OW37505  13.456   8.372   8.342
45244SOL    HW137506  13.508   8.354   8.420
45244SOL    HW237507  13.520   8.370   8.270
45245SOL     OW37508  14.120   3.511  11.289
45245SOL    HW137509  14.141   3.542  11.376
45245SOL    HW237510  14.040   3.557  11.265
45246SOL     OW37511   6.450  12.280   5.167
45246SOL    HW137512   6.453  12.187   5.190
45246SOL    HW237513   6.538  12.299   5.134
45247SOL     OW37514   4.038   1.827   7.538
45247SOL    HW137515   4.007   1.916   7.553
45247SOL    HW237516   4.055   1.822   7.444
45248SOL     OW37517   6.408  11.073   4.969
45248SOL    HW137518   6.388  11.018   4.894
45248SOL    HW237519   6.332  11.065   5.026
45249SOL     OW37520   3.691  10.179   8.222
45249SOL    HW137521   3.739  10.262   8.230
45249SOL    HW237522   3.601  10.205   8.200
45250SOL     OW37523  12.113  13.734  11.474
45250SOL    HW137524  12.155  13.655  11.508
45250SOL    HW237525  12.184  13.797  11.464
45251SOL     OW37526   6.372   4.228  10.163
45251SOL    HW137527   6.466   4.230  10.143
45251SOL    HW237528   6.366   4.262  10.252
45252SOL     OW37529   1.858  10.671   2.857
45252SOL    HW137530   1.875  10.701   2.946
45252SOL    HW237531   1.894  10.740   2.801
45253SOL     OW37532   3.856   8.181   1.817
45253SOL    HW137533   3.899   8.096   1.811
45253SOL    HW237534   3.770   8.161   1.855
45254SOL     OW37535  14.511   7.592   8.519
45254SOL    HW137536  14.527   7.500   8.536
45254SOL    HW237537  14.553   7.609   8.435
45255SOL     OW37538   3.928   0.143   3.974
45255SOL    HW137539   3.960   0.223   3.933
45255SOL    HW237540   3.992   0.125   4.044
45256SOL     OW37541  10.541   3.617   0.034
45256SOL    HW137542  10.487   3.643  14.841
45256SOL    HW237543  10.521   3.525   0.048
45257SOL     OW37544  10.843   7.962   9.570
45257SOL    HW137545  10.755   7.937   9.595
45257SOL    HW237546  10.874   8.018   9.641
45258SOL     OW37547   9.303   1.343  14.040
45258SOL    HW137548   9.291   1.297  13.957
45258SOL    HW237549   9.326   1.274  14.102
45259SOL     OW37550   7.168  12.532   5.124
45259SOL    HW137551   7.189  12.460   5.065
45259SOL    HW237552   7.251  12.579   5.134
45260SOL     OW37553   0.820  13.266  13.897
45260SOL    HW137554   0.824  13.351  13.853
45260SOL    HW237555   0.903  13.224  13.876
45261SOL     OW37556  10.573  13.651  10.185
45261SOL    HW137557  10.652  13.702  10.169
45261SOL    HW237558  10.574  13.584  10.117
45262SOL     OW37559   0.437   8.440  10.185
45262SOL    HW137560   0.518   8.408  10.225
45262SOL    HW237561   0.405   8.366  10.132
45263SOL     OW37562  14.792   4.193   9.976
45263SOL    HW137563  14.729   4.223  10.042
45263SOL    HW237564  14.790   4.098   9.983
45264SOL     OW37565   1.426   6.664  13.199
45264SOL    HW137566   1.488   6.635  13.132
45264SOL    HW237567   1.340   6.652  13.160
45265SOL     OW37568   4.622  12.802   2.256
45265SOL    HW137569   4.563  12.867   2.217
45265SOL    HW237570   4.568  12.755   2.319
45266SOL     OW37571  14.287  13.377   9.541
45266SOL    HW137572  14.283  13.427   9.623
45266SOL    HW237573  14.224  13.421   9.483
45267SOL     OW37574   2.478   2.991   4.087
45267SOL    HW137575   2.562   2.945   4.093
45267SOL    HW237576   2.453   2.983   3.995
45268SOL     OW37577   9.732   8.347   1.891
45268SOL    HW137578   9.808   8.314   1.938
45268SOL    HW237579   9.664   8.356   1.958
45269SOL     OW37580   3.273   6.531  11.909
45269SOL    HW137581   3.242   6.566  11.992
45269SOL    HW237582   3.243   6.593  11.843
45270SOL     OW37583   0.785   4.623   2.550
45270SOL    HW137584   0.715   4.688   2.542
45270SOL    HW237585   0.802   4.619   2.644
45271SOL     OW37586   5.839   2.767   1.268
45271SOL    HW137587   5.767   2.704   1.276
45271SOL    HW237588   5.804   2.848   1.304
45272SOL     OW37589   6.487  12.453  11.698
45272SOL    HW137590   6.570  12.417  11.666
45272SOL    HW237591   6.478  12.417  11.786
45273SOL     OW37592   4.757  12.507  10.726
45273SOL    HW137593   4.754  12.431  10.784
45273SOL    HW237594   4.735  12.472  10.640
45274SOL     OW37595   6.621   2.869   1.097
45274SOL    HW137596   6.698   2.862   1.040
45274SOL    HW237597   6.547   2.867   1.037
45275SOL     OW37598  10.691   1.728   8.749
45275SOL    HW137599  10.646   1.660   8.799
45275SOL    HW237600  10.753   1.680   8.694
45276SOL     OW37601   0.983   1.567  10.845
45276SOL    HW137602   1.029   1.563  10.762
45276SOL    HW237603   0.902   1.518  10.830
45277SOL     OW37604  12.597   7.890  13.145
45277SOL    HW137605  12.614   7.833  13.070
45277SOL    HW237606  12.512   7.860  13.179
45278SOL     OW37607  10.156   4.680  11.820
45278SOL    HW137608  10.083   4.667  11.760
45278SOL    HW237609  10.216   4.607  11.801
45279SOL     OW37610   7.708   0.136   7.307
45279SOL    HW137611   7.634   0.099   7.355
45279SOL    HW237612   7.672   0.214   7.264
45280SOL     OW37613   0.589   0.296   3.517
45280SOL    HW137614   0.506   0.273   3.559
45280SOL    HW237615   0.568   0.372   3.462
45281SOL     OW37616   4.502   4.191  13.985
45281SOL    HW137617   4.508   4.104  14.024
45281SOL    HW237618   4.551   4.183  13.902
45282SOL     OW37619  12.713   2.571   5.110
45282SOL    HW137620  12.720   2.476   5.100
45282SOL    HW237621  12.722   2.586   5.204
45283SOL     OW37622  13.369   7.273   4.175
45283SOL    HW137623  13.447   7.303   4.128
45283SOL    HW237624  13.384   7.301   4.265
45284SOL     OW37625   1.108  11.690   5.132
45284SOL    HW137626   1.184  11.685   5.190
45284SOL    HW237627   1.145  11.700   5.044
45285SOL     OW37628  12.357  13.374   4.466
45285SOL    HW137629  12.274  13.326   4.473
45285SOL    HW237630  12.346  13.450   4.523
45286SOL     OW37631   5.055   7.839   0.892
45286SOL    HW137632   5.071   7.932   0.905
45286SOL    HW237633   5.024   7.808   0.977
45287SOL     OW37634   8.419   8.500   2.415
45287SOL    HW137635   8.480   8.494   2.488
45287SOL    HW237636   8.429   8.418   2.367
45288SOL     OW37637   8.769  12.684   2.115
45288SOL    HW137638   8.778  12.665   2.022
45288SOL    HW237639   8.731  12.772   2.118
45289SOL     OW37640   5.724   3.200   4.341
45289SOL    HW137641   5.658   3.218   4.408
45289SOL    HW237642   5.789   3.270   4.351
45290SOL     OW37643   6.468   6.084   6.047
45290SOL    HW137644   6.451   6.174   6.073
45290SOL    HW237645   6.412   6.031   6.105
45291SOL     OW37646   2.032   4.599  14.291
45291SOL    HW137647   2.018   4.659  14.365
45291SOL    HW237648   1.972   4.526  14.307
45292SOL     OW37649   4.944   3.342   2.927
45292SOL    HW137650   4.888   3.278   2.884
45292SOL    HW237651   4.993   3.292   2.993
45293SOL     OW37652   4.408   8.226   9.860
45293SOL    HW137653   4.480   8.289   9.870
45293SOL    HW237654   4.408   8.204   9.767
45294SOL     OW37655   8.214   4.123  12.352
45294SOL    HW137656   8.198   4.164  12.267
45294SOL    HW237657   8.278   4.181  12.394
45295SOL     OW37658   2.266   9.896   5.632
45295SOL    HW137659   2.269   9.931   5.543
45295SOL    HW237660   2.175   9.905   5.658
45296SOL     OW37661   9.008   4.707   2.469
45296SOL    HW137662   9.084   4.760   2.447
45296SOL    HW237663   9.044   4.624   2.500
45297SOL     OW37664   2.233   6.806   3.091
45297SOL    HW137665   2.317   6.771   3.123
45297SOL    HW237666   2.229   6.894   3.128
45298SOL     OW37667   4.695   5.292   8.469
45298SOL    HW137668   4.758   5.344   8.519
45298SOL    HW237669   4.618   5.348   8.461
45299SOL     OW37670   5.490   4.494   9.324
45299SOL    HW137671   5.424   4.444   9.373
45299SOL    HW237672   5.529   4.552   9.390
45300SOL     OW37673  10.394   3.733   5.506
45300SOL    HW137674  10.456   3.661   5.519
45300SOL    HW237675  10.310   3.689   5.491
45301SOL     OW37676  11.377   6.653   8.879
45301SOL    HW137677  11.385   6.599   8.800
45301SOL    HW237678  11.466   6.666   8.909
45302SOL     OW37679  10.786  14.511   2.685
45302SOL    HW137680  10.758  14.513   2.776
45302SOL    HW237681  10.825  14.425   2.672
45303SOL     OW37682  10.349   9.971  13.030
45303SOL    HW137683  10.435  10.014  13.037
45303SOL    HW237684  10.367   9.891  12.981
45304SOL     OW37685  14.704   1.725   4.369
45304SOL    HW137686  14.722   1.793   4.434
45304SOL    HW237687  14.634   1.762   4.315
45305SOL     OW37688   9.197  12.715   1.144
45305SOL    HW137689   9.218  12.748   1.057
45305SOL    HW237690   9.147  12.635   1.129
45306SOL     OW37691   9.537   0.413   5.508
45306SOL    HW137692   9.591   0.376   5.578
45306SOL    HW237693   9.498   0.337   5.465
45307SOL     OW37694  12.865   8.288   7.341
45307SOL    HW137695  12.866   8.192   7.334
45307SOL    HW237696  12.798   8.316   7.279
45308SOL     OW37697  12.167   7.907   6.673
45308SOL    HW137698  12.248   7.872   6.636
45308SOL    HW237699  12.100   7.887   6.608
45309SOL     OW37700  10.210   7.935  13.208
45309SOL    HW137701  10.133   7.983  13.239
45309SOL    HW237702  10.182   7.897  13.125
45310SOL     OW37703   1.110   0.878   1.402
45310SOL    HW137704   1.128   0.951   1.343
45310SOL    HW237705   1.024   0.846   1.375
45311SOL     OW37706  10.346  11.627   7.045
45311SOL    HW137707  10.420  11.686   7.028
45311SOL    HW237708  10.379  11.567   7.112
45312SOL     OW37709  14.716   8.805  13.401
45312SOL    HW137710  14.707   8.874  13.466
45312SOL    HW237711  14.637   8.813  13.347
45313SOL     OW37712   0.736   7.392   3.714
45313SOL    HW137713   0.738   7.427   3.624
45313SOL    HW237714   0.770   7.463   3.768
45314SOL     OW37715   8.981  11.739  11.851
45314SOL    HW137716   8.958  11.647  11.840
45314SOL    HW237717   8.956  11.781  11.769
45315SOL     OW37718  10.735  13.330   0.152
45315SOL    HW137719  10.772  13.392   0.090
45315SOL    HW237720  10.781  13.248   0.133
45316SOL     OW37721  11.332  12.759   2.793
45316SOL    HW137722  11.422  12.766   2.825
45316SOL    HW237723  11.300  12.676   2.828
45317SOL     OW37724   9.521  14.180   1.613
45317SOL    HW137725   9.441  14.140   1.649
45317SOL    HW237726   9.492  14.226   1.535
45318SOL     OW37727   3.126   1.274   1.590
45318SOL    HW137728   3.212   1.302   1.557
45318SOL    HW237729   3.144   1.193   1.637
45319SOL     OW37730  10.624   8.477   1.925
45319SOL    HW137731  10.561   8.407   1.944
45319SOL    HW237732  10.584   8.556   1.961
45320SOL     OW37733   4.115  14.600   0.772
45320SOL    HW137734   4.091  14.609   0.679
45320SOL    HW237735   4.211  14.593   0.771
45321SOL     OW37736   3.475   6.304   1.571
45321SOL    HW137737   3.433   6.384   1.540
45321SOL    HW237738   3.404   6.240   1.577
45322SOL     OW37739   3.715   3.324   9.289
45322SOL    HW137740   3.661   3.394   9.325
45322SOL    HW237741   3.797   3.330   9.337
45323SOL     OW37742   2.121   7.680   8.747
45323SOL    HW137743   2.193   7.718   8.696
45323SOL    HW237744   2.123   7.728   8.830
45324SOL     OW37745  11.000   1.632   0.513
45324SOL    HW137746  11.049   1.552   0.495
45324SOL    HW237747  10.992   1.634   0.608
45325SOL     OW37748   1.407  14.818   6.906
45325SOL    HW137749   1.444   0.014   6.865
45325SOL    HW237750   1.374  14.765   6.833
45326SOL     OW37751   7.922  13.893   4.405
45326SOL    HW137752   7.921  13.977   4.360
45326SOL    HW237753   7.849  13.844   4.368
45327SOL     OW37754   8.655   5.768  13.949
45327SOL    HW137755   8.662   5.786  14.043
45327SOL    HW237756   8.650   5.855  13.909
45328SOL     OW37757  12.902  14.317   2.647
45328SOL    HW137758  12.833  14.268   2.691
45328SOL    HW237759  12.892  14.296   2.554
45329SOL     OW37760  11.902  13.468  10.761
45329SOL    HW137761  11.991  13.479  10.794
45329SOL    HW237762  11.903  13.383  10.717
45330SOL     OW37763  12.295   2.794   6.176
45330SOL    HW137764  12.253   2.713   6.147
45330SOL    HW237765  12.383   2.767   6.203
45331SOL     OW37766  13.632   4.177   1.098
45331SOL    HW137767  13.697   4.196   1.165
45331SOL    HW237768  13.602   4.263   1.069
45332SOL     OW37769   6.937   4.153  11.744
45332SOL    HW137770   6.907   4.080  11.690
45332SOL    HW237771   6.870   4.220  11.733
45333SOL     OW37772  11.446   1.514   7.649
45333SOL    HW137773  11.532   1.481   7.674
45333SOL    HW237774  11.404   1.535   7.733
45334SOL     OW37775   3.533   9.955   1.692
45334SOL    HW137776   3.466   9.949   1.625
45334SOL    HW237777   3.583   9.873   1.685
45335SOL     OW37778  13.307  13.671  10.733
45335SOL    HW137779  13.362  13.594  10.718
45335SOL    HW237780  13.298  13.675  10.828
45336SOL     OW37781  10.424   4.269  14.691
45336SOL    HW137782  10.341   4.222  14.698
45336SOL    HW237783  10.486   4.217  14.743
45337SOL     OW37784   5.415  11.053   2.603
45337SOL    HW137785   5.460  10.970   2.619
45337SOL    HW237786   5.471  11.099   2.541
45338SOL     OW37787   0.132   5.877   5.601
45338SOL    HW137788   0.157   5.969   5.614
45338SOL    HW237789   0.171   5.853   5.518
45339SOL     OW37790   4.724   6.327  12.261
45339SOL    HW137791   4.641   6.345  12.304
45339SOL    HW237792   4.791   6.349  12.326
45340SOL     OW37793   0.076   3.819  14.068
45340SOL    HW137794   0.016   3.884  14.033
45340SOL    HW237795   0.019   3.748  14.098
45341SOL     OW37796   4.899  12.059   3.918
45341SOL    HW137797   4.852  11.990   3.870
45341SOL    HW237798   4.928  12.120   3.850
45342SOL     OW37799   8.135   1.199  10.331
45342SOL    HW137800   8.227   1.201  10.360
45342SOL    HW237801   8.094   1.271  10.379
45343SOL     OW37802  13.118   6.373   9.187
45343SOL    HW137803  13.049   6.309   9.167
45343SOL    HW237804  13.161   6.337   9.265
45344SOL     OW37805   4.707   9.200  12.876
45344SOL    HW137806   4.780   9.260  12.860
45344SOL    HW237807   4.640   9.254  12.918
45345SOL     OW37808   7.666   1.395  10.801
45345SOL    HW137809   7.737   1.377  10.740
45345SOL    HW237810   7.708   1.393  10.887
45346SOL     OW37811   1.655   5.213  13.586
45346SOL    HW137812   1.653   5.260  13.502
45346SOL    HW237813   1.665   5.121  13.562
45347SOL     OW37814   2.115  11.827  13.346
45347SOL    HW137815   2.154  11.772  13.414
45347SOL    HW237816   2.182  11.833  13.278
45348SOL     OW37817   2.646   1.833   3.643
45348SOL    HW137818   2.728   1.789   3.621
45348SOL    HW237819   2.655   1.853   3.736
45349SOL     OW37820   8.555   5.546   2.130
45349SOL    HW137821   8.594   5.462   2.155
45349SOL    HW237822   8.507   5.574   2.208
45350SOL     OW37823   6.731   3.158  10.400
45350SOL    HW137824   6.821   3.148  10.370
45350SOL    HW237825   6.739   3.172  10.495
45351SOL     OW37826  11.761   1.551   9.768
45351SOL    HW137827  11.745   1.473   9.820
45351SOL    HW237828  11.829   1.598   9.815
45352SOL     OW37829  10.752   3.384   0.724
45352SOL    HW137830  10.739   3.292   0.750
45352SOL    HW237831  10.745   3.433   0.806
45353SOL     OW37832  12.495   7.213   1.822
45353SOL    HW137833  12.579   7.231   1.780
45353SOL    HW237834  12.517   7.187   1.911
45354SOL     OW37835   1.735   9.147  12.533
45354SOL    HW137836   1.651   9.106  12.512
45354SOL    HW237837   1.780   9.084  12.588
45355SOL     OW37838  13.398  12.768   4.350
45355SOL    HW137839  13.317  12.732   4.315
45355SOL    HW237840  13.401  12.858   4.315
45356SOL     OW37841   7.044   5.738   4.691
45356SOL    HW137842   6.988   5.664   4.715
45356SOL    HW237843   6.985   5.800   4.647
45357SOL     OW37844   5.699  14.019   3.881
45357SOL    HW137845   5.708  14.030   3.976
45357SOL    HW237846   5.724  14.103   3.844
45358SOL     OW37847  11.730   3.556   3.450
45358SOL    HW137848  11.787   3.514   3.386
45358SOL    HW237849  11.789   3.592   3.516
45359SOL     OW37850   3.138  11.663   3.025
45359SOL    HW137851   3.096  11.601   2.967
45359SOL    HW237852   3.068  11.699   3.079
45360SOL     OW37853   3.671   0.803  12.506
45360SOL    HW137854   3.730   0.781  12.434
45360SOL    HW237855   3.602   0.855  12.466
45361SOL     OW37856   3.604   8.851   7.052
45361SOL    HW137857   3.551   8.773   7.033
45361SOL    HW237858   3.606   8.899   6.970
45362SOL     OW37859  11.104  11.149   0.720
45362SOL    HW137860  11.019  11.184   0.748
45362SOL    HW237861  11.083  11.090   0.648
45363SOL     OW37862   0.502   5.539  12.146
45363SOL    HW137863   0.522   5.466  12.204
45363SOL    HW237864   0.426   5.582  12.186
45364SOL     OW37865   8.842   6.605   5.382
45364SOL    HW137866   8.875   6.539   5.443
45364SOL    HW237867   8.762   6.639   5.424
45365SOL     OW37868   6.083  11.614   5.966
45365SOL    HW137869   6.126  11.540   6.010
45365SOL    HW237870   6.150  11.648   5.906
45366SOL     OW37871   1.906   1.910   7.178
45366SOL    HW137872   1.890   1.839   7.241
45366SOL    HW237873   1.964   1.871   7.112
45367SOL     OW37874   5.170   7.896   7.038
45367SOL    HW137875   5.207   7.809   7.023
45367SOL    HW237876   5.106   7.907   6.968
45368SOL     OW37877   9.652  14.571   2.465
45368SOL    HW137878   9.624  14.499   2.408
45368SOL    HW237879   9.694  14.633   2.405
45369SOL     OW37880   7.799   3.307   1.069
45369SOL    HW137881   7.815   3.338   1.158
45369SOL    HW237882   7.886   3.293   1.032
45370SOL     OW37883   2.662   9.193   1.556
45370SOL    HW137884   2.627   9.195   1.467
45370SOL    HW237885   2.700   9.106   1.565
45371SOL     OW37886   3.250   0.726   5.181
45371SOL    HW137887   3.302   0.738   5.101
45371SOL    HW237888   3.183   0.795   5.177
45372SOL     OW37889   9.402  12.343   2.333
45372SOL    HW137890   9.396  12.383   2.246
45372SOL    HW237891   9.314  12.354   2.371
45373SOL     OW37892   3.520  14.201   3.102
45373SOL    HW137893   3.433  14.165   3.119
45373SOL    HW237894   3.519  14.224   3.009
45374SOL     OW37895   8.392  13.148   2.881
45374SOL    HW137896   8.447  13.211   2.929
45374SOL    HW237897   8.423  13.154   2.791
45375SOL     OW37898   5.984   3.736   5.986
45375SOL    HW137899   6.052   3.745   6.053
45375SOL    HW237900   6.012   3.660   5.934
45376SOL     OW37901  11.361   6.144   2.406
45376SOL    HW137902  11.358   6.111   2.316
45376SOL    HW237903  11.291   6.210   2.409
45377SOL     OW37904  10.681  12.957   4.093
45377SOL    HW137905  10.639  12.910   4.022
45377SOL    HW237906  10.771  12.972   4.063
45378SOL     OW37907  11.563   9.224   4.004
45378SOL    HW137908  11.554   9.259   4.093
45378SOL    HW237909  11.581   9.300   3.949
45379SOL     OW37910  14.033  11.817   2.973
45379SOL    HW137911  13.953  11.775   2.942
45379SOL    HW237912  14.048  11.888   2.910
45380SOL     OW37913   7.588  12.587   3.392
45380SOL    HW137914   7.623  12.603   3.305
45380SOL    HW237915   7.665  12.568   3.446
45381SOL     OW37916   7.901  11.850  13.523
45381SOL    HW137917   7.976  11.791  13.516
45381SOL    HW237918   7.896  11.872  13.616
45382SOL     OW37919   5.876  13.763   7.001
45382SOL    HW137920   5.919  13.740   7.083
45382SOL    HW237921   5.826  13.842   7.021
45383SOL     OW37922   0.091   0.237  12.275
45383SOL    HW137923   0.109   0.319  12.231
45383SOL    HW237924  14.877   0.231  12.277
45384SOL     OW37925   3.418   7.421   4.916
45384SOL    HW137926   3.512   7.435   4.923
45384SOL    HW237927   3.396   7.364   4.990
45385SOL     OW37928   7.885  11.046   7.275
45385SOL    HW137929   7.806  11.007   7.236
45385SOL    HW237930   7.931  10.972   7.315
45386SOL     OW37931   3.955  14.733   0.177
45386SOL    HW137932   3.921  14.733   0.088
45386SOL    HW237933   3.888  14.778   0.229
45387SOL     OW37934  13.291  11.586  10.496
45387SOL    HW137935  13.259  11.671  10.466
45387SOL    HW237936  13.222  11.554  10.555
45388SOL     OW37937   3.266   7.475   4.320
45388SOL    HW137938   3.264   7.380   4.336
45388SOL    HW237939   3.234   7.485   4.231
45389SOL     OW37940   4.556   2.545   3.926
45389SOL    HW137941   4.485   2.571   3.867
45389SOL    HW237942   4.586   2.628   3.964
45390SOL     OW37943  12.048   8.230  11.217
45390SOL    HW137944  12.015   8.207  11.304
45390SOL    HW237945  12.118   8.293  11.234
45391SOL     OW37946   6.390   2.992   2.142
45391SOL    HW137947   6.394   3.078   2.185
45391SOL    HW237948   6.366   3.013   2.052
45392SOL     OW37949  13.460   9.966  14.614
45392SOL    HW137950  13.522   9.893  14.609
45392SOL    HW237951  13.505  10.039  14.572
45393SOL     OW37952  12.905   0.906   3.093
45393SOL    HW137953  12.880   0.813   3.089
45393SOL    HW237954  12.996   0.907   3.062
45394SOL     OW37955   4.021   6.574   7.814
45394SOL    HW137956   3.938   6.612   7.786
45394SOL    HW237957   4.007   6.551   7.906
45395SOL     OW37958  13.770  14.658   9.244
45395SOL    HW137959  13.865  14.653   9.234
45395SOL    HW237960  13.743  14.569   9.265
45396SOL     OW37961  11.122   0.091   4.769
45396SOL    HW137962  11.084   0.172   4.802
45396SOL    HW237963  11.046   0.038   4.744
45397SOL     OW37964   1.862   4.374  13.168
45397SOL    HW137965   1.851   4.394  13.075
45397SOL    HW237966   1.811   4.440  13.213
45398SOL     OW37967   3.722   8.523  13.312
45398SOL    HW137968   3.802   8.499  13.357
45398SOL    HW237969   3.751   8.555  13.226
45399SOL     OW37970   5.371   7.257   5.638
45399SOL    HW137971   5.444   7.201   5.609
45399SOL    HW237972   5.377   7.335   5.582
45400SOL     OW37973   1.729   9.781   6.500
45400SOL    HW137974   1.696   9.712   6.558
45400SOL    HW237975   1.654   9.840   6.489
45401SOL     OW37976   3.096   4.579   6.780
45401SOL    HW137977   3.187   4.584   6.810
45401SOL    HW237978   3.044   4.579   6.860
45402SOL     OW37979   6.473   5.526   8.031
45402SOL    HW137980   6.396   5.505   8.084
45402SOL    HW237981   6.547   5.503   8.087
45403SOL     OW37982   2.626   0.008  12.008
45403SOL    HW137983   2.627  14.817  12.071
45403SOL    HW237984   2.714   0.008  11.969
45404SOL     OW37985  14.107   6.456   3.062
45404SOL    HW137986  14.047   6.381   3.069
45404SOL    HW237987  14.125   6.481   3.152
45405SOL     OW37988   9.180   4.926   2.982
45405SOL    HW137989   9.163   4.836   3.009
45405SOL    HW237990   9.200   4.972   3.064
45406SOL     OW37991   9.021   3.304   3.235
45406SOL    HW137992   8.964   3.319   3.310
45406SOL    HW237993   8.976   3.238   3.183
45407SOL     OW37994   0.328   0.289   9.995
45407SOL    HW137995   0.399   0.296  10.059
45407SOL    HW237996   0.346   0.360   9.933
45408SOL     OW37997   9.501   8.767  12.863
45408SOL    HW137998   9.588   8.805  12.847
45408SOL    HW237999   9.468   8.746  12.776
45409SOL     OW38000  12.542   3.218   5.297
45409SOL    HW138001  12.540   3.159   5.373
45409SOL    HW238002  12.634   3.223   5.273
45410SOL     OW38003  14.061   5.565  10.989
45410SOL    HW138004  14.050   5.659  11.005
45410SOL    HW238005  13.979   5.526  11.019
45411SOL     OW38006   1.603   0.511   3.234
45411SOL    HW138007   1.530   0.467   3.189
45411SOL    HW238008   1.564   0.552   3.311
45412SOL     OW38009   8.369   9.871  11.947
45412SOL    HW138010   8.282   9.910  11.961
45412SOL    HW238011   8.352   9.796  11.891
45413SOL     OW38012   0.311   5.542   4.104
45413SOL    HW138013   0.266   5.590   4.173
45413SOL    HW238014   0.242   5.489   4.063
45414SOL     OW38015  14.513   8.132  14.618
45414SOL    HW138016  14.598   8.095  14.591
45414SOL    HW238017  14.473   8.063  14.671
45415SOL     OW38018   2.499   4.538   7.327
45415SOL    HW138019   2.452   4.544   7.244
45415SOL    HW238020   2.507   4.629   7.357
45416SOL     OW38021  13.272  10.526   8.561
45416SOL    HW138022  13.284  10.526   8.656
45416SOL    HW238023  13.295  10.437   8.534
45417SOL     OW38024   4.552   9.806   6.054
45417SOL    HW138025   4.549   9.861   6.132
45417SOL    HW238026   4.504   9.856   5.988
45418SOL     OW38027   4.386  14.166   9.975
45418SOL    HW138028   4.446  14.092   9.961
45418SOL    HW238029   4.421  14.210  10.053
45419SOL     OW38030   6.302  10.958  13.411
45419SOL    HW138031   6.375  10.904  13.380
45419SOL    HW238032   6.232  10.895  13.429
45420SOL     OW38033   7.282   4.600   0.004
45420SOL    HW138034   7.296   4.653   0.082
45420SOL    HW238035   7.238   4.660  14.824
45421SOL     OW38036  14.385   5.597   4.598
45421SOL    HW138037  14.429   5.589   4.682
45421SOL    HW238038  14.392   5.509   4.559
45422SOL     OW38039   6.892  13.761  14.473
45422SOL    HW138040   6.865  13.822  14.405
45422SOL    HW238041   6.900  13.677  14.428
45423SOL     OW38042  13.972   7.593  14.006
45423SOL    HW138043  13.887   7.618  13.970
45423SOL    HW238044  14.006   7.528  13.944
45424SOL     OW38045   8.486   7.075   4.879
45424SOL    HW138046   8.500   7.167   4.859
45424SOL    HW238047   8.415   7.074   4.942
45425SOL     OW38048   8.293   4.327   8.018
45425SOL    HW138049   8.213   4.380   8.017
45425SOL    HW238050   8.314   4.318   8.111
45426SOL     OW38051   1.018  11.926  14.270
45426SOL    HW138052   1.107  11.921  14.306
45426SOL    HW238053   0.992  12.017  14.285
45427SOL     OW38054   5.022  14.209   3.021
45427SOL    HW138055   4.968  14.213   2.942
45427SOL    HW238056   4.976  14.264   3.085
45428SOL     OW38057   4.623   5.978   1.108
45428SOL    HW138058   4.699   5.969   1.051
45428SOL    HW238059   4.555   6.016   1.052
45429SOL     OW38060  14.575   5.767   6.729
45429SOL    HW138061  14.634   5.703   6.690
45429SOL    HW238062  14.632   5.821   6.784
45430SOL     OW38063  10.112   9.089   1.389
45430SOL    HW138064  10.041   9.147   1.415
45430SOL    HW238065  10.068   9.013   1.351
45431SOL     OW38066   4.738   5.759   9.457
45431SOL    HW138067   4.650   5.757   9.495
45431SOL    HW238068   4.796   5.746   9.532
45432SOL     OW38069   0.255   4.242   5.524
45432SOL    HW138070   0.298   4.215   5.443
45432SOL    HW238071   0.161   4.235   5.505
45433SOL     OW38072   2.035  13.959  10.113
45433SOL    HW138073   2.025  13.999  10.200
45433SOL    HW238074   2.019  14.030  10.052
45434SOL     OW38075   0.945  12.384  10.562
45434SOL    HW138076   1.014  12.339  10.513
45434SOL    HW238077   0.914  12.319  10.625
45435SOL     OW38078   1.270   4.043   8.237
45435SOL    HW138079   1.343   4.104   8.222
45435SOL    HW238080   1.192   4.093   8.214
45436SOL     OW38081   7.357   2.970   6.719
45436SOL    HW138082   7.445   2.935   6.706
45436SOL    HW238083   7.324   2.924   6.796
45437SOL     OW38084  14.565  14.687   1.477
45437SOL    HW138085  14.497  14.753   1.489
45437SOL    HW238086  14.633  14.733   1.427
45438SOL     OW38087   1.386   2.004   1.777
45438SOL    HW138088   1.320   2.022   1.710
45438SOL    HW238089   1.357   1.923   1.818
45439SOL     OW38090  11.670   6.624   6.184
45439SOL    HW138091  11.679   6.554   6.120
45439SOL    HW238092  11.597   6.597   6.240
45440SOL     OW38093   0.439  11.364   0.879
45440SOL    HW138094   0.475  11.373   0.968
45440SOL    HW238095   0.382  11.440   0.869
45441SOL     OW38096  11.056   5.271   5.872
45441SOL    HW138097  11.073   5.178   5.853
45441SOL    HW238098  11.118   5.293   5.941
45442SOL     OW38099   6.213  10.758  13.093
45442SOL    HW138100   6.290  10.761  13.149
45442SOL    HW238101   6.191  10.665  13.086
45443SOL     OW38102  12.997  10.287  13.668
45443SOL    HW138103  12.961  10.284  13.579
45443SOL    HW238104  13.053  10.210  13.674
45444SOL     OW38105   4.104  14.010   0.241
45444SOL    HW138106   4.093  13.917   0.261
45444SOL    HW238107   4.111  14.052   0.327
45445SOL     OW38108   9.596   6.801   5.135
45445SOL    HW138109   9.659   6.764   5.197
45445SOL    HW238110   9.579   6.889   5.167
45446SOL     OW38111   2.851   8.394   1.726
45446SOL    HW138112   2.925   8.451   1.743
45446SOL    HW238113   2.834   8.352   1.811
45447SOL     OW38114   8.975   0.033  10.454
45447SOL    HW138115   8.964  14.842  10.514
45447SOL    HW238116   8.898   0.029  10.396
45448SOL     OW38117  13.380  13.517   0.468
45448SOL    HW138118  13.454  13.553   0.518
45448SOL    HW238119  13.413  13.435   0.432
45449SOL     OW38120   4.862   1.119   7.032
45449SOL    HW138121   4.924   1.073   7.089
45449SOL    HW238122   4.782   1.066   7.036
45450SOL     OW38123   7.546   1.020   4.080
45450SOL    HW138124   7.501   1.093   4.123
45450SOL    HW238125   7.542   1.042   3.987
45451SOL     OW38126  12.964   2.391   5.289
45451SOL    HW138127  13.039   2.337   5.311
45451SOL    HW238128  12.925   2.349   5.213
45452SOL     OW38129   8.418   1.990   0.482
45452SOL    HW138130   8.436   1.924   0.549
45452SOL    HW238131   8.429   1.945   0.399
45453SOL     OW38132  11.471  11.882   4.789
45453SOL    HW138133  11.473  11.844   4.701
45453SOL    HW238134  11.543  11.840   4.835
45454SOL     OW38135   7.319  11.566   5.597
45454SOL    HW138136   7.334  11.530   5.509
45454SOL    HW238137   7.350  11.497   5.656
45455SOL     OW38138  11.414   2.660   2.980
45455SOL    HW138139  11.412   2.722   2.907
45455SOL    HW238140  11.465   2.706   3.048
45456SOL     OW38141   5.800   9.721  14.263
45456SOL    HW138142   5.887   9.758  14.280
45456SOL    HW238143   5.814   9.627  14.265
45457SOL     OW38144   2.209   2.268  11.268
45457SOL    HW138145   2.114   2.273  11.273
45457SOL    HW238146   2.232   2.311  11.186
45458SOL     OW38147  10.408  11.923   2.517
45458SOL    HW138148  10.415  11.877   2.601
45458SOL    HW238149  10.495  11.913   2.478
45459SOL     OW38150  13.292   9.176   3.029
45459SOL    HW138151  13.235   9.146   3.100
45459SOL    HW238152  13.260   9.131   2.951
45460SOL     OW38153   6.591  10.874   8.103
45460SOL    HW138154   6.531  10.862   8.030
45460SOL    HW238155   6.671  10.910   8.063
45461SOL     OW38156  13.459  10.974   1.941
45461SOL    HW138157  13.382  10.921   1.921
45461SOL    HW238158  13.448  11.054   1.891
45462SOL     OW38159  12.018   4.844   5.901
45462SOL    HW138160  12.025   4.930   5.944
45462SOL    HW238161  12.061   4.857   5.816
45463SOL     OW38162   9.923  10.685   5.422
45463SOL    HW138163   9.930  10.723   5.510
45463SOL    HW238164   9.835  10.710   5.394
45464SOL     OW38165   1.495   5.319   3.115
45464SOL    HW138166   1.476   5.227   3.133
45464SOL    HW238167   1.460   5.367   3.189
45465SOL     OW38168   9.239   2.193   9.834
45465SOL    HW138169   9.302   2.174   9.764
45465SOL    HW238170   9.166   2.236   9.789
45466SOL     OW38171   9.419   5.091   4.405
45466SOL    HW138172   9.402   4.999   4.425
45466SOL    HW238173   9.471   5.122   4.479
45467SOL     OW38174   7.344   2.415   0.208
45467SOL    HW138175   7.288   2.340   0.192
45467SOL    HW238176   7.432   2.378   0.217
45468SOL     OW38177   4.755  10.712   1.102
45468SOL    HW138178   4.839  10.718   1.056
45468SOL    HW238179   4.758  10.785   1.165
45469SOL     OW38180   1.299   9.889  12.544
45469SOL    HW138181   1.308   9.869  12.451
45469SOL    HW238182   1.355   9.966  12.557
45470SOL     OW38183   7.400   6.492  12.933
45470SOL    HW138184   7.441   6.554  12.872
45470SOL    HW238185   7.353   6.547  12.996
45471SOL     OW38186   7.427   1.022  10.796
45471SOL    HW138187   7.421   0.939  10.748
45471SOL    HW238188   7.475   1.079  10.737
45472SOL     OW38189   2.589  14.107   5.710
45472SOL    HW138190   2.627  14.062   5.634
45472SOL    HW238191   2.532  14.041   5.750
45473SOL     OW38192   6.304   8.874   0.606
45473SOL    HW138193   6.282   8.932   0.533
45473SOL    HW238194   6.352   8.802   0.566
45474SOL     OW38195   7.616   1.724  12.705
45474SOL    HW138196   7.640   1.651  12.648
45474SOL    HW238197   7.689   1.785  12.699
45475SOL     OW38198  10.182   4.056   3.403
45475SOL    HW138199  10.167   4.034   3.311
45475SOL    HW238200  10.253   3.998   3.430
45476SOL     OW38201   5.653  10.785   1.231
45476SOL    HW138202   5.643  10.711   1.171
45476SOL    HW238203   5.729  10.832   1.197
45477SOL     OW38204   3.721  11.294   0.470
45477SOL    HW138205   3.690  11.382   0.492
45477SOL    HW238206   3.703  11.285   0.377
45478SOL     OW38207  11.232   0.765   3.740
45478SOL    HW138208  11.196   0.691   3.691
45478SOL    HW238209  11.292   0.726   3.802
45479SOL     OW38210  14.226  13.577  13.068
45479SOL    HW138211  14.207  13.508  13.131
45479SOL    HW238212  14.209  13.659  13.115
45480SOL     OW38213   4.964  14.590  12.185
45480SOL    HW138214   4.964  14.576  12.279
45480SOL    HW238215   4.885  14.546  12.154
45481SOL     OW38216   0.917  10.873   6.596
45481SOL    HW138217   0.851  10.925   6.550
45481SOL    HW238218   0.940  10.926   6.673
45482SOL     OW38219  14.028   9.297   3.241
45482SOL    HW138220  14.093   9.299   3.171
45482SOL    HW238221  14.014   9.389   3.264
45483SOL     OW38222   1.810   7.899  11.563
45483SOL    HW138223   1.828   7.897  11.470
45483SOL    HW238224   1.885   7.944  11.602
45484SOL     OW38225   1.967   3.822   2.825
45484SOL    HW138226   2.055   3.808   2.860
45484SOL    HW238227   1.966   3.773   2.743
45485SOL     OW38228  14.144   5.140  10.950
45485SOL    HW138229  14.102   5.161  10.866
45485SOL    HW238230  14.211   5.209  10.960
45486SOL     OW38231  12.391   0.769  10.660
45486SOL    HW138232  12.447   0.720  10.721
45486SOL    HW238233  12.368   0.706  10.593
45487SOL     OW38234  12.642   2.739   3.589
45487SOL    HW138235  12.637   2.817   3.644
45487SOL    HW238236  12.603   2.767   3.506
45488SOL     OW38237   7.913  11.523   9.585
45488SOL    HW138238   7.933  11.431   9.570
45488SOL    HW238239   7.931  11.537   9.679
45489SOL     OW38240   2.826   3.480   4.604
45489SOL    HW138241   2.808   3.531   4.525
45489SOL    HW238242   2.741   3.441   4.627
45490SOL     OW38243   6.554   0.052   2.777
45490SOL    HW138244   6.554  14.839   2.769
45490SOL    HW238245   6.642   0.079   2.753
45491SOL     OW38246   2.644  12.171   9.314
45491SOL    HW138247   2.649  12.104   9.382
45491SOL    HW238248   2.552  12.195   9.309
45492SOL     OW38249   7.385   9.864   1.506
45492SOL    HW138250   7.392   9.792   1.570
45492SOL    HW238251   7.476   9.884   1.483
45493SOL     OW38252  12.829  12.832   3.541
45493SOL    HW138253  12.906  12.822   3.485
45493SOL    HW238254  12.810  12.745   3.574
45494SOL     OW38255   9.558   0.284  14.414
45494SOL    HW138256   9.539   0.212  14.475
45494SOL    HW238257   9.640   0.258  14.372
45495SOL     OW38258   0.504  13.870   7.588
45495SOL    HW138259   0.435  13.894   7.650
45495SOL    HW238260   0.535  13.785   7.619
45496SOL     OW38261   0.127   6.692  13.472
45496SOL    HW138262   0.058   6.712  13.535
45496SOL    HW238263   0.195   6.757  13.489
45497SOL     OW38264  11.631  14.315  12.701
45497SOL    HW138265  11.563  14.380  12.717
45497SOL    HW238266  11.649  14.323  12.607
45498SOL     OW38267  11.744   8.528  12.813
45498SOL    HW138268  11.690   8.551  12.888
45498SOL    HW238269  11.796   8.453  12.844
45499SOL     OW38270   5.843   1.923   3.463
45499SOL    HW138271   5.810   1.834   3.449
45499SOL    HW238272   5.931   1.910   3.498
45500SOL     OW38273   5.189   2.111  13.428
45500SOL    HW138274   5.127   2.183  13.437
45500SOL    HW238275   5.222   2.097  13.517
45501SOL     OW38276   2.209   5.282  10.762
45501SOL    HW138277   2.286   5.227  10.743
45501SOL    HW238278   2.182   5.255  10.850
45502SOL     OW38279   4.803   7.687   5.787
45502SOL    HW138280   4.740   7.723   5.850
45502SOL    HW238281   4.765   7.603   5.762
45503SOL     OW38282  12.997   6.011  10.272
45503SOL    HW138283  13.063   6.081  10.274
45503SOL    HW238284  12.914   6.056  10.288
45504SOL     OW38285   7.288  11.218   3.066
45504SOL    HW138286   7.302  11.249   3.156
45504SOL    HW238287   7.231  11.141   3.077
45505SOL     OW38288   5.163   5.116  14.085
45505SOL    HW138289   5.105   5.188  14.062
45505SOL    HW238290   5.202   5.089  14.002
45506SOL     OW38291   1.255  13.689   4.633
45506SOL    HW138292   1.277  13.715   4.543
45506SOL    HW238293   1.161  13.710   4.641
45507SOL     OW38294   5.156  10.872   9.935
45507SOL    HW138295   5.221  10.913   9.879
45507SOL    HW238296   5.148  10.932  10.010
45508SOL     OW38297  10.334   3.845   7.797
45508SOL    HW138298  10.415   3.822   7.751
45508SOL    HW238299  10.327   3.940   7.787
45509SOL     OW38300   4.473   9.549   2.972
45509SOL    HW138301   4.489   9.624   2.915
45509SOL    HW238302   4.473   9.473   2.913
45510SOL     OW38303   9.950   6.933   4.599
45510SOL    HW138304  10.004   6.978   4.664
45510SOL    HW238305   9.914   7.004   4.545
45511SOL     OW38306  10.745   9.299   6.136
45511SOL    HW138307  10.833   9.335   6.145
45511SOL    HW238308  10.731   9.292   6.041
45512SOL     OW38309  10.956  14.845   6.634
45512SOL    HW138310  10.921  14.763   6.669
45512SOL    HW238311  11.015  14.818   6.563
45513SOL     OW38312  13.734  10.578  12.603
45513SOL    HW138313  13.684  10.646  12.558
45513SOL    HW238314  13.684  10.560  12.683
45514SOL     OW38315   5.549   3.435   7.232
45514SOL    HW138316   5.611   3.441   7.160
45514SOL    HW238317   5.552   3.522   7.273
45515SOL     OW38318   4.353   6.539   4.568
45515SOL    HW138319   4.345   6.447   4.544
45515SOL    HW238320   4.442   6.564   4.542
45516SOL     OW38321   5.242   4.295   3.580
45516SOL    HW138322   5.329   4.333   3.571
45516SOL    HW238323   5.257   4.200   3.584
45517SOL     OW38324   8.209  10.905  13.416
45517SOL    HW138325   8.301  10.878  13.414
45517SOL    HW238326   8.190  10.931  13.326
45518SOL     OW38327  13.967  12.966  11.405
45518SOL    HW138328  14.001  12.969  11.316
45518SOL    HW238329  14.032  12.914  11.453
45519SOL     OW38330   8.761  12.260   8.747
45519SOL    HW138331   8.694  12.195   8.725
45519SOL    HW238332   8.824  12.213   8.801
45520SOL     OW38333   3.844   3.556   8.154
45520SOL    HW138334   3.933   3.533   8.182
45520SOL    HW238335   3.855   3.592   8.066
45521SOL     OW38336   1.466   3.454   6.271
45521SOL    HW138337   1.389   3.510   6.275
45521SOL    HW238338   1.500   3.466   6.183
45522SOL     OW38339   6.404   1.395  12.566
45522SOL    HW138340   6.449   1.479  12.574
45522SOL    HW238341   6.330   1.401  12.627
45523SOL     OW38342   9.265   9.366   0.639
45523SOL    HW138343   9.231   9.324   0.718
45523SOL    HW238344   9.195   9.425   0.611
45524SOL     OW38345  14.720  12.824   0.903
45524SOL    HW138346  14.681  12.906   0.933
45524SOL    HW238347  14.689  12.814   0.813
45525SOL     OW38348  10.047  11.574   7.200
45525SOL    HW138349   9.956  11.599   7.217
45525SOL    HW238350  10.082  11.644   7.146
45526SOL     OW38351   4.779  11.923  11.682
45526SOL    HW138352   4.866  11.962  11.695
45526SOL    HW238353   4.750  11.957  11.597
45527SOL     OW38354   9.437  13.243   0.059
45527SOL    HW138355   9.455  13.334   0.083
45527SOL    HW238356   9.511  13.194   0.093
45528SOL     OW38357   3.960   4.196   1.437
45528SOL    HW138358   3.940   4.108   1.467
45528SOL    HW238359   4.008   4.184   1.355
45529SOL     OW38360  13.094   5.578  12.772
45529SOL    HW138361  13.066   5.526  12.696
45529SOL    HW238362  13.187   5.559  12.780
45530SOL     OW38363  11.978   3.809   8.160
45530SOL    HW138364  12.008   3.734   8.212
45530SOL    HW238365  12.018   3.885   8.202
45531SOL     OW38366   2.670  14.609   0.299
45531SOL    HW138367   2.705  14.537   0.248
45531SOL    HW238368   2.702  14.594   0.388
45532SOL     OW38369   4.963   8.769   6.043
45532SOL    HW138370   5.021   8.821   6.098
45532SOL    HW238371   4.964   8.814   5.958
45533SOL     OW38372   7.766   6.611   8.448
45533SOL    HW138373   7.804   6.622   8.535
45533SOL    HW238374   7.841   6.615   8.388
45534SOL     OW38375   6.260  13.550   9.771
45534SOL    HW138376   6.250  13.611   9.845
45534SOL    HW238377   6.231  13.600   9.695
45535SOL     OW38378  12.075  11.370   5.936
45535SOL    HW138379  12.104  11.428   6.007
45535SOL    HW238380  12.107  11.412   5.856
45536SOL     OW38381   4.318  14.509  14.536
45536SOL    HW138382   4.284  14.598  14.522
45536SOL    HW238383   4.244  14.451  14.516
45537SOL     OW38384   0.039   6.819   0.918
45537SOL    HW138385  14.877   6.774   0.846
45537SOL    HW238386   0.115   6.765   0.938
45538SOL     OW38387   3.329   9.475  12.633
45538SOL    HW138388   3.259   9.496  12.572
45538SOL    HW238389   3.309   9.386  12.663
45539SOL     OW38390   0.807   1.745  13.303
45539SOL    HW138391   0.896   1.715  13.325
45539SOL    HW238392   0.771   1.675  13.249
45540SOL     OW38393  11.370  14.685   4.989
45540SOL    HW138394  11.300  14.622   5.003
45540SOL    HW238395  11.355  14.752   5.056
45541SOL     OW38396  12.066   6.342   2.861
45541SOL    HW138397  12.128   6.290   2.912
45541SOL    HW238398  12.019   6.277   2.808
45542SOL     OW38399   2.732  10.643   4.448
45542SOL    HW138400   2.729  10.681   4.536
45542SOL    HW238401   2.693  10.556   4.458
45543SOL     OW38402   5.911  12.124   6.423
45543SOL    HW138403   5.909  12.155   6.513
45543SOL    HW238404   5.973  12.183   6.379
45544SOL     OW38405   9.217   6.061   3.253
45544SOL    HW138406   9.262   6.105   3.180
45544SOL    HW238407   9.169   5.989   3.211
45545SOL     OW38408  11.094   0.367   8.853
45545SOL    HW138409  11.152   0.325   8.917
45545SOL    HW238410  11.093   0.307   8.779
45546SOL     OW38411   5.708   2.981   0.112
45546SOL    HW138412   5.684   2.964   0.203
45546SOL    HW238413   5.727   2.895   0.075
45547SOL     OW38414   1.517   7.844   1.447
45547SOL    HW138415   1.566   7.887   1.377
45547SOL    HW238416   1.527   7.903   1.522
45548SOL     OW38417  14.611  12.530  13.070
45548SOL    HW138418  14.685  12.470  13.064
45548SOL    HW238419  14.563  12.518  12.988
45549SOL     OW38420  10.644   4.523   3.348
45549SOL    HW138421  10.554   4.518   3.379
45549SOL    HW238422  10.638   4.499   3.255
45550SOL     OW38423  13.479   4.779  11.667
45550SOL    HW138424  13.568   4.801  11.642
45550SOL    HW238425  13.476   4.795  11.762
45551SOL     OW38426  13.252   6.715  10.115
45551SOL    HW138427  13.293   6.735  10.031
45551SOL    HW238428  13.308   6.756  10.181
45552SOL     OW38429  11.696   7.283   9.641
45552SOL    HW138430  11.744   7.255   9.719
45552SOL    HW238431  11.738   7.366   9.616
45553SOL     OW38432   3.158   2.703   6.885
45553SOL    HW138433   3.191   2.769   6.824
45553SOL    HW238434   3.076   2.741   6.918
45554SOL     OW38435   9.227  10.468   1.066
45554SOL    HW138436   9.245  10.376   1.045
45554SOL    HW238437   9.287  10.488   1.138
45555SOL     OW38438  13.577  14.427  10.668
45555SOL    HW138439  13.663  14.455  10.636
45555SOL    HW238440  13.566  14.474  10.751
45556SOL     OW38441   1.873  12.337  13.671
45556SOL    HW138442   1.961  12.332  13.633
45556SOL    HW238443   1.816  12.296  13.606
45557SOL     OW38444   6.382  12.187  12.828
45557SOL    HW138445   6.306  12.142  12.791
45557SOL    HW238446   6.457  12.131  12.806
45558SOL     OW38447   3.261   2.257   7.834
45558SOL    HW138448   3.343   2.298   7.861
45558SOL    HW238449   3.277   2.225   7.745
45559SOL     OW38450   7.375  11.986  13.581
45559SOL    HW138451   7.443  12.047  13.552
45559SOL    HW238452   7.294  12.023  13.548
45560SOL     OW38453   2.106   1.553   6.855
45560SOL    HW138454   2.071   1.473   6.896
45560SOL    HW238455   2.037   1.581   6.795
45561SOL     OW38456  13.165   2.909   2.322
45561SOL    HW138457  13.253   2.927   2.289
45561SOL    HW238458  13.145   2.984   2.378
45562SOL     OW38459   7.321  14.415   6.493
45562SOL    HW138460   7.392  14.351   6.484
45562SOL    HW238461   7.342  14.462   6.573
45563SOL     OW38462   3.038  13.184   8.348
45563SOL    HW138463   3.032  13.134   8.267
45563SOL    HW238464   3.007  13.271   8.324
45564SOL     OW38465   1.924   6.863   1.481
45564SOL    HW138466   1.948   6.934   1.423
45564SOL    HW238467   2.002   6.807   1.485
45565SOL     OW38468   4.220  14.593   4.084
45565SOL    HW138469   4.157  14.585   4.156
45565SOL    HW238470   4.278  14.664   4.110
45566SOL     OW38471  12.344   7.990   1.427
45566SOL    HW138472  12.385   7.961   1.508
45566SOL    HW238473  12.251   8.001   1.449
45567SOL     OW38474  12.395   5.969   0.195
45567SOL    HW138475  12.417   5.975   0.288
45567SOL    HW238476  12.320   6.027   0.184
45568SOL     OW38477  11.129   9.632   5.507
45568SOL    HW138478  11.147   9.725   5.495
45568SOL    HW238479  11.036   9.623   5.488
45569SOL     OW38480   8.973   8.344   6.625
45569SOL    HW138481   8.980   8.283   6.699
45569SOL    HW238482   8.913   8.301   6.565
45570SOL     OW38483   9.090  12.886  12.148
45570SOL    HW138484   9.130  12.811  12.105
45570SOL    HW238485   9.026  12.848  12.208
45571SOL     OW38486   0.599   2.467   7.625
45571SOL    HW138487   0.599   2.376   7.656
45571SOL    HW238488   0.666   2.511   7.678
45572SOL     OW38489  11.696   4.844  14.224
45572SOL    HW138490  11.685   4.751  14.205
45572SOL    HW238491  11.686   4.887  14.140
45573SOL     OW38492  12.605  10.740  11.762
45573SOL    HW138493  12.676  10.766  11.703
45573SOL    HW238494  12.600  10.645  11.753
45574SOL     OW38495   8.537  10.316   6.067
45574SOL    HW138496   8.496  10.403   6.060
45574SOL    HW238497   8.630  10.334   6.080
45575SOL     OW38498   6.070   0.950   1.139
45575SOL    HW138499   6.088   0.881   1.075
45575SOL    HW238500   5.998   1.000   1.100
45576SOL     OW38501  10.917   0.439  13.919
45576SOL    HW138502  10.963   0.404  13.996
45576SOL    HW238503  10.825   0.445  13.947
45577SOL     OW38504   5.960   2.969  13.659
45577SOL    HW138505   6.037   3.025  13.646
45577SOL    HW238506   5.922   3.000  13.741
45578SOL     OW38507   5.230  13.459  10.946
45578SOL    HW138508   5.179  13.525  10.900
45578SOL    HW238509   5.321  13.477  10.919
45579SOL     OW38510   5.389   4.581   9.112
45579SOL    HW138511   5.390   4.676   9.129
45579SOL    HW238512   5.442   4.544   9.183
45580SOL     OW38513   4.410   0.041  13.869
45580SOL    HW138514   4.341  14.860  13.894
45580SOL    HW238515   4.477  14.868  13.827
45581SOL     OW38516  12.912   8.202  12.182
45581SOL    HW138517  12.952   8.186  12.267
45581SOL    HW238518  12.967   8.155  12.120
45582SOL     OW38519   5.037   2.370  13.189
45582SOL    HW138520   4.976   2.444  13.195
45582SOL    HW238521   5.120   2.409  13.165
45583SOL     OW38522   4.756  12.179   7.437
45583SOL    HW138523   4.806  12.111   7.390
45583SOL    HW238524   4.676  12.189   7.386
45584SOL     OW38525   4.639  14.726  11.999
45584SOL    HW138526   4.575  14.773  12.053
45584SOL    HW238527   4.682  14.667  12.061
45585SOL     OW38528   6.665  11.804   0.970
45585SOL    HW138529   6.657  11.855   1.051
45585SOL    HW238530   6.647  11.865   0.900
45586SOL     OW38531   6.159   2.714   6.923
45586SOL    HW138532   6.209   2.633   6.935
45586SOL    HW238533   6.094   2.713   6.993
45587SOL     OW38534   1.320   1.811   3.177
45587SOL    HW138535   1.385   1.803   3.247
45587SOL    HW238536   1.369   1.796   3.097
45588SOL     OW38537   9.257   3.523   5.341
45588SOL    HW138538   9.347   3.504   5.367
45588SOL    HW238539   9.214   3.437   5.339
45589SOL     OW38540   0.429   2.485  10.380
45589SOL    HW138541   0.344   2.521  10.407
45589SOL    HW238542   0.488   2.504  10.453
45590SOL     OW38543   7.822   4.463  14.470
45590SOL    HW138544   7.782   4.403  14.408
45590SOL    HW238545   7.914   4.436  14.474
45591SOL     OW38546  11.677  10.451   6.931
45591SOL    HW138547  11.749  10.388   6.935
45591SOL    HW238548  11.601  10.399   6.908
45592SOL     OW38549  13.187   2.431  11.800
45592SOL    HW138550  13.269   2.382  11.788
45592SOL    HW238551  13.142   2.424  11.715
45593SOL     OW38552  12.547   3.227   6.212
45593SOL    HW138553  12.630   3.268   6.190
45593SOL    HW238554  12.569   3.136   6.232
45594SOL     OW38555   0.777  10.418   8.504
45594SOL    HW138556   0.683  10.410   8.514
45594SOL    HW238557   0.807  10.454   8.588
45595SOL     OW38558   5.497   7.424   8.076
45595SOL    HW138559   5.420   7.384   8.035
45595SOL    HW238560   5.534   7.354   8.130
45596SOL     OW38561  13.447  10.941   6.128
45596SOL    HW138562  13.537  10.944   6.160
45596SOL    HW238563  13.417  10.852   6.150
45597SOL     OW38564   7.539   6.665  12.750
45597SOL    HW138565   7.540   6.595  12.685
45597SOL    HW238566   7.597   6.733  12.714
45598SOL     OW38567  11.311   8.298  12.979
45598SOL    HW138568  11.327   8.307  13.072
45598SOL    HW238569  11.359   8.370  12.939
45599SOL     OW38570  13.153   1.401   3.385
45599SOL    HW138571  13.116   1.489   3.396
45599SOL    HW238572  13.076   1.344   3.376
45600SOL     OW38573   2.363   0.935   6.328
45600SOL    HW138574   2.417   0.872   6.376
45600SOL    HW238575   2.404   1.019   6.344
45601SOL     OW38576   3.817  13.480   6.289
45601SOL    HW138577   3.847  13.556   6.338
45601SOL    HW238578   3.881  13.411   6.309
45602SOL     OW38579  12.585   4.113   8.422
45602SOL    HW138580  12.571   4.173   8.349
45602SOL    HW238581  12.670   4.072   8.404
45603SOL     OW38582  13.933   2.514  11.030
45603SOL    HW138583  13.952   2.421  11.047
45603SOL    HW238584  13.874   2.513  10.954
45604SOL     OW38585  13.811  13.486   6.829
45604SOL    HW138586  13.784  13.576   6.846
45604SOL    HW238587  13.787  13.471   6.738
45605SOL     OW38588   3.922   6.606  14.092
45605SOL    HW138589   3.873   6.684  14.120
45605SOL    HW238590   3.975   6.637  14.019
45606SOL     OW38591  11.150  14.264   8.544
45606SOL    HW138592  11.241  14.258   8.514
45606SOL    HW238593  11.157  14.293   8.636
45607SOL     OW38594  14.278   2.426   1.382
45607SOL    HW138595  14.307   2.336   1.370
45607SOL    HW238596  14.291   2.467   1.296
45608SOL     OW38597   5.969   8.847   7.795
45608SOL    HW138598   6.060   8.835   7.824
45608SOL    HW238599   5.922   8.775   7.837
45609SOL     OW38600   4.982   2.356   1.768
45609SOL    HW138601   4.955   2.396   1.851
45609SOL    HW238602   4.918   2.287   1.753
45610SOL     OW38603   0.611   4.446   6.961
45610SOL    HW138604   0.636   4.358   6.990
45610SOL    HW238605   0.668   4.504   7.012
45611SOL     OW38606   0.627  14.074   5.620
45611SOL    HW138607   0.580  14.080   5.537
45611SOL    HW238608   0.643  14.164   5.646
45612SOL     OW38609   8.509   2.629   0.184
45612SOL    HW138610   8.451   2.688   0.136
45612SOL    HW238611   8.527   2.558   0.122
45613SOL     OW38612   2.151   8.383   0.406
45613SOL    HW138613   2.127   8.450   0.342
45613SOL    HW238614   2.204   8.320   0.356
45614SOL     OW38615   6.687   6.120   0.581
45614SOL    HW138616   6.749   6.133   0.652
45614SOL    HW238617   6.742   6.101   0.505
45615SOL     OW38618   1.006   6.900  10.294
45615SOL    HW138619   1.053   6.930  10.372
45615SOL    HW238620   1.027   6.807  10.287
45616SOL     OW38621   5.391   2.199   4.578
45616SOL    HW138622   5.448   2.165   4.510
45616SOL    HW238623   5.413   2.293   4.583
45617SOL     OW38624  10.454   3.034   3.049
45617SOL    HW138625  10.533   2.979   3.049
45617SOL    HW238626  10.467   3.094   3.122
45618SOL     OW38627   2.395  13.902   5.842
45618SOL    HW138628   2.354  13.929   5.760
45618SOL    HW238629   2.324  13.860   5.892
45619SOL     OW38630   9.825   0.881   2.535
45619SOL    HW138631   9.816   0.809   2.597
45619SOL    HW238632   9.847   0.838   2.452
45620SOL     OW38633   0.846  11.284   4.406
45620SOL    HW138634   0.870  11.268   4.315
45620SOL    HW238635   0.831  11.196   4.442
45621SOL     OW38636   8.524   1.886  14.565
45621SOL    HW138637   8.580   1.921  14.634
45621SOL    HW238638   8.575   1.814  14.527
45622SOL     OW38639   1.440  13.622   8.181
45622SOL    HW138640   1.391  13.540   8.185
45622SOL    HW238641   1.523  13.598   8.139
45623SOL     OW38642   0.471   3.074   6.982
45623SOL    HW138643   0.499   3.003   7.040
45623SOL    HW238644   0.537   3.077   6.913
45624SOL     OW38645   1.936   8.270   7.516
45624SOL    HW138646   1.946   8.364   7.500
45624SOL    HW238647   1.935   8.263   7.611
45625SOL     OW38648   6.505  11.419   0.996
45625SOL    HW138649   6.500  11.506   0.956
45625SOL    HW238650   6.585  11.380   0.960
45626SOL     OW38651   0.112   1.295   1.119
45626SOL    HW138652   0.077   1.355   1.186
45626SOL    HW238653   0.054   1.307   1.044
45627SOL     OW38654  13.419   0.577   0.986
45627SOL    HW138655  13.344   0.519   0.997
45627SOL    HW238656  13.432   0.581   0.891
45628SOL     OW38657   7.775   0.450   0.761
45628SOL    HW138658   7.845   0.396   0.797
45628SOL    HW238659   7.696   0.421   0.808
45629SOL     OW38660   6.473   1.053  14.831
45629SOL    HW138661   6.475   0.975  14.777
45629SOL    HW238662   6.564   1.069  14.855
45630SOL     OW38663   3.836   5.540   6.925
45630SOL    HW138664   3.828   5.456   6.879
45630SOL    HW238665   3.900   5.523   6.994
45631SOL     OW38666   1.569  11.783  10.287
45631SOL    HW138667   1.512  11.780  10.209
45631SOL    HW238668   1.520  11.836  10.350
45632SOL     OW38669  10.046   6.661  12.610
45632SOL    HW138670  10.061   6.753  12.634
45632SOL    HW238671   9.968   6.663  12.554
45633SOL     OW38672   9.521  14.102   6.734
45633SOL    HW138673   9.529  14.192   6.702
45633SOL    HW238674   9.611  14.069   6.737
45634SOL     OW38675   0.541   9.319  11.317
45634SOL    HW138676   0.566   9.310  11.225
45634SOL    HW238677   0.553   9.232  11.355
45635SOL     OW38678   6.350  12.498   6.857
45635SOL    HW138679   6.400  12.488   6.776
45635SOL    HW238680   6.265  12.532   6.828
45636SOL     OW38681   1.673  14.856   3.845
45636SOL    HW138682   1.749   0.019   3.807
45636SOL    HW238683   1.666  14.775   3.796
45637SOL     OW38684   2.728   3.787   9.218
45637SOL    HW138685   2.732   3.808   9.311
45637SOL    HW238686   2.802   3.729   9.203
45638SOL     OW38687   5.255   5.385   0.569
45638SOL    HW138688   5.238   5.331   0.646
45638SOL    HW238689   5.248   5.325   0.495
45639SOL     OW38690  13.553  13.777  12.959
45639SOL    HW138691  13.538  13.684  12.942
45639SOL    HW238692  13.590  13.811  12.877
45640SOL     OW38693   4.175  14.133   9.672
45640SOL    HW138694   4.230  14.066   9.631
45640SOL    HW238695   4.237  14.202   9.697
45641SOL     OW38696   7.162  12.936   7.525
45641SOL    HW138697   7.118  12.851   7.519
45641SOL    HW238698   7.245  12.916   7.568
45642SOL     OW38699   9.091   5.616   0.387
45642SOL    HW138700   9.061   5.548   0.326
45642SOL    HW238701   9.029   5.612   0.460
45643SOL     OW38702  10.362   0.397   4.476
45643SOL    HW138703  10.361   0.371   4.384
45643SOL    HW238704  10.434   0.346   4.514
45644SOL     OW38705  14.622   2.488  14.745
45644SOL    HW138706  14.698   2.546  14.749
45644SOL    HW238707  14.554   2.541  14.702
45645SOL     OW38708   7.971   1.560   7.738
45645SOL    HW138709   8.015   1.564   7.823
45645SOL    HW238710   8.032   1.515   7.681
45646SOL     OW38711   4.386   1.100   8.960
45646SOL    HW138712   4.357   1.161   9.027
45646SOL    HW238713   4.457   1.050   9.001
45647SOL     OW38714  12.786   4.044   6.315
45647SOL    HW138715  12.743   4.128   6.303
45647SOL    HW238716  12.716   3.979   6.304
45648SOL     OW38717   5.073  11.666   0.054
45648SOL    HW138718   5.138  11.651   0.122
45648SOL    HW238719   5.043  11.756   0.069
45649SOL     OW38720  14.103   0.088   7.860
45649SOL    HW138721  14.009   0.072   7.846
45649SOL    HW238722  14.145   0.003   7.844
45650SOL     OW38723   8.536  11.346   0.958
45650SOL    HW138724   8.473  11.371   1.026
45650SOL    HW238725   8.514  11.255   0.938
45651SOL     OW38726  13.703   6.723  11.697
45651SOL    HW138727  13.783   6.761  11.661
45651SOL    HW238728  13.734   6.652  11.752
45652SOL     OW38729  10.555  10.024   9.203
45652SOL    HW138730  10.600  10.055   9.125
45652SOL    HW238731  10.594   9.938   9.222
45653SOL     OW38732   1.434   9.989   5.358
45653SOL    HW138733   1.343  10.017   5.357
45653SOL    HW238734   1.432   9.900   5.322
45654SOL     OW38735   2.551   1.380  12.416
45654SOL    HW138736   2.501   1.322  12.359
45654SOL    HW238737   2.631   1.398  12.367
45655SOL     OW38738   6.867   5.952   8.877
45655SOL    HW138739   6.871   5.862   8.845
45655SOL    HW238740   6.803   5.949   8.947
45656SOL     OW38741  11.693   7.483   9.325
45656SOL    HW138742  11.759   7.414   9.319
45656SOL    HW238743  11.610   7.437   9.332
45657SOL     OW38744  13.729   3.978   0.053
45657SOL    HW138745  13.712   3.964  14.842
45657SOL    HW238746  13.750   3.892   0.088
45658SOL     OW38747   1.827   6.073   3.083
45658SOL    HW138748   1.804   6.164   3.102
45658SOL    HW238749   1.759   6.022   3.126
45659SOL     OW38750  14.364   7.799  10.836
45659SOL    HW138751  14.292   7.781  10.897
45659SOL    HW238752  14.441   7.761  10.878
45660SOL     OW38753   7.136   6.058   5.100
45660SOL    HW138754   7.157   5.978   5.052
45660SOL    HW238755   7.219   6.088   5.135
45661SOL     OW38756   8.148   3.795   9.059
45661SOL    HW138757   8.091   3.719   9.049
45661SOL    HW238758   8.236   3.758   9.070
45662SOL     OW38759   2.473   8.366   5.457
45662SOL    HW138760   2.399   8.366   5.397
45662SOL    HW238761   2.502   8.275   5.460
45663SOL     OW38762   7.745  11.465   0.637
45663SOL    HW138763   7.793  11.443   0.557
45663SOL    HW238764   7.711  11.382   0.669
45664SOL     OW38765  12.084   7.656   2.202
45664SOL    HW138766  12.127   7.597   2.140
45664SOL    HW238767  11.997   7.616   2.217
45665SOL     OW38768   9.435   0.353  13.899
45665SOL    HW138769   9.429   0.426  13.960
45665SOL    HW238770   9.348   0.348  13.859
45666SOL     OW38771  10.588   1.928   4.147
45666SOL    HW138772  10.523   1.913   4.079
45666SOL    HW238773  10.551   1.999   4.200
45667SOL     OW38774   8.038   3.755   3.754
45667SOL    HW138775   8.114   3.764   3.697
45667SOL    HW238776   8.002   3.669   3.733
45668SOL     OW38777   4.143  10.635   5.680
45668SOL    HW138778   4.216  10.628   5.618
45668SOL    HW238779   4.172  10.702   5.742
45669SOL     OW38780   9.582   0.758   5.892
45669SOL    HW138781   9.494   0.788   5.873
45669SOL    HW238782   9.633   0.838   5.905
45670SOL     OW38783   4.896   8.587  11.349
45670SOL    HW138784   4.968   8.630  11.395
45670SOL    HW238785   4.836   8.561  11.419
45671SOL     OW38786  14.027   8.218   2.633
45671SOL    HW138787  13.981   8.134   2.638
45671SOL    HW238788  14.119   8.195   2.622
45672SOL     OW38789  10.579   7.371   4.177
45672SOL    HW138790  10.515   7.442   4.179
45672SOL    HW238791  10.533   7.297   4.217
45673SOL     OW38792  11.880   6.596   4.816
45673SOL    HW138793  11.853   6.674   4.767
45673SOL    HW238794  11.975   6.592   4.802
45674SOL     OW38795   3.887   3.167   5.161
45674SOL    HW138796   3.828   3.165   5.085
45674SOL    HW238797   3.974   3.150   5.124
45675SOL     OW38798  10.897   5.292   0.647
45675SOL    HW138799  10.907   5.325   0.736
45675SOL    HW238800  10.867   5.202   0.658
45676SOL     OW38801   8.010  12.751   9.162
45676SOL    HW138802   8.022  12.708   9.077
45676SOL    HW238803   8.015  12.680   9.226
45677SOL     OW38804  12.122   3.853   5.135
45677SOL    HW138805  12.116   3.919   5.205
45677SOL    HW238806  12.037   3.857   5.091
45678SOL     OW38807  14.599  14.698   7.333
45678SOL    HW138808  14.677  14.642   7.331
45678SOL    HW238809  14.525  14.637   7.336
45679SOL     OW38810   4.298   0.149  13.205
45679SOL    HW138811   4.320   0.119  13.293
45679SOL    HW238812   4.338   0.235  13.198
45680SOL     OW38813   2.897   5.700  13.955
45680SOL    HW138814   2.919   5.752  13.879
45680SOL    HW238815   2.821   5.744  13.993
45681SOL     OW38816   6.388   9.640  14.310
45681SOL    HW138817   6.435   9.676  14.235
45681SOL    HW238818   6.353   9.716  14.355
45682SOL     OW38819   0.141   9.850   0.652
45682SOL    HW138820   0.118   9.764   0.619
45682SOL    HW238821   0.202   9.885   0.587
45683SOL     OW38822   0.263  13.146   4.280
45683SOL    HW138823   0.246  13.101   4.198
45683SOL    HW238824   0.185  13.199   4.295
45684SOL     OW38825   3.863   4.804  12.029
45684SOL    HW138826   3.775   4.836  12.009
45684SOL    HW238827   3.914   4.823  11.951
45685SOL     OW38828   7.636   3.831   1.001
45685SOL    HW138829   7.715   3.879   0.977
45685SOL    HW238830   7.587   3.823   0.919
45686SOL     OW38831  12.218   2.120   6.804
45686SOL    HW138832  12.185   2.180   6.737
45686SOL    HW238833  12.271   2.175   6.861
45687SOL     OW38834  11.875  12.909   1.527
45687SOL    HW138835  11.946  12.890   1.465
45687SOL    HW238836  11.918  12.959   1.597
45688SOL     OW38837   9.531  10.456   2.438
45688SOL    HW138838   9.499  10.377   2.395
45688SOL    HW238839   9.483  10.527   2.395
45689SOL     OW38840   8.581   6.070   2.524
45689SOL    HW138841   8.609   6.161   2.516
45689SOL    HW238842   8.584   6.052   2.618
45690SOL     OW38843  13.358  14.721  13.671
45690SOL    HW138844  13.433  14.780  13.664
45690SOL    HW238845  13.381  14.647  13.615
45691SOL     OW38846   7.198   1.041   6.596
45691SOL    HW138847   7.253   0.963   6.598
45691SOL    HW238848   7.130   1.024   6.662
45692SOL     OW38849  12.815   7.220   0.070
45692SOL    HW138850  12.833   7.151   0.006
45692SOL    HW238851  12.890   7.217   0.129
45693SOL     OW38852  13.992   1.727   5.663
45693SOL    HW138853  13.966   1.653   5.609
45693SOL    HW238854  14.086   1.735   5.649
45694SOL     OW38855   1.503   0.909   1.492
45694SOL    HW138856   1.517   0.839   1.556
45694SOL    HW238857   1.470   0.983   1.544
45695SOL     OW38858   6.503   9.748   9.130
45695SOL    HW138859   6.585   9.797   9.128
45695SOL    HW238860   6.526   9.660   9.102
45696SOL     OW38861  13.484   7.895   4.028
45696SOL    HW138862  13.535   7.887   3.947
45696SOL    HW238863  13.551   7.901   4.097
45697SOL     OW38864   1.094   4.695   2.200
45697SOL    HW138865   1.010   4.661   2.229
45697SOL    HW238866   1.159   4.645   2.249
45698SOL     OW38867  11.038   8.445   2.330
45698SOL    HW138868  11.008   8.520   2.382
45698SOL    HW238869  11.116   8.477   2.284
45699SOL     OW38870  11.228  14.542   7.522
45699SOL    HW138871  11.274  14.554   7.439
45699SOL    HW238872  11.276  14.597   7.585
45700SOL     OW38873  11.593  12.002   3.343
45700SOL    HW138874  11.686  12.019   3.325
45700SOL    HW238875  11.573  12.057   3.418
45701SOL     OW38876   6.404   3.707   8.633
45701SOL    HW138877   6.326   3.676   8.680
45701SOL    HW238878   6.375   3.716   8.543
45702SOL     OW38879   0.644  12.575   2.822
45702SOL    HW138880   0.640  12.479   2.819
45702SOL    HW238881   0.650  12.596   2.915
45703SOL     OW38882   5.064  11.418   6.156
45703SOL    HW138883   4.970  11.428   6.139
45703SOL    HW238884   5.093  11.506   6.179
45704SOL     OW38885   6.548   2.703   1.743
45704SOL    HW138886   6.593   2.726   1.825
45704SOL    HW238887   6.543   2.785   1.695
45705SOL     OW38888   8.450   8.961   8.455
45705SOL    HW138889   8.518   9.028   8.465
45705SOL    HW238890   8.460   8.931   8.364
45706SOL     OW38891   9.878   8.650   1.395
45706SOL    HW138892   9.823   8.579   1.428
45706SOL    HW238893   9.942   8.606   1.339
45707SOL     OW38894  12.286  10.432   3.858
45707SOL    HW138895  12.329  10.515   3.836
45707SOL    HW238896  12.291  10.380   3.778
45708SOL     OW38897  13.836   5.468  11.114
45708SOL    HW138898  13.873   5.384  11.142
45708SOL    HW238899  13.753   5.444  11.072
45709SOL     OW38900   1.276  13.684   7.446
45709SOL    HW138901   1.276  13.589   7.449
45709SOL    HW238902   1.368  13.709   7.458
45710SOL     OW38903   7.556   2.887   9.213
45710SOL    HW138904   7.642   2.882   9.255
45710SOL    HW238905   7.501   2.932   9.276
45711SOL     OW38906  11.809   4.601   4.133
45711SOL    HW138907  11.741   4.647   4.084
45711SOL    HW238908  11.890   4.647   4.110
45712SOL     OW38909   3.362  11.626   0.851
45712SOL    HW138910   3.329  11.536   0.852
45712SOL    HW238911   3.456  11.617   0.865
45713SOL     OW38912   2.583  12.592  10.724
45713SOL    HW138913   2.491  12.619  10.728
45713SOL    HW238914   2.581  12.497  10.723
45714SOL     OW38915   3.825   2.573   8.886
45714SOL    HW138916   3.910   2.567   8.930
45714SOL    HW238917   3.767   2.613   8.949
45715SOL     OW38918   0.044   7.055   0.419
45715SOL    HW138919   0.007   7.045   0.506
45715SOL    HW238920   0.107   6.982   0.411
45716SOL     OW38921   1.178  12.492   0.026
45716SOL    HW138922   1.242  12.421   0.018
45716SOL    HW238923   1.199  12.551  14.835
45717SOL     OW38924   8.716   0.657   9.268
45717SOL    HW138925   8.644   0.606   9.232
45717SOL    HW238926   8.696   0.748   9.244
45718SOL     OW38927  12.500  11.625   7.922
45718SOL    HW138928  12.459  11.542   7.948
45718SOL    HW238929  12.594  11.606   7.924
45719SOL     OW38930  12.878  13.769   5.403
45719SOL    HW138931  12.873  13.818   5.485
45719SOL    HW238932  12.893  13.679   5.431
45720SOL     OW38933  13.304  14.820   3.418
45720SOL    HW138934  13.308  14.851   3.508
45720SOL    HW238935  13.393  14.790   3.399
45721SOL     OW38936  10.324   3.410  12.376
45721SOL    HW138937  10.337   3.470  12.449
45721SOL    HW238938  10.371   3.331  12.402
45722SOL     OW38939  13.905   8.403  13.679
45722SOL    HW138940  13.977   8.417  13.617
45722SOL    HW238941  13.860   8.487  13.684
45723SOL     OW38942  14.284  12.885   8.413
45723SOL    HW138943  14.226  12.888   8.489
45723SOL    HW238944  14.227  12.862   8.340
45724SOL     OW38945   8.333   4.621  12.373
45724SOL    HW138946   8.428   4.634  12.375
45724SOL    HW238947   8.305   4.638  12.463
45725SOL     OW38948   5.933   4.734   9.009
45725SOL    HW138949   6.021   4.769   8.990
45725SOL    HW238950   5.949   4.656   9.061
45726SOL     OW38951   3.260   2.589   5.086
45726SOL    HW138952   3.340   2.570   5.038
45726SOL    HW238953   3.217   2.503   5.096
45727SOL     OW38954  11.381   1.337   1.656
45727SOL    HW138955  11.390   1.242   1.654
45727SOL    HW238956  11.304   1.355   1.603
45728SOL     OW38957   4.332   7.407   1.983
45728SOL    HW138958   4.273   7.343   2.024
45728SOL    HW238959   4.368   7.361   1.908
45729SOL     OW38960   1.872   5.346   2.691
45729SOL    HW138961   1.906   5.433   2.670
45729SOL    HW238962   1.941   5.285   2.664
45730SOL     OW38963   0.267  12.416  11.419
45730SOL    HW138964   0.320  12.382  11.347
45730SOL    HW238965   0.322  12.482  11.460
45731SOL     OW38966  10.278  14.080   3.694
45731SOL    HW138967  10.330  14.144   3.743
45731SOL    HW238968  10.331  14.000   3.696
45732SOL     OW38969   5.765   1.242  11.561
45732SOL    HW138970   5.821   1.267  11.635
45732SOL    HW238971   5.810   1.168  11.520
45733SOL     OW38972   4.216   9.823  11.536
45733SOL    HW138973   4.305   9.825  11.572
45733SOL    HW238974   4.205   9.908  11.495
45734SOL     OW38975   9.801   3.901   2.409
45734SOL    HW138976   9.880   3.850   2.391
45734SOL    HW238977   9.831   3.976   2.461
45735SOL     OW38978  13.877  13.208  11.557
45735SOL    HW138979  13.809  13.153  11.596
45735SOL    HW238980  13.952  13.149  11.546
45736SOL     OW38981  13.170   1.594   2.079
45736SOL    HW138982  13.157   1.676   2.031
45736SOL    HW238983  13.261   1.596   2.107
45737SOL     OW38984  11.577  11.358   8.468
45737SOL    HW138985  11.485  11.333   8.466
45737SOL    HW238986  11.579  11.442   8.513
45738SOL     OW38987   0.073   2.159   1.866
45738SOL    HW138988  14.872   2.159   1.816
45738SOL    HW238989   0.055   2.218   1.940
45739SOL     OW38990   1.003   2.550  11.309
45739SOL    HW138991   0.952   2.630  11.299
45739SOL    HW238992   0.998   2.529  11.402
45740SOL     OW38993   3.783   1.345   7.195
45740SOL    HW138994   3.746   1.304   7.273
45740SOL    HW238995   3.809   1.433   7.224
45741SOL     OW38996   0.116   8.614  11.236
45741SOL    HW138997   0.204   8.620  11.200
45741SOL    HW238998   0.104   8.696  11.284
45742SOL     OW38999  12.018   6.890   0.920
45742SOL    HW139000  12.106   6.870   0.952
45742SOL    HW239001  11.959   6.847   0.982
45743SOL     OW39002   0.256   9.857  12.296
45743SOL    HW139003   0.199   9.929  12.321
45743SOL    HW239004   0.261   9.801  12.374
45744SOL     OW39005   6.141   4.687  14.515
45744SOL    HW139006   6.101   4.770  14.541
45744SOL    HW239007   6.079   4.651  14.451
45745SOL     OW39008   3.345   8.240  11.257
45745SOL    HW139009   3.355   8.329  11.291
45745SOL    HW239010   3.286   8.250  11.182
45746SOL     OW39011   0.574  11.761   9.804
45746SOL    HW139012   0.547  11.852   9.789
45746SOL    HW239013   0.515  11.730   9.872
45747SOL     OW39014   3.167   6.661   2.169
45747SOL    HW139015   3.085   6.667   2.218
45747SOL    HW239016   3.139   6.637   2.080
45748SOL     OW39017   1.782   6.500   8.224
45748SOL    HW139018   1.810   6.411   8.204
45748SOL    HW239019   1.750   6.534   8.140
45749SOL     OW39020   2.575   4.548  14.488
45749SOL    HW139021   2.506   4.530  14.552
45749SOL    HW239022   2.639   4.601  14.535
45750SOL     OW39023  10.026   8.777   9.863
45750SOL    HW139024  10.109   8.747   9.902
45750SOL    HW239025  10.014   8.865   9.900
45751SOL     OW39026  12.653  13.071   1.444
45751SOL    HW139027  12.721  13.135   1.464
45751SOL    HW239028  12.573  13.108   1.481
45752SOL     OW39029  10.197  10.099   8.695
45752SOL    HW139030  10.115  10.084   8.647
45752SOL    HW239031  10.202  10.194   8.706
45753SOL     OW39032   8.026   5.812  10.373
45753SOL    HW139033   8.002   5.761  10.296
45753SOL    HW239034   8.021   5.903  10.344
45754SOL     OW39035   1.828   7.702   3.551
45754SOL    HW139036   1.893   7.754   3.598
45754SOL    HW239037   1.879   7.634   3.507
45755SOL     OW39038   0.070   1.247   9.298
45755SOL    HW139039   0.061   1.176   9.361
45755SOL    HW239040   0.148   1.225   9.247
45756SOL     OW39041   0.530   3.521   9.543
45756SOL    HW139042   0.538   3.437   9.589
45756SOL    HW239043   0.513   3.585   9.612
45757SOL     OW39044  14.622   0.776   8.262
45757SOL    HW139045  14.568   0.704   8.297
45757SOL    HW239046  14.567   0.815   8.194
45758SOL     OW39047   2.619  13.581   3.513
45758SOL    HW139048   2.580  13.668   3.510
45758SOL    HW239049   2.713  13.596   3.506
45759SOL     OW39050  14.849   9.476   2.202
45759SOL    HW139051  14.787   9.504   2.135
45759SOL    HW239052  14.794   9.445   2.274
45760SOL     OW39053  13.484   8.143  14.558
45760SOL    HW139054  13.554   8.206  14.577
45760SOL    HW239055  13.529   8.060  14.544
45761SOL     OW39056   1.217   0.972  13.931
45761SOL    HW139057   1.246   0.931  14.013
45761SOL    HW239058   1.295   0.971  13.875
45762SOL     OW39059   3.482  14.039   9.611
45762SOL    HW139060   3.577  14.023   9.609
45762SOL    HW239061   3.444  13.952   9.623
45763SOL     OW39062   6.840  12.319  12.042
45763SOL    HW139063   6.846  12.345  11.950
45763SOL    HW239064   6.919  12.269  12.059
45764SOL     OW39065  14.369  14.756   1.208
45764SOL    HW139066  14.339  14.782   1.121
45764SOL    HW239067  14.453  14.801   1.219
45765SOL     OW39068   6.786   4.928   3.637
45765SOL    HW139069   6.790   4.968   3.550
45765SOL    HW239070   6.877   4.911   3.660
45766SOL     OW39071  14.326   1.422   8.254
45766SOL    HW139072  14.231   1.434   8.259
45766SOL    HW239073  14.341   1.335   8.290
45767SOL     OW39074  14.736  10.419   3.551
45767SOL    HW139075  14.706  10.361   3.482
45767SOL    HW239076  14.697  10.504   3.530
45768SOL     OW39077  11.523  14.345   9.480
45768SOL    HW139078  11.596  14.337   9.419
45768SOL    HW239079  11.461  14.404   9.436
45769SOL     OW39080  13.594   4.007   1.790
45769SOL    HW139081  13.529   4.067   1.828
45769SOL    HW239082  13.676   4.056   1.791
45770SOL     OW39083   7.593   5.250  12.965
45770SOL    HW139084   7.642   5.226  13.044
45770SOL    HW239085   7.601   5.174  12.907
45771SOL     OW39086  11.015   1.908  14.137
45771SOL    HW139087  11.051   1.901  14.049
45771SOL    HW239088  10.937   1.962  14.127
45772SOL     OW39089   8.166   5.574  11.455
45772SOL    HW139090   8.237   5.625  11.416
45772SOL    HW239091   8.087   5.622  11.432
45773SOL     OW39092   5.271   0.060   3.699
45773SOL    HW139093   5.201   0.079   3.762
45773SOL    HW239094   5.287  14.847   3.710
45774SOL     OW39095   9.698   1.932  14.177
45774SOL    HW139096   9.693   1.851  14.229
45774SOL    HW239097   9.759   1.987  14.225
45775SOL     OW39098  10.595   5.326   0.976
45775SOL    HW139099  10.549   5.405   0.949
45775SOL    HW239100  10.651   5.355   1.049
45776SOL     OW39101  11.567   9.005  13.401
45776SOL    HW139102  11.487   8.962  13.431
45776SOL    HW239103  11.538   9.090  13.368
45777SOL     OW39104  14.471   6.333   4.148
45777SOL    HW139105  14.540   6.279   4.187
45777SOL    HW239106  14.511   6.369   4.069
45778SOL     OW39107   4.301  14.295   2.758
45778SOL    HW139108   4.324  14.260   2.844
45778SOL    HW239109   4.380  14.342   2.729
45779SOL     OW39110  13.490   4.182   8.421
45779SOL    HW139111  13.456   4.246   8.359
45779SOL    HW239112  13.419   4.120   8.433
45780SOL     OW39113  11.587   5.640  14.145
45780SOL    HW139114  11.679   5.653  14.166
45780SOL    HW239115  11.543   5.638  14.230
45781SOL     OW39116   7.002  14.072  12.605
45781SOL    HW139117   7.097  14.086  12.602
45781SOL    HW239118   6.992  13.977  12.611
45782SOL     OW39119   6.194   9.654   8.755
45782SOL    HW139120   6.185   9.584   8.819
45782SOL    HW239121   6.104   9.680   8.735
45783SOL     OW39122   2.589   8.730   5.135
45783SOL    HW139123   2.582   8.725   5.040
45783SOL    HW239124   2.506   8.768   5.164
45784SOL     OW39125   6.720   0.604   2.245
45784SOL    HW139126   6.755   0.655   2.318
45784SOL    HW239127   6.627   0.625   2.242
45785SOL     OW39128   0.413   9.775  13.081
45785SOL    HW139129   0.410   9.765  13.176
45785SOL    HW239130   0.367   9.857  13.064
45786SOL     OW39131   5.904   1.607   9.709
45786SOL    HW139132   5.814   1.638   9.718
45786SOL    HW239133   5.938   1.604   9.798
45787SOL     OW39134  10.806   3.979   8.836
45787SOL    HW139135  10.730   4.006   8.888
45787SOL    HW239136  10.882   4.012   8.885
45788SOL     OW39137   2.422   2.155   2.488
45788SOL    HW139138   2.336   2.149   2.447
45788SOL    HW239139   2.463   2.070   2.471
45789SOL     OW39140  12.313   2.415   3.300
45789SOL    HW139141  12.232   2.417   3.248
45789SOL    HW239142  12.305   2.336   3.354
45790SOL     OW39143   2.422   0.178   7.821
45790SOL    HW139144   2.427   0.166   7.915
45790SOL    HW239145   2.376   0.262   7.810
45791SOL     OW39146  11.200   4.858  10.047
45791SOL    HW139147  11.130   4.876  10.110
45791SOL    HW239148  11.268   4.922  10.068
45792SOL     OW39149   7.409  12.018   9.289
45792SOL    HW139150   7.346  12.061   9.231
45792SOL    HW239151   7.490  12.013   9.237
45793SOL     OW39152   0.621  11.995  14.723
45793SOL    HW139153   0.693  11.955  14.674
45793SOL    HW239154   0.663  12.062  14.778
45794SOL     OW39155  13.893   8.068  11.166
45794SOL    HW139156  13.881   8.157  11.132
45794SOL    HW239157  13.810   8.024  11.147
45795SOL     OW39158   3.955   7.907   1.841
45795SOL    HW139159   4.017   7.850   1.886
45795SOL    HW239160   3.890   7.847   1.804
45796SOL     OW39161   5.118   8.012   0.215
45796SOL    HW139162   5.197   8.063   0.195
45796SOL    HW239163   5.111   7.950   0.143
45797SOL     OW39164  13.347   6.388   4.137
45797SOL    HW139165  13.369   6.479   4.115
45797SOL    HW239166  13.427   6.354   4.178
45798SOL     OW39167  14.159  10.413   5.977
45798SOL    HW139168  14.108  10.342   5.939
45798SOL    HW239169  14.135  10.413   6.069
45799SOL     OW39170   9.803   7.572   6.661
45799SOL    HW139171   9.831   7.663   6.664
45799SOL    HW239172   9.852   7.529   6.732
45800SOL     OW39173   2.719   7.573   9.207
45800SOL    HW139174   2.744   7.506   9.270
45800SOL    HW239175   2.780   7.645   9.223
45801SOL     OW39176   7.406  14.294  13.172
45801SOL    HW139177   7.424  14.340  13.090
45801SOL    HW239178   7.355  14.217  13.147
45802SOL     OW39179   4.834   2.089   6.355
45802SOL    HW139180   4.814   2.040   6.275
45802SOL    HW239181   4.856   2.022   6.419
45803SOL     OW39182   6.374  11.128  10.027
45803SOL    HW139183   6.449  11.112  10.083
45803SOL    HW239184   6.324  11.196  10.073
45804SOL     OW39185  14.271   0.885  10.325
45804SOL    HW139186  14.360   0.903  10.354
45804SOL    HW239187  14.223   0.865  10.405
45805SOL     OW39188  11.287   8.533   2.227
45805SOL    HW139189  11.334   8.454   2.253
45805SOL    HW239190  11.320   8.552   2.139
45806SOL     OW39191   7.613   2.871  13.159
45806SOL    HW139192   7.541   2.878  13.222
45806SOL    HW239193   7.684   2.832  13.209
45807SOL     OW39194  13.704  10.919   7.525
45807SOL    HW139195  13.612  10.945   7.526
45807SOL    HW239196  13.731  10.925   7.616
45808SOL     OW39197  14.690   9.443   6.637
45808SOL    HW139198  14.710   9.389   6.714
45808SOL    HW239199  14.627   9.390   6.588
45809SOL     OW39200   4.184  11.883  12.962
45809SOL    HW139201   4.245  11.813  12.941
45809SOL    HW239202   4.221  11.961  12.920
45810SOL     OW39203  14.253  11.418   4.079
45810SOL    HW139204  14.338  11.382   4.104
45810SOL    HW239205  14.189  11.353   4.108
45811SOL     OW39206   3.632   1.778  14.357
45811SOL    HW139207   3.536   1.782  14.353
45811SOL    HW239208   3.656   1.839  14.427
45812SOL     OW39209  13.381   9.419   1.298
45812SOL    HW139210  13.367   9.415   1.392
45812SOL    HW239211  13.319   9.485   1.267
45813SOL     OW39212  10.443   1.970   3.917
45813SOL    HW139213  10.420   1.972   3.824
45813SOL    HW239214  10.425   1.881   3.945
45814SOL     OW39215   7.148   5.551   1.076
45814SOL    HW139216   7.209   5.587   1.012
45814SOL    HW239217   7.085   5.621   1.092
45815SOL     OW39218   7.712   9.240   3.510
45815SOL    HW139219   7.775   9.306   3.481
45815SOL    HW239220   7.735   9.161   3.462
45816SOL     OW39221  10.683   0.393   0.010
45816SOL    HW139222  10.615   0.447   0.051
45816SOL    HW239223  10.637   0.347  14.821
45817SOL     OW39224   0.406  10.594   2.232
45817SOL    HW139225   0.430  10.649   2.158
45817SOL    HW239226   0.374  10.655   2.298
45818SOL     OW39227  13.164  12.758   6.589
45818SOL    HW139228  13.145  12.674   6.630
45818SOL    HW239229  13.107  12.820   6.633
45819SOL     OW39230   9.158   6.929   0.674
45819SOL    HW139231   9.210   6.917   0.753
45819SOL    HW239232   9.111   6.847   0.663
45820SOL     OW39233  10.286   8.429  14.546
45820SOL    HW139234  10.226   8.359  14.523
45820SOL    HW239235  10.286   8.431  14.642
45821SOL     OW39236   9.902   2.890  13.456
45821SOL    HW139237   9.977   2.915  13.510
45821SOL    HW239238   9.919   2.799  13.432
45822SOL     OW39239  13.605   1.090   9.621
45822SOL    HW139240  13.610   1.038   9.701
45822SOL    HW239241  13.549   1.164   9.644
45823SOL     OW39242   0.417   6.522   6.240
45823SOL    HW139243   0.383   6.604   6.278
45823SOL    HW239244   0.356   6.501   6.169
45824SOL     OW39245   4.406  11.830   7.813
45824SOL    HW139246   4.468  11.901   7.796
45824SOL    HW239247   4.328  11.873   7.848
45825SOL     OW39248   2.332   6.111  14.284
45825SOL    HW139249   2.307   6.153  14.366
45825SOL    HW239250   2.255   6.059  14.259
45826SOL     OW39251   7.213  11.110  12.922
45826SOL    HW139252   7.121  11.105  12.897
45826SOL    HW239253   7.212  11.108  13.018
45827SOL     OW39254   0.141   0.247   8.276
45827SOL    HW139255   0.161   0.315   8.341
45827SOL    HW239256   0.053   0.269   8.245
45828SOL     OW39257  13.029   2.527   0.585
45828SOL    HW139258  13.032   2.620   0.608
45828SOL    HW239259  13.042   2.525   0.490
45829SOL     OW39260   0.316  10.017   9.849
45829SOL    HW139261   0.220  10.014   9.846
45829SOL    HW239262   0.339   9.966   9.927
45830SOL     OW39263   4.153  11.692  14.071
45830SOL    HW139264   4.075  11.637  14.075
45830SOL    HW239265   4.124  11.778  14.102
45831SOL     OW39266   1.002  14.426   5.315
45831SOL    HW139267   1.013  14.341   5.272
45831SOL    HW239268   1.023  14.409   5.407
45832SOL     OW39269   5.820   2.638   9.970
45832SOL    HW139270   5.814   2.696  10.045
45832SOL    HW239271   5.912   2.640   9.945
45833SOL     OW39272   1.401  11.810   4.076
45833SOL    HW139273   1.317  11.792   4.033
45833SOL    HW239274   1.411  11.737   4.138
45834SOL     OW39275   2.409   2.985  12.674
45834SOL    HW139276   2.465   2.908  12.675
45834SOL    HW239277   2.322   2.952  12.697
45835SOL     OW39278   9.725   8.175  14.384
45835SOL    HW139279   9.657   8.240  14.364
45835SOL    HW239280   9.806   8.225  14.386
45836SOL     OW39281   9.356  10.590   6.362
45836SOL    HW139282   9.273  10.638   6.359
45836SOL    HW239283   9.418  10.651   6.400
45837SOL     OW39284   3.741  14.278  13.212
45837SOL    HW139285   3.710  14.255  13.299
45837SOL    HW239286   3.717  14.370  13.201
45838SOL     OW39287  12.606  14.365  13.873
45838SOL    HW139288  12.582  14.278  13.905
45838SOL    HW239289  12.689  14.385  13.917
45839SOL     OW39290   1.026   7.204   7.047
45839SOL    HW139291   1.059   7.197   6.957
45839SOL    HW239292   1.074   7.278   7.084
45840SOL     OW39293   6.191   6.676  11.317
45840SOL    HW139294   6.250   6.614  11.361
45840SOL    HW239295   6.238   6.759  11.319
45841SOL     OW39296   8.338   5.117  10.027
45841SOL    HW139297   8.394   5.193  10.040
45841SOL    HW239298   8.295   5.104  10.111
45842SOL     OW39299   5.812   7.048   8.688
45842SOL    HW139300   5.789   7.074   8.778
45842SOL    HW239301   5.752   7.097   8.633
45843SOL     OW39302   7.430   4.469  11.560
45843SOL    HW139303   7.456   4.561  11.562
45843SOL    HW239304   7.512   4.421  11.559
45844SOL     OW39305   9.315  10.777  12.269
45844SOL    HW139306   9.312  10.842  12.340
45844SOL    HW239307   9.392  10.724  12.290
45845SOL     OW39308   3.912   7.860   5.216
45845SOL    HW139309   3.953   7.899   5.139
45845SOL    HW239310   3.945   7.770   5.218
45846SOL     OW39311  10.771   6.606  10.453
45846SOL    HW139312  10.724   6.688  10.435
45846SOL    HW239313  10.773   6.600  10.548
45847SOL     OW39314   3.542  12.096  12.888
45847SOL    HW139315   3.537  12.065  12.798
45847SOL    HW239316   3.451  12.114  12.913
45848SOL     OW39317   7.069  10.858  11.273
45848SOL    HW139318   6.994  10.848  11.332
45848SOL    HW239319   7.139  10.889  11.330
45849SOL     OW39320   6.862   1.222  12.946
45849SOL    HW139321   6.854   1.160  13.018
45849SOL    HW239322   6.871   1.167  12.868
45850SOL     OW39323  11.562  14.408  10.189
45850SOL    HW139324  11.647  14.364  10.189
45850SOL    HW239325  11.549  14.434  10.098
45851SOL     OW39326   1.121   3.612  11.602
45851SOL    HW139327   1.123   3.649  11.514
45851SOL    HW239328   1.028   3.605  11.623
45852SOL     OW39329  10.938  12.363  11.381
45852SOL    HW139330  10.854  12.407  11.382
45852SOL    HW239331  10.921  12.279  11.337
45853SOL     OW39332   9.771   1.671  13.144
45853SOL    HW139333   9.838   1.701  13.206
45853SOL    HW239334   9.721   1.750  13.123
45854SOL     OW39335  10.748  10.645   9.150
45854SOL    HW139336  10.794  10.588   9.089
45854SOL    HW239337  10.814  10.670   9.214
45855SOL     OW39338   0.979   5.495   2.761
45855SOL    HW139339   0.903   5.512   2.815
45855SOL    HW239340   1.037   5.443   2.816
45856SOL     OW39341   9.951  12.079  14.447
45856SOL    HW139342   9.921  12.130  14.372
45856SOL    HW239343  10.001  12.008  14.409
45857SOL     OW39344   3.765  11.678   1.137
45857SOL    HW139345   3.678  11.700   1.170
45857SOL    HW239346   3.817  11.757   1.152
45858SOL     OW39347   1.516   3.445  10.998
45858SOL    HW139348   1.609   3.426  10.992
45858SOL    HW239349   1.508   3.496  11.079
45859SOL     OW39350   0.099   1.414  10.457
45859SOL    HW139351   0.005   1.430  10.451
45859SOL    HW239352   0.135   1.500  10.481
45860SOL     OW39353   9.705   3.826  10.378
45860SOL    HW139354   9.621   3.784  10.393
45860SOL    HW239355   9.720   3.879  10.456
45861SOL     OW39356   2.619   1.466  13.960
45861SOL    HW139357   2.669   1.391  13.926
45861SOL    HW239358   2.531   1.455  13.924
45862SOL     OW39359  13.207   6.711  11.836
45862SOL    HW139360  13.188   6.662  11.915
45862SOL    HW239361  13.222   6.645  11.769
45863SOL     OW39362   3.606  14.255   6.133
45863SOL    HW139363   3.677  14.195   6.155
45863SOL    HW239364   3.557  14.210   6.064
45864SOL     OW39365  13.066   5.092  11.449
45864SOL    HW139366  13.108   5.065  11.368
45864SOL    HW239367  13.134   5.083  11.516
45865SOL     OW39368   8.917   2.065   8.854
45865SOL    HW139369   8.878   2.022   8.778
45865SOL    HW239370   9.011   2.054   8.843
45866SOL     OW39371   6.516   1.218  10.071
45866SOL    HW139372   6.545   1.127  10.078
45866SOL    HW239373   6.423   1.215  10.093
45867SOL     OW39374  13.973   5.811  11.101
45867SOL    HW139375  14.032   5.886  11.093
45867SOL    HW239376  13.895   5.837  11.051
45868SOL     OW39377  13.479  14.632   3.791
45868SOL    HW139378  13.547  14.566   3.799
45868SOL    HW239379  13.414  14.609   3.857
45869SOL     OW39380   3.270   8.008  13.246
45869SOL    HW139381   3.339   8.073  13.230
45869SOL    HW239382   3.196   8.039  13.194
45870SOL     OW39383   2.164   4.908   3.960
45870SOL    HW139384   2.228   4.883   3.893
45870SOL    HW239385   2.079   4.906   3.915
45871SOL     OW39386   9.330  12.246   7.642
45871SOL    HW139387   9.338  12.294   7.725
45871SOL    HW239388   9.309  12.313   7.577
45872SOL     OW39389   4.695  13.909   1.293
45872SOL    HW139390   4.613  13.866   1.318
45872SOL    HW239391   4.710  13.974   1.362
45873SOL     OW39392   5.791   9.725  13.947
45873SOL    HW139393   5.808   9.795  13.884
45873SOL    HW239394   5.711   9.684  13.915
45874SOL     OW39395   8.241   0.500   3.673
45874SOL    HW139396   8.272   0.450   3.748
45874SOL    HW239397   8.147   0.513   3.690
45875SOL     OW39398   2.371   4.919   2.709
45875SOL    HW139399   2.276   4.924   2.718
45875SOL    HW239400   2.388   4.830   2.678
45876SOL     OW39401   5.773  14.231  10.901
45876SOL    HW139402   5.739  14.223  10.990
45876SOL    HW239403   5.782  14.325  10.887
45877SOL     OW39404   8.977   4.248  10.190
45877SOL    HW139405   9.057   4.277  10.235
45877SOL    HW239406   8.998   4.255  10.097
45878SOL     OW39407   9.610   1.248   9.657
45878SOL    HW139408   9.595   1.341   9.671
45878SOL    HW239409   9.670   1.244   9.582
45879SOL     OW39410   8.361   9.611   3.613
45879SOL    HW139411   8.416   9.687   3.594
45879SOL    HW239412   8.422   9.546   3.649
45880SOL     OW39413   6.804  10.960   3.982
45880SOL    HW139414   6.821  10.877   4.027
45880SOL    HW239415   6.709  10.969   3.984
45881SOL     OW39416  13.175  10.292   2.875
45881SOL    HW139417  13.094  10.343   2.868
45881SOL    HW239418  13.203  10.305   2.966
45882SOL     OW39419   5.051  11.643   4.152
45882SOL    HW139420   5.089  11.729   4.138
45882SOL    HW239421   5.099  11.606   4.226
45883SOL     OW39422   8.940   7.645   1.512
45883SOL    HW139423   8.950   7.585   1.586
45883SOL    HW239424   8.876   7.603   1.455
45884SOL     OW39425   3.575   9.735   4.447
45884SOL    HW139426   3.596   9.828   4.455
45884SOL    HW239427   3.501   9.722   4.506
45885SOL     OW39428   2.249  12.832  14.730
45885SOL    HW139429   2.327  12.847  14.784
45885SOL    HW239430   2.184  12.798  14.791
45886SOL     OW39431   4.302   8.663  11.512
45886SOL    HW139432   4.294   8.700  11.424
45886SOL    HW239433   4.242   8.716  11.565
45887SOL     OW39434   7.752  13.832   5.334
45887SOL    HW139435   7.658  13.838   5.321
45887SOL    HW239436   7.786  13.919   5.313
45888SOL     OW39437   4.837  14.368   9.838
45888SOL    HW139438   4.765  14.427   9.861
45888SOL    HW239439   4.836  14.365   9.742
45889SOL     OW39440  11.791   8.530   4.023
45889SOL    HW139441  11.697   8.541   4.030
45889SOL    HW239442  11.827   8.578   4.098
45890SOL     OW39443   1.071   7.503  12.751
45890SOL    HW139444   1.017   7.582  12.757
45890SOL    HW239445   1.022   7.436  12.800
45891SOL     OW39446   3.842  10.431   7.835
45891SOL    HW139447   3.838  10.343   7.875
45891SOL    HW239448   3.922  10.469   7.870
45892SOL     OW39449   4.053   7.064   8.285
45892SOL    HW139450   4.147   7.051   8.299
45892SOL    HW239451   4.048   7.139   8.226
45893SOL     OW39452   9.292  14.380   6.970
45893SOL    HW139453   9.339  14.308   7.011
45893SOL    HW239454   9.360  14.443   6.948
45894SOL     OW39455   3.105   6.479   1.310
45894SOL    HW139456   3.198   6.455   1.306
45894SOL    HW239457   3.095   6.544   1.241
45895SOL     OW39458  11.606   4.935   5.406
45895SOL    HW139459  11.556   4.968   5.332
45895SOL    HW239460  11.563   4.971   5.483
45896SOL     OW39461  13.753   2.356  14.240
45896SOL    HW139462  13.661   2.375  14.221
45896SOL    HW239463  13.757   2.355  14.336
45897SOL     OW39464   0.369   3.547   4.759
45897SOL    HW139465   0.366   3.585   4.847
45897SOL    HW239466   0.436   3.479   4.764
45898SOL     OW39467  10.716   5.647   7.907
45898SOL    HW139468  10.738   5.556   7.922
45898SOL    HW239469  10.677   5.677   7.990
45899SOL     OW39470   1.871   0.932   7.598
45899SOL    HW139471   1.866   0.838   7.612
45899SOL    HW239472   1.937   0.962   7.661
45900SOL     OW39473   7.609   2.078   1.873
45900SOL    HW139474   7.684   2.138   1.868
45900SOL    HW239475   7.630   2.008   1.811
45901SOL     OW39476   9.176   7.593   6.907
45901SOL    HW139477   9.082   7.604   6.895
45901SOL    HW239478   9.205   7.674   6.949
45902SOL     OW39479   9.129   7.659   7.982
45902SOL    HW139480   9.151   7.566   7.988
45902SOL    HW239481   9.089   7.669   7.896
45903SOL     OW39482   6.976  14.619  13.482
45903SOL    HW139483   6.958  14.527  13.502
45903SOL    HW239484   6.977  14.623  13.387
45904SOL     OW39485   6.948  14.567   1.446
45904SOL    HW139486   7.023  14.626   1.443
45904SOL    HW239487   6.934  14.542   1.355
45905SOL     OW39488   5.242   7.415   6.052
45905SOL    HW139489   5.222   7.336   6.002
45905SOL    HW239490   5.313   7.457   6.004
45906SOL     OW39491  11.987  14.651   3.595
45906SOL    HW139492  12.029  14.566   3.607
45906SOL    HW239493  11.979  14.661   3.500
45907SOL     OW39494  12.968  11.564   6.536
45907SOL    HW139495  13.045  11.516   6.565
45907SOL    HW239496  12.992  11.600   6.450
45908SOL     OW39497   6.061  13.894   3.564
45908SOL    HW139498   5.987  13.868   3.619
45908SOL    HW239499   6.033  13.975   3.522
45909SOL     OW39500  12.289   5.109   8.257
45909SOL    HW139501  12.301   5.016   8.239
45909SOL    HW239502  12.337   5.124   8.338
45910SOL     OW39503   0.462   5.168  11.483
45910SOL    HW139504   0.534   5.140  11.426
45910SOL    HW239505   0.506   5.216  11.554
45911SOL     OW39506   1.814   9.638   2.433
45911SOL    HW139507   1.896   9.654   2.387
45911SOL    HW239508   1.790   9.723   2.470
45912SOL     OW39509   2.679   2.811  14.275
45912SOL    HW139510   2.654   2.753  14.203
45912SOL    HW239511   2.752   2.862  14.239
45913SOL     OW39512   5.649  13.838  10.321
45913SOL    HW139513   5.601  13.908  10.276
45913SOL    HW239514   5.647  13.862  10.413
45914SOL     OW39515   2.439  13.192   7.461
45914SOL    HW139516   2.480  13.219   7.544
45914SOL    HW239517   2.498  13.226   7.394
45915SOL     OW39518   7.109  10.878  11.926
45915SOL    HW139519   7.150  10.809  11.874
45915SOL    HW239520   7.094  10.949  11.864
45916SOL     OW39521  13.570  13.086   9.781
45916SOL    HW139522  13.564  13.041   9.865
45916SOL    HW239523  13.491  13.061   9.733
45917SOL     OW39524   2.766  14.291  10.971
45917SOL    HW139525   2.751  14.250  11.056
45917SOL    HW239526   2.850  14.337  10.981
45918SOL     OW39527  14.063  12.697   6.279
45918SOL    HW139528  14.146  12.680   6.235
45918SOL    HW239529  13.997  12.685   6.211
45919SOL     OW39530   8.694   5.080   4.009
45919SOL    HW139531   8.709   4.986   3.993
45919SOL    HW239532   8.618   5.102   3.955
45920SOL     OW39533   9.597   2.724   8.766
45920SOL    HW139534   9.656   2.725   8.842
45920SOL    HW239535   9.631   2.654   8.710
45921SOL     OW39536   9.844   9.883   2.994
45921SOL    HW139537   9.837   9.914   3.084
45921SOL    HW239538   9.899   9.804   2.999
45922SOL     OW39539   4.970  10.560   7.642
45922SOL    HW139540   5.035  10.539   7.709
45922SOL    HW239541   4.982  10.493   7.575
45923SOL     OW39542  14.438  14.525  14.118
45923SOL    HW139543  14.505  14.593  14.108
45923SOL    HW239544  14.369  14.567  14.168
45924SOL     OW39545   1.163  10.067   5.368
45924SOL    HW139546   1.099  10.116   5.316
45924SOL    HW239547   1.116   9.988   5.395
45925SOL     OW39548  10.250  13.959   9.459
45925SOL    HW139549  10.270  13.951   9.552
45925SOL    HW239550  10.206  14.044   9.450
45926SOL     OW39551   8.663   1.749   5.379
45926SOL    HW139552   8.634   1.805   5.452
45926SOL    HW239553   8.697   1.671   5.421
45927SOL     OW39554  13.551   7.442   0.547
45927SOL    HW139555  13.477   7.403   0.501
45927SOL    HW239556  13.523   7.446   0.639
45928SOL     OW39557  13.384  11.080  14.620
45928SOL    HW139558  13.322  11.020  14.661
45928SOL    HW239559  13.463  11.027  14.606
45929SOL     OW39560  11.740   5.406  13.803
45929SOL    HW139561  11.671   5.354  13.761
45929SOL    HW239562  11.743   5.487  13.753
45930SOL     OW39563  11.555   2.965  10.573
45930SOL    HW139564  11.632   3.000  10.619
45930SOL    HW239565  11.531   2.887  10.623
45931SOL     OW39566   9.006   5.836  13.897
45931SOL    HW139567   8.918   5.873  13.905
45931SOL    HW239568   9.052   5.897  13.839
45932SOL     OW39569   2.855   2.994   3.776
45932SOL    HW139570   2.774   2.943   3.776
45932SOL    HW239571   2.841   3.061   3.843
45933SOL     OW39572  11.444   6.152   6.288
45933SOL    HW139573  11.470   6.236   6.251
45933SOL    HW239574  11.429   6.169   6.381
45934SOL     OW39575   7.713  12.561   3.960
45934SOL    HW139576   7.674  12.534   3.877
45934SOL    HW239577   7.770  12.634   3.937
45935SOL     OW39578   3.768  14.384   7.456
45935SOL    HW139579   3.792  14.457   7.399
45935SOL    HW239580   3.801  14.409   7.542
45936SOL     OW39581  13.676  11.429   6.445
45936SOL    HW139582  13.714  11.356   6.495
45936SOL    HW239583  13.700  11.411   6.354
45937SOL     OW39584  13.644   9.302   4.456
45937SOL    HW139585  13.556   9.269   4.440
45937SOL    HW239586  13.695   9.223   4.476
45938SOL     OW39587   6.465   3.714   4.659
45938SOL    HW139588   6.527   3.786   4.668
45938SOL    HW239589   6.418   3.712   4.742
45939SOL     OW39590   5.449  14.039  13.137
45939SOL    HW139591   5.357  14.028  13.162
45939SOL    HW239592   5.449  14.109  13.072
45940SOL     OW39593   8.643  10.897  11.029
45940SOL    HW139594   8.672  10.930  10.944
45940SOL    HW239595   8.718  10.910  11.087
45941SOL     OW39596   0.722  13.346   6.162
45941SOL    HW139597   0.747  13.292   6.087
45941SOL    HW239598   0.789  13.414   6.166
45942SOL     OW39599   4.798  13.573   9.340
45942SOL    HW139600   4.869  13.521   9.302
45942SOL    HW239601   4.806  13.658   9.298
45943SOL     OW39602   4.818   0.733   3.427
45943SOL    HW139603   4.912   0.753   3.430
45943SOL    HW239604   4.814   0.638   3.427
45944SOL     OW39605   8.243   4.636  11.557
45944SOL    HW139606   8.299   4.611  11.630
45944SOL    HW239607   8.299   4.689  11.501
45945SOL     OW39608  11.723   6.946  12.978
45945SOL    HW139609  11.761   7.008  12.916
45945SOL    HW239610  11.751   6.978  13.064
45946SOL     OW39611   8.363   4.671  10.551
45946SOL    HW139612   8.396   4.665  10.461
45946SOL    HW239613   8.349   4.765  10.565
45947SOL     OW39614  10.976   8.555  14.433
45947SOL    HW139615  10.955   8.478  14.378
45947SOL    HW239616  11.043   8.602  14.383
45948SOL     OW39617   2.974   1.881  13.593
45948SOL    HW139618   3.060   1.860  13.558
45948SOL    HW239619   2.982   1.868  13.687
45949SOL     OW39620   2.110   6.399   5.733
45949SOL    HW139621   2.058   6.424   5.810
45949SOL    HW239622   2.193   6.368   5.770
45950SOL     OW39623   1.966  11.055   9.957
45950SOL    HW139624   1.984  11.085   9.868
45950SOL    HW239625   1.870  11.055   9.963
45951SOL     OW39626  11.427   4.869   1.254
45951SOL    HW139627  11.437   4.790   1.201
45951SOL    HW239628  11.512   4.913   1.250
45952SOL     OW39629  12.621   9.875   3.885
45952SOL    HW139630  12.583   9.798   3.843
45952SOL    HW239631  12.588   9.872   3.975
45953SOL     OW39632  11.126  14.863  11.468
45953SOL    HW139633  11.221  14.853  11.463
45953SOL    HW239634  11.098  14.795  11.529
45954SOL     OW39635   1.818  10.399  12.279
45954SOL    HW139636   1.882  10.329  12.266
45954SOL    HW239637   1.850  10.470  12.224
45955SOL     OW39638  14.144   1.759  11.195
45955SOL    HW139639  14.179   1.683  11.149
45955SOL    HW239640  14.115   1.724  11.280
45956SOL     OW39641  10.452   7.970   7.609
45956SOL    HW139642  10.494   7.894   7.567
45956SOL    HW239643  10.359   7.956   7.596
45957SOL     OW39644  11.554   6.107   8.287
45957SOL    HW139645  11.515   6.064   8.363
45957SOL    HW239646  11.618   6.044   8.254
45958SOL     OW39647   2.679   7.034  13.246
45958SOL    HW139648   2.656   6.956  13.196
45958SOL    HW239649   2.646   7.015  13.335
45959SOL     OW39650   9.063  10.809  11.610
45959SOL    HW139651   9.135  10.788  11.670
45959SOL    HW239652   9.006  10.868  11.659
45960SOL     OW39653   3.467   9.063  12.284
45960SOL    HW139654   3.543   9.072  12.227
45960SOL    HW239655   3.403   9.016  12.230
45961SOL     OW39656  10.122   4.375   0.309
45961SOL    HW139657  10.035   4.398   0.342
45961SOL    HW239658  10.117   4.282   0.289
45962SOL     OW39659   1.951  14.075   8.322
45962SOL    HW139660   1.874  14.019   8.334
45962SOL    HW239661   2.002  14.062   8.402
45963SOL     OW39662   8.960   9.230   1.148
45963SOL    HW139663   8.966   9.304   1.209
45963SOL    HW239664   8.877   9.244   1.102
45964SOL     OW39665   7.832   8.483   6.003
45964SOL    HW139666   7.898   8.474   5.934
45964SOL    HW239667   7.749   8.493   5.956
45965SOL     OW39668  12.990   7.408   1.703
45965SOL    HW139669  12.904   7.449   1.693
45965SOL    HW239670  13.040   7.471   1.756
45966SOL     OW39671  11.663  13.049  14.422
45966SOL    HW139672  11.737  13.001  14.385
45966SOL    HW239673  11.588  13.024  14.369
45967SOL     OW39674  13.490   9.628   2.735
45967SOL    HW139675  13.575   9.600   2.700
45967SOL    HW239676  13.470   9.564   2.803
45968SOL     OW39677   0.944   5.791  14.792
45968SOL    HW139678   0.935   5.864  14.854
45968SOL    HW239679   0.905   5.822  14.711
45969SOL     OW39680   1.643  12.831  14.285
45969SOL    HW139681   1.572  12.894  14.299
45969SOL    HW239682   1.698  12.840  14.363
45970SOL     OW39683   9.518  14.497   3.531
45970SOL    HW139684   9.486  14.407   3.534
45970SOL    HW239685   9.451  14.548   3.576
45971SOL     OW39686  13.491   7.707  10.246
45971SOL    HW139687  13.528   7.656  10.174
45971SOL    HW239688  13.405   7.668  10.261
45972SOL     OW39689   3.815  11.206  10.616
45972SOL    HW139690   3.856  11.290  10.596
45972SOL    HW239691   3.828  11.195  10.710
45973SOL     OW39692   8.615   0.557   9.525
45973SOL    HW139693   8.676   0.483   9.520
45973SOL    HW239694   8.644   0.616   9.455
45974SOL     OW39695  11.236   5.943   5.733
45974SOL    HW139696  11.315   5.912   5.689
45974SOL    HW239697  11.187   5.864   5.753
45975SOL     OW39698   4.904   2.349  10.594
45975SOL    HW139699   4.834   2.415  10.596
45975SOL    HW239700   4.903   2.310  10.681
45976SOL     OW39701  12.249   0.149   8.425
45976SOL    HW139702  12.285   0.237   8.431
45976SOL    HW239703  12.264   0.110   8.511
45977SOL     OW39704  11.405   0.786   6.714
45977SOL    HW139705  11.483   0.743   6.679
45977SOL    HW239706  11.332   0.734   6.680
45978SOL     OW39707   6.415   0.669   9.319
45978SOL    HW139708   6.432   0.741   9.257
45978SOL    HW239709   6.495   0.616   9.317
45979SOL     OW39710  14.427   9.830  10.397
45979SOL    HW139711  14.502   9.847  10.454
45979SOL    HW239712  14.427   9.902  10.335
45980SOL     OW39713   5.197   1.562   4.570
45980SOL    HW139714   5.102   1.545   4.566
45980SOL    HW239715   5.208   1.647   4.529
45981SOL     OW39716   1.104   4.565   8.800
45981SOL    HW139717   1.028   4.532   8.849
45981SOL    HW239718   1.155   4.486   8.780
45982SOL     OW39719  11.646   9.649   3.037
45982SOL    HW139720  11.712   9.604   2.984
45982SOL    HW239721  11.689   9.729   3.067
45983SOL     OW39722   7.089  14.008  14.439
45983SOL    HW139723   7.065  13.916  14.450
45983SOL    HW239724   7.168  14.019  14.492
45984SOL     OW39725   5.807   5.969  11.555
45984SOL    HW139726   5.794   5.881  11.520
45984SOL    HW239727   5.886   5.962  11.609
45985SOL     OW39728  10.995   9.400   4.768
45985SOL    HW139729  11.050   9.475   4.746
45985SOL    HW239730  10.939   9.388   4.692
45986SOL     OW39731  11.260  14.123  14.406
45986SOL    HW139732  11.237  14.138  14.497
45986SOL    HW239733  11.276  14.211  14.370
45987SOL     OW39734   4.425   5.844   9.961
45987SOL    HW139735   4.499   5.882  10.009
45987SOL    HW239736   4.381   5.920   9.922
45988SOL     OW39737   5.113   8.440   6.338
45988SOL    HW139738   5.111   8.477   6.250
45988SOL    HW239739   5.202   8.407   6.349
45989SOL     OW39740  10.354   2.204  10.776
45989SOL    HW139741  10.342   2.135  10.711
45989SOL    HW239742  10.266   2.237  10.794
45990SOL     OW39743   9.945  13.179  12.414
45990SOL    HW139744   9.850  13.166  12.422
45990SOL    HW239745   9.966  13.143  12.328
45991SOL     OW39746   3.468  12.137   7.383
45991SOL    HW139747   3.505  12.189   7.454
45991SOL    HW239748   3.406  12.079   7.425
45992SOL     OW39749   2.473   0.331   2.553
45992SOL    HW139750   2.560   0.365   2.532
45992SOL    HW239751   2.476   0.312   2.646
45993SOL     OW39752  14.859   8.560   7.494
45993SOL    HW139753  14.853   8.497   7.566
45993SOL    HW239754   0.016   8.638   7.534
45994SOL     OW39755  13.155   6.173   3.630
45994SOL    HW139756  13.099   6.183   3.553
45994SOL    HW239757  13.112   6.106   3.683
45995SOL     OW39758  12.969  10.603   6.038
45995SOL    HW139759  12.889  10.549   6.037
45995SOL    HW239760  13.023  10.565   6.107
45996SOL     OW39761   9.822  14.662   7.595
45996SOL    HW139762   9.886  14.724   7.628
45996SOL    HW239763   9.804  14.690   7.505
45997SOL     OW39764   7.687   5.947   8.938
45997SOL    HW139765   7.653   5.920   9.024
45997SOL    HW239766   7.615   5.927   8.878
45998SOL     OW39767  14.514  14.144   2.809
45998SOL    HW139768  14.548  14.230   2.835
45998SOL    HW239769  14.557  14.083   2.869
45999SOL     OW39770  13.015   2.849  12.152
45999SOL    HW139771  13.056   2.834  12.237
45999SOL    HW239772  13.084   2.829  12.088
46000SOL     OW39773  11.539   4.297   5.078
46000SOL    HW139774  11.621   4.339   5.105
46000SOL    HW239775  11.508   4.351   5.005
46001SOL     OW39776   5.559   7.207   9.890
46001SOL    HW139777   5.578   7.131   9.835
46001SOL    HW239778   5.643   7.229   9.931
46002SOL     OW39779   1.104   6.667   5.278
46002SOL    HW139780   1.151   6.667   5.362
46002SOL    HW239781   1.171   6.685   5.213
46003SOL     OW39782   2.788   2.769  11.870
46003SOL    HW139783   2.862   2.709  11.856
46003SOL    HW239784   2.820   2.830  11.936
46004SOL     OW39785  11.683  10.012   3.114
46004SOL    HW139786  11.752  10.000   3.049
46004SOL    HW239787  11.607  10.040   3.063
46005SOL     OW39788  14.793  14.206   9.651
46005SOL    HW139789  14.854  14.274   9.680
46005SOL    HW239790  14.773  14.228   9.561
46006SOL     OW39791   4.019   6.927  14.767
46006SOL    HW139792   4.111   6.902  14.775
46006SOL    HW239793   3.985   6.923  14.857
46007SOL     OW39794   7.144   6.075  14.327
46007SOL    HW139795   7.152   6.068  14.232
46007SOL    HW239796   7.150   6.168  14.345
46008SOL     OW39797   3.947   9.412   7.028
46008SOL    HW139798   4.036   9.419   6.994
46008SOL    HW239799   3.923   9.502   7.051
46009SOL     OW39800  11.785   7.141   2.810
46009SOL    HW139801  11.860   7.190   2.778
46009SOL    HW239802  11.740   7.111   2.731
46010SOL     OW39803   0.540   6.858   3.593
46010SOL    HW139804   0.444   6.854   3.599
46010SOL    HW239805   0.569   6.859   3.684
46011SOL     OW39806   6.153   5.142  13.310
46011SOL    HW139807   6.216   5.160  13.379
46011SOL    HW239808   6.178   5.200  13.238
46012SOL     OW39809   0.236   7.159  12.000
46012SOL    HW139810   0.141   7.152  12.015
46012SOL    HW239811   0.262   7.235  12.053
46013SOL     OW39812   7.199  10.960   3.118
46013SOL    HW139813   7.219  10.882   3.170
46013SOL    HW239814   7.118  10.938   3.072
46014SOL     OW39815   0.517   1.263  12.620
46014SOL    HW139816   0.602   1.224  12.642
46014SOL    HW239817   0.494   1.223  12.536
46015SOL     OW39818   9.525  13.170   7.288
46015SOL    HW139819   9.484  13.161   7.374
46015SOL    HW239820   9.461  13.131   7.228
46016SOL     OW39821   6.618  14.376  11.635
46016SOL    HW139822   6.579  14.434  11.700
46016SOL    HW239823   6.703  14.417  11.615
46017SOL     OW39824   6.154   9.920   4.839
46017SOL    HW139825   6.077   9.930   4.894
46017SOL    HW239826   6.160  10.003   4.791
46018SOL     OW39827   1.594   7.752   8.576
46018SOL    HW139828   1.539   7.782   8.648
46018SOL    HW239829   1.534   7.714   8.513
46019SOL     OW39830   4.941   4.824  10.246
46019SOL    HW139831   4.901   4.737  10.250
46019SOL    HW239832   4.973   4.830  10.156
46020SOL     OW39833  13.501   6.471   6.391
46020SOL    HW139834  13.490   6.428   6.307
46020SOL    HW239835  13.547   6.407   6.445
46021SOL     OW39836   6.185   3.465   1.823
46021SOL    HW139837   6.119   3.530   1.849
46021SOL    HW239838   6.188   3.403   1.896
46022SOL     OW39839  14.661   2.495   2.544
46022SOL    HW139840  14.749   2.466   2.567
46022SOL    HW239841  14.603   2.437   2.593
46023SOL     OW39842   0.503   6.256  11.579
46023SOL    HW139843   0.594   6.278  11.597
46023SOL    HW239844   0.505   6.162  11.560
46024SOL     OW39845   6.972   3.024   7.303
46024SOL    HW139846   7.067   3.023   7.298
46024SOL    HW239847   6.953   2.989   7.391
46025SOL     OW39848   8.183   8.024   4.240
46025SOL    HW139849   8.135   7.943   4.256
46025SOL    HW239850   8.208   8.020   4.148
46026SOL     OW39851  14.585   4.064  12.756
46026SOL    HW139852  14.673   4.062  12.719
46026SOL    HW239853  14.538   3.995  12.708
46027SOL     OW39854   0.818   7.942  14.067
46027SOL    HW139855   0.745   7.922  14.126
46027SOL    HW239856   0.777   7.973  13.987
46028SOL     OW39857   2.259   6.555   8.362
46028SOL    HW139858   2.294   6.598   8.284
46028SOL    HW239859   2.285   6.463   8.352
46029SOL     OW39860   1.096   8.461   2.908
46029SOL    HW139861   1.032   8.532   2.908
46029SOL    HW239862   1.178   8.502   2.881
46030SOL     OW39863  12.588   1.000   2.235
46030SOL    HW139864  12.600   0.906   2.252
46030SOL    HW239865  12.653   1.042   2.291
46031SOL     OW39866  14.428   4.300   7.481
46031SOL    HW139867  14.400   4.263   7.397
46031SOL    HW239868  14.476   4.229   7.524
46032SOL     OW39869   9.410  12.222   4.724
46032SOL    HW139870   9.425  12.129   4.706
46032SOL    HW239871   9.493  12.254   4.759
46033SOL     OW39872   4.564   3.998  12.644
46033SOL    HW139873   4.548   4.091  12.659
46033SOL    HW239874   4.530   3.955  12.723
46034SOL     OW39875   3.581   7.726   9.669
46034SOL    HW139876   3.669   7.732   9.706
46034SOL    HW239877   3.589   7.665   9.596
46035SOL     OW39878  10.637   0.198  10.674
46035SOL    HW139879  10.697   0.124  10.687
46035SOL    HW239880  10.562   0.177  10.730
46036SOL     OW39881   9.820  11.807  13.354
46036SOL    HW139882   9.794  11.760  13.274
46036SOL    HW239883   9.916  11.801  13.354
46037SOL     OW39884   1.910   1.457  11.495
46037SOL    HW139885   1.887   1.424  11.408
46037SOL    HW239886   1.949   1.382  11.540
46038SOL     OW39887   6.844  13.859   7.439
46038SOL    HW139888   6.779  13.923   7.412
46038SOL    HW239889   6.817  13.831   7.527
46039SOL     OW39890   6.699   4.223  11.972
46039SOL    HW139891   6.665   4.221  12.062
46039SOL    HW239892   6.789   4.192  11.979
46040SOL     OW39893  11.091  11.631   7.430
46040SOL    HW139894  11.073  11.725   7.443
46040SOL    HW239895  11.121  11.626   7.339
46041SOL     OW39896  10.595   4.670   9.898
46041SOL    HW139897  10.548   4.744   9.936
46041SOL    HW239898  10.583   4.599   9.961
46042SOL     OW39899   4.852   0.474   9.508
46042SOL    HW139900   4.900   0.553   9.531
46042SOL    HW239901   4.811   0.445   9.590
46043SOL     OW39902  12.469   8.060   3.542
46043SOL    HW139903  12.545   8.006   3.519
46043SOL    HW239904  12.488   8.090   3.631
46044SOL     OW39905  14.874  10.418   0.724
46044SOL    HW139906   0.056  10.453   0.786
46044SOL    HW239907   0.043  10.403   0.644
46045SOL     OW39908  12.304   6.190   2.660
46045SOL    HW139909  12.386   6.159   2.621
46045SOL    HW239910  12.240   6.186   2.588
46046SOL     OW39911   9.732   1.874   8.534
46046SOL    HW139912   9.760   1.890   8.624
46046SOL    HW239913   9.761   1.785   8.516
46047SOL     OW39914  14.649   8.632   3.142
46047SOL    HW139915  14.642   8.650   3.048
46047SOL    HW239916  14.588   8.692   3.183
46048SOL     OW39917   5.499   2.084  11.961
46048SOL    HW139918   5.458   2.105  12.045
46048SOL    HW239919   5.449   2.009  11.929
46049SOL     OW39920  11.321   8.738   6.197
46049SOL    HW139921  11.244   8.690   6.166
46049SOL    HW239922  11.301   8.830   6.179
46050SOL     OW39923   5.152   3.434  13.826
46050SOL    HW139924   5.079   3.444  13.765
46050SOL    HW239925   5.155   3.517  13.873
46051SOL     OW39926  10.021   2.255   5.048
46051SOL    HW139927   9.979   2.188   4.994
46051SOL    HW239928  10.072   2.308   4.986
46052SOL     OW39929   1.147   2.035   4.844
46052SOL    HW139930   1.193   1.959   4.880
46052SOL    HW239931   1.130   2.091   4.920
46053SOL     OW39932   8.585   9.779   0.411
46053SOL    HW139933   8.595   9.739   0.325
46053SOL    HW239934   8.521   9.849   0.398
46054SOL     OW39935   1.051   0.292   9.550
46054SOL    HW139936   1.093   0.253   9.474
46054SOL    HW239937   1.107   0.267   9.624
46055SOL     OW39938  10.845  10.547   4.513
46055SOL    HW139939  10.791  10.497   4.452
46055SOL    HW239940  10.793  10.552   4.593
46056SOL     OW39941   7.774  13.824   4.020
46056SOL    HW139942   7.805  13.914   4.012
46056SOL    HW239943   7.751  13.815   4.112
46057SOL     OW39944  13.374   2.130  14.324
46057SOL    HW139945  13.457   2.084  14.332
46057SOL    HW239946  13.387   2.190  14.251
46058SOL     OW39947   2.206  14.642  11.260
46058SOL    HW139948   2.139  14.607  11.201
46058SOL    HW239949   2.214  14.734  11.234
46059SOL     OW39950   8.562   1.919  13.307
46059SOL    HW139951   8.511   1.909  13.227
46059SOL    HW239952   8.498   1.914  13.378
46060SOL     OW39953   7.446  13.208   3.765
46060SOL    HW139954   7.381  13.174   3.826
46060SOL    HW239955   7.397  13.266   3.707
46061SOL     OW39956   2.686   6.532   8.261
46061SOL    HW139957   2.747   6.577   8.319
46061SOL    HW239958   2.661   6.453   8.309
46062SOL     OW39959   2.688   1.815  11.616
46062SOL    HW139960   2.720   1.772  11.537
46062SOL    HW239961   2.596   1.835  11.597
46063SOL     OW39962  10.881   4.715   0.537
46063SOL    HW139963  10.933   4.784   0.496
46063SOL    HW239964  10.820   4.762   0.594
46064SOL     OW39965   5.388   4.045   9.318
46064SOL    HW139966   5.419   3.956   9.339
46064SOL    HW239967   5.465   4.101   9.331
46065SOL     OW39968   0.658   6.939  14.388
46065SOL    HW139969   0.732   6.911  14.336
46065SOL    HW239970   0.696   6.995  14.456
46066SOL     OW39971   4.255  10.460   5.265
46066SOL    HW139972   4.336  10.409   5.265
46066SOL    HW239973   4.259  10.509   5.183
46067SOL     OW39974  12.965  13.075   8.386
46067SOL    HW139975  12.969  13.153   8.332
46067SOL    HW239976  12.993  13.004   8.329
46068SOL     OW39977   7.977  10.352   8.532
46068SOL    HW139978   8.063  10.340   8.491
46068SOL    HW239979   7.925  10.397   8.466
46069SOL     OW39980   5.331   5.141   1.596
46069SOL    HW139981   5.329   5.046   1.588
46069SOL    HW239982   5.304   5.173   1.510
46070SOL     OW39983   5.031   3.757   5.780
46070SOL    HW139984   5.040   3.840   5.827
46070SOL    HW239985   4.937   3.739   5.781
46071SOL     OW39986   6.899  10.584  11.885
46071SOL    HW139987   6.977  10.568  11.939
46071SOL    HW239988   6.827  10.590  11.948
46072SOL     OW39989  11.563   7.212  11.233
46072SOL    HW139990  11.640   7.259  11.203
46072SOL    HW239991  11.515   7.192  11.153
46073SOL     OW39992  11.041   1.231   5.192
46073SOL    HW139993  11.037   1.136   5.183
46073SOL    HW239994  11.129   1.255   5.163
46074SOL     OW39995   9.576   5.875   0.235
46074SOL    HW139996   9.599   5.889   0.143
46074SOL    HW239997   9.656   5.838   0.274
46075SOL     OW39998   2.204  14.650  12.871
46075SOL    HW139999   2.143  14.692  12.932
46075SOL    HW240000   2.290  14.669  12.907
46076SOL     OW40001   0.685   6.832  13.829
46076SOL    HW140002   0.752   6.787  13.779
46076SOL    HW240003   0.608   6.834  13.771
46077SOL     OW40004  14.680   2.263   5.639
46077SOL    HW140005  14.681   2.306   5.554
46077SOL    HW240006  14.716   2.329   5.699
46078SOL     OW40007  12.733   9.662   3.112
46078SOL    HW140008  12.695   9.592   3.165
46078SOL    HW240009  12.707   9.743   3.157
46079SOL     OW40010   7.141   1.016  12.929
46079SOL    HW140011   7.153   0.959  13.004
46079SOL    HW240012   7.216   0.998  12.872
46080SOL     OW40013   7.607   5.455  13.632
46080SOL    HW140014   7.542   5.401  13.677
46080SOL    HW240015   7.598   5.431  13.540
46081SOL     OW40016   4.945   7.257   5.704
46081SOL    HW140017   4.906   7.170   5.695
46081SOL    HW240018   4.922   7.302   5.623
46082SOL     OW40019   8.093  14.399  14.451
46082SOL    HW140020   8.155  14.361  14.389
46082SOL    HW240021   8.143  14.469  14.493
46083SOL     OW40022   8.477   3.288   9.021
46083SOL    HW140023   8.534   3.355   8.982
46083SOL    HW240024   8.389   3.310   8.991
46084SOL     OW40025   6.228   6.134   3.834
46084SOL    HW140026   6.269   6.073   3.774
46084SOL    HW240027   6.134   6.115   3.828
46085SOL     OW40028   0.558   9.874  12.783
46085SOL    HW140029   0.567   9.897  12.876
46085SOL    HW240030   0.541   9.780  12.783
46086SOL     OW40031  13.617   2.469   2.048
46086SOL    HW140032  13.653   2.557   2.037
46086SOL    HW240033  13.598   2.462   2.142
46087SOL     OW40034   0.392   5.159  12.308
46087SOL    HW140035   0.395   5.147  12.213
46087SOL    HW240036   0.316   5.215  12.323
46088SOL     OW40037  10.498   9.901   0.705
46088SOL    HW140038  10.588   9.870   0.718
46088SOL    HW240039  10.444   9.824   0.721
46089SOL     OW40040   9.936  11.416   1.450
46089SOL    HW140041   9.907  11.494   1.402
46089SOL    HW240042  10.022  11.440   1.484
46090SOL     OW40043  11.357   2.181  11.688
46090SOL    HW140044  11.305   2.248  11.645
46090SOL    HW240045  11.374   2.115  11.620
46091SOL     OW40046   2.760   2.169   9.800
46091SOL    HW140047   2.727   2.250   9.763
46091SOL    HW240048   2.854   2.170   9.781
46092SOL     OW40049   6.920  11.557   2.547
46092SOL    HW140050   7.003  11.592   2.580
46092SOL    HW240051   6.930  11.462   2.554
46093SOL     OW40052   9.607  12.263   3.403
46093SOL    HW140053   9.573  12.351   3.416
46093SOL    HW240054   9.556  12.228   3.329
46094SOL     OW40055   2.522  12.189   3.622
46094SOL    HW140056   2.481  12.111   3.586
46094SOL    HW240057   2.464  12.217   3.692
46095SOL     OW40058  12.826  10.120   1.691
46095SOL    HW140059  12.731  10.123   1.681
46095SOL    HW240060  12.841  10.042   1.744
46096SOL     OW40061   7.949   0.490  13.694
46096SOL    HW140062   7.890   0.487  13.770
46096SOL    HW240063   7.896   0.530  13.625
46097SOL     OW40064  14.627  12.268  12.540
46097SOL    HW140065  14.539  12.271  12.502
46097SOL    HW240066  14.635  12.179  12.574
46098SOL     OW40067   3.141  11.237   3.194
46098SOL    HW140068   3.129  11.201   3.107
46098SOL    HW240069   3.213  11.299   3.185
46099SOL     OW40070   2.091  13.422  14.062
46099SOL    HW140071   2.058  13.356  14.122
46099SOL    HW240072   2.091  13.503  14.113
46100SOL     OW40073   4.720   9.167   3.929
46100SOL    HW140074   4.798   9.214   3.958
46100SOL    HW240075   4.707   9.100   3.996
46101SOL     OW40076   5.305   5.222   5.918
46101SOL    HW140077   5.368   5.253   5.853
46101SOL    HW240078   5.349   5.234   6.002
46102SOL     OW40079   4.796   9.432   7.316
46102SOL    HW140080   4.717   9.378   7.314
46102SOL    HW240081   4.764   9.522   7.308
46103SOL     OW40082  12.054   0.046   7.840
46103SOL    HW140083  12.022  14.844   7.806
46103SOL    HW240084  12.084   0.093   7.762
46104SOL     OW40085   7.966   1.700   3.136
46104SOL    HW140086   7.978   1.668   3.226
46104SOL    HW240087   7.871   1.699   3.123
46105SOL     OW40088  12.757   9.290   1.670
46105SOL    HW140089  12.769   9.259   1.760
46105SOL    HW240090  12.714   9.216   1.625
46106SOL     OW40091  13.756   5.827  11.501
46106SOL    HW140092  13.777   5.874  11.582
46106SOL    HW240093  13.841   5.810  11.461
46107SOL     OW40094   0.452   1.878  11.798
46107SOL    HW140095   0.522   1.897  11.861
46107SOL    HW240096   0.377   1.852  11.853
46108SOL     OW40097   7.041   2.094  14.104
46108SOL    HW140098   7.061   2.119  14.194
46108SOL    HW240099   7.111   2.033  14.080
46109SOL     OW40100   1.845  14.488   0.216
46109SOL    HW140101   1.825  14.527   0.301
46109SOL    HW240102   1.933  14.519   0.196
46110SOL     OW40103   3.161   0.440   4.633
46110SOL    HW140104   3.071   0.414   4.617
46110SOL    HW240105   3.163   0.466   4.725
46111SOL     OW40106   0.270  13.328   6.950
46111SOL    HW140107   0.228  13.335   6.865
46111SOL    HW240108   0.352  13.376   6.941
46112SOL     OW40109   6.027  10.569   2.389
46112SOL    HW140110   6.053  10.508   2.320
46112SOL    HW240111   5.989  10.515   2.458
46113SOL     OW40112   8.525   4.326   7.822
46113SOL    HW140113   8.453   4.373   7.780
46113SOL    HW240114   8.491   4.301   7.908
46114SOL     OW40115  10.117   7.277  14.827
46114SOL    HW140116  10.105   7.264  14.733
46114SOL    HW240117  10.211   7.296  14.836
46115SOL     OW40118   8.727   3.962   2.763
46115SOL    HW140119   8.785   4.019   2.712
46115SOL    HW240120   8.779   3.883   2.779
46116SOL     OW40121  13.116  11.031  14.354
46116SOL    HW140122  13.136  11.125  14.359
46116SOL    HW240123  13.036  11.027  14.302
46117SOL     OW40124  10.380   9.810   1.381
46117SOL    HW140125  10.299   9.850   1.413
46117SOL    HW240126  10.357   9.777   1.294
46118SOL     OW40127  14.823  13.148   5.392
46118SOL    HW140128  14.821  13.152   5.488
46118SOL    HW240129  14.782  13.064   5.371
46119SOL     OW40130  12.258   0.545   8.222
46119SOL    HW140131  12.168   0.513   8.211
46119SOL    HW240132  12.248   0.627   8.271
46120SOL     OW40133   0.444   1.545   7.969
46120SOL    HW140134   0.473   1.616   8.026
46120SOL    HW240135   0.353   1.567   7.947
46121SOL     OW40136  13.809  10.366   0.056
46121SOL    HW140137  13.802  10.383  14.844
46121SOL    HW240138  13.722  10.382   0.091
46122SOL     OW40139  14.842   5.280  10.075
46122SOL    HW140140  14.759   5.239  10.049
46122SOL    HW240141  14.848   5.359  10.022
46123SOL     OW40142   5.819   2.943   5.755
46123SOL    HW140143   5.855   3.031   5.744
46123SOL    HW240144   5.816   2.907   5.666
46124SOL     OW40145   8.415   7.275   3.314
46124SOL    HW140146   8.476   7.263   3.240
46124SOL    HW240147   8.345   7.329   3.278
46125SOL     OW40148  11.395   8.310   9.020
46125SOL    HW140149  11.323   8.353   9.065
46125SOL    HW240150  11.435   8.378   8.966
46126SOL     OW40151   6.294  11.425   8.473
46126SOL    HW140152   6.361  11.491   8.494
46126SOL    HW240153   6.248  11.410   8.555
46127SOL     OW40154   7.184   9.701  12.610
46127SOL    HW140155   7.237   9.691  12.531
46127SOL    HW240156   7.108   9.644  12.595
46128SOL     OW40157   7.219  13.265  12.934
46128SOL    HW140158   7.126  13.288  12.933
46128SOL    HW240159   7.225  13.190  12.876
46129SOL     OW40160   1.538   5.713   0.004
46129SOL    HW140161   1.466   5.754   0.052
46129SOL    HW240162   1.592   5.673   0.072
46130SOL     OW40163  10.088  14.376   0.772
46130SOL    HW140164   9.995  14.398   0.783
46130SOL    HW240165  10.131  14.419   0.845
46131SOL     OW40166   1.314   6.963  12.408
46131SOL    HW140167   1.327   7.016  12.330
46131SOL    HW240168   1.224   6.981  12.435
46132SOL     OW40169  13.989   2.686  11.469
46132SOL    HW140170  13.916   2.688  11.408
46132SOL    HW240171  13.997   2.595  11.495
46133SOL     OW40172   6.301   4.935  14.786
46133SOL    HW140173   6.221   4.907  14.743
46133SOL    HW240174   6.321   4.866  14.849
46134SOL     OW40175   4.789   8.182   2.011
46134SOL    HW140176   4.723   8.120   1.981
46134SOL    HW240177   4.779   8.184   2.106
46135SOL     OW40178   7.773   9.976   4.865
46135SOL    HW140179   7.747   9.980   4.773
46135SOL    HW240180   7.753  10.063   4.899
46136SOL     OW40181  10.983   9.647   6.265
46136SOL    HW140182  11.026   9.725   6.299
46136SOL    HW240183  11.042   9.575   6.288
46137SOL     OW40184   2.754   4.831  13.787
46137SOL    HW140185   2.796   4.753  13.751
46137SOL    HW240186   2.742   4.889  13.711
46138SOL     OW40187   1.558   6.743   6.581
46138SOL    HW140188   1.464   6.761   6.587
46138SOL    HW240189   1.599   6.829   6.586
46139SOL     OW40190   4.801   4.478   9.984
46139SOL    HW140191   4.836   4.513  10.065
46139SOL    HW240192   4.879   4.451   9.934
46140SOL     OW40193  14.339   6.064   0.212
46140SOL    HW140194  14.312   6.057   0.304
46140SOL    HW240195  14.385   5.981   0.195
46141SOL     OW40196   9.055  12.388  11.580
46141SOL    HW140197   9.073  12.473  11.620
46141SOL    HW240198   8.980  12.403  11.523
46142SOL     OW40199   7.262  11.357   7.588
46142SOL    HW140200   7.190  11.294   7.574
46142SOL    HW240201   7.279  11.353   7.682
46143SOL     OW40202  14.529   7.232   0.453
46143SOL    HW140203  14.507   7.233   0.546
46143SOL    HW240204  14.523   7.323   0.426
46144SOL     OW40205   1.618   9.271  13.064
46144SOL    HW140206   1.545   9.330  13.085
46144SOL    HW240207   1.602   9.244  12.974
46145SOL     OW40208   2.895   6.153  14.451
46145SOL    HW140209   2.848   6.148  14.368
46145SOL    HW240210   2.839   6.206  14.508
46146SOL     OW40211   2.186  11.094   2.729
46146SOL    HW140212   2.240  11.169   2.754
46146SOL    HW240213   2.114  11.132   2.678
46147SOL     OW40214   1.013   4.441   7.066
46147SOL    HW140215   1.101   4.410   7.089
46147SOL    HW240216   1.027   4.497   6.989
46148SOL     OW40217   7.435   6.204  13.240
46148SOL    HW140218   7.387   6.275  13.281
46148SOL    HW240219   7.455   6.236  13.152
46149SOL     OW40220   5.404   6.056  12.964
46149SOL    HW140221   5.407   5.968  13.001
46149SOL    HW240222   5.372   6.112  13.035
46150SOL     OW40223   1.250   3.418  10.046
46150SOL    HW140224   1.231   3.497   9.996
46150SOL    HW240225   1.179   3.357  10.023
46151SOL     OW40226  10.700   8.827   6.146
46151SOL    HW140227  10.794   8.846   6.144
46151SOL    HW240228  10.682   8.802   6.236
46152SOL     OW40229  11.827   5.421   9.715
46152SOL    HW140230  11.792   5.333   9.727
46152SOL    HW240231  11.896   5.409   9.649
46153SOL     OW40232   1.260   4.294   7.180
46153SOL    HW140233   1.209   4.226   7.224
46153SOL    HW240234   1.314   4.246   7.117
46154SOL     OW40235   2.636   2.229   1.500
46154SOL    HW140236   2.621   2.218   1.406
46154SOL    HW240237   2.713   2.177   1.519
46155SOL     OW40238   9.136   5.647   9.234
46155SOL    HW140239   9.128   5.677   9.143
46155SOL    HW240240   9.046   5.644   9.266
46156SOL     OW40241   2.043   6.205  12.147
46156SOL    HW140242   2.061   6.201  12.054
46156SOL    HW240243   2.054   6.298  12.170
46157SOL     OW40244   0.781  12.997   5.291
46157SOL    HW140245   0.689  13.012   5.269
46157SOL    HW240246   0.813  12.939   5.221
46158SOL     OW40247  13.701  12.931   1.328
46158SOL    HW140248  13.722  12.885   1.247
46158SOL    HW240249  13.657  12.865   1.382
46159SOL     OW40250   0.127   9.947  13.599
46159SOL    HW140251   0.073   9.966  13.523
46159SOL    HW240252   0.066   9.950  13.673
46160SOL     OW40253   3.424   6.755   6.924
46160SOL    HW140254   3.421   6.664   6.954
46160SOL    HW240255   3.455   6.804   7.001
46161SOL     OW40256   8.284   7.426   5.064
46161SOL    HW140257   8.357   7.386   5.016
46161SOL    HW240258   8.316   7.435   5.153
46162SOL     OW40259   3.151  14.039   8.315
46162SOL    HW140260   3.232  13.994   8.338
46162SOL    HW240261   3.123  14.081   8.396
46163SOL     OW40262  11.622   2.845  12.109
46163SOL    HW140263  11.688   2.914  12.120
46163SOL    HW240264  11.588   2.859  12.020
46164SOL     OW40265   7.187   0.590   9.101
46164SOL    HW140266   7.215   0.500   9.118
46164SOL    HW240267   7.160   0.624   9.186
46165SOL     OW40268   6.282  13.215  14.593
46165SOL    HW140269   6.191  13.244  14.599
46165SOL    HW240270   6.280  13.139  14.536
46166SOL     OW40271   6.670   4.020   5.024
46166SOL    HW140272   6.614   4.081   4.976
46166SOL    HW240273   6.724   4.075   5.079
46167SOL     OW40274  13.950   7.393  13.810
46167SOL    HW140275  13.858   7.394  13.782
46167SOL    HW240276  13.999   7.425  13.734
46168SOL     OW40277   4.393   6.642   9.151
46168SOL    HW140278   4.435   6.645   9.236
46168SOL    HW240279   4.303   6.669   9.167
46169SOL     OW40280  10.948   7.753   3.221
46169SOL    HW140281  10.871   7.764   3.166
46169SOL    HW240282  10.941   7.822   3.288
46170SOL     OW40283   5.941   6.548  10.653
46170SOL    HW140284   5.904   6.564  10.740
46170SOL    HW240285   5.905   6.463  10.627
46171SOL     OW40286  11.655   2.181  12.689
46171SOL    HW140287  11.702   2.172  12.606
46171SOL    HW240288  11.630   2.274  12.692
46172SOL     OW40289  11.299   5.032   4.886
46172SOL    HW140290  11.384   4.994   4.911
46172SOL    HW240291  11.269   4.978   4.813
46173SOL     OW40292   0.653   0.755  13.749
46173SOL    HW140293   0.604   0.782  13.827
46173SOL    HW240294   0.671   0.662  13.764
46174SOL     OW40295   1.496  11.605   1.463
46174SOL    HW140296   1.460  11.676   1.410
46174SOL    HW240297   1.424  11.543   1.473
46175SOL     OW40298   4.043   9.651  13.100
46175SOL    HW140299   4.080   9.736  13.126
46175SOL    HW240300   4.119   9.600  13.071
46176SOL     OW40301  13.276   6.581   5.693
46176SOL    HW140302  13.345   6.614   5.635
46176SOL    HW240303  13.303   6.491   5.713
46177SOL     OW40304   8.888  14.161  10.859
46177SOL    HW140305   8.823  14.141  10.926
46177SOL    HW240306   8.952  14.090  10.865
46178SOL     OW40307   0.143   8.923   9.582
46178SOL    HW140308   0.060   8.886   9.610
46178SOL    HW240309   0.206   8.892   9.646
46179SOL     OW40310   6.997   2.021   5.467
46179SOL    HW140311   7.055   1.949   5.493
46179SOL    HW240312   6.942   1.984   5.398
46180SOL     OW40313  12.509   1.830  10.277
46180SOL    HW140314  12.548   1.896  10.219
46180SOL    HW240315  12.436   1.794  10.226
46181SOL     OW40316   9.249   2.007  10.041
46181SOL    HW140317   9.305   1.944   9.995
46181SOL    HW240318   9.211   2.061   9.971
46182SOL     OW40319   5.467   6.688   3.369
46182SOL    HW140320   5.490   6.741   3.292
46182SOL    HW240321   5.372   6.690   3.371
46183SOL     OW40322   7.533   6.066  10.357
46183SOL    HW140323   7.629   6.065  10.356
46183SOL    HW240324   7.508   6.003  10.290
46184SOL     OW40325   1.839  10.394   6.706
46184SOL    HW140326   1.904  10.341   6.660
46184SOL    HW240327   1.802  10.335   6.771
46185SOL     OW40328  13.898  10.626   9.611
46185SOL    HW140329  13.833  10.606   9.679
46185SOL    HW240330  13.884  10.558   9.544
46186SOL     OW40331   4.822   2.727  10.675
46186SOL    HW140332   4.908   2.763  10.655
46186SOL    HW240333   4.760   2.787  10.633
46187SOL     OW40334   6.600   8.803   3.133
46187SOL    HW140335   6.587   8.896   3.156
46187SOL    HW240336   6.607   8.803   3.038
46188SOL     OW40337   3.733  11.944   0.969
46188SOL    HW140338   3.717  11.855   0.937
46188SOL    HW240339   3.786  11.985   0.901
46189SOL     OW40340  10.605  10.425   3.720
46189SOL    HW140341  10.620  10.365   3.646
46189SOL    HW240342  10.592  10.367   3.795
46190SOL     OW40343  11.099   3.597  12.830
46190SOL    HW140344  11.060   3.640  12.754
46190SOL    HW240345  11.052   3.635  12.905
46191SOL     OW40346   3.480   2.269   1.124
46191SOL    HW140347   3.477   2.283   1.219
46191SOL    HW240348   3.442   2.182   1.112
46192SOL     OW40349  13.625  14.866   2.496
46192SOL    HW140350  13.552  14.810   2.524
46192SOL    HW240351  13.598   0.073   2.520
46193SOL     OW40352  10.134  11.371  10.541
46193SOL    HW140353  10.203  11.313  10.510
46193SOL    HW240354  10.099  11.326  10.618
46194SOL     OW40355  14.217   9.188   6.919
46194SOL    HW140356  14.200   9.095   6.934
46194SOL    HW240357  14.221   9.226   7.007
46195SOL     OW40358   5.179   5.306   2.738
46195SOL    HW140359   5.195   5.378   2.799
46195SOL    HW240360   5.263   5.259   2.734
46196SOL     OW40361   7.008   5.594  10.639
46196SOL    HW140362   7.090   5.608  10.687
46196SOL    HW240363   7.028   5.524  10.577
46197SOL     OW40364   1.737  11.005   8.665
46197SOL    HW140365   1.724  11.027   8.757
46197SOL    HW240366   1.724  10.910   8.660
46198SOL     OW40367   2.982   7.414   9.612
46198SOL    HW140368   3.033   7.493   9.596
46198SOL    HW240369   3.042   7.355   9.658
46199SOL     OW40370   7.203  14.198   3.447
46199SOL    HW140371   7.201  14.255   3.524
46199SOL    HW240372   7.280  14.227   3.398
46200SOL     OW40373  13.135   4.685   9.911
46200SOL    HW140374  13.042   4.693   9.889
46200SOL    HW240375  13.144   4.728   9.996
46201SOL     OW40376  13.686   6.959   3.869
46201SOL    HW140377  13.662   7.017   3.941
46201SOL    HW240378  13.611   6.961   3.810
46202SOL     OW40379   4.349  12.270   1.251
46202SOL    HW140380   4.268  12.293   1.296
46202SOL    HW240381   4.322  12.249   1.162
46203SOL     OW40382  13.409   1.404   8.705
46203SOL    HW140383  13.453   1.406   8.620
46203SOL    HW240384  13.316   1.395   8.684
46204SOL     OW40385   1.282   5.068   3.497
46204SOL    HW140386   1.332   4.988   3.510
46204SOL    HW240387   1.348   5.135   3.481
46205SOL     OW40388   1.523  12.378  14.578
46205SOL    HW140389   1.516  12.415  14.666
46205SOL    HW240390   1.489  12.446  14.520
46206SOL     OW40391   3.647  14.429   6.452
46206SOL    HW140392   3.571  14.397   6.405
46206SOL    HW240393   3.615  14.447   6.540
46207SOL     OW40394  10.328   7.905  14.772
46207SOL    HW140395  10.276   7.968  14.723
46207SOL    HW240396  10.264   7.853  14.820
46208SOL     OW40397   3.650  14.042   0.568
46208SOL    HW140398   3.567  14.084   0.549
46208SOL    HW240399   3.710  14.114   0.587
46209SOL     OW40400   1.301   5.352   2.290
46209SOL    HW140401   1.339   5.371   2.376
46209SOL    HW240402   1.242   5.426   2.273
46210SOL     OW40403  13.121  11.570   0.367
46210SOL    HW140404  13.131  11.475   0.358
46210SOL    HW240405  13.123  11.603   0.278
46211SOL     OW40406   8.853   1.446   7.277
46211SOL    HW140407   8.913   1.385   7.233
46211SOL    HW240408   8.771   1.397   7.283
46212SOL     OW40409   9.691   1.018   5.967
46212SOL    HW140410   9.780   0.984   5.974
46212SOL    HW240411   9.670   1.050   6.055
46213SOL     OW40412  12.686   8.962   9.971
46213SOL    HW140413  12.759   8.909   9.939
46213SOL    HW240414  12.651   8.912  10.045
46214SOL     OW40415  12.353  10.231   2.887
46214SOL    HW140416  12.397  10.245   2.804
46214SOL    HW240417  12.260  10.250   2.870
46215SOL     OW40418  13.763  11.360   0.674
46215SOL    HW140419  13.722  11.444   0.695
46215SOL    HW240420  13.740  11.304   0.748
46216SOL     OW40421  10.490   3.386  10.611
46216SOL    HW140422  10.495   3.320  10.681
46216SOL    HW240423  10.433   3.454  10.646
46217SOL     OW40424   2.090   6.215  10.056
46217SOL    HW140425   2.130   6.162  10.125
46217SOL    HW240426   2.115   6.305  10.076
46218SOL     OW40427  12.698   1.717  14.569
46218SOL    HW140428  12.667   1.784  14.508
46218SOL    HW240429  12.784   1.693  14.535
46219SOL     OW40430   7.812  12.095   3.129
46219SOL    HW140431   7.767  12.041   3.063
46219SOL    HW240432   7.764  12.077   3.210
46220SOL     OW40433  11.395   4.649   5.154
46220SOL    HW140434  11.481   4.635   5.115
46220SOL    HW240435  11.333   4.612   5.091
46221SOL     OW40436  10.092  10.718   1.224
46221SOL    HW140437  10.159  10.652   1.207
46221SOL    HW240438  10.020  10.695   1.165
46222SOL     OW40439   2.048   5.656  12.026
46222SOL    HW140440   2.102   5.605  12.086
46222SOL    HW240441   2.047   5.744  12.063
46223SOL     OW40442  13.589   5.373   1.815
46223SOL    HW140443  13.523   5.412   1.758
46223SOL    HW240444  13.670   5.379   1.765
46224SOL     OW40445   3.818  13.811   3.889
46224SOL    HW140446   3.816  13.715   3.891
46224SOL    HW240447   3.843  13.837   3.978
46225SOL     OW40448   0.871  12.914  14.626
46225SOL    HW140449   0.809  12.873  14.565
46225SOL    HW240450   0.845  13.007  14.628
46226SOL     OW40451  11.293  12.367   2.545
46226SOL    HW140452  11.286  12.274   2.523
46226SOL    HW240453  11.228  12.380   2.613
46227SOL     OW40454  13.260   3.112   1.241
46227SOL    HW140455  13.335   3.087   1.186
46227SOL    HW240456  13.258   3.208   1.235
46228SOL     OW40457  13.506   4.706   1.561
46228SOL    HW140458  13.434   4.645   1.578
46228SOL    HW240459  13.584   4.650   1.557
46229SOL     OW40460   4.629   7.982   1.904
46229SOL    HW140461   4.603   7.908   1.959
46229SOL    HW240462   4.670   7.942   1.827
46230SOL     OW40463   4.967   0.663  13.897
46230SOL    HW140464   4.906   0.693  13.965
46230SOL    HW240465   5.019   0.740  13.876
46231SOL     OW40466   8.553   8.552  11.202
46231SOL    HW140467   8.510   8.586  11.123
46231SOL    HW240468   8.481   8.521  11.257
46232SOL     OW40469   7.076  12.600   4.505
46232SOL    HW140470   7.136  12.525   4.513
46232SOL    HW240471   7.045  12.597   4.415
46233SOL     OW40472   2.725   9.289   7.071
46233SOL    HW140473   2.744   9.220   7.135
46233SOL    HW240474   2.629   9.288   7.063
46234SOL     OW40475   4.101  13.663   0.586
46234SOL    HW140476   4.055  13.738   0.624
46234SOL    HW240477   4.171  13.645   0.649
46235SOL     OW40478   1.758   4.741   4.772
46235SOL    HW140479   1.682   4.787   4.808
46235SOL    HW240480   1.778   4.790   4.691
46236SOL     OW40481   2.010  13.558  11.412
46236SOL    HW140482   1.942  13.626  11.410
46236SOL    HW240483   2.092  13.606  11.415
46237SOL     OW40484   9.771   2.512  10.803
46237SOL    HW140485   9.800   2.420  10.810
46237SOL    HW240486   9.826   2.549  10.733
46238SOL     OW40487   0.736   2.683   9.531
46238SOL    HW140488   0.816   2.678   9.582
46238SOL    HW240489   0.766   2.688   9.440
46239SOL     OW40490   5.906   5.829   0.508
46239SOL    HW140491   5.944   5.808   0.423
46239SOL    HW240492   5.886   5.744   0.547
46240SOL     OW40493   4.451   4.287   0.606
46240SOL    HW140494   4.439   4.193   0.592
46240SOL    HW240495   4.364   4.320   0.628
46241SOL     OW40496   9.694   7.655   0.312
46241SOL    HW140497   9.696   7.654   0.407
46241SOL    HW240498   9.602   7.638   0.290
46242SOL     OW40499  11.415   5.249   1.172
46242SOL    HW140500  11.392   5.177   1.113
46242SOL    HW240501  11.510   5.251   1.173
46243SOL     OW40502   2.182   0.899   9.105
46243SOL    HW140503   2.127   0.864   9.035
46243SOL    HW240504   2.238   0.826   9.131
46244SOL     OW40505  11.547   9.933   3.941
46244SOL    HW140506  11.612   9.934   4.011
46244SOL    HW240507  11.569  10.008   3.886
46245SOL     OW40508  13.746  10.379  12.236
46245SOL    HW140509  13.768  10.453  12.179
46245SOL    HW240510  13.656  10.395  12.262
46246SOL     OW40511   7.965  13.609   8.055
46246SOL    HW140512   7.883  13.582   8.014
46246SOL    HW240513   8.000  13.676   7.996
46247SOL     OW40514   0.727  12.471  14.827
46247SOL    HW140515   0.663  12.533  14.791
46247SOL    HW240516   0.809  12.493  14.783
46248SOL     OW40517   5.361   8.362   5.000
46248SOL    HW140518   5.408   8.347   5.082
46248SOL    HW240519   5.427   8.399   4.941
46249SOL     OW40520  11.087   1.108   4.109
46249SOL    HW140521  11.033   1.037   4.147
46249SOL    HW240522  11.026   1.180   4.097
46250SOL     OW40523   5.918   8.174   0.949
46250SOL    HW140524   5.872   8.107   1.001
46250SOL    HW240525   5.894   8.154   0.859
46251SOL     OW40526   4.807   6.160  14.721
46251SOL    HW140527   4.793   6.139  14.813
46251SOL    HW240528   4.861   6.088  14.688
46252SOL     OW40529  11.209   7.583   3.346
46252SOL    HW140530  11.159   7.650   3.301
46252SOL    HW240531  11.147   7.512   3.362
46253SOL     OW40532   6.221  11.918  12.135
46253SOL    HW140533   6.281  11.983  12.173
46253SOL    HW240534   6.159  11.899  12.205
46254SOL     OW40535   8.744  10.138   6.886
46254SOL    HW140536   8.724  10.057   6.933
46254SOL    HW240537   8.706  10.125   6.799
46255SOL     OW40538   4.666  11.863  10.167
46255SOL    HW140539   4.571  11.852  10.170
46255SOL    HW240540   4.700  11.780  10.201
46256SOL     OW40541   5.340   5.191  11.896
46256SOL    HW140542   5.268   5.223  11.841
46256SOL    HW240543   5.317   5.220  11.985
46257SOL     OW40544   4.521   8.416   2.851
46257SOL    HW140545   4.569   8.336   2.872
46257SOL    HW240546   4.468   8.393   2.775
46258SOL     OW40547   3.228   2.744   7.564
46258SOL    HW140548   3.258   2.766   7.652
46258SOL    HW240549   3.263   2.657   7.548
46259SOL     OW40550   2.165   6.605  14.075
46259SOL    HW140551   2.163   6.524  14.125
46259SOL    HW240552   2.103   6.663  14.120
46260SOL     OW40553   9.570   0.545  14.228
46260SOL    HW140554   9.541   0.525  14.317
46260SOL    HW240555   9.645   0.487  14.214
46261SOL     OW40556   7.434   7.050   5.619
46261SOL    HW140557   7.514   7.103   5.624
46261SOL    HW240558   7.427   7.011   5.706
46262SOL     OW40559   2.233   8.228   6.906
46262SOL    HW140560   2.161   8.203   6.849
46262SOL    HW240561   2.312   8.205   6.857
46263SOL     OW40562   8.293  14.808   5.535
46263SOL    HW140563   8.286  14.748   5.461
46263SOL    HW240564   8.205  14.847   5.542
46264SOL     OW40565  14.650   2.171   9.867
46264SOL    HW140566  14.576   2.189   9.925
46264SOL    HW240567  14.715   2.236   9.889
46265SOL     OW40568   4.093  11.189  13.842
46265SOL    HW140569   4.080  11.194  13.747
46265SOL    HW240570   4.116  11.278  13.867
46266SOL     OW40571   5.744   4.949   3.147
46266SOL    HW140572   5.840   4.953   3.144
46266SOL    HW240573   5.717   5.040   3.135
46267SOL     OW40574   6.062   8.033  11.921
46267SOL    HW140575   6.003   8.089  11.871
46267SOL    HW240576   6.150   8.066  11.901
46268SOL     OW40577   6.676  11.250   5.397
46268SOL    HW140578   6.609  11.300   5.350
46268SOL    HW240579   6.653  11.258   5.489
46269SOL     OW40580  13.776  11.060   9.961
46269SOL    HW140581  13.700  11.106   9.999
46269SOL    HW240582  13.831  11.130   9.927
46270SOL     OW40583  13.306   5.216  12.044
46270SOL    HW140584  13.224   5.179  12.076
46270SOL    HW240585  13.367   5.142  12.043
46271SOL     OW40586  14.144   0.135  13.211
46271SOL    HW140587  14.238   0.146  13.196
46271SOL    HW240588  14.138   0.092  13.295
46272SOL     OW40589   6.746   4.429   1.416
46272SOL    HW140590   6.733   4.469   1.502
46272SOL    HW240591   6.720   4.496   1.354
46273SOL     OW40592   5.973   4.160   9.125
46273SOL    HW140593   5.993   4.251   9.146
46273SOL    HW240594   6.044   4.132   9.069
46274SOL     OW40595   9.289  13.686  11.269
46274SOL    HW140596   9.368  13.698  11.322
46274SOL    HW240597   9.262  13.775  11.247
46275SOL     OW40598   7.812   0.960   4.304
46275SOL    HW140599   7.766   0.975   4.222
46275SOL    HW240600   7.779   1.028   4.363
46276SOL     OW40601  12.896   9.600  13.791
46276SOL    HW140602  12.853   9.516  13.774
46276SOL    HW240603  12.972   9.600  13.733
46277SOL     OW40604   3.807   8.768  14.815
46277SOL    HW140605   3.850   8.685  14.834
46277SOL    HW240606   3.817   8.780  14.721
46278SOL     OW40607   3.673   3.878   2.304
46278SOL    HW140608   3.762   3.843   2.317
46278SOL    HW240609   3.680   3.930   2.223
46279SOL     OW40610   5.647   1.662   7.375
46279SOL    HW140611   5.691   1.746   7.385
46279SOL    HW240612   5.598   1.669   7.293
46280SOL     OW40613  14.838   7.208   2.967
46280SOL    HW140614  14.770   7.177   2.908
46280SOL    HW240615   0.039   7.186   2.922
46281SOL     OW40616   5.754  12.107  10.368
46281SOL    HW140617   5.728  12.072  10.283
46281SOL    HW240618   5.821  12.173  10.348
46282SOL     OW40619   6.805  14.600  11.971
46282SOL    HW140620   6.831  14.636  12.056
46282SOL    HW240621   6.717  14.634  11.957
46283SOL     OW40622  14.801   1.753  12.794
46283SOL    HW140623  14.787   1.737  12.887
46283SOL    HW240624  14.817   1.666  12.757
46284SOL     OW40625  11.084  12.337   2.745
46284SOL    HW140626  10.998  12.308   2.775
46284SOL    HW240627  11.141  12.261   2.757
46285SOL     OW40628  10.452  14.128   6.428
46285SOL    HW140629  10.378  14.185   6.406
46285SOL    HW240630  10.523  14.158   6.372
46286SOL     OW40631   6.188   9.101   0.455
46286SOL    HW140632   6.179   9.076   0.363
46286SOL    HW240633   6.120   9.166   0.469
46287SOL     OW40634   0.178  10.828  12.350
46287SOL    HW140635   0.199  10.742  12.385
46287SOL    HW240636   0.113  10.811  12.281
46288SOL     OW40637   9.879   2.565  11.031
46288SOL    HW140638   9.848   2.563  10.941
46288SOL    HW240639   9.903   2.656  11.046
46289SOL     OW40640  11.607   2.329   3.072
46289SOL    HW140641  11.662   2.406   3.056
46289SOL    HW240642  11.651   2.258   3.025
46290SOL     OW40643   9.171   6.685   1.175
46290SOL    HW140644   9.234   6.662   1.106
46290SOL    HW240645   9.195   6.774   1.201
46291SOL     OW40646   4.096   9.210  14.287
46291SOL    HW140647   4.176   9.260  14.273
46291SOL    HW240648   4.055   9.206  14.201
46292SOL     OW40649   7.765  12.657   5.543
46292SOL    HW140650   7.795  12.748   5.546
46292SOL    HW240651   7.802  12.622   5.463
46293SOL     OW40652   3.277   1.835   3.571
46293SOL    HW140653   3.331   1.758   3.591
46293SOL    HW240654   3.213   1.804   3.507
46294SOL     OW40655   3.252  12.055   2.315
46294SOL    HW140656   3.220  11.990   2.377
46294SOL    HW240657   3.258  12.136   2.366
46295SOL     OW40658   5.097  12.982   6.851
46295SOL    HW140659   5.164  13.042   6.883
46295SOL    HW240660   5.103  12.988   6.756
46296SOL     OW40661   0.847   9.533   0.914
46296SOL    HW140662   0.762   9.490   0.906
46296SOL    HW240663   0.910   9.463   0.898
46297SOL     OW40664  13.352  14.411   4.325
46297SOL    HW140665  13.365  14.416   4.420
46297SOL    HW240666  13.362  14.318   4.305
46298SOL     OW40667   9.672  11.108   0.150
46298SOL    HW140668   9.727  11.086   0.075
46298SOL    HW240669   9.613  11.176   0.118
46299SOL     OW40670   4.930   8.288   0.630
46299SOL    HW140671   4.886   8.238   0.561
46299SOL    HW240672   5.020   8.257   0.629
46300SOL     OW40673   0.572  10.004   6.854
46300SOL    HW140674   0.553   9.943   6.925
46300SOL    HW240675   0.527   9.968   6.778
46301SOL     OW40676   7.185  12.926   4.088
46301SOL    HW140677   7.095  12.901   4.067
46301SOL    HW240678   7.177  12.987   4.162
46302SOL     OW40679  14.201   5.433   6.784
46302SOL    HW140680  14.129   5.489   6.756
46302SOL    HW240681  14.161   5.375   6.849
46303SOL     OW40682   7.344   5.872   4.598
46303SOL    HW140683   7.315   5.906   4.682
46303SOL    HW240684   7.439   5.870   4.604
46304SOL     OW40685   3.212   8.513   1.360
46304SOL    HW140686   3.167   8.480   1.437
46304SOL    HW240687   3.304   8.487   1.373
46305SOL     OW40688   8.258  14.652   7.807
46305SOL    HW140689   8.296  14.610   7.730
46305SOL    HW240690   8.333  14.686   7.856
46306SOL     OW40691   8.509   7.896   6.019
46306SOL    HW140692   8.542   7.807   6.008
46306SOL    HW240693   8.588   7.950   6.021
46307SOL     OW40694   0.586   8.873   0.144
46307SOL    HW140695   0.563   8.914   0.227
46307SOL    HW240696   0.604   8.781   0.166
46308SOL     OW40697  10.648   9.494  11.614
46308SOL    HW140698  10.680   9.456  11.695
46308SOL    HW240699  10.580   9.555  11.641
46309SOL     OW40700  13.329   5.635  14.744
46309SOL    HW140701  13.419   5.666  14.747
46309SOL    HW240702  13.314   5.614  14.652
46310SOL     OW40703   0.095   1.361   3.763
46310SOL    HW140704   0.111   1.450   3.734
46310SOL    HW240705   0.047   1.320   3.691
46311SOL     OW40706   7.575   3.078   5.329
46311SOL    HW140707   7.489   3.037   5.316
46311SOL    HW240708   7.624   3.055   5.250
46312SOL     OW40709   3.142   4.062  13.885
46312SOL    HW140710   3.226   4.097  13.914
46312SOL    HW240711   3.087   4.066  13.964
46313SOL     OW40712   5.375   9.978   2.096
46313SOL    HW140713   5.325   9.966   2.015
46313SOL    HW240714   5.308   9.982   2.164
46314SOL     OW40715   0.516   2.436   7.281
46314SOL    HW140716   0.449   2.485   7.234
46314SOL    HW240717   0.472   2.408   7.362
46315SOL     OW40718   6.637   3.936   8.374
46315SOL    HW140719   6.571   3.867   8.376
46315SOL    HW240720   6.708   3.899   8.320
46316SOL     OW40721   0.479   4.244   3.020
46316SOL    HW140722   0.571   4.218   3.014
46316SOL    HW240723   0.477   4.332   2.981
46317SOL     OW40724   1.104   0.738  10.578
46317SOL    HW140725   1.179   0.729  10.636
46317SOL    HW240726   1.030   0.752  10.636
46318SOL     OW40727   1.545  12.555   0.711
46318SOL    HW140728   1.534  12.503   0.790
46318SOL    HW240729   1.464  12.605   0.703
46319SOL     OW40730   2.039   0.841   2.493
46319SOL    HW140731   2.054   0.746   2.491
46319SOL    HW240732   1.944   0.849   2.500
46320SOL     OW40733   3.407  13.212  10.459
46320SOL    HW140734   3.345  13.181  10.394
46320SOL    HW240735   3.437  13.297  10.425
46321SOL     OW40736   4.914  12.570   1.547
46321SOL    HW140737   4.979  12.622   1.594
46321SOL    HW240738   4.859  12.634   1.502
46322SOL     OW40739   7.694   5.502  14.824
46322SOL    HW140740   7.710   5.544  14.739
46322SOL    HW240741   7.673   5.412  14.803
46323SOL     OW40742   7.322  12.519  14.538
46323SOL    HW140743   7.305  12.490  14.448
46323SOL    HW240744   7.382  12.593  14.528
46324SOL     OW40745   9.712   7.147   7.932
46324SOL    HW140746   9.755   7.225   7.967
46324SOL    HW240747   9.623   7.175   7.912
46325SOL     OW40748  13.116   3.238   4.885
46325SOL    HW140749  13.144   3.215   4.796
46325SOL    HW240750  13.105   3.155   4.930
46326SOL     OW40751  13.722   7.005   2.287
46326SOL    HW140752  13.738   7.028   2.195
46326SOL    HW240753  13.626   7.007   2.296
46327SOL     OW40754  11.202   5.488   9.820
46327SOL    HW140755  11.204   5.582   9.839
46327SOL    HW240756  11.281   5.454   9.861
46328SOL     OW40757  12.205   5.196   2.057
46328SOL    HW140758  12.159   5.244   2.126
46328SOL    HW240759  12.257   5.263   2.012
46329SOL     OW40760   2.591  10.018   8.434
46329SOL    HW140761   2.585  10.104   8.476
46329SOL    HW240762   2.500   9.991   8.421
46330SOL     OW40763   3.554  12.788   4.141
46330SOL    HW140764   3.563  12.754   4.052
46330SOL    HW240765   3.489  12.858   4.132
46331SOL     OW40766  14.462   8.861   8.190
46331SOL    HW140767  14.442   8.768   8.202
46331SOL    HW240768  14.502   8.888   8.274
46332SOL     OW40769   7.025   1.499   2.405
46332SOL    HW140770   6.979   1.458   2.332
46332SOL    HW240771   7.101   1.541   2.365
46333SOL     OW40772  10.080   6.261   1.838
46333SOL    HW140773  10.119   6.334   1.788
46333SOL    HW240774  10.020   6.304   1.899
46334SOL     OW40775   0.844  13.281   0.239
46334SOL    HW140776   0.880  13.298   0.326
46334SOL    HW240777   0.818  13.367   0.206
46335SOL     OW40778   4.642  11.189  10.511
46335SOL    HW140779   4.707  11.150  10.570
46335SOL    HW240780   4.676  11.277  10.493
46336SOL     OW40781  14.339   0.014   7.358
46336SOL    HW140782  14.298  14.812   7.337
46336SOL    HW240783  14.313   0.072   7.286
46337SOL     OW40784   6.186   4.421   1.907
46337SOL    HW140785   6.140   4.386   1.983
46337SOL    HW240786   6.279   4.410   1.927
46338SOL     OW40787   5.716  14.273  14.482
46338SOL    HW140788   5.763  14.201  14.441
46338SOL    HW240789   5.623  14.250  14.471
46339SOL     OW40790  10.253   2.339  12.787
46339SOL    HW140791  10.170   2.322  12.743
46339SOL    HW240792  10.297   2.403  12.730
46340SOL     OW40793   7.727  13.788   4.806
46340SOL    HW140794   7.687  13.736   4.876
46340SOL    HW240795   7.710  13.738   4.726
46341SOL     OW40796   6.049  11.753   1.487
46341SOL    HW140797   6.058  11.829   1.546
46341SOL    HW240798   6.106  11.774   1.413
46342SOL     OW40799   8.966  10.365  12.389
46342SOL    HW140800   9.054  10.344  12.420
46342SOL    HW240801   8.910  10.355  12.466
46343SOL     OW40802  10.726   9.459  14.025
46343SOL    HW140803  10.800   9.400  14.013
46343SOL    HW240804  10.674   9.449  13.945
46344SOL     OW40805   6.330   8.020   3.651
46344SOL    HW140806   6.370   8.076   3.584
46344SOL    HW240807   6.255   7.981   3.608
46345SOL     OW40808   0.870  10.051   8.203
46345SOL    HW140809   0.917   9.985   8.253
46345SOL    HW240810   0.794  10.004   8.168
46346SOL     OW40811   8.653   1.493  12.896
46346SOL    HW140812   8.735   1.445  12.910
46346SOL    HW240813   8.640   1.489  12.801
46347SOL     OW40814   4.848  10.869   6.401
46347SOL    HW140815   4.855  10.961   6.426
46347SOL    HW240816   4.894  10.864   6.317
46348SOL     OW40817   3.941  13.872   2.168
46348SOL    HW140818   3.924  13.966   2.176
46348SOL    HW240819   4.002  13.865   2.095
46349SOL     OW40820   1.685  12.734   6.399
46349SOL    HW140821   1.665  12.824   6.425
46349SOL    HW240822   1.674  12.733   6.304
46350SOL     OW40823   8.262   8.274   2.834
46350SOL    HW140824   8.313   8.298   2.757
46350SOL    HW240825   8.209   8.200   2.806
46351SOL     OW40826   2.035   0.911  13.603
46351SOL    HW140827   2.103   0.882  13.543
46351SOL    HW240828   2.061   0.876  13.688
46352SOL     OW40829  11.989  14.259  10.687
46352SOL    HW140830  12.080  14.244  10.661
46352SOL    HW240831  11.962  14.335  10.635
46353SOL     OW40832  10.526  14.804   1.088
46353SOL    HW140833  10.534  14.877   1.027
46353SOL    HW240834  10.464  14.744   1.047
46354SOL     OW40835  11.036  13.256   8.713
46354SOL    HW140836  10.994  13.342   8.714
46354SOL    HW240837  11.099  13.262   8.642
46355SOL     OW40838   0.898   1.812   0.760
46355SOL    HW140839   0.868   1.850   0.843
46355SOL    HW240840   0.840   1.849   0.694
46356SOL     OW40841  13.969   9.856  12.228
46356SOL    HW140842  14.055   9.825  12.202
46356SOL    HW240843  13.971   9.950  12.210
46357SOL     OW40844   7.206   6.601   5.577
46357SOL    HW140845   7.296   6.591   5.547
46357SOL    HW240846   7.181   6.689   5.549
46358SOL     OW40847   0.899   8.454  11.779
46358SOL    HW140848   0.880   8.513  11.706
46358SOL    HW240849   0.972   8.494  11.825
46359SOL     OW40850   3.256   1.454   3.104
46359SOL    HW140851   3.265   1.469   3.010
46359SOL    HW240852   3.344   1.433   3.134
46360SOL     OW40853   0.574   5.352   6.647
46360SOL    HW140854   0.532   5.274   6.683
46360SOL    HW240855   0.579   5.334   6.553
46361SOL     OW40856  10.643  12.731   1.794
46361SOL    HW140857  10.704  12.692   1.731
46361SOL    HW240858  10.632  12.663   1.861
46362SOL     OW40859   2.657   4.901   7.134
46362SOL    HW140860   2.730   4.844   7.158
46362SOL    HW240861   2.581   4.843   7.130
46363SOL     OW40862  14.779   0.262   4.555
46363SOL    HW140863  14.851   0.216   4.510
46363SOL    HW240864  14.704   0.204   4.546
46364SOL     OW40865   1.656  14.020   5.747
46364SOL    HW140866   1.619  13.988   5.829
46364SOL    HW240867   1.622  13.960   5.681
46365SOL     OW40868  13.331   6.876   6.744
46365SOL    HW140869  13.396   6.914   6.685
46365SOL    HW240870  13.355   6.783   6.749
46366SOL     OW40871   4.409   6.799  12.642
46366SOL    HW140872   4.362   6.871  12.684
46366SOL    HW240873   4.342   6.752  12.593
46367SOL     OW40874  13.205   5.259  12.487
46367SOL    HW140875  13.174   5.211  12.410
46367SOL    HW240876  13.125   5.288  12.530
46368SOL     OW40877   0.972   8.791   3.580
46368SOL    HW140878   1.064   8.768   3.564
46368SOL    HW240879   0.931   8.788   3.493
46369SOL     OW40880  14.864   5.219   1.437
46369SOL    HW140881   0.018   5.245   1.522
46369SOL    HW240882   0.059   5.219   1.379
46370SOL     OW40883   0.474   4.915   1.667
46370SOL    HW140884   0.434   5.000   1.688
46370SOL    HW240885   0.529   4.933   1.591
46371SOL     OW40886   6.326   8.611   0.469
46371SOL    HW140887   6.269   8.632   0.395
46371SOL    HW240888   6.288   8.533   0.508
46372SOL     OW40889  13.615   1.554   9.173
46372SOL    HW140890  13.636   1.470   9.131
46372SOL    HW240891  13.691   1.610   9.154
46373SOL     OW40892   3.472   4.194  13.289
46373SOL    HW140893   3.562   4.165  13.271
46373SOL    HW240894   3.476   4.289  13.283
46374SOL     OW40895   8.577  14.366   1.480
46374SOL    HW140896   8.644  14.424   1.516
46374SOL    HW240897   8.570  14.295   1.544
46375SOL     OW40898  11.465   1.828  14.411
46375SOL    HW140899  11.382   1.805  14.453
46375SOL    HW240900  11.506   1.744  14.390
46376SOL     OW40901   3.776   2.273   5.428
46376SOL    HW140902   3.813   2.320   5.502
46376SOL    HW240903   3.702   2.225   5.465
46377SOL     OW40904  12.160   4.576   6.753
46377SOL    HW140905  12.107   4.610   6.825
46377SOL    HW240906  12.227   4.522   6.795
46378SOL     OW40907  13.812   1.417  10.044
46378SOL    HW140908  13.835   1.347   9.984
46378SOL    HW240909  13.723   1.398  10.072
46379SOL     OW40910   3.941   4.028   3.649
46379SOL    HW140911   3.890   4.106   3.670
46379SOL    HW240912   4.017   4.061   3.601
46380SOL     OW40913  11.511   7.242  12.926
46380SOL    HW140914  11.590   7.265  12.976
46380SOL    HW240915  11.468   7.326  12.909
46381SOL     OW40916  13.038   4.592   4.042
46381SOL    HW140917  12.972   4.638   4.094
46381SOL    HW240918  13.122   4.626   4.072
46382SOL     OW40919   0.638   5.985   6.242
46382SOL    HW140920   0.582   5.915   6.209
46382SOL    HW240921   0.685   5.946   6.316
46383SOL     OW40922   1.122   6.402  10.464
46383SOL    HW140923   1.132   6.316  10.425
46383SOL    HW240924   1.210   6.425  10.495
46384SOL     OW40925  12.725  10.562   7.654
46384SOL    HW140926  12.687  10.538   7.570
46384SOL    HW240927  12.650  10.574   7.712
46385SOL     OW40928   3.203  10.301  10.373
46385SOL    HW140929   3.257  10.258  10.440
46385SOL    HW240930   3.131  10.340  10.423
46386SOL     OW40931   6.730   9.535  12.323
46386SOL    HW140932   6.752   9.451  12.363
46386SOL    HW240933   6.634   9.532  12.313
46387SOL     OW40934   6.369   2.374   5.979
46387SOL    HW140935   6.391   2.381   6.071
46387SOL    HW240936   6.422   2.440   5.936
46388SOL     OW40937  12.078   6.642   9.228
46388SOL    HW140938  12.108   6.551   9.235
46388SOL    HW240939  12.159   6.693   9.233
46389SOL     OW40940   4.486  12.865   5.028
46389SOL    HW140941   4.443  12.903   4.952
46389SOL    HW240942   4.419  12.811   5.070
46390SOL     OW40943  14.343   0.802   8.014
46390SOL    HW140944  14.275   0.816   7.947
46390SOL    HW240945  14.306   0.736   8.072
46391SOL     OW40946   4.367  12.544   8.933
46391SOL    HW140947   4.396  12.459   8.900
46391SOL    HW240948   4.344  12.528   9.024
46392SOL     OW40949   8.054  13.192   6.655
46392SOL    HW140950   8.013  13.117   6.612
46392SOL    HW240951   7.982  13.254   6.668
46393SOL     OW40952   7.778   7.207   9.137
46393SOL    HW140953   7.818   7.293   9.154
46393SOL    HW240954   7.732   7.219   9.054
46394SOL     OW40955   3.519  11.947   0.332
46394SOL    HW140956   3.551  11.869   0.287
46394SOL    HW240957   3.597  11.994   0.359
46395SOL     OW40958   4.943   4.415  12.905
46395SOL    HW140959   4.934   4.487  12.967
46395SOL    HW240960   5.038   4.403  12.895
46396SOL     OW40961   4.773   9.669   7.102
46396SOL    HW140962   4.841   9.601   7.102
46396SOL    HW240963   4.809   9.739   7.158
46397SOL     OW40964   0.158   0.220   9.646
46397SOL    HW140965   0.119   0.304   9.667
46397SOL    HW240966   0.196   0.232   9.559
46398SOL     OW40967  13.112   8.574   7.781
46398SOL    HW140968  13.055   8.547   7.709
46398SOL    HW240969  13.168   8.642   7.743
46399SOL     OW40970   5.029   3.780  14.825
46399SOL    HW140971   4.976   3.715  14.871
46399SOL    HW240972   5.000   3.864  14.861
46400SOL     OW40973  14.461   4.174  14.849
46400SOL    HW140974  14.523   4.133  14.787
46400SOL    HW240975  14.516   4.230   0.022
46401SOL     OW40976   2.330   4.889   3.318
46401SOL    HW140977   2.403   4.905   3.258
46401SOL    HW240978   2.313   4.795   3.310
46402SOL     OW40979   9.602  10.643   1.721
46402SOL    HW140980   9.564  10.637   1.809
46402SOL    HW240981   9.567  10.567   1.675
46403SOL     OW40982   2.303   5.165  13.254
46403SOL    HW140983   2.357   5.099  13.298
46403SOL    HW240984   2.344   5.249  13.277
46404SOL     OW40985  10.580  10.296  12.964
46404SOL    HW140986  10.625  10.376  12.933
46404SOL    HW240987  10.487  10.318  12.960
46405SOL     OW40988   5.349   5.528   6.678
46405SOL    HW140989   5.273   5.584   6.698
46405SOL    HW240990   5.346   5.517   6.584
46406SOL     OW40991  10.567   3.661   6.838
46406SOL    HW140992  10.652   3.705   6.844
46406SOL    HW240993  10.542   3.644   6.929
46407SOL     OW40994  11.238   6.231   9.924
46407SOL    HW140995  11.244   6.185   9.840
46407SOL    HW240996  11.318   6.283   9.928
46408SOL     OW40997  10.615   0.683   1.909
46408SOL    HW140998  10.701   0.642   1.911
46408SOL    HW240999  10.623   0.752   1.843
46409SOL     OW41000   8.017   2.957  10.204
46409SOL    HW141001   7.998   3.022  10.137
46409SOL    HW241002   7.972   2.989  10.282
46410SOL     OW41003   2.616   2.503  14.440
46410SOL    HW141004   2.704   2.530  14.467
46410SOL    HW241005   2.629   2.458  14.357
46411SOL     OW41006   2.578  12.700  12.668
46411SOL    HW141007   2.607  12.784  12.632
46411SOL    HW241008   2.652  12.668  12.719
46412SOL     OW41009  11.345   8.889   1.239
46412SOL    HW141010  11.358   8.979   1.268
46412SOL    HW241011  11.297   8.896   1.156
46413SOL     OW41012   9.377  12.681   3.561
46413SOL    HW141013   9.358  12.769   3.529
46413SOL    HW241014   9.320  12.670   3.637
46414SOL     OW41015  10.588   9.067   1.026
46414SOL    HW141016  10.641   9.093   0.951
46414SOL    HW241017  10.651   9.051   1.096
46415SOL     OW41018  14.208  14.302   0.684
46415SOL    HW141019  14.303  14.313   0.686
46415SOL    HW241020  14.186  14.304   0.591
46416SOL     OW41021   9.624   4.127   0.152
46416SOL    HW141022   9.719   4.137   0.157
46416SOL    HW241023   9.601   4.164   0.066
46417SOL     OW41024   9.149  10.217   4.437
46417SOL    HW141025   9.110  10.129   4.429
46417SOL    HW241026   9.150  10.234   4.532
46418SOL     OW41027   6.695   6.908  13.260
46418SOL    HW141028   6.765   6.942  13.315
46418SOL    HW241029   6.648   6.986  13.230
46419SOL     OW41030   9.193   3.727   1.792
46419SOL    HW141031   9.208   3.633   1.781
46419SOL    HW241032   9.259   3.768   1.735
46420SOL     OW41033   1.801  11.233   4.448
46420SOL    HW141034   1.804  11.156   4.392
46420SOL    HW241035   1.735  11.212   4.514
46421SOL     OW41036  14.755  10.923   5.545
46421SOL    HW141037  14.835  10.937   5.495
46421SOL    HW241038  14.744  11.005   5.595
46422SOL     OW41039   6.893  12.206   6.232
46422SOL    HW141040   6.932  12.273   6.288
46422SOL    HW241041   6.940  12.215   6.149
46423SOL     OW41042  13.541  11.534   0.696
46423SOL    HW141043  13.449  11.527   0.670
46423SOL    HW241044  13.562  11.626   0.685
46424SOL     OW41045  14.784  13.657  14.234
46424SOL    HW141046  14.849  13.595  14.199
46424SOL    HW241047  14.730  13.603  14.292
46425SOL     OW41048   3.344  11.661  14.327
46425SOL    HW141049   3.377  11.715  14.255
46425SOL    HW241050   3.379  11.574  14.311
46426SOL     OW41051   1.013   6.949  12.449
46426SOL    HW141052   0.926   6.942  12.486
46426SOL    HW241053   1.005   7.014  12.379
46427SOL     OW41054  13.831   7.774  10.959
46427SOL    HW141055  13.881   7.701  10.923
46427SOL    HW241056  13.891   7.848  10.956
46428SOL     OW41057  12.973  12.491   1.482
46428SOL    HW141058  12.917  12.568   1.473
46428SOL    HW241059  12.914  12.422   1.512
46429SOL     OW41060   9.675   6.118   3.145
46429SOL    HW141061   9.660   6.025   3.130
46429SOL    HW241062   9.604   6.145   3.202
46430SOL     OW41063   6.207  11.293   5.030
46430SOL    HW141064   6.246  11.220   4.981
46430SOL    HW241065   6.131  11.255   5.073
46431SOL     OW41066   4.699  12.151   2.953
46431SOL    HW141067   4.622  12.203   2.976
46431SOL    HW241068   4.678  12.114   2.867
46432SOL     OW41069  14.354  10.012  10.218
46432SOL    HW141070  14.346  10.023  10.124
46432SOL    HW241071  14.265  10.026  10.251
46433SOL     OW41072   7.214   3.915   5.128
46433SOL    HW141073   7.233   3.821   5.133
46433SOL    HW241074   7.120   3.921   5.142
46434SOL     OW41075  13.884  13.906  13.030
46434SOL    HW141076  13.797  13.940  13.047
46434SOL    HW241077  13.940  13.983  13.023
46435SOL     OW41078   6.605  10.333  13.897
46435SOL    HW141079   6.554  10.413  13.910
46435SOL    HW241080   6.682  10.345  13.953
46436SOL     OW41081   2.002  11.272  10.757
46436SOL    HW141082   1.974  11.210  10.825
46436SOL    HW241083   1.978  11.230  10.675
46437SOL     OW41084   1.707   5.692   9.570
46437SOL    HW141085   1.683   5.653   9.654
46437SOL    HW241086   1.626   5.693   9.520
46438SOL     OW41087   8.713   1.157   2.603
46438SOL    HW141088   8.758   1.236   2.633
46438SOL    HW241089   8.679   1.117   2.684
46439SOL     OW41090   8.290   0.231   3.881
46439SOL    HW141091   8.360   0.165   3.878
46439SOL    HW241092   8.229   0.198   3.947
46440SOL     OW41093  13.065  11.174   6.061
46440SOL    HW141094  13.078  11.142   5.971
46440SOL    HW241095  12.976  11.208   6.062
46441SOL     OW41096   8.135   0.641  10.683
46441SOL    HW141097   8.190   0.625  10.606
46441SOL    HW241098   8.071   0.705  10.653
46442SOL     OW41099   6.878   6.258  12.478
46442SOL    HW141100   6.802   6.268  12.422
46442SOL    HW241101   6.936   6.331  12.454
46443SOL     OW41102   6.980   7.433   8.812
46443SOL    HW141103   6.896   7.388   8.802
46443SOL    HW241104   7.033   7.402   8.738
46444SOL     OW41105   0.185   2.692   2.853
46444SOL    HW141106   0.228   2.607   2.845
46444SOL    HW241107   0.092   2.673   2.842
46445SOL     OW41108   7.531  10.093   3.842
46445SOL    HW141109   7.462  10.150   3.806
46445SOL    HW241110   7.505  10.078   3.933
46446SOL     OW41111   1.934   1.306   6.763
46446SOL    HW141112   1.969   1.253   6.834
46446SOL    HW241113   2.008   1.319   6.704
46447SOL     OW41114  13.966   8.966   9.316
46447SOL    HW141115  13.936   8.954   9.406
46447SOL    HW241116  13.897   8.925   9.263
46448SOL     OW41117   8.644  14.149   1.261
46448SOL    HW141118   8.722  14.140   1.206
46448SOL    HW241119   8.623  14.242   1.256
46449SOL     OW41120   3.340   5.983   4.061
46449SOL    HW141121   3.380   5.972   3.975
46449SOL    HW241122   3.363   5.904   4.110
46450SOL     OW41123  14.870  12.371   3.786
46450SOL    HW141124  14.811  12.329   3.725
46450SOL    HW241125  14.813  12.405   3.855
46451SOL     OW41126   1.658   4.318   5.488
46451SOL    HW141127   1.693   4.397   5.447
46451SOL    HW241128   1.728   4.289   5.546
46452SOL     OW41129   2.482   0.102   6.223
46452SOL    HW141130   2.408   0.061   6.267
46452SOL    HW241131   2.515   0.034   6.164
46453SOL     OW41132   8.276   7.257  14.127
46453SOL    HW141133   8.305   7.346  14.148
46453SOL    HW241134   8.333   7.229  14.056
46454SOL     OW41135  13.154   3.826  11.973
46454SOL    HW141136  13.176   3.822  11.880
46454SOL    HW241137  13.123   3.738  11.994
46455SOL     OW41138   9.642   9.238  11.880
46455SOL    HW141139   9.701   9.311  11.898
46455SOL    HW241140   9.628   9.241  11.785
46456SOL     OW41141  10.249   6.837   1.212
46456SOL    HW141142  10.310   6.792   1.153
46456SOL    HW241143  10.247   6.783   1.291
46457SOL     OW41144   4.950   9.627   8.321
46457SOL    HW141145   4.874   9.582   8.358
46457SOL    HW241146   4.980   9.685   8.390
46458SOL     OW41147   1.190  14.773  11.738
46458SOL    HW141148   1.186  14.835  11.665
46458SOL    HW241149   1.275  14.789  11.778
46459SOL     OW41150   7.006   9.912   6.962
46459SOL    HW141151   6.971   9.987   6.914
46459SOL    HW241152   6.941   9.842   6.946
46460SOL     OW41153  12.766   1.217   3.697
46460SOL    HW141154  12.771   1.304   3.735
46460SOL    HW241155  12.708   1.226   3.621
46461SOL     OW41156   2.780  13.044   7.856
46461SOL    HW141157   2.730  12.989   7.795
46461SOL    HW241158   2.734  13.034   7.939
46462SOL     OW41159   7.890   8.827   2.378
46462SOL    HW141160   7.902   8.811   2.284
46462SOL    HW241161   7.979   8.820   2.414
46463SOL     OW41162  13.073   1.242   0.950
46463SOL    HW141163  13.056   1.306   0.882
46463SOL    HW241164  13.089   1.160   0.903
46464SOL     OW41165   2.478   0.374   2.044
46464SOL    HW141166   2.513   0.453   2.003
46464SOL    HW241167   2.465   0.398   2.135
46465SOL     OW41168   2.092  12.839   7.395
46465SOL    HW141169   2.158  12.782   7.355
46465SOL    HW241170   2.137  12.883   7.466
46466SOL     OW41171   6.623  11.106   6.735
46466SOL    HW141172   6.652  11.014   6.735
46466SOL    HW241173   6.683  11.149   6.795
46467SOL     OW41174   7.235  12.004   6.520
46467SOL    HW141175   7.271  11.976   6.436
46467SOL    HW241176   7.278  12.087   6.538
46468SOL     OW41177  14.813  11.844   8.830
46468SOL    HW141178   0.015  11.875   8.866
46468SOL    HW241179  14.775  11.791   8.900
46469SOL     OW41180   1.962   5.693  10.636
46469SOL    HW141181   1.954   5.653  10.723
46469SOL    HW241182   1.982   5.620  10.577
46470SOL     OW41183  14.495   6.908   8.213
46470SOL    HW141184  14.495   6.927   8.307
46470SOL    HW241185  14.581   6.869   8.196
46471SOL     OW41186   2.090   8.185  13.240
46471SOL    HW141187   2.042   8.154  13.316
46471SOL    HW241188   2.182   8.177  13.264
46472SOL     OW41189   9.923   4.270  13.399
46472SOL    HW141190   9.933   4.363  13.421
46472SOL    HW241191   9.828   4.256  13.395
46473SOL     OW41192   9.114   3.655  14.225
46473SOL    HW141193   9.205   3.685  14.220
46473SOL    HW241194   9.107   3.615  14.311
46474SOL     OW41195   8.752   0.824   4.753
46474SOL    HW141196   8.836   0.778   4.754
46474SOL    HW241197   8.719   0.814   4.664
46475SOL     OW41198   2.278   6.807   6.883
46475SOL    HW141199   2.342   6.748   6.844
46475SOL    HW241200   2.196   6.789   6.836
46476SOL     OW41201   8.672   6.574  12.585
46476SOL    HW141202   8.700   6.631  12.513
46476SOL    HW241203   8.754   6.541  12.622
46477SOL     OW41204   2.120   8.971   1.732
46477SOL    HW141205   2.172   9.048   1.755
46477SOL    HW241206   2.182   8.912   1.689
46478SOL     OW41207   2.638   7.074   0.276
46478SOL    HW141208   2.548   7.104   0.289
46478SOL    HW241209   2.641   6.987   0.314
46479SOL     OW41210  11.125   8.969  10.350
46479SOL    HW141211  11.037   8.956  10.384
46479SOL    HW241212  11.137   8.898  10.286
46480SOL     OW41213   0.094  12.878  10.851
46480SOL    HW141214   0.180  12.838  10.838
46480SOL    HW241215   0.044  12.813  10.901
46481SOL     OW41216  14.563  10.925  11.016
46481SOL    HW141217  14.636  10.864  11.010
46481SOL    HW241218  14.510  10.907  10.938
46482SOL     OW41219   8.209   8.488   9.017
46482SOL    HW141220   8.144   8.498   8.947
46482SOL    HW241221   8.232   8.395   9.015
46483SOL     OW41222   3.020  11.019   6.387
46483SOL    HW141223   3.082  11.001   6.316
46483SOL    HW241224   2.934  11.009   6.347
46484SOL     OW41225  14.728   9.581   4.525
46484SOL    HW141226  14.634   9.601   4.522
46484SOL    HW241227  14.746   9.565   4.618
46485SOL     OW41228   3.054   1.043   0.797
46485SOL    HW141229   2.979   1.005   0.752
46485SOL    HW241230   3.016   1.096   0.868
46486SOL     OW41231   7.585  13.356  11.722
46486SOL    HW141232   7.582  13.444  11.684
46486SOL    HW241233   7.513  13.355  11.785
46487SOL     OW41234   9.158   0.669  14.049
46487SOL    HW141235   9.143   0.748  14.101
46487SOL    HW241236   9.071   0.631  14.039
46488SOL     OW41237   1.122   7.879   3.577
46488SOL    HW141238   1.161   7.958   3.540
46488SOL    HW241239   1.099   7.825   3.502
46489SOL     OW41240  14.746  14.391   5.962
46489SOL    HW141241  14.779  14.472   5.924
46489SOL    HW241242  14.730  14.334   5.887
46490SOL     OW41243   3.750   0.223   4.521
46490SOL    HW141244   3.732   0.235   4.428
46490SOL    HW241245   3.671   0.254   4.565
46491SOL     OW41246  10.511   4.753   1.014
46491SOL    HW141247  10.470   4.773   1.099
46491SOL    HW241248  10.459   4.802   0.950
46492SOL     OW41249  12.077   8.399   9.139
46492SOL    HW141250  12.044   8.438   9.059
46492SOL    HW241251  12.172   8.408   9.133
46493SOL     OW41252  12.577   7.719  12.914
46493SOL    HW141253  12.659   7.672  12.928
46493SOL    HW241254  12.558   7.707  12.821
46494SOL     OW41255   6.533   7.187  11.367
46494SOL    HW141256   6.619   7.221  11.392
46494SOL    HW241257   6.474   7.219  11.435
46495SOL     OW41258  10.897   4.957  14.452
46495SOL    HW141259  10.954   5.027  14.483
46495SOL    HW241260  10.957   4.885  14.430
46496SOL     OW41261   5.196   3.329   8.593
46496SOL    HW141262   5.212   3.356   8.502
46496SOL    HW241263   5.150   3.245   8.586
46497SOL     OW41264   3.834   4.611   7.455
46497SOL    HW141265   3.745   4.644   7.468
46497SOL    HW241266   3.885   4.689   7.433
46498SOL     OW41267   2.080   1.177  13.977
46498SOL    HW141268   2.130   1.248  14.015
46498SOL    HW241269   2.097   1.182  13.883
46499SOL     OW41270   3.930  12.161   2.962
46499SOL    HW141271   3.835  12.163   2.976
46499SOL    HW241272   3.961  12.088   3.016
46500SOL     OW41273   5.817   1.965   7.309
46500SOL    HW141274   5.767   1.990   7.231
46500SOL    HW241275   5.857   2.046   7.339
46501SOL     OW41276  12.131   2.183   2.611
46501SOL    HW141277  12.115   2.089   2.624
46501SOL    HW241278  12.225   2.190   2.599
46502SOL     OW41279   4.976   1.221  13.846
46502SOL    HW141280   4.958   1.301  13.796
46502SOL    HW241281   5.023   1.252  13.924
46503SOL     OW41282   4.614   5.960  10.100
46503SOL    HW141283   4.652   5.982  10.185
46503SOL    HW241284   4.686   5.973  10.037
46504SOL     OW41285  11.631   6.314   2.049
46504SOL    HW141286  11.611   6.235   2.000
46504SOL    HW241287  11.549   6.364   2.048
46505SOL     OW41288  11.265   9.514  12.672
46505SOL    HW141289  11.201   9.469  12.617
46505SOL    HW241290  11.309   9.575  12.613
46506SOL     OW41291   6.578   0.214  12.505
46506SOL    HW141292   6.524   0.254  12.436
46506SOL    HW241293   6.664   0.204  12.465
46507SOL     OW41294  10.646   6.932  13.104
46507SOL    HW141295  10.609   6.909  13.189
46507SOL    HW241296  10.604   7.015  13.082
46508SOL     OW41297   5.797   3.621   6.160
46508SOL    HW141298   5.847   3.674   6.098
46508SOL    HW241299   5.827   3.649   6.246
46509SOL     OW41300   7.537   5.111   5.681
46509SOL    HW141301   7.467   5.064   5.727
46509SOL    HW241302   7.538   5.071   5.593
46510SOL     OW41303   5.398   5.842   4.676
46510SOL    HW141304   5.444   5.847   4.760
46510SOL    HW241305   5.333   5.913   4.680
46511SOL     OW41306   3.184  14.491   9.346
46511SOL    HW141307   3.116  14.532   9.293
46511SOL    HW241308   3.259  14.482   9.286
46512SOL     OW41309  13.788   2.497  14.855
46512SOL    HW141310  13.756   2.407  14.861
46512SOL    HW241311  13.809   2.521   0.063
46513SOL     OW41312   6.122   8.839   2.509
46513SOL    HW141313   6.034   8.832   2.547
46513SOL    HW241314   6.111   8.894   2.432
46514SOL     OW41315   5.836  10.581   2.658
46514SOL    HW141316   5.778  10.657   2.651
46514SOL    HW241317   5.924  10.618   2.657
46515SOL     OW41318   9.964   6.987  14.602
46515SOL    HW141319   9.881   7.035  14.611
46515SOL    HW241320  10.003   7.023  14.523
46516SOL     OW41321   2.783   2.043  11.781
46516SOL    HW141322   2.799   2.064  11.689
46516SOL    HW241323   2.803   1.950  11.789
46517SOL     OW41324   0.519   3.625   2.838
46517SOL    HW141325   0.609   3.592   2.846
46517SOL    HW241326   0.473   3.557   2.789
46518SOL     OW41327   5.369   0.681   7.636
46518SOL    HW141328   5.337   0.683   7.546
46518SOL    HW241329   5.293   0.656   7.689
46519SOL     OW41330  11.959   8.331  12.866
46519SOL    HW141331  11.960   8.265  12.935
46519SOL    HW241332  12.023   8.397  12.894
46520SOL     OW41333   8.277   7.357   6.822
46520SOL    HW141334   8.217   7.367   6.896
46520SOL    HW241335   8.226   7.385   6.746
46521SOL     OW41336  11.993   1.714   9.055
46521SOL    HW141337  11.932   1.643   9.032
46521SOL    HW241338  12.044   1.728   8.976
46522SOL     OW41339  10.553   2.219   4.041
46522SOL    HW141340  10.469   2.247   4.005
46522SOL    HW241341  10.566   2.130   4.007
46523SOL     OW41342   9.450   9.000   9.828
46523SOL    HW141343   9.374   9.056   9.846
46523SOL    HW241344   9.499   9.047   9.761
46524SOL     OW41345   1.271   8.418  13.687
46524SOL    HW141346   1.267   8.348  13.753
46524SOL    HW241347   1.269   8.499  13.738
46525SOL     OW41348   4.506   7.433   9.849
46525SOL    HW141349   4.474   7.408   9.763
46525SOL    HW241350   4.473   7.522   9.862
46526SOL     OW41351   0.460   8.054   4.723
46526SOL    HW141352   0.367   8.048   4.748
46526SOL    HW241353   0.482   8.146   4.738
46527SOL     OW41354  11.948  13.912   9.406
46527SOL    HW141355  12.034  13.873   9.422
46527SOL    HW241356  11.918  13.873   9.324
46528SOL     OW41357   8.319  12.429   2.293
46528SOL    HW141358   8.237  12.387   2.317
46528SOL    HW241359   8.326  12.418   2.199
46529SOL     OW41360  10.796   8.749   2.583
46529SOL    HW141361  10.744   8.829   2.591
46529SOL    HW241362  10.829   8.733   2.671
46530SOL     OW41363  10.783   0.918   7.165
46530SOL    HW141364  10.715   0.860   7.200
46530SOL    HW241365  10.838   0.938   7.241
46531SOL     OW41366   0.552   5.126   6.327
46531SOL    HW141367   0.532   5.121   6.421
46531SOL    HW241368   0.602   5.047   6.309
46532SOL     OW41369   8.200  11.916   3.920
46532SOL    HW141370   8.276  11.890   3.972
46532SOL    HW241371   8.137  11.949   3.984
46533SOL     OW41372   3.014   3.855   3.563
46533SOL    HW141373   2.954   3.794   3.520
46533SOL    HW241374   2.962   3.894   3.634
46534SOL     OW41375   6.344   8.485   1.336
46534SOL    HW141376   6.437   8.469   1.353
46534SOL    HW241377   6.314   8.532   1.414
46535SOL     OW41378  11.509   4.625   1.147
46535SOL    HW141379  11.478   4.650   1.060
46535SOL    HW241380  11.556   4.542   1.133
46536SOL     OW41381   8.509   8.843   3.916
46536SOL    HW141382   8.563   8.778   3.871
46536SOL    HW241383   8.427   8.798   3.935
46537SOL     OW41384   7.147   9.378  11.126
46537SOL    HW141385   7.061   9.347  11.095
46537SOL    HW241386   7.206   9.360  11.053
46538SOL     OW41387  11.821   2.302  13.418
46538SOL    HW141388  11.867   2.358  13.481
46538SOL    HW241389  11.883   2.232  13.398
46539SOL     OW41390   6.277  12.716   1.931
46539SOL    HW141391   6.372  12.727   1.921
46539SOL    HW241392   6.245  12.802   1.956
46540SOL     OW41393   1.463  10.629   1.676
46540SOL    HW141394   1.556  10.634   1.697
46540SOL    HW241395   1.421  10.687   1.740
46541SOL     OW41396  12.749   8.668   1.359
46541SOL    HW141397  12.690   8.593   1.347
46541SOL    HW241398  12.814   8.637   1.423
46542SOL     OW41399  14.009   5.472   5.544
46542SOL    HW141400  14.032   5.388   5.585
46542SOL    HW241401  14.093   5.515   5.529
46543SOL     OW41402   6.138   2.277  11.543
46543SOL    HW141403   6.057   2.236  11.572
46543SOL    HW241404   6.177   2.214  11.482
46544SOL     OW41405   3.190   5.844  13.945
46544SOL    HW141406   3.275   5.888  13.945
46544SOL    HW241407   3.172   5.826  13.853
46545SOL     OW41408  13.096  13.234  13.663
46545SOL    HW141409  13.027  13.300  13.659
46545SOL    HW241410  13.176  13.283  13.642
46546SOL     OW41411   5.348  10.094   0.703
46546SOL    HW141412   5.376  10.185   0.709
46546SOL    HW241413   5.326  10.082   0.610
46547SOL     OW41414   9.187  10.335   5.115
46547SOL    HW141415   9.267  10.384   5.097
46547SOL    HW241416   9.119  10.382   5.066
46548SOL     OW41417   5.878   8.592   1.636
46548SOL    HW141418   5.943   8.527   1.662
46548SOL    HW241419   5.810   8.541   1.592
46549SOL     OW41420   2.324   6.067   6.809
46549SOL    HW141421   2.389   6.095   6.873
46549SOL    HW241422   2.283   5.990   6.849
46550SOL     OW41423   4.181   0.180   3.831
46550SOL    HW141424   4.153   0.096   3.794
46550SOL    HW241425   4.257   0.158   3.885
46551SOL     OW41426   1.443   1.022  13.805
46551SOL    HW141427   1.492   1.104  13.794
46551SOL    HW241428   1.500   0.967  13.858
46552SOL     OW41429   2.215   2.321   5.167
46552SOL    HW141430   2.264   2.343   5.087
46552SOL    HW241431   2.245   2.233   5.189
46553SOL     OW41432  10.027   8.643  12.419
46553SOL    HW141433  10.121   8.639  12.404
46553SOL    HW241434  10.014   8.597  12.502
46554SOL     OW41435   3.705  11.981  11.819
46554SOL    HW141436   3.794  11.953  11.837
46554SOL    HW241437   3.656  11.900  11.806
46555SOL     OW41438  12.389   4.091   9.442
46555SOL    HW141439  12.313   4.102   9.499
46555SOL    HW241440  12.441   4.022   9.484
46556SOL     OW41441   7.460   1.682  11.376
46556SOL    HW141442   7.531   1.635  11.331
46556SOL    HW241443   7.407   1.612  11.414
46557SOL     OW41444  13.848   4.693   1.271
46557SOL    HW141445  13.917   4.687   1.338
46557SOL    HW241446  13.771   4.654   1.312
46558SOL     OW41447   9.445  12.494  10.725
46558SOL    HW141448   9.379  12.432  10.695
46558SOL    HW241449   9.478  12.456  10.806
46559SOL     OW41450   1.068   3.785   0.943
46559SOL    HW141451   1.139   3.791   0.880
46559SOL    HW241452   1.111   3.781   1.028
46560SOL     OW41453   6.368   3.948   2.989
46560SOL    HW141454   6.405   3.871   2.946
46560SOL    HW241455   6.381   3.932   3.083
46561SOL     OW41456  14.468   2.942  10.584
46561SOL    HW141457  14.462   2.886  10.662
46561SOL    HW241458  14.420   3.022  10.609
46562SOL     OW41459   4.416   6.662   9.430
46562SOL    HW141460   4.491   6.690   9.482
46562SOL    HW241461   4.368   6.742   9.412
46563SOL     OW41462   9.181   4.287  10.390
46563SOL    HW141463   9.216   4.211  10.436
46563SOL    HW241464   9.230   4.361  10.426
46564SOL     OW41465  10.454   5.521   0.199
46564SOL    HW141466  10.513   5.483   0.264
46564SOL    HW241467  10.491   5.495   0.115
46565SOL     OW41468  11.472   3.976   9.189
46565SOL    HW141469  11.469   3.987   9.284
46565SOL    HW241470  11.549   4.027   9.162
46566SOL     OW41471  13.951  13.705   1.294
46566SOL    HW141472  13.921  13.703   1.203
46566SOL    HW241473  14.041  13.674   1.291
46567SOL     OW41474   3.792   5.538  13.637
46567SOL    HW141475   3.837   5.465  13.595
46567SOL    HW241476   3.699   5.523  13.620
46568SOL     OW41477   5.817   4.771   2.244
46568SOL    HW141478   5.771   4.727   2.172
46568SOL    HW241479   5.819   4.707   2.314
46569SOL     OW41480  14.416  10.700   1.449
46569SOL    HW141481  14.379  10.781   1.414
46569SOL    HW241482  14.497  10.687   1.399
46570SOL     OW41483  14.571   7.577   3.858
46570SOL    HW141484  14.636   7.611   3.920
46570SOL    HW241485  14.608   7.493   3.830
46571SOL     OW41486  10.048   5.566  12.814
46571SOL    HW141487  10.028   5.477  12.845
46571SOL    HW241488  10.113   5.599  12.876
46572SOL     OW41489  12.072  14.880  14.637
46572SOL    HW141490  12.133   0.028  14.569
46572SOL    HW241491  11.993  14.854  14.589
46573SOL     OW41492   7.673   5.871   2.374
46573SOL    HW141493   7.677   5.948   2.430
46573SOL    HW241494   7.750   5.820   2.399
46574SOL     OW41495   5.735   7.133   2.559
46574SOL    HW141496   5.641   7.127   2.571
46574SOL    HW241497   5.747   7.197   2.489
46575SOL     OW41498   9.581   7.717   7.701
46575SOL    HW141499   9.577   7.699   7.795
46575SOL    HW241500   9.533   7.646   7.660
46576SOL     OW41501  11.696   8.493   6.849
46576SOL    HW141502  11.772   8.480   6.906
46576SOL    HW241503  11.719   8.449   6.767
46577SOL     OW41504   0.897   0.404  13.655
46577SOL    HW141505   0.906   0.497  13.633
46577SOL    HW241506   0.931   0.358  13.579
46578SOL     OW41507  11.963  14.304   9.609
46578SOL    HW141508  11.993  14.384   9.566
46578SOL    HW241509  11.894  14.332   9.668
46579SOL     OW41510   1.177   4.071  11.549
46579SOL    HW141511   1.253   4.119  11.517
46579SOL    HW241512   1.214   4.004  11.607
46580SOL     OW41513  13.996   6.740   3.443
46580SOL    HW141514  13.997   6.836   3.444
46580SOL    HW241515  13.905   6.716   3.457
46581SOL     OW41516   0.122   0.370  11.209
46581SOL    HW141517   0.045   0.314  11.218
46581SOL    HW241518   0.111   0.412  11.124
46582SOL     OW41519   4.797  13.430  11.311
46582SOL    HW141520   4.747  13.357  11.275
46582SOL    HW241521   4.888  13.399  11.309
46583SOL     OW41522   1.845  14.837  11.442
46583SOL    HW141523   1.775  14.771  11.446
46583SOL    HW241524   1.848  14.873  11.531
46584SOL     OW41525   3.245  10.345   4.074
46584SOL    HW141526   3.294  10.264   4.087
46584SOL    HW241527   3.308  10.414   4.093
46585SOL     OW41528  14.016  11.646   4.507
46585SOL    HW141529  14.048  11.727   4.545
46585SOL    HW241530  14.060  11.639   4.423
46586SOL     OW41531   6.526   3.747   1.261
46586SOL    HW141532   6.617   3.769   1.283
46586SOL    HW241533   6.484   3.832   1.248
46587SOL     OW41534  10.907  10.931   1.859
46587SOL    HW141535  10.894  10.859   1.796
46587SOL    HW241536  10.825  10.979   1.858
46588SOL     OW41537   1.097   3.374   1.678
46588SOL    HW141538   1.062   3.447   1.729
46588SOL    HW241539   1.023   3.315   1.667
46589SOL     OW41540   0.806   4.935   5.865
46589SOL    HW141541   0.805   4.941   5.770
46589SOL    HW241542   0.799   4.842   5.884
46590SOL     OW41543  14.313  14.367  13.906
46590SOL    HW141544  14.323  14.284  13.952
46590SOL    HW241545  14.353  14.431  13.964
46591SOL     OW41546   9.079   5.725  12.348
46591SOL    HW141547   9.092   5.819  12.357
46591SOL    HW241548   8.984   5.714  12.337
46592SOL     OW41549  11.771   7.705   1.310
46592SOL    HW141550  11.815   7.771   1.257
46592SOL    HW241551  11.678   7.719   1.293
46593SOL     OW41552   9.103   7.179   6.005
46593SOL    HW141553   9.069   7.091   6.025
46593SOL    HW241554   9.191   7.163   5.971
46594SOL     OW41555   1.688   9.506   3.398
46594SOL    HW141556   1.781   9.501   3.376
46594SOL    HW241557   1.647   9.541   3.320
46595SOL     OW41558   9.465   4.170  13.659
46595SOL    HW141559   9.424   4.256  13.655
46595SOL    HW241560   9.395   4.108  13.640
46596SOL     OW41561   1.227   2.595  14.526
46596SOL    HW141562   1.208   2.524  14.465
46596SOL    HW241563   1.242   2.671  14.471
46597SOL     OW41564   1.113  14.114  13.989
46597SOL    HW141565   1.072  14.178  14.047
46597SOL    HW241566   1.114  14.032  14.039
46598SOL     OW41567   0.808  11.041   4.479
46598SOL    HW141568   0.721  11.010   4.508
46598SOL    HW241569   0.843  10.968   4.429
46599SOL     OW41570   1.167  12.987   9.546
46599SOL    HW141571   1.087  13.025   9.507
46599SOL    HW241572   1.192  13.049   9.614
46600SOL     OW41573  10.250   0.742  11.679
46600SOL    HW141574  10.287   0.654  11.676
46600SOL    HW241575  10.271   0.780  11.594
46601SOL     OW41576   0.128   0.322   0.062
46601SOL    HW141577   0.105   0.230   0.053
46601SOL    HW241578   0.114   0.360  14.857
46602SOL     OW41579   3.542  14.710   1.396
46602SOL    HW141580   3.475  14.682   1.333
46602SOL    HW241581   3.625  14.686   1.356
46603SOL     OW41582   1.477   5.177   9.337
46603SOL    HW141583   1.485   5.219   9.422
46603SOL    HW241584   1.479   5.249   9.274
46604SOL     OW41585   1.748   8.554   4.680
46604SOL    HW141586   1.784   8.539   4.592
46604SOL    HW241587   1.811   8.613   4.721
46605SOL     OW41588   4.475  10.115   2.264
46605SOL    HW141589   4.474  10.070   2.349
46605SOL    HW241590   4.391  10.091   2.224
46606SOL     OW41591  10.000   3.576   4.104
46606SOL    HW141592  10.070   3.594   4.166
46606SOL    HW241593  10.042   3.527   4.033
46607SOL     OW41594   8.285   2.002   3.940
46607SOL    HW141595   8.320   2.057   3.870
46607SOL    HW241596   8.266   2.063   4.011
46608SOL     OW41597  14.591   6.173  13.696
46608SOL    HW141598  14.617   6.256  13.736
46608SOL    HW241599  14.607   6.186  13.602
46609SOL     OW41600  11.284  13.301   5.069
46609SOL    HW141601  11.334  13.244   5.010
46609SOL    HW241602  11.197  13.260   5.074
46610SOL     OW41603   2.313  10.345   1.114
46610SOL    HW141604   2.269  10.307   1.038
46610SOL    HW241605   2.285  10.436   1.116
46611SOL     OW41606  11.606   9.649   1.156
46611SOL    HW141607  11.582   9.672   1.246
46611SOL    HW241608  11.602   9.731   1.108
46612SOL     OW41609   3.061   1.505  13.065
46612SOL    HW141610   3.056   1.510  12.969
46612SOL    HW241611   3.031   1.417  13.086
46613SOL     OW41612   1.874  13.396   5.386
46613SOL    HW141613   1.955  13.401   5.336
46613SOL    HW241614   1.804  13.391   5.321
46614SOL     OW41615   0.505   2.132   4.978
46614SOL    HW141616   0.442   2.060   4.979
46614SOL    HW241617   0.486   2.179   4.897
46615SOL     OW41618   4.180  11.815   3.885
46615SOL    HW141619   4.103  11.862   3.853
46615SOL    HW241620   4.253  11.848   3.832
46616SOL     OW41621   4.475   6.113   8.224
46616SOL    HW141622   4.396   6.092   8.174
46616SOL    HW241623   4.547   6.075   8.174
46617SOL     OW41624  10.846  11.011   7.597
46617SOL    HW141625  10.910  11.075   7.564
46617SOL    HW241626  10.865  10.931   7.549
46618SOL     OW41627  11.061  13.038  13.866
46618SOL    HW141628  11.030  13.128  13.852
46618SOL    HW241629  11.020  12.987  13.797
46619SOL     OW41630   1.036   4.230   2.951
46619SOL    HW141631   1.011   4.165   3.017
46619SOL    HW241632   1.130   4.241   2.963
46620SOL     OW41633   5.630   1.501  11.845
46620SOL    HW141634   5.677   1.512  11.928
46620SOL    HW241635   5.675   1.561  11.785
46621SOL     OW41636   8.033   7.800   6.393
46621SOL    HW141637   7.959   7.861   6.386
46621SOL    HW241638   8.077   7.805   6.308
46622SOL     OW41639  10.241  10.486   6.165
46622SOL    HW141640  10.272  10.451   6.249
46622SOL    HW241641  10.147  10.497   6.178
46623SOL     OW41642   4.402   2.999  14.381
46623SOL    HW141643   4.320   2.965  14.345
46623SOL    HW241644   4.405   2.963  14.470
46624SOL     OW41645   4.565   0.386  11.090
46624SOL    HW141646   4.570   0.443  11.167
46624SOL    HW241647   4.654   0.353  11.079
46625SOL     OW41648   0.865   4.824   3.009
46625SOL    HW141649   0.877   4.771   3.088
46625SOL    HW241650   0.798   4.888   3.034
46626SOL     OW41651   8.909   2.290  11.049
46626SOL    HW141652   8.978   2.229  11.021
46626SOL    HW241653   8.953   2.374  11.058
46627SOL     OW41654   7.800   7.599   6.225
46627SOL    HW141655   7.720   7.642   6.195
46627SOL    HW241656   7.866   7.623   6.159
46628SOL     OW41657   9.921   2.815  11.142
46628SOL    HW141658   9.973   2.895  11.143
46628SOL    HW241659   9.883   2.810  11.230
46629SOL     OW41660   7.815  13.043   1.512
46629SOL    HW141661   7.826  12.953   1.545
46629SOL    HW241662   7.757  13.033   1.436
46630SOL     OW41663   8.746  14.844  12.220
46630SOL    HW141664   8.758   0.007  12.136
46630SOL    HW241665   8.725   0.033  12.281
46631SOL     OW41666   4.606   5.384   2.631
46631SOL    HW141667   4.543   5.456   2.624
46631SOL    HW241668   4.670   5.401   2.562
46632SOL     OW41669  11.800   6.355   4.971
46632SOL    HW141670  11.854   6.314   5.040
46632SOL    HW241671  11.829   6.446   4.970
46633SOL     OW41672  14.277   7.330   9.235
46633SOL    HW141673  14.245   7.325   9.145
46633SOL    HW241674  14.359   7.380   9.228
46634SOL     OW41675  12.165   6.908  11.156
46634SOL    HW141676  12.074   6.893  11.127
46634SOL    HW241677  12.173   7.003  11.159
46635SOL     OW41678   3.726   4.257   3.124
46635SOL    HW141679   3.663   4.261   3.052
46635SOL    HW241680   3.811   4.261   3.081
46636SOL     OW41681  13.763   8.909  13.539
46636SOL    HW141682  13.703   8.910  13.464
46636SOL    HW241683  13.706   8.905  13.616
46637SOL     OW41684  10.130   3.306   7.484
46637SOL    HW141685  10.042   3.294   7.450
46637SOL    HW241686  10.161   3.387   7.442
46638SOL     OW41687  13.652  14.706  12.523
46638SOL    HW141688  13.658  14.785  12.469
46638SOL    HW241689  13.648  14.634  12.460
46639SOL     OW41690  14.714  10.235   8.776
46639SOL    HW141691  14.719  10.255   8.870
46639SOL    HW241692  14.804  10.242   8.746
46640SOL     OW41693   8.743   5.966   4.402
46640SOL    HW141694   8.698   6.013   4.331
46640SOL    HW241695   8.715   5.875   4.391
46641SOL     OW41696   1.447   8.679   2.860
46641SOL    HW141697   1.407   8.618   2.922
46641SOL    HW241698   1.454   8.629   2.779
46642SOL     OW41699   0.789   6.599  14.412
46642SOL    HW141700   0.718   6.628  14.468
46642SOL    HW241701   0.805   6.508  14.437
46643SOL     OW41702  13.350  12.235   6.829
46643SOL    HW141703  13.296  12.307   6.797
46643SOL    HW241704  13.332  12.232   6.923
46644SOL     OW41705  14.616  10.279   1.159
46644SOL    HW141706  14.581  10.361   1.124
46644SOL    HW241707  14.544  10.216   1.151
46645SOL     OW41708   5.268   0.030   4.138
46645SOL    HW141709   5.290   0.116   4.174
46645SOL    HW241710   5.225  14.865   4.209
46646SOL     OW41711   2.293   9.185  10.212
46646SOL    HW141712   2.273   9.117  10.147
46646SOL    HW241713   2.363   9.147  10.265
46647SOL     OW41714  11.905   2.702  12.568
46647SOL    HW141715  11.811   2.708  12.548
46647SOL    HW241716  11.942   2.784  12.534
46648SOL     OW41717   6.110  13.189   6.319
46648SOL    HW141718   6.160  13.114   6.353
46648SOL    HW241719   6.020  13.156   6.312
46649SOL     OW41720   0.998   0.043   9.889
46649SOL    HW141721   0.936   0.009   9.953
46649SOL    HW241722   1.011   0.135   9.914
46650SOL     OW41723  13.005  14.473   9.159
46650SOL    HW141724  13.082  14.512   9.201
46650SOL    HW241725  13.039  14.396   9.114
46651SOL     OW41726   5.275  13.581  10.608
46651SOL    HW141727   5.211  13.612  10.671
46651SOL    HW241728   5.308  13.661  10.567
46652SOL     OW41729   5.994  12.072   1.245
46652SOL    HW141730   5.979  11.986   1.205
46652SOL    HW241731   5.907  12.102   1.271
46653SOL     OW41732   1.599  13.139   6.181
46653SOL    HW141733   1.671  13.113   6.124
46653SOL    HW241734   1.640  13.156   6.266
46654SOL     OW41735  11.615   9.859  14.344
46654SOL    HW141736  11.577   9.828  14.426
46654SOL    HW241737  11.706   9.828  14.346
46655SOL     OW41738   5.930  13.675   3.962
46655SOL    HW141739   5.984  13.754   3.964
46655SOL    HW241740   5.896  13.668   4.051
46656SOL     OW41741   6.031  13.426  10.614
46656SOL    HW141742   5.993  13.417  10.526
46656SOL    HW241743   6.023  13.519  10.634
46657SOL     OW41744  14.265   2.174   9.086
46657SOL    HW141745  14.260   2.261   9.126
46657SOL    HW241746  14.277   2.114   9.160
46658SOL     OW41747   1.575  13.640   4.336
46658SOL    HW141748   1.595  13.558   4.382
46658SOL    HW241749   1.659  13.685   4.330
46659SOL     OW41750   1.525   1.751  11.872
46659SOL    HW141751   1.445   1.804  11.864
46659SOL    HW241752   1.550   1.760  11.964
46660SOL     OW41753   9.558   2.569   7.809
46660SOL    HW141754   9.606   2.489   7.829
46660SOL    HW241755   9.584   2.630   7.877
46661SOL     OW41756  14.859   9.968   4.737
46661SOL    HW141757  14.810   9.891   4.766
46661SOL    HW241758  14.846  10.032   4.807
46662SOL     OW41759   8.998  14.131  12.791
46662SOL    HW141760   8.959  14.211  12.827
46662SOL    HW241761   9.075  14.162  12.743
46663SOL     OW41762  13.073   4.700  13.403
46663SOL    HW141763  13.020   4.765  13.449
46663SOL    HW241764  13.011   4.653  13.348
46664SOL     OW41765   9.562  10.948   9.572
46664SOL    HW141766   9.565  10.925   9.665
46664SOL    HW241767   9.566  10.864   9.527
46665SOL     OW41768   2.022   1.473   5.283
46665SOL    HW141769   2.080   1.546   5.306
46665SOL    HW241770   1.937   1.498   5.319
46666SOL     OW41771   5.631   7.985   7.950
46666SOL    HW141772   5.663   8.056   7.894
46666SOL    HW241773   5.708   7.928   7.963
46667SOL     OW41774   6.096   4.843   0.216
46667SOL    HW141775   6.177   4.870   0.173
46667SOL    HW241776   6.032   4.909   0.191
46668SOL     OW41777   4.710  11.161   8.430
46668SOL    HW141778   4.648  11.156   8.357
46668SOL    HW241779   4.775  11.094   8.411
46669SOL     OW41780  11.428   6.850   1.346
46669SOL    HW141781  11.433   6.923   1.284
46669SOL    HW241782  11.348   6.866   1.396
46670SOL     OW41783  10.254  11.863  10.800
46670SOL    HW141784  10.318  11.926  10.767
46670SOL    HW241785  10.307  11.792  10.837
46671SOL     OW41786  14.413   7.200   9.920
46671SOL    HW141787  14.435   7.289   9.890
46671SOL    HW241788  14.490   7.172   9.970
46672SOL     OW41789   7.617  11.377   7.681
46672SOL    HW141790   7.570  11.459   7.692
46672SOL    HW241791   7.613  11.360   7.586
46673SOL     OW41792  10.774   7.123  10.862
46673SOL    HW141793  10.712   7.075  10.917
46673SOL    HW241794  10.811   7.056  10.804
46674SOL     OW41795  14.609   5.798  11.094
46674SOL    HW141796  14.528   5.797  11.042
46674SOL    HW241797  14.638   5.890  11.091
46675SOL     OW41798   1.980  14.366   3.916
46675SOL    HW141799   1.942  14.354   3.829
46675SOL    HW241800   1.994  14.461   3.922
46676SOL     OW41801   6.630   1.754   8.651
46676SOL    HW141802   6.618   1.849   8.649
46676SOL    HW241803   6.542   1.719   8.665
46677SOL     OW41804   2.862  10.834   1.532
46677SOL    HW141805   2.911  10.896   1.586
46677SOL    HW241806   2.796  10.798   1.590
46678SOL     OW41807  13.275   0.625  12.623
46678SOL    HW141808  13.323   0.708  12.626
46678SOL    HW241809  13.249   0.610  12.714
46679SOL     OW41810   3.220  13.287  10.883
46679SOL    HW141811   3.264  13.372  10.885
46679SOL    HW241812   3.211  13.262  10.975
46680SOL     OW41813   6.994   8.951   0.708
46680SOL    HW141814   7.005   8.920   0.618
46680SOL    HW241815   7.026   9.042   0.706
46681SOL     OW41816   0.994   6.668   6.247
46681SOL    HW141817   0.900   6.647   6.244
46681SOL    HW241818   1.000   6.754   6.206
46682SOL     OW41819  13.036   9.560   7.493
46682SOL    HW141820  12.956   9.578   7.443
46682SOL    HW241821  13.055   9.642   7.538
46683SOL     OW41822  13.388   5.635   4.437
46683SOL    HW141823  13.433   5.662   4.357
46683SOL    HW241824  13.459   5.611   4.498
46684SOL     OW41825  13.378   7.391   9.002
46684SOL    HW141826  13.328   7.310   8.997
46684SOL    HW241827  13.452   7.377   8.942
46685SOL     OW41828   7.476   4.000   5.227
46685SOL    HW141829   7.397   3.982   5.177
46685SOL    HW241830   7.507   3.914   5.255
46686SOL     OW41831   6.459   3.040   1.285
46686SOL    HW141832   6.527   3.006   1.226
46686SOL    HW241833   6.480   3.133   1.295
46687SOL     OW41834  10.685   1.018   4.698
46687SOL    HW141835  10.649   1.077   4.764
46687SOL    HW241836  10.750   1.072   4.652
46688SOL     OW41837  13.138   9.388  13.965
46688SOL    HW141838  13.170   9.477  13.952
46688SOL    HW241839  13.194   9.333  13.911
46689SOL     OW41840   0.022   8.566  14.106
46689SOL    HW141841  14.837   8.543  14.171
46689SOL    HW241842   0.098   8.513  14.131
46690SOL     OW41843   0.908   9.882   9.536
46690SOL    HW141844   0.904   9.906   9.629
46690SOL    HW241845   1.002   9.871   9.518
46691SOL     OW41846   9.630   2.479   5.647
46691SOL    HW141847   9.705   2.466   5.705
46691SOL    HW241848   9.631   2.403   5.589
46692SOL     OW41849   9.195   5.637   5.418
46692SOL    HW141850   9.234   5.554   5.392
46692SOL    HW241851   9.110   5.638   5.375
46693SOL     OW41852  14.814  10.645   0.462
46693SOL    HW141853  14.750  10.597   0.410
46693SOL    HW241854  14.873  10.684   0.398
46694SOL     OW41855   6.062   0.648   7.297
46694SOL    HW141856   6.082   0.709   7.367
46694SOL    HW241857   6.104   0.566   7.324
46695SOL     OW41858   5.308   5.940   5.526
46695SOL    HW141859   5.354   5.860   5.500
46695SOL    HW241860   5.219   5.912   5.544
46696SOL     OW41861   5.136   8.617  10.657
46696SOL    HW141862   5.183   8.673  10.719
46696SOL    HW241863   5.107   8.542  10.709
46697SOL     OW41864   1.188   2.481  13.351
46697SOL    HW141865   1.168   2.543  13.281
46697SOL    HW241866   1.275   2.447  13.329
46698SOL     OW41867   8.465  14.227   9.902
46698SOL    HW141868   8.467  14.139   9.938
46698SOL    HW241869   8.421  14.280   9.968
46699SOL     OW41870   7.793   3.481   2.064
46699SOL    HW141871   7.763   3.536   2.136
46699SOL    HW241872   7.716   3.470   2.008
46700SOL     OW41873   8.027   0.972   3.576
46700SOL    HW141874   8.003   1.054   3.619
46700SOL    HW241875   7.963   0.909   3.608
46701SOL     OW41876  14.587  10.865   7.972
46701SOL    HW141877  14.558  10.774   7.970
46701SOL    HW241878  14.655  10.867   8.040
46702SOL     OW41879   3.687  12.467   6.122
46702SOL    HW141880   3.635  12.469   6.202
46702SOL    HW241881   3.702  12.374   6.106
46703SOL     OW41882   7.460  11.655  13.418
46703SOL    HW141883   7.426  11.649  13.329
46703SOL    HW241884   7.467  11.564  13.448
46704SOL     OW41885   3.486   0.160   7.998
46704SOL    HW141886   3.395   0.185   8.015
46704SOL    HW241887   3.508   0.203   7.916
46705SOL     OW41888   4.798   9.596  14.495
46705SOL    HW141889   4.707   9.586  14.465
46705SOL    HW241890   4.834   9.664  14.438
46706SOL     OW41891   0.666   6.914   4.263
46706SOL    HW141892   0.609   6.959   4.325
46706SOL    HW241893   0.725   6.982   4.231
46707SOL     OW41894  13.737   6.082   0.347
46707SOL    HW141895  13.821   6.065   0.303
46707SOL    HW241896  13.741   6.175   0.370
46708SOL     OW41897  10.044   0.330   6.636
46708SOL    HW141898  10.107   0.400   6.620
46708SOL    HW241899  10.084   0.252   6.598
46709SOL     OW41900   2.749   5.310   3.416
46709SOL    HW141901   2.776   5.395   3.382
46709SOL    HW241902   2.808   5.247   3.375
46710SOL     OW41903   5.997  13.259   9.523
46710SOL    HW141904   6.004  13.336   9.467
46710SOL    HW241905   5.929  13.205   9.482
46711SOL     OW41906   9.576   3.670   1.521
46711SOL    HW141907   9.613   3.670   1.610
46711SOL    HW241908   9.551   3.579   1.506
46712SOL     OW41909  11.388   5.559   4.096
46712SOL    HW141910  11.467   5.527   4.053
46712SOL    HW241911  11.335   5.480   4.110
46713SOL     OW41912   6.277   5.968   9.426
46713SOL    HW141913   6.347   5.922   9.471
46713SOL    HW241914   6.308   6.059   9.420
46714SOL     OW41915   7.876  12.225   8.389
46714SOL    HW141916   7.855  12.189   8.303
46714SOL    HW241917   7.955  12.178   8.417
46715SOL     OW41918   9.607   9.282  12.488
46715SOL    HW141919   9.583   9.193  12.460
46715SOL    HW241920   9.590   9.283  12.582
46716SOL     OW41921   9.912   4.137   6.977
46716SOL    HW141922   9.851   4.181   6.918
46716SOL    HW241923   9.996   4.141   6.931
46717SOL     OW41924   3.289   5.620   6.566
46717SOL    HW141925   3.215   5.567   6.536
46717SOL    HW241926   3.253   5.708   6.576
46718SOL     OW41927   4.775  11.596   5.254
46718SOL    HW141928   4.785  11.586   5.159
46718SOL    HW241929   4.681  11.606   5.267
46719SOL     OW41930   3.056   1.299   1.261
46719SOL    HW141931   3.005   1.362   1.210
46719SOL    HW241932   3.133   1.281   1.207
46720SOL     OW41933   2.742   8.959   0.341
46720SOL    HW141934   2.695   9.005   0.410
46720SOL    HW241935   2.793   8.892   0.386
46721SOL     OW41936   7.522  11.951   5.528
46721SOL    HW141937   7.456  12.005   5.572
46721SOL    HW241938   7.523  11.983   5.438
46722SOL     OW41939   8.779   1.198   9.434
46722SOL    HW141940   8.738   1.276   9.473
46722SOL    HW241941   8.781   1.134   9.505
46723SOL     OW41942   0.786  14.360  12.613
46723SOL    HW141943   0.829  14.287  12.657
46723SOL    HW241944   0.851  14.392  12.551
46724SOL     OW41945   8.665   6.557   9.088
46724SOL    HW141946   8.684   6.582   9.178
46724SOL    HW241947   8.603   6.484   9.096
46725SOL     OW41948   2.622   6.570   6.467
46725SOL    HW141949   2.535   6.533   6.482
46725SOL    HW241950   2.683   6.506   6.505
46726SOL     OW41951   6.932   3.677  11.842
46726SOL    HW141952   7.022   3.672  11.811
46726SOL    HW241953   6.889   3.600  11.804
46727SOL     OW41954   9.393  10.554  10.658
46727SOL    HW141955   9.324  10.609  10.621
46727SOL    HW241956   9.365  10.538  10.748
46728SOL     OW41957   5.984   5.132  11.248
46728SOL    HW141958   6.055   5.196  11.238
46728SOL    HW241959   5.971   5.126  11.343
46729SOL     OW41960   4.289  12.263   2.140
46729SOL    HW141961   4.310  12.178   2.102
46729SOL    HW241962   4.373  12.309   2.144
46730SOL     OW41963  11.303   9.374   5.278
46730SOL    HW141964  11.225   9.328   5.310
46730SOL    HW241965  11.328   9.327   5.199
46731SOL     OW41966   7.242   0.010   3.327
46731SOL    HW141967   7.188   0.063   3.386
46731SOL    HW241968   7.321  14.873   3.377
46732SOL     OW41969   6.859  14.639   6.360
46732SOL    HW141970   6.943  14.600   6.338
46732SOL    HW241971   6.854  14.718   6.307
46733SOL     OW41972  10.385  10.148   6.479
46733SOL    HW141973  10.333  10.135   6.558
46733SOL    HW241974  10.382  10.243   6.464
46734SOL     OW41975   2.271   3.559   9.644
46734SOL    HW141976   2.353   3.597   9.612
46734SOL    HW241977   2.205   3.587   9.580
46735SOL     OW41978  12.620   8.505   9.143
46735SOL    HW141979  12.704   8.466   9.119
46735SOL    HW241980  12.643   8.585   9.190
46736SOL     OW41981   7.059  13.767   3.100
46736SOL    HW141982   6.984  13.815   3.135
46736SOL    HW241983   7.115  13.751   3.176
46737SOL     OW41984   0.021   9.089   6.862
46737SOL    HW141985  14.875   9.003   6.832
46737SOL    HW241986   0.057   9.131   6.783
46738SOL     OW41987  13.427   5.381   8.061
46738SOL    HW141988  13.368   5.331   8.004
46738SOL    HW241989  13.459   5.316   8.124
46739SOL     OW41990  14.843   1.022  10.768
46739SOL    HW141991   0.009   1.074  10.833
46739SOL    HW241992  14.814   1.086  10.703
46740SOL     OW41993  11.014   0.620   8.174
46740SOL    HW141994  11.091   0.585   8.219
46740SOL    HW241995  11.049   0.655   8.092
46741SOL     OW41996   4.835   5.109   0.429
46741SOL    HW141997   4.767   5.080   0.491
46741SOL    HW241998   4.819   5.202   0.417
46742SOL     OW41999  10.201  12.672   1.014
46742SOL    HW142000  10.259  12.704   0.945
46742SOL    HW242001  10.261  12.641   1.083
46743SOL     OW42002   2.247  11.904   9.920
46743SOL    HW142003   2.252  11.818   9.961
46743SOL    HW242004   2.154  11.926   9.924
46744SOL     OW42005  10.964  14.845   1.925
46744SOL    HW142006  10.974   0.051   1.963
46744SOL    HW242007  10.891  14.806   1.975
46745SOL     OW42008   3.764   7.023   3.111
46745SOL    HW142009   3.698   6.956   3.130
46745SOL    HW242010   3.840   6.975   3.080
46746SOL     OW42011  10.053  11.901   2.929
46746SOL    HW142012  10.070  11.822   2.980
46746SOL    HW242013  10.140  11.936   2.908
46747SOL     OW42014   5.754   1.919   0.645
46747SOL    HW142015   5.720   2.008   0.640
46747SOL    HW242016   5.728   1.878   0.562
46748SOL     OW42017  10.200   7.465  13.743
46748SOL    HW142018  10.158   7.499  13.664
46748SOL    HW242019  10.193   7.536  13.806
46749SOL     OW42020  13.394   8.824   7.085
46749SOL    HW142021  13.437   8.908   7.101
46749SOL    HW242022  13.370   8.827   6.992
46750SOL     OW42023   9.239   4.517   4.230
46750SOL    HW142024   9.208   4.532   4.141
46750SOL    HW242025   9.300   4.589   4.246
46751SOL     OW42026   0.032  13.555   8.996
46751SOL    HW142027   0.049  13.649   8.986
46751SOL    HW242028   0.007  13.526   8.908
46752SOL     OW42029   9.450   2.905   9.760
46752SOL    HW142030   9.410   2.992   9.760
46752SOL    HW242031   9.382   2.847   9.729
46753SOL     OW42032   9.014   8.859   8.010
46753SOL    HW142033   9.099   8.829   7.977
46753SOL    HW242034   9.034   8.898   8.095
46754SOL     OW42035  13.437  11.798   7.805
46754SOL    HW142036  13.507  11.862   7.792
46754SOL    HW242037  13.468  11.742   7.875
46755SOL     OW42038  11.701   6.492   0.806
46755SOL    HW142039  11.612   6.506   0.774
46755SOL    HW242040  11.690   6.486   0.901
46756SOL     OW42041   4.762   0.285   5.532
46756SOL    HW142042   4.777   0.344   5.606
46756SOL    HW242043   4.669   0.264   5.537
46757SOL     OW42044   1.186  11.215  11.180
46757SOL    HW142045   1.229  11.296  11.150
46757SOL    HW242046   1.253  11.148  11.172
46758SOL     OW42047   2.524   9.898   3.698
46758SOL    HW142048   2.544   9.898   3.605
46758SOL    HW242049   2.534   9.989   3.725
46759SOL     OW42050  13.499   6.199   8.619
46759SOL    HW142051  13.418   6.242   8.648
46759SOL    HW242052  13.568   6.236   8.673
46760SOL     OW42053  10.186   2.835   2.794
46760SOL    HW142054  10.163   2.849   2.702
46760SOL    HW242055  10.188   2.923   2.832
46761SOL     OW42056   8.664  11.250  11.082
46761SOL    HW142057   8.679  11.242  10.988
46761SOL    HW242058   8.572  11.274  11.089
46762SOL     OW42059  11.762  13.543  10.542
46762SOL    HW142060  11.705  13.478  10.582
46762SOL    HW242061  11.841  13.543  10.596
46763SOL     OW42062  12.331  10.006   5.240
46763SOL    HW142063  12.427  10.000   5.239
46763SOL    HW242064  12.303   9.925   5.284
46764SOL     OW42065   3.992  11.199  13.347
46764SOL    HW142066   3.957  11.114  13.375
46764SOL    HW242067   3.946  11.220  13.266
46765SOL     OW42068   2.266   3.136   4.800
46765SOL    HW142069   2.224   3.069   4.854
46765SOL    HW242070   2.323   3.184   4.861
46766SOL     OW42071   1.056   8.540  14.074
46766SOL    HW142072   1.148   8.542  14.047
46766SOL    HW242073   1.041   8.450  14.103
46767SOL     OW42074  13.270  14.193   0.550
46767SOL    HW142075  13.256  14.272   0.603
46767SOL    HW242076  13.288  14.125   0.615
46768SOL     OW42077  11.732   5.564  10.481
46768SOL    HW142078  11.739   5.532  10.391
46768SOL    HW242079  11.660   5.514  10.519
46769SOL     OW42080   5.546   1.396   5.498
46769SOL    HW142081   5.602   1.388   5.421
46769SOL    HW242082   5.522   1.488   5.501
46770SOL     OW42083   3.663  10.900  14.221
46770SOL    HW142084   3.613  10.915  14.141
46770SOL    HW242085   3.686  10.988  14.252
46771SOL     OW42086   4.345   6.806   6.698
46771SOL    HW142087   4.422   6.749   6.706
46771SOL    HW242088   4.352   6.865   6.772
46772SOL     OW42089   6.679   6.020   3.458
46772SOL    HW142090   6.727   5.940   3.479
46772SOL    HW242091   6.748   6.084   3.439
46773SOL     OW42092  13.800  12.129   1.800
46773SOL    HW142093  13.862  12.173   1.741
46773SOL    HW242094  13.768  12.199   1.857
46774SOL     OW42095   6.542   2.416   0.189
46774SOL    HW142096   6.552   2.432   0.283
46774SOL    HW242097   6.591   2.486   0.147
46775SOL     OW42098   6.642   8.789   6.289
46775SOL    HW142099   6.669   8.724   6.355
46775SOL    HW242100   6.619   8.736   6.212
46776SOL     OW42101   3.479  11.123  10.936
46776SOL    HW142102   3.492  11.216  10.955
46776SOL    HW242103   3.521  11.078  11.009
46777SOL     OW42104   4.306   7.529   4.557
46777SOL    HW142105   4.330   7.453   4.503
46777SOL    HW242106   4.240   7.495   4.617
46778SOL     OW42107   5.931  13.770   9.715
46778SOL    HW142108   6.008  13.727   9.677
46778SOL    HW242109   5.964  13.809   9.796
46779SOL     OW42110   7.106   8.548   5.230
46779SOL    HW142111   7.168   8.475   5.222
46779SOL    HW242112   7.067   8.535   5.317
46780SOL     OW42113   2.942   2.596  14.098
46780SOL    HW142114   3.036   2.574  14.102
46780SOL    HW242115   2.940   2.691  14.085
46781SOL     OW42116  10.242   0.825   1.842
46781SOL    HW142117  10.298   0.883   1.791
46781SOL    HW242118  10.303   0.774   1.895
46782SOL     OW42119   6.352   9.073   4.687
46782SOL    HW142120   6.277   9.072   4.628
46782SOL    HW242121   6.365   9.165   4.709
46783SOL     OW42122   0.763   8.623   2.486
46783SOL    HW142123   0.699   8.692   2.467
46783SOL    HW242124   0.766   8.571   2.406
46784SOL     OW42125   5.203   9.502   9.001
46784SOL    HW142126   5.181   9.422   9.049
46784SOL    HW242127   5.188   9.572   9.064
46785SOL     OW42128  12.362   0.553   5.090
46785SOL    HW142129  12.344   0.461   5.108
46785SOL    HW242130  12.458   0.559   5.094
46786SOL     OW42131   3.729  11.852   9.991
46786SOL    HW142132   3.778  11.891   9.918
46786SOL    HW242133   3.674  11.786   9.950
46787SOL     OW42134  14.252   3.353   8.252
46787SOL    HW142135  14.166   3.383   8.281
46787SOL    HW242136  14.309   3.429   8.263
46788SOL     OW42137   0.975   1.619   1.285
46788SOL    HW142138   0.933   1.684   1.230
46788SOL    HW242139   0.906   1.589   1.344
46789SOL     OW42140  10.947   7.780   2.552
46789SOL    HW142141  10.981   7.855   2.504
46789SOL    HW242142  10.993   7.783   2.636
46790SOL     OW42143   3.878   1.953  11.111
46790SOL    HW142144   3.859   1.860  11.117
46790SOL    HW242145   3.930   1.962  11.031
46791SOL     OW42146   6.632   0.686  13.910
46791SOL    HW142147   6.549   0.639  13.909
46791SOL    HW242148   6.696   0.623  13.877
46792SOL     OW42149   2.600  12.644  10.997
46792SOL    HW142150   2.601  12.646  10.901
46792SOL    HW242151   2.680  12.597  11.021
46793SOL     OW42152  11.550  12.051   7.738
46793SOL    HW142153  11.536  12.101   7.658
46793SOL    HW242154  11.639  12.073   7.764
46794SOL     OW42155   8.222   7.687   1.891
46794SOL    HW142156   8.221   7.729   1.977
46794SOL    HW242157   8.157   7.736   1.840
46795SOL     OW42158   0.692   9.730  11.865
46795SOL    HW142159   0.736   9.661  11.915
46795SOL    HW242160   0.697   9.807  11.922
46796SOL     OW42161  14.449   5.727   5.899
46796SOL    HW142162  14.459   5.632   5.892
46796SOL    HW242163  14.361   5.745   5.866
46797SOL     OW42164   9.428   0.181   2.598
46797SOL    HW142165   9.349   0.127   2.596
46797SOL    HW242166   9.396   0.271   2.606
46798SOL     OW42167   0.454  10.925   2.761
46798SOL    HW142168   0.480  10.889   2.846
46798SOL    HW242169   0.535  10.963   2.726
46799SOL     OW42170   5.822   6.828   9.108
46799SOL    HW142171   5.878   6.826   9.030
46799SOL    HW242172   5.755   6.762   9.091
46800SOL     OW42173   7.388   6.094  11.959
46800SOL    HW142174   7.347   6.162  12.013
46800SOL    HW242175   7.445   6.141  11.899
46801SOL     OW42176   6.091   3.531   9.961
46801SOL    HW142177   6.174   3.484   9.949
46801SOL    HW242178   6.097   3.607   9.903
46802SOL     OW42179   3.566   5.543  11.824
46802SOL    HW142180   3.592   5.635  11.822
46802SOL    HW242181   3.558   5.523  11.917
46803SOL     OW42182   3.282   5.814   4.483
46803SOL    HW142183   3.217   5.878   4.513
46803SOL    HW242184   3.302   5.840   4.394
46804SOL     OW42185   3.225   6.110  13.463
46804SOL    HW142186   3.231   6.185  13.404
46804SOL    HW242187   3.132   6.090  13.469
46805SOL     OW42188   8.085  13.789  10.362
46805SOL    HW142189   8.122  13.709  10.325
46805SOL    HW242190   7.994  13.766  10.383
46806SOL     OW42191   5.661  13.961   5.348
46806SOL    HW142192   5.665  14.038   5.291
46806SOL    HW242193   5.597  13.985   5.416
46807SOL     OW42194  12.130  10.817   6.705
46807SOL    HW142195  12.208  10.800   6.758
46807SOL    HW242196  12.150  10.898   6.658
46808SOL     OW42197   0.989  12.819   5.811
46808SOL    HW142198   0.942  12.761   5.871
46808SOL    HW242199   0.933  12.897   5.806
46809SOL     OW42200  10.559   8.419  13.426
46809SOL    HW142201  10.522   8.454  13.507
46809SOL    HW242202  10.500   8.449  13.357
46810SOL     OW42203   4.967  11.239   9.491
46810SOL    HW142204   5.033  11.171   9.501
46810SOL    HW242205   4.883  11.192   9.493
46811SOL     OW42206  11.254   6.916  13.147
46811SOL    HW142207  11.167   6.935  13.111
46811SOL    HW242208  11.312   6.917  13.071
46812SOL     OW42209  12.224   1.637  12.770
46812SOL    HW142210  12.172   1.705  12.729
46812SOL    HW242211  12.305   1.681  12.796
46813SOL     OW42212   2.049   3.270   6.653
46813SOL    HW142213   2.058   3.182   6.616
46813SOL    HW242214   1.996   3.317   6.590
46814SOL     OW42215  12.790  14.412   3.317
46814SOL    HW142216  12.706  14.397   3.361
46814SOL    HW242217  12.773  14.390   3.226
46815SOL     OW42218   7.051   9.618   0.854
46815SOL    HW142219   6.987   9.559   0.894
46815SOL    HW242220   7.128   9.562   0.839
46816SOL     OW42221  11.185   5.915  11.980
46816SOL    HW142222  11.112   5.853  11.986
46816SOL    HW242223  11.160   5.988  12.037
46817SOL     OW42224   9.050   2.616   4.422
46817SOL    HW142225   9.065   2.613   4.517
46817SOL    HW242226   8.981   2.551   4.407
46818SOL     OW42227   9.022   6.451   8.289
46818SOL    HW142228   9.057   6.410   8.210
46818SOL    HW242229   9.089   6.436   8.356
46819SOL     OW42230   9.534   3.887  12.061
46819SOL    HW142231   9.540   3.967  12.113
46819SOL    HW242232   9.602   3.830  12.097
46820SOL     OW42233   0.596  12.348  12.745
46820SOL    HW142234   0.571  12.440  12.730
46820SOL    HW242235   0.656  12.351  12.819
46821SOL     OW42236  14.249   5.767   4.853
46821SOL    HW142237  14.244   5.701   4.922
46821SOL    HW242238  14.159   5.775   4.821
46822SOL     OW42239   1.341   1.824  14.799
46822SOL    HW142240   1.293   1.900  14.766
46822SOL    HW242241   1.432   1.840  14.775
46823SOL     OW42242   3.208  11.617   6.819
46823SOL    HW142243   3.129  11.633   6.767
46823SOL    HW242244   3.194  11.666   6.900
46824SOL     OW42245   6.873   9.040   9.552
46824SOL    HW142246   6.962   9.069   9.572
46824SOL    HW242247   6.868   8.952   9.588
46825SOL     OW42248   0.750   6.315   0.428
46825SOL    HW142249   0.763   6.382   0.361
46825SOL    HW242250   0.803   6.343   0.502
46826SOL     OW42251  10.536  13.720   7.204
46826SOL    HW142252  10.518  13.730   7.110
46826SOL    HW242253  10.454  13.745   7.247
46827SOL     OW42254  10.832   1.104   9.739
46827SOL    HW142255  10.875   1.019   9.737
46827SOL    HW242256  10.809   1.122   9.648
46828SOL     OW42257   3.822   5.684   5.631
46828SOL    HW142258   3.864   5.604   5.600
46828SOL    HW242259   3.770   5.656   5.707
46829SOL     OW42260   4.734   7.828   4.748
46829SOL    HW142261   4.676   7.892   4.706
46829SOL    HW242262   4.772   7.779   4.675
46830SOL     OW42263   3.995   8.805   4.280
46830SOL    HW142264   3.957   8.892   4.273
46830SOL    HW242265   3.972   8.775   4.368
46831SOL     OW42266   9.362   4.553   9.012
46831SOL    HW142267   9.333   4.642   9.031
46831SOL    HW242268   9.343   4.541   8.919
46832SOL     OW42269  12.732  13.995  10.003
46832SOL    HW142270  12.686  14.070   9.966
46832SOL    HW242271  12.662  13.933  10.025
46833SOL     OW42272   2.566   1.573   6.743
46833SOL    HW142273   2.570   1.587   6.649
46833SOL    HW242274   2.519   1.649   6.777
46834SOL     OW42275   2.762   9.795   7.969
46834SOL    HW142276   2.752   9.708   8.007
46834SOL    HW242277   2.711   9.852   8.026
46835SOL     OW42278  14.061   1.878  12.234
46835SOL    HW142279  14.070   1.913  12.323
46835SOL    HW242280  14.036   1.787  12.247
46836SOL     OW42281   5.811   2.938   4.319
46836SOL    HW142282   5.781   3.028   4.302
46836SOL    HW242283   5.747   2.903   4.381
46837SOL     OW42284  13.250   8.903   9.339
46837SOL    HW142285  13.271   8.947   9.257
46837SOL    HW242286  13.157   8.880   9.331
46838SOL     OW42287   9.852   7.078  14.316
46838SOL    HW142288   9.916   7.016  14.282
46838SOL    HW242289   9.846   7.146  14.249
46839SOL     OW42290  11.727   1.313   2.224
46839SOL    HW142291  11.789   1.286   2.293
46839SOL    HW242292  11.739   1.407   2.216
46840SOL     OW42293   5.973   3.325  12.528
46840SOL    HW142294   6.029   3.247  12.526
46840SOL    HW242295   6.026   3.394  12.488
46841SOL     OW42296  14.483  13.977   2.588
46841SOL    HW142297  14.481  14.060   2.635
46841SOL    HW242298  14.416  13.923   2.630
46842SOL     OW42299  14.048   2.100  10.470
46842SOL    HW142300  14.125   2.094  10.413
46842SOL    HW242301  13.994   2.168  10.430
46843SOL     OW42302   9.625  13.855   0.857
46843SOL    HW142303   9.673  13.927   0.816
46843SOL    HW242304   9.671  13.776   0.831
46844SOL     OW42305   0.300   9.686   5.891
46844SOL    HW142306   0.225   9.635   5.922
46844SOL    HW242307   0.292   9.770   5.936
46845SOL     OW42308   5.180   6.791   7.948
46845SOL    HW142309   5.110   6.733   7.918
46845SOL    HW242310   5.255   6.770   7.893
46846SOL     OW42311  11.999  11.556   6.789
46846SOL    HW142312  11.994  11.499   6.865
46846SOL    HW242313  12.057  11.510   6.728
46847SOL     OW42314  10.618   8.566   7.820
46847SOL    HW142315  10.645   8.565   7.912
46847SOL    HW242316  10.600   8.474   7.800
46848SOL     OW42317   0.102   4.386   8.026
46848SOL    HW142318   0.148   4.464   8.058
46848SOL    HW242319   0.170   4.332   7.987
46849SOL     OW42320   8.775  10.430   8.548
46849SOL    HW142321   8.779  10.516   8.504
46849SOL    HW242322   8.855  10.385   8.519
46850SOL     OW42323   3.722   6.490   6.102
46850SOL    HW142324   3.764   6.517   6.020
46850SOL    HW242325   3.789   6.439   6.147
46851SOL     OW42326   6.577   0.020  14.071
46851SOL    HW142327   6.524   0.081  14.020
46851SOL    HW242328   6.633   0.075  14.126
46852SOL     OW42329   0.199   7.781  12.471
46852SOL    HW142330   0.203   7.766  12.566
46852SOL    HW242331   0.289   7.769  12.442
46853SOL     OW42332   6.235  13.344  11.193
46853SOL    HW142333   6.299  13.358  11.123
46853SOL    HW242334   6.167  13.289  11.154
46854SOL     OW42335  13.877   8.814   5.331
46854SOL    HW142336  13.918   8.742   5.283
46854SOL    HW242337  13.934   8.829   5.407
46855SOL     OW42338   2.608  12.255   1.022
46855SOL    HW142339   2.626  12.166   1.050
46855SOL    HW242340   2.678  12.307   1.062
46856SOL     OW42341  11.971   1.633  13.899
46856SOL    HW142342  12.046   1.645  13.841
46856SOL    HW242343  12.008   1.599  13.980
46857SOL     OW42344  10.917  11.198   5.584
46857SOL    HW142345  10.940  11.143   5.509
46857SOL    HW242346  10.888  11.280   5.546
46858SOL     OW42347  11.530   3.706   4.096
46858SOL    HW142348  11.508   3.763   4.169
46858SOL    HW242349  11.551   3.622   4.136
46859SOL     OW42350   0.312   6.495   1.470
46859SOL    HW142351   0.331   6.511   1.562
46859SOL    HW242352   0.312   6.400   1.462
46860SOL     OW42353   9.554   8.601  12.061
46860SOL    HW142354   9.516   8.609  12.148
46860SOL    HW242355   9.505   8.530  12.020
46861SOL     OW42356   1.338  12.768  11.190
46861SOL    HW142357   1.418  12.815  11.213
46861SOL    HW242358   1.353  12.737  11.101
46862SOL     OW42359  14.715   8.278  10.615
46862SOL    HW142360  14.750   8.195  10.582
46862SOL    HW242361  14.621   8.274  10.595
46863SOL     OW42362  12.869   3.400   9.062
46863SOL    HW142363  12.791   3.428   9.015
46863SOL    HW242364  12.844   3.402   9.154
46864SOL     OW42365   2.414   7.474   5.815
46864SOL    HW142366   2.452   7.501   5.731
46864SOL    HW242367   2.332   7.430   5.792
46865SOL     OW42368  14.075   9.258   1.781
46865SOL    HW142369  14.127   9.289   1.707
46865SOL    HW242370  14.055   9.336   1.832
46866SOL     OW42371   4.757   7.933   0.031
46866SOL    HW142372   4.693   7.908   0.097
46866SOL    HW242373   4.835   7.957   0.080
46867SOL     OW42374   1.862  14.406   7.479
46867SOL    HW142375   1.933  14.360   7.434
46867SOL    HW242376   1.812  14.447   7.409
46868SOL     OW42377   7.916   4.186   7.447
46868SOL    HW142378   7.982   4.253   7.431
46868SOL    HW242379   7.859   4.190   7.370
46869SOL     OW42380  12.831   6.634   3.667
46869SOL    HW142381  12.805   6.661   3.578
46869SOL    HW242382  12.783   6.694   3.725
46870SOL     OW42383   9.063   2.378  10.022
46870SOL    HW142384   9.042   2.294  10.063
46870SOL    HW242385   9.027   2.371   9.933
46871SOL     OW42386   8.749   4.168   2.357
46871SOL    HW142387   8.666   4.184   2.401
46871SOL    HW242388   8.758   4.239   2.295
46872SOL     OW42389   6.020   2.720  13.999
46872SOL    HW142390   6.012   2.628  14.024
46872SOL    HW242391   6.027   2.767  14.083
46873SOL     OW42392  12.891  11.955   6.008
46873SOL    HW142393  12.919  11.958   6.100
46873SOL    HW242394  12.868  12.045   5.987
46874SOL     OW42395  14.328   3.206   4.001
46874SOL    HW142396  14.289   3.201   3.914
46874SOL    HW242397  14.306   3.123   4.043
46875SOL     OW42398   3.764   5.508  11.017
46875SOL    HW142399   3.762   5.415  11.039
46875SOL    HW242400   3.735   5.552  11.096
46876SOL     OW42401  11.201   3.830  14.495
46876SOL    HW142402  11.274   3.772  14.471
46876SOL    HW242403  11.125   3.790  14.452
46877SOL     OW42404   9.604  13.107   7.728
46877SOL    HW142405   9.671  13.096   7.796
46877SOL    HW242406   9.525  13.067   7.766
46878SOL     OW42407   6.511  10.633   5.719
46878SOL    HW142408   6.595  10.644   5.676
46878SOL    HW242409   6.517  10.688   5.797
46879SOL     OW42410   0.111  11.027  13.940
46879SOL    HW142411   0.070  11.035  14.027
46879SOL    HW242412   0.202  11.005  13.959
46880SOL     OW42413   9.355   7.639   3.929
46880SOL    HW142414   9.376   7.718   3.979
46880SOL    HW242415   9.314   7.580   3.992
46881SOL     OW42416   5.640  14.328   0.844
46881SOL    HW142417   5.579  14.288   0.906
46881SOL    HW242418   5.647  14.419   0.871
46882SOL     OW42419   2.490   1.973  14.765
46882SOL    HW142420   2.438   2.035  14.714
46882SOL    HW242421   2.442   1.891  14.760
46883SOL     OW42422   0.629  10.152  11.719
46883SOL    HW142423   0.624  10.119  11.808
46883SOL    HW242424   0.568  10.098  11.670
46884SOL     OW42425  14.729  12.138   9.692
46884SOL    HW142426  14.739  12.165   9.783
46884SOL    HW242427  14.756  12.046   9.691
46885SOL     OW42428   1.115  10.464   1.101
46885SOL    HW142429   1.029  10.498   1.077
46885SOL    HW242430   1.126  10.386   1.046
46886SOL     OW42431   8.547   6.760   8.404
46886SOL    HW142432   8.526   6.677   8.447
46886SOL    HW242433   8.585   6.815   8.473
46887SOL     OW42434   0.444  10.473  10.456
46887SOL    HW142435   0.466  10.398  10.400
46887SOL    HW242436   0.354  10.455  10.484
46888SOL     OW42437  11.483   1.383   4.558
46888SOL    HW142438  11.538   1.356   4.631
46888SOL    HW242439  11.397   1.400   4.597
46889SOL     OW42440   2.080   7.713   3.427
46889SOL    HW142441   2.162   7.724   3.476
46889SOL    HW242442   2.038   7.799   3.432
46890SOL     OW42443   0.007   9.155  10.076
46890SOL    HW142444  14.862   9.105  10.152
46890SOL    HW242445  14.836   9.235  10.079
46891SOL     OW42446  14.294   8.146   4.781
46891SOL    HW142447  14.316   8.235   4.755
46891SOL    HW242448  14.325   8.092   4.709
46892SOL     OW42449   6.843   9.918  13.174
46892SOL    HW142450   6.779   9.907  13.104
46892SOL    HW242451   6.825   9.846  13.234
46893SOL     OW42452   6.992   0.289   5.389
46893SOL    HW142453   7.075   0.276   5.343
46893SOL    HW242454   6.966   0.378   5.365
46894SOL     OW42455  13.969   9.106  12.096
46894SOL    HW142456  13.877   9.079  12.103
46894SOL    HW242457  13.979   9.175  12.161
46895SOL     OW42458  10.639  14.162   8.267
46895SOL    HW142459  10.700  14.131   8.333
46895SOL    HW242460  10.693  14.183   8.191
46896SOL     OW42461   2.831  12.920  14.518
46896SOL    HW142462   2.828  12.843  14.575
46896SOL    HW242463   2.922  12.949  14.521
46897SOL     OW42464   4.100   5.571  12.294
46897SOL    HW142465   4.081   5.656  12.254
46897SOL    HW242466   4.181   5.586  12.344
46898SOL     OW42467   6.926   3.077   2.704
46898SOL    HW142468   6.958   3.026   2.778
46898SOL    HW242469   6.879   3.013   2.650
46899SOL     OW42470   8.469   5.777   8.135
46899SOL    HW142471   8.505   5.802   8.220
46899SOL    HW242472   8.478   5.682   8.132
46900SOL     OW42473  14.642   2.514   1.216
46900SOL    HW142474  14.664   2.424   1.241
46900SOL    HW242475  14.591   2.504   1.135
46901SOL     OW42476   5.002   5.580   3.276
46901SOL    HW142477   5.032   5.491   3.258
46901SOL    HW242478   4.922   5.588   3.225
46902SOL     OW42479   5.111   3.226   6.843
46902SOL    HW142480   5.046   3.187   6.784
46902SOL    HW242481   5.158   3.151   6.879
46903SOL     OW42482  11.706   4.709  14.490
46903SOL    HW142483  11.735   4.786  14.442
46903SOL    HW242484  11.730   4.635  14.434
46904SOL     OW42485  13.141   3.465   6.016
46904SOL    HW142486  13.196   3.389   5.996
46904SOL    HW242487  13.065   3.456   5.959
46905SOL     OW42488  11.745   7.740   5.761
46905SOL    HW142489  11.686   7.717   5.833
46905SOL    HW242490  11.692   7.792   5.702
46906SOL     OW42491   5.373   5.649  13.582
46906SOL    HW142492   5.433   5.723  13.584
46906SOL    HW242493   5.418   5.579  13.628
46907SOL     OW42494  12.783   4.253  14.782
46907SOL    HW142495  12.801   4.327  14.839
46907SOL    HW242496  12.695   4.269  14.749
46908SOL     OW42497  14.050  12.007   6.192
46908SOL    HW142498  14.095  12.086   6.219
46908SOL    HW242499  13.979  12.037   6.135
46909SOL     OW42500   7.769   4.913   6.019
46909SOL    HW142501   7.688   4.909   6.070
46909SOL    HW242502   7.814   4.830   6.038
46910SOL     OW42503   0.830  14.350   3.222
46910SOL    HW142504   0.798  14.377   3.308
46910SOL    HW242505   0.751  14.329   3.172
46911SOL     OW42506  13.765  10.486   6.181
46911SOL    HW142507  13.731  10.400   6.155
46911SOL    HW242508  13.856  10.486   6.152
46912SOL     OW42509   2.021   8.010  13.462
46912SOL    HW142510   1.999   7.933  13.410
46912SOL    HW242511   2.007   7.982  13.553
46913SOL     OW42512  13.355  12.511   8.233
46913SOL    HW142513  13.261  12.497   8.244
46913SOL    HW242514  13.385  12.542   8.319
46914SOL     OW42515   7.171   4.053   8.886
46914SOL    HW142516   7.217   3.978   8.847
46914SOL    HW242517   7.179   4.122   8.821
46915SOL     OW42518  13.120   8.382  14.341
46915SOL    HW142519  13.144   8.314  14.403
46915SOL    HW242520  13.200   8.433  14.329
46916SOL     OW42521   6.574   4.992   2.124
46916SOL    HW142522   6.666   4.974   2.104
46916SOL    HW242523   6.530   4.990   2.038
46917SOL     OW42524  11.000   3.706   1.939
46917SOL    HW142525  11.002   3.713   2.035
46917SOL    HW242526  10.907   3.699   1.918
46918SOL     OW42527  10.271   3.579   0.254
46918SOL    HW142528  10.239   3.579   0.344
46918SOL    HW242529  10.366   3.569   0.262
46919SOL     OW42530   2.465  11.355   2.525
46919SOL    HW142531   2.422  11.343   2.610
46919SOL    HW242532   2.471  11.267   2.489
46920SOL     OW42533   7.856   9.722  14.396
46920SOL    HW142534   7.860   9.627  14.406
46920SOL    HW242535   7.764   9.740  14.377
46921SOL     OW42536  12.917  11.985  12.119
46921SOL    HW142537  12.932  11.965  12.026
46921SOL    HW242538  12.853  12.056  12.118
46922SOL     OW42539   3.148   3.225  10.283
46922SOL    HW142540   3.110   3.140  10.306
46922SOL    HW242541   3.129   3.280  10.359
46923SOL     OW42542  13.014   9.788   8.047
46923SOL    HW142543  12.974   9.711   8.087
46923SOL    HW242544  12.975   9.794   7.960
46924SOL     OW42545  13.034  11.639   7.354
46924SOL    HW142546  13.065  11.564   7.405
46924SOL    HW242547  12.943  11.616   7.332
46925SOL     OW42548   4.176  13.348   0.974
46925SOL    HW142549   4.185  13.438   1.007
46925SOL    HW242550   4.229  13.295   1.034
46926SOL     OW42551   3.999   5.762  13.929
46926SOL    HW142552   4.071   5.796  13.982
46926SOL    HW242553   3.982   5.675  13.964
46927SOL     OW42554  10.425  10.256  14.011
46927SOL    HW142555  10.494  10.305  13.968
46927SOL    HW242556  10.443  10.267  14.105
46928SOL     OW42557   6.204  11.567   5.065
46928SOL    HW142558   6.221  11.479   5.031
46928SOL    HW242559   6.124  11.558   5.117
46929SOL     OW42560   3.456  12.607  11.967
46929SOL    HW142561   3.544  12.638  11.987
46929SOL    HW242562   3.469  12.535  11.905
46930SOL     OW42563   9.967   9.292   1.730
46930SOL    HW142564  10.052   9.291   1.686
46930SOL    HW242565   9.903   9.282   1.660
46931SOL     OW42566   1.128   3.015  14.033
46931SOL    HW142567   1.216   3.043  14.059
46931SOL    HW242568   1.088   3.093  13.995
46932SOL     OW42569   8.161  13.552  10.258
46932SOL    HW142570   8.149  13.547  10.164
46932SOL    HW242571   8.231  13.490  10.278
46933SOL     OW42572   7.767   3.619   7.961
46933SOL    HW142573   7.713   3.638   7.884
46933SOL    HW242574   7.846   3.577   7.925
46934SOL     OW42575  13.839  11.361  11.126
46934SOL    HW142576  13.816  11.311  11.205
46934SOL    HW242577  13.812  11.451  11.146
46935SOL     OW42578  10.748   8.379  14.465
46935SOL    HW142579  10.793   8.373  14.381
46935SOL    HW242580  10.712   8.467  14.467
46936SOL     OW42581  11.203   5.613   3.893
46936SOL    HW142582  11.271   5.628   3.959
46936SOL    HW242583  11.217   5.681   3.828
46937SOL     OW42584   7.075  12.650  12.264
46937SOL    HW142585   7.000  12.623  12.212
46937SOL    HW242586   7.144  12.588  12.241
46938SOL     OW42587   6.563   5.948   8.734
46938SOL    HW142588   6.639   6.002   8.713
46938SOL    HW242589   6.553   5.956   8.829
46939SOL     OW42590  12.848   6.951   8.763
46939SOL    HW142591  12.841   6.875   8.821
46939SOL    HW242592  12.765   6.953   8.716
46940SOL     OW42593  10.309   0.704   4.428
46940SOL    HW142594  10.361   0.656   4.363
46940SOL    HW242595  10.370   0.721   4.499
46941SOL     OW42596  13.133  13.229  14.581
46941SOL    HW142597  13.189  13.305  14.566
46941SOL    HW242598  13.129  13.221  14.676
46942SOL     OW42599   1.062   7.921   1.429
46942SOL    HW142600   0.974   7.920   1.467
46942SOL    HW242601   1.101   8.003   1.460
46943SOL     OW42602  13.494   4.758  10.598
46943SOL    HW142603  13.516   4.682  10.544
46943SOL    HW242604  13.443   4.723  10.671
46944SOL     OW42605  11.220   0.440   1.005
46944SOL    HW142606  11.135   0.420   1.045
46944SOL    HW242607  11.198   0.491   0.928
46945SOL     OW42608  12.335   2.111   3.897
46945SOL    HW142609  12.302   2.022   3.907
46945SOL    HW242610  12.375   2.112   3.810
46946SOL     OW42611   7.172   0.561   0.230
46946SOL    HW142612   7.129   0.646   0.242
46946SOL    HW242613   7.136   0.529   0.147
46947SOL     OW42614   3.710   0.962   3.185
46947SOL    HW142615   3.648   1.031   3.207
46947SOL    HW242616   3.656   0.886   3.165
46948SOL     OW42617   4.830   3.705   2.301
46948SOL    HW142618   4.916   3.729   2.335
46948SOL    HW242619   4.799   3.636   2.360
46949SOL     OW42620   8.343   3.658   4.485
46949SOL    HW142621   8.367   3.728   4.546
46949SOL    HW242622   8.250   3.642   4.503
46950SOL     OW42623   4.641   5.512  14.247
46950SOL    HW142624   4.709   5.451  14.218
46950SOL    HW242625   4.561   5.482  14.206
46951SOL     OW42626   1.031   8.864   9.540
46951SOL    HW142627   1.127   8.859   9.550
46951SOL    HW242628   0.998   8.792   9.593
46952SOL     OW42629   6.803   1.413  10.683
46952SOL    HW142630   6.883   1.457  10.712
46952SOL    HW242631   6.752   1.482  10.642
46953SOL     OW42632  10.051   3.551   3.111
46953SOL    HW142633  10.003   3.629   3.139
46953SOL    HW242634  10.143   3.574   3.125
46954SOL     OW42635   0.283  12.519   3.232
46954SOL    HW142636   0.307  12.459   3.303
46954SOL    HW242637   0.299  12.470   3.152
46955SOL     OW42638   9.968   4.986   3.355
46955SOL    HW142639  10.050   4.983   3.404
46955SOL    HW242640   9.978   4.919   3.288
46956SOL     OW42641  10.795  12.341   5.314
46956SOL    HW142642  10.764  12.415   5.367
46956SOL    HW242643  10.758  12.357   5.227
46957SOL     OW42644   9.033  14.112   9.156
46957SOL    HW142645   8.983  14.084   9.232
46957SOL    HW242646   9.058  14.202   9.175
46958SOL     OW42647  14.360   0.524   4.354
46958SOL    HW142648  14.368   0.467   4.430
46958SOL    HW242649  14.434   0.584   4.361
46959SOL     OW42650   8.902   7.472   8.421
46959SOL    HW142651   8.924   7.449   8.330
46959SOL    HW242652   8.888   7.566   8.418
46960SOL     OW42653  11.926   2.333   6.978
46960SOL    HW142654  11.849   2.364   6.931
46960SOL    HW242655  11.935   2.241   6.953
46961SOL     OW42656   3.879   3.061  13.874
46961SOL    HW142657   3.900   3.050  13.781
46961SOL    HW242658   3.784   3.073  13.876
46962SOL     OW42659   8.652   2.463   4.625
46962SOL    HW142660   8.615   2.409   4.694
46962SOL    HW242661   8.622   2.423   4.543
46963SOL     OW42662   4.890   0.077   0.468
46963SOL    HW142663   4.854   0.032   0.392
46963SOL    HW242664   4.814   0.104   0.519
46964SOL     OW42665   5.884   9.023   9.536
46964SOL    HW142666   5.911   8.979   9.456
46964SOL    HW242667   5.797   8.986   9.555
46965SOL     OW42668  11.946   6.805   1.874
46965SOL    HW142669  11.961   6.750   1.951
46965SOL    HW242670  11.852   6.795   1.856
46966SOL     OW42671   4.496   8.170  13.798
46966SOL    HW142672   4.591   8.177  13.809
46966SOL    HW242673   4.462   8.163  13.887
46967SOL     OW42674   8.437   6.345  13.421
46967SOL    HW142675   8.448   6.361  13.327
46967SOL    HW242676   8.344   6.361  13.437
46968SOL     OW42677   4.471   0.343  10.638
46968SOL    HW142678   4.462   0.392  10.557
46968SOL    HW242679   4.565   0.348  10.658
46969SOL     OW42680   4.081  12.531   4.494
46969SOL    HW142681   4.073  12.452   4.441
46969SOL    HW242682   4.176  12.545   4.501
46970SOL     OW42683   9.498   8.000  13.314
46970SOL    HW142684   9.542   8.028  13.233
46970SOL    HW242685   9.407   7.986  13.288
46971SOL     OW42686   2.139   2.809   7.573
46971SOL    HW142687   2.223   2.815   7.619
46971SOL    HW242688   2.163   2.800   7.481
46972SOL     OW42689   3.652  11.401  14.452
46972SOL    HW142690   3.651  11.488  14.413
46972SOL    HW242691   3.737  11.394  14.496
46973SOL     OW42692   4.622  12.202  10.271
46973SOL    HW142693   4.543  12.148  10.275
46973SOL    HW242694   4.693  12.139  10.260
46974SOL     OW42695   6.492   3.082  12.019
46974SOL    HW142696   6.411   3.122  11.986
46974SOL    HW242697   6.477   2.988  12.013
46975SOL     OW42698  14.123  14.400   9.464
46975SOL    HW142699  14.191  14.467   9.458
46975SOL    HW242700  14.168  14.319   9.438
46976SOL     OW42701   9.519   5.173  12.282
46976SOL    HW142702   9.447   5.126  12.239
46976SOL    HW242703   9.540   5.246  12.224
46977SOL     OW42704   1.205   8.809   9.158
46977SOL    HW142705   1.259   8.850   9.226
46977SOL    HW242706   1.121   8.854   9.162
46978SOL     OW42707  14.032   6.841  12.083
46978SOL    HW142708  13.979   6.815  12.007
46978SOL    HW242709  14.122   6.840  12.050
46979SOL     OW42710   1.741   0.718   2.903
46979SOL    HW142711   1.773   0.628   2.897
46979SOL    HW242712   1.819   0.770   2.923
46980SOL     OW42713  13.786   4.993   9.042
46980SOL    HW142714  13.722   5.050   9.085
46980SOL    HW242715  13.761   4.904   9.068
46981SOL     OW42716   4.131  10.796   2.867
46981SOL    HW142717   4.046  10.836   2.886
46981SOL    HW242718   4.151  10.743   2.945
46982SOL     OW42719  13.396   4.600  11.162
46982SOL    HW142720  13.339   4.650  11.222
46982SOL    HW242721  13.454   4.667  11.125
46983SOL     OW42722   4.112   9.856   1.450
46983SOL    HW142723   4.034   9.825   1.495
46983SOL    HW242724   4.120   9.800   1.373
46984SOL     OW42725  13.905   1.849   4.528
46984SOL    HW142726  13.887   1.943   4.527
46984SOL    HW242727  13.818   1.809   4.534
46985SOL     OW42728   4.722  11.990   4.857
46985SOL    HW142729   4.676  12.009   4.939
46985SOL    HW242730   4.810  12.024   4.870
46986SOL     OW42731  14.648  14.410  11.197
46986SOL    HW142732  14.637  14.453  11.282
46986SOL    HW242733  14.710  14.466  11.149
46987SOL     OW42734   1.902   4.394  14.412
46987SOL    HW142735   1.935   4.343  14.338
46987SOL    HW242736   1.814   4.359  14.427
46988SOL     OW42737   3.703   1.381   2.775
46988SOL    HW142738   3.679   1.419   2.859
46988SOL    HW242739   3.716   1.288   2.792
46989SOL     OW42740  14.572   0.397   1.433
46989SOL    HW142741  14.595   0.459   1.365
46989SOL    HW242742  14.531   0.324   1.387
46990SOL     OW42743  14.484   7.993   6.889
46990SOL    HW142744  14.560   7.951   6.850
46990SOL    HW242745  14.496   8.086   6.871
46991SOL     OW42746   5.451  13.077   1.517
46991SOL    HW142747   5.478  13.164   1.486
46991SOL    HW242748   5.360  13.069   1.487
46992SOL     OW42749  11.600   7.910  13.336
46992SOL    HW142750  11.641   7.947  13.414
46992SOL    HW242751  11.626   7.818  13.337
46993SOL     OW42752  12.928  13.677   2.371
46993SOL    HW142753  12.949  13.637   2.455
46993SOL    HW242754  12.882  13.608   2.323
46994SOL     OW42755   3.113  11.572   4.885
46994SOL    HW142756   3.055  11.510   4.841
46994SOL    HW242757   3.134  11.637   4.818
46995SOL     OW42758  12.676   3.376  13.290
46995SOL    HW142759  12.672   3.315  13.364
46995SOL    HW242760  12.732   3.332  13.226
46996SOL     OW42761  14.866  11.245   7.356
46996SOL    HW142762  14.853  11.261   7.449
46996SOL    HW242763  14.848  11.151   7.345
46997SOL     OW42764  12.085   1.175  14.826
46997SOL    HW142765  12.119   1.265  14.825
46997SOL    HW242766  12.145   1.127   0.001
46998SOL     OW42767   9.071  12.303   9.262
46998SOL    HW142768   9.137  12.237   9.284
46998SOL    HW242769   9.117  12.387   9.273
46999SOL     OW42770   8.756   1.380  14.545
46999SOL    HW142771   8.791   1.409  14.629
46999SOL    HW242772   8.828   1.332  14.505
47000SOL     OW42773   8.601   5.167   2.666
47000SOL    HW142774   8.683   5.117   2.662
47000SOL    HW242775   8.533   5.102   2.647
47001SOL     OW42776  13.791   7.001   9.173
47001SOL    HW142777  13.720   6.969   9.228
47001SOL    HW242778  13.810   6.929   9.113
47002SOL     OW42779  14.660   5.027   6.372
47002SOL    HW142780  14.718   5.087   6.325
47002SOL    HW242781  14.696   5.024   6.461
47003SOL     OW42782   1.702  14.324   2.212
47003SOL    HW142783   1.782  14.377   2.217
47003SOL    HW242784   1.712  14.275   2.131
47004SOL     OW42785  13.596  11.401  12.358
47004SOL    HW142786  13.540  11.475  12.381
47004SOL    HW242787  13.583  11.390  12.264
47005SOL     OW42788  10.116  11.373   0.703
47005SOL    HW142789  10.165  11.304   0.747
47005SOL    HW242790  10.034  11.331   0.675
47006SOL     OW42791   4.300  13.368   2.215
47006SOL    HW142792   4.229  13.396   2.158
47006SOL    HW242793   4.258  13.310   2.279
47007SOL     OW42794   1.601   4.095   1.385
47007SOL    HW142795   1.674   4.157   1.386
47007SOL    HW242796   1.530   4.143   1.343
47008SOL     OW42797   9.860  12.317   0.179
47008SOL    HW142798   9.882  12.391   0.123
47008SOL    HW242799   9.880  12.239   0.127
47009SOL     OW42800   7.326  10.502  10.559
47009SOL    HW142801   7.301  10.451  10.636
47009SOL    HW242802   7.397  10.559  10.589
47010SOL     OW42803   6.212   4.958   5.502
47010SOL    HW142804   6.135   5.006   5.474
47010SOL    HW242805   6.281   4.984   5.440
47011SOL     OW42806   3.135  14.155   6.204
47011SOL    HW142807   3.198  14.083   6.205
47011SOL    HW242808   3.053  14.113   6.177
47012SOL     OW42809  13.682   5.826   8.731
47012SOL    HW142810  13.607   5.865   8.776
47012SOL    HW242811  13.704   5.749   8.782
47013SOL     OW42812   1.830  14.780   6.235
47013SOL    HW142813   1.863  14.860   6.276
47013SOL    HW242814   1.894  14.760   6.167
47014SOL     OW42815   6.347  10.382   1.193
47014SOL    HW142816   6.333  10.476   1.177
47014SOL    HW242817   6.294  10.338   1.127
47015SOL     OW42818   0.459  11.150   7.802
47015SOL    HW142819   0.443  11.066   7.760
47015SOL    HW242820   0.543  11.180   7.767
47016SOL     OW42821  11.366   6.406  14.491
47016SOL    HW142822  11.324   6.344  14.551
47016SOL    HW242823  11.330   6.383  14.405
47017SOL     OW42824   5.982  12.402   3.782
47017SOL    HW142825   5.931  12.407   3.701
47017SOL    HW242826   5.945  12.328   3.829
47018SOL     OW42827   1.982  10.958   1.570
47018SOL    HW142828   1.896  10.980   1.535
47018SOL    HW242829   2.016  11.040   1.605
47019SOL     OW42830   1.870   9.607  13.846
47019SOL    HW142831   1.961   9.578  13.846
47019SOL    HW242832   1.872   9.692  13.891
47020SOL     OW42833  12.554  14.027   8.113
47020SOL    HW142834  12.485  14.034   8.047
47020SOL    HW242835  12.547  13.938   8.145
47021SOL     OW42836   6.059   9.793   4.262
47021SOL    HW142837   5.992   9.778   4.328
47021SOL    HW242838   6.097   9.706   4.246
47022SOL     OW42839   3.716  10.777  13.905
47022SOL    HW142840   3.713  10.682  13.897
47022SOL    HW242841   3.789  10.795  13.964
47023SOL     OW42842   9.218  10.929  12.471
47023SOL    HW142843   9.140  10.953  12.420
47023SOL    HW242844   9.184  10.876  12.543
47024SOL     OW42845  10.520   3.642   1.683
47024SOL    HW142846  10.439   3.679   1.647
47024SOL    HW242847  10.491   3.567   1.734
47025SOL     OW42848  14.699  13.173   8.190
47025SOL    HW142849  14.659  13.108   8.248
47025SOL    HW242850  14.629  13.199   8.131
47026SOL     OW42851   2.174  13.645   9.059
47026SOL    HW142852   2.252  13.687   9.097
47026SOL    HW242853   2.192  13.551   9.066
47027SOL     OW42854   6.057   2.563   9.289
47027SOL    HW142855   6.137   2.512   9.306
47027SOL    HW242856   6.082   2.654   9.305
47028SOL     OW42857   1.635  14.840  11.108
47028SOL    HW142858   1.700  14.771  11.115
47028SOL    HW242859   1.643  14.872  11.019
47029SOL     OW42860   0.140  14.818  10.134
47029SOL    HW142861   0.135  14.866  10.051
47029SOL    HW242862   0.129   0.004  10.201
47030SOL     OW42863   1.537   0.926   0.303
47030SOL    HW142864   1.607   0.989   0.316
47030SOL    HW242865   1.493   0.921   0.387
47031SOL     OW42866   7.213  13.351   4.162
47031SOL    HW142867   7.231  13.272   4.213
47031SOL    HW242868   7.151  13.321   4.094
47032SOL     OW42869   9.110   0.817   7.380
47032SOL    HW142870   9.067   0.759   7.317
47032SOL    HW242871   9.053   0.893   7.385
47033SOL     OW42872   7.373   4.768  12.623
47033SOL    HW142873   7.323   4.693  12.591
47033SOL    HW242874   7.313   4.842  12.618
47034SOL     OW42875   3.530   8.865   1.288
47034SOL    HW142876   3.572   8.929   1.346
47034SOL    HW242877   3.567   8.781   1.314
47035SOL     OW42878   0.977   1.514  13.142
47035SOL    HW142879   0.972   1.488  13.234
47035SOL    HW242880   1.051   1.465  13.107
47036SOL     OW42881  11.715   9.185   8.633
47036SOL    HW142882  11.620   9.186   8.628
47036SOL    HW242883  11.741   9.276   8.620
47037SOL     OW42884  11.977  10.938   3.239
47037SOL    HW142885  12.037  10.877   3.282
47037SOL    HW242886  11.894  10.927   3.287
47038SOL     OW42887   5.117   3.408   6.426
47038SOL    HW142888   5.062   3.330   6.423
47038SOL    HW242889   5.197   3.382   6.381
47039SOL     OW42890   0.360  10.859  14.876
47039SOL    HW142891   0.366  10.788   0.058
47039SOL    HW242892   0.435  10.915   0.013
47040SOL     OW42893   0.515   8.489   7.440
47040SOL    HW142894   0.545   8.528   7.522
47040SOL    HW242895   0.470   8.408   7.467
47041SOL     OW42896   4.951   8.812   7.522
47041SOL    HW142897   4.898   8.769   7.456
47041SOL    HW242898   5.040   8.811   7.486
47042SOL     OW42899   8.055   1.207   9.333
47042SOL    HW142900   8.057   1.116   9.362
47042SOL    HW242901   7.964   1.222   9.309
47043SOL     OW42902   6.080  11.906   3.898
47043SOL    HW142903   6.145  11.891   3.967
47043SOL    HW242904   6.124  11.879   3.817
47044SOL     OW42905   5.297   1.061  11.258
47044SOL    HW142906   5.266   1.036  11.345
47044SOL    HW242907   5.358   0.992  11.233
47045SOL     OW42908  11.740   3.037   1.390
47045SOL    HW142909  11.797   2.964   1.413
47045SOL    HW242910  11.659   2.996   1.360
47046SOL     OW42911   5.739   2.011   8.926
47046SOL    HW142912   5.794   1.962   8.865
47046SOL    HW242913   5.705   1.945   8.986
47047SOL     OW42914   7.113  14.734   4.177
47047SOL    HW142915   7.021  14.723   4.156
47047SOL    HW242916   7.115  14.754   4.271
47048SOL     OW42917   4.292   4.042   2.627
47048SOL    HW142918   4.339   4.009   2.703
47048SOL    HW242919   4.245   4.119   2.659
47049SOL     OW42920  12.129   5.382  11.285
47049SOL    HW142921  12.073   5.315  11.323
47049SOL    HW242922  12.141   5.446  11.355
47050SOL     OW42923   9.996   3.212   8.442
47050SOL    HW142924   9.903   3.232   8.449
47050SOL    HW242925  10.040   3.297   8.439
47051SOL     OW42926   3.705   4.224  11.048
47051SOL    HW142927   3.702   4.320  11.058
47051SOL    HW242928   3.631   4.193  11.100
47052SOL     OW42929   0.704   2.161  10.465
47052SOL    HW142930   0.684   2.119  10.548
47052SOL    HW242931   0.619   2.187  10.430
47053SOL     OW42932   5.673   8.208   0.789
47053SOL    HW142933   5.599   8.268   0.792
47053SOL    HW242934   5.634   8.121   0.802
47054SOL     OW42935   1.839   0.742   9.973
47054SOL    HW142936   1.799   0.783  10.049
47054SOL    HW242937   1.914   0.694  10.008
47055SOL     OW42938   5.108  10.978  12.610
47055SOL    HW142939   5.114  10.882  12.615
47055SOL    HW242940   5.015  10.994  12.592
47056SOL     OW42941   6.264  12.996  14.433
47056SOL    HW142942   6.214  12.936  14.378
47056SOL    HW242943   6.356  12.977  14.413
47057SOL     OW42944   3.053   3.056  14.427
47057SOL    HW142945   3.141   3.094  14.416
47057SOL    HW242946   2.996   3.132  14.439
47058SOL     OW42947   8.828   0.320   0.565
47058SOL    HW142948   8.766   0.352   0.630
47058SOL    HW242949   8.775   0.310   0.485
47059SOL     OW42950  13.946  13.891  14.565
47059SOL    HW142951  13.938  13.874  14.659
47059SOL    HW242952  14.035  13.924  14.554
47060SOL     OW42953   2.981   0.367  14.205
47060SOL    HW142954   2.997   0.425  14.280
47060SOL    HW242955   2.894   0.393  14.174
47061SOL     OW42956   5.168   7.496   6.542
47061SOL    HW142957   5.213   7.465   6.463
47061SOL    HW242958   5.076   7.500   6.517
47062SOL     OW42959  13.346   2.712   5.177
47062SOL    HW142960  13.274   2.701   5.115
47062SOL    HW242961  13.360   2.625   5.214
47063SOL     OW42962   3.367   9.346   8.522
47063SOL    HW142963   3.413   9.337   8.439
47063SOL    HW242964   3.405   9.279   8.579
47064SOL     OW42965  11.649  10.582   0.248
47064SOL    HW142966  11.587  10.629   0.192
47064SOL    HW242967  11.691  10.518   0.191
47065SOL     OW42968  11.136   8.303  10.547
47065SOL    HW142969  11.041   8.307  10.552
47065SOL    HW242970  11.164   8.286  10.637
47066SOL     OW42971   1.300  11.739   9.656
47066SOL    HW142972   1.327  11.651   9.684
47066SOL    HW242973   1.271  11.727   9.565
47067SOL     OW42974   9.483   7.531   9.712
47067SOL    HW142975   9.484   7.626   9.699
47067SOL    HW242976   9.395   7.512   9.745
47068SOL     OW42977   4.216   4.617   7.461
47068SOL    HW142978   4.300   4.576   7.443
47068SOL    HW242979   4.230   4.710   7.446
47069SOL     OW42980   4.621   0.940   9.055
47069SOL    HW142981   4.681   0.876   9.017
47069SOL    HW242982   4.592   0.901   9.137
47070SOL     OW42983  13.417   9.857   7.137
47070SOL    HW142984  13.346   9.917   7.116
47070SOL    HW242985  13.373   9.778   7.169
47071SOL     OW42986   0.241  10.861  12.947
47071SOL    HW142987   0.202  10.931  13.000
47071SOL    HW242988   0.188  10.860  12.867
47072SOL     OW42989  13.979   8.974   8.821
47072SOL    HW142990  13.930   9.038   8.873
47072SOL    HW242991  13.914   8.906   8.802
47073SOL     OW42992   0.534  12.641   7.370
47073SOL    HW142993   0.462  12.579   7.378
47073SOL    HW242994   0.513  12.694   7.293
47074SOL     OW42995  14.618   7.198   3.594
47074SOL    HW142996  14.572   7.274   3.559
47074SOL    HW242997  14.562   7.123   3.573
47075SOL     OW42998  14.035   8.633   8.529
47075SOL    HW142999  14.025   8.605   8.620
47075SOL    HW243000  14.024   8.553   8.478
47076SOL     OW43001  10.540  13.490   6.600
47076SOL    HW143002  10.546  13.430   6.674
47076SOL    HW243003  10.620  13.543   6.606
47077SOL     OW43004   8.942   1.835  13.024
47077SOL    HW143005   8.898   1.769  13.078
47077SOL    HW243006   8.912   1.918  13.060
47078SOL     OW43007   7.749   1.428   0.172
47078SOL    HW143008   7.699   1.427   0.090
47078SOL    HW243009   7.835   1.394   0.148
47079SOL     OW43010   6.927   2.678   0.310
47079SOL    HW143011   6.994   2.743   0.329
47079SOL    HW243012   6.892   2.652   0.395
47080SOL     OW43013  10.084   2.503   2.431
47080SOL    HW143014  10.078   2.423   2.379
47080SOL    HW243015  10.176   2.530   2.422
47081SOL     OW43016  10.435  13.588  13.345
47081SOL    HW143017  10.405  13.649  13.413
47081SOL    HW243018  10.435  13.640  13.265
47082SOL     OW43019  13.406   5.332   4.953
47082SOL    HW143020  13.341   5.401   4.961
47082SOL    HW243021  13.432   5.333   4.861
47083SOL     OW43022   7.912   4.349  12.456
47083SOL    HW143023   7.937   4.424  12.510
47083SOL    HW243024   7.914   4.274  12.516
47084SOL     OW43025   5.597   3.668   8.740
47084SOL    HW143026   5.582   3.745   8.685
47084SOL    HW243027   5.515   3.655   8.787
47085SOL     OW43028   6.390   8.096   4.042
47085SOL    HW143029   6.442   8.119   4.119
47085SOL    HW243030   6.440   8.027   3.999
47086SOL     OW43031   2.438   4.965  12.092
47086SOL    HW143032   2.421   4.898  12.025
47086SOL    HW243033   2.473   4.916  12.167
47087SOL     OW43034  13.681   1.133   5.161
47087SOL    HW143035  13.633   1.092   5.089
47087SOL    HW243036  13.738   1.197   5.118
47088SOL     OW43037   5.010   4.991  13.770
47088SOL    HW143038   5.088   4.962  13.722
47088SOL    HW243039   4.998   5.082  13.743
47089SOL     OW43040   1.209   4.391   9.498
47089SOL    HW143041   1.202   4.487   9.500
47089SOL    HW243042   1.120   4.360   9.508
47090SOL     OW43043   1.992   5.008  14.644
47090SOL    HW143044   2.054   5.076  14.670
47090SOL    HW243045   1.907   5.052  14.643
47091SOL     OW43046  11.773  12.099   7.879
47091SOL    HW143047  11.799  12.136   7.962
47091SOL    HW243048  11.854  12.093   7.828
47092SOL     OW43049   8.503   0.256  13.218
47092SOL    HW143050   8.522   0.217  13.132
47092SOL    HW243051   8.461   0.339  13.197
47093SOL     OW43052   5.461  13.962  13.709
47093SOL    HW143053   5.417  14.019  13.646
47093SOL    HW243054   5.548  14.000  13.720
47094SOL     OW43055  14.667   4.576  12.002
47094SOL    HW143056  14.747   4.574  11.950
47094SOL    HW243057  14.696   4.572  12.093
47095SOL     OW43058   7.242   7.546  14.304
47095SOL    HW143059   7.307   7.522  14.369
47095SOL    HW243060   7.169   7.486  14.319
47096SOL     OW43061   3.389   6.038   1.663
47096SOL    HW143062   3.373   5.973   1.595
47096SOL    HW243063   3.322   6.020   1.729
47097SOL     OW43064   6.426   9.565   3.484
47097SOL    HW143065   6.415   9.470   3.474
47097SOL    HW243066   6.340   9.600   3.461
47098SOL     OW43067  14.673  12.071   1.810
47098SOL    HW143068  14.622  12.152   1.800
47098SOL    HW243069  14.671  12.053   1.904
47099SOL     OW43070   6.305  11.726   6.154
47099SOL    HW143071   6.297  11.656   6.090
47099SOL    HW243072   6.219  11.730   6.197
47100SOL     OW43073  14.490   2.380   6.180
47100SOL    HW143074  14.422   2.448   6.178
47100SOL    HW243075  14.459   2.314   6.118
47101SOL     OW43076   9.441   4.959   6.685
47101SOL    HW143077   9.375   4.969   6.754
47101SOL    HW243078   9.393   4.920   6.612
47102SOL     OW43079   6.245   1.311  13.528
47102SOL    HW143080   6.253   1.352  13.614
47102SOL    HW243081   6.335   1.292  13.502
47103SOL     OW43082  12.905   2.685   4.927
47103SOL    HW143083  12.885   2.716   4.839
47103SOL    HW243084  12.820   2.657   4.961
47104SOL     OW43085  14.318  12.019   0.184
47104SOL    HW143086  14.272  12.060   0.111
47104SOL    HW243087  14.380  11.959   0.143
47105SOL     OW43088   3.473   8.854   5.917
47105SOL    HW143089   3.387   8.826   5.885
47105SOL    HW243090   3.533   8.784   5.890
47106SOL     OW43091  10.229  12.059   6.921
47106SOL    HW143092  10.292  12.121   6.885
47106SOL    HW243093  10.144  12.092   6.891
47107SOL     OW43094   9.909   8.336  14.817
47107SOL    HW143095   9.940   8.341  14.727
47107SOL    HW243096   9.928   8.246  14.844
47108SOL     OW43097   2.910  11.978   4.213
47108SOL    HW143098   2.849  11.908   4.235
47108SOL    HW243099   2.954  11.999   4.296
47109SOL     OW43100   1.326   7.454   1.103
47109SOL    HW143101   1.386   7.397   1.056
47109SOL    HW243102   1.377   7.533   1.122
47110SOL     OW43103  13.752   8.596   3.931
47110SOL    HW143104  13.765   8.532   3.862
47110SOL    HW243105  13.667   8.637   3.911
47111SOL     OW43106  10.238   8.231   5.590
47111SOL    HW143107  10.276   8.318   5.588
47111SOL    HW243108  10.283   8.183   5.521
47112SOL     OW43109   4.622   2.395  10.322
47112SOL    HW143110   4.647   2.442  10.402
47112SOL    HW243111   4.568   2.458  10.274
47113SOL     OW43112  12.981   1.049   8.229
47113SOL    HW143113  12.983   0.977   8.166
47113SOL    HW243114  12.916   1.110   8.193
47114SOL     OW43115   0.335   0.025   3.477
47114SOL    HW143116   0.275   0.070   3.418
47114SOL    HW243117   0.420   0.030   3.433
47115SOL     OW43118   6.437  13.322  11.012
47115SOL    HW143119   6.494  13.398  11.002
47115SOL    HW243120   6.440  13.278  10.928
47116SOL     OW43121   6.625   9.303   5.317
47116SOL    HW143122   6.560   9.254   5.367
47116SOL    HW243123   6.575   9.348   5.249
47117SOL     OW43124   0.841   7.047   5.842
47117SOL    HW143125   0.810   7.000   5.764
47117SOL    HW243126   0.800   7.001   5.915
47118SOL     OW43127   6.580   6.556  11.310
47118SOL    HW143128   6.662   6.600  11.287
47118SOL    HW243129   6.541   6.534  11.225
47119SOL     OW43130  10.539  13.669   5.325
47119SOL    HW143131  10.506  13.679   5.414
47119SOL    HW243132  10.572  13.580   5.320
47120SOL     OW43133   9.629   6.795  12.483
47120SOL    HW143134   9.661   6.881  12.455
47120SOL    HW243135   9.541   6.789  12.445
47121SOL     OW43136   2.817   1.727  13.805
47121SOL    HW143137   2.769   1.657  13.850
47121SOL    HW243138   2.767   1.806  13.823
47122SOL     OW43139   9.915   0.951   5.045
47122SOL    HW143140  10.003   0.926   5.017
47122SOL    HW243141   9.860   0.933   4.969
47123SOL     OW43142  13.920  14.673  14.499
47123SOL    HW143143  13.968  14.755  14.515
47123SOL    HW243144  13.986  14.615  14.460
47124SOL     OW43145   9.614  14.342   8.642
47124SOL    HW143146   9.683  14.289   8.602
47124SOL    HW243147   9.532  14.299   8.615
47125SOL     OW43148   6.557   7.442   2.591
47125SOL    HW143149   6.593   7.485   2.514
47125SOL    HW243150   6.544   7.513   2.654
47126SOL     OW43151  12.320   2.445   7.497
47126SOL    HW143152  12.229   2.444   7.466
47126SOL    HW243153  12.317   2.401   7.582
47127SOL     OW43154   9.113   7.621   5.233
47127SOL    HW143155   9.195   7.638   5.280
47127SOL    HW243156   9.128   7.657   5.146
47128SOL     OW43157   4.845  11.209   9.105
47128SOL    HW143158   4.907  11.282   9.105
47128SOL    HW243159   4.898  11.131   9.092
47129SOL     OW43160   5.990  11.591   8.835
47129SOL    HW143161   6.053  11.640   8.889
47129SOL    HW243162   5.939  11.541   8.898
47130SOL     OW43163   1.842   7.179  10.130
47130SOL    HW143164   1.799   7.168  10.214
47130SOL    HW243165   1.774   7.160  10.065
47131SOL     OW43166  11.508   1.852   1.394
47131SOL    HW143167  11.533   1.853   1.302
47131SOL    HW243168  11.433   1.792   1.398
47132SOL     OW43169   6.642  14.149  11.176
47132SOL    HW143170   6.730  14.167  11.142
47132SOL    HW243171   6.657  14.120  11.267
47133SOL     OW43172   9.329   5.607   6.057
47133SOL    HW143173   9.365   5.637   6.140
47133SOL    HW243174   9.291   5.521   6.077
47134SOL     OW43175  14.187   5.494   4.260
47134SOL    HW143176  14.193   5.587   4.238
47134SOL    HW243177  14.110   5.464   4.213
47135SOL     OW43178  13.354   9.328  10.048
47135SOL    HW143179  13.323   9.243  10.017
47135SOL    HW243180  13.335   9.388   9.976
47136SOL     OW43181  13.648   8.120  14.201
47136SOL    HW143182  13.665   8.056  14.271
47136SOL    HW243183  13.589   8.183  14.240
47137SOL     OW43184   7.188   6.272  11.287
47137SOL    HW143185   7.117   6.229  11.334
47137SOL    HW243186   7.179   6.365  11.309
47138SOL     OW43187  13.355  12.988  12.329
47138SOL    HW143188  13.305  12.969  12.249
47138SOL    HW243189  13.362  13.083  12.330
47139SOL     OW43190   3.734  11.719   5.466
47139SOL    HW143191   3.771  11.633   5.448
47139SOL    HW243192   3.700  11.712   5.556
47140SOL     OW43193   0.259   2.030   8.059
47140SOL    HW143194   0.218   1.987   8.134
47140SOL    HW243195   0.233   1.977   7.984
47141SOL     OW43196   5.293  10.726   2.100
47141SOL    HW143197   5.234  10.788   2.143
47141SOL    HW243198   5.256  10.640   2.120
47142SOL     OW43199  13.193  12.230   4.231
47142SOL    HW143200  13.165  12.221   4.322
47142SOL    HW243201  13.129  12.179   4.181
47143SOL     OW43202   8.869   5.348   5.406
47143SOL    HW143203   8.793   5.296   5.430
47143SOL    HW243204   8.836   5.438   5.403
47144SOL     OW43205   6.131  11.521   3.887
47144SOL    HW143206   6.109  11.499   3.978
47144SOL    HW243207   6.051  11.504   3.838
47145SOL     OW43208   3.778  10.563   5.163
47145SOL    HW143209   3.828  10.544   5.083
47145SOL    HW243210   3.830  10.628   5.210
47146SOL     OW43211   3.699   6.070   0.848
47146SOL    HW143212   3.627   6.131   0.863
47146SOL    HW243213   3.668   6.014   0.776
47147SOL     OW43214  14.344   9.295  10.461
47147SOL    HW143215  14.424   9.348  10.456
47147SOL    HW243216  14.336   9.257  10.373
47148SOL     OW43217  14.649  10.788   8.663
47148SOL    HW143218  14.579  10.756   8.719
47148SOL    HW243219  14.679  10.711   8.615
47149SOL     OW43220   3.431   8.720  13.070
47149SOL    HW143221   3.436   8.630  13.102
47149SOL    HW243222   3.445   8.774  13.148
47150SOL     OW43223   2.847   5.905   6.736
47150SOL    HW143224   2.796   5.904   6.817
47150SOL    HW243225   2.858   5.812   6.714
47151SOL     OW43226   7.360   7.018   0.839
47151SOL    HW143227   7.411   6.938   0.829
47151SOL    HW243228   7.411   7.072   0.900
47152SOL     OW43229   8.563   5.467   4.635
47152SOL    HW143230   8.493   5.504   4.688
47152SOL    HW243231   8.599   5.396   4.689
47153SOL     OW43232   9.772   8.545   1.700
47153SOL    HW143233   9.737   8.472   1.752
47153SOL    HW243234   9.859   8.516   1.673
47154SOL     OW43235  10.339  12.760   6.586
47154SOL    HW143236  10.394  12.689   6.553
47154SOL    HW243237  10.378  12.784   6.670
47155SOL     OW43238   6.395   4.009  13.802
47155SOL    HW143239   6.429   3.966  13.724
47155SOL    HW243240   6.464   3.999  13.868
47156SOL     OW43241   5.418   3.796  14.381
47156SOL    HW143242   5.340   3.740  14.382
47156SOL    HW243243   5.488   3.740  14.349
47157SOL     OW43244  10.153   8.846  12.152
47157SOL    HW143245  10.068   8.884  12.129
47157SOL    HW243246  10.169   8.876  12.242
47158SOL     OW43247   4.453  11.794  11.525
47158SOL    HW143248   4.532  11.750  11.494
47158SOL    HW243249   4.407  11.728  11.577
47159SOL     OW43250   1.540  14.456   5.676
47159SOL    HW143251   1.632  14.430   5.665
47159SOL    HW243252   1.493  14.406   5.610
47160SOL     OW43253  12.885   3.855   2.807
47160SOL    HW143254  12.819   3.797   2.844
47160SOL    HW243255  12.835   3.931   2.776
47161SOL     OW43256   7.269   6.129   6.238
47161SOL    HW143257   7.320   6.064   6.287
47161SOL    HW243258   7.190   6.142   6.289
47162SOL     OW43259   8.444  13.422   7.296
47162SOL    HW143260   8.389  13.477   7.241
47162SOL    HW243261   8.489  13.363   7.235
47163SOL     OW43262   0.015   7.618  13.315
47163SOL    HW143263   0.075   7.590  13.246
47163SOL    HW243264  14.817   7.566  13.299
47164SOL     OW43265   6.859   0.608   9.449
47164SOL    HW143266   6.845   0.681   9.389
47164SOL    HW243267   6.903   0.647   9.525
47165SOL     OW43268  13.588   6.072  12.698
47165SOL    HW143269  13.628   5.992  12.664
47165SOL    HW243270  13.495   6.064  12.675
47166SOL     OW43271  14.109   6.817   4.042
47166SOL    HW143272  14.080   6.748   3.983
47166SOL    HW243273  14.137   6.888   3.984
47167SOL     OW43274   1.129  14.499   4.100
47167SOL    HW143275   1.179  14.448   4.037
47167SOL    HW243276   1.179  14.495   4.181
47168SOL     OW43277  11.279   0.728  13.424
47168SOL    HW143278  11.351   0.666  13.435
47168SOL    HW243279  11.225   0.690  13.355
47169SOL     OW43280   6.806   7.163   7.709
47169SOL    HW143281   6.879   7.221   7.686
47169SOL    HW243282   6.762   7.147   7.626
47170SOL     OW43283  11.347  12.489   6.318
47170SOL    HW143284  11.434  12.476   6.280
47170SOL    HW243285  11.309  12.402   6.320
47171SOL     OW43286   5.893   8.308   6.276
47171SOL    HW143287   5.851   8.375   6.221
47171SOL    HW243288   5.983   8.303   6.244
47172SOL     OW43289  10.297   9.925   1.848
47172SOL    HW143290  10.311   9.858   1.781
47172SOL    HW243291  10.384   9.943   1.883
47173SOL     OW43292   3.999   0.423  13.426
47173SOL    HW143293   4.014   0.486  13.497
47173SOL    HW243294   4.050   0.458  13.352
47174SOL     OW43295   7.781   8.470   4.920
47174SOL    HW143296   7.692   8.495   4.893
47174SOL    HW243297   7.770   8.433   5.008
47175SOL     OW43298   0.501   1.536   2.166
47175SOL    HW143299   0.572   1.472   2.159
47175SOL    HW243300   0.476   1.534   2.258
47176SOL     OW43301   8.979   4.885   8.168
47176SOL    HW143302   8.996   4.961   8.224
47176SOL    HW243303   9.040   4.895   8.095
47177SOL     OW43304   3.815  12.235   2.629
47177SOL    HW143305   3.898  12.227   2.677
47177SOL    HW243306   3.756  12.176   2.676
47178SOL     OW43307   7.360  10.656  12.398
47178SOL    HW143308   7.341  10.569  12.434
47178SOL    HW243309   7.278  10.704  12.409
47179SOL     OW43310  11.546   9.136   9.216
47179SOL    HW143311  11.487   9.061   9.224
47179SOL    HW243312  11.539   9.182   9.299
47180SOL     OW43313   1.995   7.885   1.649
47180SOL    HW143314   1.970   7.947   1.580
47180SOL    HW243315   1.920   7.825   1.656
47181SOL     OW43316   1.065   4.154  12.211
47181SOL    HW143317   1.002   4.117  12.273
47181SOL    HW243318   1.091   4.238  12.249
47182SOL     OW43319  10.541  14.700   5.558
47182SOL    HW143320  10.474  14.742   5.504
47182SOL    HW243321  10.500  14.691   5.644
47183SOL     OW43322  10.674   0.011   7.295
47183SOL    HW143323  10.718  14.860   7.216
47183SOL    HW243324  10.723   0.090   7.319
47184SOL     OW43325   1.723  10.835   1.682
47184SOL    HW143326   1.685  10.881   1.757
47184SOL    HW243327   1.817  10.835   1.700
47185SOL     OW43328  11.223   6.356   1.617
47185SOL    HW143329  11.169   6.297   1.565
47185SOL    HW243330  11.161   6.412   1.663
47186SOL     OW43331   5.770   0.734  10.389
47186SOL    HW143332   5.692   0.679  10.399
47186SOL    HW243333   5.742   0.820  10.419
47187SOL     OW43334  10.234   0.572   1.643
47187SOL    HW143335  10.189   0.648   1.680
47187SOL    HW243336  10.322   0.603   1.624
47188SOL     OW43337   7.543   5.898   5.052
47188SOL    HW143338   7.603   5.965   5.019
47188SOL    HW243339   7.599   5.837   5.099
47189SOL     OW43340  13.170  10.674  14.119
47189SOL    HW143341  13.206  10.598  14.074
47189SOL    HW243342  13.216  10.749  14.081
47190SOL     OW43343  11.762   7.717   5.073
47190SOL    HW143344  11.760   7.632   5.029
47190SOL    HW243345  11.853   7.728   5.101
47191SOL     OW43346  13.844   3.305   1.396
47191SOL    HW143347  13.757   3.278   1.427
47191SOL    HW243348  13.890   3.223   1.379
47192SOL     OW43349   8.082   9.881  10.747
47192SOL    HW143350   8.035   9.819  10.803
47192SOL    HW243351   8.130   9.827  10.685
47193SOL     OW43352   0.543   4.198   0.749
47193SOL    HW143353   0.520   4.287   0.720
47193SOL    HW243354   0.510   4.141   0.679
47194SOL     OW43355  10.723  11.621   1.938
47194SOL    HW143356  10.764  11.535   1.923
47194SOL    HW243357  10.719  11.629   2.033
47195SOL     OW43358   8.614   1.818   4.726
47195SOL    HW143359   8.617   1.888   4.661
47195SOL    HW243360   8.587   1.740   4.677
47196SOL     OW43361   0.598  14.864  14.246
47196SOL    HW143362   0.665   0.047  14.224
47196SOL    HW243363   0.648  14.786  14.274
47197SOL     OW43364   4.289  13.054   9.427
47197SOL    HW143365   4.217  13.116   9.443
47197SOL    HW243366   4.345  13.099   9.364
47198SOL     OW43367  14.752   6.532   9.527
47198SOL    HW143368  14.749   6.626   9.510
47198SOL    HW243369  14.756   6.493   9.439
47199SOL     OW43370   6.319   6.088   2.167
47199SOL    HW143371   6.264   6.072   2.090
47199SOL    HW243372   6.319   6.004   2.213
47200SOL     OW43373   3.238   7.290   6.515
47200SOL    HW143374   3.288   7.220   6.472
47200SOL    HW243375   3.188   7.331   6.445
47201SOL     OW43376   2.456   7.250   0.333
47201SOL    HW143377   2.474   7.253   0.427
47201SOL    HW243378   2.504   7.326   0.298
47202SOL     OW43379   5.017  10.154  11.692
47202SOL    HW143380   4.952  10.195  11.635
47202SOL    HW243381   5.100  10.194  11.667
47203SOL     OW43382   7.567   7.781   9.527
47203SOL    HW143383   7.641   7.793   9.468
47203SOL    HW243384   7.490   7.806   9.475
47204SOL     OW43385  13.976  10.581  12.089
47204SOL    HW143386  13.957  10.661  12.138
47204SOL    HW243387  13.963  10.605  11.997
47205SOL     OW43388  10.383   3.411   8.336
47205SOL    HW143389  10.338   3.434   8.255
47205SOL    HW243390  10.349   3.473   8.401
47206SOL     OW43391  10.566   4.678   4.038
47206SOL    HW143392  10.472   4.694   4.029
47206SOL    HW243393  10.573   4.586   4.060
47207SOL     OW43394   5.626  14.576  14.629
47207SOL    HW143395   5.717  14.597  14.650
47207SOL    HW243396   5.577  14.654  14.652
47208SOL     OW43397   6.733  11.391  12.903
47208SOL    HW143398   6.686  11.336  12.966
47208SOL    HW243399   6.686  11.378  12.820
47209SOL     OW43400  10.311   6.118  14.458
47209SOL    HW143401  10.255   6.053  14.500
47209SOL    HW243402  10.318   6.189  14.522
47210SOL     OW43403   5.074  10.232   2.339
47210SOL    HW143404   5.003  10.277   2.293
47210SOL    HW243405   5.069  10.267   2.429
47211SOL     OW43406   4.762  13.664  11.464
47211SOL    HW143407   4.679  13.701  11.495
47211SOL    HW243408   4.738  13.577  11.431
47212SOL     OW43409  13.794  14.597  13.692
47212SOL    HW143410  13.755  14.660  13.631
47212SOL    HW243411  13.888  14.612  13.685
47213SOL     OW43412   1.068  13.078  11.976
47213SOL    HW143413   0.993  13.033  11.938
47213SOL    HW243414   1.044  13.171  11.976
47214SOL     OW43415   3.655   4.345  12.830
47214SOL    HW143416   3.715   4.385  12.766
47214SOL    HW243417   3.712   4.318  12.902
47215SOL     OW43418   9.460  13.677   7.330
47215SOL    HW143419   9.382  13.651   7.378
47215SOL    HW243420   9.506  13.595   7.311
47216SOL     OW43421   0.891   2.964  13.857
47216SOL    HW143422   0.956   2.917  13.909
47216SOL    HW243423   0.921   2.953  13.767
47217SOL     OW43424   3.707   0.634   1.066
47217SOL    HW143425   3.668   0.682   0.993
47217SOL    HW243426   3.756   0.700   1.115
47218SOL     OW43427  13.503   4.261   2.732
47218SOL    HW143428  13.512   4.354   2.754
47218SOL    HW243429  13.408   4.245   2.737
47219SOL     OW43430   7.245  10.382   1.579
47219SOL    HW143431   7.283  10.299   1.551
47219SOL    HW243432   7.230  10.431   1.498
47220SOL     OW43433   1.351   7.186  13.286
47220SOL    HW143434   1.273   7.153  13.241
47220SOL    HW243435   1.403   7.109  13.304
47221SOL     OW43436  10.459   6.631   3.117
47221SOL    HW143437  10.421   6.718   3.131
47221SOL    HW243438  10.519   6.618   3.190
47222SOL     OW43439   1.928   3.877  14.643
47222SOL    HW143440   1.980   3.873  14.563
47222SOL    HW243441   1.991   3.896  14.712
47223SOL     OW43442   9.450  11.272   7.006
47223SOL    HW143443   9.387  11.205   6.982
47223SOL    HW243444   9.498  11.235   7.080
47224SOL     OW43445   3.852  10.624   5.928
47224SOL    HW143446   3.936  10.642   5.970
47224SOL    HW243447   3.819  10.710   5.902
47225SOL     OW43448  14.799   5.789   1.283
47225SOL    HW143449  14.786   5.770   1.190
47225SOL    HW243450   0.011   5.772   1.297
47226SOL     OW43451   3.827   0.811   6.281
47226SOL    HW143452   3.743   0.808   6.237
47226SOL    HW243453   3.854   0.719   6.289
47227SOL     OW43454  11.269  13.068   9.266
47227SOL    HW143455  11.203  13.023   9.214
47227SOL    HW243456  11.345  13.011   9.263
47228SOL     OW43457   5.328  10.591   0.949
47228SOL    HW143458   5.307  10.650   0.877
47228SOL    HW243459   5.423  10.596   0.959
47229SOL     OW43460   0.574   2.906   6.142
47229SOL    HW143461   0.648   2.855   6.176
47229SOL    HW243462   0.498   2.869   6.188
47230SOL     OW43463   8.573   1.916   0.927
47230SOL    HW143464   8.652   1.965   0.904
47230SOL    HW243465   8.603   1.825   0.934
47231SOL     OW43466  11.079   9.214   0.447
47231SOL    HW143467  11.076   9.263   0.365
47231SOL    HW243468  11.153   9.251   0.495
47232SOL     OW43469   2.659   9.641  10.662
47232SOL    HW143470   2.597   9.598  10.603
47232SOL    HW243471   2.611   9.653  10.744
47233SOL     OW43472  10.585  14.807  14.274
47233SOL    HW143473  10.546   0.013  14.267
47233SOL    HW243474  10.557  14.762  14.194
47234SOL     OW43475   8.446   1.185   8.092
47234SOL    HW143476   8.531   1.228   8.081
47234SOL    HW243477   8.461   1.095   8.062
47235SOL     OW43478   9.940  14.662  12.210
47235SOL    HW143479   9.914  14.750  12.236
47235SOL    HW243480  10.025  14.672  12.168
47236SOL     OW43481   9.233   6.048   5.457
47236SOL    HW143482   9.155   6.060   5.403
47236SOL    HW243483   9.217   6.103   5.534
47237SOL     OW43484   6.027   5.914  11.694
47237SOL    HW143485   6.088   5.986  11.708
47237SOL    HW243486   6.064   5.841  11.742
47238SOL     OW43487   4.450   1.894   9.632
47238SOL    HW143488   4.496   1.951   9.570
47238SOL    HW243489   4.358   1.917   9.622
47239SOL     OW43490   9.934  14.452   5.274
47239SOL    HW143491   9.981  14.515   5.328
47239SOL    HW243492   9.946  14.368   5.319
47240SOL     OW43493   9.928  13.317   0.800
47240SOL    HW143494  10.004  13.259   0.803
47240SOL    HW243495   9.942  13.379   0.872
47241SOL     OW43496  10.860   4.186   3.711
47241SOL    HW143497  10.768   4.166   3.694
47241SOL    HW243498  10.873   4.159   3.802
47242SOL     OW43499  10.183   4.409  10.244
47242SOL    HW143500  10.197   4.483  10.304
47242SOL    HW243501  10.253   4.347  10.266
47243SOL     OW43502   9.430   3.431   8.621
47243SOL    HW143503   9.485   3.509   8.613
47243SOL    HW243504   9.490   3.363   8.652
47244SOL     OW43505  12.675   9.060   4.685
47244SOL    HW143506  12.616   9.005   4.737
47244SOL    HW243507  12.616   9.119   4.637
47245SOL     OW43508   2.852  10.749   3.321
47245SOL    HW143509   2.880  10.750   3.229
47245SOL    HW243510   2.934  10.743   3.370
47246SOL     OW43511  11.456   8.101   5.849
47246SOL    HW143512  11.541   8.092   5.891
47246SOL    HW243513  11.393   8.077   5.917
47247SOL     OW43514  14.220   7.567  13.796
47247SOL    HW143515  14.152   7.618  13.753
47247SOL    HW243516  14.286   7.632  13.823
47248SOL     OW43517   7.785   1.144  11.600
47248SOL    HW143518   7.743   1.209  11.545
47248SOL    HW243519   7.789   1.065  11.546
47249SOL     OW43520  10.430   9.582   8.036
47249SOL    HW143521  10.422   9.490   8.058
47249SOL    HW243522  10.524   9.600   8.037
47250SOL     OW43523   6.355   9.550   5.803
47250SOL    HW143524   6.434   9.505   5.773
47250SOL    HW243525   6.284   9.488   5.788
47251SOL     OW43526   3.762   7.344   4.186
47251SOL    HW143527   3.739   7.260   4.226
47251SOL    HW243528   3.691   7.362   4.125
47252SOL     OW43529   9.202  12.093   9.066
47252SOL    HW143530   9.141  12.137   9.006
47252SOL    HW243531   9.281  12.078   9.013
47253SOL     OW43532   8.932   9.696   2.835
47253SOL    HW143533   8.975   9.611   2.825
47253SOL    HW243534   8.981   9.740   2.904
47254SOL     OW43535   2.929   1.200   1.002
47254SOL    HW143536   2.861   1.256   0.964
47254SOL    HW243537   2.880   1.138   1.057
47255SOL     OW43538  10.026   6.175   7.157
47255SOL    HW143539   9.932   6.195   7.159
47255SOL    HW243540  10.030   6.080   7.148
47256SOL     OW43541   1.526   2.038   9.650
47256SOL    HW143542   1.586   2.053   9.577
47256SOL    HW243543   1.484   1.954   9.630
47257SOL     OW43544   0.646  11.510   3.936
47257SOL    HW143545   0.733  11.517   3.897
47257SOL    HW243546   0.625  11.598   3.967
47258SOL     OW43547   4.720  11.830   0.408
47258SOL    HW143548   4.757  11.859   0.491
47258SOL    HW243549   4.633  11.797   0.431
47259SOL     OW43550  13.165   6.599   6.598
47259SOL    HW143551  13.152   6.647   6.680
47259SOL    HW243552  13.099   6.636   6.538
47260SOL     OW43553   2.840  12.546  13.077
47260SOL    HW143554   2.893  12.544  12.997
47260SOL    HW243555   2.836  12.639  13.101
47261SOL     OW43556   6.652  12.277  11.561
47261SOL    HW143557   6.727  12.223  11.535
47261SOL    HW243558   6.576  12.230  11.526
47262SOL     OW43559   3.060   3.763  12.071
47262SOL    HW143560   3.000   3.694  12.042
47262SOL    HW243561   3.032   3.841  12.024
47263SOL     OW43562  12.541   7.985   6.315
47263SOL    HW143563  12.581   7.899   6.311
47263SOL    HW243564  12.579   8.033   6.242
47264SOL     OW43565   0.156   0.845  10.278
47264SOL    HW143566   0.161   0.899  10.356
47264SOL    HW243567   0.210   0.769  10.297
47265SOL     OW43568  12.692   7.240   8.581
47265SOL    HW143569  12.634   7.317   8.583
47265SOL    HW243570  12.721   7.229   8.671
47266SOL     OW43571   0.391  11.116   1.723
47266SOL    HW143572   0.436  11.143   1.642
47266SOL    HW243573   0.320  11.178   1.733
47267SOL     OW43574   1.935   2.581   4.003
47267SOL    HW143575   1.911   2.620   4.087
47267SOL    HW243576   1.988   2.648   3.959
47268SOL     OW43577  10.394   2.724  13.194
47268SOL    HW143578  10.395   2.689  13.105
47268SOL    HW243579  10.323   2.788  13.194
47269SOL     OW43580   7.031  11.574  12.194
47269SOL    HW143581   7.115  11.604  12.228
47269SOL    HW243582   6.978  11.654  12.186
47270SOL     OW43583   8.249  13.687   8.339
47270SOL    HW143584   8.160  13.707   8.309
47270SOL    HW243585   8.238  13.661   8.430
47271SOL     OW43586  14.632  13.311   6.637
47271SOL    HW143587  14.551  13.343   6.677
47271SOL    HW243588  14.698  13.375   6.662
47272SOL     OW43589   3.807   4.067   1.005
47272SOL    HW143590   3.890   4.095   1.045
47272SOL    HW243591   3.741   4.125   1.044
47273SOL     OW43592   3.119   9.009  12.810
47273SOL    HW143593   3.027   8.982  12.812
47273SOL    HW243594   3.168   8.928  12.819
47274SOL     OW43595   7.397   1.682   2.044
47274SOL    HW143596   7.441   1.760   2.078
47274SOL    HW243597   7.361   1.710   1.960
47275SOL     OW43598   5.438   7.064  10.890
47275SOL    HW143599   5.429   7.124  10.964
47275SOL    HW243600   5.351   7.027  10.878
47276SOL     OW43601   7.758   4.477   4.200
47276SOL    HW143602   7.837   4.481   4.145
47276SOL    HW243603   7.745   4.567   4.229
47277SOL     OW43604  11.049   6.813  10.233
47277SOL    HW143605  11.001   6.740  10.194
47277SOL    HW243606  11.051   6.880  10.165
47278SOL     OW43607   7.829  12.072   3.786
47278SOL    HW143608   7.864  12.141   3.842
47278SOL    HW243609   7.873  12.086   3.702
47279SOL     OW43610   6.218   3.627  13.869
47279SOL    HW143611   6.273   3.629  13.791
47279SOL    HW243612   6.171   3.711  13.866
47280SOL     OW43613  12.767  10.260   4.734
47280SOL    HW143614  12.760  10.320   4.808
47280SOL    HW243615  12.679  10.261   4.695
47281SOL     OW43616   2.088   0.662  12.733
47281SOL    HW143617   2.119   0.619  12.813
47281SOL    HW243618   2.067   0.591  12.673
47282SOL     OW43619   3.634   6.199   1.305
47282SOL    HW143620   3.574   6.232   1.371
47282SOL    HW243621   3.598   6.114   1.279
47283SOL     OW43622  14.362   6.750   2.057
47283SOL    HW143623  14.267   6.752   2.056
47283SOL    HW243624  14.385   6.714   2.143
47284SOL     OW43625  13.218  13.972   0.781
47284SOL    HW143626  13.179  13.885   0.767
47284SOL    HW243627  13.176  14.005   0.860
47285SOL     OW43628   0.768   8.434   2.277
47285SOL    HW143629   0.734   8.349   2.305
47285SOL    HW243630   0.853   8.414   2.239
47286SOL     OW43631   3.816   4.121  11.763
47286SOL    HW143632   3.752   4.108  11.833
47286SOL    HW243633   3.829   4.034  11.726
47287SOL     OW43634  11.162  10.700   6.954
47287SOL    HW143635  11.181  10.734   7.041
47287SOL    HW243636  11.230  10.739   6.898
47288SOL     OW43637   7.533   6.706   6.764
47288SOL    HW143638   7.522   6.623   6.810
47288SOL    HW243639   7.627   6.723   6.767
47289SOL     OW43640   2.637   7.052   2.283
47289SOL    HW143641   2.707   7.113   2.302
47289SOL    HW243642   2.556   7.102   2.295
47290SOL     OW43643   3.900  12.935  12.237
47290SOL    HW143644   3.855  13.019  12.225
47290SOL    HW243645   3.842  12.885  12.294
47291SOL     OW43646   5.989   6.474  14.310
47291SOL    HW143647   5.999   6.542  14.376
47291SOL    HW243648   6.055   6.495  14.244
47292SOL     OW43649   8.120   3.973   7.512
47292SOL    HW143650   8.111   3.946   7.420
47292SOL    HW243651   8.068   4.053   7.519
47293SOL     OW43652  11.027   5.094   3.085
47293SOL    HW143653  10.968   5.028   3.049
47293SOL    HW243654  11.103   5.093   3.026
47294SOL     OW43655   1.548  13.508  14.189
47294SOL    HW143656   1.590  13.593  14.202
47294SOL    HW243657   1.455  13.526  14.203
47295SOL     OW43658   1.016   9.274  13.794
47295SOL    HW143659   0.988   9.287  13.704
47295SOL    HW243660   0.945   9.226  13.835
47296SOL     OW43661   1.337  13.610   9.454
47296SOL    HW143662   1.357  13.684   9.511
47296SOL    HW243663   1.243  13.594   9.467
47297SOL     OW43664  12.143   9.263   8.632
47297SOL    HW143665  12.192   9.304   8.703
47297SOL    HW243666  12.147   9.169   8.651
47298SOL     OW43667   1.382   1.502   9.876
47298SOL    HW143668   1.415   1.582   9.917
47298SOL    HW243669   1.297   1.527   9.840
47299SOL     OW43670  14.517  12.433  12.824
47299SOL    HW143671  14.428  12.398  12.826
47299SOL    HW243672  14.523  12.478  12.740
47300SOL     OW43673  14.529   5.227   6.723
47300SOL    HW143674  14.494   5.313   6.700
47300SOL    HW243675  14.624   5.242   6.731
47301SOL     OW43676   4.313   0.871  12.614
47301SOL    HW143677   4.249   0.867  12.543
47301SOL    HW243678   4.271   0.827  12.687
47302SOL     OW43679  13.733   6.914   7.978
47302SOL    HW143680  13.734   6.842   8.040
47302SOL    HW243681  13.670   6.976   8.015
47303SOL     OW43682   6.405  10.395   9.023
47303SOL    HW143683   6.486  10.446   9.033
47303SOL    HW243684   6.351  10.447   8.964
47304SOL     OW43685   0.572   7.483   5.629
47304SOL    HW143686   0.546   7.525   5.547
47304SOL    HW243687   0.583   7.391   5.606
47305SOL     OW43688   7.611  14.307  13.927
47305SOL    HW143689   7.658  14.320  14.010
47305SOL    HW243690   7.582  14.395  13.902
47306SOL     OW43691   2.440   4.799   2.167
47306SOL    HW143692   2.500   4.788   2.242
47306SOL    HW243693   2.474   4.739   2.100
47307SOL     OW43694  10.099  11.835   1.060
47307SOL    HW143695  10.099  11.816   1.154
47307SOL    HW243696  10.152  11.766   1.021
47308SOL     OW43697   8.641  13.866  11.741
47308SOL    HW143698   8.571  13.815  11.701
47308SOL    HW243699   8.660  13.820  11.823
47309SOL     OW43700   3.973   4.837   7.365
47309SOL    HW143701   3.958   4.791   7.282
47309SOL    HW243702   4.060   4.875   7.356
47310SOL     OW43703   6.127   6.056   7.621
47310SOL    HW143704   6.050   6.058   7.679
47310SOL    HW243705   6.183   5.988   7.657
47311SOL     OW43706   8.623   9.147   4.150
47311SOL    HW143707   8.644   9.081   4.215
47311SOL    HW243708   8.701   9.202   4.145
47312SOL     OW43709   0.978   8.697   1.285
47312SOL    HW143710   0.982   8.623   1.345
47312SOL    HW243711   1.042   8.760   1.320
47313SOL     OW43712   9.127   6.096   2.058
47313SOL    HW143713   9.176   6.063   1.983
47313SOL    HW243714   9.084   6.175   2.024
47314SOL     OW43715   0.412  14.077   1.488
47314SOL    HW143716   0.325  14.118   1.486
47314SOL    HW243717   0.449  14.105   1.572
47315SOL     OW43718   0.830   0.030   2.349
47315SOL    HW143719   0.790   0.081   2.279
47315SOL    HW243720   0.864  14.833   2.306
47316SOL     OW43721  11.768   7.645   0.027
47316SOL    HW143722  11.702   7.702   0.065
47316SOL    HW243723  11.832   7.705  14.869
47317SOL     OW43724  14.603  13.737   6.097
47317SOL    HW143725  14.508  13.734   6.101
47317SOL    HW243726  14.623  13.743   6.004
47318SOL     OW43727   0.524   5.113   5.689
47318SOL    HW143728   0.528   5.078   5.778
47318SOL    HW243729   0.467   5.190   5.696
47319SOL     OW43730  11.050   9.762   0.079
47319SOL    HW143731  11.012   9.785  14.875
47319SOL    HW243732  11.087   9.844   0.112
47320SOL     OW43733   5.760   3.313  11.880
47320SOL    HW143734   5.734   3.263  11.803
47320SOL    HW243735   5.680   3.318  11.933
47321SOL     OW43736  13.503   1.584  13.237
47321SOL    HW143737  13.539   1.643  13.172
47321SOL    HW243738  13.456   1.517  13.186
47322SOL     OW43739   8.135  11.895  12.251
47322SOL    HW143740   8.138  11.799  12.243
47322SOL    HW243741   8.123  11.926  12.161
47323SOL     OW43742  10.541  11.820   4.165
47323SOL    HW143743  10.469  11.839   4.105
47323SOL    HW243744  10.606  11.775   4.111
47324SOL     OW43745  13.747   7.816  11.382
47324SOL    HW143746  13.685   7.839  11.451
47324SOL    HW243747  13.829   7.857  11.410
47325SOL     OW43748   5.055  11.349  10.335
47325SOL    HW143749   4.984  11.383  10.281
47325SOL    HW243750   5.036  11.256  10.344
47326SOL     OW43751   5.202  14.544   6.501
47326SOL    HW143752   5.258  14.550   6.424
47326SOL    HW243753   5.262  14.546   6.575
47327SOL     OW43754   0.129   9.701   8.148
47327SOL    HW143755   0.065   9.642   8.186
47327SOL    HW243756   0.167   9.748   8.222
47328SOL     OW43757  12.016   6.865  12.278
47328SOL    HW143758  12.088   6.803  12.267
47328SOL    HW243759  11.981   6.878  12.190
47329SOL     OW43760  12.234   5.730   2.416
47329SOL    HW143761  12.146   5.697   2.394
47329SOL    HW243762  12.253   5.691   2.501
47330SOL     OW43763   5.944   2.776   7.100
47330SOL    HW143764   5.973   2.866   7.112
47330SOL    HW243765   5.921   2.745   7.188
47331SOL     OW43766   6.208  13.097   6.836
47331SOL    HW143767   6.159  13.017   6.820
47331SOL    HW243768   6.153  13.147   6.897
47332SOL     OW43769   2.360  13.303   2.466
47332SOL    HW143770   2.408  13.384   2.450
47332SOL    HW243771   2.295  13.326   2.532
47333SOL     OW43772   5.025   4.756   8.095
47333SOL    HW143773   5.078   4.743   8.174
47333SOL    HW243774   4.935   4.762   8.127
47334SOL     OW43775   6.960   5.239  12.655
47334SOL    HW143776   6.867   5.257  12.665
47334SOL    HW243777   6.964   5.148  12.623
47335SOL     OW43778   3.194   9.797   3.676
47335SOL    HW143779   3.178   9.724   3.736
47335SOL    HW243780   3.166   9.874   3.726
47336SOL     OW43781   1.966   7.534   1.376
47336SOL    HW143782   1.929   7.462   1.324
47336SOL    HW243783   2.036   7.493   1.426
47337SOL     OW43784  14.229   4.464   0.429
47337SOL    HW143785  14.193   4.433   0.512
47337SOL    HW243786  14.296   4.400   0.406
47338SOL     OW43787   0.509   3.788  13.549
47338SOL    HW143788   0.438   3.755  13.603
47338SOL    HW243789   0.588   3.752  13.589
47339SOL     OW43790   8.581  10.615   5.643
47339SOL    HW143791   8.669  10.633   5.676
47339SOL    HW243792   8.525  10.678   5.687
47340SOL     OW43793   5.904  10.688   8.612
47340SOL    HW143794   5.829  10.668   8.555
47340SOL    HW243795   5.895  10.628   8.686
47341SOL     OW43796  11.918   5.515  14.860
47341SOL    HW143797  11.965   5.434  14.880
47341SOL    HW243798  11.968   5.584   0.023
47342SOL     OW43799   8.347   0.983  14.673
47342SOL    HW143800   8.271   0.956  14.622
47342SOL    HW243801   8.404   1.027  14.610
47343SOL     OW43802   8.303  11.375   6.806
47343SOL    HW143803   8.227  11.335   6.848
47343SOL    HW243804   8.367  11.385   6.877
47344SOL     OW43805   1.011   1.012  10.151
47344SOL    HW143806   0.967   0.931  10.127
47344SOL    HW243807   1.104   0.989  10.153
47345SOL     OW43808   9.842   9.849   7.409
47345SOL    HW143809   9.879   9.764   7.383
47345SOL    HW243810   9.911   9.912   7.389
47346SOL     OW43811  14.091   6.658   9.385
47346SOL    HW143812  14.175   6.703   9.378
47346SOL    HW243813  14.101   6.580   9.331
47347SOL     OW43814  14.200   4.764  14.359
47347SOL    HW143815  14.148   4.843  14.343
47347SOL    HW243816  14.137   4.692  14.354
47348SOL     OW43817  10.402   2.168   5.702
47348SOL    HW143818  10.326   2.207   5.659
47348SOL    HW243819  10.447   2.242   5.743
47349SOL     OW43820  13.225  11.797  11.730
47349SOL    HW143821  13.265  11.870  11.683
47349SOL    HW243822  13.240  11.817  11.822
47350SOL     OW43823  14.715   6.633   5.022
47350SOL    HW143824  14.650   6.589   4.967
47350SOL    HW243825  14.665   6.664   5.098
47351SOL     OW43826   3.788  10.181  13.337
47351SOL    HW143827   3.718  10.222  13.389
47351SOL    HW243828   3.848  10.144  13.402
47352SOL     OW43829   0.131   2.864  13.261
47352SOL    HW143830   0.093   2.790  13.213
47352SOL    HW243831   0.147   2.830  13.349
47353SOL     OW43832   7.182   7.879   4.847
47353SOL    HW143833   7.114   7.945   4.859
47353SOL    HW243834   7.183   7.862   4.753
47354SOL     OW43835   9.938   2.941   0.488
47354SOL    HW143836   9.965   2.937   0.580
47354SOL    HW243837   9.881   2.866   0.477
47355SOL     OW43838   6.618   1.548   7.104
47355SOL    HW143839   6.680   1.592   7.162
47355SOL    HW243840   6.666   1.535   7.022
47356SOL     OW43841   3.844   2.470  11.358
47356SOL    HW143842   3.781   2.488  11.289
47356SOL    HW243843   3.918   2.429  11.313
47357SOL     OW43844   0.436   7.474   7.699
47357SOL    HW143845   0.521   7.514   7.718
47357SOL    HW243846   0.405   7.445   7.785
47358SOL     OW43847  13.106   6.729   6.856
47358SOL    HW143848  13.073   6.699   6.941
47358SOL    HW243849  13.173   6.793   6.877
47359SOL     OW43850   0.760   1.089   8.733
47359SOL    HW143851   0.718   1.166   8.772
47359SOL    HW243852   0.700   1.017   8.750
47360SOL     OW43853  11.583   9.187   8.946
47360SOL    HW143854  11.673   9.199   8.916
47360SOL    HW243855  11.585   9.208   9.039
47361SOL     OW43856   2.014   6.066   5.046
47361SOL    HW143857   1.939   6.009   5.029
47361SOL    HW243858   2.076   6.010   5.093
47362SOL     OW43859  14.716  11.213   9.606
47362SOL    HW143860  14.678  11.125   9.600
47362SOL    HW243861  14.642  11.272   9.597
47363SOL     OW43862  11.314  13.182   4.618
47363SOL    HW143863  11.307  13.120   4.545
47363SOL    HW243864  11.306  13.268   4.577
47364SOL     OW43865  10.217   9.975   2.253
47364SOL    HW143866  10.274  10.032   2.304
47364SOL    HW243867  10.271   9.898   2.234
47365SOL     OW43868   7.678   1.878   2.685
47365SOL    HW143869   7.717   1.792   2.697
47365SOL    HW243870   7.651   1.905   2.772
47366SOL     OW43871   3.302  11.263  11.874
47366SOL    HW143872   3.330  11.286  11.785
47366SOL    HW243873   3.374  11.294  11.930
47367SOL     OW43874  11.009   2.812  10.207
47367SOL    HW143875  11.015   2.737  10.266
47367SOL    HW243876  10.942   2.787  10.144
47368SOL     OW43877   1.057  14.428   1.326
47368SOL    HW143878   1.108  14.499   1.285
47368SOL    HW243879   0.970  14.436   1.287
47369SOL     OW43880   3.026  11.623   7.805
47369SOL    HW143881   2.973  11.697   7.776
47369SOL    HW243882   3.077  11.598   7.727
47370SOL     OW43883   5.698  12.668   3.202
47370SOL    HW143884   5.744  12.739   3.248
47370SOL    HW243885   5.760  12.640   3.135
47371SOL     OW43886  12.532   7.875   6.017
47371SOL    HW143887  12.474   7.815   6.064
47371SOL    HW243888  12.482   7.899   5.939
47372SOL     OW43889   8.254   0.680   9.596
47372SOL    HW143890   8.317   0.717   9.658
47372SOL    HW243891   8.178   0.737   9.601
47373SOL     OW43892   2.402   4.106   8.773
47373SOL    HW143893   2.345   4.164   8.823
47373SOL    HW243894   2.342   4.043   8.733
47374SOL     OW43895   4.812   4.022   1.893
47374SOL    HW143896   4.873   3.990   1.959
47374SOL    HW243897   4.740   4.059   1.943
47375SOL     OW43898  10.739   9.688   8.347
47375SOL    HW143899  10.701   9.603   8.328
47375SOL    HW243900  10.672   9.751   8.321
47376SOL     OW43901   3.904   5.447   5.542
47376SOL    HW143902   3.841   5.399   5.488
47376SOL    HW243903   3.988   5.436   5.496
47377SOL     OW43904   4.729   9.883   6.793
47377SOL    HW143905   4.821   9.863   6.810
47377SOL    HW243906   4.720   9.975   6.819
47378SOL     OW43907  14.201  13.276   4.153
47378SOL    HW143908  14.133  13.251   4.090
47378SOL    HW243909  14.256  13.339   4.106
47379SOL     OW43910   0.424  13.622   3.044
47379SOL    HW143911   0.368  13.676   2.989
47379SOL    HW243912   0.513  13.651   3.023
47380SOL     OW43913  13.308   5.613   5.338
47380SOL    HW143914  13.312   5.558   5.416
47380SOL    HW243915  13.388   5.664   5.340
47381SOL     OW43916   6.041   9.633   2.805
47381SOL    HW143917   6.117   9.575   2.809
47381SOL    HW243918   6.078   9.721   2.804
47382SOL     OW43919  11.963   8.212  13.769
47382SOL    HW143920  11.971   8.118  13.786
47382SOL    HW243921  11.904   8.217  13.694
47383SOL     OW43922   3.841   8.748   7.165
47383SOL    HW143923   3.776   8.764   7.096
47383SOL    HW243924   3.904   8.688   7.125
47384SOL     OW43925  14.175  12.771  12.593
47384SOL    HW143926  14.150  12.836  12.658
47384SOL    HW243927  14.132  12.800  12.512
47385SOL     OW43928   8.015   1.378   0.681
47385SOL    HW143929   7.961   1.326   0.622
47385SOL    HW243930   8.102   1.378   0.641
47386SOL     OW43931   8.371  11.814   4.634
47386SOL    HW143932   8.280  11.836   4.650
47386SOL    HW243933   8.372  11.774   4.547
47387SOL     OW43934  13.787   3.564   8.303
47387SOL    HW143935  13.802   3.634   8.241
47387SOL    HW243936  13.865   3.509   8.297
47388SOL     OW43937   6.563   4.965   1.400
47388SOL    HW143938   6.470   4.975   1.380
47388SOL    HW243939   6.566   4.898   1.468
47389SOL     OW43940   8.016   5.412   1.432
47389SOL    HW143941   8.082   5.369   1.378
47389SOL    HW243942   7.938   5.357   1.422
47390SOL     OW43943  12.851   2.816   9.378
47390SOL    HW143944  12.873   2.801   9.286
47390SOL    HW243945  12.931   2.794   9.425
47391SOL     OW43946   6.716   6.901   6.437
47391SOL    HW143947   6.662   6.976   6.413
47391SOL    HW243948   6.768   6.932   6.511
47392SOL     OW43949  10.539  11.982   1.063
47392SOL    HW143950  10.564  12.033   0.986
47392SOL    HW243951  10.566  12.036   1.137
47393SOL     OW43952   7.544   0.341   3.328
47393SOL    HW143953   7.498   0.414   3.370
47393SOL    HW243954   7.511   0.340   3.239
47394SOL     OW43955   0.381   8.807  14.774
47394SOL    HW143956   0.347   8.897  14.775
47394SOL    HW243957   0.451   8.808  14.839
47395SOL     OW43958  14.550  10.585   1.073
47395SOL    HW143959  14.588  10.558   0.990
47395SOL    HW243960  14.584  10.673   1.088
47396SOL     OW43961   5.194   3.784  10.824
47396SOL    HW143962   5.186   3.695  10.789
47396SOL    HW243963   5.140   3.783  10.903
47397SOL     OW43964   9.192   3.947   8.246
47397SOL    HW143965   9.212   4.041   8.240
47397SOL    HW243966   9.277   3.905   8.238
47398SOL     OW43967   9.280  12.047   4.135
47398SOL    HW143968   9.250  12.008   4.217
47398SOL    HW243969   9.347  11.986   4.102
47399SOL     OW43970   8.355  11.271   7.440
47399SOL    HW143971   8.349  11.183   7.479
47399SOL    HW243972   8.269  11.286   7.402
47400SOL     OW43973   6.945   7.692  12.523
47400SOL    HW143974   6.987   7.712  12.607
47400SOL    HW243975   6.887   7.767  12.507
47401SOL     OW43976   2.539   9.940   7.399
47401SOL    HW143977   2.564   9.982   7.481
47401SOL    HW243978   2.617   9.890   7.374
47402SOL     OW43979   8.662   8.535  14.632
47402SOL    HW143980   8.633   8.482  14.558
47402SOL    HW243981   8.581   8.574  14.666
47403SOL     OW43982   4.191  13.525  13.025
47403SOL    HW143983   4.095  13.528  13.017
47403SOL    HW243984   4.220  13.482  12.944
47404SOL     OW43985   5.940   5.330   0.033
47404SOL    HW143986   5.871   5.396   0.029
47404SOL    HW243987   5.975   5.327  14.826
47405SOL     OW43988   8.393   6.329  14.580
47405SOL    HW143989   8.366   6.249  14.624
47405SOL    HW243990   8.488   6.321  14.572
47406SOL     OW43991  13.042  12.885   0.645
47406SOL    HW143992  12.963  12.832   0.639
47406SOL    HW243993  13.082  12.879   0.559
47407SOL     OW43994   1.767   0.280   0.092
47407SOL    HW143995   1.798   0.258   0.003
47407SOL    HW243996   1.672   0.270   0.087
47408SOL     OW43997   1.398  10.358   0.299
47408SOL    HW143998   1.341  10.354   0.376
47408SOL    HW243999   1.444  10.441   0.307
47409SOL     OW44000  14.292   6.364   9.046
47409SOL    HW144001  14.331   6.366   8.959
47409SOL    HW244002  14.234   6.287   9.044
47410SOL     OW44003  12.931   1.416   8.993
47410SOL    HW144004  12.856   1.462   8.956
47410SOL    HW244005  12.990   1.485   9.023
47411SOL     OW44006   8.515   1.497   5.285
47411SOL    HW144007   8.527   1.535   5.372
47411SOL    HW244008   8.602   1.497   5.246
47412SOL     OW44009  14.631   0.966  12.004
47412SOL    HW144010  14.613   0.997  12.093
47412SOL    HW244011  14.726   0.977  11.994
47413SOL     OW44012   4.035  11.825  11.379
47413SOL    HW144013   4.059  11.733  11.392
47413SOL    HW244014   4.046  11.839  11.285
47414SOL     OW44015   4.940   0.257   8.834
47414SOL    HW144016   5.007   0.233   8.897
47414SOL    HW244017   4.988   0.268   8.752
47415SOL     OW44018   9.356  12.315  14.726
47415SOL    HW144019   9.433  12.350  14.681
47415SOL    HW244020   9.391  12.248  14.785
47416SOL     OW44021   7.725   3.256   5.804
47416SOL    HW144022   7.704   3.166   5.831
47416SOL    HW244023   7.818   3.252   5.782
47417SOL     OW44024  13.544  13.891   1.614
47417SOL    HW144025  13.624  13.882   1.666
47417SOL    HW244026  13.572  13.872   1.525
47418SOL     OW44027  11.448  11.683   5.523
47418SOL    HW144028  11.354  11.670   5.534
47418SOL    HW244029  11.456  11.742   5.448
47419SOL     OW44030  13.636   5.357  10.966
47419SOL    HW144031  13.570   5.402  10.912
47419SOL    HW244032  13.683   5.301  10.904
47420SOL     OW44033   5.723  13.029   8.303
47420SOL    HW144034   5.801  13.077   8.329
47420SOL    HW244035   5.750  12.982   8.223
47421SOL     OW44036   2.424   3.988  10.663
47421SOL    HW144037   2.376   3.912  10.694
47421SOL    HW244038   2.387   4.008  10.577
47422SOL     OW44039   0.844   9.570   8.789
47422SOL    HW144040   0.797   9.627   8.728
47422SOL    HW244041   0.784   9.562   8.864
47423SOL     OW44042   3.317  11.017  10.502
47423SOL    HW144043   3.382  11.052  10.563
47423SOL    HW244044   3.341  10.925  10.492
47424SOL     OW44045   8.548  12.452   9.619
47424SOL    HW144046   8.583  12.468   9.531
47424SOL    HW244047   8.606  12.502   9.677
47425SOL     OW44048  11.821  10.240   0.784
47425SOL    HW144049  11.889  10.251   0.718
47425SOL    HW244050  11.773  10.322   0.783
47426SOL     OW44051   8.813  13.829   7.249
47426SOL    HW144052   8.737  13.791   7.203
47426SOL    HW244053   8.787  13.920   7.267
47427SOL     OW44054  11.552  13.128  12.504
47427SOL    HW144055  11.642  13.149  12.527
47427SOL    HW244056  11.514  13.094  12.585
47428SOL     OW44057  10.831   9.736  10.167
47428SOL    HW144058  10.808   9.826  10.143
47428SOL    HW244059  10.925   9.740  10.184
47429SOL     OW44060   7.696  12.493  12.524
47429SOL    HW144061   7.659  12.409  12.498
47429SOL    HW244062   7.623  12.554  12.519
47430SOL     OW44063   5.091  13.100   4.810
47430SOL    HW144064   5.108  13.159   4.883
47430SOL    HW244065   5.055  13.021   4.851
47431SOL     OW44066   3.706   2.510   1.607
47431SOL    HW144067   3.656   2.458   1.670
47431SOL    HW244068   3.643   2.529   1.537
47432SOL     OW44069   7.099   9.282  12.191
47432SOL    HW144070   7.162   9.220  12.154
47432SOL    HW244071   7.134   9.304  12.277
47433SOL     OW44072   5.660   6.926   7.561
47433SOL    HW144073   5.690   6.957   7.646
47433SOL    HW244074   5.567   6.951   7.558
47434SOL     OW44075   6.875  11.450   9.872
47434SOL    HW144076   6.879  11.534   9.827
47434SOL    HW244077   6.847  11.388   9.805
47435SOL     OW44078   3.510   4.525   9.853
47435SOL    HW144079   3.478   4.439   9.880
47435SOL    HW244080   3.433   4.581   9.853
47436SOL     OW44081  13.684   4.328  10.451
47436SOL    HW144082  13.629   4.290  10.520
47436SOL    HW244083  13.762   4.359  10.497
47437SOL     OW44084  13.604   6.312  14.598
47437SOL    HW144085  13.545   6.236  14.594
47437SOL    HW244086  13.619   6.326  14.691
47438SOL     OW44087   5.449   9.540   3.814
47438SOL    HW144088   5.374   9.598   3.802
47438SOL    HW244089   5.525   9.598   3.809
47439SOL     OW44090   9.906  14.068   1.152
47439SOL    HW144091   9.880  14.016   1.228
47439SOL    HW244092   9.910  14.004   1.081
47440SOL     OW44093   9.930   8.103   9.033
47440SOL    HW144094   9.895   8.015   9.045
47440SOL    HW244095   9.929   8.117   8.938
47441SOL     OW44096   0.814   8.252   7.038
47441SOL    HW144097   0.741   8.214   7.087
47441SOL    HW244098   0.812   8.345   7.062
47442SOL     OW44099   3.409  11.600   9.372
47442SOL    HW144100   3.479  11.604   9.437
47442SOL    HW244101   3.332  11.570   9.420
47443SOL     OW44102   9.923   5.840  12.264
47443SOL    HW144103   9.855   5.820  12.328
47443SOL    HW244104   9.932   5.935  12.266
47444SOL     OW44105  11.961   5.376  13.636
47444SOL    HW144106  11.992   5.458  13.673
47444SOL    HW244107  11.893   5.346  13.696
47445SOL     OW44108   1.299  11.945   6.350
47445SOL    HW144109   1.367  11.989   6.401
47445SOL    HW244110   1.308  11.852   6.374
47446SOL     OW44111  14.568   2.696   7.304
47446SOL    HW144112  14.527   2.629   7.249
47446SOL    HW244113  14.548   2.779   7.260
47447SOL     OW44114   1.581   7.895  13.537
47447SOL    HW144115   1.657   7.950  13.559
47447SOL    HW244116   1.506   7.941  13.575
47448SOL     OW44117   4.752   8.722  10.524
47448SOL    HW144118   4.748   8.676  10.440
47448SOL    HW244119   4.845   8.736  10.540
47449SOL     OW44120  12.724  12.193  12.104
47449SOL    HW144121  12.702  12.152  12.020
47449SOL    HW244122  12.653  12.167  12.163
47450SOL     OW44123  12.177   7.824  13.686
47450SOL    HW144124  12.100   7.849  13.737
47450SOL    HW244125  12.197   7.900  13.632
47451SOL     OW44126  11.127   4.854   9.506
47451SOL    HW144127  11.082   4.931   9.541
47451SOL    HW244128  11.056   4.796   9.476
47452SOL     OW44129   5.422   4.267   1.742
47452SOL    HW144130   5.438   4.350   1.698
47452SOL    HW244131   5.360   4.220   1.685
47453SOL     OW44132   3.961   4.954   3.368
47453SOL    HW144133   3.936   4.900   3.293
47453SOL    HW244134   4.038   5.003   3.337
47454SOL     OW44135   1.327  13.050   4.874
47454SOL    HW144136   1.265  13.122   4.882
47454SOL    HW244137   1.333  13.034   4.780
47455SOL     OW44138  14.358   8.735   1.181
47455SOL    HW144139  14.278   8.713   1.133
47455SOL    HW244140  14.334   8.810   1.235
47456SOL     OW44141   1.500   8.586   9.665
47456SOL    HW144142   1.494   8.496   9.632
47456SOL    HW244143   1.478   8.579   9.758
47457SOL     OW44144   9.841   7.806   9.715
47457SOL    HW144145   9.856   7.711   9.707
47457SOL    HW244146   9.914   7.845   9.667
47458SOL     OW44147  14.540  12.147  10.233
47458SOL    HW144148  14.468  12.112  10.286
47458SOL    HW244149  14.614  12.153  10.295
47459SOL     OW44150   7.853   9.454  14.365
47459SOL    HW144151   7.842   9.488  14.277
47459SOL    HW244152   7.903   9.373  14.354
47460SOL     OW44153   5.368   8.862   9.403
47460SOL    HW144154   5.353   8.938   9.458
47460SOL    HW244155   5.315   8.792   9.442
47461SOL     OW44156  12.265   0.640   6.923
47461SOL    HW144157  12.266   0.723   6.970
47461SOL    HW244158  12.188   0.646   6.866
47462SOL     OW44159   7.872   9.965   6.741
47462SOL    HW144160   7.827   9.889   6.704
47462SOL    HW244161   7.840  10.039   6.690
47463SOL     OW44162   3.603   7.242   9.954
47463SOL    HW144163   3.636   7.216  10.039
47463SOL    HW244164   3.637   7.330   9.940
47464SOL     OW44165  11.464   8.532  10.441
47464SOL    HW144166  11.463   8.452  10.389
47464SOL    HW244167  11.378   8.571  10.427
47465SOL     OW44168  12.652  12.122  12.589
47465SOL    HW144169  12.718  12.087  12.649
47465SOL    HW244170  12.594  12.173  12.645
47466SOL     OW44171  11.156   9.529   8.437
47466SOL    HW144172  11.185   9.500   8.523
47466SOL    HW244173  11.236   9.532   8.385
47467SOL     OW44174   7.041   7.137   0.528
47467SOL    HW144175   6.957   7.103   0.558
47467SOL    HW244176   7.020   7.219   0.483
47468SOL     OW44177  10.910  14.161   3.736
47468SOL    HW144178  10.868  14.179   3.651
47468SOL    HW244179  10.890  14.238   3.789
47469SOL     OW44180   9.352   4.678   5.912
47469SOL    HW144181   9.288   4.619   5.951
47469SOL    HW244182   9.300   4.736   5.857
47470SOL     OW44183   1.526  14.812   6.224
47470SOL    HW144184   1.569  14.733   6.191
47470SOL    HW244185   1.451  14.825   6.166
47471SOL     OW44186   2.203   4.494   3.736
47471SOL    HW144187   2.280   4.472   3.684
47471SOL    HW244188   2.234   4.560   3.798
47472SOL     OW44189  10.759   0.031  14.753
47472SOL    HW144190  10.784   0.051  14.843
47472SOL    HW244191  10.689   0.094  14.733
47473SOL     OW44192   5.668   9.911   2.804
47473SOL    HW144193   5.598   9.976   2.803
47473SOL    HW244194   5.643   9.850   2.873
47474SOL     OW44195  12.288   2.537  12.677
47474SOL    HW144196  12.299   2.477  12.603
47474SOL    HW244197  12.321   2.620  12.645
47475SOL     OW44198   2.061  13.527  14.607
47475SOL    HW144199   2.011  13.529  14.688
47475SOL    HW244200   2.017  13.461  14.553
47476SOL     OW44201  10.071   7.850  10.824
47476SOL    HW144202  10.130   7.897  10.765
47476SOL    HW244203  10.106   7.867  10.912
47477SOL     OW44204   4.651   7.806   0.293
47477SOL    HW144205   4.678   7.718   0.265
47477SOL    HW244206   4.733   7.851   0.311
47478SOL     OW44207   2.723   1.035   3.467
47478SOL    HW144208   2.658   1.098   3.500
47478SOL    HW244209   2.733   1.057   3.375
47479SOL     OW44210  10.124   2.017   5.415
47479SOL    HW144211  10.177   2.096   5.408
47479SOL    HW244212  10.188   1.948   5.435
47480SOL     OW44213   8.125  14.454  10.532
47480SOL    HW144214   8.101  14.433  10.623
47480SOL    HW244215   8.174  14.377  10.502
47481SOL     OW44216   4.618  14.085  10.314
47481SOL    HW144217   4.706  14.112  10.290
47481SOL    HW244218   4.608  13.998  10.277
47482SOL     OW44219   1.309  14.501   9.075
47482SOL    HW144220   1.366  14.534   9.006
47482SOL    HW244221   1.349  14.419   9.103
47483SOL     OW44222   4.822   4.146   9.633
47483SOL    HW144223   4.831   4.088   9.557
47483SOL    HW244224   4.877   4.107   9.700
47484SOL     OW44225   5.583   6.710  11.254
47484SOL    HW144226   5.649   6.767  11.293
47484SOL    HW244227   5.596   6.720  11.160
47485SOL     OW44228   8.062  10.203  12.998
47485SOL    HW144229   8.050  10.112  12.970
47485SOL    HW244230   7.974  10.238  13.006
47486SOL     OW44231   1.705  10.964  10.041
47486SOL    HW144232   1.713  10.914  10.122
47486SOL    HW244233   1.632  10.923   9.995
47487SOL     OW44234   8.765  13.665   2.134
47487SOL    HW144235   8.700  13.604   2.099
47487SOL    HW244236   8.815  13.694   2.057
47488SOL     OW44237  13.365  12.368   0.469
47488SOL    HW144238  13.328  12.292   0.424
47488SOL    HW244239  13.291  12.428   0.481
47489SOL     OW44240  10.629   3.757  10.902
47489SOL    HW144241  10.641   3.745  10.996
47489SOL    HW244242  10.629   3.668  10.867
47490SOL     OW44243   5.443   0.558  12.131
47490SOL    HW144244   5.457   0.478  12.183
47490SOL    HW244245   5.372   0.603  12.176
47491SOL     OW44246   2.831  10.178   2.309
47491SOL    HW144247   2.750  10.208   2.267
47491SOL    HW244248   2.869  10.117   2.246
47492SOL     OW44249   3.703   5.312  12.752
47492SOL    HW144250   3.749   5.230  12.733
47492SOL    HW244251   3.711   5.323  12.846
47493SOL     OW44252   5.933   8.517   2.325
47493SOL    HW144253   5.910   8.453   2.258
47493SOL    HW244254   6.028   8.527   2.317
47494SOL     OW44255   6.597  10.710  11.263
47494SOL    HW144256   6.655  10.784  11.278
47494SOL    HW244257   6.620  10.647  11.332
47495SOL     OW44258   9.349   5.742   2.254
47495SOL    HW144259   9.344   5.649   2.233
47495SOL    HW244260   9.399   5.746   2.335
47496SOL     OW44261   6.667  14.159  13.744
47496SOL    HW144262   6.632  14.087  13.795
47496SOL    HW244263   6.669  14.126  13.654
47497SOL     OW44264   4.592  12.544   5.501
47497SOL    HW144265   4.590  12.484   5.575
47497SOL    HW244266   4.580  12.631   5.540
47498SOL     OW44267   7.725   9.094   7.526
47498SOL    HW144268   7.725   9.039   7.447
47498SOL    HW244269   7.817   9.102   7.551
47499SOL     OW44270   3.638   5.032   3.245
47499SOL    HW144271   3.700   4.972   3.203
47499SOL    HW244272   3.609   5.089   3.174
47500SOL     OW44273  10.026  13.863   4.764
47500SOL    HW144274   9.936  13.833   4.774
47500SOL    HW244275  10.070  13.793   4.717
47501SOL     OW44276   7.456   9.562   6.529
47501SOL    HW144277   7.536   9.534   6.484
47501SOL    HW244278   7.433   9.646   6.489
47502SOL     OW44279   0.249  13.105   0.900
47502SOL    HW144280   0.251  13.201   0.896
47502SOL    HW244281   0.310  13.083   0.970
47503SOL     OW44282   5.583   0.371   1.191
47503SOL    HW144283   5.543   0.391   1.106
47503SOL    HW244284   5.637   0.448   1.210
47504SOL     OW44285   5.423  12.404   0.166
47504SOL    HW144286   5.355  12.416   0.100
47504SOL    HW244287   5.389  12.448   0.244
47505SOL     OW44288   0.083  11.071   5.910
47505SOL    HW144289   0.131  10.988   5.909
47505SOL    HW244290   0.130  11.127   5.848
47506SOL     OW44291   1.181   8.606   9.350
47506SOL    HW144292   1.244   8.609   9.421
47506SOL    HW244293   1.220   8.658   9.280
47507SOL     OW44294   2.871   5.141  10.035
47507SOL    HW144295   2.928   5.189  10.096
47507SOL    HW244296   2.928   5.122   9.961
47508SOL     OW44297  10.468   9.828   8.278
47508SOL    HW144298  10.455   9.881   8.200
47508SOL    HW244299  10.394   9.851   8.335
47509SOL     OW44300  12.375  10.729   6.837
47509SOL    HW144301  12.332  10.756   6.918
47509SOL    HW244302  12.455  10.782   6.834
47510SOL     OW44303   3.863   3.649   3.607
47510SOL    HW144304   3.792   3.641   3.671
47510SOL    HW244305   3.882   3.558   3.581
47511SOL     OW44306   9.421   0.927   2.231
47511SOL    HW144307   9.485   0.901   2.165
47511SOL    HW244308   9.421   1.023   2.228
47512SOL     OW44309  12.612   8.450   2.708
47512SOL    HW144310  12.646   8.414   2.790
47512SOL    HW244311  12.689   8.456   2.651
47513SOL     OW44312   8.585   4.933   1.815
47513SOL    HW144313   8.521   4.868   1.846
47513SOL    HW244314   8.537   5.016   1.816
47514SOL     OW44315   9.851   6.417   6.725
47514SOL    HW144316   9.771   6.463   6.750
47514SOL    HW244317   9.876   6.456   6.641
47515SOL     OW44318  14.547  13.417  11.929
47515SOL    HW144319  14.542  13.391  11.836
47515SOL    HW244320  14.457  13.410  11.961
47516SOL     OW44321   6.472   1.567   1.889
47516SOL    HW144322   6.525   1.490   1.909
47516SOL    HW244323   6.455   1.560   1.795
47517SOL     OW44324   3.069   0.453   8.879
47517SOL    HW144325   3.122   0.425   8.804
47517SOL    HW244326   3.078   0.382   8.942
47518SOL     OW44327  11.553  11.274   5.710
47518SOL    HW144328  11.576  11.307   5.622
47518SOL    HW244329  11.590  11.340   5.769
47519SOL     OW44330   2.371  11.601  13.943
47519SOL    HW144331   2.279  11.627  13.930
47519SOL    HW244332   2.412  11.679  13.981
47520SOL     OW44333   3.450   2.286   6.285
47520SOL    HW144334   3.504   2.347   6.336
47520SOL    HW244335   3.513   2.237   6.232
47521SOL     OW44336   1.152   0.992   1.159
47521SOL    HW144337   1.181   0.929   1.094
47521SOL    HW244338   1.108   1.060   1.109
47522SOL     OW44339   4.211  13.991   0.005
47522SOL    HW144340   4.250  13.904   0.014
47522SOL    HW244341   4.202  14.021   0.096
47523SOL     OW44342   7.413  13.482   3.373
47523SOL    HW144343   7.391  13.525   3.456
47523SOL    HW244344   7.499  13.442   3.388
47524SOL     OW44345   2.018   4.389   2.385
47524SOL    HW144346   1.982   4.473   2.413
47524SOL    HW244347   2.086   4.369   2.449
47525SOL     OW44348   6.483  11.708   2.506
47525SOL    HW144349   6.450  11.781   2.453
47525SOL    HW244350   6.565  11.684   2.464
47526SOL     OW44351   5.215   0.084  11.515
47526SOL    HW144352   5.271   0.119  11.584
47526SOL    HW244353   5.128   0.082  11.553
47527SOL     OW44354   9.753  12.267   6.912
47527SOL    HW144355   9.716  12.274   7.000
47527SOL    HW244356   9.748  12.356   6.877
47528SOL     OW44357  13.486   6.933  10.827
47528SOL    HW144358  13.532   6.993  10.768
47528SOL    HW244359  13.536   6.937  10.909
47529SOL     OW44360  12.202   3.533   4.891
47529SOL    HW144361  12.247   3.489   4.819
47529SOL    HW244362  12.171   3.615   4.852
47530SOL     OW44363   6.203   8.893   2.761
47530SOL    HW144364   6.111   8.901   2.783
47530SOL    HW244365   6.205   8.885   2.666
47531SOL     OW44366   9.246   2.000   1.895
47531SOL    HW144367   9.293   2.082   1.883
47531SOL    HW244368   9.165   2.012   1.845
47532SOL     OW44369   7.809   6.861   0.192
47532SOL    HW144370   7.885   6.918   0.196
47532SOL    HW244371   7.758   6.893   0.118
47533SOL     OW44372   5.566   8.221   2.788
47533SOL    HW144373   5.562   8.142   2.843
47533SOL    HW244374   5.645   8.266   2.818
47534SOL     OW44375   3.733  13.713   0.533
47534SOL    HW144376   3.781  13.793   0.511
47534SOL    HW244377   3.762  13.649   0.468
47535SOL     OW44378   0.430  12.444  13.464
47535SOL    HW144379   0.498  12.433  13.398
47535SOL    HW244380   0.397  12.355  13.479
47536SOL     OW44381   0.693   0.841   7.677
47536SOL    HW144382   0.611   0.793   7.666
47536SOL    HW244383   0.669   0.933   7.664
47537SOL     OW44384   8.807   6.700  13.504
47537SOL    HW144385   8.825   6.638  13.574
47537SOL    HW244386   8.883   6.758  13.503
47538SOL     OW44387   4.533   5.415  10.443
47538SOL    HW144388   4.529   5.457  10.357
47538SOL    HW244389   4.480   5.471  10.500
47539SOL     OW44390   8.071   6.724   9.530
47539SOL    HW144391   8.142   6.783   9.557
47539SOL    HW244392   8.112   6.664   9.468
47540SOL     OW44393   3.931   1.256   8.260
47540SOL    HW144394   3.865   1.326   8.268
47540SOL    HW244395   4.011   1.295   8.293
47541SOL     OW44396   8.666   6.346   4.627
47541SOL    HW144397   8.618   6.382   4.553
47541SOL    HW244398   8.617   6.374   4.705
47542SOL     OW44399  11.566   6.989   3.958
47542SOL    HW144400  11.621   6.963   3.884
47542SOL    HW244401  11.573   7.084   3.962
47543SOL     OW44402   7.106   1.344   1.275
47543SOL    HW144403   7.048   1.359   1.350
47543SOL    HW244404   7.188   1.388   1.300
47544SOL     OW44405   3.462   9.110   3.008
47544SOL    HW144406   3.534   9.133   3.066
47544SOL    HW244407   3.498   9.045   2.949
47545SOL     OW44408   8.666  14.319   9.093
47545SOL    HW144409   8.725  14.367   9.035
47545SOL    HW244410   8.635  14.246   9.039
47546SOL     OW44411   7.076  13.827   8.739
47546SOL    HW144412   7.147  13.883   8.772
47546SOL    HW244413   7.120  13.763   8.683
47547SOL     OW44414   0.235  11.597   3.265
47547SOL    HW144415   0.254  11.604   3.358
47547SOL    HW244416   0.198  11.682   3.241
47548SOL     OW44417   8.895   8.961   1.146
47548SOL    HW144418   8.950   9.039   1.148
47548SOL    HW244419   8.833   8.972   1.219
47549SOL     OW44420   6.391   5.000   3.688
47549SOL    HW144421   6.429   5.054   3.618
47549SOL    HW244422   6.304   5.036   3.702
47550SOL     OW44423   7.361  12.142   9.751
47550SOL    HW144424   7.382  12.081   9.680
47550SOL    HW244425   7.320  12.216   9.708
47551SOL     OW44426   4.728   4.497  12.144
47551SOL    HW144427   4.759   4.421  12.193
47551SOL    HW244428   4.635   4.501  12.164
47552SOL     OW44429   1.561  13.595  13.898
47552SOL    HW144430   1.644  13.633  13.869
47552SOL    HW244431   1.568  13.502  13.877
47553SOL     OW44432   2.141   8.855   2.951
47553SOL    HW144433   2.232   8.825   2.944
47553SOL    HW244434   2.113   8.828   3.039
47554SOL     OW44435   8.912  11.745   7.442
47554SOL    HW144436   8.929  11.682   7.512
47554SOL    HW244437   8.968  11.820   7.463
47555SOL     OW44438   0.559   3.169  11.100
47555SOL    HW144439   0.597   3.152  11.013
47555SOL    HW244440   0.465   3.175  11.084
47556SOL     OW44441   6.956  12.230   9.080
47556SOL    HW144442   6.901  12.236   9.158
47556SOL    HW244443   6.945  12.315   9.037
47557SOL     OW44444   8.106   0.171   8.100
47557SOL    HW144445   8.011   0.167   8.114
47557SOL    HW244446   8.117   0.225   8.022
47558SOL     OW44447  10.880   6.689   7.540
47558SOL    HW144448  10.928   6.706   7.459
47558SOL    HW244449  10.897   6.766   7.594
47559SOL     OW44450   1.459   6.937   5.049
47559SOL    HW144451   1.370   6.914   5.076
47559SOL    HW244452   1.505   6.854   5.044
47560SOL     OW44453  13.572   0.313  10.688
47560SOL    HW144454  13.510   0.387  10.686
47560SOL    HW244455  13.548   0.260  10.612
47561SOL     OW44456   7.142   3.095   1.500
47561SOL    HW144457   7.207   3.061   1.438
47561SOL    HW244458   7.078   3.139   1.444
47562SOL     OW44459  14.077   1.929  13.323
47562SOL    HW144460  14.039   1.922  13.411
47562SOL    HW244461  14.027   1.867  13.270
47563SOL     OW44462  13.898  14.786   7.540
47563SOL    HW144463  13.919  14.697   7.568
47563SOL    HW244464  13.866  14.776   7.450
47564SOL     OW44465  11.501   2.906  12.919
47564SOL    HW144466  11.542   2.947  12.995
47564SOL    HW244467  11.409   2.898  12.943
47565SOL     OW44468   2.741   8.316   2.816
47565SOL    HW144469   2.785   8.297   2.733
47565SOL    HW244470   2.664   8.366   2.791
47566SOL     OW44471   0.469   1.690   5.083
47566SOL    HW144472   0.472   1.596   5.100
47566SOL    HW244473   0.379   1.715   5.102
47567SOL     OW44474  14.132  12.122  10.440
47567SOL    HW144475  14.044  12.139  10.474
47567SOL    HW244476  14.120  12.116  10.345
47568SOL     OW44477   3.798   7.142  14.205
47568SOL    HW144478   3.762   7.159  14.118
47568SOL    HW244479   3.825   7.228  14.238
47569SOL     OW44480  13.721  13.649   9.222
47569SOL    HW144481  13.815  13.635   9.228
47569SOL    HW244482  13.711  13.741   9.198
47570SOL     OW44483   3.838   2.063   6.486
47570SOL    HW144484   3.846   1.982   6.536
47570SOL    HW244485   3.896   2.050   6.411
47571SOL     OW44486   6.585   8.127  13.278
47571SOL    HW144487   6.651   8.183  13.237
47571SOL    HW244488   6.534   8.092  13.204
47572SOL     OW44489   1.929  11.929  13.558
47572SOL    HW144490   1.980  11.889  13.487
47572SOL    HW244491   1.994  11.972  13.613
47573SOL     OW44492  10.175  10.705   2.202
47573SOL    HW144493  10.192  10.781   2.258
47573SOL    HW244494  10.085  10.680   2.223
47574SOL     OW44495   7.744   5.829   8.501
47574SOL    HW144496   7.760   5.821   8.407
47574SOL    HW244497   7.654   5.797   8.512
47575SOL     OW44498  10.264   4.833   5.039
47575SOL    HW144499  10.326   4.778   5.087
47575SOL    HW244500  10.275   4.920   5.076
47576SOL     OW44501  12.038   8.671   8.066
47576SOL    HW144502  12.020   8.675   8.160
47576SOL    HW244503  12.060   8.579   8.050
47577SOL     OW44504   8.447   9.795   4.010
47577SOL    HW144505   8.461   9.708   3.972
47577SOL    HW244506   8.525   9.845   3.985
47578SOL     OW44507   3.316   3.546   7.047
47578SOL    HW144508   3.312   3.452   7.029
47578SOL    HW244509   3.279   3.556   7.134
47579SOL     OW44510   8.894   8.341   1.438
47579SOL    HW144511   8.818   8.377   1.392
47579SOL    HW244512   8.891   8.247   1.421
47580SOL     OW44513   5.195  12.468   7.772
47580SOL    HW144514   5.182  12.549   7.723
47580SOL    HW244515   5.264  12.488   7.835
47581SOL     OW44516   8.803   7.874  10.395
47581SOL    HW144517   8.771   7.960  10.422
47581SOL    HW244518   8.841   7.888  10.308
47582SOL     OW44519   1.277   3.408  11.666
47582SOL    HW144520   1.217   3.339  11.695
47582SOL    HW244521   1.219   3.475  11.629
47583SOL     OW44522   3.461   0.693   1.696
47583SOL    HW144523   3.544   0.644   1.691
47583SOL    HW244524   3.395   0.626   1.711
47584SOL     OW44525   8.788   9.756   0.899
47584SOL    HW144526   8.724   9.752   0.828
47584SOL    HW244527   8.788   9.848   0.926
47585SOL     OW44528   7.638  10.049  14.711
47585SOL    HW144529   7.699  10.041  14.638
47585SOL    HW244530   7.551  10.053  14.670
47586SOL     OW44531  14.622   7.013  13.591
47586SOL    HW144532  14.677   6.952  13.542
47586SOL    HW244533  14.652   7.006  13.681
47587SOL     OW44534  12.950  11.086   5.054
47587SOL    HW144535  12.897  11.007   5.051
47587SOL    HW244536  13.001  11.083   4.973
47588SOL     OW44537   1.714   0.604   4.197
47588SOL    HW144538   1.727   0.569   4.285
47588SOL    HW244539   1.654   0.678   4.209
47589SOL     OW44540   7.113   1.308   5.273
47589SOL    HW144541   7.142   1.361   5.199
47589SOL    HW244542   7.022   1.333   5.287
47590SOL     OW44543   0.876   3.744  12.624
47590SOL    HW144544   0.935   3.729  12.549
47590SOL    HW244545   0.789   3.746  12.586
47591SOL     OW44546   8.809  14.803   2.185
47591SOL    HW144547   8.790  14.724   2.235
47591SOL    HW244548   8.817  14.774   2.094
47592SOL     OW44549   5.464   0.555   8.336
47592SOL    HW144550   5.549   0.592   8.359
47592SOL    HW244551   5.425   0.621   8.278
47593SOL     OW44552   3.750   7.294   8.610
47593SOL    HW144553   3.832   7.342   8.623
47593SOL    HW244554   3.707   7.297   8.695
47594SOL     OW44555  11.891   6.889   6.014
47594SOL    HW144556  11.971   6.916   6.057
47594SOL    HW244557  11.822   6.943   6.054
47595SOL     OW44558   1.014   5.456  13.570
47595SOL    HW144559   1.031   5.531  13.628
47595SOL    HW244560   1.048   5.380  13.618
47596SOL     OW44561   4.292   2.925  10.277
47596SOL    HW144562   4.377   2.966  10.261
47596SOL    HW244563   4.276   2.938  10.370
47597SOL     OW44564   6.252   4.774   5.265
47597SOL    HW144565   6.322   4.797   5.327
47597SOL    HW244566   6.237   4.855   5.215
47598SOL     OW44567   8.329   7.347   2.863
47598SOL    HW144568   8.359   7.288   2.933
47598SOL    HW244569   8.303   7.288   2.792
47599SOL     OW44570  13.655   8.984   6.197
47599SOL    HW144571  13.623   9.054   6.139
47599SOL    HW244572  13.729   9.024   6.243
47600SOL     OW44573  14.034  12.340   8.651
47600SOL    HW144574  13.986  12.278   8.596
47600SOL    HW244575  14.126  12.319   8.635
47601SOL     OW44576   0.943   2.727   4.875
47601SOL    HW144577   0.964   2.656   4.935
47601SOL    HW244578   0.848   2.730   4.872
47602SOL     OW44579   4.977  13.518  14.182
47602SOL    HW144580   5.062  13.518  14.138
47602SOL    HW244581   4.938  13.433  14.162
47603SOL     OW44582  14.657   9.508   1.991
47603SOL    HW144583  14.700   9.490   1.907
47603SOL    HW244584  14.569   9.471   1.982
47604SOL     OW44585  10.391  11.954   2.852
47604SOL    HW144586  10.394  12.030   2.794
47604SOL    HW244587  10.424  11.987   2.936
47605SOL     OW44588  14.022   8.144   5.447
47605SOL    HW144589  13.960   8.179   5.510
47605SOL    HW244590  14.070   8.221   5.415
47606SOL     OW44591  14.299   7.831   3.365
47606SOL    HW144592  14.337   7.744   3.378
47606SOL    HW244593  14.279   7.833   3.271
47607SOL     OW44594  13.035   9.341   5.296
47607SOL    HW144595  13.006   9.332   5.205
47607SOL    HW244596  13.104   9.276   5.306
47608SOL     OW44597   0.367   1.436  13.678
47608SOL    HW144598   0.371   1.487  13.596
47608SOL    HW244599   0.308   1.364  13.658
47609SOL     OW44600  11.286   2.895   3.268
47609SOL    HW144601  11.293   2.975   3.320
47609SOL    HW244602  11.277   2.926   3.177
47610SOL     OW44603   4.905   4.716   4.678
47610SOL    HW144604   4.924   4.791   4.621
47610SOL    HW244605   4.871   4.649   4.618
47611SOL     OW44606  13.731   3.177   3.129
47611SOL    HW144607  13.810   3.130   3.102
47611SOL    HW244608  13.691   3.122   3.195
47612SOL     OW44609   7.176   9.692   1.755
47612SOL    HW144610   7.146   9.613   1.709
47612SOL    HW244611   7.269   9.699   1.733
47613SOL     OW44612   9.835   9.399   4.721
47613SOL    HW144613   9.903   9.338   4.750
47613SOL    HW244614   9.870   9.437   4.640
47614SOL     OW44615  10.768   0.801   5.552
47614SOL    HW144616  10.775   0.884   5.600
47614SOL    HW244617  10.818   0.739   5.605
47615SOL     OW44618   2.378   4.412   3.258
47615SOL    HW144619   2.288   4.393   3.282
47615SOL    HW244620   2.422   4.429   3.341
47616SOL     OW44621   5.828   1.195   4.062
47616SOL    HW144622   5.767   1.269   4.067
47616SOL    HW244623   5.881   1.203   4.141
47617SOL     OW44624   1.856  10.932   6.403
47617SOL    HW144625   1.894  11.019   6.411
47617SOL    HW244626   1.764  10.943   6.426
47618SOL     OW44627   4.363  12.678   4.832
47618SOL    HW144628   4.272  12.664   4.805
47618SOL    HW244629   4.363  12.657   4.926
47619SOL     OW44630  14.029   3.501   7.553
47619SOL    HW144631  13.957   3.554   7.519
47619SOL    HW244632  14.090   3.565   7.590
47620SOL     OW44633   6.835   5.834   3.621
47620SOL    HW144634   6.810   5.748   3.588
47620SOL    HW244635   6.797   5.839   3.708
47621SOL     OW44636   7.878   2.350  14.257
47621SOL    HW144637   7.800   2.405  14.261
47621SOL    HW244638   7.884   2.325  14.164
47622SOL     OW44639   7.264   1.969   2.396
47622SOL    HW144640   7.353   1.974   2.430
47622SOL    HW244641   7.256   1.880   2.361
47623SOL     OW44642   2.599   3.882   3.533
47623SOL    HW144643   2.547   3.825   3.478
47623SOL    HW244644   2.682   3.835   3.546
47624SOL     OW44645  12.063   7.604  13.206
47624SOL    HW144646  12.021   7.541  13.265
47624SOL    HW244647  12.145   7.626  13.250
47625SOL     OW44648   4.981   0.066   8.376
47625SOL    HW144649   5.053   0.003   8.370
47625SOL    HW244650   4.919   0.038   8.308
47626SOL     OW44651   8.402   5.100   4.121
47626SOL    HW144652   8.470   5.110   4.188
47626SOL    HW244653   8.327   5.064   4.168
47627SOL     OW44654  10.012   5.947   3.004
47627SOL    HW144655  10.047   6.015   3.061
47627SOL    HW244656  10.035   5.974   2.916
47628SOL     OW44657  11.413   4.051   4.418
47628SOL    HW144658  11.321   4.049   4.392
47628SOL    HW244659  11.413   4.091   4.505
47629SOL     OW44660   3.194  12.941   3.315
47629SOL    HW144661   3.105  12.963   3.289
47629SOL    HW244662   3.213  12.999   3.390
47630SOL     OW44663   8.403   5.849  11.010
47630SOL    HW144664   8.324   5.869  10.958
47630SOL    HW244665   8.398   5.755  11.024
47631SOL     OW44666   7.842   6.569   9.497
47631SOL    HW144667   7.912   6.628   9.524
47631SOL    HW244668   7.790   6.556   9.577
47632SOL     OW44669   9.396   1.190   8.307
47632SOL    HW144670   9.456   1.221   8.374
47632SOL    HW244671   9.430   1.104   8.283
47633SOL     OW44672   0.679  10.051   5.934
47633SOL    HW144673   0.736  10.104   5.877
47633SOL    HW244674   0.728  10.045   6.016
47634SOL     OW44675  11.724  14.320   7.785
47634SOL    HW144676  11.752  14.299   7.873
47634SOL    HW244677  11.682  14.406   7.793
47635SOL     OW44678   6.271   1.284   3.162
47635SOL    HW144679   6.183   1.318   3.177
47635SOL    HW244680   6.314   1.351   3.108
47636SOL     OW44681   1.347   3.100  12.551
47636SOL    HW144682   1.315   3.164  12.614
47636SOL    HW244683   1.424   3.062  12.593
47637SOL     OW44684  13.093  14.160   2.106
47637SOL    HW144685  13.024  14.226   2.113
47637SOL    HW244686  13.090  14.114   2.190
47638SOL     OW44687   3.966   2.190   9.043
47638SOL    HW144688   4.043   2.241   9.069
47638SOL    HW244689   3.897   2.256   9.035
47639SOL     OW44690   6.220  11.295  14.626
47639SOL    HW144691   6.215  11.221  14.565
47639SOL    HW244692   6.196  11.258  14.711
47640SOL     OW44693  12.563   5.914   3.737
47640SOL    HW144694  12.574   5.834   3.685
47640SOL    HW244695  12.603   5.894   3.821
47641SOL     OW44696  13.694  14.035  11.940
47641SOL    HW144697  13.749  14.113  11.938
47641SOL    HW244698  13.687  14.009  11.848
47642SOL     OW44699  12.981   3.960   3.893
47642SOL    HW144700  12.954   4.033   3.838
47642SOL    HW244701  13.040   3.909   3.838
47643SOL     OW44702   0.179   2.523   0.580
47643SOL    HW144703   0.122   2.500   0.653
47643SOL    HW244704   0.229   2.599   0.611
47644SOL     OW44705  11.885   9.756  10.387
47644SOL    HW144706  11.794   9.784  10.381
47644SOL    HW244707  11.885   9.666  10.354
47645SOL     OW44708   2.762   1.672  13.479
47645SOL    HW144709   2.768   1.606  13.548
47645SOL    HW244710   2.810   1.747  13.514
47646SOL     OW44711   8.020   0.941   9.981
47646SOL    HW144712   7.995   0.852   9.959
47646SOL    HW244713   8.075   0.969   9.907
47647SOL     OW44714   9.075   7.565  12.320
47647SOL    HW144715   9.025   7.528  12.393
47647SOL    HW244716   9.114   7.645  12.355
47648SOL     OW44717   8.297   2.826   8.432
47648SOL    HW144718   8.308   2.809   8.338
47648SOL    HW244719   8.349   2.905   8.449
47649SOL     OW44720   2.426   6.227   2.003
47649SOL    HW144721   2.361   6.157   1.997
47649SOL    HW244722   2.510   6.183   1.990
47650SOL     OW44723  11.883   6.571   9.043
47650SOL    HW144724  11.959   6.608   9.088
47650SOL    HW244725  11.844   6.512   9.108
47651SOL     OW44726   8.493  10.338   7.338
47651SOL    HW144727   8.465  10.259   7.384
47651SOL    HW244728   8.412  10.383   7.317
47652SOL     OW44729  14.055   8.500  10.150
47652SOL    HW144730  14.088   8.426  10.200
47652SOL    HW244731  14.108   8.575  10.180
47653SOL     OW44732  13.809   6.739   3.757
47653SOL    HW144733  13.810   6.772   3.667
47653SOL    HW244734  13.778   6.813   3.810
47654SOL     OW44735   8.961   0.918   8.611
47654SOL    HW144736   9.050   0.903   8.578
47654SOL    HW244737   8.911   0.944   8.534
47655SOL     OW44738   2.041   8.675   9.378
47655SOL    HW144739   1.957   8.659   9.334
47655SOL    HW244740   2.070   8.588   9.405
47656SOL     OW44741   7.016   5.142  11.697
47656SOL    HW144742   6.983   5.055  11.674
47656SOL    HW244743   7.033   5.184  11.613
47657SOL     OW44744  10.266  13.090   4.933
47657SOL    HW144745  10.332  13.144   4.888
47657SOL    HW244746  10.201  13.153   4.964
47658SOL     OW44747  14.344   0.644   0.211
47658SOL    HW144748  14.314   0.713   0.271
47658SOL    HW244749  14.362   0.570   0.268
47659SOL     OW44750  14.709   9.056   8.861
47659SOL    HW144751  14.631   9.028   8.813
47659SOL    HW244752  14.675   9.102   8.938
47660SOL     OW44753  10.965   4.526   9.841
47660SOL    HW144754  11.021   4.597   9.873
47660SOL    HW244755  10.994   4.448   9.889
47661SOL     OW44756   0.930   0.147  14.576
47661SOL    HW144757   0.852   0.152  14.631
47661SOL    HW244758   0.920   0.065  14.528
47662SOL     OW44759   7.057  10.110   1.347
47662SOL    HW144760   7.067  10.070   1.433
47662SOL    HW244761   6.981  10.168   1.355
47663SOL     OW44762   5.644  13.398  10.265
47663SOL    HW144763   5.550  13.380  10.266
47663SOL    HW244764   5.670  13.401  10.357
47664SOL     OW44765   0.793   1.290   7.391
47664SOL    HW144766   0.878   1.328   7.412
47664SOL    HW244767   0.730   1.347   7.435
47665SOL     OW44768   1.820   8.299   4.778
47665SOL    HW144769   1.769   8.377   4.757
47665SOL    HW244770   1.910   8.323   4.756
47666SOL     OW44771  11.546  14.485  14.687
47666SOL    HW144772  11.623  14.488  14.744
47666SOL    HW244773  11.474  14.462  14.746
47667SOL     OW44774  10.387   9.479  10.826
47667SOL    HW144775  10.472   9.453  10.793
47667SOL    HW244776  10.338   9.506  10.748
47668SOL     OW44777   3.266   2.463  10.137
47668SOL    HW144778   3.240   2.548  10.173
47668SOL    HW244779   3.351   2.445  10.176
47669SOL     OW44780   3.731   7.806   2.689
47669SOL    HW144781   3.655   7.854   2.721
47669SOL    HW244782   3.806   7.851   2.728
47670SOL     OW44783   7.426   9.403   6.220
47670SOL    HW144784   7.493   9.428   6.156
47670SOL    HW244785   7.365   9.477   6.222
47671SOL     OW44786   9.719   1.231   1.832
47671SOL    HW144787   9.705   1.262   1.922
47671SOL    HW244788   9.810   1.203   1.830
47672SOL     OW44789   2.474   6.062  13.356
47672SOL    HW144790   2.454   6.058  13.262
47672SOL    HW244791   2.397   6.103  13.395
47673SOL     OW44792   0.273   8.474  10.833
47673SOL    HW144793   0.229   8.421  10.767
47673SOL    HW244794   0.202   8.506  10.889
47674SOL     OW44795   0.157   6.563   0.394
47674SOL    HW144796   0.188   6.487   0.344
47674SOL    HW244797   0.070   6.537   0.426
47675SOL     OW44798  14.427   5.265   0.905
47675SOL    HW144799  14.499   5.213   0.941
47675SOL    HW244800  14.454   5.356   0.918
47676SOL     OW44801  11.432   2.410  12.303
47676SOL    HW144802  11.403   2.411  12.394
47676SOL    HW244803  11.526   2.392  12.308
47677SOL     OW44804  11.771   9.690  13.592
47677SOL    HW144805  11.769   9.652  13.504
47677SOL    HW244806  11.706   9.639  13.642
47678SOL     OW44807  13.407  14.502   6.563
47678SOL    HW144808  13.396  14.407   6.564
47678SOL    HW244809  13.319  14.535   6.543
47679SOL     OW44810   9.494   7.128   6.647
47679SOL    HW144811   9.479   7.105   6.555
47679SOL    HW244812   9.408   7.125   6.687
47680SOL     OW44813  10.003   3.179  10.712
47680SOL    HW144814  10.012   3.209  10.802
47680SOL    HW244815   9.915   3.141  10.707
47681SOL     OW44816   8.595   1.416   8.614
47681SOL    HW144817   8.541   1.373   8.548
47681SOL    HW244818   8.533   1.454   8.675
47682SOL     OW44819  10.181   4.668   2.701
47682SOL    HW144820  10.102   4.664   2.754
47682SOL    HW244821  10.191   4.579   2.667
47683SOL     OW44822   1.905  10.674  10.017
47683SOL    HW144823   1.931  10.703   9.930
47683SOL    HW244824   1.958  10.596  10.033
47684SOL     OW44825  10.435   8.896  12.912
47684SOL    HW144826  10.409   8.979  12.952
47684SOL    HW244827  10.489   8.854  12.978
47685SOL     OW44828   2.744   1.407   9.825
47685SOL    HW144829   2.746   1.499   9.800
47685SOL    HW244830   2.665   1.398   9.878
47686SOL     OW44831  13.208   8.502   7.426
47686SOL    HW144832  13.163   8.569   7.477
47686SOL    HW244833  13.300   8.510   7.452
47687SOL     OW44834   7.652  10.756   0.598
47687SOL    HW144835   7.598  10.680   0.577
47687SOL    HW244836   7.742  10.722   0.599
47688SOL     OW44837   8.473  14.314   6.144
47688SOL    HW144838   8.389  14.331   6.102
47688SOL    HW244839   8.518  14.254   6.084
47689SOL     OW44840  11.442   1.269  12.220
47689SOL    HW144841  11.366   1.303  12.267
47689SOL    HW244842  11.456   1.182  12.256
47690SOL     OW44843   0.745  10.821  11.245
47690SOL    HW144844   0.779  10.851  11.161
47690SOL    HW244845   0.728  10.727  11.232
47691SOL     OW44846   2.467   1.177   4.112
47691SOL    HW144847   2.551   1.222   4.115
47691SOL    HW244848   2.443   1.177   4.020
47692SOL     OW44849  13.734  12.106  11.652
47692SOL    HW144850  13.817  12.061  11.634
47692SOL    HW244851  13.755  12.199  11.647
47693SOL     OW44852  13.142  10.741   9.929
47693SOL    HW144853  13.208  10.727   9.997
47693SOL    HW244854  13.103  10.826   9.951
47694SOL     OW44855   9.160  12.491   0.818
47694SOL    HW144856   9.089  12.477   0.882
47694SOL    HW244857   9.126  12.455   0.737
47695SOL     OW44858  12.236   2.145  12.034
47695SOL    HW144859  12.303   2.170  11.970
47695SOL    HW244860  12.241   2.050  12.038
47696SOL     OW44861   0.426   0.645   5.965
47696SOL    HW144862   0.456   0.618   5.878
47696SOL    HW244863   0.401   0.564   6.009
47697SOL     OW44864  10.397  12.247   9.490
47697SOL    HW144865  10.358  12.176   9.440
47697SOL    HW244866  10.385  12.325   9.435
47698SOL     OW44867   8.982   9.046   9.690
47698SOL    HW144868   8.991   8.981   9.760
47698SOL    HW244869   9.032   9.121   9.721
47699SOL     OW44870   0.083   5.260  11.262
47699SOL    HW144871   0.138   5.321  11.311
47699SOL    HW244872   0.066   5.304  11.179
47700SOL     OW44873   1.317   0.620   2.287
47700SOL    HW144874   1.411   0.624   2.265
47700SOL    HW244875   1.308   0.682   2.359
47701SOL     OW44876  10.039   7.911   9.541
47701SOL    HW144877  10.065   7.934   9.452
47701SOL    HW244878  10.088   7.970   9.597
47702SOL     OW44879   4.638   6.848   2.995
47702SOL    HW144880   4.599   6.805   2.920
47702SOL    HW244881   4.649   6.939   2.968
47703SOL     OW44882  10.952  12.737   2.321
47703SOL    HW144883  10.910  12.819   2.345
47703SOL    HW244884  11.029  12.732   2.376
47704SOL     OW44885   1.299   7.519   0.423
47704SOL    HW144886   1.291   7.589   0.358
47704SOL    HW244887   1.226   7.534   0.484
47705SOL     OW44888   1.043  11.472  14.377
47705SOL    HW144889   0.962  11.509  14.412
47705SOL    HW244890   1.101  11.548  14.366
47706SOL     OW44891   0.521   7.803  12.669
47706SOL    HW144892   0.505   7.716  12.634
47706SOL    HW244893   0.616   7.805  12.685
47707SOL     OW44894   5.867   8.630   4.262
47707SOL    HW144895   5.909   8.591   4.185
47707SOL    HW244896   5.914   8.592   4.337
47708SOL     OW44897  11.334   2.327   3.933
47708SOL    HW144898  11.246   2.295   3.954
47708SOL    HW244899  11.348   2.400   3.995
47709SOL     OW44900   9.059   8.504   8.393
47709SOL    HW144901   8.991   8.523   8.329
47709SOL    HW244902   9.014   8.452   8.460
47710SOL     OW44903  12.084   7.864   2.372
47710SOL    HW144904  12.172   7.842   2.403
47710SOL    HW244905  12.070   7.808   2.296
47711SOL     OW44906  10.562  14.394  10.658
47711SOL    HW144907  10.644  14.430  10.623
47711SOL    HW244908  10.588  14.346  10.737
47712SOL     OW44909  10.749   3.832   1.258
47712SOL    HW144910  10.818   3.776   1.291
47712SOL    HW244911  10.762   3.916   1.303
47713SOL     OW44912  10.599   5.727  11.249
47713SOL    HW144913  10.689   5.752  11.272
47713SOL    HW244914  10.586   5.643  11.292
47714SOL     OW44915   1.151  14.457  14.215
47714SOL    HW144916   1.149  14.452  14.119
47714SOL    HW244917   1.188  14.543  14.234
47715SOL     OW44918  14.039   9.477   9.825
47715SOL    HW144919  14.082   9.395   9.851
47715SOL    HW244920  14.097   9.546   9.856
47716SOL     OW44921  10.636   9.170   9.490
47716SOL    HW144922  10.573   9.098   9.497
47716SOL    HW244923  10.638   9.209   9.577
47717SOL     OW44924   4.802  13.624   6.929
47717SOL    HW144925   4.779  13.535   6.956
47717SOL    HW244926   4.847  13.613   6.845
47718SOL     OW44927  13.432   5.046  13.455
47718SOL    HW144928  13.457   4.955  13.442
47718SOL    HW244929  13.394   5.048  13.543
47719SOL     OW44930  11.399   3.073   0.726
47719SOL    HW144931  11.393   2.993   0.674
47719SOL    HW244932  11.411   3.143   0.661
47720SOL     OW44933   1.658   2.111  11.891
47720SOL    HW144934   1.681   2.094  11.982
47720SOL    HW244935   1.700   2.040  11.842
47721SOL     OW44936   5.303   4.239   2.663
47721SOL    HW144937   5.349   4.160   2.690
47721SOL    HW244938   5.264   4.273   2.743
47722SOL     OW44939   1.793  13.016   6.703
47722SOL    HW144940   1.849  13.047   6.632
47722SOL    HW244941   1.704  13.035   6.673
47723SOL     OW44942   1.545   8.948   9.604
47723SOL    HW144943   1.559   8.878   9.541
47723SOL    HW244944   1.626   8.998   9.604
47724SOL     OW44945   0.037  14.241  13.403
47724SOL    HW144946   0.094  14.241  13.481
47724SOL    HW244947   0.076  14.176  13.345
47725SOL     OW44948   1.433   9.053  13.200
47725SOL    HW144949   1.450   9.117  13.131
47725SOL    HW244950   1.513   9.054  13.254
47726SOL     OW44951   3.156  12.581  14.037
47726SOL    HW144952   3.065  12.557  14.021
47726SOL    HW244953   3.192  12.600  13.950
47727SOL     OW44954  13.238  13.087  12.986
47727SOL    HW144955  13.234  13.057  12.896
47727SOL    HW244956  13.273  13.176  12.980
47728SOL     OW44957   5.323  14.048   9.060
47728SOL    HW144958   5.310  13.963   9.019
47728SOL    HW244959   5.403  14.038   9.112
47729SOL     OW44960   2.318  14.047   3.438
47729SOL    HW144961   2.337  14.125   3.491
47729SOL    HW244962   2.254  13.999   3.491
47730SOL     OW44963   9.034  14.325   7.089
47730SOL    HW144964   9.122  14.337   7.055
47730SOL    HW244965   9.027  14.390   7.160
47731SOL     OW44966   5.143   6.907   6.301
47731SOL    HW144967   5.209   6.926   6.234
47731SOL    HW244968   5.191   6.911   6.384
47732SOL     OW44969  11.961   3.854   0.668
47732SOL    HW144970  11.908   3.899   0.733
47732SOL    HW244971  11.898   3.810   0.610
47733SOL     OW44972   2.590   9.422   6.196
47733SOL    HW144973   2.681   9.393   6.194
47733SOL    HW244974   2.542   9.354   6.150
47734SOL     OW44975   1.088   1.285   5.081
47734SOL    HW144976   1.072   1.272   5.175
47734SOL    HW244977   1.085   1.197   5.043
47735SOL     OW44978   9.454   1.854   9.407
47735SOL    HW144979   9.379   1.901   9.443
47735SOL    HW244980   9.477   1.903   9.328
47736SOL     OW44981   9.394   9.716  12.478
47736SOL    HW144982   9.330   9.763  12.425
47736SOL    HW244983   9.424   9.644  12.422
47737SOL     OW44984  10.261  10.269  12.683
47737SOL    HW144985  10.281  10.278  12.776
47737SOL    HW244986  10.316  10.335  12.640
47738SOL     OW44987  11.469   3.915   6.187
47738SOL    HW144988  11.458   3.985   6.252
47738SOL    HW244989  11.558   3.927   6.154
47739SOL     OW44990   3.783  11.855  10.815
47739SOL    HW144991   3.704  11.815  10.851
47739SOL    HW244992   3.770  11.853  10.720
47740SOL     OW44993  12.472   9.600   5.413
47740SOL    HW144994  12.556   9.630   5.447
47740SOL    HW244995  12.458   9.515   5.454
47741SOL     OW44996   3.119  10.933  11.608
47741SOL    HW144997   3.120  10.932  11.704
47741SOL    HW244998   3.112  10.840  11.584
47742SOL     OW44999   0.887  10.786   2.572
47742SOL    HW145000   0.952  10.851   2.546
47742SOL    HW245001   0.938  10.709   2.597
47743SOL     OW45002   3.150   0.250   6.040
47743SOL    HW145003   3.202   0.275   6.117
47743SOL    HW245004   3.065   0.290   6.055
47744SOL     OW45005   1.146   3.070   3.355
47744SOL    HW145006   1.136   3.137   3.423
47744SOL    HW245007   1.124   3.116   3.273
47745SOL     OW45008  13.175  13.906  10.946
47745SOL    HW145009  13.249  13.963  10.924
47745SOL    HW245010  13.215  13.829  10.986
47746SOL     OW45011   0.843   5.702   2.434
47746SOL    HW145012   0.820   5.699   2.527
47746SOL    HW245013   0.937   5.685   2.432
47747SOL     OW45014   9.504   8.165   8.814
47747SOL    HW145015   9.535   8.220   8.886
47747SOL    HW245016   9.441   8.105   8.854
47748SOL     OW45017   4.598  12.038   4.623
47748SOL    HW145018   4.645  12.046   4.706
47748SOL    HW245019   4.605  11.946   4.599
47749SOL     OW45020   7.241  13.324   0.115
47749SOL    HW145021   7.247  13.375   0.196
47749SOL    HW245022   7.149  13.298   0.109
47750SOL     OW45023  10.282   6.580   3.386
47750SOL    HW145024  10.330   6.660   3.408
47750SOL    HW245025  10.207   6.610   3.336
47751SOL     OW45026  12.697   2.571   2.902
47751SOL    HW145027  12.729   2.611   2.821
47751SOL    HW245028  12.776   2.543   2.948
47752SOL     OW45029   1.892   5.625   5.914
47752SOL    HW145030   1.949   5.649   5.988
47752SOL    HW245031   1.935   5.663   5.837
47753SOL     OW45032   6.601   1.226   0.453
47753SOL    HW145033   6.517   1.260   0.484
47753SOL    HW245034   6.627   1.285   0.383
47754SOL     OW45035   4.411   1.612  13.143
47754SOL    HW145036   4.450   1.636  13.227
47754SOL    HW245037   4.370   1.526  13.159
47755SOL     OW45038   6.237   1.790   5.813
47755SOL    HW145039   6.243   1.774   5.908
47755SOL    HW245040   6.208   1.707   5.776
47756SOL     OW45041   0.586   9.174   7.988
47756SOL    HW145042   0.548   9.200   8.071
47756SOL    HW245043   0.511   9.149   7.934
47757SOL     OW45044   3.847  13.202   0.687
47757SOL    HW145045   3.854  13.214   0.593
47757SOL    HW245046   3.799  13.120   0.698
47758SOL     OW45047   6.367  12.965   5.108
47758SOL    HW145048   6.302  13.036   5.111
47758SOL    HW245049   6.451  13.009   5.125
47759SOL     OW45050  10.860   0.317  12.851
47759SOL    HW145051  10.830   0.238  12.895
47759SOL    HW245052  10.923   0.286  12.785
47760SOL     OW45053   8.927  13.211   5.652
47760SOL    HW145054   8.891  13.145   5.711
47760SOL    HW245055   8.975  13.162   5.587
47761SOL     OW45056   6.963  13.551  14.345
47761SOL    HW145057   7.003  13.504  14.418
47761SOL    HW245058   6.926  13.483  14.290
47762SOL     OW45059  10.362   2.512   4.438
47762SOL    HW145060  10.267   2.514   4.425
47762SOL    HW245061  10.374   2.539   4.529
47763SOL     OW45062   5.222   1.234   9.209
47763SOL    HW145063   5.241   1.260   9.118
47763SOL    HW245064   5.206   1.140   9.204
47764SOL     OW45065  10.476   1.808   6.738
47764SOL    HW145066  10.413   1.814   6.666
47764SOL    HW245067  10.544   1.749   6.706
47765SOL     OW45068   7.909   3.290   9.833
47765SOL    HW145069   7.960   3.256   9.759
47765SOL    HW245070   7.914   3.385   9.824
47766SOL     OW45071   9.695  13.605   9.043
47766SOL    HW145072   9.751  13.679   9.019
47766SOL    HW245073   9.664  13.570   8.960
47767SOL     OW45074  11.923   1.701   1.934
47767SOL    HW145075  11.855   1.670   1.874
47767SOL    HW245076  11.991   1.737   1.877
47768SOL     OW45077   9.228   6.014   7.473
47768SOL    HW145078   9.277   5.932   7.463
47768SOL    HW245079   9.218   6.025   7.568
47769SOL     OW45080   4.081   7.935   3.175
47769SOL    HW145081   4.126   7.895   3.100
47769SOL    HW245082   4.003   7.976   3.136
47770SOL     OW45083   4.777   5.873   6.151
47770SOL    HW145084   4.860   5.914   6.127
47770SOL    HW245085   4.783   5.856   6.244
47771SOL     OW45086   7.562   7.270  14.513
47771SOL    HW145087   7.632   7.208  14.492
47771SOL    HW245088   7.600   7.329  14.577
47772SOL     OW45089  12.662  10.068   8.020
47772SOL    HW145090  12.683  10.157   8.048
47772SOL    HW245091  12.568  10.070   8.006
47773SOL     OW45092  13.925   3.674   5.700
47773SOL    HW145093  13.995   3.610   5.687
47773SOL    HW245094  13.885   3.684   5.613
47774SOL     OW45095  14.776  12.791   5.722
47774SOL    HW145096  14.727  12.710   5.738
47774SOL    HW245097  14.745  12.851   5.789
47775SOL     OW45098   3.301   8.715   3.052
47775SOL    HW145099   3.386   8.744   3.084
47775SOL    HW245100   3.305   8.728   2.957
47776SOL     OW45101   9.436   2.148   8.978
47776SOL    HW145102   9.380   2.221   9.004
47776SOL    HW245103   9.377   2.085   8.939
47777SOL     OW45104   3.186  11.332   1.832
47777SOL    HW145105   3.271  11.294   1.811
47777SOL    HW245106   3.206  11.405   1.890
47778SOL     OW45107   3.454  13.558  12.075
47778SOL    HW145108   3.468  13.619  12.147
47778SOL    HW245109   3.540  13.550  12.034
47779SOL     OW45110  12.283  13.918   1.732
47779SOL    HW145111  12.330  13.835   1.722
47779SOL    HW245112  12.292  13.962   1.647
47780SOL     OW45113  12.881  11.932   0.876
47780SOL    HW145114  12.937  11.929   0.798
47780SOL    HW245115  12.942  11.945   0.949
47781SOL     OW45116  14.127   7.167   1.523
47781SOL    HW145117  14.078   7.248   1.533
47781SOL    HW245118  14.217   7.189   1.547
47782SOL     OW45119   7.995   4.028   0.451
47782SOL    HW145120   7.915   4.076   0.474
47782SOL    HW245121   8.011   3.971   0.526
47783SOL     OW45122   3.239   9.923  10.287
47783SOL    HW145123   3.218   9.846  10.339
47783SOL    HW245124   3.266   9.989  10.351
47784SOL     OW45125  13.951  10.763  14.690
47784SOL    HW145126  13.864  10.756  14.730
47784SOL    HW245127  13.939  10.727  14.602
47785SOL     OW45128   0.037   0.081  12.601
47785SOL    HW145129   0.019  14.869  12.613
47785SOL    HW245130  14.875   0.124  12.674
47786SOL     OW45131   6.672   6.484   7.151
47786SOL    HW145132   6.687   6.464   7.059
47786SOL    HW245133   6.740   6.547   7.174
47787SOL     OW45134   8.416   5.187  14.118
47787SOL    HW145135   8.432   5.191  14.023
47787SOL    HW245136   8.472   5.256  14.154
47788SOL     OW45137   4.251   9.040   0.014
47788SOL    HW145138   4.203   8.970  14.852
47788SOL    HW245139   4.287   9.093  14.824
47789SOL     OW45140   9.310   5.136  13.401
47789SOL    HW145141   9.290   5.134  13.307
47789SOL    HW245142   9.378   5.203  13.409
47790SOL     OW45143  12.676  12.119  14.417
47790SOL    HW145144  12.742  12.155  14.476
47790SOL    HW245145  12.680  12.024  14.432
47791SOL     OW45146  11.883   4.306   1.443
47791SOL    HW145147  11.789   4.294   1.457
47791SOL    HW245148  11.921   4.219   1.454
47792SOL     OW45149   5.308   9.291   7.955
47792SOL    HW145150   5.334   9.360   8.016
47792SOL    HW245151   5.360   9.307   7.876
47793SOL     OW45152  10.592  12.598  12.989
47793SOL    HW145153  10.645  12.651  13.049
47793SOL    HW245154  10.640  12.600  12.907
47794SOL     OW45155   8.048   9.121   4.446
47794SOL    HW145156   8.061   9.033   4.480
47794SOL    HW245157   8.080   9.179   4.515
47795SOL     OW45158   9.196   3.723   1.479
47795SOL    HW145159   9.113   3.768   1.497
47795SOL    HW245160   9.261   3.771   1.532
47796SOL     OW45161   6.956   7.318   0.145
47796SOL    HW145162   6.878   7.336   0.093
47796SOL    HW245163   6.926   7.261   0.216
47797SOL     OW45164  10.570  13.444  10.407
47797SOL    HW145165  10.511  13.500  10.457
47797SOL    HW245166  10.550  13.462  10.316
47798SOL     OW45167  11.581   8.387   2.723
47798SOL    HW145168  11.563   8.334   2.801
47798SOL    HW245169  11.675   8.376   2.708
47799SOL     OW45170   0.275  13.166   8.122
47799SOL    HW145171   0.324  13.127   8.049
47799SOL    HW245172   0.201  13.107   8.135
47800SOL     OW45173  10.171  13.578  13.022
47800SOL    HW145174  10.120  13.498  13.035
47800SOL    HW245175  10.259  13.556  13.055
47801SOL     OW45176   4.620   6.488   2.785
47801SOL    HW145177   4.686   6.505   2.853
47801SOL    HW245178   4.613   6.393   2.782
47802SOL     OW45179   1.627   9.437   7.853
47802SOL    HW145180   1.593   9.508   7.799
47802SOL    HW245181   1.679   9.384   7.792
47803SOL     OW45182   1.336   5.423  14.648
47803SOL    HW145183   1.386   5.453  14.572
47803SOL    HW245184   1.386   5.451  14.724
47804SOL     OW45185   0.680  14.740  10.913
47804SOL    HW145186   0.720  14.683  10.979
47804SOL    HW245187   0.690  14.828  10.949
47805SOL     OW45188  12.826   0.675   2.993
47805SOL    HW145189  12.872   0.592   3.008
47805SOL    HW245190  12.759   0.654   2.927
47806SOL     OW45191  11.377   9.559  14.827
47806SOL    HW145192  11.300   9.615  14.822
47806SOL    HW245193  11.449   9.619  14.844
47807SOL     OW45194   8.416   9.091   0.812
47807SOL    HW145195   8.447   9.142   0.737
47807SOL    HW245196   8.374   9.014   0.773
47808SOL     OW45197  14.663  10.553   2.517
47808SOL    HW145198  14.693  10.632   2.561
47808SOL    HW245199  14.640  10.582   2.428
47809SOL     OW45200   4.576  11.071  10.244
47809SOL    HW145201   4.483  11.090  10.233
47809SOL    HW245202   4.613  11.153  10.278
47810SOL     OW45203   9.428   6.559   5.335
47810SOL    HW145204   9.360   6.599   5.389
47810SOL    HW245205   9.507   6.609   5.354
47811SOL     OW45206  13.550   3.236  12.164
47811SOL    HW145207  13.633   3.198  12.195
47811SOL    HW245208  13.552   3.327  12.195
47812SOL     OW45209   9.726   1.066   8.015
47812SOL    HW145210   9.765   1.102   7.936
47812SOL    HW245211   9.695   0.979   7.989
47813SOL     OW45212   8.880   6.655  12.825
47813SOL    HW145213   8.952   6.705  12.786
47813SOL    HW245214   8.816   6.721  12.850
47814SOL     OW45215  13.869   7.312   4.588
47814SOL    HW145216  13.804   7.376   4.559
47814SOL    HW245217  13.952   7.348   4.558
47815SOL     OW45218   4.425  11.640   5.758
47815SOL    HW145219   4.381  11.556   5.742
47815SOL    HW245220   4.384  11.673   5.838
47816SOL     OW45221  12.593   1.167   6.164
47816SOL    HW145222  12.603   1.089   6.218
47816SOL    HW245223  12.505   1.160   6.128
47817SOL     OW45224   1.784   3.972   1.560
47817SOL    HW145225   1.735   3.963   1.641
47817SOL    HW245226   1.724   4.020   1.502
47818SOL     OW45227   4.176   3.883   4.575
47818SOL    HW145228   4.129   3.954   4.619
47818SOL    HW245229   4.111   3.844   4.517
47819SOL     OW45230   4.684   3.585   3.389
47819SOL    HW145231   4.601   3.549   3.355
47819SOL    HW245232   4.722   3.514   3.440
47820SOL     OW45233   9.826   8.252  10.558
47820SOL    HW145234   9.763   8.203  10.505
47820SOL    HW245235   9.775   8.285  10.631
47821SOL     OW45236   9.803   0.123  10.362
47821SOL    HW145237   9.708   0.116  10.360
47821SOL    HW245238   9.822   0.210  10.327
47822SOL     OW45239  12.459  11.262  10.028
47822SOL    HW145240  12.400  11.308   9.968
47822SOL    HW245241  12.544  11.264   9.984
47823SOL     OW45242   7.858   3.683   3.286
47823SOL    HW145243   7.794   3.709   3.352
47823SOL    HW245244   7.807   3.635   3.220
47824SOL     OW45245  11.084   3.405  13.567
47824SOL    HW145246  11.142   3.352  13.514
47824SOL    HW245247  11.000   3.404  13.520
47825SOL     OW45248   4.913   5.492   0.240
47825SOL    HW145249   4.833   5.455   0.201
47825SOL    HW245250   4.893   5.498   0.334
47826SOL     OW45251   7.893  12.055  13.345
47826SOL    HW145252   7.823  12.055  13.279
47826SOL    HW245253   7.865  11.990  13.409
47827SOL     OW45254  12.210  13.866  13.336
47827SOL    HW145255  12.142  13.861  13.403
47827SOL    HW245256  12.289  13.891  13.383
47828SOL     OW45257   2.557   6.463  10.117
47828SOL    HW145258   2.566   6.557  10.130
47828SOL    HW245259   2.602   6.445  10.035
47829SOL     OW45260   9.871   1.569   2.798
47829SOL    HW145261   9.839   1.585   2.710
47829SOL    HW245262   9.854   1.650   2.845
47830SOL     OW45263  14.869   9.374   7.940
47830SOL    HW145264  14.796   9.429   7.909
47830SOL    HW245265  14.830   9.288   7.953
47831SOL     OW45266   1.366   1.630  10.302
47831SOL    HW145267   1.349   1.720  10.273
47831SOL    HW245268   1.447   1.635  10.353
47832SOL     OW45269   7.152   0.907   8.431
47832SOL    HW145270   7.073   0.867   8.468
47832SOL    HW245271   7.143   0.896   8.336
47833SOL     OW45272   7.261   4.208   1.000
47833SOL    HW145273   7.208   4.198   1.080
47833SOL    HW245274   7.313   4.286   1.017
47834SOL     OW45275  10.026   2.425   1.680
47834SOL    HW145276  10.023   2.346   1.734
47834SOL    HW245277  10.047   2.394   1.592
47835SOL     OW45278   0.993   1.189   0.876
47835SOL    HW145279   0.918   1.239   0.843
47835SOL    HW245280   1.067   1.219   0.823
47836SOL     OW45281  13.899   0.093  13.697
47836SOL    HW145282  13.942   0.084  13.783
47836SOL    HW245283  13.813   0.054  13.709
47837SOL     OW45284   5.801   3.722   3.570
47837SOL    HW145285   5.828   3.679   3.489
47837SOL    HW245286   5.802   3.816   3.549
47838SOL     OW45287   5.902   9.253   8.964
47838SOL    HW145288   5.955   9.226   9.039
47838SOL    HW245289   5.932   9.196   8.892
47839SOL     OW45290   4.933  11.385   1.281
47839SOL    HW145291   5.029  11.390   1.288
47839SOL    HW245292   4.914  11.292   1.275
47840SOL     OW45293   7.573  11.954   1.872
47840SOL    HW145294   7.626  12.025   1.907
47840SOL    HW245295   7.490  11.995   1.848
47841SOL     OW45296  14.789  11.693   6.730
47841SOL    HW145297  14.839  11.614   6.751
47841SOL    HW245298  14.697  11.665   6.737
47842SOL     OW45299   4.835   9.136  10.522
47842SOL    HW145300   4.869   9.223  10.501
47842SOL    HW245301   4.896   9.102  10.588
47843SOL     OW45302   1.545   7.525   2.386
47843SOL    HW145303   1.481   7.489   2.325
47843SOL    HW245304   1.619   7.465   2.382
47844SOL     OW45305   7.403  10.108   6.390
47844SOL    HW145306   7.377  10.099   6.482
47844SOL    HW245307   7.444  10.195   6.386
47845SOL     OW45308   8.684   3.749  12.137
47845SOL    HW145309   8.729   3.831  12.153
47845SOL    HW245310   8.595   3.764  12.169
47846SOL     OW45311   3.623  12.604  11.730
47846SOL    HW145312   3.702  12.612  11.677
47846SOL    HW245313   3.619  12.686  11.780
47847SOL     OW45314  12.819   6.804  11.528
47847SOL    HW145315  12.873   6.881  11.550
47847SOL    HW245316  12.794   6.818  11.437
47848SOL     OW45317   1.146   9.203   0.367
47848SOL    HW145318   1.226   9.233   0.409
47848SOL    HW245319   1.176   9.146   0.296
47849SOL     OW45320   3.044   5.013  11.274
47849SOL    HW145321   3.051   5.100  11.234
47849SOL    HW245322   3.044   4.952  11.200
47850SOL     OW45323   6.287  13.699  11.693
47850SOL    HW145324   6.212  13.731  11.745
47850SOL    HW245325   6.269  13.731  11.604
47851SOL     OW45326   3.744   0.475   3.016
47851SOL    HW145327   3.834   0.446   2.998
47851SOL    HW245328   3.754   0.564   3.050
47852SOL     OW45329   6.858   2.867  12.312
47852SOL    HW145330   6.843   2.954  12.276
47852SOL    HW245331   6.842   2.878  12.406
47853SOL     OW45332  14.414   4.428   8.238
47853SOL    HW145333  14.423   4.522   8.220
47853SOL    HW245334  14.341   4.422   8.299
47854SOL     OW45335   0.861   7.591   9.459
47854SOL    HW145336   0.938   7.543   9.430
47854SOL    HW245337   0.793   7.524   9.467
47855SOL     OW45338   0.592  12.338   8.651
47855SOL    HW145339   0.503  12.324   8.685
47855SOL    HW245340   0.649  12.303   8.719
47856SOL     OW45341   2.464  12.128  10.499
47856SOL    HW145342   2.512  12.176  10.431
47856SOL    HW245343   2.372  12.134  10.472
47857SOL     OW45344   7.420   6.017  12.711
47857SOL    HW145345   7.424   5.989  12.619
47857SOL    HW245346   7.326   6.025  12.730
47858SOL     OW45347   9.525  14.015   7.097
47858SOL    HW145348   9.432  14.034   7.086
47858SOL    HW245349   9.547  14.049   7.184
47859SOL     OW45350   1.365   4.578   2.995
47859SOL    HW145351   1.336   4.617   2.913
47859SOL    HW245352   1.421   4.505   2.969
47860SOL     OW45353   7.052   1.492   3.680
47860SOL    HW145354   7.004   1.409   3.678
47860SOL    HW245355   7.125   1.479   3.619
47861SOL     OW45356  12.865   5.042   9.696
47861SOL    HW145357  12.899   4.952   9.704
47861SOL    HW245358  12.932   5.096   9.737
47862SOL     OW45359   7.453   3.577   5.444
47862SOL    HW145360   7.493   3.549   5.526
47862SOL    HW245361   7.449   3.498   5.391
47863SOL     OW45362   4.798   3.299   3.738
47863SOL    HW145363   4.779   3.205   3.749
47863SOL    HW245364   4.724   3.343   3.781
47864SOL     OW45365   9.076   9.106   5.109
47864SOL    HW145366   9.154   9.082   5.060
47864SOL    HW245367   9.008   9.116   5.043
47865SOL     OW45368   3.597  10.752   4.854
47865SOL    HW145369   3.675  10.806   4.860
47865SOL    HW245370   3.609  10.700   4.774
47866SOL     OW45371   5.638  10.512   4.901
47866SOL    HW145372   5.694  10.548   4.832
47866SOL    HW245373   5.553  10.498   4.859
47867SOL     OW45374   2.839  13.503   2.894
47867SOL    HW145375   2.756  13.504   2.943
47867SOL    HW245376   2.821  13.447   2.818
47868SOL     OW45377  11.487   0.339   4.666
47868SOL    HW145378  11.435   0.380   4.596
47868SOL    HW245379  11.525   0.261   4.626
47869SOL     OW45380   4.216  11.148   9.697
47869SOL    HW145381   4.172  11.075   9.654
47869SOL    HW245382   4.309  11.136   9.674
47870SOL     OW45383   0.914  10.278   7.903
47870SOL    HW145384   0.892  10.342   7.837
47870SOL    HW245385   0.831  10.259   7.948
47871SOL     OW45386  14.614   4.303   1.785
47871SOL    HW145387  14.522   4.322   1.768
47871SOL    HW245388  14.617   4.280   1.878
47872SOL     OW45389   2.973   6.133   7.567
47872SOL    HW145390   3.011   6.162   7.484
47872SOL    HW245391   2.981   6.037   7.565
47873SOL     OW45392   1.363   1.956  12.673
47873SOL    HW145393   1.355   1.936  12.580
47873SOL    HW245394   1.279   1.931  12.711
47874SOL     OW45395   9.160   3.961   1.910
47874SOL    HW145396   9.162   3.868   1.885
47874SOL    HW245397   9.156   4.008   1.827
47875SOL     OW45398   5.516  10.722   4.260
47875SOL    HW145399   5.442  10.661   4.269
47875SOL    HW245400   5.478  10.807   4.280
47876SOL     OW45401  12.849   6.599   8.648
47876SOL    HW145402  12.912   6.656   8.604
47876SOL    HW245403  12.780   6.585   8.583
47877SOL     OW45404   3.457   6.114   9.018
47877SOL    HW145405   3.440   6.191   9.073
47877SOL    HW245406   3.552   6.106   9.018
47878SOL     OW45407   0.181   5.073   9.055
47878SOL    HW145408   0.159   5.149   9.001
47878SOL    HW245409   0.113   5.072   9.123
47879SOL     OW45410   7.086  13.617  10.405
47879SOL    HW145411   7.148  13.569  10.350
47879SOL    HW245412   7.002  13.572  10.391
47880SOL     OW45413   7.722  13.177  14.410
47880SOL    HW145414   7.802  13.208  14.366
47880SOL    HW245415   7.710  13.237  14.483
47881SOL     OW45416   7.787   6.807   0.855
47881SOL    HW145417   7.711   6.827   0.911
47881SOL    HW245418   7.766   6.722   0.817
47882SOL     OW45419   4.375   9.829   0.560
47882SOL    HW145420   4.311   9.758   0.546
47882SOL    HW245421   4.454   9.785   0.591
47883SOL     OW45422   0.390   4.586   6.903
47883SOL    HW145423   0.473   4.542   6.920
47883SOL    HW245424   0.360   4.549   6.820
47884SOL     OW45425   8.543  14.092   6.010
47884SOL    HW145426   8.612  14.038   5.972
47884SOL    HW245427   8.465  14.036   6.009
47885SOL     OW45428  13.023   8.733   3.390
47885SOL    HW145429  12.984   8.724   3.304
47885SOL    HW245430  13.087   8.661   3.394
47886SOL     OW45431   1.530   0.927   6.536
47886SOL    HW145432   1.576   0.997   6.583
47886SOL    HW245433   1.577   0.919   6.453
47887SOL     OW45434  13.546   3.160   8.538
47887SOL    HW145435  13.599   3.095   8.585
47887SOL    HW245436  13.518   3.115   8.458
47888SOL     OW45437   5.214   5.151   9.050
47888SOL    HW145438   5.180   5.093   9.118
47888SOL    HW245439   5.306   5.128   9.043
47889SOL     OW45440   6.787  10.105  12.213
47889SOL    HW145441   6.704  10.152  12.214
47889SOL    HW245442   6.762  10.013  12.225
47890SOL     OW45443   3.119   1.881   0.061
47890SOL    HW145444   3.137   1.968   0.025
47890SOL    HW245445   3.076   1.898   0.145
47891SOL     OW45446  10.717  14.201  11.307
47891SOL    HW145447  10.757  14.279  11.345
47891SOL    HW245448  10.626  14.204  11.336
47892SOL     OW45449   6.959  14.226  10.552
47892SOL    HW145450   6.877  14.245  10.506
47892SOL    HW245451   6.934  14.161  10.618
47893SOL     OW45452   4.212   3.944   0.810
47893SOL    HW145453   4.197   3.849   0.808
47893SOL    HW245454   4.127   3.982   0.789
47894SOL     OW45455   6.096   0.145   9.968
47894SOL    HW145456   6.098   0.240   9.972
47894SOL    HW245457   6.159   0.116  10.034
47895SOL     OW45458   4.992  13.287   8.539
47895SOL    HW145459   4.938  13.276   8.461
47895SOL    HW245460   5.081  13.264   8.510
47896SOL     OW45461  13.616   3.686   3.342
47896SOL    HW145462  13.583   3.606   3.383
47896SOL    HW245463  13.542   3.721   3.293
47897SOL     OW45464  11.818   1.096   3.370
47897SOL    HW145465  11.742   1.154   3.369
47897SOL    HW245466  11.798   1.030   3.436
47898SOL     OW45467   0.785   4.951   7.126
47898SOL    HW145468   0.797   4.865   7.167
47898SOL    HW245469   0.873   4.975   7.095
47899SOL     OW45470   6.632  11.200   9.896
47899SOL    HW145471   6.560  11.186   9.835
47899SOL    HW245472   6.600  11.270   9.954
47900SOL     OW45473   8.028   8.949   1.596
47900SOL    HW145474   8.046   8.887   1.667
47900SOL    HW245475   7.940   8.981   1.613
47901SOL     OW45476  14.074   3.642  13.643
47901SOL    HW145477  13.982   3.617  13.632
47901SOL    HW245478  14.070   3.735  13.664
47902SOL     OW45479   2.726   7.412  14.323
47902SOL    HW145480   2.691   7.500  14.310
47902SOL    HW245481   2.821   7.423  14.319
47903SOL     OW45482   0.672   5.128   4.087
47903SOL    HW145483   0.579   5.148   4.089
47903SOL    HW245484   0.708   5.187   4.021
47904SOL     OW45485  11.051   4.828  11.271
47904SOL    HW145486  10.981   4.783  11.225
47904SOL    HW245487  11.067   4.775  11.348
47905SOL     OW45488  13.395  11.350   5.546
47905SOL    HW145489  13.341  11.337   5.468
47905SOL    HW245490  13.332  11.376   5.614
47906SOL     OW45491   7.922  11.045   6.587
47906SOL    HW145492   7.925  10.984   6.661
47906SOL    HW245493   7.832  11.078   6.587
47907SOL     OW45494  13.319   5.579  11.106
47907SOL    HW145495  13.381   5.512  11.135
47907SOL    HW245496  13.364   5.622  11.033
47908SOL     OW45497   4.925   4.370   7.908
47908SOL    HW145498   4.957   4.460   7.900
47908SOL    HW245499   4.981   4.320   7.849
47909SOL     OW45500  13.007   7.234  11.501
47909SOL    HW145501  12.911   7.226  11.500
47909SOL    HW245502  13.023   7.318  11.544
47910SOL     OW45503  14.746   6.545  11.798
47910SOL    HW145504  14.723   6.471  11.743
47910SOL    HW245505  14.809   6.595  11.746
47911SOL     OW45506   6.732  10.779  14.646
47911SOL    HW145507   6.690  10.805  14.565
47911SOL    HW245508   6.754  10.862  14.689
47912SOL     OW45509   2.283   8.208   1.553
47912SOL    HW145510   2.352   8.223   1.488
47912SOL    HW245511   2.235   8.132   1.519
47913SOL     OW45512   9.669  11.003   0.710
47913SOL    HW145513   9.633  11.030   0.625
47913SOL    HW245514   9.630  10.917   0.726
47914SOL     OW45515   1.726   7.876  10.826
47914SOL    HW145516   1.803   7.921  10.861
47914SOL    HW245517   1.652   7.930  10.856
47915SOL     OW45518   5.257  11.137   4.963
47915SOL    HW145519   5.205  11.150   5.043
47915SOL    HW245520   5.196  11.097   4.901
47916SOL     OW45521   8.006  14.522   4.428
47916SOL    HW145522   7.990  14.522   4.334
47916SOL    HW245523   8.093  14.562   4.438
47917SOL     OW45524  12.341   4.823  13.601
47917SOL    HW145525  12.283   4.747  13.604
47917SOL    HW245526  12.293   4.891  13.648
47918SOL     OW45527   1.193  11.514  11.463
47918SOL    HW145528   1.145  11.457  11.403
47918SOL    HW245529   1.128  11.542  11.528
47919SOL     OW45530   8.903   7.101  10.917
47919SOL    HW145531   8.943   7.038  10.856
47919SOL    HW245532   8.908   7.184  10.871
47920SOL     OW45533   3.721  10.774   6.286
47920SOL    HW145534   3.686  10.845   6.231
47920SOL    HW245535   3.697  10.694   6.239
47921SOL     OW45536   1.732   8.387   3.506
47921SOL    HW145537   1.800   8.400   3.440
47921SOL    HW245538   1.663   8.449   3.482
47922SOL     OW45539  11.676   9.983  13.036
47922SOL    HW145540  11.737   9.913  13.012
47922SOL    HW245541  11.692   9.998  13.129
47923SOL     OW45542   1.944   2.862   9.898
47923SOL    HW145543   1.968   2.908   9.818
47923SOL    HW245544   1.850   2.846   9.890
47924SOL     OW45545   3.682   5.193   9.289
47924SOL    HW145546   3.748   5.126   9.307
47924SOL    HW245547   3.713   5.237   9.211
47925SOL     OW45548   5.757   3.686   1.844
47925SOL    HW145549   5.734   3.594   1.831
47925SOL    HW245550   5.811   3.707   1.767
47926SOL     OW45551   2.142  13.723   8.231
47926SOL    HW145552   2.236  13.708   8.226
47926SOL    HW245553   2.119  13.697   8.321
47927SOL     OW45554  12.912   6.740   0.073
47927SOL    HW145555  12.971   6.814   0.087
47927SOL    HW245556  12.861   6.735   0.154
47928SOL     OW45557   0.550   5.132   2.143
47928SOL    HW145558   0.604   5.151   2.066
47928SOL    HW245559   0.556   5.037   2.153
47929SOL     OW45560  12.899   5.554   7.949
47929SOL    HW145561  12.888   5.641   7.910
47929SOL    HW245562  12.929   5.572   8.038
47930SOL     OW45563   9.492   5.945  11.899
47930SOL    HW145564   9.397   5.935  11.907
47930SOL    HW245565   9.527   5.897  11.974
47931SOL     OW45566   8.335   0.298   7.162
47931SOL    HW145567   8.267   0.310   7.096
47931SOL    HW245568   8.377   0.216   7.138
47932SOL     OW45569  12.290   3.823  11.341
47932SOL    HW145570  12.357   3.884  11.311
47932SOL    HW245571  12.309   3.811  11.435
47933SOL     OW45572  11.016   8.684   0.650
47933SOL    HW145573  11.017   8.644   0.563
47933SOL    HW245574  11.049   8.772   0.636
47934SOL     OW45575   6.857   5.589  14.696
47934SOL    HW145576   6.873   5.684  14.701
47934SOL    HW245577   6.815   5.576  14.611
47935SOL     OW45578   3.529   1.203   1.789
47935SOL    HW145579   3.533   1.124   1.735
47935SOL    HW245580   3.495   1.172   1.873
47936SOL     OW45581   6.770   6.306  11.188
47936SOL    HW145582   6.848   6.312  11.132
47936SOL    HW245583   6.786   6.370  11.258
47937SOL     OW45584   4.329  11.255  13.394
47937SOL    HW145585   4.262  11.320  13.371
47937SOL    HW245586   4.293  11.209  13.469
47938SOL     OW45587  13.725   2.861   3.909
47938SOL    HW145588  13.787   2.826   3.845
47938SOL    HW245589  13.689   2.784   3.953
47939SOL     OW45590  13.874   8.814  14.312
47939SOL    HW145591  13.843   8.901  14.289
47939SOL    HW245592  13.947   8.830  14.373
47940SOL     OW45593  12.778   7.446   8.275
47940SOL    HW145594  12.846   7.467   8.340
47940SOL    HW245595  12.826   7.404   8.204
47941SOL     OW45596   6.962   2.258  14.322
47941SOL    HW145597   6.914   2.341  14.318
47941SOL    HW245598   6.896   2.194  14.348
47942SOL     OW45599  14.400   3.699   1.738
47942SOL    HW145600  14.344   3.633   1.697
47942SOL    HW245601  14.396   3.774   1.679
47943SOL     OW45602   1.012   7.110  10.078
47943SOL    HW145603   0.969   7.061  10.009
47943SOL    HW245604   1.050   7.043  10.135
47944SOL     OW45605  10.989  12.124   0.123
47944SOL    HW145606  10.999  12.192   0.056
47944SOL    HW245607  10.894  12.114   0.133
47945SOL     OW45608   6.131   0.573  10.348
47945SOL    HW145609   6.074   0.618  10.285
47945SOL    HW245610   6.103   0.606  10.433
47946SOL     OW45611  13.187  13.717   5.102
47946SOL    HW145612  13.122  13.653   5.132
47946SOL    HW245613  13.234  13.672   5.033
47947SOL     OW45614   4.352   0.257   6.328
47947SOL    HW145615   4.275   0.250   6.272
47947SOL    HW245616   4.379   0.166   6.344
47948SOL     OW45617   0.450   7.868   5.548
47948SOL    HW145618   0.381   7.803   5.537
47948SOL    HW245619   0.433   7.933   5.479
47949SOL     OW45620   8.648   1.786  13.992
47949SOL    HW145621   8.700   1.708  13.971
47949SOL    HW245622   8.680   1.815  14.077
47950SOL     OW45623   5.548   6.758  10.534
47950SOL    HW145624   5.471   6.757  10.478
47950SOL    HW245625   5.608   6.820  10.491
47951SOL     OW45626   6.017   6.525   2.481
47951SOL    HW145627   6.061   6.593   2.429
47951SOL    HW245628   5.928   6.558   2.492
47952SOL     OW45629   9.587   0.337   0.290
47952SOL    HW145630   9.624   0.425   0.289
47952SOL    HW245631   9.501   0.347   0.332
47953SOL     OW45632  10.440   6.382   6.386
47953SOL    HW145633  10.350   6.413   6.388
47953SOL    HW245634  10.489   6.454   6.345
47954SOL     OW45635   0.961   8.801  11.699
47954SOL    HW145636   1.006   8.857  11.636
47954SOL    HW245637   0.908   8.742  11.646
47955SOL     OW45638   5.470  10.223  14.558
47955SOL    HW145639   5.487  10.181  14.474
47955SOL    HW245640   5.512  10.309  14.550
47956SOL     OW45641  12.936   6.551  11.996
47956SOL    HW145642  12.849   6.512  11.985
47956SOL    HW245643  12.924   6.643  11.970
47957SOL     OW45644   8.574  10.323   4.081
47957SOL    HW145645   8.601  10.387   4.015
47957SOL    HW245646   8.655  10.279   4.106
47958SOL     OW45647   0.686  14.811   7.150
47958SOL    HW145648   0.647  14.752   7.086
47958SOL    HW245649   0.780  14.793   7.145
47959SOL     OW45650   3.019   8.398   6.948
47959SOL    HW145651   2.988   8.307   6.945
47959SOL    HW245652   3.115   8.390   6.941
47960SOL     OW45653  12.631  13.978  13.827
47960SOL    HW145654  12.695  14.038  13.865
47960SOL    HW245655  12.657  13.891  13.859
47961SOL     OW45656   7.898   6.614   0.259
47961SOL    HW145657   7.860   6.700   0.242
47961SOL    HW245658   7.840   6.574   0.323
47962SOL     OW45659   8.941   3.144   9.216
47962SOL    HW145660   8.926   3.100   9.299
47962SOL    HW245661   8.863   3.123   9.164
47963SOL     OW45662   3.626   4.134  10.646
47963SOL    HW145663   3.665   4.217  10.676
47963SOL    HW245664   3.669   4.067  10.698
47964SOL     OW45665   6.155   1.631  11.806
47964SOL    HW145666   6.162   1.657  11.897
47964SOL    HW245667   6.137   1.537  11.809
47965SOL     OW45668  13.149   4.320  13.713
47965SOL    HW145669  13.095   4.394  13.740
47965SOL    HW245670  13.166   4.272  13.794
47966SOL     OW45671   1.699   3.309   4.882
47966SOL    HW145672   1.789   3.306   4.913
47966SOL    HW245673   1.672   3.400   4.894
47967SOL     OW45674   6.281   8.725  14.424
47967SOL    HW145675   6.241   8.803  14.386
47967SOL    HW245676   6.312   8.675  14.348
47968SOL     OW45677   9.553  10.056   2.539
47968SOL    HW145678   9.587  10.145   2.555
47968SOL    HW245679   9.631  10.001   2.538
47969SOL     OW45680  14.480   3.590   7.494
47969SOL    HW145681  14.398   3.598   7.543
47969SOL    HW245682  14.549   3.597   7.560
47970SOL     OW45683   2.091  14.109   0.897
47970SOL    HW145684   2.098  14.114   0.992
47970SOL    HW245685   2.065  14.018   0.879
47971SOL     OW45686   5.008  12.063  11.695
47971SOL    HW145687   5.079  12.033  11.752
47971SOL    HW245688   5.051  12.118  11.629
47972SOL     OW45689   4.903   5.620   8.125
47972SOL    HW145690   4.840   5.553   8.099
47972SOL    HW245691   4.906   5.615   8.220
47973SOL     OW45692   0.837  10.359   0.361
47973SOL    HW145693   0.743  10.380   0.356
47973SOL    HW245694   0.878  10.415   0.295
47974SOL     OW45695   9.255   2.186   2.313
47974SOL    HW145696   9.290   2.098   2.324
47974SOL    HW245697   9.279   2.231   2.394
47975SOL     OW45698   6.492  11.866   9.256
47975SOL    HW145699   6.461  11.777   9.276
47975SOL    HW245700   6.587  11.860   9.260
47976SOL     OW45701   9.853  10.272   6.188
47976SOL    HW145702   9.764  10.264   6.152
47976SOL    HW245703   9.904  10.205   6.142
47977SOL     OW45704  13.855   7.823   6.963
47977SOL    HW145705  13.764   7.796   6.972
47977SOL    HW245706  13.852   7.899   6.904
47978SOL     OW45707   2.915   8.722  12.258
47978SOL    HW145708   3.004   8.704  12.228
47978SOL    HW245709   2.926   8.789  12.326
47979SOL     OW45710   2.580   8.695   5.847
47979SOL    HW145711   2.674   8.683   5.862
47979SOL    HW245712   2.552   8.613   5.806
47980SOL     OW45713  14.457   0.902  13.088
47980SOL    HW145714  14.529   0.927  13.146
47980SOL    HW245715  14.378   0.912  13.141
47981SOL     OW45716   3.857   8.376   1.120
47981SOL    HW145717   3.850   8.472   1.123
47981SOL    HW245718   3.767   8.346   1.133
47982SOL     OW45719   5.930  13.466   7.416
47982SOL    HW145720   5.942  13.522   7.339
47982SOL    HW245721   5.964  13.518   7.489
47983SOL     OW45722   0.578  13.051  11.960
47983SOL    HW145723   0.654  13.102  11.990
47983SOL    HW245724   0.518  13.052  12.035
47984SOL     OW45725   1.401   8.234   5.134
47984SOL    HW145726   1.316   8.256   5.171
47984SOL    HW245727   1.412   8.295   5.061
47985SOL     OW45728  11.638  13.843  11.892
47985SOL    HW145729  11.621  13.913  11.830
47985SOL    HW245730  11.699  13.881  11.956
47986SOL     OW45731   3.813  10.761   9.859
47986SOL    HW145732   3.900  10.765   9.819
47986SOL    HW245733   3.779  10.675   9.833
47987SOL     OW45734  14.746   8.807  10.698
47987SOL    HW145735  14.721   8.789  10.789
47987SOL    HW245736  14.774   8.722  10.664
47988SOL     OW45737   5.739   7.619   5.783
47988SOL    HW145738   5.788   7.680   5.837
47988SOL    HW245739   5.650   7.621   5.819
47989SOL     OW45740   3.535   0.740   9.388
47989SOL    HW145741   3.465   0.729   9.323
47989SOL    HW245742   3.544   0.653   9.428
47990SOL     OW45743   5.502  10.757  14.008
47990SOL    HW145744   5.434  10.798  13.954
47990SOL    HW245745   5.544  10.831  14.053
47991SOL     OW45746   0.098  10.081  11.726
47991SOL    HW145747   0.153  10.046  11.656
47991SOL    HW245748   0.124  10.032  11.804
47992SOL     OW45749   7.420   5.875  13.437
47992SOL    HW145750   7.490   5.939  13.420
47992SOL    HW245751   7.464   5.790  13.429
47993SOL     OW45752   6.983   8.567   7.468
47993SOL    HW145753   6.944   8.653   7.455
47993SOL    HW245754   6.994   8.560   7.563
47994SOL     OW45755  11.859   2.267   6.518
47994SOL    HW145756  11.792   2.268   6.587
47994SOL    HW245757  11.836   2.340   6.461
47995SOL     OW45758   7.707   2.080   3.562
47995SOL    HW145759   7.675   2.063   3.474
47995SOL    HW245760   7.685   2.171   3.580
47996SOL     OW45761  10.901   9.443   0.678
47996SOL    HW145762  10.841   9.469   0.748
47996SOL    HW245763  10.984   9.427   0.723
47997SOL     OW45764   4.360   8.623   5.266
47997SOL    HW145765   4.341   8.551   5.205
47997SOL    HW245766   4.453   8.641   5.253
47998SOL     OW45767  13.036   3.612  12.324
47998SOL    HW145768  12.958   3.584  12.371
47998SOL    HW245769  13.016   3.594  12.232
47999SOL     OW45770   3.347  10.090   2.685
47999SOL    HW145771   3.254  10.103   2.698
47999SOL    HW245772   3.388  10.170   2.718
48000SOL     OW45773   8.078   0.645  11.611
48000SOL    HW145774   8.025   0.570  11.637
48000SOL    HW245775   8.094   0.693  11.692
48001SOL     OW45776   8.394  12.478  10.953
48001SOL    HW145777   8.451  12.417  10.907
48001SOL    HW245778   8.305  12.451  10.930
48002SOL     OW45779   4.333   3.899   1.708
48002SOL    HW145780   4.343   3.925   1.800
48002SOL    HW245781   4.419   3.869   1.681
48003SOL     OW45782   2.529   0.333   6.059
48003SOL    HW145783   2.439   0.328   6.027
48003SOL    HW245784   2.534   0.268   6.129
48004SOL     OW45785  10.530   6.835   1.342
48004SOL    HW145786  10.445   6.826   1.298
48004SOL    HW245787  10.521   6.913   1.396
48005SOL     OW45788  14.538   1.247   0.131
48005SOL    HW145789  14.497   1.204   0.206
48005SOL    HW245790  14.479   1.229   0.058
48006SOL     OW45791   0.911   5.843   7.550
48006SOL    HW145792   1.004   5.856   7.531
48006SOL    HW245793   0.870   5.924   7.522
48007SOL     OW45794   7.319   0.246   2.151
48007SOL    HW145795   7.232   0.240   2.192
48007SOL    HW245796   7.301   0.253   2.057
48008SOL     OW45797   8.872   6.620   1.989
48008SOL    HW145798   8.809   6.686   2.019
48008SOL    HW245799   8.915   6.589   2.069
48009SOL     OW45800   4.881   7.556  14.192
48009SOL    HW145801   4.933   7.535  14.269
48009SOL    HW245802   4.872   7.473  14.145
48010SOL     OW45803  14.053   5.626   0.162
48010SOL    HW145804  14.056   5.531   0.172
48010SOL    HW245805  14.048   5.659   0.251
48011SOL     OW45806  11.037   2.989   4.454
48011SOL    HW145807  11.060   3.082   4.466
48011SOL    HW245808  11.111   2.941   4.491
48012SOL     OW45809   0.679   1.199  10.978
48012SOL    HW145810   0.732   1.176  11.055
48012SOL    HW245811   0.675   1.117  10.928
48013SOL     OW45812   9.632   8.926  13.736
48013SOL    HW145813   9.651   8.983  13.662
48013SOL    HW245814   9.566   8.865  13.703
48014SOL     OW45815  12.476  14.805   7.699
48014SOL    HW145816  12.442  14.802   7.788
48014SOL    HW245817  12.510   0.012   7.688
48015SOL     OW45818  10.490   1.454   1.694
48015SOL    HW145819  10.473   1.525   1.633
48015SOL    HW245820  10.572   1.415   1.664
48016SOL     OW45821   1.926   0.908   8.074
48016SOL    HW145822   1.922   0.836   8.137
48016SOL    HW245823   1.979   0.975   8.118
48017SOL     OW45824  12.899  10.634  12.331
48017SOL    HW145825  12.850  10.650  12.412
48017SOL    HW245826  12.982  10.597  12.360
48018SOL     OW45827   0.841   5.282   7.384
48018SOL    HW145828   0.787   5.228   7.326
48018SOL    HW245829   0.826   5.372   7.354
48019SOL     OW45830  13.193  10.029   7.468
48019SOL    HW145831  13.146  10.105   7.433
48019SOL    HW245832  13.139  10.000   7.542
48020SOL     OW45833   3.311  12.418  14.623
48020SOL    HW145834   3.405  12.423  14.643
48020SOL    HW245835   3.284  12.509  14.611
48021SOL     OW45836   9.808   7.186   2.731
48021SOL    HW145837   9.868   7.241   2.680
48021SOL    HW245838   9.848   7.180   2.818
48022SOL     OW45839   1.313  10.559   0.740
48022SOL    HW145840   1.361  10.630   0.697
48022SOL    HW245841   1.245  10.603   0.791
48023SOL     OW45842   8.348   6.590  14.706
48023SOL    HW145843   8.272   6.568  14.652
48023SOL    HW245844   8.400   6.510  14.708
48024SOL     OW45845   2.390   2.562   7.786
48024SOL    HW145846   2.482   2.538   7.773
48024SOL    HW245847   2.344   2.478   7.792
48025SOL     OW45848   8.547   5.544  14.656
48025SOL    HW145849   8.610   5.599  14.611
48025SOL    HW245850   8.526   5.475  14.594
48026SOL     OW45851   7.466   9.227   4.044
48026SOL    HW145852   7.376   9.228   4.009
48026SOL    HW245853   7.516   9.176   3.981
48027SOL     OW45854  13.101  14.056   8.090
48027SOL    HW145855  13.145  13.973   8.071
48027SOL    HW245856  13.152  14.093   8.163
48028SOL     OW45857  13.865  14.180   4.047
48028SOL    HW145858  13.884  14.237   4.121
48028SOL    HW245859  13.859  14.239   3.972
48029SOL     OW45860   3.743   3.519   7.480
48029SOL    HW145861   3.703   3.586   7.536
48029SOL    HW245862   3.803   3.472   7.537
48030SOL     OW45863   1.322   4.742   5.054
48030SOL    HW145864   1.258   4.812   5.067
48030SOL    HW245865   1.374   4.742   5.134
48031SOL     OW45866   5.282   6.532   6.439
48031SOL    HW145867   5.217   6.477   6.394
48031SOL    HW245868   5.230   6.595   6.488
48032SOL     OW45869  12.958   9.938   7.612
48032SOL    HW145870  12.968   9.869   7.677
48032SOL    HW245871  12.916  10.010   7.660
48033SOL     OW45872   8.068   3.778  12.753
48033SOL    HW145873   8.128   3.711  12.722
48033SOL    HW245874   8.062   3.841  12.681
48034SOL     OW45875   3.960  14.873  13.539
48034SOL    HW145876   3.963  14.782  13.511
48034SOL    HW245877   3.872   0.002  13.577
48035SOL     OW45878   2.731   3.733   8.944
48035SOL    HW145879   2.701   3.723   9.034
48035SOL    HW245880   2.693   3.816   8.915
48036SOL     OW45881  14.575   6.674   5.756
48036SOL    HW145882  14.643   6.670   5.822
48036SOL    HW245883  14.565   6.768   5.737
48037SOL     OW45884   3.507  10.715   8.488
48037SOL    HW145885   3.437  10.757   8.438
48037SOL    HW245886   3.577  10.701   8.424
48038SOL     OW45887  11.318   1.578   1.944
48038SOL    HW145888  11.339   1.511   2.010
48038SOL    HW245889  11.394   1.636   1.944
48039SOL     OW45890   1.729   9.187  11.381
48039SOL    HW145891   1.643   9.156  11.353
48039SOL    HW245892   1.718   9.210  11.473
48040SOL     OW45893  13.902   2.823   6.968
48040SOL    HW145894  13.855   2.767   7.030
48040SOL    HW245895  13.863   2.803   6.883
48041SOL     OW45896   8.549   6.830   7.905
48041SOL    HW145897   8.553   6.768   7.979
48041SOL    HW245898   8.556   6.916   7.946
48042SOL     OW45899   1.529   9.256  11.002
48042SOL    HW145900   1.549   9.314  11.077
48042SOL    HW245901   1.597   9.276  10.938
48043SOL     OW45902   5.182   7.416   6.863
48043SOL    HW145903   5.130   7.458   6.794
48043SOL    HW245904   5.271   7.449   6.848
48044SOL     OW45905  12.570   7.791   7.790
48044SOL    HW145906  12.576   7.714   7.734
48044SOL    HW245907  12.655   7.796   7.834
48045SOL     OW45908   9.783  13.678   5.512
48045SOL    HW145909   9.838  13.756   5.522
48045SOL    HW245910   9.846  13.606   5.506
48046SOL     OW45911   1.010   4.617   0.693
48046SOL    HW145912   1.046   4.595   0.607
48046SOL    HW245913   1.062   4.567   0.755
48047SOL     OW45914   5.100   5.222  13.142
48047SOL    HW145915   5.014   5.260  13.163
48047SOL    HW245916   5.080   5.140  13.098
48048SOL     OW45917  13.236  14.663   6.161
48048SOL    HW145918  13.231  14.633   6.070
48048SOL    HW245919  13.249  14.758   6.154
48049SOL     OW45920   6.331   7.038   0.899
48049SOL    HW145921   6.426   7.042   0.907
48049SOL    HW245922   6.315   6.969   0.834
48050SOL     OW45923  14.468  13.626   0.610
48050SOL    HW145924  14.514  13.642   0.528
48050SOL    HW245925  14.519  13.557   0.653
48051SOL     OW45926   3.085   8.022   0.272
48051SOL    HW145927   2.998   7.987   0.256
48051SOL    HW245928   3.126   7.959   0.332
48052SOL     OW45929  12.042  11.746   2.348
48052SOL    HW145930  12.123  11.798   2.347
48052SOL    HW245931  11.972  11.811   2.355
48053SOL     OW45932   1.918   4.628   0.664
48053SOL    HW145933   1.960   4.593   0.743
48053SOL    HW245934   1.988   4.631   0.599
48054SOL     OW45935   5.731  13.389  10.526
48054SOL    HW145936   5.641  13.363  10.548
48054SOL    HW245937   5.784  13.350  10.595
48055SOL     OW45938   6.680  10.187   0.398
48055SOL    HW145939   6.598  10.154   0.436
48055SOL    HW245940   6.663  10.190   0.304
48056SOL     OW45941   2.301   9.088   2.633
48056SOL    HW145942   2.288   9.094   2.538
48056SOL    HW245943   2.345   9.004   2.646
48057SOL     OW45944   9.539  10.860   9.829
48057SOL    HW145945   9.493  10.779   9.850
48057SOL    HW245946   9.523  10.917   9.904
48058SOL     OW45947   0.448  13.346  11.788
48058SOL    HW145948   0.373  13.403  11.767
48058SOL    HW245949   0.453  13.348  11.884
48059SOL     OW45950   2.974   4.177   5.324
48059SOL    HW145951   3.014   4.138   5.402
48059SOL    HW245952   3.032   4.250   5.302
48060SOL     OW45953   6.071   6.512   6.223
48060SOL    HW145954   6.089   6.553   6.138
48060SOL    HW245955   5.989   6.465   6.210
48061SOL     OW45956   6.817  12.686   7.969
48061SOL    HW145957   6.789  12.616   7.910
48061SOL    HW245958   6.891  12.727   7.925
48062SOL     OW45959  14.626   0.474   3.894
48062SOL    HW145960  14.695   0.431   3.843
48062SOL    HW245961  14.672   0.538   3.948
48063SOL     OW45962  14.327   3.526   2.894
48063SOL    HW145963  14.264   3.454   2.894
48063SOL    HW245964  14.288   3.591   2.953
48064SOL     OW45965  14.707  11.440  11.585
48064SOL    HW145966  14.732  11.353  11.619
48064SOL    HW245967  14.730  11.436  11.492
48065SOL     OW45968   0.110  11.146   2.051
48065SOL    HW145969   0.118  11.070   1.993
48065SOL    HW245970   0.138  11.115   2.137
48066SOL     OW45971  14.289  12.753  10.679
48066SOL    HW145972  14.262  12.813  10.609
48066SOL    HW245973  14.207  12.725  10.719
48067SOL     OW45974   0.656   8.921   3.103
48067SOL    HW145975   0.738   8.967   3.086
48067SOL    HW245976   0.623   8.899   3.016
48068SOL     OW45977   6.606  14.466   5.924
48068SOL    HW145978   6.534  14.513   5.881
48068SOL    HW245979   6.623  14.514   6.005
48069SOL     OW45980   9.600   0.011  10.127
48069SOL    HW145981   9.515   0.032  10.088
48069SOL    HW245982   9.585   0.019  10.222
48070SOL     OW45983   9.920  10.471  11.236
48070SOL    HW145984   9.981  10.397  11.228
48070SOL    HW245985   9.851  10.438  11.293
48071SOL     OW45986   5.156   9.489   1.733
48071SOL    HW145987   5.216   9.480   1.807
48071SOL    HW245988   5.144   9.399   1.702
48072SOL     OW45989   1.424   6.989   9.075
48072SOL    HW145990   1.413   6.923   9.144
48072SOL    HW245991   1.403   6.942   8.994
48073SOL     OW45992   2.779  13.962   4.574
48073SOL    HW145993   2.842  13.971   4.646
48073SOL    HW245994   2.739  14.049   4.567
48074SOL     OW45995   7.974  10.980   5.439
48074SOL    HW145996   7.971  10.920   5.364
48074SOL    HW245997   7.891  10.965   5.484
48075SOL     OW45998   9.363  12.040  11.962
48075SOL    HW145999   9.334  11.949  11.962
48075SOL    HW246000   9.367  12.064  11.869
48076SOL     OW46001   0.583   1.616   8.539
48076SOL    HW146002   0.520   1.625   8.468
48076SOL    HW246003   0.638   1.541   8.513
48077SOL     OW46004  14.419   2.925   8.869
48077SOL    HW146005  14.483   2.894   8.933
48077SOL    HW246006  14.472   2.959   8.797
48078SOL     OW46007  11.446   0.606  10.395
48078SOL    HW146008  11.374   0.661  10.363
48078SOL    HW246009  11.516   0.617  10.331
48079SOL     OW46010   0.934  13.556   1.964
48079SOL    HW146011   0.897  13.470   1.943
48079SOL    HW246012   0.980  13.542   2.046
48080SOL     OW46013   3.699  11.208   2.849
48080SOL    HW146014   3.691  11.218   2.943
48080SOL    HW246015   3.647  11.130   2.829
48081SOL     OW46016  13.407  14.133   9.293
48081SOL    HW146017  13.395  14.059   9.233
48081SOL    HW246018  13.341  14.119   9.362
48082SOL     OW46019   6.410   0.169   8.029
48082SOL    HW146020   6.415   0.186   7.935
48082SOL    HW246021   6.353   0.093   8.037
48083SOL     OW46022  12.080   8.232   1.542
48083SOL    HW146023  12.063   8.285   1.464
48083SOL    HW246024  12.082   8.142   1.508
48084SOL     OW46025   3.536   5.970  13.943
48084SOL    HW146026   3.631   5.956  13.944
48084SOL    HW246027   3.526   6.065  13.955
48085SOL     OW46028  13.084   2.082  12.697
48085SOL    HW146029  13.166   2.128  12.678
48085SOL    HW246030  13.016   2.141  12.665
48086SOL     OW46031   8.796   7.989  12.094
48086SOL    HW146032   8.887   8.016  12.087
48086SOL    HW246033   8.790   7.946  12.180
48087SOL     OW46034   1.133   9.696   1.497
48087SOL    HW146035   1.038   9.704   1.506
48087SOL    HW246036   1.166   9.698   1.587
48088SOL     OW46037   9.208   8.959   7.018
48088SOL    HW146038   9.142   8.892   7.035
48088SOL    HW246039   9.161   9.027   6.969
48089SOL     OW46040   0.822   1.695  11.138
48089SOL    HW146041   0.917   1.694  11.128
48089SOL    HW246042   0.807   1.747  11.218
48090SOL     OW46043   1.899   3.847   7.045
48090SOL    HW146044   1.900   3.895   6.963
48090SOL    HW246045   1.806   3.832   7.064
48091SOL     OW46046   8.995  11.139   7.871
48091SOL    HW146047   8.921  11.098   7.828
48091SOL    HW246048   9.047  11.176   7.800
48092SOL     OW46049   1.093   1.237  10.037
48092SOL    HW146050   1.084   1.219   9.944
48092SOL    HW246051   1.055   1.161  10.081
48093SOL     OW46052  10.613   9.512   7.087
48093SOL    HW146053  10.660   9.448   7.033
48093SOL    HW246054  10.557   9.559   7.025
48094SOL     OW46055   3.566   0.929   9.128
48094SOL    HW146056   3.477   0.909   9.096
48094SOL    HW246057   3.601   0.844   9.155
48095SOL     OW46058   9.245   0.045   1.391
48095SOL    HW146059   9.234  14.849   1.336
48095SOL    HW246060   9.170   0.043   1.450
48096SOL     OW46061   0.583   8.328   6.277
48096SOL    HW146062   0.524   8.299   6.208
48096SOL    HW246063   0.651   8.261   6.280
48097SOL     OW46064   5.968  12.459   5.589
48097SOL    HW146065   6.001  12.548   5.600
48097SOL    HW246066   6.032  12.404   5.633
48098SOL     OW46067  12.783  13.452  14.105
48098SOL    HW146068  12.755  13.454  14.197
48098SOL    HW246069  12.801  13.544  14.084
48099SOL     OW46070   9.118   8.893  13.081
48099SOL    HW146071   9.103   8.988  13.076
48099SOL    HW246072   9.211   8.885  13.101
48100SOL     OW46073   5.474   9.886  11.228
48100SOL    HW146074   5.442   9.976  11.231
48100SOL    HW246075   5.473   9.857  11.319
48101SOL     OW46076   0.974   3.127  13.426
48101SOL    HW146077   0.973   3.075  13.507
48101SOL    HW246078   0.905   3.088  13.372
48102SOL     OW46079  14.541   8.853   0.608
48102SOL    HW146080  14.517   8.837   0.699
48102SOL    HW246081  14.457   8.868   0.563
48103SOL     OW46082  14.531  12.298   1.807
48103SOL    HW146083  14.521  12.392   1.794
48103SOL    HW246084  14.443  12.262   1.797
48104SOL     OW46085   2.148  13.648   2.902
48104SOL    HW146086   2.138  13.638   2.997
48104SOL    HW246087   2.232  13.693   2.892
48105SOL     OW46088   1.418   8.365  10.490
48105SOL    HW146089   1.493   8.333  10.540
48105SOL    HW246090   1.456   8.418  10.420
48106SOL     OW46091   5.453   5.083   8.149
48106SOL    HW146092   5.461   5.090   8.244
48106SOL    HW246093   5.359   5.096   8.132
48107SOL     OW46094   7.426   2.035  11.382
48107SOL    HW146095   7.397   2.114  11.427
48107SOL    HW246096   7.345   1.992  11.353
48108SOL     OW46097   1.021   5.747   5.370
48108SOL    HW146098   1.023   5.723   5.463
48108SOL    HW246099   1.023   5.663   5.323
48109SOL     OW46100  14.825   6.871   5.253
48109SOL    HW146101  14.875   6.908   5.180
48109SOL    HW246102  14.734   6.885   5.228
48110SOL     OW46103  12.057   0.252   0.432
48110SOL    HW146104  12.116   0.308   0.482
48110SOL    HW246105  12.097   0.247   0.345
48111SOL     OW46106   4.266  11.390   9.809
48111SOL    HW146107   4.257  11.302   9.771
48111SOL    HW246108   4.293  11.445   9.735
48112SOL     OW46109   3.418  14.184  10.999
48112SOL    HW146110   3.467  14.259  11.033
48112SOL    HW246111   3.426  14.190  10.904
48113SOL     OW46112   3.832   5.129   0.045
48113SOL    HW146113   3.790   5.087  14.852
48113SOL    HW246114   3.893   5.192   0.007
48114SOL     OW46115  12.304  12.775   4.159
48114SOL    HW146116  12.289  12.725   4.078
48114SOL    HW246117  12.292  12.866   4.133
48115SOL     OW46118   5.114   4.709   7.593
48115SOL    HW146119   5.019   4.712   7.584
48115SOL    HW246120   5.146   4.772   7.528
48116SOL     OW46121   3.294  10.421  10.931
48116SOL    HW146122   3.307  10.329  10.910
48116SOL    HW246123   3.343  10.468  10.863
48117SOL     OW46124   3.261   0.528   5.370
48117SOL    HW146125   3.252   0.579   5.289
48117SOL    HW246126   3.207   0.575   5.434
48118SOL     OW46127   3.468   9.988   6.295
48118SOL    HW146128   3.377   9.975   6.324
48118SOL    HW246129   3.482  10.082   6.301
48119SOL     OW46130  10.048   1.960  12.703
48119SOL    HW146131  10.073   1.936  12.793
48119SOL    HW246132  10.016   2.050  12.711
48120SOL     OW46133   6.740   9.934   2.876
48120SOL    HW146134   6.793   9.928   2.956
48120SOL    HW246135   6.748   9.849   2.835
48121SOL     OW46136   8.493  10.829   5.812
48121SOL    HW146137   8.429  10.823   5.883
48121SOL    HW246138   8.571  10.868   5.853
48122SOL     OW46139   4.295   8.096   0.873
48122SOL    HW146140   4.369   8.149   0.843
48122SOL    HW246141   4.259   8.058   0.793
48123SOL     OW46142   0.158  13.489   5.220
48123SOL    HW146143   0.137  13.580   5.240
48123SOL    HW246144   0.246  13.492   5.182
48124SOL     OW46145   1.560   1.296   6.464
48124SOL    HW146146   1.641   1.300   6.413
48124SOL    HW246147   1.562   1.373   6.520
48125SOL     OW46148  12.891   7.242   4.636
48125SOL    HW146149  12.953   7.279   4.572
48125SOL    HW246150  12.842   7.177   4.587
48126SOL     OW46151   9.090   6.493   1.823
48126SOL    HW146152   9.057   6.423   1.879
48126SOL    HW246153   9.019   6.556   1.817
48127SOL     OW46154   2.194   3.885  11.165
48127SOL    HW146155   2.169   3.872  11.074
48127SOL    HW246156   2.218   3.797  11.196
48128SOL     OW46157   1.049   7.421   9.389
48128SOL    HW146158   1.144   7.436   9.388
48128SOL    HW246159   1.040   7.327   9.379
48129SOL     OW46160  11.225   3.337   8.625
48129SOL    HW146161  11.211   3.431   8.634
48129SOL    HW246162  11.218   3.302   8.714
48130SOL     OW46163  13.845   3.840  12.952
48130SOL    HW146164  13.939   3.851  12.940
48130SOL    HW246165  13.833   3.839  13.047
48131SOL     OW46166   5.866   4.217   9.662
48131SOL    HW146167   5.893   4.196   9.572
48131SOL    HW246168   5.852   4.312   9.661
48132SOL     OW46169  12.248   6.341   4.126
48132SOL    HW146170  12.322   6.283   4.146
48132SOL    HW246171  12.279   6.396   4.054
48133SOL     OW46172   4.225  13.275   9.784
48133SOL    HW146173   4.237  13.316   9.699
48133SOL    HW246174   4.134  13.294   9.808
48134SOL     OW46175  13.068   2.697   2.491
48134SOL    HW146176  13.068   2.792   2.477
48134SOL    HW246177  12.994   2.666   2.439
48135SOL     OW46178   9.444  11.596  13.843
48135SOL    HW146179   9.360  11.588  13.888
48135SOL    HW246180   9.460  11.510  13.806
48136SOL     OW46181  10.035   9.039  14.241
48136SOL    HW146182  10.085   8.959  14.228
48136SOL    HW246183  10.057   9.095  14.166
48137SOL     OW46184   8.240   1.219  11.967
48137SOL    HW146185   8.174   1.289  11.966
48137SOL    HW246186   8.318   1.260  12.003
48138SOL     OW46187   3.007   2.845   4.305
48138SOL    HW146188   3.085   2.900   4.306
48138SOL    HW246189   2.988   2.832   4.212
48139SOL     OW46190   9.877  10.027  13.621
48139SOL    HW146191   9.838  10.107  13.586
48139SOL    HW246192   9.970  10.033  13.597
48140SOL     OW46193  14.472   4.567   7.464
48140SOL    HW146194  14.481   4.473   7.445
48140SOL    HW246195  14.476   4.572   7.559
48141SOL     OW46196   4.553   3.755   0.054
48141SOL    HW146197   4.544   3.848   0.036
48141SOL    HW246198   4.612   3.723  14.867
48142SOL     OW46199   5.227   1.244  12.584
48142SOL    HW146200   5.234   1.327  12.630
48142SOL    HW246201   5.317   1.226  12.555
48143SOL     OW46202   6.624   7.849   3.627
48143SOL    HW146203   6.671   7.771   3.655
48143SOL    HW246204   6.562   7.817   3.562
48144SOL     OW46205   7.196  12.494   0.503
48144SOL    HW146206   7.172  12.456   0.419
48144SOL    HW246207   7.217  12.418   0.558
48145SOL     OW46208   2.822   4.233  13.336
48145SOL    HW146209   2.731   4.204  13.324
48145SOL    HW246210   2.833   4.236  13.431
48146SOL     OW46211   8.741  10.491  13.398
48146SOL    HW146212   8.820  10.533  13.432
48146SOL    HW246213   8.751  10.399  13.423
48147SOL     OW46214  10.208  11.516   1.217
48147SOL    HW146215  10.143  11.577   1.252
48147SOL    HW246216  10.166  11.478   1.140
48148SOL     OW46217   9.658  11.907  11.229
48148SOL    HW146218   9.645  11.825  11.276
48148SOL    HW246219   9.595  11.968  11.268
48149SOL     OW46220   0.438   1.252   0.450
48149SOL    HW146221   0.433   1.249   0.546
48149SOL    HW246222   0.350   1.277   0.422
48150SOL     OW46223  10.646   2.275  10.837
48150SOL    HW146224  10.556   2.245  10.821
48150SOL    HW246225  10.636   2.348  10.899
48151SOL     OW46226   6.377   9.870   9.611
48151SOL    HW146227   6.401   9.820   9.689
48151SOL    HW246228   6.451   9.930   9.597
48152SOL     OW46229   7.745  13.530  10.240
48152SOL    HW146230   7.771  13.555  10.151
48152SOL    HW246231   7.802  13.457  10.261
48153SOL     OW46232   3.713   4.800   5.257
48153SOL    HW146233   3.727   4.889   5.290
48153SOL    HW246234   3.747   4.743   5.327
48154SOL     OW46235   4.319  14.539   9.833
48154SOL    HW146236   4.256  14.550   9.903
48154SOL    HW246237   4.270  14.557   9.753
48155SOL     OW46238  14.753   7.527   3.589
48155SOL    HW146239  14.741   7.475   3.668
48155SOL    HW246240  14.666   7.536   3.552
48156SOL     OW46241  10.340   2.479   1.106
48156SOL    HW146242  10.338   2.397   1.058
48156SOL    HW246243  10.397   2.536   1.055
48157SOL     OW46244   5.876   7.786   1.690
48157SOL    HW146245   5.910   7.870   1.659
48157SOL    HW246246   5.824   7.808   1.767
48158SOL     OW46247   2.690   2.323  12.175
48158SOL    HW146248   2.645   2.315  12.091
48158SOL    HW246249   2.781   2.302  12.154
48159SOL     OW46250   9.527  11.113  11.124
48159SOL    HW146251   9.591  11.077  11.185
48159SOL    HW246252   9.451  11.133  11.179
48160SOL     OW46253  12.810   6.766   0.309
48160SOL    HW146254  12.875   6.813   0.361
48160SOL    HW246255  12.730   6.819   0.315
48161SOL     OW46256   0.258   7.370  14.581
48161SOL    HW146257   0.272   7.286  14.536
48161SOL    HW246258   0.172   7.361  14.622
48162SOL     OW46259  10.865  14.216   9.628
48162SOL    HW146260  10.878  14.309   9.647
48162SOL    HW246261  10.823  14.215   9.542
48163SOL     OW46262  13.097  14.503   1.157
48163SOL    HW146263  13.063  14.575   1.210
48163SOL    HW246264  13.041  14.502   1.079
48164SOL     OW46265  14.400  13.124   0.740
48164SOL    HW146266  14.448  13.194   0.786
48164SOL    HW246267  14.388  13.158   0.651
48165SOL     OW46268  11.129   2.903   2.036
48165SOL    HW146269  11.188   2.867   1.970
48165SOL    HW246270  11.184   2.958   2.091
48166SOL     OW46271  10.341   0.172   5.378
48166SOL    HW146272  10.278   0.244   5.383
48166SOL    HW246273  10.386   0.173   5.463
48167SOL     OW46274   4.922   4.058  13.454
48167SOL    HW146275   4.965   3.976  13.480
48167SOL    HW246276   4.830   4.045  13.476
48168SOL     OW46277  13.652  14.849  12.281
48168SOL    HW146278  13.651   0.062  12.265
48168SOL    HW246279  13.739  14.821  12.251
48169SOL     OW46280   1.351   6.271   7.637
48169SOL    HW146281   1.324   6.293   7.548
48169SOL    HW246282   1.289   6.204   7.666
48170SOL     OW46283  13.443  11.923   4.899
48170SOL    HW146284  13.481  11.846   4.856
48170SOL    HW246285  13.497  11.997   4.869
48171SOL     OW46286   1.852   4.555   1.267
48171SOL    HW146287   1.790   4.587   1.332
48171SOL    HW246288   1.936   4.552   1.314
48172SOL     OW46289   1.007  13.063   1.164
48172SOL    HW146290   1.062  13.100   1.094
48172SOL    HW246291   1.070  13.030   1.229
48173SOL     OW46292   4.057   5.704   3.976
48173SOL    HW146293   4.133   5.664   3.935
48173SOL    HW246294   4.068   5.687   4.070
48174SOL     OW46295   4.593  13.725   4.628
48174SOL    HW146296   4.677  13.704   4.588
48174SOL    HW246297   4.538  13.649   4.611
48175SOL     OW46298   5.177   3.183   6.153
48175SOL    HW146299   5.206   3.240   6.223
48175SOL    HW246300   5.217   3.098   6.172
48176SOL     OW46301  13.723  10.117  11.845
48176SOL    HW146302  13.763  10.194  11.884
48176SOL    HW246303  13.638  10.147  11.814
48177SOL     OW46304   2.728  12.661  12.310
48177SOL    HW146305   2.815  12.624  12.294
48177SOL    HW246306   2.700  12.620  12.392
48178SOL     OW46307  12.258   1.465   9.589
48178SOL    HW146308  12.165   1.451   9.572
48178SOL    HW246309  12.261   1.496   9.680
48179SOL     OW46310   4.790   6.983  11.964
48179SOL    HW146311   4.727   7.034  12.015
48179SOL    HW246312   4.876   7.018  11.989
48180SOL     OW46313  10.854   8.757   6.641
48180SOL    HW146314  10.833   8.712   6.723
48180SOL    HW246315  10.775   8.808   6.621
48181SOL     OW46316  13.043   7.603   2.780
48181SOL    HW146317  13.058   7.683   2.730
48181SOL    HW246318  12.962   7.619   2.828
48182SOL     OW46319  12.798   0.704  14.074
48182SOL    HW146320  12.881   0.667  14.044
48182SOL    HW246321  12.783   0.780  14.018
48183SOL     OW46322   1.988  13.529   3.514
48183SOL    HW146323   1.951  13.584   3.583
48183SOL    HW246324   1.921  13.527   3.446
48184SOL     OW46325  11.548   2.565  14.091
48184SOL    HW146326  11.610   2.497  14.118
48184SOL    HW246327  11.567   2.639  14.149
48185SOL     OW46328   4.523   1.647   7.436
48185SOL    HW146329   4.496   1.572   7.384
48185SOL    HW246330   4.441   1.687   7.466
48186SOL     OW46331   2.235  12.927   0.395
48186SOL    HW146332   2.193  12.973   0.322
48186SOL    HW246333   2.188  12.957   0.472
48187SOL     OW46334  14.536   9.933  13.883
48187SOL    HW146335  14.507   9.885  13.960
48187SOL    HW246336  14.454   9.963  13.842
48188SOL     OW46337   5.876  10.262  14.529
48188SOL    HW146338   5.834  10.342  14.499
48188SOL    HW246339   5.900  10.216  14.448
48189SOL     OW46340   5.620   6.910   2.952
48189SOL    HW146341   5.681   6.923   2.879
48189SOL    HW246342   5.549   6.856   2.915
48190SOL     OW46343   5.837   3.058   6.962
48190SOL    HW146344   5.786   3.007   7.025
48190SOL    HW246345   5.791   3.048   6.879
48191SOL     OW46346   6.930  14.320   9.087
48191SOL    HW146347   6.914  14.413   9.104
48191SOL    HW246348   6.984  14.319   9.008
48192SOL     OW46349   5.716   1.761   9.096
48192SOL    HW146350   5.722   1.838   9.152
48192SOL    HW246351   5.721   1.687   9.156
48193SOL     OW46352   7.845  12.384   1.217
48193SOL    HW146353   7.827  12.375   1.123
48193SOL    HW246354   7.897  12.307   1.239
48194SOL     OW46355   2.648   8.752  11.857
48194SOL    HW146356   2.598   8.738  11.776
48194SOL    HW246357   2.713   8.818  11.833
48195SOL     OW46358   1.039  12.766  12.637
48195SOL    HW146359   0.978  12.697  12.611
48195SOL    HW246360   1.079  12.795  12.555
48196SOL     OW46361  14.580   5.066  10.194
48196SOL    HW146362  14.609   5.088  10.105
48196SOL    HW246363  14.591   5.147  10.244
48197SOL     OW46364   8.799  13.361   8.566
48197SOL    HW146365   8.796  13.307   8.645
48197SOL    HW246366   8.811  13.298   8.495
48198SOL     OW46367  14.427   8.270  10.581
48198SOL    HW146368  14.372   8.222  10.643
48198SOL    HW246369  14.412   8.362  10.601
48199SOL     OW46370  12.105   5.786   4.531
48199SOL    HW146371  12.085   5.737   4.451
48199SOL    HW246372  12.064   5.872   4.517
48200SOL     OW46373   6.775   8.531   3.246
48200SOL    HW146374   6.823   8.605   3.283
48200SOL    HW246375   6.816   8.454   3.284
48201SOL     OW46376  12.124  12.678  13.161
48201SOL    HW146377  12.054  12.708  13.102
48201SOL    HW246378  12.204  12.686  13.109
48202SOL     OW46379   4.656   7.707  14.774
48202SOL    HW146380   4.597   7.677  14.843
48202SOL    HW246381   4.703   7.781  14.813
48203SOL     OW46382   8.088   8.477   6.885
48203SOL    HW146383   8.122   8.564   6.907
48203SOL    HW246384   7.994   8.490   6.873
48204SOL     OW46385   3.251   8.608  10.334
48204SOL    HW146386   3.203   8.556  10.399
48204SOL    HW246387   3.249   8.555  10.255
48205SOL     OW46388   0.113  11.908   3.746
48205SOL    HW146389   0.021  11.921   3.727
48205SOL    HW246390   0.156  11.987   3.712
48206SOL     OW46391   5.344   7.059   8.537
48206SOL    HW146392   5.355   6.980   8.591
48206SOL    HW246393   5.326   7.129   8.600
48207SOL     OW46394   8.549   6.141   1.779
48207SOL    HW146395   8.543   6.057   1.732
48207SOL    HW246396   8.465   6.183   1.764
48208SOL     OW46397  11.413   8.600   2.003
48208SOL    HW146398  11.453   8.542   1.938
48208SOL    HW246399  11.362   8.663   1.952
48209SOL     OW46400   7.508  13.444  13.340
48209SOL    HW146401   7.505  13.349  13.327
48209SOL    HW246402   7.438  13.478  13.285
48210SOL     OW46403  13.328   9.786   7.843
48210SOL    HW146404  13.258   9.847   7.867
48210SOL    HW246405  13.284   9.716   7.796
48211SOL     OW46406   3.304  13.194  14.225
48211SOL    HW146407   3.340  13.242  14.150
48211SOL    HW246408   3.312  13.255  14.298
48212SOL     OW46409   2.400   0.214  10.927
48212SOL    HW146410   2.359   0.247  11.006
48212SOL    HW246411   2.328   0.175  10.877
48213SOL     OW46412   9.998   5.110   7.492
48213SOL    HW146413   9.954   5.052   7.430
48213SOL    HW246414  10.060   5.054   7.538
48214SOL     OW46415  13.681  14.660   8.864
48214SOL    HW146416  13.601  14.690   8.821
48214SOL    HW246417  13.705  14.732   8.922
48215SOL     OW46418  10.999  13.687  10.231
48215SOL    HW146419  11.041  13.633  10.164
48215SOL    HW246420  11.073  13.726  10.278
48216SOL     OW46421   1.296   8.418   8.908
48216SOL    HW146422   1.349   8.495   8.888
48216SOL    HW246423   1.209   8.453   8.930
48217SOL     OW46424  13.913  13.097   4.267
48217SOL    HW146425  13.956  13.093   4.182
48217SOL    HW246426  13.946  13.020   4.315
48218SOL     OW46427  14.517   7.679  13.669
48218SOL    HW146428  14.538   7.595  13.710
48218SOL    HW246429  14.458   7.658  13.597
48219SOL     OW46430   8.448   4.974   0.160
48219SOL    HW146431   8.422   4.941   0.246
48219SOL    HW246432   8.438   4.899   0.102
48220SOL     OW46433   5.604   7.869   9.621
48220SOL    HW146434   5.666   7.912   9.562
48220SOL    HW246435   5.609   7.920   9.702
48221SOL     OW46436   9.506   0.165   3.014
48221SOL    HW146437   9.600   0.164   3.030
48221SOL    HW246438   9.466   0.165   3.101
48222SOL     OW46439   2.725   4.786  13.411
48222SOL    HW146440   2.688   4.874  13.415
48222SOL    HW246441   2.811   4.798  13.371
48223SOL     OW46442   1.509   1.148   1.852
48223SOL    HW146443   1.559   1.230   1.857
48223SOL    HW246444   1.430   1.165   1.904
48224SOL     OW46445  12.012  10.515  10.232
48224SOL    HW146446  11.998  10.423  10.257
48224SOL    HW246447  11.956  10.527  10.155
48225SOL     OW46448   3.846  13.555   5.018
48225SOL    HW146449   3.872  13.606   5.095
48225SOL    HW246450   3.751  13.550   5.024
48226SOL     OW46451   1.217   3.205   0.862
48226SOL    HW146452   1.183   3.295   0.865
48226SOL    HW246453   1.139   3.151   0.874
48227SOL     OW46454   7.354   4.086  10.746
48227SOL    HW146455   7.389   4.008  10.789
48227SOL    HW246456   7.382   4.077  10.654
48228SOL     OW46457   8.543   9.655   0.132
48228SOL    HW146458   8.467   9.639   0.076
48228SOL    HW246459   8.614   9.607   0.091
48229SOL     OW46460   9.129   7.964   6.647
48229SOL    HW146461   9.139   7.870   6.633
48229SOL    HW246462   9.212   8.002   6.619
48230SOL     OW46463  11.088   3.788  14.182
48230SOL    HW146464  11.124   3.728  14.116
48230SOL    HW246465  11.039   3.731  14.242
48231SOL     OW46466  14.592  14.493   5.562
48231SOL    HW146467  14.568  14.403   5.584
48231SOL    HW246468  14.583  14.498   5.467
48232SOL     OW46469   2.086   8.413  10.235
48232SOL    HW146470   2.121   8.378  10.153
48232SOL    HW246471   2.039   8.492  10.209
48233SOL     OW46472  14.290   4.104  11.037
48233SOL    HW146473  14.317   4.187  11.077
48233SOL    HW246474  14.320   4.111  10.946
48234SOL     OW46475  13.460  10.167  12.096
48234SOL    HW146476  13.475  10.186  12.189
48234SOL    HW246477  13.394  10.098  12.097
48235SOL     OW46478  14.268   7.171   5.036
48235SOL    HW146479  14.204   7.179   4.965
48235SOL    HW246480  14.345   7.131   4.995
48236SOL     OW46481  14.189   2.980   1.589
48236SOL    HW146482  14.265   3.003   1.642
48236SOL    HW246483  14.134   3.059   1.592
48237SOL     OW46484   4.528   3.403   8.675
48237SOL    HW146485   4.533   3.451   8.758
48237SOL    HW246486   4.463   3.335   8.691
48238SOL     OW46487  11.685   4.919  13.938
48238SOL    HW146488  11.615   4.976  13.906
48238SOL    HW246489  11.744   4.908  13.864
48239SOL     OW46490   3.625  12.359   5.174
48239SOL    HW146491   3.625  12.408   5.257
48239SOL    HW246492   3.709  12.312   5.175
48240SOL     OW46493   3.618  10.347   3.676
48240SOL    HW146494   3.659  10.309   3.598
48240SOL    HW246495   3.583  10.431   3.647
48241SOL     OW46496   9.131  11.808  13.791
48241SOL    HW146497   9.188  11.831  13.865
48241SOL    HW246498   9.075  11.884  13.780
48242SOL     OW46499   6.251   0.664   3.995
48242SOL    HW146500   6.283   0.717   3.921
48242SOL    HW246501   6.189   0.721   4.040
48243SOL     OW46502   2.849  11.897  13.124
48243SOL    HW146503   2.923  11.839  13.141
48243SOL    HW246504   2.810  11.863  13.044
48244SOL     OW46505   5.804  14.825   7.675
48244SOL    HW146506   5.762  14.762   7.734
48244SOL    HW246507   5.765   0.028   7.699
48245SOL     OW46508   9.907   4.369   0.477
48245SOL    HW146509   9.912   4.387   0.571
48245SOL    HW246510   9.863   4.285   0.471
48246SOL     OW46511  13.807   4.972   8.306
48246SOL    HW146512  13.778   5.024   8.381
48246SOL    HW246513  13.807   4.882   8.337
48247SOL     OW46514   1.118   4.243  12.679
48247SOL    HW146515   1.205   4.211  12.702
48247SOL    HW246516   1.058   4.179  12.718
48248SOL     OW46517   1.147   4.955   8.422
48248SOL    HW146518   1.168   4.873   8.377
48248SOL    HW246519   1.100   4.928   8.501
48249SOL     OW46520   1.701   0.614   2.380
48249SOL    HW146521   1.757   0.548   2.421
48249SOL    HW246522   1.741   0.698   2.404
48250SOL     OW46523   0.109   1.314   0.620
48250SOL    HW146524   0.158   1.235   0.598
48250SOL    HW246525   0.153   1.384   0.571
48251SOL     OW46526   2.406   1.213   3.844
48251SOL    HW146527   2.390   1.134   3.792
48251SOL    HW246528   2.397   1.284   3.781
48252SOL     OW46529   1.735   0.879   5.609
48252SOL    HW146530   1.716   0.806   5.668
48252SOL    HW246531   1.673   0.869   5.537
48253SOL     OW46532   7.677  11.176   6.657
48253SOL    HW146533   7.587  11.155   6.682
48253SOL    HW246534   7.723  11.187   6.741
48254SOL     OW46535   3.118   4.112   4.570
48254SOL    HW146536   3.065   4.036   4.545
48254SOL    HW246537   3.198   4.075   4.605
48255SOL     OW46538   2.844  11.605   0.616
48255SOL    HW146539   2.824  11.557   0.536
48255SOL    HW246540   2.895  11.681   0.586
48256SOL     OW46541   4.642   4.361   8.344
48256SOL    HW146542   4.642   4.283   8.400
48256SOL    HW246543   4.695   4.336   8.268
48257SOL     OW46544   4.645  13.934   2.094
48257SOL    HW146545   4.577  13.905   2.034
48257SOL    HW246546   4.629  13.885   2.174
48258SOL     OW46547   2.603  12.478   2.155
48258SOL    HW146548   2.602  12.551   2.217
48258SOL    HW246549   2.519  12.484   2.110
48259SOL     OW46550   4.240   7.394  13.342
48259SOL    HW146551   4.268   7.461  13.404
48259SOL    HW246552   4.235   7.440  13.258
48260SOL     OW46553   3.814   2.327   2.072
48260SOL    HW146554   3.802   2.422   2.073
48260SOL    HW246555   3.832   2.304   2.163
48261SOL     OW46556  13.052   3.961   2.548
48261SOL    HW146557  13.077   3.944   2.458
48261SOL    HW246558  12.956   3.958   2.548
48262SOL     OW46559   0.630   3.744   4.246
48262SOL    HW146560   0.626   3.834   4.278
48262SOL    HW246561   0.721   3.732   4.219
48263SOL     OW46562  12.802  11.817  13.050
48263SOL    HW146563  12.866  11.872  13.095
48263SOL    HW246564  12.849  11.735  13.032
48264SOL     OW46565   1.926   9.061  11.770
48264SOL    HW146566   1.925   9.157  11.769
48264SOL    HW246567   1.843   9.036  11.728
48265SOL     OW46568   8.012  14.609  12.454
48265SOL    HW146569   8.068  14.619  12.531
48265SOL    HW246570   8.059  14.547  12.398
48266SOL     OW46571  10.412   7.986  12.089
48266SOL    HW146572  10.364   7.933  12.026
48266SOL    HW246573  10.384   8.076  12.072
48267SOL     OW46574  12.961   2.399   9.008
48267SOL    HW146575  12.867   2.384   9.012
48267SOL    HW246576  12.988   2.364   8.923
48268SOL     OW46577  12.308  14.758   8.351
48268SOL    HW146578  12.290  14.822   8.420
48268SOL    HW246579  12.249  14.685   8.370
48269SOL     OW46580   3.551   8.651   7.563
48269SOL    HW146581   3.494   8.725   7.586
48269SOL    HW246582   3.575   8.612   7.646
48270SOL     OW46583  13.160  14.803   9.471
48270SOL    HW146584  13.240  14.793   9.523
48270SOL    HW246585  13.188  14.785   9.381
48271SOL     OW46586  10.831  12.468   3.055
48271SOL    HW146587  10.833  12.468   3.151
48271SOL    HW246588  10.785  12.388   3.031
48272SOL     OW46589   7.156  14.259  14.698
48272SOL    HW146590   7.148  14.318  14.772
48272SOL    HW246591   7.109  14.180  14.725
48273SOL     OW46592   9.476   0.829  12.732
48273SOL    HW146593   9.479   0.778  12.813
48273SOL    HW246594   9.559   0.876  12.731
48274SOL     OW46595   6.642   1.352   7.494
48274SOL    HW146596   6.604   1.292   7.430
48274SOL    HW246597   6.734   1.328   7.498
48275SOL     OW46598   7.680   3.594   1.173
48275SOL    HW146599   7.640   3.672   1.134
48275SOL    HW246600   7.668   3.525   1.108
48276SOL     OW46601  13.512  12.071  12.616
48276SOL    HW146602  13.600  12.034  12.610
48276SOL    HW246603  13.502  12.122  12.535
48277SOL     OW46604  13.015   9.752   8.557
48277SOL    HW146605  12.999   9.781   8.647
48277SOL    HW246606  13.103   9.784   8.538
48278SOL     OW46607   7.989  12.489   3.785
48278SOL    HW146608   7.969  12.567   3.836
48278SOL    HW246609   8.049  12.519   3.717
48279SOL     OW46610   1.696   6.616   2.152
48279SOL    HW146611   1.767   6.552   2.159
48279SOL    HW246612   1.666   6.609   2.061
48280SOL     OW46613   1.920   9.451   4.364
48280SOL    HW146614   1.878   9.450   4.450
48280SOL    HW246615   1.857   9.496   4.308
48281SOL     OW46616   0.527   8.788   2.462
48281SOL    HW146617   0.522   8.882   2.477
48281SOL    HW246618   0.484   8.774   2.377
48282SOL     OW46619   2.364   0.192   9.741
48282SOL    HW146620   2.388   0.217   9.652
48282SOL    HW246621   2.305   0.118   9.730
48283SOL     OW46622  10.034   5.694   4.707
48283SOL    HW146623   9.967   5.711   4.641
48283SOL    HW246624  10.007   5.749   4.782
48284SOL     OW46625  12.596  12.638   7.756
48284SOL    HW146626  12.583  12.604   7.668
48284SOL    HW246627  12.532  12.709   7.764
48285SOL     OW46628   1.344   6.825   2.375
48285SOL    HW146629   1.341   6.875   2.456
48285SOL    HW246630   1.326   6.735   2.401
48286SOL     OW46631   6.272   4.986   8.344
48286SOL    HW146632   6.243   5.023   8.428
48286SOL    HW246633   6.358   4.948   8.364
48287SOL     OW46634   1.566  12.460  14.831
48287SOL    HW146635   1.557  12.511   0.030
48287SOL    HW246636   1.659  12.470  14.808
48288SOL     OW46637   6.280   7.515   6.507
48288SOL    HW146638   6.202   7.505   6.561
48288SOL    HW246639   6.328   7.433   6.518
48289SOL     OW46640   2.552   2.577  11.276
48289SOL    HW146641   2.623   2.516  11.293
48289SOL    HW246642   2.536   2.570  11.182
48290SOL     OW46643  10.580   6.945  11.540
48290SOL    HW146644  10.668   6.935  11.505
48290SOL    HW246645  10.542   7.018  11.492
48291SOL     OW46646   3.247   5.484   7.084
48291SOL    HW146647   3.246   5.567   7.036
48291SOL    HW246648   3.314   5.432   7.040
48292SOL     OW46649  14.064   4.809   7.158
48292SOL    HW146650  14.101   4.762   7.233
48292SOL    HW246651  14.118   4.781   7.083
48293SOL     OW46652   7.503  13.933   2.165
48293SOL    HW146653   7.456  13.964   2.087
48293SOL    HW246654   7.513  13.838   2.150
48294SOL     OW46655   2.472  14.157  11.273
48294SOL    HW146656   2.438  14.243  11.247
48294SOL    HW246657   2.406  14.122  11.333
48295SOL     OW46658  11.895  14.843   1.333
48295SOL    HW146659  11.838  14.767   1.343
48295SOL    HW246660  11.906  14.876   1.423
48296SOL     OW46661  12.703   1.612   3.538
48296SOL    HW146662  12.618   1.577   3.511
48296SOL    HW246663  12.693   1.633   3.631
48297SOL     OW46664   0.764  10.865  14.086
48297SOL    HW146665   0.855  10.892  14.072
48297SOL    HW246666   0.771  10.777  14.121
48298SOL     OW46667   4.209   9.071   4.997
48298SOL    HW146668   4.188   9.160   5.025
48298SOL    HW246669   4.154   9.057   4.920
48299SOL     OW46670   9.088   5.215   5.510
48299SOL    HW146671   9.020   5.274   5.480
48299SOL    HW246672   9.090   5.145   5.445
48300SOL     OW46673  13.075   9.475   3.509
48300SOL    HW146674  13.018   9.544   3.473
48300SOL    HW246675  13.035   9.453   3.593
48301SOL     OW46676   2.581   7.052   2.630
48301SOL    HW146677   2.571   6.975   2.575
48301SOL    HW246678   2.520   7.039   2.703
48302SOL     OW46679   1.770   7.401  10.348
48302SOL    HW146680   1.726   7.433  10.270
48302SOL    HW246681   1.716   7.329  10.379
48303SOL     OW46682  11.765   5.349   3.021
48303SOL    HW146683  11.831   5.360   3.089
48303SOL    HW246684  11.688   5.318   3.069
48304SOL     OW46685   6.215   3.765   5.177
48304SOL    HW146686   6.177   3.843   5.218
48304SOL    HW246687   6.170   3.692   5.218
48305SOL     OW46688   1.670  11.874   2.582
48305SOL    HW146689   1.636  11.931   2.651
48305SOL    HW246690   1.762  11.899   2.573
48306SOL     OW46691   6.577  12.424  12.567
48306SOL    HW146692   6.538  12.347  12.525
48306SOL    HW246693   6.503  12.467  12.611
48307SOL     OW46694   9.521   9.805   5.391
48307SOL    HW146695   9.473   9.809   5.308
48307SOL    HW246696   9.490   9.724   5.432
48308SOL     OW46697  10.638  12.632  10.380
48308SOL    HW146698  10.702  12.664  10.315
48308SOL    HW246699  10.553  12.646  10.339
48309SOL     OW46700   2.551   0.725   8.005
48309SOL    HW146701   2.456   0.714   8.003
48309SOL    HW246702   2.565   0.812   8.043
48310SOL     OW46703  12.492  11.886   1.489
48310SOL    HW146704  12.578  11.889   1.530
48310SOL    HW246705  12.485  11.797   1.453
48311SOL     OW46706   5.456  10.695   3.930
48311SOL    HW146707   5.463  10.768   3.991
48311SOL    HW246708   5.452  10.736   3.844
48312SOL     OW46709  11.381   7.565  13.913
48312SOL    HW146710  11.329   7.487  13.890
48312SOL    HW246711  11.334   7.638  13.873
48313SOL     OW46712   4.168   9.452  10.344
48313SOL    HW146713   4.200   9.504  10.271
48313SOL    HW246714   4.230   9.379  10.350
48314SOL     OW46715  12.264   1.489   8.446
48314SOL    HW146716  12.208   1.461   8.518
48314SOL    HW246717  12.258   1.585   8.446
48315SOL     OW46718  14.412   9.232  12.366
48315SOL    HW146719  14.444   9.302  12.308
48315SOL    HW246720  14.464   9.241  12.445
48316SOL     OW46721  11.764   1.601   2.870
48316SOL    HW146722  11.757   1.586   2.964
48316SOL    HW246723  11.743   1.516   2.830
48317SOL     OW46724  11.876   9.448   7.963
48317SOL    HW146725  11.908   9.426   7.876
48317SOL    HW246726  11.818   9.523   7.948
48318SOL     OW46727  12.681   7.057   4.596
48318SOL    HW146728  12.637   7.034   4.678
48318SOL    HW246729  12.691   6.974   4.550
48319SOL     OW46730  11.241   6.619  13.770
48319SOL    HW146731  11.199   6.546  13.817
48319SOL    HW246732  11.170   6.681  13.754
48320SOL     OW46733   3.360  14.057   6.429
48320SOL    HW146734   3.353  14.018   6.342
48320SOL    HW246735   3.294  14.011   6.481
48321SOL     OW46736  14.466   1.280  10.924
48321SOL    HW146737  14.482   1.355  10.867
48321SOL    HW246738  14.550   1.263  10.967
48322SOL     OW46739  13.506  13.691   5.226
48322SOL    HW146740  13.498  13.604   5.185
48322SOL    HW246741  13.472  13.678   5.315
48323SOL     OW46742   1.183  14.029  12.769
48323SOL    HW146743   1.232  14.111  12.763
48323SOL    HW246744   1.208  13.992  12.854
48324SOL     OW46745   5.979   3.732   4.476
48324SOL    HW146746   6.022   3.657   4.518
48324SOL    HW246747   5.994   3.804   4.537
48325SOL     OW46748   4.279   5.210   0.243
48325SOL    HW146749   4.321   5.260   0.313
48325SOL    HW246750   4.290   5.119   0.269
48326SOL     OW46751   9.131  10.536   9.953
48326SOL    HW146752   9.116  10.630   9.963
48326SOL    HW246753   9.091  10.514   9.869
48327SOL     OW46754   3.683   6.664   3.287
48327SOL    HW146755   3.701   6.589   3.231
48327SOL    HW246756   3.767   6.710   3.294
48328SOL     OW46757   0.094   9.476   9.507
48328SOL    HW146758   0.061   9.553   9.553
48328SOL    HW246759   0.037   9.404   9.536
48329SOL     OW46760   4.921  12.451   9.571
48329SOL    HW146761   4.860  12.524   9.563
48329SOL    HW246762   5.003  12.483   9.534
48330SOL     OW46763   6.632  10.924   3.578
48330SOL    HW146764   6.636  10.965   3.665
48330SOL    HW246765   6.642  10.997   3.517
48331SOL     OW46766   9.090  14.813  13.029
48331SOL    HW146767   9.015  14.873  13.027
48331SOL    HW246768   9.140  14.840  13.106
48332SOL     OW46769   1.636   3.709   1.342
48332SOL    HW146770   1.727   3.712   1.372
48332SOL    HW246771   1.617   3.616   1.333
48333SOL     OW46772  12.044  10.683   1.075
48333SOL    HW146773  12.107  10.700   1.005
48333SOL    HW246774  12.093  10.630   1.138
48334SOL     OW46775   7.810   4.208   8.291
48334SOL    HW146776   7.798   4.114   8.277
48334SOL    HW246777   7.738   4.232   8.351
48335SOL     OW46778   2.114   3.072   6.457
48335SOL    HW146779   2.164   3.088   6.378
48335SOL    HW246780   2.024   3.057   6.426
48336SOL     OW46781  14.559   5.221   5.299
48336SOL    HW146782  14.582   5.129   5.283
48336SOL    HW246783  14.567   5.231   5.394
48337SOL     OW46784  11.250   8.129   8.112
48337SOL    HW146785  11.311   8.186   8.159
48337SOL    HW246786  11.186   8.103   8.178
48338SOL     OW46787   9.204  12.761  14.397
48338SOL    HW146788   9.152  12.717  14.464
48338SOL    HW246789   9.140  12.808  14.344
48339SOL     OW46790   2.235  12.442   4.194
48339SOL    HW146791   2.242  12.515   4.256
48339SOL    HW246792   2.185  12.477   4.121
48340SOL     OW46793  10.438   5.902  12.102
48340SOL    HW146794  10.392   5.959  12.040
48340SOL    HW246795  10.371   5.877  12.166
48341SOL     OW46796   1.864  12.970  12.601
48341SOL    HW146797   1.955  12.962  12.630
48341SOL    HW246798   1.870  12.998  12.510
48342SOL     OW46799   6.504   1.896   6.522
48342SOL    HW146800   6.493   1.908   6.428
48342SOL    HW246801   6.444   1.958   6.562
48343SOL     OW46802  12.574   0.599   8.771
48343SOL    HW146803  12.554   0.586   8.679
48343SOL    HW246804  12.531   0.682   8.794
48344SOL     OW46805  10.210  14.042  13.735
48344SOL    HW146806  10.178  13.992  13.660
48344SOL    HW246807  10.293  14.000  13.758
48345SOL     OW46808  11.612  11.034  13.066
48345SOL    HW146809  11.542  11.099  13.052
48345SOL    HW246810  11.692  11.087  13.074
48346SOL     OW46811  14.714   5.621   2.401
48346SOL    HW146812  14.768   5.563   2.347
48346SOL    HW246813  14.728   5.590   2.490
48347SOL     OW46814   5.534   1.790   0.762
48347SOL    HW146815   5.562   1.737   0.837
48347SOL    HW246816   5.571   1.876   0.778
48348SOL     OW46817   6.373  13.716   1.636
48348SOL    HW146818   6.303  13.743   1.696
48348SOL    HW246819   6.347  13.629   1.606
48349SOL     OW46820   7.376  12.215   6.606
48349SOL    HW146821   7.363  12.283   6.540
48349SOL    HW246822   7.421  12.260   6.677
48350SOL     OW46823   5.692   6.833  13.591
48350SOL    HW146824   5.621   6.780  13.554
48350SOL    HW246825   5.727   6.883  13.517
48351SOL     OW46826   9.131   2.160  12.552
48351SOL    HW146827   9.135   2.231  12.616
48351SOL    HW246828   9.059   2.183  12.494
48352SOL     OW46829  12.783   9.704   7.200
48352SOL    HW146830  12.738   9.767   7.143
48352SOL    HW246831  12.718   9.635   7.214
48353SOL     OW46832   2.294   7.554  13.682
48353SOL    HW146833   2.262   7.566  13.592
48353SOL    HW246834   2.221   7.514  13.729
48354SOL     OW46835   1.940  13.829  14.529
48354SOL    HW146836   1.900  13.747  14.499
48354SOL    HW246837   1.991  13.805  14.606
48355SOL     OW46838   9.380   9.182   2.016
48355SOL    HW146839   9.294   9.213   1.989
48355SOL    HW246840   9.375   9.174   2.111
48356SOL     OW46841  12.063   8.013   1.400
48356SOL    HW146842  12.051   8.028   1.307
48356SOL    HW246843  12.069   7.918   1.410
48357SOL     OW46844   0.450  12.727   6.875
48357SOL    HW146845   0.438  12.632   6.867
48357SOL    HW246846   0.369  12.758   6.914
48358SOL     OW46847   8.659   8.191   0.549
48358SOL    HW146848   8.599   8.141   0.603
48358SOL    HW246849   8.622   8.185   0.461
48359SOL     OW46850   7.140   2.216  11.143
48359SOL    HW146851   7.218   2.261  11.176
48359SOL    HW246852   7.148   2.127  11.177
48360SOL     OW46853   4.453   2.184   5.501
48360SOL    HW146854   4.533   2.131   5.507
48360SOL    HW246855   4.467   2.240   5.425
48361SOL     OW46856   9.938  14.244  12.614
48361SOL    HW146857   9.939  14.180  12.686
48361SOL    HW246858   9.916  14.327  12.656
48362SOL     OW46859   1.613   1.697   5.861
48362SOL    HW146860   1.638   1.765   5.798
48362SOL    HW246861   1.519   1.711   5.875
48363SOL     OW46862  14.591   3.415   1.663
48363SOL    HW146863  14.522   3.433   1.727
48363SOL    HW246864  14.544   3.382   1.586
48364SOL     OW46865   7.790   7.292   2.601
48364SOL    HW146866   7.758   7.242   2.526
48364SOL    HW246867   7.881   7.263   2.612
48365SOL     OW46868  11.770  11.165   0.835
48365SOL    HW146869  11.677  11.181   0.826
48365SOL    HW246870  11.807  11.187   0.749
48366SOL     OW46871   6.572   6.682   5.222
48366SOL    HW146872   6.538   6.718   5.304
48366SOL    HW246873   6.651   6.635   5.247
48367SOL     OW46874   6.557   4.996   3.910
48367SOL    HW146875   6.508   4.990   3.828
48367SOL    HW246876   6.557   4.906   3.944
48368SOL     OW46877  14.557   5.949  12.871
48368SOL    HW146878  14.604   5.869  12.894
48368SOL    HW246879  14.477   5.918  12.829
48369SOL     OW46880   2.896   9.211   9.450
48369SOL    HW146881   2.847   9.293   9.443
48369SOL    HW246882   2.977   9.236   9.493
48370SOL     OW46883  10.834  11.586  12.007
48370SOL    HW146884  10.920  11.622  11.987
48370SOL    HW246885  10.773  11.641  11.957
48371SOL     OW46886   3.625  11.613   9.554
48371SOL    HW146887   3.651  11.561   9.630
48371SOL    HW246888   3.645  11.703   9.578
48372SOL     OW46889   4.113   9.220   3.079
48372SOL    HW146890   4.168   9.162   3.026
48372SOL    HW246891   4.154   9.218   3.166
48373SOL     OW46892   5.292   4.103   6.165
48373SOL    HW146893   5.366   4.098   6.105
48373SOL    HW246894   5.328   4.141   6.245
48374SOL     OW46895   8.503  10.396   8.987
48374SOL    HW146896   8.564  10.383   8.914
48374SOL    HW246897   8.536  10.340   9.057
48375SOL     OW46898   1.312  11.398   8.965
48375SOL    HW146899   1.308  11.366   9.055
48375SOL    HW246900   1.261  11.334   8.915
48376SOL     OW46901  13.653   3.508   7.231
48376SOL    HW146902  13.719   3.538   7.168
48376SOL    HW246903  13.701   3.501   7.313
48377SOL     OW46904   1.731   4.491   1.750
48377SOL    HW146905   1.742   4.396   1.750
48377SOL    HW246906   1.791   4.522   1.682
48378SOL     OW46907   5.757   6.266  14.669
48378SOL    HW146908   5.845   6.293  14.641
48378SOL    HW246909   5.732   6.198  14.606
48379SOL     OW46910   9.013   0.962   3.847
48379SOL    HW146911   8.981   1.050   3.867
48379SOL    HW246912   9.035   0.965   3.754
48380SOL     OW46913  14.718   1.423  14.015
48380SOL    HW146914  14.776   1.447  13.943
48380SOL    HW246915  14.631   1.418  13.975
48381SOL     OW46916   9.090   6.953   5.174
48381SOL    HW146917   9.103   6.943   5.079
48381SOL    HW246918   9.044   6.874   5.200
48382SOL     OW46919  12.546   5.066   4.415
48382SOL    HW146920  12.592   5.123   4.477
48382SOL    HW246921  12.454   5.091   4.423
48383SOL     OW46922   3.215   6.491   1.926
48383SOL    HW146923   3.188   6.400   1.942
48383SOL    HW246924   3.305   6.484   1.895
48384SOL     OW46925   1.731  10.016   4.210
48384SOL    HW146926   1.775   9.979   4.287
48384SOL    HW246927   1.720   9.942   4.151
48385SOL     OW46928   5.436   3.182  13.220
48385SOL    HW146929   5.488   3.195  13.141
48385SOL    HW246930   5.500   3.157  13.287
48386SOL     OW46931   5.646   9.234   0.379
48386SOL    HW146932   5.608   9.275   0.457
48386SOL    HW246933   5.622   9.292   0.307
48387SOL     OW46934  14.746   1.537   2.446
48387SOL    HW146935  14.805   1.597   2.492
48387SOL    HW246936  14.805   1.477   2.401
48388SOL     OW46937  10.290   3.079   7.528
48388SOL    HW146938  10.237   3.159   7.530
48388SOL    HW246939  10.284   3.048   7.438
48389SOL     OW46940  12.164   8.442   8.542
48389SOL    HW146941  12.254   8.418   8.518
48389SOL    HW246942  12.118   8.358   8.551
48390SOL     OW46943   1.033   5.870   7.839
48390SOL    HW146944   0.963   5.828   7.789
48390SOL    HW246945   1.070   5.800   7.893
48391SOL     OW46946   6.790   9.885   4.352
48391SOL    HW146947   6.835   9.949   4.407
48391SOL    HW246948   6.826   9.900   4.264
48392SOL     OW46949   5.523   4.796   0.436
48392SOL    HW146950   5.594   4.732   0.433
48392SOL    HW246951   5.481   4.789   0.350
48393SOL     OW46952   0.290  11.515   2.084
48393SOL    HW146953   0.333  11.601   2.084
48393SOL    HW246954   0.361  11.452   2.096
48394SOL     OW46955  10.210  14.479  12.272
48394SOL    HW146956  10.196  14.412  12.206
48394SOL    HW246957  10.297  14.515  12.251
48395SOL     OW46958  14.461   3.916   1.516
48395SOL    HW146959  14.496   3.830   1.495
48395SOL    HW246960  14.530   3.977   1.489
48396SOL     OW46961   2.306   9.083  13.978
48396SOL    HW146962   2.334   9.040  14.059
48396SOL    HW246963   2.214   9.105  13.993
48397SOL     OW46964   2.453   6.948   7.177
48397SOL    HW146965   2.539   6.987   7.193
48397SOL    HW246966   2.417   6.999   7.105
48398SOL     OW46967  12.748   9.375   5.382
48398SOL    HW146968  12.747   9.455   5.434
48398SOL    HW246969  12.834   9.375   5.339
48399SOL     OW46970   7.003  14.687  14.472
48399SOL    HW146971   7.033  14.723  14.388
48399SOL    HW246972   7.079  14.639  14.506
48400SOL     OW46973   5.029  10.227   6.766
48400SOL    HW146974   5.094  10.179   6.715
48400SOL    HW246975   5.064  10.229   6.854
48401SOL     OW46976  12.378   8.956  12.270
48401SOL    HW146977  12.446   8.904  12.313
48401SOL    HW246978  12.320   8.983  12.342
48402SOL     OW46979   7.581  10.989  12.191
48402SOL    HW146980   7.633  11.053  12.142
48402SOL    HW246981   7.529  11.042  12.251
48403SOL     OW46982  14.043   2.942   2.308
48403SOL    HW146983  14.105   3.015   2.303
48403SOL    HW246984  13.959   2.980   2.284
48404SOL     OW46985   8.706   7.280   6.527
48404SOL    HW146986   8.654   7.359   6.516
48404SOL    HW246987   8.759   7.296   6.605
48405SOL     OW46988   8.406  12.014   0.467
48405SOL    HW146989   8.373  12.025   0.378
48405SOL    HW246990   8.329  11.998   0.520
48406SOL     OW46991   1.552   9.381   8.452
48406SOL    HW146992   1.625   9.333   8.490
48406SOL    HW246993   1.546   9.461   8.504
48407SOL     OW46994   8.758   7.967   0.756
48407SOL    HW146995   8.754   7.897   0.691
48407SOL    HW246996   8.676   7.958   0.805
48408SOL     OW46997   9.268  10.479   7.732
48408SOL    HW146998   9.179  10.459   7.763
48408SOL    HW246999   9.271  10.439   7.645
48409SOL     OW47000   7.731  12.312  14.874
48409SOL    HW147001   7.738  12.220   0.019
48409SOL    HW247002   7.798  12.357   0.045
48410SOL     OW47003   8.525   3.017   5.306
48410SOL    HW147004   8.595   2.962   5.272
48410SOL    HW247005   8.558   3.048   5.391
48411SOL     OW47006   7.894   2.398   4.137
48411SOL    HW147007   7.904   2.329   4.071
48411SOL    HW247008   7.928   2.359   4.218
48412SOL     OW47009   5.059   5.754   0.918
48412SOL    HW147010   5.065   5.685   0.984
48412SOL    HW247011   5.076   5.709   0.835
48413SOL     OW47012   0.910   4.470   1.845
48413SOL    HW147013   0.919   4.382   1.881
48413SOL    HW247014   0.943   4.464   1.756
48414SOL     OW47015  13.925   1.869   1.717
48414SOL    HW147016  14.009   1.915   1.714
48414SOL    HW247017  13.893   1.873   1.627
48415SOL     OW47018   9.746   2.051  12.375
48415SOL    HW147019   9.679   1.983  12.374
48415SOL    HW247020   9.825   2.009  12.342
48416SOL     OW47021  11.006   1.057   8.513
48416SOL    HW147022  11.055   1.136   8.537
48416SOL    HW247023  10.950   1.085   8.440
48417SOL     OW47024   3.388  14.823   9.384
48417SOL    HW147025   3.384  14.802   9.290
48417SOL    HW247026   3.456  14.765   9.418
48418SOL     OW47027   4.024   9.651   1.288
48418SOL    HW147028   4.066   9.566   1.278
48418SOL    HW247029   3.936   9.631   1.319
48419SOL     OW47030   0.149   5.094   3.004
48419SOL    HW147031   0.128   5.016   3.056
48419SOL    HW247032   0.139   5.065   2.913
48420SOL     OW47033   3.843  14.216  11.841
48420SOL    HW147034   3.791  14.284  11.883
48420SOL    HW247035   3.898  14.180  11.911
48421SOL     OW47036  13.943   7.404  12.409
48421SOL    HW147037  13.942   7.388  12.504
48421SOL    HW247038  13.898   7.328  12.372
48422SOL     OW47039   1.203   8.099   9.660
48422SOL    HW147040   1.169   8.097   9.750
48422SOL    HW247041   1.170   8.181   9.624
48423SOL     OW47042   6.387  10.581  13.215
48423SOL    HW147043   6.447  10.520  13.172
48423SOL    HW247044   6.316  10.527  13.247
48424SOL     OW47045   4.362   8.154  10.908
48424SOL    HW147046   4.443   8.105  10.920
48424SOL    HW247047   4.379   8.240  10.947
48425SOL     OW47048   1.633   2.744   5.382
48425SOL    HW147049   1.577   2.818   5.404
48425SOL    HW247050   1.581   2.692   5.320
48426SOL     OW47051  13.418   1.548  13.902
48426SOL    HW147052  13.366   1.474  13.934
48426SOL    HW247053  13.386   1.623  13.952
48427SOL     OW47054  10.492   8.315   6.395
48427SOL    HW147055  10.480   8.244   6.332
48427SOL    HW247056  10.408   8.321   6.441
48428SOL     OW47057  10.572   8.149   9.529
48428SOL    HW147058  10.527   8.227   9.562
48428SOL    HW247059  10.661   8.178   9.513
48429SOL     OW47060  10.948   3.719   1.487
48429SOL    HW147061  10.996   3.709   1.569
48429SOL    HW247062  11.003   3.776   1.434
48430SOL     OW47063   1.632   5.658   1.110
48430SOL    HW147064   1.597   5.712   1.039
48430SOL    HW247065   1.725   5.652   1.092
48431SOL     OW47066   5.557   2.059   2.322
48431SOL    HW147067   5.468   2.045   2.352
48431SOL    HW247068   5.590   2.131   2.376
48432SOL     OW47069  13.161   2.914   4.515
48432SOL    HW147070  13.223   2.856   4.470
48432SOL    HW247071  13.110   2.954   4.445
48433SOL     OW47072   6.179   6.235   1.127
48433SOL    HW147073   6.133   6.151   1.128
48433SOL    HW247074   6.271   6.211   1.117
48434SOL     OW47075   0.359   0.938  12.717
48434SOL    HW147076   0.394   0.860  12.761
48434SOL    HW247077   0.348   1.002  12.788
48435SOL     OW47078   5.756  12.509   1.149
48435SOL    HW147079   5.765  12.439   1.213
48435SOL    HW247080   5.827  12.570   1.170
48436SOL     OW47081  14.330   5.634  11.579
48436SOL    HW147082  14.323   5.600  11.668
48436SOL    HW247083  14.414   5.602  11.547
48437SOL     OW47084   7.280   6.731   8.567
48437SOL    HW147085   7.301   6.699   8.656
48437SOL    HW247086   7.189   6.705   8.553
48438SOL     OW47087   4.492   8.916  13.303
48438SOL    HW147088   4.551   8.975  13.350
48438SOL    HW247089   4.531   8.829  13.314
48439SOL     OW47090   6.630   8.398   8.620
48439SOL    HW147091   6.606   8.491   8.624
48439SOL    HW247092   6.702   8.390   8.682
48440SOL     OW47093   3.212   9.485   7.832
48440SOL    HW147094   3.166   9.545   7.891
48440SOL    HW247095   3.239   9.540   7.759
48441SOL     OW47096   2.303   9.026   9.975
48441SOL    HW147097   2.360   8.959  10.014
48441SOL    HW247098   2.216   8.987   9.978
48442SOL     OW47099  10.607   0.473   6.522
48442SOL    HW147100  10.692   0.482   6.565
48442SOL    HW247101  10.628   0.436   6.436
48443SOL     OW47102  11.603   9.782  14.613
48443SOL    HW147103  11.666   9.734  14.666
48443SOL    HW247104  11.522   9.778  14.663
48444SOL     OW47105  14.131   6.084  14.302
48444SOL    HW147106  14.225   6.085  14.284
48444SOL    HW247107  14.097   6.011  14.251
48445SOL     OW47108   4.708  13.142   2.308
48445SOL    HW147109   4.778  13.080   2.287
48445SOL    HW247110   4.731  13.221   2.259
48446SOL     OW47111   3.913  12.265  11.077
48446SOL    HW147112   3.925  12.174  11.051
48446SOL    HW247113   3.819  12.274  11.090
48447SOL     OW47114   0.360   0.934   7.462
48447SOL    HW147115   0.306   0.966   7.534
48447SOL    HW247116   0.364   1.008   7.401
48448SOL     OW47117   9.944   9.378   0.510
48448SOL    HW147118   9.897   9.340   0.584
48448SOL    HW247119  10.005   9.310   0.482
48449SOL     OW47120   1.038  12.571   4.134
48449SOL    HW147121   1.092  12.614   4.200
48449SOL    HW247122   1.071  12.604   4.051
48450SOL     OW47123   2.259  13.596   4.459
48450SOL    HW147124   2.266  13.619   4.366
48450SOL    HW247125   2.344  13.558   4.480
48451SOL     OW47126   7.650   8.175  10.058
48451SOL    HW147127   7.625   8.174   9.966
48451SOL    HW247128   7.665   8.267  10.078
48452SOL     OW47129   6.830   2.756   3.937
48452SOL    HW147130   6.790   2.744   4.023
48452SOL    HW247131   6.896   2.824   3.949
48453SOL     OW47132   3.061  10.145   2.671
48453SOL    HW147133   2.999  10.199   2.621
48453SOL    HW247134   3.028  10.147   2.761
48454SOL     OW47135   0.445   8.762   8.248
48454SOL    HW147136   0.384   8.697   8.283
48454SOL    HW247137   0.500   8.785   8.323
48455SOL     OW47138   3.989   0.885   6.894
48455SOL    HW147139   3.983   0.826   6.819
48455SOL    HW247140   3.970   0.829   6.970
48456SOL     OW47141  10.175   9.494   3.916
48456SOL    HW147142  10.174   9.590   3.909
48456SOL    HW247143  10.250   9.467   3.865
48457SOL     OW47144   6.993   4.629   4.924
48457SOL    HW147145   6.965   4.663   5.009
48457SOL    HW247146   6.937   4.675   4.861
48458SOL     OW47147   0.177  10.335   0.509
48458SOL    HW147148   0.242  10.398   0.478
48458SOL    HW247149   0.115  10.326   0.436
48459SOL     OW47150  13.037   9.155   4.048
48459SOL    HW147151  13.073   9.118   4.129
48459SOL    HW247152  12.943   9.160   4.064
48460SOL     OW47153   1.072  11.903   2.419
48460SOL    HW147154   0.988  11.865   2.447
48460SOL    HW247155   1.125  11.827   2.396
48461SOL     OW47156  13.762   4.404   5.575
48461SOL    HW147157  13.840   4.351   5.560
48461SOL    HW247158  13.795   4.487   5.609
48462SOL     OW47159   6.432   6.818  10.169
48462SOL    HW147160   6.343   6.832  10.202
48462SOL    HW247161   6.473   6.905  10.172
48463SOL     OW47162  13.159   0.471   0.542
48463SOL    HW147163  13.072   0.443   0.514
48463SOL    HW247164  13.175   0.421   0.622
48464SOL     OW47165   2.460   6.306   7.181
48464SOL    HW147166   2.378   6.324   7.135
48464SOL    HW247167   2.515   6.381   7.161
48465SOL     OW47168   0.579   4.857  11.635
48465SOL    HW147169   0.656   4.852  11.578
48465SOL    HW247170   0.526   4.781  11.610
48466SOL     OW47171   1.997  10.273   8.556
48466SOL    HW147172   1.958  10.293   8.471
48466SOL    HW247173   2.081  10.233   8.535
48467SOL     OW47174   3.859  10.372   8.455
48467SOL    HW147175   3.898  10.301   8.404
48467SOL    HW247176   3.933  10.413   8.499
48468SOL     OW47177   3.011   6.988  11.333
48468SOL    HW147178   2.967   6.918  11.286
48468SOL    HW247179   2.999   6.967  11.426
48469SOL     OW47180  12.813  12.229   8.829
48469SOL    HW147181  12.874  12.159   8.806
48469SOL    HW247182  12.839  12.302   8.773
48470SOL     OW47183   5.188   0.474  11.676
48470SOL    HW147184   5.113   0.422  11.649
48470SOL    HW247185   5.152   0.538  11.738
48471SOL     OW47186  10.172   5.800   1.895
48471SOL    HW147187  10.113   5.859   1.850
48471SOL    HW247188  10.173   5.830   1.986
48472SOL     OW47189   6.433   4.396   7.826
48472SOL    HW147190   6.418   4.302   7.838
48472SOL    HW247191   6.524   4.410   7.851
48473SOL     OW47192  12.762   6.531  11.338
48473SOL    HW147193  12.772   6.450  11.288
48473SOL    HW247194  12.766   6.600  11.272
48474SOL     OW47195   6.903   8.610  13.138
48474SOL    HW147196   6.884   8.575  13.226
48474SOL    HW247197   6.817   8.621  13.097
48475SOL     OW47198   9.134   6.677  11.194
48475SOL    HW147199   9.221   6.716  11.196
48475SOL    HW247200   9.128   6.637  11.107
48476SOL     OW47201  14.433   2.989   2.528
48476SOL    HW147202  14.483   2.908   2.542
48476SOL    HW247203  14.500   3.056   2.515
48477SOL     OW47204   0.061   5.660  12.913
48477SOL    HW147205   0.152   5.632  12.916
48477SOL    HW247206   0.066   5.755  12.900
48478SOL     OW47207  14.388   1.143   1.049
48478SOL    HW147208  14.447   1.118   0.978
48478SOL    HW247209  14.351   1.061   1.080
48479SOL     OW47210   6.782   4.562  14.298
48479SOL    HW147211   6.700   4.611  14.295
48479SOL    HW247212   6.827   4.595  14.375
48480SOL     OW47213   8.520  11.549   4.763
48480SOL    HW147214   8.577  11.622   4.787
48480SOL    HW247215   8.481  11.575   4.679
48481SOL     OW47216  14.411   0.136   1.725
48481SOL    HW147217  14.385   0.052   1.763
48481SOL    HW247218  14.369   0.201   1.781
48482SOL     OW47219  12.882   8.016   0.073
48482SOL    HW147220  12.830   8.072   0.130
48482SOL    HW247221  12.822   7.990   0.003
48483SOL     OW47222   1.422  13.337  10.111
48483SOL    HW147223   1.448  13.416  10.157
48483SOL    HW247224   1.342  13.360  10.065
48484SOL     OW47225   0.804  11.042  12.032
48484SOL    HW147226   0.847  10.961  12.006
48484SOL    HW247227   0.719  11.015  12.068
48485SOL     OW47228   4.488   6.410  11.740
48485SOL    HW147229   4.431   6.408  11.663
48485SOL    HW247230   4.455   6.483  11.793
48486SOL     OW47231  14.028   1.412   7.749
48486SOL    HW147232  14.016   1.349   7.677
48486SOL    HW247233  14.080   1.482   7.710
48487SOL     OW47234  10.460   1.298  12.173
48487SOL    HW147235  10.389   1.352  12.207
48487SOL    HW247236  10.502   1.353  12.107
48488SOL     OW47237  12.364   6.721   0.632
48488SOL    HW147238  12.453   6.754   0.648
48488SOL    HW247239  12.335   6.769   0.554
48489SOL     OW47240  13.210   4.080  14.460
48489SOL    HW147241  13.226   4.128  14.379
48489SOL    HW247242  13.136   4.125  14.501
48490SOL     OW47243   3.847   5.256   8.820
48490SOL    HW147244   3.825   5.309   8.744
48490SOL    HW247245   3.913   5.195   8.788
48491SOL     OW47246   6.517   4.400   5.495
48491SOL    HW147247   6.445   4.415   5.556
48491SOL    HW247248   6.567   4.329   5.534
48492SOL     OW47249  14.787   4.756   8.485
48492SOL    HW147250  14.824   4.719   8.565
48492SOL    HW247251  14.862   4.773   8.429
48493SOL     OW47252   7.418  12.640   5.173
48493SOL    HW147253   7.491  12.631   5.112
48493SOL    HW247254   7.438  12.577   5.243
48494SOL     OW47255   9.494   1.391  10.145
48494SOL    HW147256   9.402   1.415  10.133
48494SOL    HW247257   9.492   1.296  10.155
48495SOL     OW47258   8.125  12.345   5.952
48495SOL    HW147259   8.101  12.343   6.045
48495SOL    HW247260   8.109  12.435   5.926
48496SOL     OW47261   4.703   0.527  12.462
48496SOL    HW147262   4.641   0.457  12.442
48496SOL    HW247263   4.767   0.524  12.391
48497SOL     OW47264   7.263   5.280   5.265
48497SOL    HW147265   7.266   5.354   5.326
48497SOL    HW247266   7.347   5.284   5.219
48498SOL     OW47267  12.751  10.409   9.726
48498SOL    HW147268  12.760  10.330   9.673
48498SOL    HW247269  12.810  10.395   9.801
48499SOL     OW47270   7.447   8.931   7.348
48499SOL    HW147271   7.470   9.003   7.406
48499SOL    HW247272   7.503   8.858   7.377
48500SOL     OW47273   8.686   3.949  14.067
48500SOL    HW147274   8.607   3.896  14.078
48500SOL    HW247275   8.757   3.885  14.069
48501SOL     OW47276  12.888   1.955   7.578
48501SOL    HW147277  12.877   1.890   7.508
48501SOL    HW247278  12.955   2.015   7.545
48502SOL     OW47279   0.049   9.725   1.557
48502SOL    HW147280   0.110   9.678   1.501
48502SOL    HW247281   0.055   9.816   1.528
48503SOL     OW47282  12.553   8.990   3.590
48503SOL    HW147283  12.459   8.985   3.605
48503SOL    HW247284  12.564   8.973   3.497
48504SOL     OW47285   3.241   6.899   1.112
48504SOL    HW147286   3.235   6.927   1.203
48504SOL    HW247287   3.335   6.888   1.097
48505SOL     OW47288   8.437  14.114   6.575
48505SOL    HW147289   8.350  14.148   6.557
48505SOL    HW247290   8.496  14.170   6.524
48506SOL     OW47291   1.986   8.061  11.757
48506SOL    HW147292   2.062   8.021  11.798
48506SOL    HW247293   2.001   8.155  11.765
48507SOL     OW47294   4.905  14.560   8.371
48507SOL    HW147295   4.916  14.600   8.285
48507SOL    HW247296   4.843  14.489   8.356
48508SOL     OW47297   8.737   9.884   8.027
48508SOL    HW147298   8.807   9.908   7.967
48508SOL    HW247299   8.666   9.852   7.971
48509SOL     OW47300   4.261  13.614   8.241
48509SOL    HW147301   4.291  13.523   8.230
48509SOL    HW247302   4.219  13.615   8.326
48510SOL     OW47303   2.109  12.343   7.113
48510SOL    HW147304   2.181  12.364   7.052
48510SOL    HW247305   2.117  12.249   7.129
48511SOL     OW47306   0.413  14.599  12.149
48511SOL    HW147307   0.468  14.676  12.134
48511SOL    HW247308   0.374  14.581  12.064
48512SOL     OW47309   3.254   5.297   4.005
48512SOL    HW147310   3.291   5.263   3.924
48512SOL    HW247311   3.174   5.343   3.977
48513SOL     OW47312   8.265   0.763   4.320
48513SOL    HW147313   8.204   0.810   4.261
48513SOL    HW247314   8.306   0.697   4.264
48514SOL     OW47315  13.435  14.229   7.195
48514SOL    HW147316  13.369  14.196   7.134
48514SOL    HW247317  13.390  14.230   7.280
48515SOL     OW47318   9.261   3.814   7.521
48515SOL    HW147319   9.272   3.895   7.471
48515SOL    HW247320   9.169   3.813   7.545
48516SOL     OW47321  14.025  11.476   9.183
48516SOL    HW147322  13.961  11.503   9.117
48516SOL    HW247323  13.978  11.412   9.237
48517SOL     OW47324  12.619   7.447   9.979
48517SOL    HW147325  12.568   7.386   9.926
48517SOL    HW247326  12.569   7.528   9.978
48518SOL     OW47327   1.469   6.293   7.006
48518SOL    HW147328   1.505   6.296   7.094
48518SOL    HW247329   1.522   6.356   6.957
48519SOL     OW47330  10.313  12.744   2.720
48519SOL    HW147331  10.222  12.763   2.741
48519SOL    HW247332  10.362  12.817   2.758
48520SOL     OW47333   1.469   3.487   0.719
48520SOL    HW147334   1.513   3.545   0.781
48520SOL    HW247335   1.387   3.462   0.761
48521SOL     OW47336   2.357   3.286   7.830
48521SOL    HW147337   2.401   3.275   7.915
48521SOL    HW247338   2.356   3.381   7.816
48522SOL     OW47339  13.551   6.638  14.238
48522SOL    HW147340  13.524   6.590  14.316
48522SOL    HW247341  13.475   6.690  14.214
48523SOL     OW47342  14.854  11.200  12.759
48523SOL    HW147343  14.820  11.111  12.752
48523SOL    HW247344   0.065  11.189  12.781
48524SOL     OW47345   1.425   7.531  14.507
48524SOL    HW147346   1.445   7.488  14.424
48524SOL    HW247347   1.395   7.619  14.483
48525SOL     OW47348   2.971  13.298   3.408
48525SOL    HW147349   3.056  13.300   3.453
48525SOL    HW247350   2.947  13.391   3.399
48526SOL     OW47351  14.366   1.526  14.219
48526SOL    HW147352  14.442   1.577  14.190
48526SOL    HW247353  14.397   1.436  14.220
48527SOL     OW47354   2.339  13.137  13.201
48527SOL    HW147355   2.431  13.148  13.222
48527SOL    HW247356   2.337  13.074  13.129
48528SOL     OW47357  10.943   2.964   3.747
48528SOL    HW147358  10.975   3.045   3.787
48528SOL    HW247359  10.875   2.993   3.686
48529SOL     OW47360   2.361   4.764   1.843
48529SOL    HW147361   2.410   4.835   1.800
48529SOL    HW247362   2.271   4.795   1.844
48530SOL     OW47363   6.642  12.667   8.815
48530SOL    HW147364   6.723  12.695   8.774
48530SOL    HW247365   6.582  12.741   8.804
48531SOL     OW47366   5.680   4.912  13.124
48531SOL    HW147367   5.595   4.951  13.147
48531SOL    HW247368   5.742   4.984  13.131
48532SOL     OW47369   4.663   5.877   6.607
48532SOL    HW147370   4.624   5.794   6.578
48532SOL    HW247371   4.660   5.873   6.702
48533SOL     OW47372   8.805  10.135   4.575
48533SOL    HW147373   8.824  10.209   4.632
48533SOL    HW247374   8.791  10.061   4.635
48534SOL     OW47375   8.593   3.469   3.422
48534SOL    HW147376   8.600   3.467   3.326
48534SOL    HW247377   8.679   3.496   3.452
48535SOL     OW47378   4.385   5.257   3.382
48535SOL    HW147379   4.292   5.237   3.375
48535SOL    HW247380   4.390   5.323   3.451
48536SOL     OW47381   0.556  10.352   6.204
48536SOL    HW147382   0.555  10.329   6.297
48536SOL    HW247383   0.648  10.369   6.184
48537SOL     OW47384  14.812   7.363  10.013
48537SOL    HW147385   0.007   7.360  10.071
48537SOL    HW247386  14.770   7.446  10.034
48538SOL     OW47387  13.724  13.827  10.836
48538SOL    HW147388  13.636  13.790  10.841
48538SOL    HW247389  13.728  13.889  10.909
48539SOL     OW47390   2.800   6.048   5.551
48539SOL    HW147391   2.840   6.025   5.468
48539SOL    HW247392   2.867   6.099   5.597
48540SOL     OW47393   5.750  14.414  12.109
48540SOL    HW147394   5.747  14.498  12.155
48540SOL    HW247395   5.838  14.412  12.071
48541SOL     OW47396   5.391  10.225   3.452
48541SOL    HW147397   5.342  10.273   3.518
48541SOL    HW247398   5.471  10.196   3.497
48542SOL     OW47399  11.499   9.544   5.352
48542SOL    HW147400  11.437   9.603   5.309
48542SOL    HW247401  11.465   9.456   5.334
48543SOL     OW47402  13.791   1.179  12.927
48543SOL    HW147403  13.865   1.217  12.973
48543SOL    HW247404  13.760   1.109  12.983
48544SOL     OW47405   5.055   0.984   8.909
48544SOL    HW147406   4.974   0.978   8.858
48544SOL    HW247407   5.096   1.065   8.879
48545SOL     OW47408   7.224  11.689   6.462
48545SOL    HW147409   7.180  11.771   6.484
48545SOL    HW247410   7.290  11.714   6.397
48546SOL     OW47411   2.355   1.390   5.872
48546SOL    HW147412   2.447   1.412   5.887
48546SOL    HW247413   2.337   1.318   5.932
48547SOL     OW47414   9.305  10.727   0.941
48547SOL    HW147415   9.356  10.710   1.021
48547SOL    HW247416   9.239  10.658   0.941
48548SOL     OW47417  13.873  10.765   6.017
48548SOL    HW147418  13.917  10.849   6.006
48548SOL    HW247419  13.784  10.781   5.985
48549SOL     OW47420   7.641   1.597  12.127
48549SOL    HW147421   7.675   1.513  12.097
48549SOL    HW247422   7.596   1.577  12.209
48550SOL     OW47423   2.597  12.045   9.573
48550SOL    HW147424   2.547  11.977   9.617
48550SOL    HW247425   2.544  12.124   9.582
48551SOL     OW47426  12.501   1.427   5.978
48551SOL    HW147427  12.575   1.371   5.956
48551SOL    HW247428  12.539   1.513   5.994
48552SOL     OW47429  14.656  11.933   7.024
48552SOL    HW147430  14.656  12.026   7.001
48552SOL    HW247431  14.749  11.910   7.029
48553SOL     OW47432   5.870   8.659  12.995
48553SOL    HW147433   5.941   8.636  12.935
48553SOL    HW247434   5.798   8.684  12.938
48554SOL     OW47435   9.603  10.287  14.389
48554SOL    HW147436   9.631  10.352  14.454
48554SOL    HW247437   9.679  10.230  14.378
48555SOL     OW47438   3.978   9.026  13.847
48555SOL    HW147439   4.001   9.050  13.758
48555SOL    HW247440   4.023   9.090  13.902
48556SOL     OW47441  10.984   0.632  13.435
48556SOL    HW147442  10.950   0.680  13.360
48556SOL    HW247443  10.942   0.673  13.511
48557SOL     OW47444   6.927   1.991  10.337
48557SOL    HW147445   6.857   1.957  10.393
48557SOL    HW247446   6.883   2.049  10.275
48558SOL     OW47447   1.843   4.670   8.506
48558SOL    HW147448   1.768   4.641   8.558
48558SOL    HW247449   1.857   4.761   8.532
48559SOL     OW47450   1.046   8.863  11.944
48559SOL    HW147451   1.007   8.811  12.014
48559SOL    HW247452   0.989   8.846  11.868
48560SOL     OW47453   3.560   1.365   4.461
48560SOL    HW147454   3.564   1.457   4.438
48560SOL    HW247455   3.651   1.340   4.476
48561SOL     OW47456   5.168  10.507   3.665
48561SOL    HW147457   5.106  10.525   3.737
48561SOL    HW247458   5.113  10.492   3.589
48562SOL     OW47459   1.645  10.914  11.591
48562SOL    HW147460   1.673  11.006  11.584
48562SOL    HW247461   1.560  10.912  11.546
48563SOL     OW47462   8.081   1.882  13.578
48563SOL    HW147463   8.112   1.831  13.653
48563SOL    HW247464   8.077   1.972  13.609
48564SOL     OW47465   7.146   0.770   8.901
48564SOL    HW147466   7.168   0.722   8.981
48564SOL    HW247467   7.169   0.861   8.920
48565SOL     OW47468  12.339  11.734   2.054
48565SOL    HW147469  12.315  11.725   2.146
48565SOL    HW247470  12.416  11.790   2.055
48566SOL     OW47471  13.847   6.513   0.532
48566SOL    HW147472  13.925   6.468   0.499
48566SOL    HW247473  13.784   6.443   0.547
48567SOL     OW47474   9.571  11.704   4.734
48567SOL    HW147475   9.665  11.700   4.752
48567SOL    HW247476   9.540  11.614   4.748
48568SOL     OW47477  14.390   3.557   3.796
48568SOL    HW147478  14.454   3.501   3.840
48568SOL    HW247479  14.436   3.640   3.783
48569SOL     OW47480   9.973   4.193  11.311
48569SOL    HW147481  10.052   4.217  11.263
48569SOL    HW247482  10.000   4.189  11.403
48570SOL     OW47483   9.426  13.999   5.919
48570SOL    HW147484   9.404  13.917   5.963
48570SOL    HW247485   9.406  13.984   5.827
48571SOL     OW47486  10.566  11.075  11.764
48571SOL    HW147487  10.580  11.168  11.748
48571SOL    HW247488  10.516  11.044  11.689
48572SOL     OW47489   4.440   4.537  10.371
48572SOL    HW147490   4.516   4.478  10.370
48572SOL    HW247491   4.438   4.574  10.283
48573SOL     OW47492   8.958   8.957  11.109
48573SOL    HW147493   8.970   8.901  11.033
48573SOL    HW247494   8.893   8.912  11.163
48574SOL     OW47495   1.718  12.055  10.697
48574SOL    HW147496   1.720  12.079  10.789
48574SOL    HW247497   1.775  12.120  10.654
48575SOL     OW47498   0.224  12.694   6.172
48575SOL    HW147499   0.250  12.607   6.201
48575SOL    HW247500   0.287  12.716   6.104
48576SOL     OW47501   7.786   9.094   8.353
48576SOL    HW147502   7.722   9.082   8.423
48576SOL    HW247503   7.865   9.125   8.398
48577SOL     OW47504   2.126   4.093   5.863
48577SOL    HW147505   2.075   4.015   5.840
48577SOL    HW247506   2.064   4.166   5.855
48578SOL     OW47507   4.794  11.564   9.070
48578SOL    HW147508   4.742  11.641   9.092
48578SOL    HW247509   4.821  11.578   8.979
48579SOL     OW47510  10.085  12.722   9.212
48579SOL    HW147511  10.117  12.801   9.255
48579SOL    HW247512  10.142  12.652   9.245
48580SOL     OW47513   6.760  14.393   0.484
48580SOL    HW147514   6.737  14.328   0.550
48580SOL    HW247515   6.811  14.459   0.532
48581SOL     OW47516   7.596   9.815  13.968
48581SOL    HW147517   7.567   9.806  13.877
48581SOL    HW247518   7.596   9.726  14.002
48582SOL     OW47519   8.942   3.285   6.670
48582SOL    HW147520   8.857   3.314   6.636
48582SOL    HW247521   9.007   3.335   6.621
48583SOL     OW47522   5.202   3.138   1.887
48583SOL    HW147523   5.278   3.168   1.837
48583SOL    HW247524   5.190   3.205   1.955
48584SOL     OW47525  10.450   3.454   9.903
48584SOL    HW147526  10.464   3.359   9.898
48584SOL    HW247527  10.538   3.491   9.914
48585SOL     OW47528   8.219   3.533   2.014
48585SOL    HW147529   8.193   3.444   1.988
48585SOL    HW247530   8.200   3.536   2.108
48586SOL     OW47531   0.737   4.090   1.066
48586SOL    HW147532   0.741   4.024   0.997
48586SOL    HW247533   0.822   4.134   1.061
48587SOL     OW47534   4.221  13.404   1.651
48587SOL    HW147535   4.199  13.496   1.666
48587SOL    HW247536   4.136  13.360   1.647
48588SOL     OW47537   7.403  12.567   2.724
48588SOL    HW147538   7.361  12.495   2.771
48588SOL    HW247539   7.482  12.528   2.686
48589SOL     OW47540   2.172   1.641  10.485
48589SOL    HW147541   2.239   1.697  10.446
48589SOL    HW247542   2.217   1.558  10.500
48590SOL     OW47543   6.842   5.021   8.770
48590SOL    HW147544   6.789   5.100   8.778
48590SOL    HW247545   6.922   5.040   8.820
48591SOL     OW47546   2.419   1.957   0.419
48591SOL    HW147547   2.479   2.026   0.394
48591SOL    HW247548   2.455   1.878   0.379
48592SOL     OW47549   4.521   4.279   5.180
48592SOL    HW147550   4.494   4.188   5.194
48592SOL    HW247551   4.615   4.278   5.196
48593SOL     OW47552   5.666   8.185   8.134
48593SOL    HW147553   5.761   8.196   8.141
48593SOL    HW247554   5.655   8.112   8.072
48594SOL     OW47555   1.310   9.600   7.973
48594SOL    HW147556   1.310   9.536   7.901
48594SOL    HW247557   1.358   9.675   7.937
48595SOL     OW47558   2.275  10.349   8.730
48595SOL    HW147559   2.333  10.278   8.704
48595SOL    HW247560   2.323  10.394   8.800
48596SOL     OW47561  14.621   7.862   1.326
48596SOL    HW147562  14.537   7.864   1.372
48596SOL    HW247563  14.653   7.952   1.331
48597SOL     OW47564   5.750   0.676   5.840
48597SOL    HW147565   5.820   0.612   5.827
48597SOL    HW247566   5.725   0.666   5.932
48598SOL     OW47567   5.679   8.460   8.021
48598SOL    HW147568   5.586   8.476   8.006
48598SOL    HW247569   5.682   8.374   8.061
48599SOL     OW47570   0.342   5.269   8.539
48599SOL    HW147571   0.372   5.248   8.451
48599SOL    HW247572   0.405   5.334   8.571
48600SOL     OW47573   6.204  13.972  10.151
48600SOL    HW147574   6.299  13.979  10.146
48600SOL    HW247575   6.181  14.006  10.238
48601SOL     OW47576   0.077   7.897  14.360
48601SOL    HW147577   0.003   7.869  14.306
48601SOL    HW247578   0.081   7.992  14.348
48602SOL     OW47579   5.585   8.091   7.277
48602SOL    HW147580   5.595   8.114   7.184
48602SOL    HW247581   5.564   7.998   7.276
48603SOL     OW47582  10.885   5.230   1.400
48603SOL    HW147583  10.843   5.155   1.442
48603SOL    HW247584  10.979   5.209   1.401
48604SOL     OW47585   0.688  11.465   8.079
48604SOL    HW147586   0.716  11.551   8.047
48604SOL    HW247587   0.593  11.473   8.087
48605SOL     OW47588   7.657   3.778   7.723
48605SOL    HW147589   7.577   3.755   7.676
48605SOL    HW247590   7.634   3.859   7.769
48606SOL     OW47591   4.130  10.067   6.528
48606SOL    HW147592   4.092   9.980   6.537
48606SOL    HW247593   4.184  10.078   6.606
48607SOL     OW47594   0.483   0.388   5.449
48607SOL    HW147595   0.534   0.356   5.375
48607SOL    HW247596   0.403   0.336   5.448
48608SOL     OW47597   6.069   7.520   4.993
48608SOL    HW147598   6.153   7.560   5.018
48608SOL    HW247599   6.044   7.467   5.069
48609SOL     OW47600   3.749   9.617  11.760
48609SOL    HW147601   3.799   9.686  11.802
48609SOL    HW247602   3.781   9.615  11.670
48610SOL     OW47603  14.476   0.810   6.686
48610SOL    HW147604  14.509   0.805   6.596
48610SOL    HW247605  14.385   0.837   6.677
48611SOL     OW47606   7.896   8.353   9.941
48611SOL    HW147607   7.815   8.393   9.973
48611SOL    HW247608   7.911   8.279   9.999
48612SOL     OW47609   7.932   0.468  11.750
48612SOL    HW147610   7.980   0.386  11.759
48612SOL    HW247611   7.846   0.442  11.718
48613SOL     OW47612   0.727  13.290  14.147
48613SOL    HW147613   0.647  13.336  14.123
48613SOL    HW247614   0.758  13.251  14.066
48614SOL     OW47615   9.820   1.350  11.683
48614SOL    HW147616   9.901   1.304  11.661
48614SOL    HW247617   9.750   1.296  11.645
48615SOL     OW47618   3.382   4.176  13.981
48615SOL    HW147619   3.446   4.247  13.969
48615SOL    HW247620   3.397   4.145  14.071
48616SOL     OW47621   4.396   6.896  14.714
48616SOL    HW147622   4.362   6.925  14.798
48616SOL    HW247623   4.404   6.801  14.723
48617SOL     OW47624  12.447   3.973   4.783
48617SOL    HW147625  12.435   3.928   4.867
48617SOL    HW247626  12.462   4.065   4.806
48618SOL     OW47627   5.658   3.218   2.001
48618SOL    HW147628   5.697   3.302   2.024
48618SOL    HW247629   5.633   3.227   1.909
48619SOL     OW47630  13.174   4.201  10.722
48619SOL    HW147631  13.179   4.183  10.628
48619SOL    HW247632  13.128   4.125  10.758
48620SOL     OW47633   0.176  11.785   4.845
48620SOL    HW147634   0.082  11.769   4.844
48620SOL    HW247635   0.186  11.877   4.869
48621SOL     OW47636   7.225   3.769   1.133
48621SOL    HW147637   7.298   3.826   1.156
48621SOL    HW247638   7.256   3.719   1.058
48622SOL     OW47639   0.587  12.093   7.812
48622SOL    HW147640   0.683  12.100   7.816
48622SOL    HW247641   0.558  12.177   7.776
48623SOL     OW47642   3.206   6.524   2.444
48623SOL    HW147643   3.278   6.574   2.406
48623SOL    HW247644   3.143   6.591   2.472
48624SOL     OW47645   4.476   2.846  11.382
48624SOL    HW147646   4.427   2.813  11.307
48624SOL    HW247647   4.565   2.857  11.349
48625SOL     OW47648  12.631  11.239   8.792
48625SOL    HW147649  12.541  11.267   8.773
48625SOL    HW247650  12.655  11.287   8.871
48626SOL     OW47651   4.764  13.372   3.549
48626SOL    HW147652   4.684  13.380   3.498
48626SOL    HW247653   4.778  13.460   3.585
48627SOL     OW47654   8.426  11.761   9.107
48627SOL    HW147655   8.496  11.822   9.127
48627SOL    HW247656   8.466  11.698   9.047
48628SOL     OW47657  10.420  10.241  14.282
48628SOL    HW147658  10.489  10.192  14.327
48628SOL    HW247659  10.353  10.254  14.348
48629SOL     OW47660   4.790  14.861  12.828
48629SOL    HW147661   4.835   0.021  12.901
48629SOL    HW247662   4.768   0.051  12.769
48630SOL     OW47663   6.667   2.371  10.179
48630SOL    HW147664   6.742   2.311  10.177
48630SOL    HW247665   6.596   2.318  10.217
48631SOL     OW47666   1.891  13.383  13.372
48631SOL    HW147667   1.969  13.358  13.423
48631SOL    HW247668   1.875  13.474  13.397
48632SOL     OW47669  13.881   4.286   6.041
48632SOL    HW147670  13.931   4.316   6.117
48632SOL    HW247671  13.804   4.343   6.040
48633SOL     OW47672   5.318   2.933   6.131
48633SOL    HW147673   5.312   2.854   6.078
48633SOL    HW247674   5.269   2.913   6.211
48634SOL     OW47675   7.447   4.879   9.159
48634SOL    HW147676   7.525   4.850   9.112
48634SOL    HW247677   7.460   4.850   9.249
48635SOL     OW47678  10.750   8.715  11.739
48635SOL    HW147679  10.824   8.743  11.794
48635SOL    HW247680  10.749   8.620  11.746
48636SOL     OW47681   5.737  12.717   4.940
48636SOL    HW147682   5.692  12.635   4.962
48636SOL    HW247683   5.829  12.700   4.962
48637SOL     OW47684   0.691   9.822  13.906
48637SOL    HW147685   0.703   9.900  13.959
48637SOL    HW247686   0.694   9.854  13.816
48638SOL     OW47687   3.271  10.157   7.976
48638SOL    HW147688   3.296  10.076   8.021
48638SOL    HW247689   3.335  10.221   8.007
48639SOL     OW47690   1.214   8.157   6.409
48639SOL    HW147691   1.162   8.082   6.380
48639SOL    HW247692   1.301   8.120   6.427
48640SOL     OW47693   6.792   0.445   2.742
48640SOL    HW147694   6.850   0.471   2.671
48640SOL    HW247695   6.818   0.501   2.815
48641SOL     OW47696   7.481   4.966  13.909
48641SOL    HW147697   7.510   4.886  13.951
48641SOL    HW247698   7.446   5.020  13.980
48642SOL     OW47699   8.079   8.808  12.029
48642SOL    HW147700   8.073   8.902  12.048
48642SOL    HW247701   8.149   8.801  11.964
48643SOL     OW47702   2.861   5.979   7.188
48643SOL    HW147703   2.933   5.980   7.126
48643SOL    HW247704   2.861   5.890   7.224
48644SOL     OW47705   4.119   4.482  11.894
48644SOL    HW147706   4.132   4.569  11.856
48644SOL    HW247707   4.028   4.461  11.874
48645SOL     OW47708   8.270  10.729  11.800
48645SOL    HW147709   8.238  10.641  11.779
48645SOL    HW247710   8.246  10.782  11.724
48646SOL     OW47711  14.633   1.100   5.050
48646SOL    HW147712  14.552   1.097   5.100
48646SOL    HW247713  14.690   1.035   5.092
48647SOL     OW47714   8.484   7.071   4.289
48647SOL    HW147715   8.389   7.066   4.281
48647SOL    HW247716   8.507   7.154   4.247
48648SOL     OW47717   9.772   3.452   5.221
48648SOL    HW147718   9.789   3.546   5.212
48648SOL    HW247719   9.816   3.413   5.145
48649SOL     OW47720   4.522  13.722   6.608
48649SOL    HW147721   4.524  13.630   6.636
48649SOL    HW247722   4.563  13.770   6.680
48650SOL     OW47723   4.789  13.306   0.649
48650SOL    HW147724   4.779  13.292   0.555
48650SOL    HW247725   4.863  13.365   0.657
48651SOL     OW47726  11.477   7.615   2.845
48651SOL    HW147727  11.424   7.561   2.786
48651SOL    HW247728  11.551   7.559   2.868
48652SOL     OW47729   3.612   1.107  10.058
48652SOL    HW147730   3.600   1.106   9.963
48652SOL    HW247731   3.534   1.065  10.093
48653SOL     OW47732  13.103   2.456  14.135
48653SOL    HW147733  13.064   2.544  14.139
48653SOL    HW247734  13.157   2.451  14.214
48654SOL     OW47735   7.164   1.588   0.614
48654SOL    HW147736   7.119   1.526   0.556
48654SOL    HW247737   7.169   1.543   0.698
48655SOL     OW47738   1.338   2.031   9.314
48655SOL    HW147739   1.392   1.966   9.358
48655SOL    HW247740   1.332   2.002   9.223
48656SOL     OW47741   6.999   3.824   8.878
48656SOL    HW147742   7.065   3.878   8.835
48656SOL    HW247743   7.050   3.761   8.929
48657SOL     OW47744  11.376  12.027   3.691
48657SOL    HW147745  11.347  12.056   3.604
48657SOL    HW247746  11.458  12.074   3.706
48658SOL     OW47747   4.723  12.399   8.912
48658SOL    HW147748   4.646  12.361   8.954
48658SOL    HW247749   4.688  12.450   8.839
48659SOL     OW47750   7.809  14.165   0.008
48659SOL    HW147751   7.729  14.209  14.863
48659SOL    HW247752   7.876  14.199  14.829
48660SOL     OW47753  13.431  11.202  11.563
48660SOL    HW147754  13.522  11.221  11.586
48660SOL    HW247755  13.398  11.285  11.528
48661SOL     OW47756   5.381   0.962   2.409
48661SOL    HW147757   5.443   0.963   2.483
48661SOL    HW247758   5.346   1.050   2.406
48662SOL     OW47759   6.839   9.072   9.211
48662SOL    HW147760   6.913   9.017   9.235
48662SOL    HW247761   6.879   9.152   9.177
48663SOL     OW47762   2.723  10.623  10.639
48663SOL    HW147763   2.784  10.695  10.658
48663SOL    HW247764   2.650  10.638  10.700
48664SOL     OW47765   2.552   6.650   1.710
48664SOL    HW147766   2.503   6.640   1.792
48664SOL    HW247767   2.640   6.621   1.731
48665SOL     OW47768  12.671   6.667   6.673
48665SOL    HW147769  12.635   6.666   6.762
48665SOL    HW247770  12.721   6.586   6.667
48666SOL     OW47771   9.354  11.658   4.536
48666SOL    HW147772   9.412  11.586   4.558
48666SOL    HW247773   9.411  11.724   4.496
48667SOL     OW47774   9.082   4.538  11.391
48667SOL    HW147775   9.047   4.523  11.303
48667SOL    HW247776   9.059   4.459  11.440
48668SOL     OW47777   8.652   3.940   0.800
48668SOL    HW147778   8.746   3.954   0.803
48668SOL    HW247779   8.639   3.852   0.835
48669SOL     OW47780   5.673   9.088   5.560
48669SOL    HW147781   5.578   9.078   5.568
48669SOL    HW247782   5.688   9.095   5.465
48670SOL     OW47783   5.616   8.130   4.534
48670SOL    HW147784   5.663   8.063   4.485
48670SOL    HW247785   5.665   8.210   4.519
48671SOL     OW47786   3.767   3.349  14.506
48671SOL    HW147787   3.767   3.355  14.601
48671SOL    HW247788   3.860   3.339  14.483
48672SOL     OW47789  10.280  13.634   0.938
48672SOL    HW147790  10.321  13.712   0.975
48672SOL    HW247791  10.187  13.644   0.958
48673SOL     OW47792   9.119   3.539  11.717
48673SOL    HW147793   9.144   3.461  11.667
48673SOL    HW247794   9.161   3.527  11.802
48674SOL     OW47795   6.126   3.428   9.647
48674SOL    HW147796   6.147   3.354   9.704
48674SOL    HW247797   6.090   3.387   9.568
48675SOL     OW47798   0.420   7.955   0.745
48675SOL    HW147799   0.473   7.965   0.666
48675SOL    HW247800   0.329   7.957   0.714
48676SOL     OW47801  10.446   1.716  12.089
48676SOL    HW147802  10.480   1.626  12.091
48676SOL    HW247803  10.353   1.706  12.109
48677SOL     OW47804   3.785   6.092   5.635
48677SOL    HW147805   3.875   6.073   5.661
48677SOL    HW247806   3.784   6.078   5.540
48678SOL     OW47807   4.062   7.807   8.338
48678SOL    HW147808   4.118   7.729   8.341
48678SOL    HW247809   4.109   7.871   8.392
48679SOL     OW47810  11.030   0.470   0.767
48679SOL    HW147811  11.051   0.458   0.674
48679SOL    HW247812  11.021   0.382   0.802
48680SOL     OW47813   4.488   6.649   1.500
48680SOL    HW147814   4.446   6.630   1.416
48680SOL    HW247815   4.532   6.567   1.524
48681SOL     OW47816   9.703  11.096   5.335
48681SOL    HW147817   9.667  11.036   5.399
48681SOL    HW247818   9.757  11.156   5.386
48682SOL     OW47819  12.141   4.774   1.893
48682SOL    HW147820  12.081   4.847   1.880
48682SOL    HW247821  12.227   4.815   1.900
48683SOL     OW47822   5.505  10.406   7.176
48683SOL    HW147823   5.524  10.314   7.194
48683SOL    HW247824   5.480  10.408   7.083
48684SOL     OW47825  13.842   0.787   7.791
48684SOL    HW147826  13.836   0.882   7.804
48684SOL    HW247827  13.751   0.757   7.792
48685SOL     OW47828  11.472   4.734   7.813
48685SOL    HW147829  11.402   4.669   7.802
48685SOL    HW247830  11.460   4.794   7.739
48686SOL     OW47831   1.594  10.338   6.222
48686SOL    HW147832   1.589  10.329   6.126
48686SOL    HW247833   1.505  10.362   6.248
48687SOL     OW47834   3.918  10.148  11.910
48687SOL    HW147835   4.005  10.166  11.873
48687SOL    HW247836   3.868  10.113  11.836
48688SOL     OW47837   5.860  10.747   0.701
48688SOL    HW147838   5.865  10.841   0.719
48688SOL    HW247839   5.767  10.729   0.692
48689SOL     OW47840   9.642   3.239   4.482
48689SOL    HW147841   9.593   3.302   4.428
48689SOL    HW247842   9.734   3.260   4.466
48690SOL     OW47843  10.808   1.799   2.417
48690SOL    HW147844  10.889   1.819   2.371
48690SOL    HW247845  10.825   1.714   2.459
48691SOL     OW47846  13.080   2.793   2.969
48691SOL    HW147847  13.128   2.756   2.895
48691SOL    HW247848  13.079   2.887   2.952
48692SOL     OW47849   8.663   8.989   6.255
48692SOL    HW147850   8.659   8.896   6.276
48692SOL    HW247851   8.745   9.019   6.293
48693SOL     OW47852  14.805   9.428  13.274
48693SOL    HW147853  14.816   9.342  13.234
48693SOL    HW247854  14.771   9.411  13.361
48694SOL     OW47855   2.871   2.212   4.250
48694SOL    HW147856   2.882   2.117   4.244
48694SOL    HW247857   2.798   2.231   4.191
48695SOL     OW47858   6.523   6.817  11.707
48695SOL    HW147859   6.550   6.903  11.676
48695SOL    HW247860   6.432   6.809  11.678
48696SOL     OW47861   9.420   6.999  11.557
48696SOL    HW147862   9.381   7.079  11.522
48696SOL    HW247863   9.481   6.971  11.489
48697SOL     OW47864  11.123   3.108   4.005
48697SOL    HW147865  11.142   3.018   4.032
48697SOL    HW247866  11.103   3.153   4.087
48698SOL     OW47867  11.842   7.787   2.509
48698SOL    HW147868  11.919   7.832   2.475
48698SOL    HW247869  11.857   7.695   2.488
48699SOL     OW47870   0.422   2.073   6.128
48699SOL    HW147871   0.334   2.095   6.099
48699SOL    HW247872   0.424   1.977   6.128
48700SOL     OW47873   5.211   8.504   0.102
48700SOL    HW147874   5.262   8.585   0.103
48700SOL    HW247875   5.175   8.499   0.014
48701SOL     OW47876   0.939  14.864   7.884
48701SOL    HW147877   0.877   0.003   7.954
48701SOL    HW247878   1.019   0.028   7.909
48702SOL     OW47879  14.450   9.591   8.626
48702SOL    HW147880  14.443   9.551   8.713
48702SOL    HW247881  14.540   9.623   8.622
48703SOL     OW47882   5.094   4.381   3.322
48703SOL    HW147883   5.024   4.414   3.378
48703SOL    HW247884   5.173   4.387   3.376
48704SOL     OW47885   8.729   9.501  12.286
48704SOL    HW147886   8.692   9.418  12.316
48704SOL    HW247887   8.664   9.535  12.224
48705SOL     OW47888   9.111   5.033   1.038
48705SOL    HW147889   9.054   5.033   0.961
48705SOL    HW247890   9.151   4.947   1.039
48706SOL     OW47891   2.565   1.512  10.444
48706SOL    HW147892   2.528   1.598  10.462
48706SOL    HW247893   2.493   1.450  10.459
48707SOL     OW47894   3.820   3.919   6.980
48707SOL    HW147895   3.809   3.879   6.894
48707SOL    HW247896   3.757   3.875   7.036
48708SOL     OW47897   3.025   7.854   3.806
48708SOL    HW147898   2.990   7.866   3.895
48708SOL    HW247899   3.112   7.893   3.808
48709SOL     OW47900   1.244  13.373   4.465
48709SOL    HW147901   1.151  13.396   4.467
48709SOL    HW247902   1.248  13.296   4.408
48710SOL     OW47903   1.227   8.626  13.325
48710SOL    HW147904   1.221   8.708  13.276
48710SOL    HW247905   1.317   8.596  13.310
48711SOL     OW47906   2.495   2.723   7.575
48711SOL    HW147907   2.473   2.771   7.655
48711SOL    HW247908   2.525   2.638   7.606
48712SOL     OW47909   5.352   4.336   7.465
48712SOL    HW147910   5.330   4.380   7.547
48712SOL    HW247911   5.286   4.368   7.403
48713SOL     OW47912   4.614  11.754   2.113
48713SOL    HW147913   4.633  11.848   2.107
48713SOL    HW247914   4.560  11.745   2.191
48714SOL     OW47915  10.098   9.986   6.726
48714SOL    HW147916  10.106   9.932   6.647
48714SOL    HW247917  10.052   9.930   6.789
48715SOL     OW47918   6.489  14.479   6.254
48715SOL    HW147919   6.575  14.513   6.230
48715SOL    HW247920   6.508  14.410   6.318
48716SOL     OW47921   2.635   5.462   1.738
48716SOL    HW147922   2.726   5.443   1.716
48716SOL    HW247923   2.630   5.451   1.833
48717SOL     OW47924   4.750   3.720  14.760
48717SOL    HW147925   4.741   3.645  14.700
48717SOL    HW247926   4.771   3.794  14.703
48718SOL     OW47927   9.632   1.658  13.977
48718SOL    HW147928   9.617   1.626  13.888
48718SOL    HW247929   9.720   1.695  13.975
48719SOL     OW47930   5.124   0.699  11.082
48719SOL    HW147931   5.217   0.686  11.065
48719SOL    HW247932   5.080   0.628  11.035
48720SOL     OW47933   5.494   3.079   1.600
48720SOL    HW147934   5.536   2.993   1.608
48720SOL    HW247935   5.436   3.071   1.524
48721SOL     OW47936   3.995   3.552   5.106
48721SOL    HW147937   3.973   3.488   5.039
48721SOL    HW247938   3.912   3.570   5.150
48722SOL     OW47939   4.802  12.719  12.324
48722SOL    HW147940   4.725  12.707  12.379
48722SOL    HW247941   4.861  12.647  12.350
48723SOL     OW47942   7.428   7.238   1.011
48723SOL    HW147943   7.433   7.331   1.031
48723SOL    HW247944   7.396   7.198   1.092
48724SOL     OW47945   2.308  14.770   1.822
48724SOL    HW147946   2.240  14.704   1.835
48724SOL    HW247947   2.259  14.853   1.813
48725SOL     OW47948  11.737   3.333   3.932
48725SOL    HW147949  11.646   3.360   3.918
48725SOL    HW247950  11.761   3.286   3.852
48726SOL     OW47951   2.413   6.056   0.463
48726SOL    HW147952   2.421   6.055   0.367
48726SOL    HW247953   2.359   6.133   0.482
48727SOL     OW47954   0.656   0.773   3.209
48727SOL    HW147955   0.722   0.840   3.193
48727SOL    HW247956   0.602   0.773   3.129
48728SOL     OW47957  10.674   5.097  10.598
48728SOL    HW147958  10.638   5.169  10.650
48728SOL    HW247959  10.597   5.053  10.563
48729SOL     OW47960   1.821  13.810  11.012
48729SOL    HW147961   1.758  13.784  10.945
48729SOL    HW247962   1.907  13.792  10.973
48730SOL     OW47963  10.046  11.683   5.676
48730SOL    HW147964  10.010  11.595   5.682
48730SOL    HW247965  10.046  11.715   5.767
48731SOL     OW47966   7.060   5.888   9.158
48731SOL    HW147967   7.028   5.942   9.230
48731SOL    HW247968   7.043   5.941   9.080
48732SOL     OW47969   7.294   9.667  11.509
48732SOL    HW147970   7.343   9.647  11.429
48732SOL    HW247971   7.223   9.604  11.510
48733SOL     OW47972  12.865   5.667   0.006
48733SOL    HW147973  12.932   5.601  14.874
48733SOL    HW247974  12.825   5.644   0.090
48734SOL     OW47975   1.636   6.975   3.038
48734SOL    HW147976   1.594   6.957   2.954
48734SOL    HW247977   1.617   7.067   3.055
48735SOL     OW47978  10.273   1.300   3.906
48735SOL    HW147979  10.284   1.208   3.881
48735SOL    HW247980  10.317   1.349   3.837
48736SOL     OW47981  11.019  10.234  13.644
48736SOL    HW147982  11.065  10.163  13.601
48736SOL    HW247983  10.934  10.197  13.668
48737SOL     OW47984  13.032  13.446   9.194
48737SOL    HW147985  12.980  13.478   9.120
48737SOL    HW247986  13.073  13.525   9.230
48738SOL     OW47987   3.144   4.885  11.986
48738SOL    HW147988   3.130   4.870  11.893
48738SOL    HW247989   3.056   4.891  12.024
48739SOL     OW47990  12.191   5.008   6.454
48739SOL    HW147991  12.113   4.961   6.483
48739SOL    HW247992  12.243   5.020   6.534
48740SOL     OW47993   0.240   1.209  13.594
48740SOL    HW147994   0.144   1.207  13.589
48740SOL    HW247995   0.265   1.117  13.595
48741SOL     OW47996   8.588   0.592  14.426
48741SOL    HW147997   8.601   0.502  14.458
48741SOL    HW247998   8.676   0.621  14.401
48742SOL     OW47999  11.220  13.481  11.450
48742SOL    HW148000  11.178  13.512  11.370
48742SOL    HW248001  11.171  13.523  11.520
48743SOL     OW48002   3.358  14.507   1.055
48743SOL    HW148003   3.295  14.436   1.038
48743SOL    HW248004   3.408  14.477   1.131
48744SOL     OW48005  13.292   0.286   3.236
48744SOL    HW148006  13.345   0.231   3.178
48744SOL    HW248007  13.273   0.364   3.184
48745SOL     OW48008  12.540  10.729   1.339
48745SOL    HW148009  12.565  10.737   1.247
48745SOL    HW248010  12.452  10.767   1.343
48746SOL     OW48011  13.571   6.380   3.765
48746SOL    HW148012  13.603   6.290   3.766
48746SOL    HW248013  13.477   6.371   3.751
48747SOL     OW48014  11.715   7.005   6.222
48747SOL    HW148015  11.721   6.963   6.308
48747SOL    HW248016  11.656   6.948   6.172
48748SOL     OW48017  13.249  14.134   4.778
48748SOL    HW148018  13.163  14.159   4.812
48748SOL    HW248019  13.302  14.118   4.857
48749SOL     OW48020   8.816   7.872   6.831
48749SOL    HW148021   8.883   7.941   6.828
48749SOL    HW248022   8.745   7.905   6.776
48750SOL     OW48023   1.696   2.461  11.379
48750SOL    HW148024   1.671   2.497  11.294
48750SOL    HW248025   1.614   2.429  11.416
48751SOL     OW48026   2.979   7.054  12.960
48751SOL    HW148027   3.065   7.013  12.974
48751SOL    HW248028   2.945   7.069  13.048
48752SOL     OW48029   1.501   7.262  13.523
48752SOL    HW148030   1.450   7.327  13.475
48752SOL    HW248031   1.483   7.179  13.478
48753SOL     OW48032  12.629  10.679  14.078
48753SOL    HW148033  12.653  10.615  14.010
48753SOL    HW248034  12.656  10.763  14.041
48754SOL     OW48035   1.831  12.588  13.192
48754SOL    HW148036   1.769  12.592  13.119
48754SOL    HW248037   1.779  12.557  13.267
48755SOL     OW48038  10.893   5.216   8.087
48755SOL    HW148039  10.901   5.262   8.171
48755SOL    HW248040  10.929   5.129   8.103
48756SOL     OW48041   8.296   9.931   2.432
48756SOL    HW148042   8.250   9.849   2.413
48756SOL    HW248043   8.386   9.905   2.452
48757SOL     OW48044  12.873   3.873  13.273
48757SOL    HW148045  12.862   3.908  13.185
48757SOL    HW248046  12.906   3.947  13.324
48758SOL     OW48047   9.019  13.183   8.722
48758SOL    HW148048   9.031  13.246   8.793
48758SOL    HW248049   8.936  13.139   8.742
48759SOL     OW48050  14.636  12.201  11.500
48759SOL    HW148051  14.678  12.126  11.458
48759SOL    HW248052  14.593  12.165  11.577
48760SOL     OW48053   1.355   2.391   5.589
48760SOL    HW148054   1.444   2.426   5.584
48760SOL    HW248055   1.366   2.298   5.604
48761SOL     OW48056   3.611  14.877   7.114
48761SOL    HW148057   3.658  14.863   7.196
48761SOL    HW248058   3.674  14.853   7.046
48762SOL     OW48059   7.504  10.411   5.068
48762SOL    HW148060   7.444  10.358   5.016
48762SOL    HW248061   7.457  10.493   5.083
48763SOL     OW48062   7.526   3.241   1.507
48763SOL    HW148063   7.467   3.171   1.479
48763SOL    HW248064   7.469   3.317   1.517
48764SOL     OW48065   9.354   5.764  11.409
48764SOL    HW148066   9.399   5.821  11.471
48764SOL    HW248067   9.415   5.692  11.394
48765SOL     OW48068   4.005   5.869   8.502
48765SOL    HW148069   4.093   5.875   8.464
48765SOL    HW248070   3.948   5.853   8.427
48766SOL     OW48071   3.365  13.198  13.309
48766SOL    HW148072   3.287  13.245  13.339
48766SOL    HW248073   3.338  13.106  13.303
48767SOL     OW48074  14.871  11.296   2.360
48767SOL    HW148075  14.793  11.292   2.415
48767SOL    HW248076  14.839  11.321   2.274
48768SOL     OW48077   4.723  13.221   8.016
48768SOL    HW148078   4.672  13.152   8.056
48768SOL    HW248079   4.785  13.175   7.959
48769SOL     OW48080   4.519   6.418  13.145
48769SOL    HW148081   4.478   6.331  13.148
48769SOL    HW248082   4.490   6.460  13.225
48770SOL     OW48083  14.040   8.445   0.237
48770SOL    HW148084  14.019   8.419   0.147
48770SOL    HW248085  14.090   8.527   0.227
48771SOL     OW48086   0.493  14.309  12.627
48771SOL    HW148087   0.589  14.307  12.618
48771SOL    HW248088   0.467  14.217  12.625
48772SOL     OW48089   3.951   2.156   1.096
48772SOL    HW148090   3.883   2.196   1.042
48772SOL    HW248091   3.903   2.097   1.154
48773SOL     OW48092   1.118  14.015  10.349
48773SOL    HW148093   1.145  13.924  10.359
48773SOL    HW248094   1.038  14.023  10.401
48774SOL     OW48095  14.317   9.929  11.846
48774SOL    HW148096  14.359   9.888  11.921
48774SOL    HW248097  14.231   9.888  11.841
48775SOL     OW48098   5.326   3.014   5.693
48775SOL    HW148099   5.277   3.049   5.619
48775SOL    HW248100   5.264   3.015   5.766
48776SOL     OW48101   1.765  12.940   4.370
48776SOL    HW148102   1.817  13.007   4.326
48776SOL    HW248103   1.691  12.987   4.408
48777SOL     OW48104   5.425  13.648  14.508
48777SOL    HW148105   5.505  13.633  14.457
48777SOL    HW248106   5.362  13.585  14.472
48778SOL     OW48107   2.192   9.255   4.835
48778SOL    HW148108   2.212   9.338   4.791
48778SOL    HW248109   2.203   9.189   4.767
48779SOL     OW48110  13.444  14.629   4.150
48779SOL    HW148111  13.369  14.609   4.093
48779SOL    HW248112  13.406  14.678   4.223
48780SOL     OW48113   6.732   5.860   1.126
48780SOL    HW148114   6.743   5.953   1.141
48780SOL    HW248115   6.669   5.832   1.193
48781SOL     OW48116   2.623   3.512   2.459
48781SOL    HW148117   2.649   3.541   2.546
48781SOL    HW248118   2.702   3.520   2.406
48782SOL     OW48119  13.231   6.392   7.495
48782SOL    HW148120  13.317   6.356   7.474
48782SOL    HW248121  13.212   6.357   7.583
48783SOL     OW48122  10.907   2.879  12.556
48783SOL    HW148123  10.854   2.956  12.535
48783SOL    HW248124  10.976   2.911  12.613
48784SOL     OW48125   0.293   1.757   7.039
48784SOL    HW148126   0.384   1.745   7.064
48784SOL    HW248127   0.243   1.732   7.117
48785SOL     OW48128   4.322   6.194   7.767
48785SOL    HW148129   4.256   6.258   7.740
48785SOL    HW248130   4.405   6.230   7.737
48786SOL     OW48131   7.940   4.912  13.893
48786SOL    HW148132   8.006   4.850  13.924
48786SOL    HW248133   7.916   4.881  13.806
48787SOL     OW48134   2.478   7.892   2.314
48787SOL    HW148135   2.506   7.869   2.225
48787SOL    HW248136   2.396   7.940   2.301
48788SOL     OW48137   1.560  11.386   5.935
48788SOL    HW148138   1.636  11.358   5.884
48788SOL    HW248139   1.590  11.463   5.982
48789SOL     OW48140   3.291   1.152   6.692
48789SOL    HW148141   3.342   1.089   6.742
48789SOL    HW248142   3.316   1.137   6.601
48790SOL     OW48143   9.170  11.018  11.871
48790SOL    HW148144   9.252  11.067  11.866
48790SOL    HW248145   9.104  11.078  11.836
48791SOL     OW48146   5.594   7.790  11.456
48791SOL    HW148147   5.652   7.729  11.500
48791SOL    HW248148   5.611   7.874  11.499
48792SOL     OW48149  11.329  11.940   9.384
48792SOL    HW148150  11.397  11.984   9.333
48792SOL    HW248151  11.377  11.877   9.438
48793SOL     OW48152  10.028   2.420   8.946
48793SOL    HW148153  10.016   2.477   8.870
48793SOL    HW248154  10.094   2.465   8.999
48794SOL     OW48155   0.788  11.619   0.628
48794SOL    HW148156   0.859  11.614   0.563
48794SOL    HW248157   0.783  11.531   0.665
48795SOL     OW48158   8.634  13.885   5.421
48795SOL    HW148159   8.621  13.836   5.502
48795SOL    HW248160   8.727  13.876   5.402
48796SOL     OW48161   4.411   7.951   0.067
48796SOL    HW148162   4.443   8.030   0.111
48796SOL    HW248163   4.440   7.879   0.123
48797SOL     OW48164  10.795   8.003   5.931
48797SOL    HW148165  10.713   7.966   5.966
48797SOL    HW248166  10.803   7.964   5.844
48798SOL     OW48167  11.849  14.662   0.898
48798SOL    HW148168  11.910  14.736   0.897
48798SOL    HW248169  11.785  14.684   0.965
48799SOL     OW48170   3.440  14.324  13.294
48799SOL    HW148171   3.361  14.286  13.257
48799SOL    HW248172   3.480  14.252  13.344
48800SOL     OW48173   1.688   4.891   1.497
48800SOL    HW148174   1.691   4.964   1.436
48800SOL    HW248175   1.678   4.932   1.583
48801SOL     OW48176   6.935   6.844   9.451
48801SOL    HW148177   6.956   6.935   9.434
48801SOL    HW248178   6.963   6.797   9.372
48802SOL     OW48179   2.927  12.186   8.184
48802SOL    HW148180   2.895  12.100   8.159
48802SOL    HW248181   2.980  12.170   8.262
48803SOL     OW48182   2.713  12.282   6.830
48803SOL    HW148183   2.639  12.315   6.778
48803SOL    HW248184   2.755  12.360   6.865
48804SOL     OW48185   0.395   5.542   2.012
48804SOL    HW148186   0.488   5.552   2.031
48804SOL    HW248187   0.367   5.467   2.065
48805SOL     OW48188   0.987   5.457  12.314
48805SOL    HW148189   1.058   5.447  12.251
48805SOL    HW248190   0.907   5.449  12.261
48806SOL     OW48191   8.025   2.776  11.593
48806SOL    HW148192   8.015   2.872  11.592
48806SOL    HW248193   8.054   2.755  11.504
48807SOL     OW48194   4.739   3.711   0.788
48807SOL    HW148195   4.689   3.690   0.709
48807SOL    HW248196   4.687   3.673   0.860
48808SOL     OW48197   2.254   5.601  11.502
48808SOL    HW148198   2.342   5.567  11.520
48808SOL    HW248199   2.209   5.596  11.586
48809SOL     OW48200  10.847  11.302  11.768
48809SOL    HW148201  10.836  11.298  11.863
48809SOL    HW248202  10.759  11.314  11.734
48810SOL     OW48203  12.894  11.056  14.174
48810SOL    HW148204  12.898  10.999  14.098
48810SOL    HW248205  12.809  11.100  14.167
48811SOL     OW48206  13.343   5.440  10.066
48811SOL    HW148207  13.276   5.416  10.002
48811SOL    HW248208  13.296   5.491  10.132
48812SOL     OW48209   2.729   5.896   7.853
48812SOL    HW148210   2.788   5.971   7.841
48812SOL    HW248211   2.653   5.932   7.899
48813SOL     OW48212   8.697   3.877   6.943
48813SOL    HW148213   8.751   3.808   6.980
48813SOL    HW248214   8.754   3.955   6.945
48814SOL     OW48215   6.127   4.812   1.698
48814SOL    HW148216   6.047   4.766   1.722
48814SOL    HW248217   6.120   4.897   1.742
48815SOL     OW48218  10.819  10.699  11.884
48815SOL    HW148219  10.811  10.647  11.804
48815SOL    HW248220  10.743  10.757  11.882
48816SOL     OW48221   2.952  11.618   7.070
48816SOL    HW148222   2.869  11.629   7.117
48816SOL    HW248223   2.962  11.699   7.020
48817SOL     OW48224   0.752   2.611   5.197
48817SOL    HW148225   0.827   2.574   5.245
48817SOL    HW248226   0.768   2.587   5.106
48818SOL     OW48227  10.898   4.166  10.769
48818SOL    HW148228  10.815   4.203  10.741
48818SOL    HW248229  10.875   4.086  10.817
48819SOL     OW48230   2.094  13.978   8.124
48819SOL    HW148231   2.111  13.893   8.166
48819SOL    HW248232   2.025  14.017   8.177
48820SOL     OW48233  14.022   2.305  10.143
48820SOL    HW148234  13.961   2.298  10.216
48820SOL    HW248235  14.105   2.272  10.178
48821SOL     OW48236  13.813  10.729  10.883
48821SOL    HW148237  13.879  10.675  10.839
48821SOL    HW248238  13.735  10.674  10.886
48822SOL     OW48239   1.521   8.866   3.128
48822SOL    HW148240   1.531   8.810   3.051
48822SOL    HW248241   1.600   8.851   3.179
48823SOL     OW48242  13.971  10.013  14.242
48823SOL    HW148243  13.919   9.940  14.276
48823SOL    HW248244  13.952  10.086  14.301
48824SOL     OW48245   8.617   1.838   5.863
48824SOL    HW148246   8.570   1.921   5.863
48824SOL    HW248247   8.683   1.848   5.932
48825SOL     OW48248   0.844   5.602  10.201
48825SOL    HW148249   0.830   5.695  10.215
48825SOL    HW248250   0.933   5.586  10.233
48826SOL     OW48251   3.903   8.332   6.415
48826SOL    HW148252   3.905   8.299   6.325
48826SOL    HW248253   3.898   8.427   6.405
48827SOL     OW48254  11.932   5.463   3.522
48827SOL    HW148255  11.909   5.486   3.612
48827SOL    HW248256  12.020   5.497   3.510
48828SOL     OW48257   4.274   4.000   7.012
48828SOL    HW148258   4.354   4.011   7.064
48828SOL    HW248259   4.305   3.977   6.924
48829SOL     OW48260  12.554  13.268  13.022
48829SOL    HW148261  12.526  13.314  12.943
48829SOL    HW248262  12.642  13.300  13.040
48830SOL     OW48263  11.577   8.079   7.314
48830SOL    HW148264  11.528   8.103   7.393
48830SOL    HW248265  11.645   8.146   7.307
48831SOL     OW48266   5.215  12.924  11.655
48831SOL    HW148267   5.249  12.968  11.577
48831SOL    HW248268   5.181  12.995  11.710
48832SOL     OW48269   0.243  12.751   7.379
48832SOL    HW148270   0.163  12.725   7.425
48832SOL    HW248271   0.218  12.830   7.330
48833SOL     OW48272  13.480   0.930   6.322
48833SOL    HW148273  13.570   0.949   6.295
48833SOL    HW248274  13.426   0.980   6.261
48834SOL     OW48275  12.309   7.523   8.122
48834SOL    HW148276  12.271   7.440   8.150
48834SOL    HW248277  12.275   7.536   8.033
48835SOL     OW48278   2.371  12.378   1.019
48835SOL    HW148279   2.404  12.468   1.025
48835SOL    HW248280   2.447  12.324   1.040
48836SOL     OW48281   6.947  10.924   3.439
48836SOL    HW148282   6.924  10.975   3.517
48836SOL    HW248283   6.881  10.855   3.435
48837SOL     OW48284   6.752   0.732  13.546
48837SOL    HW148285   6.757   0.670  13.472
48837SOL    HW248286   6.659   0.756  13.551
48838SOL     OW48287  10.710  13.525   9.954
48838SOL    HW148288  10.746  13.442   9.922
48838SOL    HW248289  10.730  13.588   9.885
48839SOL     OW48290   9.595  13.640  10.536
48839SOL    HW148291   9.567  13.618  10.447
48839SOL    HW248292   9.552  13.724  10.554
48840SOL     OW48293   3.563   4.289   4.233
48840SOL    HW148294   3.468   4.288   4.245
48840SOL    HW248295   3.585   4.381   4.217
48841SOL     OW48296   8.827   1.504   3.034
48841SOL    HW148297   8.882   1.535   3.105
48841SOL    HW248298   8.859   1.551   2.957
48842SOL     OW48299   5.615   7.192   3.089
48842SOL    HW148300   5.650   7.196   3.178
48842SOL    HW248301   5.639   7.104   3.058
48843SOL     OW48302  14.841   9.500  10.412
48843SOL    HW148303  14.874   9.560  10.479
48843SOL    HW248304   0.007   9.418  10.428
48844SOL     OW48305   8.385   1.412   3.670
48844SOL    HW148306   8.405   1.420   3.764
48844SOL    HW248307   8.450   1.467   3.627
48845SOL     OW48308  10.160   3.222   4.287
48845SOL    HW148309  10.091   3.217   4.353
48845SOL    HW248310  10.154   3.312   4.253
48846SOL     OW48311   6.405   2.613   7.487
48846SOL    HW148312   6.310   2.607   7.478
48846SOL    HW248313   6.421   2.699   7.525
48847SOL     OW48314   6.998   1.691  10.320
48847SOL    HW148315   6.957   1.757  10.265
48847SOL    HW248316   6.998   1.729  10.408
48848SOL     OW48317   6.795   2.803  11.421
48848SOL    HW148318   6.753   2.884  11.452
48848SOL    HW248319   6.724   2.738  11.421
48849SOL     OW48320   9.799   3.206   6.563
48849SOL    HW148321   9.822   3.298   6.568
48849SOL    HW248322   9.878   3.160   6.591
48850SOL     OW48323   5.501   7.612  13.863
48850SOL    HW148324   5.524   7.520  13.848
48850SOL    HW248325   5.408   7.617  13.842
48851SOL     OW48326   0.382   5.241   9.503
48851SOL    HW148327   0.341   5.226   9.418
48851SOL    HW248328   0.331   5.310   9.543
48852SOL     OW48329  10.291   2.253   3.309
48852SOL    HW148330  10.332   2.328   3.265
48852SOL    HW248331  10.362   2.215   3.361
48853SOL     OW48332  11.792  14.508   2.463
48853SOL    HW148333  11.736  14.580   2.432
48853SOL    HW248334  11.736  14.458   2.523
48854SOL     OW48335   9.209   7.265  11.021
48854SOL    HW148336   9.163   7.349  11.026
48854SOL    HW248337   9.287   7.283  10.969
48855SOL     OW48338  12.181   6.558  12.335
48855SOL    HW148339  12.269   6.525  12.316
48855SOL    HW248340  12.127   6.480  12.340
48856SOL     OW48341   9.319  11.486   5.765
48856SOL    HW148342   9.297  11.554   5.701
48856SOL    HW248343   9.356  11.534   5.839
48857SOL     OW48344  12.523  11.817  13.681
48857SOL    HW148345  12.533  11.910  13.661
48857SOL    HW248346  12.542  11.771  13.599
48858SOL     OW48347  13.312   5.849   0.111
48858SOL    HW148348  13.221   5.874   0.130
48858SOL    HW248349  13.334   5.787   0.180
48859SOL     OW48350   1.610   1.267  14.800
48859SOL    HW148351   1.654   1.321  14.865
48859SOL    HW248352   1.669   1.267  14.725
48860SOL     OW48353  12.057   0.838   5.738
48860SOL    HW148354  12.093   0.869   5.821
48860SOL    HW248355  11.962   0.839   5.751
48861SOL     OW48356  14.131   3.918  13.692
48861SOL    HW148357  14.207   3.907  13.634
48861SOL    HW248358  14.168   3.923  13.780
48862SOL     OW48359  10.860   4.786   9.778
48862SOL    HW148360  10.925   4.841   9.821
48862SOL    HW248361  10.827   4.728   9.846
48863SOL     OW48362   5.308   7.721   0.245
48863SOL    HW148363   5.216   7.699   0.258
48863SOL    HW248364   5.318   7.808   0.283
48864SOL     OW48365   4.882   8.199   4.901
48864SOL    HW148366   4.898   8.125   4.960
48864SOL    HW248367   4.955   8.259   4.917
48865SOL     OW48368   6.703   4.045   6.251
48865SOL    HW148369   6.759   3.970   6.270
48865SOL    HW248370   6.638   4.012   6.189
48866SOL     OW48371   4.748   9.701   4.399
48866SOL    HW148372   4.677   9.703   4.462
48866SOL    HW248373   4.734   9.622   4.348
48867SOL     OW48374   3.285   8.881   3.686
48867SOL    HW148375   3.312   8.972   3.693
48867SOL    HW248376   3.337   8.836   3.754
48868SOL     OW48377   8.306   9.284   1.370
48868SOL    HW148378   8.292   9.216   1.436
48868SOL    HW248379   8.223   9.332   1.368
48869SOL     OW48380   5.262  12.451   6.764
48869SOL    HW148381   5.217  12.509   6.825
48869SOL    HW248382   5.194  12.390   6.735
48870SOL     OW48383   4.498  13.426   1.800
48870SOL    HW148384   4.435  13.406   1.731
48870SOL    HW248385   4.459  13.391   1.880
48871SOL     OW48386  14.240  14.061  10.582
48871SOL    HW148387  14.184  14.077  10.506
48871SOL    HW248388  14.328  14.053  10.545
48872SOL     OW48389   9.000   1.670   3.680
48872SOL    HW148390   9.017   1.662   3.773
48872SOL    HW248391   9.071   1.620   3.638
48873SOL     OW48392  10.421   6.537   9.941
48873SOL    HW148393  10.408   6.594  10.016
48873SOL    HW248394  10.444   6.452   9.979
48874SOL     OW48395   0.542   9.083   2.438
48874SOL    HW148396   0.604   9.144   2.478
48874SOL    HW248397   0.529   9.117   2.349
48875SOL     OW48398   3.374  10.554   4.667
48875SOL    HW148399   3.352  10.561   4.760
48875SOL    HW248400   3.452  10.608   4.657
48876SOL     OW48401   4.182   8.196   4.194
48876SOL    HW148402   4.230   8.136   4.252
48876SOL    HW248403   4.090   8.180   4.214
48877SOL     OW48404  11.304   0.913   5.086
48877SOL    HW148405  11.268   0.838   5.039
48877SOL    HW248406  11.361   0.875   5.153
48878SOL     OW48407  14.337  13.245  12.873
48878SOL    HW148408  14.259  13.296  12.893
48878SOL    HW248409  14.332  13.169  12.932
48879SOL     OW48410   3.619   7.293   8.372
48879SOL    HW148411   3.631   7.203   8.341
48879SOL    HW248412   3.667   7.297   8.455
48880SOL     OW48413   0.200   0.893   3.644
48880SOL    HW148414   0.251   0.958   3.596
48880SOL    HW248415   0.149   0.848   3.577
48881SOL     OW48416   3.974   1.811   4.620
48881SOL    HW148417   3.897   1.754   4.619
48881SOL    HW248418   4.012   1.802   4.533
48882SOL     OW48419   1.790  14.605   0.440
48882SOL    HW148420   1.811  14.694   0.466
48882SOL    HW248421   1.760  14.562   0.520
48883SOL     OW48422   4.338  10.026   9.942
48883SOL    HW148423   4.260  10.029   9.998
48883SOL    HW248424   4.404  10.075   9.990
48884SOL     OW48425   3.003   3.835  10.175
48884SOL    HW148426   3.033   3.769  10.113
48884SOL    HW248427   2.998   3.789  10.259
48885SOL     OW48428   2.653   6.156   8.641
48885SOL    HW148429   2.692   6.228   8.591
48885SOL    HW248430   2.660   6.080   8.584
48886SOL     OW48431  13.988   7.536  11.165
48886SOL    HW148432  13.971   7.471  11.234
48886SOL    HW248433  13.905   7.545  11.119
48887SOL     OW48434   9.250  14.053   1.966
48887SOL    HW148435   9.216  14.115   2.030
48887SOL    HW248436   9.291  13.984   2.019
48888SOL     OW48437   9.076   7.055  14.506
48888SOL    HW148438   9.153   6.998  14.516
48888SOL    HW248439   9.005   7.004  14.545
48889SOL     OW48440  13.302   1.083   4.729
48889SOL    HW148441  13.341   1.159   4.772
48889SOL    HW248442  13.235   1.119   4.671
48890SOL     OW48443  12.526   1.124   9.930
48890SOL    HW148444  12.570   1.039   9.920
48890SOL    HW248445  12.451   1.118   9.871
48891SOL     OW48446   7.085   2.826   5.078
48891SOL    HW148447   7.114   2.744   5.118
48891SOL    HW248448   7.086   2.889   5.150
48892SOL     OW48449   7.842   7.602   3.426
48892SOL    HW148450   7.811   7.570   3.511
48892SOL    HW248451   7.763   7.633   3.382
48893SOL     OW48452   8.818   3.061   4.491
48893SOL    HW148453   8.784   3.151   4.490
48893SOL    HW248454   8.740   3.007   4.485
48894SOL     OW48455   0.489  11.127   0.673
48894SOL    HW148456   0.470  11.200   0.732
48894SOL    HW248457   0.539  11.065   0.726
48895SOL     OW48458   7.714  11.775   0.006
48895SOL    HW148459   7.805  11.744   0.003
48895SOL    HW248460   7.666  11.703   0.046
48896SOL     OW48461   5.917   7.762   6.671
48896SOL    HW148462   5.971   7.805   6.738
48896SOL    HW248463   5.888   7.834   6.615
48897SOL     OW48464  13.378   8.987  10.486
48897SOL    HW148465  13.421   8.903  10.470
48897SOL    HW248466  13.415   9.017  10.569
48898SOL     OW48467   3.066   1.462   9.195
48898SOL    HW148468   2.981   1.495   9.223
48898SOL    HW248469   3.051   1.370   9.175
48899SOL     OW48470  14.676   0.243  10.972
48899SOL    HW148471  14.724   0.209  11.047
48899SOL    HW248472  14.663   0.167  10.915
48900SOL     OW48473   6.121   5.976  10.501
48900SOL    HW148474   6.143   5.884  10.510
48900SOL    HW248475   6.060   5.994  10.572
48901SOL     OW48476   6.508  11.107  11.282
48901SOL    HW148477   6.488  11.150  11.199
48901SOL    HW248478   6.603  11.099  11.282
48902SOL     OW48479   3.069  11.773  13.218
48902SOL    HW148480   3.135  11.834  13.251
48902SOL    HW248481   3.096  11.688  13.252
48903SOL     OW48482   2.001   4.874   1.564
48903SOL    HW148483   1.983   4.952   1.617
48903SOL    HW248484   2.031   4.909   1.479
48904SOL     OW48485   8.853   1.387   4.924
48904SOL    HW148486   8.821   1.445   4.854
48904SOL    HW248487   8.909   1.324   4.879
48905SOL     OW48488   9.010   9.255  14.455
48905SOL    HW148489   9.064   9.252  14.534
48905SOL    HW248490   8.949   9.182  14.465
48906SOL     OW48491   8.257   9.424   6.701
48906SOL    HW148492   8.192   9.466   6.645
48906SOL    HW248493   8.341   9.443   6.659
48907SOL     OW48494  11.797   7.837   8.605
48907SOL    HW148495  11.787   7.912   8.663
48907SOL    HW248496  11.793   7.760   8.662
48908SOL     OW48497   2.047  11.013   3.659
48908SOL    HW148498   2.120  11.028   3.600
48908SOL    HW248499   2.012  10.928   3.633
48909SOL     OW48500   3.861  12.799   7.266
48909SOL    HW148501   3.821  12.738   7.205
48909SOL    HW248502   3.848  12.885   7.226
48910SOL     OW48503   8.940  12.980  10.653
48910SOL    HW148504   8.969  12.900  10.698
48910SOL    HW248505   8.955  12.962  10.560
48911SOL     OW48506   9.965   8.609   2.125
48911SOL    HW148507   9.907   8.684   2.139
48911SOL    HW248508  10.032   8.641   2.065
48912SOL     OW48509   8.816  13.346   9.019
48912SOL    HW148510   8.724  13.350   8.996
48912SOL    HW248511   8.842  13.256   9.000
48913SOL     OW48512  11.633   1.158   5.979
48913SOL    HW148513  11.698   1.093   5.953
48913SOL    HW248514  11.666   1.191   6.063
48914SOL     OW48515   5.680   8.912   9.976
48914SOL    HW148516   5.646   8.822   9.977
48914SOL    HW248517   5.619   8.961  10.032
48915SOL     OW48518   9.405   1.207  13.804
48915SOL    HW148519   9.451   1.135  13.763
48915SOL    HW248520   9.315   1.177  13.813
48916SOL     OW48521  12.930   1.981   3.780
48916SOL    HW148522  12.837   1.973   3.802
48916SOL    HW248523  12.971   2.008   3.862
48917SOL     OW48524  11.748   7.782   2.102
48917SOL    HW148525  11.776   7.715   2.164
48917SOL    HW248526  11.763   7.865   2.148
48918SOL     OW48527   5.046  12.561  10.708
48918SOL    HW148528   4.957  12.547  10.739
48918SOL    HW248529   5.044  12.647  10.667
48919SOL     OW48530   1.272   9.445   6.927
48919SOL    HW148531   1.289   9.405   6.842
48919SOL    HW248532   1.292   9.538   6.914
48920SOL     OW48533   0.144   2.337  13.986
48920SOL    HW148534   0.087   2.351  13.910
48920SOL    HW248535   0.102   2.385  14.057
48921SOL     OW48536   3.265   1.219  11.922
48921SOL    HW148537   3.176   1.222  11.957
48921SOL    HW248538   3.320   1.247  11.995
48922SOL     OW48539   8.633   1.839   3.375
48922SOL    HW148540   8.579   1.789   3.313
48922SOL    HW248541   8.587   1.923   3.384
48923SOL     OW48542  14.772   9.738   5.064
48923SOL    HW148543  14.781   9.824   5.105
48923SOL    HW248544  14.828   9.681   5.118
48924SOL     OW48545  11.942   7.164   3.683
48924SOL    HW148546  11.990   7.171   3.765
48924SOL    HW248547  11.859   7.208   3.699
48925SOL     OW48548  13.794  14.080  14.868
48925SOL    HW148549  13.721  14.018  14.868
48925SOL    HW248550  13.872  14.026   0.001
48926SOL     OW48551   2.195  14.676   2.370
48926SOL    HW148552   2.212  14.705   2.460
48926SOL    HW248553   2.204  14.581   2.374
48927SOL     OW48554  14.679   1.483   4.801
48927SOL    HW148555  14.690   1.517   4.712
48927SOL    HW248556  14.584   1.473   4.811
48928SOL     OW48557   9.464   7.772  11.137
48928SOL    HW148558   9.523   7.784  11.063
48928SOL    HW248559   9.482   7.846  11.195
48929SOL     OW48560   6.078   9.806  10.570
48929SOL    HW148561   6.163   9.770  10.591
48929SOL    HW248562   6.020   9.730  10.562
48930SOL     OW48563   1.730   4.798   2.781
48930SOL    HW148564   1.661   4.860   2.804
48930SOL    HW248565   1.774   4.838   2.706
48931SOL     OW48566   1.296   8.894   8.513
48931SOL    HW148567   1.267   8.849   8.592
48931SOL    HW248568   1.226   8.956   8.493
48932SOL     OW48569   4.085   3.363   6.501
48932SOL    HW148570   4.099   3.299   6.570
48932SOL    HW248571   4.091   3.448   6.546
48933SOL     OW48572  10.160  11.825   7.130
48933SOL    HW148573  10.208  11.768   7.071
48933SOL    HW248574  10.170  11.913   7.094
48934SOL     OW48575   5.763  10.512   5.329
48934SOL    HW148576   5.854  10.488   5.311
48934SOL    HW248577   5.740  10.463   5.408
48935SOL     OW48578  14.677   1.954   5.532
48935SOL    HW148579  14.665   2.007   5.453
48935SOL    HW248580  14.695   1.866   5.500
48936SOL     OW48581   4.837   2.743   5.248
48936SOL    HW148582   4.812   2.834   5.258
48936SOL    HW248583   4.782   2.695   5.310
48937SOL     OW48584   1.829   5.988   2.813
48937SOL    HW148585   1.917   5.995   2.776
48937SOL    HW248586   1.842   5.997   2.907
48938SOL     OW48587  12.611   3.843  11.533
48938SOL    HW148588  12.541   3.847  11.598
48938SOL    HW248589  12.589   3.768  11.478
48939SOL     OW48590   0.712  12.590   6.537
48939SOL    HW148591   0.770  12.525   6.497
48939SOL    HW248592   0.629  12.580   6.491
48940SOL     OW48593  14.293  10.147   6.860
48940SOL    HW148594  14.275  10.108   6.945
48940SOL    HW248595  14.257  10.084   6.797
48941SOL     OW48596  14.236   1.663  12.596
48941SOL    HW148597  14.277   1.652  12.510
48941SOL    HW248598  14.290   1.610  12.655
48942SOL     OW48599   5.577   5.673  12.598
48942SOL    HW148600   5.497   5.694  12.549
48942SOL    HW248601   5.615   5.599  12.551
48943SOL     OW48602   9.726   0.084   4.234
48943SOL    HW148603   9.689   0.017   4.292
48943SOL    HW248604   9.653   0.112   4.180
48944SOL     OW48605  11.046   9.449   6.586
48944SOL    HW148606  11.131   9.486   6.607
48944SOL    HW248607  10.992   9.468   6.663
48945SOL     OW48608   3.397   8.722   0.873
48945SOL    HW148609   3.341   8.798   0.887
48945SOL    HW248610   3.375   8.662   0.945
48946SOL     OW48611  12.947  12.198   6.456
48946SOL    HW148612  13.016  12.260   6.480
48946SOL    HW248613  12.866  12.245   6.475
48947SOL     OW48614  13.152   3.219   8.360
48947SOL    HW148615  13.206   3.145   8.388
48947SOL    HW248616  13.081   3.180   8.310
48948SOL     OW48617   1.166   2.353  14.720
48948SOL    HW148618   1.165   2.260  14.743
48948SOL    HW248619   1.214   2.356  14.637
48949SOL     OW48620  11.026   3.121   2.711
48949SOL    HW148621  10.931   3.110   2.705
48949SOL    HW248622  11.061   3.049   2.658
48950SOL     OW48623   3.760  11.261  14.770
48950SOL    HW148624   3.803  11.312  14.701
48950SOL    HW248625   3.829  11.202  14.802
48951SOL     OW48626   8.765  14.423   6.043
48951SOL    HW148627   8.745  14.486   6.112
48951SOL    HW248628   8.684  14.375   6.030
48952SOL     OW48629   8.867  12.523  11.446
48952SOL    HW148630   8.774  12.527  11.466
48952SOL    HW248631   8.899  12.612  11.459
48953SOL     OW48632   6.812   2.230   1.098
48953SOL    HW148633   6.792   2.322   1.081
48953SOL    HW248634   6.758   2.181   1.036
48954SOL     OW48635  12.182  10.367   0.434
48954SOL    HW148636  12.249  10.313   0.476
48954SOL    HW248637  12.220  10.392   0.350
48955SOL     OW48638   2.070  10.261   0.528
48955SOL    HW148639   2.005  10.300   0.470
48955SOL    HW248640   2.063  10.167   0.513
48956SOL     OW48641   5.994   0.484   2.596
48956SOL    HW148642   5.999   0.408   2.654
48956SOL    HW248643   5.922   0.464   2.536
48957SOL     OW48644   1.367  14.611   3.223
48957SOL    HW148645   1.432  14.679   3.242
48957SOL    HW248646   1.419  14.532   3.206
48958SOL     OW48647   1.291   7.080  12.144
48958SOL    HW148648   1.365   7.092  12.085
48958SOL    HW248649   1.223   7.038  12.091
48959SOL     OW48650   1.659   4.421   6.284
48959SOL    HW148651   1.594   4.468   6.336
48959SOL    HW248652   1.613   4.397   6.203
48960SOL     OW48653   6.127  11.143  13.255
48960SOL    HW148654   6.174  11.081  13.311
48960SOL    HW248655   6.192  11.172  13.191
48961SOL     OW48656  13.925   5.295   5.968
48961SOL    HW148657  13.987   5.367   5.964
48961SOL    HW248658  13.962   5.235   6.032
48962SOL     OW48659  13.036   4.708  11.497
48962SOL    HW148660  13.016   4.646  11.427
48962SOL    HW248661  12.951   4.725  11.538
48963SOL     OW48662   1.733   9.255   8.603
48963SOL    HW148663   1.770   9.167   8.599
48963SOL    HW248664   1.787   9.307   8.544
48964SOL     OW48665   6.745   1.998   8.341
48964SOL    HW148666   6.813   1.933   8.360
48964SOL    HW248667   6.722   2.034   8.426
48965SOL     OW48668   7.056   4.775   8.458
48965SOL    HW148669   7.142   4.734   8.459
48965SOL    HW248670   6.997   4.708   8.494
48966SOL     OW48671   1.185   1.791   0.142
48966SOL    HW148672   1.228   1.795   0.056
48966SOL    HW248673   1.191   1.881   0.176
48967SOL     OW48674   7.150   6.142   3.274
48967SOL    HW148675   7.134   6.214   3.336
48967SOL    HW248676   7.117   6.064   3.319
48968SOL     OW48677   4.879  10.913  12.226
48968SOL    HW148678   4.862  10.819  12.214
48968SOL    HW248679   4.885  10.924  12.321
48969SOL     OW48680  10.331   6.678   5.277
48969SOL    HW148681  10.366   6.636   5.199
48969SOL    HW248682  10.322   6.770   5.253
48970SOL     OW48683  13.911   7.939  13.787
48970SOL    HW148684  13.885   8.005  13.723
48970SOL    HW248685  13.866   7.964  13.867
48971SOL     OW48686  11.343  14.368  14.299
48971SOL    HW148687  11.351  14.427  14.374
48971SOL    HW248688  11.397  14.409  14.231
48972SOL     OW48689  10.447  13.062   3.666
48972SOL    HW148690  10.389  12.988   3.649
48972SOL    HW248691  10.475  13.090   3.579
48973SOL     OW48692   9.002   6.383   3.468
48973SOL    HW148693   8.994   6.299   3.514
48973SOL    HW248694   9.048   6.363   3.387
48974SOL     OW48695   6.556   0.494   6.370
48974SOL    HW148696   6.598   0.535   6.446
48974SOL    HW248697   6.486   0.554   6.346
48975SOL     OW48698   3.105  14.430   6.229
48975SOL    HW148699   3.049  14.452   6.155
48975SOL    HW248700   3.107  14.334   6.230
48976SOL     OW48701  13.110   7.824   9.129
48976SOL    HW148702  13.158   7.883   9.187
48976SOL    HW248703  13.080   7.881   9.058
48977SOL     OW48704   2.739   8.332  12.478
48977SOL    HW148705   2.786   8.405  12.438
48977SOL    HW248706   2.659   8.372  12.514
48978SOL     OW48707   8.735  11.985   6.928
48978SOL    HW148708   8.762  12.065   6.973
48978SOL    HW248709   8.687  12.015   6.851
48979SOL     OW48710   4.647   5.753  10.805
48979SOL    HW148711   4.563   5.785  10.772
48979SOL    HW248712   4.694   5.725  10.727
48980SOL     OW48713   2.670   2.036   0.769
48980SOL    HW148714   2.672   2.124   0.731
48980SOL    HW248715   2.762   2.012   0.777
48981SOL     OW48716   3.395   5.662   2.797
48981SOL    HW148717   3.456   5.675   2.869
48981SOL    HW248718   3.398   5.568   2.779
48982SOL     OW48719  14.191  11.988   8.829
48982SOL    HW148720  14.279  11.951   8.822
48982SOL    HW248721  14.205  12.081   8.850
48983SOL     OW48722  11.706   1.171   4.628
48983SOL    HW148723  11.694   1.131   4.714
48983SOL    HW248724  11.658   1.112   4.569
48984SOL     OW48725  12.884  11.085  10.455
48984SOL    HW148726  12.915  11.164  10.500
48984SOL    HW248727  12.791  11.079  10.479
48985SOL     OW48728  13.280   5.268   7.856
48985SOL    HW148729  13.197   5.284   7.812
48985SOL    HW248730  13.257   5.216   7.933
48986SOL     OW48731   3.259  10.305  11.721
48986SOL    HW148732   3.340  10.257  11.738
48986SOL    HW248733   3.263  10.381  11.779
48987SOL     OW48734  10.361  10.176   6.169
48987SOL    HW148735  10.433  10.238   6.165
48987SOL    HW248736  10.363  10.142   6.258
48988SOL     OW48737  13.307   6.920   8.683
48988SOL    HW148738  13.286   6.862   8.756
48988SOL    HW248739  13.362   6.867   8.625
48989SOL     OW48740   5.436   8.465   1.998
48989SOL    HW148741   5.451   8.486   2.090
48989SOL    HW248742   5.365   8.401   1.999
48990SOL     OW48743  10.887   0.033  12.575
48990SOL    HW148744  10.950   0.102  12.597
48990SOL    HW248745  10.874   0.042  12.480
48991SOL     OW48746   1.677   4.401   2.681
48991SOL    HW148747   1.680   4.444   2.595
48991SOL    HW248748   1.592   4.426   2.717
48992SOL     OW48749  11.113  11.609   0.137
48992SOL    HW148750  11.072  11.687   0.100
48992SOL    HW248751  11.207  11.626   0.132
48993SOL     OW48752   8.050  14.726   3.511
48993SOL    HW148753   8.057  14.631   3.516
48993SOL    HW248754   8.129  14.758   3.554
48994SOL     OW48755   4.462   2.662  11.592
48994SOL    HW148756   4.443   2.568  11.588
48994SOL    HW248757   4.451   2.693  11.502
48995SOL     OW48758   7.316  11.385   7.841
48995SOL    HW148759   7.228  11.388   7.879
48995SOL    HW248760   7.374  11.416   7.911
48996SOL     OW48761   3.612   8.449   5.073
48996SOL    HW148762   3.645   8.529   5.033
48996SOL    HW248763   3.640   8.379   5.014
48997SOL     OW48764  13.048   7.587   3.398
48997SOL    HW148765  13.007   7.540   3.471
48997SOL    HW248766  12.990   7.662   3.383
48998SOL     OW48767  13.604   8.059  11.159
48998SOL    HW148768  13.510   8.043  11.174
48998SOL    HW248769  13.627   8.126  11.223
48999SOL     OW48770   1.528   5.494  12.540
48999SOL    HW148771   1.557   5.439  12.467
48999SOL    HW248772   1.566   5.580  12.521
49000SOL     OW48773  13.979   7.186   2.539
49000SOL    HW148774  13.929   7.252   2.491
49000SOL    HW248775  14.011   7.127   2.471
49001SOL     OW48776  11.284   6.042   4.776
49001SOL    HW148777  11.350   5.984   4.814
49001SOL    HW248778  11.334   6.115   4.740
49002SOL     OW48779   2.278  12.476  14.428
49002SOL    HW148780   2.304  12.549  14.484
49002SOL    HW248781   2.356  12.420  14.425
49003SOL     OW48782   0.539  11.681   8.262
49003SOL    HW148783   0.548  11.732   8.342
49003SOL    HW248784   0.628  11.673   8.227
49004SOL     OW48785   7.596  12.915  12.631
49004SOL    HW148786   7.673  12.908  12.686
49004SOL    HW248787   7.559  13.001  12.652
49005SOL     OW48788   1.271  12.048  11.193
49005SOL    HW148789   1.213  12.106  11.144
49005SOL    HW248790   1.346  12.103  11.217
49006SOL     OW48791   3.533   3.844   5.904
49006SOL    HW148792   3.480   3.783   5.955
49006SOL    HW248793   3.623   3.812   5.914
49007SOL     OW48794  13.390  11.964   7.121
49007SOL    HW148795  13.369  11.939   7.031
49007SOL    HW248796  13.363  11.890   7.174
49008SOL     OW48797   0.504  10.386   4.783
49008SOL    HW148798   0.566  10.459   4.787
49008SOL    HW248799   0.450  10.405   4.706
49009SOL     OW48800  10.283   0.137   6.979
49009SOL    HW148801  10.332   0.135   7.061
49009SOL    HW248802  10.305   0.056   6.935
49010SOL     OW48803  12.958   5.502  10.229
49010SOL    HW148804  12.884   5.518  10.288
49010SOL    HW248805  13.032   5.487  10.287
49011SOL     OW48806   8.316   9.082  11.703
49011SOL    HW148807   8.382   9.128  11.755
49011SOL    HW248808   8.366   9.023  11.647
49012SOL     OW48809  13.560  12.545   3.773
49012SOL    HW148810  13.570  12.618   3.835
49012SOL    HW248811  13.574  12.467   3.826
49013SOL     OW48812   7.973   4.857   8.425
49013SOL    HW148813   8.012   4.931   8.471
49013SOL    HW248814   7.895   4.835   8.476
49014SOL     OW48815   4.205   0.171   8.329
49014SOL    HW148816   4.233   0.156   8.419
49014SOL    HW248817   4.236   0.259   8.309
49015SOL     OW48818   3.013  12.501   2.473
49015SOL    HW148819   3.070  12.473   2.400
49015SOL    HW248820   2.948  12.431   2.480
49016SOL     OW48821  13.992  10.832   2.648
49016SOL    HW148822  14.023  10.762   2.591
49016SOL    HW248823  13.994  10.911   2.593
49017SOL     OW48824   8.014   0.398   4.148
49017SOL    HW148825   7.953   0.470   4.132
49017SOL    HW248826   8.057   0.385   4.064
49018SOL     OW48827  12.262   8.283  11.008
49018SOL    HW148828  12.170   8.308  11.002
49018SOL    HW248829  12.263   8.203  11.060
49019SOL     OW48830   2.759   0.745   0.907
49019SOL    HW148831   2.664   0.742   0.898
49019SOL    HW248832   2.790   0.669   0.858
49020SOL     OW48833   2.010  14.848   0.438
49020SOL    HW148834   1.948   0.015   0.384
49020SOL    HW248835   2.095  14.865   0.398
49021SOL     OW48836   2.599   3.870  14.147
49021SOL    HW148837   2.635   3.953  14.116
49021SOL    HW248838   2.661   3.840  14.213
49022SOL     OW48839   4.061   3.282   2.528
49022SOL    HW148840   4.036   3.349   2.593
49022SOL    HW248841   4.075   3.203   2.580
49023SOL     OW48842  13.929   2.073   9.114
49023SOL    HW148843  13.978   2.059   9.033
49023SOL    HW248844  13.995   2.071   9.183
49024SOL     OW48845   0.861   6.696  11.061
49024SOL    HW148846   0.897   6.635  11.125
49024SOL    HW248847   0.852   6.644  10.981
49025SOL     OW48848   0.039   8.834   7.610
49025SOL    HW148849  14.872   8.883   7.677
49025SOL    HW248850   0.105   8.895   7.578
49026SOL     OW48851   9.304   7.377   1.709
49026SOL    HW148852   9.235   7.310   1.708
49026SOL    HW248853   9.283   7.434   1.636
49027SOL     OW48854   3.913  11.048   7.619
49027SOL    HW148855   3.828  11.077   7.587
49027SOL    HW248856   3.959  11.017   7.541
49028SOL     OW48857   3.753   3.454  10.038
49028SOL    HW148858   3.661   3.460  10.065
49028SOL    HW248859   3.785   3.544  10.042
49029SOL     OW48860   8.312  12.039   3.703
49029SOL    HW148861   8.274  12.007   3.785
49029SOL    HW248862   8.391  11.986   3.691
49030SOL     OW48863   7.920  11.676   8.250
49030SOL    HW148864   7.828  11.658   8.269
49030SOL    HW248865   7.921  11.702   8.158
49031SOL     OW48866  11.650  12.886   8.715
49031SOL    HW148867  11.656  12.878   8.620
49031SOL    HW248868  11.562  12.923   8.730
49032SOL     OW48869  14.412   2.591   8.847
49032SOL    HW148870  14.323   2.587   8.882
49032SOL    HW248871  14.408   2.660   8.781
49033SOL     OW48872  13.129   0.247   6.415
49033SOL    HW148873  13.169   0.160   6.425
49033SOL    HW248874  13.171   0.283   6.336
49034SOL     OW48875   9.038   4.401   6.950
49034SOL    HW148876   9.068   4.388   7.040
49034SOL    HW248877   9.048   4.316   6.909
49035SOL     OW48878  12.695  10.176   3.162
49035SOL    HW148879  12.740  10.257   3.136
49035SOL    HW248880  12.704  10.118   3.087
49036SOL     OW48881   2.730  12.230   0.423
49036SOL    HW148882   2.700  12.139   0.423
49036SOL    HW248883   2.823  12.224   0.446
49037SOL     OW48884   5.445  10.323   2.857
49037SOL    HW148885   5.358  10.357   2.878
49037SOL    HW248886   5.505  10.380   2.905
49038SOL     OW48887   3.183   1.102  12.234
49038SOL    HW148888   3.127   1.150  12.173
49038SOL    HW248889   3.169   1.010  12.211
49039SOL     OW48890  13.337   5.577   7.261
49039SOL    HW148891  13.322   5.671   7.257
49039SOL    HW248892  13.419   5.563   7.213
49040SOL     OW48893   8.024  12.983   8.007
49040SOL    HW148894   8.091  12.967   7.940
49040SOL    HW248895   8.048  13.068   8.045
49041SOL     OW48896   6.290   0.542   6.236
49041SOL    HW148897   6.325   0.612   6.179
49041SOL    HW248898   6.221   0.501   6.184
49042SOL     OW48899  13.814  13.400   8.815
49042SOL    HW148900  13.880  13.331   8.817
49042SOL    HW248901  13.773  13.396   8.902
49043SOL     OW48902  12.340  12.957   8.395
49043SOL    HW148903  12.387  13.001   8.466
49043SOL    HW248904  12.280  12.897   8.439
49044SOL     OW48905   8.171  14.268   5.365
49044SOL    HW148906   8.139  14.186   5.328
49044SOL    HW248907   8.201  14.318   5.289
49045SOL     OW48908  12.674   4.458  11.850
49045SOL    HW148909  12.681   4.363  11.837
49045SOL    HW248910  12.687   4.496  11.764
49046SOL     OW48911   5.766  12.285  14.368
49046SOL    HW148912   5.748  12.378  14.382
49046SOL    HW248913   5.728  12.266  14.282
49047SOL     OW48914   6.649  11.795   5.131
49047SOL    HW148915   6.567  11.747   5.118
49047SOL    HW248916   6.699  11.779   5.051
49048SOL     OW48917  12.135   3.622   6.198
49048SOL    HW148918  12.209   3.608   6.256
49048SOL    HW248919  12.117   3.536   6.160
49049SOL     OW48920  12.020   8.979  12.169
49049SOL    HW148921  11.973   8.898  12.189
49049SOL    HW248922  11.970   9.047  12.213
49050SOL     OW48923   2.235   6.910   7.381
49050SOL    HW148924   2.236   6.951   7.468
49050SOL    HW248925   2.302   6.957   7.332
49051SOL     OW48926   3.412   9.139  14.761
49051SOL    HW148927   3.338   9.186  14.722
49051SOL    HW248928   3.422   9.177  14.848
49052SOL     OW48929   3.239  11.108  11.437
49052SOL    HW148930   3.181  11.053  11.490
49052SOL    HW248931   3.326  11.072  11.452
49053SOL     OW48932   3.367   5.217   6.678
49053SOL    HW148933   3.394   5.150   6.740
49053SOL    HW248934   3.432   5.213   6.608
49054SOL     OW48935   6.473  11.855   2.866
49054SOL    HW148936   6.458  11.762   2.850
49054SOL    HW248937   6.450  11.868   2.958
49055SOL     OW48938   8.862  10.119   0.491
49055SOL    HW148939   8.867  10.212   0.469
49055SOL    HW248940   8.952  10.088   0.485
49056SOL     OW48941   9.718   9.628  13.002
49056SOL    HW148942   9.702   9.545  12.958
49056SOL    HW248943   9.795   9.665  12.959
49057SOL     OW48944  11.939   8.581   5.369
49057SOL    HW148945  11.957   8.493   5.335
49057SOL    HW248946  11.845   8.591   5.360
49058SOL     OW48947  13.596   3.005  10.525
49058SOL    HW148948  13.687   3.031  10.538
49058SOL    HW248949  13.581   3.020  10.431
49059SOL     OW48950   0.872   5.902  10.824
49059SOL    HW148951   0.778   5.893  10.809
49059SOL    HW248952   0.903   5.812  10.836
49060SOL     OW48953   9.233   1.990  14.488
49060SOL    HW148954   9.149   1.990  14.533
49060SOL    HW248955   9.211   1.991  14.395
49061SOL     OW48956  12.195   9.706   0.755
49061SOL    HW148957  12.281   9.726   0.790
49061SOL    HW248958  12.137   9.774   0.789
49062SOL     OW48959   9.318   8.728   2.572
49062SOL    HW148960   9.377   8.702   2.643
49062SOL    HW248961   9.231   8.698   2.602
49063SOL     OW48962   1.032   9.623   0.197
49063SOL    HW148963   1.075   9.702   0.228
49063SOL    HW248964   1.067   9.553   0.251
49064SOL     OW48965  13.172   4.522   7.357
49064SOL    HW148966  13.188   4.587   7.288
49064SOL    HW248967  13.096   4.473   7.327
49065SOL     OW48968   9.203  13.266   0.244
49065SOL    HW148969   9.174  13.185   0.202
49065SOL    HW248970   9.290  13.281   0.209
49066SOL     OW48971   5.114   5.763   1.526
49066SOL    HW148972   5.104   5.736   1.435
49066SOL    HW248973   5.113   5.859   1.523
49067SOL     OW48974   0.888   6.691  10.685
49067SOL    HW148975   0.876   6.785  10.701
49067SOL    HW248976   0.836   6.649  10.754
49068SOL     OW48977   5.965   0.249   5.466
49068SOL    HW148978   5.920   0.283   5.389
49068SOL    HW248979   5.897   0.239   5.532
49069SOL     OW48980   0.399   0.635  11.497
49069SOL    HW148981   0.415   0.593  11.582
49069SOL    HW248982   0.347   0.712  11.517
49070SOL     OW48983   3.361  13.489   0.068
49070SOL    HW148984   3.441  13.483   0.120
49070SOL    HW248985   3.373  13.567   0.014
49071SOL     OW48986   0.392   3.737   7.191
49071SOL    HW148987   0.360   3.666   7.247
49071SOL    HW248988   0.472   3.703   7.152
49072SOL     OW48989  10.771   4.807  11.222
49072SOL    HW148990  10.676   4.800  11.235
49072SOL    HW248991  10.800   4.871  11.286
49073SOL     OW48992   4.787   7.977   4.463
49073SOL    HW148993   4.715   7.968   4.525
49073SOL    HW248994   4.788   7.895   4.415
49074SOL     OW48995  10.947   1.789   1.387
49074SOL    HW148996  10.853   1.789   1.369
49074SOL    HW248997  10.972   1.882   1.383
49075SOL     OW48998   4.800  11.476   6.077
49075SOL    HW148999   4.723  11.419   6.079
49075SOL    HW249000   4.766  11.560   6.046
49076SOL     OW49001   7.666   3.398   4.271
49076SOL    HW149002   7.642   3.471   4.214
49076SOL    HW249003   7.690   3.328   4.211
49077SOL     OW49004  13.997   1.441   2.378
49077SOL    HW149005  14.065   1.477   2.321
49077SOL    HW249006  14.046   1.398   2.449
49078SOL     OW49007   9.900  11.253   7.648
49078SOL    HW149008   9.844  11.330   7.637
49078SOL    HW249009   9.914  11.221   7.559
49079SOL     OW49010  13.150  13.178  11.750
49079SOL    HW149011  13.134  13.087  11.727
49079SOL    HW249012  13.243  13.193  11.731
49080SOL     OW49013   0.784   4.112   4.864
49080SOL    HW149014   0.861   4.104   4.806
49080SOL    HW249015   0.781   4.205   4.885
49081SOL     OW49016   1.334   1.587  13.316
49081SOL    HW149017   1.336   1.682  13.331
49081SOL    HW249018   1.355   1.549  13.401
49082SOL     OW49019   4.064   9.828  14.761
49082SOL    HW149020   4.138   9.845  14.704
49082SOL    HW249021   3.995   9.796  14.703
49083SOL     OW49022   0.017   2.815   7.984
49083SOL    HW149023   0.094   2.870   7.971
49083SOL    HW249024   0.044   2.728   7.952
49084SOL     OW49025   8.410   1.544   1.840
49084SOL    HW149026   8.404   1.503   1.754
49084SOL    HW249027   8.346   1.498   1.894
49085SOL     OW49028   6.426   4.484   6.059
49085SOL    HW149029   6.341   4.453   6.088
49085SOL    HW249030   6.459   4.537   6.132
49086SOL     OW49031  11.629   6.406  14.523
49086SOL    HW149032  11.533   6.408  14.515
49086SOL    HW249033  11.654   6.498  14.528
49087SOL     OW49034   6.155  10.532   6.398
49087SOL    HW149035   6.097  10.472   6.351
49087SOL    HW249036   6.098  10.602   6.429
49088SOL     OW49037  13.455  13.742  12.464
49088SOL    HW149038  13.407  13.819  12.494
49088SOL    HW249039  13.486  13.765  12.377
49089SOL     OW49040  10.828   4.233  11.149
49089SOL    HW149041  10.897   4.273  11.096
49089SOL    HW249042  10.762   4.206  11.086
49090SOL     OW49043  13.845   0.857  10.731
49090SOL    HW149044  13.755   0.869  10.700
49090SOL    HW249045  13.875   0.778  10.686
49091SOL     OW49046   7.514  10.087  11.439
49091SOL    HW149047   7.550  10.075  11.351
49091SOL    HW249048   7.551  10.170  11.469
49092SOL     OW49049  11.334   9.278  13.951
49092SOL    HW149050  11.286   9.293  13.869
49092SOL    HW249051  11.322   9.359  14.001
49093SOL     OW49052   3.077  13.723   6.586
49093SOL    HW149053   3.107  13.725   6.677
49093SOL    HW249054   2.991  13.680   6.590
49094SOL     OW49055   8.045   5.546   0.842
49094SOL    HW149056   8.007   5.556   0.755
49094SOL    HW249057   8.136   5.573   0.832
49095SOL     OW49058   4.020  13.374  13.702
49095SOL    HW149059   4.072  13.332  13.634
49095SOL    HW249060   3.931  13.376  13.667
49096SOL     OW49061   4.418   2.864   7.397
49096SOL    HW149062   4.453   2.937   7.448
49096SOL    HW249063   4.476   2.859   7.320
49097SOL     OW49064   1.255   0.913  10.084
49097SOL    HW149065   1.321   0.979  10.062
49097SOL    HW249066   1.261   0.848  10.014
49098SOL     OW49067  14.083   0.059   5.530
49098SOL    HW149068  14.054   0.003   5.458
49098SOL    HW249069  14.002   0.100   5.562
49099SOL     OW49070  11.347   8.068   9.945
49099SOL    HW149071  11.377   8.157   9.927
49099SOL    HW249072  11.312   8.037   9.861
49100SOL     OW49073   2.419  10.917  10.210
49100SOL    HW149074   2.402  10.951  10.298
49100SOL    HW249075   2.339  10.935  10.161
49101SOL     OW49076   7.240   7.698   9.644
49101SOL    HW149077   7.270   7.724   9.557
49101SOL    HW249078   7.185   7.621   9.628
49102SOL     OW49079  11.690   7.227   5.870
49102SOL    HW149080  11.653   7.312   5.848
49102SOL    HW249081  11.626   7.186   5.927
49103SOL     OW49082   3.073  11.903  11.386
49103SOL    HW149083   3.167  11.907  11.404
49103SOL    HW249084   3.044  11.823  11.430
49104SOL     OW49085   4.997  14.488   0.783
49104SOL    HW149086   4.949  14.525   0.709
49104SOL    HW249087   5.055  14.559   0.811
49105SOL     OW49088  11.471  11.291  12.808
49105SOL    HW149089  11.566  11.296  12.801
49105SOL    HW249090  11.455  11.215  12.864
49106SOL     OW49091   1.670   7.747   9.685
49106SOL    HW149092   1.763   7.739   9.703
49106SOL    HW249093   1.663   7.743   9.590
49107SOL     OW49094   7.951  12.480   8.383
49107SOL    HW149095   7.883  12.508   8.322
49107SOL    HW249096   7.936  12.386   8.392
49108SOL     OW49097   6.793   6.118   5.037
49108SOL    HW149098   6.874   6.111   4.988
49108SOL    HW249099   6.770   6.028   5.060
49109SOL     OW49100  13.602  10.060   1.712
49109SOL    HW149101  13.628   9.979   1.755
49109SOL    HW249102  13.518  10.082   1.752
49110SOL     OW49103  10.666  10.379   2.735
49110SOL    HW149104  10.622  10.341   2.811
49110SOL    HW249105  10.710  10.457   2.769
49111SOL     OW49106  12.100  14.539   7.951
49111SOL    HW149107  12.166  14.607   7.965
49111SOL    HW249108  12.131  14.489   7.876
49112SOL     OW49109   5.512   7.199  11.942
49112SOL    HW149110   5.446   7.132  11.961
49112SOL    HW249111   5.471   7.282  11.965
49113SOL     OW49112   2.526  12.629   8.285
49113SOL    HW149113   2.491  12.715   8.309
49113SOL    HW249114   2.614  12.628   8.323
49114SOL     OW49115  13.552  13.570  12.142
49114SOL    HW149116  13.460  13.595  12.155
49114SOL    HW249117  13.548  13.478  12.119
49115SOL     OW49118   0.699  14.681  13.465
49115SOL    HW149119   0.719  14.636  13.383
49115SOL    HW249120   0.663  14.613  13.522
49116SOL     OW49121   7.473   6.246  10.697
49116SOL    HW149122   7.394   6.282  10.656
49116SOL    HW249123   7.545   6.283  10.647
49117SOL     OW49124   7.011   3.403  13.399
49117SOL    HW149125   7.034   3.490  13.431
49117SOL    HW249126   6.937   3.418  13.340
49118SOL     OW49127  10.102   9.478   9.213
49118SOL    HW149128  10.059   9.477   9.127
49118SOL    HW249129  10.138   9.390   9.222
49119SOL     OW49130   3.510   1.197  12.908
49119SOL    HW149131   3.462   1.263  12.958
49119SOL    HW249132   3.516   1.122  12.967
49120SOL     OW49133  14.746   8.300   2.489
49120SOL    HW149134  14.792   8.375   2.451
49120SOL    HW249135  14.669   8.289   2.434
49121SOL     OW49136   4.768  12.539   7.441
49121SOL    HW149137   4.746  12.596   7.367
49121SOL    HW249138   4.764  12.596   7.518
49122SOL     OW49139  12.344   8.512   1.623
49122SOL    HW149140  12.403   8.507   1.547
49122SOL    HW249141  12.309   8.423   1.633
49123SOL     OW49142  11.815  11.537  12.924
49123SOL    HW149143  11.730  11.572  12.951
49123SOL    HW249144  11.797  11.444  12.906
49124SOL     OW49145   4.808  14.874   9.690
49124SOL    HW149146   4.882   0.051   9.704
49124SOL    HW249147   4.792  14.878   9.595
49125SOL     OW49148   5.939   2.507  10.214
49125SOL    HW149149   6.011   2.457  10.175
49125SOL    HW249150   5.910   2.566  10.143
49126SOL     OW49151   1.888   2.045   8.788
49126SOL    HW149152   1.808   1.997   8.769
49126SOL    HW249153   1.939   1.986   8.844
49127SOL     OW49154  14.555   6.638   0.439
49127SOL    HW149155  14.495   6.707   0.467
49127SOL    HW249156  14.610   6.679   0.372
49128SOL     OW49157  12.411   1.889   8.923
49128SOL    HW149158  12.466   1.889   9.001
49128SOL    HW249159  12.411   1.980   8.893
49129SOL     OW49160  10.076   6.493   8.112
49129SOL    HW149161  10.063   6.525   8.201
49129SOL    HW249162   9.998   6.439   8.094
49130SOL     OW49163   3.014   2.861   5.559
49130SOL    HW149164   3.086   2.879   5.498
49130SOL    HW249165   2.982   2.774   5.533
49131SOL     OW49166   6.647   1.766   2.450
49131SOL    HW149167   6.642   1.695   2.515
49131SOL    HW249168   6.718   1.740   2.392
49132SOL     OW49169   0.973   8.328   3.953
49132SOL    HW149170   1.068   8.326   3.949
49132SOL    HW249171   0.944   8.293   3.869
49133SOL     OW49172  11.091   8.936   0.606
49133SOL    HW149173  11.086   8.990   0.527
49133SOL    HW249174  11.090   9.000   0.678
49134SOL     OW49175   5.531   7.758  14.650
49134SOL    HW149176   5.488   7.767  14.735
49134SOL    HW249177   5.459   7.757  14.587
49135SOL     OW49178  14.810   6.704   3.059
49135SOL    HW149179  14.847   6.616   3.053
49135SOL    HW249180  14.823   6.741   2.972
49136SOL     OW49181   2.087  13.385   2.241
49136SOL    HW149182   2.091  13.305   2.187
49136SOL    HW249183   2.064  13.353   2.328
49137SOL     OW49184   5.242  14.198   4.671
49137SOL    HW149185   5.194  14.244   4.739
49137SOL    HW249186   5.179  14.135   4.636
49138SOL     OW49187  11.493   9.884  13.760
49138SOL    HW149188  11.400   9.908  13.764
49138SOL    HW249189  11.521   9.883  13.852
49139SOL     OW49190  13.984   3.496   1.502
49139SOL    HW149191  13.930   3.454   1.435
49139SOL    HW249192  13.931   3.570   1.532
49140SOL     OW49193   3.461  12.568  10.055
49140SOL    HW149194   3.380  12.619  10.049
49140SOL    HW249195   3.530  12.633  10.063
49141SOL     OW49196  13.016   0.894   6.176
49141SOL    HW149197  12.981   0.978   6.148
49141SOL    HW249198  13.040   0.850   6.094
49142SOL     OW49199  14.449   1.991   2.898
49142SOL    HW149200  14.432   2.056   2.966
49142SOL    HW249201  14.363   1.959   2.873
49143SOL     OW49202  13.383   0.360   7.428
49143SOL    HW149203  13.299   0.320   7.453
49143SOL    HW249204  13.440   0.285   7.410
49144SOL     OW49205   0.675   1.069   4.623
49144SOL    HW149206   0.600   1.066   4.682
49144SOL    HW249207   0.718   1.153   4.644
49145SOL     OW49208   4.370   5.760  11.359
49145SOL    HW149209   4.279   5.765  11.387
49145SOL    HW249210   4.366   5.763  11.264
49146SOL     OW49211   9.390  12.430  12.231
49146SOL    HW149212   9.433  12.364  12.286
49146SOL    HW249213   9.458  12.495  12.214
49147SOL     OW49214   4.647   5.468   5.941
49147SOL    HW149215   4.675   5.386   5.981
49147SOL    HW249216   4.658   5.454   5.847
49148SOL     OW49217  11.600   1.099   2.129
49148SOL    HW149218  11.625   1.094   2.037
49148SOL    HW249219  11.660   1.163   2.167
49149SOL     OW49220   3.984   5.532   8.362
49149SOL    HW149221   4.015   5.501   8.277
49149SOL    HW249222   4.009   5.463   8.423
49150SOL     OW49223   7.151  13.717  13.853
49150SOL    HW149224   7.146  13.801  13.900
49150SOL    HW249225   7.167  13.741  13.762
49151SOL     OW49226  11.495  12.500  13.046
49151SOL    HW149227  11.516  12.428  13.106
49151SOL    HW249228  11.400  12.495  13.035
49152SOL     OW49229   8.612   1.013   5.332
49152SOL    HW149230   8.532   0.961   5.320
49152SOL    HW249231   8.669   0.957   5.384
49153SOL     OW49232  13.201   2.810  12.349
49153SOL    HW149233  13.175   2.731  12.397
49153SOL    HW249234  13.185   2.882  12.411
49154SOL     OW49235  13.822   5.221   3.967
49154SOL    HW149236  13.789   5.239   3.879
49154SOL    HW249237  13.864   5.135   3.959
49155SOL     OW49238   2.408   8.976   7.870
49155SOL    HW149239   2.439   8.925   7.944
49155SOL    HW249240   2.419   8.918   7.795
49156SOL     OW49241   9.019   5.924   3.104
49156SOL    HW149242   8.940   5.974   3.083
49156SOL    HW249243   9.071   5.927   3.024
49157SOL     OW49244  14.504   1.365   1.732
49157SOL    HW149245  14.408   1.363   1.732
49157SOL    HW249246  14.527   1.454   1.756
49158SOL     OW49247   8.446   8.112  12.581
49158SOL    HW149248   8.542   8.119  12.588
49158SOL    HW249249   8.420   8.067  12.661
49159SOL     OW49250  14.206   6.427   9.287
49159SOL    HW149251  14.228   6.419   9.194
49159SOL    HW249252  14.290   6.427   9.332
49160SOL     OW49253  13.804   8.501   5.225
49160SOL    HW149254  13.879   8.527   5.171
49160SOL    HW249255  13.842   8.478   5.309
49161SOL     OW49256   9.742   9.955   3.515
49161SOL    HW149257   9.745   9.865   3.548
49161SOL    HW249258   9.813  10.000   3.562
49162SOL     OW49259   9.306  12.843   7.128
49162SOL    HW149260   9.297  12.779   7.198
49162SOL    HW249261   9.222  12.843   7.083
49163SOL     OW49262  10.995   7.650  11.099
49163SOL    HW149263  10.981   7.635  11.005
49163SOL    HW249264  10.925   7.602  11.142
49164SOL     OW49265   5.378   3.050  11.782
49164SOL    HW149266   5.443   3.083  11.719
49164SOL    HW249267   5.356   2.963  11.749
49165SOL     OW49268   8.478   0.017   4.890
49165SOL    HW149269   8.468   0.024   4.985
49165SOL    HW249270   8.543   0.085   4.868
49166SOL     OW49271   7.438   8.511   1.383
49166SOL    HW149272   7.501   8.570   1.343
49166SOL    HW249273   7.416   8.448   1.314
49167SOL     OW49274   9.509   2.421   3.870
49167SOL    HW149275   9.529   2.514   3.859
49167SOL    HW249276   9.478   2.392   3.784
49168SOL     OW49277   9.623   3.236   8.719
49168SOL    HW149278   9.685   3.223   8.790
49168SOL    HW249279   9.676   3.231   8.640
49169SOL     OW49280  10.566   8.237   4.758
49169SOL    HW149281  10.509   8.298   4.803
49169SOL    HW249282  10.510   8.194   4.693
49170SOL     OW49283   7.410  12.112   6.986
49170SOL    HW149284   7.318  12.107   6.960
49170SOL    HW249285   7.409  12.170   7.063
49171SOL     OW49286   6.711   4.574   6.253
49171SOL    HW149287   6.714   4.478   6.245
49171SOL    HW249288   6.771   4.605   6.185
49172SOL     OW49289   0.743  13.714   9.696
49172SOL    HW149290   0.660  13.760   9.705
49172SOL    HW249291   0.726  13.626   9.729
49173SOL     OW49292  10.332  11.590   6.548
49173SOL    HW149293  10.368  11.504   6.528
49173SOL    HW249294  10.287  11.578   6.632
49174SOL     OW49295   7.115   5.045   1.060
49174SOL    HW149296   7.168   4.973   1.095
49174SOL    HW249297   7.049   5.061   1.127
49175SOL     OW49298   8.149   4.577   2.364
49175SOL    HW149299   8.199   4.618   2.293
49175SOL    HW249300   8.095   4.511   2.320
49176SOL     OW49301  10.037   7.432   7.199
49176SOL    HW149302  10.122   7.461   7.167
49176SOL    HW249303   9.984   7.511   7.203
49177SOL     OW49304   9.075   3.656   4.776
49177SOL    HW149305   9.158   3.686   4.739
49177SOL    HW249306   9.095   3.636   4.867
49178SOL     OW49307  13.096   9.454   2.993
49178SOL    HW149308  13.117   9.363   3.012
49178SOL    HW249309  13.152   9.504   3.052
49179SOL     OW49310  12.149  11.413   3.073
49179SOL    HW149311  12.207  11.488   3.086
49179SOL    HW249312  12.133  11.410   2.979
49180SOL     OW49313  11.895   3.206  14.562
49180SOL    HW149314  11.957   3.136  14.583
49180SOL    HW249315  11.866   3.240  14.646
49181SOL     OW49316   3.954   9.928  14.092
49181SOL    HW149317   3.903   9.872  14.032
49181SOL    HW249318   3.974   9.871  14.166
49182SOL     OW49319  12.492  11.168   7.328
49182SOL    HW149320  12.574  11.209   7.301
49182SOL    HW249321  12.433  11.182   7.255
49183SOL     OW49322  10.568   9.249   7.928
49183SOL    HW149323  10.558   9.210   7.841
49183SOL    HW249324  10.662   9.255   7.941
49184SOL     OW49325   3.170  11.955   0.719
49184SOL    HW149326   3.254  11.912   0.700
49184SOL    HW249327   3.186  12.047   0.700
49185SOL     OW49328   8.544   8.695   0.740
49185SOL    HW149329   8.544   8.787   0.715
49185SOL    HW249330   8.631   8.679   0.775
49186SOL     OW49331  14.302   5.660   7.859
49186SOL    HW149332  14.286   5.593   7.926
49186SOL    HW249333  14.215   5.695   7.840
49187SOL     OW49334   9.777   4.857  12.024
49187SOL    HW149335   9.710   4.870  11.956
49187SOL    HW249336   9.803   4.946  12.048
49188SOL     OW49337   0.438   1.334   1.239
49188SOL    HW149338   0.357   1.297   1.203
49188SOL    HW249339   0.504   1.265   1.227
49189SOL     OW49340  10.068  11.112   4.890
49189SOL    HW149341  10.020  11.131   4.971
49189SOL    HW249342  10.102  11.196   4.861
49190SOL     OW49343   0.680   8.252  11.496
49190SOL    HW149344   0.669   8.300  11.578
49190SOL    HW249345   0.676   8.320  11.428
49191SOL     OW49346  13.303   9.346  13.504
49191SOL    HW149347  13.363   9.276  13.532
49191SOL    HW249348  13.323   9.419  13.563
49192SOL     OW49349   1.689   2.449   4.868
49192SOL    HW149350   1.604   2.439   4.910
49192SOL    HW249351   1.717   2.538   4.890
49193SOL     OW49352   9.229   6.856  12.106
49193SOL    HW149353   9.285   6.908  12.049
49193SOL    HW249354   9.143   6.897  12.099
49194SOL     OW49355   0.391   4.065   9.291
49194SOL    HW149356   0.311   4.083   9.242
49194SOL    HW249357   0.374   3.983   9.337
49195SOL     OW49358   6.685   1.996   1.981
49195SOL    HW149359   6.626   2.060   1.942
49195SOL    HW249360   6.637   1.913   1.977
49196SOL     OW49361   4.143   6.712   7.202
49196SOL    HW149362   4.217   6.681   7.149
49196SOL    HW249363   4.183   6.740   7.284
49197SOL     OW49364  12.300  14.779   6.333
49197SOL    HW149365  12.285  14.853   6.273
49197SOL    HW249366  12.250  14.802   6.411
49198SOL     OW49367  13.681  10.432   0.916
49198SOL    HW149368  13.772  10.435   0.942
49198SOL    HW249369  13.662  10.520   0.883
49199SOL     OW49370   2.547   1.975   1.735
49199SOL    HW149371   2.501   2.053   1.704
49199SOL    HW249372   2.544   1.982   1.830
49200SOL     OW49373   1.304   4.892  11.498
49200SOL    HW149374   1.221   4.927  11.466
49200SOL    HW249375   1.279   4.824  11.561
49201SOL     OW49376   2.703  14.345  13.518
49201SOL    HW149377   2.717  14.272  13.579
49201SOL    HW249378   2.786  14.391  13.516
49202SOL     OW49379   0.029   0.444   6.342
49202SOL    HW149380   0.019   0.524   6.291
49202SOL    HW249381   0.034   0.473   6.433
49203SOL     OW49382   9.584   2.903   8.521
49203SOL    HW149383   9.649   2.911   8.452
49203SOL    HW249384   9.537   2.822   8.502
49204SOL     OW49385  14.419   6.688   8.416
49204SOL    HW149386  14.420   6.773   8.371
49204SOL    HW249387  14.506   6.652   8.402
49205SOL     OW49388   4.418   4.778  10.618
49205SOL    HW149389   4.503   4.780  10.661
49205SOL    HW249390   4.364   4.839  10.668
49206SOL     OW49391  12.746   8.980   5.651
49206SOL    HW149392  12.836   8.982   5.618
49206SOL    HW249393  12.750   9.031   5.732
49207SOL     OW49394   3.405   2.505   5.888
49207SOL    HW149395   3.342   2.560   5.841
49207SOL    HW249396   3.352   2.455   5.949
49208SOL     OW49397   3.807   6.433   9.330
49208SOL    HW149398   3.870   6.494   9.291
49208SOL    HW249399   3.773   6.383   9.256
49209SOL     OW49400  14.468   8.172   5.798
49209SOL    HW149401  14.523   8.112   5.748
49209SOL    HW249402  14.427   8.116   5.864
49210SOL     OW49403   2.651   7.728   3.712
49210SOL    HW149404   2.672   7.708   3.621
49210SOL    HW249405   2.691   7.813   3.729
49211SOL     OW49406   5.293   0.667   7.368
49211SOL    HW149407   5.273   0.575   7.385
49211SOL    HW249408   5.379   0.665   7.326
49212SOL     OW49409   8.642   4.056   1.759
49212SOL    HW149410   8.657   3.962   1.745
49212SOL    HW249411   8.723   4.098   1.731
49213SOL     OW49412   4.498   5.491   2.299
49213SOL    HW149413   4.529   5.401   2.291
49213SOL    HW249414   4.423   5.486   2.358
49214SOL     OW49415   8.342  10.278   0.670
49214SOL    HW149416   8.402  10.225   0.619
49214SOL    HW249417   8.392  10.356   0.694
49215SOL     OW49418   1.194   2.616  12.238
49215SOL    HW149419   1.273   2.647  12.193
49215SOL    HW249420   1.130   2.602  12.168
49216SOL     OW49421   0.351   4.844   6.640
49216SOL    HW149422   0.256   4.854   6.643
49216SOL    HW249423   0.366   4.782   6.568
49217SOL     OW49424   9.070   1.832   6.481
49217SOL    HW149425   9.107   1.838   6.569
49217SOL    HW249426   9.052   1.738   6.469
49218SOL     OW49427   0.316  10.401   5.249
49218SOL    HW149428   0.339  10.322   5.297
49218SOL    HW249429   0.333  10.379   5.157
49219SOL     OW49430   5.606   1.578  10.959
49219SOL    HW149431   5.638   1.664  10.987
49219SOL    HW249432   5.513   1.578  10.980
49220SOL     OW49433   3.350   3.664   7.392
49220SOL    HW149434   3.260   3.651   7.423
49220SOL    HW249435   3.384   3.575   7.379
49221SOL     OW49436   7.241   0.959   1.767
49221SOL    HW149437   7.273   0.997   1.848
49221SOL    HW249438   7.156   0.922   1.789
49222SOL     OW49439   3.899  12.830  14.068
49222SOL    HW149440   3.927  12.921  14.066
49222SOL    HW249441   3.905  12.802  13.976
49223SOL     OW49442   6.994   5.613  14.101
49223SOL    HW149443   6.904   5.623  14.070
49223SOL    HW249444   6.987   5.623  14.196
49224SOL     OW49445   6.044   9.687  12.349
49224SOL    HW149446   6.023   9.618  12.412
49224SOL    HW249447   5.995   9.663  12.270
49225SOL     OW49448  11.815  14.211   0.287
49225SOL    HW149449  11.864  14.285   0.250
49225SOL    HW249450  11.840  14.209   0.379
49226SOL     OW49451   0.161   0.829  14.743
49226SOL    HW149452   0.194   0.743  14.769
49226SOL    HW249453   0.239   0.877  14.716
49227SOL     OW49454   6.787   4.803   5.670
49227SOL    HW149455   6.708   4.855   5.655
49227SOL    HW249456   6.756   4.713   5.674
49228SOL     OW49457   4.260  13.587   6.191
49228SOL    HW149458   4.272  13.607   6.283
49228SOL    HW249459   4.193  13.648   6.161
49229SOL     OW49460   4.424   2.414  13.152
49229SOL    HW149461   4.439   2.354  13.079
49229SOL    HW249462   4.332   2.439  13.144
49230SOL     OW49463  11.832   0.992   1.036
49230SOL    HW149464  11.897   1.054   1.005
49230SOL    HW249465  11.870   0.906   1.020
49231SOL     OW49466   8.056  14.804   6.532
49231SOL    HW149467   7.980  14.852   6.564
49231SOL    HW249468   8.077  14.846   6.448
49232SOL     OW49469  11.477   4.078   8.549
49232SOL    HW149470  11.460   3.984   8.554
49232SOL    HW249471  11.468   4.099   8.456
49233SOL     OW49472   2.910   4.039   7.765
49233SOL    HW149473   2.860   4.088   7.700
49233SOL    HW249474   2.944   4.106   7.824
49234SOL     OW49475   7.701  13.249   0.376
49234SOL    HW149476   7.755  13.180   0.339
49234SOL    HW249477   7.763  13.308   0.420
49235SOL     OW49478   8.395   6.846   3.438
49235SOL    HW149479   8.340   6.889   3.504
49235SOL    HW249480   8.391   6.753   3.461
49236SOL     OW49481   9.991   2.623   7.324
49236SOL    HW149482   9.926   2.557   7.350
49236SOL    HW249483  10.067   2.572   7.297
49237SOL     OW49484   5.076   3.884   8.168
49237SOL    HW149485   5.007   3.857   8.107
49237SOL    HW249486   5.067   3.825   8.243
49238SOL     OW49487  13.671   2.989   0.774
49238SOL    HW149488  13.623   2.913   0.740
49238SOL    HW249489  13.689   3.043   0.697
49239SOL     OW49490   9.610   8.447   3.865
49239SOL    HW149491   9.637   8.492   3.785
49239SOL    HW249492   9.549   8.380   3.836
49240SOL     OW49493   0.386  10.750  13.585
49240SOL    HW149494   0.293  10.750  13.607
49240SOL    HW249495   0.430  10.751  13.670
49241SOL     OW49496   4.913  12.499   0.248
49241SOL    HW149497   4.976  12.558   0.207
49241SOL    HW249498   4.941  12.412   0.222
49242SOL     OW49499   3.475  10.014   8.822
49242SOL    HW149500   3.450   9.985   8.910
49242SOL    HW249501   3.465  10.109   8.824
49243SOL     OW49502  10.830   6.922  14.233
49243SOL    HW149503  10.744   6.882  14.221
49243SOL    HW249504  10.834   6.991  14.167
49244SOL     OW49505   3.401   2.892   2.948
49244SOL    HW149506   3.382   2.984   2.966
49244SOL    HW249507   3.321   2.846   2.974
49245SOL     OW49508   3.016   0.255   0.384
49245SOL    HW149509   3.059   0.224   0.464
49245SOL    HW249510   2.996   0.175   0.336
49246SOL     OW49511   3.648  12.389  11.058
49246SOL    HW149512   3.587  12.383  11.132
49246SOL    HW249513   3.610  12.457  11.002
49247SOL     OW49514  11.771  13.859   1.093
49247SOL    HW149515  11.811  13.814   1.167
49247SOL    HW249516  11.698  13.802   1.068
49248SOL     OW49517   9.865   2.126  10.273
49248SOL    HW149518   9.786   2.075  10.287
49248SOL    HW249519   9.920   2.071  10.217
49249SOL     OW49520   2.767  13.695   4.139
49249SOL    HW149521   2.804  13.710   4.052
49249SOL    HW249522   2.703  13.765   4.151
49250SOL     OW49523  12.038   0.413  13.977
49250SOL    HW149524  12.071   0.502  13.987
49250SOL    HW249525  12.082   0.380  13.899
49251SOL     OW49526   3.825   7.119   7.617
49251SOL    HW149527   3.746   7.067   7.601
49251SOL    HW249528   3.796   7.194   7.667
49252SOL     OW49529  14.083   5.359   4.918
49252SOL    HW149530  14.148   5.426   4.935
49252SOL    HW249531  14.034   5.392   4.842
49253SOL     OW49532   7.767   7.647   5.678
49253SOL    HW149533   7.798   7.575   5.733
49253SOL    HW249534   7.810   7.725   5.713
49254SOL     OW49535   8.319  13.311   8.258
49254SOL    HW149536   8.324  13.316   8.353
49254SOL    HW249537   8.407  13.334   8.228
49255SOL     OW49538  13.060   5.275   6.768
49255SOL    HW149539  13.078   5.361   6.807
49255SOL    HW249540  13.076   5.287   6.674
49256SOL     OW49541   6.001  10.083   7.997
49256SOL    HW149542   5.908  10.081   8.018
49256SOL    HW249543   6.009  10.153   7.931
49257SOL     OW49544  12.342   8.743   5.265
49257SOL    HW149545  12.316   8.798   5.339
49257SOL    HW249546  12.324   8.654   5.294
49258SOL     OW49547   4.132  12.537   9.714
49258SOL    HW149548   4.041  12.517   9.695
49258SOL    HW249549   4.164  12.459   9.761
49259SOL     OW49550   7.834  12.265   5.828
49259SOL    HW149551   7.915  12.250   5.877
49259SOL    HW249552   7.840  12.356   5.798
49260SOL     OW49553   1.610  14.170  14.266
49260SOL    HW149554   1.618  14.090  14.318
49260SOL    HW249555   1.519  14.197  14.278
49261SOL     OW49556  11.464  13.858   2.872
49261SOL    HW149557  11.557  13.841   2.854
49261SOL    HW249558  11.417  13.800   2.813
49262SOL     OW49559   0.246   0.084   8.065
49262SOL    HW149560   0.225   0.134   8.144
49262SOL    HW249561   0.184   0.011   8.065
49263SOL     OW49562   8.214   7.868   2.113
49263SOL    HW149563   8.191   7.798   2.173
49263SOL    HW249564   8.132   7.891   2.070
49264SOL     OW49565   3.401   0.458   1.063
49264SOL    HW149566   3.342   0.530   1.039
49264SOL    HW249567   3.452   0.492   1.137
49265SOL     OW49568   4.205   4.247   9.785
49265SOL    HW149569   4.253   4.204   9.714
49265SOL    HW249570   4.221   4.193   9.862
49266SOL     OW49571   7.532   3.264  11.648
49266SOL    HW149572   7.579   3.211  11.584
49266SOL    HW249573   7.440   3.257  11.621
49267SOL     OW49574  12.958   0.417   8.189
49267SOL    HW149575  12.982   0.487   8.130
49267SOL    HW249576  13.041   0.383   8.222
49268SOL     OW49577   1.377   1.648   7.166
49268SOL    HW149578   1.401   1.612   7.081
49268SOL    HW249579   1.393   1.742   7.158
49269SOL     OW49580  10.179  10.328  14.506
49269SOL    HW149581  10.211  10.239  14.520
49269SOL    HW249582  10.200  10.374  14.587
49270SOL     OW49583   8.746   2.188   1.261
49270SOL    HW149584   8.679   2.133   1.301
49270SOL    HW249585   8.700   2.235   1.191
49271SOL     OW49586   1.294   9.890   4.762
49271SOL    HW149587   1.289   9.903   4.857
49271SOL    HW249588   1.204   9.876   4.734
49272SOL     OW49589   4.977   2.861   7.926
49272SOL    HW149590   5.064   2.821   7.924
49272SOL    HW249591   4.963   2.881   8.019
49273SOL     OW49592  12.328  12.411  10.921
49273SOL    HW149593  12.316  12.367  10.837
49273SOL    HW249594  12.403  12.366  10.960
49274SOL     OW49595  10.540  13.528   4.567
49274SOL    HW149596  10.617  13.536   4.622
49274SOL    HW249597  10.467  13.552   4.624
49275SOL     OW49598   1.743  11.532  11.306
49275SOL    HW149599   1.781  11.472  11.242
49275SOL    HW249600   1.813  11.549  11.368
49276SOL     OW49601   6.797   9.609   8.213
49276SOL    HW149602   6.735   9.610   8.286
49276SOL    HW249603   6.811   9.702   8.192
49277SOL     OW49604   0.534   9.654   8.412
49277SOL    HW149605   0.490   9.576   8.445
49277SOL    HW249606   0.550   9.634   8.319
49278SOL     OW49607  14.514   2.795   6.058
49278SOL    HW149608  14.569   2.721   6.030
49278SOL    HW249609  14.576   2.867   6.072
49279SOL     OW49610  10.122   2.869   3.734
49279SOL    HW149611  10.183   2.830   3.796
49279SOL    HW249612  10.040   2.876   3.782
49280SOL     OW49613  12.266   3.588   2.215
49280SOL    HW149614  12.291   3.633   2.135
49280SOL    HW249615  12.317   3.630   2.284
49281SOL     OW49616   5.690   1.089   1.413
49281SOL    HW149617   5.644   1.171   1.430
49281SOL    HW249618   5.781   1.115   1.396
49282SOL     OW49619   7.176   3.641   1.496
49282SOL    HW149620   7.115   3.714   1.501
49282SOL    HW249621   7.262   3.682   1.489
49283SOL     OW49622   7.960   0.764   4.547
49283SOL    HW149623   7.957   0.847   4.594
49283SOL    HW249624   7.982   0.788   4.457
49284SOL     OW49625   6.047   8.691   6.523
49284SOL    HW149626   6.091   8.751   6.583
49284SOL    HW249627   6.118   8.650   6.474
49285SOL     OW49628  13.924   1.134   0.468
49285SOL    HW149629  13.895   1.216   0.429
49285SOL    HW249630  13.849   1.075   0.458
49286SOL     OW49631   3.080   5.941  14.816
49286SOL    HW149632   3.094   5.970  14.726
49286SOL    HW249633   3.164   5.902  14.841
49287SOL     OW49634   9.623   9.528   0.079
49287SOL    HW149635   9.614   9.544  14.866
49287SOL    HW249636   9.699   9.470   0.086
49288SOL     OW49637   2.337   9.614   1.444
49288SOL    HW149638   2.380   9.575   1.368
49288SOL    HW249639   2.244   9.593   1.433
49289SOL     OW49640   3.242  13.307  11.558
49289SOL    HW149641   3.289  13.303  11.475
49289SOL    HW249642   3.193  13.225  11.562
49290SOL     OW49643  12.686   0.858   3.292
49290SOL    HW149644  12.781   0.849   3.283
49290SOL    HW249645  12.672   0.873   3.386
49291SOL     OW49646   1.117   3.987   1.831
49291SOL    HW149647   1.060   4.007   1.757
49291SOL    HW249648   1.204   3.974   1.793
49292SOL     OW49649  13.125   8.193  14.098
49292SOL    HW149650  13.109   8.287  14.085
49292SOL    HW249651  13.124   8.181  14.193
49293SOL     OW49652   7.431   1.619  14.680
49293SOL    HW149653   7.457   1.672  14.604
49293SOL    HW249654   7.336   1.609  14.672
49294SOL     OW49655   7.840   3.008   2.734
49294SOL    HW149656   7.882   3.090   2.760
49294SOL    HW249657   7.891   2.978   2.659
49295SOL     OW49658  13.080   6.640  12.615
49295SOL    HW149659  12.993   6.674  12.638
49295SOL    HW249660  13.062   6.571  12.552
49296SOL     OW49661  14.080   9.027  13.736
49296SOL    HW149662  14.136   9.022  13.813
49296SOL    HW249663  14.083   9.119  13.710
49297SOL     OW49664   2.091   0.831  11.790
49297SOL    HW149665   2.157   0.882  11.836
49297SOL    HW249666   2.073   0.757  11.848
49298SOL     OW49667   9.020   0.323  12.303
49298SOL    HW149668   9.105   0.326  12.347
49298SOL    HW249669   9.004   0.414  12.276
49299SOL     OW49670  10.665   0.855   5.926
49299SOL    HW149671  10.625   0.797   5.862
49299SOL    HW249672  10.596   0.917   5.949
49300SOL     OW49673   3.531   8.023   7.081
49300SOL    HW149674   3.570   8.049   6.997
49300SOL    HW249675   3.565   7.935   7.096
49301SOL     OW49676   5.460   0.300   3.162
49301SOL    HW149677   5.461   0.380   3.215
49301SOL    HW249678   5.457   0.229   3.227
49302SOL     OW49679   1.019   1.206  10.552
49302SOL    HW149680   1.088   1.184  10.615
49302SOL    HW249681   0.995   1.296  10.574
49303SOL     OW49682   0.369   9.818   7.917
49303SOL    HW149683   0.353   9.833   7.823
49303SOL    HW249684   0.285   9.786   7.950
49304SOL     OW49685   7.281  13.482   9.039
49304SOL    HW149686   7.330  13.515   8.964
49304SOL    HW249687   7.282  13.387   9.029
49305SOL     OW49688  10.881   6.842  10.957
49305SOL    HW149689  10.801   6.791  10.940
49305SOL    HW249690  10.894   6.891  10.875
49306SOL     OW49691  12.539   1.856   9.167
49306SOL    HW149692  12.628   1.855   9.132
49306SOL    HW249693  12.520   1.764   9.188
49307SOL     OW49694   2.470   3.988   7.971
49307SOL    HW149695   2.542   3.935   7.936
49307SOL    HW249696   2.505   4.025   8.052
49308SOL     OW49697   6.811   1.392  11.694
49308SOL    HW149698   6.818   1.482  11.725
49308SOL    HW249699   6.721   1.384  11.664
49309SOL     OW49700   4.681   7.553  13.395
49309SOL    HW149701   4.711   7.472  13.353
49309SOL    HW249702   4.707   7.544  13.487
49310SOL     OW49703   3.837   3.058   1.092
49310SOL    HW149704   3.865   3.057   1.001
49310SOL    HW249705   3.803   3.146   1.106
49311SOL     OW49706   6.525  12.945  14.373
49311SOL    HW149707   6.545  12.898  14.454
49311SOL    HW249708   6.610  12.963  14.334
49312SOL     OW49709   6.763   6.645   4.239
49312SOL    HW149710   6.709   6.634   4.161
49312SOL    HW249711   6.703   6.629   4.312
49313SOL     OW49712  12.092  10.703   0.501
49313SOL    HW149713  12.119  10.612   0.510
49313SOL    HW249714  12.023  10.701   0.434
49314SOL     OW49715   8.730   6.197   1.074
49314SOL    HW149716   8.797   6.200   1.142
49314SOL    HW249717   8.676   6.275   1.091
49315SOL     OW49718   4.322   4.776   4.499
49315SOL    HW149719   4.319   4.860   4.545
49315SOL    HW249720   4.408   4.739   4.522
49316SOL     OW49721  13.593  13.079  11.595
49316SOL    HW149722  13.545  13.008  11.552
49316SOL    HW249723  13.525  13.141  11.621
49317SOL     OW49724  13.164   7.785   1.083
49317SOL    HW149725  13.112   7.858   1.116
49317SOL    HW249726  13.123   7.707   1.119
49318SOL     OW49727   3.050   2.981   5.784
49318SOL    HW149728   3.041   2.929   5.705
49318SOL    HW249729   2.966   2.975   5.828
49319SOL     OW49730   2.753   7.244   1.992
49319SOL    HW149731   2.804   7.320   2.020
49319SOL    HW249732   2.664   7.262   2.022
49320SOL     OW49733   8.168   8.317  10.486
49320SOL    HW149734   8.194   8.390  10.542
49320SOL    HW249735   8.248   8.295  10.438
49321SOL     OW49736   5.070  11.983   2.023
49321SOL    HW149737   5.149  11.933   2.002
49321SOL    HW249738   5.031  12.004   1.938
49322SOL     OW49739  12.174  12.213   3.007
49322SOL    HW149740  12.082  12.234   3.022
49322SOL    HW249741  12.208  12.290   2.961
49323SOL     OW49742   9.325  10.499   9.532
49323SOL    HW149743   9.295  10.583   9.564
49323SOL    HW249744   9.369  10.458   9.607
49324SOL     OW49745  11.502   3.109   6.972
49324SOL    HW149746  11.590   3.146   6.980
49324SOL    HW249747  11.483   3.115   6.878
49325SOL     OW49748   5.579   0.988   3.654
49325SOL    HW149749   5.566   1.063   3.713
49325SOL    HW249750   5.500   0.935   3.665
49326SOL     OW49751   0.088  13.899   1.688
49326SOL    HW149752   0.154  13.964   1.713
49326SOL    HW249753   0.132  13.815   1.698
49327SOL     OW49754   9.733   2.575   2.332
49327SOL    HW149755   9.682   2.654   2.318
49327SOL    HW249756   9.805   2.581   2.269
49328SOL     OW49757   9.184   9.064   1.760
49328SOL    HW149758   9.247   8.999   1.731
49328SOL    HW249759   9.230   9.116   1.826
49329SOL     OW49760   7.053  14.057   0.300
49329SOL    HW149761   7.072  13.964   0.312
49329SOL    HW249762   7.131  14.093   0.259
49330SOL     OW49763   5.398   6.459   1.324
49330SOL    HW149764   5.409   6.487   1.233
49330SOL    HW249765   5.397   6.364   1.319
49331SOL     OW49766  10.288  14.197  14.667
49331SOL    HW149767  10.368  14.246  14.652
49331SOL    HW249768  10.218  14.257  14.641
49332SOL     OW49769   9.870  12.990  13.791
49332SOL    HW149770   9.855  12.996  13.696
49332SOL    HW249771   9.923  12.911  13.801
49333SOL     OW49772   7.300   7.181  13.434
49333SOL    HW149773   7.218   7.229  13.420
49333SOL    HW249774   7.273   7.090  13.444
49334SOL     OW49775  12.633   2.131   9.433
49334SOL    HW149776  12.676   2.187   9.368
49334SOL    HW249777  12.649   2.174   9.516
49335SOL     OW49778   3.238  14.312   8.304
49335SOL    HW149779   3.270  14.329   8.216
49335SOL    HW249780   3.230  14.217   8.309
49336SOL     OW49781   9.338   1.585   4.445
49336SOL    HW149782   9.277   1.648   4.406
49336SOL    HW249783   9.410   1.638   4.478
49337SOL     OW49784   3.205   6.497   0.389
49337SOL    HW149785   3.283   6.548   0.411
49337SOL    HW249786   3.136   6.562   0.379
49338SOL     OW49787   2.170  14.640   0.871
49338SOL    HW149788   2.129  14.554   0.863
49338SOL    HW249789   2.100  14.702   0.846
49339SOL     OW49790   2.371   0.739  12.017
49339SOL    HW149791   2.399   0.770  11.931
49339SOL    HW249792   2.351   0.646  12.004
49340SOL     OW49793   2.130   5.063   0.698
49340SOL    HW149794   2.125   4.969   0.715
49340SOL    HW249795   2.124   5.071   0.603
49341SOL     OW49796  11.212   7.402   7.668
49341SOL    HW149797  11.117   7.394   7.673
49341SOL    HW249798  11.230   7.414   7.574
49342SOL     OW49799   1.778   3.439   8.707
49342SOL    HW149800   1.834   3.434   8.630
49342SOL    HW249801   1.700   3.389   8.682
49343SOL     OW49802   2.833   6.737   5.037
49343SOL    HW149803   2.814   6.704   4.950
49343SOL    HW249804   2.771   6.692   5.095
49344SOL     OW49805   8.265  10.749   6.738
49344SOL    HW149806   8.218  10.805   6.677
49344SOL    HW249807   8.292  10.807   6.810
49345SOL     OW49808  10.152   4.282  13.686
49345SOL    HW149809  10.212   4.354  13.704
49345SOL    HW249810  10.065   4.319  13.702
49346SOL     OW49811   8.201   2.015   1.419
49346SOL    HW149812   8.280   1.960   1.416
49346SOL    HW249813   8.189   2.044   1.329
49347SOL     OW49814   7.028  11.629   0.514
49347SOL    HW149815   7.101  11.579   0.477
49347SOL    HW249816   7.069  11.697   0.567
49348SOL     OW49817   2.650   3.230   6.841
49348SOL    HW149818   2.567   3.250   6.885
49348SOL    HW249819   2.716   3.271   6.896
49349SOL     OW49820   7.961   5.122   6.982
49349SOL    HW149821   8.052   5.145   7.002
49349SOL    HW249822   7.968   5.061   6.908
49350SOL     OW49823   1.895  10.601  14.028
49350SOL    HW149824   1.848  10.625  14.108
49350SOL    HW249825   1.962  10.668  14.019
49351SOL     OW49826   9.951   7.126   8.521
49351SOL    HW149827  10.018   7.170   8.573
49351SOL    HW249828   9.956   7.034   8.549
49352SOL     OW49829   7.277   7.096   9.246
49352SOL    HW149830   7.213   7.025   9.242
49352SOL    HW249831   7.334   7.081   9.171
49353SOL     OW49832   6.643   4.989  10.543
49353SOL    HW149833   6.557   4.954  10.569
49353SOL    HW249834   6.642   4.984  10.447
49354SOL     OW49835   4.770   6.552  13.500
49354SOL    HW149836   4.746   6.541  13.592
49354SOL    HW249837   4.768   6.463  13.464
49355SOL     OW49838   1.629   7.390   9.865
49355SOL    HW149839   1.650   7.440   9.944
49355SOL    HW249840   1.538   7.363   9.878
49356SOL     OW49841   4.846   4.751   7.535
49356SOL    HW149842   4.794   4.768   7.614
49356SOL    HW249843   4.841   4.833   7.485
49357SOL     OW49844   2.170  11.144   5.794
49357SOL    HW149845   2.112  11.076   5.760
49357SOL    HW249846   2.258  11.109   5.782
49358SOL     OW49847  13.851   2.498   1.850
49358SOL    HW149848  13.865   2.496   1.945
49358SOL    HW249849  13.805   2.416   1.831
49359SOL     OW49850   6.102  13.373   6.102
49359SOL    HW149851   6.168  13.438   6.127
49359SOL    HW249852   6.110  13.304   6.167
49360SOL     OW49853   3.922  12.838   6.588
49360SOL    HW149854   3.992  12.773   6.590
49360SOL    HW249855   3.909  12.863   6.679
49361SOL     OW49856  14.755   6.282   6.638
49361SOL    HW149857  14.818   6.339   6.594
49361SOL    HW249858  14.803   6.200   6.652
49362SOL     OW49859   9.597   6.492  13.097
49362SOL    HW149860   9.567   6.583  13.094
49362SOL    HW249861   9.689   6.496  13.071
49363SOL     OW49862  12.230   0.041  13.291
49363SOL    HW149863  12.257  14.833  13.315
49363SOL    HW249864  12.151   0.029  13.238
49364SOL     OW49865   6.344   3.591   6.249
49364SOL    HW149866   6.402   3.624   6.318
49364SOL    HW249867   6.369   3.500   6.237
49365SOL     OW49868  10.620   2.417  14.086
49365SOL    HW149869  10.692   2.398  14.026
49365SOL    HW249870  10.549   2.445  14.029
49366SOL     OW49871   4.803  11.844   1.740
49366SOL    HW149872   4.769  11.907   1.677
49366SOL    HW249873   4.893  11.870   1.754
49367SOL     OW49874   3.896   2.168  11.527
49367SOL    HW149875   3.982   2.126  11.539
49367SOL    HW249876   3.877   2.208  11.611
49368SOL     OW49877  11.917  10.550   5.092
49368SOL    HW149878  11.953  10.491   5.026
49368SOL    HW249879  11.938  10.638   5.059
49369SOL     OW49880   0.446   2.685   7.984
49369SOL    HW149881   0.490   2.658   7.904
49369SOL    HW249882   0.505   2.658   8.054
49370SOL     OW49883   9.062   1.188   9.632
49370SOL    HW149884   8.977   1.167   9.672
49370SOL    HW249885   9.074   1.281   9.650
49371SOL     OW49886   2.186   5.138   2.273
49371SOL    HW149887   2.252   5.089   2.321
49371SOL    HW249888   2.183   5.098   2.186
49372SOL     OW49889   6.579   3.864   2.134
49372SOL    HW149890   6.544   3.832   2.217
49372SOL    HW249891   6.625   3.789   2.097
49373SOL     OW49892  13.953   9.702   5.500
49373SOL    HW149893  13.916   9.783   5.535
49373SOL    HW249894  14.003   9.730   5.423
49374SOL     OW49895  10.624   0.542  14.605
49374SOL    HW149896  10.584   0.462  14.572
49374SOL    HW249897  10.673   0.577  14.531
49375SOL     OW49898   6.436   8.112  12.596
49375SOL    HW149899   6.455   8.149  12.510
49375SOL    HW249900   6.367   8.169  12.632
49376SOL     OW49901   0.997   6.278  10.813
49376SOL    HW149902   0.961   6.224  10.883
49376SOL    HW249903   0.958   6.244  10.733
49377SOL     OW49904   2.428   1.671  12.049
49377SOL    HW149905   2.483   1.742  12.016
49377SOL    HW249906   2.368   1.652  11.977
49378SOL     OW49907  14.642   3.892   7.061
49378SOL    HW149908  14.702   3.821   7.038
49378SOL    HW249909  14.696   3.971   7.057
49379SOL     OW49910  10.485   2.879   3.608
49379SOL    HW149911  10.437   2.796   3.610
49379SOL    HW249912  10.577   2.855   3.621
49380SOL     OW49913   1.792   7.570   6.199
49380SOL    HW149914   1.722   7.575   6.134
49380SOL    HW249915   1.820   7.478   6.196
49381SOL     OW49916   3.830  13.208   0.104
49381SOL    HW149917   3.874  13.128   0.133
49381SOL    HW249918   3.743  13.179   0.077
49382SOL     OW49919  10.089  12.754  11.151
49382SOL    HW149920  10.157  12.746  11.084
49382SOL    HW249921  10.012  12.713  11.112
49383SOL     OW49922   3.793  14.482   0.437
49383SOL    HW149923   3.757  14.445   0.356
49383SOL    HW249924   3.721  14.534   0.473
49384SOL     OW49925  13.971   6.114  12.412
49384SOL    HW149926  13.919   6.165  12.475
49384SOL    HW249927  13.922   6.122  12.330
49385SOL     OW49928  12.697   2.064   8.806
49385SOL    HW149929  12.638   2.008   8.757
49385SOL    HW249930  12.782   2.054   8.763
49386SOL     OW49931   0.695   7.519  13.014
49386SOL    HW149932   0.679   7.614  13.013
49386SOL    HW249933   0.644   7.486  12.940
49387SOL     OW49934   7.603  11.257   7.917
49387SOL    HW149935   7.613  11.294   7.830
49387SOL    HW249936   7.691  11.229   7.942
49388SOL     OW49937   8.111  13.927   0.026
49388SOL    HW149938   8.151  14.009  14.879
49388SOL    HW249939   8.048  13.905  14.838
49389SOL     OW49940   7.936   5.844   4.594
49389SOL    HW149941   7.868   5.803   4.647
49389SOL    HW249942   7.962   5.921   4.644
49390SOL     OW49943   0.456  12.101  12.771
49390SOL    HW149944   0.461  12.117  12.865
49390SOL    HW249945   0.502  12.176  12.731
49391SOL     OW49946  10.122  14.778   2.579
49391SOL    HW149947  10.093  14.796   2.668
49391SOL    HW249948  10.048  14.804   2.523
49392SOL     OW49949  14.814   2.382   3.604
49392SOL    HW149950  14.816   2.478   3.609
49392SOL    HW249951  14.724   2.358   3.625
49393SOL     OW49952   0.377   4.288   7.241
49393SOL    HW149953   0.320   4.303   7.165
49393SOL    HW249954   0.434   4.217   7.214
49394SOL     OW49955   0.913   0.894   8.565
49394SOL    HW149956   0.941   0.930   8.482
49394SOL    HW249957   0.873   0.967   8.612
49395SOL     OW49958  10.461   7.693   3.002
49395SOL    HW149959  10.391   7.683   3.067
49395SOL    HW249960  10.431   7.643   2.926
49396SOL     OW49961   6.450   2.930   0.062
49396SOL    HW149962   6.469   2.895  14.857
49396SOL    HW249963   6.416   3.018   0.045
49397SOL     OW49964   2.522   6.555  11.121
49397SOL    HW149965   2.520   6.576  11.214
49397SOL    HW249966   2.432   6.531  11.100
49398SOL     OW49967   9.833   1.970   0.416
49398SOL    HW149968   9.749   2.010   0.437
49398SOL    HW249969   9.894   2.044   0.410
49399SOL     OW49970   4.119   7.388   3.415
49399SOL    HW149971   4.125   7.436   3.498
49399SOL    HW249972   4.095   7.299   3.441
49400SOL     OW49973   6.208   7.715   8.351
49400SOL    HW149974   6.166   7.781   8.295
49400SOL    HW249975   6.202   7.751   8.439
49401SOL     OW49976   0.648   7.379  11.237
49401SOL    HW149977   0.562   7.395  11.199
49401SOL    HW249978   0.710   7.404  11.167
49402SOL     OW49979   8.379   8.503   0.628
49402SOL    HW149980   8.438   8.578   0.634
49402SOL    HW249981   8.377   8.482   0.534
49403SOL     OW49982   4.151   4.048  13.792
49403SOL    HW149983   4.072   4.002  13.762
49403SOL    HW249984   4.188   3.991  13.859
49404SOL     OW49985   0.461   9.177  14.545
49404SOL    HW149986   0.482   9.104  14.487
49404SOL    HW249987   0.374   9.206  14.517
49405SOL     OW49988  12.468   8.043   1.199
49405SOL    HW149989  12.432   8.029   1.286
49405SOL    HW249990  12.507   8.131   1.203
49406SOL     OW49991   8.230  10.619   2.675
49406SOL    HW149992   8.318  10.646   2.647
49406SOL    HW249993   8.245  10.556   2.745
49407SOL     OW49994  14.361   3.433  10.143
49407SOL    HW149995  14.393   3.417  10.232
49407SOL    HW249996  14.440   3.442  10.090
49408SOL     OW49997  11.066   6.162   4.328
49408SOL    HW149998  11.151   6.163   4.372
49408SOL    HW249999  11.024   6.243   4.355
49409SOL     OW50000   2.007  12.572   8.853
49409SOL    HW150001   2.046  12.535   8.774
49409SOL    HW250002   2.071  12.637   8.883
49410SOL     OW50003   6.226   6.178   8.909
49410SOL    HW150004   6.263   6.148   8.993
49410SOL    HW250005   6.258   6.114   8.845
49411SOL     OW50006   6.161  14.316   6.671
49411SOL    HW150007   6.098  14.280   6.609
49411SOL    HW250008   6.230  14.250   6.676
49412SOL     OW50009  13.229  11.836   9.496
49412SOL    HW150010  13.155  11.863   9.550
49412SOL    HW250011  13.225  11.892   9.419
49413SOL     OW50012  14.027   0.158  12.961
49413SOL    HW150013  13.982   0.075  12.948
49413SOL    HW250014  14.047   0.160  13.055
49414SOL     OW50015  13.392   7.230   3.620
49414SOL    HW150016  13.389   7.146   3.574
49414SOL    HW250017  13.482   7.262   3.606
49415SOL     OW50018  10.056   8.563   5.035
49415SOL    HW150019  10.002   8.630   4.993
49415SOL    HW250020  10.088   8.605   5.115
49416SOL     OW50021  13.640  12.977   1.764
49416SOL    HW150022  13.647  12.894   1.716
49416SOL    HW250023  13.707  13.033   1.724
49417SOL     OW50024  12.755   1.464   2.440
49417SOL    HW150025  12.819   1.441   2.372
49417SOL    HW250026  12.746   1.559   2.433
49418SOL     OW50027   2.228   0.591   0.466
49418SOL    HW150028   2.303   0.576   0.524
49418SOL    HW250029   2.255   0.556   0.382
49419SOL     OW50030  13.774   8.452   9.130
49419SOL    HW150031  13.861   8.437   9.168
49419SOL    HW250032  13.724   8.494   9.200
49420SOL     OW50033   2.969  10.487   8.659
49420SOL    HW150034   3.044  10.438   8.626
49420SOL    HW250035   2.948  10.549   8.589
49421SOL     OW50036   8.407  12.601  10.157
49421SOL    HW150037   8.468  12.602  10.084
49421SOL    HW250038   8.334  12.656  10.128
49422SOL     OW50039   6.427  12.686   3.917
49422SOL    HW150040   6.426  12.627   3.992
49422SOL    HW250041   6.370  12.759   3.943
49423SOL     OW50042   7.619  11.852   6.617
49423SOL    HW150043   7.619  11.870   6.711
49423SOL    HW250044   7.627  11.939   6.576
49424SOL     OW50045  11.452   0.795   9.082
49424SOL    HW150046  11.425   0.738   9.153
49424SOL    HW250047  11.372   0.809   9.031
49425SOL     OW50048   8.990  11.540  11.621
49425SOL    HW150049   8.918  11.537  11.558
49425SOL    HW250050   8.958  11.492  11.697
49426SOL     OW50051  11.932  11.406  14.067
49426SOL    HW150052  11.965  11.494  14.085
49426SOL    HW250053  12.010  11.353  14.051
49427SOL     OW50054  13.807   3.343   1.709
49427SOL    HW150055  13.800   3.257   1.750
49427SOL    HW250056  13.838   3.325   1.620
49428SOL     OW50057   8.594   4.226  13.167
49428SOL    HW150058   8.537   4.287  13.214
49428SOL    HW250059   8.669   4.279  13.139
49429SOL     OW50060   2.851   2.615   5.631
49429SOL    HW150061   2.790   2.685   5.609
49429SOL    HW250062   2.814   2.537   5.587
49430SOL     OW50063  12.413  14.279   8.256
49430SOL    HW150064  12.410  14.283   8.351
49430SOL    HW250065  12.503  14.254   8.236
49431SOL     OW50066  10.696   2.009  10.603
49431SOL    HW150067  10.603   2.028  10.616
49431SOL    HW250068  10.734   2.094  10.579
49432SOL     OW50069  10.026  13.264   0.294
49432SOL    HW150070   9.972  13.343   0.285
49432SOL    HW250071   9.963  13.193   0.308
49433SOL     OW50072   8.256   3.223   6.003
49433SOL    HW150073   8.324   3.276   6.043
49433SOL    HW250074   8.295   3.188   5.923
49434SOL     OW50075   1.752   6.947   3.633
49434SOL    HW150076   1.685   6.970   3.568
49434SOL    HW250077   1.834   6.980   3.596
49435SOL     OW50078  10.605   5.814  13.477
49435SOL    HW150079  10.591   5.907  13.463
49435SOL    HW250080  10.700   5.802  13.469
49436SOL     OW50081  12.900   8.799  13.843
49436SOL    HW150082  12.933   8.725  13.792
49436SOL    HW250083  12.978   8.837  13.883
49437SOL     OW50084   5.802   1.813   8.347
49437SOL    HW150085   5.725   1.787   8.297
49437SOL    HW250086   5.791   1.771   8.432
49438SOL     OW50087   6.308   4.360   4.784
49438SOL    HW150088   6.254   4.354   4.862
49438SOL    HW250089   6.285   4.444   4.745
49439SOL     OW50090  11.105   9.651  12.158
49439SOL    HW150091  11.027   9.672  12.209
49439SOL    HW250092  11.077   9.584  12.097
49440SOL     OW50093   4.199   2.709   1.710
49440SOL    HW150094   4.155   2.649   1.771
49440SOL    HW250095   4.285   2.723   1.749
49441SOL     OW50096   3.327  12.236  11.760
49441SOL    HW150097   3.370  12.199  11.837
49441SOL    HW250098   3.292  12.159  11.714
49442SOL     OW50099   7.333   3.600   8.156
49442SOL    HW150100   7.286   3.608   8.239
49442SOL    HW250101   7.377   3.516   8.161
49443SOL     OW50102  12.357   8.427   9.182
49443SOL    HW150103  12.451   8.443   9.191
49443SOL    HW250104  12.326   8.414   9.271
49444SOL     OW50105   2.812   0.949  14.806
49444SOL    HW150106   2.900   0.911  14.801
49444SOL    HW250107   2.812   0.999   0.006
49445SOL     OW50108  14.816   6.504  14.742
49445SOL    HW150109  14.803   6.567  14.813
49445SOL    HW250110  14.880   6.442  14.778
49446SOL     OW50111  10.252   8.900  10.050
49446SOL    HW150112  10.278   8.982  10.090
49446SOL    HW250113  10.333   8.863  10.015
49447SOL     OW50114   2.085   2.107   0.897
49447SOL    HW150115   2.114   2.097   0.806
49447SOL    HW250116   2.050   2.196   0.902
49448SOL     OW50117  10.098  14.208   3.397
49448SOL    HW150118  10.119  14.132   3.450
49448SOL    HW250119  10.005  14.222   3.409
49449SOL     OW50120  11.181  11.960   4.917
49449SOL    HW150121  11.249  12.025   4.934
49449SOL    HW250122  11.228  11.879   4.899
49450SOL     OW50123  11.582  11.876   2.337
49450SOL    HW150124  11.592  11.782   2.319
49450SOL    HW250125  11.496  11.884   2.378
49451SOL     OW50126   2.387   8.863  13.721
49451SOL    HW150127   2.301   8.903  13.737
49451SOL    HW250128   2.392   8.792  13.785
49452SOL     OW50129   1.971   6.667   9.935
49452SOL    HW150130   1.876   6.681   9.938
49452SOL    HW250131   2.000   6.716   9.858
49453SOL     OW50132  12.689   0.972   9.351
49453SOL    HW150133  12.757   0.913   9.319
49453SOL    HW250134  12.615   0.958   9.292
49454SOL     OW50135  13.934   7.938   9.935
49454SOL    HW150136  14.019   7.971   9.965
49454SOL    HW250137  13.903   7.884  10.008
49455SOL     OW50138   1.956  10.934  14.596
49455SOL    HW150139   1.957  11.030  14.587
49455SOL    HW250140   1.971  10.902  14.507
49456SOL     OW50141   2.631  10.735   0.620
49456SOL    HW150142   2.564  10.682   0.577
49456SOL    HW250143   2.607  10.825   0.600
49457SOL     OW50144   1.219  10.262   4.050
49457SOL    HW150145   1.288  10.233   4.110
49457SOL    HW250146   1.260  10.260   3.963
49458SOL     OW50147   1.096   9.946   2.756
49458SOL    HW150148   1.134   9.956   2.669
49458SOL    HW250149   1.172   9.935   2.814
49459SOL     OW50150  13.665   4.843   7.706
49459SOL    HW150151  13.611   4.869   7.631
49459SOL    HW250152  13.745   4.807   7.666
49460SOL     OW50153  13.024   7.291  12.780
49460SOL    HW150154  12.937   7.294  12.819
49460SOL    HW250155  13.073   7.230  12.836
49461SOL     OW50156  10.453   9.645  11.709
49461SOL    HW150157  10.419   9.651  11.799
49461SOL    HW250158  10.444   9.734  11.674
49462SOL     OW50159   5.331   0.224  11.719
49462SOL    HW150160   5.308   0.309  11.681
49462SOL    HW250161   5.401   0.243  11.781
49463SOL     OW50162  10.389  10.840   4.510
49463SOL    HW150163  10.404  10.907   4.576
49463SOL    HW250164  10.364  10.888   4.431
49464SOL     OW50165   1.676   2.680  12.859
49464SOL    HW150166   1.606   2.617  12.874
49464SOL    HW250167   1.747   2.628  12.821
49465SOL     OW50168  11.705   7.762   9.304
49465SOL    HW150169  11.616   7.779   9.272
49465SOL    HW250170  11.709   7.667   9.315
49466SOL     OW50171   9.628   5.552  13.262
49466SOL    HW150172   9.647   5.586  13.350
49466SOL    HW250173   9.543   5.510  13.271
49467SOL     OW50174   5.880  12.341   5.364
49467SOL    HW150175   5.926  12.389   5.433
49467SOL    HW250176   5.833  12.408   5.315
49468SOL     OW50177   1.741   4.056   4.060
49468SOL    HW150178   1.790   4.092   4.134
49468SOL    HW250179   1.755   4.119   3.989
49469SOL     OW50180   2.718   0.729   5.269
49469SOL    HW150181   2.756   0.812   5.298
49469SOL    HW250182   2.668   0.698   5.344
49470SOL     OW50183   8.601   3.543   8.946
49470SOL    HW150184   8.634   3.497   8.869
49470SOL    HW250185   8.545   3.612   8.911
49471SOL     OW50186  11.917  13.516   1.772
49471SOL    HW150187  11.910  13.534   1.679
49471SOL    HW250188  11.890  13.598   1.814
49472SOL     OW50189   8.685  11.170   8.763
49472SOL    HW150190   8.618  11.110   8.794
49472SOL    HW250191   8.761  11.153   8.818
49473SOL     OW50192   1.050   3.546  12.168
49473SOL    HW150193   1.079   3.464  12.127
49473SOL    HW250194   1.098   3.614  12.122
49474SOL     OW50195   3.739   0.598  13.349
49474SOL    HW150196   3.758   0.521  13.295
49474SOL    HW250197   3.820   0.650  13.347
49475SOL     OW50198  12.233   3.887   0.687
49475SOL    HW150199  12.281   3.848   0.760
49475SOL    HW250200  12.141   3.868   0.706
49476SOL     OW50201   6.544   1.583   4.569
49476SOL    HW150202   6.611   1.553   4.631
49476SOL    HW250203   6.540   1.513   4.503
49477SOL     OW50204   3.653   2.653  14.867
49477SOL    HW150205   3.643   2.696   0.070
49477SOL    HW250206   3.742   2.618  14.868
49478SOL     OW50207   5.127  14.164   1.220
49478SOL    HW150208   5.125  14.079   1.265
49478SOL    HW250209   5.159  14.225   1.287
49479SOL     OW50210   4.616  11.597  10.500
49479SOL    HW150211   4.654  11.623  10.416
49479SOL    HW250212   4.683  11.542  10.541
49480SOL     OW50213  10.818   0.818   1.344
49480SOL    HW150214  10.890   0.757   1.354
49480SOL    HW250215  10.748   0.783   1.400
49481SOL     OW50216   9.023   9.006   9.424
49481SOL    HW150217   9.014   9.093   9.385
49481SOL    HW250218   9.007   9.020   9.518
49482SOL     OW50219  14.175   1.951   0.727
49482SOL    HW150220  14.102   1.960   0.788
49482SOL    HW250221  14.172   1.859   0.700
49483SOL     OW50222  11.521  10.025  12.611
49483SOL    HW150223  11.578  10.097  12.637
49483SOL    HW250224  11.520   9.967  12.688
49484SOL     OW50225   9.768   8.470  11.701
49484SOL    HW150226   9.843   8.448  11.756
49484SOL    HW250227   9.767   8.566  11.699
49485SOL     OW50228   6.665   6.879   6.945
49485SOL    HW150229   6.647   6.879   7.040
49485SOL    HW250230   6.597   6.822   6.909
49486SOL     OW50231   1.517  13.910  11.070
49486SOL    HW150232   1.553  13.918  10.982
49486SOL    HW250233   1.542  13.991  11.114
49487SOL     OW50234  10.856  13.462  11.299
49487SOL    HW150235  10.900  13.419  11.225
49487SOL    HW250236  10.840  13.551  11.269
49488SOL     OW50237   7.875  13.600   3.937
49488SOL    HW150238   7.832  13.602   3.852
49488SOL    HW250239   7.835  13.671   3.986
49489SOL     OW50240  11.733   4.161   0.942
49489SOL    HW150241  11.754   4.118   1.025
49489SOL    HW250242  11.816   4.161   0.894
49490SOL     OW50243   7.346   9.421   8.812
49490SOL    HW150244   7.409   9.492   8.820
49490SOL    HW250245   7.260   9.464   8.811
49491SOL     OW50246   9.552   3.417   3.397
49491SOL    HW150247   9.519   3.413   3.487
49491SOL    HW250248   9.544   3.510   3.373
49492SOL     OW50249  12.261  11.986   4.797
49492SOL    HW150250  12.201  11.921   4.761
49492SOL    HW250251  12.272  12.050   4.727
49493SOL     OW50252   9.519  11.710   2.961
49493SOL    HW150253   9.557  11.730   3.047
49493SOL    HW250254   9.472  11.628   2.974
49494SOL     OW50255   6.493   6.855  14.085
49494SOL    HW150256   6.561   6.922  14.092
49494SOL    HW250257   6.414   6.904  14.063
49495SOL     OW50258   1.631   1.114  14.177
49495SOL    HW150259   1.637   1.067  14.261
49495SOL    HW250260   1.549   1.164  14.184
49496SOL     OW50261  13.255   7.574   3.589
49496SOL    HW150262  13.185   7.578   3.524
49496SOL    HW250263  13.325   7.627   3.551
49497SOL     OW50264   3.228   2.210  11.823
49497SOL    HW150265   3.279   2.287  11.796
49497SOL    HW250266   3.192   2.176  11.741
49498SOL     OW50267  12.769   4.344   8.032
49498SOL    HW150268  12.762   4.423   7.978
49498SOL    HW250269  12.845   4.298   7.998
49499SOL     OW50270   1.786  11.824  12.035
49499SOL    HW150271   1.737  11.776  12.102
49499SOL    HW250272   1.780  11.768  11.957
49500SOL     OW50273   3.895   3.395  13.569
49500SOL    HW150274   3.961   3.326  13.582
49500SOL    HW250275   3.864   3.414  13.658
49501SOL     OW50276   6.557  13.803  12.390
49501SOL    HW150277   6.576  13.788  12.483
49501SOL    HW250278   6.465  13.777  12.380
49502SOL     OW50279   6.858   9.965  12.463
49502SOL    HW150280   6.819   9.924  12.386
49502SOL    HW250281   6.896  10.046  12.430
49503SOL     OW50282   8.878   9.798   0.203
49503SOL    HW150283   8.879   9.812   0.108
49503SOL    HW250284   8.924   9.715   0.215
49504SOL     OW50285   8.588  10.352  10.030
49504SOL    HW150286   8.599  10.416  10.101
49504SOL    HW250287   8.526  10.288  10.065
49505SOL     OW50288   7.512  11.788  13.664
49505SOL    HW150289   7.553  11.743  13.590
49505SOL    HW250290   7.459  11.856  13.623
49506SOL     OW50291   3.092   4.168   6.030
49506SOL    HW150292   3.080   4.193   5.938
49506SOL    HW250293   3.015   4.116   6.051
49507SOL     OW50294  12.634  10.665   5.263
49507SOL    HW150295  12.571  10.670   5.334
49507SOL    HW250296  12.644  10.571   5.246
49508SOL     OW50297   8.688   2.812  10.996
49508SOL    HW150298   8.661   2.727  11.032
49508SOL    HW250299   8.781   2.801  10.975
49509SOL     OW50300   4.310  13.562   4.596
49509SOL    HW150301   4.372  13.546   4.524
49509SOL    HW250302   4.330  13.495   4.661
49510SOL     OW50303   3.255  10.344   9.843
49510SOL    HW150304   3.189  10.304   9.899
49510SOL    HW250305   3.213  10.351   9.757
49511SOL     OW50306   9.878   1.114  12.465
49511SOL    HW150307   9.964   1.118  12.506
49511SOL    HW250308   9.883   1.040  12.405
49512SOL     OW50309   0.075   5.064   2.727
49512SOL    HW150310  14.876   5.048   2.775
49512SOL    HW250311   0.071   5.004   2.653
49513SOL     OW50312   1.510  11.641   8.107
49513SOL    HW150313   1.432  11.693   8.089
49513SOL    HW250314   1.477  11.560   8.146
49514SOL     OW50315   4.360   1.014  14.161
49514SOL    HW150316   4.431   1.024  14.224
49514SOL    HW250317   4.404   0.996  14.078
49515SOL     OW50318  13.078   2.078   0.081
49515SOL    HW150319  13.107   2.079  14.871
49515SOL    HW250320  13.137   2.139   0.126
49516SOL     OW50321  10.945  13.039  11.231
49516SOL    HW150322  10.893  13.010  11.156
49516SOL    HW250323  10.964  12.959  11.280
49517SOL     OW50324   3.417   6.416   5.691
49517SOL    HW150325   3.507   6.427   5.721
49517SOL    HW250326   3.421   6.342   5.630
49518SOL     OW50327  10.741  12.645  14.410
49518SOL    HW150328  10.800  12.701  14.461
49518SOL    HW250329  10.709  12.580  14.473
49519SOL     OW50330  14.420   9.052   5.384
49519SOL    HW150331  14.454   9.081   5.469
49519SOL    HW250332  14.496   9.019   5.337
49520SOL     OW50333   6.312  13.162   1.971
49520SOL    HW150334   6.395  13.180   2.014
49520SOL    HW250335   6.335  13.138   1.881
49521SOL     OW50336  10.042   1.415   9.652
49521SOL    HW150337  10.006   1.327   9.642
49521SOL    HW250338  10.037   1.454   9.564
49522SOL     OW50339   8.946   0.660   8.727
49522SOL    HW150340   8.928   0.681   8.819
49522SOL    HW250341   8.917   0.736   8.678
49523SOL     OW50342  11.890   2.349   4.269
49523SOL    HW150343  11.963   2.287   4.263
49523SOL    HW250344  11.817   2.303   4.229
49524SOL     OW50345  13.402   3.345   4.877
49524SOL    HW150346  13.428   3.332   4.968
49524SOL    HW250347  13.307   3.331   4.877
49525SOL     OW50348   9.240   6.856   9.897
49525SOL    HW150349   9.194   6.914   9.958
49525SOL    HW250350   9.236   6.770   9.938
49526SOL     OW50351   9.322  13.065  12.862
49526SOL    HW150352   9.237  13.058  12.905
49526SOL    HW250353   9.333  13.158  12.846
49527SOL     OW50354   7.214   2.946   9.192
49527SOL    HW150355   7.172   2.989   9.266
49527SOL    HW250356   7.298   2.991   9.182
49528SOL     OW50357   9.161  11.414  12.503
49528SOL    HW150358   9.104  11.451  12.436
49528SOL    HW250359   9.108  11.414  12.583
49529SOL     OW50360   5.993   5.593   1.099
49529SOL    HW150361   5.961   5.563   1.014
49529SOL    HW250362   5.965   5.526   1.161
49530SOL     OW50363  11.799  14.629  12.971
49530SOL    HW150364  11.708  14.598  12.974
49530SOL    HW250365  11.832  14.615  13.060
49531SOL     OW50366   3.443  11.383  13.398
49531SOL    HW150367   3.488  11.317  13.345
49531SOL    HW250368   3.424  11.339  13.480
49532SOL     OW50369   0.772  11.806   0.300
49532SOL    HW150370   0.738  11.870   0.237
49532SOL    HW250371   0.713  11.813   0.375
49533SOL     OW50372   3.280   4.483  12.464
49533SOL    HW150373   3.327   4.543  12.406
49533SOL    HW250374   3.299   4.514  12.552
49534SOL     OW50375  13.079   0.941   4.935
49534SOL    HW150376  13.144   0.919   4.868
49534SOL    HW250377  13.104   0.889   5.011
49535SOL     OW50378   6.656   2.303   7.290
49535SOL    HW150379   6.563   2.325   7.299
49535SOL    HW250380   6.698   2.384   7.262
49536SOL     OW50381   3.784   0.425  11.516
49536SOL    HW150382   3.753   0.412  11.426
49536SOL    HW250383   3.861   0.480  11.507
49537SOL     OW50384   2.637   1.222  10.652
49537SOL    HW150385   2.638   1.183  10.565
49537SOL    HW250386   2.549   1.203  10.686
49538SOL     OW50387   7.745  11.050   1.610
49538SOL    HW150388   7.778  10.960   1.607
49538SOL    HW250389   7.691  11.058   1.532
49539SOL     OW50390   8.133   8.041  13.496
49539SOL    HW150391   8.148   7.956  13.536
49539SOL    HW250392   8.055   8.075  13.539
49540SOL     OW50393   1.858   6.750   9.465
49540SOL    HW150394   1.770   6.725   9.494
49540SOL    HW250395   1.910   6.752   9.545
49541SOL     OW50396   1.844   3.884   0.851
49541SOL    HW150397   1.761   3.917   0.817
49541SOL    HW250398   1.904   3.958   0.843
49542SOL     OW50399   6.288  10.448   8.488
49542SOL    HW150400   6.318  10.394   8.415
49542SOL    HW250401   6.234  10.516   8.447
49543SOL     OW50402   6.499   6.950   5.784
49543SOL    HW150403   6.423   6.992   5.743
49543SOL    HW250404   6.460   6.883   5.841
49544SOL     OW50405   0.511   0.985   7.087
49544SOL    HW150406   0.585   1.031   7.126
49544SOL    HW250407   0.547   0.901   7.058
49545SOL     OW50408   7.367   0.551  10.173
49545SOL    HW150409   7.341   0.638  10.203
49545SOL    HW250410   7.346   0.493  10.246
49546SOL     OW50411   5.878  13.818   2.456
49546SOL    HW150412   5.810  13.807   2.522
49546SOL    HW250413   5.957  13.781   2.495
49547SOL     OW50414   6.220   4.804   0.724
49547SOL    HW150415   6.207   4.890   0.764
49547SOL    HW250416   6.187   4.742   0.789
49548SOL     OW50417   5.240  11.510   4.947
49548SOL    HW150418   5.195  11.575   5.001
49548SOL    HW250419   5.270  11.443   5.010
49549SOL     OW50420  14.508   3.373   0.179
49549SOL    HW150421  14.542   3.366   0.269
49549SOL    HW250422  14.471   3.461   0.174
49550SOL     OW50423  12.390   7.828  12.066
49550SOL    HW150424  12.453   7.838  11.995
49550SOL    HW250425  12.432   7.870  12.141
49551SOL     OW50426   4.026   4.042   4.284
49551SOL    HW150427   4.073   4.093   4.351
49551SOL    HW250428   3.994   4.108   4.222
49552SOL     OW50429  10.047  12.272  12.282
49552SOL    HW150430  10.099  12.305  12.209
49552SOL    HW250431   9.957  12.292  12.260
49553SOL     OW50432   7.527   4.139   9.371
49553SOL    HW150433   7.502   4.105   9.457
49553SOL    HW250434   7.557   4.063   9.323
49554SOL     OW50435  14.793  10.342  14.014
49554SOL    HW150436  14.782  10.381  14.101
49554SOL    HW250437  14.781  10.416  13.953
49555SOL     OW50438   5.918  10.636  11.383
49555SOL    HW150439   5.957  10.611  11.467
49555SOL    HW250440   5.851  10.701  11.406
49556SOL     OW50441  14.596   4.959   6.772
49556SOL    HW150442  14.555   5.045   6.766
49556SOL    HW250443  14.564   4.911   6.695
49557SOL     OW50444  12.238   6.261  10.642
49557SOL    HW150445  12.193   6.265  10.558
49557SOL    HW250446  12.296   6.337  10.642
49558SOL     OW50447  12.927   1.944  14.609
49558SOL    HW150448  12.871   1.889  14.554
49558SOL    HW250449  12.964   1.884  14.673
49559SOL     OW50450   4.679   0.382   8.482
49559SOL    HW150451   4.632   0.450   8.434
49559SOL    HW250452   4.709   0.426   8.562
49560SOL     OW50453   1.262   1.737   8.245
49560SOL    HW150454   1.207   1.746   8.168
49560SOL    HW250455   1.341   1.788   8.226
49561SOL     OW50456   6.437  11.050   3.317
49561SOL    HW150457   6.370  11.059   3.250
49561SOL    HW250458   6.493  10.979   3.285
49562SOL     OW50459   8.427   2.745   6.328
49562SOL    HW150460   8.440   2.680   6.260
49562SOL    HW250461   8.443   2.829   6.285
49563SOL     OW50462   0.410   6.082  12.856
49563SOL    HW150463   0.465   6.029  12.799
49563SOL    HW250464   0.351   6.019  12.897
49564SOL     OW50465  12.458  10.818  13.674
49564SOL    HW150466  12.524  10.748  13.671
49564SOL    HW250467  12.379  10.778  13.637
49565SOL     OW50468  11.255   9.417  10.404
49565SOL    HW150469  11.350   9.414  10.413
49565SOL    HW250470  11.224   9.343  10.456
49566SOL     OW50471   1.393   0.969   0.524
49566SOL    HW150472   1.312   0.929   0.557
49566SOL    HW250473   1.373   1.062   0.515
49567SOL     OW50474  12.414   0.465   3.112
49567SOL    HW150475  12.463   0.546   3.103
49567SOL    HW250476  12.452   0.424   3.190
49568SOL     OW50477  11.471   9.505   0.946
49568SOL    HW150478  11.484   9.575   1.009
49568SOL    HW250479  11.408   9.446   0.988
49569SOL     OW50480   5.368   5.392   1.011
49569SOL    HW150481   5.401   5.468   0.963
49569SOL    HW250482   5.447   5.348   1.044
49570SOL     OW50483   8.956  13.227   2.901
49570SOL    HW150484   8.970  13.313   2.860
49570SOL    HW250485   8.942  13.167   2.828
49571SOL     OW50486  14.690  12.377   8.504
49571SOL    HW150487  14.632  12.312   8.464
49571SOL    HW250488  14.766  12.326   8.533
49572SOL     OW50489  14.378   2.586   7.057
49572SOL    HW150490  14.460   2.587   7.008
49572SOL    HW250491  14.319   2.643   7.007
49573SOL     OW50492   1.478  14.567  10.046
49573SOL    HW150493   1.451  14.493  10.100
49573SOL    HW250494   1.442  14.547   9.959
49574SOL     OW50495   9.802  13.769  12.687
49574SOL    HW150496   9.864  13.806  12.624
49574SOL    HW250497   9.741  13.718  12.634
49575SOL     OW50498  12.092   3.251  11.218
49575SOL    HW150499  12.177   3.282  11.249
49575SOL    HW250500  12.040   3.240  11.297
49576SOL     OW50501   8.435   2.779   1.141
49576SOL    HW150502   8.426   2.689   1.171
49576SOL    HW250503   8.529   2.793   1.133
49577SOL     OW50504  10.429  13.249   2.695
49577SOL    HW150505  10.399  13.296   2.773
49577SOL    HW250506  10.355  13.252   2.635
49578SOL     OW50507   2.174   1.715   3.838
49578SOL    HW150508   2.266   1.696   3.852
49578SOL    HW250509   2.167   1.739   3.746
49579SOL     OW50510   2.569  10.506   1.575
49579SOL    HW150511   2.521  10.581   1.538
49579SOL    HW250512   2.561  10.439   1.507
49580SOL     OW50513  11.207   8.472   4.766
49580SOL    HW150514  11.159   8.401   4.724
49580SOL    HW250515  11.294   8.435   4.784
49581SOL     OW50516   9.528   8.978   1.109
49581SOL    HW150517   9.502   8.912   1.173
49581SOL    HW250518   9.591   9.033   1.156
49582SOL     OW50519   0.289  12.329  12.349
49582SOL    HW150520   0.274  12.268  12.276
49582SOL    HW250521   0.260  12.281  12.426
49583SOL     OW50522   9.430   6.012   5.766
49583SOL    HW150523   9.382   6.094   5.758
49583SOL    HW250524   9.425   5.973   5.678
49584SOL     OW50525   1.925   9.809   7.075
49584SOL    HW150526   1.887   9.814   6.987
49584SOL    HW250527   2.018   9.828   7.062
49585SOL     OW50528   9.254   9.844  11.155
49585SOL    HW150529   9.324   9.895  11.114
49585SOL    HW250530   9.278   9.753  11.137
49586SOL     OW50531  12.382   6.553   5.819
49586SOL    HW150532  12.428   6.633   5.791
49586SOL    HW250533  12.451   6.496   5.853
49587SOL     OW50534   4.755  11.556   8.102
49587SOL    HW150535   4.842  11.529   8.130
49587SOL    HW250536   4.711  11.475   8.078
49588SOL     OW50537   6.596  12.395  14.526
49588SOL    HW150538   6.537  12.426  14.457
49588SOL    HW250539   6.677  12.444  14.512
49589SOL     OW50540   6.550   7.012  12.668
49589SOL    HW150541   6.558   6.918  12.655
49589SOL    HW250542   6.483   7.040  12.605
49590SOL     OW50543  13.109  11.766   5.677
49590SOL    HW150544  13.169  11.835   5.650
49590SOL    HW250545  13.032  11.776   5.621
49591SOL     OW50546   2.774  10.181   5.388
49591SOL    HW150547   2.773  10.235   5.309
49591SOL    HW250548   2.851  10.125   5.377
49592SOL     OW50549  12.862   3.993  13.866
49592SOL    HW150550  12.951   3.998  13.902
49592SOL    HW250551  12.868   3.928  13.796
49593SOL     OW50552  11.552   2.089   0.637
49593SOL    HW150553  11.503   2.163   0.601
49593SOL    HW250554  11.556   2.026   0.565
49594SOL     OW50555   8.099  12.942   3.798
49594SOL    HW150556   8.082  13.033   3.822
49594SOL    HW250557   8.188  12.924   3.829
49595SOL     OW50558  14.375   3.449   9.066
49595SOL    HW150559  14.308   3.411   9.009
49595SOL    HW250560  14.341   3.434   9.155
49596SOL     OW50561  10.658   7.920  11.988
49596SOL    HW150562  10.577   7.954  12.025
49596SOL    HW250563  10.690   7.990  11.931
49597SOL     OW50564  11.460   5.052   4.548
49597SOL    HW150565  11.467   5.002   4.629
49597SOL    HW250566  11.392   5.117   4.565
49598SOL     OW50567   4.717   9.058  13.117
49598SOL    HW150568   4.685   9.120  13.183
49598SOL    HW250569   4.711   9.106  13.034
49599SOL     OW50570   2.539   5.607   8.750
49599SOL    HW150571   2.467   5.575   8.804
49599SOL    HW250572   2.580   5.675   8.803
49600SOL     OW50573   4.302   1.318   2.845
49600SOL    HW150574   4.371   1.256   2.869
49600SOL    HW250575   4.280   1.362   2.927
49601SOL     OW50576   5.255   0.934   6.954
49601SOL    HW150577   5.322   0.868   6.938
49601SOL    HW250578   5.250   0.984   6.873
49602SOL     OW50579   8.282   7.698  12.371
49602SOL    HW150580   8.334   7.631  12.326
49602SOL    HW250581   8.346   7.753  12.415
49603SOL     OW50582   1.881   8.993  12.102
49603SOL    HW150583   1.856   9.071  12.151
49603SOL    HW250584   1.899   9.025  12.013
49604SOL     OW50585   4.318  12.187   0.953
49604SOL    HW150586   4.280  12.269   0.922
49604SOL    HW250587   4.388  12.168   0.891
49605SOL     OW50588   9.530   5.204   5.824
49605SOL    HW150589   9.540   5.294   5.856
49605SOL    HW250590   9.486   5.213   5.740
49606SOL     OW50591  13.629   8.035   5.612
49606SOL    HW150592  13.703   8.029   5.551
49606SOL    HW250593  13.652   8.105   5.672
49607SOL     OW50594  10.360   7.547   8.538
49607SOL    HW150595  10.303   7.549   8.614
49607SOL    HW250596  10.355   7.457   8.506
49608SOL     OW50597   5.413   0.098   9.455
49608SOL    HW150598   5.486   0.049   9.494
49608SOL    HW250599   5.351   0.110   9.527
49609SOL     OW50600   9.767  12.023   4.152
49609SOL    HW150601   9.840  12.073   4.190
49609SOL    HW250602   9.764  11.942   4.204
49610SOL     OW50603   5.729  14.030  13.170
49610SOL    HW150604   5.752  14.111  13.214
49610SOL    HW250605   5.639  14.043  13.139
49611SOL     OW50606   9.315   7.939  12.240
49611SOL    HW150607   9.357   7.947  12.326
49611SOL    HW250608   9.382   7.968  12.178
49612SOL     OW50609   8.708   7.891   4.281
49612SOL    HW150610   8.685   7.798   4.283
49612SOL    HW250611   8.752   7.903   4.197
49613SOL     OW50612   6.722   1.588   2.668
49613SOL    HW150613   6.756   1.645   2.738
49613SOL    HW250614   6.757   1.502   2.689
49614SOL     OW50615  14.276   5.538  11.826
49614SOL    HW150616  14.228   5.617  11.849
49614SOL    HW250617  14.211   5.483  11.782
49615SOL     OW50618   8.267  13.711   5.139
49615SOL    HW150619   8.257  13.676   5.051
49615SOL    HW250620   8.179  13.710   5.176
49616SOL     OW50621   6.560   9.733   3.609
49616SOL    HW150622   6.511   9.807   3.574
49616SOL    HW250623   6.504   9.657   3.592
49617SOL     OW50624   2.273   9.281   6.695
49617SOL    HW150625   2.333   9.234   6.754
49617SOL    HW250626   2.197   9.301   6.750
49618SOL     OW50627   5.332   9.065   3.984
49618SOL    HW150628   5.272   9.107   3.923
49618SOL    HW250629   5.287   9.068   4.068
49619SOL     OW50630  11.432   1.151   8.425
49619SOL    HW150631  11.487   1.213   8.378
49619SOL    HW250632  11.471   1.066   8.407
49620SOL     OW50633   8.987  10.797   3.849
49620SOL    HW150634   8.894  10.818   3.859
49620SOL    HW250635   9.017  10.849   3.775
49621SOL     OW50636   6.973   0.662   8.720
49621SOL    HW150637   6.978   0.721   8.645
49621SOL    HW250638   7.018   0.710   8.790
49622SOL     OW50639   4.878   4.823   1.633
49622SOL    HW150640   4.871   4.918   1.626
49622SOL    HW250641   4.949   4.800   1.572
49623SOL     OW50642   7.868  12.107   9.889
49623SOL    HW150643   7.815  12.179   9.855
49623SOL    HW250644   7.955  12.145   9.903
49624SOL     OW50645   3.647   1.860  11.823
49624SOL    HW150646   3.580   1.927  11.807
49624SOL    HW250647   3.611   1.806  11.893
49625SOL     OW50648   3.975   0.534  13.680
49625SOL    HW150649   3.987   0.604  13.743
49625SOL    HW250650   3.897   0.488  13.708
49626SOL     OW50651   0.709   3.823   7.895
49626SOL    HW150652   0.770   3.849   7.964
49626SOL    HW250653   0.650   3.897   7.886
49627SOL     OW50654   1.149  10.740   0.862
49627SOL    HW150655   1.075  10.760   0.804
49627SOL    HW250656   1.108  10.724   0.947
49628SOL     OW50657   1.090   5.200  10.890
49628SOL    HW150658   1.175   5.216  10.849
49628SOL    HW250659   1.056   5.123  10.844
49629SOL     OW50660  11.068   8.590   7.347
49629SOL    HW150661  11.043   8.565   7.259
49629SOL    HW250662  11.161   8.569   7.353
49630SOL     OW50663   0.294   3.534   3.590
49630SOL    HW150664   0.294   3.482   3.670
49630SOL    HW250665   0.213   3.585   3.593
49631SOL     OW50666   4.043   8.062   7.692
49631SOL    HW150667   4.033   8.136   7.631
49631SOL    HW250668   3.956   8.051   7.730
49632SOL     OW50669  12.369   7.713  11.020
49632SOL    HW150670  12.444   7.658  10.999
49632SOL    HW250671  12.296   7.653  11.030
49633SOL     OW50672   0.596  14.353   8.005
49633SOL    HW150673   0.688  14.333   8.027
49633SOL    HW250674   0.596  14.366   7.910
49634SOL     OW50675   8.869   0.062  10.835
49634SOL    HW150676   8.819   0.119  10.776
49634SOL    HW250677   8.803   0.011  10.882
49635SOL     OW50678  10.877   4.425   7.939
49635SOL    HW150679  10.842   4.514   7.938
49635SOL    HW250680  10.937   4.423   8.014
49636SOL     OW50681   1.964   7.267  13.551
49636SOL    HW150682   1.983   7.274  13.458
49636SOL    HW250683   1.874   7.301  13.560
49637SOL     OW50684   2.578  13.677   1.570
49637SOL    HW150685   2.656  13.672   1.515
49637SOL    HW250686   2.533  13.755   1.540
49638SOL     OW50687   8.623  10.813  12.515
49638SOL    HW150688   8.572  10.808  12.595
49638SOL    HW250689   8.707  10.772  12.538
49639SOL     OW50690   2.731  11.277  10.011
49639SOL    HW150691   2.716  11.183  10.005
49639SOL    HW250692   2.704  11.311   9.925
49640SOL     OW50693   8.184   0.407   4.778
49640SOL    HW150694   8.106   0.396   4.722
49640SOL    HW250695   8.215   0.318   4.792
49641SOL     OW50696   3.442  13.364   6.376
49641SOL    HW150697   3.496  13.338   6.301
49641SOL    HW250698   3.498  13.421   6.428
49642SOL     OW50699  10.258  11.663   0.862
49642SOL    HW150700  10.288  11.572   0.854
49642SOL    HW250701  10.267  11.700   0.775
49643SOL     OW50702   4.935   2.512   4.309
49643SOL    HW150703   4.957   2.552   4.225
49643SOL    HW250704   4.842   2.530   4.321
49644SOL     OW50705   6.260   5.947  12.574
49644SOL    HW150706   6.232   5.989  12.493
49644SOL    HW250707   6.254   5.853  12.555
49645SOL     OW50708  14.444   8.849  14.492
49645SOL    HW150709  14.499   8.863  14.569
49645SOL    HW250710  14.412   8.759  14.501
49646SOL     OW50711   3.670  14.622  10.328
49646SOL    HW150712   3.664  14.590  10.418
49646SOL    HW250713   3.764  14.619  10.308
49647SOL     OW50714   4.437   5.947  13.712
49647SOL    HW150715   4.497   5.886  13.754
49647SOL    HW250716   4.471   6.033  13.734
49648SOL     OW50717  12.130   6.004  10.630
49648SOL    HW150718  12.089   6.015  10.544
49648SOL    HW250719  12.178   6.086  10.644
49649SOL     OW50720  14.576  10.309   1.811
49649SOL    HW150721  14.588  10.402   1.830
49649SOL    HW250722  14.503  10.282   1.867
49650SOL     OW50723   1.200   2.767   1.607
49650SOL    HW150724   1.274   2.800   1.555
49650SOL    HW250725   1.215   2.672   1.610
49651SOL     OW50726   5.645   8.559   5.170
49651SOL    HW150727   5.632   8.652   5.188
49651SOL    HW250728   5.727   8.537   5.212
49652SOL     OW50729   3.901  10.259   2.263
49652SOL    HW150730   3.842  10.224   2.197
49652SOL    HW250731   3.861  10.342   2.290
49653SOL     OW50732  10.191  13.746   3.622
49653SOL    HW150733  10.157  13.784   3.541
49653SOL    HW250734  10.171  13.653   3.616
49654SOL     OW50735  13.013   7.224   6.536
49654SOL    HW150736  13.079   7.261   6.478
49654SOL    HW250737  13.049   7.140   6.564
49655SOL     OW50738   4.269   0.405  10.404
49655SOL    HW150739   4.300   0.317  10.423
49655SOL    HW250740   4.346   0.461  10.417
49656SOL     OW50741  12.853  13.223   3.260
49656SOL    HW150742  12.858  13.252   3.351
49656SOL    HW250743  12.864  13.302   3.208
49657SOL     OW50744   2.037  12.950  11.868
49657SOL    HW150745   1.986  12.931  11.789
49657SOL    HW250746   2.121  12.906  11.852
49658SOL     OW50747  13.491   2.468   7.705
49658SOL    HW150748  13.500   2.403   7.635
49658SOL    HW250749  13.580   2.480   7.738
49659SOL     OW50750  10.865  11.375   2.304
49659SOL    HW150751  10.812  11.448   2.271
49659SOL    HW250752  10.802  11.304   2.319
49660SOL     OW50753   5.043   9.551   7.066
49660SOL    HW150754   5.074   9.464   7.041
49660SOL    HW250755   5.101   9.578   7.137
49661SOL     OW50756  10.436   3.106   2.493
49661SOL    HW150757  10.348   3.099   2.529
49661SOL    HW250758  10.491   3.126   2.569
49662SOL     OW50759  13.758  12.623  10.681
49662SOL    HW150760  13.730  12.588  10.766
49662SOL    HW250761  13.806  12.551  10.640
49663SOL     OW50762   5.404  12.778   8.492
49663SOL    HW150763   5.363  12.743   8.571
49663SOL    HW250764   5.396  12.708   8.428
49664SOL     OW50765   6.223  12.246   8.910
49664SOL    HW150766   6.157  12.179   8.928
49664SOL    HW250767   6.260  12.221   8.825
49665SOL     OW50768  14.213   4.271   8.498
49665SOL    HW150769  14.245   4.308   8.581
49665SOL    HW250770  14.233   4.177   8.505
49666SOL     OW50771   4.632   2.855   0.134
49666SOL    HW150772   4.640   2.916   0.060
49666SOL    HW250773   4.568   2.896   0.192
49667SOL     OW50774  12.191  12.685  13.753
49667SOL    HW150775  12.262  12.714  13.809
49667SOL    HW250776  12.115  12.735  13.782
49668SOL     OW50777   6.533   9.290   6.126
49668SOL    HW150778   6.521   9.223   6.192
49668SOL    HW250779   6.627   9.294   6.111
49669SOL     OW50780   3.534   0.602  10.477
49669SOL    HW150781   3.462   0.557  10.434
49669SOL    HW250782   3.596   0.623  10.407
49670SOL     OW50783   3.200   7.408   5.422
49670SOL    HW150784   3.218   7.499   5.400
49670SOL    HW250785   3.220   7.401   5.515
49671SOL     OW50786   1.897   9.001   8.845
49671SOL    HW150787   1.926   8.932   8.905
49671SOL    HW250788   1.931   8.974   8.759
49672SOL     OW50789   3.336  10.375   4.477
49672SOL    HW150790   3.351  10.424   4.558
49672SOL    HW250791   3.256  10.414   4.440
49673SOL     OW50792   7.175   7.176   5.552
49673SOL    HW150793   7.246   7.131   5.598
49673SOL    HW250794   7.219   7.233   5.490
49674SOL     OW50795   6.645  10.078   6.266
49674SOL    HW150796   6.575  10.096   6.204
49674SOL    HW250797   6.699  10.012   6.224
49675SOL     OW50798   0.499  13.272  10.900
49675SOL    HW150799   0.464  13.184  10.913
49675SOL    HW250800   0.591  13.258  10.876
49676SOL     OW50801  11.364   2.023   8.788
49676SOL    HW150802  11.402   2.007   8.874
49676SOL    HW250803  11.397   1.952   8.733
49677SOL     OW50804   0.006  12.218  13.893
49677SOL    HW150805  14.836  12.143  13.924
49677SOL    HW250806  14.862  12.229  13.802
49678SOL     OW50807   2.102  11.355  11.849
49678SOL    HW150808   2.012  11.328  11.827
49678SOL    HW250809   2.154  11.328  11.774
49679SOL     OW50810   6.416   2.409   6.234
49679SOL    HW150811   6.419   2.333   6.293
49679SOL    HW250812   6.367   2.475   6.283
49680SOL     OW50813  10.363  11.049  10.203
49680SOL    HW150814  10.267  11.055  10.197
49680SOL    HW250815  10.378  10.969  10.253
49681SOL     OW50816   7.175   5.514  13.736
49681SOL    HW150817   7.153   5.601  13.770
49681SOL    HW250818   7.130   5.454  13.796
49682SOL     OW50819  11.078  14.555  12.762
49682SOL    HW150820  11.024  14.551  12.683
49682SOL    HW250821  11.112  14.645  12.762
49683SOL     OW50822   9.290   4.151   8.676
49683SOL    HW150823   9.321   4.215   8.741
49683SOL    HW250824   9.363   4.090   8.667
49684SOL     OW50825   1.378   1.995  11.722
49684SOL    HW150826   1.411   2.080  11.750
49684SOL    HW250827   1.293   2.014  11.682
49685SOL     OW50828  12.337   0.650   9.244
49685SOL    HW150829  12.402   0.619   9.307
49685SOL    HW250830  12.372   0.733   9.212
49686SOL     OW50831  13.471   2.196   0.195
49686SOL    HW150832  13.393   2.151   0.228
49686SOL    HW250833  13.527   2.208   0.271
49687SOL     OW50834  10.708   1.701   6.632
49687SOL    HW150835  10.788   1.702   6.684
49687SOL    HW250836  10.735   1.670   6.546
49688SOL     OW50837   5.164  14.233  11.599
49688SOL    HW150838   5.098  14.164  11.599
49688SOL    HW250839   5.114  14.313  11.583
49689SOL     OW50840  12.873  12.194   2.309
49689SOL    HW150841  12.799  12.165   2.362
49689SOL    HW250842  12.881  12.287   2.328
49690SOL     OW50843   7.699   1.481   4.642
49690SOL    HW150844   7.786   1.509   4.614
49690SOL    HW250845   7.684   1.528   4.724
49691SOL     OW50846  13.379  13.478  11.301
49691SOL    HW150847  13.435  13.490  11.378
49691SOL    HW250848  13.299  13.437  11.336
49692SOL     OW50849  13.117   2.237   4.662
49692SOL    HW150850  13.072   2.223   4.578
49692SOL    HW250851  13.053   2.214   4.728
49693SOL     OW50852   5.947   4.983  13.294
49693SOL    HW150853   5.916   4.951  13.379
49693SOL    HW250854   6.027   5.033  13.315
49694SOL     OW50855   7.883   3.408  14.056
49694SOL    HW150856   7.949   3.404  13.987
49694SOL    HW250857   7.801   3.429  14.011
49695SOL     OW50858   6.356   3.269  12.619
49695SOL    HW150859   6.278   3.249  12.567
49695SOL    HW250860   6.348   3.363  12.638
49696SOL     OW50861   1.979   4.228   6.963
49696SOL    HW150862   1.922   4.303   6.945
49696SOL    HW250863   2.002   4.238   7.055
49697SOL     OW50864   6.172  13.735   9.580
49697SOL    HW150865   6.171  13.827   9.554
49697SOL    HW250866   6.234  13.694   9.520
49698SOL     OW50867   6.739   3.151   1.216
49698SOL    HW150868   6.689   3.205   1.155
49698SOL    HW250869   6.754   3.069   1.169
49699SOL     OW50870   2.082  12.608  12.331
49699SOL    HW150871   2.008  12.548  12.320
49699SOL    HW250872   2.105  12.634  12.242
49700SOL     OW50873   3.416   2.855  13.733
49700SOL    HW150874   3.363   2.922  13.689
49700SOL    HW250875   3.487   2.905  13.774
49701SOL     OW50876   0.789   6.639   9.960
49701SOL    HW150877   0.874   6.667   9.926
49701SOL    HW250878   0.798   6.643  10.055
49702SOL     OW50879  10.456  14.578  12.194
49702SOL    HW150880  10.500  14.573  12.109
49702SOL    HW250881  10.522  14.618  12.252
49703SOL     OW50882   1.765   7.237   1.512
49703SOL    HW150883   1.732   7.158   1.555
49703SOL    HW250884   1.779   7.211   1.421
49704SOL     OW50885   0.903   1.587   2.004
49704SOL    HW150886   0.853   1.566   1.925
49704SOL    HW250887   0.995   1.586   1.975
49705SOL     OW50888   5.390   7.063  14.641
49705SOL    HW150889   5.296   7.059  14.656
49705SOL    HW250890   5.403   7.147  14.595
49706SOL     OW50891   2.572   9.271   7.576
49706SOL    HW150892   2.498   9.234   7.528
49706SOL    HW250893   2.627   9.196   7.598
49707SOL     OW50894  12.183   0.678   8.717
49707SOL    HW150895  12.157   0.661   8.808
49707SOL    HW250896  12.180   0.774   8.709
49708SOL     OW50897   3.275   8.381  12.297
49708SOL    HW150898   3.250   8.341  12.380
49708SOL    HW250899   3.365   8.351  12.283
49709SOL     OW50900  12.283   0.838   7.893
49709SOL    HW150901  12.324   0.924   7.889
49709SOL    HW250902  12.345   0.784   7.941
49710SOL     OW50903   7.388   5.889  13.874
49710SOL    HW150904   7.441   5.813  13.849
49710SOL    HW250905   7.393   5.947  13.797
49711SOL     OW50906  11.479   1.546  11.827
49711SOL    HW150907  11.488   1.628  11.876
49711SOL    HW250908  11.564   1.504  11.836
49712SOL     OW50909   7.400  12.574   1.838
49712SOL    HW150910   7.320  12.527   1.817
49712SOL    HW250911   7.374  12.641   1.901
49713SOL     OW50912   0.263  12.446   6.281
49713SOL    HW150913   0.198  12.437   6.350
49713SOL    HW250914   0.249  12.370   6.225
49714SOL     OW50915  10.756  13.731   0.313
49714SOL    HW150916  10.770  13.815   0.270
49714SOL    HW250917  10.830  13.676   0.284
49715SOL     OW50918  13.423   8.687  12.590
49715SOL    HW150919  13.474   8.658  12.666
49715SOL    HW250920  13.433   8.616  12.526
49716SOL     OW50921  11.599   6.150  12.107
49716SOL    HW150922  11.555   6.067  12.129
49716SOL    HW250923  11.652   6.129  12.030
49717SOL     OW50924  13.833   4.485   7.288
49717SOL    HW150925  13.810   4.392   7.290
49717SOL    HW250926  13.891   4.498   7.363
49718SOL     OW50927   8.932   5.261  13.853
49718SOL    HW150928   8.966   5.314  13.780
49718SOL    HW250929   8.838   5.256  13.837
49719SOL     OW50930   3.406  12.137  10.673
49719SOL    HW150931   3.501  12.136  10.685
49719SOL    HW250932   3.385  12.049  10.642
49720SOL     OW50933  14.370   3.396  14.200
49720SOL    HW150934  14.278   3.384  14.225
49720SOL    HW250935  14.384   3.491  14.208
49721SOL     OW50936   0.374  12.028   3.303
49721SOL    HW150937   0.381  12.090   3.231
49721SOL    HW250938   0.304  11.969   3.277
49722SOL     OW50939  10.672  12.376   9.350
49722SOL    HW150940  10.738  12.343   9.289
49722SOL    HW250941  10.682  12.321   9.428
49723SOL     OW50942   9.475   4.413   6.830
49723SOL    HW150943   9.504   4.480   6.769
49723SOL    HW250944   9.447   4.462   6.907
49724SOL     OW50945   5.944   2.592   1.058
49724SOL    HW150946   5.953   2.544   1.141
49724SOL    HW250947   5.852   2.582   1.034
49725SOL     OW50948   3.294  10.523   7.308
49725SOL    HW150949   3.335  10.513   7.393
49725SOL    HW250950   3.221  10.461   7.308
49726SOL     OW50951   0.035   6.641  11.999
49726SOL    HW150952  14.856   6.591  11.944
49726SOL    HW250953  14.862   6.708  12.041
49727SOL     OW50954   5.800   7.325   3.941
49727SOL    HW150955   5.799   7.231   3.960
49727SOL    HW250956   5.839   7.331   3.854
49728SOL     OW50957   8.016  11.150  14.499
49728SOL    HW150958   8.043  11.123  14.587
49728SOL    HW250959   7.949  11.217  14.514
49729SOL     OW50960   5.549   8.752   7.113
49729SOL    HW150961   5.614   8.683   7.129
49729SOL    HW250962   5.556   8.772   7.020
49730SOL     OW50963   5.615   3.962   5.328
49730SOL    HW150964   5.580   4.027   5.389
49730SOL    HW250965   5.709   3.975   5.330
49731SOL     OW50966  10.862   2.951   8.169
49731SOL    HW150967  10.788   3.011   8.157
49731SOL    HW250968  10.911   2.957   8.087
49732SOL     OW50969   2.478   5.946  14.830
49732SOL    HW150970   2.409   6.010  14.812
49732SOL    HW250971   2.559   5.995  14.820
49733SOL     OW50972  10.191   6.757   2.606
49733SOL    HW150973  10.216   6.815   2.534
49733SOL    HW250974  10.097   6.743   2.593
49734SOL     OW50975   8.035  13.675   8.948
49734SOL    HW150976   8.027  13.759   8.903
49734SOL    HW250977   8.122  13.677   8.987
49735SOL     OW50978  13.465   6.757  12.174
49735SOL    HW150979  13.465   6.788  12.083
49735SOL    HW250980  13.465   6.838  12.226
49736SOL     OW50981   6.863   4.914  10.680
49736SOL    HW150982   6.815   4.933  10.761
49736SOL    HW250983   6.796   4.882  10.620
49737SOL     OW50984   3.649   7.679  10.942
49737SOL    HW150985   3.624   7.769  10.962
49737SOL    HW250986   3.739   7.672  10.972
49738SOL     OW50987   5.517  13.376   1.500
49738SOL    HW150988   5.526  13.453   1.443
49738SOL    HW250989   5.432  13.389   1.544
49739SOL     OW50990  13.128   8.494   8.803
49739SOL    HW150991  13.200   8.474   8.744
49739SOL    HW250992  13.133   8.428   8.872
49740SOL     OW50993   6.709   2.446  14.354
49740SOL    HW150994   6.746   2.502  14.286
49740SOL    HW250995   6.718   2.496  14.435
49741SOL     OW50996   2.119   6.900  11.725
49741SOL    HW150997   2.142   6.964  11.659
49741SOL    HW250998   2.030   6.923  11.751
49742SOL     OW50999   8.707   4.061   1.431
49742SOL    HW151000   8.628   4.054   1.377
49742SOL    HW251001   8.695   4.142   1.481
49743SOL     OW51002   3.030  12.334   1.383
49743SOL    HW151003   2.964  12.317   1.315
49743SOL    HW251004   3.014  12.267   1.449
49744SOL     OW51005   0.385   1.968   3.008
49744SOL    HW151006   0.349   1.949   3.095
49744SOL    HW251007   0.352   1.898   2.952
49745SOL     OW51008   1.772  14.298   8.239
49745SOL    HW151009   1.713  14.323   8.169
49745SOL    HW251010   1.739  14.214   8.270
49746SOL     OW51011   5.363   5.805   1.629
49746SOL    HW151012   5.276   5.780   1.598
49746SOL    HW251013   5.388   5.879   1.573
49747SOL     OW51014  11.317   5.993  10.413
49747SOL    HW151015  11.376   6.057  10.453
49747SOL    HW251016  11.358   5.908  10.430
49748SOL     OW51017   0.224  10.270   8.203
49748SOL    HW151018   0.298  10.213   8.222
49748SOL    HW251019   0.157  10.243   8.266
49749SOL     OW51020   8.590   0.158   5.900
49749SOL    HW151021   8.555   0.098   5.966
49749SOL    HW251022   8.558   0.124   5.817
49750SOL     OW51023   8.708   7.037   2.540
49750SOL    HW151024   8.710   7.066   2.631
49750SOL    HW251025   8.714   7.118   2.489
49751SOL     OW51026   3.071  13.576  13.634
49751SOL    HW151027   3.018  13.538  13.564
49751SOL    HW251028   3.026  13.658  13.656
49752SOL     OW51029   6.032  11.764  13.350
49752SOL    HW151030   5.996  11.728  13.269
49752SOL    HW251031   6.044  11.687  13.407
49753SOL     OW51032   6.370   3.419  13.393
49753SOL    HW151033   6.321   3.369  13.458
49753SOL    HW251034   6.320   3.407  13.312
49754SOL     OW51035  12.451   8.627   8.598
49754SOL    HW151036  12.522   8.577   8.558
49754SOL    HW251037  12.386   8.638   8.529
49755SOL     OW51038  12.815  11.082   7.165
49755SOL    HW151039  12.835  11.081   7.259
49755SOL    HW251040  12.896  11.112   7.124
49756SOL     OW51041   8.841  11.857   1.148
49756SOL    HW151042   8.884  11.830   1.066
49756SOL    HW251043   8.750  11.871   1.124
49757SOL     OW51044   6.349   3.121   4.475
49757SOL    HW151045   6.377   3.120   4.383
49757SOL    HW251046   6.367   3.211   4.504
49758SOL     OW51047   2.868  12.734   0.935
49758SOL    HW151048   2.859  12.797   1.007
49758SOL    HW251049   2.849  12.649   0.974
49759SOL     OW51050   8.103  12.020  13.090
49759SOL    HW151051   8.026  11.964  13.082
49759SOL    HW251052   8.092  12.066  13.173
49760SOL     OW51053   2.249   1.268   8.836
49760SOL    HW151054   2.249   1.181   8.797
49760SOL    HW251055   2.206   1.257   8.921
49761SOL     OW51056   7.346   7.945   6.891
49761SOL    HW151057   7.305   7.938   6.805
49761SOL    HW251058   7.440   7.949   6.873
49762SOL     OW51059  14.710  13.655   7.163
49762SOL    HW151060  14.763  13.587   7.205
49762SOL    HW251061  14.730  13.734   7.213
49763SOL     OW51062   3.566   4.793   6.719
49763SOL    HW151063   3.521   4.843   6.787
49763SOL    HW251064   3.501   4.783   6.649
49764SOL     OW51065   4.058  13.171   4.296
49764SOL    HW151066   3.989  13.227   4.262
49764SOL    HW251067   4.134  13.189   4.240
49765SOL     OW51068   6.596   2.928   2.747
49765SOL    HW151069   6.665   2.876   2.705
49765SOL    HW251070   6.629   2.944   2.836
49766SOL     OW51071  14.226   3.583   4.680
49766SOL    HW151072  14.210   3.662   4.732
49766SOL    HW251073  14.314   3.555   4.706
49767SOL     OW51074   6.008  13.577  11.475
49767SOL    HW151075   6.056  13.646  11.520
49767SOL    HW251076   5.978  13.519  11.546
49768SOL     OW51077   1.763   0.750   7.307
49768SOL    HW151078   1.836   0.765   7.367
49768SOL    HW251079   1.805   0.740   7.221
49769SOL     OW51080   7.599   3.499   5.022
49769SOL    HW151081   7.520   3.452   4.998
49769SOL    HW251082   7.573   3.591   5.020
49770SOL     OW51083   7.777   8.988   6.593
49770SOL    HW151084   7.834   9.009   6.519
49770SOL    HW251085   7.799   9.053   6.660
49771SOL     OW51086   3.129  13.982   7.955
49771SOL    HW151087   3.061  14.025   8.005
49771SOL    HW251088   3.101  13.890   7.949
49772SOL     OW51089   6.429   5.240   0.477
49772SOL    HW151090   6.465   5.212   0.561
49772SOL    HW251091   6.337   5.215   0.481
49773SOL     OW51092   9.463  12.246   9.725
49773SOL    HW151093   9.494  12.335   9.740
49773SOL    HW251094   9.505  12.220   9.643
49774SOL     OW51095   2.210   0.086  13.709
49774SOL    HW151096   2.169   0.171  13.694
49774SOL    HW251097   2.161   0.048  13.782
49775SOL     OW51098   9.564  13.017   8.458
49775SOL    HW151099   9.598  12.928   8.466
49775SOL    HW251100   9.633  13.065   8.413
49776SOL     OW51101   8.697   2.804   6.185
49776SOL    HW151102   8.748   2.885   6.193
49776SOL    HW251103   8.630   2.824   6.120
49777SOL     OW51104   4.786   1.299   3.845
49777SOL    HW151105   4.786   1.373   3.906
49777SOL    HW251106   4.877   1.269   3.844
49778SOL     OW51107   7.228   5.643   4.525
49778SOL    HW151108   7.272   5.721   4.559
49778SOL    HW251109   7.148   5.636   4.576
49779SOL     OW51110   5.080   7.702   6.701
49779SOL    HW151111   5.149   7.767   6.711
49779SOL    HW251112   5.120   7.634   6.645
49780SOL     OW51113   3.125   6.309   3.341
49780SOL    HW151114   3.171   6.332   3.422
49780SOL    HW251115   3.151   6.219   3.323
49781SOL     OW51116  14.403  13.649   2.583
49781SOL    HW151117  14.351  13.659   2.504
49781SOL    HW251118  14.362  13.707   2.647
49782SOL     OW51119   5.006  12.866   3.382
49782SOL    HW151120   5.095  12.836   3.396
49782SOL    HW251121   5.014  12.961   3.374
49783SOL     OW51122   6.406   5.285   3.633
49783SOL    HW151123   6.472   5.353   3.647
49783SOL    HW251124   6.433   5.243   3.551
49784SOL     OW51125  11.295   2.243   7.308
49784SOL    HW151126  11.260   2.155   7.299
49784SOL    HW251127  11.355   2.252   7.234
49785SOL     OW51128  13.724   2.192   7.914
49785SOL    HW151129  13.713   2.107   7.872
49785SOL    HW251130  13.819   2.207   7.912
49786SOL     OW51131   6.783  10.455  10.552
49786SOL    HW151132   6.782  10.454  10.456
49786SOL    HW251133   6.876  10.456  10.575
49787SOL     OW51134  14.341  14.623  12.351
49787SOL    HW151135  14.338  14.635  12.256
49787SOL    HW251136  14.294  14.699  12.387
49788SOL     OW51137  14.590   5.919  13.757
49788SOL    HW151138  14.644   5.899  13.681
49788SOL    HW251139  14.574   6.013  13.751
49789SOL     OW51140  14.793  12.247  13.412
49789SOL    HW151141  14.776  12.225  13.320
49789SOL    HW251142  14.852  12.178  13.443
49790SOL     OW51143   3.966   2.079  10.267
49790SOL    HW151144   3.913   2.114  10.339
49790SOL    HW251145   4.044   2.135  10.266
49791SOL     OW51146   3.299   9.059  13.223
49791SOL    HW151147   3.355   9.115  13.170
49791SOL    HW251148   3.350   8.979  13.237
49792SOL     OW51149   9.226  12.538  13.333
49792SOL    HW151150   9.165  12.476  13.292
49792SOL    HW251151   9.269  12.487  13.402
49793SOL     OW51152   4.297  12.972  10.718
49793SOL    HW151153   4.377  12.924  10.738
49793SOL    HW251154   4.321  13.029  10.645
49794SOL     OW51155   9.296   7.457  11.283
49794SOL    HW151156   9.305   7.414  11.368
49794SOL    HW251157   9.372   7.427  11.233
49795SOL     OW51158   5.195   3.493   0.327
49795SOL    HW151159   5.237   3.518   0.409
49795SOL    HW251160   5.268   3.469   0.269
49796SOL     OW51161  11.485  14.368  14.062
49796SOL    HW151162  11.436  14.429  14.007
49796SOL    HW251163  11.558  14.421  14.096
49797SOL     OW51164  13.177   4.273   3.730
49797SOL    HW151165  13.264   4.243   3.701
49797SOL    HW251166  13.187   4.368   3.740
49798SOL     OW51167  10.758   0.234   3.465
49798SOL    HW151168  10.715   0.244   3.380
49798SOL    HW251169  10.749   0.141   3.486
49799SOL     OW51170  12.174   1.668   5.252
49799SOL    HW151171  12.196   1.760   5.258
49799SOL    HW251172  12.239   1.631   5.193
49800SOL     OW51173   3.683   7.472   1.820
49800SOL    HW151174   3.753   7.408   1.828
49800SOL    HW251175   3.676   7.511   1.907
49801SOL     OW51176  10.336  11.042   2.912
49801SOL    HW151177  10.394  10.975   2.876
49801SOL    HW251178  10.298  11.084   2.835
49802SOL     OW51179  13.814   8.107   4.600
49802SOL    HW151180  13.798   8.201   4.611
49802SOL    HW251181  13.754   8.080   4.530
49803SOL     OW51182   9.132   9.241   4.010
49803SOL    HW151183   9.067   9.176   3.982
49803SOL    HW251184   9.110   9.320   3.959
49804SOL     OW51185   2.823   8.198  14.851
49804SOL    HW151186   2.909   8.215   0.008
49804SOL    HW251187   2.836   8.119  14.799
49805SOL     OW51188   0.015  11.593   2.515
49805SOL    HW151189  14.807  11.583   2.483
49805SOL    HW251190   0.063  11.629   2.441
49806SOL     OW51191   4.877  11.960   4.404
49806SOL    HW151192   4.887  12.041   4.353
49806SOL    HW251193   4.962  11.917   4.399
49807SOL     OW51194   4.583   3.851   8.308
49807SOL    HW151195   4.565   3.829   8.217
49807SOL    HW251196   4.533   3.788   8.359
49808SOL     OW51197   9.138   7.275   9.830
49808SOL    HW151198   9.165   7.213   9.762
49808SOL    HW251199   9.134   7.223   9.910
49809SOL     OW51200   3.589   4.889   8.405
49809SOL    HW151201   3.569   4.796   8.411
49809SOL    HW251202   3.560   4.915   8.317
49810SOL     OW51203   5.643   2.272   1.182
49810SOL    HW151204   5.717   2.238   1.131
49810SOL    HW251205   5.587   2.195   1.196
49811SOL     OW51206   8.411  14.010   5.702
49811SOL    HW151207   8.336  13.986   5.648
49811SOL    HW251208   8.467  13.932   5.702
49812SOL     OW51209   8.783  11.243  10.670
49812SOL    HW151210   8.825  11.189  10.604
49812SOL    HW251211   8.725  11.300  10.619
49813SOL     OW51212  14.834   8.067  12.187
49813SOL    HW151213  14.806   8.073  12.095
49813SOL    HW251214  14.852   7.974  12.200
49814SOL     OW51215   0.360   8.115   6.459
49814SOL    HW151216   0.314   8.184   6.411
49814SOL    HW251217   0.320   8.033   6.428
49815SOL     OW51218   9.627  11.546   2.208
49815SOL    HW151219   9.657  11.634   2.186
49815SOL    HW251220   9.566  11.523   2.138
49816SOL     OW51221  13.463  10.412  10.093
49816SOL    HW151222  13.388  10.362  10.125
49816SOL    HW251223  13.454  10.409   9.998
49817SOL     OW51224  10.781   0.232   1.805
49817SOL    HW151225  10.693   0.270   1.805
49817SOL    HW251226  10.835   0.298   1.761
49818SOL     OW51227   7.129   7.685   0.729
49818SOL    HW151228   7.137   7.759   0.669
49818SOL    HW251229   7.042   7.649   0.711
49819SOL     OW51230  11.045   2.284   1.168
49819SOL    HW151231  11.076   2.272   1.258
49819SOL    HW251232  10.958   2.245   1.167
49820SOL     OW51233  12.223  12.290   6.096
49820SOL    HW151234  12.212  12.209   6.046
49820SOL    HW251235  12.229  12.261   6.187
49821SOL     OW51236  14.113   7.095   6.170
49821SOL    HW151237  14.164   7.034   6.116
49821SOL    HW251238  14.112   7.054   6.257
49822SOL     OW51239   2.041   1.538   1.721
49822SOL    HW151240   2.080   1.622   1.699
49822SOL    HW251241   1.974   1.525   1.654
49823SOL     OW51242   4.194   1.094  14.543
49823SOL    HW151243   4.197   1.025  14.477
49823SOL    HW251244   4.104   1.126  14.540
49824SOL     OW51245   7.811   4.754   4.982
49824SOL    HW151246   7.764   4.696   5.042
49824SOL    HW251247   7.771   4.737   4.896
49825SOL     OW51248   1.412   0.010  14.776
49825SOL    HW151249   1.327   0.016  14.731
49825SOL    HW251250   1.396  14.836  14.852
49826SOL     OW51251  12.088   1.158   0.885
49826SOL    HW151252  12.072   1.066   0.867
49826SOL    HW251253  12.102   1.198   0.799
49827SOL     OW51254   3.339   7.688  12.064
49827SOL    HW151255   3.419   7.677  12.013
49827SOL    HW251256   3.269   7.665  12.004
49828SOL     OW51257   0.267   0.353   5.086
49828SOL    HW151258   0.235   0.265   5.106
49828SOL    HW251259   0.191   0.398   5.047
49829SOL     OW51260   7.843   1.297   7.196
49829SOL    HW151261   7.835   1.225   7.258
49829SOL    HW251262   7.877   1.257   7.116
49830SOL     OW51263   3.760   7.199  12.512
49830SOL    HW151264   3.741   7.284  12.553
49830SOL    HW251265   3.674   7.162  12.495
49831SOL     OW51266   6.683  12.105   3.441
49831SOL    HW151267   6.649  12.016   3.455
49831SOL    HW251268   6.652  12.154   3.517
49832SOL     OW51269   3.898   4.166   5.184
49832SOL    HW151270   3.940   4.249   5.162
49832SOL    HW251271   3.844   4.145   5.108
49833SOL     OW51272   0.702   6.762   8.471
49833SOL    HW151273   0.636   6.726   8.411
49833SOL    HW251274   0.744   6.685   8.509
49834SOL     OW51275   1.390   0.652  12.682
49834SOL    HW151276   1.435   0.633  12.600
49834SOL    HW251277   1.314   0.594  12.682
49835SOL     OW51278   0.538   7.986  11.824
49835SOL    HW151279   0.456   8.011  11.780
49835SOL    HW251280   0.590   7.943  11.756
49836SOL     OW51281   1.865  13.846  10.629
49836SOL    HW151282   1.913  13.775  10.586
49836SOL    HW251283   1.925  13.879  10.695
49837SOL     OW51284   8.014  12.052   1.466
49837SOL    HW151285   8.044  12.115   1.401
49837SOL    HW251286   7.990  11.975   1.415
49838SOL     OW51287   5.171   3.460   1.394
49838SOL    HW151288   5.177   3.456   1.490
49838SOL    HW251289   5.083   3.429   1.375
49839SOL     OW51290   3.561   1.647   4.395
49839SOL    HW151291   3.468   1.625   4.393
49839SOL    HW251292   3.569   1.725   4.340
49840SOL     OW51293  11.712   3.768   6.748
49840SOL    HW151294  11.776   3.697   6.757
49840SOL    HW251295  11.765   3.845   6.728
49841SOL     OW51296   2.479   6.637   6.808
49841SOL    HW151297   2.502   6.655   6.717
49841SOL    HW251298   2.499   6.544   6.819
49842SOL     OW51299   2.766  10.752  14.484
49842SOL    HW151300   2.849  10.797  14.474
49842SOL    HW251301   2.750  10.752  14.578
49843SOL     OW51302   4.402   8.519   0.246
49843SOL    HW151303   4.382   8.435   0.204
49843SOL    HW251304   4.407   8.498   0.339
49844SOL     OW51305  13.154   0.801   5.948
49844SOL    HW151306  13.236   0.766   5.982
49844SOL    HW251307  13.180   0.862   5.880
49845SOL     OW51308   9.489   4.047   8.055
49845SOL    HW151309   9.499   4.139   8.030
49845SOL    HW251310   9.575   4.009   8.040
49846SOL     OW51311  10.142  10.553   4.257
49846SOL    HW151312  10.200  10.594   4.321
49846SOL    HW251313  10.075  10.510   4.310
49847SOL     OW51314   1.082  10.679  14.763
49847SOL    HW151315   1.169  10.673  14.726
49847SOL    HW251316   1.053  10.589  14.773
49848SOL     OW51317  10.650   5.799   7.464
49848SOL    HW151318  10.610   5.719   7.431
49848SOL    HW251319  10.679   5.776   7.552
49849SOL     OW51320  13.845   8.043  14.670
49849SOL    HW151321  13.837   7.962  14.619
49849SOL    HW251322  13.774   8.040  14.733
49850SOL     OW51323  14.370  12.444   5.714
49850SOL    HW151324  14.396  12.391   5.789
49850SOL    HW251325  14.283  12.477   5.737
49851SOL     OW51326   6.902   1.660   4.615
49851SOL    HW151327   6.890   1.751   4.640
49851SOL    HW251328   6.859   1.610   4.685
49852SOL     OW51329  11.779  14.114   9.964
49852SOL    HW151330  11.697  14.068   9.947
49852SOL    HW251331  11.770  14.196   9.916
49853SOL     OW51332  10.720   1.576   9.237
49853SOL    HW151333  10.782   1.614   9.174
49853SOL    HW251334  10.634   1.601   9.203
49854SOL     OW51335  10.804   7.817  14.183
49854SOL    HW151336  10.794   7.876  14.258
49854SOL    HW251337  10.730   7.838  14.126
49855SOL     OW51338   0.426  10.369  12.542
49855SOL    HW151339   0.472  10.426  12.481
49855SOL    HW251340   0.431  10.415  12.626
49856SOL     OW51341   1.630  10.026   1.595
49856SOL    HW151342   1.689  10.096   1.568
49856SOL    HW251343   1.686   9.962   1.638
49857SOL     OW51344   6.894   9.599   9.043
49857SOL    HW151345   6.858   9.685   9.020
49857SOL    HW251346   6.880   9.591   9.137
49858SOL     OW51347   5.198  10.783   4.917
49858SOL    HW151348   5.173  10.727   4.990
49858SOL    HW251349   5.151  10.747   4.842
49859SOL     OW51350   4.103   6.115   5.763
49859SOL    HW151351   4.142   6.028   5.772
49859SOL    HW251352   4.162   6.173   5.810
49860SOL     OW51353   5.226  14.366   3.866
49860SOL    HW151354   5.152  14.425   3.852
49860SOL    HW251355   5.187  14.288   3.908
49861SOL     OW51356   0.569   1.408   5.606
49861SOL    HW151357   0.630   1.396   5.533
49861SOL    HW251358   0.546   1.319   5.633
49862SOL     OW51359   3.551   8.341  13.448
49862SOL    HW151360   3.544   8.278  13.377
49862SOL    HW251361   3.600   8.414  13.411
49863SOL     OW51362   7.521   4.959   1.272
49863SOL    HW151363   7.442   4.909   1.294
49863SOL    HW251364   7.587   4.930   1.334
49864SOL     OW51365   1.274  10.350  10.833
49864SOL    HW151366   1.361  10.384  10.852
49864SOL    HW251367   1.240  10.321  10.918
49865SOL     OW51368  10.642   9.185  10.909
49865SOL    HW151369  10.561   9.146  10.877
49865SOL    HW251370  10.679   9.119  10.968
49866SOL     OW51371  11.537   5.506   7.155
49866SOL    HW151372  11.474   5.436   7.136
49866SOL    HW251373  11.533   5.516   7.250
49867SOL     OW51374  14.281   3.309   6.761
49867SOL    HW151375  14.346   3.373   6.789
49867SOL    HW251376  14.320   3.224   6.781
49868SOL     OW51377   6.487   1.894   1.761
49868SOL    HW151378   6.393   1.892   1.743
49868SOL    HW251379   6.508   1.986   1.773
49869SOL     OW51380   6.825  11.190   1.939
49869SOL    HW151381   6.767  11.137   1.884
49869SOL    HW251382   6.805  11.161   2.028
49870SOL     OW51383   9.321   6.015   8.912
49870SOL    HW151384   9.338   6.036   9.004
49870SOL    HW251385   9.313   6.101   8.869
49871SOL     OW51386  11.459   4.839   7.326
49871SOL    HW151387  11.533   4.825   7.385
49871SOL    HW251388  11.399   4.766   7.346
49872SOL     OW51389  11.680  13.581  13.836
49872SOL    HW151390  11.743  13.590  13.764
49872SOL    HW251391  11.648  13.669  13.851
49873SOL     OW51392   7.820   5.657   9.965
49873SOL    HW151393   7.794   5.575   9.924
49873SOL    HW251394   7.788   5.725   9.905
49874SOL     OW51395  11.229  14.807  12.063
49874SOL    HW151396  11.263  14.797  11.974
49874SOL    HW251397  11.274   0.002  12.097
49875SOL     OW51398   0.745   8.666  10.467
49875SOL    HW151399   0.686   8.713  10.527
49875SOL    HW251400   0.798   8.735  10.427
49876SOL     OW51401   2.001  11.232   1.099
49876SOL    HW151402   2.005  11.321   1.136
49876SOL    HW251403   2.056  11.180   1.158
49877SOL     OW51404  10.631   2.175   9.047
49877SOL    HW151405  10.576   2.109   9.005
49877SOL    HW251406  10.674   2.129   9.119
49878SOL     OW51407   7.668   3.905   6.516
49878SOL    HW151408   7.680   3.816   6.481
49878SOL    HW251409   7.756   3.939   6.526
49879SOL     OW51410  12.461  13.648   9.020
49879SOL    HW151411  12.389  13.659   8.957
49879SOL    HW251412  12.540  13.666   8.969
49880SOL     OW51413   2.159  10.385  14.708
49880SOL    HW151414   2.100  10.385  14.632
49880SOL    HW251415   2.147  10.471  14.747
49881SOL     OW51416   9.184   8.001  12.594
49881SOL    HW151417   9.139   8.086  12.587
49881SOL    HW251418   9.264   8.021  12.643
49882SOL     OW51419  10.652  12.122   5.436
49882SOL    HW151420  10.659  12.194   5.373
49882SOL    HW251421  10.648  12.166   5.521
49883SOL     OW51422   6.649   2.114   8.583
49883SOL    HW151423   6.587   2.142   8.650
49883SOL    HW251424   6.734   2.143   8.616
49884SOL     OW51425   4.179   4.446   8.957
49884SOL    HW151426   4.264   4.442   8.912
49884SOL    HW251427   4.156   4.539   8.955
49885SOL     OW51428   8.732   5.707   4.286
49885SOL    HW151429   8.790   5.700   4.210
49885SOL    HW251430   8.696   5.618   4.296
49886SOL     OW51431   2.672   6.040   9.841
49886SOL    HW151432   2.707   5.952   9.853
49886SOL    HW251433   2.748   6.094   9.822
49887SOL     OW51434   0.036  13.057   9.461
49887SOL    HW151435  14.853  12.993   9.430
49887SOL    HW251436  14.871  13.107   9.529
49888SOL     OW51437   4.559   8.358  11.015
49888SOL    HW151438   4.540   8.427  11.078
49888SOL    HW251439   4.652   8.337  11.029
49889SOL     OW51440  14.828   8.123   8.032
49889SOL    HW151441   0.019   8.156   7.979
49889SOL    HW251442  14.780   8.065   7.972
49890SOL     OW51443  12.858   2.510   9.596
49890SOL    HW151444  12.942   2.487   9.555
49890SOL    HW251445  12.798   2.524   9.523
49891SOL     OW51446  14.734   9.137   8.281
49891SOL    HW151447  14.700   9.068   8.338
49891SOL    HW251448  14.734   9.215   8.335
49892SOL     OW51449   0.292   6.533   7.860
49892SOL    HW151450   0.259   6.587   7.787
49892SOL    HW251451   0.305   6.595   7.931
49893SOL     OW51452   5.004  10.067   0.264
49893SOL    HW151453   5.031  10.118   0.187
49893SOL    HW251454   4.931  10.117   0.301
49894SOL     OW51455  14.050  14.174   2.211
49894SOL    HW151456  13.965  14.183   2.167
49894SOL    HW251457  14.029  14.169   2.304
49895SOL     OW51458  10.104  10.882  12.036
49895SOL    HW151459  10.042  10.901  11.965
49895SOL    HW251460  10.087  10.950  12.101
49896SOL     OW51461  13.671  13.702   7.881
49896SOL    HW151462  13.758  13.687   7.844
49896SOL    HW251463  13.663  13.637   7.951
49897SOL     OW51464  12.376   4.835  10.084
49897SOL    HW151465  12.450   4.861  10.028
49897SOL    HW251466  12.310   4.802  10.023
49898SOL     OW51467   3.760  11.487   2.674
49898SOL    HW151468   3.832  11.544   2.700
49898SOL    HW251469   3.776  11.404   2.720
49899SOL     OW51470   4.151  11.272  11.379
49899SOL    HW151471   4.146  11.230  11.293
49899SOL    HW251472   4.244  11.272  11.400
49900SOL     OW51473  10.650   4.256  12.498
49900SOL    HW151474  10.682   4.203  12.425
49900SOL    HW251475  10.624   4.339  12.458
49901SOL     OW51476   2.154   3.755   5.659
49901SOL    HW151477   2.220   3.714   5.715
49901SOL    HW251478   2.141   3.692   5.587
49902SOL     OW51479   1.856   7.650   2.857
49902SOL    HW151480   1.888   7.710   2.924
49902SOL    HW251481   1.907   7.672   2.779
49903SOL     OW51482   6.277   4.296   2.454
49903SOL    HW151483   6.190   4.262   2.475
49903SOL    HW251484   6.331   4.269   2.529
49904SOL     OW51485  12.245   9.387   7.824
49904SOL    HW151486  12.223   9.478   7.843
49904SOL    HW251487  12.269   9.350   7.909
49905SOL     OW51488   7.836   5.977   9.349
49905SOL    HW151489   7.876   5.890   9.356
49905SOL    HW251490   7.743   5.959   9.334
49906SOL     OW51491  12.993  12.648  13.214
49906SOL    HW151492  12.938  12.726  13.227
49906SOL    HW251493  13.078  12.683  13.189
49907SOL     OW51494   2.606  13.223   3.414
49907SOL    HW151495   2.611  13.137   3.370
49907SOL    HW251496   2.679  13.222   3.475
49908SOL     OW51497   0.025  10.463   1.537
49908SOL    HW151498  14.839  10.396   1.529
49908SOL    HW251499   0.107  10.417   1.520
49909SOL     OW51500  13.903  10.219  14.399
49909SOL    HW151501  13.825  10.275  14.392
49909SOL    HW251502  13.963  10.268  14.456
49910SOL     OW51503  13.012   3.365   0.032
49910SOL    HW151504  12.950   3.297   0.059
49910SOL    HW251505  13.056   3.328  14.836
49911SOL     OW51506   6.141  14.204   9.949
49911SOL    HW151507   6.229  14.238   9.967
49911SOL    HW251508   6.132  14.129  10.008
49912SOL     OW51509   6.100  13.251   1.667
49912SOL    HW151510   6.144  13.168   1.680
49912SOL    HW251511   6.008  13.233   1.687
49913SOL     OW51512   5.220   0.466  10.750
49913SOL    HW151513   5.137   0.499  10.782
49913SOL    HW251514   5.206   0.373  10.736
49914SOL     OW51515   2.049   3.641  14.071
49914SOL    HW151516   2.137   3.638  14.032
49914SOL    HW251517   2.003   3.568  14.031
49915SOL     OW51518   9.439  10.905   2.117
49915SOL    HW151519   9.386  10.968   2.167
49915SOL    HW251520   9.530  10.927   2.139
49916SOL     OW51521   7.827   2.994   9.277
49916SOL    HW151522   7.837   3.078   9.234
49916SOL    HW251523   7.917   2.967   9.298
49917SOL     OW51524   7.205  11.173   3.463
49917SOL    HW151525   7.194  11.080   3.442
49917SOL    HW251526   7.272  11.203   3.401
49918SOL     OW51527   9.162   3.667   5.716
49918SOL    HW151528   9.200   3.755   5.716
49918SOL    HW251529   9.110   3.663   5.796
49919SOL     OW51530  14.010  12.962   7.027
49919SOL    HW151531  13.945  12.972   7.097
49919SOL    HW251532  13.958  12.940   6.950
49920SOL     OW51533   2.629  13.029  11.200
49920SOL    HW151534   2.575  12.956  11.170
49920SOL    HW251535   2.709  13.024  11.148
49921SOL     OW51536   4.842   3.404  10.412
49921SOL    HW151537   4.859   3.322  10.459
49921SOL    HW251538   4.928   3.446  10.404
49922SOL     OW51539  13.663  11.546  12.906
49922SOL    HW151540  13.714  11.573  12.829
49922SOL    HW251541  13.703  11.593  12.978
49923SOL     OW51542   5.223   0.979  11.525
49923SOL    HW151543   5.172   1.041  11.578
49923SOL    HW251544   5.283   0.938  11.588
49924SOL     OW51545   1.616   1.603   8.752
49924SOL    HW151546   1.600   1.570   8.840
49924SOL    HW251547   1.638   1.525   8.701
49925SOL     OW51548   0.546   5.455   7.785
49925SOL    HW151549   0.467   5.415   7.750
49925SOL    HW251550   0.615   5.429   7.724
49926SOL     OW51551   0.117  10.681  14.252
49926SOL    HW151552   0.151  10.679  14.162
49926SOL    HW251553   0.103  10.589  14.274
49927SOL     OW51554   7.982   7.629   1.320
49927SOL    HW151555   7.931   7.562   1.275
49927SOL    HW251556   8.067   7.628   1.275
49928SOL     OW51557   7.885  10.595   2.984
49928SOL    HW151558   7.908  10.598   3.077
49928SOL    HW251559   7.957  10.639   2.940
49929SOL     OW51560   9.898   8.421   9.620
49929SOL    HW151561   9.892   8.512   9.593
49929SOL    HW251562   9.883   8.424   9.715
49930SOL     OW51563  11.461  11.297   9.394
49930SOL    HW151564  11.484  11.313   9.303
49930SOL    HW251565  11.458  11.201   9.401
49931SOL     OW51566   2.109   0.107  12.364
49931SOL    HW151567   2.180   0.094  12.427
49931SOL    HW251568   2.038   0.146  12.414
49932SOL     OW51569   0.058   5.677  10.078
49932SOL    HW151570  14.872   5.669  10.145
49932SOL    HW251571   0.013   5.717  10.004
49933SOL     OW51572   0.555  13.112   8.960
49933SOL    HW151573   0.560  13.180   8.893
49933SOL    HW251574   0.546  13.030   8.910
49934SOL     OW51575  14.716  10.054   7.911
49934SOL    HW151576  14.643  10.006   7.950
49934SOL    HW251577  14.691  10.146   7.917
49935SOL     OW51578  11.821  12.130  10.676
49935SOL    HW151579  11.863  12.063  10.730
49935SOL    HW251580  11.729  12.105  10.673
49936SOL     OW51581   6.990  11.541   6.723
49936SOL    HW151582   6.970  11.601   6.651
49936SOL    HW251583   6.925  11.561   6.790
49937SOL     OW51584   0.370   2.738   3.204
49937SOL    HW151585   0.308   2.666   3.193
49937SOL    HW251586   0.456   2.695   3.211
49938SOL     OW51587   9.911  10.894   3.442
49938SOL    HW151588   9.906  10.947   3.363
49938SOL    HW251589   9.965  10.819   3.418
49939SOL     OW51590   3.132  14.444   3.557
49939SOL    HW151591   3.221  14.423   3.531
49939SOL    HW251592   3.083  14.362   3.547
49940SOL     OW51593   0.418   2.843   9.945
49940SOL    HW151594   0.440   2.774  10.008
49940SOL    HW251595   0.482   2.912   9.962
49941SOL     OW51596  12.259  10.342   0.973
49941SOL    HW151597  12.198  10.362   1.045
49941SOL    HW251598  12.279  10.250   0.985
49942SOL     OW51599   5.490  10.597  13.537
49942SOL    HW151600   5.581  10.623  13.521
49942SOL    HW251601   5.449  10.602  13.450
49943SOL     OW51602   8.343   2.987  10.542
49943SOL    HW151603   8.354   3.062  10.484
49943SOL    HW251604   8.356   2.911  10.485
49944SOL     OW51605  14.494   0.312  14.232
49944SOL    HW151606  14.536   0.295  14.316
49944SOL    HW251607  14.440   0.235  14.216
49945SOL     OW51608   3.117   2.430  13.651
49945SOL    HW151609   3.114   2.381  13.733
49945SOL    HW251610   3.054   2.385  13.594
49946SOL     OW51611  14.759   1.325   8.918
49946SOL    HW151612  14.800   1.272   8.850
49946SOL    HW251613  14.719   1.398   8.870
49947SOL     OW51614   4.022   8.447  12.769
49947SOL    HW151615   3.938   8.413  12.737
49947SOL    HW251616   3.999   8.528  12.815
49948SOL     OW51617  10.477  11.315   9.587
49948SOL    HW151618  10.444  11.225   9.590
49948SOL    HW251619  10.467  11.341   9.495
49949SOL     OW51620   8.756   8.136   3.886
49949SOL    HW151621   8.676   8.179   3.915
49949SOL    HW251622   8.826   8.177   3.937
49950SOL     OW51623  13.202  14.108  11.295
49950SOL    HW151624  13.181  14.154  11.213
49950SOL    HW251625  13.296  14.090  11.288
49951SOL     OW51626   7.497  14.384   7.649
49951SOL    HW151627   7.423  14.443   7.638
49951SOL    HW251628   7.552  14.426   7.715
49952SOL     OW51629   8.151   6.904  14.496
49952SOL    HW151630   8.170   6.907  14.590
49952SOL    HW251631   8.164   6.994  14.466
49953SOL     OW51632  11.726   8.076   7.887
49953SOL    HW151633  11.657   8.045   7.945
49953SOL    HW251634  11.784   8.001   7.875
49954SOL     OW51635   7.024   5.964   3.434
49954SOL    HW151636   6.970   5.924   3.366
49954SOL    HW251637   6.989   5.930   3.516
49955SOL     OW51638   8.853   3.037   5.926
49955SOL    HW151639   8.806   2.992   5.995
49955SOL    HW251640   8.815   3.005   5.845
49956SOL     OW51641   3.996  13.674   6.150
49956SOL    HW151642   3.954  13.696   6.233
49956SOL    HW251643   3.954  13.592   6.123
49957SOL     OW51644  14.702   3.203   3.375
49957SOL    HW151645  14.795   3.213   3.397
49957SOL    HW251646  14.701   3.150   3.296
49958SOL     OW51647  11.944   4.074  13.634
49958SOL    HW151648  11.879   4.129  13.678
49958SOL    HW251649  11.893   4.000  13.600
49959SOL     OW51650  11.850   7.616   5.557
49959SOL    HW151651  11.820   7.666   5.633
49959SOL    HW251652  11.907   7.548   5.594
49960SOL     OW51653  10.957   6.683   5.006
49960SOL    HW151654  10.927   6.774   5.006
49960SOL    HW251655  10.887   6.635   4.962
49961SOL     OW51656   6.249  11.707  12.453
49961SOL    HW151657   6.177  11.753  12.409
49961SOL    HW251658   6.309  11.684  12.383
49962SOL     OW51659   3.485   3.508  14.352
49962SOL    HW151660   3.559   3.562  14.379
49962SOL    HW251661   3.489   3.508  14.256
49963SOL     OW51662   6.143   1.649   4.952
49963SOL    HW151663   6.053   1.621   4.970
49963SOL    HW251664   6.186   1.570   4.920
49964SOL     OW51665   7.209   1.850  13.998
49964SOL    HW151666   7.203   1.755  14.006
49964SOL    HW251667   7.289   1.873  14.046
49965SOL     OW51668   2.726   1.150  12.067
49965SOL    HW151669   2.729   1.192  11.981
49965SOL    HW251670   2.744   1.057  12.048
49966SOL     OW51671  10.031   0.358   5.082
49966SOL    HW151672  10.016   0.437   5.030
49966SOL    HW251673   9.966   0.362   5.152
49967SOL     OW51674  10.174   2.820  11.833
49967SOL    HW151675  10.171   2.777  11.748
49967SOL    HW251676  10.154   2.911  11.815
49968SOL     OW51677  10.341  10.297   4.362
49968SOL    HW151678  10.254  10.324   4.333
49968SOL    HW251679  10.345  10.325   4.454
49969SOL     OW51680   8.053  10.761   0.772
49969SOL    HW151681   8.043  10.854   0.790
49969SOL    HW251682   7.971  10.722   0.801
49970SOL     OW51683   5.195  12.476   4.454
49970SOL    HW151684   5.235  12.413   4.513
49970SOL    HW251685   5.256  12.550   4.451
49971SOL     OW51686   6.273  14.366   1.291
49971SOL    HW151687   6.362  14.391   1.270
49971SOL    HW251688   6.247  14.307   1.219
49972SOL     OW51689   9.420   3.990  11.135
49972SOL    HW151690   9.461   3.908  11.108
49972SOL    HW251691   9.359   4.011  11.064
49973SOL     OW51692  14.841  14.084   6.217
49973SOL    HW151693  14.838  14.062   6.123
49973SOL    HW251694   0.019  14.159   6.222
49974SOL     OW51695   9.578   5.409   8.403
49974SOL    HW151696   9.498   5.391   8.452
49974SOL    HW251697   9.579   5.504   8.393
49975SOL     OW51698  10.347   3.115   4.699
49975SOL    HW151699  10.362   3.036   4.750
49975SOL    HW251700  10.355   3.186   4.763
49976SOL     OW51701   2.921   4.961   1.618
49976SOL    HW151702   2.886   4.883   1.661
49976SOL    HW251703   2.936   5.023   1.689
49977SOL     OW51704  11.381   0.565   7.544
49977SOL    HW151705  11.343   0.567   7.456
49977SOL    HW251706  11.400   0.473   7.559
49978SOL     OW51707   1.425   9.188   6.295
49978SOL    HW151708   1.351   9.137   6.327
49978SOL    HW251709   1.452   9.144   6.214
49979SOL     OW51710  13.790   3.037   2.196
49979SOL    HW151711  13.785   3.106   2.131
49979SOL    HW251712  13.770   2.957   2.148
49980SOL     OW51713   1.924   5.384   1.662
49980SOL    HW151714   1.857   5.320   1.684
49980SOL    HW251715   1.880   5.446   1.603
49981SOL     OW51716   6.485   7.068  10.677
49981SOL    HW151717   6.511   7.088  10.766
49981SOL    HW251718   6.511   6.977  10.663
49982SOL     OW51719  13.989   5.604   6.810
49982SOL    HW151720  14.018   5.686   6.848
49982SOL    HW251721  13.916   5.628   6.753
49983SOL     OW51722   5.856   0.109   9.266
49983SOL    HW151723   5.850   0.182   9.327
49983SOL    HW251724   5.771   0.065   9.273
49984SOL     OW51725   3.804   1.026   9.030
49984SOL    HW151726   3.717   1.010   9.066
49984SOL    HW251727   3.790   1.024   8.935
49985SOL     OW51728   5.014   9.151   5.082
49985SOL    HW151729   4.985   9.078   5.028
49985SOL    HW251730   5.089   9.188   5.035
49986SOL     OW51731   5.603   2.501   4.638
49986SOL    HW151732   5.681   2.542   4.678
49986SOL    HW251733   5.636   2.458   4.560
49987SOL     OW51734   0.386  14.542   3.104
49987SOL    HW151735   0.397  14.636   3.115
49987SOL    HW251736   0.313  14.534   3.043
49988SOL     OW51737   8.641   0.042  12.600
49988SOL    HW151738   8.710   0.005  12.655
49988SOL    HW251739   8.687   0.083  12.527
49989SOL     OW51740   2.452   0.313   2.845
49989SOL    HW151741   2.372   0.267   2.868
49989SOL    HW251742   2.511   0.297   2.918
49990SOL     OW51743   9.361   6.547   8.056
49990SOL    HW151744   9.343   6.526   7.964
49990SOL    HW251745   9.321   6.633   8.069
49991SOL     OW51746   1.910   7.816   3.084
49991SOL    HW151747   2.005   7.820   3.075
49991SOL    HW251748   1.887   7.896   3.131
49992SOL     OW51749   4.849  13.421   1.799
49992SOL    HW151750   4.829  13.422   1.705
49992SOL    HW251751   4.893  13.337   1.813
49993SOL     OW51752   9.548   3.556  11.154
49993SOL    HW151753   9.487   3.484  11.145
49993SOL    HW251754   9.539   3.585  11.245
49994SOL     OW51755   9.835  12.688   4.408
49994SOL    HW151756   9.768  12.726   4.465
49994SOL    HW251757   9.893  12.641   4.468
49995SOL     OW51758  14.244   4.782  10.746
49995SOL    HW151759  14.248   4.753  10.655
49995SOL    HW251760  14.334   4.804  10.768
49996SOL     OW51761   6.195  13.355   3.835
49996SOL    HW151762   6.167  13.414   3.766
49996SOL    HW251763   6.272  13.397   3.873
49997SOL     OW51764   7.919   1.873  14.602
49997SOL    HW151765   7.992   1.834  14.554
49997SOL    HW251766   7.856   1.898  14.534
49998SOL     OW51767  11.017   6.019   9.648
49998SOL    HW151768  10.965   6.097   9.627
49998SOL    HW251769  10.990   5.955   9.583
49999SOL     OW51770   3.313   0.637   6.203
49999SOL    HW151771   3.263   0.564   6.165
49999SOL    HW251772   3.398   0.599   6.227
50000SOL     OW51773   6.277  14.860   4.555
50000SOL    HW151774   6.245  14.799   4.488
50000SOL    HW251775   6.211  14.857   4.624
50001SOL     OW51776  11.965   8.675   9.664
50001SOL    HW151777  12.011   8.752   9.630
50001SOL    HW251778  11.985   8.606   9.600
50002SOL     OW51779   5.202   9.667   1.527
50002SOL    HW151780   5.219   9.756   1.560
50002SOL    HW251781   5.197   9.613   1.606
50003SOL     OW51782   6.377   4.448   3.397
50003SOL    HW151783   6.285   4.433   3.419
50003SOL    HW251784   6.375   4.481   3.307
50004SOL     OW51785   9.977   6.859   7.551
50004SOL    HW151786   9.953   6.770   7.576
50004SOL    HW251787   9.997   6.853   7.458
50005SOL     OW51788   0.932   1.428   3.006
50005SOL    HW151789   0.961   1.502   2.952
50005SOL    HW251790   1.013   1.387   3.036
50006SOL     OW51791   6.937   3.656   1.656
50006SOL    HW151792   6.947   3.583   1.717
50006SOL    HW251793   6.882   3.622   1.586
50007SOL     OW51794  10.630   5.067   9.901
50007SOL    HW151795  10.668   5.146   9.940
50007SOL    HW251796  10.583   5.098   9.824
50008SOL     OW51797   7.412   5.342   6.248
50008SOL    HW151798   7.402   5.250   6.227
50008SOL    HW251799   7.375   5.352   6.335
50009SOL     OW51800  11.317   9.459   4.725
50009SOL    HW151801  11.266   9.522   4.675
50009SOL    HW251802  11.274   9.375   4.709
50010SOL     OW51803  11.898  13.689   5.468
50010SOL    HW151804  11.882  13.782   5.448
50010SOL    HW251805  11.811  13.652   5.485
50011SOL     OW51806   4.609   1.949  12.126
50011SOL    HW151807   4.600   1.903  12.209
50011SOL    HW251808   4.702   1.948  12.107
50012SOL     OW51809  10.821   2.762  10.024
50012SOL    HW151810  10.766   2.822   9.973
50012SOL    HW251811  10.789   2.675  10.003
50013SOL     OW51812  11.033   6.017   2.557
50013SOL    HW151813  11.119   6.007   2.597
50013SOL    HW251814  10.974   6.037   2.630
50014SOL     OW51815  10.870   3.090  12.911
50014SOL    HW151816  10.900   3.053  12.994
50014SOL    HW251817  10.920   3.043  12.845
50015SOL     OW51818  11.357  14.614   3.108
50015SOL    HW151819  11.405  14.695   3.089
50015SOL    HW251820  11.329  14.583   3.022
50016SOL     OW51821   4.176  10.576  10.943
50016SOL    HW151822   4.260  10.613  10.970
50016SOL    HW251823   4.149  10.522  11.017
50017SOL     OW51824   8.593   7.290  12.035
50017SOL    HW151825   8.634   7.346  12.101
50017SOL    HW251826   8.507   7.329  12.020
50018SOL     OW51827   8.585  12.971   6.984
50018SOL    HW151828   8.596  13.016   6.900
50018SOL    HW251829   8.575  12.879   6.960
50019SOL     OW51830  12.484   8.832   0.834
50019SOL    HW151831  12.394   8.824   0.865
50019SOL    HW251832  12.519   8.743   0.840
50020SOL     OW51833   2.442   1.684   0.976
50020SOL    HW151834   2.374   1.741   1.010
50020SOL    HW251835   2.440   1.697   0.881
50021SOL     OW51836   9.632   8.853   6.332
50021SOL    HW151837   9.621   8.848   6.237
50021SOL    HW251838   9.543   8.868   6.365
50022SOL     OW51839  10.106  12.064   6.526
50022SOL    HW151840  10.083  12.135   6.466
50022SOL    HW251841  10.090  12.100   6.614
50023SOL     OW51842   6.594   1.189   2.802
50023SOL    HW151843   6.684   1.222   2.805
50023SOL    HW251844   6.588   1.145   2.717
50024SOL     OW51845  10.762  12.235  10.371
50024SOL    HW151846  10.852  12.204  10.380
50024SOL    HW251847  10.763  12.289  10.292
50025SOL     OW51848   6.676  14.407   3.229
50025SOL    HW151849   6.612  14.477   3.244
50025SOL    HW251850   6.728  14.437   3.154
50026SOL     OW51851   7.844  14.575  13.541
50026SOL    HW151852   7.871  14.652  13.592
50026SOL    HW251853   7.754  14.595  13.514
50027SOL     OW51854  11.337  13.907   4.364
50027SOL    HW151855  11.318  13.956   4.443
50027SOL    HW251856  11.276  13.941   4.298
50028SOL     OW51857   8.812   2.735   0.493
50028SOL    HW151858   8.745   2.696   0.437
50028SOL    HW251859   8.826   2.669   0.561
50029SOL     OW51860   3.475  14.710   9.049
50029SOL    HW151861   3.434  14.657   9.117
50029SOL    HW251862   3.458  14.801   9.076
50030SOL     OW51863   2.992   0.836   3.120
50030SOL    HW151864   3.048   0.833   3.042
50030SOL    HW251865   2.949   0.750   3.121
50031SOL     OW51866  12.424   8.474   9.761
50031SOL    HW151867  12.406   8.389   9.722
50031SOL    HW251868  12.511   8.498   9.729
50032SOL     OW51869  13.716   9.916  10.514
50032SOL    HW151870  13.713   9.835  10.462
50032SOL    HW251871  13.659   9.976  10.467
50033SOL     OW51872   7.260   0.210   9.717
50033SOL    HW151873   7.298   0.161   9.790
50033SOL    HW251874   7.166   0.200   9.727
50034SOL     OW51875   9.410  11.216   6.344
50034SOL    HW151876   9.359  11.229   6.265
50034SOL    HW251877   9.424  11.122   6.349
50035SOL     OW51878   5.655   8.641   6.342
50035SOL    HW151879   5.699   8.590   6.410
50035SOL    HW251880   5.701   8.725   6.342
50036SOL     OW51881  14.456   7.359  14.581
50036SOL    HW151882  14.450   7.454  14.569
50036SOL    HW251883  14.521   7.330  14.518
50037SOL     OW51884   2.692  13.541  13.246
50037SOL    HW151885   2.611  13.529  13.296
50037SOL    HW251886   2.663  13.556  13.156
50038SOL     OW51887   3.008  14.165  10.376
50038SOL    HW151888   3.091  14.204  10.349
50038SOL    HW251889   3.018  14.071  10.356
50039SOL     OW51890   6.437   2.664   3.991
50039SOL    HW151891   6.433   2.570   4.009
50039SOL    HW251892   6.439   2.704   4.078
50040SOL     OW51893   9.835  10.009   3.228
50040SOL    HW151894   9.814  10.098   3.199
50040SOL    HW251895   9.811  10.008   3.321
50041SOL     OW51896  10.314   6.212   7.032
50041SOL    HW151897  10.235   6.244   6.988
50041SOL    HW251898  10.364   6.168   6.962
50042SOL     OW51899  12.961  14.097   5.389
50042SOL    HW151900  12.992  14.119   5.477
50042SOL    HW251901  12.956  14.002   5.388
50043SOL     OW51902   7.833  12.663  13.365
50043SOL    HW151903   7.795  12.575  13.364
50043SOL    HW251904   7.915  12.653  13.414
50044SOL     OW51905   1.969  11.000  10.850
50044SOL    HW151906   1.931  10.965  10.930
50044SOL    HW251907   1.916  10.962  10.779
50045SOL     OW51908   5.863   2.295   2.300
50045SOL    HW151909   5.787   2.309   2.244
50045SOL    HW251910   5.931   2.263   2.241
50046SOL     OW51911  11.791   0.826  13.087
50046SOL    HW151912  11.848   0.901  13.072
50046SOL    HW251913  11.703   0.860  13.072
50047SOL     OW51914  10.872   5.865   0.022
50047SOL    HW151915  10.920   5.816   0.088
50047SOL    HW251916  10.825   5.799  14.853
50048SOL     OW51917   1.968   6.938   6.513
50048SOL    HW151918   1.873   6.935   6.523
50048SOL    HW251919   1.982   6.954   6.419
50049SOL     OW51920   8.085  13.620  11.424
50049SOL    HW151921   8.149  13.560  11.386
50049SOL    HW251922   8.133  13.702  11.436
50050SOL     OW51923  12.963   1.196   4.921
50050SOL    HW151924  13.015   1.118   4.899
50050SOL    HW251925  12.986   1.216   5.011
50051SOL     OW51926  10.764  11.096   1.214
50051SOL    HW151927  10.832  11.041   1.175
50051SOL    HW251928  10.749  11.058   1.300
50052SOL     OW51929  11.323   9.736   7.148
50052SOL    HW151930  11.236   9.719   7.184
50052SOL    HW251931  11.306   9.782   7.066
50053SOL     OW51932   8.604  14.220   6.377
50053SOL    HW151933   8.548  14.243   6.302
50053SOL    HW251934   8.659  14.297   6.390
50054SOL     OW51935   0.876   9.334  10.560
50054SOL    HW151936   0.966   9.349  10.588
50054SOL    HW251937   0.866   9.388  10.482
50055SOL     OW51938   8.136  11.933   6.069
50055SOL    HW151939   8.046  11.944   6.100
50055SOL    HW251940   8.183  12.009   6.103
50056SOL     OW51941   8.695   4.197  11.885
50056SOL    HW151942   8.693   4.250  11.805
50056SOL    HW251943   8.609   4.156  11.889
50057SOL     OW51944   6.541   5.328   6.078
50057SOL    HW151945   6.454   5.369   6.080
50057SOL    HW251946   6.549   5.286   6.164
50058SOL     OW51947   0.623   9.791   5.862
50058SOL    HW151948   0.671   9.727   5.915
50058SOL    HW251949   0.644   9.876   5.902
50059SOL     OW51950   1.724   0.659   5.767
50059SOL    HW151951   1.705   0.682   5.858
50059SOL    HW251952   1.818   0.669   5.758
50060SOL     OW51953   0.629   5.159   9.603
50060SOL    HW151954   0.537   5.151   9.578
50060SOL    HW251955   0.642   5.252   9.621
50061SOL     OW51956   1.739   9.338  10.855
50061SOL    HW151957   1.754   9.432  10.866
50061SOL    HW251958   1.783   9.316  10.773
50062SOL     OW51959   3.398  12.371  12.193
50062SOL    HW151960   3.340  12.444  12.211
50062SOL    HW251961   3.486  12.407  12.202
50063SOL     OW51962  12.641  13.329   8.650
50063SOL    HW151963  12.562  13.382   8.661
50063SOL    HW251964  12.638  13.302   8.558
50064SOL     OW51965   4.749   7.155   6.993
50064SOL    HW151966   4.762   7.243   6.957
50064SOL    HW251967   4.678   7.166   7.056
50065SOL     OW51968   4.289   2.762   0.792
50065SOL    HW151969   4.203   2.735   0.824
50065SOL    HW251970   4.272   2.837   0.736
50066SOL     OW51971   6.235  12.502   8.280
50066SOL    HW151972   6.186  12.547   8.349
50066SOL    HW251973   6.242  12.567   8.210
50067SOL     OW51974   0.877  13.859   0.219
50067SOL    HW151975   0.796  13.897   0.253
50067SOL    HW251976   0.945  13.893   0.277
50068SOL     OW51977   0.090   3.606  13.185
50068SOL    HW151978   0.020   3.653  13.230
50068SOL    HW251979   0.128   3.671  13.125
50069SOL     OW51980   5.819   1.426   6.742
50069SOL    HW151981   5.804   1.473   6.824
50069SOL    HW251982   5.756   1.463   6.681
50070SOL     OW51983  13.591   7.967  10.054
50070SOL    HW151984  13.628   7.880  10.070
50070SOL    HW251985  13.520   7.975  10.118
50071SOL     OW51986   0.586   0.925   6.143
50071SOL    HW151987   0.639   1.001   6.116
50071SOL    HW251988   0.500   0.962   6.162
50072SOL     OW51989   6.372   6.707   3.194
50072SOL    HW151990   6.313   6.647   3.148
50072SOL    HW251991   6.459   6.688   3.157
50073SOL     OW51992   0.537   4.935   3.405
50073SOL    HW151993   0.603   4.877   3.443
50073SOL    HW251994   0.563   5.022   3.433
50074SOL     OW51995  12.724   2.470  14.595
50074SOL    HW151996  12.726   2.378  14.622
50074SOL    HW251997  12.631   2.492  14.591
50075SOL     OW51998   3.096  11.186   9.316
50075SOL    HW151999   3.068  11.260   9.263
50075SOL    HW252000   3.048  11.111   9.281
50076SOL     OW52001  10.927   4.184   7.761
50076SOL    HW152002  10.951   4.225   7.844
50076SOL    HW252003  10.832   4.178   7.764
50077SOL     OW52004   9.206   2.917   0.592
50077SOL    HW152005   9.185   2.936   0.501
50077SOL    HW252006   9.300   2.898   0.591
50078SOL     OW52007   7.196  13.773   6.561
50078SOL    HW152008   7.144  13.813   6.491
50078SOL    HW252009   7.160  13.684   6.570
50079SOL     OW52010  14.070  13.621  14.792
50079SOL    HW152011  14.087  13.635   0.004
50079SOL    HW252012  13.987  13.665  14.775
50080SOL     OW52013   5.778  14.071   9.363
50080SOL    HW152014   5.873  14.076   9.364
50080SOL    HW252015   5.757  13.997   9.420
50081SOL     OW52016   5.871   4.723   5.181
50081SOL    HW152017   5.822   4.644   5.157
50081SOL    HW252018   5.886   4.714   5.275
50082SOL     OW52019   9.993  12.790  12.018
50082SOL    HW152020  10.028  12.717  11.968
50082SOL    HW252021   9.945  12.750  12.090
50083SOL     OW52022   4.893  11.061   2.650
50083SOL    HW152023   4.866  11.031   2.564
50083SOL    HW252024   4.982  11.027   2.660
50084SOL     OW52025   2.936   5.426   1.776
50084SOL    HW152026   2.959   5.518   1.790
50084SOL    HW252027   2.988   5.400   1.700
50085SOL     OW52028   9.596  14.346   6.581
50085SOL    HW152029   9.517  14.370   6.629
50085SOL    HW252030   9.668  14.368   6.641
50086SOL     OW52031   7.100   0.422   6.862
50086SOL    HW152032   7.069   0.338   6.897
50086SOL    HW252033   7.168   0.398   6.799
50087SOL     OW52034  11.642   5.743   6.318
50087SOL    HW152035  11.668   5.832   6.294
50087SOL    HW252036  11.565   5.755   6.373
50088SOL     OW52037  13.132  14.013  13.943
50088SOL    HW152038  13.149  13.921  13.966
50088SOL    HW252039  13.192  14.062  13.999
50089SOL     OW52040   6.100   5.380   2.281
50089SOL    HW152041   6.041   5.372   2.207
50089SOL    HW252042   6.114   5.290   2.311
50090SOL     OW52043   4.102  11.122   8.094
50090SOL    HW152044   4.151  11.055   8.141
50090SOL    HW252045   4.017  11.082   8.076
50091SOL     OW52046   2.923  10.160  13.062
50091SOL    HW152047   2.883  10.202  12.986
50091SOL    HW252048   3.008  10.130  13.030
50092SOL     OW52049   0.200   1.065   0.500
50092SOL    HW152050   0.247   1.013   0.566
50092SOL    HW252051   0.224   1.026   0.417
50093SOL     OW52052  13.431  13.806   0.904
50093SOL    HW152053  13.413  13.768   0.991
50093SOL    HW252054  13.375  13.883   0.900
50094SOL     OW52055   6.765   1.623  11.973
50094SOL    HW152056   6.801   1.672  11.899
50094SOL    HW252057   6.671   1.623  11.958
50095SOL     OW52058  12.100  14.152  13.962
50095SOL    HW152059  12.006  14.142  13.950
50095SOL    HW252060  12.123  14.089  14.030
50096SOL     OW52061   0.995   9.936   6.214
50096SOL    HW152062   1.018   9.945   6.122
50096SOL    HW252063   1.000  10.024   6.249
50097SOL     OW52064  12.416  13.586   4.823
50097SOL    HW152065  12.348  13.564   4.760
50097SOL    HW252066  12.488  13.620   4.770
50098SOL     OW52067   1.418  13.254   5.422
50098SOL    HW152068   1.387  13.171   5.456
50098SOL    HW252069   1.380  13.260   5.334
50099SOL     OW52070   4.384  10.676   0.221
50099SOL    HW152071   4.390  10.602   0.282
50099SOL    HW252072   4.309  10.655   0.165
50100SOL     OW52073  13.035  10.434  13.890
50100SOL    HW152074  13.027  10.372  13.818
50100SOL    HW252075  13.073  10.383  13.962
50101SOL     OW52076   4.758   9.496  13.313
50101SOL    HW152077   4.709   9.569  13.350
50101SOL    HW252078   4.834   9.537  13.272
50102SOL     OW52079  13.663  12.509  11.841
50102SOL    HW152080  13.590  12.464  11.883
50102SOL    HW252081  13.637  12.601  11.839
50103SOL     OW52082   8.524  14.188   0.688
50103SOL    HW152083   8.581  14.251   0.644
50103SOL    HW252084   8.535  14.107   0.639
50104SOL     OW52085   6.017   0.618  11.222
50104SOL    HW152086   5.994   0.593  11.311
50104SOL    HW252087   6.113   0.629  11.225
50105SOL     OW52088   5.208   7.461  11.007
50105SOL    HW152089   5.223   7.527  11.075
50105SOL    HW252090   5.288   7.408  11.007
50106SOL     OW52091  10.028   3.837  12.293
50106SOL    HW152092  10.019   3.742  12.293
50106SOL    HW252093  10.085   3.855  12.219
50107SOL     OW52094   6.619   3.970  13.964
50107SOL    HW152095   6.688   4.020  13.920
50107SOL    HW252096   6.661   3.937  14.044
50108SOL     OW52097   3.005  11.220  11.277
50108SOL    HW152098   3.087  11.189  11.314
50108SOL    HW252099   3.027  11.247  11.188
50109SOL     OW52100   3.088   9.512  12.499
50109SOL    HW152101   3.067   9.599  12.533
50109SOL    HW252102   3.049   9.452  12.561
50110SOL     OW52103   2.692   2.281   1.774
50110SOL    HW152104   2.679   2.351   1.839
50110SOL    HW252105   2.681   2.324   1.690
50111SOL     OW52106   3.875  14.042   5.081
50111SOL    HW152107   3.880  14.049   5.176
50111SOL    HW252108   3.935  13.971   5.059
50112SOL     OW52109  10.980   9.688   8.765
50112SOL    HW152110  10.899   9.639   8.751
50112SOL    HW252111  10.979   9.756   8.698
50113SOL     OW52112  13.773  14.682  11.696
50113SOL    HW152113  13.756  14.756  11.754
50113SOL    HW252114  13.686  14.646  11.676
50114SOL     OW52115   5.964   3.032   8.039
50114SOL    HW152116   5.984   3.125   8.051
50114SOL    HW252117   5.886   3.018   8.093
50115SOL     OW52118  12.587  10.444  11.697
50115SOL    HW152119  12.536  10.371  11.663
50115SOL    HW252120  12.668  10.405  11.728
50116SOL     OW52121  14.645  12.281  12.150
50116SOL    HW152122  14.622  12.309  12.061
50116SOL    HW252123  14.737  12.306  12.160
50117SOL     OW52124   9.433   2.488   8.726
50117SOL    HW152125   9.502   2.462   8.664
50117SOL    HW252126   9.442   2.582   8.735
50118SOL     OW52127  10.523   2.477   2.124
50118SOL    HW152128  10.610   2.441   2.106
50118SOL    HW252129  10.467   2.400   2.136
50119SOL     OW52130   1.300  14.269  12.741
50119SOL    HW152131   1.278  14.301  12.654
50119SOL    HW252132   1.340  14.343  12.785
50120SOL     OW52133   3.535   1.885  13.568
50120SOL    HW152134   3.584   1.842  13.499
50120SOL    HW252135   3.532   1.977  13.541
50121SOL     OW52136   6.065   7.734   9.964
50121SOL    HW152137   6.079   7.826   9.984
50121SOL    HW252138   6.047   7.693  10.049
50122SOL     OW52139   7.988   1.960   2.331
50122SOL    HW152140   8.004   1.939   2.239
50122SOL    HW252141   7.912   1.907   2.356
50123SOL     OW52142   1.799  13.550  12.723
50123SOL    HW152143   1.833  13.552  12.633
50123SOL    HW252144   1.714  13.508  12.716
50124SOL     OW52145   9.140  12.051   8.665
50124SOL    HW152146   9.074  11.984   8.653
50124SOL    HW252147   9.107  12.106   8.736
50125SOL     OW52148   4.765   8.179   9.423
50125SOL    HW152149   4.716   8.255   9.452
50125SOL    HW252150   4.698   8.115   9.397
50126SOL     OW52151   2.663   6.540  11.557
50126SOL    HW152152   2.655   6.495  11.641
50126SOL    HW252153   2.605   6.491  11.498
50127SOL     OW52154   3.621   9.578   2.104
50127SOL    HW152155   3.567   9.504   2.133
50127SOL    HW252156   3.697   9.577   2.162
50128SOL     OW52157   2.792  12.466   9.859
50128SOL    HW152158   2.807  12.374   9.882
50128SOL    HW252159   2.756  12.505   9.938
50129SOL     OW52160  13.565   2.552   6.413
50129SOL    HW152161  13.564   2.636   6.367
50129SOL    HW252162  13.575   2.486   6.344
50130SOL     OW52163   3.410   2.451   8.488
50130SOL    HW152164   3.484   2.491   8.534
50130SOL    HW252165   3.422   2.476   8.396
50131SOL     OW52166  10.190  13.226  11.625
50131SOL    HW152167  10.258  13.192  11.567
50131SOL    HW252168  10.229  13.304  11.665
50132SOL     OW52169   0.685   6.621   6.259
50132SOL    HW152170   0.594   6.598   6.243
50132SOL    HW252171   0.722   6.544   6.303
50133SOL     OW52172  11.930   6.699   7.975
50133SOL    HW152173  11.938   6.706   8.070
50133SOL    HW252174  11.861   6.761   7.952
50134SOL     OW52175   1.719   5.098   9.544
50134SOL    HW152176   1.668   5.017   9.536
50134SOL    HW252177   1.679   5.158   9.481
50135SOL     OW52178  10.463   4.714   1.281
50135SOL    HW152179  10.464   4.802   1.318
50135SOL    HW252180  10.556   4.689   1.277
50136SOL     OW52181   4.495   1.636  10.541
50136SOL    HW152182   4.475   1.687  10.619
50136SOL    HW252183   4.481   1.545  10.567
50137SOL     OW52184   8.038   5.079  14.237
50137SOL    HW152185   8.125   5.090  14.277
50137SOL    HW252186   8.011   5.169  14.217
50138SOL     OW52187  14.520   9.640   5.401
50138SOL    HW152188  14.480   9.554   5.388
50138SOL    HW252189  14.473   9.677   5.475
50139SOL     OW52190  10.766   2.197   4.946
50139SOL    HW152191  10.708   2.256   4.994
50139SOL    HW252192  10.732   2.198   4.857
50140SOL     OW52193  14.534   3.968   7.621
50140SOL    HW152194  14.548   4.033   7.690
50140SOL    HW252195  14.616   3.968   7.571
50141SOL     OW52196   3.357  12.738   6.487
50141SOL    HW152197   3.396  12.732   6.400
50141SOL    HW252198   3.327  12.828   6.494
50142SOL     OW52199  10.620   9.274   0.519
50142SOL    HW152200  10.680   9.233   0.581
50142SOL    HW252201  10.650   9.245   0.433
50143SOL     OW52202   8.432  14.224  11.187
50143SOL    HW152203   8.483  14.173  11.250
50143SOL    HW252204   8.419  14.165  11.113
50144SOL     OW52205   2.492  10.376   5.342
50144SOL    HW152206   2.504  10.345   5.252
50144SOL    HW252207   2.577  10.414   5.365
50145SOL     OW52208   3.520  11.054   4.624
50145SOL    HW152209   3.579  11.008   4.565
50145SOL    HW252210   3.493  11.132   4.576
50146SOL     OW52211   0.286   2.838   5.863
50146SOL    HW152212   0.357   2.897   5.835
50146SOL    HW252213   0.300   2.758   5.812
50147SOL     OW52214   1.466   2.473  12.468
50147SOL    HW152215   1.413   2.433  12.537
50147SOL    HW252216   1.442   2.566  12.470
50148SOL     OW52217   8.708   2.461  11.437
50148SOL    HW152218   8.691   2.380  11.389
50148SOL    HW252219   8.801   2.478  11.422
50149SOL     OW52220   6.119   0.744   4.624
50149SOL    HW152221   6.179   0.780   4.559
50149SOL    HW252222   6.121   0.807   4.696
50150SOL     OW52223  11.851  12.120   9.556
50150SOL    HW152224  11.933  12.139   9.512
50150SOL    HW252225  11.807  12.205   9.562
50151SOL     OW52226  13.738   6.491   8.443
50151SOL    HW152227  13.821   6.451   8.419
50151SOL    HW252228  13.712   6.447   8.524
50152SOL     OW52229  12.551   2.492   2.549
50152SOL    HW152230  12.621   2.551   2.578
50152SOL    HW252231  12.571   2.475   2.457
50153SOL     OW52232  12.792   1.576   4.268
50153SOL    HW152233  12.878   1.541   4.290
50153SOL    HW252234  12.811   1.650   4.210
50154SOL     OW52235   5.003   4.961   5.311
50154SOL    HW152236   5.026   4.899   5.380
50154SOL    HW252237   5.064   4.941   5.240
50155SOL     OW52238  13.055  13.839   4.103
50155SOL    HW152239  13.090  13.821   4.015
50155SOL    HW252240  13.105  13.914   4.134
50156SOL     OW52241  11.815  10.523  10.929
50156SOL    HW152242  11.765  10.516  11.010
50156SOL    HW252243  11.906  10.520  10.957
50157SOL     OW52244  12.530  13.536  11.894
50157SOL    HW152245  12.473  13.496  11.960
50157SOL    HW252246  12.593  13.588  11.944
50158SOL     OW52247   5.681   9.723   4.323
50158SOL    HW152248   5.666   9.784   4.250
50158SOL    HW252249   5.753   9.761   4.372
50159SOL     OW52250   4.146   1.750   6.697
50159SOL    HW152251   4.138   1.655   6.708
50159SOL    HW252252   4.055   1.780   6.689
50160SOL     OW52253   0.894  11.775   1.344
50160SOL    HW152254   0.897  11.767   1.439
50160SOL    HW252255   0.833  11.848   1.328
50161SOL     OW52256   1.851   1.637  10.113
50161SOL    HW152257   1.935   1.681  10.100
50161SOL    HW252258   1.791   1.706  10.138
50162SOL     OW52259  10.258   0.067   0.800
50162SOL    HW152260  10.201   0.036   0.871
50162SOL    HW252261  10.342   0.083   0.843
50163SOL     OW52262   0.013  14.691   1.950
50163SOL    HW152263   0.099  14.650   1.959
50163SOL    HW252264   0.030  14.776   1.910
50164SOL     OW52265   7.618   9.567   4.768
50164SOL    HW152266   7.613   9.531   4.679
50164SOL    HW252267   7.665   9.650   4.758
50165SOL     OW52268   6.562   1.041  12.137
50165SOL    HW152269   6.561   1.092  12.218
50165SOL    HW252270   6.565   0.950  12.166
50166SOL     OW52271   2.686   9.052   2.995
50166SOL    HW152272   2.686   9.069   2.901
50166SOL    HW252273   2.778   9.049   3.019
50167SOL     OW52274   4.944  13.314   2.553
50167SOL    HW152275   4.906  13.366   2.482
50167SOL    HW252276   5.018  13.269   2.513
50168SOL     OW52277   9.635   1.722  10.505
50168SOL    HW152278   9.633   1.637  10.461
50168SOL    HW252279   9.648   1.785  10.435
50169SOL     OW52280   2.538  14.182   1.413
50169SOL    HW152281   2.538  14.229   1.330
50169SOL    HW252282   2.485  14.237   1.471
50170SOL     OW52283   1.571  10.866   5.429
50170SOL    HW152284   1.528  10.939   5.473
50170SOL    HW252285   1.648  10.905   5.387
50171SOL     OW52286   6.819  10.171   4.493
50171SOL    HW152287   6.763  10.225   4.437
50171SOL    HW252288   6.891  10.230   4.517
50172SOL     OW52289   5.639   2.228  13.884
50172SOL    HW152290   5.621   2.140  13.919
50172SOL    HW252291   5.566   2.245  13.825
50173SOL     OW52292   6.022   0.502   6.855
50173SOL    HW152293   6.015   0.593   6.884
50173SOL    HW252294   6.066   0.507   6.771
50174SOL     OW52295   5.626  14.619   5.647
50174SOL    HW152296   5.623  14.705   5.606
50174SOL    HW252297   5.716  14.612   5.681
50175SOL     OW52298   8.978   7.296  12.793
50175SOL    HW152299   8.989   7.206  12.765
50175SOL    HW252300   8.936   7.289  12.879
50176SOL     OW52301   0.591   8.190   0.296
50176SOL    HW152302   0.612   8.101   0.266
50176SOL    HW252303   0.536   8.226   0.227
50177SOL     OW52304   6.555   7.077  11.631
50177SOL    HW152305   6.593   7.160  11.662
50177SOL    HW252306   6.555   7.086  11.535
50178SOL     OW52307  11.430   8.803   6.468
50178SOL    HW152308  11.422   8.744   6.543
50178SOL    HW252309  11.385   8.758   6.397
50179SOL     OW52310  12.636   1.236   7.013
50179SOL    HW152311  12.701   1.289   6.967
50179SOL    HW252312  12.557   1.289   7.013
50180SOL     OW52313   3.626   2.050  10.985
50180SOL    HW152314   3.688   2.112  11.024
50180SOL    HW252315   3.634   1.971  11.040
50181SOL     OW52316   2.314  11.051  11.869
50181SOL    HW152317   2.337  11.104  11.946
50181SOL    HW252318   2.359  11.094  11.796
50182SOL     OW52319   6.848   9.212  12.756
50182SOL    HW152320   6.899   9.182  12.681
50182SOL    HW252321   6.913   9.244  12.818
50183SOL     OW52322   9.241  11.113   3.791
50183SOL    HW152323   9.182  11.158   3.853
50183SOL    HW252324   9.328  11.146   3.813
50184SOL     OW52325   1.736   5.172  14.292
50184SOL    HW152326   1.659   5.152  14.240
50184SOL    HW252327   1.805   5.115  14.258
50185SOL     OW52328   3.958   5.314   3.480
50185SOL    HW152329   3.939   5.243   3.542
50185SOL    HW252330   3.981   5.388   3.536
50186SOL     OW52331   6.366   9.121   1.881
50186SOL    HW152332   6.356   9.199   1.934
50186SOL    HW252333   6.377   9.153   1.792
50187SOL     OW52334  14.501  13.173   9.590
50187SOL    HW152335  14.473  13.123   9.666
50187SOL    HW252336  14.424  13.224   9.565
50188SOL     OW52337   4.251   9.303   5.435
50188SOL    HW152338   4.223   9.344   5.353
50188SOL    HW252339   4.245   9.372   5.500
50189SOL     OW52340   4.532   5.392  11.493
50189SOL    HW152341   4.519   5.322  11.430
50189SOL    HW252342   4.542   5.348  11.577
50190SOL     OW52343   6.907   8.918   4.934
50190SOL    HW152344   6.862   8.880   4.859
50190SOL    HW252345   6.994   8.941   4.901
50191SOL     OW52346   3.567   4.885  12.792
50191SOL    HW152347   3.595   4.954  12.852
50191SOL    HW252348   3.478   4.910  12.767
50192SOL     OW52349   6.939  13.859  11.998
50192SOL    HW152350   6.855  13.853  12.044
50192SOL    HW252351   6.974  13.945  12.024
50193SOL     OW52352   5.135  11.847   8.040
50193SOL    HW152353   5.065  11.782   8.039
50193SOL    HW252354   5.126  11.891   8.124
50194SOL     OW52355   2.671   1.134   4.980
50194SOL    HW152356   2.588   1.176   5.004
50194SOL    HW252357   2.709   1.107   5.064
50195SOL     OW52358   8.185  13.430   5.070
50195SOL    HW152359   8.111  13.372   5.088
50195SOL    HW252360   8.146  13.505   5.026
50196SOL     OW52361  14.569   1.717  11.214
50196SOL    HW152362  14.536   1.725  11.303
50196SOL    HW252363  14.622   1.795  11.201
50197SOL     OW52364   1.636   5.891   3.169
50197SOL    HW152365   1.674   5.848   3.246
50197SOL    HW252366   1.635   5.822   3.102
50198SOL     OW52367   9.094   0.967   0.212
50198SOL    HW152368   9.034   0.961   0.138
50198SOL    HW252369   9.163   1.026   0.182
50199SOL     OW52370   4.027   9.489   3.142
50199SOL    HW152371   3.993   9.465   3.228
50199SOL    HW252372   4.044   9.405   3.099
50200SOL     OW52373   8.324  12.667  12.847
50200SOL    HW152374   8.297  12.631  12.762
50200SOL    HW252375   8.340  12.590  12.901
50201SOL     OW52376   9.172  10.380  13.465
50201SOL    HW152377   9.225  10.323  13.411
50201SOL    HW252378   9.154  10.329  13.544
50202SOL     OW52379   9.715   7.732   8.908
50202SOL    HW152380   9.647   7.697   8.852
50202SOL    HW252381   9.745   7.811   8.863
50203SOL     OW52382  12.725  14.747  11.523
50203SOL    HW152383  12.731  14.837  11.490
50203SOL    HW252384  12.711  14.693  11.445
50204SOL     OW52385   7.113   3.645   7.801
50204SOL    HW152386   7.035   3.592   7.784
50204SOL    HW252387   7.134   3.684   7.716
50205SOL     OW52388   0.674   9.340   8.738
50205SOL    HW152389   0.647   9.271   8.800
50205SOL    HW252390   0.738   9.392   8.786
50206SOL     OW52391  10.882   1.761  11.814
50206SOL    HW152392  10.792   1.794  11.825
50206SOL    HW252393  10.871   1.675  11.773
50207SOL     OW52394  14.877   7.955   6.548
50207SOL    HW152395   0.082   7.914   6.546
50207SOL    HW252396  14.827   7.902   6.610
50208SOL     OW52397   4.050  11.588  11.735
50208SOL    HW152398   4.031  11.654  11.802
50208SOL    HW252399   4.022  11.506  11.774
50209SOL     OW52400   8.037  14.322   2.595
50209SOL    HW152401   7.962  14.286   2.642
50209SOL    HW252402   7.999  14.377   2.526
50210SOL     OW52403  13.464   5.281  12.897
50210SOL    HW152404  13.398   5.267  12.829
50210SOL    HW252405  13.523   5.206  12.889
50211SOL     OW52406  13.844  10.505   1.477
50211SOL    HW152407  13.798  10.589   1.479
50211SOL    HW252408  13.842  10.478   1.385
50212SOL     OW52409  11.416   1.823  13.724
50212SOL    HW152410  11.484   1.864  13.671
50212SOL    HW252411  11.464   1.768  13.786
50213SOL     OW52412   3.419  11.076   9.086
50213SOL    HW152413   3.430  11.162   9.046
50213SOL    HW252414   3.412  11.094   9.180
50214SOL     OW52415  11.094  13.917  12.595
50214SOL    HW152416  11.137  13.987  12.546
50214SOL    HW252417  11.111  13.838  12.544
50215SOL     OW52418   3.453   6.373   3.756
50215SOL    HW152419   3.536   6.418   3.743
50215SOL    HW252420   3.429   6.342   3.668
50216SOL     OW52421   0.250   3.874  11.134
50216SOL    HW152422   0.296   3.891  11.216
50216SOL    HW252423   0.229   3.781  11.136
50217SOL     OW52424  11.199   4.877   6.582
50217SOL    HW152425  11.186   4.855   6.489
50217SOL    HW252426  11.115   4.857   6.623
50218SOL     OW52427  11.920  10.701   2.271
50218SOL    HW152428  11.934  10.636   2.202
50218SOL    HW252429  11.905  10.649   2.350
50219SOL     OW52430  11.103   4.063   0.356
50219SOL    HW152431  11.173   4.030   0.299
50219SOL    HW252432  11.126   4.155   0.370
50220SOL     OW52433   3.092  12.917   1.133
50220SOL    HW152434   3.112  13.008   1.111
50220SOL    HW252435   2.997  12.912   1.131
50221SOL     OW52436   3.575   9.549   2.824
50221SOL    HW152437   3.629   9.606   2.768
50221SOL    HW252438   3.536   9.609   2.887
50222SOL     OW52439  10.356   2.576   4.696
50222SOL    HW152440  10.299   2.651   4.681
50222SOL    HW252441  10.388   2.588   4.785
50223SOL     OW52442   1.238  12.101   2.800
50223SOL    HW152443   1.312  12.133   2.851
50223SOL    HW252444   1.164  12.101   2.862
50224SOL     OW52445  14.801   3.428   3.838
50224SOL    HW152446  14.763   3.420   3.751
50224SOL    HW252447  14.728   3.408   3.898
50225SOL     OW52448   9.964   7.549   5.337
50225SOL    HW152449   9.964   7.644   5.323
50225SOL    HW252450   9.887   7.518   5.289
50226SOL     OW52451   5.190   6.484  11.117
50226SOL    HW152452   5.130   6.470  11.190
50226SOL    HW252453   5.229   6.570  11.133
50227SOL     OW52454  12.765   3.047   9.518
50227SOL    HW152455  12.787   2.960   9.484
50227SOL    HW252456  12.847   3.096   9.515
50228SOL     OW52457  11.491   4.199   7.048
50228SOL    HW152458  11.487   4.116   7.001
50228SOL    HW252459  11.577   4.235   7.026
50229SOL     OW52460   2.675  12.549  10.085
50229SOL    HW152461   2.606  12.485  10.105
50229SOL    HW252462   2.731  12.550  10.162
50230SOL     OW52463  10.317   0.424   8.922
50230SOL    HW152464  10.318   0.330   8.937
50230SOL    HW252465  10.285   0.434   8.832
50231SOL     OW52466   4.973  13.284   5.529
50231SOL    HW152467   5.053  13.333   5.511
50231SOL    HW252468   4.961  13.229   5.451
50232SOL     OW52469  13.150   6.240  13.911
50232SOL    HW152470  13.224   6.198  13.868
50232SOL    HW252471  13.178   6.251  14.002
50233SOL     OW52472   5.050   9.737   0.578
50233SOL    HW152473   5.076   9.799   0.646
50233SOL    HW252474   5.054   9.651   0.622
50234SOL     OW52475   8.258  11.014   2.176
50234SOL    HW152476   8.230  10.923   2.190
50234SOL    HW252477   8.295  11.041   2.261
50235SOL     OW52478   0.867  13.968   7.186
50235SOL    HW152479   0.913  14.050   7.203
50235SOL    HW252480   0.851  13.969   7.092
50236SOL     OW52481  10.339   8.237  13.839
50236SOL    HW152482  10.393   8.291  13.896
50236SOL    HW252483  10.257   8.225  13.887
50237SOL     OW52484  14.525   4.497   1.602
50237SOL    HW152485  14.590   4.437   1.637
50237SOL    HW252486  14.488   4.541   1.679
50238SOL     OW52487   3.521   8.032   3.703
50238SOL    HW152488   3.586   8.057   3.769
50238SOL    HW252489   3.483   8.115   3.674
50239SOL     OW52490   4.954   0.791   3.148
50239SOL    HW152491   5.032   0.775   3.202
50239SOL    HW252492   4.927   0.880   3.171
50240SOL     OW52493  14.338   6.955   7.485
50240SOL    HW152494  14.327   6.860   7.478
50240SOL    HW252495  14.275   6.982   7.552
50241SOL     OW52496   7.378  14.144   7.734
50241SOL    HW152497   7.423  14.218   7.692
50241SOL    HW252498   7.448  14.080   7.751
50242SOL     OW52499  14.617  11.003   1.364
50242SOL    HW152500  14.670  10.954   1.427
50242SOL    HW252501  14.528  10.973   1.378
50243SOL     OW52502   1.052  10.200   0.532
50243SOL    HW152503   0.977  10.145   0.555
50243SOL    HW252504   1.036  10.227   0.442
50244SOL     OW52505   4.875  11.483   3.896
50244SOL    HW152506   4.798  11.427   3.907
50244SOL    HW252507   4.857  11.559   3.951
50245SOL     OW52508  14.710  12.905   1.842
50245SOL    HW152509  14.784  12.886   1.901
50245SOL    HW252510  14.717  12.998   1.823
50246SOL     OW52511  14.833   1.058   3.308
50246SOL    HW152512  14.738   1.047   3.303
50246SOL    HW252513  14.859   1.004   3.383
50247SOL     OW52514  11.959   6.487  12.674
50247SOL    HW152515  12.001   6.524  12.597
50247SOL    HW252516  11.969   6.392  12.665
50248SOL     OW52517   8.985   6.068   4.014
50248SOL    HW152518   9.009   5.976   4.005
50248SOL    HW252519   9.030   6.098   4.092
50249SOL     OW52520   4.228   8.029  13.995
50249SOL    HW152521   4.317   7.995  13.996
50249SOL    HW252522   4.173   7.953  13.977
50250SOL     OW52523   0.902   5.146   9.495
50250SOL    HW152524   0.898   5.220   9.434
50250SOL    HW252525   0.814   5.142   9.533
50251SOL     OW52526   6.437  10.878   7.348
50251SOL    HW152527   6.365  10.816   7.341
50251SOL    HW252528   6.397  10.964   7.333
50252SOL     OW52529  10.827  11.140  10.362
50252SOL    HW152530  10.828  11.079  10.435
50252SOL    HW252531  10.766  11.101  10.299
50253SOL     OW52532   6.467   1.826   3.370
50253SOL    HW152533   6.505   1.890   3.430
50253SOL    HW252534   6.433   1.878   3.297
50254SOL     OW52535  10.413   3.342   2.737
50254SOL    HW152536  10.406   3.388   2.654
50254SOL    HW252537  10.327   3.354   2.778
50255SOL     OW52538   7.646   0.691   0.678
50255SOL    HW152539   7.651   0.748   0.755
50255SOL    HW252540   7.701   0.616   0.702
50256SOL     OW52541   8.647   9.927   7.320
50256SOL    HW152542   8.552   9.915   7.314
50256SOL    HW252543   8.684   9.844   7.289
50257SOL     OW52544   1.637  12.780  10.750
50257SOL    HW152545   1.648  12.712  10.683
50257SOL    HW252546   1.674  12.858  10.710
50258SOL     OW52547   3.757   7.186   1.221
50258SOL    HW152548   3.739   7.139   1.302
50258SOL    HW252549   3.672   7.195   1.179
50259SOL     OW52550  11.775  12.978  13.755
50259SOL    HW152551  11.775  13.055  13.698
50259SOL    HW252552  11.747  13.011  13.840
50260SOL     OW52553   4.080   4.034   0.063
50260SOL    HW152554   4.125   4.004  14.866
50260SOL    HW252555   4.127   4.114   0.089
50261SOL     OW52556   7.235   0.056  12.182
50261SOL    HW152557   7.206   0.109  12.107
50261SOL    HW252558   7.331   0.060  12.177
50262SOL     OW52559   5.069   0.201  12.332
50262SOL    HW152560   5.025   0.221  12.415
50262SOL    HW252561   5.082   0.106  12.333
50263SOL     OW52562   4.979   0.721   9.620
50263SOL    HW152563   4.926   0.787   9.665
50263SOL    HW252564   5.051   0.703   9.681
50264SOL     OW52565  11.180   6.697  11.944
50264SOL    HW152566  11.243   6.647  11.891
50264SOL    HW252567  11.227   6.777  11.967
50265SOL     OW52568  14.259   1.039   0.103
50265SOL    HW152569  14.327   0.975   0.079
50265SOL    HW252570  14.297   1.088   0.176
50266SOL     OW52571   7.680  12.999   6.853
50266SOL    HW152572   7.588  13.024   6.853
50266SOL    HW252573   7.727  13.081   6.835
50267SOL     OW52574   8.549  13.709   0.754
50267SOL    HW152575   8.539  13.631   0.807
50267SOL    HW252576   8.641  13.734   0.765
50268SOL     OW52577  11.197   7.783   7.513
50268SOL    HW152578  11.280   7.798   7.467
50268SOL    HW252579  11.155   7.869   7.513
50269SOL     OW52580  12.917   3.652   3.185
50269SOL    HW152581  13.004   3.670   3.220
50269SOL    HW252582  12.885   3.738   3.155
50270SOL     OW52583  13.468   6.391  13.237
50270SOL    HW152584  13.426   6.398  13.151
50270SOL    HW252585  13.526   6.315  13.229
50271SOL     OW52586   1.679  11.617  10.009
50271SOL    HW152587   1.728  11.541   9.977
50271SOL    HW252588   1.624  11.583  10.079
50272SOL     OW52589   7.401  11.968  10.988
50272SOL    HW152590   7.316  11.989  11.026
50272SOL    HW252591   7.381  11.934  10.901
50273SOL     OW52592  13.523   4.099  11.352
50273SOL    HW152593  13.536   4.183  11.309
50273SOL    HW252594  13.611   4.061  11.360
50274SOL     OW52595   3.528   9.282   2.769
50274SOL    HW152596   3.495   9.230   2.842
50274SOL    HW252597   3.518   9.373   2.797
50275SOL     OW52598   0.897  11.267   8.965
50275SOL    HW152599   0.992  11.279   8.969
50275SOL    HW252600   0.881  11.228   8.879
50276SOL     OW52601   4.032   7.229  13.574
50276SOL    HW152602   3.959   7.231  13.513
50276SOL    HW252603   3.995   7.259  13.657
50277SOL     OW52604   4.678  13.598   1.909
50277SOL    HW152605   4.622  13.527   1.878
50277SOL    HW252606   4.763  13.581   1.869
50278SOL     OW52607   2.915   9.390   4.593
50278SOL    HW152608   2.904   9.399   4.498
50278SOL    HW252609   2.870   9.309   4.615
50279SOL     OW52610   3.408   0.978   3.693
50279SOL    HW152611   3.420   0.884   3.706
50279SOL    HW252612   3.452   0.996   3.610
50280SOL     OW52613   0.697  11.286   7.293
50280SOL    HW152614   0.660  11.369   7.323
50280SOL    HW252615   0.782  11.281   7.337
50281SOL     OW52616  10.601  14.586  11.946
50281SOL    HW152617  10.587  14.663  11.891
50281SOL    HW252618  10.651  14.526  11.890
50282SOL     OW52619  13.100   8.555   1.454
50282SOL    HW152620  13.170   8.573   1.392
50282SOL    HW252621  13.115   8.616   1.526
50283SOL     OW52622   6.429  13.936   3.891
50283SOL    HW152623   6.396  13.898   3.809
50283SOL    HW252624   6.512  13.977   3.867
50284SOL     OW52625  10.771   2.143  10.004
50284SOL    HW152626  10.800   2.235  10.004
50284SOL    HW252627  10.725   2.133   9.921
50285SOL     OW52628  14.853   5.504   9.669
50285SOL    HW152629   0.030   5.570   9.704
50285SOL    HW252630  14.797   5.479   9.742
50286SOL     OW52631   8.535   4.463   1.224
50286SOL    HW152632   8.599   4.526   1.256
50286SOL    HW252633   8.550   4.459   1.129
50287SOL     OW52634   7.614   8.479   2.993
50287SOL    HW152635   7.661   8.559   2.970
50287SOL    HW252636   7.648   8.413   2.933
50288SOL     OW52637   8.785  11.249   9.631
50288SOL    HW152638   8.720  11.180   9.638
50288SOL    HW252639   8.855  11.210   9.578
50289SOL     OW52640   9.474   4.860  10.375
50289SOL    HW152641   9.511   4.875  10.462
50289SOL    HW252642   9.548   4.833  10.321
50290SOL     OW52643   1.434  10.228   8.389
50290SOL    HW152644   1.339  10.236   8.397
50290SOL    HW252645   1.456  10.147   8.436
50291SOL     OW52646  11.266   8.923   4.296
50291SOL    HW152647  11.189   8.931   4.239
50291SOL    HW252648  11.323   8.861   4.251
50292SOL     OW52649  14.327  10.805   5.475
50292SOL    HW152650  14.254  10.829   5.532
50292SOL    HW252651  14.405  10.841   5.518
50293SOL     OW52652  14.865  11.415   7.901
50293SOL    HW152653   0.041  11.475   7.949
50293SOL    HW252654   0.014  11.328   7.927
50294SOL     OW52655   9.102  13.646   8.843
50294SOL    HW152656   9.084  13.722   8.898
50294SOL    HW252657   9.017  13.624   8.804
50295SOL     OW52658   2.154   7.897  14.653
50295SOL    HW152659   2.120   7.862  14.571
50295SOL    HW252660   2.093   7.967  14.676
50296SOL     OW52661   2.551   7.532  13.587
50296SOL    HW152662   2.596   7.492  13.662
50296SOL    HW252663   2.460   7.544  13.618
50297SOL     OW52664   4.601   4.976   6.188
50297SOL    HW152665   4.648   4.894   6.171
50297SOL    HW252666   4.509   4.952   6.182
50298SOL     OW52667  13.148   1.872  13.819
50298SOL    HW152668  13.176   1.839  13.734
50298SOL    HW252669  13.053   1.857  13.821
50299SOL     OW52670  11.698   3.357   3.026
50299SOL    HW152671  11.611   3.320   3.016
50299SOL    HW252672  11.726   3.379   2.937
50300SOL     OW52673   0.570   0.295   0.874
50300SOL    HW152674   0.645   0.352   0.855
50300SOL    HW252675   0.596   0.209   0.841
50301SOL     OW52676   5.897   3.047   6.335
50301SOL    HW152677   5.874   2.954   6.335
50301SOL    HW252678   5.857   3.083   6.256
50302SOL     OW52679   6.623   2.038   0.560
50302SOL    HW152680   6.685   1.988   0.612
50302SOL    HW252681   6.676   2.104   0.515
50303SOL     OW52682  11.705   4.379   6.994
50303SOL    HW152683  11.782   4.422   6.956
50303SOL    HW252684  11.639   4.449   6.999
50304SOL     OW52685   5.115  10.154   2.791
50304SOL    HW152686   5.210  10.141   2.797
50304SOL    HW252687   5.106  10.227   2.730
50305SOL     OW52688  11.811   0.018   7.071
50305SOL    HW152689  11.822  14.876   6.979
50305SOL    HW252690  11.723   0.056   7.075
50306SOL     OW52691  12.346   5.066  11.068
50306SOL    HW152692  12.353   4.989  11.012
50306SOL    HW252693  12.294   5.128  11.017
50307SOL     OW52694   9.305   2.932  13.297
50307SOL    HW152695   9.349   2.953  13.379
50307SOL    HW252696   9.216   2.908  13.322
50308SOL     OW52697  11.150  12.695  14.208
50308SOL    HW152698  11.144  12.646  14.125
50308SOL    HW252699  11.158  12.628  14.275
50309SOL     OW52700   3.120   6.081   4.946
50309SOL    HW152701   3.126   6.092   5.041
50309SOL    HW252702   3.098   6.168   4.913
50310SOL     OW52703  11.090  13.742   7.560
50310SOL    HW152704  11.176  13.716   7.526
50310SOL    HW252705  11.078  13.832   7.531
50311SOL     OW52706  14.133   1.919   5.978
50311SOL    HW152707  14.180   1.976   6.039
50311SOL    HW252708  14.194   1.848   5.960
50312SOL     OW52709   1.014  11.726  12.760
50312SOL    HW152710   1.049  11.637  12.756
50312SOL    HW252711   1.062  11.768  12.832
50313SOL     OW52712   6.054   2.512   3.226
50313SOL    HW152713   6.010   2.597   3.220
50313SOL    HW252714   6.137   2.531   3.270
50314SOL     OW52715  12.664   3.688   6.835
50314SOL    HW152716  12.743   3.722   6.878
50314SOL    HW252717  12.642   3.610   6.886
50315SOL     OW52718  12.298   0.154   7.167
50315SOL    HW152719  12.339   0.229   7.124
50315SOL    HW252720  12.361   0.128   7.234
50316SOL     OW52721   0.678   5.365   6.893
50316SOL    HW152722   0.627   5.301   6.942
50316SOL    HW252723   0.649   5.355   6.803
50317SOL     OW52724   0.255   6.549   3.260
50317SOL    HW152725   0.302   6.632   3.270
50317SOL    HW252726   0.240   6.541   3.166
50318SOL     OW52727   7.675  12.220  12.162
50318SOL    HW152728   7.614  12.236  12.090
50318SOL    HW252729   7.746  12.283  12.148
50319SOL     OW52730   8.898   0.121  14.047
50319SOL    HW152731   8.818   0.122  13.995
50319SOL    HW252732   8.918   0.028  14.057
50320SOL     OW52733   8.436   3.993  12.042
50320SOL    HW152734   8.369   4.046  12.085
50320SOL    HW252735   8.497   3.969  12.112
50321SOL     OW52736  10.363   1.400   2.191
50321SOL    HW152737  10.386   1.463   2.122
50321SOL    HW252738  10.397   1.439   2.271
50322SOL     OW52739  12.730   1.190   7.377
50322SOL    HW152740  12.795   1.256   7.401
50322SOL    HW252741  12.760   1.155   7.293
50323SOL     OW52742   1.397  11.011   7.435
50323SOL    HW152743   1.346  11.025   7.355
50323SOL    HW252744   1.347  10.946   7.483
50324SOL     OW52745  10.526  10.997   8.558
50324SOL    HW152746  10.506  10.905   8.539
50324SOL    HW252747  10.443  11.043   8.543
50325SOL     OW52748   1.767  13.429   4.016
50325SOL    HW152749   1.715  13.393   4.088
50325SOL    HW252750   1.704  13.440   3.945
50326SOL     OW52751  14.222  14.127   5.228
50326SOL    HW152752  14.259  14.040   5.239
50326SOL    HW252753  14.129  14.112   5.213
50327SOL     OW52754   3.155  11.055   9.654
50327SOL    HW152755   3.103  11.059   9.574
50327SOL    HW252756   3.093  11.027   9.722
50328SOL     OW52757   4.616  11.392  11.550
50328SOL    HW152758   4.587  11.438  11.629
50328SOL    HW252759   4.537  11.351  11.516
50329SOL     OW52760   9.808  10.157  10.970
50329SOL    HW152761   9.834  10.072  10.936
50329SOL    HW252762   9.838  10.156  11.061
50330SOL     OW52763   1.053  13.065   0.773
50330SOL    HW152764   1.123  13.057   0.838
50330SOL    HW252765   1.075  13.144   0.723
50331SOL     OW52766   1.782   2.550  14.798
50331SOL    HW152767   1.758   2.583   0.003
50331SOL    HW252768   1.875   2.528  14.805
50332SOL     OW52769   5.369   6.361   8.596
50332SOL    HW152770   5.305   6.415   8.550
50332SOL    HW252771   5.395   6.413   8.672
50333SOL     OW52772   4.420   9.973   0.191
50333SOL    HW152773   4.367   9.900   0.159
50333SOL    HW252774   4.373  10.051   0.162
50334SOL     OW52775   6.268  11.265   2.365
50334SOL    HW152776   6.213  11.190   2.388
50334SOL    HW252777   6.223  11.340   2.406
50335SOL     OW52778   6.593   7.645   1.134
50335SOL    HW152779   6.666   7.664   1.193
50335SOL    HW252780   6.516   7.641   1.191
50336SOL     OW52781  12.237   1.506   6.032
50336SOL    HW152782  12.318   1.476   5.993
50336SOL    HW252783  12.264   1.562   6.105
50337SOL     OW52784  10.372   1.182   1.400
50337SOL    HW152785  10.348   1.211   1.488
50337SOL    HW252786  10.468   1.189   1.398
50338SOL     OW52787  12.619   6.350   8.546
50338SOL    HW152788  12.535   6.329   8.505
50338SOL    HW252789  12.599   6.424   8.604
50339SOL     OW52790   7.698   7.846   2.001
50339SOL    HW152791   7.650   7.924   2.029
50339SOL    HW252792   7.632   7.791   1.959
50340SOL     OW52793  12.537  12.865   7.537
50340SOL    HW152794  12.445  12.856   7.564
50340SOL    HW252795  12.555  12.786   7.486
50341SOL     OW52796   4.316   2.162   3.888
50341SOL    HW152797   4.344   2.196   3.973
50341SOL    HW252798   4.381   2.094   3.867
50342SOL     OW52799   6.863   7.975   2.037
50342SOL    HW152800   6.881   8.036   1.966
50342SOL    HW252801   6.947   7.935   2.057
50343SOL     OW52802   8.902   7.457   5.209
50343SOL    HW152803   8.976   7.513   5.230
50343SOL    HW252804   8.925   7.372   5.246
50344SOL     OW52805   8.763  11.522   3.329
50344SOL    HW152806   8.795  11.605   3.364
50344SOL    HW252807   8.667  11.530   3.335
50345SOL     OW52808   6.805   8.663   3.637
50345SOL    HW152809   6.751   8.706   3.703
50345SOL    HW252810   6.789   8.713   3.557
50346SOL     OW52811   4.289   0.506  14.027
50346SOL    HW152812   4.269   0.454  13.948
50346SOL    HW252813   4.207   0.551  14.047
50347SOL     OW52814  13.993   8.243   6.190
50347SOL    HW152815  13.953   8.202   6.267
50347SOL    HW252816  14.000   8.172   6.126
50348SOL     OW52817  10.710   1.836  14.315
50348SOL    HW152818  10.635   1.868  14.364
50348SOL    HW252819  10.756   1.914  14.285
50349SOL     OW52820   5.037   6.625   2.992
50349SOL    HW152821   4.974   6.676   3.042
50349SOL    HW252822   5.122   6.660   3.017
50350SOL     OW52823  12.807   1.927  14.201
50350SOL    HW152824  12.851   1.991  14.146
50350SOL    HW252825  12.871   1.857  14.213
50351SOL     OW52826   2.737   0.267   1.876
50351SOL    HW152827   2.648   0.255   1.843
50351SOL    HW252828   2.733   0.350   1.923
50352SOL     OW52829  13.553   9.400   2.304
50352SOL    HW152830  13.604   9.366   2.231
50352SOL    HW252831  13.487   9.456   2.263
50353SOL     OW52832  14.485   3.174   7.150
50353SOL    HW152833  14.463   3.248   7.206
50353SOL    HW252834  14.526   3.214   7.072
50354SOL     OW52835   6.284   0.164   9.629
50354SOL    HW152836   6.263   0.074   9.651
50354SOL    HW252837   6.230   0.217   9.688
50355SOL     OW52838  10.169   9.724   5.397
50355SOL    HW152839  10.104   9.670   5.444
50355SOL    HW252840  10.189   9.795   5.458
50356SOL     OW52841   2.922   9.680  10.687
50356SOL    HW152842   2.828   9.660  10.687
50356SOL    HW252843   2.932   9.741  10.760
50357SOL     OW52844  10.212   7.992   4.797
50357SOL    HW152845  10.138   7.938   4.769
50357SOL    HW252846  10.278   7.979   4.730
50358SOL     OW52847   3.150   5.492   2.613
50358SOL    HW152848   3.159   5.454   2.526
50358SOL    HW252849   3.219   5.450   2.665
50359SOL     OW52850   0.470   9.414   4.982
50359SOL    HW152851   0.541   9.352   5.001
50359SOL    HW252852   0.515   9.491   4.947
50360SOL     OW52853   6.631   9.270  14.708
50360SOL    HW152854   6.619   9.305  14.620
50360SOL    HW252855   6.599   9.180  14.703
50361SOL     OW52856   0.425  12.001   0.826
50361SOL    HW152857   0.499  12.000   0.886
50361SOL    HW252858   0.441  12.077   0.770
50362SOL     OW52859   7.507   5.500  13.134
50362SOL    HW152860   7.571   5.564  13.103
50362SOL    HW252861   7.494   5.441  13.059
50363SOL     OW52862   8.794  13.089   2.380
50363SOL    HW152863   8.884  13.085   2.413
50363SOL    HW252864   8.776  13.183   2.370
50364SOL     OW52865  14.774   9.611   9.858
50364SOL    HW152866  14.772   9.517   9.875
50364SOL    HW252867  14.745   9.651   9.939
50365SOL     OW52868   6.158   2.581  13.590
50365SOL    HW152869   6.100   2.619  13.524
50365SOL    HW252870   6.159   2.487  13.570
50366SOL     OW52871  13.018   6.272   6.418
50366SOL    HW152872  13.075   6.316   6.355
50366SOL    HW252873  12.938   6.324   6.417
50367SOL     OW52874   7.549   5.262   5.251
50367SOL    HW152875   7.642   5.281   5.241
50367SOL    HW252876   7.547   5.181   5.302
50368SOL     OW52877  10.630   5.037   0.970
50368SOL    HW152878  10.611   5.130   0.983
50368SOL    HW252879  10.556   5.005   0.919
50369SOL     OW52880  11.944   1.749   4.999
50369SOL    HW152881  11.948   1.761   5.094
50369SOL    HW252882  11.979   1.661   4.985
50370SOL     OW52883   0.819   8.411  13.481
50370SOL    HW152884   0.791   8.487  13.431
50370SOL    HW252885   0.887   8.444  13.540
50371SOL     OW52886   3.449   6.068  11.595
50371SOL    HW152887   3.461   6.158  11.565
50371SOL    HW252888   3.535   6.042  11.629
50372SOL     OW52889  14.792   7.497  12.766
50372SOL    HW152890  14.812   7.456  12.850
50372SOL    HW252891  14.812   7.430  12.701
50373SOL     OW52892   1.401  10.113   2.903
50373SOL    HW152893   1.461  10.080   2.970
50373SOL    HW252894   1.384  10.203   2.928
50374SOL     OW52895   0.625   7.529   8.881
50374SOL    HW152896   0.690   7.489   8.939
50374SOL    HW252897   0.611   7.617   8.916
50375SOL     OW52898   5.879  10.671   0.422
50375SOL    HW152899   5.895  10.699   0.513
50375SOL    HW252900   5.788  10.696   0.405
50376SOL     OW52901  12.992  11.566   4.072
50376SOL    HW152902  13.014  11.510   3.997
50376SOL    HW252903  13.068  11.561   4.129
50377SOL     OW52904  10.631   0.658   7.434
50377SOL    HW152905  10.664   0.569   7.427
50377SOL    HW252906  10.585   0.674   7.352
50378SOL     OW52907   0.587   5.640  11.102
50378SOL    HW152908   0.601   5.566  11.161
50378SOL    HW252909   0.605   5.605  11.015
50379SOL     OW52910   2.450   3.224   0.144
50379SOL    HW152911   2.544   3.238   0.153
50379SOL    HW252912   2.432   3.146   0.197
50380SOL     OW52913   3.859   0.893  12.994
50380SOL    HW152914   3.877   0.977  12.952
50380SOL    HW252915   3.841   0.833  12.921
50381SOL     OW52916  12.155  10.310   5.638
50381SOL    HW152917  12.067  10.347   5.627
50381SOL    HW252918  12.173  10.266   5.555
50382SOL     OW52919  14.185   0.194   4.418
50382SOL    HW152920  14.225   0.231   4.497
50382SOL    HW252921  14.128   0.264   4.386
50383SOL     OW52922  14.699   6.551  10.544
50383SOL    HW152923  14.727   6.498  10.469
50383SOL    HW252924  14.688   6.639  10.509
50384SOL     OW52925   7.776   6.927   5.966
50384SOL    HW152926   7.766   6.832   5.974
50384SOL    HW252927   7.852   6.948   6.019
50385SOL     OW52928  13.296  14.400   9.394
50385SOL    HW152929  13.246  14.319   9.408
50385SOL    HW252930  13.327  14.424   9.482
50386SOL     OW52931   9.404  14.179   1.076
50386SOL    HW152932   9.385  14.272   1.091
50386SOL    HW252933   9.497  14.177   1.055
50387SOL     OW52934  12.741   0.173  12.978
50387SOL    HW152935  12.783   0.154  13.062
50387SOL    HW252936  12.745   0.090  12.931
50388SOL     OW52937   7.378  10.526   5.814
50388SOL    HW152938   7.378  10.444   5.765
50388SOL    HW252939   7.351  10.500   5.902
50389SOL     OW52940  13.897   9.953   3.047
50389SOL    HW152941  13.895  10.049   3.057
50389SOL    HW252942  13.813   9.924   3.084
50390SOL     OW52943   1.984   2.873   5.358
50390SOL    HW152944   2.067   2.851   5.315
50390SOL    HW252945   1.948   2.788   5.385
50391SOL     OW52946  11.892   3.371   1.973
50391SOL    HW152947  11.899   3.453   2.022
50391SOL    HW252948  11.800   3.368   1.945
50392SOL     OW52949   7.344  13.581   6.803
50392SOL    HW152950   7.382  13.651   6.750
50392SOL    HW252951   7.410  13.561   6.869
50393SOL     OW52952   0.561   2.904  12.837
50393SOL    HW152953   0.520   2.824  12.869
50393SOL    HW252954   0.577   2.887  12.744
50394SOL     OW52955  13.715   9.538   9.220
50394SOL    HW152956  13.806   9.520   9.245
50394SOL    HW252957  13.703   9.631   9.240
50395SOL     OW52958  10.540   3.245  10.954
50395SOL    HW152959  10.542   3.200  11.039
50395SOL    HW252960  10.509   3.179  10.893
50396SOL     OW52961  13.433   2.422  11.187
50396SOL    HW152962  13.520   2.389  11.208
50396SOL    HW252963  13.388   2.425  11.272
50397SOL     OW52964  11.446   4.557   0.643
50397SOL    HW152965  11.426   4.463   0.636
50397SOL    HW252966  11.465   4.584   0.553
50398SOL     OW52967   0.073   3.404   3.399
50398SOL    HW152968   0.137   3.465   3.362
50398SOL    HW252969   0.119   3.320   3.404
50399SOL     OW52970   4.133   6.718  13.814
50399SOL    HW152971   4.102   6.633  13.783
50399SOL    HW252972   4.203   6.742  13.753
50400SOL     OW52973   0.380   1.058  10.779
50400SOL    HW152974   0.335   1.134  10.741
50400SOL    HW252975   0.397   1.084  10.870
50401SOL     OW52976   9.015  12.029   0.810
50401SOL    HW152977   8.942  12.070   0.764
50401SOL    HW252978   9.076  12.101   0.828
50402SOL     OW52979   3.776   8.996   1.701
50402SOL    HW152980   3.862   8.953   1.701
50402SOL    HW252981   3.734   8.965   1.781
50403SOL     OW52982   1.265  14.728   6.672
50403SOL    HW152983   1.314  14.737   6.590
50403SOL    HW252984   1.264  14.634   6.689
50404SOL     OW52985   0.899   7.173  12.606
50404SOL    HW152986   0.861   7.116  12.539
50404SOL    HW252987   0.956   7.233  12.558
50405SOL     OW52988  13.914  14.360  14.302
50405SOL    HW152989  13.823  14.358  14.332
50405SOL    HW252990  13.927  14.275  14.259
50406SOL     OW52991  13.143   0.290   6.699
50406SOL    HW152992  13.202   0.364   6.711
50406SOL    HW252993  13.130   0.285   6.604
50407SOL     OW52994   7.825  12.114   2.135
50407SOL    HW152995   7.829  12.186   2.198
50407SOL    HW252996   7.775  12.149   2.061
50408SOL     OW52997   7.850   0.107   7.527
50408SOL    HW152998   7.797   0.104   7.448
50408SOL    HW252999   7.933   0.066   7.502
50409SOL     OW53000   3.789   4.796   1.227
50409SOL    HW153001   3.829   4.864   1.280
50409SOL    HW253002   3.762   4.841   1.147
50410SOL     OW53003   8.593   5.142  13.493
50410SOL    HW153004   8.542   5.068  13.526
50410SOL    HW253005   8.684   5.115  13.505
50411SOL     OW53006   5.838   1.291  10.551
50411SOL    HW153007   5.813   1.344  10.476
50411SOL    HW253008   5.804   1.339  10.627
50412SOL     OW53009   3.449   8.720   2.806
50412SOL    HW153010   3.494   8.804   2.812
50412SOL    HW253011   3.364   8.740   2.767
50413SOL     OW53012   1.486   6.886   9.334
50413SOL    HW153013   1.494   6.808   9.279
50413SOL    HW253014   1.419   6.864   9.399
50414SOL     OW53015   5.280   5.260  12.154
50414SOL    HW153016   5.305   5.178  12.197
50414SOL    HW253017   5.273   5.323  12.225
50415SOL     OW53018   7.495   9.011   3.884
50415SOL    HW153019   7.525   8.955   3.813
50415SOL    HW253020   7.399   9.006   3.880
50416SOL     OW53021  12.812  10.417   3.108
50416SOL    HW153022  12.905  10.431   3.090
50416SOL    HW253023  12.801  10.445   3.199
50417SOL     OW53024   1.558  13.480   5.431
50417SOL    HW153025   1.524  13.391   5.421
50417SOL    HW253026   1.607  13.497   5.351
50418SOL     OW53027  12.073   1.464   4.226
50418SOL    HW153028  12.054   1.399   4.294
50418SOL    HW253029  12.037   1.546   4.259
50419SOL     OW53030   6.549  10.254  12.369
50419SOL    HW153031   6.527  10.310  12.444
50419SOL    HW253032   6.467  10.210  12.347
50420SOL     OW53033   5.795  14.582   3.719
50420SOL    HW153034   5.732  14.558   3.651
50420SOL    HW253035   5.764  14.666   3.752
50421SOL     OW53036   5.745   7.637   1.495
50421SOL    HW153037   5.664   7.650   1.544
50421SOL    HW253038   5.813   7.674   1.551
50422SOL     OW53039   0.890  13.406   2.416
50422SOL    HW153040   0.932  13.417   2.501
50422SOL    HW253041   0.866  13.314   2.413
50423SOL     OW53042   7.261  12.346   4.921
50423SOL    HW153043   7.280  12.370   4.830
50423SOL    HW253044   7.318  12.270   4.937
50424SOL     OW53045   9.759   2.081  10.752
50424SOL    HW153046   9.809   2.050  10.677
50424SOL    HW253047   9.790   2.171  10.766
50425SOL     OW53048  12.384   9.017   6.026
50425SOL    HW153049  12.434   9.095   6.046
50425SOL    HW253050  12.445   8.960   5.979
50426SOL     OW53051  14.106  10.923   5.597
50426SOL    HW153052  14.128  11.015   5.584
50426SOL    HW253053  14.148  10.900   5.680
50427SOL     OW53054   4.573  13.919   3.464
50427SOL    HW153055   4.560  13.825   3.459
50427SOL    HW253056   4.666  13.932   3.443
50428SOL     OW53057   0.143   8.527   4.506
50428SOL    HW153058   0.189   8.601   4.467
50428SOL    HW253059   0.056   8.528   4.466
50429SOL     OW53060  10.636   8.722   4.325
50429SOL    HW153061  10.705   8.777   4.362
50429SOL    HW253062  10.612   8.663   4.397
50430SOL     OW53063  11.245   1.258  10.032
50430SOL    HW153064  11.333   1.273  10.068
50430SOL    HW253065  11.223   1.341   9.989
50431SOL     OW53066   8.248   8.518  10.661
50431SOL    HW153067   8.211   8.542  10.747
50431SOL    HW253068   8.214   8.585  10.602
50432SOL     OW53069   5.226  14.456   1.840
50432SOL    HW153070   5.277  14.476   1.918
50432SOL    HW253071   5.264  14.375   1.805
50433SOL     OW53072   0.758   4.988   7.926
50433SOL    HW153073   0.801   5.051   7.868
50433SOL    HW253074   0.716   4.926   7.867
50434SOL     OW53075   5.635   6.433   6.900
50434SOL    HW153076   5.683   6.401   6.976
50434SOL    HW253077   5.544   6.438   6.930
50435SOL     OW53078  10.364   2.646   9.843
50435SOL    HW153079  10.430   2.581   9.822
50435SOL    HW253080  10.282   2.608   9.811
50436SOL     OW53081  12.640  12.529   5.016
50436SOL    HW153082  12.548  12.510   5.035
50436SOL    HW253083  12.689  12.468   5.071
50437SOL     OW53084  12.747   4.862  10.044
50437SOL    HW153085  12.660   4.870  10.004
50437SOL    HW253086  12.730   4.826  10.131
50438SOL     OW53087   2.107   3.546  12.189
50438SOL    HW153088   2.188   3.501  12.213
50438SOL    HW253089   2.089   3.604  12.263
50439SOL     OW53090   4.662  11.740   7.779
50439SOL    HW153091   4.647  11.657   7.735
50439SOL    HW253092   4.585  11.753   7.834
50440SOL     OW53093   7.358   8.629   1.706
50440SOL    HW153094   7.303   8.552   1.693
50440SOL    HW253095   7.427   8.621   1.641
50441SOL     OW53096   8.513  13.806   7.301
50441SOL    HW153097   8.551  13.790   7.215
50441SOL    HW253098   8.577  13.860   7.346
50442SOL     OW53099  11.679   2.660   4.609
50442SOL    HW153100  11.751   2.608   4.572
50442SOL    HW253101  11.638   2.601   4.673
50443SOL     OW53102  11.076   0.380   4.134
50443SOL    HW153103  11.003   0.323   4.108
50443SOL    HW253104  11.097   0.352   4.223
50444SOL     OW53105   7.797   8.299   9.599
50444SOL    HW153106   7.881   8.334   9.630
50444SOL    HW253107   7.819   8.213   9.562
50445SOL     OW53108   8.863  11.206  13.531
50445SOL    HW153109   8.821  11.130  13.572
50445SOL    HW253110   8.948  11.213  13.575
50446SOL     OW53111   1.833   1.985   8.245
50446SOL    HW153112   1.808   1.903   8.287
50446SOL    HW253113   1.918   1.967   8.205
50447SOL     OW53114   1.182   1.971  14.578
50447SOL    HW153115   1.148   2.031  14.644
50447SOL    HW253116   1.125   1.894  14.584
50448SOL     OW53117   7.245  12.975   9.641
50448SOL    HW153118   7.178  13.041   9.625
50448SOL    HW253119   7.225  12.941   9.729
50449SOL     OW53120  14.277  14.275   7.332
50449SOL    HW153121  14.281  14.340   7.403
50449SOL    HW253122  14.368  14.265   7.304
50450SOL     OW53123   6.085   2.472   1.343
50450SOL    HW153124   5.991   2.476   1.361
50450SOL    HW253125   6.116   2.560   1.365
50451SOL     OW53126  14.322  12.956   8.043
50451SOL    HW153127  14.271  12.902   8.104
50451SOL    HW253128  14.296  12.926   7.956
50452SOL     OW53129  10.873  14.610   7.823
50452SOL    HW153130  10.913  14.565   7.749
50452SOL    HW253131  10.854  14.540   7.886
50453SOL     OW53132   6.881   1.908   4.693
50453SOL    HW153133   6.895   2.002   4.707
50453SOL    HW253134   6.871   1.873   4.782
50454SOL     OW53135  10.787   9.998   5.928
50454SOL    HW153136  10.811  10.089   5.942
50454SOL    HW253137  10.695   9.993   5.954
50455SOL     OW53138   9.494  10.389   9.743
50455SOL    HW153139   9.509  10.449   9.817
50455SOL    HW253140   9.576  10.391   9.694
50456SOL     OW53141   4.277  10.512   2.425
50456SOL    HW153142   4.232  10.468   2.353
50456SOL    HW253143   4.208  10.534   2.488
50457SOL     OW53144   2.248   1.653   8.318
50457SOL    HW153145   2.195   1.729   8.342
50457SOL    HW253146   2.336   1.688   8.306
50458SOL     OW53147   8.251   6.164   0.543
50458SOL    HW153148   8.206   6.195   0.465
50458SOL    HW253149   8.344   6.170   0.521
50459SOL     OW53150   6.182   1.030   2.309
50459SOL    HW153151   6.242   1.049   2.237
50459SOL    HW253152   6.095   1.046   2.272
50460SOL     OW53153   8.772   9.881  13.036
50460SOL    HW153154   8.720   9.950  13.077
50460SOL    HW253155   8.722   9.856  12.958
50461SOL     OW53156  11.057   4.113   8.912
50461SOL    HW153157  11.053   4.203   8.880
50461SOL    HW253158  11.143   4.082   8.885
50462SOL     OW53159  13.778   1.932   7.349
50462SOL    HW153160  13.792   1.973   7.434
50462SOL    HW253161  13.817   1.993   7.286
50463SOL     OW53162   1.178   7.922   0.592
50463SOL    HW153163   1.119   7.933   0.517
50463SOL    HW253164   1.165   8.001   0.644
50464SOL     OW53165  12.284   1.978   1.861
50464SOL    HW153166  12.281   1.899   1.915
50464SOL    HW253167  12.192   1.996   1.841
50465SOL     OW53168   7.296   5.273   4.910
50465SOL    HW153169   7.316   5.366   4.918
50465SOL    HW253170   7.204   5.266   4.938
50466SOL     OW53171   7.754   5.152  10.848
50466SOL    HW153172   7.847   5.174  10.853
50466SOL    HW253173   7.752   5.064  10.811
50467SOL     OW53174   4.547   8.720   3.350
50467SOL    HW153175   4.607   8.659   3.308
50467SOL    HW253176   4.461   8.699   3.311
50468SOL     OW53177  12.846  11.126   0.642
50468SOL    HW153178  12.877  11.058   0.582
50468SOL    HW253179  12.824  11.078   0.722
50469SOL     OW53180  12.976   4.248   2.189
50469SOL    HW153181  12.895   4.202   2.166
50469SOL    HW253182  12.950   4.340   2.197
50470SOL     OW53183  11.977   4.299   0.644
50470SOL    HW153184  11.955   4.271   0.555
50470SOL    HW253185  11.930   4.382   0.655
50471SOL     OW53186   3.620   9.831  13.926
50471SOL    HW153187   3.632   9.926  13.920
50471SOL    HW253188   3.697   9.794  13.884
50472SOL     OW53189  14.405  12.897   9.057
50472SOL    HW153190  14.445  12.906   9.144
50472SOL    HW253191  14.449  12.964   9.004
50473SOL     OW53192  13.291  13.982   1.520
50473SOL    HW153193  13.339  14.013   1.597
50473SOL    HW253194  13.283  13.887   1.534
50474SOL     OW53195  12.299   5.189  12.719
50474SOL    HW153196  12.328   5.235  12.798
50474SOL    HW253197  12.337   5.238  12.647
50475SOL     OW53198   8.501  13.054  13.856
50475SOL    HW153199   8.564  12.988  13.828
50475SOL    HW253200   8.417  13.009  13.857
50476SOL     OW53201   3.964  14.258   4.921
50476SOL    HW153202   4.020  14.185   4.893
50476SOL    HW253203   3.913  14.222   4.993
50477SOL     OW53204   2.816  10.824   4.645
50477SOL    HW153205   2.902  10.784   4.637
50477SOL    HW253206   2.807  10.879   4.568
50478SOL     OW53207   3.914   8.265  13.608
50478SOL    HW153208   3.994   8.278  13.658
50478SOL    HW253209   3.898   8.170  13.612
50479SOL     OW53210   9.987  14.150   5.805
50479SOL    HW153211   9.900  14.117   5.829
50479SOL    HW253212  10.047  14.081   5.833
50480SOL     OW53213  10.924   2.681   2.129
50480SOL    HW153214  10.941   2.749   2.064
50480SOL    HW253215  10.944   2.599   2.084
50481SOL     OW53216  10.300  13.526   7.909
50481SOL    HW153217  10.349  13.471   7.847
50481SOL    HW253218  10.308  13.614   7.873
50482SOL     OW53219   6.252   6.492  14.213
50482SOL    HW153220   6.304   6.562  14.253
50482SOL    HW253221   6.316   6.436  14.170
50483SOL     OW53222  12.751   3.265  13.936
50483SOL    HW153223  12.686   3.333  13.949
50483SOL    HW253224  12.818   3.284  14.002
50484SOL     OW53225  13.041   1.202  14.553
50484SOL    HW153226  12.960   1.247  14.527
50484SOL    HW253227  13.074   1.252  14.627
50485SOL     OW53228  13.295   6.700   6.222
50485SOL    HW153229  13.390   6.687   6.224
50485SOL    HW253230  13.280   6.778   6.276
50486SOL     OW53231   2.878   2.571   8.177
50486SOL    HW153232   2.901   2.603   8.265
50486SOL    HW253233   2.865   2.477   8.188
50487SOL     OW53234   3.256   6.283  11.795
50487SOL    HW153235   3.304   6.302  11.715
50487SOL    HW253236   3.254   6.366  11.842
50488SOL     OW53237   3.128   8.140   1.643
50488SOL    HW153238   3.169   8.054   1.639
50488SOL    HW253239   3.058   8.131   1.706
50489SOL     OW53240   9.067   4.538   2.061
50489SOL    HW153241   9.021   4.619   2.041
50489SOL    HW253242   9.068   4.489   1.979
50490SOL     OW53243  13.760   9.337   0.815
50490SOL    HW153244  13.712   9.379   0.887
50490SOL    HW253245  13.705   9.352   0.738
50491SOL     OW53246  13.278  10.453   5.381
50491SOL    HW153247  13.184  10.459   5.369
50491SOL    HW253248  13.307  10.391   5.314
50492SOL     OW53249   0.778   5.755   3.318
50492SOL    HW153250   0.852   5.794   3.365
50492SOL    HW253251   0.818   5.698   3.253
50493SOL     OW53252   2.711   1.551  12.273
50493SOL    HW153253   2.644   1.619  12.262
50493SOL    HW253254   2.721   1.513  12.186
50494SOL     OW53255  14.532  11.230  10.668
50494SOL    HW153256  14.519  11.325  10.659
50494SOL    HW253257  14.451  11.192  10.634
50495SOL     OW53258   3.943  11.290   3.518
50495SOL    HW153259   3.918  11.323   3.432
50495SOL    HW253260   4.013  11.347   3.547
50496SOL     OW53261   3.700   8.242   4.902
50496SOL    HW153262   3.700   8.268   4.810
50496SOL    HW253263   3.785   8.201   4.916
50497SOL     OW53264   1.193   0.970   5.338
50497SOL    HW153265   1.226   1.050   5.299
50497SOL    HW253266   1.258   0.946   5.403
50498SOL     OW53267   8.349  13.922   3.356
50498SOL    HW153268   8.429  13.966   3.326
50498SOL    HW253269   8.355  13.834   3.319
50499SOL     OW53270  10.201   4.951  11.731
50499SOL    HW153271  10.215   4.977  11.822
50499SOL    HW253272  10.176   4.858  11.737
50500SOL     OW53273   2.769   8.430   5.239
50500SOL    HW153274   2.731   8.343   5.251
50500SOL    HW253275   2.735   8.481   5.312
50501SOL     OW53276  11.611  14.785  14.616
50501SOL    HW153277  11.684  14.790  14.554
50501SOL    HW253278  11.612  14.694  14.647
50502SOL     OW53279  12.049   1.923  10.139
50502SOL    HW153280  11.955   1.914  10.123
50502SOL    HW253281  12.057   1.927  10.234
50503SOL     OW53282   3.430  11.703   7.471
50503SOL    HW153283   3.343  11.713   7.432
50503SOL    HW253284   3.490  11.732   7.402
50504SOL     OW53285  10.317   0.423   8.423
50504SOL    HW153286  10.303   0.363   8.497
50504SOL    HW253287  10.252   0.492   8.435
50505SOL     OW53288   9.816  12.173   5.691
50505SOL    HW153289   9.766  12.123   5.626
50505SOL    HW253290   9.780  12.261   5.686
50506SOL     OW53291  13.464   7.681   7.969
50506SOL    HW153292  13.543   7.734   7.957
50506SOL    HW253293  13.498   7.595   7.994
50507SOL     OW53294   2.893   2.683   1.442
50507SOL    HW153295   2.962   2.743   1.416
50507SOL    HW253296   2.891   2.616   1.373
50508SOL     OW53297   7.905  12.549   4.809
50508SOL    HW153298   7.853  12.501   4.745
50508SOL    HW253299   7.931  12.484   4.874
50509SOL     OW53300  13.890   0.929   3.657
50509SOL    HW153301  13.955   0.992   3.625
50509SOL    HW253302  13.827   0.921   3.586
50510SOL     OW53303   3.298  11.971   9.796
50510SOL    HW153304   3.297  12.053   9.844
50510SOL    HW253305   3.219  11.973   9.742
50511SOL     OW53306   8.337   5.445   6.092
50511SOL    HW153307   8.354   5.506   6.163
50511SOL    HW253308   8.250   5.409   6.111
50512SOL     OW53309   1.165   0.568   2.688
50512SOL    HW153310   1.144   0.634   2.753
50512SOL    HW253311   1.103   0.582   2.617
50513SOL     OW53312   0.034   7.921   5.749
50513SOL    HW153313  14.843   7.963   5.796
50513SOL    HW253314   0.096   7.992   5.733
50514SOL     OW53315   4.712   2.560   2.415
50514SOL    HW153316   4.680   2.472   2.394
50514SOL    HW253317   4.799   2.546   2.452
50515SOL     OW53318   4.457   4.784   1.318
50515SOL    HW153319   4.378   4.765   1.369
50515SOL    HW253320   4.526   4.793   1.384
50516SOL     OW53321   7.919   0.172  10.342
50516SOL    HW153322   7.985   0.108  10.317
50516SOL    HW253323   7.846   0.157  10.282
50517SOL     OW53324   4.489  12.880   1.454
50517SOL    HW153325   4.520  12.967   1.428
50517SOL    HW253326   4.400  12.894   1.484
50518SOL     OW53327  14.020   2.792  10.473
50518SOL    HW153328  14.014   2.720  10.411
50518SOL    HW253329  14.096   2.771  10.528
50519SOL     OW53330   9.970   3.678   5.701
50519SOL    HW153331  10.057   3.654   5.670
50519SOL    HW253332   9.980   3.767   5.733
50520SOL     OW53333   0.910  10.587   9.725
50520SOL    HW153334   0.887  10.546   9.641
50520SOL    HW253335   0.910  10.514   9.788
50521SOL     OW53336   2.776   4.562   5.358
50521SOL    HW153337   2.725   4.492   5.399
50521SOL    HW253338   2.718   4.638   5.362
50522SOL     OW53339  12.646  10.461  14.851
50522SOL    HW153340  12.648  10.417  14.766
50522SOL    HW253341  12.552  10.470  14.870
50523SOL     OW53342   2.085   2.339   2.248
50523SOL    HW153343   2.008   2.385   2.282
50523SOL    HW253344   2.099   2.377   2.162
50524SOL     OW53345  10.087   2.295   2.790
50524SOL    HW153346  10.048   2.228   2.733
50524SOL    HW253347  10.013   2.345   2.823
50525SOL     OW53348   6.080   9.952  12.450
50525SOL    HW153349   5.993   9.992  12.445
50525SOL    HW253350   6.068   9.865  12.411
50526SOL     OW53351   4.360   8.699   8.938
50526SOL    HW153352   4.305   8.638   8.889
50526SOL    HW253353   4.299   8.768   8.967
50527SOL     OW53354   8.254   8.390   5.537
50527SOL    HW153355   8.202   8.324   5.491
50527SOL    HW253356   8.321   8.415   5.473
50528SOL     OW53357   8.782  11.102   7.216
50528SOL    HW153358   8.689  11.113   7.195
50528SOL    HW253359   8.784  11.030   7.278
50529SOL     OW53360   7.065  13.433  11.726
50529SOL    HW153361   7.066  13.359  11.788
50529SOL    HW253362   6.979  13.473  11.739
50530SOL     OW53363   7.840   3.915  11.324
50530SOL    HW153364   7.811   3.826  11.346
50530SOL    HW253365   7.832   3.919  11.228
50531SOL     OW53366   0.114  12.720   9.872
50531SOL    HW153367   0.066  12.793   9.910
50531SOL    HW253368   0.167  12.760   9.802
50532SOL     OW53369  13.077   3.429  10.569
50532SOL    HW153370  12.992   3.404  10.605
50532SOL    HW253371  13.118   3.346  10.543
50533SOL     OW53372  13.588   9.852   1.896
50533SOL    HW153373  13.493   9.842   1.892
50533SOL    HW253374  13.619   9.771   1.937
50534SOL     OW53375  14.246  13.579  14.604
50534SOL    HW153376  14.186  13.588  14.678
50534SOL    HW253377  14.301  13.658  14.607
50535SOL     OW53378   6.635  13.604   0.130
50535SOL    HW153379   6.624  13.517   0.090
50535SOL    HW253380   6.710  13.642   0.084
50536SOL     OW53381   8.996   9.865   3.603
50536SOL    HW153382   8.981   9.881   3.696
50536SOL    HW253383   9.091   9.861   3.595
50537SOL     OW53384   2.001  14.580   6.070
50537SOL    HW153385   2.010  14.670   6.038
50537SOL    HW253386   2.075  14.569   6.130
50538SOL     OW53387  11.845   0.923   1.470
50538SOL    HW153388  11.779   0.859   1.444
50538SOL    HW253389  11.812   1.007   1.437
50539SOL     OW53390  12.495   2.590   1.194
50539SOL    HW153391  12.434   2.625   1.129
50539SOL    HW253392  12.541   2.520   1.148
50540SOL     OW53393   9.343   1.227   1.945
50540SOL    HW153394   9.399   1.183   1.882
50540SOL    HW253395   9.254   1.210   1.916
50541SOL     OW53396   3.885  11.390   7.883
50541SOL    HW153397   3.824  11.321   7.857
50541SOL    HW253398   3.971  11.349   7.881
50542SOL     OW53399  12.252   6.019   4.635
50542SOL    HW153400  12.201   6.010   4.554
50542SOL    HW253401  12.275   5.930   4.659
50543SOL     OW53402   9.677   0.392  11.332
50543SOL    HW153403   9.636   0.473  11.300
50543SOL    HW253404   9.643   0.382  11.421
50544SOL     OW53405   4.804  12.961   2.542
50544SOL    HW153406   4.749  13.011   2.604
50544SOL    HW253407   4.810  13.017   2.465
50545SOL     OW53408   7.621   1.875   1.700
50545SOL    HW153409   7.588   1.786   1.689
50545SOL    HW253410   7.668   1.894   1.619
50546SOL     OW53411  12.093   6.406   9.601
50546SOL    HW153412  12.017   6.419   9.545
50546SOL    HW253413  12.070   6.330   9.655
50547SOL     OW53414  14.800   6.666   5.914
50547SOL    HW153415  14.853   6.722   5.858
50547SOL    HW253416  14.786   6.718   5.993
50548SOL     OW53417   5.628  13.958   2.856
50548SOL    HW153418   5.622  13.878   2.804
50548SOL    HW253419   5.550  14.008   2.832
50549SOL     OW53420   6.533   4.184   4.840
50549SOL    HW153421   6.465   4.249   4.821
50549SOL    HW253422   6.598   4.195   4.770
50550SOL     OW53423   8.517  11.500   1.961
50550SOL    HW153424   8.454  11.459   1.901
50550SOL    HW253425   8.521  11.441   2.035
50551SOL     OW53426   2.146   3.963  10.865
50551SOL    HW153427   2.194   3.885  10.838
50551SOL    HW253428   2.067   3.963  10.812
50552SOL     OW53429  14.068   9.178   9.631
50552SOL    HW153430  13.993   9.125   9.606
50552SOL    HW253431  14.057   9.193   9.725
50553SOL     OW53432   6.829   6.694   5.111
50553SOL    HW153433   6.888   6.768   5.096
50553SOL    HW253434   6.842   6.671   5.203
50554SOL     OW53435   5.017  11.826  12.291
50554SOL    HW153436   5.022  11.838  12.197
50554SOL    HW253437   4.990  11.911  12.325
50555SOL     OW53438   1.650   1.261   1.361
50555SOL    HW153439   1.709   1.282   1.434
50555SOL    HW253440   1.580   1.210   1.401
50556SOL     OW53441   7.080  13.976   5.343
50556SOL    HW153442   7.018  13.945   5.410
50556SOL    HW253443   7.025  13.993   5.266
50557SOL     OW53444   6.563   3.190   3.712
50557SOL    HW153445   6.603   3.210   3.797
50557SOL    HW253446   6.614   3.116   3.678
50558SOL     OW53447  14.531  10.135  11.233
50558SOL    HW153448  14.445  10.106  11.263
50558SOL    HW253449  14.516  10.221  11.195
50559SOL     OW53450   0.716  14.033  12.296
50559SOL    HW153451   0.702  14.030  12.201
50559SOL    HW253452   0.802  13.991  12.308
50560SOL     OW53453   5.113  13.884   7.629
50560SOL    HW153454   5.038  13.876   7.688
50560SOL    HW253455   5.115  13.801   7.581
50561SOL     OW53456   3.505  12.291   2.439
50561SOL    HW153457   3.458  12.307   2.357
50561SOL    HW253458   3.471  12.356   2.500
50562SOL     OW53459  13.842  14.603  12.727
50562SOL    HW153460  13.893  14.659  12.669
50562SOL    HW253461  13.772  14.660  12.760
50563SOL     OW53462   0.406   9.172   0.774
50563SOL    HW153463   0.429   9.090   0.731
50563SOL    HW253464   0.386   9.147   0.864
50564SOL     OW53465  10.024   8.612   4.084
50564SOL    HW153466   9.979   8.557   4.148
50564SOL    HW253467   9.970   8.607   4.005
50565SOL     OW53468   3.280   0.694  12.703
50565SOL    HW153469   3.314   0.751  12.772
50565SOL    HW253470   3.273   0.751  12.626
50566SOL     OW53471   3.364   9.507  13.055
50566SOL    HW153472   3.295   9.520  13.120
50566SOL    HW253473   3.369   9.412  13.045
50567SOL     OW53474   0.934  12.094  13.409
50567SOL    HW153475   0.985  12.025  13.368
50567SOL    HW253476   0.965  12.175  13.369
50568SOL     OW53477   1.186   6.754   7.637
50568SOL    HW153478   1.142   6.839   7.639
50568SOL    HW253479   1.124   6.695   7.595
50569SOL     OW53480  14.249  11.291   2.218
50569SOL    HW153481  14.266  11.334   2.134
50569SOL    HW253482  14.187  11.349   2.262
50570SOL     OW53483  13.956   1.564   6.777
50570SOL    HW153484  13.868   1.568   6.741
50570SOL    HW253485  14.014   1.574   6.701
50571SOL     OW53486   1.161   1.967   2.211
50571SOL    HW153487   1.115   1.927   2.285
50571SOL    HW253488   1.145   1.907   2.138
50572SOL     OW53489   9.446   1.934   6.825
50572SOL    HW153490   9.524   1.889   6.793
50572SOL    HW253491   9.411   1.876   6.892
50573SOL     OW53492  11.555  14.667   7.313
50573SOL    HW153493  11.583  14.726   7.382
50573SOL    HW253494  11.635  14.626   7.282
50574SOL     OW53495   8.612  10.249  12.864
50574SOL    HW153496   8.549  10.237  12.792
50574SOL    HW253497   8.625  10.344  12.869
50575SOL     OW53498   5.242   7.783   9.690
50575SOL    HW153499   5.186   7.706   9.697
50575SOL    HW253500   5.299   7.765   9.615
50576SOL     OW53501  12.232   9.895   0.447
50576SOL    HW153502  12.169   9.909   0.376
50576SOL    HW253503  12.210   9.809   0.482
50577SOL     OW53504   3.844  14.211   6.424
50577SOL    HW153505   3.802  14.297   6.432
50577SOL    HW253506   3.901  14.219   6.348
50578SOL     OW53507   2.766   0.006  10.389
50578SOL    HW153508   2.804   0.071  10.329
50578SOL    HW253509   2.733  14.818  10.332
50579SOL     OW53510   9.591  11.784  10.967
50579SOL    HW153511   9.672  11.744  10.936
50579SOL    HW253512   9.603  11.793  11.061
50580SOL     OW53513   7.166   8.529  14.132
50580SOL    HW153514   7.156   8.452  14.075
50580SOL    HW253515   7.133   8.602  14.081
50581SOL     OW53516   8.354  12.021  10.082
50581SOL    HW153517   8.432  12.043  10.031
50581SOL    HW253518   8.336  11.930  10.059
50582SOL     OW53519  11.458   3.418   1.041
50582SOL    HW153520  11.443   3.367   0.961
50582SOL    HW253521  11.428   3.360   1.112
50583SOL     OW53522   3.177   7.514   3.522
50583SOL    HW153523   3.099   7.464   3.547
50583SOL    HW253524   3.145   7.580   3.460
50584SOL     OW53525   4.813   5.486  12.921
50584SOL    HW153526   4.783   5.495  12.831
50584SOL    HW253527   4.768   5.408  12.954
50585SOL     OW53528   6.332   4.802  12.601
50585SOL    HW153529   6.318   4.887  12.559
50585SOL    HW253530   6.298   4.814  12.690
50586SOL     OW53531   0.533   7.709  14.110
50586SOL    HW153532   0.612   7.732  14.159
50586SOL    HW253533   0.548   7.745  14.022
50587SOL     OW53534  10.270   6.171  11.437
50587SOL    HW153535  10.343   6.208  11.386
50587SOL    HW253536  10.195   6.225  11.414
50588SOL     OW53537   7.642   5.996   8.049
50588SOL    HW153538   7.550   5.988   8.072
50588SOL    HW253539   7.652   6.087   8.021
50589SOL     OW53540   6.925   5.800   3.226
50589SOL    HW153541   6.859   5.817   3.159
50589SOL    HW253542   6.881   5.744   3.290
50590SOL     OW53543   5.128   7.355   0.399
50590SOL    HW153544   5.200   7.416   0.412
50590SOL    HW253545   5.136   7.291   0.470
50591SOL     OW53546   6.393   2.774  12.982
50591SOL    HW153547   6.378   2.748  13.073
50591SOL    HW253548   6.477   2.735  12.959
50592SOL     OW53549   0.276  14.494  11.010
50592SOL    HW153550   0.317  14.571  11.050
50592SOL    HW253551   0.349  14.444  10.974
50593SOL     OW53552  12.593   2.283   8.684
50593SOL    HW153553  12.548   2.278   8.599
50593SOL    HW253554  12.641   2.200   8.689
50594SOL     OW53555  12.441   1.408   1.301
50594SOL    HW153556  12.452   1.324   1.346
50594SOL    HW253557  12.354   1.403   1.262
50595SOL     OW53558  11.400  14.177   8.517
50595SOL    HW153559  11.469  14.150   8.456
50595SOL    HW253560  11.445  14.190   8.600
50596SOL     OW53561  12.874   2.808  10.781
50596SOL    HW153562  12.820   2.756  10.721
50596SOL    HW253563  12.814   2.874  10.816
50597SOL     OW53564   0.230  12.876  13.119
50597SOL    HW153565   0.257  12.832  13.199
50597SOL    HW253566   0.249  12.969  13.135
50598SOL     OW53567   7.108   4.016   7.143
50598SOL    HW153568   7.064   3.941   7.103
50598SOL    HW253569   7.056   4.091   7.115
50599SOL     OW53570   0.868   0.321   4.814
50599SOL    HW153571   0.924   0.277   4.877
50599SOL    HW253572   0.885   0.414   4.828
50600SOL     OW53573   2.861   8.526  10.396
50600SOL    HW153574   2.878   8.533  10.490
50600SOL    HW253575   2.768   8.504  10.391
50601SOL     OW53576  13.508   4.698   6.315
50601SOL    HW153577  13.507   4.611   6.274
50601SOL    HW253578  13.468   4.685   6.401
50602SOL     OW53579  10.206  14.393   4.628
50602SOL    HW153580  10.170  14.467   4.579
50602SOL    HW253581  10.132  14.333   4.638
50603SOL     OW53582   3.185  10.708   7.091
50603SOL    HW153583   3.210  10.663   7.172
50603SOL    HW253584   3.091  10.692   7.083
50604SOL     OW53585   2.295  12.420   4.804
50604SOL    HW153586   2.252  12.481   4.865
50604SOL    HW253587   2.262  12.334   4.829
50605SOL     OW53588   0.109  10.057  12.435
50605SOL    HW153589   0.163  10.110  12.377
50605SOL    HW253590   0.023  10.055  12.393
50606SOL     OW53591   1.399  10.760   0.396
50606SOL    HW153592   1.310  10.740   0.426
50606SOL    HW253593   1.452  10.760   0.475
50607SOL     OW53594   0.199   6.335   9.130
50607SOL    HW153595   0.280   6.330   9.180
50607SOL    HW253596   0.203   6.260   9.071
50608SOL     OW53597   4.966  10.245   7.497
50608SOL    HW153598   5.062  10.251   7.503
50608SOL    HW253599   4.940  10.320   7.445
50609SOL     OW53600  12.823   9.866   0.483
50609SOL    HW153601  12.778   9.946   0.510
50609SOL    HW253602  12.780   9.796   0.533
50610SOL     OW53603   2.206   4.375  10.590
50610SOL    HW153604   2.270   4.342  10.526
50610SOL    HW253605   2.232   4.332  10.672
50611SOL     OW53606  13.945   0.834   2.888
50611SOL    HW153607  13.850   0.823   2.883
50611SOL    HW253608  13.980   0.749   2.860
50612SOL     OW53609  13.907   6.126   8.274
50612SOL    HW153610  13.918   6.052   8.334
50612SOL    HW253611  13.904   6.087   8.187
50613SOL     OW53612   5.062   9.509   0.722
50613SOL    HW153613   5.095   9.419   0.724
50613SOL    HW253614   5.033   9.526   0.812
50614SOL     OW53615   0.613  13.990  10.410
50614SOL    HW153616   0.632  13.924  10.344
50614SOL    HW253617   0.557  14.054  10.365
50615SOL     OW53618  10.382   2.221  11.533
50615SOL    HW153619  10.477   2.222  11.544
50615SOL    HW253620  10.361   2.128  11.519
50616SOL     OW53621  12.004  11.280   3.389
50616SOL    HW153622  11.993  11.186   3.404
50616SOL    HW253623  11.983  11.292   3.297
50617SOL     OW53624   6.231   0.327  10.715
50617SOL    HW153625   6.265   0.414  10.696
50617SOL    HW253626   6.203   0.331  10.807
50618SOL     OW53627   5.964   2.615   7.737
50618SOL    HW153628   6.007   2.557   7.799
50618SOL    HW253629   6.029   2.682   7.717
50619SOL     OW53630   4.798   6.394   5.942
50619SOL    HW153631   4.828   6.317   5.893
50619SOL    HW253632   4.742   6.358   6.011
50620SOL     OW53633  13.571  13.078   2.526
50620SOL    HW153634  13.503  13.012   2.512
50620SOL    HW253635  13.653  13.028   2.525
50621SOL     OW53636  12.617  14.271   7.176
50621SOL    HW153637  12.623  14.365   7.162
50621SOL    HW253638  12.546  14.243   7.119
50622SOL     OW53639   9.533  11.491   4.144
50622SOL    HW153640   9.496  11.472   4.057
50622SOL    HW253641   9.457  11.509   4.199
50623SOL     OW53642   0.177   5.546   6.823
50623SOL    HW153643   0.094   5.525   6.867
50623SOL    HW253644   0.245   5.516   6.884
50624SOL     OW53645  11.133   5.815   2.975
50624SOL    HW153646  11.198   5.750   2.947
50624SOL    HW253647  11.079   5.770   3.040
50625SOL     OW53648   6.053  13.067   3.975
50625SOL    HW153649   5.988  12.997   3.974
50625SOL    HW253650   6.007  13.144   3.941
50626SOL     OW53651  11.825   2.467   3.168
50626SOL    HW153652  11.793   2.520   3.241
50626SOL    HW253653  11.828   2.527   3.094
50627SOL     OW53654   4.316  12.310  12.790
50627SOL    HW153655   4.265  12.365  12.849
50627SOL    HW253656   4.363  12.371  12.734
50628SOL     OW53657  13.631   0.997   5.391
50628SOL    HW153658  13.645   1.054   5.315
50628SOL    HW253659  13.559   0.940   5.365
50629SOL     OW53660  11.311   1.151   6.531
50629SOL    HW153661  11.321   1.186   6.443
50629SOL    HW253662  11.216   1.151   6.546
50630SOL     OW53663   0.163   3.343   5.048
50630SOL    HW153664   0.098   3.318   5.114
50630SOL    HW253665   0.218   3.408   5.091
50631SOL     OW53666  14.762  12.546   7.915
50631SOL    HW153667  14.766  12.505   7.828
50631SOL    HW253668  14.714  12.483   7.969
50632SOL     OW53669   2.507  13.809   4.518
50632SOL    HW153670   2.600  13.825   4.501
50632SOL    HW253671   2.490  13.723   4.479
50633SOL     OW53672   7.709   5.308   4.085
50633SOL    HW153673   7.664   5.363   4.148
50633SOL    HW253674   7.725   5.226   4.132
50634SOL     OW53675  13.978   2.481   9.113
50634SOL    HW153676  14.026   2.445   9.188
50634SOL    HW253677  13.903   2.424   9.103
50635SOL     OW53678   2.633   0.215  10.809
50635SOL    HW153679   2.544   0.215  10.844
50635SOL    HW253680   2.630   0.155  10.735
50636SOL     OW53681   8.028   8.460  12.909
50636SOL    HW153682   7.940   8.493  12.895
50636SOL    HW253683   8.056   8.428  12.823
50637SOL     OW53684   4.425   1.634   9.924
50637SOL    HW153685   4.358   1.577   9.963
50637SOL    HW253686   4.394   1.650   9.835
50638SOL     OW53687  14.722   0.754  10.560
50638SOL    HW153688  14.635   0.713  10.562
50638SOL    HW253689  14.707   0.842  10.594
50639SOL     OW53690   5.226   4.420   4.337
50639SOL    HW153691   5.262   4.345   4.291
50639SOL    HW253692   5.141   4.435   4.294
50640SOL     OW53693   8.170   7.345   7.712
50640SOL    HW153694   8.080   7.323   7.738
50640SOL    HW253695   8.211   7.378   7.792
50641SOL     OW53696  14.666   0.761   5.837
50641SOL    HW153697  14.635   0.724   5.920
50641SOL    HW253698  14.689   0.685   5.784
50642SOL     OW53699   0.175  12.974   4.091
50642SOL    HW153700   0.085  12.996   4.067
50642SOL    HW253701   0.206  12.916   4.021
50643SOL     OW53702   0.170   5.509   7.485
50643SOL    HW153703   0.212   5.453   7.419
50643SOL    HW253704   0.204   5.476   7.569
50644SOL     OW53705   0.839  14.279   6.894
50644SOL    HW153706   0.801  14.289   6.806
50644SOL    HW253707   0.855  14.185   6.902
50645SOL     OW53708  14.579  14.753   0.711
50645SOL    HW153709  14.588  14.724   0.620
50645SOL    HW253710  14.487  14.780   0.718
50646SOL     OW53711   2.994   4.545  10.316
50646SOL    HW153712   3.037   4.532  10.231
50646SOL    HW253713   3.037   4.483  10.375
50647SOL     OW53714   0.256   7.176  10.555
50647SOL    HW153715   0.308   7.163  10.475
50647SOL    HW253716   0.316   7.221  10.615
50648SOL     OW53717  11.299   3.303   0.337
50648SOL    HW153718  11.335   3.319   0.424
50648SOL    HW253719  11.329   3.215   0.314
50649SOL     OW53720  10.472  10.622   1.836
50649SOL    HW153721  10.480  10.716   1.856
50649SOL    HW253722  10.464  10.619   1.741
50650SOL     OW53723   0.823  13.573   0.242
50650SOL    HW153724   0.868  13.657   0.234
50650SOL    HW253725   0.774  13.580   0.324
50651SOL     OW53726   9.658   3.143  12.417
50651SOL    HW153727   9.601   3.178  12.348
50651SOL    HW253728   9.704   3.219  12.452
50652SOL     OW53729  10.846   9.163   7.807
50652SOL    HW153730  10.926   9.203   7.843
50652SOL    HW253731  10.875   9.121   7.726
50653SOL     OW53732   8.883  11.251  11.500
50653SOL    HW153733   8.881  11.342  11.469
50653SOL    HW253734   8.844  11.201  11.429
50654SOL     OW53735  12.598   0.821   3.971
50654SOL    HW153736  12.666   0.888   3.966
50654SOL    HW253737  12.636   0.752   4.025
50655SOL     OW53738   4.729   9.489  14.734
50655SOL    HW153739   4.752   9.532  14.651
50655SOL    HW253740   4.813   9.464  14.771
50656SOL     OW53741  13.623   6.082   9.493
50656SOL    HW153742  13.617   6.045   9.405
50656SOL    HW253743  13.536   6.070   9.530
50657SOL     OW53744   8.054  14.104   2.367
50657SOL    HW153745   8.075  14.048   2.292
50657SOL    HW253746   8.020  14.185   2.327
50658SOL     OW53747   5.016   7.564   0.024
50658SOL    HW153748   5.084   7.499   0.042
50658SOL    HW253749   4.943   7.512  14.870
50659SOL     OW53750   9.743  13.130   3.473
50659SOL    HW153751   9.731  13.058   3.535
50659SOL    HW253752   9.685  13.199   3.505
50660SOL     OW53753   1.077   6.546   7.394
50660SOL    HW153754   0.993   6.509   7.420
50660SOL    HW253755   1.071   6.555   7.299
50661SOL     OW53756  13.910   2.749  10.015
50661SOL    HW153757  13.871   2.669   9.979
50661SOL    HW253758  14.001   2.726  10.033
50662SOL     OW53759  12.344   1.459  10.770
50662SOL    HW153760  12.357   1.489  10.859
50662SOL    HW253761  12.430   1.462  10.730
50663SOL     OW53762   7.072   8.476   0.593
50663SOL    HW153763   7.087   8.451   0.502
50663SOL    HW253764   7.157   8.509   0.622
50664SOL     OW53765  12.441   2.745   4.643
50664SOL    HW153766  12.460   2.818   4.703
50664SOL    HW253767  12.481   2.773   4.560
50665SOL     OW53768   6.634   5.809  11.584
50665SOL    HW153769   6.652   5.722  11.618
50665SOL    HW253770   6.716   5.857  11.594
50666SOL     OW53771  12.311  13.294   6.164
50666SOL    HW153772  12.251  13.341   6.223
50666SOL    HW253773  12.286  13.324   6.077
50667SOL     OW53774   7.460  10.600   8.483
50667SOL    HW153775   7.433  10.686   8.518
50667SOL    HW253776   7.380  10.562   8.448
50668SOL     OW53777  10.509  12.877   6.838
50668SOL    HW153778  10.442  12.944   6.825
50668SOL    HW253779  10.592  12.925   6.834
50669SOL     OW53780   5.778   3.501   2.355
50669SOL    HW153781   5.787   3.447   2.434
50669SOL    HW253782   5.851   3.563   2.360
50670SOL     OW53783   5.139  14.187   0.108
50670SOL    HW153784   5.198  14.177   0.033
50670SOL    HW253785   5.071  14.121   0.093
50671SOL     OW53786  12.217   2.409   8.807
50671SOL    HW153787  12.152   2.404   8.736
50671SOL    HW253788  12.277   2.478   8.779
50672SOL     OW53789   1.519  11.359   8.710
50672SOL    HW153790   1.556  11.362   8.798
50672SOL    HW253791   1.453  11.428   8.709
50673SOL     OW53792   4.641   1.235   0.908
50673SOL    HW153793   4.677   1.226   0.996
50673SOL    HW253794   4.666   1.323   0.880
50674SOL     OW53795  13.699   5.412   1.170
50674SOL    HW153796  13.658   5.453   1.247
50674SOL    HW253797  13.762   5.477   1.139
50675SOL     OW53798   8.201   3.265   7.372
50675SOL    HW153799   8.186   3.202   7.301
50675SOL    HW253800   8.296   3.268   7.381
50676SOL     OW53801   8.734  10.785   0.196
50676SOL    HW153802   8.827  10.810   0.189
50676SOL    HW253803   8.689  10.848   0.139
50677SOL     OW53804   5.652   5.724  10.384
50677SOL    HW153805   5.616   5.640  10.411
50677SOL    HW253806   5.677   5.768  10.465
50678SOL     OW53807   7.501   0.351   3.076
50678SOL    HW153808   7.506   0.255   3.067
50678SOL    HW253809   7.468   0.381   2.991
50679SOL     OW53810   8.303   2.574   9.680
50679SOL    HW153811   8.332   2.592   9.590
50679SOL    HW253812   8.380   2.539   9.724
50680SOL     OW53813   8.603  12.928   2.552
50680SOL    HW153814   8.612  12.995   2.620
50680SOL    HW253815   8.680  12.940   2.496
50681SOL     OW53816   9.297   6.550  14.683
50681SOL    HW153817   9.248   6.561  14.601
50681SOL    HW253818   9.312   6.640  14.713
50682SOL     OW53819   4.040   7.883   4.969
50682SOL    HW153820   4.039   7.819   4.898
50682SOL    HW253821   4.121   7.864   5.016
50683SOL     OW53822   5.562   1.339   4.082
50683SOL    HW153823   5.580   1.394   4.158
50683SOL    HW253824   5.580   1.396   4.007
50684SOL     OW53825   7.846  10.637   8.488
50684SOL    HW153826   7.776  10.675   8.541
50684SOL    HW253827   7.926  10.671   8.526
50685SOL     OW53828   5.736   5.675   1.755
50685SOL    HW153829   5.829   5.675   1.731
50685SOL    HW253830   5.733   5.718   1.840
50686SOL     OW53831   5.721  11.304  11.832
50686SOL    HW153832   5.658  11.288  11.902
50686SOL    HW253833   5.779  11.227  11.835
50687SOL     OW53834   9.513   3.647  13.542
50687SOL    HW153835   9.541   3.704  13.614
50687SOL    HW253836   9.418   3.647  13.547
50688SOL     OW53837   6.145   0.539   6.621
50688SOL    HW153838   6.235   0.507   6.612
50688SOL    HW253839   6.147   0.626   6.583
50689SOL     OW53840   3.334   1.498   7.979
50689SOL    HW153841   3.250   1.532   7.950
50689SOL    HW253842   3.322   1.403   7.980
50690SOL     OW53843   0.754  12.873  10.620
50690SOL    HW153844   0.789  12.916  10.542
50690SOL    HW253845   0.793  12.785  10.618
50691SOL     OW53846  12.869  14.232   7.560
50691SOL    HW153847  12.825  14.148   7.568
50691SOL    HW253848  12.810  14.286   7.509
50692SOL     OW53849   0.371   8.035  10.401
50692SOL    HW153850   0.368   8.042  10.497
50692SOL    HW253851   0.463   8.047  10.379
50693SOL     OW53852   3.772   3.689   6.163
50693SOL    HW153853   3.838   3.621   6.173
50693SOL    HW253854   3.767   3.705   6.069
50694SOL     OW53855   0.668   7.444   4.786
50694SOL    HW153856   0.725   7.505   4.834
50694SOL    HW253857   0.635   7.495   4.712
50695SOL     OW53858  13.845  11.088  12.160
50695SOL    HW153859  13.919  11.065  12.216
50695SOL    HW253860  13.786  11.136  12.218
50696SOL     OW53861   7.232   8.164  14.763
50696SOL    HW153862   7.326   8.169  14.782
50696SOL    HW253863   7.227   8.159  14.668
50697SOL     OW53864   3.134  13.067  10.013
50697SOL    HW153865   3.171  13.122   9.944
50697SOL    HW253866   3.185  12.986  10.009
50698SOL     OW53867   0.640  13.248   9.451
50698SOL    HW153868   0.591  13.307   9.393
50698SOL    HW253869   0.730  13.279   9.447
50699SOL     OW53870   8.998  11.156  10.520
50699SOL    HW153871   9.033  11.110  10.444
50699SOL    HW253872   9.045  11.239  10.522
50700SOL     OW53873   4.933   9.106   9.204
50700SOL    HW153874   4.914   9.089   9.111
50700SOL    HW253875   5.001   9.173   9.202
50701SOL     OW53876   6.841   1.294   3.161
50701SOL    HW153877   6.749   1.283   3.186
50701SOL    HW253878   6.877   1.355   3.226
50702SOL     OW53879   6.103   2.173   9.835
50702SOL    HW153880   6.049   2.206   9.763
50702SOL    HW253881   6.109   2.079   9.819
50703SOL     OW53882   1.057  13.250   6.015
50703SOL    HW153883   1.066  13.192   6.091
50703SOL    HW253884   1.147  13.266   5.986
50704SOL     OW53885   0.227   7.221   2.081
50704SOL    HW153886   0.151   7.175   2.046
50704SOL    HW253887   0.258   7.165   2.152
50705SOL     OW53888  12.395   0.162   9.767
50705SOL    HW153889  12.367   0.205   9.848
50705SOL    HW253890  12.481   0.125   9.788
50706SOL     OW53891  11.754   1.712   6.432
50706SOL    HW153892  11.688   1.672   6.375
50706SOL    HW253893  11.740   1.806   6.421
50707SOL     OW53894  10.242   6.488   9.489
50707SOL    HW153895  10.276   6.494   9.579
50707SOL    HW253896  10.266   6.399   9.461
50708SOL     OW53897  11.633  12.252   5.338
50708SOL    HW153898  11.676  12.322   5.289
50708SOL    HW253899  11.540  12.266   5.323
50709SOL     OW53900   4.104   4.849   9.815
50709SOL    HW153901   4.064   4.868   9.900
50709SOL    HW253902   4.170   4.918   9.804
50710SOL     OW53903   1.740   3.516   7.650
50710SOL    HW153904   1.710   3.430   7.620
50710SOL    HW253905   1.719   3.575   7.579
50711SOL     OW53906   9.462  14.531  13.635
50711SOL    HW153907   9.388  14.552  13.692
50711SOL    HW253908   9.518  14.475  13.689
50712SOL     OW53909   8.427   9.192   6.946
50712SOL    HW153910   8.424   9.146   7.030
50712SOL    HW253911   8.375   9.139   6.887
50713SOL     OW53912   0.513  10.850  11.021
50713SOL    HW153913   0.532  10.936  11.057
50713SOL    HW253914   0.561  10.789  11.079
50714SOL     OW53915   4.698   7.137   7.703
50714SOL    HW153916   4.715   7.155   7.796
50714SOL    HW253917   4.773   7.084   7.675
50715SOL     OW53918   3.777   3.229   6.280
50715SOL    HW153919   3.781   3.214   6.185
50715SOL    HW253920   3.813   3.149   6.318
50716SOL     OW53921   5.417   7.811   9.895
50716SOL    HW153922   5.433   7.718   9.910
50716SOL    HW253923   5.359   7.813   9.819
50717SOL     OW53924   4.835   6.314   7.683
50717SOL    HW153925   4.895   6.341   7.753
50717SOL    HW253926   4.873   6.233   7.650
50718SOL     OW53927  14.072   7.780   7.461
50718SOL    HW153928  14.035   7.750   7.544
50718SOL    HW253929  14.111   7.865   7.481
50719SOL     OW53930  14.414   3.185   2.036
50719SOL    HW153931  14.509   3.187   2.041
50719SOL    HW253932  14.389   3.106   2.084
50720SOL     OW53933   5.167   2.764   1.703
50720SOL    HW153934   5.170   2.812   1.621
50720SOL    HW253935   5.074   2.746   1.717
50721SOL     OW53936   9.238   7.720   7.367
50721SOL    HW153937   9.219   7.763   7.284
50721SOL    HW253938   9.328   7.688   7.357
50722SOL     OW53939  10.134  10.009  12.603
50722SOL    HW153940  10.173  10.084  12.648
50722SOL    HW253941  10.195   9.989  12.532
50723SOL     OW53942   4.317  12.211   4.356
50723SOL    HW153943   4.351  12.221   4.445
50723SOL    HW253944   4.286  12.120   4.352
50724SOL     OW53945   0.282   2.427   4.092
50724SOL    HW153946   0.312   2.433   4.182
50724SOL    HW253947   0.214   2.359   4.094
50725SOL     OW53948   4.274   2.529  10.511
50725SOL    HW153949   4.202   2.504  10.569
50725SOL    HW253950   4.351   2.531  10.568
50726SOL     OW53951   3.833   1.094   7.081
50726SOL    HW153952   3.882   1.120   7.004
50726SOL    HW253953   3.805   1.176   7.121
50727SOL     OW53954   8.983   2.348  13.856
50727SOL    HW153955   8.928   2.425  13.868
50727SOL    HW253956   8.928   2.274  13.882
50728SOL     OW53957   5.030   8.262   8.273
50728SOL    HW153958   5.000   8.352   8.261
50728SOL    HW253959   4.983   8.212   8.206
50729SOL     OW53960   5.084  12.791   1.670
50729SOL    HW153961   5.006  12.823   1.715
50729SOL    HW253962   5.124  12.869   1.632
50730SOL     OW53963   6.092   7.520   5.497
50730SOL    HW153964   6.163   7.572   5.534
50730SOL    HW253965   6.096   7.437   5.545
50731SOL     OW53966   8.308  11.446   4.906
50731SOL    HW153967   8.387  11.483   4.868
50731SOL    HW253968   8.266  11.400   4.833
50732SOL     OW53969   1.740   0.521  14.599
50732SOL    HW153970   1.762   0.540  14.690
50732SOL    HW253971   1.775   0.433  14.583
50733SOL     OW53972   4.877  11.399   1.851
50733SOL    HW153973   4.953  11.429   1.800
50733SOL    HW253974   4.845  11.479   1.894
50734SOL     OW53975   7.118  10.000  10.502
50734SOL    HW153976   7.078  10.086  10.496
50734SOL    HW253977   7.073   9.957  10.574
50735SOL     OW53978   9.426   8.386  11.967
50735SOL    HW153979   9.491   8.317  11.950
50735SOL    HW253980   9.380   8.398  11.884
50736SOL     OW53981   7.218   9.952   7.511
50736SOL    HW153982   7.221   9.910   7.426
50736SOL    HW253983   7.256   9.888   7.571
50737SOL     OW53984   4.983   0.788   9.133
50737SOL    HW153985   4.905   0.752   9.089
50737SOL    HW253986   4.951   0.814   9.220
50738SOL     OW53987   6.989  13.763   2.364
50738SOL    HW153988   7.010  13.766   2.457
50738SOL    HW253989   7.067  13.726   2.323
50739SOL     OW53990  13.207   6.748   1.479
50739SOL    HW153991  13.224   6.724   1.388
50739SOL    HW253992  13.222   6.842   1.482
50740SOL     OW53993   9.330  11.666  12.687
50740SOL    HW153994   9.302  11.724  12.617
50740SOL    HW253995   9.250  11.618  12.711
50741SOL     OW53996  10.433  11.842   9.699
50741SOL    HW153997  10.406  11.784   9.771
50741SOL    HW253998  10.351  11.871   9.660
50742SOL     OW53999  10.782  10.690   1.778
50742SOL    HW154000  10.796  10.656   1.866
50742SOL    HW254001  10.758  10.614   1.726
50743SOL     OW54002   5.113   4.533   9.454
50743SOL    HW154003   5.094   4.587   9.377
50743SOL    HW254004   5.180   4.471   9.425
50744SOL     OW54005  11.167   2.635   8.092
50744SOL    HW154006  11.180   2.683   8.011
50744SOL    HW254007  11.250   2.589   8.108
50745SOL     OW54008   8.791   3.744   8.645
50745SOL    HW154009   8.812   3.799   8.720
50745SOL    HW254010   8.875   3.731   8.600
50746SOL     OW54011   5.962   2.405   1.750
50746SOL    HW154012   5.934   2.367   1.666
50746SOL    HW254013   6.006   2.486   1.726
50747SOL     OW54014   1.229   2.363   4.131
50747SOL    HW154015   1.246   2.395   4.042
50747SOL    HW254016   1.150   2.309   4.123
50748SOL     OW54017  12.367   2.036  14.515
50748SOL    HW154018  12.311   2.046  14.438
50748SOL    HW254019  12.456   2.035  14.481
50749SOL     OW54020   2.824   3.665  10.936
50749SOL    HW154021   2.824   3.732  11.004
50749SOL    HW254022   2.818   3.582  10.983
50750SOL     OW54023   1.447   2.188  10.312
50750SOL    HW154024   1.408   2.275  10.324
50750SOL    HW254025   1.403   2.134  10.378
50751SOL     OW54026   4.346   4.961   4.230
50751SOL    HW154027   4.346   4.908   4.310
50751SOL    HW254028   4.284   4.918   4.172
50752SOL     OW54029   7.819   8.895   3.926
50752SOL    HW154030   7.837   8.966   3.864
50752SOL    HW254031   7.726   8.900   3.943
50753SOL     OW54032   2.269   1.652  11.056
50753SOL    HW154033   2.222   1.705  11.121
50753SOL    HW254034   2.313   1.584  11.108
50754SOL     OW54035   0.822   6.554   8.650
50754SOL    HW154036   0.895   6.544   8.589
50754SOL    HW254037   0.861   6.541   8.736
50755SOL     OW54038   9.512   2.265   1.340
50755SOL    HW154039   9.571   2.291   1.269
50755SOL    HW254040   9.552   2.301   1.419
50756SOL     OW54041   5.152  13.166   1.584
50756SOL    HW154042   5.182  13.181   1.495
50756SOL    HW254043   5.064  13.129   1.574
50757SOL     OW54044   7.833  10.006  12.408
50757SOL    HW154045   7.848   9.912  12.399
50757SOL    HW254046   7.914  10.047  12.375
50758SOL     OW54047   2.675   0.756   0.312
50758SOL    HW154048   2.645   0.732   0.224
50758SOL    HW254049   2.611   0.821   0.342
50759SOL     OW54050   2.601   6.459   3.886
50759SOL    HW154051   2.610   6.365   3.875
50759SOL    HW254052   2.510   6.478   3.862
50760SOL     OW54053  13.520   2.851  10.966
50760SOL    HW154054  13.599   2.831  11.015
50760SOL    HW254055  13.469   2.770  10.968
50761SOL     OW54056   4.721  10.463   2.927
50761SOL    HW154057   4.663  10.458   2.852
50761SOL    HW254058   4.678  10.412   2.995
50762SOL     OW54059   1.572  10.176  11.114
50762SOL    HW154060   1.567  10.157  11.021
50762SOL    HW254061   1.646  10.123  11.146
50763SOL     OW54062   6.115   9.893   1.574
50763SOL    HW154063   6.119   9.973   1.523
50763SOL    HW254064   6.122   9.922   1.665
50764SOL     OW54065  10.830   1.255   7.642
50764SOL    HW154066  10.763   1.232   7.577
50764SOL    HW254067  10.815   1.348   7.659
50765SOL     OW54068  10.354   5.046   9.075
50765SOL    HW154069  10.300   5.069   9.000
50765SOL    HW254070  10.390   5.130   9.105
50766SOL     OW54071   6.097  11.019   3.670
50766SOL    HW154072   6.187  11.040   3.645
50766SOL    HW254073   6.106  10.969   3.752
50767SOL     OW54074   6.858   2.359   6.962
50767SOL    HW154075   6.948   2.350   6.995
50767SOL    HW254076   6.819   2.273   6.975
50768SOL     OW54077   7.567   5.489   7.993
50768SOL    HW154078   7.504   5.420   7.970
50768SOL    HW254079   7.521   5.571   7.970
50769SOL     OW54080   4.857   4.957  13.178
50769SOL    HW154081   4.896   4.955  13.266
50769SOL    HW254082   4.766   4.934  13.192
50770SOL     OW54083   7.944   2.517  11.347
50770SOL    HW154084   7.925   2.573  11.272
50770SOL    HW254085   7.990   2.442  11.309
50771SOL     OW54086   6.541   4.065   7.185
50771SOL    HW154087   6.606   4.084   7.253
50771SOL    HW254088   6.461   4.046   7.233
50772SOL     OW54089   6.351  11.248   0.324
50772SOL    HW154090   6.398  11.329   0.305
50772SOL    HW254091   6.326  11.213   0.239
50773SOL     OW54092   8.982  10.499   4.566
50773SOL    HW154093   8.985  10.478   4.473
50773SOL    HW254094   9.034  10.431   4.608
50774SOL     OW54095   0.945  12.563  14.687
50774SOL    HW154096   0.957  12.508  14.610
50774SOL    HW254097   0.888  12.634  14.656
50775SOL     OW54098   1.029   6.440   9.408
50775SOL    HW154099   1.054   6.486   9.488
50775SOL    HW254100   1.018   6.349   9.435
50776SOL     OW54101   3.032   5.452   3.903
50776SOL    HW154102   3.072   5.536   3.924
50776SOL    HW254103   2.938   5.466   3.915
50777SOL     OW54104   8.068  11.616  14.830
50777SOL    HW154105   8.133  11.671  14.874
50777SOL    HW254106   8.068  11.646  14.740
50778SOL     OW54107   7.561  10.349   4.669
50778SOL    HW154108   7.531  10.298   4.594
50778SOL    HW254109   7.636  10.398   4.636
50779SOL     OW54110   1.965   7.975   0.937
50779SOL    HW154111   1.885   7.934   0.969
50779SOL    HW254112   1.935   8.046   0.880
50780SOL     OW54113  10.680  13.099   9.462
50780SOL    HW154114  10.656  13.049   9.384
50780SOL    HW254115  10.715  13.181   9.428
50781SOL     OW54116   6.171   7.877   2.582
50781SOL    HW154117   6.141   7.848   2.668
50781SOL    HW254118   6.183   7.972   2.591
50782SOL     OW54119   4.791  10.118   9.011
50782SOL    HW154120   4.790  10.079   9.099
50782SOL    HW254121   4.788  10.212   9.026
50783SOL     OW54122   4.389   0.439   0.569
50783SOL    HW154123   4.368   0.420   0.661
50783SOL    HW254124   4.351   0.365   0.521
50784SOL     OW54125   6.224   1.437   6.225
50784SOL    HW154126   6.186   1.350   6.216
50784SOL    HW254127   6.176   1.477   6.298
50785SOL     OW54128   5.033   7.375  13.577
50785SOL    HW154129   4.944   7.346  13.558
50785SOL    HW254130   5.076   7.299  13.617
50786SOL     OW54131   3.239   8.457   8.533
50786SOL    HW154132   3.221   8.403   8.610
50786SOL    HW254133   3.318   8.419   8.495
50787SOL     OW54134   7.055   6.116  13.004
50787SOL    HW154135   7.108   6.091  13.080
50787SOL    HW254136   7.023   6.204  13.027
50788SOL     OW54137   9.310  13.300   4.641
50788SOL    HW154138   9.369  13.337   4.707
50788SOL    HW254139   9.224  13.337   4.662
50789SOL     OW54140   8.686  12.363   1.481
50789SOL    HW154141   8.616  12.384   1.418
50789SOL    HW254142   8.646  12.298   1.539
50790SOL     OW54143  13.878   6.384   4.615
50790SOL    HW154144  13.969   6.355   4.605
50790SOL    HW254145  13.865   6.444   4.541
50791SOL     OW54146  13.585   6.191  10.610
50791SOL    HW154147  13.607   6.155  10.524
50791SOL    HW254148  13.490   6.185  10.615
50792SOL     OW54149   0.636   5.704  14.073
50792SOL    HW154150   0.551   5.731  14.108
50792SOL    HW254151   0.689   5.684  14.150
50793SOL     OW54152   6.722  12.423   3.002
50793SOL    HW154153   6.676  12.495   3.047
50793SOL    HW254154   6.689  12.426   2.912
50794SOL     OW54155   9.980   8.201   2.430
50794SOL    HW154156  10.071   8.192   2.403
50794SOL    HW254157   9.948   8.275   2.378
50795SOL     OW54158   3.695  14.507   6.048
50795SOL    HW154159   3.661  14.437   6.104
50795SOL    HW254160   3.741  14.461   5.978
50796SOL     OW54161  10.146   1.795   4.084
50796SOL    HW154162  10.103   1.712   4.106
50796SOL    HW254163  10.233   1.770   4.054
50797SOL     OW54164  11.805   9.540   4.232
50797SOL    HW154165  11.737   9.473   4.232
50797SOL    HW254166  11.806   9.574   4.321
50798SOL     OW54167  10.986   1.662   0.779
50798SOL    HW154168  11.056   1.689   0.838
50798SOL    HW254169  10.907   1.700   0.818
50799SOL     OW54170   0.303  12.085   9.374
50799SOL    HW154171   0.328  12.177   9.367
50799SOL    HW254172   0.312  12.065   9.467
50800SOL     OW54173   6.109   2.603  11.128
50800SOL    HW154174   6.064   2.588  11.045
50800SOL    HW254175   6.048   2.573  11.195
50801SOL     OW54176   1.058  13.497   2.208
50801SOL    HW154177   1.148  13.505   2.239
50801SOL    HW254178   1.007  13.482   2.288
50802SOL     OW54179  10.158   3.824   5.045
50802SOL    HW154180  10.168   3.871   5.128
50802SOL    HW254181  10.174   3.891   4.978
50803SOL     OW54182   9.695   4.697   8.856
50803SOL    HW154183   9.758   4.750   8.904
50803SOL    HW254184   9.628   4.759   8.828
50804SOL     OW54185  10.621   7.875   8.604
50804SOL    HW154186  10.555   7.873   8.673
50804SOL    HW254187  10.656   7.965   8.607
50805SOL     OW54188  14.226  12.341   4.790
50805SOL    HW154189  14.279  12.421   4.786
50805SOL    HW254190  14.260  12.293   4.865
50806SOL     OW54191   2.062  11.657  14.555
50806SOL    HW154192   1.985  11.703  14.588
50806SOL    HW254193   2.045  11.645  14.462
50807SOL     OW54194   8.884   7.577   8.777
50807SOL    HW154195   8.821   7.522   8.731
50807SOL    HW254196   8.835   7.617   8.849
50808SOL     OW54197   6.799   2.134  10.815
50808SOL    HW154198   6.828   2.142  10.906
50808SOL    HW254199   6.876   2.158  10.763
50809SOL     OW54200   6.470   8.533   4.880
50809SOL    HW154201   6.461   8.438   4.882
50809SOL    HW254202   6.432   8.558   4.795
50810SOL     OW54203   0.928   2.878   3.987
50810SOL    HW154204   0.925   2.954   3.929
50810SOL    HW254205   0.889   2.807   3.937
50811SOL     OW54206   5.563  11.312   5.543
50811SOL    HW154207   5.505  11.303   5.467
50811SOL    HW254208   5.588  11.404   5.543
50812SOL     OW54209  13.818  13.431   8.503
50812SOL    HW154210  13.813  13.520   8.468
50812SOL    HW254211  13.741  13.424   8.559
50813SOL     OW54212   7.397  14.575   8.256
50813SOL    HW154213   7.306  14.604   8.255
50813SOL    HW254214   7.446  14.648   8.219
50814SOL     OW54215  14.083   8.727  10.978
50814SOL    HW154216  14.041   8.734  10.892
50814SOL    HW254217  14.011   8.712  11.039
50815SOL     OW54218   3.554  12.094   6.335
50815SOL    HW154219   3.473  12.142   6.350
50815SOL    HW254220   3.526  12.005   6.314
50816SOL     OW54221   6.035   1.559   9.184
50816SOL    HW154222   6.088   1.522   9.255
50816SOL    HW254223   6.079   1.642   9.163
50817SOL     OW54224   6.787   7.345   3.892
50817SOL    HW154225   6.766   7.256   3.924
50817SOL    HW254226   6.841   7.330   3.815
50818SOL     OW54227  14.610  12.585  11.710
50818SOL    HW154228  14.574  12.587  11.621
50818SOL    HW254229  14.673  12.658  11.711
50819SOL     OW54230   8.386   7.618   8.468
50819SOL    HW154231   8.472   7.575   8.468
50819SOL    HW254232   8.407   7.711   8.478
50820SOL     OW54233   0.214   3.050   3.923
50820SOL    HW154234   0.145   3.082   3.866
50820SOL    HW254235   0.236   3.126   3.978
50821SOL     OW54236   2.057  12.826   3.905
50821SOL    HW154237   2.139  12.871   3.926
50821SOL    HW254238   1.990  12.874   3.955
50822SOL     OW54239   4.787  13.101   4.940
50822SOL    HW154240   4.776  13.026   4.881
50822SOL    HW254241   4.791  13.063   5.028
50823SOL     OW54242   8.131   1.901  10.809
50823SOL    HW154243   8.053   1.952  10.790
50823SOL    HW254244   8.098   1.815  10.836
50824SOL     OW54245  13.710   1.993   5.999
50824SOL    HW154246  13.707   1.994   6.095
50824SOL    HW254247  13.784   1.936   5.978
50825SOL     OW54248  11.989   5.187  11.415
50825SOL    HW154249  12.000   5.094  11.433
50825SOL    HW254250  11.895   5.198  11.401
50826SOL     OW54251   9.618  11.940  13.975
50826SOL    HW154252   9.587  11.911  13.889
50826SOL    HW254253   9.713  11.929  13.971
50827SOL     OW54254   2.580   8.003  14.856
50827SOL    HW154255   2.552   8.090  14.828
50827SOL    HW254256   2.656   7.984  14.800
50828SOL     OW54257  14.450   5.389   0.059
50828SOL    HW154258  14.509   5.314   0.059
50828SOL    HW254259  14.392   5.375   0.134
50829SOL     OW54260   6.353   1.488   4.115
50829SOL    HW154261   6.398   1.405   4.132
50829SOL    HW254262   6.352   1.496   4.020
50830SOL     OW54263  10.236   2.746   8.469
50830SOL    HW154264  10.167   2.683   8.448
50830SOL    HW254265  10.195   2.832   8.455
50831SOL     OW54266   4.675  12.394   8.476
50831SOL    HW154267   4.581  12.380   8.485
50831SOL    HW254268   4.715  12.337   8.541
50832SOL     OW54269  10.879   2.190   7.574
50832SOL    HW154270  10.840   2.272   7.544
50832SOL    HW254271  10.911   2.148   7.495
50833SOL     OW54272  12.885   8.825   6.155
50833SOL    HW154273  12.817   8.891   6.141
50833SOL    HW254274  12.966   8.868   6.129
50834SOL     OW54275   9.987   6.606  11.424
50834SOL    HW154276   9.911   6.664  11.417
50834SOL    HW254277  10.035   6.640  11.499
50835SOL     OW54278   4.831   8.352   3.460
50835SOL    HW154279   4.788   8.386   3.538
50835SOL    HW254280   4.880   8.426   3.425
50836SOL     OW54281   0.794  14.512   2.090
50836SOL    HW154282   0.843  14.506   2.008
50836SOL    HW254283   0.708  14.546   2.065
50837SOL     OW54284   6.747   6.909   3.136
50837SOL    HW154285   6.738   6.849   3.209
50837SOL    HW254286   6.767   6.854   3.061
50838SOL     OW54287   1.486   7.751   9.080
50838SOL    HW154288   1.439   7.770   9.162
50838SOL    HW254289   1.565   7.705   9.108
50839SOL     OW54290   4.332   4.373   6.023
50839SOL    HW154291   4.409   4.426   6.001
50839SOL    HW254292   4.339   4.359   6.118
50840SOL     OW54293   9.180  12.952  12.646
50840SOL    HW154294   9.220  12.992  12.723
50840SOL    HW254295   9.158  12.863  12.673
50841SOL     OW54296   8.827   1.474   9.031
50841SOL    HW154297   8.863   1.427   8.956
50841SOL    HW254298   8.863   1.430   9.108
50842SOL     OW54299   3.847   4.856  10.020
50842SOL    HW154300   3.818   4.765  10.010
50842SOL    HW254301   3.793   4.905   9.958
50843SOL     OW54302   1.967  11.121   8.064
50843SOL    HW154303   1.985  11.128   8.158
50843SOL    HW254304   1.936  11.208   8.039
50844SOL     OW54305   5.546  11.707   5.821
50844SOL    HW154306   5.621  11.668   5.867
50844SOL    HW254307   5.490  11.632   5.800
50845SOL     OW54308   4.490   2.535   7.436
50845SOL    HW154309   4.404   2.496   7.423
50845SOL    HW254310   4.475   2.629   7.429
50846SOL     OW54311   3.231  13.298  14.468
50846SOL    HW154312   3.276  13.378  14.441
50846SOL    HW254313   3.148  13.329  14.505
50847SOL     OW54314  14.818   5.372  13.493
50847SOL    HW154315  14.829   5.452  13.543
50847SOL    HW254316   0.019   5.361  13.446
50848SOL     OW54317   2.219   6.259   0.360
50848SOL    HW154318   2.167   6.196   0.310
50848SOL    HW254319   2.168   6.273   0.440
50849SOL     OW54320  13.047   5.208   1.249
50849SOL    HW154321  13.141   5.207   1.230
50849SOL    HW254322  13.005   5.221   1.164
50850SOL     OW54323   1.966   6.022   8.396
50850SOL    HW154324   1.930   6.096   8.446
50850SOL    HW254325   2.051   6.052   8.366
50851SOL     OW54326  13.064   2.647  10.525
50851SOL    HW154327  13.152   2.683  10.537
50851SOL    HW254328  13.021   2.708  10.464
50852SOL     OW54329  14.166  10.748  14.140
50852SOL    HW154330  14.170  10.813  14.070
50852SOL    HW254331  14.113  10.789  14.208
50853SOL     OW54332   6.759  13.987   0.289
50853SOL    HW154333   6.818  14.025   0.354
50853SOL    HW254334   6.736  13.901   0.324
50854SOL     OW54335   7.260  12.794   2.013
50854SOL    HW154336   7.309  12.874   1.996
50854SOL    HW254337   7.298  12.758   2.093
50855SOL     OW54338  10.778   8.566   6.873
50855SOL    HW154339  10.839   8.579   6.946
50855SOL    HW254340  10.794   8.476   6.845
50856SOL     OW54341  14.071   7.780   5.751
50856SOL    HW154342  14.061   7.699   5.802
50856SOL    HW254343  14.157   7.772   5.710
50857SOL     OW54344  14.102   1.670   6.568
50857SOL    HW154345  14.061   1.718   6.495
50857SOL    HW254346  14.180   1.721   6.588
50858SOL     OW54347   5.447   4.165  12.079
50858SOL    HW154348   5.397   4.196  12.154
50858SOL    HW254349   5.538   4.181  12.103
50859SOL     OW54350   5.330  13.751   4.191
50859SOL    HW154351   5.318  13.659   4.214
50859SOL    HW254352   5.425  13.762   4.186
50860SOL     OW54353   0.313  12.873   8.988
50860SOL    HW154354   0.369  12.882   8.911
50860SOL    HW254355   0.228  12.905   8.959
50861SOL     OW54356  11.598   6.295  12.942
50861SOL    HW154357  11.578   6.213  12.987
50861SOL    HW254358  11.691   6.309  12.959
50862SOL     OW54359  14.241   1.392  11.877
50862SOL    HW154360  14.332   1.421  11.889
50862SOL    HW254361  14.216   1.431  11.793
50863SOL     OW54362  11.844  11.796   8.920
50863SOL    HW154363  11.780  11.744   8.970
50863SOL    HW254364  11.855  11.876   8.971
50864SOL     OW54365  12.885   0.944  12.832
50864SOL    HW154366  12.905   1.028  12.790
50864SOL    HW254367  12.880   0.963  12.925
50865SOL     OW54368   5.066   8.415  11.210
50865SOL    HW154369   5.022   8.495  11.241
50865SOL    HW254370   5.074   8.361  11.289
50866SOL     OW54371  13.976   9.272  10.332
50866SOL    HW154372  13.976   9.216  10.254
50866SOL    HW254373  14.035   9.344  10.309
50867SOL     OW54374  12.453   2.057  12.956
50867SOL    HW154375  12.434   2.060  13.050
50867SOL    HW254376  12.394   2.121  12.917
50868SOL     OW54377   2.364  14.014   8.940
50868SOL    HW154378   2.423  14.028   9.014
50868SOL    HW254379   2.372  13.921   8.921
50869SOL     OW54380  10.792   8.004   7.839
50869SOL    HW154381  10.799   7.962   7.754
50869SOL    HW254382  10.698   8.004   7.858
50870SOL     OW54383   2.460   9.469   4.891
50870SOL    HW154384   2.543   9.482   4.844
50870SOL    HW254385   2.404   9.422   4.829
50871SOL     OW54386   1.612  14.399  12.199
50871SOL    HW154387   1.627  14.323  12.143
50871SOL    HW254388   1.548  14.368  12.263
50872SOL     OW54389   8.867   8.613  10.990
50872SOL    HW154390   8.930   8.553  11.030
50872SOL    HW254391   8.816   8.559  10.930
50873SOL     OW54392   8.878   3.800  14.772
50873SOL    HW154393   8.830   3.740  14.715
50873SOL    HW254394   8.816   3.870  14.791
50874SOL     OW54395   3.748   9.652   1.113
50874SOL    HW154396   3.777   9.566   1.082
50874SOL    HW254397   3.769   9.712   1.042
50875SOL     OW54398  14.179   6.723   1.428
50875SOL    HW154399  14.136   6.788   1.372
50875SOL    HW254400  14.109   6.663   1.452
50876SOL     OW54401   5.219   3.478   9.130
50876SOL    HW154402   5.304   3.435   9.117
50876SOL    HW254403   5.158   3.407   9.149
50877SOL     OW54404   9.110  11.883  10.876
50877SOL    HW154405   9.200  11.909  10.893
50877SOL    HW254406   9.075  11.953  10.820
50878SOL     OW54407   7.127   8.427   9.215
50878SOL    HW154408   7.204   8.449   9.269
50878SOL    HW254409   7.125   8.496   9.148
50879SOL     OW54410   0.558   6.987   3.837
50879SOL    HW154411   0.646   7.018   3.814
50879SOL    HW254412   0.536   7.036   3.916
50880SOL     OW54413  14.527  13.296   7.797
50880SOL    HW154414  14.474  13.279   7.719
50880SOL    HW254415  14.471  13.270   7.870
50881SOL     OW54416  13.775   1.166  14.334
50881SOL    HW154417  13.701   1.145  14.390
50881SOL    HW254418  13.745   1.239  14.280
50882SOL     OW54419   6.867  13.900  10.559
50882SOL    HW154420   6.791  13.915  10.503
50882SOL    HW254421   6.940  13.889  10.498
50883SOL     OW54422   5.851   0.993   5.631
50883SOL    HW154423   5.811   0.908   5.613
50883SOL    HW254424   5.787   1.056   5.598
50884SOL     OW54425   9.825  14.850   0.699
50884SOL    HW154426   9.835   0.051   0.746
50884SOL    HW254427   9.882  14.859   0.622
50885SOL     OW54428  12.920   5.120  14.374
50885SOL    HW154429  13.013   5.132  14.392
50885SOL    HW254430  12.876   5.167  14.445
50886SOL     OW54431   7.574   6.017   9.658
50886SOL    HW154432   7.493   6.061   9.683
50886SOL    HW254433   7.637   6.088   9.645
50887SOL     OW54434  10.225  11.854  12.769
50887SOL    HW154435  10.262  11.906  12.698
50887SOL    HW254436  10.263  11.767  12.758
50888SOL     OW54437   4.340  12.706  12.696
50888SOL    HW154438   4.335  12.675  12.786
50888SOL    HW254439   4.342  12.801  12.703
50889SOL     OW54440  12.941   7.465   8.736
50889SOL    HW154441  12.855   7.424   8.726
50889SOL    HW254442  12.926   7.539   8.795
50890SOL     OW54443   4.292  10.579  13.857
50890SOL    HW154444   4.269  10.490  13.830
50890SOL    HW254445   4.320  10.622  13.777
50891SOL     OW54446   5.359  10.594  14.296
50891SOL    HW154447   5.338  10.687  14.286
50891SOL    HW254448   5.275  10.549  14.291
50892SOL     OW54449   7.425  14.494   4.382
50892SOL    HW154450   7.387  14.502   4.294
50892SOL    HW254451   7.407  14.404   4.408
50893SOL     OW54452   1.050   5.904   0.881
50893SOL    HW154453   1.073   5.967   0.949
50893SOL    HW254454   0.956   5.916   0.868
50894SOL     OW54455   4.579   5.994   7.741
50894SOL    HW154456   4.505   6.050   7.763
50894SOL    HW254457   4.648   6.021   7.802
50895SOL     OW54458   8.455  13.225   9.743
50895SOL    HW154459   8.399  13.237   9.666
50895SOL    HW254460   8.470  13.131   9.747
50896SOL     OW54461   6.822  11.837  14.854
50896SOL    HW154462   6.913  11.868  14.861
50896SOL    HW254463   6.785  11.887  14.781
50897SOL     OW54464   1.078  12.251   3.198
50897SOL    HW154465   1.158  12.279   3.243
50897SOL    HW254466   1.042  12.182   3.254
50898SOL     OW54467  12.233   3.640  11.135
50898SOL    HW154468  12.202   3.700  11.067
50898SOL    HW254469  12.278   3.697  11.198
50899SOL     OW54470   8.105   3.237  13.885
50899SOL    HW154471   8.068   3.178  13.951
50899SOL    HW254472   8.199   3.224  13.890
50900SOL     OW54473   5.656   2.615   1.915
50900SOL    HW154474   5.748   2.638   1.929
50900SOL    HW254475   5.651   2.522   1.939
50901SOL     OW54476   3.788   9.913  13.358
50901SOL    HW154477   3.697   9.929  13.332
50901SOL    HW254478   3.815   9.993  13.402
50902SOL     OW54479   6.877   5.092  12.226
50902SOL    HW154480   6.917   5.093  12.139
50902SOL    HW254481   6.873   5.184  12.252
50903SOL     OW54482  12.273   7.475   7.808
50903SOL    HW154483  12.303   7.517   7.727
50903SOL    HW254484  12.178   7.465   7.796
50904SOL     OW54485  10.334   6.392   8.169
50904SOL    HW154486  10.354   6.369   8.079
50904SOL    HW254487  10.243   6.420   8.168
50905SOL     OW54488  14.514   4.761   0.355
50905SOL    HW154489  14.541   4.669   0.367
50905SOL    HW254490  14.432   4.755   0.307
50906SOL     OW54491   1.194   0.498   4.404
50906SOL    HW154492   1.207   0.449   4.323
50906SOL    HW254493   1.147   0.437   4.461
50907SOL     OW54494  10.436   6.638  11.720
50907SOL    HW154495  10.365   6.577  11.736
50907SOL    HW254496  10.428   6.661  11.628
50908SOL     OW54497  12.479   0.660  13.976
50908SOL    HW154498  12.451   0.591  14.035
50908SOL    HW254499  12.526   0.614  13.906
50909SOL     OW54500   5.994  11.802   8.394
50909SOL    HW154501   5.988  11.801   8.490
50909SOL    HW254502   6.013  11.711   8.370
50910SOL     OW54503   2.154   4.021  10.063
50910SOL    HW154504   2.234   4.011  10.010
50910SOL    HW254505   2.124   3.932  10.078
50911SOL     OW54506   6.308  12.543  12.254
50911SOL    HW154507   6.306  12.583  12.167
50911SOL    HW254508   6.323  12.617  12.313
50912SOL     OW54509   7.921   2.390   6.210
50912SOL    HW154510   8.000   2.354   6.252
50912SOL    HW254511   7.890   2.320   6.153
50913SOL     OW54512  13.340  10.388   2.153
50913SOL    HW154513  13.293  10.350   2.079
50913SOL    HW254514  13.373  10.314   2.202
50914SOL     OW54515   8.195   2.400   6.317
50914SOL    HW154516   8.226   2.312   6.296
50914SOL    HW254517   8.209   2.451   6.237
50915SOL     OW54518  10.169   0.111  10.861
50915SOL    HW154519  10.141   0.164  10.786
50915SOL    HW254520  10.150   0.021  10.835
50916SOL     OW54521  13.377   5.145   8.749
50916SOL    HW154522  13.346   5.054   8.749
50916SOL    HW254523  13.364   5.174   8.659
50917SOL     OW54524   0.299   6.497  14.845
50917SOL    HW154525   0.273   6.588  14.857
50917SOL    HW254526   0.307   6.487  14.750
50918SOL     OW54527   1.182   1.293   3.026
50918SOL    HW154528   1.203   1.275   3.118
50918SOL    HW254529   1.267   1.307   2.984
50919SOL     OW54530   9.865   7.810  14.275
50919SOL    HW154531   9.879   7.718  14.294
50919SOL    HW254532   9.781   7.831  14.315
50920SOL     OW54533   5.024   3.132   9.922
50920SOL    HW154534   5.009   3.126   9.827
50920SOL    HW254535   4.982   3.214   9.948
50921SOL     OW54536   6.429   1.277  11.740
50921SOL    HW154537   6.362   1.265  11.673
50921SOL    HW254538   6.412   1.208  11.804
50922SOL     OW54539  13.756  12.915   3.438
50922SOL    HW154540  13.801  12.949   3.516
50922SOL    HW254541  13.708  12.839   3.470
50923SOL     OW54542   4.540   8.695  12.678
50923SOL    HW154543   4.476   8.765  12.667
50923SOL    HW254544   4.521   8.634  12.606
50924SOL     OW54545  14.871   1.671   9.854
50924SOL    HW154546  14.857   1.655   9.947
50924SOL    HW254547  14.824   1.752   9.836
50925SOL     OW54548   3.715   3.012  11.770
50925SOL    HW154549   3.803   2.975  11.759
50925SOL    HW254550   3.695   2.998  11.863
50926SOL     OW54551   5.620   1.684   0.992
50926SOL    HW154552   5.620   1.753   1.058
50926SOL    HW254553   5.564   1.616   1.028
50927SOL     OW54554   4.330  14.855   1.902
50927SOL    HW154555   4.299  14.764   1.906
50927SOL    HW254556   4.282   0.017   1.973
50928SOL     OW54557   0.617   2.338  14.117
50928SOL    HW154558   0.547   2.350  14.182
50928SOL    HW254559   0.627   2.243  14.111
50929SOL     OW54560   3.201  10.948  14.666
50929SOL    HW154561   3.211  10.870  14.720
50929SOL    HW254562   3.217  10.918  14.577
50930SOL     OW54563   3.271   8.003   3.931
50930SOL    HW154564   3.234   8.025   4.016
50930SOL    HW254565   3.314   8.084   3.902
50931SOL     OW54566   8.602   0.391  10.857
50931SOL    HW154567   8.538   0.422  10.922
50931SOL    HW254568   8.592   0.451  10.783
50932SOL     OW54569  13.985   9.081   5.805
50932SOL    HW154570  13.946   8.994   5.808
50932SOL    HW254571  13.926   9.132   5.750
50933SOL     OW54572  13.573  14.175   1.915
50933SOL    HW154573  13.499  14.137   1.868
50933SOL    HW254574  13.631  14.208   1.846
50934SOL     OW54575  11.157  14.651   3.450
50934SOL    HW154576  11.253  14.657   3.450
50934SOL    HW254577  11.139  14.563   3.484
50935SOL     OW54578   8.567   4.893   2.344
50935SOL    HW154579   8.529   4.808   2.365
50935SOL    HW254580   8.631   4.909   2.413
50936SOL     OW54581   4.141   6.661   1.434
50936SOL    HW154582   4.170   6.575   1.463
50936SOL    HW254583   4.189   6.723   1.489
50937SOL     OW54584   0.549  13.887  10.989
50937SOL    HW154585   0.554  13.958  10.925
50937SOL    HW254586   0.604  13.918  11.062
50938SOL     OW54587   2.913   3.982   8.798
50938SOL    HW154588   2.888   3.979   8.706
50938SOL    HW254589   2.866   3.909   8.839
50939SOL     OW54590  11.664   6.221   6.707
50939SOL    HW154591  11.687   6.155   6.642
50939SOL    HW254592  11.630   6.171   6.781
50940SOL     OW54593  12.863   3.718   1.264
50940SOL    HW154594  12.946   3.716   1.312
50940SOL    HW254595  12.889   3.736   1.173
50941SOL     OW54596   1.434  11.003   4.115
50941SOL    HW154597   1.482  10.933   4.158
50941SOL    HW254598   1.341  10.984   4.132
50942SOL     OW54599  10.987   6.248   2.811
50942SOL    HW154600  10.921   6.239   2.742
50942SOL    HW254601  11.055   6.303   2.771
50943SOL     OW54602  13.488   3.560  10.890
50943SOL    HW154603  13.572   3.596  10.917
50943SOL    HW254604  13.510   3.483  10.838
50944SOL     OW54605   1.414  10.120   9.168
50944SOL    HW154606   1.428  10.056   9.099
50944SOL    HW254607   1.346  10.178   9.132
50945SOL     OW54608   5.313  12.240  12.533
50945SOL    HW154609   5.235  12.196  12.566
50945SOL    HW254610   5.286  12.281  12.451
50946SOL     OW54611   6.697   5.595   7.661
50946SOL    HW154612   6.679   5.651   7.736
50946SOL    HW254613   6.745   5.520   7.698
50947SOL     OW54614   8.890   4.186   9.706
50947SOL    HW154615   8.832   4.228   9.642
50947SOL    HW254616   8.952   4.137   9.652
50948SOL     OW54617   3.195  10.565   7.641
50948SOL    HW154618   3.134  10.562   7.715
50948SOL    HW254619   3.175  10.487   7.590
50949SOL     OW54620   1.694   8.037  14.696
50949SOL    HW154621   1.633   8.109  14.715
50949SOL    HW254622   1.696   8.031  14.600
50950SOL     OW54623   6.176   3.592  14.650
50950SOL    HW154624   6.181   3.675  14.697
50950SOL    HW254625   6.086   3.590  14.616
50951SOL     OW54626   2.434   9.823  14.543
50951SOL    HW154627   2.378   9.898  14.562
50951SOL    HW254628   2.393   9.781  14.467
50952SOL     OW54629   1.897   7.208   0.562
50952SOL    HW154630   1.990   7.223   0.546
50952SOL    HW254631   1.853   7.245   0.486
50953SOL     OW54632  13.711  12.408  14.370
50953SOL    HW154633  13.725  12.497  14.337
50953SOL    HW254634  13.796  12.381  14.405
50954SOL     OW54635  14.680  13.917   3.732
50954SOL    HW154636  14.648  13.992   3.782
50954SOL    HW254637  14.601  13.871   3.706
50955SOL     OW54638   4.081   4.292   8.379
50955SOL    HW154639   4.038   4.328   8.302
50955SOL    HW254640   4.011   4.245   8.425
50956SOL     OW54641   4.798   7.137  10.586
50956SOL    HW154642   4.830   7.109  10.500
50956SOL    HW254643   4.871   7.120  10.645
50957SOL     OW54644   2.069   2.384   6.640
50957SOL    HW154645   2.122   2.443   6.587
50957SOL    HW254646   1.992   2.436   6.664
50958SOL     OW54647  10.986   2.106   3.052
50958SOL    HW154648  10.893   2.086   3.064
50958SOL    HW254649  11.028   2.074   3.131
50959SOL     OW54650   8.215   6.520   9.397
50959SOL    HW154651   8.198   6.485   9.310
50959SOL    HW254652   8.305   6.495   9.416
50960SOL     OW54653   3.999   7.393   7.845
50960SOL    HW154654   4.087   7.403   7.808
50960SOL    HW254655   3.976   7.302   7.826
50961SOL     OW54656  11.808  12.571   3.790
50961SOL    HW154657  11.858  12.637   3.840
50961SOL    HW254658  11.717  12.587   3.814
50962SOL     OW54659   2.197  13.311  14.797
50962SOL    HW154660   2.153  13.228  14.782
50962SOL    HW254661   2.181  13.362  14.718
50963SOL     OW54662   0.711   2.128   2.098
50963SOL    HW154663   0.708   2.189   2.171
50963SOL    HW254664   0.673   2.047   2.132
50964SOL     OW54665   0.417   0.379   1.418
50964SOL    HW154666   0.443   0.316   1.352
50964SOL    HW254667   0.473   0.360   1.493
50965SOL     OW54668  13.616   2.986   2.789
50965SOL    HW154669  13.661   3.046   2.729
50965SOL    HW254670  13.561   3.043   2.843
50966SOL     OW54671   2.401  12.545  12.938
50966SOL    HW154672   2.470  12.563  12.874
50966SOL    HW254673   2.446  12.509  13.014
50967SOL     OW54674   7.247   7.507   8.705
50967SOL    HW154675   7.200   7.438   8.752
50967SOL    HW254676   7.183   7.541   8.642
50968SOL     OW54677   2.427   4.218   6.040
50968SOL    HW154678   2.378   4.162   6.100
50968SOL    HW254679   2.361   4.252   5.980
50969SOL     OW54680   4.097   7.427   1.082
50969SOL    HW154681   4.003   7.445   1.093
50969SOL    HW254682   4.118   7.365   1.151
50970SOL     OW54683   0.250  14.288   3.359
50970SOL    HW154684   0.178  14.259   3.304
50970SOL    HW254685   0.235  14.381   3.372
50971SOL     OW54686  11.454   4.377   3.733
50971SOL    HW154687  11.438   4.308   3.798
50971SOL    HW254688  11.416   4.344   3.652
50972SOL     OW54689   2.052   2.296  14.114
50972SOL    HW154690   1.985   2.364  14.123
50972SOL    HW254691   2.106   2.325  14.040
50973SOL     OW54692   9.032   1.617   6.126
50973SOL    HW154693   8.987   1.532   6.128
50973SOL    HW254694   9.042   1.640   6.218
50974SOL     OW54695   5.514   2.608   7.621
50974SOL    HW154696   5.454   2.660   7.676
50974SOL    HW254697   5.467   2.526   7.607
50975SOL     OW54698  14.212   0.572   9.094
50975SOL    HW154699  14.140   0.614   9.141
50975SOL    HW254700  14.179   0.562   9.005
50976SOL     OW54701  13.452  12.964   5.781
50976SOL    HW154702  13.512  12.938   5.711
50976SOL    HW254703  13.502  13.027   5.833
50977SOL     OW54704  13.649   4.612  10.315
50977SOL    HW154705  13.570   4.627  10.263
50977SOL    HW254706  13.669   4.520  10.301
50978SOL     OW54707   4.169   0.097   7.031
50978SOL    HW154708   4.105   0.037   6.994
50978SOL    HW254709   4.211   0.047   7.101
50979SOL     OW54710  12.629   6.609   6.315
50979SOL    HW154711  12.714   6.576   6.344
50979SOL    HW254712  12.573   6.602   6.393
50980SOL     OW54713   1.841  12.958  14.870
50980SOL    HW154714   1.759  12.932  14.828
50980SOL    HW254715   1.833  13.052   0.001
50981SOL     OW54716   4.348   2.958  13.602
50981SOL    HW154717   4.418   2.988  13.544
50981SOL    HW254718   4.386   2.884  13.650
50982SOL     OW54719   9.803  10.674  10.082
50982SOL    HW154720   9.829  10.632  10.164
50982SOL    HW254721   9.800  10.767  10.103
50983SOL     OW54722  12.410  13.694  11.221
50983SOL    HW154723  12.492  13.744  11.223
50983SOL    HW254724  12.353  13.739  11.283
50984SOL     OW54725   7.944   9.522   2.457
50984SOL    HW154726   7.979   9.607   2.429
50984SOL    HW254727   7.859   9.542   2.497
50985SOL     OW54728   8.973  14.486   8.532
50985SOL    HW154729   8.880  14.502   8.514
50985SOL    HW254730   8.984  14.392   8.515
50986SOL     OW54731   0.296   9.442   9.159
50986SOL    HW154732   0.330   9.394   9.234
50986SOL    HW254733   0.202   9.445   9.173
50987SOL     OW54734   8.901   4.067   2.564
50987SOL    HW154735   8.836   4.093   2.498
50987SOL    HW254736   8.952   4.147   2.579
50988SOL     OW54737   1.902   9.056   7.018
50988SOL    HW154738   1.865   9.101   6.942
50988SOL    HW254739   1.854   8.973   7.023
50989SOL     OW54740   5.561  11.423  13.335
50989SOL    HW154741   5.472  11.419  13.371
50989SOL    HW254742   5.555  11.378  13.251
50990SOL     OW54743  14.219   6.200  12.664
50990SOL    HW154744  14.212   6.118  12.715
50990SOL    HW254745  14.252   6.173  12.579
50991SOL     OW54746   4.102   6.785  11.439
50991SOL    HW154747   4.177   6.845  11.431
50991SOL    HW254748   4.132   6.718  11.500
50992SOL     OW54749   5.921   3.390   4.327
50992SOL    HW154750   5.872   3.460   4.283
50992SOL    HW254751   5.975   3.435   4.392
50993SOL     OW54752  13.218   6.461  14.260
50993SOL    HW154753  13.311   6.440  14.258
50993SOL    HW254754  13.176   6.379  14.287
50994SOL     OW54755   7.867  10.335   5.225
50994SOL    HW154756   7.850  10.241   5.217
50994SOL    HW254757   7.919  10.344   5.305
50995SOL     OW54758   5.201   7.506   9.382
50995SOL    HW154759   5.261   7.539   9.449
50995SOL    HW254760   5.223   7.413   9.374
50996SOL     OW54761   7.609  13.208  11.321
50996SOL    HW154762   7.538  13.232  11.380
50996SOL    HW254763   7.677  13.274  11.335
50997SOL     OW54764   1.530  12.188  11.189
50997SOL    HW154765   1.601  12.124  11.196
50997SOL    HW254766   1.512  12.193  11.095
50998SOL     OW54767  14.654   7.267   1.303
50998SOL    HW154768  14.640   7.355   1.340
50998SOL    HW254769  14.594   7.263   1.228
50999SOL     OW54770   8.728  11.865  12.270
50999SOL    HW154771   8.707  11.881  12.178
50999SOL    HW254772   8.710  11.772  12.282
51000SOL     OW54773  13.864   9.961   9.004
51000SOL    HW154774  13.957   9.948   8.989
51000SOL    HW254775  13.823   9.879   8.976
51001SOL     OW54776  10.028   7.677   3.030
51001SOL    HW154777  10.054   7.668   3.122
51001SOL    HW254778  10.056   7.765   3.006
51002SOL     OW54779  13.574   4.567   9.639
51002SOL    HW154780  13.561   4.476   9.665
51002SOL    HW254781  13.651   4.596   9.688
51003SOL     OW54782   6.750   5.305   4.474
51003SOL    HW154783   6.720   5.283   4.562
51003SOL    HW254784   6.821   5.243   4.457
51004SOL     OW54785  13.655  11.299   2.004
51004SOL    HW154786  13.727  11.236   2.008
51004SOL    HW254787  13.655  11.340   2.091
51005SOL     OW54788  13.956  12.214   1.604
51005SOL    HW154789  13.998  12.131   1.579
51005SOL    HW254790  13.936  12.256   1.520
51006SOL     OW54791   0.191   4.237   1.409
51006SOL    HW154792   0.204   4.193   1.325
51006SOL    HW254793   0.275   4.228   1.454
51007SOL     OW54794  11.345   0.873   4.143
51007SOL    HW154795  11.387   0.818   4.210
51007SOL    HW254796  11.268   0.908   4.187
51008SOL     OW54797   3.804   4.527   1.297
51008SOL    HW154798   3.881   4.543   1.352
51008SOL    HW254799   3.789   4.610   1.252
51009SOL     OW54800   6.450  10.110  13.971
51009SOL    HW154801   6.509  10.177  13.937
51009SOL    HW254802   6.387  10.096  13.901
51010SOL     OW54803  11.294  13.086  14.608
51010SOL    HW154804  11.372  13.056  14.655
51010SOL    HW254805  11.288  13.030  14.531
51011SOL     OW54806  10.490  13.565  14.440
51011SOL    HW154807  10.547  13.512  14.385
51011SOL    HW254808  10.543  13.640  14.465
51012SOL     OW54809   9.771  13.744  13.130
51012SOL    HW154810   9.850  13.735  13.076
51012SOL    HW254811   9.708  13.789  13.073
51013SOL     OW54812   1.227   7.671   4.780
51013SOL    HW154813   1.161   7.664   4.848
51013SOL    HW254814   1.311   7.671   4.827
51014SOL     OW54815   1.637   0.439   0.973
51014SOL    HW154816   1.609   0.527   1.001
51014SOL    HW254817   1.569   0.381   1.005
51015SOL     OW54818   0.431   6.260   3.601
51015SOL    HW154819   0.413   6.352   3.622
51015SOL    HW254820   0.398   6.211   3.676
51016SOL     OW54821   2.513   5.509  12.536
51016SOL    HW154822   2.437   5.498  12.479
51016SOL    HW254823   2.583   5.537  12.478
51017SOL     OW54824  14.541   0.190   5.312
51017SOL    HW154825  14.545   0.286   5.306
51017SOL    HW254826  14.463   0.166   5.261
51018SOL     OW54827   3.943  14.161   4.158
51018SOL    HW154828   3.981  14.099   4.220
51018SOL    HW254829   3.966  14.126   4.072
51019SOL     OW54830   1.558   8.078   4.916
51019SOL    HW154831   1.497   8.125   4.972
51019SOL    HW254832   1.645   8.103   4.949
51020SOL     OW54833   5.692   4.288   8.762
51020SOL    HW154834   5.705   4.273   8.669
51020SOL    HW254835   5.598   4.273   8.776
51021SOL     OW54836   8.968  13.676   3.515
51021SOL    HW154837   8.964  13.772   3.513
51021SOL    HW254838   9.062  13.657   3.523
51022SOL     OW54839   5.546   3.195   8.156
51022SOL    HW154840   5.559   3.288   8.172
51022SOL    HW254841   5.537   3.187   8.061
51023SOL     OW54842   6.516  14.525   1.107
51023SOL    HW154843   6.427  14.535   1.141
51023SOL    HW254844   6.508  14.546   1.014
51024SOL     OW54845   7.828  11.467   5.753
51024SOL    HW154846   7.831  11.373   5.770
51024SOL    HW254847   7.819  11.474   5.658
51025SOL     OW54848   1.320   8.848   8.911
51025SOL    HW154849   1.282   8.818   8.993
51025SOL    HW254850   1.404   8.802   8.905
51026SOL     OW54851  10.197   1.145   6.922
51026SOL    HW154852  10.196   1.221   6.980
51026SOL    HW254853  10.193   1.183   6.834
51027SOL     OW54854   5.025   5.274  12.042
51027SOL    HW154855   5.120   5.264  12.042
51027SOL    HW254856   5.002   5.279  11.949
51028SOL     OW54857   2.627   3.436  12.762
51028SOL    HW154858   2.610   3.344  12.742
51028SOL    HW254859   2.721   3.441  12.775
51029SOL     OW54860  12.368   2.041   1.353
51029SOL    HW154861  12.461   2.030   1.369
51029SOL    HW254862  12.361   2.118   1.297
51030SOL     OW54863   7.724   9.307   7.867
51030SOL    HW154864   7.661   9.367   7.908
51030SOL    HW254865   7.694   9.301   7.776
51031SOL     OW54866   7.978  14.504   6.331
51031SOL    HW154867   7.916  14.440   6.297
51031SOL    HW254868   8.058  14.453   6.346
51032SOL     OW54869   9.559   7.685   7.983
51032SOL    HW154870   9.476   7.724   8.013
51032SOL    HW254871   9.626   7.738   8.026
51033SOL     OW54872   1.529   9.975  11.480
51033SOL    HW154873   1.445   9.996  11.438
51033SOL    HW254874   1.558  10.057  11.519
51034SOL     OW54875  11.904   0.961   1.971
51034SOL    HW154876  11.929   0.955   1.878
51034SOL    HW254877  11.811   0.938   1.973
51035SOL     OW54878  12.604   8.321   5.523
51035SOL    HW154879  12.560   8.356   5.446
51035SOL    HW254880  12.560   8.362   5.597
51036SOL     OW54881   7.253  14.333   3.690
51036SOL    HW154882   7.277  14.410   3.638
51036SOL    HW254883   7.191  14.366   3.755
51037SOL     OW54884   7.830   3.468   7.640
51037SOL    HW154885   7.753   3.463   7.697
51037SOL    HW254886   7.819   3.397   7.577
51038SOL     OW54887   6.684   1.310  14.326
51038SOL    HW154888   6.699   1.256  14.249
51038SOL    HW254889   6.655   1.249  14.394
51039SOL     OW54890  11.232   0.131   0.682
51039SOL    HW154891  11.280   0.053   0.711
51039SOL    HW254892  11.298   0.187   0.643
51040SOL     OW54893  12.604   2.836  13.991
51040SOL    HW154894  12.601   2.856  13.897
51040SOL    HW254895  12.529   2.779  14.006
51041SOL     OW54896   0.910   1.161   9.129
51041SOL    HW154897   0.936   1.073   9.156
51041SOL    HW254898   0.818   1.152   9.106
51042SOL     OW54899  11.813   1.438   4.571
51042SOL    HW154900  11.785   1.351   4.599
51042SOL    HW254901  11.749   1.497   4.611
51043SOL     OW54902  11.601   6.775   5.693
51043SOL    HW154903  11.532   6.806   5.635
51043SOL    HW254904  11.671   6.841   5.685
51044SOL     OW54905  14.646   9.858   0.070
51044SOL    HW154906  14.584   9.916   0.114
51044SOL    HW254907  14.594   9.782   0.045
51045SOL     OW54908   8.747   2.629  10.624
51045SOL    HW154909   8.658   2.657  10.605
51045SOL    HW254910   8.793   2.709  10.648
51046SOL     OW54911  14.617   1.837   3.392
51046SOL    HW154912  14.530   1.877   3.384
51046SOL    HW254913  14.603   1.745   3.369
51047SOL     OW54914   3.406  12.895   9.600
51047SOL    HW154915   3.411  12.978   9.552
51047SOL    HW254916   3.483  12.846   9.569
51048SOL     OW54917   0.997   4.258  11.578
51048SOL    HW154918   1.061   4.196  11.543
51048SOL    HW254919   0.998   4.242  11.672
51049SOL     OW54920   7.428   2.260  11.165
51049SOL    HW154921   7.455   2.236  11.253
51049SOL    HW254922   7.477   2.339  11.145
51050SOL     OW54923   0.031   4.657   5.518
51050SOL    HW154924   0.100   4.703   5.470
51050SOL    HW254925  14.848   4.634   5.452
51051SOL     OW54926   0.155  11.856   9.277
51051SOL    HW154927   0.208  11.927   9.313
51051SOL    HW254928   0.216  11.785   9.262
51052SOL     OW54929   5.399   4.930  10.671
51052SOL    HW154930   5.474   4.892  10.624
51052SOL    HW254931   5.436   4.966  10.751
51053SOL     OW54932   8.708   0.393  12.986
51053SOL    HW154933   8.623   0.386  12.942
51053SOL    HW254934   8.744   0.476  12.954
51054SOL     OW54935   4.134  12.455  13.643
51054SOL    HW154936   4.138  12.540  13.600
51054SOL    HW254937   4.221  12.442  13.679
51055SOL     OW54938   8.779   8.784  13.428
51055SOL    HW154939   8.829   8.703  13.422
51055SOL    HW254940   8.688   8.757  13.416
51056SOL     OW54941  14.230  12.829  11.854
51056SOL    HW154942  14.284  12.754  11.830
51056SOL    HW254943  14.273  12.866  11.931
51057SOL     OW54944   7.875   2.734   9.001
51057SOL    HW154945   7.942   2.761   9.064
51057SOL    HW254946   7.901   2.777   8.919
51058SOL     OW54947  10.468   9.303   3.279
51058SOL    HW154948  10.496   9.389   3.311
51058SOL    HW254949  10.486   9.305   3.185
51059SOL     OW54950   9.678   5.307   3.747
51059SOL    HW154951   9.720   5.233   3.791
51059SOL    HW254952   9.585   5.284   3.746
51060SOL     OW54953  12.432   5.159   3.890
51060SOL    HW154954  12.398   5.125   3.807
51060SOL    HW254955  12.523   5.129   3.893
51061SOL     OW54956   7.477   3.590   2.654
51061SOL    HW154957   7.468   3.579   2.559
51061SOL    HW254958   7.572   3.588   2.669
51062SOL     OW54959   4.553  10.558   0.531
51062SOL    HW154960   4.629  10.587   0.479
51062SOL    HW254961   4.523  10.478   0.488
51063SOL     OW54962  14.370  13.363   1.287
51063SOL    HW154963  14.389  13.374   1.193
51063SOL    HW254964  14.334  13.448   1.314
51064SOL     OW54965   6.862   9.278   0.280
51064SOL    HW154966   6.802   9.220   0.327
51064SOL    HW254967   6.854   9.251   0.189
51065SOL     OW54968   0.569   6.531  13.771
51065SOL    HW154969   0.540   6.493  13.854
51065SOL    HW254970   0.631   6.599  13.797
51066SOL     OW54971   0.530  10.905   7.197
51066SOL    HW154972   0.529  10.937   7.107
51066SOL    HW254973   0.470  10.830   7.196
51067SOL     OW54974   2.996   7.070   7.174
51067SOL    HW154975   3.091   7.068   7.188
51067SOL    HW254976   2.963   7.002   7.233
51068SOL     OW54977   5.155  14.735  13.331
51068SOL    HW154978   5.122  14.708  13.245
51068SOL    HW254979   5.217  14.805  13.312
51069SOL     OW54980   5.122   7.005   3.102
51069SOL    HW154981   5.177   7.060   3.157
51069SOL    HW254982   5.051   6.976   3.160
51070SOL     OW54983   3.674   8.718   4.359
51070SOL    HW154984   3.698   8.752   4.446
51070SOL    HW254985   3.619   8.787   4.321
51071SOL     OW54986   4.283   1.931   6.518
51071SOL    HW154987   4.265   1.900   6.430
51071SOL    HW254988   4.275   1.854   6.573
51072SOL     OW54989   3.405   8.335   8.901
51072SOL    HW154990   3.476   8.398   8.914
51072SOL    HW254991   3.341   8.355   8.969
51073SOL     OW54992  11.306  11.678   8.817
51073SOL    HW154993  11.369  11.607   8.829
51073SOL    HW254994  11.352  11.743   8.765
51074SOL     OW54995  13.480  10.477   3.904
51074SOL    HW154996  13.543  10.490   3.833
51074SOL    HW254997  13.518  10.523   3.979
51075SOL     OW54998  12.798   4.023   5.138
51075SOL    HW154999  12.820   4.116   5.125
51075SOL    HW255000  12.737   4.003   5.067
51076SOL     OW55001   3.836  10.177   4.954
51076SOL    HW155002   3.789  10.238   4.897
51076SOL    HW255003   3.769  10.138   5.009
51077SOL     OW55004   0.237  13.932   9.809
51077SOL    HW155005   0.146  13.926   9.835
51077SOL    HW255006   0.237  13.991   9.734
51078SOL     OW55007   9.425  13.058  11.134
51078SOL    HW155008   9.501  13.097  11.178
51078SOL    HW255009   9.434  13.085  11.043
51079SOL     OW55010   0.422  13.244   3.575
51079SOL    HW155011   0.465  13.325   3.601
51079SOL    HW255012   0.402  13.199   3.657
51080SOL     OW55013  11.881   7.000   9.543
51080SOL    HW155014  11.882   6.924   9.484
51080SOL    HW255015  11.893   7.075   9.485
51081SOL     OW55016  13.588  14.455  10.253
51081SOL    HW155017  13.512  14.507  10.277
51081SOL    HW255018  13.609  14.483  10.164
51082SOL     OW55019  10.558   8.926   0.184
51082SOL    HW155020  10.602   8.923   0.099
51082SOL    HW255021  10.467   8.948   0.164
51083SOL     OW55022   5.018   5.681   6.155
51083SOL    HW155023   5.043   5.637   6.073
51083SOL    HW255024   4.952   5.745   6.128
51084SOL     OW55025   2.567   5.613   9.970
51084SOL    HW155026   2.614   5.530   9.984
51084SOL    HW255027   2.601   5.672  10.037
51085SOL     OW55028   2.784   6.101  12.585
51085SOL    HW155029   2.767   6.179  12.637
51085SOL    HW255030   2.699   6.078  12.548
51086SOL     OW55031   4.743   9.731   2.144
51086SOL    HW155032   4.833   9.754   2.168
51086SOL    HW255033   4.693   9.810   2.161
51087SOL     OW55034   8.628  10.020  10.240
51087SOL    HW155035   8.704  10.010  10.183
51087SOL    HW255036   8.643   9.959  10.312
51088SOL     OW55037   3.674   9.558   6.711
51088SOL    HW155038   3.655   9.491   6.646
51088SOL    HW255039   3.623   9.533   6.788
51089SOL     OW55040  14.402  12.167  13.293
51089SOL    HW155041  14.452  12.239  13.330
51089SOL    HW255042  14.368  12.119  13.369
51090SOL     OW55043   7.490   2.857   0.423
51090SOL    HW155044   7.504   2.762   0.431
51090SOL    HW255045   7.467   2.885   0.512
51091SOL     OW55046   5.174  10.634   6.561
51091SOL    HW155047   5.222  10.661   6.482
51091SOL    HW255048   5.083  10.656   6.542
51092SOL     OW55049   8.070   7.128   1.047
51092SOL    HW155050   8.160   7.096   1.040
51092SOL    HW255051   8.058   7.146   1.140
51093SOL     OW55052   1.268   9.476   0.978
51093SOL    HW155053   1.222   9.443   1.055
51093SOL    HW255054   1.321   9.402   0.948
51094SOL     OW55055  10.716  12.332  13.046
51094SOL    HW155056  10.650  12.400  13.057
51094SOL    HW255057  10.666  12.254  13.021
51095SOL     OW55058   9.768  11.872  10.092
51095SOL    HW155059   9.785  11.840  10.180
51095SOL    HW255060   9.805  11.960  10.091
51096SOL     OW55061   1.495   4.879   5.927
51096SOL    HW155062   1.423   4.897   5.987
51096SOL    HW255063   1.536   4.965   5.913
51097SOL     OW55064   2.378   9.145   9.560
51097SOL    HW155065   2.447   9.155   9.625
51097SOL    HW255066   2.330   9.228   9.563
51098SOL     OW55067   8.051  14.267  14.025
51098SOL    HW155068   7.990  14.246  13.954
51098SOL    HW255069   8.045  14.362  14.034
51099SOL     OW55070   0.500   7.277   8.646
51099SOL    HW155071   0.511   7.310   8.734
51099SOL    HW255072   0.579   7.303   8.599
51100SOL     OW55073  12.926   2.258  13.037
51100SOL    HW155074  12.860   2.228  12.974
51100SOL    HW255075  12.917   2.197  13.111
51101SOL     OW55076   8.388   1.841   1.450
51101SOL    HW155077   8.446   1.793   1.510
51101SOL    HW255078   8.328   1.774   1.416
51102SOL     OW55079  11.247  10.960  13.164
51102SOL    HW155080  11.155  10.986  13.155
51102SOL    HW255081  11.246  10.865  13.163
51103SOL     OW55082   1.233  13.104   0.977
51103SOL    HW155083   1.267  13.134   1.062
51103SOL    HW255084   1.281  13.156   0.912
51104SOL     OW55085   7.164   2.074   0.766
51104SOL    HW155086   7.145   2.061   0.859
51104SOL    HW255087   7.078   2.079   0.725
51105SOL     OW55088   0.787   1.940   1.453
51105SOL    HW155089   0.692   1.948   1.458
51105SOL    HW255090   0.818   2.025   1.422
51106SOL     OW55091   8.136   9.236   9.991
51106SOL    HW155092   8.070   9.290   9.946
51106SOL    HW255093   8.084   9.173  10.041
51107SOL     OW55094  11.520  14.685   2.568
51107SOL    HW155095  11.502  14.776   2.544
51107SOL    HW255096  11.557  14.690   2.657
51108SOL     OW55097   7.149  11.761  13.032
51108SOL    HW155098   7.200  11.811  12.969
51108SOL    HW255099   7.067  11.741  12.986
51109SOL     OW55100   7.482   2.602   6.092
51109SOL    HW155101   7.441   2.634   6.012
51109SOL    HW255102   7.431   2.641   6.162
51110SOL     OW55103   0.502   5.540   5.650
51110SOL    HW155104   0.446   5.490   5.710
51110SOL    HW255105   0.517   5.623   5.696
51111SOL     OW55106   5.013  11.605  10.659
51111SOL    HW155107   4.996  11.695  10.630
51111SOL    HW255108   5.007  11.610  10.755
51112SOL     OW55109   2.034   8.891   2.047
51112SOL    HW155110   2.071   8.841   1.973
51112SOL    HW255111   2.019   8.979   2.011
51113SOL     OW55112   5.217   1.455   0.667
51113SOL    HW155113   5.254   1.409   0.743
51113SOL    HW255114   5.284   1.517   0.642
51114SOL     OW55115   0.447   4.130   2.177
51114SOL    HW155116   0.394   4.154   2.254
51114SOL    HW255117   0.425   4.038   2.161
51115SOL     OW55118   7.073   5.964   6.421
51115SOL    HW155119   7.133   5.890   6.430
51115SOL    HW255120   7.121   6.038   6.459
51116SOL     OW55121   2.526   9.001   2.452
51116SOL    HW155122   2.527   8.963   2.363
51116SOL    HW255123   2.552   8.928   2.508
51117SOL     OW55124   4.777   8.261   2.277
51117SOL    HW155125   4.799   8.340   2.327
51117SOL    HW255126   4.694   8.232   2.314
51118SOL     OW55127   3.129   2.831   8.992
51118SOL    HW155128   3.092   2.865   8.911
51118SOL    HW255129   3.193   2.766   8.964
51119SOL     OW55130   1.729  11.172  11.570
51119SOL    HW155131   1.669  11.221  11.513
51119SOL    HW255132   1.816  11.202  11.543
51120SOL     OW55133   1.482  14.389   4.528
51120SOL    HW155134   1.460  14.318   4.468
51120SOL    HW255135   1.475  14.350   4.615
51121SOL     OW55136  14.221   6.680   4.741
51121SOL    HW155137  14.251   6.599   4.782
51121SOL    HW255138  14.245   6.748   4.804
51122SOL     OW55139   9.952   6.670   4.583
51122SOL    HW155140   9.931   6.760   4.558
51122SOL    HW255141   9.911   6.617   4.514
51123SOL     OW55142   4.502   0.486   9.083
51123SOL    HW155143   4.593   0.483   9.053
51123SOL    HW255144   4.456   0.424   9.027
51124SOL     OW55145   4.318  14.359   4.239
51124SOL    HW155146   4.395  14.392   4.285
51124SOL    HW255147   4.309  14.416   4.163
51125SOL     OW55148  12.354  14.180  13.188
51125SOL    HW155149  12.347  14.273  13.210
51125SOL    HW255150  12.273  14.160  13.141
51126SOL     OW55151  11.879   1.630   5.866
51126SOL    HW155152  11.901   1.563   5.931
51126SOL    HW255153  11.964   1.657   5.830
51127SOL     OW55154  13.229   5.637  10.251
51127SOL    HW155155  13.194   5.655  10.339
51127SOL    HW255156  13.186   5.700  10.194
51128SOL     OW55157   8.916  10.855   3.109
51128SOL    HW155158   8.943  10.940   3.075
51128SOL    HW255159   8.951  10.792   3.046
51129SOL     OW55160  12.010   2.842  13.551
51129SOL    HW155161  11.974   2.829  13.639
51129SOL    HW255162  11.935   2.868  13.498
51130SOL     OW55163   6.060  14.874   0.556
51130SOL    HW155164   6.024  14.840   0.474
51130SOL    HW255165   6.035  14.810   0.622
51131SOL     OW55166  11.474  14.004   5.574
51131SOL    HW155167  11.532  13.929   5.560
51131SOL    HW255168  11.435  14.020   5.489
51132SOL     OW55169  10.165   2.687  11.269
51132SOL    HW155170  10.099   2.748  11.302
51132SOL    HW255171  10.114   2.615  11.233
51133SOL     OW55172  10.684  12.582   0.345
51133SOL    HW155173  10.752  12.649   0.350
51133SOL    HW255174  10.659  12.566   0.437
51134SOL     OW55175  12.981  12.488   0.890
51134SOL    HW155176  12.955  12.398   0.868
51134SOL    HW255177  12.944  12.541   0.819
51135SOL     OW55178   6.810   6.863   1.240
51135SOL    HW155179   6.807   6.943   1.187
51135SOL    HW255180   6.764   6.886   1.321
51136SOL     OW55181   2.217   1.766   4.448
51136SOL    HW155182   2.215   1.754   4.543
51136SOL    HW255183   2.168   1.847   4.434
51137SOL     OW55184   6.303   6.281  12.095
51137SOL    HW155185   6.270   6.318  12.013
51137SOL    HW255186   6.278   6.188  12.090
51138SOL     OW55187   3.572   0.520   0.253
51138SOL    HW155188   3.631   0.473   0.193
51138SOL    HW255189   3.631   0.571   0.308
51139SOL     OW55190   5.305  11.316   8.428
51139SOL    HW155191   5.331  11.269   8.349
51139SOL    HW255192   5.386  11.323   8.479
51140SOL     OW55193   1.857  10.140   3.107
51140SOL    HW155194   1.884  10.087   3.032
51140SOL    HW255195   1.928  10.129   3.170
51141SOL     OW55196   7.309  14.211  13.732
51141SOL    HW155197   7.360  14.130  13.739
51141SOL    HW255198   7.365  14.277  13.773
51142SOL     OW55199   4.560  14.115   4.408
51142SOL    HW155200   4.593  14.115   4.318
51142SOL    HW255201   4.546  14.208   4.428
51143SOL     OW55202   8.081   3.440  13.373
51143SOL    HW155203   8.033   3.358  13.370
51143SOL    HW255204   8.165   3.421  13.331
51144SOL     OW55205   2.517   8.875   2.194
51144SOL    HW155206   2.427   8.846   2.180
51144SOL    HW255207   2.562   8.798   2.227
51145SOL     OW55208   3.111  10.795   2.398
51145SOL    HW155209   3.028  10.760   2.430
51145SOL    HW255210   3.138  10.858   2.466
51146SOL     OW55211  11.997   5.959   8.246
51146SOL    HW155212  12.008   6.045   8.208
51146SOL    HW255213  11.906   5.936   8.227
51147SOL     OW55214   9.893  12.458   0.431
51147SOL    HW155215   9.868  12.456   0.339
51147SOL    HW255216   9.892  12.366   0.459
51148SOL     OW55217   9.179   4.299  10.779
51148SOL    HW155218   9.126   4.272  10.704
51148SOL    HW255219   9.196   4.392  10.763
51149SOL     OW55220   5.740   1.223   9.596
51149SOL    HW155221   5.823   1.207   9.640
51149SOL    HW255222   5.678   1.239   9.667
51150SOL     OW55223   4.895   5.724   9.702
51150SOL    HW155224   4.973   5.746   9.651
51150SOL    HW255225   4.922   5.735   9.793
51151SOL     OW55226   2.581  13.080   0.689
51151SOL    HW155227   2.664  13.070   0.642
51151SOL    HW255228   2.573  13.174   0.703
51152SOL     OW55229   6.081   7.472  14.245
51152SOL    HW155230   6.140   7.402  14.275
51152SOL    HW255231   6.080   7.463  14.150
51153SOL     OW55232  12.366  11.026  14.296
51153SOL    HW155233  12.394  11.027  14.387
51153SOL    HW255234  12.290  11.084  14.293
51154SOL     OW55235   0.060   8.147  11.345
51154SOL    HW155236   0.102   8.112  11.423
51154SOL    HW255237   0.029   8.234  11.371
51155SOL     OW55238  12.044  13.086  12.027
51155SOL    HW155239  12.022  13.047  11.943
51155SOL    HW255240  12.139  13.073  12.035
51156SOL     OW55241   6.573   9.231   9.257
51156SOL    HW155242   6.648   9.175   9.238
51156SOL    HW255243   6.575   9.243   9.352
51157SOL     OW55244   1.555   8.032   1.630
51157SOL    HW155245   1.517   8.050   1.716
51157SOL    HW255246   1.501   8.082   1.569
51158SOL     OW55247   5.508   5.751   7.840
51158SOL    HW155248   5.559   5.678   7.805
51158SOL    HW255249   5.552   5.829   7.806
51159SOL     OW55250   6.058  10.608   0.222
51159SOL    HW155251   6.038  10.648   0.307
51159SOL    HW255252   5.973  10.599   0.179
51160SOL     OW55253  14.183   9.792  11.140
51160SOL    HW155254  14.089   9.787  11.159
51160SOL    HW255255  14.224   9.786  11.226
51161SOL     OW55256   6.063   3.424  13.003
51161SOL    HW155257   6.135   3.371  12.969
51161SOL    HW255258   6.060   3.403  13.097
51162SOL     OW55259   7.936   4.694   5.422
51162SOL    HW155260   8.023   4.701   5.382
51162SOL    HW255261   7.928   4.602   5.447
51163SOL     OW55262   4.111   1.004  13.267
51163SOL    HW155263   4.156   1.035  13.346
51163SOL    HW255264   4.182   0.984  13.205
51164SOL     OW55265   4.951  14.316  11.074
51164SOL    HW155266   5.008  14.354  11.007
51164SOL    HW255267   4.862  14.329  11.041
51165SOL     OW55268   6.362   6.730   0.926
51165SOL    HW155269   6.457   6.731   0.920
51165SOL    HW255270   6.332   6.760   0.841
51166SOL     OW55271   6.311   8.410   3.407
51166SOL    HW155272   6.247   8.472   3.443
51166SOL    HW255273   6.353   8.457   3.335
51167SOL     OW55274  13.664   4.931   8.726
51167SOL    HW155275  13.618   4.905   8.806
51167SOL    HW255276  13.654   4.856   8.667
51168SOL     OW55277   3.659   0.379  14.813
51168SOL    HW155278   3.659   0.287  14.784
51168SOL    HW255279   3.701   0.426  14.742
51169SOL     OW55280   2.630  14.648  12.155
51169SOL    HW155281   2.605  14.560  12.127
51169SOL    HW255282   2.721  14.640  12.183
51170SOL     OW55283   0.555  13.634  12.475
51170SOL    HW155284   0.572  13.657  12.383
51170SOL    HW255285   0.636  13.594  12.506
51171SOL     OW55286  13.149   8.634   9.054
51171SOL    HW155287  13.224   8.681   9.018
51171SOL    HW255288  13.187   8.569   9.113
51172SOL     OW55289   5.452   7.441   3.074
51172SOL    HW155290   5.497   7.443   3.159
51172SOL    HW255291   5.462   7.351   3.043
51173SOL     OW55292   5.139  10.474  12.378
51173SOL    HW155293   5.212  10.419  12.406
51173SOL    HW255294   5.091  10.421  12.315
51174SOL     OW55295   6.221   1.656   5.481
51174SOL    HW155296   6.227   1.667   5.386
51174SOL    HW255297   6.148   1.713   5.507
51175SOL     OW55298  10.731   5.519  13.755
51175SOL    HW155299  10.647   5.556  13.727
51175SOL    HW255300  10.790   5.594  13.759
51176SOL     OW55301   1.169  13.767  13.717
51176SOL    HW155302   1.199  13.794  13.630
51176SOL    HW255303   1.249  13.755  13.767
51177SOL     OW55304  11.425  12.836  12.509
51177SOL    HW155305  11.356  12.794  12.559
51177SOL    HW255306  11.379  12.901  12.455
51178SOL     OW55307  11.807   8.108   1.339
51178SOL    HW155308  11.848   8.184   1.298
51178SOL    HW255309  11.879   8.065   1.387
51179SOL     OW55310   3.582   5.626   1.590
51179SOL    HW155311   3.635   5.658   1.517
51179SOL    HW255312   3.494   5.661   1.573
51180SOL     OW55313   6.779   4.837   9.290
51180SOL    HW155314   6.797   4.930   9.302
51180SOL    HW255315   6.683   4.831   9.292
51181SOL     OW55316  14.542   6.386  13.135
51181SOL    HW155317  14.503   6.449  13.075
51181SOL    HW255318  14.613   6.434  13.178
51182SOL     OW55319   7.176   7.408  14.737
51182SOL    HW155320   7.107   7.433  14.799
51182SOL    HW255321   7.233   7.350  14.786
51183SOL     OW55322   0.280  12.791  10.249
51183SOL    HW155323   0.211  12.856  10.255
51183SOL    HW255324   0.298  12.783  10.155
51184SOL     OW55325   5.384   1.391   2.175
51184SOL    HW155326   5.451   1.454   2.146
51184SOL    HW255327   5.421   1.353   2.254
51185SOL     OW55328  13.832   7.337   3.861
51185SOL    HW155329  13.901   7.352   3.926
51185SOL    HW255330  13.792   7.423   3.848
51186SOL     OW55331  13.289   7.754   2.282
51186SOL    HW155332  13.308   7.820   2.215
51186SOL    HW255333  13.340   7.678   2.255
51187SOL     OW55334  13.855   0.835  10.103
51187SOL    HW155335  13.844   0.855  10.196
51187SOL    HW255336  13.882   0.744  10.102
51188SOL     OW55337   4.452  12.683   6.999
51188SOL    HW155338   4.367  12.676   6.955
51188SOL    HW255339   4.515  12.691   6.927
51189SOL     OW55340   8.341  11.711   0.532
51189SOL    HW155341   8.382  11.769   0.597
51189SOL    HW255342   8.257  11.687   0.570
51190SOL     OW55343   7.842   1.458   6.260
51190SOL    HW155344   7.833   1.508   6.179
51190SOL    HW255345   7.773   1.392   6.255
51191SOL     OW55346   0.210  13.471   5.901
51191SOL    HW155347   0.251  13.555   5.883
51191SOL    HW255348   0.269  13.428   5.963
51192SOL     OW55349   5.674   8.929   8.791
51192SOL    HW155350   5.689   8.951   8.883
51192SOL    HW255351   5.756   8.953   8.747
51193SOL     OW55352   7.580   5.167  14.105
51193SOL    HW155353   7.645   5.099  14.090
51193SOL    HW255354   7.616   5.218  14.178
51194SOL     OW55355   8.793   4.403   9.953
51194SOL    HW155356   8.717   4.437   9.999
51194SOL    HW255357   8.787   4.308   9.963
51195SOL     OW55358   0.201  10.013   5.796
51195SOL    HW155359   0.197   9.981   5.886
51195SOL    HW255360   0.284  10.060   5.791
51196SOL     OW55361  13.376   1.937  14.000
51196SOL    HW155362  13.296   1.920  13.950
51196SOL    HW255363  13.376   1.869  14.068
51197SOL     OW55364   9.369   5.206   3.748
51197SOL    HW155365   9.348   5.156   3.669
51197SOL    HW255366   9.333   5.153   3.820
51198SOL     OW55367   5.257   6.256   7.567
51198SOL    HW155368   5.280   6.297   7.650
51198SOL    HW255369   5.322   6.290   7.505
51199SOL     OW55370   5.149   0.909   9.402
51199SOL    HW155371   5.070   0.878   9.447
51199SOL    HW255372   5.217   0.906   9.469
51200SOL     OW55373  11.484  13.334   8.385
51200SOL    HW155374  11.546  13.328   8.458
51200SOL    HW255375  11.497  13.253   8.336
51201SOL     OW55376  11.010   1.680   5.039
51201SOL    HW155377  11.023   1.713   5.128
51201SOL    HW255378  10.996   1.586   5.051
51202SOL     OW55379   8.891   9.184   1.900
51202SOL    HW155380   8.828   9.220   1.963
51202SOL    HW255381   8.837   9.133   1.839
51203SOL     OW55382  14.601   7.086   7.481
51203SOL    HW155383  14.565   7.081   7.569
51203SOL    HW255384  14.528   7.066   7.423
51204SOL     OW55385  13.263  14.544   7.285
51204SOL    HW155386  13.188  14.485   7.289
51204SOL    HW255387  13.235  14.614   7.226
51205SOL     OW55388   1.235   6.113  12.629
51205SOL    HW155389   1.196   6.027  12.645
51205SOL    HW255390   1.259   6.112  12.537
51206SOL     OW55391   7.813   5.659   7.968
51206SOL    HW155392   7.898   5.634   7.930
51206SOL    HW255393   7.756   5.583   7.950
51207SOL     OW55394  13.423   9.831  11.853
51207SOL    HW155395  13.455   9.744  11.830
51207SOL    HW255396  13.407   9.874  11.769
51208SOL     OW55397   4.536  14.483   4.386
51208SOL    HW155398   4.536  14.578   4.399
51208SOL    HW255399   4.598  14.450   4.451
51209SOL     OW55400   1.163   1.684   1.741
51209SOL    HW155401   1.113   1.603   1.733
51209SOL    HW255402   1.161   1.723   1.654
51210SOL     OW55403   4.786  13.957  14.528
51210SOL    HW155404   4.746  14.044  14.529
51210SOL    HW255405   4.846  13.959  14.453
51211SOL     OW55406   2.384  12.134   4.019
51211SOL    HW155407   2.413  12.171   4.102
51211SOL    HW255408   2.294  12.166   4.008
51212SOL     OW55409   8.279  10.479   3.282
51212SOL    HW155410   8.299  10.405   3.224
51212SOL    HW255411   8.340  10.548   3.254
51213SOL     OW55412   3.445   3.414   7.968
51213SOL    HW155413   3.415   3.419   8.059
51213SOL    HW255414   3.511   3.483   7.961
51214SOL     OW55415   8.467  12.574  10.439
51214SOL    HW155416   8.455  12.590  10.345
51214SOL    HW255417   8.507  12.655  10.472
51215SOL     OW55418   3.134  14.214   7.482
51215SOL    HW155419   3.227  14.222   7.460
51215SOL    HW255420   3.134  14.190   7.575
51216SOL     OW55421  11.543   7.052   2.924
51216SOL    HW155422  11.598   7.106   2.867
51216SOL    HW255423  11.454   7.068   2.893
51217SOL     OW55424  14.602   7.088  12.343
51217SOL    HW155425  14.693   7.058  12.341
51217SOL    HW255426  14.593   7.130  12.429
51218SOL     OW55427  11.870   0.396  10.341
51218SOL    HW155428  11.792   0.354  10.379
51218SOL    HW255429  11.919   0.429  10.416
51219SOL     OW55430  11.391  14.173  14.777
51219SOL    HW155431  11.394  14.211  14.864
51219SOL    HW255432  11.319  14.219  14.733
51220SOL     OW55433   5.388   3.365   5.913
51220SOL    HW155434   5.341   3.445   5.891
51220SOL    HW255435   5.471   3.395   5.950
51221SOL     OW55436   0.279  13.803   0.766
51221SOL    HW155437   0.282  13.792   0.671
51221SOL    HW255438   0.370  13.815   0.793
51222SOL     OW55439  13.604  10.580  12.017
51222SOL    HW155440  13.609  10.676  12.014
51222SOL    HW255441  13.512  10.561  12.002
51223SOL     OW55442  10.086  12.344   5.451
51223SOL    HW155443  10.076  12.308   5.539
51223SOL    HW255444  10.001  12.328   5.409
51224SOL     OW55445   7.874   6.204   6.685
51224SOL    HW155446   7.885   6.110   6.675
51224SOL    HW255447   7.960   6.241   6.664
51225SOL     OW55448   6.527  10.168  14.250
51225SOL    HW155449   6.513  10.159  14.156
51225SOL    HW255450   6.583  10.094  14.273
51226SOL     OW55451  12.332  14.080   1.504
51226SOL    HW155452  12.280  14.120   1.435
51226SOL    HW255453  12.379  14.009   1.460
51227SOL     OW55454  12.019   0.558   7.462
51227SOL    HW155455  11.946   0.593   7.412
51227SOL    HW255456  11.984   0.546   7.550
51228SOL     OW55457  12.488  11.542   3.416
51228SOL    HW155458  12.540  11.613   3.378
51228SOL    HW255459  12.458  11.492   3.340
51229SOL     OW55460   8.264  14.220  10.432
51229SOL    HW155461   8.316  14.278  10.376
51229SOL    HW255462   8.295  14.132  10.409
51230SOL     OW55463   3.413   9.342  14.269
51230SOL    HW155464   3.499   9.347  14.310
51230SOL    HW255465   3.428   9.362  14.177
51231SOL     OW55466   9.072   1.600  10.253
51231SOL    HW155467   8.993   1.624  10.300
51231SOL    HW255468   9.129   1.560  10.319
51232SOL     OW55469  13.280   7.160   9.111
51232SOL    HW155470  13.375   7.154   9.100
51232SOL    HW255471  13.256   7.082   9.160
51233SOL     OW55472  10.966   2.469   2.907
51233SOL    HW155473  10.925   2.447   2.991
51233SOL    HW255474  11.027   2.540   2.928
51234SOL     OW55475  13.843   2.372   0.401
51234SOL    HW155476  13.930   2.363   0.363
51234SOL    HW255477  13.851   2.333   0.488
51235SOL     OW55478  10.718  10.378  11.747
51235SOL    HW155479  10.732  10.295  11.794
51235SOL    HW255480  10.650  10.422  11.798
51236SOL     OW55481  12.697  13.039  13.960
51236SOL    HW155482  12.609  13.076  13.960
51236SOL    HW255483  12.747  13.093  14.020
51237SOL     OW55484   8.336  11.130   9.337
51237SOL    HW155485   8.355  11.153   9.428
51237SOL    HW255486   8.242  11.111   9.337
51238SOL     OW55487  14.128   9.428   6.055
51238SOL    HW155488  14.048   9.480   6.048
51238SOL    HW255489  14.197   9.493   6.070
51239SOL     OW55490   8.240   2.879  12.706
51239SOL    HW155491   8.291   2.922  12.774
51239SOL    HW255492   8.297   2.880  12.629
51240SOL     OW55493   8.456   7.127  13.287
51240SOL    HW155494   8.458   7.047  13.339
51240SOL    HW255495   8.546   7.158  13.286
51241SOL     OW55496   3.478  11.351  12.050
51241SOL    HW155497   3.452  11.437  12.084
51241SOL    HW255498   3.497  11.299  12.128
51242SOL     OW55499   6.900  12.736   3.544
51242SOL    HW155500   6.920  12.652   3.585
51242SOL    HW255501   6.820  12.721   3.495
51243SOL     OW55502  13.107  10.778   4.682
51243SOL    HW155503  13.151  10.803   4.764
51243SOL    HW255504  13.046  10.850   4.665
51244SOL     OW55505  12.565   9.460   5.953
51244SOL    HW155506  12.581   9.432   5.862
51244SOL    HW255507  12.500   9.529   5.945
51245SOL     OW55508   1.282   8.779  14.022
51245SOL    HW155509   1.235   8.860  14.002
51245SOL    HW255510   1.269   8.767  14.116
51246SOL     OW55511   2.801   9.974  13.220
51246SOL    HW155512   2.715  10.012  13.202
51246SOL    HW255513   2.862  10.034  13.177
51247SOL     OW55514   0.251   4.274   5.001
51247SOL    HW155515   0.166   4.318   5.012
51247SOL    HW255516   0.258   4.260   4.907
51248SOL     OW55517   7.338   5.498  10.400
51248SOL    HW155518   7.363   5.588  10.380
51248SOL    HW255519   7.309   5.501  10.492
51249SOL     OW55520   3.227   8.620  11.157
51249SOL    HW155521   3.170   8.695  11.174
51249SOL    HW255522   3.312   8.658  11.135
51250SOL     OW55523   9.920   0.214  13.850
51250SOL    HW155524   9.842   0.252  13.808
51250SOL    HW255525   9.933   0.131  13.804
51251SOL     OW55526   0.096  10.383  13.400
51251SOL    HW155527   0.098  10.443  13.326
51251SOL    HW255528   0.119  10.298  13.362
51252SOL     OW55529   1.048  13.452   4.047
51252SOL    HW155530   1.087  13.396   3.980
51252SOL    HW255531   1.038  13.394   4.123
51253SOL     OW55532   4.485   4.050   9.337
51253SOL    HW155533   4.429   3.979   9.368
51253SOL    HW255534   4.432   4.098   9.275
51254SOL     OW55535  10.415   7.835   6.748
51254SOL    HW155536  10.434   7.923   6.782
51254SOL    HW255537  10.409   7.780   6.826
51255SOL     OW55538   0.973   0.662  12.934
51255SOL    HW155539   0.877   0.663  12.936
51255SOL    HW255540   0.995   0.665  12.841
51256SOL     OW55541   3.484   8.877  13.293
51256SOL    HW155542   3.570   8.915  13.273
51256SOL    HW255543   3.493   8.842  13.381
51257SOL     OW55544   7.969   1.620   0.145
51257SOL    HW155545   7.944   1.656   0.059
51257SOL    HW255546   7.897   1.645   0.203
51258SOL     OW55547   1.647   0.763   3.707
51258SOL    HW155548   1.643   0.768   3.803
51258SOL    HW255549   1.728   0.715   3.689
51259SOL     OW55550  12.627  11.033  12.668
51259SOL    HW155551  12.569  10.978  12.721
51259SOL    HW255552  12.604  11.011  12.577
51260SOL     OW55553   2.054  10.819   4.647
51260SOL    HW155554   2.039  10.757   4.575
51260SOL    HW255555   2.012  10.900   4.618
51261SOL     OW55556   2.083   9.984  12.779
51261SOL    HW155557   1.998  10.027  12.789
51261SOL    HW255558   2.062   9.890  12.778
51262SOL     OW55559  11.213   0.288   6.555
51262SOL    HW155560  11.172   0.269   6.640
51262SOL    HW255561  11.299   0.247   6.561
51263SOL     OW55562   5.279  11.244   1.832
51263SOL    HW155563   5.281  11.160   1.877
51263SOL    HW255564   5.195  11.283   1.855
51264SOL     OW55565  13.104  13.581   9.621
51264SOL    HW155566  13.033  13.611   9.679
51264SOL    HW255567  13.076  13.494   9.593
51265SOL     OW55568   5.241   0.695   1.291
51265SOL    HW155569   5.303   0.654   1.352
51265SOL    HW255570   5.277   0.677   1.204
51266SOL     OW55571  14.845   4.911   5.678
51266SOL    HW155572  14.851   4.825   5.638
51266SOL    HW255573   0.054   4.935   5.699
51267SOL     OW55574  10.455   2.143   0.015
51267SOL    HW155575  10.443   2.083  14.823
51267SOL    HW255576  10.546   2.170   0.010
51268SOL     OW55577   3.187   8.283   6.381
51268SOL    HW155578   3.203   8.290   6.475
51268SOL    HW255579   3.261   8.328   6.341
51269SOL     OW55580   4.967   4.353   0.352
51269SOL    HW155581   4.936   4.339   0.441
51269SOL    HW255582   4.956   4.446   0.336
51270SOL     OW55583   2.149   6.918   0.276
51270SOL    HW155584   2.158   6.894   0.368
51270SOL    HW255585   2.158   7.013   0.275
51271SOL     OW55586  13.998  14.207  14.675
51271SOL    HW155587  14.018  14.167  14.590
51271SOL    HW255588  13.910  14.175  14.696
51272SOL     OW55589   8.035  11.588   2.576
51272SOL    HW155590   7.959  11.532   2.588
51272SOL    HW255591   8.073  11.560   2.493
51273SOL     OW55592  12.271   9.890  12.612
51273SOL    HW155593  12.186   9.932  12.628
51273SOL    HW255594  12.279   9.824  12.680
51274SOL     OW55595  12.189   9.708   2.698
51274SOL    HW155596  12.280   9.714   2.669
51274SOL    HW255597  12.140   9.760   2.634
51275SOL     OW55598  13.379   5.115  10.267
51275SOL    HW155599  13.443   5.184  10.253
51275SOL    HW255600  13.400   5.080  10.354
51276SOL     OW55601  10.523  11.270  14.269
51276SOL    HW155602  10.530  11.341  14.205
51276SOL    HW255603  10.545  11.310  14.353
51277SOL     OW55604  13.568   2.978   1.390
51277SOL    HW155605  13.494   2.952   1.335
51277SOL    HW255606  13.556   2.927   1.471
51278SOL     OW55607   5.932   5.347  10.624
51278SOL    HW155608   5.988   5.381  10.555
51278SOL    HW255609   5.904   5.425  10.672
51279SOL     OW55610   9.934   2.417   6.561
51279SOL    HW155611   9.975   2.474   6.495
51279SOL    HW255612   9.844   2.406   6.529
51280SOL     OW55613   8.485   9.681   8.910
51280SOL    HW155614   8.510   9.761   8.863
51280SOL    HW255615   8.398   9.700   8.945
51281SOL     OW55616  14.165   8.292   8.953
51281SOL    HW155617  14.254   8.326   8.949
51281SOL    HW255618  14.150   8.275   9.046
51282SOL     OW55619   5.875   4.554   3.793
51282SOL    HW155620   5.886   4.649   3.788
51282SOL    HW255621   5.842   4.538   3.881
51283SOL     OW55622  13.262   5.886   2.210
51283SOL    HW155623  13.308   5.970   2.209
51283SOL    HW255624  13.297   5.839   2.134
51284SOL     OW55625   3.099  13.889   2.571
51284SOL    HW155626   3.073  13.819   2.511
51284SOL    HW255627   3.027  13.893   2.635
51285SOL     OW55628   7.560  12.920  11.928
51285SOL    HW155629   7.475  12.921  11.885
51285SOL    HW255630   7.540  12.911  12.021
51286SOL     OW55631   4.412  12.045  12.525
51286SOL    HW155632   4.342  12.011  12.469
51286SOL    HW255633   4.484  11.982  12.513
51287SOL     OW55634   9.348   8.353  13.294
51287SOL    HW155635   9.348   8.287  13.363
51287SOL    HW255636   9.390   8.309  13.220
51288SOL     OW55637  10.023   6.652   4.222
51288SOL    HW155638   9.942   6.688   4.185
51288SOL    HW255639  10.070   6.729   4.257
51289SOL     OW55640  10.896   1.363   6.685
51289SOL    HW155641  10.974   1.415   6.704
51289SOL    HW255642  10.910   1.281   6.733
51290SOL     OW55643   2.317   7.487   2.940
51290SOL    HW155644   2.320   7.509   3.033
51290SOL    HW255645   2.282   7.398   2.937
51291SOL     OW55646   8.773  12.232   2.904
51291SOL    HW155647   8.823  12.168   2.852
51291SOL    HW255648   8.686  12.231   2.864
51292SOL     OW55649  10.272   2.846   9.207
51292SOL    HW155650  10.259   2.939   9.225
51292SOL    HW255651  10.312   2.811   9.286
51293SOL     OW55652   2.503  14.037  10.911
51293SOL    HW155653   2.577  14.007  10.963
51293SOL    HW255654   2.529  14.023  10.820
51294SOL     OW55655   8.210   2.783   6.587
51294SOL    HW155656   8.256   2.844   6.530
51294SOL    HW255657   8.160   2.728   6.527
51295SOL     OW55658   4.095   4.957  11.995
51295SOL    HW155659   4.108   5.052  11.996
51295SOL    HW255660   4.037   4.939  12.070
51296SOL     OW55661   7.241   6.588   3.684
51296SOL    HW155662   7.285   6.516   3.638
51296SOL    HW255663   7.289   6.667   3.657
51297SOL     OW55664  10.813   0.047   5.238
51297SOL    HW155665  10.740   0.109   5.247
51297SOL    HW255666  10.820   0.032   5.144
51298SOL     OW55667  13.561   2.696   0.017
51298SOL    HW155668  13.560   2.748   0.097
51298SOL    HW255669  13.601   2.613   0.043
51299SOL     OW55670  13.797  11.270   2.698
51299SOL    HW155671  13.705  11.246   2.714
51299SOL    HW255672  13.835  11.283   2.785
51300SOL     OW55673  12.479   1.116   7.373
51300SOL    HW155674  12.406   1.177   7.365
51300SOL    HW255675  12.557   1.171   7.377
51301SOL     OW55676   1.928   1.732   3.971
51301SOL    HW155677   1.920   1.799   4.039
51301SOL    HW255678   2.015   1.747   3.933
51302SOL     OW55679  10.942  13.780   5.349
51302SOL    HW155680  11.003  13.849   5.322
51302SOL    HW255681  10.907  13.811   5.433
51303SOL     OW55682   5.777  14.435   2.269
51303SOL    HW155683   5.805  14.463   2.182
51303SOL    HW255684   5.806  14.344   2.275
51304SOL     OW55685   4.303  14.251   3.012
51304SOL    HW155686   4.290  14.166   3.053
51304SOL    HW255687   4.344  14.304   3.081
51305SOL     OW55688   9.090   2.378  12.732
51305SOL    HW155689   9.042   2.460  12.743
51305SOL    HW255690   9.178   2.398  12.762
51306SOL     OW55691  11.024   4.397  12.343
51306SOL    HW155692  11.030   4.467  12.408
51306SOL    HW255693  10.931   4.394  12.319
51307SOL     OW55694   5.252  10.420   3.032
51307SOL    HW155695   5.160  10.426   3.060
51307SOL    HW255696   5.300  10.475   3.094
51308SOL     OW55697   9.972   9.460   7.826
51308SOL    HW155698   9.972   9.528   7.894
51308SOL    HW255699  10.058   9.418   7.834
51309SOL     OW55700   9.072  10.994  13.699
51309SOL    HW155701   9.141  10.941  13.660
51309SOL    HW255702   9.115  11.076  13.723
51310SOL     OW55703   9.861   1.302  10.068
51310SOL    HW155704   9.888   1.389  10.038
51310SOL    HW255705   9.823   1.261   9.990
51311SOL     OW55706   6.743   4.289  11.564
51311SOL    HW155707   6.684   4.247  11.502
51311SOL    HW255708   6.694   4.364  11.598
51312SOL     OW55709   5.323   2.328  12.810
51312SOL    HW155710   5.235   2.328  12.773
51312SOL    HW255711   5.359   2.413  12.786
51313SOL     OW55712  12.542   7.664   1.536
51313SOL    HW155713  12.472   7.602   1.515
51313SOL    HW255714  12.498   7.733   1.586
51314SOL     OW55715   6.888   0.640   7.288
51314SOL    HW155716   6.843   0.717   7.322
51314SOL    HW255717   6.970   0.673   7.252
51315SOL     OW55718  14.494  14.023   9.960
51315SOL    HW155719  14.439  13.985  10.029
51315SOL    HW255720  14.578  13.978   9.970
51316SOL     OW55721   0.260   6.082  14.090
51316SOL    HW155722   0.249   6.154  14.028
51316SOL    HW255723   0.196   6.016  14.063
51317SOL     OW55724   9.515   6.165  12.643
51317SOL    HW155725   9.454   6.106  12.597
51317SOL    HW255726   9.576   6.193  12.575
51318SOL     OW55727   8.149  13.633   4.887
51318SOL    HW155728   8.072  13.686   4.865
51318SOL    HW255729   8.200  13.630   4.806
51319SOL     OW55730  10.734  12.786  12.370
51319SOL    HW155731  10.795  12.739  12.427
51319SOL    HW255732  10.663  12.723  12.354
51320SOL     OW55733   1.512  10.123   3.412
51320SOL    HW155734   1.496  10.043   3.362
51320SOL    HW255735   1.427  10.168   3.413
51321SOL     OW55736  13.512   4.786   2.946
51321SOL    HW155737  13.497   4.880   2.955
51321SOL    HW255738  13.570   4.764   3.020
51322SOL     OW55739   0.220   0.389  12.015
51322SOL    HW155740   0.163   0.463  12.039
51322SOL    HW255741   0.297   0.400  12.070
51323SOL     OW55742   4.930   1.482   2.232
51323SOL    HW155743   4.972   1.397   2.246
51323SOL    HW255744   4.986   1.527   2.169
51324SOL     OW55745   5.030   3.833  13.563
51324SOL    HW155746   5.067   3.748  13.540
51324SOL    HW255747   4.955   3.811  13.619
51325SOL     OW55748  13.232  13.553   7.539
51325SOL    HW155749  13.213  13.551   7.633
51325SOL    HW255750  13.205  13.640   7.511
51326SOL     OW55751  12.914  12.214   0.891
51326SOL    HW155752  12.904  12.128   0.933
51326SOL    HW255753  12.949  12.194   0.804
51327SOL     OW55754   1.158   1.190  11.610
51327SOL    HW155755   1.185   1.109  11.567
51327SOL    HW255756   1.151   1.254  11.539
51328SOL     OW55757   6.261   6.569   7.505
51328SOL    HW155758   6.217   6.609   7.430
51328SOL    HW255759   6.292   6.484   7.473
51329SOL     OW55760  13.247   3.578   6.644
51329SOL    HW155761  13.184   3.638   6.682
51329SOL    HW255762  13.265   3.514   6.713
51330SOL     OW55763   0.855   6.363   9.881
51330SOL    HW155764   0.792   6.293   9.862
51330SOL    HW255765   0.806   6.444   9.865
51331SOL     OW55766   1.301  11.099   8.197
51331SOL    HW155767   1.221  11.048   8.206
51331SOL    HW255768   1.278  11.186   8.227
51332SOL     OW55769   4.366   7.339   0.496
51332SOL    HW155770   4.390   7.409   0.436
51332SOL    HW255771   4.450   7.301   0.523
51333SOL     OW55772   5.954   2.521  14.673
51333SOL    HW155773   5.938   2.430  14.697
51333SOL    HW255774   6.040   2.541  14.711
51334SOL     OW55775  13.299   1.644  10.456
51334SOL    HW155776  13.357   1.719  10.446
51334SOL    HW255777  13.215   1.682  10.481
51335SOL     OW55778   8.887  10.769   3.358
51335SOL    HW155779   8.901  10.678   3.383
51335SOL    HW255780   8.915  10.773   3.267
51336SOL     OW55781   4.460   2.530  14.064
51336SOL    HW155782   4.374   2.499  14.091
51336SOL    HW255783   4.448   2.624  14.049
51337SOL     OW55784  13.608  14.186  12.619
51337SOL    HW155785  13.566  14.176  12.534
51337SOL    HW255786  13.673  14.255  12.606
51338SOL     OW55787   5.526   1.305   9.758
51338SOL    HW155788   5.485   1.308   9.845
51338SOL    HW255789   5.469   1.248   9.707
51339SOL     OW55790   5.689   5.200   1.176
51339SOL    HW155791   5.779   5.230   1.164
51339SOL    HW255792   5.648   5.269   1.230
51340SOL     OW55793  11.996  11.656  11.914
51340SOL    HW155794  12.065  11.647  11.847
51340SOL    HW255795  11.940  11.726  11.881
51341SOL     OW55796   2.411   2.651  10.868
51341SOL    HW155797   2.486   2.601  10.898
51341SOL    HW255798   2.413   2.642  10.773
51342SOL     OW55799  11.414   8.545   0.096
51342SOL    HW155800  11.324   8.513   0.099
51342SOL    HW255801  11.406   8.640   0.103
51343SOL     OW55802   3.859  14.014  11.404
51343SOL    HW155803   3.927  14.078  11.427
51343SOL    HW255804   3.889  13.976  11.321
51344SOL     OW55805   8.291   9.044   6.165
51344SOL    HW155806   8.332   9.129   6.147
51344SOL    HW255807   8.260   9.050   6.255
51345SOL     OW55808   5.461  14.373   8.602
51345SOL    HW155809   5.486  14.319   8.677
51345SOL    HW255810   5.422  14.452   8.641
51346SOL     OW55811   8.489   7.040  14.774
51346SOL    HW155812   8.474   6.945  14.770
51346SOL    HW255813   8.478   7.070  14.684
51347SOL     OW55814   3.783   7.607  12.361
51347SOL    HW155815   3.851   7.666  12.327
51347SOL    HW255816   3.719   7.666  12.400
51348SOL     OW55817  12.990   4.367   9.428
51348SOL    HW155818  12.905   4.327   9.446
51348SOL    HW255819  13.022   4.395   9.514
51349SOL     OW55820   8.901   5.328   7.718
51349SOL    HW155821   8.876   5.413   7.683
51349SOL    HW255822   8.987   5.343   7.758
51350SOL     OW55823   1.499   2.994   2.047
51350SOL    HW155824   1.577   3.003   2.101
51350SOL    HW255825   1.524   3.032   1.962
51351SOL     OW55826  14.665  10.197  13.461
51351SOL    HW155827  14.698  10.246  13.386
51351SOL    HW255828  14.633  10.264  13.521
51352SOL     OW55829   8.453   5.995   1.462
51352SOL    HW155830   8.491   5.941   1.531
51352SOL    HW255831   8.420   5.932   1.398
51353SOL     OW55832   3.547   0.235   2.629
51353SOL    HW155833   3.485   0.299   2.594
51353SOL    HW255834   3.551   0.254   2.723
51354SOL     OW55835  12.092  12.565   7.193
51354SOL    HW155836  12.081  12.507   7.117
51354SOL    HW255837  12.110  12.506   7.266
51355SOL     OW55838   6.754   0.464  14.069
51355SOL    HW155839   6.752   0.463  13.973
51355SOL    HW255840   6.718   0.379  14.095
51356SOL     OW55841  13.324   1.040   6.134
51356SOL    HW155842  13.353   1.123   6.098
51356SOL    HW255843  13.232   1.032   6.106
51357SOL     OW55844   3.894   4.645   4.352
51357SOL    HW155845   3.952   4.572   4.375
51357SOL    HW255846   3.810   4.621   4.390
51358SOL     OW55847   8.378   8.664  12.476
51358SOL    HW155848   8.445   8.608  12.515
51358SOL    HW255849   8.332   8.608  12.414
51359SOL     OW55850   9.046   0.467   1.469
51359SOL    HW155851   9.101   0.412   1.525
51359SOL    HW255852   8.980   0.504   1.528
51360SOL     OW55853   2.502   7.823   7.849
51360SOL    HW155854   2.551   7.905   7.838
51360SOL    HW255855   2.413   7.845   7.824
51361SOL     OW55856   8.138   9.342  13.993
51361SOL    HW155857   8.139   9.357  13.898
51361SOL    HW255858   8.093   9.259  14.003
51362SOL     OW55859   9.125   2.767   8.509
51362SOL    HW155860   9.069   2.700   8.470
51362SOL    HW255861   9.213   2.747   8.477
51363SOL     OW55862  11.629   3.034   0.484
51363SOL    HW155863  11.644   3.078   0.400
51363SOL    HW255864  11.704   2.976   0.495
51364SOL     OW55865   9.021   8.820   3.323
51364SOL    HW155866   9.089   8.878   3.288
51364SOL    HW255867   8.999   8.763   3.249
51365SOL     OW55868   2.453  10.519   2.571
51365SOL    HW155869   2.457  10.435   2.526
51365SOL    HW255870   2.531  10.521   2.627
51366SOL     OW55871   4.095   9.439   1.574
51366SOL    HW155872   4.153   9.505   1.536
51366SOL    HW255873   4.011   9.453   1.530
51367SOL     OW55874  11.606   6.553   3.589
51367SOL    HW155875  11.558   6.635   3.573
51367SOL    HW255876  11.549   6.504   3.648
51368SOL     OW55877   1.903   3.052   9.461
51368SOL    HW155878   1.958   3.120   9.421
51368SOL    HW255879   1.871   3.001   9.386
51369SOL     OW55880  13.272   5.552   0.607
51369SOL    HW155881  13.334   5.479   0.613
51369SOL    HW255882  13.326   5.630   0.614
51370SOL     OW55883   7.615  12.910   6.441
51370SOL    HW155884   7.704  12.908   6.476
51370SOL    HW255885   7.624  12.947   6.353
51371SOL     OW55886  12.653  11.475   8.210
51371SOL    HW155887  12.691  11.406   8.156
51371SOL    HW255888  12.559  11.471   8.192
51372SOL     OW55889  10.118   7.718   0.667
51372SOL    HW155890  10.063   7.776   0.719
51372SOL    HW255891  10.143   7.648   0.728
51373SOL     OW55892   2.562   9.157   3.808
51373SOL    HW155893   2.610   9.075   3.800
51373SOL    HW255894   2.475   9.138   3.772
51374SOL     OW55895  14.207   4.087  14.319
51374SOL    HW155896  14.172   4.033  14.389
51374SOL    HW255897  14.235   4.168  14.362
51375SOL     OW55898  11.086  13.086   3.733
51375SOL    HW155899  11.093  13.118   3.644
51375SOL    HW255900  11.176  13.084   3.766
51376SOL     OW55901   4.049  13.207  12.942
51376SOL    HW155902   4.096  13.204  12.859
51376SOL    HW255903   4.113  13.179  13.007
51377SOL     OW55904   4.189   4.760  10.866
51377SOL    HW155905   4.137   4.835  10.838
51377SOL    HW255906   4.255   4.797  10.924
51378SOL     OW55907  13.159   6.145  12.657
51378SOL    HW155908  13.081   6.103  12.694
51378SOL    HW255909  13.167   6.227  12.704
51379SOL     OW55910   8.430   2.160   3.754
51379SOL    HW155911   8.514   2.114   3.756
51379SOL    HW255912   8.446   2.241   3.803
51380SOL     OW55913   6.687   3.220  11.203
51380SOL    HW155914   6.744   3.148  11.177
51380SOL    HW255915   6.600   3.180  11.210
51381SOL     OW55916  11.513   0.409   3.840
51381SOL    HW155917  11.503   0.336   3.901
51381SOL    HW255918  11.448   0.473   3.869
51382SOL     OW55919  11.384   9.973   7.906
51382SOL    HW155920  11.451   9.958   7.840
51382SOL    HW255921  11.418   9.932   7.986
51383SOL     OW55922  12.289   5.254   2.910
51383SOL    HW155923  12.218   5.295   2.861
51383SOL    HW255924  12.360   5.318   2.908
51384SOL     OW55925  12.912   9.399   4.495
51384SOL    HW155926  12.880   9.415   4.584
51384SOL    HW255927  12.940   9.307   4.497
51385SOL     OW55928   4.208   0.456  12.841
51385SOL    HW155929   4.176   0.366  12.846
51385SOL    HW255930   4.303   0.448  12.843
51386SOL     OW55931   3.492  13.267   8.048
51386SOL    HW155932   3.530  13.251   8.135
51386SOL    HW255933   3.442  13.188   8.029
51387SOL     OW55934   1.989  10.705  12.501
51387SOL    HW155935   2.045  10.642  12.456
51387SOL    HW255936   1.931  10.739  12.433
51388SOL     OW55937   8.477   0.021  14.599
51388SOL    HW155938   8.443   0.003  14.511
51388SOL    HW255939   8.430   0.099  14.627
51389SOL     OW55940  11.275   0.539   4.508
51389SOL    HW155941  11.222   0.567   4.582
51389SOL    HW255942  11.363   0.573   4.526
51390SOL     OW55943   5.095  14.556   7.868
51390SOL    HW155944   5.098  14.650   7.883
51390SOL    HW255945   5.024  14.525   7.925
51391SOL     OW55946   4.508   2.991   6.875
51391SOL    HW155947   4.540   3.064   6.928
51391SOL    HW255948   4.438   2.953   6.928
51392SOL     OW55949  12.578  14.785  14.492
51392SOL    HW155950  12.657  14.742  14.524
51392SOL    HW255951  12.516  14.714  14.474
51393SOL     OW55952   7.632   0.186  13.143
51393SOL    HW155953   7.555   0.236  13.169
51393SOL    HW255954   7.620   0.100  13.183
51394SOL     OW55955   1.617  11.481   1.956
51394SOL    HW155956   1.608  11.544   2.027
51394SOL    HW255957   1.585  11.528   1.878
51395SOL     OW55958   6.615  14.127   0.549
51395SOL    HW155959   6.705  14.101   0.527
51395SOL    HW255960   6.566  14.045   0.549
51396SOL     OW55961   4.323  10.069   7.244
51396SOL    HW155962   4.412  10.042   7.222
51396SOL    HW255963   4.272   9.987   7.245
51397SOL     OW55964   2.085   7.518  13.820
51397SOL    HW155965   2.034   7.598  13.828
51397SOL    HW255966   2.019   7.449  13.805
51398SOL     OW55967   6.917  10.620   1.045
51398SOL    HW155968   6.991  10.591   1.098
51398SOL    HW255969   6.904  10.551   0.981
51399SOL     OW55970  11.198   5.174   4.533
51399SOL    HW155971  11.150   5.254   4.513
51399SOL    HW255972  11.132   5.105   4.530
51400SOL     OW55973   8.100   5.459   4.759
51400SOL    HW155974   8.128   5.379   4.715
51400SOL    HW255975   8.016   5.480   4.718
51401SOL     OW55976   9.583   4.424   7.225
51401SOL    HW155977   9.523   4.438   7.152
51401SOL    HW255978   9.616   4.511   7.246
51402SOL     OW55979  10.131   3.961  14.316
51402SOL    HW155980  10.162   3.996  14.400
51402SOL    HW255981  10.149   3.867  14.321
51403SOL     OW55982  14.343   2.860  13.148
51403SOL    HW155983  14.343   2.767  13.125
51403SOL    HW255984  14.251   2.882  13.159
51404SOL     OW55985   7.933   5.595  10.226
51404SOL    HW155986   7.893   5.639  10.151
51404SOL    HW255987   7.933   5.502  10.203
51405SOL     OW55988  12.150   4.760   9.957
51405SOL    HW155989  12.103   4.717   9.886
51405SOL    HW255990  12.177   4.688  10.015
51406SOL     OW55991   1.957  11.612  14.288
51406SOL    HW155992   2.047  11.587  14.267
51406SOL    HW255993   1.945  11.698  14.248
51407SOL     OW55994  14.595  11.699  14.242
51407SOL    HW155995  14.666  11.751  14.206
51407SOL    HW255996  14.637  11.640  14.304
51408SOL     OW55997   7.528   0.032   9.068
51408SOL    HW155998   7.467  14.855   9.025
51408SOL    HW255999   7.570   0.080   8.997
51409SOL     OW56000  10.068   7.868   0.450
51409SOL    HW156001  10.083   7.822   0.532
51409SOL    HW256002  10.148   7.852   0.399
51410SOL     OW56003  13.214  11.559   1.819
51410SOL    HW156004  13.224  11.627   1.753
51410SOL    HW256005  13.273  11.489   1.790
51411SOL     OW56006   7.074  14.312  10.908
51411SOL    HW156007   7.109  14.359  10.832
51411SOL    HW256008   7.135  14.239  10.921
51412SOL     OW56009   5.733  11.629  13.367
51412SOL    HW156010   5.818  11.586  13.362
51412SOL    HW256011   5.670  11.559  13.348
51413SOL     OW56012   2.852  14.726   1.277
51413SOL    HW156013   2.767  14.704   1.240
51413SOL    HW256014   2.842  14.710   1.371
51414SOL     OW56015  12.050  12.785  10.854
51414SOL    HW156016  11.980  12.719  10.854
51414SOL    HW256017  12.044  12.826  10.941
51415SOL     OW56018   3.351   5.201   9.286
51415SOL    HW156019   3.431   5.248   9.311
51415SOL    HW256020   3.355   5.197   9.190
51416SOL     OW56021  10.509  10.811   9.852
51416SOL    HW156022  10.516  10.759   9.771
51416SOL    HW256023  10.537  10.751   9.921
51417SOL     OW56024   2.623   6.368   8.834
51417SOL    HW156025   2.613   6.275   8.815
51417SOL    HW256026   2.568   6.383   8.911
51418SOL     OW56027   3.873   2.072   4.283
51418SOL    HW156028   3.893   1.987   4.244
51418SOL    HW256029   3.779   2.085   4.268
51419SOL     OW56030   2.944  10.591   2.070
51419SOL    HW156031   3.004  10.524   2.102
51419SOL    HW256032   2.994  10.673   2.073
51420SOL     OW56033   0.557   5.229   0.476
51420SOL    HW156034   0.511   5.148   0.452
51420SOL    HW256035   0.636   5.227   0.423
51421SOL     OW56036   8.409   3.815  14.138
51421SOL    HW156037   8.338   3.753  14.152
51421SOL    HW256038   8.374   3.899  14.168
51422SOL     OW56039   4.342   6.734   1.248
51422SOL    HW156040   4.265   6.700   1.293
51422SOL    HW256041   4.336   6.701   1.159
51423SOL     OW56042   9.187   4.882   6.780
51423SOL    HW156043   9.169   4.814   6.715
51423SOL    HW256044   9.190   4.835   6.864
51424SOL     OW56045   2.070   8.991   6.026
51424SOL    HW156046   2.099   8.918   6.081
51424SOL    HW256047   2.148   9.045   6.016
51425SOL     OW56048   8.737  13.323   7.020
51425SOL    HW156049   8.651  13.302   7.056
51425SOL    HW256050   8.735  13.417   7.005
51426SOL     OW56051   0.629  12.549   6.136
51426SOL    HW156052   0.564  12.546   6.206
51426SOL    HW256053   0.687  12.475   6.153
51427SOL     OW56054  11.957   1.172   6.587
51427SOL    HW156055  11.987   1.263   6.591
51427SOL    HW256056  12.037   1.121   6.572
51428SOL     OW56057   2.531  10.070   3.232
51428SOL    HW156058   2.454  10.041   3.183
51428SOL    HW256059   2.498  10.141   3.288
51429SOL     OW56060   7.452   8.264   0.891
51429SOL    HW156061   7.397   8.241   0.966
51429SOL    HW256062   7.431   8.356   0.874
51430SOL     OW56063   2.437   7.479   9.162
51430SOL    HW156064   2.530   7.499   9.151
51430SOL    HW256065   2.418   7.416   9.092
51431SOL     OW56066  10.064   7.941   5.542
51431SOL    HW156067  10.157   7.920   5.554
51431SOL    HW256068  10.023   7.919   5.626
51432SOL     OW56069  11.499  10.191   6.408
51432SOL    HW156070  11.578  10.136   6.403
51432SOL    HW256071  11.473  10.187   6.499
51433SOL     OW56072  14.740  11.100  11.341
51433SOL    HW156073  14.832  11.073  11.336
51433SOL    HW256074  14.709  11.095  11.251
51434SOL     OW56075   1.050   8.080   2.227
51434SOL    HW156076   0.960   8.048   2.241
51434SOL    HW256077   1.105   8.005   2.249
51435SOL     OW56078   3.347   7.260  13.832
51435SOL    HW156079   3.314   7.238  13.745
51435SOL    HW256080   3.386   7.178  13.864
51436SOL     OW56081   5.635   0.787   5.141
51436SOL    HW156082   5.595   0.813   5.058
51436SOL    HW256083   5.621   0.692   5.145
51437SOL     OW56084   6.745   1.123  14.874
51437SOL    HW156085   6.822   1.071  14.850
51437SOL    HW256086   6.779   1.212   0.001
51438SOL     OW56087   2.365   1.594   2.683
51438SOL    HW156088   2.442   1.543   2.658
51438SOL    HW256089   2.383   1.682   2.650
51439SOL     OW56090   0.474  10.285   7.643
51439SOL    HW156091   0.505  10.292   7.552
51439SOL    HW256092   0.508  10.200   7.673
51440SOL     OW56093   8.842   6.620   6.711
51440SOL    HW156094   8.858   6.526   6.706
51440SOL    HW256095   8.764   6.627   6.766
51441SOL     OW56096   9.378   2.887   1.956
51441SOL    HW156097   9.409   2.977   1.960
51441SOL    HW256098   9.435   2.844   1.893
51442SOL     OW56099  13.820   5.824   1.878
51442SOL    HW156100  13.777   5.752   1.924
51442SOL    HW256101  13.771   5.833   1.796
51443SOL     OW56102  10.791  14.357  10.204
51443SOL    HW156103  10.744  14.391  10.280
51443SOL    HW256104  10.745  14.392  10.128
51444SOL     OW56105  11.311   1.984   7.904
51444SOL    HW156106  11.241   2.041   7.936
51444SOL    HW256107  11.282   1.896   7.924
51445SOL     OW56108   2.359   1.871   4.700
51445SOL    HW156109   2.402   1.889   4.617
51445SOL    HW256110   2.388   1.783   4.724
51446SOL     OW56111   5.268  10.100  11.258
51446SOL    HW156112   5.283  10.094  11.163
51446SOL    HW256113   5.327  10.169  11.287
51447SOL     OW56114   1.521   2.168   5.716
51447SOL    HW156115   1.575   2.181   5.793
51447SOL    HW256116   1.526   2.074   5.698
51448SOL     OW56117   0.133   0.129   4.168
51448SOL    HW156118   0.208   0.167   4.123
51448SOL    HW256119   0.123   0.180   4.248
51449SOL     OW56120  10.516   3.748   7.510
51449SOL    HW156121  10.444   3.739   7.447
51449SOL    HW256122  10.556   3.832   7.489
51450SOL     OW56123   0.134   1.788   4.865
51450SOL    HW156124   0.093   1.731   4.800
51450SOL    HW256125   0.224   1.799   4.835
51451SOL     OW56126   1.563  12.925   4.724
51451SOL    HW156127   1.495  12.868   4.690
51451SOL    HW256128   1.629  12.865   4.760
51452SOL     OW56129  13.262   2.925   7.439
51452SOL    HW156130  13.294   3.009   7.472
51452SOL    HW256131  13.311   2.859   7.488
51453SOL     OW56132   7.876   1.474   9.442
51453SOL    HW156133   7.819   1.510   9.511
51453SOL    HW256134   7.950   1.535   9.439
51454SOL     OW56135   9.212   0.866   2.413
51454SOL    HW156136   9.283   0.876   2.350
51454SOL    HW256137   9.135   0.900   2.368
51455SOL     OW56138  11.844   4.081   4.466
51455SOL    HW156139  11.778   4.045   4.408
51455SOL    HW256140  11.830   4.037   4.550
51456SOL     OW56141   3.923   5.346  12.098
51456SOL    HW156142   3.847   5.306  12.056
51456SOL    HW256143   3.886   5.405  12.164
51457SOL     OW56144  12.690   6.926   2.946
51457SOL    HW156145  12.735   6.848   2.912
51457SOL    HW256146  12.739   6.999   2.909
51458SOL     OW56147   2.685  12.250   8.755
51458SOL    HW156148   2.589  12.246   8.755
51458SOL    HW256149   2.709  12.243   8.848
51459SOL     OW56150   9.789   7.681   2.513
51459SOL    HW156151   9.704   7.653   2.546
51459SOL    HW256152   9.777   7.773   2.490
51460SOL     OW56153   6.829   6.225   6.255
51460SOL    HW156154   6.839   6.134   6.228
51460SOL    HW256155   6.798   6.270   6.176
51461SOL     OW56156   4.057   9.992   7.687
51461SOL    HW156157   4.106  10.050   7.629
51461SOL    HW256158   4.111   9.986   7.766
51462SOL     OW56159   3.450  14.249   9.427
51462SOL    HW156160   3.470  14.173   9.481
51462SOL    HW256161   3.370  14.226   9.381
51463SOL     OW56162  14.204   0.776   6.399
51463SOL    HW156163  14.256   0.711   6.447
51463SOL    HW256164  14.153   0.724   6.336
51464SOL     OW56165   1.750  12.953   3.363
51464SOL    HW156166   1.798  12.909   3.293
51464SOL    HW256167   1.803  12.939   3.442
51465SOL     OW56168   9.891   4.059  12.329
51465SOL    HW156169   9.825   4.005  12.372
51465SOL    HW256170   9.963   3.999  12.311
51466SOL     OW56171   2.683   7.650  10.703
51466SOL    HW156172   2.631   7.687  10.631
51466SOL    HW256173   2.635   7.571  10.728
51467SOL     OW56174   6.748   7.183  10.304
51467SOL    HW156175   6.688   7.194  10.379
51467SOL    HW256176   6.832   7.214  10.337
51468SOL     OW56177   7.205   2.044  10.442
51468SOL    HW156178   7.230   1.953  10.455
51468SOL    HW256179   7.125   2.040  10.389
51469SOL     OW56180  11.895   2.934   1.111
51469SOL    HW156181  11.916   2.841   1.118
51469SOL    HW256182  11.952   2.967   1.042
51470SOL     OW56183   2.239  12.195   4.381
51470SOL    HW156184   2.198  12.272   4.341
51470SOL    HW256185   2.168  12.151   4.426
51471SOL     OW56186   1.464   8.012   3.277
51471SOL    HW156187   1.455   7.935   3.220
51471SOL    HW256188   1.524   8.070   3.229
51472SOL     OW56189   3.125   3.560  11.106
51472SOL    HW156190   3.183   3.526  11.174
51472SOL    HW256191   3.101   3.647  11.136
51473SOL     OW56192   6.035   6.243   4.692
51473SOL    HW156193   6.082   6.166   4.723
51473SOL    HW256194   6.043   6.239   4.596
51474SOL     OW56195   1.810   2.183   2.049
51474SOL    HW156196   1.720   2.151   2.050
51474SOL    HW256197   1.864   2.105   2.062
51475SOL     OW56198  12.084  10.424  13.840
51475SOL    HW156199  12.103  10.455  13.751
51475SOL    HW256200  12.049  10.335  13.827
51476SOL     OW56201  13.522   4.380   0.521
51476SOL    HW156202  13.540   4.472   0.539
51476SOL    HW256203  13.581   4.358   0.449
51477SOL     OW56204   6.148  13.610   6.894
51477SOL    HW156205   6.094  13.543   6.853
51477SOL    HW256206   6.090  13.686   6.900
51478SOL     OW56207   9.636   5.480   0.783
51478SOL    HW156208   9.625   5.568   0.748
51478SOL    HW256209   9.683   5.494   0.866
51479SOL     OW56210   3.010  10.096   9.817
51479SOL    HW156211   2.991  10.043   9.894
51479SOL    HW256212   2.947  10.168   9.821
51480SOL     OW56213  11.087  11.835  13.886
51480SOL    HW156214  11.111  11.835  13.979
51480SOL    HW256215  11.061  11.745  13.868
51481SOL     OW56216   1.264   8.069  12.916
51481SOL    HW156217   1.212   8.123  12.858
51481SOL    HW256218   1.350   8.111  12.918
51482SOL     OW56219   1.552   6.736  10.531
51482SOL    HW156220   1.508   6.699  10.454
51482SOL    HW256221   1.480   6.769  10.586
51483SOL     OW56222   6.782   5.864   5.350
51483SOL    HW156223   6.697   5.886   5.387
51483SOL    HW256224   6.825   5.948   5.336
51484SOL     OW56225   3.599  10.056  10.965
51484SOL    HW156226   3.682  10.040  10.920
51484SOL    HW256227   3.623  10.110  11.041
51485SOL     OW56228  13.665  11.787   2.179
51485SOL    HW156229  13.672  11.749   2.091
51485SOL    HW256230  13.734  11.853   2.182
51486SOL     OW56231   7.693  14.624   5.986
51486SOL    HW156232   7.721  14.607   6.076
51486SOL    HW256233   7.718  14.715   5.970
51487SOL     OW56234  12.991   4.855  12.986
51487SOL    HW156235  13.044   4.929  13.017
51487SOL    HW256236  13.001   4.857  12.891
51488SOL     OW56237  14.435   9.452   1.409
51488SOL    HW156238  14.354   9.456   1.460
51488SOL    HW256239  14.409   9.412   1.326
51489SOL     OW56240   0.340   1.514   1.754
51489SOL    HW156241   0.253   1.497   1.717
51489SOL    HW256242   0.400   1.505   1.680
51490SOL     OW56243  13.684   9.485  14.747
51490SOL    HW156244  13.628   9.427  14.798
51490SOL    HW256245  13.772   9.451  14.759
51491SOL     OW56246   6.987   7.134   3.963
51491SOL    HW156247   7.035   7.189   3.901
51491SOL    HW256248   6.941   7.070   3.908
51492SOL     OW56249  13.939   9.961  11.156
51492SOL    HW156250  13.868   9.984  11.097
51492SOL    HW256251  13.984  10.044  11.173
51493SOL     OW56252   4.833   0.180   8.076
51493SOL    HW156253   4.775   0.256   8.070
51493SOL    HW256254   4.781   0.114   8.122
51494SOL     OW56255  14.039  12.905   5.888
51494SOL    HW156256  14.027  12.946   5.802
51494SOL    HW256257  13.977  12.832   5.889
51495SOL     OW56258   4.172   1.957   2.338
51495SOL    HW156259   4.178   1.862   2.348
51495SOL    HW256260   4.213   1.992   2.418
51496SOL     OW56261   6.197   4.501  11.625
51496SOL    HW156262   6.154   4.460  11.550
51496SOL    HW256263   6.289   4.476  11.616
51497SOL     OW56264   7.027  12.708  14.849
51497SOL    HW156265   7.084  12.771  14.806
51497SOL    HW256266   7.063  12.622  14.824
51498SOL     OW56267   8.788   7.323   4.245
51498SOL    HW156268   8.836   7.240   4.246
51498SOL    HW256269   8.710   7.306   4.193
51499SOL     OW56270  11.636   0.143   5.974
51499SOL    HW156271  11.560   0.108   6.019
51499SOL    HW256272  11.671   0.210   6.033
51500SOL     OW56273  12.669   2.515  10.939
51500SOL    HW156274  12.683   2.573  11.013
51500SOL    HW256275  12.618   2.567  10.877
51501SOL     OW56276   6.753   8.827   4.705
51501SOL    HW156277   6.673   8.845   4.755
51501SOL    HW256278   6.736   8.866   4.619
51502SOL     OW56279   1.982   3.039   0.782
51502SOL    HW156280   2.075   3.056   0.763
51502SOL    HW256281   1.938   3.054   0.698
51503SOL     OW56282   9.428   9.240   5.229
51503SOL    HW156283   9.415   9.334   5.238
51503SOL    HW256284   9.448   9.228   5.136
51504SOL     OW56285   2.898  13.264  13.684
51504SOL    HW156286   2.977  13.290  13.730
51504SOL    HW256287   2.826  13.289  13.742
51505SOL     OW56288  11.743   7.259   5.553
51505SOL    HW156289  11.783   7.297   5.475
51505SOL    HW256290  11.688   7.328   5.589
51506SOL     OW56291  11.543   3.980  14.785
51506SOL    HW156292  11.548   3.896  14.830
51506SOL    HW256293  11.610   3.975  14.716
51507SOL     OW56294   4.396  11.351   9.463
51507SOL    HW156295   4.345  11.432   9.455
51507SOL    HW256296   4.484  11.381   9.485
51508SOL     OW56297  10.285  10.404   8.278
51508SOL    HW156298  10.341  10.453   8.218
51508SOL    HW256299  10.272  10.319   8.234
51509SOL     OW56300   8.829   8.509   1.180
51509SOL    HW156301   8.889   8.581   1.198
51509SOL    HW256302   8.850   8.482   1.090
51510SOL     OW56303  10.683   8.340   2.311
51510SOL    HW156304  10.750   8.271   2.319
51510SOL    HW256305  10.699   8.397   2.387
51511SOL     OW56306   3.349  14.514   2.440
51511SOL    HW156307   3.351  14.471   2.354
51511SOL    HW256308   3.435  14.496   2.478
51512SOL     OW56309  13.546   4.214  13.939
51512SOL    HW156310  13.520   4.226  14.031
51512SOL    HW256311  13.607   4.286  13.922
51513SOL     OW56312  11.251  11.288   2.242
51513SOL    HW156313  11.318  11.327   2.185
51513SOL    HW256314  11.255  11.195   2.222
51514SOL     OW56315  11.026   5.490   1.291
51514SOL    HW156316  10.954   5.437   1.325
51514SOL    HW256317  11.100   5.430   1.288
51515SOL     OW56318   3.795   1.358   9.918
51515SOL    HW156319   3.747   1.378   9.998
51515SOL    HW256320   3.731   1.372   9.848
51516SOL     OW56321   4.414   5.153   7.915
51516SOL    HW156322   4.362   5.103   7.852
51516SOL    HW256323   4.505   5.132   7.893
51517SOL     OW56324   3.326   6.933  12.871
51517SOL    HW156325   3.408   6.909  12.829
51517SOL    HW256326   3.258   6.900  12.812
51518SOL     OW56327  13.537  11.610   8.001
51518SOL    HW156328  13.529  11.667   8.077
51518SOL    HW256329  13.466  11.547   8.009
51519SOL     OW56330   9.643   1.316   4.390
51519SOL    HW156331   9.689   1.233   4.380
51519SOL    HW256332   9.687   1.359   4.463
51520SOL     OW56333   9.775  13.592   7.072
51520SOL    HW156334   9.802  13.541   7.148
51520SOL    HW256335   9.757  13.680   7.107
51521SOL     OW56336   2.847  12.850   9.059
51521SOL    HW156337   2.863  12.757   9.073
51521SOL    HW256338   2.860  12.863   8.965
51522SOL     OW56339  14.323   6.354   0.653
51522SOL    HW156340  14.330   6.342   0.748
51522SOL    HW256341  14.293   6.445   0.643
51523SOL     OW56342   4.846   4.367  14.279
51523SOL    HW156343   4.908   4.318  14.224
51523SOL    HW256344   4.762   4.359  14.234
51524SOL     OW56345  10.023   5.109   0.676
51524SOL    HW156346   9.935   5.144   0.685
51524SOL    HW256347  10.047   5.128   0.585
51525SOL     OW56348  14.541   5.415   8.122
51525SOL    HW156349  14.604   5.381   8.185
51525SOL    HW256350  14.580   5.496   8.089
51526SOL     OW56351   2.079   5.138   4.658
51526SOL    HW156352   2.055   5.132   4.566
51526SOL    HW256353   2.094   5.048   4.685
51527SOL     OW56354   5.572   5.153   2.530
51527SOL    HW156355   5.613   5.086   2.475
51527SOL    HW256356   5.491   5.176   2.484
51528SOL     OW56357   7.325  11.653  12.816
51528SOL    HW156358   7.405  11.600  12.811
51528SOL    HW256359   7.255  11.592  12.795
51529SOL     OW56360   8.620  12.324   3.533
51529SOL    HW156361   8.657  12.236   3.540
51529SOL    HW256362   8.544  12.322   3.592
51530SOL     OW56363   4.254  14.560   3.811
51530SOL    HW156364   4.342  14.581   3.843
51530SOL    HW256365   4.200  14.558   3.891
51531SOL     OW56366  12.999   8.909   5.593
51531SOL    HW156367  13.089   8.878   5.607
51531SOL    HW256368  13.007   9.003   5.582
51532SOL     OW56369   6.864  13.973   6.180
51532SOL    HW156370   6.893  14.053   6.136
51532SOL    HW256371   6.809  13.929   6.115
51533SOL     OW56372  14.406  11.943  14.023
51533SOL    HW156373  14.336  11.997  13.986
51533SOL    HW256374  14.486  11.992  14.005
51534SOL     OW56375   6.674   7.705   0.815
51534SOL    HW156376   6.722   7.718   0.733
51534SOL    HW256377   6.719   7.632   0.857
51535SOL     OW56378  13.050   8.553  13.757
51535SOL    HW156379  13.136   8.590  13.740
51535SOL    HW256380  13.065   8.490  13.828
51536SOL     OW56381   2.227   2.030  11.887
51536SOL    HW156382   2.319   2.030  11.911
51536SOL    HW256383   2.203   1.938  11.882
51537SOL     OW56384  10.567   9.304   1.657
51537SOL    HW156385  10.598   9.376   1.713
51537SOL    HW256386  10.555   9.345   1.572
51538SOL     OW56387   4.791   8.684   4.031
51538SOL    HW156388   4.698   8.659   4.029
51538SOL    HW256389   4.838   8.601   4.021
51539SOL     OW56390   3.627  10.366   5.264
51539SOL    HW156391   3.589  10.385   5.350
51539SOL    HW256392   3.668  10.448   5.237
51540SOL     OW56393   1.998  13.616   0.159
51540SOL    HW156394   2.000  13.707   0.131
51540SOL    HW256395   1.940  13.615   0.235
51541SOL     OW56396   8.840  13.438   5.813
51541SOL    HW156397   8.894  13.404   5.884
51541SOL    HW256398   8.864  13.386   5.737
51542SOL     OW56399  11.466   6.313   3.374
51542SOL    HW156400  11.394   6.262   3.412
51542SOL    HW256401  11.545   6.272   3.409
51543SOL     OW56402   5.543   6.222   8.876
51543SOL    HW156403   5.608   6.242   8.809
51543SOL    HW256404   5.471   6.283   8.859
51544SOL     OW56405   6.736   8.794  11.806
51544SOL    HW156406   6.714   8.702  11.794
51544SOL    HW256407   6.831   8.797  11.793
51545SOL     OW56408   6.402   9.981  13.175
51545SOL    HW156409   6.481  10.011  13.130
51545SOL    HW256410   6.353   9.934  13.107
51546SOL     OW56411  13.988   4.172   2.884
51546SOL    HW156412  13.909   4.123   2.862
51546SOL    HW256413  13.962   4.227   2.958
51547SOL     OW56414   8.684   0.284   0.330
51547SOL    HW156415   8.661   0.198   0.297
51547SOL    HW256416   8.603   0.335   0.326
51548SOL     OW56417  14.447   1.300  12.383
51548SOL    HW156418  14.395   1.329  12.458
51548SOL    HW256419  14.500   1.228  12.418
51549SOL     OW56420   2.444   3.548   7.618
51549SOL    HW156421   2.376   3.530   7.553
51549SOL    HW256422   2.424   3.636   7.650
51550SOL     OW56423   8.169   9.399   7.236
51550SOL    HW156424   8.251   9.376   7.280
51550SOL    HW256425   8.195   9.414   7.145
51551SOL     OW56426   2.825   5.791   3.207
51551SOL    HW156427   2.811   5.798   3.112
51551SOL    HW256428   2.788   5.872   3.243
51552SOL     OW56429   2.749   8.284  13.765
51552SOL    HW156430   2.828   8.333  13.787
51552SOL    HW256431   2.733   8.304  13.673
51553SOL     OW56432   8.139   4.329   1.980
51553SOL    HW156433   8.228   4.294   1.974
51553SOL    HW256434   8.147   4.421   1.955
51554SOL     OW56435   6.789   7.642  14.202
51554SOL    HW156436   6.715   7.694  14.171
51554SOL    HW256437   6.749   7.569  14.249
51555SOL     OW56438  10.106  12.905   7.057
51555SOL    HW156439  10.041  12.844   7.091
51555SOL    HW256440  10.189  12.873   7.092
51556SOL     OW56441   2.848   9.803   6.746
51556SOL    HW156442   2.869   9.742   6.676
51556SOL    HW256443   2.930   9.850   6.762
51557SOL     OW56444  12.494   9.889  12.118
51557SOL    HW156445  12.434   9.834  12.067
51557SOL    HW256446  12.464   9.881  12.208
51558SOL     OW56447  13.755  10.828   6.745
51558SOL    HW156448  13.721  10.745   6.778
51558SOL    HW256449  13.835  10.804   6.698
51559SOL     OW56450   8.869   0.152   4.462
51559SOL    HW156451   8.836   0.213   4.529
51559SOL    HW256452   8.964   0.162   4.465
51560SOL     OW56453   7.048  12.161  12.392
51560SOL    HW156454   7.084  12.072  12.396
51560SOL    HW256455   7.122  12.218  12.416
51561SOL     OW56456   2.358   2.644   1.764
51561SOL    HW156457   2.328   2.701   1.693
51561SOL    HW256458   2.279   2.602   1.796
51562SOL     OW56459   7.115   8.876  12.561
51562SOL    HW156460   7.053   8.814  12.523
51562SOL    HW256461   7.193   8.823  12.581
51563SOL     OW56462   2.586  13.883   1.190
51563SOL    HW156463   2.582  13.903   1.284
51563SOL    HW256464   2.678  13.865   1.173
51564SOL     OW56465   6.527   4.910   5.687
51564SOL    HW156466   6.440   4.941   5.713
51564SOL    HW256467   6.538   4.827   5.734
51565SOL     OW56468  12.963   6.181   3.444
51565SOL    HW156469  12.878   6.150   3.415
51565SOL    HW256470  12.965   6.273   3.419
51566SOL     OW56471  10.895  10.487   8.979
51566SOL    HW156472  10.861  10.439   8.903
51566SOL    HW256473  10.956  10.551   8.941
51567SOL     OW56474  13.350   5.452   5.536
51567SOL    HW156475  13.436   5.421   5.563
51567SOL    HW256476  13.310   5.486   5.616
51568SOL     OW56477  12.646   2.785   6.914
51568SOL    HW156478  12.640   2.690   6.925
51568SOL    HW256479  12.646   2.820   7.003
51569SOL     OW56480   3.327  10.176  13.074
51569SOL    HW156481   3.409  10.186  13.024
51569SOL    HW256482   3.340  10.230  13.151
51570SOL     OW56483   3.691  12.129  10.648
51570SOL    HW156484   3.716  12.183  10.573
51570SOL    HW256485   3.727  12.042  10.628
51571SOL     OW56486  14.103  13.136  10.775
51571SOL    HW156487  14.017  13.122  10.736
51571SOL    HW256488  14.085  13.185  10.855
51572SOL     OW56489  14.143  11.904   7.619
51572SOL    HW156490  14.191  11.833   7.660
51572SOL    HW256491  14.085  11.862   7.557
51573SOL     OW56492   9.379   1.701   2.155
51573SOL    HW156493   9.407   1.617   2.118
51573SOL    HW256494   9.417   1.766   2.095
51574SOL     OW56495   4.054   6.368   3.732
51574SOL    HW156496   4.030   6.460   3.728
51574SOL    HW256497   4.090   6.355   3.820
51575SOL     OW56498  13.106   8.998  11.864
51575SOL    HW156499  13.145   8.954  11.939
51575SOL    HW256500  13.016   9.018  11.892
51576SOL     OW56501   4.076   3.168   2.935
51576SOL    HW156502   4.064   3.117   2.855
51576SOL    HW256503   4.156   3.135   2.974
51577SOL     OW56504   2.637  11.967   8.678
51577SOL    HW156505   2.627  12.062   8.684
51577SOL    HW256506   2.685  11.953   8.596
51578SOL     OW56507  10.418   8.498   6.686
51578SOL    HW156508  10.481   8.470   6.619
51578SOL    HW256509  10.334   8.465   6.655
51579SOL     OW56510   3.235   9.809  12.396
51579SOL    HW156511   3.209   9.869  12.465
51579SOL    HW256512   3.171   9.823  12.326
51580SOL     OW56513  11.688  12.676  11.429
51580SOL    HW156514  11.755  12.614  11.400
51580SOL    HW256515  11.667  12.726  11.350
51581SOL     OW56516   0.865   1.497  14.433
51581SOL    HW156517   0.874   1.502  14.528
51581SOL    HW256518   0.887   1.406  14.412
51582SOL     OW56519   8.231  10.674  14.623
51582SOL    HW156520   8.246  10.746  14.561
51582SOL    HW256521   8.178  10.611  14.574
51583SOL     OW56522   6.153   7.873   5.824
51583SOL    HW156523   6.198   7.834   5.899
51583SOL    HW256524   6.211   7.856   5.749
51584SOL     OW56525  14.784  13.990   6.473
51584SOL    HW156526  14.798  14.021   6.383
51584SOL    HW256527  14.714  14.046   6.506
51585SOL     OW56528   9.387   4.437  13.613
51585SOL    HW156529   9.369   4.442  13.707
51585SOL    HW256530   9.479   4.463  13.605
51586SOL     OW56531   9.318   3.878   9.867
51586SOL    HW156532   9.274   3.963   9.862
51586SOL    HW256533   9.246   3.815   9.876
51587SOL     OW56534  10.994  12.378   7.263
51587SOL    HW156535  11.010  12.431   7.341
51587SOL    HW256536  10.900  12.361   7.264
51588SOL     OW56537  10.081  10.341   0.939
51588SOL    HW156538  10.137  10.265   0.953
51588SOL    HW256539  10.074  10.349   0.844
51589SOL     OW56540   4.901   0.716   7.658
51589SOL    HW156541   4.820   0.750   7.694
51589SOL    HW256542   4.966   0.785   7.674
51590SOL     OW56543  14.260   0.780   7.092
51590SOL    HW156544  14.179   0.797   7.044
51590SOL    HW256545  14.318   0.739   7.028
51591SOL     OW56546   3.294   9.423   4.824
51591SOL    HW156547   3.219   9.447   4.769
51591SOL    HW256548   3.306   9.329   4.809
51592SOL     OW56549   6.270   5.398  14.556
51592SOL    HW156550   6.304   5.312  14.532
51592SOL    HW256551   6.271   5.400  14.651
51593SOL     OW56552   1.778  14.434   4.599
51593SOL    HW156553   1.729  14.437   4.518
51593SOL    HW256554   1.802  14.342   4.610
51594SOL     OW56555   4.769   0.106   1.982
51594SOL    HW156556   4.856   0.118   1.943
51594SOL    HW256557   4.784   0.109   2.076
51595SOL     OW56558  13.362  10.041   4.846
51595SOL    HW156559  13.430  10.067   4.908
51595SOL    HW256560  13.357   9.945   4.855
51596SOL     OW56561   2.379   8.181  10.865
51596SOL    HW156562   2.359   8.133  10.784
51596SOL    HW256563   2.417   8.263  10.835
51597SOL     OW56564   4.314   2.803  13.160
51597SOL    HW156565   4.379   2.844  13.103
51597SOL    HW256566   4.285   2.873  13.218
51598SOL     OW56567   4.915  14.338   0.055
51598SOL    HW156568   4.980  14.270   0.071
51598SOL    HW256569   4.831  14.292   0.059
51599SOL     OW56570   5.561   9.888   6.676
51599SOL    HW156571   5.569   9.823   6.606
51599SOL    HW256572   5.649   9.897   6.711
51600SOL     OW56573   8.655   2.169  14.606
51600SOL    HW156574   8.581   2.203  14.658
51600SOL    HW256575   8.713   2.244  14.596
51601SOL     OW56576   4.017  14.424  14.532
51601SOL    HW156577   4.052  14.336  14.516
51601SOL    HW256578   4.020  14.435  14.627
51602SOL     OW56579   7.513  12.244   3.639
51602SOL    HW156580   7.531  12.169   3.695
51602SOL    HW256581   7.444  12.214   3.580
51603SOL     OW56582   2.066   5.312   7.621
51603SOL    HW156583   2.030   5.223   7.626
51603SOL    HW256584   2.161   5.299   7.619
51604SOL     OW56585   7.182   7.611   1.487
51604SOL    HW156586   7.179   7.676   1.417
51604SOL    HW256587   7.091   7.594   1.508
51605SOL     OW56588  12.683   1.237   1.887
51605SOL    HW156589  12.616   1.261   1.951
51605SOL    HW256590  12.743   1.179   1.936
51606SOL     OW56591   9.226   3.092  10.195
51606SOL    HW156592   9.290   3.147  10.150
51606SOL    HW256593   9.231   3.007  10.151
51607SOL     OW56594   7.788   4.565   9.163
51607SOL    HW156595   7.774   4.618   9.242
51607SOL    HW256596   7.831   4.486   9.194
51608SOL     OW56597   8.155   8.303   6.014
51608SOL    HW156598   8.172   8.386   6.058
51608SOL    HW256599   8.135   8.241   6.084
51609SOL     OW56600   4.151   0.907   9.585
51609SOL    HW156601   4.223   0.965   9.609
51609SOL    HW256602   4.078   0.936   9.639
51610SOL     OW56603   4.869   3.134  10.512
51610SOL    HW156604   4.824   3.090  10.441
51610SOL    HW256605   4.929   3.068  10.547
51611SOL     OW56606   9.553   6.835  13.405
51611SOL    HW156607   9.575   6.742  13.410
51611SOL    HW256608   9.545   6.853  13.312
51612SOL     OW56609   1.541   4.056  14.599
51612SOL    HW156610   1.532   4.021  14.688
51612SOL    HW256611   1.457   4.037  14.557
51613SOL     OW56612  11.935   4.893   4.328
51613SOL    HW156613  11.992   4.867   4.256
51613SOL    HW256614  11.857   4.927   4.285
51614SOL     OW56615   1.556  10.914   6.437
51614SOL    HW156616   1.572  10.821   6.456
51614SOL    HW256617   1.547  10.955   6.523
51615SOL     OW56618   3.764   8.041   7.921
51615SOL    HW156619   3.809   7.957   7.917
51615SOL    HW256620   3.742   8.053   8.014
51616SOL     OW56621  11.053   5.284   9.327
51616SOL    HW156622  11.148   5.275   9.340
51616SOL    HW256623  11.041   5.277   9.232
51617SOL     OW56624   5.870   7.985  10.154
51617SOL    HW156625   5.838   8.044  10.222
51617SOL    HW256626   5.792   7.941  10.121
51618SOL     OW56627  10.989   5.595  14.552
51618SOL    HW156628  10.985   5.578  14.646
51618SOL    HW256629  10.960   5.514  14.512
51619SOL     OW56630   6.660  11.545   3.578
51619SOL    HW156631   6.574  11.519   3.546
51619SOL    HW256632   6.714  11.466   3.571
51620SOL     OW56633   8.925   2.169  11.853
51620SOL    HW156634   8.933   2.242  11.914
51620SOL    HW256635   8.916   2.092  11.910
51621SOL     OW56636   7.386   0.609  12.397
51621SOL    HW156637   7.295   0.585  12.412
51621SOL    HW256638   7.385   0.705  12.392
51622SOL     OW56639  12.470   2.840  11.004
51622SOL    HW156640  12.532   2.781  11.047
51622SOL    HW256641  12.384   2.799  11.018
51623SOL     OW56642   7.619   4.704   2.665
51623SOL    HW156643   7.561   4.767   2.622
51623SOL    HW256644   7.679   4.676   2.596
51624SOL     OW56645  11.359   5.046  10.138
51624SOL    HW156646  11.419   5.106  10.182
51624SOL    HW256647  11.272   5.077  10.162
51625SOL     OW56648  10.546   0.164   5.184
51625SOL    HW156649  10.532   0.076   5.149
51625SOL    HW256650  10.469   0.182   5.237
51626SOL     OW56651  10.462  13.349   2.093
51626SOL    HW156652  10.521  13.275   2.106
51626SOL    HW256653  10.446  13.349   1.998
51627SOL     OW56654   2.343  11.310   2.786
51627SOL    HW156655   2.344  11.395   2.830
51627SOL    HW256656   2.390  11.252   2.846
51628SOL     OW56657   8.258  10.559  12.158
51628SOL    HW156658   8.317  10.576  12.084
51628SOL    HW256659   8.277  10.468  12.183
51629SOL     OW56660  13.837  11.693  12.446
51629SOL    HW156661  13.933  11.688  12.439
51629SOL    HW256662  13.805  11.650  12.367
51630SOL     OW56663   0.197  13.543  12.715
51630SOL    HW156664   0.261  13.614  12.712
51630SOL    HW256665   0.113  13.587  12.721
51631SOL     OW56666  14.411   8.448  11.374
51631SOL    HW156667  14.341   8.386  11.357
51631SOL    HW256668  14.417   8.452  11.470
51632SOL     OW56669   8.333   1.531   8.300
51632SOL    HW156670   8.301   1.496   8.383
51632SOL    HW256671   8.420   1.494   8.291
51633SOL     OW56672  14.063   8.798   7.256
51633SOL    HW156673  14.144   8.755   7.229
51633SOL    HW256674  13.993   8.743   7.221
51634SOL     OW56675   2.094   5.528   0.453
51634SOL    HW156676   2.131   5.494   0.534
51634SOL    HW256677   2.000   5.508   0.459
51635SOL     OW56678   2.700   8.248   7.657
51635SOL    HW156679   2.642   8.172   7.665
51635SOL    HW256680   2.734   8.262   7.746
51636SOL     OW56681   9.590  12.488   9.777
51636SOL    HW156682   9.601  12.510   9.870
51636SOL    HW256683   9.629  12.561   9.730
51637SOL     OW56684   4.759  12.728  13.021
51637SOL    HW156685   4.726  12.747  13.109
51637SOL    HW256686   4.772  12.814  12.981
51638SOL     OW56687   6.932   6.552   0.076
51638SOL    HW156688   6.887   6.546   0.160
51638SOL    HW256689   6.906   6.637   0.040
51639SOL     OW56690   5.893   9.482  14.797
51639SOL    HW156691   5.885   9.550  14.730
51639SOL    HW256692   5.823   9.419  14.775
51640SOL     OW56693  10.828  10.898   5.918
51640SOL    HW156694  10.864  10.932   6.000
51640SOL    HW256695  10.903  10.859   5.874
51641SOL     OW56696  14.750  11.571   0.219
51641SOL    HW156697  14.817  11.507   0.196
51641SOL    HW256698  14.800  11.647   0.252
51642SOL     OW56699   0.349  12.662  14.741
51642SOL    HW156700   0.283  12.665  14.673
51642SOL    HW256701   0.315  12.719  14.810
51643SOL     OW56702   9.845   0.093   3.349
51643SOL    HW156703   9.850   0.165   3.413
51643SOL    HW256704   9.855   0.014   3.401
51644SOL     OW56705   8.830  13.608   8.738
51644SOL    HW156706   8.818  13.528   8.688
51644SOL    HW256707   8.822  13.678   8.672
51645SOL     OW56708   8.359   0.109   8.857
51645SOL    HW156709   8.310   0.188   8.836
51645SOL    HW256710   8.321   0.041   8.801
51646SOL     OW56711   5.606   8.946  12.955
51646SOL    HW156712   5.551   8.984  12.888
51646SOL    HW256713   5.653   8.875  12.910
51647SOL     OW56714   0.537   6.477   9.642
51647SOL    HW156715   0.482   6.400   9.658
51647SOL    HW256716   0.529   6.530   9.722
51648SOL     OW56717   9.216   3.099   7.680
51648SOL    HW156718   9.122   3.106   7.698
51648SOL    HW256719   9.224   3.016   7.632
51649SOL     OW56720  14.560   5.486  11.545
51649SOL    HW156721  14.595   5.463  11.631
51649SOL    HW256722  14.614   5.438  11.482
51650SOL     OW56723  13.890   5.395   2.012
51650SOL    HW156724  13.975   5.409   2.055
51650SOL    HW256725  13.887   5.301   1.994
51651SOL     OW56726   6.734   2.725   1.964
51651SOL    HW156727   6.707   2.805   2.009
51651SOL    HW256728   6.762   2.666   2.034
51652SOL     OW56729   3.527   1.462   1.682
51652SOL    HW156730   3.507   1.540   1.733
51652SOL    HW256731   3.493   1.389   1.735
51653SOL     OW56732   4.629  14.587   9.098
51653SOL    HW156733   4.714  14.609   9.059
51653SOL    HW256734   4.636  14.618   9.189
51654SOL     OW56735   9.127  12.783  13.821
51654SOL    HW156736   9.190  12.793  13.893
51654SOL    HW256737   9.043  12.772  13.864
51655SOL     OW56738  10.595   4.066  10.522
51655SOL    HW156739  10.502   4.055  10.543
51655SOL    HW256740  10.629   4.123  10.591
51656SOL     OW56741   6.615  10.230   8.369
51656SOL    HW156742   6.677  10.299   8.395
51656SOL    HW256743   6.538  10.278   8.338
51657SOL     OW56744  14.588  12.195   7.523
51657SOL    HW156745  14.520  12.160   7.581
51657SOL    HW256746  14.573  12.151   7.440
51658SOL     OW56747   3.649  10.347  11.058
51658SOL    HW156748   3.618  10.433  11.086
51658SOL    HW256749   3.627  10.289  11.130
51659SOL     OW56750   2.097   8.255   9.815
51659SOL    HW156751   2.182   8.297   9.798
51659SOL    HW256752   2.120   8.168   9.848
51660SOL     OW56753   1.896   2.884   6.416
51660SOL    HW156754   1.909   2.824   6.490
51660SOL    HW256755   1.830   2.841   6.362
51661SOL     OW56756   4.169   9.610  12.274
51661SOL    HW156757   4.130   9.694  12.295
51661SOL    HW256758   4.167   9.561  12.356
51662SOL     OW56759   7.042   7.294  13.378
51662SOL    HW156760   6.991   7.368  13.412
51662SOL    HW256761   7.019   7.291  13.285
51663SOL     OW56762  10.359   7.175   3.142
51663SOL    HW156763  10.367   7.269   3.123
51663SOL    HW256764  10.354   7.134   3.055
51664SOL     OW56765   5.107   7.723  11.885
51664SOL    HW156766   5.184   7.689  11.840
51664SOL    HW256767   5.099   7.814  11.857
51665SOL     OW56768  11.333  13.120   3.862
51665SOL    HW156769  11.278  13.196   3.880
51665SOL    HW256770  11.399  13.153   3.801
51666SOL     OW56771   6.569  10.205   5.440
51666SOL    HW156772   6.585  10.111   5.430
51666SOL    HW256773   6.478  10.212   5.468
51667SOL     OW56774   3.967  12.036   1.426
51667SOL    HW156775   3.976  12.117   1.376
51667SOL    HW256776   4.056  12.016   1.455
51668SOL     OW56777   4.316  10.190  12.138
51668SOL    HW156778   4.350  10.270  12.177
51668SOL    HW256779   4.393  10.136  12.123
51669SOL     OW56780  10.162   6.921   6.481
51669SOL    HW156781  10.152   6.837   6.436
51669SOL    HW256782  10.255   6.941   6.473
51670SOL     OW56783  10.055  10.176  11.529
51670SOL    HW156784  10.089  10.096  11.569
51670SOL    HW256785   9.968  10.187  11.568
51671SOL     OW56786  10.143   4.800   2.073
51671SOL    HW156787  10.178   4.768   1.990
51671SOL    HW256788  10.210   4.777   2.137
51672SOL     OW56789   0.155  10.891   6.931
51672SOL    HW156790   0.155  10.811   6.879
51672SOL    HW256791   0.076  10.885   6.984
51673SOL     OW56792   2.357   8.304   9.756
51673SOL    HW156793   2.429   8.363   9.734
51673SOL    HW256794   2.387   8.218   9.725
51674SOL     OW56795   8.346   4.375   7.266
51674SOL    HW156796   8.407   4.394   7.195
51674SOL    HW256797   8.399   4.330   7.332
51675SOL     OW56798  11.969   9.497  11.667
51675SOL    HW156799  12.030   9.454  11.607
51675SOL    HW256800  11.957   9.585  11.631
51676SOL     OW56801   3.386  13.748   8.983
51676SOL    HW156802   3.336  13.790   8.913
51676SOL    HW256803   3.435  13.678   8.939
51677SOL     OW56804   1.436   0.199   4.541
51677SOL    HW156805   1.488   0.275   4.514
51677SOL    HW256806   1.390   0.172   4.462
51678SOL     OW56807   2.016  10.540   4.159
51678SOL    HW156808   2.071  10.506   4.229
51678SOL    HW256809   2.022  10.473   4.090
51679SOL     OW56810   3.015   6.741   9.210
51679SOL    HW156811   3.084   6.675   9.218
51679SOL    HW256812   2.940   6.693   9.175
51680SOL     OW56813   0.900  11.833   0.770
51680SOL    HW156814   0.867  11.778   0.698
51680SOL    HW256815   0.944  11.772   0.829
51681SOL     OW56816  14.811   3.647   5.051
51681SOL    HW156817  14.766   3.565   5.036
51681SOL    HW256818   0.004   3.624   5.107
51682SOL     OW56819   2.286  11.739   4.984
51682SOL    HW156820   2.317  11.667   5.038
51682SOL    HW256821   2.226  11.698   4.921
51683SOL     OW56822   1.105  12.245   4.486
51683SOL    HW156823   1.015  12.233   4.515
51683SOL    HW256824   1.150  12.284   4.561
51684SOL     OW56825   4.947   8.233  12.217
51684SOL    HW156826   5.042   8.225  12.215
51684SOL    HW256827   4.928   8.303  12.155
51685SOL     OW56828  13.786   3.041   1.646
51685SOL    HW156829  13.708   2.990   1.622
51685SOL    HW256830  13.823   2.994   1.721
51686SOL     OW56831  12.125   5.398   5.133
51686SOL    HW156832  12.088   5.470   5.185
51686SOL    HW256833  12.051   5.342   5.113
51687SOL     OW56834  10.896   3.346   2.035
51687SOL    HW156835  10.990   3.331   2.039
51687SOL    HW256836  10.862   3.310   2.117
51688SOL     OW56837   3.653  14.403   1.025
51688SOL    HW156838   3.703  14.462   0.968
51688SOL    HW256839   3.563  14.412   0.994
51689SOL     OW56840   9.825  14.226   8.845
51689SOL    HW156841   9.785  14.147   8.809
51689SOL    HW256842   9.802  14.225   8.938
51690SOL     OW56843   2.259   5.687   6.293
51690SOL    HW156844   2.303   5.614   6.337
51690SOL    HW256845   2.329   5.751   6.277
51691SOL     OW56846   1.697   2.098  10.944
51691SOL    HW156847   1.699   2.193  10.959
51691SOL    HW256848   1.618   2.083  10.892
51692SOL     OW56849  13.476   7.015   3.417
51692SOL    HW156850  13.446   6.977   3.335
51692SOL    HW256851  13.541   7.081   3.390
51693SOL     OW56852   9.610   4.734   9.350
51693SOL    HW156853   9.615   4.764   9.441
51693SOL    HW256854   9.556   4.654   9.354
51694SOL     OW56855   0.478   9.050   1.804
51694SOL    HW156856   0.492   9.087   1.891
51694SOL    HW256857   0.561   9.007   1.782
51695SOL     OW56858  12.211   8.081   5.349
51695SOL    HW156859  12.222   8.133   5.428
51695SOL    HW256860  12.246   8.135   5.279
51696SOL     OW56861  10.641   1.119  10.317
51696SOL    HW156862  10.571   1.068  10.275
51696SOL    HW256863  10.721   1.088  10.276
51697SOL     OW56864  13.533   1.206   3.420
51697SOL    HW156865  13.575   1.123   3.397
51697SOL    HW256866  13.454   1.181   3.468
51698SOL     OW56867   9.541  11.096   8.869
51698SOL    HW156868   9.539  11.082   8.775
51698SOL    HW256869   9.554  11.191   8.879
51699SOL     OW56870  13.076   4.619   5.937
51699SOL    HW156871  13.124   4.536   5.933
51699SOL    HW256872  13.093   4.652   6.025
51700SOL     OW56873   8.265  12.425   5.118
51700SOL    HW156874   8.317  12.345   5.122
51700SOL    HW256875   8.326  12.493   5.091
51701SOL     OW56876   6.481   4.214  12.281
51701SOL    HW156877   6.538   4.152  12.326
51701SOL    HW256878   6.492   4.297  12.329
51702SOL     OW56879   5.667  10.146   5.083
51702SOL    HW156880   5.665  10.234   5.121
51702SOL    HW256881   5.760  10.121   5.085
51703SOL     OW56882   0.401   6.561   8.804
51703SOL    HW156883   0.320   6.534   8.759
51703SOL    HW256884   0.434   6.633   8.752
51704SOL     OW56885   2.246  12.143   6.420
51704SOL    HW156886   2.285  12.121   6.336
51704SOL    HW256887   2.223  12.235   6.412
51705SOL     OW56888   5.185   8.077   5.801
51705SOL    HW156889   5.198   8.002   5.743
51705SOL    HW256890   5.131   8.043   5.872
51706SOL     OW56891  14.594   4.697  10.680
51706SOL    HW156892  14.562   4.786  10.697
51706SOL    HW256893  14.628   4.701  10.590
51707SOL     OW56894   7.676   9.119   2.083
51707SOL    HW156895   7.766   9.144   2.064
51707SOL    HW256896   7.650   9.063   2.010
51708SOL     OW56897   5.906   5.448   5.581
51708SOL    HW156898   5.922   5.355   5.596
51708SOL    HW256899   5.988   5.482   5.546
51709SOL     OW56900   1.072   3.314  13.642
51709SOL    HW156901   1.067   3.271  13.557
51709SOL    HW256902   1.131   3.388  13.629
51710SOL     OW56903   4.944   5.648  14.770
51710SOL    HW156904   5.027   5.601  14.764
51710SOL    HW256905   4.957   5.724  14.713
51711SOL     OW56906  10.365   8.900   2.842
51711SOL    HW156907  10.361   8.804   2.836
51711SOL    HW256908  10.288   8.930   2.794
51712SOL     OW56909  14.422   0.144  13.167
51712SOL    HW156910  14.460   0.066  13.128
51712SOL    HW256911  14.454   0.144  13.257
51713SOL     OW56912  12.912   4.619   2.670
51713SOL    HW156913  12.860   4.676   2.727
51713SOL    HW256914  13.000   4.656   2.672
51714SOL     OW56915   4.171   9.461  11.768
51714SOL    HW156916   4.201   9.527  11.830
51714SOL    HW256917   4.158   9.382  11.821
51715SOL     OW56918   1.588   9.007   1.826
51715SOL    HW156919   1.624   8.940   1.768
51715SOL    HW256920   1.632   9.088   1.799
51716SOL     OW56921  11.709   8.266   8.076
51716SOL    HW156922  11.614   8.253   8.070
51716SOL    HW256923  11.745   8.203   8.013
51717SOL     OW56924   1.947   3.826  13.786
51717SOL    HW156925   1.950   3.917  13.757
51717SOL    HW256926   1.959   3.831  13.881
51718SOL     OW56927   4.576   1.120   1.252
51718SOL    HW156928   4.519   1.166   1.191
51718SOL    HW256929   4.523   1.111   1.332
51719SOL     OW56930   2.535   6.080   5.866
51719SOL    HW156931   2.590   6.002   5.871
51719SOL    HW256932   2.497   6.077   5.778
51720SOL     OW56933  12.127  10.271   4.677
51720SOL    HW156934  12.138  10.189   4.726
51720SOL    HW256935  12.088  10.243   4.594
51721SOL     OW56936   2.830   7.853   5.914
51721SOL    HW156937   2.801   7.822   5.828
51721SOL    HW256938   2.891   7.786   5.944
51722SOL     OW56939   0.856  14.276  10.390
51722SOL    HW156940   0.869  14.371  10.393
51722SOL    HW256941   0.799  14.263  10.314
51723SOL     OW56942  12.717   8.164   2.561
51723SOL    HW156943  12.781   8.234   2.573
51723SOL    HW256944  12.765   8.084   2.582
51724SOL     OW56945   3.240  14.583  14.628
51724SOL    HW156946   3.263  14.490  14.629
51724SOL    HW256947   3.144  14.584  14.629
51725SOL     OW56948   0.400   0.729   9.943
51725SOL    HW156949   0.443   0.765  10.020
51725SOL    HW256950   0.357   0.804   9.902
51726SOL     OW56951   5.347   1.700   8.833
51726SOL    HW156952   5.261   1.668   8.859
51726SOL    HW256953   5.364   1.774   8.891
51727SOL     OW56954  11.941   4.948  10.247
51727SOL    HW156955  12.035   4.956  10.262
51727SOL    HW256956  11.933   4.942  10.152
51728SOL     OW56957  13.807   1.329   6.518
51728SOL    HW156958  13.776   1.414   6.488
51728SOL    HW256959  13.731   1.290   6.562
51729SOL     OW56960   3.671   0.911   7.754
51729SOL    HW156961   3.710   0.892   7.840
51729SOL    HW256962   3.720   0.856   7.693
51730SOL     OW56963   4.031  14.016   3.380
51730SOL    HW156964   3.996  13.986   3.464
51730SOL    HW256965   4.075  13.939   3.343
51731SOL     OW56966  12.358   9.425   3.390
51731SOL    HW156967  12.366   9.330   3.378
51731SOL    HW256968  12.383   9.461   3.305
51732SOL     OW56969  13.483  13.461   3.988
51732SOL    HW156970  13.519  13.432   3.905
51732SOL    HW256971  13.558  13.462   4.048
51733SOL     OW56972  10.530  11.351  12.003
51733SOL    HW156973  10.598  11.379  11.941
51733SOL    HW256974  10.576  11.292  12.064
51734SOL     OW56975   4.764  11.083   5.879
51734SOL    HW156976   4.694  11.133   5.837
51734SOL    HW256977   4.725  10.997   5.895
51735SOL     OW56978   8.871   8.611  10.541
51735SOL    HW156979   8.799   8.663  10.577
51735SOL    HW256980   8.875   8.636  10.449
51736SOL     OW56981   9.841   9.269   3.021
51736SOL    HW156982   9.770   9.225   3.069
51736SOL    HW256983   9.824   9.362   3.034
51737SOL     OW56984   4.034   3.211  14.549
51737SOL    HW156985   4.060   3.253  14.467
51737SOL    HW256986   4.090   3.251  14.615
51738SOL     OW56987  10.456  13.652   8.899
51738SOL    HW156988  10.380  13.679   8.949
51738SOL    HW256989  10.423  13.637   8.811
51739SOL     OW56990   9.792  12.574   4.993
51739SOL    HW156991   9.853  12.570   5.067
51739SOL    HW256992   9.846  12.598   4.918
51740SOL     OW56993   6.280  13.466   1.713
51740SOL    HW156994   6.315  13.457   1.802
51740SOL    HW256995   6.224  13.389   1.701
51741SOL     OW56996   9.744   3.565   6.692
51741SOL    HW156997   9.743   3.661   6.682
51741SOL    HW256998   9.671   3.547   6.752
51742SOL     OW56999  10.502   5.253  12.989
51742SOL    HW157000  10.553   5.241  13.069
51742SOL    HW257001  10.546   5.199  12.924
51743SOL     OW57002   7.517   1.279  10.152
51743SOL    HW157003   7.529   1.350  10.089
51743SOL    HW257004   7.505   1.200  10.099
51744SOL     OW57005   0.922  10.072  10.393
51744SOL    HW157006   1.014  10.091  10.412
51744SOL    HW257007   0.888  10.036  10.475
51745SOL     OW57008   6.095  12.531   8.669
51745SOL    HW157009   6.174  12.526   8.614
51745SOL    HW257010   6.118  12.592   8.738
51746SOL     OW57011   4.783  10.641   2.415
51746SOL    HW157012   4.698  10.601   2.433
51746SOL    HW257013   4.810  10.604   2.331
51747SOL     OW57014  11.237   4.500   1.215
51747SOL    HW157015  11.181   4.571   1.183
51747SOL    HW257016  11.321   4.541   1.231
51748SOL     OW57017  13.489   1.539   3.464
51748SOL    HW157018  13.483   1.584   3.549
51748SOL    HW257019  13.406   1.491   3.457
51749SOL     OW57020   1.267   5.007  14.306
51749SOL    HW157021   1.244   4.943  14.374
51749SOL    HW257022   1.196   5.071  14.307
51750SOL     OW57023   9.447   5.906   0.480
51750SOL    HW157024   9.414   5.825   0.517
51750SOL    HW257025   9.499   5.879   0.404
51751SOL     OW57026   9.944  12.639   3.019
51751SOL    HW157027   9.964  12.698   2.946
51751SOL    HW257028   9.849  12.633   3.020
51752SOL     OW57029   2.576   8.788   7.696
51752SOL    HW157030   2.639   8.719   7.676
51752SOL    HW257031   2.603   8.820   7.782
51753SOL     OW57032   1.374   7.460   2.606
51753SOL    HW157033   1.294   7.414   2.581
51753SOL    HW257034   1.401   7.507   2.528
51754SOL     OW57035  11.708   9.699  10.643
51754SOL    HW157036  11.653   9.777  10.644
51754SOL    HW257037  11.794   9.731  10.616
51755SOL     OW57038   1.329   6.156   8.412
51755SOL    HW157039   1.292   6.211   8.482
51755SOL    HW257040   1.320   6.067   8.444
51756SOL     OW57041  11.689   2.581   0.936
51756SOL    HW157042  11.660   2.513   0.998
51756SOL    HW257043  11.609   2.629   0.915
51757SOL     OW57044   8.419  14.049   2.976
51757SOL    HW157045   8.445  14.083   2.890
51757SOL    HW257046   8.339  14.097   2.997
51758SOL     OW57047   2.012   1.718  12.871
51758SOL    HW157048   1.984   1.791  12.926
51758SOL    HW257049   2.033   1.648  12.933
51759SOL     OW57050   1.841   3.287  12.171
51759SOL    HW157051   1.769   3.307  12.231
51759SOL    HW257052   1.827   3.345  12.096
51760SOL     OW57053  11.201  10.448   7.032
51760SOL    HW157054  11.182  10.541   7.016
51760SOL    HW257055  11.117  10.412   7.062
51761SOL     OW57056   7.832  14.851   6.880
51761SOL    HW157057   7.849   0.005   6.967
51761SOL    HW257058   7.789  14.767   6.897
51762SOL     OW57059   3.762  13.996   9.541
51762SOL    HW157060   3.760  13.900   9.546
51762SOL    HW257061   3.774  14.014   9.447
51763SOL     OW57062   5.669   5.253   1.535
51763SOL    HW157063   5.664   5.330   1.592
51763SOL    HW257064   5.637   5.283   1.451
51764SOL     OW57065  10.623  11.726  11.878
51764SOL    HW157066  10.627  11.818  11.855
51764SOL    HW257067  10.629  11.680  11.794
51765SOL     OW57068   8.542   6.982   7.659
51765SOL    HW157069   8.552   6.923   7.734
51765SOL    HW257070   8.589   7.061   7.685
51766SOL     OW57071  12.307   0.632  13.389
51766SOL    HW157072  12.269   0.609  13.474
51766SOL    HW257073  12.258   0.580  13.326
51767SOL     OW57074  10.260   4.543  11.041
51767SOL    HW157075  10.199   4.476  11.009
51767SOL    HW257076  10.206   4.622  11.051
51768SOL     OW57077   9.923   0.463  13.439
51768SOL    HW157078  10.009   0.477  13.400
51768SOL    HW257079   9.923   0.371  13.465
51769SOL     OW57080   5.700  13.616  10.703
51769SOL    HW157081   5.783  13.644  10.741
51769SOL    HW257082   5.725  13.570  10.623
51770SOL     OW57083   5.371   6.022  11.568
51770SOL    HW157084   5.299   5.964  11.544
51770SOL    HW257085   5.332   6.088  11.625
51771SOL     OW57086   0.717  13.382   2.061
51771SOL    HW157087   0.660  13.306   2.074
51771SOL    HW257088   0.675  13.451   2.112
51772SOL     OW57089  14.283  10.735  12.956
51772SOL    HW157090  14.217  10.722  13.024
51772SOL    HW257091  14.274  10.826  12.930
51773SOL     OW57092   2.569   4.325  14.774
51773SOL    HW157093   2.511   4.356  14.705
51773SOL    HW257094   2.545   4.233  14.786
51774SOL     OW57095   2.689   9.065   0.799
51774SOL    HW157096   2.694   9.064   0.894
51774SOL    HW257097   2.748   8.996   0.770
51775SOL     OW57098   6.426   7.007   4.651
51775SOL    HW157099   6.359   7.061   4.609
51775SOL    HW257100   6.423   7.031   4.744
51776SOL     OW57101  14.117   8.646   9.474
51776SOL    HW157102  14.118   8.644   9.378
51776SOL    HW257103  14.177   8.577   9.500
51777SOL     OW57104  11.067   7.075  10.132
51777SOL    HW157105  11.153   7.094  10.169
51777SOL    HW257106  11.028   7.162  10.118
51778SOL     OW57107   4.590   2.799   1.666
51778SOL    HW157108   4.562   2.830   1.752
51778SOL    HW257109   4.531   2.726   1.647
51779SOL     OW57110   0.413   4.486  13.740
51779SOL    HW157111   0.488   4.477  13.798
51779SOL    HW257112   0.359   4.409  13.759
51780SOL     OW57113   3.480   1.178   3.883
51780SOL    HW157114   3.497   1.093   3.923
51780SOL    HW257115   3.480   1.161   3.789
51781SOL     OW57116   4.773   1.518   7.898
51781SOL    HW157117   4.765   1.457   7.824
51781SOL    HW257118   4.801   1.463   7.971
51782SOL     OW57119  13.088   2.478   1.481
51782SOL    HW157120  13.031   2.502   1.408
51782SOL    HW257121  13.034   2.494   1.559
51783SOL     OW57122   8.327   9.134  12.430
51783SOL    HW157123   8.344   9.062  12.370
51783SOL    HW257124   8.267   9.192  12.382
51784SOL     OW57125  10.535   9.195   6.826
51784SOL    HW157126  10.556   9.229   6.739
51784SOL    HW257127  10.604   9.230   6.883
51785SOL     OW57128   0.119  11.715   5.658
51785SOL    HW157129   0.188  11.761   5.610
51785SOL    HW257130   0.053  11.695   5.592
51786SOL     OW57131   9.032   5.583   8.806
51786SOL    HW157132   9.116   5.544   8.782
51786SOL    HW257133   9.054   5.674   8.829
51787SOL     OW57134  10.204   8.635   6.221
51787SOL    HW157135  10.296   8.659   6.220
51787SOL    HW257136  10.186   8.607   6.131
51788SOL     OW57137   0.079  14.100   6.630
51788SOL    HW157138   0.165  14.066   6.603
51788SOL    HW257139   0.016  14.052   6.577
51789SOL     OW57140   2.657   6.944  14.369
51789SOL    HW157141   2.692   6.855  14.372
51789SOL    HW257142   2.583   6.939  14.309
51790SOL     OW57143  10.335   3.661  11.750
51790SOL    HW157144  10.269   3.626  11.810
51790SOL    HW257145  10.308   3.630  11.663
51791SOL     OW57146  13.562   6.213   4.739
51791SOL    HW157147  13.563   6.294   4.689
51791SOL    HW257148  13.483   6.218   4.792
51792SOL     OW57149   9.473  11.217   7.536
51792SOL    HW157150   9.551  11.163   7.524
51792SOL    HW257151   9.444  11.238   7.448
51793SOL     OW57152   6.270   7.409   1.130
51793SOL    HW157153   6.192   7.400   1.075
51793SOL    HW257154   6.340   7.433   1.069
51794SOL     OW57155  10.511   0.722   1.298
51794SOL    HW157156  10.425   0.687   1.274
51794SOL    HW257157  10.505   0.816   1.279
51795SOL     OW57158   4.655   1.770   9.763
51795SOL    HW157159   4.641   1.686   9.718
51795SOL    HW257160   4.575   1.819   9.746
51796SOL     OW57161   9.223   2.648   3.037
51796SOL    HW157162   9.292   2.631   2.973
51796SOL    HW257163   9.157   2.698   2.988
51797SOL     OW57164   7.630   3.580   9.268
51797SOL    HW157165   7.582   3.564   9.349
51797SOL    HW257166   7.718   3.605   9.297
51798SOL     OW57167   0.849  14.670   3.831
51798SOL    HW157168   0.878  14.751   3.790
51798SOL    HW257169   0.866  14.683   3.925
51799SOL     OW57170   7.626  10.509   1.865
51799SOL    HW157171   7.595  10.504   1.955
51799SOL    HW257172   7.546  10.508   1.812
51800SOL     OW57173  13.825   1.065   7.864
51800SOL    HW157174  13.757   1.131   7.871
51800SOL    HW257175  13.890   1.089   7.930
51801SOL     OW57176   2.499  12.546   6.524
51801SOL    HW157177   2.468  12.494   6.598
51801SOL    HW257178   2.466  12.501   6.447
51802SOL     OW57179   9.057   5.723   2.533
51802SOL    HW157180   8.992   5.678   2.479
51802SOL    HW257181   9.040   5.691   2.622
51803SOL     OW57182  12.045   9.369   4.304
51803SOL    HW157183  12.032   9.319   4.224
51803SOL    HW257184  11.984   9.442   4.297
51804SOL     OW57185  13.885  12.124   6.018
51804SOL    HW157186  13.809  12.116   5.961
51804SOL    HW257187  13.916  12.214   6.004
51805SOL     OW57188   8.171   3.570  10.510
51805SOL    HW157189   8.222   3.646  10.537
51805SOL    HW257190   8.090   3.606  10.474
51806SOL     OW57191   4.927   2.292  12.528
51806SOL    HW157192   4.962   2.344  12.601
51806SOL    HW257193   4.853   2.342  12.495
51807SOL     OW57194   4.503  12.400  13.151
51807SOL    HW157195   4.465  12.320  13.118
51807SOL    HW257196   4.430  12.461  13.158
51808SOL     OW57197   5.934   4.846   6.761
51808SOL    HW157198   6.019   4.813   6.731
51808SOL    HW257199   5.955   4.923   6.813
51809SOL     OW57200  12.269  13.942   3.546
51809SOL    HW157201  12.333  13.946   3.617
51809SOL    HW257202  12.293  13.864   3.497
51810SOL     OW57203  13.351  11.438   8.137
51810SOL    HW157204  13.320  11.435   8.047
51810SOL    HW257205  13.300  11.372   8.183
51811SOL     OW57206   6.810   4.752   9.913
51811SOL    HW157207   6.884   4.786   9.862
51811SOL    HW257208   6.837   4.663   9.938
51812SOL     OW57209   8.179   1.664   2.032
51812SOL    HW157210   8.100   1.629   2.074
51812SOL    HW257211   8.154   1.677   1.941
51813SOL     OW57212  12.836  14.205  11.612
51813SOL    HW157213  12.919  14.159  11.597
51813SOL    HW257214  12.829  14.213  11.707
51814SOL     OW57215   4.935  12.381  12.048
51814SOL    HW157216   5.005  12.382  12.113
51814SOL    HW257217   4.938  12.468  12.008
51815SOL     OW57218   8.825   9.340   3.836
51815SOL    HW157219   8.892   9.390   3.883
51815SOL    HW257220   8.845   9.249   3.856
51816SOL     OW57221  12.879   3.752  12.836
51816SOL    HW157222  12.897   3.811  12.909
51816SOL    HW257223  12.965   3.724  12.805
51817SOL     OW57224  14.403  13.207  13.265
51817SOL    HW157225  14.333  13.272  13.259
51817SOL    HW257226  14.423  13.202  13.358
51818SOL     OW57227  14.591   1.779  13.882
51818SOL    HW157228  14.578   1.874  13.869
51818SOL    HW257229  14.612   1.746  13.794
51819SOL     OW57230  10.102   1.484   4.903
51819SOL    HW157231  10.046   1.422   4.949
51819SOL    HW257232  10.055   1.567   4.907
51820SOL     OW57233  12.054   8.620  11.030
51820SOL    HW157234  12.132   8.602  11.082
51820SOL    HW257235  11.982   8.580  11.079
51821SOL     OW57236  14.004  10.918   6.992
51821SOL    HW157237  13.986  10.970   6.914
51821SOL    HW257238  14.006  10.981   7.064
51822SOL     OW57239  14.659   8.275  10.252
51822SOL    HW157240  14.672   8.212  10.323
51822SOL    HW257241  14.571   8.255  10.219
51823SOL     OW57242   4.809   8.815   8.249
51823SOL    HW157243   4.844   8.725   8.243
51823SOL    HW257244   4.860   8.864   8.185
51824SOL     OW57245   2.347   7.231  13.799
51824SOL    HW157246   2.313   7.302  13.854
51824SOL    HW257247   2.439   7.255  13.783
51825SOL     OW57248   8.125  13.085  14.329
51825SOL    HW157249   8.071  13.160  14.358
51825SOL    HW257250   8.101  13.073  14.237
51826SOL     OW57251   6.861   6.698   7.590
51826SOL    HW157252   6.881   6.618   7.636
51826SOL    HW257253   6.774   6.723   7.622
51827SOL     OW57254   8.957   4.806   2.070
51827SOL    HW157255   8.971   4.799   2.165
51827SOL    HW257256   8.863   4.815   2.060
51828SOL     OW57257   7.845   8.344   8.012
51828SOL    HW157258   7.787   8.365   7.939
51828SOL    HW257259   7.799   8.275   8.060
51829SOL     OW57260   0.603   0.276   5.233
51829SOL    HW157261   0.597   0.189   5.192
51829SOL    HW257262   0.696   0.297   5.232
51830SOL     OW57263  10.377   0.478  13.814
51830SOL    HW157264  10.394   0.568  13.842
51830SOL    HW257265  10.341   0.487  13.725
51831SOL     OW57266   7.458   9.139   2.375
51831SOL    HW157267   7.471   9.193   2.297
51831SOL    HW257268   7.516   9.176   2.441
51832SOL     OW57269   7.267   8.137   8.213
51832SOL    HW157270   7.191   8.196   8.205
51832SOL    HW257271   7.229   8.051   8.227
51833SOL     OW57272   9.355   5.620  11.154
51833SOL    HW157273   9.357   5.574  11.070
51833SOL    HW257274   9.416   5.571  11.210
51834SOL     OW57275   6.504  12.739  13.900
51834SOL    HW157276   6.420  12.749  13.855
51834SOL    HW257277   6.545  12.664  13.857
51835SOL     OW57278   3.517   2.184   0.343
51835SOL    HW157279   3.492   2.099   0.307
51835SOL    HW257280   3.471   2.189   0.427
51836SOL     OW57281   5.879   8.968   7.370
51836SOL    HW157282   5.800   8.917   7.387
51836SOL    HW257283   5.919   8.926   7.293
51837SOL     OW57284   6.274   7.254  13.023
51837SOL    HW157285   6.191   7.242  12.976
51837SOL    HW257286   6.260   7.210  13.107
51838SOL     OW57287  10.340   1.535   8.583
51838SOL    HW157288  10.319   1.524   8.490
51838SOL    HW257289  10.355   1.446   8.614
51839SOL     OW57290   4.919   2.689   6.752
51839SOL    HW157291   4.855   2.756   6.779
51839SOL    HW257292   4.874   2.606   6.768
51840SOL     OW57293   7.584  13.970   7.719
51840SOL    HW157294   7.667  14.016   7.730
51840SOL    HW257295   7.599  13.910   7.645
51841SOL     OW57296   5.880  12.360   1.676
51841SOL    HW157297   5.786  12.342   1.671
51841SOL    HW257298   5.904  12.339   1.766
51842SOL     OW57299   4.339   7.810   4.581
51842SOL    HW157300   4.255   7.834   4.619
51842SOL    HW257301   4.325   7.721   4.548
51843SOL     OW57302   9.828  13.912  13.616
51843SOL    HW157303   9.851  14.002  13.640
51843SOL    HW257304   9.819  13.914  13.521
51844SOL     OW57305   3.382  14.748   3.334
51844SOL    HW157306   3.383  14.798   3.252
51844SOL    HW257307   3.439  14.798   3.393
51845SOL     OW57308   5.528   4.302   2.544
51845SOL    HW157309   5.519   4.386   2.500
51845SOL    HW257310   5.443   4.287   2.585
51846SOL     OW57311  10.294  10.987  11.014
51846SOL    HW157312  10.345  10.921  11.061
51846SOL    HW257313  10.258  10.942  10.939
51847SOL     OW57314   4.689   2.201   2.691
51847SOL    HW157315   4.766   2.196   2.634
51847SOL    HW257316   4.709   2.141   2.763
51848SOL     OW57317   6.417   9.288   3.525
51848SOL    HW157318   6.355   9.279   3.597
51848SOL    HW257319   6.453   9.201   3.514
51849SOL     OW57320   8.746   4.752  12.793
51849SOL    HW157321   8.840   4.755  12.778
51849SOL    HW257322   8.707   4.778  12.709
51850SOL     OW57323  11.856   9.157   3.881
51850SOL    HW157324  11.916   9.194   3.946
51850SOL    HW257325  11.774   9.204   3.895
51851SOL     OW57326  14.048   4.785  12.515
51851SOL    HW157327  14.106   4.816  12.445
51851SOL    HW257328  14.045   4.690  12.505
51852SOL     OW57329  10.531   3.354   0.082
51852SOL    HW157330  10.509   3.365   0.174
51852SOL    HW257331  10.569   3.266   0.077
51853SOL     OW57332  13.483   1.740   4.906
51853SOL    HW157333  13.529   1.809   4.859
51853SOL    HW257334  13.423   1.786   4.964
51854SOL     OW57335   7.367  10.294   5.673
51854SOL    HW157336   7.299  10.227   5.681
51854SOL    HW257337   7.405  10.280   5.587
51855SOL     OW57338  13.227   2.727  13.965
51855SOL    HW157339  13.285   2.763  13.898
51855SOL    HW257340  13.182   2.655  13.922
51856SOL     OW57341   7.872  14.113   1.976
51856SOL    HW157342   7.907  14.188   2.024
51856SOL    HW257343   7.809  14.073   2.036
51857SOL     OW57344   3.016   5.767  10.173
51857SOL    HW157345   3.007   5.862  10.168
51857SOL    HW257346   3.098   5.749  10.127
51858SOL     OW57347   9.225  14.392   0.362
51858SOL    HW157348   9.286  14.337   0.312
51858SOL    HW257349   9.211  14.469   0.306
51859SOL     OW57350   0.074   0.734   2.194
51859SOL    HW157351  14.868   0.772   2.200
51859SOL    HW257352   0.118   0.763   2.274
51860SOL     OW57353   8.593  10.087  13.085
51860SOL    HW157354   8.572  10.149  13.015
51860SOL    HW257355   8.508  10.058  13.118
51861SOL     OW57356   0.693   3.825   7.570
51861SOL    HW157357   0.617   3.881   7.550
51861SOL    HW257358   0.679   3.799   7.661
51862SOL     OW57359   8.970   2.301  14.198
51862SOL    HW157360   9.051   2.275  14.154
51862SOL    HW257361   8.938   2.221  14.238
51863SOL     OW57362   8.056   8.261   2.152
51863SOL    HW157363   8.054   8.243   2.058
51863SOL    HW257364   8.138   8.222   2.182
51864SOL     OW57365  14.713   1.137   4.782
51864SOL    HW157366  14.678   1.122   4.870
51864SOL    HW257367  14.730   1.049   4.748
51865SOL     OW57368   1.392   8.999   3.597
51865SOL    HW157369   1.402   9.084   3.554
51865SOL    HW257370   1.482   8.973   3.619
51866SOL     OW57371   0.112   5.094  12.527
51866SOL    HW157372   0.019   5.075  12.525
51866SOL    HW257373   0.121   5.165  12.591
51867SOL     OW57374   3.667   9.174  14.667
51867SOL    HW157375   3.575   9.148  14.676
51867SOL    HW257376   3.711   9.136  14.743
51868SOL     OW57377  13.779   7.427   2.214
51868SOL    HW157378  13.685   7.423   2.199
51868SOL    HW257379  13.791   7.502   2.272
51869SOL     OW57380   1.696   6.709   9.835
51869SOL    HW157381   1.703   6.687   9.742
51869SOL    HW257382   1.629   6.649   9.868
51870SOL     OW57383   2.053   0.876   2.054
51870SOL    HW157384   2.100   0.806   2.099
51870SOL    HW257385   2.066   0.859   1.961
51871SOL     OW57386   6.481   3.460   7.313
51871SOL    HW157387   6.462   3.369   7.291
51871SOL    HW257388   6.570   3.459   7.347
51872SOL     OW57389  13.617   6.058   3.169
51872SOL    HW157390  13.655   6.021   3.249
51872SOL    HW257391  13.595   5.982   3.115
51873SOL     OW57392   8.687  11.027   2.826
51873SOL    HW157393   8.653  11.073   2.749
51873SOL    HW257394   8.673  11.088   2.898
51874SOL     OW57395   0.330  11.615   7.597
51874SOL    HW157396   0.281  11.640   7.675
51874SOL    HW257397   0.355  11.698   7.557
51875SOL     OW57398   0.600   7.316  12.490
51875SOL    HW157399   0.617   7.284  12.402
51875SOL    HW257400   0.559   7.243  12.535
51876SOL     OW57401  11.440   6.517   5.380
51876SOL    HW157402  11.485   6.597   5.352
51876SOL    HW257403  11.510   6.453   5.393
51877SOL     OW57404   2.146  12.716   8.321
51877SOL    HW157405   2.194  12.640   8.285
51877SOL    HW257406   2.064  12.718   8.271
51878SOL     OW57407  13.531  10.325   0.344
51878SOL    HW157408  13.478  10.350   0.268
51878SOL    HW257409  13.550  10.408   0.389
51879SOL     OW57410   9.698   0.499   8.592
51879SOL    HW157411   9.621   0.537   8.548
51879SOL    HW257412   9.769   0.511   8.529
51880SOL     OW57413   3.157   1.504  12.183
51880SOL    HW157414   3.181   1.593  12.208
51880SOL    HW257415   3.086   1.480  12.242
51881SOL     OW57416  11.717  13.057   0.931
51881SOL    HW157417  11.768  12.999   0.987
51881SOL    HW257418  11.655  13.100   0.991
51882SOL     OW57419  14.494   6.551   9.703
51882SOL    HW157420  14.485   6.628   9.646
51882SOL    HW257421  14.499   6.588   9.791
51883SOL     OW57422   4.593   7.108  14.234
51883SOL    HW157423   4.552   7.054  14.166
51883SOL    HW257424   4.536   7.097  14.310
51884SOL     OW57425  10.243   2.653  14.721
51884SOL    HW157426  10.161   2.635  14.674
51884SOL    HW257427  10.302   2.688  14.654
51885SOL     OW57428   2.603  14.474   3.276
51885SOL    HW157429   2.535  14.540   3.292
51885SOL    HW257430   2.682  14.513   3.315
51886SOL     OW57431  13.308  10.919   1.047
51886SOL    HW157432  13.348  11.000   1.014
51886SOL    HW257433  13.223  10.915   1.004
51887SOL     OW57434   8.394   2.998   6.200
51887SOL    HW157435   8.436   3.038   6.123
51887SOL    HW257436   8.311   3.045   6.209
51888SOL     OW57437   1.731   4.770   0.813
51888SOL    HW157438   1.806   4.726   0.772
51888SOL    HW257439   1.757   4.862   0.817
51889SOL     OW57440   4.560  13.373  13.687
51889SOL    HW157441   4.544  13.467  13.679
51889SOL    HW257442   4.631  13.355  13.626
51890SOL     OW57443   2.215  13.163  12.770
51890SOL    HW157444   2.129  13.167  12.727
51890SOL    HW257445   2.260  13.243  12.742
51891SOL     OW57446   0.714  14.778   3.491
51891SOL    HW157447   0.689  14.829   3.415
51891SOL    HW257448   0.790  14.824   3.527
51892SOL     OW57449   6.523  11.437   5.226
51892SOL    HW157450   6.428  11.437   5.209
51892SOL    HW257451   6.561  11.397   5.147
51893SOL     OW57452   7.566  13.035  10.971
51893SOL    HW157453   7.596  13.061  11.058
51893SOL    HW257454   7.532  12.946  10.984
51894SOL     OW57455   0.623   3.801   0.031
51894SOL    HW157456   0.556   3.801  14.844
51894SOL    HW257457   0.653   3.892   0.035
51895SOL     OW57458   4.894   3.480   9.009
51895SOL    HW157459   4.934   3.427   8.941
51895SOL    HW257460   4.833   3.537   8.962
51896SOL     OW57461  11.071   5.328   9.037
51896SOL    HW157462  11.115   5.408   9.008
51896SOL    HW257463  11.051   5.281   8.956
51897SOL     OW57464   9.501   9.974   5.865
51897SOL    HW157465   9.499   9.879   5.855
51897SOL    HW257466   9.523  10.007   5.777
51898SOL     OW57467  13.135   1.120   9.475
51898SOL    HW157468  13.071   1.191   9.466
51898SOL    HW257469  13.170   1.131   9.563
51899SOL     OW57470   5.468  12.095   8.120
51899SOL    HW157471   5.424  12.096   8.035
51899SOL    HW257472   5.421  12.028   8.171
51900SOL     OW57473  10.878   5.739  13.725
51900SOL    HW157474  10.857   5.829  13.747
51900SOL    HW257475  10.895   5.740  13.630
51901SOL     OW57476  12.992   5.122  13.339
51901SOL    HW157477  13.023   5.098  13.252
51901SOL    HW257478  12.897   5.116  13.333
51902SOL     OW57479   5.198   8.719  11.411
51902SOL    HW157480   5.255   8.657  11.457
51902SOL    HW257481   5.188   8.792  11.473
51903SOL     OW57482   2.951   6.276   2.270
51903SOL    HW157483   2.870   6.282   2.320
51903SOL    HW257484   2.932   6.322   2.188
51904SOL     OW57485   1.205  11.917  12.891
51904SOL    HW157486   1.282  11.936  12.838
51904SOL    HW257487   1.214  11.976  12.967
51905SOL     OW57488   6.425   7.057  14.838
51905SOL    HW157489   6.434   6.968  14.873
51905SOL    HW257490   6.458   7.051  14.748
51906SOL     OW57491   3.012   9.121  11.810
51906SOL    HW157492   3.069   9.049  11.838
51906SOL    HW257493   2.993   9.170  11.890
51907SOL     OW57494   0.631   6.906   3.363
51907SOL    HW157495   0.617   6.998   3.339
51907SOL    HW257496   0.592   6.897   3.450
51908SOL     OW57497  13.370  13.740  10.230
51908SOL    HW157498  13.420  13.766  10.307
51908SOL    HW257499  13.311  13.814  10.214
51909SOL     OW57500  10.025   0.971   8.195
51909SOL    HW157501   9.940   0.936   8.223
51909SOL    HW257502  10.088   0.931   8.254
51910SOL     OW57503   6.213   2.392   8.995
51910SOL    HW157504   6.263   2.459   9.042
51910SOL    HW257505   6.128   2.433   8.979
51911SOL     OW57506  13.747   2.247   0.730
51911SOL    HW157507  13.837   2.280   0.725
51911SOL    HW257508  13.720   2.266   0.820
51912SOL     OW57509   8.279   8.510  14.345
51912SOL    HW157510   8.229   8.430  14.366
51912SOL    HW257511   8.310   8.541  14.430
51913SOL     OW57512   3.619   0.715   5.897
51913SOL    HW157513   3.655   0.657   5.830
51913SOL    HW257514   3.641   0.803   5.868
51914SOL     OW57515   3.955   2.491   2.761
51914SOL    HW157516   4.008   2.413   2.743
51914SOL    HW257517   4.008   2.564   2.731
51915SOL     OW57518  10.583  12.095  13.046
51915SOL    HW157519  10.585  12.085  13.141
51915SOL    HW257520  10.491  12.082  13.022
51916SOL     OW57521   0.463  13.145   3.186
51916SOL    HW157522   0.369  13.158   3.197
51916SOL    HW257523   0.487  13.083   3.255
51917SOL     OW57524   7.417   3.096   9.665
51917SOL    HW157525   7.413   3.005   9.695
51917SOL    HW257526   7.500   3.102   9.618
51918SOL     OW57527   4.603  13.041   9.589
51918SOL    HW157528   4.660  13.001   9.655
51918SOL    HW257529   4.543  12.971   9.563
51919SOL     OW57530   5.730   1.718   4.697
51919SOL    HW157531   5.790   1.778   4.741
51919SOL    HW257532   5.644   1.758   4.708
51920SOL     OW57533   0.683  12.888   1.222
51920SOL    HW157534   0.702  12.907   1.314
51920SOL    HW257535   0.766  12.904   1.177
51921SOL     OW57536  13.085  13.833   6.783
51921SOL    HW157537  13.161  13.821   6.840
51921SOL    HW257538  13.011  13.801   6.836
51922SOL     OW57539   9.380   8.531  12.982
51922SOL    HW157540   9.438   8.599  12.949
51922SOL    HW257541   9.439   8.461  13.011
51923SOL     OW57542   5.583  11.947  13.995
51923SOL    HW157543   5.564  11.868  13.943
51923SOL    HW257544   5.501  11.995  13.997
51924SOL     OW57545  13.326   9.778   7.486
51924SOL    HW157546  13.321   9.739   7.399
51924SOL    HW257547  13.289   9.866   7.475
51925SOL     OW57548   2.927   7.360   6.682
51925SOL    HW157549   2.990   7.302   6.725
51925SOL    HW257550   2.897   7.311   6.606
51926SOL     OW57551   7.217  14.402   2.550
51926SOL    HW157552   7.209  14.334   2.484
51926SOL    HW257553   7.270  14.471   2.508
51927SOL     OW57554   6.692   0.671   9.197
51927SOL    HW157555   6.732   0.598   9.150
51927SOL    HW257556   6.665   0.732   9.129
51928SOL     OW57557  13.608  14.247  13.752
51928SOL    HW157558  13.665  14.206  13.687
51928SOL    HW257559  13.520  14.220  13.727
51929SOL     OW57560  12.960   0.633   7.991
51929SOL    HW157561  12.958   0.576   7.913
51929SOL    HW257562  12.938   0.720   7.958
51930SOL     OW57563   4.548  13.748  13.513
51930SOL    HW157564   4.516  13.713  13.596
51930SOL    HW257565   4.581  13.835  13.534
51931SOL     OW57566  14.400   6.066  14.232
51931SOL    HW157567  14.406   6.140  14.292
51931SOL    HW257568  14.485   6.064  14.188
51932SOL     OW57569  11.678   0.628  10.244
51932SOL    HW157570  11.725   0.613  10.327
51932SOL    HW257571  11.747   0.654  10.183
51933SOL     OW57572   7.094   3.637  13.551
51933SOL    HW157573   7.055   3.709  13.601
51933SOL    HW257574   7.181   3.668  13.528
51934SOL     OW57575  12.788   5.846  11.888
51934SOL    HW157576  12.815   5.882  11.804
51934SOL    HW257577  12.760   5.756  11.868
51935SOL     OW57578  11.042   7.460   6.602
51935SOL    HW157579  11.066   7.379   6.557
51935SOL    HW257580  11.065   7.530   6.541
51936SOL     OW57581   1.351   5.705  11.306
51936SOL    HW157582   1.380   5.616  11.286
51936SOL    HW257583   1.384   5.758  11.234
51937SOL     OW57584   6.068  12.592   3.962
51937SOL    HW157585   6.067  12.556   4.051
51937SOL    HW257586   6.049  12.517   3.906
51938SOL     OW57587  13.966   3.169   8.550
51938SOL    HW157588  14.055   3.144   8.576
51938SOL    HW257589  13.929   3.212   8.627
51939SOL     OW57590   8.318  13.280  12.661
51939SOL    HW157591   8.252  13.348  12.676
51939SOL    HW257592   8.402  13.325  12.673
51940SOL     OW57593   8.087   2.213   3.443
51940SOL    HW157594   8.131   2.225   3.359
51940SOL    HW257595   8.155   2.180   3.501
51941SOL     OW57596  13.889   2.481   3.510
51941SOL    HW157597  13.933   2.474   3.426
51941SOL    HW257598  13.954   2.452   3.574
51942SOL     OW57599   3.726   4.643   0.687
51942SOL    HW157600   3.687   4.716   0.639
51942SOL    HW257601   3.773   4.593   0.620
51943SOL     OW57602  14.199   1.256  10.068
51943SOL    HW157603  14.231   1.297   9.988
51943SOL    HW257604  14.210   1.162  10.052
51944SOL     OW57605  12.895   0.371   7.401
51944SOL    HW157606  12.952   0.300   7.431
51944SOL    HW257607  12.939   0.406   7.324
51945SOL     OW57608  10.807   7.285  13.004
51945SOL    HW157609  10.720   7.252  13.026
51945SOL    HW257610  10.806   7.294  12.909
51946SOL     OW57611   2.341   7.813  14.813
51946SOL    HW157612   2.386   7.895  14.831
51946SOL    HW257613   2.266   7.837  14.759
51947SOL     OW57614   0.794   7.162  14.021
51947SOL    HW157615   0.814   7.187  14.111
51947SOL    HW257616   0.702   7.135  14.023
51948SOL     OW57617   3.234   1.767  14.722
51948SOL    HW157618   3.277   1.687  14.749
51948SOL    HW257619   3.196   1.802  14.803
51949SOL     OW57620  11.228   7.379  13.456
51949SOL    HW157621  11.256   7.471  13.453
51949SOL    HW257622  11.270   7.340  13.379
51950SOL     OW57623   9.821   8.674   8.589
51950SOL    HW157624   9.728   8.682   8.571
51950SOL    HW257625   9.864   8.715   8.514
51951SOL     OW57626  14.812  11.567   0.873
51951SOL    HW157627  14.872  11.596   0.804
51951SOL    HW257628  14.837  11.619   0.949
51952SOL     OW57629   5.794   7.193   6.049
51952SOL    HW157630   5.720   7.254   6.056
51952SOL    HW257631   5.855   7.236   5.989
51953SOL     OW57632   2.480   0.108   0.720
51953SOL    HW157633   2.400   0.099   0.773
51953SOL    HW257634   2.538   0.163   0.773
51954SOL     OW57635   8.691   3.930  11.268
51954SOL    HW157636   8.611   3.971  11.236
51954SOL    HW257637   8.731   3.892  11.189
51955SOL     OW57638   9.213   8.722   4.859
51955SOL    HW157639   9.253   8.740   4.944
51955SOL    HW257640   9.260   8.646   4.826
51956SOL     OW57641   2.694   0.387   5.285
51956SOL    HW157642   2.703   0.330   5.362
51956SOL    HW257643   2.624   0.448   5.309
51957SOL     OW57644  12.440   9.228   5.236
51957SOL    HW157645  12.456   9.196   5.147
51957SOL    HW257646  12.492   9.171   5.292
51958SOL     OW57647   7.264  13.013   0.447
51958SOL    HW157648   7.258  12.947   0.378
51958SOL    HW257649   7.357  13.015   0.470
51959SOL     OW57650   9.881  14.640   3.711
51959SOL    HW157651   9.871  14.654   3.617
51959SOL    HW257652   9.964  14.592   3.720
51960SOL     OW57653   3.117   3.629   5.805
51960SOL    HW157654   3.087   3.720   5.808
51960SOL    HW257655   3.037   3.578   5.795
51961SOL     OW57656   0.093  13.963   4.820
51961SOL    HW157657   0.173  13.961   4.873
51961SOL    HW257658   0.120  14.002   4.737
51962SOL     OW57659   5.517  10.255   2.113
51962SOL    HW157660   5.588  10.193   2.128
51962SOL    HW257661   5.548  10.338   2.150
51963SOL     OW57662   7.496   9.853   1.939
51963SOL    HW157663   7.483   9.842   2.033
51963SOL    HW257664   7.570   9.914   1.931
51964SOL     OW57665  10.727  11.762   3.964
51964SOL    HW157666  10.752  11.720   3.881
51964SOL    HW257667  10.805  11.755   4.018
51965SOL     OW57668   4.937   7.535  11.014
51965SOL    HW157669   5.007   7.471  11.024
51965SOL    HW257670   4.979   7.611  10.975
51966SOL     OW57671  14.446  14.160   8.836
51966SOL    HW157672  14.487  14.217   8.771
51966SOL    HW257673  14.398  14.095   8.783
51967SOL     OW57674   0.174   0.152   4.776
51967SOL    HW157675   0.268   0.134   4.765
51967SOL    HW257676   0.170   0.246   4.795
51968SOL     OW57677   3.241  13.978   5.749
51968SOL    HW157678   3.186  13.966   5.826
51968SOL    HW257679   3.257  14.072   5.744
51969SOL     OW57680   6.357   8.142   9.226
51969SOL    HW157681   6.328   8.192   9.150
51969SOL    HW257682   6.396   8.062   9.190
51970SOL     OW57683   9.813  10.490  14.311
51970SOL    HW157684   9.860  10.406  14.315
51970SOL    HW257685   9.881  10.556  14.324
51971SOL     OW57686  11.353   2.372   8.244
51971SOL    HW157687  11.433   2.423   8.233
51971SOL    HW257688  11.385   2.283   8.261
51972SOL     OW57689   2.474  14.416   7.795
51972SOL    HW157690   2.509  14.345   7.849
51972SOL    HW257691   2.432  14.475   7.858
51973SOL     OW57692   2.125   6.374  10.904
51973SOL    HW157693   2.211   6.350  10.937
51973SOL    HW257694   2.141   6.449  10.847
51974SOL     OW57695  14.227  10.366  11.590
51974SOL    HW157696  14.196  10.282  11.558
51974SOL    HW257697  14.233  10.356  11.685
51975SOL     OW57698  10.928  11.734   9.442
51975SOL    HW157699  10.930  11.729   9.538
51975SOL    HW257700  10.942  11.644   9.413
51976SOL     OW57701   2.718   7.547   2.522
51976SOL    HW157702   2.706   7.496   2.603
51976SOL    HW257703   2.703   7.638   2.549
51977SOL     OW57704  12.388  10.902   1.184
51977SOL    HW157705  12.460  10.961   1.164
51977SOL    HW257706  12.372  10.855   1.103
51978SOL     OW57707   4.399   6.616   8.230
51978SOL    HW157708   4.418   6.619   8.324
51978SOL    HW257709   4.305   6.634   8.224
51979SOL     OW57710   5.520   3.522   7.676
51979SOL    HW157711   5.473   3.571   7.743
51979SOL    HW257712   5.452   3.485   7.621
51980SOL     OW57713   9.161   9.989  11.683
51980SOL    HW157714   9.160  10.006  11.777
51980SOL    HW257715   9.089  10.043  11.648
51981SOL     OW57716   4.318  13.259   1.428
51981SOL    HW157717   4.250  13.199   1.459
51981SOL    HW257718   4.307  13.338   1.481
51982SOL     OW57719  12.874   1.483  13.261
51982SOL    HW157720  12.822   1.444  13.331
51982SOL    HW257721  12.958   1.504  13.301
51983SOL     OW57722   4.150  13.993   6.980
51983SOL    HW157723   4.229  13.998   7.034
51983SOL    HW257724   4.132  14.083   6.954
51984SOL     OW57725  12.582   8.981  11.062
51984SOL    HW157726  12.543   8.985  10.975
51984SOL    HW257727  12.553   9.061  11.105
51985SOL     OW57728   3.375   6.618   0.939
51985SOL    HW157729   3.349   6.700   0.899
51985SOL    HW257730   3.470   6.616   0.932
51986SOL     OW57731   6.241   1.649   2.811
51986SOL    HW157732   6.223   1.739   2.784
51986SOL    HW257733   6.329   1.652   2.848
51987SOL     OW57734   3.128  13.385   2.307
51987SOL    HW157735   3.098  13.347   2.225
51987SOL    HW257736   3.137  13.311   2.367
51988SOL     OW57737  11.873  14.796   3.080
51988SOL    HW157738  11.945  14.747   3.041
51988SOL    HW257739  11.842  14.855   3.011
51989SOL     OW57740   6.819   6.604  12.385
51989SOL    HW157741   6.761   6.540  12.342
51989SOL    HW257742   6.908   6.573  12.364
51990SOL     OW57743   3.261  13.919   7.143
51990SOL    HW157744   3.273  13.998   7.196
51990SOL    HW257745   3.181  13.879   7.178
51991SOL     OW57746  11.818  12.870   4.683
51991SOL    HW157747  11.752  12.925   4.642
51991SOL    HW257748  11.893  12.874   4.624
51992SOL     OW57749  11.654   8.813   3.361
51992SOL    HW157750  11.597   8.742   3.390
51992SOL    HW257751  11.677   8.790   3.271
51993SOL     OW57752   7.344   4.546   4.607
51993SOL    HW157753   7.388   4.461   4.613
51993SOL    HW257754   7.313   4.563   4.695
51994SOL     OW57755   0.934  11.110   5.634
51994SOL    HW157756   0.933  11.017   5.657
51994SOL    HW257757   0.968  11.112   5.545
51995SOL     OW57758  14.046   1.546   1.120
51995SOL    HW157759  13.977   1.610   1.137
51995SOL    HW257760  14.106   1.591   1.060
51996SOL     OW57761   5.961   5.258   4.538
51996SOL    HW157762   5.961   5.214   4.453
51996SOL    HW257763   5.968   5.351   4.517
51997SOL     OW57764   5.273  10.846  14.269
51997SOL    HW157765   5.262  10.912  14.337
51997SOL    HW257766   5.268  10.894  14.187
51998SOL     OW57767   7.413   0.768  13.223
51998SOL    HW157768   7.429   0.703  13.292
51998SOL    HW257769   7.491   0.764  13.167
51999SOL     OW57770   5.625   0.778  13.950
51999SOL    HW157771   5.649   0.867  13.979
51999SOL    HW257772   5.555   0.752  14.009
52000SOL     OW57773  12.770  12.552   4.598
52000SOL    HW157774  12.723  12.620   4.645
52000SOL    HW257775  12.760  12.574   4.505
52001SOL     OW57776   8.348   8.348   4.181
52001SOL    HW157777   8.298   8.339   4.262
52001SOL    HW257778   8.282   8.346   4.112
52002SOL     OW57779  12.431   5.026   2.162
52002SOL    HW157780  12.359   4.985   2.210
52002SOL    HW257781  12.390   5.095   2.111
52003SOL     OW57782  14.002  12.534  13.669
52003SOL    HW157783  14.065  12.568  13.606
52003SOL    HW257784  13.939  12.484  13.616
52004SOL     OW57785  11.437   2.377   5.422
52004SOL    HW157786  11.399   2.412   5.341
52004SOL    HW257787  11.532   2.376   5.406
52005SOL     OW57788  12.504   8.229   0.070
52005SOL    HW157789  12.480   8.236  14.859
52005SOL    HW257790  12.425   8.257   0.117
52006SOL     OW57791  10.284  14.714   9.363
52006SOL    HW157792  10.251  14.653   9.297
52006SOL    HW257793  10.302  14.659   9.439
52007SOL     OW57794   4.067   9.055   4.758
52007SOL    HW157795   4.106   9.066   4.671
52007SOL    HW257796   3.985   9.009   4.742
52008SOL     OW57797   5.550  13.715   0.849
52008SOL    HW157798   5.464  13.683   0.821
52008SOL    HW257799   5.586  13.644   0.902
52009SOL     OW57800   7.667   9.594  13.689
52009SOL    HW157801   7.636   9.510  13.721
52009SOL    HW257802   7.589   9.649  13.685
52010SOL     OW57803   3.193   0.997   1.665
52010SOL    HW157804   3.201   0.907   1.632
52010SOL    HW257805   3.152   0.987   1.751
52011SOL     OW57806   7.225   4.372   1.870
52011SOL    HW157807   7.273   4.358   1.788
52011SOL    HW257808   7.253   4.301   1.927
52012SOL     OW57809   8.603   3.598  14.695
52012SOL    HW157810   8.516   3.613  14.659
52012SOL    HW257811   8.591   3.528  14.759
52013SOL     OW57812   9.171   8.834  11.807
52013SOL    HW157813   9.136   8.903  11.864
52013SOL    HW257814   9.120   8.840  11.727
52014SOL     OW57815   1.778   4.999   4.468
52014SOL    HW157816   1.852   5.055   4.444
52014SOL    HW257817   1.709   5.023   4.406
52015SOL     OW57818   7.664  10.395   4.280
52015SOL    HW157819   7.628  10.467   4.229
52015SOL    HW257820   7.587  10.349   4.314
52016SOL     OW57821   3.951  12.005  10.932
52016SOL    HW157822   3.871  11.962  10.901
52016SOL    HW257823   4.009  12.005  10.855
52017SOL     OW57824  13.853   5.795   0.749
52017SOL    HW157825  13.945   5.819   0.760
52017SOL    HW257826  13.852   5.700   0.761
52018SOL     OW57827   8.142   5.594  13.360
52018SOL    HW157828   8.050   5.572  13.351
52018SOL    HW257829   8.188   5.525  13.313
52019SOL     OW57830   5.717   4.222  14.048
52019SOL    HW157831   5.717   4.259  14.136
52019SOL    HW257832   5.710   4.298  13.990
52020SOL     OW57833  11.950   9.977  10.807
52020SOL    HW157834  11.923  10.000  10.718
52020SOL    HW257835  12.000   9.896  10.797
52021SOL     OW57836   3.654   2.514   5.991
52021SOL    HW157837   3.584   2.481   5.935
52021SOL    HW257838   3.609   2.548   6.069
52022SOL     OW57839  11.277  10.542   8.747
52022SOL    HW157840  11.313  10.571   8.663
52022SOL    HW257841  11.242  10.455   8.730
52023SOL     OW57842   6.760  14.127   5.908
52023SOL    HW157843   6.723  14.039   5.898
52023SOL    HW257844   6.840  14.126   5.856
52024SOL     OW57845   1.731   2.367   5.924
52024SOL    HW157846   1.817   2.396   5.893
52024SOL    HW257847   1.731   2.272   5.908
52025SOL     OW57848  13.562   4.513   7.796
52025SOL    HW157849  13.520   4.427   7.798
52025SOL    HW257850  13.552   4.546   7.885
52026SOL     OW57851   2.145   8.599   1.487
52026SOL    HW157852   2.100   8.547   1.420
52026SOL    HW257853   2.150   8.541   1.563
52027SOL     OW57854   7.472  12.919  12.170
52027SOL    HW157855   7.387  12.896  12.208
52027SOL    HW257856   7.531  12.923  12.246
52028SOL     OW57857   7.522   7.000   0.599
52028SOL    HW157858   7.613   7.007   0.569
52028SOL    HW257859   7.519   7.054   0.678
52029SOL     OW57860   2.691   4.848   8.060
52029SOL    HW157861   2.640   4.830   7.981
52029SOL    HW257862   2.726   4.762   8.086
52030SOL     OW57863   5.437   9.324   7.706
52030SOL    HW157864   5.501   9.281   7.650
52030SOL    HW257865   5.359   9.334   7.651
52031SOL     OW57866   0.543   3.332   2.687
52031SOL    HW157867   0.516   3.254   2.736
52031SOL    HW257868   0.636   3.342   2.708
52032SOL     OW57869   1.448   0.731  10.360
52032SOL    HW157870   1.402   0.678  10.293
52032SOL    HW257871   1.388   0.804  10.377
52033SOL     OW57872   0.975   8.049   8.085
52033SOL    HW157873   0.936   8.026   8.170
52033SOL    HW257874   1.003   7.965   8.049
52034SOL     OW57875   1.275   4.332   1.622
52034SOL    HW157876   1.275   4.334   1.718
52034SOL    HW257877   1.352   4.384   1.597
52035SOL     OW57878   7.439  13.258   7.064
52035SOL    HW157879   7.424  13.173   7.023
52035SOL    HW257880   7.493  13.240   7.140
52036SOL     OW57881   0.027   1.304   4.692
52036SOL    HW157882  14.836   1.242   4.686
52036SOL    HW257883  14.875   1.375   4.747
52037SOL     OW57884   6.193  14.158   4.591
52037SOL    HW157885   6.224  14.127   4.506
52037SOL    HW257886   6.271  14.193   4.633
52038SOL     OW57887  10.098   1.142   8.739
52038SOL    HW157888  10.033   1.192   8.787
52038SOL    HW257889  10.047   1.079   8.688
52039SOL     OW57890   3.076   9.540   5.221
52039SOL    HW157891   3.167   9.524   5.198
52039SOL    HW257892   3.032   9.554   5.137
52040SOL     OW57893  10.158   5.392   2.790
52040SOL    HW157894  10.200   5.317   2.749
52040SOL    HW257895  10.107   5.433   2.720
52041SOL     OW57896   7.933   2.668  12.521
52041SOL    HW157897   7.952   2.656  12.428
52041SOL    HW257898   7.842   2.642  12.532
52042SOL     OW57899   0.036   1.034   9.467
52042SOL    HW157900  14.834   1.037   9.514
52042SOL    HW257901   0.042   0.945   9.434
52043SOL     OW57902   8.000   3.389  13.036
52043SOL    HW157903   7.983   3.328  13.107
52043SOL    HW257904   7.988   3.475  13.075
52044SOL     OW57905  11.396   0.193  12.899
52044SOL    HW157906  11.470   0.233  12.945
52044SOL    HW257907  11.408   0.099  12.911
52045SOL     OW57908  14.877   1.105  14.325
52045SOL    HW157909  14.874   1.169  14.254
52045SOL    HW257910   0.005   1.158  14.404
52046SOL     OW57911   5.985   4.455   8.730
52046SOL    HW157912   5.925   4.387   8.761
52046SOL    HW257913   6.072   4.421   8.750
52047SOL     OW57914   8.608   3.313   9.836
52047SOL    HW157915   8.574   3.261   9.908
52047SOL    HW257916   8.670   3.373   9.878
52048SOL     OW57917   1.250   1.292   3.758
52048SOL    HW157918   1.239   1.213   3.810
52048SOL    HW257919   1.263   1.362   3.823
52049SOL     OW57920   2.736   7.658  11.322
52049SOL    HW157921   2.785   7.731  11.360
52049SOL    HW257922   2.750   7.666  11.228
52050SOL     OW57923  14.283   5.792   9.446
52050SOL    HW157924  14.191   5.794   9.472
52050SOL    HW257925  14.302   5.700   9.431
52051SOL     OW57926  11.988   4.953   9.054
52051SOL    HW157927  11.989   4.962   8.958
52051SOL    HW257928  12.074   4.915   9.075
52052SOL     OW57929  14.508   9.125  13.912
52052SOL    HW157930  14.587   9.076  13.887
52052SOL    HW257931  14.524   9.151  14.003
52053SOL     OW57932  10.505  11.594  10.246
52053SOL    HW157933  10.569  11.565  10.311
52053SOL    HW257934  10.549  11.583  10.162
52054SOL     OW57935  13.739   4.826  13.671
52054SOL    HW157936  13.727   4.778  13.753
52054SOL    HW257937  13.832   4.848  13.670
52055SOL     OW57938   7.804   6.278   0.609
52055SOL    HW157939   7.789   6.233   0.525
52055SOL    HW257940   7.836   6.210   0.667
52056SOL     OW57941   8.943   7.386   4.938
52056SOL    HW157942   8.909   7.410   5.024
52056SOL    HW257943   8.890   7.312   4.910
52057SOL     OW57944   0.736  14.793   5.357
52057SOL    HW157945   0.748  14.713   5.306
52057SOL    HW257946   0.716  14.761   5.445
52058SOL     OW57947   5.712  13.600   6.899
52058SOL    HW157948   5.773  13.662   6.940
52058SOL    HW257949   5.763  13.519   6.889
52059SOL     OW57950   9.485   0.581   6.270
52059SOL    HW157951   9.563   0.533   6.297
52059SOL    HW257952   9.442   0.523   6.207
52060SOL     OW57953   9.165   3.422   7.591
52060SOL    HW157954   9.185   3.331   7.612
52060SOL    HW257955   9.124   3.457   7.671
52061SOL     OW57956   4.489   8.830   7.633
52061SOL    HW157957   4.560   8.777   7.670
52061SOL    HW257958   4.412   8.773   7.639
52062SOL     OW57959   0.828   6.944  13.559
52062SOL    HW157960   0.885   7.006  13.514
52062SOL    HW257961   0.836   6.968  13.652
52063SOL     OW57962  10.575   6.644   4.826
52063SOL    HW157963  10.647   6.603   4.777
52063SOL    HW257964  10.556   6.724   4.778
52064SOL     OW57965  11.233  12.034   0.157
52064SOL    HW157966  11.196  11.947   0.177
52064SOL    HW257967  11.157  12.091   0.149
52065SOL     OW57968   5.653   9.947   3.666
52065SOL    HW157969   5.650   9.863   3.621
52065SOL    HW257970   5.589   9.939   3.737
52066SOL     OW57971   6.376  12.815   2.875
52066SOL    HW157972   6.285  12.843   2.884
52066SOL    HW257973   6.370  12.728   2.835
52067SOL     OW57974   1.964  14.875   2.740
52067SOL    HW157975   1.905   0.029   2.673
52067SOL    HW257976   1.919  14.798   2.773
52068SOL     OW57977   0.456  12.344   5.186
52068SOL    HW157978   0.378  12.290   5.174
52068SOL    HW257979   0.503  12.336   5.102
52069SOL     OW57980  13.504   1.238   7.507
52069SOL    HW157981  13.548   1.322   7.494
52069SOL    HW257982  13.480   1.238   7.599
52070SOL     OW57983  14.413   4.329   1.224
52070SOL    HW157984  14.321   4.342   1.201
52070SOL    HW257985  14.455   4.302   1.142
52071SOL     OW57986   3.917   0.135   2.926
52071SOL    HW157987   3.823   0.121   2.940
52071SOL    HW257988   3.955   0.048   2.926
52072SOL     OW57989  12.378   3.434  10.459
52072SOL    HW157990  12.339   3.405  10.541
52072SOL    HW257991  12.396   3.354  10.411
52073SOL     OW57992   4.073   0.552   1.049
52073SOL    HW157993   4.055   0.643   1.073
52073SOL    HW257994   4.085   0.508   1.133
52074SOL     OW57995   5.915   5.846  12.729
52074SOL    HW157996   6.009   5.833  12.725
52074SOL    HW257997   5.900   5.928  12.682
52075SOL     OW57998   9.709   2.006   4.417
52075SOL    HW157999   9.764   1.928   4.414
52075SOL    HW258000   9.669   2.005   4.504
52076SOL     OW58001   9.289   5.584  14.835
52076SOL    HW158002   9.212   5.612   0.002
52076SOL    HW258003   9.357   5.573   0.021
52077SOL     OW58004   7.687   3.014  10.710
52077SOL    HW158005   7.726   3.064  10.638
52077SOL    HW258006   7.678   2.925  10.676
52078SOL     OW58007  13.102   5.527   6.844
52078SOL    HW158008  13.056   5.584   6.783
52078SOL    HW258009  13.040   5.513   6.916
52079SOL     OW58010   6.860   1.247   5.629
52079SOL    HW158011   6.792   1.313   5.646
52079SOL    HW258012   6.825   1.166   5.666
52080SOL     OW58013   0.479  10.812   8.918
52080SOL    HW158014   0.460  10.796   9.010
52080SOL    HW258015   0.535  10.738   8.892
52081SOL     OW58016  11.685   9.085   3.560
52081SOL    HW158017  11.659   8.995   3.540
52081SOL    HW258018  11.671   9.093   3.655
52082SOL     OW58019   5.904   5.373   1.645
52082SOL    HW158020   5.850   5.450   1.627
52082SOL    HW258021   5.994   5.406   1.645
52083SOL     OW58022   7.780   5.296   1.393
52083SOL    HW158023   7.769   5.391   1.391
52083SOL    HW258024   7.691   5.261   1.382
52084SOL     OW58025  13.077   5.869  11.528
52084SOL    HW158026  13.114   5.953  11.502
52084SOL    HW258027  13.103   5.808  11.459
52085SOL     OW58028   7.365  14.608   9.893
52085SOL    HW158029   7.347  14.534   9.951
52085SOL    HW258030   7.336  14.578   9.807
52086SOL     OW58031  14.034  10.558   1.254
52086SOL    HW158032  14.004  10.514   1.174
52086SOL    HW258033  14.129  10.551   1.251
52087SOL     OW58034   2.492   3.584   0.425
52087SOL    HW158035   2.541   3.563   0.346
52087SOL    HW258036   2.516   3.674   0.446
52088SOL     OW58037  13.123   3.923   5.663
52088SOL    HW158038  13.162   4.009   5.682
52088SOL    HW258039  13.131   3.874   5.745
52089SOL     OW58040   8.572   7.247   3.078
52089SOL    HW158041   8.499   7.189   3.054
52089SOL    HW258042   8.600   7.286   2.996
52090SOL     OW58043   8.802   4.717  13.446
52090SOL    HW158044   8.707   4.705  13.453
52090SOL    HW258045   8.814   4.757  13.359
52091SOL     OW58046  14.748   1.465   7.345
52091SOL    HW158047  14.836   1.432   7.327
52091SOL    HW258048  14.723   1.513   7.266
52092SOL     OW58049   3.373  10.220   5.636
52092SOL    HW158050   3.382  10.298   5.582
52092SOL    HW258051   3.463  10.195   5.657
52093SOL     OW58052  13.575   1.244  10.153
52093SOL    HW158053  13.500   1.253  10.213
52093SOL    HW258054  13.637   1.189  10.201
52094SOL     OW58055   9.777   8.908  13.157
52094SOL    HW158056   9.736   8.823  13.177
52094SOL    HW258057   9.723   8.972  13.203
52095SOL     OW58058  13.542  12.153  11.397
52095SOL    HW158059  13.589  12.161  11.480
52095SOL    HW258060  13.452  12.177  11.417
52096SOL     OW58061   9.227   8.680  13.815
52096SOL    HW158062   9.184   8.759  13.849
52096SOL    HW258063   9.261   8.636  13.893
52097SOL     OW58064   4.744   6.415   1.367
52097SOL    HW158065   4.836   6.407   1.393
52097SOL    HW258066   4.696   6.418   1.450
52098SOL     OW58067   5.950  13.424   6.833
52098SOL    HW158068   5.951  13.390   6.743
52098SOL    HW258069   6.002  13.362   6.883
52099SOL     OW58070   0.608   1.272  13.124
52099SOL    HW158071   0.659   1.229  13.193
52099SOL    HW258072   0.643   1.235  13.043
52100SOL     OW58073   3.278   9.133   1.964
52100SOL    HW158074   3.297   9.039   1.974
52100SOL    HW258075   3.334   9.160   1.891
52101SOL     OW58076  10.062   9.089   6.784
52101SOL    HW158077   9.992   9.054   6.839
52101SOL    HW258078  10.133   9.110   6.845
52102SOL     OW58079   8.609   4.883   6.956
52102SOL    HW158080   8.686   4.851   6.910
52102SOL    HW258081   8.587   4.965   6.912
52103SOL     OW58082  12.796  14.240   8.714
52103SOL    HW158083  12.804  14.336   8.713
52103SOL    HW258084  12.826  14.214   8.801
52104SOL     OW58085   4.348  13.309   6.364
52104SOL    HW158086   4.360  13.230   6.416
52104SOL    HW258087   4.420  13.367   6.392
52105SOL     OW58088  12.262   8.604   4.890
52105SOL    HW158089  12.304   8.680   4.930
52105SOL    HW258090  12.184   8.589   4.943
52106SOL     OW58091   8.985   9.581   0.991
52106SOL    HW158092   9.038   9.655   1.019
52106SOL    HW258093   8.911   9.621   0.946
52107SOL     OW58094  11.723   6.863   3.233
52107SOL    HW158095  11.641   6.862   3.184
52107SOL    HW258096  11.739   6.771   3.255
52108SOL     OW58097  11.612   9.661  12.277
52108SOL    HW158098  11.626   9.624  12.189
52108SOL    HW258099  11.607   9.756  12.262
52109SOL     OW58100   8.037   7.130   6.583
52109SOL    HW158101   8.008   7.039   6.573
52109SOL    HW258102   7.993   7.160   6.663
52110SOL     OW58103  11.632   6.844  11.551
52110SOL    HW158104  11.573   6.776  11.584
52110SOL    HW258105  11.577   6.898  11.494
52111SOL     OW58106   3.477   8.348   6.326
52111SOL    HW158107   3.511   8.381   6.409
52111SOL    HW258108   3.523   8.400   6.259
52112SOL     OW58109  12.410  10.921   7.172
52112SOL    HW158110  12.500  10.891   7.177
52112SOL    HW258111  12.412  10.991   7.106
52113SOL     OW58112   1.968   9.090   2.573
52113SOL    HW158113   1.920   9.163   2.612
52113SOL    HW258114   1.951   9.016   2.631
52114SOL     OW58115   3.047   4.458   6.068
52114SOL    HW158116   3.096   4.501   6.139
52114SOL    HW258117   3.052   4.365   6.090
52115SOL     OW58118  11.050   6.603   4.459
52115SOL    HW158119  11.117   6.601   4.391
52115SOL    HW258120  11.026   6.511   4.472
52116SOL     OW58121   0.061  13.697  13.364
52116SOL    HW158122   0.080  13.628  13.427
52116SOL    HW258123   0.109  13.773  13.396
52117SOL     OW58124   1.814   4.185  10.517
52117SOL    HW158125   1.832   4.196  10.610
52117SOL    HW258126   1.760   4.260  10.494
52118SOL     OW58127   0.094   4.229   0.802
52118SOL    HW158128   0.127   4.314   0.773
52118SOL    HW258129   0.053   4.247   0.886
52119SOL     OW58130  12.644  11.836   2.508
52119SOL    HW158131  12.663  11.930   2.507
52119SOL    HW258132  12.574  11.825   2.444
52120SOL     OW58133  14.005   6.232  14.514
52120SOL    HW158134  13.954   6.165  14.559
52120SOL    HW258135  14.038   6.189  14.435
52121SOL     OW58136  14.648   3.513  11.827
52121SOL    HW158137  14.646   3.447  11.896
52121SOL    HW258138  14.634   3.596  11.873
52122SOL     OW58139   5.379   1.215   6.403
52122SOL    HW158140   5.306   1.162   6.435
52122SOL    HW258141   5.338   1.286   6.353
52123SOL     OW58142   8.218   4.540  13.326
52123SOL    HW158143   8.270   4.619  13.310
52123SOL    HW258144   8.199   4.541  13.420
52124SOL     OW58145   9.834  11.391  14.017
52124SOL    HW158146   9.787  11.339  14.083
52124SOL    HW258147   9.914  11.342  14.000
52125SOL     OW58148   8.848   7.207   3.205
52125SOL    HW158149   8.918   7.173   3.149
52125SOL    HW258150   8.767   7.183   3.160
52126SOL     OW58151   6.700   2.639  10.437
52126SOL    HW158152   6.635   2.610  10.372
52126SOL    HW258153   6.673   2.597  10.518
52127SOL     OW58154   8.060  10.916   8.456
52127SOL    HW158155   8.057  10.834   8.505
52127SOL    HW258156   8.082  10.889   8.367
52128SOL     OW58157   8.027   6.534   3.849
52128SOL    HW158158   7.982   6.523   3.933
52128SOL    HW258159   8.112   6.490   3.862
52129SOL     OW58160   0.432   3.281  11.777
52129SOL    HW158161   0.451   3.188  11.762
52129SOL    HW258162   0.347   3.281  11.821
52130SOL     OW58163  10.380   3.185  11.895
52130SOL    HW158164  10.476   3.191  11.892
52130SOL    HW258165  10.361   3.151  11.982
52131SOL     OW58166  11.826   1.614  14.808
52131SOL    HW158167  11.769   1.688  14.786
52131SOL    HW258168  11.766   1.547  14.841
52132SOL     OW58169   0.704   4.333   4.025
52132SOL    HW158170   0.682   4.381   4.104
52132SOL    HW258171   0.789   4.293   4.044
52133SOL     OW58172   4.224   4.881   8.369
52133SOL    HW158173   4.179   4.817   8.314
52133SOL    HW258174   4.161   4.900   8.439
52134SOL     OW58175   5.952  14.636  13.157
52134SOL    HW158176   5.856  14.638  13.163
52134SOL    HW258177   5.979  14.573  13.224
52135SOL     OW58178   2.691   5.751   1.007
52135SOL    HW158179   2.752   5.685   0.974
52135SOL    HW258180   2.621   5.754   0.941
52136SOL     OW58181  10.663   8.467   5.605
52136SOL    HW158182  10.679   8.558   5.632
52136SOL    HW258183  10.637   8.423   5.685
52137SOL     OW58184   4.468   6.214   0.924
52137SOL    HW158185   4.424   6.201   0.841
52137SOL    HW258186   4.408   6.270   0.975
52138SOL     OW58187   3.892  13.690   5.254
52138SOL    HW158188   3.867  13.612   5.302
52138SOL    HW258189   3.976  13.717   5.292
52139SOL     OW58190   7.956  12.361   0.182
52139SOL    HW158191   7.885  12.332   0.240
52139SOL    HW258192   7.973  12.451   0.208
52140SOL     OW58193   8.670   1.605   1.945
52140SOL    HW158194   8.673   1.566   2.032
52140SOL    HW258195   8.590   1.569   1.906
52141SOL     OW58196   9.458   6.549   1.519
52141SOL    HW158197   9.432   6.548   1.611
52141SOL    HW258198   9.425   6.632   1.485
52142SOL     OW58199   5.829   5.629  14.627
52142SOL    HW158200   5.917   5.603  14.601
52142SOL    HW258201   5.784   5.645  14.544
52143SOL     OW58202   3.472   1.139   9.495
52143SOL    HW158203   3.474   1.073   9.564
52143SOL    HW258204   3.426   1.213   9.534
52144SOL     OW58205   0.461  11.955   0.198
52144SOL    HW158206   0.463  11.887   0.130
52144SOL    HW258207   0.431  11.910   0.277
52145SOL     OW58208   8.820   3.636   3.446
52145SOL    HW158209   8.845   3.652   3.355
52145SOL    HW258210   8.795   3.722   3.480
52146SOL     OW58211   9.672   4.799   6.163
52146SOL    HW158212   9.580   4.824   6.169
52146SOL    HW258213   9.720   4.874   6.198
52147SOL     OW58214   4.453   0.783   3.755
52147SOL    HW158215   4.532   0.809   3.708
52147SOL    HW258216   4.401   0.736   3.689
52148SOL     OW58217  12.726   2.390   5.888
52148SOL    HW158218  12.820   2.396   5.871
52148SOL    HW258219  12.685   2.392   5.801
52149SOL     OW58220  12.483  12.239   0.697
52149SOL    HW158221  12.528  12.303   0.753
52149SOL    HW258222  12.529  12.157   0.713
52150SOL     OW58223   4.537  10.810   5.614
52150SOL    HW158224   4.500  10.898   5.608
52150SOL    HW258225   4.479  10.756   5.559
52151SOL     OW58226  14.301   4.856  11.710
52151SOL    HW158227  14.391   4.861  11.676
52151SOL    HW258228  14.250   4.826  11.635
52152SOL     OW58229  14.548   1.714  11.805
52152SOL    HW158230  14.472   1.731  11.861
52152SOL    HW258231  14.513   1.713  11.716
52153SOL     OW58232   8.595  11.053   0.749
52153SOL    HW158233   8.683  11.078   0.722
52153SOL    HW258234   8.585  10.962   0.719
52154SOL     OW58235   2.177   5.831   2.957
52154SOL    HW158236   2.222   5.751   2.931
52154SOL    HW258237   2.224   5.861   3.035
52155SOL     OW58238   9.795   7.031   9.873
52155SOL    HW158239   9.733   6.991   9.933
52155SOL    HW258240   9.851   6.959   9.843
52156SOL     OW58241  14.620   1.048   1.455
52156SOL    HW158242  14.641   0.983   1.522
52156SOL    HW258243  14.653   1.010   1.373
52157SOL     OW58244   0.842  14.103   8.874
52157SOL    HW158245   0.907  14.088   8.942
52157SOL    HW258246   0.890  14.092   8.792
52158SOL     OW58247  10.360  14.295   0.362
52158SOL    HW158248  10.340  14.347   0.284
52158SOL    HW258249  10.389  14.360   0.426
52159SOL     OW58250   4.443   7.386   4.356
52159SOL    HW158251   4.503   7.428   4.293
52159SOL    HW258252   4.431   7.298   4.322
52160SOL     OW58253  11.116  11.697  12.038
52160SOL    HW158254  11.085  11.762  12.102
52160SOL    HW258255  11.136  11.620  12.091
52161SOL     OW58256  10.649   9.795   5.126
52161SOL    HW158257  10.658   9.710   5.084
52161SOL    HW258258  10.562   9.792   5.167
52162SOL     OW58259   8.340  14.145   0.900
52162SOL    HW158260   8.385  14.159   0.817
52162SOL    HW258261   8.401  14.178   0.966
52163SOL     OW58262   4.972  12.865   7.057
52163SOL    HW158263   5.013  12.895   6.976
52163SOL    HW258264   4.985  12.770   7.058
52164SOL     OW58265   2.485   5.268  10.208
52164SOL    HW158266   2.537   5.347  10.195
52164SOL    HW258267   2.526   5.226  10.284
52165SOL     OW58268   8.514  14.084  12.662
52165SOL    HW158269   8.479  14.053  12.578
52165SOL    HW258270   8.498  14.178  12.662
52166SOL     OW58271  10.306  14.586   7.114
52166SOL    HW158272  10.353  14.533   7.050
52166SOL    HW258273  10.375  14.621   7.171
52167SOL     OW58274   3.404   7.602   0.102
52167SOL    HW158275   3.325   7.562   0.138
52167SOL    HW258276   3.475   7.567   0.155
52168SOL     OW58277   1.015   3.389   3.203
52168SOL    HW158278   1.108   3.364   3.203
52168SOL    HW258279   1.007   3.449   3.129
52169SOL     OW58280  11.341   9.651  13.454
52169SOL    HW158281  11.435   9.629  13.452
52169SOL    HW258282  11.314   9.647  13.362
52170SOL     OW58283   7.714   7.448   6.762
52170SOL    HW158284   7.797   7.495   6.758
52170SOL    HW258285   7.709   7.402   6.678
52171SOL     OW58286   1.408   6.965   9.868
52171SOL    HW158287   1.503   6.969   9.854
52171SOL    HW258288   1.375   7.045   9.827
52172SOL     OW58289   4.820   7.843   9.163
52172SOL    HW158290   4.829   7.848   9.259
52172SOL    HW258291   4.871   7.917   9.131
52173SOL     OW58292  10.306  14.721   5.137
52173SOL    HW158293  10.318  14.756   5.225
52173SOL    HW258294  10.323  14.627   5.146
52174SOL     OW58295   3.615   1.391   6.758
52174SOL    HW158296   3.555   1.448   6.805
52174SOL    HW258297   3.568   1.367   6.678
52175SOL     OW58298   4.932   8.829   2.466
52175SOL    HW158299   4.896   8.878   2.540
52175SOL    HW258300   5.021   8.807   2.493
52176SOL     OW58301   2.845   7.072   8.848
52176SOL    HW158302   2.822   7.083   8.756
52176SOL    HW258303   2.906   6.998   8.849
52177SOL     OW58304   2.755   4.118  13.611
52177SOL    HW158305   2.748   4.163  13.695
52177SOL    HW258306   2.808   4.040  13.629
52178SOL     OW58307  10.595   8.065   8.168
52178SOL    HW158308  10.684   8.093   8.188
52178SOL    HW258309  10.600   7.970   8.167
52179SOL     OW58310  13.060   7.916  13.781
52179SOL    HW158311  13.133   7.861  13.809
52179SOL    HW258312  13.101   7.990  13.736
52180SOL     OW58313  10.379   0.917   3.393
52180SOL    HW158314  10.348   0.863   3.320
52180SOL    HW258315  10.334   1.000   3.381
52181SOL     OW58316   6.335   4.076   8.366
52181SOL    HW158317   6.306   3.986   8.384
52181SOL    HW258318   6.319   4.123   8.447
52182SOL     OW58319   6.113  10.683   2.677
52182SOL    HW158320   6.192  10.641   2.642
52182SOL    HW258321   6.122  10.775   2.653
52183SOL     OW58322   6.239   0.271  11.733
52183SOL    HW158323   6.233   0.326  11.655
52183SOL    HW258324   6.176   0.308  11.794
52184SOL     OW58325  13.701   8.082  10.871
52184SOL    HW158326  13.679   8.008  10.815
52184SOL    HW258327  13.652   8.067  10.952
52185SOL     OW58328  12.645   4.703   8.583
52185SOL    HW158329  12.649   4.642   8.657
52185SOL    HW258330  12.730   4.747   8.585
52186SOL     OW58331  13.517   9.452   3.746
52186SOL    HW158332  13.455   9.392   3.704
52186SOL    HW258333  13.599   9.404   3.748
52187SOL     OW58334   6.306   4.429   7.441
52187SOL    HW158335   6.233   4.491   7.438
52187SOL    HW258336   6.370   4.471   7.498
52188SOL     OW58337  13.654  14.494   5.512
52188SOL    HW158338  13.746  14.471   5.500
52188SOL    HW258339  13.614  14.414   5.546
52189SOL     OW58340   9.913  12.363  14.001
52189SOL    HW158341   9.931  12.457  14.002
52189SOL    HW258342   9.818  12.357  14.007
52190SOL     OW58343   1.727  10.282   0.179
52190SOL    HW158344   1.817  10.288   0.212
52190SOL    HW258345   1.689  10.368   0.194
52191SOL     OW58346  12.728   2.063  12.965
52191SOL    HW158347  12.644   2.037  13.004
52191SOL    HW258348  12.704   2.102  12.881
52192SOL     OW58349  12.359   8.195   5.126
52192SOL    HW158350  12.388   8.277   5.086
52192SOL    HW258351  12.436   8.162   5.173
52193SOL     OW58352   4.361   4.989   1.889
52193SOL    HW158353   4.343   5.000   1.983
52193SOL    HW258354   4.435   5.046   1.872
52194SOL     OW58355  13.993   1.162  12.546
52194SOL    HW158356  14.021   1.189  12.633
52194SOL    HW258357  13.941   1.084  12.560
52195SOL     OW58358   0.431  10.393   6.486
52195SOL    HW158359   0.515  10.434   6.466
52195SOL    HW258360   0.423  10.399   6.581
52196SOL     OW58361   5.771  11.677  14.212
52196SOL    HW158362   5.736  11.758  14.251
52196SOL    HW258363   5.764  11.691  14.118
52197SOL     OW58364  11.912   7.842  10.445
52197SOL    HW158365  11.867   7.922  10.471
52197SOL    HW258366  11.844   7.790  10.401
52198SOL     OW58367   2.960   0.665   2.381
52198SOL    HW158368   3.032   0.626   2.430
52198SOL    HW258369   2.894   0.596   2.375
52199SOL     OW58370  12.343   0.109  10.648
52199SOL    HW158371  12.270   0.168  10.626
52199SOL    HW258372  12.332   0.091  10.741
52200SOL     OW58373  13.402   6.885   3.171
52200SOL    HW158374  13.456   6.823   3.123
52200SOL    HW258375  13.382   6.954   3.108
52201SOL     OW58376   5.088  13.620  13.669
52201SOL    HW158377   5.169  13.669  13.653
52201SOL    HW258378   5.057  13.596  13.581
52202SOL     OW58379   7.271  12.825   5.730
52202SOL    HW158380   7.223  12.789   5.804
52202SOL    HW258381   7.248  12.768   5.657
52203SOL     OW58382   9.370  14.113  11.437
52203SOL    HW158383   9.427  14.039  11.417
52203SOL    HW258384   9.360  14.110  11.532
52204SOL     OW58385  10.355   6.149   7.319
52204SOL    HW158386  10.330   6.153   7.227
52204SOL    HW258387  10.377   6.239   7.343
52205SOL     OW58388   8.282   9.549   5.805
52205SOL    HW158389   8.301   9.538   5.898
52205SOL    HW258390   8.327   9.630   5.781
52206SOL     OW58391  13.425   1.320  13.502
52206SOL    HW158392  13.429   1.227  13.526
52206SOL    HW258393  13.467   1.324  13.416
52207SOL     OW58394   7.295   4.923  12.966
52207SOL    HW158395   7.383   4.894  12.941
52207SOL    HW258396   7.275   4.995  12.905
52208SOL     OW58397   6.624   2.841   0.239
52208SOL    HW158398   6.566   2.880   0.173
52208SOL    HW258399   6.648   2.756   0.202
52209SOL     OW58400   4.493  10.369   5.250
52209SOL    HW158401   4.571  10.327   5.286
52209SOL    HW258402   4.524  10.414   5.172
52210SOL     OW58403   4.400   3.179   7.656
52210SOL    HW158404   4.384   3.215   7.744
52210SOL    HW258405   4.458   3.104   7.671
52211SOL     OW58406   5.087  11.773   9.484
52211SOL    HW158407   5.049  11.860   9.478
52211SOL    HW258408   5.104  11.760   9.577
52212SOL     OW58409   2.357   1.452   3.303
52212SOL    HW158410   2.392   1.460   3.392
52212SOL    HW258411   2.315   1.536   3.286
52213SOL     OW58412  12.042   1.434   9.820
52213SOL    HW158413  12.024   1.436   9.726
52213SOL    HW258414  11.989   1.505   9.856
52214SOL     OW58415   4.032   6.789   6.225
52214SOL    HW158416   3.952   6.796   6.278
52214SOL    HW258417   4.090   6.855   6.261
52215SOL     OW58418   3.198   5.472  12.514
52215SOL    HW158419   3.138   5.454  12.586
52215SOL    HW258420   3.146   5.523  12.451
52216SOL     OW58421   7.095   5.085   0.773
52216SOL    HW158422   7.110   5.046   0.859
52216SOL    HW258423   7.145   5.167   0.775
52217SOL     OW58424   7.101   1.511   4.504
52217SOL    HW158425   7.031   1.570   4.533
52217SOL    HW258426   7.167   1.518   4.572
52218SOL     OW58427  14.785   9.637  10.176
52218SOL    HW158428  14.698   9.673  10.195
52218SOL    HW258429  14.801   9.574  10.246
52219SOL     OW58430   8.327   5.073  10.832
52219SOL    HW158431   8.257   5.008  10.829
52219SOL    HW258432   8.395   5.038  10.773
52220SOL     OW58433   4.821  12.542   5.312
52220SOL    HW158434   4.858  12.456   5.330
52220SOL    HW258435   4.745  12.548   5.370
52221SOL     OW58436   7.077   5.392   7.594
52221SOL    HW158437   7.091   5.410   7.501
52221SOL    HW258438   7.155   5.427   7.637
52222SOL     OW58439  13.359   1.053   9.344
52222SOL    HW158440  13.325   0.977   9.296
52222SOL    HW258441  13.287   1.082   9.399
52223SOL     OW58442   6.358   7.613   1.935
52223SOL    HW158443   6.363   7.540   1.873
52223SOL    HW258444   6.289   7.670   1.899
52224SOL     OW58445  10.935   0.169   5.462
52224SOL    HW158446  10.859   0.126   5.500
52224SOL    HW258447  10.901   0.215   5.385
52225SOL     OW58448   5.336   6.498   2.500
52225SOL    HW158449   5.373   6.423   2.547
52225SOL    HW258450   5.406   6.527   2.442
52226SOL     OW58451   3.503  11.050   0.147
52226SOL    HW158452   3.507  11.125   0.207
52226SOL    HW258453   3.593  11.039   0.117
52227SOL     OW58454   8.921   7.611   6.826
52227SOL    HW158455   8.906   7.595   6.733
52227SOL    HW258456   8.865   7.686   6.847
52228SOL     OW58457  10.115  10.635  12.840
52228SOL    HW158458  10.068  10.712  12.808
52228SOL    HW258459  10.075  10.562  12.795
52229SOL     OW58460   5.152   4.092   6.730
52229SOL    HW158461   5.168   4.110   6.638
52229SOL    HW258462   5.106   4.008   6.730
52230SOL     OW58463  10.033   5.612   5.690
52230SOL    HW158464  10.126   5.623   5.669
52230SOL    HW258465  10.000   5.701   5.705
52231SOL     OW58466  10.664  10.895   3.478
52231SOL    HW158467  10.589  10.910   3.421
52231SOL    HW258468  10.626  10.869   3.562
52232SOL     OW58469   0.229   1.930   0.091
52232SOL    HW158470   0.265   1.844   0.111
52232SOL    HW258471   0.228   1.976   0.175
52233SOL     OW58472   0.638  10.972  13.334
52233SOL    HW158473   0.600  11.014  13.411
52233SOL    HW258474   0.721  11.018  13.320
52234SOL     OW58475   6.894  11.716   7.457
52234SOL    HW158476   6.806  11.747   7.475
52234SOL    HW258477   6.896  11.701   7.363
52235SOL     OW58478  11.166   1.514   6.613
52235SOL    HW158479  11.201   1.456   6.679
52235SOL    HW258480  11.162   1.600   6.656
52236SOL     OW58481  11.935   0.409  13.065
52236SOL    HW158482  11.979   0.471  13.008
52236SOL    HW258483  11.935   0.326  13.017
52237SOL     OW58484  11.721   2.845   3.377
52237SOL    HW158485  11.669   2.919   3.410
52237SOL    HW258486  11.812   2.874   3.386
52238SOL     OW58487   9.664   1.823   6.755
52238SOL    HW158488   9.715   1.895   6.719
52238SOL    HW258489   9.706   1.744   6.719
52239SOL     OW58490  12.465   8.251  13.728
52239SOL    HW158491  12.538   8.289  13.679
52239SOL    HW258492  12.463   8.300  13.810
52240SOL     OW58493  13.345   2.496   6.150
52240SOL    HW158494  13.293   2.575   6.140
52240SOL    HW258495  13.350   2.459   6.061
52241SOL     OW58496   5.515   0.073  14.418
52241SOL    HW158497   5.530   0.081  14.324
52241SOL    HW258498   5.463   0.150  14.441
52242SOL     OW58499   3.477   3.065  11.604
52242SOL    HW158500   3.497   3.157  11.616
52242SOL    HW258501   3.546   3.019  11.652
52243SOL     OW58502   5.213   9.075  10.405
52243SOL    HW158503   5.164   9.098  10.483
52243SOL    HW258504   5.296   9.040  10.438
52244SOL     OW58505  14.648   7.107   1.543
52244SOL    HW158506  14.553   7.099   1.542
52244SOL    HW258507  14.671   7.141   1.456
52245SOL     OW58508   0.125  11.543  13.819
52245SOL    HW158509   0.159  11.455  13.807
52245SOL    HW258510   0.097  11.546  13.911
52246SOL     OW58511   7.654  10.589   7.168
52246SOL    HW158512   7.626  10.594   7.077
52246SOL    HW258513   7.745  10.619   7.167
52247SOL     OW58514   1.260   8.361  10.832
52247SOL    HW158515   1.234   8.287  10.777
52247SOL    HW258516   1.179   8.410  10.845
52248SOL     OW58517   2.754   3.374  12.248
52248SOL    HW158518   2.849   3.363  12.252
52248SOL    HW258519   2.719   3.287  12.267
52249SOL     OW58520  10.433   3.863   5.927
52249SOL    HW158521  10.339   3.878   5.935
52249SOL    HW258522  10.470   3.900   6.007
52250SOL     OW58523   7.252   6.737  12.153
52250SOL    HW158524   7.338   6.765  12.184
52250SOL    HW258525   7.190   6.790  12.203
52251SOL     OW58526  13.575  11.449  12.077
52251SOL    HW158527  13.651  11.432  12.022
52251SOL    HW258528  13.500  11.442  12.018
52252SOL     OW58529   8.145   8.606   2.109
52252SOL    HW158530   8.222   8.625   2.163
52252SOL    HW258531   8.178   8.544   2.043
52253SOL     OW58532   0.666   3.375   3.992
52253SOL    HW158533   0.594   3.406   4.047
52253SOL    HW258534   0.677   3.443   3.926
52254SOL     OW58535   5.279   1.897   2.413
52254SOL    HW158536   5.259   1.803   2.412
52254SOL    HW258537   5.352   1.904   2.475
52255SOL     OW58538   2.663   0.902  11.277
52255SOL    HW158539   2.697   0.854  11.353
52255SOL    HW258540   2.668   0.840  11.205
52256SOL     OW58541  12.204   5.578   4.032
52256SOL    HW158542  12.297   5.557   4.025
52256SOL    HW258543  12.201   5.673   4.023
52257SOL     OW58544  10.782   1.210   3.234
52257SOL    HW158545  10.743   1.295   3.253
52257SOL    HW258546  10.842   1.227   3.161
52258SOL     OW58547  10.667  12.681   5.353
52258SOL    HW158548  10.691  12.627   5.279
52258SOL    HW258549  10.751  12.705   5.394
52259SOL     OW58550  14.078   1.458   8.769
52259SOL    HW158551  14.138   1.387   8.793
52259SOL    HW258552  14.135   1.529   8.740
52260SOL     OW58553   5.259   0.143  10.195
52260SOL    HW158554   5.185   0.127  10.253
52260SOL    HW258555   5.291   0.056  10.172
52261SOL     OW58556  11.271   7.767  14.828
52261SOL    HW158557  11.225   7.832   0.000
52261SOL    HW258558  11.240   7.783  14.739
52262SOL     OW58559  10.124  14.621   2.185
52262SOL    HW158560  10.071  14.542   2.197
52262SOL    HW258561  10.074  14.673   2.122
52263SOL     OW58562   5.640   9.673   7.382
52263SOL    HW158563   5.563   9.690   7.435
52263SOL    HW258564   5.615   9.699   7.293
52264SOL     OW58565   0.976   2.423  14.509
52264SOL    HW158566   1.054   2.403  14.457
52264SOL    HW258567   1.002   2.402  14.599
52265SOL     OW58568  14.138   2.630  14.748
52265SOL    HW158569  14.071   2.599  14.808
52265SOL    HW258570  14.131   2.726  14.752
52266SOL     OW58571  13.468   9.069   4.483
52266SOL    HW158572  13.443   9.008   4.552
52266SOL    HW258573  13.554   9.038   4.454
52267SOL     OW58574  10.373   1.176   9.672
52267SOL    HW158575  10.408   1.089   9.654
52267SOL    HW258576  10.442   1.220   9.721
52268SOL     OW58577   1.330   9.991  14.238
52268SOL    HW158578   1.381   9.976  14.317
52268SOL    HW258579   1.361  10.075  14.204
52269SOL     OW58580   1.619  10.092   5.546
52269SOL    HW158581   1.567  10.035   5.488
52269SOL    HW258582   1.673  10.143   5.486
52270SOL     OW58583   1.970   4.948  10.538
52270SOL    HW158584   2.012   5.033  10.554
52270SOL    HW258585   1.985   4.899  10.619
52271SOL     OW58586   2.768   3.834   2.834
52271SOL    HW158587   2.725   3.766   2.784
52271SOL    HW258588   2.861   3.810   2.834
52272SOL     OW58589   3.403   5.626   0.662
52272SOL    HW158590   3.380   5.540   0.698
52272SOL    HW258591   3.370   5.688   0.727
52273SOL     OW58592  10.312   9.572   0.230
52273SOL    HW158593  10.383   9.632   0.252
52273SOL    HW258594  10.289   9.595   0.140
52274SOL     OW58595  13.049  10.524   3.065
52274SOL    HW158596  13.102  10.545   3.142
52274SOL    HW258597  13.079  10.584   2.997
52275SOL     OW58598   4.453   5.751   7.716
52275SOL    HW158599   4.512   5.824   7.699
52275SOL    HW258600   4.511   5.676   7.731
52276SOL     OW58601   0.574   3.030   7.686
52276SOL    HW158602   0.526   2.951   7.662
52276SOL    HW258603   0.666   3.006   7.678
52277SOL     OW58604  10.436  13.455   5.961
52277SOL    HW158605  10.462  13.547   5.972
52277SOL    HW258606  10.363  13.443   6.022
52278SOL     OW58607   2.005   9.953  10.791
52278SOL    HW158608   1.994   9.872  10.842
52278SOL    HW258609   2.084   9.993  10.827
52279SOL     OW58610   5.909   6.698  10.160
52279SOL    HW158611   5.917   6.762  10.090
52279SOL    HW258612   5.991   6.647  10.155
52280SOL     OW58613   8.098   9.026  14.321
52280SOL    HW158614   8.093   9.122  14.313
52280SOL    HW258615   8.186   9.010  14.357
52281SOL     OW58616  12.429   5.934  14.771
52281SOL    HW158617  12.436   6.030  14.773
52281SOL    HW258618  12.438   5.908  14.862
52282SOL     OW58619   3.294  12.928  14.762
52282SOL    HW158620   3.272  12.845  14.718
52282SOL    HW258621   3.311  12.989  14.690
52283SOL     OW58622  12.502   7.431   2.977
52283SOL    HW158623  12.500   7.516   3.021
52283SOL    HW258624  12.529   7.451   2.887
52284SOL     OW58625   4.217   2.703   5.863
52284SOL    HW158626   4.263   2.731   5.942
52284SOL    HW258627   4.264   2.747   5.792
52285SOL     OW58628   8.550  14.339   0.282
52285SOL    HW158629   8.500  14.258   0.282
52285SOL    HW258630   8.632  14.317   0.327
52286SOL     OW58631  10.225   5.862  11.051
52286SOL    HW158632  10.243   5.946  11.009
52286SOL    HW258633  10.133   5.844  11.031
52287SOL     OW58634  13.659  12.023   1.029
52287SOL    HW158635  13.686  12.112   1.008
52287SOL    HW258636  13.697  12.006   1.115
52288SOL     OW58637   6.293  12.643  11.984
52288SOL    HW158638   6.217  12.643  11.925
52288SOL    HW258639   6.367  12.621  11.927
52289SOL     OW58640   7.003   3.194  11.739
52289SOL    HW158641   6.962   3.130  11.681
52289SOL    HW258642   6.940   3.266  11.744
52290SOL     OW58643   6.579  11.936  14.408
52290SOL    HW158644   6.601  11.950  14.316
52290SOL    HW258645   6.505  11.875  14.406
52291SOL     OW58646  13.911  14.736   5.680
52291SOL    HW158647  13.896  14.692   5.763
52291SOL    HW258648  13.935  14.666   5.619
52292SOL     OW58649  12.769  11.719   3.912
52292SOL    HW158650  12.693  11.674   3.875
52292SOL    HW258651  12.829  11.648   3.938
52293SOL     OW58652   9.555   3.866   4.460
52293SOL    HW158653   9.524   3.916   4.385
52293SOL    HW258654   9.542   3.924   4.535
52294SOL     OW58655   0.041   8.313  14.533
52294SOL    HW158656   0.015   8.295  14.443
52294SOL    HW258657  14.841   8.303  14.583
52295SOL     OW58658   0.762   4.130   8.664
52295SOL    HW158659   0.832   4.152   8.727
52295SOL    HW258660   0.806   4.081   8.595
52296SOL     OW58661   9.652   7.911   3.591
52296SOL    HW158662   9.582   7.853   3.561
52296SOL    HW258663   9.696   7.862   3.661
52297SOL     OW58664  11.981  13.429   3.059
52297SOL    HW158665  11.915  13.462   3.119
52297SOL    HW258666  12.004  13.504   3.005
52298SOL     OW58667   4.312   8.805   9.648
52298SOL    HW158668   4.365   8.841   9.577
52298SOL    HW258669   4.229   8.782   9.607
52299SOL     OW58670   4.978  12.701   6.652
52299SOL    HW158671   4.932  12.703   6.568
52299SOL    HW258672   5.054  12.757   6.639
52300SOL     OW58673   6.803  12.226   9.896
52300SOL    HW158674   6.722  12.177   9.891
52300SOL    HW258675   6.778  12.309   9.936
52301SOL     OW58676   6.145  11.484   2.873
52301SOL    HW158677   6.091  11.431   2.813
52301SOL    HW258678   6.194  11.542   2.815
52302SOL     OW58679   2.146   2.118   0.404
52302SOL    HW158680   2.195   2.102   0.324
52302SOL    HW258681   2.088   2.190   0.383
52303SOL     OW58682  13.349   5.976   9.541
52303SOL    HW158683  13.268   6.021   9.566
52303SOL    HW258684  13.320   5.900   9.491
52304SOL     OW58685  11.565   4.624   9.316
52304SOL    HW158686  11.659   4.635   9.327
52304SOL    HW258687  11.547   4.533   9.339
52305SOL     OW58688   7.964   1.708  11.557
52305SOL    HW158689   7.890   1.753  11.598
52305SOL    HW258690   8.017   1.678  11.630
52306SOL     OW58691  13.111   9.426   0.146
52306SOL    HW158692  13.150   9.347   0.184
52306SOL    HW258693  13.030   9.438   0.196
52307SOL     OW58694   1.857  11.214   9.720
52307SOL    HW158695   1.947  11.206   9.688
52307SOL    HW258696   1.810  11.141   9.679
52308SOL     OW58697  10.276   6.599  10.978
52308SOL    HW158698  10.184   6.611  11.002
52308SOL    HW258699  10.287   6.504  10.969
52309SOL     OW58700   1.115  12.913   8.262
52309SOL    HW158701   1.058  12.837   8.252
52309SOL    HW258702   1.186  12.883   8.319
52310SOL     OW58703   4.444  11.391   5.959
52310SOL    HW158704   4.466  11.449   6.032
52310SOL    HW258705   4.355  11.362   5.977
52311SOL     OW58706   1.024   9.839   4.725
52311SOL    HW158707   0.993   9.814   4.637
52311SOL    HW258708   0.951   9.886   4.764
52312SOL     OW58709   5.686   7.350  10.824
52312SOL    HW158710   5.698   7.317  10.735
52312SOL    HW258711   5.712   7.278  10.881
52313SOL     OW58712   9.329   9.150   0.850
52313SOL    HW158713   9.394   9.197   0.904
52313SOL    HW258714   9.261   9.125   0.913
52314SOL     OW58715  14.150   0.459   4.674
52314SOL    HW158716  14.179   0.547   4.651
52314SOL    HW258717  14.112   0.467   4.761
52315SOL     OW58718   8.985   2.821   1.520
52315SOL    HW158719   9.013   2.730   1.505
52315SOL    HW258720   8.924   2.840   1.449
52316SOL     OW58721  10.792   6.395  12.079
52316SOL    HW158722  10.853   6.468  12.068
52316SOL    HW258723  10.798   6.373  12.172
52317SOL     OW58724  14.583   9.757   1.699
52317SOL    HW158725  14.666   9.804   1.707
52317SOL    HW258726  14.569   9.749   1.605
52318SOL     OW58727  14.131   8.541   2.371
52318SOL    HW158728  14.210   8.559   2.422
52318SOL    HW258729  14.150   8.575   2.284
52319SOL     OW58730   0.606   6.117  13.753
52319SOL    HW158731   0.601   6.178  13.826
52319SOL    HW258732   0.630   6.033  13.792
52320SOL     OW58733   5.544  11.980  12.927
52320SOL    HW158734   5.604  12.049  12.901
52320SOL    HW258735   5.458  12.009  12.896
52321SOL     OW58736  10.665   8.893  14.822
52321SOL    HW158737  10.720   8.963  14.788
52321SOL    HW258738  10.603   8.875  14.751
52322SOL     OW58739  14.542   0.217  13.845
52322SOL    HW158740  14.605   0.148  13.824
52322SOL    HW258741  14.492   0.230  13.765
52323SOL     OW58742   1.151  10.544   3.874
52323SOL    HW158743   1.065  10.547   3.916
52323SOL    HW258744   1.210  10.584   3.937
52324SOL     OW58745   1.517  12.712  12.271
52324SOL    HW158746   1.544  12.789  12.321
52324SOL    HW258747   1.421  12.717  12.270
52325SOL     OW58748  11.323  12.630   7.633
52325SOL    HW158749  11.396  12.661   7.580
52325SOL    HW258750  11.356  12.549   7.673
52326SOL     OW58751  11.062   7.267   4.560
52326SOL    HW158752  11.109   7.185   4.542
52326SOL    HW258753  10.999   7.244   4.628
52327SOL     OW58754   6.078   6.809   7.059
52327SOL    HW158755   6.008   6.803   6.994
52327SOL    HW258756   6.064   6.893   7.103
52328SOL     OW58757   7.448  11.560   3.571
52328SOL    HW158758   7.432  11.646   3.530
52328SOL    HW258759   7.523  11.574   3.628
52329SOL     OW58760  10.257   6.331  10.943
52329SOL    HW158761  10.246   6.291  10.856
52329SOL    HW258762  10.169   6.331  10.980
52330SOL     OW58763   3.304   1.495   8.260
52330SOL    HW158764   3.225   1.495   8.205
52330SOL    HW258765   3.370   1.538   8.206
52331SOL     OW58766   3.799   9.312   4.182
52331SOL    HW158767   3.711   9.315   4.218
52331SOL    HW258768   3.834   9.228   4.213
52332SOL     OW58769   0.178   1.854   1.557
52332SOL    HW158770   0.168   1.927   1.495
52332SOL    HW258771   0.130   1.882   1.635
52333SOL     OW58772  13.802  13.291  12.760
52333SOL    HW158773  13.826  13.339  12.840
52333SOL    HW258774  13.851  13.335  12.691
52334SOL     OW58775   3.510   0.913   5.340
52334SOL    HW158776   3.477   0.823   5.342
52334SOL    HW258777   3.573   0.913   5.268
52335SOL     OW58778   0.692   4.264   9.384
52335SOL    HW158779   0.662   4.307   9.464
52335SOL    HW258780   0.633   4.189   9.373
52336SOL     OW58781   9.428   2.177   0.190
52336SOL    HW158782   9.523   2.189   0.193
52336SOL    HW258783   9.415   2.083   0.202
52337SOL     OW58784   8.092   8.852   7.586
52337SOL    HW158785   8.049   8.858   7.672
52337SOL    HW258786   8.155   8.780   7.597
52338SOL     OW58787   2.215   5.138  11.479
52338SOL    HW158788   2.164   5.097  11.408
52338SOL    HW258789   2.199   5.231  11.468
52339SOL     OW58790  10.252   6.402   4.750
52339SOL    HW158791  10.294   6.316   4.749
52339SOL    HW258792  10.158   6.384   4.751
52340SOL     OW58793   9.639   9.154   5.820
52340SOL    HW158794   9.605   9.109   5.743
52340SOL    HW258795   9.713   9.100   5.848
52341SOL     OW58796   6.937   3.503   1.909
52341SOL    HW158797   7.007   3.465   1.962
52341SOL    HW258798   6.872   3.434   1.902
52342SOL     OW58799   7.956  14.037  14.538
52342SOL    HW158800   7.869  14.053  14.502
52342SOL    HW258801   7.941  13.991  14.620
52343SOL     OW58802   1.713  11.806   8.217
52343SOL    HW158803   1.793  11.762   8.187
52343SOL    HW258804   1.643  11.765   8.165
52344SOL     OW58805   3.277   0.853  13.551
52344SOL    HW158806   3.297   0.798  13.475
52344SOL    HW258807   3.362   0.871  13.591
52345SOL     OW58808  13.680   9.157   8.711
52345SOL    HW158809  13.617   9.212   8.665
52345SOL    HW258810  13.765   9.184   8.677
52346SOL     OW58811  14.284   3.987   8.523
52346SOL    HW158812  14.217   3.985   8.591
52346SOL    HW258813  14.367   3.993   8.571
52347SOL     OW58814   7.424   6.801   9.690
52347SOL    HW158815   7.440   6.878   9.743
52347SOL    HW258816   7.431   6.727   9.751
52348SOL     OW58817   3.059   1.910   6.346
52348SOL    HW158818   3.130   1.922   6.283
52348SOL    HW258819   3.021   1.825   6.322
52349SOL     OW58820  11.994  10.659   0.250
52349SOL    HW158821  11.994  10.571   0.214
52349SOL    HW258822  11.938  10.710   0.190
52350SOL     OW58823  14.605   9.535  13.032
52350SOL    HW158824  14.582   9.466  13.094
52350SOL    HW258825  14.522   9.581  13.016
52351SOL     OW58826  14.195  11.648  10.503
52351SOL    HW158827  14.239  11.725  10.466
52351SOL    HW258828  14.120  11.684  10.550
52352SOL     OW58829   4.506  14.368   2.626
52352SOL    HW158830   4.450  14.440   2.595
52352SOL    HW258831   4.573  14.411   2.678
52353SOL     OW58832   7.618   3.948  10.286
52353SOL    HW158833   7.671   4.008  10.233
52353SOL    HW258834   7.580   3.888  10.223
52354SOL     OW58835   3.773   8.009  13.612
52354SOL    HW158836   3.746   7.994  13.703
52354SOL    HW258837   3.699   7.980  13.559
52355SOL     OW58838   7.987   0.748   9.607
52355SOL    HW158839   7.966   0.719   9.696
52355SOL    HW258840   7.948   0.681   9.551
52356SOL     OW58841   5.180   5.460   4.443
52356SOL    HW158842   5.141   5.528   4.498
52356SOL    HW258843   5.146   5.378   4.479
52357SOL     OW58844  14.812   1.509  12.657
52357SOL    HW158845  14.788   1.416  12.665
52357SOL    HW258846   0.026   1.508  12.649
52358SOL     OW58847  14.808   1.271  11.285
52358SOL    HW158848  14.765   1.355  11.268
52358SOL    HW258849  14.738   1.206  11.282
52359SOL     OW58850   1.851   5.488   9.463
52359SOL    HW158851   1.830   5.572   9.503
52359SOL    HW258852   1.907   5.444   9.527
52360SOL     OW58853  12.773   1.005   3.893
52360SOL    HW158854  12.797   1.040   3.807
52360SOL    HW258855  12.782   1.080   3.952
52361SOL     OW58856   8.079   0.347   7.879
52361SOL    HW158857   8.065   0.319   7.788
52361SOL    HW258858   8.073   0.443   7.875
52362SOL     OW58859   5.778   6.453   2.981
52362SOL    HW158860   5.822   6.522   2.931
52362SOL    HW258861   5.715   6.501   3.035
52363SOL     OW58862  11.237  10.673   7.424
52363SOL    HW158863  11.146  10.654   7.446
52363SOL    HW258864  11.272  10.590   7.393
52364SOL     OW58865   6.863  10.873  14.107
52364SOL    HW158866   6.876  10.815  14.182
52364SOL    HW258867   6.907  10.829  14.034
52365SOL     OW58868   6.008  11.664  13.042
52365SOL    HW158869   5.929  11.694  12.998
52365SOL    HW258870   5.988  11.575  13.070
52366SOL     OW58871   0.312  11.697  10.488
52366SOL    HW158872   0.378  11.654  10.543
52366SOL    HW258873   0.354  11.708  10.403
52367SOL     OW58874   2.469   8.231  13.762
52367SOL    HW158875   2.422   8.149  13.750
52367SOL    HW258876   2.545   8.209  13.816
52368SOL     OW58877   7.828   8.535   8.207
52368SOL    HW158878   7.733   8.524   8.211
52368SOL    HW258879   7.856   8.481   8.133
52369SOL     OW58880  13.227   1.809   7.936
52369SOL    HW158881  13.293   1.875   7.915
52369SOL    HW258882  13.196   1.779   7.851
52370SOL     OW58883   9.093   4.596  14.104
52370SOL    HW158884   9.150   4.661  14.145
52370SOL    HW258885   9.152   4.525  14.078
52371SOL     OW58886   4.468   8.904   2.334
52371SOL    HW158887   4.553   8.862   2.319
52371SOL    HW258888   4.462   8.911   2.429
52372SOL     OW58889   6.828   0.884   8.063
52372SOL    HW158890   6.882   0.962   8.077
52372SOL    HW258891   6.769   0.908   7.991
52373SOL     OW58892   3.268   6.119  12.009
52373SOL    HW158893   3.279   6.169  12.090
52373SOL    HW258894   3.252   6.185  11.942
52374SOL     OW58895  14.209   6.719  14.603
52374SOL    HW158896  14.171   6.632  14.616
52374SOL    HW258897  14.231   6.749  14.691
52375SOL     OW58898   6.168   2.578   1.632
52375SOL    HW158899   6.254   2.547   1.604
52375SOL    HW258900   6.147   2.649   1.572
52376SOL     OW58901  13.582  10.207   6.156
52376SOL    HW158902  13.576  10.180   6.248
52376SOL    HW258903  13.616  10.131   6.110
52377SOL     OW58904   0.409   1.986  14.764
52377SOL    HW158905   0.357   1.992  14.845
52377SOL    HW258906   0.354   1.935  14.705
52378SOL     OW58907   3.442   8.660  12.011
52378SOL    HW158908   3.416   8.569  12.027
52378SOL    HW258909   3.537   8.661  12.029
52379SOL     OW58910  13.616   3.531   9.102
52379SOL    HW158911  13.612   3.484   9.186
52379SOL    HW258912  13.655   3.468   9.042
52380SOL     OW58913   4.859   8.134   1.145
52380SOL    HW158914   4.817   8.055   1.111
52380SOL    HW258915   4.927   8.101   1.205
52381SOL     OW58916  12.480   5.344   4.476
52381SOL    HW158917  12.453   5.347   4.567
52381SOL    HW258918  12.399   5.346   4.426
52382SOL     OW58919   5.115   9.730   7.441
52382SOL    HW158920   5.132   9.718   7.534
52382SOL    HW258921   5.029   9.691   7.427
52383SOL     OW58922  11.717   9.994  13.546
52383SOL    HW158923  11.740   9.913  13.592
52383SOL    HW258924  11.622   9.990  13.537
52384SOL     OW58925   1.512  11.762   2.082
52384SOL    HW158926   1.521  11.809   1.999
52384SOL    HW258927   1.553  11.818   2.147
52385SOL     OW58928  14.671  12.859   5.477
52385SOL    HW158929  14.682  12.775   5.432
52385SOL    HW258930  14.670  12.837   5.570
52386SOL     OW58931   7.179   8.358   1.827
52386SOL    HW158932   7.162   8.270   1.794
52386SOL    HW258933   7.105   8.410   1.795
52387SOL     OW58934   1.438  10.011   3.883
52387SOL    HW158935   1.405   9.986   3.969
52387SOL    HW258936   1.361  10.010   3.826
52388SOL     OW58937  10.661   3.230   9.139
52388SOL    HW158938  10.733   3.266   9.086
52388SOL    HW258939  10.674   3.267   9.226
52389SOL     OW58940  10.784   0.585   1.002
52389SOL    HW158941  10.815   0.538   0.924
52389SOL    HW258942  10.695   0.554   1.015
52390SOL     OW58943   8.765   0.431  10.189
52390SOL    HW158944   8.728   0.353  10.149
52390SOL    HW258945   8.812   0.399  10.266
52391SOL     OW58946   5.478   3.237   2.226
52391SOL    HW158947   5.445   3.327   2.222
52391SOL    HW258948   5.553   3.237   2.167
52392SOL     OW58949  11.291   6.509   1.097
52392SOL    HW158950  11.217   6.459   1.062
52392SOL    HW258951  11.253   6.567   1.163
52393SOL     OW58952   8.889  14.050  14.241
52393SOL    HW158953   8.841  14.049  14.158
52393SOL    HW258954   8.826  14.015  14.305
52394SOL     OW58955   4.838  12.935  14.248
52394SOL    HW158956   4.908  12.969  14.192
52394SOL    HW258957   4.757  12.963  14.205
52395SOL     OW58958   1.783  14.202   9.122
52395SOL    HW158959   1.779  14.286   9.076
52395SOL    HW258960   1.739  14.140   9.063
52396SOL     OW58961  10.379   3.551   2.038
52396SOL    HW158962  10.409   3.507   1.958
52396SOL    HW258963  10.327   3.485   2.083
52397SOL     OW58964   9.801   2.552  11.857
52397SOL    HW158965   9.852   2.607  11.915
52397SOL    HW258966   9.712   2.586  11.863
52398SOL     OW58967   1.109   0.873  13.072
52398SOL    HW158968   1.153   0.835  13.149
52398SOL    HW258969   1.085   0.797  13.019
52399SOL     OW58970  13.565  14.777   3.381
52399SOL    HW158971  13.598  14.723   3.310
52399SOL    HW258972  13.620  14.755   3.456
52400SOL     OW58973  10.633   8.764   8.305
52400SOL    HW158974  10.663   8.674   8.322
52400SOL    HW258975  10.696   8.799   8.243
52401SOL     OW58976  13.403   1.676   9.698
52401SOL    HW158977  13.488   1.711   9.725
52401SOL    HW258978  13.353   1.669   9.780
52402SOL     OW58979   3.102   0.459   2.082
52402SOL    HW158980   3.117   0.448   1.988
52402SOL    HW258981   3.074   0.550   2.092
52403SOL     OW58982  10.741   8.381   8.012
52403SOL    HW158983  10.699   8.329   7.943
52403SOL    HW258984  10.817   8.420   7.970
52404SOL     OW58985   9.588   8.537   9.947
52404SOL    HW158986   9.530   8.608   9.921
52404SOL    HW258987   9.550   8.503  10.028
52405SOL     OW58988   3.941   6.949   9.472
52405SOL    HW158989   4.012   6.903   9.517
52405SOL    HW258990   3.984   6.997   9.401
52406SOL     OW58991   3.746   0.196   9.012
52406SOL    HW158992   3.730   0.279   9.058
52406SOL    HW258993   3.667   0.182   8.960
52407SOL     OW58994  11.791   2.290   1.060
52407SOL    HW158995  11.818   2.214   1.008
52407SOL    HW258996  11.704   2.312   1.026
52408SOL     OW58997   9.463  10.181   4.366
52408SOL    HW158998   9.521  10.175   4.442
52408SOL    HW258999   9.437  10.273   4.363
52409SOL     OW59000   9.128  12.593   1.740
52409SOL    HW159001   9.049  12.648   1.738
52409SOL    HW259002   9.195  12.646   1.697
52410SOL     OW59003   0.744  12.753   4.125
52410SOL    HW159004   0.839  12.752   4.133
52410SOL    HW259005   0.728  12.755   4.030
52411SOL     OW59006  11.714   3.833  12.027
52411SOL    HW159007  11.640   3.856  11.971
52411SOL    HW259008  11.723   3.907  12.087
52412SOL     OW59009   3.153   0.596  13.008
52412SOL    HW159010   3.109   0.586  13.093
52412SOL    HW259011   3.210   0.672  13.020
52413SOL     OW59012   4.704   7.000  13.470
52413SOL    HW159013   4.680   6.985  13.379
52413SOL    HW259014   4.620   7.014  13.515
52414SOL     OW59015  10.294   0.422   2.676
52414SOL    HW159016  10.352   0.390   2.607
52414SOL    HW259017  10.351   0.472   2.734
52415SOL     OW59018   1.427  14.813  12.973
52415SOL    HW159019   1.380   0.010  12.946
52415SOL    HW259020   1.375  14.777  13.045
52416SOL     OW59021   4.456  14.068  14.042
52416SOL    HW159022   4.502  13.991  14.007
52416SOL    HW259023   4.370  14.066  13.999
52417SOL     OW59024   4.355   2.839   8.731
52417SOL    HW159025   4.335   2.882   8.814
52417SOL    HW259026   4.442   2.873   8.708
52418SOL     OW59027   7.345   5.656   9.159
52418SOL    HW159028   7.345   5.580   9.217
52418SOL    HW259029   7.362   5.731   9.216
52419SOL     OW59030   2.821  13.215  12.200
52419SOL    HW159031   2.840  13.166  12.280
52419SOL    HW259032   2.725  13.224  12.201
52420SOL     OW59033   3.569  14.404  12.284
52420SOL    HW159034   3.499  14.435  12.340
52420SOL    HW259035   3.548  14.439  12.197
52421SOL     OW59036   8.291  10.358  14.503
52421SOL    HW159037   8.318  10.285  14.447
52421SOL    HW259038   8.335  10.341  14.587
52422SOL     OW59039   1.012   8.898   6.438
52422SOL    HW159040   0.956   8.841   6.384
52422SOL    HW259041   1.029   8.846   6.517
52423SOL     OW59042   7.890   5.523   7.165
52423SOL    HW159043   7.981   5.502   7.186
52423SOL    HW259044   7.857   5.444   7.121
52424SOL     OW59045  12.824   5.042   0.327
52424SOL    HW159046  12.767   5.101   0.277
52424SOL    HW259047  12.788   5.044   0.416
52425SOL     OW59048   1.046   0.104   4.435
52425SOL    HW159049   1.012   0.170   4.376
52425SOL    HW259050   0.977   0.038   4.440
52426SOL     OW59051  14.287   3.502   3.269
52426SOL    HW159052  14.372   3.515   3.313
52426SOL    HW259053  14.256   3.590   3.251
52427SOL     OW59054   9.063   1.779  14.089
52427SOL    HW159055   9.119   1.711  14.052
52427SOL    HW259056   9.009   1.733  14.153
52428SOL     OW59057   1.200  12.721  13.180
52428SOL    HW159058   1.285  12.723  13.135
52428SOL    HW259059   1.222  12.727  13.273
52429SOL     OW59060   9.817   5.306   8.274
52429SOL    HW159061   9.894   5.358   8.298
52429SOL    HW259062   9.743   5.355   8.309
52430SOL     OW59063   5.921  13.510  13.102
52430SOL    HW159064   6.003  13.523  13.151
52430SOL    HW259065   5.855  13.492  13.169
52431SOL     OW59066   5.483   9.221   6.688
52431SOL    HW159067   5.531   9.257   6.613
52431SOL    HW259068   5.426   9.154   6.650
52432SOL     OW59069   1.603  13.474   3.801
52432SOL    HW159070   1.557  13.399   3.762
52432SOL    HW259071   1.533  13.526   3.841
52433SOL     OW59072  14.194  12.085   1.177
52433SOL    HW159073  14.241  12.169   1.173
52433SOL    HW259074  14.102  12.109   1.188
52434SOL     OW59075   0.758   2.041  10.037
52434SOL    HW159076   0.722   2.061   9.950
52434SOL    HW259077   0.701   1.972  10.072
52435SOL     OW59078   2.030   3.417  12.650
52435SOL    HW159079   2.092   3.365  12.600
52435SOL    HW259080   2.071   3.427  12.736
52436SOL     OW59081   0.869   6.157   2.488
52436SOL    HW159082   0.846   6.233   2.541
52436SOL    HW259083   0.943   6.186   2.434
52437SOL     OW59084  14.113   8.711   6.034
52437SOL    HW159085  14.151   8.775   5.973
52437SOL    HW259086  14.038   8.675   5.986
52438SOL     OW59087   3.748   7.762   4.076
52438SOL    HW159088   3.714   7.720   4.156
52438SOL    HW259089   3.670   7.794   4.031
52439SOL     OW59090   1.012  10.822   9.779
52439SOL    HW159091   1.044  10.798   9.866
52439SOL    HW259092   0.964  10.744   9.749
52440SOL     OW59093   7.272   1.774   1.147
52440SOL    HW159094   7.347   1.724   1.180
52440SOL    HW259095   7.246   1.828   1.221
52441SOL     OW59096   9.063   2.956   2.784
52441SOL    HW159097   8.989   2.987   2.730
52441SOL    HW259098   9.037   2.867   2.810
52442SOL     OW59099   1.451  14.522   0.378
52442SOL    HW159100   1.451  14.427   0.390
52442SOL    HW259101   1.435  14.558   0.466
52443SOL     OW59102  14.005   2.432  14.485
52443SOL    HW159103  13.956   2.487  14.546
52443SOL    HW259104  13.984   2.467  14.398
52444SOL     OW59105  12.896   8.083   6.838
52444SOL    HW159106  12.948   8.002   6.841
52444SOL    HW259107  12.843   8.074   6.759
52445SOL     OW59108   0.324  13.966   7.822
52445SOL    HW159109   0.336  14.061   7.816
52445SOL    HW259110   0.326  13.948   7.916
52446SOL     OW59111   0.573  13.456  12.878
52446SOL    HW159112   0.596  13.430  12.967
52446SOL    HW259113   0.547  13.374  12.836
52447SOL     OW59114   3.222   1.408  14.155
52447SOL    HW159115   3.311   1.373  14.152
52447SOL    HW259116   3.166   1.332  14.145
52448SOL     OW59117   9.682   0.641   2.302
52448SOL    HW159118   9.759   0.591   2.274
52448SOL    HW259119   9.637   0.664   2.221
52449SOL     OW59120  10.577   3.976   2.276
52449SOL    HW159121  10.596   3.931   2.194
52449SOL    HW259122  10.552   4.065   2.250
52450SOL     OW59123   1.226   9.793   1.277
52450SOL    HW159124   1.201   9.760   1.364
52450SOL    HW259125   1.269   9.876   1.295
52451SOL     OW59126   5.270   0.618   3.535
52451SOL    HW159127   5.315   0.593   3.616
52451SOL    HW259128   5.177   0.624   3.561
52452SOL     OW59129   1.624   7.630   2.714
52452SOL    HW159130   1.597   7.546   2.677
52452SOL    HW259131   1.701   7.610   2.766
52453SOL     OW59132  12.637  13.603  14.753
52453SOL    HW159133  12.727  13.615  14.783
52453SOL    HW259134  12.584  13.609  14.832
52454SOL     OW59135   9.983   6.267   0.665
52454SOL    HW159136   9.903   6.314   0.690
52454SOL    HW259137  10.051   6.309   0.718
52455SOL     OW59138   6.223   0.495   2.778
52455SOL    HW159139   6.160   0.511   2.707
52455SOL    HW259140   6.296   0.450   2.735
52456SOL     OW59141  12.037  13.871   4.718
52456SOL    HW159142  12.020  13.941   4.654
52456SOL    HW259143  11.959  13.816   4.715
52457SOL     OW59144   9.057  10.531   4.893
52457SOL    HW159145   9.022  10.598   4.952
52457SOL    HW259146   9.080  10.580   4.813
52458SOL     OW59147  10.082  14.509   4.391
52458SOL    HW159148  10.002  14.523   4.340
52458SOL    HW259149  10.145  14.571   4.353
52459SOL     OW59150   2.781  14.429  10.439
52459SOL    HW159151   2.779  14.395  10.529
52459SOL    HW259152   2.833  14.509  10.445
52460SOL     OW59153  13.992   8.012  13.081
52460SOL    HW159154  14.088   8.002  13.084
52460SOL    HW259155  13.971   8.006  12.988
52461SOL     OW59156   6.073   9.346   7.886
52461SOL    HW159157   5.994   9.324   7.838
52461SOL    HW259158   6.078   9.281   7.956
52462SOL     OW59159  13.314   4.696   7.801
52462SOL    HW159160  13.408   4.710   7.818
52462SOL    HW259161  13.312   4.622   7.741
52463SOL     OW59162   2.810   5.010  12.838
52463SOL    HW159163   2.859   4.931  12.814
52463SOL    HW259164   2.740   4.978  12.895
52464SOL     OW59165   0.101  11.252  11.916
52464SOL    HW159166   0.145  11.308  11.852
52464SOL    HW259167   0.120  11.293  12.001
52465SOL     OW59168   8.201   6.976   9.482
52465SOL    HW159169   8.110   7.005   9.485
52465SOL    HW259170   8.251   7.050   9.516
52466SOL     OW59171   2.761   2.944  13.824
52466SOL    HW159172   2.776   3.037  13.841
52466SOL    HW259173   2.682   2.942  13.771
52467SOL     OW59174   0.956   2.971  10.412
52467SOL    HW159175   1.007   2.914  10.470
52467SOL    HW259176   0.958   2.927  10.328
52468SOL     OW59177   2.004   1.321   7.506
52468SOL    HW159178   2.070   1.255   7.485
52468SOL    HW259179   2.043   1.403   7.475
52469SOL     OW59180   8.713   8.401   9.522
52469SOL    HW159181   8.795   8.355   9.542
52469SOL    HW259182   8.707   8.469   9.589
52470SOL     OW59183   3.065   9.808   8.571
52470SOL    HW159184   3.089   9.724   8.532
52470SOL    HW259185   3.106   9.806   8.658
52471SOL     OW59186   4.106  10.482   7.882
52471SOL    HW159187   4.162  10.428   7.827
52471SOL    HW259188   4.141  10.570   7.873
52472SOL     OW59189  10.568   8.295   5.348
52472SOL    HW159190  10.505   8.226   5.330
52472SOL    HW259191  10.611   8.267   5.429
52473SOL     OW59192  10.889   9.133  10.320
52473SOL    HW159193  10.959   9.167  10.376
52473SOL    HW259194  10.889   9.191  10.243
52474SOL     OW59195  10.366   8.583  13.263
52474SOL    HW159196  10.322   8.577  13.179
52474SOL    HW259197  10.296   8.597  13.327
52475SOL     OW59198   6.795  14.338   1.162
52475SOL    HW159199   6.812  14.244   1.168
52475SOL    HW259200   6.699  14.345   1.156
52476SOL     OW59201  11.743   6.757  14.059
52476SOL    HW159202  11.756   6.852  14.051
52476SOL    HW259203  11.824   6.719  14.024
52477SOL     OW59204  12.662   9.438   7.938
52477SOL    HW159205  12.621   9.358   7.972
52477SOL    HW259206  12.634   9.507   7.999
52478SOL     OW59207  13.727  11.774   3.404
52478SOL    HW159208  13.810  11.785   3.449
52478SOL    HW259209  13.662  11.771   3.474
52479SOL     OW59210  11.688   7.394  11.562
52479SOL    HW159211  11.690   7.442  11.479
52479SOL    HW259212  11.746   7.319  11.549
52480SOL     OW59213   3.776   8.636  10.779
52480SOL    HW159214   3.783   8.728  10.757
52480SOL    HW259215   3.775   8.634  10.875
52481SOL     OW59216   3.953   2.333   9.842
52481SOL    HW159217   3.921   2.424   9.836
52481SOL    HW259218   3.920   2.302   9.927
52482SOL     OW59219  13.822   2.701   9.705
52482SOL    HW159220  13.792   2.649   9.779
52482SOL    HW259221  13.808   2.792   9.733
52483SOL     OW59222   1.197  10.790   6.897
52483SOL    HW159223   1.207  10.866   6.953
52483SOL    HW259224   1.284  10.748   6.897
52484SOL     OW59225   5.902   0.045   6.193
52484SOL    HW159226   5.890   0.139   6.180
52484SOL    HW259227   5.935   0.013   6.109
52485SOL     OW59228   3.683  11.250   9.419
52485SOL    HW159229   3.704  11.328   9.367
52485SOL    HW259230   3.698  11.277   9.509
52486SOL     OW59231   1.619  12.925   1.733
52486SOL    HW159232   1.555  12.869   1.776
52486SOL    HW259233   1.587  13.014   1.747
52487SOL     OW59234   4.583   3.333  14.585
52487SOL    HW159235   4.513   3.345  14.649
52487SOL    HW259236   4.537   3.316  14.502
52488SOL     OW59237   6.251   8.336   0.542
52488SOL    HW159238   6.245   8.309   0.634
52488SOL    HW259239   6.245   8.254   0.492
52489SOL     OW59240  14.163  10.084   0.597
52489SOL    HW159241  14.168  10.086   0.501
52489SOL    HW259242  14.253  10.068   0.626
52490SOL     OW59243  11.108   8.052   6.987
52490SOL    HW159244  11.107   7.965   7.028
52490SOL    HW259245  11.139   8.110   7.056
52491SOL     OW59246   7.274  12.571  11.985
52491SOL    HW159247   7.209  12.635  11.957
52491SOL    HW259248   7.240  12.536  12.068
52492SOL     OW59249   2.453  12.850  11.055
52492SOL    HW159250   2.482  12.759  11.047
52492SOL    HW259251   2.357  12.844  11.051
52493SOL     OW59252   5.233   6.307   8.936
52493SOL    HW159253   5.174   6.346   8.871
52493SOL    HW259254   5.231   6.368   9.010
52494SOL     OW59255  10.672   6.314   3.702
52494SOL    HW159256  10.752   6.307   3.754
52494SOL    HW259257  10.604   6.272   3.755
52495SOL     OW59258   8.592   0.635  11.492
52495SOL    HW159259   8.496   0.639  11.498
52495SOL    HW259260   8.623   0.673  11.574
52496SOL     OW59261   5.852  10.375   7.547
52496SOL    HW159262   5.818  10.450   7.595
52496SOL    HW259263   5.850  10.401   7.455
52497SOL     OW59264  10.684   2.805   3.901
52497SOL    HW159265  10.720   2.890   3.877
52497SOL    HW259266  10.625   2.824   3.975
52498SOL     OW59267   5.754  10.078   8.831
52498SOL    HW159268   5.795   9.993   8.845
52498SOL    HW259269   5.813  10.141   8.872
52499SOL     OW59270  10.020  12.866  10.546
52499SOL    HW159271   9.944  12.819  10.580
52499SOL    HW259272  10.072  12.886  10.624
52500SOL     OW59273   6.964  13.074   9.522
52500SOL    HW159274   6.983  12.980   9.525
52500SOL    HW259275   6.870  13.079   9.504
52501SOL     OW59276   4.940   8.982   9.776
52501SOL    HW159277   5.020   8.987   9.828
52501SOL    HW259278   4.969   8.947   9.692
52502SOL     OW59279  10.447   5.545   0.968
52502SOL    HW159280  10.373   5.603   0.952
52502SOL    HW259281  10.479   5.570   1.055
52503SOL     OW59282  12.163   8.513   2.559
52503SOL    HW159283  12.129   8.585   2.612
52503SOL    HW259284  12.243   8.485   2.603
52504SOL     OW59285   8.336  12.567   4.477
52504SOL    HW159286   8.375  12.653   4.494
52504SOL    HW259287   8.271  12.556   4.546
52505SOL     OW59288   8.264   3.537   5.682
52505SOL    HW159289   8.250   3.602   5.751
52505SOL    HW259290   8.183   3.539   5.631
52506SOL     OW59291   0.730   4.987   2.367
52506SOL    HW159292   0.774   4.939   2.296
52506SOL    HW259293   0.643   4.948   2.372
52507SOL     OW59294   7.017   0.619  10.734
52507SOL    HW159295   7.017   0.523  10.729
52507SOL    HW259296   7.109   0.643  10.735
52508SOL     OW59297   8.005  14.245  14.736
52508SOL    HW159298   8.027  14.212  14.649
52508SOL    HW259299   8.052  14.329  14.743
52509SOL     OW59300  13.524  11.334  13.687
52509SOL    HW159301  13.564  11.256  13.725
52509SOL    HW259302  13.430  11.322  13.701
52510SOL     OW59303  10.950   8.814   8.298
52510SOL    HW159304  10.961   8.756   8.223
52510SOL    HW259305  11.036   8.818   8.339
52511SOL     OW59306   7.832   9.248  14.018
52511SOL    HW159307   7.859   9.319  14.075
52511SOL    HW259308   7.736   9.252  14.018
52512SOL     OW59309   7.501   4.607  12.179
52512SOL    HW159310   7.578   4.561  12.147
52512SOL    HW259311   7.430   4.544  12.170
52513SOL     OW59312   7.517   8.537   8.292
52513SOL    HW159313   7.566   8.520   8.372
52513SOL    HW259314   7.430   8.564   8.323
52514SOL     OW59315  13.672  10.616  12.901
52514SOL    HW159316  13.747  10.564  12.932
52514SOL    HW259317  13.627  10.641  12.981
52515SOL     OW59318   8.247   5.059   1.662
52515SOL    HW159319   8.228   4.968   1.641
52515SOL    HW259320   8.300   5.090   1.588
52516SOL     OW59321  10.935   6.298  13.470
52516SOL    HW159322  10.859   6.355  13.485
52516SOL    HW259323  11.007   6.359  13.452
52517SOL     OW59324   6.350  12.943   9.329
52517SOL    HW159325   6.417  12.957   9.395
52517SOL    HW259326   6.384  12.873   9.273
52518SOL     OW59327  14.078   1.675   3.092
52518SOL    HW159328  14.029   1.632   3.021
52518SOL    HW259329  14.169   1.647   3.078
52519SOL     OW59330   2.076   0.349   5.771
52519SOL    HW159331   2.116   0.275   5.724
52519SOL    HW259332   1.985   0.322   5.786
52520SOL     OW59333   9.634   4.119  11.006
52520SOL    HW159334   9.583   4.092  10.929
52520SOL    HW259335   9.574   4.108  11.079
52521SOL     OW59336   2.306   0.187   4.884
52521SOL    HW159337   2.235   0.173   4.947
52521SOL    HW259338   2.348   0.102   4.877
52522SOL     OW59339   3.522   8.593   0.007
52522SOL    HW159340   3.566   8.677  14.874
52522SOL    HW259341   3.436   8.604  14.847
52523SOL     OW59342  12.114  13.693   2.942
52523SOL    HW159343  12.170  13.703   2.864
52523SOL    HW259344  12.025  13.698   2.908
52524SOL     OW59345   7.685   2.050  10.231
52524SOL    HW159346   7.591   2.067  10.233
52524SOL    HW259347   7.700   1.987  10.301
52525SOL     OW59348   5.857  14.654   4.269
52525SOL    HW159349   5.812  14.733   4.240
52525SOL    HW259350   5.873  14.670   4.362
52526SOL     OW59351   7.679   4.190   1.720
52526SOL    HW159352   7.721   4.131   1.658
52526SOL    HW259353   7.740   4.263   1.730
52527SOL     OW59354   0.902   8.047  10.715
52527SOL    HW159355   0.910   8.015  10.805
52527SOL    HW259356   0.881   8.140  10.724
52528SOL     OW59357   9.454   6.042  13.274
52528SOL    HW159358   9.394   5.993  13.331
52528SOL    HW259359   9.411   6.127  13.262
52529SOL     OW59360   2.806   7.408   9.392
52529SOL    HW159361   2.775   7.318   9.397
52529SOL    HW259362   2.848   7.423   9.477
52530SOL     OW59363   5.716  11.081  13.445
52530SOL    HW159364   5.781  11.011  13.447
52530SOL    HW259365   5.703  11.099  13.352
52531SOL     OW59366   9.503   5.467  12.813
52531SOL    HW159367   9.581   5.500  12.858
52531SOL    HW259368   9.523   5.478  12.720
52532SOL     OW59369   2.667   3.772   8.180
52532SOL    HW159370   2.598   3.749   8.242
52532SOL    HW259371   2.722   3.835   8.227
52533SOL     OW59372  12.378   6.196  13.163
52533SOL    HW159373  12.316   6.188  13.235
52533SOL    HW259374  12.436   6.267  13.189
52534SOL     OW59375   4.289  10.581  13.299
52534SOL    HW159376   4.342  10.660  13.310
52534SOL    HW259377   4.238  10.597  13.219
52535SOL     OW59378  14.371   2.024  12.554
52535SOL    HW159379  14.440   1.983  12.607
52535SOL    HW259380  14.387   1.993  12.465
52536SOL     OW59381  14.752  10.187   2.108
52536SOL    HW159382  14.709  10.267   2.078
52536SOL    HW259383  14.816  10.217   2.173
52537SOL     OW59384  14.398  12.778   7.778
52537SOL    HW159385  14.362  12.689   7.768
52537SOL    HW259386  14.485  12.773   7.739
52538SOL     OW59387   9.689   3.177   2.009
52538SOL    HW159388   9.596   3.168   1.989
52538SOL    HW259389   9.692   3.189   2.104
52539SOL     OW59390   7.658  13.950  13.886
52539SOL    HW159391   7.663  14.045  13.873
52539SOL    HW259392   7.750  13.922  13.890
52540SOL     OW59393   0.355   3.833   1.540
52540SOL    HW159394   0.268   3.839   1.500
52540SOL    HW259395   0.366   3.916   1.585
52541SOL     OW59396   8.217   3.716   5.915
52541SOL    HW159397   8.279   3.776   5.956
52541SOL    HW259398   8.135   3.764   5.913
52542SOL     OW59399   6.911  12.335  13.868
52542SOL    HW159400   6.830  12.338  13.920
52542SOL    HW259401   6.925  12.242  13.851
52543SOL     OW59402  10.033   9.806   5.770
52543SOL    HW159403  10.093   9.881   5.776
52543SOL    HW259404  10.009   9.802   5.678
52544SOL     OW59405   2.962  14.616   4.197
52544SOL    HW159406   3.047  14.585   4.166
52544SOL    HW259407   2.968  14.711   4.190
52545SOL     OW59408   1.720   1.066  10.501
52545SOL    HW159409   1.803   1.019  10.509
52545SOL    HW259410   1.698   1.061  10.408
52546SOL     OW59411   8.997   7.892  13.819
52546SOL    HW159412   8.947   7.933  13.890
52546SOL    HW259413   9.008   7.801  13.846
52547SOL     OW59414   0.591   5.976   3.320
52547SOL    HW159415   0.643   5.906   3.280
52547SOL    HW259416   0.541   5.933   3.389
52548SOL     OW59417   2.010  11.653  11.038
52548SOL    HW159418   1.998  11.736  10.991
52548SOL    HW259419   2.053  11.677  11.119
52549SOL     OW59420   1.123   4.850   0.244
52549SOL    HW159421   1.131   4.942   0.268
52549SOL    HW259422   1.180   4.804   0.305
52550SOL     OW59423   6.172   5.390   5.325
52550SOL    HW159424   6.188   5.484   5.335
52550SOL    HW259425   6.257   5.354   5.299
52551SOL     OW59426   6.250   8.805   7.843
52551SOL    HW159427   6.335   8.848   7.857
52551SOL    HW259428   6.271   8.725   7.795
52552SOL     OW59429   4.599  14.035  13.550
52552SOL    HW159430   4.642  14.000  13.629
52552SOL    HW259431   4.671  14.073  13.499
52553SOL     OW59432   5.393   3.032  12.734
52553SOL    HW159433   5.392   2.956  12.676
52553SOL    HW259434   5.403   3.107  12.675
52554SOL     OW59435   7.382  13.132   3.451
52554SOL    HW159436   7.461  13.089   3.417
52554SOL    HW259437   7.411  13.221   3.473
52555SOL     OW59438   5.537   5.553  14.163
52555SOL    HW159439   5.589   5.476  14.182
52555SOL    HW259440   5.475   5.525  14.095
52556SOL     OW59441  10.880   5.763  13.444
52556SOL    HW159442  10.919   5.846  13.416
52556SOL    HW259443  10.919   5.697  13.388
52557SOL     OW59444   3.450   3.949   0.438
52557SOL    HW159445   3.479   4.040   0.430
52557SOL    HW259446   3.406   3.931   0.356
52558SOL     OW59447   7.621   9.983   6.230
52558SOL    HW159448   7.551  10.026   6.280
52558SOL    HW259449   7.685  10.052   6.215
52559SOL     OW59450  10.114   4.283  12.649
52559SOL    HW159451  10.108   4.305  12.556
52559SOL    HW259452  10.091   4.363  12.695
52560SOL     OW59453   5.239  12.984   0.755
52560SOL    HW159454   5.262  13.071   0.787
52560SOL    HW259455   5.323  12.941   0.739
52561SOL     OW59456  12.644   8.486   8.436
52561SOL    HW159457  12.582   8.413   8.431
52561SOL    HW259458  12.648   8.519   8.346
52562SOL     OW59459   1.384   0.866   8.645
52562SOL    HW159460   1.424   0.923   8.711
52562SOL    HW259461   1.291   0.864   8.668
52563SOL     OW59462   6.787   1.876   6.550
52563SOL    HW159463   6.833   1.945   6.500
52563SOL    HW259464   6.701   1.870   6.508
52564SOL     OW59465  11.904   5.184  13.323
52564SOL    HW159466  11.880   5.138  13.243
52564SOL    HW259467  11.842   5.152  13.388
52565SOL     OW59468  10.573   6.443   8.833
52565SOL    HW159469  10.545   6.490   8.755
52565SOL    HW259470  10.647   6.494   8.867
52566SOL     OW59471  12.043   5.243   0.508
52566SOL    HW159472  11.965   5.299   0.503
52566SOL    HW259473  12.081   5.264   0.594
52567SOL     OW59474   5.262   9.204   0.420
52567SOL    HW159475   5.340   9.150   0.429
52567SOL    HW259476   5.294   9.294   0.419
52568SOL     OW59477  11.446   4.443   3.076
52568SOL    HW159478  11.510   4.497   3.124
52568SOL    HW259479  11.381   4.506   3.044
52569SOL     OW59480  14.463  12.023   4.380
52569SOL    HW159481  14.454  12.118   4.372
52569SOL    HW259482  14.552  12.005   4.349
52570SOL     OW59483  10.794   7.317  13.346
52570SOL    HW159484  10.869   7.290  13.293
52570SOL    HW259485  10.833   7.355  13.425
52571SOL     OW59486   3.024   6.919  14.721
52571SOL    HW159487   2.960   6.986  14.747
52571SOL    HW259488   3.018   6.916  14.625
52572SOL     OW59489   8.028   7.052   9.209
52572SOL    HW159490   7.946   7.090   9.178
52572SOL    HW259491   8.012   7.028   9.300
52573SOL     OW59492  10.769   7.537  14.233
52573SOL    HW159493  10.859   7.519  14.259
52573SOL    HW259494  10.768   7.632  14.217
52574SOL     OW59495   2.408  10.822   8.965
52574SOL    HW159496   2.350  10.894   8.992
52574SOL    HW259497   2.480  10.865   8.918
52575SOL     OW59498  10.115   9.639   6.188
52575SOL    HW159499  10.185   9.589   6.230
52575SOL    HW259500  10.039   9.627   6.246
52576SOL     OW59501  11.538  11.240   1.741
52576SOL    HW159502  11.534  11.335   1.741
52576SOL    HW259503  11.498  11.214   1.825
52577SOL     OW59504   4.504  11.336  11.206
52577SOL    HW159505   4.599  11.347  11.210
52577SOL    HW259506   4.483  11.281  11.282
52578SOL     OW59507  10.428   2.881   5.132
52578SOL    HW159508  10.416   2.848   5.221
52578SOL    HW259509  10.347   2.928   5.112
52579SOL     OW59510   2.375   9.887  12.314
52579SOL    HW159511   2.287   9.865  12.345
52579SOL    HW259512   2.427   9.898  12.393
52580SOL     OW59513   7.778   0.520  14.511
52580SOL    HW159514   7.792   0.507  14.418
52580SOL    HW259515   7.705   0.582  14.516
52581SOL     OW59516   9.014   5.429   5.952
52581SOL    HW159517   9.085   5.369   5.931
52581SOL    HW259518   8.972   5.448   5.868
52582SOL     OW59519   6.408   6.052   7.177
52582SOL    HW159520   6.367   5.968   7.160
52582SOL    HW259521   6.348   6.096   7.237
52583SOL     OW59522  12.984   5.327  12.628
52583SOL    HW159523  12.933   5.358  12.553
52583SOL    HW259524  12.921   5.277  12.681
52584SOL     OW59525   2.302   7.874  13.125
52584SOL    HW159526   2.395   7.895  13.119
52584SOL    HW259527   2.260   7.934  13.063
52585SOL     OW59528  12.898   5.024   2.776
52585SOL    HW159529  12.877   5.051   2.687
52585SOL    HW259530  12.854   4.940   2.787
52586SOL     OW59531  14.656   4.632   3.728
52586SOL    HW159532  14.571   4.622   3.772
52586SOL    HW259533  14.689   4.717   3.757
52587SOL     OW59534  12.591   3.441  12.651
52587SOL    HW159535  12.626   3.528  12.637
52587SOL    HW259536  12.663   3.382  12.631
52588SOL     OW59537   0.653   9.676   0.392
52588SOL    HW159538   0.730   9.730   0.378
52588SOL    HW259539   0.631   9.690   0.484
52589SOL     OW59540  13.184  13.433   1.685
52589SOL    HW159541  13.152  13.348   1.715
52589SOL    HW259542  13.160  13.436   1.592
52590SOL     OW59543   7.695  12.608   8.559
52590SOL    HW159544   7.772  12.598   8.503
52590SOL    HW259545   7.719  12.566   8.641
52591SOL     OW59546   4.335   5.823   7.003
52591SOL    HW159547   4.239   5.830   7.000
52591SOL    HW259548   4.352   5.729   7.002
52592SOL     OW59549   9.622   0.723   0.013
52592SOL    HW159550   9.554   0.694  14.834
52592SOL    HW259551   9.693   0.754  14.838
52593SOL     OW59552   2.766  14.004   1.990
52593SOL    HW159553   2.857  13.984   1.966
52593SOL    HW259554   2.733  13.924   2.030
52594SOL     OW59555   3.689   5.452   6.301
52594SOL    HW159556   3.611   5.464   6.246
52594SOL    HW259557   3.758   5.428   6.239
52595SOL     OW59558   3.895   0.708   9.165
52595SOL    HW159559   3.862   0.759   9.239
52595SOL    HW259560   3.973   0.755   9.136
52596SOL     OW59561   2.425  11.697   3.412
52596SOL    HW159562   2.337  11.706   3.376
52596SOL    HW259563   2.416  11.634   3.484
52597SOL     OW59564   0.014   2.696  10.627
52597SOL    HW159565  14.844   2.777  10.633
52597SOL    HW259566   0.008   2.658  10.715
52598SOL     OW59567  12.192  14.007  14.161
52598SOL    HW159568  12.225  13.942  14.223
52598SOL    HW259569  12.131  14.060  14.213
52599SOL     OW59570   8.270   1.028   7.920
52599SOL    HW159571   8.267   1.124   7.918
52599SOL    HW259572   8.315   1.004   7.839
52600SOL     OW59573  11.964   4.374   8.382
52600SOL    HW159574  11.884   4.323   8.372
52600SOL    HW259575  12.012   4.331   8.452
52601SOL     OW59576   7.633   3.450  12.747
52601SOL    HW159577   7.560   3.440  12.808
52601SOL    HW259578   7.708   3.410  12.791
52602SOL     OW59579  10.831   7.602   6.679
52602SOL    HW159580  10.763   7.537   6.663
52602SOL    HW259581  10.913   7.553   6.672
52603SOL     OW59582   0.133   2.805   4.940
52603SOL    HW159583   0.139   2.895   4.972
52603SOL    HW259584   0.106   2.814   4.849
52604SOL     OW59585   8.115   1.890  11.433
52604SOL    HW159586   8.069   1.826  11.486
52604SOL    HW259587   8.125   1.848  11.347
52605SOL     OW59588  10.491   7.184   6.786
52605SOL    HW159589  10.479   7.091   6.806
52605SOL    HW259590  10.410   7.225   6.815
52606SOL     OW59591   1.557  12.259   6.120
52606SOL    HW159592   1.496  12.186   6.122
52606SOL    HW259593   1.549  12.295   6.031
52607SOL     OW59594  12.480  13.304  10.072
52607SOL    HW159595  12.490  13.323  10.165
52607SOL    HW259596  12.449  13.213  10.070
52608SOL     OW59597   9.035   5.664   1.834
52608SOL    HW159598   9.038   5.655   1.930
52608SOL    HW259599   9.023   5.574   1.802
52609SOL     OW59600  13.299  10.009   4.581
52609SOL    HW159601  13.389  10.001   4.548
52609SOL    HW259602  13.309  10.006   4.676
52610SOL     OW59603   6.728  13.378   8.984
52610SOL    HW159604   6.714  13.390   9.078
52610SOL    HW259605   6.820  13.352   8.977
52611SOL     OW59606   6.516  12.138   9.237
52611SOL    HW159607   6.460  12.195   9.289
52611SOL    HW259608   6.485  12.049   9.256
52612SOL     OW59609   9.552   8.793   3.014
52612SOL    HW159610   9.470   8.835   3.041
52612SOL    HW259611   9.565   8.724   3.079
52613SOL     OW59612   2.723   0.869   2.851
52613SOL    HW159613   2.654   0.932   2.873
52613SOL    HW259614   2.700   0.840   2.762
52614SOL     OW59615  14.761   1.714   6.777
52614SOL    HW159616  14.796   1.761   6.852
52614SOL    HW259617  14.725   1.783   6.721
52615SOL     OW59618   5.457   9.770   6.906
52615SOL    HW159619   5.467   9.829   6.831
52615SOL    HW259620   5.392   9.706   6.878
52616SOL     OW59621  14.837  10.117   1.241
52616SOL    HW159622   0.019  10.165   1.187
52616SOL    HW259623  14.755  10.165   1.230
52617SOL     OW59624   3.247   6.161   0.024
52617SOL    HW159625   3.187   6.169   0.098
52617SOL    HW259626   3.223   6.077  14.864
52618SOL     OW59627   0.574   4.634   6.429
52618SOL    HW159628   0.630   4.556   6.434
52618SOL    HW259629   0.485   4.601   6.439
52619SOL     OW59630  10.856   7.802   7.638
52619SOL    HW159631  10.895   7.741   7.700
52619SOL    HW259632  10.842   7.750   7.559
52620SOL     OW59633   1.218   7.850   3.075
52620SOL    HW159634   1.218   7.931   3.024
52620SOL    HW259635   1.311   7.832   3.090
52621SOL     OW59636   1.568  13.786   2.336
52621SOL    HW159637   1.573  13.850   2.408
52621SOL    HW259638   1.525  13.710   2.375
52622SOL     OW59639   3.565   6.126   1.860
52622SOL    HW159640   3.516   6.197   1.902
52622SOL    HW259641   3.523   6.116   1.774
52623SOL     OW59642   9.415   3.034   8.743
52623SOL    HW159643   9.425   3.128   8.730
52623SOL    HW259644   9.495   2.996   8.706
52624SOL     OW59645  12.201  10.834   3.002
52624SOL    HW159646  12.272  10.769   2.996
52624SOL    HW259647  12.129  10.786   3.045
52625SOL     OW59648   9.334   4.111   6.259
52625SOL    HW159649   9.330   4.121   6.354
52625SOL    HW259650   9.247   4.138   6.228
52626SOL     OW59651   8.211   0.952   2.405
52626SOL    HW159652   8.207   0.864   2.367
52626SOL    HW259653   8.251   1.006   2.336
52627SOL     OW59654   0.855   4.124  11.155
52627SOL    HW159655   0.760   4.134  11.157
52627SOL    HW259656   0.874   4.053  11.217
52628SOL     OW59657   5.384  12.396   3.642
52628SOL    HW159658   5.432  12.330   3.692
52628SOL    HW259659   5.315  12.347   3.596
52629SOL     OW59660  10.549   0.662   2.429
52629SOL    HW159661  10.633   0.662   2.384
52629SOL    HW259662  10.528   0.569   2.440
52630SOL     OW59663  11.196   3.944   0.885
52630SOL    HW159664  11.265   3.898   0.838
52630SOL    HW259665  11.121   3.941   0.826
52631SOL     OW59666   0.635  10.357  11.976
52631SOL    HW159667   0.547  10.320  11.966
52631SOL    HW259668   0.630  10.442  11.932
52632SOL     OW59669   1.640   5.624  11.072
52632SOL    HW159670   1.710   5.559  11.086
52632SOL    HW259671   1.652   5.652  10.981
52633SOL     OW59672   0.257  11.945  13.788
52633SOL    HW159673   0.342  11.922  13.752
52633SOL    HW259674   0.195  11.924  13.717
52634SOL     OW59675   0.898   5.430   3.302
52634SOL    HW159676   0.926   5.497   3.239
52634SOL    HW259677   0.849   5.367   3.249
52635SOL     OW59678   8.590   4.961  11.488
52635SOL    HW159679   8.669   4.964  11.434
52635SOL    HW259680   8.560   5.052  11.492
52636SOL     OW59681   1.020   4.504   3.132
52636SOL    HW159682   0.929   4.474   3.141
52636SOL    HW259683   1.043   4.485   3.041
52637SOL     OW59684   1.822  13.883  11.856
52637SOL    HW159685   1.865  13.893  11.771
52637SOL    HW259686   1.876  13.820  11.903
52638SOL     OW59687   6.782   3.150  13.212
52638SOL    HW159688   6.769   3.228  13.266
52638SOL    HW259689   6.695   3.126  13.183
52639SOL     OW59690   9.409   5.284  11.113
52639SOL    HW159691   9.495   5.266  11.075
52639SOL    HW259692   9.366   5.342  11.051
52640SOL     OW59693   3.438   9.165   6.480
52640SOL    HW159694   3.519   9.121   6.506
52640SOL    HW259695   3.378   9.151   6.553
52641SOL     OW59696  10.784   4.349  13.834
52641SOL    HW159697  10.715   4.316  13.776
52641SOL    HW259698  10.852   4.381  13.774
52642SOL     OW59699  10.250   0.612   8.135
52642SOL    HW159700  10.203   0.622   8.052
52642SOL    HW259701  10.341   0.633   8.113
52643SOL     OW59702   6.784   5.883   9.717
52643SOL    HW159703   6.780   5.978   9.731
52643SOL    HW259704   6.847   5.852   9.782
52644SOL     OW59705   9.426   6.606  12.385
52644SOL    HW159706   9.491   6.600  12.314
52644SOL    HW259707   9.416   6.517  12.416
52645SOL     OW59708   6.942   4.829   8.222
52645SOL    HW159709   6.985   4.813   8.306
52645SOL    HW259710   6.936   4.743   8.181
52646SOL     OW59711  12.165   0.988  13.612
52646SOL    HW159712  12.200   0.928  13.678
52646SOL    HW259713  12.227   1.061  13.610
52647SOL     OW59714   1.129   5.350   3.895
52647SOL    HW159715   1.202   5.371   3.837
52647SOL    HW259716   1.164   5.285   3.955
52648SOL     OW59717   8.233   9.547   5.316
52648SOL    HW159718   8.256   9.507   5.400
52648SOL    HW259719   8.302   9.517   5.256
52649SOL     OW59720   5.388   6.493   4.952
52649SOL    HW159721   5.399   6.496   5.047
52649SOL    HW259722   5.433   6.414   4.924
52650SOL     OW59723  13.109   3.637   0.021
52650SOL    HW159724  13.142   3.639   0.111
52650SOL    HW259725  13.078   3.547   0.010
52651SOL     OW59726   8.061   6.225   1.703
52651SOL    HW159727   8.135   6.269   1.746
52651SOL    HW259728   8.091   6.209   1.614
52652SOL     OW59729  12.300   9.046  10.069
52652SOL    HW159730  12.321   9.093   9.989
52652SOL    HW259731  12.208   9.067  10.086
52653SOL     OW59732   4.483   4.195  10.150
52653SOL    HW159733   4.448   4.284  10.156
52653SOL    HW259734   4.546   4.198  10.078
52654SOL     OW59735   9.715  14.151   7.891
52654SOL    HW159736   9.732  14.245   7.899
52654SOL    HW259737   9.765  14.111   7.961
52655SOL     OW59738   9.800   9.061   6.428
52655SOL    HW159739   9.817   9.086   6.337
52655SOL    HW259740   9.750   8.979   6.421
52656SOL     OW59741   9.814  13.388  13.812
52656SOL    HW159742   9.766  13.327  13.756
52656SOL    HW259743   9.906  13.367  13.796
52657SOL     OW59744  11.362   4.231   2.898
52657SOL    HW159745  11.271   4.209   2.917
52657SOL    HW259746  11.382   4.304   2.958
52658SOL     OW59747   9.038   0.974   2.857
52658SOL    HW159748   9.081   1.059   2.865
52658SOL    HW259749   9.064   0.926   2.936
52659SOL     OW59750   3.762  10.527   6.946
52659SOL    HW159751   3.752  10.500   7.038
52659SOL    HW259752   3.716  10.459   6.897
52660SOL     OW59753  10.050   5.012  14.434
52660SOL    HW159754  10.123   4.961  14.469
52660SOL    HW259755   9.988   4.947  14.402
52661SOL     OW59756   6.565   3.980  11.091
52661SOL    HW159757   6.636   3.981  11.155
52661SOL    HW259758   6.531   4.069  11.092
52662SOL     OW59759   3.793  10.607  12.791
52662SOL    HW159760   3.775  10.522  12.831
52662SOL    HW259761   3.707  10.641  12.767
52663SOL     OW59762   0.215  12.401   3.915
52663SOL    HW159763   0.128  12.373   3.884
52663SOL    HW259764   0.198  12.442   4.000
52664SOL     OW59765   6.082   7.516   6.732
52664SOL    HW159766   6.031   7.450   6.686
52664SOL    HW259767   6.021   7.588   6.747
52665SOL     OW59768   0.501   4.650   4.939
52665SOL    HW159769   0.510   4.557   4.917
52665SOL    HW259770   0.544   4.697   4.868
52666SOL     OW59771   3.328   6.186  13.030
52666SOL    HW159772   3.292   6.212  12.944
52666SOL    HW259773   3.262   6.127  13.066
52667SOL     OW59774   6.826   6.362  10.769
52667SOL    HW159775   6.731   6.354  10.773
52667SOL    HW259776   6.851   6.311  10.692
52668SOL     OW59777  10.844   6.859   0.441
52668SOL    HW159778  10.778   6.862   0.510
52668SOL    HW259779  10.927   6.846   0.488
52669SOL     OW59780  14.847  11.004   3.501
52669SOL    HW159781   0.031  10.968   3.561
52669SOL    HW259782   0.017  11.055   3.438
52670SOL     OW59783   1.944   1.425   0.680
52670SOL    HW159784   2.004   1.475   0.735
52670SOL    HW259785   1.942   1.473   0.597
52671SOL     OW59786   5.446   9.973  11.778
52671SOL    HW159787   5.534   9.972  11.816
52671SOL    HW259788   5.388   9.951  11.851
52672SOL     OW59789  14.403   7.861  10.557
52672SOL    HW159790  14.365   7.784  10.515
52672SOL    HW259791  14.374   7.856  10.648
52673SOL     OW59792   0.853   4.839   5.001
52673SOL    HW159793   0.868   4.745   4.990
52673SOL    HW259794   0.940   4.876   5.017
52674SOL     OW59795   4.320  14.562   7.697
52674SOL    HW159796   4.381  14.612   7.752
52674SOL    HW259797   4.234  14.578   7.737
52675SOL     OW59798  11.298   3.086   7.528
52675SOL    HW159799  11.260   3.121   7.609
52675SOL    HW259800  11.385   3.127   7.523
52676SOL     OW59801   8.215  11.349   2.588
52676SOL    HW159802   8.152  11.348   2.660
52676SOL    HW259803   8.161  11.365   2.510
52677SOL     OW59804   9.399   3.712   3.992
52677SOL    HW159805   9.314   3.748   3.967
52677SOL    HW259806   9.388   3.684   4.083
52678SOL     OW59807   8.142  13.289   3.295
52678SOL    HW159808   8.093  13.365   3.325
52678SOL    HW259809   8.083  13.215   3.308
52679SOL     OW59810   8.978  13.062   4.414
52679SOL    HW159811   8.913  13.099   4.474
52679SOL    HW259812   9.053  13.043   4.469
52680SOL     OW59813   1.873  13.135  13.239
52680SOL    HW159814   1.788  13.094  13.252
52680SOL    HW259815   1.863  13.224  13.275
52681SOL     OW59816   9.726   8.090   8.071
52681SOL    HW159817   9.784   8.069   8.145
52681SOL    HW259818   9.656   8.143   8.110
52682SOL     OW59819   4.625   6.266  11.380
52682SOL    HW159820   4.575   6.184  11.373
52682SOL    HW259821   4.663   6.278  11.293
52683SOL     OW59822   9.789   3.663   9.232
52683SOL    HW159823   9.813   3.718   9.307
52683SOL    HW259824   9.837   3.701   9.158
52684SOL     OW59825  10.804   2.735   2.891
52684SOL    HW159826  10.782   2.771   2.977
52684SOL    HW259827  10.889   2.693   2.904
52685SOL     OW59828   3.767   4.879   4.885
52685SOL    HW159829   3.673   4.899   4.886
52685SOL    HW259830   3.786   4.856   4.794
52686SOL     OW59831  11.182   6.135  14.419
52686SOL    HW159832  11.163   6.175  14.504
52686SOL    HW259833  11.122   6.061  14.414
52687SOL     OW59834   8.557   6.185   5.554
52687SOL    HW159835   8.639   6.223   5.586
52687SOL    HW259836   8.531   6.242   5.482
52688SOL     OW59837   6.745   8.645  12.878
52688SOL    HW159838   6.788   8.728  12.858
52688SOL    HW259839   6.652   8.665  12.875
52689SOL     OW59840  11.940   1.369   2.399
52689SOL    HW159841  12.031   1.369   2.371
52689SOL    HW259842  11.927   1.284   2.440
52690SOL     OW59843   1.447  10.406   1.536
52690SOL    HW159844   1.395  10.366   1.606
52690SOL    HW259845   1.468  10.493   1.569
52691SOL     OW59846  11.587   7.111   8.712
52691SOL    HW159847  11.558   7.028   8.673
52691SOL    HW259848  11.645   7.085   8.783
52692SOL     OW59849   1.759  11.273   5.766
52692SOL    HW159850   1.790  11.218   5.693
52692SOL    HW259851   1.784  11.224   5.845
52693SOL     OW59852   7.813  11.760   4.051
52693SOL    HW159853   7.810  11.722   4.139
52693SOL    HW259854   7.777  11.848   4.061
52694SOL     OW59855  12.776  14.240   6.754
52694SOL    HW159856  12.787  14.335   6.746
52694SOL    HW259857  12.861  14.204   6.732
52695SOL     OW59858  12.865   1.743   9.671
52695SOL    HW159859  12.883   1.706   9.585
52695SOL    HW259860  12.833   1.832   9.652
52696SOL     OW59861   4.665   5.752   7.392
52696SOL    HW159862   4.717   5.807   7.451
52696SOL    HW259863   4.575   5.767   7.418
52697SOL     OW59864  10.330  14.188   5.295
52697SOL    HW159865  10.288  14.239   5.226
52697SOL    HW259866  10.418  14.171   5.261
52698SOL     OW59867  13.239   2.201   0.378
52698SOL    HW159868  13.304   2.267   0.403
52698SOL    HW259869  13.179   2.197   0.452
52699SOL     OW59870  12.612   3.076  12.865
52699SOL    HW159871  12.639   3.033  12.946
52699SOL    HW259872  12.554   3.146  12.893
52700SOL     OW59873  12.130  10.700   5.802
52700SOL    HW159874  12.193  10.628   5.798
52700SOL    HW259875  12.182  10.778   5.789
52701SOL     OW59876   6.889   4.028   5.652
52701SOL    HW159877   6.906   3.940   5.686
52701SOL    HW259878   6.943   4.035   5.574
52702SOL     OW59879  10.364  12.733   9.373
52702SOL    HW159880  10.394  12.711   9.461
52702SOL    HW259881  10.445  12.744   9.322
52703SOL     OW59882   4.799   4.285   7.478
52703SOL    HW159883   4.724   4.249   7.432
52703SOL    HW259884   4.873   4.271   7.418
52704SOL     OW59885  12.195   4.260  12.186
52704SOL    HW159886  12.133   4.279  12.115
52704SOL    HW259887  12.253   4.336  12.189
52705SOL     OW59888  10.839  14.233   5.317
52705SOL    HW159889  10.884  14.221   5.233
52705SOL    HW259890  10.776  14.304   5.301
52706SOL     OW59891   3.728   0.920   3.533
52706SOL    HW159892   3.817   0.892   3.512
52706SOL    HW259893   3.694   0.852   3.591
52707SOL     OW59894   2.148   9.358   6.240
52707SOL    HW159895   2.192   9.366   6.325
52707SOL    HW259896   2.058   9.335   6.262
52708SOL     OW59897  11.400  13.715   9.841
52708SOL    HW159898  11.437  13.725   9.929
52708SOL    HW259899  11.417  13.623   9.818
52709SOL     OW59900   1.688  13.479   5.197
52709SOL    HW159901   1.725  13.567   5.192
52709SOL    HW259902   1.613  13.481   5.137
52710SOL     OW59903   5.085   1.393   4.959
52710SOL    HW159904   5.080   1.486   4.982
52710SOL    HW259905   5.160   1.361   5.009
52711SOL     OW59906  10.156   7.018   2.026
52711SOL    HW159907  10.233   7.062   1.990
52711SOL    HW259908  10.161   6.929   1.992
52712SOL     OW59909   3.398   5.925   5.598
52712SOL    HW159910   3.329   5.862   5.619
52712SOL    HW259911   3.440   5.943   5.682
52713SOL     OW59912  12.339   0.900   1.028
52713SOL    HW159913  12.386   0.829   1.070
52713SOL    HW259914  12.253   0.864   1.007
52714SOL     OW59915   5.023   6.759  12.529
52714SOL    HW159916   5.117   6.763  12.517
52714SOL    HW259917   5.010   6.768  12.623
52715SOL     OW59918   6.051   0.065  10.691
52715SOL    HW159919   6.067  14.854  10.709
52715SOL    HW259920   6.122   0.091  10.633
52716SOL     OW59921   3.041   0.271   9.563
52716SOL    HW159922   3.117   0.215   9.572
52716SOL    HW259923   2.968   0.218   9.597
52717SOL     OW59924   9.393  11.258  13.250
52717SOL    HW159925   9.343  11.281  13.172
52717SOL    HW259926   9.331  11.269  13.322
52718SOL     OW59927  10.214   1.844   5.745
52718SOL    HW159928  10.158   1.767   5.736
52718SOL    HW259929  10.292   1.812   5.789
52719SOL     OW59930  11.460   4.123   5.266
52719SOL    HW159931  11.468   4.181   5.191
52719SOL    HW259932  11.433   4.180   5.338
52720SOL     OW59933  12.121   8.589  10.385
52720SOL    HW159934  12.192   8.531  10.415
52720SOL    HW259935  12.138   8.601  10.292
52721SOL     OW59936   4.037   0.646   7.908
52721SOL    HW159937   4.032   0.736   7.875
52721SOL    HW259938   3.949   0.610   7.894
52722SOL     OW59939   1.159  12.318  13.483
52722SOL    HW159940   1.233  12.290  13.429
52722SOL    HW259941   1.143  12.409  13.457
52723SOL     OW59942  12.819  13.295   1.487
52723SOL    HW159943  12.891  13.236   1.512
52723SOL    HW259944  12.861  13.361   1.432
52724SOL     OW59945   6.743   1.644   6.834
52724SOL    HW159946   6.838   1.650   6.843
52724SOL    HW259947   6.712   1.734   6.848
52725SOL     OW59948   9.979  11.157  13.232
52725SOL    HW159949   9.945  11.077  13.192
52725SOL    HW259950   9.964  11.225  13.166
52726SOL     OW59951   7.699   9.674   2.093
52726SOL    HW159952   7.721   9.712   2.008
52726SOL    HW259953   7.631   9.732   2.128
52727SOL     OW59954  14.284  13.058   4.348
52727SOL    HW159955  14.321  13.112   4.417
52727SOL    HW259956  14.263  13.120   4.278
52728SOL     OW59957   5.271   4.764   1.269
52728SOL    HW159958   5.276   4.668   1.275
52728SOL    HW259959   5.178   4.783   1.268
52729SOL     OW59960  12.632   1.242   0.601
52729SOL    HW159961  12.719   1.203   0.600
52729SOL    HW259962  12.579   1.186   0.544
52730SOL     OW59963   7.865   9.448   2.862
52730SOL    HW159964   7.825   9.532   2.838
52730SOL    HW259965   7.866   9.398   2.781
52731SOL     OW59966   1.820  12.564  12.306
52731SOL    HW159967   1.829  12.655  12.278
52731SOL    HW259968   1.749  12.566  12.371
52732SOL     OW59969   7.919   7.911   1.381
52732SOL    HW159970   7.836   7.926   1.335
52732SOL    HW259971   7.947   7.824   1.350
52733SOL     OW59972  13.329   5.071   9.889
52733SOL    HW159973  13.331   5.141   9.824
52733SOL    HW259974  13.289   5.110   9.966
52734SOL     OW59975   0.062   0.903   0.846
52734SOL    HW159976   0.094   0.917   0.757
52734SOL    HW259977   0.002   0.828   0.838
52735SOL     OW59978   8.263   3.833   7.136
52735SOL    HW159979   8.199   3.836   7.207
52735SOL    HW259980   8.286   3.740   7.128
52736SOL     OW59981  11.050  11.875  12.247
52736SOL    HW159982  10.959  11.902  12.232
52736SOL    HW259983  11.049  11.836  12.334
52737SOL     OW59984   7.436   3.907   1.188
52737SOL    HW159985   7.484   3.929   1.268
52737SOL    HW259986   7.504   3.881   1.126
52738SOL     OW59987  10.912   0.465   9.284
52738SOL    HW159988  10.962   0.545   9.298
52738SOL    HW259989  10.883   0.469   9.193
52739SOL     OW59990   3.598   7.673   4.317
52739SOL    HW159991   3.512   7.634   4.328
52739SOL    HW259992   3.659   7.601   4.332
52740SOL     OW59993   6.333   2.396  11.225
52740SOL    HW159994   6.258   2.451  11.247
52740SOL    HW259995   6.409   2.454  11.238
52741SOL     OW59996   7.652  13.329   5.397
52741SOL    HW159997   7.607  13.246   5.383
52741SOL    HW259998   7.613  13.363   5.478
52742SOL     OW59999  13.856   3.197   0.394
52742SOL    HW160000  13.912   3.240   0.459
52742SOL    HW260001  13.855   3.258   0.321
52743SOL     OW60002   9.031   1.175   6.088
52743SOL    HW160003   9.050   1.263   6.121
52743SOL    HW260004   9.068   1.174   6.000
52744SOL     OW60005   7.802   4.369   4.615
52744SOL    HW160006   7.866   4.412   4.672
52744SOL    HW260007   7.812   4.276   4.634
52745SOL     OW60008   4.314   6.452   1.313
52745SOL    HW160009   4.277   6.364   1.319
52745SOL    HW260010   4.344   6.459   1.223
52746SOL     OW60011   2.309   8.055   2.713
52746SOL    HW160012   2.353   8.069   2.629
52746SOL    HW260013   2.276   7.965   2.708
52747SOL     OW60014   8.328   8.877  12.305
52747SOL    HW160015   8.290   8.829  12.378
52747SOL    HW260016   8.362   8.808  12.247
52748SOL     OW60017  12.567   6.482  14.529
52748SOL    HW160018  12.489   6.428  14.523
52748SOL    HW260019  12.599   6.488  14.439
52749SOL     OW60020   3.897   0.711   5.009
52749SOL    HW160021   3.903   0.803   5.035
52749SOL    HW260022   3.866   0.714   4.919
52750SOL     OW60023  11.607  14.265  14.525
52750SOL    HW160024  11.570  14.328  14.587
52750SOL    HW260025  11.532  14.230  14.477
52751SOL     OW60026   7.422   7.963   1.906
52751SOL    HW160027   7.476   8.038   1.881
52751SOL    HW260028   7.383   7.934   1.824
52752SOL     OW60029   9.978  10.873   6.695
52752SOL    HW160030   9.901  10.858   6.641
52752SOL    HW260031   9.943  10.916   6.774
52753SOL     OW60032   4.866   3.446   5.800
52753SOL    HW160033   4.950   3.408   5.827
52753SOL    HW260034   4.800   3.395   5.846
52754SOL     OW60035   6.970  13.974   9.915
52754SOL    HW160036   7.059  13.947   9.896
52754SOL    HW260037   6.915  13.914   9.866
52755SOL     OW60038  11.249   9.105  12.532
52755SOL    HW160039  11.286   9.161  12.464
52755SOL    HW260040  11.183   9.052  12.487
52756SOL     OW60041  14.496   5.472   3.380
52756SOL    HW160042  14.484   5.551   3.327
52756SOL    HW260043  14.448   5.489   3.460
52757SOL     OW60044   3.961   2.857  11.741
52757SOL    HW160045   3.960   2.778  11.687
52757SOL    HW260046   4.024   2.838  11.811
52758SOL     OW60047   8.714   2.462   8.434
52758SOL    HW160048   8.636   2.517   8.436
52758SOL    HW260049   8.734   2.446   8.526
52759SOL     OW60050   3.650   6.452   0.327
52759SOL    HW160051   3.738   6.488   0.330
52759SOL    HW260052   3.602   6.511   0.269
52760SOL     OW60053   2.948  12.361   4.229
52760SOL    HW160054   2.975  12.426   4.163
52760SOL    HW260055   2.879  12.311   4.186
52761SOL     OW60056  11.503   0.380  11.070
52761SOL    HW160057  11.575   0.402  11.129
52761SOL    HW260058  11.427   0.370  11.127
52762SOL     OW60059   0.444  13.147  10.466
52762SOL    HW160060   0.472  13.068  10.513
52762SOL    HW260061   0.511  13.159  10.398
52763SOL     OW60062   1.144   6.994  10.501
52763SOL    HW160063   1.201   6.967  10.573
52763SOL    HW260064   1.196   7.055  10.450
52764SOL     OW60065  11.165   3.968   3.101
52764SOL    HW160066  11.148   4.051   3.146
52764SOL    HW260067  11.255   3.946   3.124
52765SOL     OW60068   6.096  14.220  12.875
52765SOL    HW160069   6.075  14.220  12.968
52765SOL    HW260070   6.190  14.234  12.871
52766SOL     OW60071   4.065   5.719  12.826
52766SOL    HW160072   3.999   5.716  12.757
52766SOL    HW260073   4.137   5.666  12.792
52767SOL     OW60074   1.314  11.635  12.937
52767SOL    HW160075   1.292  11.728  12.944
52767SOL    HW260076   1.267  11.594  13.009
52768SOL     OW60077  12.880  12.899  13.845
52768SOL    HW160078  12.827  12.963  13.892
52768SOL    HW260079  12.867  12.921  13.753
52769SOL     OW60080   0.191  11.532   3.005
52769SOL    HW160081   0.098  11.508   3.015
52769SOL    HW260082   0.229  11.515   3.091
52770SOL     OW60083  11.461   7.863   5.303
52770SOL    HW160084  11.399   7.923   5.346
52770SOL    HW260085  11.546   7.904   5.317
52771SOL     OW60086  10.493  11.690   1.749
52771SOL    HW160087  10.463  11.605   1.781
52771SOL    HW260088  10.585  11.693   1.773
52772SOL     OW60089   7.287   3.536   9.758
52772SOL    HW160090   7.222   3.535   9.688
52772SOL    HW260091   7.309   3.444   9.771
52773SOL     OW60092   0.486  10.194   1.760
52773SOL    HW160093   0.518  10.198   1.850
52773SOL    HW260094   0.556  10.235   1.708
52774SOL     OW60095   6.749   7.682   6.106
52774SOL    HW160096   6.764   7.666   6.013
52774SOL    HW260097   6.659   7.716   6.110
52775SOL     OW60098   9.624  10.835   0.977
52775SOL    HW160099   9.623  10.923   1.016
52775SOL    HW260100   9.716  10.819   0.957
52776SOL     OW60101   7.787  11.163   6.909
52776SOL    HW160102   7.784  11.097   6.978
52776SOL    HW260103   7.727  11.231   6.940
52777SOL     OW60104   6.757  13.156  13.418
52777SOL    HW160105   6.796  13.069  13.407
52777SOL    HW260106   6.788  13.185  13.504
52778SOL     OW60107   6.678  11.322   2.340
52778SOL    HW160108   6.726  11.390   2.387
52778SOL    HW260109   6.617  11.370   2.284
52779SOL     OW60110   0.617   6.287  13.998
52779SOL    HW160111   0.661   6.218  14.047
52779SOL    HW260112   0.677   6.361  14.000
52780SOL     OW60113  11.744   0.232  12.901
52780SOL    HW160114  11.784   0.152  12.867
52780SOL    HW260115  11.685   0.202  12.970
52781SOL     OW60116  10.972   7.796   1.762
52781SOL    HW160117  11.045   7.812   1.823
52781SOL    HW260118  11.009   7.816   1.676
52782SOL     OW60119  12.468   4.374   3.135
52782SOL    HW160120  12.549   4.326   3.118
52782SOL    HW260121  12.496   4.454   3.178
52783SOL     OW60122   2.822   4.754   1.765
52783SOL    HW160123   2.822   4.663   1.795
52783SOL    HW260124   2.776   4.802   1.834
52784SOL     OW60125  13.167   1.083   7.168
52784SOL    HW160126  13.074   1.103   7.176
52784SOL    HW260127  13.206   1.114   7.250
52785SOL     OW60128   7.113  11.825   7.220
52785SOL    HW160129   7.192  11.875   7.200
52785SOL    HW260130   7.120  11.804   7.313
52786SOL     OW60131   9.740  10.406   0.928
52786SOL    HW160132   9.757  10.315   0.904
52786SOL    HW260133   9.646  10.418   0.912
52787SOL     OW60134   6.615   5.186  12.779
52787SOL    HW160135   6.626   5.222  12.690
52787SOL    HW260136   6.609   5.263  12.835
52788SOL     OW60137  14.392   0.771   1.611
52788SOL    HW160138  14.383   0.858   1.651
52788SOL    HW260139  14.305   0.733   1.616
52789SOL     OW60140   7.722   2.914   8.040
52789SOL    HW160141   7.799   2.957   8.005
52789SOL    HW260142   7.661   2.910   7.967
52790SOL     OW60143   4.547   0.801  10.810
52790SOL    HW160144   4.550   0.730  10.746
52790SOL    HW260145   4.637   0.809  10.841
52791SOL     OW60146   9.531   2.271   3.194
52791SOL    HW160147   9.454   2.262   3.250
52791SOL    HW260148   9.604   2.274   3.256
52792SOL     OW60149   9.956   4.334   4.916
52792SOL    HW160150   9.925   4.415   4.957
52792SOL    HW260151   9.981   4.360   4.828
52793SOL     OW60152  14.675  12.254   3.622
52793SOL    HW160153  14.722  12.263   3.539
52793SOL    HW260154  14.590  12.293   3.606
52794SOL     OW60155  13.944   8.113   8.804
52794SOL    HW160156  14.005   8.145   8.870
52794SOL    HW260157  13.868   8.084   8.854
52795SOL     OW60158   6.679   5.683   5.895
52795SOL    HW160159   6.683   5.695   5.800
52795SOL    HW260160   6.675   5.771   5.930
52796SOL     OW60161   1.293  13.961   0.572
52796SOL    HW160162   1.217  13.926   0.619
52796SOL    HW260163   1.361  13.966   0.639
52797SOL     OW60164   6.913   1.921   7.896
52797SOL    HW160165   6.938   1.960   7.980
52797SOL    HW260166   6.992   1.877   7.865
52798SOL     OW60167   3.362   3.111  13.362
52798SOL    HW160168   3.323   3.073  13.441
52798SOL    HW260169   3.330   3.057  13.290
52799SOL     OW60170   6.418  12.164   0.422
52799SOL    HW160171   6.473  12.086   0.429
52799SOL    HW260172   6.384  12.161   0.332
52800SOL     OW60173  11.686  10.869   2.207
52800SOL    HW160174  11.631  10.891   2.282
52800SOL    HW260175  11.750  10.806   2.240
52801SOL     OW60176  10.999  11.752   5.982
52801SOL    HW160177  10.956  11.667   5.970
52801SOL    HW260178  11.090  11.730   6.001
52802SOL     OW60179   5.789   4.323   5.714
52802SOL    HW160180   5.697   4.345   5.720
52802SOL    HW260181   5.813   4.342   5.623
52803SOL     OW60182   6.953   3.794   5.787
52803SOL    HW160183   6.976   3.788   5.880
52803SOL    HW260184   7.007   3.728   5.745
52804SOL     OW60185  13.456   5.101   0.870
52804SOL    HW160186  13.424   5.012   0.860
52804SOL    HW260187  13.382   5.157   0.846
52805SOL     OW60188  11.859   0.095   8.021
52805SOL    HW160189  11.921   0.068   7.953
52805SOL    HW260190  11.814   0.171   7.983
52806SOL     OW60191   1.967  12.593   0.473
52806SOL    HW160192   2.061  12.595   0.455
52806SOL    HW260193   1.960  12.550   0.558
52807SOL     OW60194  11.984   0.849  13.923
52807SOL    HW160195  11.966   0.815  14.010
52807SOL    HW260196  12.054   0.913  13.936
52808SOL     OW60197   8.212   9.769  12.355
52808SOL    HW160198   8.235   9.841  12.297
52808SOL    HW260199   8.280   9.703  12.340
52809SOL     OW60200   6.461   6.605   2.752
52809SOL    HW160201   6.434   6.695   2.773
52809SOL    HW260202   6.506   6.613   2.668
52810SOL     OW60203   6.318   4.588   4.446
52810SOL    HW160204   6.266   4.544   4.513
52810SOL    HW260205   6.265   4.584   4.366
52811SOL     OW60206   7.190   5.751  13.305
52811SOL    HW160207   7.095   5.759  13.307
52811SOL    HW260208   7.220   5.832  13.262
52812SOL     OW60209   1.431  13.164   3.434
52812SOL    HW160210   1.425  13.070   3.451
52812SOL    HW260211   1.524  13.182   3.431
52813SOL     OW60212   7.152   0.862   0.861
52813SOL    HW160213   7.221   0.856   0.927
52813SOL    HW260214   7.181   0.932   0.803
52814SOL     OW60215   9.276  12.434   4.640
52814SOL    HW160216   9.232  12.415   4.557
52814SOL    HW260217   9.318  12.351   4.664
52815SOL     OW60218   4.623  13.185   6.649
52815SOL    HW160219   4.638  13.271   6.610
52815SOL    HW260220   4.530  13.167   6.634
52816SOL     OW60221   2.009   6.022  12.942
52816SOL    HW160222   1.992   6.086  12.872
52816SOL    HW260223   2.092   6.049  12.980
52817SOL     OW60224  14.565  11.671   3.893
52817SOL    HW160225  14.550  11.761   3.865
52817SOL    HW260226  14.572  11.677   3.989
52818SOL     OW60227   8.759   2.073  12.612
52818SOL    HW160228   8.788   2.004  12.671
52818SOL    HW260229   8.698   2.031  12.552
52819SOL     OW60230   8.166   0.422   8.481
52819SOL    HW160231   8.097   0.487   8.467
52819SOL    HW260232   8.239   0.451   8.427
52820SOL     OW60233   5.742   8.490   6.130
52820SOL    HW160234   5.827   8.535   6.124
52820SOL    HW260235   5.688   8.550   6.182
52821SOL     OW60236   5.709   1.257   5.776
52821SOL    HW160237   5.659   1.190   5.821
52821SOL    HW260238   5.705   1.233   5.684
52822SOL     OW60239   4.380   8.397   1.587
52822SOL    HW160240   4.323   8.428   1.657
52822SOL    HW260241   4.458   8.365   1.631
52823SOL     OW60242   0.435   4.592   4.560
52823SOL    HW160243   0.404   4.548   4.481
52823SOL    HW260244   0.380   4.557   4.630
52824SOL     OW60245  14.838  11.287   4.087
52824SOL    HW160246  14.810  11.203   4.122
52824SOL    HW260247  14.757  11.332   4.064
52825SOL     OW60248   9.504   4.118   2.436
52825SOL    HW160249   9.424   4.084   2.396
52825SOL    HW260250   9.503   4.211   2.417
52826SOL     OW60251   1.139   6.082   1.110
52826SOL    HW160252   1.109   6.092   1.201
52826SOL    HW260253   1.106   6.160   1.065
52827SOL     OW60254   3.267   4.070   6.787
52827SOL    HW160255   3.342   4.054   6.729
52827SOL    HW260256   3.200   4.109   6.730
52828SOL     OW60257   4.487   5.391   1.297
52828SOL    HW160258   4.554   5.415   1.360
52828SOL    HW260259   4.507   5.301   1.273
52829SOL     OW60260  11.052   8.842   8.728
52829SOL    HW160261  11.091   8.900   8.793
52829SOL    HW260262  11.116   8.840   8.657
52830SOL     OW60263   9.447   6.091   3.406
52830SOL    HW160264   9.404   6.123   3.327
52830SOL    HW260265   9.380   6.095   3.474
52831SOL     OW60266   7.679   5.203  11.178
52831SOL    HW160267   7.764   5.244  11.160
52831SOL    HW260268   7.691   5.158  11.262
52832SOL     OW60269  12.485   9.837   9.612
52832SOL    HW160270  12.483   9.901   9.540
52832SOL    HW260271  12.573   9.844   9.648
52833SOL     OW60272   6.660   6.409   3.330
52833SOL    HW160273   6.715   6.341   3.368
52833SOL    HW260274   6.586   6.417   3.391
52834SOL     OW60275   9.667   6.277   2.930
52834SOL    HW160276   9.679   6.234   3.015
52834SOL    HW260277   9.749   6.324   2.915
52835SOL     OW60278   6.113   8.575  12.892
52835SOL    HW160279   6.096   8.483  12.912
52835SOL    HW260280   6.176   8.572  12.820
52836SOL     OW60281   3.527   3.116  10.002
52836SOL    HW160282   3.452   3.175  10.009
52836SOL    HW260283   3.493   3.038   9.957
52837SOL     OW60284   0.725   0.854   9.786
52837SOL    HW160285   0.814   0.888   9.793
52837SOL    HW260286   0.673   0.912   9.842
52838SOL     OW60287  10.869  14.000  11.393
52838SOL    HW160288  10.818  14.067  11.348
52838SOL    HW260289  10.947  13.988  11.339
52839SOL     OW60290   0.283   1.629   1.123
52839SOL    HW160291   0.235   1.700   1.079
52839SOL    HW260292   0.216   1.562   1.139
52840SOL     OW60293   2.957  11.004  13.443
52840SOL    HW160294   2.866  10.988  13.421
52840SOL    HW260295   3.007  10.955  13.378
52841SOL     OW60296   5.837   2.759   6.531
52841SOL    HW160297   5.816   2.748   6.439
52841SOL    HW260298   5.933   2.759   6.534
52842SOL     OW60299   2.019  13.894   7.679
52842SOL    HW160300   2.076  13.819   7.697
52842SOL    HW260301   2.055  13.964   7.733
52843SOL     OW60302   2.569   9.567   7.077
52843SOL    HW160303   2.625   9.557   7.000
52843SOL    HW260304   2.624   9.542   7.150
52844SOL     OW60305  14.160   8.195   2.169
52844SOL    HW160306  14.232   8.152   2.123
52844SOL    HW260307  14.193   8.284   2.185
52845SOL     OW60308   1.560  14.000   2.513
52845SOL    HW160309   1.558  14.083   2.464
52845SOL    HW260310   1.494  14.011   2.582
52846SOL     OW60311   4.858  14.875  12.127
52846SOL    HW160312   4.859  14.797  12.071
52846SOL    HW260313   4.950   0.019  12.134
52847SOL     OW60314   0.933   7.397   9.975
52847SOL    HW160315   0.905   7.378   9.885
52847SOL    HW260316   0.974   7.483   9.970
52848SOL     OW60317   9.744   4.771   4.378
52848SOL    HW160318   9.792   4.853   4.376
52848SOL    HW260319   9.676   4.783   4.444
52849SOL     OW60320   8.308  11.297   0.155
52849SOL    HW160321   8.372  11.364   0.179
52849SOL    HW260322   8.358  11.233   0.105
52850SOL     OW60323   7.489  12.368   5.185
52850SOL    HW160324   7.546  12.380   5.110
52850SOL    HW260325   7.401  12.359   5.148
52851SOL     OW60326   2.918   1.122  10.393
52851SOL    HW160327   2.886   1.203  10.352
52851SOL    HW260328   2.874   1.121  10.478
52852SOL     OW60329   2.745   7.734  13.038
52852SOL    HW160330   2.729   7.736  12.944
52852SOL    HW260331   2.742   7.641  13.061
52853SOL     OW60332   0.707   0.176   9.904
52853SOL    HW160333   0.741   0.255   9.862
52853SOL    HW260334   0.622   0.162   9.862
52854SOL     OW60335   7.044   0.731   8.061
52854SOL    HW160336   7.059   0.703   8.151
52854SOL    HW260337   6.960   0.777   8.064
52855SOL     OW60338   9.488  13.759   6.803
52855SOL    HW160339   9.422  13.693   6.780
52855SOL    HW260340   9.516  13.795   6.719
52856SOL     OW60341  13.217   4.853  10.426
52856SOL    HW160342  13.162   4.813  10.494
52856SOL    HW260343  13.288   4.894  10.474
52857SOL     OW60344  12.460   2.205   5.667
52857SOL    HW160345  12.467   2.275   5.602
52857SOL    HW260346  12.453   2.251   5.751
52858SOL     OW60347   9.912   4.838  12.424
52858SOL    HW160348   9.975   4.803  12.487
52858SOL    HW260349   9.858   4.898  12.475
52859SOL     OW60350  14.312   3.574   6.499
52859SOL    HW160351  14.396   3.530   6.507
52859SOL    HW260352  14.303   3.592   6.405
52860SOL     OW60353   7.871   0.336   2.539
52860SOL    HW160354   7.778   0.352   2.523
52860SOL    HW260355   7.882   0.242   2.524
52861SOL     OW60356  11.073   7.859  13.093
52861SOL    HW160357  11.102   7.933  13.146
52861SOL    HW260358  11.113   7.782  13.135
52862SOL     OW60359  12.053   4.353   2.619
52862SOL    HW160360  12.046   4.413   2.693
52862SOL    HW260361  12.100   4.277   2.653
52863SOL     OW60362  13.250  10.695   6.006
52863SOL    HW160363  13.201  10.764   5.962
52863SOL    HW260364  13.183  10.637   6.042
52864SOL     OW60365   3.553  10.705   6.947
52864SOL    HW160366   3.630  10.654   6.972
52864SOL    HW260367   3.508  10.721   7.030
52865SOL     OW60368  14.348   3.655  11.828
52865SOL    HW160369  14.430   3.694  11.858
52865SOL    HW260370  14.347   3.672  11.734
52866SOL     OW60371  11.255   4.560   4.665
52866SOL    HW160372  11.284   4.560   4.574
52866SOL    HW260373  11.187   4.492   4.668
52867SOL     OW60374   3.631  14.805   5.868
52867SOL    HW160375   3.585   0.004   5.842
52867SOL    HW260376   3.676  14.776   5.789
52868SOL     OW60377   0.546   6.965   2.669
52868SOL    HW160378   0.544   6.917   2.586
52868SOL    HW260379   0.506   6.906   2.733
52869SOL     OW60380   7.045   6.568  10.080
52869SOL    HW160381   7.119   6.514  10.050
52869SOL    HW260382   7.072   6.658  10.061
52870SOL     OW60383   1.751   6.555   8.974
52870SOL    HW160384   1.700   6.476   8.994
52870SOL    HW260385   1.838   6.521   8.953
52871SOL     OW60386   2.304   3.580  13.979
52871SOL    HW160387   2.296   3.490  14.011
52871SOL    HW260388   2.319   3.571  13.885
52872SOL     OW60389   0.695   7.671   7.772
52872SOL    HW160390   0.701   7.640   7.682
52872SOL    HW260391   0.749   7.750   7.774
52873SOL     OW60392   5.100  10.011   9.424
52873SOL    HW160393   5.105  10.043   9.515
52873SOL    HW260394   5.191   9.989   9.402
52874SOL     OW60395   6.845   7.103   8.205
52874SOL    HW160396   6.867   7.109   8.112
52874SOL    HW260397   6.930   7.107   8.249
52875SOL     OW60398  12.542  12.423  14.285
52875SOL    HW160399  12.613  12.482  14.258
52875SOL    HW260400  12.587  12.345  14.316
52876SOL     OW60401   3.863   0.735   3.041
52876SOL    HW160402   3.858   0.823   3.079
52876SOL    HW260403   3.806   0.738   2.964
52877SOL     OW60404   2.350  10.044   2.190
52877SOL    HW160405   2.273   9.990   2.171
52877SOL    HW260406   2.383  10.070   2.104
52878SOL     OW60407  13.892   5.306  13.111
52878SOL    HW160408  13.955   5.239  13.138
52878SOL    HW260409  13.837   5.263  13.047
52879SOL     OW60410   4.749   6.179   3.951
52879SOL    HW160411   4.734   6.086   3.966
52879SOL    HW260412   4.743   6.189   3.856
52880SOL     OW60413  13.066  11.153   1.363
52880SOL    HW160414  13.129  11.085   1.388
52880SOL    HW260415  13.013  11.166   1.442
52881SOL     OW60416   5.575   7.461  13.406
52881SOL    HW160417   5.528   7.410  13.472
52881SOL    HW260418   5.659   7.415  13.396
52882SOL     OW60419   5.348   6.377  13.382
52882SOL    HW160420   5.254   6.375  13.399
52882SOL    HW260421   5.387   6.370  13.469
52883SOL     OW60422   0.373   5.448   5.909
52883SOL    HW160423   0.302   5.508   5.931
52883SOL    HW260424   0.373   5.384   5.980
52884SOL     OW60425  10.012   3.013  13.945
52884SOL    HW160426  10.012   3.098  13.988
52884SOL    HW260427  10.097   2.975  13.967
52885SOL     OW60428   1.383   0.041   1.654
52885SOL    HW160429   1.454   0.102   1.635
52885SOL    HW260430   1.304   0.088   1.626
52886SOL     OW60431  10.927  13.513   5.621
52886SOL    HW160432  10.936  13.510   5.716
52886SOL    HW260433  10.957  13.427   5.591
52887SOL     OW60434   8.292   9.374  12.717
52887SOL    HW160435   8.383   9.401  12.724
52887SOL    HW260436   8.292   9.280  12.733
52888SOL     OW60437   1.053   9.571  14.822
52888SOL    HW160438   0.967   9.531  14.813
52888SOL    HW260439   1.057   9.599   0.032
52889SOL     OW60440  11.545  14.218   6.492
52889SOL    HW160441  11.467  14.166   6.476
52889SOL    HW260442  11.552  14.275   6.416
52890SOL     OW60443   4.160   5.871   0.194
52890SOL    HW160444   4.230   5.814   0.226
52890SOL    HW260445   4.147   5.845   0.103
52891SOL     OW60446   7.568   6.469  12.566
52891SOL    HW160447   7.624   6.396  12.589
52891SOL    HW260448   7.520   6.439  12.489
52892SOL     OW60449   9.619  13.467   1.207
52892SOL    HW160450   9.657  13.534   1.149
52892SOL    HW260451   9.532  13.450   1.171
52893SOL     OW60452   2.631  11.231   6.620
52893SOL    HW160453   2.635  11.306   6.679
52893SOL    HW260454   2.546  11.238   6.577
52894SOL     OW60455  11.779   9.123   6.387
52894SOL    HW160456  11.686   9.101   6.388
52894SOL    HW260457  11.792   9.170   6.304
52895SOL     OW60458   9.368   0.067   4.069
52895SOL    HW160459   9.399  14.870   4.023
52895SOL    HW260460   9.304   0.034   4.132
52896SOL     OW60461  14.013   3.320  13.499
52896SOL    HW160462  13.984   3.411  13.510
52896SOL    HW260463  14.024   3.287  13.588
52897SOL     OW60464   5.786   1.184   9.880
52897SOL    HW160465   5.880   1.186   9.897
52897SOL    HW260466   5.756   1.273   9.899
52898SOL     OW60467   9.452   0.638   9.011
52898SOL    HW160468   9.476   0.574   8.945
52898SOL    HW260469   9.357   0.647   9.003
52899SOL     OW60470   6.733   3.167  14.227
52899SOL    HW160471   6.793   3.152  14.154
52899SOL    HW260472   6.698   3.080  14.248
52900SOL     OW60473   3.538   5.054   5.608
52900SOL    HW160474   3.527   5.043   5.702
52900SOL    HW260475   3.538   4.965   5.573
52901SOL     OW60476   4.023  13.842   7.753
52901SOL    HW160477   4.117  13.836   7.771
52901SOL    HW260478   4.008  13.935   7.734
52902SOL     OW60479   0.156   8.774   3.417
52902SOL    HW160480   0.098   8.781   3.341
52902SOL    HW260481   0.124   8.840   3.478
52903SOL     OW60482   4.366   0.334   1.521
52903SOL    HW160483   4.431   0.264   1.522
52903SOL    HW260484   4.297   0.303   1.463
52904SOL     OW60485   4.960   5.932   3.430
52904SOL    HW160486   4.916   5.974   3.356
52904SOL    HW260487   4.897   5.867   3.461
52905SOL     OW60488   7.643  10.547  13.393
52905SOL    HW160489   7.716  10.485  13.397
52905SOL    HW260490   7.681  10.625  13.352
52906SOL     OW60491   1.942   7.498  10.024
52906SOL    HW160492   1.863   7.486  10.076
52906SOL    HW260493   1.957   7.412   9.984
52907SOL     OW60494  13.377   4.387  12.752
52907SOL    HW160495  13.334   4.470  12.771
52907SOL    HW260496  13.450   4.384  12.814
52908SOL     OW60497   3.852   8.300   7.835
52908SOL    HW160498   3.921   8.325   7.896
52908SOL    HW260499   3.816   8.219   7.871
52909SOL     OW60500  11.033  10.385   7.763
52909SOL    HW160501  11.099  10.316   7.771
52909SOL    HW260502  10.978  10.375   7.841
52910SOL     OW60503   7.227  13.578  14.776
52910SOL    HW160504   7.279  13.539  14.846
52910SOL    HW260505   7.195  13.504  14.725
52911SOL     OW60506   5.325   4.478   5.035
52911SOL    HW160507   5.351   4.556   4.986
52911SOL    HW260508   5.284   4.512   5.114
52912SOL     OW60509   4.038   2.774   6.878
52912SOL    HW160510   3.994   2.856   6.899
52912SOL    HW260511   3.975   2.706   6.904
52913SOL     OW60512  11.947   7.606   1.808
52913SOL    HW160513  11.961   7.541   1.877
52913SOL    HW260514  11.868   7.576   1.762
52914SOL     OW60515  13.217  12.403  12.216
52914SOL    HW160516  13.227  12.325  12.162
52914SOL    HW260517  13.298  12.408  12.266
52915SOL     OW60518  13.928   3.650  11.797
52915SOL    HW160519  13.923   3.684  11.887
52915SOL    HW260520  13.938   3.555  11.808
52916SOL     OW60521  12.910  14.814  12.381
52916SOL    HW160522  12.954  14.842  12.461
52916SOL    HW260523  12.960  14.738  12.351
52917SOL     OW60524   5.597   8.645  13.237
52917SOL    HW160525   5.550   8.636  13.320
52917SOL    HW260526   5.632   8.734  13.239
52918SOL     OW60527   9.225  10.693   3.259
52918SOL    HW160528   9.152  10.655   3.211
52918SOL    HW260529   9.208  10.671   3.350
52919SOL     OW60530   0.766   1.653   9.073
52919SOL    HW160531   0.757   1.597   9.150
52919SOL    HW260532   0.757   1.594   8.999
52920SOL     OW60533   7.186   9.219   3.991
52920SOL    HW160534   7.092   9.228   4.010
52920SOL    HW260535   7.189   9.187   3.901
52921SOL     OW60536   8.919  13.719  14.805
52921SOL    HW160537   8.879  13.702   0.009
52921SOL    HW260538   9.006  13.680  14.811
52922SOL     OW60539  13.625  13.249   3.477
52922SOL    HW160540  13.606  13.341   3.461
52922SOL    HW260541  13.655  13.246   3.568
52923SOL     OW60542   1.064   6.475   9.692
52923SOL    HW160543   1.028   6.404   9.745
52923SOL    HW260544   1.041   6.554   9.741
52924SOL     OW60545   7.341   3.292  11.177
52924SOL    HW160546   7.370   3.227  11.113
52924SOL    HW260547   7.414   3.354  11.183
52925SOL     OW60548  10.170   1.538   5.383
52925SOL    HW160549  10.225   1.561   5.308
52925SOL    HW260550  10.099   1.487   5.345
52926SOL     OW60551   8.358  12.214  12.672
52926SOL    HW160552   8.316  12.134  12.703
52926SOL    HW260553   8.315  12.232  12.588
52927SOL     OW60554  14.308   1.963   8.434
52927SOL    HW160555  14.378   2.014   8.475
52927SOL    HW260556  14.243   1.950   8.503
52928SOL     OW60557   4.123   5.923  10.574
52928SOL    HW160558   4.132   5.970  10.492
52928SOL    HW260559   4.145   5.988  10.641
52929SOL     OW60560   0.235   7.692   8.538
52929SOL    HW160561   0.258   7.680   8.446
52929SOL    HW260562   0.320   7.698   8.583
52930SOL     OW60563  13.175  11.829   0.775
52930SOL    HW160564  13.217  11.914   0.764
52930SOL    HW260565  13.232  11.781   0.835
52931SOL     OW60566   0.827   8.295  12.486
52931SOL    HW160567   0.900   8.357  12.483
52931SOL    HW260568   0.825   8.257  12.398
52932SOL     OW60569   0.700   9.509   5.595
52932SOL    HW160570   0.682   9.476   5.683
52932SOL    HW260571   0.761   9.446   5.558
52933SOL     OW60572   0.187   3.054   1.877
52933SOL    HW160573   0.190   2.975   1.823
52933SOL    HW260574   0.099   3.054   1.915
52934SOL     OW60575   3.115   8.031   6.049
52934SOL    HW160576   3.120   8.113   6.099
52934SOL    HW260577   3.132   7.963   6.114
52935SOL     OW60578   3.988  10.626  11.527
52935SOL    HW160579   4.077  10.629  11.492
52935SOL    HW260580   3.954  10.715  11.515
52936SOL     OW60581   2.436   6.141   9.934
52936SOL    HW160582   2.528   6.126   9.914
52936SOL    HW260583   2.398   6.054   9.943
52937SOL     OW60584   1.717  10.055   7.510
52937SOL    HW160585   1.737   9.971   7.469
52937SOL    HW260586   1.658  10.098   7.448
52938SOL     OW60587   4.501   7.752  13.690
52938SOL    HW160588   4.535   7.697  13.760
52938SOL    HW260589   4.562   7.740  13.617
52939SOL     OW60590   9.994   5.798  14.148
52939SOL    HW160591  10.017   5.708  14.171
52939SOL    HW260592  10.078   5.839  14.128
52940SOL     OW60593   2.784   0.268   2.704
52940SOL    HW160594   2.864   0.295   2.748
52940SOL    HW260595   2.723   0.341   2.717
52941SOL     OW60596   1.526   8.241   4.446
52941SOL    HW160597   1.477   8.191   4.512
52941SOL    HW260598   1.473   8.233   4.367
52942SOL     OW60599  12.829  12.695  14.825
52942SOL    HW160600  12.801  12.722  14.737
52942SOL    HW260601  12.754  12.714  14.881
52943SOL     OW60602   3.464   4.954   2.139
52943SOL    HW160603   3.560   4.961   2.138
52943SOL    HW260604   3.446   4.863   2.114
52944SOL     OW60605  11.653   1.468  12.373
52944SOL    HW160606  11.696   1.387  12.402
52944SOL    HW260607  11.641   1.457  12.279
52945SOL     OW60608   0.165  14.152   3.848
52945SOL    HW160609   0.170  14.061   3.821
52945SOL    HW260610   0.218  14.199   3.783
52946SOL     OW60611   6.149  14.392   1.553
52946SOL    HW160612   6.185  14.429   1.473
52946SOL    HW260613   6.224  14.385   1.612
52947SOL     OW60614   0.820   0.919   7.935
52947SOL    HW160615   0.795   0.910   7.843
52947SOL    HW260616   0.842   1.011   7.946
52948SOL     OW60617  14.288  12.778   4.093
52948SOL    HW160618  14.330  12.805   4.175
52948SOL    HW260619  14.351  12.719   4.052
52949SOL     OW60620  14.405  12.294   2.127
52949SOL    HW160621  14.408  12.279   2.032
52949SOL    HW260622  14.393  12.389   2.135
52950SOL     OW60623   3.078   0.883   1.897
52950SOL    HW160624   3.053   0.934   1.974
52950SOL    HW260625   2.994   0.862   1.855
52951SOL     OW60626  14.442  11.355   8.611
52951SOL    HW160627  14.390  11.332   8.688
52951SOL    HW260628  14.491  11.276   8.590
52952SOL     OW60629   0.023   0.382   2.310
52952SOL    HW160630   0.023   0.392   2.405
52952SOL    HW260631  14.812   0.370   2.287
52953SOL     OW60632   5.440   5.487   4.099
52953SOL    HW160633   5.453   5.549   4.027
52953SOL    HW260634   5.450   5.539   4.178
52954SOL     OW60635   4.395   8.995   3.281
52954SOL    HW160636   4.350   8.911   3.284
52954SOL    HW260637   4.433   9.005   3.369
52955SOL     OW60638  10.603   0.469  10.711
52955SOL    HW160639  10.644   0.526  10.646
52955SOL    HW260640  10.645   0.383  10.697
52956SOL     OW60641   2.957  12.238   0.096
52956SOL    HW160642   2.954  12.331   0.115
52956SOL    HW260643   2.960  12.233   0.001
52957SOL     OW60644   2.037  12.750   6.919
52957SOL    HW160645   1.958  12.754   6.864
52957SOL    HW260646   2.005  12.728   7.006
52958SOL     OW60647  13.566  11.426   8.297
52958SOL    HW160648  13.494  11.454   8.241
52958SOL    HW260649  13.541  11.339   8.326
52959SOL     OW60650  11.373   6.429   8.334
52959SOL    HW160651  11.326   6.373   8.396
52959SOL    HW260652  11.333   6.411   8.249
52960SOL     OW60653   8.943   8.672   3.111
52960SOL    HW160654   8.947   8.578   3.095
52960SOL    HW260655   8.856   8.697   3.079
52961SOL     OW60656  10.662  10.183   6.997
52961SOL    HW160657  10.666  10.278   7.003
52961SOL    HW260658  10.569  10.162   7.009
52962SOL     OW60659  14.740   9.141   5.866
52962SOL    HW160660  14.823   9.167   5.826
52962SOL    HW260661  14.737   9.046   5.854
52963SOL     OW60662   2.112   3.364  14.789
52963SOL    HW160663   2.053   3.290  14.776
52963SOL    HW260664   2.102   3.418  14.711
52964SOL     OW60665  12.913  13.963   8.256
52964SOL    HW160666  12.981  13.927   8.313
52964SOL    HW260667  12.962  13.998   8.181
52965SOL     OW60668   6.057  13.697   0.394
52965SOL    HW160669   6.145  13.733   0.399
52965SOL    HW260670   6.010  13.756   0.335
52966SOL     OW60671  12.527   5.314   3.461
52966SOL    HW160672  12.529   5.406   3.436
52966SOL    HW260673  12.443   5.282   3.429
52967SOL     OW60674  13.214   6.152   5.947
52967SOL    HW160675  13.144   6.195   5.997
52967SOL    HW260676  13.188   6.060   5.943
52968SOL     OW60677   5.395   7.557   3.642
52968SOL    HW160678   5.393   7.653   3.642
52968SOL    HW260679   5.486   7.535   3.628
52969SOL     OW60680  11.732   2.136   7.328
52969SOL    HW160681  11.663   2.079   7.294
52969SOL    HW260682  11.687   2.219   7.346
52970SOL     OW60683   7.007  10.774  13.886
52970SOL    HW160684   7.007  10.817  13.800
52970SOL    HW260685   7.044  10.688  13.870
52971SOL     OW60686   5.963  14.379   3.729
52971SOL    HW160687   5.909  14.313   3.686
52971SOL    HW260688   5.908  14.457   3.730
52972SOL     OW60689   6.477   7.870   5.117
52972SOL    HW160690   6.392   7.873   5.073
52972SOL    HW260691   6.539   7.904   5.052
52973SOL     OW60692   0.670  11.739   7.979
52973SOL    HW160693   0.607  11.781   7.920
52973SOL    HW260694   0.674  11.798   8.055
52974SOL     OW60695  10.166   9.315  12.773
52974SOL    HW160696  10.126   9.346  12.692
52974SOL    HW260697  10.220   9.388  12.802
52975SOL     OW60698   7.347  14.857   5.585
52975SOL    HW160699   7.436   0.011   5.588
52975SOL    HW260700   7.345  14.805   5.504
52976SOL     OW60701   0.462   3.905   4.556
52976SOL    HW160702   0.443   3.899   4.650
52976SOL    HW260703   0.457   3.815   4.525
52977SOL     OW60704  11.901   3.275   1.569
52977SOL    HW160705  11.880   3.215   1.640
52977SOL    HW260706  11.816   3.310   1.542
52978SOL     OW60707   6.519   7.073   4.918
52978SOL    HW160708   6.541   6.981   4.930
52978SOL    HW260709   6.593   7.110   4.869
52979SOL     OW60710   2.870   5.291   8.642
52979SOL    HW160711   2.874   5.266   8.550
52979SOL    HW260712   2.776   5.300   8.661
52980SOL     OW60713   0.508   8.965   3.337
52980SOL    HW160714   0.442   9.031   3.315
52980SOL    HW260715   0.562   8.957   3.257
52981SOL     OW60716   6.865   8.181   3.007
52981SOL    HW160717   6.837   8.149   2.921
52981SOL    HW260718   6.956   8.152   3.015
52982SOL     OW60719   1.012   0.788   7.585
52982SOL    HW160720   0.962   0.793   7.504
52982SOL    HW260721   0.999   0.874   7.626
52983SOL     OW60722  12.836   0.005   8.372
52983SOL    HW160723  12.757   0.008   8.319
52983SOL    HW260724  12.840  14.796   8.404
52984SOL     OW60725   1.869   9.440   7.690
52984SOL    HW160726   1.886   9.445   7.596
52984SOL    HW260727   1.906   9.522   7.725
52985SOL     OW60728  14.353   5.430  11.277
52985SOL    HW160729  14.284   5.370  11.304
52985SOL    HW260730  14.368   5.485  11.354
52986SOL     OW60731  12.411   7.390  11.444
52986SOL    HW160732  12.429   7.409  11.536
52986SOL    HW260733  12.340   7.450  11.420
52987SOL     OW60734   7.754   1.616   9.249
52987SOL    HW160735   7.791   1.567   9.323
52987SOL    HW260736   7.829   1.633   9.192
52988SOL     OW60737  14.657   9.571   8.827
52988SOL    HW160738  14.706   9.614   8.757
52988SOL    HW260739  14.645   9.481   8.796
52989SOL     OW60740   5.633  10.700   8.504
52989SOL    HW160741   5.571  10.717   8.575
52989SOL    HW260742   5.585  10.642   8.444
52990SOL     OW60743  11.187   5.343   5.220
52990SOL    HW160744  11.139   5.424   5.239
52990SOL    HW260745  11.212   5.310   5.306
52991SOL     OW60746  11.218   2.992  12.012
52991SOL    HW160747  11.270   2.996  11.931
52991SOL    HW260748  11.128   3.005  11.983
52992SOL     OW60749  10.155  12.333  10.282
52992SOL    HW160750  10.242  12.345  10.244
52992SOL    HW260751  10.159  12.247  10.325
52993SOL     OW60752   4.755   9.541   1.611
52993SOL    HW160753   4.787   9.490   1.536
52993SOL    HW260754   4.666   9.566   1.587
52994SOL     OW60755   5.800   7.061   1.335
52994SOL    HW160756   5.711   7.088   1.356
52994SOL    HW260757   5.799   6.966   1.348
52995SOL     OW60758  13.207   2.876  13.192
52995SOL    HW160759  13.203   2.959  13.239
52995SOL    HW260760  13.121   2.868  13.149
52996SOL     OW60761   3.798   2.699  12.645
52996SOL    HW160762   3.715   2.746  12.643
52996SOL    HW260763   3.775   2.609  12.668
52997SOL     OW60764   6.915   0.140   8.018
52997SOL    HW160765   6.872   0.057   7.995
52997SOL    HW260766   6.903   0.195   7.941
52998SOL     OW60767  14.608   2.567   9.031
52998SOL    HW160768  14.523   2.591   8.995
52998SOL    HW260769  14.618   2.474   9.012
52999SOL     OW60770   8.423   3.255  10.799
52999SOL    HW160771   8.402   3.345  10.775
52999SOL    HW260772   8.342   3.206  10.784
53000SOL     OW60773  14.467   4.452  10.663
53000SOL    HW160774  14.502   4.541  10.670
53000SOL    HW260775  14.495   4.422  10.576
53001SOL     OW60776   5.179   3.404   7.079
53001SOL    HW160777   5.174   3.340   7.008
53001SOL    HW260778   5.171   3.489   7.035
53002SOL     OW60779  11.762   5.480  11.290
53002SOL    HW160780  11.813   5.499  11.369
53002SOL    HW260781  11.754   5.385  11.289
53003SOL     OW60782   4.861  13.457  10.189
53003SOL    HW160783   4.927  13.420  10.248
53003SOL    HW260784   4.860  13.397  10.114
53004SOL     OW60785  14.733   1.282   3.901
53004SOL    HW160786  14.810   1.285   3.844
53004SOL    HW260787  14.660   1.263   3.842
53005SOL     OW60788   0.812   4.099   2.100
53005SOL    HW160789   0.811   4.161   2.173
53005SOL    HW260790   0.744   4.131   2.040
53006SOL     OW60791   4.517   4.965   3.853
53006SOL    HW160792   4.589   5.004   3.804
53006SOL    HW260793   4.558   4.931   3.933
53007SOL     OW60794   7.538   6.235   6.193
53007SOL    HW160795   7.510   6.290   6.266
53007SOL    HW260796   7.459   6.190   6.164
53008SOL     OW60797  13.243   8.890   5.334
53008SOL    HW160798  13.190   8.812   5.315
53008SOL    HW260799  13.256   8.887   5.429
53009SOL     OW60800   2.272  11.449   5.343
53009SOL    HW160801   2.311  11.462   5.256
53009SOL    HW260802   2.313  11.369   5.376
53010SOL     OW60803   7.317   9.501  14.563
53010SOL    HW160804   7.393   9.534  14.611
53010SOL    HW260805   7.291   9.422  14.610
53011SOL     OW60806   5.993  11.311  10.536
53011SOL    HW160807   6.022  11.229  10.496
53011SOL    HW260808   5.932  11.348  10.473
53012SOL     OW60809  13.714   7.394  14.604
53012SOL    HW160810  13.669   7.469  14.565
53012SOL    HW260811  13.708   7.326  14.538
53013SOL     OW60812  12.605   4.496  13.986
53013SOL    HW160813  12.551   4.547  14.047
53013SOL    HW260814  12.683   4.550  13.971
53014SOL     OW60815  10.392   0.772   3.037
53014SOL    HW160816  10.331   0.842   3.014
53014SOL    HW260817  10.354   0.732   3.115
53015SOL     OW60818   5.569   7.015   4.036
53015SOL    HW160819   5.544   7.065   4.113
53015SOL    HW260820   5.500   7.034   3.972
53016SOL     OW60821   1.217  11.805  13.174
53016SOL    HW160822   1.138  11.858  13.177
53016SOL    HW260823   1.190  11.719  13.207
53017SOL     OW60824   6.492  14.314   4.316
53017SOL    HW160825   6.431  14.379   4.282
53017SOL    HW260826   6.500  14.249   4.246
53018SOL     OW60827   7.902   2.208   7.266
53018SOL    HW160828   7.994   2.183   7.267
53018SOL    HW260829   7.859   2.139   7.215
53019SOL     OW60830   4.897   6.741   6.419
53019SOL    HW160831   4.959   6.762   6.349
53019SOL    HW260832   4.934   6.782   6.497
53020SOL     OW60833   9.227   6.409   4.310
53020SOL    HW160834   9.259   6.498   4.324
53020SOL    HW260835   9.203   6.378   4.397
53021SOL     OW60836   5.352   2.775   0.063
53021SOL    HW160837   5.408   2.842   0.023
53021SOL    HW260838   5.263   2.804   0.046
53022SOL     OW60839   7.112   2.994  14.146
53022SOL    HW160840   7.158   3.004  14.062
53022SOL    HW260841   7.157   2.921  14.189
53023SOL     OW60842   0.239   8.061  12.400
53023SOL    HW160843   0.231   8.021  12.313
53023SOL    HW260844   0.157   8.038  12.444
53024SOL     OW60845  13.997   6.689   9.917
53024SOL    HW160846  14.063   6.640   9.966
53024SOL    HW260847  14.006   6.658   9.827
53025SOL     OW60848   6.033  11.954  14.674
53025SOL    HW160849   6.112  11.920  14.634
53025SOL    HW260850   5.962  11.925  14.616
53026SOL     OW60851   9.340  11.747   2.578
53026SOL    HW160852   9.387  11.818   2.621
53026SOL    HW260853   9.406  11.704   2.524
53027SOL     OW60854   3.913   2.109  11.993
53027SOL    HW160855   3.948   2.019  11.994
53027SOL    HW260856   3.989   2.164  11.975
53028SOL     OW60857  14.380   0.871  10.864
53028SOL    HW160858  14.288   0.887  10.887
53028SOL    HW260859  14.428   0.882  10.946
53029SOL     OW60860   3.854  14.710  14.566
53029SOL    HW160861   3.921  14.644  14.544
53029SOL    HW260862   3.771  14.667  14.544
53030SOL     OW60863   3.487   8.931   4.911
53030SOL    HW160864   3.449   8.876   4.844
53030SOL    HW260865   3.443   9.016   4.901
53031SOL     OW60866   0.566   1.063   1.151
53031SOL    HW160867   0.566   0.969   1.134
53031SOL    HW260868   0.636   1.098   1.096
53032SOL     OW60869   8.356  14.663   0.521
53032SOL    HW160870   8.346  14.575   0.559
53032SOL    HW260871   8.400  14.714   0.589
53033SOL     OW60872   8.606   6.404   0.674
53033SOL    HW160873   8.596   6.362   0.589
53033SOL    HW260874   8.518   6.432   0.698
53034SOL     OW60875   2.653   2.252  14.650
53034SOL    HW160876   2.661   2.335  14.603
53034SOL    HW260877   2.625   2.189  14.584
53035SOL     OW60878   3.852  10.930   5.922
53035SOL    HW160879   3.779  10.901   5.978
53035SOL    HW260880   3.897  10.997   5.973
53036SOL     OW60881  14.210  14.624  11.882
53036SOL    HW160882  14.180  14.544  11.925
53036SOL    HW260883  14.191  14.611  11.789
53037SOL     OW60884   1.450   7.689   6.403
53037SOL    HW160885   1.378   7.712   6.460
53037SOL    HW260886   1.500   7.770   6.394
53038SOL     OW60887  12.542   5.064   0.143
53038SOL    HW160888  12.567   4.984   0.096
53038SOL    HW260889  12.540   5.038   0.235
53039SOL     OW60890   0.125   2.416  10.369
53039SOL    HW160891   0.123   2.444  10.277
53039SOL    HW260892   0.145   2.495  10.418
53040SOL     OW60893   1.020  11.667   6.846
53040SOL    HW160894   1.013  11.715   6.928
53040SOL    HW260895   1.095  11.608   6.859
53041SOL     OW60896  13.016   5.120   7.918
53041SOL    HW160897  12.952   5.051   7.902
53041SOL    HW260898  13.100   5.074   7.922
53042SOL     OW60899   9.430   1.928  12.517
53042SOL    HW160900   9.497   1.981  12.560
53042SOL    HW260901   9.392   1.875  12.587
53043SOL     OW60902   3.562  10.371   8.453
53043SOL    HW160903   3.652  10.362   8.483
53043SOL    HW260904   3.522  10.286   8.471
53044SOL     OW60905   4.746  11.877   6.430
53044SOL    HW160906   4.669  11.833   6.394
53044SOL    HW260907   4.726  11.888   6.523
53045SOL     OW60908  12.199   6.205  10.994
53045SOL    HW160909  12.143   6.133  10.964
53045SOL    HW260910  12.186   6.274  10.929
53046SOL     OW60911   3.338  14.510   1.602
53046SOL    HW160912   3.401  14.548   1.662
53046SOL    HW260913   3.316  14.425   1.640
53047SOL     OW60914  13.342   7.610  10.600
53047SOL    HW160915  13.429   7.643  10.623
53047SOL    HW260916  13.320   7.548  10.669
53048SOL     OW60917   6.169  14.777   7.400
53048SOL    HW160918   6.229  14.842   7.435
53048SOL    HW260919   6.223  14.698   7.387
53049SOL     OW60920   5.581   4.860   7.283
53049SOL    HW160921   5.588   4.833   7.191
53049SOL    HW260922   5.623   4.789   7.332
53050SOL     OW60923   2.295   7.855   8.163
53050SOL    HW160924   2.247   7.918   8.108
53050SOL    HW260925   2.336   7.795   8.101
53051SOL     OW60926   4.501   3.804  13.455
53051SOL    HW160927   4.540   3.729  13.410
53051SOL    HW260928   4.407   3.791  13.445
53052SOL     OW60929   4.003   0.261  14.740
53052SOL    HW160930   3.984   0.186  14.796
53052SOL    HW260931   3.919   0.285  14.702
53053SOL     OW60932  14.337  12.990  11.596
53053SOL    HW160933  14.313  13.082  11.581
53053SOL    HW260934  14.403  12.993  11.665
53054SOL     OW60935  12.614  14.773   6.660
53054SOL    HW160936  12.689  14.831   6.648
53054SOL    HW260937  12.555  14.822   6.716
53055SOL     OW60938   9.570  14.195  12.822
53055SOL    HW160939   9.660  14.186  12.791
53055SOL    HW260940   9.519  14.216  12.743
53056SOL     OW60941   9.355   0.957  14.684
53056SOL    HW160942   9.425   0.959  14.618
53056SOL    HW260943   9.341   0.864  14.702
53057SOL     OW60944   4.681  12.446  10.416
53057SOL    HW160945   4.772  12.468  10.396
53057SOL    HW260946   4.658  12.379  10.351
53058SOL     OW60947   5.784  13.259   9.766
53058SOL    HW160948   5.795  13.165   9.752
53058SOL    HW260949   5.872  13.295   9.755
53059SOL     OW60950   1.205   1.115   5.677
53059SOL    HW160951   1.266   1.054   5.636
53059SOL    HW260952   1.153   1.061   5.737
53060SOL     OW60953   8.506  11.808   1.299
53060SOL    HW160954   8.515  11.777   1.209
53060SOL    HW260955   8.566  11.753   1.350
53061SOL     OW60956   9.793  11.325   2.278
53061SOL    HW160957   9.792  11.417   2.254
53061SOL    HW260958   9.882  11.296   2.257
53062SOL     OW60959   3.400   7.676   5.030
53062SOL    HW160960   3.320   7.707   5.074
53062SOL    HW260961   3.378   7.587   5.001
53063SOL     OW60962   1.020   4.058   6.698
53063SOL    HW160963   1.069   4.105   6.631
53063SOL    HW260964   0.929   4.087   6.686
53064SOL     OW60965   6.809   8.469  11.990
53064SOL    HW160966   6.773   8.471  11.902
53064SOL    HW260967   6.842   8.380  12.001
53065SOL     OW60968   5.422  11.731  12.730
53065SOL    HW160969   5.441  11.696  12.817
53065SOL    HW260970   5.445  11.659  12.670
53066SOL     OW60971  10.666   1.921  11.814
53066SOL    HW160972  10.572   1.936  11.826
53066SOL    HW260973  10.675   1.898  11.721
53067SOL     OW60974   5.275  11.878   6.204
53067SOL    HW160975   5.255  11.941   6.135
53067SOL    HW260976   5.353  11.912   6.247
53068SOL     OW60977   7.193   7.156   7.583
53068SOL    HW160978   7.151   7.091   7.526
53068SOL    HW260979   7.176   7.240   7.540
53069SOL     OW60980   0.860   6.820   3.477
53069SOL    HW160981   0.861   6.732   3.515
53069SOL    HW260982   0.768   6.836   3.457
53070SOL     OW60983   7.991   6.738   9.074
53070SOL    HW160984   8.028   6.817   9.112
53070SOL    HW260985   7.907   6.767   9.036
53071SOL     OW60986  11.989  14.518  10.545
53071SOL    HW160987  11.975  14.605  10.582
53071SOL    HW260988  12.065  14.529  10.488
53072SOL     OW60989  13.214   8.183   7.322
53072SOL    HW160990  13.295   8.172   7.272
53072SOL    HW260991  13.196   8.096   7.358
53073SOL     OW60992  10.504   9.271  11.433
53073SOL    HW160993  10.542   9.334  11.494
53073SOL    HW260994  10.470   9.201  11.489
53074SOL     OW60995   0.857  10.177  11.993
53074SOL    HW160996   0.942  10.188  11.950
53074SOL    HW260997   0.802  10.247  11.956
53075SOL     OW60998   5.306  11.011  10.895
53075SOL    HW160999   5.367  11.084  10.890
53075SOL    HW261000   5.285  11.004  10.989
53076SOL     OW61001   2.734   8.256   1.444
53076SOL    HW161002   2.807   8.312   1.418
53076SOL    HW261003   2.738   8.256   1.540
53077SOL     OW61004   9.156   4.814  13.282
53077SOL    HW161005   9.242   4.855  13.293
53077SOL    HW261006   9.098   4.886  13.258
53078SOL     OW61007   0.301   3.733   6.689
53078SOL    HW161008   0.315   3.705   6.780
53078SOL    HW261009   0.327   3.658   6.637
53079SOL     OW61010  12.394   0.258   5.699
53079SOL    HW161011  12.395   0.176   5.649
53079SOL    HW261012  12.464   0.310   5.660
53080SOL     OW61013  11.214   4.361  11.228
53080SOL    HW161014  11.138   4.400  11.271
53080SOL    HW261015  11.178   4.290  11.175
53081SOL     OW61016   8.387   3.524  10.710
53081SOL    HW161017   8.295   3.540  10.692
53081SOL    HW261018   8.431   3.541  10.626
53082SOL     OW61019   0.836  14.209  10.669
53082SOL    HW161020   0.849  14.271  10.741
53082SOL    HW261021   0.863  14.257  10.591
53083SOL     OW61022   5.032   1.474   6.057
53083SOL    HW161023   4.992   1.413   5.995
53083SOL    HW261024   4.976   1.469   6.135
53084SOL     OW61025  11.603  10.503   5.450
53084SOL    HW161026  11.530  10.563   5.437
53084SOL    HW261027  11.571  10.440   5.515
53085SOL     OW61028   3.317   9.875  13.115
53085SOL    HW161029   3.297   9.968  13.103
53085SOL    HW261030   3.235   9.830  13.097
53086SOL     OW61031   0.064  13.531   1.834
53086SOL    HW161032   0.045  13.624   1.847
53086SOL    HW261033  14.863  13.487   1.855
53087SOL     OW61034   8.178   5.476  12.070
53087SOL    HW161035   8.111   5.481  12.003
53087SOL    HW261036   8.246   5.420  12.032
53088SOL     OW61037   3.175   8.073   5.792
53088SOL    HW161038   3.151   8.036   5.877
53088SOL    HW261039   3.174   8.167   5.806
53089SOL     OW61040  12.404   3.034   3.450
53089SOL    HW161041  12.366   3.121   3.462
53089SOL    HW261042  12.346   2.976   3.499
53090SOL     OW61043  10.290   0.621  12.397
53090SOL    HW161044  10.229   0.691  12.422
53090SOL    HW261045  10.367   0.635  12.453
53091SOL     OW61046   0.973   1.436   4.336
53091SOL    HW161047   0.883   1.455   4.310
53091SOL    HW261048   0.997   1.359   4.285
53092SOL     OW61049   5.397  11.090   6.982
53092SOL    HW161050   5.419  11.147   7.056
53092SOL    HW261051   5.364  11.149   6.915
53093SOL     OW61052  14.244   3.381  12.684
53093SOL    HW161053  14.320   3.338  12.725
53093SOL    HW261054  14.252   3.473  12.708
53094SOL     OW61055   5.731   1.152   7.895
53094SOL    HW161056   5.669   1.085   7.865
53094SOL    HW261057   5.711   1.229   7.842
53095SOL     OW61058  10.414   1.946  11.945
53095SOL    HW161059  10.432   1.883  12.015
53095SOL    HW261060  10.339   1.908  11.898
53096SOL     OW61061   3.237   4.467   5.837
53096SOL    HW161062   3.197   4.523   5.903
53096SOL    HW261063   3.167   4.407   5.811
53097SOL     OW61064   6.913   2.386   6.317
53097SOL    HW161065   6.841   2.436   6.280
53097SOL    HW261066   6.972   2.370   6.243
53098SOL     OW61067  12.443   8.032   7.753
53098SOL    HW161068  12.484   7.948   7.770
53098SOL    HW261069  12.507   8.081   7.702
53099SOL     OW61070   9.470   7.099  12.979
53099SOL    HW161071   9.502   7.104  12.889
53099SOL    HW261072   9.405   7.029  12.978
53100SOL     OW61073  11.344   0.639   4.000
53100SOL    HW161074  11.355   0.575   4.071
53100SOL    HW261075  11.354   0.724   4.043
53101SOL     OW61076   2.296  10.812  10.482
53101SOL    HW161077   2.325  10.726  10.453
53101SOL    HW261078   2.375  10.852  10.521
53102SOL     OW61079   8.840  13.883   5.691
53102SOL    HW161080   8.745  13.879   5.674
53102SOL    HW261081   8.880  13.860   5.607
53103SOL     OW61082  13.443  11.231   2.643
53103SOL    HW161083  13.477  11.183   2.567
53103SOL    HW261084  13.381  11.170   2.684
53104SOL     OW61085   2.040   3.739   0.172
53104SOL    HW161086   2.107   3.728   0.239
53104SOL    HW261087   2.083   3.788   0.102
53105SOL     OW61088   0.634  11.858   4.197
53105SOL    HW161089   0.721  11.818   4.192
53105SOL    HW261090   0.590  11.830   4.116
53106SOL     OW61091   3.966   6.820   8.413
53106SOL    HW161092   4.001   6.890   8.358
53106SOL    HW261093   3.908   6.865   8.474
53107SOL     OW61094   4.465   9.727   7.526
53107SOL    HW161095   4.523   9.803   7.526
53107SOL    HW261096   4.451   9.707   7.619
53108SOL     OW61097  14.089   7.521  10.255
53108SOL    HW161098  14.169   7.487  10.295
53108SOL    HW261099  14.117   7.554  10.170
53109SOL     OW61100   5.863  12.613  13.024
53109SOL    HW161101   5.824  12.530  12.997
53109SOL    HW261102   5.919  12.590  13.098
53110SOL     OW61103   9.558   3.457  12.945
53110SOL    HW161104   9.633   3.491  12.993
53110SOL    HW261105   9.578   3.476  12.853
53111SOL     OW61106   2.370   7.731  10.214
53111SOL    HW161107   2.314   7.787  10.267
53111SOL    HW261108   2.309   7.681  10.159
53112SOL     OW61109  11.685  11.498   7.941
53112SOL    HW161110  11.599  11.507   7.900
53112SOL    HW261111  11.666  11.466   8.029
53113SOL     OW61112  10.472   6.744   2.116
53113SOL    HW161113  10.407   6.726   2.184
53113SOL    HW261114  10.464   6.671   2.055
53114SOL     OW61115   7.764  11.163  12.088
53114SOL    HW161116   7.727  11.251  12.100
53114SOL    HW261117   7.814  11.169  12.007
53115SOL     OW61118  13.091   0.938  10.101
53115SOL    HW161119  13.069   0.942  10.008
53115SOL    HW261120  13.007   0.951  10.146
53116SOL     OW61121   4.192   8.588  12.243
53116SOL    HW161122   4.248   8.545  12.179
53116SOL    HW261123   4.132   8.642  12.191
53117SOL     OW61124  12.547  10.945   3.208
53117SOL    HW161125  12.604  10.917   3.280
53117SOL    HW261126  12.608  10.966   3.137
53118SOL     OW61127  12.148   7.343   4.366
53118SOL    HW161128  12.146   7.334   4.461
53118SOL    HW261129  12.220   7.285   4.338
53119SOL     OW61130   7.559   3.230  14.775
53119SOL    HW161131   7.543   3.225  14.870
53119SOL    HW261132   7.622   3.160  14.758
53120SOL     OW61133   2.762  10.556   1.279
53120SOL    HW161134   2.706  10.570   1.202
53120SOL    HW261135   2.751  10.636   1.331
53121SOL     OW61136   3.072   1.207  14.744
53121SOL    HW161137   3.069   1.301  14.729
53121SOL    HW261138   3.158   1.180  14.710
53122SOL     OW61139  13.436   6.037   6.045
53122SOL    HW161140  13.373   6.067   5.979
53122SOL    HW261141  13.517   6.022   5.996
53123SOL     OW61142  10.583   1.744  14.816
53123SOL    HW161143  10.505   1.740  14.871
53123SOL    HW261144  10.643   1.681  14.856
53124SOL     OW61145   9.428   0.651  10.325
53124SOL    HW161146   9.434   0.651  10.229
53124SOL    HW261147   9.518   0.636  10.355
53125SOL     OW61148   9.951   3.474  10.229
53125SOL    HW161149   9.985   3.385  10.244
53125SOL    HW261150  10.018   3.531  10.267
53126SOL     OW61151   5.803   3.207  10.061
53126SOL    HW161152   5.791   3.286  10.114
53126SOL    HW261153   5.717   3.189  10.024
53127SOL     OW61154   4.368   9.201   4.125
53127SOL    HW161155   4.285   9.231   4.088
53127SOL    HW261156   4.424   9.279   4.123
53128SOL     OW61157   0.508   2.757   7.605
53128SOL    HW161158   0.554   2.677   7.630
53128SOL    HW261159   0.416   2.734   7.607
53129SOL     OW61160   9.576   2.664   9.803
53129SOL    HW161161   9.540   2.752   9.787
53129SOL    HW261162   9.499   2.608   9.810
53130SOL     OW61163   8.640   4.593   0.975
53130SOL    HW161164   8.605   4.535   0.907
53130SOL    HW261165   8.641   4.680   0.935
53131SOL     OW61166   3.441  14.376  10.754
53131SOL    HW161167   3.420  14.465  10.723
53131SOL    HW261168   3.464  14.387  10.846
53132SOL     OW61169  13.822   1.554   8.705
53132SOL    HW161170  13.795   1.462   8.701
53132SOL    HW261171  13.917   1.551   8.717
53133SOL     OW61172   7.126  10.663   5.011
53133SOL    HW161173   7.103  10.717   5.086
53133SOL    HW261174   7.217  10.639   5.026
53134SOL     OW61175   1.575   7.199  11.096
53134SOL    HW161176   1.589   7.202  11.190
53134SOL    HW261177   1.575   7.105  11.074
53135SOL     OW61178  11.269   8.889   8.505
53135SOL    HW161179  11.338   8.943   8.542
53135SOL    HW261180  11.293   8.879   8.413
53136SOL     OW61181  10.199  10.906   0.274
53136SOL    HW161182  10.213  10.898   0.179
53136SOL    HW261183  10.116  10.953   0.282
53137SOL     OW61184  13.804  12.304   3.014
53137SOL    HW161185  13.777  12.294   3.105
53137SOL    HW261186  13.896  12.278   3.012
53138SOL     OW61187   0.181  13.533   9.557
53138SOL    HW161188   0.198  13.549   9.464
53138SOL    HW261189   0.223  13.448   9.574
53139SOL     OW61190  11.976   4.993   2.356
53139SOL    HW161191  12.011   5.058   2.294
53139SOL    HW261192  11.982   5.036   2.441
53140SOL     OW61193   7.604   9.711   6.277
53140SOL    HW161194   7.675   9.661   6.237
53140SOL    HW261195   7.630   9.803   6.264
53141SOL     OW61196  12.249   4.833   3.085
53141SOL    HW161197  12.304   4.894   3.035
53141SOL    HW261198  12.159   4.864   3.069
53142SOL     OW61199   5.958  12.801   5.797
53142SOL    HW161200   5.918  12.818   5.711
53142SOL    HW261201   6.029  12.740   5.778
53143SOL     OW61202   7.262   0.585  10.853
53143SOL    HW161203   7.297   0.498  10.867
53143SOL    HW261204   7.267   0.628  10.939
53144SOL     OW61205   4.301   3.487  12.095
53144SOL    HW161206   4.286   3.413  12.154
53144SOL    HW261207   4.363   3.454  12.030
53145SOL     OW61208  14.060   7.343   5.235
53145SOL    HW161209  14.075   7.407   5.166
53145SOL    HW261210  13.969   7.357   5.261
53146SOL     OW61211   8.028  13.019   8.863
53146SOL    HW161212   7.980  12.988   8.786
53146SOL    HW261213   7.966  13.008   8.936
53147SOL     OW61214   5.709  10.455   0.861
53147SOL    HW161215   5.703  10.381   0.801
53147SOL    HW261216   5.678  10.530   0.809
53148SOL     OW61217   3.035   7.483   8.934
53148SOL    HW161218   2.977   7.411   8.960
53148SOL    HW261219   3.077   7.510   9.016
53149SOL     OW61220   4.859   1.080   1.335
53149SOL    HW161221   4.902   1.086   1.250
53149SOL    HW261222   4.765   1.090   1.316
53150SOL     OW61223  13.139  12.402   8.735
53150SOL    HW161224  13.187  12.468   8.684
53150SOL    HW261225  13.082  12.359   8.672
53151SOL     OW61226   4.023  12.772   0.384
53151SOL    HW161227   4.077  12.693   0.378
53151SOL    HW261228   3.955  12.751   0.447
53152SOL     OW61229  11.377   9.490   7.472
53152SOL    HW161230  11.290   9.477   7.435
53152SOL    HW261231  11.402   9.403   7.506
53153SOL     OW61232   7.664   4.780   5.376
53153SOL    HW161233   7.618   4.736   5.305
53153SOL    HW261234   7.754   4.748   5.370
53154SOL     OW61235  10.990   5.725   0.429
53154SOL    HW161236  10.897   5.735   0.451
53154SOL    HW261237  11.029   5.685   0.507
53155SOL     OW61238   5.424  10.348  10.801
53155SOL    HW161239   5.350  10.289  10.818
53155SOL    HW261240   5.411  10.421  10.861
53156SOL     OW61241   7.954   4.161   8.531
53156SOL    HW161242   7.908   4.180   8.449
53156SOL    HW261243   8.031   4.218   8.528
53157SOL     OW61244   3.001   0.688  11.501
53157SOL    HW161245   2.921   0.671  11.450
53157SOL    HW261246   3.037   0.601  11.518
53158SOL     OW61247  13.072   1.770   5.969
53158SOL    HW161248  13.146   1.761   6.029
53158SOL    HW261249  13.079   1.861   5.937
53159SOL     OW61250  11.358  10.035   6.212
53159SOL    HW161251  11.342  10.082   6.129
53159SOL    HW261252  11.405  10.098   6.266
53160SOL     OW61253  14.504   0.522   8.375
53160SOL    HW161254  14.570   0.472   8.424
53160SOL    HW261255  14.436   0.541   8.440
53161SOL     OW61256   6.843   1.125  11.635
53161SOL    HW161257   6.769   1.088  11.682
53161SOL    HW261258   6.839   1.219  11.652
53162SOL     OW61259  12.477  12.882  11.441
53162SOL    HW161260  12.393  12.927  11.451
53162SOL    HW261261  12.454  12.798  11.402
53163SOL     OW61262  12.580  14.414  11.846
53163SOL    HW161263  12.514  14.414  11.915
53163SOL    HW261264  12.636  14.489  11.865
53164SOL     OW61265   2.576  14.242   6.486
53164SOL    HW161266   2.652  14.217   6.539
53164SOL    HW261267   2.552  14.329   6.517
53165SOL     OW61268   1.195   0.119  14.599
53165SOL    HW161269   1.103   0.126  14.573
53165SOL    HW261270   1.220   0.207  14.623
53166SOL     OW61271  11.881   1.355  12.205
53166SOL    HW161272  11.856   1.265  12.180
53166SOL    HW261273  11.944   1.344  12.275
53167SOL     OW61274   8.065   4.434   7.378
53167SOL    HW161275   8.122   4.414   7.304
53167SOL    HW261276   7.989   4.477   7.339
53168SOL     OW61277   6.157  12.500   6.117
53168SOL    HW161278   6.189  12.519   6.029
53168SOL    HW261279   6.222  12.538   6.176
53169SOL     OW61280  10.305   8.753   6.713
53169SOL    HW161281  10.238   8.764   6.645
53169SOL    HW261282  10.352   8.674   6.687
53170SOL     OW61283   5.122   0.839   5.613
53170SOL    HW161284   5.085   0.860   5.527
53170SOL    HW261285   5.215   0.857   5.603
53171SOL     OW61286   8.983   1.421   2.387
53171SOL    HW161287   8.968   1.398   2.295
53171SOL    HW261288   9.042   1.353   2.420
53172SOL     OW61289  13.796  13.141   3.295
53172SOL    HW161290  13.743  13.169   3.370
53172SOL    HW261291  13.796  13.046   3.299
53173SOL     OW61292  13.827   7.621   3.779
53173SOL    HW161293  13.793   7.691   3.723
53173SOL    HW261294  13.922   7.624   3.768
53174SOL     OW61295   8.744  12.261   6.346
53174SOL    HW161296   8.828  12.243   6.387
53174SOL    HW261297   8.754  12.229   6.256
53175SOL     OW61298   4.165   1.741  10.941
53175SOL    HW161299   4.076   1.742  10.975
53175SOL    HW261300   4.221   1.749  11.018
53176SOL     OW61301   4.841  12.257   9.351
53176SOL    HW161302   4.762  12.298   9.317
53176SOL    HW261303   4.866  12.311   9.426
53177SOL     OW61304   3.114   2.214   3.957
53177SOL    HW161305   3.191   2.246   4.004
53177SOL    HW261306   3.141   2.128   3.924
53178SOL     OW61307   4.169   4.372   6.913
53178SOL    HW161308   4.129   4.286   6.905
53178SOL    HW261309   4.096   4.433   6.917
53179SOL     OW61310  14.408   3.493  11.356
53179SOL    HW161311  14.433   3.583  11.336
53179SOL    HW261312  14.329   3.478  11.303
53180SOL     OW61313   8.864   0.847  14.111
53180SOL    HW161314   8.880   0.753  14.112
53180SOL    HW261315   8.951   0.886  14.106
53181SOL     OW61316  10.658  12.926   4.359
53181SOL    HW161317  10.746  12.887   4.358
53181SOL    HW261318  10.638  12.942   4.267
53182SOL     OW61319   8.814  11.276  12.350
53182SOL    HW161320   8.817  11.338  12.424
53182SOL    HW261321   8.752  11.209  12.379
53183SOL     OW61322   4.293  12.961  13.309
53183SOL    HW161323   4.302  12.959  13.404
53183SOL    HW261324   4.286  13.054  13.287
53184SOL     OW61325  11.176   8.850   9.327
53184SOL    HW161326  11.116   8.878   9.258
53184SOL    HW261327  11.136   8.882   9.408
53185SOL     OW61328  14.792   3.505   9.457
53185SOL    HW161329  14.731   3.552   9.516
53185SOL    HW261330  14.735   3.462   9.394
53186SOL     OW61331  10.443   8.542   5.322
53186SOL    HW161332  10.470   8.557   5.231
53186SOL    HW261333  10.482   8.457   5.345
53187SOL     OW61334  13.251  11.747   1.244
53187SOL    HW161335  13.263  11.704   1.328
53187SOL    HW261336  13.169  11.711   1.210
53188SOL     OW61337   4.923   0.936   0.887
53188SOL    HW161338   4.907   0.985   0.968
53188SOL    HW261339   4.928   0.845   0.914
53189SOL     OW61340  12.537   2.640  10.743
53189SOL    HW161341  12.489   2.722  10.725
53189SOL    HW261342  12.556   2.605  10.656
53190SOL     OW61343   3.014   6.428   5.931
53190SOL    HW161344   3.041   6.411   6.022
53190SOL    HW261345   2.994   6.522   5.930
53191SOL     OW61346   1.241   9.724   5.839
53191SOL    HW161347   1.178   9.691   5.902
53191SOL    HW261348   1.292   9.647   5.813
53192SOL     OW61349  12.476   3.090   5.513
53192SOL    HW161350  12.388   3.123   5.529
53192SOL    HW261351  12.489   3.023   5.581
53193SOL     OW61352   4.932   4.373   8.458
53193SOL    HW161353   4.908   4.380   8.365
53193SOL    HW261354   4.933   4.279   8.475
53194SOL     OW61355   4.008   7.621  10.665
53194SOL    HW161356   4.022   7.624  10.760
53194SOL    HW261357   4.095   7.636  10.628
53195SOL     OW61358  14.295   4.785   8.975
53195SOL    HW161359  14.288   4.858   9.036
53195SOL    HW261360  14.233   4.805   8.906
53196SOL     OW61361   6.042  12.252  10.575
53196SOL    HW161362   6.009  12.309  10.645
53196SOL    HW261363   6.113  12.203  10.615
53197SOL     OW61364   6.187  13.789   6.589
53197SOL    HW161365   6.243  13.809   6.514
53197SOL    HW261366   6.235  13.821   6.665
53198SOL     OW61367  10.701   2.955   1.635
53198SOL    HW161368  10.650   2.921   1.709
53198SOL    HW261369  10.789   2.921   1.648
53199SOL     OW61370  14.050   0.224   3.844
53199SOL    HW161371  14.128   0.203   3.793
53199SOL    HW261372  14.007   0.140   3.860
53200SOL     OW61373  10.131  13.627  13.747
53200SOL    HW161374  10.041  13.653  13.765
53200SOL    HW261375  10.178  13.643  13.829
53201SOL     OW61376  13.403  11.899   3.971
53201SOL    HW161377  13.408  11.950   4.052
53201SOL    HW261378  13.336  11.833   3.988
53202SOL     OW61379   1.236   3.640   4.330
53202SOL    HW161380   1.146   3.609   4.319
53202SOL    HW261381   1.231   3.735   4.317
53203SOL     OW61382  12.278  10.937   8.083
53203SOL    HW161383  12.221  11.011   8.105
53203SOL    HW261384  12.269  10.926   7.989
53204SOL     OW61385   5.404   1.446  12.101
53204SOL    HW161386   5.384   1.370  12.046
53204SOL    HW261387   5.496   1.435  12.124
53205SOL     OW61388   7.229  12.859   6.110
53205SOL    HW161389   7.289  12.932   6.125
53205SOL    HW261390   7.284  12.788   6.079
53206SOL     OW61391  12.246   3.531  11.792
53206SOL    HW161392  12.184   3.566  11.856
53206SOL    HW261393  12.191   3.496  11.722
53207SOL     OW61394   3.798   0.537   8.218
53207SOL    HW161395   3.727   0.501   8.271
53207SOL    HW261396   3.813   0.624   8.253
53208SOL     OW61397   4.410  13.212  12.963
53208SOL    HW161398   4.469  13.143  12.995
53208SOL    HW261399   4.438  13.227  12.873
53209SOL     OW61400   8.972   2.712  14.120
53209SOL    HW161401   9.003   2.792  14.078
53209SOL    HW261402   8.908   2.676  14.058
53210SOL     OW61403   7.360   5.031   8.358
53210SOL    HW161404   7.437   5.079   8.388
53210SOL    HW261405   7.289   5.064   8.412
53211SOL     OW61406   8.704   2.763   9.798
53211SOL    HW161407   8.631   2.760   9.859
53211SOL    HW261408   8.740   2.851   9.806
53212SOL     OW61409   4.274   6.016  11.139
53212SOL    HW161410   4.328   5.970  11.075
53212SOL    HW261411   4.186   5.979  11.128
53213SOL     OW61412  10.567   5.702   1.718
53213SOL    HW161413  10.485   5.664   1.751
53213SOL    HW261414  10.538   5.770   1.656
53214SOL     OW61415   6.659  11.976  12.340
53214SOL    HW161416   6.695  12.026  12.413
53214SOL    HW261417   6.689  12.023  12.262
53215SOL     OW61418  13.439  13.359   7.512
53215SOL    HW161419  13.511  13.370   7.449
53215SOL    HW261420  13.388  13.439   7.503
53216SOL     OW61421   8.357  14.596  10.812
53216SOL    HW161422   8.413  14.575  10.887
53216SOL    HW261423   8.416  14.597  10.737
53217SOL     OW61424  12.955   1.915  13.484
53217SOL    HW161425  12.962   1.988  13.546
53217SOL    HW261426  13.030   1.859  13.504
53218SOL     OW61427   4.756   9.958   5.166
53218SOL    HW161428   4.824   9.976   5.102
53218SOL    HW261429   4.801   9.913   5.237
53219SOL     OW61430  11.825   1.378   9.099
53219SOL    HW161431  11.787   1.426   9.026
53219SOL    HW261432  11.761   1.387   9.170
53220SOL     OW61433   5.324   8.091  13.026
53220SOL    HW161434   5.295   8.000  13.037
53220SOL    HW261435   5.390   8.086  12.957
53221SOL     OW61436  11.090   0.301   8.079
53221SOL    HW161437  11.135   0.374   8.036
53221SOL    HW261438  11.058   0.337   8.162
53222SOL     OW61439  11.946   4.824  14.383
53222SOL    HW161440  11.957   4.730  14.392
53222SOL    HW261441  11.960   4.841  14.289
53223SOL     OW61442   9.470   2.608   0.831
53223SOL    HW161443   9.487   2.583   0.740
53223SOL    HW261444   9.525   2.685   0.845
53224SOL     OW61445   7.097   3.778   6.016
53224SOL    HW161446   7.056   3.738   6.092
53224SOL    HW261447   7.169   3.719   5.994
53225SOL     OW61448   0.100   6.820   9.285
53225SOL    HW161449   0.191   6.791   9.281
53225SOL    HW261450   0.053   6.759   9.228
53226SOL     OW61451  13.627   3.432   3.143
53226SOL    HW161452  13.685   3.356   3.139
53226SOL    HW261453  13.575   3.419   3.223
53227SOL     OW61454   0.027   0.782   6.523
53227SOL    HW161455   0.100   0.723   6.505
53227SOL    HW261456  14.835   0.724   6.543
53228SOL     OW61457  11.593   6.478   7.437
53228SOL    HW161458  11.539   6.542   7.484
53228SOL    HW261459  11.670   6.527   7.409
53229SOL     OW61460  11.108  13.765  11.920
53229SOL    HW161461  11.124  13.696  11.984
53229SOL    HW261462  11.014  13.759  11.901
53230SOL     OW61463  10.891   0.483  14.711
53230SOL    HW161464  10.927   0.411  14.660
53230SOL    HW261465  10.798   0.463  14.719
53231SOL     OW61466  10.668   8.455   5.153
53231SOL    HW161467  10.654   8.379   5.209
53231SOL    HW261468  10.739   8.503   5.196
53232SOL     OW61469   1.381   4.638  13.161
53232SOL    HW161470   1.464   4.620  13.206
53232SOL    HW261471   1.320   4.660  13.230
53233SOL     OW61472   9.086   6.370   2.422
53233SOL    HW161473   9.077   6.277   2.443
53233SOL    HW261474   9.087   6.414   2.506
53234SOL     OW61475   9.050  13.848  12.748
53234SOL    HW161476   9.122  13.842  12.685
53234SOL    HW261477   9.031  13.942  12.753
53235SOL     OW61478   3.062   1.730  11.282
53235SOL    HW161479   3.070   1.822  11.307
53235SOL    HW261480   3.141   1.689  11.318
53236SOL     OW61481  14.204  14.858   5.917
53236SOL    HW161482  14.226   0.047   5.856
53236SOL    HW261483  14.199  14.779   5.863
53237SOL     OW61484  13.568   8.482   2.353
53237SOL    HW161485  13.569   8.496   2.447
53237SOL    HW261486  13.611   8.397   2.341
53238SOL     OW61487   0.880   8.171  10.142
53238SOL    HW161488   0.795   8.212  10.125
53238SOL    HW261489   0.867   8.079  10.123
53239SOL     OW61490   1.437   2.148  12.962
53239SOL    HW161491   1.513   2.199  12.933
53239SOL    HW261492   1.371   2.165  12.895
53240SOL     OW61493   4.715   2.332   1.465
53240SOL    HW161494   4.788   2.378   1.506
53240SOL    HW261495   4.703   2.377   1.381
53241SOL     OW61496   4.567   2.099   8.079
53241SOL    HW161497   4.565   2.165   8.010
53241SOL    HW261498   4.575   2.016   8.032
53242SOL     OW61499   4.703  10.208  13.495
53242SOL    HW161500   4.796  10.208  13.472
53242SOL    HW261501   4.662  10.153  13.429
53243SOL     OW61502  12.922   0.453  11.622
53243SOL    HW161503  12.951   0.520  11.684
53243SOL    HW261504  12.848   0.411  11.665
53244SOL     OW61505  13.413   6.255   2.619
53244SOL    HW161506  13.501   6.271   2.653
53244SOL    HW261507  13.426   6.191   2.549
53245SOL     OW61508   0.168   4.394   8.369
53245SOL    HW161509   0.224   4.317   8.361
53245SOL    HW261510   0.224   4.468   8.345
53246SOL     OW61511   6.613   0.955   7.918
53246SOL    HW161512   6.546   0.911   7.866
53246SOL    HW261513   6.611   1.046   7.888
53247SOL     OW61514  12.173  11.278   4.860
53247SOL    HW161515  12.262  11.242   4.869
53247SOL    HW261516  12.117  11.212   4.902
53248SOL     OW61517   6.565  13.598   5.612
53248SOL    HW161518   6.631  13.530   5.598
53248SOL    HW261519   6.538  13.623   5.523
53249SOL     OW61520   8.932  12.435  12.413
53249SOL    HW161521   8.905  12.465  12.500
53249SOL    HW261522   8.958  12.514  12.367
53250SOL     OW61523  11.027   1.669   8.083
53250SOL    HW161524  11.004   1.576   8.073
53250SOL    HW261525  11.026   1.684   8.178
53251SOL     OW61526   2.392   5.716   2.594
53251SOL    HW161527   2.340   5.692   2.518
53251SOL    HW261528   2.440   5.636   2.617
53252SOL     OW61529  13.753   9.305   7.629
53252SOL    HW161530  13.788   9.297   7.718
53252SOL    HW261531  13.658   9.301   7.640
53253SOL     OW61532   4.286  10.786   6.359
53253SOL    HW161533   4.247  10.870   6.384
53253SOL    HW261534   4.380  10.799   6.372
53254SOL     OW61535  13.635   2.985   3.296
53254SOL    HW161536  13.675   2.921   3.354
53254SOL    HW261537  13.569   2.935   3.248
53255SOL     OW61538   3.096  10.014   0.013
53255SOL    HW161539   3.154   9.939   0.022
53255SOL    HW261540   3.021   9.981  14.847
53256SOL     OW61541   5.826  10.550   8.871
53256SOL    HW161542   5.847  10.467   8.914
53256SOL    HW261543   5.841  10.616   8.939
53257SOL     OW61544  13.985  10.533  10.747
53257SOL    HW161545  13.912  10.490  10.703
53257SOL    HW261546  14.045  10.462  10.769
53258SOL     OW61547  14.431  13.068   6.367
53258SOL    HW161548  14.520  13.044   6.393
53258SOL    HW261549  14.434  13.163   6.357
53259SOL     OW61550   9.206  14.467  11.441
53259SOL    HW161551   9.275  14.456  11.375
53259SOL    HW261552   9.160  14.383  11.442
53260SOL     OW61553   9.705   8.794  11.062
53260SOL    HW161554   9.713   8.700  11.078
53260SOL    HW261555   9.729   8.804  10.970
53261SOL     OW61556  11.947   2.241  12.054
53261SOL    HW161557  11.857   2.254  12.083
53261SOL    HW261558  11.962   2.147  12.063
53262SOL     OW61559   7.695  14.028  12.957
53262SOL    HW161560   7.662  13.946  12.994
53262SOL    HW261561   7.683  14.093  13.027
53263SOL     OW61562  10.576   3.826   4.200
53263SOL    HW161563  10.570   3.822   4.296
53263SOL    HW261564  10.485   3.829   4.171
53264SOL     OW61565   5.848  12.696   7.953
53264SOL    HW161566   5.900  12.727   7.880
53264SOL    HW261567   5.777  12.646   7.913
53265SOL     OW61568   9.469   6.160   8.645
53265SOL    HW161569   9.418   6.134   8.568
53265SOL    HW261570   9.424   6.237   8.679
53266SOL     OW61571   6.879   4.184   8.156
53266SOL    HW161572   6.854   4.252   8.094
53266SOL    HW261573   6.797   4.159   8.198
53267SOL     OW61574  14.665   2.873   9.004
53267SOL    HW161575  14.707   2.787   9.007
53267SOL    HW261576  14.698   2.918   9.082
53268SOL     OW61577   5.191   6.007  10.332
53268SOL    HW161578   5.276   6.051  10.331
53268SOL    HW261579   5.156   6.024  10.419
53269SOL     OW61580   3.244   0.094   9.554
53269SOL    HW161581   3.322   0.126   9.600
53269SOL    HW261582   3.278   0.040   9.482
53270SOL     OW61583  12.340   9.759   9.224
53270SOL    HW161584  12.264   9.771   9.282
53270SOL    HW261585  12.389   9.686   9.262
53271SOL     OW61586  14.052  11.196   4.108
53271SOL    HW161587  14.085  11.118   4.064
53271SOL    HW261588  13.957  11.185   4.108
53272SOL     OW61589   3.031  11.860  10.769
53272SOL    HW161590   3.081  11.864  10.851
53272SOL    HW261591   2.943  11.886  10.794
53273SOL     OW61592   2.073  11.660   1.874
53273SOL    HW161593   2.059  11.629   1.785
53273SOL    HW261594   2.153  11.617   1.902
53274SOL     OW61595   2.596  10.502   9.535
53274SOL    HW161596   2.585  10.418   9.580
53274SOL    HW261597   2.675  10.491   9.482
53275SOL     OW61598  10.760   4.877   7.321
53275SOL    HW161599  10.744   4.866   7.414
53275SOL    HW261600  10.705   4.811   7.279
53276SOL     OW61601   1.043   8.655  12.968
53276SOL    HW161602   1.027   8.594  13.039
53276SOL    HW261603   1.005   8.738  12.998
53277SOL     OW61604   7.295   9.523  12.109
53277SOL    HW161605   7.323   9.444  12.063
53277SOL    HW261606   7.295   9.592  12.042
53278SOL     OW61607   4.353   8.170   5.386
53278SOL    HW161608   4.301   8.235   5.338
53278SOL    HW261609   4.400   8.221   5.452
53279SOL     OW61610  10.579   1.964   9.786
53279SOL    HW161611  10.618   2.004   9.708
53279SOL    HW261612  10.512   1.905   9.751
53280SOL     OW61613   4.558   1.714   6.437
53280SOL    HW161614   4.615   1.704   6.513
53280SOL    HW261615   4.522   1.626   6.423
53281SOL     OW61616  13.194  12.860   6.314
53281SOL    HW161617  13.236  12.937   6.351
53281SOL    HW261618  13.177  12.803   6.389
53282SOL     OW61619   9.608   8.404   6.072
53282SOL    HW161620   9.635   8.325   6.119
53282SOL    HW261621   9.689   8.441   6.038
53283SOL     OW61622  11.201   6.776   9.866
53283SOL    HW161623  11.151   6.713   9.917
53283SOL    HW261624  11.286   6.735   9.853
53284SOL     OW61625   6.631  11.074  13.830
53284SOL    HW161626   6.573  11.150  13.823
53284SOL    HW261627   6.689  11.095  13.903
53285SOL     OW61628   6.117   2.345  12.595
53285SOL    HW161629   6.084   2.318  12.510
53285SOL    HW261630   6.084   2.278  12.656
53286SOL     OW61631  11.686   1.531   8.897
53286SOL    HW161632  11.652   1.620   8.902
53286SOL    HW261633  11.613   1.479   8.863
53287SOL     OW61634   3.907   3.702   9.195
53287SOL    HW161635   3.958   3.747   9.262
53287SOL    HW261636   3.957   3.714   9.114
53288SOL     OW61637   8.730   5.358   2.293
53288SOL    HW161638   8.738   5.317   2.207
53288SOL    HW261639   8.793   5.310   2.348
53289SOL     OW61640   8.369  13.230   0.931
53289SOL    HW161641   8.427  13.195   0.862
53289SOL    HW261642   8.281  13.204   0.904
53290SOL     OW61643   6.276   7.978   7.290
53290SOL    HW161644   6.284   7.946   7.200
53290SOL    HW261645   6.325   7.915   7.342
53291SOL     OW61646   1.062   6.599  10.268
53291SOL    HW161647   1.141   6.643  10.237
53291SOL    HW261648   1.092   6.541  10.338
53292SOL     OW61649   6.647  14.415  13.559
53292SOL    HW161650   6.621  14.497  13.600
53292SOL    HW261651   6.667  14.439  13.468
53293SOL     OW61652  12.247  10.985   6.043
53293SOL    HW161653  12.160  10.960   6.011
53293SOL    HW261654  12.244  10.968   6.137
53294SOL     OW61655   1.334   4.928  10.587
53294SOL    HW161656   1.402   4.960  10.647
53294SOL    HW261657   1.252   4.943  10.635
53295SOL     OW61658   3.710  14.792   3.214
53295SOL    HW161659   3.666  14.710   3.191
53295SOL    HW261660   3.646  14.861   3.195
53296SOL     OW61661   7.588   7.190  13.415
53296SOL    HW161662   7.637   7.219  13.493
53296SOL    HW261663   7.497   7.209  13.436
53297SOL     OW61664  11.404  14.556  10.871
53297SOL    HW161665  11.329  14.597  10.828
53297SOL    HW261666  11.460  14.527  10.800
53298SOL     OW61667   7.439  14.296   7.002
53298SOL    HW161668   7.534  14.283   7.002
53298SOL    HW261669   7.403  14.212   7.031
53299SOL     OW61670  13.119   9.825   0.540
53299SOL    HW161671  13.035   9.857   0.573
53299SOL    HW261672  13.099   9.740   0.503
53300SOL     OW61673   9.892   6.845   8.274
53300SOL    HW161674   9.812   6.851   8.223
53300SOL    HW261675   9.955   6.899   8.226
53301SOL     OW61676  13.693  13.702  11.762
53301SOL    HW161677  13.682  13.787  11.720
53301SOL    HW261678  13.776  13.710  11.810
53302SOL     OW61679  12.076  10.034   7.632
53302SOL    HW161680  12.135  10.040   7.556
53302SOL    HW261681  12.081   9.942   7.658
53303SOL     OW61682   0.716   5.861   5.568
53303SOL    HW161683   0.648   5.848   5.634
53303SOL    HW261684   0.681   5.926   5.508
53304SOL     OW61685  11.832   5.965   3.011
53304SOL    HW161686  11.859   5.874   2.997
53304SOL    HW261687  11.770   5.960   3.084
53305SOL     OW61688   3.009   0.611   1.254
53305SOL    HW161689   2.936   0.668   1.277
53305SOL    HW261690   2.970   0.525   1.242
53306SOL     OW61691   1.591   4.746   9.878
53306SOL    HW161692   1.596   4.839   9.856
53306SOL    HW261693   1.505   4.718   9.847
53307SOL     OW61694   9.620  13.956   9.120
53307SOL    HW161695   9.656  13.945   9.032
53307SOL    HW261696   9.534  13.912   9.116
53308SOL     OW61697   5.769   6.816  10.366
53308SOL    HW161698   5.842   6.770  10.324
53308SOL    HW261699   5.801   6.905  10.378
53309SOL     OW61700   3.659   7.924   0.972
53309SOL    HW161701   3.662   7.831   0.950
53309SOL    HW261702   3.658   7.926   1.068
53310SOL     OW61703  10.428   4.197  11.317
53310SOL    HW161704  10.504   4.232  11.363
53310SOL    HW261705  10.463   4.130  11.259
53311SOL     OW61706  10.463   1.332  12.704
53311SOL    HW161707  10.464   1.328  12.799
53311SOL    HW261708  10.393   1.394  12.683
53312SOL     OW61709  10.810   6.943   3.825
53312SOL    HW161710  10.873   6.915   3.759
53312SOL    HW261711  10.730   6.894   3.804
53313SOL     OW61712   2.187  11.718   2.632
53313SOL    HW161713   2.107  11.666   2.625
53313SOL    HW261714   2.157  11.802   2.668
53314SOL     OW61715   9.590   0.949  10.609
53314SOL    HW161716   9.500   0.981  10.604
53314SOL    HW261717   9.644   1.021  10.578
53315SOL     OW61718   4.829   4.742   3.285
53315SOL    HW161719   4.799   4.670   3.229
53315SOL    HW261720   4.858   4.698   3.366
53316SOL     OW61721   8.467   6.900   9.313
53316SOL    HW161722   8.429   6.813   9.301
53316SOL    HW261723   8.477   6.909   9.408
53317SOL     OW61724   4.367   8.315   6.953
53317SOL    HW161725   4.453   8.308   6.911
53317SOL    HW261726   4.324   8.388   6.909
53318SOL     OW61727   7.356  11.636  13.134
53318SOL    HW161728   7.349  11.550  13.094
53318SOL    HW261729   7.292  11.689  13.088
53319SOL     OW61730   5.117   4.297  11.220
53319SOL    HW161731   5.139   4.354  11.295
53319SOL    HW261732   5.159   4.340  11.145
53320SOL     OW61733   2.236   3.964   0.418
53320SOL    HW161734   2.226   3.870   0.412
53320SOL    HW261735   2.160   4.000   0.373
53321SOL     OW61736   2.546   2.398   2.498
53321SOL    HW161737   2.475   2.437   2.448
53321SOL    HW261738   2.523   2.305   2.503
53322SOL     OW61739  13.444   2.211  10.379
53322SOL    HW161740  13.454   2.235  10.471
53322SOL    HW261741  13.534   2.203  10.347
53323SOL     OW61742  11.032   3.036   1.132
53323SOL    HW161743  11.018   3.130   1.119
53323SOL    HW261744  10.959   2.994   1.086
53324SOL     OW61745   9.673  11.582   0.009
53324SOL    HW161746   9.581  11.563  14.874
53324SOL    HW261747   9.675  11.618   0.098
53325SOL     OW61748  10.488  14.334   6.732
53325SOL    HW161749  10.485  14.242   6.704
53325SOL    HW261750  10.540  14.378   6.665
53326SOL     OW61751  10.869  12.971   1.974
53326SOL    HW161752  10.863  12.876   1.975
53326SOL    HW261753  10.911  12.992   1.891
53327SOL     OW61754   8.706   4.346  11.632
53327SOL    HW161755   8.707   4.347  11.537
53327SOL    HW261756   8.780   4.401  11.657
53328SOL     OW61757   8.290  12.241   3.046
53328SOL    HW161758   8.340  12.293   3.109
53328SOL    HW261759   8.212  12.214   3.095
53329SOL     OW61760  10.257   3.141  12.145
53329SOL    HW161761  10.309   3.159  12.224
53329SOL    HW261762  10.188   3.082  12.175
53330SOL     OW61763   4.827   3.789   7.183
53330SOL    HW161764   4.915   3.789   7.145
53330SOL    HW261765   4.778   3.854   7.132
53331SOL     OW61766   7.422   1.938  14.178
53331SOL    HW161767   7.515   1.921  14.166
53331SOL    HW261768   7.407   1.926  14.272
53332SOL     OW61769  14.742   4.656   3.239
53332SOL    HW161770  14.823   4.615   3.209
53332SOL    HW261771  14.711   4.599   3.309
53333SOL     OW61772   6.692   5.943   2.133
53333SOL    HW161773   6.687   6.028   2.090
53333SOL    HW261774   6.608   5.901   2.113
53334SOL     OW61775   9.501   2.884   1.423
53334SOL    HW161776   9.538   2.969   1.398
53334SOL    HW261777   9.479   2.842   1.340
53335SOL     OW61778  14.004   7.432  13.410
53335SOL    HW161779  14.011   7.343  13.374
53335SOL    HW261780  14.083   7.444  13.461
53336SOL     OW61781  12.708   0.475   2.489
53336SOL    HW161782  12.768   0.403   2.508
53336SOL    HW261783  12.637   0.464   2.552
53337SOL     OW61784  13.943  14.501   2.678
53337SOL    HW161785  13.897  14.424   2.642
53337SOL    HW261786  14.032  14.494   2.643
53338SOL     OW61787   2.410   2.070  14.231
53338SOL    HW161788   2.344   2.001  14.228
53338SOL    HW261789   2.459   2.060  14.149
53339SOL     OW61790   0.577   3.117   3.662
53339SOL    HW161791   0.484   3.101   3.643
53339SOL    HW261792   0.587   3.211   3.648
53340SOL     OW61793   6.712   6.102   5.753
53340SOL    HW161794   6.801   6.138   5.748
53340SOL    HW261795   6.720   6.026   5.811
53341SOL     OW61796   2.732   2.034   7.930
53341SOL    HW161797   2.705   2.125   7.935
53341SOL    HW261798   2.821   2.037   7.894
53342SOL     OW61799   5.234  14.524   5.157
53342SOL    HW161800   5.301  14.483   5.103
53342SOL    HW261801   5.181  14.574   5.095
53343SOL     OW61802   6.322   2.429   6.837
53343SOL    HW161803   6.251   2.418   6.900
53343SOL    HW261804   6.402   2.427   6.890
53344SOL     OW61805   4.292   0.518   1.717
53344SOL    HW161806   4.268   0.601   1.677
53344SOL    HW261807   4.328   0.466   1.645
53345SOL     OW61808   7.690   3.528   3.847
53345SOL    HW161809   7.644   3.445   3.834
53345SOL    HW261810   7.721   3.526   3.937
53346SOL     OW61811   6.768  11.851   9.414
53346SOL    HW161812   6.850  11.857   9.464
53346SOL    HW261813   6.792  11.803   9.335
53347SOL     OW61814   6.961   5.245  10.764
53347SOL    HW161815   6.989   5.330  10.731
53347SOL    HW261816   6.962   5.188  10.687
53348SOL     OW61817   2.058   1.825  11.821
53348SOL    HW161818   2.064   1.821  11.726
53348SOL    HW261819   1.972   1.864  11.838
53349SOL     OW61820   3.593   0.607   6.774
53349SOL    HW161821   3.539   0.644   6.844
53349SOL    HW261822   3.641   0.682   6.739
53350SOL     OW61823  10.499   9.103   2.252
53350SOL    HW161824  10.482   9.156   2.175
53350SOL    HW261825  10.544   9.025   2.219
53351SOL     OW61826  13.095   2.604   9.103
53351SOL    HW161827  13.053   2.679   9.060
53351SOL    HW261828  13.037   2.530   9.083
53352SOL     OW61829  13.821   0.054   1.835
53352SOL    HW161830  13.862   0.068   1.920
53352SOL    HW261831  13.727   0.061   1.852
53353SOL     OW61832   0.687  10.488   6.448
53353SOL    HW161833   0.661  10.580   6.445
53353SOL    HW261834   0.782  10.491   6.463
53354SOL     OW61835  13.073  12.515  11.591
53354SOL    HW161836  13.010  12.447  11.617
53354SOL    HW261837  13.038  12.596  11.627
53355SOL     OW61838  13.606   6.941  11.072
53355SOL    HW161839  13.608   6.859  11.121
53355SOL    HW261840  13.582   7.007  11.136
53356SOL     OW61841   3.971  10.886  13.103
53356SOL    HW161842   3.981  10.803  13.058
53356SOL    HW261843   4.004  10.870  13.192
53357SOL     OW61844  11.476   4.377  12.854
53357SOL    HW161845  11.406   4.441  12.868
53357SOL    HW261846  11.521   4.373  12.938
53358SOL     OW61847   0.391   7.498  13.181
53358SOL    HW161848   0.433   7.566  13.233
53358SOL    HW261849   0.392   7.533  13.092
53359SOL     OW61850   2.529   5.582   6.101
53359SOL    HW161851   2.473   5.524   6.153
53359SOL    HW261852   2.488   5.584   6.015
53360SOL     OW61853   7.553   7.445   4.099
53360SOL    HW161854   7.493   7.375   4.128
53360SOL    HW261855   7.553   7.438   4.004
53361SOL     OW61856   1.779   9.239   5.823
53361SOL    HW161857   1.783   9.296   5.746
53361SOL    HW261858   1.747   9.296   5.893
53362SOL     OW61859   5.146  14.005  12.932
53362SOL    HW161860   5.119  14.091  12.900
53362SOL    HW261861   5.130  14.009  13.027
53363SOL     OW61862   3.780  14.312   0.689
53363SOL    HW161863   3.690  14.310   0.721
53363SOL    HW261864   3.776  14.364   0.609
53364SOL     OW61865   8.780   9.999   5.962
53364SOL    HW161866   8.693   9.965   5.981
53364SOL    HW261867   8.808  10.042   6.043
53365SOL     OW61868   2.654   6.454   0.610
53365SOL    HW161869   2.686   6.456   0.520
53365SOL    HW261870   2.699   6.527   0.653
53366SOL     OW61871   8.488   1.813   6.809
53366SOL    HW161872   8.450   1.810   6.896
53366SOL    HW261873   8.575   1.850   6.822
53367SOL     OW61874   9.788   0.289   0.033
53367SOL    HW161875   9.776   0.358  14.849
53367SOL    HW261876   9.756   0.327   0.115
53368SOL     OW61877  12.518   2.419   8.417
53368SOL    HW161878  12.600   2.409   8.368
53368SOL    HW261879  12.451   2.384   8.359
53369SOL     OW61880   1.109   1.568   9.760
53369SOL    HW161881   1.132   1.653   9.798
53369SOL    HW261882   1.016   1.577   9.736
53370SOL     OW61883   6.806   8.663   4.355
53370SOL    HW161884   6.809   8.700   4.267
53370SOL    HW261885   6.897   8.659   4.383
53371SOL     OW61886  10.087   0.762   3.674
53371SOL    HW161887  10.043   0.801   3.749
53371SOL    HW261888  10.107   0.672   3.702
53372SOL     OW61889   2.225  12.743   3.172
53372SOL    HW161890   2.295  12.683   3.197
53372SOL    HW261891   2.194  12.711   3.087
53373SOL     OW61892  12.827   6.781  14.445
53373SOL    HW161893  12.794   6.749  14.529
53373SOL    HW261894  12.916   6.746  14.439
53374SOL     OW61895  12.924  13.631  10.086
53374SOL    HW161896  13.019  13.623  10.071
53374SOL    HW261897  12.915  13.626  10.181
53375SOL     OW61898   7.568   6.925   9.500
53375SOL    HW161899   7.521   7.008   9.498
53375SOL    HW261900   7.526   6.875   9.570
53376SOL     OW61901  11.800   5.746  12.843
53376SOL    HW161902  11.713   5.761  12.805
53376SOL    HW261903  11.794   5.781  12.932
53377SOL     OW61904   2.261  13.280   0.609
53377SOL    HW161905   2.222  13.318   0.688
53377SOL    HW261906   2.326  13.345   0.580
53378SOL     OW61907   0.950   5.851   2.997
53378SOL    HW161908   0.935   5.917   3.065
53378SOL    HW261909   0.907   5.886   2.919
53379SOL     OW61910  11.207   2.702   5.382
53379SOL    HW161911  11.257   2.755   5.445
53379SOL    HW261912  11.129   2.675   5.430
53380SOL     OW61913   7.561   3.654   7.237
53380SOL    HW161914   7.543   3.560   7.230
53380SOL    HW261915   7.545   3.688   7.150
53381SOL     OW61916   7.149   2.360  13.039
53381SOL    HW161917   7.156   2.426  13.107
53381SOL    HW261918   7.072   2.386  12.987
53382SOL     OW61919   1.365   5.114   8.333
53382SOL    HW161920   1.425   5.041   8.352
53382SOL    HW261921   1.279   5.081   8.358
53383SOL     OW61922   7.893  13.096   5.401
53383SOL    HW161923   7.827  13.160   5.429
53383SOL    HW261924   7.844  13.028   5.355
53384SOL     OW61925   8.729  11.268   9.970
53384SOL    HW161926   8.771  11.201   9.916
53384SOL    HW261927   8.637  11.243   9.973
53385SOL     OW61928   0.575  10.840   2.212
53385SOL    HW161929   0.628  10.802   2.282
53385SOL    HW261930   0.532  10.915   2.253
53386SOL     OW61931  13.577   4.994   5.290
53386SOL    HW161932  13.655   5.033   5.328
53386SOL    HW261933  13.554   5.052   5.217
53387SOL     OW61934   0.032   5.113   4.676
53387SOL    HW161935  14.856   5.138   4.604
53387SOL    HW261936  14.856   5.068   4.738
53388SOL     OW61937   2.014  10.638   5.583
53388SOL    HW161938   2.052  10.711   5.535
53388SOL    HW261939   2.035  10.561   5.529
53389SOL     OW61940   2.455   5.810   8.602
53389SOL    HW161941   2.438   5.782   8.511
53389SOL    HW261942   2.481   5.729   8.646
53390SOL     OW61943   8.051   5.153   7.615
53390SOL    HW161944   8.040   5.195   7.701
53390SOL    HW261945   8.144   5.129   7.613
53391SOL     OW61946   0.884  13.453   3.633
53391SOL    HW161947   0.850  13.425   3.718
53391SOL    HW261948   0.924  13.538   3.651
53392SOL     OW61949   4.844   2.408  13.789
53392SOL    HW161950   4.757   2.390  13.824
53392SOL    HW261951   4.887   2.322  13.786
53393SOL     OW61952  14.472  11.103  14.233
53393SOL    HW161953  14.479  11.106  14.138
53393SOL    HW261954  14.468  11.194  14.260
53394SOL     OW61955   6.974  14.309   3.834
53394SOL    HW161956   6.993  14.280   3.923
53394SOL    HW261957   7.012  14.397   3.828
53395SOL     OW61958   7.477   7.223   9.974
53395SOL    HW161959   7.536   7.256   9.906
53395SOL    HW261960   7.479   7.128   9.964
53396SOL     OW61961   8.969   0.068   1.462
53396SOL    HW161962   8.965   0.099   1.372
53396SOL    HW261963   8.909   0.125   1.511
53397SOL     OW61964   1.198   0.220   5.740
53397SOL    HW161965   1.179   0.306   5.703
53397SOL    HW261966   1.207   0.163   5.664
53398SOL     OW61967   2.761   7.335   1.480
53398SOL    HW161968   2.791   7.395   1.549
53398SOL    HW261969   2.671   7.314   1.505
53399SOL     OW61970   9.163   2.553  10.513
53399SOL    HW161971   9.089   2.576  10.458
53399SOL    HW261972   9.124   2.531  10.598
53400SOL     OW61973   6.613   9.490   8.645
53400SOL    HW161974   6.556   9.427   8.689
53400SOL    HW261975   6.702   9.455   8.658
53401SOL     OW61976  13.388  10.018   2.551
53401SOL    HW161977  13.466  10.069   2.529
53401SOL    HW261978  13.326  10.082   2.586
53402SOL     OW61979   0.910   5.211   3.781
53402SOL    HW161980   0.949   5.272   3.843
53402SOL    HW261981   0.929   5.249   3.695
53403SOL     OW61982   4.678   6.624  13.048
53403SOL    HW161983   4.674   6.606  12.954
53403SOL    HW261984   4.645   6.544  13.090
53404SOL     OW61985   1.885   0.676   8.220
53404SOL    HW161986   1.792   0.695   8.235
53404SOL    HW261987   1.916   0.639   8.302
53405SOL     OW61988  12.082   3.703   3.210
53405SOL    HW161989  12.011   3.640   3.203
53405SOL    HW261990  12.116   3.693   3.299
53406SOL     OW61991   1.023   5.911  12.042
53406SOL    HW161992   1.106   5.915  12.089
53406SOL    HW261993   1.034   5.973  11.970
53407SOL     OW61994  10.013  13.308   5.540
53407SOL    HW161995   9.954  13.306   5.615
53407SOL    HW261996  10.006  13.398   5.507
53408SOL     OW61997  13.750  13.929   7.994
53408SOL    HW161998  13.731  13.920   8.087
53408SOL    HW261999  13.723  13.845   7.956
53409SOL     OW62000   4.300   0.423  11.039
53409SOL    HW162001   4.295   0.514  11.009
53409SOL    HW262002   4.393   0.405  11.044
53410SOL     OW62003  11.306   8.189  11.697
53410SOL    HW162004  11.306   8.117  11.760
53410SOL    HW262005  11.341   8.264  11.745
53411SOL     OW62006  10.083   5.241   9.348
53411SOL    HW162007  10.158   5.212   9.399
53411SOL    HW262008  10.042   5.309   9.401
53412SOL     OW62009   2.643   5.439   0.782
53412SOL    HW162010   2.564   5.487   0.758
53412SOL    HW262011   2.614   5.381   0.853
53413SOL     OW62012   0.212  11.013   7.690
53413SOL    HW162013   0.231  11.081   7.754
53413SOL    HW262014   0.239  11.051   7.606
53414SOL     OW62015  14.070   0.979   4.898
53414SOL    HW162016  14.085   0.887   4.877
53414SOL    HW262017  14.085   1.026   4.816
53415SOL     OW62018   1.190  11.737   6.098
53415SOL    HW162019   1.171  11.643   6.098
53415SOL    HW262020   1.236  11.752   6.181
53416SOL     OW62021   0.376   3.686   2.465
53416SOL    HW162022   0.288   3.694   2.429
53416SOL    HW262023   0.379   3.749   2.537
53417SOL     OW62024  12.291   7.624   7.540
53417SOL    HW162025  12.266   7.715   7.554
53417SOL    HW262026  12.241   7.597   7.463
53418SOL     OW62027   8.997  14.547  13.005
53418SOL    HW162028   9.028  14.634  13.031
53418SOL    HW262029   9.061  14.518  12.940
53419SOL     OW62030   1.663  12.546  13.409
53419SOL    HW162031   1.692  12.586  13.492
53419SOL    HW262032   1.579  12.588  13.390
53420SOL     OW62033  14.235   9.648  10.353
53420SOL    HW162034  14.159   9.698  10.326
53420SOL    HW262035  14.298   9.713  10.384
53421SOL     OW62036   8.646  14.404  10.181
53421SOL    HW162037   8.695  14.423  10.100
53421SOL    HW262038   8.714  14.389  10.247
53422SOL     OW62039   9.791  12.532   0.972
53422SOL    HW162040   9.764  12.486   0.892
53422SOL    HW262041   9.886  12.525   0.972
53423SOL     OW62042   9.757  11.254   4.988
53423SOL    HW162043   9.771  11.318   5.057
53423SOL    HW262044   9.797  11.173   5.021
53424SOL     OW62045   0.355   9.542   6.296
53424SOL    HW162046   0.360   9.636   6.278
53424SOL    HW262047   0.422   9.527   6.362
53425SOL     OW62048   8.156   1.097  13.789
53425SOL    HW162049   8.204   1.019  13.817
53425SOL    HW262050   8.208   1.170  13.822
53426SOL     OW62051   5.567  14.868  10.429
53426SOL    HW162052   5.636   0.012  10.367
53426SOL    HW262053   5.491  14.850  10.375
53427SOL     OW62054   6.273   4.015   9.031
53427SOL    HW162055   6.311   4.101   9.046
53427SOL    HW262056   6.313   3.986   8.949
53428SOL     OW62057   4.650  14.173   7.486
53428SOL    HW162058   4.664  14.079   7.483
53428SOL    HW262059   4.686  14.200   7.571
53429SOL     OW62060   4.580  11.649   3.867
53429SOL    HW162061   4.559  11.555   3.871
53429SOL    HW262062   4.646  11.661   3.935
53430SOL     OW62063   7.001   7.185  12.611
53430SOL    HW162064   7.070   7.120  12.593
53430SOL    HW262065   6.961   7.154  12.693
53431SOL     OW62066   5.438   6.148   1.758
53431SOL    HW162067   5.488   6.190   1.688
53431SOL    HW262068   5.504   6.117   1.820
53432SOL     OW62069   9.054  13.220  12.911
53432SOL    HW162070   9.009  13.229  12.995
53432SOL    HW262071   9.045  13.306  12.870
53433SOL     OW62072   0.279   1.496   2.024
53433SOL    HW162073   0.359   1.501   2.077
53433SOL    HW262074   0.311   1.495   1.933
53434SOL     OW62075  14.741   1.796   4.989
53434SOL    HW162076  14.800   1.808   4.915
53434SOL    HW262077  14.662   1.758   4.950
53435SOL     OW62078   5.112   7.420  12.888
53435SOL    HW162079   5.169   7.463  12.825
53435SOL    HW262080   5.155   7.336  12.906
53436SOL     OW62081   6.492  14.823   7.779
53436SOL    HW162082   6.563  14.852   7.836
53436SOL    HW262083   6.487  14.728   7.795
53437SOL     OW62084  10.716  13.727  11.456
53437SOL    HW162085  10.789  13.746  11.397
53437SOL    HW262086  10.650  13.686  11.400
53438SOL     OW62087  14.427   7.960   9.953
53438SOL    HW162088  14.501   8.005   9.912
53438SOL    HW262089  14.371   8.031   9.986
53439SOL     OW62090   7.768  10.012  10.210
53439SOL    HW162091   7.736   9.967  10.287
53439SOL    HW262092   7.726   9.967  10.136
53440SOL     OW62093   6.394  10.286   4.023
53440SOL    HW162094   6.434  10.200   4.010
53440SOL    HW262095   6.463  10.348   4.001
53441SOL     OW62096   8.009   6.881   6.902
53441SOL    HW162097   7.987   6.973   6.885
53441SOL    HW262098   8.091   6.868   6.854
53442SOL     OW62099   9.621   3.941   1.939
53442SOL    HW162100   9.574   3.983   1.866
53442SOL    HW262101   9.703   3.911   1.900
53443SOL     OW62102   0.662  12.523   5.612
53443SOL    HW162103   0.722  12.563   5.549
53443SOL    HW262104   0.616  12.456   5.562
53444SOL     OW62105   3.997  11.347   7.271
53444SOL    HW162106   3.932  11.339   7.340
53444SOL    HW262107   4.075  11.303   7.306
53445SOL     OW62108   4.794  10.095   3.123
53445SOL    HW162109   4.805  10.101   3.218
53445SOL    HW262110   4.723  10.156   3.103
53446SOL     OW62111   0.114   8.301   5.944
53446SOL    HW162112   0.164   8.343   5.874
53446SOL    HW262113   0.150   8.212   5.949
53447SOL     OW62114   2.816   0.142   9.666
53447SOL    HW162115   2.771   0.060   9.643
53447SOL    HW262116   2.818   0.141   9.762
53448SOL     OW62117  14.309   7.093  14.167
53448SOL    HW162118  14.247   7.157  14.132
53448SOL    HW262119  14.297   7.097  14.262
53449SOL     OW62120  14.131   1.797  10.794
53449SOL    HW162121  14.087   1.744  10.728
53449SOL    HW262122  14.074   1.873  10.805
53450SOL     OW62123   1.330  12.800   9.205
53450SOL    HW162124   1.306  12.758   9.123
53450SOL    HW262125   1.280  12.882   9.206
53451SOL     OW62126   4.375  11.111   1.972
53451SOL    HW162127   4.314  11.039   1.957
53451SOL    HW262128   4.450  11.091   1.917
53452SOL     OW62129   9.664  10.725   5.340
53452SOL    HW162130   9.636  10.806   5.381
53452SOL    HW262131   9.615  10.657   5.386
53453SOL     OW62132  11.781   0.860   8.226
53453SOL    HW162133  11.840   0.813   8.166
53453SOL    HW262134  11.830   0.867   8.308
53454SOL     OW62135   5.308   2.687  14.639
53454SOL    HW162136   5.240   2.750  14.616
53454SOL    HW262137   5.389   2.726  14.606
53455SOL     OW62138   5.986   4.143   2.337
53455SOL    HW162139   5.989   4.163   2.430
53455SOL    HW262140   5.980   4.048   2.333
53456SOL     OW62141   5.644   4.768   7.746
53456SOL    HW162142   5.551   4.753   7.757
53456SOL    HW262143   5.650   4.842   7.686
53457SOL     OW62144   1.712   9.397   5.566
53457SOL    HW162145   1.618   9.414   5.575
53457SOL    HW262146   1.723   9.367   5.476
53458SOL     OW62147   9.581   0.918   0.654
53458SOL    HW162148   9.607   1.004   0.620
53458SOL    HW262149   9.495   0.902   0.614
53459SOL     OW62150   6.982  10.015   3.410
53459SOL    HW162151   7.068   9.981   3.431
53459SOL    HW262152   6.921   9.950   3.445
53460SOL     OW62153   2.830   6.241  10.673
53460SOL    HW162154   2.858   6.327  10.704
53460SOL    HW262155   2.867   6.234  10.586
53461SOL     OW62156   1.519  13.041   5.082
53461SOL    HW162157   1.485  13.041   4.993
53461SOL    HW262158   1.444  13.016   5.136
53462SOL     OW62159  14.713  10.372   4.048
53462SOL    HW162160  14.712  10.408   3.960
53462SOL    HW262161  14.634  10.318   4.054
53463SOL     OW62162   6.110   4.745   4.254
53463SOL    HW162163   6.090   4.658   4.290
53463SOL    HW262164   6.075   4.806   4.318
53464SOL     OW62165   7.161   0.253   6.675
53464SOL    HW162166   7.065   0.253   6.679
53464SOL    HW262167   7.181   0.258   6.582
53465SOL     OW62168   9.966   0.906   2.103
53465SOL    HW162169  10.043   0.920   2.049
53465SOL    HW262170   9.977   0.817   2.138
53466SOL     OW62171  14.472   5.356   7.537
53466SOL    HW162172  14.389   5.361   7.489
53466SOL    HW262173  14.492   5.447   7.559
53467SOL     OW62174   2.271  11.670   6.421
53467SOL    HW162175   2.196  11.641   6.472
53467SOL    HW262176   2.249  11.647   6.331
53468SOL     OW62177  10.872  10.854   4.705
53468SOL    HW162178  10.944  10.810   4.660
53468SOL    HW262179  10.795  10.803   4.682
53469SOL     OW62180   7.216  10.589  13.850
53469SOL    HW162181   7.286  10.585  13.785
53469SOL    HW262182   7.164  10.510  13.834
53470SOL     OW62183   6.523   7.299   4.517
53470SOL    HW162184   6.613   7.327   4.500
53470SOL    HW262185   6.469   7.354   4.459
53471SOL     OW62186   2.447  11.395  11.801
53471SOL    HW162187   2.489  11.318  11.763
53471SOL    HW262188   2.406  11.438  11.727
53472SOL     OW62189   0.113  10.227   3.218
53472SOL    HW162190   0.187  10.233   3.277
53472SOL    HW262191   0.051  10.168   3.261
53473SOL     OW62192   7.851  12.269   5.272
53473SOL    HW162193   7.776  12.243   5.324
53473SOL    HW262194   7.927  12.254   5.329
53474SOL     OW62195   7.976   6.285  10.116
53474SOL    HW162196   7.935   6.346  10.177
53474SOL    HW262197   8.062   6.324  10.098
53475SOL     OW62198  13.119   8.077   6.208
53475SOL    HW162199  13.128   8.026   6.127
53475SOL    HW262200  13.166   8.158   6.189
53476SOL     OW62201  10.100  11.825  13.228
53476SOL    HW162202  10.194  11.842  13.235
53476SOL    HW262203  10.079  11.845  13.136
53477SOL     OW62204   5.787   1.288   9.305
53477SOL    HW162205   5.787   1.283   9.400
53477SOL    HW262206   5.843   1.215   9.277
53478SOL     OW62207   4.724  14.399   1.615
53478SOL    HW162208   4.807  14.447   1.626
53478SOL    HW262209   4.746  14.326   1.558
53479SOL     OW62210  11.428   0.801   1.743
53479SOL    HW162211  11.483   0.723   1.738
53479SOL    HW262212  11.357   0.777   1.803
53480SOL     OW62213  11.684   1.503   3.200
53480SOL    HW162214  11.730   1.432   3.155
53480SOL    HW262215  11.724   1.506   3.287
53481SOL     OW62216   6.279   5.232   6.467
53481SOL    HW162217   6.225   5.297   6.513
53481SOL    HW262218   6.328   5.188   6.536
53482SOL     OW62219   2.541   4.638   8.765
53482SOL    HW162220   2.551   4.544   8.754
53482SOL    HW262221   2.447   4.650   8.782
53483SOL     OW62222   5.098   4.785  12.022
53483SOL    HW162223   5.121   4.783  12.115
53483SOL    HW262224   5.174   4.827  11.980
53484SOL     OW62225   5.932   2.256   9.601
53484SOL    HW162226   5.903   2.330   9.655
53484SOL    HW262227   5.937   2.293   9.513
53485SOL     OW62228  13.005   2.851   2.081
53485SOL    HW162229  13.063   2.872   2.154
53485SOL    HW262230  12.917   2.869   2.115
53486SOL     OW62231   9.239   8.115   2.652
53486SOL    HW162232   9.236   8.059   2.730
53486SOL    HW262233   9.289   8.192   2.680
53487SOL     OW62234   5.634   4.212   7.457
53487SOL    HW162235   5.551   4.259   7.463
53487SOL    HW262236   5.626   4.141   7.521
53488SOL     OW62237   4.605   0.521  14.387
53488SOL    HW162238   4.623   0.508  14.294
53488SOL    HW262239   4.618   0.435  14.427
53489SOL     OW62240  12.701   6.455   8.080
53489SOL    HW162241  12.751   6.374   8.097
53489SOL    HW262242  12.768   6.519   8.054
53490SOL     OW62243   9.172   3.297  11.620
53490SOL    HW162244   9.176   3.246  11.700
53490SOL    HW262245   9.170   3.232  11.550
53491SOL     OW62246  13.189   2.070   1.216
53491SOL    HW162247  13.171   2.005   1.284
53491SOL    HW262248  13.271   2.041   1.176
53492SOL     OW62249  14.830   0.461  10.999
53492SOL    HW162250  14.846   0.506  10.917
53492SOL    HW262251  14.746   0.418  10.987
53493SOL     OW62252  11.526   6.948   9.707
53493SOL    HW162253  11.534   6.854   9.696
53493SOL    HW262254  11.616   6.981   9.704
53494SOL     OW62255   7.150  11.338   0.621
53494SOL    HW162256   7.162  11.357   0.528
53494SOL    HW262257   7.212  11.268   0.640
53495SOL     OW62258   3.551   8.987   8.253
53495SOL    HW162259   3.499   8.990   8.173
53495SOL    HW262260   3.540   8.898   8.286
53496SOL     OW62261  14.824   7.800   1.705
53496SOL    HW162262  14.818   7.705   1.702
53496SOL    HW262263  14.778   7.825   1.786
53497SOL     OW62264  14.344   7.766   8.250
53497SOL    HW162265  14.302   7.701   8.194
53497SOL    HW262266  14.305   7.753   8.336
53498SOL     OW62267   5.215  14.749  10.766
53498SOL    HW162268   5.151  14.686  10.800
53498SOL    HW262269   5.295  14.698  10.754
53499SOL     OW62270   8.474  13.139   6.771
53499SOL    HW162271   8.530  13.201   6.723
53499SOL    HW262272   8.415  13.194   6.821
53500SOL     OW62273   8.464   1.327  11.627
53500SOL    HW162274   8.496   1.321  11.717
53500SOL    HW262275   8.540   1.309  11.573
53501SOL     OW62276   4.934   6.018  10.834
53501SOL    HW162277   4.987   6.092  10.804
53501SOL    HW262278   4.873   6.057  10.897
53502SOL     OW62279  13.695   4.845  13.976
53502SOL    HW162280  13.627   4.857  13.909
53502SOL    HW262281  13.690   4.752  13.998
53503SOL     OW62282  14.531  13.397   8.576
53503SOL    HW162283  14.472  13.429   8.645
53503SOL    HW262284  14.585  13.331   8.619
53504SOL     OW62285   0.866  13.143   8.313
53504SOL    HW162286   0.961  13.132   8.314
53504SOL    HW262287   0.836  13.084   8.244
53505SOL     OW62288  12.797  12.374   7.930
53505SOL    HW162289  12.822  12.345   7.842
53505SOL    HW262290  12.810  12.297   7.985
53506SOL     OW62291  10.956   3.861   3.858
53506SOL    HW162292  10.883   3.921   3.877
53506SOL    HW262293  11.010   3.865   3.937
53507SOL     OW62294  14.210   0.944   2.872
53507SOL    HW162295  14.202   1.038   2.886
53507SOL    HW262296  14.120   0.911   2.871
53508SOL     OW62297   4.439  12.519   8.206
53508SOL    HW162298   4.372  12.451   8.204
53508SOL    HW262299   4.521  12.472   8.190
53509SOL     OW62300  10.403   5.254  14.738
53509SOL    HW162301  10.406   5.185  14.672
53509SOL    HW262302  10.366   5.212  14.816
53510SOL     OW62303   2.471   1.683  10.861
53510SOL    HW162304   2.513   1.764  10.894
53510SOL    HW262305   2.401   1.666  10.924
53511SOL     OW62306   6.894   2.219   9.135
53511SOL    HW162307   6.830   2.210   9.065
53511SOL    HW262308   6.850   2.274   9.200
53512SOL     OW62309   9.475   0.038   4.688
53512SOL    HW162310   9.389   0.014   4.720
53512SOL    HW262311   9.534   0.019   4.760
53513SOL     OW62312  14.373  12.597   8.673
53513SOL    HW162313  14.336  12.654   8.740
53513SOL    HW262314  14.387  12.654   8.598
53514SOL     OW62315  13.306   2.797   3.455
53514SOL    HW162316  13.240   2.733   3.483
53514SOL    HW262317  13.291   2.806   3.360
53515SOL     OW62318   5.396   1.097   5.087
53515SOL    HW162319   5.355   1.044   5.018
53515SOL    HW262320   5.447   1.163   5.039
53516SOL     OW62321   7.290  13.105   1.710
53516SOL    HW162322   7.368  13.145   1.673
53516SOL    HW262323   7.318  13.071   1.795
53517SOL     OW62324   9.537  10.473   2.720
53517SOL    HW162325   9.551  10.567   2.718
53517SOL    HW262326   9.491  10.454   2.638
53518SOL     OW62327  11.080   6.445  14.875
53518SOL    HW162328  11.103   6.448   0.086
53518SOL    HW262329  10.996   6.490  14.869
53519SOL     OW62330   7.077   4.798   1.447
53519SOL    HW162331   7.035   4.712   1.452
53519SOL    HW262332   7.022   4.848   1.387
53520SOL     OW62333   5.243  11.389  12.772
53520SOL    HW162334   5.233  11.428  12.685
53520SOL    HW262335   5.194  11.447  12.830
53521SOL     OW62336   1.266   7.862   5.969
53521SOL    HW162337   1.230   7.937   6.017
53521SOL    HW262338   1.258   7.788   6.029
53522SOL     OW62339   4.260   3.057   8.486
53522SOL    HW162340   4.354   3.065   8.468
53522SOL    HW262341   4.230   2.989   8.425
53523SOL     OW62342  11.567   0.006   6.399
53523SOL    HW162343  11.502  14.846   6.342
53523SOL    HW262344  11.648   0.003   6.348
53524SOL     OW62345   4.064  11.375  13.104
53524SOL    HW162346   3.976  11.406  13.081
53524SOL    HW262347   4.063  11.281  13.083
53525SOL     OW62348   8.462   8.181   4.576
53525SOL    HW162349   8.399   8.171   4.648
53525SOL    HW262350   8.433   8.118   4.511
53526SOL     OW62351  13.648  11.862   2.744
53526SOL    HW162352  13.670  11.891   2.656
53526SOL    HW262353  13.675  11.933   2.801
53527SOL     OW62354   6.442   9.043  12.308
53527SOL    HW162355   6.379   8.975  12.331
53527SOL    HW262356   6.497   9.053  12.386
53528SOL     OW62357   5.881  13.026   0.914
53528SOL    HW162358   5.916  13.052   0.829
53528SOL    HW262359   5.958  13.020   0.970
53529SOL     OW62360   4.407  12.406  14.266
53529SOL    HW162361   4.403  12.462  14.343
53529SOL    HW262362   4.375  12.321  14.296
53530SOL     OW62363   6.436   4.858   8.892
53530SOL    HW162364   6.454   4.908   8.812
53530SOL    HW262365   6.520   4.820   8.916
53531SOL     OW62366   9.965   1.098   2.621
53531SOL    HW162367   9.906   1.024   2.605
53531SOL    HW262368  10.052   1.064   2.600
53532SOL     OW62369   5.394   8.550   6.276
53532SOL    HW162370   5.473   8.589   6.311
53532SOL    HW262371   5.420   8.462   6.250
53533SOL     OW62372   3.665   1.092   6.572
53533SOL    HW162373   3.733   1.086   6.639
53533SOL    HW262374   3.586   1.114   6.620
53534SOL     OW62375   3.526   4.695   3.109
53534SOL    HW162376   3.492   4.783   3.128
53534SOL    HW262377   3.571   4.669   3.190
53535SOL     OW62378   3.768   6.554  13.599
53535SOL    HW162379   3.855   6.578  13.630
53535SOL    HW262380   3.715   6.548  13.678
53536SOL     OW62381  13.284   4.746  13.578
53536SOL    HW162382  13.282   4.833  13.538
53536SOL    HW262383  13.220   4.695  13.528
53537SOL     OW62384   7.280   2.159   4.668
53537SOL    HW162385   7.375   2.167   4.683
53537SOL    HW262386   7.268   2.067   4.643
53538SOL     OW62387   2.172  14.545  14.135
53538SOL    HW162388   2.088  14.581  14.105
53538SOL    HW262389   2.168  14.553  14.231
53539SOL     OW62390  12.509  11.995  14.827
53539SOL    HW162391  12.426  12.006  14.872
53539SOL    HW262392  12.500  12.046  14.746
53540SOL     OW62393   4.450   7.385   5.498
53540SOL    HW162394   4.436   7.309   5.441
53540SOL    HW262395   4.362   7.411   5.525
53541SOL     OW62396  13.536  10.288   6.818
53541SOL    HW162397  13.526  10.222   6.887
53541SOL    HW262398  13.449  10.293   6.777
53542SOL     OW62399   1.879   9.842  13.983
53542SOL    HW162400   1.819   9.917  13.991
53542SOL    HW262401   1.918   9.834  14.070
53543SOL     OW62402  10.607   2.285  11.953
53543SOL    HW162403  10.602   2.208  12.009
53543SOL    HW262404  10.531   2.338  11.977
53544SOL     OW62405   7.071   0.717   9.656
53544SOL    HW162406   7.138   0.776   9.621
53544SOL    HW262407   7.031   0.766   9.728
53545SOL     OW62408   0.363   2.203   2.067
53545SOL    HW162409   0.286   2.258   2.053
53545SOL    HW262410   0.371   2.150   1.987
53546SOL     OW62411  12.773  10.868   9.563
53546SOL    HW162412  12.861  10.889   9.596
53546SOL    HW262413  12.717  10.872   9.641
53547SOL     OW62414   7.248   8.590   0.173
53547SOL    HW162415   7.207   8.595   0.087
53547SOL    HW262416   7.192   8.530   0.223
53548SOL     OW62417  13.767  14.003  14.408
53548SOL    HW162418  13.832  13.971  14.471
53548SOL    HW262419  13.699  13.935  14.407
53549SOL     OW62420   7.397   1.240   5.799
53549SOL    HW162421   7.397   1.184   5.721
53549SOL    HW262422   7.487   1.270   5.807
53550SOL     OW62423   9.178   8.339   1.412
53550SOL    HW162424   9.203   8.300   1.496
53550SOL    HW262425   9.091   8.375   1.428
53551SOL     OW62426  11.094   5.868   6.993
53551SOL    HW162427  11.132   5.899   6.912
53551SOL    HW262428  11.169   5.856   7.052
53552SOL     OW62429   5.275   0.143   4.869
53552SOL    HW162430   5.213   0.075   4.895
53552SOL    HW262431   5.276   0.204   4.943
53553SOL     OW62432  10.788  10.774   0.510
53553SOL    HW162433  10.791  10.832   0.434
53553SOL    HW262434  10.697  10.744   0.513
53554SOL     OW62435   0.244  12.221  12.093
53554SOL    HW162436   0.315  12.236  12.030
53554SOL    HW262437   0.260  12.132  12.125
53555SOL     OW62438   0.271  13.198  10.274
53555SOL    HW162439   0.328  13.186  10.350
53555SOL    HW262440   0.263  13.293  10.265
53556SOL     OW62441   9.339   2.112  10.697
53556SOL    HW162442   9.411   2.053  10.673
53556SOL    HW262443   9.313   2.153  10.614
53557SOL     OW62444   4.724   4.884   1.090
53557SOL    HW162445   4.671   4.805   1.083
53557SOL    HW262446   4.758   4.883   1.179
53558SOL     OW62447   9.213   9.751   1.938
53558SOL    HW162448   9.277   9.754   1.867
53558SOL    HW262449   9.188   9.842   1.952
53559SOL     OW62450  12.708   5.002   2.198
53559SOL    HW162451  12.731   5.094   2.207
53559SOL    HW262452  12.613   5.000   2.214
53560SOL     OW62453   8.669  11.723   7.060
53560SOL    HW162454   8.678  11.792   6.994
53560SOL    HW262455   8.725  11.652   7.028
53561SOL     OW62456  10.823   5.508   7.239
53561SOL    HW162457  10.782   5.456   7.171
53561SOL    HW262458  10.849   5.589   7.195
53562SOL     OW62459   0.866   2.510   9.267
53562SOL    HW162460   0.921   2.481   9.339
53562SOL    HW262461   0.896   2.459   9.191
53563SOL     OW62462  10.080   0.643   2.856
53563SOL    HW162463  10.065   0.627   2.763
53563SOL    HW262464   9.998   0.682   2.887
53564SOL     OW62465  14.710   5.206   0.722
53564SOL    HW162466  14.711   5.302   0.718
53564SOL    HW262467  14.723   5.186   0.815
53565SOL     OW62468  12.333   3.458   1.855
53565SOL    HW162469  12.369   3.411   1.931
53565SOL    HW262470  12.318   3.547   1.887
53566SOL     OW62471   7.576   5.124   3.805
53566SOL    HW162472   7.601   5.045   3.755
53566SOL    HW262473   7.562   5.093   3.894
53567SOL     OW62474  14.666   3.924  14.170
53567SOL    HW162475  14.714   3.931  14.252
53567SOL    HW262476  14.589   3.979  14.183
53568SOL     OW62477  14.669   1.640   1.202
53568SOL    HW162478  14.637   1.625   1.113
53568SOL    HW262479  14.600   1.606   1.259
53569SOL     OW62480   5.770   9.015   4.726
53569SOL    HW162481   5.699   8.953   4.708
53569SOL    HW262482   5.749   9.050   4.813
53570SOL     OW62483  12.591   3.802   3.181
53570SOL    HW162484  12.535   3.832   3.110
53570SOL    HW262485  12.678   3.793   3.142
53571SOL     OW62486   5.746   6.911  11.359
53571SOL    HW162487   5.723   7.004  11.363
53571SOL    HW262488   5.841   6.909  11.364
53572SOL     OW62489   2.632   7.799   2.540
53572SOL    HW162490   2.589   7.743   2.605
53572SOL    HW262491   2.560   7.838   2.491
53573SOL     OW62492   3.258  11.261   5.258
53573SOL    HW162493   3.300  11.325   5.316
53573SOL    HW262494   3.288  11.285   5.170
53574SOL     OW62495   1.593   5.841  12.038
53574SOL    HW162496   1.677   5.854  11.995
53574SOL    HW262497   1.531   5.892  11.986
53575SOL     OW62498  10.993   6.529   5.273
53575SOL    HW162499  11.015   6.460   5.335
53575SOL    HW262500  11.073   6.581   5.264
53576SOL     OW62501   1.130   3.691  13.309
53576SOL    HW162502   1.068   3.727  13.373
53576SOL    HW262503   1.214   3.689  13.356
53577SOL     OW62504  13.593   9.526  12.750
53577SOL    HW162505  13.547   9.541  12.667
53577SOL    HW262506  13.649   9.450  12.732
53578SOL     OW62507   7.985   3.851  14.468
53578SOL    HW162508   7.998   3.832  14.561
53578SOL    HW262509   7.912   3.912  14.466
53579SOL     OW62510   5.941  12.144   4.387
53579SOL    HW162511   5.851  12.175   4.398
53579SOL    HW262512   5.965  12.169   4.298
53580SOL     OW62513   9.589  11.761  12.028
53580SOL    HW162514   9.538  11.788  11.952
53580SOL    HW262515   9.604  11.668  12.015
53581SOL     OW62516   7.799   3.475   5.251
53581SOL    HW162517   7.819   3.534   5.324
53581SOL    HW262518   7.713   3.504   5.219
53582SOL     OW62519   0.527   6.127   5.135
53582SOL    HW162520   0.519   6.186   5.059
53582SOL    HW262521   0.480   6.048   5.108
53583SOL     OW62522   2.047   5.484   1.895
53583SOL    HW162523   2.008   5.451   1.814
53583SOL    HW262524   2.135   5.513   1.868
53584SOL     OW62525   3.722   9.847   4.996
53584SOL    HW162526   3.694   9.820   5.084
53584SOL    HW262527   3.644   9.889   4.959
53585SOL     OW62528   7.851  14.408   9.010
53585SOL    HW162529   7.877  14.490   9.052
53585SOL    HW262530   7.829  14.350   9.082
53586SOL     OW62531   0.811   7.459   9.120
53586SOL    HW162532   0.883   7.398   9.105
53586SOL    HW262533   0.852   7.534   9.163
53587SOL     OW62534   4.204   9.693   3.985
53587SOL    HW162535   4.265   9.752   4.029
53587SOL    HW262536   4.260   9.637   3.931
53588SOL     OW62537  11.530   7.449   7.178
53588SOL    HW162538  11.503   7.392   7.249
53588SOL    HW262539  11.555   7.531   7.220
53589SOL     OW62540  12.079   2.983   5.258
53589SOL    HW162541  11.994   2.994   5.216
53589SOL    HW262542  12.143   3.000   5.189
53590SOL     OW62543   1.107  12.022  10.862
53590SOL    HW162544   1.123  11.958  10.793
53590SOL    HW262545   1.028  11.991  10.906
53591SOL     OW62546  10.025   1.946   4.788
53591SOL    HW162547  10.027   2.040   4.769
53591SOL    HW262548   9.934   1.920   4.772
53592SOL     OW62549   8.636   9.051   0.012
53592SOL    HW162550   8.699   9.116  14.863
53592SOL    HW262551   8.592   9.093   0.086
53593SOL     OW62552  14.226   6.158  14.854
53593SOL    HW162553  14.168   6.099  14.806
53593SOL    HW262554  14.269   6.102   0.038
53594SOL     OW62555  14.494  13.869   7.304
53594SOL    HW162556  14.587  13.880   7.282
53594SOL    HW262557  14.478  13.933   7.373
53595SOL     OW62558   4.398   7.678   1.962
53595SOL    HW162559   4.334   7.676   1.892
53595SOL    HW262560   4.413   7.586   1.984
53596SOL     OW62561   8.374   7.352   2.230
53596SOL    HW162562   8.299   7.295   2.211
53596SOL    HW262563   8.350   7.396   2.312
53597SOL     OW62564   4.043  12.339   0.294
53597SOL    HW162565   4.051  12.267   0.357
53597SOL    HW262566   4.118  12.395   0.311
53598SOL     OW62567  10.693   1.063   8.114
53598SOL    HW162568  10.724   0.974   8.129
53598SOL    HW262569  10.771   1.113   8.091
53599SOL     OW62570   8.545  10.270   6.351
53599SOL    HW162571   8.619  10.210   6.349
53599SOL    HW262572   8.515  10.274   6.261
53600SOL     OW62573  11.409   4.150   6.548
53600SOL    HW162574  11.396   4.188   6.461
53600SOL    HW262575  11.504   4.138   6.554
53601SOL     OW62576   8.076  14.593   6.992
53601SOL    HW162577   8.113  14.505   6.994
53601SOL    HW262578   7.988  14.582   6.954
53602SOL     OW62579   6.363   4.490  12.175
53602SOL    HW162580   6.360   4.530  12.262
53602SOL    HW262581   6.429   4.542  12.127
53603SOL     OW62582   4.841   5.259  11.402
53603SOL    HW162583   4.798   5.344  11.397
53603SOL    HW262584   4.813   5.213  11.323
53604SOL     OW62585  13.837   1.962   5.623
53604SOL    HW162586  13.917   2.009   5.648
53604SOL    HW262587  13.863   1.870   5.621
53605SOL     OW62588  14.364  12.790  13.372
53605SOL    HW162589  14.408  12.849  13.311
53605SOL    HW262590  14.382  12.702  13.337
53606SOL     OW62591  12.126   5.720   0.804
53606SOL    HW162592  12.061   5.649   0.799
53606SOL    HW262593  12.174   5.702   0.885
53607SOL     OW62594  10.990  10.311   7.143
53607SOL    HW162595  10.906  10.267   7.156
53607SOL    HW262596  11.055  10.243   7.160
53608SOL     OW62597   0.657   2.807   1.894
53608SOL    HW162598   0.711   2.885   1.909
53608SOL    HW262599   0.702   2.737   1.941
53609SOL     OW62600  14.707  12.773  10.981
53609SOL    HW162601  14.635  12.723  10.942
53609SOL    HW262602  14.686  12.776  11.074
53610SOL     OW62603  12.918   2.169  13.707
53610SOL    HW162604  12.831   2.184  13.670
53610SOL    HW262605  12.933   2.245  13.764
53611SOL     OW62606   5.303   6.717   8.272
53611SOL    HW162607   5.292   6.812   8.261
53611SOL    HW262608   5.395   6.702   8.251
53612SOL     OW62609   8.497   6.463   9.465
53612SOL    HW162610   8.535   6.528   9.524
53612SOL    HW262611   8.556   6.388   9.471
53613SOL     OW62612   6.496  13.236   4.902
53613SOL    HW162613   6.416  13.287   4.915
53613SOL    HW262614   6.539  13.237   4.988
53614SOL     OW62615   5.740   0.431  14.396
53614SOL    HW162616   5.773   0.363  14.455
53614SOL    HW262617   5.818   0.473  14.361
53615SOL     OW62618   6.448  10.902   4.757
53615SOL    HW162619   6.440  10.808   4.743
53615SOL    HW262620   6.395  10.942   4.688
53616SOL     OW62621   7.972  13.772  12.179
53616SOL    HW162622   7.960  13.737  12.267
53616SOL    HW262623   7.895  13.828  12.165
53617SOL     OW62624   3.741  11.015   1.325
53617SOL    HW162625   3.655  11.004   1.285
53617SOL    HW262626   3.755  11.109   1.328
53618SOL     OW62627   4.863  12.954  12.893
53618SOL    HW162628   4.913  13.036  12.895
53618SOL    HW262629   4.843  12.940  12.800
53619SOL     OW62630  12.740   6.683   6.020
53619SOL    HW162631  12.660   6.635   6.043
53619SOL    HW262632  12.726   6.771   6.056
53620SOL     OW62633  11.942   8.298   1.967
53620SOL    HW162634  11.991   8.305   1.885
53620SOL    HW262635  11.954   8.208   1.995
53621SOL     OW62636  14.735  14.729  13.145
53621SOL    HW162637  14.659  14.783  13.123
53621SOL    HW262638  14.758  14.756  13.234
53622SOL     OW62639  12.311   3.854   3.668
53622SOL    HW162640  12.267   3.821   3.590
53622SOL    HW262641  12.303   3.949   3.661
53623SOL     OW62642   9.968   7.027   6.305
53623SOL    HW162643  10.020   7.078   6.243
53623SOL    HW262644  10.027   7.013   6.379
53624SOL     OW62645  14.196  12.994  14.230
53624SOL    HW162646  14.203  12.962  14.140
53624SOL    HW262647  14.240  13.079  14.229
53625SOL     OW62648   9.508   5.136  11.500
53625SOL    HW162649   9.493   5.230  11.492
53625SOL    HW262650   9.436   5.096  11.452
53626SOL     OW62651  14.314   4.018   6.921
53626SOL    HW162652  14.279   4.095   6.877
53626SOL    HW262653  14.336   4.049   7.009
53627SOL     OW62654  13.831   2.022   5.285
53627SOL    HW162655  13.855   2.048   5.196
53627SOL    HW262656  13.909   1.978   5.319
53628SOL     OW62657   5.195  12.454  11.468
53628SOL    HW162658   5.209  12.385  11.533
53628SOL    HW262659   5.217  12.535  11.514
53629SOL     OW62660  10.631  10.756   4.623
53629SOL    HW162661  10.599  10.731   4.710
53629SOL    HW262662  10.552  10.769   4.571
53630SOL     OW62663   8.672   7.279   3.908
53630SOL    HW162664   8.656   7.269   3.814
53630SOL    HW262665   8.718   7.362   3.916
53631SOL     OW62666   2.457   7.350  14.673
53631SOL    HW162667   2.413   7.345  14.588
53631SOL    HW262668   2.548   7.369  14.651
53632SOL     OW62669   7.308   7.551   5.552
53632SOL    HW162670   7.240   7.526   5.615
53632SOL    HW262671   7.356   7.622   5.596
53633SOL     OW62672  12.292  14.328  10.918
53633SOL    HW162673  12.201  14.320  10.943
53633SOL    HW262674  12.335  14.251  10.955
53634SOL     OW62675   8.172   7.949  12.520
53634SOL    HW162676   8.258   7.909  12.531
53634SOL    HW262677   8.111   7.876  12.514
53635SOL     OW62678  10.810   7.000   9.131
53635SOL    HW162679  10.883   7.015   9.071
53635SOL    HW262680  10.791   6.907   9.122
53636SOL     OW62681  13.692   3.660   9.829
53636SOL    HW162682  13.616   3.712   9.856
53636SOL    HW262683  13.716   3.611   9.907
53637SOL     OW62684   9.064   2.708   8.185
53637SOL    HW162685   9.017   2.664   8.114
53637SOL    HW262686   9.156   2.683   8.172
53638SOL     OW62687  14.410   7.551  11.560
53638SOL    HW162688  14.459   7.592  11.489
53638SOL    HW262689  14.334   7.608  11.573
53639SOL     OW62690  11.162  11.092   1.123
53639SOL    HW162691  11.194  11.182   1.118
53639SOL    HW262692  11.153  11.075   1.216
53640SOL     OW62693   2.671   0.588   4.314
53640SOL    HW162694   2.703   0.645   4.243
53640SOL    HW262695   2.712   0.503   4.297
53641SOL     OW62696   2.930  10.856  12.820
53641SOL    HW162697   2.911  10.941  12.859
53641SOL    HW262698   2.974  10.877  12.737
53642SOL     OW62699  11.950   2.416   9.329
53642SOL    HW162700  11.991   2.420   9.243
53642SOL    HW262701  12.023   2.423   9.391
53643SOL     OW62702   2.538  11.444  13.776
53643SOL    HW162703   2.591  11.522  13.794
53643SOL    HW262704   2.482  11.435  13.853
53644SOL     OW62705  10.170  12.301   2.467
53644SOL    HW162706  10.262  12.303   2.443
53644SOL    HW262707  10.151  12.390   2.497
53645SOL     OW62708  14.361  12.223  14.661
53645SOL    HW162709  14.295  12.214  14.729
53645SOL    HW262710  14.342  12.153  14.599
53646SOL     OW62711   1.620   8.620  14.099
53646SOL    HW162712   1.588   8.709  14.088
53646SOL    HW262713   1.693   8.628  14.161
53647SOL     OW62714  13.230   8.006   6.643
53647SOL    HW162715  13.276   7.961   6.572
53647SOL    HW262716  13.193   7.936   6.696
53648SOL     OW62717   7.941  14.488   9.584
53648SOL    HW162718   8.002  14.459   9.517
53648SOL    HW262719   7.943  14.419   9.651
53649SOL     OW62720   8.364   7.776   8.126
53649SOL    HW162721   8.394   7.867   8.122
53649SOL    HW262722   8.269   7.781   8.116
53650SOL     OW62723   7.494  12.883   0.167
53650SOL    HW162724   7.490  12.830   0.088
53650SOL    HW262725   7.519  12.970   0.138
53651SOL     OW62726  11.900  10.315  10.696
53651SOL    HW162727  11.862  10.319  10.784
53651SOL    HW262728  11.867  10.393  10.652
53652SOL     OW62729   8.962   4.339   7.710
53652SOL    HW162730   8.912   4.351   7.791
53652SOL    HW262731   8.965   4.244   7.699
53653SOL     OW62732   0.020   3.957   6.100
53653SOL    HW162733   0.060   3.960   6.187
53653SOL    HW262734   0.080   3.904   6.047
53654SOL     OW62735  14.150  12.522  10.427
53654SOL    HW162736  14.121  12.478  10.507
53654SOL    HW262737  14.239  12.488  10.412
53655SOL     OW62738   3.154   3.301   4.212
53655SOL    HW162739   3.175   3.265   4.298
53655SOL    HW262740   3.129   3.225   4.159
53656SOL     OW62741   4.794   5.469  11.150
53656SOL    HW162742   4.851   5.452  11.075
53656SOL    HW262743   4.706   5.477  11.112
53657SOL     OW62744  13.785   2.528   9.905
53657SOL    HW162745  13.848   2.469   9.864
53657SOL    HW262746  13.722   2.470   9.949
53658SOL     OW62747  11.734  12.383   9.534
53658SOL    HW162748  11.649  12.426   9.524
53658SOL    HW262749  11.798  12.452   9.517
53659SOL     OW62750   6.588   7.277   0.768
53659SOL    HW162751   6.592   7.341   0.839
53659SOL    HW262752   6.575   7.329   0.689
53660SOL     OW62753   7.568   1.215   2.385
53660SOL    HW162754   7.578   1.120   2.385
53660SOL    HW262755   7.641   1.247   2.437
53661SOL     OW62756  11.740  11.281  12.777
53661SOL    HW162757  11.745  11.288  12.681
53661SOL    HW262758  11.823  11.243  12.803
53662SOL     OW62759   9.467   2.134  10.341
53662SOL    HW162760   9.441   2.145  10.250
53662SOL    HW262761   9.399   2.178  10.391
53663SOL     OW62762  13.071   3.880   8.380
53663SOL    HW162763  13.121   3.933   8.441
53663SOL    HW262764  13.104   3.904   8.294
53664SOL     OW62765   5.346  13.125   1.929
53664SOL    HW162766   5.337  13.207   1.880
53664SOL    HW262767   5.419  13.080   1.885
53665SOL     OW62768  12.854  13.871   6.364
53665SOL    HW162769  12.833  13.863   6.271
53665SOL    HW262770  12.814  13.794   6.404
53666SOL     OW62771  12.698   0.121   2.245
53666SOL    HW162772  12.732   0.103   2.157
53666SOL    HW262773  12.725   0.045   2.296
53667SOL     OW62774   0.851   9.659   1.529
53667SOL    HW162775   0.773   9.615   1.563
53667SOL    HW262776   0.838   9.663   1.435
53668SOL     OW62777   2.686  14.033   9.321
53668SOL    HW162778   2.695  14.114   9.370
53668SOL    HW262779   2.726  13.966   9.377
53669SOL     OW62780  14.602   9.659   7.570
53669SOL    HW162781  14.509   9.665   7.548
53669SOL    HW262782  14.613   9.572   7.606
53670SOL     OW62783  13.198   6.821  13.584
53670SOL    HW162784  13.221   6.830  13.491
53670SOL    HW262785  13.275   6.779  13.624
53671SOL     OW62786  14.631   0.871   0.592
53671SOL    HW162787  14.658   0.780   0.600
53671SOL    HW262788  14.686   0.906   0.522
53672SOL     OW62789   6.179   2.593  12.353
53672SOL    HW162790   6.136   2.643  12.284
53672SOL    HW262791   6.183   2.653  12.427
53673SOL     OW62792   4.700   7.576  10.573
53673SOL    HW162793   4.685   7.490  10.533
53673SOL    HW262794   4.754   7.557  10.650
53674SOL     OW62795   0.704  10.163  14.711
53674SOL    HW162796   0.727  10.071  14.702
53674SOL    HW262797   0.706  10.197  14.621
53675SOL     OW62798   8.934   2.537   4.087
53675SOL    HW162799   8.932   2.591   4.166
53675SOL    HW262800   8.882   2.585   4.023
53676SOL     OW62801  14.489   1.395  13.833
53676SOL    HW162802  14.473   1.322  13.773
53676SOL    HW262803  14.476   1.474  13.779
53677SOL     OW62804   1.918   7.071  10.609
53677SOL    HW162805   1.842   7.123  10.635
53677SOL    HW262806   1.882   6.999  10.557
53678SOL     OW62807   0.371   7.387  10.245
53678SOL    HW162808   0.429   7.315  10.266
53678SOL    HW262809   0.342   7.420  10.331
53679SOL     OW62810  11.130   6.464  13.436
53679SOL    HW162811  11.181   6.477  13.356
53679SOL    HW262812  11.102   6.552  13.462
53680SOL     OW62813   2.949  13.785  10.149
53680SOL    HW162814   2.965  13.694  10.127
53680SOL    HW262815   2.875  13.783  10.211
53681SOL     OW62816   8.850   3.505   0.359
53681SOL    HW162817   8.789   3.439   0.393
53681SOL    HW262818   8.799   3.586   0.360
53682SOL     OW62819   6.268   6.665  11.015
53682SOL    HW162820   6.346   6.608  11.014
53682SOL    HW262821   6.219   6.636  11.091
53683SOL     OW62822   6.460  13.284  11.355
53683SOL    HW162823   6.502  13.234  11.284
53683SOL    HW262824   6.383  13.323  11.314
53684SOL     OW62825   0.079  14.062  13.005
53684SOL    HW162826   0.149  14.057  12.940
53684SOL    HW262827   0.011  14.002  12.973
53685SOL     OW62828   3.768   9.566   9.658
53685SOL    HW162829   3.824   9.607   9.592
53685SOL    HW262830   3.825   9.552   9.733
53686SOL     OW62831   7.002   8.771   2.675
53686SOL    HW162832   6.907   8.759   2.674
53686SOL    HW262833   7.019   8.828   2.599
53687SOL     OW62834   5.594  12.881  12.498
53687SOL    HW162835   5.507  12.915  12.479
53687SOL    HW262836   5.583  12.830  12.578
53688SOL     OW62837   4.113  10.152   8.092
53688SOL    HW162838   4.199  10.117   8.070
53688SOL    HW262839   4.129  10.244   8.114
53689SOL     OW62840   0.601  13.463  11.352
53689SOL    HW162841   0.510  13.453  11.381
53689SOL    HW262842   0.649  13.398  11.404
53690SOL     OW62843   0.056  13.089   3.442
53690SOL    HW162844   0.078  13.017   3.383
53690SOL    HW262845   0.111  13.162   3.412
53691SOL     OW62846   3.311   4.353   2.660
53691SOL    HW162847   3.345   4.338   2.572
53691SOL    HW262848   3.336   4.444   2.680
53692SOL     OW62849   7.010  11.134   9.533
53692SOL    HW162850   7.028  11.092   9.618
53692SOL    HW262851   6.939  11.082   9.496
53693SOL     OW62852  10.971   6.986  10.439
53693SOL    HW162853  10.891   6.997  10.387
53693SOL    HW262854  11.032   6.943  10.379
53694SOL     OW62855  13.503   2.268   7.478
53694SOL    HW162856  13.484   2.265   7.385
53694SOL    HW262857  13.492   2.178   7.508
53695SOL     OW62858  12.609  12.358   9.981
53695SOL    HW162859  12.659  12.280  10.004
53695SOL    HW262860  12.668  12.431  10.000
53696SOL     OW62861   0.159   4.304   0.473
53696SOL    HW162862   0.170   4.354   0.554
53696SOL    HW262863   0.217   4.346   0.410
53697SOL     OW62864   7.708   8.671  12.231
53697SOL    HW162865   7.710   8.599  12.295
53697SOL    HW262866   7.709   8.628  12.146
53698SOL     OW62867   1.310   6.667   6.155
53698SOL    HW162868   1.252   6.662   6.079
53698SOL    HW262869   1.273   6.605   6.218
53699SOL     OW62870  14.028   1.544  11.358
53699SOL    HW162871  13.991   1.624  11.394
53699SOL    HW262872  14.020   1.480  11.429
53700SOL     OW62873   8.971   3.121   1.157
53700SOL    HW162874   8.964   3.180   1.083
53700SOL    HW262875   8.980   3.178   1.233
53701SOL     OW62876  11.668   1.911   8.568
53701SOL    HW162877  11.725   1.851   8.520
53701SOL    HW262878  11.580   1.882   8.547
53702SOL     OW62879   0.330   2.802   4.565
53702SOL    HW162880   0.418   2.833   4.583
53702SOL    HW262881   0.273   2.857   4.619
53703SOL     OW62882   5.206  14.512  12.127
53703SOL    HW162883   5.115  14.510  12.157
53703SOL    HW262884   5.199  14.509  12.032
53704SOL     OW62885   8.477   5.948   8.884
53704SOL    HW162886   8.558   5.940   8.833
53704SOL    HW262887   8.476   6.040   8.912
53705SOL     OW62888   5.304  12.095   5.983
53705SOL    HW162889   5.310  12.157   6.056
53705SOL    HW262890   5.393  12.062   5.971
53706SOL     OW62891  13.253  13.484   3.842
53706SOL    HW162892  13.181  13.497   3.904
53706SOL    HW262893  13.332  13.490   3.897
53707SOL     OW62894  10.029  10.983   2.177
53707SOL    HW162895  10.040  11.075   2.199
53707SOL    HW262896  10.041  10.936   2.259
53708SOL     OW62897  12.278   1.653   6.259
53708SOL    HW162898  12.283   1.618   6.348
53708SOL    HW262899  12.195   1.701   6.256
53709SOL     OW62900   9.973   6.284  14.027
53709SOL    HW162901  10.058   6.326  14.035
53709SOL    HW262902   9.923   6.315  14.103
53710SOL     OW62903   9.461   6.010   0.730
53710SOL    HW162904   9.471   6.007   0.635
53710SOL    HW262905   9.367   6.019   0.743
53711SOL     OW62906   3.377   0.679   2.623
53711SOL    HW162907   3.443   0.745   2.599
53711SOL    HW262908   3.308   0.689   2.557
53712SOL     OW62909   5.722   5.048   6.845
53712SOL    HW162910   5.703   4.994   6.767
53712SOL    HW262911   5.705   5.137   6.817
53713SOL     OW62912   1.454   9.986   7.166
53713SOL    HW162913   1.429   9.898   7.192
53713SOL    HW262914   1.386  10.013   7.105
53714SOL     OW62915   2.705   1.675  14.091
53714SOL    HW162916   2.673   1.591  14.059
53714SOL    HW262917   2.766   1.653  14.162
53715SOL     OW62918  12.743   4.686  13.325
53715SOL    HW162919  12.665   4.637  13.351
53715SOL    HW262920  12.758   4.747  13.398
53716SOL     OW62921  12.016   4.637  11.331
53716SOL    HW162922  12.074   4.604  11.399
53716SOL    HW262923  11.963   4.561  11.306
53717SOL     OW62924  11.554   5.961   1.114
53717SOL    HW162925  11.566   6.054   1.133
53717SOL    HW262926  11.510   5.926   1.191
53718SOL     OW62927  13.002  10.383   2.335
53718SOL    HW162928  13.041  10.307   2.291
53718SOL    HW262929  12.990  10.447   2.265
53719SOL     OW62930  11.123   5.569   6.797
53719SOL    HW162931  11.178   5.491   6.805
53719SOL    HW262932  11.049   5.552   6.856
53720SOL     OW62933   7.552  14.751  10.576
53720SOL    HW162934   7.479  14.747  10.514
53720SOL    HW262935   7.596  14.667  10.568
53721SOL     OW62936   5.499  12.701  10.396
53721SOL    HW162937   5.416  12.655  10.387
53721SOL    HW262938   5.476  12.794  10.396
53722SOL     OW62939  14.053   5.081  12.228
53722SOL    HW162940  14.082   5.117  12.311
53722SOL    HW262941  14.127   5.027  12.199
53723SOL     OW62942   7.734   5.344   5.619
53723SOL    HW162943   7.667   5.276   5.620
53723SOL    HW262944   7.720   5.393   5.700
53724SOL     OW62945   4.355   3.831  10.899
53724SOL    HW162946   4.305   3.833  10.817
53724SOL    HW262947   4.307   3.889  10.958
53725SOL     OW62948  13.355  13.713   8.911
53725SOL    HW162949  13.447  13.698   8.890
53725SOL    HW262950  13.354  13.735   9.004
53726SOL     OW62951  14.710  13.387  12.378
53726SOL    HW162952  14.765  13.327  12.429
53726SOL    HW262953  14.622  13.350  12.383
53727SOL     OW62954   3.393  12.221  10.296
53727SOL    HW162955   3.459  12.195  10.231
53727SOL    HW262956   3.432  12.298  10.339
53728SOL     OW62957   6.263  10.109  12.340
53728SOL    HW162958   6.230  10.157  12.264
53728SOL    HW262959   6.186  10.089  12.392
53729SOL     OW62960  10.898  10.892   6.370
53729SOL    HW162961  10.952  10.862   6.443
53729SOL    HW262962  10.809  10.894   6.405
53730SOL     OW62963   0.138   6.206   4.561
53730SOL    HW162964   0.105   6.143   4.625
53730SOL    HW262965   0.107   6.174   4.476
53731SOL     OW62966   8.723  14.246   8.210
53731SOL    HW162967   8.732  14.201   8.126
53731SOL    HW262968   8.697  14.177   8.272
53732SOL     OW62969   7.692  10.916   5.944
53732SOL    HW162970   7.627  10.932   5.876
53732SOL    HW262971   7.727  10.829   5.924
53733SOL     OW62972   4.358  11.333   2.372
53733SOL    HW162973   4.344  11.255   2.319
53733SOL    HW262974   4.444  11.320   2.412
53734SOL     OW62975   7.985   9.810   2.380
53734SOL    HW162976   7.922   9.882   2.380
53734SOL    HW262977   7.969   9.763   2.299
53735SOL     OW62978   2.917   4.980   3.592
53735SOL    HW162979   3.008   4.997   3.616
53735SOL    HW262980   2.893   5.053   3.536
53736SOL     OW62981   1.320   5.760   0.949
53736SOL    HW162982   1.238   5.785   0.907
53736SOL    HW262983   1.294   5.704   1.022
53737SOL     OW62984   7.463   9.318   0.076
53737SOL    HW162985   7.477   9.374   0.152
53737SOL    HW262986   7.443   9.232   0.113
53738SOL     OW62987   4.751   9.981  10.964
53738SOL    HW162988   4.719  10.002  10.876
53738SOL    HW262989   4.820  10.046  10.981
53739SOL     OW62990   2.827   6.847   3.996
53739SOL    HW162991   2.793   6.898   4.070
53739SOL    HW262992   2.796   6.757   4.014
53740SOL     OW62993  14.810   1.336   5.380
53740SOL    HW162994  14.805   1.261   5.439
53740SOL    HW262995   0.022   1.347   5.364
53741SOL     OW62996  14.271   9.981  14.285
53741SOL    HW162997  14.288   9.920  14.357
53741SOL    HW262998  14.185  10.017  14.304
53742SOL     OW62999   6.210   5.548  12.219
53742SOL    HW163000   6.262   5.513  12.147
53742SOL    HW263001   6.125   5.504  12.211
53743SOL     OW63002   1.530   9.719   6.900
53743SOL    HW163003   1.555   9.811   6.888
53743SOL    HW263004   1.545   9.702   6.993
53744SOL     OW63005   5.472   7.934   3.913
53744SOL    HW163006   5.532   7.975   3.975
53744SOL    HW263007   5.418   7.877   3.967
53745SOL     OW63008   3.860  10.507   8.928
53745SOL    HW163009   3.827  10.519   9.017
53745SOL    HW263010   3.803  10.561   8.874
53746SOL     OW63011  13.718   1.566   9.732
53746SOL    HW163012  13.720   1.598   9.642
53746SOL    HW263013  13.625   1.562   9.754
53747SOL     OW63014   6.868   5.855   0.718
53747SOL    HW163015   6.796   5.869   0.781
53747SOL    HW263016   6.835   5.786   0.660
53748SOL     OW63017   6.583  13.561  13.281
53748SOL    HW163018   6.656  13.506  13.309
53748SOL    HW263019   6.589  13.563  13.186
53749SOL     OW63020  14.827  14.512  10.605
53749SOL    HW163021  14.761  14.482  10.667
53749SOL    HW263022   0.022  14.532  10.659
53750SOL     OW63023  12.379  13.047   5.414
53750SOL    HW163024  12.427  12.973   5.451
53750SOL    HW263025  12.447  13.106   5.383
53751SOL     OW63026  14.584   4.027  13.299
53751SOL    HW163027  14.666   4.070  13.322
53751SOL    HW263028  14.568   3.965  13.371
53752SOL     OW63029   4.937  12.176   9.807
53752SOL    HW163030   4.866  12.124   9.843
53752SOL    HW263031   4.952  12.140   9.719
53753SOL     OW63032  11.349   3.802  11.053
53753SOL    HW163033  11.442   3.789  11.038
53753SOL    HW263034  11.331   3.890  11.022
53754SOL     OW63035   0.656   3.899   3.486
53754SOL    HW163036   0.728   3.902   3.548
53754SOL    HW263037   0.621   3.988   3.485
53755SOL     OW63038  14.771   2.885   2.706
53755SOL    HW163039  14.826   2.812   2.677
53755SOL    HW263040  14.697   2.885   2.646
53756SOL     OW63041   2.594   1.202   1.131
53756SOL    HW163042   2.660   1.134   1.143
53756SOL    HW263043   2.610   1.235   1.043
53757SOL     OW63044   5.321   6.936  13.567
53757SOL    HW163045   5.371   6.978  13.498
53757SOL    HW263046   5.382   6.928  13.640
53758SOL     OW63047   0.035   2.296   6.800
53758SOL    HW163048   0.017   2.229   6.866
53758SOL    HW263049   0.081   2.364   6.848
53759SOL     OW63050   8.061   9.754   0.077
53759SOL    HW163051   7.973   9.716   0.077
53759SOL    HW263052   8.094   9.738   0.166
53760SOL     OW63053   4.103   7.793   3.399
53760SOL    HW163054   4.172   7.817   3.461
53760SOL    HW263055   4.110   7.858   3.329
53761SOL     OW63056   4.362  13.778   5.993
53761SOL    HW163057   4.389  13.743   5.908
53761SOL    HW263058   4.354  13.701   6.049
53762SOL     OW63059   3.279   3.151   5.150
53762SOL    HW163060   3.327   3.232   5.169
53762SOL    HW263061   3.291   3.097   5.228
53763SOL     OW63062   0.949  13.324   1.766
53763SOL    HW163063   0.994  13.376   1.698
53763SOL    HW263064   0.944  13.236   1.730
53764SOL     OW63065   1.747  11.550   7.933
53764SOL    HW163066   1.679  11.616   7.921
53764SOL    HW263067   1.759  11.544   8.028
53765SOL     OW63068   6.648   6.275   7.316
53765SOL    HW163069   6.743   6.261   7.319
53765SOL    HW263070   6.637   6.349   7.256
53766SOL     OW63071   2.232   3.646   7.954
53766SOL    HW163072   2.325   3.642   7.929
53766SOL    HW263073   2.198   3.722   7.907
53767SOL     OW63074   2.885   7.466   3.297
53767SOL    HW163075   2.820   7.402   3.269
53767SOL    HW263076   2.945   7.417   3.352
53768SOL     OW63077   6.338   9.738   9.338
53768SOL    HW163078   6.368   9.795   9.410
53768SOL    HW263079   6.383   9.773   9.260
53769SOL     OW63080   6.335   9.357   0.441
53769SOL    HW163081   6.321   9.297   0.368
53769SOL    HW263082   6.247   9.372   0.477
53770SOL     OW63083   6.769   0.526  12.520
53770SOL    HW163084   6.781   0.431  12.514
53770SOL    HW263085   6.802   0.560  12.437
53771SOL     OW63086   9.182   1.819   4.342
53771SOL    HW163087   9.232   1.821   4.261
53771SOL    HW263088   9.176   1.911   4.369
53772SOL     OW63089  10.397   0.741  13.894
53772SOL    HW163090  10.424   0.833  13.890
53772SOL    HW263091  10.312   0.744  13.937
53773SOL     OW63092   1.020   6.543   8.455
53773SOL    HW163093   1.051   6.630   8.480
53773SOL    HW263094   1.096   6.502   8.414
53774SOL     OW63095  14.611   9.231   2.182
53774SOL    HW163096  14.569   9.203   2.264
53774SOL    HW263097  14.539   9.249   2.123
53775SOL     OW63098   0.763   4.662   7.561
53775SOL    HW163099   0.857   4.679   7.556
53775SOL    HW263100   0.756   4.573   7.594
53776SOL     OW63101  12.239   5.855   3.958
53776SOL    HW163102  12.195   5.860   3.873
53776SOL    HW263103  12.331   5.839   3.936
53777SOL     OW63104   5.899   8.026   6.050
53777SOL    HW163105   5.965   8.095   6.038
53777SOL    HW263106   5.921   7.986   6.134
53778SOL     OW63107  12.000   5.800   6.936
53778SOL    HW163108  12.071   5.860   6.957
53778SOL    HW263109  11.967   5.831   6.851
53779SOL     OW63110   3.197   8.503  10.096
53779SOL    HW163111   3.158   8.577  10.050
53779SOL    HW263112   3.265   8.471  10.037
53780SOL     OW63113   0.691   7.164  10.974
53780SOL    HW163114   0.693   7.259  10.986
53780SOL    HW263115   0.613   7.135  11.022
53781SOL     OW63116   4.137   5.593   3.381
53781SOL    HW163117   4.137   5.517   3.440
53781SOL    HW263118   4.223   5.591   3.339
53782SOL     OW63119  12.226   5.220  12.300
53782SOL    HW163120  12.185   5.260  12.377
53782SOL    HW263121  12.320   5.224  12.319
53783SOL     OW63122   2.035  12.552   9.524
53783SOL    HW163123   1.993  12.631   9.489
53783SOL    HW263124   2.125  12.557   9.491
53784SOL     OW63125  13.679  12.052   4.546
53784SOL    HW163126  13.720  12.066   4.631
53784SOL    HW263127  13.746  12.079   4.482
53785SOL     OW63128  11.224   5.982   6.782
53785SOL    HW163129  11.211   6.010   6.692
53785SOL    HW263130  11.317   5.961   6.788
53786SOL     OW63131   8.463   6.406  13.897
53786SOL    HW163132   8.458   6.349  13.974
53786SOL    HW263133   8.528   6.365  13.840
53787SOL     OW63134   2.535  10.892  11.338
53787SOL    HW163135   2.614  10.844  11.313
53787SOL    HW263136   2.556  10.984  11.321
53788SOL     OW63137   0.210   0.619  11.032
53788SOL    HW163138   0.196   0.709  11.004
53788SOL    HW263139   0.122   0.580  11.030
53789SOL     OW63140   5.151   9.379   7.640
53789SOL    HW163141   5.068   9.401   7.599
53789SOL    HW263142   5.182   9.302   7.591
53790SOL     OW63143   4.725   9.764   8.821
53790SOL    HW163144   4.706   9.683   8.773
53790SOL    HW263145   4.666   9.762   8.896
53791SOL     OW63146   2.495  11.069   2.529
53791SOL    HW163147   2.572  11.023   2.497
53791SOL    HW263148   2.466  11.018   2.604
53792SOL     OW63149  11.944  12.545  11.379
53792SOL    HW163150  12.025  12.594  11.397
53792SOL    HW263151  11.947  12.529  11.285
53793SOL     OW63152  13.336   2.381   3.512
53793SOL    HW163153  13.385   2.373   3.430
53793SOL    HW263154  13.245   2.364   3.487
53794SOL     OW63155  12.503   0.577  10.821
53794SOL    HW163156  12.571   0.517  10.851
53794SOL    HW263157  12.421   0.532  10.839
53795SOL     OW63158   1.997   5.560  10.224
53795SOL    HW163159   1.941   5.486  10.200
53795SOL    HW263160   1.943   5.638  10.207
53796SOL     OW63161   4.595   9.707  14.130
53796SOL    HW163162   4.608   9.800  14.117
53796SOL    HW263163   4.655   9.665  14.068
53797SOL     OW63164   5.114   7.158   2.878
53797SOL    HW163165   5.074   7.226   2.931
53797SOL    HW263166   5.114   7.081   2.935
53798SOL     OW63167   9.945   0.456  11.005
53798SOL    HW163168   9.923   0.467  10.912
53798SOL    HW263169   9.925   0.541  11.044
53799SOL     OW63170   8.386   9.528   8.040
53799SOL    HW163171   8.330   9.577   8.100
53799SOL    HW263172   8.435   9.468   8.097
53800SOL     OW63173  11.925   4.861   8.475
53800SOL    HW163174  11.966   4.909   8.403
53800SOL    HW263175  11.991   4.796   8.501
53801SOL     OW63176   6.094   4.292   5.330
53801SOL    HW163177   6.130   4.378   5.353
53801SOL    HW263178   6.125   4.234   5.399
53802SOL     OW63179   6.920   7.701   4.150
53802SOL    HW163180   6.855   7.769   4.133
53802SOL    HW263181   6.869   7.624   4.176
53803SOL     OW63182  10.590   8.655  12.102
53803SOL    HW163183  10.572   8.568  12.065
53803SOL    HW263184  10.676   8.646  12.143
53804SOL     OW63185   5.907   0.317   6.180
53804SOL    HW163186   5.958   0.393   6.154
53804SOL    HW263187   5.919   0.311   6.275
53805SOL     OW63188   8.338   0.334  11.595
53805SOL    HW163189   8.347   0.419  11.637
53805SOL    HW263190   8.339   0.271  11.667
53806SOL     OW63191   6.603   5.804  13.900
53806SOL    HW163192   6.620   5.893  13.933
53806SOL    HW263193   6.687   5.776  13.864
53807SOL     OW63194   2.791  12.793   6.855
53807SOL    HW163195   2.819  12.883   6.868
53807SOL    HW263196   2.696  12.798   6.844
53808SOL     OW63197   1.722   3.505  12.028
53808SOL    HW163198   1.677   3.556  12.095
53808SOL    HW263199   1.652   3.464  11.977
53809SOL     OW63200   3.556   5.589  10.818
53809SOL    HW163201   3.579   5.571  10.909
53809SOL    HW263202   3.629   5.553  10.768
53810SOL     OW63203  10.423   2.223   2.383
53810SOL    HW163204  10.503   2.172   2.381
53810SOL    HW263205  10.411   2.246   2.476
53811SOL     OW63206   3.498   4.352   3.937
53811SOL    HW163207   3.423   4.378   3.990
53811SOL    HW263208   3.558   4.310   3.998
53812SOL     OW63209   3.419  13.862  13.032
53812SOL    HW163210   3.382  13.881  12.946
53812SOL    HW263211   3.509  13.893  13.027
53813SOL     OW63212   2.787  11.821   3.572
53813SOL    HW163213   2.875  11.858   3.574
53813SOL    HW263214   2.762  11.812   3.663
53814SOL     OW63215  11.968   9.361  14.730
53814SOL    HW163216  11.982   9.414  14.651
53814SOL    HW263217  11.874   9.345  14.731
53815SOL     OW63218   2.508   9.106   2.080
53815SOL    HW163219   2.564   9.091   2.004
53815SOL    HW263220   2.500   9.020   2.122
53816SOL     OW63221   3.126   4.666  10.631
53816SOL    HW163222   3.062   4.595  10.643
53816SOL    HW263223   3.073   4.746  10.631
53817SOL     OW63224   2.017  11.070  11.883
53817SOL    HW163225   2.111  11.080  11.867
53817SOL    HW263226   1.992  10.993  11.832
53818SOL     OW63227  11.512   0.952   3.057
53818SOL    HW163228  11.429   0.914   3.029
53818SOL    HW263229  11.487   1.032   3.104
53819SOL     OW63230  14.542  13.699  12.662
53819SOL    HW163231  14.560  13.752  12.740
53819SOL    HW263232  14.602  13.625  12.669
53820SOL     OW63233   9.683  10.099  12.218
53820SOL    HW163234   9.757  10.070  12.272
53820SOL    HW263235   9.624  10.141  12.280
53821SOL     OW63236  14.734   9.438  12.808
53821SOL    HW163237  14.689   9.466  12.887
53821SOL    HW263238  14.719   9.343  12.804
53822SOL     OW63239   6.098   3.296   8.493
53822SOL    HW163240   6.037   3.231   8.457
53822SOL    HW263241   6.050   3.378   8.490
53823SOL     OW63242   6.489   4.573   7.579
53823SOL    HW163243   6.564   4.627   7.555
53823SOL    HW263244   6.467   4.601   7.668
53824SOL     OW63245   7.926   2.188  13.017
53824SOL    HW163246   7.861   2.168  13.084
53824SOL    HW263247   7.886   2.159  12.935
53825SOL     OW63248   5.966   0.917   8.977
53825SOL    HW163249   5.922   0.837   8.951
53825SOL    HW263250   5.905   0.987   8.954
53826SOL     OW63251   7.886   8.176  13.536
53826SOL    HW163252   7.824   8.104  13.544
53826SOL    HW263253   7.889   8.216  13.623
53827SOL     OW63254   1.466  14.399   4.043
53827SOL    HW163255   1.529  14.377   3.975
53827SOL    HW263256   1.383  14.363   4.012
53828SOL     OW63257   9.585   3.956   7.618
53828SOL    HW163258   9.587   4.042   7.577
53828SOL    HW263259   9.492   3.936   7.629
53829SOL     OW63260   4.600  11.689  12.000
53829SOL    HW163261   4.514  11.689  11.957
53829SOL    HW263262   4.594  11.759  12.066
53830SOL     OW63263  11.052   9.422   5.744
53830SOL    HW163264  10.998   9.344   5.748
53830SOL    HW263265  11.138   9.391   5.715
53831SOL     OW63266   9.919   5.647   8.563
53831SOL    HW163267   9.902   5.607   8.649
53831SOL    HW263268   9.969   5.726   8.583
53832SOL     OW63269   5.547   3.290   0.486
53832SOL    HW163270   5.496   3.366   0.514
53832SOL    HW263271   5.583   3.254   0.568
53833SOL     OW63272  12.000   7.299   2.737
53833SOL    HW163273  12.073   7.237   2.735
53833SOL    HW263274  12.041   7.385   2.747
53834SOL     OW63275   9.101   3.519   5.976
53834SOL    HW163276   9.059   3.441   5.940
53834SOL    HW263277   9.193   3.510   5.951
53835SOL     OW63278   2.228  14.362   2.360
53835SOL    HW163279   2.272  14.297   2.415
53835SOL    HW263280   2.237  14.328   2.271
53836SOL     OW63281   8.255   9.436   4.822
53836SOL    HW163282   8.185   9.454   4.760
53836SOL    HW263283   8.220   9.460   4.908
53837SOL     OW63284   5.403   9.872   8.234
53837SOL    HW163285   5.320   9.915   8.256
53837SOL    HW263286   5.383   9.822   8.155
53838SOL     OW63287   9.154   0.003   7.863
53838SOL    HW163288   9.197   0.072   7.914
53838SOL    HW263289   9.123  14.823   7.929
53839SOL     OW63290   7.384   8.725   7.826
53839SOL    HW163291   7.438   8.654   7.861
53839SOL    HW263292   7.357   8.695   7.740
53840SOL     OW63293   6.572   9.058   0.704
53840SOL    HW163294   6.528   9.087   0.624
53840SOL    HW263295   6.620   8.979   0.679
53841SOL     OW63296   5.592   7.421  12.163
53841SOL    HW163297   5.636   7.421  12.078
53841SOL    HW263298   5.658   7.389  12.224
53842SOL     OW63299   6.004   6.871   0.385
53842SOL    HW163300   5.951   6.906   0.313
53842SOL    HW263301   5.968   6.784   0.402
53843SOL     OW63302   1.008   9.067   4.763
53843SOL    HW163303   0.995   9.119   4.683
53843SOL    HW263304   1.098   9.034   4.755
53844SOL     OW63305  12.811   1.262  12.031
53844SOL    HW163306  12.889   1.295  11.986
53844SOL    HW263307  12.781   1.189  11.978
53845SOL     OW63308   7.922   1.804   7.470
53845SOL    HW163309   7.873   1.723   7.455
53845SOL    HW263310   7.912   1.821   7.563
53846SOL     OW63311   2.676  14.513   4.675
53846SOL    HW163312   2.621  14.523   4.598
53846SOL    HW263313   2.765  14.513   4.641
53847SOL     OW63314  12.795   3.190   5.171
53847SOL    HW163315  12.870   3.144   5.134
53847SOL    HW263316  12.832   3.270   5.209
53848SOL     OW63317   6.770   7.033   6.734
53848SOL    HW163318   6.752   7.126   6.746
53848SOL    HW263319   6.725   6.990   6.806
53849SOL     OW63320   3.035   7.866   9.909
53849SOL    HW163321   3.081   7.933   9.960
53849SOL    HW263322   2.945   7.897   9.904
53850SOL     OW63323   3.876   3.719  14.878
53850SOL    HW163324   3.897   3.740  14.787
53850SOL    HW263325   3.796   3.769   0.014
53851SOL     OW63326  11.745   1.042   6.675
53851SOL    HW163327  11.809   1.112   6.660
53851SOL    HW263328  11.693   1.040   6.595
53852SOL     OW63329   5.228   3.025   4.328
53852SOL    HW163330   5.221   2.952   4.389
53852SOL    HW263331   5.220   2.985   4.242
53853SOL     OW63332  12.645  13.613  14.488
53853SOL    HW163333  12.653  13.620  14.584
53853SOL    HW263334  12.622  13.701  14.460
53854SOL     OW63335   8.641   0.903   9.169
53854SOL    HW163336   8.578   0.908   9.241
53854SOL    HW263337   8.589   0.878   9.093
53855SOL     OW63338  10.544  14.260  14.136
53855SOL    HW163339  10.570  14.216  14.218
53855SOL    HW263340  10.530  14.188  14.074
53856SOL     OW63341   7.692  10.290   1.262
53856SOL    HW163342   7.656  10.322   1.346
53856SOL    HW263343   7.682  10.195   1.267
53857SOL     OW63344  14.659   0.309   1.717
53857SOL    HW163345  14.589   0.246   1.699
53857SOL    HW263346  14.627   0.392   1.681
53858SOL     OW63347   2.556   0.868  12.160
53858SOL    HW163348   2.494   0.815  12.110
53858SOL    HW263349   2.539   0.845  12.251
53859SOL     OW63350   1.907  13.028   8.116
53859SOL    HW163351   1.932  12.986   8.034
53859SOL    HW263352   1.823  12.989   8.138
53860SOL     OW63353   1.702   1.849  10.195
53860SOL    HW163354   1.658   1.934  10.186
53860SOL    HW263355   1.671   1.814  10.278
53861SOL     OW63356   9.798  10.844   7.069
53861SOL    HW163357   9.861  10.781   7.034
53861SOL    HW263358   9.718  10.828   7.020
53862SOL     OW63359   3.033   3.236   0.957
53862SOL    HW163360   3.017   3.326   0.927
53862SOL    HW263361   3.104   3.205   0.900
53863SOL     OW63362   9.359   2.833   2.675
53863SOL    HW163363   9.384   2.914   2.631
53863SOL    HW263364   9.264   2.828   2.665
53864SOL     OW63365  12.947   8.630   0.392
53864SOL    HW163366  13.017   8.639   0.328
53864SOL    HW263367  12.932   8.719   0.424
53865SOL     OW63368  10.185  12.278   3.967
53865SOL    HW163369  10.179  12.185   3.945
53865SOL    HW263370  10.144  12.323   3.894
53866SOL     OW63371   8.126   5.639  13.620
53866SOL    HW163372   8.049   5.586  13.599
53866SOL    HW263373   8.162   5.663  13.535
53867SOL     OW63374   6.009   1.842   5.551
53867SOL    HW163375   5.970   1.871   5.633
53867SOL    HW263376   6.030   1.923   5.504
53868SOL     OW63377   9.700  13.033   4.629
53868SOL    HW163378   9.636  12.999   4.567
53868SOL    HW263379   9.700  13.127   4.614
53869SOL     OW63380   1.747   6.020   3.921
53869SOL    HW163381   1.786   5.994   3.837
53869SOL    HW263382   1.804   6.091   3.952
53870SOL     OW63383  14.598   4.960  14.593
53870SOL    HW163384  14.554   5.040  14.620
53870SOL    HW263385  14.546   4.889  14.630
53871SOL     OW63386   5.336  12.685   1.100
53871SOL    HW163387   5.249  12.653   1.076
53871SOL    HW263388   5.370  12.725   1.021
53872SOL     OW63389   3.312   0.113   4.575
53872SOL    HW163390   3.219   0.109   4.597
53872SOL    HW263391   3.356   0.067   4.648
53873SOL     OW63392  13.637  13.185  13.884
53873SOL    HW163393  13.627  13.112  13.945
53873SOL    HW263394  13.579  13.163  13.811
53874SOL     OW63395   1.511  10.112  12.590
53874SOL    HW163396   1.596  10.154  12.576
53874SOL    HW263397   1.524  10.058  12.668
53875SOL     OW63398   7.832  11.351   2.631
53875SOL    HW163399   7.806  11.295   2.557
53875SOL    HW263400   7.753  11.359   2.684
53876SOL     OW63401   0.969  13.421   4.469
53876SOL    HW163402   0.967  13.508   4.428
53876SOL    HW263403   0.901  13.426   4.537
53877SOL     OW63404   4.564   6.246   8.798
53877SOL    HW163405   4.506   6.295   8.857
53877SOL    HW263406   4.569   6.159   8.836
53878SOL     OW63407   5.318   4.199   5.082
53878SOL    HW163408   5.279   4.282   5.052
53878SOL    HW263409   5.244   4.148   5.115
53879SOL     OW63410   0.111   5.013  13.342
53879SOL    HW163411   0.019   5.024  13.318
53879SOL    HW263412   0.129   5.086  13.401
53880SOL     OW63413   1.015   0.886  14.263
53880SOL    HW163414   0.972   0.925  14.339
53880SOL    HW263415   1.101   0.859  14.294
53881SOL     OW63416  12.149   3.313  13.413
53881SOL    HW163417  12.073   3.254  13.414
53881SOL    HW263418  12.135   3.368  13.336
53882SOL     OW63419   8.281  11.249  10.583
53882SOL    HW163420   8.274  11.212  10.671
53882SOL    HW263421   8.348  11.195  10.539
53883SOL     OW63422   9.371  10.126   1.663
53883SOL    HW163423   9.347  10.135   1.756
53883SOL    HW263424   9.332  10.043   1.637
53884SOL     OW63425   8.133  12.384   0.868
53884SOL    HW163426   8.070  12.312   0.871
53884SOL    HW263427   8.174  12.377   0.782
53885SOL     OW63428   6.584  11.082   1.827
53885SOL    HW163429   6.560  11.002   1.780
53885SOL    HW263430   6.580  11.151   1.761
53886SOL     OW63431  10.213  14.682   6.863
53886SOL    HW163432  10.151  14.611   6.845
53886SOL    HW263433  10.235  14.672   6.955
53887SOL     OW63434   0.718   7.335   0.892
53887SOL    HW163435   0.757   7.417   0.863
53887SOL    HW263436   0.680   7.296   0.813
53888SOL     OW63437  11.629   1.159   8.916
53888SOL    HW163438  11.642   1.135   8.824
53888SOL    HW263439  11.593   1.248   8.913
53889SOL     OW63440   5.155   7.884   2.376
53889SOL    HW163441   5.100   7.963   2.380
53889SOL    HW263442   5.155   7.859   2.284
53890SOL     OW63443  10.103  10.494   1.788
53890SOL    HW163444  10.080  10.405   1.760
53890SOL    HW263445  10.150  10.481   1.871
53891SOL     OW63446   8.287   9.104  11.310
53891SOL    HW163447   8.290   9.009  11.323
53891SOL    HW263448   8.231   9.116  11.234
53892SOL     OW63449   6.481   3.186   1.595
53892SOL    HW163450   6.538   3.263   1.603
53892SOL    HW263451   6.393   3.220   1.604
53893SOL     OW63452   5.142   8.430   8.748
53893SOL    HW163453   5.217   8.421   8.689
53893SOL    HW263454   5.151   8.518   8.784
53894SOL     OW63455   5.960   7.811  14.611
53894SOL    HW163456   6.025   7.824  14.543
53894SOL    HW263457   5.921   7.725  14.591
53895SOL     OW63458  11.529  12.968  13.112
53895SOL    HW163459  11.572  12.966  13.197
53895SOL    HW263460  11.561  13.049  13.071
53896SOL     OW63461  10.856   5.371   0.364
53896SOL    HW163462  10.888   5.350   0.452
53896SOL    HW263463  10.767   5.402   0.378
53897SOL     OW63464  10.096   2.204   6.282
53897SOL    HW163465  10.018   2.256   6.264
53897SOL    HW263466  10.143   2.201   6.199
53898SOL     OW63467   6.473  12.950   4.843
53898SOL    HW163468   6.468  12.957   4.938
53898SOL    HW263469   6.447  13.036   4.811
53899SOL     OW63470   5.720  14.862   5.490
53899SOL    HW163471   5.779  14.828   5.423
53899SOL    HW263472   5.636  14.874   5.445
53900SOL     OW63473   3.575   7.167   2.229
53900SOL    HW163474   3.667   7.190   2.238
53900SOL    HW263475   3.559   7.102   2.298
53901SOL     OW63476   8.485   4.245   0.512
53901SOL    HW163477   8.507   4.315   0.450
53901SOL    HW263478   8.489   4.165   0.459
53902SOL     OW63479  10.771   9.082   1.718
53902SOL    HW163480  10.803   9.104   1.806
53902SOL    HW263481  10.676   9.082   1.727
53903SOL     OW63482  14.840  12.823   6.605
53903SOL    HW163483  14.787  12.903   6.604
53903SOL    HW263484  14.802  12.768   6.536
53904SOL     OW63485   7.788  10.508   6.522
53904SOL    HW163486   7.745  10.589   6.550
53904SOL    HW263487   7.877  10.514   6.556
53905SOL     OW63488   1.104  13.882  14.123
53905SOL    HW163489   1.104  13.845  14.212
53905SOL    HW263490   1.105  13.806  14.065
53906SOL     OW63491   6.424  10.059  10.567
53906SOL    HW163492   6.479  10.011  10.506
53906SOL    HW263493   6.451  10.150  10.558
53907SOL     OW63494   6.119   3.990   9.902
53907SOL    HW163495   6.188   4.001   9.836
53907SOL    HW263496   6.165   3.957   9.979
53908SOL     OW63497  14.646   5.564   4.111
53908SOL    HW163498  14.648   5.515   4.193
53908SOL    HW263499  14.679   5.651   4.135
53909SOL     OW63500   5.163   8.737   3.874
53909SOL    HW163501   5.175   8.794   3.798
53909SOL    HW263502   5.100   8.670   3.845
53910SOL     OW63503   8.401   9.898   7.183
53910SOL    HW163504   8.353   9.837   7.128
53910SOL    HW263505   8.340   9.922   7.252
53911SOL     OW63506   1.367   9.985   1.685
53911SOL    HW163507   1.356   9.898   1.722
53911SOL    HW263508   1.452   9.982   1.641
53912SOL     OW63509   3.385   4.214  11.878
53912SOL    HW163510   3.291   4.203  11.889
53912SOL    HW263511   3.394   4.294  11.826
53913SOL     OW63512  12.245   1.692   3.731
53913SOL    HW163513  12.232   1.598   3.739
53913SOL    HW263514  12.243   1.709   3.637
53914SOL     OW63515   3.979   2.939   2.467
53914SOL    HW163516   3.919   2.867   2.447
53914SOL    HW263517   3.951   3.010   2.409
53915SOL     OW63518   2.449  14.656   4.043
53915SOL    HW163519   2.420  14.662   3.952
53915SOL    HW263520   2.543  14.643   4.038
53916SOL     OW63521  13.518  10.824  10.008
53916SOL    HW163522  13.584  10.818   9.938
53916SOL    HW263523  13.569  10.842  10.087
53917SOL     OW63524   3.367  12.434  13.572
53917SOL    HW163525   3.453  12.409  13.539
53917SOL    HW263526   3.384  12.467  13.661
53918SOL     OW63527   4.816  13.061  14.507
53918SOL    HW163528   4.887  13.027  14.562
53918SOL    HW263529   4.819  13.008  14.428
53919SOL     OW63530   4.506  12.459   5.105
53919SOL    HW163531   4.484  12.417   5.022
53919SOL    HW263532   4.525  12.387   5.164
53920SOL     OW63533   1.341   6.860   9.555
53920SOL    HW163534   1.246   6.875   9.548
53920SOL    HW263535   1.348   6.780   9.607
53921SOL     OW63536  12.560  13.387   9.589
53921SOL    HW163537  12.595  13.410   9.503
53921SOL    HW263538  12.482  13.441   9.599
53922SOL     OW63539   4.513   7.211   6.784
53922SOL    HW163540   4.505   7.118   6.804
53922SOL    HW263541   4.577   7.244   6.846
53923SOL     OW63542  13.615   3.616   1.403
53923SOL    HW163543  13.623   3.520   1.403
53923SOL    HW263544  13.673   3.644   1.474
53924SOL     OW63545   4.608   0.781   6.059
53924SOL    HW163546   4.530   0.834   6.075
53924SOL    HW263547   4.617   0.778   5.964
53925SOL     OW63548   1.272   3.770   8.598
53925SOL    HW163549   1.351   3.763   8.544
53925SOL    HW263550   1.200   3.770   8.535
53926SOL     OW63551   7.503  11.681   5.341
53926SOL    HW163552   7.428  11.704   5.396
53926SOL    HW263553   7.463  11.647   5.261
53927SOL     OW63554   7.685   3.943  14.793
53927SOL    HW163555   7.616   3.993  14.835
53927SOL    HW263556   7.687   3.860  14.841
53928SOL     OW63557  13.177   5.795  10.880
53928SOL    HW163558  13.137   5.713  10.851
53928SOL    HW263559  13.157   5.800  10.974
53929SOL     OW63560   3.290  11.653   2.757
53929SOL    HW163561   3.221  11.602   2.715
53929SOL    HW263562   3.254  11.678   2.842
53930SOL     OW63563   4.811  14.657   7.682
53930SOL    HW163564   4.852  14.573   7.662
53930SOL    HW263565   4.738  14.664   7.620
53931SOL     OW63566   0.070   9.653   8.738
53931SOL    HW163567   0.159   9.665   8.704
53931SOL    HW263568   0.059   9.724   8.800
53932SOL     OW63569   9.182   5.305  12.163
53932SOL    HW163570   9.240   5.234  12.137
53932SOL    HW263571   9.182   5.364  12.088
53933SOL     OW63572   4.319   4.546  11.407
53933SOL    HW163573   4.329   4.527  11.500
53933SOL    HW263574   4.364   4.475  11.363
53934SOL     OW63575   3.192   9.704  10.423
53934SOL    HW163576   3.218   9.635  10.484
53934SOL    HW263577   3.096   9.702  10.425
53935SOL     OW63578  12.992  12.679   8.460
53935SOL    HW163579  13.077  12.688   8.504
53935SOL    HW263580  12.990  12.751   8.397
53936SOL     OW63581   0.943   3.854  13.992
53936SOL    HW163582   0.947   3.843  14.087
53936SOL    HW263583   0.849   3.853  13.972
53937SOL     OW63584   8.143  14.009   9.390
53937SOL    HW163585   8.149  14.056   9.473
53937SOL    HW263586   8.231  14.016   9.353
53938SOL     OW63587   9.637   2.347   1.769
53938SOL    HW163588   9.698   2.404   1.815
53938SOL    HW263589   9.605   2.400   1.696
53939SOL     OW63590   4.204   4.953  13.360
53939SOL    HW163591   4.197   4.892  13.433
53939SOL    HW263592   4.191   4.899  13.282
53940SOL     OW63593   4.640   8.156  14.394
53940SOL    HW163594   4.690   8.236  14.376
53940SOL    HW263595   4.701   8.101  14.443
53941SOL     OW63596  10.252   2.603  10.278
53941SOL    HW163597  10.253   2.696  10.257
53941SOL    HW263598  10.176   2.568  10.233
53942SOL     OW63599   9.781  12.792   8.248
53942SOL    HW163600   9.871  12.766   8.228
53942SOL    HW263601   9.774  12.784   8.343
53943SOL     OW63602  14.701   4.376   3.662
53943SOL    HW163603  14.700   4.467   3.693
53943SOL    HW263604  14.658   4.326   3.731
53944SOL     OW63605  13.702   7.489  13.426
53944SOL    HW163606  13.789   7.476  13.463
53944SOL    HW263607  13.678   7.578  13.452
53945SOL     OW63608   7.682   8.721   2.829
53945SOL    HW163609   7.754   8.734   2.890
53945SOL    HW263610   7.617   8.787   2.855
53946SOL     OW63611   1.600  13.022   7.876
53946SOL    HW163612   1.656  12.969   7.819
53946SOL    HW263613   1.660  13.056   7.942
53947SOL     OW63614  11.375   3.803   0.750
53947SOL    HW163615  11.408   3.874   0.694
53947SOL    HW263616  11.454   3.764   0.787
53948SOL     OW63617  10.805  12.947  14.045
53948SOL    HW163618  10.881  12.918  14.096
53948SOL    HW263619  10.842  12.973  13.960
53949SOL     OW63620  10.501  11.511   9.074
53949SOL    HW163621  10.476  11.431   9.121
53949SOL    HW263622  10.472  11.583   9.130
53950SOL     OW63623   1.749  14.673   2.758
53950SOL    HW163624   1.812  14.616   2.802
53950SOL    HW263625   1.668  14.623   2.755
53951SOL     OW63626   6.280  12.848   5.853
53951SOL    HW163627   6.235  12.792   5.789
53951SOL    HW263628   6.276  12.936   5.814
53952SOL     OW63629   3.714   5.550  12.955
53952SOL    HW163630   3.645   5.616  12.964
53952SOL    HW263631   3.737   5.552  12.862
53953SOL     OW63632   0.954  13.964   5.206
53953SOL    HW163633   0.884  13.912   5.167
53953SOL    HW263634   0.982  13.914   5.283
53954SOL     OW63635  10.195  11.041   7.857
53954SOL    HW163636  10.105  11.022   7.829
53954SOL    HW263637  10.200  11.137   7.858
53955SOL     OW63638   3.833  10.345   5.872
53955SOL    HW163639   3.822  10.440   5.884
53955SOL    HW263640   3.750  10.317   5.832
53956SOL     OW63641   2.256   5.273   3.812
53956SOL    HW163642   2.245   5.310   3.900
53956SOL    HW263643   2.314   5.198   3.825
53957SOL     OW63644   2.470   5.425  14.607
53957SOL    HW163645   2.531   5.499  14.603
53957SOL    HW263646   2.384   5.465  14.587
53958SOL     OW63647  12.174   2.722  14.474
53958SOL    HW163648  12.169   2.642  14.528
53958SOL    HW263649  12.181   2.793  14.538
53959SOL     OW63650  12.387   2.933   1.505
53959SOL    HW163651  12.381   2.998   1.435
53959SOL    HW263652  12.426   2.857   1.463
53960SOL     OW63653  10.820   3.803   7.915
53960SOL    HW163654  10.804   3.723   7.864
53960SOL    HW263655  10.912   3.823   7.900
53961SOL     OW63656  10.479  13.894   4.563
53961SOL    HW163657  10.477  13.970   4.505
53961SOL    HW263658  10.520  13.825   4.510
53962SOL     OW63659   2.550   5.221   9.748
53962SOL    HW163660   2.520   5.177   9.827
53962SOL    HW263661   2.489   5.293   9.735
53963SOL     OW63662  12.843   2.369  11.291
53963SOL    HW163663  12.843   2.461  11.318
53963SOL    HW263664  12.754   2.353  11.261
53964SOL     OW63665   5.766   4.743   0.090
53964SOL    HW163666   5.775   4.752  14.876
53964SOL    HW263667   5.733   4.828   0.119
53965SOL     OW63668   5.131   2.112  14.364
53965SOL    HW163669   5.087   2.192  14.336
53965SOL    HW263670   5.140   2.121  14.459
53966SOL     OW63671   8.551  11.150  12.415
53966SOL    HW163672   8.513  11.063  12.410
53966SOL    HW263673   8.532  11.180  12.504
53967SOL     OW63674   7.021   9.049   0.333
53967SOL    HW163675   6.928   9.064   0.346
53967SOL    HW263676   7.037   8.962   0.371
53968SOL     OW63677   0.878   4.439   8.932
53968SOL    HW163678   0.833   4.416   9.013
53968SOL    HW263679   0.890   4.356   8.886
53969SOL     OW63680   9.550   7.008  14.046
53969SOL    HW163681   9.629   6.993  13.994
53969SOL    HW263682   9.487   6.943  14.015
53970SOL     OW63683   6.223   6.454  12.851
53970SOL    HW163684   6.185   6.525  12.799
53970SOL    HW263685   6.178   6.375  12.822
53971SOL     OW63686  10.363   5.124   6.986
53971SOL    HW163687  10.314   5.153   6.909
53971SOL    HW263688  10.443   5.085   6.951
53972SOL     OW63689   1.122   4.068  13.763
53972SOL    HW163690   1.042   4.043  13.809
53972SOL    HW263691   1.114   4.028  13.676
53973SOL     OW63692   2.895   6.546  11.325
53973SOL    HW163693   2.842   6.539  11.404
53973SOL    HW263694   2.907   6.456  11.296
53974SOL     OW63695   9.533  12.904   0.006
53974SOL    HW163696   9.449  12.883   0.048
53974SOL    HW263697   9.524  12.994  14.858
53975SOL     OW63698   2.712   2.291  10.619
53975SOL    HW163699   2.781   2.225  10.631
53975SOL    HW263700   2.711   2.339  10.702
53976SOL     OW63701   9.149   3.500   0.058
53976SOL    HW163702   9.141   3.456  14.854
53976SOL    HW263703   9.212   3.571   0.043
53977SOL     OW63704   7.006   3.804   9.673
53977SOL    HW163705   6.914   3.780   9.681
53977SOL    HW263706   7.030   3.838   9.760
53978SOL     OW63707  10.112  11.302   6.055
53978SOL    HW163708  10.199  11.310   6.016
53978SOL    HW263709  10.080  11.392   6.061
53979SOL     OW63710   8.241  12.326   1.731
53979SOL    HW163711   8.278  12.356   1.648
53979SOL    HW263712   8.220  12.234   1.716
53980SOL     OW63713   2.629   7.809   2.977
53980SOL    HW163714   2.693   7.878   2.958
53980SOL    HW263715   2.545   7.855   2.983
53981SOL     OW63716   1.212   0.889   8.205
53981SOL    HW163717   1.203   0.984   8.203
53981SOL    HW263718   1.241   0.865   8.117
53982SOL     OW63719  13.467   7.219   4.545
53982SOL    HW163720  13.496   7.140   4.501
53982SOL    HW263721  13.497   7.210   4.635
53983SOL     OW63722  10.211  12.176   0.047
53983SOL    HW163723  10.215  12.208   0.137
53983SOL    HW263724  10.120  12.145   0.037
53984SOL     OW63725   9.550  13.225   9.924
53984SOL    HW163726   9.549  13.306   9.873
53984SOL    HW263727   9.482  13.238   9.991
53985SOL     OW63728   7.674   5.706  11.246
53985SOL    HW163729   7.585   5.687  11.274
53985SOL    HW263730   7.678   5.676  11.155
53986SOL     OW63731   1.392   9.531  10.240
53986SOL    HW163732   1.488   9.525  10.236
53986SOL    HW263733   1.374   9.624  10.227
53987SOL     OW63734  14.271   8.824   3.540
53987SOL    HW163735  14.192   8.771   3.551
53987SOL    HW263736  14.343   8.762   3.551
53988SOL     OW63737   4.935  13.558   4.907
53988SOL    HW163738   4.887  13.488   4.864
53988SOL    HW263739   4.894  13.639   4.876
53989SOL     OW63740  12.700   6.795   4.481
53989SOL    HW163741  12.746   6.718   4.513
53989SOL    HW263742  12.761   6.837   4.421
53990SOL     OW63743  11.983  11.214  11.960
53990SOL    HW163744  11.973  11.145  11.895
53990SOL    HW263745  12.077  11.218  11.977
53991SOL     OW63746   6.067  14.874   4.121
53991SOL    HW163747   6.008  14.844   4.052
53991SOL    HW263748   6.122   0.058   4.078
53992SOL     OW63749   4.600  13.662  14.215
53992SOL    HW163750   4.668  13.692  14.155
53992SOL    HW263751   4.645  13.648  14.298
53993SOL     OW63752  11.806   6.535   8.701
53993SOL    HW163753  11.805   6.617   8.651
53993SOL    HW263754  11.815   6.563   8.792
53994SOL     OW63755   3.316  12.387  12.517
53994SOL    HW163756   3.234  12.393  12.467
53994SOL    HW263757   3.383  12.369  12.451
53995SOL     OW63758   1.559   6.633   2.701
53995SOL    HW163759   1.583   6.612   2.611
53995SOL    HW263760   1.464   6.648   2.697
53996SOL     OW63761  10.204  11.058  11.754
53996SOL    HW163762  10.264  11.091  11.821
53996SOL    HW263763  10.123  11.039  11.800
53997SOL     OW63764  13.452   6.343   6.109
53997SOL    HW163765  13.490   6.256   6.096
53997SOL    HW263766  13.422   6.369   6.022
53998SOL     OW63767   8.778   5.620   9.969
53998SOL    HW163768   8.699   5.568   9.981
53998SOL    HW263769   8.762   5.701  10.016
53999SOL     OW63770   4.192   6.330   6.349
53999SOL    HW163771   4.238   6.247   6.349
53999SOL    HW263772   4.236   6.383   6.416
54000SOL     OW63773   1.879   7.169   5.158
54000SOL    HW163774   1.889   7.146   5.066
54000SOL    HW263775   1.871   7.085   5.203
54001SOL     OW63776  12.494  11.446  11.711
54001SOL    HW163777  12.556  11.384  11.752
54001SOL    HW263778  12.447  11.485  11.784
54002SOL     OW63779   2.396  10.608  12.805
54002SOL    HW163780   2.475  10.562  12.776
54002SOL    HW263781   2.355  10.548  12.867
54003SOL     OW63782  12.673   6.569   3.409
54003SOL    HW163783  12.754   6.613   3.380
54003SOL    HW263784  12.621   6.640   3.448
54004SOL     OW63785   6.092  12.200   5.698
54004SOL    HW163786   6.168  12.201   5.756
54004SOL    HW263787   6.121  12.150   5.622
54005SOL     OW63788   9.419   8.759  11.595
54005SOL    HW163789   9.399   8.695  11.527
54005SOL    HW263790   9.376   8.840  11.566
54006SOL     OW63791  10.758   7.285  13.810
54006SOL    HW163792  10.722   7.202  13.778
54006SOL    HW263793  10.824   7.310  13.745
54007SOL     OW63794   2.296   5.554   9.897
54007SOL    HW163795   2.312   5.493   9.825
54007SOL    HW263796   2.383   5.586   9.921
54008SOL     OW63797  14.509   8.309  12.957
54008SOL    HW163798  14.483   8.394  12.923
54008SOL    HW263799  14.589   8.327  13.008
54009SOL     OW63800   9.310   8.680   4.423
54009SOL    HW163801   9.279   8.681   4.332
54009SOL    HW263802   9.230   8.692   4.475
54010SOL     OW63803  14.051  13.276  13.855
54010SOL    HW163804  14.127  13.309  13.903
54010SOL    HW263805  13.976  13.314  13.901
54011SOL     OW63806   7.039   5.650  11.732
54011SOL    HW163807   6.957   5.683  11.768
54011SOL    HW263808   7.100   5.722  11.742
54012SOL     OW63809  13.484  14.237   5.853
54012SOL    HW163810  13.401  14.253   5.808
54012SOL    HW263811  13.480  14.144   5.877
54013SOL     OW63812   4.611  13.458   7.562
54013SOL    HW163813   4.693  13.499   7.535
54013SOL    HW263814   4.637  13.372   7.597
54014SOL     OW63815   9.419   9.839   4.581
54014SOL    HW163816   9.428   9.922   4.629
54014SOL    HW263817   9.375   9.781   4.642
54015SOL     OW63818  10.683  12.679  13.597
54015SOL    HW163819  10.736  12.677  13.518
54015SOL    HW263820  10.712  12.603  13.648
54016SOL     OW63821   7.076   1.406   0.420
54016SOL    HW163822   7.026   1.454   0.353
54016SOL    HW263823   7.014   1.342   0.454
54017SOL     OW63824   6.042  14.194   9.349
54017SOL    HW163825   6.103  14.120   9.349
54017SOL    HW263826   6.095  14.268   9.380
54018SOL     OW63827   6.571   7.274  10.490
54018SOL    HW163828   6.524   7.204  10.535
54018SOL    HW263829   6.602   7.332  10.560
54019SOL     OW63830   7.996  14.041  10.526
54019SOL    HW163831   7.962  14.120  10.484
54019SOL    HW263832   8.035  13.990  10.455
54020SOL     OW63833  12.606   4.505  11.544
54020SOL    HW163834  12.538   4.538  11.485
54020SOL    HW263835  12.621   4.415  11.515
54021SOL     OW63836   3.450   4.347   3.663
54021SOL    HW163837   3.394   4.418   3.631
54021SOL    HW263838   3.448   4.355   3.758
54022SOL     OW63839  12.693   5.868  11.341
54022SOL    HW163840  12.684   5.773  11.327
54022SOL    HW263841  12.739   5.899  11.263
54023SOL     OW63842   1.440   6.995   1.795
54023SOL    HW163843   1.345   6.986   1.788
54023SOL    HW263844   1.474   6.907   1.778
54024SOL     OW63845   8.209   1.727   8.862
54024SOL    HW163846   8.155   1.672   8.805
54024SOL    HW263847   8.256   1.785   8.802
54025SOL     OW63848  13.251   8.915  12.529
54025SOL    HW163849  13.278   8.827  12.554
54025SOL    HW263850  13.236   8.960  12.613
54026SOL     OW63851   2.113  11.142   6.902
54026SOL    HW163852   2.117  11.131   6.997
54026SOL    HW263853   2.066  11.065   6.871
54027SOL     OW63854   6.494   7.255  14.362
54027SOL    HW163855   6.549   7.275  14.286
54027SOL    HW263856   6.505   7.330  14.420
54028SOL     OW63857   6.336   5.389  12.728
54028SOL    HW163858   6.386   5.450  12.673
54028SOL    HW263859   6.270   5.444  12.771
54029SOL     OW63860  12.564   3.193  11.507
54029SOL    HW163861  12.551   3.285  11.481
54029SOL    HW263862  12.630   3.197  11.576
54030SOL     OW63863  11.071   4.149   1.533
54030SOL    HW163864  11.154   4.190   1.506
54030SOL    HW263865  11.007   4.220   1.528
54031SOL     OW63866   8.253  13.424   1.252
54031SOL    HW163867   8.199  13.431   1.173
54031SOL    HW263868   8.342  13.411   1.219
54032SOL     OW63869   3.540   5.424   8.902
54032SOL    HW163870   3.503   5.496   8.851
54032SOL    HW263871   3.552   5.353   8.839
54033SOL     OW63872  12.635  13.374   4.824
54033SOL    HW163873  12.628  13.463   4.791
54033SOL    HW263874  12.729  13.357   4.832
54034SOL     OW63875   8.254   5.156   6.811
54034SOL    HW163876   8.245   5.245   6.774
54034SOL    HW263877   8.343   5.153   6.845
54035SOL     OW63878  13.732   1.708   9.518
54035SOL    HW163879  13.816   1.726   9.476
54035SOL    HW263880  13.691   1.642   9.462
54036SOL     OW63881   2.566   5.978   7.204
54036SOL    HW163882   2.653   5.994   7.239
54036SOL    HW263883   2.511   6.045   7.245
54037SOL     OW63884  12.286   9.041  14.409
54037SOL    HW163885  12.266   9.012  14.498
54037SOL    HW263886  12.327   8.964  14.367
54038SOL     OW63887   0.598  10.476   0.308
54038SOL    HW163888   0.555  10.529   0.375
54038SOL    HW263889   0.530  10.415   0.279
54039SOL     OW63890  13.547  11.123   7.786
54039SOL    HW163891  13.498  11.042   7.770
54039SOL    HW263892  13.638  11.095   7.792
54040SOL     OW63893  12.763   0.510   8.330
54040SOL    HW163894  12.842   0.477   8.288
54040SOL    HW263895  12.787   0.521   8.422
54041SOL     OW63896  11.521   2.862   1.314
54041SOL    HW163897  11.481   2.785   1.353
54041SOL    HW263898  11.448   2.921   1.295
54042SOL     OW63899   7.828  14.218  11.805
54042SOL    HW163900   7.746  14.193  11.848
54042SOL    HW263901   7.880  14.138  11.807
54043SOL     OW63902  10.828   5.583   6.564
54043SOL    HW163903  10.831   5.555   6.655
54043SOL    HW263904  10.752   5.537   6.527
54044SOL     OW63905  12.038   6.150   6.738
54044SOL    HW163906  11.954   6.103   6.740
54044SOL    HW263907  12.093   6.105   6.801
54045SOL     OW63908   2.004   0.234   4.500
54045SOL    HW163909   1.983   0.178   4.425
54045SOL    HW263910   1.934   0.217   4.563
54046SOL     OW63911   0.272  12.328   7.167
54046SOL    HW163912   0.278  12.389   7.094
54046SOL    HW263913   0.231  12.250   7.130
54047SOL     OW63914   0.819   6.635  12.393
54047SOL    HW163915   0.742   6.583  12.372
54047SOL    HW263916   0.878   6.622  12.319
54048SOL     OW63917   5.174   3.645   0.904
54048SOL    HW163918   5.126   3.574   0.946
54048SOL    HW263919   5.119   3.671   0.830
54049SOL     OW63920   4.811  11.238   5.341
54049SOL    HW163921   4.827  11.332   5.339
54049SOL    HW263922   4.802  11.216   5.433
54050SOL     OW63923   9.891   1.806   9.552
54050SOL    HW163924   9.949   1.750   9.604
54050SOL    HW263925   9.814   1.819   9.607
54051SOL     OW63926   0.752   2.108   0.037
54051SOL    HW163927   0.771   2.078  14.830
54051SOL    HW263928   0.838   2.127   0.074
54052SOL     OW63929   0.813   1.421   5.145
54052SOL    HW163930   0.824   1.492   5.082
54052SOL    HW263931   0.854   1.346   5.104
54053SOL     OW63932   0.280  13.088  10.005
54053SOL    HW163933   0.272  13.111  10.098
54053SOL    HW263934   0.211  13.139   9.962
54054SOL     OW63935   2.595  10.830   8.208
54054SOL    HW163936   2.518  10.773   8.201
54054SOL    HW263937   2.567  10.912   8.168
54055SOL     OW63938   2.206   6.623   2.211
54055SOL    HW163939   2.241   6.557   2.151
54055SOL    HW263940   2.132   6.662   2.163
54056SOL     OW63941   4.610   8.656   1.698
54056SOL    HW163942   4.697   8.695   1.692
54056SOL    HW263943   4.626   8.564   1.718
54057SOL     OW63944  13.357   1.071   8.694
54057SOL    HW163945  13.436   1.084   8.747
54057SOL    HW263946  13.305   1.151   8.708
54058SOL     OW63947   0.816   0.186   9.403
54058SOL    HW163948   0.864   0.257   9.446
54058SOL    HW263949   0.788   0.222   9.319
54059SOL     OW63950   3.093   6.708   0.647
54059SOL    HW163951   3.175   6.661   0.634
54059SOL    HW263952   3.025   6.642   0.634
54060SOL     OW63953  12.429  10.431  13.316
54060SOL    HW163954  12.467  10.515  13.289
54060SOL    HW263955  12.491  10.365  13.282
54061SOL     OW63956   4.442   6.935   4.815
54061SOL    HW163957   4.475   6.861   4.866
54061SOL    HW263958   4.356   6.906   4.784
54062SOL     OW63959   3.438  14.299   4.758
54062SOL    HW163960   3.434  14.307   4.853
54062SOL    HW263961   3.477  14.380   4.728
54063SOL     OW63962   5.000   0.173   5.545
54063SOL    HW163963   5.002   0.131   5.631
54063SOL    HW263964   4.913   0.213   5.540
54064SOL     OW63965   5.933  14.405  11.135
54064SOL    HW163966   6.005  14.435  11.191
54064SOL    HW263967   5.854  14.420  11.188
54065SOL     OW63968   6.162   3.645  10.444
54065SOL    HW163969   6.152   3.572  10.383
54065SOL    HW263970   6.237   3.621  10.498
54066SOL     OW63971  12.596   4.571   9.114
54066SOL    HW163972  12.686   4.546   9.135
54066SOL    HW263973  12.571   4.630   9.184
54067SOL     OW63974   6.961   9.127  14.594
54067SOL    HW163975   7.024   9.175  14.541
54067SOL    HW263976   7.011   9.101  14.672
54068SOL     OW63977   1.209  12.782  14.457
54068SOL    HW163978   1.233  12.874  14.464
54068SOL    HW263979   1.206  12.751  14.547
54069SOL     OW63980   9.418  13.534  14.267
54069SOL    HW163981   9.397  13.577  14.349
54069SOL    HW263982   9.429  13.605  14.204
54070SOL     OW63983  12.116  11.535   9.701
54070SOL    HW163984  12.050  11.544   9.769
54070SOL    HW263985  12.088  11.594   9.632
54071SOL     OW63986  13.481   8.320   6.768
54071SOL    HW163987  13.391   8.296   6.744
54071SOL    HW263988  13.514   8.243   6.814
54072SOL     OW63989  10.911   2.143  13.735
54072SOL    HW163990  10.830   2.159  13.784
54072SOL    HW263991  10.978   2.194  13.781
54073SOL     OW63992   8.677   3.640   0.682
54073SOL    HW163993   8.641   3.676   0.601
54073SOL    HW263994   8.664   3.545   0.674
54074SOL     OW63995  10.184   6.273   6.035
54074SOL    HW163996  10.113   6.297   6.093
54074SOL    HW263997  10.144   6.217   5.969
54075SOL     OW63998  12.297   4.947  12.586
54075SOL    HW163999  12.238   4.893  12.637
54075SOL    HW264000  12.300   5.031  12.633
54076SOL     OW64001   4.298   1.389  14.337
54076SOL    HW164002   4.330   1.361  14.251
54076SOL    HW264003   4.262   1.309  14.376
54077SOL     OW64004   5.104   2.764  12.976
54077SOL    HW164005   5.031   2.819  12.947
54077SOL    HW264006   5.182   2.810  12.944
54078SOL     OW64007   6.711   9.883   3.227
54078SOL    HW164008   6.720   9.794   3.192
54078SOL    HW264009   6.748   9.879   3.315
54079SOL     OW64010   3.548   5.596   4.665
54079SOL    HW164011   3.543   5.691   4.672
54079SOL    HW264012   3.594   5.581   4.582
54080SOL     OW64013  14.442   1.458   7.332
54080SOL    HW164014  14.413   1.368   7.351
54080SOL    HW264015  14.526   1.465   7.377
54081SOL     OW64016   3.194   0.089  14.719
54081SOL    HW164017   3.175   0.183  14.719
54081SOL    HW264018   3.118   0.049  14.676
54082SOL     OW64019   0.862   2.047   2.595
54082SOL    HW164020   0.877   2.026   2.687
54082SOL    HW264021   0.827   2.137   2.596
54083SOL     OW64022   3.913  12.862   3.713
54083SOL    HW164023   3.960  12.778   3.721
54083SOL    HW264024   3.965  12.911   3.649
54084SOL     OW64025   3.638  13.773   3.654
54084SOL    HW164026   3.637  13.826   3.733
54084SOL    HW264027   3.673  13.830   3.586
54085SOL     OW64028   1.525  11.038   6.220
54085SOL    HW164029   1.463  11.015   6.151
54085SOL    HW264030   1.518  10.967   6.284
54086SOL     OW64031   1.941  11.509   2.637
54086SOL    HW164032   1.954  11.503   2.732
54086SOL    HW264033   1.859  11.557   2.627
54087SOL     OW64034   5.623   9.667   3.563
54087SOL    HW164035   5.702   9.659   3.511
54087SOL    HW264036   5.586   9.579   3.566
54088SOL     OW64037   8.374   4.338  12.403
54088SOL    HW164038   8.424   4.369  12.478
54088SOL    HW264039   8.326   4.415  12.372
54089SOL     OW64040  10.565   2.728  10.525
54089SOL    HW164041  10.656   2.700  10.516
54089SOL    HW264042  10.524   2.661  10.580
54090SOL     OW64043  11.046   5.942   4.752
54090SOL    HW164044  11.015   5.991   4.828
54090SOL    HW264045  11.141   5.955   4.753
54091SOL     OW64046  13.241   4.397   4.988
54091SOL    HW164047  13.270   4.485   4.963
54091SOL    HW264048  13.190   4.366   4.913
54092SOL     OW64049  12.415   6.706  10.386
54092SOL    HW164050  12.337   6.713  10.331
54092SOL    HW264051  12.462   6.788  10.370
54093SOL     OW64052   7.974  12.369   4.357
54093SOL    HW164053   7.986  12.415   4.274
54093SOL    HW264054   7.927  12.431   4.413
54094SOL     OW64055  10.124   5.668   0.250
54094SOL    HW164056  10.104   5.761   0.235
54094SOL    HW264057  10.208   5.655   0.206
54095SOL     OW64058   3.913  11.754   3.385
54095SOL    HW164059   3.968  11.830   3.405
54095SOL    HW264060   3.917  11.746   3.290
54096SOL     OW64061   6.091   4.840  10.224
54096SOL    HW164062   6.127   4.799  10.303
54096SOL    HW264063   6.027   4.776  10.191
54097SOL     OW64064  14.050   8.432  13.046
54097SOL    HW164065  13.984   8.452  13.113
54097SOL    HW264066  14.058   8.513  12.995
54098SOL     OW64067   1.499   9.974   8.501
54098SOL    HW164068   1.495   9.881   8.478
54098SOL    HW264069   1.415   9.991   8.544
54099SOL     OW64070   7.925  11.408  11.450
54099SOL    HW164071   8.019  11.388  11.452
54099SOL    HW264072   7.888  11.356  11.522
54100SOL     OW64073   4.064  10.575   6.619
54100SOL    HW164074   4.062  10.488   6.579
54100SOL    HW264075   4.021  10.632   6.555
54101SOL     OW64076   4.199   0.634   0.393
54101SOL    HW164077   4.107   0.635   0.365
54101SOL    HW264078   4.198   0.585   0.475
54102SOL     OW64079   9.880   3.909   9.897
54102SOL    HW164080   9.816   3.936   9.831
54102SOL    HW264081   9.829   3.859   9.961
54103SOL     OW64082  10.331  11.012   4.309
54103SOL    HW164083  10.340  11.099   4.270
54103SOL    HW264084  10.300  10.956   4.237
54104SOL     OW64085   2.409   9.003   4.823
54104SOL    HW164086   2.419   9.066   4.752
54104SOL    HW264087   2.444   9.047   4.900
54105SOL     OW64088   2.509   9.937   0.113
54105SOL    HW164089   2.479   9.971   0.029
54105SOL    HW264090   2.453   9.980   0.178
54106SOL     OW64091   8.372  10.298   3.050
54106SOL    HW164092   8.364  10.227   3.113
54106SOL    HW264093   8.457  10.284   3.008
54107SOL     OW64094  12.926   8.947   2.307
54107SOL    HW164095  13.012   8.906   2.319
54107SOL    HW264096  12.872   8.911   2.378
54108SOL     OW64097  11.734  14.878   4.283
54108SOL    HW164098  11.746  14.858   4.191
54108SOL    HW264099  11.792  14.817   4.329
54109SOL     OW64100   5.975   8.631   0.075
54109SOL    HW164101   5.889   8.593   0.091
54109SOL    HW264102   5.997   8.604  14.868
54110SOL     OW64103   0.749   5.383   8.395
54110SOL    HW164104   0.799   5.430   8.462
54110SOL    HW264105   0.785   5.294   8.396
54111SOL     OW64106   1.735   9.359  13.850
54111SOL    HW164107   1.774   9.447  13.858
54111SOL    HW264108   1.751   9.318  13.935
54112SOL     OW64109  11.539   3.710   6.356
54112SOL    HW164110  11.514   3.765   6.282
54112SOL    HW264111  11.524   3.621   6.326
54113SOL     OW64112  11.053   2.753   4.677
54113SOL    HW164113  11.034   2.672   4.630
54113SOL    HW264114  10.968   2.784   4.707
54114SOL     OW64115  12.712   9.163  12.886
54114SOL    HW164116  12.806   9.163  12.872
54114SOL    HW264117  12.680   9.090  12.832
54115SOL     OW64118  12.010  13.124  10.975
54115SOL    HW164119  12.010  13.060  11.047
54115SOL    HW264120  12.008  13.070  10.896
54116SOL     OW64121  14.252   7.082   3.256
54116SOL    HW164122  14.250   7.138   3.178
54116SOL    HW264123  14.226   6.996   3.223
54117SOL     OW64124   4.205  11.992   7.894
54117SOL    HW164125   4.160  12.010   7.811
54117SOL    HW264126   4.186  12.068   7.949
54118SOL     OW64127   9.794   1.593   9.151
54118SOL    HW164128   9.776   1.630   9.064
54118SOL    HW264129   9.862   1.528   9.135
54119SOL     OW64130   7.779   2.684   2.525
54119SOL    HW164131   7.720   2.682   2.450
54119SOL    HW264132   7.850   2.625   2.500
54120SOL     OW64133   9.573   0.884  11.890
54120SOL    HW164134   9.567   0.892  11.795
54120SOL    HW264135   9.667   0.881  11.908
54121SOL     OW64136   4.465   5.807   3.135
54121SOL    HW164137   4.542   5.856   3.162
54121SOL    HW264138   4.411   5.871   3.088
54122SOL     OW64139   9.326   2.426  12.055
54122SOL    HW164140   9.269   2.378  12.115
54122SOL    HW264141   9.322   2.517  12.085
54123SOL     OW64142   1.284  14.238   7.674
54123SOL    HW164143   1.227  14.211   7.745
54123SOL    HW264144   1.318  14.157   7.637
54124SOL     OW64145   2.401   2.480  12.343
54124SOL    HW164146   2.460   2.551  12.318
54124SOL    HW264147   2.314   2.520  12.342
54125SOL     OW64148  14.447   8.811   6.213
54125SOL    HW164149  14.528   8.858   6.232
54125SOL    HW264150  14.456   8.728   6.261
54126SOL     OW64151  11.883  12.270   3.064
54126SOL    HW164152  11.791  12.267   3.035
54126SOL    HW264153  11.906  12.363   3.057
54127SOL     OW64154   1.785   8.939  13.882
54127SOL    HW164155   1.786   9.029  13.915
54127SOL    HW264156   1.692   8.916  13.878
54128SOL     OW64157   5.669   1.726   3.162
54128SOL    HW164158   5.576   1.742   3.149
54128SOL    HW264159   5.712   1.806   3.129
54129SOL     OW64160   2.693   8.492  11.788
54129SOL    HW164161   2.712   8.580  11.821
54129SOL    HW264162   2.756   8.479  11.718
54130SOL     OW64163  11.167   9.267   6.295
54130SOL    HW164164  11.237   9.203   6.308
54130SOL    HW264165  11.098   9.239   6.355
54131SOL     OW64166   7.471   2.112   7.574
54131SOL    HW164167   7.517   2.193   7.597
54131SOL    HW264168   7.528   2.070   7.509
54132SOL     OW64169  12.328   8.681  14.533
54132SOL    HW164170  12.290   8.761  14.569
54132SOL    HW264171  12.381   8.711  14.459
54133SOL     OW64172   9.922  14.562  10.012
54133SOL    HW164173   9.997  14.606  10.053
54133SOL    HW264174   9.845  14.597  10.057
54134SOL     OW64175   4.293   6.431   9.701
54134SOL    HW164176   4.301   6.367   9.631
54134SOL    HW264177   4.361   6.406   9.764
54135SOL     OW64178  10.687   9.029  14.438
54135SOL    HW164179  10.721   9.024  14.348
54135SOL    HW264180  10.750   8.978  14.490
54136SOL     OW64181  12.018   3.767   1.000
54136SOL    HW164182  11.933   3.799   0.971
54136SOL    HW264183  12.069   3.846   1.019
54137SOL     OW64184   6.889   9.099  11.614
54137SOL    HW164185   6.967   9.080  11.562
54137SOL    HW264186   6.844   9.015  11.623
54138SOL     OW64187  10.033  12.450   6.820
54138SOL    HW164188  10.067  12.496   6.743
54138SOL    HW264189  10.041  12.513   6.891
54139SOL     OW64190   9.981  13.214   9.305
54139SOL    HW164191   9.965  13.243   9.395
54139SOL    HW264192  10.037  13.137   9.314
54140SOL     OW64193   9.915   5.575   6.510
54140SOL    HW164194   9.951   5.518   6.577
54140SOL    HW264195   9.874   5.516   6.447
54141SOL     OW64196   6.759  14.327  11.909
54141SOL    HW164197   6.669  14.314  11.938
54141SOL    HW264198   6.774  14.421  11.914
54142SOL     OW64199   9.445   1.596   6.006
54142SOL    HW164200   9.466   1.503   5.997
54142SOL    HW264201   9.395   1.617   5.927
54143SOL     OW64202   6.359   9.489   9.390
54143SOL    HW164203   6.357   9.584   9.380
54143SOL    HW264204   6.409   9.457   9.315
54144SOL     OW64205   3.782   1.657  10.276
54144SOL    HW164206   3.746   1.604  10.205
54144SOL    HW264207   3.869   1.621  10.292
54145SOL     OW64208   0.264  13.750   2.868
54145SOL    HW164209   0.288  13.833   2.827
54145SOL    HW264210   0.181  13.727   2.828
54146SOL     OW64211   1.014  11.959   0.292
54146SOL    HW164212   0.997  12.025   0.360
54146SOL    HW264213   1.104  11.976   0.265
54147SOL     OW64214  10.839   4.239   1.783
54147SOL    HW164215  10.826   4.144   1.775
54147SOL    HW264216  10.786   4.276   1.711
54148SOL     OW64217  13.389   4.040  10.346
54148SOL    HW164218  13.349   4.126  10.335
54148SOL    HW264219  13.332   3.995  10.408
54149SOL     OW64220   7.252  12.736  10.089
54149SOL    HW164221   7.181  12.709  10.148
54149SOL    HW264222   7.315  12.664  10.093
54150SOL     OW64223   2.523  12.873   4.049
54150SOL    HW164224   2.597  12.819   4.023
54150SOL    HW264225   2.460  12.864   3.976
54151SOL     OW64226  10.528   9.814   9.635
54151SOL    HW164227  10.463   9.881   9.656
54151SOL    HW264228  10.519   9.801   9.541
54152SOL     OW64229  10.570  13.571  11.295
54152SOL    HW164230  10.604  13.497  11.245
54152SOL    HW264231  10.494  13.601  11.245
54153SOL     OW64232   9.442  13.547   3.413
54153SOL    HW164233   9.483  13.629   3.385
54153SOL    HW264234   9.511  13.482   3.407
54154SOL     OW64235   9.049   0.379  14.235
54154SOL    HW164236   9.087   0.466  14.249
54154SOL    HW264237   9.034   0.345  14.324
54155SOL     OW64238   9.570   3.601  11.426
54155SOL    HW164239   9.534   3.670  11.482
54155SOL    HW264240   9.635   3.558  11.481
54156SOL     OW64241   3.942   5.182  11.431
54156SOL    HW164242   4.027   5.177  11.388
54156SOL    HW264243   3.958   5.235  11.510
54157SOL     OW64244   6.347  11.174  13.575
54157SOL    HW164245   6.334  11.096  13.521
54157SOL    HW264246   6.388  11.237  13.516
54158SOL     OW64247   7.929   9.189   2.966
54158SOL    HW164248   7.847   9.147   2.990
54158SOL    HW264249   7.903   9.272   2.926
54159SOL     OW64250  12.479   0.845   9.810
54159SOL    HW164251  12.461   0.910   9.743
54159SOL    HW264252  12.536   0.781   9.767
54160SOL     OW64253   3.851   5.929   6.059
54160SOL    HW164254   3.809   5.907   6.142
54160SOL    HW264255   3.795   5.997   6.022
54161SOL     OW64256  12.284   7.065  10.837
54161SOL    HW164257  12.345   6.998  10.867
54161SOL    HW264258  12.333   7.114  10.770
54162SOL     OW64259   9.294   8.401   8.247
54162SOL    HW164260   9.235   8.456   8.298
54162SOL    HW264261   9.253   8.315   8.246
54163SOL     OW64262  14.769  12.136   5.623
54163SOL    HW164263  14.691  12.108   5.671
54163SOL    HW264264  14.794  12.219   5.663
54164SOL     OW64265   1.775   8.135   4.381
54164SOL    HW164266   1.789   8.081   4.459
54164SOL    HW264267   1.697   8.187   4.402
54165SOL     OW64268   1.258  14.697   2.107
54165SOL    HW164269   1.275  14.752   2.030
54165SOL    HW264270   1.328  14.632   2.106
54166SOL     OW64271   6.208   3.923  14.614
54166SOL    HW164272   6.131   3.953  14.663
54166SOL    HW264273   6.191   3.949  14.524
54167SOL     OW64274  10.806  10.070  11.048
54167SOL    HW164275  10.826  10.126  11.123
54167SOL    HW264276  10.728  10.021  11.075
54168SOL     OW64277  11.628   1.693   6.869
54168SOL    HW164278  11.638   1.601   6.844
54168SOL    HW264279  11.675   1.742   6.801
54169SOL     OW64280  11.109   8.437   1.798
54169SOL    HW164281  11.205   8.442   1.797
54169SOL    HW264282  11.082   8.492   1.871
54170SOL     OW64283   0.014   4.823   4.060
54170SOL    HW164284  14.827   4.768   4.022
54170SOL    HW264285   0.006   4.809   4.154
54171SOL     OW64286   1.285   0.346   6.868
54171SOL    HW164287   1.190   0.344   6.876
54171SOL    HW264288   1.307   0.439   6.879
54172SOL     OW64289   4.863   3.632  12.330
54172SOL    HW164290   4.847   3.573  12.403
54172SOL    HW264291   4.809   3.596  12.259
54173SOL     OW64292   1.190  12.463   3.839
54173SOL    HW164293   1.229  12.454   3.926
54173SOL    HW264294   1.220  12.386   3.791
54174SOL     OW64295  10.087  14.723  10.178
54174SOL    HW164296  10.038  14.733  10.259
54174SOL    HW264297  10.139  14.804  10.172
54175SOL     OW64298   7.181   4.125  14.234
54175SOL    HW164299   7.172   4.150  14.142
54175SOL    HW264300   7.142   4.198  14.282
54176SOL     OW64301   0.935   4.765   9.710
54176SOL    HW164302   0.890   4.848   9.723
54176SOL    HW264303   0.929   4.720   9.794
54177SOL     OW64304   2.650  11.582   1.359
54177SOL    HW164305   2.732  11.537   1.381
54177SOL    HW264306   2.602  11.586   1.441
54178SOL     OW64307   1.031   5.697   2.045
54178SOL    HW164308   1.054   5.696   1.953
54178SOL    HW264309   1.115   5.691   2.091
54179SOL     OW64310   8.340  13.037   7.110
54179SOL    HW164311   8.255  13.029   7.067
54179SOL    HW264312   8.404  13.021   7.040
54180SOL     OW64313   1.182   0.199   1.570
54180SOL    HW164314   1.207   0.275   1.517
54180SOL    HW264315   1.116   0.154   1.518
54181SOL     OW64316   9.712   3.872   8.407
54181SOL    HW164317   9.760   3.806   8.457
54181SOL    HW264318   9.620   3.856   8.429
54182SOL     OW64319   6.557   1.134  14.532
54182SOL    HW164320   6.556   1.041  14.558
54182SOL    HW264321   6.482   1.143  14.473
54183SOL     OW64322   2.647   7.774   9.618
54183SOL    HW164323   2.697   7.701   9.654
54183SOL    HW264324   2.712   7.826   9.571
54184SOL     OW64325   4.120  14.046   8.014
54184SOL    HW164326   4.069  13.986   8.069
54184SOL    HW264327   4.167  14.102   8.077
54185SOL     OW64328   2.269   7.743   3.626
54185SOL    HW164329   2.321   7.726   3.705
54185SOL    HW264330   2.183   7.770   3.660
54186SOL     OW64331   5.058   6.075   5.398
54186SOL    HW164332   5.100   6.155   5.367
54186SOL    HW264333   4.972   6.104   5.429
54187SOL     OW64334  10.076   8.824   5.988
54187SOL    HW164335  10.036   8.751   5.941
54187SOL    HW264336  10.049   8.812   6.079
54188SOL     OW64337   8.417  13.849   8.865
54188SOL    HW164338   8.341  13.809   8.823
54188SOL    HW264339   8.478  13.776   8.879
54189SOL     OW64340   1.181  12.701  14.703
54189SOL    HW164341   1.180  12.751  14.784
54189SOL    HW264342   1.102  12.646  14.708
54190SOL     OW64343   9.262   6.672   4.411
54190SOL    HW164344   9.241   6.691   4.502
54190SOL    HW264345   9.184   6.700   4.362
54191SOL     OW64346   1.946   2.019   1.804
54191SOL    HW164347   1.924   1.987   1.891
54191SOL    HW264348   1.913   1.951   1.745
54192SOL     OW64349   8.243   3.465   7.564
54192SOL    HW164350   8.188   3.543   7.561
54192SOL    HW264351   8.214   3.413   7.489
54193SOL     OW64352   0.934  13.747  14.870
54193SOL    HW164353   0.897  13.777   0.071
54193SOL    HW264354   0.897  13.806  14.804
54194SOL     OW64355  14.422   1.709   6.337
54194SOL    HW164356  14.393   1.626   6.300
54194SOL    HW264357  14.344   1.745   6.379
54195SOL     OW64358   4.046   1.865   7.253
54195SOL    HW164359   4.117   1.918   7.216
54195SOL    HW264360   3.967   1.896   7.208
54196SOL     OW64361   6.363   2.463   9.750
54196SOL    HW164362   6.434   2.441   9.691
54196SOL    HW264363   6.383   2.552   9.780
54197SOL     OW64364  13.297  13.450  14.606
54197SOL    HW164365  13.362  13.492  14.663
54197SOL    HW264366  13.254  13.523  14.561
54198SOL     OW64367   2.031   7.189  10.855
54198SOL    HW164368   1.993   7.141  10.782
54198SOL    HW264369   2.072   7.266  10.814
54199SOL     OW64370   7.877  11.806  13.113
54199SOL    HW164371   7.949  11.780  13.171
54199SOL    HW264372   7.799  11.774  13.158
54200SOL     OW64373   2.501  10.873  10.651
54200SOL    HW164374   2.549  10.790  10.661
54200SOL    HW264375   2.563  10.930  10.605
54201SOL     OW64376  14.543   6.944  10.647
54201SOL    HW164377  14.449   6.949  10.632
54201SOL    HW264378  14.556   6.975  10.737
54202SOL     OW64379   9.984   1.726   4.972
54202SOL    HW164380   9.990   1.778   4.892
54202SOL    HW264381   9.953   1.788   5.038
54203SOL     OW64382   4.108   5.256   7.618
54203SOL    HW164383   4.087   5.299   7.535
54203SOL    HW264384   4.183   5.304   7.652
54204SOL     OW64385   3.259   7.023   4.083
54204SOL    HW164386   3.202   7.031   4.159
54204SOL    HW264387   3.201   7.029   4.007
54205SOL     OW64388  11.079   5.192  10.480
54205SOL    HW164389  11.057   5.242  10.558
54205SOL    HW264390  11.000   5.195  10.426
54206SOL     OW64391   7.018  12.743   7.251
54206SOL    HW164392   7.089  12.707   7.198
54206SOL    HW264393   7.005  12.832   7.216
54207SOL     OW64394   2.923   1.546   4.912
54207SOL    HW164395   2.876   1.608   4.856
54207SOL    HW264396   2.888   1.460   4.887
54208SOL     OW64397  12.238   2.357   3.917
54208SOL    HW164398  12.280   2.391   3.837
54208SOL    HW264399  12.261   2.264   3.918
54209SOL     OW64400   3.206   3.992   0.982
54209SOL    HW164401   3.115   3.978   0.955
54209SOL    HW264402   3.200   4.046   1.061
54210SOL     OW64403  13.729   7.650   0.044
54210SOL    HW164404  13.767   7.565   0.020
54210SOL    HW264405  13.735   7.653   0.139
54211SOL     OW64406  11.720  10.255  10.213
54211SOL    HW164407  11.697  10.235  10.304
54211SOL    HW264408  11.702  10.349  10.204
54212SOL     OW64409   8.461   0.709  10.484
54212SOL    HW164410   8.393   0.647  10.456
54212SOL    HW264411   8.412   0.787  10.510
54213SOL     OW64412   9.993   6.657   6.547
54213SOL    HW164413   9.975   6.654   6.641
54213SOL    HW264414   9.920   6.609   6.507
54214SOL     OW64415  10.882   1.022  10.255
54214SOL    HW164416  10.916   1.093  10.199
54214SOL    HW264417  10.938   1.024  10.332
54215SOL     OW64418   0.261   5.147   5.115
54215SOL    HW164419   0.322   5.080   5.146
54215SOL    HW264420   0.301   5.181   5.035
54216SOL     OW64421  14.362   9.894   5.268
54216SOL    HW164422  14.433   9.958   5.259
54216SOL    HW264423  14.406   9.810   5.279
54217SOL     OW64424   0.516   2.352   7.949
54217SOL    HW164425   0.420   2.360   7.953
54217SOL    HW264426   0.533   2.301   7.871
54218SOL     OW64427   5.448   4.972   9.570
54218SOL    HW164428   5.463   5.017   9.487
54218SOL    HW264429   5.353   4.971   9.581
54219SOL     OW64430   1.983  10.157   7.585
54219SOL    HW164431   2.011  10.223   7.521
54219SOL    HW264432   1.915  10.107   7.540
54220SOL     OW64433   1.105   6.395   3.179
54220SOL    HW164434   1.138   6.460   3.118
54220SOL    HW264435   1.071   6.445   3.253
54221SOL     OW64436   0.081   3.442  12.192
54221SOL    HW164437   0.033   3.426  12.274
54221SOL    HW264438   0.173   3.438  12.217
54222SOL     OW64439  10.196   2.875  10.927
54222SOL    HW164440  10.143   2.911  10.998
54222SOL    HW264441  10.132   2.840  10.865
54223SOL     OW64442   7.929   4.940  11.279
54223SOL    HW164443   7.884   4.927  11.362
54223SOL    HW264444   8.017   4.970  11.303
54224SOL     OW64445   4.198   2.633  14.442
54224SOL    HW164446   4.195   2.538  14.441
54224SOL    HW264447   4.191   2.657  14.535
54225SOL     OW64448   3.415  11.195   4.216
54225SOL    HW164449   3.451  11.227   4.298
54225SOL    HW264450   3.451  11.254   4.149
54226SOL     OW64451  14.753  11.510  14.363
54226SOL    HW164452  14.816  11.577  14.390
54226SOL    HW264453  14.804  11.428  14.363
54227SOL     OW64454  11.298   9.451   9.004
54227SOL    HW164455  11.374   9.439   8.946
54227SOL    HW264456  11.240   9.509   8.955
54228SOL     OW64457  14.533   1.695  13.250
54228SOL    HW164458  14.465   1.665  13.311
54228SOL    HW264459  14.488   1.757  13.193
54229SOL     OW64460   2.758  14.688   9.630
54229SOL    HW164461   2.721  14.641   9.555
54229SOL    HW264462   2.726  14.641   9.707
54230SOL     OW64463   7.956  12.600   2.559
54230SOL    HW164464   8.007  12.536   2.609
54230SOL    HW264465   7.978  12.684   2.599
54231SOL     OW64466  14.268  10.393  13.406
54231SOL    HW164467  14.275  10.310  13.454
54231SOL    HW264468  14.271  10.461  13.474
54232SOL     OW64469   5.189   7.686   5.282
54232SOL    HW164470   5.279   7.695   5.251
54232SOL    HW264471   5.150   7.622   5.223
54233SOL     OW64472   2.903   5.421  13.873
54233SOL    HW164473   2.969   5.424  13.804
54233SOL    HW264474   2.901   5.510  13.908
54234SOL     OW64475  12.162   5.852  10.202
54234SOL    HW164476  12.172   5.933  10.253
54234SOL    HW264477  12.226   5.862  10.131
54235SOL     OW64478   6.156   2.582   8.291
54235SOL    HW164479   6.103   2.584   8.212
54235SOL    HW264480   6.097   2.551   8.360
54236SOL     OW64481  13.557   7.518   3.372
54236SOL    HW164482  13.614   7.469   3.431
54236SOL    HW264483  13.487   7.456   3.349
54237SOL     OW64484  11.483   8.446  11.260
54237SOL    HW164485  11.570   8.479  11.282
54237SOL    HW264486  11.422   8.513  11.292
54238SOL     OW64487   7.766  14.601   1.443
54238SOL    HW164488   7.761  14.531   1.378
54238SOL    HW264489   7.699  14.664   1.417
54239SOL     OW64490  11.230   5.809   8.748
54239SOL    HW164491  11.294   5.869   8.785
54239SOL    HW264492  11.206   5.752   8.822
54240SOL     OW64493  13.529   6.145  10.032
54240SOL    HW164494  13.617   6.113  10.052
54240SOL    HW264495  13.543   6.232   9.995
54241SOL     OW64496   7.157  13.825   0.909
54241SOL    HW164497   7.200  13.740   0.919
54241SOL    HW264498   7.142  13.855   0.999
54242SOL     OW64499   0.636  12.515   3.379
54242SOL    HW164500   0.556  12.561   3.355
54242SOL    HW264501   0.648  12.450   3.309
54243SOL     OW64502   3.012  11.115   2.560
54243SOL    HW164503   2.928  11.095   2.519
54243SOL    HW264504   3.034  11.202   2.528
54244SOL     OW64505  10.664   7.413   0.482
54244SOL    HW164506  10.726   7.456   0.423
54244SOL    HW264507  10.656   7.324   0.447
54245SOL     OW64508   8.875   3.593   6.597
54245SOL    HW164509   8.872   3.606   6.502
54245SOL    HW264510   8.950   3.535   6.612
54246SOL     OW64511   8.780  13.666   3.999
54246SOL    HW164512   8.837  13.616   4.058
54246SOL    HW264513   8.781  13.755   4.034
54247SOL     OW64514   0.541   1.299   9.389
54247SOL    HW164515   0.584   1.246   9.456
54247SOL    HW264516   0.471   1.346   9.436
54248SOL     OW64517   5.015  11.178  14.633
54248SOL    HW164518   5.025  11.249  14.696
54248SOL    HW264519   4.938  11.203  14.581
54249SOL     OW64520   1.879   6.434   2.220
54249SOL    HW164521   1.926   6.480   2.290
54249SOL    HW264522   1.868   6.345   2.253
54250SOL     OW64523   5.448   5.679   3.898
54250SOL    HW164524   5.389   5.708   3.828
54250SOL    HW264525   5.468   5.759   3.947
54251SOL     OW64526   8.633  12.439   2.128
54251SOL    HW164527   8.676  12.523   2.142
54251SOL    HW264528   8.569  12.456   2.059
54252SOL     OW64529   5.088   6.962   0.935
54252SOL    HW164530   5.044   6.949   0.852
54252SOL    HW264531   5.176   6.992   0.911
54253SOL     OW64532   0.460  10.922  11.968
54253SOL    HW164533   0.397  10.859  11.931
54253SOL    HW264534   0.525  10.934  11.898
54254SOL     OW64535   6.222   3.240   1.692
54254SOL    HW164536   6.211   3.327   1.731
54254SOL    HW264537   6.134   3.216   1.663
54255SOL     OW64538  12.164  10.149   8.177
54255SOL    HW164539  12.119  10.232   8.162
54255SOL    HW264540  12.197  10.156   8.267
54256SOL     OW64541  10.648   2.448  12.830
54256SOL    HW164542  10.738   2.453  12.864
54256SOL    HW264543  10.658   2.423  12.739
54257SOL     OW64544  10.750  14.345   7.427
54257SOL    HW164545  10.723  14.351   7.335
54257SOL    HW264546  10.807  14.269   7.431
54258SOL     OW64547  13.415   8.277   3.061
54258SOL    HW164548  13.375   8.193   3.037
54258SOL    HW264549  13.502   8.253   3.093
54259SOL     OW64550   5.901   2.634  11.531
54259SOL    HW164551   5.863   2.546  11.523
54259SOL    HW264552   5.837   2.691  11.489
54260SOL     OW64553   7.860   0.562   0.167
54260SOL    HW164554   7.866   0.522   0.080
54260SOL    HW264555   7.770   0.544   0.195
54261SOL     OW64556   0.150   8.890   9.109
54261SOL    HW164557   0.192   8.905   9.193
54261SOL    HW264558   0.074   8.949   9.109
54262SOL     OW64559   7.681   3.274   7.867
54262SOL    HW164560   7.667   3.357   7.821
54262SOL    HW264561   7.689   3.209   7.796
54263SOL     OW64562  13.451  10.705   4.811
54263SOL    HW164563  13.410  10.787   4.838
54263SOL    HW264564  13.440  10.647   4.887
54264SOL     OW64565   3.758  12.996  10.681
54264SOL    HW164566   3.814  13.072  10.690
54264SOL    HW264567   3.670  13.028  10.699
54265SOL     OW64568   0.138  11.063  11.322
54265SOL    HW164569   0.177  11.150  11.323
54265SOL    HW264570   0.168  11.021  11.402
54266SOL     OW64571   6.220   2.112   4.167
54266SOL    HW164572   6.133   2.144   4.192
54266SOL    HW264573   6.280   2.153   4.230
54267SOL     OW64574   6.979   0.638  12.791
54267SOL    HW164575   7.049   0.576  12.813
54267SOL    HW264576   6.995   0.660  12.699
54268SOL     OW64577  11.684   1.179   9.676
54268SOL    HW164578  11.620   1.128   9.727
54268SOL    HW264579  11.751   1.202   9.740
54269SOL     OW64580  10.083   1.136  14.438
54269SOL    HW164581  10.016   1.151  14.505
54269SOL    HW264582  10.162   1.177  14.472
54270SOL     OW64583   6.381   0.017   6.726
54270SOL    HW164584   6.397   0.110   6.735
54270SOL    HW264585   6.291   0.011   6.692
54271SOL     OW64586  10.675   5.931  12.573
54271SOL    HW164587  10.629   5.884  12.642
54271SOL    HW264588  10.699   5.864  12.509
54272SOL     OW64589   9.963  13.392   8.366
54272SOL    HW164590  10.044  13.361   8.405
54272SOL    HW264591   9.966  13.361   8.275
54273SOL     OW64592   8.071   6.973   3.952
54273SOL    HW164593   7.991   6.932   3.918
54273SOL    HW264594   8.110   6.907   4.008
54274SOL     OW64595  10.136   1.137  12.538
54274SOL    HW164596  10.146   1.088  12.457
54274SOL    HW264597  10.170   1.079  12.606
54275SOL     OW64598   3.170   4.872   0.299
54275SOL    HW164599   3.194   4.923   0.376
54275SOL    HW264600   3.249   4.873   0.244
54276SOL     OW64601   3.005   5.764   3.483
54276SOL    HW164602   2.958   5.830   3.432
54276SOL    HW264603   3.056   5.814   3.546
54277SOL     OW64604   8.742   5.593   5.429
54277SOL    HW164605   8.657   5.593   5.384
54277SOL    HW264606   8.726   5.641   5.510
54278SOL     OW64607   7.031   6.464   1.712
54278SOL    HW164608   7.087   6.392   1.740
54278SOL    HW264609   6.944   6.440   1.745
54279SOL     OW64610   8.977  10.116   6.154
54279SOL    HW164611   9.023  10.033   6.143
54279SOL    HW264612   9.020  10.157   6.230
54280SOL     OW64613   9.318   8.728   0.138
54280SOL    HW164614   9.276   8.763   0.059
54280SOL    HW264615   9.410   8.752   0.130
54281SOL     OW64616  12.515   7.204  11.273
54281SOL    HW164617  12.493   7.272  11.337
54281SOL    HW264618  12.611   7.201  11.272
54282SOL     OW64619  12.430   1.843   0.236
54282SOL    HW164620  12.345   1.805   0.256
54282SOL    HW264621  12.427   1.931   0.274
54283SOL     OW64622   6.528   7.212   9.594
54283SOL    HW164623   6.561   7.127   9.568
54283SOL    HW264624   6.528   7.209   9.690
54284SOL     OW64625  10.850  12.598   1.631
54284SOL    HW164626  10.799  12.527   1.670
54284SOL    HW264627  10.915  12.554   1.576
54285SOL     OW64628  12.904  10.243  13.415
54285SOL    HW164629  12.847  10.172  13.387
54285SOL    HW264630  12.845  10.316  13.434
54286SOL     OW64631   0.954   5.364   3.563
54286SOL    HW164632   0.930   5.383   3.473
54286SOL    HW264633   0.990   5.447   3.596
54287SOL     OW64634   7.502  13.152   0.098
54287SOL    HW164635   7.571  13.216   0.083
54287SOL    HW264636   7.427  13.204   0.125
54288SOL     OW64637   2.432   7.233  12.415
54288SOL    HW164638   2.463   7.173  12.347
54288SOL    HW264639   2.429   7.319  12.372
54289SOL     OW64640   2.850  10.133   0.619
54289SOL    HW164641   2.836  10.226   0.601
54289SOL    HW264642   2.775  10.108   0.672
54290SOL     OW64643  11.288   2.826  14.259
54290SOL    HW164644  11.367   2.861  14.218
54290SOL    HW264645  11.216   2.878  14.223
54291SOL     OW64646   7.163   3.672   7.487
54291SOL    HW164647   7.205   3.717   7.413
54291SOL    HW264648   7.073   3.704   7.486
54292SOL     OW64649   8.208   5.966   7.637
54292SOL    HW164650   8.115   5.940   7.630
54292SOL    HW264651   8.206   6.061   7.646
54293SOL     OW64652   3.425   7.751   5.901
54293SOL    HW164653   3.484   7.742   5.975
54293SOL    HW264654   3.375   7.830   5.919
54294SOL     OW64655   2.605   5.794   8.950
54294SOL    HW164656   2.625   5.886   8.933
54294SOL    HW264657   2.682   5.761   8.996
54295SOL     OW64658   4.976  10.104   7.256
54295SOL    HW164659   4.965  10.145   7.342
54295SOL    HW264660   4.907  10.143   7.202
54296SOL     OW64661   1.679   8.725  13.588
54296SOL    HW164662   1.739   8.721  13.514
54296SOL    HW264663   1.716   8.666  13.653
54297SOL     OW64664   0.592  13.698   8.235
54297SOL    HW164665   0.584  13.602   8.231
54297SOL    HW264666   0.662  13.714   8.297
54298SOL     OW64667  13.470  14.641   0.905
54298SOL    HW164668  13.444  14.622   0.816
54298SOL    HW264669  13.566  14.632   0.904
54299SOL     OW64670   5.726   9.344   2.832
54299SOL    HW164671   5.818   9.323   2.841
54299SOL    HW264672   5.713   9.422   2.886
54300SOL     OW64673   5.639  10.210   3.609
54300SOL    HW164674   5.679  10.124   3.621
54300SOL    HW264675   5.583  10.221   3.685
54301SOL     OW64676   7.975   5.699   1.479
54301SOL    HW164677   8.050   5.746   1.442
54301SOL    HW264678   7.985   5.609   1.448
54302SOL     OW64679   8.625   0.766   8.732
54302SOL    HW164680   8.618   0.737   8.641
54302SOL    HW264681   8.606   0.689   8.784
54303SOL     OW64682   5.148   8.298  14.407
54303SOL    HW164683   5.077   8.343  14.453
54303SOL    HW264684   5.126   8.205  14.415
54304SOL     OW64685   6.263  13.763   3.376
54304SOL    HW164686   6.239  13.774   3.285
54304SOL    HW264687   6.191  13.802   3.425
54305SOL     OW64688   9.363   7.607   6.343
54305SOL    HW164689   9.313   7.615   6.262
54305SOL    HW264690   9.384   7.513   6.349
54306SOL     OW64691   1.796  11.263  10.184
54306SOL    HW164692   1.796  11.293  10.093
54306SOL    HW264693   1.763  11.337  10.234
54307SOL     OW64694  11.960  12.792  12.901
54307SOL    HW164695  11.987  12.773  12.810
54307SOL    HW264696  11.877  12.746  12.911
54308SOL     OW64697   4.636   2.811   4.421
54308SOL    HW164698   4.570   2.880   4.418
54308SOL    HW264699   4.708   2.849   4.470
54309SOL     OW64700   7.143   4.160   8.292
54309SOL    HW164701   7.057   4.182   8.258
54309SOL    HW264702   7.161   4.227   8.359
54310SOL     OW64703   9.549  11.939   6.982
54310SOL    HW164704   9.568  11.846   6.996
54310SOL    HW264705   9.611  11.967   6.915
54311SOL     OW64706   4.063   4.098   1.169
54311SOL    HW164707   4.133   4.158   1.144
54311SOL    HW264708   4.109   4.023   1.206
54312SOL     OW64709   5.593   2.148   6.020
54312SOL    HW164710   5.657   2.157   6.090
54312SOL    HW264711   5.587   2.054   6.004
54313SOL     OW64712   5.438   8.580   7.576
54313SOL    HW164713   5.382   8.623   7.511
54313SOL    HW264714   5.518   8.558   7.529
54314SOL     OW64715  13.390   0.833  14.119
54314SOL    HW164716  13.397   0.868  14.208
54314SOL    HW264717  13.295   0.825  14.104
54315SOL     OW64718   5.244   3.991   4.419
54315SOL    HW164719   5.258   3.900   4.446
54315SOL    HW264720   5.327   4.018   4.380
54316SOL     OW64721   4.030   3.024  10.911
54316SOL    HW164722   4.046   3.109  10.870
54316SOL    HW264723   3.946   3.035  10.957
54317SOL     OW64724   8.594   1.711   9.971
54317SOL    HW164725   8.549   1.793   9.989
54317SOL    HW264726   8.577   1.657  10.048
54318SOL     OW64727  12.322  10.518   4.545
54318SOL    HW164728  12.355  10.597   4.588
54318SOL    HW264729  12.377  10.448   4.578
54319SOL     OW64730   9.248   1.103   7.060
54319SOL    HW164731   9.293   1.138   7.138
54319SOL    HW264732   9.278   1.159   6.989
54320SOL     OW64733   6.236   3.885   1.258
54320SOL    HW164734   6.164   3.948   1.257
54320SOL    HW264735   6.305   3.927   1.206
54321SOL     OW64736   4.587   3.237   8.946
54321SOL    HW164737   4.608   3.176   9.016
54321SOL    HW264738   4.551   3.314   8.990
54322SOL     OW64739   3.913   5.989  13.236
54322SOL    HW164740   3.880   5.922  13.176
54322SOL    HW264741   3.835   6.036  13.265
54323SOL     OW64742   7.310   1.041   2.012
54323SOL    HW164743   7.259   1.042   2.092
54323SOL    HW264744   7.400   1.028   2.040
54324SOL     OW64745   6.821   6.595   1.205
54324SOL    HW164746   6.913   6.573   1.194
54324SOL    HW264747   6.817   6.690   1.202
54325SOL     OW64748   2.072   2.653   0.972
54325SOL    HW164749   2.112   2.635   1.057
54325SOL    HW264750   2.013   2.726   0.988
54326SOL     OW64751   9.008  12.057   5.414
54326SOL    HW164752   9.086  12.017   5.374
54326SOL    HW264753   8.936  12.030   5.358
54327SOL     OW64754   4.955   1.554   5.153
54327SOL    HW164755   4.952   1.466   5.116
54327SOL    HW264756   4.966   1.612   5.078
54328SOL     OW64757   1.029   2.662   8.402
54328SOL    HW164758   1.052   2.717   8.327
54328SOL    HW264759   0.946   2.620   8.376
54329SOL     OW64760  13.029   1.000   8.503
54329SOL    HW164761  12.947   1.015   8.551
54329SOL    HW264762  13.000   0.975   8.415
54330SOL     OW64763  14.071   5.434  11.694
54330SOL    HW164764  14.077   5.483  11.612
54330SOL    HW264765  14.036   5.349  11.668
54331SOL     OW64766   9.858   6.973   3.675
54331SOL    HW164767   9.833   7.051   3.726
54331SOL    HW264768   9.776   6.942   3.638
54332SOL     OW64769   8.822   1.774   8.383
54332SOL    HW164770   8.810   1.744   8.473
54332SOL    HW264771   8.734   1.801   8.354
54333SOL     OW64772  13.247   8.755   6.220
54333SOL    HW164773  13.223   8.717   6.136
54333SOL    HW264774  13.211   8.694   6.285
54334SOL     OW64775   2.418  13.772   8.195
54334SOL    HW164776   2.480  13.843   8.183
54334SOL    HW264777   2.427  13.718   8.116
54335SOL     OW64778   7.305  10.776  14.279
54335SOL    HW164779   7.305  10.717  14.354
54335SOL    HW264780   7.236  10.840  14.299
54336SOL     OW64781   8.722   5.696   3.941
54336SOL    HW164782   8.697   5.787   3.956
54336SOL    HW264783   8.797   5.700   3.882
54337SOL     OW64784   5.668   0.506   5.440
54337SOL    HW164785   5.699   0.463   5.360
54337SOL    HW264786   5.700   0.449   5.511
54338SOL     OW64787   0.128   1.662   5.742
54338SOL    HW164788   0.118   1.679   5.649
54338SOL    HW264789   0.215   1.622   5.751
54339SOL     OW64790   2.035   6.588  11.444
54339SOL    HW164791   2.113   6.583  11.389
54339SOL    HW264792   2.063   6.555  11.529
54340SOL     OW64793  14.440   3.759   4.460
54340SOL    HW164794  14.492   3.692   4.505
54340SOL    HW264795  14.406   3.715   4.382
54341SOL     OW64796   6.301  11.161   6.214
54341SOL    HW164797   6.366  11.092   6.221
54341SOL    HW264798   6.311  11.213   6.294
54342SOL     OW64799  13.290  11.046  13.693
54342SOL    HW164800  13.316  11.050  13.785
54342SOL    HW264801  13.203  11.086  13.690
54343SOL     OW64802   5.020   0.539   1.368
54343SOL    HW164803   5.097   0.595   1.359
54343SOL    HW264804   4.970   0.578   1.440
54344SOL     OW64805  13.124  13.103   4.507
54344SOL    HW164806  13.130  13.030   4.444
54344SOL    HW264807  13.031  13.120   4.516
54345SOL     OW64808   3.951  12.044   7.291
54345SOL    HW164809   3.964  12.114   7.355
54345SOL    HW264810   3.933  11.966   7.344
54346SOL     OW64811  12.944   6.904   7.352
54346SOL    HW164812  12.870   6.959   7.325
54346SOL    HW264813  12.917   6.870   7.438
54347SOL     OW64814   4.083   1.719  12.905
54347SOL    HW164815   4.041   1.742  12.822
54347SOL    HW264816   4.174   1.700  12.881
54348SOL     OW64817  12.524  14.112   1.157
54348SOL    HW164818  12.521  14.092   1.064
54348SOL    HW264819  12.451  14.063   1.195
54349SOL     OW64820   4.443   4.332   7.396
54349SOL    HW164821   4.429   4.332   7.302
54349SOL    HW264822   4.500   4.407   7.412
54350SOL     OW64823   0.363   5.717  13.826
54350SOL    HW164824   0.341   5.733  13.918
54350SOL    HW264825   0.280   5.698  13.784
54351SOL     OW64826   8.652  10.728   6.099
54351SOL    HW164827   8.601  10.666   6.151
54351SOL    HW264828   8.666  10.802   6.158
54352SOL     OW64829  11.781  12.141  12.992
54352SOL    HW164830  11.701  12.164  13.040
54352SOL    HW264831  11.846  12.206  13.021
54353SOL     OW64832   5.405  10.535   8.408
54353SOL    HW164833   5.363  10.621   8.407
54353SOL    HW264834   5.336  10.474   8.434
54354SOL     OW64835  11.008  13.194   9.917
54354SOL    HW164836  10.948  13.175   9.845
54354SOL    HW264837  11.087  13.226   9.875
54355SOL     OW64838   9.869   4.908  13.299
54355SOL    HW164839   9.900   4.981  13.352
54355SOL    HW264840   9.943   4.848  13.295
54356SOL     OW64841   9.349   8.993   8.332
54356SOL    HW164842   9.438   9.002   8.364
54356SOL    HW264843   9.309   8.929   8.390
54357SOL     OW64844   4.709  11.956   6.953
54357SOL    HW164845   4.697  12.042   6.912
54357SOL    HW264846   4.627  11.939   6.998
54358SOL     OW64847   4.640   0.544   0.971
54358SOL    HW164848   4.640   0.456   0.933
54358SOL    HW264849   4.707   0.591   0.922
54359SOL     OW64850   9.795  12.955   3.684
54359SOL    HW164851   9.803  12.969   3.778
54359SOL    HW264852   9.706  12.924   3.672
54360SOL     OW64853   4.445   8.078  11.481
54360SOL    HW164854   4.444   8.129  11.400
54360SOL    HW264855   4.500   8.003  11.461
54361SOL     OW64856  14.138   3.114   9.482
54361SOL    HW164857  14.069   3.068   9.434
54361SOL    HW264858  14.205   3.047   9.498
54362SOL     OW64859   3.931   1.429   6.016
54362SOL    HW164860   3.968   1.475   5.940
54362SOL    HW264861   3.843   1.405   5.989
54363SOL     OW64862  10.352   9.792   2.947
54363SOL    HW164863  10.318   9.744   2.872
54363SOL    HW264864  10.432   9.834   2.915
54364SOL     OW64865  13.606   2.932  14.682
54364SOL    HW164866  13.544   2.917  14.611
54364SOL    HW264867  13.595   2.857  14.740
54365SOL     OW64868   8.618   4.018  11.619
54365SOL    HW164869   8.581   3.932  11.642
54365SOL    HW264870   8.547   4.062  11.572
54366SOL     OW64871   9.895   4.466  10.566
54366SOL    HW164872   9.864   4.544  10.519
54366SOL    HW264873   9.960   4.500  10.628
54367SOL     OW64874   8.738   9.962  10.703
54367SOL    HW164875   8.829   9.988  10.689
54367SOL    HW264876   8.735   9.932  10.794
54368SOL     OW64877   6.024   1.845   4.763
54368SOL    HW164878   6.019   1.786   4.838
54368SOL    HW264879   6.069   1.795   4.695
54369SOL     OW64880  12.272   8.302   8.272
54369SOL    HW164881  12.305   8.337   8.354
54369SOL    HW264882  12.334   8.233   8.248
54370SOL     OW64883   8.204   7.894   9.790
54370SOL    HW164884   8.145   7.829   9.829
54370SOL    HW264885   8.167   7.978   9.814
54371SOL     OW64886   8.402   8.999  14.726
54371SOL    HW164887   8.458   9.062  14.772
54371SOL    HW264888   8.402   8.922  14.783
54372SOL     OW64889  10.684   1.510  12.603
54372SOL    HW164890  10.622   1.445  12.636
54372SOL    HW264891  10.662   1.518  12.510
54373SOL     OW64892  13.066   6.958   6.643
54373SOL    HW164893  13.110   6.914   6.716
54373SOL    HW264894  12.978   6.921   6.643
54374SOL     OW64895  12.090   4.229  10.617
54374SOL    HW164896  12.062   4.214  10.526
54374SOL    HW264897  12.021   4.283  10.655
54375SOL     OW64898   8.451   2.486   2.145
54375SOL    HW164899   8.511   2.429   2.098
54375SOL    HW264900   8.505   2.530   2.210
54376SOL     OW64901  10.580   6.229   0.976
54376SOL    HW164902  10.490   6.263   0.968
54376SOL    HW264903  10.607   6.255   1.064
54377SOL     OW64904   6.785   3.659  12.743
54377SOL    HW164905   6.704   3.643  12.791
54377SOL    HW264906   6.800   3.753  12.750
54378SOL     OW64907   4.861   2.756  14.218
54378SOL    HW164908   4.899   2.694  14.281
54378SOL    HW264909   4.870   2.712  14.134
54379SOL     OW64910   6.473   0.729  13.596
54379SOL    HW164911   6.410   0.730  13.524
54379SOL    HW264912   6.419   0.719  13.674
54380SOL     OW64913   3.688   6.707   6.416
54380SOL    HW164914   3.674   6.729   6.324
54380SOL    HW264915   3.766   6.758   6.441
54381SOL     OW64916  10.709   1.398   2.091
54381SOL    HW164917  10.781   1.459   2.076
54381SOL    HW264918  10.633   1.439   2.050
54382SOL     OW64919   3.848  10.747   6.519
54382SOL    HW164920   3.797  10.740   6.438
54382SOL    HW264921   3.791  10.795   6.579
54383SOL     OW64922   1.714  11.781   9.236
54383SOL    HW164923   1.701  11.700   9.285
54383SOL    HW264924   1.631  11.828   9.247
54384SOL     OW64925  14.329   6.248   2.158
54384SOL    HW164926  14.348   6.207   2.242
54384SOL    HW264927  14.414   6.279   2.126
54385SOL     OW64928   1.315   8.988  14.748
54385SOL    HW164929   1.347   9.069  14.788
54385SOL    HW264930   1.261   8.948  14.817
54386SOL     OW64931  13.179   3.577   2.102
54386SOL    HW164932  13.261   3.590   2.151
54386SOL    HW264933  13.196   3.616   2.016
54387SOL     OW64934   5.640   7.616   9.683
54387SOL    HW164935   5.615   7.707   9.664
54387SOL    HW264936   5.723   7.624   9.730
54388SOL     OW64937   4.379  10.681   7.229
54388SOL    HW164938   4.375  10.694   7.134
54388SOL    HW264939   4.292  10.650   7.252
54389SOL     OW64940   8.208   1.414   1.410
54389SOL    HW164941   8.166   1.399   1.326
54389SOL    HW264942   8.300   1.430   1.389
54390SOL     OW64943   2.640  11.023   3.442
54390SOL    HW164944   2.638  11.042   3.536
54390SOL    HW264945   2.675  10.934   3.435
54391SOL     OW64946   1.437   6.976   8.298
54391SOL    HW164947   1.532   6.985   8.293
54391SOL    HW264948   1.403   7.058   8.262
54392SOL     OW64949   1.005   6.522   3.846
54392SOL    HW164950   1.050   6.531   3.930
54392SOL    HW264951   1.029   6.434   3.816
54393SOL     OW64952   0.851   6.192   5.928
54393SOL    HW164953   0.886   6.280   5.944
54393SOL    HW264954   0.911   6.154   5.864
54394SOL     OW64955  13.210   4.943   7.895
54394SOL    HW164956  13.224   4.878   7.826
54394SOL    HW264957  13.247   4.903   7.973
54395SOL     OW64958   7.687   5.795  14.093
54395SOL    HW164959   7.737   5.798  14.175
54395SOL    HW264960   7.674   5.702  14.077
54396SOL     OW64961   8.268   6.874   7.850
54396SOL    HW164962   8.359   6.866   7.878
54396SOL    HW264963   8.267   6.949   7.791
54397SOL     OW64964   8.380   2.231   9.948
54397SOL    HW164965   8.399   2.233  10.041
54397SOL    HW264966   8.355   2.140   9.930
54398SOL     OW64967  12.602   6.426   9.934
54398SOL    HW164968  12.533   6.435   9.999
54398SOL    HW264969  12.671   6.377   9.978
54399SOL     OW64970   9.392   3.111   0.213
54399SOL    HW164971   9.372   3.055   0.288
54399SOL    HW264972   9.320   3.175   0.211
54400SOL     OW64973   2.704   0.941  14.106
54400SOL    HW164974   2.652   0.954  14.185
54400SOL    HW264975   2.668   1.003  14.043
54401SOL     OW64976  13.800  13.480   4.758
54401SOL    HW164977  13.849  13.513   4.833
54401SOL    HW264978  13.861  13.421   4.713
54402SOL     OW64979   9.147   8.724  10.109
54402SOL    HW164980   9.161   8.753  10.200
54402SOL    HW264981   9.136   8.630  10.116
54403SOL     OW64982   8.208  12.826  11.359
54403SOL    HW164983   8.255  12.886  11.300
54403SOL    HW264984   8.233  12.739  11.329
54404SOL     OW64985  12.384   3.717   3.891
54404SOL    HW164986  12.451   3.649   3.882
54404SOL    HW264987  12.366   3.745   3.801
54405SOL     OW64988   4.933   0.472  12.276
54405SOL    HW164989   4.980   0.391  12.296
54405SOL    HW264990   5.001   0.535  12.254
54406SOL     OW64991  14.087   1.071   8.962
54406SOL    HW164992  14.001   1.048   8.928
54406SOL    HW264993  14.073   1.086   9.055
54407SOL     OW64994  11.747  13.074   2.507
54407SOL    HW164995  11.777  13.044   2.422
54407SOL    HW264996  11.820  13.125   2.543
54408SOL     OW64997   3.672   4.893   0.539
54408SOL    HW164998   3.583   4.868   0.513
54408SOL    HW264999   3.699   4.957   0.475
54409SOL     OW65000   2.291  11.627   1.000
54409SOL    HW165001   2.374  11.661   0.966
54409SOL    HW265002   2.243  11.704   1.031
54410SOL     OW65003   6.484   8.706   5.107
54410SOL    HW165004   6.528   8.791   5.116
54410SOL    HW265005   6.486   8.688   5.013
54411SOL     OW65006   8.540  12.178   1.647
54411SOL    HW165007   8.503  12.202   1.732
54411SOL    HW265008   8.600  12.106   1.666
54412SOL     OW65009   2.020   0.122  11.290
54412SOL    HW165010   1.950   0.171  11.247
54412SOL    HW265011   1.973   0.061  11.348
54413SOL     OW65012   5.550   4.938   4.865
54413SOL    HW165013   5.610   4.938   4.790
54413SOL    HW265014   5.515   5.027   4.868
54414SOL     OW65015  10.029   7.208   2.550
54414SOL    HW165016  10.081   7.133   2.580
54414SOL    HW265017  10.009   7.188   2.459
54415SOL     OW65018  10.000   1.677   7.017
54415SOL    HW165019   9.954   1.761   7.021
54415SOL    HW265020   9.995   1.650   6.925
54416SOL     OW65021   7.506   9.732  13.131
54416SOL    HW165022   7.465   9.686  13.204
54416SOL    HW265023   7.432   9.772  13.084
54417SOL     OW65024   4.912   8.182   9.807
54417SOL    HW165025   4.879   8.244   9.741
54417SOL    HW265026   4.907   8.231   9.889
54418SOL     OW65027   3.032  13.148  12.956
54418SOL    HW165028   3.115  13.102  12.944
54418SOL    HW265029   3.058  13.236  12.985
54419SOL     OW65030  11.278  11.658   4.438
54419SOL    HW165031  11.223  11.672   4.515
54419SOL    HW265032  11.256  11.570   4.409
54420SOL     OW65033   1.222   1.060   9.258
54420SOL    HW165034   1.265   1.087   9.177
54420SOL    HW265035   1.286   1.002   9.301
54421SOL     OW65036  12.962   3.029  13.326
54421SOL    HW165037  12.872   3.016  13.358
54421SOL    HW265038  13.017   3.006  13.401
54422SOL     OW65039  10.196   8.401   5.333
54422SOL    HW165040  10.282   8.442   5.340
54422SOL    HW265041  10.195   8.359   5.247
54423SOL     OW65042   1.279  11.311  13.952
54423SOL    HW165043   1.199  11.363  13.947
54423SOL    HW265044   1.344  11.361  13.904
54424SOL     OW65045   3.351   3.821   8.165
54424SOL    HW165046   3.297   3.743   8.153
54424SOL    HW265047   3.372   3.850   8.077
54425SOL     OW65048   7.424   0.782   8.793
54425SOL    HW165049   7.351   0.722   8.805
54425SOL    HW265050   7.425   0.800   8.699
54426SOL     OW65051  11.568   8.184   2.940
54426SOL    HW165052  11.568   8.217   3.030
54426SOL    HW265053  11.656   8.147   2.929
54427SOL     OW65054   2.539   1.956   3.430
54427SOL    HW165055   2.565   2.048   3.434
54427SOL    HW265056   2.578   1.916   3.508
54428SOL     OW65057   1.876   6.276   1.969
54428SOL    HW165058   1.839   6.193   2.000
54428SOL    HW265059   1.896   6.324   2.049
54429SOL     OW65060   0.337   7.924  11.285
54429SOL    HW165061   0.261   7.967  11.246
54429SOL    HW265062   0.388   7.892  11.211
54430SOL     OW65063   9.357  10.400   7.477
54430SOL    HW165064   9.385  10.423   7.389
54430SOL    HW265065   9.281  10.343   7.465
54431SOL     OW65066  11.835   4.736  12.465
54431SOL    HW165067  11.925   4.710  12.443
54431SOL    HW265068  11.821   4.817  12.416
54432SOL     OW65069  13.289   6.905   9.241
54432SOL    HW165070  13.210   6.936   9.286
54432SOL    HW265071  13.275   6.811   9.229
54433SOL     OW65072  10.863   7.225  11.619
54433SOL    HW165073  10.837   7.198  11.530
54433SOL    HW265074  10.791   7.280  11.649
54434SOL     OW65075  13.584   3.581  14.412
54434SOL    HW165076  13.613   3.539  14.331
54434SOL    HW265077  13.646   3.652  14.426
54435SOL     OW65078   2.990   7.179   2.997
54435SOL    HW165079   3.083   7.185   3.020
54435SOL    HW265080   2.983   7.223   2.912
54436SOL     OW65081   7.783  14.385  12.486
54436SOL    HW165082   7.790  14.434  12.568
54436SOL    HW265083   7.791  14.451  12.417
54437SOL     OW65084  12.893   6.034   7.754
54437SOL    HW165085  12.988   6.041   7.761
54437SOL    HW265086  12.874   6.060   7.664
54438SOL     OW65087   0.011  10.776   6.361
54438SOL    HW165088   0.103  10.760   6.341
54438SOL    HW265089  14.851  10.690   6.357
54439SOL     OW65090  13.752   0.471   9.000
54439SOL    HW165091  13.674   0.495   8.951
54439SOL    HW265092  13.723   0.466   9.091
54440SOL     OW65093   5.320  14.016   8.480
54440SOL    HW165094   5.369  13.978   8.553
54440SOL    HW265095   5.294  13.941   8.428
54441SOL     OW65096   4.674  14.153   2.616
54441SOL    HW165097   4.731  14.213   2.568
54441SOL    HW265098   4.600  14.207   2.643
54442SOL     OW65099  11.906   9.109   9.587
54442SOL    HW165100  11.883   9.186   9.638
54442SOL    HW265101  11.839   9.045   9.608
54443SOL     OW65102   6.117   3.601  11.920
54443SOL    HW165103   6.058   3.592  11.995
54443SOL    HW265104   6.106   3.519  11.871
54444SOL     OW65105   6.747   3.699  13.534
54444SOL    HW165106   6.674   3.659  13.487
54444SOL    HW265107   6.747   3.790  13.506
54445SOL     OW65108  14.326  11.411  12.834
54445SOL    HW165109  14.292  11.394  12.922
54445SOL    HW265110  14.408  11.361  12.830
54446SOL     OW65111  12.733  13.354   4.341
54446SOL    HW165112  12.756  13.436   4.384
54446SOL    HW265113  12.656  13.374   4.289
54447SOL     OW65114  13.571   4.697   0.497
54447SOL    HW165115  13.663   4.670   0.498
54447SOL    HW265116  13.573   4.790   0.478
54448SOL     OW65117  11.499   4.784  10.887
54448SOL    HW165118  11.508   4.710  10.948
54448SOL    HW265119  11.557   4.761  10.814
54449SOL     OW65120  11.547   2.148   7.930
54449SOL    HW165121  11.466   2.099   7.917
54449SOL    HW265122  11.537   2.188   8.017
54450SOL     OW65123   0.403  11.386   3.918
54450SOL    HW165124   0.486  11.433   3.923
54450SOL    HW265125   0.349  11.424   3.987
54451SOL     OW65126   2.466   8.859  12.816
54451SOL    HW165127   2.540   8.896  12.864
54451SOL    HW265128   2.412   8.818  12.884
54452SOL     OW65129   4.368   5.579   3.243
54452SOL    HW165130   4.391   5.658   3.193
54452SOL    HW265131   4.408   5.507   3.194
54453SOL     OW65132   3.156  11.424   5.781
54453SOL    HW165133   3.198  11.353   5.733
54453SOL    HW265134   3.065  11.423   5.752
54454SOL     OW65135  10.358   9.298   9.461
54454SOL    HW165136  10.370   9.212   9.500
54454SOL    HW265137  10.447   9.327   9.438
54455SOL     OW65138   5.159  10.134   6.565
54455SOL    HW165139   5.152  10.042   6.540
54455SOL    HW265140   5.092  10.178   6.513
54456SOL     OW65141   2.752   2.944   0.025
54456SOL    HW165142   2.800   2.924   0.105
54456SOL    HW265143   2.812   2.921  14.836
54457SOL     OW65144   7.490   6.165   8.799
54457SOL    HW165145   7.556   6.135   8.861
54457SOL    HW265146   7.414   6.187   8.853
54458SOL     OW65147  10.500  12.137   9.148
54458SOL    HW165148  10.517  12.060   9.202
54458SOL    HW265149  10.466  12.101   9.066
54459SOL     OW65150   3.602   8.617   9.690
54459SOL    HW165151   3.567   8.667   9.764
54459SOL    HW265152   3.545   8.638   9.617
54460SOL     OW65153   7.916   0.275  12.881
54460SOL    HW165154   7.970   0.232  12.948
54460SOL    HW265155   7.971   0.345  12.848
54461SOL     OW65156   2.708   3.801   5.695
54461SOL    HW165157   2.645   3.842   5.636
54461SOL    HW265158   2.792   3.839   5.671
54462SOL     OW65159   1.875   9.611   5.635
54462SOL    HW165160   1.946   9.610   5.571
54462SOL    HW265161   1.811   9.550   5.600
54463SOL     OW65162  12.782   9.341   4.097
54463SOL    HW165163  12.823   9.392   4.166
54463SOL    HW265164  12.729   9.404   4.048
54464SOL     OW65165   1.267  14.663  13.132
54464SOL    HW165166   1.176  14.634  13.137
54464SOL    HW265167   1.289  14.686  13.223
54465SOL     OW65168   5.855   6.419   5.049
54465SOL    HW165169   5.844   6.513   5.062
54465SOL    HW265170   5.927   6.411   4.986
54466SOL     OW65171  12.187  12.031   4.398
54466SOL    HW165172  12.132  11.955   4.416
54466SOL    HW265173  12.139  12.079   4.329
54467SOL     OW65174   0.103   0.501   3.821
54467SOL    HW165175   0.042   0.428   3.808
54467SOL    HW265176   0.149   0.479   3.902
54468SOL     OW65177   9.390   8.921   7.306
54468SOL    HW165178   9.341   8.840   7.321
54468SOL    HW265179   9.323   8.985   7.280
54469SOL     OW65180  14.863   0.273  11.573
54469SOL    HW165181  14.818   0.354  11.594
54469SOL    HW265182  14.821   0.242  11.493
54470SOL     OW65183  12.039  13.988   1.281
54470SOL    HW165184  12.017  13.945   1.363
54470SOL    HW265185  12.127  13.956   1.259
54471SOL     OW65186   8.567   5.844   5.193
54471SOL    HW165187   8.567   5.757   5.231
54471SOL    HW265188   8.515   5.897   5.254
54472SOL     OW65189   2.436   8.178  12.454
54472SOL    HW165190   2.498   8.146  12.389
54472SOL    HW265191   2.397   8.256  12.414
54473SOL     OW65192   8.425   4.491   3.567
54473SOL    HW165193   8.485   4.545   3.515
54473SOL    HW265194   8.448   4.401   3.544
54474SOL     OW65195  12.521   6.740   7.312
54474SOL    HW165196  12.448   6.750   7.251
54474SOL    HW265197  12.592   6.706   7.258
54475SOL     OW65198   8.708   0.383   6.914
54475SOL    HW165199   8.633   0.324   6.908
54475SOL    HW265200   8.683   0.460   6.863
54476SOL     OW65201  11.831   3.727  14.859
54476SOL    HW165202  11.748   3.683  14.874
54476SOL    HW265203  11.817   3.778  14.779
54477SOL     OW65204   6.522   2.741   4.959
54477SOL    HW165205   6.484   2.811   5.013
54477SOL    HW265206   6.564   2.787   4.886
54478SOL     OW65207   3.726  12.577   4.112
54478SOL    HW165208   3.675  12.649   4.149
54478SOL    HW265209   3.817  12.598   4.134
54479SOL     OW65210   9.782   8.971   0.605
54479SOL    HW165211   9.872   8.998   0.588
54479SOL    HW265212   9.753   9.026   0.678
54480SOL     OW65213   4.534  10.403   6.831
54480SOL    HW165214   4.504  10.364   6.914
54480SOL    HW265215   4.567  10.329   6.780
54481SOL     OW65216  10.748   3.959   3.304
54481SOL    HW165217  10.815   4.024   3.280
54481SOL    HW265218  10.735   3.908   3.224
54482SOL     OW65219   2.087  11.178   6.074
54482SOL    HW165220   2.146  11.117   6.118
54482SOL    HW265221   2.123  11.185   5.985
54483SOL     OW65222  10.461  14.457   0.566
54483SOL    HW165223  10.450  14.550   0.587
54483SOL    HW265224  10.434  14.412   0.646
54484SOL     OW65225   7.766   1.211  14.455
54484SOL    HW165226   7.811   1.131  14.485
54484SOL    HW265227   7.759   1.265  14.533
54485SOL     OW65228   2.588   1.249  14.481
54485SOL    HW165229   2.659   1.224  14.541
54485SOL    HW265230   2.518   1.280  14.538
54486SOL     OW65231  10.239   3.066   5.076
54486SOL    HW165232  10.187   3.059   4.996
54486SOL    HW265233  10.244   3.160   5.094
54487SOL     OW65234  11.769   4.776   0.439
54487SOL    HW165235  11.828   4.848   0.413
54487SOL    HW265236  11.745   4.734   0.356
54488SOL     OW65237   6.101  12.639   7.286
54488SOL    HW165238   6.024  12.669   7.335
54488SOL    HW265239   6.174  12.691   7.321
54489SOL     OW65240   9.901  10.592  14.037
54489SOL    HW165241   9.863  10.523  14.091
54489SOL    HW265242   9.960  10.639  14.095
54490SOL     OW65243  12.119   7.056   1.247
54490SOL    HW165244  12.179   6.984   1.225
54490SOL    HW265245  12.035   7.012   1.263
54491SOL     OW65246   8.212   5.211   3.041
54491SOL    HW165247   8.200   5.222   3.135
54491SOL    HW265248   8.124   5.220   3.005
54492SOL     OW65249   1.566   3.296   9.056
54492SOL    HW165250   1.502   3.225   9.045
54492SOL    HW265251   1.513   3.376   9.055
54493SOL     OW65252   2.394   7.042  11.168
54493SOL    HW165253   2.303   7.069  11.156
54493SOL    HW265254   2.429   7.103  11.233
54494SOL     OW65255   6.276  10.591   5.110
54494SOL    HW165256   6.261  10.653   5.038
54494SOL    HW265257   6.204  10.606   5.170
54495SOL     OW65258   0.631   6.842  12.247
54495SOL    HW165259   0.626   6.747  12.253
54495SOL    HW265260   0.565   6.865  12.182
54496SOL     OW65261   1.601   9.759  14.145
54496SOL    HW165262   1.648   9.680  14.173
54496SOL    HW265263   1.523   9.761  14.200
54497SOL     OW65264   4.527   3.129   2.568
54497SOL    HW165265   4.490   3.169   2.647
54497SOL    HW265266   4.478   3.167   2.496
54498SOL     OW65267  13.855   8.625   6.070
54498SOL    HW165268  13.767   8.621   6.032
54498SOL    HW265269  13.841   8.612   6.163
54499SOL     OW65270   3.171   4.267   3.272
54499SOL    HW165271   3.144   4.196   3.331
54499SOL    HW265272   3.124   4.249   3.190
54500SOL     OW65273   5.261   1.406  10.779
54500SOL    HW165274   5.286   1.350  10.852
54500SOL    HW265275   5.180   1.367  10.746
54501SOL     OW65276   3.470  12.404   9.299
54501SOL    HW165277   3.450  12.450   9.218
54501SOL    HW265278   3.424  12.320   9.291
54502SOL     OW65279  14.004   2.884   7.317
54502SOL    HW165280  13.990   2.929   7.400
54502SOL    HW265281  14.006   2.791   7.340
54503SOL     OW65282  14.134   0.156   4.733
54503SOL    HW165283  14.100   0.068   4.720
54503SOL    HW265284  14.065   0.213   4.698
54504SOL     OW65285  11.012   7.445  12.396
54504SOL    HW165286  11.106   7.439  12.413
54504SOL    HW265287  10.978   7.359  12.419
54505SOL     OW65288   3.523   8.695   4.060
54505SOL    HW165289   3.601   8.749   4.071
54505SOL    HW265290   3.544   8.614   4.107
54506SOL     OW65291   6.620   0.670   0.200
54506SOL    HW165292   6.566   0.726   0.255
54506SOL    HW265293   6.658   0.606   0.260
54507SOL     OW65294  12.587   9.344  12.521
54507SOL    HW165295  12.507   9.357  12.471
54507SOL    HW265296  12.591   9.250  12.538
54508SOL     OW65297   1.392  13.027  10.592
54508SOL    HW165298   1.400  13.026  10.496
54508SOL    HW265299   1.368  12.938  10.615
54509SOL     OW65300   3.352   9.458   3.934
54509SOL    HW165301   3.427   9.484   3.987
54509SOL    HW265302   3.388   9.397   3.870
54510SOL     OW65303   4.584   9.142   1.057
54510SOL    HW165304   4.590   9.194   1.136
54510SOL    HW265305   4.602   9.203   0.986
54511SOL     OW65306   1.910  11.503   9.625
54511SOL    HW165307   1.994  11.533   9.590
54511SOL    HW265308   1.928  11.480   9.716
54512SOL     OW65309   8.537  11.765  11.997
54512SOL    HW165310   8.458  11.718  12.024
54512SOL    HW265311   8.534  11.764  11.901
54513SOL     OW65312   0.966  10.489  11.358
54513SOL    HW165313   0.930  10.532  11.436
54513SOL    HW265314   0.954  10.554  11.288
54514SOL     OW65315   7.364   3.229   6.809
54514SOL    HW165316   7.334   3.139   6.793
54514SOL    HW265317   7.453   3.219   6.843
54515SOL     OW65318  10.971  14.214   2.871
54515SOL    HW165319  11.012  14.230   2.956
54515SOL    HW265320  11.042  14.225   2.808
54516SOL     OW65321   9.472   4.849  13.275
54516SOL    HW165322   9.522   4.884  13.202
54516SOL    HW265323   9.505   4.896  13.352
54517SOL     OW65324   7.207   6.912   1.463
54517SOL    HW165325   7.170   6.962   1.536
54517SOL    HW265326   7.202   6.821   1.492
54518SOL     OW65327   4.951   8.973   0.151
54518SOL    HW165328   4.887   9.044   0.148
54518SOL    HW265329   4.980   8.971   0.242
54519SOL     OW65330   8.457  10.231   2.723
54519SOL    HW165331   8.527  10.169   2.746
54519SOL    HW265332   8.500  10.294   2.665
54520SOL     OW65333  10.907   3.336   6.775
54520SOL    HW165334  10.995   3.320   6.807
54520SOL    HW265335  10.878   3.251   6.741
54521SOL     OW65336  10.511   7.514  14.353
54521SOL    HW165337  10.509   7.438  14.296
54521SOL    HW265338  10.603   7.525  14.377
54522SOL     OW65339   5.240   0.782  12.205
54522SOL    HW165340   5.166   0.842  12.207
54522SOL    HW265341   5.270   0.777  12.296
54523SOL     OW65342  10.284   0.009   7.414
54523SOL    HW165343  10.325   0.047   7.336
54523SOL    HW265344  10.317   0.062   7.487
54524SOL     OW65345  13.822   7.606   2.469
54524SOL    HW165346  13.855   7.670   2.532
54524SOL    HW265347  13.891   7.540   2.463
54525SOL     OW65348   4.753   5.044   8.926
54525SOL    HW165349   4.827   5.003   8.880
54525SOL    HW265350   4.692   5.067   8.856
54526SOL     OW65351   1.184   7.404   7.195
54526SOL    HW165352   1.254   7.393   7.130
54526SOL    HW265353   1.230   7.404   7.279
54527SOL     OW65354   8.755   6.141  14.101
54527SOL    HW165355   8.817   6.141  14.174
54527SOL    HW265356   8.674   6.108  14.138
54528SOL     OW65357   8.342   1.754   2.593
54528SOL    HW165358   8.396   1.693   2.642
54528SOL    HW265359   8.267   1.702   2.564
54529SOL     OW65360  10.462   1.635   3.285
54529SOL    HW165361  10.448   1.596   3.199
54529SOL    HW265362  10.531   1.581   3.325
54530SOL     OW65363  13.361  10.254   8.524
54530SOL    HW165364  13.316  10.211   8.451
54530SOL    HW265365  13.451  10.264   8.493
54531SOL     OW65366   9.689   2.112  13.939
54531SOL    HW165367   9.691   2.041  14.003
54531SOL    HW265368   9.595   2.131  13.929
54532SOL     OW65369  13.611   7.768   3.249
54532SOL    HW165370  13.697   7.727   3.247
54532SOL    HW265371  13.553   7.699   3.283
54533SOL     OW65372   2.008  12.157   8.064
54533SOL    HW165373   1.921  12.120   8.072
54533SOL    HW265374   2.021  12.204   8.146
54534SOL     OW65375   8.709  13.885  10.002
54534SOL    HW165376   8.777  13.936  10.045
54534SOL    HW265377   8.751  13.848   9.925
54535SOL     OW65378   3.774   9.018   4.664
54535SOL    HW165379   3.684   9.007   4.634
54535SOL    HW265380   3.773   9.104   4.708
54536SOL     OW65381  11.939   4.452  12.684
54536SOL    HW165382  11.849   4.420  12.693
54536SOL    HW265383  11.994   4.377  12.708
54537SOL     OW65384  10.193   6.842   9.777
54537SOL    HW165385  10.196   6.884   9.863
54537SOL    HW265386  10.100   6.831   9.759
54538SOL     OW65387   3.965   1.270   2.562
54538SOL    HW165388   3.972   1.196   2.502
54538SOL    HW265389   3.981   1.233   2.649
54539SOL     OW65390  13.848  13.682  14.350
54539SOL    HW165391  13.888  13.601  14.383
54539SOL    HW265392  13.822  13.730  14.428
54540SOL     OW65393  13.135   8.961   5.996
54540SOL    HW165394  13.214   9.015   5.989
54540SOL    HW265395  13.069   9.009   5.947
54541SOL     OW65396   5.728   0.233  13.921
54541SOL    HW165397   5.741   0.199  14.009
54541SOL    HW265398   5.684   0.161  13.874
54542SOL     OW65399   3.485  11.052   1.551
54542SOL    HW165400   3.526  11.090   1.473
54542SOL    HW265401   3.477  10.958   1.530
54543SOL     OW65402   1.935   9.799   4.823
54543SOL    HW165403   1.855   9.852   4.816
54543SOL    HW265404   2.004   9.862   4.842
54544SOL     OW65405  12.927   5.902   2.529
54544SOL    HW165406  12.925   5.981   2.583
54544SOL    HW265407  12.976   5.928   2.451
54545SOL     OW65408   3.716  10.843   4.414
54545SOL    HW165409   3.804  10.815   4.388
54545SOL    HW265410   3.710  10.934   4.383
54546SOL     OW65411   7.840   1.586   2.408
54546SOL    HW165412   7.814   1.630   2.327
54546SOL    HW265413   7.789   1.630   2.476
54547SOL     OW65414   3.485   6.807   7.446
54547SOL    HW165415   3.395   6.776   7.454
54547SOL    HW265416   3.521   6.757   7.372
54548SOL     OW65417  11.499   5.929  14.203
54548SOL    HW165418  11.408   5.899  14.195
54548SOL    HW265419  11.545   5.857  14.245
54549SOL     OW65420   6.776   9.679  13.312
54549SOL    HW165421   6.729   9.605  13.274
54549SOL    HW265422   6.714   9.716  13.375
54550SOL     OW65423   0.779   1.135  13.269
54550SOL    HW165424   0.764   1.070  13.201
54550SOL    HW265425   0.868   1.167  13.253
54551SOL     OW65426   9.909  13.953   0.389
54551SOL    HW165427   9.910  13.893   0.315
54551SOL    HW265428   9.952  14.032   0.357
54552SOL     OW65429  14.736   4.060  10.728
54552SOL    HW165430  14.650   4.020  10.719
54552SOL    HW265431  14.731   4.140  10.676
54553SOL     OW65432   7.403   1.059   8.862
54553SOL    HW165433   7.319   1.069   8.817
54553SOL    HW265434   7.429   0.968   8.844
54554SOL     OW65435   6.361   5.596   8.803
54554SOL    HW165436   6.412   5.515   8.802
54554SOL    HW265437   6.270   5.567   8.793
54555SOL     OW65438   0.337  13.189   0.552
54555SOL    HW165439   0.268  13.132   0.585
54555SOL    HW265440   0.327  13.270   0.602
54556SOL     OW65441   1.626   5.459   5.018
54556SOL    HW165442   1.608   5.455   4.924
54556SOL    HW265443   1.720   5.445   5.026
54557SOL     OW65444   4.404  10.163   4.861
54557SOL    HW165445   4.472  10.166   4.929
54557SOL    HW265446   4.415  10.244   4.812
54558SOL     OW65447   7.316   5.513   5.411
54558SOL    HW165448   7.310   5.573   5.337
54558SOL    HW265449   7.400   5.535   5.452
54559SOL     OW65450   0.930  12.778   6.478
54559SOL    HW165451   1.013  12.743   6.511
54559SOL    HW265452   0.868  12.706   6.486
54560SOL     OW65453   0.712   2.038   7.269
54560SOL    HW165454   0.728   2.132   7.257
54560SOL    HW265455   0.798   1.997   7.254
54561SOL     OW65456   4.181   6.352  11.371
54561SOL    HW165457   4.262   6.368  11.420
54561SOL    HW265458   4.161   6.259  11.388
54562SOL     OW65459   9.219   2.296  11.278
54562SOL    HW165460   9.132   2.265  11.302
54562SOL    HW265461   9.264   2.310  11.361
54563SOL     OW65462   8.298   0.929  13.194
54563SOL    HW165463   8.341   0.847  13.216
54563SOL    HW265464   8.301   0.932  13.098
54564SOL     OW65465   3.720   7.825  10.521
54564SOL    HW165466   3.636   7.868  10.504
54564SOL    HW265467   3.704   7.733  10.502
54565SOL     OW65468   8.099   2.351   8.125
54565SOL    HW165469   8.161   2.342   8.052
54565SOL    HW265470   8.151   2.387   8.196
54566SOL     OW65471   8.194   2.301   2.143
54566SOL    HW165472   8.160   2.369   2.086
54566SOL    HW265473   8.273   2.339   2.181
54567SOL     OW65474  10.939   0.123   2.827
54567SOL    HW165475  10.908   0.111   2.917
54567SOL    HW265476  10.954   0.035   2.795
54568SOL     OW65477  14.259   7.375   6.051
54568SOL    HW165478  14.186   7.357   6.110
54568SOL    HW265479  14.239   7.323   5.973
54569SOL     OW65480   0.516   4.636   9.030
54569SOL    HW165481   0.610   4.621   9.015
54569SOL    HW265482   0.511   4.723   9.069
54570SOL     OW65483   3.877  12.766   4.263
54570SOL    HW165484   3.860  12.759   4.356
54570SOL    HW265485   3.972  12.781   4.257
54571SOL     OW65486   3.203   5.026   7.935
54571SOL    HW165487   3.108   5.030   7.935
54571SOL    HW265488   3.230   5.100   7.880
54572SOL     OW65489  13.928   7.827   4.588
54572SOL    HW165490  13.891   7.771   4.656
54572SOL    HW265491  13.867   7.900   4.581
54573SOL     OW65492   6.755   5.113   3.377
54573SOL    HW165493   6.684   5.149   3.323
54573SOL    HW265494   6.776   5.184   3.438
54574SOL     OW65495   4.442   0.478  13.513
54574SOL    HW165496   4.465   0.406  13.572
54574SOL    HW265497   4.512   0.542  13.524
54575SOL     OW65498  11.650   2.914  10.318
54575SOL    HW165499  11.599   2.980  10.271
54575SOL    HW265500  11.633   2.931  10.410
54576SOL     OW65501  11.749   5.571  11.018
54576SOL    HW165502  11.838   5.587  10.988
54576SOL    HW265503  11.758   5.558  11.113
54577SOL     OW65504  13.651  11.144  12.410
54577SOL    HW165505  13.619  11.234  12.406
54577SOL    HW265506  13.572  11.092  12.424
54578SOL     OW65507   7.189   8.635  13.046
54578SOL    HW165508   7.094   8.620  13.053
54578SOL    HW265509   7.220   8.563  12.989
54579SOL     OW65510   3.688   5.807  12.649
54579SOL    HW165511   3.641   5.862  12.712
54579SOL    HW265512   3.619   5.766  12.596
54580SOL     OW65513   0.081   2.617   4.227
54580SOL    HW165514   0.062   2.668   4.149
54580SOL    HW265515  14.879   2.580   4.254
54581SOL     OW65516  11.466   4.772   8.766
54581SOL    HW165517  11.464   4.677   8.762
54581SOL    HW265518  11.538   4.797   8.708
54582SOL     OW65519  13.810   1.113   3.050
54582SOL    HW165520  13.801   1.207   3.066
54582SOL    HW265521  13.744   1.094   2.982
54583SOL     OW65522   6.947   6.788  14.807
54583SOL    HW165523   7.006   6.842  14.860
54583SOL    HW265524   6.998   6.769  14.728
54584SOL     OW65525   0.637   6.393  10.304
54584SOL    HW165526   0.565   6.427  10.356
54584SOL    HW265527   0.694   6.469  10.288
54585SOL     OW65528  13.333   5.811  11.948
54585SOL    HW165529  13.341   5.866  11.870
54585SOL    HW265530  13.250   5.766  11.938
54586SOL     OW65531  12.029   2.207  10.319
54586SOL    HW165532  11.985   2.122  10.318
54586SOL    HW265533  11.958   2.271  10.323
54587SOL     OW65534   4.412   6.550   3.009
54587SOL    HW165535   4.453   6.569   3.094
54587SOL    HW265536   4.485   6.525   2.952
54588SOL     OW65537  12.805   5.560   4.213
54588SOL    HW165538  12.870   5.517   4.269
54588SOL    HW265539  12.744   5.490   4.190
54589SOL     OW65540   9.985   9.415  13.870
54589SOL    HW165541   9.897   9.387  13.896
54589SOL    HW265542   9.995   9.384  13.780
54590SOL     OW65543  11.451   1.671   9.095
54590SOL    HW165544  11.538   1.697   9.066
54590SOL    HW265545  11.464   1.639   9.184
54591SOL     OW65546   1.276  10.234   9.892
54591SOL    HW165547   1.253  10.271   9.807
54591SOL    HW265548   1.195  10.196   9.924
54592SOL     OW65549   1.135   3.297   0.578
54592SOL    HW165550   1.174   3.254   0.654
54592SOL    HW265551   1.105   3.225   0.523
54593SOL     OW65552   0.465  12.601  12.739
54593SOL    HW165553   0.449  12.660  12.665
54593SOL    HW265554   0.485  12.659  12.812
54594SOL     OW65555   7.347   5.393  14.821
54594SOL    HW165556   7.258   5.429  14.821
54594SOL    HW265557   7.371   5.388  14.728
54595SOL     OW65558   3.317  10.020   3.996
54595SOL    HW165559   3.380   9.951   4.016
54595SOL    HW265560   3.342  10.051   3.909
54596SOL     OW65561  13.412   8.765   9.034
54596SOL    HW165562  13.405   8.670   9.036
54596SOL    HW265563  13.411   8.788   8.941
54597SOL     OW65564  12.998   3.723   6.700
54597SOL    HW165565  13.000   3.656   6.768
54597SOL    HW265566  12.912   3.714   6.660
54598SOL     OW65567  10.666   8.512   8.250
54598SOL    HW165568  10.695   8.462   8.173
54598SOL    HW265569  10.676   8.451   8.323
54599SOL     OW65570   0.831   9.085  12.151
54599SOL    HW165571   0.889   9.030  12.203
54599SOL    HW265572   0.889   9.150  12.111
54600SOL     OW65573  13.830   4.255  12.241
54600SOL    HW165574  13.786   4.337  12.220
54600SOL    HW265575  13.759   4.191  12.253
54601SOL     OW65576   3.748   2.537   6.737
54601SOL    HW165577   3.772   2.468   6.674
54601SOL    HW265578   3.694   2.598   6.687
54602SOL     OW65579   9.200  12.531   9.319
54602SOL    HW165580   9.179  12.597   9.385
54602SOL    HW265581   9.284  12.496   9.346
54603SOL     OW65582  12.152   9.602  10.550
54603SOL    HW165583  12.122   9.550  10.624
54603SOL    HW265584  12.082   9.596  10.485
54604SOL     OW65585   6.655   9.248   3.332
54604SOL    HW165586   6.590   9.318   3.336
54604SOL    HW265587   6.604   9.167   3.329
54605SOL     OW65588   5.257  13.517   1.460
54605SOL    HW165589   5.187  13.577   1.481
54605SOL    HW265590   5.214  13.446   1.411
54606SOL     OW65591   9.970  14.570  11.584
54606SOL    HW165592  10.042  14.520  11.621
54606SOL    HW265593  10.010  14.629  11.520
54607SOL     OW65594   5.521   5.844   4.913
54607SOL    HW165595   5.509   5.787   4.989
54607SOL    HW265596   5.562   5.923   4.949
54608SOL     OW65597   4.874   9.555  10.182
54608SOL    HW165598   4.790   9.570  10.138
54608SOL    HW265599   4.919   9.492  10.126
54609SOL     OW65600   4.097   5.597   6.734
54609SOL    HW165601   4.100   5.564   6.644
54609SOL    HW265602   4.094   5.692   6.724
54610SOL     OW65603   1.407   4.304  11.552
54610SOL    HW165604   1.346   4.363  11.508
54610SOL    HW265605   1.474   4.286  11.487
54611SOL     OW65606   2.378  12.792   7.692
54611SOL    HW165607   2.335  12.769   7.774
54611SOL    HW265608   2.348  12.881   7.673
54612SOL     OW65609   8.834   6.449  10.679
54612SOL    HW165610   8.930   6.451  10.679
54612SOL    HW265611   8.809   6.498  10.600
54613SOL     OW65612   5.733  13.091   6.828
54613SOL    HW165613   5.810  13.118   6.879
54613SOL    HW265614   5.768  13.032   6.761
54614SOL     OW65615   5.928  11.418   5.433
54614SOL    HW165616   5.969  11.504   5.435
54614SOL    HW265617   5.852  11.427   5.491
54615SOL     OW65618   8.527   8.250   8.830
54615SOL    HW165619   8.609   8.207   8.853
54615SOL    HW265620   8.545   8.344   8.841
54616SOL     OW65621   2.487   0.592  11.349
54616SOL    HW165622   2.407   0.596  11.297
54616SOL    HW265623   2.482   0.668  11.408
54617SOL     OW65624   8.767   7.581   3.942
54617SOL    HW165625   8.857   7.559   3.919
54617SOL    HW265626   8.767   7.676   3.950
54618SOL     OW65627  14.104   9.963   2.829
54618SOL    HW165628  14.182   9.952   2.884
54618SOL    HW265629  14.031   9.966   2.892
54619SOL     OW65630  12.309   9.360   3.905
54619SOL    HW165631  12.352   9.402   3.979
54619SOL    HW265632  12.251   9.427   3.869
54620SOL     OW65633   1.302   6.705   5.468
54620SOL    HW165634   1.384   6.676   5.508
54620SOL    HW265635   1.326   6.785   5.421
54621SOL     OW65636   9.192   6.193   6.700
54621SOL    HW165637   9.104   6.170   6.727
54621SOL    HW265638   9.224   6.115   6.653
54622SOL     OW65639  14.702   3.641   7.974
54622SOL    HW165640  14.717   3.734   7.992
54622SOL    HW265641  14.631   3.616   8.033
54623SOL     OW65642   8.935   4.038   3.505
54623SOL    HW165643   8.942   4.121   3.551
54623SOL    HW265644   8.935   4.061   3.412
54624SOL     OW65645   6.858   4.396   5.290
54624SOL    HW165646   6.818   4.311   5.306
54624SOL    HW265647   6.791   4.444   5.241
54625SOL     OW65648   1.142  11.909  14.828
54625SOL    HW165649   1.122  11.991  14.874
54625SOL    HW265650   1.229  11.923  14.790
54626SOL     OW65651   1.562   6.292  13.020
54626SOL    HW165652   1.562   6.197  13.013
54626SOL    HW265653   1.640   6.312  13.073
54627SOL     OW65654   6.697   9.500  10.816
54627SOL    HW165655   6.602   9.495  10.808
54627SOL    HW265656   6.731   9.450  10.743
54628SOL     OW65657   1.289   9.588   3.975
54628SOL    HW165658   1.210   9.628   4.012
54628SOL    HW265659   1.275   9.494   3.984
54629SOL     OW65660  12.966   9.512   7.168
54629SOL    HW165661  12.978   9.481   7.078
54629SOL    HW265662  12.883   9.559   7.166
54630SOL     OW65663   1.582  10.704   2.239
54630SOL    HW165664   1.595  10.790   2.279
54630SOL    HW265665   1.667  10.659   2.250
54631SOL     OW65666   7.494  14.091   3.560
54631SOL    HW165667   7.447  14.101   3.643
54631SOL    HW265668   7.510  13.997   3.553
54632SOL     OW65669  12.487   9.698   1.949
54632SOL    HW165670  12.447   9.784   1.962
54632SOL    HW265671  12.506   9.667   2.037
54633SOL     OW65672   4.576   6.865   3.460
54633SOL    HW165673   4.595   6.784   3.506
54633SOL    HW265674   4.503   6.903   3.507
54634SOL     OW65675   2.743   9.130  11.716
54634SOL    HW165676   2.835   9.154  11.709
54634SOL    HW265677   2.738   9.077  11.796
54635SOL     OW65678  12.274  13.756   5.263
54635SOL    HW165679  12.369  13.743   5.261
54635SOL    HW265680  12.244  13.721   5.179
54636SOL     OW65681   2.422   1.393   6.392
54636SOL    HW165682   2.492   1.455   6.414
54636SOL    HW265683   2.467   1.313   6.366
54637SOL     OW65684   8.373  12.948  10.622
54637SOL    HW165685   8.297  12.942  10.564
54637SOL    HW265686   8.355  12.885  10.692
54638SOL     OW65687   8.666  14.867   2.551
54638SOL    HW165688   8.576   0.010   2.573
54638SOL    HW265689   8.666  14.772   2.551
54639SOL     OW65690   5.228   2.906   3.069
54639SOL    HW165691   5.200   2.842   3.135
54639SOL    HW265692   5.146   2.936   3.030
54640SOL     OW65693   4.139   7.646   0.310
54640SOL    HW165694   4.135   7.681   0.221
54640SOL    HW265695   4.079   7.701   0.360
54641SOL     OW65696   4.979   7.465  14.417
54641SOL    HW165697   5.029   7.509  14.486
54641SOL    HW265698   4.888   7.468  14.447
54642SOL     OW65699  13.674   4.586   9.365
54642SOL    HW165700  13.626   4.666   9.386
54642SOL    HW265701  13.704   4.553   9.450
54643SOL     OW65702   2.581   7.728   1.063
54643SOL    HW165703   2.605   7.694   1.149
54643SOL    HW265704   2.485   7.722   1.060
54644SOL     OW65705   6.482   1.954  13.442
54644SOL    HW165706   6.532   1.993  13.371
54644SOL    HW265707   6.392   1.954  13.409
54645SOL     OW65708   5.900  14.831   9.626
54645SOL    HW165709   5.852  14.812   9.546
54645SOL    HW265710   5.991  14.842   9.597
54646SOL     OW65711   1.736  12.774   3.947
54646SOL    HW165712   1.816  12.759   3.898
54646SOL    HW265713   1.669  12.722   3.901
54647SOL     OW65714   0.553   5.456  10.327
54647SOL    HW165715   0.544   5.425  10.417
54647SOL    HW265716   0.642   5.430  10.302
54648SOL     OW65717  14.555   6.012   8.829
54648SOL    HW165718  14.527   6.104   8.828
54648SOL    HW265719  14.512   5.974   8.752
54649SOL     OW65720   3.607   1.402   2.487
54649SOL    HW165721   3.545   1.473   2.504
54649SOL    HW265722   3.597   1.343   2.561
54650SOL     OW65723  12.038   6.645   2.078
54650SOL    HW165724  12.108   6.608   2.132
54650SOL    HW265725  11.960   6.597   2.104
54651SOL     OW65726   5.752   6.505  11.128
54651SOL    HW165727   5.811   6.542  11.193
54651SOL    HW265728   5.690   6.453  11.178
54652SOL     OW65729  12.893   0.315   9.135
54652SOL    HW165730  12.800   0.335   9.146
54652SOL    HW265731  12.936   0.361   9.206
54653SOL     OW65732   2.574   1.175  14.016
54653SOL    HW165733   2.603   1.174  13.925
54653SOL    HW265734   2.494   1.121  14.016
54654SOL     OW65735  10.432   0.216   6.352
54654SOL    HW165736  10.411   0.299   6.309
54654SOL    HW265737  10.528   0.212   6.350
54655SOL     OW65738   1.219   6.090   5.130
54655SOL    HW165739   1.263   6.169   5.161
54655SOL    HW265740   1.212   6.035   5.208
54656SOL     OW65741   8.992  14.741   6.834
54656SOL    HW165742   9.071  14.710   6.877
54656SOL    HW265743   9.013  14.829   6.804
54657SOL     OW65744  13.810  13.701  14.739
54657SOL    HW165745  13.762  13.659  14.668
54657SOL    HW265746  13.746  13.759  14.780
54658SOL     OW65747   9.358   2.742  10.377
54658SOL    HW165748   9.399   2.705  10.298
54658SOL    HW265749   9.303   2.671  10.410
54659SOL     OW65750  12.956   0.971   5.250
54659SOL    HW165751  13.005   1.051   5.272
54659SOL    HW265752  13.016   0.900   5.273
54660SOL     OW65753  14.192   5.935   8.571
54660SOL    HW165754  14.285   5.954   8.572
54660SOL    HW265755  14.170   5.918   8.662
54661SOL     OW65756   3.991   8.472  11.373
54661SOL    HW165757   4.052   8.435  11.437
54661SOL    HW265758   4.045   8.490  11.296
54662SOL     OW65759   8.067  12.472   2.785
54662SOL    HW165760   8.014  12.425   2.849
54662SOL    HW265761   8.142  12.415   2.770
54663SOL     OW65762   9.071   5.676   4.525
54663SOL    HW165763   9.121   5.710   4.599
54663SOL    HW265764   9.046   5.587   4.552
54664SOL     OW65765   2.444  10.285   7.040
54664SOL    HW165766   2.416  10.342   7.111
54664SOL    HW265767   2.452  10.198   7.080
54665SOL     OW65768   9.497  11.710   1.490
54665SOL    HW165769   9.488  11.745   1.401
54665SOL    HW265770   9.492  11.615   1.479
54666SOL     OW65771   3.765   8.043   4.618
54666SOL    HW165772   3.705   8.023   4.689
54666SOL    HW265773   3.804   7.959   4.595
54667SOL     OW65774   2.989  13.120   1.341
54667SOL    HW165775   3.038  13.038   1.347
54667SOL    HW265776   2.995  13.158   1.428
54668SOL     OW65777  12.185  10.749   1.796
54668SOL    HW165778  12.234  10.672   1.826
54668SOL    HW265779  12.101  10.714   1.767
54669SOL     OW65780   1.142   6.270   8.854
54669SOL    HW165781   1.177   6.242   8.938
54669SOL    HW265782   1.114   6.190   8.811
54670SOL     OW65783   5.894   6.911   9.651
54670SOL    HW165784   5.873   6.937   9.561
54670SOL    HW265785   5.988   6.926   9.659
54671SOL     OW65786   0.798  14.285   9.601
54671SOL    HW165787   0.762  14.263   9.515
54671SOL    HW265788   0.879  14.332   9.581
54672SOL     OW65789   1.319  13.322   5.168
54672SOL    HW165790   1.385  13.365   5.114
54672SOL    HW265791   1.238  13.369   5.150
54673SOL     OW65792  10.811   2.271   6.567
54673SOL    HW165793  10.895   2.277   6.613
54673SOL    HW265794  10.835   2.244   6.478
54674SOL     OW65795  13.727  14.636   0.954
54674SOL    HW165796  13.770  14.640   1.039
54674SOL    HW265797  13.743  14.722   0.915
54675SOL     OW65798   2.384   8.619  11.727
54675SOL    HW165799   2.457   8.649  11.672
54675SOL    HW265800   2.377   8.525  11.708
54676SOL     OW65801   6.773   1.091   2.483
54676SOL    HW165802   6.689   1.045   2.484
54676SOL    HW265803   6.753   1.177   2.446
54677SOL     OW65804   2.849   2.009   3.901
54677SOL    HW165805   2.885   2.023   3.989
54677SOL    HW265806   2.760   1.977   3.917
54678SOL     OW65807   6.321   2.922  10.064
54678SOL    HW165808   6.279   2.961  10.140
54678SOL    HW265809   6.365   2.844  10.098
54679SOL     OW65810  11.320   0.935  13.145
54679SOL    HW165811  11.351   0.845  13.143
54679SOL    HW265812  11.225   0.928  13.132
54680SOL     OW65813   0.065   2.875  11.254
54680SOL    HW165814  14.877   2.937  11.229
54680SOL    HW265815   0.097   2.909  11.338
54681SOL     OW65816  13.156  11.674  11.313
54681SOL    HW165817  13.226  11.608  11.305
54681SOL    HW265818  13.087  11.643  11.255
54682SOL     OW65819   4.793  10.179  11.521
54682SOL    HW165820   4.784  10.133  11.437
54682SOL    HW265821   4.748  10.123  11.584
54683SOL     OW65822   2.006   3.555  10.104
54683SOL    HW165823   2.009   3.543  10.009
54683SOL    HW265824   1.921   3.596  10.121
54684SOL     OW65825   1.354  11.143  14.155
54684SOL    HW165826   1.362  11.049  14.138
54684SOL    HW265827   1.327  11.180  14.071
54685SOL     OW65828  10.808   6.874   7.242
54685SOL    HW165829  10.826   6.859   7.149
54685SOL    HW265830  10.894   6.884   7.283
54686SOL     OW65831   0.208   0.969   4.346
54686SOL    HW165832   0.221   0.875   4.336
54686SOL    HW265833   0.276   0.997   4.408
54687SOL     OW65834   6.380   0.073  13.606
54687SOL    HW165835   6.380   0.110  13.518
54687SOL    HW265836   6.340   0.141  13.661
54688SOL     OW65837   6.965   8.514   4.064
54688SOL    HW165838   6.934   8.600   4.036
54688SOL    HW265839   6.890   8.456   4.051
54689SOL     OW65840   8.455  11.074  10.464
54689SOL    HW165841   8.510  11.119  10.400
54689SOL    HW265842   8.513  11.012  10.507
54690SOL     OW65843   5.173  12.105   2.974
54690SOL    HW165844   5.216  12.174   3.025
54690SOL    HW265845   5.184  12.133   2.883
54691SOL     OW65846   8.995   4.265  11.008
54691SOL    HW165847   9.073   4.212  11.025
54691SOL    HW265848   8.994   4.276  10.913
54692SOL     OW65849   3.653   7.273  13.139
54692SOL    HW165850   3.588   7.222  13.187
54692SOL    HW265851   3.663   7.227  13.056
54693SOL     OW65852   4.940  14.481   6.518
54693SOL    HW165853   4.903  14.454   6.434
54693SOL    HW265854   5.022  14.524   6.495
54694SOL     OW65855  14.067   5.341  14.819
54694SOL    HW165856  14.080   5.260  14.770
54694SOL    HW265857  13.999   5.320   0.002
54695SOL     OW65858  13.935  12.405   1.393
54695SOL    HW165859  14.000  12.460   1.435
54695SOL    HW265860  13.853  12.454   1.402
54696SOL     OW65861  11.782   3.334  13.190
54696SOL    HW165862  11.687   3.342  13.203
54696SOL    HW265863  11.805   3.410  13.137
54697SOL     OW65864   5.295  10.018   5.850
54697SOL    HW165865   5.201  10.000   5.855
54697SOL    HW265866   5.320  10.039   5.940
54698SOL     OW65867   0.632   7.868   1.231
54698SOL    HW165868   0.617   7.775   1.217
54698SOL    HW265869   0.546   7.903   1.252
54699SOL     OW65870   1.547  13.948   4.696
54699SOL    HW165871   1.505  13.898   4.627
54699SOL    HW265872   1.482  14.014   4.721
54700SOL     OW65873   1.043   8.393   1.462
54700SOL    HW165874   0.986   8.316   1.450
54700SOL    HW265875   0.995   8.449   1.522
54701SOL     OW65876   4.261   6.372   8.247
54701SOL    HW165877   4.337   6.429   8.258
54701SOL    HW265878   4.291   6.304   8.187
54702SOL     OW65879  14.374  12.989  12.042
54702SOL    HW165880  14.331  13.050  12.102
54702SOL    HW265881  14.452  13.036  12.012
54703SOL     OW65882  14.337   6.062  13.853
54703SOL    HW165883  14.329   6.039  13.760
54703SOL    HW265884  14.260   6.116  13.871
54704SOL     OW65885   2.297  13.394   9.118
54704SOL    HW165886   2.320  13.388   9.210
54704SOL    HW265887   2.343  13.321   9.076
54705SOL     OW65888   8.530   8.190  13.481
54705SOL    HW165889   8.598   8.250  13.512
54705SOL    HW265890   8.449   8.225  13.517
54706SOL     OW65891   9.249   5.840  11.887
54706SOL    HW165892   9.184   5.786  11.930
54706SOL    HW265893   9.204   5.875  11.810
54707SOL     OW65894  10.330   3.347   3.850
54707SOL    HW165895  10.306   3.255   3.838
54707SOL    HW265896  10.414   3.343   3.897
54708SOL     OW65897  11.620  13.140  10.359
54708SOL    HW165898  11.585  13.229  10.371
54708SOL    HW265899  11.662  13.143  10.273
54709SOL     OW65900   4.586   7.769   1.317
54709SOL    HW165901   4.515   7.715   1.282
54709SOL    HW265902   4.568   7.857   1.283
54710SOL     OW65903  14.387  14.511   1.269
54710SOL    HW165904  14.332  14.502   1.346
54710SOL    HW265905  14.376  14.603   1.243
54711SOL     OW65906   1.873  10.982   9.297
54711SOL    HW165907   1.804  10.973   9.232
54711SOL    HW265908   1.954  10.990   9.246
54712SOL     OW65909  10.420   5.972   2.383
54712SOL    HW165910  10.488   5.982   2.449
54712SOL    HW265911  10.455   5.908   2.322
54713SOL     OW65912  12.791   0.368   4.539
54713SOL    HW165913  12.776   0.277   4.512
54713SOL    HW265914  12.819   0.361   4.630
54714SOL     OW65915   3.592   6.896   0.809
54714SOL    HW165916   3.607   6.802   0.798
54714SOL    HW265917   3.520   6.916   0.749
54715SOL     OW65918   5.704  14.817   1.460
54715SOL    HW165919   5.642  14.828   1.533
54715SOL    HW265920   5.787  14.795   1.503
54716SOL     OW65921   8.371  10.766   8.260
54716SOL    HW165922   8.377  10.796   8.169
54716SOL    HW265923   8.278  10.751   8.274
54717SOL     OW65924  14.452   8.666   7.047
54717SOL    HW165925  14.413   8.578   7.053
54717SOL    HW265926  14.440   8.703   7.135
54718SOL     OW65927   7.082  10.473   0.066
54718SOL    HW165928   7.108  10.419   0.140
54718SOL    HW265929   7.038  10.548   0.106
54719SOL     OW65930   3.499  13.068   2.450
54719SOL    HW165931   3.473  13.160   2.451
54719SOL    HW265932   3.520  13.048   2.542
54720SOL     OW65933  11.906   0.485   8.485
54720SOL    HW165934  11.908   0.416   8.418
54720SOL    HW265935  11.847   0.451   8.552
54721SOL     OW65936   2.751  13.378  12.449
54721SOL    HW165937   2.824  13.408  12.396
54721SOL    HW265938   2.767  13.284  12.462
54722SOL     OW65939  12.814   8.873   8.092
54722SOL    HW165940  12.789   8.798   8.146
54722SOL    HW265941  12.896   8.904   8.130
54723SOL     OW65942  14.530   8.018   5.339
54723SOL    HW165943  14.437   8.021   5.362
54723SOL    HW265944  14.533   7.962   5.262
54724SOL     OW65945   7.305   4.449   4.110
54724SOL    HW165946   7.269   4.537   4.103
54724SOL    HW265947   7.270   4.403   4.034
54725SOL     OW65948   9.427   6.539   4.763
54725SOL    HW165949   9.339   6.575   4.777
54725SOL    HW265950   9.432   6.464   4.823
54726SOL     OW65951   9.923   8.139   4.576
54726SOL    HW165952   9.926   8.192   4.656
54726SOL    HW265953   9.984   8.182   4.517
54727SOL     OW65954  10.081  10.890  12.708
54727SOL    HW165955  10.133  10.949  12.653
54727SOL    HW265956   9.993  10.893  12.670
54728SOL     OW65957   1.167   9.488  13.869
54728SOL    HW165958   1.103   9.514  13.936
54728SOL    HW265959   1.133   9.406  13.834
54729SOL     OW65960   7.818  10.137  10.989
54729SOL    HW165961   7.776  10.051  10.987
54729SOL    HW265962   7.753  10.196  10.951
54730SOL     OW65963   8.632   6.679   8.855
54730SOL    HW165964   8.642   6.648   8.946
54730SOL    HW265965   8.696   6.750   8.847
54731SOL     OW65966   5.207  11.227  13.040
54731SOL    HW165967   5.224  11.157  12.976
54731SOL    HW265968   5.141  11.282  12.997
54732SOL     OW65969  12.004   6.400   8.011
54732SOL    HW165970  12.094   6.410   7.980
54732SOL    HW265971  11.962   6.483   7.991
54733SOL     OW65972  14.035  10.427   2.445
54733SOL    HW165973  14.040  10.398   2.354
54733SOL    HW265974  14.091  10.366   2.492
54734SOL     OW65975   4.442   4.957  10.373
54734SOL    HW165976   4.422   4.896  10.444
54734SOL    HW265977   4.534   4.942  10.354
54735SOL     OW65978   7.386  13.683   7.961
54735SOL    HW165979   7.440  13.664   7.884
54735SOL    HW265980   7.304  13.716   7.924
54736SOL     OW65981   2.503   5.737   9.256
54736SOL    HW165982   2.594   5.732   9.227
54736SOL    HW265983   2.475   5.826   9.234
54737SOL     OW65984   6.658   9.901  11.839
54737SOL    HW165985   6.687   9.817  11.876
54737SOL    HW265986   6.577   9.920  11.886
54738SOL     OW65987   5.382  10.398   4.815
54738SOL    HW165988   5.298  10.402   4.862
54738SOL    HW265989   5.416  10.311   4.835
54739SOL     OW65990   3.033   0.344   2.771
54739SOL    HW165991   3.068   0.258   2.749
54739SOL    HW265992   3.066   0.361   2.860
54740SOL     OW65993  14.675   0.053  14.113
54740SOL    HW165994  14.590   0.089  14.139
54740SOL    HW265995  14.722   0.127  14.075
54741SOL     OW65996   6.660   0.157   4.468
54741SOL    HW165997   6.700   0.088   4.415
54741SOL    HW265998   6.569   0.161   4.438
54742SOL     OW65999   3.323   0.902   6.065
54742SOL    HW166000   3.286   0.853   6.138
54742SOL    HW266001   3.317   0.842   5.990
54743SOL     OW66002   4.396   8.484  10.150
54743SOL    HW166003   4.455   8.483  10.075
54743SOL    HW266004   4.337   8.558  10.134
54744SOL     OW66005   8.945  12.080   9.440
54744SOL    HW166006   8.872  12.088   9.502
54744SOL    HW266007   8.980  12.168   9.434
54745SOL     OW66008  11.500   3.916  11.889
54745SOL    HW166009  11.430   3.967  11.929
54745SOL    HW266010  11.456   3.838  11.853
54746SOL     OW66011   9.876   7.996  13.219
54746SOL    HW166012   9.926   8.050  13.156
54746SOL    HW266013   9.845   7.922  13.167
54747SOL     OW66014   0.434   9.676   4.275
54747SOL    HW166015   0.362   9.732   4.248
54747SOL    HW266016   0.397   9.618   4.341
54748SOL     OW66017  11.191  10.118   4.779
54748SOL    HW166018  11.184  10.042   4.837
54748SOL    HW266019  11.271  10.163   4.808
54749SOL     OW66020   6.788  11.445  14.289
54749SOL    HW166021   6.759  11.354  14.279
54749SOL    HW266022   6.876  11.447  14.252
54750SOL     OW66023   9.398  11.522   0.157
54750SOL    HW166024   9.445  11.554   0.234
54750SOL    HW266025   9.354  11.599   0.121
54751SOL     OW66026   6.189   9.943   7.451
54751SOL    HW166027   6.216   9.935   7.542
54751SOL    HW266028   6.105   9.989   7.455
54752SOL     OW66029   2.642  11.136   1.179
54752SOL    HW166030   2.707  11.132   1.249
54752SOL    HW266031   2.563  11.171   1.221
54753SOL     OW66032   3.669   2.238  11.970
54753SOL    HW166033   3.690   2.174  11.902
54753SOL    HW266034   3.719   2.209  12.046
54754SOL     OW66035   9.554   0.185   5.699
54754SOL    HW166036   9.523   0.094   5.691
54754SOL    HW266037   9.474   0.237   5.708
54755SOL     OW66038   4.814   4.928   6.600
54755SOL    HW166039   4.835   5.007   6.649
54755SOL    HW266040   4.718   4.920   6.607
54756SOL     OW66041  11.746   6.469  13.327
54756SOL    HW166042  11.698   6.548  13.303
54756SOL    HW266043  11.814   6.461  13.260
54757SOL     OW66044   4.683  10.376  10.423
54757SOL    HW166045   4.714  10.454  10.470
54757SOL    HW266046   4.742  10.368  10.348
54758SOL     OW66047   5.938   3.263   9.461
54758SOL    HW166048   5.846   3.292   9.460
54758SOL    HW266049   5.986   3.334   9.419
54759SOL     OW66050  14.715   8.674  12.724
54759SOL    HW166051  14.810   8.688  12.719
54759SOL    HW266052  14.678   8.761  12.708
54760SOL     OW66053   1.990  12.876   2.631
54760SOL    HW166054   2.011  12.882   2.725
54760SOL    HW266055   1.909  12.826   2.628
54761SOL     OW66056  12.071  11.223   4.302
54761SOL    HW166057  12.075  11.233   4.397
54761SOL    HW266058  12.043  11.309   4.270
54762SOL     OW66059   0.613   8.598  14.082
54762SOL    HW166060   0.608   8.684  14.040
54762SOL    HW266061   0.686   8.554  14.037
54763SOL     OW66062  13.989  10.228   6.785
54763SOL    HW166063  14.066  10.179   6.755
54763SOL    HW266064  13.915  10.172   6.762
54764SOL     OW66065   5.508  13.022  12.859
54764SOL    HW166066   5.454  12.949  12.887
54764SOL    HW266067   5.598  12.988  12.864
54765SOL     OW66068   0.811  10.644  10.162
54765SOL    HW166069   0.838  10.646  10.253
54765SOL    HW266070   0.851  10.564  10.127
54766SOL     OW66071   6.761   6.811   9.830
54766SOL    HW166072   6.754   6.896   9.875
54766SOL    HW266073   6.851   6.809   9.797
54767SOL     OW66074  14.865   7.598   6.039
54767SOL    HW166075  14.806   7.672   6.025
54767SOL    HW266076   0.028   7.617   6.121
54768SOL     OW66077   9.354   3.980   0.782
54768SOL    HW166078   9.355   3.884   0.782
54768SOL    HW266079   9.315   4.004   0.698
54769SOL     OW66080   3.019  10.891  13.185
54769SOL    HW166081   3.060  10.977  13.184
54769SOL    HW266082   3.078  10.836  13.133
54770SOL     OW66083   6.180   6.251  10.120
54770SOL    HW166084   6.123   6.190  10.073
54770SOL    HW266085   6.264   6.245  10.074
54771SOL     OW66086   9.969   2.864   4.827
54771SOL    HW166087   9.875   2.863   4.808
54771SOL    HW266088   9.979   2.798   4.895
54772SOL     OW66089   0.674   6.333  12.358
54772SOL    HW166090   0.614   6.281  12.411
54772SOL    HW266091   0.748   6.275  12.341
54773SOL     OW66092   7.301   3.980   6.775
54773SOL    HW166093   7.327   4.034   6.850
54773SOL    HW266094   7.217   3.942   6.800
54774SOL     OW66095  13.954   6.785   8.727
54774SOL    HW166096  13.977   6.727   8.800
54774SOL    HW266097  14.021   6.854   8.731
54775SOL     OW66098   6.085  11.408   2.000
54775SOL    HW166099   6.004  11.421   2.049
54775SOL    HW266100   6.057  11.375   1.915
54776SOL     OW66101   9.045   6.273  12.288
54776SOL    HW166102   9.134   6.306  12.292
54776SOL    HW266103   9.007   6.294  12.373
54777SOL     OW66104  13.323   6.362   0.390
54777SOL    HW166105  13.372   6.280   0.394
54777SOL    HW266106  13.372   6.422   0.447
54778SOL     OW66107   5.500   2.643   0.268
54778SOL    HW166108   5.422   2.674   0.221
54778SOL    HW266109   5.466   2.579   0.331
54779SOL     OW66110   8.888  13.814   2.733
54779SOL    HW166111   8.942  13.788   2.807
54779SOL    HW266112   8.812  13.755   2.737
54780SOL     OW66113   3.948  12.311   5.804
54780SOL    HW166114   3.950  12.247   5.876
54780SOL    HW266115   3.911  12.263   5.730
54781SOL     OW66116   8.354   0.819   8.571
54781SOL    HW166117   8.398   0.857   8.647
54781SOL    HW266118   8.417   0.757   8.535
54782SOL     OW66119   0.501  12.354   9.054
54782SOL    HW166120   0.521  12.267   9.090
54782SOL    HW266121   0.409  12.347   9.026
54783SOL     OW66122   6.790  12.971  14.489
54783SOL    HW166123   6.732  12.897  14.508
54783SOL    HW266124   6.863  12.933  14.440
54784SOL     OW66125  10.020   3.886   1.305
54784SOL    HW166126  10.018   3.951   1.236
54784SOL    HW266127   9.936   3.840   1.297
54785SOL     OW66128  14.197  13.846  11.335
54785SOL    HW166129  14.141  13.774  11.309
54785SOL    HW266130  14.235  13.878  11.253
54786SOL     OW66131   9.814  13.096   6.915
54786SOL    HW166132   9.855  13.158   6.976
54786SOL    HW266133   9.723  13.126   6.909
54787SOL     OW66134   5.693   6.108   8.090
54787SOL    HW166135   5.685   6.202   8.107
54787SOL    HW266136   5.642   6.094   8.010
54788SOL     OW66137   1.531   4.593   9.587
54788SOL    HW166138   1.493   4.638   9.662
54788SOL    HW266139   1.490   4.506   9.587
54789SOL     OW66140   2.952   3.925   0.891
54789SOL    HW166141   2.926   4.016   0.872
54789SOL    HW266142   2.960   3.884   0.805
54790SOL     OW66143   1.036   0.783   2.033
54790SOL    HW166144   0.969   0.841   2.068
54790SOL    HW266145   1.039   0.710   2.095
54791SOL     OW66146  12.129   3.233  10.362
54791SOL    HW166147  12.148   3.226  10.456
54791SOL    HW266148  12.036   3.254  10.358
54792SOL     OW66149   2.125   3.727   4.058
54792SOL    HW166150   2.055   3.687   4.007
54792SOL    HW266151   2.150   3.805   4.008
54793SOL     OW66152   1.968   7.502  10.551
54793SOL    HW166153   1.880   7.484  10.515
54793SOL    HW266154   2.015   7.542  10.478
54794SOL     OW66155  10.199   4.093   0.288
54794SOL    HW166156  10.217   4.093   0.382
54794SOL    HW266157  10.285   4.078   0.248
54795SOL     OW66158  12.900  10.639  13.313
54795SOL    HW166159  12.983  10.612  13.352
54795SOL    HW266160  12.921  10.657  13.222
54796SOL     OW66161   5.807   5.708   2.889
54796SOL    HW166162   5.811   5.766   2.814
54796SOL    HW266163   5.898   5.688   2.910
54797SOL     OW66164  11.987   3.214   9.475
54797SOL    HW166165  12.045   3.201   9.551
54797SOL    HW266166  11.957   3.304   9.483
54798SOL     OW66167   2.837   8.736   1.911
54798SOL    HW166168   2.879   8.717   1.827
54798SOL    HW266169   2.910   8.741   1.974
54799SOL     OW66170   0.272   9.503   7.547
54799SOL    HW166171   0.276   9.407   7.548
54799SOL    HW266172   0.180   9.523   7.562
54800SOL     OW66173   0.467   1.185   8.153
54800SOL    HW166174   0.447   1.092   8.140
54800SOL    HW266175   0.387   1.231   8.127
54801SOL     OW66176   9.449  11.168   5.545
54801SOL    HW166177   9.427  11.251   5.504
54801SOL    HW266178   9.374  11.148   5.602
54802SOL     OW66179   2.395  10.541  14.613
54802SOL    HW166180   2.449  10.596  14.669
54802SOL    HW266181   2.306  10.574  14.626
54803SOL     OW66182   1.603   0.948  12.269
54803SOL    HW166183   1.595   0.946  12.174
54803SOL    HW266184   1.637   1.036  12.288
54804SOL     OW66185   8.023   5.008   6.724
54804SOL    HW166186   8.038   4.983   6.633
54804SOL    HW266187   8.097   5.065   6.746
54805SOL     OW66188   7.795  12.139   6.705
54805SOL    HW166189   7.715  12.126   6.755
54805SOL    HW266190   7.778  12.217   6.652
54806SOL     OW66191  13.896  11.327  10.205
54806SOL    HW166192  13.811  11.293  10.234
54806SOL    HW266193  13.958  11.293  10.268
54807SOL     OW66194   1.143   5.876   0.287
54807SOL    HW166195   1.087   5.798   0.291
54807SOL    HW266196   1.144   5.909   0.376
54808SOL     OW66197   6.288  14.808  11.345
54808SOL    HW166198   6.198  14.833  11.326
54808SOL    HW266199   6.311  14.857  11.424
54809SOL     OW66200   7.608   5.168   2.336
54809SOL    HW166201   7.601   5.247   2.282
54809SOL    HW266202   7.525   5.164   2.384
54810SOL     OW66203   1.968   2.791   4.748
54810SOL    HW166204   1.898   2.742   4.704
54810SOL    HW266205   1.942   2.883   4.739
54811SOL     OW66206   4.366   8.414   0.512
54811SOL    HW166207   4.422   8.341   0.487
54811SOL    HW266208   4.277   8.380   0.503
54812SOL     OW66209  14.239   1.398   1.766
54812SOL    HW166210  14.164   1.451   1.791
54812SOL    HW266211  14.201   1.315   1.736
54813SOL     OW66212   8.610  11.527  13.014
54813SOL    HW166213   8.632  11.514  13.106
54813SOL    HW266214   8.694  11.545  12.971
54814SOL     OW66215   7.673   1.094   2.706
54814SOL    HW166216   7.672   1.004   2.675
54814SOL    HW266217   7.581   1.120   2.709
54815SOL     OW66218   4.724  10.815   2.112
54815SOL    HW166219   4.775  10.738   2.140
54815SOL    HW266220   4.677  10.785   2.034
54816SOL     OW66221  11.643   3.391  14.827
54816SOL    HW166222  11.597   3.307  14.837
54816SOL    HW266223  11.612   3.444   0.018
54817SOL     OW66224   5.429  10.383   1.227
54817SOL    HW166225   5.442  10.334   1.146
54817SOL    HW266226   5.334  10.389   1.237
54818SOL     OW66227  14.591  14.112   6.610
54818SOL    HW166228  14.543  14.052   6.667
54818SOL    HW266229  14.651  14.158   6.669
54819SOL     OW66230   3.608   1.200  11.077
54819SOL    HW166231   3.542   1.214  11.010
54819SOL    HW266232   3.622   1.286  11.116
54820SOL     OW66233   4.867   6.537   6.220
54820SOL    HW166234   4.930   6.557   6.151
54820SOL    HW266235   4.918   6.535   6.300
54821SOL     OW66236  12.018   9.437  13.260
54821SOL    HW166237  12.020   9.348  13.295
54821SOL    HW266238  12.037   9.427  13.167
54822SOL     OW66239   1.253   6.422   3.513
54822SOL    HW166240   1.253   6.485   3.442
54822SOL    HW266241   1.197   6.351   3.482
54823SOL     OW66242   9.133  10.910   2.376
54823SOL    HW166243   9.121  10.914   2.281
54823SOL    HW266244   9.174  10.994   2.399
54824SOL     OW66245   0.055  14.471   0.908
54824SOL    HW166246   0.014  14.514   0.833
54824SOL    HW266247   0.111  14.404   0.869
54825SOL     OW66248   6.146  10.306   1.024
54825SOL    HW166249   6.144  10.332   0.931
54825SOL    HW266250   6.076  10.357   1.064
54826SOL     OW66251  10.726   9.929   0.154
54826SOL    HW166252  10.785   9.904   0.083
54826SOL    HW266253  10.782   9.937   0.230
54827SOL     OW66254  10.823  10.594   9.438
54827SOL    HW166255  10.848  10.582   9.529
54827SOL    HW266256  10.800  10.507   9.407
54828SOL     OW66257  13.010  14.375  12.983
54828SOL    HW166258  12.932  14.325  13.005
54828SOL    HW266259  12.981  14.466  12.980
54829SOL     OW66260   1.901  11.878  11.455
54829SOL    HW166261   1.944  11.809  11.404
54829SOL    HW266262   1.942  11.873  11.541
54830SOL     OW66263   6.215  13.035   4.185
54830SOL    HW166264   6.245  12.944   4.186
54830SOL    HW266265   6.171  13.045   4.101
54831SOL     OW66266  11.430   4.976  13.290
54831SOL    HW166267  11.389   5.041  13.347
54831SOL    HW266268  11.492   5.026  13.237
54832SOL     OW66269   2.883   3.107  13.073
54832SOL    HW166270   2.830   3.173  13.117
54832SOL    HW266271   2.970   3.117  13.112
54833SOL     OW66272  14.325   3.595   4.201
54833SOL    HW166273  14.396   3.541   4.236
54833SOL    HW266274  14.248   3.566   4.250
54834SOL     OW66275  10.386   5.187  10.799
54834SOL    HW166276  10.354   5.244  10.870
54834SOL    HW266277  10.402   5.103  10.842
54835SOL     OW66278   9.303   2.120   3.842
54835SOL    HW166279   9.359   2.185   3.800
54835SOL    HW266280   9.345   2.036   3.824
54836SOL     OW66281   1.188  13.096   4.364
54836SOL    HW166282   1.247  13.064   4.296
54836SOL    HW266283   1.108  13.121   4.317
54837SOL     OW66284  14.342  10.295  10.471
54837SOL    HW166285  14.397  10.271  10.397
54837SOL    HW266286  14.347  10.219  10.529
54838SOL     OW66287   5.844   6.514  14.050
54838SOL    HW166288   5.831   6.452  14.122
54838SOL    HW266289   5.911   6.574  14.081
54839SOL     OW66290   1.625   3.111   5.467
54839SOL    HW166291   1.567   3.165   5.521
54839SOL    HW266292   1.572   3.034   5.445
54840SOL     OW66293   4.310  14.363  13.516
54840SOL    HW166294   4.280  14.365  13.607
54840SOL    HW266295   4.349  14.276  13.505
54841SOL     OW66296  13.866   9.869  12.660
54841SOL    HW166297  13.796   9.932  12.679
54841SOL    HW266298  13.944   9.906  12.702
54842SOL     OW66299  10.610   5.226   8.130
54842SOL    HW166300  10.580   5.245   8.219
54842SOL    HW266301  10.705   5.233   8.135
54843SOL     OW66302   4.209   8.839  14.373
54843SOL    HW166303   4.146   8.867  14.307
54843SOL    HW266304   4.194   8.745  14.382
54844SOL     OW66305   3.405   5.456   9.396
54844SOL    HW166306   3.392   5.546   9.426
54844SOL    HW266307   3.389   5.459   9.302
54845SOL     OW66308   5.018   6.693  10.729
54845SOL    HW166309   4.952   6.688  10.660
54845SOL    HW266310   4.970   6.679  10.810
54846SOL     OW66311  10.627  11.722   7.402
54846SOL    HW166312  10.560  11.774   7.357
54846SOL    HW266313  10.600  11.723   7.494
54847SOL     OW66314   6.207  11.476   3.129
54847SOL    HW166315   6.180  11.486   3.038
54847SOL    HW266316   6.278  11.538   3.141
54848SOL     OW66317   3.117   4.658  12.192
54848SOL    HW166318   3.156   4.737  12.154
54848SOL    HW266319   3.087   4.685  12.279
54849SOL     OW66320   9.904   9.241  10.944
54849SOL    HW166321   9.973   9.292  10.901
54849SOL    HW266322   9.932   9.150  10.934
54850SOL     OW66323  14.089   4.028  14.572
54850SOL    HW166324  14.101   4.101  14.633
54850SOL    HW266325  14.120   3.951  14.620
54851SOL     OW66326  12.544  13.192   3.615
54851SOL    HW166327  12.466  13.213   3.565
54851SOL    HW266328  12.589  13.125   3.563
54852SOL     OW66329  12.388   4.060  13.100
54852SOL    HW166330  12.438   4.106  13.167
54852SOL    HW266331  12.402   4.110  13.020
54853SOL     OW66332   0.928   4.226   0.029
54853SOL    HW166333   0.877   4.298   0.065
54853SOL    HW266334   0.864   4.159   0.007
54854SOL     OW66335   7.072   1.952   9.805
54854SOL    HW166336   7.101   1.988   9.889
54854SOL    HW266337   7.076   2.027   9.744
54855SOL     OW66338   0.241   8.554   7.774
54855SOL    HW166339   0.306   8.492   7.805
54855SOL    HW266340   0.292   8.624   7.733
54856SOL     OW66341   9.290   9.288   8.384
54856SOL    HW166342   9.222   9.232   8.347
54856SOL    HW266343   9.273   9.287   8.479
54857SOL     OW66344   0.292  11.062   3.102
54857SOL    HW166345   0.362  11.010   3.063
54857SOL    HW266346   0.221  11.058   3.039
54858SOL     OW66347  13.397   4.552  14.742
54858SOL    HW166348  13.465   4.506  14.694
54858SOL    HW266349  13.351   4.603  14.675
54859SOL     OW66350  11.780   9.194  10.565
54859SOL    HW166351  11.850   9.140  10.604
54859SOL    HW266352  11.755   9.147  10.486
54860SOL     OW66353   3.465  12.346   9.865
54860SOL    HW166354   3.458  12.414   9.933
54860SOL    HW266355   3.375  12.313   9.856
54861SOL     OW66356  10.849   0.455   9.544
54861SOL    HW166357  10.861   0.468   9.450
54861SOL    HW266358  10.914   0.388   9.567
54862SOL     OW66359  11.029  11.953   3.951
54862SOL    HW166360  11.086  11.907   4.012
54862SOL    HW266361  11.001  11.885   3.889
54863SOL     OW66362  12.633   6.278   6.597
54863SOL    HW166363  12.598   6.256   6.510
54863SOL    HW266364  12.555   6.291   6.651
54864SOL     OW66365   2.569   1.823   2.672
54864SOL    HW166366   2.633   1.887   2.639
54864SOL    HW266367   2.616   1.777   2.742
54865SOL     OW66368   7.465   6.128   4.454
54865SOL    HW166369   7.394   6.149   4.514
54865SOL    HW266370   7.473   6.205   4.397
54866SOL     OW66371  14.668   7.416   0.126
54866SOL    HW166372  14.750   7.389   0.084
54866SOL    HW266373  14.600   7.368   0.079
54867SOL     OW66374   4.506  12.945  11.726
54867SOL    HW166375   4.516  12.865  11.778
54867SOL    HW266376   4.589  12.953  11.679
54868SOL     OW66377   8.921  10.542   6.306
54868SOL    HW166378   8.959  10.630   6.305
54868SOL    HW266379   8.838  10.552   6.353
54869SOL     OW66380   6.800   3.764   6.595
54869SOL    HW166381   6.863   3.762   6.666
54869SOL    HW266382   6.780   3.672   6.577
54870SOL     OW66383  11.608  12.350   5.595
54870SOL    HW166384  11.622  12.329   5.502
54870SOL    HW266385  11.552  12.280   5.627
54871SOL     OW66386   3.752   8.918   0.276
54871SOL    HW166387   3.838   8.917   0.316
54871SOL    HW266388   3.734   8.827   0.254
54872SOL     OW66389  12.148  13.041   9.141
54872SOL    HW166390  12.147  13.037   9.045
54872SOL    HW266391  12.203  13.116   9.162
54873SOL     OW66392   5.417   0.131   0.049
54873SOL    HW166393   5.327   0.153   0.071
54873SOL    HW266394   5.448   0.077   0.121
54874SOL     OW66395   6.201   7.655   7.603
54874SOL    HW166396   6.162   7.736   7.571
54874SOL    HW266397   6.290   7.680   7.630
54875SOL     OW66398  14.367   8.508  10.710
54875SOL    HW166399  14.278   8.479  10.729
54875SOL    HW266400  14.377   8.589  10.761
54876SOL     OW66401   4.340   6.044  12.011
54876SOL    HW166402   4.316   5.989  11.936
54876SOL    HW266403   4.425   6.080  11.988
54877SOL     OW66404   6.467  13.075  13.416
54877SOL    HW166405   6.472  13.022  13.495
54877SOL    HW266406   6.555  13.109  13.403
54878SOL     OW66407   8.160   0.782   6.108
54878SOL    HW166408   8.112   0.714   6.154
54878SOL    HW266409   8.138   0.863   6.155
54879SOL     OW66410  13.420   9.448  11.102
54879SOL    HW166411  13.513   9.469  11.115
54879SOL    HW266412  13.382   9.530  11.070
54880SOL     OW66413   5.880   3.947   9.275
54880SOL    HW166414   5.897   4.022   9.217
54880SOL    HW266415   5.927   3.967   9.355
54881SOL     OW66416   0.025   6.236   7.608
54881SOL    HW166417  14.856   6.196   7.537
54881SOL    HW266418   0.109   6.258   7.569
54882SOL     OW66419  12.009   9.338  12.940
54882SOL    HW166420  12.081   9.280  12.917
54882SOL    HW266421  12.050   9.424  12.947
54883SOL     OW66422  14.252   6.894   5.645
54883SOL    HW166423  14.200   6.970   5.671
54883SOL    HW266424  14.341   6.927   5.638
54884SOL     OW66425   0.880   9.111   2.611
54884SOL    HW166426   0.898   9.017   2.613
54884SOL    HW266427   0.875   9.132   2.518
54885SOL     OW66428  14.535   0.153   4.529
54885SOL    HW166429  14.486   0.235   4.525
54885SOL    HW266430  14.503   0.101   4.456
54886SOL     OW66431   0.986  11.239   3.000
54886SOL    HW166432   1.015  11.166   2.945
54886SOL    HW266433   0.974  11.312   2.939
54887SOL     OW66434  11.869  12.975   7.125
54887SOL    HW166435  11.773  12.975   7.124
54887SOL    HW266436  11.893  13.067   7.128
54888SOL     OW66437  10.618   0.280  12.254
54888SOL    HW166438  10.539   0.307  12.301
54888SOL    HW266439  10.586   0.243  12.172
54889SOL     OW66440   2.164  12.437   8.538
54889SOL    HW166441   2.068  12.426   8.540
54889SOL    HW266442   2.198  12.353   8.570
54890SOL     OW66443   2.235   3.466   4.466
54890SOL    HW166444   2.187   3.439   4.545
54890SOL    HW266445   2.177   3.443   4.394
54891SOL     OW66446   9.491  12.637  13.013
54891SOL    HW166447   9.512  12.564  12.955
54891SOL    HW266448   9.494  12.714  12.956
54892SOL     OW66449   1.088   4.209   8.111
54892SOL    HW166450   1.025   4.267   8.155
54892SOL    HW266451   1.154   4.269   8.076
54893SOL     OW66452   7.438  10.630  13.592
54893SOL    HW166453   7.483  10.707  13.627
54893SOL    HW266454   7.503  10.589  13.534
54894SOL     OW66455   9.591   4.879   7.901
54894SOL    HW166456   9.633   4.932   7.833
54894SOL    HW266457   9.658   4.816   7.927
54895SOL     OW66458   7.852   2.777  13.431
54895SOL    HW166459   7.873   2.815  13.517
54895SOL    HW266460   7.881   2.686  13.437
54896SOL     OW66461  13.126   1.827   5.275
54896SOL    HW166462  13.059   1.765   5.247
54896SOL    HW266463  13.077   1.899   5.314
54897SOL     OW66464   7.039  10.834  12.177
54897SOL    HW166465   7.077  10.860  12.093
54897SOL    HW266466   7.018  10.741  12.165
54898SOL     OW66467   2.907   9.576   5.025
54898SOL    HW166468   2.851   9.532   4.961
54898SOL    HW266469   2.847   9.606   5.093
54899SOL     OW66470   8.048   0.219   3.680
54899SOL    HW166471   8.120   0.228   3.742
54899SOL    HW266472   7.971   0.250   3.726
54900SOL     OW66473   4.433   6.845   1.699
54900SOL    HW166474   4.472   6.783   1.638
54900SOL    HW266475   4.483   6.833   1.780
54901SOL     OW66476   2.604  13.206  13.195
54901SOL    HW166477   2.666  13.201  13.121
54901SOL    HW266478   2.606  13.298  13.222
54902SOL     OW66479   9.516   6.296   7.745
54902SOL    HW166480   9.593   6.336   7.706
54902SOL    HW266481   9.460   6.370   7.769
54903SOL     OW66482   4.035  11.616   1.738
54903SOL    HW166483   3.955  11.667   1.728
54903SOL    HW266484   4.035  11.555   1.664
54904SOL     OW66485  10.125  13.983   7.667
54904SOL    HW166486  10.172  14.005   7.587
54904SOL    HW266487  10.033  13.983   7.641
54905SOL     OW66488  11.097   3.809  12.035
54905SOL    HW166489  11.157   3.853  11.975
54905SOL    HW266490  11.135   3.822  12.122
54906SOL     OW66491   6.080   7.180   8.261
54906SOL    HW166492   6.142   7.122   8.217
54906SOL    HW266493   6.105   7.268   8.233
54907SOL     OW66494   0.520  14.513   4.925
54907SOL    HW166495   0.605  14.524   4.882
54907SOL    HW266496   0.457  14.549   4.863
54908SOL     OW66497  10.098   3.341   0.536
54908SOL    HW166498  10.163   3.411   0.533
54908SOL    HW266499  10.092   3.309   0.447
54909SOL     OW66500   2.300   5.923   7.734
54909SOL    HW166501   2.346   6.000   7.700
54909SOL    HW266502   2.238   5.900   7.666
54910SOL     OW66503  11.207   7.160   3.824
54910SOL    HW166504  11.225   7.251   3.847
54910SOL    HW266505  11.222   7.156   3.730
54911SOL     OW66506   9.701   5.223   9.495
54911SOL    HW166507   9.637   5.234   9.565
54911SOL    HW266508   9.661   5.160   9.435
54912SOL     OW66509   8.441   5.344   3.226
54912SOL    HW166510   8.374   5.314   3.165
54912SOL    HW266511   8.397   5.409   3.280
54913SOL     OW66512   1.329   7.763   4.325
54913SOL    HW166513   1.274   7.685   4.325
54913SOL    HW266514   1.269   7.834   4.347
54914SOL     OW66515   9.902   0.032  12.591
54914SOL    HW166516   9.942  14.869  12.517
54914SOL    HW266517   9.956   0.111  12.603
54915SOL     OW66518   0.984   7.693   1.198
54915SOL    HW166519   0.991   7.674   1.292
54915SOL    HW266520   0.950   7.612   1.161
54916SOL     OW66521  12.867   1.918  11.599
54916SOL    HW166522  12.820   1.885  11.676
54916SOL    HW266523  12.817   1.886  11.525
54917SOL     OW66524   1.860  13.271   8.847
54917SOL    HW166525   1.795  13.314   8.791
54917SOL    HW266526   1.822  13.187   8.869
54918SOL     OW66527  13.167   7.046   5.007
54918SOL    HW166528  13.185   6.963   5.052
54918SOL    HW266529  13.072   7.051   5.002
54919SOL     OW66530   4.627  13.083  10.870
54919SOL    HW166531   4.697  13.076  10.934
54919SOL    HW266532   4.548  13.061  10.918
54920SOL     OW66533   8.870   4.459   6.262
54920SOL    HW166534   8.877   4.501   6.348
54920SOL    HW266535   8.800   4.395   6.272
54921SOL     OW66536   5.729  13.851   9.487
54921SOL    HW166537   5.678  13.891   9.557
54921SOL    HW266538   5.762  13.769   9.525
54922SOL     OW66539   4.452   1.143  11.676
54922SOL    HW166540   4.447   1.170  11.584
54922SOL    HW266541   4.361   1.139  11.705
54923SOL     OW66542   1.527   8.367  12.255
54923SOL    HW166543   1.529   8.459  12.228
54923SOL    HW266544   1.475   8.324  12.187
54924SOL     OW66545   8.909   0.512   5.107
54924SOL    HW166546   8.985   0.548   5.153
54924SOL    HW266547   8.840   0.576   5.122
54925SOL     OW66548  13.928   3.345   8.037
54925SOL    HW166549  13.982   3.405   7.985
54925SOL    HW266550  13.841   3.384   8.035
54926SOL     OW66551  14.724  10.241   6.364
54926SOL    HW166552  14.766  10.178   6.422
54926SOL    HW266553  14.714  10.195   6.281
54927SOL     OW66554  12.710   7.346   5.577
54927SOL    HW166555  12.631   7.373   5.624
54927SOL    HW266556  12.781   7.364   5.639
54928SOL     OW66557   4.753  10.813   5.267
54928SOL    HW166558   4.773  10.793   5.359
54928SOL    HW266559   4.834  10.793   5.220
54929SOL     OW66560  11.127  12.730  12.269
54929SOL    HW166561  11.082  12.675  12.205
54929SOL    HW266562  11.220  12.710  12.256
54930SOL     OW66563  11.554  12.585   5.830
54930SOL    HW166564  11.612  12.585   5.754
54930SOL    HW266565  11.474  12.628   5.801
54931SOL     OW66566  13.364   3.434  10.544
54931SOL    HW166567  13.343   3.453  10.452
54931SOL    HW266568  13.292   3.472  10.593
54932SOL     OW66569  11.806  11.297   1.098
54932SOL    HW166570  11.712  11.315   1.098
54932SOL    HW266571  11.813  11.208   1.064
54933SOL     OW66572   4.369   1.249   0.493
54933SOL    HW166573   4.306   1.179   0.506
54933SOL    HW266574   4.448   1.217   0.537
54934SOL     OW66575   4.586   8.274   5.982
54934SOL    HW166576   4.587   8.365   5.953
54934SOL    HW266577   4.654   8.232   5.929
54935SOL     OW66578   5.227   4.193   8.114
54935SOL    HW166579   5.148   4.155   8.154
54935SOL    HW266580   5.203   4.205   8.022
54936SOL     OW66581   1.793   4.483   7.089
54936SOL    HW166582   1.881   4.509   7.116
54936SOL    HW266583   1.735   4.542   7.138
54937SOL     OW66584  12.900   9.722  10.045
54937SOL    HW166585  12.884   9.628  10.054
54937SOL    HW266586  12.815   9.759  10.019
54938SOL     OW66587  12.550   3.540   5.625
54938SOL    HW166588  12.599   3.616   5.656
54938SOL    HW266589  12.584   3.467   5.675
54939SOL     OW66590  14.118  12.010   9.627
54939SOL    HW166591  14.208  11.988   9.650
54939SOL    HW266592  14.127  12.068   9.551
54940SOL     OW66593   5.478   3.709  10.843
54940SOL    HW166594   5.541   3.768  10.802
54940SOL    HW266595   5.393   3.745  10.821
54941SOL     OW66596   1.869   4.307   0.609
54941SOL    HW166597   1.954   4.341   0.638
54941SOL    HW266598   1.867   4.217   0.641
54942SOL     OW66599   1.741   3.771   4.188
54942SOL    HW166600   1.731   3.864   4.208
54942SOL    HW266601   1.726   3.765   4.094
54943SOL     OW66602  13.702  13.836   8.777
54943SOL    HW166603  13.667  13.775   8.712
54943SOL    HW266604  13.739  13.781   8.845
54944SOL     OW66605  14.025  14.799   4.673
54944SOL    HW166606  13.951  14.848   4.639
54944SOL    HW266607  13.986  14.728   4.724
54945SOL     OW66608   7.786   3.646   0.745
54945SOL    HW166609   7.879   3.623   0.742
54945SOL    HW266610   7.778   3.719   0.683
54946SOL     OW66611  14.657   3.633   0.670
54946SOL    HW166612  14.653   3.627   0.765
54946SOL    HW266613  14.748   3.611   0.649
54947SOL     OW66614   2.301   5.617   2.349
54947SOL    HW166615   2.277   5.531   2.383
54947SOL    HW266616   2.328   5.601   2.258
54948SOL     OW66617   2.057   3.049   7.690
54948SOL    HW166618   2.143   3.085   7.670
54948SOL    HW266619   2.049   2.973   7.632
54949SOL     OW66620  13.801   8.078   1.502
54949SOL    HW166621  13.769   8.101   1.415
54949SOL    HW266622  13.884   8.034   1.486
54950SOL     OW66623   6.170  12.800   6.119
54950SOL    HW166624   6.243  12.747   6.151
54950SOL    HW266625   6.203  12.841   6.039
54951SOL     OW66626  14.344  12.090   6.803
54951SOL    HW166627  14.276  12.134   6.752
54951SOL    HW266628  14.314  11.999   6.810
54952SOL     OW66629   2.263   0.129  12.584
54952SOL    HW166630   2.299   0.216  12.600
54952SOL    HW266631   2.334   0.069  12.607
54953SOL     OW66632   0.225   4.053   9.907
54953SOL    HW166633   0.138   4.053   9.868
54953SOL    HW266634   0.244   4.145   9.926
54954SOL     OW66635   6.138  11.787   7.110
54954SOL    HW166636   6.134  11.845   7.033
54954SOL    HW266637   6.056  11.738   7.108
54955SOL     OW66638   5.830   7.230   8.099
54955SOL    HW166639   5.830   7.276   8.015
54955SOL    HW266640   5.903   7.268   8.147
54956SOL     OW66641  13.669   4.018   8.145
54956SOL    HW166642  13.693   4.103   8.106
54956SOL    HW266643  13.576   4.009   8.125
54957SOL     OW66644   2.385   2.646   9.668
54957SOL    HW166645   2.305   2.673   9.714
54957SOL    HW266646   2.377   2.551   9.659
54958SOL     OW66647   4.540  10.168   9.409
54958SOL    HW166648   4.628  10.173   9.446
54958SOL    HW266649   4.545  10.096   9.345
54959SOL     OW66650  14.732   0.014   3.329
54959SOL    HW166651  14.805   0.031   3.268
54959SOL    HW266652  14.695   0.100   3.346
54960SOL     OW66653   7.440  11.719   7.986
54960SOL    HW166654   7.439  11.770   8.068
54960SOL    HW266655   7.471  11.633   8.012
54961SOL     OW66656   4.271  10.320  13.086
54961SOL    HW166657   4.356  10.335  13.127
54961SOL    HW266658   4.253  10.401  13.038
54962SOL     OW66659  13.043   5.905   6.923
54962SOL    HW166660  13.007   5.837   6.867
54962SOL    HW266661  12.977   5.975   6.923
54963SOL     OW66662  10.852   5.403   5.444
54963SOL    HW166663  10.910   5.440   5.511
54963SOL    HW266664  10.767   5.396   5.488
54964SOL     OW66665   3.379   9.587   8.681
54964SOL    HW166666   3.466   9.626   8.672
54964SOL    HW266667   3.381   9.511   8.623
54965SOL     OW66668  14.020   3.606  12.754
54965SOL    HW166669  13.958   3.572  12.818
54965SOL    HW266670  13.967   3.665  12.699
54966SOL     OW66671   3.785   6.313   2.718
54966SOL    HW166672   3.733   6.304   2.799
54966SOL    HW266673   3.735   6.373   2.664
54967SOL     OW66674   2.813  14.508  14.779
54967SOL    HW166675   2.866  14.511  14.859
54967SOL    HW266676   2.779  14.418  14.777
54968SOL     OW66677   9.091  14.526   1.782
54968SOL    HW166678   9.065  14.441   1.817
54968SOL    HW266679   9.099  14.582   1.859
54969SOL     OW66680   6.961  12.894   2.578
54969SOL    HW166681   6.909  12.926   2.651
54969SOL    HW266682   7.030  12.959   2.567
54970SOL     OW66683  12.011   6.329   7.512
54970SOL    HW166684  11.931   6.278   7.499
54970SOL    HW266685  12.001   6.403   7.451
54971SOL     OW66686   8.472  14.623   0.265
54971SOL    HW166687   8.486  14.530   0.282
54971SOL    HW266688   8.464  14.662   0.352
54972SOL     OW66689   7.642   7.899   9.792
54972SOL    HW166690   7.644   7.993   9.773
54972SOL    HW266691   7.607   7.859   9.712
54973SOL     OW66692   4.628  12.182   6.837
54973SOL    HW166693   4.551  12.184   6.894
54973SOL    HW266694   4.594  12.160   6.751
54974SOL     OW66695   0.249  12.493   4.167
54974SOL    HW166696   0.288  12.557   4.227
54974SOL    HW266697   0.216  12.424   4.225
54975SOL     OW66698  11.533   6.723   7.187
54975SOL    HW166699  11.545   6.814   7.158
54975SOL    HW266700  11.458   6.691   7.136
54976SOL     OW66701  14.052   4.283   6.244
54976SOL    HW166702  14.006   4.208   6.282
54976SOL    HW266703  14.126   4.299   6.303
54977SOL     OW66704   9.978   3.520  13.431
54977SOL    HW166705  10.015   3.488  13.348
54977SOL    HW266706   9.887   3.542  13.410
54978SOL     OW66707   4.595  14.287  11.211
54978SOL    HW166708   4.533  14.356  11.186
54978SOL    HW266709   4.635  14.320  11.291
54979SOL     OW66710  14.750   3.516   2.022
54979SOL    HW166711  14.670   3.536   2.070
54979SOL    HW266712  14.760   3.421   2.030
54980SOL     OW66713  11.340   4.749   0.420
54980SOL    HW166714  11.409   4.767   0.485
54980SOL    HW266715  11.263   4.726   0.473
54981SOL     OW66716   1.170  10.968   0.467
54981SOL    HW166717   1.120  11.045   0.443
54981SOL    HW266718   1.197  10.984   0.558
54982SOL     OW66719  10.084   4.041  10.025
54982SOL    HW166720  10.010   4.015   9.969
54982SOL    HW266721  10.143   3.966  10.022
54983SOL     OW66722   3.913  13.494   1.324
54983SOL    HW166723   3.838  13.455   1.367
54983SOL    HW266724   3.951  13.423   1.272
54984SOL     OW66725   3.448   7.121  10.551
54984SOL    HW166726   3.469   7.028  10.550
54984SOL    HW266727   3.527   7.164  10.583
54985SOL     OW66728   2.967  11.760   8.456
54985SOL    HW166729   2.897  11.729   8.513
54985SOL    HW266730   2.929  11.835   8.410
54986SOL     OW66731   5.505  10.515   3.277
54986SOL    HW166732   5.413  10.539   3.273
54986SOL    HW266733   5.543  10.575   3.341
54987SOL     OW66734   7.418   2.644   8.866
54987SOL    HW166735   7.492   2.703   8.881
54987SOL    HW266736   7.457   2.557   8.857
54988SOL     OW66737  14.385   4.733   9.743
54988SOL    HW166738  14.345   4.656   9.785
54988SOL    HW266739  14.344   4.737   9.656
54989SOL     OW66740   7.614  11.433   8.339
54989SOL    HW166741   7.540  11.398   8.388
54989SOL    HW266742   7.683  11.367   8.351
54990SOL     OW66743   8.689   8.388  10.481
54990SOL    HW166744   8.627   8.403  10.552
54990SOL    HW266745   8.771   8.428  10.511
54991SOL     OW66746   7.027   4.227   6.790
54991SOL    HW166747   6.984   4.150   6.828
54991SOL    HW266748   7.013   4.296   6.854
54992SOL     OW66749   2.128  12.920  12.376
54992SOL    HW166750   2.159  12.965  12.297
54992SOL    HW266751   2.123  12.828  12.350
54993SOL     OW66752   8.702   6.320   1.914
54993SOL    HW166753   8.656   6.244   1.879
54993SOL    HW266754   8.671   6.393   1.861
54994SOL     OW66755   8.277   5.057   7.901
54994SOL    HW166756   8.347   5.075   7.838
54994SOL    HW266757   8.241   5.144   7.922
54995SOL     OW66758  11.139   4.380   0.412
54995SOL    HW166759  11.170   4.389   0.502
54995SOL    HW266760  11.079   4.453   0.400
54996SOL     OW66761  12.038   4.220   3.671
54996SOL    HW166762  12.042   4.127   3.693
54996SOL    HW266763  12.116   4.258   3.712
54997SOL     OW66764   9.065  11.080   3.327
54997SOL    HW166765   9.038  11.090   3.236
54997SOL    HW266766   9.015  11.005   3.359
54998SOL     OW66767   7.653  12.835   9.465
54998SOL    HW166768   7.746  12.813   9.460
54998SOL    HW266769   7.613  12.760   9.511
54999SOL     OW66770   0.030   1.511   6.872
54999SOL    HW166771   0.075   1.546   6.949
54999SOL    HW266772  14.856   1.583   6.842
55000SOL     OW66773  13.916   0.158  10.206
55000SOL    HW166774  13.877   0.075  10.180
55000SOL    HW266775  13.985   0.135  10.268
55001SOL     OW66776   7.915  12.808   2.023
55001SOL    HW166777   7.868  12.762   1.954
55001SOL    HW266778   8.004  12.816   1.991
55002SOL     OW66779  13.456   5.039  11.519
55002SOL    HW166780  13.450   4.956  11.566
55002SOL    HW266781  13.539   5.035  11.472
55003SOL     OW66782  13.726  13.103   5.563
55003SOL    HW166783  13.678  13.021   5.576
55003SOL    HW266784  13.815  13.084   5.594
55004SOL     OW66785   2.658  11.910  11.656
55004SOL    HW166786   2.661  11.959  11.738
55004SOL    HW266787   2.636  11.975  11.590
55005SOL     OW66788   9.992   8.296   8.196
55005SOL    HW166789  10.014   8.205   8.176
55005SOL    HW266790   9.896   8.300   8.187
55006SOL     OW66791   6.185   6.356   2.931
55006SOL    HW166792   6.125   6.321   2.864
55006SOL    HW266793   6.272   6.344   2.893
55007SOL     OW66794  14.333   6.422   6.309
55007SOL    HW166795  14.287   6.390   6.386
55007SOL    HW266796  14.413   6.369   6.305
55008SOL     OW66797   3.128  10.804   0.325
55008SOL    HW166798   3.119  10.710   0.342
55008SOL    HW266799   3.142  10.843   0.412
55009SOL     OW66800   9.851   2.941   7.315
55009SOL    HW166801   9.809   2.924   7.231
55009SOL    HW266802   9.933   2.985   7.292
55010SOL     OW66803   5.880  14.710   0.869
55010SOL    HW166804   5.942  14.655   0.822
55010SOL    HW266805   5.921  14.796   0.870
55011SOL     OW66806   6.155  14.198   2.048
55011SOL    HW166807   6.115  14.235   1.969
55011SOL    HW266808   6.194  14.115   2.019
55012SOL     OW66809   0.679  11.478   9.723
55012SOL    HW166810   0.664  11.565   9.760
55012SOL    HW266811   0.704  11.495   9.632
55013SOL     OW66812   5.965  14.059   6.321
55013SOL    HW166813   5.872  14.050   6.300
55013SOL    HW266814   6.008  13.996   6.262
55014SOL     OW66815   7.498  11.091   4.459
55014SOL    HW166816   7.467  11.104   4.370
55014SOL    HW266817   7.579  11.142   4.464
55015SOL     OW66818  13.804  11.507   7.900
55015SOL    HW166819  13.729  11.548   7.942
55015SOL    HW266820  13.859  11.476   7.972
55016SOL     OW66821  12.764   0.188   0.307
55016SOL    HW166822  12.804   0.249   0.369
55016SOL    HW266823  12.716   0.244   0.246
55017SOL     OW66824   0.915   9.028   8.372
55017SOL    HW166825   0.879   9.009   8.286
55017SOL    HW266826   0.887   9.117   8.391
55018SOL     OW66827   6.656   3.971   6.726
55018SOL    HW166828   6.698   4.038   6.671
55018SOL    HW266829   6.680   3.888   6.684
55019SOL     OW66830   8.124   4.726  13.956
55019SOL    HW166831   8.188   4.661  13.925
55019SOL    HW266832   8.176   4.791  14.003
55020SOL     OW66833   5.959   3.515   0.797
55020SOL    HW166834   6.022   3.495   0.728
55020SOL    HW266835   5.875   3.524   0.751
55021SOL     OW66836  14.554   4.879   5.263
55021SOL    HW166837  14.547   4.909   5.172
55021SOL    HW266838  14.488   4.809   5.270
55022SOL     OW66839   5.355   1.146  13.853
55022SOL    HW166840   5.447   1.166  13.869
55022SOL    HW266841   5.307   1.198  13.917
55023SOL     OW66842  11.857  13.246   4.546
55023SOL    HW166843  11.861  13.295   4.629
55023SOL    HW266844  11.926  13.285   4.493
55024SOL     OW66845   9.383   2.624   7.445
55024SOL    HW166846   9.477   2.641   7.434
55024SOL    HW266847   9.378   2.571   7.525
55025SOL     OW66848   6.183  11.613   1.013
55025SOL    HW166849   6.125  11.577   0.947
55025SOL    HW266850   6.221  11.691   0.973
55026SOL     OW66851   5.972   6.333   8.790
55026SOL    HW166852   5.984   6.306   8.881
55026SOL    HW266853   6.025   6.272   8.740
55027SOL     OW66854  10.695  10.012   9.465
55027SOL    HW166855  10.663   9.928   9.434
55027SOL    HW266856  10.678  10.012   9.559
55028SOL     OW66857   8.097   4.018   5.676
55028SOL    HW166858   8.156   4.093   5.676
55028SOL    HW266859   8.033   4.038   5.607
55029SOL     OW66860   4.426   4.832   8.528
55029SOL    HW166861   4.366   4.853   8.457
55029SOL    HW266862   4.425   4.736   8.533
55030SOL     OW66863  14.476   2.885   7.143
55030SOL    HW166864  14.465   2.891   7.048
55030SOL    HW266865  14.459   2.974   7.174
55031SOL     OW66866  10.669  14.642   4.161
55031SOL    HW166867  10.630  14.700   4.227
55031SOL    HW266868  10.740  14.693   4.123
55032SOL     OW66869  14.193  11.201  14.463
55032SOL    HW166870  14.261  11.254  14.421
55032SOL    HW266871  14.165  11.253  14.538
55033SOL     OW66872   4.990   8.369   4.082
55033SOL    HW166873   5.002   8.397   4.173
55033SOL    HW266874   4.973   8.275   4.088
55034SOL     OW66875   9.690   2.248   3.417
55034SOL    HW166876   9.722   2.175   3.469
55034SOL    HW266877   9.692   2.323   3.477
55035SOL     OW66878   6.593  12.081   4.940
55035SOL    HW166879   6.676  12.035   4.931
55035SOL    HW266880   6.559  12.052   5.025
55036SOL     OW66881   6.147  14.872  12.691
55036SOL    HW166882   6.071  14.873  12.633
55036SOL    HW266883   6.209   0.051  12.651
55037SOL     OW66884   5.088  13.098   0.561
55037SOL    HW166885   5.121  13.187   0.548
55037SOL    HW266886   5.144  13.062   0.630
55038SOL     OW66887   0.897   6.309   8.149
55038SOL    HW166888   0.839   6.267   8.086
55038SOL    HW266889   0.985   6.295   8.115
55039SOL     OW66890  11.684   7.440  13.517
55039SOL    HW166891  11.628   7.506  13.558
55039SOL    HW266892  11.656   7.358  13.556
55040SOL     OW66893  11.677   6.356   8.295
55040SOL    HW166894  11.641   6.269   8.280
55040SOL    HW266895  11.600   6.412   8.309
55041SOL     OW66896   9.145  12.783   1.520
55041SOL    HW166897   9.219  12.755   1.467
55041SOL    HW266898   9.080  12.713   1.510
55042SOL     OW66899   8.642   4.886   1.069
55042SOL    HW166900   8.548   4.888   1.085
55042SOL    HW266901   8.679   4.842   1.146
55043SOL     OW66902   9.205   5.369   8.777
55043SOL    HW166903   9.152   5.354   8.855
55043SOL    HW266904   9.293   5.341   8.802
55044SOL     OW66905  12.770   9.960  12.156
55044SOL    HW166906  12.679   9.937  12.137
55044SOL    HW266907  12.800   9.891  12.214
55045SOL     OW66908   8.374  11.127   9.594
55045SOL    HW166909   8.464  11.134   9.625
55045SOL    HW266910   8.341  11.046   9.633
55046SOL     OW66911  13.821   3.922   2.833
55046SOL    HW166912  13.734   3.891   2.811
55046SOL    HW266913  13.878   3.887   2.764
55047SOL     OW66914  11.175  13.226   0.367
55047SOL    HW166915  11.192  13.321   0.371
55047SOL    HW266916  11.233  13.189   0.433
55048SOL     OW66917   2.283  10.840   7.225
55048SOL    HW166918   2.352  10.895   7.187
55048SOL    HW266919   2.229  10.815   7.151
55049SOL     OW66920   6.487  10.498  11.579
55049SOL    HW166921   6.434  10.564  11.534
55049SOL    HW266922   6.429  10.423  11.589
55050SOL     OW66923   6.509   7.919   3.855
55050SOL    HW166924   6.578   7.894   3.793
55050SOL    HW266925   6.427   7.902   3.809
55051SOL     OW66926   1.216   8.548   2.300
55051SOL    HW166927   1.301   8.582   2.327
55051SOL    HW266928   1.196   8.595   2.218
55052SOL     OW66929   1.395   6.433  10.468
55052SOL    HW166930   1.471   6.489  10.457
55052SOL    HW266931   1.397   6.374  10.393
55053SOL     OW66932   9.087  13.434   3.803
55053SOL    HW166933   9.021  13.409   3.868
55053SOL    HW266934   9.136  13.353   3.787
55054SOL     OW66935   8.857   6.444   8.916
55054SOL    HW166936   8.919   6.406   8.980
55054SOL    HW266937   8.781   6.468   8.968
55055SOL     OW66938  11.137   8.878   1.449
55055SOL    HW166939  11.209   8.850   1.392
55055SOL    HW266940  11.063   8.823   1.423
55056SOL     OW66941   7.788  13.205  11.897
55056SOL    HW166942   7.722  13.141  11.924
55056SOL    HW266943   7.776  13.213  11.802
55057SOL     OW66944  14.038  11.851  12.973
55057SOL    HW166945  14.080  11.918  12.919
55057SOL    HW266946  14.063  11.768  12.932
55058SOL     OW66947   8.734   3.554   1.141
55058SOL    HW166948   8.685   3.489   1.191
55058SOL    HW266949   8.811   3.573   1.195
55059SOL     OW66950  12.451  14.407   0.789
55059SOL    HW166951  12.529  14.406   0.844
55059SOL    HW266952  12.473  14.352   0.714
55060SOL     OW66953   6.416  11.452  14.474
55060SOL    HW166954   6.364  11.441  14.554
55060SOL    HW266955   6.406  11.369  14.428
55061SOL     OW66956   4.529   6.602   0.485
55061SOL    HW166957   4.493   6.605   0.574
55061SOL    HW266958   4.526   6.692   0.454
55062SOL     OW66959   2.272   9.124   7.225
55062SOL    HW166960   2.308   9.088   7.306
55062SOL    HW266961   2.202   9.184   7.254
55063SOL     OW66962   3.016  11.688  10.554
55063SOL    HW166963   3.021  11.749  10.627
55063SOL    HW266964   2.941  11.717  10.503
55064SOL     OW66965  11.404   7.932   0.973
55064SOL    HW166966  11.322   7.977   0.994
55064SOL    HW266967  11.387   7.840   0.995
55065SOL     OW66968  10.377   0.514   7.625
55065SOL    HW166969  10.294   0.470   7.645
55065SOL    HW266970  10.377   0.524   7.530
55066SOL     OW66971  10.307   4.534  12.606
55066SOL    HW166972  10.333   4.447  12.635
55066SOL    HW266973  10.328   4.536  12.513
55067SOL     OW66974   4.031   1.813   5.212
55067SOL    HW166975   4.005   1.899   5.180
55067SOL    HW266976   4.111   1.792   5.164
55068SOL     OW66977   2.012   9.646   0.255
55068SOL    HW166978   1.936   9.697   0.282
55068SOL    HW266979   2.011   9.649   0.159
55069SOL     OW66980   3.152   7.574  12.777
55069SOL    HW166981   3.177   7.638  12.710
55069SOL    HW266982   3.065   7.543  12.749
55070SOL     OW66983   2.817   8.191   7.039
55070SOL    HW166984   2.757   8.157   7.105
55070SOL    HW266985   2.771   8.266   7.002
55071SOL     OW66986  12.171   8.660   8.711
55071SOL    HW166987  12.080   8.689   8.714
55071SOL    HW266988  12.167   8.571   8.676
55072SOL     OW66989   3.029   7.615  12.053
55072SOL    HW166990   3.004   7.524  12.040
55072SOL    HW266991   3.044   7.623  12.147
55073SOL     OW66992   9.674   6.221  11.862
55073SOL    HW166993   9.614   6.149  11.844
55073SOL    HW266994   9.703   6.250  11.775
55074SOL     OW66995   9.116   1.796   4.844
55074SOL    HW166996   9.193   1.837   4.882
55074SOL    HW266997   9.127   1.702   4.863
55075SOL     OW66998   4.383   6.787   0.204
55075SOL    HW166999   4.378   6.803   0.298
55075SOL    HW267000   4.325   6.712   0.189
55076SOL     OW67001  14.298   1.551  12.316
55076SOL    HW167002  14.366   1.490  12.288
55076SOL    HW267003  14.220   1.497  12.327
55077SOL     OW67004  11.302  11.134   8.356
55077SOL    HW167005  11.233  11.166   8.297
55077SOL    HW267006  11.314  11.205   8.419
55078SOL     OW67007   5.666   9.994  10.117
55078SOL    HW167008   5.624   9.934  10.055
55078SOL    HW267009   5.598  10.013  10.182
55079SOL     OW67010   6.548  13.344   7.146
55079SOL    HW167011   6.484  13.354   7.075
55079SOL    HW267012   6.581  13.432   7.162
55080SOL     OW67013   2.272   3.983   7.069
55080SOL    HW167014   2.304   4.026   7.148
55080SOL    HW267015   2.306   3.894   7.074
55081SOL     OW67016   7.499   3.524   2.369
55081SOL    HW167017   7.566   3.564   2.313
55081SOL    HW267018   7.481   3.440   2.328
55082SOL     OW67019  13.005  12.159  11.653
55082SOL    HW167020  13.080  12.181  11.598
55082SOL    HW267021  12.944  12.232  11.640
55083SOL     OW67022   1.976   5.838  11.683
55083SOL    HW167023   2.053   5.879  11.722
55083SOL    HW267024   1.961   5.887  11.602
55084SOL     OW67025   7.302  12.154  14.769
55084SOL    HW167026   7.364  12.160  14.842
55084SOL    HW267027   7.348  12.103  14.703
55085SOL     OW67028   8.504   9.798   2.256
55085SOL    HW167029   8.536   9.798   2.346
55085SOL    HW267030   8.521   9.710   2.225
55086SOL     OW67031   2.877   4.182   7.520
55086SOL    HW167032   2.878   4.115   7.452
55086SOL    HW267033   2.853   4.262   7.474
55087SOL     OW67034  12.462  13.172   0.724
55087SOL    HW167035  12.500  13.256   0.698
55087SOL    HW267036  12.456  13.177   0.820
55088SOL     OW67037   4.792   4.685   7.148
55088SOL    HW167038   4.814   4.777   7.134
55088SOL    HW267039   4.708   4.674   7.104
55089SOL     OW67040   2.738   5.864   5.161
55089SOL    HW167041   2.813   5.809   5.186
55089SOL    HW267042   2.716   5.836   5.072
55090SOL     OW67043   0.154   6.931   9.534
55090SOL    HW167044   0.206   7.009   9.553
55090SOL    HW267045   0.156   6.923   9.439
55091SOL     OW67046  10.779   4.027   4.035
55091SOL    HW167047  10.693   3.984   4.039
55091SOL    HW267048  10.798   4.049   4.126
55092SOL     OW67049   8.973   5.437   2.847
55092SOL    HW167050   8.939   5.424   2.758
55092SOL    HW267051   9.028   5.361   2.863
55093SOL     OW67052  10.483   4.660  14.494
55093SOL    HW167053  10.524   4.662  14.581
55093SOL    HW267054  10.456   4.569  14.483
55094SOL     OW67055  14.265  13.160  12.217
55094SOL    HW167056  14.195  13.102  12.246
55094SOL    HW267057  14.294  13.206  12.296
55095SOL     OW67058   3.332   7.507   7.759
55095SOL    HW167059   3.249   7.552   7.743
55095SOL    HW267060   3.315   7.452   7.836
55096SOL     OW67061   9.988   4.606   9.108
55096SOL    HW167062  10.011   4.683   9.056
55096SOL    HW267063   9.894   4.597   9.095
55097SOL     OW67064   6.488   2.568   2.730
55097SOL    HW167065   6.559   2.589   2.791
55097SOL    HW267066   6.532   2.527   2.656
55098SOL     OW67067   0.332  11.833   7.166
55098SOL    HW167068   0.346  11.783   7.247
55098SOL    HW267069   0.333  11.768   7.097
55099SOL     OW67070   7.814  12.541  13.102
55099SOL    HW167071   7.811  12.597  13.024
55099SOL    HW267072   7.893  12.570  13.148
55100SOL     OW67073  11.499   5.990   5.260
55100SOL    HW167074  11.559   5.934   5.211
55100SOL    HW267075  11.413   5.953   5.243
55101SOL     OW67076  11.324   5.341   2.630
55101SOL    HW167077  11.255   5.282   2.659
55101SOL    HW267078  11.371   5.364   2.710
55102SOL     OW67079   4.156   1.480  12.354
55102SOL    HW167080   4.219   1.542  12.390
55102SOL    HW267081   4.189   1.394  12.379
55103SOL     OW67082  10.978   5.326   6.916
55103SOL    HW167083  10.891   5.344   6.952
55103SOL    HW267084  10.962   5.294   6.827
55104SOL     OW67085  11.803   7.098   7.879
55104SOL    HW167086  11.793   7.066   7.789
55104SOL    HW267087  11.767   7.028   7.934
55105SOL     OW67088  12.721   0.336   6.564
55105SOL    HW167089  12.660   0.274   6.524
55105SOL    HW267090  12.786   0.354   6.497
55106SOL     OW67091   3.887   9.646   4.324
55106SOL    HW167092   3.821   9.612   4.384
55106SOL    HW267093   3.948   9.574   4.311
55107SOL     OW67094   1.990   4.097  13.767
55107SOL    HW167095   2.072   4.087  13.815
55107SOL    HW267096   1.965   4.188  13.782
55108SOL     OW67097   4.657   7.684  14.216
55108SOL    HW167098   4.682   7.775  14.201
55108SOL    HW267099   4.740   7.636  14.217
55109SOL     OW67100   2.889   1.935   2.881
55109SOL    HW167101   2.929   1.960   2.798
55109SOL    HW267102   2.809   1.986   2.886
55110SOL     OW67103   8.674   3.539   9.628
55110SOL    HW167104   8.651   3.459   9.675
55110SOL    HW267105   8.672   3.608   9.695
55111SOL     OW67106  14.081  10.552  13.919
55111SOL    HW167107  14.055  10.465  13.951
55111SOL    HW267108  14.138  10.587  13.987
55112SOL     OW67109  10.438  12.355   5.695
55112SOL    HW167110  10.453  12.270   5.735
55112SOL    HW267111  10.350  12.380   5.724
55113SOL     OW67112   2.263  10.335   0.088
55113SOL    HW167113   2.239  10.422   0.121
55113SOL    HW267114   2.210  10.324   0.009
55114SOL     OW67115   2.412   9.103  14.684
55114SOL    HW167116   2.416   9.162  14.759
55114SOL    HW267117   2.493   9.118  14.636
55115SOL     OW67118   6.946   3.019  10.771
55115SOL    HW167119   6.923   2.928  10.794
55115SOL    HW267120   6.972   3.014  10.679
55116SOL     OW67121  13.781   9.548  11.785
55116SOL    HW167122  13.784   9.644  11.790
55116SOL    HW267123  13.873   9.521  11.780
55117SOL     OW67124   3.830  14.619   6.402
55117SOL    HW167125   3.765  14.549   6.411
55117SOL    HW267126   3.808  14.681   6.472
55118SOL     OW67127   8.652   4.799  10.488
55118SOL    HW167128   8.602   4.791  10.407
55118SOL    HW267129   8.742   4.779  10.463
55119SOL     OW67130  10.831   2.192   6.926
55119SOL    HW167131  10.788   2.175   7.010
55119SOL    HW267132  10.795   2.126   6.867
55120SOL     OW67133  10.064  10.226  11.260
55120SOL    HW167134   9.995  10.165  11.234
55120SOL    HW267135  10.078  10.208  11.353
55121SOL     OW67136   4.725   5.211  11.943
55121SOL    HW167137   4.783   5.227  12.018
55121SOL    HW267138   4.753   5.127  11.908
55122SOL     OW67139  11.629  12.411   9.227
55122SOL    HW167140  11.539  12.426   9.254
55122SOL    HW267141  11.654  12.490   9.179
55123SOL     OW67142   6.052   5.237   1.081
55123SOL    HW167143   6.144   5.256   1.101
55123SOL    HW267144   6.040   5.274   0.993
55124SOL     OW67145  11.775   3.128   5.477
55124SOL    HW167146  11.799   3.218   5.499
55124SOL    HW267147  11.693   3.136   5.428
55125SOL     OW67148   7.828   6.434   3.321
55125SOL    HW167149   7.834   6.491   3.398
55125SOL    HW267150   7.918   6.404   3.306
55126SOL     OW67151   4.492   5.013   9.691
55126SOL    HW167152   4.502   4.918   9.685
55126SOL    HW267153   4.423   5.026   9.756
55127SOL     OW67154  13.739   5.931  10.122
55127SOL    HW167155  13.818   5.985  10.120
55127SOL    HW267156  13.726   5.911  10.214
55128SOL     OW67157  13.585   2.591   0.540
55128SOL    HW167158  13.573   2.680   0.574
55128SOL    HW267159  13.680   2.582   0.529
55129SOL     OW67160   2.014  11.488   1.181
55129SOL    HW167161   1.955  11.536   1.122
55129SOL    HW267162   2.000  11.528   1.267
55130SOL     OW67163   9.192  14.401  12.865
55130SOL    HW167164   9.165  14.336  12.929
55130SOL    HW267165   9.178  14.359  12.780
55131SOL     OW67166   8.476   2.562  10.182
55131SOL    HW167167   8.551   2.522  10.138
55131SOL    HW267168   8.415   2.490  10.198
55132SOL     OW67169   1.431   1.123   9.990
55132SOL    HW167170   1.446   1.209  10.029
55132SOL    HW267171   1.515   1.099   9.951
55133SOL     OW67172   9.606   0.017   4.954
55133SOL    HW167173   9.648   0.102   4.967
55133SOL    HW267174   9.658  14.838   5.006
55134SOL     OW67175  13.105  12.421   7.917
55134SOL    HW167176  13.035  12.363   7.887
55134SOL    HW267177  13.088  12.434   8.010
55135SOL     OW67178  12.924   0.286   2.558
55135SOL    HW167179  12.939   0.235   2.478
55135SOL    HW267180  12.955   0.229   2.629
55136SOL     OW67181   4.769   4.614  13.598
55136SOL    HW167182   4.743   4.645  13.685
55136SOL    HW267183   4.734   4.680  13.538
55137SOL     OW67184   3.753   9.197   6.189
55137SOL    HW167185   3.659   9.212   6.189
55137SOL    HW267186   3.789   9.272   6.236
55138SOL     OW67187   6.834  12.396   3.588
55138SOL    HW167188   6.841  12.453   3.511
55138SOL    HW267189   6.883  12.442   3.656
55139SOL     OW67190   8.661  14.547  11.293
55139SOL    HW167191   8.638  14.528  11.384
55139SOL    HW267192   8.705  14.632  11.297
55140SOL     OW67193  13.147   7.145  13.437
55140SOL    HW167194  13.159   7.061  13.392
55140SOL    HW267195  13.055   7.166  13.423
55141SOL     OW67196  11.698   1.370   0.036
55141SOL    HW167197  11.685   1.292  14.865
55141SOL    HW267198  11.759   1.343   0.104
55142SOL     OW67199  10.861  11.419  14.838
55142SOL    HW167200  10.846  11.461   0.041
55142SOL    HW267201  10.833  11.484  14.774
55143SOL     OW67202  12.258   1.285  12.992
55143SOL    HW167203  12.233   1.220  13.056
55143SOL    HW267204  12.199   1.359  13.008
55144SOL     OW67205   3.673  10.982   5.708
55144SOL    HW167206   3.682  11.053   5.645
55144SOL    HW267207   3.757  10.982   5.755
55145SOL     OW67208  12.554   5.759   7.143
55145SOL    HW167209  12.641   5.745   7.106
55145SOL    HW267210  12.570   5.791   7.232
55146SOL     OW67211  10.512   4.962   6.011
55146SOL    HW167212  10.524   5.041   6.063
55146SOL    HW267213  10.548   4.985   5.925
55147SOL     OW67214  13.804   2.724  12.950
55147SOL    HW167215  13.860   2.787  12.905
55147SOL    HW267216  13.783   2.658  12.883
55148SOL     OW67217   6.519  13.002   9.564
55148SOL    HW167218   6.566  12.951   9.631
55148SOL    HW267219   6.428  13.003   9.595
55149SOL     OW67220   6.041   6.171   6.045
55149SOL    HW167221   6.131   6.180   6.074
55149SOL    HW267222   6.045   6.108   5.973
55150SOL     OW67223   3.028  10.674  10.518
55150SOL    HW167224   2.973  10.675  10.440
55150SOL    HW267225   2.986  10.737  10.577
55151SOL     OW67226  11.520   5.244  10.240
55151SOL    HW167227  11.599   5.289  10.266
55151SOL    HW267228  11.462   5.249  10.316
55152SOL     OW67229   1.971   1.675   6.452
55152SOL    HW167230   2.057   1.635   6.438
55152SOL    HW267231   1.915   1.633   6.388
55153SOL     OW67232   4.119   0.374   7.983
55153SOL    HW167233   4.125   0.470   7.986
55153SOL    HW267234   4.033   0.354   8.019
55154SOL     OW67235   6.363  10.785  13.794
55154SOL    HW167236   6.428  10.798  13.725
55154SOL    HW267237   6.309  10.712  13.762
55155SOL     OW67238   2.938   5.649   0.890
55155SOL    HW167239   2.928   5.558   0.861
55155SOL    HW267240   3.022   5.651   0.936
55156SOL     OW67241  10.189   1.618  12.027
55156SOL    HW167242  10.131   1.687  12.061
55156SOL    HW267243  10.142   1.536  12.045
55157SOL     OW67244  14.113   2.046   8.877
55157SOL    HW167245  14.122   2.105   8.803
55157SOL    HW267246  14.198   2.051   8.922
55158SOL     OW67247   1.759  14.391  14.672
55158SOL    HW167248   1.724  14.472  14.709
55158SOL    HW267249   1.692  14.325  14.692
55159SOL     OW67250   6.861   9.200   9.879
55159SOL    HW167251   6.850   9.287   9.842
55159SOL    HW267252   6.778   9.181   9.923
55160SOL     OW67253  10.378  12.844   7.069
55160SOL    HW167254  10.436  12.849   6.993
55160SOL    HW267255  10.390  12.927   7.115
55161SOL     OW67256   3.715   5.508   5.295
55161SOL    HW167257   3.704   5.439   5.360
55161SOL    HW267258   3.685   5.588   5.340
55162SOL     OW67259  14.798  11.182  11.597
55162SOL    HW167260  14.776  11.169  11.505
55162SOL    HW267261   0.013  11.181  11.599
55163SOL     OW67262   2.353   3.271   1.722
55163SOL    HW167263   2.409   3.295   1.648
55163SOL    HW267264   2.408   3.284   1.799
55164SOL     OW67265   7.825   0.760  10.851
55164SOL    HW167266   7.818   0.780  10.758
55164SOL    HW267267   7.853   0.669  10.855
55165SOL     OW67268   7.523  11.387  14.488
55165SOL    HW167269   7.606  11.350  14.459
55165SOL    HW267270   7.464  11.312  14.494
55166SOL     OW67271  12.655  14.624  14.273
55166SOL    HW167272  12.633  14.714  14.251
55166SOL    HW267273  12.744  14.612  14.241
55167SOL     OW67274  10.353  11.529   1.490
55167SOL    HW167275  10.321  11.515   1.401
55167SOL    HW267276  10.384  11.619   1.491
55168SOL     OW67277   8.222  10.616  12.409
55168SOL    HW167278   8.172  10.534  12.407
55168SOL    HW267279   8.262  10.622  12.322
55169SOL     OW67280   8.802   5.822  11.086
55169SOL    HW167281   8.806   5.890  11.019
55169SOL    HW267282   8.717   5.835  11.127
55170SOL     OW67283   8.748   8.254   3.242
55170SOL    HW167284   8.677   8.319   3.234
55170SOL    HW267285   8.726   8.206   3.322
55171SOL     OW67286   2.578   1.787   4.432
55171SOL    HW167287   2.548   1.712   4.381
55171SOL    HW267288   2.591   1.753   4.521
55172SOL     OW67289   0.714   4.004   8.181
55172SOL    HW167290   0.690   4.082   8.231
55172SOL    HW267291   0.634   3.953   8.178
55173SOL     OW67292  11.594  11.579   7.400
55173SOL    HW167293  11.548  11.520   7.340
55173SOL    HW267294  11.533  11.652   7.412
55174SOL     OW67295  11.616  13.825   4.939
55174SOL    HW167296  11.566  13.906   4.937
55174SOL    HW267297  11.550  13.756   4.948
55175SOL     OW67298   3.502  11.193   4.884
55175SOL    HW167299   3.565  11.263   4.900
55175SOL    HW267300   3.527  11.157   4.799
55176SOL     OW67301   4.823  14.184   4.190
55176SOL    HW167302   4.892  14.188   4.257
55176SOL    HW267303   4.864  14.140   4.116
55177SOL     OW67304  13.279   6.326   1.438
55177SOL    HW167305  13.299   6.352   1.528
55177SOL    HW267306  13.194   6.282   1.444
55178SOL     OW67307  12.003  11.385   9.039
55178SOL    HW167308  11.944  11.335   8.982
55178SOL    HW267309  12.045  11.320   9.094
55179SOL     OW67310   9.385  12.123  14.115
55179SOL    HW167311   9.352  12.061  14.180
55179SOL    HW267312   9.470  12.087  14.088
55180SOL     OW67313   8.970   5.000   4.563
55180SOL    HW167314   9.048   4.984   4.616
55180SOL    HW267315   9.000   4.983   4.473
55181SOL     OW67316   0.163  12.250   5.159
55181SOL    HW167317   0.130  12.328   5.115
55181SOL    HW267318   0.104  12.238   5.233
55182SOL     OW67319  12.534   4.814   4.525
55182SOL    HW167320  12.509   4.892   4.475
55182SOL    HW267321  12.535   4.743   4.461
55183SOL     OW67322   2.915   8.215  11.027
55183SOL    HW167323   2.948   8.301  11.003
55183SOL    HW267324   2.965   8.154  10.973
55184SOL     OW67325   6.870   2.542   8.428
55184SOL    HW167326   6.918   2.523   8.508
55184SOL    HW267327   6.792   2.487   8.434
55185SOL     OW67328   8.508   8.710  13.824
55185SOL    HW167329   8.435   8.706  13.762
55185SOL    HW267330   8.511   8.801  13.851
55186SOL     OW67331   0.412   7.880  12.224
55186SOL    HW167332   0.458   7.844  12.148
55186SOL    HW267333   0.480   7.923  12.275
55187SOL     OW67334   8.668   7.092   9.261
55187SOL    HW167335   8.644   7.099   9.169
55187SOL    HW267336   8.620   7.015   9.292
55188SOL     OW67337  12.964   2.163   8.144
55188SOL    HW167338  12.932   2.097   8.082
55188SOL    HW267339  13.003   2.112   8.215
55189SOL     OW67340   7.996   4.025  13.782
55189SOL    HW167341   7.994   4.085  13.856
55189SOL    HW267342   7.938   3.953  13.809
55190SOL     OW67343   4.591   1.785  12.384
55190SOL    HW167344   4.587   1.692  12.361
55190SOL    HW267345   4.558   1.788  12.474
55191SOL     OW67346   5.298   3.182  10.685
55191SOL    HW167347   5.283   3.157  10.776
55191SOL    HW267348   5.213   3.214  10.655
55192SOL     OW67349   7.243   9.111   5.833
55192SOL    HW167350   7.221   9.165   5.909
55192SOL    HW267351   7.209   9.160   5.758
55193SOL     OW67352   6.937   1.317   7.657
55193SOL    HW167353   6.954   1.265   7.578
55193SOL    HW267354   6.986   1.398   7.644
55194SOL     OW67355  12.873   2.493  12.212
55194SOL    HW167356  12.813   2.441  12.159
55194SOL    HW267357  12.959   2.479  12.171
55195SOL     OW67358   9.202  14.779   3.484
55195SOL    HW167359   9.212  14.691   3.520
55195SOL    HW267360   9.195  14.836   3.560
55196SOL     OW67361   8.477   6.577   1.514
55196SOL    HW167362   8.405   6.514   1.506
55196SOL    HW267363   8.442   6.657   1.475
55197SOL     OW67364  13.987   5.899   8.411
55197SOL    HW167365  14.021   5.879   8.324
55197SOL    HW267366  14.065   5.907   8.466
55198SOL     OW67367  14.071  13.427   7.662
55198SOL    HW167368  14.146  13.473   7.700
55198SOL    HW267369  14.072  13.450   7.570
55199SOL     OW67370  10.829   2.635   4.914
55199SOL    HW167371  10.870   2.548   4.907
55199SOL    HW267372  10.865   2.672   4.994
55200SOL     OW67373   8.087  13.991  11.578
55200SOL    HW167374   8.035  13.979  11.658
55200SOL    HW267375   8.023  14.019  11.513
55201SOL     OW67376   0.388  10.576  12.038
55201SOL    HW167377   0.298  10.605  12.022
55201SOL    HW267378   0.433  10.592  11.955
55202SOL     OW67379   3.740   8.032  14.077
55202SOL    HW167380   3.733   8.025  13.982
55202SOL    HW267381   3.771   8.122  14.092
55203SOL     OW67382   8.923  11.014   5.437
55203SOL    HW167383   8.909  10.921   5.457
55203SOL    HW267384   9.002  11.015   5.383
55204SOL     OW67385   3.055  10.806   8.219
55204SOL    HW167386   3.040  10.719   8.254
55204SOL    HW267387   3.017  10.865   8.284
55205SOL     OW67388  12.118   5.707  14.027
55205SOL    HW167389  12.166   5.755  13.959
55205SOL    HW267390  12.072   5.775  14.076
55206SOL     OW67391  13.837  11.942   8.992
55206SOL    HW167392  13.794  11.860   8.969
55206SOL    HW267393  13.869  11.977   8.909
55207SOL     OW67394   4.156  13.705  11.026
55207SOL    HW167395   4.072  13.716  11.070
55207SOL    HW267396   4.168  13.610  11.022
55208SOL     OW67397   8.006   5.309   4.530
55208SOL    HW167398   8.060   5.231   4.541
55208SOL    HW267399   7.921   5.284   4.567
55209SOL     OW67400  14.391  12.408  10.347
55209SOL    HW167401  14.486  12.400  10.338
55209SOL    HW267402  14.356  12.362  10.271
55210SOL     OW67403   6.784  12.204  12.448
55210SOL    HW167404   6.787  12.233  12.539
55210SOL    HW267405   6.876  12.196  12.422
55211SOL     OW67406  14.262   0.451  14.120
55211SOL    HW167407  14.251   0.416  14.031
55211SOL    HW267408  14.351   0.486  14.120
55212SOL     OW67409   2.723   1.779   0.630
55212SOL    HW167410   2.715   1.818   0.543
55212SOL    HW267411   2.687   1.845   0.690
55213SOL     OW67412  13.447   9.500   7.565
55213SOL    HW167413  13.382   9.567   7.542
55213SOL    HW267414  13.497   9.539   7.637
55214SOL     OW67415   6.337   0.148  11.968
55214SOL    HW167416   6.252   0.125  11.932
55214SOL    HW267417   6.365   0.224  11.916
55215SOL     OW67418   7.598   0.085  10.343
55215SOL    HW167419   7.646   0.024  10.287
55215SOL    HW267420   7.507   0.056  10.337
55216SOL     OW67421   0.206  12.001  11.226
55216SOL    HW167422   0.156  12.083  11.227
55216SOL    HW267423   0.246  11.997  11.313
55217SOL     OW67424   7.760   1.911   4.270
55217SOL    HW167425   7.789   1.855   4.198
55217SOL    HW267426   7.720   1.987   4.228
55218SOL     OW67427   6.733  13.447  11.561
55218SOL    HW167428   6.778  13.528  11.538
55218SOL    HW267429   6.645  13.475  11.588
55219SOL     OW67430   0.952   6.777   8.169
55219SOL    HW167431   0.965   6.683   8.180
55219SOL    HW267432   1.039   6.815   8.179
55220SOL     OW67433   0.777   6.918  10.811
55220SOL    HW167434   0.834   6.978  10.762
55220SOL    HW267435   0.705   6.974  10.842
55221SOL     OW67436   0.297  12.097   7.874
55221SOL    HW167437   0.323  12.041   7.948
55221SOL    HW267438   0.380  12.126   7.836
55222SOL     OW67439  14.034  13.080  14.872
55222SOL    HW167440  14.055  13.167  14.839
55222SOL    HW267441  14.108  13.026  14.847
55223SOL     OW67442   8.092   0.009  12.519
55223SOL    HW167443   8.012  14.862  12.474
55223SOL    HW267444   8.134  14.809  12.546
55224SOL     OW67445   7.247   4.526   6.598
55224SOL    HW167446   7.194   4.558   6.671
55224SOL    HW267447   7.194   4.545   6.520
55225SOL     OW67448   1.763   4.238   8.886
55225SOL    HW167449   1.829   4.302   8.857
55225SOL    HW267450   1.754   4.179   8.812
55226SOL     OW67451   9.594   6.822  12.012
55226SOL    HW167452   9.581   6.867  11.928
55226SOL    HW267453   9.651   6.748  11.991
55227SOL     OW67454   3.763   9.041  12.666
55227SOL    HW167455   3.733   9.021  12.578
55227SOL    HW267456   3.853   9.071  12.655
55228SOL     OW67457   9.984   2.169  13.048
55228SOL    HW167458  10.046   2.242  13.047
55228SOL    HW267459   9.915   2.195  12.987
55229SOL     OW67460   2.418   4.587   3.562
55229SOL    HW167461   2.480   4.652   3.597
55229SOL    HW267462   2.469   4.506   3.557
55230SOL     OW67463   9.533   1.316   1.644
55230SOL    HW167464   9.454   1.262   1.647
55230SOL    HW267465   9.581   1.293   1.723
55231SOL     OW67466  12.800  10.958   4.355
55231SOL    HW167467  12.783  10.988   4.444
55231SOL    HW267468  12.735  11.003   4.302
55232SOL     OW67469  10.914   0.851  11.848
55232SOL    HW167470  10.892   0.941  11.825
55232SOL    HW267471  10.993   0.858  11.902
55233SOL     OW67472  10.113   1.920   0.674
55233SOL    HW167473  10.195   1.889   0.635
55233SOL    HW267474  10.051   1.848   0.661
55234SOL     OW67475   2.975   0.314   1.202
55234SOL    HW167476   3.058   0.292   1.160
55234SOL    HW267477   2.910   0.262   1.156
55235SOL     OW67478  10.687   1.131   8.697
55235SOL    HW167479  10.724   1.101   8.614
55235SOL    HW267480  10.711   1.064   8.760
55236SOL     OW67481  13.875  13.161   9.318
55236SOL    HW167482  13.918  13.240   9.285
55236SOL    HW267483  13.863  13.178   9.411
55237SOL     OW67484  14.683   2.064   5.050
55237SOL    HW167485  14.764   2.020   5.075
55237SOL    HW267486  14.639   2.084   5.133
55238SOL     OW67487   7.518   8.439   6.129
55238SOL    HW167488   7.531   8.450   6.035
55238SOL    HW267489   7.512   8.528   6.163
55239SOL     OW67490  12.562   9.432   4.836
55239SOL    HW167491  12.529   9.520   4.816
55239SOL    HW267492  12.488   9.375   4.818
55240SOL     OW67493  13.473   5.369   6.891
55240SOL    HW167494  13.455   5.278   6.917
55240SOL    HW267495  13.443   5.374   6.800
55241SOL     OW67496   7.607   0.040   9.996
55241SOL    HW167497   7.674   0.104  10.019
55241SOL    HW267498   7.596   0.050   9.901
55242SOL     OW67499   9.045  14.810  12.257
55242SOL    HW167500   9.128  14.762  12.260
55242SOL    HW267501   8.982  14.748  12.222
55243SOL     OW67502   4.773   9.725  11.736
55243SOL    HW167503   4.788   9.752  11.827
55243SOL    HW267504   4.799   9.801  11.684
55244SOL     OW67505   2.563  13.161  13.482
55244SOL    HW167506   2.584  13.101  13.553
55244SOL    HW267507   2.583  13.111  13.402
55245SOL     OW67508   2.746   1.685   6.052
55245SOL    HW167509   2.751   1.781   6.058
55245SOL    HW267510   2.796   1.654   6.127
55246SOL     OW67511   4.674   2.711   3.543
55246SOL    HW167512   4.582   2.730   3.523
55246SOL    HW267513   4.701   2.782   3.601
55247SOL     OW67514   9.659  12.678  13.229
55247SOL    HW167515   9.627  12.595  13.267
55247SOL    HW267516   9.609  12.688  13.148
55248SOL     OW67517   4.898   9.439   8.527
55248SOL    HW167518   4.970   9.438   8.590
55248SOL    HW267519   4.886   9.347   8.504
55249SOL     OW67520   1.905   1.766   4.503
55249SOL    HW167521   1.812   1.775   4.486
55249SOL    HW267522   1.909   1.715   4.584
55250SOL     OW67523  12.145   1.976   8.242
55250SOL    HW167524  12.103   1.934   8.166
55250SOL    HW267525  12.238   1.959   8.230
55251SOL     OW67526   0.017   5.730   6.285
55251SOL    HW167527   0.099   5.694   6.319
55251SOL    HW267528  14.835   5.717   6.356
55252SOL     OW67529  10.849  14.638   0.689
55252SOL    HW167530  10.935  14.596   0.682
55252SOL    HW267531  10.816  14.639   0.599
55253SOL     OW67532   0.229   4.932  13.874
55253SOL    HW167533   0.153   4.897  13.826
55253SOL    HW267534   0.295   4.862  13.867
55254SOL     OW67535   0.410   9.143   3.086
55254SOL    HW167536   0.493   9.163   3.129
55254SOL    HW267537   0.423   9.168   2.995
55255SOL     OW67538   7.160   1.099  11.231
55255SOL    HW167539   7.233   1.053  11.189
55255SOL    HW267540   7.140   1.172  11.172
55256SOL     OW67541   5.490   3.358   8.580
55256SOL    HW167542   5.503   3.267   8.553
55256SOL    HW267543   5.401   3.359   8.617
55257SOL     OW67544  11.771   0.632   1.945
55257SOL    HW167545  11.794   0.704   1.886
55257SOL    HW267546  11.821   0.649   2.025
55258SOL     OW67547  13.184   5.365  13.168
55258SOL    HW167548  13.216   5.398  13.252
55258SOL    HW267549  13.263   5.335  13.123
55259SOL     OW67550   4.172   7.969   8.960
55259SOL    HW167551   4.257   7.976   9.004
55259SOL    HW267552   4.171   7.881   8.923
55260SOL     OW67553   2.502  12.793   6.863
55260SOL    HW167554   2.479  12.765   6.774
55260SOL    HW267555   2.436  12.860   6.884
55261SOL     OW67556  10.253   3.336   5.234
55261SOL    HW167557  10.181   3.309   5.178
55261SOL    HW267558  10.212   3.350   5.320
55262SOL     OW67559  11.331   9.649  11.127
55262SOL    HW167560  11.335   9.677  11.219
55262SOL    HW267561  11.378   9.718  11.080
55263SOL     OW67562   3.533   7.968  13.477
55263SOL    HW167563   3.489   7.904  13.421
55263SOL    HW267564   3.538   8.047  13.424
55264SOL     OW67565  11.394   4.368  10.600
55264SOL    HW167566  11.307   4.408  10.606
55264SOL    HW267567  11.377   4.279  10.569
55265SOL     OW67568   8.163   1.292   6.342
55265SOL    HW167569   8.164   1.343   6.423
55265SOL    HW267570   8.158   1.358   6.272
55266SOL     OW67571   3.865  12.534   5.096
55266SOL    HW167572   3.935  12.585   5.056
55266SOL    HW267573   3.795  12.598   5.112
55267SOL     OW67574   0.893  11.326   2.429
55267SOL    HW167575   0.855  11.414   2.430
55267SOL    HW267576   0.923  11.311   2.519
55268SOL     OW67577  12.646   0.028  14.265
55268SOL    HW167578  12.741   0.024  14.257
55268SOL    HW267579  12.629   0.008  14.358
55269SOL     OW67580   1.189  14.781   8.913
55269SOL    HW167581   1.271  14.755   8.955
55269SOL    HW267582   1.133  14.703   8.919
55270SOL     OW67583   4.853  14.456  13.002
55270SOL    HW167584   4.938  14.455  13.045
55270SOL    HW267585   4.790  14.456  13.074
55271SOL     OW67586   7.462   2.812   2.885
55271SOL    HW167587   7.519   2.752   2.933
55271SOL    HW267588   7.417   2.861   2.954
55272SOL     OW67589   5.616   5.816  12.140
55272SOL    HW167590   5.666   5.740  12.167
55272SOL    HW267591   5.661   5.848  12.062
55273SOL     OW67592   4.221  13.598   1.092
55273SOL    HW167593   4.149  13.653   1.124
55273SOL    HW267594   4.278  13.587   1.168
55274SOL     OW67595   5.484  11.202  11.946
55274SOL    HW167596   5.459  11.145  11.873
55274SOL    HW267597   5.401  11.227  11.987
55275SOL     OW67598   8.807   7.779   2.040
55275SOL    HW167599   8.786   7.793   1.947
55275SOL    HW267600   8.749   7.839   2.087
55276SOL     OW67601  12.268   8.330   5.865
55276SOL    HW167602  12.182   8.301   5.896
55276SOL    HW267603  12.330   8.291   5.926
55277SOL     OW67604   4.092  10.452   8.549
55277SOL    HW167605   4.095  10.516   8.478
55277SOL    HW267606   4.086  10.505   8.629
55278SOL     OW67607   1.601  14.470   8.794
55278SOL    HW167608   1.599  14.415   8.716
55278SOL    HW267609   1.557  14.551   8.768
55279SOL     OW67610   2.829   3.213  11.969
55279SOL    HW167611   2.880   3.133  11.986
55279SOL    HW267612   2.893   3.274  11.934
55280SOL     OW67613  13.947  13.789   8.622
55280SOL    HW167614  13.921  13.772   8.713
55280SOL    HW267615  13.877  13.750   8.569
55281SOL     OW67616  13.579   9.660  12.987
55281SOL    HW167617  13.592   9.625  12.899
55281SOL    HW267618  13.656   9.715  13.003
55282SOL     OW67619   0.053   4.695  11.723
55282SOL    HW167620   0.098   4.771  11.687
55282SOL    HW267621  14.858   4.682  11.665
55283SOL     OW67622   4.353   6.094  11.663
55283SOL    HW167623   4.268   6.082  11.621
55283SOL    HW267624   4.414   6.108  11.591
55284SOL     OW67625  14.211  12.333  13.536
55284SOL    HW167626  14.213  12.428  13.551
55284SOL    HW267627  14.120  12.314  13.515
55285SOL     OW67628   3.408   9.248   5.224
55285SOL    HW167629   3.353   9.238   5.301
55285SOL    HW267630   3.495   9.270   5.258
55286SOL     OW67631   4.522  11.022  10.823
55286SOL    HW167632   4.507  11.097  10.880
55286SOL    HW267633   4.466  11.038  10.747
55287SOL     OW67634   7.127   4.875   9.015
55287SOL    HW167635   7.214   4.839   8.998
55287SOL    HW267636   7.080   4.804   9.060
55288SOL     OW67637   3.614   8.382   5.810
55288SOL    HW167638   3.622   8.477   5.819
55288SOL    HW267639   3.540   8.359   5.866
55289SOL     OW67640   6.499  12.175   3.067
55289SOL    HW167641   6.469  12.218   3.147
55289SOL    HW267642   6.586  12.212   3.052
55290SOL     OW67643   1.089   8.604   3.805
55290SOL    HW167644   1.178   8.593   3.772
55290SOL    HW267645   1.041   8.528   3.773
55291SOL     OW67646   5.832  10.369   2.963
55291SOL    HW167647   5.749  10.405   2.995
55291SOL    HW267648   5.883  10.446   2.937
55292SOL     OW67649   0.472   7.854   4.172
55292SOL    HW167650   0.412   7.806   4.229
55292SOL    HW267651   0.452   7.946   4.189
55293SOL     OW67652   3.049   8.012  14.590
55293SOL    HW167653   3.093   7.927  14.603
55293SOL    HW267654   3.113   8.076  14.621
55294SOL     OW67655  10.027   1.439   0.748
55294SOL    HW167656   9.997   1.445   0.839
55294SOL    HW267657  10.119   1.414   0.755
55295SOL     OW67658   1.219  13.249   2.662
55295SOL    HW167659   1.279  13.319   2.688
55295SOL    HW267660   1.201  13.202   2.744
55296SOL     OW67661  13.471   3.324   5.420
55296SOL    HW167662  13.552   3.350   5.463
55296SOL    HW267663  13.429   3.264   5.481
55297SOL     OW67664   8.188  12.865  13.074
55297SOL    HW167665   8.271  12.823  13.051
55297SOL    HW267666   8.132  12.851  12.997
55298SOL     OW67667   7.443   6.622   7.665
55298SOL    HW167668   7.374   6.680   7.634
55298SOL    HW267669   7.522   6.676   7.666
55299SOL     OW67670   5.160   1.398   3.172
55299SOL    HW167671   5.162   1.363   3.083
55299SOL    HW267672   5.251   1.417   3.193
55300SOL     OW67673   2.809  13.689   4.562
55300SOL    HW167674   2.806  13.784   4.572
55300SOL    HW267675   2.859  13.675   4.481
55301SOL     OW67676  11.617  11.273   3.272
55301SOL    HW167677  11.685  11.207   3.258
55301SOL    HW267678  11.535  11.224   3.273
55302SOL     OW67679   0.083  10.835   1.182
55302SOL    HW167680   0.131  10.763   1.224
55302SOL    HW267681   0.110  10.913   1.231
55303SOL     OW67682   0.925   8.873   4.223
55303SOL    HW167683   0.979   8.834   4.292
55303SOL    HW267684   0.941   8.819   4.146
55304SOL     OW67685   4.958   2.891   8.189
55304SOL    HW167686   4.937   2.799   8.209
55304SOL    HW267687   5.047   2.903   8.223
55305SOL     OW67688   4.934   9.167   8.421
55305SOL    HW167689   4.916   9.082   8.461
55305SOL    HW267690   4.959   9.146   8.331
55306SOL     OW67691   1.964   4.139   9.362
55306SOL    HW167692   2.013   4.173   9.287
55306SOL    HW267693   1.943   4.216   9.414
55307SOL     OW67694  10.239   1.804   2.631
55307SOL    HW167695  10.147   1.827   2.636
55307SOL    HW267696  10.257   1.801   2.537
55308SOL     OW67697   4.897   3.046  11.004
55308SOL    HW167698   4.849   3.119  10.964
55308SOL    HW267699   4.965   3.025  10.940
55309SOL     OW67700  10.369   9.190   9.826
55309SOL    HW167701  10.433   9.226   9.887
55309SOL    HW267702  10.326   9.266   9.788
55310SOL     OW67703   5.895  10.140  10.099
55310SOL    HW167704   5.804  10.111  10.100
55310SOL    HW267705   5.940  10.076  10.044
55311SOL     OW67706  14.135   2.762  13.844
55311SOL    HW167707  14.221   2.727  13.820
55311SOL    HW267708  14.146   2.792  13.934
55312SOL     OW67709   9.071  10.770   2.903
55312SOL    HW167710   9.099  10.680   2.919
55312SOL    HW267711   9.099  10.789   2.813
55313SOL     OW67712   0.334   9.185   0.273
55313SOL    HW167713   0.366   9.275   0.281
55313SOL    HW267714   0.394   9.133   0.327
55314SOL     OW67715   1.428  12.906   3.499
55314SOL    HW167716   1.502  12.847   3.514
55314SOL    HW267717   1.360  12.874   3.558
55315SOL     OW67718  13.186  13.891   3.836
55315SOL    HW167719  13.120  13.828   3.808
55315SOL    HW267720  13.176  13.966   3.777
55316SOL     OW67721   7.515   1.416   9.895
55316SOL    HW167722   7.423   1.398   9.880
55316SOL    HW267723   7.526   1.509   9.873
55317SOL     OW67724  11.143   9.433   0.864
55317SOL    HW167725  11.137   9.450   0.958
55317SOL    HW267726  11.207   9.497   0.832
55318SOL     OW67727   2.500   0.183   4.480
55318SOL    HW167728   2.494   0.265   4.530
55318SOL    HW267729   2.416   0.139   4.496
55319SOL     OW67730  10.199  12.454   5.767
55319SOL    HW167731  10.121  12.402   5.746
55319SOL    HW267732  10.166  12.527   5.820
55320SOL     OW67733  10.709  14.589   7.283
55320SOL    HW167734  10.779  14.640   7.324
55320SOL    HW267735  10.629  14.622   7.324
55321SOL     OW67736   5.162   3.730  11.253
55321SOL    HW167737   5.242   3.774  11.224
55321SOL    HW267738   5.095   3.798  11.251
55322SOL     OW67739   8.349  10.261   1.846
55322SOL    HW167740   8.270  10.314   1.835
55322SOL    HW267741   8.317  10.171   1.854
55323SOL     OW67742   7.508  12.840   1.616
55323SOL    HW167743   7.455  12.761   1.626
55323SOL    HW267744   7.460  12.893   1.552
55324SOL     OW67745   7.030   1.456   5.975
55324SOL    HW167746   7.076   1.386   5.929
55324SOL    HW267747   7.097   1.496   6.031
55325SOL     OW67748   3.560   5.940   1.325
55325SOL    HW167749   3.634   5.944   1.386
55325SOL    HW267750   3.530   5.849   1.330
55326SOL     OW67751  12.890   4.505   2.257
55326SOL    HW167752  12.832   4.499   2.333
55326SOL    HW267753  12.846   4.565   2.198
55327SOL     OW67754  10.166   7.716   8.954
55327SOL    HW167755  10.117   7.785   8.910
55327SOL    HW267756  10.254   7.751   8.965
55328SOL     OW67757   1.317   7.451   0.724
55328SOL    HW167758   1.269   7.491   0.652
55328SOL    HW267759   1.252   7.442   0.794
55329SOL     OW67760   8.344  12.558   3.624
55329SOL    HW167761   8.415  12.576   3.563
55329SOL    HW267762   8.348  12.464   3.640
55330SOL     OW67763  11.118   0.822  12.037
55330SOL    HW167764  11.132   0.910  12.072
55330SOL    HW267765  11.206   0.792  12.013
55331SOL     OW67766  14.360   2.867   4.578
55331SOL    HW167767  14.296   2.797   4.590
55331SOL    HW267768  14.359   2.885   4.484
55332SOL     OW67769   1.063   5.437  11.026
55332SOL    HW167770   1.057   5.358  10.972
55332SOL    HW267771   1.148   5.475  11.004
55333SOL     OW67772   1.994   4.358  11.468
55333SOL    HW167773   2.053   4.323  11.535
55333SOL    HW267774   1.907   4.347  11.504
55334SOL     OW67775   9.317   6.401   8.747
55334SOL    HW167776   9.366   6.483   8.750
55334SOL    HW267777   9.330   6.361   8.833
55335SOL     OW67778  14.712   7.688   9.185
55335SOL    HW167779  14.689   7.686   9.092
55335SOL    HW267780  14.773   7.615   9.197
55336SOL     OW67781  10.227   8.307  13.424
55336SOL    HW167782  10.164   8.272  13.487
55336SOL    HW267783  10.309   8.261  13.443
55337SOL     OW67784   7.131   9.062  10.988
55337SOL    HW167785   7.100   9.015  10.910
55337SOL    HW267786   7.051   9.091  11.032
55338SOL     OW67787   0.223  12.835  11.244
55338SOL    HW167788   0.270  12.912  11.275
55338SOL    HW267789   0.265  12.813  11.161
55339SOL     OW67790   5.796   0.386  11.679
55339SOL    HW167791   5.857   0.325  11.721
55339SOL    HW267792   5.808   0.468  11.726
55340SOL     OW67793  10.304   2.209  13.901
55340SOL    HW167794  10.314   2.227  13.808
55340SOL    HW267795  10.329   2.291  13.944
55341SOL     OW67796   1.990   9.190   0.679
55341SOL    HW167797   2.070   9.208   0.729
55341SOL    HW267798   2.007   9.226   0.592
55342SOL     OW67799  14.265   1.816   4.017
55342SOL    HW167800  14.289   1.905   4.041
55342SOL    HW267801  14.265   1.816   3.921
55343SOL     OW67802  10.423   8.273   8.107
55343SOL    HW167803  10.502   8.218   8.110
55343SOL    HW267804  10.360   8.221   8.058
55344SOL     OW67805   3.058   3.643   4.571
55344SOL    HW167806   3.121   3.581   4.609
55344SOL    HW267807   2.974   3.597   4.574
55345SOL     OW67808  14.532  13.482   5.950
55345SOL    HW167809  14.566  13.445   6.031
55345SOL    HW267810  14.595  13.550   5.926
55346SOL     OW67811   5.663   4.992   0.178
55346SOL    HW167812   5.580   4.958   0.210
55346SOL    HW267813   5.702   5.035   0.255
55347SOL     OW67814  11.691   9.175   2.886
55347SOL    HW167815  11.744   9.249   2.854
55347SOL    HW267816  11.698   9.180   2.981
55348SOL     OW67817   8.541   2.092   5.776
55348SOL    HW167818   8.607   2.115   5.711
55348SOL    HW267819   8.561   2.148   5.851
55349SOL     OW67820   5.725   2.267   6.811
55349SOL    HW167821   5.743   2.345   6.757
55349SOL    HW267822   5.630   2.257   6.807
55350SOL     OW67823   4.669   9.035   6.056
55350SOL    HW167824   4.606   9.077   6.115
55350SOL    HW267825   4.622   9.025   5.973
55351SOL     OW67826   0.005  11.710   7.205
55351SOL    HW167827  14.876  11.615   7.201
55351SOL    HW267828  14.864  11.740   7.116
55352SOL     OW67829   8.054  11.488   5.198
55352SOL    HW167830   8.008  11.408   5.223
55352SOL    HW267831   8.036  11.498   5.105
55353SOL     OW67832  12.086   7.864  14.228
55353SOL    HW167833  12.085   7.804  14.154
55353SOL    HW267834  12.080   7.951  14.189
55354SOL     OW67835  12.580   6.458  12.994
55354SOL    HW167836  12.576   6.421  13.082
55354SOL    HW267837  12.546   6.547  13.004
55355SOL     OW67838  14.182  11.119   5.848
55355SOL    HW167839  14.245  11.133   5.919
55355SOL    HW267840  14.097  11.117   5.891
55356SOL     OW67841   6.316  14.728   3.823
55356SOL    HW167842   6.352  14.669   3.890
55356SOL    HW267843   6.366  14.708   3.744
55357SOL     OW67844   5.218  11.358   3.391
55357SOL    HW167845   5.154  11.419   3.427
55357SOL    HW267846   5.270  11.331   3.467
55358SOL     OW67847  14.584  13.235   5.081
55358SOL    HW167848  14.539  13.268   5.159
55358SOL    HW267849  14.514  13.222   5.017
55359SOL     OW67850  11.918  12.707  13.360
55359SOL    HW167851  11.999  12.668  13.327
55359SOL    HW267852  11.935  12.801  13.360
55360SOL     OW67853   4.527   1.010   0.031
55360SOL    HW167854   4.454   1.053   0.076
55360SOL    HW267855   4.491   0.927   0.000
55361SOL     OW67856   6.636   8.502  11.772
55361SOL    HW167857   6.626   8.430  11.709
55361SOL    HW267858   6.546   8.532  11.788
55362SOL     OW67859   7.719   2.867   5.476
55362SOL    HW167860   7.639   2.831   5.514
55362SOL    HW267861   7.689   2.945   5.429
55363SOL     OW67862  14.054  11.583  14.644
55363SOL    HW167863  14.108  11.528  14.701
55363SOL    HW267864  14.108  11.598  14.567
55364SOL     OW67865   7.818  13.601   2.437
55364SOL    HW167866   7.881  13.576   2.505
55364SOL    HW267867   7.866  13.662   2.382
55365SOL     OW67868   9.527   7.377   5.777
55365SOL    HW167869   9.584   7.322   5.830
55365SOL    HW267870   9.577   7.393   5.697
55366SOL     OW67871  13.252   9.110   9.944
55366SOL    HW167872  13.215   9.066   9.868
55366SOL    HW267873  13.225   9.056  10.018
55367SOL     OW67874   4.398   8.835   6.995
55367SOL    HW167875   4.409   8.781   6.917
55367SOL    HW267876   4.456   8.910   6.980
55368SOL     OW67877   5.147   9.620   3.866
55368SOL    HW167878   5.132   9.660   3.952
55368SOL    HW267879   5.072   9.647   3.813
55369SOL     OW67880   9.814   3.950   1.725
55369SOL    HW167881   9.907   3.928   1.713
55369SOL    HW267882   9.770   3.865   1.726
55370SOL     OW67883   3.823   4.894   6.067
55370SOL    HW167884   3.805   4.981   6.032
55370SOL    HW267885   3.777   4.835   6.007
55371SOL     OW67886   1.227   0.142  13.271
55371SOL    HW167887   1.295   0.080  13.299
55371SOL    HW267888   1.175   0.092  13.208
55372SOL     OW67889   8.937  12.311   5.783
55372SOL    HW167890   8.946  12.370   5.858
55372SOL    HW267891   8.854  12.266   5.796
55373SOL     OW67892  14.056  12.773  12.991
55373SOL    HW167893  14.033  12.686  13.022
55373SOL    HW267894  14.151  12.779  13.001
55374SOL     OW67895   6.882   0.801   8.986
55374SOL    HW167896   6.944   0.736   9.019
55374SOL    HW267897   6.804   0.750   8.963
55375SOL     OW67898   5.033   0.931   3.430
55375SOL    HW167899   5.003   0.987   3.358
55375SOL    HW267900   5.128   0.927   3.420
55376SOL     OW67901   3.555   0.807  12.800
55376SOL    HW167902   3.606   0.850  12.732
55376SOL    HW267903   3.567   0.862  12.877
55377SOL     OW67904   7.082   7.522  11.887
55377SOL    HW167905   6.992   7.526  11.919
55377SOL    HW267906   7.109   7.431  11.900
55378SOL     OW67907   7.282   9.498   6.718
55378SOL    HW167908   7.224   9.571   6.741
55378SOL    HW267909   7.340   9.533   6.650
55379SOL     OW67910   0.691  14.488  13.641
55379SOL    HW167911   0.737  14.471  13.723
55379SOL    HW267912   0.752  14.458  13.573
55380SOL     OW67913   7.567   3.709   3.701
55380SOL    HW167914   7.527   3.731   3.785
55380SOL    HW267915   7.640   3.651   3.723
55381SOL     OW67916   3.430   5.202   0.109
55381SOL    HW167917   3.500   5.208   0.175
55381SOL    HW267918   3.356   5.249   0.148
55382SOL     OW67919   6.367   6.306   5.774
55382SOL    HW167920   6.337   6.333   5.861
55382SOL    HW267921   6.302   6.341   5.713
55383SOL     OW67922  11.631  13.343   0.082
55383SOL    HW167923  11.709  13.302   0.044
55383SOL    HW267924  11.583  13.270   0.121
55384SOL     OW67925   8.639  11.219  11.875
55384SOL    HW167926   8.557  11.269  11.883
55384SOL    HW267927   8.684  11.234  11.958
55385SOL     OW67928   1.782  14.550   7.258
55385SOL    HW167929   1.852  14.615   7.259
55385SOL    HW267930   1.777  14.521   7.167
55386SOL     OW67931   0.005  10.488   2.677
55386SOL    HW167932  14.795  10.516   2.670
55386SOL    HW267933   0.004  10.422   2.747
55387SOL     OW67934  13.464   4.856  10.028
55387SOL    HW167935  13.480   4.774   9.981
55387SOL    HW267936  13.429   4.916   9.962
55388SOL     OW67937  13.808  12.544   8.181
55388SOL    HW167938  13.770  12.631   8.187
55388SOL    HW267939  13.862  12.536   8.260
55389SOL     OW67940   1.497   1.551   4.373
55389SOL    HW167941   1.490   1.634   4.327
55389SOL    HW267942   1.576   1.560   4.427
55390SOL     OW67943  10.452   2.081   5.997
55390SOL    HW167944  10.465   1.987   6.010
55390SOL    HW267945  10.462   2.093   5.903
55391SOL     OW67946   5.934   0.318   7.806
55391SOL    HW167947   6.011   0.368   7.832
55391SOL    HW267948   5.939   0.236   7.856
55392SOL     OW67949  13.174   7.101  14.780
55392SOL    HW167950  13.252   7.146  14.812
55392SOL    HW267951  13.168   7.126  14.688
55393SOL     OW67952   7.933  13.964  11.853
55393SOL    HW167953   7.879  13.983  11.929
55393SOL    HW267954   8.019  13.941  11.891
55394SOL     OW67955  14.503  10.357   4.939
55394SOL    HW167956  14.415  10.374   4.972
55394SOL    HW267957  14.505  10.263   4.923
55395SOL     OW67958   9.254   2.719  13.551
55395SOL    HW167959   9.215   2.729  13.639
55395SOL    HW267960   9.198   2.771  13.494
55396SOL     OW67961   0.982   3.105  11.419
55396SOL    HW167962   0.962   3.063  11.335
55396SOL    HW267963   0.941   3.191  11.414
55397SOL     OW67964   9.812   6.270   1.437
55397SOL    HW167965   9.726   6.277   1.395
55397SOL    HW267966   9.830   6.359   1.470
55398SOL     OW67967  12.984  14.102  10.760
55398SOL    HW167968  13.029  14.097  10.675
55398SOL    HW267969  13.017  14.026  10.808
55399SOL     OW67970   0.348  10.814   3.461
55399SOL    HW167971   0.283  10.778   3.522
55399SOL    HW267972   0.353  10.906   3.484
55400SOL     OW67973   2.929  11.230   8.354
55400SOL    HW167974   2.996  11.270   8.297
55400SOL    HW267975   2.944  11.269   8.440
55401SOL     OW67976   0.855  10.786   4.112
55401SOL    HW167977   0.897  10.850   4.169
55401SOL    HW267978   0.854  10.705   4.163
55402SOL     OW67979   5.793  10.763   1.603
55402SOL    HW167980   5.737  10.690   1.576
55402SOL    HW267981   5.858  10.723   1.661
55403SOL     OW67982   5.043   4.188   5.726
55403SOL    HW167983   5.002   4.171   5.810
55403SOL    HW267984   5.009   4.273   5.699
55404SOL     OW67985   0.868   8.161   0.072
55404SOL    HW167986   0.939   8.219   0.043
55404SOL    HW267987   0.845   8.193   0.160
55405SOL     OW67988   3.715  10.663   7.561
55405SOL    HW167989   3.625  10.657   7.592
55405SOL    HW267990   3.708  10.690   7.470
55406SOL     OW67991   2.159   9.314   3.959
55406SOL    HW167992   2.084   9.308   4.018
55406SOL    HW267993   2.232   9.340   4.015
55407SOL     OW67994  10.325  14.691   8.425
55407SOL    HW167995  10.345  14.766   8.370
55407SOL    HW267996  10.409  14.664   8.461
55408SOL     OW67997   9.790   5.209  12.923
55408SOL    HW167998   9.817   5.128  12.966
55408SOL    HW267999   9.702   5.227  12.957
55409SOL     OW68000  10.326   2.871   4.829
55409SOL    HW168001  10.409   2.845   4.870
55409SOL    HW268002  10.260   2.817   4.871
55410SOL     OW68003   0.036   2.856   1.632
55410SOL    HW168004   0.117   2.854   1.582
55410SOL    HW268005   0.017   2.764   1.650
55411SOL     OW68006  11.555   9.915   7.720
55411SOL    HW168007  11.535   9.861   7.644
55411SOL    HW268008  11.631   9.873   7.761
55412SOL     OW68009   2.314   7.600   2.192
55412SOL    HW168010   2.324   7.643   2.107
55412SOL    HW268011   2.230   7.630   2.225
55413SOL     OW68012   3.459  10.759   2.770
55413SOL    HW168013   3.385  10.770   2.829
55413SOL    HW268014   3.420  10.733   2.687
55414SOL     OW68015   3.491  11.288   4.447
55414SOL    HW168016   3.544  11.360   4.412
55414SOL    HW268017   3.440  11.328   4.518
55415SOL     OW68018   4.727   9.302   1.801
55415SOL    HW168019   4.732   9.211   1.771
55415SOL    HW268020   4.739   9.354   1.722
55416SOL     OW68021  13.314  10.931   4.922
55416SOL    HW168022  13.243  10.991   4.899
55416SOL    HW268023  13.379  10.986   4.966
55417SOL     OW68024   2.663   3.631   3.144
55417SOL    HW168025   2.636   3.591   3.061
55417SOL    HW268026   2.593   3.694   3.164
55418SOL     OW68027   8.656  12.262   4.992
55418SOL    HW168028   8.701  12.340   5.025
55418SOL    HW268029   8.564  12.275   5.016
55419SOL     OW68030   6.178  11.392   9.275
55419SOL    HW168031   6.200  11.347   9.356
55419SOL    HW268032   6.163  11.322   9.211
55420SOL     OW68033  14.541   1.403   7.042
55420SOL    HW168034  14.576   1.492   7.050
55420SOL    HW268035  14.617   1.346   7.051
55421SOL     OW68036   7.459   0.612   7.743
55421SOL    HW168037   7.427   0.651   7.824
55421SOL    HW268038   7.554   0.617   7.749
55422SOL     OW68039   7.078   8.974   6.174
55422SOL    HW168040   7.074   8.972   6.270
55422SOL    HW268041   7.017   8.906   6.147
55423SOL     OW68042   7.460   2.896  13.421
55423SOL    HW168043   7.448   2.957  13.494
55423SOL    HW268044   7.471   2.811  13.463
55424SOL     OW68045   3.835   0.748  11.787
55424SOL    HW168046   3.749   0.705  11.784
55424SOL    HW268047   3.825   0.818  11.851
55425SOL     OW68048  10.027   7.783   6.442
55425SOL    HW168049  10.037   7.784   6.347
55425SOL    HW268050   9.941   7.822   6.458
55426SOL     OW68051  13.717  14.786   1.501
55426SOL    HW168052  13.732  14.881   1.497
55426SOL    HW268053  13.773  14.757   1.573
55427SOL     OW68054   6.242   5.688  13.548
55427SOL    HW168055   6.240   5.596  13.575
55427SOL    HW268056   6.322   5.722  13.590
55428SOL     OW68057   4.602   3.833   1.096
55428SOL    HW168058   4.696   3.848   1.087
55428SOL    HW268059   4.588   3.822   1.190
55429SOL     OW68060  12.880   9.805  12.352
55429SOL    HW168061  12.831   9.724  12.347
55429SOL    HW268062  12.963   9.781  12.394
55430SOL     OW68063   1.178   6.680   1.635
55430SOL    HW168064   1.203   6.735   1.560
55430SOL    HW268065   1.091   6.710   1.659
55431SOL     OW68066  11.782   5.774   3.419
55431SOL    HW168067  11.754   5.686   3.394
55431SOL    HW268068  11.772   5.776   3.514
55432SOL     OW68069   8.010   4.270  14.510
55432SOL    HW168070   8.018   4.209  14.437
55432SOL    HW268071   7.946   4.229  14.568
55433SOL     OW68072   4.175   4.796  12.357
55433SOL    HW168073   4.213   4.709  12.358
55433SOL    HW268074   4.218   4.841  12.285
55434SOL     OW68075   7.036   0.491  14.872
55434SOL    HW168076   7.048   0.561  14.808
55434SOL    HW268077   6.958   0.443  14.841
55435SOL     OW68078  12.697  13.018  13.051
55435SOL    HW168079  12.689  12.944  12.991
55435SOL    HW268080  12.627  13.078  13.025
55436SOL     OW68081   1.425   7.825   9.768
55436SOL    HW168082   1.441   7.825   9.863
55436SOL    HW268083   1.510   7.811   9.729
55437SOL     OW68084   7.772   2.002   4.604
55437SOL    HW168085   7.830   2.014   4.680
55437SOL    HW268086   7.830   1.973   4.534
55438SOL     OW68087   3.102   4.568  13.478
55438SOL    HW168088   3.185   4.596  13.439
55438SOL    HW268089   3.038   4.579  13.408
55439SOL     OW68090  11.794  14.396   6.035
55439SOL    HW168091  11.834  14.310   6.049
55439SOL    HW268092  11.701  14.378   6.024
55440SOL     OW68093  12.768   8.705   4.574
55440SOL    HW168094  12.706   8.757   4.626
55440SOL    HW268095  12.747   8.727   4.483
55441SOL     OW68096   0.527  13.851   9.810
55441SOL    HW168097   0.600  13.858   9.871
55441SOL    HW268098   0.449  13.859   9.864
55442SOL     OW68099   1.896  10.665  13.592
55442SOL    HW168100   1.941  10.646  13.509
55442SOL    HW268101   1.940  10.609  13.656
55443SOL     OW68102  11.774   4.977   6.714
55443SOL    HW168103  11.799   5.069   6.712
55443SOL    HW268104  11.700   4.974   6.775
55444SOL     OW68105   1.527   0.598   9.578
55444SOL    HW168106   1.620   0.598   9.557
55444SOL    HW268107   1.522   0.642   9.663
55445SOL     OW68108   2.370   0.592   1.389
55445SOL    HW168109   2.292   0.565   1.437
55445SOL    HW268110   2.373   0.533   1.313
55446SOL     OW68111  10.682   4.222   6.359
55446SOL    HW168112  10.628   4.301   6.371
55446SOL    HW268113  10.666   4.197   6.268
55447SOL     OW68114   5.513   7.148  10.625
55447SOL    HW168115   5.609   7.146  10.624
55447SOL    HW268116   5.490   7.119  10.713
55448SOL     OW68117   4.217   8.999   7.135
55448SOL    HW168118   4.286   8.942   7.103
55448SOL    HW268119   4.187   8.957   7.216
55449SOL     OW68120  11.295   6.723   6.259
55449SOL    HW168121  11.332   6.635   6.251
55449SOL    HW268122  11.341   6.775   6.193
55450SOL     OW68123   2.934  12.973  13.691
55450SOL    HW168124   2.926  13.068  13.684
55450SOL    HW268125   2.878  12.939  13.621
55451SOL     OW68126   8.056   6.313   8.924
55451SOL    HW168127   8.048   6.222   8.896
55451SOL    HW268128   7.989   6.359   8.873
55452SOL     OW68129   5.911  11.281   2.978
55452SOL    HW168130   5.878  11.321   2.898
55452SOL    HW268131   5.836  11.235   3.015
55453SOL     OW68132  13.525  13.618   1.984
55453SOL    HW168133  13.600  13.675   1.997
55453SOL    HW268134  13.455  13.676   1.956
55454SOL     OW68135  14.597  12.114   6.693
55454SOL    HW168136  14.578  12.039   6.637
55454SOL    HW268137  14.513  12.138   6.731
55455SOL     OW68138   0.902   0.586   2.974
55455SOL    HW168139   0.920   0.671   2.935
55455SOL    HW268140   0.982   0.564   3.022
55456SOL     OW68141   8.340  12.190   7.245
55456SOL    HW168142   8.408  12.241   7.200
55456SOL    HW268143   8.316  12.243   7.321
55457SOL     OW68144   4.982   8.389   5.858
55457SOL    HW168145   4.948   8.300   5.848
55457SOL    HW268146   4.903   8.443   5.862
55458SOL     OW68147  13.824   5.551   7.349
55458SOL    HW168148  13.734   5.569   7.322
55458SOL    HW268149  13.838   5.459   7.325
55459SOL     OW68150   5.534   4.295   9.685
55459SOL    HW168151   5.538   4.211   9.730
55459SOL    HW268152   5.464   4.285   9.621
55460SOL     OW68153  10.817   4.736  12.084
55460SOL    HW168154  10.871   4.796  12.031
55460SOL    HW268155  10.729   4.744  12.046
55461SOL     OW68156   7.334   5.957   9.225
55461SOL    HW168157   7.330   6.018   9.299
55461SOL    HW268158   7.243   5.944   9.200
55462SOL     OW68159  10.504   1.838  10.777
55462SOL    HW168160  10.467   1.875  10.696
55462SOL    HW268161  10.560   1.766  10.747
55463SOL     OW68162   0.170   6.819   0.375
55463SOL    HW168163   0.174   6.728   0.402
55463SOL    HW268164   0.192   6.818   0.282
55464SOL     OW68165   6.894   5.046   7.819
55464SOL    HW168166   6.921   5.072   7.731
55464SOL    HW268167   6.967   5.071   7.876
55465SOL     OW68168  13.463  12.485  12.367
55465SOL    HW168169  13.438  12.569  12.404
55465SOL    HW268170  13.540  12.458  12.418
55466SOL     OW68171   6.154   1.428  10.817
55466SOL    HW168172   6.172   1.399  10.906
55466SOL    HW268173   6.168   1.350  10.763
55467SOL     OW68174  13.730   1.582   1.350
55467SOL    HW168175  13.778   1.609   1.429
55467SOL    HW268176  13.695   1.496   1.371
55468SOL     OW68177  10.414  13.385   8.588
55468SOL    HW168178  10.407  13.306   8.642
55468SOL    HW268179  10.479  13.362   8.521
55469SOL     OW68180   4.178  12.704   6.579
55469SOL    HW168181   4.205  12.703   6.671
55469SOL    HW268182   4.194  12.614   6.548
55470SOL     OW68183  14.880  12.273   3.087
55470SOL    HW168184  14.853  12.365   3.082
55470SOL    HW268185  14.797  12.224   3.087
55471SOL     OW68186  11.321   7.912  11.756
55471SOL    HW168187  11.350   7.851  11.688
55471SOL    HW268188  11.334   7.865  11.838
55472SOL     OW68189   7.380  10.195  14.248
55472SOL    HW168190   7.456  10.252  14.259
55472SOL    HW268191   7.306  10.255  14.239
55473SOL     OW68192   4.089  11.896   4.929
55473SOL    HW168193   4.111  11.979   4.887
55473SOL    HW268194   3.999  11.878   4.900
55474SOL     OW68195   1.151   6.280  12.834
55474SOL    HW168196   1.163   6.220  12.761
55474SOL    HW268197   1.206   6.245  12.904
55475SOL     OW68198   0.249   0.072   6.350
55475SOL    HW168199   0.304   0.149   6.360
55475SOL    HW268200   0.166   0.106   6.316
55476SOL     OW68201   6.580   8.590   3.950
55476SOL    HW168202   6.651   8.527   3.965
55476SOL    HW268203   6.556   8.619   4.037
55477SOL     OW68204   2.315   8.017   7.119
55477SOL    HW168205   2.292   8.047   7.031
55477SOL    HW268206   2.240   7.964   7.146
55478SOL     OW68207   8.869   1.062   1.688
55478SOL    HW168208   8.891   1.033   1.600
55478SOL    HW268209   8.894   0.989   1.745
55479SOL     OW68210  10.347   1.625   8.838
55479SOL    HW168211  10.356   1.719   8.830
55479SOL    HW268212  10.335   1.594   8.748
55480SOL     OW68213   0.801   4.798  13.776
55480SOL    HW168214   0.892   4.812  13.747
55480SOL    HW268215   0.760   4.884  13.769
55481SOL     OW68216  11.944   7.729   7.570
55481SOL    HW168217  11.866   7.774   7.538
55481SOL    HW268218  11.969   7.670   7.499
55482SOL     OW68219  13.011   0.937   9.849
55482SOL    HW168220  12.981   0.851   9.822
55482SOL    HW268221  13.053   0.974   9.772
55483SOL     OW68222   3.769  13.764  10.507
55483SOL    HW168223   3.838  13.813  10.551
55483SOL    HW268224   3.809  13.679  10.488
55484SOL     OW68225  13.867   4.974   7.324
55484SOL    HW168226  13.891   4.924   7.403
55484SOL    HW268227  13.924   4.939   7.256
55485SOL     OW68228   7.258   4.910   7.858
55485SOL    HW168229   7.310   4.867   7.926
55485SOL    HW268230   7.185   4.950   7.905
55486SOL     OW68231   7.055   2.291  13.577
55486SOL    HW168232   6.961   2.270  13.581
55486SOL    HW268233   7.085   2.280  13.667
55487SOL     OW68234  11.118  11.935   8.745
55487SOL    HW168235  11.105  11.842   8.724
55487SOL    HW268236  11.104  11.980   8.663
55488SOL     OW68237  14.496   9.506   9.597
55488SOL    HW168238  14.471   9.464   9.679
55488SOL    HW268239  14.418   9.553   9.569
55489SOL     OW68240   5.026   4.341   9.635
55489SOL    HW168241   5.066   4.391   9.564
55489SOL    HW268242   4.940   4.317   9.601
55490SOL     OW68243   1.171   7.654  12.191
55490SOL    HW168244   1.190   7.560  12.196
55490SOL    HW268245   1.254   7.694  12.167
55491SOL     OW68246   9.736  11.646   4.451
55491SOL    HW168247   9.799  11.594   4.500
55491SOL    HW268248   9.653  11.633   4.496
55492SOL     OW68249  10.966   4.944   8.075
55492SOL    HW168250  10.984   4.959   7.982
55492SOL    HW268251  10.998   4.855   8.091
55493SOL     OW68252   1.299   4.263  13.759
55493SOL    HW168253   1.298   4.248  13.664
55493SOL    HW268254   1.216   4.227  13.790
55494SOL     OW68255   6.811  11.613   8.629
55494SOL    HW168256   6.767  11.632   8.711
55494SOL    HW268257   6.743  11.623   8.562
55495SOL     OW68258   6.219   4.733   8.223
55495SOL    HW168259   6.200   4.743   8.130
55495SOL    HW268260   6.228   4.823   8.255
55496SOL     OW68261  11.287   6.190   5.514
55496SOL    HW168262  11.307   6.196   5.420
55496SOL    HW268263  11.332   6.112   5.544
55497SOL     OW68264   5.476  14.430   7.062
55497SOL    HW168265   5.506  14.519   7.079
55497SOL    HW268266   5.388  14.441   7.026
55498SOL     OW68267   1.978   9.847  10.526
55498SOL    HW168268   1.987   9.892  10.610
55498SOL    HW268269   1.934   9.765  10.547
55499SOL     OW68270  11.652   3.335   6.867
55499SOL    HW168271  11.704   3.377   6.935
55499SOL    HW268272  11.596   3.405   6.833
55500SOL     OW68273  11.112  14.089   9.695
55500SOL    HW168274  11.027  14.103   9.653
55500SOL    HW268275  11.174  14.084   9.623
55501SOL     OW68276  11.730   8.680   7.322
55501SOL    HW168277  11.706   8.729   7.401
55501SOL    HW268278  11.824   8.667   7.329
55502SOL     OW68279   6.350  10.056   6.697
55502SOL    HW168280   6.422  10.014   6.744
55502SOL    HW268281   6.390  10.093   6.619
55503SOL     OW68282   0.370  12.223   8.282
55503SOL    HW168283   0.322  12.304   8.296
55503SOL    HW268284   0.462  12.248   8.294
55504SOL     OW68285   7.543   5.622   2.645
55504SOL    HW168286   7.449   5.630   2.663
55504SOL    HW268287   7.577   5.711   2.654
55505SOL     OW68288   6.265  13.359   4.968
55505SOL    HW168289   6.269  13.451   4.995
55505SOL    HW268290   6.232  13.312   5.044
55506SOL     OW68291  10.390  13.317  13.319
55506SOL    HW168292  10.403  13.411  13.308
55506SOL    HW268293  10.463  13.289  13.374
55507SOL     OW68294  12.104  10.994   3.906
55507SOL    HW168295  12.119  11.089   3.907
55507SOL    HW268296  12.191  10.956   3.895
55508SOL     OW68297   9.625   9.577  12.121
55508SOL    HW168298   9.549   9.607  12.070
55508SOL    HW268299   9.593   9.573  12.211
55509SOL     OW68300  13.766   7.211   0.699
55509SOL    HW168301  13.741   7.225   0.607
55509SOL    HW268302  13.685   7.181   0.741
55510SOL     OW68303   3.822   1.357   4.785
55510SOL    HW168304   3.810   1.306   4.705
55510SOL    HW268305   3.759   1.322   4.847
55511SOL     OW68306   4.840  11.534   0.698
55511SOL    HW168307   4.849  11.502   0.787
55511SOL    HW268308   4.780  11.472   0.656
55512SOL     OW68309   3.431   1.684   5.559
55512SOL    HW168310   3.488   1.619   5.517
55512SOL    HW268311   3.385   1.726   5.487
55513SOL     OW68312  10.380  11.259  12.810
55513SOL    HW168313  10.449  11.196  12.790
55513SOL    HW268314  10.409  11.302  12.890
55514SOL     OW68315   4.487  11.749   8.189
55514SOL    HW168316   4.464  11.838   8.164
55514SOL    HW268317   4.573  11.734   8.149
55515SOL     OW68318   2.405  12.027   6.190
55515SOL    HW168319   2.454  12.107   6.167
55515SOL    HW268320   2.349  12.011   6.115
55516SOL     OW68321   1.154   1.801   6.382
55516SOL    HW168322   1.078   1.820   6.436
55516SOL    HW268323   1.141   1.711   6.352
55517SOL     OW68324   1.684   8.238   7.948
55517SOL    HW168325   1.602   8.244   7.898
55517SOL    HW268326   1.670   8.165   8.008
55518SOL     OW68327   2.246   6.104  13.491
55518SOL    HW168328   2.208   6.061  13.414
55518SOL    HW268329   2.179   6.095  13.559
55519SOL     OW68330   3.837   0.430  12.458
55519SOL    HW168331   3.872   0.400  12.542
55519SOL    HW268332   3.895   0.501  12.432
55520SOL     OW68333  10.083   4.750  13.268
55520SOL    HW168334  10.120   4.720  13.351
55520SOL    HW268335  10.154   4.741  13.205
55521SOL     OW68336   6.845   6.230   3.448
55521SOL    HW168337   6.912   6.165   3.425
55521SOL    HW268338   6.894   6.302   3.487
55522SOL     OW68339   6.702   8.247   1.209
55522SOL    HW168340   6.639   8.309   1.171
55522SOL    HW268341   6.653   8.202   1.278
55523SOL     OW68342  13.948   1.877   3.493
55523SOL    HW168343  13.975   1.967   3.475
55523SOL    HW268344  13.871   1.885   3.549
55524SOL     OW68345   3.023   0.698   6.073
55524SOL    HW168346   3.020   0.793   6.066
55524SOL    HW268347   3.033   0.668   5.982
55525SOL     OW68348   6.120   0.541   9.975
55525SOL    HW168349   6.053   0.565  10.039
55525SOL    HW268350   6.186   0.609   9.983
55526SOL     OW68351   6.652   1.368  13.141
55526SOL    HW168352   6.706   1.303  13.186
55526SOL    HW268353   6.715   1.429  13.103
55527SOL     OW68354   2.231  13.399  10.094
55527SOL    HW168355   2.287  13.325  10.071
55527SOL    HW268356   2.190  13.425  10.012
55528SOL     OW68357   3.008  13.344   7.172
55528SOL    HW168358   3.086  13.296   7.143
55528SOL    HW268359   3.042  13.423   7.213
55529SOL     OW68360   2.930   6.669  10.684
55529SOL    HW168361   2.849   6.624  10.659
55529SOL    HW268362   2.901   6.753  10.718
55530SOL     OW68363   4.822   8.828  13.009
55530SOL    HW168364   4.914   8.806  13.028
55530SOL    HW268365   4.807   8.910  13.056
55531SOL     OW68366  13.475  12.854   8.103
55531SOL    HW168367  13.556  12.839   8.054
55531SOL    HW268368  13.493  12.821   8.191
55532SOL     OW68369   6.623   0.036   0.286
55532SOL    HW168370   6.599   0.090   0.362
55532SOL    HW268371   6.712   0.063   0.264
55533SOL     OW68372  13.372  10.848   5.653
55533SOL    HW168373  13.310  10.836   5.582
55533SOL    HW268374  13.390  10.759   5.684
55534SOL     OW68375   4.563   9.107   2.114
55534SOL    HW168376   4.596   9.092   2.025
55534SOL    HW268377   4.487   9.049   2.122
55535SOL     OW68378   5.007  10.700   1.952
55535SOL    HW168379   4.942  10.705   1.882
55535SOL    HW268380   5.090  10.718   1.909
55536SOL     OW68381   2.819   4.636  11.439
55536SOL    HW168382   2.778   4.579  11.504
55536SOL    HW268383   2.909   4.604  11.432
55537SOL     OW68384  14.713   8.645   1.310
55537SOL    HW168385  14.659   8.698   1.252
55537SOL    HW268386  14.800   8.684   1.304
55538SOL     OW68387   4.696   1.585  11.959
55538SOL    HW168388   4.633   1.657  11.961
55538SOL    HW268389   4.747   1.599  11.879
55539SOL     OW68390   4.810  13.339   4.785
55539SOL    HW168391   4.870  13.306   4.718
55539SOL    HW268392   4.801  13.266   4.847
55540SOL     OW68393   4.748   4.951   3.531
55540SOL    HW168394   4.666   4.962   3.482
55540SOL    HW268395   4.799   5.029   3.510
55541SOL     OW68396   9.406   8.198  10.294
55541SOL    HW168397   9.323   8.240  10.318
55541SOL    HW268398   9.380   8.118  10.249
55542SOL     OW68399  13.543   9.624  13.309
55542SOL    HW168400  13.479   9.555  13.295
55542SOL    HW268401  13.601   9.619  13.234
55543SOL     OW68402  10.559  13.616   3.485
55543SOL    HW168403  10.526  13.700   3.518
55543SOL    HW268404  10.595  13.572   3.562
55544SOL     OW68405   6.185   7.213   6.431
55544SOL    HW168406   6.246   7.238   6.361
55544SOL    HW268407   6.239   7.162   6.492
55545SOL     OW68408   4.842   0.094   3.863
55545SOL    HW168409   4.853   0.104   3.769
55545SOL    HW268410   4.927   0.119   3.900
55546SOL     OW68411  13.620   0.827   6.681
55546SOL    HW168412  13.610   0.905   6.735
55546SOL    HW268413  13.591   0.755   6.736
55547SOL     OW68414  12.915   1.269   3.378
55547SOL    HW168415  12.858   1.227   3.443
55547SOL    HW268416  12.855   1.297   3.308
55548SOL     OW68417  13.231   4.763   5.315
55548SOL    HW168418  13.325   4.775   5.300
55548SOL    HW268419  13.191   4.843   5.282
55549SOL     OW68420   6.839   0.920   0.198
55549SOL    HW168421   6.753   0.879   0.212
55549SOL    HW268422   6.858   0.904   0.105
55550SOL     OW68423   8.244   4.100   0.001
55550SOL    HW168424   8.232   4.130   0.091
55550SOL    HW268425   8.232   4.179  14.829
55551SOL     OW68426  10.433  11.381  10.886
55551SOL    HW168427  10.387  11.330  10.953
55551SOL    HW268428  10.524  11.350  10.891
55552SOL     OW68429   4.037   4.779  14.665
55552SOL    HW168430   4.068   4.869  14.653
55552SOL    HW268431   3.983   4.782  14.744
55553SOL     OW68432   5.013   3.666   0.403
55553SOL    HW168433   4.989   3.584   0.447
55553SOL    HW268434   5.077   3.640   0.338
55554SOL     OW68435   3.560   7.497   5.915
55554SOL    HW168436   3.533   7.414   5.875
55554SOL    HW268437   3.539   7.486   6.008
55555SOL     OW68438  13.341   5.885   4.558
55555SOL    HW168439  13.365   5.798   4.528
55555SOL    HW268440  13.420   5.938   4.547
55556SOL     OW68441  13.126  11.114   1.797
55556SOL    HW168442  13.198  11.175   1.815
55556SOL    HW268443  13.102  11.079   1.883
55557SOL     OW68444   4.027   9.790  14.336
55557SOL    HW168445   4.116   9.826  14.338
55557SOL    HW268446   4.029   9.718  14.398
55558SOL     OW68447   0.675  11.928   5.058
55558SOL    HW168448   0.726  11.948   5.137
55558SOL    HW268449   0.601  11.988   5.062
55559SOL     OW68450   5.824  14.112  12.009
55559SOL    HW168451   5.734  14.118  12.041
55559SOL    HW268452   5.816  14.079  11.919
55560SOL     OW68453   6.711   0.112   4.743
55560SOL    HW168454   6.667   0.150   4.667
55560SOL    HW268455   6.648   0.049   4.778
55561SOL     OW68456   9.150   6.383  14.146
55561SOL    HW168457   9.086   6.316  14.166
55561SOL    HW268458   9.100   6.454  14.106
55562SOL     OW68459   0.250  11.965   6.216
55562SOL    HW168460   0.340  11.996   6.215
55562SOL    HW268461   0.256  11.875   6.248
55563SOL     OW68462   4.397   9.444   4.942
55563SOL    HW168463   4.391   9.534   4.910
55563SOL    HW268464   4.308   9.423   4.971
55564SOL     OW68465   5.828  13.411   6.119
55564SOL    HW168466   5.847  13.501   6.148
55564SOL    HW268467   5.910  13.364   6.130
55565SOL     OW68468  10.832   2.922   7.785
55565SOL    HW168469  10.761   2.972   7.743
55565SOL    HW268470  10.794   2.836   7.800
55566SOL     OW68471   3.040  13.355   6.808
55566SOL    HW168472   2.946  13.341   6.798
55566SOL    HW268473   3.049  13.450   6.816
55567SOL     OW68474   8.295   6.940   1.874
55567SOL    HW168475   8.276   6.978   1.789
55567SOL    HW268476   8.293   6.845   1.859
55568SOL     OW68477   2.948  12.778   4.961
55568SOL    HW168478   3.041  12.785   4.944
55568SOL    HW268479   2.925  12.690   4.931
55569SOL     OW68480   1.272  14.473   4.336
55569SOL    HW168481   1.194  14.500   4.385
55569SOL    HW268482   1.343  14.477   4.400
55570SOL     OW68483   5.888  11.391   0.004
55570SOL    HW168484   5.898  11.472  14.835
55570SOL    HW268485   5.977  11.371   0.034
55571SOL     OW68486   5.826  10.839  10.199
55571SOL    HW168487   5.913  10.861  10.166
55571SOL    HW268488   5.838  10.756  10.246
55572SOL     OW68489   9.693  10.837   6.162
55572SOL    HW168490   9.651  10.882   6.235
55572SOL    HW268491   9.787  10.845   6.178
55573SOL     OW68492  14.426   2.490   9.574
55573SOL    HW168493  14.350   2.433   9.592
55573SOL    HW268494  14.477   2.488   9.655
55574SOL     OW68495   6.948   7.084   4.234
55574SOL    HW168496   6.945   7.130   4.150
55574SOL    HW268497   7.038   7.096   4.265
55575SOL     OW68498  12.583   2.180  11.417
55575SOL    HW168499  12.615   2.264  11.451
55575SOL    HW268500  12.591   2.187  11.322
55576SOL     OW68501   7.658   1.378   5.810
55576SOL    HW168502   7.693   1.411   5.727
55576SOL    HW268503   7.735   1.346   5.857
55577SOL     OW68504   1.355   9.002  13.587
55577SOL    HW168505   1.343   8.909  13.569
55577SOL    HW268506   1.439   9.006  13.633
55578SOL     OW68507   2.535   9.232   9.758
55578SOL    HW168508   2.568   9.316   9.726
55578SOL    HW268509   2.570   9.224   9.846
55579SOL     OW68510   3.434  14.717  13.021
55579SOL    HW168511   3.458  14.656  12.951
55579SOL    HW268512   3.395  14.792  12.975
55580SOL     OW68513  13.239  13.137   5.752
55580SOL    HW168514  13.173  13.067   5.758
55580SOL    HW268515  13.323  13.090   5.750
55581SOL     OW68516   5.286   4.852  11.083
55581SOL    HW168517   5.291   4.931  11.138
55581SOL    HW268518   5.234   4.791  11.134
55582SOL     OW68519  12.300  11.164   2.688
55582SOL    HW168520  12.350  11.083   2.684
55582SOL    HW268521  12.241  11.153   2.763
55583SOL     OW68522   5.851   8.414   8.315
55583SOL    HW168523   5.904   8.430   8.393
55583SOL    HW268524   5.875   8.325   8.288
55584SOL     OW68525   3.504  11.008   6.035
55584SOL    HW168526   3.457  11.023   5.953
55584SOL    HW268527   3.464  10.930   6.072
55585SOL     OW68528   6.507  14.728  11.186
55585SOL    HW168529   6.430  14.781  11.206
55585SOL    HW268530   6.515  14.731  11.091
55586SOL     OW68531   8.809  10.172   4.174
55586SOL    HW168532   8.834  10.095   4.225
55586SOL    HW268533   8.887  10.226   4.172
55587SOL     OW68534  14.698   7.294  10.300
55587SOL    HW168535  14.758   7.363  10.271
55587SOL    HW268536  14.747   7.246  10.366
55588SOL     OW68537   2.453   3.718  12.039
55588SOL    HW168538   2.493   3.631  12.031
55588SOL    HW268539   2.425   3.723  12.130
55589SOL     OW68540   9.713  13.880  11.885
55589SOL    HW168541   9.636  13.911  11.836
55589SOL    HW268542   9.683  13.873  11.975
55590SOL     OW68543   6.121   6.570   5.149
55590SOL    HW168544   6.210   6.577   5.114
55590SOL    HW268545   6.084   6.494   5.104
55591SOL     OW68546  12.979   0.730   5.498
55591SOL    HW168547  12.984   0.637   5.517
55591SOL    HW268548  13.067   0.752   5.466
55592SOL     OW68549  13.342  10.738   5.288
55592SOL    HW168550  13.422  10.773   5.327
55592SOL    HW268551  13.342  10.646   5.311
55593SOL     OW68552   0.905   6.225   2.191
55593SOL    HW168553   0.932   6.152   2.135
55593SOL    HW268554   0.981   6.242   2.247
55594SOL     OW68555   1.404  12.757  10.921
55594SOL    HW168556   1.367  12.674  10.892
55594SOL    HW268557   1.481  12.770  10.866
55595SOL     OW68558  10.251   4.375  13.995
55595SOL    HW168559  10.297   4.413  14.070
55595SOL    HW268560  10.181   4.322  14.035
55596SOL     OW68561  14.732  10.938   5.992
55596SOL    HW168562  14.798  11.006   6.005
55596SOL    HW268563  14.778  10.867   5.947
55597SOL     OW68564  11.322  14.486   9.353
55597SOL    HW168565  11.268  14.507   9.276
55597SOL    HW268566  11.281  14.534   9.425
55598SOL     OW68567  11.280  12.972   1.644
55598SOL    HW168568  11.346  12.916   1.686
55598SOL    HW268569  11.325  13.055   1.629
55599SOL     OW68570   0.234  11.215  14.741
55599SOL    HW168571   0.141  11.211  14.764
55599SOL    HW268572   0.256  11.126  14.714
55600SOL     OW68573   5.550  10.754   0.028
55600SOL    HW168574   5.496  10.807   0.087
55600SOL    HW268575   5.510  10.768  14.823
55601SOL     OW68576   5.101   3.334   4.992
55601SOL    HW168577   5.089   3.239   4.993
55601SOL    HW268578   5.014   3.369   5.006
55602SOL     OW68579   6.470   7.903  13.821
55602SOL    HW168580   6.518   7.913  13.739
55602SOL    HW268581   6.437   7.813  13.819
55603SOL     OW68582   9.775  12.971  14.540
55603SOL    HW168583   9.801  12.894  14.590
55603SOL    HW268584   9.825  13.043  14.580
55604SOL     OW68585   7.266  10.000   1.823
55604SOL    HW168586   7.188  10.007   1.878
55604SOL    HW268587   7.330   9.955   1.877
55605SOL     OW68588   5.305   5.918   3.734
55605SOL    HW168589   5.246   5.983   3.696
55605SOL    HW268590   5.364   5.895   3.663
55606SOL     OW68591   3.584   4.884  14.115
55606SOL    HW168592   3.511   4.823  14.124
55606SOL    HW268593   3.582   4.935  14.197
55607SOL     OW68594   8.421   9.473   5.498
55607SOL    HW168595   8.410   9.417   5.574
55607SOL    HW268596   8.430   9.561   5.535
55608SOL     OW68597   6.519   3.860  12.853
55608SOL    HW168598   6.489   3.849  12.763
55608SOL    HW268599   6.551   3.773  12.878
55609SOL     OW68600   7.495  11.972  10.115
55609SOL    HW168601   7.515  11.903  10.052
55609SOL    HW268602   7.577  12.021  10.123
55610SOL     OW68603   5.822  12.413   3.555
55610SOL    HW168604   5.787  12.348   3.494
55610SOL    HW268605   5.759  12.485   3.553
55611SOL     OW68606  12.254   1.932   3.558
55611SOL    HW168607  12.332   1.959   3.608
55611SOL    HW268608  12.190   2.001   3.575
55612SOL     OW68609   6.522  14.032   3.431
55612SOL    HW168610   6.440  14.080   3.428
55612SOL    HW268611   6.499  13.942   3.409
55613SOL     OW68612   8.096   5.202   3.289
55613SOL    HW168613   8.120   5.167   3.374
55613SOL    HW268614   8.001   5.189   3.283
55614SOL     OW68615   5.728   5.734  11.462
55614SOL    HW168616   5.660   5.740  11.396
55614SOL    HW268617   5.731   5.641  11.486
55615SOL     OW68618  12.303   6.281  13.889
55615SOL    HW168619  12.254   6.245  13.815
55615SOL    HW268620  12.391   6.247  13.878
55616SOL     OW68621   6.485  10.372   0.886
55616SOL    HW168622   6.527  10.457   0.901
55616SOL    HW268623   6.400  10.380   0.929
55617SOL     OW68624  11.857   7.898   1.120
55617SOL    HW168625  11.787   7.947   1.077
55617SOL    HW268626  11.919   7.877   1.050
55618SOL     OW68627   9.598  13.411  10.236
55618SOL    HW168628   9.671  13.438  10.181
55618SOL    HW268629   9.617  13.320  10.259
55619SOL     OW68630   3.823   7.713  13.242
55619SOL    HW168631   3.736   7.683  13.217
55619SOL    HW268632   3.858   7.756  13.164
55620SOL     OW68633   4.022   5.945   3.840
55620SOL    HW168634   4.022   5.872   3.901
55620SOL    HW268635   3.934   5.945   3.803
55621SOL     OW68636   2.307   5.323  13.731
55621SOL    HW168637   2.330   5.231  13.732
55621SOL    HW268638   2.323   5.352  13.641
55622SOL     OW68639   5.199  13.372   9.808
55622SOL    HW168640   5.218  13.426   9.885
55622SOL    HW268641   5.266  13.304   9.808
55623SOL     OW68642   4.569   6.824   9.035
55623SOL    HW168643   4.522   6.745   9.063
55623SOL    HW268644   4.611   6.857   9.114
55624SOL     OW68645  14.155   9.918   5.635
55624SOL    HW168646  14.197  10.004   5.643
55624SOL    HW268647  14.062   9.937   5.630
55625SOL     OW68648  14.025  12.274   3.566
55625SOL    HW168649  13.942  12.321   3.578
55625SOL    HW268650  14.015  12.195   3.619
55626SOL     OW68651   2.994  12.823  11.309
55626SOL    HW168652   3.049  12.748  11.286
55626SOL    HW268653   2.975  12.810  11.402
55627SOL     OW68654   3.388   1.326   1.504
55627SOL    HW168655   3.441   1.250   1.529
55627SOL    HW268656   3.422   1.397   1.559
55628SOL     OW68657   2.328  14.341  12.303
55628SOL    HW168658   2.354  14.425  12.341
55628SOL    HW268659   2.281  14.296  12.373
55629SOL     OW68660   6.225   1.560   6.683
55629SOL    HW168661   6.313   1.594   6.667
55629SOL    HW268662   6.228   1.525   6.772
55630SOL     OW68663   0.191   9.008   4.296
55630SOL    HW168664   0.243   9.061   4.357
55630SOL    HW268665   0.250   8.993   4.222
55631SOL     OW68666   4.996   5.758  14.313
55631SOL    HW168667   5.033   5.687  14.261
55631SOL    HW268668   4.995   5.833  14.253
55632SOL     OW68669   7.971   2.526  14.002
55632SOL    HW168670   7.952   2.532  13.908
55632SOL    HW268671   8.005   2.438  14.014
55633SOL     OW68672   5.841   0.673   2.343
55633SOL    HW168673   5.806   0.589   2.374
55633SOL    HW268674   5.862   0.656   2.251
55634SOL     OW68675  10.434   8.672  12.520
55634SOL    HW168676  10.381   8.712  12.590
55634SOL    HW268677  10.403   8.582  12.515
55635SOL     OW68678  12.795   4.906   8.316
55635SOL    HW168679  12.812   4.913   8.410
55635SOL    HW268680  12.834   4.823   8.291
55636SOL     OW68681   6.292  11.844   4.088
55636SOL    HW168682   6.378  11.856   4.128
55636SOL    HW268683   6.235  11.817   4.160
55637SOL     OW68684  11.600  10.684   6.823
55637SOL    HW168685  11.591  10.614   6.887
55637SOL    HW268686  11.694  10.692   6.809
55638SOL     OW68687  10.657   6.106  12.021
55638SOL    HW168688  10.659   6.182  12.079
55638SOL    HW268689  10.619   6.036  12.074
55639SOL     OW68690  12.409   6.400   9.724
55639SOL    HW168691  12.345   6.336   9.757
55639SOL    HW268692  12.467   6.416   9.797
55640SOL     OW68693   7.247  12.590   8.240
55640SOL    HW168694   7.318  12.578   8.177
55640SOL    HW268695   7.186  12.649   8.196
55641SOL     OW68696   1.272   7.029   7.336
55641SOL    HW168697   1.320   7.006   7.256
55641SOL    HW268698   1.339   7.050   7.400
55642SOL     OW68699   9.544   4.470   0.902
55642SOL    HW168700   9.490   4.405   0.857
55642SOL    HW268701   9.630   4.461   0.863
55643SOL     OW68702   8.604  12.934  11.556
55643SOL    HW168703   8.522  12.886  11.562
55643SOL    HW268704   8.671  12.872  11.585
55644SOL     OW68705   3.302   6.005   6.405
55644SOL    HW168706   3.367   6.073   6.386
55644SOL    HW268707   3.285   6.014   6.499
55645SOL     OW68708   3.080   3.764  11.784
55645SOL    HW168709   3.109   3.854  11.795
55645SOL    HW268710   2.987   3.771  11.762
55646SOL     OW68711   5.011   5.673   4.522
55646SOL    HW168712   5.036   5.765   4.510
55646SOL    HW268713   5.009   5.661   4.617
55647SOL     OW68714   5.985  12.544   9.866
55647SOL    HW168715   5.953  12.473   9.922
55647SOL    HW268716   5.953  12.624   9.907
55648SOL     OW68717   5.165  11.677   8.833
55648SOL    HW168718   5.215  11.608   8.790
55648SOL    HW268719   5.211  11.758   8.811
55649SOL     OW68720   9.192   9.090   0.120
55649SOL    HW168721   9.150   9.137   0.191
55649SOL    HW268722   9.136   9.013   0.105
55650SOL     OW68723  12.984   8.894  12.671
55650SOL    HW168724  12.943   8.827  12.616
55650SOL    HW268725  13.054   8.848  12.717
55651SOL     OW68726   6.501   2.528   3.023
55651SOL    HW168727   6.528   2.559   3.109
55651SOL    HW268728   6.449   2.600   2.987
55652SOL     OW68729  14.755   3.572  11.238
55652SOL    HW168730  14.804   3.542  11.160
55652SOL    HW268731  14.741   3.493  11.289
55653SOL     OW68732   2.486   1.670  14.819
55653SOL    HW168733   2.440   1.675  14.735
55653SOL    HW268734   2.566   1.621  14.801
55654SOL     OW68735  13.541   4.211  10.685
55654SOL    HW168736  13.584   4.216  10.771
55654SOL    HW268737  13.547   4.118  10.661
55655SOL     OW68738  10.551   7.564   6.127
55655SOL    HW168739  10.468   7.607   6.151
55655SOL    HW268740  10.546   7.478   6.168
55656SOL     OW68741  10.877  13.661   2.052
55656SOL    HW168742  10.825  13.612   1.988
55656SOL    HW268743  10.908  13.594   2.113
55657SOL     OW68744   9.217   9.689   5.994
55657SOL    HW168745   9.216   9.668   6.087
55657SOL    HW268746   9.125   9.701   5.971
55658SOL     OW68747   4.719  10.018   2.121
55658SOL    HW168748   4.724  10.108   2.154
55658SOL    HW268749   4.626  10.002   2.107
55659SOL     OW68750  12.405  11.454  12.949
55659SOL    HW168751  12.479  11.514  12.935
55659SOL    HW268752  12.388  11.416  12.863
55660SOL     OW68753   2.897   9.847  10.917
55660SOL    HW168754   2.875   9.939  10.901
55660SOL    HW268755   2.812   9.803  10.927
55661SOL     OW68756  10.659  12.441  11.514
55661SOL    HW168757  10.606  12.407  11.586
55661SOL    HW268758  10.601  12.441  11.438
55662SOL     OW68759  10.093  10.142   4.088
55662SOL    HW168760  10.171  10.135   4.033
55662SOL    HW268761  10.065  10.234   4.079
55663SOL     OW68762   2.227   0.455  13.769
55663SOL    HW168763   2.147   0.479  13.723
55663SOL    HW268764   2.198   0.395  13.839
55664SOL     OW68765  13.673   6.340   5.156
55664SOL    HW168766  13.636   6.364   5.072
55664SOL    HW268767  13.643   6.250   5.171
55665SOL     OW68768  14.789  11.310   0.964
55665SOL    HW168769  14.783  11.406   0.958
55665SOL    HW268770  14.834  11.285   0.883
55666SOL     OW68771   4.132   3.361  12.734
55666SOL    HW168772   4.063   3.355  12.669
55666SOL    HW268773   4.123   3.449  12.770
55667SOL     OW68774  11.486  10.471   3.765
55667SOL    HW168775  11.432  10.544   3.733
55667SOL    HW268776  11.490  10.484   3.859
55668SOL     OW68777   8.611   1.348   3.089
55668SOL    HW168778   8.649   1.301   3.163
55668SOL    HW268779   8.681   1.406   3.059
55669SOL     OW68780   0.374  12.327   3.397
55669SOL    HW168781   0.317  12.338   3.474
55669SOL    HW268782   0.373  12.233   3.380
55670SOL     OW68783   8.334   2.952  11.695
55670SOL    HW168784   8.424   2.964  11.726
55670SOL    HW268785   8.284   2.934  11.775
55671SOL     OW68786  11.337   7.738   8.117
55671SOL    HW168787  11.314   7.796   8.189
55671SOL    HW268788  11.403   7.679   8.153
55672SOL     OW68789   0.772   8.922  11.376
55672SOL    HW168790   0.808   8.868  11.305
55672SOL    HW268791   0.797   8.876  11.456
55673SOL     OW68792   6.810  11.555   1.002
55673SOL    HW168793   6.863  11.551   0.922
55673SOL    HW268794   6.777  11.645   1.003
55674SOL     OW68795   1.286   1.839  13.379
55674SOL    HW168796   1.243   1.905  13.434
55674SOL    HW268797   1.330   1.889  13.310
55675SOL     OW68798   4.885  10.233   5.744
55675SOL    HW168799   4.872  10.315   5.696
55675SOL    HW268800   4.798  10.210   5.777
55676SOL     OW68801  11.574   0.550   1.789
55676SOL    HW168802  11.639   0.513   1.729
55676SOL    HW268803  11.614   0.544   1.875
55677SOL     OW68804   7.937   2.149   3.977
55677SOL    HW168805   7.867   2.110   3.924
55677SOL    HW268806   7.961   2.229   3.930
55678SOL     OW68807   1.188   5.377   5.195
55678SOL    HW168808   1.105   5.358   5.152
55678SOL    HW268809   1.195   5.473   5.192
55679SOL     OW68810   7.001   4.068   5.069
55679SOL    HW168811   7.029   4.155   5.100
55679SOL    HW268812   6.953   4.086   4.988
55680SOL     OW68813   2.675   8.422   6.576
55680SOL    HW168814   2.694   8.505   6.619
55680SOL    HW268815   2.637   8.447   6.492
55681SOL     OW68816  14.086  14.747   0.381
55681SOL    HW168817  14.068  14.770   0.290
55681SOL    HW268818  14.023  14.798   0.432
55682SOL     OW68819   7.779  10.290   1.828
55682SOL    HW168820   7.841  10.304   1.757
55682SOL    HW268821   7.735  10.374   1.839
55683SOL     OW68822  13.707  14.579   3.557
55683SOL    HW168823  13.767  14.505   3.551
55683SOL    HW268824  13.639  14.551   3.618
55684SOL     OW68825   8.233   8.775   3.382
55684SOL    HW168826   8.164   8.832   3.415
55684SOL    HW268827   8.188   8.694   3.358
55685SOL     OW68828   4.823  12.500   6.534
55685SOL    HW168829   4.731  12.481   6.552
55685SOL    HW268830   4.858  12.533   6.617
55686SOL     OW68831  14.706  11.151   5.698
55686SOL    HW168832  14.783  11.111   5.739
55686SOL    HW268833  14.723  11.245   5.702
55687SOL     OW68834  12.405   1.936   8.285
55687SOL    HW168835  12.469   1.984   8.233
55687SOL    HW268836  12.451   1.857   8.312
55688SOL     OW68837  11.548   8.709   1.219
55688SOL    HW168838  11.560   8.669   1.305
55688SOL    HW268839  11.479   8.774   1.232
55689SOL     OW68840   3.924   1.151  14.125
55689SOL    HW168841   3.923   1.056  14.119
55689SOL    HW268842   3.843   1.179  14.083
55690SOL     OW68843  14.857   0.064  14.608
55690SOL    HW168844  14.871   0.051  14.514
55690SOL    HW268845   0.063   0.078  14.643
55691SOL     OW68846   0.846   6.096   7.086
55691SOL    HW168847   0.801   6.095   7.001
55691SOL    HW268848   0.922   6.039   7.073
55692SOL     OW68849   2.325   3.451   0.055
55692SOL    HW168850   2.361   3.375   0.100
55692SOL    HW268851   2.240   3.423   0.021
55693SOL     OW68852   0.631  13.514   4.858
55693SOL    HW168853   0.719  13.528   4.893
55693SOL    HW268854   0.591  13.450   4.918
55694SOL     OW68855   3.942   8.498   6.755
55694SOL    HW168856   3.979   8.547   6.829
55694SOL    HW268857   4.006   8.509   6.685
55695SOL     OW68858   2.298   6.497   1.999
55695SOL    HW168859   2.334   6.409   2.010
55695SOL    HW268860   2.375   6.552   1.985
55696SOL     OW68861   0.365  14.840   3.143
55696SOL    HW168862   0.384  14.865   3.052
55696SOL    HW268863   0.436  14.880   3.194
55697SOL     OW68864   4.881   6.349  10.962
55697SOL    HW168865   4.971   6.341  10.993
55697SOL    HW268866   4.865   6.443  10.960
55698SOL     OW68867   1.253   1.765   6.904
55698SOL    HW168868   1.274   1.702   6.835
55698SOL    HW268869   1.260   1.850   6.862
55699SOL     OW68870  11.405   9.763   4.921
55699SOL    HW168871  11.439   9.848   4.948
55699SOL    HW268872  11.381   9.776   4.829
55700SOL     OW68873   7.650   6.144  14.169
55700SOL    HW168874   7.620   6.088  14.096
55700SOL    HW268875   7.741   6.165  14.146
55701SOL     OW68876   5.342   0.897   9.606
55701SOL    HW168877   5.330   0.992   9.606
55701SOL    HW268878   5.429   0.884   9.570
55702SOL     OW68879  10.485  12.904  14.392
55702SOL    HW168880  10.488  12.877  14.300
55702SOL    HW268881  10.574  12.933  14.411
55703SOL     OW68882  11.422   0.641   0.282
55703SOL    HW168883  11.366   0.665   0.208
55703SOL    HW268884  11.378   0.679   0.358
55704SOL     OW68885   3.369  12.656   4.346
55704SOL    HW168886   3.286  12.693   4.377
55704SOL    HW268887   3.349  12.564   4.327
55705SOL     OW68888  10.966  11.984   7.176
55705SOL    HW168889  11.030  11.913   7.175
55705SOL    HW268890  10.902  11.958   7.242
55706SOL     OW68891   9.548   9.726   8.036
55706SOL    HW168892   9.638   9.707   8.007
55706SOL    HW268893   9.532   9.662   8.106
55707SOL     OW68894   0.515   4.707  12.593
55707SOL    HW168895   0.487   4.638  12.654
55707SOL    HW268896   0.449   4.775  12.603
55708SOL     OW68897  12.347  11.581   3.633
55708SOL    HW168898  12.259  11.544   3.638
55708SOL    HW268899  12.369  11.578   3.540
55709SOL     OW68900   4.919   5.292   1.973
55709SOL    HW168901   4.950   5.217   1.924
55709SOL    HW268902   4.824   5.290   1.962
55710SOL     OW68903   2.342   7.054   6.950
55710SOL    HW168904   2.371   7.065   6.859
55710SOL    HW268905   2.302   6.967   6.952
55711SOL     OW68906   2.490  11.869   6.412
55711SOL    HW168907   2.410  11.819   6.424
55711SOL    HW268908   2.477  11.918   6.331
55712SOL     OW68909   6.477   2.605   8.210
55712SOL    HW168910   6.393   2.562   8.194
55712SOL    HW268911   6.543   2.542   8.182
55713SOL     OW68912   3.288   3.990   4.119
55713SOL    HW168913   3.235   4.059   4.159
55713SOL    HW268914   3.277   4.004   4.025
55714SOL     OW68915   3.274  14.523   5.718
55714SOL    HW168916   3.324  14.547   5.796
55714SOL    HW268917   3.269  14.428   5.720
55715SOL     OW68918   7.465   7.711   4.818
55715SOL    HW168919   7.473   7.804   4.835
55715SOL    HW268920   7.413   7.705   4.738
55716SOL     OW68921   2.906  10.178  10.248
55716SOL    HW168922   2.886  10.236  10.322
55716SOL    HW268923   2.845  10.105  10.258
55717SOL     OW68924  10.244   4.181   4.020
55717SOL    HW168925  10.219   4.135   4.100
55717SOL    HW268926  10.331   4.146   3.998
55718SOL     OW68927   5.867   8.629   5.355
55718SOL    HW168928   5.872   8.723   5.338
55718SOL    HW268929   5.922   8.590   5.287
55719SOL     OW68930   2.408  11.075   3.934
55719SOL    HW168931   2.347  11.133   3.979
55719SOL    HW268932   2.418  11.000   3.993
55720SOL     OW68933  13.108  10.063   9.019
55720SOL    HW168934  13.046  10.113   8.966
55720SOL    HW268935  13.194  10.085   8.983
55721SOL     OW68936   2.905  11.749   9.165
55721SOL    HW168937   2.885  11.724   9.255
55721SOL    HW268938   2.983  11.803   9.171
55722SOL     OW68939  13.027   7.612   9.509
55722SOL    HW168940  13.027   7.706   9.494
55722SOL    HW268941  12.986   7.576   9.430
55723SOL     OW68942   2.991   9.877  11.914
55723SOL    HW168943   3.054   9.934  11.870
55723SOL    HW268944   3.042   9.831  11.980
55724SOL     OW68945   7.564   4.283   2.328
55724SOL    HW168946   7.491   4.239   2.371
55724SOL    HW268947   7.567   4.243   2.240
55725SOL     OW68948   8.038   8.619   4.281
55725SOL    HW168949   8.081   8.685   4.226
55725SOL    HW268950   7.944   8.631   4.264
55726SOL     OW68951   3.376  11.357   1.074
55726SOL    HW168952   3.326  11.323   1.000
55726SOL    HW268953   3.319  11.344   1.150
55727SOL     OW68954   2.364   2.931  10.093
55727SOL    HW168955   2.304   2.909  10.165
55727SOL    HW268956   2.447   2.890  10.118
55728SOL     OW68957   3.379   2.367   4.401
55728SOL    HW168958   3.375   2.312   4.479
55728SOL    HW268959   3.289   2.370   4.369
55729SOL     OW68960   7.946   2.133  14.728
55729SOL    HW168961   7.951   2.147  14.634
55729SOL    HW268962   7.939   2.038  14.738
55730SOL     OW68963  10.192  12.803   2.136
55730SOL    HW168964  10.101  12.779   2.113
55730SOL    HW268965  10.193  12.898   2.134
55731SOL     OW68966   7.312   0.645  14.458
55731SOL    HW168967   7.260   0.634  14.378
55731SOL    HW268968   7.274   0.722  14.500
55732SOL     OW68969   5.013   1.912  12.526
55732SOL    HW168970   5.045   1.823  12.543
55732SOL    HW268971   4.930   1.918  12.574
55733SOL     OW68972  11.318   7.666   3.769
55733SOL    HW168973  11.408   7.698   3.775
55733SOL    HW268974  11.321   7.579   3.809
55734SOL     OW68975   6.937   0.660   1.644
55734SOL    HW168976   6.844   0.673   1.623
55734SOL    HW268977   6.983   0.724   1.589
55735SOL     OW68978  11.128   6.957   5.004
55735SOL    HW168979  11.121   7.052   5.003
55735SOL    HW268980  11.063   6.927   4.940
55736SOL     OW68981   8.746   0.689   2.170
55736SOL    HW168982   8.672   0.726   2.122
55736SOL    HW268983   8.740   0.725   2.258
55737SOL     OW68984  13.267   1.701  14.430
55737SOL    HW168985  13.261   1.753  14.510
55737SOL    HW268986  13.248   1.611  14.458
55738SOL     OW68987   2.702  10.777   2.632
55738SOL    HW168988   2.669  10.774   2.542
55738SOL    HW268989   2.638  10.831   2.679
55739SOL     OW68990  10.489   8.380  10.345
55739SOL    HW168991  10.479   8.323  10.270
55739SOL    HW268992  10.400   8.395  10.377
55740SOL     OW68993  13.340   8.314   3.831
55740SOL    HW168994  13.389   8.280   3.756
55740SOL    HW268995  13.405   8.319   3.901
55741SOL     OW68996  14.604   2.572   3.093
55741SOL    HW168997  14.635   2.660   3.113
55741SOL    HW268998  14.551   2.581   3.014
55742SOL     OW68999   2.761   3.611   4.376
55742SOL    HW169000   2.673   3.573   4.383
55742SOL    HW269001   2.746   3.705   4.365
55743SOL     OW69002   2.787   3.109   8.908
55743SOL    HW169003   2.716   3.045   8.919
55743SOL    HW269004   2.856   3.060   8.862
55744SOL     OW69005   8.436   3.880   3.803
55744SOL    HW169006   8.407   3.877   3.894
55744SOL    HW269007   8.529   3.860   3.807
55745SOL     OW69008   0.687   1.605   3.733
55745SOL    HW169009   0.615   1.546   3.710
55745SOL    HW269010   0.661   1.642   3.817
55746SOL     OW69011   0.305   4.941  14.690
55746SOL    HW169012   0.351   4.943  14.774
55746SOL    HW269013   0.212   4.945  14.712
55747SOL     OW69014   8.675   5.506   1.740
55747SOL    HW169015   8.602   5.446   1.751
55747SOL    HW269016   8.659   5.576   1.804
55748SOL     OW69017   7.692  12.511  12.130
55748SOL    HW169018   7.626  12.510  12.199
55748SOL    HW269019   7.723  12.602  12.128
55749SOL     OW69020   0.111   6.100   9.319
55749SOL    HW169021   0.026   6.124   9.355
55749SOL    HW269022   0.105   6.122   9.226
55750SOL     OW69023   3.494   2.607   6.650
55750SOL    HW169024   3.470   2.687   6.604
55750SOL    HW269025   3.421   2.548   6.634
55751SOL     OW69026  11.807   6.912   5.302
55751SOL    HW169027  11.894   6.951   5.308
55751SOL    HW269028  11.812   6.855   5.225
55752SOL     OW69029  14.141   1.044   6.431
55752SOL    HW169030  14.224   1.093   6.434
55752SOL    HW269031  14.168   0.953   6.419
55753SOL     OW69032   8.171  12.063   1.704
55753SOL    HW169033   8.151  12.074   1.611
55753SOL    HW269034   8.091  12.025   1.742
55754SOL     OW69035  11.846   1.545   8.077
55754SOL    HW169036  11.795   1.603   8.021
55754SOL    HW269037  11.888   1.484   8.017
55755SOL     OW69038   6.225  14.080   7.872
55755SOL    HW169039   6.239  14.052   7.962
55755SOL    HW269040   6.131  14.072   7.859
55756SOL     OW69041   9.441   1.272   2.927
55756SOL    HW169042   9.388   1.327   2.984
55756SOL    HW269043   9.377   1.231   2.867
55757SOL     OW69044  13.446   8.588   6.681
55757SOL    HW169045  13.536   8.621   6.681
55757SOL    HW269046  13.451   8.505   6.727
55758SOL     OW69047   2.182   4.007   5.478
55758SOL    HW169048   2.241   4.021   5.552
55758SOL    HW269049   2.228   3.944   5.422
55759SOL     OW69050  11.227  14.157   1.260
55759SOL    HW169051  11.206  14.197   1.345
55759SOL    HW269052  11.145  14.116   1.232
55760SOL     OW69053   9.951  13.373   8.809
55760SOL    HW169054   9.960  13.284   8.775
55760SOL    HW269055   9.903  13.363   8.891
55761SOL     OW69056  10.986   1.881  13.754
55761SOL    HW169057  10.947   1.968  13.758
55761SOL    HW269058  11.070   1.890  13.798
55762SOL     OW69059  11.953   3.904   1.972
55762SOL    HW169060  11.863   3.930   1.991
55762SOL    HW269061  11.999   3.985   1.952
55763SOL     OW69062   8.250  14.677   4.226
55763SOL    HW169063   8.245  14.655   4.319
55763SOL    HW269064   8.259  14.592   4.182
55764SOL     OW69065  10.261   9.277  13.871
55764SOL    HW169066  10.271   9.300  13.779
55764SOL    HW269067  10.340   9.228  13.892
55765SOL     OW69068   5.694  11.651  10.480
55765SOL    HW169069   5.604  11.657  10.447
55765SOL    HW269070   5.734  11.581  10.429
55766SOL     OW69071   9.627  10.415   7.533
55766SOL    HW169072   9.537  10.432   7.506
55766SOL    HW269073   9.670  10.500   7.530
55767SOL     OW69074   5.216   8.200   4.723
55767SOL    HW169075   5.305   8.165   4.720
55767SOL    HW269076   5.170   8.145   4.786
55768SOL     OW69077  11.977   4.726   7.540
55768SOL    HW169078  12.042   4.668   7.503
55768SOL    HW269079  11.894   4.680   7.529
55769SOL     OW69080   2.433  11.904   4.211
55769SOL    HW169081   2.519  11.883   4.175
55769SOL    HW269082   2.444  11.992   4.249
55770SOL     OW69083   6.337  13.743  14.214
55770SOL    HW169084   6.345  13.659  14.259
55770SOL    HW269085   6.420  13.754  14.168
55771SOL     OW69086   3.828   9.127  11.603
55771SOL    HW169087   3.879   9.166  11.674
55771SOL    HW269088   3.763   9.194  11.579
55772SOL     OW69089   1.699  12.033   1.628
55772SOL    HW169090   1.788  12.005   1.610
55772SOL    HW269091   1.705  12.128   1.640
55773SOL     OW69092  14.631  12.498   1.522
55773SOL    HW169093  14.725  12.489   1.536
55773SOL    HW269094  14.601  12.556   1.592
55774SOL     OW69095   1.765  12.110   2.157
55774SOL    HW169096   1.724  12.050   2.219
55774SOL    HW269097   1.853  12.074   2.143
55775SOL     OW69098   1.518  13.590   2.524
55775SOL    HW169099   1.545  13.655   2.589
55775SOL    HW269100   1.599  13.543   2.501
55776SOL     OW69101  13.012   9.976  12.978
55776SOL    HW169102  12.940   9.917  13.003
55776SOL    HW269103  12.995  10.056  13.027
55777SOL     OW69104  14.577   6.583   2.652
55777SOL    HW169105  14.552   6.651   2.715
55777SOL    HW269106  14.639   6.625   2.593
55778SOL     OW69107   7.961   5.001  11.029
55778SOL    HW169108   7.933   4.948  11.104
55778SOL    HW269109   7.947   5.092  11.056
55779SOL     OW69110   7.788   1.846  10.696
55779SOL    HW169111   7.860   1.790  10.667
55779SOL    HW269112   7.760   1.808  10.779
55780SOL     OW69113   7.654  13.370   3.432
55780SOL    HW169114   7.665  13.316   3.510
55780SOL    HW269115   7.668  13.310   3.359
55781SOL     OW69116   5.914   9.138  11.855
55781SOL    HW169117   5.902   9.055  11.809
55781SOL    HW269118   5.889   9.205  11.791
55782SOL     OW69119  13.521   2.489   4.605
55782SOL    HW169120  13.458   2.448   4.664
55782SOL    HW269121  13.559   2.416   4.555
55783SOL     OW69122   7.450   8.029  13.776
55783SOL    HW169123   7.405   8.107  13.743
55783SOL    HW269124   7.429   7.960  13.714
55784SOL     OW69125   7.028   5.361   2.621
55784SOL    HW169126   6.956   5.373   2.683
55784SOL    HW269127   7.028   5.268   2.600
55785SOL     OW69128   8.347   3.156  10.314
55785SOL    HW169129   8.421   3.215  10.301
55785SOL    HW269130   8.340   3.108  10.232
55786SOL     OW69131   8.070   4.223   6.149
55786SOL    HW169132   8.156   4.184   6.134
55786SOL    HW269133   8.057   4.281   6.074
55787SOL     OW69134   2.338   9.016   5.973
55787SOL    HW169135   2.423   9.029   5.932
55787SOL    HW269136   2.290   8.961   5.911
55788SOL     OW69137   9.093   4.393   1.769
55788SOL    HW169138   9.103   4.464   1.705
55788SOL    HW269139   9.013   4.348   1.743
55789SOL     OW69140   1.148   1.535   4.987
55789SOL    HW169141   1.070   1.589   5.000
55789SOL    HW269142   1.127   1.452   5.029
55790SOL     OW69143  14.754   8.938  11.328
55790SOL    HW169144  14.776   8.976  11.243
55790SOL    HW269145  14.659   8.927  11.326
55791SOL     OW69146   5.049  11.288  13.992
55791SOL    HW169147   5.086  11.229  13.926
55791SOL    HW269148   4.990  11.233  14.043
55792SOL     OW69149   3.160   3.211   4.797
55792SOL    HW169150   3.201   3.174   4.876
55792SOL    HW269151   3.172   3.144   4.730
55793SOL     OW69152   7.098   4.042   2.876
55793SOL    HW169153   7.055   4.078   2.798
55793SOL    HW269154   7.140   3.962   2.845
55794SOL     OW69155   8.533  11.962  14.000
55794SOL    HW169156   8.520  11.983  13.908
55794SOL    HW269157   8.473  11.890  14.017
55795SOL     OW69158   2.321   0.173  14.311
55795SOL    HW169159   2.290   0.253  14.269
55795SOL    HW269160   2.347   0.199  14.399
55796SOL     OW69161   4.675   1.266   7.816
55796SOL    HW169162   4.634   1.334   7.762
55796SOL    HW269163   4.616   1.255   7.890
55797SOL     OW69164   3.556   8.429   4.180
55797SOL    HW169165   3.557   8.443   4.274
55797SOL    HW269166   3.494   8.357   4.166
55798SOL     OW69167  11.752  11.687   5.522
55798SOL    HW169168  11.784  11.619   5.580
55798SOL    HW269169  11.657  11.676   5.522
55799SOL     OW69170   7.927  12.743   3.923
55799SOL    HW169171   7.894  12.812   3.865
55799SOL    HW269172   8.022  12.743   3.909
55800SOL     OW69173  13.439   8.336  11.481
55800SOL    HW169174  13.346   8.346  11.463
55800SOL    HW269175  13.465   8.420  11.519
55801SOL     OW69176  14.869   9.397   8.583
55801SOL    HW169177   0.012   9.488   8.602
55801SOL    HW269178   0.001   9.351   8.666
55802SOL     OW69179   6.316   2.289   9.949
55802SOL    HW169180   6.361   2.346   9.886
55802SOL    HW269181   6.230   2.273   9.910
55803SOL     OW69182   4.472  13.978   4.646
55803SOL    HW169183   4.498  13.890   4.672
55803SOL    HW269184   4.543  14.009   4.590
55804SOL     OW69185  14.861  11.956  11.853
55804SOL    HW169186   0.013  12.042  11.825
55804SOL    HW269187  14.826  11.972  11.941
55805SOL     OW69188   3.286   5.143  10.163
55805SOL    HW169189   3.197   5.178  10.168
55805SOL    HW269190   3.339   5.217  10.135
55806SOL     OW69191   7.844   9.105   6.143
55806SOL    HW169192   7.749   9.097   6.153
55806SOL    HW269193   7.879   9.068   6.224
55807SOL     OW69194   2.242   7.311   9.305
55807SOL    HW169195   2.288   7.375   9.249
55807SOL    HW269196   2.178   7.271   9.247
55808SOL     OW69197   6.009   0.642  13.711
55808SOL    HW169198   6.022   0.690  13.630
55808SOL    HW269199   5.969   0.559  13.684
55809SOL     OW69200  12.617   9.530   7.685
55809SOL    HW169201  12.613   9.500   7.776
55809SOL    HW269202  12.575   9.461   7.635
55810SOL     OW69203   9.497   2.961   3.881
55810SOL    HW169204   9.454   3.014   3.949
55810SOL    HW269205   9.574   2.925   3.925
55811SOL     OW69206   9.661   1.047   4.108
55811SOL    HW169207   9.672   1.001   4.025
55811SOL    HW269208   9.657   1.140   4.084
55812SOL     OW69209   1.090  11.540   3.608
55812SOL    HW169210   1.155  11.610   3.599
55812SOL    HW269211   1.126  11.467   3.558
55813SOL     OW69212   6.383   0.784  12.997
55813SOL    HW169213   6.292   0.813  13.004
55813SOL    HW269214   6.427   0.854  12.947
55814SOL     OW69215   8.200   6.276   7.640
55814SOL    HW169216   8.137   6.289   7.711
55814SOL    HW269217   8.206   6.361   7.597
55815SOL     OW69218  11.578   7.447  13.241
55815SOL    HW169219  11.527   7.367  13.239
55815SOL    HW269220  11.632   7.443  13.162
55816SOL     OW69221   3.769   8.703   1.481
55816SOL    HW169222   3.800   8.712   1.391
55816SOL    HW269223   3.793   8.785   1.523
55817SOL     OW69224   8.829  14.737   4.861
55817SOL    HW169225   8.786  14.820   4.838
55817SOL    HW269226   8.775  14.701   4.931
55818SOL     OW69227   8.824   1.693   5.689
55818SOL    HW169228   8.761   1.752   5.730
55818SOL    HW269229   8.840   1.731   5.603
55819SOL     OW69230   1.341  12.558   1.259
55819SOL    HW169231   1.386  12.639   1.235
55819SOL    HW269232   1.267  12.552   1.198
55820SOL     OW69233   7.687  12.849  13.228
55820SOL    HW169234   7.599  12.814  13.210
55820SOL    HW269235   7.728  12.783  13.284
55821SOL     OW69236  11.706   1.119   8.139
55821SOL    HW169237  11.711   1.108   8.044
55821SOL    HW269238  11.711   1.030   8.173
55822SOL     OW69239   8.085   5.470   7.713
55822SOL    HW169240   8.138   5.478   7.633
55822SOL    HW269241   8.001   5.436   7.683
55823SOL     OW69242   2.267   4.228   8.168
55823SOL    HW169243   2.315   4.310   8.176
55823SOL    HW269244   2.301   4.173   8.239
55824SOL     OW69245  12.725   3.579   3.382
55824SOL    HW169246  12.779   3.574   3.303
55824SOL    HW269247  12.713   3.673   3.397
55825SOL     OW69248   7.572   4.112  11.117
55825SOL    HW169249   7.595   4.143  11.029
55825SOL    HW269250   7.508   4.043  11.102
55826SOL     OW69251   5.179   0.547   2.786
55826SOL    HW169252   5.246   0.611   2.809
55826SOL    HW269253   5.116   0.551   2.859
55827SOL     OW69254   2.209   1.497   4.969
55827SOL    HW169255   2.190   1.557   5.041
55827SOL    HW269256   2.198   1.410   5.006
55828SOL     OW69257   0.390   3.341  11.489
55828SOL    HW169258   0.406   3.273  11.554
55828SOL    HW269259   0.475   3.382  11.475
55829SOL     OW69260  10.685   0.844  11.408
55829SOL    HW169261  10.598   0.816  11.436
55829SOL    HW269262  10.667   0.909  11.340
55830SOL     OW69263   9.372   8.833   4.093
55830SOL    HW169264   9.448   8.802   4.142
55830SOL    HW269265   9.332   8.754   4.058
55831SOL     OW69266  10.875   0.208   7.801
55831SOL    HW169267  10.822   0.130   7.820
55831SOL    HW269268  10.961   0.173   7.779
55832SOL     OW69269  10.734   3.760   1.844
55832SOL    HW169270  10.670   3.698   1.809
55832SOL    HW269271  10.747   3.823   1.773
55833SOL     OW69272  12.620   3.999  13.388
55833SOL    HW169273  12.579   3.915  13.406
55833SOL    HW269274  12.686   4.008  13.456
55834SOL     OW69275  10.340   7.362   5.682
55834SOL    HW169276  10.275   7.430   5.696
55834SOL    HW269277  10.410   7.404   5.632
55835SOL     OW69278   9.998  14.643  12.700
55835SOL    HW169279   9.930  14.586  12.736
55835SOL    HW269280  10.009  14.612  12.609
55836SOL     OW69281   5.327   2.378   0.228
55836SOL    HW169282   5.250   2.321   0.220
55836SOL    HW269283   5.297   2.463   0.196
55837SOL     OW69284   8.264   3.520   3.945
55837SOL    HW169285   8.343   3.495   3.897
55837SOL    HW269286   8.193   3.512   3.881
55838SOL     OW69287  13.973  12.645   7.741
55838SOL    HW169288  13.974  12.621   7.834
55838SOL    HW269289  13.921  12.577   7.699
55839SOL     OW69290  11.219   4.970  14.176
55839SOL    HW169291  11.310   5.000  14.182
55839SOL    HW269292  11.176   5.034  14.120
55840SOL     OW69293   4.762   4.971   3.092
55840SOL    HW169294   4.792   4.947   3.179
55840SOL    HW269295   4.699   4.903   3.068
55841SOL     OW69296  10.287   4.921  12.482
55841SOL    HW169297  10.323   4.943  12.568
55841SOL    HW269298  10.204   4.877  12.500
55842SOL     OW69299   0.035   0.965   8.351
55842SOL    HW169300   0.002   0.877   8.364
55842SOL    HW269301  14.851   1.008   8.297
55843SOL     OW69302   3.326  13.760  14.324
55843SOL    HW169303   3.394  13.823  14.344
55843SOL    HW269304   3.244  13.805  14.347
55844SOL     OW69305   0.391   0.297   3.729
55844SOL    HW169306   0.446   0.375   3.726
55844SOL    HW269307   0.325   0.315   3.795
55845SOL     OW69308   6.309   6.009   8.681
55845SOL    HW169309   6.256   5.957   8.619
55845SOL    HW269310   6.388   5.957   8.694
55846SOL     OW69311   2.620  10.502  14.270
55846SOL    HW169312   2.657  10.521  14.184
55846SOL    HW269313   2.696  10.480  14.324
55847SOL     OW69314   5.612   1.232   2.262
55847SOL    HW169315   5.640   1.220   2.171
55847SOL    HW269316   5.682   1.192   2.314
55848SOL     OW69317   1.269   8.760  10.903
55848SOL    HW169318   1.306   8.821  10.967
55848SOL    HW269319   1.184   8.797  10.881
55849SOL     OW69320   0.166  13.197  10.669
55849SOL    HW169321   0.230  13.140  10.627
55849SOL    HW269322   0.209  13.283  10.671
55850SOL     OW69323   6.477   5.330   9.471
55850SOL    HW169324   6.416   5.374   9.530
55850SOL    HW269325   6.562   5.367   9.492
55851SOL     OW69326   9.506   0.747   3.369
55851SOL    HW169327   9.537   0.822   3.319
55851SOL    HW269328   9.449   0.700   3.309
55852SOL     OW69329  11.342   6.693  10.260
55852SOL    HW169330  11.260   6.740  10.243
55852SOL    HW269331  11.329   6.651  10.344
55853SOL     OW69332   9.103   7.430   2.012
55853SOL    HW169333   9.084   7.338   1.992
55853SOL    HW269334   9.016   7.469   2.028
55854SOL     OW69335  11.796  10.511   8.654
55854SOL    HW169336  11.843  10.430   8.635
55854SOL    HW269337  11.832  10.575   8.593
55855SOL     OW69338   0.747   9.121   0.108
55855SOL    HW169339   0.666   9.161   0.075
55855SOL    HW269340   0.723   9.030   0.126
55856SOL     OW69341   0.693   8.642   9.437
55856SOL    HW169342   0.746   8.607   9.509
55856SOL    HW269343   0.641   8.567   9.408
55857SOL     OW69344  13.114  14.223   6.841
55857SOL    HW169345  13.208  14.205   6.830
55857SOL    HW269346  13.089  14.271   6.762
55858SOL     OW69347   2.957  13.419  11.488
55858SOL    HW169348   3.053  13.413  11.492
55858SOL    HW269349   2.932  13.467  11.566
55859SOL     OW69350   2.830   8.867   2.543
55859SOL    HW169351   2.880   8.859   2.624
55859SOL    HW269352   2.850   8.954   2.510
55860SOL     OW69353  10.113   1.933   2.259
55860SOL    HW169354  10.198   1.900   2.287
55860SOL    HW269355  10.052   1.861   2.276
55861SOL     OW69356   0.756  11.288  12.265
55861SOL    HW169357   0.847  11.259  12.259
55861SOL    HW269358   0.727  11.257  12.351
55862SOL     OW69359  12.539   1.060  11.548
55862SOL    HW169360  12.491   1.088  11.626
55862SOL    HW269361  12.626   1.037  11.579
55863SOL     OW69362   0.644   3.024   4.300
55863SOL    HW169363   0.660   2.937   4.263
55863SOL    HW269364   0.707   3.081   4.256
55864SOL     OW69365   6.631  11.210   3.399
55864SOL    HW169366   6.549  11.161   3.407
55864SOL    HW269367   6.634  11.236   3.307
55865SOL     OW69368   3.154   3.494   2.160
55865SOL    HW169369   3.241   3.493   2.121
55865SOL    HW269370   3.166   3.458   2.248
55866SOL     OW69371   8.462   6.040   2.095
55866SOL    HW169372   8.472   5.980   2.021
55866SOL    HW269373   8.471   5.984   2.172
55867SOL     OW69374  12.447  10.770   6.403
55867SOL    HW169375  12.432  10.687   6.449
55867SOL    HW269376  12.440  10.747   6.310
55868SOL     OW69377  13.259  11.596   1.486
55868SOL    HW169378  13.301  11.526   1.437
55868SOL    HW269379  13.169  11.566   1.498
55869SOL     OW69380  13.401   2.993   4.730
55869SOL    HW169381  13.306   3.004   4.717
55869SOL    HW269382  13.439   3.073   4.695
55870SOL     OW69383   6.192  10.982   5.105
55870SOL    HW169384   6.224  10.992   5.195
55870SOL    HW269385   6.098  10.998   5.111
55871SOL     OW69386  12.800   0.161   5.974
55871SOL    HW169387  12.706   0.178   5.970
55871SOL    HW269388  12.833   0.189   5.889
55872SOL     OW69389   7.908  13.592  13.832
55872SOL    HW169390   7.945  13.609  13.918
55872SOL    HW269391   7.982  13.605  13.772
55873SOL     OW69392   2.648   1.558   8.365
55873SOL    HW169393   2.618   1.468   8.376
55873SOL    HW269394   2.568   1.610   8.362
55874SOL     OW69395   5.246   8.851  14.781
55874SOL    HW169396   5.261   8.817  14.869
55874SOL    HW269397   5.170   8.909  14.791
55875SOL     OW69398  10.786   8.529   2.128
55875SOL    HW169399  10.828   8.450   2.161
55875SOL    HW269400  10.725   8.499   2.061
55876SOL     OW69401   3.072   1.311   0.149
55876SOL    HW169402   3.081   1.357   0.066
55876SOL    HW269403   3.016   1.367   0.202
55877SOL     OW69404   9.147   3.272   0.221
55877SOL    HW169405   9.177   3.294   0.309
55877SOL    HW269406   9.135   3.356   0.177
55878SOL     OW69407   4.657   9.493  13.611
55878SOL    HW169408   4.691   9.565  13.557
55878SOL    HW269409   4.587   9.455  13.559
55879SOL     OW69410   2.635  12.726   1.251
55879SOL    HW169411   2.574  12.787   1.292
55879SOL    HW269412   2.587  12.693   1.175
55880SOL     OW69413  11.174   6.165  13.231
55880SOL    HW169414  11.236   6.154  13.303
55880SOL    HW269415  11.219   6.221  13.169
55881SOL     OW69416   2.958  11.411   5.365
55881SOL    HW169417   3.017  11.337   5.350
55881SOL    HW269418   3.009  11.471   5.419
55882SOL     OW69419   2.160   2.473  13.938
55882SOL    HW169420   2.223   2.530  13.983
55882SOL    HW269421   2.087   2.530  13.917
55883SOL     OW69422   1.198   4.361  10.704
55883SOL    HW169423   1.264   4.295  10.683
55883SOL    HW269424   1.114   4.316  10.694
55884SOL     OW69425  10.729   3.794   9.509
55884SOL    HW169426  10.779   3.862   9.464
55884SOL    HW269427  10.700   3.835   9.590
55885SOL     OW69428   3.832   7.339  14.578
55885SOL    HW169429   3.907   7.280  14.584
55885SOL    HW269430   3.845   7.386  14.495
55886SOL     OW69431   1.952  12.405   4.745
55886SOL    HW169432   2.015  12.366   4.805
55886SOL    HW269433   1.995  12.403   4.659
55887SOL     OW69434   7.724  12.985  14.616
55887SOL    HW169435   7.766  12.917  14.562
55887SOL    HW269436   7.711  13.058  14.556
55888SOL     OW69437   7.587   0.934   2.390
55888SOL    HW169438   7.598   0.893   2.475
55888SOL    HW269439   7.563   0.862   2.331
55889SOL     OW69440   5.332   3.712   9.232
55889SOL    HW169441   5.270   3.782   9.253
55889SOL    HW269442   5.279   3.642   9.195
55890SOL     OW69443   3.425  13.211  11.324
55890SOL    HW169444   3.489  13.193  11.255
55890SOL    HW269445   3.419  13.129  11.373
55891SOL     OW69446   7.984  10.102   2.608
55891SOL    HW169447   7.995  10.196   2.624
55891SOL    HW269448   8.068  10.064   2.635
55892SOL     OW69449   4.872   6.168  12.695
55892SOL    HW169450   4.934   6.109  12.738
55892SOL    HW269451   4.876   6.248  12.748
55893SOL     OW69452  10.772  12.042   0.637
55893SOL    HW169453  10.772  12.083   0.551
55893SOL    HW269454  10.754  12.113   0.698
55894SOL     OW69455   5.049   4.257  11.888
55894SOL    HW169456   4.971   4.203  11.877
55894SOL    HW269457   5.019   4.333  11.937
55895SOL     OW69458  13.540   1.439   9.515
55895SOL    HW169459  13.482   1.510   9.490
55895SOL    HW269460  13.487   1.385   9.574
55896SOL     OW69461  11.517   0.496   9.892
55896SOL    HW169462  11.507   0.424   9.830
55896SOL    HW269463  11.592   0.471   9.946
55897SOL     OW69464   6.659   4.140   5.594
55897SOL    HW169465   6.745   4.100   5.608
55897SOL    HW269466   6.597   4.071   5.616
55898SOL     OW69467   7.084   3.221   6.983
55898SOL    HW169468   7.090   3.250   7.074
55898SOL    HW269469   7.173   3.196   6.960
55899SOL     OW69470  12.228   0.620   0.330
55899SOL    HW169471  12.202   0.692   0.273
55899SOL    HW269472  12.179   0.544   0.297
55900SOL     OW69473   0.751   7.544   7.501
55900SOL    HW169474   0.706   7.541   7.417
55900SOL    HW269475   0.794   7.629   7.502
55901SOL     OW69476  14.491   7.478   9.205
55901SOL    HW169477  14.517   7.491   9.296
55901SOL    HW269478  14.454   7.562   9.178
55902SOL     OW69479   1.944   6.285  14.028
55902SOL    HW169480   1.883   6.357  14.015
55902SOL    HW269481   1.889   6.207  14.031
55903SOL     OW69482  14.649   0.372   8.791
55903SOL    HW169483  14.571   0.416   8.823
55903SOL    HW269484  14.683   0.324   8.866
55904SOL     OW69485   4.526   9.828   3.676
55904SOL    HW169486   4.609   9.870   3.698
55904SOL    HW269487   4.525   9.823   3.581
55905SOL     OW69488   4.695   9.458   4.295
55905SOL    HW169489   4.625   9.450   4.229
55905SOL    HW269490   4.738   9.373   4.295
55906SOL     OW69491   4.278  10.100   5.731
55906SOL    HW169492   4.294  10.186   5.767
55906SOL    HW269493   4.195  10.073   5.770
55907SOL     OW69494   1.886   4.019   1.224
55907SOL    HW169495   1.870   3.998   1.316
55907SOL    HW269496   1.813   4.076   1.199
55908SOL     OW69497   5.186  13.898   5.396
55908SOL    HW169498   5.201  13.897   5.491
55908SOL    HW269499   5.257  13.845   5.360
55909SOL     OW69500   3.462   7.075   7.434
55909SOL    HW169501   3.378   7.096   7.474
55909SOL    HW269502   3.475   6.982   7.452
55910SOL     OW69503   1.265   6.550   6.695
55910SOL    HW169504   1.252   6.483   6.762
55910SOL    HW269505   1.198   6.616   6.713
55911SOL     OW69506  11.427   6.266   4.686
55911SOL    HW169507  11.503   6.322   4.700
55911SOL    HW269508  11.353   6.326   4.680
55912SOL     OW69509   6.422   9.058  12.926
55912SOL    HW169510   6.348   9.093  12.977
55912SOL    HW269511   6.388   9.051  12.837
55913SOL     OW69512  14.469   9.806  12.149
55913SOL    HW169513  14.527   9.881  12.136
55913SOL    HW269514  14.453   9.804  12.243
55914SOL     OW69515   5.614   7.581  14.448
55914SOL    HW169516   5.583   7.642  14.515
55914SOL    HW269517   5.707   7.570  14.467
55915SOL     OW69518  12.836   7.872   2.045
55915SOL    HW169519  12.870   7.956   2.077
55915SOL    HW269520  12.840   7.815   2.122
55916SOL     OW69521   9.304   0.932  13.298
55916SOL    HW169522   9.300   1.013  13.246
55916SOL    HW269523   9.382   0.943  13.352
55917SOL     OW69524  14.334  11.776  14.222
55917SOL    HW169525  14.422  11.745  14.242
55917SOL    HW269526  14.345  11.836  14.148
55918SOL     OW69527   1.445   8.512   1.766
55918SOL    HW169528   1.367   8.538   1.815
55918SOL    HW269529   1.449   8.574   1.693
55919SOL     OW69530   9.390  13.352   3.836
55919SOL    HW169531   9.438  13.284   3.885
55919SOL    HW269532   9.355  13.305   3.760
55920SOL     OW69533   1.465   2.224   8.263
55920SOL    HW169534   1.380   2.261   8.285
55920SOL    HW269535   1.525   2.299   8.268
55921SOL     OW69536   2.595   2.568   8.774
55921SOL    HW169537   2.520   2.585   8.831
55921SOL    HW269538   2.557   2.554   8.687
55922SOL     OW69539   9.536   7.996  12.120
55922SOL    HW169540   9.581   7.913  12.106
55922SOL    HW269541   9.590   8.061  12.075
55923SOL     OW69542   3.667  13.215   3.087
55923SOL    HW169543   3.742  13.270   3.109
55923SOL    HW269544   3.616  13.211   3.168
55924SOL     OW69545   4.679   4.081   1.347
55924SOL    HW169546   4.632   4.011   1.299
55924SOL    HW269547   4.749   4.035   1.393
55925SOL     OW69548   3.295   0.820   6.415
55925SOL    HW169549   3.296   0.739   6.364
55925SOL    HW269550   3.259   0.794   6.500
55926SOL     OW69551  14.627   8.334  13.635
55926SOL    HW169552  14.563   8.402  13.658
55926SOL    HW269553  14.661   8.360  13.550
55927SOL     OW69554  14.438  13.059   1.717
55927SOL    HW169555  14.467  13.127   1.777
55927SOL    HW269556  14.442  13.099   1.631
55928SOL     OW69557   5.493   1.118   6.873
55928SOL    HW169558   5.497   1.096   6.780
55928SOL    HW269559   5.522   1.039   6.918
55929SOL     OW69560   4.200   3.116  13.044
55929SOL    HW169561   4.122   3.165  13.017
55929SOL    HW269562   4.209   3.047  12.979
55930SOL     OW69563  14.053   1.175   1.771
55930SOL    HW169564  14.072   1.089   1.734
55930SOL    HW269565  14.021   1.156   1.860
55931SOL     OW69566   6.794   1.861   3.730
55931SOL    HW169567   6.851   1.788   3.755
55931SOL    HW269568   6.749   1.886   3.811
55932SOL     OW69569  14.151   5.239  14.299
55932SOL    HW169570  14.131   5.301  14.370
55932SOL    HW269571  14.159   5.295  14.221
55933SOL     OW69572  12.436   4.169  14.526
55933SOL    HW169573  12.381   4.091  14.520
55933SOL    HW269574  12.490   4.155  14.604
55934SOL     OW69575   2.095   2.422   1.551
55934SOL    HW169576   2.025   2.384   1.604
55934SOL    HW269577   2.176   2.392   1.593
55935SOL     OW69578   8.480   3.986  12.833
55935SOL    HW169579   8.563   3.993  12.881
55935SOL    HW269580   8.507   3.969  12.743
55936SOL     OW69581   7.210  10.868   9.320
55936SOL    HW169582   7.265  10.823   9.255
55936SOL    HW269583   7.207  10.959   9.290
55937SOL     OW69584  12.256   7.067   9.864
55937SOL    HW169585  12.162   7.053   9.847
55937SOL    HW269586  12.298   6.992   9.823
55938SOL     OW69587  13.962   6.437   8.047
55938SOL    HW169588  13.975   6.529   8.071
55938SOL    HW269589  13.890   6.439   7.984
55939SOL     OW69590  11.134  10.248   6.676
55939SOL    HW169591  11.111  10.163   6.637
55939SOL    HW269592  11.049  10.288   6.696
55940SOL     OW69593  12.412   1.948   7.453
55940SOL    HW169594  12.401   1.871   7.398
55940SOL    HW269595  12.327   1.992   7.450
55941SOL     OW69596   2.042   0.533   1.154
55941SOL    HW169597   2.044   0.529   1.059
55941SOL    HW269598   1.970   0.475   1.179
55942SOL     OW69599  12.748  14.813   7.268
55942SOL    HW169600  12.677  14.752   7.247
55942SOL    HW269601  12.780  14.842   7.183
55943SOL     OW69602   6.512   6.731   8.682
55943SOL    HW169603   6.598   6.756   8.717
55943SOL    HW269604   6.484   6.807   8.631
55944SOL     OW69605  10.722  13.755   5.579
55944SOL    HW169606  10.783  13.697   5.625
55944SOL    HW269607  10.637  13.710   5.585
55945SOL     OW69608  12.444   2.780  12.628
55945SOL    HW169609  12.496   2.776  12.709
55945SOL    HW269610  12.505   2.812  12.562
55946SOL     OW69611  12.072   3.379   0.447
55946SOL    HW169612  12.138   3.317   0.417
55946SOL    HW269613  12.123   3.454   0.480
55947SOL     OW69614  10.409   5.915   9.332
55947SOL    HW169615  10.323   5.914   9.290
55947SOL    HW269616  10.394   5.957   9.417
55948SOL     OW69617  13.477  13.059   0.398
55948SOL    HW169618  13.475  13.037   0.491
55948SOL    HW269619  13.492  12.976   0.354
55949SOL     OW69620  12.099   3.964  14.243
55949SOL    HW169621  12.076   3.876  14.271
55949SOL    HW269622  12.083   3.964  14.148
55950SOL     OW69623   8.836  14.243  10.591
55950SOL    HW169624   8.882  14.200  10.663
55950SOL    HW269625   8.747  14.207  10.595
55951SOL     OW69626  12.804   5.514   6.158
55951SOL    HW169627  12.811   5.423   6.186
55951SOL    HW269628  12.725   5.516   6.104
55952SOL     OW69629   2.585   3.540   5.633
55952SOL    HW169630   2.646   3.468   5.641
55952SOL    HW269631   2.603   3.597   5.707
55953SOL     OW69632  11.838  14.841  11.447
55953SOL    HW169633  11.822  14.867  11.356
55953SOL    HW269634  11.828  14.746  11.447
55954SOL     OW69635   6.103   6.795   2.748
55954SOL    HW169636   6.194   6.776   2.772
55954SOL    HW269637   6.096   6.891   2.755
55955SOL     OW69638   0.221   4.929   3.389
55955SOL    HW169639   0.311   4.962   3.398
55955SOL    HW269640   0.230   4.846   3.343
55956SOL     OW69641   2.675  11.055   5.694
55956SOL    HW169642   2.748  11.087   5.642
55956SOL    HW269643   2.716  10.997   5.759
55957SOL     OW69644   9.322   8.430   4.513
55957SOL    HW169645   9.314   8.494   4.442
55957SOL    HW269646   9.316   8.482   4.593
55958SOL     OW69647  11.881   4.018   5.548
55958SOL    HW169648  11.965   3.990   5.511
55958SOL    HW269649  11.870   4.107   5.516
55959SOL     OW69650   1.026   9.150   1.394
55959SOL    HW169651   0.943   9.193   1.416
55959SOL    HW269652   1.063   9.204   1.325
55960SOL     OW69653  11.068   0.618  10.084
55960SOL    HW169654  11.085   0.598  10.176
55960SOL    HW269655  10.973   0.622  10.077
55961SOL     OW69656   0.272  11.029   6.216
55961SOL    HW169657   0.246  11.116   6.187
55961SOL    HW269658   0.335  11.000   6.150
55962SOL     OW69659   3.872   7.726   2.128
55962SOL    HW169660   3.932   7.793   2.162
55962SOL    HW269661   3.929   7.669   2.076
55963SOL     OW69662   4.697  14.580   6.198
55963SOL    HW169663   4.750  14.533   6.262
55963SOL    HW269664   4.750  14.579   6.118
55964SOL     OW69665   3.814  13.663   0.929
55964SOL    HW169666   3.851  13.593   0.875
55964SOL    HW269667   3.765  13.718   0.868
55965SOL     OW69668   8.690  11.193   7.946
55965SOL    HW169669   8.657  11.191   7.857
55965SOL    HW269670   8.665  11.109   7.984
55966SOL     OW69671  11.241  11.388   9.691
55966SOL    HW169672  11.244  11.437   9.609
55966SOL    HW269673  11.235  11.296   9.665
55967SOL     OW69674  12.048  10.776   4.080
55967SOL    HW169675  12.071  10.793   4.171
55967SOL    HW269676  12.037  10.862   4.041
55968SOL     OW69677   6.427  12.326   9.444
55968SOL    HW169678   6.408  12.419   9.428
55968SOL    HW269679   6.481  12.326   9.522
55969SOL     OW69680   5.972   8.758   3.823
55969SOL    HW169681   5.881   8.765   3.792
55969SOL    HW269682   5.996   8.667   3.804
55970SOL     OW69683   1.507   0.435   0.619
55970SOL    HW169684   1.555   0.517   0.634
55970SOL    HW269685   1.572   0.377   0.579
55971SOL     OW69686   9.417   4.332   8.142
55971SOL    HW169687   9.414   4.426   8.159
55971SOL    HW269688   9.326   4.309   8.121
55972SOL     OW69689  13.503   2.958   5.992
55972SOL    HW169690  13.571   3.012   5.953
55972SOL    HW269691  13.525   2.869   5.965
55973SOL     OW69692   9.425   3.028  14.854
55973SOL    HW169693   9.334   2.998  14.854
55973SOL    HW269694   9.441   3.056   0.062
55974SOL     OW69695  10.312  14.826   0.263
55974SOL    HW169696  10.276  14.808   0.349
55974SOL    HW269697  10.237  14.852   0.210
55975SOL     OW69698   6.468   1.559   7.413
55975SOL    HW169699   6.542   1.498   7.420
55975SOL    HW269700   6.508   1.643   7.391
55976SOL     OW69701   4.202  12.500   2.758
55976SOL    HW169702   4.174  12.545   2.837
55976SOL    HW269703   4.222  12.571   2.696
55977SOL     OW69704   4.969   0.678   7.408
55977SOL    HW169705   4.946   0.665   7.500
55977SOL    HW269706   5.062   0.657   7.404
55978SOL     OW69707  12.257  10.772  13.467
55978SOL    HW169708  12.192  10.836  13.495
55978SOL    HW269709  12.219  10.688  13.490
55979SOL     OW69710  11.432   4.513   8.218
55979SOL    HW169711  11.446   4.453   8.292
55979SOL    HW269712  11.428   4.600   8.258
55980SOL     OW69713  12.259  10.524   6.272
55980SOL    HW169714  12.308  10.531   6.354
55980SOL    HW269715  12.292  10.596   6.218
55981SOL     OW69716   9.402  14.875   1.647
55981SOL    HW169717   9.369  14.877   1.557
55981SOL    HW269718   9.330   0.026   1.700
55982SOL     OW69719   2.025   4.490  11.220
55982SOL    HW169720   2.006   4.473  11.312
55982SOL    HW269721   2.083   4.419  11.193
55983SOL     OW69722   3.244  12.389   2.854
55983SOL    HW169723   3.273  12.463   2.801
55983SOL    HW269724   3.163  12.418   2.895
55984SOL     OW69725  13.921   6.555   4.402
55984SOL    HW169726  13.988   6.614   4.366
55984SOL    HW269727  13.838   6.593   4.374
55985SOL     OW69728  12.073   2.511   0.040
55985SOL    HW169729  12.128   2.584   0.070
55985SOL    HW269730  12.048   2.466   0.120
55986SOL     OW69731   0.969  13.070   5.460
55986SOL    HW169732   0.987  13.157   5.424
55986SOL    HW269733   0.892  13.039   5.411
55987SOL     OW69734   9.212   8.123   6.974
55987SOL    HW169735   9.245   8.045   7.019
55987SOL    HW269736   9.211   8.190   7.042
55988SOL     OW69737   2.375   5.697  11.860
55988SOL    HW169738   2.322   5.623  11.832
55988SOL    HW269739   2.332   5.774  11.823
55989SOL     OW69740  12.249  12.029   0.006
55989SOL    HW169741  12.268  12.070   0.091
55989SOL    HW269742  12.156  12.006   0.011
55990SOL     OW69743   1.012   7.634  12.429
55990SOL    HW169744   0.917   7.642  12.443
55990SOL    HW269745   1.025   7.662  12.339
55991SOL     OW69746   8.295   1.327  12.827
55991SOL    HW169747   8.265   1.330  12.736
55991SOL    HW269748   8.365   1.262  12.827
55992SOL     OW69749   4.467  11.077   8.276
55992SOL    HW169750   4.473  11.010   8.208
55992SOL    HW269751   4.410  11.144   8.239
55993SOL     OW69752   2.673   2.810  11.221
55993SOL    HW169753   2.647   2.718  11.229
55993SOL    HW269754   2.644   2.836  11.134
55994SOL     OW69755  10.592   9.927   2.869
55994SOL    HW169756  10.674   9.973   2.848
55994SOL    HW269757  10.621   9.839   2.895
55995SOL     OW69758   7.571   3.906   2.128
55995SOL    HW169759   7.616   3.991   2.132
55995SOL    HW269760   7.478   3.928   2.131
55996SOL     OW69761   4.261   7.316   6.859
55996SOL    HW169762   4.348   7.288   6.830
55996SOL    HW269763   4.275   7.346   6.949
55997SOL     OW69764  14.340  12.761  14.291
55997SOL    HW169765  14.278  12.822  14.252
55997SOL    HW269766  14.380  12.811  14.362
55998SOL     OW69767   8.197  14.562   5.837
55998SOL    HW169768   8.145  14.557   5.756
55998SOL    HW269769   8.181  14.650   5.870
55999SOL     OW69770   5.242   4.320   6.867
55999SOL    HW169771   5.308   4.294   6.931
55999SOL    HW269772   5.216   4.239   6.824
56000SOL     OW69773   4.311  14.571   5.275
56000SOL    HW169774   4.323  14.642   5.338
56000SOL    HW269775   4.399  14.548   5.247
56001SOL     OW69776   1.072  10.880   2.152
56001SOL    HW169777   0.989  10.859   2.195
56001SOL    HW269778   1.116  10.796   2.144
56002SOL     OW69779   9.876   7.261   9.702
56002SOL    HW169780   9.849   7.180   9.746
56002SOL    HW269781   9.964   7.241   9.668
56003SOL     OW69782  11.850   5.626  12.000
56003SOL    HW169783  11.901   5.653  11.924
56003SOL    HW269784  11.874   5.535  12.015
56004SOL     OW69785   4.758  10.984   3.424
56004SOL    HW169786   4.772  11.046   3.351
56004SOL    HW269787   4.663  10.975   3.429
56005SOL     OW69788  10.242   1.381   5.601
56005SOL    HW169789  10.180   1.400   5.671
56005SOL    HW269790  10.207   1.427   5.525
56006SOL     OW69791  14.763  14.502   7.000
56006SOL    HW169792  14.783  14.595   6.988
56006SOL    HW269793  14.682  14.489   6.951
56007SOL     OW69794   5.529  11.042   7.651
56007SOL    HW169795   5.496  11.108   7.590
56007SOL    HW269796   5.469  10.968   7.642
56008SOL     OW69797   4.191   7.399  14.218
56008SOL    HW169798   4.278   7.373  14.190
56008SOL    HW269799   4.205   7.442  14.303
56009SOL     OW69800  13.705  13.779  11.304
56009SOL    HW169801  13.727  13.862  11.347
56009SOL    HW269802  13.760  13.777  11.226
56010SOL     OW69803   7.487  13.479   1.905
56010SOL    HW169804   7.540  13.548   1.866
56010SOL    HW269805   7.528  13.398   1.875
56011SOL     OW69806   7.535  13.500   6.972
56011SOL    HW169807   7.516  13.409   6.994
56011SOL    HW269808   7.557  13.541   7.056
56012SOL     OW69809   5.376   4.647   9.806
56012SOL    HW169810   5.466   4.662   9.774
56012SOL    HW269811   5.339   4.735   9.814
56013SOL     OW69812   7.610   0.165   1.189
56013SOL    HW169813   7.657   0.086   1.163
56013SOL    HW269814   7.679   0.227   1.211
56014SOL     OW69815   6.035  12.884  14.085
56014SOL    HW169816   5.996  12.838  14.160
56014SOL    HW269817   6.003  12.836  14.009
56015SOL     OW69818   9.283   7.255   6.797
56015SOL    HW169819   9.344   7.319   6.835
56015SOL    HW269820   9.212   7.250   6.861
56016SOL     OW69821   0.288   5.121   7.954
56016SOL    HW169822   0.291   5.048   7.892
56016SOL    HW269823   0.203   5.162   7.939
56017SOL     OW69824   1.406   3.129   4.912
56017SOL    HW169825   1.331   3.140   4.853
56017SOL    HW269826   1.405   3.206   4.968
56018SOL     OW69827   4.952   2.368   7.235
56018SOL    HW169828   4.937   2.344   7.143
56018SOL    HW269829   4.879   2.327   7.282
56019SOL     OW69830   9.604  13.229  13.685
56019SOL    HW169831   9.558  13.146  13.693
56019SOL    HW269832   9.576  13.265  13.601
56020SOL     OW69833  10.387  14.627  10.050
56020SOL    HW169834  10.349  14.627  10.138
56020SOL    HW269835  10.472  14.670  10.060
56021SOL     OW69836   1.508  13.931  11.893
56021SOL    HW169837   1.584  13.885  11.927
56021SOL    HW269838   1.491  14.001  11.956
56022SOL     OW69839   2.013   0.871   1.153
56022SOL    HW169840   2.024   0.966   1.146
56022SOL    HW269841   2.032   0.852   1.245
56023SOL     OW69842   2.134   0.304  10.367
56023SOL    HW169843   2.117   0.233  10.429
56023SOL    HW269844   2.180   0.262  10.295
56024SOL     OW69845  14.259  13.551   5.609
56024SOL    HW169846  14.189  13.512   5.557
56024SOL    HW269847  14.266  13.493   5.686
56025SOL     OW69848   6.807   3.612  14.237
56025SOL    HW169849   6.821   3.613  14.331
56025SOL    HW269850   6.811   3.704  14.211
56026SOL     OW69851   9.430  13.836   2.557
56026SOL    HW169852   9.474  13.885   2.626
56026SOL    HW269853   9.359  13.893   2.529
56027SOL     OW69854   8.740   0.716   5.202
56027SOL    HW169855   8.693   0.747   5.280
56027SOL    HW269856   8.718   0.780   5.134
56028SOL     OW69857   7.123   1.276  12.910
56028SOL    HW169858   7.031   1.282  12.937
56028SOL    HW269859   7.144   1.183  12.918
56029SOL     OW69860   9.433   8.742  11.264
56029SOL    HW169861   9.443   8.658  11.309
56029SOL    HW269862   9.430   8.719  11.171
56030SOL     OW69863   0.854  13.383   9.373
56030SOL    HW169864   0.915  13.407   9.302
56030SOL    HW269865   0.811  13.465   9.396
56031SOL     OW69866   3.549   1.174  10.695
56031SOL    HW169867   3.624   1.122  10.724
56031SOL    HW269868   3.492   1.179  10.771
56032SOL     OW69869   1.003  12.058   6.919
56032SOL    HW169870   0.982  12.044   6.827
56032SOL    HW269871   0.951  12.135   6.944
56033SOL     OW69872   6.417   5.664  14.202
56033SOL    HW169873   6.483   5.596  14.191
56033SOL    HW269874   6.455   5.724  14.265
56034SOL     OW69875  12.532   4.317   9.064
56034SOL    HW169876  12.466   4.315   8.994
56034SOL    HW269877  12.566   4.407   9.062
56035SOL     OW69878  14.132   8.061   4.408
56035SOL    HW169879  14.096   8.029   4.491
56035SOL    HW269880  14.094   8.148   4.398
56036SOL     OW69881   2.866   3.522   5.482
56036SOL    HW169882   2.833   3.447   5.432
56036SOL    HW269883   2.870   3.491   5.572
56037SOL     OW69884   5.915  10.294   7.268
56037SOL    HW169885   5.865  10.214   7.253
56037SOL    HW269886   5.935  10.327   7.181
56038SOL     OW69887   1.630   5.095   5.870
56038SOL    HW169888   1.629   5.167   5.934
56038SOL    HW269889   1.586   5.130   5.793
56039SOL     OW69890   8.649   4.940   1.556
56039SOL    HW169891   8.608   4.942   1.642
56039SOL    HW269892   8.734   4.981   1.569
56040SOL     OW69893   7.717   9.942   9.139
56040SOL    HW169894   7.756  10.016   9.091
56040SOL    HW269895   7.623   9.952   9.125
56041SOL     OW69896  10.806  14.421   3.656
56041SOL    HW169897  10.746  14.485   3.695
56041SOL    HW269898  10.804  14.440   3.562
56042SOL     OW69899  12.639  13.445  11.654
56042SOL    HW169900  12.716  13.413  11.701
56042SOL    HW269901  12.602  13.513  11.711
56043SOL     OW69902  12.435   2.340   4.818
56043SOL    HW169903  12.388   2.416   4.852
56043SOL    HW269904  12.366   2.285   4.779
56044SOL     OW69905   8.240   2.864   5.163
56044SOL    HW169906   8.200   2.870   5.077
56044SOL    HW269907   8.168   2.882   5.224
56045SOL     OW69908   5.365   5.467   0.231
56045SOL    HW169909   5.445   5.512   0.260
56045SOL    HW269910   5.301   5.538   0.219
56046SOL     OW69911   8.117   0.380  11.990
56046SOL    HW169912   8.024   0.405  11.994
56046SOL    HW269913   8.129   0.351  11.900
56047SOL     OW69914   1.572   5.467   5.572
56047SOL    HW169915   1.571   5.563   5.576
56047SOL    HW269916   1.575   5.447   5.478
56048SOL     OW69917   9.950   2.981   4.329
56048SOL    HW169918   9.920   3.058   4.280
56048SOL    HW269919   9.978   3.016   4.414
56049SOL     OW69920   9.162   4.745  14.529
56049SOL    HW169921   9.116   4.675  14.483
56049SOL    HW269922   9.106   4.822  14.519
56050SOL     OW69923   4.877   1.625   7.592
56050SOL    HW169924   4.918   1.632   7.507
56050SOL    HW269925   4.881   1.532   7.614
56051SOL     OW69926  13.135  10.309   7.178
56051SOL    HW169927  13.099  10.395   7.156
56051SOL    HW269928  13.060  10.257   7.206
56052SOL     OW69929  12.798   0.043   7.022
56052SOL    HW169930  12.841  14.845   6.990
56052SOL    HW269931  12.839   0.114   6.973
56053SOL     OW69932  14.013   0.894  13.922
56053SOL    HW169933  14.031   0.800  13.925
56053SOL    HW269934  14.099   0.935  13.924
56054SOL     OW69935   0.569   5.286  13.776
56054SOL    HW169936   0.646   5.339  13.756
56054SOL    HW269937   0.520   5.338  13.840
56055SOL     OW69938   9.234  12.308   5.772
56055SOL    HW169939   9.152  12.304   5.723
56055SOL    HW269940   9.209  12.339   5.859
56056SOL     OW69941   9.955   7.884   0.855
56056SOL    HW169942   9.862   7.896   0.837
56056SOL    HW269943   9.988   7.973   0.871
56057SOL     OW69944   2.348   0.563   6.173
56057SOL    HW169945   2.410   0.491   6.185
56057SOL    HW269946   2.334   0.598   6.261
56058SOL     OW69947   6.415  14.301   2.228
56058SOL    HW169948   6.502  14.341   2.221
56058SOL    HW269949   6.397  14.266   2.141
56059SOL     OW69950   3.810   4.304   6.340
56059SOL    HW169951   3.742   4.256   6.293
56059SOL    HW269952   3.890   4.255   6.324
56060SOL     OW69953   2.862   6.573  12.792
56060SOL    HW169954   2.942   6.524  12.773
56060SOL    HW269955   2.800   6.545  12.726
56061SOL     OW69956  13.285   0.302   5.279
56061SOL    HW169957  13.242   0.218   5.260
56061SOL    HW269958  13.214   0.366   5.271
56062SOL     OW69959   9.367  13.713   1.367
56062SOL    HW169960   9.350  13.683   1.277
56062SOL    HW269961   9.453  13.754   1.362
56063SOL     OW69962   3.669   0.142   9.391
56063SOL    HW169963   3.679   0.078   9.320
56063SOL    HW269964   3.691   0.093   9.470
56064SOL     OW69965  13.249   0.221  10.275
56064SOL    HW169966  13.191   0.234  10.350
56064SOL    HW269967  13.333   0.195  10.313
56065SOL     OW69968  13.678  14.341   8.437
56065SOL    HW169969  13.727  14.398   8.497
56065SOL    HW269970  13.717  14.358   8.351
56066SOL     OW69971   4.619  14.803   2.937
56066SOL    HW169972   4.684  14.836   2.875
56066SOL    HW269973   4.572  14.881   2.966
56067SOL     OW69974  13.413   8.307  10.216
56067SOL    HW169975  13.362   8.238  10.258
56067SOL    HW269976  13.471   8.260  10.155
56068SOL     OW69977  12.503  10.592   5.820
56068SOL    HW169978  12.471  10.682   5.807
56068SOL    HW269979  12.425  10.538   5.817
56069SOL     OW69980   6.613   9.716   1.354
56069SOL    HW169981   6.575   9.744   1.271
56069SOL    HW269982   6.589   9.785   1.416
56070SOL     OW69983   5.818   5.271   2.663
56070SOL    HW169984   5.745   5.256   2.604
56070SOL    HW269985   5.812   5.201   2.728
56071SOL     OW69986  14.265   1.499  14.871
56071SOL    HW169987  14.278   1.477  14.779
56071SOL    HW269988  14.317   1.435   0.037
56072SOL     OW69989   8.035   7.831   1.641
56072SOL    HW169990   8.069   7.912   1.602
56072SOL    HW269991   7.941   7.833   1.623
56073SOL     OW69992   9.782   8.714   4.450
56073SOL    HW169993   9.823   8.794   4.417
56073SOL    HW269994   9.688   8.733   4.447
56074SOL     OW69995  13.189  12.219  11.436
56074SOL    HW169996  13.192  12.139  11.384
56074SOL    HW269997  13.150  12.284  11.378
56075SOL     OW69998   9.429  10.010   3.017
56075SOL    HW169999   9.513  10.036   2.981
56075SOL    HW270000   9.366  10.073   2.981
56076SOL     OW70001  12.057   5.374   4.479
56076SOL    HW170002  11.968   5.388   4.446
56076SOL    HW270003  12.092   5.304   4.424
56077SOL     OW70004  14.427  10.123   3.350
56077SOL    HW170005  14.482  10.201   3.341
56077SOL    HW270006  14.451  10.087   3.435
56078SOL     OW70007   8.184   4.985   5.460
56078SOL    HW170008   8.193   5.064   5.515
56078SOL    HW270009   8.194   4.912   5.522
56079SOL     OW70010  11.241  12.462  10.134
56079SOL    HW170011  11.222  12.421  10.218
56079SOL    HW270012  11.329  12.433  10.112
56080SOL     OW70013   8.160   5.127   8.253
56080SOL    HW170014   8.152   5.161   8.343
56080SOL    HW270015   8.135   5.201   8.198
56081SOL     OW70016   3.094   1.154   9.838
56081SOL    HW170017   3.113   1.246   9.822
56081SOL    HW270018   3.153   1.129   9.908
56082SOL     OW70019   4.790   3.955  10.238
56082SOL    HW170020   4.827   4.041  10.215
56082SOL    HW270021   4.836   3.929  10.318
56083SOL     OW70022  10.052   3.402   3.389
56083SOL    HW170023  10.024   3.316   3.356
56083SOL    HW270024  10.002   3.465   3.337
56084SOL     OW70025   7.506   3.731  10.185
56084SOL    HW170026   7.416   3.724  10.154
56084SOL    HW270027   7.500   3.714  10.279
56085SOL     OW70028   4.777   2.741  12.344
56085SOL    HW170029   4.744   2.793  12.271
56085SOL    HW270030   4.727   2.771  12.420
56086SOL     OW70031  14.242   9.043  12.274
56086SOL    HW170032  14.309   8.975  12.267
56086SOL    HW270033  14.291   9.124  12.287
56087SOL     OW70034  12.313   2.680   9.974
56087SOL    HW170035  12.312   2.765  10.019
56087SOL    HW270036  12.223   2.668   9.945
56088SOL     OW70037   0.565  11.082  13.865
56088SOL    HW170038   0.624  11.035  13.925
56088SOL    HW270039   0.583  11.174  13.882
56089SOL     OW70040   5.134   8.213  13.433
56089SOL    HW170041   5.166   8.126  13.456
56089SOL    HW270042   5.187   8.239  13.358
56090SOL     OW70043   9.291   2.062   0.878
56090SOL    HW170044   9.350   2.133   0.902
56090SOL    HW270045   9.208   2.083   0.921
56091SOL     OW70046   4.616   1.512  12.380
56091SOL    HW170047   4.567   1.439  12.344
56091SOL    HW270048   4.688   1.525  12.318
56092SOL     OW70049  11.282   4.495   5.463
56092SOL    HW170050  11.350   4.562   5.475
56092SOL    HW270051  11.233   4.525   5.387
56093SOL     OW70052   8.932   1.546  11.947
56093SOL    HW170053   8.904   1.540  11.855
56093SOL    HW270054   9.007   1.605  11.945
56094SOL     OW70055   1.026   4.730   3.313
56094SOL    HW170056   1.030   4.649   3.261
56094SOL    HW270057   0.938   4.730   3.351
56095SOL     OW70058   2.420  14.281   4.918
56095SOL    HW170059   2.389  14.200   4.876
56095SOL    HW270060   2.406  14.265   5.011
56096SOL     OW70061  12.149   9.092   2.237
56096SOL    HW170062  12.201   9.012   2.233
56096SOL    HW270063  12.173   9.141   2.158
56097SOL     OW70064   7.985   1.746  12.941
56097SOL    HW170065   8.005   1.682  12.873
56097SOL    HW270066   8.055   1.811  12.935
56098SOL     OW70067   9.274   3.282   7.872
56098SOL    HW170068   9.209   3.297   7.940
56098SOL    HW270069   9.246   3.201   7.829
56099SOL     OW70070  12.808  13.057  11.108
56099SOL    HW170071  12.822  13.052  11.014
56099SOL    HW270072  12.751  13.133  11.121
56100SOL     OW70073  14.124   4.516   8.924
56100SOL    HW170074  14.217   4.493   8.918
56100SOL    HW270075  14.110   4.534   9.017
56101SOL     OW70076   8.270   8.390  10.144
56101SOL    HW170077   8.296   8.453  10.077
56101SOL    HW270078   8.188   8.424  10.178
56102SOL     OW70079   2.723  12.013   1.542
56102SOL    HW170080   2.651  12.006   1.604
56102SOL    HW270081   2.694  11.964   1.465
56103SOL     OW70082   2.970   0.207  10.579
56103SOL    HW170083   2.911   0.178  10.510
56103SOL    HW270084   2.963   0.303  10.578
56104SOL     OW70085   0.104  11.869   2.143
56104SOL    HW170086   0.066  11.926   2.210
56104SOL    HW270087   0.036  11.805   2.124
56105SOL     OW70088   8.847   8.480   5.829
56105SOL    HW170089   8.805   8.515   5.908
56105SOL    HW270090   8.798   8.519   5.756
56106SOL     OW70091   3.034   2.428   4.536
56106SOL    HW170092   3.002   2.518   4.529
56106SOL    HW270093   3.097   2.430   4.608
56107SOL     OW70094   7.659  14.473   7.835
56107SOL    HW170095   7.677  14.471   7.929
56107SOL    HW270096   7.634  14.563   7.816
56108SOL     OW70097  11.518   7.111  11.868
56108SOL    HW170098  11.425   7.091  11.855
56108SOL    HW270099  11.525   7.132  11.961
56109SOL     OW70100   6.201  10.809  12.112
56109SOL    HW170101   6.125  10.849  12.154
56109SOL    HW270102   6.249  10.767  12.183
56110SOL     OW70103   6.848   5.490   4.660
56110SOL    HW170104   6.819   5.452   4.578
56110SOL    HW270105   6.882   5.416   4.710
56111SOL     OW70106   9.384   0.020  14.495
56111SOL    HW170107   9.432  14.834  14.545
56111SOL    HW270108   9.393  14.875  14.404
56112SOL     OW70109   6.512   3.544   2.302
56112SOL    HW170110   6.530   3.634   2.331
56112SOL    HW270111   6.515   3.492   2.382
56113SOL     OW70112   1.787  14.096   8.699
56113SOL    HW170113   1.712  14.038   8.711
56113SOL    HW270114   1.751  14.174   8.657
56114SOL     OW70115   8.014   2.726  12.770
56114SOL    HW170116   7.982   2.706  12.682
56114SOL    HW270117   8.092   2.779  12.756
56115SOL     OW70118   2.350  14.093  14.561
56115SOL    HW170119   2.335  14.156  14.491
56115SOL    HW270120   2.329  14.008  14.523
56116SOL     OW70121  12.367   2.514  13.313
56116SOL    HW170122  12.336   2.603  13.330
56116SOL    HW270123  12.303   2.457  13.355
56117SOL     OW70124   1.138   2.473   8.010
56117SOL    HW170125   1.177   2.469   7.922
56117SOL    HW270126   1.200   2.523   8.062
56118SOL     OW70127   0.709   6.136   9.516
56118SOL    HW170128   0.664   6.057   9.487
56118SOL    HW270129   0.651   6.175   9.581
56119SOL     OW70130   7.606  12.218  13.009
56119SOL    HW170131   7.591  12.261  13.094
56119SOL    HW270132   7.630  12.129  13.031
56120SOL     OW70133  13.372  14.125  13.740
56120SOL    HW170134  13.333  14.148  13.656
56120SOL    HW270135  13.328  14.044  13.766
56121SOL     OW70136   4.805   9.558   5.930
56121SOL    HW170137   4.844   9.593   5.850
56121SOL    HW270138   4.851   9.602   6.001
56122SOL     OW70139   6.966   2.754  10.008
56122SOL    HW170140   7.044   2.807   9.993
56122SOL    HW270141   6.995   2.664   9.995
56123SOL     OW70142   8.706   0.741   7.315
56123SOL    HW170143   8.678   0.740   7.224
56123SOL    HW270144   8.763   0.817   7.322
56124SOL     OW70145   4.854   6.804   2.559
56124SOL    HW170146   4.854   6.829   2.467
56124SOL    HW270147   4.779   6.745   2.568
56125SOL     OW70148   1.650   6.660  11.918
56125SOL    HW170149   1.707   6.624  11.851
56125SOL    HW270150   1.710   6.703  11.979
56126SOL     OW70151  14.361   8.724   4.436
56126SOL    HW170152  14.412   8.803   4.450
56126SOL    HW270153  14.289   8.752   4.380
56127SOL     OW70154   7.768   8.352   3.876
56127SOL    HW170155   7.713   8.372   3.952
56127SOL    HW270156   7.755   8.258   3.862
56128SOL     OW70157  11.583  11.139  14.062
56128SOL    HW170158  11.570  11.126  13.968
56128SOL    HW270159  11.505  11.188  14.090
56129SOL     OW70160   6.664  14.111  10.606
56129SOL    HW170161   6.627  14.196  10.583
56129SOL    HW270162   6.731  14.129  10.671
56130SOL     OW70163  11.556  11.502   1.679
56130SOL    HW170164  11.652  11.508   1.676
56130SOL    HW270165  11.533  11.543   1.762
56131SOL     OW70166   7.259   5.182   5.616
56131SOL    HW170167   7.292   5.234   5.690
56131SOL    HW270168   7.239   5.248   5.549
56132SOL     OW70169   4.036  11.216   2.262
56132SOL    HW170170   4.128  11.193   2.274
56132SOL    HW270171   4.011  11.257   2.344
56133SOL     OW70172  12.620   7.280  10.636
56133SOL    HW170173  12.533   7.268  10.675
56133SOL    HW270174  12.604   7.285  10.542
56134SOL     OW70175   1.383   7.820  14.490
56134SOL    HW170176   1.319   7.856  14.551
56134SOL    HW270177   1.421   7.897  14.447
56135SOL     OW70178  11.841   6.805  13.681
56135SOL    HW170179  11.866   6.781  13.770
56135SOL    HW270180  11.745   6.801  13.682
56136SOL     OW70181   4.890   1.672   0.516
56136SOL    HW170182   4.795   1.666   0.506
56136SOL    HW270183   4.918   1.581   0.526
56137SOL     OW70184   1.924  12.594   1.181
56137SOL    HW170185   1.991  12.625   1.121
56137SOL    HW270186   1.958  12.616   1.268
56138SOL     OW70187   3.827   0.822   0.569
56138SOL    HW170188   3.804   0.912   0.544
56138SOL    HW270189   3.881   0.833   0.647
56139SOL     OW70190   6.792  13.122   9.167
56139SOL    HW170191   6.782  13.049   9.228
56139SOL    HW270192   6.729  13.187   9.196
56140SOL     OW70193   7.806   3.309   8.441
56140SOL    HW170194   7.767   3.227   8.410
56140SOL    HW270195   7.858   3.340   8.367
56141SOL     OW70196   9.799  14.353  12.266
56141SOL    HW170197   9.826  14.262  12.259
56141SOL    HW270198   9.723  14.360  12.208
56142SOL     OW70199   6.749  13.843  13.347
56142SOL    HW170200   6.730  13.853  13.440
56142SOL    HW270201   6.690  13.773  13.317
56143SOL     OW70202   2.922   3.142   6.233
56143SOL    HW170203   2.991   3.144   6.300
56143SOL    HW270204   2.969   3.125   6.152
56144SOL     OW70205   6.863  12.743   8.644
56144SOL    HW170206   6.797  12.732   8.575
56144SOL    HW270207   6.943  12.709   8.606
56145SOL     OW70208   5.881  11.841  10.428
56145SOL    HW170209   5.842  11.928  10.425
56145SOL    HW270210   5.821  11.789  10.481
56146SOL     OW70211  10.450   2.391  13.188
56146SOL    HW170212  10.362   2.379  13.225
56146SOL    HW270213  10.452   2.334  13.111
56147SOL     OW70214  13.968   9.834   3.939
56147SOL    HW170215  13.888   9.830   3.887
56147SOL    HW270216  13.967   9.753   3.990
56148SOL     OW70217   0.219   1.601   8.982
56148SOL    HW170218   0.312   1.615   8.995
56148SOL    HW270219   0.179   1.624   9.067
56149SOL     OW70220  13.203  13.714  12.879
56149SOL    HW170221  13.269  13.713  12.809
56149SOL    HW270222  13.125  13.750  12.837
56150SOL     OW70223   9.183  14.037   9.673
56150SOL    HW170224   9.234  14.087   9.738
56150SOL    HW270225   9.245  14.021   9.602
56151SOL     OW70226  12.163   9.462  13.775
56151SOL    HW170227  12.243   9.456  13.723
56151SOL    HW270228  12.147   9.556  13.783
56152SOL     OW70229   6.866  14.276   4.347
56152SOL    HW170230   6.812  14.309   4.419
56152SOL    HW270231   6.897  14.191   4.377
56153SOL     OW70232  13.273   9.992  10.651
56153SOL    HW170233  13.297   9.904  10.623
56153SOL    HW270234  13.296   9.995  10.744
56154SOL     OW70235  11.508  13.248  11.870
56154SOL    HW170236  11.414  13.249  11.891
56154SOL    HW270237  11.514  13.192  11.792
56155SOL     OW70238  11.762  14.566  11.467
56155SOL    HW170239  11.795  14.541  11.381
56155SOL    HW270240  11.790  14.496  11.526
56156SOL     OW70241   0.895  12.405   7.929
56156SOL    HW170242   0.948  12.399   7.849
56156SOL    HW270243   0.866  12.496   7.931
56157SOL     OW70244  12.594   0.152   8.542
56157SOL    HW170245  12.506   0.186   8.525
56157SOL    HW270246  12.626   0.123   8.457
56158SOL     OW70247   3.816   7.117   6.703
56158SOL    HW170248   3.845   7.170   6.629
56158SOL    HW270249   3.727   7.149   6.721
56159SOL     OW70250   7.520  12.805  14.773
56159SOL    HW170251   7.567  12.870  14.719
56159SOL    HW270252   7.570  12.724  14.762
56160SOL     OW70253   4.850  11.276   2.074
56160SOL    HW170254   4.755  11.275   2.064
56160SOL    HW270255   4.883  11.313   1.992
56161SOL     OW70256  11.819   0.043   2.820
56161SOL    HW170257  11.830   0.059   2.726
56161SOL    HW270258  11.818   0.130   2.860
56162SOL     OW70259   4.485   7.334  10.287
56162SOL    HW170260   4.501   7.422  10.320
56162SOL    HW270261   4.422   7.346  10.217
56163SOL     OW70262   8.350   6.152  13.658
56163SOL    HW170263   8.261   6.165  13.692
56163SOL    HW270264   8.337   6.098  13.580
56164SOL     OW70265   1.074   5.845  10.106
56164SOL    HW170266   0.998   5.857  10.162
56164SOL    HW270267   1.102   5.755  10.121
56165SOL     OW70268   3.055   5.498  10.779
56165SOL    HW170269   3.131   5.556  10.779
56165SOL    HW270270   3.078   5.429  10.717
56166SOL     OW70271   2.944   3.507   0.436
56166SOL    HW170272   2.972   3.416   0.428
56166SOL    HW270273   2.886   3.508   0.512
56167SOL     OW70274  10.802   6.101   5.225
56167SOL    HW170275  10.865   6.073   5.291
56167SOL    HW270276  10.775   6.189   5.253
56168SOL     OW70277   0.574   6.922   4.803
56168SOL    HW170278   0.621   7.005   4.814
56168SOL    HW270279   0.639   6.863   4.765
56169SOL     OW70280   9.448   8.643   5.894
56169SOL    HW170281   9.379   8.667   5.833
56169SOL    HW270282   9.485   8.562   5.858
56170SOL     OW70283   4.607   3.475   0.991
56170SOL    HW170284   4.640   3.436   1.072
56170SOL    HW270285   4.513   3.486   1.006
56171SOL     OW70286   0.930  11.605  13.544
56171SOL    HW170287   0.897  11.534  13.598
56171SOL    HW270288   0.855  11.632  13.491
56172SOL     OW70289  12.372   3.311   2.088
56172SOL    HW170290  12.462   3.282   2.073
56172SOL    HW270291  12.371   3.341   2.179
56173SOL     OW70292  13.448   7.267  13.001
56173SOL    HW170293  13.505   7.304  13.068
56173SOL    HW270294  13.373   7.234  13.049
56174SOL     OW70295   7.861   9.733   4.682
56174SOL    HW170296   7.836   9.785   4.606
56174SOL    HW270297   7.953   9.755   4.698
56175SOL     OW70298  12.583   7.907  12.656
56175SOL    HW170299  12.583   7.839  12.590
56175SOL    HW270300  12.670   7.905  12.694
56176SOL     OW70301   3.797   2.266   9.293
56176SOL    HW170302   3.708   2.282   9.261
56176SOL    HW270303   3.806   2.171   9.291
56177SOL     OW70304  12.973   7.899   8.156
56177SOL    HW170305  12.958   7.973   8.216
56177SOL    HW270306  13.043   7.929   8.098
56178SOL     OW70307   4.619   6.226  14.137
56178SOL    HW170308   4.602   6.196  14.047
56178SOL    HW270309   4.602   6.150  14.192
56179SOL     OW70310  11.060  14.240   4.161
56179SOL    HW170311  10.985  14.298   4.147
56179SOL    HW270312  11.023  14.163   4.205
56180SOL     OW70313  12.968   5.307   7.505
56180SOL    HW170314  12.932   5.301   7.594
56180SOL    HW270315  13.062   5.316   7.518
56181SOL     OW70316   3.098   2.350  10.470
56181SOL    HW170317   3.177   2.305  10.441
56181SOL    HW270318   3.029   2.315  10.414
56182SOL     OW70319   2.799  14.297   2.450
56182SOL    HW170320   2.789  14.318   2.357
56182SOL    HW270321   2.878  14.244   2.454
56183SOL     OW70322   0.412  14.760  12.599
56183SOL    HW170323   0.341  14.732  12.656
56183SOL    HW270324   0.402  14.707  12.520
56184SOL     OW70325  13.566   0.058  14.734
56184SOL    HW170326  13.530   0.001  14.666
56184SOL    HW270327  13.514   0.038  14.812
56185SOL     OW70328   6.339   2.261   8.227
56185SOL    HW170329   6.369   2.171   8.236
56185SOL    HW270330   6.335   2.294   8.317
56186SOL     OW70331   9.759  14.652   0.911
56186SOL    HW170332   9.800  14.715   0.851
56186SOL    HW270333   9.774  14.567   0.871
56187SOL     OW70334   8.561  12.907   3.499
56187SOL    HW170335   8.637  12.965   3.507
56187SOL    HW270336   8.491  12.953   3.546
56188SOL     OW70337  13.220  12.530   9.142
56188SOL    HW170338  13.205  12.478   9.063
56188SOL    HW270339  13.133  12.563   9.165
56189SOL     OW70340  13.980   6.930  13.822
56189SOL    HW170341  14.001   6.900  13.910
56189SOL    HW270342  14.041   7.002  13.805
56190SOL     OW70343   8.461   5.309   8.396
56190SOL    HW170344   8.516   5.285   8.470
56190SOL    HW270345   8.466   5.234   8.336
56191SOL     OW70346  13.252   6.213   3.280
56191SOL    HW170347  13.176   6.162   3.253
56191SOL    HW270348  13.289   6.165   3.354
56192SOL     OW70349  11.182   0.402   3.875
56192SOL    HW170350  11.166   0.395   3.970
56192SOL    HW270351  11.248   0.470   3.867
56193SOL     OW70352   1.014  11.148   3.853
56193SOL    HW170353   0.954  11.220   3.829
56193SOL    HW270354   1.101  11.184   3.840
56194SOL     OW70355   2.755   9.821   7.305
56194SOL    HW170356   2.819   9.751   7.315
56194SOL    HW270357   2.778   9.863   7.222
56195SOL     OW70358   1.955   8.079   6.467
56195SOL    HW170359   1.929   7.990   6.443
56195SOL    HW270360   2.044   8.089   6.434
56196SOL     OW70361  13.332   9.589   2.007
56196SOL    HW170362  13.356   9.509   1.960
56196SOL    HW270363  13.309   9.559   2.095
56197SOL     OW70364  14.464   8.636   3.516
56197SOL    HW170365  14.479   8.692   3.439
56197SOL    HW270366  14.416   8.561   3.482
56198SOL     OW70367  13.154   0.155   7.026
56198SOL    HW170368  13.231   0.194   6.984
56198SOL    HW270369  13.183   0.138   7.116
56199SOL     OW70370   1.691   7.327   3.338
56199SOL    HW170371   1.768   7.379   3.314
56199SOL    HW270372   1.654   7.374   3.413
56200SOL     OW70373   5.318  10.196  13.587
56200SOL    HW170374   5.310  10.137  13.661
56200SOL    HW270375   5.233  10.192  13.543
56201SOL     OW70376   7.826  13.433   7.138
56201SOL    HW170377   7.887  13.468   7.203
56201SOL    HW270378   7.852  13.475   7.056
56202SOL     OW70379   2.398  13.789   3.034
56202SOL    HW170380   2.446  13.821   2.958
56202SOL    HW270381   2.379  13.867   3.085
56203SOL     OW70382   8.614   2.179   7.749
56203SOL    HW170383   8.576   2.245   7.807
56203SOL    HW270384   8.543   2.117   7.733
56204SOL     OW70385   4.472   5.610   9.855
56204SOL    HW170386   4.457   5.695   9.896
56204SOL    HW270387   4.464   5.547   9.926
56205SOL     OW70388   3.825  12.723   7.547
56205SOL    HW170389   3.900  12.760   7.593
56205SOL    HW270390   3.841  12.743   7.455
56206SOL     OW70391   3.370   5.007   5.368
56206SOL    HW170392   3.335   5.095   5.380
56206SOL    HW270393   3.374   4.971   5.457
56207SOL     OW70394   6.794  10.898  12.347
56207SOL    HW170395   6.833  10.878  12.262
56207SOL    HW270396   6.715  10.947  12.326
56208SOL     OW70397   5.673  14.256   7.170
56208SOL    HW170398   5.666  14.270   7.264
56208SOL    HW270399   5.617  14.324   7.131
56209SOL     OW70400  14.649   2.520   6.954
56209SOL    HW170401  14.692   2.526   6.869
56209SOL    HW270402  14.670   2.603   6.998
56210SOL     OW70403   0.753   8.548   4.501
56210SOL    HW170404   0.721   8.461   4.521
56210SOL    HW270405   0.687   8.607   4.538
56211SOL     OW70406  12.746  14.845  12.834
56211SOL    HW170407  12.838  14.824  12.845
56211SOL    HW270408  12.706  14.763  12.804
56212SOL     OW70409   6.797  11.273  10.702
56212SOL    HW170410   6.893  11.271  10.702
56212SOL    HW270411   6.775  11.350  10.649
56213SOL     OW70412  14.685   7.111   5.760
56213SOL    HW170413  14.676   7.105   5.665
56213SOL    HW270414  14.741   7.037   5.783
56214SOL     OW70415   1.553   9.728  13.794
56214SOL    HW170416   1.614   9.722  13.868
56214SOL    HW270417   1.565   9.645  13.747
56215SOL     OW70418   8.573   1.981   3.974
56215SOL    HW170419   8.489   1.954   4.012
56215SOL    HW270420   8.603   1.904   3.925
56216SOL     OW70421   2.959   3.654   2.637
56216SOL    HW170422   2.977   3.730   2.582
56216SOL    HW270423   2.866   3.661   2.657
56217SOL     OW70424   5.644  12.189   5.460
56217SOL    HW170425   5.599  12.202   5.544
56217SOL    HW270426   5.694  12.269   5.447
56218SOL     OW70427   4.145   0.553   6.546
56218SOL    HW170428   4.185   0.515   6.625
56218SOL    HW270429   4.089   0.483   6.513
56219SOL     OW70430   6.420  12.379   2.178
56219SOL    HW170431   6.384  12.449   2.232
56219SOL    HW270432   6.344  12.343   2.132
56220SOL     OW70433   8.491   9.373  10.747
56220SOL    HW170434   8.408   9.391  10.705
56220SOL    HW270435   8.468   9.328  10.828
56221SOL     OW70436  10.647   0.298   2.121
56221SOL    HW170437  10.709   0.296   2.194
56221SOL    HW270438  10.561   0.296   2.163
56222SOL     OW70439   1.557   2.107  11.375
56222SOL    HW170440   1.475   2.061  11.357
56222SOL    HW270441   1.604   2.048  11.435
56223SOL     OW70442  14.263  11.028  11.185
56223SOL    HW170443  14.336  11.068  11.138
56223SOL    HW270444  14.189  11.086  11.167
56224SOL     OW70445   3.744   8.701   7.950
56224SOL    HW170446   3.711   8.641   7.882
56224SOL    HW270447   3.839   8.704   7.935
56225SOL     OW70448   1.410   9.444  13.108
56225SOL    HW170449   1.321   9.432  13.074
56225SOL    HW270450   1.405   9.523  13.161
56226SOL     OW70451   3.150   8.927  14.386
56226SOL    HW170452   3.228   8.967  14.425
56226SOL    HW270453   3.077   8.974  14.425
56227SOL     OW70454  11.942   1.505   0.846
56227SOL    HW170455  12.026   1.511   0.801
56227SOL    HW270456  11.878   1.491   0.776
56228SOL     OW70457   7.688   8.474  11.652
56228SOL    HW170458   7.609   8.419  11.658
56228SOL    HW270459   7.743   8.429  11.588
56229SOL     OW70460   8.672   1.184   4.996
56229SOL    HW170461   8.595   1.186   4.940
56229SOL    HW270462   8.727   1.255   4.964
56230SOL     OW70463  13.669   6.362  11.453
56230SOL    HW170464  13.584   6.370  11.497
56230SOL    HW270465  13.668   6.275  11.413
56231SOL     OW70466   4.222   0.042  14.716
56231SOL    HW170467   4.157   0.112  14.710
56231SOL    HW270468   4.262   0.054  14.802
56232SOL     OW70469   8.983   5.344   6.339
56232SOL    HW170470   8.946   5.369   6.255
56232SOL    HW270471   9.076   5.329   6.320
56233SOL     OW70472  12.349   1.203   8.598
56233SOL    HW170473  12.381   1.288   8.628
56233SOL    HW270474  12.428   1.157   8.568
56234SOL     OW70475  11.901   4.486  11.015
56234SOL    HW170476  11.807   4.486  11.032
56234SOL    HW270477  11.920   4.574  10.983
56235SOL     OW70478   4.967   2.156   3.796
56235SOL    HW170479   4.892   2.143   3.853
56235SOL    HW270480   4.961   2.247   3.767
56236SOL     OW70481   1.808   3.516   0.764
56236SOL    HW170482   1.740   3.549   0.824
56236SOL    HW270483   1.765   3.513   0.679
56237SOL     OW70484  13.448  11.767  10.190
56237SOL    HW170485  13.413  11.848  10.228
56237SOL    HW270486  13.539  11.789  10.168
56238SOL     OW70487  10.264   4.744   7.911
56238SOL    HW170488  10.306   4.829   7.896
56238SOL    HW270489  10.187   4.765   7.965
56239SOL     OW70490  13.601   1.533   4.316
56239SOL    HW170491  13.508   1.552   4.301
56239SOL    HW270492  13.642   1.549   4.231
56240SOL     OW70493  11.213   6.572  13.214
56240SOL    HW170494  11.163   6.530  13.144
56240SOL    HW270495  11.292   6.606  13.171
56241SOL     OW70496  14.640  13.711   9.521
56241SOL    HW170497  14.712  13.774   9.517
56241SOL    HW270498  14.561  13.764   9.512
56242SOL     OW70499  12.588  10.237  12.405
56242SOL    HW170500  12.642  10.159  12.419
56242SOL    HW270501  12.598  10.288  12.485
56243SOL     OW70502   8.018  11.106  11.773
56243SOL    HW170503   8.038  11.199  11.780
56243SOL    HW270504   8.002  11.079  11.864
56244SOL     OW70505   4.412   1.211   2.053
56244SOL    HW170506   4.387   1.119   2.061
56244SOL    HW270507   4.414   1.227   1.958
56245SOL     OW70508  13.809   3.593   6.942
56245SOL    HW170509  13.865   3.581   6.866
56245SOL    HW270510  13.768   3.679   6.930
56246SOL     OW70511  14.780   7.462   0.390
56246SOL    HW170512  14.804   7.395   0.327
56246SOL    HW270513  14.693   7.491   0.363
56247SOL     OW70514   2.251   2.773   9.865
56247SOL    HW170515   2.303   2.821   9.930
56247SOL    HW270516   2.166   2.817   9.866
56248SOL     OW70517  14.435   4.261   0.428
56248SOL    HW170518  14.480   4.192   0.476
56248SOL    HW270519  14.386   4.216   0.359
56249SOL     OW70520   6.587   7.800  14.486
56249SOL    HW170521   6.558   7.881  14.528
56249SOL    HW270522   6.682   7.802  14.493
56250SOL     OW70523   6.401   7.617  13.787
56250SOL    HW170524   6.318   7.639  13.829
56250SOL    HW270525   6.429   7.537  13.831
56251SOL     OW70526   2.506   8.122   9.599
56251SOL    HW170527   2.487   8.064   9.525
56251SOL    HW270528   2.597   8.102   9.622
56252SOL     OW70529  14.723   9.683   8.579
56252SOL    HW170530  14.739   9.732   8.498
56252SOL    HW270531  14.795   9.709   8.637
56253SOL     OW70532   9.427   4.113  14.302
56253SOL    HW170533   9.340   4.107  14.263
56253SOL    HW270534   9.467   4.028  14.284
56254SOL     OW70535   0.769   8.422   3.574
56254SOL    HW170536   0.861   8.433   3.551
56254SOL    HW270537   0.745   8.503   3.619
56255SOL     OW70538   2.684   6.815  12.506
56255SOL    HW170539   2.669   6.815  12.412
56255SOL    HW270540   2.614   6.760  12.542
56256SOL     OW70541  11.374   7.508  14.780
56256SOL    HW170542  11.312   7.481  14.713
56256SOL    HW270543  11.336   7.587  14.818
56257SOL     OW70544   9.069   5.347  10.281
56257SOL    HW170545   9.065   5.395  10.199
56257SOL    HW270546   9.159   5.317  10.288
56258SOL     OW70547   5.401   1.222   3.069
56258SOL    HW170548   5.434   1.273   3.143
56258SOL    HW270549   5.476   1.213   3.010
56259SOL     OW70550   9.565   4.317   3.400
56259SOL    HW170551   9.604   4.381   3.341
56259SOL    HW270552   9.507   4.265   3.345
56260SOL     OW70553   6.849  14.300   6.439
56260SOL    HW170554   6.840  14.353   6.360
56260SOL    HW270555   6.828  14.211   6.411
56261SOL     OW70556   3.675   2.075   3.815
56261SOL    HW170557   3.593   2.035   3.843
56261SOL    HW270558   3.656   2.169   3.813
56262SOL     OW70559  11.672   4.522   3.752
56262SOL    HW170560  11.589   4.478   3.732
56262SOL    HW270561  11.730   4.452   3.781
56263SOL     OW70562   1.152  10.191   8.392
56263SOL    HW170563   1.135  10.190   8.487
56263SOL    HW270564   1.101  10.265   8.359
56264SOL     OW70565   2.713  11.580   7.206
56264SOL    HW170566   2.710  11.488   7.234
56264SOL    HW270567   2.641  11.587   7.143
56265SOL     OW70568   8.896   4.440   1.008
56265SOL    HW170569   8.831   4.510   1.002
56265SOL    HW270570   8.844   4.359   1.016
56266SOL     OW70571   7.392  13.756   4.062
56266SOL    HW170572   7.383  13.782   3.971
56266SOL    HW270573   7.486  13.748   4.076
56267SOL     OW70574  12.619   7.566  10.654
56267SOL    HW170575  12.525   7.577  10.640
56267SOL    HW270576  12.640   7.482  10.613
56268SOL     OW70577  11.114   3.820   8.773
56268SOL    HW170578  11.191   3.869   8.800
56268SOL    HW270579  11.045   3.886   8.766
56269SOL     OW70580  14.134   2.572  13.400
56269SOL    HW170581  14.144   2.662  13.429
56269SOL    HW270582  14.083   2.578  13.319
56270SOL     OW70583   4.753  13.828   0.135
56270SOL    HW170584   4.683  13.866   0.083
56270SOL    HW270585   4.724  13.839   0.226
56271SOL     OW70586   3.519   0.858  11.367
56271SOL    HW170587   3.457   0.926  11.339
56271SOL    HW270588   3.526   0.799  11.293
56272SOL     OW70589   3.406  14.472   5.472
56272SOL    HW170590   3.380  14.501   5.385
56272SOL    HW270591   3.324  14.453   5.517
56273SOL     OW70592  13.384  10.249  12.593
56273SOL    HW170593  13.293  10.224  12.576
56273SOL    HW270594  13.433  10.167  12.591
56274SOL     OW70595  11.068   5.755  12.573
56274SOL    HW170596  11.163   5.767  12.567
56274SOL    HW270597  11.038   5.822  12.634
56275SOL     OW70598   2.188   8.992  11.811
56275SOL    HW170599   2.108   9.010  11.859
56275SOL    HW270600   2.226   9.079  11.794
56276SOL     OW70601   2.781  11.015   4.164
56276SOL    HW170602   2.730  11.094   4.148
56276SOL    HW270603   2.835  11.005   4.085
56277SOL     OW70604   8.554   1.884  11.647
56277SOL    HW170605   8.475   1.936  11.629
56277SOL    HW270606   8.526   1.820  11.712
56278SOL     OW70607   5.952  12.237   2.723
56278SOL    HW170608   5.911  12.153   2.745
56278SOL    HW270609   5.878  12.298   2.714
56279SOL     OW70610   7.909   3.674   6.604
56279SOL    HW170611   7.969   3.647   6.535
56279SOL    HW270612   7.841   3.607   6.605
56280SOL     OW70613  11.471  14.870   3.051
56280SOL    HW170614  11.513   0.066   3.089
56280SOL    HW270615  11.527  14.845   2.978
56281SOL     OW70616   5.528   8.681  10.107
56281SOL    HW170617   5.435   8.669  10.090
56281SOL    HW270618   5.543   8.635  10.190
56282SOL     OW70619   2.892   7.947   2.541
56282SOL    HW170620   2.923   7.904   2.461
56282SOL    HW270621   2.802   7.916   2.551
56283SOL     OW70622   9.615   2.667   3.806
56283SOL    HW170623   9.619   2.749   3.756
56283SOL    HW270624   9.665   2.685   3.886
56284SOL     OW70625   5.107   0.230   9.953
56284SOL    HW170626   5.080   0.180  10.030
56284SOL    HW270627   5.203   0.224   9.953
56285SOL     OW70628  11.810   8.917   8.595
56285SOL    HW170629  11.716   8.917   8.609
56285SOL    HW270630  11.827   8.995   8.543
56286SOL     OW70631  12.072   5.021   0.141
56286SOL    HW170632  12.036   4.937   0.111
56286SOL    HW270633  12.071   5.076   0.063
56287SOL     OW70634   2.317   7.021   6.260
56287SOL    HW170635   2.407   7.055   6.265
56287SOL    HW270636   2.313   6.952   6.326
56288SOL     OW70637   9.852  13.892   1.731
56288SOL    HW170638   9.866  13.979   1.693
56288SOL    HW270639   9.793  13.907   1.804
56289SOL     OW70640   1.283   6.169  12.376
56289SOL    HW170641   1.256   6.250  12.331
56289SOL    HW270642   1.295   6.106  12.305
56290SOL     OW70643   6.629   3.234   9.794
56290SOL    HW170644   6.571   3.192   9.858
56290SOL    HW270645   6.570   3.285   9.739
56291SOL     OW70646   9.249   4.074   7.076
56291SOL    HW170647   9.276   4.017   7.005
56291SOL    HW270648   9.161   4.044   7.099
56292SOL     OW70649  14.302  11.143   6.935
56292SOL    HW170650  14.294  11.054   6.970
56292SOL    HW270651  14.224  11.188   6.967
56293SOL     OW70652   2.592   5.080   3.315
56293SOL    HW170653   2.649   5.156   3.319
56293SOL    HW270654   2.637   5.019   3.255
56294SOL     OW70655  10.588   8.735   8.670
56294SOL    HW170656  10.665   8.750   8.615
56294SOL    HW270657  10.571   8.641   8.660
56295SOL     OW70658   5.935   9.047   2.940
56295SOL    HW170659   5.946   9.052   3.035
56295SOL    HW270660   5.943   9.138   2.910
56296SOL     OW70661  12.276  13.196   8.615
56296SOL    HW170662  12.316  13.225   8.533
56296SOL    HW270663  12.193  13.157   8.588
56297SOL     OW70664  11.957   9.332   6.264
56297SOL    HW170665  11.869   9.356   6.291
56297SOL    HW270666  12.006   9.414   6.263
56298SOL     OW70667   8.197   0.489   9.870
56298SOL    HW170668   8.290   0.500   9.850
56298SOL    HW270669   8.170   0.414   9.817
56299SOL     OW70670  11.982  13.722   2.062
56299SOL    HW170671  12.034  13.749   1.987
56299SOL    HW270672  11.957  13.804   2.105
56300SOL     OW70673  13.041  14.404   4.626
56300SOL    HW170674  13.110  14.426   4.689
56300SOL    HW270675  13.087  14.397   4.543
56301SOL     OW70676  14.168   8.251  12.808
56301SOL    HW170677  14.185   8.328  12.864
56301SOL    HW270678  14.216   8.270  12.728
56302SOL     OW70679   0.935   5.380   5.006
56302SOL    HW170680   0.948   5.335   4.922
56302SOL    HW270681   0.930   5.473   4.982
56303SOL     OW70682   0.115  10.033   9.557
56303SOL    HW170683   0.030  10.004   9.524
56303SOL    HW270684   0.109  10.129   9.555
56304SOL     OW70685   6.663   5.073   0.357
56304SOL    HW170686   6.645   5.033   0.272
56304SOL    HW270687   6.583   5.121   0.378
56305SOL     OW70688   0.600  14.358   5.736
56305SOL    HW170689   0.688  14.390   5.713
56305SOL    HW270690   0.573  14.412   5.809
56306SOL     OW70691   5.630   4.359  14.607
56306SOL    HW170692   5.544   4.400  14.619
56306SOL    HW270693   5.692   4.432  14.613
56307SOL     OW70694   3.958   6.387   2.914
56307SOL    HW170695   3.947   6.305   2.866
56307SOL    HW270696   4.015   6.440   2.857
56308SOL     OW70697   7.641  12.069   4.955
56308SOL    HW170698   7.715  12.085   4.897
56308SOL    HW270699   7.677  12.081   5.043
56309SOL     OW70700   3.101   3.858  14.392
56309SOL    HW170701   3.188   3.829  14.418
56309SOL    HW270702   3.070   3.911  14.466
56310SOL     OW70703  10.043   7.549   3.284
56310SOL    HW170704   9.984   7.604   3.335
56310SOL    HW270705  10.126   7.551   3.333
56311SOL     OW70706   9.124   4.949  11.160
56311SOL    HW170707   9.092   5.004  11.088
56311SOL    HW270708   9.131   4.862  11.122
56312SOL     OW70709   2.190   9.397   7.797
56312SOL    HW170710   2.181   9.359   7.885
56312SOL    HW270711   2.226   9.484   7.813
56313SOL     OW70712   1.797  14.199   3.513
56313SOL    HW170713   1.743  14.135   3.468
56313SOL    HW270714   1.884  14.189   3.475
56314SOL     OW70715  10.131   3.501  11.859
56314SOL    HW170716  10.037   3.505  11.876
56314SOL    HW270717  10.167   3.454  11.934
56315SOL     OW70718   9.257   5.934   2.554
56315SOL    HW170719   9.219   5.847   2.556
56315SOL    HW270720   9.311   5.934   2.474
56316SOL     OW70721   6.907   7.427  12.685
56316SOL    HW170722   6.893   7.478  12.605
56316SOL    HW270723   6.948   7.346  12.654
56317SOL     OW70724   0.062   5.844   2.696
56317SOL    HW170725   0.022   5.917   2.743
56317SOL    HW270726   0.098   5.884   2.617
56318SOL     OW70727   4.116   2.814   8.389
56318SOL    HW170728   4.117   2.773   8.475
56318SOL    HW270729   4.023   2.822   8.367
56319SOL     OW70730   7.052   0.517  11.840
56319SOL    HW170731   6.984   0.545  11.779
56319SOL    HW270732   7.023   0.550  11.925
56320SOL     OW70733   8.046  10.762  14.035
56320SOL    HW170734   8.054  10.696  13.966
56320SOL    HW270735   8.005  10.837  13.992
56321SOL     OW70736  14.374   2.014   9.307
56321SOL    HW170737  14.393   2.078   9.375
56321SOL    HW270738  14.369   1.930   9.353
56322SOL     OW70739  13.907   9.868   0.591
56322SOL    HW170740  13.958   9.890   0.513
56322SOL    HW270741  13.927   9.937   0.653
56323SOL     OW70742   0.537   7.056  10.609
56323SOL    HW170743   0.566   7.145  10.629
56323SOL    HW270744   0.558   7.044  10.516
56324SOL     OW70745   9.049   7.254  11.318
56324SOL    HW170746   9.103   7.307  11.259
56324SOL    HW270747   9.090   7.167  11.316
56325SOL     OW70748  13.347  10.927   9.774
56325SOL    HW170749  13.257  10.897   9.762
56325SOL    HW270750  13.375  10.887   9.857
56326SOL     OW70751   3.664  10.938   9.014
56326SOL    HW170752   3.654  10.850   9.051
56326SOL    HW270753   3.584  10.984   9.039
56327SOL     OW70754   4.519   7.260   2.305
56327SOL    HW170755   4.549   7.293   2.220
56327SOL    HW270756   4.426   7.284   2.309
56328SOL     OW70757   6.979  10.638   9.698
56328SOL    HW170758   6.906  10.698   9.685
56328SOL    HW270759   6.947  10.553   9.668
56329SOL     OW70760   1.092   1.690  14.058
56329SOL    HW170761   1.082   1.596  14.043
56329SOL    HW270762   1.101   1.697  14.153
56330SOL     OW70763  13.106  13.460  10.802
56330SOL    HW170764  13.012  13.464  10.815
56330SOL    HW270765  13.143  13.456  10.890
56331SOL     OW70766   5.634   0.866   2.259
56331SOL    HW170767   5.560   0.919   2.287
56331SOL    HW270768   5.662   0.820   2.338
56332SOL     OW70769   8.480  10.927   9.236
56332SOL    HW170770   8.474  10.927   9.140
56332SOL    HW270771   8.420  10.996   9.264
56333SOL     OW70772  13.355   8.106   3.445
56333SOL    HW170773  13.336   8.042   3.376
56333SOL    HW270774  13.271   8.117   3.491
56334SOL     OW70775   0.543  13.808   0.989
56334SOL    HW170776   0.627  13.786   1.031
56334SOL    HW270777   0.481  13.744   1.025
56335SOL     OW70778   9.800   1.215   8.234
56335SOL    HW170779   9.885   1.254   8.212
56335SOL    HW270780   9.781   1.156   8.162
56336SOL     OW70781   4.070   9.530   8.321
56336SOL    HW170782   4.022   9.610   8.301
56336SOL    HW270783   4.003   9.461   8.319
56337SOL     OW70784  12.792  14.373   1.777
56337SOL    HW170785  12.805  14.463   1.807
56337SOL    HW270786  12.700  14.370   1.753
56338SOL     OW70787   2.975   0.867  10.452
56338SOL    HW170788   2.946   0.950  10.413
56338SOL    HW270789   2.944   0.800  10.391
56339SOL     OW70790   1.412   3.314   5.274
56339SOL    HW170791   1.355   3.363   5.215
56339SOL    HW270792   1.500   3.327   5.238
56340SOL     OW70793  13.557   3.824  14.193
56340SOL    HW170794  13.519   3.742  14.225
56340SOL    HW270795  13.481   3.878  14.172
56341SOL     OW70796   6.614  12.700   2.445
56341SOL    HW170797   6.687  12.759   2.464
56341SOL    HW270798   6.633  12.664   2.358
56342SOL     OW70799   4.865  12.299   6.939
56342SOL    HW170800   4.917  12.224   6.966
56342SOL    HW270801   4.787  12.261   6.899
56343SOL     OW70802  12.421   0.346   0.939
56343SOL    HW170803  12.502   0.369   0.892
56343SOL    HW270804  12.449   0.280   1.003
56344SOL     OW70805   6.504   8.380   4.346
56344SOL    HW170806   6.569   8.420   4.403
56344SOL    HW270807   6.555   8.319   4.292
56345SOL     OW70808  10.643   5.940   9.227
56345SOL    HW170809  10.695   6.015   9.256
56345SOL    HW270810  10.561   5.948   9.276
56346SOL     OW70811  14.168   4.347   9.638
56346SOL    HW170812  14.150   4.400   9.561
56346SOL    HW270813  14.157   4.257   9.608
56347SOL     OW70814  13.828  13.324  10.009
56347SOL    HW170815  13.917  13.355   9.994
56347SOL    HW270816  13.773  13.379   9.954
56348SOL     OW70817   9.143   7.635   2.555
56348SOL    HW170818   9.152   7.723   2.518
56348SOL    HW270819   9.115   7.581   2.481
56349SOL     OW70820  11.555   0.557   5.123
56349SOL    HW170821  11.477   0.560   5.068
56349SOL    HW270822  11.522   0.569   5.212
56350SOL     OW70823  14.319   9.716   8.102
56350SOL    HW170824  14.348   9.650   8.165
56350SOL    HW270825  14.228   9.733   8.125
56351SOL     OW70826   7.811  12.664   0.703
56351SOL    HW170827   7.790  12.631   0.616
56351SOL    HW270828   7.905  12.682   0.701
56352SOL     OW70829   4.402   6.734   3.728
56352SOL    HW170830   4.322   6.745   3.780
56352SOL    HW270831   4.461   6.801   3.762
56353SOL     OW70832  11.886  14.810   6.828
56353SOL    HW170833  11.840  14.784   6.748
56353SOL    HW270834  11.968  14.763   6.825
56354SOL     OW70835   5.096   3.313   5.906
56354SOL    HW170836   5.081   3.225   5.871
56354SOL    HW270837   5.162   3.301   5.973
56355SOL     OW70838   4.835  14.064   4.832
56355SOL    HW170839   4.823  14.048   4.738
56355SOL    HW270840   4.762  14.018   4.874
56356SOL     OW70841   3.912   2.127   3.662
56356SOL    HW170842   3.867   2.169   3.588
56356SOL    HW270843   3.843   2.114   3.727
56357SOL     OW70844   8.286   8.164  10.000
56357SOL    HW170845   8.360   8.106  10.016
56357SOL    HW270846   8.287   8.225  10.075
56358SOL     OW70847   0.455   2.723  14.844
56358SOL    HW170848   0.530   2.773  14.812
56358SOL    HW270849   0.492   2.650   0.011
56359SOL     OW70850  11.220   7.896  14.167
56359SOL    HW170851  11.280   7.957  14.123
56359SOL    HW270852  11.171   7.855  14.096
56360SOL     OW70853   5.515  10.545   2.168
56360SOL    HW170854   5.441  10.603   2.149
56360SOL    HW270855   5.515  10.538   2.263
56361SOL     OW70856   4.147   8.741   2.319
56361SOL    HW170857   4.120   8.830   2.340
56361SOL    HW270858   4.221   8.752   2.258
56362SOL     OW70859   5.021   9.917   3.134
56362SOL    HW170860   5.051  10.006   3.115
56362SOL    HW270861   4.979   9.924   3.219
56363SOL     OW70862   6.025   9.023   7.090
56363SOL    HW170863   6.106   9.039   7.138
56363SOL    HW270864   6.032   8.934   7.058
56364SOL     OW70865  14.346  10.529   3.869
56364SOL    HW170866  14.337  10.444   3.825
56364SOL    HW270867  14.312  10.592   3.806
56365SOL     OW70868   6.775   7.738   6.728
56365SOL    HW170869   6.836   7.739   6.801
56365SOL    HW270870   6.776   7.828   6.695
56366SOL     OW70871   9.888   8.135  11.013
56366SOL    HW170872   9.859   8.080  11.085
56366SOL    HW270873   9.947   8.079  10.962
56367SOL     OW70874   9.009   5.030   4.140
56367SOL    HW170875   8.957   4.951   4.151
56367SOL    HW270876   8.961   5.098   4.187
56368SOL     OW70877  14.874   1.360   0.894
56368SOL    HW170878  14.781   1.374   0.881
56368SOL    HW270879   0.025   1.330   0.810
56369SOL     OW70880   0.092   8.640  12.171
56369SOL    HW170881   0.103   8.564  12.113
56369SOL    HW270882   0.151   8.623  12.244
56370SOL     OW70883  13.249   9.615   1.167
56370SOL    HW170884  13.200   9.583   1.091
56370SOL    HW270885  13.266   9.707   1.146
56371SOL     OW70886   7.946   4.658   3.455
56371SOL    HW170887   7.865   4.619   3.488
56371SOL    HW270888   7.917   4.730   3.399
56372SOL     OW70889   5.595   6.700  12.589
56372SOL    HW170890   5.669   6.719  12.532
56372SOL    HW270891   5.523   6.750  12.552
56373SOL     OW70892   6.460  10.645   4.696
56373SOL    HW170893   6.522  10.596   4.751
56373SOL    HW270894   6.375  10.632   4.737
56374SOL     OW70895  10.411  14.129   8.143
56374SOL    HW170896  10.433  14.099   8.055
56374SOL    HW270897  10.495  14.128   8.190
56375SOL     OW70898   4.735   3.507   2.449
56375SOL    HW170899   4.683   3.507   2.529
56375SOL    HW270900   4.804   3.443   2.464
56376SOL     OW70901  12.392  11.313   4.327
56376SOL    HW170902  12.426  11.267   4.404
56376SOL    HW270903  12.334  11.249   4.285
56377SOL     OW70904   5.208  13.354   3.564
56377SOL    HW170905   5.195  13.422   3.630
56377SOL    HW270906   5.298  13.365   3.535
56378SOL     OW70907   0.651   6.468   2.536
56378SOL    HW170908   0.604   6.391   2.568
56378SOL    HW270909   0.697   6.437   2.458
56379SOL     OW70910   8.160   5.569   2.749
56379SOL    HW170911   8.105   5.491   2.742
56379SOL    HW270912   8.115   5.636   2.698
56380SOL     OW70913   7.790  11.730   2.099
56380SOL    HW170914   7.725  11.664   2.077
56380SOL    HW270915   7.747  11.784   2.166
56381SOL     OW70916   3.273   4.550  14.689
56381SOL    HW170917   3.207   4.588  14.747
56381SOL    HW270918   3.273   4.607  14.612
56382SOL     OW70919   2.497   5.435  11.574
56382SOL    HW170920   2.495   5.371  11.645
56382SOL    HW270921   2.550   5.507  11.607
56383SOL     OW70922   3.236   0.569   0.675
56383SOL    HW170923   3.206   0.582   0.585
56383SOL    HW270924   3.175   0.505   0.712
56384SOL     OW70925  11.876   1.360   3.076
56384SOL    HW170926  11.956   1.403   3.044
56384SOL    HW270927  11.903   1.320   3.159
56385SOL     OW70928   7.297   9.585   1.994
56385SOL    HW170929   7.271   9.645   1.923
56385SOL    HW270930   7.227   9.592   2.058
56386SOL     OW70931  13.387  10.910   6.504
56386SOL    HW170932  13.442  10.979   6.540
56386SOL    HW270933  13.300  10.950   6.496
56387SOL     OW70934   4.132  11.161   0.670
56387SOL    HW170935   4.167  11.214   0.599
56387SOL    HW270936   4.209  11.128   0.715
56388SOL     OW70937  12.059   4.340   8.103
56388SOL    HW170938  12.005   4.393   8.044
56388SOL    HW270939  12.049   4.382   8.189
56389SOL     OW70940   5.581   0.850  12.459
56389SOL    HW170941   5.627   0.873  12.540
56389SOL    HW270942   5.650   0.840  12.394
56390SOL     OW70943   3.304   0.870   3.398
56390SOL    HW170944   3.232   0.932   3.399
56390SOL    HW270945   3.383   0.924   3.405
56391SOL     OW70946   0.106  10.596  13.163
56391SOL    HW170947   0.097  10.673  13.218
56391SOL    HW270948   0.075  10.625  13.077
56392SOL     OW70949   8.411  12.314  10.295
56392SOL    HW170950   8.450  12.345  10.214
56392SOL    HW270951   8.366  12.390  10.331
56393SOL     OW70952  11.608  11.761   8.336
56393SOL    HW170953  11.664  11.734   8.263
56393SOL    HW270954  11.554  11.831   8.300
56394SOL     OW70955   4.561  12.400   7.511
56394SOL    HW170956   4.592  12.323   7.560
56394SOL    HW270957   4.640  12.436   7.472
56395SOL     OW70958  14.782   2.116   7.453
56395SOL    HW170959  14.739   2.188   7.500
56395SOL    HW270960  14.874   2.141   7.450
56396SOL     OW70961   9.646   1.506   6.283
56396SOL    HW170962   9.627   1.447   6.210
56396SOL    HW270963   9.652   1.593   6.244
56397SOL     OW70964   1.935   7.766  13.334
56397SOL    HW170965   2.030   7.763  13.349
56397SOL    HW270966   1.910   7.675  13.319
56398SOL     OW70967   4.124   8.255   5.031
56398SOL    HW170968   4.058   8.198   4.991
56398SOL    HW270969   4.116   8.338   4.982
56399SOL     OW70970  12.486   8.877   2.061
56399SOL    HW170971  12.446   8.865   1.974
56399SOL    HW270972  12.573   8.840   2.052
56400SOL     OW70973   4.712  11.843  13.828
56400SOL    HW170974   4.715  11.874  13.919
56400SOL    HW270975   4.657  11.764  13.832
56401SOL     OW70976  13.647   9.887   0.422
56401SOL    HW170977  13.594   9.876   0.502
56401SOL    HW270978  13.583   9.903   0.353
56402SOL     OW70979   1.507   9.864   0.201
56402SOL    HW170980   1.566   9.913   0.145
56402SOL    HW270981   1.440   9.928   0.227
56403SOL     OW70982  10.223  13.996   4.875
56403SOL    HW170983  10.175  14.078   4.862
56403SOL    HW270984  10.164  13.928   4.843
56404SOL     OW70985  12.936   1.192  12.734
56404SOL    HW170986  12.970   1.277  12.763
56404SOL    HW270987  12.891   1.211  12.651
56405SOL     OW70988   0.683   6.414   6.876
56405SOL    HW170989   0.658   6.328   6.842
56405SOL    HW270990   0.765   6.434   6.831
56406SOL     OW70991   3.994  12.932   8.109
56406SOL    HW170992   4.042  12.974   8.180
56406SOL    HW270993   4.047  12.949   8.031
56407SOL     OW70994   1.538   6.106   8.647
56407SOL    HW170995   1.463   6.162   8.626
56407SOL    HW270996   1.599   6.119   8.574
56408SOL     OW70997   8.822   5.786   4.843
56408SOL    HW170998   8.798   5.740   4.762
56408SOL    HW270999   8.803   5.878   4.825
56409SOL     OW71000   8.605   5.226   9.858
56409SOL    HW171001   8.583   5.239   9.950
56409SOL    HW271002   8.684   5.173   9.859
56410SOL     OW71003   1.923   3.042   4.780
56410SOL    HW171004   1.940   3.112   4.718
56410SOL    HW271005   1.905   3.087   4.863
56411SOL     OW71006   7.291  14.286   2.869
56411SOL    HW171007   7.199  14.288   2.843
56411SOL    HW271008   7.309  14.194   2.890
56412SOL     OW71009   9.551   2.813  13.202
56412SOL    HW171010   9.548   2.796  13.296
56412SOL    HW271011   9.471   2.862  13.184
56413SOL     OW71012   6.159   7.829  12.556
56413SOL    HW171013   6.173   7.923  12.543
56413SOL    HW271014   6.115   7.800  12.476
56414SOL     OW71015  14.444   2.427   7.571
56414SOL    HW171016  14.393   2.506   7.553
56414SOL    HW271017  14.388   2.355   7.540
56415SOL     OW71018   4.658   0.553  11.628
56415SOL    HW171019   4.701   0.567  11.543
56415SOL    HW271020   4.580   0.608  11.625
56416SOL     OW71021  10.488   6.801  13.650
56416SOL    HW171022  10.414   6.761  13.606
56416SOL    HW271023  10.565   6.759  13.612
56417SOL     OW71024  12.771   7.794   7.995
56417SOL    HW171025  12.825   7.836   8.062
56417SOL    HW271026  12.691   7.768   8.042
56418SOL     OW71027  14.487   7.236  10.469
56418SOL    HW171028  14.424   7.174  10.433
56418SOL    HW271029  14.542   7.260  10.395
56419SOL     OW71030   5.450   2.996  14.780
56419SOL    HW171031   5.531   2.964  14.741
56419SOL    HW271032   5.394   3.017  14.706
56420SOL     OW71033   2.110  10.640   9.486
56420SOL    HW171034   2.203  10.660   9.492
56420SOL    HW271035   2.092  10.635   9.392
56421SOL     OW71036  12.757   8.517   8.716
56421SOL    HW171037  12.841   8.563   8.707
56421SOL    HW271038  12.743   8.475   8.631
56422SOL     OW71039  12.623   4.696   8.086
56422SOL    HW171040  12.637   4.666   8.176
56422SOL    HW271041  12.590   4.785   8.095
56423SOL     OW71042   3.034  10.686   8.902
56423SOL    HW171043   2.984  10.641   8.834
56423SOL    HW271044   2.988  10.667   8.983
56424SOL     OW71045  13.896   2.369  13.219
56424SOL    HW171046  13.964   2.302  13.209
56424SOL    HW271047  13.884   2.377  13.313
56425SOL     OW71048   2.419  11.120  10.803
56425SOL    HW171049   2.345  11.078  10.847
56425SOL    HW271050   2.458  11.050  10.750
56426SOL     OW71051   2.756   4.733   4.602
56426SOL    HW171052   2.734   4.685   4.522
56426SOL    HW271053   2.795   4.667   4.660
56427SOL     OW71054   2.697   9.602  12.162
56427SOL    HW171055   2.699   9.673  12.226
56427SOL    HW271056   2.604   9.591  12.141
56428SOL     OW71057  14.279   9.562   6.432
56428SOL    HW171058  14.332   9.589   6.357
56428SOL    HW271059  14.326   9.595   6.509
56429SOL     OW71060   4.410   4.596   2.092
56429SOL    HW171061   4.416   4.652   2.170
56429SOL    HW271062   4.436   4.510   2.124
56430SOL     OW71063   2.385   3.142  11.517
56430SOL    HW171064   2.375   3.234  11.492
56430SOL    HW271065   2.304   3.100  11.488
56431SOL     OW71066   0.481   6.389  11.323
56431SOL    HW171067   0.493   6.322  11.255
56431SOL    HW271068   0.497   6.342  11.405
56432SOL     OW71069  14.383  13.470  14.369
56432SOL    HW171070  14.361  13.430  14.454
56432SOL    HW271071  14.368  13.564  14.383
56433SOL     OW71072   1.560   9.635   1.030
56433SOL    HW171073   1.589   9.544   1.017
56433SOL    HW271074   1.621   9.671   1.094
56434SOL     OW71075  10.710   4.964  14.259
56434SOL    HW171076  10.772   4.960  14.331
56434SOL    HW271077  10.665   5.048  14.269
56435SOL     OW71078  10.240   1.621  14.705
56435SOL    HW171079  10.275   1.540  14.742
56435SOL    HW271080  10.306   1.649  14.642
56436SOL     OW71081   9.916   5.389   6.322
56436SOL    HW171082  10.006   5.422   6.320
56436SOL    HW271083   9.918   5.310   6.269
56437SOL     OW71084   6.268   5.825  10.006
56437SOL    HW171085   6.351   5.869   9.985
56437SOL    HW271086   6.294   5.751  10.061
56438SOL     OW71087  10.040   2.821  10.317
56438SOL    HW171088  10.016   2.860  10.401
56438SOL    HW271089  10.118   2.869  10.290
56439SOL     OW71090  13.671   9.025  10.331
56439SOL    HW171091  13.758   9.058  10.356
56439SOL    HW271092  13.624   9.016  10.414
56440SOL     OW71093  10.479  12.354  14.420
56440SOL    HW171094  10.497  12.275  14.370
56440SOL    HW271095  10.408  12.329  14.479
56441SOL     OW71096   1.389   3.210   0.039
56441SOL    HW171097   1.484   3.218   0.033
56441SOL    HW271098   1.374   3.151   0.113
56442SOL     OW71099  11.321   2.004   7.644
56442SOL    HW171100  11.315   2.015   7.739
56442SOL    HW271101  11.316   2.092   7.608
56443SOL     OW71102   5.577   3.798   9.021
56443SOL    HW171103   5.520   3.733   8.980
56443SOL    HW271104   5.572   3.875   8.965
56444SOL     OW71105  11.250   9.657  13.207
56444SOL    HW171106  11.185   9.592  13.182
56444SOL    HW271107  11.301   9.672  13.128
56445SOL     OW71108   9.918   1.153   2.263
56445SOL    HW171109   9.844   1.124   2.316
56445SOL    HW271110   9.949   1.073   2.220
56446SOL     OW71111   1.758  14.443   6.617
56446SOL    HW171112   1.777  14.363   6.666
56446SOL    HW271113   1.814  14.438   6.540
56447SOL     OW71114  13.395   9.373   1.880
56447SOL    HW171115  13.366   9.285   1.860
56447SOL    HW271116  13.456   9.395   1.810
56448SOL     OW71117   3.811  11.409   4.693
56448SOL    HW171118   3.847  11.322   4.711
56448SOL    HW271119   3.731  11.413   4.745
56449SOL     OW71120   4.040   4.737   1.853
56449SOL    HW171121   3.959   4.722   1.902
56449SOL    HW271122   4.047   4.832   1.846
56450SOL     OW71123  14.647  10.166   2.489
56450SOL    HW171124  14.730  10.181   2.445
56450SOL    HW271125  14.586  10.229   2.449
56451SOL     OW71126  12.234   5.758   4.788
56451SOL    HW171127  12.181   5.766   4.708
56451SOL    HW271128  12.236   5.664   4.806
56452SOL     OW71129   4.697  10.265   2.306
56452SOL    HW171130   4.699  10.279   2.401
56452SOL    HW271131   4.609  10.232   2.289
56453SOL     OW71132  14.687   4.093   5.532
56453SOL    HW171133  14.628   4.168   5.522
56453SOL    HW271134  14.672   4.062   5.621
56454SOL     OW71135   8.589  14.529  13.937
56454SOL    HW171136   8.585  14.620  13.911
56454SOL    HW271137   8.559  14.480  13.860
56455SOL     OW71138  12.656   4.794  14.597
56455SOL    HW171139  12.627   4.792  14.506
56455SOL    HW271140  12.739   4.842  14.594
56456SOL     OW71141   4.149  10.724  10.236
56456SOL    HW171142   4.156  10.738  10.330
56456SOL    HW271143   4.055  10.726  10.218
56457SOL     OW71144   0.016  13.713   0.717
56457SOL    HW171145  14.867  13.801   0.695
56457SOL    HW271146   0.110  13.721   0.727
56458SOL     OW71147  14.375  12.684  14.764
56458SOL    HW171148  14.350  12.645  14.680
56458SOL    HW271149  14.457  12.640  14.787
56459SOL     OW71150   3.495   1.984   7.980
56459SOL    HW171151   3.538   2.066   7.958
56459SOL    HW271152   3.402   2.001   7.963
56460SOL     OW71153   1.085  10.914   8.160
56460SOL    HW171154   1.014  10.888   8.218
56460SOL    HW271155   1.049  10.984   8.106
56461SOL     OW71156   4.901   4.623  13.084
56461SOL    HW171157   4.902   4.604  13.178
56461SOL    HW271158   4.900   4.719  13.079
56462SOL     OW71159   1.484   0.843   4.513
56462SOL    HW171160   1.505   0.865   4.603
56462SOL    HW271161   1.435   0.761   4.519
56463SOL     OW71162   8.449  11.952   7.020
56463SOL    HW171163   8.435  11.959   7.114
56463SOL    HW271164   8.544  11.959   7.009
56464SOL     OW71165   3.859   5.929   4.216
56464SOL    HW171166   3.847   5.955   4.125
56464SOL    HW271167   3.868   6.012   4.263
56465SOL     OW71168   8.864   6.214   7.578
56465SOL    HW171169   8.801   6.263   7.526
56465SOL    HW271170   8.811   6.174   7.648
56466SOL     OW71171  10.738  11.859  12.190
56466SOL    HW171172  10.755  11.808  12.269
56466SOL    HW271173  10.752  11.797  12.118
56467SOL     OW71174   5.290   3.185  11.202
56467SOL    HW171175   5.381   3.213  11.193
56467SOL    HW271176   5.241   3.267  11.213
56468SOL     OW71177   3.605  11.287   6.401
56468SOL    HW171178   3.608  11.286   6.497
56468SOL    HW271179   3.656  11.210   6.375
56469SOL     OW71180   2.393   6.911  12.658
56469SOL    HW171181   2.377   6.899  12.564
56469SOL    HW271182   2.354   6.996  12.679
56470SOL     OW71183   6.197  13.133   2.268
56470SOL    HW171184   6.206  13.126   2.173
56470SOL    HW271185   6.119  13.083   2.289
56471SOL     OW71186  12.474   2.666   8.496
56471SOL    HW171187  12.482   2.570   8.499
56471SOL    HW271188  12.382   2.682   8.478
56472SOL     OW71189   7.665   3.250  10.438
56472SOL    HW171190   7.665   3.284  10.348
56472SOL    HW271191   7.753   3.216  10.451
56473SOL     OW71192  12.735   4.328   3.310
56473SOL    HW171193  12.790   4.327   3.389
56473SOL    HW271194  12.660   4.382   3.334
56474SOL     OW71195   9.837   8.827  14.157
56474SOL    HW171196   9.887   8.908  14.161
56474SOL    HW271197   9.827   8.799  14.248
56475SOL     OW71198   5.414  11.461   5.790
56475SOL    HW171199   5.371  11.458   5.876
56475SOL    HW271200   5.415  11.370   5.761
56476SOL     OW71201   3.085   7.277   6.025
56476SOL    HW171202   3.018   7.223   5.981
56476SOL    HW271203   3.167   7.229   6.009
56477SOL     OW71204   4.032  14.602   0.481
56477SOL    HW171205   3.948  14.560   0.464
56477SOL    HW271206   4.015  14.695   0.467
56478SOL     OW71207   1.406   4.846   6.887
56478SOL    HW171208   1.325   4.814   6.928
56478SOL    HW271209   1.418   4.933   6.924
56479SOL     OW71210  13.051  11.657   8.867
56479SOL    HW171211  13.093  11.642   8.952
56479SOL    HW271212  13.123  11.680   8.808
56480SOL     OW71213   2.175  11.517  10.634
56480SOL    HW171214   2.190  11.605  10.598
56480SOL    HW271215   2.086  11.520  10.668
56481SOL     OW71216  13.624   8.716   1.065
56481SOL    HW171217  13.537   8.698   1.100
56481SOL    HW271218  13.668   8.763   1.136
56482SOL     OW71219   4.791  13.130   0.175
56482SOL    HW171220   4.809  13.117   0.268
56482SOL    HW271221   4.872  13.101   0.131
56483SOL     OW71222   0.406  12.219  14.198
56483SOL    HW171223   0.398  12.227  14.293
56483SOL    HW271224   0.327  12.172  14.171
56484SOL     OW71225  10.476   3.560   2.532
56484SOL    HW171226  10.469   3.646   2.490
56484SOL    HW271227  10.523   3.577   2.614
56485SOL     OW71228   0.108   5.780   0.900
56485SOL    HW171229   0.017   5.761   0.924
56485SOL    HW271230   0.127   5.863   0.943
56486SOL     OW71231   5.341   2.694   9.292
56486SOL    HW171232   5.276   2.762   9.275
56486SOL    HW271233   5.416   2.741   9.328
56487SOL     OW71234   9.753   2.963  13.100
56487SOL    HW171235   9.712   2.975  13.015
56487SOL    HW271236   9.688   2.915  13.151
56488SOL     OW71237   9.652   9.470   3.100
56488SOL    HW171238   9.668   9.497   3.191
56488SOL    HW271239   9.565   9.431   3.101
56489SOL     OW71240  10.137   9.848   9.813
56489SOL    HW171241  10.061   9.867   9.757
56489SOL    HW271242  10.212   9.858   9.755
56490SOL     OW71243   7.150   4.695   1.042
56490SOL    HW171244   7.063   4.706   1.005
56490SOL    HW271245   7.159   4.601   1.055
56491SOL     OW71246   4.480   6.748   7.346
56491SOL    HW171247   4.523   6.675   7.389
56491SOL    HW271248   4.416   6.780   7.409
56492SOL     OW71249   5.101   2.138  12.390
56492SOL    HW171250   5.068   2.200  12.455
56492SOL    HW271251   5.067   2.053  12.420
56493SOL     OW71252   7.213   9.449  14.116
56493SOL    HW171253   7.219   9.515  14.047
56493SOL    HW271254   7.139   9.394  14.090
56494SOL     OW71255   8.611   9.855   8.488
56494SOL    HW171256   8.565   9.892   8.412
56494SOL    HW271257   8.644   9.771   8.456
56495SOL     OW71258   2.055   3.604   9.508
56495SOL    HW171259   2.066   3.639   9.419
56495SOL    HW271260   2.003   3.671   9.553
56496SOL     OW71261  14.713   0.609   6.596
56496SOL    HW171262  14.645   0.650   6.649
56496SOL    HW271263  14.665   0.563   6.527
56497SOL     OW71264   6.547  14.749  11.564
56497SOL    HW171265   6.495  14.826  11.587
56497SOL    HW271266   6.526  14.733  11.472
56498SOL     OW71267   7.077   3.383   5.442
56498SOL    HW171268   7.059   3.292   5.418
56498SOL    HW271269   7.037   3.434   5.372
56499SOL     OW71270   5.100   1.426   9.371
56499SOL    HW171271   5.146   1.439   9.454
56499SOL    HW271272   5.139   1.346   9.335
56500SOL     OW71273   6.124  11.631   4.583
56500SOL    HW171274   6.172  11.706   4.617
56500SOL    HW271275   6.175  11.555   4.612
56501SOL     OW71276   1.031   7.162   9.326
56501SOL    HW171277   1.072   7.170   9.240
56501SOL    HW271278   1.050   7.073   9.354
56502SOL     OW71279   7.362  12.544   9.083
56502SOL    HW171280   7.293  12.607   9.059
56502SOL    HW271281   7.364  12.547   9.179
56503SOL     OW71282   7.659   0.714  13.550
56503SOL    HW171283   7.573   0.743  13.583
56503SOL    HW271284   7.639   0.639  13.495
56504SOL     OW71285   6.100  12.441   7.855
56504SOL    HW171286   6.020  12.393   7.832
56504SOL    HW271287   6.158  12.429   7.780
56505SOL     OW71288   6.056  10.395   1.309
56505SOL    HW171289   6.105  10.419   1.387
56505SOL    HW271290   6.039  10.477   1.264
56506SOL     OW71291   6.308   5.633   9.454
56506SOL    HW171292   6.332   5.684   9.531
56506SOL    HW271293   6.278   5.549   9.489
56507SOL     OW71294  10.045   2.922   7.692
56507SOL    HW171295  10.064   2.961   7.607
56507SOL    HW271296  10.099   2.843   7.695
56508SOL     OW71297  11.262   0.630   6.490
56508SOL    HW171298  11.296   0.587   6.411
56508SOL    HW271299  11.197   0.568   6.525
56509SOL     OW71300  10.552   9.046   4.493
56509SOL    HW171301  10.532   8.953   4.505
56509SOL    HW271302  10.554   9.082   4.581
56510SOL     OW71303   7.898   7.745   2.171
56510SOL    HW171304   7.919   7.831   2.209
56510SOL    HW271305   7.806   7.752   2.147
56511SOL     OW71306   4.016  11.633   8.815
56511SOL    HW171307   4.067  11.559   8.848
56511SOL    HW271308   3.934  11.593   8.785
56512SOL     OW71309   1.407   5.550   7.577
56512SOL    HW171310   1.344   5.595   7.633
56512SOL    HW271311   1.441   5.479   7.632
56513SOL     OW71312   0.027  11.846   6.969
56513SOL    HW171313   0.118  11.819   6.954
56513SOL    HW271314  14.861  11.814   6.892
56514SOL     OW71315   5.793   0.673  14.609
56514SOL    HW171316   5.858   0.630  14.664
56514SOL    HW271317   5.775   0.610  14.539
56515SOL     OW71318   0.411   2.283   9.715
56515SOL    HW171319   0.434   2.374   9.696
56515SOL    HW271320   0.477   2.231   9.668
56516SOL     OW71321   7.693   0.294   6.376
56516SOL    HW171322   7.668   0.201   6.376
56516SOL    HW271323   7.777   0.296   6.331
56517SOL     OW71324   0.732   7.086   9.335
56517SOL    HW171325   0.738   7.052   9.245
56517SOL    HW271326   0.811   7.138   9.346
56518SOL     OW71327   7.263   8.991   4.308
56518SOL    HW171328   7.224   8.974   4.393
56518SOL    HW271329   7.229   9.077   4.282
56519SOL     OW71330  14.165   0.962  14.398
56519SOL    HW171331  14.232   0.900  14.368
56519SOL    HW271332  14.192   1.046  14.361
56520SOL     OW71333  11.937   2.490  14.218
56520SOL    HW171334  11.876   2.486  14.144
56520SOL    HW271335  11.944   2.399  14.248
56521SOL     OW71336   1.602  11.202   4.031
56521SOL    HW171337   1.555  11.122   4.056
56521SOL    HW271338   1.587  11.211   3.937
56522SOL     OW71339  10.091   4.074  12.998
56522SOL    HW171340  10.056   4.089  12.910
56522SOL    HW271341  10.179   4.037  12.983
56523SOL     OW71342   7.028  10.159   8.250
56523SOL    HW171343   7.037  10.147   8.345
56523SOL    HW271344   6.941  10.123   8.229
56524SOL     OW71345   7.907   1.298   3.816
56524SOL    HW171346   7.996   1.265   3.810
56524SOL    HW271347   7.893   1.313   3.910
56525SOL     OW71348   1.834  12.842   8.405
56525SOL    HW171349   1.809  12.750   8.395
56525SOL    HW271350   1.877  12.864   8.322
56526SOL     OW71351   9.935   7.982  10.547
56526SOL    HW171352   9.872   8.047  10.517
56526SOL    HW271353   9.903   7.899  10.511
56527SOL     OW71354   1.902  10.744   3.121
56527SOL    HW171355   1.891  10.688   3.198
56527SOL    HW271356   1.889  10.833   3.154
56528SOL     OW71357   9.001   7.909  10.681
56528SOL    HW171358   9.072   7.935  10.623
56528SOL    HW271359   8.953   7.843  10.632
56529SOL     OW71360  13.182   8.377   8.245
56529SOL    HW171361  13.166   8.442   8.177
56529SOL    HW271362  13.277   8.374   8.253
56530SOL     OW71363   9.243   6.253  11.955
56530SOL    HW171364   9.300   6.253  11.878
56530SOL    HW271365   9.301   6.233  12.028
56531SOL     OW71366   3.120   5.734   2.865
56531SOL    HW171367   3.207   5.696   2.877
56531SOL    HW271368   3.103   5.727   2.771
56532SOL     OW71369   4.596   8.871   1.304
56532SOL    HW171370   4.604   8.827   1.220
56532SOL    HW271371   4.554   8.807   1.361
56533SOL     OW71372  13.984   5.771   7.416
56533SOL    HW171373  13.932   5.694   7.392
56533SOL    HW271374  13.930   5.817   7.481
56534SOL     OW71375  13.132  11.062   2.042
56534SOL    HW171376  13.199  11.095   2.102
56534SOL    HW271377  13.103  10.979   2.081
56535SOL     OW71378   6.069   6.845  13.556
56535SOL    HW171379   6.111   6.780  13.500
56535SOL    HW271380   5.979   6.814  13.564
56536SOL     OW71381  10.631  13.945  10.341
56536SOL    HW171382  10.723  13.956  10.315
56536SOL    HW271383  10.589  14.027  10.314
56537SOL     OW71384  12.505  12.287   0.373
56537SOL    HW171385  12.526  12.380   0.364
56537SOL    HW271386  12.477  12.277   0.464
56538SOL     OW71387   7.541   7.478   4.484
56538SOL    HW171388   7.629   7.491   4.519
56538SOL    HW271389   7.513   7.393   4.518
56539SOL     OW71390   3.216   5.387   9.838
56539SOL    HW171391   3.225   5.365   9.931
56539SOL    HW271392   3.285   5.451   9.821
56540SOL     OW71393   2.056   2.819  14.405
56540SOL    HW171394   2.017   2.780  14.483
56540SOL    HW271395   2.081   2.907  14.433
56541SOL     OW71396   7.320  11.528   0.675
56541SOL    HW171397   7.251  11.463   0.659
56541SOL    HW271398   7.382  11.482   0.731
56542SOL     OW71399   6.241   2.320  14.227
56542SOL    HW171400   6.151   2.331  14.259
56542SOL    HW271401   6.277   2.249  14.280
56543SOL     OW71402  14.138   7.264   3.026
56543SOL    HW171403  14.101   7.215   2.952
56543SOL    HW271404  14.156   7.351   2.989
56544SOL     OW71405   8.045   2.651   5.033
56544SOL    HW171406   7.988   2.723   5.006
56544SOL    HW271407   8.047   2.658   5.128
56545SOL     OW71408   1.561   4.069   9.305
56545SOL    HW171409   1.598   4.000   9.361
56545SOL    HW271410   1.479   4.094   9.349
56546SOL     OW71411   6.031   9.956  12.759
56546SOL    HW171412   5.949  10.005  12.756
56546SOL    HW271413   6.047   9.929  12.669
56547SOL     OW71414  13.969   6.187   1.435
56547SOL    HW171415  14.056   6.215   1.464
56547SOL    HW271416  13.914   6.265   1.447
56548SOL     OW71417  10.624   4.053   4.660
56548SOL    HW171418  10.565   3.978   4.653
56548SOL    HW271419  10.567   4.127   4.677
56549SOL     OW71420  11.893   3.163  13.391
56549SOL    HW171421  11.858   3.208  13.315
56549SOL    HW271422  11.832   3.091  13.407
56550SOL     OW71423   2.799   5.525   4.461
56550SOL    HW171424   2.831   5.448   4.415
56550SOL    HW271425   2.819   5.509   4.553
56551SOL     OW71426   8.869   6.446   0.781
56551SOL    HW171427   8.897   6.439   0.872
56551SOL    HW271428   8.789   6.393   0.776
56552SOL     OW71429   4.462   5.133   7.088
56552SOL    HW171430   4.385   5.076   7.086
56552SOL    HW271431   4.536   5.074   7.082
56553SOL     OW71432   6.903   2.299   9.837
56553SOL    HW171433   6.830   2.238   9.841
56553SOL    HW271434   6.973   2.250   9.795
56554SOL     OW71435   4.570  13.624   3.375
56554SOL    HW171436   4.522  13.653   3.298
56554SOL    HW271437   4.654  13.594   3.342
56555SOL     OW71438   0.065  10.912   1.882
56555SOL    HW171439   0.156  10.926   1.859
56555SOL    HW271440   0.046  10.822   1.853
56556SOL     OW71441   1.035  11.961   7.438
56556SOL    HW171442   1.033  12.036   7.498
56556SOL    HW271443   1.069  11.998   7.356
56557SOL     OW71444   0.273   7.832   2.983
56557SOL    HW171445   0.235   7.759   2.934
56557SOL    HW271446   0.310   7.889   2.917
56558SOL     OW71447   8.310   8.663   8.751
56558SOL    HW171448   8.235   8.721   8.766
56558SOL    HW271449   8.367   8.678   8.826
56559SOL     OW71450  11.434   2.657  13.452
56559SOL    HW171451  11.477   2.579  13.418
56559SOL    HW271452  11.388   2.694  13.377
56560SOL     OW71453  14.761  13.864   9.131
56560SOL    HW171454  14.777  13.901   9.218
56560SOL    HW271455  14.687  13.804   9.144
56561SOL     OW71456   4.798   4.678   0.252
56561SOL    HW171457   4.869   4.740   0.265
56561SOL    HW271458   4.823   4.627   0.175
56562SOL     OW71459   3.206  10.843  14.042
56562SOL    HW171460   3.245  10.798  13.967
56562SOL    HW271461   3.275  10.902  14.073
56563SOL     OW71462   8.851  14.744   7.147
56563SOL    HW171463   8.854  14.702   7.233
56563SOL    HW271464   8.840  14.672   7.085
56564SOL     OW71465   4.909   0.376  13.033
56564SOL    HW171466   4.898   0.345  12.943
56564SOL    HW271467   4.820   0.384  13.067
56565SOL     OW71468   3.490   2.446  14.802
56565SOL    HW171469   3.411   2.472  14.754
56565SOL    HW271470   3.533   2.528  14.823
56566SOL     OW71471   7.571   7.583   9.710
56566SOL    HW171472   7.501   7.599   9.773
56566SOL    HW271473   7.550   7.640   9.636
56567SOL     OW71474   4.176  12.329   6.810
56567SOL    HW171475   4.099  12.274   6.827
56567SOL    HW271476   4.250  12.279   6.843
56568SOL     OW71477   8.462   0.809   0.533
56568SOL    HW171478   8.378   0.854   0.543
56568SOL    HW271479   8.527   0.875   0.558
56569SOL     OW71480  13.045  14.123   8.593
56569SOL    HW171481  13.090  14.041   8.572
56569SOL    HW271482  12.962  14.094   8.632
56570SOL     OW71483  11.345  10.952   5.512
56570SOL    HW171484  11.432  10.989   5.495
56570SOL    HW271485  11.339  10.948   5.607
56571SOL     OW71486  10.204  14.862  14.433
56571SOL    HW171487  10.192  14.843  14.340
56571SOL    HW271488  10.176  14.782  14.477
56572SOL     OW71489  10.925  11.159   8.340
56572SOL    HW171490  10.867  11.144   8.266
56572SOL    HW271491  10.887  11.108   8.411
56573SOL     OW71492   9.947  13.862   3.886
56573SOL    HW171493   9.961  13.815   3.968
56573SOL    HW271494   9.876  13.923   3.905
56574SOL     OW71495   5.212   6.590   9.463
56574SOL    HW171496   5.266   6.545   9.398
56574SOL    HW271497   5.251   6.677   9.470
56575SOL     OW71498  13.952   7.201   0.332
56575SOL    HW171499  14.005   7.278   0.353
56575SOL    HW271500  13.863   7.226   0.356
56576SOL     OW71501  11.453  10.998   0.074
56576SOL    HW171502  11.515  11.019   0.005
56576SOL    HW271503  11.485  11.047   0.150
56577SOL     OW71504   8.521   5.163   0.505
56577SOL    HW171505   8.555   5.210   0.429
56577SOL    HW271506   8.514   5.229   0.573
56578SOL     OW71507   1.109   1.616   3.250
56578SOL    HW171508   1.045   1.682   3.279
56578SOL    HW271509   1.187   1.667   3.230
56579SOL     OW71510   4.121  13.394   5.223
56579SOL    HW171511   4.163  13.320   5.269
56579SOL    HW271512   4.030  13.391   5.252
56580SOL     OW71513  12.770   0.863   7.186
56580SOL    HW171514  12.846   0.807   7.175
56580SOL    HW271515  12.756   0.866   7.281
56581SOL     OW71516   5.261   1.079   0.698
56581SOL    HW171517   5.242   1.003   0.643
56581SOL    HW271518   5.354   1.071   0.718
56582SOL     OW71519   8.149   9.225  13.712
56582SOL    HW171520   8.223   9.204  13.655
56582SOL    HW271521   8.141   9.149  13.770
56583SOL     OW71522   8.596   5.232   5.363
56583SOL    HW171523   8.524   5.273   5.412
56583SOL    HW271524   8.620   5.297   5.298
56584SOL     OW71525  10.852  10.258   5.893
56584SOL    HW171526  10.904  10.330   5.928
56584SOL    HW271527  10.808  10.294   5.816
56585SOL     OW71528  11.106  14.715  14.157
56585SOL    HW171529  11.022  14.696  14.115
56585SOL    HW271530  11.096  14.682  14.246
56586SOL     OW71531   7.339   0.462   4.050
56586SOL    HW171532   7.382   0.537   4.092
56586SOL    HW271533   7.361   0.470   3.957
56587SOL     OW71534  12.462   1.036   7.125
56587SOL    HW171535  12.519   1.098   7.080
56587SOL    HW271536  12.477   1.053   7.218
56588SOL     OW71537  10.416   8.331   2.020
56588SOL    HW171538  10.410   8.388   2.097
56588SOL    HW271539  10.343   8.270   2.030
56589SOL     OW71540   1.014   1.042   7.677
56589SOL    HW171541   0.969   1.073   7.756
56589SOL    HW271542   1.056   1.120   7.641
56590SOL     OW71543   9.006   4.794   8.728
56590SOL    HW171544   8.996   4.728   8.659
56590SOL    HW271545   8.922   4.791   8.775
56591SOL     OW71546   6.034  11.972  11.895
56591SOL    HW171547   5.970  11.902  11.910
56591SOL    HW271548   6.115  11.939  11.934
56592SOL     OW71549   7.285   8.133   1.466
56592SOL    HW171550   7.200   8.114   1.506
56592SOL    HW271551   7.270   8.212   1.415
56593SOL     OW71552   0.901   8.232   0.378
56593SOL    HW171553   0.908   8.231   0.473
56593SOL    HW271554   0.892   8.325   0.356
56594SOL     OW71555   9.218  14.276   7.549
56594SOL    HW171556   9.255  14.364   7.543
56594SOL    HW271557   9.270  14.233   7.616
56595SOL     OW71558   8.109   0.999  11.987
56595SOL    HW171559   8.034   1.027  12.040
56595SOL    HW271560   8.146   1.081  11.954
56596SOL     OW71561   3.429  10.358  13.823
56596SOL    HW171562   3.411  10.272  13.785
56596SOL    HW271563   3.344  10.401  13.827
56597SOL     OW71564  12.592  11.098   4.165
56597SOL    HW171565  12.505  11.125   4.192
56597SOL    HW271566  12.595  11.117   4.071
56598SOL     OW71567   2.625  10.864  13.903
56598SOL    HW171568   2.597  10.839  13.814
56598SOL    HW271569   2.720  10.863  13.899
56599SOL     OW71570  13.855  10.879   8.315
56599SOL    HW171571  13.926  10.867   8.252
56599SOL    HW271572  13.777  10.895   8.262
56600SOL     OW71573  10.873   0.300   4.773
56600SOL    HW171574  10.814   0.308   4.848
56600SOL    HW271575  10.871   0.387   4.732
56601SOL     OW71576   6.869  12.130   0.358
56601SOL    HW171577   6.800  12.160   0.418
56601SOL    HW271578   6.836  12.048   0.323
56602SOL     OW71579   8.341  11.127   2.744
56602SOL    HW171580   8.258  11.171   2.761
56602SOL    HW271581   8.399  11.196   2.710
56603SOL     OW71582  13.926  14.524   7.632
56603SOL    HW171583  13.879  14.515   7.549
56603SOL    HW271584  13.958  14.435   7.651
56604SOL     OW71585  12.148  13.713  12.453
56604SOL    HW171586  12.124  13.646  12.389
56604SOL    HW271587  12.079  13.709  12.520
56605SOL     OW71588  12.238  12.841  12.214
56605SOL    HW171589  12.305  12.821  12.279
56605SOL    HW271590  12.173  12.892  12.262
56606SOL     OW71591  12.896   5.154   1.487
56606SOL    HW171592  12.961   5.173   1.419
56606SOL    HW271593  12.828   5.220   1.474
56607SOL     OW71594   3.606  13.232  14.453
56607SOL    HW171595   3.601  13.235  14.357
56607SOL    HW271596   3.599  13.324  14.480
56608SOL     OW71597   1.280   0.938   6.453
56608SOL    HW171598   1.370   0.936   6.487
56608SOL    HW271599   1.238   1.008   6.503
56609SOL     OW71600   5.800   6.145   4.738
56609SOL    HW171601   5.875   6.190   4.698
56609SOL    HW271602   5.825   6.052   4.737
56610SOL     OW71603  13.880  10.205   9.511
56610SOL    HW171604  13.863  10.150   9.587
56610SOL    HW271605  13.869  10.147   9.436
56611SOL     OW71606   5.535   3.400   1.279
56611SOL    HW171607   5.551   3.424   1.370
56611SOL    HW271608   5.622   3.382   1.243
56612SOL     OW71609   8.620   7.413  14.667
56612SOL    HW171610   8.710   7.446  14.663
56612SOL    HW271611   8.629   7.318  14.659
56613SOL     OW71612   1.009   5.918   3.629
56613SOL    HW171613   1.025   6.005   3.592
56613SOL    HW271614   0.930   5.929   3.682
56614SOL     OW71615  14.282   5.891   2.923
56614SOL    HW171616  14.369   5.928   2.936
56614SOL    HW271617  14.289   5.800   2.952
56615SOL     OW71618   3.811   7.929   1.563
56615SOL    HW171619   3.795   7.880   1.643
56615SOL    HW271620   3.843   7.864   1.501
56616SOL     OW71621   7.963   3.041   6.296
56616SOL    HW171622   7.961   3.106   6.226
56616SOL    HW271623   8.005   2.964   6.258
56617SOL     OW71624  12.310   8.860   2.270
56617SOL    HW171625  12.321   8.766   2.282
56617SOL    HW271626  12.381   8.885   2.211
56618SOL     OW71627   5.350   7.654   4.142
56618SOL    HW171628   5.307   7.596   4.079
56618SOL    HW271629   5.285   7.668   4.210
56619SOL     OW71630  14.290   5.879  11.449
56619SOL    HW171631  14.362   5.859  11.390
56619SOL    HW271632  14.296   5.812  11.517
56620SOL     OW71633   1.281   1.354   7.779
56620SOL    HW171634   1.207   1.414   7.792
56620SOL    HW271635   1.292   1.311   7.864
56621SOL     OW71636  10.063  14.157   8.703
56621SOL    HW171637   9.986  14.191   8.749
56621SOL    HW271638  10.136  14.206   8.740
56622SOL     OW71639   2.989  11.989   3.946
56622SOL    HW171640   2.980  11.986   4.041
56622SOL    HW271641   2.915  12.042   3.917
56623SOL     OW71642   1.922   1.171  12.270
56623SOL    HW171643   1.978   1.243  12.241
56623SOL    HW271644   1.833   1.207  12.267
56624SOL     OW71645   2.077   6.334   4.528
56624SOL    HW171646   2.142   6.285   4.577
56624SOL    HW271647   2.128   6.392   4.472
56625SOL     OW71648  13.823   7.867   0.611
56625SOL    HW171649  13.811   7.900   0.522
56625SOL    HW271650  13.904   7.907   0.641
56626SOL     OW71651   9.292   9.341   8.024
56626SOL    HW171652   9.284   9.408   7.957
56626SOL    HW271653   9.203   9.308   8.035
56627SOL     OW71654  12.427  10.158   6.351
56627SOL    HW171655  12.455  10.239   6.308
56627SOL    HW271656  12.504  10.101   6.348
56628SOL     OW71657  12.941  10.185   1.964
56628SOL    HW171658  12.907  10.096   1.955
56628SOL    HW271659  12.882  10.238   1.910
56629SOL     OW71660   4.115   7.561  10.074
56629SOL    HW171661   4.036   7.530  10.118
56629SOL    HW271662   4.098   7.547   9.981
56630SOL     OW71663   3.932  12.518   6.651
56630SOL    HW171664   3.842  12.515   6.619
56630SOL    HW271665   3.974  12.441   6.613
56631SOL     OW71666   5.046  14.460   0.478
56631SOL    HW171667   4.957  14.483   0.505
56631SOL    HW271668   5.052  14.365   0.492
56632SOL     OW71669  10.953   4.893   2.497
56632SOL    HW171670  10.980   4.878   2.406
56632SOL    HW271671  10.962   4.987   2.510
56633SOL     OW71672   8.038   3.453   7.278
56633SOL    HW171673   8.119   3.407   7.299
56633SOL    HW271674   8.013   3.496   7.360
56634SOL     OW71675  14.105   3.761  10.879
56634SOL    HW171676  14.123   3.707  10.956
56634SOL    HW271677  14.009   3.767  10.877
56635SOL     OW71678  12.934   9.048  13.658
56635SOL    HW171679  12.856   9.094  13.628
56635SOL    HW271680  12.901   8.973  13.706
56636SOL     OW71681   3.534   0.708  11.127
56636SOL    HW171682   3.447   0.697  11.088
56636SOL    HW271683   3.595   0.691  11.055
56637SOL     OW71684  11.133  11.120  12.356
56637SOL    HW171685  11.155  11.101  12.447
56637SOL    HW271686  11.216  11.144  12.316
56638SOL     OW71687  10.053   3.372   5.735
56638SOL    HW171688  10.015   3.457   5.714
56638SOL    HW271689   9.978   3.313   5.743
56639SOL     OW71690   8.787   7.886  11.471
56639SOL    HW171691   8.693   7.903  11.468
56639SOL    HW271692   8.794   7.791  11.463
56640SOL     OW71693   9.638   3.818  13.741
56640SOL    HW171694   9.571   3.833  13.808
56640SOL    HW271695   9.711   3.874  13.767
56641SOL     OW71696  13.840  11.584  12.688
56641SOL    HW171697  13.818  11.650  12.622
56641SOL    HW271698  13.807  11.502  12.652
56642SOL     OW71699   0.297   5.636   6.339
56642SOL    HW171700   0.325   5.665   6.252
56642SOL    HW271701   0.378   5.619   6.386
56643SOL     OW71702   9.719   5.808  11.720
56643SOL    HW171703   9.630   5.835  11.698
56643SOL    HW271704   9.737   5.733  11.662
56644SOL     OW71705   5.061   4.360   9.084
56644SOL    HW171706   4.979   4.330   9.123
56644SOL    HW271707   5.034   4.408   9.005
56645SOL     OW71708   0.145   6.897  11.218
56645SOL    HW171709   0.071   6.948  11.185
56645SOL    HW271710   0.182   6.854  11.141
56646SOL     OW71711   0.604  13.665  13.981
56646SOL    HW171712   0.512  13.660  13.954
56646SOL    HW271713   0.651  13.612  13.917
56647SOL     OW71714   8.523   8.489   9.077
56647SOL    HW171715   8.501   8.579   9.100
56647SOL    HW271716   8.548   8.493   8.985
56648SOL     OW71717   5.280   0.295   5.141
56648SOL    HW171718   5.193   0.328   5.118
56648SOL    HW271719   5.322   0.367   5.186
56649SOL     OW71720   0.228  12.823  11.875
56649SOL    HW171721   0.207  12.841  11.967
56649SOL    HW271722   0.225  12.908  11.832
56650SOL     OW71723  13.921  13.515   1.906
56650SOL    HW171724  13.939  13.582   1.839
56650SOL    HW271725  13.932  13.560   1.989
56651SOL     OW71726   2.239   8.737  11.920
56651SOL    HW171727   2.239   8.831  11.901
56651SOL    HW271728   2.293   8.699  11.850
56652SOL     OW71729  12.208  13.093   7.723
56652SOL    HW171730  12.284  13.123   7.672
56652SOL    HW271731  12.180  13.014   7.678
56653SOL     OW71732   5.418   5.929   4.005
56653SOL    HW171733   5.390   5.970   4.086
56653SOL    HW271734   5.372   5.978   3.936
56654SOL     OW71735  13.630   8.291   1.918
56654SOL    HW171736  13.573   8.342   1.977
56654SOL    HW271737  13.718   8.307   1.951
56655SOL     OW71738   4.265  14.364  11.514
56655SOL    HW171739   4.298  14.302  11.579
56655SOL    HW271740   4.252  14.445  11.562
56656SOL     OW71741   4.735   2.985   5.835
56656SOL    HW171742   4.729   2.985   5.739
56656SOL    HW271743   4.790   2.909   5.855
56657SOL     OW71744   4.282  11.592   3.412
56657SOL    HW171745   4.323  11.586   3.325
56657SOL    HW271746   4.272  11.501   3.439
56658SOL     OW71747  12.754   7.522  11.551
56658SOL    HW171748  12.843   7.490  11.569
56658SOL    HW271749  12.697   7.469  11.607
56659SOL     OW71750   9.901  11.498   4.626
56659SOL    HW171751   9.849  11.422   4.654
56659SOL    HW271752   9.984  11.460   4.595
56660SOL     OW71753   0.503  13.647   5.516
56660SOL    HW171754   0.507  13.572   5.577
56660SOL    HW271755   0.580  13.699   5.538
56661SOL     OW71756   6.309   9.556   0.881
56661SOL    HW171757   6.369   9.482   0.877
56661SOL    HW271758   6.222   9.517   0.873
56662SOL     OW71759  14.594   1.028  14.313
56662SOL    HW171760  14.568   0.971  14.385
56662SOL    HW271761  14.689   1.038  14.322
56663SOL     OW71762   1.577  13.263   8.652
56663SOL    HW171763   1.581  13.189   8.591
56663SOL    HW271764   1.621  13.335   8.605
56664SOL     OW71765  11.130  12.212   3.835
56664SOL    HW171766  11.159  12.156   3.763
56664SOL    HW271767  11.168  12.172   3.913
56665SOL     OW71768   0.050  12.010  12.547
56665SOL    HW171769   0.104  12.089  12.552
56665SOL    HW271770   0.016  12.010  12.458
56666SOL     OW71771   3.423   0.198  13.296
56666SOL    HW171772   3.436   0.292  13.312
56666SOL    HW271773   3.509   0.167  13.268
56667SOL     OW71774  11.234   4.780  13.772
56667SOL    HW171775  11.309   4.823  13.731
56667SOL    HW271776  11.224   4.698  13.723
56668SOL     OW71777   3.894   9.369  11.050
56668SOL    HW171778   3.904   9.463  11.036
56668SOL    HW271779   3.879   9.360  11.143
56669SOL     OW71780   4.458   7.349  14.140
56669SOL    HW171781   4.467   7.415  14.209
56669SOL    HW271782   4.524   7.282  14.161
56670SOL     OW71783  13.025   3.890  12.570
56670SOL    HW171784  12.986   3.804  12.587
56670SOL    HW271785  12.950   3.949  12.563
56671SOL     OW71786   6.955   0.013  13.119
56671SOL    HW171787   6.881   0.013  13.179
56671SOL    HW271788   7.028  14.862  13.171
56672SOL     OW71789  10.300   1.339   0.800
56672SOL    HW171790  10.319   1.379   0.885
56672SOL    HW271791  10.385   1.317   0.763
56673SOL     OW71792   6.095   3.937   5.744
56673SOL    HW171793   6.162   3.869   5.740
56673SOL    HW271794   6.084   3.955   5.837
56674SOL     OW71795  10.636  14.697  12.374
56674SOL    HW171796  10.674  14.771  12.326
56674SOL    HW271797  10.652  14.718  12.466
56675SOL     OW71798   3.075  13.331   1.906
56675SOL    HW171799   3.086  13.388   1.830
56675SOL    HW271800   3.147  13.269   1.900
56676SOL     OW71801   4.639   1.783   9.037
56676SOL    HW171802   4.677   1.697   9.054
56676SOL    HW271803   4.545   1.771   9.049
56677SOL     OW71804   1.839   1.468   1.551
56677SOL    HW171805   1.751   1.506   1.543
56677SOL    HW271806   1.823   1.378   1.579
56678SOL     OW71807  14.744   8.616  10.295
56678SOL    HW171808  14.825   8.654  10.262
56678SOL    HW271809  14.770   8.565  10.372
56679SOL     OW71810  14.632  12.000  13.611
56679SOL    HW171811  14.628  11.923  13.667
56679SOL    HW271812  14.577  11.979  13.536
56680SOL     OW71813   5.756  11.517   5.974
56680SOL    HW171814   5.806  11.584   6.021
56680SOL    HW271815   5.666  11.530   6.003
56681SOL     OW71816   0.992   8.620   5.491
56681SOL    HW171817   1.002   8.659   5.577
56681SOL    HW271818   1.070   8.565   5.481
56682SOL     OW71819  14.435   1.221  14.735
56682SOL    HW171820  14.379   1.144  14.721
56682SOL    HW271821  14.453   1.254  14.647
56683SOL     OW71822   5.833   2.329  10.418
56683SOL    HW171823   5.911   2.273  10.421
56683SOL    HW271824   5.855   2.397  10.355
56684SOL     OW71825  14.779   9.800  14.728
56684SOL    HW171826  14.715   9.821  14.796
56684SOL    HW271827  14.820   9.885  14.707
56685SOL     OW71828   2.805   1.698  10.182
56685SOL    HW171829   2.770   1.611  10.198
56685SOL    HW271830   2.878   1.685  10.121
56686SOL     OW71831  14.301   5.111   6.512
56686SOL    HW171832  14.300   5.061   6.594
56686SOL    HW271833  14.339   5.051   6.448
56687SOL     OW71834   0.634   9.153   6.605
56687SOL    HW171835   0.629   9.058   6.615
56687SOL    HW271836   0.669   9.185   6.688
56688SOL     OW71837  12.781  10.110   2.284
56688SOL    HW171838  12.856  10.102   2.343
56688SOL    HW271839  12.736  10.189   2.313
56689SOL     OW71840   6.081   5.508   8.800
56689SOL    HW171841   6.023   5.560   8.856
56689SOL    HW271842   6.057   5.533   8.710
56690SOL     OW71843  13.409   7.857   9.283
56690SOL    HW171844  13.386   7.845   9.375
56690SOL    HW271845  13.439   7.770   9.254
56691SOL     OW71846  14.108  10.715  13.685
56691SOL    HW171847  14.096  10.660  13.762
56691SOL    HW271848  14.088  10.804  13.716
56692SOL     OW71849  10.020  10.386   9.257
56692SOL    HW171850  10.001  10.480   9.249
56692SOL    HW271851   9.943  10.343   9.222
56693SOL     OW71852   4.877  11.162  10.975
56693SOL    HW171853   4.857  11.256  10.980
56693SOL    HW271854   4.959  11.158  10.926
56694SOL     OW71855   2.664  11.112   9.202
56694SOL    HW171856   2.724  11.179   9.169
56694SOL    HW271857   2.720  11.036   9.219
56695SOL     OW71858   5.066   6.127   1.178
56695SOL    HW171859   5.004   6.122   1.105
56695SOL    HW271860   5.148   6.093   1.143
56696SOL     OW71861  10.383  10.078   9.835
56696SOL    HW171862  10.342  10.099   9.751
56696SOL    HW271863  10.371  10.157   9.888
56697SOL     OW71864   1.945  11.524   2.937
56697SOL    HW171865   1.952  11.620   2.935
56697SOL    HW271866   2.013  11.497   2.999
56698SOL     OW71867  12.366   8.145   7.325
56698SOL    HW171868  12.461   8.145   7.308
56698SOL    HW271869  12.359   8.158   7.420
56699SOL     OW71870   4.008   4.914   8.514
56699SOL    HW171871   3.957   4.988   8.482
56699SOL    HW271872   4.000   4.847   8.446
56700SOL     OW71873   6.423  14.308  10.695
56700SOL    HW171874   6.401  14.312  10.602
56700SOL    HW271875   6.512  14.343  10.699
56701SOL     OW71876  10.656   5.164  13.719
56701SOL    HW171877  10.673   5.230  13.787
56701SOL    HW271878  10.623   5.088  13.768
56702SOL     OW71879  13.476   6.499   1.299
56702SOL    HW171880  13.483   6.433   1.230
56702SOL    HW271881  13.419   6.460   1.365
56703SOL     OW71882   7.387   5.999   8.087
56703SOL    HW171883   7.326   6.003   8.014
56703SOL    HW271884   7.333   5.973   8.162
56704SOL     OW71885   7.566  10.668  11.355
56704SOL    HW171886   7.472  10.651  11.348
56704SOL    HW271887   7.605  10.582  11.367
56705SOL     OW71888   7.155   4.419   6.333
56705SOL    HW171889   7.191   4.363   6.264
56705SOL    HW271890   7.128   4.357   6.401
56706SOL     OW71891   1.587  12.397  13.939
56706SOL    HW171892   1.616  12.442  14.018
56706SOL    HW271893   1.511  12.446  13.909
56707SOL     OW71894   8.286   3.149   5.260
56707SOL    HW171895   8.224   3.078   5.245
56707SOL    HW271896   8.372   3.106   5.261
56708SOL     OW71897  10.204  13.559   1.894
56708SOL    HW171898  10.296  13.547   1.872
56708SOL    HW271899  10.205  13.614   1.973
56709SOL     OW71900   4.749   5.160  10.172
56709SOL    HW171901   4.712   5.137  10.258
56709SOL    HW271902   4.679   5.141  10.110
56710SOL     OW71903  13.992  12.244  13.055
56710SOL    HW171904  14.072  12.192  13.047
56710SOL    HW271905  13.974  12.273  12.966
56711SOL     OW71906   8.310   7.457   8.247
56711SOL    HW171907   8.245   7.406   8.296
56711SOL    HW271908   8.340   7.524   8.308
56712SOL     OW71909   8.081  10.181  12.326
56712SOL    HW171910   8.128  10.110  12.281
56712SOL    HW271911   8.054  10.240  12.256
56713SOL     OW71912  10.993   2.930  10.489
56713SOL    HW171913  11.003   2.916  10.395
56713SOL    HW271914  11.078   2.962  10.518
56714SOL     OW71915   5.800   0.313   9.455
56714SOL    HW171916   5.712   0.342   9.477
56714SOL    HW271917   5.858   0.380   9.492
56715SOL     OW71918   0.761   2.221  10.827
56715SOL    HW171919   0.714   2.154  10.779
56715SOL    HW271920   0.699   2.295  10.831
56716SOL     OW71921  11.925   2.887  12.302
56716SOL    HW171922  12.011   2.908  12.265
56716SOL    HW271923  11.918   2.943  12.380
56717SOL     OW71924   2.130  12.383  14.668
56717SOL    HW171925   2.153  12.419  14.582
56717SOL    HW271926   2.095  12.296  14.648
56718SOL     OW71927   5.939   7.434   3.011
56718SOL    HW171928   6.025   7.399   3.032
56718SOL    HW271929   5.916   7.392   2.928
56719SOL     OW71930   9.993   0.898   9.002
56719SOL    HW171931   9.990   0.965   8.933
56719SOL    HW271932  10.081   0.861   8.995
56720SOL     OW71933   1.988   5.833   3.946
56720SOL    HW171934   1.906   5.862   3.987
56720SOL    HW271935   2.025   5.771   4.009
56721SOL     OW71936   6.638   9.757   7.610
56721SOL    HW171937   6.660   9.670   7.643
56721SOL    HW271938   6.710   9.779   7.551
56722SOL     OW71939   6.836   7.262   5.142
56722SOL    HW171940   6.874   7.242   5.057
56722SOL    HW271941   6.742   7.272   5.124
56723SOL     OW71942  12.620   0.980   4.484
56723SOL    HW171943  12.564   0.970   4.562
56723SOL    HW271944  12.670   0.898   4.479
56724SOL     OW71945  12.698  13.327  11.126
56724SOL    HW171946  12.612  13.313  11.085
56724SOL    HW271947  12.684  13.400  11.186
56725SOL     OW71948  12.511   8.633   3.902
56725SOL    HW171949  12.549   8.653   3.817
56725SOL    HW271950  12.586   8.607   3.956
56726SOL     OW71951   7.700   1.345  13.793
56726SOL    HW171952   7.713   1.339  13.887
56726SOL    HW271953   7.733   1.262  13.758
56727SOL     OW71954   4.537   2.292  14.540
56727SOL    HW171955   4.491   2.375  14.528
56727SOL    HW271956   4.628   2.311  14.517
56728SOL     OW71957   4.954   4.929  14.022
56728SOL    HW171958   4.951   4.941  13.928
56728SOL    HW271959   5.001   5.007  14.055
56729SOL     OW71960   7.513  10.590   4.180
56729SOL    HW171961   7.475  10.564   4.096
56729SOL    HW271962   7.445  10.644   4.221
56730SOL     OW71963   2.500  14.266   7.276
56730SOL    HW171964   2.425  14.285   7.220
56730SOL    HW271965   2.465  14.270   7.365
56731SOL     OW71966  13.885   2.156  12.509
56731SOL    HW171967  13.961   2.211  12.491
56731SOL    HW271968  13.919   2.083  12.560
56732SOL     OW71969   6.097   8.460   7.351
56732SOL    HW171970   6.037   8.466   7.425
56732SOL    HW271971   6.144   8.378   7.365
56733SOL     OW71972   3.840   7.551   3.046
56733SOL    HW171973   3.879   7.477   3.092
56733SOL    HW271974   3.803   7.513   2.966
56734SOL     OW71975   3.038   3.013   5.072
56734SOL    HW171976   3.112   3.073   5.078
56734SOL    HW271977   2.962   3.069   5.059
56735SOL     OW71978   0.169  14.276  11.117
56735SOL    HW171979   0.243  14.241  11.167
56735SOL    HW271980   0.200  14.360  11.084
56736SOL     OW71981  13.984   6.435   2.521
56736SOL    HW171982  14.035   6.490   2.580
56736SOL    HW271983  13.897   6.431   2.561
56737SOL     OW71984   6.987   4.369  10.855
56737SOL    HW171985   7.079   4.386  10.875
56737SOL    HW271986   6.967   4.288  10.902
56738SOL     OW71987  13.280   6.772   2.592
56738SOL    HW171988  13.334   6.778   2.671
56738SOL    HW271989  13.195   6.807   2.617
56739SOL     OW71990   8.176   5.349  10.194
56739SOL    HW171991   8.243   5.384  10.252
56739SOL    HW271992   8.196   5.388  10.109
56740SOL     OW71993   1.486   7.852  10.040
56740SOL    HW171994   1.411   7.802  10.073
56740SOL    HW271995   1.555   7.838  10.105
56741SOL     OW71996   6.872   0.636  11.650
56741SOL    HW171997   6.838   0.714  11.695
56741SOL    HW271998   6.908   0.670  11.569
56742SOL     OW71999   7.895  13.494  10.637
56742SOL    HW172000   7.902  13.543  10.719
56742SOL    HW272001   7.948  13.415  10.651
56743SOL     OW72002   0.212   1.659   8.297
56743SOL    HW172003   0.297   1.616   8.312
56743SOL    HW272004   0.199   1.654   8.203
56744SOL     OW72005  13.683   7.202   0.387
56744SOL    HW172006  13.665   7.144   0.313
56744SOL    HW272007  13.619   7.176   0.454
56745SOL     OW72008  12.515  12.611  11.888
56745SOL    HW172009  12.534  12.703  11.901
56745SOL    HW272010  12.598  12.566  11.906
56746SOL     OW72011  11.461   6.709   8.383
56746SOL    HW172012  11.448   6.614   8.379
56746SOL    HW272013  11.515   6.723   8.461
56747SOL     OW72014  11.353  14.326  13.783
56747SOL    HW172015  11.301  14.377  13.846
56747SOL    HW272016  11.391  14.256  13.836
56748SOL     OW72017   2.445  12.150  12.096
56748SOL    HW172018   2.406  12.130  12.181
56748SOL    HW272019   2.495  12.230  12.110
56749SOL     OW72020   8.921   5.590  12.681
56749SOL    HW172021   8.967   5.666  12.717
56749SOL    HW272022   8.985   5.519  12.684
56750SOL     OW72023   7.641   8.648   2.035
56750SOL    HW172024   7.553   8.638   1.999
56750SOL    HW272025   7.627   8.658   2.130
56751SOL     OW72026  14.085  12.815   4.987
56751SOL    HW172027  14.119  12.899   4.956
56751SOL    HW272028  13.992  12.830   5.000
56752SOL     OW72029   6.510  10.785   7.818
56752SOL    HW172030   6.544  10.807   7.731
56752SOL    HW272031   6.569  10.716   7.850
56753SOL     OW72032  10.854   6.978  12.281
56753SOL    HW172033  10.875   6.972  12.375
56753SOL    HW272034  10.920   7.037  12.246
56754SOL     OW72035  11.006   9.718  14.339
56754SOL    HW172036  11.067   9.790  14.354
56754SOL    HW272037  11.044   9.668  14.267
56755SOL     OW72038  11.865  13.667   0.341
56755SOL    HW172039  11.928  13.643   0.409
56755SOL    HW272040  11.781  13.637   0.375
56756SOL     OW72041   0.570   0.299  13.617
56756SOL    HW172042   0.549   0.221  13.668
56756SOL    HW272043   0.659   0.284  13.586
56757SOL     OW72044   9.923   6.172   1.149
56757SOL    HW172045   9.931   6.083   1.185
56757SOL    HW272046   9.883   6.222   1.220
56758SOL     OW72047   6.012  12.034   9.699
56758SOL    HW172048   6.048  12.120   9.720
56758SOL    HW272049   5.923  12.036   9.736
56759SOL     OW72050  13.330   2.417  13.943
56759SOL    HW172051  13.246   2.446  13.979
56759SOL    HW272052  13.341   2.467  13.863
56760SOL     OW72053   7.151  13.621   7.602
56760SOL    HW172054   7.165  13.687   7.670
56760SOL    HW272055   7.239  13.594   7.577
56761SOL     OW72056  13.426   8.940   3.435
56761SOL    HW172057  13.358   9.002   3.463
56761SOL    HW272058  13.508   8.981   3.464
56762SOL     OW72059   0.890   1.870   6.436
56762SOL    HW172060   0.830   1.885   6.363
56762SOL    HW272061   0.906   1.957   6.472
56763SOL     OW72062   0.777  11.915   2.517
56763SOL    HW172063   0.763  12.010   2.511
56763SOL    HW272064   0.829  11.904   2.597
56764SOL     OW72065   9.160   9.696   3.778
56764SOL    HW172066   9.198   9.740   3.701
56764SOL    HW272067   9.178   9.756   3.850
56765SOL     OW72068  13.227   5.808  12.452
56765SOL    HW172069  13.236   5.831  12.359
56765SOL    HW272070  13.232   5.713  12.453
56766SOL     OW72071  13.292   3.127   1.528
56766SOL    HW172072  13.204   3.125   1.565
56766SOL    HW272073  13.279   3.120   1.433
56767SOL     OW72074  13.332   9.207   0.191
56767SOL    HW172075  13.420   9.238   0.213
56767SOL    HW272076  13.345   9.115   0.168
56768SOL     OW72077   0.798  11.583   5.367
56768SOL    HW172078   0.832  11.570   5.279
56768SOL    HW272079   0.719  11.529   5.371
56769SOL     OW72080  10.167  10.171   9.273
56769SOL    HW172081  10.124  10.249   9.308
56769SOL    HW272082  10.124  10.156   9.189
56770SOL     OW72083   7.806  11.777   1.123
56770SOL    HW172084   7.790  11.701   1.066
56770SOL    HW272085   7.829  11.848   1.063
56771SOL     OW72086   9.563   7.352   4.985
56771SOL    HW172087   9.468   7.348   4.973
56771SOL    HW272088   9.596   7.391   4.904
56772SOL     OW72089   3.724  14.035  12.777
56772SOL    HW172090   3.792  13.973  12.753
56772SOL    HW272091   3.712  14.024  12.871
56773SOL     OW72092   9.585   0.093   7.281
56773SOL    HW172093   9.592   0.187   7.264
56773SOL    HW272094   9.531   0.086   7.359
56774SOL     OW72095   4.438  14.365  11.903
56774SOL    HW172096   4.466  14.277  11.928
56774SOL    HW272097   4.503  14.394  11.840
56775SOL     OW72098   1.535   7.134   3.458
56775SOL    HW172099   1.479   7.133   3.381
56775SOL    HW272100   1.598   7.204   3.442
56776SOL     OW72101  12.936   2.431   6.666
56776SOL    HW172102  12.874   2.478   6.610
56776SOL    HW272103  13.013   2.488   6.668
56777SOL     OW72104   9.572   6.478   6.272
56777SOL    HW172105   9.570   6.425   6.193
56777SOL    HW272106   9.482   6.509   6.283
56778SOL     OW72107   4.077  11.927  11.666
56778SOL    HW172108   4.066  11.878  11.584
56778SOL    HW272109   4.043  11.869  11.734
56779SOL     OW72110   0.145   3.962   0.909
56779SOL    HW172111   0.239   3.969   0.891
56779SOL    HW272112   0.105   4.029   0.854
56780SOL     OW72113  11.924   4.074  13.247
56780SOL    HW172114  11.932   4.020  13.169
56780SOL    HW272115  11.920   4.011  13.319
56781SOL     OW72116   6.090   3.135  13.375
56781SOL    HW172117   6.099   3.230  13.385
56781SOL    HW272118   6.000   3.122  13.347
56782SOL     OW72119  13.317   3.379   2.971
56782SOL    HW172120  13.277   3.343   2.892
56782SOL    HW272121  13.281   3.468   2.978
56783SOL     OW72122  14.466  13.363   2.605
56783SOL    HW172123  14.419  13.444   2.582
56783SOL    HW272124  14.404  13.316   2.662
56784SOL     OW72125  10.002   4.597   6.807
56784SOL    HW172126   9.917   4.637   6.787
56784SOL    HW272127  10.056   4.616   6.730
56785SOL     OW72128   2.562   5.171   1.643
56785SOL    HW172129   2.655   5.179   1.625
56785SOL    HW272130   2.554   5.180   1.738
56786SOL     OW72131  11.364   2.565   4.104
56786SOL    HW172132  11.327   2.615   4.177
56786SOL    HW272133  11.371   2.629   4.033
56787SOL     OW72134  10.114   3.090   8.085
56787SOL    HW172135  10.033   3.044   8.108
56787SOL    HW272136  10.168   3.084   8.164
56788SOL     OW72137  13.759   2.977   8.609
56788SOL    HW172138  13.829   2.960   8.672
56788SOL    HW272139  13.802   3.021   8.536
56789SOL     OW72140   1.496   4.076   5.740
56789SOL    HW172141   1.581   4.093   5.700
56789SOL    HW272142   1.459   4.004   5.689
56790SOL     OW72143   0.328   3.136  10.946
56790SOL    HW172144   0.235   3.143  10.968
56790SOL    HW272145   0.331   3.148  10.851
56791SOL     OW72146   1.855   8.483   9.016
56791SOL    HW172147   1.882   8.399   8.978
56791SOL    HW272148   1.936   8.528   9.037
56792SOL     OW72149   1.219   4.525   2.406
56792SOL    HW172150   1.310   4.552   2.398
56792SOL    HW272151   1.221   4.451   2.468
56793SOL     OW72152   9.400   8.305   2.731
56793SOL    HW172153   9.342   8.375   2.761
56793SOL    HW272154   9.469   8.350   2.683
56794SOL     OW72155  13.983   8.906   6.213
56794SOL    HW172156  14.012   8.854   6.138
56794SOL    HW272157  14.027   8.990   6.202
56795SOL     OW72158   0.789  13.624   2.263
56795SOL    HW172159   0.876  13.663   2.269
56795SOL    HW272160   0.795  13.544   2.316
56796SOL     OW72161  12.958   4.554  12.760
56796SOL    HW172162  12.888   4.517  12.814
56796SOL    HW272163  12.913   4.613  12.700
56797SOL     OW72164  12.919   5.128  13.608
56797SOL    HW172165  12.962   5.175  13.536
56797SOL    HW272166  12.826   5.128  13.585
56798SOL     OW72167   6.236  10.599  12.326
56798SOL    HW172168   6.169  10.576  12.262
56798SOL    HW272169   6.188  10.647  12.394
56799SOL     OW72170   2.997   3.407   6.050
56799SOL    HW172171   2.959   3.444   6.130
56799SOL    HW272172   2.936   3.337   6.025
56800SOL     OW72173   1.219  12.489  11.555
56800SOL    HW172174   1.144  12.513  11.500
56800SOL    HW272175   1.213  12.394  11.565
56801SOL     OW72176   1.700  13.282  14.158
56801SOL    HW172177   1.701  13.264  14.252
56801SOL    HW272178   1.643  13.358  14.148
56802SOL     OW72179  14.574   1.733   9.184
56802SOL    HW172180  14.643   1.703   9.125
56802SOL    HW272181  14.530   1.803   9.136
56803SOL     OW72182   0.727   4.367  14.245
56803SOL    HW172183   0.785   4.292  14.233
56803SOL    HW272184   0.778   4.429  14.298
56804SOL     OW72185  13.617   8.599   0.567
56804SOL    HW172186  13.567   8.527   0.605
56804SOL    HW272187  13.628   8.662   0.638
56805SOL     OW72188   1.413   3.551   2.636
56805SOL    HW172189   1.483   3.498   2.598
56805SOL    HW272190   1.378   3.602   2.563
56806SOL     OW72191   0.416  10.766  11.558
56806SOL    HW172192   0.371  10.722  11.486
56806SOL    HW272193   0.486  10.815  11.516
56807SOL     OW72194   0.914   4.289   6.250
56807SOL    HW172195   0.914   4.379   6.216
56807SOL    HW272196   0.917   4.234   6.172
56808SOL     OW72197   1.632  13.195   1.275
56808SOL    HW172198   1.630  13.102   1.299
56808SOL    HW272199   1.652  13.241   1.357
56809SOL     OW72200   2.470   6.666   5.689
56809SOL    HW172201   2.513   6.619   5.761
56809SOL    HW272202   2.377   6.667   5.713
56810SOL     OW72203  13.931  14.209   9.543
56810SOL    HW172204  14.008  14.266   9.540
56810SOL    HW272205  13.861  14.265   9.576
56811SOL     OW72206   6.297  10.313  10.894
56811SOL    HW172207   6.256  10.314  10.981
56811SOL    HW272208   6.239  10.367  10.840
56812SOL     OW72209  13.458  12.435   7.657
56812SOL    HW172210  13.515  12.358   7.657
56812SOL    HW272211  13.424  12.439   7.746
56813SOL     OW72212  11.581   1.979  13.587
56813SOL    HW172213  11.596   2.032  13.508
56813SOL    HW272214  11.642   1.906  13.579
56814SOL     OW72215   4.714  10.043  11.782
56814SOL    HW172216   4.726  10.130  11.820
56814SOL    HW272217   4.725   9.983  11.856
56815SOL     OW72218   6.943   8.183   9.908
56815SOL    HW172219   6.902   8.148   9.988
56815SOL    HW272220   6.922   8.276   9.909
56816SOL     OW72221   5.072   9.837   1.318
56816SOL    HW172222   5.127   9.910   1.292
56816SOL    HW272223   5.078   9.835   1.413
56817SOL     OW72224  10.156   9.022   0.622
56817SOL    HW172225  10.153   8.972   0.541
56817SOL    HW272226  10.213   9.097   0.601
56818SOL     OW72227  13.873  13.898   4.035
56818SOL    HW172228  13.881  13.993   4.033
56818SOL    HW272229  13.879  13.875   4.128
56819SOL     OW72230   3.323   5.465  11.703
56819SOL    HW172231   3.340   5.460  11.609
56819SOL    HW272232   3.384   5.531  11.735
56820SOL     OW72233  10.174   4.176   4.653
56820SOL    HW172234  10.109   4.242   4.631
56820SOL    HW272235  10.151   4.101   4.599
56821SOL     OW72236   3.026  14.866   4.164
56821SOL    HW172237   3.094   0.046   4.192
56821SOL    HW272238   3.007   0.010   4.074
56822SOL     OW72239  10.104   1.021   1.213
56822SOL    HW172240  10.036   1.019   1.280
56822SOL    HW272241  10.062   0.986   1.134
56823SOL     OW72242  14.525   1.104   3.536
56823SOL    HW172243  14.439   1.066   3.519
56823SOL    HW272244  14.553   1.139   3.451
56824SOL     OW72245  14.588   0.864   4.731
56824SOL    HW172246  14.575   0.772   4.756
56824SOL    HW272247  14.540   0.914   4.795
56825SOL     OW72248   4.510   0.833   4.280
56825SOL    HW172249   4.512   0.758   4.340
56825SOL    HW272250   4.603   0.851   4.262
56826SOL     OW72251  11.020   1.855  12.043
56826SOL    HW172252  10.982   1.838  11.957
56826SOL    HW272253  11.110   1.823  12.036
56827SOL     OW72254  13.963   7.428   7.495
56827SOL    HW172255  13.974   7.455   7.404
56827SOL    HW272256  13.868   7.428   7.509
56828SOL     OW72257   1.465   8.189   8.135
56828SOL    HW172258   1.533   8.134   8.172
56828SOL    HW272259   1.441   8.146   8.052
56829SOL     OW72260  10.376  12.988  14.636
56829SOL    HW172261  10.411  12.946  14.558
56829SOL    HW272262  10.285  12.959  14.641
56830SOL     OW72263  11.303  12.173   0.894
56830SOL    HW172264  11.225  12.172   0.949
56830SOL    HW272265  11.342  12.259   0.909
56831SOL     OW72266   3.734   9.422   3.000
56831SOL    HW172267   3.683   9.464   2.931
56831SOL    HW272268   3.713   9.471   3.079
56832SOL     OW72269   5.268   7.338   6.327
56832SOL    HW172270   5.270   7.247   6.357
56832SOL    HW272271   5.215   7.337   6.248
56833SOL     OW72272   1.886  14.096   5.144
56833SOL    HW172273   1.979  14.085   5.129
56833SOL    HW272274   1.852  14.007   5.155
56834SOL     OW72275  12.240   1.800   0.547
56834SOL    HW172276  12.167   1.861   0.557
56834SOL    HW272277  12.220   1.752   0.467
56835SOL     OW72278   9.809   3.237   0.468
56835SOL    HW172279   9.802   3.327   0.497
56835SOL    HW272280   9.831   3.187   0.546
56836SOL     OW72281   1.090   7.710  14.364
56836SOL    HW172282   1.129   7.797  14.366
56836SOL    HW272283   1.110   7.676  14.277
56837SOL     OW72284  10.992  10.726  10.625
56837SOL    HW172285  10.975  10.652  10.567
56837SOL    HW272286  11.072  10.702  10.671
56838SOL     OW72287   0.528   5.728   0.611
56838SOL    HW172288   0.523   5.805   0.667
56838SOL    HW272289   0.442   5.688   0.618
56839SOL     OW72290  12.901   9.113   2.792
56839SOL    HW172291  12.918   9.194   2.745
56839SOL    HW272292  12.806   9.101   2.784
56840SOL     OW72293   3.273   0.515  12.358
56840SOL    HW172294   3.195   0.462  12.379
56840SOL    HW272295   3.339   0.486  12.422
56841SOL     OW72296   9.684  10.649  10.791
56841SOL    HW172297   9.768  10.632  10.748
56841SOL    HW272298   9.670  10.573  10.847
56842SOL     OW72299   0.252  12.686   1.564
56842SOL    HW172300   0.251  12.724   1.651
56842SOL    HW272301   0.338  12.707   1.529
56843SOL     OW72302   4.082   1.171   2.778
56843SOL    HW172303   4.028   1.151   2.855
56843SOL    HW272304   4.151   1.227   2.812
56844SOL     OW72305   6.066  13.192   0.098
56844SOL    HW172306   6.085  13.276   0.141
56844SOL    HW272307   6.143  13.175   0.044
56845SOL     OW72308   2.568   7.370   7.064
56845SOL    HW172309   2.607   7.345   6.980
56845SOL    HW272310   2.639   7.355   7.127
56846SOL     OW72311   2.663  13.712   0.588
56846SOL    HW172312   2.658  13.687   0.496
56846SOL    HW272313   2.589  13.770   0.602
56847SOL     OW72314   8.773   6.249   5.731
56847SOL    HW172315   8.823   6.215   5.805
56847SOL    HW272316   8.839   6.279   5.669
56848SOL     OW72317   9.244  13.862  10.993
56848SOL    HW172318   9.191  13.863  10.913
56848SOL    HW272319   9.245  13.954  11.021
56849SOL     OW72320  11.151   7.421   1.906
56849SOL    HW172321  11.088   7.421   1.978
56849SOL    HW272322  11.124   7.493   1.850
56850SOL     OW72323   2.116   7.735   0.804
56850SOL    HW172324   2.051   7.711   0.737
56850SOL    HW272325   2.072   7.803   0.855
56851SOL     OW72326  14.803   4.972   1.375
56851SOL    HW172327  14.730   4.927   1.419
56851SOL    HW272328  14.802   5.060   1.412
56852SOL     OW72329   6.046   2.455   6.927
56852SOL    HW172330   6.023   2.464   7.020
56852SOL    HW272331   5.971   2.491   6.880
56853SOL     OW72332   5.767   1.454  10.330
56853SOL    HW172333   5.674   1.436  10.316
56853SOL    HW272334   5.777   1.547  10.309
56854SOL     OW72335  11.291   7.071   2.849
56854SOL    HW172336  11.272   7.084   2.756
56854SOL    HW272337  11.257   6.983   2.869
56855SOL     OW72338   4.289   0.867   3.970
56855SOL    HW172339   4.232   0.790   3.971
56855SOL    HW272340   4.335   0.862   3.887
56856SOL     OW72341   7.170   8.388   0.332
56856SOL    HW172342   7.241   8.325   0.336
56856SOL    HW272343   7.102   8.345   0.280
56857SOL     OW72344   6.297   4.211   3.164
56857SOL    HW172345   6.305   4.134   3.107
56857SOL    HW272346   6.377   4.261   3.147
56858SOL     OW72347   3.964  11.337   1.590
56858SOL    HW172348   3.934  11.259   1.543
56858SOL    HW272349   4.004  11.304   1.669
56859SOL     OW72350  10.911   1.221  12.937
56859SOL    HW172351  10.827   1.180  12.916
56859SOL    HW272352  10.894   1.315  12.930
56860SOL     OW72353   4.652   2.567   4.301
56860SOL    HW172354   4.643   2.639   4.363
56860SOL    HW272355   4.640   2.607   4.215
56861SOL     OW72356   2.908   9.853   2.348
56861SOL    HW172357   2.834   9.914   2.350
56861SOL    HW272358   2.955   9.870   2.430
56862SOL     OW72359  13.624  14.275   7.481
56862SOL    HW172360  13.630  14.287   7.386
56862SOL    HW272361  13.626  14.365   7.516
56863SOL     OW72362  12.323   2.663   0.945
56863SOL    HW172363  12.364   2.748   0.931
56863SOL    HW272364  12.320   2.623   0.859
56864SOL     OW72365   9.329   1.322   1.155
56864SOL    HW172366   9.366   1.393   1.208
56864SOL    HW272367   9.235   1.323   1.177
56865SOL     OW72368  14.482   2.098   7.663
56865SOL    HW172369  14.462   2.020   7.611
56865SOL    HW272370  14.452   2.171   7.608
56866SOL     OW72371  13.921   7.800   5.022
56866SOL    HW172372  13.963   7.881   4.993
56866SOL    HW272373  13.843   7.792   4.968
56867SOL     OW72374   6.476  11.360   1.270
56867SOL    HW172375   6.469  11.392   1.180
56867SOL    HW272376   6.386  11.358   1.302
56868SOL     OW72377   6.280   4.102  12.646
56868SOL    HW172378   6.253   4.177  12.593
56868SOL    HW272379   6.275   4.134  12.736
56869SOL     OW72380   7.203   0.076  11.903
56869SOL    HW172381   7.247   0.046  11.823
56869SOL    HW272382   7.210   0.171  11.900
56870SOL     OW72383   7.732  11.181  14.550
56870SOL    HW172384   7.693  11.102  14.513
56870SOL    HW272385   7.788  11.149  14.621
56871SOL     OW72386   0.633  13.385  14.432
56871SOL    HW172387   0.552  13.335  14.430
56871SOL    HW272388   0.702  13.320  14.437
56872SOL     OW72389   6.428   7.010  13.138
56872SOL    HW172390   6.508   7.062  13.145
56872SOL    HW272391   6.456   6.930  13.093
56873SOL     OW72392  12.117  12.485  11.675
56873SOL    HW172393  12.096  12.393  11.658
56873SOL    HW272394  12.112  12.527  11.590
56874SOL     OW72395  11.098   1.446  13.547
56874SOL    HW172396  11.034   1.516  13.561
56874SOL    HW272397  11.093   1.426  13.454
56875SOL     OW72398  11.352   3.006  11.473
56875SOL    HW172399  11.392   3.049  11.397
56875SOL    HW272400  11.263   2.987  11.445
56876SOL     OW72401  13.639   6.077   8.947
56876SOL    HW172402  13.614   6.115   9.031
56876SOL    HW272403  13.714   6.021   8.968
56877SOL     OW72404   8.288   9.428   6.965
56877SOL    HW172405   8.345   9.352   6.977
56877SOL    HW272406   8.252   9.417   6.878
56878SOL     OW72407   3.635  10.079  13.649
56878SOL    HW172408   3.685  10.087  13.730
56878SOL    HW272409   3.691  10.027  13.591
56879SOL     OW72410   3.524   4.353   8.590
56879SOL    HW172411   3.605   4.304   8.605
56879SOL    HW272412   3.473   4.297   8.531
56880SOL     OW72413  13.680   8.183   1.266
56880SOL    HW172414  13.639   8.253   1.317
56880SOL    HW272415  13.655   8.202   1.176
56881SOL     OW72416  13.920   1.109   1.070
56881SOL    HW172417  13.954   1.180   1.126
56881SOL    HW272418  13.829   1.134   1.053
56882SOL     OW72419   7.465   7.147   2.872
56882SOL    HW172420   7.398   7.082   2.853
56882SOL    HW272421   7.548   7.101   2.861
56883SOL     OW72422   8.827   4.546  12.570
56883SOL    HW172423   8.845   4.637  12.545
56883SOL    HW272424   8.896   4.525  12.633
56884SOL     OW72425   1.850   1.024   0.650
56884SOL    HW172426   1.771   0.970   0.653
56884SOL    HW272427   1.918   0.968   0.688
56885SOL     OW72428  14.129  14.039   6.089
56885SOL    HW172429  14.183  14.040   6.168
56885SOL    HW272430  14.108  14.131   6.073
56886SOL     OW72431   5.949   8.412   9.841
56886SOL    HW172432   5.931   8.506   9.842
56886SOL    HW272433   6.004   8.397   9.917
56887SOL     OW72434  14.594  14.663  12.742
56887SOL    HW172435  14.610  14.648  12.649
56887SOL    HW272436  14.540  14.742  12.744
56888SOL     OW72437   8.256  12.540  12.592
56888SOL    HW172438   8.272  12.455  12.552
56888SOL    HW272439   8.174  12.569  12.552
56889SOL     OW72440   3.554   0.416   6.539
56889SOL    HW172441   3.512   0.358   6.602
56889SOL    HW272442   3.592   0.486   6.592
56890SOL     OW72443   5.658  14.361   5.270
56890SOL    HW172444   5.715  14.434   5.245
56890SOL    HW272445   5.639  14.316   5.188
56891SOL     OW72446   2.692   5.950   7.545
56891SOL    HW172447   2.732   5.913   7.624
56891SOL    HW272448   2.622   6.006   7.577
56892SOL     OW72449   9.077  10.650  12.680
56892SOL    HW172450   9.069  10.718  12.747
56892SOL    HW272451   8.988  10.637  12.648
56893SOL     OW72452   4.669   3.439   1.305
56893SOL    HW172453   4.659   3.359   1.357
56893SOL    HW272454   4.579   3.465   1.285
56894SOL     OW72455  10.725   3.032   2.047
56894SOL    HW172456  10.689   3.032   2.136
56894SOL    HW272457  10.649   3.017   1.991
56895SOL     OW72458  10.471   0.703  14.210
56895SOL    HW172459  10.428   0.758  14.144
56895SOL    HW272460  10.531   0.647  14.160
56896SOL     OW72461  13.691   0.240   0.178
56896SOL    HW172462  13.677   0.273   0.267
56896SOL    HW272463  13.653   0.307   0.121
56897SOL     OW72464  11.777   0.064  11.202
56897SOL    HW172465  11.688   0.044  11.175
56897SOL    HW272466  11.797   0.148  11.161
56898SOL     OW72467  11.010   6.930   1.192
56898SOL    HW172468  11.048   6.898   1.274
56898SOL    HW272469  10.918   6.906   1.197
56899SOL     OW72470   6.534   8.230  12.363
56899SOL    HW172471   6.464   8.264  12.308
56899SOL    HW272472   6.603   8.205  12.301
56900SOL     OW72473   0.245   8.925  13.954
56900SOL    HW172474   0.254   8.920  14.049
56900SOL    HW272475   0.192   8.849  13.931
56901SOL     OW72476  14.851   8.120   3.402
56901SOL    HW172477   0.053   8.089   3.368
56901SOL    HW272478  14.785   8.073   3.350
56902SOL     OW72479   2.651   1.392   3.057
56902SOL    HW172480   2.561   1.358   3.057
56902SOL    HW272481   2.641   1.484   3.081
56903SOL     OW72482   1.309   4.483   3.251
56903SOL    HW172483   1.320   4.529   3.168
56903SOL    HW272484   1.241   4.418   3.234
56904SOL     OW72485  11.807  14.096   3.882
56904SOL    HW172486  11.833  14.009   3.910
56904SOL    HW272487  11.889  14.139   3.856
56905SOL     OW72488  11.935   6.096   1.020
56905SOL    HW172489  11.940   6.134   0.932
56905SOL    HW272490  11.876   6.021   1.011
56906SOL     OW72491   5.659   9.097   2.780
56906SOL    HW172492   5.577   9.098   2.731
56906SOL    HW272493   5.691   9.187   2.776
56907SOL     OW72494   6.825   5.738   0.103
56907SOL    HW172495   6.906   5.749   0.053
56907SOL    HW272496   6.758   5.722   0.037
56908SOL     OW72497  11.018  13.983   3.142
56908SOL    HW172498  11.096  13.995   3.089
56908SOL    HW272499  11.026  13.895   3.177
56909SOL     OW72500   4.714   0.369   3.177
56909SOL    HW172501   4.627   0.330   3.176
56909SOL    HW272502   4.754   0.342   3.094
56910SOL     OW72503  12.970   8.881   7.000
56910SOL    HW172504  12.928   8.796   6.991
56910SOL    HW272505  13.025   8.873   7.078
56911SOL     OW72506   4.716   0.113   8.382
56911SOL    HW172507   4.800   0.103   8.427
56911SOL    HW272508   4.686   0.201   8.405
56912SOL     OW72509  12.548   2.932   5.779
56912SOL    HW172510  12.627   2.921   5.833
56912SOL    HW272511  12.483   2.970   5.838
56913SOL     OW72512   5.368   3.850  11.898
56913SOL    HW172513   5.323   3.777  11.941
56913SOL    HW272514   5.321   3.928  11.926
56914SOL     OW72515  14.376  14.050   7.488
56914SOL    HW172516  14.387  14.143   7.506
56914SOL    HW272517  14.281  14.038   7.483
56915SOL     OW72518  12.787  10.825  11.579
56915SOL    HW172519  12.870  10.796  11.616
56915SOL    HW272520  12.801  10.822  11.484
56916SOL     OW72521   1.863   6.315   4.723
56916SOL    HW172522   1.898   6.364   4.798
56916SOL    HW272523   1.905   6.356   4.647
56917SOL     OW72524  10.552  10.816   5.882
56917SOL    HW172525  10.547  10.761   5.960
56917SOL    HW272526  10.646  10.827   5.866
56918SOL     OW72527  13.210  11.722   2.058
56918SOL    HW172528  13.137  11.673   2.093
56918SOL    HW272529  13.244  11.668   1.986
56919SOL     OW72530   0.103   7.696   9.296
56919SOL    HW172531   0.175   7.756   9.277
56919SOL    HW272532   0.137   7.609   9.275
56920SOL     OW72533   2.487  11.018  14.456
56920SOL    HW172534   2.510  10.948  14.395
56920SOL    HW272535   2.526  10.990  14.539
56921SOL     OW72536  12.753   9.904   9.623
56921SOL    HW172537  12.779   9.975   9.564
56921SOL    HW272538  12.758   9.942   9.710
56922SOL     OW72539   8.900  10.446  14.181
56922SOL    HW172540   8.848  10.495  14.118
56922SOL    HW272541   8.861  10.467  14.266
56923SOL     OW72542   1.345   7.656   6.770
56923SOL    HW172543   1.405   7.599   6.722
56923SOL    HW272544   1.306   7.712   6.703
56924SOL     OW72545  11.510  13.998   9.357
56924SOL    HW172546  11.497  13.958   9.271
56924SOL    HW272547  11.598  14.035   9.353
56925SOL     OW72548   3.811  10.215   0.676
56925SOL    HW172549   3.810  10.131   0.722
56925SOL    HW272550   3.729  10.217   0.627
56926SOL     OW72551  11.836  12.864   1.847
56926SOL    HW172552  11.912  12.911   1.812
56926SOL    HW272553  11.810  12.915   1.924
56927SOL     OW72554  13.024   5.335  14.634
56927SOL    HW172555  12.929   5.345  14.621
56927SOL    HW272556  13.062   5.413  14.594
56928SOL     OW72557   0.550   2.148   2.885
56928SOL    HW172558   0.491   2.084   2.926
56928SOL    HW272559   0.533   2.230   2.933
56929SOL     OW72560   2.457  11.288  12.656
56929SOL    HW172561   2.504  11.205  12.668
56929SOL    HW272562   2.365  11.262  12.649
56930SOL     OW72563   7.247   9.628   4.729
56930SOL    HW172564   7.287   9.565   4.790
56930SOL    HW272565   7.161   9.646   4.766
56931SOL     OW72566   4.545  10.085  10.763
56931SOL    HW172567   4.634  10.077  10.730
56931SOL    HW272568   4.517   9.995  10.780
56932SOL     OW72569   5.982  12.087   5.310
56932SOL    HW172570   6.032  12.094   5.229
56932SOL    HW272571   5.946  12.175   5.324
56933SOL     OW72572  10.517   2.268  11.243
56933SOL    HW172573  10.495   2.230  11.328
56933SOL    HW272574  10.612   2.283  11.247
56934SOL     OW72575   5.880  10.114   4.579
56934SOL    HW172576   5.865  10.035   4.631
56934SOL    HW272577   5.962  10.096   4.532
56935SOL     OW72578   3.467   0.075   1.535
56935SOL    HW172579   3.405   0.108   1.470
56935SOL    HW272580   3.498  14.873   1.498
56936SOL     OW72581  14.588   5.731   6.313
56936SOL    HW172582  14.614   5.796   6.248
56936SOL    HW272583  14.550   5.782   6.384
56937SOL     OW72584   8.904   8.900   6.054
56937SOL    HW172585   8.991   8.897   6.014
56937SOL    HW272586   8.885   8.808   6.074
56938SOL     OW72587  13.073  14.372   6.639
56938SOL    HW172588  13.112  14.337   6.559
56938SOL    HW272589  13.034  14.455   6.611
56939SOL     OW72590   9.928   1.430   2.292
56939SOL    HW172591   9.892   1.432   2.380
56939SOL    HW272592   9.944   1.337   2.275
56940SOL     OW72593  11.523  12.118   0.611
56940SOL    HW172594  11.455  12.062   0.573
56940SOL    HW272595  11.508  12.204   0.571
56941SOL     OW72596   7.669   0.630   9.770
56941SOL    HW172597   7.577   0.606   9.777
56941SOL    HW272598   7.705   0.612   9.857
56942SOL     OW72599   9.082   9.661  10.279
56942SOL    HW172600   9.102   9.671  10.372
56942SOL    HW272601   9.051   9.571  10.271
56943SOL     OW72602   4.973  14.129  12.070
56943SOL    HW172603   4.924  14.184  12.132
56943SOL    HW272604   4.999  14.189  12.000
56944SOL     OW72605   3.947   4.241   2.953
56944SOL    HW172606   3.986   4.169   2.904
56944SOL    HW272607   4.020   4.279   3.002
56945SOL     OW72608   7.372  12.108   7.501
56945SOL    HW172609   7.313  12.181   7.481
56945SOL    HW272610   7.452  12.150   7.532
56946SOL     OW72611   5.377  10.720  12.409
56946SOL    HW172612   5.289  10.727  12.372
56946SOL    HW272613   5.411  10.809  12.408
56947SOL     OW72614   5.271  10.976   8.049
56947SOL    HW172615   5.333  11.012   8.112
56947SOL    HW272616   5.241  11.052   7.998
56948SOL     OW72617   9.696   7.238   8.625
56948SOL    HW172618   9.786   7.211   8.605
56948SOL    HW272619   9.702   7.286   8.707
56949SOL     OW72620   1.766  10.780   8.966
56949SOL    HW172621   1.772  10.874   8.983
56949SOL    HW272622   1.819  10.767   8.887
56950SOL     OW72623   9.522   8.381   5.786
56950SOL    HW172624   9.541   8.347   5.873
56950SOL    HW272625   9.463   8.317   5.747
56951SOL     OW72626   7.398   4.055   9.613
56951SOL    HW172627   7.475   4.058   9.669
56951SOL    HW272628   7.369   3.963   9.617
56952SOL     OW72629  14.266  12.090  12.549
56952SOL    HW172630  14.222  12.166  12.511
56952SOL    HW272631  14.244  12.018  12.489
56953SOL     OW72632   2.430   2.459   1.440
56953SOL    HW172633   2.393   2.430   1.356
56953SOL    HW272634   2.498   2.395   1.459
56954SOL     OW72635   0.371   3.345   3.415
56954SOL    HW172636   0.356   3.407   3.486
56954SOL    HW272637   0.427   3.392   3.353
56955SOL     OW72638  13.936  10.574  13.025
56955SOL    HW172639  13.974  10.634  13.090
56955SOL    HW272640  13.892  10.508  13.078
56956SOL     OW72641  14.398  13.349   5.253
56956SOL    HW172642  14.318  13.350   5.201
56956SOL    HW272643  14.377  13.298   5.331
56957SOL     OW72644   2.875   7.960   0.515
56957SOL    HW172645   2.825   7.880   0.496
56957SOL    HW272646   2.812   8.017   0.559
56958SOL     OW72647   7.641   9.062   8.574
56958SOL    HW172648   7.594   8.982   8.597
56958SOL    HW272649   7.644   9.112   8.655
56959SOL     OW72650  10.787  13.566   8.156
56959SOL    HW172651  10.876  13.600   8.171
56959SOL    HW272652  10.772  13.580   8.063
56960SOL     OW72653   1.793   7.763   8.081
56960SOL    HW172654   1.834   7.729   8.001
56960SOL    HW272655   1.702   7.780   8.057
56961SOL     OW72656   9.722  13.699   1.071
56961SOL    HW172657   9.652  13.761   1.090
56961SOL    HW272658   9.787  13.750   1.023
56962SOL     OW72659  12.828   3.891  12.339
56962SOL    HW172660  12.836   3.973  12.289
56962SOL    HW272661  12.752   3.906  12.395
56963SOL     OW72662   4.964   9.367  10.977
56963SOL    HW172663   4.903   9.343  10.908
56963SOL    HW272664   5.015   9.287  10.992
56964SOL     OW72665   1.863  12.521   9.253
56964SOL    HW172666   1.836  12.430   9.243
56964SOL    HW272667   1.790  12.563   9.299
56965SOL     OW72668  11.538  12.288   2.741
56965SOL    HW172669  11.460  12.305   2.687
56965SOL    HW272670  11.530  12.197   2.767
56966SOL     OW72671  13.371   7.779   0.732
56966SOL    HW172672  13.457   7.753   0.698
56966SOL    HW272673  13.387   7.799   0.824
56967SOL     OW72674   9.616   1.293   3.941
56967SOL    HW172675   9.670   1.323   3.868
56967SOL    HW272676   9.635   1.354   4.012
56968SOL     OW72677   0.320   9.072  10.885
56968SOL    HW172678   0.392   9.090  10.824
56968SOL    HW272679   0.314   8.977  10.889
56969SOL     OW72680   6.774  10.989   1.466
56969SOL    HW172681   6.703  11.036   1.421
56969SOL    HW272682   6.730  10.941   1.536
56970SOL     OW72683   3.507   7.250  12.267
56970SOL    HW172684   3.552   7.323  12.224
56970SOL    HW272685   3.533   7.257  12.359
56971SOL     OW72686   2.556   0.731   3.414
56971SOL    HW172687   2.517   0.775   3.490
56971SOL    HW272688   2.546   0.795   3.343
56972SOL     OW72689   3.891   2.004   2.352
56972SOL    HW172690   3.985   1.997   2.333
56972SOL    HW272691   3.850   1.941   2.293
56973SOL     OW72692   7.755   7.657   5.349
56973SOL    HW172693   7.708   7.578   5.377
56973SOL    HW272694   7.757   7.712   5.427
56974SOL     OW72695  12.402  14.033  12.258
56974SOL    HW172696  12.391  14.045  12.163
56974SOL    HW272697  12.316  14.001  12.288
56975SOL     OW72698  13.809   9.921   3.442
56975SOL    HW172699  13.800   9.952   3.532
56975SOL    HW272700  13.871   9.849   3.448
56976SOL     OW72701  14.140  11.393   0.867
56976SOL    HW172702  14.129  11.407   0.961
56976SOL    HW272703  14.187  11.471   0.837
56977SOL     OW72704   7.264   6.394   3.000
56977SOL    HW172705   7.206   6.470   2.996
56977SOL    HW272706   7.207   6.319   2.981
56978SOL     OW72707  14.858   5.564   0.140
56978SOL    HW172708   0.019   5.643   0.173
56978SOL    HW272709  14.771   5.592   0.113
56979SOL     OW72710   4.028   2.372  11.935
56979SOL    HW172711   4.007   2.434  12.005
56979SOL    HW272712   3.967   2.394  11.864
56980SOL     OW72713   6.548   3.725   2.911
56980SOL    HW172714   6.607   3.775   2.967
56980SOL    HW272715   6.567   3.634   2.931
56981SOL     OW72716   9.227  13.732   6.413
56981SOL    HW172717   9.186  13.794   6.353
56981SOL    HW272718   9.281  13.677   6.356
56982SOL     OW72719   6.049   9.784   8.183
56982SOL    HW172720   6.041   9.756   8.092
56982SOL    HW272721   6.069   9.704   8.232
56983SOL     OW72722   2.663   7.067   9.073
56983SOL    HW172723   2.600   7.002   9.040
56983SOL    HW272724   2.713   7.093   8.995
56984SOL     OW72725   6.018   5.662   1.753
56984SOL    HW172726   6.080   5.590   1.763
56984SOL    HW272727   6.048   5.728   1.816
56985SOL     OW72728   9.506   9.623   5.071
56985SOL    HW172729   9.502   9.556   5.139
56985SOL    HW272730   9.545   9.578   4.996
56986SOL     OW72731   4.170   8.462   4.087
56986SOL    HW172732   4.176   8.397   4.157
56986SOL    HW272733   4.079   8.490   4.088
56987SOL     OW72734   4.425   7.945  10.595
56987SOL    HW172735   4.471   7.978  10.518
56987SOL    HW272736   4.359   8.012  10.615
56988SOL     OW72737   6.785   8.773  13.560
56988SOL    HW172738   6.720   8.796  13.493
56988SOL    HW272739   6.733   8.757  13.639
56989SOL     OW72740   5.320  14.078  11.799
56989SOL    HW172741   5.257  14.149  11.784
56989SOL    HW272742   5.303  14.016  11.728
56990SOL     OW72743  12.386   2.619  13.976
56990SOL    HW172744  12.346   2.578  13.899
56990SOL    HW272745  12.319   2.611  14.044
56991SOL     OW72746  12.777   5.248  12.823
56991SOL    HW172747  12.837   5.299  12.878
56991SOL    HW272748  12.732   5.190  12.885
56992SOL     OW72749  13.045  12.852  14.343
56992SOL    HW172750  13.014  12.851  14.253
56992SOL    HW272751  13.059  12.760  14.365
56993SOL     OW72752   1.412   7.846   8.804
56993SOL    HW172753   1.446   7.834   8.893
56993SOL    HW272754   1.354   7.922   8.811
56994SOL     OW72755   2.860   3.308  12.861
56994SOL    HW172756   2.955   3.318  12.867
56994SOL    HW272757   2.840   3.228  12.909
56995SOL     OW72758   7.902   8.329   6.491
56995SOL    HW172759   7.836   8.387   6.528
56995SOL    HW272760   7.880   8.324   6.398
56996SOL     OW72761   9.736  10.151   0.887
56996SOL    HW172762   9.762  10.062   0.864
56996SOL    HW272763   9.652  10.140   0.932
56997SOL     OW72764   4.851  10.750   3.533
56997SOL    HW172765   4.909  10.795   3.594
56997SOL    HW272766   4.820  10.820   3.475
56998SOL     OW72767  11.907   7.204   4.640
56998SOL    HW172768  11.865   7.221   4.556
56998SOL    HW272769  11.980   7.267   4.643
56999SOL     OW72770  10.329  12.744  11.850
56999SOL    HW172771  10.418  12.736  11.885
56999SOL    HW272772  10.332  12.820  11.792
57000SOL     OW72773  11.658  10.305   9.115
57000SOL    HW172774  11.566  10.315   9.138
57000SOL    HW272775  11.669  10.357   9.035
57001SOL     OW72776   3.736   9.395   4.491
57001SOL    HW172777   3.673   9.354   4.431
57001SOL    HW272778   3.682   9.430   4.562
57002SOL     OW72779   2.159   7.138  14.380
57002SOL    HW172780   2.115   7.216  14.415
57002SOL    HW272781   2.122   7.065  14.430
57003SOL     OW72782   5.178  11.245   8.893
57003SOL    HW172783   5.103  11.213   8.844
57003SOL    HW272784   5.140  11.296   8.965
57004SOL     OW72785   3.304  10.626   2.260
57004SOL    HW172786   3.267  10.580   2.185
57004SOL    HW272787   3.228  10.646   2.315
57005SOL     OW72788   5.336   4.287  13.259
57005SOL    HW172789   5.338   4.381  13.246
57005SOL    HW272790   5.260   4.271  13.314
57006SOL     OW72791  10.223  12.072   1.997
57006SOL    HW172792  10.157  12.008   1.972
57006SOL    HW272793  10.192  12.108   2.080
57007SOL     OW72794  13.315  14.180   1.735
57007SOL    HW172795  13.226  14.178   1.701
57007SOL    HW272796  13.338  14.273   1.737
57008SOL     OW72797   6.197   2.672   4.669
57008SOL    HW172798   6.210   2.767   4.678
57008SOL    HW272799   6.112   2.664   4.626
57009SOL     OW72800   8.887   9.292   5.897
57009SOL    HW172801   8.939   9.355   5.846
57009SOL    HW272802   8.835   9.245   5.831
57010SOL     OW72803   6.487  10.809  13.283
57010SOL    HW172804   6.446  10.723  13.270
57010SOL    HW272805   6.561  10.810  13.223
57011SOL     OW72806  14.721   1.187   9.167
57011SOL    HW172807  14.728   1.224   9.079
57011SOL    HW272808  14.807   1.202   9.206
57012SOL     OW72809   9.953   9.645   6.413
57012SOL    HW172810   9.928   9.558   6.444
57012SOL    HW272811   9.871   9.694   6.410
57013SOL     OW72812  11.409   3.776   9.632
57013SOL    HW172813  11.330   3.811   9.673
57013SOL    HW272814  11.462   3.746   9.706
57014SOL     OW72815   4.479   1.312  11.426
57014SOL    HW172816   4.555   1.371  11.426
57014SOL    HW272817   4.501   1.244  11.362
57015SOL     OW72818  12.885   2.846  14.095
57015SOL    HW172819  12.822   2.911  14.066
57015SOL    HW272820  12.849   2.763  14.064
57016SOL     OW72821   5.783  12.045   7.567
57016SOL    HW172822   5.733  12.052   7.485
57016SOL    HW272823   5.720  12.065   7.636
57017SOL     OW72824   2.021   1.872  13.623
57017SOL    HW172825   1.971   1.941  13.578
57017SOL    HW272826   2.022   1.899  13.715
57018SOL     OW72827   6.353  12.122   4.868
57018SOL    HW172828   6.300  12.063   4.922
57018SOL    HW272829   6.442  12.112   4.901
57019SOL     OW72830  11.591   9.597   0.481
57019SOL    HW172831  11.662   9.540   0.509
57019SOL    HW272832  11.536   9.608   0.559
57020SOL     OW72833   9.099   4.877   3.487
57020SOL    HW172834   9.152   4.956   3.499
57020SOL    HW272835   9.038   4.900   3.416
57021SOL     OW72836   7.404   2.469   4.598
57021SOL    HW172837   7.400   2.377   4.571
57021SOL    HW272838   7.413   2.518   4.516
57022SOL     OW72839   9.549  12.392   6.049
57022SOL    HW172840   9.517  12.329   5.985
57022SOL    HW272841   9.547  12.345   6.133
57023SOL     OW72842   0.488   9.426   4.002
57023SOL    HW172843   0.495   9.354   3.939
57023SOL    HW272844   0.395   9.431   4.024
57024SOL     OW72845   2.336   2.914   6.863
57024SOL    HW172846   2.267   2.915   6.797
57024SOL    HW272847   2.399   2.849   6.832
57025SOL     OW72848  12.176   7.180   4.847
57025SOL    HW172849  12.177   7.102   4.791
57025SOL    HW272850  12.174   7.253   4.786
57026SOL     OW72851   2.252   8.465  13.416
57026SOL    HW172852   2.179   8.407  13.438
57026SOL    HW272853   2.324   8.434  13.471
57027SOL     OW72854  14.645   3.186  13.701
57027SOL    HW172855  14.659   3.275  13.734
57027SOL    HW272856  14.728   3.162  13.659
57028SOL     OW72857  11.475  13.627  10.833
57028SOL    HW172858  11.556  13.597  10.874
57028SOL    HW272859  11.405  13.590  10.887
57029SOL     OW72860   1.542   0.072   7.660
57029SOL    HW172861   1.484   0.002   7.691
57029SOL    HW272862   1.526   0.145   7.720
57030SOL     OW72863   7.411   9.884   3.162
57030SOL    HW172864   7.371   9.926   3.086
57030SOL    HW272865   7.359   9.804   3.176
57031SOL     OW72866   8.707   9.541  11.899
57031SOL    HW172867   8.751   9.459  11.918
57031SOL    HW272868   8.681   9.534  11.807
57032SOL     OW72869   3.676   4.711   5.947
57032SOL    HW172870   3.676   4.625   5.989
57032SOL    HW272871   3.584   4.729   5.929
57033SOL     OW72872  11.696   6.202   3.485
57033SOL    HW172873  11.760   6.261   3.525
57033SOL    HW272874  11.744   6.160   3.413
57034SOL     OW72875   5.301   6.199   6.456
57034SOL    HW172876   5.224   6.253   6.474
57034SOL    HW272877   5.290   6.171   6.365
57035SOL     OW72878   1.242   2.600   1.997
57035SOL    HW172879   1.179   2.664   2.030
57035SOL    HW272880   1.198   2.560   1.922
57036SOL     OW72881   5.198  12.064  14.705
57036SOL    HW172882   5.139  12.138  14.693
57036SOL    HW272883   5.196  12.047  14.800
57037SOL     OW72884   7.170  12.759  11.060
57037SOL    HW172885   7.089  12.710  11.044
57037SOL    HW272886   7.157  12.800  11.146
57038SOL     OW72887   9.983  13.344   6.386
57038SOL    HW172888   9.995  13.305   6.473
57038SOL    HW272889   9.914  13.290   6.346
57039SOL     OW72890  13.045   0.221   8.906
57039SOL    HW172891  12.975   0.195   8.846
57039SOL    HW272892  13.000   0.267   8.977
57040SOL     OW72893  13.991  12.126   3.305
57040SOL    HW172894  14.011  12.033   3.312
57040SOL    HW272895  14.021  12.163   3.388
57041SOL     OW72896  10.594   3.038   6.351
57041SOL    HW172897  10.622   3.018   6.261
57041SOL    HW272898  10.502   3.012   6.354
57042SOL     OW72899  12.719   4.168   9.221
57042SOL    HW172900  12.728   4.073   9.235
57042SOL    HW272901  12.648   4.176   9.157
57043SOL     OW72902  10.603   9.533  10.184
57043SOL    HW172903  10.629   9.477  10.257
57043SOL    HW272904  10.684   9.577  10.157
57044SOL     OW72905   7.014   2.833   4.307
57044SOL    HW172906   6.987   2.827   4.399
57044SOL    HW272907   7.016   2.927   4.288
57045SOL     OW72908   8.420   2.778   0.643
57045SOL    HW172909   8.380   2.730   0.715
57045SOL    HW272910   8.359   2.767   0.570
57046SOL     OW72911   7.528  12.916   3.033
57046SOL    HW172912   7.553  12.990   2.978
57046SOL    HW272913   7.472  12.954   3.101
57047SOL     OW72914  12.565  12.917   9.801
57047SOL    HW172915  12.601  12.986   9.747
57047SOL    HW272916  12.478  12.901   9.764
57048SOL     OW72917  11.472  11.358  12.531
57048SOL    HW172918  11.461  11.322  12.620
57048SOL    HW272919  11.557  11.401  12.534
57049SOL     OW72920   9.808   9.831   7.030
57049SOL    HW172921   9.849   9.781   6.959
57049SOL    HW272922   9.881   9.853   7.088
57050SOL     OW72923   4.503  11.459  13.475
57050SOL    HW172924   4.584  11.429  13.437
57050SOL    HW272925   4.437  11.397  13.445
57051SOL     OW72926   5.098   6.448  13.086
57051SOL    HW172927   5.020   6.477  13.132
57051SOL    HW272928   5.158   6.523  13.091
57052SOL     OW72929   9.121   4.058  11.185
57052SOL    HW172930   9.074   4.053  11.268
57052SOL    HW272931   9.199   4.111  11.205
57053SOL     OW72932  12.480   4.620  13.122
57053SOL    HW172933  12.400   4.567  13.127
57053SOL    HW272934  12.511   4.625  13.213
57054SOL     OW72935   0.437   3.317   7.098
57054SOL    HW172936   0.440   3.222   7.086
57054SOL    HW272937   0.355   3.343   7.056
57055SOL     OW72938   5.389   0.969   5.618
57055SOL    HW172939   5.397   0.885   5.665
57055SOL    HW272940   5.477   1.007   5.623
57056SOL     OW72941   2.646  10.129   0.811
57056SOL    HW172942   2.660  10.210   0.860
57056SOL    HW272943   2.585  10.079   0.864
57057SOL     OW72944   2.234   9.176   0.779
57057SOL    HW172945   2.236   9.087   0.814
57057SOL    HW272946   2.266   9.167   0.689
57058SOL     OW72947   2.089  10.295   2.369
57058SOL    HW172948   2.161  10.282   2.430
57058SOL    HW272949   2.013  10.259   2.414
57059SOL     OW72950   4.928   0.564   8.282
57059SOL    HW172951   4.999   0.611   8.326
57059SOL    HW272952   4.860   0.556   8.349
57060SOL     OW72953  10.878   3.390   6.269
57060SOL    HW172954  10.878   3.304   6.227
57060SOL    HW272955  10.799   3.390   6.324
57061SOL     OW72956   8.279  11.714   0.853
57061SOL    HW172957   8.225  11.699   0.775
57061SOL    HW272958   8.312  11.803   0.843
57062SOL     OW72959   3.599  12.428  12.825
57062SOL    HW172960   3.519  12.420  12.877
57062SOL    HW272961   3.670  12.427  12.889
57063SOL     OW72962  11.150   3.549   7.481
57063SOL    HW172963  11.171   3.535   7.574
57063SOL    HW272964  11.236   3.549   7.438
57064SOL     OW72965   5.313   9.783   0.453
57064SOL    HW172966   5.291   9.873   0.427
57064SOL    HW272967   5.238   9.755   0.505
57065SOL     OW72968   0.157   2.176   9.699
57065SOL    HW172969   0.248   2.204   9.687
57065SOL    HW272970   0.138   2.123   9.621
57066SOL     OW72971   9.526   2.822   7.013
57066SOL    HW172972   9.445   2.823   6.961
57066SOL    HW272973   9.560   2.733   7.002
57067SOL     OW72974  11.678   4.326   4.420
57067SOL    HW172975  11.674   4.349   4.327
57067SOL    HW272976  11.760   4.277   4.428
57068SOL     OW72977  13.168  11.023   7.245
57068SOL    HW172978  13.120  11.074   7.180
57068SOL    HW272979  13.244  10.989   7.197
57069SOL     OW72980   4.738   4.077  11.363
57069SOL    HW172981   4.692   4.048  11.442
57069SOL    HW272982   4.696   4.029  11.292
57070SOL     OW72983   6.587  13.026   0.590
57070SOL    HW172984   6.626  13.099   0.636
57070SOL    HW272985   6.660  12.968   0.568
57071SOL     OW72986  10.370   2.035   9.053
57071SOL    HW172987  10.287   1.988   9.056
57071SOL    HW272988  10.377   2.068   8.964
57072SOL     OW72989   4.791   6.709   1.272
57072SOL    HW172990   4.763   6.622   1.244
57072SOL    HW272991   4.849   6.693   1.346
57073SOL     OW72992  11.297  10.284   0.610
57073SOL    HW172993  11.392  10.280   0.608
57073SOL    HW272994  11.275  10.376   0.595
57074SOL     OW72995  13.753  10.396  14.667
57074SOL    HW172996  13.748  10.307  14.633
57074SOL    HW272997  13.731  10.452  14.592
57075SOL     OW72998  12.071   4.455   7.695
57075SOL    HW172999  12.128   4.518   7.738
57075SOL    HW273000  12.082   4.374   7.744
57076SOL     OW73001  12.712   2.360  10.321
57076SOL    HW173002  12.671   2.330  10.240
57076SOL    HW273003  12.800   2.386  10.295
57077SOL     OW73004   5.466   7.121   2.591
57077SOL    HW173005   5.404   7.053   2.565
57077SOL    HW273006   5.428   7.160   2.669
57078SOL     OW73007   3.909   5.475   6.471
57078SOL    HW173008   3.814   5.460   6.467
57078SOL    HW273009   3.918   5.570   6.461
57079SOL     OW73010   0.161   8.638  14.801
57079SOL    HW173011   0.241   8.691  14.807
57079SOL    HW273012   0.096   8.689  14.850
57080SOL     OW73013  11.178  11.225   9.218
57080SOL    HW173014  11.167  11.194   9.308
57080SOL    HW273015  11.089  11.239   9.186
57081SOL     OW73016  12.556  14.548   6.533
57081SOL    HW173017  12.587  14.554   6.443
57081SOL    HW273018  12.567  14.637   6.568
57082SOL     OW73019   6.706   5.175   6.655
57082SOL    HW173020   6.730   5.089   6.688
57082SOL    HW273021   6.735   5.175   6.564
57083SOL     OW73022   0.733  12.450   3.625
57083SOL    HW173023   0.710  12.492   3.542
57083SOL    HW273024   0.755  12.524   3.683
57084SOL     OW73025   3.875   6.795  11.859
57084SOL    HW173026   3.880   6.746  11.778
57084SOL    HW273027   3.930   6.872  11.844
57085SOL     OW73028   7.715   7.167   5.588
57085SOL    HW173029   7.805   7.141   5.609
57085SOL    HW273030   7.713   7.172   5.493
57086SOL     OW73031   9.125   7.520   0.167
57086SOL    HW173032   9.128   7.537   0.073
57086SOL    HW273033   9.116   7.606   0.207
57087SOL     OW73034   7.109  13.425   4.896
57087SOL    HW173035   7.083  13.500   4.843
57087SOL    HW273036   7.116  13.352   4.834
57088SOL     OW73037   1.867  11.200   5.327
57088SOL    HW173038   1.935  11.228   5.266
57088SOL    HW273039   1.808  11.275   5.333
57089SOL     OW73040  10.842   4.572  12.763
57089SOL    HW173041  10.868   4.599  12.675
57089SOL    HW273042  10.802   4.486  12.751
57090SOL     OW73043   3.890   5.628   0.431
57090SOL    HW173044   3.911   5.681   0.355
57090SOL    HW273045   3.795   5.630   0.437
57091SOL     OW73046   6.854   2.791   2.662
57091SOL    HW173047   6.855   2.724   2.594
57091SOL    HW273048   6.864   2.743   2.744
57092SOL     OW73049   9.990   2.177   8.804
57092SOL    HW173050  10.014   2.253   8.857
57092SOL    HW273051   9.899   2.160   8.826
57093SOL     OW73052   2.941  12.912  10.858
57093SOL    HW173053   2.881  12.958  10.800
57093SOL    HW273054   2.920  12.946  10.945
57094SOL     OW73055   4.598   4.233  11.021
57094SOL    HW173056   4.523   4.220  10.963
57094SOL    HW273057   4.595   4.326  11.044
57095SOL     OW73058   9.198  13.371  13.645
57095SOL    HW173059   9.265  13.331  13.701
57095SOL    HW273060   9.117  13.326  13.670
57096SOL     OW73061  14.553   8.874   0.140
57096SOL    HW173062  14.481   8.828   0.097
57096SOL    HW273063  14.517   8.961   0.158
57097SOL     OW73064   9.073   8.525   6.857
57097SOL    HW173065   9.072   8.502   6.764
57097SOL    HW273066   8.990   8.490   6.891
57098SOL     OW73067   2.194   0.761   3.368
57098SOL    HW173068   2.152   0.848   3.367
57098SOL    HW273069   2.247   0.761   3.448
57099SOL     OW73070   9.530   1.303   2.502
57099SOL    HW173071   9.529   1.232   2.567
57099SOL    HW273072   9.534   1.383   2.555
57100SOL     OW73073   8.593  12.513   5.308
57100SOL    HW173074   8.668  12.499   5.250
57100SOL    HW273075   8.607  12.601   5.344
57101SOL     OW73076  12.139  10.052   3.093
57101SOL    HW173077  12.228  10.019   3.082
57101SOL    HW273078  12.146  10.119   3.161
57102SOL     OW73079   3.468  13.085  13.782
57102SOL    HW173080   3.547  13.079  13.836
57102SOL    HW273081   3.454  13.180  13.772
57103SOL     OW73082   2.710   5.657   5.846
57103SOL    HW173083   2.695   5.736   5.795
57103SOL    HW273084   2.624   5.636   5.883
57104SOL     OW73085  13.009   0.465   5.566
57104SOL    HW173086  13.027   0.376   5.535
57104SOL    HW273087  13.026   0.461   5.660
57105SOL     OW73088   7.085   1.086  11.526
57105SOL    HW173089   7.075   1.101  11.433
57105SOL    HW273090   6.997   1.095  11.562
57106SOL     OW73091   9.982   9.227   6.573
57106SOL    HW173092   9.919   9.180   6.517
57106SOL    HW273093  10.007   9.163   6.640
57107SOL     OW73094   4.412   1.909   4.048
57107SOL    HW173095   4.365   1.842   3.998
57107SOL    HW273096   4.479   1.860   4.095
57108SOL     OW73097  12.121   1.896   3.195
57108SOL    HW173098  12.046   1.842   3.171
57108SOL    HW273099  12.195   1.836   3.192
57109SOL     OW73100   5.949  12.192  11.582
57109SOL    HW173101   5.860  12.218  11.561
57109SOL    HW273102   5.996  12.198  11.499
57110SOL     OW73103   8.937   6.546   1.550
57110SOL    HW173104   9.026   6.536   1.518
57110SOL    HW273105   8.946   6.601   1.628
57111SOL     OW73106   8.353   6.039   4.102
57111SOL    HW173107   8.298   5.974   4.147
57111SOL    HW273108   8.300   6.070   4.029
57112SOL     OW73109   0.304   3.951   8.059
57112SOL    HW173110   0.219   3.906   8.067
57112SOL    HW273111   0.358   3.913   8.128
57113SOL     OW73112  10.148   1.259  12.939
57113SOL    HW173113  10.085   1.318  12.900
57113SOL    HW273114  10.097   1.182  12.965
57114SOL     OW73115   5.159   2.809  13.670
57114SOL    HW173116   5.231   2.777  13.616
57114SOL    HW273117   5.131   2.732  13.720
57115SOL     OW73118   9.761   3.504   4.242
57115SOL    HW173119   9.780   3.549   4.159
57115SOL    HW273120   9.761   3.574   4.307
57116SOL     OW73121  10.656   3.771   0.260
57116SOL    HW173122  10.605   3.717   0.201
57116SOL    HW273123  10.718   3.711   0.301
57117SOL     OW73124   4.675  10.892  11.014
57117SOL    HW173125   4.649  10.924  10.928
57117SOL    HW273126   4.700  10.801  10.999
57118SOL     OW73127  11.725   2.569   6.037
57118SOL    HW173128  11.791   2.528   5.980
57118SOL    HW273129  11.768   2.648   6.070
57119SOL     OW73130   1.347   4.954  13.074
57119SOL    HW173131   1.333   4.996  12.989
57119SOL    HW273132   1.313   4.865  13.063
57120SOL     OW73133  10.619  12.331  12.074
57120SOL    HW173134  10.523  12.335  12.084
57120SOL    HW273135  10.648  12.421  12.087
57121SOL     OW73136   9.263  13.448  14.035
57121SOL    HW173137   9.264  13.363  13.992
57121SOL    HW273138   9.328  13.440  14.105
57122SOL     OW73139   9.199   9.911   1.648
57122SOL    HW173140   9.146   9.927   1.726
57122SOL    HW273141   9.239   9.826   1.663
57123SOL     OW73142  13.742   6.065  13.694
57123SOL    HW173143  13.720   6.120  13.769
57123SOL    HW273144  13.799   5.997  13.730
57124SOL     OW73145  10.081   1.105   6.497
57124SOL    HW173146  10.012   1.165   6.466
57124SOL    HW273147  10.033   1.040   6.549
57125SOL     OW73148  11.351  13.268   6.432
57125SOL    HW173149  11.415  13.209   6.473
57125SOL    HW273150  11.311  13.313   6.506
57126SOL     OW73151  11.439  13.952   0.739
57126SOL    HW173152  11.346  13.936   0.725
57126SOL    HW273153  11.461  13.902   0.817
57127SOL     OW73154   6.744   4.344   4.400
57127SOL    HW173155   6.669   4.359   4.343
57127SOL    HW273156   6.795   4.425   4.394
57128SOL     OW73157   2.748  11.093  14.607
57128SOL    HW173158   2.810  11.094  14.680
57128SOL    HW273159   2.697  11.173  14.617
57129SOL     OW73160   2.784   7.325   8.669
57129SOL    HW173161   2.841   7.373   8.610
57129SOL    HW273162   2.700   7.321   8.623
57130SOL     OW73163  14.506   9.507   2.737
57130SOL    HW173164  14.443   9.529   2.669
57130SOL    HW273165  14.574   9.573   2.729
57131SOL     OW73166  12.540  12.361  11.075
57131SOL    HW173167  12.499  12.344  11.160
57131SOL    HW273168  12.588  12.443  11.088
57132SOL     OW73169   9.270   9.584   5.730
57132SOL    HW173170   9.258   9.594   5.824
57132SOL    HW273171   9.273   9.673   5.696
57133SOL     OW73172   1.308  13.035  12.159
57133SOL    HW173173   1.381  13.051  12.099
57133SOL    HW273174   1.230  13.062  12.111
57134SOL     OW73175  14.117   7.412   4.567
57134SOL    HW173176  14.171   7.463   4.627
57134SOL    HW273177  14.152   7.323   4.573
57135SOL     OW73178  14.641   0.690   2.409
57135SOL    HW173179  14.725   0.727   2.436
57135SOL    HW273180  14.576   0.751   2.444
57136SOL     OW73181   1.084   4.854  10.052
57136SOL    HW173182   1.144   4.781  10.068
57136SOL    HW273183   1.000   4.825  10.089
57137SOL     OW73184  10.055  10.838  10.202
57137SOL    HW173185  10.076  10.789  10.281
57137SOL    HW273186   9.981  10.893  10.226
57138SOL     OW73187   3.268   8.470   2.818
57138SOL    HW173188   3.276   8.533   2.889
57138SOL    HW273189   3.272   8.522   2.738
57139SOL     OW73190  13.927   6.249  13.295
57139SOL    HW173191  13.859   6.197  13.253
57139SOL    HW273192  13.889   6.275  13.379
57140SOL     OW73193  11.903  14.216   5.620
57140SOL    HW173194  11.989  14.231   5.658
57140SOL    HW273195  11.857  14.163   5.685
57141SOL     OW73196   4.719  14.349  13.790
57141SOL    HW173197   4.696  14.391  13.707
57141SOL    HW273198   4.666  14.394  13.855
57142SOL     OW73199  10.030   8.166   6.372
57142SOL    HW173200  10.046   8.071   6.369
57142SOL    HW273201   9.951   8.174   6.425
57143SOL     OW73202   2.565  12.959  13.676
57143SOL    HW173203   2.539  12.873  13.643
57143SOL    HW273204   2.614  12.941  13.756
57144SOL     OW73205   8.499  13.564  14.564
57144SOL    HW173206   8.513  13.659  14.558
57144SOL    HW273207   8.478  13.538  14.475
57145SOL     OW73208   1.893   3.025  10.621
57145SOL    HW173209   1.913   2.959  10.554
57145SOL    HW273210   1.945   3.101  10.595
57146SOL     OW73211   2.353  12.081  12.375
57146SOL    HW173212   2.414  12.154  12.363
57146SOL    HW273213   2.348  12.069  12.470
57147SOL     OW73214   5.330   1.295   7.006
57147SOL    HW173215   5.367   1.223   6.954
57147SOL    HW273216   5.235   1.288   6.990
57148SOL     OW73217   6.114   9.034   1.180
57148SOL    HW173218   6.151   9.017   1.094
57148SOL    HW273219   6.189   9.031   1.240
57149SOL     OW73220   7.268   5.683   1.638
57149SOL    HW173221   7.318   5.741   1.696
57149SOL    HW273222   7.302   5.595   1.656
57150SOL     OW73223   1.563  10.119  13.307
57150SOL    HW173224   1.567  10.042  13.363
57150SOL    HW273225   1.582  10.192  13.366
57151SOL     OW73226   9.267  11.056   9.644
57151SOL    HW173227   9.191  11.113   9.649
57151SOL    HW273228   9.277  11.022   9.733
57152SOL     OW73229   2.552   6.582   1.155
57152SOL    HW173230   2.640   6.555   1.130
57152SOL    HW273231   2.544   6.672   1.122
57153SOL     OW73232   4.968   3.751  14.537
57153SOL    HW173233   4.937   3.660  14.528
57153SOL    HW273234   4.987   3.760  14.630
57154SOL     OW73235  13.975   0.500   2.499
57154SOL    HW173236  13.952   0.414   2.464
57154SOL    HW273237  13.896   0.529   2.545
57155SOL     OW73238   5.016   5.146   4.359
57155SOL    HW173239   4.951   5.201   4.316
57155SOL    HW273240   4.975   5.059   4.361
57156SOL     OW73241   3.587   6.421  14.675
57156SOL    HW173242   3.603   6.330  14.651
57156SOL    HW273243   3.568   6.419  14.769
57157SOL     OW73244   3.507  10.957  14.555
57157SOL    HW173245   3.463  11.008  14.622
57157SOL    HW273246   3.596  10.991  14.552
57158SOL     OW73247  13.285   1.514   6.035
57158SOL    HW173248  13.319   1.496   6.122
57158SOL    HW273249  13.245   1.601   6.042
57159SOL     OW73250   2.246   7.680   7.245
57159SOL    HW173251   2.194   7.751   7.209
57159SOL    HW273252   2.334   7.694   7.211
57160SOL     OW73253   3.955   1.783  10.602
57160SOL    HW173254   3.970   1.691  10.622
57160SOL    HW273255   3.859   1.792  10.604
57161SOL     OW73256   6.359  14.366   8.915
57161SOL    HW173257   6.308  14.289   8.942
57161SOL    HW273258   6.327  14.385   8.827
57162SOL     OW73259  10.253   0.690  12.813
57162SOL    HW173260  10.200   0.666  12.889
57162SOL    HW273261  10.341   0.662  12.836
57163SOL     OW73262  12.692  12.647   2.906
57163SOL    HW173263  12.656  12.569   2.948
57163SOL    HW273264  12.785  12.626   2.891
57164SOL     OW73265   0.124   5.554   5.137
57164SOL    HW173266   0.117   5.480   5.197
57164SOL    HW273267   0.204   5.538   5.088
57165SOL     OW73268   4.197   3.719   5.165
57165SOL    HW173269   4.153   3.802   5.146
57165SOL    HW273270   4.142   3.653   5.122
57166SOL     OW73271   4.522  10.728  10.334
57166SOL    HW173272   4.494  10.803  10.281
57166SOL    HW273273   4.443  10.677  10.348
57167SOL     OW73274   3.936   5.313   6.153
57167SOL    HW173275   3.987   5.293   6.232
57167SOL    HW273276   3.980   5.387   6.113
57168SOL     OW73277   7.194  14.717   0.275
57168SOL    HW173278   7.206  14.777   0.202
57168SOL    HW273279   7.111  14.673   0.257
57169SOL     OW73280  13.007   1.144   7.924
57169SOL    HW173281  13.094   1.113   7.899
57169SOL    HW273282  13.023   1.225   7.973
57170SOL     OW73283  10.030   4.530   5.790
57170SOL    HW173284  10.025   4.612   5.741
57170SOL    HW273285  10.019   4.461   5.724
57171SOL     OW73286   9.185   9.942  14.073
57171SOL    HW173287   9.209  10.007  14.139
57171SOL    HW273288   9.142   9.993  14.004
57172SOL     OW73289   2.902   6.261  11.210
57172SOL    HW173290   2.852   6.305  11.142
57172SOL    HW273291   2.863   6.173  11.215
57173SOL     OW73292  12.070  13.080  11.700
57173SOL    HW173293  11.991  13.134  11.705
57173SOL    HW273294  12.141  13.139  11.724
57174SOL     OW73295  13.259   4.810  10.949
57174SOL    HW173296  13.348   4.814  10.984
57174SOL    HW273297  13.236   4.901  10.932
57175SOL     OW73298  11.025   0.801  10.718
57175SOL    HW173299  11.065   0.780  10.634
57175SOL    HW273300  11.017   0.717  10.763
57176SOL     OW73301   3.355  13.237   2.136
57176SOL    HW173302   3.370  13.331   2.131
57176SOL    HW273303   3.389  13.203   2.053
57177SOL     OW73304  12.962   1.838   0.131
57177SOL    HW173305  13.009   1.920   0.120
57177SOL    HW273306  12.981   1.788   0.051
57178SOL     OW73307   0.989   4.544  12.912
57178SOL    HW173308   1.054   4.528  12.843
57178SOL    HW273309   0.905   4.533  12.869
57179SOL     OW73310   9.914   6.605   3.663
57179SOL    HW173311   9.875   6.588   3.748
57179SOL    HW273312   9.992   6.548   3.660
57180SOL     OW73313   7.529   5.335  10.858
57180SOL    HW173314   7.529   5.420  10.814
57180SOL    HW273315   7.597   5.285  10.813
57181SOL     OW73316  13.543   7.012  11.488
57181SOL    HW173317  13.525   6.918  11.497
57181SOL    HW273318  13.592   7.035  11.566
57182SOL     OW73319  13.792  13.521   7.653
57182SOL    HW173320  13.886  13.504   7.662
57182SOL    HW273321  13.752  13.434   7.656
57183SOL     OW73322   5.149  11.927   5.070
57183SOL    HW173323   5.072  11.873   5.086
57183SOL    HW273324   5.187  11.942   5.157
57184SOL     OW73325   8.249  12.836   2.146
57184SOL    HW173326   8.220  12.785   2.070
57184SOL    HW273327   8.305  12.904   2.108
57185SOL     OW73328   3.161  13.827   1.631
57185SOL    HW173329   3.182  13.734   1.637
57185SOL    HW273330   3.214  13.869   1.699
57186SOL     OW73331   1.229   9.808  14.068
57186SOL    HW173332   1.192   9.865  14.002
57186SOL    HW273333   1.277   9.866  14.127
57187SOL     OW73334   7.542   0.093   7.019
57187SOL    HW173335   7.471   0.103   6.956
57187SOL    HW273336   7.602   0.164   6.999
57188SOL     OW73337   7.170  13.695  12.093
57188SOL    HW173338   7.089  13.732  12.058
57188SOL    HW273339   7.142  13.625  12.151
57189SOL     OW73340   7.128  10.801  12.439
57189SOL    HW173341   7.092  10.825  12.354
57189SOL    HW273342   7.052  10.773  12.490
57190SOL     OW73343  10.782  10.036  14.053
57190SOL    HW173344  10.831  10.118  14.059
57190SOL    HW273345  10.728  10.046  13.974
57191SOL     OW73346  13.501   1.683   2.759
57191SOL    HW173347  13.468   1.677   2.670
57191SOL    HW273348  13.594   1.661   2.752
57192SOL     OW73349  13.897   9.258   6.973
57192SOL    HW173350  13.991   9.278   6.974
57192SOL    HW273351  13.890   9.173   7.016
57193SOL     OW73352   1.978  12.846   4.657
57193SOL    HW173353   1.976  12.933   4.696
57193SOL    HW273354   2.039  12.853   4.584
57194SOL     OW73355  10.154   5.551   1.026
57194SOL    HW173356  10.059   5.544   1.033
57194SOL    HW273357  10.176   5.500   0.948
57195SOL     OW73358  12.662  11.599   1.634
57195SOL    HW173359  12.611  11.576   1.711
57195SOL    HW273360  12.608  11.569   1.560
57196SOL     OW73361  10.726  13.033   6.911
57196SOL    HW173362  10.809  13.060   6.872
57196SOL    HW273363  10.750  12.984   6.989
57197SOL     OW73364  13.215   5.397   1.024
57197SOL    HW173365  13.208   5.313   1.069
57197SOL    HW273366  13.307   5.403   0.997
57198SOL     OW73367  12.446   8.503   4.408
57198SOL    HW173368  12.461   8.467   4.496
57198SOL    HW273369  12.379   8.446   4.370
57199SOL     OW73370   0.395  14.275  10.655
57199SOL    HW173371   0.333  14.231  10.597
57199SOL    HW273372   0.430  14.347  10.603
57200SOL     OW73373   4.447   6.456  12.863
57200SOL    HW173374   4.474   6.364  12.864
57200SOL    HW273375   4.446   6.482  12.955
57201SOL     OW73376   1.232   0.939  11.492
57201SOL    HW173377   1.306   0.985  11.452
57201SOL    HW273378   1.225   0.857  11.443
57202SOL     OW73379  14.085  14.850   0.739
57202SOL    HW173380  14.148  14.857   0.667
57202SOL    HW273381  14.053  14.760   0.734
57203SOL     OW73382   9.570  12.749   2.396
57203SOL    HW173383   9.581  12.683   2.328
57203SOL    HW273384   9.525  12.821   2.352
57204SOL     OW73385   7.151   8.797   1.513
57204SOL    HW173386   7.157   8.702   1.503
57204SOL    HW273387   7.181   8.813   1.602
57205SOL     OW73388  14.395  11.550  12.599
57205SOL    HW173389  14.325  11.498  12.559
57205SOL    HW273390  14.385  11.535  12.693
57206SOL     OW73391  11.161   2.064   2.109
57206SOL    HW173392  11.194   1.992   2.055
57206SOL    HW273393  11.076   2.033   2.141
57207SOL     OW73394   4.369   8.488  14.228
57207SOL    HW173395   4.314   8.415  14.199
57207SOL    HW273396   4.398   8.529  14.147
57208SOL     OW73397   8.097  12.328  14.191
57208SOL    HW173398   8.183  12.367  14.175
57208SOL    HW273399   8.068  12.366  14.274
57209SOL     OW73400   5.639   7.011   0.932
57209SOL    HW173401   5.717   7.045   0.976
57209SOL    HW273402   5.646   7.042   0.842
57210SOL     OW73403   8.323   6.044   2.850
57210SOL    HW173404   8.280   5.958   2.845
57210SOL    HW273405   8.417   6.024   2.848
57211SOL     OW73406   0.585   3.461  14.346
57211SOL    HW173407   0.553   3.371  14.354
57211SOL    HW273408   0.661   3.464  14.404
57212SOL     OW73409  14.673   5.412   4.331
57212SOL    HW173410  14.581   5.389   4.343
57212SOL    HW273411  14.721   5.333   4.358
57213SOL     OW73412   0.344   3.850   9.436
57213SOL    HW173413   0.342   3.882   9.527
57213SOL    HW273414   0.297   3.767   9.439
57214SOL     OW73415  12.392   0.225   9.313
57214SOL    HW173416  12.314   0.186   9.353
57214SOL    HW273417  12.358   0.276   9.240
57215SOL     OW73418   0.615   3.500   8.744
57215SOL    HW173419   0.594   3.462   8.829
57215SOL    HW273420   0.619   3.425   8.684
57216SOL     OW73421   2.600   4.477   6.259
57216SOL    HW173422   2.598   4.409   6.191
57216SOL    HW273423   2.686   4.518   6.250
57217SOL     OW73424   1.814  12.548   3.497
57217SOL    HW173425   1.873  12.473   3.505
57217SOL    HW273426   1.869  12.618   3.461
57218SOL     OW73427   4.901   9.425   4.975
57218SOL    HW173428   4.874   9.433   4.883
57218SOL    HW273429   4.824   9.391   5.020
57219SOL     OW73430   0.989   5.551   8.108
57219SOL    HW173431   0.895   5.557   8.122
57219SOL    HW273432   1.004   5.458   8.089
57220SOL     OW73433   9.682  10.601  14.764
57220SOL    HW173434   9.618  10.535  14.792
57220SOL    HW273435   9.698  10.581  14.672
57221SOL     OW73436   4.749   4.304   0.539
57221SOL    HW173437   4.673   4.261   0.578
57221SOL    HW273438   4.712   4.371   0.481
57222SOL     OW73439  11.150   3.994   5.179
57222SOL    HW173440  11.082   3.959   5.121
57222SOL    HW273441  11.175   4.077   5.137
57223SOL     OW73442  10.624   1.887   1.326
57223SOL    HW173443  10.547   1.839   1.295
57223SOL    HW273444  10.628   1.868   1.419
57224SOL     OW73445   7.296   8.186   6.541
57224SOL    HW173446   7.373   8.212   6.491
57224SOL    HW273447   7.223   8.203   6.481
57225SOL     OW73448   9.002   7.132   3.720
57225SOL    HW173449   9.039   7.046   3.701
57225SOL    HW273450   9.076   7.181   3.758
57226SOL     OW73451   6.217   4.249  10.620
57226SOL    HW173452   6.174   4.180  10.570
57226SOL    HW273453   6.199   4.227  10.712
57227SOL     OW73454  14.500   8.918   2.874
57227SOL    HW173455  14.408   8.897   2.894
57227SOL    HW273456  14.537   8.836   2.843
57228SOL     OW73457  14.384  13.811   9.183
57228SOL    HW173458  14.462  13.783   9.135
57228SOL    HW273459  14.404  13.789   9.274
57229SOL     OW73460   9.665   9.445   4.450
57229SOL    HW173461   9.760   9.456   4.443
57229SOL    HW273462   9.630   9.535   4.454
57230SOL     OW73463   5.080   1.438   5.464
57230SOL    HW173464   5.088   1.533   5.468
57230SOL    HW273465   5.105   1.416   5.374
57231SOL     OW73466   3.914   4.801  12.318
57231SOL    HW173467   4.007   4.780  12.333
57231SOL    HW273468   3.912   4.839  12.230
57232SOL     OW73469   3.611   5.459   7.612
57232SOL    HW173470   3.535   5.518   7.612
57232SOL    HW273471   3.588   5.390   7.674
57233SOL     OW73472   5.279  13.639   2.654
57233SOL    HW173473   5.340  13.689   2.599
57233SOL    HW273474   5.194  13.678   2.636
57234SOL     OW73475  10.187   7.919  11.057
57234SOL    HW173476  10.157   7.953  11.142
57234SOL    HW273477  10.213   7.829  11.075
57235SOL     OW73478   3.292   1.223   1.120
57235SOL    HW173479   3.267   1.135   1.149
57235SOL    HW273480   3.338   1.209   1.037
57236SOL     OW73481  10.322  12.612   5.113
57236SOL    HW173482  10.317  12.661   5.031
57236SOL    HW273483  10.332  12.679   5.181
57237SOL     OW73484   3.257  11.764   7.096
57237SOL    HW173485   3.209  11.725   7.170
57237SOL    HW273486   3.264  11.856   7.119
57238SOL     OW73487   0.159   9.182  13.886
57238SOL    HW173488   0.210   9.250  13.931
57238SOL    HW273489   0.190   9.100  13.924
57239SOL     OW73490  10.299   8.484  10.043
57239SOL    HW173491  10.205   8.495  10.037
57239SOL    HW273492  10.328   8.554  10.101
57240SOL     OW73493   0.867   2.122   9.474
57240SOL    HW173494   0.910   2.127   9.559
57240SOL    HW273495   0.845   2.029   9.464
57241SOL     OW73496  10.672  12.994   3.344
57241SOL    HW173497  10.622  13.053   3.400
57241SOL    HW273498  10.608  12.930   3.313
57242SOL     OW73499   2.010   6.348   3.149
57242SOL    HW173500   1.920   6.366   3.178
57242SOL    HW273501   2.045   6.289   3.215
57243SOL     OW73502   7.152  12.871   4.577
57243SOL    HW173503   7.059  12.893   4.577
57243SOL    HW273504   7.155  12.775   4.582
57244SOL     OW73505   3.442   6.701   2.169
57244SOL    HW173506   3.348   6.702   2.152
57244SOL    HW273507   3.479   6.765   2.107
57245SOL     OW73508   2.580   2.724   2.343
57245SOL    HW173509   2.575   2.769   2.259
57245SOL    HW273510   2.511   2.657   2.338
57246SOL     OW73511   5.027  13.429   5.278
57246SOL    HW173512   5.029  13.514   5.234
57246SOL    HW273513   4.950  13.434   5.335
57247SOL     OW73514   4.762   6.971   6.801
57247SOL    HW173515   4.780   7.029   6.875
57247SOL    HW273516   4.667   6.962   6.800
57248SOL     OW73517  13.609   0.392   5.867
57248SOL    HW173518  13.563   0.357   5.790
57248SOL    HW273519  13.700   0.364   5.856
57249SOL     OW73520   8.227   9.720  11.735
57249SOL    HW173521   8.242   9.716  11.640
57249SOL    HW273522   8.139   9.755  11.744
57250SOL     OW73523   7.278  10.823  10.782
57250SOL    HW173524   7.208  10.783  10.730
57250SOL    HW273525   7.266  10.917  10.771
57251SOL     OW73526   0.072   4.761   6.682
57251SOL    HW173527   0.060   4.703   6.607
57251SOL    HW273528   0.056   4.705   6.758
57252SOL     OW73529   4.073   5.395   8.125
57252SOL    HW173530   4.035   5.308   8.115
57252SOL    HW273531   4.083   5.427   8.036
57253SOL     OW73532   5.230   8.572   4.303
57253SOL    HW173533   5.160   8.506   4.302
57253SOL    HW273534   5.194   8.645   4.252
57254SOL     OW73535   0.849  14.540   7.186
57254SOL    HW173536   0.886  14.553   7.099
57254SOL    HW273537   0.777  14.478   7.173
57255SOL     OW73538  10.951   8.645   6.278
57255SOL    HW173539  11.003   8.639   6.198
57255SOL    HW273540  11.015   8.638   6.349
57256SOL     OW73541   3.814   7.436   1.061
57256SOL    HW173542   3.797   7.358   1.114
57256SOL    HW273543   3.738   7.442   1.003
57257SOL     OW73544   0.705   5.044  10.488
57257SOL    HW173545   0.787   5.019  10.531
57257SOL    HW273546   0.726   5.126  10.444
57258SOL     OW73547   4.341   2.566  13.362
57258SOL    HW173548   4.396   2.512  13.306
57258SOL    HW273549   4.278   2.606  13.303
57259SOL     OW73550  11.727  12.389   1.026
57259SOL    HW173551  11.750  12.301   1.055
57259SOL    HW273552  11.647  12.378   0.976
57260SOL     OW73553  12.080  12.380   5.714
57260SOL    HW173554  12.141  12.454   5.709
57260SOL    HW273555  11.997  12.414   5.681
57261SOL     OW73556   3.091   6.895   7.503
57261SOL    HW173557   3.052   6.893   7.590
57261SOL    HW273558   3.016   6.901   7.444
57262SOL     OW73559   8.260  14.317  14.248
57262SOL    HW173560   8.259  14.351  14.159
57262SOL    HW273561   8.258  14.221  14.237
57263SOL     OW73562  12.077   3.472  12.138
57263SOL    HW173563  12.068   3.384  12.173
57263SOL    HW273564  11.996   3.489  12.091
57264SOL     OW73565  14.495   1.620   5.085
57264SOL    HW173566  14.475   1.532   5.052
57264SOL    HW273567  14.557   1.605   5.156
57265SOL     OW73568   9.500  10.091   3.487
57265SOL    HW173569   9.467  10.072   3.399
57265SOL    HW273570   9.585  10.047   3.490
57266SOL     OW73571   5.139   9.976  11.004
57266SOL    HW173572   5.159   9.933  11.087
57266SOL    HW273573   5.076  10.044  11.027
57267SOL     OW73574   7.506  11.385  13.401
57267SOL    HW173575   7.538  11.383  13.492
57267SOL    HW273576   7.585  11.391  13.348
57268SOL     OW73577   6.041   9.595  14.440
57268SOL    HW173578   6.113   9.551  14.485
57268SOL    HW273579   6.071   9.685  14.429
57269SOL     OW73580   1.769   5.220   5.243
57269SOL    HW173581   1.778   5.290   5.178
57269SOL    HW273582   1.841   5.160   5.224
57270SOL     OW73583   4.668   5.344   4.071
57270SOL    HW173584   4.608   5.279   4.108
57270SOL    HW273585   4.666   5.329   3.977
57271SOL     OW73586  14.522   1.878   4.236
57271SOL    HW173587  14.489   1.943   4.174
57271SOL    HW273588  14.488   1.795   4.203
57272SOL     OW73589   2.541  12.428   5.883
57272SOL    HW173590   2.486  12.389   5.816
57272SOL    HW273591   2.531  12.523   5.870
57273SOL     OW73592  11.221  13.080   0.123
57273SOL    HW173593  11.137  13.035   0.109
57273SOL    HW273594  11.200  13.153   0.180
57274SOL     OW73595   0.034   6.743  11.619
57274SOL    HW173596   0.094   6.669  11.621
57274SOL    HW273597   0.087   6.817  11.592
57275SOL     OW73598  10.206  14.124   1.488
57275SOL    HW173599  10.179  14.213   1.511
57275SOL    HW273600  10.206  14.077   1.571
57276SOL     OW73601   5.866  13.129   2.064
57276SOL    HW173602   5.828  13.168   2.142
57276SOL    HW273603   5.875  13.036   2.085
57277SOL     OW73604   8.020  14.733   7.649
57277SOL    HW173605   7.965  14.666   7.608
57277SOL    HW273606   8.072  14.686   7.713
57278SOL     OW73607   5.488  10.409  12.798
57278SOL    HW173608   5.464  10.325  12.760
57278SOL    HW273609   5.543  10.387  12.873
57279SOL     OW73610   0.651   2.882  11.818
57279SOL    HW173611   0.673   2.919  11.733
57279SOL    HW273612   0.580   2.820  11.799
57280SOL     OW73613  13.870   9.060   1.536
57280SOL    HW173614  13.838   8.973   1.560
57280SOL    HW273615  13.963   9.059   1.559
57281SOL     OW73616  10.760   6.154   9.565
57281SOL    HW173617  10.689   6.218   9.573
57281SOL    HW273618  10.743   6.109   9.482
57282SOL     OW73619   0.849  14.838  13.628
57282SOL    HW173620   0.838   0.028  13.566
57282SOL    HW273621   0.797  14.766  13.591
57283SOL     OW73622   8.473   4.556   5.900
57283SOL    HW173623   8.493   4.646   5.875
57283SOL    HW273624   8.392   4.563   5.950
57284SOL     OW73625  14.218  10.378  10.023
57284SOL    HW173626  14.258  10.428   9.952
57284SOL    HW273627  14.291  10.354  10.080
57285SOL     OW73628   1.084  14.581  13.341
57285SOL    HW173629   1.047  14.570  13.429
57285SOL    HW273630   1.013  14.554  13.282
57286SOL     OW73631   4.433   6.081   9.124
57286SOL    HW173632   4.363   6.121   9.073
57286SOL    HW273633   4.387   6.031   9.192
57287SOL     OW73634  14.521   3.108   0.102
57287SOL    HW173635  14.429   3.085   0.112
57287SOL    HW273636  14.527   3.198   0.136
57288SOL     OW73637   6.444   4.657  13.836
57288SOL    HW173638   6.497   4.596  13.784
57288SOL    HW273639   6.472   4.641  13.926
57289SOL     OW73640  14.712   5.776   0.997
57289SOL    HW173641  14.644   5.734   0.943
57289SOL    HW273642  14.668   5.853   1.033
57290SOL     OW73643  10.450  14.391   8.312
57290SOL    HW173644  10.417  14.419   8.227
57290SOL    HW273645  10.482  14.302   8.297
57291SOL     OW73646  12.413   5.989   1.451
57291SOL    HW173647  12.484   6.023   1.396
57291SOL    HW273648  12.410   6.049   1.525
57292SOL     OW73649   5.933   6.548   5.628
57292SOL    HW173650   5.861   6.496   5.592
57292SOL    HW273651   5.963   6.602   5.554
57293SOL     OW73652  10.355   7.193  12.860
57293SOL    HW173653  10.407   7.272  12.879
57293SOL    HW273654  10.269   7.227  12.836
57294SOL     OW73655   0.206  10.331   7.608
57294SOL    HW173656   0.173  10.244   7.586
57294SOL    HW273657   0.300  10.319   7.621
57295SOL     OW73658  12.084   9.127  14.624
57295SOL    HW173659  12.061   9.179  14.547
57295SOL    HW273660  12.037   9.170  14.697
57296SOL     OW73661   7.420   1.676   4.841
57296SOL    HW173662   7.496   1.727   4.812
57296SOL    HW273663   7.458   1.599   4.884
57297SOL     OW73664   3.110   8.577   1.699
57297SOL    HW173665   3.169   8.511   1.735
57297SOL    HW273666   3.168   8.646   1.667
57298SOL     OW73667  10.052  13.680   7.303
57298SOL    HW173668   9.972  13.654   7.349
57298SOL    HW273669  10.109  13.603   7.308
57299SOL     OW73670   2.169  11.537   4.575
57299SOL    HW173671   2.186  11.631   4.579
57299SOL    HW273672   2.176  11.515   4.482
57300SOL     OW73673   9.443  14.614   5.937
57300SOL    HW173674   9.350  14.605   5.959
57300SOL    HW273675   9.447  14.601   5.843
57301SOL     OW73676   0.500   0.165   0.111
57301SOL    HW173677   0.437   0.095   0.127
57301SOL    HW273678   0.486   0.227   0.182
57302SOL     OW73679   8.797  14.753   5.434
57302SOL    HW173680   8.771  14.733   5.344
57302SOL    HW273681   8.759  14.840   5.451
57303SOL     OW73682   3.573   0.428  13.655
57303SOL    HW173683   3.491   0.393  13.690
57303SOL    HW273684   3.638   0.407  13.721
57304SOL     OW73685   4.629  13.179   1.127
57304SOL    HW173686   4.682  13.170   1.048
57304SOL    HW273687   4.596  13.090   1.144
57305SOL     OW73688   4.554  13.107   6.384
57305SOL    HW173689   4.505  13.026   6.373
57305SOL    HW273690   4.597  13.098   6.469
57306SOL     OW73691   5.102  10.155   9.645
57306SOL    HW173692   5.132  10.234   9.600
57306SOL    HW273693   5.158  10.148   9.722
57307SOL     OW73694   4.356  11.927  13.216
57307SOL    HW173695   4.311  11.920  13.131
57307SOL    HW273696   4.368  11.837  13.244
57308SOL     OW73697   3.676  11.092   1.922
57308SOL    HW173698   3.735  11.150   1.971
57308SOL    HW273699   3.734  11.024   1.887
57309SOL     OW73700   8.302   8.230  14.198
57309SOL    HW173701   8.283   8.148  14.152
57309SOL    HW273702   8.386   8.259  14.162
57310SOL     OW73703  11.595   1.004   6.430
57310SOL    HW173704  11.524   0.956   6.388
57310SOL    HW273705  11.571   1.096   6.421
57311SOL     OW73706  11.852   2.008  11.270
57311SOL    HW173707  11.930   2.063  11.265
57311SOL    HW273708  11.868   1.939  11.206
57312SOL     OW73709  13.774  14.125   4.886
57312SOL    HW173710  13.718  14.170   4.823
57312SOL    HW273711  13.754  14.167   4.970
57313SOL     OW73712  14.124   9.693   1.503
57313SOL    HW173713  14.031   9.708   1.522
57313SOL    HW273714  14.170   9.753   1.561
57314SOL     OW73715   2.458  11.068   7.220
57314SOL    HW173716   2.453  11.148   7.272
57314SOL    HW273717   2.474  11.097   7.131
57315SOL     OW73718   8.877  13.630   3.244
57315SOL    HW173719   8.920  13.622   3.329
57315SOL    HW273720   8.903  13.717   3.213
57316SOL     OW73721   4.082  12.612  14.653
57316SOL    HW173722   4.131  12.694  14.641
57316SOL    HW273723   4.119  12.573  14.732
57317SOL     OW73724   0.990  10.573  12.097
57317SOL    HW173725   1.049  10.588  12.170
57317SOL    HW273726   0.903  10.570  12.137
57318SOL     OW73727   1.868   0.940   4.587
57318SOL    HW173728   1.934   0.930   4.518
57318SOL    HW273729   1.802   0.997   4.550
57319SOL     OW73730  11.421   5.780  10.125
57319SOL    HW173731  11.436   5.873  10.142
57319SOL    HW273732  11.382   5.747  10.206
57320SOL     OW73733   9.561  13.168  10.648
57320SOL    HW173734   9.644  13.130  10.680
57320SOL    HW273735   9.577  13.262  10.648
57321SOL     OW73736   3.171   5.289   2.173
57321SOL    HW173737   3.202   5.359   2.116
57321SOL    HW273738   3.190   5.208   2.126
57322SOL     OW73739   4.740   9.746  11.409
57322SOL    HW173740   4.708   9.793  11.332
57322SOL    HW273741   4.796   9.810  11.454
57323SOL     OW73742  13.964  10.521   0.987
57323SOL    HW173743  13.919  10.565   0.915
57323SOL    HW273744  14.031  10.468   0.944
57324SOL     OW73745   0.733  10.988   7.843
57324SOL    HW173746   0.772  10.918   7.894
57324SOL    HW273747   0.715  11.057   7.907
57325SOL     OW73748   2.940  12.431   8.534
57325SOL    HW173749   2.982  12.444   8.449
57325SOL    HW273750   2.921  12.519   8.566
57326SOL     OW73751  10.239   4.225   1.322
57326SOL    HW173752  10.293   4.299   1.297
57326SOL    HW273753  10.186   4.256   1.395
57327SOL     OW73754   6.763  12.815   0.028
57327SOL    HW173755   6.779  12.884   0.092
57327SOL    HW273756   6.850  12.794  14.875
57328SOL     OW73757   2.455  12.261   9.659
57328SOL    HW173758   2.434  12.247   9.752
57328SOL    HW273759   2.420  12.347   9.640
57329SOL     OW73760   2.961  10.572   4.775
57329SOL    HW173761   2.967  10.576   4.870
57329SOL    HW273762   3.034  10.625   4.744
57330SOL     OW73763   0.386   1.801   0.438
57330SOL    HW173764   0.423   1.887   0.458
57330SOL    HW273765   0.292   1.811   0.450
57331SOL     OW73766   4.706   1.076   0.463
57331SOL    HW173767   4.679   1.086   0.371
57331SOL    HW273768   4.801   1.073   0.459
57332SOL     OW73769  13.654  13.287   4.583
57332SOL    HW173770  13.626  13.256   4.497
57332SOL    HW273771  13.687  13.376   4.568
57333SOL     OW73772   7.437   9.711   1.731
57333SOL    HW173773   7.523   9.688   1.695
57333SOL    HW273774   7.456   9.755   1.814
57334SOL     OW73775   2.610   1.900  13.849
57334SOL    HW173776   2.582   1.863  13.766
57334SOL    HW273777   2.535   1.889  13.907
57335SOL     OW73778   0.960   6.236   3.887
57335SOL    HW173779   0.899   6.262   3.956
57335SOL    HW273780   0.928   6.151   3.857
57336SOL     OW73781   1.314   9.159  10.305
57336SOL    HW173782   1.407   9.170  10.285
57336SOL    HW273783   1.312   9.122  10.393
57337SOL     OW73784  14.625   2.847   2.995
57337SOL    HW173785  14.534   2.874   2.982
57337SOL    HW273786  14.665   2.855   2.909
57338SOL     OW73787   1.899  11.764   6.612
57338SOL    HW173788   1.955  11.836   6.582
57338SOL    HW273789   1.940  11.686   6.575
57339SOL     OW73790   7.179   3.133   1.820
57339SOL    HW173791   7.122   3.194   1.773
57339SOL    HW273792   7.151   3.047   1.789
57340SOL     OW73793   6.247   1.350  14.801
57340SOL    HW173794   6.281   1.350   0.009
57340SOL    HW273795   6.231   1.258  14.781
57341SOL     OW73796  10.636  12.270   2.943
57341SOL    HW173797  10.632  12.245   2.851
57341SOL    HW273798  10.568  12.337   2.952
57342SOL     OW73799   1.470   9.150  12.869
57342SOL    HW173800   1.511   9.081  12.817
57342SOL    HW273801   1.377   9.127  12.870
57343SOL     OW73802   2.018   3.038   4.174
57343SOL    HW173803   1.923   3.032   4.163
57343SOL    HW273804   2.040   2.967   4.234
57344SOL     OW73805   5.358   3.299   2.500
57344SOL    HW173806   5.292   3.232   2.513
57344SOL    HW273807   5.384   3.290   2.409
57345SOL     OW73808   8.447   8.423   8.128
57345SOL    HW173809   8.498   8.483   8.075
57345SOL    HW273810   8.396   8.480   8.186
57346SOL     OW73811   0.083   3.524  14.857
57346SOL    HW173812   0.174   3.522  14.828
57346SOL    HW273813   0.063   3.618  14.866
57347SOL     OW73814   2.205   7.114   8.414
57347SOL    HW173815   2.179   7.184   8.354
57347SOL    HW273816   2.180   7.033   8.369
57348SOL     OW73817   3.509   9.678   9.692
57348SOL    HW173818   3.505   9.679   9.788
57348SOL    HW273819   3.573   9.610   9.671
57349SOL     OW73820  10.658   2.918   8.798
57349SOL    HW173821  10.603   2.967   8.859
57349SOL    HW273822  10.597   2.871   8.742
57350SOL     OW73823  14.166   1.910   2.777
57350SOL    HW173824  14.143   1.817   2.781
57350SOL    HW273825  14.119   1.943   2.700
57351SOL     OW73826   6.783   8.177   4.562
57351SOL    HW173827   6.723   8.248   4.586
57351SOL    HW273828   6.862   8.222   4.531
57352SOL     OW73829   9.734   8.092   2.709
57352SOL    HW173830   9.787   8.032   2.656
57352SOL    HW273831   9.796   8.159   2.738
57353SOL     OW73832  10.596   8.147  14.531
57353SOL    HW173833  10.621   8.239  14.522
57353SOL    HW273834  10.550   8.142  14.614
57354SOL     OW73835   7.141   4.072  12.714
57354SOL    HW173836   7.229   4.111  12.719
57354SOL    HW273837   7.132   4.046  12.623
57355SOL     OW73838   1.665   5.265   2.003
57355SOL    HW173839   1.639   5.254   2.095
57355SOL    HW273840   1.755   5.298   2.008
57356SOL     OW73841   5.065  14.354   6.072
57356SOL    HW173842   5.142  14.302   6.094
57356SOL    HW273843   5.099  14.426   6.020
57357SOL     OW73844  12.008  11.001   7.209
57357SOL    HW173845  11.983  11.030   7.121
57357SOL    HW273846  11.928  11.012   7.261
57358SOL     OW73847   4.329   8.039   2.220
57358SOL    HW173848   4.239   8.056   2.192
57358SOL    HW273849   4.334   7.944   2.225
57359SOL     OW73850  14.531   6.421  11.076
57359SOL    HW173851  14.438   6.404  11.059
57359SOL    HW273852  14.535   6.437  11.171
57360SOL     OW73853   1.406  13.660   6.797
57360SOL    HW173854   1.349  13.700   6.863
57360SOL    HW273855   1.493  13.695   6.815
57361SOL     OW73856  12.033  14.761   5.966
57361SOL    HW173857  12.007  14.703   6.037
57361SOL    HW273858  12.062  14.703   5.896
57362SOL     OW73859   4.780   3.043  12.209
57362SOL    HW173860   4.697   2.996  12.195
57362SOL    HW273861   4.845   2.988  12.165
57363SOL     OW73862   5.716  13.123  11.373
57363SOL    HW173863   5.730  13.109  11.466
57363SOL    HW273864   5.803  13.146  11.339
57364SOL     OW73865  10.508   9.982   6.002
57364SOL    HW173866  10.475  10.063   5.962
57364SOL    HW273867  10.471   9.983   6.090
57365SOL     OW73868   0.992   8.481   5.152
57365SOL    HW173869   1.074   8.450   5.191
57365SOL    HW273870   1.017   8.518   5.068
57366SOL     OW73871  14.531   3.687   9.333
57366SOL    HW173872  14.567   3.615   9.281
57366SOL    HW273873  14.530   3.653   9.423
57367SOL     OW73874   8.658  10.812   2.676
57367SOL    HW173875   8.740  10.804   2.627
57367SOL    HW273876   8.674  10.882   2.739
57368SOL     OW73877   0.215   3.092   6.847
57368SOL    HW173878   0.251   3.131   6.768
57368SOL    HW273879   0.293   3.065   6.897
57369SOL     OW73880   3.489   9.484  11.739
57369SOL    HW173881   3.568   9.529  11.769
57369SOL    HW273882   3.454   9.443  11.817
57370SOL     OW73883  12.196   7.324  13.374
57370SOL    HW173884  12.134   7.268  13.328
57370SOL    HW273885  12.162   7.330  13.463
57371SOL     OW73886  14.130   2.030   6.674
57371SOL    HW173887  14.037   2.004   6.673
57371SOL    HW273888  14.130   2.117   6.714
57372SOL     OW73889   2.062   8.346   9.225
57372SOL    HW173890   1.994   8.339   9.158
57372SOL    HW273891   2.098   8.257   9.232
57373SOL     OW73892  12.761  11.016   0.877
57373SOL    HW173893  12.708  10.946   0.915
57373SOL    HW273894  12.703  11.092   0.878
57374SOL     OW73895   8.932  11.872   8.676
57374SOL    HW173896   8.914  11.841   8.765
57374SOL    HW273897   8.850  11.856   8.629
57375SOL     OW73898  14.214   6.234   1.189
57375SOL    HW173899  14.179   6.146   1.205
57375SOL    HW273900  14.288   6.242   1.249
57376SOL     OW73901   1.423   4.432  13.929
57376SOL    HW173902   1.502   4.452  13.877
57376SOL    HW273903   1.367   4.382  13.870
57377SOL     OW73904   0.140   3.159   0.141
57377SOL    HW173905   0.072   3.130   0.081
57377SOL    HW273906   0.221   3.123   0.105
57378SOL     OW73907   2.943   0.902  12.436
57378SOL    HW173908   2.908   0.983  12.398
57378SOL    HW273909   2.942   0.839  12.364
57379SOL     OW73910   0.481   0.446  13.423
57379SOL    HW173911   0.395   0.471  13.456
57379SOL    HW273912   0.516   0.386  13.489
57380SOL     OW73913  11.534   0.658   6.940
57380SOL    HW173914  11.591   0.734   6.933
57380SOL    HW273915  11.470   0.669   6.871
57381SOL     OW73916   0.765   6.344  11.568
57381SOL    HW173917   0.777   6.431  11.607
57381SOL    HW273918   0.827   6.288  11.615
57382SOL     OW73919   4.885   0.219   5.244
57382SOL    HW173920   4.895   0.256   5.332
57382SOL    HW273921   4.828   0.143   5.256
57383SOL     OW73922   1.869   3.814   6.775
57383SOL    HW173923   1.860   3.750   6.845
57383SOL    HW273924   1.929   3.774   6.712
57384SOL     OW73925   3.650  12.489  12.311
57384SOL    HW173926   3.675  12.396  12.318
57384SOL    HW273927   3.659  12.523  12.400
57385SOL     OW73928   8.251   2.830  10.236
57385SOL    HW173929   8.174   2.886  10.249
57385SOL    HW273930   8.215   2.742  10.223
57386SOL     OW73931   4.664   1.017   4.863
57386SOL    HW173932   4.638   0.981   4.778
57386SOL    HW273933   4.589   1.001   4.919
57387SOL     OW73934   9.102   3.689   4.015
57387SOL    HW173935   9.029   3.631   3.993
57387SOL    HW273936   9.176   3.631   4.030
57388SOL     OW73937   4.434   6.051  12.266
57388SOL    HW173938   4.379   6.056  12.188
57388SOL    HW273939   4.433   6.140  12.302
57389SOL     OW73940   8.236   1.776   5.589
57389SOL    HW173941   8.213   1.756   5.498
57389SOL    HW273942   8.327   1.805   5.586
57390SOL     OW73943   3.326  11.364   5.009
57390SOL    HW173944   3.384  11.298   4.971
57390SOL    HW273945   3.286  11.407   4.934
57391SOL     OW73946   1.605   6.244   5.555
57391SOL    HW173947   1.558   6.211   5.632
57391SOL    HW273948   1.681   6.289   5.592
57392SOL     OW73949   0.452   4.536   2.647
57392SOL    HW173950   0.458   4.629   2.669
57392SOL    HW273951   0.387   4.533   2.576
57393SOL     OW73952  11.479   0.109  12.317
57393SOL    HW173953  11.516   0.183  12.270
57393SOL    HW273954  11.522   0.110  12.403
57394SOL     OW73955   9.050  11.953  13.501
57394SOL    HW173956   9.029  11.935  13.409
57394SOL    HW273957   8.966  11.951  13.546
57395SOL     OW73958   7.211   9.422   2.850
57395SOL    HW173959   7.273   9.405   2.920
57395SOL    HW273960   7.250   9.493   2.799
57396SOL     OW73961   6.496  10.306  10.564
57396SOL    HW173962   6.560  10.358  10.515
57396SOL    HW273963   6.517  10.321  10.656
57397SOL     OW73964   3.188   7.605   5.908
57397SOL    HW173965   3.277   7.640   5.904
57397SOL    HW273966   3.177   7.579   6.000
57398SOL     OW73967   2.010   9.910   5.718
57398SOL    HW173968   1.986   9.927   5.809
57398SOL    HW273969   1.960   9.832   5.694
57399SOL     OW73970   1.711  11.306   2.505
57399SOL    HW173971   1.623  11.269   2.513
57399SOL    HW273972   1.699  11.400   2.504
57400SOL     OW73973   9.746   7.523   6.051
57400SOL    HW173974   9.679   7.583   6.017
57400SOL    HW273975   9.715   7.501   6.138
57401SOL     OW73976   8.931  10.045  13.376
57401SOL    HW173977   9.012  10.068  13.421
57401SOL    HW273978   8.915   9.954  13.402
57402SOL     OW73979   4.920   7.335  11.216
57402SOL    HW173980   4.986   7.275  11.251
57402SOL    HW273981   4.909   7.401  11.285
57403SOL     OW73982   8.747   6.166   7.834
57403SOL    HW173983   8.691   6.131   7.903
57403SOL    HW273984   8.688   6.215   7.777
57404SOL     OW73985   3.496   9.467   1.513
57404SOL    HW173986   3.573   9.409   1.518
57404SOL    HW273987   3.517   9.539   1.572
57405SOL     OW73988   2.917   0.136   9.210
57405SOL    HW173989   2.952   0.055   9.174
57405SOL    HW273990   2.827   0.115   9.235
57406SOL     OW73991   5.126  14.725  12.778
57406SOL    HW173992   5.162  14.638  12.762
57406SOL    HW273993   5.048  14.729  12.723
57407SOL     OW73994  13.255   3.189   6.938
57407SOL    HW173995  13.221   3.253   7.000
57407SOL    HW273996  13.321   3.140   6.988
57408SOL     OW73997   0.209   5.534  13.614
57408SOL    HW173998   0.275   5.597  13.582
57408SOL    HW273999   0.188   5.481  13.537
57409SOL     OW74000  11.890   1.500  14.581
57409SOL    HW174001  11.866   1.572  14.639
57409SOL    HW274002  11.818   1.438  14.589
57410SOL     OW74003   3.166   4.052   3.877
57410SOL    HW174004   3.232   4.053   3.808
57410SOL    HW274005   3.106   3.982   3.851
57411SOL     OW74006   9.761  14.880   2.032
57411SOL    HW174007   9.721   0.070   2.082
57411SOL    HW274008   9.717   0.002   1.947
57412SOL     OW74009  10.410   3.263   4.456
57412SOL    HW174010  10.357   3.213   4.394
57412SOL    HW274011  10.388   3.226   4.541
57413SOL     OW74012   8.180   6.949   8.592
57413SOL    HW174013   8.186   7.024   8.651
57413SOL    HW274014   8.089   6.952   8.560
57414SOL     OW74015  14.013  14.153   9.194
57414SOL    HW174016  13.979  14.092   9.128
57414SOL    HW274017  13.934  14.190   9.234
57415SOL     OW74018  12.702   2.019   8.303
57415SOL    HW174019  12.732   1.940   8.259
57415SOL    HW274020  12.681   2.080   8.232
57416SOL     OW74021  14.252  13.294  10.502
57416SOL    HW174022  14.275  13.241  10.426
57416SOL    HW274023  14.209  13.232  10.562
57417SOL     OW74024   9.180  11.796   8.000
57417SOL    HW174025   9.212  11.858   7.934
57417SOL    HW274026   9.103  11.757   7.960
57418SOL     OW74027   9.055  13.094   2.417
57418SOL    HW174028   9.069  13.078   2.324
57418SOL    HW274029   9.139  13.127   2.449
57419SOL     OW74030   8.471   5.091   3.327
57419SOL    HW174031   8.461   5.184   3.305
57419SOL    HW274032   8.427   5.081   3.411
57420SOL     OW74033  11.385   2.962   6.170
57420SOL    HW174034  11.333   2.969   6.090
57420SOL    HW274035  11.334   3.008   6.237
57421SOL     OW74036  14.516   2.705   1.335
57421SOL    HW174037  14.580   2.649   1.291
57421SOL    HW274038  14.437   2.651   1.341
57422SOL     OW74039   2.825   0.567   6.647
57422SOL    HW174040   2.751   0.549   6.589
57422SOL    HW274041   2.886   0.495   6.632
57423SOL     OW74042  11.040  11.516  10.118
57423SOL    HW174043  10.952  11.554  10.124
57423SOL    HW274044  11.066  11.529  10.027
57424SOL     OW74045   7.711   8.102   0.480
57424SOL    HW174046   7.742   8.063   0.562
57424SOL    HW274047   7.624   8.064   0.467
57425SOL     OW74048   3.165  12.985   8.533
57425SOL    HW174049   3.141  13.062   8.481
57425SOL    HW274050   3.168  12.914   8.469
57426SOL     OW74051  14.419   5.061   1.647
57426SOL    HW174052  14.345   5.093   1.699
57426SOL    HW274053  14.480   5.135   1.644
57427SOL     OW74054   2.474   6.782   2.656
57427SOL    HW174055   2.418   6.736   2.719
57427SOL    HW274056   2.453   6.742   2.572
57428SOL     OW74057   9.329   0.211  14.210
57428SOL    HW174058   9.285   0.258  14.139
57428SOL    HW274059   9.415   0.252  14.216
57429SOL     OW74060   4.670  13.681   4.012
57429SOL    HW174061   4.662  13.586   4.018
57429SOL    HW274062   4.619  13.705   3.935
57430SOL     OW74063  11.815   7.524   2.843
57430SOL    HW174064  11.892   7.578   2.862
57430SOL    HW274065  11.790   7.487   2.927
57431SOL     OW74066   6.719   6.955   0.009
57431SOL    HW174067   6.797   6.900   0.003
57431SOL    HW274068   6.646   6.894   0.014
57432SOL     OW74069   4.210   6.842   5.045
57432SOL    HW174070   4.233   6.765   5.096
57432SOL    HW274071   4.190   6.909   5.110
57433SOL     OW74072   7.591  10.799   8.921
57433SOL    HW174073   7.674  10.846   8.921
57433SOL    HW274074   7.559  10.805   9.012
57434SOL     OW74075  11.080   2.032  13.244
57434SOL    HW174076  11.020   2.081  13.301
57434SOL    HW274077  11.142   1.991  13.304
57435SOL     OW74078   9.728  12.706   5.725
57435SOL    HW174079   9.700  12.615   5.731
57435SOL    HW274080   9.791  12.708   5.652
57436SOL     OW74081  14.158   7.034  11.397
57436SOL    HW174082  14.165   7.120  11.357
57436SOL    HW274083  14.209   6.976  11.340
57437SOL     OW74084  12.665  13.633  13.755
57437SOL    HW174085  12.664  13.542  13.727
57437SOL    HW274086  12.664  13.684  13.674
57438SOL     OW74087   4.631   2.209  12.666
57438SOL    HW174088   4.657   2.219  12.757
57438SOL    HW274089   4.700   2.252  12.616
57439SOL     OW74090   9.790   6.675   6.143
57439SOL    HW174091   9.868   6.674   6.198
57439SOL    HW274092   9.736   6.604   6.177
57440SOL     OW74093   7.313   5.955   6.703
57440SOL    HW174094   7.251   6.024   6.677
57440SOL    HW274095   7.398   5.997   6.698
57441SOL     OW74096  10.772   3.400  13.516
57441SOL    HW174097  10.805   3.484  13.548
57441SOL    HW274098  10.688   3.421  13.475
57442SOL     OW74099   9.189   7.167   1.056
57442SOL    HW174100   9.111   7.208   1.019
57442SOL    HW274101   9.248   7.157   0.982
57443SOL     OW74102   7.879   6.389  12.326
57443SOL    HW174103   7.841   6.310  12.289
57443SOL    HW274104   7.821   6.460  12.298
57444SOL     OW74105  12.301   7.261   2.455
57444SOL    HW174106  12.224   7.317   2.446
57444SOL    HW274107  12.371   7.309   2.410
57445SOL     OW74108   6.212   4.684   1.484
57445SOL    HW174109   6.154   4.722   1.549
57445SOL    HW274110   6.229   4.596   1.515
57446SOL     OW74111  13.444  14.484  12.880
57446SOL    HW174112  13.413  14.494  12.970
57446SOL    HW274113  13.392  14.547  12.830
57447SOL     OW74114   7.620   3.232   6.948
57447SOL    HW174115   7.666   3.149   6.960
57447SOL    HW274116   7.689   3.294   6.924
57448SOL     OW74117   8.866  10.541   2.152
57448SOL    HW174118   8.867  10.605   2.223
57448SOL    HW274119   8.797  10.571   2.093
57449SOL     OW74120  11.830  14.327   3.167
57449SOL    HW174121  11.782  14.409   3.173
57449SOL    HW274122  11.843  14.314   3.073
57450SOL     OW74123   4.233  11.754   7.578
57450SOL    HW174124   4.262  11.778   7.666
57450SOL    HW274125   4.161  11.693   7.592
57451SOL     OW74126  11.644  14.507   4.612
57451SOL    HW174127  11.610  14.433   4.562
57451SOL    HW274128  11.568  14.560   4.633
57452SOL     OW74129   2.008   4.738  10.788
57452SOL    HW174130   2.015   4.670  10.721
57452SOL    HW274131   2.034   4.695  10.869
57453SOL     OW74132   1.992  14.538  11.082
57453SOL    HW174133   1.980  14.443  11.082
57453SOL    HW274134   1.905  14.573  11.099
57454SOL     OW74135  12.067   4.239   8.612
57454SOL    HW174136  12.012   4.161   8.615
57454SOL    HW274137  12.079   4.263   8.704
57455SOL     OW74138   1.193   8.801  12.811
57455SOL    HW174139   1.130   8.816  12.741
57455SOL    HW274140   1.146   8.750  12.876
57456SOL     OW74141   0.729   3.059  14.817
57456SOL    HW174142   0.801   3.105  14.775
57456SOL    HW274143   0.739   2.968  14.790
57457SOL     OW74144   9.163   5.543   7.660
57457SOL    HW174145   9.172   5.606   7.730
57457SOL    HW274146   9.073   5.555   7.628
57458SOL     OW74147   0.415   0.574   4.959
57458SOL    HW174148   0.470   0.607   5.030
57458SOL    HW274149   0.403   0.481   4.979
57459SOL     OW74150   3.596  10.143  11.232
57459SOL    HW174151   3.605  10.050  11.249
57459SOL    HW274152   3.518  10.169  11.280
57460SOL     OW74153  12.690   9.626   8.703
57460SOL    HW174154  12.658   9.565   8.770
57460SOL    HW274155  12.732   9.696   8.752
57461SOL     OW74156  10.966  13.055  13.247
57461SOL    HW174157  10.950  13.139  13.291
57461SOL    HW274158  10.881  13.011  13.249
57462SOL     OW74159   9.214  13.278   0.798
57462SOL    HW174160   9.276  13.268   0.726
57462SOL    HW274161   9.249  13.223   0.868
57463SOL     OW74162  13.572   3.780   0.863
57463SOL    HW174163  13.535   3.699   0.899
57463SOL    HW274164  13.547   3.848   0.926
57464SOL     OW74165   7.140   9.290   5.345
57464SOL    HW174166   7.155   9.359   5.281
57464SOL    HW274167   7.044   9.283   5.350
57465SOL     OW74168   1.568   9.912   5.042
57465SOL    HW174169   1.473   9.919   5.044
57465SOL    HW274170   1.587   9.827   5.082
57466SOL     OW74171   5.702   8.718   3.755
57466SOL    HW174172   5.664   8.630   3.758
57466SOL    HW274173   5.630   8.776   3.780
57467SOL     OW74174   5.967   5.666   9.713
57467SOL    HW174175   5.927   5.712   9.787
57467SOL    HW274176   5.989   5.579   9.748
57468SOL     OW74177  10.623   2.404   7.661
57468SOL    HW174178  10.533   2.431   7.641
57468SOL    HW274179  10.677   2.476   7.629
57469SOL     OW74180   3.775  13.122   6.234
57469SOL    HW174181   3.720  13.191   6.196
57469SOL    HW274182   3.716  13.047   6.245
57470SOL     OW74183  13.763   5.314   3.728
57470SOL    HW174184  13.791   5.379   3.663
57470SOL    HW274185  13.674   5.291   3.702
57471SOL     OW74186   6.970   4.758   1.883
57471SOL    HW174187   7.038   4.695   1.907
57471SOL    HW274188   7.012   4.814   1.818
57472SOL     OW74189   3.670   9.292  14.406
57472SOL    HW174190   3.737   9.360  14.416
57472SOL    HW274191   3.656   9.258  14.494
57473SOL     OW74192   3.568  14.469   3.548
57473SOL    HW174193   3.550  14.532   3.617
57473SOL    HW274194   3.651  14.429   3.573
57474SOL     OW74195   9.845   0.553  12.971
57474SOL    HW174196   9.779   0.491  13.001
57474SOL    HW274197   9.805   0.598  12.897
57475SOL     OW74198   7.795   0.002   7.797
57475SOL    HW174199   7.875  14.881   7.849
57475SOL    HW274200   7.825  14.878   7.706
57476SOL     OW74201  11.450   0.653  10.851
57476SOL    HW174202  11.476   0.690  10.935
57476SOL    HW274203  11.481   0.562  10.853
57477SOL     OW74204   0.446   3.577   2.097
57477SOL    HW174205   0.483   3.493   2.123
57477SOL    HW274206   0.392   3.557   2.020
57478SOL     OW74207   7.420  14.558   6.079
57478SOL    HW174208   7.510  14.574   6.052
57478SOL    HW274209   7.379  14.644   6.082
57479SOL     OW74210   6.757   6.417   4.441
57479SOL    HW174211   6.663   6.410   4.427
57479SOL    HW274212   6.794   6.339   4.400
57480SOL     OW74213   8.932  13.831   4.758
57480SOL    HW174214   8.873  13.849   4.685
57480SOL    HW274215   9.011  13.880   4.738
57481SOL     OW74216  13.541   7.146   0.983
57481SOL    HW174217  13.516   7.166   0.893
57481SOL    HW274218  13.500   7.215   1.036
57482SOL     OW74219   1.504   6.935   3.829
57482SOL    HW174220   1.477   6.928   3.738
57482SOL    HW274221   1.482   7.024   3.854
57483SOL     OW74222   9.026  11.472  13.093
57483SOL    HW174223   8.982  11.557  13.089
57483SOL    HW274224   9.092  11.484  13.162
57484SOL     OW74225   6.688  14.616   7.681
57484SOL    HW174226   6.656  14.706   7.687
57484SOL    HW274227   6.773  14.617   7.724
57485SOL     OW74228   0.570   4.499   9.995
57485SOL    HW174229   0.608   4.419  10.032
57485SOL    HW274230   0.543   4.550  10.071
57486SOL     OW74231  13.578   2.782   9.539
57486SOL    HW174232  13.619   2.763   9.455
57486SOL    HW274233  13.651   2.789   9.601
57487SOL     OW74234   0.125  14.364  12.875
57487SOL    HW174235   0.113  14.432  12.942
57487SOL    HW274236   0.039  14.354  12.835
57488SOL     OW74237   6.971  13.518   2.124
57488SOL    HW174238   7.010  13.454   2.183
57488SOL    HW274239   7.023  13.597   2.136
57489SOL     OW74240  10.974  10.932  14.879
57489SOL    HW174241  10.971  10.836  14.878
57489SOL    HW274242  11.061  10.952   0.033
57490SOL     OW74243   1.240   0.432  12.851
57490SOL    HW174244   1.218   0.488  12.926
57490SOL    HW274245   1.237   0.343  12.887
57491SOL     OW74246   9.168  12.281  11.249
57491SOL    HW174247   9.232  12.326  11.304
57491SOL    HW274248   9.192  12.188  11.256
57492SOL     OW74249  13.273   8.182   1.254
57492SOL    HW174250  13.230   8.114   1.306
57492SOL    HW274251  13.344   8.215   1.310
57493SOL     OW74252   6.601  10.082   1.199
57493SOL    HW174253   6.623  10.159   1.252
57493SOL    HW274254   6.525  10.045   1.242
57494SOL     OW74255  13.721  13.543   9.552
57494SOL    HW174256  13.651  13.479   9.543
57494SOL    HW274257  13.734  13.577   9.464
57495SOL     OW74258   4.193  13.279   9.154
57495SOL    HW174259   4.269  13.335   9.164
57495SOL    HW274260   4.159  13.269   9.243
57496SOL     OW74261   0.419  14.196   9.137
57496SOL    HW174262   0.430  14.234   9.224
57496SOL    HW274263   0.506  14.165   9.113
57497SOL     OW74264   5.494  12.558   9.491
57497SOL    HW174265   5.566  12.505   9.457
57497SOL    HW274266   5.534  12.610   9.561
57498SOL     OW74267  14.657   3.216   9.790
57498SOL    HW174268  14.752   3.229   9.790
57498SOL    HW274269  14.640   3.166   9.709
57499SOL     OW74270  11.874   1.556  13.288
57499SOL    HW174271  11.795   1.504  13.273
57499SOL    HW274272  11.911   1.521  13.369
57500SOL     OW74273  11.940   5.546   0.747
57500SOL    HW174274  11.918   5.525   0.657
57500SOL    HW274275  11.869   5.603   0.776
57501SOL     OW74276   3.286   7.712  10.908
57501SOL    HW174277   3.329   7.680  10.987
57501SOL    HW274278   3.208   7.656  10.898
57502SOL     OW74279   0.961   8.695   4.009
57502SOL    HW174280   0.876   8.714   3.970
57502SOL    HW274281   1.015   8.667   3.935
57503SOL     OW74282  14.220   0.824   9.567
57503SOL    HW174283  14.231   0.748   9.511
57503SOL    HW274284  14.263   0.800   9.650
57504SOL     OW74285   7.381  14.127   4.747
57504SOL    HW174286   7.428  14.206   4.720
57504SOL    HW274287   7.352  14.087   4.665
57505SOL     OW74288   3.765   3.146   3.602
57505SOL    HW174289   3.836   3.119   3.660
57505SOL    HW274290   3.698   3.183   3.660
57506SOL     OW74291  13.068   2.375   7.996
57506SOL    HW174292  12.990   2.322   8.016
57506SOL    HW274293  13.132   2.312   7.963
57507SOL     OW74294  11.201   1.852  13.918
57507SOL    HW174295  11.263   1.889  13.856
57507SOL    HW274296  11.223   1.758  13.921
57508SOL     OW74297   9.987  13.490   7.632
57508SOL    HW174298   9.925  13.560   7.654
57508SOL    HW274299  10.061  13.535   7.591
57509SOL     OW74300   8.326  13.235  10.640
57509SOL    HW174301   8.414  13.274  10.638
57509SOL    HW274302   8.341  13.143  10.662
57510SOL     OW74303   6.279   9.991   0.271
57510SOL    HW174304   6.315   9.946   0.195
57510SOL    HW274305   6.213  10.050   0.234
57511SOL     OW74306   2.966   1.393   4.261
57511SOL    HW174307   2.995   1.368   4.173
57511SOL    HW274308   2.990   1.318   4.316
57512SOL     OW74309   9.366  13.897  12.876
57512SOL    HW174310   9.388  13.988  12.896
57512SOL    HW274311   9.330  13.899  12.788
57513SOL     OW74312   0.895   7.248   3.355
57513SOL    HW174313   0.822   7.190   3.374
57513SOL    HW274314   0.916   7.230   3.263
57514SOL     OW74315  10.348  12.734  12.831
57514SOL    HW174316  10.364  12.800  12.763
57514SOL    HW274317  10.429  12.730  12.881
57515SOL     OW74318  13.759  11.582  10.237
57515SOL    HW174319  13.819  11.517  10.199
57515SOL    HW274320  13.770  11.659  10.182
57516SOL     OW74321   5.516   6.954   1.386
57516SOL    HW174322   5.576   6.895   1.430
57516SOL    HW274323   5.476   6.901   1.317
57517SOL     OW74324   7.994   6.659   5.172
57517SOL    HW174325   7.953   6.702   5.247
57517SOL    HW274326   8.036   6.730   5.124
57518SOL     OW74327   6.887   0.091   0.212
57518SOL    HW174328   6.877   0.183   0.186
57518SOL    HW274329   6.965   0.061   0.164
57519SOL     OW74330   1.777   1.933   5.646
57519SOL    HW174331   1.698   1.955   5.597
57519SOL    HW274332   1.798   1.843   5.620
57520SOL     OW74333   2.803   8.099   6.342
57520SOL    HW174334   2.824   8.151   6.419
57520SOL    HW274335   2.780   8.013   6.377
57521SOL     OW74336  10.765   9.368  14.286
57521SOL    HW174337  10.735   9.406  14.204
57521SOL    HW274338  10.707   9.406  14.353
57522SOL     OW74339   5.755   6.039  10.203
57522SOL    HW174340   5.770   6.131  10.225
57522SOL    HW274341   5.843   6.001  10.197
57523SOL     OW74342  13.479   5.373   0.994
57523SOL    HW174343  13.526   5.344   0.916
57523SOL    HW274344  13.548   5.383   1.061
57524SOL     OW74345  13.115   9.263   8.208
57524SOL    HW174346  13.188   9.262   8.271
57524SOL    HW274347  13.038   9.283   8.262
57525SOL     OW74348   1.332   8.285   6.825
57525SOL    HW174349   1.388   8.352   6.865
57525SOL    HW274350   1.314   8.319   6.737
57526SOL     OW74351   3.690   1.029   0.456
57526SOL    HW174352   3.610   0.977   0.465
57526SOL    HW274353   3.679   1.078   0.375
57527SOL     OW74354  11.388   9.160   2.193
57527SOL    HW174355  11.473   9.205   2.194
57527SOL    HW274356  11.390   9.105   2.272
57528SOL     OW74357   6.611  13.507  12.344
57528SOL    HW174358   6.657  13.574  12.394
57528SOL    HW274359   6.568  13.555  12.273
57529SOL     OW74360  11.458   4.416  12.535
57529SOL    HW174361  11.552   4.425  12.525
57529SOL    HW274362  11.425   4.506  12.536
57530SOL     OW74363   5.751   9.230  13.464
57530SOL    HW174364   5.755   9.294  13.392
57530SOL    HW274365   5.657   9.220  13.481
57531SOL     OW74366  13.122   0.108   3.773
57531SOL    HW174367  13.203   0.060   3.756
57531SOL    HW274368  13.060   0.073   3.709
57532SOL     OW74369  10.464  13.688   6.932
57532SOL    HW174370  10.370  13.695   6.950
57532SOL    HW274371  10.475  13.598   6.901
57533SOL     OW74372   8.972   9.021   0.280
57533SOL    HW174373   8.943   8.934   0.251
57533SOL    HW274374   8.991   9.010   0.373
57534SOL     OW74375   8.866   9.745   8.220
57534SOL    HW174376   8.940   9.703   8.175
57534SOL    HW274377   8.815   9.785   8.149
57535SOL     OW74378   7.868  11.639   7.582
57535SOL    HW174379   7.957  11.625   7.549
57535SOL    HW274380   7.817  11.658   7.503
57536SOL     OW74381  10.932   8.875   5.608
57536SOL    HW174382  11.025   8.863   5.628
57536SOL    HW274383  10.889   8.798   5.645
57537SOL     OW74384   4.659   4.185   0.970
57537SOL    HW174385   4.714   4.107   0.960
57537SOL    HW274386   4.570   4.156   0.952
57538SOL     OW74387  12.692   5.462   1.161
57538SOL    HW174388  12.601   5.481   1.184
57538SOL    HW274389  12.723   5.542   1.118
57539SOL     OW74390   7.106   0.581   8.329
57539SOL    HW174391   7.107   0.568   8.424
57539SOL    HW274392   7.033   0.527   8.298
57540SOL     OW74393   6.584   5.975   2.710
57540SOL    HW174394   6.560   5.888   2.741
57540SOL    HW274395   6.595   5.964   2.615
57541SOL     OW74396  10.591   1.012   1.048
57541SOL    HW174397  10.587   0.928   1.003
57541SOL    HW274398  10.525   1.006   1.117
57542SOL     OW74399  13.661   5.524   0.323
57542SOL    HW174400  13.695   5.507   0.411
57542SOL    HW274401  13.688   5.614   0.304
57543SOL     OW74402   4.798  10.518   4.033
57543SOL    HW174403   4.704  10.528   4.046
57543SOL    HW274404   4.831  10.487   4.117
57544SOL     OW74405   3.675  11.651   5.760
57544SOL    HW174406   3.606  11.683   5.818
57544SOL    HW274407   3.638  11.571   5.722
57545SOL     OW74408   5.593   0.314   4.897
57545SOL    HW174409   5.516   0.360   4.864
57545SOL    HW274410   5.650   0.305   4.821
57546SOL     OW74411  10.136  11.647   3.017
57546SOL    HW174412  10.228  11.654   2.993
57546SOL    HW274413  10.113  11.556   2.999
57547SOL     OW74414   2.744   3.733   9.715
57547SOL    HW174415   2.742   3.818   9.758
57547SOL    HW274416   2.766   3.751   9.624
57548SOL     OW74417  12.611   2.519  11.428
57548SOL    HW174418  12.669   2.517  11.504
57548SOL    HW274419  12.524   2.532  11.465
57549SOL     OW74420  11.576  12.927   5.296
57549SOL    HW174421  11.535  12.998   5.246
57549SOL    HW274422  11.661  12.915   5.255
57550SOL     OW74423  11.048   2.061   9.142
57550SOL    HW174424  11.093   1.989   9.186
57550SOL    HW274425  10.958   2.031   9.134
57551SOL     OW74426  10.766   6.772   8.231
57551SOL    HW174427  10.719   6.689   8.234
57551SOL    HW274428  10.724   6.826   8.298
57552SOL     OW74429   9.886   2.359  10.433
57552SOL    HW174430   9.830   2.425  10.392
57552SOL    HW274431   9.867   2.278  10.385
57553SOL     OW74432   7.943   3.492   0.502
57553SOL    HW174433   7.970   3.544   0.578
57553SOL    HW274434   7.959   3.401   0.528
57554SOL     OW74435   2.315   5.755   3.788
57554SOL    HW174436   2.297   5.767   3.881
57554SOL    HW274437   2.334   5.661   3.780
57555SOL     OW74438   4.176   5.436   2.088
57555SOL    HW174439   4.114   5.419   2.017
57555SOL    HW274440   4.252   5.475   2.045
57556SOL     OW74441   7.917   2.476   2.201
57556SOL    HW174442   7.833   2.487   2.246
57556SOL    HW274443   7.943   2.386   2.221
57557SOL     OW74444   0.080  14.330   3.015
57557SOL    HW174445   0.080  14.280   3.096
57557SOL    HW274446   0.076  14.421   3.042
57558SOL     OW74447  13.015  10.655  13.758
57558SOL    HW174448  13.025  10.584  13.821
57558SOL    HW274449  13.083  10.639  13.692
57559SOL     OW74450   8.432  14.542  14.324
57559SOL    HW174451   8.376  14.467  14.304
57559SOL    HW274452   8.456  14.530  14.416
57560SOL     OW74453   1.911  14.620  10.209
57560SOL    HW174454   1.940  14.529  10.196
57560SOL    HW274455   1.907  14.631  10.304
57561SOL     OW74456  12.890  10.973  12.271
57561SOL    HW174457  12.925  10.937  12.189
57561SOL    HW274458  12.811  10.923  12.288
57562SOL     OW74459   3.258   7.570  11.152
57562SOL    HW174460   3.283   7.486  11.190
57562SOL    HW274461   3.163   7.566  11.144
57563SOL     OW74462  11.592   8.918   7.187
57563SOL    HW174463  11.656   8.847   7.195
57563SOL    HW274464  11.644   8.997   7.200
57564SOL     OW74465   9.750   3.029   5.227
57564SOL    HW174466   9.681   3.065   5.172
57564SOL    HW274467   9.832   3.061   5.187
57565SOL     OW74468   4.232   2.042   8.152
57565SOL    HW174469   4.299   2.072   8.212
57565SOL    HW274470   4.150   2.079   8.187
57566SOL     OW74471   6.375   5.045   6.727
57566SOL    HW174472   6.301   5.022   6.784
57566SOL    HW274473   6.442   4.979   6.747
57567SOL     OW74474   3.163  12.367   5.676
57567SOL    HW174475   3.068  12.373   5.673
57567SOL    HW274476   3.181  12.278   5.708
57568SOL     OW74477  12.914   8.846   2.735
57568SOL    HW174478  12.895   8.934   2.767
57568SOL    HW274479  12.954   8.801   2.810
57569SOL     OW74480  12.000   2.511  11.347
57569SOL    HW174481  11.957   2.562  11.416
57569SOL    HW274482  12.062   2.572  11.307
57570SOL     OW74483  14.025   7.732  13.673
57570SOL    HW174484  13.979   7.796  13.726
57570SOL    HW274485  14.081   7.783  13.615
57571SOL     OW74486   0.453   7.413   6.773
57571SOL    HW174487   0.412   7.327   6.783
57571SOL    HW274488   0.546   7.397   6.790
57572SOL     OW74489   5.490   6.810   0.668
57572SOL    HW174490   5.445   6.732   0.638
57572SOL    HW274491   5.528   6.849   0.589
57573SOL     OW74492   3.624  11.890   9.126
57573SOL    HW174493   3.557  11.860   9.188
57573SOL    HW274494   3.707  11.859   9.163
57574SOL     OW74495  10.464   0.090  11.122
57574SOL    HW174496  10.413   0.032  11.178
57574SOL    HW274497  10.544   0.041  11.103
57575SOL     OW74498   4.440   4.452  12.204
57575SOL    HW174499   4.406   4.440  12.115
57575SOL    HW274500   4.444   4.546  12.215
57576SOL     OW74501   2.502   1.658   9.416
57576SOL    HW174502   2.530   1.633   9.504
57576SOL    HW274503   2.417   1.699   9.429
57577SOL     OW74504   2.529   2.025  13.309
57577SOL    HW174505   2.492   2.006  13.395
57577SOL    HW274506   2.454   2.027  13.250
57578SOL     OW74507   6.298  12.205   1.983
57578SOL    HW174508   6.286  12.145   1.909
57578SOL    HW274509   6.219  12.192   2.037
57579SOL     OW74510   9.199   7.392   6.552
57579SOL    HW174511   9.277   7.443   6.530
57579SOL    HW274512   9.217   7.358   6.640
57580SOL     OW74513   8.434   9.971  11.406
57580SOL    HW174514   8.437   9.963  11.502
57580SOL    HW274515   8.471  10.057  11.388
57581SOL     OW74516   3.730   2.631   3.416
57581SOL    HW174517   3.687   2.712   3.445
57581SOL    HW274518   3.779   2.657   3.338
57582SOL     OW74519   1.463   8.619  10.342
57582SOL    HW174520   1.514   8.678  10.398
57582SOL    HW274521   1.528   8.577  10.286
57583SOL     OW74522   8.206  12.799   0.864
57583SOL    HW174523   8.134  12.824   0.805
57583SOL    HW274524   8.281  12.785   0.806
57584SOL     OW74525  10.236   5.334   0.265
57584SOL    HW174526  10.206   5.315   0.176
57584SOL    HW274527  10.305   5.400   0.254
57585SOL     OW74528   8.342   1.178   9.845
57585SOL    HW174529   8.332   1.273   9.844
57585SOL    HW274530   8.435   1.163   9.866
57586SOL     OW74531   4.744   7.348   3.373
57586SOL    HW174532   4.650   7.334   3.367
57586SOL    HW274533   4.755   7.443   3.366
57587SOL     OW74534   1.864   8.624  13.419
57587SOL    HW174535   1.883   8.621  13.325
57587SOL    HW274536   1.837   8.535  13.441
57588SOL     OW74537  14.501   5.013   1.166
57588SOL    HW174538  14.452   4.965   1.232
57588SOL    HW274539  14.552   4.946   1.120
57589SOL     OW74540   2.566  12.095   8.099
57589SOL    HW174541   2.479  12.055   8.094
57589SOL    HW274542   2.552  12.187   8.076
57590SOL     OW74543   0.209  11.395   0.578
57590SOL    HW174544   0.290  11.439   0.555
57590SOL    HW274545   0.230  11.346   0.657
57591SOL     OW74546   4.257   8.145   6.626
57591SOL    HW174547   4.274   8.164   6.534
57591SOL    HW274548   4.195   8.213   6.653
57592SOL     OW74549  11.470  14.150  10.232
57592SOL    HW174550  11.479  14.245  10.227
57592SOL    HW274551  11.529  14.124  10.302
57593SOL     OW74552  12.415   3.446   9.620
57593SOL    HW174553  12.364   3.525   9.602
57593SOL    HW274554  12.398   3.426   9.711
57594SOL     OW74555  14.389  14.682  11.387
57594SOL    HW174556  14.413  14.775  11.391
57594SOL    HW274557  14.378  14.664  11.294
57595SOL     OW74558   7.742  13.479   8.038
57595SOL    HW174559   7.784  13.416   8.096
57595SOL    HW274560   7.718  13.427   7.961
57596SOL     OW74561  13.254  12.056  10.864
57596SOL    HW174562  13.230  11.965  10.846
57596SOL    HW274563  13.345  12.051  10.895
57597SOL     OW74564   6.529  12.442   4.168
57597SOL    HW174565   6.596  12.499   4.205
57597SOL    HW274566   6.464  12.433   4.238
57598SOL     OW74567   1.812   5.496   0.152
57598SOL    HW174568   1.751   5.476   0.224
57598SOL    HW274569   1.808   5.420   0.095
57599SOL     OW74570   2.415  14.636   7.265
57599SOL    HW174571   2.361  14.594   7.332
57599SOL    HW274572   2.374  14.613   7.182
57600SOL     OW74573   5.676   5.143   8.015
57600SOL    HW174574   5.637   5.156   7.929
57600SOL    HW274575   5.610   5.093   8.064
57601SOL     OW74576   7.079   4.280  10.040
57601SOL    HW174577   7.007   4.284  10.103
57601SOL    HW274578   7.040   4.240   9.962
57602SOL     OW74579   5.807   7.818  12.511
57602SOL    HW174580   5.830   7.874  12.585
57602SOL    HW274581   5.847   7.861  12.435
57603SOL     OW74582   9.762   2.921   1.695
57603SOL    HW174583   9.738   2.968   1.616
57603SOL    HW274584   9.855   2.941   1.708
57604SOL     OW74585   5.259   2.149  11.699
57604SOL    HW174586   5.178   2.134  11.652
57604SOL    HW274587   5.241   2.225  11.755
57605SOL     OW74588   9.041   7.120   3.005
57605SOL    HW174589   9.026   7.094   2.914
57605SOL    HW274590   9.084   7.044   3.045
57606SOL     OW74591   0.971   3.301  14.148
57606SOL    HW174592   1.040   3.286  14.084
57606SOL    HW274593   0.930   3.215  14.160
57607SOL     OW74594  13.908  12.608   1.034
57607SOL    HW174595  13.823  12.580   0.999
57607SOL    HW274596  13.966  12.533   1.018
57608SOL     OW74597   8.016  13.282   0.364
57608SOL    HW174598   8.111  13.270   0.365
57608SOL    HW274599   7.983  13.207   0.315
57609SOL     OW74600   4.174   8.711   5.485
57609SOL    HW174601   4.152   8.783   5.425
57609SOL    HW274602   4.189   8.636   5.427
57610SOL     OW74603  14.387   3.854   7.260
57610SOL    HW174604  14.417   3.764   7.243
57610SOL    HW274605  14.467   3.906   7.263
57611SOL     OW74606  14.071  11.753   7.069
57611SOL    HW174607  13.985  11.759   7.111
57611SOL    HW274608  14.062  11.803   6.988
57612SOL     OW74609   2.723  12.689   3.979
57612SOL    HW174610   2.693  12.600   3.997
57612SOL    HW274611   2.784  12.680   3.905
57613SOL     OW74612   0.588   0.478   7.719
57613SOL    HW174613   0.646   0.407   7.693
57613SOL    HW274614   0.566   0.523   7.637
57614SOL     OW74615   5.904  13.235   5.031
57614SOL    HW174616   5.829  13.194   5.073
57614SOL    HW274617   5.866  13.302   4.975
57615SOL     OW74618   5.929   5.686  10.336
57615SOL    HW174619   5.839   5.707  10.359
57615SOL    HW274620   5.973   5.771  10.328
57616SOL     OW74621   8.063   0.482  13.947
57616SOL    HW174622   8.097   0.461  13.860
57616SOL    HW274623   8.038   0.398  13.985
57617SOL     OW74624   9.632   9.719   0.283
57617SOL    HW174625   9.643   9.676   0.199
57617SOL    HW274626   9.693   9.674   0.342
57618SOL     OW74627   3.754  14.121   7.421
57618SOL    HW174628   3.748  14.091   7.511
57618SOL    HW274629   3.764  14.216   7.428
57619SOL     OW74630   7.599   1.700   0.566
57619SOL    HW174631   7.612   1.619   0.614
57619SOL    HW274632   7.529   1.680   0.504
57620SOL     OW74633   1.425   4.771  10.391
57620SOL    HW174634   1.381   4.843  10.436
57620SOL    HW274635   1.508   4.761  10.438
57621SOL     OW74636  10.270   0.406   1.347
57621SOL    HW174637  10.307   0.441   1.428
57621SOL    HW274638  10.250   0.314   1.367
57622SOL     OW74639   9.777  14.104   4.648
57622SOL    HW174640   9.741  14.187   4.617
57622SOL    HW274641   9.773  14.110   4.744
57623SOL     OW74642  13.660   4.717  13.004
57623SOL    HW174643  13.743   4.755  12.975
57623SOL    HW274644  13.610   4.792  13.038
57624SOL     OW74645   7.501  12.327   6.817
57624SOL    HW174646   7.477  12.247   6.865
57624SOL    HW274647   7.450  12.396   6.860
57625SOL     OW74648   5.646   0.531   1.478
57625SOL    HW174649   5.689   0.533   1.563
57625SOL    HW274650   5.716   0.511   1.416
57626SOL     OW74651  13.278   5.499  13.593
57626SOL    HW174652  13.213   5.431  13.576
57626SOL    HW274653  13.313   5.478  13.679
57627SOL     OW74654   8.566   4.810   5.593
57627SOL    HW174655   8.562   4.871   5.519
57627SOL    HW274656   8.651   4.768   5.585
57628SOL     OW74657   5.510  14.568  12.469
57628SOL    HW174658   5.601  14.596  12.462
57628SOL    HW274659   5.493  14.521  12.387
57629SOL     OW74660   6.514   0.437   7.301
57629SOL    HW174661   6.489   0.529   7.291
57629SOL    HW274662   6.480   0.395   7.222
57630SOL     OW74663   1.046   3.563   2.188
57630SOL    HW174664   1.139   3.581   2.171
57630SOL    HW274665   1.009   3.647   2.212
57631SOL     OW74666  13.916  12.572  12.378
57631SOL    HW174667  14.003  12.613  12.372
57631SOL    HW274668  13.871  12.621  12.447
57632SOL     OW74669   0.857   1.107   1.078
57632SOL    HW174670   0.896   1.135   0.995
57632SOL    HW274671   0.869   1.182   1.136
57633SOL     OW74672   1.501   8.664  12.229
57633SOL    HW174673   1.469   8.675  12.319
57633SOL    HW274674   1.532   8.751  12.204
57634SOL     OW74675   3.674  10.058   7.211
57634SOL    HW174676   3.628  10.056   7.295
57634SOL    HW274677   3.629  10.126   7.161
57635SOL     OW74678  12.189   5.843   5.799
57635SOL    HW174679  12.270   5.882   5.768
57635SOL    HW274680  12.212   5.801   5.882
57636SOL     OW74681   7.862   8.068   7.496
57636SOL    HW174682   7.916   7.993   7.474
57636SOL    HW274683   7.902   8.105   7.574
57637SOL     OW74684  12.878   6.178  10.578
57637SOL    HW174685  12.831   6.261  10.570
57637SOL    HW274686  12.816   6.112  10.546
57638SOL     OW74687   6.807   6.560   8.728
57638SOL    HW174688   6.849   6.612   8.659
57638SOL    HW274689   6.748   6.502   8.682
57639SOL     OW74690   9.739   3.652  14.266
57639SOL    HW174691   9.754   3.699  14.184
57639SOL    HW274692   9.825   3.620  14.292
57640SOL     OW74693  11.947  10.204  14.262
57640SOL    HW174694  11.894  10.143  14.314
57640SOL    HW274695  12.027  10.155  14.243
57641SOL     OW74696   4.926   3.912   2.636
57641SOL    HW174697   4.982   3.839   2.608
57641SOL    HW274698   4.959   3.937   2.722
57642SOL     OW74699   9.206  13.192  14.295
57642SOL    HW174700   9.241  13.281  14.287
57642SOL    HW274701   9.283  13.137  14.308
57643SOL     OW74702   3.167   1.414   5.970
57643SOL    HW174703   3.189   1.463   5.892
57643SOL    HW274704   3.218   1.333   5.963
57644SOL     OW74705   6.212  14.558  11.213
57644SOL    HW174706   6.291  14.590  11.257
57644SOL    HW274707   6.140  14.599  11.260
57645SOL     OW74708  10.945   3.051   1.912
57645SOL    HW174709  11.011   3.012   1.969
57645SOL    HW274710  10.870   3.066   1.969
57646SOL     OW74711  12.438   9.348   0.439
57646SOL    HW174712  12.372   9.417   0.434
57646SOL    HW274713  12.399   9.273   0.395
57647SOL     OW74714   1.930  14.257   5.494
57647SOL    HW174715   1.860  14.265   5.559
57647SOL    HW274716   1.896  14.303   5.417
57648SOL     OW74717  12.543  11.586   5.528
57648SOL    HW174718  12.573  11.635   5.605
57648SOL    HW274719  12.598  11.619   5.456
57649SOL     OW74720  13.055   0.142   4.607
57649SOL    HW174721  12.994   0.177   4.672
57649SOL    HW274722  13.107   0.218   4.581
57650SOL     OW74723   3.892   2.566  14.565
57650SOL    HW174724   3.884   2.524  14.479
57650SOL    HW274725   3.833   2.642  14.560
57651SOL     OW74726   0.852  11.458   0.349
57651SOL    HW174727   0.866  11.446   0.255
57651SOL    HW274728   0.764  11.424   0.365
57652SOL     OW74729  14.167   7.704  14.159
57652SOL    HW174730  14.214   7.749  14.089
57652SOL    HW274731  14.101   7.651  14.114
57653SOL     OW74732   2.332   4.823   3.772
57653SOL    HW174733   2.427   4.826   3.767
57653SOL    HW274734   2.302   4.823   3.681
57654SOL     OW74735   2.890   6.015  10.822
57654SOL    HW174736   2.980   5.984  10.815
57654SOL    HW274737   2.877   6.067  10.742
57655SOL     OW74738   6.248  11.232   8.302
57655SOL    HW174739   6.298  11.253   8.224
57655SOL    HW274740   6.262  11.306   8.361
57656SOL     OW74741   9.031   6.793  10.964
57656SOL    HW174742   9.059   6.705  10.939
57656SOL    HW274743   9.111   6.837  10.992
57657SOL     OW74744  12.683   1.346   9.913
57657SOL    HW174745  12.626   1.417   9.884
57657SOL    HW274746  12.626   1.269   9.916
57658SOL     OW74747   1.581   4.864   3.081
57658SOL    HW174748   1.615   4.775   3.077
57658SOL    HW274749   1.527   4.873   3.002
57659SOL     OW74750   3.022  14.569   5.392
57659SOL    HW174751   3.102  14.598   5.348
57659SOL    HW274752   3.028  14.607   5.479
57660SOL     OW74753   3.390   0.514   7.704
57660SOL    HW174754   3.396   0.497   7.610
57660SOL    HW274755   3.472   0.560   7.725
57661SOL     OW74756  13.923  10.515   0.282
57661SOL    HW174757  14.006  10.543   0.242
57661SOL    HW274758  13.874  10.474   0.210
57662SOL     OW74759   1.126   1.502   4.548
57662SOL    HW174760   1.071   1.498   4.470
57662SOL    HW274761   1.106   1.586   4.588
57663SOL     OW74762  12.451  13.156  13.971
57663SOL    HW174763  12.410  13.197  14.048
57663SOL    HW274764  12.378  13.136  13.913
57664SOL     OW74765   1.657   6.937  14.588
57664SOL    HW174766   1.730   6.927  14.649
57664SOL    HW274767   1.614   6.852  14.589
57665SOL     OW74768   7.185   4.450   9.608
57665SOL    HW174769   7.146   4.537   9.608
57665SOL    HW274770   7.235   4.445   9.527
57666SOL     OW74771   5.856   1.234  10.902
57666SOL    HW174772   5.907   1.154  10.913
57666SOL    HW274773   5.910   1.289  10.845
57667SOL     OW74774   6.675  10.061   9.234
57667SOL    HW174775   6.622  10.090   9.161
57667SOL    HW274776   6.726  10.138   9.259
57668SOL     OW74777  10.892   2.664   5.821
57668SOL    HW174778  10.903   2.581   5.868
57668SOL    HW274779  10.972   2.673   5.770
57669SOL     OW74780   9.748  10.850  12.674
57669SOL    HW174781   9.784  10.796  12.744
57669SOL    HW274782   9.665  10.809  12.652
57670SOL     OW74783  10.653   7.105   7.116
57670SOL    HW174784  10.604   7.084   7.037
57670SOL    HW274785  10.744   7.087   7.094
57671SOL     OW74786   5.920   9.414   3.603
57671SOL    HW174787   5.963   9.406   3.689
57671SOL    HW274788   5.856   9.344   3.602
57672SOL     OW74789   2.968   0.175  12.722
57672SOL    HW174790   2.976   0.268  12.745
57672SOL    HW274791   3.041   0.159  12.662
57673SOL     OW74792   3.102  10.291   5.025
57673SOL    HW174793   3.131  10.314   4.937
57673SOL    HW274794   3.115  10.372   5.076
57674SOL     OW74795  14.510   3.194   5.021
57674SOL    HW174796  14.588   3.151   4.987
57674SOL    HW274797  14.451   3.122   5.044
57675SOL     OW74798   1.512   6.070   5.333
57675SOL    HW174799   1.555   6.103   5.254
57675SOL    HW274800   1.564   6.106   5.405
57676SOL     OW74801  11.342   9.288   0.601
57676SOL    HW174802  11.323   9.380   0.579
57676SOL    HW274803  11.412   9.294   0.666
57677SOL     OW74804   0.858  12.077   5.297
57677SOL    HW174805   0.903  12.010   5.349
57677SOL    HW274806   0.899  12.072   5.211
57678SOL     OW74807   6.986  13.185   5.097
57678SOL    HW174808   7.036  13.222   5.025
57678SOL    HW274809   6.980  13.092   5.075
57679SOL     OW74810  11.594   3.792   1.845
57679SOL    HW174811  11.598   3.743   1.927
57679SOL    HW274812  11.649   3.742   1.784
57680SOL     OW74813  13.074   2.388  11.546
57680SOL    HW174814  13.045   2.459  11.489
57680SOL    HW274815  13.005   2.322  11.540
57681SOL     OW74816   7.840  10.031   2.374
57681SOL    HW174817   7.848  10.062   2.464
57681SOL    HW274818   7.746  10.020   2.361
57682SOL     OW74819   1.877   5.734   8.011
57682SOL    HW174820   1.937   5.778   8.071
57682SOL    HW274821   1.929   5.663   7.973
57683SOL     OW74822   8.756  14.879  10.284
57683SOL    HW174823   8.681  14.849  10.336
57683SOL    HW274824   8.734   0.088  10.261
57684SOL     OW74825   6.444   8.342   3.091
57684SOL    HW174826   6.453   8.420   3.146
57684SOL    HW274827   6.481   8.271   3.143
57685SOL     OW74828   7.984  13.180   4.666
57685SOL    HW174829   8.027  13.258   4.631
57685SOL    HW274830   8.043  13.149   4.734
57686SOL     OW74831   3.208  10.589   1.260
57686SOL    HW174832   3.184  10.654   1.194
57686SOL    HW274833   3.176  10.625   1.343
57687SOL     OW74834  12.939   9.812   1.728
57687SOL    HW174835  13.025   9.851   1.712
57687SOL    HW274836  12.904   9.861   1.803
57688SOL     OW74837  14.036  13.498  14.478
57688SOL    HW174838  14.072  13.420  14.437
57688SOL    HW274839  14.112  13.548  14.507
57689SOL     OW74840  12.787   6.434   9.135
57689SOL    HW174841  12.738   6.383   9.070
57689SOL    HW274842  12.839   6.369   9.182
57690SOL     OW74843   6.394   6.806   1.944
57690SOL    HW174844   6.373   6.899   1.932
57690SOL    HW274845   6.311   6.761   1.929
57691SOL     OW74846   6.156   1.498  10.487
57691SOL    HW174847   6.128   1.438  10.556
57691SOL    HW274848   6.183   1.440  10.416
57692SOL     OW74849   5.589   4.601   7.356
57692SOL    HW174850   5.673   4.556   7.352
57692SOL    HW274851   5.534   4.555   7.293
57693SOL     OW74852   7.008   6.241   7.026
57693SOL    HW174853   6.953   6.237   7.105
57693SOL    HW274854   6.952   6.206   6.957
57694SOL     OW74855  10.530  14.255   3.770
57694SOL    HW174856  10.544  14.253   3.676
57694SOL    HW274857  10.550  14.166   3.800
57695SOL     OW74858   0.381   8.175   5.029
57695SOL    HW174859   0.307   8.228   5.002
57695SOL    HW274860   0.456   8.235   5.027
57696SOL     OW74861  11.501  12.921  12.030
57696SOL    HW174862  11.500  12.993  12.093
57696SOL    HW274863  11.585  12.931  11.985
57697SOL     OW74864   7.010  12.362   1.464
57697SOL    HW174865   6.987  12.313   1.543
57697SOL    HW274866   6.992  12.453   1.487
57698SOL     OW74867  14.136   7.743   9.747
57698SOL    HW174868  14.157   7.830   9.713
57698SOL    HW274869  14.042   7.733   9.733
57699SOL     OW74870   8.428   0.951   2.649
57699SOL    HW174871   8.412   0.876   2.707
57699SOL    HW274872   8.382   0.928   2.568
57700SOL     OW74873  14.811   7.159   4.834
57700SOL    HW174874  14.799   7.131   4.925
57700SOL    HW274875   0.024   7.170   4.825
57701SOL     OW74876   3.033   9.854   4.949
57701SOL    HW174877   2.940   9.853   4.971
57701SOL    HW274878   3.054   9.762   4.932
57702SOL     OW74879   3.947   2.613  12.096
57702SOL    HW174880   3.871   2.560  12.073
57702SOL    HW274881   3.932   2.638  12.187
57703SOL     OW74882   0.763   3.257   3.178
57703SOL    HW174883   0.711   3.337   3.191
57703SOL    HW274884   0.854   3.285   3.189
57704SOL     OW74885   3.347  14.209   8.747
57704SOL    HW174886   3.435  14.174   8.760
57704SOL    HW274887   3.321  14.241   8.833
57705SOL     OW74888  12.949   8.761   0.938
57705SOL    HW174889  12.870   8.736   0.986
57705SOL    HW274890  13.021   8.742   0.998
57706SOL     OW74891  13.387  14.611   8.425
57706SOL    HW174892  13.304  14.591   8.382
57706SOL    HW274893  13.453  14.598   8.356
57707SOL     OW74894   7.119   2.271   5.408
57707SOL    HW174895   7.209   2.255   5.380
57707SOL    HW274896   7.081   2.184   5.416
57708SOL     OW74897   3.906  11.488   4.442
57708SOL    HW174898   4.002  11.485   4.447
57708SOL    HW274899   3.878  11.508   4.531
57709SOL     OW74900   4.485   6.805   7.700
57709SOL    HW174901   4.579   6.817   7.685
57709SOL    HW274902   4.480   6.728   7.758
57710SOL     OW74903  11.426   3.742   2.930
57710SOL    HW174904  11.397   3.805   2.864
57710SOL    HW274905  11.365   3.669   2.921
57711SOL     OW74906   6.468   2.073  13.975
57711SOL    HW174907   6.392   2.129  13.961
57711SOL    HW274908   6.518   2.117  14.044
57712SOL     OW74909   7.464  14.493   9.241
57712SOL    HW174910   7.442  14.579   9.207
57712SOL    HW274911   7.553  14.503   9.276
57713SOL     OW74912   1.247   8.107   2.058
57713SOL    HW174913   1.307   8.144   2.123
57713SOL    HW274914   1.166   8.090   2.106
57714SOL     OW74915  13.897   6.794   1.822
57714SOL    HW174916  13.941   6.879   1.817
57714SOL    HW274917  13.946   6.738   1.761
57715SOL     OW74918   0.080   8.074  11.675
57715SOL    HW174919   0.139   8.007  11.709
57715SOL    HW274920  14.874   8.044  11.701
57716SOL     OW74921   9.835  12.101   9.246
57716SOL    HW174922   9.840  12.185   9.292
57716SOL    HW274923   9.860  12.122   9.156
57717SOL     OW74924   6.923   2.240   2.094
57717SOL    HW174925   6.976   2.223   2.172
57717SOL    HW274926   6.881   2.156   2.075
57718SOL     OW74927   0.215   8.143  11.109
57718SOL    HW174928   0.177   8.140  11.197
57718SOL    HW274929   0.151   8.193  11.058
57719SOL     OW74930  10.465   7.949   0.218
57719SOL    HW174931  10.524   7.953   0.143
57719SOL    HW274932  10.521   7.922   0.291
57720SOL     OW74933  13.197   6.348   6.611
57720SOL    HW174934  13.197   6.442   6.592
57720SOL    HW274935  13.129   6.312   6.554
57721SOL     OW74936   7.863   1.795  13.440
57721SOL    HW174937   7.944   1.830  13.477
57721SOL    HW274938   7.857   1.837  13.354
57722SOL     OW74939   6.788  10.366   8.953
57722SOL    HW174940   6.738  10.441   8.985
57722SOL    HW274941   6.800  10.383   8.860
57723SOL     OW74942   1.395   8.491  14.601
57723SOL    HW174943   1.401   8.573  14.650
57723SOL    HW274944   1.322   8.505  14.540
57724SOL     OW74945  12.913   2.120   4.462
57724SOL    HW174946  12.832   2.069   4.467
57724SOL    HW274947  12.888   2.201   4.417
57725SOL     OW74948   8.778   8.936   8.702
57725SOL    HW174949   8.688   8.964   8.682
57725SOL    HW274950   8.798   8.978   8.786
57726SOL     OW74951   8.821   2.576  13.918
57726SOL    HW174952   8.742   2.523  13.909
57726SOL    HW274953   8.813   2.643  13.850
57727SOL     OW74954  10.619   4.514   0.906
57727SOL    HW174955  10.612   4.432   0.955
57727SOL    HW274956  10.581   4.580   0.964
57728SOL     OW74957  14.206   0.250   1.406
57728SOL    HW174958  14.191   0.277   1.315
57728SOL    HW274959  14.151   0.172   1.417
57729SOL     OW74960   5.109  14.064   3.255
57729SOL    HW174961   5.086  14.093   3.167
57729SOL    HW274962   5.102  13.969   3.252
57730SOL     OW74963   0.652   6.476   3.467
57730SOL    HW174964   0.566   6.474   3.510
57730SOL    HW274965   0.706   6.530   3.525
57731SOL     OW74966   1.489  11.363   6.440
57731SOL    HW174967   1.450  11.350   6.354
57731SOL    HW274968   1.445  11.299   6.496
57732SOL     OW74969   9.694   8.188   3.670
57732SOL    HW174970   9.692   8.093   3.656
57732SOL    HW274971   9.614   8.206   3.720
57733SOL     OW74972   4.395   5.781  13.466
57733SOL    HW174973   4.310   5.814  13.437
57733SOL    HW274974   4.409   5.823  13.551
57734SOL     OW74975   0.461   6.558   7.002
57734SOL    HW174976   0.510   6.514   6.932
57734SOL    HW274977   0.524   6.568   7.073
57735SOL     OW74978  11.582   0.425  10.576
57735SOL    HW174979  11.615   0.342  10.540
57735SOL    HW274980  11.525   0.460  10.508
57736SOL     OW74981  11.681   1.392   3.665
57736SOL    HW174982  11.748   1.375   3.731
57736SOL    HW274983  11.701   1.330   3.595
57737SOL     OW74984   9.463  11.268   0.077
57737SOL    HW174985   9.390  11.213   0.107
57737SOL    HW274986   9.433  11.357   0.095
57738SOL     OW74987   9.625  12.809   4.015
57738SOL    HW174988   9.665  12.765   4.090
57738SOL    HW274989   9.583  12.740   3.965
57739SOL     OW74990  10.427   4.983   8.020
57739SOL    HW174991  10.361   4.978   8.089
57739SOL    HW274992  10.504   5.020   8.064
57740SOL     OW74993   3.457  11.014   2.488
57740SOL    HW174994   3.392  10.976   2.548
57740SOL    HW274995   3.436  11.107   2.487
57741SOL     OW74996  10.834   3.813   6.484
57741SOL    HW174997  10.874   3.736   6.525
57741SOL    HW274998  10.903   3.848   6.428
57742SOL     OW74999   2.930   9.870  14.269
57742SOL    HW175000   2.863   9.927  14.305
57742SOL    HW275001   2.977   9.924  14.205
57743SOL     OW75002  14.585   0.146  14.598
57743SOL    HW175003  14.679   0.127  14.603
57743SOL    HW275004  14.549   0.075  14.545
57744SOL     OW75005   0.619  12.571   8.879
57744SOL    HW175006   0.602  12.634   8.949
57744SOL    HW275007   0.560  12.498   8.896
57745SOL     OW75008   2.976   3.189   8.124
57745SOL    HW175009   2.944   3.158   8.208
57745SOL    HW275010   2.994   3.282   8.138
57746SOL     OW75011   1.420   4.742   5.313
57746SOL    HW175012   1.393   4.692   5.390
57746SOL    HW275013   1.438   4.830   5.346
57747SOL     OW75014   5.142   0.888   6.206
57747SOL    HW175015   5.217   0.928   6.250
57747SOL    HW275016   5.084   0.859   6.277
57748SOL     OW75017   0.033   7.930   4.882
57748SOL    HW175018   0.077   7.860   4.929
57748SOL    HW275019   0.103   7.978   4.839
57749SOL     OW75020   8.908   1.978   5.726
57749SOL    HW175021   8.884   2.039   5.797
57749SOL    HW275022   9.003   1.986   5.718
57750SOL     OW75023   9.538   8.750   8.557
57750SOL    HW175024   9.443   8.756   8.565
57750SOL    HW275025   9.553   8.662   8.524
57751SOL     OW75026   2.353  10.967   1.768
57751SOL    HW175027   2.293  10.961   1.842
57751SOL    HW275028   2.381  11.059   1.768
57752SOL     OW75029  14.490  12.534   0.555
57752SOL    HW175030  14.532  12.460   0.599
57752SOL    HW275031  14.488  12.509   0.463
57753SOL     OW75032   0.329  10.721   6.551
57753SOL    HW175033   0.273  10.799   6.546
57753SOL    HW275034   0.381  10.734   6.630
57754SOL     OW75035  12.027  14.123  11.960
57754SOL    HW175036  12.060  14.200  12.007
57754SOL    HW275037  11.992  14.067  12.029
57755SOL     OW75038  11.997   8.577   1.962
57755SOL    HW175039  11.950   8.498   1.936
57755SOL    HW275040  12.031   8.613   1.880
57756SOL     OW75041  11.781   1.123  12.101
57756SOL    HW175042  11.802   1.031  12.119
57756SOL    HW275043  11.691   1.121  12.068
57757SOL     OW75044   7.385  12.380   0.828
57757SOL    HW175045   7.390  12.473   0.852
57757SOL    HW275046   7.467  12.363   0.781
57758SOL     OW75047  10.812  10.971   6.826
57758SOL    HW175048  10.754  11.011   6.761
57758SOL    HW275049  10.900  10.989   6.794
57759SOL     OW75050   6.719   9.185   0.893
57759SOL    HW175051   6.674   9.136   0.824
57759SOL    HW275052   6.722   9.125   0.967
57760SOL     OW75053   3.546   4.400  10.369
57760SOL    HW175054   3.532   4.489  10.401
57760SOL    HW275055   3.597   4.411  10.288
57761SOL     OW75056   9.485   8.753  14.180
57761SOL    HW175057   9.531   8.738  14.098
57761SOL    HW275058   9.497   8.846  14.198
57762SOL     OW75059   1.747  12.105   8.503
57762SOL    HW175060   1.671  12.049   8.484
57762SOL    HW275061   1.822  12.048   8.489
57763SOL     OW75062   1.510  12.264   1.958
57763SOL    HW175063   1.430  12.235   2.002
57763SOL    HW275064   1.551  12.324   2.020
57764SOL     OW75065   7.927   8.059   0.077
57764SOL    HW175066   7.888   8.084   0.161
57764SOL    HW275067   7.935   8.142   0.030
57765SOL     OW75068   8.343   2.996  12.950
57765SOL    HW175069   8.349   3.000  13.045
57765SOL    HW275070   8.386   3.076  12.919
57766SOL     OW75071   1.064   9.296   6.781
57766SOL    HW175072   1.104   9.367   6.732
57766SOL    HW275073   1.120   9.285   6.858
57767SOL     OW75074   7.357   2.614  12.297
57767SOL    HW175075   7.413   2.544  12.263
57767SOL    HW275076   7.273   2.572  12.314
57768SOL     OW75077  12.765   8.237   8.253
57768SOL    HW175078  12.748   8.213   8.162
57768SOL    HW275079  12.739   8.159   8.303
57769SOL     OW75080  11.259   2.581   6.096
57769SOL    HW175081  11.339   2.559   6.048
57769SOL    HW275082  11.254   2.514   6.165
57770SOL     OW75083   4.186  10.883   4.720
57770SOL    HW175084   4.249  10.857   4.653
57770SOL    HW275085   4.204  10.976   4.735
57771SOL     OW75086  14.822  14.576   6.311
57771SOL    HW175087  14.781  14.621   6.238
57771SOL    HW275088  14.750  14.543   6.364
57772SOL     OW75089   4.259  10.316   3.141
57772SOL    HW175090   4.312  10.364   3.077
57772SOL    HW275091   4.170  10.346   3.126
57773SOL     OW75092   1.774  10.790  12.885
57773SOL    HW175093   1.850  10.773  12.940
57773SOL    HW275094   1.762  10.885  12.889
57774SOL     OW75095   9.455   8.122   5.687
57774SOL    HW175096   9.502   8.139   5.605
57774SOL    HW275097   9.485   8.035   5.714
57775SOL     OW75098   3.949   9.201  13.085
57775SOL    HW175099   3.994   9.267  13.033
57775SOL    HW275100   3.870   9.245  13.117
57776SOL     OW75101   4.139   3.443   3.557
57776SOL    HW175102   4.191   3.517   3.526
57776SOL    HW275103   4.121   3.464   3.649
57777SOL     OW75104  14.167   3.508   5.996
57777SOL    HW175105  14.253   3.468   5.981
57777SOL    HW275106  14.186   3.597   6.025
57778SOL     OW75107   0.456  14.536   3.386
57778SOL    HW175108   0.409  14.543   3.303
57778SOL    HW275109   0.389  14.551   3.453
57779SOL     OW75110  11.563  14.040   8.345
57779SOL    HW175111  11.551  13.952   8.382
57779SOL    HW275112  11.512  14.039   8.264
57780SOL     OW75113   8.027   5.182  12.012
57780SOL    HW175114   8.106   5.234  12.024
57780SOL    HW275115   7.957   5.247  12.002
57781SOL     OW75116  10.098   3.737  10.538
57781SOL    HW175117  10.004   3.733  10.552
57781SOL    HW275118  10.116   3.666  10.476
57782SOL     OW75119   4.188   4.758  11.849
57782SOL    HW175120   4.152   4.835  11.892
57782SOL    HW275121   4.283   4.772  11.850
57783SOL     OW75122   2.317  13.267   1.310
57783SOL    HW175123   2.362  13.284   1.227
57783SOL    HW275124   2.367  13.314   1.376
57784SOL     OW75125   0.162   5.780  10.427
57784SOL    HW175126   0.177   5.843  10.497
57784SOL    HW275127   0.248   5.766  10.387
57785SOL     OW75128   9.168   9.470   3.610
57785SOL    HW175129   9.073   9.463   3.601
57785SOL    HW275130   9.181   9.495   3.701
57786SOL     OW75131   2.953   9.395  13.373
57786SOL    HW175132   2.915   9.311  13.400
57786SOL    HW275133   2.878   9.449  13.349
57787SOL     OW75134   6.815   6.212  13.556
57787SOL    HW175135   6.742   6.249  13.507
57787SOL    HW275136   6.865   6.288  13.585
57788SOL     OW75137   6.938   3.884   6.376
57788SOL    HW175138   6.886   3.844   6.445
57788SOL    HW275139   7.025   3.894   6.414
57789SOL     OW75140  14.435   8.412   9.001
57789SOL    HW175141  14.501   8.347   8.974
57789SOL    HW275142  14.456   8.429   9.093
57790SOL     OW75143  12.622   3.972  12.519
57790SOL    HW175144  12.528   3.992  12.521
57790SOL    HW275145  12.662   4.043  12.570
57791SOL     OW75146   8.080  14.670   8.693
57791SOL    HW175147   8.149  14.732   8.670
57791SOL    HW275148   8.077  14.609   8.620
57792SOL     OW75149  11.682   9.538  13.070
57792SOL    HW175150  11.691   9.478  12.996
57792SOL    HW275151  11.599   9.583  13.055
57793SOL     OW75152  11.538   1.686   5.882
57793SOL    HW175153  11.462   1.628   5.891
57793SOL    HW275154  11.584   1.652   5.805
57794SOL     OW75155   1.274   2.760   9.263
57794SOL    HW175156   1.314   2.841   9.295
57794SOL    HW275157   1.184   2.764   9.294
57795SOL     OW75158   9.410  14.054  11.950
57795SOL    HW175159   9.335  14.112  11.962
57795SOL    HW275160   9.473  14.106  11.900
57796SOL     OW75161   0.062  10.716   3.146
57796SOL    HW175162   0.044  10.629   3.110
57796SOL    HW275163   0.040  10.709   3.238
57797SOL     OW75164   4.501   0.225   8.641
57797SOL    HW175165   4.427   0.285   8.647
57797SOL    HW275166   4.558   0.264   8.575
57798SOL     OW75167  12.702   1.231   0.264
57798SOL    HW175168  12.652   1.189   0.333
57798SOL    HW275169  12.681   1.182   0.185
57799SOL     OW75170   3.618   9.155   5.011
57799SOL    HW175171   3.597   9.069   4.975
57799SOL    HW275172   3.549   9.173   5.074
57800SOL     OW75173   4.096   9.490   1.840
57800SOL    HW175174   4.096   9.466   1.747
57800SOL    HW275175   4.121   9.410   1.886
57801SOL     OW75176  14.383  10.735  12.555
57801SOL    HW175177  14.296  10.694  12.550
57801SOL    HW275178  14.442  10.667  12.523
57802SOL     OW75179   8.501  13.042   5.584
57802SOL    HW175180   8.551  13.099   5.526
57802SOL    HW275181   8.433  13.005   5.527
57803SOL     OW75182  10.850  11.834   1.835
57803SOL    HW175183  10.916  11.848   1.903
57803SOL    HW275184  10.806  11.753   1.861
57804SOL     OW75185   4.905  12.072  10.313
57804SOL    HW175186   4.859  12.080  10.397
57804SOL    HW275187   4.994  12.102  10.332
57805SOL     OW75188  12.785   8.003   6.602
57805SOL    HW175189  12.762   7.914   6.575
57805SOL    HW275190  12.854   8.030   6.541
57806SOL     OW75191  12.206   7.524   2.460
57806SOL    HW175192  12.219   7.561   2.372
57806SOL    HW275193  12.167   7.596   2.510
57807SOL     OW75194   8.215   5.978   0.743
57807SOL    HW175195   8.274   6.003   0.813
57807SOL    HW275196   8.221   6.049   0.679
57808SOL     OW75197   2.879   8.410   4.001
57808SOL    HW175198   2.952   8.469   3.982
57808SOL    HW275199   2.810   8.468   4.032
57809SOL     OW75200   2.611  11.929   5.706
57809SOL    HW175201   2.581  12.015   5.676
57809SOL    HW275202   2.531  11.879   5.721
57810SOL     OW75203  14.489  10.172  10.869
57810SOL    HW175204  14.571  10.221  10.869
57810SOL    HW275205  14.437  10.213  10.939
57811SOL     OW75206  12.726  10.739   8.252
57811SOL    HW175207  12.648  10.790   8.233
57811SOL    HW275208  12.795  10.804   8.266
57812SOL     OW75209   2.472   2.954   6.385
57812SOL    HW175210   2.528   3.018   6.340
57812SOL    HW275211   2.454   2.994   6.470
57813SOL     OW75212  13.510  11.940  14.393
57813SOL    HW175213  13.561  11.952  14.313
57813SOL    HW275214  13.490  12.030  14.422
57814SOL     OW75215   9.967   3.823   7.435
57814SOL    HW175216   9.879   3.786   7.446
57814SOL    HW275217   9.956   3.890   7.367
57815SOL     OW75218  12.194   2.870   3.525
57815SOL    HW175219  12.187   2.791   3.472
57815SOL    HW275220  12.128   2.929   3.489
57816SOL     OW75221   3.506   9.249   7.320
57816SOL    HW175222   3.561   9.176   7.294
57816SOL    HW275223   3.472   9.225   7.406
57817SOL     OW75224   8.829   5.977   2.477
57817SOL    HW175225   8.739   5.949   2.493
57817SOL    HW275226   8.877   5.896   2.459
57818SOL     OW75227   6.625  10.944  10.918
57818SOL    HW175228   6.530  10.957  10.911
57818SOL    HW275229   6.635  10.849  10.930
57819SOL     OW75230   8.300  10.921   0.168
57819SOL    HW175231   8.325  10.988   0.232
57819SOL    HW275232   8.240  10.864   0.215
57820SOL     OW75233  13.520  13.066   9.445
57820SOL    HW175234  13.507  12.986   9.496
57820SOL    HW275235  13.587  13.043   9.380
57821SOL     OW75236   7.713   5.911  11.420
57821SOL    HW175237   7.694   5.843  11.355
57821SOL    HW275238   7.665   5.884  11.498
57822SOL     OW75239  13.882   3.057  10.439
57822SOL    HW175240  13.903   3.034  10.349
57822SOL    HW275241  13.948   3.012  10.491
57823SOL     OW75242   4.831   2.293   0.139
57823SOL    HW175243   4.831   2.379   0.182
57823SOL    HW275244   4.770   2.304   0.066
57824SOL     OW75245  14.556  14.459  11.820
57824SOL    HW175246  14.485  14.449  11.757
57824SOL    HW275247  14.634  14.473  11.767
57825SOL     OW75248  14.198   6.535   2.824
57825SOL    HW175249  14.278   6.578   2.853
57825SOL    HW275250  14.155   6.507   2.905
57826SOL     OW75251   3.592   2.082   5.603
57826SOL    HW175252   3.636   2.037   5.530
57826SOL    HW275253   3.619   2.033   5.681
57827SOL     OW75254   4.366  14.719  12.936
57827SOL    HW175255   4.323  14.650  12.987
57827SOL    HW275256   4.299  14.786  12.925
57828SOL     OW75257  13.817  14.112  13.270
57828SOL    HW175258  13.745  14.091  13.211
57828SOL    HW275259  13.871  14.032  13.271
57829SOL     OW75260   8.827   3.860   4.055
57829SOL    HW175261   8.777   3.940   4.071
57829SOL    HW275262   8.902   3.888   4.003
57830SOL     OW75263  12.031  12.022   5.461
57830SOL    HW175264  12.112  12.072   5.447
57830SOL    HW275265  12.061  11.932   5.478
57831SOL     OW75266   2.420   5.321  14.843
57831SOL    HW175267   2.445   5.387   0.026
57831SOL    HW275268   2.451   5.357  14.760
57832SOL     OW75269   8.075   5.396   8.166
57832SOL    HW175270   8.090   5.466   8.231
57832SOL    HW275271   7.980   5.399   8.151
57833SOL     OW75272  14.513   9.090   0.747
57833SOL    HW175273  14.566   9.013   0.766
57833SOL    HW275274  14.565   9.140   0.684
57834SOL     OW75275  11.442   7.710   9.218
57834SOL    HW175276  11.374   7.656   9.257
57834SOL    HW275277  11.396   7.768   9.158
57835SOL     OW75278   2.720   3.851   7.541
57835SOL    HW175279   2.759   3.874   7.457
57835SOL    HW275280   2.732   3.757   7.548
57836SOL     OW75281   9.531   7.846   5.294
57836SOL    HW175282   9.586   7.851   5.373
57836SOL    HW275283   9.512   7.937   5.272
57837SOL     OW75284   2.330  12.047   5.927
57837SOL    HW175285   2.323  12.103   5.849
57837SOL    HW275286   2.355  11.961   5.893
57838SOL     OW75287  10.018   4.823  10.829
57838SOL    HW175288  10.063   4.888  10.776
57838SOL    HW275289   9.932   4.860  10.846
57839SOL     OW75290   3.751   7.066   3.456
57839SOL    HW175291   3.738   7.123   3.380
57839SOL    HW275292   3.673   7.078   3.510
57840SOL     OW75293   2.392   9.753  10.496
57840SOL    HW175294   2.415   9.660  10.489
57840SOL    HW275295   2.320   9.755  10.560
57841SOL     OW75296   1.661   9.027   0.709
57841SOL    HW175297   1.655   8.947   0.657
57841SOL    HW275298   1.724   9.007   0.778
57842SOL     OW75299  14.422   3.805   1.005
57842SOL    HW175300  14.330   3.792   1.025
57842SOL    HW275301  14.455   3.858   1.078
57843SOL     OW75302   3.895   1.590   2.980
57843SOL    HW175303   3.919   1.549   3.063
57843SOL    HW275304   3.938   1.537   2.913
57844SOL     OW75305   2.208  12.913   4.480
57844SOL    HW175306   2.263  12.939   4.554
57844SOL    HW275307   2.252  12.949   4.403
57845SOL     OW75308  13.875   0.648   3.847
57845SOL    HW175309  13.841   0.734   3.872
57845SOL    HW275310  13.956   0.639   3.898
57846SOL     OW75311  11.051  13.356   1.061
57846SOL    HW175312  10.969  13.330   1.104
57846SOL    HW275313  11.044  13.319   0.973
57847SOL     OW75314   0.259   4.191  11.484
57847SOL    HW175315   0.334   4.147  11.524
57847SOL    HW275316   0.220   4.124  11.427
57848SOL     OW75317   2.482   8.690   9.377
57848SOL    HW175318   2.394   8.652   9.373
57848SOL    HW275319   2.538   8.617   9.401
57849SOL     OW75320  13.210   1.832  13.564
57849SOL    HW175321  13.239   1.911  13.518
57849SOL    HW275322  13.286   1.774  13.561
57850SOL     OW75323   1.914   5.195   2.389
57850SOL    HW175324   1.989   5.174   2.334
57850SOL    HW275325   1.885   5.281   2.358
57851SOL     OW75326   8.841   0.389   9.556
57851SOL    HW175327   8.908   0.439   9.509
57851SOL    HW275328   8.866   0.396   9.648
57852SOL     OW75329  14.166  12.403   2.826
57852SOL    HW175330  14.248  12.381   2.783
57852SOL    HW275331  14.151  12.332   2.888
57853SOL     OW75332   2.261   2.736   0.298
57853SOL    HW175333   2.287   2.828   0.300
57853SOL    HW275334   2.285   2.702   0.384
57854SOL     OW75335  14.646   1.744   6.145
57854SOL    HW175336  14.558   1.723   6.177
57854SOL    HW275337  14.654   1.839   6.156
57855SOL     OW75338   3.497   4.151   7.402
57855SOL    HW175339   3.588   4.179   7.402
57855SOL    HW275340   3.495   4.076   7.342
57856SOL     OW75341   8.790  14.319  14.294
57856SOL    HW175342   8.812  14.227  14.281
57856SOL    HW275343   8.715  14.334  14.236
57857SOL     OW75344  13.413  12.269  14.147
57857SOL    HW175345  13.349  12.293  14.214
57857SOL    HW275346  13.436  12.351  14.105
57858SOL     OW75347   7.497   7.986   4.896
57858SOL    HW175348   7.535   8.042   4.963
57858SOL    HW275349   7.497   8.039   4.816
57859SOL     OW75350   4.853   0.939   1.563
57859SOL    HW175351   4.945   0.912   1.573
57859SOL    HW275352   4.846   0.963   1.470
57860SOL     OW75353   8.856   4.351  13.932
57860SOL    HW175354   8.873   4.431  13.882
57860SOL    HW275355   8.764   4.356  13.955
57861SOL     OW75356   8.703   8.403  11.820
57861SOL    HW175357   8.668   8.386  11.733
57861SOL    HW275358   8.680   8.325  11.871
57862SOL     OW75359  13.056   4.970  12.107
57862SOL    HW175360  13.078   4.977  12.014
57862SOL    HW275361  13.033   5.059  12.133
57863SOL     OW75362  14.484  10.327   2.327
57863SOL    HW175363  14.541  10.334   2.250
57863SOL    HW275364  14.456  10.417   2.344
57864SOL     OW75365   7.026  13.797  12.768
57864SOL    HW175366   7.105  13.829  12.811
57864SOL    HW275367   6.961  13.789  12.838
57865SOL     OW75368   6.042   5.917  10.203
57865SOL    HW175369   6.114   5.923  10.266
57865SOL    HW275370   6.086   5.900  10.119
57866SOL     OW75371   8.312  11.452   8.729
57866SOL    HW175372   8.326  11.374   8.783
57866SOL    HW275373   8.221  11.476   8.745
57867SOL     OW75374   8.231   5.958   8.744
57867SOL    HW175375   8.304   5.920   8.794
57867SOL    HW275376   8.171   5.992   8.810
57868SOL     OW75377  13.223  12.305   5.235
57868SOL    HW175378  13.211  12.372   5.168
57868SOL    HW275379  13.303  12.259   5.209
57869SOL     OW75380  13.803   9.054   9.836
57869SOL    HW175381  13.709   9.058   9.852
57869SOL    HW275382  13.812   9.069   9.741
57870SOL     OW75383   4.816   3.229   1.818
57870SOL    HW175384   4.870   3.158   1.784
57870SOL    HW275385   4.760   3.186   1.884
57871SOL     OW75386   7.771   3.828  13.342
57871SOL    HW175387   7.803   3.798  13.427
57871SOL    HW275388   7.695   3.882  13.362
57872SOL     OW75389  10.270  14.265   1.936
57872SOL    HW175390  10.302  14.175   1.945
57872SOL    HW275391  10.342  14.312   1.894
57873SOL     OW75392   6.579   0.625   7.684
57873SOL    HW175393   6.583   0.578   7.767
57873SOL    HW275394   6.671   0.632   7.657
57874SOL     OW75395   0.793   1.498  11.402
57874SOL    HW175396   0.840   1.549  11.336
57874SOL    HW275397   0.720   1.458  11.355
57875SOL     OW75398  11.269   3.426  14.852
57875SOL    HW175399  11.316   3.350   0.004
57875SOL    HW275400  11.264   3.486   0.046
57876SOL     OW75401  10.509   6.393   0.066
57876SOL    HW175402  10.473   6.335   0.133
57876SOL    HW275403  10.602   6.373   0.065
57877SOL     OW75404   5.066  11.058   4.817
57877SOL    HW175405   5.028  10.981   4.773
57877SOL    HW275406   5.075  11.123   4.747
57878SOL     OW75407   8.440   1.131   9.593
57878SOL    HW175408   8.527   1.160   9.622
57878SOL    HW275409   8.387   1.133   9.673
57879SOL     OW75410   9.836   2.950   6.434
57879SOL    HW175411   9.816   2.862   6.400
57879SOL    HW275412   9.774   2.963   6.506
57880SOL     OW75413   3.593   9.975   8.097
57880SOL    HW175414   3.656   9.959   8.027
57880SOL    HW275415   3.639  10.032   8.159
57881SOL     OW75416   3.026   5.370  11.008
57881SOL    HW175417   3.013   5.406  10.919
57881SOL    HW275418   3.068   5.442  11.056
57882SOL     OW75419  11.255  12.613   3.600
57882SOL    HW175420  11.215  12.698   3.619
57882SOL    HW275421  11.181  12.558   3.574
57883SOL     OW75422   0.927   8.482   5.881
57883SOL    HW175423   0.944   8.549   5.815
57883SOL    HW275424   0.832   8.470   5.880
57884SOL     OW75425   7.622   6.669   3.398
57884SOL    HW175426   7.686   6.740   3.394
57884SOL    HW275427   7.546   6.702   3.352
57885SOL     OW75428   2.073   5.451   2.896
57885SOL    HW175429   2.056   5.386   2.828
57885SOL    HW275430   2.004   5.517   2.885
57886SOL     OW75431   3.133   8.801   6.776
57886SOL    HW175432   3.070   8.837   6.839
57886SOL    HW275433   3.112   8.708   6.773
57887SOL     OW75434  13.896   8.759  13.208
57887SOL    HW175435  13.866   8.681  13.253
57887SOL    HW275436  13.910   8.731  13.117
57888SOL     OW75437   9.496  10.297  13.619
57888SOL    HW175438   9.587  10.284  13.590
57888SOL    HW275439   9.487  10.392  13.624
57889SOL     OW75440  13.162   7.208   2.674
57889SOL    HW175441  13.118   7.283   2.634
57889SOL    HW275442  13.255   7.230   2.671
57890SOL     OW75443   5.043   3.440  12.798
57890SOL    HW175444   5.058   3.534  12.808
57890SOL    HW275445   5.130   3.402  12.791
57891SOL     OW75446   7.961   6.064   8.835
57891SOL    HW175447   7.886   6.022   8.878
57891SOL    HW275448   7.935   6.071   8.744
57892SOL     OW75449   0.740   2.955  12.200
57892SOL    HW175450   0.734   2.862  12.179
57892SOL    HW275451   0.668   2.995  12.151
57893SOL     OW75452   5.104  12.613   6.888
57893SOL    HW175453   5.040  12.556   6.931
57893SOL    HW275454   5.053  12.661   6.823
57894SOL     OW75455   4.953   9.639   2.730
57894SOL    HW175456   5.019   9.709   2.736
57894SOL    HW275457   4.918   9.632   2.818
57895SOL     OW75458   9.285   8.492   0.841
57895SOL    HW175459   9.369   8.450   0.861
57895SOL    HW275460   9.247   8.437   0.772
57896SOL     OW75461  10.666   2.183  13.858
57896SOL    HW175462  10.652   2.256  13.796
57896SOL    HW275463  10.600   2.119  13.833
57897SOL     OW75464   1.927   2.299   9.351
57897SOL    HW175465   1.909   2.376   9.296
57897SOL    HW275466   1.975   2.333   9.426
57898SOL     OW75467   2.255   3.914   8.649
57898SOL    HW175468   2.188   3.878   8.707
57898SOL    HW275469   2.319   3.844   8.640
57899SOL     OW75470  14.446   8.020   6.035
57899SOL    HW175471  14.397   7.951   5.991
57899SOL    HW275472  14.454   7.990   6.126
57900SOL     OW75473   1.437   9.814   7.874
57900SOL    HW175474   1.489   9.817   7.794
57900SOL    HW275475   1.398   9.901   7.880
57901SOL     OW75476   4.172   5.146   6.898
57901SOL    HW175477   4.159   5.166   6.990
57901SOL    HW275478   4.162   5.051   6.892
57902SOL     OW75479   8.651  12.701  11.001
57902SOL    HW175480   8.676  12.696  10.909
57902SOL    HW275481   8.732  12.721  11.047
57903SOL     OW75482   5.966   5.436   3.120
57903SOL    HW175483   6.011   5.481   3.049
57903SOL    HW275484   6.021   5.360   3.139
57904SOL     OW75485  13.338  10.455   0.688
57904SOL    HW175486  13.345  10.375   0.740
57904SOL    HW275487  13.268  10.505   0.730
57905SOL     OW75488  11.161   7.905   5.715
57905SOL    HW175489  11.113   7.973   5.668
57905SOL    HW275490  11.095   7.839   5.736
57906SOL     OW75491   0.552   7.361  14.216
57906SOL    HW175492   0.545   7.386  14.124
57906SOL    HW275493   0.530   7.441  14.264
57907SOL     OW75494   4.350   7.299   3.604
57907SOL    HW175495   4.282   7.340   3.658
57907SOL    HW275496   4.432   7.336   3.637
57908SOL     OW75497   7.897  10.059   9.571
57908SOL    HW175498   7.892  10.148   9.606
57908SOL    HW275499   7.824  10.054   9.509
57909SOL     OW75500   2.400   7.287   1.816
57909SOL    HW175501   2.328   7.344   1.843
57909SOL    HW275502   2.435   7.253   1.898
57910SOL     OW75503  10.603   4.675  11.681
57910SOL    HW175504  10.589   4.661  11.588
57910SOL    HW275505  10.689   4.717  11.687
57911SOL     OW75506  13.021   0.319   4.317
57911SOL    HW175507  13.083   0.352   4.383
57911SOL    HW275508  13.073   0.263   4.261
57912SOL     OW75509   4.973  12.985   3.897
57912SOL    HW175510   4.945  13.044   3.827
57912SOL    HW275511   5.037  12.927   3.856
57913SOL     OW75512   1.224   9.429   5.790
57913SOL    HW175513   1.135   9.461   5.777
57913SOL    HW275514   1.223   9.390   5.877
57914SOL     OW75515   7.011   5.439   8.818
57914SOL    HW175516   7.028   5.393   8.900
57914SOL    HW275517   6.978   5.370   8.760
57915SOL     OW75518   9.206  14.307  14.062
57915SOL    HW175519   9.270  14.268  14.122
57915SOL    HW275520   9.171  14.232  14.013
57916SOL     OW75521   3.745   3.084   7.892
57916SOL    HW175522   3.732   3.151   7.959
57916SOL    HW275523   3.836   3.095   7.864
57917SOL     OW75524   9.190  10.772  10.671
57917SOL    HW175525   9.146  10.845  10.716
57917SOL    HW275526   9.275  10.765  10.715
57918SOL     OW75527  13.778   4.528   8.684
57918SOL    HW175528  13.811   4.603   8.733
57918SOL    HW275529  13.813   4.451   8.729
57919SOL     OW75530  12.416  12.610   6.324
57919SOL    HW175531  12.367  12.693   6.330
57919SOL    HW275532  12.411  12.573   6.412
57920SOL     OW75533   2.798   4.855   7.754
57920SOL    HW175534   2.726   4.873   7.816
57920SOL    HW275535   2.811   4.760   7.760
57921SOL     OW75536   3.179   0.371  14.783
57921SOL    HW175537   3.263   0.367  14.827
57921SOL    HW275538   3.114   0.367  14.854
57922SOL     OW75539   4.538   0.930   9.536
57922SOL    HW175540   4.625   0.965   9.516
57922SOL    HW275541   4.484   1.007   9.551
57923SOL     OW75542   7.114   0.428   0.837
57923SOL    HW175543   7.105   0.351   0.893
57923SOL    HW275544   7.081   0.400   0.752
57924SOL     OW75545  10.365   0.193   1.957
57924SOL    HW175546  10.407   0.112   1.987
57924SOL    HW275547  10.437   0.244   1.919
57925SOL     OW75548  14.157   7.897  12.710
57925SOL    HW175549  14.203   7.912  12.792
57925SOL    HW275550  14.110   7.978  12.694
57926SOL     OW75551   0.354  12.906   5.427
57926SOL    HW175552   0.290  12.929   5.494
57926SOL    HW275553   0.428  12.870   5.475
57927SOL     OW75554   6.092   8.510  13.232
57927SOL    HW175555   6.160   8.452  13.197
57927SOL    HW275556   6.082   8.482  13.323
57928SOL     OW75557  13.611   1.848   9.815
57928SOL    HW175558  13.681   1.911   9.831
57928SOL    HW275559  13.591   1.812   9.901
57929SOL     OW75560  13.104   1.497   5.755
57929SOL    HW175561  13.139   1.506   5.844
57929SOL    HW275562  13.165   1.546   5.700
57930SOL     OW75563   7.299   3.415   9.190
57930SOL    HW175564   7.252   3.379   9.115
57930SOL    HW275565   7.387   3.380   9.182
57931SOL     OW75566   9.383  12.819   9.249
57931SOL    HW175567   9.428  12.776   9.177
57931SOL    HW275568   9.408  12.911   9.241
57932SOL     OW75569  12.702   4.124   0.143
57932SOL    HW175570  12.609   4.145   0.150
57932SOL    HW275571  12.733   4.174   0.068
57933SOL     OW75572   2.770  14.002  12.723
57933SOL    HW175573   2.698  13.967  12.671
57933SOL    HW275574   2.814  13.924  12.757
57934SOL     OW75575  10.679   4.148  14.866
57934SOL    HW175576  10.749   4.202  14.827
57934SOL    HW275577  10.712   4.059  14.860
57935SOL     OW75578   6.465   1.336   4.459
57935SOL    HW175579   6.447   1.300   4.372
57935SOL    HW275580   6.528   1.277   4.498
57936SOL     OW75581   8.651   1.712   3.894
57936SOL    HW175582   8.692   1.629   3.871
57936SOL    HW275583   8.567   1.687   3.933
57937SOL     OW75584   9.529   2.778   0.335
57937SOL    HW175585   9.442   2.774   0.294
57937SOL    HW275586   9.550   2.872   0.337
57938SOL     OW75587   6.272   6.124  10.815
57938SOL    HW175588   6.222   6.050  10.847
57938SOL    HW275589   6.362   6.106  10.844
57939SOL     OW75590   9.746   8.442   2.943
57939SOL    HW175591   9.814   8.418   2.880
57939SOL    HW275592   9.765   8.390   3.021
57940SOL     OW75593   8.649   9.678   2.868
57940SOL    HW175594   8.643   9.643   2.957
57940SOL    HW275595   8.741   9.703   2.859
57941SOL     OW75596   3.737   6.807  11.526
57941SOL    HW175597   3.654   6.827  11.570
57941SOL    HW275598   3.712   6.784  11.437
57942SOL     OW75599   2.079   8.316  11.829
57942SOL    HW175600   2.153   8.356  11.783
57942SOL    HW275601   2.076   8.361  11.914
57943SOL     OW75602   2.608   8.870  14.703
57943SOL    HW175603   2.636   8.936  14.766
57943SOL    HW275604   2.679   8.868  14.638
57944SOL     OW75605  10.708  11.620   2.229
57944SOL    HW175606  10.698  11.713   2.207
57944SOL    HW275607  10.681  11.614   2.320
57945SOL     OW75608  10.032   2.714   4.604
57945SOL    HW175609  10.038   2.747   4.694
57945SOL    HW275610   9.956   2.656   4.604
57946SOL     OW75611   9.034  10.218  10.387
57946SOL    HW175612   8.940  10.224  10.370
57946SOL    HW275613   9.075  10.246  10.306
57947SOL     OW75614  10.933   8.623   3.949
57947SOL    HW175615  11.007   8.673   3.914
57947SOL    HW275616  10.971   8.538   3.972
57948SOL     OW75617  12.894  13.383   0.710
57948SOL    HW175618  12.896  13.476   0.732
57948SOL    HW275619  12.973  13.369   0.657
57949SOL     OW75620   1.815   1.676   9.675
57949SOL    HW175621   1.883   1.719   9.725
57949SOL    HW275622   1.735   1.687   9.727
57950SOL     OW75623  12.558  14.442  12.865
57950SOL    HW175624  12.615  14.488  12.804
57950SOL    HW275625  12.511  14.379  12.812
57951SOL     OW75626   5.999   7.230   7.571
57951SOL    HW175627   6.017   7.208   7.663
57951SOL    HW275628   5.963   7.318   7.574
57952SOL     OW75629   3.952  12.713  12.943
57952SOL    HW175630   3.859  12.690  12.950
57952SOL    HW275631   3.970  12.764  13.022
57953SOL     OW75632   4.435   7.990   9.026
57953SOL    HW175633   4.519   7.984   8.980
57953SOL    HW275634   4.458   8.018   9.114
57954SOL     OW75635   8.883   3.694  12.389
57954SOL    HW175636   8.918   3.768  12.339
57954SOL    HW275637   8.815   3.657  12.334
57955SOL     OW75638  12.404   7.989   3.840
57955SOL    HW175639  12.470   8.058   3.834
57955SOL    HW275640  12.376   7.990   3.931
57956SOL     OW75641   6.318   5.123  12.864
57956SOL    HW175642   6.395   5.110  12.808
57956SOL    HW275643   6.292   5.213  12.848
57957SOL     OW75644   1.074  11.193   9.206
57957SOL    HW175645   1.154  11.150   9.236
57957SOL    HW275646   1.007  11.125   9.207
57958SOL     OW75647   8.375   9.161  14.153
57958SOL    HW175648   8.286   9.136  14.128
57958SOL    HW275649   8.416   9.191  14.072
57959SOL     OW75650   3.624   2.945   3.244
57959SOL    HW175651   3.576   2.961   3.162
57959SOL    HW275652   3.557   2.944   3.312
57960SOL     OW75653   7.942   1.152   9.711
57960SOL    HW175654   7.923   1.159   9.617
57960SOL    HW275655   7.909   1.233   9.748
57961SOL     OW75656  14.639   7.524  11.261
57961SOL    HW175657  14.700   7.595  11.284
57961SOL    HW275658  14.655   7.457  11.327
57962SOL     OW75659   9.176   1.906  10.293
57962SOL    HW175660   9.213   1.912  10.204
57962SOL    HW275661   9.241   1.856  10.342
57963SOL     OW75662  13.186   4.908   1.482
57963SOL    HW175663  13.097   4.873   1.491
57963SOL    HW275664  13.232   4.878   1.560
57964SOL     OW75665   9.330   6.331   0.680
57964SOL    HW175666   9.360   6.419   0.700
57964SOL    HW275667   9.309   6.293   0.765
57965SOL     OW75668   5.563   3.896   3.868
57965SOL    HW175669   5.563   3.826   3.803
57965SOL    HW275670   5.615   3.966   3.828
57966SOL     OW75671  13.320   1.887   2.910
57966SOL    HW175672  13.255   1.827   2.947
57966SOL    HW275673  13.403   1.859   2.948
57967SOL     OW75674  10.694  10.419   1.062
57967SOL    HW175675  10.629  10.350   1.049
57967SOL    HW275676  10.676  10.482   0.992
57968SOL     OW75677   5.669   5.506   5.743
57968SOL    HW175678   5.760   5.484   5.720
57968SOL    HW275679   5.672   5.599   5.766
57969SOL     OW75680   0.371   4.616   9.665
57969SOL    HW175681   0.448   4.630   9.721
57969SOL    HW275682   0.384   4.676   9.591
57970SOL     OW75683  10.201   4.053   4.916
57970SOL    HW175684  10.157   4.110   4.979
57970SOL    HW275685  10.191   4.098   4.832
57971SOL     OW75686   6.358   8.439   5.787
57971SOL    HW175687   6.413   8.493   5.729
57971SOL    HW275688   6.285   8.497   5.811
57972SOL     OW75689   6.556  11.337   9.262
57972SOL    HW175690   6.564  11.246   9.233
57972SOL    HW275691   6.583  11.336   9.354
57973SOL     OW75692  13.031   4.132   9.171
57973SOL    HW175693  12.956   4.133   9.231
57973SOL    HW275694  13.019   4.210   9.117
57974SOL     OW75695   6.262   2.596  12.646
57974SOL    HW175696   6.197   2.532  12.617
57974SOL    HW275697   6.345   2.549  12.640
57975SOL     OW75698  13.819   5.824  12.874
57975SOL    HW175699  13.833   5.743  12.922
57975SOL    HW275700  13.768   5.879  12.934
57976SOL     OW75701  14.223   9.970  14.653
57976SOL    HW175702  14.216   9.963  14.748
57976SOL    HW275703  14.220   9.879  14.622
57977SOL     OW75704   2.958   0.080  13.423
57977SOL    HW175705   2.879   0.126  13.451
57977SOL    HW275706   2.930   0.027  13.348
57978SOL     OW75707   4.919   5.512  10.271
57978SOL    HW175708   4.933   5.556  10.354
57978SOL    HW275709   4.947   5.421  10.287
57979SOL     OW75710   3.374   4.873  13.726
57979SOL    HW175711   3.335   4.946  13.774
57979SOL    HW275712   3.329   4.873  13.642
57980SOL     OW75713   0.922   9.882   2.150
57980SOL    HW175714   0.837   9.915   2.178
57980SOL    HW275715   0.906   9.789   2.130
57981SOL     OW75716   9.894   5.300  12.380
57981SOL    HW175717   9.930   5.352  12.309
57981SOL    HW275718   9.970   5.278  12.434
57982SOL     OW75719   9.809   3.750  10.826
57982SOL    HW175720   9.725   3.766  10.782
57982SOL    HW275721   9.790   3.762  10.919
57983SOL     OW75722   2.451   5.605  13.534
57983SOL    HW175723   2.509   5.680  13.525
57983SOL    HW275724   2.481   5.562  13.615
57984SOL     OW75725   4.960   4.659   6.922
57984SOL    HW175726   5.055   4.647   6.924
57984SOL    HW275727   4.933   4.650   7.013
57985SOL     OW75728   4.792   4.942   8.569
57985SOL    HW175729   4.750   4.980   8.492
57985SOL    HW275730   4.728   4.953   8.639
57986SOL     OW75731   9.729   3.896  12.473
57986SOL    HW175732   9.779   3.884  12.554
57986SOL    HW275733   9.639   3.905  12.502
57987SOL     OW75734  10.002   8.046   1.283
57987SOL    HW175735  10.095   8.054   1.258
57987SOL    HW275736   9.999   8.071   1.375
57988SOL     OW75737   4.487  11.563   6.180
57988SOL    HW175738   4.494  11.497   6.249
57988SOL    HW275739   4.522  11.643   6.220
57989SOL     OW75740   6.585   1.450   9.426
57989SOL    HW175741   6.539   1.486   9.351
57989SOL    HW275742   6.627   1.526   9.468
57990SOL     OW75743   2.592  11.050  10.007
57990SOL    HW175744   2.530  11.024   9.938
57990SOL    HW275745   2.538  11.059  10.085
57991SOL     OW75746   5.715  11.985   0.741
57991SOL    HW175747   5.700  12.048   0.670
57991SOL    HW275748   5.629  11.946   0.756
57992SOL     OW75749   8.844   0.926  13.766
57992SOL    HW175750   8.781   0.928  13.694
57992SOL    HW275751   8.901   0.852  13.746
57993SOL     OW75752   5.044   8.545   0.624
57993SOL    HW175753   5.019   8.604   0.553
57993SOL    HW275754   4.967   8.492   0.640
57994SOL     OW75755   6.976  13.055   1.582
57994SOL    HW175756   7.060  13.033   1.621
57994SOL    HW275757   6.998  13.106   1.504
57995SOL     OW75758  14.510   9.809  10.077
57995SOL    HW175759  14.444   9.808  10.008
57995SOL    HW275760  14.460   9.817  10.158
57996SOL     OW75761   3.275   8.785  12.845
57996SOL    HW175762   3.312   8.755  12.762
57996SOL    HW275763   3.346   8.777  12.908
57997SOL     OW75764  11.725   4.133   8.698
57997SOL    HW175765  11.739   4.048   8.741
57997SOL    HW275766  11.631   4.136   8.681
57998SOL     OW75767   9.117   4.606  12.171
57998SOL    HW175768   9.178   4.627  12.100
57998SOL    HW275769   9.174   4.578  12.243
57999SOL     OW75770  11.520   7.579   8.236
57999SOL    HW175771  11.603   7.625   8.244
57999SOL    HW275772  11.500   7.550   8.326
58000SOL     OW75773  12.476  12.304   4.445
58000SOL    HW175774  12.535  12.235   4.414
58000SOL    HW275775  12.510  12.329   4.530
58001SOL     OW75776   5.023   1.381   6.528
58001SOL    HW175777   4.943   1.348   6.569
58001SOL    HW275778   5.048   1.312   6.467
58002SOL     OW75779   1.634   7.928  12.681
58002SOL    HW175780   1.546   7.934  12.718
58002SOL    HW275781   1.691   7.959  12.751
58003SOL     OW75782  10.792  13.164   8.378
58003SOL    HW175783  10.773  13.078   8.342
58003SOL    HW275784  10.795  13.151   8.473
58004SOL     OW75785  11.734   6.115   0.626
58004SOL    HW175786  11.801   6.065   0.579
58004SOL    HW275787  11.656   6.108   0.572
58005SOL     OW75788   2.010   9.707  10.908
58005SOL    HW175789   2.075   9.642  10.935
58005SOL    HW275790   1.925   9.664  10.922
58006SOL     OW75791   4.168   2.476  13.061
58006SOL    HW175792   4.097   2.476  13.125
58006SOL    HW275793   4.124   2.469  12.976
58007SOL     OW75794  11.001   1.758  14.351
58007SOL    HW175795  11.017   1.811  14.273
58007SOL    HW275796  10.906   1.757  14.361
58008SOL     OW75797   8.350   7.830  14.708
58008SOL    HW175798   8.418   7.776  14.747
58008SOL    HW275799   8.284   7.839  14.778
58009SOL     OW75800   1.227  11.688   4.886
58009SOL    HW175801   1.215  11.612   4.829
58009SOL    HW275802   1.301  11.735   4.847
58010SOL     OW75803   1.611   3.779   3.662
58010SOL    HW175804   1.610   3.866   3.622
58010SOL    HW275805   1.518   3.759   3.676
58011SOL     OW75806   3.236   1.974   5.164
58011SOL    HW175807   3.221   1.880   5.153
58011SOL    HW275808   3.273   1.982   5.252
58012SOL     OW75809   3.280   4.140  11.478
58012SOL    HW175810   3.374   4.127  11.491
58012SOL    HW275811   3.274   4.195  11.400
58013SOL     OW75812   6.714  14.330   8.103
58013SOL    HW175813   6.750  14.281   8.029
58013SOL    HW275814   6.788  14.345   8.161
58014SOL     OW75815   7.987   1.205   8.764
58014SOL    HW175816   8.065   1.153   8.745
58014SOL    HW275817   7.950   1.166   8.843
58015SOL     OW75818   0.841  13.343   3.885
58015SOL    HW175819   0.918  13.370   3.935
58015SOL    HW275820   0.783  13.304   3.950
58016SOL     OW75821   1.621   6.800   7.354
58016SOL    HW175822   1.706   6.771   7.385
58016SOL    HW275823   1.593   6.865   7.419
58017SOL     OW75824   9.540   6.734   1.905
58017SOL    HW175825   9.636   6.733   1.895
58017SOL    HW275826   9.510   6.669   1.841
58018SOL     OW75827  12.891   5.801  13.435
58018SOL    HW175828  12.968   5.775  13.484
58018SOL    HW275829  12.878   5.732  13.370
58019SOL     OW75830  14.073  11.657   5.241
58019SOL    HW175831  14.101  11.744   5.213
58019SOL    HW275832  14.152  11.604   5.237
58020SOL     OW75833   0.683   9.378   2.205
58020SOL    HW175834   0.605   9.382   2.150
58020SOL    HW275835   0.756   9.373   2.143
58021SOL     OW75836  10.809   3.987  13.902
58021SOL    HW175837  10.768   4.059  13.950
58021SOL    HW275838  10.748   3.914  13.911
58022SOL     OW75839   5.887  12.544   3.023
58022SOL    HW175840   5.886  12.451   2.999
58022SOL    HW275841   5.933  12.587   2.950
58023SOL     OW75842   6.681   6.757   1.737
58023SOL    HW175843   6.736   6.723   1.667
58023SOL    HW275844   6.595   6.768   1.696
58024SOL     OW75845   1.354   9.600   5.486
58024SOL    HW175846   1.261   9.577   5.476
58024SOL    HW275847   1.387   9.537   5.550
58025SOL     OW75848   6.223   3.874  11.345
58025SOL    HW175849   6.196   3.793  11.388
58025SOL    HW275850   6.298   3.849  11.291
58026SOL     OW75851  12.949   1.673   3.391
58026SOL    HW175852  12.872   1.646   3.441
58026SOL    HW275853  12.922   1.667   3.299
58027SOL     OW75854  11.494  12.921  14.236
58027SOL    HW175855  11.473  13.005  14.195
58027SOL    HW275856  11.511  12.861  14.163
58028SOL     OW75857   7.930   4.326   4.363
58028SOL    HW175858   7.885   4.366   4.288
58028SOL    HW275859   7.873   4.345   4.437
58029SOL     OW75860  10.479  11.479   5.546
58029SOL    HW175861  10.416  11.507   5.480
58029SOL    HW275862  10.513  11.561   5.583
58030SOL     OW75863   8.396  13.461  14.013
58030SOL    HW175864   8.324  13.462  13.950
58030SOL    HW275865   8.417  13.368  14.025
58031SOL     OW75866   4.879  14.768   5.446
58031SOL    HW175867   4.912  14.712   5.516
58031SOL    HW275868   4.784  14.764   5.456
58032SOL     OW75869   6.654   0.750   3.695
58032SOL    HW175870   6.650   0.801   3.615
58032SOL    HW275871   6.685   0.812   3.762
58033SOL     OW75872  10.939  11.183  13.412
58033SOL    HW175873  10.951  11.102  13.463
58033SOL    HW275874  10.883  11.157  13.339
58034SOL     OW75875  12.644  11.542   8.607
58034SOL    HW175876  12.578  11.553   8.676
58034SOL    HW275877  12.724  11.517   8.653
58035SOL     OW75878   8.803   3.516   9.119
58035SOL    HW175879   8.776   3.542   9.207
58035SOL    HW275880   8.723   3.524   9.067
58036SOL     OW75881  14.541  13.143  13.779
58036SOL    HW175882  14.572  13.140  13.869
58036SOL    HW275883  14.528  13.052  13.754
58037SOL     OW75884   1.192   8.045  12.627
58037SOL    HW175885   1.192   8.020  12.535
58037SOL    HW275886   1.131   7.985  12.668
58038SOL     OW75887  10.387   9.455   4.834
58038SOL    HW175888  10.467   9.406   4.854
58038SOL    HW275889  10.318   9.410   4.883
58039SOL     OW75890   7.127   5.436   9.108
58039SOL    HW175891   7.209   5.477   9.081
58039SOL    HW275892   7.073   5.509   9.138
58040SOL     OW75893   1.684   5.804  13.892
58040SOL    HW175894   1.659   5.727  13.943
58040SOL    HW275895   1.636   5.876  13.932
58041SOL     OW75896  13.312   2.066  13.478
58041SOL    HW175897  13.311   2.073  13.383
58041SOL    HW275898  13.276   2.149  13.509
58042SOL     OW75899  12.937  13.317  11.700
58042SOL    HW175900  12.911  13.343  11.789
58042SOL    HW275901  13.011  13.258  11.714
58043SOL     OW75902   0.843   3.130  11.738
58043SOL    HW175903   0.807   3.075  11.807
58043SOL    HW275904   0.823   3.220  11.765
58044SOL     OW75905  13.784  11.717  13.093
58044SOL    HW175906  13.790  11.732  13.187
58044SOL    HW275907  13.868  11.749  13.058
58045SOL     OW75908  11.208   9.272  10.618
58045SOL    HW175909  11.295   9.241  10.642
58045SOL    HW275910  11.148   9.226  10.677
58046SOL     OW75911  14.698   2.082   9.114
58046SOL    HW175912  14.766   2.015   9.117
58046SOL    HW275913  14.690   2.104   9.021
58047SOL     OW75914   7.915  10.674   6.836
58047SOL    HW175915   7.847  10.702   6.775
58047SOL    HW275916   7.995  10.671   6.783
58048SOL     OW75917   9.417  11.299  14.222
58048SOL    HW175918   9.379  11.282  14.308
58048SOL    HW275919   9.349  11.347  14.175
58049SOL     OW75920   4.475   6.944   6.913
58049SOL    HW175921   4.458   7.015   6.975
58049SOL    HW275922   4.490   6.867   6.969
58050SOL     OW75923   3.204   8.540  10.710
58050SOL    HW175924   3.297   8.556  10.728
58050SOL    HW275925   3.200   8.447  10.685
58051SOL     OW75926  10.446  13.543  10.801
58051SOL    HW175927  10.408  13.624  10.834
58051SOL    HW275928  10.424  13.542  10.708
58052SOL     OW75929   7.652  10.363   5.542
58052SOL    HW175930   7.592  10.355   5.467
58052SOL    HW275931   7.715  10.292   5.530
58053SOL     OW75932   6.068  12.869   2.256
58053SOL    HW175933   5.972  12.879   2.259
58053SOL    HW275934   6.090  12.886   2.165
58054SOL     OW75935   3.728  12.162   1.885
58054SOL    HW175936   3.640  12.131   1.907
58054SOL    HW275937   3.786  12.093   1.916
58055SOL     OW75938   3.174  12.570   0.272
58055SOL    HW175939   3.156  12.522   0.191
58055SOL    HW275940   3.249  12.525   0.310
58056SOL     OW75941  14.703   5.953   9.981
58056SOL    HW175942  14.684   6.042   9.951
58056SOL    HW275943  14.637   5.936  10.049
58057SOL     OW75944  11.307   0.008  13.654
58057SOL    HW175945  11.279  14.881  13.745
58057SOL    HW275946  11.399  14.863  13.654
58058SOL     OW75947   8.869   9.838   1.639
58058SOL    HW175948   8.836   9.749   1.634
58058SOL    HW275949   8.928   9.837   1.715
58059SOL     OW75950   3.991   9.168   1.850
58059SOL    HW175951   4.000   9.074   1.832
58059SOL    HW275952   4.077   9.194   1.883
58060SOL     OW75953   5.679  13.373  11.048
58060SOL    HW175954   5.627  13.450  11.069
58060SOL    HW275955   5.682  13.323  11.130
58061SOL     OW75956   8.715   7.722   7.181
58061SOL    HW175957   8.798   7.742   7.137
58061SOL    HW275958   8.735   7.649   7.239
58062SOL     OW75959  12.638  12.176  10.880
58062SOL    HW175960  12.615  12.224  10.960
58062SOL    HW275961  12.672  12.243  10.820
58063SOL     OW75962   7.529   3.450   5.780
58063SOL    HW175963   7.599   3.386   5.766
58063SOL    HW275964   7.452   3.411   5.740
58064SOL     OW75965   0.299   6.378   5.217
58064SOL    HW175966   0.344   6.417   5.142
58064SOL    HW275967   0.206   6.395   5.200
58065SOL     OW75968   7.506   6.287   1.569
58065SOL    HW175969   7.499   6.289   1.473
58065SOL    HW275970   7.595   6.255   1.585
58066SOL     OW75971   9.870   8.321  13.882
58066SOL    HW175972   9.816   8.257  13.836
58066SOL    HW275973   9.941   8.269  13.920
58067SOL     OW75974  10.371   3.096   0.020
58067SOL    HW175975  10.331   3.009   0.023
58067SOL    HW275976  10.465   3.081   0.032
58068SOL     OW75977   1.212   8.910   2.246
58068SOL    HW175978   1.136   8.882   2.296
58068SOL    HW275979   1.239   8.992   2.288
58069SOL     OW75980   3.356  13.019   8.912
58069SOL    HW175981   3.323  13.020   9.002
58069SOL    HW275982   3.336  12.931   8.880
58070SOL     OW75983  14.367   3.622   6.247
58070SOL    HW175984  14.427   3.595   6.178
58070SOL    HW275985  14.307   3.684   6.204
58071SOL     OW75986   8.143  10.263   1.307
58071SOL    HW175987   8.117  10.245   1.217
58071SOL    HW275988   8.088  10.336   1.334
58072SOL     OW75989   3.545   3.527   4.714
58072SOL    HW175990   3.531   3.448   4.767
58072SOL    HW275991   3.519   3.599   4.771
58073SOL     OW75992   1.598   3.172  13.548
58073SOL    HW175993   1.650   3.114  13.604
58073SOL    HW275994   1.554   3.232  13.608
58074SOL     OW75995   3.023  11.566   9.918
58074SOL    HW175996   2.979  11.634   9.969
58074SOL    HW275997   3.077  11.614   9.855
58075SOL     OW75998  10.791   5.415   4.177
58075SOL    HW175999  10.824   5.479   4.114
58075SOL    HW276000  10.696   5.429   4.179
58076SOL     OW76001   2.165   7.512  10.272
58076SOL    HW176002   2.241   7.454  10.272
58076SOL    HW276003   2.136   7.513  10.181
58077SOL     OW76004  11.174  10.972   8.768
58077SOL    HW176005  11.157  11.053   8.719
58077SOL    HW276006  11.231  10.999   8.840
58078SOL     OW76007  10.960  12.547   3.547
58078SOL    HW176008  10.938  12.634   3.514
58078SOL    HW276009  10.954  12.490   3.471
58079SOL     OW76010   0.993  14.550   0.109
58079SOL    HW176011   0.938  14.473   0.094
58079SOL    HW276012   1.040  14.530   0.190
58080SOL     OW76013  11.871   2.576   8.430
58080SOL    HW176014  11.838   2.610   8.513
58080SOL    HW276015  11.792   2.561   8.378
58081SOL     OW76016   4.953  14.690   7.369
58081SOL    HW176017   4.914  14.613   7.409
58081SOL    HW276018   5.042  14.663   7.346
58082SOL     OW76019  11.228  12.419   0.328
58082SOL    HW176020  11.305  12.366   0.308
58082SOL    HW276021  11.230  12.490   0.264
58083SOL     OW76022  13.710   8.861   6.913
58083SOL    HW176023  13.728   8.943   6.867
58083SOL    HW276024  13.660   8.887   6.990
58084SOL     OW76025  13.634   3.393   4.466
58084SOL    HW176026  13.721   3.389   4.426
58084SOL    HW276027  13.619   3.486   4.481
58085SOL     OW76028  14.308   4.621   6.804
58085SOL    HW176029  14.315   4.707   6.847
58085SOL    HW276030  14.295   4.642   6.711
58086SOL     OW76031  13.581  13.095   5.976
58086SOL    HW176032  13.557  13.048   6.055
58086SOL    HW276033  13.641  13.164   6.006
58087SOL     OW76034  12.084  11.136   1.947
58087SOL    HW176035  11.997  11.171   1.929
58087SOL    HW276036  12.072  11.076   2.021
58088SOL     OW76037  12.727   9.275   2.503
58088SOL    HW176038  12.784   9.266   2.427
58088SOL    HW276039  12.777   9.328   2.564
58089SOL     OW76040   0.583   6.255   8.289
58089SOL    HW176041   0.640   6.324   8.323
58089SOL    HW276042   0.551   6.289   8.206
58090SOL     OW76043  14.410   1.389  13.225
58090SOL    HW176044  14.362   1.419  13.147
58090SOL    HW276045  14.502   1.400  13.201
58091SOL     OW76046   4.957   4.034  13.965
58091SOL    HW176047   4.930   4.087  13.890
58091SOL    HW276048   5.047   4.009  13.946
58092SOL     OW76049   2.881   7.430  13.074
58092SOL    HW176050   2.934   7.437  12.995
58092SOL    HW276051   2.807   7.375  13.048
58093SOL     OW76052   2.570   5.721   3.307
58093SOL    HW176053   2.537   5.806   3.335
58093SOL    HW276054   2.663   5.721   3.330
58094SOL     OW76055   9.913  10.940  14.391
58094SOL    HW176056   9.826  10.960  14.425
58094SOL    HW276057   9.973  10.988  14.449
58095SOL     OW76058   3.484   7.374   0.301
58095SOL    HW176059   3.436   7.312   0.246
58095SOL    HW276060   3.564   7.393   0.251
58096SOL     OW76061   1.972   1.504  10.877
58096SOL    HW176062   2.006   1.566  10.941
58096SOL    HW276063   1.909   1.450  10.925
58097SOL     OW76064   7.417  11.327   8.504
58097SOL    HW176065   7.386  11.252   8.555
58097SOL    HW276066   7.347  11.345   8.442
58098SOL     OW76067   5.464   2.125   9.279
58098SOL    HW176068   5.422   2.069   9.213
58098SOL    HW276069   5.557   2.119   9.259
58099SOL     OW76070   8.496   9.479   7.790
58099SOL    HW176071   8.450   9.486   7.873
58099SOL    HW276072   8.539   9.564   7.779
58100SOL     OW76073   2.174   7.134   3.778
58100SOL    HW176074   2.253   7.168   3.735
58100SOL    HW276075   2.200   7.120   3.869
58101SOL     OW76076   3.757  10.225   2.750
58101SOL    HW176077   3.802  10.155   2.702
58101SOL    HW276078   3.786  10.305   2.707
58102SOL     OW76079  14.214  12.957   7.236
58102SOL    HW176080  14.305  12.942   7.211
58102SOL    HW276081  14.166  12.962   7.153
58103SOL     OW76082   8.955   1.204   8.104
58103SOL    HW176083   9.001   1.250   8.034
58103SOL    HW276084   8.992   1.238   8.185
58104SOL     OW76085   4.437   2.203   4.836
58104SOL    HW176086   4.410   2.125   4.883
58104SOL    HW276087   4.379   2.207   4.760
58105SOL     OW76088   0.811  11.780   9.943
58105SOL    HW176089   0.844  11.690   9.953
58105SOL    HW276090   0.732  11.770   9.889
58106SOL     OW76091   8.482   7.677  11.930
58106SOL    HW176092   8.448   7.589  11.915
58106SOL    HW276093   8.404   7.732  11.939
58107SOL     OW76094   1.800   0.727   6.381
58107SOL    HW176095   1.751   0.755   6.304
58107SOL    HW276096   1.737   0.679   6.434
58108SOL     OW76097  12.749  12.962   8.803
58108SOL    HW176098  12.655  12.970   8.787
58108SOL    HW276099  12.786  12.941   8.717
58109SOL     OW76100   8.238  13.451   4.659
58109SOL    HW176101   8.216  13.476   4.570
58109SOL    HW276102   8.333  13.439   4.658
58110SOL     OW76103   6.409  14.135  11.755
58110SOL    HW176104   6.345  14.099  11.816
58110SOL    HW276105   6.431  14.221  11.792
58111SOL     OW76106   2.918   2.815   5.282
58111SOL    HW176107   2.831   2.777   5.294
58111SOL    HW276108   2.911   2.902   5.321
58112SOL     OW76109  13.112  12.610   7.265
58112SOL    HW176110  13.076  12.614   7.176
58112SOL    HW276111  13.198  12.652   7.258
58113SOL     OW76112   7.350  11.103   7.710
58113SOL    HW176113   7.277  11.120   7.769
58113SOL    HW276114   7.411  11.174   7.727
58114SOL     OW76115  10.040   9.797   1.659
58114SOL    HW176116  10.078   9.848   1.587
58114SOL    HW276117  10.107   9.733   1.682
58115SOL     OW76118  12.089   1.599  10.372
58115SOL    HW176119  12.138   1.536  10.319
58115SOL    HW276120  12.086   1.559  10.459
58116SOL     OW76121   6.030  11.301   3.682
58116SOL    HW176122   6.106  11.348   3.715
58116SOL    HW276123   6.067  11.224   3.637
58117SOL     OW76124  12.782  14.278   9.440
58117SOL    HW176125  12.816  14.197   9.400
58117SOL    HW276126  12.777  14.340   9.367
58118SOL     OW76127   7.152   2.466   6.870
58118SOL    HW176128   7.148   2.379   6.830
58118SOL    HW276129   7.126   2.451   6.961
58119SOL     OW76130   9.586  11.775   5.970
58119SOL    HW176131   9.572  11.697   6.025
58119SOL    HW276132   9.636  11.834   6.025
58120SOL     OW76133  14.310  12.201   7.305
58120SOL    HW176134  14.400  12.168   7.311
58120SOL    HW276135  14.260  12.129   7.268
58121SOL     OW76136   2.726   3.840  13.536
58121SOL    HW176137   2.806   3.881  13.502
58121SOL    HW276138   2.742   3.830  13.629
58122SOL     OW76139   5.992   6.845   6.053
58122SOL    HW176140   6.076   6.878   6.084
58122SOL    HW276141   6.014   6.772   5.995
58123SOL     OW76142  10.334  13.597   4.344
58123SOL    HW176143  10.300  13.538   4.411
58123SOL    HW276144  10.410  13.551   4.308
58124SOL     OW76145   0.468   9.588   6.792
58124SOL    HW176146   0.541   9.574   6.852
58124SOL    HW276147   0.394   9.545   6.834
58125SOL     OW76148  12.334  13.330  13.711
58125SOL    HW176149  12.333  13.246  13.756
58125SOL    HW276150  12.299  13.392  13.775
58126SOL     OW76151   8.632   7.477   0.583
58126SOL    HW176152   8.673   7.390   0.589
58126SOL    HW276153   8.659   7.521   0.664
58127SOL     OW76154  12.819   6.125   1.608
58127SOL    HW176155  12.850   6.162   1.691
58127SOL    HW276156  12.897   6.123   1.553
58128SOL     OW76157  12.267  14.385   5.310
58128SOL    HW176158  12.254  14.475   5.340
58128SOL    HW276159  12.182  14.359   5.274
58129SOL     OW76160  11.635   0.918   5.536
58129SOL    HW176161  11.666   0.848   5.478
58129SOL    HW276162  11.564   0.959   5.487
58130SOL     OW76163   0.776   6.398  11.182
58130SOL    HW176164   0.853   6.437  11.225
58130SOL    HW276165   0.706   6.461  11.197
58131SOL     OW76166   8.389   5.629   6.282
58131SOL    HW176167   8.335   5.697   6.321
58131SOL    HW276168   8.410   5.570   6.354
58132SOL     OW76169   0.095   0.622  11.772
58132SOL    HW176170   0.179   0.631  11.816
58132SOL    HW276171   0.116   0.585  11.687
58133SOL     OW76172   1.269   4.891   6.491
58133SOL    HW176173   1.232   4.870   6.405
58133SOL    HW276174   1.364   4.882   6.480
58134SOL     OW76175   8.378   9.446   8.764
58134SOL    HW176176   8.376   9.507   8.837
58134SOL    HW276177   8.430   9.491   8.697
58135SOL     OW76178  12.635  10.138   1.041
58135SOL    HW176179  12.705  10.123   1.105
58135SOL    HW276180  12.674  10.114   0.957
58136SOL     OW76181   1.969  14.159   9.926
58136SOL    HW176182   1.893  14.155   9.869
58136SOL    HW276183   2.019  14.235   9.894
58137SOL     OW76184   3.875   7.910  10.889
58137SOL    HW176185   3.848   7.913  10.797
58137SOL    HW276186   3.956   7.961  10.892
58138SOL     OW76187   1.811  12.822   3.136
58138SOL    HW176188   1.859  12.749   3.174
58138SOL    HW276189   1.719  12.799   3.147
58139SOL     OW76190   3.248   2.794  14.596
58139SOL    HW176191   3.173   2.785  14.537
58139SOL    HW276192   3.317   2.830  14.540
58140SOL     OW76193   5.800  13.196   1.782
58140SOL    HW176194   5.751  13.278   1.777
58140SOL    HW276195   5.783  13.163   1.871
58141SOL     OW76196   0.948  10.480   7.225
58141SOL    HW176197   0.860  10.509   7.203
58141SOL    HW276198   0.998  10.490   7.144
58142SOL     OW76199  12.658  14.608  11.283
58142SOL    HW176200  12.693  14.530  11.239
58142SOL    HW276201  12.563  14.600  11.275
58143SOL     OW76202   2.343   6.383   8.610
58143SOL    HW176203   2.268   6.381   8.670
58143SOL    HW276204   2.340   6.298   8.565
58144SOL     OW76205   6.767   7.100  14.612
58144SOL    HW176206   6.806   7.055  14.687
58144SOL    HW276207   6.675   7.071  14.612
58145SOL     OW76208  12.937   6.909   5.830
58145SOL    HW176209  12.996   6.889   5.903
58145SOL    HW276210  12.932   6.827   5.781
58146SOL     OW76211  14.682   4.043  12.435
58146SOL    HW176212  14.715   4.131  12.416
58146SOL    HW276213  14.726   4.018  12.516
58147SOL     OW76214   5.312  14.676   1.268
58147SOL    HW176215   5.404  14.683   1.239
58147SOL    HW276216   5.261  14.696   1.189
58148SOL     OW76217   1.765  13.825  12.475
58148SOL    HW176218   1.803  13.878  12.546
58148SOL    HW276219   1.797  13.867  12.395
58149SOL     OW76220   0.137   6.871  12.882
58149SOL    HW176221   0.120   6.859  12.976
58149SOL    HW276222   0.226   6.905  12.878
58150SOL     OW76223   0.114   1.614  10.943
58150SOL    HW176224   0.159   1.677  11.001
58150SOL    HW276225   0.031   1.597  10.987
58151SOL     OW76226   2.672   4.635   3.018
58151SOL    HW176227   2.578   4.648   3.027
58151SOL    HW276228   2.703   4.621   3.108
58152SOL     OW76229  13.089  10.772  14.435
58152SOL    HW176230  13.035  10.739  14.363
58152SOL    HW276231  13.091  10.866  14.422
58153SOL     OW76232   2.713  14.635  14.276
58153SOL    HW176233   2.624  14.670  14.277
58153SOL    HW276234   2.758  14.680  14.347
58154SOL     OW76235  10.264   0.689   3.266
58154SOL    HW176236  10.300   0.637   3.337
58154SOL    HW276237  10.175   0.655   3.253
58155SOL     OW76238  12.876   8.339  14.271
58155SOL    HW176239  12.861   8.310  14.361
58155SOL    HW276240  12.960   8.384  14.273
58156SOL     OW76241   8.329   8.982   0.212
58156SOL    HW176242   8.270   9.033   0.157
58156SOL    HW276243   8.301   9.001   0.301
58157SOL     OW76244  14.074  10.752  13.186
58157SOL    HW176245  14.091  10.706  13.268
58157SOL    HW276246  14.083  10.844  13.208
58158SOL     OW76247   8.116   2.725   9.193
58158SOL    HW176248   8.206   2.755   9.200
58158SOL    HW276249   8.116   2.640   9.237
58159SOL     OW76250   7.110  14.768   0.994
58159SOL    HW176251   7.169  14.697   0.967
58159SOL    HW276252   7.028  14.724   1.015
58160SOL     OW76253   7.828  10.588  10.765
58160SOL    HW176254   7.889  10.594  10.839
58160SOL    HW276255   7.787  10.502  10.775
58161SOL     OW76256   7.181   9.760  10.004
58161SOL    HW176257   7.089   9.749  10.030
58161SOL    HW276258   7.196   9.692   9.939
58162SOL     OW76259  12.889   8.344  13.273
58162SOL    HW176260  12.929   8.412  13.328
58162SOL    HW276261  12.816   8.311  13.326
58163SOL     OW76262   6.225  10.998   5.383
58163SOL    HW176263   6.198  11.039   5.465
58163SOL    HW276264   6.274  10.921   5.410
58164SOL     OW76265   3.112   2.746   0.856
58164SOL    HW176266   3.104   2.651   0.862
58164SOL    HW276267   3.182   2.768   0.918
58165SOL     OW76268   6.140   4.510  12.746
58165SOL    HW176269   6.144   4.603  12.723
58165SOL    HW276270   6.052   4.498  12.783
58166SOL     OW76271   3.091   6.483  12.663
58166SOL    HW176272   3.167   6.430  12.640
58166SOL    HW276273   3.021   6.450  12.606
58167SOL     OW76274   0.267   1.633  13.957
58167SOL    HW176275   0.361   1.641  13.941
58167SOL    HW276276   0.241   1.719  13.989
58168SOL     OW76277   2.163   4.793  14.140
58168SOL    HW176278   2.107   4.726  14.180
58168SOL    HW276279   2.249   4.780  14.180
58169SOL     OW76280   0.293   6.046   7.644
58169SOL    HW176281   0.221   6.016   7.700
58169SOL    HW276282   0.344   5.967   7.627
58170SOL     OW76283   1.616  13.778  14.252
58170SOL    HW176284   1.597  13.827  14.171
58170SOL    HW276285   1.617  13.845  14.320
58171SOL     OW76286   2.005   4.750  12.855
58171SOL    HW176287   1.998   4.751  12.951
58171SOL    HW276288   1.915   4.734  12.826
58172SOL     OW76289  13.993   6.949  14.757
58172SOL    HW176290  13.981   6.917  14.667
58172SOL    HW276291  14.039   7.032  14.747
58173SOL     OW76292  10.309   5.852   0.549
58173SOL    HW176293  10.360   5.856   0.467
58173SOL    HW276294  10.218   5.849   0.520
58174SOL     OW76295  14.256  12.500  11.970
58174SOL    HW176296  14.206  12.551  12.034
58174SOL    HW276297  14.334  12.552  11.953
58175SOL     OW76298   3.881  11.078   2.598
58175SOL    HW176299   3.809  11.136   2.572
58175SOL    HW276300   3.957  11.136   2.601
58176SOL     OW76301   2.849  14.681   2.553
58176SOL    HW176302   2.912  14.753   2.548
58176SOL    HW276303   2.765  14.724   2.573
58177SOL     OW76304   3.821  10.906  10.084
58177SOL    HW176305   3.775  10.876  10.162
58177SOL    HW276306   3.807  10.837  10.019
58178SOL     OW76307   6.568   3.918   0.679
58178SOL    HW176308   6.543   3.892   0.591
58178SOL    HW276309   6.597   4.009   0.671
58179SOL     OW76310   2.443   8.180  14.701
58179SOL    HW176311   2.442   8.171  14.606
58179SOL    HW276312   2.507   8.250  14.718
58180SOL     OW76313   3.060   8.402   4.645
58180SOL    HW176314   3.067   8.307   4.650
58180SOL    HW276315   3.070   8.431   4.736
58181SOL     OW76316  13.703  13.359   8.269
58181SOL    HW176317  13.752  13.343   8.350
58181SOL    HW276318  13.639  13.287   8.266
58182SOL     OW76319  14.444   5.146   9.620
58182SOL    HW176320  14.378   5.166   9.553
58182SOL    HW276321  14.453   5.228   9.670
58183SOL     OW76322   4.034   2.853   3.936
58183SOL    HW176323   4.083   2.772   3.945
58183SOL    HW276324   3.948   2.826   3.903
58184SOL     OW76325  10.128  10.977  14.599
58184SOL    HW176326  10.108  11.069  14.619
58184SOL    HW276327  10.187  10.982  14.523
58185SOL     OW76328   6.486   0.604   4.637
58185SOL    HW176329   6.562   0.642   4.593
58185SOL    HW276330   6.458   0.533   4.580
58186SOL     OW76331   2.834  11.946   0.213
58186SOL    HW176332   2.802  11.943   0.303
58186SOL    HW276333   2.793  12.024   0.176
58187SOL     OW76334   9.274   1.917  13.450
58187SOL    HW176335   9.187   1.899  13.413
58187SOL    HW276336   9.260   1.919  13.545
58188SOL     OW76337   1.696   7.678   4.899
58188SOL    HW176338   1.611   7.711   4.929
58188SOL    HW276339   1.675   7.618   4.828
58189SOL     OW76340   5.022   1.523   0.917
58189SOL    HW176341   5.093   1.459   0.917
58189SOL    HW276342   5.033   1.571   0.835
58190SOL     OW76343   6.560   0.786  13.196
58190SOL    HW176344   6.512   0.844  13.256
58190SOL    HW276345   6.507   0.785  13.116
58191SOL     OW76346   9.374   7.670   0.024
58191SOL    HW176347   9.381   7.675  14.810
58191SOL    HW276348   9.358   7.760   0.052
58192SOL     OW76349   5.165   8.457  14.728
58192SOL    HW176350   5.249   8.414  14.713
58192SOL    HW276351   5.164   8.530  14.666
58193SOL     OW76352   1.406   6.832   3.278
58193SOL    HW176353   1.450   6.913   3.252
58193SOL    HW276354   1.318   6.859   3.303
58194SOL     OW76355   9.521  11.334   9.620
58194SOL    HW176356   9.502  11.368   9.708
58194SOL    HW276357   9.551  11.411   9.572
58195SOL     OW76358  12.577   5.217   2.835
58195SOL    HW176359  12.564   5.157   2.908
58195SOL    HW276360  12.663   5.256   2.850
58196SOL     OW76361   8.313   6.393   5.894
58196SOL    HW176362   8.288   6.338   5.820
58196SOL    HW276363   8.365   6.463   5.855
58197SOL     OW76364   4.622  12.510   0.873
58197SOL    HW176365   4.529  12.488   0.867
58197SOL    HW276366   4.633  12.584   0.813
58198SOL     OW76367   5.749  13.762   7.466
58198SOL    HW176368   5.775  13.737   7.555
58198SOL    HW276369   5.657  13.737   7.460
58199SOL     OW76370   6.266  10.709   7.921
58199SOL    HW176371   6.348  10.748   7.889
58199SOL    HW276372   6.222  10.780   7.967
58200SOL     OW76373   4.626   1.738  12.981
58200SOL    HW176374   4.597   1.655  13.019
58200SOL    HW276375   4.691   1.713  12.916
58201SOL     OW76376   2.951   0.423  12.818
58201SOL    HW176377   2.904   0.442  12.899
58201SOL    HW276378   2.915   0.483  12.754
58202SOL     OW76379   9.719   0.852  13.528
58202SOL    HW176380   9.794   0.810  13.572
58202SOL    HW276381   9.731   0.830  13.435
58203SOL     OW76382   8.709   3.634   0.101
58203SOL    HW176383   8.797   3.658   0.131
58203SOL    HW276384   8.710   3.652   0.007
58204SOL     OW76385   8.663   7.034  11.016
58204SOL    HW176386   8.751   7.057  10.986
58204SOL    HW276387   8.611   7.031  10.935
58205SOL     OW76388   9.823  14.147  11.991
58205SOL    HW176389   9.853  14.076  11.935
58205SOL    HW276390   9.892  14.156  12.057
58206SOL     OW76391  10.611  11.432   7.934
58206SOL    HW176392  10.613  11.344   7.971
58206SOL    HW276393  10.703  11.460   7.934
58207SOL     OW76394  11.407  14.545   0.929
58207SOL    HW176395  11.375  14.473   0.984
58207SOL    HW276396  11.465  14.502   0.866
58208SOL     OW76397   1.682   2.981   1.591
58208SOL    HW176398   1.774   3.008   1.598
58208SOL    HW276399   1.665   2.977   1.497
58209SOL     OW76400   2.064   6.951  12.099
58209SOL    HW176401   2.100   7.039  12.089
58209SOL    HW276402   2.138   6.893  12.083
58210SOL     OW76403  10.341   1.760   5.476
58210SOL    HW176404  10.312   1.670   5.494
58210SOL    HW276405  10.333   1.770   5.382
58211SOL     OW76406  11.241   9.669  10.532
58211SOL    HW176407  11.163   9.659  10.586
58211SOL    HW276408  11.249   9.586  10.485
58212SOL     OW76409   7.241   2.520  11.236
58212SOL    HW176410   7.300   2.518  11.311
58212SOL    HW276411   7.156   2.545  11.273
58213SOL     OW76412  11.770   6.967   5.589
58213SOL    HW176413  11.757   7.062   5.594
58213SOL    HW276414  11.747   6.944   5.499
58214SOL     OW76415   1.135   2.621   4.472
58214SOL    HW176416   1.091   2.541   4.442
58214SOL    HW276417   1.069   2.667   4.523
58215SOL     OW76418   4.040  12.620   8.939
58215SOL    HW176419   4.091  12.542   8.958
58215SOL    HW276420   3.952  12.588   8.920
58216SOL     OW76421   0.274   9.356   0.563
58216SOL    HW176422   0.324   9.301   0.624
58216SOL    HW276423   0.214   9.294   0.520
58217SOL     OW76424   6.874   4.839   1.261
58217SOL    HW176425   6.871   4.803   1.173
58217SOL    HW276426   6.804   4.793   1.308
58218SOL     OW76427   6.747   9.768   7.066
58218SOL    HW176428   6.740   9.686   7.016
58218SOL    HW276429   6.761   9.740   7.156
58219SOL     OW76430   2.187   4.636   3.435
58219SOL    HW176431   2.181   4.726   3.467
58219SOL    HW276432   2.273   4.605   3.463
58220SOL     OW76433   7.636  12.081   3.364
58220SOL    HW176434   7.641  12.014   3.431
58220SOL    HW276435   7.550  12.123   3.377
58221SOL     OW76436   2.589  13.949  12.447
58221SOL    HW176437   2.625  13.999  12.373
58221SOL    HW276438   2.494  13.961  12.440
58222SOL     OW76439   0.750  10.449  10.537
58222SOL    HW176440   0.779  10.404  10.458
58222SOL    HW276441   0.749  10.541  10.513
58223SOL     OW76442  14.288   6.756  13.696
58223SOL    HW176443  14.226   6.742  13.624
58223SOL    HW276444  14.315   6.667  13.721
58224SOL     OW76445  13.346  11.546  10.868
58224SOL    HW176446  13.374  11.580  10.953
58224SOL    HW276447  13.283  11.610  10.835
58225SOL     OW76448   6.602   2.505   8.677
58225SOL    HW176449   6.593   2.496   8.582
58225SOL    HW276450   6.685   2.553   8.688
58226SOL     OW76451  10.972   8.366   8.774
58226SOL    HW176452  10.964   8.421   8.852
58226SOL    HW276453  11.041   8.304   8.795
58227SOL     OW76454   2.178   4.706   0.586
58227SOL    HW176455   2.258   4.655   0.579
58227SOL    HW276456   2.168   4.749   0.501
58228SOL     OW76457   7.300  14.156  10.284
58228SOL    HW176458   7.294  14.088  10.216
58228SOL    HW276459   7.389  14.189  10.277
58229SOL     OW76460   0.407  11.332   5.101
58229SOL    HW176461   0.372  11.418   5.125
58229SOL    HW276462   0.502  11.344   5.099
58230SOL     OW76463  12.739   5.597   4.546
58230SOL    HW176464  12.661   5.553   4.513
58230SOL    HW276465  12.706   5.670   4.598
58231SOL     OW76466  13.906   4.530  13.520
58231SOL    HW176467  13.976   4.593  13.505
58231SOL    HW276468  13.951   4.445  13.519
58232SOL     OW76469   5.898  11.953   6.806
58232SOL    HW176470   5.880  11.887   6.739
58232SOL    HW276471   5.833  11.936   6.875
58233SOL     OW76472   0.150   6.820   8.138
58233SOL    HW176473   0.199   6.853   8.062
58233SOL    HW276474   0.112   6.899   8.177
58234SOL     OW76475   5.679   2.765  11.462
58234SOL    HW176476   5.609   2.706  11.490
58234SOL    HW276477   5.670   2.841  11.521
58235SOL     OW76478   4.943   9.947   2.366
58235SOL    HW176479   4.849   9.947   2.381
58235SOL    HW276480   4.970  10.038   2.384
58236SOL     OW76481   0.647  14.095   3.928
58236SOL    HW176482   0.594  14.124   3.854
58236SOL    HW276483   0.702  14.025   3.893
58237SOL     OW76484   5.489   4.248   3.395
58237SOL    HW176485   5.492   4.297   3.313
58237SOL    HW276486   5.565   4.279   3.444
58238SOL     OW76487   9.734  10.645   7.455
58238SOL    HW176488   9.682  10.693   7.392
58238SOL    HW276489   9.769  10.712   7.514
58239SOL     OW76490  11.085   8.436   8.270
58239SOL    HW176491  11.043   8.491   8.337
58239SOL    HW276492  11.134   8.370   8.319
58240SOL     OW76493  13.919   3.085  11.206
58240SOL    HW176494  13.892   3.054  11.120
58240SOL    HW276495  14.014   3.092  11.201
58241SOL     OW76496  13.806   9.864  14.418
58241SOL    HW176497  13.865   9.899  14.485
58241SOL    HW276498  13.747   9.805  14.466
58242SOL     OW76499   4.931   8.490  13.203
58242SOL    HW176500   5.025   8.509  13.206
58242SOL    HW276501   4.909   8.464  13.292
58243SOL     OW76502   2.729  13.297   1.571
58243SOL    HW176503   2.705  13.264   1.484
58243SOL    HW276504   2.648  13.292   1.622
58244SOL     OW76505   6.823   2.073   3.074
58244SOL    HW176506   6.820   2.019   2.995
58244SOL    HW276507   6.839   2.011   3.145
58245SOL     OW76508  12.666   4.971   9.469
58245SOL    HW176509  12.611   5.028   9.523
58245SOL    HW276510  12.741   4.950   9.525
58246SOL     OW76511   4.680   3.302  13.905
58246SOL    HW176512   4.624   3.250  13.847
58246SOL    HW276513   4.753   3.329  13.849
58247SOL     OW76514   4.237  13.825  12.978
58247SOL    HW176515   4.176  13.883  13.024
58247SOL    HW276516   4.187  13.744  12.966
58248SOL     OW76517   6.911   6.555   6.669
58248SOL    HW176518   6.941   6.487   6.609
58248SOL    HW276519   6.844   6.512   6.723
58249SOL     OW76520   9.079   4.016  14.682
58249SOL    HW176521   9.035   3.931  14.691
58249SOL    HW276522   9.097   4.023  14.588
58250SOL     OW76523  14.805  13.215  13.472
58250SOL    HW176524  14.877  13.206  13.409
58250SOL    HW276525  14.833  13.163  13.547
58251SOL     OW76526   2.367   1.510   5.207
58251SOL    HW176527   2.361   1.533   5.299
58251SOL    HW276528   2.412   1.584   5.166
58252SOL     OW76529   1.742   5.862   0.194
58252SOL    HW176530   1.804   5.818   0.252
58252SOL    HW276531   1.772   5.841   0.106
58253SOL     OW76532   7.897   5.987   7.174
58253SOL    HW176533   7.892   5.912   7.233
58253SOL    HW276534   7.905   6.063   7.232
58254SOL     OW76535   1.296   5.984   4.886
58254SOL    HW176536   1.287   5.892   4.912
58254SOL    HW276537   1.263   6.034   4.961
58255SOL     OW76538   3.974  11.632  10.798
58255SOL    HW176539   4.065  11.663  10.797
58255SOL    HW276540   3.922  11.711  10.813
58256SOL     OW76541   1.098  10.551   2.379
58256SOL    HW176542   1.096  10.509   2.465
58256SOL    HW276543   1.190  10.573   2.364
58257SOL     OW76544   3.571   9.357  10.154
58257SOL    HW176545   3.656   9.387  10.119
58257SOL    HW276546   3.592   9.278  10.202
58258SOL     OW76547   8.170  12.810   0.400
58258SOL    HW176548   8.265  12.808   0.395
58258SOL    HW276549   8.150  12.886   0.454
58259SOL     OW76550   9.729  11.418  11.086
58259SOL    HW176551   9.754  11.486  11.024
58259SOL    HW276552   9.649  11.380  11.049
58260SOL     OW76553  13.988   1.139  14.539
58260SOL    HW176554  13.920   1.148  14.472
58260SOL    HW276555  14.070   1.137  14.490
58261SOL     OW76556  11.106  11.574   9.867
58261SOL    HW176557  11.125  11.657   9.824
58261SOL    HW276558  11.131  11.507   9.803
58262SOL     OW76559  12.545   0.922   6.608
58262SOL    HW176560  12.545   0.832   6.575
58262SOL    HW276561  12.480   0.922   6.678
58263SOL     OW76562  14.071   2.014   2.513
58263SOL    HW176563  14.147   1.994   2.458
58263SOL    HW276564  14.045   2.102   2.488
58264SOL     OW76565   2.922  14.830   3.477
58264SOL    HW176566   3.011  14.846   3.446
58264SOL    HW276567   2.894  14.751   3.429
58265SOL     OW76568  14.589   4.478  12.971
58265SOL    HW176569  14.645   4.466  12.894
58265SOL    HW276570  14.591   4.392  13.015
58266SOL     OW76571   8.558  11.304   3.488
58266SOL    HW176572   8.474  11.309   3.535
58266SOL    HW276573   8.612  11.371   3.529
58267SOL     OW76574   9.054   0.540   2.686
58267SOL    HW176575   9.076   0.502   2.601
58267SOL    HW276576   9.046   0.634   2.669
58268SOL     OW76577  11.214   8.455   8.007
58268SOL    HW176578  11.204   8.362   7.986
58268SOL    HW276579  11.158   8.469   8.083
58269SOL     OW76580  10.101   8.269  14.429
58269SOL    HW176581  10.013   8.296  14.402
58269SOL    HW276582  10.126   8.201  14.366
58270SOL     OW76583  14.798   0.451   9.967
58270SOL    HW176584  14.802   0.461  10.062
58270SOL    HW276585  14.704   0.444   9.947
58271SOL     OW76586   9.451   5.682   6.277
58271SOL    HW176587   9.515   5.611   6.272
58271SOL    HW276588   9.446   5.703   6.370
58272SOL     OW76589  11.354  14.811   0.870
58272SOL    HW176590  11.302  14.840   0.945
58272SOL    HW276591  11.357  14.716   0.879
58273SOL     OW76592  12.618   1.728   7.197
58273SOL    HW176593  12.530   1.745   7.230
58273SOL    HW276594  12.635   1.636   7.219
58274SOL     OW76595   5.470   3.105   6.008
58274SOL    HW176596   5.405   3.045   6.045
58274SOL    HW276597   5.424   3.188   5.999
58275SOL     OW76598  12.255  11.491   2.678
58275SOL    HW176599  12.198  11.541   2.736
58275SOL    HW276600  12.206  11.411   2.658
58276SOL     OW76601  12.239   9.680   8.615
58276SOL    HW176602  12.232   9.716   8.527
58276SOL    HW276603  12.316   9.721   8.652
58277SOL     OW76604   0.229   0.163  10.283
58277SOL    HW176605   0.228   0.120  10.368
58277SOL    HW276606   0.321   0.184  10.267
58278SOL     OW76607  12.524  11.284   4.867
58278SOL    HW176608  12.527  11.379   4.878
58278SOL    HW276609  12.615  11.256   4.874
58279SOL     OW76610  14.135   8.106  14.140
58279SOL    HW176611  14.149   8.142  14.053
58279SOL    HW276612  14.097   8.177  14.191
58280SOL     OW76613   7.351  13.930  11.631
58280SOL    HW176614   7.264  13.953  11.663
58280SOL    HW276615   7.365  13.841  11.663
58281SOL     OW76616   7.408   4.113   3.961
58281SOL    HW176617   7.341   4.175   3.934
58281SOL    HW276618   7.478   4.123   3.897
58282SOL     OW76619  11.559   6.255   4.021
58282SOL    HW176620  11.636   6.199   4.028
58282SOL    HW276621  11.485   6.196   4.038
58283SOL     OW76622  11.246   1.916   1.872
58283SOL    HW176623  11.230   1.822   1.859
58283SOL    HW276624  11.297   1.942   1.795
58284SOL     OW76625   1.523   4.014   8.679
58284SOL    HW176626   1.553   4.055   8.760
58284SOL    HW276627   1.444   3.966   8.704
58285SOL     OW76628   4.839   7.395   5.948
58285SOL    HW176629   4.744   7.383   5.940
58285SOL    HW276630   4.875   7.354   5.869
58286SOL     OW76631   2.971   9.553  12.262
58286SOL    HW176632   3.007   9.531  12.348
58286SOL    HW276633   2.877   9.539  12.272
58287SOL     OW76634   1.715  10.991   0.413
58287SOL    HW176635   1.642  11.003   0.474
58287SOL    HW276636   1.729  11.078   0.375
58288SOL     OW76637   7.377   8.493   2.419
58288SOL    HW176638   7.426   8.494   2.501
58288SOL    HW276639   7.443   8.474   2.352
58289SOL     OW76640  11.464  12.286  10.624
58289SOL    HW176641  11.528  12.322  10.562
58289SOL    HW276642  11.439  12.360  10.679
58290SOL     OW76643   7.771   7.592  13.126
58290SOL    HW176644   7.719   7.530  13.178
58290SOL    HW276645   7.752   7.569  13.035
58291SOL     OW76646   8.510   9.412   8.280
58291SOL    HW176647   8.572   9.342   8.257
58291SOL    HW276648   8.565   9.486   8.306
58292SOL     OW76649   6.434  11.608   9.291
58292SOL    HW176650   6.340  11.595   9.307
58292SOL    HW276651   6.468  11.520   9.277
58293SOL     OW76652   2.211  11.874   2.387
58293SOL    HW176653   2.150  11.812   2.346
58293SOL    HW276654   2.212  11.848   2.479
58294SOL     OW76655   6.078  12.429   4.737
58294SOL    HW176656   6.082  12.508   4.682
58294SOL    HW276657   6.167  12.396   4.738
58295SOL     OW76658   0.352   1.502   0.625
58295SOL    HW176659   0.387   1.534   0.542
58295SOL    HW276660   0.413   1.533   0.691
58296SOL     OW76661   5.501   4.952  11.605
58296SOL    HW176662   5.412   4.978  11.626
58296SOL    HW276663   5.506   4.959  11.509
58297SOL     OW76664   7.922   9.304  12.476
58297SOL    HW176665   7.996   9.354  12.509
58297SOL    HW276666   7.850   9.367  12.472
58298SOL     OW76667   1.233   2.926   8.578
58298SOL    HW176668   1.171   2.990   8.543
58298SOL    HW276669   1.206   2.913   8.669
58299SOL     OW76670  14.667  14.102   3.169
58299SOL    HW176671  14.633  14.045   3.101
58299SOL    HW276672  14.591  14.147   3.204
58300SOL     OW76673   7.206   7.027   3.371
58300SOL    HW176674   7.174   7.049   3.458
58300SOL    HW276675   7.138   7.058   3.311
58301SOL     OW76676   3.165  12.269  13.840
58301SOL    HW176677   3.135  12.296  13.753
58301SOL    HW276678   3.260  12.284  13.837
58302SOL     OW76679  14.393   1.539  12.807
58302SOL    HW176680  14.427   1.618  12.849
58302SOL    HW276681  14.451   1.469  12.838
58303SOL     OW76682   3.926   2.903   8.122
58303SOL    HW176683   3.972   2.896   8.038
58303SOL    HW276684   3.837   2.872   8.103
58304SOL     OW76685  13.200   2.268  13.622
58304SOL    HW176686  13.122   2.224  13.658
58304SOL    HW276687  13.223   2.333  13.688
58305SOL     OW76688   2.315   8.420   8.214
58305SOL    HW176689   2.221   8.436   8.221
58305SOL    HW276690   2.356   8.494   8.259
58306SOL     OW76691   3.970   1.575  13.091
58306SOL    HW176692   3.900   1.539  13.037
58306SOL    HW276693   4.033   1.611  13.029
58307SOL     OW76694  10.848  11.560   7.558
58307SOL    HW176695  10.786  11.588   7.490
58307SOL    HW276696  10.933  11.591   7.527
58308SOL     OW76697  13.643   6.792   1.704
58308SOL    HW176698  13.632   6.733   1.778
58308SOL    HW276699  13.737   6.810   1.702
58309SOL     OW76700  13.647   3.780   8.629
58309SOL    HW176701  13.669   3.870   8.654
58309SOL    HW276702  13.725   3.748   8.584
58310SOL     OW76703  10.814   9.530   5.919
58310SOL    HW176704  10.854   9.609   5.881
58310SOL    HW276705  10.886   9.483   5.960
58311SOL     OW76706   3.173  11.693   7.373
58311SOL    HW176707   3.100  11.640   7.341
58311SOL    HW276708   3.132  11.758   7.430
58312SOL     OW76709   5.232   8.382  13.661
58312SOL    HW176710   5.173   8.433  13.607
58312SOL    HW276711   5.211   8.291  13.640
58313SOL     OW76712  10.736   2.445   0.565
58313SOL    HW176713  10.831   2.431   0.565
58313SOL    HW276714  10.725   2.531   0.604
58314SOL     OW76715  14.591   7.491   4.930
58314SOL    HW176716  14.547   7.458   5.009
58314SOL    HW276717  14.520   7.514   4.871
58315SOL     OW76718  13.693  11.434   0.280
58315SOL    HW176719  13.712  11.352   0.325
58315SOL    HW276720  13.777  11.479   0.275
58316SOL     OW76721  14.020  14.766   9.772
58316SOL    HW176722  14.068  14.782   9.691
58316SOL    HW276723  14.082  14.719   9.828
58317SOL     OW76724  12.172  10.711  10.961
58317SOL    HW176725  12.099  10.675  11.011
58317SOL    HW276726  12.167  10.668  10.876
58318SOL     OW76727   6.170   2.293   5.826
58318SOL    HW176728   6.248   2.315   5.877
58318SOL    HW276729   6.156   2.368   5.769
58319SOL     OW76730  10.257   5.861   4.605
58319SOL    HW176731  10.182   5.839   4.662
58319SOL    HW276732  10.288   5.945   4.638
58320SOL     OW76733  12.937  13.611  10.351
58320SOL    HW176734  13.017  13.575  10.389
58320SOL    HW276735  12.896  13.659  10.424
58321SOL     OW76736   4.912   6.309  14.178
58321SOL    HW176737   4.824   6.274  14.167
58321SOL    HW276738   4.963   6.268  14.108
58322SOL     OW76739  14.422   2.064  11.983
58322SOL    HW176740  14.476   2.111  11.919
58322SOL    HW276741  14.478   1.994  12.015
58323SOL     OW76742  13.071   1.585   9.128
58323SOL    HW176743  13.116   1.509   9.166
58323SOL    HW276744  13.142   1.643   9.100
58324SOL     OW76745   3.739   9.468  12.416
58324SOL    HW176746   3.661   9.435  12.459
58324SOL    HW276747   3.770   9.539  12.473
58325SOL     OW76748   0.698   3.850   6.174
58325SOL    HW176749   0.670   3.914   6.109
58325SOL    HW276750   0.773   3.891   6.217
58326SOL     OW76751  11.624   7.067  13.335
58326SOL    HW176752  11.701   7.011  13.342
58326SOL    HW276753  11.648   7.131  13.267
58327SOL     OW76754  12.281   7.439   6.351
58327SOL    HW176755  12.315   7.361   6.306
58327SOL    HW276756  12.213   7.472   6.292
58328SOL     OW76757   0.747   4.086   5.328
58328SOL    HW176758   0.683   4.140   5.281
58328SOL    HW276759   0.818   4.073   5.264
58329SOL     OW76760   2.669  11.054   2.875
58329SOL    HW176761   2.720  11.105   2.813
58329SOL    HW276762   2.716  11.062   2.958
58330SOL     OW76763   3.955  10.067   7.336
58330SOL    HW176764   3.887  10.055   7.269
58330SOL    HW276765   3.907  10.078   7.418
58331SOL     OW76766  10.875   3.377  13.113
58331SOL    HW176767  10.807   3.373  13.046
58331SOL    HW276768  10.915   3.463  13.101
58332SOL     OW76769   7.612   7.868   4.521
58332SOL    HW176770   7.617   7.773   4.525
58332SOL    HW276771   7.529   7.889   4.564
58333SOL     OW76772   8.990  11.199   8.454
58333SOL    HW176773   8.968  11.112   8.421
58333SOL    HW276774   8.997  11.254   8.375
58334SOL     OW76775  10.105  11.030   7.390
58334SOL    HW176776  10.160  11.033   7.312
58334SOL    HW276777  10.109  11.118   7.426
58335SOL     OW76778   0.449   0.262   4.275
58335SOL    HW176779   0.419   0.187   4.327
58335SOL    HW276780   0.454   0.229   4.186
58336SOL     OW76781   1.384   6.460   2.202
58336SOL    HW176782   1.463   6.408   2.212
58336SOL    HW276783   1.339   6.422   2.126
58337SOL     OW76784   5.876  13.443   8.591
58337SOL    HW176785   5.821  13.374   8.629
58337SOL    HW276786   5.816  13.514   8.571
58338SOL     OW76787   5.625  10.598  11.629
58338SOL    HW176788   5.644  10.661  11.559
58338SOL    HW276789   5.563  10.537  11.589
58339SOL     OW76790  14.230   2.398   6.535
58339SOL    HW176791  14.250   2.370   6.446
58339SOL    HW276792  14.162   2.464   6.525
58340SOL     OW76793   5.325   5.291  10.750
58340SOL    HW176794   5.365   5.228  10.690
58340SOL    HW276795   5.376   5.283  10.831
58341SOL     OW76796  14.297   6.768   9.035
58341SOL    HW176797  14.383   6.757   8.994
58341SOL    HW276798  14.317   6.775   9.129
58342SOL     OW76799  11.446   1.560  12.878
58342SOL    HW176800  11.444   1.469  12.908
58342SOL    HW276801  11.514   1.561  12.810
58343SOL     OW76802   7.712   8.853   3.169
58343SOL    HW176803   7.776   8.794   3.130
58343SOL    HW276804   7.632   8.800   3.176
58344SOL     OW76805   4.075  14.335   3.812
58344SOL    HW176806   4.098  14.299   3.726
58344SOL    HW276807   4.121  14.419   3.815
58345SOL     OW76808   4.780   0.072  10.474
58345SOL    HW176809   4.767   0.154  10.427
58345SOL    HW276810   4.831   0.018  10.414
58346SOL     OW76811   3.532   2.445   3.432
58346SOL    HW176812   3.513   2.414   3.343
58346SOL    HW276813   3.606   2.505   3.421
58347SOL     OW76814   4.120  10.060   8.619
58347SOL    HW176815   4.183  10.131   8.628
58347SOL    HW276816   4.173   9.983   8.601
58348SOL     OW76817   4.487  14.456   6.530
58348SOL    HW176818   4.557  14.399   6.498
58348SOL    HW276819   4.441  14.404   6.595
58349SOL     OW76820  10.299  11.892  14.501
58349SOL    HW176821  10.223  11.849  14.540
58349SOL    HW276822  10.275  11.905  14.409
58350SOL     OW76823   1.995   5.656   5.123
58350SOL    HW176824   1.939   5.726   5.090
58350SOL    HW276825   1.946   5.617   5.195
58351SOL     OW76826   7.660   0.032   6.100
58351SOL    HW176827   7.668  14.839   6.159
58351SOL    HW276828   7.732   0.090   6.124
58352SOL     OW76829   0.951   0.199   5.980
58352SOL    HW176830   0.857   0.215   5.985
58352SOL    HW276831   0.962   0.142   5.904
58353SOL     OW76832   8.949  12.520   4.712
58353SOL    HW176833   8.930  12.575   4.789
58353SOL    HW276834   9.002  12.448   4.746
58354SOL     OW76835   7.685   7.653   8.988
58354SOL    HW176836   7.591   7.649   8.969
58354SOL    HW276837   7.720   7.716   8.924
58355SOL     OW76838   9.795  10.580   9.812
58355SOL    HW176839   9.864  10.643   9.795
58355SOL    HW276840   9.776  10.589   9.906
58356SOL     OW76841   4.113  13.708   8.505
58356SOL    HW176842   4.078  13.762   8.576
58356SOL    HW276843   4.120  13.620   8.543
58357SOL     OW76844  11.366   3.316   6.426
58357SOL    HW176845  11.408   3.366   6.356
58357SOL    HW276846  11.274   3.340   6.422
58358SOL     OW76847   6.479   9.960   2.444
58358SOL    HW176848   6.451   9.877   2.482
58358SOL    HW276849   6.458   9.953   2.351
58359SOL     OW76850  12.159   6.503   3.647
58359SOL    HW176851  12.071   6.538   3.632
58359SOL    HW276852  12.204   6.572   3.697
58360SOL     OW76853   1.155   6.949   0.187
58360SOL    HW176854   1.239   6.919   0.221
58360SOL    HW276855   1.132   7.024   0.243
58361SOL     OW76856   4.812  13.435   1.524
58361SOL    HW176857   4.846  13.499   1.461
58361SOL    HW276858   4.799  13.355   1.474
58362SOL     OW76859   9.824  14.187   8.488
58362SOL    HW176860   9.915  14.213   8.504
58362SOL    HW276861   9.804  14.223   8.402
58363SOL     OW76862  11.297  14.728   2.346
58363SOL    HW176863  11.256  14.706   2.263
58363SOL    HW276864  11.288  14.649   2.400
58364SOL     OW76865   3.583   2.865  12.984
58364SOL    HW176866   3.613   2.774  12.985
58364SOL    HW276867   3.659   2.916  13.014
58365SOL     OW76868   9.097  12.627   7.285
58365SOL    HW176869   9.092  12.531   7.279
58365SOL    HW276870   9.089  12.646   7.378
58366SOL     OW76871   3.933  13.897  11.844
58366SOL    HW176872   3.921  13.977  11.896
58366SOL    HW276873   4.003  13.918  11.782
58367SOL     OW76874   7.535   0.573  14.828
58367SOL    HW176875   7.594   0.620  14.768
58367SOL    HW276876   7.456   0.626  14.830
58368SOL     OW76877   5.852   4.387   1.750
58368SOL    HW176878   5.812   4.301   1.764
58368SOL    HW276879   5.854   4.427   1.837
58369SOL     OW76880  11.649   7.168  10.675
58369SOL    HW176881  11.686   7.091  10.631
58369SOL    HW276882  11.724   7.207  10.720
58370SOL     OW76883   1.550   4.183   2.455
58370SOL    HW176884   1.486   4.206   2.523
58370SOL    HW276885   1.550   4.087   2.453
58371SOL     OW76886   5.904   2.428   3.490
58371SOL    HW176887   5.972   2.495   3.494
58371SOL    HW276888   5.830   2.472   3.449
58372SOL     OW76889  10.212  12.384   9.318
58372SOL    HW176890  10.180  12.448   9.382
58372SOL    HW276891  10.224  12.435   9.238
58373SOL     OW76892   2.207   8.009   0.609
58373SOL    HW176893   2.275   8.060   0.654
58373SOL    HW276894   2.217   7.921   0.644
58374SOL     OW76895   0.073  12.804  10.446
58374SOL    HW176896   0.158  12.802  10.491
58374SOL    HW276897   0.015  12.851  10.505
58375SOL     OW76898   5.938  12.708   6.299
58375SOL    HW176899   5.873  12.773   6.275
58375SOL    HW276900   6.022  12.750   6.279
58376SOL     OW76901   1.670   4.507   0.561
58376SOL    HW176902   1.708   4.582   0.608
58376SOL    HW276903   1.743   4.445   0.551
58377SOL     OW76904  11.019  11.164   3.669
58377SOL    HW176905  11.082  11.230   3.700
58377SOL    HW276906  11.058  11.080   3.693
58378SOL     OW76907  14.460   4.792   6.553
58378SOL    HW176908  14.466   4.832   6.466
58378SOL    HW276909  14.373   4.753   6.555
58379SOL     OW76910   9.788   6.437   4.428
58379SOL    HW176911   9.755   6.459   4.341
58379SOL    HW276912   9.709   6.423   4.481
58380SOL     OW76913   6.203  14.230   3.794
58380SOL    HW176914   6.267  14.293   3.761
58380SOL    HW276915   6.119  14.263   3.760
58381SOL     OW76916  12.383   3.783   6.666
58381SOL    HW176917  12.435   3.757   6.742
58381SOL    HW276918  12.301   3.736   6.675
58382SOL     OW76919  12.631   9.949   1.310
58382SOL    HW176920  12.546   9.948   1.265
58382SOL    HW276921  12.649  10.042   1.326
58383SOL     OW76922   1.420   1.908   7.131
58383SOL    HW176923   1.507   1.929   7.096
58383SOL    HW276924   1.363   1.976   7.097
58384SOL     OW76925  12.075   6.962  14.354
58384SOL    HW176926  12.060   6.926  14.442
58384SOL    HW276927  12.091   7.055  14.369
58385SOL     OW76928   9.935   0.509  12.026
58385SOL    HW176929   9.868   0.526  12.092
58385SOL    HW276930   9.906   0.430  11.982
58386SOL     OW76931   8.025   3.364  10.736
58386SOL    HW176932   8.070   3.287  10.770
58386SOL    HW276933   8.035   3.357  10.641
58387SOL     OW76934   6.128  14.860   6.685
58387SOL    HW176935   6.055   0.032   6.717
58387SOL    HW276936   6.112  14.853   6.591
58388SOL     OW76937   2.804   3.580   6.733
58388SOL    HW176938   2.816   3.645   6.663
58388SOL    HW276939   2.730   3.613   6.784
58389SOL     OW76940  11.943  13.353   1.349
58389SOL    HW176941  11.912  13.335   1.261
58389SOL    HW276942  12.030  13.392   1.336
58390SOL     OW76943   1.341   0.674   9.411
58390SOL    HW176944   1.349   0.765   9.439
58390SOL    HW276945   1.401   0.626   9.469
58391SOL     OW76946  11.824   5.859  14.479
58391SOL    HW176947  11.893   5.866  14.413
58391SOL    HW276948  11.854   5.790  14.538
58392SOL     OW76949  14.760  12.770   1.189
58392SOL    HW176950  14.777  12.676   1.192
58392SOL    HW276951  14.741  12.787   1.096
58393SOL     OW76952  14.211  12.424   3.387
58393SOL    HW176953  14.305  12.404   3.389
58393SOL    HW276954  14.170  12.347   3.426
58394SOL     OW76955   5.707   8.455   1.495
58394SOL    HW176956   5.672   8.373   1.460
58394SOL    HW276957   5.663   8.523   1.444
58395SOL     OW76958  14.372   8.184  12.238
58395SOL    HW176959  14.380   8.141  12.323
58395SOL    HW276960  14.419   8.267  12.249
58396SOL     OW76961   1.639   6.096   7.522
58396SOL    HW176962   1.680   6.128   7.602
58396SOL    HW276963   1.546   6.089   7.544
58397SOL     OW76964  12.050  10.920  14.605
58397SOL    HW176965  12.102  10.871  14.668
58397SOL    HW276966  12.072  10.880  14.520
58398SOL     OW76967  14.192  11.427  13.087
58398SOL    HW176968  14.111  11.403  13.131
58398SOL    HW276969  14.233  11.491  13.146
58399SOL     OW76970  10.022   7.911   0.154
58399SOL    HW176971   9.974   7.903   0.237
58399SOL    HW276972  10.071   7.829   0.147
58400SOL     OW76973   5.916  12.440   8.924
58400SOL    HW176974   5.864  12.520   8.932
58400SOL    HW276975   5.994  12.468   8.877
58401SOL     OW76976   1.220   8.384   3.989
58401SOL    HW176977   1.161   8.422   4.054
58401SOL    HW276978   1.304   8.428   4.004
58402SOL     OW76979   8.208   0.120   4.795
58402SOL    HW176980   8.152   0.067   4.852
58402SOL    HW276981   8.297   0.089   4.812
58403SOL     OW76982   5.350   7.411  11.809
58403SOL    HW176983   5.340   7.436  11.901
58403SOL    HW276984   5.260   7.407  11.776
58404SOL     OW76985   2.819  14.081   0.178
58404SOL    HW176986   2.864  14.053   0.258
58404SOL    HW276987   2.859  14.029   0.109
58405SOL     OW76988   5.218  13.111  12.196
58405SOL    HW176989   5.195  13.071  12.280
58405SOL    HW276990   5.282  13.052  12.158
58406SOL     OW76991   0.918   6.981   1.544
58406SOL    HW176992   0.973   6.972   1.467
58406SOL    HW276993   0.829   6.966   1.512
58407SOL     OW76994  13.291   0.735   1.629
58407SOL    HW176995  13.372   0.734   1.681
58407SOL    HW276996  13.266   0.827   1.626
58408SOL     OW76997  11.851  11.028   1.559
58408SOL    HW176998  11.853  10.985   1.644
58408SOL    HW276999  11.936  11.071   1.552
58409SOL     OW77000   2.767  10.747  11.299
58409SOL    HW177001   2.742  10.690  11.371
58409SOL    HW277002   2.847  10.791  11.329
58410SOL     OW77003   8.609   2.838   7.630
58410SOL    HW177004   8.671   2.812   7.698
58410SOL    HW277005   8.584   2.927   7.653
58411SOL     OW77006  13.640   5.599  14.429
58411SOL    HW177007  13.710   5.536  14.414
58411SOL    HW277008  13.683   5.685  14.426
58412SOL     OW77009   6.960   3.348   1.121
58412SOL    HW177010   7.053   3.362   1.106
58412SOL    HW277011   6.934   3.285   1.054
58413SOL     OW77012   6.764   2.273  13.934
58413SOL    HW177013   6.691   2.248  13.991
58413SOL    HW277014   6.797   2.191  13.899
58414SOL     OW77015  13.573   1.272   6.146
58414SOL    HW177016  13.533   1.342   6.197
58414SOL    HW277017  13.518   1.265   6.068
58415SOL     OW77018   2.636   7.850  10.923
58415SOL    HW177019   2.699   7.801  10.870
58415SOL    HW277020   2.558   7.854  10.868
58416SOL     OW77021   3.059   1.065   7.661
58416SOL    HW177022   3.068   1.021   7.746
58416SOL    HW277023   2.974   1.110   7.666
58417SOL     OW77024   4.972  10.578   6.321
58417SOL    HW177025   4.956  10.666   6.287
58417SOL    HW277026   4.886  10.547   6.349
58418SOL     OW77027   6.267   1.132   2.558
58418SOL    HW177028   6.201   1.121   2.627
58418SOL    HW277029   6.228   1.091   2.481
58419SOL     OW77030   0.688   9.907   8.947
58419SOL    HW177031   0.774   9.933   8.980
58419SOL    HW277032   0.699   9.899   8.853
58420SOL     OW77033   4.839  13.591   3.334
58420SOL    HW177034   4.872  13.513   3.290
58420SOL    HW277035   4.909  13.618   3.393
58421SOL     OW77036  13.915   3.691   7.189
58421SOL    HW177037  13.906   3.659   7.099
58421SOL    HW277038  13.986   3.756   7.184
58422SOL     OW77039  14.598  11.558   7.270
58422SOL    HW177040  14.618  11.504   7.347
58422SOL    HW277041  14.612  11.499   7.196
58423SOL     OW77042   3.470   9.075   9.606
58423SOL    HW177043   3.435   9.103   9.522
58423SOL    HW277044   3.524   9.148   9.636
58424SOL     OW77045   5.802   2.993   4.973
58424SOL    HW177046   5.734   2.936   4.938
58424SOL    HW277047   5.760   3.040   5.044
58425SOL     OW77048  14.860   3.045   6.687
58425SOL    HW177049   0.013   3.132   6.709
58425SOL    HW277050   0.043   2.984   6.723
58426SOL     OW77051  12.142  12.416  12.221
58426SOL    HW177052  12.208  12.404  12.154
58426SOL    HW277053  12.086  12.339  12.214
58427SOL     OW77054   1.574   8.615  11.117
58427SOL    HW177055   1.594   8.707  11.098
58427SOL    HW277056   1.519   8.586  11.044
58428SOL     OW77057   3.237   2.960   1.565
58428SOL    HW177058   3.226   3.055   1.560
58428SOL    HW277059   3.162   2.926   1.515
58429SOL     OW77060   7.375   8.209   0.356
58429SOL    HW177061   7.424   8.136   0.318
58429SOL    HW277062   7.414   8.287   0.315
58430SOL     OW77063   2.754   8.875  13.310
58430SOL    HW177064   2.745   8.934  13.385
58430SOL    HW277065   2.812   8.922  13.250
58431SOL     OW77066  12.705  10.752   2.474
58431SOL    HW177067  12.623  10.704   2.487
58431SOL    HW277068  12.717  10.754   2.379
58432SOL     OW77069   3.716  13.234   9.273
58432SOL    HW177070   3.737  13.197   9.187
58432SOL    HW277071   3.625  13.208   9.289
58433SOL     OW77072  14.561  13.345  11.661
58433SOL    HW177073  14.501  13.314  11.594
58433SOL    HW277074  14.648  13.330  11.625
58434SOL     OW77075   9.035  11.082  14.801
58434SOL    HW177076   8.958  11.035  14.768
58434SOL    HW277077   9.107  11.021  14.788
58435SOL     OW77078   3.401  13.638   5.952
58435SOL    HW177079   3.340  13.647   6.024
58435SOL    HW277080   3.476  13.592   5.990
58436SOL     OW77081   7.881   4.866   0.908
58436SOL    HW177082   7.826   4.940   0.885
58436SOL    HW277083   7.859   4.798   0.844
58437SOL     OW77084  10.266   7.525   3.458
58437SOL    HW177085  10.222   7.497   3.538
58437SOL    HW277086  10.357   7.499   3.470
58438SOL     OW77087   9.866  12.785  14.736
58438SOL    HW177088   9.913  12.805  14.817
58438SOL    HW277089   9.933  12.746  14.679
58439SOL     OW77090   2.776   4.822   0.281
58439SOL    HW177091   2.840   4.877   0.235
58439SOL    HW277092   2.709   4.803   0.216
58440SOL     OW77093  10.970   6.567  11.107
58440SOL    HW177094  10.939   6.492  11.158
58440SOL    HW277095  10.890   6.607  11.073
58441SOL     OW77096   6.318   5.387  11.429
58441SOL    HW177097   6.359   5.357  11.348
58441SOL    HW277098   6.307   5.308  11.481
58442SOL     OW77099  10.131  10.526   8.482
58442SOL    HW177100  10.168  10.612   8.461
58442SOL    HW277101  10.133  10.479   8.399
58443SOL     OW77102   6.586   0.882   0.697
58443SOL    HW177103   6.679   0.880   0.720
58443SOL    HW277104   6.548   0.808   0.745
58444SOL     OW77105   7.636  11.932   2.222
58444SOL    HW177106   7.582  11.995   2.270
58444SOL    HW277107   7.708  11.984   2.187
58445SOL     OW77108  11.064  12.164   6.572
58445SOL    HW177109  11.072  12.070   6.585
58445SOL    HW277110  11.050  12.200   6.660
58446SOL     OW77111   7.709   6.265   2.228
58446SOL    HW177112   7.758   6.283   2.147
58446SOL    HW277113   7.626   6.229   2.198
58447SOL     OW77114   9.292  10.208   5.354
58447SOL    HW177115   9.245  10.223   5.271
58447SOL    HW277116   9.261  10.277   5.412
58448SOL     OW77117   2.006   5.783   2.102
58448SOL    HW177118   1.942   5.744   2.042
58448SOL    HW277119   1.956   5.851   2.148
58449SOL     OW77120   1.914   0.147   2.498
58449SOL    HW177121   1.864   0.078   2.454
58449SOL    HW277122   1.999   0.148   2.454
58450SOL     OW77123   3.362   6.330   9.137
58450SOL    HW177124   3.289   6.391   9.121
58450SOL    HW277125   3.412   6.371   9.207
58451SOL     OW77126   5.146   0.748   8.365
58451SOL    HW177127   5.198   0.729   8.443
58451SOL    HW277128   5.211   0.770   8.298
58452SOL     OW77129  13.680   1.882   0.761
58452SOL    HW177130  13.591   1.913   0.744
58452SOL    HW277131  13.676   1.788   0.744
58453SOL     OW77132   0.697  11.749   4.796
58453SOL    HW177133   0.766  11.682   4.791
58453SOL    HW277134   0.690  11.770   4.889
58454SOL     OW77135   8.974  11.924   9.988
58454SOL    HW177136   9.045  11.915   9.924
58454SOL    HW277137   8.894  11.919   9.936
58455SOL     OW77138   6.432  11.310   5.991
58455SOL    HW177139   6.413  11.270   6.076
58455SOL    HW277140   6.520  11.280   5.970
58456SOL     OW77141   4.814   9.417   1.366
58456SOL    HW177142   4.896   9.462   1.350
58456SOL    HW277143   4.820   9.336   1.316
58457SOL     OW77144   8.952  11.788   0.671
58457SOL    HW177145   8.988  11.865   0.715
58457SOL    HW277146   9.003  11.715   0.705
58458SOL     OW77147  11.211   3.162   7.783
58458SOL    HW177148  11.129   3.183   7.829
58458SOL    HW277149  11.270   3.233   7.808
58459SOL     OW77150  10.472   5.860   1.519
58459SOL    HW177151  10.552   5.868   1.467
58459SOL    HW277152  10.413   5.926   1.483
58460SOL     OW77153   6.569   7.629   5.207
58460SOL    HW177154   6.506   7.602   5.273
58460SOL    HW277155   6.525   7.697   5.156
58461SOL     OW77156   2.544  14.004   0.164
58461SOL    HW177157   2.635  14.032   0.155
58461SOL    HW277158   2.511  14.000   0.074
58462SOL     OW77159   6.738  10.658   5.551
58462SOL    HW177160   6.826  10.685   5.574
58462SOL    HW277161   6.736  10.563   5.568
58463SOL     OW77162   8.160   6.558   1.024
58463SOL    HW177163   8.152   6.477   1.075
58463SOL    HW277164   8.193   6.622   1.085
58464SOL     OW77165  14.025   7.370   4.067
58464SOL    HW177166  14.102   7.371   4.124
58464SOL    HW277167  13.957   7.326   4.118
58465SOL     OW77168   0.194   4.654   8.101
58465SOL    HW177169   0.278   4.628   8.139
58465SOL    HW277170   0.151   4.704   8.171
58466SOL     OW77171   7.220   7.317   2.513
58466SOL    HW177172   7.232   7.360   2.598
58466SOL    HW277173   7.307   7.287   2.488
58467SOL     OW77174   5.847  14.516   9.819
58467SOL    HW177175   5.881  14.543   9.733
58467SOL    HW277176   5.900  14.565   9.882
58468SOL     OW77177   0.222   7.692   5.259
58468SOL    HW177178   0.200   7.756   5.326
58468SOL    HW277179   0.146   7.690   5.201
58469SOL     OW77180  13.192   6.057  10.814
58469SOL    HW177181  13.190   6.047  10.719
58469SOL    HW277182  13.191   5.967  10.848
58470SOL     OW77183   6.694   0.206  11.526
58470SOL    HW177184   6.788   0.202  11.507
58470SOL    HW277185   6.682   0.144  11.597
58471SOL     OW77186  13.183   0.021   6.752
58471SOL    HW177187  13.201   0.116   6.754
58471SOL    HW277188  13.092   0.013   6.780
58472SOL     OW77189   1.419   5.156   1.937
58472SOL    HW177190   1.483   5.206   1.987
58472SOL    HW277191   1.347   5.217   1.921
58473SOL     OW77192   3.572   3.081   2.028
58473SOL    HW177193   3.650   3.133   2.046
58473SOL    HW277194   3.555   3.094   1.934
58474SOL     OW77195   4.297   6.519   0.287
58474SOL    HW177196   4.363   6.473   0.235
58474SOL    HW277197   4.330   6.514   0.377
58475SOL     OW77198  11.729   3.296  11.832
58475SOL    HW177199  11.650   3.310  11.884
58475SOL    HW277200  11.797   3.346  11.876
58476SOL     OW77201   3.361   7.195  12.778
58476SOL    HW177202   3.335   7.275  12.822
58476SOL    HW277203   3.332   7.125  12.837
58477SOL     OW77204   5.527   1.392   8.128
58477SOL    HW177205   5.507   1.326   8.062
58477SOL    HW277206   5.448   1.445   8.134
58478SOL     OW77207  10.675  11.343   5.397
58478SOL    HW177208  10.748  11.401   5.377
58478SOL    HW277209  10.620  11.393   5.457
58479SOL     OW77210   0.269  14.083   2.059
58479SOL    HW177211   0.252  13.988   2.059
58479SOL    HW277212   0.256  14.109   2.150
58480SOL     OW77213   8.658  11.384   6.737
58480SOL    HW177214   8.721  11.386   6.665
58480SOL    HW277215   8.591  11.323   6.708
58481SOL     OW77216   3.485   2.598   7.804
58481SOL    HW177217   3.434   2.678   7.794
58481SOL    HW277218   3.441   2.550   7.874
58482SOL     OW77219  13.247   1.360   9.189
58482SOL    HW177220  13.283   1.395   9.108
58482SOL    HW277221  13.213   1.274   9.165
58483SOL     OW77222  10.013   3.556   1.015
58483SOL    HW177223   9.981   3.532   0.929
58483SOL    HW277224   9.959   3.631   1.041
58484SOL     OW77225   0.993  10.012  11.700
58484SOL    HW177226   0.953  10.099  11.704
58484SOL    HW277227   1.087  10.029  11.704
58485SOL     OW77228   0.177   7.014   4.228
58485SOL    HW177229   0.191   7.093   4.177
58485SOL    HW277230   0.109   7.038   4.291
58486SOL     OW77231   0.353   4.137   3.683
58486SOL    HW177232   0.278   4.182   3.644
58486SOL    HW277233   0.386   4.198   3.748
58487SOL     OW77234  11.081   8.996   1.990
58487SOL    HW177235  10.990   8.978   2.014
58487SOL    HW277236  11.103   8.929   1.926
58488SOL     OW77237   7.735   0.570  10.664
58488SOL    HW177238   7.677   0.618  10.723
58488SOL    HW277239   7.791   0.519  10.722
58489SOL     OW77240  14.519   6.581  13.371
58489SOL    HW177241  14.606   6.559  13.338
58489SOL    HW277242  14.498   6.665  13.330
58490SOL     OW77243   0.808   6.370   7.123
58490SOL    HW177244   0.830   6.279   7.144
58490SOL    HW277245   0.746   6.363   7.049
58491SOL     OW77246   3.592  12.969   2.988
58491SOL    HW177247   3.628  13.045   3.033
58491SOL    HW277248   3.533  12.928   3.051
58492SOL     OW77249   4.936   9.325  13.707
58492SOL    HW177250   4.862   9.268  13.689
58492SOL    HW277251   4.982   9.284  13.780
58493SOL     OW77252  10.151   2.813   6.895
58493SOL    HW177253  10.239   2.788   6.923
58493SOL    HW277254  10.093   2.758   6.948
58494SOL     OW77255   6.213  14.053  14.671
58494SOL    HW177256   6.267  14.102  14.732
58494SOL    HW277257   6.206  14.109  14.594
58495SOL     OW77258   3.132   6.130  12.581
58495SOL    HW177259   3.205   6.068  12.586
58495SOL    HW277260   3.085   6.118  12.663
58496SOL     OW77261   6.654   8.735   2.855
58496SOL    HW177262   6.617   8.819   2.829
58496SOL    HW277263   6.598   8.670   2.813
58497SOL     OW77264   5.737   7.812   3.677
58497SOL    HW177265   5.689   7.776   3.602
58497SOL    HW277266   5.829   7.793   3.658
58498SOL     OW77267   2.232   3.005  13.475
58498SOL    HW177268   2.252   3.005  13.568
58498SOL    HW277269   2.261   3.091  13.444
58499SOL     OW77270   1.524  14.783   8.332
58499SOL    HW177271   1.575  14.728   8.272
58499SOL    HW277272   1.574  14.865   8.338
58500SOL     OW77273   8.418   2.108   4.456
58500SOL    HW177274   8.462   2.192   4.450
58500SOL    HW277275   8.377   2.108   4.542
58501SOL     OW77276  12.391   6.057   9.744
58501SOL    HW177277  12.385   6.106   9.826
58501SOL    HW277278  12.469   6.003   9.754
58502SOL     OW77279  10.526   6.408  13.857
58502SOL    HW177280  10.553   6.500  13.866
58502SOL    HW277281  10.561   6.365  13.935
58503SOL     OW77282  11.637  11.123   0.380
58503SOL    HW177283  11.674  11.140   0.293
58503SOL    HW277284  11.614  11.210   0.413
58504SOL     OW77285  11.112   0.696   4.704
58504SOL    HW177286  11.029   0.660   4.672
58504SOL    HW277287  11.104   0.791   4.693
58505SOL     OW77288  11.287   3.203   1.654
58505SOL    HW177289  11.208   3.177   1.701
58505SOL    HW277290  11.358   3.162   1.702
58506SOL     OW77291   6.335  11.152   8.025
58506SOL    HW177292   6.409  11.143   7.965
58506SOL    HW277293   6.305  11.242   8.013
58507SOL     OW77294   9.814  14.648   7.314
58507SOL    HW177295   9.907  14.639   7.334
58507SOL    HW277296   9.787  14.563   7.280
58508SOL     OW77297  10.589   3.902  14.294
58508SOL    HW177298  10.684   3.903  14.280
58508SOL    HW277299  10.578   3.871  14.384
58509SOL     OW77300   9.486   6.263   9.559
58509SOL    HW177301   9.429   6.313   9.500
58509SOL    HW277302   9.426   6.218   9.617
58510SOL     OW77303   2.369   4.718   0.169
58510SOL    HW177304   2.406   4.630   0.160
58510SOL    HW277305   2.360   4.750   0.079
58511SOL     OW77306   4.336   3.653  13.688
58511SOL    HW177307   4.406   3.593  13.663
58511SOL    HW277308   4.279   3.657  13.611
58512SOL     OW77309  11.390  12.360   0.559
58512SOL    HW177310  11.331  12.420   0.513
58512SOL    HW277311  11.341  12.279   0.567
58513SOL     OW77312   1.313  11.914  14.406
58513SOL    HW177313   1.310  12.006  14.431
58513SOL    HW277314   1.396  11.904  14.360
58514SOL     OW77315   9.824  10.934  12.081
58514SOL    HW177316   9.846  10.873  12.152
58514SOL    HW277317   9.748  10.982  12.114
58515SOL     OW77318  14.038  10.204   4.959
58515SOL    HW177319  13.972  10.157   5.010
58515SOL    HW277320  14.120  10.186   5.005
58516SOL     OW77321  13.884   6.961  11.485
58516SOL    HW177322  13.845   6.885  11.442
58516SOL    HW277323  13.957   6.986  11.428
58517SOL     OW77324   9.079   4.020   7.684
58517SOL    HW177325   9.082   4.037   7.778
58517SOL    HW277326   9.160   4.058   7.651
58518SOL     OW77327  12.800   8.538  10.616
58518SOL    HW177328  12.715   8.573  10.591
58518SOL    HW277329  12.828   8.488  10.540
58519SOL     OW77330   3.973   1.042   4.814
58519SOL    HW177331   3.926   0.993   4.747
58519SOL    HW277332   3.999   1.123   4.769
58520SOL     OW77333  13.354   2.144   9.811
58520SOL    HW177334  13.363   2.076   9.744
58520SOL    HW277335  13.442   2.182   9.818
58521SOL     OW77336   9.212   5.092   3.933
58521SOL    HW177337   9.267   5.168   3.953
58521SOL    HW277338   9.143   5.095   4.000
58522SOL     OW77339  14.465  14.265   5.701
58522SOL    HW177340  14.529  14.212   5.748
58522SOL    HW277341  14.390  14.207   5.687
58523SOL     OW77342   6.232  12.779   6.603
58523SOL    HW177343   6.226  12.687   6.629
58523SOL    HW277344   6.196  12.827   6.677
58524SOL     OW77345   7.545   4.836   7.868
58524SOL    HW177346   7.575   4.913   7.916
58524SOL    HW277347   7.583   4.847   7.780
58525SOL     OW77348  10.775   9.083  10.642
58525SOL    HW177349  10.727   9.051  10.719
58525SOL    HW277350  10.772   9.010  10.580
58526SOL     OW77351   7.004  12.807   1.964
58526SOL    HW177352   7.099  12.808   1.968
58526SOL    HW277353   6.977  12.875   2.026
58527SOL     OW77354   2.068  13.843   5.209
58527SOL    HW177355   2.136  13.779   5.228
58527SOL    HW277356   2.043  13.879   5.295
58528SOL     OW77357   9.929   3.467   6.535
58528SOL    HW177358   9.857   3.491   6.594
58528SOL    HW277359  10.003   3.520   6.565
58529SOL     OW77360   2.431   2.951  10.567
58529SOL    HW177361   2.491   2.950  10.641
58529SOL    HW277362   2.345   2.966  10.606
58530SOL     OW77363  14.558   4.522   6.659
58530SOL    HW177364  14.551   4.588   6.590
58530SOL    HW277365  14.493   4.548   6.724
58531SOL     OW77366   6.436   7.225   3.001
58531SOL    HW177367   6.363   7.172   3.030
58531SOL    HW277368   6.494   7.163   2.957
58532SOL     OW77369   6.434   7.328   3.275
58532SOL    HW177370   6.502   7.354   3.213
58532SOL    HW277371   6.450   7.235   3.290
58533SOL     OW77372  12.945  13.104   5.821
58533SOL    HW177373  12.857  13.115   5.858
58533SOL    HW277374  12.991  13.051   5.886
58534SOL     OW77375   7.650  13.413   2.851
58534SOL    HW177376   7.596  13.492   2.849
58534SOL    HW277377   7.722  13.435   2.909
58535SOL     OW77378   0.770   5.131  13.038
58535SOL    HW177379   0.858   5.156  13.008
58535SOL    HW277380   0.756   5.186  13.116
58536SOL     OW77381   8.102   9.238  10.570
58536SOL    HW177382   8.052   9.172  10.523
58536SOL    HW277383   8.129   9.195  10.651
58537SOL     OW77384   4.522  13.413  13.132
58537SOL    HW177385   4.609  13.376  13.143
58537SOL    HW277386   4.475  13.349  13.079
58538SOL     OW77387   6.172   4.170  10.877
58538SOL    HW177388   6.233   4.220  10.930
58538SOL    HW277389   6.158   4.089  10.926
58539SOL     OW77390  10.011   1.446  12.145
58539SOL    HW177391  10.018   1.399  12.228
58539SOL    HW277392   9.939   1.508  12.159
58540SOL     OW77393   8.323   6.160   2.469
58540SOL    HW177394   8.345   6.243   2.427
58540SOL    HW277395   8.405   6.130   2.507
58541SOL     OW77396   3.751   2.294  11.042
58541SOL    HW177397   3.797   2.349  10.979
58541SOL    HW277398   3.683   2.351  11.078
58542SOL     OW77399  13.288   5.587   7.783
58542SOL    HW177400  13.352   5.658   7.777
58542SOL    HW277401  13.280   5.570   7.877
58543SOL     OW77402   4.394   8.728   1.492
58543SOL    HW177403   4.465   8.731   1.556
58543SOL    HW277404   4.352   8.643   1.506
58544SOL     OW77405   8.908   6.926   2.798
58544SOL    HW177406   8.848   6.962   2.734
58544SOL    HW277407   8.859   6.924   2.880
58545SOL     OW77408   0.017   8.950   3.577
58545SOL    HW177409   0.054   8.994   3.653
58545SOL    HW277410  14.833   8.890   3.612
58546SOL     OW77411  13.242   5.714  11.353
58546SOL    HW177412  13.317   5.722  11.294
58546SOL    HW277413  13.271   5.651  11.419
58547SOL     OW77414  13.329   3.677  14.717
58547SOL    HW177415  13.293   3.718  14.796
58547SOL    HW277416  13.368   3.749  14.668
58548SOL     OW77417   7.527  14.037  13.264
58548SOL    HW177418   7.577  14.099  13.211
58548SOL    HW277419   7.593  13.990  13.315
58549SOL     OW77420   2.590   5.751  12.882
58549SOL    HW177421   2.647   5.674  12.887
58549SOL    HW277422   2.651   5.825  12.882
58550SOL     OW77423   6.846   2.537  10.807
58550SOL    HW177424   6.940   2.545  10.789
58550SOL    HW277425   6.840   2.465  10.870
58551SOL     OW77426   9.014   3.291   4.737
58551SOL    HW177427   8.965   3.347   4.797
58551SOL    HW277428   8.948   3.232   4.700
58552SOL     OW77429  12.783   3.523  12.439
58552SOL    HW177430  12.707   3.577  12.416
58552SOL    HW277431  12.782   3.451  12.376
58553SOL     OW77432   7.637  11.084   0.407
58553SOL    HW177433   7.729  11.058   0.399
58553SOL    HW277434   7.589  11.002   0.401
58554SOL     OW77435  12.996  10.499   7.758
58554SOL    HW177436  12.909  10.522   7.727
58554SOL    HW277437  13.027  10.433   7.695
58555SOL     OW77438  12.852   7.077  14.730
58555SOL    HW177439  12.771   7.105  14.689
58555SOL    HW277440  12.903   7.037  14.659
58556SOL     OW77441   6.755   4.590   2.877
58556SOL    HW177442   6.729   4.671   2.832
58556SOL    HW277443   6.764   4.615   2.969
58557SOL     OW77444   8.848   5.263  13.186
58557SOL    HW177445   8.878   5.353  13.181
58557SOL    HW277446   8.753   5.268  13.178
58558SOL     OW77447   4.240   4.904   0.828
58558SOL    HW177448   4.172   4.855   0.873
58558SOL    HW277449   4.289   4.838   0.779
58559SOL     OW77450   8.385   6.549   2.528
58559SOL    HW177451   8.315   6.497   2.490
58559SOL    HW277452   8.365   6.639   2.502
58560SOL     OW77453   7.593  10.795  13.055
58560SOL    HW177454   7.507  10.756  13.069
58560SOL    HW277455   7.652  10.747  13.113
58561SOL     OW77456   2.124  10.111  14.764
58561SOL    HW177457   2.138  10.204  14.744
58561SOL    HW277458   2.074  10.078  14.690
58562SOL     OW77459   3.749  13.629  14.500
58562SOL    HW177460   3.766  13.722  14.492
58562SOL    HW277461   3.737  13.614  14.594
58563SOL     OW77462  12.426   5.282   8.587
58563SOL    HW177463  12.363   5.324   8.646
58563SOL    HW277464  12.398   5.191   8.583
58564SOL     OW77465  14.800  13.444   5.794
58564SOL    HW177466  14.869  13.505   5.819
58564SOL    HW277467  14.765  13.479   5.712
58565SOL     OW77468   2.212  13.929   4.497
58565SOL    HW177469   2.303  13.899   4.502
58565SOL    HW277470   2.160  13.849   4.487
58566SOL     OW77471   3.743   5.311   9.058
58566SOL    HW177472   3.668   5.361   9.024
58566SOL    HW277473   3.783   5.272   8.980
58567SOL     OW77474   5.880   1.040  12.570
58567SOL    HW177475   5.809   0.995  12.616
58567SOL    HW277476   5.919   1.097  12.636
58568SOL     OW77477   8.031   2.751   0.892
58568SOL    HW177478   7.945   2.749   0.934
58568SOL    HW277479   8.086   2.801   0.951
58569SOL     OW77480  11.528  10.819   7.338
58569SOL    HW177481  11.580  10.887   7.380
58569SOL    HW277482  11.440  10.831   7.374
58570SOL     OW77483   4.710   0.031  10.954
58570SOL    HW177484   4.642   0.066  11.012
58570SOL    HW277485   4.678  14.826  10.929
58571SOL     OW77486   7.953  10.688   5.487
58571SOL    HW177487   7.946  10.663   5.395
58571SOL    HW277488   7.973  10.782   5.485
58572SOL     OW77489   1.301   9.448   6.657
58572SOL    HW177490   1.222   9.495   6.631
58572SOL    HW277491   1.349   9.435   6.575
58573SOL     OW77492  11.835   6.957   4.449
58573SOL    HW177493  11.791   6.894   4.391
58573SOL    HW277494  11.903   6.997   4.394
58574SOL     OW77495   8.148   1.734  11.168
58574SOL    HW177496   8.109   1.721  11.081
58574SOL    HW277497   8.241   1.749  11.150
58575SOL     OW77498   0.522  14.644  12.905
58575SOL    HW177499   0.573  14.715  12.868
58575SOL    HW277500   0.539  14.649  12.999
58576SOL     OW77501   4.839  14.462  10.174
58576SOL    HW177502   4.896  14.535  10.148
58576SOL    HW277503   4.898  14.392  10.198
58577SOL     OW77504   2.951   6.793   1.863
58577SOL    HW177505   2.899   6.845   1.801
58577SOL    HW277506   3.036   6.836   1.865
58578SOL     OW77507   5.393   8.746   4.470
58578SOL    HW177508   5.408   8.814   4.405
58578SOL    HW277509   5.374   8.668   4.419
58579SOL     OW77510  12.843  10.263   6.980
58579SOL    HW177511  12.923  10.310   7.000
58579SOL    HW277512  12.774  10.328   6.986
58580SOL     OW77513  13.308  14.768   5.778
58580SOL    HW177514  13.320  14.856   5.813
58580SOL    HW277515  13.396  14.741   5.752
58581SOL     OW77516  11.208   3.855   5.636
58581SOL    HW177517  11.256   3.859   5.553
58581SOL    HW277518  11.265   3.899   5.699
58582SOL     OW77519   9.799   0.756  10.549
58582SOL    HW177520   9.742   0.828  10.575
58582SOL    HW277521   9.743   0.697  10.500
58583SOL     OW77522   6.753  10.289   1.985
58583SOL    HW177523   6.742  10.322   1.896
58583SOL    HW277524   6.707  10.353   2.040
58584SOL     OW77525  10.412   7.987   4.615
58584SOL    HW177526  10.474   7.930   4.659
58584SOL    HW277527  10.426   7.971   4.522
58585SOL     OW77528   1.107   5.174   5.833
58585SOL    HW177529   1.024   5.152   5.874
58585SOL    HW277530   1.086   5.186   5.741
58586SOL     OW77531  12.655   2.092  11.874
58586SOL    HW177532  12.608   2.053  11.801
58586SOL    HW277533  12.622   2.047  11.952
58587SOL     OW77534   5.525   0.934   8.611
58587SOL    HW177535   5.601   0.945   8.555
58587SOL    HW277536   5.561   0.921   8.699
58588SOL     OW77537   8.509  12.351  13.200
58588SOL    HW177538   8.562  12.427  13.225
58588SOL    HW277539   8.508  12.352  13.104
58589SOL     OW77540   8.767   9.796  11.643
58589SOL    HW177541   8.746   9.791  11.550
58589SOL    HW277542   8.753   9.707  11.675
58590SOL     OW77543   5.588   6.673   7.937
58590SOL    HW177544   5.580   6.713   8.024
58590SOL    HW277545   5.498   6.651   7.912
58591SOL     OW77546   0.970   9.067   3.436
58591SOL    HW177547   0.957   8.996   3.498
58591SOL    HW277548   1.024   9.028   3.366
58592SOL     OW77549  11.076   5.584   6.107
58592SOL    HW177550  11.126   5.624   6.178
58592SOL    HW277551  11.105   5.493   6.105
58593SOL     OW77552   8.866   1.851  12.757
58593SOL    HW177553   8.899   1.846  12.846
58593SOL    HW277554   8.945   1.862  12.703
58594SOL     OW77555   1.651  12.007   4.561
58594SOL    HW177556   1.592  11.944   4.520
58594SOL    HW277557   1.594  12.074   4.598
58595SOL     OW77558   1.193   2.758   0.157
58595SOL    HW177559   1.273   2.780   0.203
58595SOL    HW277560   1.220   2.694   0.091
58596SOL     OW77561  13.473   3.921  12.614
58596SOL    HW177562  13.423   3.997  12.643
58596SOL    HW277563  13.428   3.891  12.535
58597SOL     OW77564   0.948   7.994  14.736
58597SOL    HW177565   0.881   7.940  14.695
58597SOL    HW277566   0.900   8.068  14.774
58598SOL     OW77567   6.968   2.927   6.950
58598SOL    HW177568   6.978   2.861   6.881
58598SOL    HW277569   7.054   2.935   6.989
58599SOL     OW77570  13.074  11.869  10.676
58599SOL    HW177571  13.023  11.948  10.688
58599SOL    HW277572  13.012  11.806  10.637
58600SOL     OW77573   4.877  10.412   9.736
58600SOL    HW177574   4.970  10.430   9.725
58600SOL    HW277575   4.875  10.330   9.786
58601SOL     OW77576  14.658  11.429   4.572
58601SOL    HW177577  14.658  11.345   4.619
58601SOL    HW277578  14.716  11.414   4.497
58602SOL     OW77579  10.347   2.375   0.727
58602SOL    HW177580  10.403   2.359   0.651
58602SOL    HW277581  10.258   2.368   0.693
58603SOL     OW77582   5.279   4.548   6.156
58603SOL    HW177583   5.282   4.643   6.145
58603SOL    HW277584   5.203   4.532   6.212
58604SOL     OW77585   4.233   3.871   1.281
58604SOL    HW177586   4.290   3.810   1.234
58604SOL    HW277587   4.168   3.815   1.323
58605SOL     OW77588   0.121   4.327   7.129
58605SOL    HW177589   0.068   4.405   7.142
58605SOL    HW277590   0.138   4.325   7.035
58606SOL     OW77591   1.161   3.592   7.596
58606SOL    HW177592   1.250   3.569   7.569
58606SOL    HW277593   1.112   3.600   7.514
58607SOL     OW77594   3.629   6.705  11.174
58607SOL    HW177595   3.716   6.725  11.209
58607SOL    HW277596   3.636   6.725  11.081
58608SOL     OW77597   7.295   4.684  13.838
58608SOL    HW177598   7.313   4.767  13.793
58608SOL    HW277599   7.269   4.624  13.768
58609SOL     OW77600   1.652  10.991   3.216
58609SOL    HW177601   1.738  11.030   3.201
58609SOL    HW277602   1.657  10.953   3.304
58610SOL     OW77603   2.044   7.382   0.158
58610SOL    HW177604   2.117   7.442   0.174
58610SOL    HW277605   2.081   7.295   0.174
58611SOL     OW77606   1.181   9.854   9.148
58611SOL    HW177607   1.198   9.804   9.227
58611SOL    HW277608   1.185   9.946   9.176
58612SOL     OW77609   0.120   7.576   6.874
58612SOL    HW177610   0.072   7.633   6.933
58612SOL    HW277611   0.213   7.596   6.890
58613SOL     OW77612   4.812  14.490  14.712
58613SOL    HW177613   4.849  14.430  14.777
58613SOL    HW277614   4.723  14.457  14.697
58614SOL     OW77615   4.954  14.008   8.264
58614SOL    HW177616   5.040  14.042   8.240
58614SOL    HW277617   4.893  14.079   8.243
58615SOL     OW77618  13.075  11.330   2.513
58615SOL    HW177619  13.016  11.259   2.489
58615SOL    HW277620  13.146  11.324   2.449
58616SOL     OW77621  11.965  13.757  12.646
58616SOL    HW177622  11.882  13.786  12.609
58616SOL    HW277623  11.967  13.797  12.733
58617SOL     OW77624   6.304   0.789   2.716
58617SOL    HW177625   6.222   0.780   2.668
58617SOL    HW277626   6.365   0.730   2.670
58618SOL     OW77627  10.525   8.449   8.575
58618SOL    HW177628  10.490   8.399   8.648
58618SOL    HW277629  10.619   8.429   8.576
58619SOL     OW77630   6.417   0.323   7.765
58619SOL    HW177631   6.421   0.410   7.804
58619SOL    HW277632   6.501   0.312   7.721
58620SOL     OW77633   4.645   6.171   3.320
58620SOL    HW177634   4.688   6.111   3.258
58620SOL    HW277635   4.650   6.256   3.277
58621SOL     OW77636   5.766   7.931   8.238
58621SOL    HW177637   5.770   7.839   8.211
58621SOL    HW277638   5.682   7.938   8.283
58622SOL     OW77639   3.276   4.543   3.594
58622SOL    HW177640   3.332   4.621   3.595
58622SOL    HW277641   3.200   4.570   3.542
58623SOL     OW77642   6.480  12.434  13.874
58623SOL    HW177643   6.469  12.456  13.782
58623SOL    HW277644   6.400  12.388  13.898
58624SOL     OW77645   1.187  11.881  12.566
58624SOL    HW177646   1.117  11.833  12.609
58624SOL    HW277647   1.204  11.956  12.623
58625SOL     OW77648   3.314   9.502   0.591
58625SOL    HW177649   3.346   9.561   0.522
58625SOL    HW277650   3.366   9.422   0.578
58626SOL     OW77651   6.953   4.917  13.000
58626SOL    HW177652   6.926   4.831  12.969
58626SOL    HW277653   6.873   4.970  12.996
58627SOL     OW77654   7.165  10.180   7.014
58627SOL    HW177655   7.225  10.192   7.088
58627SOL    HW277656   7.114  10.102   7.037
58628SOL     OW77657   7.486   4.535  12.958
58628SOL    HW177658   7.402   4.501  12.931
58628SOL    HW277659   7.514   4.478  13.030
58629SOL     OW77660   9.792   7.365  14.803
58629SOL    HW177661   9.827   7.422  14.871
58629SOL    HW277662   9.706   7.338  14.835
58630SOL     OW77663  13.197  14.548   5.933
58630SOL    HW177664  13.108  14.550   5.897
58630SOL    HW277665  13.252  14.582   5.863
58631SOL     OW77666   2.227   8.347   2.573
58631SOL    HW177667   2.302   8.289   2.557
58631SOL    HW277668   2.174   8.340   2.493
58632SOL     OW77669   2.032  11.938   9.179
58632SOL    HW177670   2.053  11.845   9.186
58632SOL    HW277671   1.944  11.940   9.140
58633SOL     OW77672   3.231  14.760   6.757
58633SOL    HW177673   3.255  14.668   6.771
58633SOL    HW277674   3.298  14.809   6.804
58634SOL     OW77675  11.434  10.981   0.690
58634SOL    HW177676  11.402  11.049   0.630
58634SOL    HW277677  11.357  10.953   0.738
58635SOL     OW77678   4.259  11.812   4.133
58635SOL    HW177679   4.201  11.877   4.173
58635SOL    HW277680   4.228  11.805   4.042
58636SOL     OW77681   8.915   6.717   4.758
58636SOL    HW177682   8.897   6.660   4.832
58636SOL    HW277683   8.840   6.705   4.699
58637SOL     OW77684   2.668   3.005   9.201
58637SOL    HW177685   2.697   2.937   9.139
58637SOL    HW277686   2.615   2.957   9.265
58638SOL     OW77687   1.517  10.249  14.452
58638SOL    HW177688   1.551  10.267  14.540
58638SOL    HW277689   1.423  10.263  14.459
58639SOL     OW77690  14.734   1.970   1.431
58639SOL    HW177691  14.700   1.899   1.486
58639SOL    HW277692  14.750   1.929   1.346
58640SOL     OW77693   1.184  10.217   6.799
58640SOL    HW177694   1.122  10.240   6.730
58640SOL    HW277695   1.210  10.301   6.838
58641SOL     OW77696   6.884   6.510   0.722
58641SOL    HW177697   6.851   6.573   0.658
58641SOL    HW277698   6.816   6.443   0.728
58642SOL     OW77699   8.741   5.869   5.830
58642SOL    HW177700   8.814   5.826   5.875
58642SOL    HW277701   8.674   5.878   5.897
58643SOL     OW77702  13.934   2.969   7.593
58643SOL    HW177703  13.896   3.041   7.543
58643SOL    HW277704  13.863   2.937   7.648
58644SOL     OW77705   2.088   3.208   6.918
58644SOL    HW177706   2.042   3.277   6.964
58644SOL    HW277707   2.066   3.220   6.826
58645SOL     OW77708   4.933   0.144  14.840
58645SOL    HW177709   4.889   0.102   0.033
58645SOL    HW277710   4.960   0.230  14.873
58646SOL     OW77711  11.397   1.000   3.699
58646SOL    HW177712  11.352   1.040   3.773
58646SOL    HW277713  11.356   0.914   3.689
58647SOL     OW77714   5.002   8.283   6.843
58647SOL    HW177715   4.942   8.232   6.898
58647SOL    HW277716   4.995   8.244   6.756
58648SOL     OW77717  13.229  11.401   7.183
58648SOL    HW177718  13.212  11.359   7.267
58648SOL    HW277719  13.287  11.341   7.137
58649SOL     OW77720   5.819  14.541   2.969
58649SOL    HW177721   5.726  14.563   2.955
58649SOL    HW277722   5.818  14.455   3.011
58650SOL     OW77723  11.132   1.811  13.067
58650SOL    HW177724  11.091   1.862  13.137
58650SOL    HW277725  11.059   1.775  13.017
58651SOL     OW77726   5.987   8.802  14.034
58651SOL    HW177727   6.060   8.858  14.062
58651SOL    HW277728   6.026   8.742  13.970
58652SOL     OW77729  12.075   8.202   7.334
58652SOL    HW177730  12.067   8.235   7.423
58652SOL    HW277731  12.154   8.244   7.299
58653SOL     OW77732   1.886   5.428  13.946
58653SOL    HW177733   1.869   5.357  13.883
58653SOL    HW277734   1.972   5.461  13.922
58654SOL     OW77735   6.734   7.962   4.377
58654SOL    HW177736   6.810   7.917   4.340
58654SOL    HW277737   6.769   8.007   4.454
58655SOL     OW77738   1.167   9.557   0.633
58655SOL    HW177739   1.172   9.631   0.693
58655SOL    HW277740   1.253   9.517   0.637
58656SOL     OW77741   2.806   7.290   0.370
58656SOL    HW177742   2.776   7.202   0.345
58656SOL    HW277743   2.810   7.338   0.287
58657SOL     OW77744   2.662  12.162   4.877
58657SOL    HW177745   2.604  12.101   4.831
58657SOL    HW277746   2.613  12.244   4.880
58658SOL     OW77747   4.712  13.390   0.364
58658SOL    HW177748   4.747  13.469   0.324
58658SOL    HW277749   4.746  13.319   0.310
58659SOL     OW77750   1.863  10.667   1.177
58659SOL    HW177751   1.911  10.587   1.158
58659SOL    HW277752   1.803  10.643   1.247
58660SOL     OW77753   8.739  12.242  11.793
58660SOL    HW177754   8.828  12.255  11.826
58660SOL    HW277755   8.687  12.309  11.837
58661SOL     OW77756   3.567   5.668   5.455
58661SOL    HW177757   3.596   5.755   5.481
58661SOL    HW277758   3.546   5.624   5.538
58662SOL     OW77759   0.928  11.639   9.523
58662SOL    HW177760   0.930  11.731   9.549
58662SOL    HW277761   0.835  11.617   9.519
58663SOL     OW77762   6.034  13.876  11.320
58663SOL    HW177763   5.952  13.837  11.349
58663SOL    HW277764   6.027  13.968  11.346
58664SOL     OW77765  11.669   6.782   0.638
58664SOL    HW177766  11.665   6.878   0.639
58664SOL    HW277767  11.661   6.756   0.730
58665SOL     OW77768  11.621   2.649  12.507
58665SOL    HW177769  11.661   2.599  12.436
58665SOL    HW277770  11.540   2.683  12.469
58666SOL     OW77771   5.952   6.534   8.588
58666SOL    HW177772   6.019   6.591   8.627
58666SOL    HW277773   5.949   6.457   8.645
58667SOL     OW77774   6.425  14.401  10.423
58667SOL    HW177775   6.340  14.435  10.396
58667SOL    HW277776   6.466  14.373  10.341
58668SOL     OW77777  12.907   5.966  14.438
58668SOL    HW177778  12.836   5.921  14.393
58668SOL    HW277779  12.869   6.048  14.469
58669SOL     OW77780  13.849  11.951   0.649
58669SOL    HW177781  13.936  11.914   0.664
58669SOL    HW277782  13.790  11.893   0.697
58670SOL     OW77783   4.776   1.013   6.499
58670SOL    HW177784   4.766   0.990   6.407
58670SOL    HW277785   4.719   0.951   6.546
58671SOL     OW77786   1.795  13.841   9.845
58671SOL    HW177787   1.878  13.852   9.799
58671SOL    HW277788   1.770  13.930   9.871
58672SOL     OW77789  12.046   9.584  12.496
58672SOL    HW177790  12.075   9.655  12.438
58672SOL    HW277791  12.128   9.550  12.532
58673SOL     OW77792   1.451  11.908   0.549
58673SOL    HW177793   1.473  11.829   0.500
58673SOL    HW277794   1.360  11.896   0.574
58674SOL     OW77795   9.464   5.475  10.538
58674SOL    HW177796   9.483   5.568  10.550
58674SOL    HW277797   9.501   5.433  10.616
58675SOL     OW77798  12.559  14.353   5.537
58675SOL    HW177799  12.477  14.324   5.577
58675SOL    HW277800  12.542  14.349   5.443
58676SOL     OW77801  12.057   0.216   7.268
58676SOL    HW177802  12.142   0.179   7.245
58676SOL    HW277803  12.044   0.289   7.207
58677SOL     OW77804   3.591   6.164  12.206
58677SOL    HW177805   3.606   6.239  12.263
58677SOL    HW277806   3.591   6.088  12.265
58678SOL     OW77807   1.561  14.623   7.416
58678SOL    HW177808   1.612  14.690   7.461
58678SOL    HW277809   1.620  14.587   7.350
58679SOL     OW77810   8.531   3.657   5.790
58679SOL    HW177811   8.481   3.730   5.754
58679SOL    HW277812   8.620   3.669   5.757
58680SOL     OW77813   2.590   6.383   6.848
58680SOL    HW177814   2.587   6.288   6.853
58680SOL    HW277815   2.609   6.412   6.937
58681SOL     OW77816   9.812   4.447   1.103
58681SOL    HW177817   9.733   4.471   1.150
58681SOL    HW277818   9.883   4.466   1.164
58682SOL     OW77819   8.690   6.992   4.442
58682SOL    HW177820   8.625   7.040   4.391
58682SOL    HW277821   8.678   6.901   4.415
58683SOL     OW77822   9.800   1.094   3.465
58683SOL    HW177823   9.825   1.005   3.487
58683SOL    HW277824   9.815   1.144   3.545
58684SOL     OW77825   8.010   8.124   3.779
58684SOL    HW177826   8.093   8.106   3.734
58684SOL    HW277827   7.949   8.058   3.744
58685SOL     OW77828   4.097   7.650   5.167
58685SOL    HW177829   4.141   7.663   5.251
58685SOL    HW277830   4.150   7.585   5.121
58686SOL     OW77831   2.694   2.308   2.704
58686SOL    HW177832   2.660   2.351   2.626
58686SOL    HW277833   2.778   2.351   2.721
58687SOL     OW77834   8.410   8.663   2.861
58687SOL    HW177835   8.415   8.645   2.955
58687SOL    HW277836   8.317   8.657   2.840
58688SOL     OW77837   4.955   6.558   3.404
58688SOL    HW177838   4.945   6.598   3.491
58688SOL    HW277839   4.908   6.475   3.410
58689SOL     OW77840  10.894  10.698   2.624
58689SOL    HW177841  10.980  10.657   2.632
58689SOL    HW277842  10.846  10.669   2.702
58690SOL     OW77843  10.995   7.514  14.402
58690SOL    HW177844  11.010   7.431  14.357
58690SOL    HW277845  11.054   7.576  14.359
58691SOL     OW77846   0.780   1.921  12.443
58691SOL    HW177847   0.724   1.853  12.404
58691SOL    HW277848   0.868   1.884  12.441
58692SOL     OW77849   2.334   3.255  10.765
58692SOL    HW177850   2.404   3.297  10.715
58692SOL    HW277851   2.263   3.246  10.702
58693SOL     OW77852   7.848   1.291  14.213
58693SOL    HW177853   7.844   1.239  14.132
58693SOL    HW277854   7.810   1.234  14.280
58694SOL     OW77855  14.451  14.335  10.408
58694SOL    HW177856  14.377  14.300  10.358
58694SOL    HW277857  14.528  14.316  10.354
58695SOL     OW77858   9.456  12.155  11.069
58695SOL    HW177859   9.549  12.144  11.046
58695SOL    HW277860   9.439  12.248  11.059
58696SOL     OW77861  11.539   0.088  11.103
58696SOL    HW177862  11.466   0.131  11.147
58696SOL    HW277863  11.505   0.064  11.017
58697SOL     OW77864  12.009   5.008   8.281
58697SOL    HW177865  11.983   5.051   8.362
58697SOL    HW277866  12.101   5.033   8.269
58698SOL     OW77867   6.700  13.213   0.738
58698SOL    HW177868   6.715  13.201   0.832
58698SOL    HW277869   6.687  13.307   0.728
58699SOL     OW77870   9.357   9.536   0.250
58699SOL    HW177871   9.449   9.539   0.227
58699SOL    HW277872   9.345   9.451   0.292
58700SOL     OW77873   5.948   4.112  13.907
58700SOL    HW177874   5.868   4.127  13.957
58700SOL    HW277875   6.002   4.189  13.925
58701SOL     OW77876  10.675   9.741   8.649
58701SOL    HW177877  10.714   9.661   8.684
58701SOL    HW277878  10.639   9.716   8.564
58702SOL     OW77879   8.594  11.915   2.164
58702SOL    HW177880   8.588  11.845   2.099
58702SOL    HW277881   8.560  11.992   2.120
58703SOL     OW77882  10.054  14.354  14.577
58703SOL    HW177883  10.016  14.355  14.489
58703SOL    HW277884  10.020  14.273  14.616
58704SOL     OW77885   3.026   5.507  12.292
58704SOL    HW177886   3.020   5.479  12.200
58704SOL    HW277887   2.963   5.451  12.338
58705SOL     OW77888   8.791   4.445   6.610
58705SOL    HW177889   8.767   4.384   6.680
58705SOL    HW277890   8.879   4.418   6.583
58706SOL     OW77891   3.144   8.998   4.900
58706SOL    HW177892   3.149   8.979   4.993
58706SOL    HW277893   3.116   9.090   4.895
58707SOL     OW77894  11.384   1.252   9.235
58707SOL    HW177895  11.342   1.322   9.185
58707SOL    HW277896  11.478   1.269   9.224
58708SOL     OW77897  12.389   4.742   4.761
58708SOL    HW177898  12.460   4.702   4.810
58708SOL    HW277899  12.431   4.778   4.682
58709SOL     OW77900   7.852  13.257   6.111
58709SOL    HW177901   7.848  13.278   6.204
58709SOL    HW277902   7.939  13.285   6.084
58710SOL     OW77903   8.930  11.076   9.879
58710SOL    HW177904   8.928  11.079   9.784
58710SOL    HW277905   8.887  10.993   9.902
58711SOL     OW77906   8.243   7.253   3.779
58711SOL    HW177907   8.281   7.288   3.699
58711SOL    HW277908   8.246   7.325   3.842
58712SOL     OW77909   5.738   0.036  13.200
58712SOL    HW177910   5.705   0.094  13.131
58712SOL    HW277911   5.772  14.842  13.152
58713SOL     OW77912   0.502   4.127   8.566
58713SOL    HW177913   0.486   4.035   8.590
58713SOL    HW277914   0.572   4.155   8.625
58714SOL     OW77915   8.467   0.741   7.828
58714SOL    HW177916   8.458   0.744   7.733
58714SOL    HW277917   8.557   0.768   7.845
58715SOL     OW77918  14.866  14.013  14.494
58715SOL    HW177919  14.818  13.934  14.468
58715SOL    HW277920   0.035  14.037  14.416
58716SOL     OW77921  10.126  10.389   4.589
58716SOL    HW177922  10.065  10.403   4.662
58716SOL    HW277923  10.193  10.456   4.601
58717SOL     OW77924   6.960  12.344  10.180
58717SOL    HW177925   7.011  12.349  10.261
58717SOL    HW277926   6.943  12.250  10.168
58718SOL     OW77927   9.922   0.581  11.692
58718SOL    HW177928   9.904   0.532  11.612
58718SOL    HW277929   9.972   0.520  11.746
58719SOL     OW77930  12.357   3.871   8.114
58719SOL    HW177931  12.438   3.835   8.151
58719SOL    HW277932  12.385   3.948   8.064
58720SOL     OW77933   9.727   0.924   0.423
58720SOL    HW177934   9.704   1.007   0.465
58720SOL    HW277935   9.684   0.858   0.477
58721SOL     OW77936   7.834   6.419   1.562
58721SOL    HW177937   7.815   6.337   1.608
58721SOL    HW277938   7.750   6.465   1.561
58722SOL     OW77939  10.885   2.074  12.172
58722SOL    HW177940  10.801   2.055  12.130
58722SOL    HW277941  10.942   2.001  12.146
58723SOL     OW77942   2.098   4.290  14.623
58723SOL    HW177943   2.146   4.225  14.572
58723SOL    HW277944   2.039   4.331  14.561
58724SOL     OW77945   9.528   7.195   8.369
58724SOL    HW177946   9.605   7.174   8.422
58724SOL    HW277947   9.465   7.233   8.431
58725SOL     OW77948   6.745   7.959   1.022
58725SOL    HW177949   6.669   8.005   1.058
58725SOL    HW277950   6.709   7.880   0.983
58726SOL     OW77951  14.696   3.950   1.311
58726SOL    HW177952  14.687   3.855   1.310
58726SOL    HW277953  14.615   3.983   1.273
58727SOL     OW77954   5.629  14.607   0.944
58727SOL    HW177955   5.712  14.640   0.910
58727SOL    HW277956   5.628  14.636   1.035
58728SOL     OW77957   1.958   7.306  11.756
58728SOL    HW177958   2.053   7.302  11.765
58728SOL    HW277959   1.932   7.381  11.810
58729SOL     OW77960  10.005  11.182  14.010
58729SOL    HW177961   9.930  11.133  13.976
58729SOL    HW277962  10.077  11.119  14.011
58730SOL     OW77963   5.252  13.636   3.965
58730SOL    HW177964   5.211  13.653   4.049
58730SOL    HW277965   5.346  13.638   3.983
58731SOL     OW77966   9.141  13.310  11.652
58731SOL    HW177967   9.075  13.319  11.583
58731SOL    HW277968   9.093  13.274  11.727
58732SOL     OW77969  13.057   5.335   0.146
58732SOL    HW177970  13.103   5.279   0.083
58732SOL    HW277971  12.965   5.314   0.133
58733SOL     OW77972   1.269   0.735  13.326
58733SOL    HW177973   1.312   0.727  13.412
58733SOL    HW277974   1.201   0.800  13.340
58734SOL     OW77975  14.683  12.584   0.242
58734SOL    HW177976  14.627  12.507   0.257
58734SOL    HW277977  14.680  12.632   0.325
58735SOL     OW77978   8.905  11.551   8.195
58735SOL    HW177979   8.915  11.475   8.138
58735SOL    HW277980   8.819  11.587   8.173
58736SOL     OW77981  10.007  12.233  13.496
58736SOL    HW177982   9.951  12.304  13.464
58736SOL    HW277983  10.031  12.184  13.417
58737SOL     OW77984   0.940   0.755   7.077
58737SOL    HW177985   0.979   0.842   7.070
58737SOL    HW277986   0.848   0.768   7.056
58738SOL     OW77987  12.165   2.745  13.244
58738SOL    HW177988  12.126   2.832  13.232
58738SOL    HW277989  12.098   2.685  13.213
58739SOL     OW77990   4.107  13.458   0.415
58739SOL    HW177991   4.093  13.533   0.472
58739SOL    HW277992   4.112  13.383   0.475
58740SOL     OW77993   3.669  12.026   1.240
58740SOL    HW177994   3.709  11.958   1.294
58740SOL    HW277995   3.681  11.995   1.150
58741SOL     OW77996  11.203  10.306   3.797
58741SOL    HW177997  11.235  10.348   3.718
58741SOL    HW277998  11.125  10.258   3.768
58742SOL     OW77999   0.365  10.252  11.963
58742SOL    HW178000   0.294  10.236  12.026
58742SOL    HW278001   0.323  10.298  11.891
58743SOL     OW78002  10.260   9.585   5.713
58743SOL    HW178003  10.321   9.658   5.726
58743SOL    HW278004  10.218   9.573   5.798
58744SOL     OW78005   1.629  11.890   6.081
58744SOL    HW178006   1.662  11.899   6.171
58744SOL    HW278007   1.707  11.900   6.026
58745SOL     OW78008  14.829   3.574   5.519
58745SOL    HW178009  14.849   3.555   5.610
58745SOL    HW278010  14.743   3.533   5.504
58746SOL     OW78011  12.217   5.632  11.615
58746SOL    HW178012  12.280   5.560  11.616
58746SOL    HW278013  12.242   5.684  11.539
58747SOL     OW78014  13.826  11.950  14.428
58747SOL    HW178015  13.898  11.997  14.386
58747SOL    HW278016  13.764  11.933  14.357
58748SOL     OW78017   7.035   0.053   6.942
58748SOL    HW178018   6.985  14.872   6.891
58748SOL    HW278019   7.009   0.037   7.032
58749SOL     OW78020   9.784   6.238   7.073
58749SOL    HW178021   9.711   6.247   7.013
58749SOL    HW278022   9.769   6.305   7.140
58750SOL     OW78023   6.204   1.647   1.538
58750SOL    HW178024   6.235   1.703   1.467
58750SOL    HW278025   6.181   1.709   1.608
58751SOL     OW78026  10.606  14.881  11.815
58751SOL    HW178027  10.585   0.027  11.726
58751SOL    HW278028  10.695  14.847  11.809
58752SOL     OW78029   1.572   1.433   9.700
58752SOL    HW178030   1.573   1.338   9.704
58752SOL    HW278031   1.515   1.459   9.772
58753SOL     OW78032   5.967  10.681   9.809
58753SOL    HW178033   5.966  10.594   9.849
58753SOL    HW278034   6.047  10.722   9.841
58754SOL     OW78035  11.071   5.280  14.245
58754SOL    HW178036  11.090   5.230  14.166
58754SOL    HW278037  11.118   5.234  14.314
58755SOL     OW78038  11.012   6.304   6.456
58755SOL    HW178039  10.937   6.310   6.398
58755SOL    HW278040  10.986   6.353   6.534
58756SOL     OW78041   2.206   0.426   1.835
58756SOL    HW178042   2.273   0.458   1.895
58756SOL    HW278043   2.125   0.431   1.886
58757SOL     OW78044   3.522   2.635   3.701
58757SOL    HW178045   3.516   2.729   3.680
58757SOL    HW278046   3.506   2.591   3.617
58758SOL     OW78047   3.176   1.795   6.130
58758SOL    HW178048   3.171   1.790   6.035
58758SOL    HW278049   3.248   1.856   6.148
58759SOL     OW78050   5.826   5.563   0.213
58759SOL    HW178051   5.900   5.580   0.272
58759SOL    HW278052   5.839   5.623   0.140
58760SOL     OW78053  11.947  10.699   7.537
58760SOL    HW178054  11.852  10.690   7.531
58760SOL    HW278055  11.964  10.790   7.512
58761SOL     OW78056  10.182   3.267   1.942
58761SOL    HW178057  10.096   3.253   1.902
58761SOL    HW278058  10.168   3.252   2.035
58762SOL     OW78059   4.877   3.728  10.456
58762SOL    HW178060   4.794   3.680  10.463
58762SOL    HW278061   4.943   3.660  10.447
58763SOL     OW78062   2.461   3.965   3.758
58763SOL    HW178063   2.521   3.952   3.685
58763SOL    HW278064   2.432   4.056   3.749
58764SOL     OW78065  13.370   2.492  14.544
58764SOL    HW178066  13.320   2.449  14.475
58764SOL    HW278067  13.329   2.461  14.625
58765SOL     OW78068   8.761  10.864  12.847
58765SOL    HW178069   8.770  10.945  12.897
58765SOL    HW278070   8.668  10.857  12.828
58766SOL     OW78071  11.374  13.553   9.437
58766SOL    HW178072  11.405  13.501   9.511
58766SOL    HW278073  11.303  13.606   9.473
58767SOL     OW78074   8.168  10.876   3.087
58767SOL    HW178075   8.231  10.945   3.065
58767SOL    HW278076   8.160  10.824   3.007
58768SOL     OW78077   2.704  11.033   8.615
58768SOL    HW178078   2.684  10.991   8.531
58768SOL    HW278079   2.797  11.015   8.630
58769SOL     OW78080   7.598  13.624  13.796
58769SOL    HW178081   7.619  13.710  13.833
58769SOL    HW278082   7.638  13.562  13.856
58770SOL     OW78083  10.815   3.674   5.528
58770SOL    HW178084  10.799   3.767   5.511
58770SOL    HW278085  10.888   3.674   5.589
58771SOL     OW78086  10.144   7.956   2.688
58771SOL    HW178087  10.109   7.867   2.694
58771SOL    HW278088  10.200   7.954   2.610
58772SOL     OW78089   5.613   5.073   9.764
58772SOL    HW178090   5.560   5.058   9.685
58772SOL    HW278091   5.693   5.022   9.748
58773SOL     OW78092   1.058   6.012  13.980
58773SOL    HW178093   1.001   5.958  13.926
58773SOL    HW278094   1.036   5.989  14.070
58774SOL     OW78095   3.982   4.471  12.496
58774SOL    HW178096   3.938   4.422  12.427
58774SOL    HW278097   4.051   4.413  12.527
58775SOL     OW78098   5.541   3.072   8.501
58775SOL    HW178099   5.534   3.074   8.597
58775SOL    HW278100   5.547   2.979   8.480
58776SOL     OW78101  14.371   9.033   1.201
58776SOL    HW178102  14.302   8.994   1.256
58776SOL    HW278103  14.332   9.037   1.114
58777SOL     OW78104   8.838   7.277   7.049
58777SOL    HW178105   8.791   7.217   7.106
58777SOL    HW278106   8.823   7.363   7.088
58778SOL     OW78107  11.143   1.481   8.851
58778SOL    HW178108  11.163   1.445   8.765
58778SOL    HW278109  11.121   1.573   8.834
58779SOL     OW78110  14.468   6.885  12.927
58779SOL    HW178111  14.470   6.825  12.852
58779SOL    HW278112  14.387   6.936  12.915
58780SOL     OW78113  14.842   5.777   9.824
58780SOL    HW178114  14.777   5.830   9.869
58780SOL    HW278115  14.797   5.743   9.747
58781SOL     OW78116   2.295   9.876  13.807
58781SOL    HW178117   2.268   9.913  13.892
58781SOL    HW278118   2.362   9.812  13.829
58782SOL     OW78119   4.388   1.007   7.280
58782SOL    HW178120   4.302   0.974   7.306
58782SOL    HW278121   4.408   0.960   7.199
58783SOL     OW78122   9.336  12.347   7.912
58783SOL    HW178123   9.386  12.390   7.981
58783SOL    HW278124   9.269  12.297   7.958
58784SOL     OW78125  14.642   8.724   9.066
58784SOL    HW178126  14.716   8.760   9.018
58784SOL    HW278127  14.675   8.644   9.106
58785SOL     OW78128   2.557   8.367  10.056
58785SOL    HW178129   2.572   8.276  10.081
58785SOL    HW278130   2.462   8.374  10.044
58786SOL     OW78131   9.557   3.311   6.577
58786SOL    HW178132   9.636   3.258   6.565
58786SOL    HW278133   9.560   3.374   6.504
58787SOL     OW78134  10.937  11.561   3.093
58787SOL    HW178135  11.019  11.526   3.057
58787SOL    HW278136  10.958  11.583   3.184
58788SOL     OW78137   0.644   9.348   0.868
58788SOL    HW178138   0.694   9.311   0.796
58788SOL    HW278139   0.571   9.287   0.881
58789SOL     OW78140  13.253   7.486   7.087
58789SOL    HW178141  13.296   7.519   7.166
58789SOL    HW278142  13.283   7.395   7.080
58790SOL     OW78143  11.095  13.054  10.138
58790SOL    HW178144  11.051  13.081  10.058
58790SOL    HW278145  11.060  13.112  10.206
58791SOL     OW78146   7.198   5.360   1.746
58791SOL    HW178147   7.121   5.309   1.774
58791SOL    HW278148   7.246   5.301   1.689
58792SOL     OW78149   2.905   1.911   9.977
58792SOL    HW178150   2.925   1.987   9.923
58792SOL    HW278151   2.821   1.932  10.019
58793SOL     OW78152  13.526   0.414   0.375
58793SOL    HW178153  13.470   0.488   0.397
58793SOL    HW278154  13.586   0.407   0.449
58794SOL     OW78155  10.538  14.391   9.998
58794SOL    HW178156  10.494  14.475  10.012
58794SOL    HW278157  10.475  14.339   9.949
58795SOL     OW78158   8.853  11.843  11.056
58795SOL    HW178159   8.850  11.915  11.118
58795SOL    HW278160   8.933  11.858  11.005
58796SOL     OW78161   2.346  14.306  11.977
58796SOL    HW178162   2.304  14.375  12.028
58796SOL    HW278163   2.274  14.258  11.937
58797SOL     OW78164   0.525   1.592  11.721
58797SOL    HW178165   0.487   1.677  11.740
58797SOL    HW278166   0.618   1.609  11.706
58798SOL     OW78167   4.653   7.313   4.096
58798SOL    HW178168   4.654   7.275   4.184
58798SOL    HW278169   4.684   7.242   4.039
58799SOL     OW78170   7.243   1.865   0.014
58799SOL    HW178171   7.168   1.925   0.019
58799SOL    HW278172   7.205   1.778   0.017
58800SOL     OW78173  10.610   6.292  10.012
58800SOL    HW178174  10.575   6.203  10.016
58800SOL    HW278175  10.613   6.322  10.103
58801SOL     OW78176   2.991  13.762   8.017
58801SOL    HW178177   2.896  13.766   8.030
58801SOL    HW278178   3.007  13.674   7.983
58802SOL     OW78179   7.255   0.342   4.603
58802SOL    HW178180   7.297   0.422   4.572
58802SOL    HW278181   7.225   0.298   4.524
58803SOL     OW78182   2.302   4.400   4.022
58803SOL    HW178183   2.260   4.484   4.001
58803SOL    HW278184   2.251   4.366   4.096
58804SOL     OW78185   6.479   8.103   6.080
58804SOL    HW178186   6.547   8.037   6.066
58804SOL    HW278187   6.525   8.178   6.117
58805SOL     OW78188   4.265   7.165  13.754
58805SOL    HW178189   4.196   7.202  13.699
58805SOL    HW278190   4.320   7.115  13.694
58806SOL     OW78191   2.028   9.695   1.619
58806SOL    HW178192   2.004   9.610   1.655
58806SOL    HW278193   2.072   9.675   1.536
58807SOL     OW78194   8.073   8.814  14.576
58807SOL    HW178195   8.020   8.891  14.597
58807SOL    HW278196   8.012   8.753  14.536
58808SOL     OW78197   8.092   1.932   9.183
58808SOL    HW178198   8.173   1.964   9.224
58808SOL    HW278199   8.110   1.841   9.162
58809SOL     OW78200  10.922  10.897   3.214
58809SOL    HW178201  10.897  10.946   3.293
58809SOL    HW278202  10.845  10.900   3.159
58810SOL     OW78203   3.610   9.589   7.953
58810SOL    HW178204   3.531   9.560   7.998
58810SOL    HW278205   3.579   9.630   7.872
58811SOL     OW78206  14.768   2.165  13.623
58811SOL    HW178207  14.803   2.246  13.587
58811SOL    HW278208  14.838   2.131  13.678
58812SOL     OW78209   6.474  14.450  14.685
58812SOL    HW178210   6.457  14.410  14.599
58812SOL    HW278211   6.389  14.448  14.728
58813SOL     OW78212   7.622   5.600   3.345
58813SOL    HW178213   7.702   5.547   3.350
58813SOL    HW278214   7.579   5.586   3.429
58814SOL     OW78215  13.835   1.864   8.357
58814SOL    HW178216  13.781   1.826   8.427
58814SOL    HW278217  13.921   1.878   8.398
58815SOL     OW78218   9.177   4.148   5.546
58815SOL    HW178219   9.156   4.239   5.567
58815SOL    HW278220   9.260   4.152   5.498
58816SOL     OW78221   0.698   2.419   3.768
58816SOL    HW178222   0.652   2.342   3.802
58816SOL    HW278223   0.763   2.383   3.707
58817SOL     OW78224   3.833   9.389   3.340
58817SOL    HW178225   3.862   9.479   3.359
58817SOL    HW278226   3.745   9.400   3.304
58818SOL     OW78227  13.889   3.727   2.357
58818SOL    HW178228  13.914   3.756   2.269
58818SOL    HW278229  13.907   3.803   2.413
58819SOL     OW78230   5.181   9.761   6.369
58819SOL    HW178231   5.092   9.786   6.392
58819SOL    HW278232   5.235   9.796   6.440
58820SOL     OW78233   9.369   3.357  11.146
58820SOL    HW178234   9.309   3.412  11.197
58820SOL    HW278235   9.311   3.301  11.093
58821SOL     OW78236   5.731  10.725  14.711
58821SOL    HW178237   5.676  10.732  14.789
58821SOL    HW278238   5.820  10.724  14.745
58822SOL     OW78239   2.274   7.293   0.698
58822SOL    HW178240   2.266   7.377   0.744
58822SOL    HW278241   2.239   7.310   0.610
58823SOL     OW78242   6.424   3.862  12.591
58823SOL    HW178243   6.362   3.921  12.633
58823SOL    HW278244   6.481   3.919  12.541
58824SOL     OW78245   8.959   0.685  13.647
58824SOL    HW178246   9.032   0.678  13.709
58824SOL    HW278247   9.000   0.667  13.562
58825SOL     OW78248   0.407  10.309   9.255
58825SOL    HW178249   0.383  10.344   9.340
58825SOL    HW278250   0.443  10.222   9.274
58826SOL     OW78251   7.851   4.437  13.364
58826SOL    HW178252   7.858   4.445  13.269
58826SOL    HW278253   7.932   4.392  13.390
58827SOL     OW78254   5.547   5.179  14.854
58827SOL    HW178255   5.556   5.092   0.012
58827SOL    HW278256   5.611   5.233   0.018
58828SOL     OW78257   9.218   4.685   7.811
58828SOL    HW178258   9.224   4.776   7.779
58828SOL    HW278259   9.252   4.688   7.900
58829SOL     OW78260   4.178   0.596   6.238
58829SOL    HW178261   4.084   0.587   6.221
58829SOL    HW278262   4.209   0.506   6.249
58830SOL     OW78263  13.347  11.303   1.872
58830SOL    HW178264  13.431  11.347   1.859
58830SOL    HW278265  13.329  11.313   1.965
58831SOL     OW78266   8.387   7.923   6.275
58831SOL    HW178267   8.450   7.991   6.297
58831SOL    HW278268   8.416   7.890   6.190
58832SOL     OW78269   6.782   7.098   8.492
58832SOL    HW178270   6.768   7.025   8.432
58832SOL    HW278271   6.719   7.165   8.465
58833SOL     OW78272   3.608   5.158   4.015
58833SOL    HW178273   3.635   5.082   3.963
58833SOL    HW278274   3.666   5.156   4.091
58834SOL     OW78275   0.565   9.849   2.058
58834SOL    HW178276   0.541   9.882   2.145
58834SOL    HW278277   0.626   9.914   2.024
58835SOL     OW78278   2.901   7.915  13.150
58835SOL    HW178279   2.845   7.850  13.108
58835SOL    HW278280   2.975   7.864  13.184
58836SOL     OW78281   3.511   7.047   5.292
58836SOL    HW178282   3.514   7.058   5.197
58836SOL    HW278283   3.428   7.087   5.318
58837SOL     OW78284   1.994  11.062   8.333
58837SOL    HW178285   2.014  10.979   8.376
58837SOL    HW278286   1.966  11.119   8.405
58838SOL     OW78287   1.452   9.015   2.053
58838SOL    HW178288   1.509   9.020   1.976
58838SOL    HW278289   1.446   8.921   2.072
58839SOL     OW78290  14.727  11.807   3.019
58839SOL    HW178291  14.815  11.813   2.981
58839SOL    HW278292  14.740  11.821   3.113
58840SOL     OW78293  12.636   1.428   5.225
58840SOL    HW178294  12.672   1.468   5.146
58840SOL    HW278295  12.681   1.344   5.232
58841SOL     OW78296   9.474  11.582  10.713
58841SOL    HW178297   9.554  11.529  10.707
58841SOL    HW278298   9.501  11.669  10.687
58842SOL     OW78299   1.610   4.448  11.947
58842SOL    HW178300   1.692   4.497  11.935
58842SOL    HW278301   1.555   4.475  11.874
58843SOL     OW78302   8.418  14.003  12.440
58843SOL    HW178303   8.339  13.952  12.459
58843SOL    HW278304   8.400  14.044  12.356
58844SOL     OW78305   7.518   9.807   2.900
58844SOL    HW178306   7.532   9.789   2.993
58844SOL    HW278307   7.559   9.892   2.885
58845SOL     OW78308   2.766  10.280   9.938
58845SOL    HW178309   2.794  10.353   9.993
58845SOL    HW278310   2.697  10.236   9.989
58846SOL     OW78311   0.326   9.642   0.139
58846SOL    HW178312   0.248   9.678   0.097
58846SOL    HW278313   0.302   9.633   0.231
58847SOL     OW78314  10.431  14.176   4.495
58847SOL    HW178315  10.356  14.179   4.554
58847SOL    HW278316  10.457  14.268   4.485
58848SOL     OW78317   8.875  11.554   5.652
58848SOL    HW178318   8.894  11.605   5.730
58848SOL    HW278319   8.892  11.463   5.678
58849SOL     OW78320   9.234   4.524  13.865
58849SOL    HW178321   9.288   4.486  13.933
58849SOL    HW278322   9.237   4.618  13.882
58850SOL     OW78323  11.452  10.247   2.762
58850SOL    HW178324  11.489  10.234   2.849
58850SOL    HW278325  11.519  10.213   2.702
58851SOL     OW78326   3.391  14.184   7.465
58851SOL    HW178327   3.443  14.229   7.533
58851SOL    HW278328   3.384  14.094   7.496
58852SOL     OW78329   5.559   7.559  12.852
58852SOL    HW178330   5.598   7.530  12.769
58852SOL    HW278331   5.587   7.650  12.860
58853SOL     OW78332  10.744  10.307   8.514
58853SOL    HW178333  10.660  10.277   8.549
58853SOL    HW278334  10.804  10.300   8.588
58854SOL     OW78335  12.505   6.671   5.428
58854SOL    HW178336  12.507   6.732   5.354
58854SOL    HW278337  12.416   6.679   5.463
58855SOL     OW78338   9.087   3.782   9.632
58855SOL    HW178339   9.053   3.692   9.629
58855SOL    HW278340   9.055   3.817   9.715
58856SOL     OW78341  10.862   3.512  10.511
58856SOL    HW178342  10.785   3.564  10.534
58856SOL    HW278343  10.936   3.561  10.548
58857SOL     OW78344   2.999  13.499  14.536
58857SOL    HW178345   2.905  13.512  14.552
58857SOL    HW278346   3.042  13.541  14.611
58858SOL     OW78347  14.461   2.862  13.936
58858SOL    HW178348  14.426   2.936  13.887
58858SOL    HW278349  14.481   2.796  13.870
58859SOL     OW78350  13.848   7.474  10.135
58859SOL    HW178351  13.934   7.499  10.168
58859SOL    HW278352  13.863   7.394  10.085
58860SOL     OW78353   4.888   2.733  14.642
58860SOL    HW178354   4.904   2.639  14.647
58860SOL    HW278355   4.972   2.770  14.617
58861SOL     OW78356   3.867   4.401   0.574
58861SOL    HW178357   3.917   4.395   0.493
58861SOL    HW278358   3.793   4.341   0.562
58862SOL     OW78359  13.662   6.555  13.979
58862SOL    HW178360  13.639   6.617  14.048
58862SOL    HW278361  13.714   6.607  13.917
58863SOL     OW78362   3.358   5.309   1.689
58863SOL    HW178363   3.314   5.337   1.770
58863SOL    HW278364   3.418   5.240   1.717
58864SOL     OW78365   3.588   4.364  13.937
58864SOL    HW178366   3.662   4.395  13.988
58864SOL    HW278367   3.624   4.293  13.884
58865SOL     OW78368   2.623   2.982   7.926
58865SOL    HW178369   2.605   3.022   8.011
58865SOL    HW278370   2.683   2.910   7.946
58866SOL     OW78371   2.183  10.444   4.354
58866SOL    HW178372   2.199  10.350   4.347
58866SOL    HW278373   2.223  10.469   4.437
58867SOL     OW78374   0.711   7.820   4.004
58867SOL    HW178375   0.622   7.832   4.036
58867SOL    HW278376   0.737   7.905   3.968
58868SOL     OW78377  13.459   2.500   9.763
58868SOL    HW178378  13.549   2.527   9.779
58868SOL    HW278379  13.429   2.466   9.847
58869SOL     OW78380   7.866   9.942  11.717
58869SOL    HW178381   7.830   9.951  11.805
58869SOL    HW278382   7.858   9.849  11.697
58870SOL     OW78383   7.675  11.722   2.467
58870SOL    HW178384   7.645  11.632   2.451
58870SOL    HW278385   7.601  11.777   2.440
58871SOL     OW78386  14.157   6.153  13.409
58871SOL    HW178387  14.072   6.178  13.373
58871SOL    HW278388  14.218   6.161  13.336
58872SOL     OW78389  11.201   6.086   6.532
58872SOL    HW178390  11.142   6.160   6.516
58872SOL    HW278391  11.171   6.018   6.472
58873SOL     OW78392   2.495  13.319   6.846
58873SOL    HW178393   2.465  13.410   6.849
58873SOL    HW278394   2.460  13.285   6.764
58874SOL     OW78395  10.455  13.182   9.905
58874SOL    HW178396  10.369  13.144   9.885
58874SOL    HW278397  10.456  13.265   9.858
58875SOL     OW78398  13.139   8.364  13.113
58875SOL    HW178399  13.085   8.307  13.168
58875SOL    HW278400  13.163   8.437  13.171
58876SOL     OW78401   8.996   4.610   9.999
58876SOL    HW178402   8.957   4.624  10.086
58876SOL    HW278403   8.983   4.517   9.982
58877SOL     OW78404  11.996   5.731  14.656
58877SOL    HW178405  12.091   5.726  14.665
58877SOL    HW278406  11.963   5.723  14.745
58878SOL     OW78407   9.654   8.574  12.348
58878SOL    HW178408   9.713   8.504  12.377
58878SOL    HW278409   9.695   8.655  12.377
58879SOL     OW78410  10.930  13.050   1.213
58879SOL    HW178411  10.863  13.009   1.267
58879SOL    HW278412  10.888  13.130   1.180
58880SOL     OW78413   2.825   9.872   4.311
58880SOL    HW178414   2.878   9.849   4.387
58880SOL    HW278415   2.857   9.815   4.241
58881SOL     OW78416   9.696  14.337  11.664
58881SOL    HW178417   9.695  14.416  11.610
58881SOL    HW278418   9.615  14.343  11.715
58882SOL     OW78419  12.595  14.867   6.312
58882SOL    HW178420  12.613  14.807   6.240
58882SOL    HW278421  12.520  14.829   6.356
58883SOL     OW78422  11.387   9.160   9.874
58883SOL    HW178423  11.394   9.190   9.784
58883SOL    HW278424  11.385   9.241   9.926
58884SOL     OW78425   2.193   4.545   9.075
58884SOL    HW178426   2.212   4.561   9.168
58884SOL    HW278427   2.145   4.623   9.047
58885SOL     OW78428   3.983  14.656   5.282
58885SOL    HW178429   3.912  14.604   5.320
58885SOL    HW278430   4.029  14.595   5.223
58886SOL     OW78431   4.972   1.845   4.338
58886SOL    HW178432   4.884   1.819   4.366
58886SOL    HW278433   5.030   1.807   4.404
58887SOL     OW78434  10.345  12.524  12.270
58887SOL    HW178435  10.319  12.613  12.248
58887SOL    HW278436  10.300  12.504  12.352
58888SOL     OW78437   9.805  11.471  10.245
58888SOL    HW178438   9.847  11.466  10.331
58888SOL    HW278439   9.714  11.493  10.264
58889SOL     OW78440  10.920   0.636  10.923
58889SOL    HW178441  10.845   0.580  10.938
58889SOL    HW278442  10.980   0.617  10.995
58890SOL     OW78443   5.756   4.445   6.619
58890SOL    HW178444   5.674   4.399   6.598
58890SOL    HW278445   5.727   4.524   6.664
58891SOL     OW78446  10.346   9.486   2.531
58891SOL    HW178447  10.288   9.411   2.543
58891SOL    HW278448  10.428   9.447   2.499
58892SOL     OW78449   0.753  11.244  10.978
58892SOL    HW178450   0.797  11.287  11.051
58892SOL    HW278451   0.812  11.256  10.904
58893SOL     OW78452   6.091   5.740   9.058
58893SOL    HW178453   6.047   5.824   9.072
58893SOL    HW278454   6.039   5.696   8.990
58894SOL     OW78455  10.914   7.071  14.445
58894SOL    HW178456  10.973   7.127  14.395
58894SOL    HW278457  10.857   7.031  14.379
58895SOL     OW78458  10.036   2.821   5.987
58895SOL    HW178459   9.975   2.750   5.968
58895SOL    HW278460   9.981   2.895   6.012
58896SOL     OW78461  11.016   8.894   3.084
58896SOL    HW178462  11.062   8.890   3.001
58896SOL    HW278463  10.926   8.868   3.062
58897SOL     OW78464   9.887   6.624  14.746
58897SOL    HW178465   9.924   6.555  14.692
58897SOL    HW278466   9.868   6.581  14.830
58898SOL     OW78467  12.201  11.099  12.319
58898SOL    HW178468  12.141  11.143  12.258
58898SOL    HW278469  12.184  11.140  12.403
58899SOL     OW78470   3.022   6.669  14.104
58899SOL    HW178471   2.959   6.635  14.040
58899SOL    HW278472   3.105   6.629  14.080
58900SOL     OW78473   8.410   9.345   3.378
58900SOL    HW178474   8.493   9.379   3.412
58900SOL    HW278475   8.371   9.420   3.333
58901SOL     OW78476  13.192   6.342  12.170
58901SOL    HW178477  13.259   6.401  12.204
58901SOL    HW278478  13.184   6.273  12.236
58902SOL     OW78479   3.172   0.214  13.528
58902SOL    HW178480   3.096   0.176  13.485
58902SOL    HW278481   3.191   0.294  13.478
58903SOL     OW78482   4.838   3.444   4.504
58903SOL    HW178483   4.880   3.475   4.585
58903SOL    HW278484   4.811   3.354   4.524
58904SOL     OW78485   4.441  11.216  11.461
58904SOL    HW178486   4.390  11.193  11.538
58904SOL    HW278487   4.447  11.135  11.410
58905SOL     OW78488   1.104  14.820   3.216
58905SOL    HW178489   1.074   0.003   3.153
58905SOL    HW278490   1.075  14.853   3.301
58906SOL     OW78491   9.500  13.245  14.346
58906SOL    HW178492   9.506  13.334  14.312
58906SOL    HW278493   9.508  13.190  14.268
58907SOL     OW78494  10.433   2.077   9.314
58907SOL    HW178495  10.420   2.043   9.225
58907SOL    HW278496  10.348   2.115   9.337
58908SOL     OW78497   8.830   0.160  11.297
58908SOL    HW178498   8.780   0.212  11.358
58908SOL    HW278499   8.853   0.220  11.226
58909SOL     OW78500   5.982   7.693  11.962
58909SOL    HW178501   5.959   7.778  12.000
58909SOL    HW278502   6.059   7.665  12.010
58910SOL     OW78503   4.727   1.601   0.279
58910SOL    HW178504   4.731   1.526   0.339
58910SOL    HW278505   4.732   1.562   0.192
58911SOL     OW78506  12.468   5.936   1.768
58911SOL    HW178507  12.512   6.020   1.781
58911SOL    HW278508  12.449   5.904   1.856
58912SOL     OW78509  14.694   8.689  14.572
58912SOL    HW178510  14.723   8.739  14.649
58912SOL    HW278511  14.681   8.600  14.604
58913SOL     OW78512  13.225  13.369  14.293
58913SOL    HW178513  13.205  13.282  14.260
58913SOL    HW278514  13.303  13.358  14.348
58914SOL     OW78515   1.780  11.048   8.978
58914SOL    HW178516   1.864  11.093   8.972
58914SOL    HW278517   1.719  11.115   9.009
58915SOL     OW78518   2.411  10.536   5.712
58915SOL    HW178519   2.336  10.540   5.772
58915SOL    HW278520   2.419  10.443   5.691
58916SOL     OW78521   0.303   3.867  10.128
58916SOL    HW178522   0.381   3.914  10.159
58916SOL    HW278523   0.255   3.932  10.077
58917SOL     OW78524  10.392  11.415   3.100
58917SOL    HW178525  10.434  11.468   3.032
58917SOL    HW278526  10.301  11.406   3.071
58918SOL     OW78527   4.105   7.640   8.983
58918SOL    HW178528   4.075   7.676   8.899
58918SOL    HW278529   4.190   7.601   8.963
58919SOL     OW78530   5.366   2.774   8.475
58919SOL    HW178531   5.361   2.759   8.569
58919SOL    HW278532   5.446   2.730   8.447
58920SOL     OW78533   3.617  14.697  11.810
58920SOL    HW178534   3.692  14.702  11.751
58920SOL    HW278535   3.608  14.785  11.845
58921SOL     OW78536   7.954   9.038  11.007
58921SOL    HW178537   7.990   8.950  11.019
58921SOL    HW278538   7.880   9.042  11.068
58922SOL     OW78539   6.828   6.657   1.526
58922SOL    HW178540   6.884   6.586   1.555
58922SOL    HW278541   6.847   6.666   1.432
58923SOL     OW78542  12.488  14.231   3.453
58923SOL    HW178543  12.412  14.197   3.500
58923SOL    HW278544  12.452  14.279   3.378
58924SOL     OW78545   0.622   6.835   1.777
58924SOL    HW178546   0.670   6.901   1.826
58924SOL    HW278547   0.535   6.874   1.764
58925SOL     OW78548   0.708  12.737   2.035
58925SOL    HW178549   0.645  12.677   2.075
58925SOL    HW278550   0.780  12.743   2.097
58926SOL     OW78551   1.981   6.940  13.678
58926SOL    HW178552   2.036   6.890  13.618
58926SOL    HW278553   1.967   6.880  13.752
58927SOL     OW78554  11.593   3.430   4.388
58927SOL    HW178555  11.661   3.445   4.323
58927SOL    HW278556  11.607   3.498   4.454
58928SOL     OW78557   9.035   7.288   2.681
58928SOL    HW178558   9.007   7.327   2.598
58928SOL    HW278559   9.124   7.255   2.664
58929SOL     OW78560  14.703   8.126   7.388
58929SOL    HW178561  14.627   8.071   7.370
58929SOL    HW278562  14.751   8.130   7.305
58930SOL     OW78563   4.919   0.584   6.303
58930SOL    HW178564   4.922   0.500   6.349
58930SOL    HW278565   4.830   0.616   6.317
58931SOL     OW78566  13.640   1.798   0.142
58931SOL    HW178567  13.692   1.726   0.107
58931SOL    HW278568  13.596   1.760   0.218
58932SOL     OW78569   4.204   1.960   9.558
58932SOL    HW178570   4.131   1.918   9.602
58932SOL    HW278571   4.182   1.957   9.465
58933SOL     OW78572  11.628   9.675   6.270
58933SOL    HW178573  11.630   9.709   6.180
58933SOL    HW278574  11.560   9.726   6.313
58934SOL     OW78575  11.288   6.563  12.437
58934SOL    HW178576  11.206   6.612  12.447
58934SOL    HW278577  11.356   6.626  12.459
58935SOL     OW78578  11.113  12.102   1.860
58935SOL    HW178579  11.067  12.179   1.826
58935SOL    HW278580  11.191  12.138   1.903
58936SOL     OW78581  11.464   2.033  11.362
58936SOL    HW178582  11.499   2.119  11.340
58936SOL    HW278583  11.427   2.000  11.281
58937SOL     OW78584   6.544   2.049  10.761
58937SOL    HW178585   6.638   2.069  10.759
58937SOL    HW278586   6.526   2.029  10.852
58938SOL     OW78587   1.616  13.425   9.843
58938SOL    HW178588   1.649  13.467   9.922
58938SOL    HW278589   1.533  13.385   9.871
58939SOL     OW78590   2.123  14.113   1.795
58939SOL    HW178591   2.036  14.081   1.770
58939SOL    HW278592   2.168  14.127   1.712
58940SOL     OW78593   1.613   6.034   7.088
58940SOL    HW178594   1.655   6.098   7.145
58940SOL    HW278595   1.633   6.064   6.999
58941SOL     OW78596  14.097  11.639   2.640
58941SOL    HW178597  14.048  11.567   2.600
58941SOL    HW278598  14.119  11.608   2.728
58942SOL     OW78599  11.875   9.720  14.300
58942SOL    HW178600  11.965   9.733  14.328
58942SOL    HW278601  11.875   9.635  14.256
58943SOL     OW78602   9.267  14.146   1.355
58943SOL    HW178603   9.299  14.235   1.372
58943SOL    HW278604   9.304  14.122   1.270
58944SOL     OW78605   6.931   9.369   6.889
58944SOL    HW178606   6.978   9.294   6.853
58944SOL    HW278607   6.999   9.424   6.928
58945SOL     OW78608  13.179   4.783  14.293
58945SOL    HW178609  13.105   4.722  14.301
58945SOL    HW278610  13.182   4.805  14.200
58946SOL     OW78611   3.123   3.953  10.531
58946SOL    HW178612   3.102   3.877  10.585
58946SOL    HW278613   3.175   4.010  10.588
58947SOL     OW78614   6.595  12.411   4.576
58947SOL    HW178615   6.638  12.383   4.657
58947SOL    HW278616   6.502  12.402   4.594
58948SOL     OW78617  14.434   1.812   7.003
58948SOL    HW178618  14.372   1.740   6.988
58948SOL    HW278619  14.381   1.891   6.993
58949SOL     OW78620   3.902   5.010   9.307
58949SOL    HW178621   3.942   5.014   9.220
58949SOL    HW278622   3.842   4.936   9.302
58950SOL     OW78623  11.368  11.935   2.036
58950SOL    HW178624  11.380  11.843   2.059
58950SOL    HW278625  11.307  11.969   2.102
58951SOL     OW78626   1.198  11.017  10.166
58951SOL    HW178627   1.191  11.029  10.071
58951SOL    HW278628   1.108  11.017  10.197
58952SOL     OW78629   9.548   9.563  10.623
58952SOL    HW178630   9.487   9.557  10.696
58952SOL    HW278631   9.590   9.477  10.618
58953SOL     OW78632  11.101   7.888  11.221
58953SOL    HW178633  11.150   7.954  11.171
58953SOL    HW278634  11.076   7.823  11.155
58954SOL     OW78635   9.879   4.009  11.029
58954SOL    HW178636   9.808   4.071  11.016
58954SOL    HW278637   9.836   3.928  11.058
58955SOL     OW78638   5.075   0.487  13.720
58955SOL    HW178639   5.167   0.513  13.717
58955SOL    HW278640   5.036   0.545  13.786
58956SOL     OW78641   6.548   5.805   8.326
58956SOL    HW178642   6.511   5.782   8.411
58956SOL    HW278643   6.475   5.844   8.278
58957SOL     OW78644   3.780   6.402   4.154
58957SOL    HW178645   3.718   6.435   4.220
58957SOL    HW278646   3.813   6.481   4.112
58958SOL     OW78647   4.482   4.920   9.138
58958SOL    HW178648   4.388   4.901   9.147
58958SOL    HW278649   4.485   4.994   9.076
58959SOL     OW78650  11.623   8.574  11.968
58959SOL    HW178651  11.570   8.537  12.039
58959SOL    HW278652  11.622   8.507  11.900
58960SOL     OW78653   3.571  11.217   3.711
58960SOL    HW178654   3.580  11.176   3.797
58960SOL    HW278655   3.570  11.311   3.728
58961SOL     OW78656  11.845   7.550   4.479
58961SOL    HW178657  11.778   7.551   4.547
58961SOL    HW278658  11.926   7.572   4.526
58962SOL     OW78659  12.341  13.215   9.265
58962SOL    HW178660  12.389  13.293   9.235
58962SOL    HW278661  12.409  13.156   9.298
58963SOL     OW78662   7.783   3.581   2.617
58963SOL    HW178663   7.824   3.596   2.532
58963SOL    HW278664   7.817   3.496   2.646
58964SOL     OW78665  10.626  10.818   1.590
58964SOL    HW178666  10.587  10.738   1.556
58964SOL    HW278667  10.679  10.790   1.665
58965SOL     OW78668  13.815   0.921  10.374
58965SOL    HW178669  13.757   0.978  10.424
58965SOL    HW278670  13.898   0.924  10.420
58966SOL     OW78671  11.096  13.707   9.485
58966SOL    HW178672  11.120  13.710   9.578
58966SOL    HW278673  11.015  13.758   9.479
58967SOL     OW78674   9.605   5.646   7.487
58967SOL    HW178675   9.516   5.679   7.503
58967SOL    HW278676   9.630   5.603   7.569
58968SOL     OW78677  12.483  10.944   2.597
58968SOL    HW178678  12.551  10.902   2.544
58968SOL    HW278679  12.516  10.938   2.687
58969SOL     OW78680  14.680   6.372   6.876
58969SOL    HW178681  14.675   6.364   6.781
58969SOL    HW278682  14.643   6.458   6.895
58970SOL     OW78683   1.189   3.893   5.871
58970SOL    HW178684   1.103   3.878   5.831
58970SOL    HW278685   1.172   3.956   5.942
58971SOL     OW78686  12.709   9.232   8.171
58971SOL    HW178687  12.624   9.219   8.215
58971SOL    HW278688  12.771   9.246   8.243
58972SOL     OW78689   6.269  14.559  13.837
58972SOL    HW178690   6.330  14.486  13.827
58972SOL    HW278691   6.324  14.637  13.834
58973SOL     OW78692  11.099   5.571  10.566
58973SOL    HW178693  11.095   5.652  10.617
58973SOL    HW278694  11.117   5.503  10.630
58974SOL     OW78695   6.395   1.884   0.420
58974SOL    HW178696   6.458   1.934   0.473
58974SOL    HW278697   6.426   1.794   0.426
58975SOL     OW78698   7.919  12.505   5.702
58975SOL    HW178699   7.836  12.542   5.673
58975SOL    HW278700   7.946  12.560   5.776
58976SOL     OW78701   1.864  10.784   0.937
58976SOL    HW178702   1.824  10.869   0.949
58976SOL    HW278703   1.857  10.741   1.022
58977SOL     OW78704   7.823   4.690   1.096
58977SOL    HW178705   7.837   4.768   1.043
58977SOL    HW278706   7.729   4.691   1.115
58978SOL     OW78707  14.148   1.564  10.376
58978SOL    HW178708  14.125   1.654  10.354
58978SOL    HW278709  14.090   1.510  10.323
58979SOL     OW78710   7.715   3.268   4.709
58979SOL    HW178711   7.643   3.328   4.693
58979SOL    HW278712   7.764   3.267   4.627
58980SOL     OW78713   3.883   4.392   6.904
58980SOL    HW178714   3.876   4.333   6.980
58980SOL    HW278715   3.827   4.352   6.838
58981SOL     OW78716   0.919   3.827   9.766
58981SOL    HW178717   0.880   3.769   9.701
58981SOL    HW278718   0.877   3.912   9.750
58982SOL     OW78719   0.309   2.697  12.035
58982SOL    HW178720   0.373   2.728  11.971
58982SOL    HW278721   0.300   2.769  12.097
58983SOL     OW78722  11.134  14.634   6.177
58983SOL    HW178723  11.186  14.557   6.154
58983SOL    HW278724  11.071  14.642   6.105
58984SOL     OW78725   6.018   8.145   8.583
58984SOL    HW178726   6.063   8.107   8.658
58984SOL    HW278727   5.958   8.076   8.553
58985SOL     OW78728   9.471   5.284   8.800
58985SOL    HW178729   9.510   5.321   8.879
58985SOL    HW278730   9.544   5.240   8.756
58986SOL     OW78731   8.854   0.594   3.401
58986SOL    HW178732   8.824   0.680   3.432
58986SOL    HW278733   8.834   0.534   3.473
58987SOL     OW78734   3.489   5.566   5.712
58987SOL    HW178735   3.466   5.473   5.707
58987SOL    HW278736   3.409   5.612   5.688
58988SOL     OW78737  12.097   7.886   2.832
58988SOL    HW178738  12.090   7.980   2.848
58988SOL    HW278739  12.023   7.848   2.879
58989SOL     OW78740   1.787  14.792   2.529
58989SOL    HW178741   1.790  14.752   2.615
58989SOL    HW278742   1.822  14.726   2.469
58990SOL     OW78743  12.171   2.441   1.046
58990SOL    HW178744  12.195   2.523   1.003
58990SOL    HW278745  12.145   2.383   0.974
58991SOL     OW78746  12.698   8.949  14.416
58991SOL    HW178747  12.692   8.854  14.409
58991SOL    HW278748  12.710   8.966  14.509
58992SOL     OW78749  13.927   0.777  11.673
58992SOL    HW178750  13.932   0.802  11.581
58992SOL    HW278751  14.009   0.730  11.690
58993SOL     OW78752   5.866  14.094   2.526
58993SOL    HW178753   5.907  14.158   2.467
58993SOL    HW278754   5.845  14.019   2.469
58994SOL     OW78755  10.934   6.718  14.530
58994SOL    HW178756  11.019   6.685  14.556
58994SOL    HW278757  10.906   6.659  14.460
58995SOL     OW78758   7.990   7.073   2.529
58995SOL    HW178759   7.949   6.996   2.568
58995SOL    HW278760   7.980   7.061   2.435
58996SOL     OW78761   3.268   3.076   8.673
58996SOL    HW178762   3.266   3.120   8.588
58996SOL    HW278763   3.212   3.129   8.729
58997SOL     OW78764   7.253  10.356  12.375
58997SOL    HW178765   7.263  10.262  12.366
58997SOL    HW278766   7.289  10.392  12.293
58998SOL     OW78767   2.012  11.394  13.938
58998SOL    HW178768   2.005  11.382  13.844
58998SOL    HW278769   1.927  11.431  13.964
58999SOL     OW78770   9.345   3.276   9.012
58999SOL    HW178771   9.419   3.216   9.015
58999SOL    HW278772   9.304   3.268   9.099
59000SOL     OW78773  10.427   5.785   2.149
59000SOL    HW178774  10.436   5.695   2.181
59000SOL    HW278775  10.496   5.794   2.084
59001SOL     OW78776  14.326   7.292   8.400
59001SOL    HW178777  14.296   7.354   8.466
59001SOL    HW278778  14.405   7.332   8.363
59002SOL     OW78779   4.567   4.426  14.148
59002SOL    HW178780   4.515   4.405  14.226
59002SOL    HW278781   4.556   4.350  14.091
59003SOL     OW78782   2.632  10.295   2.157
59003SOL    HW178783   2.576  10.234   2.109
59003SOL    HW278784   2.687  10.335   2.089
59004SOL     OW78785   9.663   8.380   7.092
59004SOL    HW178786   9.711   8.451   7.134
59004SOL    HW278787   9.720   8.304   7.099
59005SOL     OW78788   6.519   2.980  11.009
59005SOL    HW178789   6.464   3.057  11.015
59005SOL    HW278790   6.600   3.011  10.968
59006SOL     OW78791  12.068   8.905  11.014
59006SOL    HW178792  12.078   8.910  11.109
59006SOL    HW278793  12.052   8.813  10.997
59007SOL     OW78794   0.605   0.424  14.087
59007SOL    HW178795   0.548   0.351  14.063
59007SOL    HW278796   0.627   0.465  14.003
59008SOL     OW78797   8.644  14.130   3.843
59008SOL    HW178798   8.575  14.083   3.796
59008SOL    HW278799   8.631  14.108   3.935
59009SOL     OW78800   8.157  11.314  11.561
59009SOL    HW178801   8.246  11.279  11.561
59009SOL    HW278802   8.145  11.349  11.649
59010SOL     OW78803   3.571  13.246   6.124
59010SOL    HW178804   3.611  13.281   6.044
59010SOL    HW278805   3.534  13.162   6.099
59011SOL     OW78806  12.833   2.819   5.402
59011SOL    HW178807  12.892   2.796   5.331
59011SOL    HW278808  12.759   2.861   5.360
59012SOL     OW78809   2.275   9.624   6.825
59012SOL    HW178810   2.260   9.587   6.912
59012SOL    HW278811   2.363   9.661   6.829
59013SOL     OW78812   5.360   8.263   0.128
59013SOL    HW178813   5.437   8.278   0.183
59013SOL    HW278814   5.316   8.348   0.125
59014SOL     OW78815   7.623   3.295   2.497
59014SOL    HW178816   7.563   3.364   2.473
59014SOL    HW278817   7.591   3.217   2.451
59015SOL     OW78818   6.622  11.964   3.818
59015SOL    HW178819   6.642  11.923   3.734
59015SOL    HW278820   6.702  12.011   3.841
59016SOL     OW78821   2.765   5.291   6.566
59016SOL    HW178822   2.746   5.382   6.545
59016SOL    HW278823   2.679   5.249   6.574
59017SOL     OW78824  13.056   6.891  10.442
59017SOL    HW178825  13.089   6.806  10.471
59017SOL    HW278826  13.014   6.874  10.358
59018SOL     OW78827   1.055  10.937  14.673
59018SOL    HW178828   0.970  10.917  14.632
59018SOL    HW278829   1.086  10.852  14.705
59019SOL     OW78830   4.527   4.644   7.064
59019SOL    HW178831   4.483   4.561   7.082
59019SOL    HW278832   4.545   4.642   6.970
59020SOL     OW78833   0.982  13.201   2.232
59020SOL    HW178834   1.069  13.180   2.199
59020SOL    HW278835   0.964  13.290   2.199
59021SOL     OW78836   5.861   7.976  12.745
59021SOL    HW178837   5.854   8.068  12.719
59021SOL    HW278838   5.955   7.959  12.746
59022SOL     OW78839  14.431   9.686   6.618
59022SOL    HW178840  14.439   9.737   6.698
59022SOL    HW278841  14.516   9.695   6.575
59023SOL     OW78842   2.867  12.664  11.999
59023SOL    HW178843   2.881  12.595  11.935
59023SOL    HW278844   2.933  12.648  12.066
59024SOL     OW78845   4.345  12.080  13.569
59024SOL    HW178846   4.412  12.132  13.614
59024SOL    HW278847   4.315  12.138  13.499
59025SOL     OW78848   6.552   0.449   5.873
59025SOL    HW178849   6.601   0.445   5.955
59025SOL    HW278850   6.613   0.491   5.811
59026SOL     OW78851   9.017   2.612   5.275
59026SOL    HW178852   9.101   2.658   5.268
59026SOL    HW278853   9.019   2.550   5.202
59027SOL     OW78854  12.401  13.868   7.668
59027SOL    HW178855  12.400  13.858   7.763
59027SOL    HW278856  12.356  13.790   7.635
59028SOL     OW78857  14.060  12.113   5.597
59028SOL    HW178858  14.010  12.033   5.611
59028SOL    HW278859  14.057  12.159   5.681
59029SOL     OW78860   1.871  13.080   7.807
59029SOL    HW178861   1.947  13.131   7.779
59029SOL    HW278862   1.802  13.106   7.746
59030SOL     OW78863   5.759   1.093   0.472
59030SOL    HW178864   5.801   1.093   0.386
59030SOL    HW278865   5.708   1.012   0.474
59031SOL     OW78866  12.838  12.872  13.234
59031SOL    HW178867  12.920  12.919  13.222
59031SOL    HW278868  12.770  12.937  13.213
59032SOL     OW78869  12.683   8.369  10.886
59032SOL    HW178870  12.707   8.433  10.819
59032SOL    HW278871  12.675   8.286  10.838
59033SOL     OW78872   0.438   1.832   4.348
59033SOL    HW178873   0.520   1.791   4.321
59033SOL    HW278874   0.464   1.898   4.412
59034SOL     OW78875   4.293  12.541   3.573
59034SOL    HW178876   4.326  12.525   3.661
59034SOL    HW278877   4.248  12.625   3.579
59035SOL     OW78878   1.883   7.560   7.068
59035SOL    HW178879   1.963   7.536   7.021
59035SOL    HW278880   1.905   7.551   7.160
59036SOL     OW78881   0.689   9.706   5.233
59036SOL    HW178882   0.674   9.787   5.184
59036SOL    HW278883   0.601   9.676   5.256
59037SOL     OW78884  11.432   2.002   3.594
59037SOL    HW178885  11.422   2.008   3.689
59037SOL    HW278886  11.435   2.092   3.563
59038SOL     OW78887  11.980  12.533   9.553
59038SOL    HW178888  12.049  12.580   9.599
59038SOL    HW278889  11.947  12.469   9.617
59039SOL     OW78890   6.731   1.059  12.535
59039SOL    HW178891   6.795   1.047  12.605
59039SOL    HW278892   6.660   1.108  12.576
59040SOL     OW78893   2.954   4.900   4.955
59040SOL    HW178894   3.049   4.913   4.956
59040SOL    HW278895   2.935   4.854   5.037
59041SOL     OW78896   1.007  11.708  12.363
59041SOL    HW178897   1.069  11.651  12.408
59041SOL    HW278898   1.040  11.797  12.379
59042SOL     OW78899   1.271   8.746   6.534
59042SOL    HW178900   1.277   8.772   6.626
59042SOL    HW278901   1.337   8.799   6.490
59043SOL     OW78902   8.647   9.546  13.545
59043SOL    HW178903   8.679   9.627  13.505
59043SOL    HW278904   8.553   9.545  13.526
59044SOL     OW78905   3.915   5.434  12.436
59044SOL    HW178906   3.967   5.407  12.512
59044SOL    HW278907   3.977   5.484  12.382
59045SOL     OW78908  10.970  10.077   9.357
59045SOL    HW178909  10.943  10.041   9.441
59045SOL    HW278910  10.906  10.043   9.294
59046SOL     OW78911   4.233   1.264   0.095
59046SOL    HW178912   4.322   1.299   0.090
59046SOL    HW278913   4.225   1.206   0.019
59047SOL     OW78914   1.120   4.504   7.468
59047SOL    HW178915   1.206   4.477   7.435
59047SOL    HW278916   1.059   4.444   7.426
59048SOL     OW78917  12.574   3.079  11.961
59048SOL    HW178918  12.667   3.069  11.984
59048SOL    HW278919  12.538   2.991  11.967
59049SOL     OW78920   2.464  13.151   7.924
59049SOL    HW178921   2.497  13.182   8.008
59049SOL    HW278922   2.514  13.200   7.858
59050SOL     OW78923  10.637   2.892  11.818
59050SOL    HW178924  10.619   2.843  11.738
59050SOL    HW278925  10.667   2.977  11.788
59051SOL     OW78926  12.337  10.164   4.418
59051SOL    HW178927  12.357  10.076   4.385
59051SOL    HW278928  12.242  10.163   4.430
59052SOL     OW78929   1.847   2.534  13.787
59052SOL    HW178930   1.759   2.549  13.752
59052SOL    HW278931   1.832   2.501  13.876
59053SOL     OW78932  14.145   0.645  13.703
59053SOL    HW178933  14.084   0.667  13.633
59053SOL    HW278934  14.213   0.711  13.697
59054SOL     OW78935  14.519   1.977  13.081
59054SOL    HW178936  14.589   2.019  13.131
59054SOL    HW278937  14.444   1.979  13.140
59055SOL     OW78938   5.225   7.075   7.973
59055SOL    HW178939   5.156   7.119   8.024
59055SOL    HW278940   5.198   6.983   7.971
59056SOL     OW78941   4.513   5.501   5.029
59056SOL    HW178942   4.531   5.559   5.103
59056SOL    HW278943   4.598   5.487   4.988
59057SOL     OW78944   2.137   2.476  10.752
59057SOL    HW178945   2.153   2.383  10.739
59057SOL    HW278946   2.175   2.495  10.838
59058SOL     OW78947  11.370  13.678   1.993
59058SOL    HW178948  11.297  13.701   1.936
59058SOL    HW278949  11.342  13.597   2.036
59059SOL     OW78950   7.028   4.655  11.103
59059SOL    HW178951   6.939   4.643  11.069
59059SOL    HW278952   7.017   4.660  11.198
59060SOL     OW78953   6.542   3.267   7.559
59060SOL    HW178954   6.582   3.180   7.563
59060SOL    HW278955   6.599   3.316   7.499
59061SOL     OW78956   1.319   3.330  13.308
59061SOL    HW178957   1.352   3.243  13.286
59061SOL    HW278958   1.232   3.334  13.270
59062SOL     OW78959   0.570  13.429  10.020
59062SOL    HW178960   0.493  13.476   9.988
59062SOL    HW278961   0.594  13.370   9.949
59063SOL     OW78962   9.803  10.491   5.925
59063SOL    HW178963   9.827  10.407   5.885
59063SOL    HW278964   9.879  10.514   5.978
59064SOL     OW78965   2.321  12.268   0.096
59064SOL    HW178966   2.381  12.261   0.170
59064SOL    HW278967   2.234  12.258   0.135
59065SOL     OW78968  13.788  10.088   9.729
59065SOL    HW178969  13.807  10.149   9.800
59065SOL    HW278970  13.701  10.053   9.751
59066SOL     OW78971   1.890   9.817   8.369
59066SOL    HW178972   1.825   9.875   8.331
59066SOL    HW278973   1.915   9.758   8.298
59067SOL     OW78974   1.312  10.837  10.326
59067SOL    HW178975   1.320  10.877  10.239
59067SOL    HW278976   1.281  10.908  10.382
59068SOL     OW78977   0.149   6.990   6.336
59068SOL    HW178978   0.153   6.990   6.432
59068SOL    HW278979   0.084   7.057   6.314
59069SOL     OW78980   5.934  13.192   4.221
59069SOL    HW178981   5.978  13.159   4.143
59069SOL    HW278982   5.975  13.277   4.238
59070SOL     OW78983  13.402   2.140  12.612
59070SOL    HW178984  13.436   2.221  12.574
59070SOL    HW278985  13.395   2.159  12.706
59071SOL     OW78986   7.398   1.221   6.892
59071SOL    HW178987   7.382   1.248   6.802
59071SOL    HW278988   7.312   1.194   6.924
59072SOL     OW78989  11.259   4.720  14.142
59072SOL    HW178990  11.243   4.814  14.150
59072SOL    HW278991  11.223   4.696  14.057
59073SOL     OW78992   9.098  14.447  12.061
59073SOL    HW178993   9.057  14.533  12.060
59073SOL    HW278994   9.054  14.400  12.132
59074SOL     OW78995   1.930   3.278  11.611
59074SOL    HW178996   1.845   3.311  11.583
59074SOL    HW278997   1.993   3.333  11.564
59075SOL     OW78998   3.674   6.619  12.783
59075SOL    HW178999   3.636   6.548  12.834
59075SOL    HW279000   3.655   6.595  12.692
59076SOL     OW79001   1.400  11.023  12.940
59076SOL    HW179002   1.380  11.064  12.856
59076SOL    HW279003   1.341  11.066  13.002
59077SOL     OW79004   9.899   9.518   3.789
59077SOL    HW179005   9.927   9.437   3.746
59077SOL    HW279006   9.907   9.500   3.882
59078SOL     OW79007  11.526  14.721   1.905
59078SOL    HW179008  11.431  14.711   1.906
59078SOL    HW279009  11.544  14.778   1.980
59079SOL     OW79010  14.820   6.982  10.988
59079SOL    HW179011  14.793   7.021  11.071
59079SOL    HW279012  14.743   6.990  10.931
59080SOL     OW79013   7.116   6.151   2.468
59080SOL    HW179014   7.035   6.106   2.448
59080SOL    HW279015   7.117   6.157   2.564
59081SOL     OW79016   8.634  11.199   4.395
59081SOL    HW179017   8.703  11.227   4.334
59081SOL    HW279018   8.659  11.111   4.421
59082SOL     OW79019   4.276  13.121  14.202
59082SOL    HW179020   4.227  13.187  14.152
59082SOL    HW279021   4.249  13.037  14.164
59083SOL     OW79022   1.010   3.694  13.757
59083SOL    HW179023   1.087   3.638  13.756
59083SOL    HW279024   1.010   3.734  13.844
59084SOL     OW79025   4.040   9.361   0.255
59084SOL    HW179026   4.027   9.304   0.179
59084SOL    HW279027   4.006   9.310   0.329
59085SOL     OW79028   8.957   5.262   8.877
59085SOL    HW179029   8.995   5.196   8.818
59085SOL    HW279030   8.880   5.219   8.915
59086SOL     OW79031  14.316   6.211   3.121
59086SOL    HW179032  14.357   6.241   3.040
59086SOL    HW279033  14.223   6.205   3.100
59087SOL     OW79034   4.440  14.265   2.319
59087SOL    HW179035   4.439  14.355   2.350
59087SOL    HW279036   4.347  14.241   2.312
59088SOL     OW79037   0.962   2.994   0.227
59088SOL    HW179038   0.903   2.921   0.245
59088SOL    HW279039   0.993   2.978   0.137
59089SOL     OW79040   6.442   3.132   3.227
59089SOL    HW179041   6.376   3.066   3.242
59089SOL    HW279042   6.516   3.084   3.190
59090SOL     OW79043   9.062  14.418   8.794
59090SOL    HW179044   9.092  14.327   8.790
59090SOL    HW279045   9.036  14.440   8.705
59091SOL     OW79046   9.391   2.458   2.043
59091SOL    HW179047   9.481   2.489   2.035
59091SOL    HW279048   9.338   2.538   2.049
59092SOL     OW79049  10.736   3.764  11.169
59092SOL    HW179050  10.788   3.708  11.111
59092SOL    HW279051  10.800   3.802  11.228
59093SOL     OW79052  14.151  10.673   6.871
59093SOL    HW179053  14.105  10.612   6.814
59093SOL    HW279054  14.082  10.716   6.921
59094SOL     OW79055   7.443   8.077   9.553
59094SOL    HW179056   7.490   8.130   9.489
59094SOL    HW279057   7.397   8.012   9.500
59095SOL     OW79058   7.851  14.875   4.006
59095SOL    HW179059   7.819   0.083   4.020
59095SOL    HW279060   7.823  14.853   3.917
59096SOL     OW79061  11.402   3.891   5.099
59096SOL    HW179062  11.307   3.895   5.110
59096SOL    HW279063  11.432   3.981   5.112
59097SOL     OW79064  14.174  10.378   8.656
59097SOL    HW179065  14.224  10.455   8.682
59097SOL    HW279066  14.231  10.333   8.593
59098SOL     OW79067  10.751   5.892   8.571
59098SOL    HW179068  10.729   5.960   8.508
59098SOL    HW279069  10.680   5.828   8.563
59099SOL     OW79070   4.980  13.177  13.257
59099SOL    HW179071   5.009  13.091  13.229
59099SOL    HW279072   4.970  13.169  13.352
59100SOL     OW79073  12.957  10.690   1.449
59100SOL    HW179074  13.038  10.741   1.451
59100SOL    HW279075  12.905  10.731   1.379
59101SOL     OW79076   7.527   0.858  13.939
59101SOL    HW179077   7.436   0.887  13.929
59101SOL    HW279078   7.568   0.925  13.993
59102SOL     OW79079   9.390   2.721   8.386
59102SOL    HW179080   9.399   2.626   8.375
59102SOL    HW279081   9.372   2.753   8.297
59103SOL     OW79082   9.161   4.393   7.208
59103SOL    HW179083   9.160   4.464   7.272
59103SOL    HW279084   9.125   4.318   7.255
59104SOL     OW79085   3.350  11.220   8.188
59104SOL    HW179086   3.331  11.274   8.265
59104SOL    HW279087   3.427  11.169   8.212
59105SOL     OW79088  13.907   6.048   8.634
59105SOL    HW179089  13.954   5.996   8.569
59105SOL    HW279090  13.855   5.984   8.683
59106SOL     OW79091  13.838  12.443   2.325
59106SOL    HW179092  13.900  12.516   2.329
59106SOL    HW279093  13.776  12.461   2.396
59107SOL     OW79094   1.762  13.643  14.446
59107SOL    HW179095   1.813  13.601  14.377
59107SOL    HW279096   1.695  13.693  14.399
59108SOL     OW79097   5.278   3.409  13.329
59108SOL    HW179098   5.278   3.439  13.238
59108SOL    HW279099   5.276   3.313  13.322
59109SOL     OW79100   4.199   8.067  12.096
59109SOL    HW179101   4.148   8.104  12.025
59109SOL    HW279102   4.263   8.010  12.053
59110SOL     OW79103  12.729   9.354  13.102
59110SOL    HW179104  12.721   9.284  13.038
59110SOL    HW279105  12.646   9.353  13.150
59111SOL     OW79106  12.013  10.404   8.166
59111SOL    HW179107  12.066  10.462   8.221
59111SOL    HW279108  11.925  10.441   8.170
59112SOL     OW79109  12.413   0.957   4.657
59112SOL    HW179110  12.363   0.965   4.739
59112SOL    HW279111  12.414   0.863   4.639
59113SOL     OW79112   0.631   5.481  13.075
59113SOL    HW179113   0.573   5.536  13.129
59113SOL    HW279114   0.719   5.511  13.097
59114SOL     OW79115   4.238  11.439   7.751
59114SOL    HW179116   4.177  11.507   7.778
59114SOL    HW279117   4.186  11.359   7.749
59115SOL     OW79118   5.346  11.469  11.034
59115SOL    HW179119   5.432  11.472  10.992
59115SOL    HW279120   5.326  11.560  11.056
59116SOL     OW79121   6.617   0.949   6.584
59116SOL    HW179122   6.547   0.904   6.537
59116SOL    HW279123   6.571   1.014   6.638
59117SOL     OW79124  10.808  13.811  10.077
59117SOL    HW179125  10.889  13.821  10.128
59117SOL    HW279126  10.833  13.757  10.002
59118SOL     OW79127  11.346   8.025   3.528
59118SOL    HW179128  11.334   8.116   3.502
59118SOL    HW279129  11.284   7.976   3.474
59119SOL     OW79130   4.375   0.154  10.444
59119SOL    HW179131   4.429   0.123  10.371
59119SOL    HW279132   4.431   0.143  10.521
59120SOL     OW79133   7.683   6.940  14.287
59120SOL    HW179134   7.675   6.979  14.200
59120SOL    HW279135   7.775   6.948  14.309
59121SOL     OW79136  14.334   9.185   4.728
59121SOL    HW179137  14.321   9.205   4.636
59121SOL    HW279138  14.378   9.100   4.729
59122SOL     OW79139  12.908   7.625  12.789
59122SOL    HW179140  12.857   7.567  12.733
59122SOL    HW279141  12.884   7.599  12.878
59123SOL     OW79142  12.071   8.978   5.877
59123SOL    HW179143  12.068   9.051   5.939
59123SOL    HW279144  12.052   8.901   5.929
59124SOL     OW79145  11.329   7.199  14.696
59124SOL    HW179146  11.421   7.174  14.690
59124SOL    HW279147  11.294   7.184  14.608
59125SOL     OW79148   0.242   7.112   4.517
59125SOL    HW179149   0.153   7.081   4.498
59125SOL    HW279150   0.278   7.045   4.575
59126SOL     OW79151   9.416  10.951   6.221
59126SOL    HW179152   9.482  10.960   6.152
59126SOL    HW279153   9.335  10.930   6.174
59127SOL     OW79154   9.364   8.899   9.241
59127SOL    HW179155   9.346   8.898   9.147
59127SOL    HW279156   9.294   8.845   9.280
59128SOL     OW79157   2.156  14.043   2.614
59128SOL    HW179158   2.064  14.053   2.637
59128SOL    HW279159   2.202  14.033   2.697
59129SOL     OW79160  10.177   8.814   6.487
59129SOL    HW179161  10.171   8.767   6.403
59129SOL    HW279162  10.127   8.894   6.473
59130SOL     OW79163   5.490   8.099  13.555
59130SOL    HW179164   5.398   8.081  13.535
59130SOL    HW279165   5.520   8.153  13.483
59131SOL     OW79166   8.364   5.796   4.445
59131SOL    HW179167   8.284   5.745   4.435
59131SOL    HW279168   8.422   5.766   4.375
59132SOL     OW79169  12.970   6.511   7.435
59132SOL    HW179170  13.061   6.482   7.445
59132SOL    HW279171  12.919   6.430   7.439
59133SOL     OW79172   9.376   9.720  10.865
59133SOL    HW179173   9.434   9.787  10.828
59133SOL    HW279174   9.289   9.760  10.863
59134SOL     OW79175  13.567  11.228   9.532
59134SOL    HW179176  13.626  11.302   9.549
59134SOL    HW279177  13.531  11.207   9.618
59135SOL     OW79178   9.725  12.453  12.667
59135SOL    HW179179   9.695  12.487  12.583
59135SOL    HW279180   9.784  12.381  12.644
59136SOL     OW79181   9.207  11.908   8.263
59136SOL    HW179182   9.188  11.872   8.176
59136SOL    HW279183   9.132  11.883   8.316
59137SOL     OW79184   4.159   6.355   9.176
59137SOL    HW179185   4.183   6.290   9.111
59137SOL    HW279186   4.229   6.420   9.173
59138SOL     OW79187  14.014  10.113  12.476
59138SOL    HW179188  13.920  10.130  12.475
59138SOL    HW279189  14.043  10.134  12.387
59139SOL     OW79190   8.475   7.355   4.856
59139SOL    HW179191   8.501   7.447   4.849
59139SOL    HW279192   8.436   7.335   4.771
59140SOL     OW79193  14.621   8.514  11.180
59140SOL    HW179194  14.622   8.428  11.138
59140SOL    HW279195  14.560   8.504  11.254
59141SOL     OW79196   2.739   4.088  11.821
59141SOL    HW179197   2.670   4.046  11.873
59141SOL    HW279198   2.759   4.168  11.869
59142SOL     OW79199   3.483   4.588  14.118
59142SOL    HW179200   3.449   4.599  14.030
59142SOL    HW279201   3.567   4.544  14.106
59143SOL     OW79202  10.215   8.669   3.685
59143SOL    HW179203  10.272   8.740   3.659
59143SOL    HW279204  10.131   8.689   3.643
59144SOL     OW79205  13.180  11.941   4.972
59144SOL    HW179206  13.156  11.940   5.065
59144SOL    HW279207  13.257  11.885   4.967
59145SOL     OW79208  13.265   9.753   2.652
59145SOL    HW179209  13.299   9.831   2.608
59145SOL    HW279210  13.342   9.703   2.676
59146SOL     OW79211   5.920   0.872  13.128
59146SOL    HW179212   5.875   0.858  13.045
59146SOL    HW279213   5.927   0.784  13.167
59147SOL     OW79214   7.190  13.901  14.087
59147SOL    HW179215   7.121  13.949  14.132
59147SOL    HW279216   7.259  13.965  14.072
59148SOL     OW79217  11.636   8.722  13.441
59148SOL    HW179218  11.554   8.769  13.461
59148SOL    HW279219  11.694   8.789  13.405
59149SOL     OW79220  14.289   9.007   3.330
59149SOL    HW179221  14.251   9.093   3.316
59149SOL    HW279222  14.251   8.978   3.414
59150SOL     OW79223   5.655   5.918  13.365
59150SOL    HW179224   5.683   5.853  13.300
59150SOL    HW279225   5.735   5.963  13.390
59151SOL     OW79226   5.483  10.428  11.409
59151SOL    HW179227   5.409  10.486  11.393
59151SOL    HW279228   5.531  10.426  11.326
59152SOL     OW79229  14.502   9.951   0.408
59152SOL    HW179230  14.578   9.922   0.458
59152SOL    HW279231  14.466  10.023   0.459
59153SOL     OW79232   3.932   1.413   5.098
59153SOL    HW179233   3.969   1.422   5.010
59153SOL    HW279234   3.843   1.379   5.084
59154SOL     OW79235   6.518  11.652   7.322
59154SOL    HW179236   6.447  11.604   7.280
59154SOL    HW279237   6.559  11.587   7.379
59155SOL     OW79238   3.974   5.958  10.157
59155SOL    HW179239   3.960   5.946  10.063
59155SOL    HW279240   3.886   5.953  10.195
59156SOL     OW79241  12.087   7.240   5.399
59156SOL    HW179242  12.107   7.156   5.440
59156SOL    HW279243  12.059   7.296   5.472
59157SOL     OW79244   5.229   1.370   7.692
59157SOL    HW179245   5.247   1.326   7.610
59157SOL    HW279246   5.283   1.450   7.688
59158SOL     OW79247  14.263  13.838   2.736
59158SOL    HW179248  14.243  13.818   2.827
59158SOL    HW279249  14.191  13.895   2.708
59159SOL     OW79250  14.463  10.436  12.188
59159SOL    HW179251  14.473  10.510  12.129
59159SOL    HW279252  14.375  10.445  12.225
59160SOL     OW79253   5.112   0.060   1.282
59160SOL    HW179254   5.143  14.876   1.220
59160SOL    HW279255   5.171   0.134   1.271
59161SOL     OW79256  11.259  12.596   2.337
59161SOL    HW179257  11.322  12.655   2.294
59161SOL    HW279258  11.251  12.631   2.426
59162SOL     OW79259   4.113   0.538   7.218
59162SOL    HW179260   4.179   0.537   7.288
59162SOL    HW279261   4.151   0.484   7.149
59163SOL     OW79262   0.115  11.871   2.909
59163SOL    HW179263   0.127  11.957   2.868
59163SOL    HW279264   0.140  11.808   2.842
59164SOL     OW79265   0.503   5.748   3.763
59164SOL    HW179266   0.472   5.821   3.709
59164SOL    HW279267   0.580   5.715   3.716
59165SOL     OW79268  12.222  12.174   3.714
59165SOL    HW179269  12.243  12.189   3.622
59165SOL    HW279270  12.220  12.079   3.723
59166SOL     OW79271  13.425   8.783  13.115
59166SOL    HW179272  13.515   8.790  13.147
59166SOL    HW279273  13.429   8.715  13.047
59167SOL     OW79274  14.360   2.734  10.278
59167SOL    HW179275  14.436   2.687  10.244
59167SOL    HW279276  14.343   2.693  10.363
59168SOL     OW79277   6.936   3.428   4.534
59168SOL    HW179278   6.868   3.495   4.544
59168SOL    HW279279   6.967   3.412   4.623
59169SOL     OW79280   2.920   9.872  14.732
59169SOL    HW179281   2.941   9.793  14.781
59169SOL    HW279282   2.829   9.860  14.704
59170SOL     OW79283   4.676  11.733   1.173
59170SOL    HW179284   4.638  11.800   1.230
59170SOL    HW279285   4.763  11.717   1.210
59171SOL     OW79286   6.950   4.739   8.822
59171SOL    HW179287   7.039   4.708   8.842
59171SOL    HW279288   6.963   4.815   8.765
59172SOL     OW79289  11.804   0.165   2.361
59172SOL    HW179290  11.770   0.078   2.381
59172SOL    HW279291  11.804   0.210   2.445
59173SOL     OW79292   6.187  10.569   3.955
59173SOL    HW179293   6.229  10.574   3.869
59173SOL    HW279294   6.236  10.502   4.002
59174SOL     OW79295   7.119   4.327  12.417
59174SOL    HW179296   7.147   4.238  12.394
59174SOL    HW279297   7.086   4.319  12.506
59175SOL     OW79298   0.449   5.178   1.746
59175SOL    HW179299   0.511   5.169   1.819
59175SOL    HW279300   0.424   5.270   1.747
59176SOL     OW79301  11.031   6.153   3.070
59176SOL    HW179302  11.040   6.194   2.984
59176SOL    HW279303  10.939   6.170   3.094
59177SOL     OW79304   5.229   3.135  10.954
59177SOL    HW179305   5.252   3.159  11.044
59177SOL    HW279306   5.203   3.044  10.959
59178SOL     OW79307   3.818   5.941   9.510
59178SOL    HW179308   3.805   5.851   9.538
59178SOL    HW279309   3.908   5.943   9.477
59179SOL     OW79310   1.166   7.524  14.120
59179SOL    HW179311   1.151   7.499  14.029
59179SOL    HW279312   1.090   7.491  14.167
59180SOL     OW79313   0.606   7.981  11.445
59180SOL    HW179314   0.624   8.070  11.473
59180SOL    HW279315   0.524   7.988  11.396
59181SOL     OW79316   7.821   3.614   5.503
59181SOL    HW179317   7.831   3.705   5.474
59181SOL    HW279318   7.833   3.618   5.598
59182SOL     OW79319   1.308   1.025   7.695
59182SOL    HW179320   1.225   0.990   7.730
59182SOL    HW279321   1.349   1.068   7.770
59183SOL     OW79322   0.117  10.780  10.884
59183SOL    HW179323   0.179  10.707  10.874
59183SOL    HW279324   0.146  10.824  10.964
59184SOL     OW79325   9.039   3.824   8.549
59184SOL    HW179326   9.028   3.915   8.576
59184SOL    HW279327   9.124   3.798   8.584
59185SOL     OW79328   7.780  11.389   0.367
59185SOL    HW179329   7.763  11.314   0.310
59185SOL    HW279330   7.705  11.448   0.352
59186SOL     OW79331  11.202   8.466   1.158
59186SOL    HW179332  11.229   8.502   1.073
59186SOL    HW279333  11.107   8.475   1.159
59187SOL     OW79334   1.667   9.644   3.124
59187SOL    HW179335   1.698   9.575   3.066
59187SOL    HW279336   1.745   9.698   3.141
59188SOL     OW79337   2.148   8.439   5.648
59188SOL    HW179338   2.098   8.520   5.651
59188SOL    HW279339   2.175   8.424   5.739
59189SOL     OW79340  12.760   1.546   8.820
59189SOL    HW179341  12.833   1.609   8.814
59189SOL    HW279342  12.682   1.598   8.801
59190SOL     OW79343   0.561  11.871   6.761
59190SOL    HW179344   0.571  11.915   6.676
59190SOL    HW279345   0.472  11.893   6.789
59191SOL     OW79346   9.907   4.923   7.767
59191SOL    HW179347   9.845   4.924   7.694
59191SOL    HW279348   9.901   5.010   7.805
59192SOL     OW79349   7.342   4.677   3.242
59192SOL    HW179350   7.272   4.742   3.245
59192SOL    HW279351   7.423   4.728   3.245
59193SOL     OW79352   5.477   0.244  10.569
59193SOL    HW179353   5.547   0.182  10.550
59193SOL    HW279354   5.447   0.219  10.657
59194SOL     OW79355   7.144  11.198   6.650
59194SOL    HW179356   7.134  11.201   6.745
59194SOL    HW279357   7.163  11.289   6.625
59195SOL     OW79358   4.916  12.862   7.547
59195SOL    HW179359   4.842  12.902   7.593
59195SOL    HW279360   4.883  12.844   7.459
59196SOL     OW79361  11.479   5.272   4.230
59196SOL    HW179362  11.547   5.244   4.290
59196SOL    HW279363  11.448   5.192   4.189
59197SOL     OW79364   3.534  13.855   1.230
59197SOL    HW179365   3.518  13.850   1.135
59197SOL    HW279366   3.610  13.913   1.238
59198SOL     OW79367   8.038  14.539   4.718
59198SOL    HW179368   7.951  14.579   4.717
59198SOL    HW279369   8.058  14.522   4.625
59199SOL     OW79370   3.570  14.702   3.712
59199SOL    HW179371   3.654  14.736   3.741
59199SOL    HW279372   3.545  14.759   3.639
59200SOL     OW79373   3.150   8.898   0.457
59200SOL    HW179374   3.230   8.914   0.509
59200SOL    HW279375   3.087   8.864   0.521
59201SOL     OW79376   3.839   9.961  10.699
59201SOL    HW179377   3.881   9.989  10.617
59201SOL    HW279378   3.793  10.039  10.729
59202SOL     OW79379   7.869   1.821   7.731
59202SOL    HW179380   7.855   1.849   7.821
59202SOL    HW279381   7.893   1.729   7.737
59203SOL     OW79382   2.410  12.027   3.154
59203SOL    HW179383   2.355  12.083   3.210
59203SOL    HW279384   2.498  12.035   3.191
59204SOL     OW79385   5.751   2.193  11.019
59204SOL    HW179386   5.693   2.221  10.948
59204SOL    HW279387   5.823   2.149  10.974
59205SOL     OW79388   2.465   6.634   7.877
59205SOL    HW179389   2.377   6.639   7.913
59205SOL    HW279390   2.506   6.561   7.924
59206SOL     OW79391  10.271  10.417  14.741
59206SOL    HW179392  10.205  10.468  14.788
59206SOL    HW279393  10.337  10.397  14.808
59207SOL     OW79394  12.249  13.485   5.950
59207SOL    HW179395  12.236  13.401   5.905
59207SOL    HW279396  12.266  13.547   5.879
59208SOL     OW79397  11.586   8.686   8.526
59208SOL    HW179398  11.572   8.712   8.618
59208SOL    HW279399  11.506   8.640   8.502
59209SOL     OW79400  14.034   5.731   0.410
59209SOL    HW179401  13.939   5.738   0.413
59209SOL    HW279402  14.063   5.747   0.500
59210SOL     OW79403   8.451   8.005  11.663
59210SOL    HW179404   8.367   8.010  11.709
59210SOL    HW279405   8.451   8.080  11.604
59211SOL     OW79406   7.223   4.567   8.778
59211SOL    HW179407   7.287   4.552   8.708
59211SOL    HW279408   7.275   4.583   8.856
59212SOL     OW79409   9.997   2.483   5.414
59212SOL    HW179410  10.064   2.509   5.351
59212SOL    HW279411   9.915   2.515   5.376
59213SOL     OW79412   6.823   8.280  12.412
59213SOL    HW179413   6.869   8.210  12.365
59213SOL    HW279414   6.774   8.234  12.481
59214SOL     OW79415   2.693   7.966  12.849
59214SOL    HW179416   2.734   8.039  12.802
59214SOL    HW279417   2.614   8.004  12.887
59215SOL     OW79418   7.394  10.113   1.618
59215SOL    HW179419   7.405  10.031   1.568
59215SOL    HW279420   7.346  10.087   1.696
59216SOL     OW79421  12.373   7.966   7.083
59216SOL    HW179422  12.346   8.014   7.162
59216SOL    HW279423  12.347   7.876   7.101
59217SOL     OW79424  13.020   6.556   2.581
59217SOL    HW179425  13.064   6.484   2.626
59217SOL    HW279426  12.949   6.514   2.533
59218SOL     OW79427   5.778  10.783   3.540
59218SOL    HW179428   5.858  10.758   3.495
59218SOL    HW279429   5.803  10.790   3.632
59219SOL     OW79430   8.187   5.484   2.303
59219SOL    HW179431   8.280   5.477   2.325
59219SOL    HW279432   8.141   5.444   2.376
59220SOL     OW79433   3.301   2.215   4.136
59220SOL    HW179434   3.216   2.223   4.179
59220SOL    HW279435   3.365   2.227   4.206
59221SOL     OW79436   8.955   6.117   5.430
59221SOL    HW179437   8.960   6.030   5.470
59221SOL    HW279438   8.900   6.104   5.352
59222SOL     OW79439   3.773   1.437   3.341
59222SOL    HW179440   3.831   1.487   3.398
59222SOL    HW279441   3.738   1.368   3.397
59223SOL     OW79442   2.920   2.675   4.489
59223SOL    HW179443   2.879   2.742   4.544
59223SOL    HW279444   2.961   2.725   4.418
59224SOL     OW79445   0.660  10.292   9.636
59224SOL    HW179446   0.659  10.203   9.672
59224SOL    HW279447   0.630  10.347   9.709
59225SOL     OW79448   0.200   9.544   7.284
59225SOL    HW179449   0.223   9.523   7.374
59225SOL    HW279450   0.136   9.477   7.259
59226SOL     OW79451   2.527   7.547   0.696
59226SOL    HW179452   2.607   7.533   0.746
59226SOL    HW279453   2.531   7.638   0.668
59227SOL     OW79454   1.645  13.327  10.860
59227SOL    HW179455   1.551  13.309  10.854
59227SOL    HW279456   1.661  13.345  10.952
59228SOL     OW79457  10.094   0.621  14.664
59228SOL    HW179458  10.142   0.693  14.706
59228SOL    HW279459  10.149   0.596  14.590
59229SOL     OW79460  12.338   2.617   3.074
59229SOL    HW179461  12.308   2.563   3.001
59229SOL    HW279462  12.324   2.563   3.152
59230SOL     OW79463  10.426   5.639   9.198
59230SOL    HW179464  10.410   5.728   9.227
59230SOL    HW279465  10.481   5.648   9.120
59231SOL     OW79466  11.827  14.089   7.996
59231SOL    HW179467  11.915  14.127   7.996
59231SOL    HW279468  11.813  14.063   8.088
59232SOL     OW79469   7.375   1.095   2.642
59232SOL    HW179470   7.339   1.178   2.610
59232SOL    HW279471   7.388   1.043   2.563
59233SOL     OW79472  12.695  10.718   6.486
59233SOL    HW179473  12.721  10.660   6.414
59233SOL    HW279474  12.610  10.753   6.459
59234SOL     OW79475   7.453  13.048  12.948
59234SOL    HW179476   7.432  13.108  12.876
59234SOL    HW279477   7.547  13.030  12.938
59235SOL     OW79478   6.630   2.044   2.242
59235SOL    HW179479   6.658   2.030   2.152
59235SOL    HW279480   6.574   1.969   2.262
59236SOL     OW79481  12.630   3.223   3.047
59236SOL    HW179482  12.671   3.140   3.022
59236SOL    HW279483  12.538   3.214   3.019
59237SOL     OW79484  12.354   6.096   3.724
59237SOL    HW179485  12.311   6.104   3.639
59237SOL    HW279486  12.437   6.052   3.705
59238SOL     OW79487   9.182   7.277  13.885
59238SOL    HW179488   9.207   7.222  13.959
59238SOL    HW279489   9.087   7.271  13.881
59239SOL     OW79490  12.808   7.157   3.182
59239SOL    HW179491  12.723   7.147   3.140
59239SOL    HW279492  12.809   7.247   3.215
59240SOL     OW79493   9.548  12.762   0.378
59240SOL    HW179494   9.477  12.821   0.352
59240SOL    HW279495   9.619  12.782   0.316
59241SOL     OW79496   7.446   2.106  10.310
59241SOL    HW179497   7.377   2.041  10.324
59241SOL    HW279498   7.400   2.183  10.277
59242SOL     OW79499  13.335  13.826   4.046
59242SOL    HW179500  13.293  13.862   3.968
59242SOL    HW279501  13.411  13.779   4.012
59243SOL     OW79502  11.736   3.997  14.049
59243SOL    HW179503  11.777   4.065  14.103
59243SOL    HW279504  11.642   4.017  14.054
59244SOL     OW79505   1.075   7.361   0.930
59244SOL    HW179506   1.132   7.405   0.993
59244SOL    HW279507   0.993   7.411   0.932
59245SOL     OW79508   4.507  10.054   0.442
59245SOL    HW179509   4.496   9.998   0.519
59245SOL    HW279510   4.438  10.026   0.382
59246SOL     OW79511  12.152   3.698   2.561
59246SOL    HW179512  12.246   3.690   2.550
59246SOL    HW279513  12.130   3.635   2.630
59247SOL     OW79514   7.256   7.933   6.622
59247SOL    HW179515   7.251   8.027   6.639
59247SOL    HW279516   7.333   7.924   6.565
59248SOL     OW79517   7.928   5.181   5.121
59248SOL    HW179518   7.963   5.129   5.193
59248SOL    HW279519   7.851   5.134   5.091
59249SOL     OW79520   1.424   8.698   1.594
59249SOL    HW179521   1.378   8.782   1.594
59249SOL    HW279522   1.468   8.695   1.509
59250SOL     OW79523   1.107   4.236   2.056
59250SOL    HW179524   1.099   4.163   1.994
59250SOL    HW279525   1.178   4.289   2.022
59251SOL     OW79526  12.631   6.975   5.856
59251SOL    HW179527  12.574   6.922   5.800
59251SOL    HW279528  12.709   6.921   5.869
59252SOL     OW79529   5.577   5.156  10.271
59252SOL    HW179530   5.670   5.143  10.290
59252SOL    HW279531   5.569   5.142  10.177
59253SOL     OW79532   7.726   4.002   5.135
59253SOL    HW179533   7.657   4.022   5.198
59253SOL    HW279534   7.690   4.030   5.050
59254SOL     OW79535  12.736  12.448  11.921
59254SOL    HW179536  12.696  12.387  11.982
59254SOL    HW279537  12.817  12.476  11.964
59255SOL     OW79538   3.477  13.225   4.933
59255SOL    HW179539   3.417  13.231   4.860
59255SOL    HW279540   3.554  13.274   4.905
59256SOL     OW79541  12.047   6.505  11.574
59256SOL    HW179542  12.005   6.508  11.487
59256SOL    HW279543  12.045   6.412  11.597
59257SOL     OW79544   5.909   4.592   8.137
59257SOL    HW179545   5.951   4.636   8.063
59257SOL    HW279546   5.904   4.658   8.206
59258SOL     OW79547  13.730  11.347   6.148
59258SOL    HW179548  13.771  11.263   6.168
59258SOL    HW279549  13.693  11.336   6.061
59259SOL     OW79550  10.221   8.244   6.069
59259SOL    HW179551  10.266   8.214   6.148
59259SOL    HW279552  10.226   8.169   6.009
59260SOL     OW79553   6.978   2.922   2.913
59260SOL    HW179554   6.932   2.926   2.997
59260SOL    HW279555   6.971   2.831   2.885
59261SOL     OW79556  13.138   4.702   6.439
59261SOL    HW179557  13.045   4.684   6.450
59261SOL    HW279558  13.175   4.688   6.526
59262SOL     OW79559   8.376   7.019  12.810
59262SOL    HW179560   8.472   7.019  12.821
59262SOL    HW279561   8.344   7.058  12.892
59263SOL     OW79562  11.847   1.716   8.481
59263SOL    HW179563  11.859   1.660   8.558
59263SOL    HW279564  11.907   1.680   8.416
59264SOL     OW79565  10.939  11.104   4.276
59264SOL    HW179566  10.850  11.070   4.274
59264SOL    HW279567  10.995  11.026   4.279
59265SOL     OW79568  13.465   3.597   6.502
59265SOL    HW179569  13.388   3.587   6.559
59265SOL    HW279570  13.436   3.561   6.417
59266SOL     OW79571   6.448  14.850  12.403
59266SOL    HW179572   6.514  14.792  12.366
59266SOL    HW279573   6.498   0.045  12.432
59267SOL     OW79574   0.255   1.992   9.880
59267SOL    HW179575   0.301   1.932   9.822
59267SOL    HW279576   0.214   2.056   9.821
59268SOL     OW79577  11.327   2.642   1.219
59268SOL    HW179578  11.238   2.637   1.183
59268SOL    HW279579  11.325   2.585   1.295
59269SOL     OW79580   1.497  13.069   2.219
59269SOL    HW179581   1.589  13.082   2.198
59269SOL    HW279582   1.496  13.037   2.309
59270SOL     OW79583   2.280   6.074   9.483
59270SOL    HW179584   2.250   6.012   9.549
59270SOL    HW279585   2.317   6.147   9.532
59271SOL     OW79586  11.840   4.761   9.508
59271SOL    HW179587  11.775   4.772   9.439
59271SOL    HW279588  11.804   4.809   9.582
59272SOL     OW79589  11.737   3.926  10.006
59272SOL    HW179590  11.833   3.928  10.002
59272SOL    HW279591  11.712   3.865   9.937
59273SOL     OW79592   0.079   8.333   5.261
59273SOL    HW179593   0.073   8.428   5.253
59273SOL    HW279594   0.168   8.313   5.233
59274SOL     OW79595   2.552   4.890   1.638
59274SOL    HW179596   2.512   4.976   1.652
59274SOL    HW279597   2.601   4.900   1.556
59275SOL     OW79598   5.020   2.795   1.992
59275SOL    HW179599   5.021   2.710   2.037
59275SOL    HW279600   5.103   2.836   2.015
59276SOL     OW79601  11.983   6.272  11.781
59276SOL    HW179602  11.947   6.298  11.866
59276SOL    HW279603  11.932   6.196  11.756
59277SOL     OW79604  11.370   1.479   9.573
59277SOL    HW179605  11.425   1.528   9.634
59277SOL    HW279606  11.398   1.388   9.585
59278SOL     OW79607  10.471  10.244  11.967
59278SOL    HW179608  10.460  10.325  11.917
59278SOL    HW279609  10.407  10.184  11.930
59279SOL     OW79610   8.808   4.854  14.684
59279SOL    HW179611   8.715   4.872  14.667
59279SOL    HW279612   8.809   4.761  14.709
59280SOL     OW79613   8.002   7.225   4.461
59280SOL    HW179614   7.931   7.167   4.434
59280SOL    HW279615   8.003   7.294   4.394
59281SOL     OW79616  12.375   5.612   2.002
59281SOL    HW179617  12.382   5.706   2.015
59281SOL    HW279618  12.412   5.573   2.081
59282SOL     OW79619   7.430   9.133  13.259
59282SOL    HW179620   7.335   9.137  13.271
59282SOL    HW279621   7.450   9.203  13.197
59283SOL     OW79622   5.382  12.335   1.923
59283SOL    HW179623   5.353  12.376   1.842
59283SOL    HW279624   5.475  12.355   1.929
59284SOL     OW79625   6.960   5.612   6.661
59284SOL    HW179626   6.891   5.663   6.703
59284SOL    HW279627   6.915   5.538   6.621
59285SOL     OW79628  13.647   6.908   6.196
59285SOL    HW179629  13.713   6.953   6.145
59285SOL    HW279630  13.604   6.849   6.134
59286SOL     OW79631  14.084   4.510   8.545
59286SOL    HW179632  14.111   4.428   8.503
59286SOL    HW279633  14.025   4.483   8.615
59287SOL     OW79634   4.217   4.557  10.508
59287SOL    HW179635   4.303   4.549  10.467
59287SOL    HW279636   4.230   4.618  10.580
59288SOL     OW79637   6.789   6.784   4.591
59288SOL    HW179638   6.875   6.762   4.627
59288SOL    HW279639   6.809   6.832   4.510
59289SOL     OW79640   0.847   7.789   3.315
59289SOL    HW179641   0.823   7.721   3.378
59289SOL    HW279642   0.939   7.771   3.295
59290SOL     OW79643   5.112  14.178   8.767
59290SOL    HW179644   5.088  14.124   8.692
59290SOL    HW279645   5.208  14.183   8.762
59291SOL     OW79646  13.384  12.674   5.084
59291SOL    HW179647  13.426  12.606   5.137
59291SOL    HW279648  13.430  12.669   5.000
59292SOL     OW79649   4.641   1.118   3.203
59292SOL    HW179650   4.686   1.035   3.190
59292SOL    HW279651   4.697   1.166   3.264
59293SOL     OW79652  12.885  13.326  14.451
59293SOL    HW179653  12.858  13.252  14.397
59293SOL    HW279654  12.952  13.291  14.509
59294SOL     OW79655  12.890   0.642   5.940
59294SOL    HW179656  12.907   0.735   5.922
59294SOL    HW279657  12.797   0.631   5.919
59295SOL     OW79658   0.504   1.975   8.521
59295SOL    HW179659   0.434   1.980   8.586
59295SOL    HW279660   0.507   2.063   8.483
59296SOL     OW79661   6.597  12.580   4.843
59296SOL    HW179662   6.637  12.507   4.889
59296SOL    HW279663   6.503  12.558   4.840
59297SOL     OW79664  10.028  13.367  13.103
59297SOL    HW179665   9.948  13.315  13.101
59297SOL    HW279666  10.097  13.304  13.125
59298SOL     OW79667   2.375  14.283  10.877
59298SOL    HW179668   2.411  14.314  10.795
59298SOL    HW279669   2.418  14.199  10.893
59299SOL     OW79670  12.650   7.038  11.525
59299SOL    HW179671  12.566   6.996  11.542
59299SOL    HW279672  12.670   7.016  11.434
59300SOL     OW79673  13.221   0.786   1.965
59300SOL    HW179674  13.160   0.718   1.936
59300SOL    HW279675  13.174   0.868   1.950
59301SOL     OW79676  11.316  11.090   9.686
59301SOL    HW179677  11.251  11.082   9.756
59301SOL    HW279678  11.265  11.092   9.605
59302SOL     OW79679   0.387   9.792   6.344
59302SOL    HW179680   0.326   9.781   6.417
59302SOL    HW279681   0.455   9.850   6.378
59303SOL     OW79682   4.773   4.319   2.816
59303SOL    HW179683   4.845   4.327   2.878
59303SOL    HW279684   4.755   4.408   2.787
59304SOL     OW79685  13.194  11.629   0.108
59304SOL    HW179686  13.253  11.699   0.133
59304SOL    HW279687  13.251  11.558   0.077
59305SOL     OW79688   6.863   4.049   2.429
59305SOL    HW179689   6.787   4.046   2.370
59305SOL    HW279690   6.883   3.957   2.447
59306SOL     OW79691   0.044   2.756   0.695
59306SOL    HW179692  14.835   2.770   0.667
59306SOL    HW279693   0.039   2.685   0.759
59307SOL     OW79694   4.867   9.812   8.033
59307SOL    HW179695   4.776   9.797   8.058
59307SOL    HW279696   4.916   9.744   8.080
59308SOL     OW79697   5.064   8.377   4.981
59308SOL    HW179698   5.059   8.343   5.070
59308SOL    HW279699   5.155   8.405   4.971
59309SOL     OW79700   1.064   1.337  12.133
59309SOL    HW179701   1.103   1.405  12.079
59309SOL    HW279702   1.055   1.262  12.073
59310SOL     OW79703   0.794   2.601   2.009
59310SOL    HW179704   0.819   2.533   1.946
59310SOL    HW279705   0.851   2.587   2.084
59311SOL     OW79706   6.160   8.159  11.558
59311SOL    HW179707   6.104   8.145  11.635
59311SOL    HW279708   6.244   8.186  11.594
59312SOL     OW79709  12.834   9.406   4.764
59312SOL    HW179710  12.743   9.407   4.791
59312SOL    HW279711  12.863   9.497   4.773
59313SOL     OW79712  10.937   9.837   9.003
59313SOL    HW179713  10.961   9.926   8.977
59313SOL    HW279714  10.963   9.782   8.929
59314SOL     OW79715   7.358   3.812   9.772
59314SOL    HW179716   7.453   3.808   9.787
59314SOL    HW279717   7.328   3.722   9.784
59315SOL     OW79718   9.298   0.615   2.389
59315SOL    HW179719   9.260   0.702   2.400
59315SOL    HW279720   9.387   0.623   2.424
59316SOL     OW79721  10.875   8.944   1.207
59316SOL    HW179722  10.792   8.947   1.255
59316SOL    HW279723  10.942   8.962   1.273
59317SOL     OW79724   4.612  11.976   3.572
59317SOL    HW179725   4.685  11.967   3.511
59317SOL    HW279726   4.544  12.021   3.522
59318SOL     OW79727   9.194  11.077   8.089
59318SOL    HW179728   9.142  11.109   8.015
59318SOL    HW279729   9.158  10.990   8.107
59319SOL     OW79730   6.668   0.049   6.675
59319SOL    HW179731   6.616   0.125   6.648
59319SOL    HW279732   6.605  14.873   6.717
59320SOL     OW79733  11.647   8.984  12.437
59320SOL    HW179734  11.719   8.993  12.499
59320SOL    HW279735  11.573   8.953  12.489
59321SOL     OW79736   5.547   1.164   4.407
59321SOL    HW179737   5.512   1.252   4.389
59321SOL    HW279738   5.479   1.123   4.461
59322SOL     OW79739   2.148   9.792   0.759
59322SOL    HW179740   2.223   9.738   0.735
59322SOL    HW279741   2.077   9.729   0.772
59323SOL     OW79742   3.842  14.086   6.088
59323SOL    HW179743   3.912  14.116   6.146
59323SOL    HW279744   3.834  14.154   6.022
59324SOL     OW79745  11.751   6.080  12.617
59324SOL    HW179746  11.677   6.136  12.596
59324SOL    HW279747  11.714   5.992  12.625
59325SOL     OW79748   4.526   9.485   1.878
59325SOL    HW179749   4.608   9.475   1.829
59325SOL    HW279750   4.487   9.398   1.879
59326SOL     OW79751  14.096   4.931   3.564
59326SOL    HW179752  14.183   4.965   3.545
59326SOL    HW279753  14.066   4.982   3.639
59327SOL     OW79754   2.651   5.429   5.155
59327SOL    HW179755   2.611   5.353   5.112
59327SOL    HW279756   2.742   5.402   5.171
59328SOL     OW79757   3.944  13.822  14.832
59328SOL    HW179758   3.959  13.767  14.755
59328SOL    HW279759   4.016  13.801   0.010
59329SOL     OW79760  13.592   3.290  14.558
59329SOL    HW179761  13.568   3.204  14.523
59329SOL    HW279762  13.545   3.297  14.641
59330SOL     OW79763  13.554  10.997   4.166
59330SOL    HW179764  13.579  10.928   4.228
59330SOL    HW279765  13.461  11.012   4.184
59331SOL     OW79766   8.062   5.453  11.670
59331SOL    HW179767   8.083   5.470  11.578
59331SOL    HW279768   8.110   5.372  11.690
59332SOL     OW79769  10.467   2.242  12.938
59332SOL    HW179770  10.542   2.282  12.893
59332SOL    HW279771  10.391   2.268  12.886
59333SOL     OW79772   3.401  14.419   9.625
59333SOL    HW179773   3.325  14.477   9.616
59333SOL    HW279774   3.398  14.365   9.547
59334SOL     OW79775   2.983   6.737   3.489
59334SOL    HW179776   2.904   6.790   3.503
59334SOL    HW279777   3.047   6.773   3.551
59335SOL     OW79778  13.715  13.892   8.264
59335SOL    HW179779  13.747  13.958   8.326
59335SOL    HW279780  13.622  13.911   8.256
59336SOL     OW79781  13.258  10.530  13.023
59336SOL    HW179782  13.318  10.501  12.954
59336SOL    HW279783  13.174  10.490  13.000
59337SOL     OW79784   1.605  14.740  13.877
59337SOL    HW179785   1.575  14.829  13.899
59337SOL    HW279786   1.605  14.738  13.781
59338SOL     OW79787   3.333   2.197  14.391
59338SOL    HW179788   3.341   2.114  14.343
59338SOL    HW279789   3.240   2.201  14.415
59339SOL     OW79790   7.715   6.258   9.541
59339SOL    HW179791   7.640   6.317   9.540
59339SOL    HW279792   7.768   6.285   9.465
59340SOL     OW79793  10.665   3.294  13.908
59340SOL    HW179794  10.634   3.247  13.986
59340SOL    HW279795  10.585   3.309  13.856
59341SOL     OW79796  14.486   2.349   2.722
59341SOL    HW179797  14.540   2.272   2.743
59341SOL    HW279798  14.427   2.318   2.653
59342SOL     OW79799  13.786  12.392   3.643
59342SOL    HW179800  13.693  12.371   3.651
59342SOL    HW279801  13.805  12.443   3.722
59343SOL     OW79802   9.288   0.325  12.440
59343SOL    HW179803   9.332   0.281  12.512
59343SOL    HW279804   9.352   0.387  12.406
59344SOL     OW79805   1.442  13.888   6.542
59344SOL    HW179806   1.419  13.796   6.529
59344SOL    HW279807   1.499  13.910   6.468
59345SOL     OW79808  11.527   4.630   6.931
59345SOL    HW179809  11.583   4.685   6.987
59345SOL    HW279810  11.448   4.617   6.983
59346SOL     OW79811   6.240   3.423  14.872
59346SOL    HW179812   6.236   3.455  14.782
59346SOL    HW279813   6.198   3.491   0.043
59347SOL     OW79814  12.361  13.778   2.201
59347SOL    HW179815  12.339  13.845   2.136
59347SOL    HW279816  12.283  13.773   2.257
59348SOL     OW79817   1.933  10.488  12.898
59348SOL    HW179818   1.909  10.564  12.950
59348SOL    HW279819   2.026  10.500  12.878
59349SOL     OW79820   0.309  14.593   4.782
59349SOL    HW179821   0.251  14.557   4.715
59349SOL    HW279822   0.263  14.670   4.815
59350SOL     OW79823   7.479   7.183   6.709
59350SOL    HW179824   7.410   7.127   6.745
59350SOL    HW279825   7.474   7.169   6.615
59351SOL     OW79826  13.971   1.760   4.264
59351SOL    HW179827  13.968   1.784   4.357
59351SOL    HW279828  13.881   1.774   4.233
59352SOL     OW79829   2.468  14.077   4.367
59352SOL    HW179830   2.515  14.003   4.328
59352SOL    HW279831   2.432  14.124   4.292
59353SOL     OW79832   9.715  12.122   2.405
59353SOL    HW179833   9.757  12.039   2.380
59353SOL    HW279834   9.707  12.116   2.500
59354SOL     OW79835   1.294   0.583  10.174
59354SOL    HW179836   1.273   0.632  10.094
59354SOL    HW279837   1.223   0.606  10.235
59355SOL     OW79838   5.542   9.990  13.890
59355SOL    HW179839   5.478   9.929  13.928
59355SOL    HW279840   5.510  10.077  13.915
59356SOL     OW79841  10.943   7.940   2.130
59356SOL    HW179842  10.968   7.957   2.221
59356SOL    HW279843  11.023   7.906   2.089
59357SOL     OW79844   5.025  12.682   0.740
59357SOL    HW179845   4.960  12.752   0.728
59357SOL    HW279846   5.072  12.678   0.656
59358SOL     OW79847   1.257  10.603  11.777
59358SOL    HW179848   1.303  10.619  11.859
59358SOL    HW279849   1.274  10.682  11.725
59359SOL     OW79850   2.023  11.472  12.867
59359SOL    HW179851   2.118  11.460  12.866
59359SOL    HW279852   2.003  11.505  12.955
59360SOL     OW79853   1.414   6.173  13.508
59360SOL    HW179854   1.468   6.243  13.472
59360SOL    HW279855   1.361   6.215  13.576
59361SOL     OW79856  13.353   1.208  10.303
59361SOL    HW179857  13.291   1.229  10.233
59361SOL    HW279858  13.333   1.272  10.372
59362SOL     OW79859   3.737   9.588   7.329
59362SOL    HW179860   3.822   9.616   7.296
59362SOL    HW279861   3.703   9.529   7.261
59363SOL     OW79862  10.919  12.561   6.291
59363SOL    HW179863  10.840  12.587   6.243
59363SOL    HW279864  10.887  12.539   6.379
59364SOL     OW79865  10.195   5.020  12.029
59364SOL    HW179866  10.128   5.059  12.085
59364SOL    HW279867  10.267   5.000  12.088
59365SOL     OW79868  10.392   1.731   9.706
59365SOL    HW179869  10.405   1.642   9.738
59365SOL    HW279870  10.297   1.740   9.697
59366SOL     OW79871  11.024  10.689  13.839
59366SOL    HW179872  11.085  10.615  13.830
59366SOL    HW279873  11.059  10.756  13.781
59367SOL     OW79874  11.306   1.124  10.490
59367SOL    HW179875  11.350   1.110  10.574
59367SOL    HW279876  11.373   1.165  10.435
59368SOL     OW79877   5.051   9.604  14.034
59368SOL    HW179878   4.958   9.619  14.019
59368SOL    HW279879   5.090   9.607  13.947
59369SOL     OW79880  14.796   9.639   3.848
59369SOL    HW179881  14.850   9.694   3.791
59369SOL    HW279882  14.828   9.550   3.832
59370SOL     OW79883  10.086   1.038   7.919
59370SOL    HW179884  10.083   1.133   7.919
59370SOL    HW279885  10.067   1.013   8.009
59371SOL     OW79886  12.531   9.372   1.985
59371SOL    HW179887  12.436   9.371   1.981
59371SOL    HW279888  12.553   9.316   2.059
59372SOL     OW79889  12.874   5.113   3.047
59372SOL    HW179890  12.890   5.069   2.964
59372SOL    HW279891  12.862   5.041   3.110
59373SOL     OW79892   7.460   6.951  13.611
59373SOL    HW179893   7.492   6.910  13.691
59373SOL    HW279894   7.502   7.036  13.609
59374SOL     OW79895   2.521   8.255   8.821
59374SOL    HW179896   2.532   8.202   8.901
59374SOL    HW279897   2.447   8.214   8.776
59375SOL     OW79898  11.764  14.642  13.285
59375SOL    HW179899  11.780  14.559  13.329
59375SOL    HW279900  11.724  14.697  13.353
59376SOL     OW79901   8.992   1.535   8.787
59376SOL    HW179902   9.066   1.587   8.756
59376SOL    HW279903   9.017   1.444   8.770
59377SOL     OW79904   5.265   9.507  10.426
59377SOL    HW179905   5.226   9.500  10.513
59377SOL    HW279906   5.351   9.544  10.441
59378SOL     OW79907   2.123  13.398   4.983
59378SOL    HW179908   2.148  13.392   4.891
59378SOL    HW279909   2.055  13.331   4.994
59379SOL     OW79910  14.350   4.246  12.290
59379SOL    HW179911  14.274   4.206  12.248
59379SOL    HW279912  14.385   4.177  12.347
59380SOL     OW79913   1.039   9.157   5.362
59380SOL    HW179914   1.019   9.075   5.407
59380SOL    HW279915   0.957   9.183   5.321
59381SOL     OW79916   0.275   5.749  14.097
59381SOL    HW179917   0.292   5.744  14.191
59381SOL    HW279918   0.196   5.803  14.090
59382SOL     OW79919   8.979   6.135   2.702
59382SOL    HW179920   8.943   6.104   2.618
59382SOL    HW279921   9.023   6.217   2.680
59383SOL     OW79922   2.248   9.160  12.271
59383SOL    HW179923   2.208   9.110  12.342
59383SOL    HW279924   2.312   9.100  12.232
59384SOL     OW79925  14.188   6.123   4.838
59384SOL    HW179926  14.274   6.156   4.864
59384SOL    HW279927  14.207   6.055   4.773
59385SOL     OW79928  11.595  14.684   5.912
59385SOL    HW179929  11.527  14.737   5.955
59385SOL    HW279930  11.676  14.711   5.954
59386SOL     OW79931  13.088  12.498   8.273
59386SOL    HW179932  13.006  12.512   8.226
59386SOL    HW279933  13.083  12.557   8.348
59387SOL     OW79934  10.247  11.344   6.385
59387SOL    HW179935  10.164  11.387   6.366
59387SOL    HW279936  10.294  11.347   6.302
59388SOL     OW79937  11.561  13.339   0.624
59388SOL    HW179938  11.577  13.248   0.600
59388SOL    HW279939  11.481  13.336   0.677
59389SOL     OW79940  14.781  11.888   0.034
59389SOL    HW179941  14.862  11.913  14.872
59389SOL    HW279942  14.809  11.836   0.109
59390SOL     OW79943   2.465   8.429  12.974
59390SOL    HW179944   2.404   8.399  13.041
59390SOL    HW279945   2.458   8.525  12.976
59391SOL     OW79946   7.038  10.827   8.025
59391SOL    HW179947   6.959  10.836   7.971
59391SOL    HW279948   7.012  10.860   8.111
59392SOL     OW79949   4.130   5.841   5.726
59392SOL    HW179950   4.054   5.803   5.770
59392SOL    HW279951   4.200   5.778   5.741
59393SOL     OW79952  13.409  12.570   2.846
59393SOL    HW179953  13.469  12.619   2.902
59393SOL    HW279954  13.417  12.612   2.760
59394SOL     OW79955   7.391  11.102   6.731
59394SOL    HW179956   7.373  11.032   6.794
59394SOL    HW279957   7.309  11.114   6.684
59395SOL     OW79958   4.716   4.961  11.514
59395SOL    HW179959   4.711   5.056  11.527
59395SOL    HW279960   4.807   4.945  11.489
59396SOL     OW79961   8.764  13.125   4.592
59396SOL    HW179962   8.708  13.186   4.544
59396SOL    HW279963   8.704  13.055   4.620
59397SOL     OW79964   6.679   0.048   9.270
59397SOL    HW179965   6.683   0.143   9.274
59397SOL    HW279966   6.619   0.029   9.198
59398SOL     OW79967   9.706  14.612   4.121
59398SOL    HW179968   9.696  14.544   4.055
59398SOL    HW279969   9.799  14.634   4.119
59399SOL     OW79970   1.838   1.135   2.696
59399SOL    HW179971   1.806   1.209   2.645
59399SOL    HW279972   1.762   1.079   2.708
59400SOL     OW79973   4.022  12.599  10.028
59400SOL    HW179974   4.022  12.626   9.936
59400SOL    HW279975   3.947  12.541  10.037
59401SOL     OW79976   1.877   6.123   3.486
59401SOL    HW179977   1.857   6.056   3.551
59401SOL    HW279978   1.891   6.203   3.537
59402SOL     OW79979  11.169   8.641   3.092
59402SOL    HW179980  11.177   8.730   3.126
59402SOL    HW279981  11.206   8.645   3.004
59403SOL     OW79982  11.026   9.523   2.041
59403SOL    HW179983  10.979   9.566   2.113
59403SOL    HW279984  11.069   9.448   2.083
59404SOL     OW79985  11.538   9.542   4.872
59404SOL    HW179986  11.492   9.512   4.794
59404SOL    HW279987  11.488   9.618   4.902
59405SOL     OW79988   3.775   8.282   8.759
59405SOL    HW179989   3.850   8.227   8.782
59405SOL    HW279990   3.765   8.270   8.665
59406SOL     OW79991   5.950  10.651   1.804
59406SOL    HW179992   5.977  10.727   1.854
59406SOL    HW279993   5.881  10.611   1.857
59407SOL     OW79994  13.064   0.192   7.525
59407SOL    HW179995  13.011   0.123   7.485
59407SOL    HW279996  13.122   0.145   7.585
59408SOL     OW79997   4.432   2.365   8.953
59408SOL    HW179998   4.401   2.292   8.899
59408SOL    HW279999   4.369   2.369   9.026
59409SOL     OW80000  10.705   1.942   4.847
59409SOL    HW180001  10.721   2.025   4.893
59409SOL    HW280002  10.759   1.947   4.769
59410SOL     OW80003  12.800   8.545  11.493
59410SOL    HW180004  12.864   8.608  11.458
59410SOL    HW280005  12.796   8.564  11.587
59411SOL     OW80006  14.721   9.279  11.344
59411SOL    HW180007  14.799   9.233  11.374
59411SOL    HW280008  14.654   9.211  11.338
59412SOL     OW80009  13.380  10.320  11.869
59412SOL    HW180010  13.285  10.312  11.869
59412SOL    HW280011  13.408  10.276  11.949
59413SOL     OW80012  10.175   5.402   7.108
59413SOL    HW180013  10.181   5.336   7.177
59413SOL    HW280014  10.238   5.469   7.133
59414SOL     OW80015   7.338  10.545  11.011
59414SOL    HW180016   7.334  10.632  10.972
59414SOL    HW280017   7.334  10.562  11.106
59415SOL     OW80018   4.283   9.171   2.236
59415SOL    HW180019   4.365   9.190   2.280
59415SOL    HW280020   4.215   9.204   2.295
59416SOL     OW80021   3.567   4.245   9.616
59416SOL    HW180022   3.512   4.313   9.579
59416SOL    HW280023   3.510   4.168   9.623
59417SOL     OW80024   5.382   9.755   7.940
59417SOL    HW180025   5.336   9.698   7.877
59417SOL    HW280026   5.316   9.816   7.970
59418SOL     OW80027   2.931  12.216   2.519
59418SOL    HW180028   2.918  12.121   2.516
59418SOL    HW280029   3.024  12.228   2.505
59419SOL     OW80030  10.486   9.274  10.084
59419SOL    HW180031  10.527   9.199  10.127
59419SOL    HW280032  10.549   9.345  10.096
59420SOL     OW80033   7.125  10.488   0.388
59420SOL    HW180034   7.122  10.523   0.477
59420SOL    HW280035   7.034  10.493   0.357
59421SOL     OW80036   1.026  14.697   6.195
59421SOL    HW180037   1.071  14.744   6.265
59421SOL    HW280038   1.095  14.676   6.132
59422SOL     OW80039  12.742   9.896   5.423
59422SOL    HW180040  12.818   9.859   5.467
59422SOL    HW280041  12.697   9.947   5.491
59423SOL     OW80042   8.364   7.913   4.420
59423SOL    HW180043   8.305   7.966   4.365
59423SOL    HW280044   8.313   7.893   4.498
59424SOL     OW80045   4.532  11.775  14.711
59424SOL    HW180046   4.614  11.755  14.755
59424SOL    HW280047   4.546  11.748  14.620
59425SOL     OW80048   1.060   5.649   0.788
59425SOL    HW180049   1.038   5.742   0.791
59425SOL    HW280050   0.977   5.605   0.775
59426SOL     OW80051   1.631   4.146   8.027
59426SOL    HW180052   1.641   4.205   7.952
59426SOL    HW280053   1.595   4.065   7.989
59427SOL     OW80054   5.126  13.636  12.873
59427SOL    HW180055   5.194  13.702  12.861
59427SOL    HW280056   5.069  13.673  12.941
59428SOL     OW80057   7.956  10.280   7.174
59428SOL    HW180058   7.981  10.353   7.117
59428SOL    HW280059   7.928  10.211   7.113
59429SOL     OW80060   6.634  12.702  11.284
59429SOL    HW180061   6.716  12.653  11.276
59429SOL    HW280062   6.568  12.647  11.242
59430SOL     OW80063   1.995  13.656   8.476
59430SOL    HW180064   1.935  13.624   8.543
59430SOL    HW280065   2.069  13.692   8.525
59431SOL     OW80066   8.839   9.397   8.434
59431SOL    HW180067   8.925   9.435   8.452
59431SOL    HW280068   8.848   9.360   8.346
59432SOL     OW80069   2.349   7.769   0.514
59432SOL    HW180070   2.413   7.757   0.443
59432SOL    HW280071   2.403   7.789   0.590
59433SOL     OW80072  11.436   8.426   0.586
59433SOL    HW180073  11.489   8.502   0.609
59433SOL    HW280074  11.445   8.367   0.660
59434SOL     OW80075   6.838   5.008   2.652
59434SOL    HW180076   6.790   5.091   2.647
59434SOL    HW280077   6.926   5.033   2.680
59435SOL     OW80078   7.000   2.497   8.712
59435SOL    HW180079   7.061   2.504   8.786
59435SOL    HW280080   6.947   2.576   8.718
59436SOL     OW80081  13.485   5.785   7.363
59436SOL    HW180082  13.528   5.757   7.444
59436SOL    HW280083  13.409   5.836   7.393
59437SOL     OW80084  10.347   0.260   8.197
59437SOL    HW180085  10.345   0.337   8.255
59437SOL    HW280086  10.327   0.295   8.110
59438SOL     OW80087  10.880   4.716  14.137
59438SOL    HW180088  10.862   4.805  14.107
59438SOL    HW280089  10.813   4.698  14.203
59439SOL     OW80090  11.756   8.535   2.949
59439SOL    HW180091  11.782   8.465   3.009
59439SOL    HW280092  11.741   8.611   3.006
59440SOL     OW80093   7.256  13.572   0.966
59440SOL    HW180094   7.327  13.510   0.984
59440SOL    HW280095   7.187  13.547   1.027
59441SOL     OW80096  11.290   0.083   8.960
59441SOL    HW180097  11.377   0.062   8.924
59441SOL    HW280098  11.304   0.164   9.009
59442SOL     OW80099   3.156   0.672  11.947
59442SOL    HW180100   3.224   0.605  11.949
59442SOL    HW280101   3.182   0.731  11.876
59443SOL     OW80102   9.723  14.112   4.929
59443SOL    HW180103   9.635  14.101   4.965
59443SOL    HW280104   9.780  14.109   5.006
59444SOL     OW80105   3.658  12.112   8.967
59444SOL    HW180106   3.636  12.043   9.029
59444SOL    HW280107   3.677  12.188   9.022
59445SOL     OW80108   0.719   0.431   1.972
59445SOL    HW180109   0.789   0.465   1.916
59445SOL    HW280110   0.650   0.497   1.967
59446SOL     OW80111  12.265   6.211  12.395
59446SOL    HW180112  12.344   6.195  12.344
59446SOL    HW280113  12.225   6.125  12.407
59447SOL     OW80114   0.033  12.518   2.153
59447SOL    HW180115   0.061  12.597   2.107
59447SOL    HW280116   0.114  12.471   2.171
59448SOL     OW80117   0.509   1.933   7.748
59448SOL    HW180118   0.527   1.929   7.842
59448SOL    HW280119   0.501   1.841   7.722
59449SOL     OW80120   5.396   6.585  14.149
59449SOL    HW180121   5.464   6.649  14.125
59449SOL    HW280122   5.410   6.512  14.090
59450SOL     OW80123  13.960  13.748  13.261
59450SOL    HW180124  13.888  13.774  13.203
59450SOL    HW280125  13.932  13.663  13.295
59451SOL     OW80126  11.738  14.576   3.116
59451SOL    HW180127  11.793  14.558   3.039
59451SOL    HW280128  11.765  14.663   3.144
59452SOL     OW80129   1.954  10.544  13.328
59452SOL    HW180130   1.888  10.607  13.299
59452SOL    HW280131   1.940  10.467  13.272
59453SOL     OW80132  13.776  14.251   9.016
59453SOL    HW180133  13.831  14.316   8.973
59453SOL    HW280134  13.704  14.302   9.055
59454SOL     OW80135  12.660   3.329   6.880
59454SOL    HW180136  12.726   3.282   6.828
59454SOL    HW280137  12.679   3.305   6.970
59455SOL     OW80138   7.304  13.578  12.558
59455SOL    HW180139   7.280  13.625  12.478
59455SOL    HW280140   7.312  13.487  12.530
59456SOL     OW80141  13.015  14.719   4.227
59456SOL    HW180142  13.028  14.794   4.286
59456SOL    HW280143  12.980  14.757   4.147
59457SOL     OW80144  14.315   0.445   3.664
59457SOL    HW180145  14.342   0.486   3.746
59457SOL    HW280146  14.392   0.396   3.636
59458SOL     OW80147   7.404  14.535  14.159
59458SOL    HW180148   7.388  14.629  14.162
59458SOL    HW280149   7.440  14.514  14.245
59459SOL     OW80150   1.417  10.638  14.146
59459SOL    HW180151   1.427  10.627  14.241
59459SOL    HW280152   1.502  10.613  14.110
59460SOL     OW80153  11.384   3.707   4.914
59460SOL    HW180154  11.407   3.778   4.974
59460SOL    HW280155  11.420   3.628   4.955
59461SOL     OW80156  14.453   9.760   0.719
59461SOL    HW180157  14.515   9.804   0.776
59461SOL    HW280158  14.368   9.799   0.740
59462SOL     OW80159  14.508   0.808   9.044
59462SOL    HW180160  14.438   0.861   9.005
59462SOL    HW280161  14.485   0.718   9.021
59463SOL     OW80162   8.578   9.584  14.159
59463SOL    HW180163   8.628   9.651  14.111
59463SOL    HW280164   8.505   9.562  14.101
59464SOL     OW80165  11.616  14.804  10.480
59464SOL    HW180166  11.658  14.757  10.407
59464SOL    HW280167  11.523  14.785  10.470
59465SOL     OW80168   0.596  12.532   4.244
59465SOL    HW180169   0.511  12.534   4.200
59465SOL    HW280170   0.645  12.605   4.205
59466SOL     OW80171   7.467   3.130   0.159
59466SOL    HW180172   7.524   3.055   0.173
59466SOL    HW280173   7.431   3.150   0.245
59467SOL     OW80174   9.192   0.039   3.743
59467SOL    HW180175   9.163  14.848   3.797
59467SOL    HW280176   9.144   0.115   3.777
59468SOL     OW80177  13.524   1.730   1.272
59468SOL    HW180178  13.465   1.666   1.231
59468SOL    HW280179  13.606   1.683   1.282
59469SOL     OW80180  14.586  12.789  11.316
59469SOL    HW180181  14.678  12.765  11.328
59469SOL    HW280182  14.538  12.721  11.363
59470SOL     OW80183  14.097  10.246   7.881
59470SOL    HW180184  14.085  10.274   7.972
59470SOL    HW280185  14.056  10.315   7.830
59471SOL     OW80186   6.280  14.169   4.061
59471SOL    HW180187   6.259  14.165   3.968
59471SOL    HW280188   6.373  14.150   4.065
59472SOL     OW80189   7.310   1.211   9.298
59472SOL    HW180190   7.305   1.116   9.291
59472SOL    HW280191   7.369   1.237   9.227
59473SOL     OW80192  13.215   4.298   4.056
59473SOL    HW180193  13.292   4.350   4.032
59473SOL    HW280194  13.185   4.262   3.972
59474SOL     OW80195   6.810   2.424   3.586
59474SOL    HW180196   6.720   2.444   3.557
59474SOL    HW280197   6.820   2.471   3.668
59475SOL     OW80198   0.903  11.524   2.937
59475SOL    HW180199   0.831  11.504   2.997
59475SOL    HW280200   0.861  11.555   2.857
59476SOL     OW80201   8.278   9.799   3.376
59476SOL    HW180202   8.352   9.819   3.434
59476SOL    HW280203   8.299   9.843   3.294
59477SOL     OW80204   9.445   4.496  12.926
59477SOL    HW180205   9.404   4.562  12.982
59477SOL    HW280206   9.527   4.536  12.898
59478SOL     OW80207   9.493   5.597  14.430
59478SOL    HW180208   9.485   5.691  14.446
59478SOL    HW280209   9.559   5.568  14.493
59479SOL     OW80210   7.986   2.872   5.522
59479SOL    HW180211   7.892   2.867   5.504
59479SOL    HW280212   7.996   2.825   5.605
59480SOL     OW80213  11.882  12.223   3.490
59480SOL    HW180214  11.975  12.234   3.510
59480SOL    HW280215  11.848  12.312   3.485
59481SOL     OW80216   6.137   0.953   0.393
59481SOL    HW180217   6.167   1.042   0.378
59481SOL    HW280218   6.139   0.912   0.306
59482SOL     OW80219  10.088   1.548   7.242
59482SOL    HW180220  10.156   1.602   7.281
59482SOL    HW280221  10.061   1.596   7.164
59483SOL     OW80222  14.562   6.097  13.118
59483SOL    HW180223  14.582   6.189  13.106
59483SOL    HW280224  14.550   6.063  13.029
59484SOL     OW80225  10.313  11.164   1.424
59484SOL    HW180226  10.336  11.084   1.471
59484SOL    HW280227  10.294  11.136   1.335
59485SOL     OW80228  14.660   3.372  10.837
59485SOL    HW180229  14.617   3.358  10.922
59485SOL    HW280230  14.680   3.283  10.807
59486SOL     OW80231  12.466   8.334  13.978
59486SOL    HW180232  12.513   8.261  14.020
59486SOL    HW280233  12.471   8.405  14.041
59487SOL     OW80234   2.146  10.555  12.704
59487SOL    HW180235   2.093  10.603  12.641
59487SOL    HW280236   2.231  10.598  12.703
59488SOL     OW80237  13.915   0.695   8.870
59488SOL    HW180238  13.968   0.663   8.944
59488SOL    HW280239  13.847   0.628   8.860
59489SOL     OW80240   2.086  13.133   7.312
59489SOL    HW180241   1.994  13.120   7.332
59489SOL    HW280242   2.128  13.051   7.340
59490SOL     OW80243   5.583   8.670   0.787
59490SOL    HW180244   5.607   8.759   0.763
59490SOL    HW280245   5.653   8.641   0.846
59491SOL     OW80246   9.100   7.498   7.447
59491SOL    HW180247   9.040   7.516   7.375
59491SOL    HW280248   9.149   7.580   7.459
59492SOL     OW80249   8.760   1.667   4.215
59492SOL    HW180250   8.783   1.645   4.305
59492SOL    HW280251   8.676   1.714   4.222
59493SOL     OW80252  13.067   2.530   0.302
59493SOL    HW180253  13.013   2.508   0.227
59493SOL    HW280254  13.157   2.510   0.274
59494SOL     OW80255   6.381   4.244   9.127
59494SOL    HW180256   6.330   4.317   9.093
59494SOL    HW280257   6.466   4.282   9.150
59495SOL     OW80258  12.022   9.919  11.304
59495SOL    HW180259  12.051   9.988  11.244
59495SOL    HW280260  11.927   9.915  11.293
59496SOL     OW80261   7.964   0.394   3.289
59496SOL    HW180262   7.918   0.318   3.253
59496SOL    HW280263   8.056   0.375   3.274
59497SOL     OW80264  14.047  12.757   1.216
59497SOL    HW180265  13.995  12.696   1.164
59497SOL    HW280266  14.044  12.721   1.305
59498SOL     OW80267   5.321  10.784   3.663
59498SOL    HW180268   5.272  10.821   3.589
59498SOL    HW280269   5.271  10.811   3.740
59499SOL     OW80270  13.853   4.433  10.831
59499SOL    HW180271  13.930   4.412  10.884
59499SOL    HW280272  13.888   4.455  10.745
59500SOL     OW80273  10.283  13.605   9.510
59500SOL    HW180274  10.248  13.556   9.584
59500SOL    HW280275  10.211  13.661   9.482
59501SOL     OW80276  14.701  12.874   4.678
59501SOL    HW180277  14.696  12.838   4.767
59501SOL    HW280278  14.790  12.908   4.671
59502SOL     OW80279  13.922   3.553   2.749
59502SOL    HW180280  13.933   3.466   2.710
59502SOL    HW280281  13.975   3.611   2.694
59503SOL     OW80282  14.379   5.789   8.192
59503SOL    HW180283  14.376   5.697   8.220
59503SOL    HW280284  14.287   5.813   8.182
59504SOL     OW80285  12.923  14.830  13.652
59504SOL    HW180286  12.908  14.793  13.739
59504SOL    HW280287  12.975  14.763  13.606
59505SOL     OW80288  13.798   6.144   1.914
59505SOL    HW180289  13.874   6.089   1.893
59505SOL    HW280290  13.834   6.232   1.923
59506SOL     OW80291   4.641  13.433   3.933
59506SOL    HW180292   4.626  13.491   3.859
59506SOL    HW280293   4.624  13.345   3.899
59507SOL     OW80294   3.969   7.766  10.378
59507SOL    HW180295   4.019   7.691  10.411
59507SOL    HW280296   3.890   7.767  10.432
59508SOL     OW80297  14.574   4.044   3.736
59508SOL    HW180298  14.553   4.106   3.806
59508SOL    HW280299  14.669   4.050   3.727
59509SOL     OW80300   8.108   7.294   5.849
59509SOL    HW180301   8.200   7.305   5.874
59509SOL    HW280302   8.060   7.296   5.932
59510SOL     OW80303  14.722   0.556   2.858
59510SOL    HW180304  14.748   0.635   2.812
59510SOL    HW280305  14.779   0.487   2.822
59511SOL     OW80306   2.455   5.596   5.142
59511SOL    HW180307   2.538   5.550   5.155
59511SOL    HW280308   2.432   5.580   5.051
59512SOL     OW80309   4.967   3.548   7.507
59512SOL    HW180310   4.888   3.527   7.458
59512SOL    HW280311   5.038   3.528   7.445
59513SOL     OW80312  12.858   2.660   4.473
59513SOL    HW180313  12.945   2.622   4.483
59513SOL    HW280314  12.845   2.713   4.551
59514SOL     OW80315  11.185  12.900  12.701
59514SOL    HW180316  11.132  12.833  12.659
59514SOL    HW280317  11.129  12.935  12.771
59515SOL     OW80318  10.934  11.540  11.299
59515SOL    HW180319  10.985  11.478  11.248
59515SOL    HW280320  10.847  11.538  11.259
59516SOL     OW80321   9.318  13.643   1.138
59516SOL    HW180322   9.328  13.569   1.078
59516SOL    HW280323   9.338  13.720   1.085
59517SOL     OW80324  14.704   7.488   7.493
59517SOL    HW180325  14.715   7.581   7.474
59517SOL    HW280326  14.632   7.485   7.557
59518SOL     OW80327  12.322  12.465  12.000
59518SOL    HW180328  12.324  12.382  11.953
59518SOL    HW280329  12.400  12.512  11.969
59519SOL     OW80330  12.836  12.624   3.719
59519SOL    HW180331  12.760  12.670   3.754
59519SOL    HW280332  12.803  12.535   3.701
59520SOL     OW80333   5.399   8.409   4.124
59520SOL    HW180334   5.325   8.455   4.163
59520SOL    HW280335   5.471   8.424   4.185
59521SOL     OW80336  12.891  14.339   2.147
59521SOL    HW180337  12.823  14.274   2.134
59521SOL    HW280338  12.853  14.421   2.115
59522SOL     OW80339   8.037   3.190  10.044
59522SOL    HW180340   7.991   3.224   9.968
59522SOL    HW280341   8.046   3.265  10.103
59523SOL     OW80342  10.750  13.313   9.304
59523SOL    HW180343  10.805  13.387   9.330
59523SOL    HW280344  10.770  13.301   9.211
59524SOL     OW80345   4.683  10.505   7.711
59524SOL    HW180346   4.646  10.542   7.631
59524SOL    HW280347   4.758  10.562   7.732
59525SOL     OW80348   7.086   5.391   9.629
59525SOL    HW180349   7.035   5.370   9.707
59525SOL    HW280350   7.104   5.485   9.637
59526SOL     OW80351  13.963   9.195   8.640
59526SOL    HW180352  13.996   9.120   8.689
59526SOL    HW280353  14.003   9.188   8.553
59527SOL     OW80354   5.903  11.279   6.866
59527SOL    HW180355   5.962  11.253   6.795
59527SOL    HW280356   5.850  11.200   6.883
59528SOL     OW80357   0.108  10.874   3.692
59528SOL    HW180358   0.094  10.792   3.739
59528SOL    HW280359   0.188  10.911   3.731
59529SOL     OW80360   9.394  11.004   7.166
59529SOL    HW180361   9.360  11.006   7.255
59529SOL    HW280362   9.326  11.046   7.113
59530SOL     OW80363   5.641   3.215   0.728
59530SOL    HW180364   5.646   3.305   0.762
59530SOL    HW280365   5.693   3.164   0.790
59531SOL     OW80366  14.051   6.748   5.281
59531SOL    HW180367  14.047   6.760   5.376
59531SOL    HW280368  14.014   6.829   5.246
59532SOL     OW80369  12.507   6.196  10.491
59532SOL    HW180370  12.441   6.157  10.548
59532SOL    HW280371  12.459   6.223  10.413
59533SOL     OW80372   0.773   9.095  12.559
59533SOL    HW180373   0.855   9.095  12.508
59533SOL    HW280374   0.734   9.180  12.540
59534SOL     OW80375   9.354   1.947  11.394
59534SOL    HW180376   9.371   1.885  11.465
59534SOL    HW280377   9.401   2.027  11.419
59535SOL     OW80378   5.882   9.885  13.761
59535SOL    HW180379   5.806   9.931  13.727
59535SOL    HW280380   5.955   9.914  13.705
59536SOL     OW80381   2.639   1.024   6.893
59536SOL    HW180382   2.557   1.047   6.937
59536SOL    HW280383   2.618   1.027   6.799
59537SOL     OW80384  11.863  14.293   6.545
59537SOL    HW180385  11.860  14.245   6.463
59537SOL    HW280386  11.903  14.232   6.607
59538SOL     OW80387  11.313   6.711  11.183
59538SOL    HW180388  11.400   6.748  11.170
59538SOL    HW280389  11.296   6.722  11.276
59539SOL     OW80390   9.315   4.961  12.224
59539SOL    HW180391   9.346   4.872  12.237
59539SOL    HW280392   9.276   4.986  12.308
59540SOL     OW80393  13.544  14.259   6.845
59540SOL    HW180394  13.539  14.247   6.750
59540SOL    HW280395  13.630  14.298   6.859
59541SOL     OW80396   5.100  14.245   0.753
59541SOL    HW180397   5.064  14.332   0.770
59541SOL    HW280398   5.188  14.261   0.720
59542SOL     OW80399   9.536   0.665   2.525
59542SOL    HW180400   9.580   0.661   2.609
59542SOL    HW280401   9.606   0.653   2.461
59543SOL     OW80402   2.438  12.598   3.247
59543SOL    HW180403   2.481  12.522   3.286
59543SOL    HW280404   2.504  12.637   3.190
59544SOL     OW80405  14.350   8.547   7.519
59544SOL    HW180406  14.260   8.535   7.549
59544SOL    HW280407  14.386   8.459   7.515
59545SOL     OW80408   2.083  12.474   7.397
59545SOL    HW180409   2.157  12.534   7.406
59545SOL    HW280410   2.119  12.398   7.353
59546SOL     OW80411   7.657   0.981   5.522
59546SOL    HW180412   7.643   0.900   5.473
59546SOL    HW280413   7.605   1.046   5.475
59547SOL     OW80414   8.501   0.060   3.787
59547SOL    HW180415   8.462   0.003   3.854
59547SOL    HW280416   8.558   0.001   3.737
59548SOL     OW80417  12.565   1.313  12.930
59548SOL    HW180418  12.588   1.260  12.854
59548SOL    HW280419  12.505   1.258  12.981
59549SOL     OW80420   0.272  11.572   5.083
59549SOL    HW180421   0.188  11.560   5.127
59549SOL    HW280422   0.252  11.623   5.005
59550SOL     OW80423   9.242  14.235   3.090
59550SOL    HW180424   9.233  14.155   3.142
59550SOL    HW280425   9.329  14.269   3.113
59551SOL     OW80426  10.055   1.282  11.573
59551SOL    HW180427  10.092   1.286  11.485
59551SOL    HW280428  10.081   1.196  11.606
59552SOL     OW80429   1.053   5.113  13.999
59552SOL    HW180430   1.143   5.100  14.030
59552SOL    HW280431   1.029   5.030  13.959
59553SOL     OW80432   6.556   4.238  14.192
59553SOL    HW180433   6.540   4.279  14.107
59553SOL    HW280434   6.650   4.224  14.195
59554SOL     OW80435   1.798   3.924   9.987
59554SOL    HW180436   1.837   3.892  10.069
59554SOL    HW280437   1.753   3.847   9.952
59555SOL     OW80438  12.863  10.676   4.569
59555SOL    HW180439  12.948  10.709   4.597
59555SOL    HW280440  12.861  10.585   4.601
59556SOL     OW80441   9.457   8.187   1.429
59556SOL    HW180442   9.371   8.163   1.463
59556SOL    HW280443   9.508   8.210   1.506
59557SOL     OW80444   8.652   7.087   1.848
59557SOL    HW180445   8.588   7.090   1.776
59557SOL    HW280446   8.598   7.087   1.927
59558SOL     OW80447  10.559  11.153   7.622
59558SOL    HW180448  10.613  11.117   7.693
59558SOL    HW280449  10.516  11.076   7.583
59559SOL     OW80450   6.471  13.105   9.922
59559SOL    HW180451   6.457  13.198   9.904
59559SOL    HW280452   6.428  13.060   9.849
59560SOL     OW80453   3.653   6.163   6.005
59560SOL    HW180454   3.565   6.199   5.995
59560SOL    HW280455   3.677   6.183   6.095
59561SOL     OW80456  11.596   6.889   2.283
59561SOL    HW180457  11.599   6.963   2.222
59561SOL    HW280458  11.685   6.881   2.316
59562SOL     OW80459   0.726   3.349   5.037
59562SOL    HW180460   0.772   3.428   5.066
59562SOL    HW280461   0.794   3.282   5.033
59563SOL     OW80462   8.117  10.117  11.712
59563SOL    HW180463   8.047  10.054  11.732
59563SOL    HW280464   8.120  10.119  11.616
59564SOL     OW80465  12.598   3.167   4.927
59564SOL    HW180466  12.648   3.138   5.003
59564SOL    HW280467  12.545   3.241   4.960
59565SOL     OW80468  14.531  10.011   8.429
59565SOL    HW180469  14.450   9.967   8.405
59565SOL    HW280470  14.601   9.952   8.401
59566SOL     OW80471   1.852  12.657  11.292
59566SOL    HW180472   1.803  12.694  11.365
59566SOL    HW280473   1.940  12.643  11.327
59567SOL     OW80474   9.209   1.988   8.894
59567SOL    HW180475   9.213   1.907   8.844
59567SOL    HW280476   9.174   1.962   8.980
59568SOL     OW80477   5.447  10.272   4.275
59568SOL    HW180478   5.486  10.191   4.307
59568SOL    HW280479   5.517  10.337   4.283
59569SOL     OW80480   6.677  11.460   1.387
59569SOL    HW180481   6.759  11.417   1.363
59569SOL    HW280482   6.611  11.419   1.332
59570SOL     OW80483  13.304   6.852  12.555
59570SOL    HW180484  13.297   6.947  12.541
59570SOL    HW280485  13.223   6.816  12.518
59571SOL     OW80486   6.028   7.212  10.434
59571SOL    HW180487   6.105   7.160  10.456
59571SOL    HW280488   6.056   7.303  10.443
59572SOL     OW80489   1.434  13.111   0.197
59572SOL    HW180490   1.491  13.040   0.228
59572SOL    HW280491   1.349  13.092   0.237
59573SOL     OW80492   5.262   8.420   3.834
59573SOL    HW180493   5.224   8.355   3.776
59573SOL    HW280494   5.192   8.483   3.850
59574SOL     OW80495   1.796  14.364   2.961
59574SOL    HW180496   1.714  14.336   2.920
59574SOL    HW280497   1.810  14.300   3.031
59575SOL     OW80498  14.412   3.399  11.615
59575SOL    HW180499  14.371   3.391  11.529
59575SOL    HW280500  14.468   3.477  11.607
59576SOL     OW80501   9.692   6.378   5.314
59576SOL    HW180502   9.728   6.380   5.225
59576SOL    HW280503   9.661   6.288   5.326
59577SOL     OW80504   9.571   9.800   8.929
59577SOL    HW180505   9.646   9.741   8.943
59577SOL    HW280506   9.501   9.762   8.983
59578SOL     OW80507   1.084   3.253  14.491
59578SOL    HW180508   1.097   3.237  14.398
59578SOL    HW280509   1.164   3.222  14.533
59579SOL     OW80510   9.892  12.013  14.030
59579SOL    HW180511   9.910  11.938  13.974
59579SOL    HW280512   9.954  12.080  14.002
59580SOL     OW80513  11.988   7.778   6.472
59580SOL    HW180514  11.949   7.859   6.440
59580SOL    HW280515  11.928   7.747   6.540
59581SOL     OW80516   4.893  10.486  10.931
59581SOL    HW180517   4.840  10.466  10.853
59581SOL    HW280518   4.980  10.506  10.896
59582SOL     OW80519   1.086   6.787   8.509
59582SOL    HW180520   1.058   6.852   8.444
59582SOL    HW280521   1.076   6.832   8.593
59583SOL     OW80522   8.318   6.269  12.128
59583SOL    HW180523   8.330   6.283  12.034
59583SOL    HW280524   8.252   6.200  12.133
59584SOL     OW80525  13.338  10.784  11.230
59584SOL    HW180526  13.318  10.714  11.293
59584SOL    HW280527  13.432  10.777  11.216
59585SOL     OW80528   8.172  11.142   0.712
59585SOL    HW180529   8.202  11.071   0.656
59585SOL    HW280530   8.123  11.098   0.782
59586SOL     OW80531   5.988   0.675  10.545
59586SOL    HW180532   5.906   0.685  10.496
59586SOL    HW280533   5.968   0.612  10.614
59587SOL     OW80534   6.236   2.886  11.036
59587SOL    HW180535   6.221   2.792  11.046
59587SOL    HW280536   6.330   2.893  11.019
59588SOL     OW80537   9.884   8.726   9.614
59588SOL    HW180538   9.919   8.779   9.686
59588SOL    HW280539   9.789   8.728   9.626
59589SOL     OW80540  14.219  13.390  11.233
59589SOL    HW180541  14.309  13.389  11.200
59589SOL    HW280542  14.229  13.385  11.329
59590SOL     OW80543   2.405   0.740   3.666
59590SOL    HW180544   2.404   0.645   3.662
59590SOL    HW280545   2.492   0.762   3.700
59591SOL     OW80546   0.302   8.599   6.382
59591SOL    HW180547   0.248   8.667   6.343
59591SOL    HW280548   0.314   8.627   6.473
59592SOL     OW80549  12.994   4.331   7.270
59592SOL    HW180550  12.916   4.295   7.229
59592SOL    HW280551  13.060   4.262   7.261
59593SOL     OW80552   0.457   4.422   7.461
59593SOL    HW180553   0.443   4.511   7.428
59593SOL    HW280554   0.403   4.367   7.405
59594SOL     OW80555   5.293   1.715  13.187
59594SOL    HW180556   5.230   1.783  13.213
59594SOL    HW280557   5.361   1.719  13.255
59595SOL     OW80558   4.483  11.120   0.288
59595SOL    HW180559   4.416  11.103   0.221
59595SOL    HW280560   4.556  11.157   0.239
59596SOL     OW80561   0.510   8.992  12.801
59596SOL    HW180562   0.438   9.016  12.861
59596SOL    HW280563   0.483   9.027  12.716
59597SOL     OW80564  14.159  10.331   2.173
59597SOL    HW180565  14.179  10.405   2.115
59597SOL    HW280566  14.242  10.312   2.217
59598SOL     OW80567  13.355   2.648  10.946
59598SOL    HW180568  13.361   2.554  10.930
59598SOL    HW280569  13.275   2.675  10.900
59599SOL     OW80570   2.043   9.685  14.554
59599SOL    HW180571   1.982   9.632  14.503
59599SOL    HW280572   2.129   9.663  14.517
59600SOL     OW80573   9.663   9.010  12.027
59600SOL    HW180574   9.576   8.995  12.065
59600SOL    HW280575   9.651   9.086  11.970
59601SOL     OW80576  12.254   8.925  14.657
59601SOL    HW180577  12.189   8.994  14.647
59601SOL    HW280578  12.315   8.959  14.722
59602SOL     OW80579   8.499   7.743   9.501
59602SOL    HW180580   8.558   7.724   9.574
59602SOL    HW280581   8.415   7.708   9.527
59603SOL     OW80582  13.956   7.003   5.658
59603SOL    HW180583  13.951   7.096   5.636
59603SOL    HW280584  13.898   6.960   5.595
59604SOL     OW80585   8.505  11.452   0.229
59604SOL    HW180586   8.469  11.532   0.267
59604SOL    HW280587   8.537  11.402   0.303
59605SOL     OW80588  11.550   5.383   6.841
59605SOL    HW180589  11.617   5.419   6.782
59605SOL    HW280590  11.599   5.331   6.904
59606SOL     OW80591  14.599   3.998   2.376
59606SOL    HW180592  14.649   3.917   2.364
59606SOL    HW280593  14.555   3.987   2.460
59607SOL     OW80594  10.956   5.976   3.346
59607SOL    HW180595  11.037   6.018   3.318
59607SOL    HW280596  10.930   6.024   3.425
59608SOL     OW80597   2.128   2.232  12.060
59608SOL    HW180598   2.052   2.218  12.116
59608SOL    HW280599   2.164   2.144  12.045
59609SOL     OW80600  12.812   3.155   1.439
59609SOL    HW180601  12.741   3.185   1.383
59609SOL    HW280602  12.892   3.169   1.387
59610SOL     OW80603   8.442   5.138   3.865
59610SOL    HW180604   8.410   5.142   3.955
59610SOL    HW280605   8.366   5.161   3.812
59611SOL     OW80606  12.859  10.292   7.501
59611SOL    HW180607  12.783  10.331   7.458
59611SOL    HW280608  12.830  10.274   7.590
59612SOL     OW80609   0.083   0.780   5.461
59612SOL    HW180610   0.055   0.802   5.372
59612SOL    HW280611   0.143   0.707   5.450
59613SOL     OW80612   7.806   9.224   6.828
59613SOL    HW180613   7.768   9.312   6.831
59613SOL    HW280614   7.890   9.235   6.785
59614SOL     OW80615   5.205  11.875  13.730
59614SOL    HW180616   5.129  11.818  13.717
59614SOL    HW280617   5.179  11.934  13.801
59615SOL     OW80618   0.005   6.582  12.352
59615SOL    HW180619  14.806   6.630  12.374
59615SOL    HW280620  14.878   6.499  12.399
59616SOL     OW80621  14.715   1.589   1.873
59616SOL    HW180622  14.767   1.669   1.870
59616SOL    HW280623  14.648   1.606   1.939
59617SOL     OW80624   2.295   6.474  12.476
59617SOL    HW180625   2.238   6.539  12.519
59617SOL    HW280626   2.282   6.489  12.383
59618SOL     OW80627   4.655   0.235   7.487
59618SOL    HW180628   4.694   0.150   7.469
59618SOL    HW280629   4.702   0.296   7.431
59619SOL     OW80630   6.969  12.345   2.023
59619SOL    HW180631   6.990  12.301   1.941
59619SOL    HW280632   6.988  12.280   2.090
59620SOL     OW80633  10.543   0.152  12.005
59620SOL    HW180634  10.556   0.083  11.941
59620SOL    HW280635  10.563   0.233  11.959
59621SOL     OW80636   7.006  11.441   8.616
59621SOL    HW180637   7.050  11.458   8.699
59621SOL    HW280638   6.932  11.500   8.615
59622SOL     OW80639   9.586  11.876   8.411
59622SOL    HW180640   9.610  11.967   8.424
59622SOL    HW280641   9.623  11.830   8.486
59623SOL     OW80642  12.208   4.923  13.860
59623SOL    HW180643  12.227   5.001  13.913
59623SOL    HW280644  12.234   4.850  13.915
59624SOL     OW80645   6.369   6.800   7.584
59624SOL    HW180646   6.354   6.705   7.583
59624SOL    HW280647   6.316   6.833   7.512
59625SOL     OW80648   4.134  14.841  14.264
59625SOL    HW180649   4.228  14.844  14.249
59625SOL    HW280650   4.110  14.749  14.247
59626SOL     OW80651  14.629   9.303  14.450
59626SOL    HW180652  14.684   9.247  14.394
59626SOL    HW280653  14.664   9.290  14.538
59627SOL     OW80654   0.981   4.070   7.254
59627SOL    HW180655   0.943   4.026   7.178
59627SOL    HW280656   1.033   4.003   7.297
59628SOL     OW80657   6.875   3.677   3.257
59628SOL    HW180658   6.808   3.609   3.252
59628SOL    HW280659   6.826   3.759   3.253
59629SOL     OW80660   8.163  11.228   0.380
59629SOL    HW180661   8.232  11.219   0.445
59629SOL    HW280662   8.208  11.233   0.296
59630SOL     OW80663  14.222  10.208   3.179
59630SOL    HW180664  14.273  10.163   3.247
59630SOL    HW280665  14.288  10.252   3.126
59631SOL     OW80666  13.515   1.002   2.985
59631SOL    HW180667  13.513   1.065   3.058
59631SOL    HW280668  13.431   1.013   2.941
59632SOL     OW80669   3.636   4.561   4.406
59632SOL    HW180670   3.548   4.595   4.390
59632SOL    HW280671   3.623   4.484   4.461
59633SOL     OW80672  11.174  11.441   3.115
59633SOL    HW180673  11.266  11.447   3.141
59633SOL    HW280674  11.127  11.426   3.197
59634SOL     OW80675  13.151   1.787   7.564
59634SOL    HW180676  13.185   1.868   7.526
59634SOL    HW280677  13.056   1.795   7.558
59635SOL     OW80678  11.135   8.237  11.492
59635SOL    HW180679  11.185   8.199  11.564
59635SOL    HW280680  11.070   8.170  11.470
59636SOL     OW80681  13.738   2.276   4.904
59636SOL    HW180682  13.671   2.246   4.843
59636SOL    HW280683  13.765   2.198   4.951
59637SOL     OW80684   9.840  13.014   9.124
59637SOL    HW180685   9.835  13.024   9.029
59637SOL    HW280686   9.883  13.093   9.155
59638SOL     OW80687   2.418  13.483  14.025
59638SOL    HW180688   2.426  13.391  14.051
59638SOL    HW280689   2.504  13.505  13.989
59639SOL     OW80690   9.371   0.749   0.567
59639SOL    HW180691   9.392   0.710   0.482
59639SOL    HW280692   9.294   0.803   0.551
59640SOL     OW80693  14.724   3.695  13.371
59640SOL    HW180694  14.680   3.639  13.306
59640SOL    HW280695  14.653   3.725  13.428
59641SOL     OW80696   7.450   3.343   5.303
59641SOL    HW180697   7.525   3.291   5.332
59641SOL    HW280698   7.389   3.279   5.266
59642SOL     OW80699   4.180  14.720  12.711
59642SOL    HW180700   4.151  14.631  12.692
59642SOL    HW280701   4.103  14.763  12.748
59643SOL     OW80702  12.920  11.832  12.351
59643SOL    HW180703  12.938  11.883  12.273
59643SOL    HW280704  13.004  11.791  12.373
59644SOL     OW80705  10.689  14.562   6.106
59644SOL    HW180706  10.597  14.541   6.090
59644SOL    HW280707  10.735  14.479   6.095
59645SOL     OW80708  14.538   3.383   3.986
59645SOL    HW180709  14.528   3.422   4.073
59645SOL    HW280710  14.462   3.325   3.977
59646SOL     OW80711   5.212   0.382  12.046
59646SOL    HW180712   5.200   0.318  11.976
59646SOL    HW280713   5.169   0.342  12.122
59647SOL     OW80714   7.975   9.239   5.038
59647SOL    HW180715   8.001   9.326   5.068
59647SOL    HW280716   7.929   9.201   5.113
59648SOL     OW80717   1.194   5.171   0.766
59648SOL    HW180718   1.173   5.259   0.796
59648SOL    HW280719   1.279   5.151   0.805
59649SOL     OW80720   2.014   8.834  14.109
59649SOL    HW180721   2.005   8.757  14.053
59649SOL    HW280722   1.965   8.903  14.064
59650SOL     OW80723   1.312   4.949  13.436
59650SOL    HW180724   1.354   4.905  13.510
59650SOL    HW280725   1.258   4.881  13.395
59651SOL     OW80726   5.439   7.924   0.387
59651SOL    HW180727   5.448   7.853   0.451
59651SOL    HW280728   5.515   7.914   0.330
59652SOL     OW80729   6.160   3.580   8.674
59652SOL    HW180730   6.114   3.623   8.746
59652SOL    HW280731   6.193   3.499   8.713
59653SOL     OW80732   3.775   9.059   2.702
59653SOL    HW180733   3.743   9.036   2.614
59653SOL    HW280734   3.786   9.154   2.698
59654SOL     OW80735   5.835  11.948  12.623
59654SOL    HW180736   5.880  12.008  12.564
59654SOL    HW280737   5.903  11.885  12.649
59655SOL     OW80738  13.470   2.622   2.249
59655SOL    HW180739  13.465   2.571   2.330
59655SOL    HW280740  13.383   2.613   2.210
59656SOL     OW80741   4.003   8.152   1.161
59656SOL    HW180742   3.957   8.216   1.106
59656SOL    HW280743   4.001   8.191   1.249
59657SOL     OW80744  12.265   3.600  13.626
59657SOL    HW180745  12.348   3.603  13.578
59657SOL    HW280746  12.260   3.685  13.671
59658SOL     OW80747  11.693   2.892   0.083
59658SOL    HW180748  11.612   2.914   0.128
59658SOL    HW280749  11.676   2.914  14.873
59659SOL     OW80750  11.469  13.394  12.345
59659SOL    HW180751  11.472  13.393  12.249
59659SOL    HW280752  11.517  13.315  12.371
59660SOL     OW80753   6.393   0.184   2.935
59660SOL    HW180754   6.301   0.193   2.909
59660SOL    HW280755   6.432   0.128   2.867
59661SOL     OW80756  14.026   1.510   1.894
59661SOL    HW180757  14.005   1.434   1.948
59661SOL    HW280758  13.954   1.571   1.911
59662SOL     OW80759   5.025   9.806  12.695
59662SOL    HW180760   4.952   9.779  12.751
59662SOL    HW280761   5.099   9.754  12.727
59663SOL     OW80762  11.599   9.308  11.913
59663SOL    HW180763  11.565   9.336  11.998
59663SOL    HW280764  11.687   9.276  11.932
59664SOL     OW80765   8.976   5.227   2.472
59664SOL    HW180766   8.999   5.153   2.528
59664SOL    HW280767   9.060   5.261   2.441
59665SOL     OW80768  11.135  14.037   2.524
59665SOL    HW180769  11.051  14.044   2.477
59665SOL    HW280770  11.123  13.964   2.584
59666SOL     OW80771   5.754   7.344  12.368
59666SOL    HW180772   5.758   7.249  12.363
59666SOL    HW280773   5.758   7.363  12.461
59667SOL     OW80774   6.268  10.655   1.530
59667SOL    HW180775   6.213  10.731   1.549
59667SOL    HW280776   6.212  10.579   1.547
59668SOL     OW80777   4.249   6.155   4.784
59668SOL    HW180778   4.253   6.060   4.771
59668SOL    HW280779   4.235   6.191   4.696
59669SOL     OW80780   7.542   8.732   1.271
59669SOL    HW180781   7.599   8.743   1.347
59669SOL    HW280782   7.466   8.788   1.291
59670SOL     OW80783  13.975   6.302   3.446
59670SOL    HW180784  13.930   6.291   3.362
59670SOL    HW280785  13.915   6.356   3.499
59671SOL     OW80786   4.756   2.011   9.573
59671SOL    HW180787   4.840   2.054   9.590
59671SOL    HW280788   4.764   1.926   9.616
59672SOL     OW80789  12.885   1.668   6.335
59672SOL    HW180790  12.831   1.629   6.404
59672SOL    HW280791  12.887   1.602   6.265
59673SOL     OW80792   5.978  14.581  11.393
59673SOL    HW180793   5.893  14.586  11.436
59673SOL    HW280794   6.042  14.582  11.464
59674SOL     OW80795   7.403  11.867   2.425
59674SOL    HW180796   7.383  11.953   2.388
59674SOL    HW280797   7.329  11.812   2.400
59675SOL     OW80798   7.271   7.443   0.406
59675SOL    HW180799   7.274   7.354   0.442
59675SOL    HW280800   7.177   7.462   0.397
59676SOL     OW80801  13.980   5.340  10.120
59676SOL    HW180802  13.951   5.259  10.162
59676SOL    HW280803  13.943   5.336  10.032
59677SOL     OW80804   5.267   7.468   8.977
59677SOL    HW180805   5.339   7.416   9.013
59677SOL    HW280806   5.293   7.485   8.886
59678SOL     OW80807   8.834   5.466   5.748
59678SOL    HW180808   8.881   5.540   5.708
59678SOL    HW280809   8.743   5.495   5.751
59679SOL     OW80810   5.657   5.603   8.163
59679SOL    HW180811   5.620   5.690   8.146
59679SOL    HW280812   5.580   5.549   8.180
59680SOL     OW80813   3.350  14.240   1.650
59680SOL    HW180814   3.282  14.219   1.586
59680SOL    HW280815   3.421  14.178   1.630
59681SOL     OW80816   4.574   2.889   6.423
59681SOL    HW180817   4.481   2.904   6.438
59681SOL    HW280818   4.581   2.794   6.409
59682SOL     OW80819  13.219  14.095   9.748
59682SOL    HW180820  13.128  14.098   9.777
59682SOL    HW280821  13.247  14.006   9.766
59683SOL     OW80822  10.954   7.075   1.698
59683SOL    HW180823  10.877   7.018   1.698
59683SOL    HW280824  11.009   7.041   1.768
59684SOL     OW80825   8.179  14.233   1.202
59684SOL    HW180826   8.196  14.144   1.173
59684SOL    HW280827   8.104  14.226   1.260
59685SOL     OW80828  13.447   4.427  12.150
59685SOL    HW180829  13.398   4.444  12.070
59685SOL    HW280830  13.489   4.343  12.135
59686SOL     OW80831   6.008   9.278   1.553
59686SOL    HW180832   6.087   9.327   1.574
59686SOL    HW280833   5.936   9.335   1.583
59687SOL     OW80834  14.548   5.760  11.385
59687SOL    HW180835  14.631   5.719  11.409
59687SOL    HW280836  14.542   5.750  11.290
59688SOL     OW80837  10.783   3.109  12.529
59688SOL    HW180838  10.775   3.151  12.443
59688SOL    HW280839  10.766   3.180  12.591
59689SOL     OW80840   9.000   5.396   4.601
59689SOL    HW180841   9.049   5.331   4.550
59689SOL    HW280842   8.909   5.382   4.577
59690SOL     OW80843  14.111  10.153   5.367
59690SOL    HW180844  14.195  10.187   5.398
59690SOL    HW280845  14.129  10.119   5.280
59691SOL     OW80846  12.785   8.213   5.198
59691SOL    HW180847  12.694   8.189   5.180
59691SOL    HW280848  12.786   8.308   5.194
59692SOL     OW80849   1.030  13.935   0.425
59692SOL    HW180850   0.975  13.964   0.497
59692SOL    HW280851   1.110  13.988   0.433
59693SOL     OW80852   7.071  14.306   8.398
59693SOL    HW180853   7.118  14.330   8.318
59693SOL    HW280854   7.115  14.354   8.468
59694SOL     OW80855   0.633  11.523  12.192
59694SOL    HW180856   0.676  11.440  12.212
59694SOL    HW280857   0.605  11.515  12.101
59695SOL     OW80858   4.625  14.663   2.073
59695SOL    HW180859   4.619  14.668   2.169
59695SOL    HW280860   4.585  14.579   2.051
59696SOL     OW80861   3.140   2.640   8.089
59696SOL    HW180862   3.126   2.732   8.111
59696SOL    HW280863   3.053   2.606   8.069
59697SOL     OW80864  12.500   0.261  11.486
59697SOL    HW180865  12.591   0.230  11.483
59697SOL    HW280866  12.508   0.356  11.489
59698SOL     OW80867   7.041   8.735  13.975
59698SOL    HW180868   6.981   8.672  13.932
59698SOL    HW280869   7.061   8.798  13.906
59699SOL     OW80870  14.759  14.213  14.214
59699SOL    HW180871  14.854  14.206  14.221
59699SOL    HW280872  14.733  14.135  14.165
59700SOL     OW80873   2.139   2.309   8.905
59700SOL    HW180874   2.049   2.333   8.883
59700SOL    HW280875   2.147   2.326   8.999
59701SOL     OW80876  10.727   2.217   5.448
59701SOL    HW180877  10.791   2.251   5.510
59701SOL    HW280878  10.713   2.126   5.474
59702SOL     OW80879   8.711   7.964   9.632
59702SOL    HW180880   8.702   7.869   9.637
59702SOL    HW280881   8.763   7.987   9.709
59703SOL     OW80882   6.952   3.484   2.923
59703SOL    HW180883   6.951   3.414   2.988
59703SOL    HW280884   7.044   3.492   2.897
59704SOL     OW80885  13.879   3.683   3.317
59704SOL    HW180886  13.914   3.726   3.239
59704SOL    HW280887  13.784   3.697   3.312
59705SOL     OW80888   8.217   3.939   1.120
59705SOL    HW180889   8.262   3.870   1.071
59705SOL    HW280890   8.247   4.020   1.080
59706SOL     OW80891   5.686  11.137   1.948
59706SOL    HW180892   5.627  11.062   1.947
59706SOL    HW280893   5.767  11.104   1.910
59707SOL     OW80894  10.710  10.651   8.142
59707SOL    HW180895  10.635  10.658   8.083
59707SOL    HW280896  10.672  10.637   8.229
59708SOL     OW80897  11.079  13.099   6.385
59708SOL    HW180898  11.022  13.138   6.450
59708SOL    HW280899  11.125  13.173   6.345
59709SOL     OW80900  13.361  14.872   8.711
59709SOL    HW180901  13.332   0.058   8.650
59709SOL    HW280902  13.393   0.038   8.788
59710SOL     OW80903  11.625   1.430  12.108
59710SOL    HW180904  11.678   1.361  12.068
59710SOL    HW280905  11.542   1.388  12.129
59711SOL     OW80906   0.033  11.157   7.989
59711SOL    HW180907   0.053  11.102   8.065
59711SOL    HW280908   0.030  11.096   7.916
59712SOL     OW80909  13.159  11.022   4.090
59712SOL    HW180910  13.225  11.021   4.020
59712SOL    HW280911  13.084  11.068   4.052
59713SOL     OW80912   4.308   5.203   9.297
59713SOL    HW180913   4.232   5.228   9.244
59713SOL    HW280914   4.323   5.111   9.274
59714SOL     OW80915  12.050   9.457   4.704
59714SOL    HW180916  12.103   9.530   4.737
59714SOL    HW280917  11.988   9.438   4.775
59715SOL     OW80918   0.037   4.587   7.173
59715SOL    HW180919   0.103   4.604   7.241
59715SOL    HW280920  14.835   4.600   7.218
59716SOL     OW80921   0.828   3.847   7.167
59716SOL    HW180922   0.744   3.821   7.129
59716SOL    HW280923   0.810   3.859   7.260
59717SOL     OW80924   7.848   3.529   8.696
59717SOL    HW180925   7.886   3.463   8.637
59717SOL    HW280926   7.758   3.501   8.709
59718SOL     OW80927   9.215   7.823   8.819
59718SOL    HW180928   9.168   7.785   8.893
59718SOL    HW280929   9.160   7.805   8.743
59719SOL     OW80930   3.335   9.054  10.541
59719SOL    HW180931   3.366   9.009  10.462
59719SOL    HW280932   3.258   9.103  10.511
59720SOL     OW80933   0.962   2.791   4.610
59720SOL    HW180934   0.946   2.778   4.703
59720SOL    HW280935   0.876   2.781   4.569
59721SOL     OW80936   9.287   3.361  14.346
59721SOL    HW180937   9.378   3.387  14.331
59721SOL    HW280938   9.272   3.377  14.439
59722SOL     OW80939  12.662   6.997   0.393
59722SOL    HW180940  12.714   7.077   0.395
59722SOL    HW280941  12.590   7.016   0.332
59723SOL     OW80942   7.832   0.397  14.730
59723SOL    HW180943   7.812   0.451  14.654
59723SOL    HW280944   7.783   0.316  14.714
59724SOL     OW80945   0.017   4.737  10.124
59724SOL    HW180946  14.844   4.795  10.071
59724SOL    HW280947   0.107   4.755  10.095
59725SOL     OW80948   1.662   4.520   8.657
59725SOL    HW180949   1.581   4.471   8.675
59725SOL    HW280950   1.713   4.513   8.737
59726SOL     OW80951  10.906   1.009  14.648
59726SOL    HW180952  10.938   1.004  14.559
59726SOL    HW280953  10.918   0.921  14.684
59727SOL     OW80954   6.599   5.059  13.540
59727SOL    HW180955   6.632   5.146  13.563
59727SOL    HW280956   6.575   5.019  13.624
59728SOL     OW80957   2.258   0.119   4.554
59728SOL    HW180958   2.257   0.137   4.648
59728SOL    HW280959   2.188   0.174   4.518
59729SOL     OW80960   6.427   0.220   0.069
59729SOL    HW180961   6.346   0.208   0.119
59729SOL    HW280962   6.476   0.139   0.083
59730SOL     OW80963   8.031   4.467   4.735
59730SOL    HW180964   8.030   4.530   4.808
59730SOL    HW280965   8.092   4.504   4.672
59731SOL     OW80966   3.266   1.308   9.545
59731SOL    HW180967   3.272   1.389   9.495
59731SOL    HW280968   3.224   1.333   9.627
59732SOL     OW80969  13.727   5.548   0.792
59732SOL    HW180970  13.635   5.554   0.821
59732SOL    HW280971  13.777   5.550   0.873
59733SOL     OW80972  11.806  11.876  10.282
59733SOL    HW180973  11.767  11.845  10.364
59733SOL    HW280974  11.830  11.796  10.235
59734SOL     OW80975   2.143  13.659   1.502
59734SOL    HW180976   2.134  13.754   1.494
59734SOL    HW280977   2.097  13.637   1.583
59735SOL     OW80978   5.342   4.958   6.762
59735SOL    HW180979   5.250   4.953   6.786
59735SOL    HW280980   5.386   4.992   6.840
59736SOL     OW80981  14.808   5.228   2.227
59736SOL    HW180982  14.730   5.205   2.278
59736SOL    HW280983  14.881   5.191   2.276
59737SOL     OW80984  11.621  13.753   2.237
59737SOL    HW180985  11.558  13.761   2.309
59737SOL    HW280986  11.567  13.755   2.158
59738SOL     OW80987  14.218   6.515   8.315
59738SOL    HW180988  14.265   6.487   8.236
59738SOL    HW280989  14.283   6.565   8.364
59739SOL     OW80990   5.086   1.858  10.325
59739SOL    HW180991   5.044   1.943  10.335
59739SOL    HW280992   5.087   1.843  10.230
59740SOL     OW80993   7.351   1.345   0.665
59740SOL    HW180994   7.407   1.421   0.656
59740SOL    HW280995   7.298   1.363   0.743
59741SOL     OW80996   3.716   9.194   1.149
59741SOL    HW180997   3.626   9.170   1.125
59741SOL    HW280998   3.726   9.163   1.239
59742SOL     OW80999   9.869   6.340  12.170
59742SOL    HW181000   9.914   6.403  12.113
59742SOL    HW281001   9.931   6.324  12.241
59743SOL     OW81002  10.330   4.971   2.963
59743SOL    HW181003  10.281   4.889   2.969
59743SOL    HW281004  10.267   5.039   2.985
59744SOL     OW81005   1.451   2.594  11.591
59744SOL    HW181006   1.492   2.668  11.546
59744SOL    HW281007   1.399   2.551  11.523
59745SOL     OW81008   7.986   2.875   7.961
59745SOL    HW181009   7.952   2.815   7.896
59745SOL    HW281010   7.991   2.823   8.042
59746SOL     OW81011   2.913  11.748  10.094
59746SOL    HW181012   2.860  11.689  10.146
59746SOL    HW281013   2.898  11.835  10.132
59747SOL     OW81014   0.231   2.237   5.503
59747SOL    HW181015   0.275   2.228   5.419
59747SOL    HW281016   0.273   2.172   5.560
59748SOL     OW81017   2.257   4.412  11.832
59748SOL    HW181018   2.345   4.437  11.861
59748SOL    HW281019   2.273   4.352  11.759
59749SOL     OW81020  11.356  13.315  10.131
59749SOL    HW181021  11.420  13.360  10.187
59749SOL    HW281022  11.371  13.222  10.149
59750SOL     OW81023  13.509   1.847   2.007
59750SOL    HW181024  13.567   1.873   2.078
59750SOL    HW281025  13.480   1.759   2.031
59751SOL     OW81026   4.747   5.175  12.605
59751SOL    HW181027   4.769   5.129  12.524
59751SOL    HW281028   4.822   5.157  12.663
59752SOL     OW81029   0.895   1.805  12.958
59752SOL    HW181030   0.809   1.805  12.918
59752SOL    HW281031   0.934   1.722  12.931
59753SOL     OW81032   4.624   2.857   2.617
59753SOL    HW181033   4.699   2.834   2.562
59753SOL    HW281034   4.612   2.951   2.603
59754SOL     OW81035  10.767   1.952   2.096
59754SOL    HW181036  10.823   1.942   2.020
59754SOL    HW281037  10.816   1.912   2.168
59755SOL     OW81038  12.360   3.148  13.548
59755SOL    HW181039  12.313   3.212  13.494
59755SOL    HW281040  12.376   3.075  13.489
59756SOL     OW81041   1.491  14.368   3.267
59756SOL    HW181042   1.511  14.408   3.352
59756SOL    HW281043   1.403  14.332   3.277
59757SOL     OW81044  13.165  14.572   3.174
59757SOL    HW181045  13.254  14.555   3.146
59757SOL    HW281046  13.173  14.634   3.247
59758SOL     OW81047  13.319   0.390  12.076
59758SOL    HW181048  13.251   0.417  12.138
59758SOL    HW281049  13.280   0.318  12.026
59759SOL     OW81050   6.442  14.014  11.372
59759SOL    HW181051   6.366  13.962  11.399
59759SOL    HW281052   6.448  14.001  11.277
59760SOL     OW81053   8.831   8.133   6.486
59760SOL    HW181054   8.889   8.115   6.412
59760SOL    HW281055   8.817   8.048   6.527
59761SOL     OW81056   8.257  14.830   0.333
59761SOL    HW181057   8.299  14.767   0.391
59761SOL    HW281058   8.188  14.780   0.289
59762SOL     OW81059   1.444  14.140  13.242
59762SOL    HW181060   1.406  14.213  13.291
59762SOL    HW281061   1.493  14.181  13.171
59763SOL     OW81062   3.707   4.689  10.872
59763SOL    HW181063   3.725   4.730  10.787
59763SOL    HW281064   3.612   4.683  10.876
59764SOL     OW81065   2.072   9.520   0.892
59764SOL    HW181066   2.081   9.499   0.799
59764SOL    HW281067   2.127   9.456   0.937
59765SOL     OW81068   6.181   4.203   8.099
59765SOL    HW181069   6.206   4.180   8.188
59765SOL    HW281070   6.189   4.299   8.096
59766SOL     OW81071   6.355   7.578  10.440
59766SOL    HW181072   6.299   7.539  10.507
59766SOL    HW281073   6.443   7.547  10.461
59767SOL     OW81074   2.725   2.444  13.555
59767SOL    HW181075   2.637   2.411  13.539
59767SOL    HW281076   2.783   2.385  13.507
59768SOL     OW81077  11.882  10.283  11.207
59768SOL    HW181078  11.956  10.226  11.190
59768SOL    HW281079  11.822  10.268  11.134
59769SOL     OW81080   9.673   1.332  13.900
59769SOL    HW181081   9.611   1.266  13.870
59769SOL    HW281082   9.645   1.353  13.990
59770SOL     OW81083   1.135   0.541   3.154
59770SOL    HW181084   1.130   0.447   3.138
59770SOL    HW281085   1.229   0.559   3.161
59771SOL     OW81086   8.000  12.637   0.231
59771SOL    HW181087   8.053  12.692   0.290
59771SOL    HW281088   7.990  12.689   0.152
59772SOL     OW81089   3.713   9.797   3.893
59772SOL    HW181090   3.678   9.872   3.845
59772SOL    HW281091   3.793   9.773   3.846
59773SOL     OW81092  13.023  14.002  13.531
59773SOL    HW181093  13.026  13.923  13.476
59773SOL    HW281094  12.937  14.039  13.515
59774SOL     OW81095   6.478   5.628  12.854
59774SOL    HW181096   6.494   5.708  12.905
59774SOL    HW281097   6.399   5.591  12.893
59775SOL     OW81098   0.261   0.660   4.741
59775SOL    HW181099   0.205   0.582   4.743
59775SOL    HW281100   0.308   0.657   4.825
59776SOL     OW81101  14.332   9.428   0.361
59776SOL    HW181102  14.299   9.458   0.277
59776SOL    HW281103  14.287   9.484   0.426
59777SOL     OW81104  13.671  14.665   2.874
59777SOL    HW181105  13.639  14.600   2.811
59777SOL    HW281106  13.762  14.639   2.889
59778SOL     OW81107   2.077   7.859   5.928
59778SOL    HW181108   2.115   7.803   5.860
59778SOL    HW281109   1.983   7.854   5.914
59779SOL     OW81110   7.267   2.474   2.992
59779SOL    HW181111   7.285   2.404   2.929
59779SOL    HW281112   7.187   2.514   2.960
59780SOL     OW81113  12.582   8.607   3.405
59780SOL    HW181114  12.620   8.583   3.321
59780SOL    HW281115  12.539   8.526   3.436
59781SOL     OW81116  12.330  10.507   1.882
59781SOL    HW181117  12.398  10.477   1.822
59781SOL    HW281118  12.282  10.428   1.905
59782SOL     OW81119  11.853  11.943  13.429
59782SOL    HW181120  11.850  11.874  13.494
59782SOL    HW281121  11.919  11.914  13.366
59783SOL     OW81122   6.309   2.148  11.322
59783SOL    HW181123   6.399   2.117  11.336
59783SOL    HW281124   6.320   2.236  11.286
59784SOL     OW81125  13.250   7.087   4.743
59784SOL    HW181126  13.200   7.097   4.824
59784SOL    HW281127  13.299   7.169   4.734
59785SOL     OW81128  13.560   2.902   1.654
59785SOL    HW181129  13.478   2.934   1.692
59785SOL    HW281130  13.552   2.807   1.656
59786SOL     OW81131   6.403   3.089   9.606
59786SOL    HW181132   6.383   2.996   9.591
59786SOL    HW281133   6.335   3.120   9.665
59787SOL     OW81134   7.541  12.754   7.107
59787SOL    HW181135   7.484  12.739   7.032
59787SOL    HW281136   7.486  12.733   7.183
59788SOL     OW81137   7.849  14.653   3.752
59788SOL    HW181138   7.792  14.727   3.735
59788SOL    HW281139   7.869  14.618   3.665
59789SOL     OW81140   3.766   0.842   9.355
59789SOL    HW181141   3.685   0.791   9.359
59789SOL    HW281142   3.737   0.933   9.366
59790SOL     OW81143   6.317   6.344   2.264
59790SOL    HW181144   6.265   6.341   2.343
59790SOL    HW281145   6.324   6.252   2.236
59791SOL     OW81146   3.927   4.107  12.883
59791SOL    HW181147   4.016   4.080  12.860
59791SOL    HW281148   3.922   4.093  12.978
59792SOL     OW81149  12.489   7.473   2.482
59792SOL    HW181150  12.519   7.564   2.485
59792SOL    HW281151  12.400   7.475   2.517
59793SOL     OW81152   3.085   1.609  13.794
59793SOL    HW181153   2.989   1.609  13.800
59793SOL    HW281154   3.105   1.683  13.737
59794SOL     OW81155   0.649   6.016  11.026
59794SOL    HW181156   0.736   6.033  11.060
59794SOL    HW281157   0.662   6.002  10.932
59795SOL     OW81158   7.455   4.634   5.827
59795SOL    HW181159   7.441   4.553   5.876
59795SOL    HW281160   7.378   4.688   5.848
59796SOL     OW81161   9.524   6.404  11.986
59796SOL    HW181162   9.468   6.416  11.909
59796SOL    HW281163   9.604   6.363  11.951
59797SOL     OW81164   2.999   7.339   2.306
59797SOL    HW181165   3.065   7.271   2.289
59797SOL    HW281166   3.050   7.416   2.330
59798SOL     OW81167   9.878   3.435   5.465
59798SOL    HW181168   9.924   3.351   5.463
59798SOL    HW281169   9.826   3.436   5.384
59799SOL     OW81170   1.468   8.279   7.808
59799SOL    HW181171   1.424   8.210   7.758
59799SOL    HW281172   1.410   8.355   7.801
59800SOL     OW81173   5.114  11.447   8.610
59800SOL    HW181174   5.178  11.407   8.552
59800SOL    HW281175   5.061  11.374   8.643
59801SOL     OW81176  10.025   1.919   6.113
59801SOL    HW181177  10.023   1.859   6.038
59801SOL    HW281178  10.070   1.997   6.080
59802SOL     OW81179   3.394   2.857   0.648
59802SOL    HW181180   3.328   2.832   0.583
59802SOL    HW281181   3.406   2.779   0.701
59803SOL     OW81182   2.923   7.409   5.394
59803SOL    HW181183   3.009   7.423   5.433
59803SOL    HW281184   2.928   7.451   5.308
59804SOL     OW81185  11.225   7.384   5.692
59804SOL    HW181186  11.228   7.400   5.786
59804SOL    HW281187  11.306   7.424   5.659
59805SOL     OW81188  14.586   3.422   5.518
59805SOL    HW181189  14.621   3.382   5.438
59805SOL    HW281190  14.526   3.489   5.488
59806SOL     OW81191  13.357   4.508   2.807
59806SOL    HW181192  13.320   4.520   2.720
59806SOL    HW281193  13.323   4.581   2.858
59807SOL     OW81194   9.768   6.137   6.757
59807SOL    HW181195   9.676   6.130   6.781
59807SOL    HW281196   9.783   6.231   6.746
59808SOL     OW81197   1.589   6.628   9.540
59808SOL    HW181198   1.554   6.572   9.471
59808SOL    HW281199   1.535   6.610   9.616
59809SOL     OW81200   3.279  10.483   8.289
59809SOL    HW181201   3.296  10.463   8.381
59809SOL    HW281202   3.188  10.512   8.287
59810SOL     OW81203   7.549   0.046   9.726
59810SOL    HW181204   7.621   0.086   9.678
59810SOL    HW281205   7.526  14.849   9.675
59811SOL     OW81206   9.075   8.255  12.530
59811SOL    HW181207   9.016   8.216  12.465
59811SOL    HW281208   9.022   8.322  12.572
59812SOL     OW81209   5.069   1.235  12.032
59812SOL    HW181210   5.157   1.254  12.000
59812SOL    HW281211   5.011   1.268  11.964
59813SOL     OW81212  11.232   3.551  10.151
59813SOL    HW181213  11.220   3.485  10.083
59813SOL    HW281214  11.147   3.555  10.195
59814SOL     OW81215  13.404   9.420  14.858
59814SOL    HW181216  13.400   9.507  14.817
59814SOL    HW281217  13.344   9.426   0.051
59815SOL     OW81218   6.607   1.015   0.994
59815SOL    HW181219   6.586   0.937   0.942
59815SOL    HW281220   6.591   1.088   0.934
59816SOL     OW81221   3.511   5.423   4.854
59816SOL    HW181222   3.546   5.492   4.797
59816SOL    HW281223   3.421   5.412   4.826
59817SOL     OW81224   8.836  12.222   3.744
59817SOL    HW181225   8.884  12.224   3.827
59817SOL    HW281226   8.832  12.314   3.717
59818SOL     OW81227   0.943   5.022   5.292
59818SOL    HW181228   0.875   4.960   5.317
59818SOL    HW281229   0.898   5.107   5.288
59819SOL     OW81230   9.201   3.703  11.478
59819SOL    HW181231   9.144   3.778  11.464
59819SOL    HW281232   9.148   3.639  11.525
59820SOL     OW81233   4.213   3.253  10.523
59820SOL    HW181234   4.260   3.296  10.452
59820SOL    HW281235   4.247   3.163  10.524
59821SOL     OW81236   1.976   6.336   0.831
59821SOL    HW181237   1.891   6.309   0.866
59821SOL    HW281238   1.980   6.430   0.848
59822SOL     OW81239   7.255   8.179  10.002
59822SOL    HW181240   7.263   8.091  10.038
59822SOL    HW281241   7.173   8.213  10.039
59823SOL     OW81242   7.262   4.467  13.170
59823SOL    HW181243   7.261   4.562  13.156
59823SOL    HW281244   7.182   4.449  13.218
59824SOL     OW81245   1.491   6.340   8.936
59824SOL    HW181246   1.558   6.289   8.981
59824SOL    HW281247   1.411   6.287   8.943
59825SOL     OW81248   1.361   8.472   8.096
59825SOL    HW181249   1.385   8.381   8.080
59825SOL    HW281250   1.281   8.468   8.148
59826SOL     OW81251  13.172   9.488   8.465
59826SOL    HW181252  13.078   9.501   8.465
59826SOL    HW281253  13.184   9.403   8.507
59827SOL     OW81254   0.637   8.477  11.924
59827SOL    HW181255   0.727   8.459  11.896
59827SOL    HW281256   0.637   8.458  12.018
59828SOL     OW81257   4.831  12.567   6.999
59828SOL    HW181258   4.870  12.483   6.974
59828SOL    HW281259   4.769  12.586   6.930
59829SOL     OW81260   1.719   9.967   4.811
59829SOL    HW181261   1.659   9.962   4.885
59829SOL    HW281262   1.755  10.056   4.815
59830SOL     OW81263   5.422  10.864  10.700
59830SOL    HW181264   5.375  10.915  10.765
59830SOL    HW281265   5.511  10.856  10.735
59831SOL     OW81266  14.849   5.940   8.160
59831SOL    HW181267  14.856   5.940   8.064
59831SOL    HW281268   0.050   5.900   8.190
59832SOL     OW81269   2.954   6.971   0.373
59832SOL    HW181270   2.977   7.008   0.458
59832SOL    HW281271   2.868   6.932   0.387
59833SOL     OW81272  12.927  10.460   3.695
59833SOL    HW181273  12.973  10.544   3.692
59833SOL    HW281274  12.979  10.407   3.756
59834SOL     OW81275   8.420   1.891   4.941
59834SOL    HW181276   8.480   1.917   4.872
59834SOL    HW281277   8.455   1.809   4.975
59835SOL     OW81278   3.214   9.515   1.545
59835SOL    HW181279   3.207   9.515   1.449
59835SOL    HW281280   3.308   9.522   1.562
59836SOL     OW81281   5.275   0.838  13.062
59836SOL    HW181282   5.302   0.892  13.136
59836SOL    HW281283   5.209   0.778  13.098
59837SOL     OW81284   5.495   2.036   7.486
59837SOL    HW181285   5.473   2.002   7.400
59837SOL    HW281286   5.558   2.106   7.469
59838SOL     OW81287  11.439   9.348  14.648
59838SOL    HW181288  11.441   9.401  14.727
59838SOL    HW281289  11.414   9.260  14.677
59839SOL     OW81290   7.291   1.464   4.312
59839SOL    HW181291   7.206   1.468   4.355
59839SOL    HW281292   7.355   1.467   4.383
59840SOL     OW81293  14.768  12.814   7.960
59840SOL    HW181294  14.750  12.840   7.869
59840SOL    HW281295  14.791  12.722   7.955
59841SOL     OW81296   3.720  11.700   2.936
59841SOL    HW181297   3.660  11.719   2.864
59841SOL    HW281298   3.805  11.687   2.895
59842SOL     OW81299   7.619  13.804   2.461
59842SOL    HW181300   7.696  13.755   2.432
59842SOL    HW281301   7.608  13.872   2.394
59843SOL     OW81302  14.148   0.529  11.371
59843SOL    HW181303  14.074   0.536  11.310
59843SOL    HW281304  14.224   0.558  11.321
59844SOL     OW81305   5.355  13.160  14.427
59844SOL    HW181306   5.326  13.070  14.408
59844SOL    HW281307   5.325  13.177  14.516
59845SOL     OW81308   2.244   7.510  12.376
59845SOL    HW181309   2.254   7.598  12.414
59845SOL    HW281310   2.331   7.490  12.341
59846SOL     OW81311   7.190   2.711  13.927
59846SOL    HW181312   7.108   2.690  13.882
59846SOL    HW281313   7.231   2.777  13.871
59847SOL     OW81314  11.909   7.146  11.939
59847SOL    HW181315  11.842   7.158  11.871
59847SOL    HW281316  11.886   7.062  11.980
59848SOL     OW81317   5.697   1.487  13.228
59848SOL    HW181318   5.708   1.465  13.135
59848SOL    HW281319   5.650   1.411  13.265
59849SOL     OW81320  13.230   2.266   6.835
59849SOL    HW181321  13.225   2.354   6.872
59849SOL    HW281322  13.295   2.273   6.765
59850SOL     OW81323   8.205   2.645   2.084
59850SOL    HW181324   8.209   2.651   1.989
59850SOL    HW281325   8.276   2.584   2.107
59851SOL     OW81326   2.434   4.331   3.500
59851SOL    HW181327   2.449   4.309   3.592
59851SOL    HW281328   2.394   4.252   3.464
59852SOL     OW81329   5.602   8.484   3.183
59852SOL    HW181330   5.610   8.390   3.165
59852SOL    HW281331   5.610   8.525   3.097
59853SOL     OW81332   3.760  12.388   2.394
59853SOL    HW181333   3.671  12.359   2.377
59853SOL    HW281334   3.798  12.319   2.449
59854SOL     OW81335   2.217   0.593  11.585
59854SOL    HW181336   2.222   0.602  11.490
59854SOL    HW281337   2.126   0.613  11.606
59855SOL     OW81338  11.672   2.210  12.136
59855SOL    HW181339  11.611   2.180  12.068
59855SOL    HW281340  11.726   2.134  12.155
59856SOL     OW81341   6.412   0.944  13.367
59856SOL    HW181342   6.466   1.016  13.401
59856SOL    HW281343   6.322   0.978  13.372
59857SOL     OW81344   1.594  10.345   8.207
59857SOL    HW181345   1.590  10.440   8.222
59857SOL    HW281346   1.527  10.309   8.266
59858SOL     OW81347   7.169  10.755   0.917
59858SOL    HW181348   7.167  10.660   0.904
59858SOL    HW281349   7.184  10.791   0.829
59859SOL     OW81350   7.013   3.375   4.059
59859SOL    HW181351   6.949   3.367   4.129
59859SOL    HW281352   7.013   3.468   4.037
59860SOL     OW81353  12.373   8.320   6.555
59860SOL    HW181354  12.315   8.304   6.629
59860SOL    HW281355  12.460   8.329   6.594
59861SOL     OW81356   7.467  14.203   2.037
59861SOL    HW181357   7.516  14.195   2.118
59861SOL    HW281358   7.522  14.256   1.980
59862SOL     OW81359   8.265  13.090  13.517
59862SOL    HW181360   8.213  13.017  13.550
59862SOL    HW281361   8.202  13.160  13.501
59863SOL     OW81362   9.157   0.976  12.433
59863SOL    HW181363   9.176   1.007  12.521
59863SOL    HW281364   9.119   0.889  12.446
59864SOL     OW81365   9.435  13.701  10.991
59864SOL    HW181366   9.404  13.612  11.008
59864SOL    HW281367   9.362  13.757  11.016
59865SOL     OW81368  13.885  14.358   3.530
59865SOL    HW181369  13.957  14.363   3.593
59865SOL    HW281370  13.929  14.358   3.445
59866SOL     OW81371  10.548  12.724   5.606
59866SOL    HW181372  10.552  12.814   5.573
59866SOL    HW281373  10.607  12.675   5.548
59867SOL     OW81374  11.777  13.790   4.224
59867SOL    HW181375  11.746  13.740   4.298
59867SOL    HW281376  11.712  13.859   4.212
59868SOL     OW81377   0.548   3.819  11.320
59868SOL    HW181378   0.578   3.904  11.353
59868SOL    HW281379   0.476   3.795  11.378
59869SOL     OW81380   6.937   6.206   7.975
59869SOL    HW181381   6.987   6.238   8.050
59869SOL    HW281382   6.862   6.265   7.968
59870SOL     OW81383  14.680   1.373   7.805
59870SOL    HW181384  14.590   1.340   7.796
59870SOL    HW281385  14.707   1.345   7.892
59871SOL     OW81386   0.907   1.000  12.357
59871SOL    HW181387   0.856   1.051  12.419
59871SOL    HW281388   0.853   0.923  12.339
59872SOL     OW81389   0.885  14.289  11.207
59872SOL    HW181390   0.906  14.255  11.294
59872SOL    HW281391   0.969  14.293  11.162
59873SOL     OW81392  14.354   7.453  10.751
59873SOL    HW181393  14.442   7.489  10.756
59873SOL    HW281394  14.314   7.476  10.836
59874SOL     OW81395  14.511   0.676  14.440
59874SOL    HW181396  14.551   0.756  14.476
59874SOL    HW281397  14.492   0.622  14.516
59875SOL     OW81398   0.300  13.262   6.463
59875SOL    HW181399   0.346  13.239   6.544
59875SOL    HW281400   0.256  13.181   6.437
59876SOL     OW81401  11.216  13.712   1.149
59876SOL    HW181402  11.127  13.721   1.115
59876SOL    HW281403  11.268  13.771   1.094
59877SOL     OW81404   6.114  12.259   6.264
59877SOL    HW181405   6.194  12.264   6.316
59877SOL    HW281406   6.106  12.346   6.224
59878SOL     OW81407   0.097   8.623   9.410
59878SOL    HW181408   0.114   8.610   9.503
59878SOL    HW281409   0.176   8.666   9.376
59879SOL     OW81410   2.876  12.304  13.655
59879SOL    HW181411   2.963  12.303  13.613
59879SOL    HW281412   2.844  12.393  13.639
59880SOL     OW81413   5.038   9.277   7.243
59880SOL    HW181414   4.961   9.224   7.222
59880SOL    HW281415   5.002   9.363   7.265
59881SOL     OW81416   1.852   7.607  11.813
59881SOL    HW181417   1.804   7.675  11.860
59881SOL    HW281418   1.787   7.568  11.754
59882SOL     OW81419  12.983   4.192   7.914
59882SOL    HW181420  12.932   4.120   7.950
59882SOL    HW281421  13.035   4.152   7.844
59883SOL     OW81422   8.288   1.698  14.832
59883SOL    HW181423   8.291   1.663  14.743
59883SOL    HW281424   8.195   1.716  14.846
59884SOL     OW81425  13.306   0.784  10.224
59884SOL    HW181426  13.236   0.844  10.196
59884SOL    HW281427  13.269   0.737  10.298
59885SOL     OW81428   5.302   3.167  10.187
59885SOL    HW181429   5.278   3.122  10.268
59885SOL    HW281430   5.350   3.102  10.136
59886SOL     OW81431   1.028  12.422  12.138
59886SOL    HW181432   1.016  12.463  12.053
59886SOL    HW281433   1.080  12.485  12.188
59887SOL     OW81434   5.046  12.983   5.939
59887SOL    HW181435   5.038  13.066   5.986
59887SOL    HW281436   5.000  12.920   5.994
59888SOL     OW81437  12.464   1.075   9.665
59888SOL    HW181438  12.469   1.167   9.641
59888SOL    HW281439  12.553   1.042   9.654
59889SOL     OW81440  10.369   4.829  10.631
59889SOL    HW181441  10.302   4.888  10.664
59889SOL    HW281442  10.411   4.878  10.560
59890SOL     OW81443   1.971  10.760   5.857
59890SOL    HW181444   1.892  10.799   5.893
59890SOL    HW281445   1.953  10.666   5.858
59891SOL     OW81446   7.756   7.858   1.648
59891SOL    HW181447   7.719   7.883   1.563
59891SOL    HW281448   7.716   7.920   1.710
59892SOL     OW81449   7.334   4.252  11.433
59892SOL    HW181450   7.361   4.329  11.483
59892SOL    HW281451   7.260   4.217  11.482
59893SOL     OW81452   5.012  12.685   5.174
59893SOL    HW181453   4.948  12.631   5.221
59893SOL    HW281454   5.075  12.623   5.139
59894SOL     OW81455   2.043   1.854   0.428
59894SOL    HW181456   1.960   1.902   0.423
59894SOL    HW281457   2.110   1.921   0.414
59895SOL     OW81458  14.628   0.996   6.835
59895SOL    HW181459  14.580   0.937   6.777
59895SOL    HW281460  14.566   1.067   6.854
59896SOL     OW81461   6.608   7.728   4.089
59896SOL    HW181462   6.599   7.661   4.022
59896SOL    HW281463   6.621   7.809   4.040
59897SOL     OW81464   7.203   2.511   9.741
59897SOL    HW181465   7.196   2.603   9.715
59897SOL    HW281466   7.254   2.470   9.672
59898SOL     OW81467  13.208   1.787   1.174
59898SOL    HW181468  13.128   1.738   1.195
59898SOL    HW281469  13.224   1.840   1.252
59899SOL     OW81470   3.719   5.278  10.219
59899SOL    HW181471   3.804   5.293  10.178
59899SOL    HW281472   3.694   5.190  10.191
59900SOL     OW81473   4.083   0.680   3.944
59900SOL    HW181474   4.022   0.624   3.992
59900SOL    HW281475   4.044   0.690   3.857
59901SOL     OW81476   3.744   4.216   6.625
59901SOL    HW181477   3.761   4.122   6.629
59901SOL    HW281478   3.742   4.236   6.532
59902SOL     OW81479  14.293   3.903   4.641
59902SOL    HW181480  14.340   3.978   4.678
59902SOL    HW281481  14.355   3.864   4.580
59903SOL     OW81482   6.846   2.339   3.031
59903SOL    HW181483   6.842   2.244   3.047
59903SOL    HW281484   6.831   2.348   2.937
59904SOL     OW81485   9.229   5.177   9.905
59904SOL    HW181486   9.189   5.097   9.940
59904SOL    HW281487   9.162   5.214   9.848
59905SOL     OW81488   4.140   4.450   3.559
59905SOL    HW181489   4.108   4.539   3.575
59905SOL    HW281490   4.065   4.404   3.521
59906SOL     OW81491   5.253   2.245   7.837
59906SOL    HW181492   5.284   2.181   7.773
59906SOL    HW281493   5.259   2.329   7.791
59907SOL     OW81494  10.459  10.521  11.274
59907SOL    HW181495  10.450  10.521  11.369
59907SOL    HW281496  10.447  10.430  11.248
59908SOL     OW81497   6.916   4.375  13.970
59908SOL    HW181498   6.913   4.454  14.025
59908SOL    HW281499   6.930   4.408  13.882
59909SOL     OW81500   6.188   7.089   4.798
59909SOL    HW181501   6.215   7.061   4.885
59909SOL    HW281502   6.191   7.185   4.802
59910SOL     OW81503   0.863  11.694   4.097
59910SOL    HW181504   0.903  11.748   4.165
59910SOL    HW281505   0.823  11.621   4.144
59911SOL     OW81506   8.172   9.000   8.415
59911SOL    HW181507   8.167   9.094   8.433
59911SOL    HW281508   8.264   8.978   8.430
59912SOL     OW81509   6.653   0.485   0.392
59912SOL    HW181510   6.689   0.508   0.478
59912SOL    HW281511   6.574   0.435   0.412
59913SOL     OW81512  11.445   3.883   7.572
59913SOL    HW181513  11.513   3.930   7.619
59913SOL    HW281514  11.398   3.952   7.523
59914SOL     OW81515   4.571   6.883   9.842
59914SOL    HW181516   4.585   6.857   9.751
59914SOL    HW281517   4.641   6.839   9.891
59915SOL     OW81518   2.700   7.148   3.409
59915SOL    HW181519   2.740   7.187   3.332
59915SOL    HW281520   2.630   7.209   3.433
59916SOL     OW81521  12.719   9.372  14.880
59916SOL    HW181522  12.706   9.452   0.050
59916SOL    HW281523  12.659   9.309   0.037
59917SOL     OW81524   3.972   4.909   7.619
59917SOL    HW181525   3.960   4.818   7.649
59917SOL    HW281526   3.967   4.904   7.524
59918SOL     OW81527   6.144  13.823   1.207
59918SOL    HW181528   6.165  13.740   1.249
59918SOL    HW281529   6.138  13.803   1.114
59919SOL     OW81530   7.813   7.839  14.062
59919SOL    HW181531   7.726   7.867  14.089
59919SOL    HW281532   7.837   7.900  13.992
59920SOL     OW81533  11.974   2.992   6.045
59920SOL    HW181534  12.023   3.016   5.966
59920SOL    HW281535  11.961   3.074   6.092
59921SOL     OW81536   8.296   4.436  10.232
59921SOL    HW181537   8.233   4.419  10.302
59921SOL    HW281538   8.242   4.458  10.156
59922SOL     OW81539   5.532  12.215  12.135
59922SOL    HW181540   5.465  12.156  12.100
59922SOL    HW281541   5.583  12.161  12.195
59923SOL     OW81542   4.092   4.793   0.211
59923SOL    HW181543   4.162   4.789   0.277
59923SOL    HW281544   4.057   4.881   0.219
59924SOL     OW81545  11.109  13.709  12.838
59924SOL    HW181546  11.126  13.641  12.903
59924SOL    HW281547  11.135  13.669  12.755
59925SOL     OW81548  13.069   9.539  12.611
59925SOL    HW181549  13.108   9.611  12.562
59925SOL    HW281550  13.074   9.464  12.552
59926SOL     OW81551  13.256  12.892   2.779
59926SOL    HW181552  13.193  12.948   2.733
59926SOL    HW281553  13.341  12.932   2.762
59927SOL     OW81554   4.084  13.410   6.324
59927SOL    HW181555   4.078  13.416   6.419
59927SOL    HW281556   4.178  13.403   6.307
59928SOL     OW81557   7.553   9.059  13.723
59928SOL    HW181558   7.622   9.118  13.754
59928SOL    HW281559   7.589   9.020  13.644
59929SOL     OW81560  14.232  12.540   3.687
59929SOL    HW181561  14.152  12.490   3.672
59929SOL    HW281562  14.253  12.524   3.780
59930SOL     OW81563   8.954  10.514   3.453
59930SOL    HW181564   8.997  10.440   3.410
59930SOL    HW281565   8.967  10.498   3.546
59931SOL     OW81566   3.485  12.667   1.799
59931SOL    HW181567   3.436  12.687   1.879
59931SOL    HW281568   3.498  12.573   1.802
59932SOL     OW81569   1.844  10.115  10.507
59932SOL    HW181570   1.891  10.043  10.464
59932SOL    HW281571   1.788  10.071  10.571
59933SOL     OW81572   1.110  11.938   7.150
59933SOL    HW181573   1.185  11.997   7.157
59933SOL    HW281574   1.053  11.981   7.086
59934SOL     OW81575   0.192   5.665  11.360
59934SOL    HW181576   0.109   5.656  11.312
59934SOL    HW281577   0.253   5.609  11.312
59935SOL     OW81578  10.086   9.253  14.404
59935SOL    HW181579  10.012   9.290  14.452
59935SOL    HW281580  10.052   9.172  14.366
59936SOL     OW81581  11.258   5.366  13.716
59936SOL    HW181582  11.270   5.411  13.632
59936SOL    HW281583  11.175   5.399  13.749
59937SOL     OW81584  13.659   4.621   0.913
59937SOL    HW181585  13.694   4.636   0.825
59937SOL    HW281586  13.678   4.702   0.961
59938SOL     OW81587   5.223  13.197   8.432
59938SOL    HW181588   5.269  13.159   8.357
59938SOL    HW281589   5.277  13.173   8.507
59939SOL     OW81590  10.798   0.040  12.289
59939SOL    HW181591  10.720   0.096  12.294
59939SOL    HW281592  10.842   0.067  12.208
59940SOL     OW81593   8.132  12.245   9.291
59940SOL    HW181594   8.097  12.244   9.202
59940SOL    HW281595   8.152  12.154   9.311
59941SOL     OW81596   8.481   7.628   6.725
59941SOL    HW181597   8.515   7.542   6.750
59941SOL    HW281598   8.482   7.679   6.806
59942SOL     OW81599   7.100   1.439   5.677
59942SOL    HW181600   7.024   1.384   5.696
59942SOL    HW281601   7.070   1.528   5.693
59943SOL     OW81602   4.160  13.955   2.595
59943SOL    HW181603   4.223  14.010   2.549
59943SOL    HW281604   4.123  13.898   2.528
59944SOL     OW81605   7.929   5.281   9.884
59944SOL    HW181606   7.943   5.231   9.803
59944SOL    HW281607   8.007   5.335   9.892
59945SOL     OW81608  14.506  13.008   2.022
59945SOL    HW181609  14.542  12.999   1.934
59945SOL    HW281610  14.561  12.951   2.076
59946SOL     OW81611  13.601  10.765   0.145
59946SOL    HW181612  13.507  10.770   0.130
59946SOL    HW281613  13.629  10.855   0.156
59947SOL     OW81614   8.414  12.304   3.708
59947SOL    HW181615   8.392  12.222   3.663
59947SOL    HW281616   8.382  12.291   3.798
59948SOL     OW81617  13.749   2.519   2.842
59948SOL    HW181618  13.668   2.570   2.834
59948SOL    HW281619  13.745   2.455   2.771
59949SOL     OW81620   5.585   1.807   3.599
59949SOL    HW181621   5.539   1.842   3.675
59949SOL    HW281622   5.568   1.713   3.603
59950SOL     OW81623   6.408  11.414   9.796
59950SOL    HW181624   6.434  11.421   9.888
59950SOL    HW281625   6.408  11.504   9.764
59951SOL     OW81626  13.762   8.772   9.936
59951SOL    HW181627  13.701   8.726   9.880
59951SOL    HW281628  13.764   8.861   9.902
59952SOL     OW81629   3.657  10.721   5.711
59952SOL    HW181630   3.659  10.816   5.703
59952SOL    HW281631   3.722  10.690   5.647
59953SOL     OW81632   8.154   2.959   8.189
59953SOL    HW181633   8.095   2.979   8.116
59953SOL    HW281634   8.242   2.969   8.152
59954SOL     OW81635   8.136   5.217   2.527
59954SOL    HW181636   8.056   5.268   2.535
59954SOL    HW281637   8.130   5.176   2.441
59955SOL     OW81638   4.658   2.170   8.606
59955SOL    HW181639   4.636   2.242   8.547
59955SOL    HW281640   4.717   2.115   8.555
59956SOL     OW81641   6.695   2.031   4.506
59956SOL    HW181642   6.611   1.984   4.516
59956SOL    HW281643   6.758   1.976   4.551
59957SOL     OW81644   0.546   2.619  13.031
59957SOL    HW181645   0.483   2.565  13.078
59957SOL    HW281646   0.505   2.634  12.945
59958SOL     OW81647  12.908  14.338  12.726
59958SOL    HW181648  12.841  14.270  12.733
59958SOL    HW281649  12.959  14.329  12.806
59959SOL     OW81650   4.059   2.015   8.712
59959SOL    HW181651   4.041   2.098   8.756
59959SOL    HW281652   4.106   2.041   8.632
59960SOL     OW81653   6.093   3.515   9.053
59960SOL    HW181654   6.062   3.476   8.972
59960SOL    HW281655   6.073   3.609   9.044
59961SOL     OW81656   1.478   5.068  12.130
59961SOL    HW181657   1.480   4.984  12.176
59961SOL    HW281658   1.401   5.113  12.165
59962SOL     OW81659   0.400  10.708   7.494
59962SOL    HW181660   0.311  10.739   7.480
59962SOL    HW281661   0.447  10.784   7.530
59963SOL     OW81662   2.356   8.799   5.253
59963SOL    HW181663   2.355   8.803   5.348
59963SOL    HW281664   2.303   8.722   5.231
59964SOL     OW81665   2.071  10.920  11.292
59964SOL    HW181666   2.066  10.826  11.310
59964SOL    HW281667   2.023  10.930  11.210
59965SOL     OW81668  13.296  13.212   2.911
59965SOL    HW181669  13.363  13.154   2.875
59965SOL    HW281670  13.340  13.260   2.981
59966SOL     OW81671  13.048   9.341  11.499
59966SOL    HW181672  13.082   9.370  11.584
59966SOL    HW281673  13.080   9.407  11.437
59967SOL     OW81674  11.124  11.424   4.367
59967SOL    HW181675  11.178  11.357   4.411
59967SOL    HW281676  11.161  11.430   4.279
59968SOL     OW81677   7.301   9.569   0.471
59968SOL    HW181678   7.207   9.564   0.489
59968SOL    HW281679   7.328   9.477   0.463
59969SOL     OW81680  12.183   2.342   0.769
59969SOL    HW181681  12.219   2.329   0.681
59969SOL    HW281682  12.210   2.265   0.818
59970SOL     OW81683   5.820   7.471  12.002
59970SOL    HW181684   5.863   7.397  11.960
59970SOL    HW281685   5.867   7.548  11.969
59971SOL     OW81686  14.665   7.984  13.960
59971SOL    HW181687  14.755   8.011  13.944
59971SOL    HW281688  14.611   8.049  13.915
59972SOL     OW81689   1.141   0.679   9.689
59972SOL    HW181690   1.098   0.765   9.692
59972SOL    HW281691   1.161   0.667   9.596
59973SOL     OW81692  10.482   9.050   1.795
59973SOL    HW181693  10.427   9.024   1.722
59973SOL    HW281694  10.505   9.142   1.777
59974SOL     OW81695  11.541  14.441   1.742
59974SOL    HW181696  11.475  14.457   1.809
59974SOL    HW281697  11.497  14.461   1.659
59975SOL     OW81698   1.496   0.931   5.891
59975SOL    HW181699   1.434   0.983   5.943
59975SOL    HW281700   1.440   0.874   5.838
59976SOL     OW81701   1.966   1.903   7.924
59976SOL    HW181702   2.060   1.886   7.935
59976SOL    HW281703   1.961   1.958   7.846
59977SOL     OW81704   4.965   0.806  11.546
59977SOL    HW181705   4.999   0.717  11.547
59977SOL    HW281706   5.037   0.859  11.512
59978SOL     OW81707   0.679   8.643   8.649
59978SOL    HW181708   0.596   8.610   8.615
59978SOL    HW281709   0.736   8.566   8.649
59979SOL     OW81710   1.548   3.232   0.636
59979SOL    HW181711   1.543   3.235   0.540
59979SOL    HW281712   1.494   3.306   0.664
59980SOL     OW81713   1.499   7.485   8.889
59980SOL    HW181714   1.431   7.444   8.942
59980SOL    HW281715   1.559   7.524   8.953
59981SOL     OW81716  13.775  14.327   6.236
59981SOL    HW181717  13.754  14.413   6.272
59981SOL    HW281718  13.701  14.272   6.261
59982SOL     OW81719   3.597   6.633   2.374
59982SOL    HW181720   3.545   6.672   2.303
59982SOL    HW281721   3.683   6.616   2.335
59983SOL     OW81722  12.575  13.776  12.629
59983SOL    HW181723  12.586  13.783  12.724
59983SOL    HW281724  12.648  13.721  12.601
59984SOL     OW81725   9.377   6.747   3.186
59984SOL    HW181726   9.435   6.730   3.260
59984SOL    HW281727   9.324   6.822   3.214
59985SOL     OW81728   3.189  12.553  10.962
59985SOL    HW181729   3.152  12.609  11.030
59985SOL    HW281730   3.141  12.576  10.883
59986SOL     OW81731   4.758   5.576   1.225
59986SOL    HW181732   4.668   5.608   1.224
59986SOL    HW281733   4.770   5.536   1.139
59987SOL     OW81734   1.433   3.745  13.420
59987SOL    HW181735   1.440   3.705  13.507
59987SOL    HW281736   1.403   3.834  13.438
59988SOL     OW81737   9.869   1.257  11.178
59988SOL    HW181738   9.821   1.340  11.177
59988SOL    HW281739   9.941   1.271  11.116
59989SOL     OW81740   4.955   9.777   0.014
59989SOL    HW181741   4.910   9.800   0.095
59989SOL    HW281742   5.001   9.857  14.870
59990SOL     OW81743   1.006   7.692  14.782
59990SOL    HW181744   1.001   7.635  14.705
59990SOL    HW281745   0.929   7.668  14.834
59991SOL     OW81746   7.184  11.317  10.520
59991SOL    HW181747   7.186  11.221  10.513
59991SOL    HW281748   7.107  11.342  10.468
59992SOL     OW81749  11.422   9.615  12.969
59992SOL    HW181750  11.404   9.521  12.964
59992SOL    HW281751  11.438   9.641  12.879
59993SOL     OW81752   7.893   1.581   5.706
59993SOL    HW181753   7.981   1.602   5.738
59993SOL    HW281754   7.907   1.510   5.643
59994SOL     OW81755   9.143  12.550  12.271
59994SOL    HW181756   9.089  12.493  12.215
59994SOL    HW281757   9.232  12.518  12.259
59995SOL     OW81758  11.680  11.677   9.314
59995SOL    HW181759  11.670  11.615   9.386
59995SOL    HW281760  11.623  11.644   9.245
59996SOL     OW81761   7.616   9.610   1.341
59996SOL    HW181762   7.598   9.670   1.269
59996SOL    HW281763   7.608   9.523   1.303
59997SOL     OW81764   9.572   2.054   9.608
59997SOL    HW181765   9.636   2.004   9.659
59997SOL    HW281766   9.562   2.004   9.526
59998SOL     OW81767   1.317   8.838   7.886
59998SOL    HW181768   1.264   8.769   7.926
59998SOL    HW281769   1.330   8.901   7.956
59999SOL     OW81770   7.277   0.916  12.398
59999SOL    HW181771   7.261   0.904  12.304
59999SOL    HW281772   7.198   0.960  12.430
60000SOL     OW81773   1.186  14.255   1.506
60000SOL    HW181774   1.108  14.214   1.542
60000SOL    HW281775   1.154  14.306   1.431
60001SOL     OW81776   7.946   0.546   1.693
60001SOL    HW181777   7.939   0.478   1.626
60001SOL    HW281778   7.881   0.520   1.759
60002SOL     OW81779  11.504   5.599  11.929
60002SOL    HW181780  11.412   5.619  11.908
60002SOL    HW281781  11.545   5.585  11.844
60003SOL     OW81782   7.412  14.701   8.655
60003SOL    HW181783   7.416  14.779   8.599
60003SOL    HW281784   7.500  14.664   8.652
60004SOL     OW81785  13.264   0.996   1.662
60004SOL    HW181786  13.321   1.005   1.738
60004SOL    HW281787  13.216   1.079   1.658
60005SOL     OW81788   3.794   8.852   6.515
60005SOL    HW181789   3.881   8.823   6.543
60005SOL    HW281790   3.800   8.853   6.419
60006SOL     OW81791  10.256   0.001  14.098
60006SOL    HW181792  10.278   0.004  14.005
60006SOL    HW281793  10.204  14.803  14.108
60007SOL     OW81794  12.838   5.396  13.414
60007SOL    HW181795  12.794   5.345  13.347
60007SOL    HW281796  12.772   5.410  13.481
60008SOL     OW81797  10.691   0.954   5.326
60008SOL    HW181798  10.718   0.891   5.393
60008SOL    HW281799  10.766   0.961   5.268
60009SOL     OW81800   5.426  12.377  10.632
60009SOL    HW181801   5.395  12.444  10.693
60009SOL    HW281802   5.521  12.391  10.628
60010SOL     OW81803   2.051   2.459  13.321
60010SOL    HW181804   2.000   2.460  13.240
60010SOL    HW281805   2.117   2.391  13.307
60011SOL     OW81806   1.129  10.874   5.303
60011SOL    HW181807   1.117  10.797   5.358
60011SOL    HW281808   1.185  10.932   5.355
60012SOL     OW81809   5.603   9.553   8.958
60012SOL    HW181810   5.607   9.474   8.904
60012SOL    HW281811   5.541   9.531   9.027
60013SOL     OW81812   1.171  13.070  13.292
60013SOL    HW181813   1.153  13.026  13.209
60013SOL    HW281814   1.193  13.160  13.266
60014SOL     OW81815   7.353   4.855  11.919
60014SOL    HW181816   7.351   4.872  12.013
60014SOL    HW281817   7.442   4.825  11.901
60015SOL     OW81818   4.237   9.453   6.370
60015SOL    HW181819   4.148   9.418   6.368
60015SOL    HW281820   4.227   9.545   6.344
60016SOL     OW81821   2.398  14.663   3.404
60016SOL    HW181822   2.326  14.710   3.446
60016SOL    HW281823   2.475  14.689   3.453
60017SOL     OW81824   0.843   2.323   2.945
60017SOL    HW181825   0.831   2.246   3.001
60017SOL    HW281826   0.757   2.366   2.946
60018SOL     OW81827   7.423  13.651  12.788
60018SOL    HW181828   7.374  13.626  12.710
60018SOL    HW281829   7.474  13.573  12.810
60019SOL     OW81830  14.747   6.961  13.827
60019SOL    HW181831  14.720   6.974  13.917
60019SOL    HW281832  14.843   6.962  13.830
60020SOL     OW81833   9.344   2.338   4.646
60020SOL    HW181834   9.250   2.343   4.626
60020SOL    HW281835   9.375   2.263   4.596
60021SOL     OW81836   9.390  13.347   1.058
60021SOL    HW181837   9.401  13.262   1.014
60021SOL    HW281838   9.295  13.355   1.069
60022SOL     OW81839   7.117   7.821   7.685
60022SOL    HW181840   7.131   7.744   7.631
60022SOL    HW281841   7.165   7.891   7.640
60023SOL     OW81842   5.427   7.439  10.674
60023SOL    HW181843   5.431   7.352  10.635
60023SOL    HW281844   5.333   7.458  10.679
60024SOL     OW81845   8.632   0.381   5.694
60024SOL    HW181846   8.556   0.348   5.743
60024SOL    HW281847   8.707   0.352   5.745
60025SOL     OW81848   3.934   6.807   5.032
60025SOL    HW181849   4.021   6.839   5.008
60025SOL    HW281850   3.949   6.718   5.065
60026SOL     OW81851  13.444  13.199  12.778
60026SOL    HW181852  13.398  13.257  12.840
60026SOL    HW281853  13.537  13.213  12.797
60027SOL     OW81854   0.674   6.936   1.431
60027SOL    HW181855   0.739   6.892   1.375
60027SOL    HW281856   0.628   6.864   1.474
60028SOL     OW81857  11.674   0.389  10.120
60028SOL    HW181858  11.687   0.476  10.159
60028SOL    HW281859  11.758   0.345  10.133
60029SOL     OW81860   1.168   9.805   3.298
60029SOL    HW181861   1.245   9.860   3.311
60029SOL    HW281862   1.201   9.731   3.247
60030SOL     OW81863  14.288  11.074   4.376
60030SOL    HW181864  14.382  11.055   4.372
60030SOL    HW281865  14.275  11.141   4.308
60031SOL     OW81866  11.323   5.294   2.237
60031SOL    HW181867  11.309   5.378   2.281
60031SOL    HW281868  11.343   5.233   2.308
60032SOL     OW81869  11.694   4.791  12.987
60032SOL    HW181870  11.748   4.717  13.014
60032SOL    HW281871  11.690   4.784  12.891
60033SOL     OW81872   6.737  13.893  10.260
60033SOL    HW181873   6.657  13.907  10.208
60033SOL    HW281874   6.808  13.922  10.203
60034SOL     OW81875   8.272   0.604  12.941
60034SOL    HW181876   8.256   0.542  12.869
60034SOL    HW281877   8.193   0.599  12.994
60035SOL     OW81878   9.717   1.128   9.902
60035SOL    HW181879   9.698   1.175   9.821
60035SOL    HW281880   9.632   1.118   9.945
60036SOL     OW81881   3.635   4.107   8.565
60036SOL    HW181882   3.609   4.062   8.484
60036SOL    HW281883   3.588   4.061   8.634
60037SOL     OW81884   6.040  12.747  12.305
60037SOL    HW181885   6.097  12.800  12.250
60037SOL    HW281886   6.067  12.767  12.395
60038SOL     OW81887   8.904  10.927  13.292
60038SOL    HW181888   8.943  10.840  13.278
60038SOL    HW281889   8.978  10.987  13.291
60039SOL     OW81890   0.827  12.965   8.090
60039SOL    HW181891   0.874  13.008   8.019
60039SOL    HW281892   0.739  13.003   8.086
60040SOL     OW81893  13.756   9.313   3.691
60040SOL    HW181894  13.796   9.303   3.778
60040SOL    HW281895  13.831   9.322   3.632
60041SOL     OW81896  11.062  14.168  10.932
60041SOL    HW181897  11.085  14.078  10.954
60041SOL    HW281898  11.124  14.192  10.864
60042SOL     OW81899   3.126   9.780   8.852
60042SOL    HW181900   3.208   9.773   8.804
60042SOL    HW281901   3.137   9.858   8.906
60043SOL     OW81902  14.416  13.311  12.417
60043SOL    HW181903  14.360  13.286  12.491
60043SOL    HW281904  14.371  13.387  12.378
60044SOL     OW81905   8.854   2.451   2.292
60044SOL    HW181906   8.805   2.412   2.221
60044SOL    HW281907   8.788   2.491   2.349
60045SOL     OW81908  10.088   7.950  14.423
60045SOL    HW181909  10.133   7.873  14.460
60045SOL    HW281910  10.006   7.915  14.388
60046SOL     OW81911  13.092   2.329   1.977
60046SOL    HW181912  13.073   2.422   1.981
60046SOL    HW281913  13.097   2.302   2.069
60047SOL     OW81914   3.007   2.400  10.188
60047SOL    HW181915   3.096   2.423  10.161
60047SOL    HW281916   2.951   2.436  10.118
60048SOL     OW81917   8.961   1.654  10.714
60048SOL    HW181918   9.024   1.623  10.779
60048SOL    HW281919   8.906   1.716  10.762
60049SOL     OW81920   8.046  14.127   3.724
60049SOL    HW181921   8.054  14.218   3.698
60049SOL    HW281922   8.037  14.130   3.820
60050SOL     OW81923   8.333   5.298  11.968
60050SOL    HW181924   8.416   5.262  12.000
60050SOL    HW281925   8.324   5.263  11.880
60051SOL     OW81926   9.258   0.526  10.632
60051SOL    HW181927   9.252   0.616  10.601
60051SOL    HW281928   9.175   0.486  10.606
60052SOL     OW81929   5.098   7.150  11.010
60052SOL    HW181930   5.144   7.203  11.076
60052SOL    HW281931   5.153   7.073  10.998
60053SOL     OW81932  12.453   1.425   0.740
60053SOL    HW181933  12.471   1.412   0.833
60053SOL    HW281934  12.518   1.370   0.695
60054SOL     OW81935   0.719  11.294  12.725
60054SOL    HW181936   0.703  11.385  12.701
60054SOL    HW281937   0.641  11.269  12.775
60055SOL     OW81938   6.983   4.470  13.723
60055SOL    HW181939   7.065   4.427  13.699
60055SOL    HW281940   6.922   4.445  13.655
60056SOL     OW81941   4.297  12.520  14.487
60056SOL    HW181942   4.244  12.521  14.566
60056SOL    HW281943   4.242  12.564  14.421
60057SOL     OW81944  14.124   9.731  10.615
60057SOL    HW181945  14.189   9.687  10.670
60057SOL    HW281946  14.086   9.660  10.563
60058SOL     OW81947   5.794   5.845   6.033
60058SOL    HW181948   5.764   5.845   5.942
60058SOL    HW281949   5.876   5.894   6.031
60059SOL     OW81950   3.191   2.374   0.346
60059SOL    HW181951   3.261   2.352   0.284
60059SOL    HW281952   3.234   2.426   0.413
60060SOL     OW81953   9.901   8.160   6.101
60060SOL    HW181954   9.939   8.172   6.014
60060SOL    HW281955   9.965   8.199   6.160
60061SOL     OW81956   6.796  11.129  14.045
60061SOL    HW181957   6.827  11.039  14.053
60061SOL    HW281958   6.769  11.152  14.134
60062SOL     OW81959   0.247   6.244   1.350
60062SOL    HW181960   0.317   6.181   1.334
60062SOL    HW281961   0.169   6.190   1.361
60063SOL     OW81962  11.045  10.995   5.412
60063SOL    HW181963  11.140  10.995   5.417
60063SOL    HW281964  11.025  10.971   5.322
60064SOL     OW81965   8.548   0.256   0.733
60064SOL    HW181966   8.518   0.292   0.649
60064SOL    HW281967   8.597   0.178   0.709
60065SOL     OW81968  12.544  10.429   8.306
60065SOL    HW181969  12.536  10.406   8.399
60065SOL    HW281970  12.604  10.502   8.304
60066SOL     OW81971   8.384   1.201  10.531
60066SOL    HW181972   8.327   1.249  10.591
60066SOL    HW281973   8.469   1.244  10.539
60067SOL     OW81974   8.291   1.476  12.576
60067SOL    HW181975   8.232   1.546  12.605
60067SOL    HW281976   8.352   1.520  12.517
60068SOL     OW81977   3.082  12.411   4.591
60068SOL    HW181978   3.055  12.502   4.577
60068SOL    HW281979   3.134  12.414   4.671
60069SOL     OW81980   9.511   4.374   5.648
60069SOL    HW181981   9.521   4.465   5.619
60069SOL    HW281982   9.501   4.325   5.567
60070SOL     OW81983  10.431   9.105   5.523
60070SOL    HW181984  10.448   9.071   5.611
60070SOL    HW281985  10.449   9.198   5.529
60071SOL     OW81986   4.913   7.796   3.070
60071SOL    HW181987   4.963   7.836   3.140
60071SOL    HW281988   4.824   7.830   3.081
60072SOL     OW81989   6.428   1.805   0.789
60072SOL    HW181990   6.524   1.805   0.800
60072SOL    HW281991   6.409   1.723   0.745
60073SOL     OW81992  10.605   9.960   8.483
60073SOL    HW181993  10.561   9.909   8.415
60073SOL    HW281994  10.648   9.895   8.538
60074SOL     OW81995   4.000   2.681   0.231
60074SOL    HW181996   3.967   2.677   0.142
60074SOL    HW281997   3.937   2.630   0.282
60075SOL     OW81998   6.930   9.241   4.067
60075SOL    HW181999   6.878   9.195   4.002
60075SOL    HW282000   6.866   9.269   4.133
60076SOL     OW82001   6.110  12.474  14.611
60076SOL    HW182002   6.030  12.491  14.660
60076SOL    HW282003   6.136  12.386  14.637
60077SOL     OW82004   4.521   7.726   4.194
60077SOL    HW182005   4.522   7.801   4.134
60077SOL    HW282006   4.605   7.732   4.240
60078SOL     OW82007  14.665   7.452   7.232
60078SOL    HW182008  14.691   7.543   7.218
60078SOL    HW282009  14.665   7.442   7.328
60079SOL     OW82010  11.656   0.032   5.009
60079SOL    HW182011  11.656   0.002   5.100
60079SOL    HW282012  11.637  14.835   4.957
60080SOL     OW82013   0.205   7.374  10.865
60080SOL    HW182014   0.243   7.407  10.784
60080SOL    HW282015   0.198   7.279  10.851
60081SOL     OW82016   1.450   5.811  11.090
60081SOL    HW182017   1.424   5.813  10.998
60081SOL    HW282018   1.532   5.762  11.091
60082SOL     OW82019   1.876   9.800   3.230
60082SOL    HW182020   1.966   9.794   3.199
60082SOL    HW282021   1.878   9.763   3.318
60083SOL     OW82022   2.729   2.194   8.700
60083SOL    HW182023   2.702   2.184   8.791
60083SOL    HW282024   2.813   2.238   8.705
60084SOL     OW82025   7.540   2.214   5.139
60084SOL    HW182026   7.550   2.309   5.148
60084SOL    HW282027   7.628   2.182   5.117
60085SOL     OW82028  10.128   5.539  14.127
60085SOL    HW182029  10.203   5.486  14.099
60085SOL    HW282030  10.056   5.477  14.134
60086SOL     OW82031   9.044  10.838   8.071
60086SOL    HW182032   9.090  10.825   7.989
60086SOL    HW282033   9.001  10.754   8.089
60087SOL     OW82034  12.169  13.945  12.305
60087SOL    HW182035  12.163  13.863  12.354
60087SOL    HW282036  12.098  13.998  12.340
60088SOL     OW82037   6.945  10.624  13.000
60088SOL    HW182038   7.002  10.591  12.930
60088SOL    HW282039   6.891  10.548  13.024
60089SOL     OW82040   8.561  13.100   4.105
60089SOL    HW182041   8.519  13.071   4.024
60089SOL    HW282042   8.608  13.179   4.081
60090SOL     OW82043   6.642   8.456   7.187
60090SOL    HW182044   6.633   8.440   7.281
60090SOL    HW282045   6.733   8.437   7.167
60091SOL     OW82046   2.772   0.456   2.329
60091SOL    HW182047   2.721   0.518   2.276
60091SOL    HW282048   2.768   0.374   2.279
60092SOL     OW82049   8.157   3.095   2.094
60092SOL    HW182050   8.089   3.072   2.157
60092SOL    HW282051   8.181   3.011   2.054
60093SOL     OW82052   5.168   6.637   4.379
60093SOL    HW182053   5.192   6.643   4.472
60093SOL    HW282054   5.180   6.726   4.346
60094SOL     OW82055   3.979   4.617   5.924
60094SOL    HW182056   3.974   4.580   6.012
60094SOL    HW282057   3.888   4.623   5.895
60095SOL     OW82058   5.329   2.265   7.172
60095SOL    HW182059   5.311   2.177   7.206
60095SOL    HW282060   5.281   2.270   7.090
60096SOL     OW82061   2.298   6.487   9.559
60096SOL    HW182062   2.307   6.582   9.549
60096SOL    HW282063   2.204   6.473   9.569
60097SOL     OW82064   6.263   3.326  12.071
60097SOL    HW182065   6.302   3.367  11.993
60097SOL    HW282066   6.297   3.377  12.144
60098SOL     OW82067   8.678   1.270  13.577
60098SOL    HW182068   8.605   1.248  13.519
60098SOL    HW282069   8.655   1.356  13.614
60099SOL     OW82070  14.631  12.077   2.600
60099SOL    HW182071  14.604  12.117   2.518
60099SOL    HW282072  14.549  12.042   2.637
60100SOL     OW82073   0.727   4.446   3.130
60100SOL    HW182074   0.692   4.471   3.045
60100SOL    HW282075   0.654   4.459   3.191
60101SOL     OW82076   8.504  14.809  11.095
60101SOL    HW182077   8.463   0.011  11.071
60101SOL    HW282078   8.513  14.814  11.190
60102SOL     OW82079  12.005   4.879   4.898
60102SOL    HW182080  12.003   4.892   4.993
60102SOL    HW282081  12.030   4.788   4.886
60103SOL     OW82082   7.483  14.809   6.755
60103SOL    HW182083   7.546  14.873   6.722
60103SOL    HW282084   7.416  14.861   6.798
60104SOL     OW82085   7.779   5.988  10.413
60104SOL    HW182086   7.853   5.993  10.353
60104SOL    HW282087   7.807   6.037  10.490
60105SOL     OW82088   6.052   2.666   6.320
60105SOL    HW182089   5.962   2.694   6.305
60105SOL    HW282090   6.054   2.574   6.293
60106SOL     OW82091   5.223   0.347  14.609
60106SOL    HW182092   5.240   0.308  14.522
60106SOL    HW282093   5.181   0.277  14.659
60107SOL     OW82094   8.419   2.815  14.877
60107SOL    HW182095   8.326   2.816  14.854
60107SOL    HW282096   8.464   2.797  14.795
60108SOL     OW82097  13.414   3.330   0.330
60108SOL    HW182098  13.441   3.241   0.355
60108SOL    HW282099  13.318   3.326   0.327
60109SOL     OW82100  10.463   9.547   2.800
60109SOL    HW182101  10.420   9.545   2.886
60109SOL    HW282102  10.393   9.529   2.738
60110SOL     OW82103   7.179   2.607  10.250
60110SOL    HW182104   7.153   2.595  10.158
60110SOL    HW282105   7.132   2.539  10.297
60111SOL     OW82106  11.757   1.017  13.949
60111SOL    HW182107  11.702   0.984  14.020
60111SOL    HW282108  11.831   0.956  13.945
60112SOL     OW82109  13.476   6.804  13.182
60112SOL    HW182110  13.539   6.855  13.130
60112SOL    HW282111  13.484   6.715  13.149
60113SOL     OW82112   2.781   6.425   8.613
60113SOL    HW182113   2.764   6.408   8.705
60113SOL    HW282114   2.866   6.383   8.596
60114SOL     OW82115   4.057   4.924  12.641
60114SOL    HW182116   4.138   4.953  12.684
60114SOL    HW282117   4.082   4.907  12.550
60115SOL     OW82118  12.296   1.906   6.650
60115SOL    HW182119  12.272   1.974   6.714
60115SOL    HW282120  12.255   1.935   6.568
60116SOL     OW82121   2.307   3.974   4.637
60116SOL    HW182122   2.264   3.890   4.622
60116SOL    HW282123   2.381   3.974   4.577
60117SOL     OW82124  12.240   0.293  12.983
60117SOL    HW182125  12.260   0.301  12.889
60117SOL    HW282126  12.179   0.220  12.988
60118SOL     OW82127  14.570   2.579   0.409
60118SOL    HW182128  14.657   2.615   0.393
60118SOL    HW282129  14.583   2.512   0.476
60119SOL     OW82130   4.231   8.040   8.152
60119SOL    HW182131   4.144   8.069   8.180
60119SOL    HW282132   4.291   8.105   8.188
60120SOL     OW82133   2.119  12.314   0.505
60120SOL    HW182134   2.176  12.243   0.536
60120SOL    HW282135   2.178  12.388   0.494
60121SOL     OW82136   2.168  11.520   0.445
60121SOL    HW182137   2.262  11.530   0.458
60121SOL    HW282138   2.144  11.443   0.498
60122SOL     OW82139  13.368   9.783   5.031
60122SOL    HW182140  13.421   9.714   5.072
60122SOL    HW282141  13.416   9.864   5.049
60123SOL     OW82142   2.311   2.339   3.003
60123SOL    HW182143   2.271   2.288   2.934
60123SOL    HW282144   2.238   2.380   3.049
60124SOL     OW82145   5.212   5.919  14.835
60124SOL    HW182146   5.175   5.998  14.796
60124SOL    HW282147   5.139   5.879   0.001
60125SOL     OW82148   5.438   5.062   6.992
60125SOL    HW182149   5.523   5.106   6.989
60125SOL    HW282150   5.375   5.133   7.005
60126SOL     OW82151   0.157  13.243   7.184
60126SOL    HW182152   0.203  13.245   7.100
60126SOL    HW282153   0.179  13.327   7.225
60127SOL     OW82154  12.746   4.883  14.280
60127SOL    HW182155  12.820   4.833  14.245
60127SOL    HW282156  12.786   4.959  14.323
60128SOL     OW82157  12.593   4.471  12.590
60128SOL    HW182158  12.654   4.544  12.584
60128SOL    HW282159  12.513   4.510  12.624
60129SOL     OW82160   1.112   7.075   1.060
60129SOL    HW182161   1.061   7.123   0.995
60129SOL    HW282162   1.199   7.066   1.021
60130SOL     OW82163   6.555   2.678   6.778
60130SOL    HW182164   6.583   2.611   6.840
60130SOL    HW282165   6.593   2.651   6.694
60131SOL     OW82166   1.639   9.803  12.553
60131SOL    HW182167   1.623   9.714  12.523
60131SOL    HW282168   1.554   9.846  12.547
60132SOL     OW82169   7.112  13.394   2.311
60132SOL    HW182170   7.113  13.359   2.400
60132SOL    HW282171   7.203  13.388   2.282
60133SOL     OW82172   9.717  13.552   4.396
60133SOL    HW182173   9.630  13.569   4.359
60133SOL    HW282174   9.732  13.625   4.456
60134SOL     OW82175   5.462   4.433   3.702
60134SOL    HW182176   5.529   4.474   3.758
60134SOL    HW282177   5.392   4.409   3.763
60135SOL     OW82178   8.703  10.050  13.922
60135SOL    HW182179   8.693  10.145  13.934
60135SOL    HW282180   8.743  10.041  13.836
60136SOL     OW82181  12.138   7.890   9.194
60136SOL    HW182182  12.098   7.943   9.264
60136SOL    HW282183  12.067   7.834   9.164
60137SOL     OW82184   6.629  13.686   0.381
60137SOL    HW182185   6.641  13.664   0.289
60137SOL    HW282186   6.591  13.607   0.420
60138SOL     OW82187   4.118  11.881   1.790
60138SOL    HW182188   4.045  11.885   1.852
60138SOL    HW282189   4.118  11.791   1.760
60139SOL     OW82190   9.736   8.354   1.081
60139SOL    HW182191   9.805   8.295   1.051
60139SOL    HW282192   9.781   8.438   1.094
60140SOL     OW82193  12.468  10.031   4.940
60140SOL    HW182194  12.424   9.977   4.874
60140SOL    HW282195  12.434   9.997   5.024
60141SOL     OW82196  10.532   6.041   7.981
60141SOL    HW182197  10.591   6.096   7.929
60141SOL    HW282198  10.515   5.964   7.927
60142SOL     OW82199   7.371   6.920   5.855
60142SOL    HW182200   7.411   6.917   5.942
60142SOL    HW282201   7.278   6.908   5.870
60143SOL     OW82202   1.447   0.035  11.451
60143SOL    HW182203   1.479   0.107  11.504
60143SOL    HW282204   1.354   0.028  11.473
60144SOL     OW82205  11.902  13.956  13.379
60144SOL    HW182206  11.874  14.037  13.422
60144SOL    HW282207  11.884  13.887  13.443
60145SOL     OW82208  13.287   3.217  10.874
60145SOL    HW182209  13.225   3.154  10.839
60145SOL    HW282210  13.373   3.181  10.855
60146SOL     OW82211   2.204  14.761   4.426
60146SOL    HW182212   2.214  14.846   4.469
60146SOL    HW282213   2.287  14.716   4.442
60147SOL     OW82214   4.277   7.173   9.830
60147SOL    HW182215   4.367   7.197   9.852
60147SOL    HW282216   4.283   7.137   9.742
60148SOL     OW82217   5.780   2.316  14.106
60148SOL    HW182218   5.760   2.278  14.021
60148SOL    HW282219   5.695   2.322  14.150
60149SOL     OW82220   1.499  13.539   3.502
60149SOL    HW182221   1.550  13.571   3.576
60149SOL    HW282222   1.414  13.515   3.540
60150SOL     OW82223   3.624   4.839  13.220
60150SOL    HW182224   3.620   4.767  13.156
60150SOL    HW282225   3.604   4.917  13.169
60151SOL     OW82226   9.331  10.278  10.317
60151SOL    HW182227   9.410  10.264  10.264
60151SOL    HW282228   9.323  10.373  10.325
60152SOL     OW82229   1.569  13.383  11.998
60152SOL    HW182230   1.533  13.309  12.047
60152SOL    HW282231   1.602  13.443  12.065
60153SOL     OW82232  12.264  13.387  11.534
60153SOL    HW182233  12.316  13.384  11.454
60153SOL    HW282234  12.176  13.360  11.507
60154SOL     OW82235   5.844   3.059  10.322
60154SOL    HW182236   5.822   3.119  10.394
60154SOL    HW282237   5.835   3.112  10.243
60155SOL     OW82238  13.742   4.175   4.183
60155SOL    HW182239  13.795   4.237   4.232
60155SOL    HW282240  13.758   4.197   4.091
60156SOL     OW82241   7.548  12.215   9.935
60156SOL    HW182242   7.608  12.176   9.871
60156SOL    HW282243   7.461  12.188   9.905
60157SOL     OW82244  10.430  10.799   3.765
60157SOL    HW182245  10.493  10.827   3.831
60157SOL    HW282246  10.425  10.872   3.703
60158SOL     OW82247  14.628  12.424  11.120
60158SOL    HW182248  14.573  12.498  11.095
60158SOL    HW282249  14.698  12.422  11.054
60159SOL     OW82250  10.048  13.042   4.212
60159SOL    HW182251   9.991  12.967   4.227
60159SOL    HW282252  10.136  13.006   4.213
60160SOL     OW82253  14.622   2.872   0.838
60160SOL    HW182254  14.614   2.777   0.830
60160SOL    HW282255  14.648   2.902   0.751
60161SOL     OW82256  13.377  11.156  13.942
60161SOL    HW182257  13.465  11.194  13.951
60161SOL    HW282258  13.318  11.231  13.941
60162SOL     OW82259   1.305   9.883   7.557
60162SOL    HW182260   1.337   9.802   7.519
60162SOL    HW282261   1.382   9.938   7.566
60163SOL     OW82262   5.455   3.532  12.540
60163SOL    HW182263   5.477   3.624  12.527
60163SOL    HW282264   5.477   3.490  12.457
60164SOL     OW82265   4.790  13.903   1.035
60164SOL    HW182266   4.797  13.911   1.131
60164SOL    HW282267   4.873  13.938   1.002
60165SOL     OW82268   8.497  11.637   9.926
60165SOL    HW182269   8.568  11.606   9.870
60165SOL    HW282270   8.541  11.669  10.005
60166SOL     OW82271  11.161   8.009  10.984
60166SOL    HW182272  11.132   7.947  10.918
60166SOL    HW282273  11.257   8.003  10.983
60167SOL     OW82274   0.868   0.832   1.004
60167SOL    HW182275   0.856   0.918   1.044
60167SOL    HW282276   0.963   0.819   1.002
60168SOL     OW82277   4.686   7.863   9.755
60168SOL    HW182278   4.710   7.952   9.783
60168SOL    HW282279   4.730   7.806   9.818
60169SOL     OW82280  11.319   1.774   6.190
60169SOL    HW182281  11.393   1.813   6.143
60169SOL    HW282282  11.242   1.813   6.150
60170SOL     OW82283   3.979   1.571   7.329
60170SOL    HW182284   3.991   1.664   7.309
60170SOL    HW282285   4.045   1.527   7.275
60171SOL     OW82286   4.844  10.163   2.846
60171SOL    HW182287   4.837  10.148   2.940
60171SOL    HW282288   4.938  10.171   2.829
60172SOL     OW82289   3.635   0.767   0.830
60172SOL    HW182290   3.585   0.696   0.788
60172SOL    HW282291   3.568   0.822   0.870
60173SOL     OW82292   8.567   7.963   9.351
60173SOL    HW182293   8.565   8.026   9.423
60173SOL    HW282294   8.524   7.885   9.387
60174SOL     OW82295  10.923  11.704   4.157
60174SOL    HW182296  10.990  11.653   4.111
60174SOL    HW282297  10.944  11.692   4.250
60175SOL     OW82298  13.959  10.382   4.803
60175SOL    HW182299  13.867  10.396   4.824
60175SOL    HW282300  13.989  10.314   4.864
60176SOL     OW82301  14.572   7.842  11.983
60176SOL    HW182302  14.588   7.773  11.919
60176SOL    HW282303  14.594   7.801  12.067
60177SOL     OW82304   2.694   9.007  11.978
60177SOL    HW182305   2.695   8.913  11.997
60177SOL    HW282306   2.717   9.048  12.062
60178SOL     OW82307  11.815  10.789   0.688
60178SOL    HW182308  11.859  10.824   0.611
60178SOL    HW282309  11.869  10.715   0.716
60179SOL     OW82310   5.337  13.720  13.696
60179SOL    HW182311   5.365  13.807  13.670
60179SOL    HW282312   5.389  13.699  13.773
60180SOL     OW82313   4.572   3.823  13.719
60180SOL    HW182314   4.551   3.816  13.625
60180SOL    HW282315   4.507   3.883  13.754
60181SOL     OW82316  11.424  11.117   1.478
60181SOL    HW182317  11.441  11.210   1.461
60181SOL    HW282318  11.480  11.071   1.415
60182SOL     OW82319  12.837   6.490  10.516
60182SOL    HW182320  12.792   6.517  10.436
60182SOL    HW282321  12.773   6.506  10.586
60183SOL     OW82322   0.100   1.702   2.513
60183SOL    HW182323   0.188   1.733   2.535
60183SOL    HW282324   0.102   1.691   2.418
60184SOL     OW82325   9.799  10.266   1.365
60184SOL    HW182326   9.786  10.190   1.421
60184SOL    HW282327   9.823  10.229   1.280
60185SOL     OW82328   4.564   4.091  13.475
60185SOL    HW182329   4.559   3.995  13.471
60185SOL    HW282330   4.546   4.119  13.385
60186SOL     OW82331   3.182  14.345   4.610
60186SOL    HW182332   3.270  14.326   4.641
60186SOL    HW282333   3.174  14.441   4.617
60187SOL     OW82334  10.966   1.327  10.398
60187SOL    HW182335  10.945   1.235  10.412
60187SOL    HW282336  11.011   1.354  10.479
60188SOL     OW82337   2.086   0.467  12.553
60188SOL    HW182338   2.045   0.462  12.467
60188SOL    HW282339   2.180   0.469  12.535
60189SOL     OW82340   4.778   0.543  10.135
60189SOL    HW182341   4.783   0.636  10.157
60189SOL    HW282342   4.863   0.524  10.094
60190SOL     OW82343   4.663   5.159   1.124
60190SOL    HW182344   4.687   5.066   1.120
60190SOL    HW282345   4.568   5.159   1.114
60191SOL     OW82346   8.130   0.295   9.145
60191SOL    HW182347   8.191   0.236   9.189
60191SOL    HW282348   8.158   0.383   9.173
60192SOL     OW82349   0.403   3.898   3.364
60192SOL    HW182350   0.372   3.809   3.351
60192SOL    HW282351   0.494   3.888   3.391
60193SOL     OW82352   2.672   5.588   8.376
60193SOL    HW182353   2.714   5.551   8.298
60193SOL    HW282354   2.744   5.629   8.424
60194SOL     OW82355   8.684   0.486  12.504
60194SOL    HW182356   8.617   0.516  12.565
60194SOL    HW282357   8.636   0.463  12.424
60195SOL     OW82358  12.935   9.251   3.590
60195SOL    HW182359  12.891   9.167   3.577
60195SOL    HW282360  13.023   9.238   3.554
60196SOL     OW82361  14.708   9.133   7.051
60196SOL    HW182362  14.637   9.182   7.008
60196SOL    HW282363  14.782   9.141   6.991
60197SOL     OW82364  13.208   0.480  10.425
60197SOL    HW182365  13.162   0.397  10.433
60197SOL    HW282366  13.141   0.543  10.399
60198SOL     OW82367  14.870   3.781  11.425
60198SOL    HW182368   0.027   3.734  11.499
60198SOL    HW282369  14.820   3.714  11.378
60199SOL     OW82370   2.707  14.537   4.059
60199SOL    HW182371   2.719  14.500   4.147
60199SOL    HW282372   2.796  14.556   4.028
60200SOL     OW82373  10.074   3.973  13.479
60200SOL    HW182374  10.089   4.046  13.419
60200SOL    HW282375  10.022   4.010  13.550
60201SOL     OW82376   2.172  14.268  12.539
60201SOL    HW182377   2.144  14.319  12.616
60201SOL    HW282378   2.159  14.177  12.565
60202SOL     OW82379   8.350   8.679   0.156
60202SOL    HW182380   8.255   8.668   0.153
60202SOL    HW282381   8.362   8.770   0.185
60203SOL     OW82382   0.467   5.721   6.137
60203SOL    HW182383   0.427   5.736   6.051
60203SOL    HW282384   0.501   5.632   6.132
60204SOL     OW82385  11.421  11.722   2.737
60204SOL    HW182386  11.498  11.667   2.725
60204SOL    HW282387  11.364  11.671   2.794
60205SOL     OW82388  10.568  14.680  10.772
60205SOL    HW182389  10.490  14.714  10.728
60205SOL    HW282390  10.566  14.585  10.756
60206SOL     OW82391   0.896   7.998   9.702
60206SOL    HW182392   0.838   8.066   9.736
60206SOL    HW282393   0.965   7.991   9.768
60207SOL     OW82394   6.311   6.965   5.056
60207SOL    HW182395   6.386   6.962   4.996
60207SOL    HW282396   6.337   6.910   5.130
60208SOL     OW82397   1.492  11.416  12.940
60208SOL    HW182398   1.447  11.500  12.933
60208SOL    HW282399   1.583  11.439  12.961
60209SOL     OW82400  14.257   4.706   9.466
60209SOL    HW182401  14.336   4.669   9.428
60209SOL    HW282402  14.197   4.716   9.393
60210SOL     OW82403   6.363   9.620  12.061
60210SOL    HW182404   6.336   9.632  11.970
60210SOL    HW282405   6.324   9.693  12.108
60211SOL     OW82406   4.713   0.001   6.208
60211SOL    HW182407   4.639   0.001   6.147
60211SOL    HW282408   4.740  14.791   6.213
60212SOL     OW82409   4.305   4.601  14.129
60212SOL    HW182410   4.308   4.655  14.208
60212SOL    HW282411   4.229   4.633  14.081
60213SOL     OW82412  14.188   3.492  12.954
60213SOL    HW182413  14.119   3.442  12.910
60213SOL    HW282414  14.203   3.567  12.897
60214SOL     OW82415   1.514   5.131   6.250
60214SOL    HW182416   1.537   5.040   6.267
60214SOL    HW282417   1.424   5.129   6.219
60215SOL     OW82418   3.354   1.339  14.532
60215SOL    HW182419   3.367   1.279  14.459
60215SOL    HW282420   3.345   1.283  14.609
60216SOL     OW82421   9.308   7.881   4.912
60216SOL    HW182422   9.350   7.810   4.862
60216SOL    HW282423   9.371   7.901   4.982
60217SOL     OW82424   8.209   1.917   0.202
60217SOL    HW182425   8.279   1.856   0.180
60217SOL    HW282426   8.178   1.889   0.288
60218SOL     OW82427   0.071   4.770   7.554
60218SOL    HW182428   0.028   4.824   7.487
60218SOL    HW282429   0.122   4.833   7.605
60219SOL     OW82430  10.769   8.149   0.615
60219SOL    HW182431  10.721   8.138   0.697
60219SOL    HW282432  10.852   8.105   0.630
60220SOL     OW82433   2.089   7.894   4.931
60220SOL    HW182434   2.025   7.837   4.888
60220SOL    HW282435   2.063   7.982   4.904
60221SOL     OW82436  12.219   1.010   9.094
60221SOL    HW182437  12.160   1.060   9.037
60221SOL    HW282438  12.220   1.060   9.176
60222SOL     OW82439   3.483   2.938   8.276
60222SOL    HW182440   3.427   2.887   8.336
60222SOL    HW282441   3.554   2.878   8.254
60223SOL     OW82442  12.542   4.617   4.344
60223SOL    HW182443  12.449   4.604   4.325
60223SOL    HW282444  12.587   4.590   4.264
60224SOL     OW82445   5.201  13.353   0.562
60224SOL    HW182446   5.143  13.400   0.622
60224SOL    HW282447   5.223  13.417   0.495
60225SOL     OW82448   8.099   4.659   8.239
60225SOL    HW182449   8.138   4.743   8.217
60225SOL    HW282450   8.025   4.680   8.297
60226SOL     OW82451   0.690  11.702  13.322
60226SOL    HW182452   0.645  11.742  13.247
60226SOL    HW282453   0.711  11.775  13.379
60227SOL     OW82454  14.116   6.888  10.418
60227SOL    HW182455  14.041   6.937  10.451
60227SOL    HW282456  14.078   6.809  10.378
60228SOL     OW82457   6.334   8.697   0.865
60228SOL    HW182458   6.335   8.765   0.799
60228SOL    HW282459   6.424   8.664   0.868
60229SOL     OW82460   7.219   7.010  12.505
60229SOL    HW182461   7.160   6.937  12.489
60229SOL    HW282462   7.276   7.013  12.428
60230SOL     OW82463  14.645  12.124   3.141
60230SOL    HW182464  14.646  12.087   3.052
60230SOL    HW282465  14.563  12.171   3.146
60231SOL     OW82466  10.508   8.239  14.164
60231SOL    HW182467  10.476   8.322  14.197
60231SOL    HW282468  10.504   8.180  14.240
60232SOL     OW82469  13.466   8.189   2.135
60232SOL    HW182470  13.536   8.214   2.196
60232SOL    HW282471  13.425   8.273   2.112
60233SOL     OW82472  11.232  11.617   6.028
60233SOL    HW182473  11.300  11.665   5.980
60233SOL    HW282474  11.250  11.636   6.120
60234SOL     OW82475  13.650   1.442   4.035
60234SOL    HW182476  13.696   1.368   4.074
60234SOL    HW282477  13.575   1.403   3.990
60235SOL     OW82478   9.046   7.217   5.264
60235SOL    HW182479   9.140   7.226   5.249
60235SOL    HW282480   9.028   7.124   5.251
60236SOL     OW82481   1.092   5.317  11.611
60236SOL    HW182482   1.052   5.243  11.655
60236SOL    HW282483   1.082   5.298  11.518
60237SOL     OW82484   9.015   7.555   7.203
60237SOL    HW182485   9.043   7.547   7.112
60237SOL    HW282486   9.058   7.634   7.235
60238SOL     OW82487  11.909  10.987   6.938
60238SOL    HW182488  11.935  11.013   6.849
60238SOL    HW282489  11.966  10.913   6.959
60239SOL     OW82490   5.332   9.006  14.065
60239SOL    HW182491   5.420   9.005  14.102
60239SOL    HW282492   5.276   9.032  14.138
60240SOL     OW82493   5.517   9.864   9.909
60240SOL    HW182494   5.577   9.895   9.841
60240SOL    HW282495   5.453   9.935   9.918
60241SOL     OW82496  11.301   4.990   0.286
60241SOL    HW182497  11.307   4.903   0.326
60241SOL    HW282498  11.295   5.050   0.359
60242SOL     OW82499   7.995   8.575  11.686
60242SOL    HW182500   7.979   8.483  11.709
60242SOL    HW282501   7.916   8.621  11.714
60243SOL     OW82502   7.563   9.237  10.571
60243SOL    HW182503   7.646   9.195  10.590
60243SOL    HW282504   7.566   9.256  10.477
60244SOL     OW82505   7.931   6.019  14.367
60244SOL    HW182506   7.960   5.975  14.287
60244SOL    HW282507   7.844   5.982  14.384
60245SOL     OW82508   3.429  12.631   3.561
60245SOL    HW182509   3.450  12.622   3.468
60245SOL    HW282510   3.510  12.666   3.600
60246SOL     OW82511   9.546   6.230   2.160
60246SOL    HW182512   9.558   6.138   2.135
60246SOL    HW282513   9.477   6.228   2.226
60247SOL     OW82514   9.911   4.354   5.332
60247SOL    HW182515   9.899   4.325   5.423
60247SOL    HW282516   9.835   4.409   5.314
60248SOL     OW82517   0.025   9.882  13.097
60248SOL    HW182518   0.016   9.941  13.172
60248SOL    HW282519   0.044   9.797  13.136
60249SOL     OW82520  10.260   1.503   4.694
60249SOL    HW182521  10.220   1.495   4.780
60249SOL    HW282522  10.299   1.591   4.694
60250SOL     OW82523   7.136   6.830   1.002
60250SOL    HW182524   7.151   6.845   1.096
60250SOL    HW282525   7.149   6.915   0.961
60251SOL     OW82526   9.905   3.202   9.837
60251SOL    HW182527   9.883   3.154   9.757
60251SOL    HW282528   9.991   3.240   9.819
60252SOL     OW82529  11.555  14.237   0.214
60252SOL    HW182530  11.651  14.235   0.213
60252SOL    HW282531  11.534  14.326   0.242
60253SOL     OW82532  14.823   1.689   7.867
60253SOL    HW182533  14.804   1.780   7.843
60253SOL    HW282534  14.751   1.638   7.829
60254SOL     OW82535   1.711   6.697   5.253
60254SOL    HW182536   1.800   6.686   5.219
60254SOL    HW282537   1.723   6.713   5.347
60255SOL     OW82538   9.698   5.659   0.043
60255SOL    HW182539   9.723   5.669  14.833
60255SOL    HW282540   9.771   5.611   0.083
60256SOL     OW82541   4.572  13.240   4.271
60256SOL    HW182542   4.552  13.173   4.336
60256SOL    HW282543   4.654  13.278   4.300
60257SOL     OW82544   6.418   1.961   6.952
60257SOL    HW182545   6.499   1.953   7.003
60257SOL    HW282546   6.379   1.874   6.955
60258SOL     OW82547   2.156   3.013  14.706
60258SOL    HW182548   2.250   3.028  14.701
60258SOL    HW282549   2.129   3.053  14.789
60259SOL     OW82550   6.799   7.535  13.372
60259SOL    HW182551   6.772   7.590  13.446
60259SOL    HW282552   6.716   7.503  13.335
60260SOL     OW82553  13.282   4.026   8.504
60260SOL    HW182554  13.219   4.070   8.561
60260SOL    HW282555  13.313   3.952   8.556
60261SOL     OW82556   1.624  11.270   7.177
60261SOL    HW182557   1.620  11.175   7.167
60261SOL    HW282558   1.550  11.292   7.232
60262SOL     OW82559   3.708   1.691   6.793
60262SOL    HW182560   3.732   1.599   6.794
60262SOL    HW282561   3.664   1.705   6.877
60263SOL     OW82562  12.452  13.631   6.796
60263SOL    HW182563  12.456  13.549   6.845
60263SOL    HW282564  12.529  13.680   6.825
60264SOL     OW82565   4.248   2.200   9.713
60264SOL    HW182566   4.327   2.188   9.766
60264SOL    HW282567   4.253   2.132   9.646
60265SOL     OW82568   2.862  11.448   4.138
60265SOL    HW182569   2.864  11.407   4.051
60265SOL    HW282570   2.807  11.389   4.191
60266SOL     OW82571   1.431   9.827   9.037
60266SOL    HW182572   1.411   9.782   8.955
60266SOL    HW282573   1.348   9.827   9.085
60267SOL     OW82574   8.913   4.232   4.268
60267SOL    HW182575   8.897   4.278   4.186
60267SOL    HW282576   8.830   4.187   4.287
60268SOL     OW82577   9.120   4.377   4.433
60268SOL    HW182578   9.162   4.412   4.354
60268SOL    HW282579   9.036   4.343   4.401
60269SOL     OW82580   8.012   9.458   9.851
60269SOL    HW182581   7.936   9.516   9.845
60269SOL    HW282582   8.029   9.433   9.760
60270SOL     OW82583   3.017   1.113   8.393
60270SOL    HW182584   3.083   1.067   8.341
60270SOL    HW282585   3.058   1.128   8.478
60271SOL     OW82586   1.712   0.088   0.794
60271SOL    HW182587   1.704   0.014   0.854
60271SOL    HW282588   1.776   0.145   0.835
60272SOL     OW82589   1.568  14.872   8.727
60272SOL    HW182590   1.527   0.074   8.704
60272SOL    HW282591   1.610  14.844   8.646
60273SOL     OW82592   3.001  12.994  14.848
60273SOL    HW182593   2.991  12.942   0.046
60273SOL    HW282594   3.094  12.985  14.825
60274SOL     OW82595   1.654  11.012   7.239
60274SOL    HW182596   1.694  10.941   7.189
60274SOL    HW282597   1.667  10.988   7.331
60275SOL     OW82598   7.157   3.059   9.587
60275SOL    HW182599   7.250   3.082   9.596
60275SOL    HW282600   7.123   3.124   9.525
60276SOL     OW82601   9.095   2.621   6.050
60276SOL    HW182602   9.095   2.704   6.002
60276SOL    HW282603   9.112   2.554   5.983
60277SOL     OW82604  12.863  11.228   1.925
60277SOL    HW182605  12.886  11.291   1.856
60277SOL    HW282606  12.921  11.154   1.910
60278SOL     OW82607  13.774   0.672  14.401
60278SOL    HW182608  13.793   0.691  14.309
60278SOL    HW282609  13.841   0.718  14.450
60279SOL     OW82610   2.382   6.315   8.238
60279SOL    HW182611   2.475   6.293   8.243
60279SOL    HW282612   2.372   6.355   8.151
60280SOL     OW82613  14.823  14.085  11.199
60280SOL    HW182614  14.871  14.053  11.123
60280SOL    HW282615  14.732  14.059  11.183
60281SOL     OW82616  11.712  14.146   7.531
60281SOL    HW182617  11.665  14.203   7.470
60281SOL    HW282618  11.758  14.206   7.589
60282SOL     OW82619   3.160   4.771  14.542
60282SOL    HW182620   3.080   4.800  14.586
60282SOL    HW282621   3.138   4.776  14.448
60283SOL     OW82622  13.550  14.411   0.625
60283SOL    HW182623  13.634  14.410   0.671
60283SOL    HW282624  13.558  14.341   0.560
60284SOL     OW82625   4.526  10.051   8.184
60284SOL    HW182626   4.469  10.114   8.229
60284SOL    HW282627   4.612  10.063   8.224
60285SOL     OW82628  13.772  12.703  13.455
60285SOL    HW182629  13.801  12.662  13.537
60285SOL    HW282630  13.694  12.654  13.431
60286SOL     OW82631  10.211   7.553   8.755
60286SOL    HW182632  10.299   7.539   8.790
60286SOL    HW282633  10.180   7.633   8.799
60287SOL     OW82634   2.813   8.240  10.438
60287SOL    HW182635   2.844   8.330  10.448
60287SOL    HW282636   2.839   8.216  10.349
60288SOL     OW82637  10.030  10.750   9.791
60288SOL    HW182638  10.077  10.703   9.860
60288SOL    HW282639  10.016  10.837   9.827
60289SOL     OW82640   5.878  11.138   8.672
60289SOL    HW182641   5.898  11.216   8.724
60289SOL    HW282642   5.863  11.171   8.583
60290SOL     OW82643  13.284   8.447   4.136
60290SOL    HW182644  13.207   8.451   4.079
60290SOL    HW282645  13.326   8.364   4.114
60291SOL     OW82646  10.781   1.979   9.168
60291SOL    HW182647  10.747   1.929   9.094
60291SOL    HW282648  10.794   1.915   9.237
60292SOL     OW82649  11.256   7.656  13.136
60292SOL    HW182650  11.231   7.578  13.087
60292SOL    HW282651  11.295   7.622  13.217
60293SOL     OW82652   5.381   6.901   1.847
60293SOL    HW182653   5.301   6.953   1.841
60293SOL    HW282654   5.382   6.848   1.767
60294SOL     OW82655   2.885  10.456  11.958
60294SOL    HW182656   2.847  10.428  12.041
60294SOL    HW282657   2.962  10.400  11.947
60295SOL     OW82658   4.603   6.899   4.193
60295SOL    HW182659   4.675   6.877   4.134
60295SOL    HW282660   4.552   6.819   4.200
60296SOL     OW82661  10.878   4.197   4.687
60296SOL    HW182662  10.830   4.253   4.749
60296SOL    HW282663  10.822   4.120   4.677
60297SOL     OW82664   6.912   5.865  11.258
60297SOL    HW182665   6.986   5.917  11.227
60297SOL    HW282666   6.948   5.813  11.329
60298SOL     OW82667   4.775   3.157  14.613
60298SOL    HW182668   4.804   3.134  14.525
60298SOL    HW282669   4.713   3.229  14.600
60299SOL     OW82670  14.220   7.261  13.139
60299SOL    HW182671  14.297   7.317  13.129
60299SOL    HW282672  14.146   7.317  13.118
60300SOL     OW82673   9.773   5.240   6.805
60300SOL    HW182674   9.765   5.270   6.896
60300SOL    HW282675   9.751   5.147   6.808
60301SOL     OW82676  13.580   7.882   6.773
60301SOL    HW182677  13.624   7.812   6.724
60301SOL    HW282678  13.499   7.842   6.804
60302SOL     OW82679   6.838  13.277  13.646
60302SOL    HW182680   6.774  13.336  13.684
60302SOL    HW282681   6.882  13.329  13.579
60303SOL     OW82682  13.181   3.202   4.620
60303SOL    HW182683  13.258   3.239   4.576
60303SOL    HW282684  13.129   3.165   4.549
60304SOL     OW82685   9.584  14.831   4.429
60304SOL    HW182686   9.510  14.843   4.488
60304SOL    HW282687   9.649  14.783   4.481
60305SOL     OW82688  10.603  13.878  10.626
60305SOL    HW182689  10.510  13.900  10.640
60305SOL    HW282690  10.627  13.925  10.547
60306SOL     OW82691  14.401   7.705   7.249
60306SOL    HW182692  14.353   7.639   7.299
60306SOL    HW282693  14.483   7.716   7.297
60307SOL     OW82694   5.265   4.625  13.762
60307SOL    HW182695   5.299   4.573  13.835
60307SOL    HW282696   5.222   4.561  13.705
60308SOL     OW82697   4.357   9.646  14.736
60308SOL    HW182698   4.305   9.646  14.817
60308SOL    HW282699   4.410   9.726  14.743
60309SOL     OW82700   5.902  11.919   5.494
60309SOL    HW182701   5.807  11.908   5.498
60309SOL    HW282702   5.916  11.977   5.419
60310SOL     OW82703  10.511   8.121  14.811
60310SOL    HW182704  10.424   8.083  14.801
60310SOL    HW282705  10.566   8.049  14.843
60311SOL     OW82706   9.961   9.110  10.584
60311SOL    HW182707   9.885   9.052  10.586
60311SOL    HW282708  10.029   9.059  10.540
60312SOL     OW82709  10.982   3.407   9.723
60312SOL    HW182710  10.971   3.368   9.809
60312SOL    HW282711  10.980   3.501   9.738
60313SOL     OW82712  13.774   6.971   3.316
60313SOL    HW182713  13.859   7.013   3.302
60313SOL    HW282714  13.710   7.034   3.283
60314SOL     OW82715   3.689   8.705  13.851
60314SOL    HW182716   3.649   8.777  13.900
60314SOL    HW282717   3.670   8.627  13.902
60315SOL     OW82718  12.651  10.364  12.637
60315SOL    HW182719  12.719  10.431  12.643
60315SOL    HW282720  12.590  10.386  12.707
60316SOL     OW82721  11.527  10.869   4.805
60316SOL    HW182722  11.567  10.821   4.877
60316SOL    HW282723  11.433  10.857   4.817
60317SOL     OW82724   7.613   5.400   2.185
60317SOL    HW182725   7.612   5.354   2.101
60317SOL    HW282726   7.523   5.431   2.196
60318SOL     OW82727   8.197  14.660  12.656
60318SOL    HW182728   8.176  14.616  12.738
60318SOL    HW282729   8.288  14.687  12.666
60319SOL     OW82730  14.313  12.579   2.210
60319SOL    HW182731  14.357  12.657   2.244
60319SOL    HW282732  14.295  12.600   2.118
60320SOL     OW82733   6.037   6.617   5.907
60320SOL    HW182734   5.982   6.631   5.830
60320SOL    HW282735   6.045   6.522   5.914
60321SOL     OW82736   8.028   4.413  10.731
60321SOL    HW182737   8.072   4.328  10.733
60321SOL    HW282738   8.009   4.432  10.823
60322SOL     OW82739   1.318  10.984   0.220
60322SOL    HW182740   1.237  11.023   0.251
60322SOL    HW282741   1.338  10.915   0.284
60323SOL     OW82742  12.641  11.729   9.343
60323SOL    HW182743  12.575  11.799   9.340
60323SOL    HW282744  12.605  11.660   9.287
60324SOL     OW82745   9.656   0.710  11.353
60324SOL    HW182746   9.632   0.791  11.307
60324SOL    HW282747   9.602   0.710  11.432
60325SOL     OW82748   1.036   3.528   9.688
60325SOL    HW182749   1.047   3.542   9.782
60325SOL    HW282750   0.981   3.601   9.659
60326SOL     OW82751   8.239   6.852   2.819
60326SOL    HW182752   8.155   6.893   2.841
60326SOL    HW282753   8.216   6.765   2.789
60327SOL     OW82754  11.143  13.775   6.859
60327SOL    HW182755  11.239  13.767   6.863
60327SOL    HW282756  11.113  13.736   6.941
60328SOL     OW82757   6.937  13.384   6.006
60328SOL    HW182758   6.864  13.338   5.966
60328SOL    HW282759   6.933  13.472   5.969
60329SOL     OW82760  14.787   6.067  11.381
60329SOL    HW182761  14.814   6.095  11.293
60329SOL    HW282762  14.850   5.999  11.405
60330SOL     OW82763   4.156  14.029  14.000
60330SOL    HW182764   4.180  13.943  13.965
60330SOL    HW282765   4.096  14.011  14.072
60331SOL     OW82766   0.798  13.299   5.174
60331SOL    HW182767   0.753  13.376   5.209
60331SOL    HW282768   0.804  13.239   5.249
60332SOL     OW82769  12.137  10.121   7.119
60332SOL    HW182770  12.168  10.030   7.111
60332SOL    HW282771  12.042  10.114   7.108
60333SOL     OW82772   5.422   7.804   1.326
60333SOL    HW182773   5.437   7.897   1.336
60333SOL    HW282774   5.499   7.762   1.366
60334SOL     OW82775   9.379   2.471   9.849
60334SOL    HW182776   9.420   2.386   9.834
60334SOL    HW282777   9.324   2.458   9.926
60335SOL     OW82778   3.850   3.722  10.049
60335SOL    HW182779   3.807   3.775   9.981
60335SOL    HW282780   3.876   3.786  10.115
60336SOL     OW82781   5.303   6.517   1.796
60336SOL    HW182782   5.313   6.422   1.804
60336SOL    HW282783   5.328   6.551   1.881
60337SOL     OW82784   9.948  10.494   1.376
60337SOL    HW182785   9.936  10.522   1.286
60337SOL    HW282786   9.895  10.415   1.385
60338SOL     OW82787   1.203  14.275  12.490
60338SOL    HW182788   1.195  14.204  12.426
60338SOL    HW282789   1.129  14.333  12.471
60339SOL     OW82790   7.312   3.015  10.212
60339SOL    HW182791   7.256   2.945  10.245
60339SOL    HW282792   7.393   2.971  10.187
60340SOL     OW82793  13.694   3.179  11.818
60340SOL    HW182794  13.666   3.088  11.807
60340SOL    HW282795  13.718   3.186  11.910
60341SOL     OW82796   0.931  13.242   1.336
60341SOL    HW182797   0.946  13.170   1.275
60341SOL    HW282798   0.857  13.213   1.390
60342SOL     OW82799  11.323   3.867   3.648
60342SOL    HW182800  11.346   3.888   3.738
60342SOL    HW282801  11.401   3.888   3.598
60343SOL     OW82802   0.890  11.790   8.848
60343SOL    HW182803   0.975  11.788   8.892
60343SOL    HW282804   0.847  11.708   8.874
60344SOL     OW82805  14.726   2.228  14.771
60344SOL    HW182806  14.686   2.315  14.769
60344SOL    HW282807  14.819   2.244  14.755
60345SOL     OW82808   7.465  12.370  12.821
60345SOL    HW182809   7.527  12.298  12.830
60345SOL    HW282810   7.441  12.393  12.910
60346SOL     OW82811   8.553   0.081   0.993
60346SOL    HW182812   8.512   0.129   1.065
60346SOL    HW282813   8.620   0.142   0.960
60347SOL     OW82814  14.456  12.389   0.281
60347SOL    HW182815  14.369  12.378   0.244
60347SOL    HW282816  14.492  12.300   0.287
60348SOL     OW82817   0.757   6.687   5.367
60348SOL    HW182818   0.685   6.624   5.377
60348SOL    HW282819   0.831   6.647   5.413
60349SOL     OW82820   9.828  13.457  10.068
60349SOL    HW182821   9.896  13.515  10.105
60349SOL    HW282822   9.864  13.369  10.080
60350SOL     OW82823   8.071   3.043  11.015
60350SOL    HW182824   7.996   3.000  11.057
60350SOL    HW282825   8.147   3.008  11.060
60351SOL     OW82826  11.429   4.236   5.773
60351SOL    HW182827  11.525   4.233   5.773
60351SOL    HW282828  11.407   4.277   5.857
60352SOL     OW82829   4.429   1.374  13.768
60352SOL    HW182830   4.345   1.418  13.784
60352SOL    HW282831   4.494   1.432  13.806
60353SOL     OW82832   3.364   9.907   2.242
60353SOL    HW182833   3.413   9.883   2.164
60353SOL    HW282834   3.369   9.830   2.298
60354SOL     OW82835  11.061   2.717  13.147
60354SOL    HW182836  11.079   2.676  13.063
60354SOL    HW282837  11.016   2.649  13.197
60355SOL     OW82838   4.649   4.757  11.058
60355SOL    HW182839   4.742   4.775  11.048
60355SOL    HW282840   4.637   4.742  11.151
60356SOL     OW82841   2.661   7.723   5.056
60356SOL    HW182842   2.644   7.762   5.141
60356SOL    HW282843   2.666   7.797   4.996
60357SOL     OW82844  13.550   9.612   5.149
60357SOL    HW182845  13.577   9.561   5.225
60357SOL    HW282846  13.627   9.614   5.093
60358SOL     OW82847   8.814   4.852  13.223
60358SOL    HW182848   8.760   4.898  13.159
60358SOL    HW282849   8.880   4.916  13.250
60359SOL     OW82850   4.886  13.136   8.745
60359SOL    HW182851   4.936  13.184   8.678
60359SOL    HW282852   4.798  13.174   8.740
60360SOL     OW82853   1.012   5.906   1.492
60360SOL    HW182854   0.973   5.840   1.435
60360SOL    HW282855   0.945   5.924   1.558
60361SOL     OW82856  14.023   6.611  13.941
60361SOL    HW182857  13.996   6.541  14.000
60361SOL    HW282858  14.076   6.568  13.874
60362SOL     OW82859  13.962   9.887  13.964
60362SOL    HW182860  14.016   9.823  13.918
60362SOL    HW282861  14.024   9.938  14.016
60363SOL     OW82862   8.191   5.253   1.292
60363SOL    HW182863   8.238   5.208   1.363
60363SOL    HW282864   8.196   5.193   1.218
60364SOL     OW82865  13.370   2.272   8.459
60364SOL    HW182866  13.433   2.219   8.409
60364SOL    HW282867  13.416   2.354   8.475
60365SOL     OW82868   7.147   9.300  12.906
60365SOL    HW182869   7.236   9.302  12.872
60365SOL    HW282870   7.135   9.386  12.947
60366SOL     OW82871   2.607   2.102   4.612
60366SOL    HW182872   2.637   2.185   4.576
60366SOL    HW282873   2.591   2.120   4.705
60367SOL     OW82874   0.662  12.516   0.516
60367SOL    HW182875   0.747  12.555   0.535
60367SOL    HW282876   0.670  12.484   0.426
60368SOL     OW82877  10.198   0.137  11.770
60368SOL    HW182878  10.221   0.081  11.697
60368SOL    HW282879  10.195   0.078  11.846
60369SOL     OW82880   8.541  11.971   6.296
60369SOL    HW182881   8.555  12.023   6.216
60369SOL    HW282882   8.446  11.969   6.306
60370SOL     OW82883   4.064   2.476  10.650
60370SOL    HW182884   3.983   2.515  10.681
60370SOL    HW282885   4.052   2.382  10.665
60371SOL     OW82886   0.559   3.619   3.568
60371SOL    HW182887   0.464   3.602   3.569
60371SOL    HW282888   0.570   3.690   3.505
60372SOL     OW82889  13.724  12.483  13.988
60372SOL    HW182890  13.639  12.490  14.031
60372SOL    HW282891  13.712  12.417  13.920
60373SOL     OW82892   6.022   3.355  11.824
60373SOL    HW182893   5.981   3.368  11.739
60373SOL    HW282894   5.953   3.319  11.880
60374SOL     OW82895  13.194   9.094   1.940
60374SOL    HW182896  13.228   9.131   1.858
60374SOL    HW282897  13.136   9.162   1.975
60375SOL     OW82898   4.491   3.950   3.074
60375SOL    HW182899   4.496   4.022   3.136
60375SOL    HW282900   4.564   3.964   3.014
60376SOL     OW82901   4.525   0.272  11.385
60376SOL    HW182902   4.490   0.188  11.415
60376SOL    HW282903   4.449   0.328  11.375
60377SOL     OW82904   0.229   6.565  11.340
60377SOL    HW182905   0.222   6.578  11.435
60377SOL    HW282906   0.313   6.522  11.328
60378SOL     OW82907   7.073  11.829  11.765
60378SOL    HW182908   7.032  11.912  11.788
60378SOL    HW282909   7.001  11.775  11.731
60379SOL     OW82910  11.814  13.701  11.060
60379SOL    HW182911  11.773  13.627  11.014
60379SOL    HW282912  11.852  13.755  10.990
60380SOL     OW82913   0.337   7.538   6.250
60380SOL    HW182914   0.421   7.518   6.210
60380SOL    HW282915   0.326   7.473   6.319
60381SOL     OW82916   3.689  11.180  10.140
60381SOL    HW182917   3.668  11.178  10.233
60381SOL    HW282918   3.718  11.091  10.120
60382SOL     OW82919   5.646   8.467   4.228
60382SOL    HW182920   5.700   8.546   4.231
60382SOL    HW282921   5.635   8.443   4.320
60383SOL     OW82922  10.768   6.032   9.815
60383SOL    HW182923  10.749   6.066   9.727
60383SOL    HW282924  10.833   6.092   9.851
60384SOL     OW82925  14.470   7.099   7.814
60384SOL    HW182926  14.456   7.004   7.806
60384SOL    HW282927  14.506   7.110   7.902
60385SOL     OW82928  11.320   8.721  12.038
60385SOL    HW182929  11.395   8.740  11.981
60385SOL    HW282930  11.302   8.804  12.082
60386SOL     OW82931   1.266   9.142  13.866
60386SOL    HW182932   1.186   9.195  13.867
60386SOL    HW282933   1.318   9.179  13.795
60387SOL     OW82934   6.163   2.652   0.387
60387SOL    HW182935   6.126   2.604   0.461
60387SOL    HW282936   6.193   2.734   0.425
60388SOL     OW82937  13.765  12.549  12.162
60388SOL    HW182938  13.686  12.510  12.201
60388SOL    HW282939  13.831  12.544  12.231
60389SOL     OW82940   7.017   5.941  11.806
60389SOL    HW182941   6.949   5.881  11.839
60389SOL    HW282942   7.011   6.017  11.863
60390SOL     OW82943  12.190   9.091   9.134
60390SOL    HW182944  12.214   9.131   9.217
60390SOL    HW282945  12.099   9.117   9.120
60391SOL     OW82946  13.828   1.715  14.018
60391SOL    HW182947  13.800   1.791  13.967
60391SOL    HW282948  13.923   1.727  14.029
60392SOL     OW82949  14.438   6.697  12.736
60392SOL    HW182950  14.504   6.643  12.693
60392SOL    HW282951  14.355   6.667  12.699
60393SOL     OW82952  14.130   1.706   4.932
60393SOL    HW182953  14.218   1.699   4.895
60393SOL    HW282954  14.137   1.776   4.996
60394SOL     OW82955   4.334   1.173   0.826
60394SOL    HW182956   4.281   1.244   0.789
60394SOL    HW282957   4.398   1.154   0.758
60395SOL     OW82958   1.651   4.193   7.430
60395SOL    HW182959   1.691   4.255   7.491
60395SOL    HW282960   1.635   4.115   7.482
60396SOL     OW82961  14.087  12.989  12.726
60396SOL    HW182962  14.072  13.065  12.670
60396SOL    HW282963  14.148  13.021  12.793
60397SOL     OW82964   2.156  10.547   8.580
60397SOL    HW182965   2.171  10.457   8.609
60397SOL    HW282966   2.222  10.562   8.513
60398SOL     OW82967   5.780   5.120   5.250
60398SOL    HW182968   5.818   5.077   5.173
60398SOL    HW282969   5.854   5.130   5.310
60399SOL     OW82970   2.324   5.521   8.888
60399SOL    HW182971   2.262   5.578   8.843
60399SOL    HW282972   2.287   5.509   8.976
60400SOL     OW82973   0.764  10.881  13.700
60400SOL    HW182974   0.793  10.948  13.638
60400SOL    HW282975   0.832  10.879  13.767
60401SOL     OW82976   4.983  12.709  11.685
60401SOL    HW182977   4.977  12.675  11.774
60401SOL    HW282978   5.073  12.691  11.658
60402SOL     OW82979   7.669  14.505  10.201
60402SOL    HW182980   7.702  14.521  10.289
60402SOL    HW282981   7.621  14.584  10.178
60403SOL     OW82982   3.320   1.715  10.141
60403SOL    HW182983   3.355   1.685  10.224
60403SOL    HW282984   3.369   1.667  10.075
60404SOL     OW82985   1.588  11.001   1.863
60404SOL    HW182986   1.500  10.997   1.901
60404SOL    HW282987   1.612  11.093   1.870
60405SOL     OW82988   2.499   7.337   5.317
60405SOL    HW182989   2.585   7.296   5.322
60405SOL    HW282990   2.513   7.427   5.346
60406SOL     OW82991   6.375   0.467   4.407
60406SOL    HW182992   6.349   0.375   4.415
60406SOL    HW282993   6.296   0.511   4.374
60407SOL     OW82994   0.109   7.253   0.073
60407SOL    HW182995   0.034   7.211   0.030
60407SOL    HW282996   0.104   7.345   0.047
60408SOL     OW82997   5.686   4.812   1.635
60408SOL    HW182998   5.696   4.907   1.635
60408SOL    HW282999   5.626   4.795   1.708
60409SOL     OW83000  13.504   2.374   1.648
60409SOL    HW183001  13.414   2.360   1.675
60409SOL    HW283002  13.499   2.393   1.554
60410SOL     OW83003   6.636   8.025   8.600
60410SOL    HW183004   6.671   8.080   8.530
60410SOL    HW283005   6.707   8.021   8.664
60411SOL     OW83006   2.171  13.079   8.559
60411SOL    HW183007   2.175  13.034   8.474
60411SOL    HW283008   2.082  13.114   8.563
60412SOL     OW83009   8.953   3.249   0.559
60412SOL    HW183010   8.890   3.196   0.607
60412SOL    HW283011   8.925   3.244   0.468
60413SOL     OW83012   0.392   1.094   4.122
60413SOL    HW183013   0.424   1.184   4.114
60413SOL    HW283014   0.298   1.101   4.107
60414SOL     OW83015   6.218   5.033   7.539
60414SOL    HW183016   6.273   5.012   7.614
60414SOL    HW283017   6.272   5.089   7.483
60415SOL     OW83018   4.257   1.180   7.797
60415SOL    HW183019   4.263   1.217   7.709
60415SOL    HW283020   4.257   1.257   7.855
60416SOL     OW83021   5.590   0.036   3.631
60416SOL    HW183022   5.676   0.007   3.661
60416SOL    HW283023   5.544  14.836   3.610
60417SOL     OW83024   5.006  12.226   8.517
60417SOL    HW183025   4.945  12.202   8.447
60417SOL    HW283026   5.091  12.192   8.488
60418SOL     OW83027  14.695   0.689   0.805
60418SOL    HW183028  14.631   0.620   0.791
60418SOL    HW283029  14.735   0.668   0.889
60419SOL     OW83030   9.713   4.320   4.695
60419SOL    HW183031   9.749   4.391   4.642
60419SOL    HW283032   9.626   4.351   4.721
60420SOL     OW83033   6.445  12.815   9.969
60420SOL    HW183034   6.352  12.797   9.976
60420SOL    HW283035   6.477  12.812  10.060
60421SOL     OW83036   5.615   9.376   3.469
60421SOL    HW183037   5.671   9.356   3.394
60421SOL    HW283038   5.664   9.346   3.545
60422SOL     OW83039  14.452  11.205   9.141
60422SOL    HW183040  14.539  11.184   9.109
60422SOL    HW283041  14.393  11.177   9.070
60423SOL     OW83042   7.998   2.965   2.510
60423SOL    HW183043   8.079   3.015   2.507
60423SOL    HW283044   7.965   2.968   2.420
60424SOL     OW83045   1.203  12.354   6.990
60424SOL    HW183046   1.116  12.393   6.981
60424SOL    HW283047   1.245  12.369   6.906
60425SOL     OW83048   6.888  10.099   5.315
60425SOL    HW183049   6.859  10.188   5.294
60425SOL    HW283050   6.972  10.090   5.271
60426SOL     OW83051   9.623   5.302   9.039
60426SOL    HW183052   9.697   5.364   9.035
60426SOL    HW283053   9.560   5.345   9.098
60427SOL     OW83054   8.394   7.319   3.564
60427SOL    HW183055   8.469   7.263   3.584
60427SOL    HW283056   8.393   7.325   3.469
60428SOL     OW83057  12.095  13.536   8.862
60428SOL    HW183058  12.115  13.630   8.857
60428SOL    HW283059  12.051  13.516   8.780
60429SOL     OW83060   3.530   0.174  10.740
60429SOL    HW183061   3.538   0.107  10.808
60429SOL    HW283062   3.551   0.129  10.659
60430SOL     OW83063   1.608   5.097   0.170
60430SOL    HW183064   1.594   5.006   0.145
60430SOL    HW283065   1.697   5.116   0.142
60431SOL     OW83066   2.626   0.992   4.021
60431SOL    HW183067   2.574   1.018   4.097
60431SOL    HW283068   2.576   0.922   3.980
60432SOL     OW83069   8.061  11.988   7.041
60432SOL    HW183070   8.055  12.039   6.959
60432SOL    HW283071   8.107  11.909   7.015
60433SOL     OW83072  13.480  13.407   7.900
60433SOL    HW183073  13.413  13.444   7.842
60433SOL    HW283074  13.496  13.320   7.865
60434SOL     OW83075   0.602   9.024  13.857
60434SOL    HW183076   0.522   9.078  13.863
60434SOL    HW283077   0.658   9.072  13.796
60435SOL     OW83078   9.862   6.062  12.617
60435SOL    HW183079   9.848   5.974  12.654
60435SOL    HW283080   9.785   6.078  12.563
60436SOL     OW83081   9.687   7.448   7.903
60436SOL    HW183082   9.651   7.533   7.929
60436SOL    HW283083   9.767   7.469   7.855
60437SOL     OW83084   2.471   5.939   0.216
60437SOL    HW183085   2.458   5.941   0.121
60437SOL    HW283086   2.555   5.895   0.229
60438SOL     OW83087   1.463  14.329  12.405
60438SOL    HW183088   1.506  14.343  12.489
60438SOL    HW283089   1.369  14.324  12.426
60439SOL     OW83090   6.481   2.866   5.337
60439SOL    HW183091   6.452   2.775   5.351
60439SOL    HW283092   6.405   2.910   5.299
60440SOL     OW83093   7.434   8.224   2.760
60440SOL    HW183094   7.528   8.221   2.776
60440SOL    HW283095   7.411   8.317   2.769
60441SOL     OW83096  13.485   5.735  13.570
60441SOL    HW183097  13.576   5.705  13.566
60441SOL    HW283098  13.435   5.663  13.530
60442SOL     OW83099  14.207   3.518  13.243
60442SOL    HW183100  14.113   3.535  13.254
60442SOL    HW283101  14.217   3.500  13.149
60443SOL     OW83102   8.922   9.457   7.757
60443SOL    HW183103   8.914   9.509   7.677
60443SOL    HW283104   9.009   9.418   7.752
60444SOL     OW83105   5.954   9.650  13.179
60444SOL    HW183106   5.965   9.678  13.088
60444SOL    HW283107   5.931   9.730  13.226
60445SOL     OW83108   8.284   6.854   8.347
60445SOL    HW183109   8.364   6.809   8.376
60445SOL    HW283110   8.253   6.900   8.425
60446SOL     OW83111   2.929   9.592   7.361
60446SOL    HW183112   2.938   9.565   7.270
60446SOL    HW283113   2.958   9.517   7.412
60447SOL     OW83114   7.805  11.315   7.319
60447SOL    HW183115   7.830  11.227   7.293
60447SOL    HW283116   7.840  11.325   7.408
60448SOL     OW83117   9.136   4.441   5.660
60448SOL    HW183118   9.066   4.415   5.719
60448SOL    HW283119   9.215   4.403   5.698
60449SOL     OW83120   0.586  12.430  10.522
60449SOL    HW183121   0.623  12.347  10.492
60449SOL    HW283122   0.542  12.467  10.445
60450SOL     OW83123   3.315   3.459  13.801
60450SOL    HW183124   3.382   3.517  13.765
60450SOL    HW283125   3.360   3.375  13.810
60451SOL     OW83126   2.768   5.774   2.907
60451SOL    HW183127   2.700   5.726   2.955
60451SOL    HW283128   2.816   5.707   2.859
60452SOL     OW83129  14.427   0.473   8.863
60452SOL    HW183130  14.375   0.406   8.818
60452SOL    HW283131  14.378   0.554   8.850
60453SOL     OW83132   2.775   8.294   7.920
60453SOL    HW183133   2.842   8.302   7.988
60453SOL    HW283134   2.714   8.366   7.938
60454SOL     OW83135   6.886  14.735   4.703
60454SOL    HW183136   6.947  14.797   4.741
60454SOL    HW283137   6.800  14.774   4.718
60455SOL     OW83138  13.647   8.876  13.264
60455SOL    HW183139  13.736   8.840  13.261
60455SOL    HW283140  13.656   8.964  13.229
60456SOL     OW83141   0.190   1.435  14.497
60456SOL    HW183142   0.181   1.526  14.527
60456SOL    HW283143   0.198   1.442  14.402
60457SOL     OW83144  13.218   7.844  10.396
60457SOL    HW183145  13.196   7.861  10.488
60457SOL    HW283146  13.229   7.749  10.391
60458SOL     OW83147   5.909   6.425  13.582
60458SOL    HW183148   5.838   6.389  13.529
60458SOL    HW283149   5.970   6.462  13.519
60459SOL     OW83150   7.941   3.572  12.370
60459SOL    HW183151   7.988   3.507  12.423
60459SOL    HW283152   7.848   3.557  12.391
60460SOL     OW83153  10.393   3.803   6.352
60460SOL    HW183154  10.458   3.779   6.418
60460SOL    HW283155  10.308   3.789   6.395
60461SOL     OW83156   6.741   9.676   2.744
60461SOL    HW183157   6.654   9.641   2.762
60461SOL    HW283158   6.774   9.623   2.672
60462SOL     OW83159   9.884   6.347   7.962
60462SOL    HW183160   9.855   6.266   8.004
60462SOL    HW283161   9.936   6.317   7.887
60463SOL     OW83162   8.375  10.847   7.983
60463SOL    HW183163   8.366  10.786   7.910
60463SOL    HW283164   8.337  10.929   7.951
60464SOL     OW83165   5.268   2.972   4.044
60464SOL    HW183166   5.348   2.968   3.992
60464SOL    HW283167   5.199   2.993   3.980
60465SOL     OW83168   1.481   5.742   1.472
60465SOL    HW183169   1.517   5.808   1.531
60465SOL    HW283170   1.555   5.686   1.451
60466SOL     OW83171   5.443   7.224  12.613
60466SOL    HW183172   5.422   7.193  12.525
60466SOL    HW283173   5.367   7.277  12.639
60467SOL     OW83174   4.618   2.606  14.874
60467SOL    HW183175   4.607   2.668   0.066
60467SOL    HW283176   4.705   2.627  14.839
60468SOL     OW83177   4.171   8.919   9.248
60468SOL    HW183178   4.083   8.881   9.251
60468SOL    HW283179   4.159   9.009   9.278
60469SOL     OW83180  13.871   9.192   6.508
60469SOL    HW183181  13.892   9.123   6.572
60469SOL    HW283182  13.956   9.231   6.486
60470SOL     OW83183  14.450   3.850   8.279
60470SOL    HW183184  14.395   3.798   8.338
60470SOL    HW283185  14.415   3.938   8.285
60471SOL     OW83186  10.371   1.410  14.784
60471SOL    HW183187  10.329   1.359  14.853
60471SOL    HW283188  10.464   1.405  14.804
60472SOL     OW83189   1.019   5.208   6.367
60472SOL    HW183190   0.941   5.199   6.421
60472SOL    HW283191   1.076   5.137   6.396
60473SOL     OW83192  11.124   3.018  13.451
60473SOL    HW183193  11.043   3.062  13.424
60473SOL    HW283194  11.099   2.965  13.526
60474SOL     OW83195   8.470   3.169   6.993
60474SOL    HW183196   8.383   3.183   7.031
60474SOL    HW283197   8.494   3.254   6.957
60475SOL     OW83198   3.110   4.187   6.622
60475SOL    HW183199   3.087   4.279   6.627
60475SOL    HW283200   3.036   4.146   6.578
60476SOL     OW83201   4.774   0.522   2.363
60476SOL    HW183202   4.740   0.598   2.411
60476SOL    HW283203   4.702   0.459   2.366
60477SOL     OW83204  12.427  14.207  14.015
60477SOL    HW183205  12.366  14.165  14.075
60477SOL    HW283206  12.483  14.261  14.071
60478SOL     OW83207   3.741   8.330   4.634
60478SOL    HW183208   3.825   8.359   4.672
60478SOL    HW283209   3.760   8.242   4.600
60479SOL     OW83210   0.344   5.077   1.059
60479SOL    HW183211   0.370   5.021   1.132
60479SOL    HW283212   0.270   5.031   1.019
60480SOL     OW83213  11.620  10.823  13.520
60480SOL    HW183214  11.593  10.838  13.429
60480SOL    HW283215  11.541  10.842  13.571
60481SOL     OW83216   3.005  14.443   8.396
60481SOL    HW183217   3.016  14.538   8.402
60481SOL    HW283218   3.094  14.409   8.387
60482SOL     OW83219  10.252  10.726  13.085
60482SOL    HW183220  10.204  10.697  13.007
60482SOL    HW283221  10.279  10.815  13.065
60483SOL     OW83222  13.142  12.905   8.888
60483SOL    HW183223  13.081  12.834   8.865
60483SOL    HW283224  13.228  12.866   8.877
60484SOL     OW83225   1.446   2.448   7.569
60484SOL    HW183226   1.379   2.499   7.523
60484SOL    HW283227   1.452   2.366   7.521
60485SOL     OW83228  11.808   8.278   7.361
60485SOL    HW183229  11.902   8.267   7.346
60485SOL    HW283230  11.799   8.278   7.456
60486SOL     OW83231  10.177   4.488   5.478
60486SOL    HW183232  10.255   4.435   5.461
60486SOL    HW283233  10.105   4.437   5.441
60487SOL     OW83234  14.000  13.124   8.668
60487SOL    HW183235  13.905  13.119   8.659
60487SOL    HW283236  14.014  13.160   8.756
60488SOL     OW83237  12.712   7.187  13.795
60488SOL    HW183238  12.771   7.159  13.726
60488SOL    HW283239  12.753   7.158  13.876
60489SOL     OW83240   8.685   2.113   2.058
60489SOL    HW183241   8.693   2.021   2.031
60489SOL    HW283242   8.594   2.135   2.041
60490SOL     OW83243  14.654   9.873  10.549
60490SOL    HW183244  14.733   9.856  10.601
60490SOL    HW283245  14.590   9.904  10.613
60491SOL     OW83246  12.804   4.318   4.403
60491SOL    HW183247  12.841   4.295   4.318
60491SOL    HW283248  12.839   4.405   4.421
60492SOL     OW83249  10.864   9.944  13.092
60492SOL    HW183250  10.783   9.955  13.042
60492SOL    HW283251  10.843   9.976  13.179
60493SOL     OW83252   6.997  13.850   1.682
60493SOL    HW183253   6.943  13.860   1.604
60493SOL    HW283254   6.981  13.761   1.712
60494SOL     OW83255   8.981  11.722   5.837
60494SOL    HW183256   9.005  11.756   5.923
60494SOL    HW283257   9.055  11.745   5.780
60495SOL     OW83258   2.808   9.860   9.661
60495SOL    HW183259   2.899   9.840   9.681
60495SOL    HW283260   2.804   9.860   9.565
60496SOL     OW83261   0.863   4.720   8.328
60496SOL    HW183262   0.902   4.777   8.394
60496SOL    HW283263   0.812   4.779   8.272
60497SOL     OW83264   2.087  13.475   9.825
60497SOL    HW183265   2.043  13.406   9.774
60497SOL    HW283266   2.017  13.534   9.851
60498SOL     OW83267  12.129   7.355   4.633
60498SOL    HW183268  12.080   7.429   4.668
60498SOL    HW283269  12.219   7.386   4.624
60499SOL     OW83270  12.512   7.210   0.135
60499SOL    HW183271  12.607   7.218   0.136
60499SOL    HW283272  12.480   7.300   0.126
60500SOL     OW83273   4.298  11.062  13.145
60500SOL    HW183274   4.246  11.103  13.077
60500SOL    HW283275   4.268  11.102  13.227
60501SOL     OW83276   0.166  13.334  12.519
60501SOL    HW183277   0.239  13.370  12.469
60501SOL    HW283278   0.162  13.388  12.598
60502SOL     OW83279  11.243   2.469   3.046
60502SOL    HW183280  11.310   2.529   3.012
60502SOL    HW283281  11.221   2.413   2.971
60503SOL     OW83282  11.482   3.638   7.757
60503SOL    HW183283  11.477   3.728   7.723
60503SOL    HW283284  11.548   3.642   7.826
60504SOL     OW83285   0.375   5.343  10.521
60504SOL    HW183286   0.372   5.327  10.615
60504SOL    HW283287   0.288   5.320  10.489
60505SOL     OW83288   2.639  11.946  12.023
60505SOL    HW183289   2.649  12.004  12.098
60505SOL    HW283290   2.694  11.985  11.955
60506SOL     OW83291   6.690   4.101   2.647
60506SOL    HW183292   6.730   4.018   2.674
60506SOL    HW283293   6.757   4.145   2.595
60507SOL     OW83294  13.056   3.663   2.343
60507SOL    HW183295  13.120   3.646   2.413
60507SOL    HW283296  13.101   3.637   2.263
60508SOL     OW83297  12.400   9.189   9.411
60508SOL    HW183298  12.458   9.221   9.480
60508SOL    HW283299  12.377   9.267   9.360
60509SOL     OW83300  12.126   9.052   6.397
60509SOL    HW183301  12.094   9.032   6.485
60509SOL    HW283302  12.050   9.087   6.351
60510SOL     OW83303   0.090  13.545   3.166
60510SOL    HW183304   0.153  13.537   3.238
60510SOL    HW283305   0.089  13.638   3.145
60511SOL     OW83306  10.732   5.531  11.689
60511SOL    HW183307  10.675   5.600  11.653
60511SOL    HW283308  10.806   5.579  11.727
60512SOL     OW83309  13.104  11.050   5.804
60512SOL    HW183310  13.049  11.077   5.731
60512SOL    HW283311  13.092  10.955   5.810
60513SOL     OW83312  14.281  11.216   4.612
60513SOL    HW183313  14.236  11.180   4.689
60513SOL    HW283314  14.260  11.155   4.542
60514SOL     OW83315   3.849  12.368   8.672
60514SOL    HW183316   3.816  12.285   8.706
60514SOL    HW283317   3.836  12.362   8.578
60515SOL     OW83318   3.484   2.331  10.550
60515SOL    HW183319   3.418   2.264  10.534
60515SOL    HW283320   3.553   2.285  10.599
60516SOL     OW83321   4.742   8.987   7.304
60516SOL    HW183322   4.768   9.050   7.237
60516SOL    HW283323   4.757   8.901   7.264
60517SOL     OW83324   6.643   5.880   4.334
60517SOL    HW183325   6.593   5.901   4.255
60517SOL    HW283326   6.581   5.893   4.406
60518SOL     OW83327   2.588   7.193  14.861
60518SOL    HW183328   2.511   7.224  14.814
60518SOL    HW283329   2.554   7.167   0.065
60519SOL     OW83330  13.227  12.140   1.505
60519SOL    HW183331  13.306  12.193   1.495
60519SOL    HW283332  13.182  12.178   1.580
60520SOL     OW83333   0.873  12.946   7.796
60520SOL    HW183334   0.902  12.941   7.705
60520SOL    HW283335   0.883  12.857   7.829
60521SOL     OW83336  13.159   9.092   2.501
60521SOL    HW183337  13.189   9.025   2.440
60521SOL    HW283338  13.208   9.074   2.582
60522SOL     OW83339   6.079   8.364   4.971
60522SOL    HW183340   6.096   8.410   4.889
60522SOL    HW283341   6.002   8.311   4.953
60523SOL     OW83342   2.868  13.169   9.332
60523SOL    HW183343   2.808  13.097   9.316
60523SOL    HW283344   2.874  13.175   9.427
60524SOL     OW83345   9.534   4.976   5.417
60524SOL    HW183346   9.620   5.000   5.383
60524SOL    HW283347   9.545   4.977   5.512
60525SOL     OW83348   2.778   1.417  13.651
60525SOL    HW183349   2.684   1.410  13.634
60525SOL    HW283350   2.785   1.428  13.745
60526SOL     OW83351  11.263  11.169  13.346
60526SOL    HW183352  11.180  11.209  13.322
60526SOL    HW283353  11.267  11.087  13.296
60527SOL     OW83354   0.255  12.196   4.215
60527SOL    HW183355   0.288  12.195   4.125
60527SOL    HW283356   0.266  12.106   4.245
60528SOL     OW83357  14.385   9.116   8.876
60528SOL    HW183358  14.306   9.169   8.882
60528SOL    HW283359  14.394   9.075   8.962
60529SOL     OW83360   0.683   7.529  10.440
60529SOL    HW183361   0.716   7.577  10.515
60529SOL    HW283362   0.602   7.575  10.416
60530SOL     OW83363   1.786   7.448   9.646
60530SOL    HW183364   1.762   7.540   9.636
60530SOL    HW283365   1.741   7.420   9.726
60531SOL     OW83366  10.170  14.712   8.881
60531SOL    HW183367  10.153  14.782   8.818
60531SOL    HW283368  10.163  14.754   8.967
60532SOL     OW83369   1.793   7.174   7.655
60532SOL    HW183370   1.847   7.095   7.659
60532SOL    HW283371   1.703   7.141   7.652
60533SOL     OW83372   0.832   5.881   4.085
60533SOL    HW183373   0.779   5.942   4.034
60533SOL    HW283374   0.893   5.843   4.022
60534SOL     OW83375   8.907   8.393   3.081
60534SOL    HW183376   8.952   8.319   3.041
60534SOL    HW283377   8.867   8.357   3.160
60535SOL     OW83378   5.964  11.412   2.694
60535SOL    HW183379   6.020  11.413   2.616
60535SOL    HW283380   5.879  11.445   2.663
60536SOL     OW83381  14.322   8.136   1.929
60536SOL    HW183382  14.396   8.117   1.986
60536SOL    HW283383  14.271   8.056   1.927
60537SOL     OW83384   5.455  14.634   4.225
60537SOL    HW183385   5.534  14.585   4.201
60537SOL    HW283386   5.388  14.601   4.165
60538SOL     OW83387  12.196  12.184  11.266
60538SOL    HW183388  12.194  12.094  11.299
60538SOL    HW283389  12.133  12.184  11.194
60539SOL     OW83390  14.542   9.320   8.741
60539SOL    HW183391  14.516   9.316   8.649
60539SOL    HW283392  14.474   9.271   8.787
60540SOL     OW83393   3.452   0.823   2.236
60540SOL    HW183394   3.408   0.801   2.154
60540SOL    HW283395   3.494   0.742   2.263
60541SOL     OW83396  11.432   0.405   8.202
60541SOL    HW183397  11.504   0.453   8.243
60541SOL    HW283398  11.459   0.314   8.205
60542SOL     OW83399   3.041   7.537  10.793
60542SOL    HW183400   3.036   7.550  10.698
60542SOL    HW283401   3.048   7.442  10.803
60543SOL     OW83402  12.263   9.316  14.471
60543SOL    HW183403  12.309   9.308  14.555
60543SOL    HW283404  12.286   9.236  14.423
60544SOL     OW83405   8.997   8.642   6.575
60544SOL    HW183406   8.975   8.550   6.562
60544SOL    HW283407   9.091   8.646   6.559
60545SOL     OW83408  14.768   1.248  12.622
60545SOL    HW183409  14.842   1.194  12.648
60545SOL    HW283410  14.700   1.185  12.598
60546SOL     OW83411   4.450   8.813   5.454
60546SOL    HW183412   4.400   8.741   5.415
60546SOL    HW283413   4.385   8.882   5.467
60547SOL     OW83414   3.540  13.141  13.527
60547SOL    HW183415   3.469  13.119  13.587
60547SOL    HW283416   3.496  13.180  13.451
60548SOL     OW83417  11.019   9.547   7.135
60548SOL    HW183418  11.003   9.634   7.099
60548SOL    HW283419  11.061   9.499   7.064
60549SOL     OW83420   3.082  12.108  14.213
60549SOL    HW183421   3.154  12.171  14.217
60549SOL    HW283422   3.008  12.159  14.179
60550SOL     OW83423   4.850   6.797  10.209
60550SOL    HW183424   4.876   6.713  10.173
60550SOL    HW283425   4.815   6.846  10.134
60551SOL     OW83426  13.539  14.537  11.597
60551SOL    HW183427  13.457  14.530  11.549
60551SOL    HW283428  13.576  14.448  11.595
60552SOL     OW83429   5.618   9.505   7.726
60552SOL    HW183430   5.558   9.431   7.740
60552SOL    HW283431   5.625   9.546   7.812
60553SOL     OW83432   3.981   8.067   2.110
60553SOL    HW183433   4.034   7.989   2.092
60553SOL    HW283434   3.947   8.093   2.024
60554SOL     OW83435  12.084   4.687   6.110
60554SOL    HW183436  12.064   4.758   6.172
60554SOL    HW283437  12.073   4.727   6.024
60555SOL     OW83438   3.434   7.815   2.952
60555SOL    HW183439   3.341   7.801   2.973
60555SOL    HW283440   3.479   7.808   3.036
60556SOL     OW83441   8.331   0.781   2.855
60556SOL    HW183442   8.238   0.772   2.876
60556SOL    HW283443   8.377   0.743   2.930
60557SOL     OW83444  14.202   9.349   4.058
60557SOL    HW183445  14.214   9.382   4.147
60557SOL    HW283446  14.290   9.325   4.028
60558SOL     OW83447  12.631   7.705   6.281
60558SOL    HW183448  12.554   7.717   6.226
60558SOL    HW283449  12.696   7.665   6.223
60559SOL     OW83450   1.861  13.069   5.447
60559SOL    HW183451   1.827  13.110   5.527
60559SOL    HW283452   1.801  13.097   5.378
60560SOL     OW83453   2.944   1.423  12.329
60560SOL    HW183454   2.901   1.338  12.339
60560SOL    HW283455   2.872   1.484  12.314
60561SOL     OW83456   2.020  13.646   7.412
60561SOL    HW183457   2.060  13.560   7.428
60561SOL    HW283458   1.938  13.627   7.366
60562SOL     OW83459   4.380   1.227   1.109
60562SOL    HW183460   4.357   1.202   1.019
60562SOL    HW283461   4.346   1.316   1.119
60563SOL     OW83462   8.712   6.819   1.740
60563SOL    HW183463   8.680   6.844   1.827
60563SOL    HW283464   8.638   6.836   1.682
60564SOL     OW83465  11.667   7.691  12.834
60564SOL    HW183466  11.762   7.687  12.824
60564SOL    HW283467  11.640   7.766  12.781
60565SOL     OW83468   2.226   6.893   4.280
60565SOL    HW183469   2.156   6.958   4.274
60565SOL    HW283470   2.233   6.858   4.191
60566SOL     OW83471   6.229   6.577   9.387
60566SOL    HW183472   6.267   6.649   9.438
60566SOL    HW283473   6.197   6.516   9.452
60567SOL     OW83474   3.188   6.952   1.828
60567SOL    HW183475   3.267   6.978   1.874
60567SOL    HW283476   3.126   7.023   1.844
60568SOL     OW83477   3.272  14.864   8.793
60568SOL    HW183478   3.322  14.803   8.848
60568SOL    HW283479   3.184  14.827   8.789
60569SOL     OW83480  13.746  14.056  11.010
60569SOL    HW183481  13.834  14.095  11.011
60569SOL    HW283482  13.703  14.095  10.934
60570SOL     OW83483   5.394  12.322   4.905
60570SOL    HW183484   5.361  12.267   4.835
60570SOL    HW283485   5.425  12.401   4.860
60571SOL     OW83486   5.979  14.209   1.735
60571SOL    HW183487   6.020  14.272   1.676
60571SOL    HW283488   6.017  14.125   1.709
60572SOL     OW83489   7.043   7.245   8.543
60572SOL    HW183490   6.956   7.205   8.542
60572SOL    HW283491   7.086   7.208   8.620
60573SOL     OW83492   8.551   2.977  14.100
60573SOL    HW183493   8.639   3.003  14.073
60573SOL    HW283494   8.563   2.937  14.186
60574SOL     OW83495   5.734   6.446   0.799
60574SOL    HW183496   5.739   6.351   0.784
60574SOL    HW283497   5.640   6.465   0.802
60575SOL     OW83498   3.011  11.002   1.723
60575SOL    HW183499   2.960  10.985   1.803
60575SOL    HW283500   3.097  11.030   1.755
60576SOL     OW83501   2.043  14.154   3.368
60576SOL    HW183502   2.039  14.061   3.346
60576SOL    HW283503   2.137  14.174   3.370
60577SOL     OW83504   8.665  10.328   9.390
60577SOL    HW183505   8.665  10.321   9.486
60577SOL    HW283506   8.642  10.240   9.360
60578SOL     OW83507  10.668   2.562  11.271
60578SOL    HW183508  10.576   2.587  11.281
60578SOL    HW283509  10.690   2.519  11.354
60579SOL     OW83510   8.535   7.177  13.919
60579SOL    HW183511   8.499   7.216  13.840
60579SOL    HW283512   8.576   7.250  13.965
60580SOL     OW83513   3.205  12.429  13.211
60580SOL    HW183514   3.157  12.509  13.231
60580SOL    HW283515   3.291  12.460  13.183
60581SOL     OW83516  10.820   5.582   9.891
60581SOL    HW183517  10.842   5.530   9.968
60581SOL    HW283518  10.799   5.517   9.824
60582SOL     OW83519  10.218   2.762   7.953
60582SOL    HW183520  10.202   2.772   8.047
60582SOL    HW283521  10.290   2.699   7.947
60583SOL     OW83522   3.429  10.025   6.961
60583SOL    HW183523   3.524  10.019   6.953
60583SOL    HW283524   3.397  10.026   6.870
60584SOL     OW83525  11.594   0.740  11.070
60584SOL    HW183526  11.522   0.740  11.133
60584SOL    HW283527  11.608   0.832  11.050
60585SOL     OW83528   7.295   8.701   8.284
60585SOL    HW183529   7.266   8.724   8.196
60585SOL    HW283530   7.351   8.774   8.311
60586SOL     OW83531  12.920  14.881   2.690
60586SOL    HW183532  12.932  14.879   2.594
60586SOL    HW283533  12.946  14.793   2.718
60587SOL     OW83534   7.604   0.457   5.896
60587SOL    HW183535   7.642   0.473   5.982
60587SOL    HW283536   7.654   0.383   5.861
60588SOL     OW83537  12.314   2.256   1.170
60588SOL    HW183538  12.259   2.327   1.136
60588SOL    HW283539  12.354   2.217   1.092
60589SOL     OW83540   6.111   7.707   1.264
60589SOL    HW183541   6.016   7.719   1.263
60589SOL    HW283542   6.139   7.738   1.350
60590SOL     OW83543   2.387   5.432  12.801
60590SOL    HW183544   2.347   5.519  12.803
60590SOL    HW283545   2.434   5.429  12.718
60591SOL     OW83546  13.546  14.274   2.214
60591SOL    HW183547  13.614  14.217   2.249
60591SOL    HW283548  13.559  14.272   2.119
60592SOL     OW83549   2.664   6.098  10.345
60592SOL    HW183550   2.590   6.152  10.319
60592SOL    HW283551   2.626   6.012  10.362
60593SOL     OW83552   9.880   9.317   1.479
60593SOL    HW183553   9.839   9.333   1.394
60593SOL    HW283554   9.917   9.401   1.504
60594SOL     OW83555  10.493   5.930  14.793
60594SOL    HW183556  10.446   5.852  14.824
60594SOL    HW283557  10.533   5.967  14.871
60595SOL     OW83558   7.748   0.158  10.980
60595SOL    HW183559   7.711   0.092  10.922
60595SOL    HW283560   7.679   0.175  11.044
60596SOL     OW83561  12.461   0.327  10.334
60596SOL    HW183562  12.522   0.359  10.268
60596SOL    HW283563  12.505   0.251  10.372
60597SOL     OW83564   0.062   9.858   8.961
60597SOL    HW183565  14.864   9.863   9.015
60597SOL    HW283566   0.134   9.873   9.023
60598SOL     OW83567   3.983   4.972   4.520
60598SOL    HW183568   4.075   4.948   4.530
60598SOL    HW283569   3.984   5.068   4.510
60599SOL     OW83570   3.577   2.733  13.357
60599SOL    HW183571   3.574   2.713  13.263
60599SOL    HW283572   3.617   2.821  13.361
60600SOL     OW83573   2.907   4.047  11.054
60600SOL    HW183574   2.906   4.002  10.969
60600SOL    HW283575   2.815   4.070  11.070
60601SOL     OW83576   7.687  11.181   5.355
60601SOL    HW183577   7.645  11.255   5.399
60601SOL    HW283578   7.734  11.136   5.425
60602SOL     OW83579  11.343   4.720   5.727
60602SOL    HW183580  11.424   4.738   5.678
60602SOL    HW283581  11.371   4.706   5.817
60603SOL     OW83582  11.167   1.610  11.689
60603SOL    HW183583  11.236   1.661  11.731
60603SOL    HW283584  11.212   1.553  11.628
60604SOL     OW83585  11.520   5.599  11.644
60604SOL    HW183586  11.453   5.666  11.657
60604SOL    HW283587  11.503   5.565  11.556
60605SOL     OW83588  11.030   6.041   7.451
60605SOL    HW183589  10.969   5.987   7.401
60605SOL    HW283590  10.985   6.056   7.534
60606SOL     OW83591   3.523   7.828   3.245
60606SOL    HW183592   3.618   7.830   3.260
60606SOL    HW283593   3.489   7.775   3.317
60607SOL     OW83594  11.076   1.909  14.640
60607SOL    HW183595  11.085   1.843  14.571
60607SOL    HW283596  10.982   1.925  14.645
60608SOL     OW83597   3.600  12.503   5.409
60608SOL    HW183598   3.657  12.479   5.483
60608SOL    HW283599   3.542  12.569   5.445
60609SOL     OW83600  12.059  12.853   8.896
60609SOL    HW183601  12.124  12.897   8.842
60609SOL    HW283602  12.032  12.777   8.844
60610SOL     OW83603   2.660   9.761   5.478
60610SOL    HW183604   2.597   9.798   5.417
60610SOL    HW283605   2.697   9.836   5.524
60611SOL     OW83606  14.605  11.570   7.917
60611SOL    HW183607  14.607  11.512   7.841
60611SOL    HW283608  14.689  11.557   7.960
60612SOL     OW83609   0.432   0.465  12.157
60612SOL    HW183610   0.443   0.555  12.189
60612SOL    HW283611   0.464   0.410  12.229
60613SOL     OW83612   1.751   0.271  12.275
60613SOL    HW183613   1.713   0.291  12.189
60613SOL    HW283614   1.675   0.248  12.329
60614SOL     OW83615  13.841   9.686   8.883
60614SOL    HW183616  13.929   9.666   8.914
60614SOL    HW283617  13.816   9.611   8.829
60615SOL     OW83618   0.313   2.022   2.267
60615SOL    HW183619   0.325   2.078   2.191
60615SOL    HW283620   0.383   2.047   2.327
60616SOL     OW83621   7.767   9.145   4.543
60616SOL    HW183622   7.839   9.128   4.603
60616SOL    HW283623   7.779   9.236   4.516
60617SOL     OW83624  12.218   8.977   6.655
60617SOL    HW183625  12.280   8.921   6.608
60617SOL    HW283626  12.219   8.944   6.745
60618SOL     OW83627  12.455   9.563   9.700
60618SOL    HW183628  12.372   9.576   9.746
60618SOL    HW283629  12.467   9.643   9.649
60619SOL     OW83630   8.726  13.431  13.158
60619SOL    HW183631   8.732  13.526  13.164
60619SOL    HW283632   8.687  13.414  13.073
60620SOL     OW83633   2.467   0.231   1.768
60620SOL    HW183634   2.447   0.244   1.861
60620SOL    HW283635   2.469   0.320   1.732
60621SOL     OW83636  10.373   1.953  14.699
60621SOL    HW183637  10.286   1.993  14.687
60621SOL    HW283638  10.362   1.895  14.775
60622SOL     OW83639   7.136   2.301   7.091
60622SOL    HW183640   7.134   2.228   7.029
60622SOL    HW283641   7.144   2.259   7.177
60623SOL     OW83642  13.573   8.052  12.301
60623SOL    HW183643  13.524   8.132  12.322
60623SOL    HW283644  13.611   8.069  12.215
60624SOL     OW83645   8.385   4.835   7.263
60624SOL    HW183646   8.404   4.790   7.180
60624SOL    HW283647   8.292   4.857   7.257
60625SOL     OW83648   1.768   4.175   8.290
60625SOL    HW183649   1.741   4.140   8.205
60625SOL    HW283650   1.695   4.154   8.348
60626SOL     OW83651   5.288   2.498   1.364
60626SOL    HW183652   5.248   2.478   1.449
60626SOL    HW283653   5.257   2.586   1.342
60627SOL     OW83654   8.651  10.964   6.260
60627SOL    HW183655   8.637  11.055   6.233
60627SOL    HW283656   8.659  10.968   6.355
60628SOL     OW83657   6.177   0.929   7.696
60628SOL    HW183658   6.176   0.893   7.607
60628SOL    HW283659   6.111   0.999   7.694
60629SOL     OW83660  14.733  12.862  12.923
60629SOL    HW183661  14.744  12.768  12.906
60629SOL    HW283662  14.775  12.875  13.008
60630SOL     OW83663   0.073   5.314   3.190
60630SOL    HW183664   0.051   5.263   3.267
60630SOL    HW283665   0.079   5.250   3.119
60631SOL     OW83666  10.014   5.604   3.266
60631SOL    HW183667   9.939   5.655   3.235
60631SOL    HW283668  10.090   5.650   3.231
60632SOL     OW83669   8.428  11.470  11.769
60632SOL    HW183670   8.434  11.558  11.734
60632SOL    HW283671   8.368  11.477  11.843
60633SOL     OW83672  12.026  13.101   8.580
60633SOL    HW183673  11.976  13.150   8.513
60633SOL    HW283674  12.003  13.144   8.662
60634SOL     OW83675   3.544  11.398  10.224
60634SOL    HW183676   3.570  11.336  10.155
60634SOL    HW283677   3.571  11.355  10.305
60635SOL     OW83678  10.150   9.770   3.900
60635SOL    HW183679  10.155   9.837   3.969
60635SOL    HW283680  10.194   9.811   3.825
60636SOL     OW83681  14.769  14.227   1.625
60636SOL    HW183682  14.698  14.288   1.604
60636SOL    HW283683  14.758  14.155   1.562
60637SOL     OW83684  13.355  10.847   2.489
60637SOL    HW183685  13.261  10.831   2.474
60637SOL    HW283686  13.374  10.800   2.570
60638SOL     OW83687   1.422   6.448  12.856
60638SOL    HW183688   1.458   6.383  12.917
60638SOL    HW283689   1.414   6.401  12.773
60639SOL     OW83690   6.130  12.606  11.444
60639SOL    HW183691   6.158  12.518  11.470
60639SOL    HW283692   6.212  12.655  11.437
60640SOL     OW83693   0.658  12.201   9.627
60640SOL    HW183694   0.649  12.130   9.690
60640SOL    HW283695   0.728  12.256   9.661
60641SOL     OW83696   2.852   3.586   8.069
60641SOL    HW183697   2.819   3.665   8.111
60641SOL    HW283698   2.850   3.607   7.975
60642SOL     OW83699   7.184  13.530   2.676
60642SOL    HW183700   7.169  13.445   2.636
60642SOL    HW283701   7.260  13.565   2.630
60643SOL     OW83702  11.156   5.615  12.793
60643SOL    HW183703  11.196   5.625  12.706
60643SOL    HW283704  11.069   5.654  12.784
60644SOL     OW83705   6.479   8.717   4.176
60644SOL    HW183706   6.396   8.676   4.202
60644SOL    HW283707   6.520   8.743   4.259
60645SOL     OW83708   1.245   1.165   1.357
60645SOL    HW183709   1.182   1.137   1.291
60645SOL    HW283710   1.269   1.254   1.331
60646SOL     OW83711   7.620   1.830   8.778
60646SOL    HW183712   7.681   1.901   8.759
60646SOL    HW283713   7.575   1.815   8.695
60647SOL     OW83714  10.070  14.361   1.792
60647SOL    HW183715   9.999  14.304   1.821
60647SOL    HW283716  10.143  14.340   1.850
60648SOL     OW83717  12.553   3.249   0.460
60648SOL    HW183718  12.497   3.231   0.536
60648SOL    HW283719  12.640   3.218   0.486
60649SOL     OW83720  10.464   4.253   8.423
60649SOL    HW183721  10.403   4.323   8.399
60649SOL    HW283722  10.472   4.201   8.344
60650SOL     OW83723  13.376   9.188  12.101
60650SOL    HW183724  13.430   9.225  12.171
60650SOL    HW283725  13.344   9.105  12.138
60651SOL     OW83726   4.674   3.502  10.821
60651SOL    HW183727   4.615   3.461  10.758
60651SOL    HW283728   4.617   3.535  10.890
60652SOL     OW83729  13.560  10.027   3.348
60652SOL    HW183730  13.549  10.122   3.350
60652SOL    HW283731  13.643  10.011   3.393
60653SOL     OW83732   2.234   0.272   0.259
60653SOL    HW183733   2.251   0.179   0.242
60653SOL    HW283734   2.246   0.281   0.354
60654SOL     OW83735  10.338   3.893  14.614
60654SOL    HW183736  10.315   3.985  14.604
60654SOL    HW283737  10.273   3.859  14.675
60655SOL     OW83738  10.080  10.990   4.665
60655SOL    HW183739  10.050  11.034   4.744
60655SOL    HW283740  10.022  11.022   4.595
60656SOL     OW83741   0.599   4.805  10.585
60656SOL    HW183742   0.637   4.880  10.540
60656SOL    HW283743   0.626   4.729  10.532
60657SOL     OW83744  12.953  10.037  10.370
60657SOL    HW183745  12.986  10.125  10.390
60657SOL    HW283746  12.933  10.000  10.456
60658SOL     OW83747   8.588   3.081  10.672
60658SOL    HW183748   8.511   3.125  10.706
60658SOL    HW283749   8.554   3.008  10.621
60659SOL     OW83750  14.277   8.289   3.574
60659SOL    HW183751  14.327   8.364   3.543
60659SOL    HW283752  14.326   8.213   3.544
60660SOL     OW83753   3.821   3.181  12.748
60660SOL    HW183754   3.784   3.097  12.720
60660SOL    HW283755   3.815   3.237  12.671
60661SOL     OW83756   0.809  12.042   5.856
60661SOL    HW183757   0.844  12.084   5.935
60661SOL    HW283758   0.715  12.057   5.860
60662SOL     OW83759   5.572   2.371   9.829
60662SOL    HW183760   5.524   2.387   9.911
60662SOL    HW283761   5.636   2.442   9.825
60663SOL     OW83762   1.182  11.996  11.650
60663SOL    HW183763   1.119  12.025  11.716
60663SOL    HW283764   1.246  12.067  11.645
60664SOL     OW83765   1.171   6.998   3.816
60664SOL    HW183766   1.083   6.979   3.783
60664SOL    HW283767   1.222   7.018   3.737
60665SOL     OW83768   7.511   8.098  14.824
60665SOL    HW183769   7.521   8.041  14.747
60665SOL    HW283770   7.518   8.038   0.017
60666SOL     OW83771   0.081   9.485  11.523
60666SOL    HW183772   0.059   9.413  11.463
60666SOL    HW283773   0.144   9.447  11.584
60667SOL     OW83774   6.331   0.830  10.906
60667SOL    HW183775   6.335   0.917  10.868
60667SOL    HW283776   6.414   0.789  10.880
60668SOL     OW83777  10.822   2.401   1.052
60668SOL    HW183778  10.746   2.364   1.097
60668SOL    HW283779  10.819   2.363   0.964
60669SOL     OW83780   1.157   8.930   3.222
60669SOL    HW183781   1.121   8.856   3.173
60669SOL    HW283782   1.208   8.979   3.157
60670SOL     OW83783   4.304   3.794   4.327
60670SOL    HW183784   4.300   3.703   4.300
60670SOL    HW283785   4.232   3.804   4.390
60671SOL     OW83786   6.408   3.890  14.788
60671SOL    HW183787   6.400   3.983  14.809
60671SOL    HW283788   6.343   3.875  14.720
60672SOL     OW83789   3.249   0.316  14.172
60672SOL    HW183790   3.155   0.332  14.179
60672SOL    HW283791   3.256   0.239  14.115
60673SOL     OW83792   0.349   4.281  11.836
60673SOL    HW183793   0.418   4.324  11.786
60673SOL    HW283794   0.365   4.187  11.823
60674SOL     OW83795   7.140   8.688   6.908
60674SOL    HW183796   7.124   8.782   6.899
60674SOL    HW283797   7.159   8.675   7.000
60675SOL     OW83798   1.221   0.324   4.009
60675SOL    HW183799   1.139   0.367   3.988
60675SOL    HW283800   1.198   0.233   4.024
60676SOL     OW83801   8.801  12.064   5.102
60676SOL    HW183802   8.727  12.100   5.053
60676SOL    HW283803   8.771  11.979   5.133
60677SOL     OW83804  14.564  14.144   0.921
60677SOL    HW183805  14.546  14.081   0.851
60677SOL    HW283806  14.490  14.204   0.919
60678SOL     OW83807   5.390   5.790  13.065
60678SOL    HW183808   5.346   5.706  13.048
60678SOL    HW283809   5.483   5.771  13.054
60679SOL     OW83810   6.427   3.449  11.598
60679SOL    HW183811   6.494   3.511  11.626
60679SOL    HW283812   6.411   3.471  11.506
60680SOL     OW83813   7.467   8.043  11.464
60680SOL    HW183814   7.498   8.052  11.374
60680SOL    HW283815   7.440   8.132  11.489
60681SOL     OW83816  10.626   7.354  10.732
60681SOL    HW183817  10.654   7.278  10.782
60681SOL    HW283818  10.613   7.320  10.643
60682SOL     OW83819  10.639   9.186   9.134
60682SOL    HW183820  10.610   9.157   9.048
60682SOL    HW283821  10.661   9.105   9.181
60683SOL     OW83822   8.952   1.663   2.558
60683SOL    HW183823   8.940   1.589   2.498
60683SOL    HW283824   9.003   1.726   2.507
60684SOL     OW83825   1.573   8.587   3.407
60684SOL    HW183826   1.603   8.622   3.324
60684SOL    HW283827   1.535   8.661   3.453
60685SOL     OW83828   3.732  13.915  14.475
60685SOL    HW183829   3.764  13.996  14.515
60685SOL    HW283830   3.642  13.935  14.448
60686SOL     OW83831   3.608  13.824   5.341
60686SOL    HW183832   3.515  13.830   5.321
60686SOL    HW283833   3.651  13.824   5.256
60687SOL     OW83834   3.968   1.440   5.371
60687SOL    HW183835   3.998   1.523   5.410
60687SOL    HW283836   3.996   1.445   5.280
60688SOL     OW83837  13.683  12.438   9.578
60688SOL    HW183838  13.704  12.381   9.505
60688SOL    HW283839  13.714  12.390   9.655
60689SOL     OW83840   8.371   7.397   5.941
60689SOL    HW183841   8.335   7.478   5.907
60689SOL    HW283842   8.416   7.422   6.022
60690SOL     OW83843  10.259   4.371  11.465
60690SOL    HW183844  10.347   4.394  11.434
60690SOL    HW283845  10.206   4.448  11.444
60691SOL     OW83846   6.446   4.376  13.069
60691SOL    HW183847   6.450   4.294  13.020
60691SOL    HW283848   6.359   4.376  13.109
60692SOL     OW83849  13.268   7.131  11.136
60692SOL    HW183850  13.344   7.144  11.079
60692SOL    HW283851  13.305   7.119  11.223
60693SOL     OW83852   7.780   3.303   4.980
60693SOL    HW183853   7.715   3.370   5.002
60693SOL    HW283854   7.758   3.278   4.891
60694SOL     OW83855   2.045   8.885   8.593
60694SOL    HW183856   2.072   8.825   8.523
60694SOL    HW283857   2.121   8.892   8.650
60695SOL     OW83858  10.549  12.900   0.569
60695SOL    HW183859  10.557  12.941   0.482
60695SOL    HW283860  10.498  12.821   0.554
60696SOL     OW83861   7.945   9.068   5.693
60696SOL    HW183862   7.967   9.147   5.644
60696SOL    HW283863   7.967   9.089   5.784
60697SOL     OW83864  11.307   5.547   4.652
60697SOL    HW183865  11.278   5.538   4.743
60697SOL    HW283866  11.288   5.461   4.613
60698SOL     OW83867   3.082   1.526  12.802
60698SOL    HW183868   3.152   1.591  12.800
60698SOL    HW283869   3.014   1.562  12.745
60699SOL     OW83870  14.635   0.008  14.856
60699SOL    HW183871  14.594   0.036  14.774
60699SOL    HW283872  14.562  14.873   0.034
60700SOL     OW83873   4.296   3.339   0.545
60700SOL    HW183874   4.322   3.270   0.485
60700SOL    HW283875   4.369   3.401   0.544
60701SOL     OW83876  12.630   5.052  12.955
60701SOL    HW183877  12.666   4.980  13.007
60701SOL    HW283878  12.535   5.042  12.964
60702SOL     OW83879  13.597  10.314  14.246
60702SOL    HW183880  13.528  10.314  14.180
60702SOL    HW283881  13.570  10.248  14.310
60703SOL     OW83882   9.710  11.393   1.843
60703SOL    HW183883   9.705  11.388   1.747
60703SOL    HW283884   9.784  11.336   1.866
60704SOL     OW83885   8.346  13.567   2.609
60704SOL    HW183886   8.285  13.529   2.546
60704SOL    HW283887   8.374  13.649   2.570
60705SOL     OW83888   9.526   5.913  14.412
60705SOL    HW183889   9.519   5.943  14.503
60705SOL    HW283890   9.468   5.970  14.363
60706SOL     OW83891   2.218  10.784   5.005
60706SOL    HW183892   2.209  10.742   4.919
60706SOL    HW283893   2.184  10.873   4.992
60707SOL     OW83894   2.010  14.852   0.772
60707SOL    HW183895   1.933   0.019   0.742
60707SOL    HW283896   2.084   0.019   0.736
60708SOL     OW83897   8.829  10.725   7.505
60708SOL    HW183898   8.904  10.776   7.475
60708SOL    HW283899   8.754  10.765   7.462
60709SOL     OW83900   6.300   8.576   5.432
60709SOL    HW183901   6.389   8.610   5.437
60709SOL    HW283902   6.292   8.542   5.343
60710SOL     OW83903  13.536   2.914   8.994
60710SOL    HW183904  13.514   2.830   8.955
60710SOL    HW283905  13.452   2.960   9.000
60711SOL     OW83906   1.226  10.044  11.373
60711SOL    HW183907   1.156  10.084  11.423
60711SOL    HW283908   1.191  10.035  11.284
60712SOL     OW83909  14.280  13.371   3.456
60712SOL    HW183910  14.247  13.460   3.446
60712SOL    HW283911  14.208  13.323   3.496
60713SOL     OW83912  10.376   7.182   1.974
60713SOL    HW183913  10.347   7.266   2.010
60713SOL    HW283914  10.459   7.164   2.018
60714SOL     OW83915  10.245  10.709   7.185
60714SOL    HW183916  10.314  10.642   7.188
60714SOL    HW283917  10.174  10.668   7.135
60715SOL     OW83918   5.746   7.049   3.842
60715SOL    HW183919   5.810   6.978   3.845
60715SOL    HW283920   5.687   7.031   3.915
60716SOL     OW83921   9.677   9.157   7.240
60716SOL    HW183922   9.682   9.104   7.160
60716SOL    HW283923   9.675   9.094   7.311
60717SOL     OW83924   0.425   4.669   5.235
60717SOL    HW183925   0.454   4.659   5.145
60717SOL    HW283926   0.500   4.707   5.281
60718SOL     OW83927   4.896   3.523  13.758
60718SOL    HW183928   4.885   3.617  13.777
60718SOL    HW283929   4.866   3.514  13.668
60719SOL     OW83930  14.783   3.069   7.193
60719SOL    HW183931  14.774   3.050   7.100
60719SOL    HW283932  14.704   3.118   7.215
60720SOL     OW83933   9.733   0.605   3.401
60720SOL    HW183934   9.719   0.514   3.372
60720SOL    HW283935   9.646   0.645   3.394
60721SOL     OW83936   0.546   1.766   2.052
60721SOL    HW183937   0.585   1.825   2.117
60721SOL    HW283938   0.558   1.679   2.088
60722SOL     OW83939  13.762  12.930  13.321
60722SOL    HW183940  13.798  12.902  13.236
60722SOL    HW283941  13.770  12.852  13.376
60723SOL     OW83942  13.392   2.304   7.249
60723SOL    HW183943  13.426   2.373   7.192
60723SOL    HW283944  13.396   2.225   7.196
60724SOL     OW83945  14.707   5.054  10.728
60724SOL    HW183946  14.707   5.149  10.740
60724SOL    HW283947  14.761   5.021  10.799
60725SOL     OW83948   0.186   1.019   2.326
60725SOL    HW183949   0.257   1.050   2.270
60725SOL    HW283950   0.227   1.003   2.411
60726SOL     OW83951   0.937  11.469   5.176
60726SOL    HW183952   0.999  11.408   5.135
60726SOL    HW283953   0.973  11.555   5.158
60727SOL     OW83954   8.233   3.736   2.561
60727SOL    HW183955   8.285   3.816   2.556
60727SOL    HW283956   8.246   3.694   2.476
60728SOL     OW83957   7.202   2.445  12.768
60728SOL    HW183958   7.249   2.528  12.778
60728SOL    HW283959   7.222   2.397  12.848
60729SOL     OW83960   3.210   5.069  13.850
60729SOL    HW183961   3.169   5.047  13.934
60729SOL    HW283962   3.182   5.159  13.832
60730SOL     OW83963   1.754  12.028  11.278
60730SOL    HW183964   1.802  12.109  11.292
60730SOL    HW283965   1.809  11.960  11.317
60731SOL     OW83966   2.247  10.060   6.390
60731SOL    HW183967   2.195  10.041   6.312
60731SOL    HW283968   2.321  10.112   6.358
60732SOL     OW83969   4.011   9.295  14.039
60732SOL    HW183970   4.085   9.308  13.979
60732SOL    HW283971   3.945   9.358  14.009
60733SOL     OW83972   1.996   7.768   4.014
60733SOL    HW183973   1.933   7.713   4.061
60733SOL    HW283974   1.949   7.850   4.001
60734SOL     OW83975  13.371  13.941   8.597
60734SOL    HW183976  13.361  14.016   8.539
60734SOL    HW283977  13.379  13.979   8.684
60735SOL     OW83978  14.007  12.714  10.733
60735SOL    HW183979  14.016  12.757  10.647
60735SOL    HW283980  13.933  12.655  10.722
60736SOL     OW83981   3.646  14.051  10.815
60736SOL    HW183982   3.580  13.998  10.772
60736SOL    HW283983   3.629  14.140  10.785
60737SOL     OW83984  11.230   5.068   9.771
60737SOL    HW183985  11.187   5.084   9.854
60737SOL    HW283986  11.162   5.080   9.705
60738SOL     OW83987  13.426   5.157   4.358
60738SOL    HW183988  13.423   5.251   4.376
60738SOL    HW283989  13.497   5.147   4.295
60739SOL     OW83990   4.323  13.034   9.836
60739SOL    HW183991   4.289  13.121   9.814
60739SOL    HW283992   4.298  12.979   9.762
60740SOL     OW83993   1.506   7.348   0.918
60740SOL    HW183994   1.565   7.294   0.866
60740SOL    HW283995   1.445   7.386   0.855
60741SOL     OW83996   0.644   9.441   4.530
60741SOL    HW183997   0.634   9.456   4.436
60741SOL    HW283998   0.555   9.427   4.562
60742SOL     OW83999  11.243   9.355  13.398
60742SOL    HW184000  11.265   9.446  13.380
60742SOL    HW284001  11.157   9.359  13.441
60743SOL     OW84002   1.557   5.675  14.184
60743SOL    HW184003   1.489   5.637  14.240
60743SOL    HW284004   1.564   5.613  14.110
60744SOL     OW84005  13.475   0.421   8.854
60744SOL    HW184006  13.476   0.336   8.897
60744SOL    HW284007  13.385   0.431   8.823
60745SOL     OW84008  11.851   5.164   7.639
60745SOL    HW184009  11.865   5.233   7.573
60745SOL    HW284010  11.876   5.205   7.722
60746SOL     OW84011   6.108  11.475  14.374
60746SOL    HW184012   6.145  11.488  14.462
60746SOL    HW284013   6.028  11.426  14.389
60747SOL     OW84014   9.746   1.852   1.811
60747SOL    HW184015   9.758   1.905   1.889
60747SOL    HW284016   9.656   1.819   1.818
60748SOL     OW84017   0.537   9.375   7.299
60748SOL    HW184018   0.594   9.303   7.272
60748SOL    HW284019   0.575   9.405   7.382
60749SOL     OW84020   0.704   6.381   2.289
60749SOL    HW184021   0.770   6.320   2.257
60749SOL    HW284022   0.622   6.332   2.287
60750SOL     OW84023  11.982   4.130   0.848
60750SOL    HW184024  12.060   4.145   0.902
60750SOL    HW284025  11.988   4.195   0.778
60751SOL     OW84026  14.412   3.653   5.449
60751SOL    HW184027  14.402   3.748   5.439
60751SOL    HW284028  14.324   3.618   5.435
60752SOL     OW84029   7.087   7.516   7.895
60752SOL    HW184030   7.020   7.535   7.961
60752SOL    HW284031   7.082   7.421   7.882
60753SOL     OW84032   8.910  10.066  11.635
60753SOL    HW184033   8.829  10.116  11.647
60753SOL    HW284034   8.881   9.975  11.627
60754SOL     OW84035  14.535   9.111   6.675
60754SOL    HW184036  14.461   9.054   6.693
60754SOL    HW284037  14.555   9.152   6.758
60755SOL     OW84038   2.579   4.858  12.689
60755SOL    HW184039   2.565   4.912  12.766
60755SOL    HW284040   2.535   4.776  12.708
60756SOL     OW84041  13.469  11.924   1.300
60756SOL    HW184042  13.547  11.877   1.331
60756SOL    HW284043  13.405  11.855   1.283
60757SOL     OW84044   7.433   4.144  13.553
60757SOL    HW184045   7.452   4.199  13.628
60757SOL    HW284046   7.406   4.205  13.484
60758SOL     OW84047   5.335   5.160   2.374
60758SOL    HW184048   5.251   5.124   2.401
60758SOL    HW284049   5.314   5.240   2.325
60759SOL     OW84050   4.427   2.756   5.675
60759SOL    HW184051   4.514   2.724   5.701
60759SOL    HW284052   4.437   2.780   5.583
60760SOL     OW84053  10.719   8.811   7.184
60760SOL    HW184054  10.661   8.767   7.246
60760SOL    HW284055  10.689   8.782   7.098
60761SOL     OW84056  12.644   3.143   9.724
60761SOL    HW184057  12.580   3.198   9.678
60761SOL    HW284058  12.694   3.100   9.655
60762SOL     OW84059   0.488  12.878   6.626
60762SOL    HW184060   0.468  12.805   6.684
60762SOL    HW284061   0.577  12.904   6.648
60763SOL     OW84062   1.350  10.995   3.432
60763SOL    HW184063   1.364  10.950   3.348
60763SOL    HW284064   1.434  10.985   3.478
60764SOL     OW84065   7.009   5.844   4.446
60764SOL    HW184066   6.975   5.834   4.357
60764SOL    HW284067   7.040   5.757   4.469
60765SOL     OW84068  12.027   6.679   6.710
60765SOL    HW184069  11.940   6.712   6.732
60765SOL    HW284070  12.014   6.627   6.631
60766SOL     OW84071  13.156  10.676   0.842
60766SOL    HW184072  13.113  10.594   0.819
60766SOL    HW284073  13.161  10.675   0.938
60767SOL     OW84074   4.917  12.520  11.471
60767SOL    HW184075   4.910  12.594  11.530
60767SOL    HW284076   5.011  12.512  11.453
60768SOL     OW84077   2.991   3.090   7.782
60768SOL    HW184078   3.067   3.130   7.824
60768SOL    HW284079   2.918   3.149   7.802
60769SOL     OW84080   0.244   2.153   0.919
60769SOL    HW184081   0.286   2.238   0.923
60769SOL    HW284082   0.156   2.168   0.952
60770SOL     OW84083  14.584   6.027   1.683
60770SOL    HW184084  14.615   6.023   1.773
60770SOL    HW284085  14.638   5.962   1.637
60771SOL     OW84086   3.701  13.524   3.565
60771SOL    HW184087   3.792  13.512   3.591
60771SOL    HW284088   3.678  13.612   3.595
60772SOL     OW84089  11.957   3.335  10.822
60772SOL    HW184090  11.884   3.273  10.823
60772SOL    HW284091  11.986   3.338  10.913
60773SOL     OW84092   4.497  10.871   2.642
60773SOL    HW184093   4.517  10.903   2.554
60773SOL    HW284094   4.579  10.832   2.672
60774SOL     OW84095  10.745   7.726   3.986
60774SOL    HW184096  10.771   7.657   4.048
60774SOL    HW284097  10.713   7.797   4.041
60775SOL     OW84098  11.073   0.719   1.177
60775SOL    HW184099  11.009   0.778   1.136
60775SOL    HW284100  11.150   0.774   1.192
60776SOL     OW84101  14.423   0.440   0.404
60776SOL    HW184102  14.474   0.369   0.366
60776SOL    HW284103  14.370   0.398   0.472
60777SOL     OW84104   3.975   0.432   4.585
60777SOL    HW184105   4.055   0.404   4.631
60777SOL    HW284106   3.919   0.354   4.585
60778SOL     OW84107   9.856   9.810  10.832
60778SOL    HW184108   9.865   9.742  10.765
60778SOL    HW284109   9.933   9.866  10.820
60779SOL     OW84110  11.850  13.227   5.182
60779SOL    HW184111  11.765  13.222   5.226
60779SOL    HW284112  11.846  13.309   5.133
60780SOL     OW84113   0.035  12.999   9.157
60780SOL    HW184114   0.104  13.040   9.208
60780SOL    HW284115  14.855  12.965   9.223
60781SOL     OW84116   9.955   8.023  12.211
60781SOL    HW184117   9.999   8.072  12.280
60781SOL    HW284118   9.956   7.932  12.242
60782SOL     OW84119  10.059   9.451   1.213
60782SOL    HW184120   9.972   9.411   1.223
60782SOL    HW284121  10.107   9.389   1.157
60783SOL     OW84122  12.730   0.813   0.235
60783SOL    HW184123  12.704   0.744   0.174
60783SOL    HW284124  12.799   0.774   0.288
60784SOL     OW84125  13.031   2.683  14.276
60784SOL    HW184126  12.969   2.753  14.260
60784SOL    HW284127  13.103   2.724  14.324
60785SOL     OW84128   2.904   0.464  10.588
60785SOL    HW184129   2.998   0.478  10.581
60785SOL    HW284130   2.883   0.484  10.679
60786SOL     OW84131   4.776   5.007   2.111
60786SOL    HW184132   4.737   4.920   2.104
60786SOL    HW284133   4.854   5.002   2.056
60787SOL     OW84134  13.157   0.108  11.063
60787SOL    HW184135  13.206   0.050  11.122
60787SOL    HW284136  13.215   0.121  10.989
60788SOL     OW84137   0.035   2.180  13.360
60788SOL    HW184138   0.096   2.137  13.300
60788SOL    HW284139   0.092   2.232  13.418
60789SOL     OW84140   4.795   1.401  14.879
60789SOL    HW184141   4.797   1.340  14.805
60789SOL    HW284142   4.884   1.400   0.032
60790SOL     OW84143   5.992   4.420   9.180
60790SOL    HW184144   5.904   4.456   9.181
60790SOL    HW284145   6.022   4.425   9.271
60791SOL     OW84146   2.068   4.022   8.154
60791SOL    HW184147   2.103   3.944   8.198
60791SOL    HW284148   2.140   4.085   8.156
60792SOL     OW84149  10.623   1.863   6.438
60792SOL    HW184150  10.576   1.945   6.453
60792SOL    HW284151  10.615   1.814   6.520
60793SOL     OW84152   8.324   9.964  10.816
60793SOL    HW184153   8.234   9.938  10.795
60793SOL    HW284154   8.372   9.881  10.823
60794SOL     OW84155   0.969   2.504  11.769
60794SOL    HW184156   0.980   2.561  11.694
60794SOL    HW284157   1.019   2.425  11.747
60795SOL     OW84158   1.591   8.423   9.059
60795SOL    HW184159   1.686   8.429   9.059
60795SOL    HW284160   1.573   8.341   9.012
60796SOL     OW84161  14.127  14.757  12.203
60796SOL    HW184162  14.143  14.793  12.291
60796SOL    HW284163  14.197  14.794  12.149
60797SOL     OW84164   0.938  14.411   1.617
60797SOL    HW184165   0.945  14.320   1.646
60797SOL    HW284166   0.970  14.410   1.527
60798SOL     OW84167   8.891   9.765  11.957
60798SOL    HW184168   8.862   9.674  11.946
60798SOL    HW284169   8.873   9.807  11.874
60799SOL     OW84170   5.469  14.571  10.767
60799SOL    HW184171   5.542  14.627  10.739
60799SOL    HW284172   5.508  14.511  10.830
60800SOL     OW84173   8.835   3.284   1.885
60800SOL    HW184174   8.869   3.201   1.852
60800SOL    HW284175   8.805   3.265   1.974
60801SOL     OW84176  10.516  14.541   1.337
60801SOL    HW184177  10.552  14.629   1.327
60801SOL    HW284178  10.428  14.554   1.373
60802SOL     OW84179  12.454   2.438   7.155
60802SOL    HW184180  12.486   2.410   7.240
60802SOL    HW284181  12.413   2.524   7.171
60803SOL     OW84182   6.103   9.870  13.598
60803SOL    HW184183   6.181   9.919  13.570
60803SOL    HW284184   6.136   9.784  13.623
60804SOL     OW84185  13.569  10.726  11.746
60804SOL    HW184186  13.633  10.794  11.770
60804SOL    HW284187  13.589  10.705  11.655
60805SOL     OW84188   3.614   5.911  11.193
60805SOL    HW184189   3.536   5.966  11.192
60805SOL    HW284190   3.687   5.972  11.205
60806SOL     OW84191   7.311  14.013  13.478
60806SOL    HW184192   7.368  14.021  13.401
60806SOL    HW284193   7.371  13.999  13.551
60807SOL     OW84194   5.572  10.031   4.596
60807SOL    HW184195   5.539  10.026   4.686
60807SOL    HW284196   5.667  10.018   4.605
60808SOL     OW84197   4.862  11.604   3.188
60808SOL    HW184198   4.941  11.651   3.162
60808SOL    HW284199   4.810  11.670   3.234
60809SOL     OW84200  11.331  14.101   3.857
60809SOL    HW184201  11.404  14.133   3.912
60809SOL    HW284202  11.302  14.178   3.809
60810SOL     OW84203  12.628  13.535   5.497
60810SOL    HW184204  12.672  13.567   5.576
60810SOL    HW284205  12.656  13.444   5.489
60811SOL     OW84206  12.245   2.720   0.134
60811SOL    HW184207  12.194   2.800   0.148
60811SOL    HW284208  12.275   2.696   0.222
60812SOL     OW84209   4.673   4.799  10.682
60812SOL    HW184210   4.660   4.706  10.699
60812SOL    HW284211   4.746   4.802  10.619
60813SOL     OW84212   1.826   7.215   8.788
60813SOL    HW184213   1.772   7.212   8.866
60813SOL    HW284214   1.909   7.175   8.814
60814SOL     OW84215  11.787   2.670  12.235
60814SOL    HW184216  11.851   2.742  12.242
60814SOL    HW284217  11.708   2.712  12.201
60815SOL     OW84218   7.260   0.780  11.037
60815SOL    HW184219   7.309   0.815  11.111
60815SOL    HW284220   7.241   0.856  10.982
60816SOL     OW84221  14.349   9.283   7.766
60816SOL    HW184222  14.317   9.358   7.717
60816SOL    HW284223  14.344   9.210   7.705
60817SOL     OW84224   8.805   2.982  14.551
60817SOL    HW184225   8.787   3.074  14.571
60817SOL    HW284226   8.898   2.980  14.531
60818SOL     OW84227   5.515   4.047   4.350
60818SOL    HW184228   5.512   4.089   4.437
60818SOL    HW284229   5.608   4.034   4.333
60819SOL     OW84230   6.123  12.395  13.407
60819SOL    HW184231   6.068  12.321  13.432
60819SOL    HW284232   6.193  12.397  13.472
60820SOL     OW84233  12.359   7.130  12.636
60820SOL    HW184234  12.335   7.108  12.546
60820SOL    HW284235  12.335   7.053  12.687
60821SOL     OW84236  10.901   2.054  13.439
60821SOL    HW184237  10.927   2.118  13.506
60821SOL    HW284238  10.889   1.973  13.488
60822SOL     OW84239   2.862  12.817   3.426
60822SOL    HW184240   2.814  12.836   3.507
60822SOL    HW284241   2.876  12.904   3.387
60823SOL     OW84242   8.488   6.230   7.166
60823SOL    HW184243   8.487   6.197   7.256
60823SOL    HW284244   8.517   6.320   7.174
60824SOL     OW84245   9.737  10.817   0.064
60824SOL    HW184246   9.709  10.759  14.875
60824SOL    HW284247   9.785  10.761   0.124
60825SOL     OW84248  11.161   4.589   1.976
60825SOL    HW184249  11.155   4.676   2.013
60825SOL    HW284250  11.083   4.580   1.922
60826SOL     OW84251   4.311   2.439   7.986
60826SOL    HW184252   4.282   2.422   8.076
60826SOL    HW284253   4.232   2.428   7.933
60827SOL     OW84254   8.243   6.309   1.190
60827SOL    HW184255   8.152   6.302   1.219
60827SOL    HW284256   8.294   6.278   1.266
60828SOL     OW84257  12.682  11.230   3.233
60828SOL    HW184258  12.627  11.185   3.298
60828SOL    HW284259  12.623  11.294   3.193
60829SOL     OW84260  10.222   1.473  13.835
60829SOL    HW184261  10.139   1.473  13.884
60829SOL    HW284262  10.218   1.552  13.781
60830SOL     OW84263   1.306   4.239   2.972
60830SOL    HW184264   1.348   4.213   3.054
60830SOL    HW284265   1.338   4.176   2.907
60831SOL     OW84266   0.079   7.661   0.374
60831SOL    HW184267   0.021   7.589   0.349
60831SOL    HW284268   0.120   7.688   0.291
60832SOL     OW84269  10.410   5.828  11.817
60832SOL    HW184270  10.325   5.867  11.837
60832SOL    HW284271  10.448   5.809  11.903
60833SOL     OW84272   9.029  12.732  10.736
60833SOL    HW184273   9.055  12.698  10.650
60833SOL    HW284274   9.109  12.773  10.770
60834SOL     OW84275   6.846   6.192   0.813
60834SOL    HW184276   6.784   6.140   0.864
60834SOL    HW284277   6.880   6.256   0.875
60835SOL     OW84278   5.604   3.388   3.384
60835SOL    HW184279   5.688   3.348   3.358
60835SOL    HW284280   5.577   3.338   3.461
60836SOL     OW84281   7.289  13.542  13.195
60836SOL    HW184282   7.211  13.542  13.251
60836SOL    HW284283   7.254  13.538  13.106
60837SOL     OW84284  13.554   7.129   9.107
60837SOL    HW184285  13.593   7.216   9.119
60837SOL    HW284286  13.627   7.073   9.082
60838SOL     OW84287  11.145   4.107  14.515
60838SOL    HW184288  11.052   4.129  14.514
60838SOL    HW284289  11.148   4.014  14.495
60839SOL     OW84290   7.307   2.493   8.138
60839SOL    HW184291   7.261   2.410   8.126
60839SOL    HW284292   7.387   2.469   8.185
60840SOL     OW84293   0.001  12.869   6.266
60840SOL    HW184294   0.059  12.797   6.241
60840SOL    HW284295  14.865  12.914   6.183
60841SOL     OW84296   4.872   1.845   1.538
60841SOL    HW184297   4.934   1.845   1.610
60841SOL    HW284298   4.787   1.827   1.579
60842SOL     OW84299   9.936   3.640   2.494
60842SOL    HW184300   9.956   3.625   2.587
60842SOL    HW284301   9.859   3.586   2.477
60843SOL     OW84302   8.553   1.577   5.804
60843SOL    HW184303   8.569   1.623   5.722
60843SOL    HW284304   8.580   1.638   5.872
60844SOL     OW84305   7.038   1.565   2.664
60844SOL    HW184306   7.028   1.529   2.576
60844SOL    HW284307   7.019   1.492   2.722
60845SOL     OW84308   6.569   6.542   3.116
60845SOL    HW184309   6.603   6.496   3.192
60845SOL    HW284310   6.625   6.514   3.043
60846SOL     OW84311  10.086   3.938  11.899
60846SOL    HW184312  10.130   3.948  11.983
60846SOL    HW284313  10.045   4.023  11.882
60847SOL     OW84314  10.872   1.330   0.701
60847SOL    HW184315  10.845   1.269   0.769
60847SOL    HW284316  10.849   1.286   0.619
60848SOL     OW84317  11.097  12.809   1.204
60848SOL    HW184318  11.035  12.879   1.184
60848SOL    HW284319  11.121  12.823   1.296
60849SOL     OW84320   8.431  12.112  11.092
60849SOL    HW184321   8.472  12.192  11.058
60849SOL    HW284322   8.489  12.041  11.062
60850SOL     OW84323  13.226   6.536   7.197
60850SOL    HW184324  13.200   6.537   7.290
60850SOL    HW284325  13.190   6.617   7.161
60851SOL     OW84326  11.939   7.312   6.743
60851SOL    HW184327  11.895   7.336   6.661
60851SOL    HW284328  11.956   7.218   6.734
60852SOL     OW84329  11.800   1.580   2.494
60852SOL    HW184330  11.748   1.530   2.557
60852SOL    HW284331  11.837   1.513   2.436
60853SOL     OW84332   7.789   7.013   1.132
60853SOL    HW184333   7.836   6.942   1.175
60853SOL    HW284334   7.856   7.077   1.109
60854SOL     OW84335   2.134   6.122   4.181
60854SOL    HW184336   2.112   6.110   4.273
60854SOL    HW284337   2.051   6.144   4.139
60855SOL     OW84338   2.209  12.432   1.292
60855SOL    HW184339   2.215  12.508   1.234
60855SOL    HW284340   2.253  12.362   1.244
60856SOL     OW84341   7.524   3.759   3.283
60856SOL    HW184342   7.508   3.813   3.206
60856SOL    HW284343   7.574   3.815   3.342
60857SOL     OW84344   3.247   7.585   0.902
60857SOL    HW184345   3.290   7.650   0.847
60857SOL    HW284346   3.242   7.507   0.847
60858SOL     OW84347   5.328   1.594   1.124
60858SOL    HW184348   5.365   1.616   1.209
60858SOL    HW284349   5.384   1.523   1.091
60859SOL     OW84350  13.187  11.587   6.981
60859SOL    HW184351  13.253  11.649   7.011
60859SOL    HW284352  13.192  11.514   7.043
60860SOL     OW84353  10.018   6.311  14.807
60860SOL    HW184354   9.957   6.302  14.881
60860SOL    HW284355  10.100   6.340  14.847
60861SOL     OW84356   6.739   1.835   1.336
60861SOL    HW184357   6.697   1.857   1.253
60861SOL    HW284358   6.666   1.820   1.396
60862SOL     OW84359   7.877   3.656   1.821
60862SOL    HW184360   7.836   3.605   1.751
60862SOL    HW284361   7.850   3.611   1.902
60863SOL     OW84362  10.771  10.356   7.446
60863SOL    HW184363  10.747  10.401   7.366
60863SOL    HW284364  10.867  10.353   7.444
60864SOL     OW84365   6.087  13.790  11.839
60864SOL    HW184366   6.022  13.720  11.836
60864SOL    HW284367   6.038  13.869  11.816
60865SOL     OW84368   0.322   8.335   3.902
60865SOL    HW184369   0.329   8.303   3.812
60865SOL    HW284370   0.403   8.384   3.915
60866SOL     OW84371  11.596  12.716  10.395
60866SOL    HW184372  11.691  12.713  10.387
60866SOL    HW284373  11.567  12.777  10.328
60867SOL     OW84374   1.635   2.746  11.742
60867SOL    HW184375   1.715   2.714  11.701
60867SOL    HW284376   1.593   2.667  11.776
60868SOL     OW84377   2.494   6.981   4.787
60868SOL    HW184378   2.442   7.060   4.779
60868SOL    HW284379   2.575   7.009   4.829
60869SOL     OW84380  14.189   7.264  11.255
60869SOL    HW184381  14.213   7.239  11.166
60869SOL    HW284382  14.201   7.358  11.258
60870SOL     OW84383  10.732   0.974  13.176
60870SOL    HW184384  10.710   0.966  13.269
60870SOL    HW284385  10.821   1.011  13.176
60871SOL     OW84386   2.674   2.663   2.759
60871SOL    HW184387   2.663   2.650   2.665
60871SOL    HW284388   2.630   2.588   2.799
60872SOL     OW84389  11.234  10.653   8.191
60872SOL    HW184390  11.264  10.597   8.120
60872SOL    HW284391  11.219  10.738   8.150
60873SOL     OW84392   2.352   9.939   6.736
60873SOL    HW184393   2.398  10.018   6.766
60873SOL    HW284394   2.403   9.909   6.660
60874SOL     OW84395   8.702  10.976  10.768
60874SOL    HW184396   8.728  11.065  10.746
60874SOL    HW284397   8.674  10.938  10.684
60875SOL     OW84398   3.679  13.816   7.670
60875SOL    HW184399   3.713  13.794   7.756
60875SOL    HW284400   3.727  13.895   7.644
60876SOL     OW84401  14.044   7.438   8.928
60876SOL    HW184402  14.035   7.456   8.835
60876SOL    HW284403  14.049   7.343   8.934
60877SOL     OW84404   5.725  12.973   2.738
60877SOL    HW184405   5.689  12.946   2.653
60877SOL    HW284406   5.773  13.054   2.718
60878SOL     OW84407   3.618   8.920  14.024
60878SOL    HW184408   3.551   8.988  14.013
60878SOL    HW284409   3.585   8.864  14.094
60879SOL     OW84410   9.708  11.885   3.449
60879SOL    HW184411   9.726  11.938   3.526
60879SOL    HW284412   9.736  11.939   3.375
60880SOL     OW84413  12.289   5.825   2.969
60880SOL    HW184414  12.348   5.897   2.995
60880SOL    HW284415  12.276   5.775   3.050
60881SOL     OW84416   5.483  11.021  13.224
60881SOL    HW184417   5.437  11.042  13.305
60881SOL    HW284418   5.423  10.964  13.176
60882SOL     OW84419   5.867  10.796   4.937
60882SOL    HW184420   5.813  10.865   4.976
60882SOL    HW284421   5.857  10.722   4.997
60883SOL     OW84422  12.759   9.688  14.210
60883SOL    HW184423  12.750   9.593  14.201
60883SOL    HW284424  12.759   9.721  14.120
60884SOL     OW84425  10.337   7.118   5.814
60884SOL    HW184426  10.317   7.206   5.782
60884SOL    HW284427  10.256   7.069   5.800
60885SOL     OW84428  12.481   0.388  14.473
60885SOL    HW184429  12.488   0.299  14.505
60885SOL    HW284430  12.563   0.405  14.427
60886SOL     OW84431   1.288   0.818   2.470
60886SOL    HW184432   1.350   0.879   2.511
60886SOL    HW284433   1.217   0.874   2.439
60887SOL     OW84434   7.060  12.803   8.236
60887SOL    HW184435   7.028  12.881   8.191
60887SOL    HW284436   7.130  12.835   8.293
60888SOL     OW84437   7.181   4.468   7.290
60888SOL    HW184438   7.249   4.462   7.357
60888SOL    HW284439   7.135   4.549   7.309
60889SOL     OW84440  14.313  12.402   1.452
60889SOL    HW184441  14.251  12.462   1.493
60889SOL    HW284442  14.399  12.436   1.477
60890SOL     OW84443   9.965  12.239  14.660
60890SOL    HW184444   9.922  12.304  14.605
60890SOL    HW284445   9.969  12.160  14.607
60891SOL     OW84446   5.436  11.156   4.004
60891SOL    HW184447   5.412  11.068   4.031
60891SOL    HW284448   5.531  11.152   3.990
60892SOL     OW84449   1.404  14.809   0.161
60892SOL    HW184450   1.490  14.776   0.188
60892SOL    HW284451   1.358  14.824   0.244
60893SOL     OW84452   8.628   7.066  12.434
60893SOL    HW184453   8.673   6.991  12.475
60893SOL    HW284454   8.543   7.031  12.409
60894SOL     OW84455  14.405   4.065  13.685
60894SOL    HW184456  14.401   4.124  13.760
60894SOL    HW284457  14.458   3.991  13.715
60895SOL     OW84458  11.048  10.350  11.527
60895SOL    HW184459  11.093  10.403  11.593
60895SOL    HW284460  11.094  10.370  11.445
60896SOL     OW84461   3.376  13.409   5.733
60896SOL    HW184462   3.469  13.393   5.747
60896SOL    HW284463   3.369  13.432   5.641
60897SOL     OW84464  11.417   0.483   4.206
60897SOL    HW184465  11.472   0.510   4.280
60897SOL    HW284466  11.373   0.404   4.237
60898SOL     OW84467   2.052  10.853  13.769
60898SOL    HW184468   2.099  10.905  13.703
60898SOL    HW284469   1.987  10.804  13.718
60899SOL     OW84470   1.927   8.595   5.721
60899SOL    HW184471   1.873   8.519   5.700
60899SOL    HW284472   1.956   8.579   5.811
60900SOL     OW84473   0.552   7.171   3.311
60900SOL    HW184474   0.568   7.232   3.239
60900SOL    HW284475   0.495   7.219   3.371
60901SOL     OW84476   3.014   5.953   5.372
60901SOL    HW184477   3.063   6.027   5.409
60901SOL    HW284478   3.039   5.879   5.427
60902SOL     OW84479   4.337   3.386  10.333
60902SOL    HW184480   4.347   3.377  10.238
60902SOL    HW284481   4.397   3.457  10.356
60903SOL     OW84482  11.265   2.343   9.463
60903SOL    HW184483  11.219   2.355   9.546
60903SOL    HW284484  11.196   2.342   9.396
60904SOL     OW84485   8.208   7.427   9.328
60904SOL    HW184486   8.182   7.335   9.333
60904SOL    HW284487   8.144   7.473   9.381
60905SOL     OW84488   6.566  14.048   1.032
60905SOL    HW184489   6.656  14.063   1.006
60905SOL    HW284490   6.568  14.049   1.128
60906SOL     OW84491   7.714   4.523   3.575
60906SOL    HW184492   7.642   4.509   3.513
60906SOL    HW284493   7.734   4.436   3.609
60907SOL     OW84494   1.666   6.063   2.605
60907SOL    HW184495   1.720   6.057   2.683
60907SOL    HW284496   1.582   6.026   2.631
60908SOL     OW84497   5.235   7.532  13.741
60908SOL    HW184498   5.270   7.571  13.661
60908SOL    HW284499   5.148   7.500  13.716
60909SOL     OW84500  12.411  11.084   9.100
60909SOL    HW184501  12.442  11.132   9.023
60909SOL    HW284502  12.342  11.027   9.067
60910SOL     OW84503  14.645  11.939  12.059
60910SOL    HW184504  14.606  12.019  12.025
60910SOL    HW284505  14.571  11.886  12.088
60911SOL     OW84506   8.467   0.201  12.921
60911SOL    HW184507   8.407   0.126  12.926
60911SOL    HW284508   8.505   0.195  12.833
60912SOL     OW84509   0.708   1.489  10.988
60912SOL    HW184510   0.732   1.563  11.044
60912SOL    HW284511   0.733   1.411  11.040
60913SOL     OW84512  12.722  13.474   3.913
60913SOL    HW184513  12.673  13.409   3.964
60913SOL    HW284514  12.759  13.533   3.979
60914SOL     OW84515   9.579   6.944  10.037
60914SOL    HW184516   9.606   6.863  10.081
60914SOL    HW284517   9.515   6.984  10.096
60915SOL     OW84518  13.519   8.198   3.640
60915SOL    HW184519  13.537   8.115   3.682
60915SOL    HW284520  13.477   8.175   3.557
60916SOL     OW84521   4.701   2.109  11.215
60916SOL    HW184522   4.739   2.196  11.208
60916SOL    HW284523   4.742   2.058  11.145
60917SOL     OW84524   1.664   8.299  14.206
60917SOL    HW184525   1.731   8.279  14.272
60917SOL    HW284526   1.602   8.356  14.251
60918SOL     OW84527  12.121  14.655   8.716
60918SOL    HW184528  12.148  14.653   8.807
60918SOL    HW284529  12.029  14.683   8.719
60919SOL     OW84530  10.068   4.222   0.690
60919SOL    HW184531  10.048   4.179   0.773
60919SOL    HW284532  10.120   4.157   0.642
60920SOL     OW84533  12.343   4.270   1.702
60920SOL    HW184534  12.289   4.345   1.676
60920SOL    HW284535  12.407   4.261   1.631
60921SOL     OW84536  10.601   3.164  12.962
60921SOL    HW184537  10.548   3.085  12.964
60921SOL    HW284538  10.689   3.134  12.938
60922SOL     OW84539   7.791   0.843  12.482
60922SOL    HW184540   7.774   0.753  12.453
60922SOL    HW284541   7.708   0.873  12.517
60923SOL     OW84542   1.318  11.443   1.836
60923SOL    HW184543   1.348  11.534   1.843
60923SOL    HW284544   1.231  11.444   1.876
60924SOL     OW84545  11.752   2.061   4.296
60924SOL    HW184546  11.822   2.025   4.242
60924SOL    HW284547  11.720   1.987   4.347
60925SOL     OW84548   1.154   2.933   2.316
60925SOL    HW184549   1.091   2.995   2.281
60925SOL    HW284550   1.141   2.853   2.266
60926SOL     OW84551  14.319   5.113  10.554
60926SOL    HW184552  14.237   5.136  10.509
60926SOL    HW284553  14.291   5.093  10.644
60927SOL     OW84554   8.654   0.323   9.012
60927SOL    HW184555   8.740   0.333   9.053
60927SOL    HW284556   8.656   0.236   8.972
60928SOL     OW84557  10.273   5.261   3.823
60928SOL    HW184558  10.368   5.255   3.838
60928SOL    HW284559  10.246   5.171   3.804
60929SOL     OW84560   5.230  13.206   6.897
60929SOL    HW184561   5.180  13.286   6.910
60929SOL    HW284562   5.288  13.202   6.973
60930SOL     OW84563   5.821   8.549  13.712
60930SOL    HW184564   5.731   8.570  13.687
60930SOL    HW284565   5.846   8.477  13.654
60931SOL     OW84566  10.896   9.275  11.836
60931SOL    HW184567  10.967   9.294  11.774
60931SOL    HW284568  10.869   9.186  11.814
60932SOL     OW84569  13.979   0.458  12.045
60932SOL    HW184570  14.022   0.536  12.011
60932SOL    HW284571  13.948   0.411  11.968
60933SOL     OW84572   7.349  10.797  14.800
60933SOL    HW184573   7.428  10.814  14.852
60933SOL    HW284574   7.362  10.708  14.765
60934SOL     OW84575   8.908  14.250  11.644
60934SOL    HW184576   8.918  14.246  11.549
60934SOL    HW284577   8.984  14.300  11.674
60935SOL     OW84578  10.617   9.315   4.900
60935SOL    HW184579  10.661   9.282   4.821
60935SOL    HW284580  10.641   9.251   4.968
60936SOL     OW84581   2.878   3.908   1.920
60936SOL    HW184582   2.794   3.926   1.962
60936SOL    HW284583   2.870   3.818   1.888
60937SOL     OW84584   6.677  13.401   6.445
60937SOL    HW184585   6.702  13.334   6.509
60937SOL    HW284586   6.582  13.392   6.436
60938SOL     OW84587   8.891   4.907   5.241
60938SOL    HW184588   8.882   4.932   5.149
60938SOL    HW284589   8.967   4.957   5.272
60939SOL     OW84590  10.685  12.913   6.499
60939SOL    HW184591  10.729  12.884   6.579
60939SOL    HW284592  10.731  12.869   6.429
60940SOL     OW84593  11.973   5.802  11.083
60940SOL    HW184594  11.996   5.876  11.027
60940SOL    HW284595  11.926   5.841  11.156
60941SOL     OW84596  13.536   8.808   7.488
60941SOL    HW184597  13.554   8.776   7.399
60941SOL    HW284598  13.620   8.845   7.518
60942SOL     OW84599   9.321   0.373   7.792
60942SOL    HW184600   9.376   0.440   7.832
60942SOL    HW284601   9.276   0.331   7.866
60943SOL     OW84602   6.869   2.554  14.162
60943SOL    HW184603   6.924   2.497  14.108
60943SOL    HW284604   6.932   2.599  14.219
60944SOL     OW84605   5.047  11.415   9.093
60944SOL    HW184606   4.984  11.470   9.047
60944SOL    HW284607   5.037  11.439   9.185
60945SOL     OW84608   4.767   0.905   4.272
60945SOL    HW184609   4.814   0.825   4.250
60945SOL    HW284610   4.811   0.938   4.351
60946SOL     OW84611  12.026  11.483   4.206
60946SOL    HW184612  12.117  11.504   4.183
60946SOL    HW284613  11.994  11.560   4.252
60947SOL     OW84614   1.884  10.639  10.904
60947SOL    HW184615   1.856  10.548  10.907
60947SOL    HW284616   1.940  10.650  10.981
60948SOL     OW84617  11.172  11.664   2.332
60948SOL    HW184618  11.093  11.717   2.342
60948SOL    HW284619  11.143  11.574   2.351
60949SOL     OW84620  12.410  12.569   3.887
60949SOL    HW184621  12.330  12.544   3.840
60949SOL    HW284622  12.436  12.489   3.933
60950SOL     OW84623   9.647   7.296   2.928
60950SOL    HW184624   9.695   7.323   2.850
60950SOL    HW284625   9.581   7.235   2.896
60951SOL     OW84626   3.303   7.443   0.483
60951SOL    HW184627   3.214   7.446   0.449
60951SOL    HW284628   3.353   7.395   0.417
60952SOL     OW84629   8.707   9.281   0.944
60952SOL    HW184630   8.667   9.362   0.974
60952SOL    HW284631   8.634   9.230   0.908
60953SOL     OW84632   9.142   4.665   6.189
60953SOL    HW184633   9.178   4.604   6.254
60953SOL    HW284634   9.131   4.612   6.110
60954SOL     OW84635   7.886   1.864  13.178
60954SOL    HW184636   7.853   1.926  13.112
60954SOL    HW284637   7.899   1.782  13.130
60955SOL     OW84638   1.135  10.081  13.997
60955SOL    HW184639   1.169  10.131  14.071
60955SOL    HW284640   1.130  10.145  13.925
60956SOL     OW84641   3.861   6.813  13.404
60956SOL    HW184642   3.900   6.730  13.376
60956SOL    HW284643   3.907   6.833  13.486
60957SOL     OW84644   3.234  13.842  10.908
60957SOL    HW184645   3.267  13.868  10.995
60957SOL    HW284646   3.185  13.917  10.877
60958SOL     OW84647   4.231  11.828   3.547
60958SOL    HW184648   4.246  11.741   3.509
60958SOL    HW284649   4.315  11.851   3.588
60959SOL     OW84650   3.475   8.519  10.756
60959SOL    HW184651   3.557   8.544  10.714
60959SOL    HW284652   3.495   8.436  10.800
60960SOL     OW84653   7.373   7.667   4.580
60960SOL    HW184654   7.323   7.598   4.624
60960SOL    HW284655   7.439   7.620   4.529
60961SOL     OW84656  10.979   8.657   4.263
60961SOL    HW184657  11.066   8.687   4.236
60961SOL    HW284658  10.919   8.698   4.201
60962SOL     OW84659   4.621  13.259   8.633
60962SOL    HW184660   4.590  13.207   8.559
60962SOL    HW284661   4.585  13.346   8.617
60963SOL     OW84662  12.900   4.089   1.342
60963SOL    HW184663  12.887   4.174   1.300
60963SOL    HW284664  12.993   4.072   1.334
60964SOL     OW84665   0.023   5.545   4.472
60964SOL    HW184666  14.832   5.483   4.466
60964SOL    HW284667   0.098   5.493   4.499
60965SOL     OW84668   9.926  11.251   1.800
60965SOL    HW184669   9.904  11.167   1.760
60965SOL    HW284670  10.021  11.257   1.791
60966SOL     OW84671   6.841   6.064  13.776
60966SOL    HW184672   6.746   6.062  13.765
60966SOL    HW284673   6.872   6.123  13.707
60967SOL     OW84674   0.060   3.569   1.693
60967SOL    HW184675   0.022   3.482   1.690
60967SOL    HW284676  14.867   3.627   1.712
60968SOL     OW84677  11.875   1.524   3.377
60968SOL    HW184678  11.901   1.566   3.460
60968SOL    HW284679  11.934   1.450   3.368
60969SOL     OW84680   5.164  11.991  10.616
60969SOL    HW184681   5.239  12.044  10.644
60969SOL    HW284682   5.187  11.902  10.642
60970SOL     OW84683   1.799   6.533  11.688
60970SOL    HW184684   1.820   6.601  11.624
60970SOL    HW284685   1.791   6.453  11.636
60971SOL     OW84686   9.538   3.476   5.353
60971SOL    HW184687   9.622   3.466   5.308
60971SOL    HW284688   9.562   3.494   5.444
60972SOL     OW84689  12.685  10.345  12.958
60972SOL    HW184690  12.617  10.394  12.912
60972SOL    HW284691  12.671  10.254  12.932
60973SOL     OW84692  14.114   6.479   2.282
60973SOL    HW184693  14.079   6.489   2.371
60973SOL    HW284694  14.178   6.549   2.273
60974SOL     OW84695   5.189   6.031   4.704
60974SOL    HW184696   5.123   6.009   4.769
60974SOL    HW284697   5.187   6.127   4.699
60975SOL     OW84698   1.989   8.810   9.022
60975SOL    HW184699   2.058   8.862   9.062
60975SOL    HW284700   2.032   8.728   8.998
60976SOL     OW84701   3.849   8.929  11.220
60976SOL    HW184702   3.841   8.849  11.272
60976SOL    HW284703   3.931   8.969  11.251
60977SOL     OW84704   1.320   3.342   4.293
60977SOL    HW184705   1.327   3.438   4.294
60977SOL    HW284706   1.283   3.323   4.206
60978SOL     OW84707   1.333  13.922  13.386
60978SOL    HW184708   1.330  14.017  13.373
60978SOL    HW284709   1.371  13.911  13.473
60979SOL     OW84710   5.816  13.692   2.063
60979SOL    HW184711   5.844  13.607   2.098
60979SOL    HW284712   5.885  13.753   2.091
60980SOL     OW84713   8.676   3.680  14.222
60980SOL    HW184714   8.593   3.728  14.221
60980SOL    HW284715   8.679   3.639  14.309
60981SOL     OW84716   5.791   3.345   6.230
60981SOL    HW184717   5.730   3.288   6.276
60981SOL    HW284718   5.755   3.433   6.240
60982SOL     OW84719   8.300   0.722   3.538
60982SOL    HW184720   8.250   0.642   3.558
60982SOL    HW284721   8.391   0.692   3.534
60983SOL     OW84722   1.621  10.743  10.907
60983SOL    HW184723   1.605  10.755  11.001
60983SOL    HW284724   1.714  10.722  10.901
60984SOL     OW84725   6.176   4.840  12.869
60984SOL    HW184726   6.081   4.835  12.874
60984SOL    HW284727   6.196   4.932  12.883
60985SOL     OW84728   5.097   2.008  12.856
60985SOL    HW184729   5.177   1.969  12.820
60985SOL    HW284730   5.115   2.102  12.858
60986SOL     OW84731   1.514  14.583  13.408
60986SOL    HW184732   1.498  14.489  13.410
60986SOL    HW284733   1.571  14.595  13.332
60987SOL     OW84734   4.244   2.792   3.332
60987SOL    HW184735   4.234   2.882   3.300
60987SOL    HW284736   4.272   2.742   3.256
60988SOL     OW84737   2.886   7.870   7.383
60988SOL    HW184738   2.832   7.941   7.348
60988SOL    HW284739   2.973   7.909   7.393
60989SOL     OW84740   0.136   5.090   1.997
60989SOL    HW184741   0.170   5.169   2.040
60989SOL    HW284742   0.054   5.071   2.042
60990SOL     OW84743   0.942   6.816  14.468
60990SOL    HW184744   0.916   6.724  14.460
60990SOL    HW284745   0.874   6.855  14.523
60991SOL     OW84746   2.630  11.535  11.946
60991SOL    HW184747   2.556  11.504  11.894
60991SOL    HW284748   2.689  11.460  11.950
60992SOL     OW84749   6.764  11.090   4.363
60992SOL    HW184750   6.758  11.122   4.453
60992SOL    HW284751   6.709  11.150   4.312
60993SOL     OW84752   2.709   7.658   2.279
60993SOL    HW184753   2.713   7.593   2.349
60993SOL    HW284754   2.645   7.723   2.310
60994SOL     OW84755   6.796   4.469  11.254
60994SOL    HW184756   6.852   4.535  11.295
60994SOL    HW284757   6.848   4.389  11.256
60995SOL     OW84758   4.727   8.576   7.018
60995SOL    HW184759   4.814   8.570   7.057
60995SOL    HW284760   4.728   8.660   6.972
60996SOL     OW84761   1.838  12.729  14.120
60996SOL    HW184762   1.850  12.809  14.070
60996SOL    HW284763   1.749  12.737  14.156
60997SOL     OW84764   1.681   5.642   6.140
60997SOL    HW184765   1.757   5.634   6.083
60997SOL    HW284766   1.695   5.724   6.187
60998SOL     OW84767  10.811   2.851  13.465
60998SOL    HW184768  10.718   2.834  13.450
60998SOL    HW284769  10.856   2.777  13.424
60999SOL     OW84770   3.118  10.464   6.447
60999SOL    HW184771   3.178  10.460   6.373
60999SOL    HW284772   3.115  10.556   6.472
61000SOL     OW84773  11.214   0.513  11.856
61000SOL    HW184774  11.293   0.470  11.823
61000SOL    HW284775  11.177   0.557  11.780
61001SOL     OW84776   8.548   3.017   3.960
61001SOL    HW184777   8.559   3.100   3.915
61001SOL    HW284778   8.577   2.951   3.896
61002SOL     OW84779   9.806   0.338  10.231
61002SOL    HW184780   9.803   0.433  10.221
61002SOL    HW284781   9.798   0.303  10.142
61003SOL     OW84782   8.099   1.166  12.909
61003SOL    HW184783   8.065   1.199  12.992
61003SOL    HW284784   8.180   1.215  12.895
61004SOL     OW84785   5.981  11.479  12.391
61004SOL    HW184786   6.055  11.510  12.443
61004SOL    HW284787   5.906  11.529  12.423
61005SOL     OW84788  13.302   8.139   7.625
61005SOL    HW184789  13.262   8.163   7.709
61005SOL    HW284790  13.235   8.161   7.561
61006SOL     OW84791   0.374  11.929   3.815
61006SOL    HW184792   0.379  12.008   3.870
61006SOL    HW284793   0.282  11.925   3.787
61007SOL     OW84794  12.896   3.279   1.183
61007SOL    HW184795  12.852   3.364   1.184
61007SOL    HW284796  12.989   3.300   1.176
61008SOL     OW84797   2.154   6.672   4.634
61008SOL    HW184798   2.206   6.631   4.565
61008SOL    HW284799   2.162   6.614   4.709
61009SOL     OW84800  11.219   4.528   8.427
61009SOL    HW184801  11.237   4.567   8.513
61009SOL    HW284802  11.294   4.555   8.373
61010SOL     OW84803   9.484   2.200  12.814
61010SOL    HW184804   9.477   2.245  12.898
61010SOL    HW284805   9.453   2.264  12.750
61011SOL     OW84806   3.235   4.432  12.110
61011SOL    HW184807   3.212   4.506  12.167
61011SOL    HW284808   3.328   4.443  12.091
61012SOL     OW84809  12.195   0.755   2.906
61012SOL    HW184810  12.107   0.750   2.944
61012SOL    HW284811  12.253   0.765   2.982
61013SOL     OW84812   3.581  10.801  10.687
61013SOL    HW184813   3.595  10.802  10.592
61013SOL    HW284814   3.565  10.893  10.710
61014SOL     OW84815  12.180   5.983   7.728
61014SOL    HW184816  12.126   5.912   7.692
61014SOL    HW284817  12.193   6.043   7.654
61015SOL     OW84818   7.044  11.341   7.987
61015SOL    HW184819   6.964  11.393   7.973
61015SOL    HW284820   7.044  11.322   8.080
61016SOL     OW84821  12.500  12.267  12.779
61016SOL    HW184822  12.464  12.186  12.815
61016SOL    HW284823  12.548  12.307  12.851
61017SOL     OW84824   5.018   4.092   6.350
61017SOL    HW184825   4.934   4.049   6.335
61017SOL    HW284826   5.083   4.030   6.317
61018SOL     OW84827   5.696  10.069   0.488
61018SOL    HW184828   5.648   9.988   0.475
61018SOL    HW284829   5.776  10.058   0.436
61019SOL     OW84830   9.285  14.336   2.730
61019SOL    HW184831   9.202  14.289   2.724
61019SOL    HW284832   9.260  14.429   2.735
61020SOL     OW84833  10.967   3.960   4.974
61020SOL    HW184834  10.922   3.878   4.993
61020SOL    HW284835  10.902   4.028   4.991
61021SOL     OW84836   6.724   6.421   6.820
61021SOL    HW184837   6.632   6.414   6.797
61021SOL    HW284838   6.757   6.331   6.818
61022SOL     OW84839   0.501   8.042   2.806
61022SOL    HW184840   0.556   8.002   2.873
61022SOL    HW284841   0.529   8.134   2.804
61023SOL     OW84842   0.443  13.061   7.341
61023SOL    HW184843   0.451  13.103   7.427
61023SOL    HW284844   0.532  13.036   7.318
61024SOL     OW84845  10.726  14.557   7.003
61024SOL    HW184846  10.632  14.563   6.984
61024SOL    HW284847  10.731  14.535   7.096
61025SOL     OW84848  13.485   9.561  11.784
61025SOL    HW184849  13.572   9.565  11.744
61025SOL    HW284850  13.475   9.470  11.812
61026SOL     OW84851   8.586  14.542   7.799
61026SOL    HW184852   8.673  14.520   7.767
61026SOL    HW284853   8.543  14.583   7.724
61027SOL     OW84854   0.520   9.112   9.960
61027SOL    HW184855   0.536   9.027   9.919
61027SOL    HW284856   0.546   9.176   9.894
61028SOL     OW84857  11.332   6.039   1.411
61028SOL    HW184858  11.409   6.094   1.420
61028SOL    HW284859  11.296   6.033   1.499
61029SOL     OW84860   5.155   3.015   2.735
61029SOL    HW184861   5.133   3.016   2.828
61029SOL    HW284862   5.249   3.037   2.733
61030SOL     OW84863   6.694   6.287  11.959
61030SOL    HW184864   6.611   6.334  11.958
61030SOL    HW284865   6.760   6.355  11.974
61031SOL     OW84866  12.237   0.704  13.854
61031SOL    HW184867  12.317   0.696  13.907
61031SOL    HW284868  12.177   0.754  13.909
61032SOL     OW84869  13.230  10.732  14.663
61032SOL    HW184870  13.179  10.760  14.587
61032SOL    HW284871  13.167  10.689  14.720
61033SOL     OW84872   0.408   3.706   0.478
61033SOL    HW184873   0.396   3.691   0.572
61033SOL    HW284874   0.441   3.795   0.471
61034SOL     OW84875  11.911   5.626   5.896
61034SOL    HW184876  11.967   5.701   5.914
61034SOL    HW284877  11.956   5.552   5.936
61035SOL     OW84878   5.232  14.398   3.293
61035SOL    HW184879   5.143  14.393   3.258
61035SOL    HW284880   5.221  14.406   3.387
61036SOL     OW84881   0.658   5.266  13.243
61036SOL    HW184882   0.671   5.330  13.313
61036SOL    HW284883   0.621   5.317  13.171
61037SOL     OW84884   1.772  12.425  10.132
61037SOL    HW184885   1.700  12.400  10.190
61037SOL    HW284886   1.810  12.341  10.105
61038SOL     OW84887   8.699   5.186  11.092
61038SOL    HW184888   8.788   5.162  11.119
61038SOL    HW284889   8.674   5.117  11.030
61039SOL     OW84890  13.423  14.734  14.618
61039SOL    HW184891  13.336  14.707  14.588
61039SOL    HW284892  13.484  14.679  14.567
61040SOL     OW84893   4.535   4.732   8.155
61040SOL    HW184894   4.622   4.764   8.178
61040SOL    HW284895   4.523   4.755   8.063
61041SOL     OW84896   4.678   7.760   2.116
61041SOL    HW184897   4.647   7.702   2.186
61041SOL    HW284898   4.700   7.841   2.161
61042SOL     OW84899   0.253   0.149  13.330
61042SOL    HW184900   0.187   0.215  13.306
61042SOL    HW284901   0.281   0.174  13.418
61043SOL     OW84902   8.431   6.614  11.507
61043SOL    HW184903   8.388   6.533  11.534
61043SOL    HW284904   8.372   6.684  11.536
61044SOL     OW84905  12.795  11.006   6.854
61044SOL    HW184906  12.852  10.952   6.799
61044SOL    HW284907  12.826  11.096   6.839
61045SOL     OW84908   9.440   4.855   0.344
61045SOL    HW184909   9.410   4.784   0.288
61045SOL    HW284910   9.425   4.823   0.433
61046SOL     OW84911   9.208  11.343   7.829
61046SOL    HW184912   9.249  11.419   7.870
61046SOL    HW284913   9.282  11.291   7.797
61047SOL     OW84914  11.879   1.905  10.816
61047SOL    HW184915  11.915   1.937  10.733
61047SOL    HW284916  11.906   1.970  10.880
61048SOL     OW84917   3.490  11.618   3.488
61048SOL    HW184918   3.518  11.701   3.450
61048SOL    HW284919   3.399  11.608   3.458
61049SOL     OW84920   3.411   0.155   5.140
61049SOL    HW184921   3.418   0.247   5.166
61049SOL    HW284922   3.465   0.148   5.062
61050SOL     OW84923   6.363  12.135   3.533
61050SOL    HW184924   6.293  12.142   3.597
61050SOL    HW284925   6.443  12.156   3.581
61051SOL     OW84926   0.785   2.358   1.491
61051SOL    HW184927   0.702   2.338   1.533
61051SOL    HW284928   0.849   2.307   1.541
61052SOL     OW84929   0.907  11.048  10.218
61052SOL    HW184930   0.831  11.104  10.234
61052SOL    HW284931   0.870  10.967  10.183
61053SOL     OW84932   2.094   8.923   9.320
61053SOL    HW184933   2.076   8.830   9.338
61053SOL    HW284934   2.141   8.953   9.397
61054SOL     OW84935   2.681  11.388   8.385
61054SOL    HW184936   2.674  11.390   8.289
61054SOL    HW284937   2.725  11.305   8.403
61055SOL     OW84938   2.758  14.483   3.723
61055SOL    HW184939   2.828  14.535   3.762
61055SOL    HW284940   2.775  14.393   3.752
61056SOL     OW84941  11.986  11.274  10.331
61056SOL    HW184942  11.908  11.300  10.281
61056SOL    HW284943  12.055  11.267  10.265
61057SOL     OW84944   4.098   5.186   1.427
61057SOL    HW184945   4.039   5.259   1.442
61057SOL    HW284946   4.161   5.191   1.499
61058SOL     OW84947   0.826   7.555   6.339
61058SOL    HW184948   0.798   7.494   6.407
61058SOL    HW284949   0.752   7.615   6.330
61059SOL     OW84950   4.457   6.482   7.494
61059SOL    HW184951   4.364   6.503   7.483
61059SOL    HW284952   4.459   6.420   7.568
61060SOL     OW84953  10.030   4.913   6.348
61060SOL    HW184954  10.108   4.960   6.318
61060SOL    HW284955  10.046   4.822   6.325
61061SOL     OW84956   9.184  11.914   0.041
61061SOL    HW184957   9.179  11.968  14.843
61061SOL    HW284958   9.118  11.846   0.028
61062SOL     OW84959   1.877   3.986   7.987
61062SOL    HW184960   1.802   4.043   8.003
61062SOL    HW284961   1.941   4.012   8.053
61063SOL     OW84962   8.620   0.154   9.548
61063SOL    HW184963   8.560   0.145   9.622
61063SOL    HW284964   8.698   0.196   9.584
61064SOL     OW84965  11.764  14.415  12.038
61064SOL    HW184966  11.759  14.483  12.104
61064SOL    HW284967  11.811  14.455  11.965
61065SOL     OW84968   6.403  10.708  14.875
61065SOL    HW184969   6.307  10.708  14.875
61065SOL    HW284970   6.427  10.637  14.815
61066SOL     OW84971   5.838   1.694  10.584
61066SOL    HW184972   5.811   1.767  10.639
61066SOL    HW284973   5.802   1.616  10.627
61067SOL     OW84974  10.110   3.701  11.175
61067SOL    HW184975  10.020   3.707  11.143
61067SOL    HW284976  10.147   3.788  11.159
61068SOL     OW84977  13.303   3.708   2.879
61068SOL    HW184978  13.220   3.725   2.835
61068SOL    HW284979  13.292   3.743   2.967
61069SOL     OW84980   1.681   9.388   2.037
61069SOL    HW184981   1.684   9.465   1.979
61069SOL    HW284982   1.749   9.330   2.003
61070SOL     OW84983  11.382   7.064   5.356
61070SOL    HW184984  11.353   7.153   5.376
61070SOL    HW284985  11.472   7.074   5.324
61071SOL     OW84986   9.816   1.907  11.101
61071SOL    HW184987   9.787   1.821  11.069
61071SOL    HW284988   9.911   1.900  11.106
61072SOL     OW84989   5.938  11.660   2.870
61072SOL    HW184990   5.912  11.635   2.958
61072SOL    HW284991   5.990  11.585   2.838
61073SOL     OW84992   9.104   7.824   9.894
61073SOL    HW184993   9.169   7.857   9.833
61073SOL    HW284994   9.153   7.800   9.972
61074SOL     OW84995  10.892  11.248   9.480
61074SOL    HW184996  10.838  11.170   9.467
61074SOL    HW284997  10.831  11.313   9.515
61075SOL     OW84998   7.708   1.874   9.524
61075SOL    HW184999   7.793   1.844   9.491
61075SOL    HW285000   7.655   1.886   9.445
61076SOL     OW85001   3.490  11.962   2.581
61076SOL    HW185002   3.495  12.052   2.549
61076SOL    HW285003   3.414  11.925   2.535
61077SOL     OW85004   0.504   2.934   5.475
61077SOL    HW185005   0.523   2.852   5.429
61077SOL    HW285006   0.519   3.003   5.411
61078SOL     OW85007  12.847   0.256  14.557
61078SOL    HW185008  12.919   0.316  14.536
61078SOL    HW285009  12.877   0.171  14.526
61079SOL     OW85010   1.943   5.129  12.593
61079SOL    HW185011   2.034   5.102  12.582
61079SOL    HW285012   1.927   5.122  12.687
61080SOL     OW85013   0.822  11.644  14.447
61080SOL    HW185014   0.748  11.619  14.391
61080SOL    HW285015   0.884  11.687  14.388
61081SOL     OW85016   1.613  10.664  13.782
61081SOL    HW185017   1.610  10.614  13.864
61081SOL    HW285018   1.664  10.742  13.803
61082SOL     OW85019   1.835   0.307   8.115
61082SOL    HW185020   1.835   0.360   8.195
61082SOL    HW285021   1.742   0.295   8.095
61083SOL     OW85022  12.994  14.796  10.704
61083SOL    HW185023  12.958   0.003  10.710
61083SOL    HW285024  13.002  14.767  10.795
61084SOL     OW85025   0.867   2.655   3.732
61084SOL    HW185026   0.873   2.649   3.637
61084SOL    HW285027   0.784   2.612   3.754
61085SOL     OW85028   8.098   1.201  14.669
61085SOL    HW185029   8.103   1.106  14.657
61085SOL    HW285030   8.182   1.225  14.707
61086SOL     OW85031   3.871   6.907   6.462
61086SOL    HW185032   3.831   6.986   6.499
61086SOL    HW285033   3.948   6.893   6.517
61087SOL     OW85034  12.082   6.999   5.515
61087SOL    HW185035  12.078   6.957   5.601
61087SOL    HW285036  12.101   6.928   5.454
61088SOL     OW85037   7.474   8.813   8.532
61088SOL    HW185038   7.448   8.721   8.536
61088SOL    HW285039   7.428   8.854   8.605
61089SOL     OW85040   6.134  13.634   2.529
61089SOL    HW185041   6.174  13.709   2.484
61089SOL    HW285042   6.189  13.621   2.607
61090SOL     OW85043  10.911   8.162   1.057
61090SOL    HW185044  10.973   8.220   1.012
61090SOL    HW285045  10.827   8.206   1.049
61091SOL     OW85046  12.958  10.132   7.299
61091SOL    HW185047  12.932  10.179   7.378
61091SOL    HW285048  12.899  10.057   7.296
61092SOL     OW85049   7.645  10.761   3.751
61092SOL    HW185050   7.561  10.806   3.754
61092SOL    HW285051   7.661  10.746   3.658
61093SOL     OW85052  10.614  13.115  14.708
61093SOL    HW185053  10.522  13.114  14.681
61093SOL    HW285054  10.624  13.038  14.764
61094SOL     OW85055  11.186   4.907   0.751
61094SOL    HW185056  11.233   4.991   0.757
61094SOL    HW285057  11.160   4.900   0.660
61095SOL     OW85058  12.238   6.715   0.888
61095SOL    HW185059  12.162   6.669   0.853
61095SOL    HW285060  12.295   6.727   0.812
61096SOL     OW85061   8.773   9.812  11.369
61096SOL    HW185062   8.852   9.758  11.362
61096SOL    HW285063   8.789   9.885  11.310
61097SOL     OW85064   1.816   7.296   2.630
61097SOL    HW185065   1.900   7.299   2.676
61097SOL    HW285066   1.752   7.326   2.695
61098SOL     OW85067   0.853   3.577   6.808
61098SOL    HW185068   0.770   3.540   6.776
61098SOL    HW285069   0.878   3.518   6.880
61099SOL     OW85070  12.340   2.402   0.225
61099SOL    HW185071  12.278   2.343   0.183
61099SOL    HW285072  12.286   2.464   0.273
61100SOL     OW85073   2.298  12.663  10.463
61100SOL    HW185074   2.238  12.728  10.499
61100SOL    HW285075   2.335  12.619  10.539
61101SOL     OW85076  10.220   3.420  13.865
61101SOL    HW185077  10.212   3.413  13.770
61101SOL    HW285078  10.170   3.499  13.887
61102SOL     OW85079   6.925   0.096   8.329
61102SOL    HW185080   6.931   0.107   8.234
61102SOL    HW285081   6.841   0.135   8.352
61103SOL     OW85082  10.733   1.447   4.850
61103SOL    HW185083  10.684   1.368   4.827
61103SOL    HW285084  10.775   1.425   4.933
61104SOL     OW85085   7.713   2.928   7.457
61104SOL    HW185086   7.685   2.916   7.366
61104SOL    HW285087   7.809   2.923   7.452
61105SOL     OW85088  14.491   4.040   1.161
61105SOL    HW185089  14.425   4.093   1.205
61105SOL    HW285090  14.530   4.099   1.096
61106SOL     OW85091  14.618  13.726  14.819
61106SOL    HW185092  14.704  13.737  14.859
61106SOL    HW285093  14.584  13.815  14.808
61107SOL     OW85094   3.449   6.823  11.606
61107SOL    HW185095   3.373   6.880  11.617
61107SOL    HW285096   3.425   6.742  11.651
61108SOL     OW85097   6.528   6.106   3.070
61108SOL    HW185098   6.478   6.116   2.988
61108SOL    HW285099   6.590   6.179   3.069
61109SOL     OW85100   0.685   2.450  13.504
61109SOL    HW185101   0.751   2.518  13.488
61109SOL    HW285102   0.607   2.480  13.457
61110SOL     OW85103   3.012   4.730   8.079
61110SOL    HW185104   2.988   4.773   8.161
61110SOL    HW285105   2.941   4.667   8.064
61111SOL     OW85106   0.635  10.286   9.078
61111SOL    HW185107   0.585  10.358   9.117
61111SOL    HW285108   0.726  10.307   9.098
61112SOL     OW85109  13.175  11.228   6.799
61112SOL    HW185110  13.262  11.191   6.816
61112SOL    HW285111  13.123  11.155   6.767
61113SOL     OW85112   0.114   9.147   6.585
61113SOL    HW185113   0.185   9.211   6.592
61113SOL    HW285114   0.069   9.170   6.504
61114SOL     OW85115   7.667   6.007   4.586
61114SOL    HW185116   7.604   6.060   4.538
61114SOL    HW285117   7.752   6.029   4.547
61115SOL     OW85118   8.783   9.096  14.508
61115SOL    HW185119   8.695   9.102  14.470
61115SOL    HW285120   8.774   9.132  14.596
61116SOL     OW85121   5.193  12.018   7.598
61116SOL    HW185122   5.191  11.934   7.553
61116SOL    HW285123   5.286  12.034   7.615
61117SOL     OW85124   6.663   5.321  12.533
61117SOL    HW185125   6.610   5.346  12.458
61117SOL    HW285126   6.747   5.367  12.520
61118SOL     OW85127   9.565  10.544  10.132
61118SOL    HW185128   9.637  10.606  10.118
61118SOL    HW285129   9.554  10.542  10.227
61119SOL     OW85130   3.132   7.716   7.206
61119SOL    HW185131   3.169   7.734   7.293
61119SOL    HW285132   3.070   7.645   7.221
61120SOL     OW85133   0.815  11.851   3.654
61120SOL    HW185134   0.819  11.760   3.624
61120SOL    HW285135   0.881  11.896   3.601
61121SOL     OW85136   0.514  10.367   2.343
61121SOL    HW185137   0.438  10.319   2.377
61121SOL    HW285138   0.477  10.440   2.294
61122SOL     OW85139   8.349   1.876   0.773
61122SOL    HW185140   8.419   1.912   0.827
61122SOL    HW285141   8.270   1.917   0.806
61123SOL     OW85142   3.970  11.111   0.203
61123SOL    HW185143   4.021  11.158   0.137
61123SOL    HW285144   3.909  11.176   0.237
61124SOL     OW85145  12.953  12.932  10.655
61124SOL    HW185146  12.961  12.844  10.618
61124SOL    HW285147  12.959  12.991  10.580
61125SOL     OW85148  13.448   6.782  10.599
61125SOL    HW185149  13.451   6.832  10.680
61125SOL    HW285150  13.496   6.701  10.618
61126SOL     OW85151   4.685   8.328  11.338
61126SOL    HW185152   4.678   8.341  11.433
61126SOL    HW285153   4.759   8.268  11.328
61127SOL     OW85154   3.096   3.431   8.116
61127SOL    HW185155   3.110   3.460   8.207
61127SOL    HW285156   3.009   3.466   8.093
61128SOL     OW85157  12.399   1.595   1.520
61128SOL    HW185158  12.361   1.663   1.464
61128SOL    HW285159  12.460   1.549   1.462
61129SOL     OW85160  10.318  13.036   4.132
61129SOL    HW185161  10.351  12.953   4.169
61129SOL    HW285162  10.303  13.016   4.040
61130SOL     OW85163  12.569   2.765  13.361
61130SOL    HW185164  12.581   2.696  13.426
61130SOL    HW285165  12.630   2.741  13.291
61131SOL     OW85166   5.290   7.484  10.365
61131SOL    HW185167   5.204   7.451  10.390
61131SOL    HW285168   5.348   7.409  10.372
61132SOL     OW85169  10.731  11.572  10.961
61132SOL    HW185170  10.720  11.499  10.900
61132SOL    HW285171  10.699  11.538  11.045
61133SOL     OW85172  14.877   2.140  12.891
61133SOL    HW185173  14.857   2.047  12.883
61133SOL    HW285174   0.081   2.151  12.849
61134SOL     OW85175   1.806  11.485  10.481
61134SOL    HW185176   1.821  11.513  10.571
61134SOL    HW285177   1.886  11.440  10.455
61135SOL     OW85178  13.636  11.363  14.177
61135SOL    HW185179  13.569  11.316  14.227
61135SOL    HW285180  13.715  11.355  14.230
61136SOL     OW85181   5.568   1.037  14.178
61136SOL    HW185182   5.633   1.057  14.111
61136SOL    HW285183   5.617   0.996  14.248
61137SOL     OW85184   3.453  13.593   9.426
61137SOL    HW185185   3.424  13.684   9.422
61137SOL    HW285186   3.545  13.599   9.451
61138SOL     OW85187   9.975  11.450   9.500
61138SOL    HW185188  10.047  11.389   9.511
61138SOL    HW285189   9.956  11.482   9.588
61139SOL     OW85190   4.109  13.087   6.560
61139SOL    HW185191   4.110  13.003   6.514
61139SOL    HW285192   4.034  13.134   6.524
61140SOL     OW85193   0.082  13.143   9.821
61140SOL    HW185194   0.010  13.160   9.759
61140SOL    HW285195   0.066  13.053   9.851
61141SOL     OW85196   8.542  13.486  13.607
61141SOL    HW185197   8.584  13.427  13.544
61141SOL    HW285198   8.488  13.428  13.660
61142SOL     OW85199   5.108   4.667   4.032
61142SOL    HW185200   5.046   4.606   4.072
61142SOL    HW285201   5.131   4.728   4.102
61143SOL     OW85202  13.293  12.941  13.776
61143SOL    HW185203  13.234  12.869  13.751
61143SOL    HW285204  13.235  13.009  13.810
61144SOL     OW85205   0.854  13.827  10.133
61144SOL    HW185206   0.825  13.742  10.166
61144SOL    HW285207   0.773  13.874  10.112
61145SOL     OW85208  14.558   5.902   5.430
61145SOL    HW185209  14.550   5.904   5.525
61145SOL    HW285210  14.651   5.918   5.414
61146SOL     OW85211   8.633   4.371   1.629
61146SOL    HW185212   8.604   4.380   1.720
61146SOL    HW285213   8.553   4.351   1.580
61147SOL     OW85214   4.414  11.710   9.206
61147SOL    HW185215   4.421  11.634   9.148
61147SOL    HW285216   4.478  11.693   9.275
61148SOL     OW85217   5.292  11.793   4.877
61148SOL    HW185218   5.250  11.722   4.829
61148SOL    HW285219   5.219  11.840   4.919
61149SOL     OW85220  10.615   2.355   8.216
61149SOL    HW185221  10.595   2.303   8.294
61149SOL    HW285222  10.580   2.442   8.236
61150SOL     OW85223  14.836   0.381   5.520
61150SOL    HW185224  14.821   0.286   5.525
61150SOL    HW285225  14.751   0.417   5.494
61151SOL     OW85226   4.285  12.869  11.292
61151SOL    HW185227   4.335  12.789  11.275
61151SOL    HW285228   4.295  12.921  11.213
61152SOL     OW85229  14.315   3.442  13.510
61152SOL    HW185230  14.252   3.435  13.438
61152SOL    HW285231  14.400   3.426  13.469
61153SOL     OW85232   8.980   2.798   6.777
61153SOL    HW185233   8.926   2.728   6.740
61153SOL    HW285234   8.953   2.877   6.730
61154SOL     OW85235   0.125   3.876   2.697
61154SOL    HW185236   0.217   3.889   2.672
61154SOL    HW285237   0.127   3.803   2.758
61155SOL     OW85238   3.920  14.333   9.925
61155SOL    HW185239   3.861  14.265   9.894
61155SOL    HW285240   3.941  14.385   9.848
61156SOL     OW85241  14.148   2.887  14.088
61156SOL    HW185242  14.197   2.969  14.087
61156SOL    HW285243  14.065   2.909  14.129
61157SOL     OW85244   1.042   6.725   6.721
61157SOL    HW185245   1.064   6.769   6.638
61157SOL    HW285246   0.955   6.757   6.744
61158SOL     OW85247   5.596   4.917   6.595
61158SOL    HW185248   5.534   4.989   6.603
61158SOL    HW285249   5.593   4.893   6.502
61159SOL     OW85250   0.278   2.344   0.370
61159SOL    HW185251   0.201   2.362   0.317
61159SOL    HW285252   0.268   2.399   0.448
61160SOL     OW85253   8.206   1.225  11.504
61160SOL    HW185254   8.142   1.258  11.567
61160SOL    HW285255   8.289   1.225  11.552
61161SOL     OW85256   3.956   0.715  11.133
61161SOL    HW185257   3.901   0.762  11.196
61161SOL    HW285258   3.896   0.689  11.063
61162SOL     OW85259   5.119  14.676   2.516
61162SOL    HW185260   5.195  14.728   2.491
61162SOL    HW285261   5.045  14.736   2.507
61163SOL     OW85262   1.475   4.704   8.205
61163SOL    HW185263   1.480   4.769   8.275
61163SOL    HW285264   1.382   4.698   8.184
61164SOL     OW85265  14.127   6.318   7.562
61164SOL    HW185266  14.134   6.227   7.590
61164SOL    HW285267  14.033   6.331   7.544
61165SOL     OW85268   0.250   1.126   0.887
61165SOL    HW185269   0.254   1.209   0.934
61165SOL    HW285270   0.183   1.075   0.933
61166SOL     OW85271  10.590  10.577   9.972
61166SOL    HW185272  10.660  10.551  10.032
61166SOL    HW285273  10.511  10.576  10.026
61167SOL     OW85274   7.937   2.864   3.332
61167SOL    HW185275   7.997   2.933   3.302
61167SOL    HW285276   7.857   2.878   3.281
61168SOL     OW85277  12.060   0.138   9.105
61168SOL    HW185278  12.057   0.233   9.101
61168SOL    HW285279  12.095   0.118   9.192
61169SOL     OW85280   6.040   6.720  14.161
61169SOL    HW185281   6.045   6.814  14.175
61169SOL    HW285282   6.130   6.693  14.146
61170SOL     OW85283   4.120   0.635  11.347
61170SOL    HW185284   4.084   0.684  11.421
61170SOL    HW285285   4.068   0.663  11.272
61171SOL     OW85286  10.634  12.487   8.139
61171SOL    HW185287  10.566  12.463   8.076
61171SOL    HW285288  10.707  12.517   8.085
61172SOL     OW85289   3.374  14.383   8.014
61172SOL    HW185290   3.387  14.441   7.939
61172SOL    HW285291   3.455  14.393   8.065
61173SOL     OW85292  14.681  10.576   8.467
61173SOL    HW185293  14.628  10.509   8.510
61173SOL    HW285294  14.618  10.633   8.423
61174SOL     OW85295  14.503  10.684   4.422
61174SOL    HW185296  14.453  10.741   4.481
61174SOL    HW285297  14.437  10.648   4.363
61175SOL     OW85298   4.545  13.782  11.624
61175SOL    HW185299   4.477  13.786  11.558
61175SOL    HW285300   4.517  13.711  11.683
61176SOL     OW85301   7.009   0.582  11.159
61176SOL    HW185302   7.011   0.500  11.111
61176SOL    HW285303   7.045   0.647  11.099
61177SOL     OW85304  13.547   7.391   6.435
61177SOL    HW185305  13.530   7.300   6.458
61177SOL    HW285306  13.468   7.438   6.463
61178SOL     OW85307   0.258   8.934   4.893
61178SOL    HW185308   0.272   8.925   4.987
61178SOL    HW285309   0.225   9.024   4.882
61179SOL     OW85310   0.365   6.366  11.785
61179SOL    HW185311   0.381   6.316  11.865
61179SOL    HW285312   0.410   6.318  11.716
61180SOL     OW85313   5.793   8.000   1.137
61180SOL    HW185314   5.811   8.040   1.222
61180SOL    HW285315   5.805   7.906   1.152
61181SOL     OW85316   2.525  12.722   5.819
61181SOL    HW185317   2.431  12.735   5.809
61181SOL    HW285318   2.558  12.808   5.845
61182SOL     OW85319   4.412   7.814  14.008
61182SOL    HW185320   4.433   7.816  14.102
61182SOL    HW285321   4.491   7.846  13.966
61183SOL     OW85322  11.980   7.468  12.853
61183SOL    HW185323  12.051   7.494  12.911
61183SOL    HW285324  12.011   7.387  12.812
61184SOL     OW85325  13.819   3.416   4.237
61184SOL    HW185326  13.867   3.451   4.161
61184SOL    HW285327  13.878   3.349   4.273
61185SOL     OW85328  12.384  12.660   6.662
61185SOL    HW185329  12.304  12.681   6.709
61185SOL    HW285330  12.411  12.743   6.622
61186SOL     OW85331   3.119   8.821   0.191
61186SOL    HW185332   3.213   8.835   0.184
61186SOL    HW285333   3.104   8.807   0.284
61187SOL     OW85334   8.281   5.209  14.601
61187SOL    HW185335   8.293   5.144  14.531
61187SOL    HW285336   8.332   5.175  14.674
61188SOL     OW85337   0.362   1.729  12.277
61188SOL    HW185338   0.315   1.779  12.344
61188SOL    HW285339   0.393   1.651  12.323
61189SOL     OW85340   4.746   2.360  11.522
61189SOL    HW185341   4.771   2.274  11.556
61189SOL    HW285342   4.651   2.364  11.534
61190SOL     OW85343   4.771  11.841  10.813
61190SOL    HW185344   4.810  11.856  10.727
61190SOL    HW285345   4.836  11.874  10.876
61191SOL     OW85346  12.894   9.604   3.913
61191SOL    HW185347  12.819   9.551   3.885
61191SOL    HW285348  12.901   9.673   3.847
61192SOL     OW85349   1.450   3.535   9.872
61192SOL    HW185350   1.418   3.474   9.938
61192SOL    HW285351   1.527   3.492   9.835
61193SOL     OW85352   5.236   3.414   7.627
61193SOL    HW185353   5.206   3.493   7.672
61193SOL    HW285354   5.226   3.434   7.534
61194SOL     OW85355   5.368  11.555  14.277
61194SOL    HW185356   5.411  11.516  14.353
61194SOL    HW285357   5.326  11.634  14.311
61195SOL     OW85358  11.210   4.654  10.709
61195SOL    HW185359  11.303   4.674  10.723
61195SOL    HW285360  11.183   4.713  10.639
61196SOL     OW85361   3.381   2.837  14.130
61196SOL    HW185362   3.447   2.834  14.061
61196SOL    HW285363   3.322   2.764  14.111
61197SOL     OW85364   4.204   6.230   0.411
61197SOL    HW185365   4.230   6.302   0.353
61197SOL    HW285366   4.267   6.161   0.393
61198SOL     OW85367   5.514  11.460   3.564
61198SOL    HW185368   5.512  11.462   3.660
61198SOL    HW285369   5.552  11.544   3.539
61199SOL     OW85370  10.041   5.057  12.275
61199SOL    HW185371   9.969   5.115  12.251
61199SOL    HW285372  10.001   4.971  12.283
61200SOL     OW85373   9.602  12.250   8.714
61200SOL    HW185374   9.596  12.257   8.810
61200SOL    HW285375   9.513  12.226   8.687
61201SOL     OW85376  11.158   3.700   8.385
61201SOL    HW185377  11.221   3.629   8.382
61201SOL    HW285378  11.093   3.673   8.449
61202SOL     OW85379   6.649   3.053   1.835
61202SOL    HW185380   6.723   3.060   1.775
61202SOL    HW285381   6.684   3.012   1.913
61203SOL     OW85382   4.361  14.666   8.192
61203SOL    HW185383   4.413  14.710   8.259
61203SOL    HW285384   4.363  14.574   8.217
61204SOL     OW85385   7.501   6.233  12.919
61204SOL    HW185386   7.484   6.198  12.831
61204SOL    HW285387   7.461   6.319  12.919
61205SOL     OW85388   7.317   5.905  12.436
61205SOL    HW185389   7.230   5.890  12.472
61205SOL    HW285390   7.344   5.820  12.401
61206SOL     OW85391  12.618  11.046   5.312
61206SOL    HW185392  12.598  11.013   5.224
61206SOL    HW285393  12.532  11.062   5.351
61207SOL     OW85394   0.607   7.311   3.094
61207SOL    HW185395   0.631   7.395   3.054
61207SOL    HW285396   0.539   7.276   3.036
61208SOL     OW85397  12.824  14.771   6.029
61208SOL    HW185398  12.867  14.771   6.114
61208SOL    HW285399  12.812  14.864   6.009
61209SOL     OW85400   4.684   2.044  12.417
61209SOL    HW185401   4.677   1.948  12.416
61209SOL    HW285402   4.644   2.070  12.500
61210SOL     OW85403   3.945   7.757   0.468
61210SOL    HW185404   3.863   7.715   0.440
61210SOL    HW285405   3.919   7.813   0.541
61211SOL     OW85406   3.519   4.210   2.965
61211SOL    HW185407   3.467   4.131   2.955
61211SOL    HW285408   3.455   4.281   2.976
61212SOL     OW85409   5.679  12.201   4.427
61212SOL    HW185410   5.615  12.263   4.461
61212SOL    HW285411   5.657  12.193   4.334
61213SOL     OW85412   7.263   9.660   3.089
61213SOL    HW185413   7.212   9.634   3.166
61213SOL    HW285414   7.308   9.581   3.062
61214SOL     OW85415   7.854   2.517   7.315
61214SOL    HW185416   7.876   2.505   7.222
61214SOL    HW285417   7.920   2.465   7.362
61215SOL     OW85418  14.048   9.579   8.329
61215SOL    HW185419  14.049   9.595   8.424
61215SOL    HW285420  14.052   9.666   8.290
61216SOL     OW85421   3.787   7.990   9.173
61216SOL    HW185422   3.868   8.032   9.143
61216SOL    HW285423   3.722   8.060   9.175
61217SOL     OW85424   0.503   4.425   7.728
61217SOL    HW185425   0.491   4.422   7.633
61217SOL    HW285426   0.598   4.433   7.740
61218SOL     OW85427  12.766  11.706  10.832
61218SOL    HW185428  12.787  11.647  10.904
61218SOL    HW285429  12.715  11.776  10.872
61219SOL     OW85430  12.272   7.031  13.492
61219SOL    HW185431  12.249   7.064  13.579
61219SOL    HW285432  12.208   7.071  13.433
61220SOL     OW85433   9.212  12.331  12.480
61220SOL    HW185434   9.180  12.282  12.404
61220SOL    HW285435   9.168  12.415  12.475
61221SOL     OW85436   7.972   9.441   3.816
61221SOL    HW185437   8.023   9.501   3.762
61221SOL    HW285438   8.025   9.431   3.896
61222SOL     OW85439   9.801   5.989  14.122
61222SOL    HW185440   9.871   5.926  14.105
61222SOL    HW285441   9.843   6.059  14.172
61223SOL     OW85442  12.407   3.712   8.379
61223SOL    HW185443  12.484   3.760   8.347
61223SOL    HW285444  12.425   3.621   8.356
61224SOL     OW85445   3.470  12.536  13.140
61224SOL    HW185446   3.467  12.598  13.212
61224SOL    HW285447   3.562  12.509  13.135
61225SOL     OW85448   6.270   7.275  14.868
61225SOL    HW185449   6.234   7.273   0.075
61225SOL    HW285450   6.331   7.202  14.864
61226SOL     OW85451   0.081  12.595  11.490
61226SOL    HW185452   0.072  12.502  11.470
61226SOL    HW285453   0.176  12.607  11.501
61227SOL     OW85454  13.326  12.668   0.095
61227SOL    HW185455  13.387  12.596   0.081
61227SOL    HW285456  13.285  12.648   0.179
61228SOL     OW85457  13.512  11.522   7.063
61228SOL    HW185458  13.487  11.429   7.061
61228SOL    HW285459  13.542  11.537   7.153
61229SOL     OW85460   8.819   8.350  14.811
61229SOL    HW185461   8.764   8.280  14.846
61229SOL    HW285462   8.758   8.423  14.798
61230SOL     OW85463   9.243  12.792  10.901
61230SOL    HW185464   9.244  12.722  10.966
61230SOL    HW285465   9.334  12.823  10.899
61231SOL     OW85466  11.481  11.790  13.101
61231SOL    HW185467  11.545  11.835  13.046
61231SOL    HW285468  11.525  11.778  13.185
61232SOL     OW85469   8.213   4.602   0.694
61232SOL    HW185470   8.307   4.612   0.680
61232SOL    HW285471   8.191   4.667   0.761
61233SOL     OW85472  14.408   1.888  14.427
61233SOL    HW185473  14.392   1.882  14.333
61233SOL    HW285474  14.370   1.972  14.452
61234SOL     OW85475   8.009   5.280   5.830
61234SOL    HW185476   7.935   5.261   5.773
61234SOL    HW285477   7.993   5.230   5.910
61235SOL     OW85478   2.703   5.670   2.351
61235SOL    HW185479   2.753   5.707   2.424
61235SOL    HW285480   2.673   5.746   2.302
61236SOL     OW85481   4.709  14.196   8.146
61236SOL    HW185482   4.625  14.150   8.143
61236SOL    HW285483   4.725  14.224   8.056
61237SOL     OW85484   0.471   5.024   5.284
61237SOL    HW185485   0.517   5.099   5.248
61237SOL    HW285486   0.524   4.948   5.258
61238SOL     OW85487   0.844  12.450  13.994
61238SOL    HW185488   0.793  12.501  14.058
61238SOL    HW285489   0.841  12.503  13.914
61239SOL     OW85490   4.847  10.872  10.255
61239SOL    HW185491   4.772  10.923  10.285
61239SOL    HW285492   4.817  10.832  10.172
61240SOL     OW85493  11.899   3.227   1.265
61240SOL    HW185494  11.931   3.240   1.355
61240SOL    HW285495  11.858   3.141   1.267
61241SOL     OW85496  12.410   0.587   5.650
61241SOL    HW185497  12.424   0.506   5.600
61241SOL    HW285498  12.378   0.557   5.735
61242SOL     OW85499   9.242   2.669   2.045
61242SOL    HW185500   9.272   2.750   2.003
61242SOL    HW285501   9.146   2.677   2.045
61243SOL     OW85502   5.795  12.227  13.213
61243SOL    HW185503   5.815  12.134  13.222
61243SOL    HW285504   5.701  12.234  13.230
61244SOL     OW85505  13.702   4.961  13.251
61244SOL    HW185506  13.638   4.917  13.307
61244SOL    HW285507  13.681   5.054  13.259
61245SOL     OW85508   7.661  10.512   9.535
61245SOL    HW185509   7.628  10.473   9.616
61245SOL    HW285510   7.751  10.481   9.528
61246SOL     OW85511   3.100  13.905  12.714
61246SOL    HW185512   3.093  13.833  12.778
61246SOL    HW285513   3.010  13.935  12.703
61247SOL     OW85514   4.014   1.393   2.073
61247SOL    HW185515   4.039   1.358   1.988
61247SOL    HW285516   4.038   1.324   2.135
61248SOL     OW85517  14.299  11.554   3.842
61248SOL    HW185518  14.389  11.587   3.842
61248SOL    HW285519  14.296  11.490   3.913
61249SOL     OW85520   3.257  13.498   6.188
61249SOL    HW185521   3.326  13.470   6.248
61249SOL    HW285522   3.178  13.455   6.221
61250SOL     OW85523  11.043   2.400   9.612
61250SOL    HW185524  11.038   2.472   9.676
61250SOL    HW285525  10.952   2.387   9.585
61251SOL     OW85526   8.736  13.531   9.951
61251SOL    HW185527   8.645  13.503   9.942
61251SOL    HW285528   8.732  13.603  10.014
61252SOL     OW85529  12.793   3.855   2.085
61252SOL    HW185530  12.784   3.817   2.173
61252SOL    HW285531  12.733   3.805   2.031
61253SOL     OW85532   7.091   5.248   6.700
61253SOL    HW185533   7.151   5.208   6.763
61253SOL    HW285534   7.009   5.256   6.747
61254SOL     OW85535   4.826   8.042   5.455
61254SOL    HW185536   4.896   7.990   5.416
61254SOL    HW285537   4.752   7.982   5.462
61255SOL     OW85538   8.510   5.333   2.856
61255SOL    HW185539   8.557   5.281   2.791
61255SOL    HW285540   8.426   5.289   2.866
61256SOL     OW85541   2.785   6.560   1.841
61256SOL    HW185542   2.860   6.616   1.860
61256SOL    HW285543   2.823   6.473   1.827
61257SOL     OW85544   7.940  12.377   6.163
61257SOL    HW185545   7.909  12.464   6.136
61257SOL    HW285546   7.950  12.384   6.258
61258SOL     OW85547   6.298   8.574   4.355
61258SOL    HW185548   6.349   8.496   4.335
61258SOL    HW285549   6.358   8.630   4.405
61259SOL     OW85550  13.115   0.317   0.230
61259SOL    HW185551  13.042   0.276   0.184
61259SOL    HW285552  13.112   0.409   0.203
61260SOL     OW85553   9.794   8.573  10.571
61260SOL    HW185554   9.845   8.572  10.490
61260SOL    HW285555   9.856   8.548  10.639
61261SOL     OW85556  13.330  13.028   4.645
61261SOL    HW185557  13.366  13.074   4.721
61261SOL    HW285558  13.266  13.089   4.609
61262SOL     OW85559   5.747   7.108  11.817
61262SOL    HW185560   5.816   7.169  11.842
61262SOL    HW285561   5.667   7.147  11.853
61263SOL     OW85562   4.068   9.136  11.756
61263SOL    HW185563   4.040   9.183  11.835
61263SOL    HW285564   4.134   9.074  11.788
61264SOL     OW85565   9.278   9.845   5.677
61264SOL    HW185566   9.229   9.903   5.618
61264SOL    HW285567   9.280   9.893   5.761
61265SOL     OW85568  12.744   2.665  12.002
61265SOL    HW185569  12.788   2.635  12.081
61265SOL    HW285570  12.815   2.686  11.941
61266SOL     OW85571   8.295   6.510   6.396
61266SOL    HW185572   8.390   6.517   6.389
61266SOL    HW285573   8.263   6.544   6.312
61267SOL     OW85574   9.769   3.671   1.725
61267SOL    HW185575   9.790   3.603   1.789
61267SOL    HW285576   9.816   3.645   1.646
61268SOL     OW85577  11.547  13.799  11.109
61268SOL    HW185578  11.521  13.720  11.062
61268SOL    HW285579  11.621  13.770  11.163
61269SOL     OW85580   7.289  10.830  12.921
61269SOL    HW185581   7.358  10.892  12.894
61269SOL    HW285582   7.208  10.879  12.910
61270SOL     OW85583   3.245   2.758   9.942
61270SOL    HW185584   3.174   2.722   9.889
61270SOL    HW285585   3.283   2.682   9.986
61271SOL     OW85586   0.129   3.929   5.184
61271SOL    HW185587   0.219   3.906   5.161
61271SOL    HW285588   0.122   3.910   5.277
61272SOL     OW85589   3.147  11.811   8.722
61272SOL    HW185590   3.106  11.779   8.642
61272SOL    HW285591   3.075  11.824   8.783
61273SOL     OW85592   3.511  12.774   1.403
61273SOL    HW185593   3.493  12.683   1.378
61273SOL    HW285594   3.524  12.819   1.319
61274SOL     OW85595   9.576   7.956   9.982
61274SOL    HW185596   9.635   7.923  10.049
61274SOL    HW285597   9.618   8.036   9.951
61275SOL     OW85598   4.292  13.065   5.639
61275SOL    HW185599   4.361  13.023   5.690
61275SOL    HW285600   4.290  13.155   5.671
61276SOL     OW85601   2.838   5.515   7.691
61276SOL    HW185602   2.770   5.503   7.624
61276SOL    HW285603   2.797   5.573   7.755
61277SOL     OW85604   0.308   9.901   0.365
61277SOL    HW185605   0.368   9.932   0.433
61277SOL    HW285606   0.326   9.808   0.359
61278SOL     OW85607  14.394   8.982   2.018
61278SOL    HW185608  14.429   9.038   2.087
61278SOL    HW285609  14.449   8.904   2.020
61279SOL     OW85610  11.078   5.104   0.041
61279SOL    HW185611  11.017   5.042  14.880
61279SOL    HW285612  11.064   5.090   0.134
61280SOL     OW85613   6.659   5.211   4.004
61280SOL    HW185614   6.606   5.146   3.957
61280SOL    HW285615   6.688   5.272   3.936
61281SOL     OW85616   7.429   5.747  10.379
61281SOL    HW185617   7.484   5.770  10.304
61281SOL    HW285618   7.457   5.806  10.449
61282SOL     OW85619  11.275  10.672   1.725
61282SOL    HW185620  11.277  10.765   1.748
61282SOL    HW285621  11.203  10.636   1.777
61283SOL     OW85622   1.110   0.769  14.645
61283SOL    HW185623   1.065   0.820  14.578
61283SOL    HW285624   1.139   0.690  14.600
61284SOL     OW85625   6.359   7.259   2.529
61284SOL    HW185626   6.433   7.304   2.568
61284SOL    HW285627   6.289   7.325   2.525
61285SOL     OW85628   2.373   3.199   5.627
61285SOL    HW185629   2.288   3.200   5.671
61285SOL    HW285630   2.384   3.108   5.600
61286SOL     OW85631  14.548  11.251   1.071
61286SOL    HW185632  14.632  11.231   1.031
61286SOL    HW285633  14.554  11.217   1.160
61287SOL     OW85634   6.020   6.087   9.496
61287SOL    HW185635   5.942   6.033   9.479
61287SOL    HW285636   6.094   6.029   9.478
61288SOL     OW85637   3.137   4.380   2.089
61288SOL    HW185638   3.208   4.334   2.135
61288SOL    HW285639   3.182   4.443   2.033
61289SOL     OW85640  11.054   9.174  13.521
61289SOL    HW185641  10.975   9.199  13.472
61289SOL    HW285642  11.117   9.148  13.454
61290SOL     OW85643  11.391   5.378   0.735
61290SOL    HW185644  11.386   5.423   0.651
61290SOL    HW285645  11.345   5.436   0.796
61291SOL     OW85646   2.594   2.183  10.323
61291SOL    HW185647   2.577   2.095  10.291
61291SOL    HW285648   2.603   2.236  10.243
61292SOL     OW85649  11.767   9.219  11.410
61292SOL    HW185650  11.859   9.196  11.421
61292SOL    HW285651  11.769   9.306  11.368
61293SOL     OW85652   1.153   9.130  10.686
61293SOL    HW185653   1.157   9.204  10.624
61293SOL    HW285654   1.179   9.168  10.770
61294SOL     OW85655   4.130  10.810   7.268
61294SOL    HW185656   4.178  10.880   7.223
61294SOL    HW285657   4.056  10.790   7.211
61295SOL     OW85658   1.454  12.547   4.447
61295SOL    HW185659   1.434  12.454   4.437
61295SOL    HW285660   1.549  12.550   4.458
61296SOL     OW85661   7.652   0.120  14.248
61296SOL    HW185662   7.718   0.157  14.189
61296SOL    HW285663   7.591   0.192  14.264
61297SOL     OW85664   9.619   5.031  13.409
61297SOL    HW185665   9.692   5.017  13.349
61297SOL    HW285666   9.586   5.118  13.387
61298SOL     OW85667   5.060   3.395   0.976
61298SOL    HW185668   5.039   3.376   1.067
61298SOL    HW285669   4.975   3.395   0.931
61299SOL     OW85670   2.374   4.819  13.149
61299SOL    HW185671   2.348   4.803  13.059
61299SOL    HW285672   2.305   4.780  13.202
61300SOL     OW85673   4.986   5.281  10.949
61300SOL    HW185674   5.022   5.193  10.939
61300SOL    HW285675   4.984   5.316  10.860
61301SOL     OW85676   1.885  10.528   8.887
61301SOL    HW185677   1.840  10.527   8.972
61301SOL    HW285678   1.950  10.598   8.895
61302SOL     OW85679  12.490  13.762   8.214
61302SOL    HW185680  12.480  13.770   8.309
61302SOL    HW285681  12.580  13.734   8.201
61303SOL     OW85682   6.716   0.916   2.962
61303SOL    HW185683   6.641   0.894   3.017
61303SOL    HW285684   6.767   0.978   3.014
61304SOL     OW85685   0.102   3.809   3.095
61304SOL    HW185686   0.149   3.749   3.154
61304SOL    HW285687   0.137   3.895   3.117
61305SOL     OW85688   0.040   6.860  10.441
61305SOL    HW185689   0.066   6.810  10.518
61305SOL    HW285690  14.844   6.815  10.408
61306SOL     OW85691  14.074   4.183   6.799
61306SOL    HW185692  14.077   4.260   6.743
61306SOL    HW285693  14.097   4.110   6.741
61307SOL     OW85694   0.152  13.784  14.237
61307SOL    HW185695   0.166  13.689  14.238
61307SOL    HW285696   0.057  13.793  14.230
61308SOL     OW85697   5.092   7.826   3.374
61308SOL    HW185698   5.093   7.751   3.433
61308SOL    HW285699   5.172   7.818   3.322
61309SOL     OW85700  12.375  10.724  12.140
61309SOL    HW185701  12.387  10.771  12.058
61309SOL    HW285702  12.463  10.694  12.164
61310SOL     OW85703   9.583  13.640  12.536
61310SOL    HW185704   9.509  13.683  12.492
61310SOL    HW285705   9.564  13.546  12.529
61311SOL     OW85706  14.089  11.901   4.627
61311SOL    HW185707  14.068  11.922   4.718
61311SOL    HW285708  14.177  11.936   4.613
61312SOL     OW85709   2.279  13.228  13.473
61312SOL    HW185710   2.367  13.194  13.453
61312SOL    HW285711   2.222  13.187  13.408
61313SOL     OW85712  12.228   1.108  13.192
61313SOL    HW185713  12.167   1.084  13.261
61313SOL    HW285714  12.307   1.056  13.210
61314SOL     OW85715   2.768  13.564   7.022
61314SOL    HW185716   2.834  13.606   7.078
61314SOL    HW285717   2.697  13.628   7.016
61315SOL     OW85718   5.386   5.062  13.408
61315SOL    HW185719   5.428   4.992  13.458
61315SOL    HW285720   5.416   5.050  13.318
61316SOL     OW85721  12.541   6.958   0.005
61316SOL    HW185722  12.596   6.995  14.818
61316SOL    HW285723  12.521   7.032   0.062
61317SOL     OW85724   7.098   5.036  14.700
61317SOL    HW185725   7.087   5.111  14.758
61317SOL    HW285726   7.009   5.017  14.668
61318SOL     OW85727   8.497   7.711  10.761
61318SOL    HW185728   8.481   7.738  10.851
61318SOL    HW285729   8.559   7.638  10.769
61319SOL     OW85730   2.073  12.099   5.710
61319SOL    HW185731   2.131  12.175   5.713
61319SOL    HW285732   2.041  12.089   5.799
61320SOL     OW85733   6.060   7.208  12.449
61320SOL    HW185734   6.053   7.270  12.521
61320SOL    HW285735   6.090   7.260  12.375
61321SOL     OW85736   2.193   5.661  12.785
61321SOL    HW185737   2.147   5.630  12.708
61321SOL    HW285738   2.249   5.732  12.753
61322SOL     OW85739  14.353  10.304   5.334
61322SOL    HW185740  14.417  10.259   5.389
61322SOL    HW285741  14.368  10.397   5.350
61323SOL     OW85742   8.925   9.610   4.126
61323SOL    HW185743   8.966   9.689   4.161
61323SOL    HW285744   8.842   9.602   4.174
61324SOL     OW85745   9.338  10.681   6.971
61324SOL    HW185746   9.262  10.663   7.026
61324SOL    HW285747   9.324  10.627   6.893
61325SOL     OW85748   5.542  12.263   1.299
61325SOL    HW185749   5.614  12.260   1.361
61325SOL    HW285750   5.463  12.254   1.352
61326SOL     OW85751   2.369  12.500  12.321
61326SOL    HW185752   2.291  12.493  12.377
61326SOL    HW285753   2.397  12.591  12.331
61327SOL     OW85754   1.766   5.613  13.270
61327SOL    HW185755   1.847   5.579  13.308
61327SOL    HW285756   1.702   5.544  13.284
61328SOL     OW85757   0.182   0.527   5.402
61328SOL    HW185758   0.090   0.502   5.414
61328SOL    HW285759   0.229   0.444   5.396
61329SOL     OW85760   7.300  11.418  10.279
61329SOL    HW185761   7.244  11.490  10.306
61329SOL    HW285762   7.310  11.364  10.358
61330SOL     OW85763   0.531   3.955   3.834
61330SOL    HW185764   0.472   3.990   3.767
61330SOL    HW285765   0.473   3.936   3.908
61331SOL     OW85766   5.219   9.604   6.815
61331SOL    HW185767   5.136   9.651   6.807
61331SOL    HW285768   5.196   9.512   6.808
61332SOL     OW85769   7.793   1.291   9.260
61332SOL    HW185770   7.817   1.356   9.326
61332SOL    HW285771   7.711   1.253   9.291
61333SOL     OW85772   8.462   4.414  12.014
61333SOL    HW185773   8.519   4.490  12.001
61333SOL    HW285774   8.474   4.361  11.935
61334SOL     OW85775  11.947  13.067   4.162
61334SOL    HW185776  11.937  13.158   4.135
61334SOL    HW285777  11.924  13.016   4.084
61335SOL     OW85778   2.303  13.189   9.754
61335SOL    HW185779   2.353  13.148   9.683
61335SOL    HW285780   2.286  13.118   9.816
61336SOL     OW85781  10.249   4.986  11.454
61336SOL    HW185782  10.243   4.948  11.541
61336SOL    HW285783  10.295   5.069  11.467
61337SOL     OW85784   1.984  12.903   1.363
61337SOL    HW185785   2.045  12.977   1.361
61337SOL    HW285786   1.920  12.926   1.431
61338SOL     OW85787   0.982  10.941  11.115
61338SOL    HW185788   0.969  11.011  11.179
61338SOL    HW285789   1.041  10.980  11.050
61339SOL     OW85790  14.008   0.064  13.940
61339SOL    HW185791  13.952   0.111  14.001
61339SOL    HW285792  14.035  14.867  13.987
61340SOL     OW85793  13.467  11.198   6.529
61340SOL    HW185794  13.526  11.223   6.458
61340SOL    HW285795  13.387  11.170   6.485
61341SOL     OW85796   9.348   7.002   3.032
61341SOL    HW185797   9.435   7.041   3.045
61341SOL    HW285798   9.305   7.013   3.117
61342SOL     OW85799   6.993   2.061   7.042
61342SOL    HW185800   6.901   2.074   7.019
61342SOL    HW285801   6.991   2.043   7.136
61343SOL     OW85802   8.187  10.508   5.796
61343SOL    HW185803   8.240  10.550   5.728
61343SOL    HW285804   8.097  10.525   5.770
61344SOL     OW85805   6.494   4.933   5.377
61344SOL    HW185806   6.490   4.960   5.469
61344SOL    HW285807   6.515   4.839   5.381
61345SOL     OW85808   6.002   2.452  14.055
61345SOL    HW185809   6.061   2.377  14.045
61345SOL    HW285810   5.915   2.412  14.065
61346SOL     OW85811   8.192  10.413  13.092
61346SOL    HW185812   8.117  10.451  13.139
61346SOL    HW285813   8.162  10.325  13.067
61347SOL     OW85814   5.411   2.163   8.368
61347SOL    HW185815   5.500   2.180   8.400
61347SOL    HW285816   5.403   2.220   8.291
61348SOL     OW85817  10.729  13.222  11.177
61348SOL    HW185818  10.823  13.209  11.185
61348SOL    HW285819  10.719  13.314  11.151
61349SOL     OW85820   6.465   3.286  10.859
61349SOL    HW185821   6.396   3.327  10.911
61349SOL    HW285822   6.544   3.333  10.884
61350SOL     OW85823  14.687   9.368   4.111
61350SOL    HW185824  14.647   9.325   4.035
61350SOL    HW285825  14.767   9.318   4.128
61351SOL     OW85826   6.551  14.876   9.954
61351SOL    HW185827   6.615   0.058   9.988
61351SOL    HW285828   6.471   0.013  10.003
61352SOL     OW85829   0.351   9.703   9.010
61352SOL    HW185830   0.351   9.753   9.091
61352SOL    HW285831   0.295   9.627   9.029
61353SOL     OW85832   9.144   1.902   0.489
61353SOL    HW185833   9.181   1.850   0.417
61353SOL    HW285834   9.148   1.992   0.458
61354SOL     OW85835  14.005   2.649   5.280
61354SOL    HW185836  14.058   2.706   5.224
61354SOL    HW285837  13.970   2.707   5.348
61355SOL     OW85838   7.723  10.853   5.325
61355SOL    HW185839   7.750  10.833   5.235
61355SOL    HW285840   7.675  10.775   5.353
61356SOL     OW85841   8.646   3.869  13.589
61356SOL    HW185842   8.605   3.807  13.649
61356SOL    HW285843   8.576   3.892  13.527
61357SOL     OW85844  13.060  10.285   7.944
61357SOL    HW185845  12.984  10.313   7.893
61357SOL    HW285846  13.128  10.348   7.922
61358SOL     OW85847   6.371   2.732   2.080
61358SOL    HW185848   6.285   2.770   2.063
61358SOL    HW285849   6.420   2.801   2.124
61359SOL     OW85850   1.075   2.373  13.731
61359SOL    HW185851   1.054   2.324  13.651
61359SOL    HW285852   1.012   2.342  13.796
61360SOL     OW85853   2.582   0.511   1.537
61360SOL    HW185854   2.502   0.539   1.493
61360SOL    HW285855   2.644   0.495   1.466
61361SOL     OW85856   7.903   6.178  14.736
61361SOL    HW185857   7.908   6.257  14.683
61361SOL    HW285858   7.868   6.206  14.820
61362SOL     OW85859   2.290   4.975  12.557
61362SOL    HW185860   2.274   4.914  12.484
61362SOL    HW285861   2.219   4.957  12.618
61363SOL     OW85862   6.740  14.566   8.919
61363SOL    HW185863   6.783  14.493   8.876
61363SOL    HW285864   6.702  14.528   8.999
61364SOL     OW85865   6.175  14.797   2.678
61364SOL    HW185866   6.099  14.803   2.736
61364SOL    HW285867   6.144  14.747   2.603
61365SOL     OW85868   3.889   5.787   5.377
61365SOL    HW185869   3.884   5.756   5.467
61365SOL    HW285870   3.980   5.774   5.352
61366SOL     OW85871   1.266   8.694   4.865
61366SOL    HW185872   1.207   8.619   4.854
61366SOL    HW285873   1.348   8.666   4.823
61367SOL     OW85874  14.385  11.945  13.452
61367SOL    HW185875  14.337  11.918  13.374
61367SOL    HW285876  14.370  11.875  13.515
61368SOL     OW85877   1.885  11.833   7.516
61368SOL    HW185878   1.933  11.760   7.477
61368SOL    HW285879   1.881  11.899   7.447
61369SOL     OW85880  11.945   2.667  11.048
61369SOL    HW185881  11.903   2.584  11.069
61369SOL    HW285882  11.876   2.733  11.058
61370SOL     OW85883  13.739   4.649  14.212
61370SOL    HW185884  13.806   4.583  14.198
61370SOL    HW285885  13.710   4.635  14.302
61371SOL     OW85886  10.411  13.133   6.735
61371SOL    HW185887  10.333  13.146   6.789
61371SOL    HW285888  10.378  13.100   6.652
61372SOL     OW85889  13.922   3.223  14.266
61372SOL    HW185890  13.844   3.185  14.225
61372SOL    HW285891  13.956   3.153  14.322
61373SOL     OW85892  10.155   6.998   9.992
61373SOL    HW185893  10.074   7.043  10.014
61373SOL    HW285894  10.191   6.970  10.077
61374SOL     OW85895  13.611   5.895  12.261
61374SOL    HW185896  13.695   5.849  12.269
61374SOL    HW285897  13.635   5.985  12.236
61375SOL     OW85898  14.173   0.966  12.927
61375SOL    HW185899  14.200   0.894  12.984
61375SOL    HW285900  14.133   1.030  12.986
61376SOL     OW85901   0.982   3.802   2.340
61376SOL    HW185902   0.900   3.849   2.356
61376SOL    HW285903   1.022   3.849   2.267
61377SOL     OW85904   9.407   3.929  12.404
61377SOL    HW185905   9.370   4.005  12.449
61377SOL    HW285906   9.370   3.934  12.315
61378SOL     OW85907   2.968   6.060   2.854
61378SOL    HW185908   2.954   6.002   2.930
61378SOL    HW285909   3.060   6.085   2.860
61379SOL     OW85910   7.617   7.198   8.616
61379SOL    HW185911   7.592   7.290   8.622
61379SOL    HW285912   7.540   7.154   8.580
61380SOL     OW85913  10.043  10.021   7.355
61380SOL    HW185914  10.062  10.106   7.396
61380SOL    HW285915  10.123   9.970   7.370
61381SOL     OW85916   3.009  10.934  14.393
61381SOL    HW185917   2.938  10.997  14.403
61381SOL    HW285918   3.089  10.987  14.393
61382SOL     OW85919  10.309   1.655   6.079
61382SOL    HW185920  10.319   1.651   5.984
61382SOL    HW285921  10.346   1.741   6.102
61383SOL     OW85922   5.007  11.502   9.643
61383SOL    HW185923   5.021  11.408   9.654
61383SOL    HW285924   4.942  11.524   9.711
61384SOL     OW85925   1.086  12.409   7.737
61384SOL    HW185926   1.091  12.483   7.676
61384SOL    HW285927   1.154  12.427   7.801
61385SOL     OW85928   5.283   8.596   3.356
61385SOL    HW185929   5.373   8.605   3.388
61385SOL    HW285930   5.250   8.685   3.348
61386SOL     OW85931   3.150  11.784   3.985
61386SOL    HW185932   3.077  11.846   3.975
61386SOL    HW285933   3.223  11.826   3.941
61387SOL     OW85934   4.818   8.077  11.332
61387SOL    HW185935   4.882   8.025  11.283
61387SOL    HW285936   4.869   8.117  11.403
61388SOL     OW85937  11.940   3.399  13.834
61388SOL    HW185938  12.018   3.380  13.782
61388SOL    HW285939  11.961   3.367  13.922
61389SOL     OW85940   4.907  13.584   9.892
61389SOL    HW185941   4.938  13.658   9.840
61389SOL    HW285942   4.925  13.609   9.983
61390SOL     OW85943  10.615   8.885   9.725
61390SOL    HW185944  10.647   8.853   9.641
61390SOL    HW285945  10.521   8.865   9.725
61391SOL     OW85946   8.391   6.459   8.164
61391SOL    HW185947   8.462   6.436   8.104
61391SOL    HW285948   8.433   6.470   8.249
61392SOL     OW85949  14.774   2.227  14.479
61392SOL    HW185950  14.753   2.215  14.571
61392SOL    HW285951  14.717   2.166  14.432
61393SOL     OW85952   9.711  14.354   0.258
61393SOL    HW185953   9.698  14.295   0.332
61393SOL    HW285954   9.638  14.416   0.264
61394SOL     OW85955   4.239   1.807   1.866
61394SOL    HW185956   4.231   1.883   1.924
61394SOL    HW285957   4.262   1.735   1.924
61395SOL     OW85958  10.236   5.572  13.029
61395SOL    HW185959  10.290   5.533  12.960
61395SOL    HW285960  10.292   5.639  13.069
61396SOL     OW85961   2.628   6.610   5.920
61396SOL    HW185962   2.629   6.515   5.913
61396SOL    HW285963   2.629   6.628   6.014
61397SOL     OW85964  10.213   5.896  14.035
61397SOL    HW185965  10.284   5.951  14.068
61397SOL    HW285966  10.170   5.951  13.969
61398SOL     OW85967   1.081  13.061   0.182
61398SOL    HW185968   1.028  13.113   0.121
61398SOL    HW285969   1.102  13.121   0.253
61399SOL     OW85970   9.175   1.668  11.390
61399SOL    HW185971   9.241   1.623  11.443
61399SOL    HW285972   9.209   1.757  11.380
61400SOL     OW85973   7.780   3.589   3.012
61400SOL    HW185974   7.707   3.624   2.961
61400SOL    HW285975   7.775   3.494   2.999
61401SOL     OW85976   5.238   2.937   2.077
61401SOL    HW185977   5.295   2.968   2.147
61401SOL    HW285978   5.233   3.010   2.015
61402SOL     OW85979   4.951   5.332   2.260
61402SOL    HW185980   4.931   5.335   2.167
61402SOL    HW285981   4.880   5.282   2.299
61403SOL     OW85982  13.331   2.700  12.723
61403SOL    HW185983  13.397   2.681  12.657
61403SOL    HW285984  13.345   2.792  12.745
61404SOL     OW85985  11.193  11.677   7.184
61404SOL    HW185986  11.268  11.724   7.148
61404SOL    HW285987  11.200  11.589   7.147
61405SOL     OW85988   6.535   1.153   8.494
61405SOL    HW185989   6.620   1.141   8.451
61405SOL    HW285990   6.471   1.136   8.425
61406SOL     OW85991  12.330   5.621   9.472
61406SOL    HW185992  12.333   5.630   9.376
61406SOL    HW285993  12.244   5.655   9.496
61407SOL     OW85994  11.016  11.153   5.833
61407SOL    HW185995  10.949  11.146   5.902
61407SOL    HW285996  10.966  11.172   5.754
61408SOL     OW85997  11.007   7.757  14.006
61408SOL    HW185998  10.940   7.792  14.065
61408SOL    HW285999  11.000   7.662  14.015
61409SOL     OW86000   3.462   4.303  14.719
61409SOL    HW186001   3.527   4.325  14.652
61409SOL    HW286002   3.432   4.387  14.753
61410SOL     OW86003  11.288   0.498   8.010
61410SOL    HW186004  11.315   0.427   7.952
61410SOL    HW286005  11.349   0.492   8.084
61411SOL     OW86006   1.145   9.632  13.618
61411SOL    HW186007   1.143   9.602  13.709
61411SOL    HW286008   1.182   9.558  13.569
61412SOL     OW86009  14.698  14.712   2.851
61412SOL    HW186010  14.636  14.751   2.789
61412SOL    HW286011  14.646  14.651   2.903
61413SOL     OW86012   3.429   7.141   1.374
61413SOL    HW186013   3.434   7.116   1.282
61413SOL    HW286014   3.441   7.236   1.374
61414SOL     OW86015  12.233   8.020  10.796
61414SOL    HW186016  12.240   8.107  10.756
61414SOL    HW286017  12.269   8.031  10.885
61415SOL     OW86018   0.681   8.808   8.426
61415SOL    HW186019   0.709   8.770   8.510
61415SOL    HW286020   0.756   8.797   8.368
61416SOL     OW86021   8.850  12.023   3.330
61416SOL    HW186022   8.773  12.004   3.276
61416SOL    HW286023   8.902  12.083   3.277
61417SOL     OW86024  10.727   0.118   6.671
61417SOL    HW186025  10.815   0.085   6.653
61417SOL    HW286026  10.670   0.041   6.659
61418SOL     OW86027   5.941   2.037  14.811
61418SOL    HW186028   6.034   2.059  14.813
61418SOL    HW286029   5.937   1.945  14.838
61419SOL     OW86030   0.674   7.860  10.883
61419SOL    HW186031   0.704   7.844  10.794
61419SOL    HW286032   0.627   7.943  10.878
61420SOL     OW86033  14.716  10.694   1.411
61420SOL    HW186034  14.766  10.613   1.407
61420SOL    HW286035  14.773  10.756   1.456
61421SOL     OW86036   9.490   8.670   7.603
61421SOL    HW186037   9.514   8.642   7.515
61421SOL    HW286038   9.407   8.715   7.593
61422SOL     OW86039   5.228   9.155   7.500
61422SOL    HW186040   5.297   9.099   7.463
61422SOL    HW286041   5.159   9.155   7.434
61423SOL     OW86042  10.977  12.149   9.649
61423SOL    HW186043  11.048  12.156   9.585
61423SOL    HW286044  10.897  12.163   9.598
61424SOL     OW86045   2.715   5.090  12.573
61424SOL    HW186046   2.790   5.069  12.628
61424SOL    HW286047   2.646   5.031  12.604
61425SOL     OW86048  10.649   1.150   3.907
61425SOL    HW186049  10.557   1.126   3.896
61425SOL    HW286050  10.691   1.122   3.826
61426SOL     OW86051   2.281   0.367   3.887
61426SOL    HW186052   2.211   0.433   3.885
61426SOL    HW286053   2.255   0.306   3.956
61427SOL     OW86054   0.053   3.670  12.810
61427SOL    HW186055   0.078   3.660  12.902
61427SOL    HW286056  14.850   3.714  12.812
61428SOL     OW86057  14.131   3.292  12.143
61428SOL    HW186058  14.119   3.311  12.236
61428SOL    HW286059  14.187   3.363  12.111
61429SOL     OW86060   8.513   3.367   9.276
61429SOL    HW186061   8.430   3.408   9.250
61429SOL    HW286062   8.530   3.302   9.208
61430SOL     OW86063   4.488   8.408   4.201
61430SOL    HW186064   4.569   8.360   4.181
61430SOL    HW286065   4.418   8.346   4.182
61431SOL     OW86066  12.926   4.149  12.537
61431SOL    HW186067  12.874   4.163  12.458
61431SOL    HW286068  13.001   4.208  12.528
61432SOL     OW86069  10.667   1.987   7.953
61432SOL    HW186070  10.664   2.003   8.048
61432SOL    HW286071  10.603   1.917   7.939
61433SOL     OW86072  14.424   4.285  13.871
61433SOL    HW186073  14.468   4.368  13.889
61433SOL    HW286074  14.393   4.255  13.956
61434SOL     OW86075   9.694   4.304   2.310
61434SOL    HW186076   9.694   4.227   2.253
61434SOL    HW286077   9.776   4.349   2.290
61435SOL     OW86078   0.325   7.188   5.020
61435SOL    HW186079   0.350   7.236   4.941
61435SOL    HW286080   0.395   7.209   5.083
61436SOL     OW86081  13.533   8.971   8.845
61436SOL    HW186082  13.443   8.983   8.813
61436SOL    HW286083  13.584   9.037   8.798
61437SOL     OW86084  11.533   6.970  14.512
61437SOL    HW186085  11.592   7.023  14.566
61437SOL    HW286086  11.588   6.937  14.441
61438SOL     OW86087  12.972  10.123   5.648
61438SOL    HW186088  12.986  10.203   5.699
61438SOL    HW286089  12.995  10.052   5.708
61439SOL     OW86090  14.139  11.894   6.800
61439SOL    HW186091  14.091  11.916   6.720
61439SOL    HW286092  14.146  11.799   6.799
61440SOL     OW86093  10.723   6.117   8.388
61440SOL    HW186094  10.703   6.193   8.442
61440SOL    HW286095  10.639   6.092   8.350
61441SOL     OW86096   2.288   4.830   5.007
61441SOL    HW186097   2.219   4.854   5.069
61441SOL    HW286098   2.313   4.741   5.033
61442SOL     OW86099   3.249   9.291   7.183
61442SOL    HW186100   3.250   9.384   7.206
61442SOL    HW286101   3.331   9.256   7.218
61443SOL     OW86102   0.602   8.102   7.871
61443SOL    HW186103   0.614   8.096   7.776
61443SOL    HW286104   0.648   8.181   7.896
61444SOL     OW86105  10.377   4.308   7.383
61444SOL    HW186106  10.322   4.339   7.455
61444SOL    HW286107  10.325   4.238   7.342
61445SOL     OW86108   7.661  10.537   2.138
61445SOL    HW186109   7.721  10.505   2.204
61445SOL    HW286110   7.683  10.629   2.127
61446SOL     OW86111   6.107  13.976   8.505
61446SOL    HW186112   6.109  14.048   8.568
61446SOL    HW286113   6.199  13.949   8.497
61447SOL     OW86114  14.015   9.549   7.812
61447SOL    HW186115  14.074   9.497   7.867
61447SOL    HW286116  14.067   9.624   7.784
61448SOL     OW86117   2.749   3.699   7.158
61448SOL    HW186118   2.663   3.736   7.177
61448SOL    HW286119   2.760   3.712   7.064
61449SOL     OW86120  12.048   4.209   7.835
61449SOL    HW186121  12.102   4.134   7.813
61449SOL    HW286122  12.075   4.234   7.923
61450SOL     OW86123   3.455  10.949   1.967
61450SOL    HW186124   3.533  11.005   1.964
61450SOL    HW286125   3.442  10.931   2.060
61451SOL     OW86126   3.806   3.459   0.661
61451SOL    HW186127   3.739   3.464   0.593
61451SOL    HW286128   3.885   3.495   0.620
61452SOL     OW86129  10.306   4.334  12.348
61452SOL    HW186130  10.347   4.272  12.287
61452SOL    HW286131  10.213   4.316  12.342
61453SOL     OW86132   6.398   9.483   6.266
61453SOL    HW186133   6.447   9.561   6.239
61453SOL    HW286134   6.422   9.416   6.202
61454SOL     OW86135  13.925   8.368  13.961
61454SOL    HW186136  13.902   8.277  13.982
61454SOL    HW286137  13.917   8.373  13.866
61455SOL     OW86138  12.685  12.096   5.739
61455SOL    HW186139  12.755  12.109   5.676
61455SOL    HW286140  12.714  12.142   5.817
61456SOL     OW86141   7.571   7.458  14.748
61456SOL    HW186142   7.579   7.377  14.798
61456SOL    HW286143   7.539   7.523  14.811
61457SOL     OW86144   7.367   6.234  14.099
61457SOL    HW186145   7.462   6.218  14.092
61457SOL    HW286146   7.360   6.325  14.127
61458SOL     OW86147   4.744   5.880   0.860
61458SOL    HW186148   4.720   5.800   0.907
61458SOL    HW286149   4.668   5.899   0.805
61459SOL     OW86150   6.401   4.152  11.968
61459SOL    HW186151   6.460   4.123  11.898
61459SOL    HW286152   6.413   4.087  12.037
61460SOL     OW86153   1.834  10.231   1.589
61460SOL    HW186154   1.844  10.326   1.594
61460SOL    HW286155   1.860  10.199   1.675
61461SOL     OW86156   1.474   2.344   5.028
61461SOL    HW186157   1.437   2.385   5.106
61461SOL    HW286158   1.463   2.250   5.043
61462SOL     OW86159   0.390   8.786   6.952
61462SOL    HW186160   0.471   8.805   6.999
61462SOL    HW286161   0.379   8.692   6.961
61463SOL     OW86162   4.330  12.200  13.112
61463SOL    HW186163   4.248  12.246  13.127
61463SOL    HW286164   4.306  12.107  13.110
61464SOL     OW86165   9.654   2.660  12.376
61464SOL    HW186166   9.664   2.626  12.465
61464SOL    HW286167   9.646   2.582  12.321
61465SOL     OW86168  13.017  11.724   2.818
61465SOL    HW186169  12.953  11.691   2.755
61465SOL    HW286170  13.084  11.655   2.822
61466SOL     OW86171   6.243   6.865   6.119
61466SOL    HW186172   6.276   6.954   6.106
61466SOL    HW286173   6.273   6.841   6.207
61467SOL     OW86174   5.207  11.706   2.784
61467SOL    HW186175   5.262  11.645   2.833
61467SOL    HW286176   5.199  11.667   2.697
61468SOL     OW86177   8.424   4.282   2.003
61468SOL    HW186178   8.444   4.257   1.913
61468SOL    HW286179   8.443   4.203   2.054
61469SOL     OW86180   3.431   6.524   7.797
61469SOL    HW186181   3.426   6.618   7.782
61469SOL    HW286182   3.512   6.497   7.755
61470SOL     OW86183  11.412   5.535  10.869
61470SOL    HW186184  11.327   5.528  10.914
61470SOL    HW286185  11.472   5.483  10.922
61471SOL     OW86186   5.125   8.812   8.295
61471SOL    HW186187   5.153   8.805   8.203
61471SOL    HW286188   5.069   8.890   8.296
61472SOL     OW86189  13.517   9.407  14.477
61472SOL    HW186190  13.505   9.332  14.420
61472SOL    HW286191  13.515   9.371  14.566
61473SOL     OW86192   7.670   5.803  14.397
61473SOL    HW186193   7.687   5.867  14.467
61473SOL    HW286194   7.591   5.836  14.354
61474SOL     OW86195   1.243  11.489   4.676
61474SOL    HW186196   1.243  11.567   4.620
61474SOL    HW286197   1.189  11.426   4.629
61475SOL     OW86198   6.360   7.004   7.842
61475SOL    HW186199   6.453   7.023   7.830
61475SOL    HW286200   6.357   6.912   7.869
61476SOL     OW86201   4.548   6.640   7.943
61476SOL    HW186202   4.549   6.553   7.982
61476SOL    HW286203   4.459   6.672   7.958
61477SOL     OW86204   7.925   0.117   7.120
61477SOL    HW186205   7.884   0.076   7.196
61477SOL    HW286206   7.960   0.200   7.153
61478SOL     OW86207  12.262   7.136  10.391
61478SOL    HW186208  12.192   7.142  10.456
61478SOL    HW286209  12.301   7.223  10.390
61479SOL     OW86210   3.144   8.550  13.764
61479SOL    HW186211   3.217   8.529  13.822
61479SOL    HW286212   3.167   8.635  13.727
61480SOL     OW86213  12.985   5.700   0.328
61480SOL    HW186214  12.910   5.707   0.270
61480SOL    HW286215  13.016   5.610   0.317
61481SOL     OW86216   8.403   2.003  12.780
61481SOL    HW186217   8.467   1.962  12.838
61481SOL    HW286218   8.420   2.097  12.788
61482SOL     OW86219   3.457  14.387  10.366
61482SOL    HW186220   3.509  14.321  10.320
61482SOL    HW286221   3.519  14.457  10.384
61483SOL     OW86222   5.034  13.112  14.089
61483SOL    HW186223   5.109  13.172  14.092
61483SOL    HW286224   4.958  13.169  14.077
61484SOL     OW86225  13.052   7.450  10.942
61484SOL    HW186226  13.046   7.516  11.011
61484SOL    HW286227  12.963   7.419  10.931
61485SOL     OW86228  13.301  14.099  10.759
61485SOL    HW186229  13.305  14.025  10.698
61485SOL    HW286230  13.308  14.177  10.703
61486SOL     OW86231   9.030   3.854   5.506
61486SOL    HW186232   8.982   3.823   5.582
61486SOL    HW286233   8.997   3.943   5.491
61487SOL     OW86234  13.880  10.398  13.698
61487SOL    HW186235  13.872  10.479  13.648
61487SOL    HW286236  13.825  10.411  13.775
61488SOL     OW86237   4.386   2.770   3.554
61488SOL    HW186238   4.401   2.845   3.611
61488SOL    HW286239   4.322   2.801   3.489
61489SOL     OW86240   7.865   9.885   7.168
61489SOL    HW186241   7.947   9.871   7.215
61489SOL    HW286242   7.805   9.819   7.204
61490SOL     OW86243   7.509   2.841  11.461
61490SOL    HW186244   7.577   2.903  11.490
61490SOL    HW286245   7.558   2.762  11.438
61491SOL     OW86246  11.041   6.826   6.976
61491SOL    HW186247  11.039   6.861   6.887
61491SOL    HW286248  10.950   6.806   6.997
61492SOL     OW86249  14.807   8.330   3.667
61492SOL    HW186250  14.829   8.381   3.589
61492SOL    HW286251  14.862   8.366   3.736
61493SOL     OW86252  14.756   1.508   4.517
61493SOL    HW186253  14.817   1.456   4.465
61493SOL    HW286254  14.739   1.585   4.463
61494SOL     OW86255   1.495   5.503  14.428
61494SOL    HW186256   1.482   5.410  14.410
61494SOL    HW286257   1.590   5.513  14.436
61495SOL     OW86258   8.698   8.914   0.888
61495SOL    HW186259   8.774   8.972   0.888
61495SOL    HW286260   8.642   8.947   0.958
61496SOL     OW86261  14.779   6.257   7.853
61496SOL    HW186262  14.850   6.245   7.790
61496SOL    HW286263  14.754   6.169   7.878
61497SOL     OW86264   3.981   6.447  11.506
61497SOL    HW186265   3.971   6.371  11.563
61497SOL    HW286266   4.061   6.431  11.456
61498SOL     OW86267  12.845   1.252   9.632
61498SOL    HW186268  12.921   1.310   9.624
61498SOL    HW286269  12.815   1.264   9.722
61499SOL     OW86270   1.051  12.175  10.336
61499SOL    HW186271   1.002  12.192  10.255
61499SOL    HW286272   1.102  12.255  10.350
61500SOL     OW86273  14.622   9.163   6.123
61500SOL    HW186274  14.650   9.185   6.035
61500SOL    HW286275  14.544   9.217   6.138
61501SOL     OW86276   7.784  10.949   4.017
61501SOL    HW186277   7.783  10.854   4.000
61501SOL    HW286278   7.771  10.988   3.930
61502SOL     OW86279   5.282   2.254   1.857
61502SOL    HW186280   5.311   2.163   1.854
61502SOL    HW286281   5.243   2.269   1.771
61503SOL     OW86282   2.231   3.256   5.112
61503SOL    HW186283   2.221   3.161   5.100
61503SOL    HW286284   2.290   3.283   5.041
61504SOL     OW86285   1.312  10.787   8.207
61504SOL    HW186286   1.225  10.804   8.171
61504SOL    HW286287   1.356  10.872   8.206
61505SOL     OW86288   4.199   2.181   6.264
61505SOL    HW186289   4.289   2.149   6.271
61505SOL    HW286290   4.187   2.238   6.340
61506SOL     OW86291  11.640   4.398   6.197
61506SOL    HW186292  11.670   4.313   6.232
61506SOL    HW286293  11.706   4.421   6.131
61507SOL     OW86294   2.071   7.226   7.803
61507SOL    HW186295   2.084   7.273   7.721
61507SOL    HW286296   2.159   7.219   7.840
61508SOL     OW86297   4.987  14.557   3.420
61508SOL    HW186298   5.073  14.596   3.434
61508SOL    HW286299   4.925  14.629   3.433
61509SOL     OW86300  14.276  13.536   6.995
61509SOL    HW186301  14.210  13.476   7.029
61509SOL    HW286302  14.320  13.570   7.074
61510SOL     OW86303   3.504   2.864   5.136
61510SOL    HW186304   3.544   2.778   5.148
61510SOL    HW286305   3.411   2.846   5.123
61511SOL     OW86306  14.830  10.702   7.409
61511SOL    HW186307  14.851  10.640   7.479
61511SOL    HW286308   0.029  10.755   7.400
61512SOL     OW86309   7.047   2.246   1.833
61512SOL    HW186310   7.126   2.293   1.861
61512SOL    HW286311   6.987   2.254   1.907
61513SOL     OW86312   3.382   9.638   8.306
61513SOL    HW186313   3.321   9.601   8.370
61513SOL    HW286314   3.463   9.652   8.355
61514SOL     OW86315  12.544   0.986   8.521
61514SOL    HW186316  12.637   0.990   8.497
61514SOL    HW286317  12.499   0.962   8.441
61515SOL     OW86318   8.970   5.915   5.618
61515SOL    HW186319   8.982   5.822   5.634
61515SOL    HW286320   8.893   5.939   5.670
61516SOL     OW86321   6.164   9.370  11.772
61516SOL    HW186322   6.231   9.303  11.762
61516SOL    HW286323   6.213   9.449  11.798
61517SOL     OW86324   0.266  13.978  12.779
61517SOL    HW186325   0.240  13.998  12.689
61517SOL    HW286326   0.217  13.899  12.802
61518SOL     OW86327   6.208  12.219  11.966
61518SOL    HW186328   6.149  12.294  11.965
61518SOL    HW286329   6.151  12.142  11.959
61519SOL     OW86330  14.869   5.145   8.521
61519SOL    HW186331  14.825   5.212   8.573
61519SOL    HW286332  14.876   5.070   8.580
61520SOL     OW86333   8.055   0.215  11.781
61520SOL    HW186334   8.007   0.134  11.766
61520SOL    HW286335   8.146   0.194  11.760
61521SOL     OW86336   5.605  12.034   6.842
61521SOL    HW186337   5.526  12.077   6.806
61521SOL    HW286338   5.608  11.949   6.798
61522SOL     OW86339   3.061  10.341   2.435
61522SOL    HW186340   3.124  10.272   2.413
61522SOL    HW286341   2.976  10.302   2.417
61523SOL     OW86342   7.609   3.898   9.216
61523SOL    HW186343   7.692   3.852   9.230
61523SOL    HW286344   7.604   3.912   9.121
61524SOL     OW86345   9.369   8.507  11.443
61524SOL    HW186346   9.401   8.437  11.500
61524SOL    HW286347   9.316   8.462  11.378
61525SOL     OW86348   0.821   8.692   3.138
61525SOL    HW186349   0.787   8.781   3.132
61525SOL    HW286350   0.747   8.641   3.172
61526SOL     OW86351  12.913   8.804   9.916
61526SOL    HW186352  12.958   8.757   9.846
61526SOL    HW286353  12.974   8.803   9.989
61527SOL     OW86354   4.130   9.235  10.996
61527SOL    HW186355   4.059   9.299  10.999
61527SOL    HW286356   4.157   9.225  11.087
61528SOL     OW86357   3.116  10.970  10.210
61528SOL    HW186358   3.067  11.043  10.249
61528SOL    HW286359   3.135  10.912  10.283
61529SOL     OW86360   3.362   8.559   2.498
61529SOL    HW186361   3.269   8.537   2.498
61529SOL    HW286362   3.395   8.528   2.414
61530SOL     OW86363   0.739   7.829   9.344
61530SOL    HW186364   0.784   7.758   9.390
61530SOL    HW286365   0.790   7.842   9.265
61531SOL     OW86366   2.119   1.889   8.855
61531SOL    HW186367   2.184   1.951   8.889
61531SOL    HW286368   2.160   1.803   8.867
61532SOL     OW86369   0.890  10.081  10.890
61532SOL    HW186370   0.876  10.154  10.830
61532SOL    HW286371   0.934  10.120  10.966
61533SOL     OW86372  12.822  13.255   1.040
61533SOL    HW186373  12.897  13.239   1.097
61533SOL    HW286374  12.796  13.345   1.059
61534SOL     OW86375   1.985  11.481   0.083
61534SOL    HW186376   1.895  11.513   0.075
61534SOL    HW286377   2.022  11.491  14.876
61535SOL     OW86378   3.594   4.503   2.794
61535SOL    HW186379   3.551   4.425   2.827
61535SOL    HW286380   3.685   4.476   2.778
61536SOL     OW86381   9.116   5.340   9.190
61536SOL    HW186382   9.101   5.353   9.283
61536SOL    HW286383   9.064   5.409   9.148
61537SOL     OW86384   6.551   1.635  14.477
61537SOL    HW186385   6.468   1.638  14.526
61537SOL    HW286386   6.525   1.628  14.386
61538SOL     OW86387  13.289   6.919  11.673
61538SOL    HW186388  13.334   6.857  11.615
61538SOL    HW286389  13.259   6.865  11.746
61539SOL     OW86390  13.264  12.488  10.447
61539SOL    HW186391  13.310  12.526  10.522
61539SOL    HW286392  13.315  12.410  10.424
61540SOL     OW86393  14.040   1.158   8.017
61540SOL    HW186394  14.071   1.249   8.014
61540SOL    HW286395  14.107   1.112   8.068
61541SOL     OW86396  14.317  12.050   4.644
61541SOL    HW186397  14.284  12.123   4.697
61541SOL    HW286398  14.340  12.090   4.560
61542SOL     OW86399   3.457   8.091   6.206
61542SOL    HW186400   3.466   8.170   6.260
61542SOL    HW286401   3.378   8.048   6.240
61543SOL     OW86402   4.521  14.610   5.736
61543SOL    HW186403   4.503  14.680   5.673
61543SOL    HW286404   4.603  14.572   5.705
61544SOL     OW86405  14.306  12.978   6.973
61544SOL    HW186406  14.345  13.064   6.989
61544SOL    HW286407  14.218  12.997   6.940
61545SOL     OW86408   1.118   0.973   0.629
61545SOL    HW186409   1.134   1.034   0.557
61545SOL    HW286410   1.094   1.029   0.703
61546SOL     OW86411  12.117  11.151   1.559
61546SOL    HW186412  12.153  11.093   1.626
61546SOL    HW286413  12.159  11.122   1.478
61547SOL     OW86414  12.492   4.594  13.381
61547SOL    HW186415  12.497   4.507  13.419
61547SOL    HW286416  12.425   4.639  13.432
61548SOL     OW86417  11.245  10.748   9.610
61548SOL    HW186418  11.163  10.789   9.583
61548SOL    HW286419  11.234  10.655   9.588
61549SOL     OW86420  10.875   7.566   1.889
61549SOL    HW186421  10.866   7.512   1.811
61549SOL    HW286422  10.908   7.650   1.858
61550SOL     OW86423   1.524   3.782   5.007
61550SOL    HW186424   1.591   3.805   5.071
61550SOL    HW286425   1.518   3.860   4.950
61551SOL     OW86426   0.314  14.730   6.476
61551SOL    HW186427   0.275  14.811   6.443
61551SOL    HW286428   0.246  14.664   6.466
61552SOL     OW86429  13.776   8.629  10.392
61552SOL    HW186430  13.795   8.543  10.355
61552SOL    HW286431  13.730   8.676  10.323
61553SOL     OW86432  12.253   1.143   3.407
61553SOL    HW186433  12.340   1.154   3.369
61553SOL    HW286434  12.269   1.095   3.488
61554SOL     OW86435  13.776  12.805   4.128
61554SOL    HW186436  13.799  12.855   4.206
61554SOL    HW286437  13.859  12.774   4.094
61555SOL     OW86438   5.841   8.599   7.828
61555SOL    HW186439   5.797   8.558   7.903
61555SOL    HW286440   5.776   8.660   7.793
61556SOL     OW86441   7.855  12.451  10.066
61556SOL    HW186442   7.777  12.414  10.108
61556SOL    HW286443   7.927  12.394  10.092
61557SOL     OW86444   8.642   3.394   6.379
61557SOL    HW186445   8.557   3.437   6.369
61557SOL    HW286446   8.621   3.302   6.395
61558SOL     OW86447   7.251  14.541   1.613
61558SOL    HW186448   7.178  14.586   1.655
61558SOL    HW286449   7.264  14.462   1.666
61559SOL     OW86450   7.964   6.580   5.642
61559SOL    HW186451   7.950   6.557   5.734
61559SOL    HW286452   8.058   6.595   5.635
61560SOL     OW86453  10.258   8.595  12.152
61560SOL    HW186454  10.248   8.688  12.132
61560SOL    HW286455  10.326   8.565  12.092
61561SOL     OW86456   3.822   0.482   9.628
61561SOL    HW186457   3.875   0.403   9.628
61561SOL    HW286458   3.885   0.554   9.635
61562SOL     OW86459  10.894  10.439   3.356
61562SOL    HW186460  10.946  10.379   3.410
61562SOL    HW286461  10.805  10.430   3.390
61563SOL     OW86462   7.322   2.678   2.675
61563SOL    HW186463   7.348   2.753   2.728
61563SOL    HW286464   7.394   2.616   2.682
61564SOL     OW86465   3.381  13.385  14.027
61564SOL    HW186466   3.346  13.468  14.059
61564SOL    HW286467   3.370  13.390  13.932
61565SOL     OW86468   7.403   6.433   5.174
61565SOL    HW186469   7.353   6.402   5.098
61565SOL    HW286470   7.492   6.400   5.159
61566SOL     OW86471   4.554   2.391   1.845
61566SOL    HW186472   4.635   2.346   1.819
61566SOL    HW286473   4.508   2.406   1.763
61567SOL     OW86474  14.279  10.541  10.584
61567SOL    HW186475  14.195  10.511  10.619
61567SOL    HW286476  14.309  10.471  10.527
61568SOL     OW86477  13.301   6.659   7.510
61568SOL    HW186478  13.300   6.563   7.502
61568SOL    HW286479  13.384   6.685   7.470
61569SOL     OW86480   1.511  14.786   7.987
61569SOL    HW186481   1.507  14.880   7.973
61569SOL    HW286482   1.481  14.749   7.904
61570SOL     OW86483   8.991  10.343   1.521
61570SOL    HW186484   9.061  10.406   1.502
61570SOL    HW286485   8.956  10.321   1.435
61571SOL     OW86486  12.180   2.504   5.150
61571SOL    HW186487  12.102   2.545   5.113
61571SOL    HW286488  12.241   2.498   5.077
61572SOL     OW86489  11.451   8.469   7.842
61572SOL    HW186490  11.373   8.493   7.892
61572SOL    HW286491  11.442   8.375   7.827
61573SOL     OW86492   3.065  13.780   8.619
61573SOL    HW186493   3.131  13.835   8.661
61573SOL    HW286494   3.100  13.762   8.532
61574SOL     OW86495   9.490   1.565   3.258
61574SOL    HW186496   9.460   1.478   3.285
61574SOL    HW286497   9.426   1.625   3.297
61575SOL     OW86498  14.599   3.767  11.911
61575SOL    HW186499  14.666   3.747  11.977
61575SOL    HW286500  14.633   3.844  11.866
61576SOL     OW86501  11.924   1.653   4.399
61576SOL    HW186502  11.841   1.690   4.370
61576SOL    HW286503  11.900   1.585   4.462
61577SOL     OW86504   5.868   6.211   6.293
61577SOL    HW186505   5.823   6.295   6.281
61577SOL    HW286506   5.916   6.198   6.212
61578SOL     OW86507   0.621   3.999   4.354
61578SOL    HW186508   0.623   4.093   4.334
61578SOL    HW286509   0.568   3.993   4.434
61579SOL     OW86510   5.649  14.171   6.434
61579SOL    HW186511   5.707  14.237   6.473
61579SOL    HW286512   5.579  14.159   6.499
61580SOL     OW86513   5.913   6.223   2.182
61580SOL    HW186514   5.910   6.244   2.089
61580SOL    HW286515   5.910   6.128   2.186
61581SOL     OW86516   1.868  12.491   3.831
61581SOL    HW186517   1.892  12.427   3.763
61581SOL    HW286518   1.780  12.464   3.858
61582SOL     OW86519   9.071  13.435   4.657
61582SOL    HW186520   9.031  13.481   4.732
61582SOL    HW286521   9.092  13.505   4.595
61583SOL     OW86522  12.792   8.417   0.527
61583SOL    HW186523  12.858   8.462   0.475
61583SOL    HW286524  12.789   8.465   0.610
61584SOL     OW86525   3.513   1.043   3.452
61584SOL    HW186526   3.515   1.108   3.382
61584SOL    HW286527   3.602   1.007   3.455
61585SOL     OW86528   4.385   7.529   1.115
61585SOL    HW186529   4.305   7.530   1.169
61585SOL    HW286530   4.357   7.561   1.029
61586SOL     OW86531  13.387   2.352   3.239
61586SOL    HW186532  13.394   2.263   3.203
61586SOL    HW286533  13.296   2.377   3.222
61587SOL     OW86534   3.999   9.168   0.085
61587SOL    HW186535   3.915   9.136   0.052
61587SOL    HW286536   4.056   9.091   0.088
61588SOL     OW86537   4.437   3.885   5.269
61588SOL    HW186538   4.386   3.815   5.230
61588SOL    HW286539   4.426   3.873   5.363
61589SOL     OW86540   6.447  11.431   1.848
61589SOL    HW186541   6.384  11.375   1.892
61589SOL    HW286542   6.479  11.490   1.916
61590SOL     OW86543   6.692   0.071   0.620
61590SOL    HW186544   6.696   0.163   0.648
61590SOL    HW286545   6.770   0.058   0.567
61591SOL     OW86546   6.590   0.718  10.861
61591SOL    HW186547   6.670   0.676  10.892
61591SOL    HW286548   6.615   0.762  10.780
61592SOL     OW86549  10.944   5.825   6.500
61592SOL    HW186550  10.879   5.859   6.439
61592SOL    HW286551  10.905   5.744   6.535
61593SOL     OW86552  11.337  13.899   0.031
61593SOL    HW186553  11.357  13.934   0.118
61593SOL    HW286554  11.351  13.972  14.853
61594SOL     OW86555   1.208   2.423   9.380
61594SOL    HW186556   1.300   2.448   9.387
61594SOL    HW286557   1.205   2.359   9.309
61595SOL     OW86558   4.367   3.086   6.121
61595SOL    HW186559   4.393   3.115   6.034
61595SOL    HW286560   4.369   2.990   6.116
61596SOL     OW86561  13.991   8.350  14.872
61596SOL    HW186562  13.914   8.297   0.013
61596SOL    HW286563  14.036   8.298  14.805
61597SOL     OW86564   6.455  11.937   0.114
61597SOL    HW186565   6.532  11.890   0.145
61597SOL    HW286566   6.471  11.950   0.020
61598SOL     OW86567  14.786  14.690  12.480
61598SOL    HW186568  14.858  14.671  12.540
61598SOL    HW286569  14.819  14.663  12.394
61599SOL     OW86570   0.079   5.162   3.398
61599SOL    HW186571   0.120   5.079   3.423
61599SOL    HW286572   0.069   5.210   3.480
61600SOL     OW86573  13.774   5.736  14.074
61600SOL    HW186574  13.809   5.821  14.103
61600SOL    HW286575  13.688   5.757  14.037
61601SOL     OW86576   7.222   9.229   7.843
61601SOL    HW186577   7.261   9.147   7.873
61601SOL    HW286578   7.217   9.284   7.921
61602SOL     OW86579  11.156  14.471  13.388
61602SOL    HW186580  11.063  14.454  13.407
61602SOL    HW286581  11.154  14.525  13.309
61603SOL     OW86582   9.424   7.019   9.799
61603SOL    HW186583   9.350   6.965   9.827
61603SOL    HW286584   9.492   7.002   9.865
61604SOL     OW86585  12.641  12.245   5.045
61604SOL    HW186586  12.633  12.270   4.953
61604SOL    HW286587  12.555  12.209   5.067
61605SOL     OW86588  14.760  13.532  11.240
61605SOL    HW186589  14.785  13.621  11.216
61605SOL    HW286590  14.788  13.479  11.166
61606SOL     OW86591   0.841   9.613   2.427
61606SOL    HW186592   0.782   9.617   2.352
61606SOL    HW286593   0.808   9.678   2.488
61607SOL     OW86594   9.532   8.599   9.380
61607SOL    HW186595   9.468   8.603   9.309
61607SOL    HW286596   9.610   8.641   9.345
61608SOL     OW86597  14.280   2.802  14.479
61608SOL    HW186598  14.306   2.876  14.535
61608SOL    HW286599  14.185   2.799  14.487
61609SOL     OW86600   6.152   1.226  10.640
61609SOL    HW186601   6.129   1.216  10.548
61609SOL    HW286602   6.129   1.142  10.680
61610SOL     OW86603   0.091   0.400  12.616
61610SOL    HW186604   0.073   0.309  12.594
61610SOL    HW286605   0.053   0.412  12.704
61611SOL     OW86606   5.246   5.188   4.769
61611SOL    HW186607   5.337   5.194   4.796
61611SOL    HW286608   5.250   5.161   4.677
61612SOL     OW86609  11.097   6.602   5.705
61612SOL    HW186610  11.089   6.507   5.720
61612SOL    HW286611  11.158   6.609   5.631
61613SOL     OW86612  11.803   5.460   4.404
61613SOL    HW186613  11.751   5.505   4.337
61613SOL    HW286614  11.739   5.412   4.456
61614SOL     OW86615   6.573  13.334   0.073
61614SOL    HW186616   6.593  13.281   0.150
61614SOL    HW286617   6.529  13.273   0.013
61615SOL     OW86618   1.461  14.610   1.168
61615SOL    HW186619   1.370  14.640   1.178
61615SOL    HW286620   1.487  14.586   1.257
61616SOL     OW86621   6.186   4.741   1.990
61616SOL    HW186622   6.281   4.750   1.983
61616SOL    HW286623   6.169   4.652   1.959
61617SOL     OW86624  10.357   0.844   3.635
61617SOL    HW186625  10.382   0.893   3.556
61617SOL    HW286626  10.268   0.814   3.616
61618SOL     OW86627   7.808   6.621   4.483
61618SOL    HW186628   7.892   6.587   4.455
61618SOL    HW286629   7.785   6.569   4.560
61619SOL     OW86630   8.056   3.830  14.140
61619SOL    HW186631   8.059   3.910  14.193
61619SOL    HW286632   8.048   3.759  14.204
61620SOL     OW86633   5.655   1.680   1.682
61620SOL    HW186634   5.591   1.699   1.750
61620SOL    HW286635   5.641   1.588   1.660
61621SOL     OW86636   3.175  10.859   9.215
61621SOL    HW186637   3.191  10.932   9.275
61621SOL    HW286638   3.085  10.872   9.185
61622SOL     OW86639   7.195  13.457   8.105
61622SOL    HW186640   7.226  13.546   8.124
61622SOL    HW286641   7.154  13.463   8.019
61623SOL     OW86642  11.539   7.717   0.142
61623SOL    HW186643  11.515   7.625   0.154
61623SOL    HW286644  11.456   7.761   0.124
61624SOL     OW86645   8.046   4.967  10.050
61624SOL    HW186646   7.964   5.012  10.072
61624SOL    HW286647   8.032   4.931   9.963
61625SOL     OW86648  12.163   4.250   5.083
61625SOL    HW186649  12.242   4.203   5.110
61625SOL    HW286650  12.141   4.305   5.158
61626SOL     OW86651   8.995   0.787  13.008
61626SOL    HW186652   9.013   0.782  13.102
61626SOL    HW286653   8.960   0.875  12.995
61627SOL     OW86654   0.249   6.998   3.563
61627SOL    HW186655   0.243   7.001   3.468
61627SOL    HW286656   0.246   7.090   3.590
61628SOL     OW86657  13.834   5.192   1.030
61628SOL    HW186658  13.866   5.268   1.079
61628SOL    HW286659  13.770   5.151   1.088
61629SOL     OW86660  13.166  10.606  11.959
61629SOL    HW186661  13.199  10.526  11.919
61629SOL    HW286662  13.208  10.677  11.910
61630SOL     OW86663   1.599   0.301   6.283
61630SOL    HW186664   1.548   0.220   6.294
61630SOL    HW286665   1.573   0.356   6.357
61631SOL     OW86666   0.668   4.118   3.275
61631SOL    HW186667   0.741   4.173   3.246
61631SOL    HW286668   0.665   4.131   3.370
61632SOL     OW86669   7.586  12.620   6.259
61632SOL    HW186670   7.555  12.672   6.184
61632SOL    HW286671   7.533  12.540   6.255
61633SOL     OW86672  13.819   8.193   5.190
61633SOL    HW186673  13.740   8.172   5.239
61633SOL    HW286674  13.886   8.134   5.225
61634SOL     OW86675   6.186   8.144   2.687
61634SOL    HW186676   6.093   8.125   2.682
61634SOL    HW286677   6.200   8.171   2.778
61635SOL     OW86678   9.616   0.370   2.848
61635SOL    HW186679   9.541   0.408   2.802
61635SOL    HW286680   9.576   0.308   2.910
61636SOL     OW86681   7.308   5.250   0.948
61636SOL    HW186682   7.259   5.201   1.014
61636SOL    HW286683   7.375   5.297   0.997
61637SOL     OW86684   7.378  11.662   5.069
61637SOL    HW186685   7.291  11.638   5.036
61637SOL    HW286686   7.405  11.735   5.013
61638SOL     OW86687   9.010  13.538   6.274
61638SOL    HW186688   8.925  13.582   6.283
61638SOL    HW286689   9.072  13.597   6.317
61639SOL     OW86690   5.850   5.611   3.311
61639SOL    HW186691   5.866   5.534   3.257
61639SOL    HW286692   5.832   5.681   3.249
61640SOL     OW86693   3.916   6.042   2.750
61640SOL    HW186694   3.878   5.956   2.770
61640SOL    HW286695   3.844   6.090   2.708
61641SOL     OW86696   3.658   6.012   2.855
61641SOL    HW186697   3.614   5.980   2.777
61641SOL    HW286698   3.623   6.100   2.868
61642SOL     OW86699   0.744   1.370   2.187
61642SOL    HW186700   0.702   1.342   2.106
61642SOL    HW286701   0.827   1.321   2.189
61643SOL     OW86702   1.927   6.504  12.200
61643SOL    HW186703   1.868   6.495  12.125
61643SOL    HW286704   1.887   6.450  12.268
61644SOL     OW86705   1.792   9.235   2.749
61644SOL    HW186706   1.718   9.193   2.706
61644SOL    HW286707   1.756   9.268   2.832
61645SOL     OW86708   0.380  13.622   1.882
61645SOL    HW186709   0.425  13.538   1.878
61645SOL    HW286710   0.295  13.602   1.921
61646SOL     OW86711   0.132   4.579  13.035
61646SOL    HW186712   0.134   4.635  12.958
61646SOL    HW286713   0.063   4.617  13.090
61647SOL     OW86714   1.870  13.692  13.507
61647SOL    HW186715   1.934  13.761  13.520
61647SOL    HW286716   1.825  13.715  13.426
61648SOL     OW86717   9.818  13.150   5.915
61648SOL    HW186718   9.787  13.226   5.964
61648SOL    HW286719   9.751  13.137   5.847
61649SOL     OW86720  12.326   0.832  12.239
61649SOL    HW186721  12.393   0.775  12.276
61649SOL    HW286722  12.325   0.909  12.296
61650SOL     OW86723   2.748  13.732   8.233
61650SOL    HW186724   2.698  13.802   8.192
61650SOL    HW286725   2.764  13.669   8.162
61651SOL     OW86726   2.376   3.134   6.582
61651SOL    HW186727   2.301   3.076   6.566
61651SOL    HW286728   2.337   3.221   6.592
61652SOL     OW86729   8.220   9.847   6.539
61652SOL    HW186730   8.219   9.941   6.525
61652SOL    HW286731   8.312   9.823   6.538
61653SOL     OW86732   0.474   1.523   6.803
61653SOL    HW186733   0.394   1.534   6.751
61653SOL    HW286734   0.457   1.444   6.854
61654SOL     OW86735  13.384   9.985  13.149
61654SOL    HW186736  13.467   9.937  13.157
61654SOL    HW286737  13.342   9.946  13.073
61655SOL     OW86738   4.229  12.565  11.424
61655SOL    HW186739   4.166  12.631  11.394
61655SOL    HW286740   4.226  12.498  11.356
61656SOL     OW86741   5.994   5.721   7.109
61656SOL    HW186742   5.899   5.731   7.115
61656SOL    HW286743   6.010   5.630   7.133
61657SOL     OW86744   7.360   6.992   2.164
61657SOL    HW186745   7.432   6.956   2.112
61657SOL    HW286746   7.385   7.083   2.179
61658SOL     OW86747  14.227   7.982   5.222
61658SOL    HW186748  14.213   8.076   5.230
61658SOL    HW286749  14.204   7.962   5.131
61659SOL     OW86750   6.267   8.158   5.026
61659SOL    HW186751   6.288   8.148   5.119
61659SOL    HW286752   6.218   8.239   5.021
61660SOL     OW86753  11.924   8.960   5.372
61660SOL    HW186754  11.829   8.957   5.383
61660SOL    HW286755  11.957   8.897   5.435
61661SOL     OW86756   7.649   8.363  13.265
61661SOL    HW186757   7.729   8.390  13.310
61661SOL    HW286758   7.628   8.278  13.303
61662SOL     OW86759   5.182  13.379  13.239
61662SOL    HW186760   5.209  13.388  13.330
61662SOL    HW286761   5.097  13.336  13.243
61663SOL     OW86762   0.369   4.882  12.902
61663SOL    HW186763   0.409   4.823  12.966
61663SOL    HW286764   0.379   4.969  12.940
61664SOL     OW86765   0.969   5.714   9.705
61664SOL    HW186766   0.893   5.735   9.651
61664SOL    HW286767   0.969   5.780   9.774
61665SOL     OW86768  14.030  14.277   7.698
61665SOL    HW186769  14.081  14.278   7.778
61665SOL    HW286770  14.040  14.187   7.665
61666SOL     OW86771   2.249   9.788  14.783
61666SOL    HW186772   2.208   9.754  14.703
61666SOL    HW286773   2.323   9.840  14.752
61667SOL     OW86774   5.802  13.833  11.446
61667SOL    HW186775   5.734  13.900  11.440
61667SOL    HW286776   5.754  13.750  11.447
61668SOL     OW86777   8.252   9.149  12.916
61668SOL    HW186778   8.306   9.120  12.843
61668SOL    HW286779   8.170   9.099  12.907
61669SOL     OW86780   2.096  10.471  10.023
61669SOL    HW186781   2.128  10.420  10.098
61669SOL    HW286782   2.137  10.431   9.947
61670SOL     OW86783   6.780   7.292  11.541
61670SOL    HW186784   6.817   7.372  11.504
61670SOL    HW286785   6.733   7.321  11.619
61671SOL     OW86786   8.017   9.506   7.684
61671SOL    HW186787   8.032   9.585   7.736
61671SOL    HW286788   8.071   9.518   7.606
61672SOL     OW86789   3.839   1.671  11.705
61672SOL    HW186790   3.765   1.726  11.730
61672SOL    HW286791   3.866   1.706  11.620
61673SOL     OW86792  14.047   6.624   7.625
61673SOL    HW186793  13.989   6.548   7.616
61673SOL    HW286794  14.058   6.636   7.719
61674SOL     OW86795   6.088  10.960  10.172
61674SOL    HW186796   6.084  10.973  10.077
61674SOL    HW286797   6.180  10.939  10.189
61675SOL     OW86798  13.035   5.218  12.255
61675SOL    HW186799  12.970   5.176  12.311
61675SOL    HW286800  12.991   5.295  12.219
61676SOL     OW86801  11.384  12.597  13.895
61676SOL    HW186802  11.292  12.606  13.920
61676SOL    HW286803  11.385  12.526  13.831
61677SOL     OW86804  10.069  12.084   0.416
61677SOL    HW186805  10.004  12.150   0.394
61677SOL    HW286806  10.018  12.012   0.455
61678SOL     OW86807  11.125   3.823   4.508
61678SOL    HW186808  11.133   3.843   4.601
61678SOL    HW286809  11.110   3.728   4.506
61679SOL     OW86810   3.841   0.672   2.277
61679SOL    HW186811   3.931   0.665   2.246
61679SOL    HW286812   3.833   0.763   2.305
61680SOL     OW86813   5.537   5.421   1.240
61680SOL    HW186814   5.590   5.490   1.278
61680SOL    HW286815   5.449   5.436   1.275
61681SOL     OW86816   4.325   6.597  13.247
61681SOL    HW186817   4.398   6.637  13.294
61681SOL    HW286818   4.298   6.663  13.184
61682SOL     OW86819   2.321   9.139   3.640
61682SOL    HW186820   2.252   9.192   3.602
61682SOL    HW286821   2.376   9.114   3.566
61683SOL     OW86822  14.419  12.263  12.275
61683SOL    HW186823  14.431  12.342  12.329
61683SOL    HW286824  14.495  12.261  12.218
61684SOL     OW86825   0.487   6.876  13.660
61684SOL    HW186826   0.464   6.798  13.610
61684SOL    HW286827   0.426   6.943  13.631
61685SOL     OW86828   8.937   6.166   8.201
61685SOL    HW186829   8.845   6.160   8.226
61685SOL    HW286830   8.967   6.250   8.236
61686SOL     OW86831   0.932   1.612   6.872
61686SOL    HW186832   0.836   1.610   6.879
61686SOL    HW286833   0.960   1.671   6.941
61687SOL     OW86834  14.156   2.813   5.088
61687SOL    HW186835  14.218   2.883   5.110
61687SOL    HW286836  14.115   2.841   5.006
61688SOL     OW86837   8.947  11.897   6.114
61688SOL    HW186838   8.853  11.880   6.112
61688SOL    HW286839   8.956  11.985   6.078
61689SOL     OW86840   2.312   5.769   0.934
61689SOL    HW186841   2.294   5.777   1.028
61689SOL    HW286842   2.391   5.821   0.920
61690SOL     OW86843   0.581   1.604  14.480
61690SOL    HW186844   0.673   1.582  14.469
61690SOL    HW286845   0.535   1.550  14.416
61691SOL     OW86846   6.149   1.152   1.307
61691SOL    HW186847   6.234   1.194   1.295
61691SOL    HW286848   6.144   1.087   1.236
61692SOL     OW86849  13.353  10.891  13.996
61692SOL    HW186850  13.448  10.882  13.997
61692SOL    HW286851  13.338  10.984  13.977
61693SOL     OW86852   2.460  13.368  12.870
61693SOL    HW186853   2.409  13.366  12.789
61693SOL    HW286854   2.394  13.378  12.939
61694SOL     OW86855   6.368   2.870   8.995
61694SOL    HW186856   6.451   2.918   8.990
61694SOL    HW286857   6.392   2.780   8.972
61695SOL     OW86858  13.621   5.684   4.595
61695SOL    HW186859  13.626   5.632   4.675
61695SOL    HW286860  13.653   5.771   4.621
61696SOL     OW86861   2.225   4.190  10.256
61696SOL    HW186862   2.144   4.242  10.257
61696SOL    HW286863   2.226   4.151  10.169
61697SOL     OW86864   8.246  12.408   7.445
61697SOL    HW186865   8.328  12.453   7.467
61697SOL    HW286866   8.230  12.349   7.518
61698SOL     OW86867   5.442   1.185   3.797
61698SOL    HW186868   5.440   1.281   3.800
61698SOL    HW286869   5.420   1.158   3.886
61699SOL     OW86870   7.203   6.719   6.776
61699SOL    HW186871   7.271   6.695   6.839
61699SOL    HW286872   7.131   6.752   6.829
61700SOL     OW86873   5.813   5.262   9.385
61700SOL    HW186874   5.839   5.349   9.415
61700SOL    HW286875   5.847   5.203   9.452
61701SOL     OW86876  14.797   2.694   7.133
61701SOL    HW186877   0.002   2.729   7.153
61701SOL    HW286878  14.738   2.740   7.194
61702SOL     OW86879   0.578  14.089  10.815
61702SOL    HW186880   0.507  14.146  10.789
61702SOL    HW286881   0.658  14.135  10.789
61703SOL     OW86882   8.204   2.231   0.261
61703SOL    HW186883   8.173   2.141   0.248
61703SOL    HW286884   8.135   2.286   0.222
61704SOL     OW86885   6.566  13.760   1.918
61704SOL    HW186886   6.508  13.685   1.935
61704SOL    HW286887   6.630  13.728   1.855
61705SOL     OW86888   3.632   2.677  14.437
61705SOL    HW186889   3.569   2.744  14.415
61705SOL    HW286890   3.580   2.599  14.454
61706SOL     OW86891   4.194  14.310   1.709
61706SOL    HW186892   4.236  14.371   1.770
61706SOL    HW286893   4.228  14.335   1.623
61707SOL     OW86894   6.701   5.954   5.979
61707SOL    HW186895   6.626   6.008   6.004
61707SOL    HW286896   6.765   5.969   6.049
61708SOL     OW86897   2.419   1.457   9.253
61708SOL    HW186898   2.469   1.518   9.307
61708SOL    HW286899   2.448   1.474   9.164
61709SOL     OW86900  13.417  13.051   4.275
61709SOL    HW186901  13.356  13.125   4.272
61709SOL    HW286902  13.498  13.089   4.309
61710SOL     OW86903  14.735  10.666   4.266
61710SOL    HW186904  14.681  10.592   4.238
61710SOL    HW286905  14.677  10.719   4.321
61711SOL     OW86906   8.427   3.144  11.973
61711SOL    HW186907   8.493   3.212  11.986
61711SOL    HW286908   8.448   3.107  11.887
61712SOL     OW86909  13.548  13.401   5.303
61712SOL    HW186910  13.470  13.412   5.248
61712SOL    HW286911  13.549  13.307   5.324
61713SOL     OW86912   3.516  13.255  13.103
61713SOL    HW186913   3.490  13.201  13.029
61713SOL    HW286914   3.438  13.258  13.159
61714SOL     OW86915   2.334   6.832  10.220
61714SOL    HW186916   2.361   6.911  10.268
61714SOL    HW286917   2.357   6.759  10.278
61715SOL     OW86918   3.849   6.636   2.745
61715SOL    HW186919   3.775   6.611   2.691
61715SOL    HW286920   3.925   6.596   2.703
61716SOL     OW86921   4.210   6.338   2.584
61716SOL    HW186922   4.211   6.273   2.653
61716SOL    HW286923   4.291   6.387   2.595
61717SOL     OW86924   7.747   4.881  14.569
61717SOL    HW186925   7.680   4.815  14.586
61717SOL    HW286926   7.808   4.838  14.509
61718SOL     OW86927  13.489   8.298   1.454
61718SOL    HW186928  13.428   8.282   1.526
61718SOL    HW286929  13.550   8.364   1.488
61719SOL     OW86930   8.424   8.175   1.392
61719SOL    HW186931   8.494   8.146   1.332
61719SOL    HW286932   8.347   8.183   1.336
61720SOL     OW86933  14.297   7.628  14.815
61720SOL    HW186934  14.302   7.615   0.029
61720SOL    HW286935  14.213   7.671  14.801
61721SOL     OW86936   1.192  13.401  10.010
61721SOL    HW186937   1.200  13.460   9.936
61721SOL    HW286938   1.119  13.437  10.062
61722SOL     OW86939   6.810   4.207   4.166
61722SOL    HW186940   6.875   4.274   4.148
61722SOL    HW286941   6.750   4.248   4.229
61723SOL     OW86942   7.278   8.207  12.171
61723SOL    HW186943   7.313   8.295  12.182
61723SOL    HW286944   7.348   8.159  12.127
61724SOL     OW86945   4.546   2.903   9.524
61724SOL    HW186946   4.546   2.999   9.534
61724SOL    HW286947   4.550   2.889   9.430
61725SOL     OW86948  10.568  11.261   0.373
61725SOL    HW186949  10.518  11.245   0.293
61725SOL    HW286950  10.654  11.288   0.342
61726SOL     OW86951  12.993   4.425   1.393
61726SOL    HW186952  12.928   4.491   1.371
61726SOL    HW286953  13.060   4.434   1.325
61727SOL     OW86954   9.225  12.101  14.330
61727SOL    HW186955   9.222  12.040  14.403
61727SOL    HW286956   9.242  12.186  14.370
61728SOL     OW86957   7.010  12.921  14.338
61728SOL    HW186958   7.054  12.994  14.295
61728SOL    HW286959   7.080  12.863  14.366
61729SOL     OW86960   0.261  11.313  13.681
61729SOL    HW186961   0.246  11.222  13.654
61729SOL    HW286962   0.305  11.353  13.606
61730SOL     OW86963   9.435  14.333   0.789
61730SOL    HW186964   9.453  14.376   0.873
61730SOL    HW286965   9.490  14.255   0.790
61731SOL     OW86966  12.303  10.058  10.074
61731SOL    HW186967  12.208  10.047  10.074
61731SOL    HW286968  12.330  10.031   9.986
61732SOL     OW86969  14.087   4.559  13.151
61732SOL    HW186970  14.022   4.624  13.177
61732SOL    HW286971  14.099   4.574  13.057
61733SOL     OW86972   4.264   6.841  10.345
61733SOL    HW186973   4.336   6.896  10.312
61733SOL    HW286974   4.265   6.856  10.439
61734SOL     OW86975  11.320  10.047   1.271
61734SOL    HW186976  11.293  10.028   1.361
61734SOL    HW286977  11.410  10.078   1.279
61735SOL     OW86978  10.950   6.133   8.247
61735SOL    HW186979  10.867   6.110   8.289
61735SOL    HW286980  11.011   6.144   8.320
61736SOL     OW86981   3.780   5.869   4.946
61736SOL    HW186982   3.863   5.824   4.932
61736SOL    HW286983   3.722   5.801   4.981
61737SOL     OW86984  14.042   5.532   6.063
61737SOL    HW186985  13.996   5.608   6.028
61737SOL    HW286986  14.008   5.521   6.152
61738SOL     OW86987   2.974  14.481   1.637
61738SOL    HW186988   3.064  14.491   1.668
61738SOL    HW286989   2.948  14.569   1.610
61739SOL     OW86990  11.831  10.670   2.795
61739SOL    HW186991  11.765  10.628   2.850
61739SOL    HW286992  11.903  10.607   2.790
61740SOL     OW86993   0.595   5.875  13.872
61740SOL    HW186994   0.608   5.810  13.941
61740SOL    HW286995   0.520   5.842  13.822
61741SOL     OW86996   0.933   3.893   1.332
61741SOL    HW186997   0.895   3.846   1.258
61741SOL    HW286998   0.858   3.910   1.390
61742SOL     OW86999   3.571   3.612   9.781
61742SOL    HW187000   3.551   3.702   9.754
61742SOL    HW287001   3.664   3.601   9.760
61743SOL     OW87002  13.407   4.597   0.108
61743SOL    HW187003  13.389   4.588   0.014
61743SOL    HW287004  13.430   4.509   0.137
61744SOL     OW87005   6.699   3.041  13.857
61744SOL    HW187006   6.767   3.053  13.924
61744SOL    HW287007   6.741   3.068  13.775
61745SOL     OW87008  11.644   6.694   0.179
61745SOL    HW187009  11.653   6.601   0.201
61745SOL    HW287010  11.595   6.694   0.097
61746SOL     OW87011  13.046  10.442   1.546
61746SOL    HW187012  13.004  10.518   1.507
61746SOL    HW287013  13.109  10.478   1.608
61747SOL     OW87014  13.169   4.343   7.023
61747SOL    HW187015  13.129   4.430   7.014
61747SOL    HW287016  13.151   4.318   7.113
61748SOL     OW87017   4.094   7.933   7.033
61748SOL    HW187018   4.117   8.025   7.050
61748SOL    HW287019   4.052   7.904   7.114
61749SOL     OW87020   3.028   1.660   4.310
61749SOL    HW187021   2.996   1.576   4.275
61749SOL    HW287022   3.085   1.693   4.241
61750SOL     OW87023  11.907   4.552   0.579
61750SOL    HW187024  11.999   4.580   0.580
61750SOL    HW287025  11.864   4.616   0.522
61751SOL     OW87026   0.029   5.798  13.502
61751SOL    HW187027   0.074   5.800  13.418
61751SOL    HW287028   0.091   5.838  13.564
61752SOL     OW87029   6.897   0.002   3.564
61752SOL    HW187030   6.961   0.055   3.518
61752SOL    HW287031   6.929  14.793   3.555
61753SOL     OW87032   5.031  14.693   2.150
61753SOL    HW187033   5.088  14.747   2.096
61753SOL    HW287034   4.969  14.655   2.088
61754SOL     OW87035  12.674   4.030  12.044
61754SOL    HW187036  12.627   3.947  12.035
61754SOL    HW287037  12.765   4.008  12.025
61755SOL     OW87038  13.489  12.499  13.660
61755SOL    HW187039  13.510  12.530  13.572
61755SOL    HW287040  13.396  12.476  13.656
61756SOL     OW87041   8.513   3.232   2.343
61756SOL    HW187042   8.429   3.198   2.374
61756SOL    HW287043   8.490   3.314   2.299
61757SOL     OW87044   9.676  11.849   6.599
61757SOL    HW187045   9.761  11.816   6.628
61757SOL    HW287046   9.662  11.928   6.652
61758SOL     OW87047  12.679  14.349   6.017
61758SOL    HW187048  12.760  14.301   6.033
61758SOL    HW287049  12.612  14.280   6.006
61759SOL     OW87050   0.266   8.354   9.676
61759SOL    HW187051   0.269   8.355   9.580
61759SOL    HW287052   0.288   8.264   9.700
61760SOL     OW87053   9.956  11.575   5.302
61760SOL    HW187054  10.017  11.622   5.244
61760SOL    HW287055  10.012  11.521   5.357
61761SOL     OW87056  11.854   0.813  12.118
61761SOL    HW187057  11.868   0.730  12.165
61761SOL    HW287058  11.940   0.834  12.080
61762SOL     OW87059   3.600   1.768   6.557
61762SOL    HW187060   3.642   1.728   6.633
61762SOL    HW287061   3.656   1.742   6.483
61763SOL     OW87062  10.275   1.601   5.128
61763SOL    HW187063  10.199   1.646   5.092
61763SOL    HW287064  10.350   1.637   5.081
61764SOL     OW87065   7.243   9.919   3.474
61764SOL    HW187066   7.287   9.909   3.389
61764SOL    HW287067   7.314   9.913   3.538
61765SOL     OW87068   2.969   9.189  12.985
61765SOL    HW187069   2.896   9.215  12.929
61765SOL    HW287070   3.043   9.182  12.925
61766SOL     OW87071   3.240   4.129   8.689
61766SOL    HW187072   3.167   4.090   8.738
61766SOL    HW287073   3.199   4.193   8.632
61767SOL     OW87074   6.991   0.758  13.723
61767SOL    HW187075   6.916   0.721  13.677
61767SOL    HW287076   7.019   0.690  13.784
61768SOL     OW87077   1.607   8.824  11.398
61768SOL    HW187078   1.644   8.753  11.451
61768SOL    HW287079   1.683   8.868  11.361
61769SOL     OW87080   0.701   8.906  13.201
61769SOL    HW187081   0.631   8.942  13.146
61769SOL    HW287082   0.657   8.879  13.282
61770SOL     OW87083   1.304   4.959  11.898
61770SOL    HW187084   1.365   5.009  11.843
61770SOL    HW287085   1.304   5.005  11.982
61771SOL     OW87086   5.287   0.793  13.544
61771SOL    HW187087   5.350   0.843  13.596
61771SOL    HW287088   5.204   0.840  13.556
61772SOL     OW87089   7.708   4.705   4.738
61772SOL    HW187090   7.720   4.623   4.786
61772SOL    HW287091   7.684   4.677   4.650
61773SOL     OW87092   9.294   2.743   3.283
61773SOL    HW187093   9.327   2.671   3.336
61773SOL    HW287094   9.285   2.707   3.195
61774SOL     OW87095  11.242   5.085   7.762
61774SOL    HW187096  11.295   5.085   7.842
61774SOL    HW287097  11.152   5.089   7.793
61775SOL     OW87098  10.325   9.940  11.474
61775SOL    HW187099  10.242   9.912  11.511
61775SOL    HW287100  10.344  10.023  11.517
61776SOL     OW87101   5.829  13.125  12.209
61776SOL    HW187102   5.742  13.107  12.174
61776SOL    HW287103   5.886  13.124  12.132
61777SOL     OW87104   0.032  14.571  13.977
61777SOL    HW187105   0.060  14.518  14.051
61777SOL    HW287106   0.072  14.529  13.901
61778SOL     OW87107   1.673   6.030  13.479
61778SOL    HW187108   1.606   5.981  13.432
61778SOL    HW287109   1.750   5.973  13.478
61779SOL     OW87110   3.440   4.106  13.549
61779SOL    HW187111   3.466   4.177  13.606
61779SOL    HW287112   3.456   4.139  13.460
61780SOL     OW87113   0.974   9.956  14.217
61780SOL    HW187114   1.036  10.017  14.258
61780SOL    HW287115   1.023   9.918  14.144
61781SOL     OW87116   2.644   8.354  13.225
61781SOL    HW187117   2.712   8.292  13.200
61781SOL    HW287118   2.653   8.426  13.162
61782SOL     OW87119  10.770   9.439   7.594
61782SOL    HW187120  10.740   9.483   7.514
61782SOL    HW287121  10.717   9.478   7.663
61783SOL     OW87122   0.992  14.468  12.467
61783SOL    HW187123   0.981  14.541  12.528
61783SOL    HW287124   0.963  14.503  12.382
61784SOL     OW87125  14.511  13.005   2.610
61784SOL    HW187126  14.552  13.009   2.696
61784SOL    HW287127  14.417  13.002   2.628
61785SOL     OW87128   8.146  11.703   2.817
61785SOL    HW187129   8.087  11.646   2.865
61785SOL    HW287130   8.126  11.687   2.725
61786SOL     OW87131   4.931   6.340  12.905
61786SOL    HW187132   4.992   6.373  12.972
61786SOL    HW287133   4.890   6.418  12.870
61787SOL     OW87134   2.183   4.685   4.711
61787SOL    HW187135   2.272   4.654   4.690
61787SOL    HW287136   2.194   4.778   4.733
61788SOL     OW87137   4.295  13.972  10.702
61788SOL    HW187138   4.274  14.058  10.666
61788SOL    HW287139   4.317  13.989  10.794
61789SOL     OW87140   2.982  14.611   0.176
61789SOL    HW187141   3.015  14.624   0.265
61789SOL    HW287142   3.034  14.538   0.142
61790SOL     OW87143   1.648   5.400   8.842
61790SOL    HW187144   1.565   5.443   8.863
61790SOL    HW287145   1.643   5.382   8.748
61791SOL     OW87146  12.572   1.704   8.751
61791SOL    HW187147  12.597   1.778   8.696
61791SOL    HW287148  12.519   1.743   8.821
61792SOL     OW87149   6.770   1.678  12.414
61792SOL    HW187150   6.752   1.763  12.373
61792SOL    HW287151   6.864   1.678  12.429
61793SOL     OW87152  10.242   3.359   6.333
61793SOL    HW187153  10.149   3.377   6.327
61793SOL    HW287154  10.277   3.432   6.384
61794SOL     OW87155   3.166  13.609  11.317
61794SOL    HW187156   3.165  13.704  11.324
61794SOL    HW287157   3.102  13.589  11.249
61795SOL     OW87158  11.167  12.926  11.020
61795SOL    HW187159  11.074  12.935  10.997
61795SOL    HW287160  11.166  12.910  11.114
61796SOL     OW87161   1.874  12.640   6.608
61796SOL    HW187162   1.963  12.615   6.582
61796SOL    HW287163   1.828  12.654   6.525
61797SOL     OW87164   5.865   5.660   8.337
61797SOL    HW187165   5.847   5.754   8.332
61797SOL    HW287166   5.800   5.621   8.278
61798SOL     OW87167   0.556   5.494   3.279
61798SOL    HW187168   0.540   5.578   3.234
61798SOL    HW287169   0.471   5.468   3.311
61799SOL     OW87170  13.135   9.977  12.620
61799SOL    HW187171  13.064  10.038  12.637
61799SOL    HW287172  13.174   9.961  12.706
61800SOL     OW87173   4.951   3.845  12.579
61800SOL    HW187174   5.035   3.878  12.546
61800SOL    HW287175   4.886   3.905  12.541
61801SOL     OW87176   1.773  12.279   9.234
61801SOL    HW187177   1.810  12.193   9.255
61801SOL    HW287178   1.679  12.263   9.229
61802SOL     OW87179  13.648  11.404  14.538
61802SOL    HW187180  13.569  11.432  14.583
61802SOL    HW287181  13.617  11.349  14.466
61803SOL     OW87182  13.049   5.966   1.328
61803SOL    HW187183  13.069   6.057   1.350
61803SOL    HW287184  12.993   5.972   1.250
61804SOL     OW87185  13.925  13.604  12.969
61804SOL    HW187186  13.971  13.630  12.889
61804SOL    HW287187  13.905  13.687  13.013
61805SOL     OW87188   5.695   5.717   7.121
61805SOL    HW187189   5.653   5.646   7.170
61805SOL    HW287190   5.642   5.726   7.042
61806SOL     OW87191   9.502   8.018   4.293
61806SOL    HW187192   9.584   7.993   4.337
61806SOL    HW287193   9.486   8.108   4.321
61807SOL     OW87194   3.608   3.146  13.508
61807SOL    HW187195   3.571   3.233  13.495
61807SOL    HW287196   3.543   3.087  13.470
61808SOL     OW87197  13.080  12.851   7.920
61808SOL    HW187198  13.150  12.787   7.933
61808SOL    HW287199  13.016  12.806   7.864
61809SOL     OW87200   4.429   4.004   0.973
61809SOL    HW187201   4.480   3.929   1.003
61809SOL    HW287202   4.375   3.969   0.902
61810SOL     OW87203   6.542  13.395  12.703
61810SOL    HW187204   6.506  13.326  12.647
61810SOL    HW287205   6.465  13.440  12.738
61811SOL     OW87206  12.398   1.609   2.665
61811SOL    HW187207  12.406   1.593   2.571
61811SOL    HW287208  12.314   1.570   2.689
61812SOL     OW87209   3.971   0.549   5.665
61812SOL    HW187210   4.049   0.496   5.685
61812SOL    HW287211   3.901   0.485   5.653
61813SOL     OW87212   4.997   9.269   7.920
61813SOL    HW187213   5.087   9.298   7.912
61813SOL    HW287214   4.975   9.233   7.834
61814SOL     OW87215  14.562  10.859  10.660
61814SOL    HW187216  14.475  10.871  10.698
61814SOL    HW287217  14.571  10.764  10.650
61815SOL     OW87218   0.050  12.217  11.824
61815SOL    HW187219  14.849  12.261  11.846
61815SOL    HW287220   0.065  12.238  11.732
61816SOL     OW87221   4.837  11.134  10.692
61816SOL    HW187222   4.799  11.086  10.766
61816SOL    HW287223   4.932  11.130  10.708
61817SOL     OW87224   0.252   8.951   0.622
61817SOL    HW187225   0.208   8.882   0.572
61817SOL    HW287226   0.342   8.920   0.632
61818SOL     OW87227   2.810   1.479   8.912
61818SOL    HW187228   2.764   1.490   8.829
61818SOL    HW287229   2.782   1.393   8.944
61819SOL     OW87230  12.033   0.309   3.986
61819SOL    HW187231  12.101   0.243   3.973
61819SOL    HW287232  11.952   0.264   3.960
61820SOL     OW87233   0.064  11.681   9.984
61820SOL    HW187234   0.159  11.686   9.972
61820SOL    HW287235   0.037  11.607   9.929
61821SOL     OW87236   0.761   8.777   7.236
61821SOL    HW187237   0.711   8.854   7.209
61821SOL    HW287238   0.769   8.787   7.331
61822SOL     OW87239   6.070   1.891   9.713
61822SOL    HW187240   5.984   1.911   9.750
61822SOL    HW287241   6.057   1.812   9.662
61823SOL     OW87242  11.787   7.666   6.198
61823SOL    HW187243  11.744   7.678   6.282
61823SOL    HW287244  11.833   7.583   6.205
61824SOL     OW87245   3.635  13.793  12.114
61824SOL    HW187246   3.725  13.775  12.088
61824SOL    HW287247   3.612  13.872  12.064
61825SOL     OW87248  10.126   1.738   9.945
61825SOL    HW187249  10.187   1.793   9.994
61825SOL    HW287250  10.040   1.758   9.983
61826SOL     OW87251  11.856   9.102   8.849
61826SOL    HW187252  11.815   9.128   8.767
61826SOL    HW287253  11.936   9.154   8.854
61827SOL     OW87254   7.919  14.844   0.714
61827SOL    HW187255   7.920   0.052   0.749
61827SOL    HW287256   7.832  14.835   0.675
61828SOL     OW87257  13.250  13.463   8.096
61828SOL    HW187258  13.233  13.388   8.155
61828SOL    HW287259  13.340  13.452   8.068
61829SOL     OW87260   6.050   1.863  13.153
61829SOL    HW187261   6.048   1.840  13.060
61829SOL    HW287262   5.991   1.800  13.194
61830SOL     OW87263  13.345   2.912   2.581
61830SOL    HW187264  13.386   2.991   2.547
61830SOL    HW287265  13.254   2.918   2.552
61831SOL     OW87266   9.233   0.067   8.329
61831SOL    HW187267   9.187  14.871   8.360
61831SOL    HW287268   9.168   0.137   8.335
61832SOL     OW87269  12.384  14.584  10.851
61832SOL    HW187270  12.351  14.499  10.881
61832SOL    HW287271  12.313  14.620  10.797
61833SOL     OW87272   7.539   7.194   0.287
61833SOL    HW187273   7.584   7.277   0.300
61833SOL    HW287274   7.464   7.197   0.346
61834SOL     OW87275   3.012  11.795  12.053
61834SOL    HW187276   3.017  11.808  11.958
61834SOL    HW287277   3.097  11.758  12.077
61835SOL     OW87278  10.375  13.735  11.483
61835SOL    HW187279  10.376  13.648  11.443
61835SOL    HW287280  10.294  13.776  11.450
61836SOL     OW87281  10.876   6.093  14.230
61836SOL    HW187282  10.915   6.044  14.158
61836SOL    HW287283  10.879   6.184  14.201
61837SOL     OW87284  10.353   2.640  11.631
61837SOL    HW187285  10.433   2.630  11.683
61837SOL    HW287286  10.305   2.559  11.646
61838SOL     OW87287   6.711   2.656   9.650
61838SOL    HW187288   6.735   2.749   9.651
61838SOL    HW287289   6.767   2.616   9.716
61839SOL     OW87290   3.450   4.138  10.394
61839SOL    HW187291   3.466   4.231  10.404
61839SOL    HW287292   3.516   4.096  10.450
61840SOL     OW87293  11.632   9.370   5.070
61840SOL    HW187294  11.588   9.428   5.008
61840SOL    HW287295  11.576   9.292   5.073
61841SOL     OW87296  11.586   2.785   6.219
61841SOL    HW187297  11.542   2.704   6.194
61841SOL    HW287298  11.527   2.855   6.192
61842SOL     OW87299   7.133   2.182   9.647
61842SOL    HW187300   7.105   2.272   9.631
61842SOL    HW287301   7.111   2.135   9.566
61843SOL     OW87302   0.119   9.885   1.155
61843SOL    HW187303   0.033   9.925   1.168
61843SOL    HW287304   0.105   9.792   1.172
61844SOL     OW87305   3.471  12.390   1.819
61844SOL    HW187306   3.444  12.336   1.893
61844SOL    HW287307   3.482  12.328   1.746
61845SOL     OW87308  12.110   7.250   0.255
61845SOL    HW187309  12.042   7.201   0.301
61845SOL    HW287310  12.192   7.212   0.285
61846SOL     OW87311   5.928   2.813  10.718
61846SOL    HW187312   5.940   2.883  10.783
61846SOL    HW287313   5.978   2.739  10.752
61847SOL     OW87314  13.404  11.347   3.943
61847SOL    HW187315  13.495  11.371   3.927
61847SOL    HW287316  13.389  11.369   4.035
61848SOL     OW87317  12.769   7.607  13.992
61848SOL    HW187318  12.721   7.526  13.974
61848SOL    HW287319  12.852   7.597  13.946
61849SOL     OW87320   7.483  13.873   9.749
61849SOL    HW187321   7.508  13.829   9.668
61849SOL    HW287322   7.478  13.803   9.814
61850SOL     OW87323  12.113   4.690   9.363
61850SOL    HW187324  12.021   4.716   9.360
61850SOL    HW287325  12.154   4.739   9.292
61851SOL     OW87326   8.689   8.513   4.017
61851SOL    HW187327   8.756   8.540   3.955
61851SOL    HW287328   8.610   8.502   3.963
61852SOL     OW87329   2.526   9.924  12.550
61852SOL    HW187330   2.559   9.896  12.635
61852SOL    HW287331   2.438   9.956  12.567
61853SOL     OW87332   2.286   7.729   4.102
61853SOL    HW187333   2.193   7.710   4.118
61853SOL    HW287334   2.312   7.782   4.178
61854SOL     OW87335   7.528   6.039   1.405
61854SOL    HW187336   7.474   5.959   1.409
61854SOL    HW287337   7.604   6.020   1.460
61855SOL     OW87338   1.441   5.255  12.390
61855SOL    HW187339   1.503   5.227  12.458
61855SOL    HW287340   1.361   5.206  12.409
61856SOL     OW87341   5.183   7.049   2.054
61856SOL    HW187342   5.159   7.062   2.146
61856SOL    HW287343   5.267   7.093   2.045
61857SOL     OW87344   4.601   4.370  14.618
61857SOL    HW187345   4.578   4.347  14.708
61857SOL    HW287346   4.665   4.304  14.592
61858SOL     OW87347   8.232   9.335   1.074
61858SOL    HW187348   8.294   9.355   1.004
61858SOL    HW287349   8.286   9.296   1.143
61859SOL     OW87350  13.637   1.296   7.179
61859SOL    HW187351  13.630   1.204   7.202
61859SOL    HW287352  13.718   1.325   7.219
61860SOL     OW87353   4.257  14.510  13.077
61860SOL    HW187354   4.271  14.462  12.995
61860SOL    HW287355   4.280  14.448  13.145
61861SOL     OW87356   4.931   4.934  12.903
61861SOL    HW187357   4.884   4.968  12.980
61861SOL    HW287358   4.957   5.013  12.855
61862SOL     OW87359   8.584  12.206   0.371
61862SOL    HW187360   8.546  12.154   0.442
61862SOL    HW287361   8.633  12.144   0.318
61863SOL     OW87362   0.738   8.999  10.803
61863SOL    HW187363   0.773   8.964  10.721
61863SOL    HW287364   0.663   9.052  10.775
61864SOL     OW87365   8.207  11.493   1.917
61864SOL    HW187366   8.139  11.466   1.856
61864SOL    HW287367   8.159  11.531   1.991
61865SOL     OW87368  12.142   7.105   7.008
61865SOL    HW187369  12.181   7.146   6.931
61865SOL    HW287370  12.049   7.130   7.005
61866SOL     OW87371   8.287   0.791   5.871
61866SOL    HW187372   8.219   0.767   5.934
61866SOL    HW287373   8.314   0.878   5.898
61867SOL     OW87374   0.658   8.816   4.213
61867SOL    HW187375   0.728   8.879   4.226
61867SOL    HW287376   0.621   8.802   4.301
61868SOL     OW87377   2.368  12.726   6.138
61868SOL    HW187378   2.425  12.798   6.167
61868SOL    HW287379   2.365  12.735   6.042
61869SOL     OW87380   5.313   0.281  14.343
61869SOL    HW187381   5.254   0.230  14.289
61869SOL    HW287382   5.369   0.328  14.280
61870SOL     OW87383   6.871  11.264   1.306
61870SOL    HW187384   6.925  11.254   1.228
61870SOL    HW287385   6.792  11.214   1.287
61871SOL     OW87386  11.130   4.280   5.096
61871SOL    HW187387  11.152   4.373   5.084
61871SOL    HW287388  11.060   4.281   5.161
61872SOL     OW87389   8.309  14.729   2.950
61872SOL    HW187390   8.351  14.696   2.871
61872SOL    HW287391   8.373  14.790   2.988
61873SOL     OW87392  13.279  12.140   9.473
61873SOL    HW187393  13.275  12.188   9.556
61873SOL    HW287394  13.316  12.202   9.411
61874SOL     OW87395   9.523   0.084  10.384
61874SOL    HW187396   9.477   0.159  10.345
61874SOL    HW287397   9.517   0.100  10.478
61875SOL     OW87398  11.225  11.413   9.005
61875SOL    HW187399  11.279  11.477   9.052
61875SOL    HW287400  11.225  11.336   9.062
61876SOL     OW87401   5.868   6.087  14.226
61876SOL    HW187402   5.881   6.019  14.160
61876SOL    HW287403   5.955   6.125  14.239
61877SOL     OW87404   9.684  13.689   2.916
61877SOL    HW187405   9.619  13.676   2.847
61877SOL    HW287406   9.736  13.609   2.916
61878SOL     OW87407   0.399  10.997   8.221
61878SOL    HW187408   0.426  11.075   8.174
61878SOL    HW287409   0.468  10.933   8.204
61879SOL     OW87410   8.252   5.414   0.302
61879SOL    HW187411   8.215   5.493   0.263
61879SOL    HW287412   8.338   5.405   0.260
61880SOL     OW87413   5.691  14.860  14.605
61880SOL    HW187414   5.770  14.838  14.555
61880SOL    HW287415   5.622  14.865  14.539
61881SOL     OW87416  12.289   8.912   5.449
61881SOL    HW187417  12.285   8.868   5.534
61881SOL    HW287418  12.251   8.998   5.466
61882SOL     OW87419   1.411   4.367   7.411
61882SOL    HW187420   1.378   4.347   7.324
61882SOL    HW287421   1.496   4.322   7.416
61883SOL     OW87422  14.821   1.972   3.258
61883SOL    HW187423  14.835   2.048   3.313
61883SOL    HW287424  14.747   1.926   3.297
61884SOL     OW87425   8.558  14.037   3.231
61884SOL    HW187426   8.543  14.051   3.138
61884SOL    HW287427   8.638  14.086   3.250
61885SOL     OW87428  14.170   2.738   7.822
61885SOL    HW187429  14.169   2.830   7.848
61885SOL    HW287430  14.113   2.694   7.885
61886SOL     OW87431   3.625   8.487   3.379
61886SOL    HW187432   3.531   8.483   3.394
61886SOL    HW287433   3.664   8.481   3.467
61887SOL     OW87434   5.832   6.641   8.170
61887SOL    HW187435   5.811   6.673   8.082
61887SOL    HW287436   5.784   6.700   8.229
61888SOL     OW87437  10.260  13.726  13.544
61888SOL    HW187438  10.206  13.698  13.618
61888SOL    HW287439  10.199  13.735  13.471
61889SOL     OW87440   5.648   5.673   4.310
61889SOL    HW187441   5.686   5.592   4.278
61889SOL    HW287442   5.574   5.646   4.364
61890SOL     OW87443   5.373   6.156   5.351
61890SOL    HW187444   5.323   6.092   5.401
61890SOL    HW287445   5.355   6.135   5.259
61891SOL     OW87446   9.279  10.722  11.415
61891SOL    HW187447   9.189  10.731  11.446
61891SOL    HW287448   9.316  10.810  11.425
61892SOL     OW87449  14.063   7.325   9.872
61892SOL    HW187450  14.084   7.299   9.782
61892SOL    HW287451  13.976   7.289   9.888
61893SOL     OW87452  13.528  12.036  11.856
61893SOL    HW187453  13.465  12.031  11.783
61893SOL    HW287454  13.612  12.054  11.813
61894SOL     OW87455   3.807  11.558  10.996
61894SOL    HW187456   3.864  11.567  10.920
61894SOL    HW287457   3.733  11.617  10.977
61895SOL     OW87458  14.613  14.765  12.254
61895SOL    HW187459  14.596  14.730  12.342
61895SOL    HW287460  14.672  14.703  12.214
61896SOL     OW87461   3.120  12.002   0.203
61896SOL    HW187462   3.105  12.065   0.133
61896SOL    HW287463   3.033  11.970   0.226
61897SOL     OW87464   3.456  12.804   0.091
61897SOL    HW187465   3.416  12.848   0.016
61897SOL    HW287466   3.404  12.833   0.166
61898SOL     OW87467   1.354   1.986   6.467
61898SOL    HW187468   1.289   1.924   6.436
61898SOL    HW287469   1.347   2.060   6.407
61899SOL     OW87470   9.189  12.227  10.552
61899SOL    HW187471   9.142  12.258  10.630
61899SOL    HW287472   9.279  12.215  10.582
61900SOL     OW87473  11.879  14.175   4.679
61900SOL    HW187474  11.831  14.216   4.751
61900SOL    HW287475  11.812  14.153   4.614
61901SOL     OW87476   1.536  11.732  14.507
61901SOL    HW187477   1.544  11.814  14.555
61901SOL    HW287478   1.544  11.757  14.415
61902SOL     OW87479   7.103  10.012   1.065
61902SOL    HW187480   7.042   9.940   1.082
61902SOL    HW287481   7.118  10.052   1.151
61903SOL     OW87482   0.056   7.870   4.544
61903SOL    HW187483   0.130   7.929   4.531
61903SOL    HW287484   0.031   7.883   4.636
61904SOL     OW87485   9.874  11.128   4.548
61904SOL    HW187486   9.902  11.173   4.468
61904SOL    HW287487   9.845  11.198   4.606
61905SOL     OW87488   9.093   8.187   9.648
61905SOL    HW187489   9.035   8.132   9.595
61905SOL    HW287490   9.124   8.254   9.587
61906SOL     OW87491   0.850   3.457  11.702
61906SOL    HW187492   0.876   3.441  11.792
61906SOL    HW287493   0.824   3.550  11.700
61907SOL     OW87494  10.650   5.093  12.772
61907SOL    HW187495  10.585   5.055  12.713
61907SOL    HW287496  10.734   5.062  12.737
61908SOL     OW87497   6.206  14.824  14.509
61908SOL    HW187498   6.260  14.821  14.431
61908SOL    HW287499   6.268  14.827  14.582
61909SOL     OW87500   0.697   7.160   4.842
61909SOL    HW187501   0.759   7.168   4.915
61909SOL    HW287502   0.675   7.251   4.819
61910SOL     OW87503   3.222  13.791   9.540
61910SOL    HW187504   3.275  13.743   9.603
61910SOL    HW287505   3.153  13.730   9.513
61911SOL     OW87506   1.966   7.280   9.434
61911SOL    HW187507   1.871   7.266   9.432
61911SOL    HW287508   2.004   7.192   9.431
61912SOL     OW87509   0.401   6.712  10.214
61912SOL    HW187510   0.366   6.662  10.288
61912SOL    HW287511   0.481   6.753  10.249
61913SOL     OW87512   2.253   0.473  13.351
61913SOL    HW187513   2.222   0.385  13.371
61913SOL    HW287514   2.173   0.521  13.327
61914SOL     OW87515  13.129  13.646   4.610
61914SOL    HW187516  13.134  13.735   4.645
61914SOL    HW287517  13.093  13.657   4.522
61915SOL     OW87518   4.683  13.898   7.541
61915SOL    HW187519   4.760  13.848   7.566
61915SOL    HW287520   4.644  13.925   7.624
61916SOL     OW87521  10.933  14.802   0.248
61916SOL    HW187522  10.975  14.863   0.308
61916SOL    HW287523  10.867  14.854   0.202
61917SOL     OW87524   6.553  14.164   1.752
61917SOL    HW187525   6.543  14.148   1.658
61917SOL    HW287526   6.512  14.089   1.794
61918SOL     OW87527  13.200  13.737   0.503
61918SOL    HW187528  13.194  13.748   0.598
61918SOL    HW287529  13.246  13.654   0.491
61919SOL     OW87530   6.112   5.984  13.593
61919SOL    HW187531   6.101   6.071  13.632
61919SOL    HW287532   6.062   5.987  13.512
61920SOL     OW87533  12.022  11.660  14.742
61920SOL    HW187534  12.037  11.701  14.657
61920SOL    HW287535  11.949  11.709  14.780
61921SOL     OW87536   8.217   9.666   8.218
61921SOL    HW187537   8.197   9.678   8.310
61921SOL    HW287538   8.132   9.657   8.175
61922SOL     OW87539  13.499   4.168   4.864
61922SOL    HW187540  13.413   4.174   4.824
61922SOL    HW287541  13.495   4.228   4.939
61923SOL     OW87542  10.292   4.657  12.836
61923SOL    HW187543  10.295   4.612  12.751
61923SOL    HW287544  10.371   4.628  12.881
61924SOL     OW87545   0.709   7.507   4.317
61924SOL    HW187546   0.678   7.536   4.402
61924SOL    HW287547   0.634   7.515   4.259
61925SOL     OW87548  12.885  14.666  13.868
61925SOL    HW187549  12.925  14.612  13.936
61925SOL    HW287550  12.811  14.709  13.911
61926SOL     OW87551  12.339  12.258  14.221
61926SOL    HW187552  12.404  12.324  14.244
61926SOL    HW287553  12.314  12.279  14.131
61927SOL     OW87554  11.877   9.442  11.937
61927SOL    HW187555  11.814   9.513  11.930
61927SOL    HW287556  11.916   9.435  11.849
61928SOL     OW87557   0.865   5.922   4.339
61928SOL    HW187558   0.818   6.005   4.344
61928SOL    HW287559   0.864   5.899   4.246
61929SOL     OW87560   9.325   4.009   2.804
61929SOL    HW187561   9.271   3.977   2.732
61929SOL    HW287562   9.407   4.036   2.763
61930SOL     OW87563  11.879   7.435   9.034
61930SOL    HW187564  11.914   7.363   9.086
61930SOL    HW287565  11.785   7.415   9.026
61931SOL     OW87566   4.623  12.773   5.923
61931SOL    HW187567   4.554  12.839   5.914
61931SOL    HW287568   4.664  12.793   6.008
61932SOL     OW87569   8.777   5.186   2.957
61932SOL    HW187570   8.686   5.214   2.964
61932SOL    HW287571   8.827   5.258   2.995
61933SOL     OW87572  10.930   1.754   6.794
61933SOL    HW187573  10.996   1.686   6.812
61933SOL    HW287574  10.866   1.745   6.865
61934SOL     OW87575   2.194   6.695   4.940
61934SOL    HW187576   2.241   6.669   5.020
61934SOL    HW287577   2.228   6.782   4.920
61935SOL     OW87578   4.681  14.069   5.803
61935SOL    HW187579   4.609  14.080   5.865
61935SOL    HW287580   4.759  14.098   5.851
61936SOL     OW87581  10.492   2.198  14.189
61936SOL    HW187582  10.470   2.215  14.281
61936SOL    HW287583  10.529   2.280  14.157
61937SOL     OW87584  11.211   1.760   1.414
61937SOL    HW187585  11.214   1.704   1.337
61937SOL    HW287586  11.117   1.773   1.430
61938SOL     OW87587  11.975   2.273   2.366
61938SOL    HW187588  12.014   2.230   2.442
61938SOL    HW287589  12.003   2.219   2.292
61939SOL     OW87590   9.345  10.996  11.407
61939SOL    HW187591   9.301  10.994  11.322
61939SOL    HW287592   9.283  11.041  11.465
61940SOL     OW87593   2.320  12.245   3.281
61940SOL    HW187594   2.407  12.276   3.304
61940SOL    HW287595   2.262  12.292   3.342
61941SOL     OW87596  12.918   9.191  10.037
61941SOL    HW187597  12.849   9.128  10.059
61941SOL    HW287598  12.955   9.158   9.955
61942SOL     OW87599  13.765   5.833   9.167
61942SOL    HW187600  13.766   5.754   9.221
61942SOL    HW287601  13.694   5.886   9.203
61943SOL     OW87602   4.752  12.189   7.722
61943SOL    HW187603   4.827  12.245   7.738
61943SOL    HW287604   4.765  12.156   7.633
61944SOL     OW87605  13.280   4.493  12.346
61944SOL    HW187606  13.311   4.463  12.261
61944SOL    HW287607  13.342   4.561  12.372
61945SOL     OW87608  11.964   9.001   7.816
61945SOL    HW187609  12.021   8.926   7.802
61945SOL    HW287610  11.915   9.010   7.735
61946SOL     OW87611   1.064  14.465   9.299
61946SOL    HW187612   1.148  14.511   9.302
61946SOL    HW287613   1.074  14.393   9.360
61947SOL     OW87614   8.991   5.131   0.774
61947SOL    HW187615   8.969   5.151   0.683
61947SOL    HW287616   8.925   5.179   0.825
61948SOL     OW87617  12.293   4.358   0.399
61948SOL    HW187618  12.386   4.351   0.379
61948SOL    HW287619  12.287   4.340   0.493
61949SOL     OW87620   4.362   0.286   3.258
61949SOL    HW187621   4.277   0.257   3.290
61949SOL    HW287622   4.426   0.229   3.302
61950SOL     OW87623   6.893   4.709   0.773
61950SOL    HW187624   6.858   4.620   0.775
61950SOL    HW287625   6.897   4.731   0.680
61951SOL     OW87626  12.916   4.948   4.359
61951SOL    HW187627  13.002   4.985   4.376
61951SOL    HW287628  12.885   4.916   4.444
61952SOL     OW87629   3.837  11.409   1.086
61952SOL    HW187630   3.924  11.418   1.048
61952SOL    HW287631   3.811  11.498   1.109
61953SOL     OW87632   1.494   1.970   9.926
61953SOL    HW187633   1.543   1.998   9.849
61953SOL    HW287634   1.496   2.046   9.984
61954SOL     OW87635   4.367  10.570  14.136
61954SOL    HW187636   4.463  10.567  14.136
61954SOL    HW287637   4.345  10.595  14.047
61955SOL     OW87638   3.601   5.205  13.430
61955SOL    HW187639   3.645   5.285  13.401
61955SOL    HW287640   3.671   5.140  13.436
61956SOL     OW87641  12.439  12.028  12.876
61956SOL    HW187642  12.495  11.979  12.937
61956SOL    HW287643  12.464  11.996  12.790
61957SOL     OW87644  12.877   0.413  14.198
61957SOL    HW187645  12.922   0.497  14.189
61957SOL    HW287646  12.948   0.349  14.209
61958SOL     OW87647   6.752  14.477  14.700
61958SOL    HW187648   6.659  14.495  14.687
61958SOL    HW287649   6.757  14.382  14.706
61959SOL     OW87650  14.341  13.092   3.800
61959SOL    HW187651  14.430  13.103   3.766
61959SOL    HW287652  14.292  13.057   3.727
61960SOL     OW87653   7.367   9.829   7.303
61960SOL    HW187654   7.429   9.837   7.230
61960SOL    HW287655   7.323   9.745   7.289
61961SOL     OW87656   2.118  14.880   7.852
61961SOL    HW187657   2.027  14.851   7.863
61961SOL    HW287658   2.140   0.039   7.936
61962SOL     OW87659  11.171   4.326  13.369
61962SOL    HW187660  11.250   4.376  13.389
61962SOL    HW287661  11.166   4.327  13.273
61963SOL     OW87662   3.259   4.441   0.644
61963SOL    HW187663   3.239   4.430   0.737
61963SOL    HW287664   3.252   4.536   0.630
61964SOL     OW87665   5.922   8.465   3.693
61964SOL    HW187666   5.936   8.394   3.756
61964SOL    HW287667   5.830   8.457   3.668
61965SOL     OW87668   9.107  11.679   2.690
61965SOL    HW187669   9.190  11.704   2.649
61965SOL    HW287670   9.046  11.670   2.617
61966SOL     OW87671  12.390  12.360   8.315
61966SOL    HW187672  12.347  12.289   8.363
61966SOL    HW287673  12.462  12.317   8.269
61967SOL     OW87674  11.697   0.453   4.087
61967SOL    HW187675  11.612   0.424   4.122
61967SOL    HW287676  11.735   0.504   4.158
61968SOL     OW87677  11.707   3.613   7.955
61968SOL    HW187678  11.703   3.639   8.047
61968SOL    HW287679  11.785   3.656   7.921
61969SOL     OW87680   3.604  12.890  11.366
61969SOL    HW187681   3.666  12.921  11.431
61969SOL    HW287682   3.518  12.915  11.400
61970SOL     OW87683   0.565   6.401   8.943
61970SOL    HW187684   0.494   6.461   8.920
61970SOL    HW287685   0.607   6.380   8.860
61971SOL     OW87686  11.888  10.740  13.181
61971SOL    HW187687  11.866  10.718  13.272
61971SOL    HW287688  11.864  10.662  13.131
61972SOL     OW87689  12.565   0.639   6.236
61972SOL    HW187690  12.647   0.636   6.286
61972SOL    HW287691  12.502   0.676   6.297
61973SOL     OW87692   6.696   4.309   6.250
61973SOL    HW187693   6.726   4.218   6.249
61973SOL    HW287694   6.607   4.305   6.286
61974SOL     OW87695  10.800  14.689   5.912
61974SOL    HW187696  10.764  14.652   5.992
61974SOL    HW287697  10.794  14.618   5.848
61975SOL     OW87698   1.667   2.830  13.553
61975SOL    HW187699   1.676   2.879  13.635
61975SOL    HW287700   1.752   2.839  13.510
61976SOL     OW87701   6.392  12.757  11.535
61976SOL    HW187702   6.437  12.829  11.489
61976SOL    HW287703   6.322  12.800  11.584
61977SOL     OW87704   5.196   8.981  13.660
61977SOL    HW187705   5.204   8.909  13.723
61977SOL    HW287706   5.190   8.938  13.575
61978SOL     OW87707   4.844   5.556  10.877
61978SOL    HW187708   4.773   5.618  10.862
61978SOL    HW287709   4.845   5.501  10.799
61979SOL     OW87710   6.572   1.942   1.164
61979SOL    HW187711   6.580   1.976   1.075
61979SOL    HW287712   6.500   1.992   1.203
61980SOL     OW87713   3.971  13.640   4.331
61980SOL    HW187714   3.988  13.597   4.415
61980SOL    HW287715   3.934  13.570   4.276
61981SOL     OW87716   2.976   2.452   2.884
61981SOL    HW187717   3.063   2.483   2.909
61981SOL    HW287718   2.917   2.498   2.943
61982SOL     OW87719   5.901   3.746   7.581
61982SOL    HW187720   5.891   3.655   7.553
61982SOL    HW287721   5.812   3.782   7.580
61983SOL     OW87722   4.556  14.246   1.207
61983SOL    HW187723   4.595  14.188   1.142
61983SOL    HW287724   4.629  14.298   1.241
61984SOL     OW87725   8.287   2.314  10.761
61984SOL    HW187726   8.339   2.360  10.827
61984SOL    HW287727   8.295   2.221  10.785
61985SOL     OW87728   2.248   6.921   2.448
61985SOL    HW187729   2.156   6.927   2.424
61985SOL    HW287730   2.263   6.828   2.463
61986SOL     OW87731   3.958  12.930   4.626
61986SOL    HW187732   4.033  12.944   4.567
61986SOL    HW287733   3.915  12.852   4.591
61987SOL     OW87734   1.270   6.899   6.544
61987SOL    HW187735   1.180   6.909   6.515
61987SOL    HW287736   1.315   6.977   6.512
61988SOL     OW87737   3.891  11.907   0.436
61988SOL    HW187738   3.974  11.896   0.390
61988SOL    HW287739   3.858  11.818   0.447
61989SOL     OW87740  11.383   7.245   4.754
61989SOL    HW187741  11.476   7.221   4.749
61989SOL    HW287742  11.368   7.263   4.847
61990SOL     OW87743  14.565   9.303   5.232
61990SOL    HW187744  14.487   9.324   5.282
61990SOL    HW287745  14.633   9.289   5.297
61991SOL     OW87746   8.234  10.426   7.291
61991SOL    HW187747   8.196  10.471   7.216
61991SOL    HW287748   8.168  10.432   7.359
61992SOL     OW87749   5.604   8.234   1.377
61992SOL    HW187750   5.680   8.184   1.407
61992SOL    HW287751   5.556   8.174   1.321
61993SOL     OW87752  11.091  11.023   2.737
61993SOL    HW187753  11.087  10.979   2.822
61993SOL    HW287754  11.046  11.106   2.751
61994SOL     OW87755  11.481   3.300  10.480
61994SOL    HW187756  11.487   3.389  10.445
61994SOL    HW287757  11.511   3.244  10.408
61995SOL     OW87758   0.966   8.001   1.756
61995SOL    HW187759   0.919   7.974   1.677
61995SOL    HW287760   1.027   7.929   1.773
61996SOL     OW87761   4.869  13.207   0.885
61996SOL    HW187762   4.900  13.291   0.920
61996SOL    HW287763   4.829  13.229   0.802
61997SOL     OW87764   7.177  14.059   5.892
61997SOL    HW187765   7.212  13.970   5.888
61997SOL    HW287766   7.254  14.114   5.907
61998SOL     OW87767  13.707  10.422  10.736
61998SOL    HW187768  13.687  10.469  10.655
61998SOL    HW287769  13.630  10.435  10.791
61999SOL     OW87770  11.374  10.852   6.840
61999SOL    HW187771  11.455  10.817   6.804
61999SOL    HW287772  11.389  10.947   6.847
62000SOL     OW87773   7.099   2.148   4.909
62000SOL    HW187774   7.112   2.054   4.899
62000SOL    HW287775   7.109   2.183   4.821
62001SOL     OW87776  13.561   1.430  11.659
62001SOL    HW187777  13.516   1.445  11.742
62001SOL    HW287778  13.636   1.489  11.662
62002SOL     OW87779   9.204   0.436   8.263
62002SOL    HW187780   9.298   0.455   8.261
62002SOL    HW287781   9.189   0.400   8.351
62003SOL     OW87782   0.811   6.863  13.291
62003SOL    HW187783   0.870   6.795  13.257
62003SOL    HW287784   0.810   6.848  13.385
62004SOL     OW87785   7.699   7.485  14.288
62004SOL    HW187786   7.794   7.498  14.291
62004SOL    HW287787   7.686   7.418  14.222
62005SOL     OW87788   0.576  11.063   7.402
62005SOL    HW187789   0.607  11.143   7.361
62005SOL    HW287790   0.564  11.002   7.330
62006SOL     OW87791   9.370   8.563   4.026
62006SOL    HW187792   9.460   8.531   4.019
62006SOL    HW287793   9.323   8.496   4.075
62007SOL     OW87794   1.180  12.458   5.254
62007SOL    HW187795   1.232  12.400   5.310
62007SOL    HW287796   1.093  12.419   5.254
62008SOL     OW87797   9.255   2.762   6.914
62008SOL    HW187798   9.236   2.728   6.827
62008SOL    HW287799   9.173   2.753   6.962
62009SOL     OW87800  12.491   9.752  11.054
62009SOL    HW187801  12.440   9.719  11.128
62009SOL    HW287802  12.434   9.817  11.013
62010SOL     OW87803   2.109  10.849   0.121
62010SOL    HW187804   2.084  10.930   0.077
62010SOL    HW287805   2.158  10.878   0.198
62011SOL     OW87806  11.985  10.999   5.952
62011SOL    HW187807  11.920  10.947   5.998
62011SOL    HW287808  11.959  11.090   5.968
62012SOL     OW87809   4.583   4.000  12.030
62012SOL    HW187810   4.625   3.950  12.101
62012SOL    HW287811   4.607   3.953  11.950
62013SOL     OW87812   2.954  13.897   0.047
62013SOL    HW187813   2.924  13.872  14.841
62013SOL    HW287814   3.042  13.859   0.054
62014SOL     OW87815   4.247   5.959  14.448
62014SOL    HW187816   4.184   5.893  14.419
62014SOL    HW287817   4.236   5.962  14.543
62015SOL     OW87818   6.504   0.228  12.770
62015SOL    HW187819   6.539   0.247  12.683
62015SOL    HW287820   6.423   0.180  12.753
62016SOL     OW87821   0.421  13.498   9.772
62016SOL    HW187822   0.403  13.570   9.712
62016SOL    HW287823   0.475  13.438   9.720
62017SOL     OW87824  11.794   8.333   9.095
62017SOL    HW187825  11.890   8.337   9.089
62017SOL    HW287826  11.765   8.420   9.067
62018SOL     OW87827   5.946   5.053   0.101
62018SOL    HW187828   5.932   5.147   0.104
62018SOL    HW287829   5.861   5.016   0.076
62019SOL     OW87830   5.810   4.839   0.899
62019SOL    HW187831   5.871   4.872   0.965
62019SOL    HW287832   5.736   4.899   0.902
62020SOL     OW87833   6.173  11.921   6.447
62020SOL    HW187834   6.162  11.853   6.380
62020SOL    HW287835   6.085  11.934   6.483
62021SOL     OW87836  14.033   1.455   5.090
62021SOL    HW187837  13.957   1.503   5.123
62021SOL    HW287838  14.063   1.505   5.015
62022SOL     OW87839   8.240  13.620   3.222
62022SOL    HW187840   8.165  13.671   3.253
62022SOL    HW287841   8.217  13.596   3.132
62023SOL     OW87842   1.693   1.380  14.253
62023SOL    HW187843   1.753   1.308  14.232
62023SOL    HW287844   1.609   1.336  14.270
62024SOL     OW87845  11.586   6.043   9.828
62024SOL    HW187846  11.625   6.062   9.914
62024SOL    HW287847  11.586   6.128   9.783
62025SOL     OW87848  14.245   9.549   0.147
62025SOL    HW187849  14.242   9.516   0.058
62025SOL    HW287850  14.154   9.549   0.176
62026SOL     OW87851   0.461  12.097   6.930
62026SOL    HW187852   0.383  12.046   6.954
62026SOL    HW287853   0.495  12.129   7.014
62027SOL     OW87854   6.600   0.709   8.525
62027SOL    HW187855   6.600   0.617   8.497
62027SOL    HW287856   6.637   0.756   8.450
62028SOL     OW87857   7.149  10.687   6.552
62028SOL    HW187858   7.141  10.738   6.471
62028SOL    HW287859   7.069  10.634   6.555
62029SOL     OW87860   2.995  13.630  11.932
62029SOL    HW187861   3.005  13.552  11.986
62029SOL    HW287862   3.081  13.643  11.892
62030SOL     OW87863   9.239   5.739   7.860
62030SOL    HW187864   9.224   5.815   7.915
62030SOL    HW287865   9.323   5.703   7.890
62031SOL     OW87866   4.627   9.302  13.189
62031SOL    HW187867   4.596   9.350  13.112
62031SOL    HW287868   4.661   9.369  13.248
62032SOL     OW87869  11.175   3.396  10.884
62032SOL    HW187870  11.197   3.384  10.791
62032SOL    HW287871  11.176   3.491  10.897
62033SOL     OW87872   5.323  14.633   5.675
62033SOL    HW187873   5.359  14.629   5.586
62033SOL    HW287874   5.399  14.648   5.731
62034SOL     OW87875   8.189  12.681   4.002
62034SOL    HW187876   8.250  12.714   3.935
62034SOL    HW287877   8.236  12.608   4.043
62035SOL     OW87878  13.853   7.218  10.674
62035SOL    HW187879  13.861   7.184  10.585
62035SOL    HW287880  13.941   7.209  10.711
62036SOL     OW87881  12.297  14.016   7.290
62036SOL    HW187882  12.294  14.095   7.343
62036SOL    HW287883  12.217  14.020   7.237
62037SOL     OW87884   1.877   2.348   8.788
62037SOL    HW187885   1.858   2.254   8.786
62037SOL    HW287886   1.825   2.384   8.716
62038SOL     OW87887   7.720   8.211   1.263
62038SOL    HW187888   7.802   8.164   1.256
62038SOL    HW287889   7.724   8.277   1.194
62039SOL     OW87890   5.818  14.803   9.044
62039SOL    HW187891   5.828   0.000   8.991
62039SOL    HW287892   5.766  14.831   9.120
62040SOL     OW87893  11.047   3.852   9.293
62040SOL    HW187894  11.096   3.904   9.230
62040SOL    HW287895  10.966   3.900   9.307
62041SOL     OW87896   4.828   7.559  11.345
62041SOL    HW187897   4.779   7.569  11.427
62041SOL    HW287898   4.881   7.638  11.340
62042SOL     OW87899   5.961  10.343  12.695
62042SOL    HW187900   5.911  10.408  12.746
62042SOL    HW287901   5.915  10.260  12.710
62043SOL     OW87902  14.306  10.634   8.633
62043SOL    HW187903  14.377  10.633   8.697
62043SOL    HW287904  14.350  10.636   8.548
62044SOL     OW87905   2.826   4.889   0.906
62044SOL    HW187906   2.760   4.833   0.864
62044SOL    HW287907   2.909   4.862   0.866
62045SOL     OW87908   5.009   9.897   6.617
62045SOL    HW187909   5.105   9.895   6.620
62045SOL    HW287910   4.982   9.836   6.685
62046SOL     OW87911   6.009  13.869   2.184
62046SOL    HW187912   5.990  13.858   2.278
62046SOL    HW287913   5.979  13.958   2.165
62047SOL     OW87914  12.326   6.470   1.400
62047SOL    HW187915  12.316   6.380   1.368
62047SOL    HW287916  12.237   6.507   1.396
62048SOL     OW87917   4.843   5.799  10.311
62048SOL    HW187918   4.788   5.754  10.246
62048SOL    HW287919   4.930   5.760  10.299
62049SOL     OW87920   8.091   2.050   3.705
62049SOL    HW187921   8.018   1.991   3.688
62049SOL    HW287922   8.168   1.993   3.707
62050SOL     OW87923   7.716   0.459  11.478
62050SOL    HW187924   7.750   0.401  11.411
62050SOL    HW287925   7.671   0.401  11.539
62051SOL     OW87926   7.000   8.080  10.265
62051SOL    HW187927   7.050   8.027  10.203
62051SOL    HW287928   7.053   8.079  10.345
62052SOL     OW87929   0.852   0.343   5.245
62052SOL    HW187930   0.900   0.291   5.181
62052SOL    HW287931   0.872   0.434   5.222
62053SOL     OW87932   5.788   9.352   2.164
62053SOL    HW187933   5.839   9.425   2.200
62053SOL    HW287934   5.708   9.351   2.217
62054SOL     OW87935   5.186  13.980  13.205
62054SOL    HW187936   5.134  13.988  13.285
62054SOL    HW287937   5.226  13.893  13.211
62055SOL     OW87938   5.194   6.485  12.808
62055SOL    HW187939   5.156   6.427  12.874
62055SOL    HW287940   5.267   6.528  12.853
62056SOL     OW87941   5.811   4.276  11.698
62056SOL    HW187942   5.773   4.350  11.746
62056SOL    HW287943   5.738   4.214  11.688
62057SOL     OW87944   7.811   3.676   5.781
62057SOL    HW187945   7.741   3.689   5.846
62057SOL    HW287946   7.890   3.667   5.834
62058SOL     OW87947   6.708   2.915   5.542
62058SOL    HW187948   6.786   2.900   5.488
62058SOL    HW287949   6.638   2.933   5.479
62059SOL     OW87950   7.572  13.391  14.131
62059SOL    HW187951   7.665  13.379  14.109
62059SOL    HW287952   7.556  13.484  14.115
62060SOL     OW87953  14.013  14.036   8.340
62060SOL    HW187954  14.068  14.107   8.371
62060SOL    HW287955  13.927  14.054   8.379
62061SOL     OW87956   9.647   1.515  10.351
62061SOL    HW187957   9.721   1.455  10.348
62061SOL    HW287958   9.603   1.503  10.267
62062SOL     OW87959   6.375   3.784  11.132
62062SOL    HW187960   6.444   3.851  11.131
62062SOL    HW287961   6.380   3.744  11.045
62063SOL     OW87962   2.888   5.250   2.024
62063SOL    HW187963   2.896   5.306   2.100
62063SOL    HW287964   2.868   5.310   1.952
62064SOL     OW87965   0.826   3.093   8.802
62064SOL    HW187966   0.788   3.008   8.785
62064SOL    HW287967   0.783   3.123   8.883
62065SOL     OW87968   3.404   2.965   3.435
62065SOL    HW187969   3.373   3.056   3.435
62065SOL    HW287970   3.328   2.915   3.405
62066SOL     OW87971   9.820  14.523  14.147
62066SOL    HW187972   9.744  14.471  14.121
62066SOL    HW287973   9.799  14.612  14.116
62067SOL     OW87974  14.068  11.984   1.521
62067SOL    HW187975  14.160  12.007   1.532
62067SOL    HW287976  14.067  11.925   1.446
62068SOL     OW87977   6.495   5.720   2.766
62068SOL    HW187978   6.531   5.646   2.814
62068SOL    HW287979   6.422   5.684   2.716
62069SOL     OW87980  11.710   3.298   5.833
62069SOL    HW187981  11.656   3.252   5.897
62069SOL    HW287982  11.647   3.330   5.768
62070SOL     OW87983   3.445   3.013   2.477
62070SOL    HW187984   3.449   2.948   2.548
62070SOL    HW287985   3.380   3.076   2.507
62071SOL     OW87986   0.928   0.124   0.518
62071SOL    HW187987   0.941   0.107   0.425
62071SOL    HW287988   0.835   0.106   0.534
62072SOL     OW87989  12.311   8.206   9.621
62072SOL    HW187990  12.247   8.251   9.566
62072SOL    HW287991  12.270   8.202   9.707
62073SOL     OW87992   4.043   0.023   2.263
62073SOL    HW187993   3.971   0.049   2.320
62073SOL    HW287994   4.022  14.815   2.237
62074SOL     OW87995   6.250   1.980   8.533
62074SOL    HW187996   6.282   1.929   8.458
62074SOL    HW287997   6.222   2.064   8.495
62075SOL     OW87998   5.938  14.636   1.807
62075SOL    HW187999   5.999  14.642   1.734
62075SOL    HW288000   5.956  14.713   1.860
62076SOL     OW88001   8.902  11.676  14.030
62076SOL    HW188002   8.920  11.705  13.941
62076SOL    HW288003   8.954  11.735  14.085
62077SOL     OW88004   9.413   5.727  10.669
62077SOL    HW188005   9.338   5.670  10.681
62077SOL    HW288006   9.451   5.738  10.756
62078SOL     OW88007   9.791  14.571   3.432
62078SOL    HW188008   9.710  14.543   3.475
62078SOL    HW288009   9.770  14.571   3.339
62079SOL     OW88010   9.407  10.044   9.180
62079SOL    HW188011   9.469  10.105   9.140
62079SOL    HW288012   9.461   9.969   9.207
62080SOL     OW88013   0.911   0.721  14.828
62080SOL    HW188014   0.875   0.640  14.792
62080SOL    HW288015   0.982   0.744  14.768
62081SOL     OW88016  14.229  13.727   4.462
62081SOL    HW188017  14.274  13.747   4.380
62081SOL    HW288018  14.239  13.806   4.515
62082SOL     OW88019   8.826   4.331  13.617
62082SOL    HW188020   8.909   4.375  13.634
62082SOL    HW288021   8.762   4.401  13.614
62083SOL     OW88022  14.478   6.903  10.232
62083SOL    HW188023  14.521   6.961  10.169
62083SOL    HW288024  14.406   6.956  10.267
62084SOL     OW88025   8.098  11.155   5.646
62084SOL    HW188026   8.076  11.100   5.571
62084SOL    HW288027   8.150  11.227   5.609
62085SOL     OW88028   0.287   3.208   1.606
62085SOL    HW188029   0.231   3.259   1.548
62085SOL    HW288030   0.228   3.171   1.671
62086SOL     OW88031  12.754  10.566  14.399
62086SOL    HW188032  12.825  10.597  14.343
62086SOL    HW288033  12.719  10.489  14.353
62087SOL     OW88034  10.981   9.423   5.265
62087SOL    HW188035  10.897   9.447   5.305
62087SOL    HW288036  10.956   9.380   5.183
62088SOL     OW88037   6.503  10.014   3.613
62088SOL    HW188038   6.466  10.038   3.698
62088SOL    HW288039   6.596  10.001   3.629
62089SOL     OW88040   7.444   2.348   5.950
62089SOL    HW188041   7.444   2.415   6.019
62089SOL    HW288042   7.416   2.395   5.871
62090SOL     OW88043   1.606   2.689   7.088
62090SOL    HW188044   1.519   2.693   7.049
62090SOL    HW288045   1.665   2.714   7.017
62091SOL     OW88046  13.464   1.213   3.147
62091SOL    HW188047  13.471   1.218   3.242
62091SOL    HW288048  13.383   1.259   3.126
62092SOL     OW88049   7.178   7.250   7.835
62092SOL    HW188050   7.124   7.193   7.890
62092SOL    HW288051   7.184   7.203   7.751
62093SOL     OW88052   8.025   6.691   7.083
62093SOL    HW188053   8.019   6.767   7.024
62093SOL    HW288054   7.982   6.720   7.163
62094SOL     OW88055   9.345   5.706  12.618
62094SOL    HW188056   9.342   5.613  12.595
62094SOL    HW288057   9.257   5.726  12.651
62095SOL     OW88058   8.036  10.187   1.003
62095SOL    HW188059   7.988  10.108   1.028
62095SOL    HW288060   8.092  10.159   0.932
62096SOL     OW88061  11.367   7.743  10.873
62096SOL    HW188062  11.287   7.735  10.820
62096SOL    HW288063  11.383   7.837  10.878
62097SOL     OW88064  12.185   0.988   8.303
62097SOL    HW188065  12.136   0.970   8.223
62097SOL    HW288066  12.190   1.084   8.307
62098SOL     OW88067   5.779   6.919   5.617
62098SOL    HW188068   5.786   6.926   5.712
62098SOL    HW288069   5.855   6.866   5.592
62099SOL     OW88070   1.980  10.692   4.424
62099SOL    HW188071   1.981  10.776   4.378
62099SOL    HW288072   1.951  10.629   4.358
62100SOL     OW88073   2.825  14.164   7.899
62100SOL    HW188074   2.859  14.247   7.931
62100SOL    HW288075   2.845  14.101   7.969
62101SOL     OW88076   8.167  13.553   5.470
62101SOL    HW188077   8.237  13.510   5.420
62101SOL    HW288078   8.092  13.552   5.411
62102SOL     OW88079  12.787   5.656   5.229
62102SOL    HW188080  12.875   5.629   5.204
62102SOL    HW288081  12.737   5.654   5.147
62103SOL     OW88082   2.916   0.996   5.762
62103SOL    HW188083   2.916   0.997   5.857
62103SOL    HW288084   3.007   0.978   5.738
62104SOL     OW88085   8.398  11.155  12.959
62104SOL    HW188086   8.391  11.250  12.964
62104SOL    HW288087   8.388  11.135  12.866
62105SOL     OW88088   6.470  13.673   0.842
62105SOL    HW188089   6.450  13.766   0.828
62105SOL    HW288090   6.423  13.628   0.772
62106SOL     OW88091   3.589  13.519  14.321
62106SOL    HW188092   3.659  13.538  14.384
62106SOL    HW288093   3.581  13.599  14.270
62107SOL     OW88094   0.763   9.811  10.963
62107SOL    HW188095   0.806   9.895  10.948
62107SOL    HW288096   0.696   9.830  11.028
62108SOL     OW88097   9.603  12.369  14.363
62108SOL    HW188098   9.565  12.436  14.420
62108SOL    HW288099   9.542  12.363  14.289
62109SOL     OW88100  14.315  13.392   7.357
62109SOL    HW188101  14.221  13.410   7.354
62109SOL    HW288102  14.355  13.468   7.315
62110SOL     OW88103  13.236  11.693   8.653
62110SOL    HW188104  13.290  11.616   8.637
62110SOL    HW288105  13.297  11.766   8.652
62111SOL     OW88106   5.642   8.948   9.653
62111SOL    HW188107   5.550   8.971   9.656
62111SOL    HW288108   5.678   8.984   9.735
62112SOL     OW88109   1.763   5.508   7.365
62112SOL    HW188110   1.735   5.419   7.383
62112SOL    HW288111   1.688   5.563   7.390
62113SOL     OW88112   0.175   3.482   2.231
62113SOL    HW188113   0.268   3.494   2.246
62113SOL    HW288114   0.140   3.571   2.224
62114SOL     OW88115   4.169   2.485   8.713
62114SOL    HW188116   4.166   2.580   8.702
62114SOL    HW288117   4.129   2.469   8.799
62115SOL     OW88118   4.561   4.421   9.370
62115SOL    HW188119   4.478   4.432   9.416
62115SOL    HW288120   4.624   4.400   9.440
62116SOL     OW88121   6.273   5.265   9.966
62116SOL    HW188122   6.239   5.176   9.965
62116SOL    HW288123   6.203   5.318   9.929
62117SOL     OW88124   3.930   3.716   7.898
62117SOL    HW188125   3.936   3.768   7.978
62117SOL    HW288126   3.976   3.768   7.832
62118SOL     OW88127   7.070   0.457   1.862
62118SOL    HW188128   6.978   0.438   1.849
62118SOL    HW288129   7.086   0.536   1.809
62119SOL     OW88130  12.374   7.497  13.973
62119SOL    HW188131  12.405   7.553  14.044
62119SOL    HW288132  12.441   7.429  13.965
62120SOL     OW88133  10.658   0.903  12.123
62120SOL    HW188134  10.739   0.854  12.139
62120SOL    HW288135  10.629   0.929  12.210
62121SOL     OW88136   4.195  12.431  10.930
62121SOL    HW188137   4.115  12.380  10.944
62121SOL    HW288138   4.194  12.450  10.836
62122SOL     OW88139  14.401   3.253   5.733
62122SOL    HW188140  14.490   3.230   5.704
62122SOL    HW288141  14.355   3.274   5.652
62123SOL     OW88142   2.518   2.225   1.210
62123SOL    HW188143   2.583   2.239   1.141
62123SOL    HW288144   2.441   2.273   1.179
62124SOL     OW88145   5.981  10.743   6.453
62124SOL    HW188146   5.886  10.756   6.454
62124SOL    HW288147   6.009  10.779   6.368
62125SOL     OW88148  12.745  14.402   4.236
62125SOL    HW188149  12.682  14.334   4.212
62125SOL    HW288150  12.819  14.388   4.177
62126SOL     OW88151   7.462  13.900   0.172
62126SOL    HW188152   7.494  13.982   0.137
62126SOL    HW288153   7.372  13.919   0.200
62127SOL     OW88154  11.978   1.495   7.496
62127SOL    HW188155  11.954   1.482   7.587
62127SOL    HW288156  11.979   1.407   7.458
62128SOL     OW88157  14.209   2.640   3.476
62128SOL    HW188158  14.180   2.723   3.513
62128SOL    HW288159  14.266   2.665   3.403
62129SOL     OW88160   4.949   9.804   0.340
62129SOL    HW188161   5.004   9.882   0.338
62129SOL    HW288162   4.968   9.763   0.424
62130SOL     OW88163   3.034  10.140   6.936
62130SOL    HW188164   2.949  10.154   6.978
62130SOL    HW288165   3.092  10.203   6.977
62131SOL     OW88166  12.983  12.027   7.477
62131SOL    HW188167  13.053  12.005   7.416
62131SOL    HW288168  13.021  12.009   7.564
62132SOL     OW88169   8.291   0.203  12.141
62132SOL    HW188170   8.251   0.268  12.083
62132SOL    HW288171   8.298   0.247  12.226
62133SOL     OW88172   6.992   0.805   4.646
62133SOL    HW188173   7.036   0.766   4.571
62133SOL    HW288174   7.062   0.839   4.701
62134SOL     OW88175   3.895   2.856  10.717
62134SOL    HW188176   3.954   2.837  10.644
62134SOL    HW288177   3.945   2.914  10.774
62135SOL     OW88178   2.378   4.027  13.085
62135SOL    HW188179   2.435   3.954  13.061
62135SOL    HW288180   2.308   4.024  13.020
62136SOL     OW88181   2.444   2.700   6.180
62136SOL    HW188182   2.507   2.678   6.112
62136SOL    HW288183   2.444   2.796   6.184
62137SOL     OW88184   4.527   5.727   9.633
62137SOL    HW188185   4.487   5.688   9.711
62137SOL    HW288186   4.572   5.805   9.665
62138SOL     OW88187  11.544   5.086   9.396
62138SOL    HW188188  11.480   5.152   9.368
62138SOL    HW288189  11.625   5.134   9.408
62139SOL     OW88190   8.828   3.958   2.198
62139SOL    HW188191   8.831   4.012   2.277
62139SOL    HW288192   8.885   4.003   2.135
62140SOL     OW88193  13.758   6.006  11.283
62140SOL    HW188194  13.827   6.058  11.325
62140SOL    HW288195  13.718   5.956  11.354
62141SOL     OW88196   2.963   2.512   6.172
62141SOL    HW188197   2.971   2.500   6.266
62141SOL    HW288198   2.953   2.606   6.160
62142SOL     OW88199  10.668  10.118   8.143
62142SOL    HW188200  10.716  10.103   8.225
62142SOL    HW288201  10.584  10.074   8.157
62143SOL     OW88202  13.037  14.714   6.977
62143SOL    HW188203  13.129  14.733   6.995
62143SOL    HW288204  13.029  14.620   6.988
62144SOL     OW88205   0.995  10.083   4.988
62144SOL    HW188206   0.970  10.165   5.029
62144SOL    HW288207   0.924  10.063   4.927
62145SOL     OW88208   0.024  12.207  11.196
62145SOL    HW188209   0.015  12.285  11.252
62145SOL    HW288210  14.820  12.199  11.154
62146SOL     OW88211   0.459   0.125   4.922
62146SOL    HW188212   0.407   0.100   4.999
62146SOL    HW288213   0.549   0.130   4.955
62147SOL     OW88214  14.651  10.757  13.407
62147SOL    HW188215  14.631  10.734  13.497
62147SOL    HW288216  14.568  10.788  13.370
62148SOL     OW88217  13.525   6.900   3.645
62148SOL    HW188218  13.578   6.841   3.592
62148SOL    HW288219  13.479   6.955   3.582
62149SOL     OW88220   8.013  14.614  13.228
62149SOL    HW188221   7.995  14.595  13.136
62149SOL    HW288222   7.947  14.680  13.252
62150SOL     OW88223   0.918   9.196   9.170
62150SOL    HW188224   0.928   9.203   9.076
62150SOL    HW288225   0.937   9.284   9.203
62151SOL     OW88226   8.609   4.806   7.787
62151SOL    HW188227   8.559   4.730   7.817
62151SOL    HW288228   8.675   4.769   7.728
62152SOL     OW88229   8.739   7.063   3.444
62152SOL    HW188230   8.770   7.127   3.380
62152SOL    HW288231   8.663   7.023   3.402
62153SOL     OW88232   7.398   8.828   0.934
62153SOL    HW188233   7.467   8.768   0.963
62153SOL    HW288234   7.341   8.836   1.010
62154SOL     OW88235   5.630   9.213   7.564
62154SOL    HW188236   5.695   9.155   7.604
62154SOL    HW288237   5.655   9.218   7.472
62155SOL     OW88238   5.737  11.585  11.778
62155SOL    HW188239   5.647  11.583  11.746
62155SOL    HW288240   5.755  11.495  11.805
62156SOL     OW88241  14.824  11.457   2.731
62156SOL    HW188242  14.869  11.500   2.658
62156SOL    HW288243  14.760  11.522   2.760
62157SOL     OW88244   1.834   8.746   2.518
62157SOL    HW188245   1.926   8.745   2.491
62157SOL    HW288246   1.838   8.752   2.613
62158SOL     OW88247   0.274  12.419   2.206
62158SOL    HW188248   0.258  12.337   2.158
62158SOL    HW288249   0.270  12.393   2.298
62159SOL     OW88250  12.550   7.170   3.089
62159SOL    HW188251  12.517   7.234   3.027
62159SOL    HW288252  12.503   7.089   3.067
62160SOL     OW88253   1.585   6.731   6.198
62160SOL    HW188254   1.490   6.737   6.201
62160SOL    HW288255   1.616   6.818   6.222
62161SOL     OW88256   8.628   5.694   1.918
62161SOL    HW188257   8.683   5.772   1.929
62161SOL    HW288258   8.615   5.662   2.007
62162SOL     OW88259   3.465  14.677  14.790
62162SOL    HW188260   3.394  14.681  14.725
62162SOL    HW288261   3.534  14.629  14.746
62163SOL     OW88262  14.587   5.935   8.303
62163SOL    HW188263  14.527   5.872   8.262
62163SOL    HW288264  14.665   5.933   8.248
62164SOL     OW88265   4.433   5.813  14.312
62164SOL    HW188266   4.349   5.859  14.319
62164SOL    HW288267   4.491   5.860  14.371
62165SOL     OW88268  13.388   1.617   7.341
62165SOL    HW188269  13.357   1.589   7.428
62165SOL    HW288270  13.401   1.535   7.293
62166SOL     OW88271   0.508   5.094   0.839
62166SOL    HW188272   0.453   5.111   0.915
62166SOL    HW288273   0.454   5.119   0.764
62167SOL     OW88274   5.435   6.539   6.728
62167SOL    HW188275   5.511   6.592   6.751
62167SOL    HW288276   5.383   6.595   6.670
62168SOL     OW88277   1.219  13.593   3.028
62168SOL    HW188278   1.275  13.569   3.103
62168SOL    HW288279   1.268  13.564   2.951
62169SOL     OW88280   8.978  14.143  11.149
62169SOL    HW188281   8.917  14.071  11.136
62169SOL    HW288282   8.932  14.221  11.117
62170SOL     OW88283   1.976   5.049   7.440
62170SOL    HW188284   1.927   5.123   7.405
62170SOL    HW288285   1.955   5.048   7.533
62171SOL     OW88286   4.885   2.825   1.369
62171SOL    HW188287   4.795   2.835   1.337
62171SOL    HW288288   4.935   2.891   1.322
62172SOL     OW88289  10.034   0.065   9.026
62172SOL    HW188290   9.982   0.020   8.959
62172SOL    HW288291   9.972   0.123   9.069
62173SOL     OW88292  14.849  10.443   9.872
62173SOL    HW188293   0.022  10.516   9.900
62173SOL    HW288294  14.761  10.479   9.864
62174SOL     OW88295   4.305   0.007   7.236
62174SOL    HW188296   4.265  14.809   7.272
62174SOL    HW288297   4.349   0.048   7.310
62175SOL     OW88298   4.529  11.638  13.933
62175SOL    HW188299   4.457  11.688  13.894
62175SOL    HW288300   4.541  11.564  13.874
62176SOL     OW88301   0.466   8.014   2.511
62176SOL    HW188302   0.555   8.017   2.546
62176SOL    HW288303   0.410   8.001   2.588
62177SOL     OW88304   4.383   2.997   1.531
62177SOL    HW188305   4.370   3.086   1.562
62177SOL    HW288306   4.449   2.960   1.589
62178SOL     OW88307   2.301  11.607   9.950
62178SOL    HW188308   2.313  11.514   9.927
62178SOL    HW288309   2.255  11.605  10.034
62179SOL     OW88310   4.605  11.890   6.683
62179SOL    HW188311   4.610  11.875   6.777
62179SOL    HW288312   4.522  11.937   6.670
62180SOL     OW88313  10.442   7.292  13.396
62180SOL    HW188314  10.492   7.369  13.424
62180SOL    HW288315  10.373   7.282  13.461
62181SOL     OW88316   8.574   8.530  11.609
62181SOL    HW188317   8.653   8.482  11.587
62181SOL    HW288318   8.600   8.622  11.609
62182SOL     OW88319  10.252  13.593   6.383
62182SOL    HW188320  10.163  13.627   6.376
62182SOL    HW288321  10.247  13.526   6.452
62183SOL     OW88322  14.478   2.235   1.225
62183SOL    HW188323  14.459   2.142   1.236
62183SOL    HW288324  14.560   2.249   1.273
62184SOL     OW88325  14.188  12.256  11.590
62184SOL    HW188326  14.207  12.165  11.565
62184SOL    HW288327  14.175  12.252  11.685
62185SOL     OW88328  11.516   1.009   9.805
62185SOL    HW188329  11.531   0.916   9.787
62185SOL    HW288330  11.438   1.031   9.754
62186SOL     OW88331  12.056  10.231  13.050
62186SOL    HW188332  12.046  10.156  12.992
62186SOL    HW288333  12.144  10.222  13.086
62187SOL     OW88334   2.648  11.190   0.023
62187SOL    HW188335   2.658  11.275   0.064
62187SOL    HW288336   2.736  11.168  14.873
62188SOL     OW88337   7.581   2.177   3.080
62188SOL    HW188338   7.630   2.216   3.152
62188SOL    HW288339   7.592   2.238   3.008
62189SOL     OW88340  13.901   7.862   1.972
62189SOL    HW188341  13.872   7.907   2.052
62189SOL    HW288342  13.824   7.862   1.915
62190SOL     OW88343  11.177   9.130   0.782
62190SOL    HW188344  11.216   9.216   0.787
62190SOL    HW288345  11.113   9.128   0.853
62191SOL     OW88346  13.937   9.346   1.245
62191SOL    HW188347  14.010   9.374   1.298
62191SOL    HW288348  13.859   9.373   1.294
62192SOL     OW88349   2.049  12.158  11.761
62192SOL    HW188350   2.103  12.140  11.839
62192SOL    HW288351   2.038  12.072  11.720
62193SOL     OW88352   3.106   8.035   1.961
62193SOL    HW188353   3.062   8.053   2.044
62193SOL    HW288354   3.036   8.027   1.897
62194SOL     OW88355   9.655   0.448  13.381
62194SOL    HW188356   9.594   0.500  13.434
62194SOL    HW288357   9.741   0.487  13.398
62195SOL     OW88358   4.397   4.360  13.471
62195SOL    HW188359   4.483   4.342  13.510
62195SOL    HW288360   4.388   4.455  13.477
62196SOL     OW88361   5.267   9.869   6.657
62196SOL    HW188362   5.360   9.846   6.651
62196SOL    HW288363   5.261   9.926   6.734
62197SOL     OW88364   3.722  11.534   3.185
62197SOL    HW188365   3.734  11.596   3.113
62197SOL    HW288366   3.680  11.585   3.254
62198SOL     OW88367  10.822   2.197   8.192
62198SOL    HW188368  10.871   2.271   8.157
62198SOL    HW288369  10.732   2.228   8.196
62199SOL     OW88370   0.267   4.516   2.424
62199SOL    HW188371   0.220   4.435   2.445
62199SOL    HW288372   0.207   4.564   2.367
62200SOL     OW88373   5.096  10.537   8.993
62200SOL    HW188374   5.129  10.450   8.970
62200SOL    HW288375   5.165  10.597   8.967
62201SOL     OW88376  12.391   2.852  10.275
62201SOL    HW188377  12.393   2.926  10.336
62201SOL    HW288378  12.376   2.891  10.189
62202SOL     OW88379   0.870  13.668   1.696
62202SOL    HW188380   0.899  13.646   1.785
62202SOL    HW288381   0.806  13.601   1.675
62203SOL     OW88382   4.027   3.002  12.804
62203SOL    HW188383   4.008   2.968  12.717
62203SOL    HW288384   3.999   3.094  12.800
62204SOL     OW88385  11.912   3.017  11.851
62204SOL    HW188386  11.862   3.035  11.931
62204SOL    HW288387  11.849   2.973  11.793
62205SOL     OW88388  13.393  14.801   9.612
62205SOL    HW188389  13.410   0.002   9.658
62205SOL    HW288390  13.367  14.740   9.681
62206SOL     OW88391   1.461  13.224   9.582
62206SOL    HW188392   1.496  13.148   9.628
62206SOL    HW288393   1.379  13.244   9.626
62207SOL     OW88394  14.735   4.824   9.892
62207SOL    HW188395  14.645   4.848   9.870
62207SOL    HW288396  14.763   4.766   9.821
62208SOL     OW88397  12.015  12.272   3.877
62208SOL    HW188398  12.091  12.260   3.819
62208SOL    HW288399  11.956  12.201   3.853
62209SOL     OW88400   8.571   6.106   8.013
62209SOL    HW188401   8.565   6.201   8.001
62209SOL    HW288402   8.498   6.084   8.071
62210SOL     OW88403   2.457  10.253  13.935
62210SOL    HW188404   2.469  10.160  13.915
62210SOL    HW288405   2.383  10.255  13.995
62211SOL     OW88406  10.749   9.540   8.064
62211SOL    HW188407  10.844   9.528   8.069
62211SOL    HW288408  10.714   9.477   8.127
62212SOL     OW88409   8.788   1.368   6.144
62212SOL    HW188410   8.754   1.287   6.181
62212SOL    HW288411   8.714   1.429   6.145
62213SOL     OW88412   6.213   3.858  11.981
62213SOL    HW188413   6.195   3.764  11.977
62213SOL    HW288414   6.299   3.864  12.024
62214SOL     OW88415   9.179  14.275   2.154
62214SOL    HW188416   9.208  14.366   2.163
62214SOL    HW288417   9.159  14.248   2.243
62215SOL     OW88418   6.621   4.244   1.288
62215SOL    HW188419   6.670   4.294   1.353
62215SOL    HW288420   6.688   4.216   1.225
62216SOL     OW88421   7.149  10.389   5.936
62216SOL    HW188422   7.118  10.459   5.993
62216SOL    HW288423   7.103  10.403   5.853
62217SOL     OW88424  13.793  14.355   6.864
62217SOL    HW188425  13.761  14.388   6.948
62217SOL    HW288426  13.833  14.431   6.822
62218SOL     OW88427   4.683   9.336   3.224
62218SOL    HW188428   4.676   9.244   3.197
62218SOL    HW288429   4.685   9.332   3.319
62219SOL     OW88430   3.862   0.133   8.214
62219SOL    HW188431   3.896   0.044   8.204
62219SOL    HW288432   3.914   0.171   8.285
62220SOL     OW88433  12.160   6.374   8.531
62220SOL    HW188434  12.067   6.353   8.518
62220SOL    HW288435  12.202   6.289   8.547
62221SOL     OW88436   9.390   1.187  12.372
62221SOL    HW188437   9.358   1.229  12.292
62221SOL    HW288438   9.347   1.101  12.373
62222SOL     OW88439   1.722   8.336   0.360
62222SOL    HW188440   1.777   8.270   0.403
62222SOL    HW288441   1.704   8.299   0.274
62223SOL     OW88442   2.404   8.843   2.873
62223SOL    HW188443   2.477   8.890   2.833
62223SOL    HW288444   2.446   8.783   2.935
62224SOL     OW88445   8.982   9.981  10.523
62224SOL    HW188446   9.073   9.950  10.524
62224SOL    HW288447   8.985  10.065  10.478
62225SOL     OW88448  12.486  11.514  11.198
62225SOL    HW188449  12.454  11.429  11.167
62225SOL    HW288450  12.524  11.495  11.284
62226SOL     OW88451   1.301  12.039   4.699
62226SOL    HW188452   1.355  12.117   4.710
62226SOL    HW288453   1.228  12.051   4.760
62227SOL     OW88454  13.283   4.380  11.885
62227SOL    HW188455  13.218   4.407  11.820
62227SOL    HW288456  13.234   4.328  11.948
62228SOL     OW88457   3.203   6.511   5.003
62228SOL    HW188458   3.153   6.470   4.932
62228SOL    HW288459   3.170   6.469   5.083
62229SOL     OW88460  11.058   3.101  14.480
62229SOL    HW188461  11.031   3.167  14.544
62229SOL    HW288462  11.152   3.089  14.496
62230SOL     OW88463   7.482  12.581  13.775
62230SOL    HW188464   7.421  12.631  13.829
62230SOL    HW288465   7.502  12.503  13.828
62231SOL     OW88466   5.772   5.723   2.209
62231SOL    HW188467   5.789   5.685   2.295
62231SOL    HW288468   5.682   5.696   2.189
62232SOL     OW88469  10.130  14.256   2.158
62232SOL    HW188470  10.168  14.263   2.070
62232SOL    HW288471  10.202  14.227   2.213
62233SOL     OW88472   8.438   2.423   4.131
62233SOL    HW188473   8.524   2.381   4.143
62233SOL    HW288474   8.445   2.465   4.045
62234SOL     OW88475   4.369   2.067  12.687
62234SOL    HW188476   4.435   2.125  12.649
62234SOL    HW288477   4.389   2.067  12.781
62235SOL     OW88478   2.295  13.201  11.176
62235SOL    HW188479   2.383  13.164  11.168
62235SOL    HW288480   2.242  13.129  11.210
62236SOL     OW88481  12.720  14.417  12.141
62236SOL    HW188482  12.740  14.509  12.153
62236SOL    HW288483  12.786  14.386  12.079
62237SOL     OW88484   3.507   2.657  10.550
62237SOL    HW188485   3.473   2.584  10.499
62237SOL    HW288486   3.480   2.736  10.503
62238SOL     OW88487   9.236   9.341   0.041
62238SOL    HW188488   9.241   9.251   0.071
62238SOL    HW288489   9.211   9.391   0.118
62239SOL     OW88490   4.917  12.212  11.092
62239SOL    HW188491   4.893  12.254  11.175
62239SOL    HW288492   5.011  12.225  11.085
62240SOL     OW88493   8.799   8.365   4.862
62240SOL    HW188494   8.774   8.295   4.802
62240SOL    HW288495   8.847   8.321   4.932
62241SOL     OW88496  13.828   8.960   7.776
62241SOL    HW188497  13.843   9.051   7.803
62241SOL    HW288498  13.815   8.965   7.681
62242SOL     OW88499  13.485   4.240  12.524
62242SOL    HW188500  13.446   4.293  12.593
62242SOL    HW288501  13.413   4.187  12.490
62243SOL     OW88502   7.255   4.097  11.160
62243SOL    HW188503   7.280   4.004  11.161
62243SOL    HW288504   7.266   4.125  11.251
62244SOL     OW88505   2.616   7.820   4.404
62244SOL    HW188506   2.531   7.864   4.400
62244SOL    HW288507   2.614   7.774   4.489
62245SOL     OW88508   0.737   5.999   1.537
62245SOL    HW188509   0.780   6.031   1.616
62245SOL    HW288510   0.671   5.937   1.568
62246SOL     OW88511   8.089   2.407  13.027
62246SOL    HW188512   8.036   2.335  12.994
62246SOL    HW288513   8.172   2.400  12.979
62247SOL     OW88514   1.704   0.639  12.223
62247SOL    HW188515   1.702   0.603  12.134
62247SOL    HW288516   1.701   0.734  12.210
62248SOL     OW88517  11.913   7.188   6.197
62248SOL    HW188518  11.832   7.138   6.207
62248SOL    HW288519  11.885   7.270   6.156
62249SOL     OW88520   3.889   5.249   6.781
62249SOL    HW188521   3.960   5.282   6.837
62249SOL    HW288522   3.916   5.161   6.757
62250SOL     OW88523   0.107   2.356  14.739
62250SOL    HW188524   0.189   2.326  14.777
62250SOL    HW288525   0.132   2.420  14.673
62251SOL     OW88526  13.511  10.530   5.492
62251SOL    HW188527  13.419  10.505   5.481
62251SOL    HW288528  13.557  10.483   5.423
62252SOL     OW88529   3.122  12.291  10.243
62252SOL    HW188530   3.213  12.264  10.259
62252SOL    HW288531   3.106  12.266  10.151
62253SOL     OW88532   1.841   8.627   9.650
62253SOL    HW188533   1.823   8.691   9.582
62253SOL    HW288534   1.845   8.543   9.604
62254SOL     OW88535   9.463  10.554  11.322
62254SOL    HW188536   9.378  10.593  11.340
62254SOL    HW288537   9.501  10.609  11.253
62255SOL     OW88538  14.136   9.578  12.662
62255SOL    HW188539  14.106   9.658  12.620
62255SOL    HW288540  14.231   9.578  12.651
62256SOL     OW88541   1.395  14.579   0.643
62256SOL    HW188542   1.455  14.593   0.716
62256SOL    HW288543   1.346  14.661   0.636
62257SOL     OW88544   6.205  10.916   6.831
62257SOL    HW188545   6.218  10.852   6.901
62257SOL    HW288546   6.133  10.879   6.779
62258SOL     OW88547   3.412   0.935  10.475
62258SOL    HW188548   3.492   0.983  10.452
62258SOL    HW288549   3.436   0.884  10.552
62259SOL     OW88550  11.412   9.291   4.388
62259SOL    HW188551  11.316   9.293   4.379
62259SOL    HW288552  11.432   9.199   4.407
62260SOL     OW88553   9.089   3.933   6.000
62260SOL    HW188554   9.077   3.985   5.921
62260SOL    HW288555   9.031   3.857   5.988
62261SOL     OW88556  13.011  11.531  11.559
62261SOL    HW188557  12.963  11.499  11.482
62261SOL    HW288558  13.030  11.623  11.539
62262SOL     OW88559  13.794   9.083   3.139
62262SOL    HW188560  13.870   9.085   3.081
62262SOL    HW288561  13.785   9.174   3.169
62263SOL     OW88562   0.135   8.573  12.951
62263SOL    HW188563   0.168   8.627  12.879
62263SOL    HW288564   0.123   8.486  12.911
62264SOL     OW88565   1.412  12.441   3.033
62264SOL    HW188566   1.380  12.441   3.123
62264SOL    HW288567   1.443  12.352   3.018
62265SOL     OW88568   0.716   3.019   3.286
62265SOL    HW188569   0.629   3.035   3.321
62265SOL    HW288570   0.744   3.104   3.252
62266SOL     OW88571   9.904   4.443  13.708
62266SOL    HW188572   9.964   4.498  13.758
62266SOL    HW288573   9.819   4.486  13.716
62267SOL     OW88574   5.387   9.657  10.075
62267SOL    HW188575   5.309   9.686  10.027
62267SOL    HW288576   5.461   9.691  10.024
62268SOL     OW88577   6.922   5.369  12.196
62268SOL    HW188578   6.971   5.390  12.116
62268SOL    HW288579   6.981   5.396  12.267
62269SOL     OW88580   9.108  12.047   7.242
62269SOL    HW188581   9.193  12.050   7.286
62269SOL    HW288582   9.046  12.026   7.312
62270SOL     OW88583   5.257   9.140  14.744
62270SOL    HW188584   5.173   9.135  14.699
62270SOL    HW288585   5.236   9.139  14.837
62271SOL     OW88586   5.447  12.492   6.028
62271SOL    HW188587   5.368  12.522   6.074
62271SOL    HW288588   5.415  12.465   5.941
62272SOL     OW88589   2.858   1.255   7.591
62272SOL    HW188590   2.786   1.312   7.616
62272SOL    HW288591   2.899   1.299   7.516
62273SOL     OW88592   4.218   1.889  14.345
62273SOL    HW188593   4.271   1.826  14.295
62273SOL    HW288594   4.133   1.889  14.301
62274SOL     OW88595   0.657   4.372   1.023
62274SOL    HW188596   0.743   4.412   1.040
62274SOL    HW288597   0.677   4.292   0.976
62275SOL     OW88598  10.413   7.142   6.479
62275SOL    HW188599  10.454   7.182   6.555
62275SOL    HW288600  10.322   7.172   6.483
62276SOL     OW88601   1.397   6.081   0.997
62276SOL    HW188602   1.397   5.987   0.976
62276SOL    HW288603   1.318   6.093   1.050
62277SOL     OW88604  11.857   7.378   4.271
62277SOL    HW188605  11.824   7.426   4.347
62277SOL    HW288606  11.943   7.347   4.297
62278SOL     OW88607   0.893   4.743   4.205
62278SOL    HW188608   0.852   4.819   4.163
62278SOL    HW288609   0.891   4.764   4.299
62279SOL     OW88610   7.314   3.848   7.328
62279SOL    HW188611   7.385   3.793   7.295
62279SOL    HW288612   7.323   3.930   7.279
62280SOL     OW88613  11.236   4.609   2.966
62280SOL    HW188614  11.152   4.578   2.934
62280SOL    HW288615  11.264   4.674   2.902
62281SOL     OW88616   3.687   8.093   3.940
62281SOL    HW188617   3.783   8.092   3.934
62281SOL    HW288618   3.664   8.004   3.966
62282SOL     OW88619   9.599   2.328   2.374
62282SOL    HW188620   9.535   2.376   2.426
62282SOL    HW288621   9.662   2.395   2.346
62283SOL     OW88622  12.200   4.000  10.743
62283SOL    HW188623  12.218   3.987  10.649
62283SOL    HW288624  12.153   4.084  10.747
62284SOL     OW88625  14.097   8.984   4.729
62284SOL    HW188626  14.159   8.987   4.802
62284SOL    HW288627  14.141   9.031   4.658
62285SOL     OW88628   4.919   8.194   6.288
62285SOL    HW188629   4.914   8.143   6.369
62285SOL    HW288630   4.973   8.270   6.311
62286SOL     OW88631  10.972   9.992   4.232
62286SOL    HW188632  10.918  10.066   4.205
62286SOL    HW288633  11.056  10.030   4.256
62287SOL     OW88634   1.207  12.024   4.366
62287SOL    HW188635   1.161  12.095   4.411
62287SOL    HW288636   1.224  12.058   4.278
62288SOL     OW88637   8.587  11.422  14.845
62288SOL    HW188638   8.682  11.427  14.850
62288SOL    HW288639   8.557  11.436   0.053
62289SOL     OW88640  12.311   8.897   0.556
62289SOL    HW188641  12.229   8.918   0.511
62289SOL    HW288642  12.342   8.980   0.591
62290SOL     OW88643   0.435   5.822   1.134
62290SOL    HW188644   0.454   5.892   1.072
62290SOL    HW288645   0.493   5.839   1.208
62291SOL     OW88646   8.441   1.525   9.580
62291SOL    HW188647   8.388   1.458   9.536
62291SOL    HW288648   8.388   1.605   9.575
62292SOL     OW88649   6.608   0.858  14.132
62292SOL    HW188650   6.570   0.787  14.183
62292SOL    HW288651   6.615   0.823  14.043
62293SOL     OW88652  11.336   9.680   3.729
62293SOL    HW188653  11.355   9.629   3.807
62293SOL    HW288654  11.389   9.641   3.660
62294SOL     OW88655  13.029  14.491  14.383
62294SOL    HW188656  13.106  14.538  14.414
62294SOL    HW288657  13.064  14.420  14.329
62295SOL     OW88658   0.929   0.408   7.976
62295SOL    HW188659   0.931   0.497   7.942
62295SOL    HW288660   0.936   0.352   7.898
62296SOL     OW88661   2.656   4.688  13.160
62296SOL    HW188662   2.673   4.726  13.246
62296SOL    HW288663   2.617   4.759  13.110
62297SOL     OW88664   6.952  12.844   3.991
62297SOL    HW188665   6.900  12.772   4.027
62297SOL    HW288666   6.923  12.853   3.901
62298SOL     OW88667  11.079  14.812  13.072
62298SOL    HW188668  11.104  14.858  12.993
62298SOL    HW288669  11.143  14.839  13.138
62299SOL     OW88670   1.102   4.901   5.084
62299SOL    HW188671   1.072   4.827   5.137
62299SOL    HW288672   1.081   4.978   5.137
62300SOL     OW88673   2.843   7.916   8.873
62300SOL    HW188674   2.765   7.952   8.831
62300SOL    HW288675   2.825   7.822   8.880
62301SOL     OW88676   7.666   7.413   0.422
62301SOL    HW188677   7.718   7.461   0.486
62301SOL    HW288678   7.727   7.396   0.350
62302SOL     OW88679   1.310   2.449   6.782
62302SOL    HW188680   1.319   2.386   6.711
62302SOL    HW288681   1.218   2.473   6.782
62303SOL     OW88682   7.827   2.257  13.980
62303SOL    HW188683   7.870   2.287  13.900
62303SOL    HW288684   7.747   2.214  13.951
62304SOL     OW88685   2.247  10.681   9.779
62304SOL    HW188686   2.155  10.689   9.754
62304SOL    HW288687   2.252  10.597   9.826
62305SOL     OW88688   5.536  11.499   3.883
62305SOL    HW188689   5.585  11.526   3.961
62305SOL    HW288690   5.556  11.406   3.874
62306SOL     OW88691   2.340   9.689   3.615
62306SOL    HW188692   2.391   9.611   3.637
62306SOL    HW288693   2.400   9.762   3.628
62307SOL     OW88694   2.389   0.687  14.696
62307SOL    HW188695   2.360   0.598  14.678
62307SOL    HW288696   2.442   0.711  14.619
62308SOL     OW88697   9.835   3.679   9.703
62308SOL    HW188698   9.868   3.676   9.792
62308SOL    HW288699   9.740   3.675   9.712
62309SOL     OW88700   8.797   3.158  14.292
62309SOL    HW188701   8.778   3.103  14.216
62309SOL    HW288702   8.869   3.213  14.264
62310SOL     OW88703   2.463   3.294   2.163
62310SOL    HW188704   2.496   3.307   2.073
62310SOL    HW288705   2.369   3.281   2.152
62311SOL     OW88706  11.821  14.131  13.955
62311SOL    HW188707  11.767  14.127  14.034
62311SOL    HW288708  11.760  14.116  13.883
62312SOL     OW88709   0.591  13.194  11.181
62312SOL    HW188710   0.598  13.289  11.171
62312SOL    HW288711   0.500  13.174  11.159
62313SOL     OW88712  14.518  14.074  11.516
62313SOL    HW188713  14.558  14.120  11.589
62313SOL    HW288714  14.494  13.989  11.552
62314SOL     OW88715  10.629  14.797   7.543
62314SOL    HW188716  10.625  14.806   7.448
62314SOL    HW288717  10.640  14.703   7.558
62315SOL     OW88718  13.592   4.563   5.853
62315SOL    HW188719  13.656   4.611   5.905
62315SOL    HW288720  13.556   4.629   5.793
62316SOL     OW88721   1.383   7.959  10.370
62316SOL    HW188722   1.401   7.962  10.464
62316SOL    HW288723   1.454   8.008  10.330
62317SOL     OW88724   7.297  11.121   8.651
62317SOL    HW188725   7.290  11.124   8.747
62317SOL    HW288726   7.212  11.086   8.622
62318SOL     OW88727   3.765   9.860   1.311
62318SOL    HW188728   3.733   9.787   1.259
62318SOL    HW288729   3.806   9.819   1.387
62319SOL     OW88730   3.656   0.314   7.005
62319SOL    HW188731   3.583   0.311   7.066
62319SOL    HW288732   3.719   0.251   7.039
62320SOL     OW88733   8.840   7.318   6.757
62320SOL    HW188734   8.772   7.353   6.814
62320SOL    HW288735   8.878   7.245   6.806
62321SOL     OW88736  10.454   3.399   9.531
62321SOL    HW188737  10.383   3.334   9.532
62321SOL    HW288738  10.427   3.465   9.594
62322SOL     OW88739  12.651   9.593   0.147
62322SOL    HW188740  12.702   9.664   0.186
62322SOL    HW288741  12.562   9.627   0.140
62323SOL     OW88742   4.039   0.143   2.647
62323SOL    HW188743   3.979   0.202   2.692
62323SOL    HW288744   4.084   0.199   2.584
62324SOL     OW88745   7.512  10.372  14.569
62324SOL    HW188746   7.603  10.374  14.540
62324SOL    HW288747   7.513  10.414  14.656
62325SOL     OW88748   5.470   1.960   7.211
62325SOL    HW188749   5.531   1.993   7.144
62325SOL    HW288750   5.483   1.865   7.211
62326SOL     OW88751   7.103   8.899   8.915
62326SOL    HW188752   7.056   8.982   8.924
62326SOL    HW288753   7.113   8.887   8.821
62327SOL     OW88754  13.342  12.802  10.795
62327SOL    HW188755  13.371  12.738  10.731
62327SOL    HW288756  13.360  12.887  10.755
62328SOL     OW88757  11.189  11.266  11.002
62328SOL    HW188758  11.196  11.293  11.093
62328SOL    HW288759  11.226  11.339  10.952
62329SOL     OW88760  13.795   6.747  10.744
62329SOL    HW188761  13.852   6.672  10.762
62329SOL    HW288762  13.706   6.713  10.755
62330SOL     OW88763  11.186   0.912   6.412
62330SOL    HW188764  11.212   0.824   6.384
62330SOL    HW288765  11.267   0.953   6.442
62331SOL     OW88766   9.998   7.908   7.178
62331SOL    HW188767   9.905   7.904   7.200
62331SOL    HW288768  10.027   7.993   7.210
62332SOL     OW88769  13.106   3.755   4.128
62332SOL    HW188770  13.018   3.790   4.143
62332SOL    HW288771  13.101   3.664   4.158
62333SOL     OW88772  10.139  10.057   3.237
62333SOL    HW188773  10.073  10.012   3.182
62333SOL    HW288774  10.153  10.141   3.192
62334SOL     OW88775  13.198  11.178   2.341
62334SOL    HW188776  13.272  11.129   2.375
62334SOL    HW288777  13.120  11.132   2.373
62335SOL     OW88778  13.517   0.172  10.431
62335SOL    HW188779  13.570   0.173  10.352
62335SOL    HW288780  13.489   0.081  10.441
62336SOL     OW88781   7.434  10.353   5.346
62336SOL    HW188782   7.348  10.312   5.355
62336SOL    HW288783   7.462  10.331   5.258
62337SOL     OW88784  10.159  14.117   9.815
62337SOL    HW188785  10.081  14.139   9.866
62337SOL    HW288786  10.191  14.035   9.854
62338SOL     OW88787  12.352  13.132   2.798
62338SOL    HW188788  12.257  13.130   2.802
62338SOL    HW288789  12.379  13.196   2.863
62339SOL     OW88790  14.602  12.807   9.735
62339SOL    HW188791  14.605  12.812   9.639
62339SOL    HW288792  14.655  12.730   9.756
62340SOL     OW88793  10.880  14.726  11.358
62340SOL    HW188794  10.952  14.785  11.380
62340SOL    HW288795  10.902  14.693  11.271
62341SOL     OW88796  10.719  12.138   0.059
62341SOL    HW188797  10.722  12.232   0.043
62341SOL    HW288798  10.626  12.117   0.063
62342SOL     OW88799  12.565   9.061   5.039
62342SOL    HW188800  12.633   8.998   5.061
62342SOL    HW288801  12.613   9.139   5.010
62343SOL     OW88802   9.029  12.636  11.692
62343SOL    HW188803   8.986  12.690  11.625
62343SOL    HW288804   8.974  12.647  11.769
62344SOL     OW88805   2.225   7.979   1.761
62344SOL    HW188806   2.137   7.946   1.744
62344SOL    HW288807   2.253   8.018   1.679
62345SOL     OW88808   0.904  13.737   0.937
62345SOL    HW188809   0.866  13.758   1.023
62345SOL    HW288810   0.992  13.773   0.941
62346SOL     OW88811   6.849   5.290   7.340
62346SOL    HW188812   6.879   5.364   7.286
62346SOL    HW288813   6.925   5.232   7.345
62347SOL     OW88814  13.126   6.364   7.734
62347SOL    HW188815  13.110   6.296   7.799
62347SOL    HW288816  13.040   6.401   7.715
62348SOL     OW88817  14.778   9.922   2.118
62348SOL    HW188818  14.841   9.868   2.068
62348SOL    HW288819  14.793  10.011   2.086
62349SOL     OW88820   0.251  12.341   2.470
62349SOL    HW188821   0.221  12.271   2.528
62349SOL    HW288822   0.344  12.349   2.488
62350SOL     OW88823   0.024   3.325  14.309
62350SOL    HW188824  14.815   3.298  14.327
62350SOL    HW288825   0.073   3.301  14.387
62351SOL     OW88826   4.294  14.553   3.108
62351SOL    HW188827   4.377  14.562   3.062
62351SOL    HW288828   4.229  14.544   3.039
62352SOL     OW88829   0.843   1.406   7.066
62352SOL    HW188830   0.801   1.484   7.027
62352SOL    HW288831   0.806   1.401   7.154
62353SOL     OW88832  13.625  13.925  12.714
62353SOL    HW188833  13.714  13.891  12.703
62353SOL    HW288834  13.630  14.016  12.687
62354SOL     OW88835  12.270   4.282   8.415
62354SOL    HW188836  12.339   4.241   8.467
62354SOL    HW288837  12.189   4.251   8.455
62355SOL     OW88838  13.639   7.352   1.258
62355SOL    HW188839  13.710   7.405   1.222
62355SOL    HW288840  13.649   7.360   1.353
62356SOL     OW88841   0.592   0.684  10.839
62356SOL    HW188842   0.683   0.711  10.824
62356SOL    HW288843   0.598   0.615  10.905
62357SOL     OW88844  13.475   5.249  12.547
62357SOL    HW188845  13.384   5.256  12.517
62357SOL    HW288846  13.527   5.256  12.467
62358SOL     OW88847  10.498  10.915  12.508
62358SOL    HW188848  10.431  10.903  12.440
62358SOL    HW288849  10.575  10.945  12.461
62359SOL     OW88850  11.042  11.706  14.546
62359SOL    HW188851  10.950  11.680  14.540
62359SOL    HW288852  11.090  11.624  14.539
62360SOL     OW88853   9.304   3.687   9.493
62360SOL    HW188854   9.250   3.735   9.556
62360SOL    HW288855   9.256   3.606   9.476
62361SOL     OW88856  14.525  11.202   2.238
62361SOL    HW188857  14.432  11.220   2.255
62361SOL    HW288858  14.568  11.219   2.322
62362SOL     OW88859  11.823   9.987  14.802
62362SOL    HW188860  11.873   9.911  14.833
62362SOL    HW288861  11.807   9.969  14.709
62363SOL     OW88862   7.699   2.059   0.888
62363SOL    HW188863   7.714   2.131   0.826
62363SOL    HW288864   7.751   1.987   0.855
62364SOL     OW88865   4.819   7.261  14.152
62364SOL    HW188866   4.884   7.207  14.198
62364SOL    HW288867   4.736   7.215  14.165
62365SOL     OW88868   6.947   1.507   8.417
62365SOL    HW188869   6.919   1.499   8.508
62365SOL    HW288870   6.982   1.596   8.410
62366SOL     OW88871   1.055  13.496  13.767
62366SOL    HW188872   1.067  13.571  13.709
62366SOL    HW288873   1.142  13.456  13.773
62367SOL     OW88874   7.105   6.561   5.835
62367SOL    HW188875   7.106   6.586   5.742
62367SOL    HW288876   7.165   6.622   5.877
62368SOL     OW88877   1.036  14.521   3.197
62368SOL    HW188878   1.005  14.587   3.260
62368SOL    HW288879   0.966  14.456   3.194
62369SOL     OW88880   6.955   9.686  10.078
62369SOL    HW188881   6.967   9.674  10.173
62369SOL    HW288882   6.925   9.601  10.047
62370SOL     OW88883   1.118  14.697   1.650
62370SOL    HW188884   1.139  14.786   1.679
62370SOL    HW288885   1.043  14.708   1.592
62371SOL     OW88886   2.597   5.652  11.674
62371SOL    HW188887   2.667   5.714  11.651
62371SOL    HW288888   2.553   5.693  11.749
62372SOL     OW88889  11.213  14.227   1.717
62372SOL    HW188890  11.289  14.192   1.672
62372SOL    HW288891  11.159  14.264   1.647
62373SOL     OW88892  12.331   7.685   3.830
62373SOL    HW188893  12.356   7.771   3.864
62373SOL    HW288894  12.412   7.635   3.830
62374SOL     OW88895   4.330  13.879   1.561
62374SOL    HW188896   4.406  13.861   1.615
62374SOL    HW288897   4.358  13.951   1.504
62375SOL     OW88898  14.731   6.786   8.128
62375SOL    HW188899  14.824   6.794   8.149
62375SOL    HW288900  14.728   6.717   8.062
62376SOL     OW88901   7.818   3.406   3.643
62376SOL    HW188902   7.750   3.342   3.623
62376SOL    HW288903   7.775   3.471   3.699
62377SOL     OW88904  10.301  11.054   5.526
62377SOL    HW188905  10.317  11.065   5.619
62377SOL    HW288906  10.320  10.961   5.509
62378SOL     OW88907   1.218   4.933   2.243
62378SOL    HW188908   1.145   4.995   2.250
62378SOL    HW288909   1.176   4.847   2.238
62379SOL     OW88910   7.777  10.798   5.059
62379SOL    HW188911   7.816  10.806   4.973
62379SOL    HW288912   7.765  10.704   5.072
62380SOL     OW88913   9.124  12.562   5.417
62380SOL    HW188914   9.157  12.514   5.341
62380SOL    HW288915   9.053  12.508   5.451
62381SOL     OW88916  11.410   9.431   1.393
62381SOL    HW188917  11.475   9.456   1.459
62381SOL    HW288918  11.428   9.339   1.376
62382SOL     OW88919  10.416  12.610   8.603
62382SOL    HW188920  10.446  12.554   8.532
62382SOL    HW288921  10.496  12.645   8.642
62383SOL     OW88922  13.726   4.077   5.181
62383SOL    HW188923  13.735   4.122   5.097
62383SOL    HW288924  13.646   4.025   5.173
62384SOL     OW88925   2.645   2.354   0.695
62384SOL    HW188926   2.629   2.437   0.649
62384SOL    HW288927   2.563   2.335   0.740
62385SOL     OW88928   7.699  12.059   8.915
62385SOL    HW188929   7.705  12.150   8.942
62385SOL    HW288930   7.772  12.047   8.854
62386SOL     OW88931  13.718   2.021   0.272
62386SOL    HW188932  13.663   2.021   0.350
62386SOL    HW288933  13.681   1.951   0.217
62387SOL     OW88934  12.570   8.711   6.685
62387SOL    HW188935  12.521   8.750   6.613
62387SOL    HW288936  12.535   8.755   6.763
62388SOL     OW88937   4.743   2.839   1.930
62388SOL    HW188938   4.837   2.852   1.937
62388SOL    HW288939   4.729   2.747   1.953
62389SOL     OW88940   8.273   8.135   2.283
62389SOL    HW188941   8.308   8.049   2.307
62389SOL    HW288942   8.351   8.189   2.268
62390SOL     OW88943   5.562   9.422  13.008
62390SOL    HW188944   5.488   9.378  12.966
62390SOL    HW288945   5.610   9.351  13.051
62391SOL     OW88946   6.617   1.983   3.559
62391SOL    HW188947   6.583   2.052   3.618
62391SOL    HW288948   6.678   1.934   3.614
62392SOL     OW88949   0.558   1.254   1.972
62392SOL    HW188950   0.515   1.330   1.933
62392SOL    HW288951   0.550   1.185   1.905
62393SOL     OW88952   6.846   5.261   0.501
62393SOL    HW188953   6.842   5.166   0.487
62393SOL    HW288954   6.844   5.272   0.596
62394SOL     OW88955  11.735   7.563   0.890
62394SOL    HW188956  11.701   7.649   0.865
62394SOL    HW288957  11.810   7.582   0.946
62395SOL     OW88958   1.131   2.044  11.628
62395SOL    HW188959   1.119   2.138  11.614
62395SOL    HW288960   1.065   2.020  11.693
62396SOL     OW88961   4.375   7.700   8.950
62396SOL    HW188962   4.368   7.756   9.027
62396SOL    HW288963   4.439   7.633   8.974
62397SOL     OW88964   6.125   1.521   2.607
62397SOL    HW188965   6.034   1.501   2.628
62397SOL    HW288966   6.161   1.558   2.688
62398SOL     OW88967   1.508   4.487   1.578
62398SOL    HW188968   1.539   4.526   1.497
62398SOL    HW288969   1.574   4.509   1.643
62399SOL     OW88970   4.809   0.408   2.705
62399SOL    HW188971   4.732   0.415   2.762
62399SOL    HW288972   4.836   0.498   2.689
62400SOL     OW88973   8.368   4.668   2.207
62400SOL    HW188974   8.423   4.593   2.186
62400SOL    HW288975   8.366   4.721   2.127
62401SOL     OW88976  13.622   9.571   8.185
62401SOL    HW188977  13.607   9.512   8.110
62401SOL    HW288978  13.577   9.652   8.160
62402SOL     OW88979  13.087  10.147   3.491
62402SOL    HW188980  13.009  10.121   3.442
62402SOL    HW288981  13.137  10.066   3.500
62403SOL     OW88982   7.231   3.434  10.271
62403SOL    HW188983   7.211   3.437  10.365
62403SOL    HW288984   7.169   3.496  10.232
62404SOL     OW88985   6.488   0.206   3.523
62404SOL    HW188986   6.523   0.124   3.556
62404SOL    HW288987   6.408   0.180   3.476
62405SOL     OW88988   5.900   4.393   8.301
62405SOL    HW188989   5.978   4.411   8.354
62405SOL    HW288990   5.906   4.455   8.228
62406SOL     OW88991   8.404   2.174   2.004
62406SOL    HW188992   8.408   2.079   2.016
62406SOL    HW288993   8.327   2.201   2.053
62407SOL     OW88994   5.149   4.236  14.484
62407SOL    HW188995   5.143   4.173  14.555
62407SOL    HW288996   5.123   4.187  14.406
62408SOL     OW88997  10.697  13.765  13.429
62408SOL    HW188998  10.772  13.825  13.429
62408SOL    HW288999  10.621  13.821  13.416
62409SOL     OW89000   3.661   1.807   5.688
62409SOL    HW189001   3.584   1.762   5.654
62409SOL    HW289002   3.644   1.817   5.782
62410SOL     OW89003   7.973   4.825   8.883
62410SOL    HW189004   7.914   4.895   8.911
62410SOL    HW289005   7.923   4.745   8.897
62411SOL     OW89006   5.949   7.062   0.768
62411SOL    HW189007   5.888   6.995   0.737
62411SOL    HW289008   5.893   7.130   0.805
62412SOL     OW89009  14.222   3.792   9.779
62412SOL    HW189010  14.204   3.801   9.872
62412SOL    HW289011  14.139   3.761   9.741
62413SOL     OW89012   8.544  14.082   5.279
62413SOL    HW189013   8.581  14.010   5.330
62413SOL    HW289014   8.462  14.047   5.245
62414SOL     OW89015   9.829   7.509   3.497
62414SOL    HW189016   9.836   7.600   3.467
62414SOL    HW289017   9.788   7.463   3.423
62415SOL     OW89018   0.679   9.386   7.791
62415SOL    HW189019   0.692   9.312   7.850
62415SOL    HW289020   0.593   9.421   7.816
62416SOL     OW89021   1.293   7.318   9.782
62416SOL    HW189022   1.341   7.264   9.720
62416SOL    HW289023   1.241   7.377   9.727
62417SOL     OW89024   9.346   7.217   9.120
62417SOL    HW189025   9.360   7.156   9.047
62417SOL    HW289026   9.367   7.166   9.198
62418SOL     OW89027   3.089   1.473  14.787
62418SOL    HW189028   3.172   1.520  14.800
62418SOL    HW289029   3.024   1.528  14.831
62419SOL     OW89030  14.367   2.251   0.675
62419SOL    HW189031  14.383   2.174   0.620
62419SOL    HW289032  14.357   2.216   0.763
62420SOL     OW89033   5.033   9.938  10.211
62420SOL    HW189034   5.012   9.885  10.288
62420SOL    HW289035   4.949   9.948  10.166
62421SOL     OW89036   3.416   5.925  13.197
62421SOL    HW189037   3.329   5.963  13.183
62421SOL    HW289038   3.416   5.899  13.289
62422SOL     OW89039  12.995  11.858  11.530
62422SOL    HW189040  13.041  11.833  11.610
62422SOL    HW289041  13.053  11.922  11.488
62423SOL     OW89042   7.027  14.424  11.155
62423SOL    HW189043   6.990  14.392  11.073
62423SOL    HW289044   6.991  14.366  11.222
62424SOL     OW89045  10.972   8.424  13.185
62424SOL    HW189046  10.928   8.433  13.270
62424SOL    HW289047  11.006   8.335  13.186
62425SOL     OW89048  11.062   7.560   9.863
62425SOL    HW189049  11.009   7.483   9.841
62425SOL    HW289050  11.031   7.628   9.803
62426SOL     OW89051   4.434  14.094   1.425
62426SOL    HW189052   4.452  14.175   1.378
62426SOL    HW289053   4.508  14.083   1.485
62427SOL     OW89054  13.148  10.099  13.958
62427SOL    HW189055  13.146  10.112  13.863
62427SOL    HW289056  13.241  10.103  13.981
62428SOL     OW89057  13.328   8.144   0.985
62428SOL    HW189058  13.315   8.160   1.079
62428SOL    HW289059  13.333   8.231   0.946
62429SOL     OW89060   4.145   7.538   5.911
62429SOL    HW189061   4.179   7.515   5.997
62429SOL    HW289062   4.190   7.620   5.889
62430SOL     OW89063   2.359  13.027  10.258
62430SOL    HW189064   2.284  13.062  10.305
62430SOL    HW289065   2.383  13.095  10.196
62431SOL     OW89066   4.907   1.995   9.914
62431SOL    HW189067   4.902   2.072   9.856
62431SOL    HW289068   5.000   1.975   9.919
62432SOL     OW89069  11.379   0.293   3.614
62432SOL    HW189070  11.438   0.340   3.672
62432SOL    HW289071  11.350   0.218   3.666
62433SOL     OW89072   9.985   7.160   2.946
62433SOL    HW189073  10.014   7.241   2.987
62433SOL    HW289074   9.990   7.095   3.016
62434SOL     OW89075  11.436   2.931   1.622
62434SOL    HW189076  11.522   2.972   1.624
62434SOL    HW289077  11.422   2.901   1.712
62435SOL     OW89078   5.575  12.696   8.168
62435SOL    HW189079   5.658  12.706   8.213
62435SOL    HW289080   5.577  12.606   8.134
62436SOL     OW89081   4.396   2.454   8.556
62436SOL    HW189082   4.322   2.443   8.616
62436SOL    HW289083   4.452   2.518   8.600
62437SOL     OW89084   0.468   5.974   0.240
62437SOL    HW189085   0.433   5.950   0.154
62437SOL    HW289086   0.394   5.961   0.300
62438SOL     OW89087   3.198   0.553   3.704
62438SOL    HW189088   3.103   0.558   3.717
62438SOL    HW289089   3.216   0.461   3.688
62439SOL     OW89090   2.512  12.023   2.711
62439SOL    HW189091   2.492  12.101   2.659
62439SOL    HW289092   2.594  12.045   2.756
62440SOL     OW89093   0.712  14.849  12.788
62440SOL    HW189094   0.693  14.815  12.700
62440SOL    HW289095   0.755   0.052  12.772
62441SOL     OW89096   5.209   8.027   1.930
62441SOL    HW189097   5.127   8.056   1.889
62441SOL    HW289098   5.235   8.101   1.985
62442SOL     OW89099  13.317   2.547   2.029
62442SOL    HW189100  13.248   2.590   1.978
62442SOL    HW289101  13.395   2.598   2.010
62443SOL     OW89102   1.166   0.766   4.402
62443SOL    HW189103   1.220   0.768   4.322
62443SOL    HW289104   1.170   0.675   4.430
62444SOL     OW89105   9.545  12.155   7.482
62444SOL    HW189106   9.618  12.216   7.493
62444SOL    HW289107   9.491  12.167   7.560
62445SOL     OW89108   9.377  11.812  11.362
62445SOL    HW189109   9.340  11.753  11.428
62445SOL    HW289110   9.427  11.754  11.304
62446SOL     OW89111   5.371   6.623   6.182
62446SOL    HW189112   5.396   6.713   6.161
62446SOL    HW289113   5.338   6.627   6.272
62447SOL     OW89114  13.219  11.412  13.601
62447SOL    HW189115  13.195  11.321  13.620
62447SOL    HW289116  13.137  11.461  13.611
62448SOL     OW89117  14.411   0.772   1.280
62448SOL    HW189118  14.482   0.733   1.229
62448SOL    HW289119  14.427   0.743   1.370
62449SOL     OW89120   3.968  13.056  13.405
62449SOL    HW189121   3.938  13.107  13.330
62449SOL    HW289122   3.946  13.110  13.481
62450SOL     OW89123   3.151   6.659   4.479
62450SOL    HW189124   3.129   6.616   4.396
62450SOL    HW289125   3.228   6.612   4.511
62451SOL     OW89126  11.390  12.123   7.479
62451SOL    HW189127  11.307  12.150   7.519
62451SOL    HW289128  11.385  12.155   7.389
62452SOL     OW89129   1.811  11.103   5.571
62452SOL    HW189130   1.868  11.041   5.617
62452SOL    HW289131   1.863  11.129   5.494
62453SOL     OW89132  11.238   0.813   7.097
62453SOL    HW189133  11.298   0.744   7.071
62453SOL    HW289134  11.181   0.825   7.021
62454SOL     OW89135   0.059   4.816   9.588
62454SOL    HW189136  14.852   4.786   9.609
62454SOL    HW289137   0.113   4.783   9.660
62455SOL     OW89138   0.672  11.617   0.131
62455SOL    HW189139   0.725  11.539   0.118
62455SOL    HW289140   0.733  11.682   0.166
62456SOL     OW89141   4.119  10.220  13.856
62456SOL    HW189142   4.079  10.141  13.819
62456SOL    HW289143   4.045  10.278  13.875
62457SOL     OW89144  13.696   4.794   6.046
62457SOL    HW189145  13.606   4.805   6.080
62457SOL    HW289146  13.716   4.879   6.006
62458SOL     OW89147   5.530  14.871  12.684
62458SOL    HW189148   5.590  14.798  12.667
62458SOL    HW289149   5.570   0.064  12.639
62459SOL     OW89150   9.019   0.228   8.407
62459SOL    HW189151   9.015   0.294   8.476
62459SOL    HW289152   8.948   0.167   8.427
62460SOL     OW89153  12.746   7.484  12.013
62460SOL    HW189154  12.736   7.395  11.978
62460SOL    HW289155  12.773   7.537  11.938
62461SOL     OW89156  10.356   2.655   8.848
62461SOL    HW189157  10.440   2.657   8.802
62461SOL    HW289158  10.310   2.733   8.817
62462SOL     OW89159   3.661   9.839   5.276
62462SOL    HW189160   3.607   9.764   5.254
62462SOL    HW289161   3.617   9.880   5.350
62463SOL     OW89162   1.106   8.541   7.073
62463SOL    HW189163   1.151   8.575   6.996
62463SOL    HW289164   1.176   8.508   7.129
62464SOL     OW89165  14.439  14.545   6.321
62464SOL    HW189166  14.377  14.520   6.390
62464SOL    HW289167  14.435  14.473   6.258
62465SOL     OW89168  12.744  10.594  11.407
62465SOL    HW189169  12.692  10.570  11.484
62465SOL    HW289170  12.814  10.529  11.404
62466SOL     OW89171   5.470  13.926   3.125
62466SOL    HW189172   5.414  13.974   3.064
62466SOL    HW289173   5.521  13.867   3.069
62467SOL     OW89174  12.886   5.894   4.826
62467SOL    HW189175  12.868   5.917   4.917
62467SOL    HW289176  12.974   5.856   4.827
62468SOL     OW89177  12.981   3.057   6.132
62468SOL    HW189178  13.007   3.022   6.217
62468SOL    HW289179  13.063   3.064   6.083
62469SOL     OW89180   3.271  14.239  12.186
62469SOL    HW189181   3.229  14.307  12.239
62469SOL    HW289182   3.200  14.182  12.158
62470SOL     OW89183   7.576   1.178  12.118
62470SOL    HW189184   7.559   1.184  12.024
62470SOL    HW289185   7.496   1.210  12.159
62471SOL     OW89186   1.864   9.730   0.541
62471SOL    HW189187   1.933   9.763   0.484
62471SOL    HW289188   1.868   9.787   0.619
62472SOL     OW89189   6.274   7.810   9.703
62472SOL    HW189190   6.209   7.857   9.755
62472SOL    HW289191   6.261   7.718   9.726
62473SOL     OW89192  13.139   3.741   5.861
62473SOL    HW189193  13.160   3.657   5.821
62473SOL    HW289194  13.070   3.721   5.925
62474SOL     OW89195   0.432   5.439   1.363
62474SOL    HW189196   0.472   5.481   1.287
62474SOL    HW289197   0.492   5.369   1.387
62475SOL     OW89198   4.924   4.563   5.286
62475SOL    HW189199   4.935   4.627   5.216
62475SOL    HW289200   5.005   4.568   5.337
62476SOL     OW89201   9.969   7.879   4.715
62476SOL    HW189202   9.970   7.971   4.690
62476SOL    HW289203   9.914   7.876   4.794
62477SOL     OW89204  13.166   9.277   6.421
62477SOL    HW189205  13.219   9.296   6.344
62477SOL    HW289206  13.077   9.263   6.387
62478SOL     OW89207  12.225   8.553  14.190
62478SOL    HW189208  12.170   8.494  14.138
62478SOL    HW289209  12.205   8.640  14.157
62479SOL     OW89210   1.107  11.850   7.720
62479SOL    HW189211   1.087  11.756   7.720
62479SOL    HW289212   1.025  11.892   7.695
62480SOL     OW89213   7.250  11.280   4.166
62480SOL    HW189214   7.183  11.227   4.210
62480SOL    HW289215   7.325  11.222   4.157
62481SOL     OW89216   6.146  14.714   0.136
62481SOL    HW189217   6.092  14.635   0.134
62481SOL    HW289218   6.133  14.754   0.050
62482SOL     OW89219  13.922   4.753   3.384
62482SOL    HW189220  13.958   4.800   3.459
62482SOL    HW289221  13.913   4.663   3.414
62483SOL     OW89222  12.650  12.279   6.760
62483SOL    HW189223  12.717  12.225   6.800
62483SOL    HW289224  12.611  12.223   6.693
62484SOL     OW89225   2.291  12.729   0.782
62484SOL    HW189226   2.316  12.673   0.708
62484SOL    HW289227   2.287  12.817   0.746
62485SOL     OW89228   4.833  14.262   2.838
62485SOL    HW189229   4.799  14.188   2.787
62485SOL    HW289230   4.849  14.330   2.773
62486SOL     OW89231   6.949  13.496   0.783
62486SOL    HW189232   6.980  13.512   0.873
62486SOL    HW289233   6.984  13.410   0.760
62487SOL     OW89234   7.940  12.711   8.871
62487SOL    HW189235   7.897  12.633   8.835
62487SOL    HW289236   7.868  12.769   8.897
62488SOL     OW89237   4.998   1.353   8.485
62488SOL    HW189238   4.998   1.449   8.481
62488SOL    HW289239   4.909   1.328   8.460
62489SOL     OW89240   8.146  14.577   8.366
62489SOL    HW189241   8.054  14.599   8.350
62489SOL    HW289242   8.195  14.642   8.316
62490SOL     OW89243   0.500  14.761   4.120
62490SOL    HW189244   0.422  14.707   4.127
62490SOL    HW289245   0.538  14.738   4.035
62491SOL     OW89246  12.930   4.955   7.511
62491SOL    HW189247  12.940   4.997   7.426
62491SOL    HW289248  12.844   4.984   7.541
62492SOL     OW89249   9.432   9.738  11.995
62492SOL    HW189250   9.470   9.824  12.011
62492SOL    HW289251   9.360   9.731  12.058
62493SOL     OW89252   2.931  13.992   2.297
62493SOL    HW189253   2.979  14.039   2.365
62493SOL    HW289254   2.957  14.035   2.216
62494SOL     OW89255  10.740  12.582   4.790
62494SOL    HW189256  10.710  12.549   4.705
62494SOL    HW289257  10.688  12.660   4.805
62495SOL     OW89258   1.617   4.565   9.007
62495SOL    HW189259   1.543   4.531   9.058
62495SOL    HW289260   1.694   4.525   9.049
62496SOL     OW89261  14.132  12.270  11.866
62496SOL    HW189262  14.158  12.362  11.875
62496SOL    HW289263  14.038  12.271  11.886
62497SOL     OW89264   5.588   7.457   2.151
62497SOL    HW189265   5.615   7.508   2.074
62497SOL    HW289266   5.492   7.462   2.150
62498SOL     OW89267   8.711   4.056  12.949
62498SOL    HW189268   8.781   4.118  12.929
62498SOL    HW289269   8.657   4.100  13.015
62499SOL     OW89270   0.651   5.883  13.001
62499SOL    HW189271   0.745   5.878  13.019
62499SOL    HW289272   0.646   5.919  12.913
62500SOL     OW89273   0.800   5.708   7.909
62500SOL    HW189274   0.737   5.643   7.938
62500SOL    HW289275   0.867   5.709   7.977
62501SOL     OW89276   1.973   2.064  10.104
62501SOL    HW189277   1.895   2.049  10.157
62501SOL    HW289278   1.963   2.004  10.030
62502SOL     OW89279  12.532  11.410   7.148
62502SOL    HW189280  12.594  11.419   7.076
62502SOL    HW289281  12.468  11.480   7.133
62503SOL     OW89282   9.151   3.491   7.326
62503SOL    HW189283   9.153   3.464   7.417
62503SOL    HW289284   9.124   3.414   7.277
62504SOL     OW89285   3.332   7.856   4.229
62504SOL    HW189286   3.241   7.853   4.258
62504SOL    HW289287   3.380   7.886   4.306
62505SOL     OW89288   6.287  12.998   3.567
62505SOL    HW189289   6.249  12.921   3.525
62505SOL    HW289290   6.312  12.968   3.654
62506SOL     OW89291  10.450  13.841   3.573
62506SOL    HW189292  10.374  13.788   3.599
62506SOL    HW289293  10.417  13.896   3.502
62507SOL     OW89294   9.626   8.862   9.072
62507SOL    HW189295   9.542   8.864   9.027
62507SOL    HW289296   9.644   8.769   9.086
62508SOL     OW89297   4.964   5.214   5.225
62508SOL    HW189298   5.049   5.231   5.185
62508SOL    HW289299   4.969   5.123   5.254
62509SOL     OW89300  13.126  12.927   9.199
62509SOL    HW189301  13.143  12.922   9.105
62509SOL    HW289302  13.113  13.020   9.216
62510SOL     OW89303   9.822   4.621  11.299
62510SOL    HW189304   9.836   4.700  11.352
62510SOL    HW289305   9.786   4.557  11.361
62511SOL     OW89306   4.926  11.138   0.651
62511SOL    HW189307   4.853  11.105   0.598
62511SOL    HW289308   4.938  11.073   0.720
62512SOL     OW89309   3.356   8.618   1.113
62512SOL    HW189310   3.436   8.610   1.164
62512SOL    HW289311   3.304   8.684   1.159
62513SOL     OW89312   6.166  13.665   0.960
62513SOL    HW189313   6.253  13.636   0.930
62513SOL    HW289314   6.105  13.604   0.918
62514SOL     OW89315  14.723   8.723   9.356
62514SOL    HW189316  14.728   8.816   9.337
62514SOL    HW289317  14.813   8.698   9.379
62515SOL     OW89318   7.901   2.504   7.044
62515SOL    HW189319   7.874   2.527   6.955
62515SOL    HW289320   7.983   2.456   7.033
62516SOL     OW89321   0.163  10.605  12.502
62516SOL    HW189322   0.082  10.586  12.550
62516SOL    HW289323   0.188  10.521  12.463
62517SOL     OW89324   6.862   3.176   1.659
62517SOL    HW189325   6.903   3.196   1.575
62517SOL    HW289326   6.807   3.252   1.678
62518SOL     OW89327  10.776   1.486   9.705
62518SOL    HW189328  10.819   1.572   9.706
62518SOL    HW289329  10.842   1.426   9.740
62519SOL     OW89330  11.832   5.736   8.783
62519SOL    HW189331  11.851   5.683   8.705
62519SOL    HW289332  11.886   5.696   8.852
62520SOL     OW89333   4.155  14.313   4.444
62520SOL    HW189334   4.225  14.333   4.382
62520SOL    HW289335   4.153  14.217   4.449
62521SOL     OW89336  14.380  11.796   6.370
62521SOL    HW189337  14.431  11.749   6.304
62521SOL    HW289338  14.299  11.744   6.378
62522SOL     OW89339  14.582   4.046   5.793
62522SOL    HW189340  14.549   4.120   5.844
62522SOL    HW289341  14.619   3.987   5.857
62523SOL     OW89342   6.607   5.772  11.012
62523SOL    HW189343   6.642   5.831  11.079
62523SOL    HW289344   6.685   5.729  10.975
62524SOL     OW89345   7.345   4.860   2.847
62524SOL    HW189346   7.365   4.793   2.913
62524SOL    HW289347   7.273   4.822   2.796
62525SOL     OW89348  13.708   9.041  11.969
62525SOL    HW189349  13.645   9.113  11.980
62525SOL    HW289350  13.746   9.055  11.882
62526SOL     OW89351  12.462   4.075  14.251
62526SOL    HW189352  12.491   4.101  14.338
62526SOL    HW289353  12.532   4.019  14.217
62527SOL     OW89354   4.943  10.753  14.423
62527SOL    HW189355   5.013  10.814  14.448
62527SOL    HW289356   4.988  10.678  14.385
62528SOL     OW89357   2.388   6.989   0.677
62528SOL    HW189358   2.335   7.017   0.751
62528SOL    HW289359   2.326   6.975   0.606
62529SOL     OW89360  13.127  10.537  13.403
62529SOL    HW189361  13.108  10.455  13.357
62529SOL    HW289362  13.213  10.523  13.442
62530SOL     OW89363   9.422   1.474   8.614
62530SOL    HW189364   9.434   1.492   8.707
62530SOL    HW289365   9.376   1.390   8.611
62531SOL     OW89366   8.953  13.523   4.170
62531SOL    HW189367   9.032  13.472   4.153
62531SOL    HW289368   8.983  13.596   4.224
62532SOL     OW89369  14.609  14.168   9.050
62532SOL    HW189370  14.540  14.147   8.987
62532SOL    HW289371  14.634  14.083   9.087
62533SOL     OW89372   3.431   9.251   6.184
62533SOL    HW189373   3.462   9.334   6.149
62533SOL    HW289374   3.410   9.270   6.275
62534SOL     OW89375  12.371   2.354   5.269
62534SOL    HW189376  12.330   2.296   5.333
62534SOL    HW289377  12.298   2.395   5.223
62535SOL     OW89378  10.635   6.690   2.322
62535SOL    HW189379  10.713   6.642   2.294
62535SOL    HW289380  10.601   6.730   2.242
62536SOL     OW89381   5.837   6.108  12.664
62536SOL    HW189382   5.868   6.173  12.726
62536SOL    HW289383   5.823   6.157  12.582
62537SOL     OW89384   2.263  12.959  14.159
62537SOL    HW189385   2.333  12.978  14.221
62537SOL    HW289386   2.263  13.033  14.098
62538SOL     OW89387   5.668  14.714   2.715
62538SOL    HW189388   5.649  14.620   2.720
62538SOL    HW289389   5.656  14.736   2.622
62539SOL     OW89390  12.002   8.073  11.733
62539SOL    HW189391  11.942   8.100  11.802
62539SOL    HW289392  12.085   8.057  11.778
62540SOL     OW89393   1.702   7.223  10.665
62540SOL    HW189394   1.623   7.230  10.611
62540SOL    HW289395   1.727   7.313  10.683
62541SOL     OW89396   6.087   7.782  10.710
62541SOL    HW189397   6.173   7.790  10.752
62541SOL    HW289398   6.101   7.817  10.621
62542SOL     OW89399   4.835   7.146   9.906
62542SOL    HW189400   4.833   7.188   9.820
62542SOL    HW289401   4.872   7.212   9.964
62543SOL     OW89402   5.619  10.956   3.701
62543SOL    HW189403   5.644  10.875   3.657
62543SOL    HW289404   5.570  11.005   3.634
62544SOL     OW89405  10.872  12.786   3.437
62544SOL    HW189406  10.798  12.842   3.459
62544SOL    HW289407  10.868  12.778   3.341
62545SOL     OW89408   0.751  12.690   0.828
62545SOL    HW189409   0.714  12.689   0.916
62545SOL    HW289410   0.733  12.602   0.794
62546SOL     OW89411  13.750  12.796   2.360
62546SOL    HW189412  13.660  12.808   2.329
62546SOL    HW289413  13.753  12.705   2.390
62547SOL     OW89414   3.637  13.120   8.287
62547SOL    HW189415   3.724  13.082   8.279
62547SOL    HW289416   3.581  13.047   8.314
62548SOL     OW89417  13.749  10.847  12.750
62548SOL    HW189418  13.843  10.851  12.733
62548SOL    HW289419  13.737  10.766  12.800
62549SOL     OW89420   2.041  10.412  10.308
62549SOL    HW189421   2.132  10.394  10.333
62549SOL    HW289422   2.011  10.330  10.268
62550SOL     OW89423   7.602  11.619   4.438
62550SOL    HW189424   7.687  11.620   4.394
62550SOL    HW289425   7.589  11.527   4.463
62551SOL     OW89426   2.174   4.773   0.313
62551SOL    HW189427   2.125   4.817   0.243
62551SOL    HW289428   2.255   4.743   0.271
62552SOL     OW89429  13.606  12.727   9.842
62552SOL    HW189430  13.545  12.784   9.889
62552SOL    HW289431  13.572  12.725   9.752
62553SOL     OW89432   0.650  11.972   3.332
62553SOL    HW189433   0.662  11.877   3.331
62553SOL    HW289434   0.559  11.984   3.357
62554SOL     OW89435  13.474  11.155  11.006
62554SOL    HW189436  13.469  11.161  11.101
62554SOL    HW289437  13.556  11.199  10.983
62555SOL     OW89438  11.320   3.968   8.855
62555SOL    HW189439  11.374   4.041   8.882
62555SOL    HW289440  11.364   3.891   8.891
62556SOL     OW89441   4.041   2.050   3.887
62556SOL    HW189442   4.132   2.079   3.891
62556SOL    HW289443   4.017   2.060   3.794
62557SOL     OW89444   2.653   2.426   5.545
62557SOL    HW189445   2.582   2.450   5.484
62557SOL    HW289446   2.607   2.399   5.625
62558SOL     OW89447  12.993  10.701   1.127
62558SOL    HW189448  12.919  10.661   1.083
62558SOL    HW289449  12.956  10.776   1.174
62559SOL     OW89450   5.043  14.598   5.672
62559SOL    HW189451   5.071  14.647   5.750
62559SOL    HW289452   5.114  14.612   5.608
62560SOL     OW89453  11.765  10.522   8.109
62560SOL    HW189454  11.685  10.563   8.142
62560SOL    HW289455  11.740  10.484   8.025
62561SOL     OW89456   3.954   9.723   1.935
62561SOL    HW189457   4.001   9.644   1.909
62561SOL    HW289458   3.999   9.752   2.015
62562SOL     OW89459   8.760  13.507  14.631
62562SOL    HW189460   8.677  13.537  14.594
62562SOL    HW289461   8.780  13.571  14.699
62563SOL     OW89462   6.509   2.475   0.458
62563SOL    HW189463   6.521   2.486   0.552
62563SOL    HW289464   6.419   2.444   0.449
62564SOL     OW89465  13.603  14.258  12.876
62564SOL    HW189466  13.617  14.213  12.792
62564SOL    HW289467  13.543  14.329  12.855
62565SOL     OW89468   9.226  10.088  10.137
62565SOL    HW189469   9.315  10.067  10.109
62565SOL    HW289470   9.237  10.153  10.206
62566SOL     OW89471   9.406  11.435   4.942
62566SOL    HW189472   9.317  11.467   4.953
62566SOL    HW289473   9.450  11.457   5.025
62567SOL     OW89474   8.487   4.520   7.475
62567SOL    HW189475   8.472   4.425   7.479
62567SOL    HW289476   8.497   4.539   7.382
62568SOL     OW89477   5.701  13.737   2.631
62568SOL    HW189478   5.628  13.753   2.572
62568SOL    HW289479   5.741  13.657   2.598
62569SOL     OW89480   3.678   9.870   6.206
62569SOL    HW189481   3.673   9.788   6.255
62569SOL    HW289482   3.605   9.922   6.238
62570SOL     OW89483  10.881   4.896  10.560
62570SOL    HW189484  10.828   4.974  10.545
62570SOL    HW289485  10.871   4.878  10.654
62571SOL     OW89486   4.162  12.471  14.871
62571SOL    HW189487   4.123  12.419   0.059
62571SOL    HW289488   4.256  12.456  14.880
62572SOL     OW89489  13.093  10.659   0.200
62572SOL    HW189490  13.006  10.620   0.195
62572SOL    HW289491  13.102  10.685   0.292
62573SOL     OW89492  13.304   6.012  13.315
62573SOL    HW189493  13.278   6.039  13.227
62573SOL    HW289494  13.392   5.977  13.305
62574SOL     OW89495   3.214   7.766   8.710
62574SOL    HW189496   3.142   7.718   8.667
62574SOL    HW289497   3.293   7.725   8.677
62575SOL     OW89498   5.494   3.551   6.213
62575SOL    HW189499   5.564   3.607   6.248
62575SOL    HW289500   5.509   3.552   6.118
62576SOL     OW89501   2.167   8.861  11.227
62576SOL    HW189502   2.238   8.800  11.208
62576SOL    HW289503   2.161   8.861  11.322
62577SOL     OW89504   3.101  12.258  14.713
62577SOL    HW189505   3.132  12.168  14.723
62577SOL    HW289506   3.172  12.304  14.669
62578SOL     OW89507   1.952   5.630  13.554
62578SOL    HW189508   1.935   5.593  13.641
62578SOL    HW289509   2.003   5.563  13.509
62579SOL     OW89510   0.690   7.035  12.832
62579SOL    HW189511   0.770   6.987  12.856
62579SOL    HW289512   0.704   7.060  12.741
62580SOL     OW89513   4.747  12.764   1.436
62580SOL    HW189514   4.757  12.806   1.351
62580SOL    HW289515   4.679  12.815   1.481
62581SOL     OW89516   4.154   7.033   7.237
62581SOL    HW189517   4.206   6.954   7.224
62581SOL    HW289518   4.108   7.045   7.154
62582SOL     OW89519   0.979   2.009   8.079
62582SOL    HW189520   1.073   2.015   8.063
62582SOL    HW289521   0.971   1.992   8.173
62583SOL     OW89522  10.864  13.897  10.717
62583SOL    HW189523  10.857  13.991  10.734
62583SOL    HW289524  10.777  13.872  10.686
62584SOL     OW89525  14.493  11.241   6.164
62584SOL    HW189526  14.401  11.255   6.188
62584SOL    HW289527  14.520  11.324   6.124
62585SOL     OW89528   5.877   1.347  13.847
62585SOL    HW189529   5.920   1.329  13.763
62585SOL    HW289530   5.903   1.436  13.868
62586SOL     OW89531   7.620  10.248   9.676
62586SOL    HW189532   7.707  10.251   9.715
62586SOL    HW289533   7.634  10.216   9.587
62587SOL     OW89534   5.805  11.688   9.779
62587SOL    HW189535   5.715  11.664   9.756
62587SOL    HW289536   5.855  11.672   9.698
62588SOL     OW89537   0.409   6.610   0.603
62588SOL    HW189538   0.366   6.674   0.660
62588SOL    HW289539   0.434   6.659   0.525
62589SOL     OW89540   9.596   4.516  10.229
62589SOL    HW189541   9.681   4.473  10.233
62589SOL    HW289542   9.616   4.610  10.235
62590SOL     OW89543   2.725   1.531   1.700
62590SOL    HW189544   2.745   1.528   1.793
62590SOL    HW289545   2.798   1.485   1.658
62591SOL     OW89546  12.110  11.148   0.602
62591SOL    HW189547  12.042  11.199   0.646
62591SOL    HW289548  12.093  11.161   0.508
62592SOL     OW89549   6.101   9.498   2.320
62592SOL    HW189550   6.021   9.550   2.328
62592SOL    HW289551   6.118   9.495   2.226
62593SOL     OW89552   8.897   9.429  10.812
62593SOL    HW189553   8.826   9.480  10.774
62593SOL    HW289554   8.961   9.419  10.741
62594SOL     OW89555   1.477  14.266  13.874
62594SOL    HW189556   1.550  14.277  13.935
62594SOL    HW289557   1.490  14.335  13.809
62595SOL     OW89558  11.715   4.744   7.405
62595SOL    HW189559  11.722   4.830   7.445
62595SOL    HW289560  11.768   4.751   7.325
62596SOL     OW89561   5.661  13.008  10.644
62596SOL    HW189562   5.580  12.963  10.620
62596SOL    HW289563   5.635  13.098  10.661
62597SOL     OW89564   6.650   2.903   2.132
62597SOL    HW189565   6.560   2.937   2.138
62597SOL    HW289566   6.697   2.947   2.203
62598SOL     OW89567   5.069  10.829   3.175
62598SOL    HW189568   4.994  10.829   3.115
62598SOL    HW289569   5.141  10.864   3.123
62599SOL     OW89570  10.345   0.132   6.104
62599SOL    HW189571  10.323   0.039   6.110
62599SOL    HW289572  10.374   0.157   6.192
62600SOL     OW89573   4.341  12.034  10.497
62600SOL    HW189574   4.340  11.964  10.562
62600SOL    HW289575   4.376  11.993  10.418
62601SOL     OW89576  10.873   9.674  11.657
62601SOL    HW189577  10.929   9.602  11.629
62601SOL    HW289578  10.841   9.713  11.576
62602SOL     OW89579  11.368  10.442   1.617
62602SOL    HW189580  11.364  10.535   1.640
62602SOL    HW289581  11.368  10.441   1.521
62603SOL     OW89582   2.764   0.887  10.620
62603SOL    HW189583   2.843   0.862  10.571
62603SOL    HW289584   2.706   0.924  10.554
62604SOL     OW89585   8.241  13.288   6.862
62604SOL    HW189586   8.182  13.259   6.792
62604SOL    HW289587   8.218  13.231   6.936
62605SOL     OW89588   7.957  13.414   2.154
62605SOL    HW189589   7.867  13.447   2.158
62605SOL    HW289590   8.009  13.489   2.125
62606SOL     OW89591   1.193  14.630   2.377
62606SOL    HW189592   1.270  14.655   2.427
62606SOL    HW289593   1.202  14.678   2.295
62607SOL     OW89594  12.598  12.050   9.262
62607SOL    HW189595  12.561  12.032   9.348
62607SOL    HW289596  12.692  12.065   9.279
62608SOL     OW89597   7.589  11.724   3.196
62608SOL    HW189598   7.626  11.777   3.125
62608SOL    HW289599   7.544  11.788   3.252
62609SOL     OW89600   5.240   0.250   0.201
62609SOL    HW189601   5.195   0.296   0.272
62609SOL    HW289602   5.214   0.159   0.212
62610SOL     OW89603  14.368  13.944   5.497
62610SOL    HW189604  14.450  13.937   5.448
62610SOL    HW289605  14.390  13.996   5.574
62611SOL     OW89606   4.441   2.817   9.271
62611SOL    HW189607   4.438   2.723   9.288
62611SOL    HW289608   4.430   2.825   9.176
62612SOL     OW89609   1.414   8.951   2.844
62612SOL    HW189610   1.428   8.856   2.844
62612SOL    HW289611   1.468   8.983   2.772
62613SOL     OW89612   5.528   9.796   3.920
62613SOL    HW189613   5.594   9.844   3.969
62613SOL    HW289614   5.448   9.848   3.930
62614SOL     OW89615  13.648   9.763   0.817
62614SOL    HW189616  13.586   9.833   0.798
62614SOL    HW289617  13.711   9.801   0.878
62615SOL     OW89618  11.297  14.629   8.357
62615SOL    HW189619  11.295  14.534   8.344
62615SOL    HW289620  11.218  14.660   8.314
62616SOL     OW89621  10.132   3.634   1.772
62616SOL    HW189622  10.185   3.554   1.769
62616SOL    HW289623  10.067   3.623   1.703
62617SOL     OW89624   8.771  10.595   5.157
62617SOL    HW189625   8.865  10.595   5.173
62617SOL    HW289626   8.733  10.636   5.235
62618SOL     OW89627   4.979   1.107  12.629
62618SOL    HW189628   4.976   1.043  12.558
62618SOL    HW289629   5.048   1.168  12.604
62619SOL     OW89630   0.913   3.247   6.942
62619SOL    HW189631   1.000   3.208   6.934
62619SOL    HW289632   0.859   3.180   6.983
62620SOL     OW89633   0.689  14.715   5.642
62620SOL    HW189634   0.666  14.719   5.735
62620SOL    HW289635   0.780  14.684   5.642
62621SOL     OW89636   5.903   2.267  11.235
62621SOL    HW189637   5.849   2.254  11.157
62621SOL    HW289638   5.927   2.179  11.264
62622SOL     OW89639  12.557   8.900   3.318
62622SOL    HW189640  12.575   8.807   3.311
62622SOL    HW289641  12.542   8.929   3.227
62623SOL     OW89642  11.738   1.514   7.723
62623SOL    HW189643  11.796   1.442   7.697
62623SOL    HW289644  11.797   1.588   7.735
62624SOL     OW89645   9.990   0.888   3.210
62624SOL    HW189646   9.932   0.908   3.284
62624SOL    HW289647  10.078   0.890   3.247
62625SOL     OW89648  12.851  10.057   3.355
62625SOL    HW189649  12.829  10.110   3.432
62625SOL    HW289650  12.794  10.091   3.286
62626SOL     OW89651   0.973   2.632  13.734
62626SOL    HW189652   1.022   2.681  13.801
62626SOL    HW289653   1.038   2.573  13.696
62627SOL     OW89654   8.303  11.442   9.930
62627SOL    HW189655   8.380  11.498   9.920
62627SOL    HW289656   8.268  11.433   9.842
62628SOL     OW89657   5.051  12.093   6.435
62628SOL    HW189658   4.970  12.065   6.393
62628SOL    HW289659   5.060  12.036   6.512
62629SOL     OW89660   4.027   8.808   6.626
62629SOL    HW189661   4.018   8.780   6.717
62629SOL    HW289662   4.115   8.845   6.620
62630SOL     OW89663   6.541   7.619  12.157
62630SOL    HW189664   6.481   7.693  12.153
62630SOL    HW289665   6.612   7.649  12.213
62631SOL     OW89666   2.110  10.679  11.657
62631SOL    HW189667   2.186  10.710  11.608
62631SOL    HW289668   2.083  10.598  11.613
62632SOL     OW89669   5.313   1.110   4.064
62632SOL    HW189670   5.333   1.186   4.118
62632SOL    HW289671   5.229   1.078   4.097
62633SOL     OW89672   3.488  10.880  11.495
62633SOL    HW189673   3.570  10.831  11.495
62633SOL    HW289674   3.513  10.969  11.518
62634SOL     OW89675  14.404   3.922   5.578
62634SOL    HW189676  14.320   3.968   5.575
62634SOL    HW289677  14.466   3.986   5.613
62635SOL     OW89678   9.469   5.191   9.643
62635SOL    HW189679   9.440   5.105   9.613
62635SOL    HW289680   9.400   5.251   9.615
62636SOL     OW89681   9.392   6.116   2.729
62636SOL    HW189682   9.451   6.041   2.732
62636SOL    HW289683   9.315   6.084   2.681
62637SOL     OW89684   3.796  12.447   0.468
62637SOL    HW189685   3.735  12.414   0.535
62637SOL    HW289686   3.838  12.368   0.434
62638SOL     OW89687  14.617   6.228   9.941
62638SOL    HW189688  14.648   6.263   9.858
62638SOL    HW289689  14.608   6.304   9.998
62639SOL     OW89690   9.526  10.704   8.762
62639SOL    HW189691   9.549  10.787   8.805
62639SOL    HW289692   9.443  10.722   8.719
62640SOL     OW89693   6.528   2.544   5.810
62640SOL    HW189694   6.555   2.623   5.856
62640SOL    HW289695   6.542   2.563   5.718
62641SOL     OW89696   6.267  10.030  10.134
62641SOL    HW189697   6.226  10.088  10.198
62641SOL    HW289698   6.248  10.071  10.049
62642SOL     OW89699   3.080   6.368  14.674
62642SOL    HW189700   3.028   6.366  14.755
62642SOL    HW289701   3.028   6.421  14.613
62643SOL     OW89702  14.236  12.400  14.142
62643SOL    HW189703  14.150  12.376  14.177
62643SOL    HW289704  14.288  12.422  14.219
62644SOL     OW89705  12.638   7.274  13.362
62644SOL    HW189706  12.606   7.206  13.421
62644SOL    HW289707  12.562   7.296  13.307
62645SOL     OW89708   1.081   0.280  10.146
62645SOL    HW189709   1.164   0.261  10.191
62645SOL    HW289710   1.106   0.333  10.070
62646SOL     OW89711   2.449   4.326   2.424
62646SOL    HW189712   2.512   4.398   2.424
62646SOL    HW289713   2.491   4.257   2.373
62647SOL     OW89714  10.136   5.857  12.644
62647SOL    HW189715  10.042   5.849  12.627
62647SOL    HW289716  10.164   5.928  12.586
62648SOL     OW89717   8.954   2.032  14.296
62648SOL    HW189718   8.883   1.969  14.287
62648SOL    HW289719   9.033   1.982  14.274
62649SOL     OW89720   1.328  11.317  13.478
62649SOL    HW189721   1.261  11.334  13.544
62649SOL    HW289722   1.285  11.335  13.394
62650SOL     OW89723   7.427   4.765   9.875
62650SOL    HW189724   7.482   4.699   9.916
62650SOL    HW289725   7.340   4.750   9.912
62651SOL     OW89726  10.411   5.454  12.850
62651SOL    HW189727  10.396   5.418  12.763
62651SOL    HW289728  10.454   5.384  12.898
62652SOL     OW89729   0.323   8.346   2.644
62652SOL    HW189730   0.335   8.441   2.640
62652SOL    HW289731   0.322   8.327   2.738
62653SOL     OW89732   5.541   2.541   3.883
62653SOL    HW189733   5.616   2.517   3.830
62653SOL    HW289734   5.568   2.622   3.927
62654SOL     OW89735   5.251   8.099   5.033
62654SOL    HW189736   5.168   8.091   5.080
62654SOL    HW289737   5.250   8.189   5.000
62655SOL     OW89738   2.612   4.206   0.398
62655SOL    HW189739   2.638   4.210   0.490
62655SOL    HW289740   2.517   4.197   0.400
62656SOL     OW89741   7.814  13.732   7.821
62656SOL    HW189742   7.796  13.806   7.880
62656SOL    HW289743   7.807  13.770   7.733
62657SOL     OW89744  10.902   2.562   7.115
62657SOL    HW189745  10.898   2.658   7.113
62657SOL    HW289746  10.979   2.542   7.169
62658SOL     OW89747   1.169   0.356   2.418
62658SOL    HW189748   1.122   0.436   2.442
62658SOL    HW289749   1.247   0.387   2.373
62659SOL     OW89750  14.321   0.850  13.701
62659SOL    HW189751  14.319   0.894  13.616
62659SOL    HW289752  14.286   0.915  13.762
62660SOL     OW89753   6.491   8.534   2.057
62660SOL    HW189754   6.416   8.512   2.001
62660SOL    HW289755   6.457   8.530   2.146
62661SOL     OW89756   3.390  13.668  11.529
62661SOL    HW189757   3.414  13.625  11.447
62661SOL    HW289758   3.296  13.654  11.537
62662SOL     OW89759  10.354   9.622  14.632
62662SOL    HW189760  10.285   9.612  14.567
62662SOL    HW289761  10.435   9.623  14.581
62663SOL     OW89762  13.417   5.350  11.847
62663SOL    HW189763  13.374   5.313  11.924
62663SOL    HW289764  13.501   5.382  11.879
62664SOL     OW89765   6.954   8.562   5.746
62664SOL    HW189766   7.007   8.568   5.826
62664SOL    HW289767   6.892   8.634   5.752
62665SOL     OW89768  12.185  12.824   7.979
62665SOL    HW189769  12.142  12.755   8.030
62665SOL    HW289770  12.218  12.885   8.044
62666SOL     OW89771   6.840   2.420   5.822
62666SOL    HW189772   6.796   2.349   5.776
62666SOL    HW289773   6.931   2.392   5.828
62667SOL     OW89774   8.146  14.861   6.969
62667SOL    HW189775   8.144  14.770   6.998
62667SOL    HW289776   8.055   0.009   6.976
62668SOL     OW89777  12.195   7.689   1.173
62668SOL    HW189778  12.258   7.617   1.170
62668SOL    HW289779  12.143   7.678   1.093
62669SOL     OW89780   4.028   6.856  10.773
62669SOL    HW189781   3.972   6.818  10.840
62669SOL    HW289782   4.024   6.951  10.790
62670SOL     OW89783   4.997   7.153   9.179
62670SOL    HW189784   4.934   7.111   9.121
62670SOL    HW289785   5.026   7.230   9.130
62671SOL     OW89786   2.991  13.565   0.671
62671SOL    HW189787   2.949  13.502   0.613
62671SOL    HW289788   3.037  13.511   0.736
62672SOL     OW89789  14.784  13.386   0.179
62672SOL    HW189790  14.843  13.330   0.129
62672SOL    HW289791  14.757  13.333   0.253
62673SOL     OW89792   2.419   9.183   4.092
62673SOL    HW189793   2.417   9.277   4.107
62673SOL    HW289794   2.487   9.169   4.027
62674SOL     OW89795   5.874   0.253  10.583
62674SOL    HW189796   5.956   0.208  10.602
62674SOL    HW289797   5.878   0.273  10.489
62675SOL     OW89798  12.931  10.345   9.965
62675SOL    HW189799  12.974  10.405  10.025
62675SOL    HW289800  12.909  10.269  10.018
62676SOL     OW89801   0.813   2.061   7.824
62676SOL    HW189802   0.805   1.969   7.848
62676SOL    HW289803   0.882   2.095   7.880
62677SOL     OW89804   6.052  14.872   8.415
62677SOL    HW189805   6.007  14.873   8.499
62677SOL    HW289806   6.027  14.789   8.375
62678SOL     OW89807  12.249   6.336   7.663
62678SOL    HW189808  12.278   6.247   7.643
62678SOL    HW289809  12.162   6.342   7.624
62679SOL     OW89810   0.621  14.350   7.114
62679SOL    HW189811   0.675  14.310   7.046
62679SOL    HW289812   0.542  14.295   7.117
62680SOL     OW89813  14.539   6.984  12.625
62680SOL    HW189814  14.458   6.933  12.616
62680SOL    HW289815  14.586   6.942  12.697
62681SOL     OW89816  10.305   7.828   5.548
62681SOL    HW189817  10.349   7.826   5.463
62681SOL    HW289818  10.270   7.740   5.559
62682SOL     OW89819  13.912   4.191   5.341
62682SOL    HW189820  13.886   4.181   5.433
62682SOL    HW289821  13.833   4.169   5.292
62683SOL     OW89822  10.840   6.911   3.066
62683SOL    HW189823  10.799   6.832   3.032
62683SOL    HW289824  10.806   6.981   3.010
62684SOL     OW89825   5.391  13.845  11.646
62684SOL    HW189826   5.352  13.870  11.562
62684SOL    HW289827   5.318  13.809  11.697
62685SOL     OW89828   1.008   2.964   2.742
62685SOL    HW189829   0.937   3.005   2.792
62685SOL    HW289830   1.068   3.036   2.724
62686SOL     OW89831   6.474  14.438   8.250
62686SOL    HW189832   6.489  14.527   8.280
62686SOL    HW289833   6.550  14.417   8.196
62687SOL     OW89834   0.313   2.257   9.327
62687SOL    HW189835   0.308   2.175   9.376
62687SOL    HW289836   0.372   2.238   9.255
62688SOL     OW89837   0.916   4.727  10.794
62688SOL    HW189838   0.991   4.716  10.735
62688SOL    HW289839   0.924   4.816  10.826
62689SOL     OW89840   7.470   6.413   4.448
62689SOL    HW189841   7.472   6.488   4.388
62689SOL    HW289842   7.395   6.429   4.505
62690SOL     OW89843   0.338  10.330  13.588
62690SOL    HW189844   0.267  10.317  13.524
62690SOL    HW289845   0.362  10.241  13.615
62691SOL     OW89846  10.183  14.830   9.851
62691SOL    HW189847  10.208  14.867   9.935
62691SOL    HW289848  10.245  14.866   9.788
62692SOL     OW89849   5.094  12.135  12.340
62692SOL    HW189850   5.004  12.165  12.343
62692SOL    HW289851   5.111  12.100  12.427
62693SOL     OW89852   7.494  12.438   2.092
62693SOL    HW189853   7.511  12.470   2.004
62693SOL    HW289854   7.400  12.452   2.105
62694SOL     OW89855   8.841  12.368   9.149
62694SOL    HW189856   8.867  12.460   9.153
62694SOL    HW289857   8.922  12.320   9.166
62695SOL     OW89858   4.186   8.896   8.993
62695SOL    HW189859   4.195   8.924   9.084
62695SOL    HW289860   4.096   8.865   8.986
62696SOL     OW89861  12.525   1.625  12.384
62696SOL    HW189862  12.554   1.633  12.293
62696SOL    HW289863  12.450   1.565  12.381
62697SOL     OW89864  13.284  11.154   6.205
62697SOL    HW189865  13.334  11.083   6.165
62697SOL    HW289866  13.199  11.153   6.161
62698SOL     OW89867   3.830   2.131   7.165
62698SOL    HW189868   3.831   2.142   7.070
62698SOL    HW289869   3.922   2.134   7.191
62699SOL     OW89870   4.529   5.778   0.395
62699SOL    HW189871   4.481   5.851   0.433
62699SOL    HW289872   4.579   5.742   0.468
62700SOL     OW89873  13.620  14.187  11.206
62700SOL    HW189874  13.551  14.220  11.148
62700SOL    HW289875  13.665  14.121  11.153
62701SOL     OW89876   3.639   1.577   8.276
62701SOL    HW189877   3.714   1.572   8.336
62701SOL    HW289878   3.612   1.486   8.263
62702SOL     OW89879   5.560   8.356   8.715
62702SOL    HW189880   5.569   8.356   8.620
62702SOL    HW289881   5.542   8.447   8.737
62703SOL     OW89882   3.708   7.430   7.989
62703SOL    HW189883   3.634   7.384   8.028
62703SOL    HW289884   3.763   7.454   8.063
62704SOL     OW89885   6.493  11.447  13.876
62704SOL    HW189886   6.558  11.491  13.930
62704SOL    HW289887   6.539  11.426  13.795
62705SOL     OW89888  11.461  13.652   0.201
62705SOL    HW189889  11.450  13.597   0.124
62705SOL    HW289890  11.537  13.706   0.182
62706SOL     OW89891  12.369   4.322   8.838
62706SOL    HW189892  12.274   4.327   8.850
62706SOL    HW289893  12.381   4.265   8.763
62707SOL     OW89894  11.007  11.563   8.205
62707SOL    HW189895  10.986  11.607   8.287
62707SOL    HW289896  11.074  11.618   8.164
62708SOL     OW89897   2.357  10.061   4.666
62708SOL    HW189898   2.404  10.140   4.638
62708SOL    HW289899   2.381   9.995   4.600
62709SOL     OW89900   1.223   4.334   2.594
62709SOL    HW189901   1.141   4.364   2.633
62709SOL    HW289902   1.204   4.246   2.561
62710SOL     OW89903   8.306  13.931   6.009
62710SOL    HW189904   8.280  13.873   5.938
62710SOL    HW289905   8.228  13.938   6.064
62711SOL     OW89906   0.874   1.878   9.175
62711SOL    HW189907   0.816   1.802   9.168
62711SOL    HW289908   0.846   1.936   9.103
62712SOL     OW89909   4.937   5.601   3.582
62712SOL    HW189910   4.975   5.632   3.500
62712SOL    HW289911   4.844   5.624   3.576
62713SOL     OW89912  10.996   5.498   9.484
62713SOL    HW189913  11.060   5.569   9.486
62713SOL    HW289914  11.027   5.440   9.415
62714SOL     OW89915  14.803  12.383  11.378
62714SOL    HW189916  14.754  12.392  11.296
62714SOL    HW289917  14.740  12.343  11.439
62715SOL     OW89918   5.751   7.664   7.253
62715SOL    HW189919   5.700   7.738   7.220
62715SOL    HW289920   5.778   7.690   7.341
62716SOL     OW89921  13.201   6.901  12.823
62716SOL    HW189922  13.188   6.880  12.730
62716SOL    HW289923  13.197   6.817  12.867
62717SOL     OW89924   8.009  14.657  14.271
62717SOL    HW189925   7.913  14.657  14.273
62717SOL    HW289926   8.035  14.591  14.335
62718SOL     OW89927   6.006   1.702   8.865
62718SOL    HW189928   6.057   1.709   8.946
62718SOL    HW289929   6.049   1.762   8.805
62719SOL     OW89930   4.593  11.873   2.930
62719SOL    HW189931   4.573  11.917   2.848
62719SOL    HW289932   4.514  11.884   2.983
62720SOL     OW89933  11.909   8.467  11.505
62720SOL    HW189934  11.862   8.429  11.579
62720SOL    HW289935  11.932   8.393  11.450
62721SOL     OW89936   5.041   9.176   4.654
62721SOL    HW189937   5.070   9.087   4.635
62721SOL    HW289938   5.072   9.228   4.580
62722SOL     OW89939  10.684  10.944  10.246
62722SOL    HW189940  10.603  10.899  10.270
62722SOL    HW289941  10.667  10.978  10.158
62723SOL     OW89942   4.367   0.108   3.001
62723SOL    HW189943   4.330   0.084   3.086
62723SOL    HW289944   4.346   0.201   2.991
62724SOL     OW89945   4.945   9.084  13.288
62724SOL    HW189946   4.857   9.084  13.251
62724SOL    HW289947   4.946   9.158  13.348
62725SOL     OW89948   5.197   6.107  12.609
62725SOL    HW189949   5.194   6.036  12.673
62725SOL    HW289950   5.282   6.098  12.566
62726SOL     OW89951  10.917  12.200   8.346
62726SOL    HW189952  10.882  12.171   8.430
62726SOL    HW289953  10.841  12.204   8.288
62727SOL     OW89954   9.175   8.255   2.264
62727SOL    HW189955   9.143   8.197   2.195
62727SOL    HW289956   9.141   8.341   2.240
62728SOL     OW89957  12.639   8.685   3.654
62728SOL    HW189958  12.590   8.679   3.572
62728SOL    HW289959  12.673   8.774   3.656
62729SOL     OW89960   7.154   2.618   8.917
62729SOL    HW189961   7.117   2.699   8.952
62729SOL    HW289962   7.241   2.642   8.886
62730SOL     OW89963   7.352   0.896   0.204
62730SOL    HW189964   7.351   0.988   0.229
62730SOL    HW289965   7.261   0.867   0.217
62731SOL     OW89966  14.338   1.933   5.228
62731SOL    HW189967  14.429   1.943   5.200
62731SOL    HW289968  14.328   1.997   5.299
62732SOL     OW89969  11.413   8.009  10.863
62732SOL    HW189970  11.429   8.075  10.796
62732SOL    HW289971  11.474   8.031  10.933
62733SOL     OW89972   1.151  12.563   5.703
62733SOL    HW189973   1.109  12.648   5.691
62733SOL    HW289974   1.177  12.561   5.795
62734SOL     OW89975   8.457   3.442   5.344
62734SOL    HW189976   8.542   3.435   5.388
62734SOL    HW289977   8.420   3.355   5.350
62735SOL     OW89978   4.053  13.001   0.909
62735SOL    HW189979   4.078  13.028   0.997
62735SOL    HW289980   3.966  12.961   0.920
62736SOL     OW89981   5.020  10.198   3.699
62736SOL    HW189982   5.098  10.207   3.754
62736SOL    HW289983   4.975  10.282   3.708
62737SOL     OW89984  10.354   3.073   1.878
62737SOL    HW189985  10.336   3.002   1.940
62737SOL    HW289986  10.290   3.141   1.901
62738SOL     OW89987   4.895   8.547   8.991
62738SOL    HW189988   4.957   8.501   9.046
62738SOL    HW289989   4.810   8.535   9.034
62739SOL     OW89990  13.212   0.170   2.132
62739SOL    HW189991  13.288   0.115   2.111
62739SOL    HW289992  13.137   0.113   2.122
62740SOL     OW89993   0.355   4.408   9.020
62740SOL    HW189994   0.405   4.489   9.007
62740SOL    HW289995   0.338   4.406   9.115
62741SOL     OW89996  12.472  11.682   7.444
62741SOL    HW189997  12.479  11.607   7.502
62741SOL    HW289998  12.543  11.740   7.472
62742SOL     OW89999   6.445   1.600   8.287
62742SOL    HW190000   6.524   1.606   8.342
62742SOL    HW290001   6.405   1.517   8.313
62743SOL     OW90002   1.136  11.841   1.226
62743SOL    HW190003   1.137  11.934   1.200
62743SOL    HW290004   1.045  11.824   1.249
62744SOL     OW90005   4.382   4.302   3.519
62744SOL    HW190006   4.326   4.368   3.479
62744SOL    HW290007   4.404   4.337   3.605
62745SOL     OW90008  14.693  12.503   8.241
62745SOL    HW190009  14.750  12.472   8.311
62745SOL    HW290010  14.606  12.473   8.265
62746SOL     OW90011   3.120   7.215   8.770
62746SOL    HW190012   3.128   7.127   8.732
62746SOL    HW290013   3.030   7.219   8.801
62747SOL     OW90014   0.282   6.410   2.335
62747SOL    HW190015   0.329   6.327   2.343
62747SOL    HW290016   0.335   6.463   2.276
62748SOL     OW90017   4.068  12.409   2.029
62748SOL    HW190018   4.125  12.356   2.083
62748SOL    HW290019   4.114  12.418   1.946
62749SOL     OW90020  10.491   5.247   2.103
62749SOL    HW190021  10.413   5.197   2.079
62749SOL    HW290022  10.506   5.304   2.028
62750SOL     OW90023   5.623   3.961   0.915
62750SOL    HW190024   5.598   4.049   0.944
62750SOL    HW290025   5.600   3.959   0.822
62751SOL     OW90026   3.757   5.121   5.959
62751SOL    HW190027   3.758   5.168   5.876
62751SOL    HW290028   3.748   5.189   6.025
62752SOL     OW90029   4.171   9.140   9.611
62752SOL    HW190030   4.141   9.226   9.581
62752SOL    HW290031   4.109   9.078   9.574
62753SOL     OW90032   4.254  14.559   1.910
62753SOL    HW190033   4.178  14.512   1.946
62753SOL    HW290034   4.329  14.504   1.933
62754SOL     OW90035  14.658   8.966  13.009
62754SOL    HW190036  14.720   8.893  13.016
62754SOL    HW290037  14.575   8.925  12.985
62755SOL     OW90038  11.311  12.301   4.938
62755SOL    HW190039  11.374  12.296   4.866
62755SOL    HW290040  11.337  12.232   4.998
62756SOL     OW90041   1.837   5.242  11.967
62756SOL    HW190042   1.780   5.248  12.044
62756SOL    HW290043   1.777   5.226  11.894
62757SOL     OW90044   5.698  12.144   0.519
62757SOL    HW190045   5.728  12.227   0.557
62757SOL    HW290046   5.774  12.110   0.472
62758SOL     OW90047  11.084   0.375   4.405
62758SOL    HW190048  11.167   0.422   4.408
62758SOL    HW290049  11.026   0.424   4.462
62759SOL     OW90050   9.595  10.673  13.982
62759SOL    HW190051   9.615  10.597  13.927
62759SOL    HW290052   9.593  10.638  14.071
62760SOL     OW90053  12.107   6.125   7.193
62760SOL    HW190054  12.034   6.180   7.219
62760SOL    HW290055  12.142   6.091   7.275
62761SOL     OW90056   9.569   0.690   2.928
62761SOL    HW190057   9.591   0.765   2.983
62761SOL    HW290058   9.479   0.669   2.952
62762SOL     OW90059  13.895   9.686   2.009
62762SOL    HW190060  13.806   9.653   1.994
62762SOL    HW290061  13.939   9.672   1.925
62763SOL     OW90062   4.605   1.988   1.725
62763SOL    HW190063   4.589   1.895   1.740
62763SOL    HW290064   4.520   2.023   1.700
62764SOL     OW90065  10.645   7.864   4.659
62764SOL    HW190066  10.655   7.811   4.580
62764SOL    HW290067  10.657   7.802   4.731
62765SOL     OW90068   5.753   0.253   1.507
62765SOL    HW190069   5.660   0.231   1.497
62765SOL    HW290070   5.753   0.340   1.547
62766SOL     OW90071   5.594   9.251   1.006
62766SOL    HW190072   5.668   9.222   1.059
62766SOL    HW290073   5.603   9.346   1.001
62767SOL     OW90074  10.235   3.083   7.234
62767SOL    HW190075  10.166   3.109   7.173
62767SOL    HW290076  10.282   3.164   7.254
62768SOL     OW90077   9.313  11.690   3.265
62768SOL    HW190078   9.246  11.750   3.231
62768SOL    HW290079   9.394  11.739   3.261
62769SOL     OW90080   1.045   3.292   4.491
62769SOL    HW190081   1.041   3.203   4.526
62769SOL    HW290082   1.131   3.296   4.449
62770SOL     OW90083   4.835  12.181  12.287
62770SOL    HW190084   4.802  12.110  12.342
62770SOL    HW290085   4.826  12.149  12.197
62771SOL     OW90086   7.978   1.434   2.094
62771SOL    HW190087   7.964   1.340   2.081
62771SOL    HW290088   8.029   1.439   2.175
62772SOL     OW90089  12.494   7.317  13.658
62772SOL    HW190090  12.418   7.266  13.688
62772SOL    HW290091  12.569   7.271  13.694
62773SOL     OW90092   0.245   7.741   0.586
62773SOL    HW190093   0.234   7.661   0.637
62773SOL    HW290094   0.203   7.723   0.502
62774SOL     OW90095   2.814   5.886  14.570
62774SOL    HW190096   2.719   5.898  14.567
62774SOL    HW290097   2.850   5.964  14.527
62775SOL     OW90098   5.972   0.547  14.792
62775SOL    HW190099   6.033   0.615  14.817
62775SOL    HW290100   5.957   0.497  14.872
62776SOL     OW90101   0.002   2.411   2.635
62776SOL    HW190102   0.057   2.339   2.666
62776SOL    HW290103  14.873   2.467   2.712
62777SOL     OW90104   8.126  14.191   9.656
62777SOL    HW190105   8.085  14.206   9.741
62777SOL    HW290106   8.183  14.267   9.643
62778SOL     OW90107   6.355   7.969   8.659
62778SOL    HW190108   6.354   8.058   8.694
62778SOL    HW290109   6.446   7.952   8.638
62779SOL     OW90110   0.781   2.797   5.470
62779SOL    HW190111   0.771   2.702   5.476
62779SOL    HW290112   0.697   2.832   5.499
62780SOL     OW90113   6.433  12.870  13.242
62780SOL    HW190114   6.445  12.935  13.312
62780SOL    HW290115   6.355  12.899  13.196
62781SOL     OW90116  10.484   0.225   5.653
62781SOL    HW190117  10.502   0.144   5.700
62781SOL    HW290118  10.404   0.259   5.692
62782SOL     OW90119  14.793   9.916   1.752
62782SOL    HW190120  14.751  10.001   1.746
62782SOL    HW290121  14.854   9.914   1.677
62783SOL     OW90122   8.808  12.815  13.789
62783SOL    HW190123   8.818  12.762  13.868
62783SOL    HW290124   8.822  12.905  13.820
62784SOL     OW90125  14.753   9.855   2.987
62784SOL    HW190126  14.667   9.857   2.945
62784SOL    HW290127  14.739   9.805   3.068
62785SOL     OW90128   0.954  10.373   5.982
62785SOL    HW190129   0.905  10.324   5.916
62785SOL    HW290130   1.039  10.388   5.941
62786SOL     OW90131   6.614   7.740  11.822
62786SOL    HW190132   6.521   7.717  11.825
62786SOL    HW290133   6.650   7.686  11.752
62787SOL     OW90134   1.175   8.163   7.722
62787SOL    HW190135   1.185   8.255   7.746
62787SOL    HW290136   1.085   8.142   7.746
62788SOL     OW90137  12.541  11.772   4.209
62788SOL    HW190138  12.600  11.758   4.282
62788SOL    HW290139  12.463  11.720   4.230
62789SOL     OW90140   4.685  11.772   4.482
62789SOL    HW190141   4.741  11.819   4.420
62789SOL    HW290142   4.746  11.720   4.534
62790SOL     OW90143  12.918   2.926  13.071
62790SOL    HW190144  12.847   2.862  13.077
62790SOL    HW290145  12.926   2.962  13.160
62791SOL     OW90146   1.162  11.171   0.931
62791SOL    HW190147   1.163  11.147   1.023
62791SOL    HW290148   1.076  11.142   0.900
62792SOL     OW90149   0.946   2.913   1.234
62792SOL    HW190150   1.026   2.965   1.240
62792SOL    HW290151   0.902   2.927   1.317
62793SOL     OW90152   0.601   5.798   5.822
62793SOL    HW190153   0.657   5.862   5.866
62793SOL    HW290154   0.514   5.812   5.858
62794SOL     OW90155   5.663  13.197   7.169
62794SOL    HW190156   5.724  13.187   7.096
62794SOL    HW290157   5.715  13.177   7.247
62795SOL     OW90158  10.682  10.122   6.247
62795SOL    HW190159  10.678  10.027   6.233
62795SOL    HW290160  10.776  10.141   6.254
62796SOL     OW90161   3.343   1.593  10.389
62796SOL    HW190162   3.335   1.501  10.414
62796SOL    HW290163   3.288   1.639  10.452
62797SOL     OW90164  11.288   3.468  13.212
62797SOL    HW190165  11.231   3.544  13.218
62797SOL    HW290166  11.261   3.412  13.285
62798SOL     OW90167  14.155  12.310   6.321
62798SOL    HW190168  14.221  12.244   6.341
62798SOL    HW290169  14.190  12.391   6.359
62799SOL     OW90170   6.094  10.115  11.963
62799SOL    HW190171   6.032  10.043  11.978
62799SOL    HW290172   6.080  10.174  12.037
62800SOL     OW90173  12.970  13.398   9.486
62800SOL    HW190174  12.886  13.443   9.494
62800SOL    HW290175  12.990  13.400   9.393
62801SOL     OW90176   5.879   9.684  11.023
62801SOL    HW190177   5.851   9.615  10.963
62801SOL    HW290178   5.807   9.692  11.085
62802SOL     OW90179   2.127   6.195   0.632
62802SOL    HW190180   2.064   6.244   0.685
62802SOL    HW290181   2.155   6.123   0.688
62803SOL     OW90182   0.203   0.559  13.626
62803SOL    HW190183   0.244   0.613  13.694
62803SOL    HW290184   0.136   0.510  13.672
62804SOL     OW90185   9.116  14.701   2.008
62804SOL    HW190186   9.081  14.786   2.036
62804SOL    HW290187   9.210  14.715   2.002
62805SOL     OW90188  11.390  12.400   4.511
62805SOL    HW190189  11.315  12.360   4.467
62805SOL    HW290190  11.460  12.335   4.506
62806SOL     OW90191   7.807  10.925  13.982
62806SOL    HW190192   7.777  10.978  14.056
62806SOL    HW290193   7.744  10.853  13.978
62807SOL     OW90194  10.955   7.004  11.740
62807SOL    HW190195  10.897   6.975  11.809
62807SOL    HW290196  10.915   7.085  11.707
62808SOL     OW90197   2.762   0.726   7.396
62808SOL    HW190198   2.856   0.723   7.415
62808SOL    HW290199   2.721   0.684   7.471
62809SOL     OW90200  14.807   0.189   7.375
62809SOL    HW190201  14.872   0.127   7.407
62809SOL    HW290202  14.723   0.155   7.407
62810SOL     OW90203   6.823  10.962   6.400
62810SOL    HW190204   6.851  10.979   6.490
62810SOL    HW290205   6.778  11.043   6.374
62811SOL     OW90206   2.560   6.853  10.688
62811SOL    HW190207   2.588   6.901  10.610
62811SOL    HW290208   2.465   6.847  10.680
62812SOL     OW90209   7.081   2.721   7.319
62812SOL    HW190210   7.166   2.676   7.317
62812SOL    HW290211   7.051   2.709   7.410
62813SOL     OW90212   7.775  14.669   9.708
62813SOL    HW190213   7.694  14.618   9.709
62813SOL    HW290214   7.834  14.619   9.652
62814SOL     OW90215   3.525  12.024   6.952
62814SOL    HW190216   3.606  12.045   6.997
62814SOL    HW290217   3.465  11.994   7.021
62815SOL     OW90218   9.482  13.253   5.122
62815SOL    HW190219   9.566  13.234   5.164
62815SOL    HW290220   9.445  13.325   5.173
62816SOL     OW90221   2.165  10.171  10.003
62816SOL    HW190222   2.095  10.143  10.062
62816SOL    HW290223   2.245  10.140  10.046
62817SOL     OW90224   7.293  12.844  14.434
62817SOL    HW190225   7.297  12.929  14.477
62817SOL    HW290226   7.377  12.836  14.388
62818SOL     OW90227   7.443   6.353   0.805
62818SOL    HW190228   7.389   6.373   0.881
62818SOL    HW290229   7.410   6.411   0.736
62819SOL     OW90230  12.863   6.411  10.832
62819SOL    HW190231  12.944   6.363  10.849
62819SOL    HW290232  12.795   6.343  10.827
62820SOL     OW90233  14.563   2.186   3.585
62820SOL    HW190234  14.470   2.200   3.567
62820SOL    HW290235  14.564   2.124   3.658
62821SOL     OW90236   3.004   4.180   3.090
62821SOL    HW190237   2.992   4.229   3.008
62821SOL    HW290238   2.921   4.136   3.104
62822SOL     OW90239  14.207   9.048  11.418
62822SOL    HW190240  14.171   8.960  11.433
62822SOL    HW290241  14.176   9.099  11.494
62823SOL     OW90242  10.542   9.357   2.391
62823SOL    HW190243  10.587   9.405   2.322
62823SOL    HW290244  10.558   9.265   2.371
62824SOL     OW90245   7.527   1.671   1.047
62824SOL    HW190246   7.548   1.707   1.133
62824SOL    HW290247   7.529   1.746   0.988
62825SOL     OW90248  10.476  10.937   3.281
62825SOL    HW190249  10.484  11.031   3.265
62825SOL    HW290250  10.382  10.921   3.284
62826SOL     OW90251   3.619   1.209  12.031
62826SOL    HW190252   3.686   1.227  12.097
62826SOL    HW290253   3.537   1.233  12.073
62827SOL     OW90254   3.982   1.857   2.952
62827SOL    HW190255   3.910   1.908   2.988
62827SOL    HW290256   3.957   1.766   2.967
62828SOL     OW90257  10.289   1.551  12.683
62828SOL    HW190258  10.251   1.579  12.766
62828SOL    HW290259  10.232   1.591  12.616
62829SOL     OW90260  12.269   7.475   8.681
62829SOL    HW190261  12.290   7.518   8.764
62829SOL    HW290262  12.179   7.502   8.662
62830SOL     OW90263  10.001  10.565  10.696
62830SOL    HW190264   9.977  10.475  10.672
62830SOL    HW290265   9.969  10.575  10.786
62831SOL     OW90266  11.160  11.320   8.763
62831SOL    HW190267  11.078  11.369   8.769
62831SOL    HW290268  11.209  11.345   8.842
62832SOL     OW90269   9.267   2.723   9.702
62832SOL    HW190270   9.235   2.704   9.614
62832SOL    HW290271   9.261   2.640   9.749
62833SOL     OW90272   7.524   3.498   9.643
62833SOL    HW190273   7.447   3.534   9.687
62833SOL    HW290274   7.563   3.573   9.598
62834SOL     OW90275   8.586   1.236   7.068
62834SOL    HW190276   8.496   1.224   7.037
62834SOL    HW290277   8.623   1.302   7.009
62835SOL     OW90278   9.482  13.501   0.439
62835SOL    HW190279   9.568  13.473   0.470
62835SOL    HW290280   9.431  13.514   0.519
62836SOL     OW90281  14.185  10.993  13.345
62836SOL    HW190282  14.237  11.072  13.358
62836SOL    HW290283  14.127  10.990  13.421
62837SOL     OW90284   7.218   1.833  11.950
62837SOL    HW190285   7.308   1.799  11.956
62837SOL    HW290286   7.171   1.766  11.901
62838SOL     OW90287  10.390  12.970  10.133
62838SOL    HW190288  10.356  13.024  10.061
62838SOL    HW290289  10.483  12.990  10.136
62839SOL     OW90290  12.015   8.862   2.753
62839SOL    HW190291  12.041   8.848   2.663
62839SOL    HW290292  12.083   8.919   2.790
62840SOL     OW90293  11.968   7.781   0.883
62840SOL    HW190294  11.996   7.694   0.912
62840SOL    HW290295  12.017   7.795   0.802
62841SOL     OW90296   9.934  12.080   0.057
62841SOL    HW190297   9.912  12.058  14.848
62841SOL    HW290298   9.957  11.996   0.097
62842SOL     OW90299   2.950   8.549   7.172
62842SOL    HW190300   2.856   8.560   7.160
62842SOL    HW290301   2.972   8.473   7.118
62843SOL     OW90302   6.816  12.064  12.808
62843SOL    HW190303   6.749  12.024  12.863
62843SOL    HW290304   6.797  12.158  12.811
62844SOL     OW90305  11.687   4.217  12.958
62844SOL    HW190306  11.612   4.243  12.905
62844SOL    HW290307  11.736   4.156  12.902
62845SOL     OW90308  13.351  14.143  14.055
62845SOL    HW190309  13.390  14.148  13.968
62845SOL    HW290310  13.420  14.172  14.114
62846SOL     OW90311  13.584   0.940  10.674
62846SOL    HW190312  13.544   0.902  10.752
62846SOL    HW290313  13.516   0.936  10.607
62847SOL     OW90314  11.285   2.105   1.044
62847SOL    HW190315  11.312   2.105   1.136
62847SOL    HW290316  11.230   2.183   1.035
62848SOL     OW90317  10.727   6.602  11.724
62848SOL    HW190318  10.632   6.604  11.719
62848SOL    HW290319  10.750   6.510  11.713
62849SOL     OW90320   6.386  11.951   8.920
62849SOL    HW190321   6.348  11.902   8.993
62849SOL    HW290322   6.359  12.041   8.935
62850SOL     OW90323   6.605   7.392   4.829
62850SOL    HW190324   6.646   7.434   4.753
62850SOL    HW290325   6.529   7.347   4.794
62851SOL     OW90326   3.272   9.849   5.729
62851SOL    HW190327   3.356   9.813   5.698
62851SOL    HW290328   3.209   9.779   5.713
62852SOL     OW90329   8.310  12.441  11.962
62852SOL    HW190330   8.278  12.448  12.052
62852SOL    HW290331   8.387  12.385  11.968
62853SOL     OW90332   7.725  13.376  14.611
62853SOL    HW190333   7.821  13.375  14.609
62853SOL    HW290334   7.704  13.394  14.703
62854SOL     OW90335   0.604   3.420   6.742
62854SOL    HW190336   0.510   3.417   6.758
62854SOL    HW290337   0.617   3.365   6.664
62855SOL     OW90338  14.748  12.776   0.068
62855SOL    HW190339  14.698  12.733  14.880
62855SOL    HW290340  14.715  12.736   0.149
62856SOL     OW90341   7.451   2.582  11.860
62856SOL    HW190342   7.463   2.675  11.880
62856SOL    HW290343   7.507   2.567  11.784
62857SOL     OW90344   0.078   5.917  13.997
62857SOL    HW190345   0.020   5.844  14.021
62857SOL    HW290346   0.089   5.909  13.903
62858SOL     OW90347   1.056  14.621   4.791
62858SOL    HW190348   1.036  14.616   4.698
62858SOL    HW290349   1.107  14.542   4.809
62859SOL     OW90350   2.227   2.648   1.471
62859SOL    HW190351   2.311   2.601   1.471
62859SOL    HW290352   2.162   2.581   1.492
62860SOL     OW90353   8.519   5.521   4.085
62860SOL    HW190354   8.560   5.502   4.169
62860SOL    HW290355   8.592   5.548   4.029
62861SOL     OW90356  12.416   3.261  14.454
62861SOL    HW190357  12.488   3.254  14.391
62861SOL    HW290358  12.459   3.285  14.536
62862SOL     OW90359  10.338   8.283   9.222
62862SOL    HW190360  10.278   8.356   9.236
62862SOL    HW290361  10.287   8.219   9.172
62863SOL     OW90362   5.198   9.575   7.836
62863SOL    HW190363   5.169   9.496   7.790
62863SOL    HW290364   5.153   9.571   7.920
62864SOL     OW90365   6.795  10.186  11.815
62864SOL    HW190366   6.758  10.098  11.809
62864SOL    HW290367   6.745  10.228  11.885
62865SOL     OW90368   0.555   4.579   5.773
62865SOL    HW190369   0.507   4.642   5.719
62865SOL    HW290370   0.511   4.495   5.755
62866SOL     OW90371   5.302   2.708   9.948
62866SOL    HW190372   5.392   2.679   9.959
62866SOL    HW290373   5.252   2.627   9.934
62867SOL     OW90374   9.025  11.847  14.263
62867SOL    HW190375   9.076  11.808  14.334
62867SOL    HW290376   8.942  11.872  14.304
62868SOL     OW90377  13.418   2.038   1.502
62868SOL    HW190378  13.372   1.955   1.494
62868SOL    HW290379  13.421   2.055   1.597
62869SOL     OW90380  14.756  13.119   0.411
62869SOL    HW190381  14.677  13.065   0.417
62869SOL    HW290382  14.828  13.055   0.409
62870SOL     OW90383   3.182   4.633   4.833
62870SOL    HW190384   3.270   4.663   4.809
62870SOL    HW290385   3.190   4.607   4.925
62871SOL     OW90386   5.920   5.063   7.972
62871SOL    HW190387   5.953   5.153   7.968
62871SOL    HW290388   5.825   5.071   7.973
62872SOL     OW90389   5.972  10.608  13.694
62872SOL    HW190390   5.907  10.610  13.624
62872SOL    HW290391   5.965  10.520  13.731
62873SOL     OW90392   6.129   5.238   8.332
62873SOL    HW190393   6.145   5.319   8.283
62873SOL    HW290394   6.166   5.169   8.277
62874SOL     OW90395   2.838   0.623  11.278
62874SOL    HW190396   2.790   0.610  11.196
62874SOL    HW290397   2.865   0.535  11.305
62875SOL     OW90398   4.186  14.259  14.157
62875SOL    HW190399   4.220  14.193  14.097
62875SOL    HW290400   4.094  14.270  14.131
62876SOL     OW90401   8.079   6.602  11.450
62876SOL    HW190402   8.125   6.549  11.515
62876SOL    HW290403   7.998   6.554  11.433
62877SOL     OW90404   0.494   6.257  13.253
62877SOL    HW190405   0.546   6.284  13.178
62877SOL    HW290406   0.558   6.225  13.317
62878SOL     OW90407  12.008  10.825  12.451
62878SOL    HW190408  12.089  10.867  12.480
62878SOL    HW290409  12.000  10.848  12.359
62879SOL     OW90410   6.028   7.665   0.784
62879SOL    HW190411   5.943   7.693   0.816
62879SOL    HW290412   6.091   7.702   0.846
62880SOL     OW90413  12.081   1.137  10.257
62880SOL    HW190414  11.991   1.163  10.235
62880SOL    HW290415  12.084   1.140  10.352
62881SOL     OW90416   3.142   5.134   6.518
62881SOL    HW190417   3.214   5.168   6.569
62881SOL    HW290418   3.140   5.040   6.537
62882SOL     OW90419  13.076  10.561  14.832
62882SOL    HW190420  13.000  10.512  14.863
62882SOL    HW290421  13.098  10.619   0.024
62883SOL     OW90422   1.478   0.469  11.241
62883SOL    HW190423   1.412   0.486  11.308
62883SOL    HW290424   1.474   0.374  11.227
62884SOL     OW90425   9.614   8.827   6.035
62884SOL    HW190426   9.701   8.789   6.040
62884SOL    HW290427   9.561   8.762   5.989
62885SOL     OW90428   3.701   2.074   2.542
62885SOL    HW190429   3.764   2.026   2.488
62885SOL    HW290430   3.620   2.073   2.491
62886SOL     OW90431   6.652  14.741  12.276
62886SOL    HW190432   6.651  14.651  12.244
62886SOL    HW290433   6.740  14.772  12.255
62887SOL     OW90434  10.554   6.670  14.761
62887SOL    HW190435  10.615   6.740  14.736
62887SOL    HW290436  10.541   6.683  14.855
62888SOL     OW90437   6.209   6.120   9.717
62888SOL    HW190438   6.141   6.100   9.781
62888SOL    HW290439   6.239   6.035   9.686
62889SOL     OW90440  11.781  10.397   0.100
62889SOL    HW190441  11.728  10.329   0.059
62889SOL    HW290442  11.859  10.352   0.130
62890SOL     OW90443   3.543   0.409   9.301
62890SOL    HW190444   3.590   0.449   9.228
62890SOL    HW290445   3.569   0.317   9.299
62891SOL     OW90446   1.781  11.528  13.934
62891SOL    HW190447   1.768  11.622  13.944
62891SOL    HW290448   1.734  11.505  13.853
62892SOL     OW90449   4.034   5.001   7.139
62892SOL    HW190450   3.943   4.972   7.148
62892SOL    HW290451   4.080   4.924   7.105
62893SOL     OW90452   0.100   2.880   7.236
62893SOL    HW190453   0.052   2.958   7.210
62893SOL    HW290454   0.151   2.908   7.312
62894SOL     OW90455   0.602   8.350   2.862
62894SOL    HW190456   0.558   8.394   2.934
62894SOL    HW290457   0.659   8.285   2.904
62895SOL     OW90458  14.826   8.823   4.361
62895SOL    HW190459   0.034   8.847   4.335
62895SOL    HW290460  14.770   8.868   4.298
62896SOL     OW90461  14.732   9.230   0.662
62896SOL    HW190462  14.787   9.202   0.589
62896SOL    HW290463  14.758   9.320   0.679
62897SOL     OW90464   4.797  13.442   5.672
62897SOL    HW190465   4.844  13.376   5.621
62897SOL    HW290466   4.850  13.455   5.750
62898SOL     OW90467   9.507   1.678  12.836
62898SOL    HW190468   9.568   1.704  12.766
62898SOL    HW290469   9.446   1.752  12.843
62899SOL     OW90470   2.121   2.881   6.683
62899SOL    HW190471   2.139   2.799   6.636
62899SOL    HW290472   2.095   2.943   6.615
62900SOL     OW90473   0.692  14.455   3.468
62900SOL    HW190474   0.728  14.544   3.471
62900SOL    HW290475   0.603  14.467   3.434
62901SOL     OW90476   4.600   1.326  12.602
62901SOL    HW190477   4.570   1.268  12.532
62901SOL    HW290478   4.601   1.414  12.562
62902SOL     OW90479   7.373   7.750   0.920
62902SOL    HW190480   7.281   7.727   0.906
62902SOL    HW290481   7.397   7.802   0.843
62903SOL     OW90482   2.929  10.382   2.750
62903SOL    HW190483   2.956  10.402   2.840
62903SOL    HW290484   3.008  10.394   2.698
62904SOL     OW90485   9.936   0.243   1.796
62904SOL    HW190486   9.938   0.308   1.867
62904SOL    HW290487   9.852   0.258   1.752
62905SOL     OW90488   4.452   0.306  12.812
62905SOL    HW190489   4.497   0.265  12.886
62905SOL    HW290490   4.519   0.360  12.770
62906SOL     OW90491   1.018   2.019   7.114
62906SOL    HW190492   1.029   2.086   7.181
62906SOL    HW290493   0.956   2.057   7.051
62907SOL     OW90494   4.200   1.012   7.002
62907SOL    HW190495   4.187   1.013   7.096
62907SOL    HW290496   4.117   0.979   6.967
62908SOL     OW90497  12.914   2.044   5.881
62908SOL    HW190498  12.944   2.124   5.925
62908SOL    HW290499  12.825   2.031   5.914
62909SOL     OW90500   9.085   3.147  10.571
62909SOL    HW190501   9.090   3.213  10.640
62909SOL    HW290502   9.171   3.105  10.571
62910SOL     OW90503  10.215   9.819  13.611
62910SOL    HW190504  10.176   9.905  13.597
62910SOL    HW290505  10.164   9.759  13.556
62911SOL     OW90506  11.820   5.573   7.548
62911SOL    HW190507  11.746   5.576   7.609
62911SOL    HW290508  11.787   5.524   7.473
62912SOL     OW90509   7.487   7.747   5.671
62912SOL    HW190510   7.578   7.716   5.665
62912SOL    HW290511   7.476   7.769   5.764
62913SOL     OW90512   2.891   7.847   0.092
62913SOL    HW190513   2.948   7.835   0.016
62913SOL    HW290514   2.879   7.758   0.126
62914SOL     OW90515   3.257   4.093   0.740
62914SOL    HW190516   3.266   4.028   0.809
62914SOL    HW290517   3.241   4.175   0.786
62915SOL     OW90518   9.763   1.412   3.732
62915SOL    HW190519   9.817   1.491   3.735
62915SOL    HW290520   9.733   1.407   3.641
62916SOL     OW90521   0.173  12.825   1.272
62916SOL    HW190522   0.123  12.763   1.219
62916SOL    HW290523   0.265  12.800   1.259
62917SOL     OW90524   7.369  13.750  11.888
62917SOL    HW190525   7.453  13.792  11.903
62917SOL    HW290526   7.309  13.794  11.948
62918SOL     OW90527   2.059  13.250  10.660
62918SOL    HW190528   2.004  13.319  10.624
62918SOL    HW290529   1.999  13.193  10.708
62919SOL     OW90530   6.968   8.840   8.213
62919SOL    HW190531   7.053   8.882   8.228
62919SOL    HW290532   6.961   8.832   8.118
62920SOL     OW90533  11.900   7.276   8.714
62920SOL    HW190534  11.882   7.245   8.803
62920SOL    HW290535  11.814   7.293   8.677
62921SOL     OW90536  12.262   2.329  12.882
62921SOL    HW190537  12.176   2.306  12.918
62921SOL    HW290538  12.247   2.409  12.832
62922SOL     OW90539   9.540  14.443   8.300
62922SOL    HW190540   9.529  14.534   8.329
62922SOL    HW290541   9.635  14.430   8.300
62923SOL     OW90542  13.028   8.181   8.965
62923SOL    HW190543  13.073   8.146   9.042
62923SOL    HW290544  13.061   8.129   8.892
62924SOL     OW90545   2.132  13.175   8.122
62924SOL    HW190546   2.205  13.120   8.093
62924SOL    HW290547   2.060  13.113   8.135
62925SOL     OW90548   4.013   1.645   4.024
62925SOL    HW190549   4.002   1.585   3.950
62925SOL    HW290550   3.929   1.645   4.068
62926SOL     OW90551   0.973   0.373   9.251
62926SOL    HW190552   1.053   0.423   9.270
62926SOL    HW290553   0.935   0.417   9.175
62927SOL     OW90554   8.128  14.720   9.600
62927SOL    HW190555   8.095  14.631   9.611
62927SOL    HW290556   8.221  14.714   9.622
62928SOL     OW90557   4.378   5.704   5.576
62928SOL    HW190558   4.431   5.783   5.592
62928SOL    HW290559   4.369   5.664   5.663
62929SOL     OW90560   2.481   3.506   6.142
62929SOL    HW190561   2.477   3.593   6.182
62929SOL    HW290562   2.395   3.467   6.161
62930SOL     OW90563   0.726   5.988  14.818
62930SOL    HW190564   0.735   5.919   0.003
62930SOL    HW290565   0.802   6.045  14.831
62931SOL     OW90566  11.518  12.705   3.840
62931SOL    HW190567  11.438  12.656   3.858
62931SOL    HW290568  11.563  12.708   3.925
62932SOL     OW90569   3.858   9.746  12.774
62932SOL    HW190570   3.847   9.658  12.811
62932SOL    HW290571   3.950   9.767  12.790
62933SOL     OW90572  10.341  13.500   9.238
62933SOL    HW190573  10.253  13.521   9.208
62933SOL    HW290574  10.350  13.545   9.322
62934SOL     OW90575  10.872   8.225   6.907
62934SOL    HW190576  10.817   8.256   6.979
62934SOL    HW290577  10.959   8.216   6.947
62935SOL     OW90578   4.803  12.843   0.016
62935SOL    HW190579   4.876  12.899   0.043
62935SOL    HW290580   4.810  12.839  14.802
62936SOL     OW90581   5.694   7.736   5.063
62936SOL    HW190582   5.618   7.772   5.109
62936SOL    HW290583   5.717   7.658   5.112
62937SOL     OW90584   5.042  10.535   5.409
62937SOL    HW190585   5.084  10.586   5.478
62937SOL    HW290586   5.102  10.541   5.335
62938SOL     OW90587   1.305   3.240  10.259
62938SOL    HW190588   1.379   3.213  10.206
62938SOL    HW290589   1.266   3.313  10.211
62939SOL     OW90590   0.051   5.900  12.724
62939SOL    HW190591   0.108   5.853  12.662
62939SOL    HW290592  14.868   5.943  12.669
62940SOL     OW90593   9.792   8.361   9.879
62940SOL    HW190594   9.739   8.440   9.895
62940SOL    HW290595   9.761   8.299   9.945
62941SOL     OW90596   4.653   0.133   8.866
62941SOL    HW190597   4.741   0.170   8.861
62941SOL    HW290598   4.608   0.168   8.789
62942SOL     OW90599  10.454   1.807   7.915
62942SOL    HW190600  10.362   1.779   7.922
62942SOL    HW290601  10.495   1.771   7.993
62943SOL     OW90602  11.183  14.381   3.973
62943SOL    HW190603  11.137  14.462   3.996
62943SOL    HW290604  11.152  14.317   4.037
62944SOL     OW90605   9.372  10.913   4.074
62944SOL    HW190606   9.442  10.935   4.014
62944SOL    HW290607   9.374  10.817   4.080
62945SOL     OW90608   2.244   3.672   0.368
62945SOL    HW190609   2.335   3.647   0.385
62945SOL    HW290610   2.193   3.594   0.389
62946SOL     OW90611  10.490   1.279   9.042
62946SOL    HW190612  10.415   1.223   9.063
62946SOL    HW290613  10.565   1.232   9.078
62947SOL     OW90614   5.707   2.608   8.631
62947SOL    HW190615   5.796   2.608   8.666
62947SOL    HW290616   5.651   2.625   8.708
62948SOL     OW90617   1.475   3.911   6.347
62948SOL    HW190618   1.474   3.996   6.390
62948SOL    HW290619   1.477   3.848   6.418
62949SOL     OW90620   7.171  12.703   3.188
62949SOL    HW190621   7.211  12.714   3.274
62949SOL    HW290622   7.242  12.671   3.132
62950SOL     OW90623   7.001   5.989   8.151
62950SOL    HW190624   6.967   6.048   8.084
62950SOL    HW290625   6.934   5.988   8.219
62951SOL     OW90626   8.671  12.337  11.094
62951SOL    HW190627   8.636  12.387  11.167
62951SOL    HW290628   8.764  12.356  11.094
62952SOL     OW90629   7.331   9.845  14.572
62952SOL    HW190630   7.330   9.929  14.618
62952SOL    HW290631   7.380   9.787  14.630
62953SOL     OW90632   7.680   9.999   0.754
62953SOL    HW190633   7.648   9.926   0.806
62953SOL    HW290634   7.612  10.066   0.760
62954SOL     OW90635   7.712   6.155   2.485
62954SOL    HW190636   7.620   6.174   2.506
62954SOL    HW290637   7.725   6.198   2.400
62955SOL     OW90638  13.091  10.989   9.945
62955SOL    HW190639  13.155  11.055   9.974
62955SOL    HW290640  13.009  11.037   9.938
62956SOL     OW90641  14.446   5.350   6.396
62956SOL    HW190642  14.425   5.257   6.405
62956SOL    HW290643  14.428   5.387   6.483
62957SOL     OW90644   1.597   4.656  10.680
62957SOL    HW190645   1.591   4.749  10.700
62957SOL    HW290646   1.645   4.652  10.597
62958SOL     OW90647   0.980   2.224  12.235
62958SOL    HW190648   0.929   2.258  12.162
62958SOL    HW290649   0.940   2.262  12.312
62959SOL     OW90650   1.599   1.416   3.289
62959SOL    HW190651   1.517   1.458   3.314
62959SOL    HW290652   1.657   1.431   3.363
62960SOL     OW90653   1.303  13.413  13.756
62960SOL    HW190654   1.375  13.391  13.815
62960SOL    HW290655   1.338  13.482  13.700
62961SOL     OW90656  13.400   3.066   9.813
62961SOL    HW190657  13.342   3.072   9.737
62961SOL    HW290658  13.458   3.142   9.805
62962SOL     OW90659  12.011   6.157   1.803
62962SOL    HW190660  11.927   6.135   1.842
62962SOL    HW290661  12.033   6.083   1.748
62963SOL     OW90662  12.951   1.302   9.929
62963SOL    HW190663  12.974   1.392   9.908
62963SOL    HW290664  12.856   1.303   9.942
62964SOL     OW90665   0.552  10.764   8.196
62964SOL    HW190666   0.494  10.728   8.129
62964SOL    HW290667   0.538  10.707   8.272
62965SOL     OW90668   7.226   5.549   8.151
62965SOL    HW190669   7.270   5.519   8.230
62965SOL    HW290670   7.165   5.616   8.182
62966SOL     OW90671   4.062  12.836   6.132
62966SOL    HW190672   4.022  12.749   6.136
62966SOL    HW290673   4.040  12.876   6.215
62967SOL     OW90674   6.965   4.106  11.032
62967SOL    HW190675   7.035   4.041  11.021
62967SOL    HW290676   6.898   4.080  10.968
62968SOL     OW90677  14.727   2.867  14.011
62968SOL    HW190678  14.721   2.789  14.066
62968SOL    HW290679  14.637   2.883  13.983
62969SOL     OW90680   6.847  14.344  13.832
62969SOL    HW190681   6.777  14.284  13.806
62969SOL    HW290682   6.848  14.410  13.763
62970SOL     OW90683  11.974   6.725  13.922
62970SOL    HW190684  12.031   6.649  13.926
62970SOL    HW290685  12.034   6.800  13.920
62971SOL     OW90686   8.007   8.072   3.425
62971SOL    HW190687   8.092   8.087   3.383
62971SOL    HW290688   7.999   8.144   3.488
62972SOL     OW90689  13.196  10.003  14.480
62972SOL    HW190690  13.180   9.909  14.480
62972SOL    HW290691  13.267  10.015  14.543
62973SOL     OW90692   8.376   5.765  14.773
62973SOL    HW190693   8.298   5.753  14.827
62973SOL    HW290694   8.404   5.676  14.751
62974SOL     OW90695   4.687  10.523  14.386
62974SOL    HW190696   4.637  10.459  14.335
62974SOL    HW290697   4.760  10.472  14.422
62975SOL     OW90698   7.868   8.482   2.170
62975SOL    HW190699   7.927   8.556   2.157
62975SOL    HW290700   7.925   8.405   2.164
62976SOL     OW90701   3.172  12.340   7.217
62976SOL    HW190702   3.134  12.311   7.300
62976SOL    HW290703   3.135  12.281   7.151
62977SOL     OW90704  14.427   6.259   6.964
62977SOL    HW190705  14.512   6.289   6.934
62977SOL    HW290706  14.368   6.333   6.948
62978SOL     OW90707  13.781   1.142   4.524
62978SOL    HW190708  13.767   1.163   4.617
62978SOL    HW290709  13.863   1.092   4.523
62979SOL     OW90710   6.269   0.726  13.793
62979SOL    HW190711   6.301   0.665  13.860
62979SOL    HW290712   6.187   0.687  13.762
62980SOL     OW90713   1.686   8.650   0.129
62980SOL    HW190714   1.722   8.574   0.084
62980SOL    HW290715   1.706   8.635   0.221
62981SOL     OW90716  12.280   7.834   5.436
62981SOL    HW190717  12.260   7.906   5.376
62981SOL    HW290718  12.293   7.877   5.521
62982SOL     OW90719   9.435   4.949  11.045
62982SOL    HW190720   9.473   4.960  10.957
62982SOL    HW290721   9.348   4.988  11.039
62983SOL     OW90722   4.843  11.924  11.050
62983SOL    HW190723   4.876  12.004  11.090
62983SOL    HW290724   4.766  11.901  11.103
62984SOL     OW90725  12.637  14.564   0.250
62984SOL    HW190726  12.623  14.597   0.161
62984SOL    HW290727  12.644  14.643   0.304
62985SOL     OW90728   5.022   5.071   8.596
62985SOL    HW190729   5.016   5.134   8.667
62985SOL    HW290730   4.933   5.035   8.588
62986SOL     OW90731   3.597   9.881  11.243
62986SOL    HW190732   3.541   9.838  11.178
62986SOL    HW290733   3.628   9.809  11.298
62987SOL     OW90734   3.555   8.799  14.253
62987SOL    HW190735   3.476   8.774  14.301
62987SOL    HW290736   3.591   8.873  14.303
62988SOL     OW90737   4.307  14.844   6.483
62988SOL    HW190738   4.393   0.003   6.467
62988SOL    HW290739   4.282  14.874   6.570
62989SOL     OW90740   8.001   1.880   5.949
62989SOL    HW190741   8.017   1.921   5.864
62989SOL    HW290742   7.907   1.889   5.963
62990SOL     OW90743   6.387   2.532  14.861
62990SOL    HW190744   6.416   2.462   0.039
62990SOL    HW290745   6.365   2.605   0.038
62991SOL     OW90746  12.617  11.115  12.933
62991SOL    HW190747  12.676  11.045  12.905
62991SOL    HW290748  12.619  11.178  12.861
62992SOL     OW90749  11.606  13.803   6.334
62992SOL    HW190750  11.678  13.842   6.384
62992SOL    HW290751  11.579  13.872   6.273
62993SOL     OW90752  14.044   5.829   2.802
62993SOL    HW190753  14.043   5.734   2.806
62993SOL    HW290754  14.118   5.855   2.857
62994SOL     OW90755   2.560  14.331  13.834
62994SOL    HW190756   2.504  14.378  13.895
62994SOL    HW290757   2.513  14.249  13.817
62995SOL     OW90758  13.588   1.562   0.922
62995SOL    HW190759  13.528   1.615   0.871
62995SOL    HW290760  13.658   1.538   0.860
62996SOL     OW90761   4.276   0.637  14.561
62996SOL    HW190762   4.193   0.625  14.514
62996SOL    HW290763   4.342   0.644  14.492
62997SOL     OW90764  10.270   6.798   5.952
62997SOL    HW190765  10.261   6.760   6.039
62997SOL    HW290766  10.199   6.862   5.946
62998SOL     OW90767   5.700   7.198   8.887
62998SOL    HW190768   5.621   7.249   8.868
62998SOL    HW290769   5.733   7.235   8.968
62999SOL     OW90770  11.136   3.467  11.271
62999SOL    HW190771  11.119   3.561  11.262
62999SOL    HW290772  11.064   3.436  11.326
63000SOL     OW90773  12.777   4.746  11.561
63000SOL    HW190774  12.718   4.673  11.545
63000SOL    HW290775  12.733   4.797  11.630
63001SOL     OW90776   1.837   0.388  10.627
63001SOL    HW190777   1.824   0.302  10.668
63001SOL    HW290778   1.768   0.394  10.561
63002SOL     OW90779   8.083   1.113   1.585
63002SOL    HW190780   7.988   1.111   1.590
63002SOL    HW290781   8.111   1.151   1.668
63003SOL     OW90782   6.145   2.705  14.439
63003SOL    HW190783   6.089   2.640  14.398
63003SOL    HW290784   6.125   2.787  14.393
63004SOL     OW90785   0.835   5.258  10.352
63004SOL    HW190786   0.853   5.289  10.263
63004SOL    HW290787   0.920   5.261  10.396
63005SOL     OW90788   3.952   2.902   6.235
63005SOL    HW190789   3.908   2.920   6.152
63005SOL    HW290790   4.031   2.956   6.233
63006SOL     OW90791   0.264   8.506   8.295
63006SOL    HW190792   0.284   8.414   8.277
63006SOL    HW290793   0.171   8.507   8.317
63007SOL     OW90794   0.141   2.959   4.669
63007SOL    HW190795   0.134   3.054   4.675
63007SOL    HW290796   0.075   2.934   4.605
63008SOL     OW90797   6.638  12.815   1.402
63008SOL    HW190798   6.544  12.798   1.391
63008SOL    HW290799   6.655  12.797   1.494
63009SOL     OW90800   8.649   4.660   9.583
63009SOL    HW190801   8.727   4.621   9.621
63009SOL    HW290802   8.628   4.734   9.640
63010SOL     OW90803   6.246  11.675   5.574
63010SOL    HW190804   6.309  11.703   5.508
63010SOL    HW290805   6.238  11.750   5.632
63011SOL     OW90806   5.158   8.741   7.372
63011SOL    HW190807   5.139   8.653   7.404
63011SOL    HW290808   5.204   8.727   7.289
63012SOL     OW90809  11.588   1.558  14.482
63012SOL    HW190810  11.598   1.615  14.558
63012SOL    HW290811  11.539   1.483  14.514
63013SOL     OW90812   1.108  11.006  14.415
63013SOL    HW190813   1.065  10.990  14.498
63013SOL    HW290814   1.115  11.101  14.408
63014SOL     OW90815   2.656  10.809   6.126
63014SOL    HW190816   2.624  10.806   6.036
63014SOL    HW290817   2.600  10.749   6.174
63015SOL     OW90818   2.089   4.020   6.842
63015SOL    HW190819   2.070   4.108   6.872
63015SOL    HW290820   2.128   3.976   6.917
63016SOL     OW90821  14.516   6.957   0.109
63016SOL    HW190822  14.592   6.990   0.157
63016SOL    HW290823  14.447   6.950   0.175
63017SOL     OW90824   4.563   0.982  10.313
63017SOL    HW190825   4.601   0.936  10.238
63017SOL    HW290826   4.514   1.055  10.274
63018SOL     OW90827  12.531   1.331   9.622
63018SOL    HW190828  12.573   1.417   9.629
63018SOL    HW290829  12.452   1.347   9.571
63019SOL     OW90830  10.110   0.508   5.834
63019SOL    HW190831  10.121   0.589   5.783
63019SOL    HW290832  10.044   0.530   5.900
63020SOL     OW90833   2.866   0.298  11.259
63020SOL    HW190834   2.871   0.290  11.164
63020SOL    HW290835   2.781   0.260  11.282
63021SOL     OW90836   8.271   8.499   1.884
63021SOL    HW190837   8.335   8.433   1.909
63021SOL    HW290838   8.298   8.527   1.797
63022SOL     OW90839  10.176  10.644   5.345
63022SOL    HW190840  10.192  10.674   5.256
63022SOL    HW290841  10.082  10.656   5.358
63023SOL     OW90842  10.966  12.351   6.797
63023SOL    HW190843  10.969  12.273   6.852
63023SOL    HW290844  10.900  12.407   6.838
63024SOL     OW90845   1.578   4.746   4.265
63024SOL    HW190846   1.609   4.833   4.291
63024SOL    HW290847   1.578   4.748   4.170
63025SOL     OW90848   2.969  10.967   0.757
63025SOL    HW190849   2.990  10.890   0.810
63025SOL    HW290850   2.959  10.932   0.668
63026SOL     OW90851   8.245  11.985  12.018
63026SOL    HW190852   8.178  12.048  11.993
63026SOL    HW290853   8.293  11.967  11.937
63027SOL     OW90854   8.625  12.034  11.982
63027SOL    HW190855   8.559  12.052  11.914
63027SOL    HW290856   8.616  11.940  11.999
63028SOL     OW90857   4.321   6.594   5.138
63028SOL    HW190858   4.299   6.558   5.224
63028SOL    HW290859   4.328   6.518   5.081
63029SOL     OW90860   3.488  14.033  12.554
63029SOL    HW190861   3.478  14.033  12.459
63029SOL    HW290862   3.582  14.025  12.569
63030SOL     OW90863  12.684   4.256  10.591
63030SOL    HW190864  12.671   4.349  10.573
63030SOL    HW290865  12.597   4.222  10.611
63031SOL     OW90866   2.764   5.147   0.979
63031SOL    HW190867   2.780   5.055   0.961
63031SOL    HW290868   2.669   5.157   0.972
63032SOL     OW90869  14.280  11.524   6.934
63032SOL    HW190870  14.224  11.587   6.979
63032SOL    HW290871  14.369  11.559   6.944
63033SOL     OW90872   5.608   1.552  14.733
63033SOL    HW190873   5.603   1.485  14.801
63033SOL    HW290874   5.646   1.508  14.657
63034SOL     OW90875   4.871   9.224   4.357
63034SOL    HW190876   4.829   9.158   4.413
63034SOL    HW290877   4.944   9.257   4.409
63035SOL     OW90878   0.289  13.737   6.475
63035SOL    HW190879   0.267  13.702   6.562
63035SOL    HW290880   0.349  13.672   6.438
63036SOL     OW90881   9.508  11.865  12.796
63036SOL    HW190882   9.471  11.777  12.782
63036SOL    HW290883   9.448  11.923  12.750
63037SOL     OW90884  12.105   6.547   0.230
63037SOL    HW190885  12.192   6.507   0.224
63037SOL    HW290886  12.063   6.503   0.304
63038SOL     OW90887  11.522   2.040   0.932
63038SOL    HW190888  11.458   2.100   0.971
63038SOL    HW290889  11.500   2.039   0.838
63039SOL     OW90890  10.033  12.514   0.831
63039SOL    HW190891  10.049  12.585   0.894
63039SOL    HW290892  10.062  12.550   0.747
63040SOL     OW90893  13.534  13.127   5.239
63040SOL    HW190894  13.467  13.068   5.205
63040SOL    HW290895  13.602  13.129   5.171
63041SOL     OW90896  13.071   1.287  11.929
63041SOL    HW190897  13.101   1.365  11.882
63041SOL    HW290898  13.110   1.296  12.016
63042SOL     OW90899   3.573  12.716   7.694
63042SOL    HW190900   3.647  12.711   7.634
63042SOL    HW290901   3.532  12.800   7.675
63043SOL     OW90902   3.899  12.330   5.237
63043SOL    HW190903   3.911  12.369   5.324
63043SOL    HW290904   3.863  12.401   5.184
63044SOL     OW90905   1.242   5.187   7.611
63044SOL    HW190906   1.214   5.223   7.527
63044SOL    HW290907   1.311   5.246   7.640
63045SOL     OW90908   3.322   2.716   0.209
63045SOL    HW190909   3.292   2.792   0.158
63045SOL    HW290910   3.412   2.702   0.180
63046SOL     OW90911  14.530  13.214   5.720
63046SOL    HW190912  14.578  13.131   5.710
63046SOL    HW290913  14.512  13.219   5.813
63047SOL     OW90914  11.344  14.591  14.006
63047SOL    HW190915  11.403  14.665  13.989
63047SOL    HW290916  11.263  14.631  14.038
63048SOL     OW90917   1.037   1.377   5.850
63048SOL    HW190918   0.954   1.410   5.817
63048SOL    HW290919   1.079   1.336   5.774
63049SOL     OW90920  11.805  11.192  11.435
63049SOL    HW190921  11.804  11.276  11.480
63049SOL    HW290922  11.784  11.212  11.344
63050SOL     OW90923   1.571   9.533  13.587
63050SOL    HW190924   1.625   9.504  13.513
63050SOL    HW290925   1.484   9.499  13.567
63051SOL     OW90926  10.753   0.959  13.440
63051SOL    HW190927  10.682   0.950  13.504
63051SOL    HW290928  10.833   0.965  13.493
63052SOL     OW90929   3.136   5.335   3.676
63052SOL    HW190930   3.089   5.386   3.741
63052SOL    HW290931   3.130   5.387   3.596
63053SOL     OW90932   1.830  12.348   9.577
63053SOL    HW190933   1.883  12.427   9.568
63053SOL    HW290934   1.740  12.381   9.581
63054SOL     OW90935   2.393  12.939   8.926
63054SOL    HW190936   2.353  12.904   8.847
63054SOL    HW290937   2.392  13.034   8.914
63055SOL     OW90938  11.127   2.872   0.877
63055SOL    HW190939  11.197   2.884   0.941
63055SOL    HW290940  11.046   2.887   0.926
63056SOL     OW90941  12.773  12.541  14.208
63056SOL    HW190942  12.823  12.513  14.131
63056SOL    HW290943  12.837  12.540  14.280
63057SOL     OW90944  12.674  11.854  14.482
63057SOL    HW190945  12.623  11.790  14.532
63057SOL    HW290946  12.754  11.866  14.533
63058SOL     OW90947   6.098   8.980   2.235
63058SOL    HW190948   6.169   8.941   2.183
63058SOL    HW290949   6.019   8.934   2.206
63059SOL     OW90950   4.468   9.939  11.969
63059SOL    HW190951   4.505   9.851  11.972
63059SOL    HW290952   4.534   9.994  12.009
63060SOL     OW90953  14.258   9.283   8.618
63060SOL    HW190954  14.201   9.348   8.659
63060SOL    HW290955  14.245   9.203   8.668
63061SOL     OW90956  12.011   0.851  14.418
63061SOL    HW190957  12.008   0.758  14.396
63061SOL    HW290958  12.090   0.860  14.471
63062SOL     OW90959  11.863  13.583   9.360
63062SOL    HW190960  11.907  13.582   9.275
63062SOL    HW290961  11.809  13.662   9.358
63063SOL     OW90962   2.684   3.357   6.533
63063SOL    HW190963   2.769   3.383   6.571
63063SOL    HW290964   2.626   3.348   6.609
63064SOL     OW90965  14.238  11.366   7.536
63064SOL    HW190966  14.152  11.385   7.498
63064SOL    HW290967  14.281  11.310   7.471
63065SOL     OW90968   6.697   3.882  12.179
63065SOL    HW190969   6.697   3.787  12.171
63065SOL    HW290970   6.729   3.914  12.095
63066SOL     OW90971   7.778   1.741  10.995
63066SOL    HW190972   7.787   1.806  11.065
63066SOL    HW290973   7.688   1.711  11.002
63067SOL     OW90974   0.292   8.369   5.745
63067SOL    HW190975   0.351   8.425   5.795
63067SOL    HW290976   0.270   8.420   5.668
63068SOL     OW90977   5.380  10.889  13.603
63068SOL    HW190978   5.467  10.851  13.588
63068SOL    HW290979   5.362  10.870  13.695
63069SOL     OW90980   0.762   6.684   5.841
63069SOL    HW190981   0.718   6.707   5.923
63069SOL    HW290982   0.767   6.766   5.792
63070SOL     OW90983  11.009   2.032   9.809
63070SOL    HW190984  10.945   2.082   9.758
63070SOL    HW290985  10.957   1.968   9.858
63071SOL     OW90986  11.855   7.418   6.052
63071SOL    HW190987  11.791   7.422   5.981
63071SOL    HW290988  11.940   7.431   6.009
63072SOL     OW90989   6.293  13.924   7.066
63072SOL    HW190990   6.244  13.885   7.139
63072SOL    HW290991   6.226  13.946   7.001
63073SOL     OW90992   5.472   9.808   8.955
63073SOL    HW190993   5.518   9.858   9.022
63073SOL    HW290994   5.524   9.728   8.945
63074SOL     OW90995   1.516  10.162   4.466
63074SOL    HW190996   1.577  10.235   4.466
63074SOL    HW290997   1.568  10.086   4.492
63075SOL     OW90998   3.314   0.913  11.888
63075SOL    HW190999   3.303   0.993  11.939
63075SOL    HW291000   3.328   0.944  11.798
63076SOL     OW91001   9.012  10.379  10.172
63076SOL    HW191002   9.044  10.428  10.096
63076SOL    HW291003   8.955  10.311  10.136
63077SOL     OW91004  13.049   0.896   3.678
63077SOL    HW191005  13.047   0.984   3.714
63077SOL    HW291006  12.971   0.853   3.713
63078SOL     OW91007   3.432   2.898   9.350
63078SOL    HW191008   3.402   2.937   9.432
63078SOL    HW291009   3.359   2.841   9.324
63079SOL     OW91010   8.079   4.307  13.289
63079SOL    HW191011   8.128   4.254  13.351
63079SOL    HW291012   8.110   4.396  13.304
63080SOL     OW91013  11.050  12.910  12.990
63080SOL    HW191014  11.029  12.951  13.074
63080SOL    HW291015  11.141  12.883  12.998
63081SOL     OW91016  14.013   5.947  14.859
63081SOL    HW191017  13.970   6.023   0.015
63081SOL    HW291018  13.946   5.878  14.862
63082SOL     OW91019   8.982   6.764   1.755
63082SOL    HW191020   8.900   6.777   1.707
63082SOL    HW291021   8.967   6.806   1.839
63083SOL     OW91022  10.472   5.602   7.701
63083SOL    HW191023  10.467   5.610   7.605
63083SOL    HW291024  10.555   5.558   7.716
63084SOL     OW91025   7.547   7.149   1.777
63084SOL    HW191026   7.488   7.181   1.709
63084SOL    HW291027   7.492   7.143   1.856
63085SOL     OW91028   6.221  13.124  10.970
63085SOL    HW191029   6.261  13.211  10.960
63085SOL    HW291030   6.129  13.138  10.948
63086SOL     OW91031  10.917   7.654   4.514
63086SOL    HW191032  10.835   7.684   4.477
63086SOL    HW291033  10.956   7.599   4.445
63087SOL     OW91034   3.991  13.494  11.976
63087SOL    HW191035   4.036  13.534  11.901
63087SOL    HW291036   4.021  13.403  11.976
63088SOL     OW91037   6.729   5.795   1.608
63088SOL    HW191038   6.821   5.817   1.621
63088SOL    HW291039   6.719   5.707   1.646
63089SOL     OW91040   1.510   5.774   4.530
63089SOL    HW191041   1.479   5.729   4.609
63089SOL    HW291042   1.479   5.864   4.541
63090SOL     OW91043   3.664  10.045   6.839
63090SOL    HW191044   3.740  10.083   6.794
63090SOL    HW291045   3.647   9.964   6.791
63091SOL     OW91046  10.043   9.984  10.051
63091SOL    HW191047  10.014  10.065  10.010
63091SOL    HW291048  10.076   9.930   9.978
63092SOL     OW91049  11.829  13.225   5.517
63092SOL    HW191050  11.909  13.277   5.510
63092SOL    HW291051  11.802  13.235   5.608
63093SOL     OW91052  12.771   9.341  11.199
63093SOL    HW191053  12.820   9.260  11.215
63093SOL    HW291054  12.809   9.376  11.119
63094SOL     OW91055   3.301  10.445   5.823
63094SOL    HW191056   3.246  10.428   5.900
63094SOL    HW291057   3.319  10.358   5.787
63095SOL     OW91058   8.389   1.908  11.097
63095SOL    HW191059   8.358   1.942  11.013
63095SOL    HW291060   8.484   1.921  11.094
63096SOL     OW91061   4.126  10.084  11.039
63096SOL    HW191062   4.202  10.139  11.060
63096SOL    HW291063   4.138  10.062  10.947
63097SOL     OW91064  14.819   2.680  14.760
63097SOL    HW191065  14.806   2.633  14.843
63097SOL    HW291066  14.877   2.753  14.783
63098SOL     OW91067   8.128   6.295   9.588
63098SOL    HW191068   8.150   6.361   9.523
63098SOL    HW291069   8.125   6.343   9.671
63099SOL     OW91070   2.113   0.767  13.832
63099SOL    HW191071   2.177   0.697  13.843
63099SOL    HW291072   2.028   0.724  13.841
63100SOL     OW91073   7.088  11.648  14.502
63100SOL    HW191074   7.045  11.568  14.470
63100SOL    HW291075   7.181  11.634  14.483
63101SOL     OW91076   7.384   3.138   7.543
63101SOL    HW191077   7.447   3.086   7.594
63101SOL    HW291078   7.303   3.131   7.592
63102SOL     OW91079  11.428   2.547  11.983
63102SOL    HW191080  11.366   2.485  11.946
63102SOL    HW291081  11.459   2.505  12.064
63103SOL     OW91082  11.529   5.345  12.932
63103SOL    HW191083  11.562   5.331  12.843
63103SOL    HW291084  11.436   5.323  12.927
63104SOL     OW91085   0.791  13.014   5.780
63104SOL    HW191086   0.716  13.014   5.840
63104SOL    HW291087   0.757  12.974   5.700
63105SOL     OW91088  14.681   2.195   4.500
63105SOL    HW191089  14.670   2.234   4.413
63105SOL    HW291090  14.691   2.101   4.483
63106SOL     OW91091   6.100   4.562  14.776
63106SOL    HW191092   6.138   4.588  14.692
63106SOL    HW291093   6.067   4.473  14.760
63107SOL     OW91094  13.685   0.319   8.443
63107SOL    HW191095  13.637   0.401   8.450
63107SOL    HW291096  13.644   0.272   8.371
63108SOL     OW91097  13.454  11.123   6.816
63108SOL    HW191098  13.541  11.090   6.839
63108SOL    HW291099  13.466  11.167   6.732
63109SOL     OW91100   3.896   3.851   7.496
63109SOL    HW191101   3.928   3.798   7.423
63109SOL    HW291102   3.965   3.846   7.562
63110SOL     OW91103   8.437  13.772   6.217
63110SOL    HW191104   8.396  13.857   6.206
63110SOL    HW291105   8.423  13.727   6.134
63111SOL     OW91106   4.200   2.204  10.262
63111SOL    HW191107   4.275   2.164  10.307
63111SOL    HW291108   4.216   2.298  10.268
63112SOL     OW91109   3.053  10.294   3.881
63112SOL    HW191110   3.101  10.313   3.962
63112SOL    HW291111   3.084  10.360   3.819
63113SOL     OW91112   5.624   3.578   9.208
63113SOL    HW191113   5.615   3.665   9.169
63113SOL    HW291114   5.539   3.536   9.195
63114SOL     OW91115   1.421   9.452   1.791
63114SOL    HW191116   1.413   9.390   1.719
63114SOL    HW291117   1.356   9.424   1.856
63115SOL     OW91118   8.759   9.851  10.423
63115SOL    HW191119   8.734   9.874  10.512
63115SOL    HW291120   8.854   9.864  10.421
63116SOL     OW91121  14.130  13.548   3.640
63116SOL    HW191122  14.188  13.489   3.686
63116SOL    HW291123  14.092  13.603   3.709
63117SOL     OW91124   3.498  10.313   2.710
63117SOL    HW191125   3.589  10.291   2.728
63117SOL    HW291126   3.499  10.346   2.620
63118SOL     OW91127  11.452   1.187   9.501
63118SOL    HW191128  11.533   1.148   9.533
63118SOL    HW291129  11.450   1.163   9.408
63119SOL     OW91130   8.175   8.703   6.924
63119SOL    HW191131   8.145   8.762   6.855
63119SOL    HW291132   8.190   8.759   7.000
63120SOL     OW91133  13.110   0.669   1.032
63120SOL    HW191134  13.147   0.584   1.054
63120SOL    HW291135  13.124   0.677   0.937
63121SOL     OW91136   0.998  10.936  13.831
63121SOL    HW191137   1.045  10.893  13.760
63121SOL    HW291138   1.015  10.882  13.908
63122SOL     OW91139   8.881   0.733  10.946
63122SOL    HW191140   8.794   0.699  10.965
63122SOL    HW291141   8.899   0.795  11.017
63123SOL     OW91142   4.066  10.298   4.818
63123SOL    HW191143   4.116  10.218   4.802
63123SOL    HW291144   3.976  10.268   4.831
63124SOL     OW91145   0.780   0.830   7.414
63124SOL    HW191146   0.748   0.835   7.504
63124SOL    HW291147   0.758   0.916   7.377
63125SOL     OW91148  14.445  10.284  10.197
63125SOL    HW191149  14.509  10.279  10.126
63125SOL    HW291150  14.389  10.208  10.185
63126SOL     OW91151  13.260   9.759   4.721
63126SOL    HW191152  13.249   9.728   4.811
63126SOL    HW291153  13.269   9.680   4.669
63127SOL     OW91154  10.173   7.597   4.850
63127SOL    HW191155  10.123   7.522   4.880
63127SOL    HW291156  10.231   7.562   4.782
63128SOL     OW91157   2.119   3.548   6.398
63128SOL    HW191158   2.181   3.542   6.325
63128SOL    HW291159   2.033   3.543   6.357
63129SOL     OW91160   8.908   3.751  14.084
63129SOL    HW191161   8.990   3.722  14.124
63129SOL    HW291162   8.842   3.690  14.117
63130SOL     OW91163   5.893   5.118   9.579
63130SOL    HW191164   5.854   5.031   9.588
63130SOL    HW291165   5.987   5.104   9.587
63131SOL     OW91166   8.713   4.282   6.393
63131SOL    HW191167   8.729   4.245   6.480
63131SOL    HW291168   8.655   4.219   6.350
63132SOL     OW91169  13.599   5.152   9.169
63132SOL    HW191170  13.585   5.157   9.264
63132SOL    HW291171  13.516   5.116   9.135
63133SOL     OW91172  12.578   8.415   5.788
63133SOL    HW191173  12.670   8.425   5.812
63133SOL    HW291174  12.559   8.322   5.802
63134SOL     OW91175  10.497  12.278  13.998
63134SOL    HW191176  10.500  12.282  13.903
63134SOL    HW291177  10.481  12.369  14.025
63135SOL     OW91178  10.350   2.003   4.606
63135SOL    HW191179  10.259   2.023   4.585
63135SOL    HW291180  10.399   2.079   4.573
63136SOL     OW91181   7.011   6.426  12.997
63136SOL    HW191182   6.930   6.474  12.982
63136SOL    HW291183   7.050   6.416  12.910
63137SOL     OW91184  11.773  11.948   9.302
63137SOL    HW191185  11.778  11.967   9.396
63137SOL    HW291186  11.733  11.862   9.297
63138SOL     OW91187   3.128  14.278  14.625
63138SOL    HW191188   3.078  14.359  14.617
63138SOL    HW291189   3.128  14.240  14.537
63139SOL     OW91190   6.467   1.228   9.464
63139SOL    HW191191   6.515   1.311   9.454
63139SOL    HW291192   6.531   1.161   9.441
63140SOL     OW91193   7.151  11.604   2.693
63140SOL    HW191194   7.170  11.523   2.741
63140SOL    HW291195   7.183  11.674   2.750
63141SOL     OW91196   1.583   7.998  14.205
63141SOL    HW191197   1.533   8.075  14.232
63141SOL    HW291198   1.523   7.950  14.148
63142SOL     OW91199   7.218   4.610  10.201
63142SOL    HW191200   7.258   4.556  10.270
63142SOL    HW291201   7.247   4.570  10.119
63143SOL     OW91202   1.658  12.585  12.945
63143SOL    HW191203   1.615  12.529  12.880
63143SOL    HW291204   1.748  12.593  12.914
63144SOL     OW91205   6.023   3.926   7.416
63144SOL    HW191206   5.970   4.005   7.412
63144SOL    HW291207   5.977   3.869   7.478
63145SOL     OW91208  10.764   9.802   4.376
63145SOL    HW191209  10.767   9.712   4.344
63145SOL    HW291210  10.791   9.855   4.301
63146SOL     OW91211  11.746   4.403   8.733
63146SOL    HW191212  11.761   4.310   8.718
63146SOL    HW291213  11.739   4.412   8.828
63147SOL     OW91214   3.617   6.516   4.379
63147SOL    HW191215   3.530   6.477   4.383
63147SOL    HW291216   3.669   6.466   4.442
63148SOL     OW91217   2.925   2.181   3.680
63148SOL    HW191218   2.908   2.123   3.755
63148SOL    HW291219   2.947   2.122   3.608
63149SOL     OW91220   6.375  12.554   9.024
63149SOL    HW191221   6.363  12.601   8.941
63149SOL    HW291222   6.360  12.462   9.001
63150SOL     OW91223  10.951   3.662  13.819
63150SOL    HW191224  10.879   3.642  13.878
63150SOL    HW291225  11.008   3.586  13.824
63151SOL     OW91226   2.589   2.184   8.930
63151SOL    HW191227   2.593   2.104   8.982
63151SOL    HW291228   2.520   2.168   8.866
63152SOL     OW91229  13.918   8.257  12.012
63152SOL    HW191230  13.987   8.261  12.078
63152SOL    HW291231  13.920   8.344  11.971
63153SOL     OW91232   5.868   3.633   6.876
63153SOL    HW191233   5.943   3.682   6.908
63153SOL    HW291234   5.893   3.541   6.887
63154SOL     OW91235   7.494   3.173  13.122
63154SOL    HW191236   7.418   3.125  13.154
63154SOL    HW291237   7.551   3.181  13.198
63155SOL     OW91238   6.643  13.202  10.132
63155SOL    HW191239   6.594  13.147  10.072
63155SOL    HW291240   6.734  13.175  10.121
63156SOL     OW91241   3.146  12.219   4.100
63156SOL    HW191242   3.093  12.278   4.154
63156SOL    HW291243   3.142  12.135   4.146
63157SOL     OW91244   2.500   8.826   6.107
63157SOL    HW191245   2.534   8.794   6.024
63157SOL    HW291246   2.440   8.897   6.082
63158SOL     OW91247   3.341  12.488   6.232
63158SOL    HW191248   3.247  12.504   6.242
63158SOL    HW291249   3.353  12.472   6.139
63159SOL     OW91250   4.383  14.665   0.747
63159SOL    HW191251   4.371  14.755   0.718
63159SOL    HW291252   4.453  14.669   0.812
63160SOL     OW91253   6.400  14.017   4.969
63160SOL    HW191254   6.307  14.041   4.973
63160SOL    HW291255   6.417  14.006   4.875
63161SOL     OW91256   6.918   8.454   7.141
63161SOL    HW191257   6.986   8.522   7.135
63161SOL    HW291258   6.947   8.399   7.214
63162SOL     OW91259   8.764   9.496   7.987
63162SOL    HW191260   8.724   9.574   7.949
63162SOL    HW291261   8.833   9.472   7.925
63163SOL     OW91262  10.663   8.849   4.942
63163SOL    HW191263  10.631   8.777   4.887
63163SOL    HW291264  10.633   8.827   5.030
63164SOL     OW91265  14.773  11.877  14.127
63164SOL    HW191266  14.752  11.924  14.208
63164SOL    HW291267  14.859  11.909  14.102
63165SOL     OW91268  13.234   4.762  11.308
63165SOL    HW191269  13.156   4.754  11.364
63165SOL    HW291270  13.249   4.856  11.303
63166SOL     OW91271  10.057   9.668  13.448
63166SOL    HW191272  10.043   9.672  13.354
63166SOL    HW291273   9.975   9.700  13.487
63167SOL     OW91274   9.529   9.877  12.737
63167SOL    HW191275   9.516   9.793  12.692
63167SOL    HW291276   9.494   9.942  12.676
63168SOL     OW91277   5.993  10.064  10.522
63168SOL    HW191278   5.905  10.065  10.561
63168SOL    HW291279   6.020   9.972  10.528
63169SOL     OW91280  13.153   4.580   2.160
63169SOL    HW191281  13.080   4.558   2.218
63169SOL    HW291282  13.203   4.499   2.153
63170SOL     OW91283  13.908   1.211   5.035
63170SOL    HW191284  13.941   1.295   5.067
63170SOL    HW291285  13.968   1.146   5.073
63171SOL     OW91286  11.724   4.459  12.486
63171SOL    HW191287  11.750   4.551  12.479
63171SOL    HW291288  11.796   4.411  12.445
63172SOL     OW91289  13.567   8.774   4.818
63172SOL    HW191290  13.497   8.816   4.767
63172SOL    HW291291  13.637   8.839   4.820
63173SOL     OW91292  10.879   7.059   5.227
63173SOL    HW191293  10.969   7.091   5.225
63173SOL    HW291294  10.886   6.965   5.241
63174SOL     OW91295   5.117   4.022   1.335
63174SOL    HW191296   5.100   3.957   1.404
63174SOL    HW291297   5.121   3.971   1.254
63175SOL     OW91298   4.388  10.051   4.374
63175SOL    HW191299   4.397   9.962   4.407
63175SOL    HW291300   4.366  10.040   4.281
63176SOL     OW91301   8.521  13.349   8.475
63176SOL    HW191302   8.495  13.282   8.539
63176SOL    HW291303   8.617  13.349   8.479
63177SOL     OW91304   4.688   0.106   5.860
63177SOL    HW191305   4.660   0.039   5.923
63177SOL    HW291306   4.611   0.120   5.805
63178SOL     OW91307   7.640   4.011   8.426
63178SOL    HW191308   7.727   3.981   8.399
63178SOL    HW291309   7.633   3.984   8.518
63179SOL     OW91310   1.008  12.840   9.315
63179SOL    HW191311   1.033  12.873   9.229
63179SOL    HW291312   0.976  12.918   9.361
63180SOL     OW91313  11.475   4.546  13.351
63180SOL    HW191314  11.464   4.505  13.437
63180SOL    HW291315  11.399   4.603  13.341
63181SOL     OW91316   8.898   3.409   7.570
63181SOL    HW191317   8.919   3.392   7.662
63181SOL    HW291318   8.984   3.420   7.528
63182SOL     OW91319   9.102   8.332   5.446
63182SOL    HW191320   9.056   8.394   5.389
63182SOL    HW291321   9.098   8.372   5.533
63183SOL     OW91322  13.330   1.899   5.701
63183SOL    HW191323  13.421   1.872   5.715
63183SOL    HW291324  13.310   1.955   5.776
63184SOL     OW91325  11.422   7.344   9.692
63184SOL    HW191326  11.513   7.337   9.663
63184SOL    HW291327  11.426   7.392   9.774
63185SOL     OW91328   8.414   1.276   4.701
63185SOL    HW191329   8.470   1.344   4.739
63185SOL    HW291330   8.442   1.195   4.743
63186SOL     OW91331  12.662   3.761   7.211
63186SOL    HW191332  12.657   3.830   7.144
63186SOL    HW291333  12.607   3.691   7.177
63187SOL     OW91334   6.968  10.209  12.038
63187SOL    HW191335   6.940  10.180  11.951
63187SOL    HW291336   6.895  10.185  12.095
63188SOL     OW91337   5.834   8.563   4.744
63188SOL    HW191338   5.888   8.534   4.671
63188SOL    HW291339   5.748   8.525   4.727
63189SOL     OW91340   5.643   0.643   4.432
63189SOL    HW191341   5.640   0.582   4.360
63189SOL    HW291342   5.727   0.689   4.422
63190SOL     OW91343   0.730   5.750   2.726
63190SOL    HW191344   0.739   5.693   2.802
63190SOL    HW291345   0.685   5.696   2.661
63191SOL     OW91346   2.381   3.380   2.500
63191SOL    HW191347   2.472   3.406   2.491
63191SOL    HW291348   2.334   3.434   2.436
63192SOL     OW91349   2.131   9.046   2.351
63192SOL    HW191350   2.087   9.125   2.318
63192SOL    HW291351   2.100   9.037   2.441
63193SOL     OW91352  10.217   5.772   6.551
63193SOL    HW191353  10.162   5.820   6.489
63193SOL    HW291354  10.214   5.825   6.631
63194SOL     OW91355  12.764   3.698  13.972
63194SOL    HW191356  12.726   3.680  13.886
63194SOL    HW291357  12.689   3.708  14.031
63195SOL     OW91358   5.354   8.741   7.814
63195SOL    HW191359   5.414   8.718   7.744
63195SOL    HW291360   5.269   8.708   7.785
63196SOL     OW91361   7.838   1.462  11.729
63196SOL    HW191362   7.806   1.552  11.725
63196SOL    HW291363   7.801   1.419  11.653
63197SOL     OW91364  10.073  10.565  10.030
63197SOL    HW191365  10.040  10.647  10.067
63197SOL    HW291366   9.998  10.505  10.035
63198SOL     OW91367  13.899   8.679   0.991
63198SOL    HW191368  13.810   8.655   1.020
63198SOL    HW291369  13.893   8.681   0.896
63199SOL     OW91370   0.364   2.915   0.927
63199SOL    HW191371   0.373   2.995   0.979
63199SOL    HW291372   0.284   2.874   0.960
63200SOL     OW91373   1.997  13.984   5.456
63200SOL    HW191374   1.958  14.071   5.453
63200SOL    HW291375   1.946  13.938   5.523
63201SOL     OW91376  10.037  14.809   7.721
63201SOL    HW191377  10.117  14.764   7.748
63201SOL    HW291378  10.068   0.002   7.669
63202SOL     OW91379   8.972   3.383  13.629
63202SOL    HW191380   9.018   3.457  13.668
63202SOL    HW291381   8.880   3.397  13.652
63203SOL     OW91382  14.036   5.799   9.517
63203SOL    HW191383  13.998   5.726   9.566
63203SOL    HW291384  13.961   5.854   9.494
63204SOL     OW91385   6.019   0.793   9.654
63204SOL    HW191386   6.101   0.836   9.678
63204SOL    HW291387   5.964   0.800   9.732
63205SOL     OW91388   2.569  11.657   6.622
63205SOL    HW191389   2.656  11.676   6.657
63205SOL    HW291390   2.579  11.668   6.527
63206SOL     OW91391   3.990  13.134  11.697
63206SOL    HW191392   4.018  13.070  11.631
63206SOL    HW291393   4.067  13.188  11.713
63207SOL     OW91394   3.108  10.739   1.481
63207SOL    HW191395   3.134  10.756   1.572
63207SOL    HW291396   3.015  10.762   1.478
63208SOL     OW91397   8.909   8.086   9.491
63208SOL    HW191398   8.838   8.026   9.514
63208SOL    HW291399   8.877   8.133   9.413
63209SOL     OW91400   4.301  10.924   8.774
63209SOL    HW191401   4.297  10.904   8.680
63209SOL    HW291402   4.257  11.008   8.783
63210SOL     OW91403   2.505   0.006   7.134
63210SOL    HW191404   2.466  14.814   7.182
63210SOL    HW291405   2.599  14.874   7.143
63211SOL     OW91406  10.773  12.438   5.029
63211SOL    HW191407  10.861  12.401   5.022
63211SOL    HW291408  10.767  12.501   4.958
63212SOL     OW91409   8.724   0.839   5.501
63212SOL    HW191410   8.817   0.845   5.483
63212SOL    HW291411   8.717   0.847   5.596
63213SOL     OW91412   6.845   5.400  11.275
63213SOL    HW191413   6.767   5.455  11.265
63213SOL    HW291414   6.888   5.435  11.353
63214SOL     OW91415   9.735  12.220  11.756
63214SOL    HW191416   9.789  12.219  11.677
63214SOL    HW291417   9.652  12.258  11.728
63215SOL     OW91418  11.108  14.115  13.714
63215SOL    HW191419  11.194  14.103  13.672
63215SOL    HW291420  11.120  14.191  13.770
63216SOL     OW91421   1.100   5.693   7.057
63216SOL    HW191422   1.048   5.622   7.093
63216SOL    HW291423   1.188   5.656   7.049
63217SOL     OW91424   3.674   0.540   4.086
63217SOL    HW191425   3.710   0.627   4.101
63217SOL    HW291426   3.590   0.540   4.132
63218SOL     OW91427   1.173   5.691   8.879
63218SOL    HW191428   1.155   5.654   8.793
63218SOL    HW291429   1.087   5.708   8.917
63219SOL     OW91430   0.342   6.958  11.837
63219SOL    HW191431   0.397   7.008  11.776
63219SOL    HW291432   0.286   7.024  11.878
63220SOL     OW91433  10.870   0.667   3.453
63220SOL    HW191434  10.862   0.714   3.370
63220SOL    HW291435  10.784   0.675   3.493
63221SOL     OW91436   6.483  12.016   5.242
63221SOL    HW191437   6.543  11.941   5.235
63221SOL    HW291438   6.404  11.979   5.281
63222SOL     OW91439   9.058   6.807   9.626
63222SOL    HW191440   9.101   6.721   9.621
63222SOL    HW291441   9.022   6.811   9.714
63223SOL     OW91442   2.575   9.932   4.237
63223SOL    HW191443   2.669   9.922   4.253
63223SOL    HW291444   2.569   9.946   4.142
63224SOL     OW91445   7.097   4.766   2.329
63224SOL    HW191446   7.041   4.836   2.363
63224SOL    HW291447   7.169   4.812   2.286
63225SOL     OW91448   0.998   5.642   0.364
63225SOL    HW191449   0.916   5.686   0.385
63225SOL    HW291450   0.974   5.552   0.344
63226SOL     OW91451  10.633  11.237  13.952
63226SOL    HW191452  10.608  11.263  13.864
63226SOL    HW291453  10.555  11.195  13.988
63227SOL     OW91454  11.033   0.934   5.124
63227SOL    HW191455  11.019   0.863   5.187
63227SOL    HW291456  11.128   0.938   5.113
63228SOL     OW91457   7.514   4.699   8.111
63228SOL    HW191458   7.514   4.747   8.029
63228SOL    HW291459   7.597   4.652   8.111
63229SOL     OW91460  13.954   8.463  12.437
63229SOL    HW191461  13.885   8.408  12.398
63229SOL    HW291462  13.961   8.538  12.378
63230SOL     OW91463  12.140  11.844  12.626
63230SOL    HW191464  12.110  11.847  12.535
63230SOL    HW291465  12.189  11.925  12.638
63231SOL     OW91466   9.323  13.808   4.239
63231SOL    HW191467   9.361  13.893   4.219
63231SOL    HW291468   9.394  13.746   4.222
63232SOL     OW91469  14.506   3.300  14.775
63232SOL    HW191470  14.508   3.257  14.861
63232SOL    HW291471  14.413   3.298  14.751
63233SOL     OW91472   0.641   4.245   7.389
63233SOL    HW191473   0.599   4.159   7.382
63233SOL    HW291474   0.568   4.307   7.397
63234SOL     OW91475   7.211   3.092   3.668
63234SOL    HW191476   7.135   3.055   3.713
63234SOL    HW291477   7.283   3.081   3.731
63235SOL     OW91478  11.775   9.766   2.539
63235SOL    HW191479  11.693   9.733   2.503
63235SOL    HW291480  11.789   9.850   2.495
63236SOL     OW91481   1.451   5.262  14.373
63236SOL    HW191482   1.470   5.206  14.449
63236SOL    HW291483   1.454   5.202  14.298
63237SOL     OW91484   0.886   9.352   1.504
63237SOL    HW191485   0.795   9.365   1.528
63237SOL    HW291486   0.903   9.416   1.435
63238SOL     OW91487  10.841   0.195  12.056
63238SOL    HW191488  10.886   0.132  12.002
63238SOL    HW291489  10.784   0.243  11.996
63239SOL     OW91490   1.916   6.210  11.667
63239SOL    HW191491   1.891   6.240  11.580
63239SOL    HW291492   1.837   6.168  11.702
63240SOL     OW91493   9.488  14.378   0.511
63240SOL    HW191494   9.567  14.397   0.562
63240SOL    HW291495   9.448  14.303   0.555
63241SOL     OW91496   2.816  12.109   7.709
63241SOL    HW191497   2.759  12.178   7.746
63241SOL    HW291498   2.812  12.124   7.615
63242SOL     OW91499  10.051   5.288   2.373
63242SOL    HW191500  10.140   5.258   2.359
63242SOL    HW291501  10.033   5.347   2.300
63243SOL     OW91502  14.533  13.489   0.075
63243SOL    HW191503  14.611  13.466   0.125
63243SOL    HW291504  14.564  13.556   0.014
63244SOL     OW91505   5.736   7.870  12.118
63244SOL    HW191506   5.657   7.841  12.072
63244SOL    HW291507   5.758   7.797  12.176
63245SOL     OW91508   2.653  14.091   0.991
63245SOL    HW191509   2.600  14.033   1.046
63245SOL    HW291510   2.704  14.032   0.936
63246SOL     OW91511   6.610  14.601   5.005
63246SOL    HW191512   6.634  14.509   5.011
63246SOL    HW291513   6.662  14.644   5.074
63247SOL     OW91514   7.516  10.621   7.415
63247SOL    HW191515   7.566  10.590   7.490
63247SOL    HW291516   7.564  10.588   7.339
63248SOL     OW91517  14.809  14.618  10.059
63248SOL    HW191518  14.849  14.703  10.077
63248SOL    HW291519  14.740  14.610  10.125
63249SOL     OW91520   0.088  13.555  13.133
63249SOL    HW191521   0.074  13.581  13.224
63249SOL    HW291522   0.159  13.490  13.137
63250SOL     OW91523   5.845   1.624  13.833
63250SOL    HW191524   5.863   1.618  13.739
63250SOL    HW291525   5.905   1.691  13.865
63251SOL     OW91526   7.064   9.772   7.311
63251SOL    HW191527   6.999   9.703   7.327
63251SOL    HW291528   7.133   9.729   7.261
63252SOL     OW91529   5.025   4.199   1.831
63252SOL    HW191530   5.111   4.159   1.818
63252SOL    HW291531   4.964   4.126   1.824
63253SOL     OW91532  12.828   5.186   4.513
63253SOL    HW191533  12.918   5.181   4.546
63253SOL    HW291534  12.827   5.127   4.437
63254SOL     OW91535  12.623  14.537  13.121
63254SOL    HW191536  12.577  14.493  13.049
63254SOL    HW291537  12.714  14.542  13.090
63255SOL     OW91538  13.254  11.006  11.656
63255SOL    HW191539  13.320  11.057  11.609
63255SOL    HW291540  13.190  11.071  11.685
63256SOL     OW91541   9.585   4.667   3.600
63256SOL    HW191542   9.550   4.738   3.654
63256SOL    HW291543   9.548   4.588   3.637
63257SOL     OW91544   8.189   6.268   5.436
63257SOL    HW191545   8.195   6.363   5.449
63257SOL    HW291546   8.111   6.257   5.381
63258SOL     OW91547   7.736   6.991   8.081
63258SOL    HW191548   7.709   6.913   8.033
63258SOL    HW291549   7.755   6.959   8.169
63259SOL     OW91550   9.506   1.301   0.289
63259SOL    HW191551   9.452   1.223   0.298
63259SOL    HW291552   9.572   1.277   0.224
63260SOL     OW91553   1.514   3.060   3.892
63260SOL    HW191554   1.561   2.994   3.842
63260SOL    HW291555   1.578   3.129   3.908
63261SOL     OW91556   8.865   3.898   4.572
63261SOL    HW191557   8.877   3.827   4.636
63261SOL    HW291558   8.929   3.964   4.598
63262SOL     OW91559   8.382   6.825   8.865
63262SOL    HW191560   8.365   6.847   8.957
63262SOL    HW291561   8.466   6.778   8.867
63263SOL     OW91562  13.705   9.879  12.297
63263SOL    HW191563  13.800   9.879  12.285
63263SOL    HW291564  13.670   9.903  12.211
63264SOL     OW91565   7.236  11.581   3.718
63264SOL    HW191566   7.184  11.500   3.719
63264SOL    HW291567   7.311  11.560   3.662
63265SOL     OW91568   2.424   4.008   6.801
63265SOL    HW191569   2.501   4.063   6.790
63265SOL    HW291570   2.359   4.065   6.843
63266SOL     OW91571   0.798  13.567  13.804
63266SOL    HW191572   0.799  13.654  13.766
63266SOL    HW291573   0.886  13.533  13.789
63267SOL     OW91574   6.154   1.948  11.800
63267SOL    HW191575   6.205   1.994  11.868
63267SOL    HW291576   6.213   1.947  11.724
63268SOL     OW91577   8.803   6.878   3.643
63268SOL    HW191578   8.787   6.948   3.580
63268SOL    HW291579   8.761   6.909   3.723
63269SOL     OW91580  10.963   1.321   9.826
63269SOL    HW191581  10.930   1.319   9.916
63269SOL    HW291582  10.944   1.233   9.793
63270SOL     OW91583  14.550   6.942   5.213
63270SOL    HW191584  14.574   7.033   5.194
63270SOL    HW291585  14.459   6.947   5.242
63271SOL     OW91586  11.447  11.040  14.468
63271SOL    HW191587  11.500  11.119  14.475
63271SOL    HW291588  11.462  11.009  14.378
63272SOL     OW91589  12.697   8.125   1.954
63272SOL    HW191590  12.654   8.204   1.923
63272SOL    HW291591  12.729   8.082   1.875
63273SOL     OW91592   2.722   5.634  14.364
63273SOL    HW191593   2.710   5.720  14.323
63273SOL    HW291594   2.701   5.571  14.295
63274SOL     OW91595  10.279   1.972   4.966
63274SOL    HW191596  10.189   1.978   4.998
63274SOL    HW291597  10.271   1.948   4.874
63275SOL     OW91598   5.819   9.123   4.967
63275SOL    HW191599   5.752   9.181   4.930
63275SOL    HW291600   5.802   9.122   5.061
63276SOL     OW91601  14.763   6.866  12.806
63276SOL    HW191602  14.853   6.834  12.817
63276SOL    HW291603  14.724   6.855  12.893
63277SOL     OW91604  12.137   2.833  14.730
63277SOL    HW191605  12.188   2.774  14.786
63277SOL    HW291606  12.047   2.822  14.759
63278SOL     OW91607   5.065   3.184   3.731
63278SOL    HW191608   4.980   3.191   3.688
63278SOL    HW291609   5.101   3.273   3.728
63279SOL     OW91610   3.520   1.566   9.527
63279SOL    HW191611   3.551   1.653   9.499
63279SOL    HW291612   3.464   1.537   9.456
63280SOL     OW91613   4.070   7.829   3.818
63280SOL    HW191614   4.156   7.839   3.779
63280SOL    HW291615   4.075   7.747   3.867
63281SOL     OW91616   5.369  11.090  14.698
63281SOL    HW191617   5.431  11.160  14.678
63281SOL    HW291618   5.423  11.012  14.705
63282SOL     OW91619  13.414   4.550   7.176
63282SOL    HW191620  13.450   4.576   7.261
63282SOL    HW291621  13.334   4.601   7.165
63283SOL     OW91622  14.302   9.678   3.972
63283SOL    HW191623  14.395   9.695   3.961
63283SOL    HW291624  14.294   9.642   4.061
63284SOL     OW91625   3.695  12.164  11.615
63284SOL    HW191626   3.714  12.247  11.658
63284SOL    HW291627   3.717  12.097  11.679
63285SOL     OW91628  11.404   5.522   8.827
63285SOL    HW191629  11.435   5.608   8.798
63285SOL    HW291630  11.309   5.533   8.835
63286SOL     OW91631  10.434   6.893   7.539
63286SOL    HW191632  10.390   6.808   7.539
63286SOL    HW291633  10.453   6.910   7.447
63287SOL     OW91634   4.659   4.824   0.034
63287SOL    HW191635   4.611   4.759  14.863
63287SOL    HW291636   4.709   4.772   0.097
63288SOL     OW91637   8.060  14.732   2.004
63288SOL    HW191638   8.018  14.793   1.943
63288SOL    HW291639   8.001  14.656   2.005
63289SOL     OW91640  10.856   0.670   4.287
63289SOL    HW191641  10.802   0.731   4.337
63289SOL    HW291642  10.944   0.705   4.294
63290SOL     OW91643   3.516   7.842  10.107
63290SOL    HW191644   3.534   7.928  10.146
63290SOL    HW291645   3.560   7.780  10.165
63291SOL     OW91646   4.477   2.033   0.645
63291SOL    HW191647   4.443   2.115   0.680
63291SOL    HW291648   4.549   2.009   0.704
63292SOL     OW91649  10.582  14.522  11.244
63292SOL    HW191650  10.660  14.468  11.236
63292SOL    HW291651  10.521  14.469  11.295
63293SOL     OW91652  11.071  11.395   3.366
63293SOL    HW191653  11.142  11.386   3.430
63293SOL    HW291654  11.047  11.488   3.370
63294SOL     OW91655   7.498   8.526   7.980
63294SOL    HW191656   7.457   8.440   7.968
63294SOL    HW291657   7.509   8.533   8.075
63295SOL     OW91658   7.178  13.715   4.484
63295SOL    HW191659   7.175  13.701   4.389
63295SOL    HW291660   7.106  13.775   4.502
63296SOL     OW91661   8.094   2.310   4.337
63296SOL    HW191662   8.017   2.281   4.385
63296SOL    HW291663   8.132   2.378   4.392
63297SOL     OW91664  12.811   2.212   5.116
63297SOL    HW191665  12.728   2.227   5.072
63297SOL    HW291666  12.787   2.181   5.203
63298SOL     OW91667   8.284   9.349   8.372
63298SOL    HW191668   8.369   9.390   8.356
63298SOL    HW291669   8.220   9.416   8.348
63299SOL     OW91670  14.264  12.138  14.238
63299SOL    HW191671  14.325  12.076  14.279
63299SOL    HW291672  14.313  12.220  14.233
63300SOL     OW91673   1.791   4.336   5.169
63300SOL    HW191674   1.814   4.413   5.222
63300SOL    HW291675   1.868   4.280   5.174
63301SOL     OW91676   3.691   8.762   5.010
63301SOL    HW191677   3.621   8.769   4.945
63301SOL    HW291678   3.653   8.801   5.089
63302SOL     OW91679   5.622  10.395   1.687
63302SOL    HW191680   5.686  10.349   1.741
63302SOL    HW291681   5.575  10.452   1.748
63303SOL     OW91682   2.603   2.482   8.110
63303SOL    HW191683   2.554   2.477   8.192
63303SOL    HW291684   2.635   2.572   8.106
63304SOL     OW91685  10.503   9.319   6.264
63304SOL    HW191686  10.471   9.229   6.270
63304SOL    HW291687  10.589   9.312   6.222
63305SOL     OW91688   4.326   8.959   5.218
63305SOL    HW191689   4.301   8.997   5.133
63305SOL    HW291690   4.282   8.874   5.219
63306SOL     OW91691  10.674   1.482  13.065
63306SOL    HW191692  10.624   1.401  13.072
63306SOL    HW291693  10.699   1.487  12.973
63307SOL     OW91694  11.442  14.169   3.566
63307SOL    HW191695  11.422  14.238   3.503
63307SOL    HW291696  11.360  14.155   3.613
63308SOL     OW91697   3.833  14.392   8.551
63308SOL    HW191698   3.778  14.330   8.503
63308SOL    HW291699   3.774  14.464   8.572
63309SOL     OW91700   7.641  10.982   0.791
63309SOL    HW191701   7.567  10.979   0.851
63309SOL    HW291702   7.640  10.896   0.748
63310SOL     OW91703   6.585   0.469   9.729
63310SOL    HW191704   6.613   0.464   9.637
63310SOL    HW291705   6.574   0.377   9.755
63311SOL     OW91706   3.866  10.295  10.631
63311SOL    HW191707   3.798  10.318  10.695
63311SOL    HW291708   3.948  10.307  10.678
63312SOL     OW91709   4.766   7.413  11.809
63312SOL    HW191710   4.694   7.452  11.860
63312SOL    HW291711   4.781   7.476  11.738
63313SOL     OW91712   7.591   8.479  14.061
63313SOL    HW191713   7.548   8.488  13.977
63313SOL    HW291714   7.679   8.516  14.047
63314SOL     OW91715  14.187   1.306  13.854
63314SOL    HW191716  14.102   1.316  13.812
63314SOL    HW291717  14.195   1.383  13.910
63315SOL     OW91718   7.407   4.481   5.526
63315SOL    HW191719   7.441   4.398   5.491
63315SOL    HW291720   7.480   4.517   5.577
63316SOL     OW91721   8.981   9.537  12.196
63316SOL    HW191722   8.888   9.556  12.209
63316SOL    HW291723   8.982   9.457  12.142
63317SOL     OW91724  14.067   6.178   2.527
63317SOL    HW191725  14.015   6.148   2.452
63317SOL    HW291726  14.062   6.274   2.523
63318SOL     OW91727   8.399   7.173   8.141
63318SOL    HW191728   8.320   7.120   8.135
63318SOL    HW291729   8.368   7.260   8.168
63319SOL     OW91730  10.570   2.563   3.857
63319SOL    HW191731  10.510   2.551   3.930
63319SOL    HW291732  10.601   2.653   3.866
63320SOL     OW91733   4.982   1.353  10.757
63320SOL    HW191734   4.921   1.425  10.773
63320SOL    HW291735   4.953   1.283  10.815
63321SOL     OW91736   0.886   9.501   4.125
63321SOL    HW191737   0.832   9.438   4.173
63321SOL    HW291738   0.861   9.487   4.033
63322SOL     OW91739  14.704  14.762   4.692
63322SOL    HW191740  14.747  14.755   4.777
63322SOL    HW291741  14.686  14.671   4.666
63323SOL     OW91742   2.984   8.771   3.056
63323SOL    HW191743   3.008   8.713   2.983
63323SOL    HW291744   3.068   8.793   3.097
63324SOL     OW91745   1.018   2.507   6.058
63324SOL    HW191746   1.051   2.494   5.969
63324SOL    HW291747   0.955   2.578   6.051
63325SOL     OW91748   2.382   7.475  10.494
63325SOL    HW191749   2.330   7.443  10.568
63325SOL    HW291750   2.360   7.568  10.488
63326SOL     OW91751  13.284   4.594  14.488
63326SOL    HW191752  13.199   4.555  14.510
63326SOL    HW291753  13.263   4.684  14.463
63327SOL     OW91754   9.855   9.606   1.539
63327SOL    HW191755   9.880   9.659   1.463
63327SOL    HW291756   9.863   9.667   1.613
63328SOL     OW91757   0.379  13.563   3.871
63328SOL    HW191758   0.368  13.515   3.789
63328SOL    HW291759   0.297  13.549   3.918
63329SOL     OW91760  13.291   7.419   7.837
63329SOL    HW191761  13.345   7.343   7.856
63329SOL    HW291762  13.348   7.476   7.784
63330SOL     OW91763   4.534   7.422   6.538
63330SOL    HW191764   4.443   7.436   6.561
63330SOL    HW291765   4.544   7.327   6.533
63331SOL     OW91766  11.854  10.693   6.402
63331SOL    HW191767  11.910  10.638   6.348
63331SOL    HW291768  11.798  10.739   6.339
63332SOL     OW91769   0.822   6.292   5.561
63332SOL    HW191770   0.764   6.365   5.584
63332SOL    HW291771   0.894   6.332   5.513
63333SOL     OW91772  14.104   2.915  13.227
63333SOL    HW191773  14.019   2.955  13.210
63333SOL    HW291774  14.114   2.919  13.322
63334SOL     OW91775  10.962   5.379   9.719
63334SOL    HW191776  10.961   5.432   9.639
63334SOL    HW291777  11.045   5.401   9.761
63335SOL     OW91778   5.036  10.190   4.919
63335SOL    HW191779   5.017  10.177   4.826
63335SOL    HW291780   5.059  10.103   4.951
63336SOL     OW91781   2.661   3.396   4.088
63336SOL    HW191782   2.590   3.355   4.139
63336SOL    HW291783   2.730   3.411   4.153
63337SOL     OW91784   7.396   9.382  11.425
63337SOL    HW191785   7.332   9.312  11.440
63337SOL    HW291786   7.463   9.342  11.369
63338SOL     OW91787   0.225  11.679   8.896
63338SOL    HW191788   0.317  11.681   8.871
63338SOL    HW291789   0.182  11.631   8.826
63339SOL     OW91790  10.832   0.449   8.287
63339SOL    HW191791  10.902   0.512   8.272
63339SOL    HW291792  10.815   0.411   8.201
63340SOL     OW91793   3.327   5.972   2.110
63340SOL    HW191794   3.408   5.976   2.059
63340SOL    HW291795   3.355   5.951   2.199
63341SOL     OW91796   8.120   4.900   7.190
63341SOL    HW191797   8.061   4.879   7.117
63341SOL    HW291798   8.070   4.960   7.244
63342SOL     OW91799   5.011   3.852   6.743
63342SOL    HW191800   5.100   3.816   6.754
63342SOL    HW291801   4.956   3.776   6.726
63343SOL     OW91802  11.158   6.415   0.632
63343SOL    HW191803  11.215   6.350   0.673
63343SOL    HW291804  11.157   6.393   0.539
63344SOL     OW91805  11.562   9.772   8.588
63344SOL    HW191806  11.638   9.824   8.561
63344SOL    HW291807  11.548   9.711   8.515
63345SOL     OW91808   8.357   4.050   1.450
63345SOL    HW191809   8.311   4.089   1.376
63345SOL    HW291810   8.328   3.959   1.451
63346SOL     OW91811   6.590   0.056  10.463
63346SOL    HW191812   6.648   0.015  10.399
63346SOL    HW291813   6.605   0.008  10.544
63347SOL     OW91814   5.646   9.141  13.898
63347SOL    HW191815   5.703   9.184  13.962
63347SOL    HW291816   5.700   9.072  13.860
63348SOL     OW91817  10.077  13.672   1.680
63348SOL    HW191818   9.995  13.635   1.647
63348SOL    HW291819  10.111  13.606   1.740
63349SOL     OW91820   0.428   9.565  10.624
63349SOL    HW191821   0.497   9.504  10.600
63349SOL    HW291822   0.359   9.510  10.660
63350SOL     OW91823   9.000   4.000   7.155
63350SOL    HW191824   8.959   3.918   7.182
63350SOL    HW291825   8.926   4.060   7.142
63351SOL     OW91826   5.372   5.889   0.537
63351SOL    HW191827   5.440   5.956   0.525
63351SOL    HW291828   5.291   5.932   0.510
63352SOL     OW91829  14.316   4.000  12.602
63352SOL    HW191830  14.354   4.013  12.516
63352SOL    HW291831  14.230   3.961  12.585
63353SOL     OW91832   5.767  11.888   1.726
63353SOL    HW191833   5.760  11.919   1.816
63353SOL    HW291834   5.858  11.905   1.702
63354SOL     OW91835   7.942   8.953   0.089
63354SOL    HW191836   7.951   8.958  14.875
63354SOL    HW291837   7.848   8.949   0.104
63355SOL     OW91838  13.691  13.584   3.825
63355SOL    HW191839  13.688  13.623   3.737
63355SOL    HW291840  13.665  13.656   3.884
63356SOL     OW91841  11.319  14.518  11.491
63356SOL    HW191842  11.367  14.597  11.518
63356SOL    HW291843  11.388  14.455  11.469
63357SOL     OW91844   8.429  13.721   6.876
63357SOL    HW191845   8.359  13.667   6.840
63357SOL    HW291846   8.438  13.793   6.813
63358SOL     OW91847   0.440   3.418  10.049
63358SOL    HW191848   0.441   3.442  10.141
63358SOL    HW291849   0.353   3.380  10.035
63359SOL     OW91850   4.835   0.510  14.780
63359SOL    HW191851   4.829   0.462  14.863
63359SOL    HW291852   4.822   0.602  14.804
63360SOL     OW91853   6.673  13.559   4.114
63360SOL    HW191854   6.656  13.540   4.022
63360SOL    HW291855   6.756  13.606   4.114
63361SOL     OW91856  12.456   9.179   6.998
63361SOL    HW191857  12.455   9.258   6.944
63361SOL    HW291858  12.549   9.155   7.004
63362SOL     OW91859   6.375   2.260  12.682
63362SOL    HW191860   6.287   2.283  12.651
63362SOL    HW291861   6.409   2.341  12.720
63363SOL     OW91862  12.263   0.823   3.186
63363SOL    HW191863  12.288   0.781   3.269
63363SOL    HW291864  12.245   0.914   3.210
63364SOL     OW91865   0.953  13.708   3.631
63364SOL    HW191866   0.903  13.760   3.568
63364SOL    HW291867   1.042  13.743   3.625
63365SOL     OW91868   1.417  12.688   2.357
63365SOL    HW191869   1.495  12.651   2.399
63365SOL    HW291870   1.344  12.662   2.413
63366SOL     OW91871  13.616  12.761   0.040
63366SOL    HW191872  13.551  12.720   0.098
63366SOL    HW291873  13.607  12.714  14.839
63367SOL     OW91874  12.101   9.262  14.204
63367SOL    HW191875  12.066   9.190  14.151
63367SOL    HW291876  12.145   9.219  14.277
63368SOL     OW91877   8.458   7.865  14.290
63368SOL    HW191878   8.427   7.784  14.249
63368SOL    HW291879   8.485   7.920  14.216
63369SOL     OW91880  10.337  10.771  10.609
63369SOL    HW191881  10.333  10.676  10.598
63369SOL    HW291882  10.391  10.783  10.688
63370SOL     OW91883  11.584   6.839   6.028
63370SOL    HW191884  11.593   6.811   5.937
63370SOL    HW291885  11.606   6.762   6.080
63371SOL     OW91886  13.167   4.486   7.615
63371SOL    HW191887  13.095   4.423   7.608
63371SOL    HW291888  13.178   4.520   7.527
63372SOL     OW91889   1.614   3.621   5.536
63372SOL    HW191890   1.673   3.550   5.516
63372SOL    HW291891   1.571   3.641   5.452
63373SOL     OW91892   6.860   3.295  13.812
63373SOL    HW191893   6.839   3.341  13.730
63373SOL    HW291894   6.866   3.365  13.878
63374SOL     OW91895  11.581   7.493   6.564
63374SOL    HW191896  11.521   7.491   6.489
63374SOL    HW291897  11.624   7.408   6.562
63375SOL     OW91898   7.796   5.740   7.306
63375SOL    HW191899   7.703   5.744   7.283
63375SOL    HW291900   7.826   5.656   7.271
63376SOL     OW91901   9.083  13.745   7.970
63376SOL    HW191902   9.001  13.770   8.013
63376SOL    HW291903   9.065  13.659   7.931
63377SOL     OW91904   9.974   3.345   3.656
63377SOL    HW191905  10.016   3.359   3.571
63377SOL    HW291906   9.885   3.379   3.646
63378SOL     OW91907  13.630   9.626   8.466
63378SOL    HW191908  13.609   9.719   8.479
63378SOL    HW291909  13.652   9.619   8.373
63379SOL     OW91910   1.987   5.506   2.397
63379SOL    HW191911   1.939   5.554   2.465
63379SOL    HW291912   2.065   5.473   2.441
63380SOL     OW91913   6.582  12.435  10.316
63380SOL    HW191914   6.544  12.373  10.379
63380SOL    HW291915   6.644  12.485  10.368
63381SOL     OW91916   9.454  14.599   9.896
63381SOL    HW191917   9.481  14.613   9.987
63381SOL    HW291918   9.536  14.601   9.846
63382SOL     OW91919   6.165   6.166   6.728
63382SOL    HW191920   6.126   6.222   6.795
63382SOL    HW291921   6.206   6.095   6.777
63383SOL     OW91922   1.927   8.006   1.333
63383SOL    HW191923   1.918   7.911   1.344
63383SOL    HW291924   1.870   8.027   1.259
63384SOL     OW91925   6.107   2.255  13.589
63384SOL    HW191926   6.074   2.269  13.501
63384SOL    HW291927   6.030   2.234  13.641
63385SOL     OW91928   3.221   9.263  11.718
63385SOL    HW191929   3.156   9.209  11.763
63385SOL    HW291930   3.300   9.208  11.714
63386SOL     OW91931   6.008  14.489   0.090
63386SOL    HW191932   5.972  14.473   0.003
63386SOL    HW291933   5.969  14.421   0.145
63387SOL     OW91934   8.809   1.771  13.391
63387SOL    HW191935   8.807   1.715  13.314
63387SOL    HW291936   8.726   1.818  13.389
63388SOL     OW91937   1.444  11.252  14.422
63388SOL    HW191938   1.438  11.346  14.406
63388SOL    HW291939   1.414  11.212  14.340
63389SOL     OW91940   0.455   4.004   7.107
63389SOL    HW191941   0.487   3.918   7.080
63389SOL    HW291942   0.478   4.062   7.034
63390SOL     OW91943   5.573   1.734   0.066
63390SOL    HW191944   5.608   1.671   0.003
63390SOL    HW291945   5.575   1.687   0.150
63391SOL     OW91946   9.635  11.034   2.625
63391SOL    HW191947   9.618  10.950   2.584
63391SOL    HW291948   9.581  11.034   2.704
63392SOL     OW91949   1.286   7.557   7.815
63392SOL    HW191950   1.370   7.550   7.770
63392SOL    HW291951   1.302   7.518   7.901
63393SOL     OW91952  12.893  11.465   4.797
63393SOL    HW191953  12.983  11.434   4.788
63393SOL    HW291954  12.877  11.516   4.717
63394SOL     OW91955  10.327  11.368   9.337
63394SOL    HW191956  10.251  11.318   9.365
63394SOL    HW291957  10.304  11.459   9.355
63395SOL     OW91958   1.095   4.814   6.682
63395SOL    HW191959   1.160   4.834   6.614
63395SOL    HW291960   1.067   4.899   6.715
63396SOL     OW91961  12.543   7.253   1.172
63396SOL    HW191962  12.544   7.177   1.230
63396SOL    HW291963  12.618   7.305   1.199
63397SOL     OW91964  13.462   8.155   7.206
63397SOL    HW191965  13.527   8.128   7.142
63397SOL    HW291966  13.479   8.248   7.220
63398SOL     OW91967   0.025   9.147   9.695
63398SOL    HW191968  14.842   9.182   9.633
63398SOL    HW291969   0.066   9.074   9.648
63399SOL     OW91970   0.137  13.750  13.722
63399SOL    HW191971   0.176  13.767  13.636
63399SOL    HW291972   0.088  13.831  13.742
63400SOL     OW91973   9.843   0.146  13.250
63400SOL    HW191974   9.863   0.172  13.340
63400SOL    HW291975   9.883   0.214  13.196
63401SOL     OW91976  12.027   6.012  10.883
63401SOL    HW191977  12.039   6.012  10.788
63401SOL    HW291978  11.944   6.057  10.897
63402SOL     OW91979   3.986   7.799  12.259
63402SOL    HW191980   4.041   7.734  12.214
63402SOL    HW291981   4.045   7.871  12.279
63403SOL     OW91982   1.053   6.486  13.005
63403SOL    HW191983   1.095   6.422  12.948
63403SOL    HW291984   1.119   6.555  13.017
63404SOL     OW91985   1.782   4.265   0.312
63404SOL    HW191986   1.717   4.195   0.309
63404SOL    HW291987   1.781   4.295   0.403
63405SOL     OW91988  13.522   1.303   9.764
63405SOL    HW191989  13.469   1.249   9.823
63405SOL    HW291990  13.565   1.367   9.821
63406SOL     OW91991  12.612   8.259  10.388
63406SOL    HW191992  12.692   8.281  10.436
63406SOL    HW291993  12.589   8.171  10.418
63407SOL     OW91994  10.829   0.318  13.427
63407SOL    HW191995  10.877   0.337  13.508
63407SOL    HW291996  10.868   0.238  13.394
63408SOL     OW91997   3.628   2.376  11.551
63408SOL    HW191998   3.593   2.464  11.561
63408SOL    HW291999   3.693   2.384  11.481
63409SOL     OW92000   6.081   6.429   0.510
63409SOL    HW192001   6.051   6.450   0.599
63409SOL    HW292002   6.014   6.467   0.453
63410SOL     OW92003   5.697   2.075  14.602
63410SOL    HW192004   5.646   2.037  14.674
63410SOL    HW292005   5.786   2.079  14.635
63411SOL     OW92006   2.563   0.295  11.612
63411SOL    HW192007   2.482   0.337  11.639
63411SOL    HW292008   2.555   0.205  11.644
63412SOL     OW92009   1.396  11.434  10.977
63412SOL    HW192010   1.439  11.515  11.006
63412SOL    HW292011   1.468  11.370  10.972
63413SOL     OW92012  13.262   6.905  13.323
63413SOL    HW192013  13.202   6.876  13.254
63413SOL    HW292014  13.349   6.888  13.288
63414SOL     OW92015  10.231  14.047  10.203
63414SOL    HW192016  10.187  14.131  10.218
63414SOL    HW292017  10.323  14.070  10.193
63415SOL     OW92018   0.553   7.165   6.494
63415SOL    HW192019   0.581   7.143   6.405
63415SOL    HW292020   0.470   7.211   6.482
63416SOL     OW92021   6.350   6.744   7.910
63416SOL    HW192022   6.271   6.690   7.907
63416SOL    HW292023   6.418   6.685   7.944
63417SOL     OW92024   7.225  11.995   6.233
63417SOL    HW192025   7.221  11.953   6.147
63417SOL    HW292026   7.302  12.052   6.228
63418SOL     OW92027   0.749   5.694   0.440
63418SOL    HW192028   0.662   5.692   0.479
63418SOL    HW292029   0.761   5.607   0.402
63419SOL     OW92030   1.090   9.519   8.884
63419SOL    HW192031   1.007   9.553   8.853
63419SOL    HW292032   1.072   9.428   8.909
63420SOL     OW92033   3.811   2.700  10.380
63420SOL    HW192034   3.750   2.752  10.432
63420SOL    HW292035   3.854   2.763  10.322
63421SOL     OW92036   1.895   1.129   2.996
63421SOL    HW192037   1.802   1.149   3.011
63421SOL    HW292038   1.900   1.108   2.903
63422SOL     OW92039  13.413   2.795  10.358
63422SOL    HW192040  13.497   2.834  10.332
63422SOL    HW292041  13.348   2.851  10.316
63423SOL     OW92042  14.205   6.610   2.571
63423SOL    HW192043  14.260   6.541   2.533
63423SOL    HW292044  14.208   6.593   2.666
63424SOL     OW92045   9.444   2.683  14.711
63424SOL    HW192046   9.479   2.650  14.628
63424SOL    HW292047   9.359   2.640  14.720
63425SOL     OW92048  10.468  10.703   8.285
63425SOL    HW192049  10.381  10.705   8.244
63425SOL    HW292050  10.455  10.742   8.371
63426SOL     OW92051  10.569   9.795  10.734
63426SOL    HW192052  10.536   9.731  10.671
63426SOL    HW292053  10.528   9.770  10.817
63427SOL     OW92054   8.340   7.185   0.284
63427SOL    HW192055   8.361   7.222   0.198
63427SOL    HW292056   8.362   7.254   0.346
63428SOL     OW92057   4.663   7.541   0.563
63428SOL    HW192058   4.703   7.552   0.649
63428SOL    HW292059   4.731   7.499   0.510
63429SOL     OW92060   0.759   8.191   3.001
63429SOL    HW192061   0.773   8.245   3.078
63429SOL    HW292062   0.805   8.109   3.020
63430SOL     OW92063  10.915   5.069  12.744
63430SOL    HW192064  10.984   5.135  12.735
63430SOL    HW292065  10.887   5.076  12.835
63431SOL     OW92066   7.369   2.096   9.068
63431SOL    HW192067   7.347   2.031   9.134
63431SOL    HW292068   7.298   2.159   9.071
63432SOL     OW92069   8.496  11.551   3.814
63432SOL    HW192070   8.427  11.571   3.750
63432SOL    HW292071   8.551  11.485   3.770
63433SOL     OW92072   9.481   3.998   4.226
63433SOL    HW192073   9.399   4.047   4.213
63433SOL    HW292074   9.506   3.972   4.137
63434SOL     OW92075   9.995   1.943   5.167
63434SOL    HW192076   9.924   2.007   5.163
63434SOL    HW292077  10.054   1.976   5.235
63435SOL     OW92078  11.812  14.372   1.236
63435SOL    HW192079  11.845  14.324   1.159
63435SOL    HW292080  11.880  14.437   1.255
63436SOL     OW92081   4.669  14.342  14.305
63436SOL    HW192082   4.609  14.268  14.299
63436SOL    HW292083   4.627  14.411  14.254
63437SOL     OW92084   4.591   3.792   1.677
63437SOL    HW192085   4.649   3.859   1.642
63437SOL    HW292086   4.620   3.711   1.635
63438SOL     OW92087   2.982  12.578  14.802
63438SOL    HW192088   2.923  12.602  14.731
63438SOL    HW292089   2.924  12.555  14.875
63439SOL     OW92090  12.263   1.421   1.945
63439SOL    HW192091  12.255   1.329   1.921
63439SOL    HW292092  12.239   1.469   1.866
63440SOL     OW92093   8.537   9.134  11.229
63440SOL    HW192094   8.542   9.039  11.224
63440SOL    HW292095   8.451   9.152  11.266
63441SOL     OW92096  13.812   3.250   5.686
63441SOL    HW192097  13.809   3.342   5.709
63441SOL    HW292098  13.721   3.219   5.696
63442SOL     OW92099   3.150  13.293   8.031
63442SOL    HW192100   3.214  13.321   8.096
63442SOL    HW292101   3.201  13.278   7.952
63443SOL     OW92102  12.892   0.648   6.607
63443SOL    HW192103  12.925   0.566   6.572
63443SOL    HW292104  12.939   0.716   6.558
63444SOL     OW92105   7.955  11.333   7.866
63444SOL    HW192106   7.928  11.306   7.954
63444SOL    HW292107   7.925  11.423   7.858
63445SOL     OW92108   9.097   8.925  11.548
63445SOL    HW192109   9.098   8.879  11.465
63445SOL    HW292110   9.017   8.978  11.545
63446SOL     OW92111   4.492  10.996   8.538
63446SOL    HW192112   4.563  10.931   8.538
63446SOL    HW292113   4.504  11.045   8.457
63447SOL     OW92114   3.939   7.409  11.089
63447SOL    HW192115   3.862   7.369  11.047
63447SOL    HW292116   3.964   7.480  11.030
63448SOL     OW92117   3.364   2.455  12.544
63448SOL    HW192118   3.276   2.464  12.581
63448SOL    HW292119   3.413   2.527  12.584
63449SOL     OW92120  12.031   3.844   9.855
63449SOL    HW192121  12.030   3.752   9.882
63449SOL    HW292122  12.033   3.893   9.937
63450SOL     OW92123  14.238   4.756  10.453
63450SOL    HW192124  14.305   4.781  10.389
63450SOL    HW292125  14.206   4.672  10.422
63451SOL     OW92126   0.188  12.801  13.758
63451SOL    HW192127   0.092  12.797  13.755
63451SOL    HW292128   0.214  12.710  13.776
63452SOL     OW92129  13.104  11.235   7.415
63452SOL    HW192130  13.052  11.196   7.486
63452SOL    HW292131  13.129  11.162   7.359
63453SOL     OW92132  14.819   2.793  13.744
63453SOL    HW192133  14.834   2.831  13.831
63453SOL    HW292134   0.012   2.823  13.692
63454SOL     OW92135   1.281  13.060  14.565
63454SOL    HW192136   1.322  13.051  14.651
63454SOL    HW292137   1.233  13.143  14.570
63455SOL     OW92138   0.172   1.179   3.970
63455SOL    HW192139   0.118   1.226   4.033
63455SOL    HW292140   0.175   1.236   3.894
63456SOL     OW92141   4.310  13.800   9.777
63456SOL    HW192142   4.370  13.777   9.706
63456SOL    HW292143   4.356  13.773   9.857
63457SOL     OW92144   7.380   0.067  10.704
63457SOL    HW192145   7.454   0.006  10.703
63457SOL    HW292146   7.420   0.152  10.684
63458SOL     OW92147   6.106  12.942  13.667
63458SOL    HW192148   6.124  12.992  13.587
63458SOL    HW292149   6.064  13.005  13.726
63459SOL     OW92150   9.059   5.238  11.483
63459SOL    HW192151   9.133   5.192  11.443
63459SOL    HW292152   9.095   5.320  11.516
63460SOL     OW92153   7.310   7.917   5.553
63460SOL    HW192154   7.386   7.867   5.583
63460SOL    HW292155   7.288   7.877   5.469
63461SOL     OW92156  13.538  14.764   7.097
63461SOL    HW192157  13.515  14.855   7.080
63461SOL    HW292158  13.488  14.714   7.032
63462SOL     OW92159   8.677   7.129  12.872
63462SOL    HW192160   8.737   7.175  12.932
63462SOL    HW292161   8.677   7.183  12.793
63463SOL     OW92162  13.716  12.059   2.289
63463SOL    HW192163  13.769  12.139   2.291
63463SOL    HW292164  13.631  12.087   2.256
63464SOL     OW92165   7.701  14.107  10.875
63464SOL    HW192166   7.655  14.188  10.899
63464SOL    HW292167   7.631  14.046  10.854
63465SOL     OW92168   3.023  13.854  14.633
63465SOL    HW192169   3.069  13.775  14.663
63465SOL    HW292170   3.052  13.865  14.542
63466SOL     OW92171  14.408   1.838   7.519
63466SOL    HW192172  14.400   1.813   7.427
63466SOL    HW292173  14.335   1.897   7.535
63467SOL     OW92174  13.482   5.546   8.685
63467SOL    HW192175  13.483   5.467   8.630
63467SOL    HW292176  13.415   5.602   8.646
63468SOL     OW92177  12.070  12.806  11.688
63468SOL    HW192178  12.098  12.771  11.772
63468SOL    HW292179  12.083  12.901  11.695
63469SOL     OW92180  14.734   9.145   8.020
63469SOL    HW192181  14.742   9.132   8.115
63469SOL    HW292182  14.642   9.128   8.001
63470SOL     OW92183   1.774   8.591  13.814
63470SOL    HW192184   1.718   8.563  13.887
63470SOL    HW292185   1.860   8.605  13.854
63471SOL     OW92186   7.376   7.927   1.120
63471SOL    HW192187   7.471   7.927   1.129
63471SOL    HW292188   7.359   7.872   1.043
63472SOL     OW92189  12.625  13.327   7.719
63472SOL    HW192190  12.671  13.356   7.798
63472SOL    HW292191  12.654  13.387   7.651
63473SOL     OW92192  11.703   4.763  11.593
63473SOL    HW192193  11.778   4.822  11.584
63473SOL    HW292194  11.741   4.675  11.590
63474SOL     OW92195  12.031   0.323  10.129
63474SOL    HW192196  11.995   0.238  10.107
63474SOL    HW292197  11.985   0.349  10.209
63475SOL     OW92198   6.381   4.557   0.513
63475SOL    HW192199   6.344   4.645   0.519
63475SOL    HW292200   6.325   4.504   0.570
63476SOL     OW92201   0.761   8.852   5.087
63476SOL    HW192202   0.856   8.840   5.084
63476SOL    HW292203   0.726   8.773   5.047
63477SOL     OW92204   7.627   3.687   6.368
63477SOL    HW192205   7.538   3.718   6.350
63477SOL    HW292206   7.616   3.597   6.396
63478SOL     OW92207   2.910  10.702   6.214
63478SOL    HW192208   2.963  10.781   6.206
63478SOL    HW292209   2.819  10.732   6.204
63479SOL     OW92210   0.109   2.531  11.043
63479SOL    HW192211   0.158   2.611  11.027
63479SOL    HW292212   0.176   2.464  11.056
63480SOL     OW92213  10.892   2.043  11.107
63480SOL    HW192214  10.922   2.016  11.194
63480SOL    HW292215  10.802   2.010  11.101
63481SOL     OW92216   7.977   8.246  14.768
63481SOL    HW192217   7.979   8.306  14.842
63481SOL    HW292218   8.069   8.237  14.743
63482SOL     OW92219   9.577  14.419   2.184
63482SOL    HW192220   9.631  14.439   2.108
63482SOL    HW292221   9.606  14.331   2.211
63483SOL     OW92222   6.480  12.768   4.647
63483SOL    HW192223   6.494  12.854   4.686
63483SOL    HW292224   6.517  12.707   4.710
63484SOL     OW92225   0.382   2.438   8.257
63484SOL    HW192226   0.391   2.474   8.169
63484SOL    HW292227   0.289   2.450   8.278
63485SOL     OW92228  10.826   9.282  10.104
63485SOL    HW192229  10.879   9.348  10.059
63485SOL    HW292230  10.800   9.221  10.035
63486SOL     OW92231  14.689   4.983  11.134
63486SOL    HW192232  14.740   4.949  11.060
63486SOL    HW292233  14.668   5.073  11.110
63487SOL     OW92234   1.893   2.913  11.441
63487SOL    HW192235   1.898   2.833  11.492
63487SOL    HW292236   1.976   2.957  11.457
63488SOL     OW92237  11.602  11.351   2.986
63488SOL    HW192238  11.665  11.288   2.952
63488SOL    HW292239  11.617  11.352   3.080
63489SOL     OW92240  10.058   3.478   8.498
63489SOL    HW192241  10.028   3.479   8.589
63489SOL    HW292242  10.032   3.562   8.463
63490SOL     OW92243  11.212   3.608  14.004
63490SOL    HW192244  11.238   3.543  14.069
63490SOL    HW292245  11.176   3.556  13.931
63491SOL     OW92246  12.639   6.227   3.970
63491SOL    HW192247  12.552   6.246   3.933
63491SOL    HW292248  12.684   6.178   3.901
63492SOL     OW92249   3.314   4.780  11.028
63492SOL    HW192250   3.360   4.793  10.945
63492SOL    HW292251   3.234   4.734  11.005
63493SOL     OW92252  11.423   2.334  10.996
63493SOL    HW192253  11.483   2.345  10.922
63493SOL    HW292254  11.355   2.275  10.963
63494SOL     OW92255  10.432  12.477   3.944
63494SOL    HW192256  10.479  12.394   3.945
63494SOL    HW292257  10.355  12.461   3.999
63495SOL     OW92258   4.645  12.408  13.376
63495SOL    HW192259   4.613  12.497  13.389
63495SOL    HW292260   4.598  12.376  13.299
63496SOL     OW92261  11.713   8.156  14.503
63496SOL    HW192262  11.686   8.082  14.450
63496SOL    HW292263  11.772   8.206  14.447
63497SOL     OW92264   6.191   0.238  11.200
63497SOL    HW192265   6.133   0.221  11.126
63497SOL    HW292266   6.132   0.244  11.276
63498SOL     OW92267   4.994   3.827   5.345
63498SOL    HW192268   4.967   3.834   5.253
63498SOL    HW292269   4.955   3.905   5.387
63499SOL     OW92270   9.615   3.032   7.427
63499SOL    HW192271   9.600   3.041   7.520
63499SOL    HW292272   9.686   2.968   7.420
63500SOL     OW92273   1.172   9.830   9.455
63500SOL    HW192274   1.209   9.743   9.475
63500SOL    HW292275   1.236   9.892   9.491
63501SOL     OW92276   0.576   3.262   9.644
63501SOL    HW192277   0.614   3.258   9.557
63501SOL    HW292278   0.519   3.186   9.650
63502SOL     OW92279   0.189   2.207   2.733
63502SOL    HW192280   0.212   2.209   2.640
63502SOL    HW292281   0.147   2.122   2.746
63503SOL     OW92282   2.509   9.649   1.001
63503SOL    HW192283   2.481   9.636   0.911
63503SOL    HW292284   2.550   9.566   1.026
63504SOL     OW92285  12.686  12.885   4.560
63504SOL    HW192286  12.597  12.890   4.526
63504SOL    HW292287  12.686  12.942   4.637
63505SOL     OW92288   8.866   6.063   2.160
63505SOL    HW192289   8.940   6.014   2.196
63505SOL    HW292290   8.905   6.137   2.114
63506SOL     OW92291  10.721   4.598   7.223
63506SOL    HW192292  10.702   4.549   7.303
63506SOL    HW292293  10.816   4.596   7.215
63507SOL     OW92294   8.975  13.982   1.817
63507SOL    HW192295   8.963  14.045   1.746
63507SOL    HW292296   9.069  13.964   1.819
63508SOL     OW92297   4.766  14.159  12.835
63508SOL    HW192298   4.770  14.192  12.745
63508SOL    HW292299   4.789  14.067  12.828
63509SOL     OW92300   5.930  13.051  13.029
63509SOL    HW192301   5.902  13.002  13.106
63509SOL    HW292302   5.849  13.079  12.986
63510SOL     OW92303   5.310   2.428   4.880
63510SOL    HW192304   5.223   2.434   4.917
63510SOL    HW292305   5.339   2.339   4.898
63511SOL     OW92306   7.718   7.114   4.175
63511SOL    HW192307   7.631   7.145   4.151
63511SOL    HW292308   7.736   7.157   4.259
63512SOL     OW92309  11.940   9.525   2.589
63512SOL    HW192310  11.953   9.456   2.524
63512SOL    HW292311  11.898   9.596   2.541
63513SOL     OW92312   4.948  10.878   0.502
63513SOL    HW192313   4.859  10.898   0.530
63513SOL    HW292314   4.941  10.861   0.408
63514SOL     OW92315  13.338   2.661   9.577
63514SOL    HW192316  13.367   2.595   9.640
63514SOL    HW292317  13.416   2.715   9.562
63515SOL     OW92318   9.504   8.813   8.149
63515SOL    HW192319   9.534   8.841   8.235
63515SOL    HW292320   9.581   8.771   8.110
63516SOL     OW92321  12.571   5.568  12.379
63516SOL    HW192322  12.499   5.628  12.397
63516SOL    HW292323  12.528   5.489  12.346
63517SOL     OW92324   5.077  11.401   2.870
63517SOL    HW192325   5.155  11.430   2.823
63517SOL    HW292326   5.005  11.446   2.827
63518SOL     OW92327  10.425  11.952  11.249
63518SOL    HW192328  10.429  11.988  11.161
63518SOL    HW292329  10.430  12.028  11.307
63519SOL     OW92330   4.787   2.943  10.322
63519SOL    HW192331   4.827   2.856  10.315
63519SOL    HW292332   4.854   3.003  10.289
63520SOL     OW92333   7.210   1.017  10.926
63520SOL    HW192334   7.293   1.032  10.880
63520SOL    HW292335   7.152   1.085  10.891
63521SOL     OW92336   0.748  14.331   2.323
63521SOL    HW192337   0.703  14.272   2.263
63521SOL    HW292338   0.755  14.414   2.275
63522SOL     OW92339  12.535   7.747   0.712
63522SOL    HW192340  12.627   7.771   0.727
63522SOL    HW292341  12.538   7.654   0.689
63523SOL     OW92342   8.535   9.902   6.039
63523SOL    HW192343   8.477   9.921   6.113
63523SOL    HW292344   8.490   9.939   5.963
63524SOL     OW92345  10.481   4.789   9.015
63524SOL    HW192346  10.435   4.823   9.092
63524SOL    HW292347  10.562   4.752   9.050
63525SOL     OW92348  11.291   2.437   3.663
63525SOL    HW192349  11.270   2.443   3.756
63525SOL    HW292350  11.231   2.499   3.620
63526SOL     OW92351   9.680  11.025   7.502
63526SOL    HW192352   9.750  10.973   7.540
63526SOL    HW292353   9.697  11.023   7.408
63527SOL     OW92354   9.245  12.661  12.695
63527SOL    HW192355   9.238  12.577  12.741
63527SOL    HW292356   9.324  12.701  12.732
63528SOL     OW92357   4.126  14.000   1.742
63528SOL    HW192358   4.171  13.942   1.680
63528SOL    HW292359   4.172  14.083   1.734
63529SOL     OW92360   7.353   7.847   3.197
63529SOL    HW192361   7.399   7.882   3.273
63529SOL    HW292362   7.394   7.890   3.122
63530SOL     OW92363   5.124   2.704   4.060
63530SOL    HW192364   5.124   2.684   3.967
63530SOL    HW292365   5.051   2.764   4.072
63531SOL     OW92366   9.149   1.721   5.640
63531SOL    HW192367   9.083   1.704   5.707
63531SOL    HW292368   9.113   1.682   5.560
63532SOL     OW92369  13.887  11.768  13.984
63532SOL    HW192370  13.908  11.719  14.063
63532SOL    HW292371  13.867  11.700  13.919
63533SOL     OW92372   2.262   0.546   8.528
63533SOL    HW192373   2.307   0.491   8.592
63533SOL    HW292374   2.315   0.539   8.448
63534SOL     OW92375   9.328   6.777  13.236
63534SOL    HW192376   9.297   6.705  13.292
63534SOL    HW292377   9.326   6.854  13.293
63535SOL     OW92378   6.981   6.922  14.257
63535SOL    HW192379   6.954   6.924  14.165
63535SOL    HW292380   7.001   6.830  14.274
63536SOL     OW92381  11.494   4.109  14.021
63536SOL    HW192382  11.412   4.100  13.972
63536SOL    HW292383  11.472   4.170  14.092
63537SOL     OW92384   3.306   0.128  11.709
63537SOL    HW192385   3.283   0.151  11.619
63537SOL    HW292386   3.399   0.149  11.715
63538SOL     OW92387  13.239   1.916   3.917
63538SOL    HW192388  13.265   1.885   3.831
63538SOL    HW292389  13.267   2.007   3.920
63539SOL     OW92390  14.296   4.184   5.709
63539SOL    HW192391  14.216   4.166   5.661
63539SOL    HW292392  14.268   4.201   5.799
63540SOL     OW92393   2.325  13.562   1.989
63540SOL    HW192394   2.236  13.589   2.010
63540SOL    HW292395   2.340  13.594   1.901
63541SOL     OW92396   5.488   9.989   2.516
63541SOL    HW192397   5.545  10.047   2.567
63541SOL    HW292398   5.474   9.913   2.573
63542SOL     OW92399   9.752   8.831   3.465
63542SOL    HW192400   9.754   8.831   3.369
63542SOL    HW292401   9.673   8.879   3.487
63543SOL     OW92402   6.444   6.339   7.743
63543SOL    HW192403   6.534   6.309   7.743
63543SOL    HW292404   6.428   6.368   7.653
63544SOL     OW92405   0.069   6.697   5.431
63544SOL    HW192406   0.023   6.744   5.361
63544SOL    HW292407   0.016   6.619   5.447
63545SOL     OW92408  12.210   8.276  14.501
63545SOL    HW192409  12.180   8.364  14.477
63545SOL    HW292410  12.132   8.234  14.538
63546SOL     OW92411  11.924   6.383   2.557
63546SOL    HW192412  11.984   6.310   2.539
63546SOL    HW292413  11.978   6.450   2.597
63547SOL     OW92414   1.466   0.208   0.371
63547SOL    HW192415   1.408   0.132   0.373
63547SOL    HW292416   1.479   0.226   0.278
63548SOL     OW92417  14.368  14.740  11.131
63548SOL    HW192418  14.460  14.720  11.144
63548SOL    HW292419  14.357  14.739  11.036
63549SOL     OW92420   2.934   2.500  12.956
63549SOL    HW192421   2.884   2.578  12.934
63549SOL    HW292422   2.996   2.489  12.883
63550SOL     OW92423   8.090   8.669   7.974
63550SOL    HW192424   8.046   8.742   7.930
63550SOL    HW292425   8.115   8.705   8.060
63551SOL     OW92426  13.326   7.747  14.525
63551SOL    HW192427  13.255   7.727  14.464
63551SOL    HW292428  13.302   7.831  14.563
63552SOL     OW92429   4.673  13.182   1.683
63552SOL    HW192430   4.767  13.195   1.695
63552SOL    HW292431   4.643  13.143   1.765
63553SOL     OW92432   9.273   8.400   3.173
63553SOL    HW192433   9.227   8.448   3.243
63553SOL    HW292434   9.312   8.325   3.218
63554SOL     OW92435   6.981   5.542  13.213
63554SOL    HW192436   7.039   5.530  13.138
63554SOL    HW292437   6.943   5.456  13.228
63555SOL     OW92438   4.665  10.124   4.415
63555SOL    HW192439   4.571  10.121   4.431
63555SOL    HW292440   4.705  10.110   4.501
63556SOL     OW92441  14.130   0.207  10.887
63556SOL    HW192442  14.118   0.174  10.798
63556SOL    HW292443  14.216   0.249  10.886
63557SOL     OW92444  14.066  11.148   8.820
63557SOL    HW192445  14.061  11.167   8.726
63557SOL    HW292446  13.977  11.125   8.845
63558SOL     OW92447   6.900   6.315   6.514
63558SOL    HW192448   6.831   6.365   6.470
63558SOL    HW292449   6.863   6.227   6.524
63559SOL     OW92450  13.194  11.936   5.282
63559SOL    HW192451  13.144  11.854   5.277
63559SOL    HW292452  13.250  11.924   5.359
63560SOL     OW92453   6.810   6.915  10.939
63560SOL    HW192454   6.820   7.000  10.895
63560SOL    HW292455   6.872   6.917  11.012
63561SOL     OW92456   1.849   6.677  10.355
63561SOL    HW192457   1.898   6.628  10.422
63561SOL    HW292458   1.914   6.737  10.318
63562SOL     OW92459   6.584  13.768   2.615
63562SOL    HW192460   6.664  13.731   2.653
63562SOL    HW292461   6.541  13.812   2.688
63563SOL     OW92462  12.500  13.035  10.515
63563SOL    HW192463  12.489  12.958  10.571
63563SOL    HW292464  12.568  13.010  10.453
63564SOL     OW92465   4.323   7.604   8.087
63564SOL    HW192466   4.388   7.649   8.034
63564SOL    HW292467   4.351   7.620   8.177
63565SOL     OW92468  14.578   0.498   2.216
63565SOL    HW192469  14.587   0.525   2.124
63565SOL    HW292470  14.583   0.580   2.265
63566SOL     OW92471   8.011   9.854   0.787
63566SOL    HW192472   7.954   9.917   0.742
63566SOL    HW292473   7.997   9.872   0.880
63567SOL     OW92474   7.533   3.624  13.456
63567SOL    HW192475   7.484   3.702  13.481
63567SOL    HW292476   7.507   3.608  13.365
63568SOL     OW92477   9.170  11.021  13.173
63568SOL    HW192478   9.186  11.036  13.080
63568SOL    HW292479   9.225  10.945  13.195
63569SOL     OW92480   4.804   7.784   1.461
63569SOL    HW192481   4.864   7.712   1.441
63569SOL    HW292482   4.730   7.771   1.402
63570SOL     OW92483  10.510   0.690  12.008
63570SOL    HW192484  10.549   0.763  12.055
63570SOL    HW292485  10.560   0.686  11.926
63571SOL     OW92486  14.652   0.349  10.374
63571SOL    HW192487  14.633   0.405  10.298
63571SOL    HW292488  14.730   0.389  10.413
63572SOL     OW92489   5.367   3.704  13.455
63572SOL    HW192490   5.422   3.716  13.378
63572SOL    HW292491   5.281   3.680  13.419
63573SOL     OW92492   1.747   0.412   4.034
63573SOL    HW192493   1.741   0.487   4.093
63573SOL    HW292494   1.657   0.379   4.027
63574SOL     OW92495   1.348  14.195   5.246
63574SOL    HW192496   1.357  14.216   5.339
63574SOL    HW292497   1.394  14.266   5.200
63575SOL     OW92498   2.522   1.064  11.701
63575SOL    HW192499   2.471   1.124  11.646
63575SOL    HW292500   2.457   1.022  11.757
63576SOL     OW92501   1.499   4.300   9.459
63576SOL    HW192502   1.425   4.239   9.459
63576SOL    HW292503   1.568   4.254   9.410
63577SOL     OW92504   8.999   5.374   1.781
63577SOL    HW192505   8.920   5.322   1.794
63577SOL    HW292506   9.023   5.358   1.690
63578SOL     OW92507   7.035  14.177   6.081
63578SOL    HW192508   7.064  14.268   6.079
63578SOL    HW292509   7.084  14.134   6.011
63579SOL     OW92510   1.462  12.035   5.028
63579SOL    HW192511   1.393  12.093   5.058
63579SOL    HW292512   1.543  12.072   5.064
63580SOL     OW92513   0.857   5.522  14.209
63580SOL    HW192514   0.823   5.436  14.233
63580SOL    HW292515   0.951   5.517  14.225
63581SOL     OW92516  12.615   7.828  14.008
63581SOL    HW192517  12.681   7.764  13.979
63581SOL    HW292518  12.549   7.827  13.938
63582SOL     OW92519   3.980   9.908   2.145
63582SOL    HW192520   3.934   9.866   2.217
63582SOL    HW292521   3.912   9.957   2.098
63583SOL     OW92522  12.415   3.389   4.615
63583SOL    HW192523  12.461   3.388   4.699
63583SOL    HW292524  12.415   3.481   4.588
63584SOL     OW92525  14.382   0.053   1.468
63584SOL    HW192526  14.323   0.125   1.445
63584SOL    HW292527  14.411   0.074   1.557
63585SOL     OW92528  11.737   6.442   2.786
63585SOL    HW192529  11.772   6.422   2.699
63585SOL    HW292530  11.784   6.521   2.813
63586SOL     OW92531   1.472   4.898   2.821
63586SOL    HW192532   1.420   4.975   2.799
63586SOL    HW292533   1.433   4.827   2.769
63587SOL     OW92534   0.133   5.458   1.242
63587SOL    HW192535   0.186   5.405   1.302
63587SOL    HW292536   0.135   5.546   1.280
63588SOL     OW92537  14.222   0.724   4.662
63588SOL    HW192538  14.141   0.775   4.662
63588SOL    HW292539  14.277   0.767   4.596
63589SOL     OW92540   0.633   2.182   3.626
63589SOL    HW192541   0.662   2.113   3.686
63589SOL    HW292542   0.585   2.135   3.558
63590SOL     OW92543   3.862  11.757   9.720
63590SOL    HW192544   3.865  11.711   9.636
63590SOL    HW292545   3.934  11.719   9.770
63591SOL     OW92546   0.968   4.195   8.837
63591SOL    HW192547   1.000   4.128   8.897
63591SOL    HW292548   1.039   4.207   8.774
63592SOL     OW92549   5.665   9.688   5.410
63592SOL    HW192550   5.592   9.743   5.380
63592SOL    HW292551   5.680   9.626   5.338
63593SOL     OW92552   6.597   9.908   1.553
63593SOL    HW192553   6.670   9.927   1.611
63593SOL    HW292554   6.531   9.973   1.576
63594SOL     OW92555   2.510   1.541   8.972
63594SOL    HW192556   2.579   1.604   8.954
63594SOL    HW292557   2.464   1.530   8.889
63595SOL     OW92558   2.298   7.174   3.060
63595SOL    HW192559   2.329   7.112   2.994
63595SOL    HW292560   2.241   7.123   3.116
63596SOL     OW92561  10.484  11.684  11.292
63596SOL    HW192562  10.424  11.644  11.354
63596SOL    HW292563  10.451  11.773  11.280
63597SOL     OW92564   7.145   2.608   5.213
63597SOL    HW192565   7.157   2.520   5.177
63597SOL    HW292566   7.135   2.594   5.308
63598SOL     OW92567   5.513   9.498  13.361
63598SOL    HW192568   5.594   9.466  13.322
63598SOL    HW292569   5.462   9.531  13.286
63599SOL     OW92570  11.397   8.971  13.108
63599SOL    HW192571  11.487   8.996  13.128
63599SOL    HW292572  11.345   9.047  13.133
63600SOL     OW92573  11.614  12.271   6.957
63600SOL    HW192574  11.680  12.338   6.937
63600SOL    HW292575  11.566  12.259   6.875
63601SOL     OW92576   0.407  11.437   8.798
63601SOL    HW192577   0.450  11.360   8.837
63601SOL    HW292578   0.479  11.493   8.771
63602SOL     OW92579   7.609   1.775  13.023
63602SOL    HW192580   7.513   1.778  13.025
63602SOL    HW292581   7.629   1.731  12.940
63603SOL     OW92582   6.501  14.806  12.009
63603SOL    HW192583   6.461   0.009  11.990
63603SOL    HW292584   6.516  14.807  12.103
63604SOL     OW92585  12.260   8.088   3.059
63604SOL    HW192586  12.286   8.043   3.139
63604SOL    HW292587  12.169   8.113   3.075
63605SOL     OW92588   4.014   5.744   7.835
63605SOL    HW192589   3.944   5.739   7.770
63605SOL    HW292590   4.080   5.801   7.796
63606SOL     OW92591   1.577   4.053   9.049
63606SOL    HW192592   1.535   4.078   9.131
63606SOL    HW292593   1.570   4.131   8.993
63607SOL     OW92594  14.524   7.451  12.107
63607SOL    HW192595  14.541   7.543  12.129
63607SOL    HW292596  14.433   7.449  12.077
63608SOL     OW92597   5.964   5.476  12.354
63608SOL    HW192598   6.030   5.479  12.423
63608SOL    HW292599   5.896   5.537  12.383
63609SOL     OW92600  14.595  10.620  12.800
63609SOL    HW192601  14.518  10.650  12.752
63609SOL    HW292602  14.560  10.579  12.879
63610SOL     OW92603   7.231   9.896   4.059
63610SOL    HW192604   7.267   9.853   4.136
63610SOL    HW292605   7.234   9.990   4.079
63611SOL     OW92606   7.215   6.692  10.314
63611SOL    HW192607   7.166   6.772  10.298
63611SOL    HW292608   7.149   6.628  10.339
63612SOL     OW92609   8.793  14.287   5.530
63612SOL    HW192610   8.754  14.245   5.607
63612SOL    HW292611   8.719  14.316   5.477
63613SOL     OW92612  14.230   1.853   8.204
63613SOL    HW192613  14.239   1.905   8.284
63613SOL    HW292614  14.319   1.850   8.168
63614SOL     OW92615   8.086   6.226  12.560
63614SOL    HW192616   8.093   6.318  12.532
63614SOL    HW292617   8.044   6.182  12.486
63615SOL     OW92618  13.060   5.220   9.786
63615SOL    HW192619  13.070   5.302   9.738
63615SOL    HW292620  13.063   5.245   9.878
63616SOL     OW92621   9.584  10.820  11.970
63616SOL    HW192622   9.541  10.865  12.042
63616SOL    HW292623   9.677  10.839  11.981
63617SOL     OW92624   2.313  11.073   0.677
63617SOL    HW192625   2.239  11.109   0.726
63617SOL    HW292626   2.387  11.082   0.737
63618SOL     OW92627  10.893   2.441   7.825
63618SOL    HW192628  10.841   2.362   7.816
63618SOL    HW292629  10.830   2.509   7.848
63619SOL     OW92630  10.291   7.494  14.607
63619SOL    HW192631  10.260   7.406  14.626
63619SOL    HW292632  10.385   7.492  14.627
63620SOL     OW92633   0.293  13.388   1.625
63620SOL    HW192634   0.261  13.306   1.661
63620SOL    HW292635   0.233  13.454   1.658
63621SOL     OW92636   3.623  11.712  11.480
63621SOL    HW192637   3.707  11.667  11.479
63621SOL    HW292638   3.609  11.733  11.573
63622SOL     OW92639   1.469   3.866   5.573
63622SOL    HW192640   1.500   3.776   5.579
63622SOL    HW292641   1.489   3.892   5.484
63623SOL     OW92642   4.602   4.373   5.680
63623SOL    HW192643   4.626   4.404   5.767
63623SOL    HW292644   4.517   4.412   5.663
63624SOL     OW92645  11.184  12.237   4.401
63624SOL    HW192646  11.197  12.163   4.342
63624SOL    HW292647  11.119  12.207   4.465
63625SOL     OW92648  10.858   0.104   6.340
63625SOL    HW192649  10.782   0.046   6.339
63625SOL    HW292650  10.863   0.135   6.431
63626SOL     OW92651   2.669   6.951   8.093
63626SOL    HW192652   2.622   6.974   8.173
63626SOL    HW292653   2.601   6.949   8.025
63627SOL     OW92654  13.066   6.810  13.149
63627SOL    HW192655  12.985   6.839  13.107
63627SOL    HW292656  13.112   6.761  13.081
63628SOL     OW92657   1.180  13.353  14.505
63628SOL    HW192658   1.166  13.407  14.582
63628SOL    HW292659   1.113  13.383  14.442
63629SOL     OW92660   8.181   1.676   5.336
63629SOL    HW192661   8.118   1.623   5.288
63629SOL    HW292662   8.211   1.742   5.273
63630SOL     OW92663  14.004   6.374   8.406
63630SOL    HW192664  14.094   6.401   8.388
63630SOL    HW292665  13.984   6.307   8.341
63631SOL     OW92666  11.231   1.275  13.758
63631SOL    HW192667  11.159   1.291  13.698
63631SOL    HW292668  11.304   1.249  13.702
63632SOL     OW92669   2.487   2.096  13.581
63632SOL    HW192670   2.448   2.176  13.546
63632SOL    HW292671   2.544   2.127  13.652
63633SOL     OW92672  11.659   2.591   8.657
63633SOL    HW192673  11.696   2.609   8.744
63633SOL    HW292674  11.583   2.648   8.652
63634SOL     OW92675  12.106   5.397  12.496
63634SOL    HW192676  12.039   5.430  12.436
63634SOL    HW292677  12.151   5.476  12.527
63635SOL     OW92678   8.022  13.091   8.498
63635SOL    HW192679   8.084  13.020   8.481
63635SOL    HW292680   7.948  13.049   8.540
63636SOL     OW92681   3.032   6.437  13.578
63636SOL    HW192682   3.112   6.390  13.554
63636SOL    HW292683   3.042   6.457  13.671
63637SOL     OW92684   5.353   9.848   4.873
63637SOL    HW192685   5.309   9.872   4.792
63637SOL    HW292686   5.329   9.918   4.934
63638SOL     OW92687   1.967   7.555   2.111
63638SOL    HW192688   1.890   7.599   2.076
63638SOL    HW292689   2.004   7.618   2.173
63639SOL     OW92690  12.006   4.489   4.294
63639SOL    HW192691  11.979   4.468   4.384
63639SOL    HW292692  11.926   4.521   4.252
63640SOL     OW92693   8.600  14.591   6.992
63640SOL    HW192694   8.575  14.499   6.983
63640SOL    HW292695   8.541  14.626   7.059
63641SOL     OW92696   0.665  11.440   1.049
63641SOL    HW192697   0.710  11.393   0.980
63641SOL    HW292698   0.734  11.485   1.097
63642SOL     OW92699   2.952   4.076   5.072
63642SOL    HW192700   2.954   4.074   5.168
63642SOL    HW292701   2.891   4.006   5.048
63643SOL     OW92702   7.359   7.750  12.061
63643SOL    HW192703   7.374   7.781  11.971
63643SOL    HW292704   7.333   7.829  12.109
63644SOL     OW92705   9.683   2.431   3.619
63644SOL    HW192706   9.633   2.513   3.611
63644SOL    HW292707   9.714   2.431   3.709
63645SOL     OW92708   0.697   4.621  11.470
63645SOL    HW192709   0.620   4.606  11.414
63645SOL    HW292710   0.748   4.540  11.464
63646SOL     OW92711  13.408   4.624   9.912
63646SOL    HW192712  13.318   4.645   9.890
63646SOL    HW292713  13.450   4.606   9.827
63647SOL     OW92714   2.616  11.872  13.490
63647SOL    HW192715   2.656  11.959  13.484
63647SOL    HW292716   2.683  11.818  13.533
63648SOL     OW92717   7.622   0.567   2.758
63648SOL    HW192718   7.588   0.479   2.740
63648SOL    HW292719   7.690   0.554   2.823
63649SOL     OW92720  10.223  14.442   3.533
63649SOL    HW192721  10.178  14.500   3.472
63649SOL    HW292722  10.196  14.354   3.506
63650SOL     OW92723   7.158   9.763   6.664
63650SOL    HW192724   7.088   9.706   6.630
63650SOL    HW292725   7.223   9.765   6.594
63651SOL     OW92726   3.443   7.528  10.020
63651SOL    HW192727   3.402   7.597   9.967
63651SOL    HW292728   3.404   7.539  10.107
63652SOL     OW92729   8.244   2.625  10.908
63652SOL    HW192730   8.300   2.595  10.837
63652SOL    HW292731   8.289   2.703  10.942
63653SOL     OW92732   2.649   2.920   2.559
63653SOL    HW192733   2.598   2.979   2.504
63653SOL    HW292734   2.664   2.843   2.503
63654SOL     OW92735   2.409   0.973  11.229
63654SOL    HW192736   2.341   0.910  11.206
63654SOL    HW292737   2.491   0.924  11.221
63655SOL     OW92738  11.546   5.013   5.675
63655SOL    HW192739  11.554   5.016   5.770
63655SOL    HW292740  11.467   5.064   5.656
63656SOL     OW92741  11.870   6.166  10.570
63656SOL    HW192742  11.896   6.223  10.498
63656SOL    HW292743  11.791   6.122  10.538
63657SOL     OW92744   6.718   7.507   9.733
63657SOL    HW192745   6.711   7.602   9.724
63657SOL    HW292746   6.677   7.487   9.817
63658SOL     OW92747  11.981   7.132   5.170
63658SOL    HW192748  11.962   7.216   5.129
63658SOL    HW292749  12.014   7.154   5.257
63659SOL     OW92750   7.601   6.942   4.730
63659SOL    HW192751   7.668   6.882   4.763
63659SOL    HW292752   7.549   6.965   4.807
63660SOL     OW92753   7.590   7.175   8.874
63660SOL    HW192754   7.626   7.148   8.790
63660SOL    HW292755   7.616   7.267   8.883
63661SOL     OW92756   0.730  10.854   8.483
63661SOL    HW192757   0.745  10.945   8.458
63661SOL    HW292758   0.694  10.859   8.572
63662SOL     OW92759  10.010  12.584   6.395
63662SOL    HW192760   9.968  12.499   6.400
63662SOL    HW292761   9.963  12.630   6.325
63663SOL     OW92762   5.321  12.435   1.663
63663SOL    HW192763   5.280  12.521   1.663
63663SOL    HW292764   5.283  12.391   1.587
63664SOL     OW92765  11.854  12.605   5.907
63664SOL    HW192766  11.848  12.563   5.822
63664SOL    HW292767  11.944  12.591   5.935
63665SOL     OW92768  10.793  14.028   6.985
63665SOL    HW192769  10.883  14.054   6.969
63665SOL    HW292770  10.747  14.045   6.903
63666SOL     OW92771   0.010   3.075  11.481
63666SOL    HW192772  14.802   3.045  11.464
63666SOL    HW292773   0.001   3.138  11.552
63667SOL     OW92774  11.051  10.485   5.975
63667SOL    HW192775  11.065  10.505   5.882
63667SOL    HW292776  11.016  10.566   6.012
63668SOL     OW92777  10.580   1.612   4.660
63668SOL    HW192778  10.591   1.521   4.688
63668SOL    HW292779  10.667   1.650   4.664
63669SOL     OW92780  12.161   4.932   6.881
63669SOL    HW192781  12.202   4.857   6.925
63669SOL    HW292782  12.067   4.921   6.897
63670SOL     OW92783  10.584   1.545   0.411
63670SOL    HW192784  10.630   1.569   0.492
63670SOL    HW292785  10.574   1.628   0.365
63671SOL     OW92786   7.050  10.869  12.797
63671SOL    HW192787   6.979  10.928  12.820
63671SOL    HW292788   7.029  10.839  12.708
63672SOL     OW92789   8.424   7.848   7.409
63672SOL    HW192790   8.398   7.789   7.480
63672SOL    HW292791   8.519   7.855   7.417
63673SOL     OW92792  11.929   4.245   5.926
63673SOL    HW192793  11.948   4.262   6.018
63673SOL    HW292794  11.986   4.171   5.903
63674SOL     OW92795  14.808   4.379   4.807
63674SOL    HW192796  14.846   4.386   4.894
63674SOL    HW292797  14.743   4.309   4.814
63675SOL     OW92798   1.870   5.377   4.331
63675SOL    HW192799   1.793   5.366   4.274
63675SOL    HW292800   1.840   5.436   4.400
63676SOL     OW92801   0.250   1.772  11.186
63676SOL    HW192802   0.236   1.714  11.260
63676SOL    HW292803   0.340   1.755  11.159
63677SOL     OW92804   7.550   0.339  14.399
63677SOL    HW192805   7.468   0.334  14.448
63677SOL    HW292806   7.618   0.326  14.465
63678SOL     OW92807   3.891  13.340   5.595
63678SOL    HW192808   3.977  13.314   5.628
63678SOL    HW292809   3.866  13.415   5.648
63679SOL     OW92810  12.010   0.998   3.142
63679SOL    HW192811  11.951   1.032   3.210
63679SOL    HW292812  12.015   0.904   3.161
63680SOL     OW92813  14.720   1.931   8.340
63680SOL    HW192814  14.654   1.966   8.282
63680SOL    HW292815  14.730   1.997   8.409
63681SOL     OW92816   8.413   0.694  13.340
63681SOL    HW192817   8.338   0.734  13.383
63681SOL    HW292818   8.475   0.677  13.411
63682SOL     OW92819   1.266   0.870  14.860
63682SOL    HW192820   1.225   0.920   0.049
63682SOL    HW292821   1.193   0.841  14.805
63683SOL     OW92822   8.080  12.680   0.627
63683SOL    HW192823   8.113  12.725   0.549
63683SOL    HW292824   8.141  12.608   0.641
63684SOL     OW92825   4.269  11.371   5.210
63684SOL    HW192826   4.296  11.311   5.280
63684SOL    HW292827   4.319  11.344   5.134
63685SOL     OW92828   0.766  14.839   4.222
63685SOL    HW192829   0.812  14.774   4.168
63685SOL    HW292830   0.675  14.811   4.222
63686SOL     OW92831  11.602   4.403   0.410
63686SOL    HW192832  11.635   4.380   0.497
63686SOL    HW292833  11.681   4.415   0.357
63687SOL     OW92834   0.413   4.585  13.030
63687SOL    HW192835   0.320   4.567  13.045
63687SOL    HW292836   0.451   4.586  13.118
63688SOL     OW92837   1.331   7.426   2.209
63688SOL    HW192838   1.260   7.386   2.260
63688SOL    HW292839   1.361   7.357   2.151
63689SOL     OW92840  10.077   3.720   8.848
63689SOL    HW192841  10.161   3.675   8.855
63689SOL    HW292842  10.058   3.751   8.936
63690SOL     OW92843  11.175   0.786   9.024
63690SOL    HW192844  11.174   0.766   8.930
63690SOL    HW292845  11.087   0.820   9.042
63691SOL     OW92846  10.927   7.023   9.855
63691SOL    HW192847  10.984   7.032   9.779
63691SOL    HW292848  10.986   7.014   9.929
63692SOL     OW92849   6.662   1.540  14.197
63692SOL    HW192850   6.665   1.468  14.260
63692SOL    HW292851   6.608   1.507  14.125
63693SOL     OW92852   2.148  14.738   5.338
63693SOL    HW192853   2.168  14.829   5.320
63693SOL    HW292854   2.161  14.693   5.254
63694SOL     OW92855  13.252   7.785  11.793
63694SOL    HW192856  13.191   7.750  11.858
63694SOL    HW292857  13.199   7.794  11.713
63695SOL     OW92858  10.102   5.776   5.118
63695SOL    HW192859  10.051   5.851   5.147
63695SOL    HW292860  10.192   5.810   5.112
63696SOL     OW92861  11.635   4.426   5.488
63696SOL    HW192862  11.569   4.364   5.455
63696SOL    HW292863  11.618   4.507   5.440
63697SOL     OW92864   4.262   4.354  14.010
63697SOL    HW192865   4.337   4.294  14.012
63697SOL    HW292866   4.300   4.441  14.026
63698SOL     OW92867   9.293   4.235   5.031
63698SOL    HW192868   9.284   4.143   5.004
63698SOL    HW292869   9.212   4.253   5.080
63699SOL     OW92870   6.716   7.314   6.911
63699SOL    HW192871   6.709   7.347   7.001
63699SOL    HW292872   6.630   7.277   6.892
63700SOL     OW92873  13.458   9.599   8.764
63700SOL    HW192874  13.456   9.682   8.715
63700SOL    HW292875  13.366   9.578   8.780
63701SOL     OW92876  10.279  10.882   4.062
63701SOL    HW192877  10.314  10.955   4.009
63701SOL    HW292878  10.190  10.910   4.084
63702SOL     OW92879   3.957   2.934   8.776
63702SOL    HW192880   3.870   2.921   8.815
63702SOL    HW292881   4.007   2.978   8.845
63703SOL     OW92882  12.584  11.248   1.983
63703SOL    HW192883  12.669  11.217   1.952
63703SOL    HW292884  12.593  11.250   2.079
63704SOL     OW92885   1.969   1.556  12.370
63704SOL    HW192886   1.926   1.493  12.426
63704SOL    HW292887   2.039   1.594  12.424
63705SOL     OW92888   9.767  14.742   5.101
63705SOL    HW192889   9.845  14.758   5.048
63705SOL    HW292890   9.729  14.663   5.064
63706SOL     OW92891   4.576   9.973  14.646
63706SOL    HW192892   4.482   9.980  14.662
63706SOL    HW292893   4.607   9.911  14.711
63707SOL     OW92894  13.718   6.182  11.066
63707SOL    HW192895  13.760   6.145  10.988
63707SOL    HW292896  13.707   6.107  11.124
63708SOL     OW92897  10.433   7.060   7.738
63708SOL    HW192898  10.472   7.011   7.665
63708SOL    HW292899  10.341   7.034   7.739
63709SOL     OW92900   4.024  11.207   6.907
63709SOL    HW192901   4.034  11.114   6.887
63709SOL    HW292902   4.086  11.224   6.978
63710SOL     OW92903  10.045  11.313   7.108
63710SOL    HW192904  10.064  11.404   7.085
63710SOL    HW292905  10.085  11.262   7.037
63711SOL     OW92906  14.606   8.638   7.769
63711SOL    HW192907  14.539   8.577   7.799
63711SOL    HW292908  14.647   8.671   7.849
63712SOL     OW92909   4.129   8.058   8.469
63712SOL    HW192910   4.194   8.124   8.446
63712SOL    HW292911   4.056   8.074   8.410
63713SOL     OW92912   2.638  13.551  12.997
63713SOL    HW192913   2.583  13.502  12.937
63713SOL    HW292914   2.698  13.600  12.939
63714SOL     OW92915   7.251  11.069   0.589
63714SOL    HW192916   7.344  11.056   0.605
63714SOL    HW292917   7.211  10.983   0.604
63715SOL     OW92918   0.157   2.249  11.459
63715SOL    HW192919   0.096   2.304  11.410
63715SOL    HW292920   0.228   2.229  11.398
63716SOL     OW92921   9.367  10.414  12.056
63716SOL    HW192922   9.456  10.447  12.047
63716SOL    HW292923   9.338  10.399  11.966
63717SOL     OW92924   2.082   6.591   7.088
63717SOL    HW192925   2.064   6.590   6.994
63717SOL    HW292926   2.015   6.534   7.126
63718SOL     OW92927   1.995   3.605   9.830
63718SOL    HW192928   2.020   3.539   9.765
63718SOL    HW292929   2.034   3.686   9.797
63719SOL     OW92930   4.056   9.545   9.126
63719SOL    HW192931   4.085   9.582   9.043
63719SOL    HW292932   4.127   9.564   9.187
63720SOL     OW92933   0.513   7.637   0.388
63720SOL    HW192934   0.514   7.632   0.484
63720SOL    HW292935   0.463   7.561   0.361
63721SOL     OW92936   9.123  12.610  10.513
63721SOL    HW192937   9.074  12.550  10.458
63721SOL    HW292938   9.209  12.616  10.473
63722SOL     OW92939   4.399   5.569   1.961
63722SOL    HW192940   4.341   5.641   1.935
63722SOL    HW292941   4.480   5.613   1.987
63723SOL     OW92942   2.484   1.294   7.935
63723SOL    HW192943   2.509   1.257   7.850
63723SOL    HW292944   2.394   1.264   7.948
63724SOL     OW92945   4.077  10.409  11.715
63724SOL    HW192946   4.076  10.469  11.641
63724SOL    HW292947   3.986  10.380  11.723
63725SOL     OW92948  14.353   9.510   2.456
63725SOL    HW192949  14.415   9.548   2.394
63725SOL    HW292950  14.269   9.511   2.411
63726SOL     OW92951   8.387  11.468  13.297
63726SOL    HW192952   8.376  11.392  13.354
63726SOL    HW292953   8.481  11.488  13.301
63727SOL     OW92954  13.524   8.771   4.444
63727SOL    HW192955  13.586   8.842   4.433
63727SOL    HW292956  13.522   8.727   4.358
63728SOL     OW92957   5.957  12.955  11.966
63728SOL    HW192958   5.944  13.045  11.936
63728SOL    HW292959   6.004  12.964  12.049
63729SOL     OW92960   5.008   3.615   2.633
63729SOL    HW192961   5.016   3.556   2.558
63729SOL    HW292962   4.926   3.589   2.675
63730SOL     OW92963   4.200   7.235   1.262
63730SOL    HW192964   4.248   7.295   1.320
63730SOL    HW292965   4.245   7.151   1.273
63731SOL     OW92966   6.068   6.419   4.889
63731SOL    HW192967   6.163   6.430   4.895
63731SOL    HW292968   6.054   6.378   4.804
63732SOL     OW92969  13.325   5.211   1.248
63732SOL    HW192970  13.406   5.187   1.203
63732SOL    HW292971  13.341   5.192   1.340
63733SOL     OW92972   1.352  14.807   5.115
63733SOL    HW192973   1.362  14.770   5.027
63733SOL    HW292974   1.274  14.765   5.151
63734SOL     OW92975   9.453  13.882   1.077
63734SOL    HW192976   9.495  13.885   0.991
63734SOL    HW292977   9.421  13.971   1.091
63735SOL     OW92978  14.446   2.881   5.621
63735SOL    HW192979  14.414   2.856   5.708
63735SOL    HW292980  14.536   2.909   5.636
63736SOL     OW92981  12.839  12.495  12.752
63736SOL    HW192982  12.830  12.444  12.672
63736SOL    HW292983  12.781  12.452  12.814
63737SOL     OW92984  11.910  11.681   9.834
63737SOL    HW192985  11.846  11.751   9.818
63737SOL    HW292986  11.858  11.601   9.838
63738SOL     OW92987   4.120   7.400   6.196
63738SOL    HW192988   4.029   7.422   6.176
63738SOL    HW292989   4.128   7.308   6.170
63739SOL     OW92990   0.201   5.546   9.461
63739SOL    HW192991   0.260   5.601   9.411
63739SOL    HW292992   0.117   5.551   9.414
63740SOL     OW92993   5.001  11.710  14.549
63740SOL    HW192994   4.987  11.634  14.492
63740SOL    HW292995   5.087  11.695  14.588
63741SOL     OW92996  14.800   6.470   0.484
63741SOL    HW192997  14.723   6.511   0.522
63741SOL    HW292998  14.766   6.416   0.412
63742SOL     OW92999   8.715   0.588   1.849
63742SOL    HW193000   8.625   0.576   1.819
63742SOL    HW293001   8.715   0.555   1.939
63743SOL     OW93002   8.922   6.697   8.235
63743SOL    HW193003   8.966   6.628   8.285
63743SOL    HW293004   8.926   6.774   8.292
63744SOL     OW93005   5.502   3.651  12.088
63744SOL    HW193006   5.478   3.668  11.997
63744SOL    HW293007   5.449   3.713  12.138
63745SOL     OW93008   5.909   7.352   4.284
63745SOL    HW193009   5.923   7.428   4.228
63745SOL    HW293010   5.814   7.348   4.296
63746SOL     OW93011   0.154   3.138   5.828
63746SOL    HW193012   0.196   3.052   5.822
63746SOL    HW293013   0.156   3.159   5.921
63747SOL     OW93014   0.868   2.390  10.104
63747SOL    HW193015   0.894   2.304  10.136
63747SOL    HW293016   0.900   2.393  10.014
63748SOL     OW93017  11.636  14.395   0.517
63748SOL    HW193018  11.686  14.315   0.499
63748SOL    HW293019  11.545  14.365   0.525
63749SOL     OW93020  12.580   8.448   4.147
63749SOL    HW193021  12.550   8.468   4.235
63749SOL    HW293022  12.626   8.526   4.118
63750SOL     OW93023  12.226   2.883  12.455
63750SOL    HW193024  12.169   2.909  12.528
63750SOL    HW293025  12.292   2.826  12.496
63751SOL     OW93026   0.582   8.286   4.706
63751SOL    HW193027   0.666   8.258   4.669
63751SOL    HW293028   0.526   8.301   4.630
63752SOL     OW93029   1.054   7.387   4.808
63752SOL    HW193030   0.988   7.455   4.823
63752SOL    HW293031   1.031   7.349   4.723
63753SOL     OW93032   8.651  11.284  13.869
63753SOL    HW193033   8.728  11.295  13.925
63753SOL    HW293034   8.673  11.331  13.789
63754SOL     OW93035   2.298   5.315   7.314
63754SOL    HW193036   2.237   5.360   7.256
63754SOL    HW293037   2.380   5.314   7.265
63755SOL     OW93038   2.689  13.794  10.291
63755SOL    HW193039   2.608  13.842  10.309
63755SOL    HW293040   2.665  13.702  10.300
63756SOL     OW93041   4.077   8.706   6.345
63756SOL    HW193042   4.136   8.633   6.329
63756SOL    HW293043   4.107   8.744   6.427
63757SOL     OW93044  11.038  10.300  12.926
63757SOL    HW193045  11.073  10.211  12.916
63757SOL    HW293046  11.114  10.353  12.950
63758SOL     OW93047   2.460   4.985   8.649
63758SOL    HW193048   2.449   4.890   8.652
63758SOL    HW293049   2.379   5.020   8.687
63759SOL     OW93050   8.920   0.781   1.817
63759SOL    HW193051   8.847   0.723   1.840
63759SOL    HW293052   8.931   0.837   1.894
63760SOL     OW93053   4.272   7.204   4.682
63760SOL    HW193054   4.223   7.129   4.715
63760SOL    HW293055   4.318   7.238   4.759
63761SOL     OW93056   5.936   5.435  13.382
63761SOL    HW193057   6.029   5.434  13.403
63761SOL    HW293058   5.894   5.399  13.461
63762SOL     OW93059  11.033  11.787   2.084
63762SOL    HW193060  11.054  11.717   2.021
63762SOL    HW293061  11.115  11.833   2.097
63763SOL     OW93062   9.121   1.449  11.220
63763SOL    HW193063   9.180   1.388  11.265
63763SOL    HW293064   9.125   1.529  11.273
63764SOL     OW93065   9.636   7.355   2.420
63764SOL    HW193066   9.552   7.398   2.436
63764SOL    HW293067   9.617   7.261   2.426
63765SOL     OW93068   4.016   7.803   7.473
63765SOL    HW193069   4.015   7.830   7.565
63765SOL    HW293070   3.994   7.710   7.475
63766SOL     OW93071   4.361  10.114   3.274
63766SOL    HW193072   4.368  10.043   3.209
63766SOL    HW293073   4.306  10.179   3.232
63767SOL     OW93074  11.237   4.533   1.638
63767SOL    HW193075  11.330   4.546   1.653
63767SOL    HW293076  11.215   4.455   1.689
63768SOL     OW93077  12.186   5.372   0.304
63768SOL    HW193078  12.131   5.309   0.350
63768SOL    HW293079  12.141   5.456   0.316
63769SOL     OW93080   1.257   1.311  13.597
63769SOL    HW193081   1.324   1.359  13.646
63769SOL    HW293082   1.302   1.281  13.518
63770SOL     OW93083   6.326   6.574   8.190
63770SOL    HW193084   6.308   6.650   8.245
63770SOL    HW293085   6.241   6.551   8.152
63771SOL     OW93086  14.420   7.957  13.614
63771SOL    HW193087  14.460   7.873  13.637
63771SOL    HW293088  14.328   7.946  13.637
63772SOL     OW93089   4.143  10.842  13.705
63772SOL    HW193090   4.149  10.841  13.610
63772SOL    HW293091   4.116  10.752  13.728
63773SOL     OW93092   8.136   1.366  13.518
63773SOL    HW193093   8.195   1.397  13.586
63773SOL    HW293094   8.085   1.443  13.493
63774SOL     OW93095   5.404  11.921   9.990
63774SOL    HW193096   5.339  11.991  10.002
63774SOL    HW293097   5.450  11.945   9.909
63775SOL     OW93098   4.833   2.247   3.162
63775SOL    HW193099   4.815   2.294   3.244
63775SOL    HW293100   4.896   2.303   3.116
63776SOL     OW93101   2.718   0.095   2.948
63776SOL    HW193102   2.674   0.017   2.913
63776SOL    HW293103   2.755   0.138   2.872
63777SOL     OW93104   0.382  14.511   8.631
63777SOL    HW193105   0.448  14.493   8.699
63777SOL    HW293106   0.306  14.460   8.658
63778SOL     OW93107   1.890   0.767  14.203
63778SOL    HW193108   1.975   0.794  14.169
63778SOL    HW293109   1.882   0.814  14.286
63779SOL     OW93110   9.846   4.709   5.324
63779SOL    HW193111   9.794   4.790   5.321
63779SOL    HW293112   9.784   4.640   5.301
63780SOL     OW93113  13.475   9.784  10.667
63780SOL    HW193114  13.476   9.786  10.571
63780SOL    HW293115  13.464   9.692  10.690
63781SOL     OW93116   1.508   4.175   2.040
63781SOL    HW193117   1.596   4.164   2.076
63781SOL    HW293118   1.472   4.250   2.087
63782SOL     OW93119   6.799   8.088   9.640
63782SOL    HW193120   6.866   8.027   9.609
63782SOL    HW293121   6.829   8.113   9.728
63783SOL     OW93122   4.152  12.162   6.264
63783SOL    HW193123   4.208  12.234   6.292
63783SOL    HW293124   4.070  12.204   6.236
63784SOL     OW93125  13.251  13.161  11.304
63784SOL    HW193126  13.180  13.134  11.246
63784SOL    HW293127  13.327  13.111  11.275
63785SOL     OW93128   8.790   9.346   2.502
63785SOL    HW193129   8.791   9.252   2.482
63785SOL    HW293130   8.870   9.380   2.462
63786SOL     OW93131  13.492   5.228  13.824
63786SOL    HW193132  13.473   5.321  13.814
63786SOL    HW293133  13.520   5.219  13.915
63787SOL     OW93134  14.312   8.378  13.171
63787SOL    HW193135  14.341   8.438  13.103
63787SOL    HW293136  14.217   8.378  13.165
63788SOL     OW93137   2.901   4.261  13.002
63788SOL    HW193138   2.986   4.250  12.961
63788SOL    HW293139   2.911   4.220  13.089
63789SOL     OW93140   8.502  14.457  12.948
63789SOL    HW193141   8.551  14.530  12.986
63789SOL    HW293142   8.452  14.421  13.021
63790SOL     OW93143   6.424   6.497   5.088
63790SOL    HW193144   6.456   6.574   5.136
63790SOL    HW293145   6.455   6.423   5.139
63791SOL     OW93146  11.429   3.329   9.577
63791SOL    HW193147  11.487   3.264   9.615
63791SOL    HW293148  11.482   3.409   9.572
63792SOL     OW93149  14.251   1.309  11.101
63792SOL    HW193150  14.211   1.391  11.073
63792SOL    HW293151  14.311   1.285  11.031
63793SOL     OW93152   1.953   3.907   5.759
63793SOL    HW193153   1.875   3.851   5.760
63793SOL    HW293154   2.017   3.856   5.709
63794SOL     OW93155   4.645  11.253   1.410
63794SOL    HW193156   4.624  11.308   1.335
63794SOL    HW293157   4.692  11.311   1.470
63795SOL     OW93158   1.572   5.597  12.835
63795SOL    HW193159   1.627   5.525  12.803
63795SOL    HW293160   1.547   5.644  12.756
63796SOL     OW93161   9.991  13.968  11.217
63796SOL    HW193162   9.934  13.963  11.294
63796SOL    HW293163  10.026  14.057  11.219
63797SOL     OW93164   2.876   7.496  12.729
63797SOL    HW193165   2.789   7.461  12.751
63797SOL    HW293166   2.859   7.581  12.690
63798SOL     OW93167  13.933   8.004   6.546
63798SOL    HW193168  14.026   8.008   6.523
63798SOL    HW293169  13.886   8.017   6.464
63799SOL     OW93170   6.151   2.969   4.628
63799SOL    HW193171   6.057   2.977   4.619
63799SOL    HW293172   6.187   3.019   4.554
63800SOL     OW93173   8.587  14.084  10.614
63800SOL    HW193174   8.576  14.015  10.680
63800SOL    HW293175   8.534  14.157  10.647
63801SOL     OW93176   0.607   4.186  12.530
63801SOL    HW193177   0.657   4.239  12.468
63801SOL    HW293178   0.576   4.112  12.478
63802SOL     OW93179   9.313  12.281   0.441
63802SOL    HW193180   9.350  12.290   0.354
63802SOL    HW293181   9.382  12.313   0.500
63803SOL     OW93182   4.175   1.990   2.067
63803SOL    HW193183   4.232   2.065   2.053
63803SOL    HW293184   4.171   1.980   2.162
63804SOL     OW93185  11.647   4.886   8.568
63804SOL    HW193186  11.725   4.846   8.530
63804SOL    HW293187  11.663   4.981   8.561
63805SOL     OW93188  12.770   6.180  12.662
63805SOL    HW193189  12.817   6.104  12.627
63805SOL    HW293190  12.749   6.233  12.585
63806SOL     OW93191   1.627  10.504   3.719
63806SOL    HW193192   1.680  10.447   3.774
63806SOL    HW293193   1.638  10.469   3.631
63807SOL     OW93194   8.098   0.814   3.364
63807SOL    HW193195   8.057   0.875   3.425
63807SOL    HW293196   8.143   0.751   3.420
63808SOL     OW93197   8.162  11.704   9.347
63808SOL    HW193198   8.208  11.634   9.393
63808SOL    HW293199   8.111  11.659   9.279
63809SOL     OW93200   6.731  13.018   5.726
63809SOL    HW193201   6.637  13.030   5.743
63809SOL    HW293202   6.737  12.934   5.682
63810SOL     OW93203  10.596   4.673  10.770
63810SOL    HW193204  10.529   4.695  10.706
63810SOL    HW293205  10.555   4.690  10.855
63811SOL     OW93206   5.604  12.994   8.561
63811SOL    HW193207   5.549  12.916   8.566
63811SOL    HW293208   5.629  13.001   8.469
63812SOL     OW93209   5.297   0.880   3.885
63812SOL    HW193210   5.337   0.944   3.944
63812SOL    HW293211   5.204   0.902   3.885
63813SOL     OW93212   0.656   5.455  11.297
63813SOL    HW193213   0.668   5.503  11.379
63813SOL    HW293214   0.744   5.444  11.263
63814SOL     OW93215   8.086  12.021   2.079
63814SOL    HW193216   8.134  12.104   2.085
63814SOL    HW293217   8.004  12.037   2.126
63815SOL     OW93218   3.762  13.798   0.159
63815SOL    HW193219   3.752  13.889   0.186
63815SOL    HW293220   3.801  13.803   0.071
63816SOL     OW93221   2.570   5.348   3.904
63816SOL    HW193222   2.568   5.353   3.808
63816SOL    HW293223   2.542   5.259   3.923
63817SOL     OW93224   4.205   3.880  12.300
63817SOL    HW193225   4.277   3.881  12.363
63817SOL    HW293226   4.243   3.917  12.220
63818SOL     OW93227  14.860   7.154   1.692
63818SOL    HW193228   0.046   7.108   1.642
63818SOL    HW293229  14.778   7.132   1.649
63819SOL     OW93230   5.571  11.329  14.843
63819SOL    HW193231   5.482  11.326  14.879
63819SOL    HW293232   5.612  11.402   0.008
63820SOL     OW93233  13.252  11.931  11.320
63820SOL    HW193234  13.210  11.847  11.301
63820SOL    HW293235  13.323  11.936  11.256
63821SOL     OW93236   3.944  11.429   3.294
63821SOL    HW193237   4.008  11.492   3.259
63821SOL    HW293238   3.859  11.461   3.263
63822SOL     OW93239  11.876   9.707   8.297
63822SOL    HW193240  11.910   9.789   8.260
63822SOL    HW293241  11.910   9.639   8.239
63823SOL     OW93242  12.559  12.489   9.216
63823SOL    HW193243  12.632  12.458   9.162
63823SOL    HW293244  12.546  12.579   9.189
63824SOL     OW93245   6.386   3.057  13.492
63824SOL    HW193246   6.330   3.131  13.512
63824SOL    HW293247   6.369   2.994  13.561
63825SOL     OW93248   0.046  14.211   7.222
63825SOL    HW193249   0.031  14.220   7.316
63825SOL    HW293250   0.067  14.119   7.209
63826SOL     OW93251   0.806  13.537  12.607
63826SOL    HW193252   0.826  13.523  12.700
63826SOL    HW293253   0.852  13.466  12.562
63827SOL     OW93254  14.791  13.363  11.030
63827SOL    HW193255  14.853  13.290  11.027
63827SOL    HW293256  14.728  13.344  10.962
63828SOL     OW93257   7.868   4.768   7.018
63828SOL    HW193258   7.890   4.675   7.016
63828SOL    HW293259   7.814   4.782   6.940
63829SOL     OW93260  10.641   2.033  12.088
63829SOL    HW193261  10.636   2.007  11.996
63829SOL    HW293262  10.627   1.952  12.137
63830SOL     OW93263   2.616  12.920   4.664
63830SOL    HW193264   2.529  12.932   4.704
63830SOL    HW293265   2.608  12.958   4.577
63831SOL     OW93266   1.630  12.352   0.568
63831SOL    HW193267   1.543  12.319   0.543
63831SOL    HW293268   1.612  12.421   0.632
63832SOL     OW93269  11.952  10.734   7.016
63832SOL    HW193270  11.885  10.782   7.064
63832SOL    HW293271  11.937  10.642   7.037
63833SOL     OW93272   7.301  10.502  14.766
63833SOL    HW193273   7.207  10.497  14.783
63833SOL    HW293274   7.340  10.444  14.831
63834SOL     OW93275   9.846   1.001   8.686
63834SOL    HW193276   9.794   1.023   8.609
63834SOL    HW293277   9.784   0.998   8.758
63835SOL     OW93278   6.676   1.367   0.226
63835SOL    HW193279   6.734   1.386   0.153
63835SOL    HW293280   6.616   1.442   0.231
63836SOL     OW93281  10.565  13.057   0.339
63836SOL    HW193282  10.529  13.145   0.336
63836SOL    HW293283  10.577  13.032   0.247
63837SOL     OW93284   9.764   9.995  14.158
63837SOL    HW193285   9.776  10.044  14.076
63837SOL    HW293286   9.838  10.020  14.212
63838SOL     OW93287  12.440   5.480   2.271
63838SOL    HW193288  12.361   5.496   2.322
63838SOL    HW293289  12.511   5.508   2.328
63839SOL     OW93290  11.303   0.506   5.862
63839SOL    HW193291  11.246   0.431   5.874
63839SOL    HW293292  11.353   0.512   5.943
63840SOL     OW93293   0.617   2.655   3.937
63840SOL    HW193294   0.579   2.693   3.858
63840SOL    HW293295   0.624   2.562   3.918
63841SOL     OW93296   0.387   0.322   9.125
63841SOL    HW193297   0.457   0.385   9.106
63841SOL    HW293298   0.327   0.328   9.050
63842SOL     OW93299   4.216   6.511   8.703
63842SOL    HW193300   4.215   6.603   8.730
63842SOL    HW293301   4.140   6.501   8.646
63843SOL     OW93302  13.878   3.597   2.062
63843SOL    HW193303  13.823   3.652   2.008
63843SOL    HW293304  13.967   3.627   2.045
63844SOL     OW93305   9.164  11.313   1.898
63844SOL    HW193306   9.121  11.255   1.835
63844SOL    HW293307   9.258  11.300   1.882
63845SOL     OW93308   0.055  12.069   2.329
63845SOL    HW193309  14.846  12.099   2.340
63845SOL    HW293310   0.068  12.005   2.399
63846SOL     OW93311   5.656  14.583   6.886
63846SOL    HW193312   5.686  14.492   6.888
63846SOL    HW293313   5.733  14.634   6.913
63847SOL     OW93314   9.965   2.903   1.959
63847SOL    HW193315  10.056   2.873   1.965
63847SOL    HW293316   9.944   2.934   2.047
63848SOL     OW93317   0.754   5.649   7.657
63848SOL    HW193318   0.778   5.655   7.749
63848SOL    HW293319   0.809   5.714   7.613
63849SOL     OW93320  14.466   3.784  13.490
63849SOL    HW193321  14.476   3.784  13.585
63849SOL    HW293322  14.380   3.744  13.475
63850SOL     OW93323   9.914  10.340   4.254
63850SOL    HW193324   9.865  10.325   4.335
63850SOL    HW293325   9.852  10.385   4.196
63851SOL     OW93326   2.499   3.022  13.756
63851SOL    HW193327   2.519   3.070  13.675
63851SOL    HW293328   2.453   3.086  13.811
63852SOL     OW93329   1.431   3.976   5.293
63852SOL    HW193330   1.387   4.005   5.213
63852SOL    HW293331   1.516   4.019   5.291
63853SOL     OW93332   8.285  13.254   0.421
63853SOL    HW193333   8.298  13.171   0.467
63853SOL    HW293334   8.374  13.289   0.410
63854SOL     OW93335   7.790   1.620   2.743
63854SOL    HW193336   7.700   1.603   2.716
63854SOL    HW293337   7.820   1.537   2.781
63855SOL     OW93338   8.627  12.049   6.691
63855SOL    HW193339   8.604  12.124   6.636
63855SOL    HW293340   8.543  12.013   6.720
63856SOL     OW93341   3.952  10.697   4.383
63856SOL    HW193342   4.012  10.652   4.324
63856SOL    HW293343   3.940  10.636   4.456
63857SOL     OW93344   9.173  11.136   7.025
63857SOL    HW193345   9.090  11.092   7.011
63857SOL    HW293346   9.150  11.228   7.037
63858SOL     OW93347   9.547  12.447  13.327
63858SOL    HW193348   9.580  12.361  13.300
63858SOL    HW293349   9.482  12.428  13.394
63859SOL     OW93350  10.498   5.672   6.070
63859SOL    HW193351  10.422   5.712   6.110
63859SOL    HW293352  10.567   5.738   6.076
63860SOL     OW93353   2.914  11.594   1.975
63860SOL    HW193354   2.925  11.665   1.911
63860SOL    HW293355   3.003  11.565   1.995
63861SOL     OW93356   3.906   6.290  10.497
63861SOL    HW193357   3.826   6.340  10.507
63861SOL    HW293358   3.968   6.351  10.457
63862SOL     OW93359   6.915   6.087  14.034
63862SOL    HW193360   6.899   6.082  13.940
63862SOL    HW293361   7.000   6.045  14.046
63863SOL     OW93362   6.236   8.929   9.078
63863SOL    HW193363   6.196   9.015   9.065
63863SOL    HW293364   6.190   8.893   9.155
63864SOL     OW93365  13.957  11.556  14.129
63864SOL    HW193366  13.901  11.496  14.177
63864SOL    HW293367  14.017  11.499  14.080
63865SOL     OW93368   5.792   3.753   2.118
63865SOL    HW193369   5.727   3.815   2.150
63865SOL    HW293370   5.769   3.739   2.026
63866SOL     OW93371   9.316  13.872   8.031
63866SOL    HW193372   9.312  13.872   8.127
63866SOL    HW293373   9.228  13.846   8.004
63867SOL     OW93374   8.311   0.377  12.357
63867SOL    HW193375   8.258   0.439  12.307
63867SOL    HW293376   8.258   0.357  12.434
63868SOL     OW93377   9.232   9.488   7.798
63868SOL    HW193378   9.291   9.465   7.726
63868SOL    HW293379   9.227   9.584   7.796
63869SOL     OW93380   4.313   5.804   2.193
63869SOL    HW193381   4.372   5.858   2.140
63869SOL    HW293382   4.226   5.821   2.157
63870SOL     OW93383   5.088  13.810   1.671
63870SOL    HW193384   5.141  13.835   1.747
63870SOL    HW293385   5.040  13.732   1.699
63871SOL     OW93386  12.987   8.416   2.373
63871SOL    HW193387  13.055   8.409   2.306
63871SOL    HW293388  12.929   8.486   2.341
63872SOL     OW93389   6.447  12.664   9.701
63872SOL    HW193390   6.429  12.580   9.742
63872SOL    HW293391   6.436  12.728   9.771
63873SOL     OW93392   0.056   2.847   4.003
63873SOL    HW193393   0.102   2.930   3.987
63873SOL    HW293394   0.087   2.789   3.934
63874SOL     OW93395  11.491   2.978   7.316
63874SOL    HW193396  11.422   2.914   7.332
63874SOL    HW293397  11.503   3.022   7.400
63875SOL     OW93398   4.305  14.707   4.709
63875SOL    HW193399   4.288  14.756   4.628
63875SOL    HW293400   4.263  14.622   4.695
63876SOL     OW93401   9.174   7.858  13.271
63876SOL    HW193402   9.096   7.906  13.299
63876SOL    HW293403   9.215   7.829  13.352
63877SOL     OW93404  11.981  11.355   0.096
63877SOL    HW193405  12.058  11.411   0.107
63877SOL    HW293406  11.933  11.395   0.024
63878SOL     OW93407   7.257   5.309   6.486
63878SOL    HW193408   7.207   5.288   6.565
63878SOL    HW293409   7.205   5.270   6.415
63879SOL     OW93410   6.401   5.764   6.673
63879SOL    HW193411   6.370   5.699   6.737
63879SOL    HW293412   6.473   5.720   6.629
63880SOL     OW93413  14.318   0.691   0.662
63880SOL    HW193414  14.245   0.741   0.699
63880SOL    HW293415  14.322   0.718   0.571
63881SOL     OW93416   1.414   8.308   9.845
63881SOL    HW193417   1.470   8.252   9.899
63881SOL    HW293418   1.456   8.309   9.759
63882SOL     OW93419   8.940   2.868   1.236
63882SOL    HW193420   8.961   2.961   1.223
63882SOL    HW293421   9.019   2.822   1.207
63883SOL     OW93422   1.232  10.496   6.560
63883SOL    HW193423   1.265  10.464   6.645
63883SOL    HW293424   1.175  10.427   6.529
63884SOL     OW93425   4.804  11.985   3.410
63884SOL    HW193426   4.811  12.038   3.331
63884SOL    HW293427   4.894  11.962   3.432
63885SOL     OW93428   6.495  11.126   2.085
63885SOL    HW193429   6.519  11.104   1.995
63885SOL    HW293430   6.422  11.067   2.105
63886SOL     OW93431  14.202   1.033   2.621
63886SOL    HW193432  14.198   1.014   2.715
63886SOL    HW293433  14.145   0.967   2.581
63887SOL     OW93434  12.088  10.514  13.509
63887SOL    HW193435  12.123  10.438  13.464
63887SOL    HW293436  12.009  10.537  13.460
63888SOL     OW93437  12.136   6.694  12.894
63888SOL    HW193438  12.186   6.613  12.898
63888SOL    HW293439  12.088   6.688  12.812
63889SOL     OW93440   7.218   2.325  14.642
63889SOL    HW193441   7.286   2.317  14.709
63889SOL    HW293442   7.177   2.410  14.658
63890SOL     OW93443  10.752   3.781   8.197
63890SOL    HW193444  10.805   3.710   8.235
63890SOL    HW293445  10.808   3.818   8.129
63891SOL     OW93446   2.298  13.495   0.425
63891SOL    HW193447   2.359  13.559   0.387
63891SOL    HW293448   2.273  13.439   0.351
63892SOL     OW93449  10.523  10.663   9.316
63892SOL    HW193450  10.470  10.693   9.242
63892SOL    HW293451  10.611  10.654   9.280
63893SOL     OW93452   8.763   0.199   2.258
63893SOL    HW193453   8.787   0.206   2.350
63893SOL    HW293454   8.768   0.106   2.239
63894SOL     OW93455  14.161  12.589   5.831
63894SOL    HW193456  14.116  12.673   5.841
63894SOL    HW293457  14.139  12.540   5.911
63895SOL     OW93458  12.630   8.079  11.477
63895SOL    HW193459  12.694   8.103  11.410
63895SOL    HW293460  12.646   8.139  11.549
63896SOL     OW93461  13.933   2.814   5.936
63896SOL    HW193462  13.879   2.859   5.872
63896SOL    HW293463  13.922   2.721   5.915
63897SOL     OW93464   6.968   0.791  10.932
63897SOL    HW193465   6.987   0.733  10.858
63897SOL    HW293466   7.011   0.874  10.909
63898SOL     OW93467   9.631  10.362   4.936
63898SOL    HW193468   9.590  10.370   4.850
63898SOL    HW293469   9.567  10.399   4.996
63899SOL     OW93470  14.630  11.408   7.513
63899SOL    HW193471  14.622  11.313   7.519
63899SOL    HW293472  14.566  11.442   7.576
63900SOL     OW93473   6.447   4.449   1.651
63900SOL    HW193474   6.472   4.414   1.736
63900SOL    HW293475   6.364   4.406   1.630
63901SOL     OW93476  10.457  12.507  14.169
63901SOL    HW193477  10.545  12.536  14.145
63901SOL    HW293478  10.470  12.453  14.247
63902SOL     OW93479  10.119   7.738   4.541
63902SOL    HW193480  10.144   7.655   4.581
63902SOL    HW293481  10.069   7.784   4.608
63903SOL     OW93482  14.068  13.340  14.754
63903SOL    HW193483  14.075  13.417  14.697
63903SOL    HW293484  14.031  13.374  14.835
63904SOL     OW93485  11.858   2.695   4.212
63904SOL    HW193486  11.860   2.758   4.140
63904SOL    HW293487  11.799   2.626   4.182
63905SOL     OW93488   4.656   1.224  11.063
63905SOL    HW193489   4.573   1.216  11.017
63905SOL    HW293490   4.651   1.309  11.107
63906SOL     OW93491   5.294  11.368   0.108
63906SOL    HW193492   5.359  11.349   0.176
63906SOL    HW293493   5.258  11.453   0.133
63907SOL     OW93494   8.961   0.390   2.904
63907SOL    HW193495   8.987   0.444   2.828
63907SOL    HW293496   8.876   0.355   2.880
63908SOL     OW93497   2.301  11.403   7.033
63908SOL    HW193498   2.226  11.396   6.974
63908SOL    HW293499   2.356  11.328   7.011
63909SOL     OW93500  14.115  12.870   8.666
63909SOL    HW193501  14.038  12.814   8.670
63909SOL    HW293502  14.081  12.959   8.677
63910SOL     OW93503  11.371   2.197   3.048
63910SOL    HW193504  11.457   2.238   3.042
63910SOL    HW293505  11.369   2.161   3.137
63911SOL     OW93506  10.993   4.993   4.634
63911SOL    HW193507  10.930   4.952   4.575
63911SOL    HW293508  11.064   4.929   4.643
63912SOL     OW93509  13.659   9.917  13.054
63912SOL    HW193510  13.735   9.967  13.081
63912SOL    HW293511  13.612   9.974  12.993
63913SOL     OW93512   5.360  11.437  14.602
63913SOL    HW193513   5.438  11.405  14.648
63913SOL    HW293514   5.343  11.522  14.641
63914SOL     OW93515  13.264   1.585  10.152
63914SOL    HW193516  13.193   1.524  10.134
63914SOL    HW293517  13.269   1.588  10.247
63915SOL     OW93518   8.919  11.326   5.803
63915SOL    HW193519   8.867  11.345   5.881
63915SOL    HW293520   9.006  11.305   5.837
63916SOL     OW93521   2.556  11.549   0.692
63916SOL    HW193522   2.568  11.472   0.749
63916SOL    HW293523   2.645  11.569   0.662
63917SOL     OW93524   1.687   8.469  14.511
63917SOL    HW193525   1.594   8.461  14.532
63917SOL    HW293526   1.731   8.457  14.595
63918SOL     OW93527   2.190   1.306   1.635
63918SOL    HW193528   2.162   1.385   1.682
63918SOL    HW293529   2.250   1.338   1.568
63919SOL     OW93530  12.378   7.384  10.318
63919SOL    HW193531  12.314   7.423  10.259
63919SOL    HW293532  12.391   7.450  10.387
63920SOL     OW93533   0.131   7.526   1.140
63920SOL    HW193534   0.078   7.483   1.073
63920SOL    HW293535   0.110   7.619   1.133
63921SOL     OW93536   0.281  11.037   3.818
63921SOL    HW193537   0.373  11.016   3.837
63921SOL    HW293538   0.264  11.117   3.867
63922SOL     OW93539  10.056  11.584  13.720
63922SOL    HW193540  10.077  11.640  13.646
63922SOL    HW293541   9.964  11.560  13.707
63923SOL     OW93542   1.925   0.793   4.113
63923SOL    HW193543   1.847   0.737   4.119
63923SOL    HW293544   1.908   0.851   4.040
63924SOL     OW93545  14.059  14.025   2.875
63924SOL    HW193546  14.033  13.986   2.791
63924SOL    HW293547  13.991  13.996   2.936
63925SOL     OW93548  10.968  10.592   0.431
63925SOL    HW193549  10.931  10.670   0.471
63925SOL    HW293550  11.049  10.623   0.389
63926SOL     OW93551  11.845  10.424  12.346
63926SOL    HW193552  11.791  10.495  12.380
63926SOL    HW293553  11.841  10.434  12.251
63927SOL     OW93554   5.851   8.841   6.401
63927SOL    HW193555   5.874   8.923   6.444
63927SOL    HW293556   5.923   8.782   6.423
63928SOL     OW93557   1.727   5.904  13.199
63928SOL    HW193558   1.798   5.872  13.255
63928SOL    HW293559   1.666   5.947  13.259
63929SOL     OW93560  11.142   8.278  14.118
63929SOL    HW193561  11.173   8.310  14.203
63929SOL    HW293562  11.222   8.260  14.069
63930SOL     OW93563   9.996  12.175   6.809
63930SOL    HW193564  10.028  12.265   6.818
63930SOL    HW293565   9.906  12.179   6.841
63931SOL     OW93566   9.712   2.942   4.504
63931SOL    HW193567   9.680   2.992   4.579
63931SOL    HW293568   9.807   2.948   4.510
63932SOL     OW93569   1.906   6.782   8.881
63932SOL    HW193570   1.957   6.709   8.844
63932SOL    HW293571   1.822   6.744   8.904
63933SOL     OW93572   5.929  14.020   4.100
63933SOL    HW193573   5.944  14.112   4.079
63933SOL    HW293574   5.923  14.017   4.195
63934SOL     OW93575   3.871   1.206   7.678
63934SOL    HW193576   3.869   1.183   7.771
63934SOL    HW293577   3.820   1.287   7.672
63935SOL     OW93578   8.605   9.535   2.179
63935SOL    HW193579   8.690   9.579   2.191
63935SOL    HW293580   8.567   9.532   2.267
63936SOL     OW93581  13.316  11.395  11.956
63936SOL    HW193582  13.335  11.304  11.933
63936SOL    HW293583  13.330  11.443  11.875
63937SOL     OW93584   3.763   3.724   6.785
63937SOL    HW193585   3.700   3.662   6.823
63937SOL    HW293586   3.806   3.675   6.715
63938SOL     OW93587  10.964   6.756   4.652
63938SOL    HW193588  10.992   6.707   4.575
63938SOL    HW293589  11.015   6.837   4.650
63939SOL     OW93590   6.943  11.899   2.552
63939SOL    HW193591   7.027  11.878   2.511
63939SOL    HW293592   6.893  11.942   2.483
63940SOL     OW93593   0.560   6.534   4.798
63940SOL    HW193594   0.608   6.611   4.768
63940SOL    HW293595   0.501   6.513   4.726
63941SOL     OW93596   1.335   5.862  14.022
63941SOL    HW193597   1.305   5.796  14.085
63941SOL    HW293598   1.269   5.861  13.953
63942SOL     OW93599   1.852   2.989   5.623
63942SOL    HW193600   1.853   2.955   5.533
63942SOL    HW293601   1.761   3.010   5.640
63943SOL     OW93602   4.010   6.202   9.337
63943SOL    HW193603   4.062   6.225   9.260
63943SOL    HW293604   3.928   6.250   9.325
63944SOL     OW93605  11.085   6.485   8.883
63944SOL    HW193606  11.117   6.574   8.899
63944SOL    HW293607  10.990   6.493   8.878
63945SOL     OW93608   3.147   7.797  14.762
63945SOL    HW193609   3.067   7.746  14.754
63945SOL    HW293610   3.217   7.732  14.754
63946SOL     OW93611   3.543   8.649  11.407
63946SOL    HW193612   3.636   8.627  11.411
63946SOL    HW293613   3.540   8.735  11.366
63947SOL     OW93614   1.781  13.401   2.137
63947SOL    HW193615   1.799  13.423   2.045
63947SOL    HW293616   1.833  13.322   2.153
63948SOL     OW93617  14.320   2.791   6.429
63948SOL    HW193618  14.244   2.755   6.475
63948SOL    HW293619  14.311   2.886   6.439
63949SOL     OW93620  12.778   5.390   7.111
63949SOL    HW193621  12.835   5.321   7.077
63949SOL    HW293622  12.697   5.380   7.061
63950SOL     OW93623   1.361  10.528   4.739
63950SOL    HW193624   1.455  10.529   4.719
63950SOL    HW293625   1.348  10.450   4.792
63951SOL     OW93626   6.439   9.309   2.918
63951SOL    HW193627   6.518   9.265   2.886
63951SOL    HW293628   6.458   9.326   3.011
63952SOL     OW93629   1.787  14.831   9.405
63952SOL    HW193630   1.793   0.036   9.363
63952SOL    HW293631   1.697  14.827   9.437
63953SOL     OW93632  10.686   1.324  13.957
63953SOL    HW193633  10.713   1.411  13.930
63953SOL    HW293634  10.611   1.339  14.015
63954SOL     OW93635   2.862   1.360   2.382
63954SOL    HW193636   2.947   1.345   2.341
63954SOL    HW293637   2.849   1.455   2.376
63955SOL     OW93638   9.629   3.599   5.890
63955SOL    HW193639   9.667   3.633   5.809
63955SOL    HW293640   9.582   3.520   5.865
63956SOL     OW93641   8.305  14.107  11.764
63956SOL    HW193642   8.219  14.109  11.806
63956SOL    HW293643   8.345  14.191  11.785
63957SOL     OW93644   1.906  12.699  12.853
63957SOL    HW193645   1.987  12.731  12.892
63957SOL    HW293646   1.930  12.617  12.810
63958SOL     OW93647   8.971  14.593  13.855
63958SOL    HW193648   9.066  14.591  13.861
63958SOL    HW293649   8.952  14.607  13.762
63959SOL     OW93650   6.878   2.778   7.158
63959SOL    HW193651   6.914   2.851   7.108
63959SOL    HW293652   6.949   2.751   7.216
63960SOL     OW93653   2.048  12.682   0.946
63960SOL    HW193654   1.978  12.631   0.905
63960SOL    HW293655   2.112  12.697   0.876
63961SOL     OW93656   6.678  10.349   0.679
63961SOL    HW193657   6.617  10.356   0.752
63961SOL    HW293658   6.658  10.266   0.638
63962SOL     OW93659   9.444   6.203   4.406
63962SOL    HW193660   9.437   6.172   4.316
63962SOL    HW293661   9.375   6.156   4.453
63963SOL     OW93662   4.666   0.816   4.629
63963SOL    HW193663   4.703   0.753   4.567
63963SOL    HW293664   4.621   0.880   4.574
63964SOL     OW93665  14.357  12.237  10.546
63964SOL    HW193666  14.281  12.194  10.507
63964SOL    HW293667  14.376  12.310  10.486
63965SOL     OW93668   7.030   7.030   4.661
63965SOL    HW193669   7.111   7.067   4.626
63965SOL    HW293670   7.032   6.938   4.635
63966SOL     OW93671   8.974   9.171   2.702
63966SOL    HW193672   8.898   9.227   2.718
63966SOL    HW293673   8.941   9.082   2.711
63967SOL     OW93674   8.571   0.367  12.284
63967SOL    HW193675   8.484   0.330  12.303
63967SOL    HW293676   8.569   0.387  12.191
63968SOL     OW93677   9.889   4.150   0.177
63968SOL    HW193678   9.947   4.143   0.102
63968SOL    HW293679   9.931   4.098   0.245
63969SOL     OW93680  12.243   0.103   4.081
63969SOL    HW193681  12.295   0.136   4.008
63969SOL    HW293682  12.268   0.010   4.087
63970SOL     OW93683   5.589   6.187   0.205
63970SOL    HW193684   5.635   6.104   0.200
63970SOL    HW293685   5.656   6.249   0.237
63971SOL     OW93686  13.286   3.281   3.246
63971SOL    HW193687  13.283   3.306   3.154
63971SOL    HW293688  13.367   3.320   3.279
63972SOL     OW93689   2.924  10.971   8.801
63972SOL    HW193690   2.843  10.926   8.825
63972SOL    HW293691   2.965  10.993   8.885
63973SOL     OW93692   1.784   5.296  14.839
63973SOL    HW193693   1.822   5.241   0.026
63973SOL    HW293694   1.803   5.249  14.757
63974SOL     OW93695  12.778   9.692   6.171
63974SOL    HW193696  12.771   9.787   6.164
63974SOL    HW293697  12.732   9.671   6.252
63975SOL     OW93698   5.552  10.696   5.774
63975SOL    HW193699   5.518  10.676   5.686
63975SOL    HW293700   5.621  10.632   5.788
63976SOL     OW93701   5.744  14.460   4.830
63976SOL    HW193702   5.733  14.460   4.735
63976SOL    HW293703   5.743  14.553   4.853
63977SOL     OW93704  11.360   7.966   8.388
63977SOL    HW193705  11.380   8.043   8.336
63977SOL    HW293706  11.445   7.927   8.410
63978SOL     OW93707  10.691   8.002  12.675
63978SOL    HW193708  10.766   8.000  12.735
63978SOL    HW293709  10.713   8.069  12.611
63979SOL     OW93710   3.889   4.058   0.488
63979SOL    HW193711   3.796   4.077   0.497
63979SOL    HW293712   3.901   4.039   0.395
63980SOL     OW93713   3.200   6.474   3.138
63980SOL    HW193714   3.140   6.422   3.192
63980SOL    HW293715   3.153   6.555   3.121
63981SOL     OW93716  10.606   0.442   5.941
63981SOL    HW193717  10.609   0.347   5.938
63981SOL    HW293718  10.513   0.464   5.946
63982SOL     OW93719  12.544  14.393  12.543
63982SOL    HW193720  12.627  14.357  12.573
63982SOL    HW293721  12.528  14.353  12.458
63983SOL     OW93722   9.733   1.332  12.236
63983SOL    HW193723   9.726   1.329  12.331
63983SOL    HW293724   9.734   1.425  12.215
63984SOL     OW93725   8.318   0.706  11.478
63984SOL    HW193726   8.303   0.800  11.477
63984SOL    HW293727   8.237   0.669  11.512
63985SOL     OW93728   5.057   5.841   5.826
63985SOL    HW193729   4.998   5.856   5.752
63985SOL    HW293730   5.047   5.919   5.880
63986SOL     OW93731  12.077   9.850   5.070
63986SOL    HW193732  12.145   9.833   5.135
63986SOL    HW293733  12.070   9.768   5.020
63987SOL     OW93734   9.043   3.371   6.351
63987SOL    HW193735   8.998   3.287   6.360
63987SOL    HW293736   9.134   3.352   6.374
63988SOL     OW93737   2.858  13.259  10.728
63988SOL    HW193738   2.803  13.182  10.713
63988SOL    HW293739   2.947  13.227  10.715
63989SOL     OW93740   9.288   9.105   4.937
63989SOL    HW193741   9.345   9.028   4.937
63989SOL    HW293742   9.297   9.141   4.849
63990SOL     OW93743   4.461   7.146   7.101
63990SOL    HW193744   4.464   7.240   7.121
63990SOL    HW293745   4.463   7.103   7.186
63991SOL     OW93746   4.816   6.206  10.149
63991SOL    HW193747   4.851   6.146  10.084
63991SOL    HW293748   4.721   6.204  10.136
63992SOL     OW93749   6.084   6.863  10.562
63992SOL    HW193750   6.154   6.841  10.623
63992SOL    HW293751   6.008   6.879  10.618
63993SOL     OW93752  10.883   6.901   3.339
63993SOL    HW193753  10.868   6.927   3.248
63993SOL    HW293754  10.916   6.811   3.333
63994SOL     OW93755   9.240   7.457  14.589
63994SOL    HW193756   9.320   7.435  14.635
63994SOL    HW293757   9.175   7.395  14.621
63995SOL     OW93758   3.316  12.542   3.177
63995SOL    HW193759   3.226  12.568   3.160
63995SOL    HW293760   3.331  12.468   3.119
63996SOL     OW93761   5.010   8.427   2.954
63996SOL    HW193762   5.011   8.442   2.859
63996SOL    HW293763   5.094   8.463   2.985
63997SOL     OW93764   8.064   6.326   4.834
63997SOL    HW193765   8.123   6.322   4.759
63997SOL    HW293766   8.091   6.253   4.890
63998SOL     OW93767   1.495  10.415   2.042
63998SOL    HW193768   1.449  10.491   2.008
63998SOL    HW293769   1.507  10.358   1.966
63999SOL     OW93770   1.221   8.183   2.625
63999SOL    HW193771   1.281   8.254   2.603
63999SOL    HW293772   1.272   8.124   2.679
64000SOL     OW93773  12.424   6.027   9.474
64000SOL    HW193774  12.406   6.017   9.567
64000SOL    HW293775  12.393   6.114   9.452
64001SOL     OW93776   5.195   3.627  12.568
64001SOL    HW193777   5.202   3.670  12.654
64001SOL    HW293778   5.276   3.577  12.560
64002SOL     OW93779   9.974   8.686   0.305
64002SOL    HW193780   9.946   8.612   0.251
64002SOL    HW293781   9.892   8.727   0.334
64003SOL     OW93782   3.777   0.796   8.281
64003SOL    HW193783   3.695   0.844   8.287
64003SOL    HW293784   3.843   0.863   8.260
64004SOL     OW93785   2.842   4.815   6.878
64004SOL    HW193786   2.786   4.802   6.802
64004SOL    HW293787   2.853   4.727   6.915
64005SOL     OW93788   4.984  14.511  10.834
64005SOL    HW193789   5.042  14.439  10.811
64005SOL    HW293790   4.936  14.530  10.753
64006SOL     OW93791   9.259  13.270  10.933
64006SOL    HW193792   9.170  13.251  10.961
64006SOL    HW293793   9.288  13.341  10.990
64007SOL     OW93794   3.361  12.908   9.930
64007SOL    HW193795   3.451  12.922   9.900
64007SOL    HW293796   3.326  12.842   9.870
64008SOL     OW93797  14.238   4.614   6.207
64008SOL    HW193798  14.227   4.707   6.188
64008SOL    HW293799  14.153   4.587   6.242
64009SOL     OW93800  14.754  14.394  14.682
64009SOL    HW193801  14.679  14.437  14.642
64009SOL    HW293802  14.778  14.452  14.755
64010SOL     OW93803  12.604   3.148  11.257
64010SOL    HW193804  12.655   3.069  11.239
64010SOL    HW293805  12.601   3.154  11.352
64011SOL     OW93806   6.580   1.510   7.780
64011SOL    HW193807   6.529   1.472   7.708
64011SOL    HW293808   6.515   1.532   7.847
64012SOL     OW93809   5.667   3.248  12.307
64012SOL    HW193810   5.677   3.255  12.402
64012SOL    HW293811   5.645   3.336  12.278
64013SOL     OW93812   3.742   3.519   8.399
64013SOL    HW193813   3.737   3.540   8.306
64013SOL    HW293814   3.763   3.602   8.442
64014SOL     OW93815  11.381   3.706   9.980
64014SOL    HW193816  11.324   3.651  10.034
64014SOL    HW293817  11.454   3.649   9.955
64015SOL     OW93818   2.130   1.082  12.559
64015SOL    HW193819   2.079   1.006  12.532
64015SOL    HW293820   2.132   1.077  12.654
64016SOL     OW93821   0.724  11.758   6.486
64016SOL    HW193822   0.713  11.721   6.399
64016SOL    HW293823   0.814  11.737   6.511
64017SOL     OW93824  14.749   7.953  14.585
64017SOL    HW193825  14.748   7.868  14.540
64017SOL    HW293826  14.822   8.000  14.544
64018SOL     OW93827  10.898   2.188   5.914
64018SOL    HW193828  10.963   2.127   5.879
64018SOL    HW293829  10.851   2.138   5.981
64019SOL     OW93830   4.558   8.994   1.789
64019SOL    HW193831   4.597   8.934   1.853
64019SOL    HW293832   4.488   8.942   1.747
64020SOL     OW93833   5.272  10.992   9.276
64020SOL    HW193834   5.248  11.062   9.337
64020SOL    HW293835   5.329  11.035   9.212
64021SOL     OW93836   8.611   9.845  14.309
64021SOL    HW193837   8.639   9.809  14.225
64021SOL    HW293838   8.673   9.810  14.373
64022SOL     OW93839   8.578   8.435  14.377
64022SOL    HW193840   8.562   8.506  14.316
64022SOL    HW293841   8.496   8.387  14.380
64023SOL     OW93842   9.652   8.399   4.871
64023SOL    HW193843   9.667   8.482   4.826
64023SOL    HW293844   9.739   8.360   4.879
64024SOL     OW93845  10.285   4.718   4.794
64024SOL    HW193846  10.209   4.776   4.783
64024SOL    HW293847  10.319   4.740   4.881
64025SOL     OW93848  10.620   8.500  13.943
64025SOL    HW193849  10.527   8.519  13.955
64025SOL    HW293850  10.664   8.581  13.965
64026SOL     OW93851  10.370   3.038   8.918
64026SOL    HW193852  10.306   2.985   8.871
64026SOL    HW293853  10.335   3.045   9.007
64027SOL     OW93854   1.363  13.465   6.634
64027SOL    HW193855   1.316  13.407   6.694
64027SOL    HW293856   1.389  13.540   6.688
64028SOL     OW93857  14.626   9.535  11.434
64028SOL    HW193858  14.587   9.518  11.519
64028SOL    HW293859  14.690   9.465  11.422
64029SOL     OW93860  11.850   0.760   3.558
64029SOL    HW193861  11.800   0.684   3.527
64029SOL    HW293862  11.785   0.816   3.599
64030SOL     OW93863   9.872  10.522  13.467
64030SOL    HW193864   9.847  10.603  13.512
64030SOL    HW293865   9.958  10.541  13.429
64031SOL     OW93866   3.789   9.890   7.917
64031SOL    HW193867   3.728   9.839   7.863
64031SOL    HW293868   3.869   9.838   7.918
64032SOL     OW93869   5.674   0.029   6.435
64032SOL    HW193870   5.673   0.071   6.349
64032SOL    HW293871   5.688  14.818   6.416
64033SOL     OW93872   9.364   2.948   4.343
64033SOL    HW193873   9.435   2.947   4.278
64033SOL    HW293874   9.285   2.949   4.290
64034SOL     OW93875   6.389   3.713   5.792
64034SOL    HW193876   6.393   3.801   5.755
64034SOL    HW293877   6.480   3.683   5.796
64035SOL     OW93878   1.009   9.308   0.829
64035SOL    HW193879   1.064   9.235   0.802
64035SOL    HW293880   1.054   9.386   0.795
64036SOL     OW93881   8.772   2.586  12.303
64036SOL    HW193882   8.746   2.616  12.390
64036SOL    HW293883   8.692   2.547  12.266
64037SOL     OW93884   9.611  10.011   6.915
64037SOL    HW193885   9.627   9.983   6.825
64037SOL    HW293886   9.684   9.974   6.965
64038SOL     OW93887   7.094   9.594   2.174
64038SOL    HW193888   7.076   9.586   2.268
64038SOL    HW293889   7.008   9.597   2.133
64039SOL     OW93890   0.806   4.436   0.815
64039SOL    HW193891   0.728   4.480   0.781
64039SOL    HW293892   0.876   4.501   0.809
64040SOL     OW93893   8.363  11.741   3.024
64040SOL    HW193894   8.402  11.656   3.046
64040SOL    HW293895   8.282  11.719   2.979
64041SOL     OW93896  14.252   5.817  14.226
64041SOL    HW193897  14.301   5.899  14.220
64041SOL    HW293898  14.311   5.751  14.189
64042SOL     OW93899   8.785   0.873   7.603
64042SOL    HW193900   8.795   0.830   7.687
64042SOL    HW293901   8.756   0.804   7.544
64043SOL     OW93902   8.414  14.244   1.830
64043SOL    HW193903   8.435  14.325   1.875
64043SOL    HW293904   8.493  14.221   1.782
64044SOL     OW93905  11.302  10.965  12.799
64044SOL    HW193906  11.397  10.977  12.803
64044SOL    HW293907  11.288  10.873  12.819
64045SOL     OW93908   4.792   1.250  12.780
64045SOL    HW193909   4.735   1.286  12.712
64045SOL    HW293910   4.856   1.197  12.731
64046SOL     OW93911   9.620   3.044   4.230
64046SOL    HW193912   9.696   3.036   4.173
64046SOL    HW293913   9.655   3.078   4.312
64047SOL     OW93914  11.754  14.512   0.221
64047SOL    HW193915  11.662  14.534   0.205
64047SOL    HW293916  11.767  14.530   0.314
64048SOL     OW93917   8.310  13.934   0.597
64048SOL    HW193918   8.238  13.928   0.534
64048SOL    HW293919   8.269  13.919   0.682
64049SOL     OW93920  12.163   1.748   0.302
64049SOL    HW193921  12.106   1.687   0.255
64049SOL    HW293922  12.135   1.835   0.272
64050SOL     OW93923  11.452   8.501   9.668
64050SOL    HW193924  11.525   8.449   9.702
64050SOL    HW293925  11.420   8.550   9.744
64051SOL     OW93926   8.564  10.235  11.366
64051SOL    HW193927   8.622  10.297  11.321
64051SOL    HW293928   8.602  10.225  11.453
64052SOL     OW93929   2.510   4.809  13.935
64052SOL    HW193930   2.510   4.880  13.998
64052SOL    HW293931   2.594   4.817  13.890
64053SOL     OW93932  14.278  13.489  10.184
64053SOL    HW193933  14.227  13.569  10.190
64053SOL    HW293934  14.369  13.519  10.177
64054SOL     OW93935   6.479   8.263   8.212
64054SOL    HW193936   6.509   8.347   8.179
64054SOL    HW293937   6.549   8.233   8.270
64055SOL     OW93938   7.782   4.006  11.744
64055SOL    HW193939   7.849   4.032  11.807
64055SOL    HW293940   7.830   3.965  11.672
64056SOL     OW93941   0.982  13.501  14.309
64056SOL    HW193942   1.004  13.594  14.303
64056SOL    HW293943   0.973  13.472  14.218
64057SOL     OW93944  12.173  10.899   7.593
64057SOL    HW193945  12.229  10.821   7.597
64057SOL    HW293946  12.217  10.958   7.532
64058SOL     OW93947   3.141   3.754  14.140
64058SOL    HW193948   3.229   3.772  14.175
64058SOL    HW293949   3.091   3.726  14.216
64059SOL     OW93950   0.704  10.579  14.040
64059SOL    HW193951   0.654  10.501  14.015
64059SOL    HW293952   0.769  10.547  14.102
64060SOL     OW93953   6.114  14.223   5.628
64060SOL    HW193954   6.061  14.235   5.549
64060SOL    HW293955   6.089  14.136   5.660
64061SOL     OW93956   3.583  14.811   4.168
64061SOL    HW193957   3.561  14.731   4.121
64061SOL    HW293958   3.512  14.821   4.232
64062SOL     OW93959   5.853   5.595   6.132
64062SOL    HW193960   5.910   5.558   6.065
64062SOL    HW293961   5.820   5.677   6.095
64063SOL     OW93962   2.550   3.239   8.874
64063SOL    HW193963   2.604   3.160   8.877
64063SOL    HW293964   2.469   3.211   8.832
64064SOL     OW93965   9.066   8.253   4.343
64064SOL    HW193966   9.085   8.229   4.434
64064SOL    HW293967   8.983   8.301   4.349
64065SOL     OW93968   9.520  12.803  11.229
64065SOL    HW193969   9.563  12.848  11.302
64065SOL    HW293970   9.462  12.868  11.190
64066SOL     OW93971  10.209  12.340   0.946
64066SOL    HW193972  10.226  12.399   1.020
64066SOL    HW293973  10.143  12.385   0.894
64067SOL     OW93974   0.381  12.961  12.886
64067SOL    HW193975   0.413  12.972  12.796
64067SOL    HW293976   0.289  12.936  12.875
64068SOL     OW93977   4.836  13.297  14.103
64068SOL    HW193978   4.761  13.299  14.162
64068SOL    HW293979   4.798  13.299  14.015
64069SOL     OW93980   0.858  13.549   5.027
64069SOL    HW193981   0.867  13.550   5.122
64069SOL    HW293982   0.946  13.563   4.994
64070SOL     OW93983  10.435   6.500   4.521
64070SOL    HW193984  10.357   6.455   4.555
64070SOL    HW293985  10.402   6.557   4.453
64071SOL     OW93986   0.224  10.937   0.972
64071SOL    HW193987   0.160  10.897   1.031
64071SOL    HW293988   0.258  10.863   0.921
64072SOL     OW93989  12.052   9.661   0.449
64072SOL    HW193990  11.982   9.717   0.418
64072SOL    HW293991  12.033   9.648   0.542
64073SOL     OW93992  12.259   1.541  12.387
64073SOL    HW193993  12.176   1.557  12.432
64073SOL    HW293994  12.302   1.473  12.438
64074SOL     OW93995   9.531  12.347   0.622
64074SOL    HW193996   9.604  12.408   0.621
64074SOL    HW293997   9.547  12.291   0.698
64075SOL     OW93998   9.839   2.228   9.819
64075SOL    HW193999   9.897   2.153   9.833
64075SOL    HW294000   9.835   2.271   9.905
64076SOL     OW94001  10.620   5.068  13.455
64076SOL    HW194002  10.575   4.985  13.469
64076SOL    HW294003  10.622   5.110  13.541
64077SOL     OW94004  10.672   5.396   7.696
64077SOL    HW194005  10.760   5.397   7.735
64077SOL    HW294006  10.614   5.374   7.770
64078SOL     OW94007  13.932   1.128   8.573
64078SOL    HW194008  13.913   1.182   8.650
64078SOL    HW294009  13.859   1.067   8.568
64079SOL     OW94010   6.294   4.041   6.680
64079SOL    HW194011   6.346   4.095   6.739
64079SOL    HW294012   6.297   3.953   6.718
64080SOL     OW94013   7.677   3.678   2.243
64080SOL    HW194014   7.730   3.706   2.318
64080SOL    HW294015   7.651   3.759   2.200
64081SOL     OW94016   3.085   1.674   1.346
64081SOL    HW194017   3.147   1.735   1.306
64081SOL    HW294018   3.065   1.611   1.277
64082SOL     OW94019   4.974  13.234   6.512
64082SOL    HW194020   4.935  13.239   6.425
64082SOL    HW294021   4.927  13.162   6.555
64083SOL     OW94022   4.323   7.284   8.019
64083SOL    HW194023   4.340   7.376   7.997
64083SOL    HW294024   4.250   7.287   8.080
64084SOL     OW94025   6.848   2.726  13.160
64084SOL    HW194026   6.909   2.660  13.127
64084SOL    HW294027   6.901   2.805  13.170
64085SOL     OW94028   2.405   2.406  11.801
64085SOL    HW194029   2.387   2.377  11.891
64085SOL    HW294030   2.352   2.348  11.746
64086SOL     OW94031   1.535  10.439   6.677
64086SOL    HW194032   1.612  10.422   6.732
64086SOL    HW294033   1.509  10.353   6.644
64087SOL     OW94034  13.638   7.313   7.399
64087SOL    HW194035  13.620   7.249   7.468
64087SOL    HW294036  13.593   7.393   7.427
64088SOL     OW94037   1.529  14.158   6.407
64088SOL    HW194038   1.561  14.231   6.354
64088SOL    HW294039   1.434  14.161   6.395
64089SOL     OW94040   7.028   0.164  12.898
64089SOL    HW194041   6.954   0.224  12.902
64089SOL    HW294042   7.020   0.112  12.978
64090SOL     OW94043   8.588   3.433   3.156
64090SOL    HW194044   8.557   3.347   3.125
64090SOL    HW294045   8.552   3.495   3.092
64091SOL     OW94046  10.873  14.671  14.011
64091SOL    HW194047  10.837  14.756  13.985
64091SOL    HW294048  10.799  14.611  14.004
64092SOL     OW94049   9.280   2.389   2.579
64092SOL    HW194050   9.189   2.402   2.550
64092SOL    HW294051   9.275   2.394   2.675
64093SOL     OW94052  12.750   7.168  12.839
64093SOL    HW194053  12.738   7.092  12.782
64093SOL    HW294054  12.675   7.168  12.897
64094SOL     OW94055   0.896   1.346   6.766
64094SOL    HW194056   0.962   1.379   6.827
64094SOL    HW294057   0.830   1.415   6.762
64095SOL     OW94058   2.517  10.598  10.450
64095SOL    HW194059   2.537  10.618  10.358
64095SOL    HW294060   2.601  10.604  10.494
64096SOL     OW94061   0.239  11.111   4.232
64096SOL    HW194062   0.235  11.176   4.303
64096SOL    HW294063   0.306  11.144   4.173
64097SOL     OW94064   3.081   7.087   2.710
64097SOL    HW194065   3.069   7.179   2.686
64097SOL    HW294066   3.006   7.042   2.671
64098SOL     OW94067   0.389   9.449  14.841
64098SOL    HW194068   0.300   9.420  14.821
64098SOL    HW294069   0.378   9.514   0.029
64099SOL     OW94070   5.107   0.817   1.538
64099SOL    HW194071   5.144   0.795   1.452
64099SOL    HW294072   5.176   0.866   1.582
64100SOL     OW94073   1.746   4.587   0.269
64100SOL    HW194074   1.746   4.514   0.207
64100SOL    HW294075   1.698   4.553   0.344
64101SOL     OW94076  13.550  11.179   3.043
64101SOL    HW194077  13.537  11.251   3.104
64101SOL    HW294078  13.567  11.221   2.959
64102SOL     OW94079   8.212  14.340  12.617
64102SOL    HW194080   8.202  14.402  12.544
64102SOL    HW294081   8.164  14.380  12.689
64103SOL     OW94082   6.374  10.061  12.696
64103SOL    HW194083   6.386  10.059  12.601
64103SOL    HW294084   6.461  10.083  12.730
64104SOL     OW94085   8.558   3.949  10.700
64104SOL    HW194086   8.575   3.996  10.618
64104SOL    HW294087   8.641   3.905  10.719
64105SOL     OW94088   9.039   1.262  12.704
64105SOL    HW194089   9.120   1.212  12.690
64105SOL    HW294090   9.034   1.321  12.629
64106SOL     OW94091   0.185   6.016   4.139
64106SOL    HW194092   0.210   5.956   4.070
64106SOL    HW294093   0.266   6.062   4.162
64107SOL     OW94094  12.817  11.304   6.310
64107SOL    HW194095  12.801  11.383   6.362
64107SOL    HW294096  12.905  11.277   6.335
64108SOL     OW94097   5.093   5.743   7.639
64108SOL    HW194098   5.010   5.789   7.626
64108SOL    HW294099   5.149   5.806   7.684
64109SOL     OW94100   3.843   1.104   4.287
64109SOL    HW194101   3.929   1.080   4.252
64109SOL    HW294102   3.785   1.032   4.261
64110SOL     OW94103   3.964   9.564   6.166
64110SOL    HW194104   3.987   9.635   6.226
64110SOL    HW294105   4.036   9.562   6.103
64111SOL     OW94106   2.864   4.888  11.468
64111SOL    HW194107   2.892   4.936  11.389
64111SOL    HW294108   2.863   4.796  11.441
64112SOL     OW94109  14.377  14.859   7.668
64112SOL    HW194110  14.402   0.050   7.725
64112SOL    HW294111  14.330   0.019   7.595
64113SOL     OW94112   9.132  14.035   0.408
64113SOL    HW194113   9.103  14.037   0.317
64113SOL    HW294114   9.110  13.947   0.438
64114SOL     OW94115  12.194   9.635  13.379
64114SOL    HW194116  12.129   9.586  13.328
64114SOL    HW294117  12.212   9.713  13.327
64115SOL     OW94118   0.670   0.952   6.454
64115SOL    HW194119   0.580   0.985   6.455
64115SOL    HW294120   0.687   0.928   6.545
64116SOL     OW94121   6.205   7.065   5.706
64116SOL    HW194122   6.176   7.130   5.641
64116SOL    HW294123   6.185   7.106   5.791
64117SOL     OW94124   3.384  12.706   8.133
64117SOL    HW194125   3.381  12.658   8.051
64117SOL    HW294126   3.452  12.772   8.120
64118SOL     OW94127  12.006   9.996  12.899
64118SOL    HW194128  12.011   9.968  12.808
64118SOL    HW294129  11.913  10.011  12.914
64119SOL     OW94130  11.244  11.740  10.985
64119SOL    HW194131  11.259  11.793  11.063
64119SOL    HW294132  11.158  11.767  10.954
64120SOL     OW94133   5.101  12.076  11.412
64120SOL    HW194134   5.195  12.065  11.423
64120SOL    HW294135   5.063  11.994  11.445
64121SOL     OW94136  14.753  11.587  12.181
64121SOL    HW194137  14.712  11.558  12.262
64121SOL    HW294138  14.705  11.542  12.112
64122SOL     OW94139   2.626  12.871   4.339
64122SOL    HW194140   2.562  12.868   4.267
64122SOL    HW294141   2.616  12.787   4.383
64123SOL     OW94142  12.584   5.350   4.190
64123SOL    HW194143  12.590   5.263   4.151
64123SOL    HW294144  12.529   5.339   4.267
64124SOL     OW94145   3.675  12.681  12.853
64124SOL    HW194146   3.709  12.748  12.794
64124SOL    HW294147   3.614  12.630  12.799
64125SOL     OW94148   6.676   0.682   6.511
64125SOL    HW194149   6.620   0.722   6.445
64125SOL    HW294150   6.738   0.750   6.535
64126SOL     OW94151   2.873   8.971  13.094
64126SOL    HW194152   2.900   9.053  13.053
64126SOL    HW294153   2.946   8.912  13.081
64127SOL     OW94154  14.261   2.344  13.964
64127SOL    HW194155  14.264   2.412  13.897
64127SOL    HW294156  14.174   2.305  13.954
64128SOL     OW94157   4.117  14.437   9.282
64128SOL    HW194158   4.078  14.371   9.339
64128SOL    HW294159   4.211  14.426   9.292
64129SOL     OW94160   4.281  14.047   8.903
64129SOL    HW194161   4.254  13.993   8.977
64129SOL    HW294162   4.376  14.038   8.901
64130SOL     OW94163   4.648   7.662   9.053
64130SOL    HW194164   4.653   7.733   9.118
64130SOL    HW294165   4.724   7.677   8.997
64131SOL     OW94166   1.126  14.765  12.009
64131SOL    HW194167   1.203  14.712  12.030
64131SOL    HW294168   1.113  14.752  11.915
64132SOL     OW94169   9.381  14.080   4.075
64132SOL    HW194170   9.387  14.114   4.164
64132SOL    HW294171   9.391  14.157   4.019
64133SOL     OW94172   4.949   7.702   2.022
64133SOL    HW194173   4.867   7.748   2.038
64133SOL    HW294174   4.979   7.735   1.937
64134SOL     OW94175   5.112  11.439   6.532
64134SOL    HW194176   5.038  11.499   6.521
64134SOL    HW294177   5.183  11.479   6.481
64135SOL     OW94178   2.224   7.298   8.225
64135SOL    HW194179   2.236   7.369   8.162
64135SOL    HW294180   2.238   7.218   8.174
64136SOL     OW94181  12.689  10.652   6.755
64136SOL    HW194182  12.687  10.674   6.662
64136SOL    HW294183  12.646  10.726   6.798
64137SOL     OW94184  11.932   6.079  12.264
64137SOL    HW194185  11.966   6.059  12.176
64137SOL    HW294186  11.837   6.085  12.252
64138SOL     OW94187   9.431   5.806   3.561
64138SOL    HW194188   9.407   5.887   3.607
64138SOL    HW294189   9.347   5.766   3.540
64139SOL     OW94190   0.483   4.470  12.329
64139SOL    HW194191   0.453   4.451  12.240
64139SOL    HW294192   0.570   4.431  12.334
64140SOL     OW94193   7.094  14.576   3.832
64140SOL    HW194194   7.007  14.617   3.833
64140SOL    HW294195   7.152  14.641   3.871
64141SOL     OW94196   6.523   6.014  11.739
64141SOL    HW194197   6.544   5.938  11.685
64141SOL    HW294198   6.587   6.080  11.713
64142SOL     OW94199  11.168   8.493  14.689
64142SOL    HW194200  11.142   8.502  14.597
64142SOL    HW294201  11.194   8.402  14.698
64143SOL     OW94202   1.888   2.647   8.796
64143SOL    HW194203   1.887   2.555   8.771
64143SOL    HW294204   1.855   2.693   8.718
64144SOL     OW94205   3.443  11.383   4.029
64144SOL    HW194206   3.432  11.477   4.017
64144SOL    HW294207   3.365  11.344   3.991
64145SOL     OW94208   1.998   0.199   7.675
64145SOL    HW194209   2.061   0.135   7.708
64145SOL    HW294210   1.979   0.170   7.586
64146SOL     OW94211   8.632   8.101   0.054
64146SOL    HW194212   8.639   8.016   0.097
64146SOL    HW294213   8.661   8.085  14.846
64147SOL     OW94214   4.028  12.277  14.270
64147SOL    HW194215   3.978  12.227  14.205
64147SOL    HW294216   3.964  12.340  14.305
64148SOL     OW94217  12.181   7.235  11.960
64148SOL    HW194218  12.213   7.243  11.871
64148SOL    HW294219  12.090   7.205  11.950
64149SOL     OW94220   5.410  10.142   9.164
64149SOL    HW194221   5.416  10.237   9.160
64149SOL    HW294222   5.492  10.111   9.125
64150SOL     OW94223   2.872  13.230   2.051
64150SOL    HW194224   2.927  13.303   2.023
64150SOL    HW294225   2.855  13.180   1.971
64151SOL     OW94226   8.161  13.926  11.303
64151SOL    HW194227   8.161  14.016  11.270
64151SOL    HW294228   8.169  13.935  11.398
64152SOL     OW94229  13.517   8.658  10.687
64152SOL    HW194230  13.458   8.669  10.612
64152SOL    HW294231  13.461   8.624  10.757
64153SOL     OW94232   3.235   5.990   2.449
64153SOL    HW194233   3.321   5.954   2.427
64153SOL    HW294234   3.208   6.037   2.370
64154SOL     OW94235  14.405  12.383  14.345
64154SOL    HW194236  14.395  12.363  14.437
64154SOL    HW294237  14.467  12.456  14.343
64155SOL     OW94238  11.790   2.540  14.600
64155SOL    HW194239  11.730   2.478  14.559
64155SOL    HW294240  11.829   2.588  14.527
64156SOL     OW94241  12.995   1.397   4.449
64156SOL    HW194242  13.010   1.395   4.544
64156SOL    HW294243  12.911   1.353   4.437
64157SOL     OW94244  11.259   2.259  12.165
64157SOL    HW194245  11.317   2.312  12.219
64157SOL    HW294246  11.200   2.216  12.227
64158SOL     OW94247  14.295   7.646  12.865
64158SOL    HW194248  14.366   7.709  12.861
64158SOL    HW294249  14.335   7.562  12.840
64159SOL     OW94250  11.288   1.930   6.448
64159SOL    HW194251  11.325   1.929   6.360
64159SOL    HW294252  11.350   1.980   6.500
64160SOL     OW94253   9.091  12.763   1.959
64160SOL    HW194254   9.033  12.828   1.999
64160SOL    HW294255   9.044  12.681   1.968
64161SOL     OW94256   8.221   5.157   5.684
64161SOL    HW194257   8.233   5.103   5.762
64161SOL    HW294258   8.159   5.225   5.712
64162SOL     OW94259  14.723   5.307   8.287
64162SOL    HW194260  14.803   5.304   8.339
64162SOL    HW294261  14.655   5.336   8.348
64163SOL     OW94262   0.362   0.607   2.335
64163SOL    HW194263   0.346   0.681   2.395
64163SOL    HW294264   0.333   0.530   2.384
64164SOL     OW94265   3.545  13.801  11.011
64164SOL    HW194266   3.460  13.800  10.967
64164SOL    HW294267   3.602  13.851  10.952
64165SOL     OW94268   0.904   9.738   7.826
64165SOL    HW194269   0.959   9.798   7.877
64165SOL    HW294270   0.933   9.749   7.736
64166SOL     OW94271   9.897  14.744   4.853
64166SOL    HW194272   9.912  14.657   4.816
64166SOL    HW294273   9.982  14.769   4.890
64167SOL     OW94274   3.088   6.426   5.232
64167SOL    HW194275   2.993   6.427   5.224
64167SOL    HW294276   3.109   6.497   5.293
64168SOL     OW94277   0.767   5.745  11.598
64168SOL    HW194278   0.826   5.682  11.639
64168SOL    HW294279   0.800   5.755  11.509
64169SOL     OW94280   0.562  14.718   0.632
64169SOL    HW194281   0.493  14.657   0.604
64169SOL    HW294282   0.626  14.662   0.676
64170SOL     OW94283   1.621   3.034   1.278
64170SOL    HW194284   1.709   2.999   1.265
64170SOL    HW294285   1.571   3.000   1.204
64171SOL     OW94286   8.639   7.927   3.074
64171SOL    HW194287   8.656   7.838   3.044
64171SOL    HW294288   8.709   7.946   3.136
64172SOL     OW94289   7.284  12.774   6.971
64172SOL    HW194290   7.217  12.829   7.012
64172SOL    HW294291   7.238  12.729   6.901
64173SOL     OW94292   5.076  14.609  11.199
64173SOL    HW194293   4.987  14.607  11.163
64173SOL    HW294294   5.064  14.630  11.291
64174SOL     OW94295  11.726   0.408   0.333
64174SOL    HW194296  11.719   0.432   0.241
64174SOL    HW294297  11.815   0.433   0.358
64175SOL     OW94298   4.448  11.335  14.317
64175SOL    HW194299   4.399  11.271  14.266
64175SOL    HW294300   4.426  11.419  14.278
64176SOL     OW94301   9.060   6.869   4.593
64176SOL    HW194302   9.024   6.814   4.523
64176SOL    HW294303   9.011   6.843   4.671
64177SOL     OW94304   7.910  13.071   2.832
64177SOL    HW194305   7.934  12.999   2.774
64177SOL    HW294306   7.993  13.101   2.869
64178SOL     OW94307   6.369   5.928  13.379
64178SOL    HW194308   6.289   5.906  13.428
64178SOL    HW294309   6.440   5.907  13.439
64179SOL     OW94310   7.230   3.723  10.120
64179SOL    HW194311   7.206   3.640  10.080
64179SOL    HW294312   7.169   3.734  10.193
64180SOL     OW94313   4.400   0.825   5.803
64180SOL    HW194314   4.351   0.899   5.837
64180SOL    HW294315   4.394   0.759   5.872
64181SOL     OW94316  14.572   7.857   5.769
64181SOL    HW194317  14.635   7.878   5.838
64181SOL    HW294318  14.585   7.924   5.703
64182SOL     OW94319   6.051  13.336   9.870
64182SOL    HW194320   6.091  13.253   9.893
64182SOL    HW294321   6.114  13.377   9.810
64183SOL     OW94322  13.097   7.429   6.042
64183SOL    HW194323  13.164   7.497   6.045
64183SOL    HW294324  13.038   7.456   5.971
64184SOL     OW94325   9.758   4.707   6.738
64184SOL    HW194326   9.684   4.690   6.679
64184SOL    HW294327   9.727   4.777   6.796
64185SOL     OW94328  14.369  12.754  12.224
64185SOL    HW194329  14.391  12.813  12.152
64185SOL    HW294330  14.454  12.729  12.261
64186SOL     OW94331  14.778  12.196   4.238
64186SOL    HW194332  14.778  12.265   4.305
64186SOL    HW294333  14.836  12.129   4.273
64187SOL     OW94334  14.816   2.410  13.152
64187SOL    HW194335  14.873   2.377  13.221
64187SOL    HW294336  14.738   2.442  13.197
64188SOL     OW94337   0.877   6.747   7.023
64188SOL    HW194338   0.881   6.840   7.001
64188SOL    HW294339   0.810   6.711   6.965
64189SOL     OW94340   1.383   8.668  12.496
64189SOL    HW194341   1.307   8.717  12.529
64189SOL    HW294342   1.350   8.580  12.479
64190SOL     OW94343  13.937   9.858   7.134
64190SOL    HW194344  13.893   9.775   7.151
64190SOL    HW294345  13.961   9.891   7.221
64191SOL     OW94346  10.782  13.367   3.244
64191SOL    HW194347  10.729  13.288   3.256
64191SOL    HW294348  10.723  13.428   3.200
64192SOL     OW94349  10.321   6.100  11.934
64192SOL    HW194350  10.230   6.106  11.906
64192SOL    HW294351  10.372   6.133  11.860
64193SOL     OW94352   3.096   5.093  10.982
64193SOL    HW194353   3.069   5.184  10.990
64193SOL    HW294354   3.019   5.043  11.009
64194SOL     OW94355   3.645   5.375   6.753
64194SOL    HW194356   3.732   5.343   6.730
64194SOL    HW294357   3.624   5.438   6.685
64195SOL     OW94358   4.837   1.977  12.760
64195SOL    HW194359   4.780   2.054  12.769
64195SOL    HW294360   4.920   2.005  12.800
64196SOL     OW94361   1.850   7.253   5.448
64196SOL    HW194362   1.852   7.246   5.353
64196SOL    HW294363   1.808   7.337   5.465
64197SOL     OW94364   0.681  10.035  13.335
64197SOL    HW194365   0.736  10.050  13.412
64197SOL    HW294366   0.660  10.122  13.302
64198SOL     OW94367   3.243  14.187  11.824
64198SOL    HW194368   3.321  14.228  11.863
64198SOL    HW294369   3.244  14.097  11.858
64199SOL     OW94370  14.731   5.804   9.580
64199SOL    HW194371  14.680   5.859   9.521
64199SOL    HW294372  14.821   5.812   9.548
64200SOL     OW94373  10.043  13.617  10.589
64200SOL    HW194374  10.061  13.621  10.495
64200SOL    HW294375  10.061  13.526  10.613
64201SOL     OW94376   1.675   5.445   9.108
64201SOL    HW194377   1.732   5.519   9.129
64201SOL    HW294378   1.681   5.435   9.013
64202SOL     OW94379   0.807   6.502  14.779
64202SOL    HW194380   0.899   6.492  14.802
64202SOL    HW294381   0.784   6.420  14.736
64203SOL     OW94382  10.154  12.942  12.462
64203SOL    HW194383  10.078  12.995  12.485
64203SOL    HW294384  10.227  13.003  12.461
64204SOL     OW94385   2.363  11.553  10.845
64204SOL    HW194386   2.309  11.497  10.901
64204SOL    HW294387   2.316  11.557  10.762
64205SOL     OW94388  10.105   3.581   7.377
64205SOL    HW194389  10.110   3.547   7.288
64205SOL    HW294390  10.046   3.657   7.370
64206SOL     OW94391   8.988   4.167  13.439
64206SOL    HW194392   8.923   4.102  13.415
64206SOL    HW294393   8.956   4.204  13.521
64207SOL     OW94394   5.557   3.809   5.927
64207SOL    HW194395   5.553   3.718   5.898
64207SOL    HW294396   5.497   3.813   6.002
64208SOL     OW94397   5.493   9.135   9.098
64208SOL    HW194398   5.569   9.174   9.142
64208SOL    HW294399   5.509   9.151   9.005
64209SOL     OW94400  12.310   6.060  11.656
64209SOL    HW194401  12.366   6.095  11.587
64209SOL    HW294402  12.365   5.996  11.701
64210SOL     OW94403  12.518  11.666   1.302
64210SOL    HW194404  12.446  11.604   1.310
64210SOL    HW294405  12.592  11.613   1.274
64211SOL     OW94406  14.568  10.846  14.305
64211SOL    HW194407  14.499  10.815  14.247
64211SOL    HW294408  14.570  10.941  14.292
64212SOL     OW94409  12.661   0.717   6.979
64212SOL    HW194410  12.660   0.786   7.045
64212SOL    HW294411  12.753   0.689   6.974
64213SOL     OW94412   8.510   3.194   3.079
64213SOL    HW194413   8.540   3.171   2.991
64213SOL    HW294414   8.515   3.112   3.128
64214SOL     OW94415  12.572   2.458   2.269
64214SOL    HW194416  12.482   2.444   2.238
64214SOL    HW294417  12.605   2.527   2.212
64215SOL     OW94418   8.683  10.685  10.659
64215SOL    HW194419   8.667  10.591  10.671
64215SOL    HW294420   8.778  10.694  10.660
64216SOL     OW94421   3.287   4.065   7.979
64216SOL    HW194422   3.377   4.031   7.977
64216SOL    HW294423   3.284   4.130   7.909
64217SOL     OW94424   3.980   9.713   0.874
64217SOL    HW194425   4.021   9.757   0.948
64217SOL    HW294426   3.986   9.620   0.896
64218SOL     OW94427  12.210   7.651  12.331
64218SOL    HW194428  12.271   7.635  12.259
64218SOL    HW294429  12.178   7.740  12.316
64219SOL     OW94430   6.794  10.737   6.920
64219SOL    HW194431   6.751  10.778   6.995
64219SOL    HW294432   6.872  10.696   6.957
64220SOL     OW94433  10.473  10.580   3.499
64220SOL    HW194434  10.517  10.571   3.583
64220SOL    HW294435  10.380  10.585   3.521
64221SOL     OW94436  10.974  12.184   4.550
64221SOL    HW194437  10.898  12.231   4.517
64221SOL    HW294438  10.951  12.157   4.638
64222SOL     OW94439  11.441   5.069  11.694
64222SOL    HW194440  11.468   5.161  11.701
64222SOL    HW294441  11.514   5.020  11.732
64223SOL     OW94442   1.635   0.303  12.772
64223SOL    HW194443   1.723   0.272  12.748
64223SOL    HW294444   1.629   0.287  12.866
64224SOL     OW94445  13.047   3.973  10.848
64224SOL    HW194446  13.112   3.997  10.915
64224SOL    HW294447  13.026   3.882  10.868
64225SOL     OW94448  13.048   6.313   8.872
64225SOL    HW194449  12.962   6.348   8.847
64225SOL    HW294450  13.033   6.270   8.956
64226SOL     OW94451   6.821   0.658   2.975
64226SOL    HW194452   6.808   0.621   3.062
64226SOL    HW294453   6.774   0.742   2.978
64227SOL     OW94454  12.697   8.635   7.188
64227SOL    HW194455  12.630   8.649   7.255
64227SOL    HW294456  12.674   8.552   7.147
64228SOL     OW94457   1.883   8.594   3.062
64228SOL    HW194458   1.923   8.540   2.994
64228SOL    HW294459   1.789   8.576   3.055
64229SOL     OW94460   5.209   6.774   1.375
64229SOL    HW194461   5.269   6.780   1.449
64229SOL    HW294462   5.266   6.757   1.299
64230SOL     OW94463  11.749  10.044   6.111
64230SOL    HW194464  11.839  10.047   6.080
64230SOL    HW294465  11.756  10.038   6.206
64231SOL     OW94466   6.761   9.797  10.827
64231SOL    HW194467   6.727   9.787  10.915
64231SOL    HW294468   6.807   9.715  10.810
64232SOL     OW94469   5.058   0.216   4.390
64232SOL    HW194470   5.088   0.301   4.423
64232SOL    HW294471   5.131   0.183   4.338
64233SOL     OW94472  10.521   5.963   0.656
64233SOL    HW194473  10.539   5.946   0.748
64233SOL    HW294474  10.450   5.904   0.634
64234SOL     OW94475   6.634   2.261  11.925
64234SOL    HW194476   6.676   2.346  11.910
64234SOL    HW294477   6.643   2.245  12.019
64235SOL     OW94478   5.627   7.415   6.063
64235SOL    HW194479   5.628   7.497   6.013
64235SOL    HW294480   5.561   7.429   6.131
64236SOL     OW94481   2.195  14.814   7.061
64236SOL    HW194482   2.229  14.835   6.974
64236SOL    HW294483   2.218   0.008   7.115
64237SOL     OW94484  12.798   7.060  10.509
64237SOL    HW194485  12.723   7.108  10.543
64237SOL    HW294486  12.874   7.100  10.551
64238SOL     OW94487  10.716   8.766   0.839
64238SOL    HW194488  10.681   8.840   0.889
64238SOL    HW294489  10.804   8.753   0.875
64239SOL     OW94490   2.822   8.099   8.250
64239SOL    HW194491   2.848   8.098   8.342
64239SOL    HW294492   2.729   8.078   8.251
64240SOL     OW94493   2.542   5.982   5.292
64240SOL    HW194494   2.613   5.934   5.251
64240SOL    HW294495   2.526   6.056   5.234
64241SOL     OW94496  12.158   2.337  13.829
64241SOL    HW194497  12.064   2.317  13.829
64241SOL    HW294498  12.163   2.430  13.807
64242SOL     OW94499  11.438   7.486  11.989
64242SOL    HW194500  11.463   7.480  11.897
64242SOL    HW294501  11.505   7.542  12.028
64243SOL     OW94502   7.529   0.947   0.546
64243SOL    HW194503   7.593   0.879   0.565
64243SOL    HW294504   7.523   0.949   0.451
64244SOL     OW94505   7.219   4.707   9.282
64244SOL    HW194506   7.192   4.782   9.335
64244SOL    HW294507   7.139   4.679   9.237
64245SOL     OW94508   3.842   4.691   1.570
64245SOL    HW194509   3.772   4.682   1.505
64245SOL    HW294510   3.918   4.650   1.528
64246SOL     OW94511   9.676   6.175  12.433
64246SOL    HW194512   9.659   6.122  12.355
64246SOL    HW294513   9.710   6.258  12.399
64247SOL     OW94514   1.150  13.151   8.104
64247SOL    HW194515   1.141  13.070   8.155
64247SOL    HW294516   1.228  13.137   8.050
64248SOL     OW94517   3.562   9.601  10.646
64248SOL    HW194518   3.525   9.537  10.707
64248SOL    HW294519   3.653   9.610  10.673
64249SOL     OW94520   2.427   9.199   4.596
64249SOL    HW194521   2.455   9.290   4.608
64249SOL    HW294522   2.338   9.206   4.560
64250SOL     OW94523  14.004   3.388   6.325
64250SOL    HW194524  13.984   3.360   6.236
64250SOL    HW294525  13.998   3.484   6.321
64251SOL     OW94526   6.198   0.370  14.071
64251SOL    HW194527   6.214   0.317  14.149
64251SOL    HW294528   6.146   0.314  14.013
64252SOL     OW94529  11.626   6.613   9.283
64252SOL    HW194530  11.598   6.545   9.221
64252SOL    HW294531  11.632   6.692   9.230
64253SOL     OW94532   2.341  14.638   6.103
64253SOL    HW194533   2.349  14.684   6.019
64253SOL    HW294534   2.386  14.555   6.090
64254SOL     OW94535  14.059   4.007  10.765
64254SOL    HW194536  14.112   3.944  10.813
64254SOL    HW294537  13.975   4.007  10.810
64255SOL     OW94538  13.066   4.170   1.746
64255SOL    HW194539  13.076   4.082   1.710
64255SOL    HW294540  12.978   4.197   1.721
64256SOL     OW94541   9.667  13.164   1.559
64256SOL    HW194542   9.625  13.246   1.536
64256SOL    HW294543   9.623  13.098   1.504
64257SOL     OW94544   7.210  14.623  11.011
64257SOL    HW194545   7.255  14.669  11.082
64257SOL    HW294546   7.158  14.555  11.055
64258SOL     OW94547  14.588   1.542   2.245
64258SOL    HW194548  14.658   1.539   2.311
64258SOL    HW294549  14.588   1.455   2.206
64259SOL     OW94550  11.581  10.713   1.712
64259SOL    HW194551  11.486  10.722   1.720
64259SOL    HW294552  11.616  10.797   1.743
64260SOL     OW94553   9.078   3.595  10.887
64260SOL    HW194554   9.126   3.596  10.969
64260SOL    HW294555   9.055   3.687  10.871
64261SOL     OW94556   5.284   7.450  12.101
64261SOL    HW194557   5.351   7.510  12.133
64261SOL    HW294558   5.220   7.445  12.172
64262SOL     OW94559   4.796  13.830   8.651
64262SOL    HW194560   4.872  13.879   8.679
64262SOL    HW294561   4.823  13.787   8.570
64263SOL     OW94562   4.596   5.475   8.104
64263SOL    HW194563   4.550   5.394   8.126
64263SOL    HW294564   4.626   5.462   8.014
64264SOL     OW94565   4.402  12.674  11.171
64264SOL    HW194566   4.406  12.599  11.229
64264SOL    HW294567   4.417  12.638  11.083
64265SOL     OW94568   1.753  13.434   3.406
64265SOL    HW194569   1.664  13.470   3.405
64265SOL    HW294570   1.745  13.353   3.456
64266SOL     OW94571   6.464   5.433   0.231
64266SOL    HW194572   6.547   5.390   0.248
64266SOL    HW294573   6.398   5.368   0.256
64267SOL     OW94574   5.058   7.825   0.023
64267SOL    HW194575   5.016   7.740   0.026
64267SOL    HW294576   5.033   7.862  14.820
64268SOL     OW94577   5.395  13.550   8.916
64268SOL    HW194578   5.364  13.490   8.849
64268SOL    HW294579   5.481  13.515   8.941
64269SOL     OW94580   5.426   3.467   4.102
64269SOL    HW194581   5.444   3.381   4.140
64269SOL    HW294582   5.446   3.457   4.009
64270SOL     OW94583   9.166  13.269   3.469
64270SOL    HW194584   9.204  13.241   3.386
64270SOL    HW294585   9.083  13.311   3.446
64271SOL     OW94586   8.855  10.011   2.805
64271SOL    HW194587   8.764  10.039   2.815
64271SOL    HW294588   8.869  10.010   2.710
64272SOL     OW94589   6.440  10.158   9.716
64272SOL    HW194590   6.490  10.239   9.727
64272SOL    HW294591   6.504  10.088   9.724
64273SOL     OW94592  13.118   7.906   1.933
64273SOL    HW194593  13.195   7.897   1.988
64273SOL    HW294594  13.072   7.822   1.941
64274SOL     OW94595   9.234   3.557   3.672
64274SOL    HW194596   9.186   3.637   3.649
64274SOL    HW294597   9.227   3.502   3.593
64275SOL     OW94598   4.479  13.659   3.130
64275SOL    HW194599   4.552  13.652   3.069
64275SOL    HW294600   4.410  13.702   3.080
64276SOL     OW94601   6.845   6.746   9.183
64276SOL    HW194602   6.802   6.822   9.222
64276SOL    HW294603   6.774   6.686   9.163
64277SOL     OW94604   2.305   0.470  11.957
64277SOL    HW194605   2.328   0.388  12.001
64277SOL    HW294606   2.307   0.448  11.864
64278SOL     OW94607  10.743   9.841   0.832
64278SOL    HW194608  10.697   9.798   0.904
64278SOL    HW294609  10.729   9.935   0.847
64279SOL     OW94610   6.763  10.329   6.332
64279SOL    HW194611   6.718  10.245   6.335
64279SOL    HW294612   6.850  10.309   6.299
64280SOL     OW94613   4.976  11.005   3.592
64280SOL    HW194614   5.013  11.088   3.623
64280SOL    HW294615   4.901  11.031   3.538
64281SOL     OW94616   3.788   0.519  14.593
64281SOL    HW194617   3.863   0.557  14.548
64281SOL    HW294618   3.718   0.584  14.585
64282SOL     OW94619  10.036   2.628   6.373
64282SOL    HW194620  10.069   2.676   6.449
64282SOL    HW294621  10.107   2.633   6.309
64283SOL     OW94622   6.143  10.215   6.710
64283SOL    HW194623   6.223  10.162   6.715
64283SOL    HW294624   6.175  10.304   6.694
64284SOL     OW94625  13.897   5.948  13.194
64284SOL    HW194626  13.806   5.958  13.223
64284SOL    HW294627  13.932   5.877  13.248
64285SOL     OW94628   2.267  10.807   6.918
64285SOL    HW194629   2.235  10.719   6.938
64285SOL    HW294630   2.189  10.854   6.887
64286SOL     OW94631   1.572  14.183   1.292
64286SOL    HW194632   1.630  14.209   1.364
64286SOL    HW294633   1.600  14.238   1.219
64287SOL     OW94634   1.520   0.507  11.587
64287SOL    HW194635   1.437   0.458  11.584
64287SOL    HW294636   1.503   0.578  11.650
64288SOL     OW94637  11.761   9.614   5.565
64288SOL    HW194638  11.738   9.621   5.658
64288SOL    HW294639  11.677   9.605   5.521
64289SOL     OW94640   2.196   0.226  13.042
64289SOL    HW194641   2.276   0.174  13.034
64289SOL    HW294642   2.184   0.237  13.136
64290SOL     OW94643   5.417   9.754   2.675
64290SOL    HW194644   5.436   9.661   2.689
64290SOL    HW294645   5.382   9.784   2.758
64291SOL     OW94646   4.601   6.543   1.001
64291SOL    HW194647   4.655   6.496   1.065
64291SOL    HW294648   4.665   6.583   0.942
64292SOL     OW94649   5.715  11.014  10.421
64292SOL    HW194650   5.742  10.957  10.348
64292SOL    HW294651   5.787  11.008  10.484
64293SOL     OW94652   3.603   6.660   8.416
64293SOL    HW194653   3.585   6.611   8.496
64293SOL    HW294654   3.673   6.611   8.372
64294SOL     OW94655   5.476  12.580   3.370
64294SOL    HW194656   5.511  12.636   3.301
64294SOL    HW294657   5.384  12.607   3.377
64295SOL     OW94658   7.173  11.530  13.543
64295SOL    HW194659   7.097  11.474  13.557
64295SOL    HW294660   7.230  11.513  13.618
64296SOL     OW94661   4.602  14.683  10.855
64296SOL    HW194662   4.613  14.588  10.859
64296SOL    HW294663   4.514  14.696  10.820
64297SOL     OW94664  10.868   5.717   7.061
64297SOL    HW194665  10.819   5.714   6.980
64297SOL    HW294666  10.954   5.752   7.037
64298SOL     OW94667  12.062   0.102  11.535
64298SOL    HW194668  12.071   0.194  11.511
64298SOL    HW294669  11.972   0.080  11.512
64299SOL     OW94670   6.241   3.466   2.935
64299SOL    HW194671   6.333   3.441   2.944
64299SOL    HW294672   6.213   3.425   2.853
64300SOL     OW94673   3.606   1.378   9.706
64300SOL    HW194674   3.561   1.415   9.630
64300SOL    HW294675   3.560   1.296   9.725
64301SOL     OW94676  14.518   7.348   5.335
64301SOL    HW194677  14.583   7.404   5.376
64301SOL    HW294678  14.459   7.322   5.406
64302SOL     OW94679  14.016  14.048   8.660
64302SOL    HW194680  14.109  14.048   8.639
64302SOL    HW294681  13.984  13.962   8.632
64303SOL     OW94682   2.037   5.618   0.032
64303SOL    HW194683   1.965   5.584   0.086
64303SOL    HW294684   2.112   5.619   0.091
64304SOL     OW94685   1.883  12.995  12.329
64304SOL    HW194686   1.868  12.910  12.287
64304SOL    HW294687   1.976  12.996  12.351
64305SOL     OW94688   7.491   5.035   6.336
64305SOL    HW194689   7.396   5.041   6.347
64305SOL    HW294690   7.503   4.985   6.255
64306SOL     OW94691  14.516  13.988  14.175
64306SOL    HW194692  14.444  14.037  14.135
64306SOL    HW294693  14.583  13.985  14.106
64307SOL     OW94694  13.489   3.594  13.602
64307SOL    HW194695  13.545   3.670  13.616
64307SOL    HW294696  13.526   3.526  13.659
64308SOL     OW94697   7.344   9.469   9.537
64308SOL    HW194698   7.324   9.385   9.577
64308SOL    HW294699   7.398   9.448   9.461
64309SOL     OW94700   4.419  11.303   6.889
64309SOL    HW194701   4.370  11.332   6.966
64309SOL    HW294702   4.507  11.339   6.901
64310SOL     OW94703   9.749   7.998   8.776
64310SOL    HW194704   9.821   8.058   8.755
64310SOL    HW294705   9.674   8.054   8.791
64311SOL     OW94706   4.031   1.932   9.080
64311SOL    HW194707   4.004   2.013   9.037
64311SOL    HW294708   4.066   1.878   9.010
64312SOL     OW94709   2.271   9.502   8.317
64312SOL    HW194710   2.349   9.498   8.372
64312SOL    HW294711   2.213   9.564   8.361
64313SOL     OW94712   8.652  13.137   0.236
64313SOL    HW194713   8.600  13.214   0.260
64313SOL    HW294714   8.651  13.136   0.141
64314SOL     OW94715   8.960   7.711   4.445
64314SOL    HW194716   8.938   7.803   4.435
64314SOL    HW294717   8.904   7.666   4.381
64315SOL     OW94718   6.989   8.829  14.795
64315SOL    HW194719   6.939   8.854  14.873
64315SOL    HW294720   6.923   8.805  14.730
64316SOL     OW94721   3.960  11.117   6.089
64316SOL    HW194722   3.910  11.198   6.074
64316SOL    HW294723   4.051  11.144   6.080
64317SOL     OW94724   4.749   7.965   3.668
64317SOL    HW194725   4.765   7.983   3.761
64317SOL    HW294726   4.686   7.892   3.669
64318SOL     OW94727   5.840   6.823   4.141
64318SOL    HW194728   5.858   6.809   4.048
64318SOL    HW294729   5.841   6.918   4.152
64319SOL     OW94730   4.202  13.331   3.115
64319SOL    HW194731   4.155  13.323   3.032
64319SOL    HW294732   4.288  13.365   3.091
64320SOL     OW94733   0.776   4.380   7.670
64320SOL    HW194734   0.771   4.346   7.581
64320SOL    HW294735   0.798   4.304   7.724
64321SOL     OW94736   9.526   5.281  14.571
64321SOL    HW194737   9.447   5.303  14.620
64321SOL    HW294738   9.508   5.194  14.534
64322SOL     OW94739   3.140   7.214  14.525
64322SOL    HW194740   3.058   7.178  14.490
64322SOL    HW294741   3.209   7.167  14.478
64323SOL     OW94742  14.685   2.464  11.300
64323SOL    HW194743  14.715   2.503  11.382
64323SOL    HW294744  14.752   2.399  11.279
64324SOL     OW94745  14.431   9.969   1.527
64324SOL    HW194746  14.501   9.949   1.464
64324SOL    HW294747  14.444  10.061   1.548
64325SOL     OW94748  14.146   3.222  11.251
64325SOL    HW194749  14.187   3.190  11.331
64325SOL    HW294750  14.135   3.316  11.265
64326SOL     OW94751   4.574  13.137   1.440
64326SOL    HW194752   4.602  13.156   1.530
64326SOL    HW294753   4.497  13.193   1.427
64327SOL     OW94754   2.103  14.143   8.962
64327SOL    HW194755   2.018  14.101   8.948
64327SOL    HW294756   2.166  14.072   8.952
64328SOL     OW94757  13.772   5.646   5.285
64328SOL    HW194758  13.782   5.675   5.376
64328SOL    HW294759  13.769   5.550   5.292
64329SOL     OW94760   8.283   7.844   1.341
64329SOL    HW194761   8.246   7.774   1.288
64329SOL    HW294762   8.280   7.811   1.431
64330SOL     OW94763  13.834   9.184   1.874
64330SOL    HW194764  13.795   9.213   1.791
64330SOL    HW294765  13.928   9.186   1.859
64331SOL     OW94766  11.116   0.973   1.952
64331SOL    HW194767  11.096   0.926   1.871
64331SOL    HW294768  11.179   1.040   1.925
64332SOL     OW94769  11.875  12.763   0.010
64332SOL    HW194770  11.822  12.795   0.083
64332SOL    HW294771  11.913  12.681   0.042
64333SOL     OW94772   1.302   0.416  12.158
64333SOL    HW194773   1.296   0.359  12.235
64333SOL    HW294774   1.375   0.381  12.108
64334SOL     OW94775   1.815   5.874   7.449
64334SOL    HW194776   1.751   5.944   7.465
64334SOL    HW294777   1.768   5.794   7.470
64335SOL     OW94778   9.348   0.089  10.101
64335SOL    HW194779   9.299   0.148  10.044
64335SOL    HW294780   9.330   0.120  10.190
64336SOL     OW94781   1.455   8.191   1.454
64336SOL    HW194782   1.365   8.158   1.454
64336SOL    HW294783   1.454   8.264   1.393
64337SOL     OW94784   8.296   6.981   5.717
64337SOL    HW194785   8.204   7.006   5.712
64337SOL    HW294786   8.343   7.063   5.732
64338SOL     OW94787  11.460   4.004   2.822
64338SOL    HW194788  11.469   4.019   2.728
64338SOL    HW294789  11.429   4.087   2.857
64339SOL     OW94790   4.739   6.792   7.659
64339SOL    HW194791   4.819   6.845   7.664
64339SOL    HW294792   4.762   6.719   7.601
64340SOL     OW94793   1.765   6.075  11.002
64340SOL    HW194794   1.818   6.011  10.955
64340SOL    HW294795   1.682   6.075  10.955
64341SOL     OW94796  10.674   5.571  14.525
64341SOL    HW194797  10.620   5.600  14.452
64341SOL    HW294798  10.741   5.516  14.485
64342SOL     OW94799   8.008   6.535  13.192
64342SOL    HW194800   8.008   6.509  13.100
64342SOL    HW294801   8.040   6.625  13.192
64343SOL     OW94802   1.687   8.158   6.655
64343SOL    HW194803   1.746   8.157   6.580
64343SOL    HW294804   1.719   8.230   6.709
64344SOL     OW94805   4.104   2.618   4.083
64344SOL    HW194806   4.015   2.654   4.080
64344SOL    HW294807   4.092   2.524   4.072
64345SOL     OW94808  12.825   6.116   0.335
64345SOL    HW194809  12.806   6.097   0.427
64345SOL    HW294810  12.822   6.211   0.329
64346SOL     OW94811   7.841  11.109  11.342
64346SOL    HW194812   7.856  11.014  11.345
64346SOL    HW294813   7.929  11.146  11.330
64347SOL     OW94814   9.718   3.471   3.669
64347SOL    HW194815   9.645   3.420   3.706
64347SOL    HW294816   9.725   3.548   3.726
64348SOL     OW94817   5.386   6.843  12.459
64348SOL    HW194818   5.330   6.901  12.512
64348SOL    HW294819   5.425   6.901  12.394
64349SOL     OW94820   9.886   2.604  13.436
64349SOL    HW194821   9.911   2.521  13.395
64349SOL    HW294822   9.921   2.598  13.525
64350SOL     OW94823   3.307  14.110   5.447
64350SOL    HW194824   3.252  14.031   5.447
64350SOL    HW294825   3.376  14.091   5.510
64351SOL     OW94826   4.399  14.370   7.095
64351SOL    HW194827   4.474  14.393   7.040
64351SOL    HW294828   4.436  14.354   7.181
64352SOL     OW94829  10.268   0.122   8.489
64352SOL    HW194830  10.346   0.094   8.442
64352SOL    HW294831  10.203   0.139   8.421
64353SOL     OW94832   5.712   0.557   0.530
64353SOL    HW194833   5.799   0.580   0.563
64353SOL    HW294834   5.720   0.465   0.505
64354SOL     OW94835   1.087   3.209   2.650
64354SOL    HW194836   1.066   3.272   2.582
64354SOL    HW294837   1.182   3.216   2.661
64355SOL     OW94838   2.868  10.425  11.320
64355SOL    HW194839   2.927  10.471  11.379
64355SOL    HW294840   2.856  10.485  11.246
64356SOL     OW94841   5.534   6.465  14.485
64356SOL    HW194842   5.513   6.477  14.392
64356SOL    HW294843   5.598   6.394  14.486
64357SOL     OW94844   6.513   1.070   3.126
64357SOL    HW194845   6.451   1.103   3.061
64357SOL    HW294846   6.545   1.148   3.171
64358SOL     OW94847  11.811   6.353   3.677
64358SOL    HW194848  11.883   6.410   3.704
64358SOL    HW294849  11.742   6.412   3.648
64359SOL     OW94850  10.488   7.563   2.771
64359SOL    HW194851  10.487   7.467   2.766
64359SOL    HW294852  10.581   7.586   2.763
64360SOL     OW94853   4.940   1.659   7.279
64360SOL    HW194854   4.862   1.702   7.244
64360SOL    HW294855   5.013   1.705   7.240
64361SOL     OW94856  10.248  10.696  11.472
64361SOL    HW194857  10.234  10.722  11.381
64361SOL    HW294858  10.161  10.677  11.506
64362SOL     OW94859  14.361  12.972   9.777
64362SOL    HW194860  14.418  12.896   9.766
64362SOL    HW294861  14.275  12.941   9.748
64363SOL     OW94862   1.139   9.059   5.628
64363SOL    HW194863   1.207   9.015   5.678
64363SOL    HW294864   1.184   9.133   5.587
64364SOL     OW94865  10.421  10.176   2.136
64364SOL    HW194866  10.489  10.111   2.121
64364SOL    HW294867  10.453  10.255   2.091
64365SOL     OW94868   1.622   5.054   4.252
64365SOL    HW194869   1.646   5.081   4.164
64365SOL    HW294870   1.544   5.104   4.272
64366SOL     OW94871   6.214   7.381   4.788
64366SOL    HW194872   6.213   7.448   4.719
64366SOL    HW294873   6.159   7.417   4.857
64367SOL     OW94874   8.832   8.844   6.654
64367SOL    HW194875   8.781   8.821   6.732
64367SOL    HW294876   8.882   8.765   6.634
64368SOL     OW94877   3.564   0.477   9.556
64368SOL    HW194878   3.658   0.470   9.570
64368SOL    HW294879   3.548   0.431   9.474
64369SOL     OW94880   2.917   9.138  14.383
64369SOL    HW194881   2.878   9.153  14.469
64369SOL    HW294882   2.854   9.083  14.337
64370SOL     OW94883   3.701   3.060   4.699
64370SOL    HW194884   3.657   2.975   4.689
64370SOL    HW294885   3.680   3.108   4.619
64371SOL     OW94886   1.744  11.556   3.161
64371SOL    HW194887   1.792  11.637   3.178
64371SOL    HW294888   1.782  11.521   3.080
64372SOL     OW94889   0.722   2.292   3.388
64372SOL    HW194890   0.635   2.328   3.406
64372SOL    HW294891   0.735   2.227   3.457
64373SOL     OW94892   6.956   8.243   1.133
64373SOL    HW194893   6.862   8.235   1.147
64373SOL    HW294894   6.967   8.327   1.089
64374SOL     OW94895   4.207   1.850   5.856
64374SOL    HW194896   4.244   1.896   5.780
64374SOL    HW294897   4.144   1.911   5.893
64375SOL     OW94898  13.834  14.575  10.299
64375SOL    HW194899  13.849  14.601  10.390
64375SOL    HW294900  13.763  14.511  10.304
64376SOL     OW94901   4.220   7.817  13.700
64376SOL    HW194902   4.217   7.759  13.776
64376SOL    HW294903   4.313   7.836  13.689
64377SOL     OW94904   0.065   7.845   5.438
64377SOL    HW194905  14.857   7.812   5.448
64377SOL    HW294906   0.096   7.856   5.528
64378SOL     OW94907  13.773  13.790   9.674
64378SOL    HW194908  13.779  13.722   9.607
64378SOL    HW294909  13.778  13.742   9.757
64379SOL     OW94910  14.031   8.656   5.126
64379SOL    HW194911  14.019   8.707   5.046
64379SOL    HW294912  14.124   8.632   5.126
64380SOL     OW94913   3.999   0.332   9.950
64380SOL    HW194914   4.067   0.399   9.959
64380SOL    HW294915   3.994   0.292  10.037
64381SOL     OW94916  10.974  13.919   1.504
64381SOL    HW194917  10.897  13.976   1.500
64381SOL    HW294918  10.985  13.901   1.598
64382SOL     OW94919   1.572  14.780   3.424
64382SOL    HW194920   1.506  14.807   3.487
64382SOL    HW294921   1.616  14.861   3.399
64383SOL     OW94922   6.342   1.395   2.512
64383SOL    HW194923   6.322   1.307   2.544
64383SOL    HW294924   6.262   1.445   2.527
64384SOL     OW94925   6.910   3.822   4.540
64384SOL    HW194926   6.983   3.828   4.602
64384SOL    HW294927   6.941   3.872   4.464
64385SOL     OW94928  13.254   1.607   5.362
64385SOL    HW194929  13.214   1.686   5.325
64385SOL    HW294930  13.269   1.629   5.454
64386SOL     OW94931  10.333  11.773   5.947
64386SOL    HW194932  10.287  11.857   5.940
64386SOL    HW294933  10.290  11.728   6.020
64387SOL     OW94934   0.206  10.116   4.289
64387SOL    HW194935   0.134  10.160   4.244
64387SOL    HW294936   0.167  10.077   4.366
64388SOL     OW94937  13.856   2.571   5.856
64388SOL    HW194938  13.826   2.565   5.766
64388SOL    HW294939  13.890   2.483   5.875
64389SOL     OW94940   2.013   0.017   8.315
64389SOL    HW194941   2.054  14.818   8.282
64389SOL    HW294942   1.921   0.008   8.290
64390SOL     OW94943   8.085   0.323   6.710
64390SOL    HW194944   7.998   0.284   6.701
64390SOL    HW294945   8.080   0.403   6.657
64391SOL     OW94946  12.730   2.401   9.805
64391SOL    HW194947  12.785   2.443   9.740
64391SOL    HW294948  12.780   2.324   9.833
64392SOL     OW94949  10.210  14.359   6.712
64392SOL    HW194950  10.303  14.355   6.690
64392SOL    HW294951  10.205  14.318   6.799
64393SOL     OW94952   9.892   7.430   6.914
64393SOL    HW194953   9.897   7.336   6.932
64393SOL    HW294954   9.975   7.451   6.871
64394SOL     OW94955   8.946   4.117   4.922
64394SOL    HW194956   8.967   4.203   4.959
64394SOL    HW294957   8.876   4.083   4.978
64395SOL     OW94958  13.352   7.818   6.469
64395SOL    HW194959  13.439   7.782   6.452
64395SOL    HW294960  13.294   7.742   6.470
64396SOL     OW94961  13.134   1.979  14.270
64396SOL    HW194962  13.144   1.884  14.265
64396SOL    HW294963  13.216   2.010  14.309
64397SOL     OW94964   5.841  10.426   6.600
64397SOL    HW194965   5.845  10.335   6.630
64397SOL    HW294966   5.797  10.472   6.670
64398SOL     OW94967  13.644  12.494   6.888
64398SOL    HW194968  13.713  12.441   6.847
64398SOL    HW294969  13.685  12.529   6.968
64399SOL     OW94970   9.411   7.059  10.202
64399SOL    HW194971   9.325   7.018  10.213
64399SOL    HW294972   9.415   7.125  10.270
64400SOL     OW94973   5.925   8.753   9.810
64400SOL    HW194974   5.983   8.735   9.885
64400SOL    HW294975   5.852   8.803   9.848
64401SOL     OW94976  14.855   7.897  10.237
64401SOL    HW194977  14.870   7.924  10.146
64401SOL    HW294978  14.760   7.887  10.243
64402SOL     OW94979  10.309   9.430   7.134
64402SOL    HW194980  10.315   9.465   7.044
64402SOL    HW294981  10.231   9.375   7.133
64403SOL     OW94982   0.553   0.769   8.372
64403SOL    HW194983   0.559   0.674   8.375
64403SOL    HW294984   0.568   0.792   8.280
64404SOL     OW94985   6.420   1.808   9.686
64404SOL    HW194986   6.472   1.765   9.755
64404SOL    HW294987   6.432   1.902   9.702
64405SOL     OW94988   7.394   7.182   4.153
64405SOL    HW194989   7.356   7.094   4.159
64405SOL    HW294990   7.353   7.221   4.075
64406SOL     OW94991   8.715   6.141  11.025
64406SOL    HW194992   8.743   6.232  11.022
64406SOL    HW294993   8.703   6.116  10.933
64407SOL     OW94994   1.470   3.501   8.068
64407SOL    HW194995   1.499   3.556   8.141
64407SOL    HW294996   1.477   3.558   7.991
64408SOL     OW94997  12.240  13.431   7.376
64408SOL    HW194998  12.324  13.384   7.374
64408SOL    HW294999  12.180  13.369   7.418
64409SOL     OW95000  10.463   7.699  13.672
64409SOL    HW195001  10.443   7.779  13.720
64409SOL    HW295002  10.377   7.660  13.654
64410SOL     OW95003   4.125  13.919  11.671
64410SOL    HW195004   4.172  13.999  11.649
64410SOL    HW295005   4.102  13.880  11.587
64411SOL     OW95006  10.238   8.704  10.609
64411SOL    HW195007  10.191   8.621  10.612
64411SOL    HW295008  10.218   8.746  10.692
64412SOL     OW95009   0.849   9.984  10.639
64412SOL    HW195010   0.759   9.951  10.642
64412SOL    HW295011   0.865  10.019  10.727
64413SOL     OW95012  10.293   5.888  14.612
64413SOL    HW195013  10.349   5.899  14.689
64413SOL    HW295014  10.205   5.877  14.648
64414SOL     OW95015   6.406  10.124   2.663
64414SOL    HW195016   6.457  10.097   2.587
64414SOL    HW295017   6.315  10.109   2.637
64415SOL     OW95018   2.870  14.409   2.006
64415SOL    HW195019   2.840  14.499   1.996
64415SOL    HW295020   2.960  14.410   1.974
64416SOL     OW95021   1.989  10.392  10.657
64416SOL    HW195022   1.982  10.334  10.581
64416SOL    HW295023   1.899  10.414  10.679
64417SOL     OW95024   0.647   7.225   5.589
64417SOL    HW195025   0.584   7.153   5.585
64417SOL    HW295026   0.718   7.192   5.643
64418SOL     OW95027   8.943   2.267   3.022
64418SOL    HW195028   8.964   2.294   2.933
64418SOL    HW295029   8.852   2.293   3.035
64419SOL     OW95030  11.278   9.847   3.957
64419SOL    HW195031  11.361   9.890   3.933
64419SOL    HW295032  11.265   9.782   3.889
64420SOL     OW95033   7.998   8.899   7.857
64420SOL    HW195034   7.946   8.904   7.937
64420SOL    HW295035   8.018   8.990   7.836
64421SOL     OW95036   7.704   8.223   9.086
64421SOL    HW195037   7.677   8.315   9.085
64421SOL    HW295038   7.794   8.224   9.119
64422SOL     OW95039   6.221   1.189  12.955
64422SOL    HW195040   6.157   1.239  13.007
64422SOL    HW295041   6.306   1.213  12.992
64423SOL     OW95042  10.381  11.624   3.869
64423SOL    HW195043  10.335  11.611   3.786
64423SOL    HW295044  10.428  11.706   3.858
64424SOL     OW95045   9.030   0.559   4.242
64424SOL    HW195046   9.058   0.499   4.173
64424SOL    HW295047   9.029   0.505   4.321
64425SOL     OW95048  14.818  10.176   5.834
64425SOL    HW195049  14.781  10.114   5.772
64425SOL    HW295050   0.012  10.130   5.872
64426SOL     OW95051  11.679   0.425   6.620
64426SOL    HW195052  11.767   0.435   6.585
64426SOL    HW295053  11.621   0.452   6.548
64427SOL     OW95054  14.369  14.298   0.104
64427SOL    HW195055  14.278  14.273   0.121
64427SOL    HW295056  14.384  14.270   0.013
64428SOL     OW95057  10.420   1.045   3.840
64428SOL    HW195058  10.406   0.991   3.918
64428SOL    HW295059  10.380   0.994   3.769
64429SOL     OW95060   0.886   7.772   0.371
64429SOL    HW195061   0.858   7.765   0.462
64429SOL    HW295062   0.962   7.831   0.374
64430SOL     OW95063   0.355  13.784  11.187
64430SOL    HW195064   0.372  13.791  11.093
64430SOL    HW295065   0.363  13.873  11.219
64431SOL     OW95066   6.566  14.526   0.067
64431SOL    HW195067   6.508  14.599   0.090
64431SOL    HW295068   6.541  14.502  14.859
64432SOL     OW95069   4.090   4.503   1.738
64432SOL    HW195070   4.168   4.484   1.790
64432SOL    HW295071   4.049   4.577   1.783
64433SOL     OW95072  14.327   2.983   8.450
64433SOL    HW195073  14.265   2.978   8.377
64433SOL    HW295074  14.404   3.025   8.413
64434SOL     OW95075   1.823   7.643  12.589
64434SOL    HW195076   1.841   7.609  12.501
64434SOL    HW295077   1.844   7.736  12.584
64435SOL     OW95078  14.050  14.052   4.840
64435SOL    HW195079  13.956  14.064   4.823
64435SOL    HW295080  14.069  14.112   4.912
64436SOL     OW95081   7.332   8.645  11.138
64436SOL    HW195082   7.398   8.585  11.102
64436SOL    HW295083   7.251   8.594  11.137
64437SOL     OW95084   5.657   1.242   2.977
64437SOL    HW195085   5.709   1.268   3.053
64437SOL    HW295086   5.713   1.180   2.930
64438SOL     OW95087  12.771  14.789   2.412
64438SOL    HW195088  12.689  14.763   2.371
64438SOL    HW295089  12.780  14.730   2.487
64439SOL     OW95090   7.659  14.482   0.065
64439SOL    HW195091   7.636  14.426  14.871
64439SOL    HW295092   7.754  14.483   0.066
64440SOL     OW95093   6.961   5.547   3.592
64440SOL    HW195094   7.010   5.617   3.636
64440SOL    HW295095   7.016   5.469   3.603
64441SOL     OW95096  10.434   1.611  11.619
64441SOL    HW195097  10.442   1.657  11.535
64441SOL    HW295098  10.384   1.671  11.674
64442SOL     OW95099   1.867  10.578  10.426
64442SOL    HW195100   1.914  10.607  10.503
64442SOL    HW295101   1.934  10.539  10.370
64443SOL     OW95102  10.175   4.909   5.356
64443SOL    HW195103  10.098   4.944   5.400
64443SOL    HW295104  10.210   4.982   5.305
64444SOL     OW95105   3.632  11.469  11.714
64444SOL    HW195106   3.631  11.374  11.727
64444SOL    HW295107   3.722  11.490  11.689
64445SOL     OW95108   5.129   9.518  11.131
64445SOL    HW195109   5.129   9.613  11.126
64445SOL    HW295110   5.042   9.496  11.166
64446SOL     OW95111  13.526   0.777   7.487
64446SOL    HW195112  13.492   0.704   7.436
64446SOL    HW295113  13.513   0.750   7.578
64447SOL     OW95114  14.043   0.852   9.896
64447SOL    HW195115  14.124   0.854   9.947
64447SOL    HW295116  13.973   0.860   9.961
64448SOL     OW95117   1.648   6.703   3.762
64448SOL    HW195118   1.615   6.779   3.811
64448SOL    HW295119   1.679   6.739   3.680
64449SOL     OW95120   5.191   3.843   2.085
64449SOL    HW195121   5.204   3.937   2.070
64449SOL    HW295122   5.174   3.836   2.179
64450SOL     OW95123  14.612   3.089  10.809
64450SOL    HW195124  14.602   2.993  10.811
64450SOL    HW295125  14.522   3.122  10.797
64451SOL     OW95126   3.797   7.022   8.557
64451SOL    HW195127   3.711   6.988   8.530
64451SOL    HW295128   3.777   7.100   8.608
64452SOL     OW95129   0.472   0.544   7.304
64452SOL    HW195130   0.487   0.466   7.251
64452SOL    HW295131   0.381   0.568   7.287
64453SOL     OW95132   3.605  14.542  13.218
64453SOL    HW195133   3.567  14.606  13.159
64453SOL    HW295134   3.534  14.481  13.237
64454SOL     OW95135   3.729  14.733  12.756
64454SOL    HW195136   3.692  14.650  12.789
64454SOL    HW295137   3.772  14.708  12.674
64455SOL     OW95138  10.489   1.604   9.461
64455SOL    HW195139  10.537   1.521   9.458
64455SOL    HW295140  10.507   1.638   9.549
64456SOL     OW95141   6.028   2.996   0.841
64456SOL    HW195142   5.940   3.003   0.878
64456SOL    HW295143   6.082   2.969   0.914
64457SOL     OW95144  11.266   2.831   4.507
64457SOL    HW195145  11.212   2.804   4.581
64457SOL    HW295146  11.353   2.847   4.545
64458SOL     OW95147  14.151   1.138  10.476
64458SOL    HW195148  14.226   1.088  10.443
64458SOL    HW295149  14.089   1.072  10.505
64459SOL     OW95150  10.333  13.629   8.656
64459SOL    HW195151  10.352  13.686   8.582
64459SOL    HW295152  10.361  13.542   8.628
64460SOL     OW95153   0.216  14.637   1.042
64460SOL    HW195154   0.296  14.607   0.999
64460SOL    HW295155   0.146  14.583   1.005
64461SOL     OW95156   5.695   9.054   6.244
64461SOL    HW195157   5.739   9.107   6.311
64461SOL    HW295158   5.683   8.969   6.285
64462SOL     OW95159   7.885  13.538   6.462
64462SOL    HW195160   7.862  13.445   6.462
64462SOL    HW295161   7.923  13.553   6.549
64463SOL     OW95162  13.768   3.170   6.493
64463SOL    HW195163  13.757   3.255   6.536
64463SOL    HW295164  13.847   3.132   6.533
64464SOL     OW95165   4.963  13.496  12.165
64464SOL    HW195166   5.052  13.467  12.143
64464SOL    HW295167   4.971  13.591  12.178
64465SOL     OW95168  12.238   3.367   7.776
64465SOL    HW195169  12.161   3.353   7.721
64465SOL    HW295170  12.207   3.349   7.865
64466SOL     OW95171   0.897   6.054   1.760
64466SOL    HW195172   0.985   6.016   1.768
64466SOL    HW295173   0.907   6.144   1.790
64467SOL     OW95174   6.480   4.487   2.814
64467SOL    HW195175   6.561   4.527   2.781
64467SOL    HW295176   6.480   4.506   2.908
64468SOL     OW95177   1.641   0.048  10.265
64468SOL    HW195178   1.602   0.135  10.274
64468SOL    HW295179   1.655   0.019  10.355
64469SOL     OW95180   8.001   6.322   7.280
64469SOL    HW195181   8.029   6.392   7.222
64469SOL    HW295182   8.058   6.248   7.257
64470SOL     OW95183   8.194   6.806   4.773
64470SOL    HW195184   8.188   6.879   4.712
64470SOL    HW295185   8.131   6.828   4.842
64471SOL     OW95186   2.604   8.998   1.267
64471SOL    HW195187   2.627   9.080   1.223
64471SOL    HW295188   2.516   8.978   1.236
64472SOL     OW95189   8.421  10.887  10.843
64472SOL    HW195190   8.501  10.888  10.896
64472SOL    HW295191   8.452  10.871  10.754
64473SOL     OW95192   3.895   2.332   3.922
64473SOL    HW195193   3.927   2.242   3.928
64473SOL    HW295194   3.800   2.324   3.917
64474SOL     OW95195  14.576  12.031   5.784
64474SOL    HW195196  14.566  11.936   5.782
64474SOL    HW295197  14.487  12.065   5.775
64475SOL     OW95198   6.257   7.224   0.430
64475SOL    HW195199   6.225   7.287   0.495
64475SOL    HW295200   6.222   7.140   0.458
64476SOL     OW95201  11.955  10.564   3.921
64476SOL    HW195202  12.020  10.621   3.964
64476SOL    HW295203  11.871  10.601   3.946
64477SOL     OW95204   9.626   2.635  14.530
64477SOL    HW195205   9.662   2.560  14.577
64477SOL    HW295206   9.692   2.704  14.541
64478SOL     OW95207  10.480  13.869   9.232
64478SOL    HW195208  10.513  13.796   9.285
64478SOL    HW295209  10.403  13.901   9.279
64479SOL     OW95210   3.006   9.020  10.678
64479SOL    HW195211   3.061   8.942  10.672
64479SOL    HW295212   3.068   9.093  10.677
64480SOL     OW95213   7.730   3.615  10.079
64480SOL    HW195214   7.786   3.655  10.145
64480SOL    HW295215   7.646   3.660  10.087
64481SOL     OW95216  14.405   7.949   9.363
64481SOL    HW195217  14.418   7.966   9.270
64481SOL    HW295218  14.473   7.886   9.386
64482SOL     OW95219   2.147  14.030  11.289
64482SOL    HW195220   2.190  13.986  11.216
64482SOL    HW295221   2.053  14.024  11.270
64483SOL     OW95222  12.273  14.849   7.489
64483SOL    HW195223  12.322  14.854   7.571
64483SOL    HW295224  12.287   0.053   7.448
64484SOL     OW95225   4.484   3.615  10.967
64484SOL    HW195226   4.432   3.684  10.925
64484SOL    HW295227   4.447   3.608  11.055
64485SOL     OW95228  14.313   5.233   8.971
64485SOL    HW195229  14.265   5.225   8.888
64485SOL    HW295230  14.254   5.194   9.036
64486SOL     OW95231   5.614  10.672   9.448
64486SOL    HW195232   5.543  10.725   9.484
64486SOL    HW295233   5.582  10.582   9.456
64487SOL     OW95234   9.497   2.934   2.887
64487SOL    HW195235   9.463   3.015   2.848
64487SOL    HW295236   9.456   2.864   2.836
64488SOL     OW95237   5.006   4.171   3.698
64488SOL    HW195238   5.096   4.172   3.666
64488SOL    HW295239   4.964   4.246   3.656
64489SOL     OW95240  11.216   7.814  13.840
64489SOL    HW195241  11.136   7.825  13.893
64489SOL    HW295242  11.190   7.839  13.752
64490SOL     OW95243   2.476   3.353  13.713
64490SOL    HW195244   2.407   3.415  13.690
64490SOL    HW295245   2.489   3.301  13.633
64491SOL     OW95246  13.878   5.346  11.378
64491SOL    HW195247  13.927   5.427  11.393
64491SOL    HW295248  13.803   5.353  11.438
64492SOL     OW95249   2.606   6.957  11.389
64492SOL    HW195250   2.543   6.932  11.321
64492SOL    HW295251   2.571   7.039  11.425
64493SOL     OW95252  13.730   6.734   2.021
64493SOL    HW195253  13.770   6.673   2.083
64493SOL    HW295254  13.801   6.761   1.963
64494SOL     OW95255   1.726   5.143   2.853
64494SOL    HW195256   1.795   5.194   2.811
64494SOL    HW295257   1.646   5.193   2.836
64495SOL     OW95258  11.007   7.836  10.054
64495SOL    HW195259  11.102   7.823  10.051
64495SOL    HW295260  10.971   7.747  10.059
64496SOL     OW95261   3.640  12.061  14.781
64496SOL    HW195262   3.684  12.132  14.827
64496SOL    HW295263   3.608  12.101  14.700
64497SOL     OW95264   2.704   9.644  11.007
64497SOL    HW195265   2.667   9.657  11.095
64497SOL    HW295266   2.627   9.640  10.950
64498SOL     OW95267   0.032  11.740  14.410
64498SOL    HW195268   0.008  11.810  14.471
64498SOL    HW295269   0.114  11.769  14.371
64499SOL     OW95270   7.342   6.608   9.497
64499SOL    HW195271   7.297   6.664   9.560
64499SOL    HW295272   7.435   6.629   9.507
64500SOL     OW95273  11.995   7.960   4.637
64500SOL    HW195274  12.073   7.918   4.600
64500SOL    HW295275  11.933   7.962   4.564
64501SOL     OW95276  11.697  11.862   9.764
64501SOL    HW195277  11.614  11.903   9.742
64501SOL    HW295278  11.759  11.934   9.771
64502SOL     OW95279   5.120  12.922   0.999
64502SOL    HW195280   5.207  12.923   0.960
64502SOL    HW295281   5.060  12.935   0.925
64503SOL     OW95282  11.229   8.386   9.554
64503SOL    HW195283  11.176   8.441   9.496
64503SOL    HW295284  11.293   8.446   9.592
64504SOL     OW95285  11.088   3.027  14.146
64504SOL    HW195286  11.040   3.090  14.200
64504SOL    HW295287  11.020   2.978  14.101
64505SOL     OW95288   2.339   8.056   1.999
64505SOL    HW195289   2.282   8.035   1.925
64505SOL    HW295290   2.425   8.070   1.961
64506SOL     OW95291   8.619   6.836   0.357
64506SOL    HW195292   8.701   6.844   0.405
64506SOL    HW295293   8.608   6.919   0.312
64507SOL     OW95294   1.169  13.757   0.227
64507SOL    HW195295   1.185  13.799   0.312
64507SOL    HW295296   1.088  13.798   0.195
64508SOL     OW95297   0.053   3.712   6.584
64508SOL    HW195298   0.129   3.714   6.642
64508SOL    HW295299  14.872   3.771   6.625
64509SOL     OW95300   2.127  12.790   2.389
64509SOL    HW195301   2.218  12.812   2.407
64509SOL    HW295302   2.082  12.803   2.472
64510SOL     OW95303   0.836   2.515  12.995
64510SOL    HW195304   0.758   2.560  13.029
64510SOL    HW295305   0.909   2.560  13.037
64511SOL     OW95306  10.524   5.719   9.987
64511SOL    HW195307  10.484   5.673   9.914
64511SOL    HW295308  10.462   5.708  10.059
64512SOL     OW95309   7.202   0.960   3.088
64512SOL    HW195310   7.117   1.001   3.071
64512SOL    HW295311   7.238   0.943   3.001
64513SOL     OW95312  10.188  10.455  11.835
64513SOL    HW195313  10.110  10.399  11.833
64513SOL    HW295314  10.241  10.425  11.761
64514SOL     OW95315  11.651   0.651  13.810
64514SOL    HW195316  11.567   0.689  13.833
64514SOL    HW295317  11.680   0.606  13.890
64515SOL     OW95318  12.660   1.141   7.637
64515SOL    HW195319  12.669   1.120   7.544
64515SOL    HW295320  12.749   1.139   7.672
64516SOL     OW95321  13.773   4.320   3.796
64516SOL    HW195322  13.764   4.361   3.710
64516SOL    HW295323  13.845   4.367   3.837
64517SOL     OW95324  10.466   1.117  12.580
64517SOL    HW195325  10.441   1.050  12.644
64517SOL    HW295326  10.469   1.198  12.630
64518SOL     OW95327   0.262   1.748   9.704
64518SOL    HW195328   0.191   1.702   9.749
64518SOL    HW295329   0.301   1.682   9.646
64519SOL     OW95330   6.093  10.470  10.236
64519SOL    HW195331   6.075  10.377  10.249
64519SOL    HW295332   6.179  10.484  10.277
64520SOL     OW95333   8.454   4.154   1.165
64520SOL    HW195334   8.387   4.209   1.206
64520SOL    HW295335   8.410   4.116   1.089
64521SOL     OW95336   4.036   3.924   1.677
64521SOL    HW195337   3.996   3.930   1.764
64521SOL    HW295338   4.126   3.952   1.690
64522SOL     OW95339   8.797  11.857   4.040
64522SOL    HW195340   8.863  11.793   4.065
64522SOL    HW295341   8.716  11.806   4.031
64523SOL     OW95342  11.576   6.059  10.443
64523SOL    HW195343  11.597   6.131  10.383
64523SOL    HW295344  11.608   5.980  10.399
64524SOL     OW95345   8.677   0.612  11.071
64524SOL    HW195346   8.596   0.648  11.035
64524SOL    HW295347   8.702   0.675  11.139
64525SOL     OW95348   2.333   8.106   7.650
64525SOL    HW195349   2.252   8.094   7.600
64525SOL    HW295350   2.399   8.059   7.600
64526SOL     OW95351   7.969   5.423   2.500
64526SOL    HW195352   7.908   5.469   2.444
64526SOL    HW295353   7.915   5.390   2.572
64527SOL     OW95354   2.833   8.752   1.265
64527SOL    HW195355   2.749   8.758   1.311
64527SOL    HW295356   2.871   8.840   1.274
64528SOL     OW95357   4.910  13.948   2.034
64528SOL    HW195358   4.815  13.957   2.037
64528SOL    HW295359   4.940  14.025   1.984
64529SOL     OW95360   2.975   0.783   6.585
64529SOL    HW195361   3.019   0.750   6.506
64529SOL    HW295362   2.918   0.711   6.612
64530SOL     OW95363   0.502  13.729   7.173
64530SOL    HW195364   0.436  13.795   7.149
64530SOL    HW295365   0.504  13.732   7.269
64531SOL     OW95366   7.329  14.844   4.622
64531SOL    HW195367   7.250  14.848   4.677
64531SOL    HW295368   7.315   0.029   4.555
64532SOL     OW95369   2.288   0.925   5.649
64532SOL    HW195370   2.225   0.941   5.579
64532SOL    HW295371   2.236   0.890   5.721
64533SOL     OW95372  13.567  13.353   1.678
64533SOL    HW195373  13.535  13.440   1.657
64533SOL    HW295374  13.581  13.354   1.772
64534SOL     OW95375   4.536   9.760   4.984
64534SOL    HW195376   4.442   9.750   5.001
64534SOL    HW295377   4.577   9.745   5.070
64535SOL     OW95378  10.952   5.439   3.527
64535SOL    HW195379  11.014   5.511   3.527
64535SOL    HW295380  10.914   5.440   3.615
64536SOL     OW95381   5.930   4.408   5.951
64536SOL    HW195382   5.878   4.378   5.877
64536SOL    HW295383   5.915   4.342   6.019
64537SOL     OW95384   2.067  11.990   0.292
64537SOL    HW195385   2.086  11.897   0.297
64537SOL    HW295386   2.032  12.013   0.377
64538SOL     OW95387   1.026  13.023  11.591
64538SOL    HW195388   1.110  13.029  11.636
64538SOL    HW295389   1.018  13.105  11.543
64539SOL     OW95390  12.348  10.141  13.744
64539SOL    HW195391  12.405  10.079  13.790
64539SOL    HW295392  12.408  10.208  13.710
64540SOL     OW95393   8.878   9.890  13.709
64540SOL    HW195394   8.953   9.944  13.682
64540SOL    HW295395   8.825   9.881  13.630
64541SOL     OW95396   1.483   5.947   2.029
64541SOL    HW195397   1.429   5.876   1.993
64541SOL    HW295398   1.551   5.902   2.080
64542SOL     OW95399  11.990  12.810  12.510
64542SOL    HW195400  11.897  12.829  12.495
64542SOL    HW295401  11.999  12.716  12.492
64543SOL     OW95402  12.374   8.025  14.416
64543SOL    HW195403  12.355   8.117  14.398
64543SOL    HW295404  12.400   7.989  14.331
64544SOL     OW95405   4.372  10.741   9.834
64544SOL    HW195406   4.428  10.698   9.899
64544SOL    HW295407   4.377  10.684   9.757
64545SOL     OW95408   0.177   2.211   3.114
64545SOL    HW195409   0.135   2.125   3.116
64545SOL    HW295410   0.107   2.272   3.090
64546SOL     OW95411   9.153  12.413   8.632
64546SOL    HW195412   9.075  12.462   8.608
64546SOL    HW295413   9.158  12.342   8.568
64547SOL     OW95414   2.065   3.843  13.355
64547SOL    HW195415   2.012   3.832  13.276
64547SOL    HW295416   2.054   3.935  13.378
64548SOL     OW95417   8.361   9.642  14.355
64548SOL    HW195418   8.383   9.553  14.325
64548SOL    HW295419   8.444   9.690  14.350
64549SOL     OW95420   5.909   3.137  12.185
64549SOL    HW195421   5.815   3.144  12.201
64549SOL    HW295422   5.948   3.201  12.245
64550SOL     OW95423   9.688   0.470   1.342
64550SOL    HW195424   9.744   0.464   1.420
64550SOL    HW295425   9.719   0.399   1.286
64551SOL     OW95426   9.970  12.785   4.183
64551SOL    HW195427   9.925  12.772   4.266
64551SOL    HW295428  10.060  12.757   4.199
64552SOL     OW95429   6.931  10.370   2.350
64552SOL    HW195430   6.875  10.316   2.295
64552SOL    HW295431   6.972  10.308   2.411
64553SOL     OW95432   2.986  10.166   0.983
64553SOL    HW195433   3.073  10.195   1.009
64553SOL    HW295434   2.968  10.090   1.039
64554SOL     OW95435   4.742   4.118   4.806
64554SOL    HW195436   4.793   4.102   4.885
64554SOL    HW295437   4.709   4.207   4.816
64555SOL     OW95438   1.358   9.329   2.557
64555SOL    HW195439   1.427   9.369   2.504
64555SOL    HW295440   1.339   9.394   2.625
64556SOL     OW95441   5.701  12.941   8.822
64556SOL    HW195442   5.658  12.918   8.740
64556SOL    HW295443   5.761  12.869   8.840
64557SOL     OW95444   4.454   4.720   5.793
64557SOL    HW195445   4.402   4.779   5.847
64557SOL    HW295446   4.445   4.754   5.704
64558SOL     OW95447  12.831   3.073   1.884
64558SOL    HW195448  12.886   2.998   1.905
64558SOL    HW295449  12.760   3.037   1.830
64559SOL     OW95450  11.138   3.795   7.084
64559SOL    HW195451  11.090   3.713   7.095
64559SOL    HW295452  11.138   3.834   7.172
64560SOL     OW95453  12.122   4.838  12.770
64560SOL    HW195454  12.093   4.920  12.810
64560SOL    HW295455  12.107   4.772  12.837
64561SOL     OW95456  12.089  11.097   7.884
64561SOL    HW195457  12.029  11.024   7.870
64561SOL    HW295458  12.034  11.167   7.921
64562SOL     OW95459   8.879   6.747   1.342
64562SOL    HW195460   8.903   6.664   1.383
64562SOL    HW295461   8.935   6.812   1.384
64563SOL     OW95462   9.558  12.554  11.308
64563SOL    HW195463   9.507  12.634  11.309
64563SOL    HW295464   9.645  12.580  11.335
64564SOL     OW95465   5.758   1.827   7.669
64564SOL    HW195466   5.806   1.766   7.725
64564SOL    HW295467   5.687   1.773   7.632
64565SOL     OW95468  10.373  14.308   2.811
64565SOL    HW195469  10.308  14.248   2.848
64565SOL    HW295470  10.446  14.251   2.787
64566SOL     OW95471   9.745   5.943   8.370
64566SOL    HW195472   9.720   5.858   8.405
64566SOL    HW295473   9.749   6.000   8.447
64567SOL     OW95474   4.465   9.814   8.005
64567SOL    HW195475   4.477   9.888   8.064
64567SOL    HW295476   4.537   9.755   8.026
64568SOL     OW95477   7.077   7.698   5.941
64568SOL    HW195478   7.075   7.627   6.004
64568SOL    HW295479   7.042   7.774   5.989
64569SOL     OW95480   4.834   0.635  12.875
64569SOL    HW195481   4.879   0.600  12.951
64569SOL    HW295482   4.867   0.724  12.865
64570SOL     OW95483  11.010   5.527   7.615
64570SOL    HW195484  11.043   5.587   7.549
64570SOL    HW295485  11.078   5.461   7.625
64571SOL     OW95486   5.313   4.975   7.721
64571SOL    HW195487   5.308   4.893   7.769
64571SOL    HW295488   5.396   4.971   7.673
64572SOL     OW95489   6.715   4.699   1.861
64572SOL    HW195490   6.806   4.711   1.888
64572SOL    HW295491   6.706   4.753   1.782
64573SOL     OW95492   0.379  13.031   5.830
64573SOL    HW195493   0.404  12.954   5.779
64573SOL    HW295494   0.436  13.029   5.906
64574SOL     OW95495  14.773   1.885  11.810
64574SOL    HW195496  14.828   1.807  11.815
64574SOL    HW295497  14.687   1.856  11.843
64575SOL     OW95498   9.997   0.048   2.796
64575SOL    HW195499  10.002   0.099   2.877
64575SOL    HW295500  10.024   0.108   2.727
64576SOL     OW95501  14.040   1.191   3.946
64576SOL    HW195502  13.951   1.203   3.914
64576SOL    HW295503  14.033   1.122   4.012
64577SOL     OW95504   4.614  10.702  11.279
64577SOL    HW195505   4.693  10.750  11.304
64577SOL    HW295506   4.548  10.729  11.343
64578SOL     OW95507  13.767  12.267   9.794
64578SOL    HW195508  13.770  12.317   9.876
64578SOL    HW295509  13.848  12.292   9.748
64579SOL     OW95510  12.015   5.550  12.976
64579SOL    HW195511  11.949   5.579  13.039
64579SOL    HW295512  12.037   5.629  12.926
64580SOL     OW95513  14.271   9.875   4.849
64580SOL    HW195514  14.348   9.843   4.802
64580SOL    HW295515  14.303   9.950   4.900
64581SOL     OW95516   2.581   9.055  11.008
64581SOL    HW195517   2.574   9.041  11.102
64581SOL    HW295518   2.674   9.046  10.988
64582SOL     OW95519  10.226   7.480   3.731
64582SOL    HW195520  10.131   7.473   3.726
64582SOL    HW295521  10.242   7.563   3.776
64583SOL     OW95522  11.396   3.382   2.304
64583SOL    HW195523  11.321   3.339   2.345
64583SOL    HW295524  11.362   3.467   2.275
64584SOL     OW95525  11.704   1.766   0.211
64584SOL    HW195526  11.630   1.774   0.271
64584SOL    HW295527  11.777   1.807   0.259
64585SOL     OW95528   8.772   1.542   8.270
64585SOL    HW195529   8.796   1.630   8.297
64585SOL    HW295530   8.853   1.491   8.278
64586SOL     OW95531   7.777  12.420   9.283
64586SOL    HW195532   7.706  12.477   9.252
64586SOL    HW295533   7.819  12.470   9.353
64587SOL     OW95534  10.278   8.812  12.687
64587SOL    HW195535  10.353   8.837  12.740
64587SOL    HW295536  10.205   8.865  12.721
64588SOL     OW95537   7.756  12.468  11.570
64588SOL    HW195538   7.730  12.376  11.576
64588SOL    HW295539   7.844  12.466  11.534
64589SOL     OW95540   1.199   0.923   3.474
64589SOL    HW195541   1.243   0.908   3.558
64589SOL    HW295542   1.158   1.009   3.485
64590SOL     OW95543   7.230   2.795  13.664
64590SOL    HW195544   7.195   2.714  13.628
64590SOL    HW295545   7.323   2.779  13.674
64591SOL     OW95546   3.532   9.748   9.332
64591SOL    HW195547   3.612   9.764   9.381
64591SOL    HW295548   3.468   9.809   9.370
64592SOL     OW95549  13.549   4.861   3.446
64592SOL    HW195550  13.542   4.896   3.535
64592SOL    HW295551  13.575   4.936   3.393
64593SOL     OW95552   0.422  14.870  10.379
64593SOL    HW195553   0.497   0.024  10.427
64593SOL    HW295554   0.377  14.815  10.443
64594SOL     OW95555   3.869   9.302  11.871
64594SOL    HW195556   3.812   9.230  11.897
64594SOL    HW295557   3.810   9.373  11.846
64595SOL     OW95558  11.952   5.376   6.986
64595SOL    HW195559  12.039   5.403   7.016
64595SOL    HW295560  11.927   5.307   7.047
64596SOL     OW95561   4.712   1.642   2.206
64596SOL    HW195562   4.651   1.642   2.280
64596SOL    HW295563   4.777   1.575   2.228
64597SOL     OW95564   7.558   9.391  13.856
64597SOL    HW195565   7.466   9.394  13.830
64597SOL    HW295566   7.590   9.307  13.823
64598SOL     OW95567   7.791   9.955   8.729
64598SOL    HW195568   7.854   9.966   8.658
64598SOL    HW295569   7.800   9.863   8.756
64599SOL     OW95570   4.119   4.444   1.187
64599SOL    HW195571   4.085   4.437   1.098
64599SOL    HW295572   4.180   4.371   1.195
64600SOL     OW95573  12.645   7.366   6.770
64600SOL    HW195574  12.593   7.378   6.690
64600SOL    HW295575  12.702   7.292   6.750
64601SOL     OW95576   4.187   1.350   4.295
64601SOL    HW195577   4.119   1.397   4.344
64601SOL    HW295578   4.182   1.386   4.207
64602SOL     OW95579   3.862   1.153   1.631
64602SOL    HW195580   3.810   1.078   1.602
64602SOL    HW295581   3.815   1.229   1.598
64603SOL     OW95582   2.818   8.948  10.869
64603SOL    HW195583   2.898   8.980  10.827
64603SOL    HW295584   2.771   8.902  10.800
64604SOL     OW95585   2.744  11.032  10.512
64604SOL    HW195586   2.823  11.005  10.466
64604SOL    HW295587   2.741  11.127  10.502
64605SOL     OW95588   2.871   1.353  13.900
64605SOL    HW195589   2.889   1.259  13.895
64605SOL    HW295590   2.940   1.387  13.958
64606SOL     OW95591   7.593  14.450   1.284
64606SOL    HW195592   7.532  14.510   1.327
64606SOL    HW295593   7.537  14.393   1.232
64607SOL     OW95594   3.548   3.472  10.849
64607SOL    HW195595   3.464   3.462  10.894
64607SOL    HW295596   3.591   3.387  10.861
64608SOL     OW95597   1.201   1.023  12.350
64608SOL    HW195598   1.255   0.944  12.348
64608SOL    HW295599   1.111   0.991  12.347
64609SOL     OW95600   4.540   2.816  13.769
64609SOL    HW195601   4.635   2.825  13.759
64609SOL    HW295602   4.518   2.740  13.715
64610SOL     OW95603   7.462   5.755   8.615
64610SOL    HW195604   7.453   5.755   8.710
64610SOL    HW295605   7.463   5.848   8.591
64611SOL     OW95606   3.342   3.476   5.052
64611SOL    HW195607   3.275   3.538   5.023
64611SOL    HW295608   3.309   3.442   5.135
64612SOL     OW95609  12.112   0.959   2.274
64612SOL    HW195610  12.021   0.984   2.291
64612SOL    HW295611  12.113   0.864   2.287
64613SOL     OW95612   4.505  12.321   6.123
64613SOL    HW195613   4.581  12.378   6.124
64613SOL    HW295614   4.450  12.353   6.195
64614SOL     OW95615  13.235  10.596  12.221
64614SOL    HW195616  13.192  10.586  12.136
64614SOL    HW295617  13.288  10.675  12.212
64615SOL     OW95618   6.039   3.899  14.183
64615SOL    HW195619   6.092   3.950  14.122
64615SOL    HW295620   6.068   3.809  14.170
64616SOL     OW95621   5.989  12.497   4.188
64616SOL    HW195622   5.930  12.422   4.197
64616SOL    HW295623   5.933  12.573   4.206
64617SOL     OW95624   1.596   2.367   9.305
64617SOL    HW195625   1.537   2.381   9.232
64617SOL    HW295626   1.682   2.395   9.273
64618SOL     OW95627   5.645   2.604  10.802
64618SOL    HW195628   5.611   2.527  10.757
64618SOL    HW295629   5.611   2.678  10.752
64619SOL     OW95630   1.444   3.207   4.496
64619SOL    HW195631   1.518   3.266   4.509
64619SOL    HW295632   1.399   3.242   4.419
64620SOL     OW95633   8.243   3.352   2.242
64620SOL    HW195634   8.148   3.341   2.240
64620SOL    HW295635   8.275   3.297   2.170
64621SOL     OW95636  13.297   3.413   0.697
64621SOL    HW195637  13.328   3.490   0.650
64621SOL    HW295638  13.334   3.339   0.649
64622SOL     OW95639   3.250  11.572  11.224
64622SOL    HW195640   3.300  11.576  11.306
64622SOL    HW295641   3.164  11.539  11.250
64623SOL     OW95642   0.282   8.215  12.896
64623SOL    HW195643   0.207   8.220  12.836
64623SOL    HW295644   0.248   8.250  12.979
64624SOL     OW95645   9.096   8.803   3.888
64624SOL    HW195646   9.168   8.773   3.832
64624SOL    HW295647   9.035   8.729   3.888
64625SOL     OW95648  14.244  13.362   4.755
64625SOL    HW195649  14.235  13.419   4.679
64625SOL    HW295650  14.259  13.422   4.828
64626SOL     OW95651  11.213  14.389  11.097
64626SOL    HW195652  11.284  14.326  11.104
64626SOL    HW295653  11.157  14.353  11.028
64627SOL     OW95654   4.009   0.323   6.841
64627SOL    HW195655   4.057   0.406   6.841
64627SOL    HW295656   4.070   0.261   6.881
64628SOL     OW95657   6.608   4.275   7.609
64628SOL    HW195658   6.595   4.368   7.631
64628SOL    HW295659   6.667   4.243   7.677
64629SOL     OW95660   5.402  13.835   1.373
64629SOL    HW195661   5.316  13.813   1.335
64629SOL    HW295662   5.390  13.921   1.413
64630SOL     OW95663  10.854   4.348  10.145
64630SOL    HW195664  10.772   4.394  10.160
64630SOL    HW295665  10.836   4.257  10.170
64631SOL     OW95666   9.260   5.605   6.882
64631SOL    HW195667   9.167   5.615   6.862
64631SOL    HW295668   9.303   5.674   6.832
64632SOL     OW95669   5.822  10.829   3.070
64632SOL    HW195670   5.806  10.899   3.133
64632SOL    HW295671   5.897  10.781   3.105
64633SOL     OW95672   9.079   2.049   3.173
64633SOL    HW195673   9.016   2.112   3.139
64633SOL    HW295674   9.054   2.037   3.264
64634SOL     OW95675  10.749   1.131   6.180
64634SOL    HW195676  10.792   1.106   6.098
64634SOL    HW295677  10.797   1.084   6.248
64635SOL     OW95678  11.808   6.313   9.180
64635SOL    HW195679  11.766   6.261   9.111
64635SOL    HW295680  11.814   6.253   9.255
64636SOL     OW95681   6.856   3.557  14.497
64636SOL    HW195682   6.796   3.498  14.543
64636SOL    HW295683   6.922   3.500  14.459
64637SOL     OW95684   0.544  13.399   8.270
64637SOL    HW195685   0.522  13.379   8.179
64637SOL    HW295686   0.492  13.337   8.322
64638SOL     OW95687   7.743   7.903   7.920
64638SOL    HW195688   7.761   7.889   7.827
64638SOL    HW295689   7.786   7.829   7.963
64639SOL     OW95690   4.528  10.360   2.728
64639SOL    HW195691   4.506  10.374   2.636
64639SOL    HW295692   4.536  10.265   2.736
64640SOL     OW95693   9.689   7.204   7.438
64640SOL    HW195694   9.748   7.181   7.366
64640SOL    HW295695   9.718   7.148   7.511
64641SOL     OW95696  14.352   4.305  14.439
64641SOL    HW195697  14.434   4.314  14.488
64641SOL    HW295698  14.289   4.359  14.488
64642SOL     OW95699   6.736  13.841  13.642
64642SOL    HW195700   6.831  13.846  13.652
64642SOL    HW295701   6.702  13.829  13.730
64643SOL     OW95702   5.328   0.758  12.476
64643SOL    HW195703   5.412   0.798  12.457
64643SOL    HW295704   5.286   0.818  12.538
64644SOL     OW95705   1.342   7.124   4.021
64644SOL    HW195706   1.262   7.077   3.999
64644SOL    HW295707   1.346   7.196   3.957
64645SOL     OW95708   6.116   8.506   2.072
64645SOL    HW195709   6.122   8.595   2.036
64645SOL    HW295710   6.179   8.455   2.022
64646SOL     OW95711   1.185   8.967  10.134
64646SOL    HW195712   1.207   9.041  10.191
64646SOL    HW295713   1.192   8.891  10.191
64647SOL     OW95714   3.022   1.445   7.826
64647SOL    HW195715   2.943   1.437   7.773
64647SOL    HW295716   2.991   1.479   7.910
64648SOL     OW95717  12.165   5.340   7.793
64648SOL    HW195718  12.232   5.396   7.832
64648SOL    HW295719  12.087   5.355   7.846
64649SOL     OW95720  12.519   2.120   7.187
64649SOL    HW195721  12.566   2.191   7.232
64649SOL    HW295722  12.478   2.070   7.258
64650SOL     OW95723  11.941  11.061  11.751
64650SOL    HW195724  12.018  11.007  11.734
64650SOL    HW295725  11.867  11.011  11.717
64651SOL     OW95726   9.070  13.874   7.079
64651SOL    HW195727   9.029  13.791   7.053
64651SOL    HW295728   9.028  13.895   7.163
64652SOL     OW95729   8.746   3.467   6.016
64652SOL    HW195730   8.766   3.400   6.081
64652SOL    HW295731   8.650   3.473   6.017
64653SOL     OW95732   2.043   5.397  12.980
64653SOL    HW195733   2.082   5.479  13.010
64653SOL    HW295734   1.949   5.408  12.995
64654SOL     OW95735   6.490   4.659   2.016
64654SOL    HW195736   6.572   4.686   1.976
64654SOL    HW295737   6.503   4.674   2.110
64655SOL     OW95738   9.431  13.025   6.676
64655SOL    HW195739   9.390  12.943   6.701
64655SOL    HW295740   9.362  13.072   6.629
64656SOL     OW95741   5.231  11.172   5.836
64656SOL    HW195742   5.306  11.151   5.780
64656SOL    HW295743   5.180  11.091   5.840
64657SOL     OW95744   7.934  14.252  12.262
64657SOL    HW195745   7.973  14.301  12.334
64657SOL    HW295746   8.000  14.254  12.193
64658SOL     OW95747   9.604   6.559   3.916
64658SOL    HW195748   9.543   6.510   3.969
64658SOL    HW295749   9.665   6.493   3.881
64659SOL     OW95750   6.204   3.905   3.412
64659SOL    HW195751   6.237   3.995   3.402
64659SOL    HW295752   6.180   3.879   3.323
64660SOL     OW95753   7.763   8.349   1.033
64660SOL    HW195754   7.720   8.315   0.955
64660SOL    HW295755   7.846   8.385   1.002
64661SOL     OW95756  11.967  10.224  12.525
64661SOL    HW195757  12.057  10.257  12.527
64661SOL    HW295758  11.928  10.266  12.449
64662SOL     OW95759   0.229   9.886   5.204
64662SOL    HW195760   0.160   9.933   5.157
64662SOL    HW295761   0.221   9.915   5.295
64663SOL     OW95762   5.571   7.824   7.606
64663SOL    HW195763   5.507   7.819   7.677
64663SOL    HW295764   5.569   7.737   7.566
64664SOL     OW95765   2.844  12.150  10.437
64664SOL    HW195766   2.937  12.127  10.443
64664SOL    HW295767   2.822  12.134  10.346
64665SOL     OW95768  14.628   6.471  12.115
64665SOL    HW195769  14.608   6.432  12.200
64665SOL    HW295770  14.724   6.466  12.109
64666SOL     OW95771   9.812  10.082   8.423
64666SOL    HW195772   9.871  10.145   8.381
64666SOL    HW295773   9.863  10.047   8.496
64667SOL     OW95774   8.049   1.604   4.139
64667SOL    HW195775   8.025   1.520   4.100
64667SOL    HW295776   7.997   1.669   4.092
64668SOL     OW95777   1.510  12.203   8.782
64668SOL    HW195778   1.418  12.182   8.799
64668SOL    HW295779   1.520  12.291   8.818
64669SOL     OW95780  14.363   1.928  10.784
64669SOL    HW195781  14.282   1.878  10.792
64669SOL    HW295782  14.366   1.981  10.864
64670SOL     OW95783   4.049  12.020   4.101
64670SOL    HW195784   4.010  12.048   4.184
64670SOL    HW295785   4.116  12.086   4.083
64671SOL     OW95786   8.918   6.375   5.518
64671SOL    HW195787   8.928   6.280   5.513
64671SOL    HW295788   8.996   6.405   5.565
64672SOL     OW95789  12.185  13.489   7.989
64672SOL    HW195790  12.202  13.518   7.900
64672SOL    HW295791  12.211  13.397   7.989
64673SOL     OW95792   2.225  12.009  10.848
64673SOL    HW195793   2.277  11.997  10.768
64673SOL    HW295794   2.250  11.935  10.903
64674SOL     OW95795   1.725   1.832  10.492
64674SOL    HW195796   1.699   1.922  10.512
64674SOL    HW295797   1.808   1.821  10.537
64675SOL     OW95798  13.870  14.851  14.233
64675SOL    HW195799  13.910  14.764  14.233
64675SOL    HW295800  13.793  14.841  14.289
64676SOL     OW95801   6.726   9.438   9.727
64676SOL    HW195802   6.643   9.472   9.694
64676SOL    HW295803   6.753   9.374   9.661
64677SOL     OW95804   7.170  11.554   4.213
64677SOL    HW195805   7.203  11.470   4.182
64677SOL    HW295806   7.076  11.552   4.193
64678SOL     OW95807  10.557   8.682   5.993
64678SOL    HW195808  10.529   8.618   6.060
64678SOL    HW295809  10.623   8.735   6.038
64679SOL     OW95810   5.152   8.652   5.384
64679SOL    HW195811   5.109   8.680   5.303
64679SOL    HW295812   5.237   8.695   5.382
64680SOL     OW95813  14.000  14.005   8.019
64680SOL    HW195814  14.010  13.993   8.114
64680SOL    HW295815  13.905  14.012   8.006
64681SOL     OW95816   0.948   3.446   8.145
64681SOL    HW195817   1.042   3.432   8.135
64681SOL    HW295818   0.926   3.510   8.078
64682SOL     OW95819  14.681   7.177   5.174
64682SOL    HW195820  14.627   7.246   5.213
64682SOL    HW295821  14.767   7.218   5.162
64683SOL     OW95822  14.509   2.864   1.649
64683SOL    HW195823  14.565   2.866   1.571
64683SOL    HW295824  14.488   2.956   1.665
64684SOL     OW95825  12.406  11.656   9.906
64684SOL    HW195826  12.364  11.630   9.988
64684SOL    HW295827  12.417  11.751   9.915
64685SOL     OW95828   0.444  12.216   5.441
64685SOL    HW195829   0.456  12.260   5.358
64685SOL    HW295830   0.529  12.224   5.485
64686SOL     OW95831   5.810   6.212   4.293
64686SOL    HW195832   5.756   6.141   4.327
64686SOL    HW295833   5.754   6.289   4.297
64687SOL     OW95834   0.182   7.080  10.876
64687SOL    HW195835   0.100   7.045  10.913
64687SOL    HW295836   0.245   7.074  10.948
64688SOL     OW95837  10.277   0.682  10.579
64688SOL    HW195838  10.348   0.689  10.515
64688SOL    HW295839  10.257   0.772  10.602
64689SOL     OW95840   3.533  11.476   3.729
64689SOL    HW195841   3.520  11.529   3.651
64689SOL    HW295842   3.467  11.507   3.791
64690SOL     OW95843   4.350   0.371   4.404
64690SOL    HW195844   4.365   0.326   4.488
64690SOL    HW295845   4.414   0.333   4.344
64691SOL     OW95846   3.132   9.215   8.829
64691SOL    HW195847   3.190   9.155   8.876
64691SOL    HW295848   3.101   9.277   8.896
64692SOL     OW95849   5.732  11.008  13.139
64692SOL    HW195850   5.639  11.012  13.162
64692SOL    HW295851   5.741  10.925  13.093
64693SOL     OW95852   6.299   7.292   9.836
64693SOL    HW195853   6.381   7.250   9.863
64693SOL    HW295854   6.235   7.221   9.836
64694SOL     OW95855  14.403  10.625  14.174
64694SOL    HW195856  14.383  10.553  14.234
64694SOL    HW295857  14.318  10.660  14.148
64695SOL     OW95858  10.220   1.395  14.294
64695SOL    HW195859  10.309   1.413  14.265
64695SOL    HW295860  10.224   1.401  14.389
64696SOL     OW95861  10.572   4.283   1.120
64696SOL    HW195862  10.593   4.283   1.213
64696SOL    HW295863  10.478   4.265   1.116
64697SOL     OW95864  13.466  11.233   9.788
64697SOL    HW195865  13.430  11.145   9.781
64697SOL    HW295866  13.483  11.244   9.882
64698SOL     OW95867   8.020   8.044   8.025
64698SOL    HW195868   8.027   8.116   7.963
64698SOL    HW295869   7.928   8.019   8.024
64699SOL     OW95870   8.431   8.380   5.298
64699SOL    HW195871   8.470   8.464   5.274
64699SOL    HW295872   8.441   8.326   5.220
64700SOL     OW95873   0.924   0.963   2.616
64700SOL    HW195874   0.870   0.893   2.577
64700SOL    HW295875   0.985   0.988   2.546
64701SOL     OW95876   4.965   5.261  10.315
64701SOL    HW195877   4.891   5.229  10.264
64701SOL    HW295878   5.016   5.183  10.336
64702SOL     OW95879   3.713   8.564   3.148
64702SOL    HW195880   3.692   8.535   3.237
64702SOL    HW295881   3.754   8.488   3.106
64703SOL     OW95882   6.976  10.446   1.633
64703SOL    HW195883   7.070  10.437   1.652
64703SOL    HW295884   6.972  10.517   1.568
64704SOL     OW95885   9.951  11.932   9.421
64704SOL    HW195886  10.023  11.995   9.416
64704SOL    HW295887   9.885  11.967   9.360
64705SOL     OW95888   4.271   2.119   4.640
64705SOL    HW195889   4.206   2.069   4.690
64705SOL    HW295890   4.230   2.204   4.625
64706SOL     OW95891  12.754  11.953   9.593
64706SOL    HW195892  12.810  11.954   9.670
64706SOL    HW295893  12.814  11.955   9.519
64707SOL     OW95894  12.479   2.872   2.168
64707SOL    HW195895  12.406   2.858   2.228
64707SOL    HW295896  12.452   2.830   2.087
64708SOL     OW95897   6.220  14.460  10.222
64708SOL    HW195898   6.138  14.507  10.207
64708SOL    HW295899   6.255  14.444  10.134
64709SOL     OW95900   7.003  11.413   2.971
64709SOL    HW195901   6.947  11.359   2.915
64709SOL    HW295902   6.979  11.388   3.060
64710SOL     OW95903  10.994  13.317  12.088
64710SOL    HW195904  10.959  13.348  12.004
64710SOL    HW295905  10.918  13.281  12.134
64711SOL     OW95906   9.079   0.205   2.226
64711SOL    HW195907   9.135   0.129   2.242
64711SOL    HW295908   8.999   0.169   2.187
64712SOL     OW95909   4.489   7.202  11.813
64712SOL    HW195910   4.505   7.296  11.821
64712SOL    HW295911   4.395   7.192  11.828
64713SOL     OW95912   2.511   7.614  14.073
64713SOL    HW195913   2.485   7.646  14.159
64713SOL    HW295914   2.604   7.593  14.083
64714SOL     OW95915  14.601   3.409   9.290
64714SOL    HW195916  14.642   3.405   9.203
64714SOL    HW295917  14.566   3.322   9.304
64715SOL     OW95918   4.944   5.525   7.311
64715SOL    HW195919   5.015   5.569   7.358
64715SOL    HW295920   4.983   5.445   7.277
64716SOL     OW95921   4.005  13.458   9.018
64716SOL    HW195922   4.064  13.382   9.020
64716SOL    HW295923   4.021  13.502   9.102
64717SOL     OW95924  13.529   1.861  14.676
64717SOL    HW195925  13.474   1.920  14.727
64717SOL    HW295926  13.612   1.857  14.723
64718SOL     OW95927   4.490   7.825   3.235
64718SOL    HW195928   4.462   7.884   3.165
64718SOL    HW295929   4.510   7.883   3.309
64719SOL     OW95930   0.378   8.762   6.007
64719SOL    HW195931   0.361   8.743   5.915
64719SOL    HW295932   0.381   8.677   6.050
64720SOL     OW95933   2.838   3.357  14.413
64720SOL    HW195934   2.790   3.305  14.349
64720SOL    HW295935   2.852   3.298  14.487
64721SOL     OW95936  13.681   3.344   0.150
64721SOL    HW195937  13.695   3.355   0.244
64721SOL    HW295938  13.607   3.401   0.130
64722SOL     OW95939  12.076   2.097   4.660
64722SOL    HW195940  12.008   2.088   4.593
64722SOL    HW295941  12.075   2.013   4.706
64723SOL     OW95942   7.281   7.441   3.364
64723SOL    HW195943   7.353   7.505   3.368
64723SOL    HW295944   7.237   7.460   3.281
64724SOL     OW95945  10.596  11.702  12.890
64724SOL    HW195946  10.586  11.719  12.984
64724SOL    HW295947  10.576  11.786  12.849
64725SOL     OW95948   0.957   6.636  14.192
64725SOL    HW195949   0.916   6.722  14.178
64725SOL    HW295950   0.918   6.604  14.274
64726SOL     OW95951   4.982   3.007  13.564
64726SOL    HW195952   5.047   3.047  13.506
64726SOL    HW295953   5.032   2.944  13.616
64727SOL     OW95954   2.232  10.469  13.348
64727SOL    HW195955   2.143  10.501  13.334
64727SOL    HW295956   2.225  10.374  13.338
64728SOL     OW95957  12.846  14.880   3.363
64728SOL    HW195958  12.913   0.067   3.358
64728SOL    HW295959  12.827  14.858   3.272
64729SOL     OW95960   8.982  11.150   1.719
64729SOL    HW195961   8.969  11.064   1.759
64729SOL    HW295962   8.901  11.167   1.671
64730SOL     OW95963   3.213  10.934   0.571
64730SOL    HW195964   3.294  10.953   0.524
64730SOL    HW295965   3.198  11.011   0.626
64731SOL     OW95966   5.001   0.160  14.221
64731SOL    HW195967   5.015   0.172  14.127
64731SOL    HW295968   4.907   0.148  14.231
64732SOL     OW95969   8.224   5.141   0.928
64732SOL    HW195970   8.199   5.176   0.842
64732SOL    HW295971   8.313   5.175   0.941
64733SOL     OW95972   9.472  12.785  11.915
64733SOL    HW195973   9.542  12.812  11.973
64733SOL    HW295974   9.407  12.744  11.972
64734SOL     OW95975  14.320   9.364   5.404
64734SOL    HW195976  14.252   9.386   5.340
64734SOL    HW295977  14.292   9.280   5.440
64735SOL     OW95978  13.649   3.852   5.889
64735SOL    HW195979  13.584   3.782   5.893
64735SOL    HW295980  13.606   3.927   5.931
64736SOL     OW95981  10.387  11.912   3.791
64736SOL    HW195982  10.307  11.947   3.829
64736SOL    HW295983  10.371  11.914   3.696
64737SOL     OW95984  10.845  13.991   2.489
64737SOL    HW195985  10.798  13.935   2.427
64737SOL    HW295986  10.810  13.967   2.575
64738SOL     OW95987   7.757   1.151   4.468
64738SOL    HW195988   7.777   1.238   4.434
64738SOL    HW295989   7.684   1.165   4.528
64739SOL     OW95990   0.303   7.066   9.141
64739SOL    HW195991   0.232   7.018   9.097
64739SOL    HW295992   0.378   7.055   9.083
64740SOL     OW95993   8.598   3.541  13.953
64740SOL    HW195994   8.673   3.551  13.894
64740SOL    HW295995   8.616   3.604  14.024
64741SOL     OW95996   3.317  14.120  11.561
64741SOL    HW195997   3.336  14.029  11.585
64741SOL    HW295998   3.302  14.165  11.644
64742SOL     OW95999   3.896  11.270  14.108
64742SOL    HW196000   3.880  11.231  14.194
64742SOL    HW296001   3.985  11.244  14.086
64743SOL     OW96002  10.257  10.026   4.849
64743SOL    HW196003  10.170   9.992   4.831
64743SOL    HW296004  10.242  10.108   4.896
64744SOL     OW96005   9.295   7.115   3.503
64744SOL    HW196006   9.387   7.086   3.509
64744SOL    HW296007   9.251   7.070   3.575
64745SOL     OW96008  14.364  14.366   4.763
64745SOL    HW196009  14.368  14.460   4.745
64745SOL    HW296010  14.368  14.324   4.677
64746SOL     OW96011   7.522   3.747   4.532
64746SOL    HW196012   7.472   3.828   4.531
64746SOL    HW296013   7.512   3.710   4.444
64747SOL     OW96014   7.776   3.229   6.616
64747SOL    HW196015   7.752   3.136   6.623
64747SOL    HW296016   7.870   3.230   6.634
64748SOL     OW96017  14.440  10.715   3.188
64748SOL    HW196018  14.524  10.670   3.175
64748SOL    HW296019  14.390  10.657   3.245
64749SOL     OW96020  14.179  12.554   8.938
64749SOL    HW196021  14.223  12.631   8.903
64749SOL    HW296022  14.098  12.587   8.978
64750SOL     OW96023  13.414   1.634   2.228
64750SOL    HW196024  13.406   1.546   2.266
64750SOL    HW296025  13.484   1.676   2.279
64751SOL     OW96026  12.258  13.536   7.110
64751SOL    HW196027  12.258  13.483   7.189
64751SOL    HW296028  12.179  13.509   7.062
64752SOL     OW96029   1.802   4.565   5.328
64752SOL    HW196030   1.860   4.613   5.388
64752SOL    HW296031   1.765   4.632   5.271
64753SOL     OW96032   3.363   4.184   8.415
64753SOL    HW196033   3.296   4.161   8.351
64753SOL    HW296034   3.315   4.206   8.494
64754SOL     OW96035  11.318   6.550  10.542
64754SOL    HW196036  11.366   6.533  10.623
64754SOL    HW296037  11.238   6.593  10.570
64755SOL     OW96038   1.709   6.251  13.656
64755SOL    HW196039   1.714   6.189  13.729
64755SOL    HW296040   1.693   6.196  13.579
64756SOL     OW96041   3.893  13.679   3.107
64756SOL    HW196042   3.931  13.654   3.023
64756SOL    HW296043   3.864  13.769   3.095
64757SOL     OW96044   6.742  13.468   3.113
64757SOL    HW196045   6.797  13.458   3.036
64757SOL    HW296046   6.754  13.559   3.139
64758SOL     OW96047  14.071   2.386   4.334
64758SOL    HW196048  14.039   2.357   4.249
64758SOL    HW296049  14.167   2.384   4.325
64759SOL     OW96050   7.992  13.611   7.296
64759SOL    HW196051   7.940  13.620   7.376
64759SOL    HW296052   7.987  13.697   7.255
64760SOL     OW96053   2.674   6.944   0.642
64760SOL    HW196054   2.711   7.025   0.676
64760SOL    HW296055   2.580   6.960   0.637
64761SOL     OW96056   1.510   6.053   9.625
64761SOL    HW196057   1.528   6.020   9.537
64761SOL    HW296058   1.415   6.046   9.633
64762SOL     OW96059   9.935   5.941   4.834
64762SOL    HW196060  10.014   5.986   4.866
64762SOL    HW296061   9.911   5.990   4.755
64763SOL     OW96062   7.121  13.302   0.751
64763SOL    HW196063   7.102  13.215   0.787
64763SOL    HW296064   7.126  13.289   0.657
64764SOL     OW96065   0.983   8.130  11.331
64764SOL    HW196066   0.949   8.171  11.251
64764SOL    HW296067   1.018   8.202  11.382
64765SOL     OW96068  13.300   8.757   8.769
64765SOL    HW196069  13.352   8.677   8.763
64765SOL    HW296070  13.256   8.764   8.685
64766SOL     OW96071   8.895   0.566  13.998
64766SOL    HW196072   8.852   0.488  14.034
64766SOL    HW296073   8.897   0.550  13.904
64767SOL     OW96074  13.814   7.418  10.973
64767SOL    HW196075  13.817   7.461  10.887
64767SOL    HW296076  13.721   7.406  10.990
64768SOL     OW96077   7.084   4.620   6.775
64768SOL    HW196078   7.076   4.600   6.868
64768SOL    HW296079   6.993   4.623   6.743
64769SOL     OW96080  14.300   2.482  12.533
64769SOL    HW196081  14.351   2.519  12.462
64769SOL    HW296082  14.358   2.416  12.573
64770SOL     OW96083  11.062  14.581   8.201
64770SOL    HW196084  11.054  14.486   8.203
64770SOL    HW296085  10.973  14.612   8.184
64771SOL     OW96086   3.195  11.394   6.068
64771SOL    HW196087   3.195  11.393   5.972
64771SOL    HW296088   3.286  11.375   6.092
64772SOL     OW96089  12.971   8.364   4.072
64772SOL    HW196090  12.963   8.333   4.163
64772SOL    HW296091  12.924   8.447   4.071
64773SOL     OW96092  10.066   1.207   5.394
64773SOL    HW196093  10.004   1.212   5.467
64773SOL    HW296094  10.028   1.263   5.326
64774SOL     OW96095   9.624  12.867  12.145
64774SOL    HW196096   9.534  12.884  12.171
64774SOL    HW296097   9.666  12.953  12.145
64775SOL     OW96098   4.859   3.528   6.445
64775SOL    HW196099   4.860   3.581   6.524
64775SOL    HW296100   4.951   3.511   6.425
64776SOL     OW96101   4.999   7.193   8.099
64776SOL    HW196102   5.019   7.282   8.128
64776SOL    HW296103   4.962   7.151   8.177
64777SOL     OW96104   4.797  14.460   6.734
64777SOL    HW196105   4.868  14.482   6.673
64777SOL    HW296106   4.740  14.537   6.733
64778SOL     OW96107   3.881   0.664   0.045
64778SOL    HW196108   3.860   0.632   0.133
64778SOL    HW296109   3.941   0.599   0.009
64779SOL     OW96110   1.191   0.691   7.191
64779SOL    HW196111   1.212   0.710   7.283
64779SOL    HW296112   1.104   0.726   7.178
64780SOL     OW96113   0.836  14.021   2.393
64780SOL    HW196114   0.835  14.108   2.353
64780SOL    HW296115   0.895  14.029   2.468
64781SOL     OW96116  11.209   8.263   0.854
64781SOL    HW196117  11.303   8.282   0.848
64781SOL    HW296118  11.169   8.323   0.792
64782SOL     OW96119  12.081  14.798   0.213
64782SOL    HW196120  12.031  14.800   0.295
64782SOL    HW296121  12.024  14.842   0.149
64783SOL     OW96122  11.038  10.165  12.028
64783SOL    HW196123  10.978  10.136  12.096
64783SOL    HW296124  11.022  10.259  12.020
64784SOL     OW96125   4.982   7.568  12.117
64784SOL    HW196126   5.025   7.632  12.173
64784SOL    HW296127   5.001   7.597  12.028
64785SOL     OW96128   4.741  13.885  13.183
64785SOL    HW196129   4.800  13.959  13.172
64785SOL    HW296130   4.658  13.914  13.147
64786SOL     OW96131   1.434  14.214   4.322
64786SOL    HW196132   1.418  14.301   4.286
64786SOL    HW296133   1.348  14.172   4.322
64787SOL     OW96134   6.518   9.112   6.308
64787SOL    HW196135   6.595   9.057   6.320
64787SOL    HW296136   6.446   9.063   6.349
64788SOL     OW96137   4.716   5.749  11.552
64788SOL    HW196138   4.801   5.774  11.515
64788SOL    HW296139   4.707   5.657  11.529
64789SOL     OW96140  10.480   0.106   2.344
64789SOL    HW196141  10.418   0.035   2.323
64789SOL    HW296142  10.559   0.061   2.374
64790SOL     OW96143  10.210  12.107   4.759
64790SOL    HW196144  10.164  12.028   4.733
64790SOL    HW296145  10.303  12.085   4.752
64791SOL     OW96146  12.651   4.217   7.643
64791SOL    HW196147  12.565   4.233   7.604
64791SOL    HW296148  12.648   4.125   7.671
64792SOL     OW96149   3.730   5.857  13.640
64792SOL    HW196150   3.763   5.906  13.716
64792SOL    HW296151   3.780   5.775  13.641
64793SOL     OW96152   7.130   1.333  13.917
64793SOL    HW196153   7.104   1.241  13.926
64793SOL    HW296154   7.199   1.332  13.851
64794SOL     OW96155   6.267   5.886   0.821
64794SOL    HW196156   6.242   5.974   0.792
64794SOL    HW296157   6.275   5.835   0.741
64795SOL     OW96158   5.161   8.917   3.682
64795SOL    HW196159   5.078   8.963   3.685
64795SOL    HW296160   5.209   8.960   3.611
64796SOL     OW96161   6.790   6.018  11.631
64796SOL    HW196162   6.749   6.104  11.631
64796SOL    HW296163   6.876   6.032  11.670
64797SOL     OW96164   4.568  10.030   8.868
64797SOL    HW196165   4.642  10.054   8.924
64797SOL    HW296166   4.545   9.941   8.895
64798SOL     OW96167  13.739   8.579   4.512
64798SOL    HW196168  13.753   8.490   4.478
64798SOL    HW296169  13.644   8.591   4.510
64799SOL     OW96170   3.921  10.346  12.977
64799SOL    HW196171   3.927  10.253  12.997
64799SOL    HW296172   3.833  10.358  12.942
64800SOL     OW96173   0.735   9.009   1.714
64800SOL    HW196174   0.777   9.062   1.782
64800SOL    HW296175   0.806   8.959   1.675
64801SOL     OW96176   1.974  10.698   9.718
64801SOL    HW196177   2.016  10.675   9.635
64801SOL    HW296178   1.880  10.696   9.699
64802SOL     OW96179   3.306   1.738  12.293
64802SOL    HW196180   3.378   1.801  12.303
64802SOL    HW296181   3.265   1.761  12.210
64803SOL     OW96182  12.882   9.076  13.237
64803SOL    HW196183  12.848   9.156  13.276
64803SOL    HW296184  12.976   9.091  13.226
64804SOL     OW96185   3.366  10.508  14.309
64804SOL    HW196186   3.399  10.508  14.219
64804SOL    HW296187   3.381  10.597  14.340
64805SOL     OW96188   8.128   3.559   3.270
64805SOL    HW196189   8.040   3.594   3.262
64805SOL    HW296190   8.116   3.464   3.278
64806SOL     OW96191   1.452  13.088  12.387
64806SOL    HW196192   1.430  13.068  12.296
64806SOL    HW296193   1.493  13.007  12.419
64807SOL     OW96194  14.112   4.984   6.058
64807SOL    HW196195  14.061   4.953   5.984
64807SOL    HW296196  14.190   4.928   6.059
64808SOL     OW96197   8.822   8.172   7.461
64808SOL    HW196198   8.789   8.082   7.452
64808SOL    HW296199   8.775   8.221   7.393
64809SOL     OW96200  13.051   9.563   9.264
64809SOL    HW196201  13.014   9.606   9.341
64809SOL    HW296202  13.071   9.634   9.203
64810SOL     OW96203   0.922   5.606  10.812
64810SOL    HW196204   0.950   5.528  10.859
64810SOL    HW296205   0.854   5.576  10.752
64811SOL     OW96206   5.649   9.479  14.371
64811SOL    HW196207   5.658   9.398  14.421
64811SOL    HW296208   5.589   9.457  14.300
64812SOL     OW96209   6.897   9.790   1.712
64812SOL    HW196210   6.860   9.703   1.702
64812SOL    HW296211   6.992   9.776   1.714
64813SOL     OW96212   6.318   9.119   4.327
64813SOL    HW196213   6.228   9.129   4.356
64813SOL    HW296214   6.359   9.067   4.397
64814SOL     OW96215   3.549   4.754  14.684
64814SOL    HW196216   3.616   4.778  14.748
64814SOL    HW296217   3.500   4.683  14.725
64815SOL     OW96218   8.311  13.494  13.359
64815SOL    HW196219   8.351  13.461  13.440
64815SOL    HW296220   8.293  13.586  13.377
64816SOL     OW96221   2.922   8.244  14.452
64816SOL    HW196222   2.915   8.177  14.384
64816SOL    HW296223   3.014   8.244  14.475
64817SOL     OW96224   6.333   3.500  11.322
64817SOL    HW196225   6.285   3.568  11.369
64817SOL    HW296226   6.286   3.489  11.240
64818SOL     OW96227   8.824   8.629  13.818
64818SOL    HW196228   8.729   8.626  13.806
64818SOL    HW296229   8.853   8.697  13.759
64819SOL     OW96230   5.817   3.860  11.142
64819SOL    HW196231   5.731   3.901  11.144
64819SOL    HW296232   5.871   3.921  11.092
64820SOL     OW96233   6.443   2.866  14.294
64820SOL    HW196234   6.364   2.905  14.331
64820SOL    HW296235   6.446   2.899  14.204
64821SOL     OW96236   3.554   9.753   7.746
64821SOL    HW196237   3.561   9.846   7.769
64821SOL    HW296238   3.588   9.748   7.657
64822SOL     OW96239   3.525  11.852   9.710
64822SOL    HW196240   3.508  11.773   9.763
64822SOL    HW296241   3.448  11.907   9.725
64823SOL     OW96242  10.188   1.943   3.434
64823SOL    HW196243  10.273   1.941   3.390
64823SOL    HW296244  10.209   1.933   3.527
64824SOL     OW96245  13.204  12.650   3.515
64824SOL    HW196246  13.138  12.719   3.514
64824SOL    HW296247  13.283  12.692   3.479
64825SOL     OW96248   7.098   6.242  11.907
64825SOL    HW196249   7.154   6.207  11.839
64825SOL    HW296250   7.135   6.328  11.928
64826SOL     OW96251   5.638  12.905   9.986
64826SOL    HW196252   5.569  12.947  10.037
64826SOL    HW296253   5.636  12.949   9.901
64827SOL     OW96254   6.743   6.443  13.145
64827SOL    HW196255   6.755   6.533  13.114
64827SOL    HW296256   6.749   6.390  13.066
64828SOL     OW96257   0.907   4.442  13.767
64828SOL    HW196258   0.831   4.494  13.794
64828SOL    HW296259   0.873   4.353  13.754
64829SOL     OW96260  14.535   3.924  13.066
64829SOL    HW196261  14.532   3.976  13.146
64829SOL    HW296262  14.444   3.902  13.048
64830SOL     OW96263   3.736   7.896   7.255
64830SOL    HW196264   3.822   7.895   7.298
64830SOL    HW296265   3.716   7.803   7.240
64831SOL     OW96266   9.476   4.554   4.489
64831SOL    HW196267   9.413   4.562   4.561
64831SOL    HW296268   9.435   4.600   4.416
64832SOL     OW96269   1.011   9.459   1.791
64832SOL    HW196270   1.053   9.374   1.808
64832SOL    HW296271   1.003   9.463   1.696
64833SOL     OW96272   7.259   4.557  12.496
64833SOL    HW196273   7.215   4.477  12.466
64833SOL    HW296274   7.213   4.628  12.451
64834SOL     OW96275   6.776   1.936  12.274
64834SOL    HW196276   6.771   2.027  12.304
64834SOL    HW296277   6.858   1.932  12.224
64835SOL     OW96278   9.895  11.804  13.820
64835SOL    HW196279   9.932  11.725  13.779
64835SOL    HW296280   9.904  11.872  13.753
64836SOL     OW96281  11.417   7.553  10.150
64836SOL    HW196282  11.407   7.517  10.062
64836SOL    HW296283  11.481   7.495  10.192
64837SOL     OW96284   3.417   4.811   9.188
64837SOL    HW196285   3.483   4.747   9.214
64837SOL    HW296286   3.361   4.821   9.265
64838SOL     OW96287   5.908   0.795   5.294
64838SOL    HW196288   5.831   0.760   5.339
64838SOL    HW296289   5.883   0.884   5.269
64839SOL     OW96290  11.365  14.475   2.471
64839SOL    HW196291  11.424  14.461   2.396
64839SOL    HW296292  11.420  14.519   2.536
64840SOL     OW96293   3.043  10.586  10.949
64840SOL    HW196294   2.956  10.547  10.955
64840SOL    HW296295   3.101  10.521  10.988
64841SOL     OW96296  12.913  12.796  12.014
64841SOL    HW196297  12.951  12.813  12.100
64841SOL    HW296298  12.937  12.706  11.994
64842SOL     OW96299   9.458   2.943  10.903
64842SOL    HW196300   9.497   3.005  10.964
64842SOL    HW296301   9.526   2.878  10.887
64843SOL     OW96302  14.061   3.496   0.203
64843SOL    HW196303  14.054   3.591   0.191
64843SOL    HW296304  14.112   3.485   0.284
64844SOL     OW96305   8.054   3.179   1.016
64844SOL    HW196306   8.077   3.098   0.971
64844SOL    HW296307   8.093   3.169   1.103
64845SOL     OW96308   8.005   4.377   2.210
64845SOL    HW196309   8.059   4.354   2.134
64845SOL    HW296310   7.944   4.444   2.177
64846SOL     OW96311   2.836   6.551  13.924
64846SOL    HW196312   2.819   6.603  13.846
64846SOL    HW296313   2.767   6.485  13.925
64847SOL     OW96314  12.109   3.981   3.969
64847SOL    HW196315  12.176   3.965   4.035
64847SOL    HW296316  12.047   4.039   4.012
64848SOL     OW96317   1.616   5.296   6.078
64848SOL    HW196318   1.597   5.389   6.092
64848SOL    HW296319   1.590   5.254   6.159
64849SOL     OW96320  11.595  12.067  11.766
64849SOL    HW196321  11.513  12.028  11.738
64849SOL    HW296322  11.618  12.018  11.846
64850SOL     OW96323  10.656  11.451   4.193
64850SOL    HW196324  10.709  11.418   4.120
64850SOL    HW296325  10.697  11.412   4.270
64851SOL     OW96326   0.783  11.581   2.452
64851SOL    HW196327   0.713  11.638   2.484
64851SOL    HW296328   0.766  11.573   2.358
64852SOL     OW96329   7.969  10.781  12.428
64852SOL    HW196330   8.045  10.771  12.485
64852SOL    HW296331   8.002  10.760  12.341
64853SOL     OW96332   7.772   3.412  11.538
64853SOL    HW196333   7.835   3.423  11.609
64853SOL    HW296334   7.693   3.378  11.581
64854SOL     OW96335   2.980  14.047   2.754
64854SOL    HW196336   2.899  14.098   2.759
64854SOL    HW296337   2.977  13.990   2.831
64855SOL     OW96338   5.474   9.038   8.264
64855SOL    HW196339   5.398   9.083   8.299
64855SOL    HW296340   5.443   8.999   8.182
64856SOL     OW96341   4.125   4.367  11.270
64856SOL    HW196342   4.158   4.456  11.286
64856SOL    HW296343   4.100   4.335  11.357
64857SOL     OW96344  11.969   2.964   3.378
64857SOL    HW196345  11.955   3.048   3.422
64857SOL    HW296346  12.022   2.986   3.301
64858SOL     OW96347  11.933   4.828   1.297
64858SOL    HW196348  11.982   4.788   1.368
64858SOL    HW296349  11.991   4.821   1.221
64859SOL     OW96350  13.642   1.981   6.559
64859SOL    HW196351  13.562   1.929   6.560
64859SOL    HW296352  13.614   2.066   6.523
64860SOL     OW96353   0.742   5.728   1.074
64860SOL    HW196354   0.746   5.773   0.990
64860SOL    HW296355   0.753   5.798   1.139
64861SOL     OW96356  10.453   0.775  10.206
64861SOL    HW196357  10.482   0.824  10.130
64861SOL    HW296358  10.367   0.812  10.228
64862SOL     OW96359   5.386   7.086  11.219
64862SOL    HW196360   5.376   6.994  11.246
64862SOL    HW296361   5.385   7.135  11.301
64863SOL     OW96362   9.392   5.110  14.394
64863SOL    HW196363   9.390   5.166  14.316
64863SOL    HW296364   9.311   5.059  14.389
64864SOL     OW96365   7.455   0.579   6.702
64864SOL    HW196366   7.508   0.535   6.769
64864SOL    HW296367   7.461   0.523   6.625
64865SOL     OW96368   6.127   7.729   6.352
64865SOL    HW196369   6.056   7.686   6.303
64865SOL    HW296370   6.162   7.660   6.409
64866SOL     OW96371  13.261   4.415  11.445
64866SOL    HW196372  13.277   4.474  11.519
64866SOL    HW296373  13.214   4.469  11.381
64867SOL     OW96374  13.957   8.439   8.174
64867SOL    HW196375  13.989   8.526   8.151
64867SOL    HW296376  14.003   8.418   8.256
64868SOL     OW96377   2.829  12.168  12.623
64868SOL    HW196378   2.805  12.083  12.585
64868SOL    HW296379   2.827  12.229  12.549
64869SOL     OW96380   8.949   1.566  14.680
64869SOL    HW196381   8.947   1.526  14.767
64869SOL    HW296382   9.033   1.538  14.643
64870SOL     OW96383   8.314  10.684   0.515
64870SOL    HW196384   8.244  10.632   0.555
64870SOL    HW296385   8.344  10.631   0.441
64871SOL     OW96386   6.463  14.077  10.364
64871SOL    HW196387   6.521  14.063  10.439
64871SOL    HW296388   6.383  14.031  10.387
64872SOL     OW96389   6.088  12.347  14.174
64872SOL    HW196390   6.125  12.271  14.220
64872SOL    HW296391   6.034  12.391  14.240
64873SOL     OW96392   2.971   6.070   9.882
64873SOL    HW196393   2.994   6.066   9.975
64873SOL    HW296394   3.041   6.022   9.838
64874SOL     OW96395  14.304   8.313   8.080
64874SOL    HW196396  14.287   8.259   8.157
64874SOL    HW296397  14.349   8.390   8.114
64875SOL     OW96398   9.243   2.288   8.647
64875SOL    HW196399   9.272   2.377   8.669
64875SOL    HW296400   9.221   2.248   8.731
64876SOL     OW96401  12.126   0.217   2.611
64876SOL    HW196402  12.077   0.288   2.652
64876SOL    HW296403  12.218   0.243   2.619
64877SOL     OW96404   0.625   7.064   0.762
64877SOL    HW196405   0.637   7.123   0.688
64877SOL    HW296406   0.651   6.978   0.729
64878SOL     OW96407   8.742   2.707   4.567
64878SOL    HW196408   8.715   2.624   4.605
64878SOL    HW296409   8.661   2.745   4.533
64879SOL     OW96410  11.049   9.325  11.588
64879SOL    HW196411  11.126   9.309  11.533
64879SOL    HW296412  11.000   9.243  11.584
64880SOL     OW96413  11.599   1.857   5.263
64880SOL    HW196414  11.588   1.762   5.255
64880SOL    HW296415  11.674   1.877   5.207
64881SOL     OW96416   1.445  13.735   0.761
64881SOL    HW196417   1.461  13.696   0.675
64881SOL    HW296418   1.496  13.816   0.761
64882SOL     OW96419   6.990  12.855   5.840
64882SOL    HW196420   7.014  12.936   5.885
64882SOL    HW296421   6.984  12.880   5.748
64883SOL     OW96422   8.561   8.185   9.502
64883SOL    HW196423   8.627   8.134   9.550
64883SOL    HW296424   8.594   8.275   9.503
64884SOL     OW96425   5.634  14.605   0.073
64884SOL    HW196426   5.642  14.646  14.868
64884SOL    HW296427   5.542  14.578   0.079
64885SOL     OW96428   0.223  11.548   0.871
64885SOL    HW196429   0.152  11.485   0.857
64885SOL    HW296430   0.229  11.557   0.966
64886SOL     OW96431   5.519  13.650   5.650
64886SOL    HW196432   5.479  13.568   5.680
64886SOL    HW296433   5.485  13.716   5.711
64887SOL     OW96434  14.096   7.811   3.529
64887SOL    HW196435  14.181   7.839   3.498
64887SOL    HW296436  14.049   7.784   3.450
64888SOL     OW96437   1.283   8.024   8.343
64888SOL    HW196438   1.364   8.020   8.394
64888SOL    HW296439   1.306   8.076   8.266
64889SOL     OW96440   4.817   0.968  13.568
64889SOL    HW196441   4.805   1.062  13.557
64889SOL    HW296442   4.728   0.934  13.582
64890SOL     OW96443  10.783   3.651   6.163
64890SOL    HW196444  10.691   3.625   6.155
64890SOL    HW296445  10.830   3.570   6.179
64891SOL     OW96446   9.549   0.822   8.668
64891SOL    HW196447   9.576   0.889   8.731
64891SOL    HW296448   9.587   0.741   8.702
64892SOL     OW96449   8.054   5.320  11.345
64892SOL    HW196450   7.971   5.317  11.392
64892SOL    HW296451   8.112   5.370  11.402
64893SOL     OW96452   5.814  11.648  14.559
64893SOL    HW196453   5.850  11.720  14.506
64893SOL    HW296454   5.720  11.653  14.545
64894SOL     OW96455   5.509  14.671  11.195
64894SOL    HW196456   5.488  14.734  11.263
64894SOL    HW296457   5.491  14.717  11.113
64895SOL     OW96458  12.672   9.980   4.165
64895SOL    HW196459  12.717   9.897   4.178
64895SOL    HW296460  12.697  10.033   4.241
64896SOL     OW96461   3.266   6.614   5.382
64896SOL    HW196462   3.313   6.536   5.352
64896SOL    HW296463   3.260   6.603   5.477
64897SOL     OW96464   8.083   9.475  11.698
64897SOL    HW196465   8.038   9.517  11.625
64897SOL    HW296466   8.104   9.387  11.667
64898SOL     OW96467   9.980  14.413   2.460
64898SOL    HW196468  10.065  14.434   2.499
64898SOL    HW296469   9.919  14.415   2.534
64899SOL     OW96470  12.667  14.568   5.661
64899SOL    HW196471  12.634  14.483   5.632
64899SOL    HW296472  12.643  14.572   5.754
64900SOL     OW96473  12.911  13.605   6.170
64900SOL    HW196474  13.004  13.581   6.163
64900SOL    HW296475  12.905  13.693   6.133
64901SOL     OW96476  10.305   6.956  13.041
64901SOL    HW196477  10.318   7.043  13.001
64901SOL    HW296478  10.349   6.962  13.126
64902SOL     OW96479   2.897   1.224  10.748
64902SOL    HW196480   2.809   1.233  10.711
64902SOL    HW296481   2.883   1.226  10.843
64903SOL     OW96482   3.496  14.349   5.015
64903SOL    HW196483   3.474  14.289   5.087
64903SOL    HW296484   3.564  14.405   5.051
64904SOL     OW96485   7.495   6.880   4.016
64904SOL    HW196486   7.482   6.811   4.081
64904SOL    HW296487   7.429   6.861   3.949
64905SOL     OW96488   4.545   3.899   4.414
64905SOL    HW196489   4.533   3.955   4.491
64905SOL    HW296490   4.457   3.864   4.397
64906SOL     OW96491   0.196   5.665   4.768
64906SOL    HW196492   0.189   5.685   4.675
64906SOL    HW296493   0.290   5.668   4.786
64907SOL     OW96494   6.783   7.995   1.694
64907SOL    HW196495   6.779   7.958   1.605
64907SOL    HW296496   6.793   7.919   1.751
64908SOL     OW96497   2.659   8.969   5.297
64908SOL    HW196498   2.601   9.044   5.283
64908SOL    HW296499   2.652   8.919   5.215
64909SOL     OW96500   2.480   4.862   5.439
64909SOL    HW196501   2.523   4.807   5.504
64909SOL    HW296502   2.386   4.849   5.455
64910SOL     OW96503   8.868   5.620   1.536
64910SOL    HW196504   8.816   5.567   1.597
64910SOL    HW296505   8.879   5.703   1.581
64911SOL     OW96506   5.216  11.154  12.013
64911SOL    HW196507   5.122  11.140  12.003
64911SOL    HW296508   5.249  11.071  12.047
64912SOL     OW96509   9.744  13.440   1.772
64912SOL    HW196510   9.814  13.383   1.804
64912SOL    HW296511   9.765  13.526   1.807
64913SOL     OW96512   2.489   9.678  10.864
64913SOL    HW196513   2.459   9.768  10.850
64913SOL    HW296514   2.408   9.627  10.875
64914SOL     OW96515   6.723  12.009   9.663
64914SOL    HW196516   6.673  12.007   9.745
64914SOL    HW296517   6.685  11.937   9.611
64915SOL     OW96518   6.055   1.946   1.074
64915SOL    HW196519   5.976   1.952   1.021
64915SOL    HW296520   6.126   1.964   1.013
64916SOL     OW96521  14.753   4.183  12.031
64916SOL    HW196522  14.697   4.249  12.072
64916SOL    HW296523  14.831   4.232  12.002
64917SOL     OW96524   7.784  10.496  11.203
64917SOL    HW196525   7.810  10.405  11.219
64917SOL    HW296526   7.689  10.491  11.187
64918SOL     OW96527   4.319   9.819   6.541
64918SOL    HW196528   4.296   9.761   6.614
64918SOL    HW296529   4.361   9.894   6.583
64919SOL     OW96530   3.229   9.261  10.366
64919SOL    HW196531   3.162   9.319  10.332
64919SOL    HW296532   3.299   9.319  10.395
64920SOL     OW96533   1.463  11.067   8.923
64920SOL    HW196534   1.368  11.069   8.933
64920SOL    HW296535   1.487  10.976   8.940
64921SOL     OW96536  14.437  11.204   4.122
64921SOL    HW196537  14.438  11.134   4.057
64921SOL    HW296538  14.505  11.265   4.093
64922SOL     OW96539   7.694   9.802   0.966
64922SOL    HW196540   7.706   9.718   0.922
64922SOL    HW296541   7.605   9.798   1.001
64923SOL     OW96542   3.674   2.082   1.822
64923SOL    HW196543   3.706   2.057   1.908
64923SOL    HW296544   3.718   2.022   1.762
64924SOL     OW96545  13.024   7.378  12.503
64924SOL    HW196546  12.995   7.354  12.591
64924SOL    HW296547  12.954   7.347  12.446
64925SOL     OW96548   8.631   2.953   7.042
64925SOL    HW196549   8.695   2.993   6.982
64925SOL    HW296550   8.552   3.005   7.030
64926SOL     OW96551   8.001   1.987   2.069
64926SOL    HW196552   7.964   1.976   1.981
64926SOL    HW296553   8.039   2.075   2.067
64927SOL     OW96554   6.550   8.463   7.458
64927SOL    HW196555   6.569   8.446   7.550
64927SOL    HW296556   6.483   8.399   7.435
64928SOL     OW96557  11.404   6.383   8.746
64928SOL    HW196558  11.398   6.328   8.667
64928SOL    HW296559  11.330   6.356   8.800
64929SOL     OW96560  11.804   2.324   8.157
64929SOL    HW196561  11.838   2.316   8.068
64929SOL    HW296562  11.831   2.242   8.199
64930SOL     OW96563  10.296   5.881   7.004
64930SOL    HW196564  10.362   5.927   6.953
64930SOL    HW296565  10.292   5.930   7.087
64931SOL     OW96566   5.477  14.782   7.552
64931SOL    HW196567   5.435  14.865   7.526
64931SOL    HW296568   5.565  14.788   7.516
64932SOL     OW96569   0.688  13.118   1.489
64932SOL    HW196570   0.678  13.032   1.530
64932SOL    HW296571   0.603  13.134   1.447
64933SOL     OW96572   0.556   3.579  13.069
64933SOL    HW196573   0.584   3.547  13.155
64933SOL    HW296574   0.520   3.666  13.087
64934SOL     OW96575   2.631   4.637   4.897
64934SOL    HW196576   2.723   4.621   4.877
64934SOL    HW296577   2.604   4.561   4.949
64935SOL     OW96578   7.341   8.955  12.806
64935SOL    HW196579   7.360   8.891  12.738
64935SOL    HW296580   7.422   9.005  12.815
64936SOL     OW96581   8.536  12.686  14.007
64936SOL    HW196582   8.577  12.601  14.028
64936SOL    HW296583   8.504  12.675  13.918
64937SOL     OW96584   3.979   2.874  12.549
64937SOL    HW196585   3.997   2.840  12.461
64937SOL    HW296586   3.905   2.821  12.580
64938SOL     OW96587   7.144   4.178   9.488
64938SOL    HW196588   7.159   4.218   9.573
64938SOL    HW296589   7.208   4.219   9.430
64939SOL     OW96590  12.106  11.826   8.300
64939SOL    HW196591  12.099  11.796   8.210
64939SOL    HW296592  12.189  11.872   8.304
64940SOL     OW96593   0.401   4.360  11.304
64940SOL    HW196594   0.356   4.318  11.377
64940SOL    HW296595   0.334   4.411  11.260
64941SOL     OW96596   1.455   1.587   0.911
64941SOL    HW196597   1.546   1.564   0.929
64941SOL    HW296598   1.423   1.625   0.993
64942SOL     OW96599   9.397  13.877   0.656
64942SOL    HW196600   9.451  13.888   0.734
64942SOL    HW296601   9.331  13.813   0.681
64943SOL     OW96602   1.723   1.680   3.127
64943SOL    HW196603   1.788   1.657   3.194
64943SOL    HW296604   1.677   1.598   3.110
64944SOL     OW96605   6.732  11.125   7.150
64944SOL    HW196606   6.656  11.067   7.155
64944SOL    HW296607   6.780  11.097   7.072
64945SOL     OW96608  12.788   8.027  13.793
64945SOL    HW196609  12.874   8.003  13.827
64945SOL    HW296610  12.761   8.102  13.846
64946SOL     OW96611  11.536   9.101   5.347
64946SOL    HW196612  11.582   9.133   5.269
64946SOL    HW296613  11.571   9.155   5.418
64947SOL     OW96614  10.268  12.631  14.365
64947SOL    HW196615  10.207  12.557  14.367
64947SOL    HW296616  10.343  12.598  14.316
64948SOL     OW96617   2.796   5.570  12.912
64948SOL    HW196618   2.872   5.620  12.941
64948SOL    HW296619   2.830   5.482  12.895
64949SOL     OW96620  13.105   2.577   3.337
64949SOL    HW196621  13.020   2.617   3.357
64949SOL    HW296622  13.095   2.486   3.366
64950SOL     OW96623   3.875  11.036  13.768
64950SOL    HW196624   3.942  11.098  13.795
64950SOL    HW296625   3.921  10.952  13.760
64951SOL     OW96626   5.972  12.978   6.046
64951SOL    HW196627   6.026  12.920   6.100
64951SOL    HW296628   5.922  12.919   5.990
64952SOL     OW96629  14.851  12.989  10.634
64952SOL    HW196630  14.867  13.081  10.611
64952SOL    HW296631   0.024  12.974  10.711
64953SOL     OW96632   1.730  14.281   0.479
64953SOL    HW196633   1.714  14.350   0.544
64953SOL    HW296634   1.818  14.249   0.498
64954SOL     OW96635   4.561  13.855  13.931
64954SOL    HW196636   4.657  13.850  13.937
64954SOL    HW296637   4.536  13.777  13.882
64955SOL     OW96638   5.378  10.037   8.551
64955SOL    HW196639   5.330  10.005   8.627
64955SOL    HW296640   5.351   9.980   8.479
64956SOL     OW96641  13.581   9.915  12.053
64956SOL    HW196642  13.523   9.857  12.003
64956SOL    HW296643  13.564  10.002  12.017
64957SOL     OW96644  13.292   7.133  14.489
64957SOL    HW196645  13.318   7.147  14.398
64957SOL    HW296646  13.295   7.220  14.528
64958SOL     OW96647  11.563   0.775   4.273
64958SOL    HW196648  11.637   0.819   4.230
64958SOL    HW296649  11.603   0.703   4.321
64959SOL     OW96650   8.172   4.048   3.360
64959SOL    HW196651   8.180   3.991   3.284
64959SOL    HW296652   8.160   3.987   3.434
64960SOL     OW96653   2.399   9.607  13.750
64960SOL    HW196654   2.443   9.554  13.818
64960SOL    HW296655   2.404   9.552  13.672
64961SOL     OW96656   5.291   1.904  10.489
64961SOL    HW196657   5.235   1.851  10.433
64961SOL    HW296658   5.232   1.939  10.556
64962SOL     OW96659   3.311   5.748   1.536
64962SOL    HW196660   3.273   5.776   1.452
64962SOL    HW296661   3.237   5.745   1.596
64963SOL     OW96662  10.632  14.866   3.430
64963SOL    HW196663  10.616  14.778   3.395
64963SOL    HW296664  10.546   0.013   3.463
64964SOL     OW96665   1.000  14.036   3.710
64964SOL    HW196666   0.972  13.957   3.757
64964SOL    HW296667   0.941  14.105   3.742
64965SOL     OW96668   8.723   9.619  10.054
64965SOL    HW196669   8.773   9.618  10.136
64965SOL    HW296670   8.632   9.629  10.082
64966SOL     OW96671   1.501   0.738   9.145
64966SOL    HW196672   1.532   0.821   9.179
64966SOL    HW296673   1.426   0.715   9.200
64967SOL     OW96674   1.496  11.848   4.841
64967SOL    HW196675   1.476  11.894   4.923
64967SOL    HW296676   1.461  11.904   4.772
64968SOL     OW96677  14.280  13.793   4.209
64968SOL    HW196678  14.349  13.838   4.160
64968SOL    HW296679  14.205  13.852   4.206
64969SOL     OW96680   2.737   5.529   6.383
64969SOL    HW196681   2.702   5.587   6.315
64969SOL    HW296682   2.822   5.501   6.348
64970SOL     OW96683   9.737   5.106   0.076
64970SOL    HW196684   9.654   5.062   0.053
64970SOL    HW296685   9.722   5.198   0.053
64971SOL     OW96686   5.401   7.712  12.156
64971SOL    HW196687   5.346   7.788  12.174
64971SOL    HW296688   5.436   7.728  12.068
64972SOL     OW96689  14.473   4.813  14.339
64972SOL    HW196690  14.406   4.775  14.396
64972SOL    HW296691  14.456   4.907  14.341
64973SOL     OW96692   6.541   6.165  10.268
64973SOL    HW196693   6.570   6.164  10.359
64973SOL    HW296694   6.457   6.212  10.270
64974SOL     OW96695   3.939   8.549   1.987
64974SOL    HW196696   4.015   8.606   1.989
64974SOL    HW296697   3.939   8.512   1.899
64975SOL     OW96698   8.757   5.374  11.339
64975SOL    HW196699   8.796   5.309  11.281
64975SOL    HW296700   8.684   5.328  11.381
64976SOL     OW96701   9.986   9.878   7.695
64976SOL    HW196702  10.015   9.842   7.611
64976SOL    HW296703  10.026   9.821   7.760
64977SOL     OW96704   5.154   3.602  14.361
64977SOL    HW196705   5.095   3.671  14.391
64977SOL    HW296706   5.162   3.543  14.436
64978SOL     OW96707   2.902   4.192   0.844
64978SOL    HW196708   2.838   4.219   0.910
64978SOL    HW296709   2.868   4.229   0.763
64979SOL     OW96710   9.375   6.095   7.974
64979SOL    HW196711   9.450   6.056   8.020
64979SOL    HW296712   9.299   6.051   8.012
64980SOL     OW96713   6.025   0.465  13.180
64980SOL    HW196714   5.985   0.380  13.162
64980SOL    HW296715   5.952   0.519  13.210
64981SOL     OW96716   6.008  11.388   7.578
64981SOL    HW196717   5.980  11.345   7.498
64981SOL    HW296718   5.935  11.445   7.602
64982SOL     OW96719  11.693  10.980   7.500
64982SOL    HW196720  11.714  11.052   7.440
64982SOL    HW296721  11.739  11.002   7.581
64983SOL     OW96722   4.955  12.639  13.440
64983SOL    HW196723   5.043  12.665  13.413
64983SOL    HW296724   4.950  12.546  13.417
64984SOL     OW96725  12.953   8.957   3.622
64984SOL    HW196726  13.039   8.941   3.660
64984SOL    HW296727  12.953   8.906   3.541
64985SOL     OW96728  13.125  11.711  10.906
64985SOL    HW196729  13.087  11.623  10.902
64985SOL    HW296730  13.077  11.761  10.840
64986SOL     OW96731   7.730  13.993   6.963
64986SOL    HW196732   7.653  13.993   6.906
64986SOL    HW296733   7.758  14.084   6.964
64987SOL     OW96734   6.364  13.586  11.265
64987SOL    HW196735   6.305  13.517  11.296
64987SOL    HW296736   6.330  13.610  11.179
64988SOL     OW96737   0.493  12.028   7.226
64988SOL    HW196738   0.416  12.058   7.273
64988SOL    HW296739   0.478  11.935   7.210
64989SOL     OW96740   5.174  12.626   9.888
64989SOL    HW196741   5.177  12.687   9.814
64989SOL    HW296742   5.204  12.543   9.850
64990SOL     OW96743   0.968  13.505   8.870
64990SOL    HW196744   0.915  13.557   8.931
64990SOL    HW296745   0.958  13.550   8.786
64991SOL     OW96746   0.215   6.675   8.531
64991SOL    HW196747   0.235   6.589   8.493
64991SOL    HW296748   0.298   6.722   8.529
64992SOL     OW96749   8.237  13.573   2.904
64992SOL    HW196750   8.314  13.539   2.949
64992SOL    HW296751   8.258  13.566   2.811
64993SOL     OW96752   0.429   5.673  13.488
64993SOL    HW196753   0.497   5.631  13.540
64993SOL    HW296754   0.435   5.766  13.510
64994SOL     OW96755  14.701   0.202  11.359
64994SOL    HW196756  14.620   0.151  11.356
64994SOL    HW296757  14.755   0.166  11.288
64995SOL     OW96758   3.734   4.883   2.178
64995SOL    HW196759   3.709   4.792   2.192
64995SOL    HW296760   3.757   4.916   2.265
64996SOL     OW96761   8.345  13.072  12.890
64996SOL    HW196762   8.331  13.103  12.979
64996SOL    HW296763   8.332  13.149  12.835
64997SOL     OW96764   5.881   7.476   7.529
64997SOL    HW196765   5.890   7.557   7.578
64997SOL    HW296766   5.802   7.488   7.476
64998SOL     OW96767   8.105  12.148   4.452
64998SOL    HW196768   8.079  12.228   4.406
64998SOL    HW296769   8.022  12.104   4.473
64999SOL     OW96770  13.127  13.956   6.433
64999SOL    HW196771  13.162  14.014   6.365
64999SOL    HW296772  13.038  13.936   6.404
65000SOL     OW96773   8.382   5.538   8.719
65000SOL    HW196774   8.458   5.588   8.749
65000SOL    HW296775   8.368   5.567   8.629
65001SOL     OW96776   9.437  11.642   5.147
65001SOL    HW196777   9.364  11.656   5.207
65001SOL    HW296778   9.430  11.714   5.084
65002SOL     OW96779  10.529  10.092   4.784
65002SOL    HW196780  10.536  10.123   4.693
65002SOL    HW296781  10.441  10.053   4.789
65003SOL     OW96782   9.931   7.671   5.785
65003SOL    HW196783   9.882   7.623   5.852
65003SOL    HW296784   9.898   7.760   5.791
65004SOL     OW96785   8.768   9.270  14.784
65004SOL    HW196786   8.743   9.360  14.762
65004SOL    HW296787   8.802   9.276  14.873
65005SOL     OW96788   8.706   9.781   9.504
65005SOL    HW196789   8.727   9.794   9.412
65005SOL    HW296790   8.704   9.686   9.515
65006SOL     OW96791  14.567   8.114  11.975
65006SOL    HW196792  14.559   8.018  11.981
65006SOL    HW296793  14.492   8.147  12.024
65007SOL     OW96794   8.527  12.107   9.764
65007SOL    HW196795   8.488  12.020   9.752
65007SOL    HW296796   8.578  12.121   9.684
65008SOL     OW96797   8.692   5.557   8.529
65008SOL    HW196798   8.690   5.615   8.605
65008SOL    HW296799   8.730   5.476   8.561
65009SOL     OW96800   2.308  12.092  14.065
65009SOL    HW196801   2.377  12.119  14.005
65009SOL    HW296802   2.228  12.132  14.029
65010SOL     OW96803   2.756   7.856   6.481
65010SOL    HW196804   2.735   7.763   6.482
65010SOL    HW296805   2.849   7.860   6.501
65011SOL     OW96806  11.726   0.643   4.603
65011SOL    HW196807  11.709   0.625   4.695
65011SOL    HW296808  11.819   0.661   4.598
65012SOL     OW96809   8.855   4.911   0.210
65012SOL    HW196810   8.942   4.876   0.189
65012SOL    HW296811   8.836   4.878   0.298
65013SOL     OW96812   9.208   6.960   3.301
65013SOL    HW196813   9.151   6.902   3.350
65013SOL    HW296814   9.251   7.014   3.367
65014SOL     OW96815   4.999   6.867   6.634
65014SOL    HW196816   4.951   6.881   6.715
65014SOL    HW296817   5.026   6.954   6.606
65015SOL     OW96818  14.492   5.800   2.526
65015SOL    HW196819  14.530   5.863   2.588
65015SOL    HW296820  14.554   5.727   2.526
65016SOL     OW96821   2.867   9.105   9.192
65016SOL    HW196822   2.889   9.014   9.211
65016SOL    HW296823   2.864   9.147   9.279
65017SOL     OW96824  12.933   1.201   5.517
65017SOL    HW196825  12.870   1.130   5.506
65017SOL    HW296826  12.990   1.172   5.588
65018SOL     OW96827  11.492  13.392  14.151
65018SOL    HW196828  11.420  13.419  14.094
65018SOL    HW296829  11.544  13.472  14.164
65019SOL     OW96830   0.468   1.524   2.890
65019SOL    HW196831   0.411   1.565   2.955
65019SOL    HW296832   0.543   1.583   2.885
65020SOL     OW96833  13.693   0.167  12.989
65020SOL    HW196834  13.745   0.208  13.058
65020SOL    HW296835  13.631   0.111  13.036
65021SOL     OW96836   2.366   3.784   3.374
65021SOL    HW196837   2.415   3.801   3.293
65021SOL    HW296838   2.276   3.774   3.345
65022SOL     OW96839   5.303  11.372   6.012
65022SOL    HW196840   5.228  11.396   6.066
65022SOL    HW296841   5.273  11.295   5.963
65023SOL     OW96842   6.785  12.149   5.153
65023SOL    HW196843   6.859  12.208   5.168
65023SOL    HW296844   6.823  12.072   5.110
65024SOL     OW96845  12.886   8.196   5.842
65024SOL    HW196846  12.896   8.198   5.937
65024SOL    HW296847  12.883   8.289   5.817
65025SOL     OW96848   8.909  12.388   5.524
65025SOL    HW196849   8.902  12.342   5.608
65025SOL    HW296850   8.847  12.342   5.467
65026SOL     OW96851   2.413  12.410  11.757
65026SOL    HW196852   2.382  12.483  11.705
65026SOL    HW296853   2.385  12.430  11.846
65027SOL     OW96854   5.872   2.093   3.262
65027SOL    HW196855   5.836   2.016   3.305
65027SOL    HW296856   5.815   2.165   3.288
65028SOL     OW96857  12.145  14.119   9.272
65028SOL    HW196858  12.088  14.077   9.337
65028SOL    HW296859  12.224  14.143   9.321
65029SOL     OW96860   2.906   0.572   3.507
65029SOL    HW196861   2.958   0.556   3.428
65029SOL    HW296862   2.818   0.542   3.484
65030SOL     OW96863   9.624  10.777   1.242
65030SOL    HW196864   9.712  10.814   1.251
65030SOL    HW296865   9.608  10.779   1.148
65031SOL     OW96866   7.205   7.850   5.296
65031SOL    HW196867   7.241   7.820   5.212
65031SOL    HW296868   7.152   7.777   5.327
65032SOL     OW96869  13.118   3.077   3.322
65032SOL    HW196870  13.184   3.145   3.312
65032SOL    HW296871  13.161   2.997   3.290
65033SOL     OW96872   0.409   5.190   4.207
65033SOL    HW196873   0.328   5.229   4.240
65033SOL    HW296874   0.471   5.263   4.205
65034SOL     OW96875   8.809   9.683   3.509
65034SOL    HW196876   8.856   9.757   3.548
65034SOL    HW296877   8.867   9.608   3.520
65035SOL     OW96878  11.724  13.914  12.650
65035SOL    HW196879  11.701  13.979  12.717
65035SOL    HW296880  11.741  13.966  12.572
65036SOL     OW96881  13.689   5.019   4.717
65036SOL    HW196882  13.722   4.961   4.786
65036SOL    HW296883  13.767   5.049   4.672
65037SOL     OW96884   7.794   5.099   2.498
65037SOL    HW196885   7.722   5.119   2.438
65037SOL    HW296886   7.827   5.014   2.468
65038SOL     OW96887  10.228   3.345   2.485
65038SOL    HW196888  10.204   3.259   2.519
65038SOL    HW296889  10.184   3.408   2.543
65039SOL     OW96890   4.637  12.514   3.731
65039SOL    HW196891   4.545  12.531   3.748
65039SOL    HW296892   4.682  12.547   3.809
65040SOL     OW96893   6.109   2.020   9.079
65040SOL    HW196894   6.038   2.031   9.142
65040SOL    HW296895   6.177   2.080   9.109
65041SOL     OW96896   2.474  13.904   0.615
65041SOL    HW196897   2.437  13.961   0.682
65041SOL    HW296898   2.398  13.867   0.571
65042SOL     OW96899  10.042   6.221   8.902
65042SOL    HW196900  10.055   6.286   8.971
65042SOL    HW296901  10.020   6.140   8.949
65043SOL     OW96902  11.975   1.819  13.276
65043SOL    HW196903  12.025   1.815  13.195
65043SOL    HW296904  11.936   1.732  13.285
65044SOL     OW96905  10.030  12.785   1.209
65044SOL    HW196906  10.086  12.768   1.133
65044SOL    HW296907  10.078  12.849   1.261
65045SOL     OW96908   0.468   9.957  14.125
65045SOL    HW196909   0.558   9.964  14.096
65045SOL    HW296910   0.426   9.902  14.059
65046SOL     OW96911   6.919   0.766  11.380
65046SOL    HW196912   6.919   0.694  11.317
65046SOL    HW296913   6.857   0.830  11.344
65047SOL     OW96914   4.997   3.695   0.710
65047SOL    HW196915   5.010   3.624   0.647
65047SOL    HW296916   4.903   3.699   0.723
65048SOL     OW96917  10.370   1.708  13.112
65048SOL    HW196918  10.355   1.695  13.206
65048SOL    HW296919  10.366   1.620  13.075
65049SOL     OW96920  14.870  13.908  14.793
65049SOL    HW196921   0.017  13.853  14.721
65049SOL    HW296922  14.867  13.997  14.757
65050SOL     OW96923   8.717  13.289   3.319
65050SOL    HW196924   8.632  13.331   3.331
65050SOL    HW296925   8.710  13.245   3.235
65051SOL     OW96926   8.952   9.827   7.800
65051SOL    HW196927   8.965   9.922   7.800
65051SOL    HW296928   9.022   9.794   7.744
65052SOL     OW96929   7.811  12.608   0.429
65052SOL    HW196930   7.872  12.619   0.356
65052SOL    HW296931   7.726  12.593   0.386
65053SOL     OW96932  13.615   5.500   1.439
65053SOL    HW196933  13.565   5.581   1.442
65053SOL    HW296934  13.557   5.435   1.479
65054SOL     OW96935  13.701   1.232   0.687
65054SOL    HW196936  13.621   1.243   0.636
65054SOL    HW296937  13.735   1.321   0.698
65055SOL     OW96938   4.019   7.580  11.576
65055SOL    HW196939   3.974   7.517  11.520
65055SOL    HW296940   4.034   7.656  11.519
65056SOL     OW96941  11.141   7.746  10.312
65056SOL    HW196942  11.088   7.825  10.324
65056SOL    HW296943  11.196   7.765  10.236
65057SOL     OW96944   0.416  10.122  11.392
65057SOL    HW196945   0.376  10.189  11.447
65057SOL    HW296946   0.494  10.165  11.355
65058SOL     OW96947   6.948   9.341   3.372
65058SOL    HW196948   6.957   9.428   3.410
65058SOL    HW296949   6.855   9.333   3.351
65059SOL     OW96950   0.757   5.522   2.899
65059SOL    HW196951   0.669   5.504   2.932
65059SOL    HW296952   0.813   5.460   2.946
65060SOL     OW96953  10.759   1.614  13.974
65060SOL    HW196954  10.730   1.699  13.943
65060SOL    HW296955  10.822   1.584  13.908
65061SOL     OW96956  12.905  14.611  13.036
65061SOL    HW196957  12.944  14.656  12.961
65061SOL    HW296958  12.932  14.663  13.111
65062SOL     OW96959  11.511   0.358  12.526
65062SOL    HW196960  11.543   0.448  12.527
65062SOL    HW296961  11.584   0.306  12.560
65063SOL     OW96962   9.896  10.448   4.754
65063SOL    HW196963   9.863  10.537   4.742
65063SOL    HW296964   9.895  10.435   4.849
65064SOL     OW96965  13.636  11.777  11.517
65064SOL    HW196966  13.672  11.801  11.432
65064SOL    HW296967  13.657  11.684  11.527
65065SOL     OW96968  13.608   7.977   4.450
65065SOL    HW196969  13.517   8.001   4.432
65065SOL    HW296970  13.638   7.936   4.368
65066SOL     OW96971  10.312   6.858   1.641
65066SOL    HW196972  10.345   6.947   1.630
65066SOL    HW296973  10.256   6.862   1.718
65067SOL     OW96974   2.066   7.746   9.908
65067SOL    HW196975   2.005   7.787   9.969
65067SOL    HW296976   2.011   7.702   9.844
65068SOL     OW96977   6.988  12.520  10.479
65068SOL    HW196978   7.029  12.583  10.537
65068SOL    HW296979   7.027  12.538  10.393
65069SOL     OW96980  10.124   9.472   3.190
65069SOL    HW196981  10.109   9.379   3.208
65069SOL    HW296982  10.090   9.517   3.266
65070SOL     OW96983   0.233  14.514   0.204
65070SOL    HW196984   0.325  14.524   0.179
65070SOL    HW296985   0.205  14.434   0.160
65071SOL     OW96986   5.363  10.788   7.681
65071SOL    HW196987   5.457  10.771   7.692
65071SOL    HW296988   5.324  10.764   7.765
65072SOL     OW96989   9.983   6.488   0.513
65072SOL    HW196990  10.039   6.555   0.553
65072SOL    HW296991  10.014   6.405   0.549
65073SOL     OW96992   0.473   3.302  12.714
65073SOL    HW196993   0.416   3.376  12.690
65073SOL    HW296994   0.553   3.344  12.746
65074SOL     OW96995   9.327   6.021   6.552
65074SOL    HW196996   9.417   6.027   6.521
65074SOL    HW296997   9.318   5.931   6.584
65075SOL     OW96998   4.724  12.815   2.949
65075SOL    HW196999   4.715  12.900   2.907
65075SOL    HW297000   4.723  12.752   2.877
65076SOL     OW97001   6.921  13.562  14.876
65076SOL    HW197002   6.987  13.556   0.064
65076SOL    HW297003   6.941  13.645  14.832
65077SOL     OW97004   4.637  13.008   8.157
65077SOL    HW197005   4.731  12.988   8.152
65077SOL    HW297006   4.594  12.923   8.149
65078SOL     OW97007   5.231  13.816   3.378
65078SOL    HW197008   5.295  13.808   3.308
65078SOL    HW297009   5.282  13.803   3.458
65079SOL     OW97010   3.913   1.703   4.978
65079SOL    HW197011   3.847   1.759   4.937
65079SOL    HW297012   3.966   1.764   5.030
65080SOL     OW97013   0.895  10.544   8.718
65080SOL    HW197014   0.982  10.583   8.710
65080SOL    HW297015   0.891  10.511   8.807
65081SOL     OW97016  14.177   4.486   4.887
65081SOL    HW197017  14.216   4.429   4.953
65081SOL    HW297018  14.164   4.429   4.811
65082SOL     OW97019  12.857  12.594  10.603
65082SOL    HW197020  12.809  12.657  10.657
65082SOL    HW297021  12.915  12.550  10.665
65083SOL     OW97022   8.492   7.752   1.109
65083SOL    HW197023   8.584   7.757   1.135
65083SOL    HW297024   8.444   7.772   1.189
65084SOL     OW97025  13.852  10.650   0.786
65084SOL    HW197026  13.873  10.644   0.693
65084SOL    HW297027  13.795  10.727   0.793
65085SOL     OW97028  11.715   6.147  10.028
65085SOL    HW197029  11.800   6.116  10.059
65085SOL    HW297030  11.674   6.186  10.106
65086SOL     OW97031   6.569   1.545  10.605
65086SOL    HW197032   6.566   1.640  10.614
65086SOL    HW297033   6.551   1.529  10.512
65087SOL     OW97034  14.725   5.854   8.984
65087SOL    HW197035  14.675   5.913   8.929
65087SOL    HW297036  14.724   5.895   9.071
65088SOL     OW97037  13.018  12.430  10.736
65088SOL    HW197038  13.084  12.433  10.667
65088SOL    HW297039  13.052  12.367  10.799
65089SOL     OW97040   9.368   7.021   9.553
65089SOL    HW197041   9.401   7.045   9.640
65089SOL    HW297042   9.274   7.042   9.556
65090SOL     OW97043  10.178  12.658  13.076
65090SOL    HW197044  10.200  12.695  12.991
65090SOL    HW297045  10.082  12.662  13.080
65091SOL     OW97046  13.207   3.793   8.839
65091SOL    HW197047  13.202   3.830   8.927
65091SOL    HW297048  13.145   3.720   8.841
65092SOL     OW97049   0.954   2.714  10.277
65092SOL    HW197050   0.913   2.628  10.284
65092SOL    HW297051   1.003   2.724  10.359
65093SOL     OW97052  12.702  12.808   8.260
65093SOL    HW197053  12.711  12.718   8.227
65093SOL    HW297054  12.608  12.820   8.272
65094SOL     OW97055   5.617   0.132  12.981
65094SOL    HW197056   5.665   0.155  12.901
65094SOL    HW297057   5.527   0.158  12.962
65095SOL     OW97058   9.922   0.714  11.343
65095SOL    HW197059   9.828   0.708  11.361
65095SOL    HW297060   9.958   0.763  11.417
65096SOL     OW97061   6.464   2.483   4.952
65096SOL    HW197062   6.520   2.429   4.896
65096SOL    HW297063   6.498   2.572   4.942
65097SOL     OW97064   9.526  11.622  11.242
65097SOL    HW197065   9.566  11.537  11.258
65097SOL    HW297066   9.455  11.604  11.181
65098SOL     OW97067   9.957  12.723   3.291
65098SOL    HW197068   9.893  12.663   3.329
65098SOL    HW297069   9.961  12.699   3.198
65099SOL     OW97070   0.471  11.199   1.484
65099SOL    HW197071   0.484  11.121   1.430
65099SOL    HW297072   0.421  11.258   1.428
65100SOL     OW97073   5.563  10.872   2.242
65100SOL    HW197074   5.547  10.896   2.151
65100SOL    HW297075   5.658  10.877   2.252
65101SOL     OW97076   7.311   7.174   0.475
65101SOL    HW197077   7.333   7.096   0.526
65101SOL    HW297078   7.215   7.174   0.471
65102SOL     OW97079  10.279   1.280  13.520
65102SOL    HW197080  10.367   1.307  13.497
65102SOL    HW297081  10.228   1.290  13.440
65103SOL     OW97082  12.488   9.118  11.462
65103SOL    HW197083  12.460   9.060  11.533
65103SOL    HW297084  12.552   9.068  11.413
65104SOL     OW97085   9.140  10.255  10.993
65104SOL    HW197086   9.188  10.248  11.075
65104SOL    HW297087   9.191  10.202  10.931
65105SOL     OW97088  11.283   6.943   2.071
65105SOL    HW197089  11.339   6.960   1.995
65105SOL    HW297090  11.250   7.029   2.096
65106SOL     OW97091  11.539   9.271  10.741
65106SOL    HW197092  11.611   9.211  10.725
65106SOL    HW297093  11.464   9.214  10.759
65107SOL     OW97094   9.097  13.400  12.032
65107SOL    HW197095   9.042  13.325  12.053
65107SOL    HW297096   9.178  13.385  12.081
65108SOL     OW97097   9.623   4.137   9.551
65108SOL    HW197098   9.548   4.196   9.565
65108SOL    HW297099   9.698   4.196   9.539
65109SOL     OW97100  10.494   7.948   1.630
65109SOL    HW197101  10.512   7.897   1.709
65109SOL    HW297102  10.575   7.940   1.579
65110SOL     OW97103   3.076   2.454  12.720
65110SOL    HW197104   3.089   2.359  12.715
65110SOL    HW297105   3.006   2.472  12.656
65111SOL     OW97106   3.418  14.090   5.974
65111SOL    HW197107   3.372  14.046   6.046
65111SOL    HW297108   3.464  14.019   5.929
65112SOL     OW97109   7.665   4.888   7.612
65112SOL    HW197110   7.588   4.854   7.568
65112SOL    HW297111   7.705   4.947   7.548
65113SOL     OW97112   5.146   0.070  13.935
65113SOL    HW197113   5.211   0.003  13.953
65113SOL    HW297114   5.088   0.030  13.871
65114SOL     OW97115   5.359  10.242   5.182
65114SOL    HW197116   5.281  10.278   5.140
65114SOL    HW297117   5.425  10.312   5.174
65115SOL     OW97118   4.856   8.222   3.767
65115SOL    HW197119   4.815   8.189   3.687
65115SOL    HW297120   4.820   8.167   3.837
65116SOL     OW97121  13.376  12.335   4.044
65116SOL    HW197122  13.358  12.301   3.957
65116SOL    HW297123  13.303  12.304   4.098
65117SOL     OW97124   1.213  13.574   0.544
65117SOL    HW197125   1.243  13.563   0.454
65117SOL    HW297126   1.173  13.490   0.567
65118SOL     OW97127  11.373  11.972   5.495
65118SOL    HW197128  11.318  11.985   5.418
65118SOL    HW297129  11.319  12.004   5.568
65119SOL     OW97130   3.569  10.268   9.746
65119SOL    HW197131   3.537  10.289   9.658
65119SOL    HW297132   3.499  10.297   9.804
65120SOL     OW97133   8.096   8.393   0.084
65120SOL    HW197134   8.178   8.398   0.034
65120SOL    HW297135   8.066   8.484   0.088
65121SOL     OW97136   4.499   8.259   4.615
65121SOL    HW197137   4.471   8.329   4.674
65121SOL    HW297138   4.594   8.252   4.630
65122SOL     OW97139   7.807   1.215  11.002
65122SOL    HW197140   7.810   1.207  11.097
65122SOL    HW297141   7.735   1.157  10.976
65123SOL     OW97142   6.348   8.276   6.832
65123SOL    HW197143   6.254   8.257   6.831
65123SOL    HW297144   6.362   8.321   6.916
65124SOL     OW97145   7.455   9.677  13.449
65124SOL    HW197146   7.493   9.729  13.520
65124SOL    HW297147   7.365   9.709  13.441
65125SOL     OW97148  12.186   0.209   0.828
65125SOL    HW197149  12.230   0.260   0.897
65125SOL    HW297150  12.217   0.247   0.746
65126SOL     OW97151   7.208  13.243  11.327
65126SOL    HW197152   7.273  13.272  11.391
65126SOL    HW297153   7.162  13.324  11.302
65127SOL     OW97154   7.491   0.689   6.009
65127SOL    HW197155   7.458   0.622   5.949
65127SOL    HW297156   7.448   0.769   5.981
65128SOL     OW97157  10.840   5.070   0.247
65128SOL    HW197158  10.767   5.066   0.185
65128SOL    HW297159  10.821   5.148   0.300
65129SOL     OW97160  11.821   7.529   3.115
65129SOL    HW197161  11.880   7.488   3.178
65129SOL    HW297162  11.751   7.465   3.102
65130SOL     OW97163  10.680   2.788  13.098
65130SOL    HW197164  10.697   2.866  13.150
65130SOL    HW297165  10.614   2.816  13.034
65131SOL     OW97166   9.759  14.357   4.576
65131SOL    HW197167   9.697  14.423   4.606
65131SOL    HW297168   9.780  14.383   4.486
65132SOL     OW97169   0.645   0.289   8.455
65132SOL    HW197170   0.735   0.318   8.439
65132SOL    HW297171   0.648   0.194   8.443
65133SOL     OW97172  11.001  10.617   1.006
65133SOL    HW197173  10.908  10.633   0.993
65133SOL    HW297174  11.035  10.601   0.918
65134SOL     OW97175  10.767   0.999   0.207
65134SOL    HW197176  10.749   0.912   0.171
65134SOL    HW297177  10.681   1.031   0.235
65135SOL     OW97178   4.119   7.407   9.801
65135SOL    HW197179   4.190   7.344   9.818
65135SOL    HW297180   4.054   7.356   9.754
65136SOL     OW97181   8.851   9.383   7.190
65136SOL    HW197182   8.856   9.358   7.098
65136SOL    HW297183   8.780   9.329   7.226
65137SOL     OW97184  14.763   7.182   3.230
65137SOL    HW197185  14.778   7.210   3.139
65137SOL    HW297186  14.747   7.088   3.224
65138SOL     OW97187   6.269   7.295   0.706
65138SOL    HW197188   6.282   7.238   0.782
65138SOL    HW297189   6.357   7.320   0.679
65139SOL     OW97190   3.177   7.310  11.480
65139SOL    HW197191   3.124   7.387  11.502
65139SOL    HW297192   3.265   7.332  11.512
65140SOL     OW97193  14.844   5.282   6.292
65140SOL    HW197194  14.787   5.357   6.273
65140SOL    HW297195  14.853   5.282   6.387
65141SOL     OW97196   7.888   9.620  13.847
65141SOL    HW197197   7.815   9.646  13.791
65141SOL    HW297198   7.962   9.612  13.787
65142SOL     OW97199   2.634   5.875   6.915
65142SOL    HW197200   2.606   5.874   7.007
65142SOL    HW297201   2.555   5.851   6.866
65143SOL     OW97202  12.651   9.973   6.359
65143SOL    HW197203  12.731  10.023   6.344
65143SOL    HW297204  12.658   9.944   6.450
65144SOL     OW97205  12.003   6.052  14.646
65144SOL    HW197206  11.964   6.023  14.564
65144SOL    HW297207  11.929   6.080  14.700
65145SOL     OW97208   0.307   0.582  14.060
65145SOL    HW197209   0.278   0.491  14.073
65145SOL    HW297210   0.244   0.634  14.111
65146SOL     OW97211  13.488   7.955   1.515
65146SOL    HW197212  13.402   7.978   1.482
65146SOL    HW297213  13.548   8.017   1.473
65147SOL     OW97214  14.592   9.187  12.858
65147SOL    HW197215  14.583   9.159  12.950
65147SOL    HW297216  14.667   9.138  12.825
65148SOL     OW97217   2.790   3.677  13.102
65148SOL    HW197218   2.726   3.613  13.071
65148SOL    HW297219   2.759   3.701  13.189
65149SOL     OW97220  12.757   4.040   5.890
65149SOL    HW197221  12.831   4.099   5.904
65149SOL    HW297222  12.775   3.965   5.948
65150SOL     OW97223   1.373   8.838  11.274
65150SOL    HW197224   1.396   8.895  11.200
65150SOL    HW297225   1.457   8.820  11.316
65151SOL     OW97226   1.059  14.364   0.947
65151SOL    HW197227   0.996  14.293   0.960
65151SOL    HW297228   1.118  14.332   0.879
65152SOL     OW97229   8.598  11.179   2.628
65152SOL    HW197230   8.604  11.211   2.538
65152SOL    HW297231   8.640  11.247   2.680
65153SOL     OW97232  13.664  13.380   1.943
65153SOL    HW197233  13.722  13.403   1.870
65153SOL    HW297234  13.613  13.459   1.959
65154SOL     OW97235   9.085  10.561   8.664
65154SOL    HW197236   9.128  10.487   8.707
65154SOL    HW297237   9.062  10.528   8.577
65155SOL     OW97238  11.425   6.105  13.330
65155SOL    HW197239  11.468   6.179  13.374
65155SOL    HW297240  11.480   6.090  13.253
65156SOL     OW97241   7.635   4.799   0.255
65156SOL    HW197242   7.656   4.727   0.195
65156SOL    HW297243   7.548   4.827   0.228
65157SOL     OW97244   8.259   1.141   2.798
65157SOL    HW197245   8.304   1.111   2.719
65157SOL    HW297246   8.290   1.082   2.867
65158SOL     OW97247   2.297  11.423   1.203
65158SOL    HW197248   2.342  11.477   1.139
65158SOL    HW297249   2.215  11.471   1.221
65159SOL     OW97250  11.379   2.471  14.432
65159SOL    HW197251  11.367   2.564  14.452
65159SOL    HW297252  11.300   2.447  14.383
65160SOL     OW97253   4.742   6.413  11.600
65160SOL    HW197254   4.662   6.441  11.645
65160SOL    HW297255   4.712   6.356  11.530
65161SOL     OW97256   8.118   6.566   3.033
65161SOL    HW197257   8.202   6.602   3.003
65161SOL    HW297258   8.143   6.497   3.095
65162SOL     OW97259   2.245   7.732  11.145
65162SOL    HW197260   2.304   7.797  11.105
65162SOL    HW297261   2.207   7.778  11.220
65163SOL     OW97262  10.402   7.293   3.659
65163SOL    HW197263  10.391   7.224   3.726
65163SOL    HW297264  10.355   7.368   3.695
65164SOL     OW97265   2.652   4.728  14.228
65164SOL    HW197266   2.701   4.649  14.207
65164SOL    HW297267   2.677   4.791  14.160
65165SOL     OW97268   1.627  10.010  10.661
65165SOL    HW197269   1.558  10.071  10.636
65165SOL    HW297270   1.607   9.988  10.752
65166SOL     OW97271  10.194   7.053  13.446
65166SOL    HW197272  10.214   7.131  13.497
65166SOL    HW297273  10.113   7.074  13.399
65167SOL     OW97274   5.380  11.912   2.818
65167SOL    HW197275   5.294  11.872   2.807
65167SOL    HW297276   5.395  11.910   2.913
65168SOL     OW97277   0.367   3.198   2.083
65168SOL    HW197278   0.373   3.214   1.989
65168SOL    HW297279   0.443   3.243   2.120
65169SOL     OW97280   1.806  12.575   0.853
65169SOL    HW197281   1.763  12.648   0.808
65169SOL    HW297282   1.851  12.528   0.783
65170SOL     OW97283   7.249  11.807   5.713
65170SOL    HW197284   7.265  11.729   5.661
65170SOL    HW297285   7.286  11.879   5.662
65171SOL     OW97286  12.090  13.067   5.974
65171SOL    HW197287  12.144  13.073   6.053
65171SOL    HW297288  12.100  12.977   5.945
65172SOL     OW97289   3.702   7.488   0.109
65172SOL    HW197290   3.661   7.553   0.052
65172SOL    HW297291   3.773   7.451   0.058
65173SOL     OW97292  14.751   4.576   8.003
65173SOL    HW197293  14.722   4.579   8.094
65173SOL    HW297294  14.818   4.506   8.002
65174SOL     OW97295   6.310  13.825  12.674
65174SOL    HW197296   6.362  13.784  12.743
65174SOL    HW297297   6.226  13.845  12.715
65175SOL     OW97298  13.428   6.144   7.154
65175SOL    HW197299  13.501   6.086   7.134
65175SOL    HW297300  13.359   6.119   7.092
65176SOL     OW97301  14.642  13.078  11.912
65176SOL    HW197302  14.649  13.061  11.818
65176SOL    HW297303  14.660  12.993  11.953
65177SOL     OW97304   7.828   7.152  12.322
65177SOL    HW197305   7.907   7.207  12.320
65177SOL    HW297306   7.851   7.079  12.380
65178SOL     OW97307  10.286   4.974   3.789
65178SOL    HW197308  10.326   4.958   3.875
65178SOL    HW297309  10.352   4.946   3.726
65179SOL     OW97310   2.414   8.137   3.470
65179SOL    HW197311   2.437   8.225   3.441
65179SOL    HW297312   2.497   8.095   3.490
65180SOL     OW97313   2.216  12.222   7.411
65180SOL    HW197314   2.297  12.223   7.462
65180SOL    HW297315   2.229  12.153   7.346
65181SOL     OW97316   5.523   0.433   8.861
65181SOL    HW197317   5.533   0.434   8.957
65181SOL    HW297318   5.499   0.523   8.839
65182SOL     OW97319  10.696  10.067   9.730
65182SOL    HW197320  10.670  10.136   9.790
65182SOL    HW297321  10.699   9.988   9.784
65183SOL     OW97322  14.250   6.024   5.891
65183SOL    HW197323  14.171   6.028   5.945
65183SOL    HW297324  14.300   6.102   5.915
65184SOL     OW97325   6.281  13.304  13.654
65184SOL    HW197326   6.234  13.238  13.603
65184SOL    HW297327   6.337  13.253  13.713
65185SOL     OW97328   8.149   4.779   9.526
65185SOL    HW197329   8.200   4.859   9.530
65185SOL    HW297330   8.214   4.709   9.519
65186SOL     OW97331  10.636   5.012   6.970
65186SOL    HW197332  10.714   5.047   7.014
65186SOL    HW297333  10.646   4.917   6.976
65187SOL     OW97334  13.732  14.545   4.484
65187SOL    HW197335  13.733  14.578   4.394
65187SOL    HW297336  13.668  14.598   4.529
65188SOL     OW97337  13.422  11.330   4.523
65188SOL    HW197338  13.434  11.251   4.575
65188SOL    HW297339  13.489  11.324   4.455
65189SOL     OW97340   0.616  11.226  12.479
65189SOL    HW197341   0.659  11.238  12.563
65189SOL    HW297342   0.540  11.170  12.499
65190SOL     OW97343   8.893   7.181   2.095
65190SOL    HW197344   8.855   7.176   2.183
65190SOL    HW297345   8.873   7.270   2.066
65191SOL     OW97346   3.630   4.315   3.470
65191SOL    HW197347   3.612   4.245   3.408
65191SOL    HW297348   3.555   4.313   3.531
65192SOL     OW97349  13.725   6.206  14.376
65192SOL    HW197350  13.754   6.255  14.299
65192SOL    HW297351  13.702   6.273  14.439
65193SOL     OW97352   9.137   7.551  12.862
65193SOL    HW197353   9.103   7.603  12.935
65193SOL    HW297354   9.100   7.464  12.875
65194SOL     OW97355  14.208  11.620   2.961
65194SOL    HW197356  14.153  11.698   2.972
65194SOL    HW297357  14.214  11.582   3.049
65195SOL     OW97358  12.390   2.444   5.814
65195SOL    HW197359  12.414   2.537   5.813
65195SOL    HW297360  12.359   2.428   5.903
65196SOL     OW97361  14.245  11.319   3.000
65196SOL    HW197362  14.247  11.224   2.985
65196SOL    HW297363  14.314  11.334   3.064
65197SOL     OW97364  13.181  11.717  12.347
65197SOL    HW197365  13.216  11.653  12.408
65197SOL    HW297366  13.180  11.672  12.263
65198SOL     OW97367   1.496  11.328   9.977
65198SOL    HW197368   1.477  11.315  10.070
65198SOL    HW297369   1.586  11.298   9.966
65199SOL     OW97370   8.310  14.768  10.274
65199SOL    HW197371   8.328  14.859  10.250
65199SOL    HW297372   8.378  14.717  10.230
65200SOL     OW97373   3.519   6.452  11.041
65200SOL    HW197374   3.553   6.530  10.996
65200SOL    HW297375   3.555   6.459  11.129
65201SOL     OW97376   8.495   5.642  12.754
65201SOL    HW197377   8.446   5.722  12.774
65201SOL    HW297378   8.546   5.663  12.676
65202SOL     OW97379   1.771  11.387   9.911
65202SOL    HW197380   1.862  11.419   9.914
65202SOL    HW297381   1.771  11.324   9.838
65203SOL     OW97382   7.703   3.002   5.893
65203SOL    HW197383   7.714   2.931   5.830
65203SOL    HW297384   7.695   2.958   5.977
65204SOL     OW97385  13.805   3.144   7.455
65204SOL    HW197386  13.728   3.202   7.454
65204SOL    HW297387  13.791   3.086   7.380
65205SOL     OW97388  14.766   8.597   7.990
65205SOL    HW197389  14.821   8.665   7.951
65205SOL    HW297390  14.763   8.619   8.083
65206SOL     OW97391  14.643   1.406   4.133
65206SOL    HW197392  14.675   1.356   4.058
65206SOL    HW297393  14.720   1.451   4.167
65207SOL     OW97394   9.365  14.134   9.877
65207SOL    HW197395   9.334  14.121   9.966
65207SOL    HW297396   9.334  14.221   9.853
65208SOL     OW97397   0.933   2.479  11.011
65208SOL    HW197398   0.842   2.453  11.001
65208SOL    HW297399   0.970   2.415  11.072
65209SOL     OW97400  14.037   6.437   5.425
65209SOL    HW197401  13.954   6.479   5.402
65209SOL    HW297402  14.091   6.509   5.458
65210SOL     OW97403  13.683   7.475   9.801
65210SOL    HW197404  13.758   7.439   9.754
65210SOL    HW297405  13.667   7.560   9.760
65211SOL     OW97406  11.958   4.988   0.390
65211SOL    HW197407  12.007   5.051   0.443
65211SOL    HW297408  11.980   5.009   0.300
65212SOL     OW97409   7.051   2.287   0.490
65212SOL    HW197410   7.107   2.216   0.457
65212SOL    HW297411   7.073   2.362   0.435
65213SOL     OW97412   3.045  10.732   6.464
65213SOL    HW197413   3.051  10.733   6.369
65213SOL    HW297414   3.006  10.816   6.487
65214SOL     OW97415   9.670   5.822  12.984
65214SOL    HW197416   9.619   5.893  12.944
65214SOL    HW297417   9.683   5.850  13.074
65215SOL     OW97418   7.190   0.300  13.118
65215SOL    HW197419   7.235   0.236  13.062
65215SOL    HW297420   7.207   0.384  13.076
65216SOL     OW97421   7.903   2.403   3.501
65216SOL    HW197422   7.958   2.326   3.512
65216SOL    HW297423   7.818   2.377   3.536
65217SOL     OW97424   8.143   5.676  12.489
65217SOL    HW197425   8.192   5.754  12.515
65217SOL    HW297426   8.210   5.613  12.464
65218SOL     OW97427   9.138  11.749   3.567
65218SOL    HW197428   9.118  11.824   3.623
65218SOL    HW297429   9.089  11.676   3.606
65219SOL     OW97430   6.228   1.907   1.670
65219SOL    HW197431   6.164   1.890   1.600
65219SOL    HW297432   6.196   1.986   1.713
65220SOL     OW97433  12.140  11.763   1.414
65220SOL    HW197434  12.178  11.851   1.418
65220SOL    HW297435  12.075  11.761   1.485
65221SOL     OW97436   1.693  13.716   0.930
65221SOL    HW197437   1.682  13.634   0.980
65221SOL    HW297438   1.782  13.711   0.896
65222SOL     OW97439  13.283  11.214   0.942
65222SOL    HW197440  13.306  11.306   0.926
65222SOL    HW297441  13.216  11.218   1.011
65223SOL     OW97442   2.474   2.051   0.955
65223SOL    HW197443   2.534   2.062   0.881
65223SOL    HW297444   2.519   1.990   1.013
65224SOL     OW97445   3.012  11.465   2.850
65224SOL    HW197446   3.009  11.491   2.757
65224SOL    HW297447   2.921  11.449   2.873
65225SOL     OW97448  11.251   7.732   6.632
65225SOL    HW197449  11.165   7.748   6.592
65225SOL    HW297450  11.249   7.782   6.713
65226SOL     OW97451   0.024  12.041  13.567
65226SOL    HW197452  14.814  12.055  13.594
65226SOL    HW297453   0.038  11.947  13.580
65227SOL     OW97454  10.041   7.379   0.703
65227SOL    HW197455  10.106   7.419   0.761
65227SOL    HW297456   9.979   7.337   0.761
65228SOL     OW97457   3.338  12.327   2.210
65228SOL    HW197458   3.365  12.416   2.189
65228SOL    HW297459   3.251  12.337   2.248
65229SOL     OW97460  13.034   7.361   3.248
65229SOL    HW197461  13.043   7.436   3.306
65229SOL    HW297462  13.070   7.288   3.298
65230SOL     OW97463   6.385   3.570  11.954
65230SOL    HW197464   6.291   3.577  11.937
65230SOL    HW297465   6.424   3.569  11.867
65231SOL     OW97466   2.760   9.920   9.285
65231SOL    HW197467   2.716   9.836   9.278
65231SOL    HW297468   2.711   9.968   9.352
65232SOL     OW97469   7.922   7.149   6.814
65232SOL    HW197470   7.827   7.137   6.824
65232SOL    HW297471   7.956   7.148   6.904
65233SOL     OW97472   5.281   7.809  13.082
65233SOL    HW197473   5.188   7.812  13.060
65233SOL    HW297474   5.300   7.716  13.095
65234SOL     OW97475   5.778   7.833   1.944
65234SOL    HW197476   5.775   7.816   2.038
65234SOL    HW297477   5.861   7.879   1.931
65235SOL     OW97478   8.592  11.013   1.951
65235SOL    HW197479   8.674  11.015   2.001
65235SOL    HW297480   8.595  10.931   1.902
65236SOL     OW97481   4.012   7.052   2.720
65236SOL    HW197482   4.004   6.998   2.799
65236SOL    HW297483   3.929   7.099   2.715
65237SOL     OW97484   2.700  13.804   3.772
65237SOL    HW197485   2.632  13.836   3.831
65237SOL    HW297486   2.719  13.878   3.715
65238SOL     OW97487  10.179  13.398   4.552
65238SOL    HW197488  10.266  13.362   4.538
65238SOL    HW297489  10.129  13.372   4.475
65239SOL     OW97490   1.841   9.452   0.600
65239SOL    HW197491   1.922   9.414   0.566
65239SOL    HW297492   1.838   9.540   0.563
65240SOL     OW97493   3.202  10.322   7.053
65240SOL    HW197494   3.275  10.298   7.110
65240SOL    HW297495   3.237  10.391   6.996
65241SOL     OW97496   3.418  10.416   6.684
65241SOL    HW197497   3.481  10.424   6.756
65241SOL    HW297498   3.335  10.443   6.721
65242SOL     OW97499   1.744  12.250  14.292
65242SOL    HW197500   1.825  12.209  14.263
65242SOL    HW297501   1.760  12.274  14.383
65243SOL     OW97502   8.594   5.838  10.539
65243SOL    HW197503   8.599   5.761  10.597
65243SOL    HW297504   8.547   5.903  10.591
65244SOL     OW97505   8.505  14.549   0.885
65244SOL    HW197506   8.437  14.500   0.930
65244SOL    HW297507   8.460  14.626   0.849
65245SOL     OW97508   4.783  11.604   6.866
65245SOL    HW197509   4.862  11.657   6.870
65245SOL    HW297510   4.738  11.634   6.787
65246SOL     OW97511   3.181  14.461  14.283
65246SOL    HW197512   3.181  14.366  14.275
65246SOL    HW297513   3.138  14.479  14.366
65247SOL     OW97514   5.334  13.697  11.298
65247SOL    HW197515   5.266  13.739  11.245
65247SOL    HW297516   5.371  13.767  11.351
65248SOL     OW97517   0.316  11.120   7.473
65248SOL    HW197518   0.408  11.104   7.452
65248SOL    HW297519   0.308  11.216   7.476
65249SOL     OW97520   0.394   6.069  14.530
65249SOL    HW197521   0.325   6.029  14.477
65249SOL    HW297522   0.457   5.998  14.544
65250SOL     OW97523   9.788  13.580  10.952
65250SOL    HW197524   9.809  13.651  11.011
65250SOL    HW297525   9.818  13.610  10.866
65251SOL     OW97526  12.931  11.269   8.906
65251SOL    HW197527  12.997  11.274   8.975
65251SOL    HW297528  12.934  11.178   8.876
65252SOL     OW97529   0.411   1.096   2.167
65252SOL    HW197530   0.418   1.026   2.102
65252SOL    HW297531   0.410   1.177   2.115
65253SOL     OW97532   8.591   1.152   1.124
65253SOL    HW197533   8.498   1.133   1.111
65253SOL    HW297534   8.631   1.066   1.137
65254SOL     OW97535   6.741  12.418  12.269
65254SOL    HW197536   6.787  12.417  12.185
65254SOL    HW297537   6.770  12.339  12.314
65255SOL     OW97538   1.728   8.093   1.117
65255SOL    HW197539   1.766   8.134   1.039
65255SOL    HW297540   1.639   8.071   1.090
65256SOL     OW97541   1.878   9.673  13.550
65256SOL    HW197542   1.828   9.666  13.631
65256SOL    HW297543   1.962   9.711  13.577
65257SOL     OW97544   8.592   4.497  10.102
65257SOL    HW197545   8.533   4.514  10.175
65257SOL    HW297546   8.596   4.579  10.054
65258SOL     OW97547   7.611   0.453   5.533
65258SOL    HW197548   7.551   0.415   5.468
65258SOL    HW297549   7.553   0.498   5.595
65259SOL     OW97550   6.500  11.926  10.353
65259SOL    HW197551   6.549  11.959  10.428
65259SOL    HW297552   6.453  11.849  10.386
65260SOL     OW97553  13.442   5.399   6.614
65260SOL    HW197554  13.414   5.474   6.562
65260SOL    HW297555  13.406   5.323   6.568
65261SOL     OW97556   2.010  10.428  11.478
65261SOL    HW197557   1.938  10.373  11.448
65261SOL    HW297558   2.089  10.377  11.458
65262SOL     OW97559   0.172  10.459  10.486
65262SOL    HW197560   0.093  10.497  10.523
65262SOL    HW297561   0.142  10.406  10.412
65263SOL     OW97562   4.718   2.110   6.038
65263SOL    HW197563   4.797   2.059   6.023
65263SOL    HW297564   4.670   2.061   6.105
65264SOL     OW97565   6.667  13.572   8.783
65264SOL    HW197566   6.739  13.632   8.804
65264SOL    HW297567   6.684  13.495   8.836
65265SOL     OW97568   7.925   3.852   2.306
65265SOL    HW197569   7.999   3.908   2.283
65265SOL    HW297570   7.850   3.912   2.308
65266SOL     OW97571  10.805   6.423   5.624
65266SOL    HW197572  10.743   6.365   5.579
65266SOL    HW297573  10.868   6.364   5.664
65267SOL     OW97574  10.582   2.317  10.139
65267SOL    HW197575  10.677   2.324  10.152
65267SOL    HW297576  10.545   2.364  10.214
65268SOL     OW97577   5.687   1.309   0.620
65268SOL    HW197578   5.762   1.358   0.653
65268SOL    HW297579   5.726   1.242   0.563
65269SOL     OW97580   1.249   8.969   6.109
65269SOL    HW197581   1.253   8.876   6.085
65269SOL    HW297582   1.249   8.968   6.205
65270SOL     OW97583  12.907   4.969   1.667
65270SOL    HW197584  12.935   5.030   1.735
65270SOL    HW297585  12.889   5.025   1.591
65271SOL     OW97586   4.358  10.506  10.619
65271SOL    HW197587   4.398  10.435  10.568
65271SOL    HW297588   4.420  10.521  10.691
65272SOL     OW97589   0.096  13.531   1.057
65272SOL    HW197590   0.043  13.452   1.053
65272SOL    HW297591   0.046  13.592   1.112
65273SOL     OW97592   7.189   0.685   5.206
65273SOL    HW197593   7.230   0.770   5.221
65273SOL    HW297594   7.109   0.706   5.158
65274SOL     OW97595  12.490  11.175  11.896
65274SOL    HW197596  12.464  11.226  11.973
65274SOL    HW297597  12.586  11.182  11.896
65275SOL     OW97598   5.436  13.572   2.256
65275SOL    HW197599   5.379  13.498   2.234
65275SOL    HW297600   5.438  13.625   2.177
65276SOL     OW97601   3.052  12.231   3.638
65276SOL    HW197602   3.024  12.295   3.703
65276SOL    HW297603   3.110  12.281   3.579
65277SOL     OW97604   7.870  11.314   4.238
65277SOL    HW197605   7.932  11.245   4.213
65277SOL    HW297606   7.845  11.355   4.156
65278SOL     OW97607   8.222  13.575   6.779
65278SOL    HW197608   8.200  13.550   6.689
65278SOL    HW297609   8.212  13.495   6.830
65279SOL     OW97610  10.642   0.572   5.478
65279SOL    HW197611  10.555   0.601   5.504
65279SOL    HW297612  10.698   0.650   5.491
65280SOL     OW97613   7.894  14.701  10.658
65280SOL    HW197614   7.986  14.728  10.653
65280SOL    HW297615   7.846  14.777  10.625
65281SOL     OW97616  14.556   6.804   3.392
65281SOL    HW197617  14.488   6.870   3.399
65281SOL    HW297618  14.624   6.845   3.338
65282SOL     OW97619   5.958   1.337   7.290
65282SOL    HW197620   5.899   1.370   7.357
65282SOL    HW297621   6.021   1.282   7.337
65283SOL     OW97622   6.903   6.282  14.584
65283SOL    HW197623   6.922   6.372  14.612
65283SOL    HW297624   6.987   6.237  14.590
65284SOL     OW97625   4.062  14.754   8.653
65284SOL    HW197626   4.105  14.682   8.699
65284SOL    HW297627   4.028  14.810   8.723
65285SOL     OW97628  14.360  11.155   3.681
65285SOL    HW197629  14.416  11.144   3.604
65285SOL    HW297630  14.419  11.147   3.756
65286SOL     OW97631   6.717   6.325   9.635
65286SOL    HW197632   6.633   6.337   9.678
65286SOL    HW297633   6.747   6.414   9.615
65287SOL     OW97634  12.273   2.437   9.120
65287SOL    HW197635  12.236   2.395   9.043
65287SOL    HW297636  12.279   2.530   9.097
65288SOL     OW97637   1.389   6.908   7.090
65288SOL    HW197638   1.388   6.898   6.995
65288SOL    HW297639   1.339   6.833   7.122
65289SOL     OW97640   4.549   1.075   4.605
65289SOL    HW197641   4.476   1.123   4.645
65289SOL    HW297642   4.525   1.068   4.512
65290SOL     OW97643   8.696  13.950  14.859
65290SOL    HW197644   8.602  13.940  14.844
65290SOL    HW297645   8.704  13.970   0.071
65291SOL     OW97646  10.063  11.608   0.073
65291SOL    HW197647  10.091  11.569   0.156
65291SOL    HW297648  10.019  11.690   0.099
65292SOL     OW97649   0.652   5.505   1.636
65292SOL    HW197650   0.728   5.463   1.677
65292SOL    HW297651   0.584   5.439   1.639
65293SOL     OW97652   4.913   4.434  13.747
65293SOL    HW197653   4.984   4.469  13.802
65293SOL    HW297654   4.900   4.499  13.679
65294SOL     OW97655   9.191   1.916   5.401
65294SOL    HW197656   9.185   2.005   5.436
65294SOL    HW297657   9.277   1.884   5.429
65295SOL     OW97658   8.185   0.751   2.183
65295SOL    HW197659   8.262   0.694   2.182
65295SOL    HW297660   8.154   0.752   2.092
65296SOL     OW97661   9.363   0.914   5.272
65296SOL    HW197662   9.379   0.905   5.366
65296SOL    HW297663   9.306   0.840   5.250
65297SOL     OW97664   7.868   7.526  10.160
65297SOL    HW197665   7.799   7.462  10.144
65297SOL    HW297666   7.909   7.539  10.074
65298SOL     OW97667  12.680  13.192   8.400
65298SOL    HW197668  12.703  13.279   8.369
65298SOL    HW297669  12.711  13.133   8.330
65299SOL     OW97670   0.537   1.088   1.419
65299SOL    HW197671   0.566   1.060   1.333
65299SOL    HW297672   0.442   1.098   1.411
65300SOL     OW97673   7.516   1.186  10.590
65300SOL    HW197674   7.501   1.276  10.620
65300SOL    HW297675   7.455   1.174  10.517
65301SOL     OW97676   4.769   5.867   3.788
65301SOL    HW197677   4.743   5.813   3.863
65301SOL    HW297678   4.861   5.888   3.804
65302SOL     OW97679  14.830  13.236   6.013
65302SOL    HW197680  14.832  13.291   6.091
65302SOL    HW297681  14.824  13.298   5.940
65303SOL     OW97682   4.691   0.180  12.026
65303SOL    HW197683   4.749   0.122  12.076
65303SOL    HW297684   4.722   0.173  11.936
65304SOL     OW97685   0.895   1.441  14.687
65304SOL    HW197686   0.865   1.503  14.754
65304SOL    HW297687   0.830   1.371  14.689
65305SOL     OW97688  12.834   4.207  10.022
65305SOL    HW197689  12.761   4.257   9.987
65305SOL    HW297690  12.872   4.264  10.089
65306SOL     OW97691   4.798  11.681   4.056
65306SOL    HW197692   4.758  11.732   4.126
65306SOL    HW297693   4.882  11.652   4.091
65307SOL     OW97694   7.405   6.408   1.795
65307SOL    HW197695   7.461   6.398   1.718
65307SOL    HW297696   7.334   6.346   1.781
65308SOL     OW97697  12.194  13.749   1.394
65308SOL    HW197698  12.223  13.789   1.312
65308SOL    HW297699  12.257  13.678   1.410
65309SOL     OW97700  10.305   2.546   5.912
65309SOL    HW197701  10.328   2.636   5.934
65309SOL    HW297702  10.361   2.525   5.837
65310SOL     OW97703   0.248   3.239  14.501
65310SOL    HW197704   0.292   3.324  14.499
65310SOL    HW297705   0.287   3.194  14.575
65311SOL     OW97706   0.458   8.626   3.820
65311SOL    HW197707   0.415   8.711   3.815
65311SOL    HW297708   0.448   8.588   3.733
65312SOL     OW97709  13.848   6.761   9.452
65312SOL    HW197710  13.791   6.685   9.460
65312SOL    HW297711  13.926   6.728   9.406
65313SOL     OW97712   0.953   9.479   0.472
65313SOL    HW197713   0.915   9.556   0.515
65313SOL    HW297714   1.039   9.469   0.512
65314SOL     OW97715  11.393   8.652  14.067
65314SOL    HW197716  11.426   8.729  14.021
65314SOL    HW297717  11.330   8.613  14.006
65315SOL     OW97718  13.795   1.574   6.408
65315SOL    HW197719  13.755   1.572   6.321
65315SOL    HW297720  13.849   1.653   6.408
65316SOL     OW97721   5.655  12.810   7.001
65316SOL    HW197722   5.614  12.810   6.915
65316SOL    HW297723   5.583  12.794   7.062
65317SOL     OW97724   7.852   0.501   3.516
65317SOL    HW197725   7.807   0.419   3.537
65317SOL    HW297726   7.893   0.484   3.432
65318SOL     OW97727  11.678   9.499   6.674
65318SOL    HW197728  11.763   9.456   6.663
65318SOL    HW297729  11.615   9.432   6.648
65319SOL     OW97730  10.213   5.527   3.756
65319SOL    HW197731  10.218   5.433   3.773
65319SOL    HW297732  10.142   5.535   3.692
65320SOL     OW97733   9.095   4.605   8.492
65320SOL    HW197734   9.010   4.578   8.458
65320SOL    HW297735   9.156   4.541   8.455
65321SOL     OW97736  12.364   5.510   7.965
65321SOL    HW197737  12.320   5.548   8.042
65321SOL    HW297738  12.457   5.511   7.988
65322SOL     OW97739   6.258   1.980   8.790
65322SOL    HW197740   6.182   2.037   8.798
65322SOL    HW297741   6.263   1.960   8.696
65323SOL     OW97742   5.683   9.285  14.723
65323SOL    HW197743   5.688   9.243  14.638
65323SOL    HW297744   5.597   9.328  14.723
65324SOL     OW97745   0.119   8.664  13.859
65324SOL    HW197746   0.083   8.616  13.933
65324SOL    HW297747   0.102   8.607  13.783
65325SOL     OW97748  12.291  12.464  14.871
65325SOL    HW197749  12.268  12.557  14.879
65325SOL    HW297750  12.207  12.421  14.852
65326SOL     OW97751   1.678   0.750   0.152
65326SOL    HW197752   1.625   0.811   0.203
65326SOL    HW297753   1.665   0.665   0.194
65327SOL     OW97754   0.418   6.005   8.663
65327SOL    HW197755   0.347   5.955   8.625
65327SOL    HW297756   0.419   6.087   8.614
65328SOL     OW97757   1.505   1.992   0.757
65328SOL    HW197758   1.433   1.944   0.797
65328SOL    HW297759   1.584   1.958   0.799
65329SOL     OW97760  10.876   4.979  12.231
65329SOL    HW197761  10.864   4.885  12.222
65329SOL    HW297762  10.901   4.992  12.323
65330SOL     OW97763  14.828  12.932   9.978
65330SOL    HW197764  14.859  12.934  10.068
65330SOL    HW297765  14.737  12.904   9.984
65331SOL     OW97766   7.823  10.472   2.324
65331SOL    HW197767   7.896  10.437   2.272
65331SOL    HW297768   7.865  10.503   2.405
65332SOL     OW97769  10.947   1.194   8.076
65332SOL    HW197770  10.986   1.159   7.996
65332SOL    HW297771  11.020   1.202   8.137
65333SOL     OW97772   7.798  11.681  12.102
65333SOL    HW197773   7.810  11.739  12.027
65333SOL    HW297774   7.703  11.667  12.107
65334SOL     OW97775  11.800  12.278   4.541
65334SOL    HW197776  11.878  12.240   4.500
65334SOL    HW297777  11.734  12.279   4.472
65335SOL     OW97778   2.483   4.524  13.852
65335SOL    HW197779   2.458   4.608  13.890
65335SOL    HW297780   2.422   4.461  13.891
65336SOL     OW97781   3.984   2.680   5.645
65336SOL    HW197782   3.957   2.707   5.733
65336SOL    HW297783   4.077   2.661   5.653
65337SOL     OW97784   1.764   1.973  12.642
65337SOL    HW197785   1.715   2.052  12.618
65337SOL    HW297786   1.703   1.921  12.693
65338SOL     OW97787   7.384   9.079  11.293
65338SOL    HW197788   7.408   9.007  11.352
65338SOL    HW297789   7.351   9.035  11.215
65339SOL     OW97790   5.019   7.934   6.455
65339SOL    HW197791   4.937   7.902   6.492
65339SOL    HW297792   5.047   7.866   6.394
65340SOL     OW97793   5.883   0.596   3.143
65340SOL    HW197794   5.958   0.639   3.103
65340SOL    HW297795   5.903   0.592   3.236
65341SOL     OW97796   1.132   1.951  10.381
65341SOL    HW197797   1.047   1.966  10.340
65341SOL    HW297798   1.143   2.024  10.442
65342SOL     OW97799   8.211   3.330   3.531
65342SOL    HW197800   8.295   3.307   3.492
65342SOL    HW297801   8.148   3.322   3.460
65343SOL     OW97802   7.046  14.715  11.651
65343SOL    HW197803   7.112  14.730  11.584
65343SOL    HW297804   7.076  14.637  11.697
65344SOL     OW97805  12.973   0.371   5.092
65344SOL    HW197806  12.882   0.400   5.100
65344SOL    HW297807  13.023   0.436   5.142
65345SOL     OW97808  14.200   1.998   1.147
65345SOL    HW197809  14.108   1.972   1.153
65345SOL    HW297810  14.245   1.941   1.209
65346SOL     OW97811   3.630   4.885   6.255
65346SOL    HW197812   3.661   4.939   6.328
65346SOL    HW297813   3.708   4.873   6.200
65347SOL     OW97814   8.277   1.722   6.651
65347SOL    HW197815   8.333   1.683   6.584
65347SOL    HW297816   8.338   1.758   6.715
65348SOL     OW97817   3.745  12.198  12.003
65348SOL    HW197818   3.711  12.128  11.949
65348SOL    HW297819   3.747  12.275  11.946
65349SOL     OW97820   5.217   0.944   1.007
65349SOL    HW197821   5.186   0.968   0.920
65349SOL    HW297822   5.282   1.011   1.029
65350SOL     OW97823   4.309   1.334   3.764
65350SOL    HW197824   4.336   1.273   3.832
65350SOL    HW297825   4.229   1.374   3.799
65351SOL     OW97826   9.877   1.674   5.270
65351SOL    HW197827   9.947   1.726   5.231
65351SOL    HW297828   9.798   1.729   5.261
65352SOL     OW97829   9.318   5.101   6.240
65352SOL    HW197830   9.262   5.067   6.309
65352SOL    HW297831   9.261   5.106   6.163
65353SOL     OW97832   5.379   4.928  14.695
65353SOL    HW197833   5.424   4.854  14.737
65353SOL    HW297834   5.315   4.957  14.760
65354SOL     OW97835   9.936   1.751  10.331
65354SOL    HW197836   9.910   1.672  10.378
65354SOL    HW297837   9.891   1.822  10.377
65355SOL     OW97838   0.062   2.653   9.789
65355SOL    HW197839   0.149   2.656   9.748
65355SOL    HW297840   0.055   2.737   9.835
65356SOL     OW97841   0.555   8.981   7.214
65356SOL    HW197842   0.519   9.028   7.140
65356SOL    HW297843   0.616   9.043   7.255
65357SOL     OW97844  13.749   0.123  13.387
65357SOL    HW197845  13.774   0.182  13.316
65357SOL    HW297846  13.813   0.052  13.382
65358SOL     OW97847   1.760   2.084   6.262
65358SOL    HW197848   1.794   2.060   6.176
65358SOL    HW297849   1.824   2.047   6.324
65359SOL     OW97850  14.681   9.143  13.248
65359SOL    HW197851  14.698   9.075  13.183
65359SOL    HW297852  14.708   9.104  13.331
65360SOL     OW97853  13.098   8.842  10.121
65360SOL    HW197854  13.185   8.861  10.155
65360SOL    HW297855  13.039   8.860  10.195
65361SOL     OW97856   5.170   0.003   2.847
65361SOL    HW197857   5.119   0.083   2.836
65361SOL    HW297858   5.249   0.017   2.793
65362SOL     OW97859   9.386   0.777   4.674
65362SOL    HW197860   9.389   0.723   4.752
65362SOL    HW297861   9.455   0.741   4.617
65363SOL     OW97862  12.133   6.444   5.668
65363SOL    HW197863  12.105   6.376   5.730
65363SOL    HW297864  12.225   6.457   5.688
65364SOL     OW97865  14.796   0.111   7.977
65364SOL    HW197866  14.769   0.131   7.887
65364SOL    HW297867  14.839   0.190   8.008
65365SOL     OW97868  10.940   3.702   8.578
65365SOL    HW197869  10.866   3.696   8.639
65365SOL    HW297870  11.006   3.752   8.625
65366SOL     OW97871   8.742  10.865   7.875
65366SOL    HW197872   8.751  10.772   7.896
65366SOL    HW297873   8.805  10.880   7.805
65367SOL     OW97874   2.048   8.715   4.327
65367SOL    HW197875   2.059   8.810   4.339
65367SOL    HW297876   2.138   8.681   4.324
65368SOL     OW97877   5.835  14.481  10.212
65368SOL    HW197878   5.920  14.521  10.193
65368SOL    HW297879   5.854  14.387  10.219
65369SOL     OW97880   1.749   1.074  11.636
65369SOL    HW197881   1.802   1.103  11.711
65369SOL    HW297882   1.730   1.154  11.587
65370SOL     OW97883  13.194   5.606   2.273
65370SOL    HW197884  13.219   5.697   2.258
65370SOL    HW297885  13.233   5.558   2.199
65371SOL     OW97886   4.894   4.655   0.768
65371SOL    HW197887   4.830   4.591   0.799
65371SOL    HW297888   4.899   4.640   0.674
65372SOL     OW97889   2.125  11.679  11.321
65372SOL    HW197890   2.183  11.727  11.263
65372SOL    HW297891   2.136  11.587  11.297
65373SOL     OW97892   7.316   0.009  10.360
65373SOL    HW197893   7.245  14.826  10.366
65373SOL    HW297894   7.274   0.087  10.322
65374SOL     OW97895  10.423   8.072   2.544
65374SOL    HW197896  10.426   7.990   2.594
65374SOL    HW297897  10.510   8.079   2.505
65375SOL     OW97898   8.494  13.607   4.429
65375SOL    HW197899   8.530  13.563   4.506
65375SOL    HW297900   8.421  13.552   4.402
65376SOL     OW97901   0.758  14.255   0.290
65376SOL    HW197902   0.838  14.218   0.328
65376SOL    HW297903   0.689  14.233   0.353
65377SOL     OW97904  14.428   9.299  10.139
65377SOL    HW197905  14.502   9.332  10.189
65377SOL    HW297906  14.467   9.242  10.073
65378SOL     OW97907  10.713   8.366   7.118
65378SOL    HW197908  10.634   8.352   7.067
65378SOL    HW297909  10.690   8.436   7.179
65379SOL     OW97910   1.614  13.937   2.840
65379SOL    HW197911   1.593  14.006   2.776
65379SOL    HW297912   1.705  13.954   2.864
65380SOL     OW97913   7.843   9.550   7.237
65380SOL    HW197914   7.810   9.610   7.303
65380SOL    HW297915   7.883   9.478   7.287
65381SOL     OW97916   3.386  12.923  13.224
65381SOL    HW197917   3.428  12.851  13.271
65381SOL    HW297918   3.426  12.921  13.137
65382SOL     OW97919  13.411  10.804  12.264
65382SOL    HW197920  13.506  10.813  12.259
65382SOL    HW297921  13.384  10.873  12.325
65383SOL     OW97922  13.086   1.764  11.270
65383SOL    HW197923  13.121   1.846  11.305
65383SOL    HW297924  12.999   1.787  11.236
65384SOL     OW97925   1.285   6.272  13.195
65384SOL    HW197926   1.376   6.287  13.220
65384SOL    HW297927   1.291   6.223  13.113
65385SOL     OW97928   2.494   7.298   2.106
65385SOL    HW197929   2.462   7.232   2.167
65385SOL    HW297930   2.448   7.379   2.132
65386SOL     OW97931   8.969   4.199   0.671
65386SOL    HW197932   8.874   4.209   0.665
65386SOL    HW297933   8.981   4.116   0.717
65387SOL     OW97934  13.324  11.536  13.376
65387SOL    HW197935  13.291  11.503  13.460
65387SOL    HW297936  13.418  11.544  13.388
65388SOL     OW97937  10.487   2.225   7.947
65388SOL    HW197938  10.516   2.160   7.882
65388SOL    HW297939  10.564   2.281   7.960
65389SOL     OW97940   8.110   9.684   0.353
65389SOL    HW197941   8.144   9.599   0.326
65389SOL    HW297942   8.164   9.709   0.429
65390SOL     OW97943   8.162   7.575  14.415
65390SOL    HW197944   8.097   7.578  14.486
65390SOL    HW297945   8.244   7.554  14.459
65391SOL     OW97946   2.206   4.359   2.566
65391SOL    HW197947   2.190   4.278   2.614
65391SOL    HW297948   2.291   4.346   2.524
65392SOL     OW97949  10.122   7.231   4.239
65392SOL    HW197950  10.069   7.310   4.225
65392SOL    HW297951  10.062   7.159   4.223
65393SOL     OW97952  14.509  11.134   0.062
65393SOL    HW197953  14.489  11.202  14.880
65393SOL    HW297954  14.460  11.058   0.032
65394SOL     OW97955   4.510  11.004   8.967
65394SOL    HW197956   4.500  10.950   9.045
65394SOL    HW297957   4.434  10.984   8.913
65395SOL     OW97958   7.322   5.071   1.965
65395SOL    HW197959   7.349   5.127   1.892
65395SOL    HW297960   7.238   5.107   1.993
65396SOL     OW97961  13.523  13.930   2.570
65396SOL    HW197962  13.450  13.869   2.559
65396SOL    HW297963  13.570  13.899   2.648
65397SOL     OW97964   3.946   6.772  12.228
65397SOL    HW197965   3.912   6.753  12.315
65397SOL    HW297966   4.021   6.829  12.243
65398SOL     OW97967  14.686   3.874   5.946
65398SOL    HW197968  14.764   3.899   5.995
65398SOL    HW297969  14.614   3.892   6.006
65399SOL     OW97970   6.463   8.237   4.834
65399SOL    HW197971   6.374   8.212   4.859
65399SOL    HW297972   6.518   8.168   4.872
65400SOL     OW97973  13.200  14.551   4.808
65400SOL    HW197974  13.254  14.551   4.887
65400SOL    HW297975  13.117  14.590   4.835
65401SOL     OW97976   2.762  14.587   9.991
65401SOL    HW197977   2.834  14.542  10.034
65401SOL    HW297978   2.708  14.517   9.954
65402SOL     OW97979  12.001   2.471   3.445
65402SOL    HW197980  12.014   2.449   3.538
65402SOL    HW297981  11.922   2.525   3.444
65403SOL     OW97982  12.569   0.842  10.102
65403SOL    HW197983  12.628   0.874  10.034
65403SOL    HW297984  12.528   0.764  10.063
65404SOL     OW97985   2.718   8.312   3.439
65404SOL    HW197986   2.743   8.226   3.473
65404SOL    HW297987   2.798   8.364   3.445
65405SOL     OW97988   8.193   3.224  11.838
65405SOL    HW197989   8.249   3.276  11.782
65405SOL    HW297990   8.247   3.203  11.914
65406SOL     OW97991   8.882   2.717   0.819
65406SOL    HW197992   8.829   2.657   0.873
65406SOL    HW297993   8.971   2.683   0.827
65407SOL     OW97994   5.045   3.285  10.697
65407SOL    HW197995   4.974   3.237  10.654
65407SOL    HW297996   5.006   3.320  10.776
65408SOL     OW97997   7.053   9.030   7.556
65408SOL    HW197998   7.124   9.091   7.575
65408SOL    HW297999   6.979   9.062   7.608
65409SOL     OW98000  13.164  12.509   0.561
65409SOL    HW198001  13.221  12.513   0.638
65409SOL    HW298002  13.076  12.526   0.595
65410SOL     OW98003   8.161   7.805  10.257
65410SOL    HW198004   8.080   7.835  10.297
65410SOL    HW298005   8.136   7.779  10.168
65411SOL     OW98006   3.881   0.019   9.157
65411SOL    HW198007   3.958  14.862   9.116
65411SOL    HW298008   3.842   0.073   9.088
65412SOL     OW98009   9.371   2.462   4.091
65412SOL    HW198010   9.414   2.447   4.006
65412SOL    HW298011   9.421   2.533   4.131
65413SOL     OW98012  12.633  12.292   4.731
65413SOL    HW198013  12.561  12.356   4.730
65413SOL    HW298014  12.708  12.341   4.697
65414SOL     OW98015  14.335   1.740   5.954
65414SOL    HW198016  14.368   1.661   5.997
65414SOL    HW298017  14.372   1.736   5.866
65415SOL     OW98018   0.861   4.440  10.844
65415SOL    HW198019   0.865   4.535  10.851
65415SOL    HW298020   0.894   4.408  10.928
65416SOL     OW98021   8.050   6.965   6.101
65416SOL    HW198022   8.125   6.992   6.154
65416SOL    HW298023   7.987   6.930   6.165
65417SOL     OW98024  13.735   7.007   9.801
65417SOL    HW198025  13.816   6.980   9.756
65417SOL    HW298026  13.699   7.077   9.746
65418SOL     OW98027   1.697  13.639  10.418
65418SOL    HW198028   1.761  13.710  10.419
65418SOL    HW298029   1.750  13.560  10.406
65419SOL     OW98030  11.414  13.875   1.014
65419SOL    HW198031  11.457  13.792   1.035
65419SOL    HW298032  11.433  13.931   1.089
65420SOL     OW98033  10.113  11.167   8.896
65420SOL    HW198034  10.182  11.186   8.960
65420SOL    HW298035  10.130  11.078   8.867
65421SOL     OW98036  11.872   3.662   5.426
65421SOL    HW198037  11.907   3.586   5.379
65421SOL    HW298038  11.948   3.697   5.474
65422SOL     OW98039   3.038   0.953  14.116
65422SOL    HW198040   3.047   1.041  14.154
65422SOL    HW298041   3.063   0.965  14.024
65423SOL     OW98042   1.735   2.619   7.353
65423SOL    HW198043   1.794   2.546   7.336
65423SOL    HW298044   1.727   2.664   7.269
65424SOL     OW98045   9.687   1.886   5.264
65424SOL    HW198046   9.655   1.877   5.174
65424SOL    HW298047   9.666   1.976   5.288
65425SOL     OW98048  11.457  14.390   9.932
65425SOL    HW198049  11.429  14.382   9.841
65425SOL    HW298050  11.435  14.305   9.971
65426SOL     OW98051   9.377   2.209  12.384
65426SOL    HW198052   9.321   2.145  12.428
65426SOL    HW298053   9.377   2.285  12.442
65427SOL     OW98054   8.735   0.357  13.418
65427SOL    HW198055   8.698   0.303  13.348
65427SOL    HW298056   8.694   0.323  13.498
65428SOL     OW98057   5.243   8.685   8.833
65428SOL    HW198058   5.242   8.722   8.921
65428SOL    HW298059   5.309   8.736   8.786
65429SOL     OW98060   0.944   3.891   0.368
65429SOL    HW198061   0.905   3.814   0.410
65429SOL    HW298062   0.941   3.870   0.274
65430SOL     OW98063   1.142   1.884   8.603
65430SOL    HW198064   1.220   1.846   8.645
65430SOL    HW298065   1.170   1.970   8.574
65431SOL     OW98066   1.628   4.184   9.775
65431SOL    HW198067   1.559   4.240   9.810
65431SOL    HW298068   1.692   4.244   9.739
65432SOL     OW98069   9.200  14.014  14.696
65432SOL    HW198070   9.126  14.008  14.756
65432SOL    HW298071   9.160  14.017  14.609
65433SOL     OW98072   1.164  11.798  11.262
65433SOL    HW198073   1.107  11.826  11.333
65433SOL    HW298074   1.208  11.878  11.232
65434SOL     OW98075   6.696   9.240   2.816
65434SOL    HW198076   6.761   9.172   2.831
65434SOL    HW298077   6.733   9.318   2.857
65435SOL     OW98078   3.835   9.403   8.272
65435SOL    HW198079   3.784   9.369   8.198
65435SOL    HW298080   3.772   9.414   8.342
65436SOL     OW98081   7.957   3.920   3.193
65436SOL    HW198082   7.922   3.979   3.259
65436SOL    HW298083   7.935   3.833   3.225
65437SOL     OW98084  11.648  11.513   5.861
65437SOL    HW198085  11.670  11.510   5.955
65437SOL    HW298086  11.722  11.558   5.821
65438SOL     OW98087  14.149   0.034   3.099
65438SOL    HW198088  14.054   0.025   3.107
65438SOL    HW298089  14.169   0.001   3.011
65439SOL     OW98090   8.064  12.354  14.674
65439SOL    HW198091   7.997  12.286  14.663
65439SOL    HW298092   8.144  12.305  14.694
65440SOL     OW98093  13.054  10.019   4.459
65440SOL    HW198094  13.007  10.044   4.539
65440SOL    HW298095  13.145  10.013   4.486
65441SOL     OW98096  14.006  13.608   3.127
65441SOL    HW198097  14.056  13.603   3.209
65441SOL    HW298098  13.936  13.543   3.138
65442SOL     OW98099   0.997  13.166   9.781
65442SOL    HW198100   0.970  13.254   9.810
65442SOL    HW298101   0.922  13.110   9.803
65443SOL     OW98102   7.824   0.743   5.912
65443SOL    HW198103   7.738   0.776   5.888
65443SOL    HW298104   7.860   0.709   5.830
65444SOL     OW98105  12.314   9.909   1.997
65444SOL    HW198106  12.274   9.995   1.987
65444SOL    HW298107  12.268   9.853   1.934
65445SOL     OW98108  13.876   9.732   2.894
65445SOL    HW198109  13.960   9.689   2.909
65445SOL    HW298110  13.880   9.813   2.945
65446SOL     OW98111  14.083   1.634   8.156
65446SOL    HW198112  14.155   1.687   8.193
65446SOL    HW298113  14.026   1.698   8.114
65447SOL     OW98114   1.228   0.896   1.866
65447SOL    HW198115   1.149   0.878   1.916
65447SOL    HW298116   1.291   0.830   1.895
65448SOL     OW98117   8.796   6.158  12.701
65448SOL    HW198118   8.809   6.220  12.773
65448SOL    HW298119   8.728   6.099  12.732
65449SOL     OW98120   1.959  11.830  10.095
65449SOL    HW198121   1.885  11.804  10.151
65449SOL    HW298122   1.920  11.837  10.008
65450SOL     OW98123   3.347  13.031   6.487
65450SOL    HW198124   3.278  13.082   6.444
65450SOL    HW298125   3.351  13.066   6.576
65451SOL     OW98126   0.753   0.231   9.088
65451SOL    HW198127   0.826   0.274   9.044
65451SOL    HW298128   0.687   0.299   9.097
65452SOL     OW98129   8.855  13.454   8.102
65452SOL    HW198130   8.852  13.545   8.072
65452SOL    HW298131   8.898  13.407   8.031
65453SOL     OW98132  12.910  11.909   9.835
65453SOL    HW198133  12.986  11.954   9.798
65453SOL    HW298134  12.924  11.817   9.812
65454SOL     OW98135   0.270  14.105   1.778
65454SOL    HW198136   0.341  14.170   1.774
65454SOL    HW298137   0.258  14.089   1.872
65455SOL     OW98138   3.697   6.214   7.739
65455SOL    HW198139   3.680   6.132   7.785
65455SOL    HW298140   3.775   6.195   7.686
65456SOL     OW98141   8.695   4.291   6.830
65456SOL    HW198142   8.763   4.255   6.887
65456SOL    HW298143   8.630   4.327   6.891
65457SOL     OW98144   0.200   4.200   4.734
65457SOL    HW198145   0.151   4.258   4.676
65457SOL    HW298146   0.158   4.115   4.725
65458SOL     OW98147  14.876   6.119   2.780
65458SOL    HW198148   0.075   6.170   2.772
65458SOL    HW298149  14.806   6.184   2.773
65459SOL     OW98150   6.767   9.215   7.394
65459SOL    HW198151   6.838   9.261   7.438
65459SOL    HW298152   6.689   9.265   7.416
65460SOL     OW98153   1.499   2.899   9.517
65460SOL    HW198154   1.453   2.836   9.573
65460SOL    HW298155   1.537   2.961   9.579
65461SOL     OW98156  11.368   6.201  11.522
65461SOL    HW198157  11.406   6.120  11.556
65461SOL    HW298158  11.302   6.226  11.587
65462SOL     OW98159   5.869   8.872   5.237
65462SOL    HW198160   5.883   8.966   5.234
65462SOL    HW298161   5.929   8.837   5.171
65463SOL     OW98162   8.937   2.983  12.273
65463SOL    HW198163   8.952   3.070  12.312
65463SOL    HW298164   8.842   2.973  12.271
65464SOL     OW98165   9.519  11.042   0.484
65464SOL    HW198166   9.458  11.048   0.411
65464SOL    HW298167   9.585  11.108   0.467
65465SOL     OW98168   4.472   5.751   1.050
65465SOL    HW198169   4.494   5.789   0.964
65465SOL    HW298170   4.475   5.825   1.110
65466SOL     OW98171   6.847   6.057   6.552
65466SOL    HW198172   6.788   6.000   6.504
65466SOL    HW298173   6.934   6.025   6.531
65467SOL     OW98174   7.977  10.316   6.907
65467SOL    HW198175   7.961  10.222   6.920
65467SOL    HW298176   7.890  10.354   6.896
65468SOL     OW98177   0.185   3.394   9.599
65468SOL    HW198178   0.224   3.480   9.615
65468SOL    HW298179   0.094   3.414   9.575
65469SOL     OW98180   2.364  12.791  12.824
65469SOL    HW198181   2.335  12.709  12.865
65469SOL    HW298182   2.429  12.762  12.759
65470SOL     OW98183   4.229   0.068  12.949
65470SOL    HW198184   4.246   0.066  13.043
65470SOL    HW298185   4.171   0.143  12.936
65471SOL     OW98186  10.542  14.448   1.082
65471SOL    HW198187  10.614  14.481   1.029
65471SOL    HW298188  10.544  14.501   1.162
65472SOL     OW98189   6.631   9.229  11.620
65472SOL    HW198190   6.598   9.153  11.572
65472SOL    HW298191   6.687   9.275  11.557
65473SOL     OW98192  11.832   5.365   8.749
65473SOL    HW198193  11.827   5.388   8.842
65473SOL    HW298194  11.896   5.426   8.713
65474SOL     OW98195  11.510   6.362   9.963
65474SOL    HW198196  11.580   6.348  10.027
65474SOL    HW298197  11.554   6.374   9.880
65475SOL     OW98198  13.508  11.647   5.980
65475SOL    HW198199  13.520  11.600   5.897
65475SOL    HW298200  13.462  11.585   6.036
65476SOL     OW98201  14.353   8.548   6.034
65476SOL    HW198202  14.358   8.644   6.041
65476SOL    HW298203  14.259   8.531   6.023
65477SOL     OW98204   0.795   6.005   3.799
65477SOL    HW198205   0.776   6.063   3.726
65477SOL    HW298206   0.712   5.994   3.844
65478SOL     OW98207   1.993   5.357   4.777
65478SOL    HW198208   2.073   5.408   4.790
65478SOL    HW298209   2.021   5.280   4.728
65479SOL     OW98210   3.710  11.256   1.264
65479SOL    HW198211   3.648  11.325   1.289
65479SOL    HW298212   3.773  11.301   1.208
65480SOL     OW98213   9.345  12.463   4.971
65480SOL    HW198214   9.388  12.420   4.897
65480SOL    HW298215   9.252  12.465   4.948
65481SOL     OW98216   3.266  12.178   0.991
65481SOL    HW198217   3.338  12.170   0.929
65481SOL    HW298218   3.281  12.108   1.055
65482SOL     OW98219   6.149   5.904  10.917
65482SOL    HW198220   6.058   5.929  10.930
65482SOL    HW298221   6.154   5.812  10.944
65483SOL     OW98222   7.279   7.077   5.254
65483SOL    HW198223   7.297   7.155   5.305
65483SOL    HW298224   7.302   7.101   5.164
65484SOL     OW98225   8.966   6.729   0.990
65484SOL    HW198226   9.039   6.730   1.052
65484SOL    HW298227   8.905   6.664   1.025
65485SOL     OW98228   3.218   0.993   5.116
65485SOL    HW198229   3.229   1.021   5.207
65485SOL    HW298230   3.284   1.043   5.067
65486SOL     OW98231   7.409   1.395   1.080
65486SOL    HW198232   7.444   1.415   1.166
65486SOL    HW298233   7.434   1.470   1.026
65487SOL     OW98234   9.599  14.098   0.328
65487SOL    HW198235   9.584  14.016   0.375
65487SOL    HW298236   9.633  14.071   0.243
65488SOL     OW98237   9.755   7.819   6.915
65488SOL    HW198238   9.721   7.736   6.950
65488SOL    HW298239   9.775   7.871   6.993
65489SOL     OW98240   0.120   9.758   3.447
65489SOL    HW198241   0.078   9.674   3.426
65489SOL    HW298242   0.099   9.814   3.373
65490SOL     OW98243  13.393   5.414   0.315
65490SOL    HW198244  13.369   5.410   0.223
65490SOL    HW298245  13.488   5.424   0.315
65491SOL     OW98246   4.547   6.723   7.091
65491SOL    HW198247   4.519   6.738   7.181
65491SOL    HW298248   4.620   6.662   7.098
65492SOL     OW98249  14.617  11.473   6.721
65492SOL    HW198250  14.612  11.386   6.761
65492SOL    HW298251  14.636  11.456   6.629
65493SOL     OW98252   7.137   0.494   8.594
65493SOL    HW198253   7.209   0.473   8.653
65493SOL    HW298254   7.080   0.552   8.645
65494SOL     OW98255  14.806   7.902   7.563
65494SOL    HW198256  14.819   7.825   7.620
65494SOL    HW298257  14.830   7.976   7.617
65495SOL     OW98258   4.294   1.528   8.689
65495SOL    HW198259   4.363   1.495   8.746
65495SOL    HW298260   4.212   1.498   8.730
65496SOL     OW98261  11.959   4.955   7.325
65496SOL    HW198262  11.910   4.945   7.407
65496SOL    HW298263  12.050   4.942   7.350
65497SOL     OW98264   6.448   3.479   9.682
65497SOL    HW198265   6.383   3.434   9.736
65497SOL    HW298266   6.398   3.509   9.606
65498SOL     OW98267  13.648   8.317  14.683
65498SOL    HW198268  13.690   8.402  14.669
65498SOL    HW298269  13.693   8.280  14.759
65499SOL     OW98270  10.997  12.803   7.526
65499SOL    HW198271  10.928  12.791   7.591
65499SOL    HW298272  11.069  12.842   7.575
65500SOL     OW98273   7.681   4.860  13.119
65500SOL    HW198274   7.608   4.868  13.180
65500SOL    HW298275   7.653   4.909  13.042
65501SOL     OW98276  10.476   6.895   4.614
65501SOL    HW198277  10.382   6.911   4.609
65501SOL    HW298278  10.507   6.956   4.681
65502SOL     OW98279   5.780  12.139  14.618
65502SOL    HW198280   5.855  12.180  14.660
65502SOL    HW298281   5.785  12.168  14.527
65503SOL     OW98282   6.652   9.574   6.539
65503SOL    HW198283   6.562   9.574   6.571
65503SOL    HW298284   6.678   9.482   6.541
65504SOL     OW98285  10.091   4.607   8.686
65504SOL    HW198286   9.996   4.615   8.692
65504SOL    HW298287  10.124   4.637   8.771
65505SOL     OW98288  10.260   5.235   4.741
65505SOL    HW198289  10.255   5.330   4.752
65505SOL    HW298290  10.353   5.214   4.749
65506SOL     OW98291   0.116  13.843   8.297
65506SOL    HW198292   0.040  13.868   8.244
65506SOL    HW298293   0.101  13.751   8.320
65507SOL     OW98294   2.102   3.037   3.911
65507SOL    HW198295   2.059   3.028   3.996
65507SOL    HW298296   2.104   3.131   3.895
65508SOL     OW98297   4.331   7.005  12.800
65508SOL    HW198298   4.415   7.044  12.824
65508SOL    HW298299   4.272   7.029  12.871
65509SOL     OW98300   4.815   5.902   2.731
65509SOL    HW198301   4.727   5.882   2.700
65509SOL    HW298302   4.874   5.857   2.670
65510SOL     OW98303   2.728   0.783  13.270
65510SOL    HW198304   2.789   0.856  13.284
65510SOL    HW298305   2.780   0.706  13.292
65511SOL     OW98306   7.393   5.464   9.518
65511SOL    HW198307   7.302   5.494   9.519
65511SOL    HW298308   7.409   5.440   9.426
65512SOL     OW98309   9.219   2.695  10.846
65512SOL    HW198310   9.311   2.688  10.824
65512SOL    HW298311   9.176   2.625  10.797
65513SOL     OW98312   5.677   3.239   1.724
65513SOL    HW198313   5.693   3.325   1.685
65513SOL    HW298314   5.620   3.195   1.661
65514SOL     OW98315   1.850   9.797   4.409
65514SOL    HW198316   1.810   9.710   4.398
65514SOL    HW298317   1.789   9.843   4.467
65515SOL     OW98318   8.453   3.226  14.162
65515SOL    HW198319   8.475   3.154  14.102
65515SOL    HW298320   8.435   3.300  14.104
65516SOL     OW98321   5.096  11.358   4.141
65516SOL    HW198322   5.082  11.448   4.172
65516SOL    HW298323   5.136  11.369   4.055
65517SOL     OW98324  10.134   6.101   5.837
65517SOL    HW198325  10.202   6.044   5.873
65517SOL    HW298326  10.082   6.044   5.781
65518SOL     OW98327   4.723   7.621  11.595
65518SOL    HW198328   4.639   7.582  11.570
65518SOL    HW298329   4.701   7.709  11.625
65519SOL     OW98330   5.801   0.947   3.210
65519SOL    HW198331   5.877   0.980   3.163
65519SOL    HW298332   5.833   0.931   3.299
65520SOL     OW98333   8.539   2.348   4.853
65520SOL    HW198334   8.468   2.289   4.827
65520SOL    HW298335   8.503   2.436   4.840
65521SOL     OW98336   1.030  11.417   4.162
65521SOL    HW198337   0.950  11.400   4.112
65521SOL    HW298338   1.057  11.505   4.134
65522SOL     OW98339   0.135   6.246   3.838
65522SOL    HW198340   0.059   6.219   3.889
65522SOL    HW298341   0.100   6.306   3.773
65523SOL     OW98342  12.992  13.508   5.181
65523SOL    HW198343  12.947  13.448   5.122
65523SOL    HW298344  12.937  13.511   5.260
65524SOL     OW98345  13.924  10.947  10.199
65524SOL    HW198346  13.870  10.966  10.123
65524SOL    HW298347  13.944  11.032  10.236
65525SOL     OW98348  13.550  11.948   0.039
65525SOL    HW198349  13.607  11.872   0.043
65525SOL    HW298350  13.536  11.963  14.827
65526SOL     OW98351   2.525   4.236  13.806
65526SOL    HW198352   2.441   4.227  13.761
65526SOL    HW298353   2.553   4.325  13.785
65527SOL     OW98354   3.170  14.245  11.103
65527SOL    HW198355   3.254  14.211  11.073
65527SOL    HW298356   3.105  14.195  11.053
65528SOL     OW98357  12.060  14.235   3.275
65528SOL    HW198358  12.028  14.212   3.363
65528SOL    HW298359  11.982  14.266   3.229
65529SOL     OW98360   0.003   8.811   8.545
65529SOL    HW198361   0.090   8.786   8.575
65529SOL    HW298362  14.880   8.906   8.558
65530SOL     OW98363   1.858  13.556  12.418
65530SOL    HW198364   1.813  13.640  12.429
65530SOL    HW298365   1.935  13.576  12.365
65531SOL     OW98366  14.686   9.691   2.666
65531SOL    HW198367  14.761   9.632   2.674
65531SOL    HW298368  14.698   9.733   2.580
65532SOL     OW98369   8.607   6.458   8.683
65532SOL    HW198370   8.591   6.534   8.739
65532SOL    HW298371   8.688   6.478   8.637
65533SOL     OW98372  13.666  10.722   6.278
65533SOL    HW198373  13.676  10.638   6.233
65533SOL    HW298374  13.615  10.701   6.357
65534SOL     OW98375   6.515  12.895   8.253
65534SOL    HW198376   6.460  12.974   8.250
65534SOL    HW298377   6.590  12.917   8.197
65535SOL     OW98378  14.292  10.097  11.409
65535SOL    HW198379  14.219  10.120  11.352
65535SOL    HW298380  14.255  10.032  11.469
65536SOL     OW98381   5.286  13.926   0.962
65536SOL    HW198382   5.256  13.915   1.052
65536SOL    HW298383   5.294  14.021   0.951
65537SOL     OW98384   7.893   8.930   8.093
65537SOL    HW198385   7.964   8.905   8.152
65537SOL    HW298386   7.857   9.010   8.132
65538SOL     OW98387   6.863  14.403   3.427
65538SOL    HW198388   6.829  14.333   3.483
65538SOL    HW298389   6.813  14.395   3.346
65539SOL     OW98390   9.209   6.874   6.400
65539SOL    HW198391   9.148   6.834   6.338
65539SOL    HW298392   9.156   6.938   6.448
65540SOL     OW98393   3.180  10.797   7.495
65540SOL    HW198394   3.184  10.714   7.542
65540SOL    HW298395   3.231  10.782   7.416
65541SOL     OW98396   3.821   5.796   6.789
65541SOL    HW198397   3.816   5.707   6.825
65541SOL    HW298398   3.826   5.852   6.866
65542SOL     OW98399   4.751  12.078   1.519
65542SOL    HW198400   4.721  12.124   1.440
65542SOL    HW298401   4.766  12.148   1.583
65543SOL     OW98402   8.615   1.517  13.733
65543SOL    HW198403   8.696   1.522  13.783
65543SOL    HW298404   8.619   1.592  13.673
65544SOL     OW98405   3.485   7.658   0.500
65544SOL    HW198406   3.445   7.571   0.504
65544SOL    HW298407   3.570   7.644   0.459
65545SOL     OW98408   4.950   6.435   7.020
65545SOL    HW198409   5.034   6.459   7.060
65545SOL    HW298410   4.934   6.503   6.955
65546SOL     OW98411   7.679   7.973   2.624
65546SOL    HW198412   7.601   7.918   2.626
65546SOL    HW298413   7.694   7.996   2.716
65547SOL     OW98414   9.873   0.822  11.894
65547SOL    HW198415   9.951   0.878  11.903
65547SOL    HW298416   9.908   0.733  11.888
65548SOL     OW98417   4.198   0.650  10.187
65548SOL    HW198418   4.178   0.614  10.274
65548SOL    HW298419   4.208   0.573  10.131
65549SOL     OW98420   1.072  12.019   2.166
65549SOL    HW198421   1.070  12.039   2.260
65549SOL    HW298422   1.080  11.924   2.162
65550SOL     OW98423  12.475   4.708   2.120
65550SOL    HW198424  12.390   4.695   2.162
65550SOL    HW298425  12.532   4.739   2.191
65551SOL     OW98426   6.705  11.054  13.489
65551SOL    HW198427   6.776  11.114  13.513
65551SOL    HW298428   6.661  11.034  13.572
65552SOL     OW98429   9.000   3.300   5.838
65552SOL    HW198430   8.945   3.232   5.875
65552SOL    HW298431   9.066   3.253   5.787
65553SOL     OW98432   3.811   9.533  14.475
65553SOL    HW198433   3.802   9.580  14.391
65553SOL    HW298434   3.905   9.517  14.484
65554SOL     OW98435   7.189   2.197  12.636
65554SOL    HW198436   7.188   2.282  12.680
65554SOL    HW298437   7.282   2.178  12.621
65555SOL     OW98438   2.762  12.892  12.107
65555SOL    HW198439   2.807  12.894  12.192
65555SOL    HW298440   2.804  12.820  12.060
65556SOL     OW98441  11.496  14.359   5.322
65556SOL    HW198442  11.426  14.379   5.384
65556SOL    HW298443  11.452  14.347   5.238
65557SOL     OW98444  10.932   3.158   7.867
65557SOL    HW198445  10.910   3.069   7.841
65557SOL    HW298446  10.854   3.190   7.911
65558SOL     OW98447   6.623   4.726   3.990
65558SOL    HW198448   6.678   4.648   3.985
65558SOL    HW298449   6.583   4.721   4.077
65559SOL     OW98450  13.864   3.364  10.825
65559SOL    HW198451  13.780   3.321  10.814
65559SOL    HW298452  13.928   3.294  10.814
65560SOL     OW98453   0.859   5.087   4.614
65560SOL    HW198454   0.802   5.047   4.680
65560SOL    HW298455   0.801   5.107   4.541
65561SOL     OW98456  12.825   4.463   3.096
65561SOL    HW198457  12.918   4.441   3.092
65561SOL    HW298458  12.794   4.419   3.175
65562SOL     OW98459  10.849   3.957  11.932
65562SOL    HW198460  10.926   3.901  11.941
65562SOL    HW298461  10.882   4.039  11.895
65563SOL     OW98462   6.649  12.232   2.230
65563SOL    HW198463   6.571  12.258   2.279
65563SOL    HW298464   6.629  12.254   2.139
65564SOL     OW98465   1.838  11.252  11.841
65564SOL    HW198466   1.890  11.191  11.893
65564SOL    HW298467   1.820  11.204  11.760
65565SOL     OW98468   0.903   9.386  10.089
65565SOL    HW198469   0.998   9.397  10.092
65565SOL    HW298470   0.890   9.291  10.092
65566SOL     OW98471   8.116   3.363   1.578
65566SOL    HW198472   8.087   3.451   1.556
65566SOL    HW298473   8.048   3.330   1.637
65567SOL     OW98474   7.694   4.447   9.770
65567SOL    HW198475   7.617   4.491   9.736
65567SOL    HW298476   7.665   4.413   9.855
65568SOL     OW98477   6.631   9.253   6.759
65568SOL    HW198478   6.608   9.293   6.675
65568SOL    HW298479   6.694   9.184   6.737
65569SOL     OW98480  12.362   0.623   2.717
65569SOL    HW198481  12.414   0.684   2.666
65569SOL    HW298482  12.341   0.670   2.798
65570SOL     OW98483  10.232   0.543   6.555
65570SOL    HW198484  10.302   0.587   6.603
65570SOL    HW298485  10.163   0.609   6.548
65571SOL     OW98486   9.070   1.888   8.353
65571SOL    HW198487   9.059   1.971   8.306
65571SOL    HW298488   8.981   1.866   8.382
65572SOL     OW98489   3.879   3.028  10.421
65572SOL    HW198490   3.963   3.070  10.439
65572SOL    HW298491   3.899   2.962  10.355
65573SOL     OW98492   8.430  14.089   0.203
65573SOL    HW198493   8.378  14.013   0.230
65573SOL    HW298494   8.370  14.142   0.151
65574SOL     OW98495   5.336   6.230  14.518
65574SOL    HW198496   5.315   6.281  14.440
65574SOL    HW298497   5.372   6.294  14.579
65575SOL     OW98498   2.245   4.183  13.313
65575SOL    HW198499   2.150   4.170  13.315
65575SOL    HW298500   2.277   4.116  13.253
65576SOL     OW98501   5.589   4.192   4.576
65576SOL    HW198502   5.681   4.198   4.601
65576SOL    HW298503   5.541   4.213   4.656
65577SOL     OW98504  10.559   0.576   3.946
65577SOL    HW198505  10.655   0.574   3.951
65577SOL    HW298506  10.536   0.663   3.978
65578SOL     OW98507  13.285   8.749   0.028
65578SOL    HW198508  13.240   8.750  14.825
65578SOL    HW298509  13.337   8.669   0.027
65579SOL     OW98510  14.072   5.723  12.601
65579SOL    HW198511  14.009   5.788  12.631
65579SOL    HW298512  14.047   5.705  12.511
65580SOL     OW98513   2.343  10.303  12.362
65580SOL    HW198514   2.434  10.332  12.366
65580SOL    HW298515   2.344  10.232  12.298
65581SOL     OW98516   8.723   3.028  10.239
65581SOL    HW198517   8.787   2.969  10.280
65581SOL    HW298518   8.640   2.981  10.245
65582SOL     OW98519   6.718   6.283  14.031
65582SOL    HW198520   6.792   6.222  14.035
65582SOL    HW298521   6.752   6.364  14.069
65583SOL     OW98522   4.354  13.837   8.131
65583SOL    HW198523   4.445  13.807   8.141
65583SOL    HW298524   4.301  13.764   8.164
65584SOL     OW98525   4.739   7.516   5.155
65584SOL    HW198526   4.740   7.422   5.136
65584SOL    HW298527   4.712   7.556   5.072
65585SOL     OW98528   1.341   4.864   5.577
65585SOL    HW198529   1.313   4.934   5.518
65585SOL    HW298530   1.397   4.908   5.640
65586SOL     OW98531  10.321   3.017  11.168
65586SOL    HW198532  10.313   2.940  11.112
65586SOL    HW298533  10.237   3.063  11.158
65587SOL     OW98534  11.185   7.435  12.098
65587SOL    HW198535  11.170   7.526  12.123
65587SOL    HW298536  11.276   7.418  12.120
65588SOL     OW98537  10.462   1.208   1.978
65588SOL    HW198538  10.535   1.199   2.039
65588SOL    HW298539  10.415   1.285   2.009
65589SOL     OW98540   4.471   8.217   2.389
65589SOL    HW198541   4.427   8.151   2.336
65589SOL    HW298542   4.545   8.171   2.429
65590SOL     OW98543   7.173   4.308   7.696
65590SOL    HW198544   7.167   4.273   7.784
65590SOL    HW298545   7.165   4.403   7.707
65591SOL     OW98546  12.742  11.053  13.420
65591SOL    HW198547  12.794  11.048  13.339
65591SOL    HW298548  12.782  10.989  13.478
65592SOL     OW98549   8.022   5.229  13.634
65592SOL    HW198550   8.006   5.322  13.617
65592SOL    HW298551   7.944   5.200  13.682
65593SOL     OW98552  12.600  10.446   4.040
65593SOL    HW198553  12.537  10.438   4.111
65593SOL    HW298554  12.617  10.540   4.032
65594SOL     OW98555  12.158   4.178   0.102
65594SOL    HW198556  12.167   4.216   0.015
65594SOL    HW298557  12.131   4.088   0.086
65595SOL     OW98558   2.160   2.695   5.114
65595SOL    HW198559   2.150   2.645   5.033
65595SOL    HW298560   2.236   2.656   5.157
65596SOL     OW98561   5.187   6.913  10.001
65596SOL    HW198562   5.197   6.940   9.909
65596SOL    HW298563   5.271   6.872  10.023
65597SOL     OW98564  11.017   6.977   1.995
65597SOL    HW198565  10.979   6.981   2.083
65597SOL    HW298566  11.111   6.967   2.010
65598SOL     OW98567   8.592   7.105  14.269
65598SOL    HW198568   8.628   7.192  14.250
65598SOL    HW298569   8.521   7.095  14.206
65599SOL     OW98570   9.988  14.043   2.290
65599SOL    HW198571  10.030  14.105   2.230
65599SOL    HW298572  10.014  14.074   2.377
65600SOL     OW98573   0.917   3.264   9.622
65600SOL    HW198574   0.859   3.277   9.546
65600SOL    HW298575   0.968   3.344   9.627
65601SOL     OW98576   9.937  14.730   1.184
65601SOL    HW198577   9.986  14.751   1.263
65601SOL    HW298578   9.845  14.742   1.208
65602SOL     OW98579  14.341  12.077   6.331
65602SOL    HW198580  14.433  12.076   6.355
65602SOL    HW298581  14.311  11.987   6.349
65603SOL     OW98582   0.763  10.478   1.289
65603SOL    HW198583   0.815  10.412   1.334
65603SOL    HW298584   0.741  10.439   1.205
65604SOL     OW98585   1.778   3.498  13.515
65604SOL    HW198586   1.757   3.581  13.558
65604SOL    HW298587   1.856   3.466  13.561
65605SOL     OW98588   6.494   0.267   6.680
65605SOL    HW198589   6.424   0.288   6.619
65605SOL    HW298590   6.559   0.336   6.667
65606SOL     OW98591   1.832   0.754   0.425
65606SOL    HW198592   1.895   0.805   0.476
65606SOL    HW298593   1.840   0.788   0.335
65607SOL     OW98594   7.727   5.299   0.936
65607SOL    HW198595   7.787   5.355   0.985
65607SOL    HW298596   7.641   5.318   0.973
65608SOL     OW98597   2.123   0.674   6.826
65608SOL    HW198598   2.032   0.702   6.817
65608SOL    HW298599   2.172   0.755   6.834
65609SOL     OW98600   5.455  14.837   0.518
65609SOL    HW198601   5.460  14.769   0.585
65609SOL    HW298602   5.482   0.036   0.563
65610SOL     OW98603  14.233   1.208   7.368
65610SOL    HW198604  14.173   1.248   7.305
65610SOL    HW298605  14.277   1.139   7.318
65611SOL     OW98606   5.177   6.427   3.300
65611SOL    HW198607   5.107   6.458   3.358
65611SOL    HW298608   5.139   6.432   3.212
65612SOL     OW98609   5.599  14.015   4.430
65612SOL    HW198610   5.627  14.041   4.518
65612SOL    HW298611   5.535  14.082   4.405
65613SOL     OW98612   8.219   6.518   6.128
65613SOL    HW198613   8.134   6.477   6.142
65613SOL    HW298614   8.251   6.481   6.046
65614SOL     OW98615  14.670   8.352   8.495
65614SOL    HW198616  14.597   8.327   8.438
65614SOL    HW298617  14.648   8.314   8.580
65615SOL     OW98618   2.157  14.744   8.539
65615SOL    HW198619   2.083  14.704   8.584
65615SOL    HW298620   2.233  14.721   8.591
65616SOL     OW98621  13.948   9.097   2.554
65616SOL    HW198622  13.945   9.021   2.496
65616SOL    HW298623  13.970   9.170   2.496
65617SOL     OW98624   3.633  11.934   3.920
65617SOL    HW198625   3.616  11.909   4.010
65617SOL    HW298626   3.723  11.905   3.903
65618SOL     OW98627  10.149  13.568   8.859
65618SOL    HW198628  10.085  13.500   8.836
65618SOL    HW298629  10.202  13.579   8.780
65619SOL     OW98630  13.163   2.749   9.822
65619SOL    HW198631  13.185   2.759   9.729
65619SOL    HW298632  13.086   2.806   9.834
65620SOL     OW98633  11.276  11.218   4.482
65620SOL    HW198634  11.296  11.125   4.494
65620SOL    HW298635  11.352  11.264   4.515
65621SOL     OW98636   2.555  11.623   3.763
65621SOL    HW198637   2.558  11.714   3.792
65621SOL    HW298638   2.464  11.607   3.742
65622SOL     OW98639  10.105   7.186   0.473
65622SOL    HW198640  10.051   7.229   0.540
65622SOL    HW298641  10.103   7.094   0.497
65623SOL     OW98642   7.870  11.083   8.275
65623SOL    HW198643   7.793  11.116   8.320
65623SOL    HW298644   7.904  11.014   8.331
65624SOL     OW98645   9.147  14.695   3.887
65624SOL    HW198646   9.070  14.647   3.857
65624SOL    HW298647   9.182  14.641   3.958
65625SOL     OW98648   6.072   9.160   4.818
65625SOL    HW198649   5.996   9.110   4.848
65625SOL    HW298650   6.145   9.099   4.824
65626SOL     OW98651   8.042   9.675   6.132
65626SOL    HW198652   8.021   9.766   6.151
65626SOL    HW298653   7.962   9.627   6.151
65627SOL     OW98654  12.693   1.351  11.686
65627SOL    HW198655  12.760   1.418  11.687
65627SOL    HW298656  12.658   1.352  11.597
65628SOL     OW98657   5.735  13.468  13.330
65628SOL    HW198658   5.683  13.548  13.334
65628SOL    HW298659   5.671  13.398  13.321
65629SOL     OW98660   4.165   2.469   5.954
65629SOL    HW198661   4.161   2.401   5.887
65629SOL    HW298662   4.166   2.551   5.906
65630SOL     OW98663   9.849  11.897  10.828
65630SOL    HW198664   9.916  11.908  10.896
65630SOL    HW298665   9.785  11.966  10.846
65631SOL     OW98666   7.982   0.762   0.583
65631SOL    HW198667   7.995   0.698   0.513
65631SOL    HW298668   7.970   0.845   0.537
65632SOL     OW98669   5.177  12.812   5.385
65632SOL    HW198670   5.107  12.781   5.327
65632SOL    HW298671   5.134  12.824   5.470
65633SOL     OW98672   5.499   9.772  14.852
65633SOL    HW198673   5.591   9.768  14.876
65633SOL    HW298674   5.490   9.713  14.778
65634SOL     OW98675   2.310  13.936  13.367
65634SOL    HW198676   2.276  13.881  13.437
65634SOL    HW298677   2.308  14.025  13.403
65635SOL     OW98678  10.986   1.073   7.821
65635SOL    HW198679  10.939   1.124   7.755
65635SOL    HW298680  10.935   0.992   7.829
65636SOL     OW98681  10.075  13.354  10.694
65636SOL    HW198682  10.133  13.365  10.768
65636SOL    HW298683  10.115  13.285  10.641
65637SOL     OW98684   4.560  12.340   2.192
65637SOL    HW198685   4.599  12.257   2.218
65637SOL    HW298686   4.618  12.407   2.230
65638SOL     OW98687   3.350  10.870  11.099
65638SOL    HW198688   3.276  10.896  11.154
65638SOL    HW298689   3.309  10.836  11.019
65639SOL     OW98690   7.388   0.566   3.419
65639SOL    HW198691   7.318   0.589   3.479
65639SOL    HW298692   7.378   0.627   3.345
65640SOL     OW98693   2.711   3.519  13.776
65640SOL    HW198694   2.703   3.424  13.785
65640SOL    HW298695   2.763   3.531  13.697
65641SOL     OW98696   7.710   9.878   0.456
65641SOL    HW198697   7.627   9.908   0.418
65641SOL    HW298698   7.714   9.920   0.541
65642SOL     OW98699   4.716  14.612   9.701
65642SOL    HW198700   4.633  14.616   9.747
65642SOL    HW298701   4.752  14.700   9.708
65643SOL     OW98702   6.109   9.396   4.994
65643SOL    HW198703   6.084   9.336   4.924
65643SOL    HW298704   6.140   9.339   5.064
65644SOL     OW98705  14.851   9.162  10.602
65644SOL    HW198706  14.854   9.069  10.583
65644SOL    HW298707   0.027   9.202  10.537
65645SOL     OW98708   0.544   0.186  13.961
65645SOL    HW198709   0.589   0.114  13.919
65645SOL    HW298710   0.464   0.147  13.997
65646SOL     OW98711  14.221   5.813  10.636
65646SOL    HW198712  14.233   5.827  10.542
65646SOL    HW298713  14.160   5.739  10.641
65647SOL     OW98714   9.026   5.760   4.268
65647SOL    HW198715   9.052   5.734   4.356
65647SOL    HW298716   8.996   5.851   4.277
65648SOL     OW98717   5.324   4.633   2.592
65648SOL    HW198718   5.237   4.622   2.554
65648SOL    HW298719   5.308   4.654   2.684
65649SOL     OW98720   4.615   2.303   2.412
65649SOL    HW198721   4.695   2.262   2.377
65649SOL    HW298722   4.588   2.246   2.483
65650SOL     OW98723   7.845   9.498  10.992
65650SOL    HW198724   7.774   9.439  10.967
65650SOL    HW298725   7.810   9.546  11.067
65651SOL     OW98726   3.474  10.513  10.441
65651SOL    HW198727   3.497  10.422  10.425
65651SOL    HW298728   3.499  10.559  10.361
65652SOL     OW98729  13.602   6.014   4.578
65652SOL    HW198730  13.670   6.065   4.534
65652SOL    HW298731  13.579   6.066   4.655
65653SOL     OW98732   0.591   7.639  14.756
65653SOL    HW198733   0.519   7.600  14.806
65653SOL    HW298734   0.668   7.587  14.781
65654SOL     OW98735   6.579   4.312   3.160
65654SOL    HW198736   6.627   4.290   3.081
65654SOL    HW298737   6.646   4.324   3.227
65655SOL     OW98738   3.028   4.097   6.923
65655SOL    HW198739   2.969   4.051   6.863
65655SOL    HW298740   3.113   4.098   6.878
65656SOL     OW98741   1.819  12.301   0.090
65656SOL    HW198742   1.853  12.381   0.051
65656SOL    HW298743   1.811  12.321   0.183
65657SOL     OW98744   6.867   5.029  12.516
65657SOL    HW198745   6.795   4.970  12.541
65657SOL    HW298746   6.842   5.061  12.429
65658SOL     OW98747   7.083   0.170   0.971
65658SOL    HW198748   7.091   0.077   0.988
65658SOL    HW298749   7.157   0.210   1.018
65659SOL     OW98750   8.219  11.976   9.356
65659SOL    HW198751   8.220  11.880   9.358
65659SOL    HW298752   8.301  12.000   9.313
65660SOL     OW98753   4.419   6.378  10.682
65660SOL    HW198754   4.435   6.371  10.776
65660SOL    HW298755   4.504   6.401  10.644
65661SOL     OW98756   5.114   4.560   3.675
65661SOL    HW198757   5.160   4.629   3.723
65661SOL    HW298758   5.180   4.491   3.665
65662SOL     OW98759  13.835   9.428   8.239
65662SOL    HW198760  13.758   9.482   8.223
65662SOL    HW298761  13.899   9.488   8.279
65663SOL     OW98762  10.655   1.472   1.425
65663SOL    HW198763  10.650   1.464   1.330
65663SOL    HW298764  10.575   1.518   1.450
65664SOL     OW98765  10.137   4.402   2.699
65664SOL    HW198766  10.152   4.334   2.634
65664SOL    HW298767  10.188   4.374   2.775
65665SOL     OW98768   8.965   9.844  12.195
65665SOL    HW198769   8.945   9.822  12.104
65665SOL    HW298770   8.898   9.908  12.219
65666SOL     OW98771   3.816   4.744   9.314
65666SOL    HW198772   3.846   4.704   9.395
65666SOL    HW298773   3.741   4.691   9.287
65667SOL     OW98774   9.252   1.272  12.905
65667SOL    HW198775   9.332   1.236  12.865
65667SOL    HW298776   9.219   1.334  12.840
65668SOL     OW98777   7.299   5.315  10.667
65668SOL    HW198778   7.249   5.234  10.668
65668SOL    HW298779   7.365   5.302  10.598
65669SOL     OW98780  13.662  10.282   1.567
65669SOL    HW198781  13.670  10.210   1.629
65669SOL    HW298782  13.750  10.321   1.564
65670SOL     OW98783  13.282  11.711   7.617
65670SOL    HW198784  13.299  11.617   7.613
65670SOL    HW298785  13.332  11.741   7.692
65671SOL     OW98786  13.648   7.262   4.766
65671SOL    HW198787  13.725   7.280   4.712
65671SOL    HW298788  13.648   7.332   4.832
65672SOL     OW98789  11.152   3.606   8.057
65672SOL    HW198790  11.085   3.538   8.061
65672SOL    HW298791  11.119   3.668   7.992
65673SOL     OW98792   5.574   7.363  13.855
65673SOL    HW198793   5.625   7.295  13.811
65673SOL    HW298794   5.497   7.317  13.889
65674SOL     OW98795  10.055   8.537  14.086
65674SOL    HW198796  10.073   8.575  14.172
65674SOL    HW298797   9.982   8.589  14.052
65675SOL     OW98798   2.998  14.487  14.498
65675SOL    HW198799   2.928  14.427  14.474
65675SOL    HW298800   2.966  14.573  14.472
65676SOL     OW98801   3.765   9.026   8.785
65676SOL    HW198802   3.851   9.038   8.744
65676SOL    HW298803   3.745   8.934   8.771
65677SOL     OW98804  13.798   9.470  14.410
65677SOL    HW198805  13.847   9.539  14.453
65677SOL    HW298806  13.717   9.463  14.460
65678SOL     OW98807   3.321  11.275   9.713
65678SOL    HW198808   3.399  11.238   9.755
65678SOL    HW298809   3.267  11.199   9.691
65679SOL     OW98810   3.204   8.723   2.703
65679SOL    HW198811   3.121   8.682   2.726
65679SOL    HW298812   3.180   8.800   2.652
65680SOL     OW98813  10.348  14.512   8.842
65680SOL    HW198814  10.347  14.497   8.747
65680SOL    HW298815  10.294  14.590   8.855
65681SOL     OW98816   9.319   6.337   0.941
65681SOL    HW198817   9.350   6.426   0.959
65681SOL    HW298818   9.346   6.286   1.018
65682SOL     OW98819  10.301  13.486   8.316
65682SOL    HW198820  10.394  13.508   8.313
65682SOL    HW298821  10.258  13.565   8.347
65683SOL     OW98822   8.422  14.357  12.221
65683SOL    HW198823   8.517  14.355  12.214
65683SOL    HW298824   8.393  14.396  12.139
65684SOL     OW98825  13.877   6.996  10.414
65684SOL    HW198826  13.801   6.986  10.471
65684SOL    HW298827  13.843   7.045  10.338
65685SOL     OW98828   4.071  13.228   9.408
65685SOL    HW198829   4.129  13.289   9.453
65685SOL    HW298830   3.984  13.268   9.416
65686SOL     OW98831   7.695  11.483  14.738
65686SOL    HW198832   7.641  11.438  14.673
65686SOL    HW298833   7.781  11.441  14.731
65687SOL     OW98834   9.628  13.465  12.172
65687SOL    HW198835   9.641  13.490  12.080
65687SOL    HW298836   9.705  13.501  12.217
65688SOL     OW98837  12.108   9.211  13.802
65688SOL    HW198838  12.140   9.301  13.808
65688SOL    HW298839  12.013   9.220  13.795
65689SOL     OW98840  11.950  14.545  11.262
65689SOL    HW198841  12.043  14.528  11.274
65689SOL    HW298842  11.945  14.605  11.188
65690SOL     OW98843   5.709   4.304   7.826
65690SOL    HW198844   5.794   4.305   7.869
65690SOL    HW298845   5.689   4.211   7.813
65691SOL     OW98846   2.239  14.594   6.368
65691SOL    HW198847   2.260  14.606   6.276
65691SOL    HW298848   2.202  14.505   6.373
65692SOL     OW98849  11.421   3.077  11.206
65692SOL    HW198850  11.365   3.154  11.203
65692SOL    HW298851  11.508   3.109  11.183
65693SOL     OW98852   1.693  11.353   6.787
65693SOL    HW198853   1.668  11.385   6.700
65693SOL    HW298854   1.671  11.425   6.846
65694SOL     OW98855  11.980   7.497   8.097
65694SOL    HW198856  11.919   7.512   8.026
65694SOL    HW298857  12.032   7.422   8.069
65695SOL     OW98858   4.138   7.184   4.352
65695SOL    HW198859   4.146   7.184   4.256
65695SOL    HW298860   4.139   7.092   4.376
65696SOL     OW98861   2.080   0.349   5.473
65696SOL    HW198862   2.111   0.370   5.385
65696SOL    HW298863   2.129   0.270   5.498
65697SOL     OW98864   3.757   8.059   8.526
65697SOL    HW198865   3.664   8.034   8.524
65697SOL    HW298866   3.760   8.141   8.476
65698SOL     OW98867  13.727   8.703  14.061
65698SOL    HW198868  13.739   8.620  14.107
65698SOL    HW298869  13.741   8.770  14.128
65699SOL     OW98870   1.417  14.282   6.821
65699SOL    HW198871   1.409  14.370   6.857
65699SOL    HW298872   1.505  14.254   6.846
65700SOL     OW98873   9.178  11.184  11.524
65700SOL    HW198874   9.085  11.192  11.503
65700SOL    HW298875   9.198  11.261  11.577
65701SOL     OW98876   7.270   2.226   2.882
65701SOL    HW198877   7.302   2.138   2.863
65701SOL    HW298878   7.217   2.249   2.806
65702SOL     OW98879  12.057   2.681  12.802
65702SOL    HW198880  12.107   2.610  12.760
65702SOL    HW298881  11.970   2.674  12.764
65703SOL     OW98882   4.616   5.237   7.556
65703SOL    HW198883   4.693   5.231   7.500
65703SOL    HW298884   4.646   5.206   7.642
65704SOL     OW98885   6.921   3.792   1.041
65704SOL    HW198886   6.999   3.765   0.992
65704SOL    HW298887   6.952   3.806   1.130
65705SOL     OW98888  11.314  13.866  13.902
65705SOL    HW198889  11.232  13.832  13.865
65705SOL    HW298890  11.325  13.951  13.861
65706SOL     OW98891  10.693  10.358  13.916
65706SOL    HW198892  10.739  10.440  13.896
65706SOL    HW298893  10.759  10.305  13.961
65707SOL     OW98894   6.220   1.401   4.358
65707SOL    HW198895   6.245   1.433   4.271
65707SOL    HW298896   6.303   1.390   4.404
65708SOL     OW98897   2.552   3.566   3.907
65708SOL    HW198898   2.576   3.509   3.980
65708SOL    HW298899   2.607   3.536   3.834
65709SOL     OW98900  14.655   8.907  13.795
65709SOL    HW198901  14.660   8.848  13.870
65709SOL    HW298902  14.744   8.913  13.762
65710SOL     OW98903   1.962   6.700   3.586
65710SOL    HW198904   2.000   6.763   3.646
65710SOL    HW298905   1.926   6.753   3.515
65711SOL     OW98906   9.628   6.118   9.056
65711SOL    HW198907   9.581   6.097   9.137
65711SOL    HW298908   9.700   6.175   9.084
65712SOL     OW98909   3.585   5.032   4.314
65712SOL    HW198910   3.555   4.965   4.375
65712SOL    HW298911   3.505   5.078   4.288
65713SOL     OW98912  12.017  13.288   3.978
65713SOL    HW198913  11.956  13.348   3.935
65713SOL    HW298914  12.103  13.322   3.955
65714SOL     OW98915   6.582   4.383   8.211
65714SOL    HW198916   6.495   4.403   8.245
65714SOL    HW298917   6.577   4.291   8.187
65715SOL     OW98918  13.276  12.223   9.888
65715SOL    HW198919  13.295  12.317   9.887
65715SOL    HW298920  13.362  12.182   9.895
65716SOL     OW98921  11.407   9.431   9.480
65716SOL    HW198922  11.359   9.466   9.405
65716SOL    HW298923  11.496   9.418   9.447
65717SOL     OW98924  13.865   9.756   1.571
65717SOL    HW198925  13.861   9.797   1.658
65717SOL    HW298926  13.807   9.811   1.517
65718SOL     OW98927   1.120   6.361   4.787
65718SOL    HW198928   1.106   6.267   4.777
65718SOL    HW298929   1.051   6.389   4.846
65719SOL     OW98930   0.646   4.515   4.270
65719SOL    HW198931   0.659   4.607   4.246
65719SOL    HW298932   0.551   4.505   4.275
65720SOL     OW98933   6.451  13.210   4.522
65720SOL    HW198934   6.406  13.130   4.497
65720SOL    HW298935   6.455  13.261   4.442
65721SOL     OW98936  12.287   9.890   8.337
65721SOL    HW198937  12.337   9.952   8.283
65721SOL    HW298938  12.200   9.888   8.296
65722SOL     OW98939   8.437  13.337   9.439
65722SOL    HW198940   8.362  13.292   9.480
65722SOL    HW298941   8.501  13.268   9.423
65723SOL     OW98942  10.611   9.056   8.551
65723SOL    HW198943  10.679   9.014   8.602
65723SOL    HW298944  10.533   9.002   8.565
65724SOL     OW98945   0.975   1.035   7.069
65724SOL    HW198946   0.924   1.039   6.988
65724SOL    HW298947   1.065   1.046   7.040
65725SOL     OW98948   9.720   0.395   7.198
65725SOL    HW198949   9.800   0.430   7.238
65725SOL    HW298950   9.749   0.365   7.111
65726SOL     OW98951   4.043  14.039  14.679
65726SOL    HW198952   4.088  14.009  14.758
65726SOL    HW298953   4.060  14.134  14.676
65727SOL     OW98954  12.670   9.350  14.526
65727SOL    HW198955  12.751   9.330  14.572
65727SOL    HW298956  12.659   9.279  14.463
65728SOL     OW98957   6.535  11.021  12.720
65728SOL    HW198958   6.541  11.116  12.709
65728SOL    HW298959   6.452  11.008  12.767
65729SOL     OW98960   6.205   5.696   0.110
65729SOL    HW198961   6.218   5.733   0.023
65729SOL    HW298962   6.127   5.740   0.144
65730SOL     OW98963   9.455  12.347   0.222
65730SOL    HW198964   9.465  12.434   0.184
65730SOL    HW298965   9.528  12.297   0.187
65731SOL     OW98966   6.601   6.297   2.181
65731SOL    HW198967   6.548   6.363   2.226
65731SOL    HW298968   6.580   6.309   2.088
65732SOL     OW98969   7.350   5.502   2.215
65732SOL    HW198970   7.342   5.593   2.243
65732SOL    HW298971   7.326   5.503   2.122
65733SOL     OW98972   0.647  14.110  11.562
65733SOL    HW198973   0.737  14.080  11.561
65733SOL    HW298974   0.600  14.048  11.506
65734SOL     OW98975   2.373   6.066   8.583
65734SOL    HW198976   2.403   5.975   8.593
65734SOL    HW298977   2.449   6.119   8.610
65735SOL     OW98978   9.636   1.278   7.084
65735SOL    HW198979   9.681   1.302   7.165
65735SOL    HW298980   9.671   1.191   7.062
65736SOL     OW98981   1.052   6.357   5.388
65736SOL    HW198982   1.063   6.295   5.461
65736SOL    HW298983   1.134   6.352   5.339
65737SOL     OW98984  13.124   6.789   7.174
65737SOL    HW198985  13.118   6.856   7.106
65737SOL    HW298986  13.062   6.816   7.242
65738SOL     OW98987   3.799  10.112   2.992
65738SOL    HW198988   3.889  10.082   2.979
65738SOL    HW298989   3.770  10.141   2.905
65739SOL     OW98990  10.277   5.068   0.019
65739SOL    HW198991  10.264   4.998   0.083
65739SOL    HW298992  10.212   5.051  14.833
65740SOL     OW98993   7.722   5.271   7.041
65740SOL    HW198994   7.805   5.224   7.045
65740SOL    HW298995   7.685   5.246   6.956
65741SOL     OW98996  10.637   2.588   4.223
65741SOL    HW198997  10.612   2.657   4.285
65741SOL    HW298998  10.554   2.555   4.189
65742SOL     OW98999   3.234  10.653   5.043
65742SOL    HW199000   3.288  10.588   4.999
65742SOL    HW299001   3.223  10.723   4.980
65743SOL     OW99002   1.319   4.619  10.751
65743SOL    HW199003   1.414   4.606  10.742
65743SOL    HW299004   1.282   4.532  10.734
65744SOL     OW99005  12.855   1.726   2.449
65744SOL    HW199006  12.878   1.812   2.483
65744SOL    HW299007  12.893   1.723   2.361
65745SOL     OW99008   2.767  14.048   1.600
65745SOL    HW199009   2.760  14.131   1.647
65745SOL    HW299010   2.712  14.059   1.523
65746SOL     OW99011  13.425   2.979   0.925
65746SOL    HW199012  13.457   3.031   0.999
65746SOL    HW299013  13.411   2.891   0.962
65747SOL     OW99014  13.103   7.960   2.869
65747SOL    HW199015  13.067   8.049   2.868
65747SOL    HW299016  13.193   7.971   2.901
65748SOL     OW99017  14.702  12.201   7.043
65748SOL    HW199018  14.762  12.268   7.077
65748SOL    HW299019  14.634  12.251   6.999
65749SOL     OW99020   2.157  11.080   8.702
65749SOL    HW199021   2.116  11.011   8.755
65749SOL    HW299022   2.089  11.106   8.641
65750SOL     OW99023   2.427  10.085   7.654
65750SOL    HW199024   2.349  10.030   7.653
65750SOL    HW299025   2.395  10.171   7.684
65751SOL     OW99026   8.379   5.807   3.139
65751SOL    HW199027   8.387   5.805   3.235
65751SOL    HW299028   8.467   5.829   3.108
65752SOL     OW99029   9.411  12.979  11.717
65752SOL    HW199030   9.318  12.995  11.730
65752SOL    HW299031   9.437  12.929  11.794
65753SOL     OW99032   7.451   8.014   5.182
65753SOL    HW199033   7.408   7.936   5.149
65753SOL    HW299034   7.403   8.087   5.143
65754SOL     OW99035  11.384   8.788  12.368
65754SOL    HW199036  11.410   8.808  12.458
65754SOL    HW299037  11.443   8.717  12.341
65755SOL     OW99038  10.813   8.071   6.493
65755SOL    HW199039  10.847   8.160   6.504
65755SOL    HW299040  10.839   8.046   6.405
65756SOL     OW99041   6.868   1.864  12.783
65756SOL    HW199042   6.927   1.887  12.711
65756SOL    HW299043   6.918   1.882  12.862
65757SOL     OW99044  13.962  13.661  12.698
65757SOL    HW199045  13.885  13.652  12.642
65757SOL    HW299046  13.972  13.756  12.711
65758SOL     OW99047  13.041  10.988   0.977
65758SOL    HW199048  13.058  11.079   1.001
65758SOL    HW299049  12.952  10.988   0.941
65759SOL     OW99050  14.450   3.058  12.033
65759SOL    HW199051  14.355   3.051  12.045
65759SOL    HW299052  14.460   3.128  11.968
65760SOL     OW99053  14.479   5.039  14.070
65760SOL    HW199054  14.514   5.011  14.155
65760SOL    HW299055  14.538   5.109  14.042
65761SOL     OW99056   5.360   8.729   8.455
65761SOL    HW199057   5.289   8.777   8.410
65761SOL    HW299058   5.384   8.785   8.528
65762SOL     OW99059  10.298   3.928   4.421
65762SOL    HW199060  10.324   4.012   4.385
65762SOL    HW299061  10.260   3.880   4.347
65763SOL     OW99062  10.556   7.929   7.133
65763SOL    HW199063  10.609   7.851   7.152
65763SOL    HW299064  10.588   7.959   7.049
65764SOL     OW99065  12.124   0.339   6.941
65764SOL    HW199066  12.217   0.347   6.962
65764SOL    HW299067  12.116   0.251   6.904
65765SOL     OW99068   7.405  14.270  14.537
65765SOL    HW199069   7.360  14.240  14.458
65765SOL    HW299070   7.346  14.246  14.608
65766SOL     OW99071   4.706  14.536   2.712
65766SOL    HW199072   4.773  14.596   2.745
65766SOL    HW299073   4.641  14.592   2.670
65767SOL     OW99074   1.249   0.461   5.086
65767SOL    HW199075   1.215   0.538   5.132
65767SOL    HW299076   1.202   0.459   5.003
65768SOL     OW99077  14.651   2.948   3.245
65768SOL    HW199078  14.563   2.985   3.245
65768SOL    HW299079  14.661   2.910   3.157
65769SOL     OW99080   3.331   9.123   4.094
65769SOL    HW199081   3.410   9.102   4.045
65769SOL    HW299082   3.271   9.051   4.074
65770SOL     OW99083   0.795   8.240   4.159
65770SOL    HW199084   0.844   8.255   4.078
65770SOL    HW299085   0.777   8.327   4.193
65771SOL     OW99086   5.129  12.503  13.777
65771SOL    HW199087   5.189  12.556  13.830
65771SOL    HW299088   5.180  12.480  13.699
65772SOL     OW99089   5.946  14.169   7.013
65772SOL    HW199090   5.955  14.140   7.104
65772SOL    HW299091   6.017  14.124   6.967
65773SOL     OW99092  12.224  13.964   2.064
65773SOL    HW199093  12.153  14.004   2.014
65773SOL    HW299094  12.263  14.037   2.112
65774SOL     OW99095   1.861   1.094   9.440
65774SOL    HW199096   1.915   1.017   9.422
65774SOL    HW299097   1.884   1.156   9.370
65775SOL     OW99098  14.143  13.057   4.833
65775SOL    HW199099  14.143  12.976   4.783
65775SOL    HW299100  14.115  13.124   4.770
65776SOL     OW99101  10.555   1.032  12.335
65776SOL    HW199102  10.532   1.113  12.289
65776SOL    HW299103  10.533   1.049  12.426
65777SOL     OW99104  10.339   9.675   0.828
65777SOL    HW199105  10.316   9.596   0.778
65777SOL    HW299106  10.289   9.667   0.909
65778SOL     OW99107  13.176   7.923   7.412
65778SOL    HW199108  13.112   7.893   7.478
65778SOL    HW299109  13.249   7.862   7.419
65779SOL     OW99110   8.553   7.899   2.741
65779SOL    HW199111   8.500   7.899   2.821
65779SOL    HW299112   8.640   7.871   2.770
65780SOL     OW99113   8.984   1.140  11.964
65780SOL    HW199114   8.901   1.106  11.932
65780SOL    HW299115   8.997   1.095  12.048
65781SOL     OW99116   4.689   5.145   4.742
65781SOL    HW199117   4.745   5.124   4.666
65781SOL    HW299118   4.747   5.136   4.817
65782SOL     OW99119   4.776   5.173   5.025
65782SOL    HW199120   4.841   5.177   5.095
65782SOL    HW299121   4.721   5.098   5.047
65783SOL     OW99122   7.575   4.281  11.324
65783SOL    HW199123   7.487   4.281  11.360
65783SOL    HW299124   7.567   4.231  11.242
65784SOL     OW99125   9.258   3.274   0.471
65784SOL    HW199126   9.348   3.270   0.504
65784SOL    HW299127   9.206   3.229   0.537
65785SOL     OW99128   5.369  13.208   1.114
65785SOL    HW199129   5.422  13.140   1.155
65785SOL    HW299130   5.357  13.179   1.024
65786SOL     OW99131   5.853   5.817   5.499
65786SOL    HW199132   5.853   5.911   5.518
65786SOL    HW299133   5.819   5.811   5.410
65787SOL     OW99134   6.298   1.510   3.430
65787SOL    HW199135   6.290   1.588   3.374
65787SOL    HW299136   6.367   1.532   3.492
65788SOL     OW99137   3.942   9.375  12.743
65788SOL    HW199138   3.921   9.312  12.674
65788SOL    HW299139   3.865   9.376  12.799
65789SOL     OW99140   1.422  14.603   8.587
65789SOL    HW199141   1.507  14.617   8.544
65789SOL    HW299142   1.364  14.578   8.515
65790SOL     OW99143  13.428   0.937   5.890
65790SOL    HW199144  13.400   0.949   5.981
65790SOL    HW299145  13.513   0.979   5.884
65791SOL     OW99146  14.264   8.293   9.293
65791SOL    HW199147  14.284   8.228   9.227
65791SOL    HW299148  14.345   8.302   9.344
65792SOL     OW99149   8.675   1.812   2.554
65792SOL    HW199150   8.595   1.830   2.504
65792SOL    HW299151   8.658   1.728   2.597
65793SOL     OW99152   8.597  12.137   2.713
65793SOL    HW199153   8.655  12.131   2.637
65793SOL    HW299154   8.600  12.050   2.753
65794SOL     OW99155   8.032   9.664  13.279
65794SOL    HW199156   7.968   9.603  13.316
65794SOL    HW299157   8.039   9.639  13.187
65795SOL     OW99158   5.292   8.212   9.497
65795SOL    HW199159   5.230   8.159   9.547
65795SOL    HW299160   5.314   8.285   9.554
65796SOL     OW99161   6.815   7.446   4.293
65796SOL    HW199162   6.891   7.400   4.330
65796SOL    HW299163   6.783   7.500   4.365
65797SOL     OW99164   0.549   5.594   6.494
65797SOL    HW199165   0.534   5.527   6.561
65797SOL    HW299166   0.642   5.616   6.504
65798SOL     OW99167   8.089  13.718  13.609
65798SOL    HW199168   8.026  13.688  13.543
65798SOL    HW299169   8.171  13.727  13.561
65799SOL     OW99170   3.619   6.527   2.622
65799SOL    HW199171   3.594   6.545   2.531
65799SOL    HW299172   3.537   6.536   2.671
65800SOL     OW99173   4.788   8.207  13.871
65800SOL    HW199174   4.831   8.270  13.813
65800SOL    HW299175   4.853   8.189  13.939
65801SOL     OW99176  11.268   8.269   0.298
65801SOL    HW199177  11.351   8.318   0.297
65801SOL    HW299178  11.221   8.300   0.221
65802SOL     OW99179  11.398  12.812   1.874
65802SOL    HW199180  11.343  12.737   1.894
65802SOL    HW299181  11.487  12.777   1.873
65803SOL     OW99182   6.546  11.520   6.850
65803SOL    HW199183   6.618  11.563   6.896
65803SOL    HW299184   6.578  11.509   6.760
65804SOL     OW99185   7.747  13.211   8.947
65804SOL    HW199186   7.784  13.140   8.998
65804SOL    HW299187   7.814  13.279   8.946
65805SOL     OW99188   7.596   2.860   2.633
65805SOL    HW199189   7.686   2.832   2.644
65805SOL    HW299190   7.562   2.867   2.722
65806SOL     OW99191   3.126  10.934   3.772
65806SOL    HW199192   3.152  10.842   3.771
65806SOL    HW299193   3.177  10.974   3.702
65807SOL     OW99194   7.787   4.043  14.566
65807SOL    HW199195   7.780   3.977  14.635
65807SOL    HW299196   7.696   4.060  14.541
65808SOL     OW99197   6.801  12.773   0.430
65808SOL    HW199198   6.849  12.854   0.447
65808SOL    HW299199   6.823  12.716   0.504
65809SOL     OW99200  11.783   6.380   9.883
65809SOL    HW199201  11.803   6.287   9.896
65809SOL    HW299202  11.869   6.422   9.880
65810SOL     OW99203   3.748   3.178  14.227
65810SOL    HW199204   3.700   3.184  14.309
65810SOL    HW299205   3.756   3.084  14.211
65811SOL     OW99206  14.183  10.781   3.306
65811SOL    HW199207  14.125  10.835   3.253
65811SOL    HW299208  14.155  10.691   3.289
65812SOL     OW99209  13.135  12.154   6.120
65812SOL    HW199210  13.077  12.229   6.129
65812SOL    HW299211  13.129  12.109   6.204
65813SOL     OW99212   4.313   3.860   2.416
65813SOL    HW199213   4.319   3.789   2.480
65813SOL    HW299214   4.333   3.939   2.466
65814SOL     OW99215  10.012   3.155   3.214
65814SOL    HW199216  10.017   3.144   3.119
65814SOL    HW299217  10.085   3.103   3.249
65815SOL     OW99218  13.198  11.595  13.148
65815SOL    HW199219  13.265  11.582  13.081
65815SOL    HW299220  13.229  11.543  13.223
65816SOL     OW99221  10.897  12.151   1.208
65816SOL    HW199222  10.930  12.065   1.180
65816SOL    HW299223  10.911  12.152   1.303
65817SOL     OW99224   7.523   3.483  11.258
65817SOL    HW199225   7.489   3.504  11.345
65817SOL    HW299226   7.617   3.469  11.272
65818SOL     OW99227  10.939   2.822   1.778
65818SOL    HW199228  11.008   2.780   1.828
65818SOL    HW299229  10.934   2.911   1.813
65819SOL     OW99230   8.499  10.598   2.704
65819SOL    HW199231   8.509  10.569   2.794
65819SOL    HW299232   8.556  10.675   2.697
65820SOL     OW99233   2.784  11.887   5.316
65820SOL    HW199234   2.854  11.861   5.255
65820SOL    HW299235   2.706  11.893   5.261
65821SOL     OW99236   9.246  14.073  10.111
65821SOL    HW199237   9.253  14.082  10.205
65821SOL    HW299238   9.248  13.978  10.096
65822SOL     OW99239   0.491   4.336   4.871
65822SOL    HW199240   0.419   4.352   4.811
65822SOL    HW299241   0.449   4.300   4.949
65823SOL     OW99242   2.439   4.875  13.551
65823SOL    HW199243   2.527   4.904  13.577
65823SOL    HW299244   2.431   4.903  13.460
65824SOL     OW99245   5.145   0.201   2.109
65824SOL    HW199246   5.115   0.145   2.037
65824SOL    HW299247   5.069   0.255   2.130
65825SOL     OW99248   8.852   2.668   8.942
65825SOL    HW199249   8.775   2.705   8.986
65825SOL    HW299250   8.864   2.724   8.865
65826SOL     OW99251   4.700  13.864   8.285
65826SOL    HW199252   4.668  13.941   8.331
65826SOL    HW299253   4.788  13.888   8.257
65827SOL     OW99254   8.778   7.529   7.343
65827SOL    HW199255   8.853   7.512   7.287
65827SOL    HW299256   8.730   7.446   7.345
65828SOL     OW99257   1.829  10.723   6.576
65828SOL    HW199258   1.863  10.783   6.509
65828SOL    HW299259   1.749  10.689   6.537
65829SOL     OW99260  10.398  10.957   1.556
65829SOL    HW199261  10.397  10.948   1.651
65829SOL    HW299262  10.472  10.905   1.527
65830SOL     OW99263   8.992   7.055  12.675
65830SOL    HW199264   9.031   6.968  12.688
65830SOL    HW299265   8.998   7.070  12.580
65831SOL     OW99266   1.084   7.872  14.077
65831SOL    HW199267   1.075   7.809  14.006
65831SOL    HW299268   0.994   7.900  14.095
65832SOL     OW99269   3.500   4.072   9.005
65832SOL    HW199270   3.495   4.023   8.923
65832SOL    HW299271   3.593   4.081   9.023
65833SOL     OW99272   3.937  11.070   1.483
65833SOL    HW199273   3.875  11.024   1.428
65833SOL    HW299274   3.975  11.002   1.539
65834SOL     OW99275   6.890  11.007   5.015
65834SOL    HW199276   6.809  10.985   4.968
65834SOL    HW299277   6.865  11.008   5.107
65835SOL     OW99278   5.530   1.314  14.505
65835SOL    HW199279   5.542   1.235  14.557
65835SOL    HW299280   5.478   1.286  14.430
65836SOL     OW99281   9.553   8.873   7.783
65836SOL    HW199282   9.541   8.811   7.711
65836SOL    HW299283   9.577   8.955   7.740
65837SOL     OW99284  12.071   4.248   2.351
65837SOL    HW199285  12.033   4.291   2.427
65837SOL    HW299286  12.031   4.291   2.276
65838SOL     OW99287   5.171   6.230   5.784
65838SOL    HW199288   5.241   6.241   5.720
65838SOL    HW299289   5.161   6.317   5.823
65839SOL     OW99290   2.065  13.054   8.897
65839SOL    HW199291   1.990  13.009   8.860
65839SOL    HW299292   2.090  13.118   8.830
65840SOL     OW99293   2.994  14.454  10.097
65840SOL    HW199294   3.056  14.445  10.169
65840SOL    HW299295   3.047  14.443  10.018
65841SOL     OW99296   5.838   2.780  14.749
65841SOL    HW199297   5.857   2.687  14.755
65841SOL    HW299298   5.906   2.823  14.801
65842SOL     OW99299   0.859  11.557   9.021
65842SOL    HW199300   0.892  11.527   9.106
65842SOL    HW299301   0.832  11.478   8.976
65843SOL     OW99302   9.812  14.855  12.854
65843SOL    HW199303   9.824  14.769  12.894
65843SOL    HW299304   9.842  14.844  12.764
65844SOL     OW99305  12.265  12.800  10.068
65844SOL    HW199306  12.296  12.714  10.094
65844SOL    HW299307  12.215  12.832  10.143
65845SOL     OW99308  13.933  13.813  12.395
65845SOL    HW199309  13.892  13.751  12.336
65845SOL    HW299310  14.027  13.798  12.384
65846SOL     OW99311   3.973   0.180   7.514
65846SOL    HW199312   3.984   0.086   7.524
65846SOL    HW299313   3.881   0.191   7.491
65847SOL     OW99314   1.596  10.634   6.486
65847SOL    HW199315   1.592  10.583   6.405
65847SOL    HW299316   1.580  10.570   6.556
65848SOL     OW99317   9.978  11.825   0.214
65848SOL    HW199318   9.911  11.816   0.282
65848SOL    HW299319  10.058  11.846   0.261
65849SOL     OW99320   3.519  10.533   4.070
65849SOL    HW199321   3.533  10.445   4.036
65849SOL    HW299322   3.608  10.567   4.084
65850SOL     OW99323   1.150  14.630  11.001
65850SOL    HW199324   1.138  14.591  10.915
65850SOL    HW299325   1.218  14.576  11.042
65851SOL     OW99326   5.322   6.669  13.858
65851SOL    HW199327   5.386   6.741  13.864
65851SOL    HW299328   5.368   6.593  13.893
65852SOL     OW99329   7.043  11.104   2.357
65852SOL    HW199330   7.040  11.009   2.347
65852SOL    HW299331   7.134  11.127   2.337
65853SOL     OW99332  14.496  12.623  14.086
65853SOL    HW199333  14.494  12.711  14.047
65853SOL    HW299334  14.458  12.635  14.173
65854SOL     OW99335   7.667   6.456   4.185
65854SOL    HW199336   7.690   6.386   4.246
65854SOL    HW299337   7.723   6.440   4.108
65855SOL     OW99338   4.686   3.330  13.551
65855SOL    HW199339   4.709   3.241  13.581
65855SOL    HW299340   4.604   3.319  13.504
65856SOL     OW99341   2.504   6.590   8.614
65856SOL    HW199342   2.426   6.538   8.591
65856SOL    HW299343   2.575   6.526   8.615
65857SOL     OW99344  11.910   6.042  11.580
65857SOL    HW199345  11.973   6.083  11.520
65857SOL    HW299346  11.829   6.091  11.566
65858SOL     OW99347   7.399   3.145  11.998
65858SOL    HW199348   7.444   3.070  11.960
65858SOL    HW299349   7.469   3.201  12.031
65859SOL     OW99350   5.356  11.893   5.532
65859SOL    HW199351   5.318  11.938   5.456
65859SOL    HW299352   5.326  11.802   5.522
65860SOL     OW99353   9.878   2.338   8.104
65860SOL    HW199354   9.935   2.261   8.105
65860SOL    HW299355   9.929   2.405   8.059
65861SOL     OW99356  12.826  12.377  11.649
65861SOL    HW199357  12.767  12.427  11.593
65861SOL    HW299358  12.788  12.385  11.736
65862SOL     OW99359   3.523   4.328   8.177
65862SOL    HW199360   3.501   4.306   8.268
65862SOL    HW299361   3.608   4.286   8.162
65863SOL     OW99362  14.370   4.489   3.145
65863SOL    HW199363  14.320   4.501   3.064
65863SOL    HW299364  14.386   4.578   3.176
65864SOL     OW99365   9.953  13.671   1.278
65864SOL    HW199366   9.858  13.678   1.290
65864SOL    HW299367   9.987  13.754   1.312
65865SOL     OW99368   6.571   9.279   0.293
65865SOL    HW199369   6.522   9.214   0.344
65865SOL    HW299370   6.569   9.358   0.347
65866SOL     OW99371   4.274   7.847   3.605
65866SOL    HW199372   4.331   7.788   3.654
65866SOL    HW299373   4.333   7.897   3.550
65867SOL     OW99374  14.725   7.811  13.247
65867SOL    HW199375  14.782   7.746  13.286
65867SOL    HW299376  14.737   7.889  13.301
65868SOL     OW99377   2.394   5.805   5.579
65868SOL    HW199378   2.321   5.865   5.592
65868SOL    HW299379   2.368   5.752   5.503
65869SOL     OW99380  13.193   0.866  11.638
65869SOL    HW199381  13.201   0.891  11.730
65869SOL    HW299382  13.282   0.869  11.604
65870SOL     OW99383  11.901  12.517  11.817
65870SOL    HW199384  11.992  12.519  11.790
65870SOL    HW299385  11.891  12.593  11.875
65871SOL     OW99386   9.355  11.172   4.807
65871SOL    HW199387   9.418  11.115   4.850
65871SOL    HW299388   9.350  11.250   4.863
65872SOL     OW99389   9.749   1.874   7.018
65872SOL    HW199390   9.694   1.846   6.944
65872SOL    HW299391   9.813   1.934   6.979
65873SOL     OW99392  11.955  10.790   1.418
65873SOL    HW199393  11.922  10.701   1.406
65873SOL    HW299394  11.919  10.839   1.344
65874SOL     OW99395  14.335   7.485   2.569
65874SOL    HW199396  14.375   7.563   2.607
65874SOL    HW299397  14.352   7.415   2.633
65875SOL     OW99398   4.816  12.195  11.844
65875SOL    HW199399   4.855  12.266  11.895
65875SOL    HW299400   4.886  12.167  11.785
65876SOL     OW99401   3.166  11.000   7.125
65876SOL    HW199402   3.189  11.016   7.216
65876SOL    HW299403   3.181  10.907   7.112
65877SOL     OW99404  12.832   9.539   1.597
65877SOL    HW199405  12.826   9.610   1.660
65877SOL    HW299406  12.811   9.460   1.647
65878SOL     OW99407   5.274   4.058   3.313
65878SOL    HW199408   5.258   4.057   3.219
65878SOL    HW299409   5.343   4.124   3.324
65879SOL     OW99410  13.626  13.165   0.104
65879SOL    HW199411  13.689  13.093   0.103
65879SOL    HW299412  13.541  13.123   0.098
65880SOL     OW99413  10.981   3.563  10.269
65880SOL    HW199414  10.953   3.561  10.361
65880SOL    HW299415  10.965   3.653  10.242
65881SOL     OW99416   2.230   8.781   0.409
65881SOL    HW199417   2.161   8.827   0.363
65881SOL    HW299418   2.260   8.714   0.348
65882SOL     OW99419   1.154  13.425   1.537
65882SOL    HW199420   1.093  13.373   1.484
65882SOL    HW299421   1.240  13.405   1.501
65883SOL     OW99422   5.481  13.807   6.358
65883SOL    HW199423   5.453  13.853   6.437
65883SOL    HW299424   5.555  13.753   6.387
65884SOL     OW99425  11.283  14.229   5.099
65884SOL    HW199426  11.201  14.264   5.065
65884SOL    HW299427  11.334  14.208   5.021
65885SOL     OW99428  12.955   6.444  14.581
65885SOL    HW199429  12.974   6.425  14.673
65885SOL    HW299430  12.910   6.529  14.583
65886SOL     OW99431  12.985   1.495  10.927
65886SOL    HW199432  13.003   1.413  10.975
65886SOL    HW299433  12.904   1.527  10.966
65887SOL     OW99434   9.672   9.191   5.360
65887SOL    HW199435   9.733   9.240   5.304
65887SOL    HW299436   9.593   9.182   5.306
65888SOL     OW99437  11.310   9.628   4.447
65888SOL    HW199438  11.259   9.553   4.416
65888SOL    HW299439  11.320   9.684   4.370
65889SOL     OW99440  10.033  12.585   5.160
65889SOL    HW199441  10.104  12.543   5.210
65889SOL    HW299442  10.062  12.580   5.069
65890SOL     OW99443   1.320  12.532   3.509
65890SOL    HW199444   1.294  12.518   3.600
65890SOL    HW299445   1.392  12.594   3.514
65891SOL     OW99446   2.505  12.930   3.284
65891SOL    HW199447   2.547  12.880   3.214
65891SOL    HW299448   2.505  12.871   3.359
65892SOL     OW99449   8.632   1.272  11.067
65892SOL    HW199450   8.699   1.285  11.134
65892SOL    HW299451   8.550   1.268  11.116
65893SOL     OW99452   9.511   1.011  13.458
65893SOL    HW199453   9.535   1.102  13.475
65893SOL    HW299454   9.580   0.960  13.499
65894SOL     OW99455  10.667  13.652   6.204
65894SOL    HW199456  10.591  13.706   6.179
65894SOL    HW299457  10.629  13.580   6.255
65895SOL     OW99458   4.303   4.556  12.474
65895SOL    HW199459   4.311   4.509  12.557
65895SOL    HW299460   4.306   4.487  12.407
65896SOL     OW99461  14.842  10.913  14.732
65896SOL    HW199462   0.039  10.927  14.679
65896SOL    HW299463  14.775  10.885  14.670
65897SOL     OW99464   7.380  12.175   3.077
65897SOL    HW199465   7.306  12.232   3.057
65897SOL    HW299466   7.395  12.187   3.171
65898SOL     OW99467   3.869   6.983  12.956
65898SOL    HW199468   3.825   6.981  12.871
65898SOL    HW299469   3.797   6.977  13.020
65899SOL     OW99470  12.542   3.949  11.204
65899SOL    HW199471  12.629   3.909  11.209
65899SOL    HW299472  12.501   3.909  11.128
65900SOL     OW99473  12.681   0.639   5.749
65900SOL    HW199474  12.602   0.658   5.798
65900SOL    HW299475  12.651   0.604   5.666
65901SOL     OW99476  10.022  11.733  10.684
65901SOL    HW199477   9.973  11.813  10.707
65901SOL    HW299478  10.113  11.754  10.704
65902SOL     OW99479   6.294  10.992  12.865
65902SOL    HW199480   6.244  10.928  12.915
65902SOL    HW299481   6.231  11.034  12.807
65903SOL     OW99482   2.062   0.972   2.725
65903SOL    HW199483   2.067   0.952   2.631
65903SOL    HW299484   1.987   1.032   2.732
65904SOL     OW99485   4.337  14.449  13.995
65904SOL    HW199486   4.315  14.510  14.066
65904SOL    HW299487   4.313  14.363  14.029
65905SOL     OW99488   7.807  12.188  10.975
65905SOL    HW199489   7.732  12.231  11.016
65905SOL    HW299490   7.875  12.190  11.041
65906SOL     OW99491  13.533   9.518   0.890
65906SOL    HW199492  13.562   9.608   0.877
65906SOL    HW299493  13.467   9.504   0.823
65907SOL     OW99494   1.679   5.388   1.293
65907SOL    HW199495   1.634   5.423   1.217
65907SOL    HW299496   1.673   5.293   1.283
65908SOL     OW99497  12.224   6.910   5.115
65908SOL    HW199498  12.179   6.993   5.104
65908SOL    HW299499  12.195   6.857   5.041
65909SOL     OW99500   5.626  13.971  12.142
65909SOL    HW199501   5.689  13.936  12.205
65909SOL    HW299502   5.591  13.894  12.098
65910SOL     OW99503   7.489  12.548  14.094
65910SOL    HW199504   7.547  12.583  14.162
65910SOL    HW299505   7.545  12.491  14.041
65911SOL     OW99506   5.766  10.068   1.516
65911SOL    HW199507   5.809   9.992   1.476
65911SOL    HW299508   5.769  10.136   1.448
65912SOL     OW99509   2.936  14.765  14.416
65912SOL    HW199510   2.947  14.807  14.501
65912SOL    HW299511   2.923  14.838  14.355
65913SOL     OW99512   3.989   7.397   4.709
65913SOL    HW199513   4.022   7.327   4.653
65913SOL    HW299514   3.975   7.355   4.794
65914SOL     OW99515   1.817   4.506   4.402
65914SOL    HW199516   1.862   4.542   4.325
65914SOL    HW299517   1.887   4.494   4.466
65915SOL     OW99518   0.775   1.603   0.924
65915SOL    HW199519   0.716   1.602   1.000
65915SOL    HW299520   0.856   1.642   0.957
65916SOL     OW99521   4.939  10.462   7.337
65916SOL    HW199522   5.016  10.494   7.289
65916SOL    HW299523   4.867  10.515   7.305
65917SOL     OW99524   9.991   3.771  10.253
65917SOL    HW199525   9.977   3.866  10.258
65917SOL    HW299526   9.905   3.734  10.266
65918SOL     OW99527  14.236  14.360  14.682
65918SOL    HW199528  14.234  14.413  14.762
65918SOL    HW299529  14.158  14.304  14.689
65919SOL     OW99530   1.031  12.490   6.508
65919SOL    HW199531   1.117  12.472   6.470
65919SOL    HW299532   1.013  12.415   6.564
65920SOL     OW99533  13.025   3.624   8.939
65920SOL    HW199534  12.982   3.543   8.968
65920SOL    HW299535  13.068   3.657   9.018
65921SOL     OW99536   0.141   3.558   1.358
65921SOL    HW199537   0.139   3.630   1.295
65921SOL    HW299538   0.179   3.597   1.437
65922SOL     OW99539   5.689  13.612   6.394
65922SOL    HW199540   5.774  13.646   6.424
65922SOL    HW299541   5.643  13.587   6.474
65923SOL     OW99542  14.167   3.749   1.050
65923SOL    HW199543  14.092   3.710   1.005
65923SOL    HW299544  14.146   3.740   1.143
65924SOL     OW99545   0.678   2.690   6.321
65924SOL    HW199546   0.657   2.697   6.414
65924SOL    HW299547   0.773   2.682   6.318
65925SOL     OW99548  14.441   7.297   3.889
65925SOL    HW199549  14.421   7.385   3.922
65925SOL    HW299550  14.420   7.301   3.796
65926SOL     OW99551   1.995   4.597  14.810
65926SOL    HW199552   1.989   4.549  14.728
65926SOL    HW299553   1.915   4.572  14.857
65927SOL     OW99554  12.912   0.613  11.976
65927SOL    HW199555  12.984   0.636  11.918
65927SOL    HW299556  12.906   0.518  11.971
65928SOL     OW99557   1.244   2.936   8.855
65928SOL    HW199558   1.230   2.853   8.899
65928SOL    HW299559   1.167   2.988   8.876
65929SOL     OW99560  13.240   5.068  10.866
65929SOL    HW199561  13.200   5.115  10.939
65929SOL    HW299562  13.241   5.131  10.794
65930SOL     OW99563   2.759   3.245  10.612
65930SOL    HW199564   2.778   3.160  10.573
65930SOL    HW299565   2.805   3.242  10.696
65931SOL     OW99566   0.898   4.848   0.600
65931SOL    HW199567   0.963   4.917   0.610
65931SOL    HW299568   0.929   4.777   0.654
65932SOL     OW99569  12.362   5.704  10.014
65932SOL    HW199570  12.275   5.666  10.019
65932SOL    HW299571  12.361   5.756   9.934
65933SOL     OW99572  10.786   8.369  11.984
65933SOL    HW199573  10.739   8.373  12.067
65933SOL    HW299574  10.859   8.309  12.001
65934SOL     OW99575   8.943   0.981   0.436
65934SOL    HW199576   9.012   0.969   0.370
65934SOL    HW299577   8.923   1.075   0.433
65935SOL     OW99578  10.668   8.557   1.376
65935SOL    HW199579  10.719   8.483   1.341
65935SOL    HW299580  10.615   8.586   1.302
65936SOL     OW99581   8.306  14.817   3.943
65936SOL    HW199582   8.212  14.799   3.939
65936SOL    HW299583   8.346  14.732   3.963
65937SOL     OW99584  11.449   4.185   4.201
65937SOL    HW199585  11.525   4.243   4.192
65937SOL    HW299586  11.452   4.157   4.292
65938SOL     OW99587   4.934   3.845   7.552
65938SOL    HW199588   4.938   3.772   7.491
65938SOL    HW299589   4.971   3.920   7.504
65939SOL     OW99590  13.214   8.590   3.763
65939SOL    HW199591  13.273   8.650   3.717
65939SOL    HW299592  13.258   8.505   3.758
65940SOL     OW99593  10.439   4.110   0.131
65940SOL    HW199594  10.513   4.120   0.071
65940SOL    HW299595  10.384   4.187   0.115
65941SOL     OW99596  10.958   1.787   4.808
65941SOL    HW199597  10.933   1.714   4.751
65941SOL    HW299598  10.957   1.749   4.896
65942SOL     OW99599   4.915  12.545   9.060
65942SOL    HW199600   4.984  12.530   8.996
65942SOL    HW299601   4.842  12.491   9.030
65943SOL     OW99602   2.982   1.500   1.081
65943SOL    HW199603   2.898   1.543   1.072
65943SOL    HW299604   3.032   1.529   1.004
65944SOL     OW99605  11.184   2.939   6.712
65944SOL    HW199606  11.191   3.009   6.777
65944SOL    HW299607  11.262   2.886   6.725
65945SOL     OW99608   9.308   1.213  11.058
65945SOL    HW199609   9.351   1.297  11.044
65945SOL    HW299610   9.275   1.217  11.148
65946SOL     OW99611   4.690   0.928   7.621
65946SOL    HW199612   4.610   0.887   7.587
65946SOL    HW299613   4.662   1.014   7.651
65947SOL     OW99614  10.137   4.701  14.166
65947SOL    HW199615  10.133   4.627  14.227
65947SOL    HW299616  10.069   4.761  14.197
65948SOL     OW99617   1.711   3.522   3.687
65948SOL    HW199618   1.676   3.608   3.664
65948SOL    HW299619   1.783   3.541   3.747
65949SOL     OW99620   4.235   4.898   7.354
65949SOL    HW199621   4.278   4.969   7.402
65949SOL    HW299622   4.290   4.884   7.277
65950SOL     OW99623  14.171   3.272   8.954
65950SOL    HW199624  14.090   3.231   8.922
65950SOL    HW299625  14.218   3.202   8.997
65951SOL     OW99626  11.970   9.738   6.696
65951SOL    HW199627  12.008   9.654   6.723
65951SOL    HW299628  11.908   9.715   6.627
65952SOL     OW99629   7.970   9.139   7.594
65952SOL    HW199630   7.990   9.195   7.669
65952SOL    HW299631   8.045   9.081   7.587
65953SOL     OW99632   8.880   8.045   1.314
65953SOL    HW199633   8.931   8.032   1.233
65953SOL    HW299634   8.927   7.994   1.380
65954SOL     OW99635   3.697   4.344   5.723
65954SOL    HW199636   3.688   4.362   5.630
65954SOL    HW299637   3.790   4.323   5.735
65955SOL     OW99638   5.486   2.736  12.306
65955SOL    HW199639   5.530   2.651  12.303
65955SOL    HW299640   5.439   2.742  12.222
65956SOL     OW99641   0.899   6.867   9.260
65956SOL    HW199642   0.824   6.814   9.235
65956SOL    HW299643   0.917   6.842   9.351
65957SOL     OW99644   3.623  13.582   6.110
65957SOL    HW199645   3.634  13.675   6.131
65957SOL    HW299646   3.687  13.537   6.166
65958SOL     OW99647   6.563  10.680  14.410
65958SOL    HW199648   6.503  10.664  14.338
65958SOL    HW299649   6.618  10.601  14.414
65959SOL     OW99650   3.938   6.213  11.625
65959SOL    HW199651   3.848   6.196  11.596
65959SOL    HW299652   3.974   6.127  11.644
65960SOL     OW99653   6.826   2.249   6.039
65960SOL    HW199654   6.871   2.184   5.985
65960SOL    HW299655   6.826   2.329   5.986
65961SOL     OW99656   8.316   4.963  12.491
65961SOL    HW199657   8.332   5.035  12.429
65961SOL    HW299658   8.276   4.894  12.439
65962SOL     OW99659   0.269   9.478  12.583
65962SOL    HW199660   0.225   9.424  12.648
65962SOL    HW299661   0.210   9.552  12.570
65963SOL     OW99662   5.131  10.586  10.853
65963SOL    HW199663   5.129  10.636  10.771
65963SOL    HW299664   5.222  10.558  10.861
65964SOL     OW99665  12.637   1.293   3.478
65964SOL    HW199666  12.647   1.362   3.412
65964SOL    HW299667  12.598   1.219   3.430
65965SOL     OW99668  11.579  10.526   4.027
65965SOL    HW199669  11.606  10.477   4.105
65965SOL    HW299670  11.623  10.610   4.034
65966SOL     OW99671   2.662  11.831   2.076
65966SOL    HW199672   2.648  11.769   2.149
65966SOL    HW299673   2.757  11.840   2.070
65967SOL     OW99674   9.757   8.940  10.675
65967SOL    HW199675   9.731   9.000  10.745
65967SOL    HW299676   9.683   8.938  10.615
65968SOL     OW99677   2.875   5.602   8.565
65968SOL    HW199678   2.891   5.511   8.540
65968SOL    HW299679   2.893   5.605   8.659
65969SOL     OW99680   0.387   4.170   6.816
65969SOL    HW199681   0.470   4.189   6.860
65969SOL    HW299682   0.365   4.251   6.770
65970SOL     OW99683   7.271  10.054   8.707
65970SOL    HW199684   7.362  10.040   8.732
65970SOL    HW299685   7.220  10.013   8.777
65971SOL     OW99686   7.389   5.788  11.792
65971SOL    HW199687   7.394   5.842  11.871
65971SOL    HW299688   7.326   5.834  11.736
65972SOL     OW99689   4.974   2.892   5.565
65972SOL    HW199690   5.055   2.881   5.514
65972SOL    HW299691   4.964   2.810   5.613
65973SOL     OW99692   3.196   2.557  11.694
65973SOL    HW199693   3.199   2.653  11.687
65973SOL    HW299694   3.212   2.527  11.604
65974SOL     OW99695   1.755   0.482  11.355
65974SOL    HW199696   1.752   0.577  11.348
65974SOL    HW299697   1.665   0.454  11.340
65975SOL     OW99698   4.643  13.139   7.304
65975SOL    HW199699   4.561  13.097   7.276
65975SOL    HW299700   4.707  13.069   7.305
65976SOL     OW99701  14.185  10.160   7.624
65976SOL    HW199702  14.100  10.183   7.587
65976SOL    HW299703  14.176  10.176   7.718
65977SOL     OW99704   2.518   1.062   2.864
65977SOL    HW199705   2.549   1.060   2.954
65977SOL    HW299706   2.428   1.092   2.869
65978SOL     OW99707   0.010  14.001  13.738
65978SOL    HW199708  14.844  13.968  13.662
65978SOL    HW299709  14.844  14.081  13.762
65979SOL     OW99710   9.898  13.889  14.863
65979SOL    HW199711   9.940  13.824   0.038
65979SOL    HW299712   9.881  13.843  14.781
65980SOL     OW99713   0.174   7.243  13.361
65980SOL    HW199714   0.240   7.259  13.293
65980SOL    HW299715   0.099   7.209  13.313
65981SOL     OW99716  14.047  11.311  13.525
65981SOL    HW199717  14.102  11.384  13.495
65981SOL    HW299718  13.959  11.335  13.495
65982SOL     OW99719   1.197  11.249   6.337
65982SOL    HW199720   1.270  11.257   6.276
65982SOL    HW299721   1.202  11.159   6.370
65983SOL     OW99722   7.662   0.418   9.392
65983SOL    HW199723   7.596   0.447   9.329
65983SOL    HW299724   7.650   0.323   9.398
65984SOL     OW99725   2.405   6.060   6.555
65984SOL    HW199726   2.324   6.030   6.514
65984SOL    HW299727   2.380   6.084   6.644
65985SOL     OW99728   4.899   2.045   0.275
65985SOL    HW199729   4.879   2.100   0.200
65985SOL    HW299730   4.816   2.033   0.320
65986SOL     OW99731  14.063   4.682   3.755
65986SOL    HW199732  14.154   4.708   3.742
65986SOL    HW299733  14.012   4.750   3.712
65987SOL     OW99734  10.882   8.827  14.258
65987SOL    HW199735  10.893   8.922  14.256
65987SOL    HW299736  10.968   8.794  14.284
65988SOL     OW99737   2.441   5.658  13.107
65988SOL    HW199738   2.506   5.680  13.173
65988SOL    HW299739   2.485   5.673  13.023
65989SOL     OW99740   9.638   1.670   5.674
65989SOL    HW199741   9.645   1.764   5.693
65989SOL    HW299742   9.592   1.665   5.590
65990SOL     OW99743   6.575  10.889   9.882
65990SOL    HW199744   6.514  10.879   9.955
65990SOL    HW299745   6.611  10.977   9.893
65991SOL     OW99746   4.518  11.953   1.909
65991SOL    HW199747   4.460  11.901   1.854
65991SOL    HW299748   4.459  12.003   1.965
65992SOL     OW99749  11.371  14.828  11.358
65992SOL    HW199750  11.427  14.798  11.430
65992SOL    HW299751  11.365  14.752  11.300
65993SOL     OW99752   3.652   1.795  10.469
65993SOL    HW199753   3.588   1.728  10.492
65993SOL    HW299754   3.698   1.759  10.393
65994SOL     OW99755   9.983   6.346  13.767
65994SOL    HW199756   9.963   6.311  13.853
65994SOL    HW299757   9.904   6.394  13.742
65995SOL     OW99758   5.728  12.164   1.103
65995SOL    HW199759   5.715  12.069   1.108
65995SOL    HW299760   5.673  12.200   1.172
65996SOL     OW99761  11.850   6.972   0.176
65996SOL    HW199762  11.916   6.928   0.229
65996SOL    HW299763  11.822   7.046   0.230
65997SOL     OW99764   4.349   8.545  10.570
65997SOL    HW199765   4.338   8.596  10.650
65997SOL    HW299766   4.288   8.585  10.508
65998SOL     OW99767  12.491   8.121  12.921
65998SOL    HW199768  12.479   8.052  12.856
65998SOL    HW299769  12.512   8.074  13.002
65999SOL     OW99770   6.093   6.176   4.213
65999SOL    HW199771   6.003   6.147   4.225
65999SOL    HW299772   6.116   6.218   4.296
66000SOL     OW99773   8.115  13.205   9.068
66000SOL    HW199774   8.201  13.168   9.045
66000SOL    HW299775   8.057  13.176   8.997
66001SOL     OW99776  11.770   9.737   7.365
66001SOL    HW199777  11.793   9.790   7.442
66001SOL    HW299778  11.684   9.770   7.338
66002SOL     OW99779   7.165  11.675  13.918
66002SOL    HW199780   7.138  11.756  13.875
66002SOL    HW299781   7.249  11.697  13.959
66003SOL     OW99782   6.476  13.139   6.850
66003SOL    HW199783   6.449  13.229   6.829
66003SOL    HW299784   6.396  13.087   6.840
66004SOL     OW99785   1.209   2.395   3.859
66004SOL    HW199786   1.158   2.475   3.876
66004SOL    HW299787   1.157   2.347   3.795
66005SOL     OW99788   0.615   9.940   8.096
66005SOL    HW199789   0.593   9.851   8.125
66005SOL    HW299790   0.575   9.947   8.010
66006SOL     OW99791  11.953   9.544  12.216
66006SOL    HW199792  11.924   9.613  12.156
66006SOL    HW299793  11.942   9.582  12.303
66007SOL     OW99794  11.853   4.142   7.037
66007SOL    HW199795  11.807   4.223   7.059
66007SOL    HW299796  11.940   4.152   7.075
66008SOL     OW99797   4.994   3.832   6.216
66008SOL    HW199798   5.054   3.758   6.211
66008SOL    HW299799   4.991   3.867   6.127
66009SOL     OW99800   9.794   9.919  11.846
66009SOL    HW199801   9.815   9.885  11.759
66009SOL    HW299802   9.710   9.880  11.868
66010SOL     OW99803   0.282   0.306   0.698
66010SOL    HW199804   0.254   0.351   0.618
66010SOL    HW299805   0.346   0.365   0.737
66011SOL     OW99806  11.757   4.120  12.190
66011SOL    HW199807  11.671   4.095  12.225
66011SOL    HW299808  11.809   4.141  12.268
66012SOL     OW99809   2.788   0.394  10.348
66012SOL    HW199810   2.809   0.423  10.436
66012SOL    HW299811   2.693   0.382  10.348
66013SOL     OW99812   8.278   3.072  10.061
66013SOL    HW199813   8.189   3.108  10.054
66013SOL    HW299814   8.272   2.985  10.021
66014SOL     OW99815   9.767  14.474  10.821
66014SOL    HW199816   9.757  14.522  10.739
66014SOL    HW299817   9.859  14.446  10.822
66015SOL     OW99818   4.340   2.633   4.257
66015SOL    HW199819   4.272   2.607   4.194
66015SOL    HW299820   4.329   2.728   4.266
66016SOL     OW99821   1.532  12.096   9.522
66016SOL    HW199822   1.520  12.122   9.613
66016SOL    HW299823   1.492  12.166   9.471
66017SOL     OW99824  11.016   9.557  14.090
66017SOL    HW199825  10.994   9.493  14.023
66017SOL    HW299826  11.074   9.620  14.046
66018SOL     OW99827  14.038   1.899   8.553
66018SOL    HW199828  14.069   1.813   8.582
66018SOL    HW299829  13.975   1.925   8.619
66019SOL     OW99830  10.819  14.009  14.343
66019SOL    HW199831  10.845  14.040  14.430
66019SOL    HW299832  10.797  14.089  14.295
66020SOL     OW99833  14.110   5.251   5.677
66020SOL    HW199834  14.156   5.175   5.640
66020SOL    HW299835  14.137   5.252   5.769
66021SOL     OW99836   3.180   2.769   8.649
66021SOL    HW199837   3.165   2.676   8.664
66021SOL    HW299838   3.249   2.772   8.583
66022SOL     OW99839   8.399  14.794   0.786
66022SOL    HW199840   8.313  14.805   0.827
66022SOL    HW299841   8.438  14.881   0.787
66023SOL     OW99842   6.392  12.161  11.569
66023SOL    HW199843   6.338  12.110  11.630
66023SOL    HW299844   6.329  12.204  11.512
66024SOL     OW99845   5.085   9.859   9.043
66024SOL    HW199846   5.135   9.803   9.103
66024SOL    HW299847   5.150   9.922   9.010
66025SOL     OW99848   6.633   0.742   8.894
66025SOL    HW199849   6.627   0.817   8.835
66025SOL    HW299850   6.654   0.668   8.837
66026SOL     OW99851   2.401   3.459   7.161
66026SOL    HW199852   2.382   3.455   7.067
66026SOL    HW299853   2.462   3.386   7.176
66027SOL     OW99854   9.458   8.776   1.281
66027SOL    HW199855   9.441   8.688   1.247
66027SOL    HW299856   9.382   8.795   1.337
66028SOL     OW99857   9.356  12.834   2.053
66028SOL    HW199858   9.279  12.785   2.022
66028SOL    HW299859   9.391  12.875   1.974
66029SOL     OW99860   9.344   0.617  13.300
66029SOL    HW199861   9.323   0.706  13.269
66029SOL    HW299862   9.287   0.604  13.375
66030SOL     OW99863  14.185   0.418   9.427
66030SOL    HW199864  14.233   0.501   9.433
66030SOL    HW299865  14.158   0.412   9.335
66031SOL     OW99866   5.636  14.299   3.301
66031SOL    HW199867   5.584  14.315   3.221
66031SOL    HW299868   5.579  14.244   3.355
66032SOL     OW99869  14.396   4.176   6.447
66032SOL    HW199870  14.484   4.184   6.483
66032SOL    HW299871  14.381   4.082   6.440
66033SOL     OW99872   6.241   1.627  12.488
66033SOL    HW199873   6.267   1.715  12.516
66033SOL    HW299874   6.236   1.577  12.570
66034SOL     OW99875  13.761   0.714  12.159
66034SOL    HW199876  13.719   0.634  12.193
66034SOL    HW299877  13.749   0.709  12.065
66035SOL     OW99878   2.775   8.797   0.738
66035SOL    HW199879   2.721   8.731   0.782
66035SOL    HW299880   2.864   8.780   0.769
66036SOL     OW99881   7.740  10.774  11.916
66036SOL    HW199882   7.682  10.797  11.988
66036SOL    HW299883   7.681  10.739  11.849
66037SOL     OW99884   3.048   5.777   1.618
66037SOL    HW199885   2.973   5.778   1.559
66037SOL    HW299886   3.013   5.747   1.702
66038SOL     OW99887   2.347  10.589   8.392
66038SOL    HW199888   2.353  10.612   8.299
66038SOL    HW299889   2.423  10.533   8.408
66039SOL     OW99890  12.278   0.581   7.300
66039SOL    HW199891  12.208   0.553   7.359
66039SOL    HW299892  12.236   0.589   7.215
66040SOL     OW99893   6.154   0.388   7.127
66040SOL    HW199894   6.081   0.414   7.071
66040SOL    HW299895   6.116   0.324   7.187
66041SOL     OW99896   7.800   2.357   1.857
66041SOL    HW199897   7.778   2.431   1.801
66041SOL    HW299898   7.741   2.363   1.932
66042SOL     OW99899   9.947   1.719   2.297
66042SOL    HW199900   9.857   1.741   2.274
66042SOL    HW299901   9.957   1.628   2.269
66043SOL     OW99902   6.378  12.978   7.397
66043SOL    HW199903   6.384  12.889   7.364
66043SOL    HW299904   6.402  12.972   7.489
66044SOL     OW99905   2.730  10.455   8.810
66044SOL    HW199906   2.768  10.506   8.882
66044SOL    HW299907   2.803  10.433   8.754
66045SOL     OW99908   2.415   8.689   1.782
66045SOL    HW199909   2.475   8.620   1.756
66045SOL    HW299910   2.468   8.750   1.833
66046SOL     OW99911   9.182  11.225   5.189
66046SOL    HW199912   9.222  11.276   5.260
66046SOL    HW299913   9.239  11.149   5.179
66047SOL     OW99914   9.965  13.274   4.820
66047SOL    HW199915   9.903  13.216   4.864
66047SOL    HW299916  10.029  13.298   4.887
66048SOL     OW99917   9.831  11.035  13.411
66048SOL    HW199918   9.758  11.086  13.446
66048SOL    HW299919   9.877  11.095  13.353
66049SOL     OW99920   4.388   3.948   3.668
66049SOL    HW199921   4.330   3.901   3.608
66049SOL    HW299922   4.336   3.961   3.747
66050SOL     OW99923   1.868   0.407  13.386
66050SOL    HW199924   1.787   0.425  13.339
66050SOL    HW299925   1.921   0.486  13.373
66051SOL     OW99926  13.055   5.812   5.471
66051SOL    HW199927  13.084   5.829   5.561
66051SOL    HW299928  13.136   5.812   5.420
66052SOL     OW99929   3.227   8.909   4.664
66052SOL    HW199930   3.192   8.965   4.734
66052SOL    HW299931   3.270   8.838   4.711
66053SOL     OW99932   6.910  10.745   7.684
66053SOL    HW199933   6.947  10.807   7.621
66053SOL    HW299934   6.926  10.659   7.645
66054SOL     OW99935   2.154  13.889  11.758
66054SOL    HW199936   2.241  13.920  11.782
66054SOL    HW299937   2.157  13.795  11.774
66055SOL     OW99938   6.248   0.796  11.648
66055SOL    HW199939   6.205   0.837  11.573
66055SOL    HW299940   6.323   0.852  11.666
66056SOL     OW99941  11.874  12.730  11.952
66056SOL    HW199942  11.958  12.750  11.995
66056SOL    HW299943  11.828  12.813  11.948
66057SOL     OW99944   7.224   5.898   8.307
66057SOL    HW199945   7.152   5.919   8.247
66057SOL    HW299946   7.184   5.841   8.373
66058SOL     OW99947   6.528   0.864  14.599
66058SOL    HW199948   6.489   0.784  14.563
66058SOL    HW299949   6.588   0.833  14.666
66059SOL     OW99950  10.838  13.821   8.992
66059SOL    HW199951  10.912  13.882   8.988
66059SOL    HW299952  10.773  13.859   8.933
66060SOL     OW99953   6.047   5.399  11.356
66060SOL    HW199954   5.985   5.365  11.420
66060SOL    HW299955   6.128   5.413  11.404
66061SOL     OW99956   2.624   7.146  12.792
66061SOL    HW199957   2.613   7.160  12.886
66061SOL    HW299958   2.621   7.051  12.781
66062SOL     OW99959   4.209   6.102   3.428
66062SOL    HW199960   4.200   6.045   3.352
66062SOL    HW299961   4.120   6.130   3.448
66063SOL     OW99962  11.433   5.549  12.642
66063SOL    HW199963  11.482   5.580  12.566
66063SOL    HW299964  11.425   5.455  12.629
66064SOL     OW99965   9.791   9.772   5.318
66064SOL    HW199966   9.700   9.780   5.346
66064SOL    HW299967   9.793   9.690   5.268
66065SOL     OW99968   4.930   9.203   3.671
66065SOL    HW199969   4.989   9.222   3.744
66065SOL    HW299970   4.940   9.279   3.613
66066SOL     OW99971   1.291  10.905   1.129
66066SOL    HW199972   1.344  10.952   1.064
66066SOL    HW299973   1.299  10.813   1.104
66067SOL     OW99974  13.385   6.357  10.176
66067SOL    HW199975  13.426   6.420  10.235
66067SOL    HW299976  13.431   6.370  10.093
66068SOL     OW99977   7.069   4.854   9.795
66068SOL    HW199978   7.100   4.933   9.750
66068SOL    HW299979   7.085   4.871   9.888
66069SOL     OW99980   8.666   9.592  10.432
66069SOL    HW199981   8.694   9.681  10.410
66069SOL    HW299982   8.637   9.598  10.523
66070SOL     OW99983   3.378   5.196  14.722
66070SOL    HW199984   3.388   5.108  14.685
66070SOL    HW299985   3.383   5.183  14.817
66071SOL     OW99986   7.534   5.078   3.083
66071SOL    HW199987   7.585   5.008   3.123
66071SOL    HW299988   7.510   5.135   3.156
66072SOL     OW99989   8.507   5.895  13.691
66072SOL    HW199990   8.566   5.866  13.621
66072SOL    HW299991   8.481   5.983  13.665
66073SOL     OW99992  14.245   2.095  10.284
66073SOL    HW199993  14.228   2.072  10.193
66073SOL    HW299994  14.332   2.135  10.283
66074SOL     OW99995   7.250   0.284   9.056
66074SOL    HW199996   7.270   0.191   9.047
66074SOL    HW299997   7.260   0.302   9.149
66075SOL     OW99998  12.137   1.624  14.521
66075SOL    HW199999  12.063   1.566  14.540
66075SOL    HW2    0  12.129   1.694  14.586
66076SOL     OW    1   3.675   5.866   6.289
66076SOL    HW1    2   3.680   5.855   6.384
66076SOL    HW2    3   3.584   5.847   6.267
66077SOL     OW    4  12.718  12.457   6.117
66077SOL    HW1    5  12.627  12.478   6.099
66077SOL    HW2    6  12.717  12.416   6.204
66078SOL     OW    7  11.618   0.357   7.602
66078SOL    HW1    8  11.674   0.339   7.678
66078SOL    HW2    9  11.674   0.338   7.527
66079SOL     OW   10  10.854   7.895  14.669
66079SOL    HW1   11  10.907   7.887  14.590
66079SOL    HW2   12  10.851   7.989  14.688
66080SOL     OW   13   8.936   7.997   7.210
66080SOL    HW1   14   8.970   7.998   7.300
66080SOL    HW2   15   8.904   8.086   7.195
66081SOL     OW   16   7.719   1.563   8.776
66081SOL    HW1   17   7.722   1.658   8.775
66081SOL    HW2   18   7.667   1.542   8.854
66082SOL     OW   19   3.454   0.722   9.946
66082SOL    HW1   20   3.491   0.758  10.027
66082SOL    HW2   21   3.361   0.711   9.965
66083SOL     OW   22   3.581  11.651   6.159
66083SOL    HW1   23   3.673  11.634   6.139
66083SOL    HW2   24   3.544  11.687   6.078
66084SOL     OW   25   7.337  11.482  14.726
66084SOL    HW1   26   7.351  11.468  14.633
66084SOL    HW2   27   7.252  11.442  14.745
66085SOL     OW   28  13.945   0.362   8.829
66085SOL    HW1   29  13.876   0.398   8.884
66085SOL    HW2   30  13.915   0.377   8.739
66086SOL     OW   31   2.887   9.522  13.094
66086SOL    HW1   32   2.837   9.516  13.012
66086SOL    HW2   33   2.864   9.443  13.142
66087SOL     OW   34  14.631  14.808  13.538
66087SOL    HW1   35  14.575  14.730  13.536
66087SOL    HW2   36  14.668  14.808  13.626
66088SOL     OW   37   3.397   5.748  11.122
66088SOL    HW1   38   3.425   5.829  11.078
66088SOL    HW2   39   3.471   5.724  11.177
66089SOL     OW   40  12.481   8.261   3.965
66089SOL    HW1   41  12.536   8.318   4.018
66089SOL    HW2   42  12.422   8.321   3.918
66090SOL     OW   43  10.064  13.867   3.224
66090SOL    HW1   44  10.019  13.804   3.279
66090SOL    HW2   45  10.048  13.837   3.135
66091SOL     OW   46  11.125   3.262  11.525
66091SOL    HW1   47  11.037   3.298  11.519
66091SOL    HW2   48  11.118   3.173  11.489
66092SOL     OW   49   2.744   5.380   8.179
66092SOL    HW1   50   2.664   5.343   8.217
66092SOL    HW2   51   2.770   5.316   8.113
66093SOL     OW   52   9.761  12.693   6.262
66093SOL    HW1   53   9.670  12.677   6.285
66093SOL    HW2   54   9.760  12.778   6.217
66094SOL     OW   55   6.006  12.046   4.624
66094SOL    HW1   56   5.923  11.999   4.616
66094SOL    HW2   57   6.007  12.106   4.550
66095SOL     OW   58  13.849   8.394  11.168
66095SOL    HW1   59  13.794   8.463  11.131
66095SOL    HW2   60  13.788   8.337  11.215
66096SOL     OW   61   6.890   5.695   8.776
66096SOL    HW1   62   6.901   5.669   8.684
66096SOL    HW2   63   6.918   5.618   8.826
66097SOL     OW   64  14.229   1.326   4.741
66097SOL    HW1   65  14.242   1.414   4.705
66097SOL    HW2   66  14.302   1.275   4.705
66098SOL     OW   67  10.539   3.164  11.214
66098SOL    HW1   68  10.475   3.095  11.195
66098SOL    HW2   69  10.492   3.225  11.272
66099SOL     OW   70   3.551   0.012   6.195
66099SOL    HW1   71   3.632  14.855   6.162
66099SOL    HW2   72   3.580   0.087   6.248
66100SOL     OW   73  13.754  11.471   3.521
66100SOL    HW1   74  13.768  11.529   3.597
66100SOL    HW2   75  13.672  11.502   3.483
66101SOL     OW   76   6.487   8.730   6.062
66101SOL    HW1   77   6.478   8.685   5.978
66101SOL    HW2   78   6.490   8.823   6.040
66102SOL     OW   79   9.211   0.662   7.918
66102SOL    HW1   80   9.161   0.584   7.940
66102SOL    HW2   81   9.207   0.666   7.822
66103SOL     OW   82   5.275   6.466  14.672
66103SOL    HW1   83   5.361   6.450  14.709
66103SOL    HW2   84   5.292   6.516  14.592
66104SOL     OW   85  10.549   8.546  13.670
66104SOL    HW1   86  10.571   8.639  13.670
66104SOL    HW2   87  10.588   8.512  13.751
66105SOL     OW   88   9.296   9.764  11.596
66105SOL    HW1   89   9.245   9.844  11.607
66105SOL    HW2   90   9.242   9.710  11.538
66106SOL     OW   91   7.740  10.560  13.076
66106SOL    HW1   92   7.769  10.575  12.986
66106SOL    HW2   93   7.816  10.524  13.121
66107SOL     OW   94  11.917   2.117  13.750
66107SOL    HW1   95  11.939   2.199  13.707
66107SOL    HW2   96  11.875   2.065  13.682
66108SOL     OW   97   6.055   1.049   2.658
66108SOL    HW1   98   6.002   0.976   2.626
66108SOL    HW2   99   5.997   1.125   2.652
66109SOL     OW  100   8.193   3.121  10.773
66109SOL    HW1  101   8.140   3.073  10.837
66109SOL    HW2  102   8.198   3.063  10.698
66110SOL     OW  103   5.418   3.777   6.357
66110SOL    HW1  104   5.420   3.850   6.418
66110SOL    HW2  105   5.412   3.699   6.413
66111SOL     OW  106  13.308   7.101   1.991
66111SOL    HW1  107  13.375   7.092   1.923
66111SOL    HW2  108  13.294   7.011   2.022
66112SOL     OW  109   7.614   0.041   6.426
66112SOL    HW1  110   7.694   0.014   6.471
66112SOL    HW2  111   7.544  14.871   6.468
66113SOL     OW  112   1.631   3.840  12.720
66113SOL    HW1  113   1.624   3.781  12.795
66113SOL    HW2  114   1.541   3.868  12.703
66114SOL     OW  115  12.797   1.581  11.104
66114SOL    HW1  116  12.812   1.674  11.121
66114SOL    HW2  117  12.702   1.572  11.101
66115SOL     OW  118   8.324   6.129  12.663
66115SOL    HW1  119   8.392   6.189  12.631
66115SOL    HW2  120   8.243   6.162  12.625
66116SOL     OW  121   8.147  11.682   1.581
66116SOL    HW1  122   8.208  11.747   1.615
66116SOL    HW2  123   8.060  11.719   1.598
66117SOL     OW  124   3.639   7.081  14.640
66117SOL    HW1  125   3.632   7.175  14.627
66117SOL    HW2  126   3.649   7.070  14.735
66118SOL     OW  127   1.156  13.412  11.225
66118SOL    HW1  128   1.074  13.462  11.224
66118SOL    HW2  129   1.130  13.323  11.200
66119SOL     OW  130  12.984   4.989   8.811
66119SOL    HW1  131  13.002   5.082   8.819
66119SOL    HW2  132  12.934   4.968   8.890
66120SOL     OW  133  14.447   8.640  13.153
66120SOL    HW1  134  14.474   8.727  13.181
66120SOL    HW2  135  14.359   8.653  13.117
66121SOL     OW  136   0.963  11.175  11.588
66121SOL    HW1  137   0.914  11.212  11.662
66121SOL    HW2  138   1.015  11.105  11.628
66122SOL     OW  139   9.386  12.724   6.775
66122SOL    HW1  140   9.439  12.713   6.696
66122SOL    HW2  141   9.440  12.777   6.833
66123SOL     OW  142  12.712  14.144  12.700
66123SOL    HW1  143  12.616  14.139  12.704
66123SOL    HW2  144  12.735  14.090  12.623
66124SOL     OW  145   2.001   4.746  14.512
66124SOL    HW1  146   2.041   4.820  14.558
66124SOL    HW2  147   1.908   4.753  14.531
66125SOL     OW  148   6.689   5.255   8.842
66125SOL    HW1  149   6.705   5.337   8.888
66125SOL    HW2  150   6.602   5.266   8.802
66126SOL     OW  151   6.451  11.633   8.602
66126SOL    HW1  152   6.505  11.611   8.678
66126SOL    HW2  153   6.414  11.719   8.622
66127SOL     OW  154  12.230   5.310   3.709
66127SOL    HW1  155  12.234   5.217   3.733
66127SOL    HW2  156  12.146   5.340   3.744
66128SOL     OW  157   5.192   2.220   6.702
66128SOL    HW1  158   5.113   2.166   6.698
66128SOL    HW2  159   5.164   2.306   6.670
66129SOL     OW  160   5.637   2.667   8.903
66129SOL    HW1  161   5.688   2.615   8.965
66129SOL    HW2  162   5.646   2.757   8.935
66130SOL     OW  163   6.517  13.303  14.463
66130SOL    HW1  164   6.607  13.290  14.494
66130SOL    HW2  165   6.463  13.275  14.536
66131SOL     OW  166  14.055   3.457   6.703
66131SOL    HW1  167  14.029   3.405   6.779
66131SOL    HW2  168  14.144   3.429   6.684
66132SOL     OW  169   3.016   8.130   4.596
66132SOL    HW1  170   3.060   8.046   4.609
66132SOL    HW2  171   2.948   8.112   4.531
66133SOL     OW  172  10.454   9.782   5.801
66133SOL    HW1  173  10.479   9.846   5.867
66133SOL    HW2  174  10.400   9.832   5.739
66134SOL     OW  175   1.399  14.308   5.846
66134SOL    HW1  176   1.443  14.254   5.912
66134SOL    HW2  177   1.461  14.378   5.826
66135SOL     OW  178   2.675   9.016   7.191
66135SOL    HW1  179   2.624   8.982   7.265
66135SOL    HW2  180   2.753   9.053   7.230
66136SOL     OW  181   1.357   6.916   6.034
66136SOL    HW1  182   1.448   6.931   6.062
66136SOL    HW2  183   1.339   6.826   6.058
66137SOL     OW  184   8.492  14.503  14.596
66137SOL    HW1  185   8.576  14.541  14.621
66137SOL    HW2  186   8.451  14.478  14.679
66138SOL     OW  187   7.109  10.841   0.376
66138SOL    HW1  188   7.083  10.933   0.378
66138SOL    HW2  189   7.085  10.810   0.289
66139SOL     OW  190   3.853   1.348   6.568
66139SOL    HW1  191   3.764   1.376   6.592
66139SOL    HW2  192   3.845   1.253   6.557
66140SOL     OW  193   7.296   5.560   1.384
66140SOL    HW1  194   7.212   5.577   1.426
66140SOL    HW2  195   7.290   5.469   1.356
66141SOL     OW  196   1.388  14.134   1.080
66141SOL    HW1  197   1.420  14.143   1.170
66141SOL    HW2  198   1.405  14.042   1.058
66142SOL     OW  199   7.183  10.968   9.923
66142SOL    HW1  200   7.120  11.033   9.893
66142SOL    HW2  201   7.248  10.963   9.853
66143SOL     OW  202  13.674   6.591   6.648
66143SOL    HW1  203  13.640   6.645   6.577
66143SOL    HW2  204  13.600   6.583   6.709
66144SOL     OW  205   1.001  12.191  11.329
66144SOL    HW1  206   0.995  12.205  11.424
66144SOL    HW2  207   1.022  12.099  11.319
66145SOL     OW  208   8.138   9.247  11.519
66145SOL    HW1  209   8.211   9.201  11.477
66145SOL    HW2  210   8.064   9.186  11.512
66146SOL     OW  211   6.313  13.447   3.273
66146SOL    HW1  212   6.308  13.352   3.282
66146SOL    HW2  213   6.381  13.474   3.334
66147SOL     OW  214   1.420   8.165  14.364
66147SOL    HW1  215   1.422   8.253  14.327
66147SOL    HW2  216   1.438   8.178  14.457
66148SOL     OW  217   7.262  13.453   9.401
66148SOL    HW1  218   7.315  13.453   9.480
66148SOL    HW2  219   7.305  13.391   9.342
66149SOL     OW  220   5.951   8.352   5.402
66149SOL    HW1  221   5.875   8.314   5.446
66149SOL    HW2  222   5.930   8.345   5.308
66150SOL     OW  223   8.444   8.854   8.950
66150SOL    HW1  224   8.450   8.917   8.877
66150SOL    HW2  225   8.502   8.889   9.017
66151SOL     OW  226   3.568  13.152   0.020
66151SOL    HW1  227   3.475  13.159   0.003
66151SOL    HW2  228   3.607  13.128  14.817
66152SOL     OW  229  12.658   9.856  11.902
66152SOL    HW1  230  12.689   9.769  11.927
66152SOL    HW2  231  12.596   9.880  11.971
66153SOL     OW  232  11.319  12.628  12.796
66153SOL    HW1  233  11.341  12.571  12.722
66153SOL    HW2  234  11.231  12.601  12.822
66154SOL     OW  235   7.133   3.846   6.578
66154SOL    HW1  236   7.212   3.888   6.613
66154SOL    HW2  237   7.116   3.773   6.639
66155SOL     OW  238   6.090   4.721   3.392
66155SOL    HW1  239   6.085   4.806   3.434
66155SOL    HW2  240   5.999   4.697   3.374
66156SOL     OW  241   0.420   1.250   4.668
66156SOL    HW1  242   0.454   1.312   4.604
66156SOL    HW2  243   0.388   1.304   4.740
66157SOL     OW  244   0.282   2.188   7.165
66157SOL    HW1  245   0.355   2.170   7.106
66157SOL    HW2  246   0.286   2.282   7.181
66158SOL     OW  247   5.418   9.241   1.700
66158SOL    HW1  248   5.461   9.165   1.738
66158SOL    HW2  249   5.394   9.296   1.775
66159SOL     OW  250  14.367  10.608   7.003
66159SOL    HW1  251  14.281  10.639   6.973
66159SOL    HW2  252  14.354  10.515   7.020
66160SOL     OW  253   9.415  14.232   3.466
66160SOL    HW1  254   9.336  14.206   3.513
66160SOL    HW2  255   9.408  14.190   3.381
66161SOL     OW  256   2.067   3.173   5.695
66161SOL    HW1  257   2.019   3.254   5.678
66161SOL    HW2  258   2.007   3.103   5.668
66162SOL     OW  259   7.179   9.052  14.114
66162SOL    HW1  260   7.231   9.073  14.037
66162SOL    HW2  261   7.226   8.979  14.155
66163SOL     OW  262  10.028   3.565  11.568
66163SOL    HW1  263   9.936   3.573  11.594
66163SOL    HW2  264  10.064   3.652  11.580
66164SOL     OW  265   8.337  10.860   6.232
66164SOL    HW1  266   8.257  10.840   6.184
66164SOL    HW2  267   8.391  10.908   6.169
66165SOL     OW  268   8.371   9.332  10.326
66165SOL    HW1  269   8.345   9.270  10.394
66165SOL    HW2  270   8.288   9.362  10.288
66166SOL     OW  271   0.452   5.250   6.084
66166SOL    HW1  272   0.462   5.214   6.172
66166SOL    HW2  273   0.488   5.183   6.026
66167SOL     OW  274   8.404   7.590   7.261
66167SOL    HW1  275   8.414   7.680   7.291
66167SOL    HW2  276   8.429   7.537   7.338
66168SOL     OW  277   1.259  14.798   8.163
66168SOL    HW1  278   1.237  14.706   8.176
66168SOL    HW2  279   1.334  14.813   8.221
66169SOL     OW  280  14.010   2.384   7.680
66169SOL    HW1  281  13.998   2.320   7.611
66169SOL    HW2  282  14.045   2.334   7.754
66170SOL     OW  283   9.494  12.480  13.811
66170SOL    HW1  284   9.588  12.460  13.808
66170SOL    HW2  285   9.480  12.511  13.901
66171SOL     OW  286   6.819   7.265   9.699
66171SOL    HW1  287   6.746   7.235   9.645
66171SOL    HW2  288   6.798   7.356   9.720
66172SOL     OW  289  14.183   3.087  11.956
66172SOL    HW1  290  14.175   3.150  12.028
66172SOL    HW2  291  14.107   3.030  11.966
66173SOL     OW  292  10.026   2.540   8.447
66173SOL    HW1  293  10.054   2.448   8.442
66173SOL    HW2  294   9.974   2.553   8.368
66174SOL     OW  295  13.057   1.302  14.218
66174SOL    HW1  296  12.973   1.332  14.252
66174SOL    HW2  297  13.118   1.315  14.291
66175SOL     OW  298  11.476   7.671  14.135
66175SOL    HW1  299  11.457   7.762  14.115
66175SOL    HW2  300  11.429   7.621  14.069
66176SOL     OW  301   5.939   3.640  11.260
66176SOL    HW1  302   5.905   3.576  11.197
66176SOL    HW2  303   5.886   3.719  11.245
66177SOL     OW  304  12.772  10.345   1.559
66177SOL    HW1  305  12.786  10.268   1.614
66177SOL    HW2  306  12.858  10.367   1.525
66178SOL     OW  307   4.704   3.583   1.550
66178SOL    HW1  308   4.785   3.555   1.591
66178SOL    HW2  309   4.689   3.520   1.480
66179SOL     OW  310   4.255   3.286   9.787
66179SOL    HW1  311   4.159   3.287   9.790
66179SOL    HW2  312   4.280   3.219   9.850
66180SOL     OW  313  14.794   5.595  11.200
66180SOL    HW1  314  14.804   5.531  11.129
66180SOL    HW2  315  14.719   5.648  11.174
66181SOL     OW  316   7.221   4.387   0.192
66181SOL    HW1  317   7.254   4.422   0.275
66181SOL    HW2  318   7.257   4.445   0.125
66182SOL     OW  319  11.878   1.291   0.556
66182SOL    HW1  320  11.974   1.287   0.563
66182SOL    HW2  321  11.849   1.206   0.587
66183SOL     OW  322  12.444  14.772   2.494
66183SOL    HW1  323  12.368  14.825   2.518
66183SOL    HW2  324  12.505  14.785   2.567
66184SOL     OW  325   8.009   3.265  12.298
66184SOL    HW1  326   7.958   3.299  12.372
66184SOL    HW2  327   8.044   3.182  12.329
66185SOL     OW  328   2.960   2.855   9.235
66185SOL    HW1  329   2.877   2.839   9.189
66185SOL    HW2  330   3.027   2.844   9.167
66186SOL     OW  331  13.696   7.362   6.021
66186SOL    HW1  332  13.605   7.340   6.004
66186SOL    HW2  333  13.746   7.292   5.979
66187SOL     OW  334   6.551   9.207   4.973
66187SOL    HW1  335   6.513   9.217   4.886
66187SOL    HW2  336   6.622   9.271   4.976
66188SOL     OW  337   8.604   9.696   5.547
66188SOL    HW1  338   8.627   9.638   5.474
66188SOL    HW2  339   8.622   9.784   5.514
66189SOL     OW  340   4.365   3.693   7.885
66189SOL    HW1  341   4.378   3.672   7.978
66189SOL    HW2  342   4.447   3.666   7.843
66190SOL     OW  343  13.033   4.928   2.054
66190SOL    HW1  344  13.041   4.870   1.978
66190SOL    HW2  345  13.098   4.895   2.116
66191SOL     OW  346   3.311   9.469   5.113
66191SOL    HW1  347   3.345   9.390   5.154
66191SOL    HW2  348   3.312   9.451   5.019
66192SOL     OW  349  14.652   4.969   5.021
66192SOL    HW1  350  14.690   5.048   5.061
66192SOL    HW2  351  14.720   4.939   4.960
66193SOL     OW  352  14.739   7.854   6.879
66193SOL    HW1  353  14.831   7.877   6.869
66193SOL    HW2  354  14.723   7.857   6.973
66194SOL     OW  355   9.727  11.955  11.781
66194SOL    HW1  356   9.638  11.926  11.759
66194SOL    HW2  357   9.724  12.050  11.770
66195SOL     OW  358   7.359   2.166  14.434
66195SOL    HW1  359   7.325   2.196  14.517
66195SOL    HW2  360   7.401   2.082  14.454
66196SOL     OW  361   1.974  13.390   9.406
66196SOL    HW1  362   1.884  13.358   9.400
66196SOL    HW2  363   2.001  13.404   9.315
66197SOL     OW  364  14.660  12.792  14.494
66197SOL    HW1  365  14.651  12.711  14.445
66197SOL    HW2  366  14.591  12.849  14.459
66198SOL     OW  367   4.877   2.330   0.775
66198SOL    HW1  368   4.966   2.296   0.781
66198SOL    HW2  369   4.824   2.255   0.749
66199SOL     OW  370   6.632   2.943   0.614
66199SOL    HW1  371   6.571   2.973   0.547
66199SOL    HW2  372   6.658   2.855   0.585
66200SOL     OW  373   1.221  12.844   7.260
66200SOL    HW1  374   1.148  12.841   7.322
66200SOL    HW2  375   1.219  12.759   7.216
66201SOL     OW  376   5.119   9.719  10.879
66201SOL    HW1  377   5.204   9.750  10.846
66201SOL    HW2  378   5.094   9.784  10.944
66202SOL     OW  379  13.011  10.573   6.690
66202SOL    HW1  380  12.931  10.527   6.712
66202SOL    HW2  381  12.988  10.627   6.614
66203SOL     OW  382   1.998  10.304   5.694
66203SOL    HW1  383   1.959  10.391   5.682
66203SOL    HW2  384   2.001  10.267   5.606
66204SOL     OW  385  13.705  11.087   6.877
66204SOL    HW1  386  13.756  11.168   6.866
66204SOL    HW2  387  13.754  11.021   6.829
66205SOL     OW  388   2.539   7.621  11.121
66205SOL    HW1  389   2.552   7.534  11.083
66205SOL    HW2  390   2.514   7.676  11.046
66206SOL     OW  391   0.199   4.820   8.936
66206SOL    HW1  392   0.153   4.790   9.015
66206SOL    HW2  393   0.281   4.856   8.969
66207SOL     OW  394   9.090   9.597   0.131
66207SOL    HW1  395   9.179   9.614   0.161
66207SOL    HW2  396   9.068   9.673   0.077
66208SOL     OW  397   8.581  14.069   8.980
66208SOL    HW1  398   8.599  14.024   9.062
66208SOL    HW2  399   8.551  14.000   8.921
66209SOL     OW  400  10.076   3.852  10.799
66209SOL    HW1  401   9.987   3.823  10.821
66209SOL    HW2  402  10.106   3.789  10.734
66210SOL     OW  403   8.010   9.679  11.351
66210SOL    HW1  404   7.964   9.624  11.414
66210SOL    HW2  405   8.100   9.685  11.385
66211SOL     OW  406  14.142   9.226   9.901
66211SOL    HW1  407  14.098   9.222   9.985
66211SOL    HW2  408  14.221   9.172   9.913
66212SOL     OW  409  11.346  12.894   3.401
66212SOL    HW1  410  11.429  12.908   3.446
66212SOL    HW2  411  11.280  12.906   3.470
66213SOL     OW  412   9.142  13.717   2.152
66213SOL    HW1  413   9.068  13.664   2.180
66213SOL    HW2  414   9.105  13.803   2.134
66214SOL     OW  415   0.140   7.956   1.547
66214SOL    HW1  416   0.109   7.952   1.457
66214SOL    HW2  417   0.063   7.938   1.601
66215SOL     OW  418  10.605  14.172  14.863
66215SOL    HW1  419  10.581  14.154   0.073
66215SOL    HW2  420  10.610  14.085  14.822
66216SOL     OW  421   7.956   6.946   2.296
66216SOL    HW1  422   8.029   6.977   2.243
66216SOL    HW2  423   7.978   6.855   2.316
66217SOL     OW  424  11.949   8.487   1.079
66217SOL    HW1  425  11.900   8.566   1.103
66217SOL    HW2  426  11.947   8.485   0.983
66218SOL     OW  427   0.252   0.637   7.723
66218SOL    HW1  428   0.329   0.648   7.667
66218SOL    HW2  429   0.256   0.546   7.752
66219SOL     OW  430   9.436   2.900   6.381
66219SOL    HW1  431   9.472   2.870   6.465
66219SOL    HW2  432   9.361   2.843   6.365
66220SOL     OW  433   7.113   9.791   5.148
66220SOL    HW1  434   7.192   9.803   5.095
66220SOL    HW2  435   7.063   9.872   5.136
66221SOL     OW  436   6.128  13.392   7.122
66221SOL    HW1  437   6.165  13.436   7.199
66221SOL    HW2  438   6.162  13.442   7.048
66222SOL     OW  439   0.932  11.154   6.291
66222SOL    HW1  440   1.017  11.198   6.286
66222SOL    HW2  441   0.901  11.170   6.380
66223SOL     OW  442  14.241   7.613   5.261
66223SOL    HW1  443  14.189   7.597   5.182
66223SOL    HW2  444  14.307   7.544   5.262
66224SOL     OW  445   0.184   9.733  12.554
66224SOL    HW1  446   0.100   9.751  12.512
66224SOL    HW2  447   0.221   9.820  12.572
66225SOL     OW  448  12.431   8.940   9.798
66225SOL    HW1  449  12.503   8.948   9.860
66225SOL    HW2  450  12.375   8.870   9.833
66226SOL     OW  451   7.227   2.544   1.328
66226SOL    HW1  452   7.185   2.486   1.263
66226SOL    HW2  453   7.155   2.584   1.375
66227SOL     OW  454  12.930  14.679  11.712
66227SOL    HW1  455  12.898  14.702  11.799
66227SOL    HW2  456  12.854  14.691  11.654
66228SOL     OW  457   5.078   2.035  10.984
66228SOL    HW1  458   5.096   2.121  11.021
66228SOL    HW2  459   5.164   1.993  10.978
66229SOL     OW  460   9.739   4.518   3.171
66229SOL    HW1  461   9.657   4.567   3.170
66229SOL    HW2  462   9.808   4.585   3.171
66230SOL     OW  463   8.224  12.385   6.612
66230SOL    HW1  464   8.298  12.330   6.587
66230SOL    HW2  465   8.167  12.385   6.535
66231SOL     OW  466   8.768   7.983   5.168
66231SOL    HW1  467   8.846   7.970   5.114
66231SOL    HW2  468   8.776   7.918   5.238
66232SOL     OW  469  13.257  10.303  14.639
66232SOL    HW1  470  13.188  10.359  14.603
66232SOL    HW2  471  13.210  10.226  14.673
66233SOL     OW  472  11.265   3.590   8.690
66233SOL    HW1  473  11.182   3.630   8.716
66233SOL    HW2  474  11.311   3.575   8.773
66234SOL     OW  475   8.083  14.259   0.870
66234SOL    HW1  476   8.168  14.218   0.884
66234SOL    HW2  477   8.023  14.210   0.927
66235SOL     OW  478   8.928  13.242  11.478
66235SOL    HW1  479   8.942  13.278  11.390
66235SOL    HW2  480   8.884  13.158  11.462
66236SOL     OW  481   5.362   3.009   7.871
66236SOL    HW1  482   5.355   3.088   7.817
66236SOL    HW2  483   5.345   3.041   7.960
66237SOL     OW  484   4.761   7.930   6.551
66237SOL    HW1  485   4.719   7.970   6.627
66237SOL    HW2  486   4.698   7.940   6.480
66238SOL     OW  487   1.243   2.471  13.923
66238SOL    HW1  488   1.202   2.444  13.841
66238SOL    HW2  489   1.293   2.549  13.901
66239SOL     OW  490  13.482   0.821  12.874
66239SOL    HW1  491  13.424   0.814  12.798
66239SOL    HW2  492  13.506   0.913  12.877
66240SOL     OW  493   5.122  12.856   7.841
66240SOL    HW1  494   5.115  12.773   7.795
66240SOL    HW2  495   5.119  12.922   7.772
66241SOL     OW  496  10.985  14.085   9.971
66241SOL    HW1  497  11.032  14.103   9.889
66241SOL    HW2  498  10.917  14.153   9.974
66242SOL     OW  499   7.617  11.364  13.644
66242SOL    HW1  500   7.630  11.361  13.739
66242SOL    HW2  501   7.673  11.294  13.610
66243SOL     OW  502  10.273   1.574  10.769
66243SOL    HW1  503  10.292   1.591  10.861
66243SOL    HW2  504  10.357   1.545  10.733
66244SOL     OW  505   3.841  12.226   1.612
66244SOL    HW1  506   3.788  12.241   1.534
66244SOL    HW2  507   3.779  12.237   1.685
66245SOL     OW  508   6.004  10.413   2.165
66245SOL    HW1  509   5.950  10.344   2.128
66245SOL    HW2  510   6.087  10.406   2.118
66246SOL     OW  511   0.069   9.522   6.206
66246SOL    HW1  512   0.139   9.538   6.270
66246SOL    HW2  513   0.114   9.484   6.131
66247SOL     OW  514  12.952  10.222  14.096
66247SOL    HW1  515  13.029  10.182  14.056
66247SOL    HW2  516  12.975  10.231  14.189
66248SOL     OW  517   8.073   9.558   3.576
66248SOL    HW1  518   8.043   9.642   3.541
66248SOL    HW2  519   8.168   9.567   3.584
66249SOL     OW  520  14.783   2.592   6.729
66249SOL    HW1  521  14.802   2.511   6.683
66249SOL    HW2  522  14.749   2.651   6.661
66250SOL     OW  523   1.246   3.364   5.017
66250SOL    HW1  524   1.174   3.336   5.072
66250SOL    HW2  525   1.204   3.394   4.936
66251SOL     OW  526   4.036  12.069   1.040
66251SOL    HW1  527   4.120  12.115   1.041
66251SOL    HW2  528   4.048  11.998   0.978
66252SOL     OW  529  12.048  11.416  13.299
66252SOL    HW1  530  12.125  11.468  13.277
66252SOL    HW2  531  12.083  11.329  13.320
66253SOL     OW  532   3.737  10.328   3.166
66253SOL    HW1  533   3.742  10.243   3.122
66253SOL    HW2  534   3.713  10.307   3.256
66254SOL     OW  535   7.261  14.112  10.975
66254SOL    HW1  536   7.244  14.022  11.002
66254SOL    HW2  537   7.289  14.156  11.055
66255SOL     OW  538   5.085   9.381   6.778
66255SOL    HW1  539   5.009   9.437   6.759
66255SOL    HW2  540   5.080   9.311   6.712
66256SOL     OW  541   5.969   9.296   6.931
66256SOL    HW1  542   5.971   9.364   6.999
66256SOL    HW2  543   5.989   9.215   6.978
66257SOL     OW  544  10.226   8.072   3.780
66257SOL    HW1  545  10.202   8.004   3.843
66257SOL    HW2  546  10.194   8.153   3.820
66258SOL     OW  547   7.939   3.413   8.198
66258SOL    HW1  548   7.937   3.323   8.165
66258SOL    HW2  549   7.894   3.464   8.131
66259SOL     OW  550   6.613  10.538   9.604
66259SOL    HW1  551   6.685  10.487   9.568
66259SOL    HW2  552   6.593  10.497   9.688
66260SOL     OW  553   3.906   0.079   8.813
66260SOL    HW1  554   3.854   0.090   8.733
66260SOL    HW2  555   3.843   0.093   8.884
66261SOL     OW  556   8.572   7.393   6.841
66261SOL    HW1  557   8.601   7.394   6.932
66261SOL    HW2  558   8.477   7.388   6.845
66262SOL     OW  559   1.393  12.039  13.674
66262SOL    HW1  560   1.443  12.120  13.666
66262SOL    HW2  561   1.432  11.980  13.610
66263SOL     OW  562  11.046   6.036  14.754
66263SOL    HW1  563  11.087   5.968  14.700
66263SOL    HW2  564  10.965   5.995  14.787
66264SOL     OW  565   9.445  14.129   8.657
66264SOL    HW1  566   9.419  14.110   8.567
66264SOL    HW2  567   9.362  14.136   8.704
66265SOL     OW  568  10.755   7.168  14.625
66265SOL    HW1  569  10.800   7.227  14.685
66265SOL    HW2  570  10.824   7.135  14.567
66266SOL     OW  571   2.585  11.026  12.952
66266SOL    HW1  572   2.540  10.945  12.975
66266SOL    HW2  573   2.561  11.042  12.860
66267SOL     OW  574  13.197   0.808   3.006
66267SOL    HW1  575  13.208   0.895   2.967
66267SOL    HW2  576  13.206   0.748   2.932
66268SOL     OW  577   8.671  12.870   0.671
66268SOL    HW1  578   8.734  12.900   0.736
66268SOL    HW2  579   8.699  12.912   0.590
66269SOL     OW  580  12.181   4.661  12.001
66269SOL    HW1  581  12.204   4.609  12.078
66269SOL    HW2  582  12.250   4.643  11.938
66270SOL     OW  583   8.003   6.351   6.174
66270SOL    HW1  584   7.959   6.332   6.091
66270SOL    HW2  585   7.985   6.275   6.228
66271SOL     OW  586  10.581   5.782  11.572
66271SOL    HW1  587  10.533   5.802  11.492
66271SOL    HW2  588  10.514   5.778  11.640
66272SOL     OW  589   9.044   7.798   2.210
66272SOL    HW1  590   8.957   7.791   2.172
66272SOL    HW2  591   9.087   7.868   2.160
66273SOL     OW  592  10.475  13.631  12.349
66273SOL    HW1  593  10.508  13.717  12.324
66273SOL    HW2  594  10.534  13.601  12.418
66274SOL     OW  595   8.071   8.381  13.157
66274SOL    HW1  596   8.034   8.410  13.073
66274SOL    HW2  597   7.996   8.380  13.217
66275SOL     OW  598  13.518   0.067   6.471
66275SOL    HW1  599  13.522   0.149   6.423
66275SOL    HW2  600  13.599   0.065   6.522
66276SOL     OW  601  13.808   8.179  10.309
66276SOL    HW1  602  13.884   8.179  10.368
66276SOL    HW2  603  13.787   8.086  10.298
66277SOL     OW  604   1.997   8.628   7.548
66277SOL    HW1  605   2.051   8.635   7.469
66277SOL    HW2  606   1.909   8.608   7.516
66278SOL     OW  607  12.769  12.607   8.641
66278SOL    HW1  608  12.824  12.653   8.578
66278SOL    HW2  609  12.695  12.666   8.656
66279SOL     OW  610  12.077   7.740  11.233
66279SOL    HW1  611  12.012   7.699  11.175
66279SOL    HW2  612  12.066   7.834  11.218
66280SOL     OW  613   9.366   4.936   4.985
66280SOL    HW1  614   9.454   4.971   4.972
66280SOL    HW2  615   9.370   4.892   5.070
66281SOL     OW  616   8.715  12.134   5.771
66281SOL    HW1  617   8.629  12.163   5.801
66281SOL    HW2  618   8.714  12.039   5.786
66282SOL     OW  619  14.780  14.361   8.238
66282SOL    HW1  620  14.855  14.385   8.184
66282SOL    HW2  621  14.795  14.405   8.321
66283SOL     OW  622   9.478   2.865  13.732
66283SOL    HW1  623   9.532   2.833  13.660
66283SOL    HW2  624   9.392   2.826  13.717
66284SOL     OW  625   3.714   0.431   2.052
66284SOL    HW1  626   3.748   0.513   2.016
66284SOL    HW2  627   3.620   0.433   2.031
66285SOL     OW  628  12.054   6.893  14.608
66285SOL    HW1  629  12.110   6.901  14.686
66285SOL    HW2  630  11.988   6.828  14.632
66286SOL     OW  631  10.743  11.208  14.671
66286SOL    HW1  632  10.739  11.278  14.737
66286SOL    HW2  633  10.718  11.252  14.589
66287SOL     OW  634   2.261  11.491   7.846
66287SOL    HW1  635   2.299  11.451   7.767
66287SOL    HW2  636   2.188  11.434   7.869
66288SOL     OW  637  10.107  13.112   4.610
66288SOL    HW1  638  10.103  13.157   4.694
66288SOL    HW2  639  10.084  13.179   4.545
66289SOL     OW  640  11.632  12.695   5.198
66289SOL    HW1  641  11.643  12.738   5.114
66289SOL    HW2  642  11.581  12.757   5.251
66290SOL     OW  643   3.818  13.553   8.844
66290SOL    HW1  644   3.810  13.463   8.812
66290SOL    HW2  645   3.895  13.550   8.902
66291SOL     OW  646  11.254   4.848   8.246
66291SOL    HW1  647  11.187   4.800   8.197
66291SOL    HW2  648  11.205   4.913   8.296
66292SOL     OW  649   8.192  11.129   6.652
66292SOL    HW1  650   8.172  11.076   6.574
66292SOL    HW2  651   8.118  11.190   6.658
66293SOL     OW  652   4.643   1.570  14.306
66293SOL    HW1  653   4.623   1.542  14.216
66293SOL    HW2  654   4.738   1.583  14.306
66294SOL     OW  655   8.641   4.860   9.062
66294SOL    HW1  656   8.712   4.886   9.120
66294SOL    HW2  657   8.571   4.831   9.121
66295SOL     OW  658  13.906   1.269  11.263
66295SOL    HW1  659  13.994   1.233  11.262
66295SOL    HW2  660  13.904   1.330  11.189
66296SOL     OW  661  12.449  13.142   7.618
66296SOL    HW1  662  12.522  13.203   7.629
66296SOL    HW2  663  12.489  13.063   7.584
66297SOL     OW  664   2.013   8.237   0.632
66297SOL    HW1  665   2.092   8.182   0.631
66297SOL    HW2  666   1.958   8.202   0.563
66298SOL     OW  667   8.644  12.780  10.473
66298SOL    HW1  668   8.606  12.865  10.450
66298SOL    HW2  669   8.715  12.767  10.409
66299SOL     OW  670  10.482   7.610   9.247
66299SOL    HW1  671  10.434   7.551   9.306
66299SOL    HW2  672  10.546   7.654   9.304
66300SOL     OW  673   9.728   2.102  11.829
66300SOL    HW1  674   9.670   2.152  11.771
66300SOL    HW2  675   9.762   2.167  11.890
66301SOL     OW  676  14.806   0.786  12.717
66301SOL    HW1  677  14.879   0.791  12.778
66301SOL    HW2  678  14.728   0.789  12.772
66302SOL     OW  679   7.561   2.107  10.779
66302SOL    HW1  680   7.473   2.141  10.764
66302SOL    HW2  681   7.609   2.129  10.700
66303SOL     OW  682   9.501  11.592   1.934
66303SOL    HW1  683   9.523  11.652   1.864
66303SOL    HW2  684   9.549  11.512   1.913
66304SOL     OW  685   2.583  12.053   6.948
66304SOL    HW1  686   2.546  12.025   6.865
66304SOL    HW2  687   2.657  12.109   6.924
66305SOL     OW  688  12.464   6.775   9.442
66305SOL    HW1  689  12.534   6.709   9.439
66305SOL    HW2  690  12.388   6.728   9.476
66306SOL     OW  691  11.989  12.488  10.444
66306SOL    HW1  692  11.945  12.515  10.364
66306SOL    HW2  693  12.074  12.532  10.441
66307SOL     OW  694   6.530  11.089  13.255
66307SOL    HW1  695   6.564  11.065  13.341
66307SOL    HW2  696   6.443  11.049  13.251
66308SOL     OW  697  12.605  10.056   5.217
66308SOL    HW1  698  12.642  10.142   5.239
66308SOL    HW2  699  12.646   9.996   5.280
66309SOL     OW  700   0.408  11.767   9.597
66309SOL    HW1  701   0.354  11.694   9.566
66309SOL    HW2  702   0.474  11.726   9.653
66310SOL     OW  703   2.109   5.830  12.536
66310SOL    HW1  704   2.015   5.814  12.545
66310SOL    HW2  705   2.131   5.800  12.448
66311SOL     OW  706   8.644   3.737   6.652
66311SOL    HW1  707   8.716   3.675   6.665
66311SOL    HW2  708   8.643   3.790   6.732
66312SOL     OW  709  14.462   3.982  11.637
66312SOL    HW1  710  14.534   3.990  11.699
66312SOL    HW2  711  14.433   4.072  11.621
66313SOL     OW  712   8.996  14.249   2.670
66313SOL    HW1  713   8.951  14.165   2.661
66313SOL    HW2  714   8.948  14.295   2.739
66314SOL     OW  715  11.455  12.999   7.954
66314SOL    HW1  716  11.537  13.015   7.906
66314SOL    HW2  717  11.437  12.906   7.940
66315SOL     OW  718   4.051   5.040  10.108
66315SOL    HW1  719   3.992   4.965  10.100
66315SOL    HW2  720   4.099   5.024  10.189
66316SOL     OW  721  14.406  14.824   6.392
66316SOL    HW1  722  14.395  14.731   6.370
66316SOL    HW2  723  14.500  14.836   6.400
66317SOL     OW  724   6.351   4.124   0.416
66317SOL    HW1  725   6.300   4.113   0.496
66317SOL    HW2  726   6.397   4.041   0.405
66318SOL     OW  727  11.025   7.991  12.840
66318SOL    HW1  728  11.019   7.945  12.923
66318SOL    HW2  729  11.118   7.990  12.818
66319SOL     OW  730   1.603   3.541   1.929
66319SOL    HW1  731   1.543   3.576   1.863
66319SOL    HW2  732   1.690   3.561   1.896
66320SOL     OW  733  11.143   4.090   2.650
66320SOL    HW1  734  11.235   4.119   2.645
66320SOL    HW2  735  11.136   4.023   2.582
66321SOL     OW  736   5.250   4.569   0.494
66321SOL    HW1  737   5.291   4.483   0.488
66321SOL    HW2  738   5.269   4.599   0.582
66322SOL     OW  739   5.203   0.523   6.815
66322SOL    HW1  740   5.167   0.459   6.753
66322SOL    HW2  741   5.293   0.493   6.830
66323SOL     OW  742   8.761   3.586   2.555
66323SOL    HW1  743   8.688   3.526   2.543
66323SOL    HW2  744   8.722   3.673   2.543
66324SOL     OW  745   2.064  12.492   3.221
66324SOL    HW1  746   2.098  12.437   3.151
66324SOL    HW2  747   2.101  12.455   3.301
66325SOL     OW  748   9.143  10.996   7.663
66325SOL    HW1  749   9.048  11.007   7.667
66325SOL    HW2  750   9.166  10.949   7.743
66326SOL     OW  751   1.940  13.341  12.571
66326SOL    HW1  752   1.887  13.389  12.508
66326SOL    HW2  753   2.008  13.299  12.518
66327SOL     OW  754  12.866   0.775  11.383
66327SOL    HW1  755  12.922   0.700  11.360
66327SOL    HW2  756  12.790   0.766  11.326
66328SOL     OW  757   1.200  14.330  12.127
66328SOL    HW1  758   1.133  14.287  12.181
66328SOL    HW2  759   1.197  14.283  12.043
66329SOL     OW  760   6.034  11.299  13.644
66329SOL    HW1  761   6.126  11.275  13.653
66329SOL    HW2  762   6.019  11.303  13.549
66330SOL     OW  763  11.075   1.047  10.830
66330SOL    HW1  764  11.048   0.977  10.770
66330SOL    HW2  765  10.995   1.098  10.844
66331SOL     OW  766   3.837   5.370  14.626
66331SOL    HW1  767   3.825   5.380  14.531
66331SOL    HW2  768   3.754   5.399  14.664
66332SOL     OW  769  11.538   9.825   9.018
66332SOL    HW1  770  11.486   9.844   8.940
66332SOL    HW2  771  11.511   9.891   9.081
66333SOL     OW  772   1.677   3.500   7.247
66333SOL    HW1  773   1.624   3.464   7.177
66333SOL    HW2  774   1.726   3.426   7.282
66334SOL     OW  775   8.798   9.385   9.917
66334SOL    HW1  776   8.779   9.443   9.991
66334SOL    HW2  777   8.713   9.367   9.878
66335SOL     OW  778  11.313  13.317   9.060
66335SOL    HW1  779  11.263  13.243   9.027
66335SOL    HW2  780  11.300  13.315   9.155
66336SOL     OW  781   9.881  13.451   9.579
66336SOL    HW1  782   9.837  13.375   9.618
66336SOL    HW2  783   9.955  13.468   9.638
66337SOL     OW  784  13.063   4.519   5.326
66337SOL    HW1  785  13.117   4.597   5.336
66337SOL    HW2  786  12.997   4.526   5.395
66338SOL     OW  787   3.579   6.458   1.173
66338SOL    HW1  788   3.615   6.377   1.209
66338SOL    HW2  789   3.488   6.436   1.149
66339SOL     OW  790   6.986  14.156   5.736
66339SOL    HW1  791   7.047  14.100   5.783
66339SOL    HW2  792   7.028  14.242   5.734
66340SOL     OW  793   7.622  14.823  10.854
66340SOL    HW1  794   7.631  14.806  10.761
66340SOL    HW2  795   7.575  14.747  10.888
66341SOL     OW  796  13.608  11.939   1.876
66341SOL    HW1  797  13.588  11.873   1.810
66341SOL    HW2  798  13.692  11.976   1.849
66342SOL     OW  799  14.557   5.702   2.848
66342SOL    HW1  800  14.501   5.762   2.798
66342SOL    HW2  801  14.500   5.630   2.873
66343SOL     OW  802  11.984  14.516  11.877
66343SOL    HW1  803  12.010  14.531  11.786
66343SOL    HW2  804  12.057  14.468  11.916
66344SOL     OW  805   8.109   2.349   6.953
66344SOL    HW1  806   8.049   2.276   6.936
66344SOL    HW2  807   8.195   2.309   6.954
66345SOL     OW  808   1.276   1.705   7.798
66345SOL    HW1  809   1.234   1.737   7.718
66345SOL    HW2  810   1.369   1.721   7.784
66346SOL     OW  811  12.477  12.852  10.739
66346SOL    HW1  812  12.550  12.830  10.797
66346SOL    HW2  813  12.424  12.772  10.736
66347SOL     OW  814   2.947  13.928  11.539
66347SOL    HW1  815   2.984  13.840  11.550
66347SOL    HW2  816   3.012  13.974  11.485
66348SOL     OW  817   5.349   3.866   7.465
66348SOL    HW1  818   5.294   3.944   7.475
66348SOL    HW2  819   5.306   3.815   7.396
66349SOL     OW  820  10.391  11.167  14.637
66349SOL    HW1  821  10.424  11.233  14.698
66349SOL    HW2  822  10.362  11.217  14.561
66350SOL     OW  823   5.090   3.084   9.430
66350SOL    HW1  824   5.070   3.001   9.387
66350SOL    HW2  825   5.172   3.113   9.390
66351SOL     OW  826   8.824   6.910   8.832
66351SOL    HW1  827   8.887   6.839   8.834
66351SOL    HW2  828   8.874   6.987   8.803
66352SOL     OW  829   3.076  12.490  10.454
66352SOL    HW1  830   3.104  12.422  10.394
66352SOL    HW2  831   3.153  12.507  10.509
66353SOL     OW  832   5.505  10.267  10.548
66353SOL    HW1  833   5.574  10.212  10.585
66353SOL    HW2  834   5.457  10.300  10.624
66354SOL     OW  835   7.501   5.179  11.687
66354SOL    HW1  836   7.580   5.228  11.708
66354SOL    HW2  837   7.431   5.222  11.736
66355SOL     OW  838   1.944   6.689  11.123
66355SOL    HW1  839   1.896   6.607  11.112
66355SOL    HW2  840   1.991   6.677  11.206
66356SOL     OW  841   1.219  14.577   5.484
66356SOL    HW1  842   1.266  14.507   5.439
66356SOL    HW2  843   1.260  14.657   5.453
66357SOL     OW  844  13.190   1.635   9.533
66357SOL    HW1  845  13.201   1.678   9.448
66357SOL    HW2  846  13.276   1.643   9.575
66358SOL     OW  847   8.243   8.843   2.443
66358SOL    HW1  848   8.297   8.801   2.376
66358SOL    HW2  849   8.295   8.836   2.523
66359SOL     OW  850  12.287   7.460  12.079
66359SOL    HW1  851  12.247   7.533  12.031
66359SOL    HW2  852  12.235   7.384  12.054
66360SOL     OW  853  13.255   8.629   9.457
66360SOL    HW1  854  13.189   8.575   9.414
66360SOL    HW2  855  13.262   8.708   9.403
66361SOL     OW  856   1.112   6.254   7.129
66361SOL    HW1  857   1.188   6.204   7.160
66361SOL    HW2  858   1.045   6.241   7.196
66362SOL     OW  859   1.284  13.365   1.977
66362SOL    HW1  860   1.363  13.395   2.023
66362SOL    HW2  861   1.252  13.443   1.932
66363SOL     OW  862   2.766   5.129   8.057
66363SOL    HW1  863   2.824   5.131   7.980
66363SOL    HW2  864   2.717   5.048   8.047
66364SOL     OW  865   6.229   9.416   1.611
66364SOL    HW1  866   6.250   9.484   1.547
66364SOL    HW2  867   6.277   9.442   1.690
66365SOL     OW  868   8.911   4.088   5.233
66365SOL    HW1  869   8.968   4.012   5.222
66365SOL    HW2  870   8.963   4.162   5.204
66366SOL     OW  871   3.815   2.458  11.757
66366SOL    HW1  872   3.811   2.549  11.789
66366SOL    HW2  873   3.726   2.440  11.726
66367SOL     OW  874   2.184  12.622  13.662
66367SOL    HW1  875   2.130  12.612  13.740
66367SOL    HW2  876   2.155  12.552  13.603
66368SOL     OW  877  10.630  12.471  13.342
66368SOL    HW1  878  10.652  12.409  13.411
66368SOL    HW2  879  10.536  12.460  13.328
66369SOL     OW  880   5.353   9.314   3.034
66369SOL    HW1  881   5.289   9.365   2.984
66369SOL    HW2  882   5.433   9.368   3.031
66370SOL     OW  883   0.362   1.483   9.827
66370SOL    HW1  884   0.420   1.408   9.839
66370SOL    HW2  885   0.387   1.519   9.742
66371SOL     OW  886   1.956   9.657  11.364
66371SOL    HW1  887   1.977   9.565  11.380
66371SOL    HW2  888   2.042   9.700  11.356
66372SOL     OW  889   4.288  10.735  14.414
66372SOL    HW1  890   4.302  10.673  14.342
66372SOL    HW2  891   4.197  10.763  14.403
66373SOL     OW  892   8.389   7.726   5.559
66373SOL    HW1  893   8.434   7.771   5.487
66373SOL    HW2  894   8.307   7.694   5.520
66374SOL     OW  895  10.491   5.876   6.604
66374SOL    HW1  896  10.492   5.961   6.559
66374SOL    HW2  897  10.401   5.845   6.596
66375SOL     OW  898  10.931   9.997   7.411
66375SOL    HW1  899  11.016  10.026   7.379
66375SOL    HW2  900  10.929   9.903   7.392
66376SOL     OW  901   9.644   8.113   2.400
66376SOL    HW1  902   9.577   8.182   2.391
66376SOL    HW2  903   9.648   8.095   2.494
66377SOL     OW  904   2.906   3.991   9.440
66377SOL    HW1  905   2.973   3.940   9.485
66377SOL    HW2  906   2.925   3.977   9.347
66378SOL     OW  907   4.045   1.998  11.344
66378SOL    HW1  908   4.012   1.928  11.400
66378SOL    HW2  909   4.007   1.980  11.258
66379SOL     OW  910  10.570   0.718  10.857
66379SOL    HW1  911  10.575   0.633  10.813
66379SOL    HW2  912  10.488   0.715  10.907
66380SOL     OW  913  13.144  10.777  13.064
66380SOL    HW1  914  13.152  10.794  12.970
66380SOL    HW2  915  13.189  10.694  13.077
66381SOL     OW  916   4.302   3.070  11.045
66381SOL    HW1  917   4.292   3.080  11.140
66381SOL    HW2  918   4.282   3.157  11.009
66382SOL     OW  919   9.053   5.153  14.745
66382SOL    HW1  920   9.003   5.216  14.798
66382SOL    HW2  921   9.140   5.192  14.737
66383SOL     OW  922   7.662   0.303  13.693
66383SOL    HW1  923   7.692   0.378  13.745
66383SOL    HW2  924   7.715   0.307  13.614
66384SOL     OW  925   7.691   5.514  14.111
66384SOL    HW1  926   7.675   5.446  14.176
66384SOL    HW2  927   7.720   5.468  14.032
66385SOL     OW  928   7.500   2.026  11.048
66385SOL    HW1  929   7.472   2.109  11.086
66385SOL    HW2  930   7.514   2.046  10.955
66386SOL     OW  931   0.797   8.108   0.840
66386SOL    HW1  932   0.856   8.113   0.916
66386SOL    HW2  933   0.711   8.093   0.878
66387SOL     OW  934   0.759   3.341   0.479
66387SOL    HW1  935   0.684   3.376   0.432
66387SOL    HW2  936   0.724   3.317   0.565
66388SOL     OW  937  11.707   5.612  13.610
66388SOL    HW1  938  11.745   5.699  13.599
66388SOL    HW2  939  11.634   5.610  13.548
66389SOL     OW  940  13.396   6.044   1.203
66389SOL    HW1  941  13.325   6.102   1.175
66389SOL    HW2  942  13.460   6.049   1.131
66390SOL     OW  943   3.447  13.859   2.337
66390SOL    HW1  944   3.441  13.840   2.431
66390SOL    HW2  945   3.521  13.807   2.307
66391SOL     OW  946   5.219  10.364   9.523
66391SOL    HW1  947   5.279  10.385   9.595
66391SOL    HW2  948   5.239  10.429   9.456
66392SOL     OW  949  10.110  11.778   1.332
66392SOL    HW1  950  10.203  11.798   1.344
66392SOL    HW2  951  10.079  11.755   1.419
66393SOL     OW  952   7.987   5.508  12.635
66393SOL    HW1  953   8.024   5.577  12.580
66393SOL    HW2  954   8.063   5.457  12.664
66394SOL     OW  955   8.985  11.387   4.782
66394SOL    HW1  956   8.889  11.385   4.784
66394SOL    HW2  957   9.011  11.310   4.833
66395SOL     OW  958  12.405   3.781  11.932
66395SOL    HW1  959  12.404   3.801  12.026
66395SOL    HW2  960  12.312   3.771  11.909
66396SOL     OW  961  11.866   3.545   3.181
66396SOL    HW1  962  11.820   3.620   3.143
66396SOL    HW2  963  11.834   3.470   3.131
66397SOL     OW  964   0.095   8.419   1.487
66397SOL    HW1  965   0.063   8.509   1.484
66397SOL    HW2  966   0.122   8.406   1.578
66398SOL     OW  967  10.008   1.129   7.127
66398SOL    HW1  968  10.030   1.070   7.200
66398SOL    HW2  969  10.074   1.198   7.131
66399SOL     OW  970   6.739  12.979   6.300
66399SOL    HW1  971   6.723  13.059   6.251
66399SOL    HW2  972   6.821  12.945   6.264
66400SOL     OW  973   8.624   8.644   5.719
66400SOL    HW1  974   8.671   8.718   5.757
66400SOL    HW2  975   8.589   8.677   5.637
66401SOL     OW  976   0.777   8.833  11.007
66401SOL    HW1  977   0.740   8.898  10.946
66401SOL    HW2  978   0.870   8.828  10.982
66402SOL     OW  979  11.095   6.967   0.645
66402SOL    HW1  980  11.153   6.988   0.718
66402SOL    HW2  981  11.146   6.992   0.567
66403SOL     OW  982   5.272   0.967   7.354
66403SOL    HW1  983   5.359   0.985   7.318
66403SOL    HW2  984   5.263   0.872   7.348
66404SOL     OW  985   8.493   2.647   3.573
66404SOL    HW1  986   8.547   2.567   3.571
66404SOL    HW2  987   8.430   2.635   3.502
66405SOL     OW  988  10.748   8.802  10.853
66405SOL    HW1  989  10.694   8.725  10.872
66405SOL    HW2  990  10.782   8.786  10.766
66406SOL     OW  991   7.761  11.053   9.428
66406SOL    HW1  992   7.816  10.976   9.433
66406SOL    HW2  993   7.778  11.090   9.341
66407SOL     OW  994   7.582   9.030  12.475
66407SOL    HW1  995   7.651   9.066  12.531
66407SOL    HW2  996   7.625   9.012  12.392
66408SOL     OW  997   7.989   1.733  10.571
66408SOL    HW1  998   8.035   1.815  10.554
66408SOL    HW2  999   8.017   1.674  10.502
66409SOL     OW 1000   4.591   3.149  11.885
66409SOL    HW1 1001   4.601   3.140  11.979
66409SOL    HW2 1002   4.550   3.068  11.856
66410SOL     OW 1003  13.020   2.936  14.492
66410SOL    HW1 1004  12.970   3.009  14.455
66410SOL    HW2 1005  12.952   2.877  14.526
66411SOL     OW 1006   8.984   5.883   0.556
66411SOL    HW1 1007   8.902   5.902   0.510
66411SOL    HW2 1008   9.048   5.942   0.516
66412SOL     OW 1009   7.302   0.457  11.218
66412SOL    HW1 1010   7.264   0.395  11.281
66412SOL    HW2 1011   7.227   0.498  11.176
66413SOL     OW 1012   0.329   4.630   8.744
66413SOL    HW1 1013   0.419   4.653   8.768
66413SOL    HW2 1014   0.278   4.654   8.821
66414SOL     OW 1015   7.610  13.578   7.229
66414SOL    HW1 1016   7.582  13.527   7.305
66414SOL    HW2 1017   7.703  13.556   7.218
66415SOL     OW 1018   2.798   3.792   8.590
66415SOL    HW1 1019   2.711   3.761   8.616
66415SOL    HW2 1020   2.785   3.832   8.504
66416SOL     OW 1021  12.743   6.613   5.528
66416SOL    HW1 1022  12.648   6.601   5.518
66416SOL    HW2 1023  12.782   6.540   5.479
66417SOL     OW 1024  12.097   8.111   3.943
66417SOL    HW1 1025  12.112   8.203   3.921
66417SOL    HW2 1026  12.011   8.091   3.905
66418SOL     OW 1027   4.834   7.374  14.823
66418SOL    HW1 1028   4.916   7.336  14.792
66418SOL    HW2 1029   4.781   7.298  14.850
66419SOL     OW 1030   2.437  13.185   9.497
66419SOL    HW1 1031   2.442  13.175   9.402
66419SOL    HW2 1032   2.461  13.277   9.513
66420SOL     OW 1033   3.409  13.355   8.484
66420SOL    HW1 1034   3.424  13.263   8.509
66420SOL    HW2 1035   3.470  13.405   8.539
66421SOL     OW 1036   3.409  14.852   7.539
66421SOL    HW1 1037   3.354  14.826   7.613
66421SOL    HW2 1038   3.498  14.829   7.567
66422SOL     OW 1039  13.786   3.729   9.298
66422SOL    HW1 1040  13.697   3.693   9.293
66422SOL    HW2 1041  13.791   3.769   9.384
66423SOL     OW 1042   3.377  13.570   1.878
66423SOL    HW1 1043   3.439  13.635   1.844
66423SOL    HW2 1044   3.307  13.568   1.813
66424SOL     OW 1045   0.782  14.746   1.884
66424SOL    HW1 1046   0.842  14.670   1.884
66424SOL    HW2 1047   0.836  14.818   1.916
66425SOL     OW 1048  11.232   6.942   3.962
66425SOL    HW1 1049  11.319   6.921   3.996
66425SOL    HW2 1050  11.241   7.029   3.924
66426SOL     OW 1051  13.846  14.833   3.654
66426SOL    HW1 1052  13.784   0.024   3.658
66426SOL    HW2 1053  13.838  14.799   3.565
66427SOL     OW 1054   9.562  10.216   9.449
66427SOL    HW1 1055   9.478  10.171   9.447
66427SOL    HW2 1056   9.582  10.225   9.542
66428SOL     OW 1057  14.133   1.422   7.988
66428SOL    HW1 1058  14.109   1.489   8.051
66428SOL    HW2 1059  14.084   1.445   7.909
66429SOL     OW 1060   6.666   3.042   3.055
66429SOL    HW1 1061   6.706   3.129   3.054
66429SOL    HW2 1062   6.728   2.988   3.105
66430SOL     OW 1063  11.453   1.171  12.675
66430SOL    HW1 1064  11.393   1.097  12.679
66430SOL    HW2 1065  11.407   1.237  12.623
66431SOL     OW 1066   7.328  10.260   2.462
66431SOL    HW1 1067   7.303  10.345   2.499
66431SOL    HW2 1068   7.246  10.213   2.453
66432SOL     OW 1069   3.141  11.277  14.696
66432SOL    HW1 1070   3.138  11.183  14.714
66432SOL    HW2 1071   3.116  11.284  14.604
66433SOL     OW 1072   7.796  13.506   7.494
66433SOL    HW1 1073   7.835  13.452   7.563
66433SOL    HW2 1074   7.732  13.449   7.452
66434SOL     OW 1075   4.688  13.556  12.638
66434SOL    HW1 1076   4.719  13.466  12.650
66434SOL    HW2 1077   4.736  13.588  12.561
66435SOL     OW 1078   2.003  14.091   4.656
66435SOL    HW1 1079   2.036  14.047   4.578
66435SOL    HW2 1080   1.981  14.019   4.716
66436SOL     OW 1081  11.882  12.419   9.787
66436SOL    HW1 1082  11.952  12.360   9.817
66436SOL    HW2 1083  11.829  12.434   9.865
66437SOL     OW 1084  12.270   8.328   6.836
66437SOL    HW1 1085  12.352   8.307   6.879
66437SOL    HW2 1086  12.202   8.299   6.896
66438SOL     OW 1087  14.642   5.422  13.090
66438SOL    HW1 1088  14.627   5.453  13.179
66438SOL    HW2 1089  14.613   5.331  13.090
66439SOL     OW 1090  13.301   9.228  13.818
66439SOL    HW1 1091  13.306   9.154  13.758
66439SOL    HW2 1092  13.391   9.253  13.833
66440SOL     OW 1093   5.304   2.854   0.555
66440SOL    HW1 1094   5.396   2.866   0.579
66440SOL    HW2 1095   5.300   2.766   0.518
66441SOL     OW 1096  11.370  13.167   2.912
66441SOL    HW1 1097  11.347  13.250   2.955
66441SOL    HW2 1098  11.442  13.190   2.853
66442SOL     OW 1099   8.893   9.834   1.191
66442SOL    HW1 1100   8.888   9.923   1.157
66442SOL    HW2 1101   8.831   9.784   1.136
66443SOL     OW 1102   6.742   6.041   7.587
66443SOL    HW1 1103   6.733   6.123   7.637
66443SOL    HW2 1104   6.833   6.015   7.601
66444SOL     OW 1105   4.212   7.139   5.984
66444SOL    HW1 1106   4.139   7.110   6.038
66444SOL    HW2 1107   4.171   7.193   5.916
66445SOL     OW 1108  14.249   2.061   6.192
66445SOL    HW1 1109  14.203   2.141   6.218
66445SOL    HW2 1110  14.293   2.031   6.272
66446SOL     OW 1111  12.118   2.248   4.865
66446SOL    HW1 1112  12.097   2.204   4.783
66446SOL    HW2 1113  12.104   2.341   4.846
66447SOL     OW 1114  10.529   4.763   2.823
66447SOL    HW1 1115  10.550   4.671   2.807
66447SOL    HW2 1116  10.539   4.774   2.917
66448SOL     OW 1117   1.354   5.686  12.348
66448SOL    HW1 1118   1.260   5.706  12.350
66448SOL    HW2 1119   1.360   5.604  12.299
66449SOL     OW 1120  10.039  14.487   0.262
66449SOL    HW1 1121   9.985  14.565   0.256
66449SOL    HW2 1122  10.061  14.480   0.355
66450SOL     OW 1123   9.107   1.286   5.833
66450SOL    HW1 1124   9.113   1.380   5.817
66450SOL    HW2 1125   9.176   1.248   5.779
66451SOL     OW 1126   2.533   5.757  10.669
66451SOL    HW1 1127   2.469   5.717  10.728
66451SOL    HW2 1128   2.553   5.841  10.709
66452SOL     OW 1129  13.503   1.485   4.991
66452SOL    HW1 1130  13.508   1.579   4.975
66452SOL    HW2 1131  13.508   1.476   5.086
66453SOL     OW 1132   8.991   4.837  12.691
66453SOL    HW1 1133   8.979   4.843  12.597
66453SOL    HW2 1134   9.067   4.780  12.703
66454SOL     OW 1135  13.525  12.103   5.422
66454SOL    HW1 1136  13.538  12.014   5.456
66454SOL    HW2 1137  13.476  12.148   5.491
66455SOL     OW 1138   9.274   1.367   7.691
66455SOL    HW1 1139   9.186   1.330   7.691
66455SOL    HW2 1140   9.332   1.292   7.678
66456SOL     OW 1141   6.277   8.686  11.562
66456SOL    HW1 1142   6.295   8.700  11.469
66456SOL    HW2 1143   6.230   8.765  11.590
66457SOL     OW 1144  10.161   9.301   2.592
66457SOL    HW1 1145  10.178   9.246   2.669
66457SOL    HW2 1146  10.098   9.251   2.541
66458SOL     OW 1147  12.204   3.143   5.536
66458SOL    HW1 1148  12.136   3.113   5.476
66458SOL    HW2 1149  12.211   3.237   5.519
66459SOL     OW 1150  11.523  10.009   0.673
66459SOL    HW1 1151  11.549  10.094   0.639
66459SOL    HW2 1152  11.452  10.029   0.735
66460SOL     OW 1153   5.652   4.032   1.238
66460SOL    HW1 1154   5.699   3.972   1.181
66460SOL    HW2 1155   5.711   4.107   1.248
66461SOL     OW 1156   7.116  14.539   6.362
66461SOL    HW1 1157   7.129  14.604   6.431
66461SOL    HW2 1158   7.167  14.463   6.390
66462SOL     OW 1159   9.649  11.097   1.113
66462SOL    HW1 1160   9.584  11.140   1.056
66462SOL    HW2 1161   9.643  11.145   1.196
66463SOL     OW 1162   1.801   3.701  11.135
66463SOL    HW1 1163   1.788   3.781  11.185
66463SOL    HW2 1164   1.840   3.640  11.197
66464SOL     OW 1165  10.150   1.843   0.246
66464SOL    HW1 1166  10.068   1.800   0.272
66464SOL    HW2 1167  10.211   1.824   0.317
66465SOL     OW 1168   2.592  14.152   6.836
66465SOL    HW1 1169   2.663  14.215   6.847
66465SOL    HW2 1170   2.637  14.068   6.826
66466SOL     OW 1171  12.187  12.183   2.637
66466SOL    HW1 1172  12.129  12.203   2.711
66466SOL    HW2 1173  12.180  12.259   2.580
66467SOL     OW 1174   5.611   3.284   3.067
66467SOL    HW1 1175   5.599   3.365   3.118
66467SOL    HW2 1176   5.612   3.314   2.976
66468SOL     OW 1177   4.387  14.788   3.524
66468SOL    HW1 1178   4.293  14.788   3.505
66468SOL    HW2 1179   4.427  14.824   3.445
66469SOL     OW 1180  12.190   9.118  11.975
66469SOL    HW1 1181  12.158   9.070  12.052
66469SOL    HW2 1182  12.180   9.210  11.999
66470SOL     OW 1183   6.755  10.840  13.776
66470SOL    HW1 1184   6.833  10.864  13.725
66470SOL    HW2 1185   6.696  10.916  13.767
66471SOL     OW 1186   6.726   9.615   1.091
66471SOL    HW1 1187   6.758   9.552   1.027
66471SOL    HW2 1188   6.645   9.649   1.054
66472SOL     OW 1189   9.099   1.695   3.968
66472SOL    HW1 1190   9.015   1.733   3.993
66472SOL    HW2 1191   9.164   1.748   4.013
66473SOL     OW 1192   8.147   7.430   4.221
66473SOL    HW1 1193   8.120   7.512   4.180
66473SOL    HW2 1194   8.097   7.362   4.176
66474SOL     OW 1195  14.458   6.865   4.670
66474SOL    HW1 1196  14.434   6.939   4.725
66474SOL    HW2 1197  14.389   6.861   4.604
66475SOL     OW 1198   9.414   0.622   9.729
66475SOL    HW1 1199   9.478   0.672   9.780
66475SOL    HW2 1200   9.459   0.540   9.707
66476SOL     OW 1201   4.620   8.137   4.955
66476SOL    HW1 1202   4.635   8.102   5.043
66476SOL    HW2 1203   4.708   8.158   4.923
66477SOL     OW 1204  10.213  14.297   6.426
66477SOL    HW1 1205  10.140  14.335   6.378
66477SOL    HW2 1206  10.174  14.263   6.506
66478SOL     OW 1207   4.736  13.569   5.137
66478SOL    HW1 1208   4.744  13.645   5.080
66478SOL    HW2 1209   4.810  13.578   5.198
66479SOL     OW 1210   2.468   6.017  11.634
66479SOL    HW1 1211   2.535   5.996  11.570
66479SOL    HW2 1212   2.510   6.002  11.719
66480SOL     OW 1213  13.915   6.330  11.651
66480SOL    HW1 1214  13.971   6.306  11.725
66480SOL    HW2 1215  13.876   6.413  11.677
66481SOL     OW 1216   2.679   0.675   4.745
66481SOL    HW1 1217   2.595   0.719   4.752
66481SOL    HW2 1218   2.742   0.737   4.782
66482SOL     OW 1219   0.213   1.293   8.373
66482SOL    HW1 1220   0.188   1.361   8.436
66482SOL    HW2 1221   0.226   1.214   8.426
66483SOL     OW 1222   7.728   5.679   6.514
66483SOL    HW1 1223   7.687   5.635   6.439
66483SOL    HW2 1224   7.709   5.623   6.588
66484SOL     OW 1225   6.667   6.887   0.624
66484SOL    HW1 1226   6.584   6.883   0.672
66484SOL    HW2 1227   6.733   6.855   0.685
66485SOL     OW 1228  14.764   5.519   8.973
66485SOL    HW1 1229  14.744   5.612   8.975
66485SOL    HW2 1230  14.692   5.480   8.924
66486SOL     OW 1231   9.751   8.567   4.224
66486SOL    HW1 1232   9.735   8.604   4.311
66486SOL    HW2 1233   9.749   8.643   4.165
66487SOL     OW 1234   1.011   9.868   3.908
66487SOL    HW1 1235   0.941   9.902   3.964
66487SOL    HW2 1236   0.965   9.822   3.838
66488SOL     OW 1237  10.947   3.132   7.211
66488SOL    HW1 1238  10.855   3.108   7.205
66488SOL    HW2 1239  10.948   3.214   7.260
66489SOL     OW 1240   2.898   0.005  10.819
66489SOL    HW1 1241   2.994   0.010  10.822
66489SOL    HW2 1242   2.874   0.053  10.740
66490SOL     OW 1243  12.338   7.325   5.317
66490SOL    HW1 1244  12.260   7.275   5.342
66490SOL    HW2 1245  12.398   7.260   5.280
66491SOL     OW 1246  13.498  11.506   0.977
66491SOL    HW1 1247  13.523  11.505   0.884
66491SOL    HW2 1248  13.430  11.573   0.982
66492SOL     OW 1249  12.071  13.834   8.819
66492SOL    HW1 1250  12.054  13.924   8.790
66492SOL    HW2 1251  11.991  13.809   8.866
66493SOL     OW 1252   9.960  13.710   9.717
66493SOL    HW1 1253   9.890  13.650   9.743
66493SOL    HW2 1254   9.943  13.728   9.625
66494SOL     OW 1255   6.568   4.143   8.534
66494SOL    HW1 1256   6.585   4.086   8.460
66494SOL    HW2 1257   6.653   4.157   8.574
66495SOL     OW 1258   9.371   1.364   9.489
66495SOL    HW1 1259   9.408   1.279   9.466
66495SOL    HW2 1260   9.359   1.408   9.405
66496SOL     OW 1261   4.014  13.544   4.588
66496SOL    HW1 1262   4.024  13.456   4.625
66496SOL    HW2 1263   4.104  13.576   4.576
66497SOL     OW 1264   0.775   7.295   4.107
66497SOL    HW1 1265   0.821   7.232   4.162
66497SOL    HW2 1266   0.733   7.354   4.169
66498SOL     OW 1267   3.014   3.268   8.730
66498SOL    HW1 1268   2.963   3.271   8.648
66498SOL    HW2 1269   2.991   3.184   8.769
66499SOL     OW 1270   6.880  11.255   9.136
66499SOL    HW1 1271   6.788  11.268   9.115
66499SOL    HW2 1272   6.911  11.342   9.162
66500SOL     OW 1273   5.733  14.118  12.516
66500SOL    HW1 1274   5.702  14.049  12.458
66500SOL    HW2 1275   5.652  14.158  12.550
66501SOL     OW 1276   6.062  10.927   9.357
66501SOL    HW1 1277   6.042  10.840   9.390
66501SOL    HW2 1278   6.142  10.953   9.402
66502SOL     OW 1279   0.413   5.784   9.274
66502SOL    HW1 1280   0.421   5.786   9.369
66502SOL    HW2 1281   0.470   5.854   9.243
66503SOL     OW 1282  10.890   6.908  10.695
66503SOL    HW1 1283  10.936   6.925  10.612
66503SOL    HW2 1284  10.875   6.814  10.694
66504SOL     OW 1285   2.947  13.172   2.790
66504SOL    HW1 1286   2.919  13.245   2.734
66504SOL    HW2 1287   3.005  13.213   2.855
66505SOL     OW 1288   5.946   6.928   3.323
66505SOL    HW1 1289   5.970   6.888   3.239
66505SOL    HW2 1290   5.903   6.858   3.371
66506SOL     OW 1291   5.631  13.455   7.460
66506SOL    HW1 1292   5.656  13.481   7.548
66506SOL    HW2 1293   5.713  13.453   7.410
66507SOL     OW 1294   4.187  12.973  10.121
66507SOL    HW1 1295   4.223  12.967  10.032
66507SOL    HW2 1296   4.169  12.882  10.145
66508SOL     OW 1297  14.428   6.031  10.500
66508SOL    HW1 1298  14.472   6.057  10.419
66508SOL    HW2 1299  14.366   6.102  10.517
66509SOL     OW 1300   1.471   1.095   7.901
66509SOL    HW1 1301   1.566   1.092   7.900
66509SOL    HW2 1302   1.449   1.148   7.978
66510SOL     OW 1303   9.848   5.204   7.857
66510SOL    HW1 1304   9.837   5.298   7.846
66510SOL    HW2 1305   9.800   5.183   7.938
66511SOL     OW 1306   1.317  12.921   5.217
66511SOL    HW1 1307   1.326  12.826   5.230
66511SOL    HW2 1308   1.238  12.930   5.164
66512SOL     OW 1309   4.325   4.531   8.725
66512SOL    HW1 1310   4.250   4.587   8.703
66512SOL    HW2 1311   4.313   4.453   8.672
66513SOL     OW 1312   7.895  12.110  14.706
66513SOL    HW1 1313   7.826  12.169  14.736
66513SOL    HW2 1314   7.857  12.023  14.712
66514SOL     OW 1315   7.150   8.281  12.491
66514SOL    HW1 1316   7.107   8.288  12.406
66514SOL    HW2 1317   7.122   8.359  12.539
66515SOL     OW 1318  14.302   5.677   8.437
66515SOL    HW1 1319  14.246   5.608   8.471
66515SOL    HW2 1320  14.244   5.751   8.421
66516SOL     OW 1321  12.787  14.072  12.118
66516SOL    HW1 1322  12.791  14.005  12.187
66516SOL    HW2 1323  12.785  14.021  12.036
66517SOL     OW 1324   0.099   3.113   3.371
66517SOL    HW1 1325   0.168   3.102   3.437
66517SOL    HW2 1326   0.128   3.060   3.297
66518SOL     OW 1327   5.527   0.464  13.533
66518SOL    HW1 1328   5.606   0.446  13.583
66518SOL    HW2 1329   5.466   0.502  13.596
66519SOL     OW 1330   3.936   7.316  12.055
66519SOL    HW1 1331   3.858   7.366  12.080
66519SOL    HW2 1332   3.959   7.349  11.968
66520SOL     OW 1333   2.504  14.074  13.767
66520SOL    HW1 1334   2.502  13.996  13.823
66520SOL    HW2 1335   2.585  14.065  13.717
66521SOL     OW 1336  14.284  13.455   2.949
66521SOL    HW1 1337  14.252  13.377   2.995
66521SOL    HW2 1338  14.309  13.423   2.862
66522SOL     OW 1339  11.783  12.837   7.965
66522SOL    HW1 1340  11.763  12.805   8.053
66522SOL    HW2 1341  11.760  12.930   7.967
66523SOL     OW 1342   0.579  10.159   3.582
66523SOL    HW1 1343   0.669  10.182   3.559
66523SOL    HW2 1344   0.570  10.184   3.674
66524SOL     OW 1345   2.944   4.309   7.862
66524SOL    HW1 1346   2.985   4.359   7.932
66524SOL    HW2 1347   3.002   4.322   7.786
66525SOL     OW 1348  12.511   7.171   8.363
66525SOL    HW1 1349  12.523   7.189   8.269
66525SOL    HW2 1350  12.575   7.102   8.383
66526SOL     OW 1351   1.420  14.789   4.073
66526SOL    HW1 1352   1.484  14.860   4.078
66526SOL    HW2 1353   1.469  14.711   4.098
66527SOL     OW 1354  14.832   3.879  12.032
66527SOL    HW1 1355  14.814   3.973  12.021
66527SOL    HW2 1356  14.823   3.864  12.126
66528SOL     OW 1357  11.857  14.769  14.450
66528SOL    HW1 1358  11.867  14.781  14.355
66528SOL    HW2 1359  11.900  14.685  14.468
66529SOL     OW 1360   2.868   7.986  13.817
66529SOL    HW1 1361   2.872   8.024  13.905
66529SOL    HW2 1362   2.959   7.984  13.787
66530SOL     OW 1363  14.644   2.380   5.393
66530SOL    HW1 1364  14.560   2.421   5.412
66530SOL    HW2 1365  14.676   2.425   5.315
66531SOL     OW 1366  13.862  12.272  10.926
66531SOL    HW1 1367  13.897  12.353  10.888
66531SOL    HW2 1368  13.855  12.290  11.020
66532SOL     OW 1369   3.169  14.558   0.416
66532SOL    HW1 1370   3.186  14.521   0.503
66532SOL    HW2 1371   3.247  14.608   0.396
66533SOL     OW 1372  11.478  13.433   9.922
66533SOL    HW1 1373  11.429  13.378   9.983
66533SOL    HW2 1374  11.556  13.461   9.971
66534SOL     OW 1375   6.142  14.269  13.548
66534SOL    HW1 1376   6.103  14.185  13.571
66534SOL    HW2 1377   6.234  14.249  13.532
66535SOL     OW 1378  10.359   0.391   4.193
66535SOL    HW1 1379  10.409   0.468   4.167
66535SOL    HW2 1380  10.289   0.385   4.128
66536SOL     OW 1381   1.664   3.200   8.586
66536SOL    HW1 1382   1.691   3.272   8.529
66536SOL    HW2 1383   1.622   3.137   8.527
66537SOL     OW 1384   7.348   2.637   4.394
66537SOL    HW1 1385   7.292   2.639   4.317
66537SOL    HW2 1386   7.307   2.696   4.456
66538SOL     OW 1387   4.019   4.154  12.051
66538SOL    HW1 1388   4.000   4.101  11.973
66538SOL    HW2 1389   3.934   4.184  12.081
66539SOL     OW 1390   5.463  14.129   0.722
66539SOL    HW1 1391   5.544  14.160   0.762
66539SOL    HW2 1392   5.402  14.203   0.731
66540SOL     OW 1393  12.863  10.513   0.133
66540SOL    HW1 1394  12.789  10.504   0.073
66540SOL    HW2 1395  12.898  10.424   0.141
66541SOL     OW 1396   1.682   1.438  10.070
66541SOL    HW1 1397   1.743   1.511  10.081
66541SOL    HW2 1398   1.723   1.364  10.115
66542SOL     OW 1399  10.259   6.752   3.767
66542SOL    HW1 1400  10.255   6.833   3.717
66542SOL    HW2 1401  10.172   6.744   3.807
66543SOL     OW 1402   4.739  12.451  10.106
66543SOL    HW1 1403   4.734  12.363  10.143
66543SOL    HW2 1404   4.794  12.441  10.029
66544SOL     OW 1405   8.063   7.911   7.253
66544SOL    HW1 1406   8.103   7.944   7.333
66544SOL    HW2 1407   8.064   7.816   7.263
66545SOL     OW 1408  12.185   3.550   0.620
66545SOL    HW1 1409  12.119   3.570   0.687
66545SOL    HW2 1410  12.264   3.530   0.670
66546SOL     OW 1411   2.764  13.566   8.011
66546SOL    HW1 1412   2.812  13.554   7.929
66546SOL    HW2 1413   2.674  13.540   7.989
66547SOL     OW 1414   4.990   6.260   9.279
66547SOL    HW1 1415   4.997   6.180   9.332
66547SOL    HW2 1416   4.932   6.235   9.207
66548SOL     OW 1417  10.651   7.189   9.227
66548SOL    HW1 1418  10.565   7.152   9.206
66548SOL    HW2 1419  10.713   7.133   9.180
66549SOL     OW 1420   6.414   1.513   0.780
66549SOL    HW1 1421   6.484   1.465   0.825
66549SOL    HW2 1422   6.334   1.466   0.804
66550SOL     OW 1423   1.669   7.044  12.358
66550SOL    HW1 1424   1.761   7.066  12.345
66550SOL    HW2 1425   1.634   7.033  12.269
66551SOL     OW 1426  12.071   4.605   0.288
66551SOL    HW1 1427  12.045   4.680   0.235
66551SOL    HW2 1428  12.123   4.550   0.229
66552SOL     OW 1429  12.769  14.234  13.003
66552SOL    HW1 1430  12.760  14.174  12.929
66552SOL    HW2 1431  12.690  14.288  13.001
66553SOL     OW 1432   0.218   5.801  11.079
66553SOL    HW1 1433   0.205   5.707  11.071
66553SOL    HW2 1434   0.307   5.811  11.113
66554SOL     OW 1435   4.947   9.457   3.555
66554SOL    HW1 1436   4.910   9.538   3.591
66554SOL    HW2 1437   4.990   9.485   3.474
66555SOL     OW 1438   0.992   3.058  12.246
66555SOL    HW1 1439   1.037   3.024  12.324
66555SOL    HW2 1440   0.910   3.010  12.243
66556SOL     OW 1441  10.205   0.811   5.472
66556SOL    HW1 1442  10.127   0.840   5.424
66556SOL    HW2 1443  10.277   0.857   5.428
66557SOL     OW 1444  10.292  12.126   8.030
66557SOL    HW1 1445  10.292  12.106   7.936
66557SOL    HW2 1446  10.199  12.131   8.053
66558SOL     OW 1447  13.643   7.765   3.556
66558SOL    HW1 1448  13.603   7.715   3.486
66558SOL    HW2 1449  13.582   7.757   3.630
66559SOL     OW 1450   7.748  11.071   3.330
66559SOL    HW1 1451   7.760  10.990   3.282
66559SOL    HW2 1452   7.673  11.055   3.387
66560SOL     OW 1453   6.053   7.750   2.817
66560SOL    HW1 1454   5.979   7.770   2.873
66560SOL    HW2 1455   6.049   7.655   2.804
66561SOL     OW 1456  10.741   7.452  14.515
66561SOL    HW1 1457  10.834   7.475  14.503
66561SOL    HW2 1458  10.744   7.365  14.556
66562SOL     OW 1459   0.128   2.375  12.672
66562SOL    HW1 1460   0.054   2.372  12.733
66562SOL    HW2 1461   0.115   2.456  12.623
66563SOL     OW 1462  14.049  13.115   1.018
66563SOL    HW1 1463  13.954  13.129   1.019
66563SOL    HW2 1464  14.081  13.160   1.096
66564SOL     OW 1465  13.640  14.245  14.473
66564SOL    HW1 1466  13.703  14.173  14.468
66564SOL    HW2 1467  13.646  14.275  14.564
66565SOL     OW 1468   2.522   9.381   0.987
66565SOL    HW1 1469   2.428   9.362   0.981
66565SOL    HW2 1470   2.551   9.336   1.067
66566SOL     OW 1471   2.485   4.374   8.710
66566SOL    HW1 1472   2.542   4.300   8.733
66566SOL    HW2 1473   2.416   4.372   8.777
66567SOL     OW 1474   4.575   1.881   7.896
66567SOL    HW1 1475   4.546   1.791   7.884
66567SOL    HW2 1476   4.651   1.890   7.837
66568SOL     OW 1477   2.078   7.755  10.810
66568SOL    HW1 1478   2.148   7.693  10.790
66568SOL    HW2 1479   2.016   7.745  10.738
66569SOL     OW 1480   4.844  11.587   1.471
66569SOL    HW1 1481   4.888  11.522   1.416
66569SOL    HW2 1482   4.791  11.535   1.531
66570SOL     OW 1483   3.648   5.518  12.572
66570SOL    HW1 1484   3.666   5.448  12.635
66570SOL    HW2 1485   3.705   5.499  12.497
66571SOL     OW 1486  13.715   7.150   8.358
66571SOL    HW1 1487  13.679   7.213   8.420
66571SOL    HW2 1488  13.766   7.089   8.412
66572SOL     OW 1489  10.372   2.423  10.994
66572SOL    HW1 1490  10.454   2.467  11.018
66572SOL    HW2 1491  10.321   2.490  10.949
66573SOL     OW 1492   4.709  10.700   4.639
66573SOL    HW1 1493   4.730  10.625   4.695
66573SOL    HW2 1494   4.751  10.775   4.681
66574SOL     OW 1495  11.802   2.533  10.746
66574SOL    HW1 1496  11.806   2.458  10.805
66574SOL    HW2 1497  11.857   2.508  10.672
66575SOL     OW 1498   7.424   1.188   4.243
66575SOL    HW1 1499   7.329   1.171   4.242
66575SOL    HW2 1500   7.431   1.283   4.248
66576SOL     OW 1501   3.386  14.030  11.228
66576SOL    HW1 1502   3.422  14.075  11.152
66576SOL    HW2 1503   3.462  14.003  11.279
66577SOL     OW 1504  13.653  11.331   4.341
66577SOL    HW1 1505  13.713  11.259   4.361
66577SOL    HW2 1506  13.709  11.402   4.311
66578SOL     OW 1507   8.409  14.027   4.657
66578SOL    HW1 1508   8.314  14.015   4.660
66578SOL    HW2 1509   8.438  13.968   4.588
66579SOL     OW 1510   2.663  13.663  13.557
66579SOL    HW1 1511   2.616  13.596  13.606
66579SOL    HW2 1512   2.608  13.742  13.566
66580SOL     OW 1513   7.087   6.979   5.798
66580SOL    HW1 1514   7.039   7.044   5.849
66580SOL    HW2 1515   7.019   6.927   5.754
66581SOL     OW 1516   7.670   9.468   5.153
66581SOL    HW1 1517   7.632   9.542   5.106
66581SOL    HW2 1518   7.674   9.398   5.087
66582SOL     OW 1519   9.243   8.280  13.543
66582SOL    HW1 1520   9.213   8.369  13.563
66582SOL    HW2 1521   9.320   8.268  13.599
66583SOL     OW 1522  12.596  11.068  10.528
66583SOL    HW1 1523  12.535  11.002  10.495
66583SOL    HW2 1524  12.550  11.151  10.515
66584SOL     OW 1525   0.168  12.517   7.647
66584SOL    HW1 1526   0.153  12.422   7.645
66584SOL    HW2 1527   0.093  12.554   7.600
66585SOL     OW 1528  10.054   8.843   3.959
66585SOL    HW1 1529  10.034   8.772   4.020
66585SOL    HW2 1530  10.112   8.804   3.894
66586SOL     OW 1531  13.424   0.533   5.180
66586SOL    HW1 1532  13.404   0.445   5.210
66586SOL    HW2 1533  13.475   0.520   5.100
66587SOL     OW 1534   7.623   9.087  14.539
66587SOL    HW1 1535   7.581   9.001  14.535
66587SOL    HW2 1536   7.612   9.123  14.451
66588SOL     OW 1537   4.280   7.633   8.387
66588SOL    HW1 1538   4.366   7.673   8.396
66588SOL    HW2 1539   4.298   7.541   8.367
66589SOL     OW 1540   5.562  14.270   5.661
66589SOL    HW1 1541   5.531  14.296   5.574
66589SOL    HW2 1542   5.646  14.226   5.644
66590SOL     OW 1543   0.121   8.564   5.566
66590SOL    HW1 1544   0.126   8.639   5.625
66590SOL    HW2 1545   0.035   8.525   5.584
66591SOL     OW 1546  11.301   4.202  12.615
66591SOL    HW1 1547  11.300   4.194  12.710
66591SOL    HW2 1548  11.364   4.272  12.597
66592SOL     OW 1549   2.889  11.272  14.781
66592SOL    HW1 1550   2.828  11.336  14.746
66592SOL    HW2 1551   2.973  11.295  14.742
66593SOL     OW 1552   2.196   6.856   6.067
66593SOL    HW1 1553   2.193   6.775   6.117
66593SOL    HW2 1554   2.246   6.916   6.123
66594SOL     OW 1555  13.591  10.293   8.404
66594SOL    HW1 1556  13.550  10.263   8.323
66594SOL    HW2 1557  13.670  10.339   8.375
66595SOL     OW 1558   1.392   7.771   7.295
66595SOL    HW1 1559   1.374   7.765   7.201
66595SOL    HW2 1560   1.426   7.860   7.307
66596SOL     OW 1561   1.348   6.480   4.948
66596SOL    HW1 1562   1.284   6.411   4.929
66596SOL    HW2 1563   1.299   6.562   4.935
66597SOL     OW 1564  11.803   1.304  13.996
66597SOL    HW1 1565  11.723   1.299  14.047
66597SOL    HW2 1566  11.805   1.222  13.947
66598SOL     OW 1567  12.738   8.695   5.088
66598SOL    HW1 1568  12.777   8.764   5.034
66598SOL    HW2 1569  12.681   8.743   5.149
66599SOL     OW 1570  12.393   6.285  10.262
66599SOL    HW1 1571  12.316   6.335  10.234
66599SOL    HW2 1572  12.463   6.316  10.206
66600SOL     OW 1573  10.197  13.850   8.838
66600SOL    HW1 1574  10.144  13.770   8.837
66600SOL    HW2 1575  10.247  13.846   8.756
66601SOL     OW 1576  10.442   8.707  11.110
66601SOL    HW1 1577  10.357   8.728  11.148
66601SOL    HW2 1578  10.503   8.715  11.183
66602SOL     OW 1579   3.551   9.713  13.059
66602SOL    HW1 1580   3.475   9.751  13.103
66602SOL    HW2 1581   3.529   9.620  13.049
66603SOL     OW 1582  13.744   3.519  10.992
66603SOL    HW1 1583  13.796   3.472  10.927
66603SOL    HW2 1584  13.762   3.474  11.074
66604SOL     OW 1585  14.292   7.414  10.365
66604SOL    HW1 1586  14.311   7.324  10.391
66604SOL    HW2 1587  14.366   7.440  10.310
66605SOL     OW 1588   6.731   8.010   5.988
66605SOL    HW1 1589   6.748   7.941   5.923
66605SOL    HW2 1590   6.789   8.081   5.963
66606SOL     OW 1591  10.428   5.190   7.678
66606SOL    HW1 1592  10.445   5.233   7.762
66606SOL    HW2 1593  10.363   5.246   7.636
66607SOL     OW 1594   4.386  10.249  11.197
66607SOL    HW1 1595   4.441  10.317  11.236
66607SOL    HW2 1596   4.432  10.167  11.215
66608SOL     OW 1597   9.860  10.169   1.130
66608SOL    HW1 1598   9.858  10.073   1.124
66608SOL    HW2 1599   9.836  10.199   1.042
66609SOL     OW 1600  12.247   1.384  10.303
66609SOL    HW1 1601  12.194   1.319  10.257
66609SOL    HW2 1602  12.241   1.359  10.395
66610SOL     OW 1603   6.526   7.834   6.149
66610SOL    HW1 1604   6.563   7.831   6.237
66610SOL    HW2 1605   6.431   7.835   6.163
66611SOL     OW 1606   1.059   1.961  13.687
66611SOL    HW1 1607   1.132   2.010  13.648
66611SOL    HW2 1608   0.998   1.947  13.615
66612SOL     OW 1609   7.695   3.535  12.482
66612SOL    HW1 1610   7.667   3.465  12.423
66612SOL    HW2 1611   7.666   3.505  12.569
66613SOL     OW 1612  10.887  12.905   8.951
66613SOL    HW1 1613  10.925  12.886   8.865
66613SOL    HW2 1614  10.820  12.838   8.963
66614SOL     OW 1615  14.840   4.295  14.385
66614SOL    HW1 1616  14.798   4.210  14.396
66614SOL    HW2 1617   0.013   4.285  14.307
66615SOL     OW 1618   4.111  12.386   7.665
66615SOL    HW1 1619   4.157  12.371   7.748
66615SOL    HW2 1620   4.163  12.453   7.621
66616SOL     OW 1621   0.210   3.367   3.038
66616SOL    HW1 1622   0.119   3.370   3.009
66616SOL    HW2 1623   0.260   3.412   2.970
66617SOL     OW 1624  11.066  12.694  10.602
66617SOL    HW1 1625  11.135  12.739  10.553
66617SOL    HW2 1626  11.104  12.609  10.624
66618SOL     OW 1627   6.481  14.027  12.083
66618SOL    HW1 1628   6.544  13.985  12.025
66618SOL    HW2 1629   6.403  13.972  12.078
66619SOL     OW 1630  10.501   1.728  11.370
66619SOL    HW1 1631  10.434   1.776  11.321
66619SOL    HW2 1632  10.584   1.752  11.328
66620SOL     OW 1633   9.024  11.488   1.058
66620SOL    HW1 1634   9.031  11.520   0.968
66620SOL    HW2 1635   8.931  11.467   1.069
66621SOL     OW 1636   9.069  10.726   0.705
66621SOL    HW1 1637   9.116  10.796   0.659
66621SOL    HW2 1638   9.003  10.771   0.757
66622SOL     OW 1639   8.050   6.038   9.698
66622SOL    HW1 1640   8.102   5.965   9.731
66622SOL    HW2 1641   8.074   6.045   9.606
66623SOL     OW 1642   4.090   4.413   5.416
66623SOL    HW1 1643   4.033   4.424   5.493
66623SOL    HW2 1644   4.029   4.404   5.343
66624SOL     OW 1645  13.844  14.476   7.376
66624SOL    HW1 1646  13.915  14.483   7.313
66624SOL    HW2 1647  13.765  14.469   7.323
66625SOL     OW 1648   5.517   4.021   0.638
66625SOL    HW1 1649   5.544   4.110   0.659
66625SOL    HW2 1650   5.425   4.029   0.611
66626SOL     OW 1651  13.431   6.033   7.656
66626SOL    HW1 1652  13.380   5.952   7.668
66626SOL    HW2 1653  13.413   6.059   7.566
66627SOL     OW 1654  12.144   0.255   1.274
66627SOL    HW1 1655  12.224   0.222   1.233
66627SOL    HW2 1656  12.073   0.211   1.227
66628SOL     OW 1657  11.748  14.592   7.149
66628SOL    HW1 1658  11.784  14.674   7.115
66628SOL    HW2 1659  11.726  14.541   7.072
66629SOL     OW 1660   3.032   5.433  11.675
66629SOL    HW1 1661   3.073   5.364  11.726
66629SOL    HW2 1662   3.105   5.488  11.645
66630SOL     OW 1663   4.246   7.809   6.428
66630SOL    HW1 1664   4.155   7.801   6.458
66630SOL    HW2 1665   4.297   7.762   6.494
66631SOL     OW 1666   2.744  14.536   9.189
66631SOL    HW1 1667   2.750  14.445   9.159
66631SOL    HW2 1668   2.737  14.587   9.108
66632SOL     OW 1669   4.675  13.077  13.329
66632SOL    HW1 1670   4.662  13.022  13.252
66632SOL    HW2 1671   4.701  13.016  13.398
66633SOL     OW 1672   9.851   8.709   5.572
66633SOL    HW1 1673   9.883   8.645   5.509
66633SOL    HW2 1674   9.838   8.789   5.520
66634SOL     OW 1675  14.782   5.846   1.543
66634SOL    HW1 1676  14.847   5.783   1.576
66634SOL    HW2 1677  14.768   5.819   1.452
66635SOL     OW 1678  11.186  13.068   8.298
66635SOL    HW1 1679  11.209  13.005   8.366
66635SOL    HW2 1680  11.113  13.027   8.251
66636SOL     OW 1681  11.920   4.680   0.889
66636SOL    HW1 1682  11.916   4.767   0.848
66636SOL    HW2 1683  11.927   4.619   0.816
66637SOL     OW 1684  10.302  12.326  10.593
66637SOL    HW1 1685  10.232  12.387  10.616
66637SOL    HW2 1686  10.380  12.381  10.583
66638SOL     OW 1687   6.623  11.838   3.572
66638SOL    HW1 1688   6.634  11.745   3.553
66638SOL    HW2 1689   6.547  11.864   3.520
66639SOL     OW 1690  12.761  13.956   9.614
66639SOL    HW1 1691  12.847  13.945   9.653
66639SOL    HW2 1692  12.715  13.874   9.634
66640SOL     OW 1693   1.920   5.959   7.844
66640SOL    HW1 1694   1.880   5.883   7.886
66640SOL    HW2 1695   1.983   5.922   7.782
66641SOL     OW 1696  13.807   4.402   4.605
66641SOL    HW1 1697  13.867   4.327   4.596
66641SOL    HW2 1698  13.722   4.368   4.578
66642SOL     OW 1699   7.341  11.195  13.465
66642SOL    HW1 1700   7.383  11.276  13.438
66642SOL    HW2 1701   7.393  11.164  13.539
66643SOL     OW 1702   3.973  12.906   9.610
66643SOL    HW1 1703   3.903  12.841   9.597
66643SOL    HW2 1704   3.935  12.987   9.578
66644SOL     OW 1705  13.916  14.212   6.656
66644SOL    HW1 1706  13.977  14.141   6.674
66644SOL    HW2 1707  13.893  14.246   6.742
66645SOL     OW 1708   2.356   5.470   4.844
66645SOL    HW1 1709   2.278   5.525   4.856
66645SOL    HW2 1710   2.332   5.386   4.884
66646SOL     OW 1711  12.488  12.524   7.169
66646SOL    HW1 1712  12.417  12.499   7.110
66646SOL    HW2 1713  12.510  12.443   7.215
66647SOL     OW 1714  11.976   0.039   8.847
66647SOL    HW1 1715  11.971   0.086   8.930
66647SOL    HW2 1716  12.051   0.078   8.802
66648SOL     OW 1717   1.360   4.233   5.901
66648SOL    HW1 1718   1.417   4.179   5.846
66648SOL    HW2 1719   1.271   4.214   5.869
66649SOL     OW 1720  12.459   2.644  14.855
66649SOL    HW1 1721  12.374   2.667   0.011
66649SOL    HW2 1722  12.495   2.580   0.035
66650SOL     OW 1723   3.334  12.524  10.589
66650SOL    HW1 1724   3.403  12.520  10.655
66650SOL    HW2 1725   3.380  12.515  10.506
66651SOL     OW 1726   2.728   3.167   5.106
66651SOL    HW1 1727   2.729   3.257   5.074
66651SOL    HW2 1728   2.778   3.170   5.188
66652SOL     OW 1729  11.065  10.387   9.892
66652SOL    HW1 1730  11.116  10.322   9.843
66652SOL    HW2 1731  11.089  10.471   9.852
66653SOL     OW 1732  10.929   2.621   0.811
66653SOL    HW1 1733  10.996   2.594   0.874
66653SOL    HW2 1734  10.978   2.648   0.733
66654SOL     OW 1735   7.962   2.425   5.597
66654SOL    HW1 1736   7.914   2.391   5.673
66654SOL    HW2 1737   7.993   2.511   5.625
66655SOL     OW 1738  12.848   1.566  11.703
66655SOL    HW1 1739  12.849   1.657  11.731
66655SOL    HW2 1740  12.904   1.564  11.625
66656SOL     OW 1741  10.613  14.662   8.841
66656SOL    HW1 1742  10.676  14.611   8.791
66656SOL    HW2 1743  10.527  14.630   8.812
66657SOL     OW 1744   3.275  10.673   8.056
66657SOL    HW1 1745   3.184  10.668   8.027
66657SOL    HW2 1746   3.288  10.593   8.108
66658SOL     OW 1747   5.973   7.715  13.527
66658SOL    HW1 1748   6.038   7.659  13.569
66658SOL    HW2 1749   5.889   7.675  13.551
66659SOL     OW 1750   8.457   2.723  11.375
66659SOL    HW1 1751   8.476   2.660  11.444
66659SOL    HW2 1752   8.502   2.689  11.297
66660SOL     OW 1753   3.631   6.088   6.703
66660SOL    HW1 1754   3.614   6.049   6.789
66660SOL    HW2 1755   3.654   6.179   6.723
66661SOL     OW 1756   1.202   9.079   8.320
66661SOL    HW1 1757   1.135   9.064   8.253
66661SOL    HW2 1758   1.154   9.104   8.398
66662SOL     OW 1759   1.874   0.545   3.346
66662SOL    HW1 1760   1.780   0.535   3.326
66662SOL    HW2 1761   1.876   0.608   3.418
66663SOL     OW 1762   4.271   1.872   5.080
66663SOL    HW1 1763   4.314   1.828   5.007
66663SOL    HW2 1764   4.335   1.936   5.111
66664SOL     OW 1765   0.063  14.844  13.926
66664SOL    HW1 1766   0.141  14.838  13.871
66664SOL    HW2 1767   0.048  14.755  13.958
66665SOL     OW 1768   6.184   2.331  11.818
66665SOL    HW1 1769   6.194   2.275  11.742
66665SOL    HW2 1770   6.197   2.420  11.784
66666SOL     OW 1771   8.201   0.670   4.890
66666SOL    HW1 1772   8.225   0.687   4.799
66666SOL    HW2 1773   8.197   0.574   4.896
66667SOL     OW 1774   1.821   7.063   3.880
66667SOL    HW1 1775   1.802   6.980   3.837
66667SOL    HW2 1776   1.770   7.127   3.830
66668SOL     OW 1777   7.153  11.734   2.435
66668SOL    HW1 1778   7.181  11.652   2.395
66668SOL    HW2 1779   7.155  11.716   2.530
66669SOL     OW 1780   1.853  11.043  13.529
66669SOL    HW1 1781   1.898  11.120  13.563
66669SOL    HW2 1782   1.916  11.002  13.470
66670SOL     OW 1783  12.663  10.995  10.987
66670SOL    HW1 1784  12.619  11.029  10.909
66670SOL    HW2 1785  12.755  10.986  10.960
66671SOL     OW 1786   4.765  13.319   2.067
66671SOL    HW1 1787   4.793  13.371   1.992
66671SOL    HW2 1788   4.737  13.236   2.030
66672SOL     OW 1789   4.908   5.204   1.254
66672SOL    HW1 1790   4.868   5.265   1.316
66672SOL    HW2 1791   4.839   5.186   1.190
66673SOL     OW 1792   2.310  12.731   6.546
66673SOL    HW1 1793   2.350  12.644   6.556
66673SOL    HW2 1794   2.377  12.783   6.502
66674SOL     OW 1795  14.092   7.803   5.389
66674SOL    HW1 1796  14.128   7.890   5.376
66674SOL    HW2 1797  14.152   7.745   5.342
66675SOL     OW 1798   9.738  14.096   0.084
66675SOL    HW1 1799   9.797  14.167   0.057
66675SOL    HW2 1800   9.780  14.016   0.053
66676SOL     OW 1801  13.842   7.451   1.926
66676SOL    HW1 1802  13.927   7.414   1.900
66676SOL    HW2 1803  13.847   7.458   2.021
66677SOL     OW 1804   6.611  10.839   7.567
66677SOL    HW1 1805   6.700  10.831   7.535
66677SOL    HW2 1806   6.556  10.834   7.489
66678SOL     OW 1807  12.922   9.415   3.217
66678SOL    HW1 1808  12.848   9.462   3.255
66678SOL    HW2 1809  12.962   9.479   3.157
66679SOL     OW 1810  10.237   6.587   7.832
66679SOL    HW1 1811  10.155   6.590   7.881
66679SOL    HW2 1812  10.286   6.515   7.871
66680SOL     OW 1813  10.240   1.102   0.311
66680SOL    HW1 1814  10.154   1.062   0.324
66680SOL    HW2 1815  10.261   1.140   0.396
66681SOL     OW 1816   8.067   7.636   7.366
66681SOL    HW1 1817   8.116   7.574   7.421
66681SOL    HW2 1818   8.006   7.581   7.317
66682SOL     OW 1819   2.748  11.598  10.234
66682SOL    HW1 1820   2.785  11.512  10.212
66682SOL    HW2 1821   2.659  11.579  10.262
66683SOL     OW 1822  11.192   4.867   7.106
66683SOL    HW1 1823  11.122   4.838   7.166
66683SOL    HW2 1824  11.164   4.954   7.079
66684SOL     OW 1825   0.138   9.123   3.163
66684SOL    HW1 1826   0.158   9.180   3.237
66684SOL    HW2 1827   0.218   9.123   3.110
66685SOL     OW 1828   9.367  13.092  10.456
66685SOL    HW1 1829   9.418  13.123  10.531
66685SOL    HW2 1830   9.348  13.171  10.406
66686SOL     OW 1831   8.864   5.729  11.916
66686SOL    HW1 1832   8.792   5.791  11.929
66686SOL    HW2 1833   8.881   5.732  11.822
66687SOL     OW 1834  10.056   1.349   4.544
66687SOL    HW1 1835  10.105   1.403   4.605
66687SOL    HW2 1836  10.065   1.393   4.459
66688SOL     OW 1837  11.035  14.318   8.189
66688SOL    HW1 1838  10.993  14.311   8.274
66688SOL    HW2 1839  11.074  14.232   8.174
66689SOL     OW 1840  10.509  10.313  14.637
66689SOL    HW1 1841  10.590  10.261  14.638
66689SOL    HW2 1842  10.442  10.255  14.674
66690SOL     OW 1843   2.667   6.914   3.789
66690SOL    HW1 1844   2.728   6.890   3.858
66690SOL    HW2 1845   2.586   6.935   3.834
66691SOL     OW 1846   5.577  10.003   7.811
66691SOL    HW1 1847   5.570   9.908   7.811
66691SOL    HW2 1848   5.587  10.027   7.719
66692SOL     OW 1849   6.791   4.050  10.841
66692SOL    HW1 1850   6.762   4.121  10.784
66692SOL    HW2 1851   6.820   3.981  10.781
66693SOL     OW 1852   4.845  10.896   3.015
66693SOL    HW1 1853   4.861  10.982   3.052
66693SOL    HW2 1854   4.750  10.888   3.012
66694SOL     OW 1855  13.165   5.109   4.270
66694SOL    HW1 1856  13.132   5.146   4.352
66694SOL    HW2 1857  13.260   5.124   4.273
66695SOL     OW 1858   1.352  13.151  14.834
66695SOL    HW1 1859   1.258  13.163  14.847
66695SOL    HW2 1860   1.386  13.135   0.041
66696SOL     OW 1861  11.817  11.327   6.075
66696SOL    HW1 1862  11.908  11.348   6.051
66696SOL    HW2 1863  11.782  11.409   6.109
66697SOL     OW 1864   2.271   0.887   6.798
66697SOL    HW1 1865   2.259   0.909   6.706
66697SOL    HW2 1866   2.341   0.946   6.827
66698SOL     OW 1867   7.234   5.890  11.619
66698SOL    HW1 1868   7.271   5.950  11.555
66698SOL    HW2 1869   7.152   5.932  11.647
66699SOL     OW 1870   0.664  13.348  13.102
66699SOL    HW1 1871   0.680  13.261  13.139
66699SOL    HW2 1872   0.704  13.409  13.164
66700SOL     OW 1873  12.634  11.806   2.080
66700SOL    HW1 1874  12.658  11.847   1.997
66700SOL    HW2 1875  12.666  11.716   2.072
66701SOL     OW 1876   1.691   3.290  11.484
66701SOL    HW1 1877   1.673   3.198  11.464
66701SOL    HW2 1878   1.610   3.335  11.459
66702SOL     OW 1879   7.079  14.513  13.007
66702SOL    HW1 1880   7.103  14.421  12.992
66702SOL    HW2 1881   7.142  14.544  13.072
66703SOL     OW 1882   0.975   2.711   6.382
66703SOL    HW1 1883   0.986   2.804   6.362
66703SOL    HW2 1884   0.943   2.710   6.473
66704SOL     OW 1885   7.600   7.900  10.543
66704SOL    HW1 1886   7.607   7.812  10.579
66704SOL    HW2 1887   7.564   7.953  10.614
66705SOL     OW 1888   3.476   1.922   0.950
66705SOL    HW1 1889   3.526   1.847   0.983
66705SOL    HW2 1890   3.439   1.962   1.029
66706SOL     OW 1891   2.684  13.115   2.197
66706SOL    HW1 1892   2.752  13.165   2.152
66706SOL    HW2 1893   2.657  13.172   2.270
66707SOL     OW 1894   5.962   3.586   1.588
66707SOL    HW1 1895   6.007   3.670   1.599
66707SOL    HW2 1896   5.922   3.592   1.501
66708SOL     OW 1897   7.627   1.476   7.184
66708SOL    HW1 1898   7.707   1.423   7.179
66708SOL    HW2 1899   7.557   1.412   7.197
66709SOL     OW 1900   4.219   6.914  14.132
66709SOL    HW1 1901   4.167   6.971  14.075
66709SOL    HW2 1902   4.308   6.918  14.096
66710SOL     OW 1903   4.236   0.038   8.086
66710SOL    HW1 1904   4.299  14.849   8.095
66710SOL    HW2 1905   4.239   0.085   8.170
66711SOL     OW 1906  13.151   5.895   1.915
66711SOL    HW1 1907  13.159   5.893   1.819
66711SOL    HW2 1908  13.174   5.985   1.938
66712SOL     OW 1909   5.581  12.334  11.877
66712SOL    HW1 1910   5.651  12.389  11.842
66712SOL    HW2 1911   5.612  12.309  11.965
66713SOL     OW 1912  14.396   0.930   8.583
66713SOL    HW1 1913  14.363   0.939   8.673
66713SOL    HW2 1914  14.342   0.990   8.532
66714SOL     OW 1915   5.026  11.760   3.729
66714SOL    HW1 1916   4.998  11.785   3.641
66714SOL    HW2 1917   4.948  11.770   3.783
66715SOL     OW 1918   4.514  13.454   5.009
66715SOL    HW1 1919   4.598  13.490   5.040
66715SOL    HW2 1920   4.448  13.495   5.066
66716SOL     OW 1921  12.485   0.118  12.082
66716SOL    HW1 1922  12.477   0.169  12.163
66716SOL    HW2 1923  12.397   0.120  12.044
66717SOL     OW 1924   7.134   3.207   9.012
66717SOL    HW1 1925   7.105   3.276   8.952
66717SOL    HW2 1926   7.200   3.158   8.962
66718SOL     OW 1927   1.454   4.011   4.036
66718SOL    HW1 1928   1.545   4.025   4.061
66718SOL    HW2 1929   1.436   4.078   3.970
66719SOL     OW 1930   7.449   7.474   0.195
66719SOL    HW1 1931   7.477   7.562   0.218
66719SOL    HW2 1932   7.377   7.455   0.255
66720SOL     OW 1933   8.514   6.934   7.265
66720SOL    HW1 1934   8.574   6.878   7.315
66720SOL    HW2 1935   8.502   6.889   7.182
66721SOL     OW 1936  12.541  12.752   8.530
66721SOL    HW1 1937  12.576  12.694   8.462
66721SOL    HW2 1938  12.447  12.731   8.533
66722SOL     OW 1939   8.923  14.795   4.230
66722SOL    HW1 1940   8.865  14.850   4.282
66722SOL    HW2 1941   8.928  14.713   4.278
66723SOL     OW 1942   2.875   1.401   0.679
66723SOL    HW1 1943   2.921   1.450   0.611
66723SOL    HW2 1944   2.856   1.467   0.746
66724SOL     OW 1945   7.383   9.436   3.467
66724SOL    HW1 1946   7.446   9.469   3.402
66724SOL    HW2 1947   7.429   9.364   3.510
66725SOL     OW 1948  11.263   7.450   1.100
66725SOL    HW1 1949  11.336   7.448   1.038
66725SOL    HW2 1950  11.278   7.375   1.157
66726SOL     OW 1951   7.555   6.643   0.197
66726SOL    HW1 1952   7.545   6.702   0.272
66726SOL    HW2 1953   7.594   6.564   0.234
66727SOL     OW 1954   8.798   9.802  13.422
66727SOL    HW1 1955   8.843   9.754  13.352
66727SOL    HW2 1956   8.721   9.841  13.380
66728SOL     OW 1957   5.021   9.086  12.831
66728SOL    HW1 1958   5.105   9.080  12.785
66728SOL    HW2 1959   4.993   8.996  12.844
66729SOL     OW 1960  11.490   0.630  14.246
66729SOL    HW1 1961  11.418   0.666  14.298
66729SOL    HW2 1962  11.485   0.536  14.259
66730SOL     OW 1963  14.311  12.467   3.940
66730SOL    HW1 1964  14.231  12.449   3.990
66730SOL    HW2 1965  14.348  12.380   3.923
66731SOL     OW 1966   8.670  14.117   4.686
66731SOL    HW1 1967   8.707  14.066   4.758
66731SOL    HW2 1968   8.578  14.092   4.684
66732SOL     OW 1969   9.888   2.047   1.540
66732SOL    HW1 1970   9.926   1.961   1.556
66732SOL    HW2 1971   9.867   2.081   1.626
66733SOL     OW 1972   9.675   8.088   4.508
66733SOL    HW1 1973   9.761   8.099   4.550
66733SOL    HW2 1974   9.672   8.156   4.441
66734SOL     OW 1975   5.796   7.968  13.088
66734SOL    HW1 1976   5.717   7.926  13.123
66734SOL    HW2 1977   5.797   7.943  12.996
66735SOL     OW 1978  10.252  12.156   1.621
66735SOL    HW1 1979  10.255  12.168   1.716
66735SOL    HW2 1980  10.301  12.075   1.605
66736SOL     OW 1981   9.500  10.783   0.721
66736SOL    HW1 1982   9.521  10.765   0.813
66736SOL    HW2 1983   9.415  10.827   0.724
66737SOL     OW 1984  13.484   5.760   1.445
66737SOL    HW1 1985  13.401   5.753   1.397
66737SOL    HW2 1986  13.461   5.806   1.526
66738SOL     OW 1987  13.808  12.218   0.612
66738SOL    HW1 1988  13.822  12.128   0.641
66738SOL    HW2 1989  13.869  12.228   0.539
66739SOL     OW 1990  14.513   5.368  13.749
66739SOL    HW1 1991  14.465   5.293  13.713
66739SOL    HW2 1992  14.575   5.329  13.811
66740SOL     OW 1993   1.804   8.110   0.466
66740SOL    HW1 1994   1.854   8.029   0.453
66740SOL    HW2 1995   1.744   8.090   0.538
66741SOL     OW 1996  11.860   5.047   8.810
66741SOL    HW1 1997  11.909   5.080   8.735
66741SOL    HW2 1998  11.779   5.098   8.810
66742SOL     OW 1999   5.080   6.025   1.458
66742SOL    HW1 2000   4.985   6.019   1.459
66742SOL    HW2 2001   5.102   6.046   1.367
66743SOL     OW 2002   1.763   9.557  14.261
66743SOL    HW1 2003   1.784   9.578  14.352
66743SOL    HW2 2004   1.848   9.548  14.218
66744SOL     OW 2005   7.565   3.717  10.665
66744SOL    HW1 2006   7.571   3.622  10.665
66744SOL    HW2 2007   7.474   3.735  10.691
66745SOL     OW 2008   2.664   6.258   4.442
66745SOL    HW1 2009   2.708   6.178   4.471
66745SOL    HW2 2010   2.618   6.233   4.362
66746SOL     OW 2011  10.491   2.081   6.557
66746SOL    HW1 2012  10.420   2.066   6.619
66746SOL    HW2 2013  10.452   2.132   6.486
66747SOL     OW 2014   7.427  12.155  13.262
66747SOL    HW1 2015   7.339  12.173  13.229
66747SOL    HW2 2016   7.435  12.059  13.259
66748SOL     OW 2017   0.987   6.196   9.557
66748SOL    HW1 2018   0.894   6.183   9.543
66748SOL    HW2 2019   1.029   6.151   9.483
66749SOL     OW 2020  10.210   7.439  10.489
66749SOL    HW1 2021  10.173   7.379  10.554
66749SOL    HW2 2022  10.223   7.385  10.412
66750SOL     OW 2023   7.421   3.198   8.011
66750SOL    HW1 2024   7.452   3.122   7.962
66750SOL    HW2 2025   7.400   3.263   7.944
66751SOL     OW 2026   3.707   3.832  12.144
66751SOL    HW1 2027   3.731   3.892  12.074
66751SOL    HW2 2028   3.790   3.796  12.175
66752SOL     OW 2029  10.821  13.685   7.554
66752SOL    HW1 2030  10.912  13.712   7.563
66752SOL    HW2 2031  10.806  13.684   7.460
66753SOL     OW 2032   5.541  10.036   4.344
66753SOL    HW1 2033   5.631  10.043   4.310
66753SOL    HW2 2034   5.550  10.044   4.439
66754SOL     OW 2035   5.475  11.839   9.454
66754SOL    HW1 2036   5.436  11.891   9.384
66754SOL    HW2 2037   5.417  11.763   9.463
66755SOL     OW 2038   4.522  10.385   7.361
66755SOL    HW1 2039   4.520  10.335   7.442
66755SOL    HW2 2040   4.478  10.467   7.383
66756SOL     OW 2041   4.851   0.362   9.229
66756SOL    HW1 2042   4.828   0.271   9.244
66756SOL    HW2 2043   4.843   0.403   9.315
66757SOL     OW 2044   6.833  10.182   2.737
66757SOL    HW1 2045   6.802  10.167   2.648
66757SOL    HW2 2046   6.839  10.095   2.776
66758SOL     OW 2047   6.714  11.655   2.395
66758SOL    HW1 2048   6.739  11.724   2.333
66758SOL    HW2 2049   6.795  11.638   2.445
66759SOL     OW 2050   8.105   5.593   9.215
66759SOL    HW1 2051   8.141   5.591   9.127
66759SOL    HW2 2052   8.142   5.516   9.258
66760SOL     OW 2053   8.327  11.588  12.033
66760SOL    HW1 2054   8.338  11.495  12.054
66760SOL    HW2 2055   8.244  11.613  12.073
66761SOL     OW 2056   9.683   8.940  10.091
66761SOL    HW1 2057   9.690   9.032  10.067
66761SOL    HW2 2058   9.597   8.913  10.061
66762SOL     OW 2059  14.199   5.721   9.151
66762SOL    HW1 2060  14.279   5.704   9.101
66762SOL    HW2 2061  14.140   5.649   9.128
66763SOL     OW 2062   7.404  12.607   7.691
66763SOL    HW1 2063   7.468  12.618   7.761
66763SOL    HW2 2064   7.410  12.515   7.666
66764SOL     OW 2065   1.959   0.057   7.442
66764SOL    HW1 2066   1.986  14.869   7.383
66764SOL    HW2 2067   1.947   0.134   7.386
66765SOL     OW 2068  10.286   2.493  12.426
66765SOL    HW1 2069  10.362   2.439  12.410
66765SOL    HW2 2070  10.277   2.547  12.348
66766SOL     OW 2071   2.655  13.312  11.813
66766SOL    HW1 2072   2.646  13.216  11.810
66766SOL    HW2 2073   2.645  13.340  11.722
66767SOL     OW 2074  12.893  14.506  11.481
66767SOL    HW1 2075  12.952  14.566  11.528
66767SOL    HW2 2076  12.808  14.516  11.524
66768SOL     OW 2077   6.057  13.792  14.831
66768SOL    HW1 2078   6.125  13.807  14.764
66768SOL    HW2 2079   6.007  13.717  14.798
66769SOL     OW 2080   4.475   0.801   5.546
66769SOL    HW1 2081   4.449   0.809   5.638
66769SOL    HW2 2082   4.554   0.854   5.540
66770SOL     OW 2083  10.631  13.462  11.551
66770SOL    HW1 2084  10.609  13.479  11.460
66770SOL    HW2 2085  10.701  13.524  11.571
66771SOL     OW 2086   2.156   1.143   4.596
66771SOL    HW1 2087   2.202   1.060   4.610
66771SOL    HW2 2088   2.094   1.124   4.525
66772SOL     OW 2089   3.179   5.697   0.445
66772SOL    HW1 2090   3.262   5.718   0.488
66772SOL    HW2 2091   3.112   5.712   0.513
66773SOL     OW 2092   6.532  11.043   7.844
66773SOL    HW1 2093   6.604  11.081   7.795
66773SOL    HW2 2094   6.534  10.950   7.824
66774SOL     OW 2095   2.539   7.336   3.469
66774SOL    HW1 2096   2.520   7.382   3.387
66774SOL    HW2 2097   2.544   7.405   3.534
66775SOL     OW 2098   5.968   0.278   0.564
66775SOL    HW1 2099   5.879   0.273   0.528
66775SOL    HW2 2100   6.002   0.189   0.557
66776SOL     OW 2101   5.908   4.642   5.460
66776SOL    HW1 2102   5.989   4.594   5.477
66776SOL    HW2 2103   5.838   4.580   5.484
66777SOL     OW 2104   7.256   7.093   1.192
66777SOL    HW1 2105   7.242   7.027   1.259
66777SOL    HW2 2106   7.176   7.146   1.194
66778SOL     OW 2107   7.400  11.710   4.255
66778SOL    HW1 2108   7.328  11.650   4.234
66778SOL    HW2 2109   7.458  11.659   4.311
66779SOL     OW 2110   9.450  12.652   7.943
66779SOL    HW1 2111   9.449  12.578   8.003
66779SOL    HW2 2112   9.418  12.726   7.995
66780SOL     OW 2113   8.424   3.314   1.879
66780SOL    HW1 2114   8.479   3.391   1.894
66780SOL    HW2 2115   8.462   3.246   1.934
66781SOL     OW 2116   6.670  12.601   7.114
66781SOL    HW1 2117   6.723  12.644   7.182
66781SOL    HW2 2118   6.729  12.595   7.039
66782SOL     OW 2119   7.827  12.479   8.766
66782SOL    HW1 2120   7.910  12.444   8.795
66782SOL    HW2 2121   7.771  12.402   8.753
66783SOL     OW 2122   6.326   3.317   3.644
66783SOL    HW1 2123   6.389   3.266   3.695
66783SOL    HW2 2124   6.361   3.317   3.555
66784SOL     OW 2125   3.944   4.305   4.807
66784SOL    HW1 2126   3.961   4.396   4.783
66784SOL    HW2 2127   3.855   4.305   4.842
66785SOL     OW 2128  10.525   5.408   1.872
66785SOL    HW1 2129  10.612   5.447   1.866
66785SOL    HW2 2130  10.466   5.483   1.876
66786SOL     OW 2131   4.157   0.758   8.414
66786SOL    HW1 2132   4.167   0.733   8.322
66786SOL    HW2 2133   4.189   0.848   8.419
66787SOL     OW 2134   1.982  11.538   4.178
66787SOL    HW1 2135   1.908  11.588   4.212
66787SOL    HW2 2136   1.948  11.449   4.167
66788SOL     OW 2137  13.760   9.321   1.558
66788SOL    HW1 2138  13.822   9.380   1.515
66788SOL    HW2 2139  13.802   9.235   1.556
66789SOL     OW 2140   0.298   5.455   9.704
66789SOL    HW1 2141   0.256   5.511   9.638
66789SOL    HW2 2142   0.237   5.456   9.778
66790SOL     OW 2143   8.358   4.179   3.506
66790SOL    HW1 2144   8.303   4.127   3.447
66790SOL    HW2 2145   8.297   4.209   3.574
66791SOL     OW 2146   0.213   3.293   8.599
66791SOL    HW1 2147   0.138   3.271   8.654
66791SOL    HW2 2148   0.255   3.367   8.645
66792SOL     OW 2149   8.081  10.008   0.417
66792SOL    HW1 2150   8.016  10.013   0.487
66792SOL    HW2 2151   8.029  10.009   0.336
66793SOL     OW 2152  12.342  12.247  13.104
66793SOL    HW1 2153  12.397  12.191  13.050
66793SOL    HW2 2154  12.402  12.283  13.169
66794SOL     OW 2155   1.088   3.679   3.648
66794SOL    HW1 2156   1.107   3.720   3.732
66794SOL    HW2 2157   1.170   3.685   3.599
66795SOL     OW 2158  11.696   0.675   3.898
66795SOL    HW1 2159  11.639   0.727   3.953
66795SOL    HW2 2160  11.677   0.584   3.921
66796SOL     OW 2161  12.592   8.058   7.492
66796SOL    HW1 2162  12.658   7.993   7.514
66796SOL    HW2 2163  12.623   8.139   7.533
66797SOL     OW 2164   2.342  10.865   3.386
66797SOL    HW1 2165   2.411  10.891   3.325
66797SOL    HW2 2166   2.288  10.805   3.335
66798SOL     OW 2167   3.157   9.549  10.671
66798SOL    HW1 2168   3.081   9.605  10.681
66798SOL    HW2 2169   3.195   9.543  10.759
66799SOL     OW 2170   8.521   8.256   3.968
66799SOL    HW1 2171   8.483   8.295   4.047
66799SOL    HW2 2172   8.452   8.262   3.903
66800SOL     OW 2173   3.569   4.004   7.912
66800SOL    HW1 2174   3.592   4.094   7.889
66800SOL    HW2 2175   3.641   3.975   7.968
66801SOL     OW 2176   8.264  13.330   1.899
66801SOL    HW1 2177   8.228  13.403   1.848
66801SOL    HW2 2178   8.186  13.284   1.932
66802SOL     OW 2179  12.773   3.565   0.071
66802SOL    HW1 2180  12.750   3.656   0.089
66802SOL    HW2 2181  12.788   3.526   0.157
66803SOL     OW 2182  10.052   0.380  14.195
66803SOL    HW1 2183  10.110   0.325  14.142
66803SOL    HW2 2184  10.088   0.374  14.283
66804SOL     OW 2185   2.338  11.544  13.569
66804SOL    HW1 2186   2.377  11.518  13.652
66804SOL    HW2 2187   2.291  11.625  13.588
66805SOL     OW 2188  14.766  11.996   6.037
66805SOL    HW1 2189  14.785  11.907   6.007
66805SOL    HW2 2190  14.739  12.043   5.959
66806SOL     OW 2191   6.917  11.440   4.672
66806SOL    HW1 2192   6.982  11.465   4.606
66806SOL    HW2 2193   6.965  11.380   4.730
66807SOL     OW 2194   0.633   9.422   5.846
66807SOL    HW1 2195   0.660   9.341   5.890
66807SOL    HW2 2196   0.589   9.473   5.915
66808SOL     OW 2197   1.636   7.148   8.282
66808SOL    HW1 2198   1.649   7.163   8.375
66808SOL    HW2 2199   1.710   7.190   8.240
66809SOL     OW 2200   2.464   9.227   6.068
66809SOL    HW1 2201   2.441   9.292   6.002
66809SOL    HW2 2202   2.394   9.161   6.062
66810SOL     OW 2203  10.747   2.389   2.771
66810SOL    HW1 2204  10.815   2.411   2.834
66810SOL    HW2 2205  10.678   2.454   2.785
66811SOL     OW 2206   9.896   8.242   1.490
66811SOL    HW1 2207   9.935   8.281   1.569
66811SOL    HW2 2208   9.833   8.308   1.459
66812SOL     OW 2209  12.711   6.238   3.009
66812SOL    HW1 2210  12.632   6.185   3.017
66812SOL    HW2 2211  12.681   6.328   3.024
66813SOL     OW 2212   2.174  11.473   3.057
66813SOL    HW1 2213   2.242  11.515   3.005
66813SOL    HW2 2214   2.211  11.469   3.145
66814SOL     OW 2215  11.892   1.103  10.514
66814SOL    HW1 2216  11.857   1.189  10.538
66814SOL    HW2 2217  11.815   1.046  10.509
66815SOL     OW 2218  13.949   9.303  12.296
66815SOL    HW1 2219  13.960   9.398  12.287
66815SOL    HW2 2220  14.018   9.276  12.356
66816SOL     OW 2221   2.563  11.205   8.808
66816SOL    HW1 2222   2.604  11.147   8.744
66816SOL    HW2 2223   2.523  11.274   8.755
66817SOL     OW 2224   0.041   1.421   1.786
66817SOL    HW1 2225  14.840   1.460   1.816
66817SOL    HW2 2226   0.091   1.405   1.866
66818SOL     OW 2227   9.236  14.598  14.556
66818SOL    HW1 2228   9.260  14.644  14.636
66818SOL    HW2 2229   9.184  14.524  14.585
66819SOL     OW 2230   6.068   7.554  11.126
66819SOL    HW1 2231   6.077   7.632  11.181
66819SOL    HW2 2232   5.975   7.551  11.105
66820SOL     OW 2233   3.172  10.626   3.167
66820SOL    HW1 2234   3.139  10.662   3.249
66820SOL    HW2 2235   3.241  10.565   3.193
66821SOL     OW 2236   8.787   8.278   2.632
66821SOL    HW1 2237   8.786   8.233   2.716
66821SOL    HW2 2238   8.861   8.241   2.585
66822SOL     OW 2239   6.762   7.304  13.971
66822SOL    HW1 2240   6.850   7.338  13.954
66822SOL    HW2 2241   6.705   7.356  13.915
66823SOL     OW 2242   3.201   8.394   1.039
66823SOL    HW1 2243   3.138   8.456   1.001
66823SOL    HW2 2244   3.246   8.444   1.107
66824SOL     OW 2245   6.950  13.037   8.072
66824SOL    HW1 2246   6.946  13.114   8.128
66824SOL    HW2 2247   6.860  13.006   8.066
66825SOL     OW 2248   0.257   3.694  12.220
66825SOL    HW1 2249   0.267   3.741  12.302
66825SOL    HW2 2250   0.198   3.621  12.241
66826SOL     OW 2251   5.952  10.188   7.713
66826SOL    HW1 2252   5.936  10.103   7.672
66826SOL    HW2 2253   5.925  10.252   7.648
66827SOL     OW 2254   9.302  10.970   9.330
66827SOL    HW1 2255   9.339  10.884   9.349
66827SOL    HW2 2256   9.321  10.984   9.237
66828SOL     OW 2257  10.364  11.813   1.383
66828SOL    HW1 2258  10.425  11.812   1.309
66828SOL    HW2 2259  10.413  11.855   1.454
66829SOL     OW 2260   2.475   6.439   4.254
66829SOL    HW1 2261   2.464   6.409   4.344
66829SOL    HW2 2262   2.440   6.369   4.200
66830SOL     OW 2263   4.326  13.419   2.852
66830SOL    HW1 2264   4.250  13.463   2.814
66830SOL    HW2 2265   4.311  13.326   2.836
66831SOL     OW 2266  11.110   9.122   5.225
66831SOL    HW1 2267  11.119   9.192   5.160
66831SOL    HW2 2268  11.195   9.078   5.224
66832SOL     OW 2269   8.283   7.252   0.693
66832SOL    HW1 2270   8.238   7.168   0.700
66832SOL    HW2 2271   8.347   7.251   0.763
66833SOL     OW 2272  13.500   7.016   4.219
66833SOL    HW1 2273  13.537   7.076   4.154
66833SOL    HW2 2274  13.411   7.049   4.233
66834SOL     OW 2275   6.225   0.694  12.139
66834SOL    HW1 2276   6.252   0.665  12.052
66834SOL    HW2 2277   6.176   0.775  12.123
66835SOL     OW 2278   6.995  11.431  12.931
66835SOL    HW1 2279   6.917  11.391  12.892
66835SOL    HW2 2280   6.963  11.515  12.966
66836SOL     OW 2281   4.782   0.330  11.390
66836SOL    HW1 2282   4.689   0.317  11.411
66836SOL    HW2 2283   4.786   0.421  11.359
66837SOL     OW 2284   4.173   6.882  12.264
66837SOL    HW1 2285   4.263   6.857  12.284
66837SOL    HW2 2286   4.180   6.932  12.183
66838SOL     OW 2287   9.889  11.848  11.582
66838SOL    HW1 2288   9.859  11.771  11.532
66838SOL    HW2 2289   9.826  11.855  11.654
66839SOL     OW 2290   6.448   8.215  11.902
66839SOL    HW1 2291   6.535   8.201  11.865
66839SOL    HW2 2292   6.402   8.132  11.887
66840SOL     OW 2293  12.490  12.161   2.691
66840SOL    HW1 2294  12.416  12.201   2.646
66840SOL    HW2 2295  12.450  12.112   2.764
66841SOL     OW 2296   0.587   5.519  14.442
66841SOL    HW1 2297   0.572   5.424  14.437
66841SOL    HW2 2298   0.659   5.528  14.505
66842SOL     OW 2299   8.831   2.175   5.877
66842SOL    HW1 2300   8.835   2.224   5.959
66842SOL    HW2 2301   8.824   2.242   5.809
66843SOL     OW 2302  10.730  12.394   7.583
66843SOL    HW1 2303  10.701  12.484   7.566
66843SOL    HW2 2304  10.789  12.402   7.658
66844SOL     OW 2305   7.062   1.476   9.081
66844SOL    HW1 2306   7.133   1.487   9.144
66844SOL    HW2 2307   7.061   1.382   9.063
66845SOL     OW 2308  14.353   1.112   5.153
66845SOL    HW1 2309  14.258   1.116   5.164
66845SOL    HW2 2310  14.378   1.029   5.195
66846SOL     OW 2311   3.882  13.472   0.743
66846SOL    HW1 2312   3.897  13.383   0.711
66846SOL    HW2 2313   3.889  13.527   0.665
66847SOL     OW 2314   0.620  14.796  11.235
66847SOL    HW1 2315   0.622  14.869  11.173
66847SOL    HW2 2316   0.699  14.746  11.214
66848SOL     OW 2317   8.452  11.717   0.259
66848SOL    HW1 2318   8.446  11.709   0.354
66848SOL    HW2 2319   8.396  11.792   0.237
66849SOL     OW 2320   8.293  12.214  14.599
66849SOL    HW1 2321   8.347  12.287  14.571
66849SOL    HW2 2322   8.258  12.176  14.518
66850SOL     OW 2323  11.954   5.383  10.090
66850SOL    HW1 2324  11.893   5.327  10.043
66850SOL    HW2 2325  11.941   5.362  10.182
66851SOL     OW 2326   4.513   7.611  10.324
66851SOL    HW1 2327   4.581   7.644  10.265
66851SOL    HW2 2328   4.432   7.621  10.275
66852SOL     OW 2329  12.476   2.840  13.651
66852SOL    HW1 2330  12.406   2.854  13.588
66852SOL    HW2 2331  12.444   2.880  13.732
66853SOL     OW 2332  11.709   6.439   0.271
66853SOL    HW1 2333  11.697   6.451   0.365
66853SOL    HW2 2334  11.743   6.350   0.263
66854SOL     OW 2335  10.817   8.853   0.441
66854SOL    HW1 2336  10.834   8.800   0.519
66854SOL    HW2 2337  10.722   8.850   0.431
66855SOL     OW 2338   5.189   7.772   0.624
66855SOL    HW1 2339   5.249   7.832   0.668
66855SOL    HW2 2340   5.140   7.731   0.695
66856SOL     OW 2341   6.659  10.849   7.126
66856SOL    HW1 2342   6.608  10.771   7.107
66856SOL    HW2 2343   6.612  10.893   7.196
66857SOL     OW 2344   9.098   1.570  12.226
66857SOL    HW1 2345   9.038   1.504  12.192
66857SOL    HW2 2346   9.044   1.625  12.282
66858SOL     OW 2347  14.855  13.316   1.544
66858SOL    HW1 2348  14.836  13.404   1.577
66858SOL    HW2 2349   0.010  13.331   1.457
66859SOL     OW 2350  14.453  10.902  13.271
66859SOL    HW1 2351  14.460  10.966  13.200
66859SOL    HW2 2352  14.359  10.893  13.287
66860SOL     OW 2353   8.847   0.008   8.499
66860SOL    HW1 2354   8.927  14.839   8.516
66860SOL    HW2 2355   8.789  14.869   8.573
66861SOL     OW 2356  13.979   6.955  14.110
66861SOL    HW1 2357  14.006   7.018  14.177
66861SOL    HW2 2358  14.024   6.874  14.133
66862SOL     OW 2359   6.894   2.983   0.027
66862SOL    HW1 2360   6.989   2.983   0.011
66862SOL    HW2 2361   6.865   3.069  14.880
66863SOL     OW 2362  14.316  13.637   8.132
66863SOL    HW1 2363  14.346  13.701   8.196
66863SOL    HW2 2364  14.391  13.578   8.119
66864SOL     OW 2365   1.436   4.755  10.982
66864SOL    HW1 2366   1.407   4.696  11.052
66864SOL    HW2 2367   1.402   4.715  10.902
66865SOL     OW 2368  13.537   5.663   4.185
66865SOL    HW1 2369  13.475   5.669   4.112
66865SOL    HW2 2370  13.615   5.709   4.153
66866SOL     OW 2371   7.065  14.315  14.422
66866SOL    HW1 2372   7.089  14.338  14.512
66866SOL    HW2 2373   7.097  14.225  14.412
66867SOL     OW 2374   7.885   3.037   4.648
66867SOL    HW1 2375   7.873   3.126   4.681
66867SOL    HW2 2376   7.979   3.032   4.628
66868SOL     OW 2377  14.034   2.183  14.587
66868SOL    HW1 2378  14.018   2.265  14.542
66868SOL    HW2 2379  14.043   2.118  14.518
66869SOL     OW 2380  10.536   5.174   7.377
66869SOL    HW1 2381  10.519   5.229   7.454
66869SOL    HW2 2382  10.632   5.171   7.371
66870SOL     OW 2383   2.336   0.856   1.267
66870SOL    HW1 2384   2.382   0.775   1.286
66870SOL    HW2 2385   2.345   0.908   1.346
66871SOL     OW 2386   7.456   3.466  14.488
66871SOL    HW1 2387   7.396   3.506  14.424
66871SOL    HW2 2388   7.473   3.536  14.551
66872SOL     OW 2389   3.964   3.214   9.014
66872SOL    HW1 2390   3.968   3.124   9.048
66872SOL    HW2 2391   3.907   3.260   9.075
66873SOL     OW 2392   7.092   1.965  13.792
66873SOL    HW1 2393   7.143   1.937  13.868
66873SOL    HW2 2394   7.009   1.995  13.829
66874SOL     OW 2395  13.893  11.738   1.350
66874SOL    HW1 2396  13.838  11.815   1.338
66874SOL    HW2 2397  13.968  11.752   1.292
66875SOL     OW 2398   5.424  14.317  10.930
66875SOL    HW1 2399   5.374  14.350  11.006
66875SOL    HW2 2400   5.357  14.280  10.873
66876SOL     OW 2401   7.559   3.425  10.639
66876SOL    HW1 2402   7.584   3.376  10.560
66876SOL    HW2 2403   7.588   3.370  10.711
66877SOL     OW 2404  11.969   7.423  10.463
66877SOL    HW1 2405  11.887   7.382  10.488
66877SOL    HW2 2406  12.037   7.364  10.496
66878SOL     OW 2407   1.470  14.865  11.838
66878SOL    HW1 2408   1.494   0.035  11.915
66878SOL    HW2 2409   1.524  14.786  11.843
66879SOL     OW 2410   5.665   6.503   1.903
66879SOL    HW1 2411   5.650   6.537   1.815
66879SOL    HW2 2412   5.656   6.580   1.960
66880SOL     OW 2413   1.188  11.975   9.835
66880SOL    HW1 2414   1.222  12.060   9.807
66880SOL    HW2 2415   1.094  11.989   9.845
66881SOL     OW 2416   4.923   7.132   9.461
66881SOL    HW1 2417   4.919   7.118   9.367
66881SOL    HW2 2418   5.006   7.092   9.488
66882SOL     OW 2419   5.442   3.456  10.637
66882SOL    HW1 2420   5.521   3.499  10.605
66882SOL    HW2 2421   5.450   3.365  10.610
66883SOL     OW 2422   4.530   2.682   8.015
66883SOL    HW1 2423   4.591   2.609   8.008
66883SOL    HW2 2424   4.482   2.665   8.096
66884SOL     OW 2425   2.230   9.252  12.701
66884SOL    HW1 2426   2.224   9.337  12.657
66884SOL    HW2 2427   2.323   9.238  12.713
66885SOL     OW 2428   4.482   7.381   3.369
66885SOL    HW1 2429   4.449   7.305   3.321
66885SOL    HW2 2430   4.427   7.386   3.447
66886SOL     OW 2431   7.500  14.135   3.893
66886SOL    HW1 2432   7.408  14.159   3.883
66886SOL    HW2 2433   7.545  14.219   3.907
66887SOL     OW 2434  14.269   0.017   0.561
66887SOL    HW1 2435  14.341   0.068   0.525
66887SOL    HW2 2436  14.260  14.824   0.501
66888SOL     OW 2437   2.269   3.742   1.549
66888SOL    HW1 2438   2.330   3.761   1.621
66888SOL    HW2 2439   2.196   3.802   1.563
66889SOL     OW 2440  13.203  12.686   4.158
66889SOL    HW1 2441  13.136  12.618   4.166
66889SOL    HW2 2442  13.209  12.702   4.063
66890SOL     OW 2443   3.566  14.090   1.583
66890SOL    HW1 2444   3.529  14.005   1.558
66890SOL    HW2 2445   3.622  14.070   1.659
66891SOL     OW 2446   3.907   6.621   9.942
66891SOL    HW1 2447   3.951   6.539   9.964
66891SOL    HW2 2448   3.877   6.657  10.026
66892SOL     OW 2449   6.384  14.313  13.881
66892SOL    HW1 2450   6.471  14.285  13.851
66892SOL    HW2 2451   6.396  14.331  13.974
66893SOL     OW 2452   3.959   2.866   3.562
66893SOL    HW1 2453   3.963   2.929   3.634
66893SOL    HW2 2454   4.019   2.902   3.496
66894SOL     OW 2455   9.458   8.951   1.709
66894SOL    HW1 2456   9.532   8.979   1.655
66894SOL    HW2 2457   9.488   8.964   1.799
66895SOL     OW 2458   9.938   2.070  13.285
66895SOL    HW1 2459   9.843   2.079  13.296
66895SOL    HW2 2460   9.954   2.095  13.194
66896SOL     OW 2461  12.380   9.892   1.212
66896SOL    HW1 2462  12.336   9.846   1.283
66896SOL    HW2 2463  12.396   9.825   1.146
66897SOL     OW 2464   7.882   4.380  10.983
66897SOL    HW1 2465   7.866   4.470  11.009
66897SOL    HW2 2466   7.797   4.347  10.955
66898SOL     OW 2467   2.605   4.782   3.748
66898SOL    HW1 2468   2.689   4.826   3.759
66898SOL    HW2 2469   2.594   4.730   3.828
66899SOL     OW 2470  10.239  14.529   9.149
66899SOL    HW1 2471  10.243  14.521   9.053
66899SOL    HW2 2472  10.285  14.452   9.181
66900SOL     OW 2473   8.495   3.610  10.462
66900SOL    HW1 2474   8.434   3.683  10.477
66900SOL    HW2 2475   8.580   3.645  10.487
66901SOL     OW 2476  14.186   6.928   8.838
66901SOL    HW1 2477  14.258   6.943   8.776
66901SOL    HW2 2478  14.229   6.889   8.914
66902SOL     OW 2479  11.755  10.363   5.282
66902SOL    HW1 2480  11.842  10.402   5.283
66902SOL    HW2 2481  11.712  10.397   5.361
66903SOL     OW 2482  14.873   2.173   5.820
66903SOL    HW1 2483  14.796   2.187   5.766
66903SOL    HW2 2484  14.869   2.081   5.845
66904SOL     OW 2485   4.379   3.872   7.434
66904SOL    HW1 2486   4.313   3.927   7.391
66904SOL    HW2 2487   4.333   3.834   7.509
66905SOL     OW 2488   6.794   4.870  14.019
66905SOL    HW1 2489   6.829   4.845  13.934
66905SOL    HW2 2490   6.760   4.788  14.055
66906SOL     OW 2491   1.034   3.332   5.201
66906SOL    HW1 2492   0.997   3.274   5.268
66906SOL    HW2 2493   1.054   3.413   5.249
66907SOL     OW 2494   3.877   7.600  11.965
66907SOL    HW1 2495   3.945   7.543  11.928
66907SOL    HW2 2496   3.912   7.688  11.955
66908SOL     OW 2497   5.173   6.486   6.849
66908SOL    HW1 2498   5.138   6.415   6.795
66908SOL    HW2 2499   5.246   6.520   6.797
66909SOL     OW 2500  11.680  14.070   4.538
66909SOL    HW1 2501  11.669  13.977   4.519
66909SOL    HW2 2502  11.595  14.099   4.571
66910SOL     OW 2503   8.643   1.658   8.952
66910SOL    HW1 2504   8.590   1.637   9.029
66910SOL    HW2 2505   8.727   1.615   8.968
66911SOL     OW 2506   3.932   2.605   2.169
66911SOL    HW1 2507   4.023   2.604   2.198
66911SOL    HW2 2508   3.884   2.645   2.241
66912SOL     OW 2509  12.760   4.905  13.134
66912SOL    HW1 2510  12.833   4.875  13.079
66912SOL    HW2 2511  12.761   4.845  13.209
66913SOL     OW 2512   6.554   3.179   7.175
66913SOL    HW1 2513   6.570   3.102   7.120
66913SOL    HW2 2514   6.640   3.203   7.208
66914SOL     OW 2515   8.748   8.041   5.564
66914SOL    HW1 2516   8.670   8.074   5.519
66914SOL    HW2 2517   8.747   8.086   5.648
66915SOL     OW 2518  13.923  12.993   6.211
66915SOL    HW1 2519  13.865  13.069   6.202
66915SOL    HW2 2520  14.001  13.018   6.162
66916SOL     OW 2521  11.453   3.349   2.894
66916SOL    HW1 2522  11.506   3.389   2.825
66916SOL    HW2 2523  11.364   3.350   2.859
66917SOL     OW 2524   3.225   9.323  13.367
66917SOL    HW1 2525   3.284   9.371  13.310
66917SOL    HW2 2526   3.138   9.356  13.345
66918SOL     OW 2527   4.967   0.432  10.463
66918SOL    HW1 2528   4.901   0.388  10.411
66918SOL    HW2 2529   5.050   0.406  10.424
66919SOL     OW 2530  14.423  14.075  13.203
66919SOL    HW1 2531  14.328  14.070  13.210
66919SOL    HW2 2532  14.456  14.010  13.264
66920SOL     OW 2533   4.604   1.800   6.775
66920SOL    HW1 2534   4.640   1.717   6.746
66920SOL    HW2 2535   4.653   1.866   6.726
66921SOL     OW 2536   2.493  14.252   5.187
66921SOL    HW1 2537   2.548  14.321   5.224
66921SOL    HW2 2538   2.548  14.174   5.188
66922SOL     OW 2539   1.006  10.864  13.464
66922SOL    HW1 2540   1.090  10.909  13.453
66922SOL    HW2 2541   1.018  10.811  13.543
66923SOL     OW 2542  10.461   4.828   7.341
66923SOL    HW1 2543  10.494   4.819   7.430
66923SOL    HW2 2544  10.498   4.910   7.310
66924SOL     OW 2545  13.561  13.115   1.989
66924SOL    HW1 2546  13.594  13.062   1.916
66924SOL    HW2 2547  13.599  13.202   1.974
66925SOL     OW 2548  11.682  11.075   2.579
66925SOL    HW1 2549  11.677  11.004   2.642
66925SOL    HW2 2550  11.598  11.120   2.586
66926SOL     OW 2551  10.796   4.738   9.503
66926SOL    HW1 2552  10.847   4.747   9.583
66926SOL    HW2 2553  10.711   4.776   9.525
66927SOL     OW 2554   9.115   5.042  12.047
66927SOL    HW1 2555   9.187   5.011  12.103
66927SOL    HW2 2556   9.152   5.045  11.959
66928SOL     OW 2557   4.204   9.201   4.532
66928SOL    HW1 2558   4.131   9.252   4.568
66928SOL    HW2 2559   4.277   9.264   4.528
66929SOL     OW 2560  10.013   4.833   4.905
66929SOL    HW1 2561   9.990   4.925   4.891
66929SOL    HW2 2562  10.100   4.836   4.945
66930SOL     OW 2563   3.559   6.039   5.769
66930SOL    HW1 2564   3.586   6.079   5.851
66930SOL    HW2 2565   3.639   6.030   5.718
66931SOL     OW 2566  13.322   7.071  10.200
66931SOL    HW1 2567  13.321   7.076  10.104
66931SOL    HW2 2568  13.270   7.147  10.228
66932SOL     OW 2569   8.299   5.992   8.129
66932SOL    HW1 2570   8.312   5.908   8.087
66932SOL    HW2 2571   8.351   5.987   8.209
66933SOL     OW 2572   4.842   1.631   6.411
66933SOL    HW1 2573   4.926   1.595   6.441
66933SOL    HW2 2574   4.822   1.582   6.332
66934SOL     OW 2575  11.758   7.319   1.329
66934SOL    HW1 2576  11.811   7.329   1.408
66934SOL    HW2 2577  11.675   7.361   1.349
66935SOL     OW 2578  11.808   5.407  11.719
66935SOL    HW1 2579  11.836   5.428  11.630
66935SOL    HW2 2580  11.888   5.416  11.772
66936SOL     OW 2581   8.698   7.481  13.174
66936SOL    HW1 2582   8.701   7.458  13.081
66936SOL    HW2 2583   8.784   7.456  13.208
66937SOL     OW 2584  11.026   1.953  10.889
66937SOL    HW1 2585  10.993   1.983  10.804
66937SOL    HW2 2586  10.986   2.013  10.952
66938SOL     OW 2587  12.700  10.223  14.014
66938SOL    HW1 2588  12.724  10.197  13.925
66938SOL    HW2 2589  12.783  10.230  14.061
66939SOL     OW 2590   7.166   1.409   9.932
66939SOL    HW1 2591   7.115   1.462   9.993
66939SOL    HW2 2592   7.179   1.466   9.856
66940SOL     OW 2593  12.129   3.618   3.888
66940SOL    HW1 2594  12.128   3.567   3.969
66940SOL    HW2 2595  12.215   3.660   3.887
66941SOL     OW 2596   8.436   3.315  14.556
66941SOL    HW1 2597   8.504   3.298  14.490
66941SOL    HW2 2598   8.366   3.359  14.509
66942SOL     OW 2599   5.489   2.514   0.629
66942SOL    HW1 2600   5.448   2.507   0.716
66942SOL    HW2 2601   5.557   2.447   0.630
66943SOL     OW 2602  14.277  13.287   8.272
66943SOL    HW1 2603  14.273  13.238   8.354
66943SOL    HW2 2604  14.188  13.321   8.260
66944SOL     OW 2605   1.064   9.562   6.599
66944SOL    HW1 2606   1.030   9.580   6.687
66944SOL    HW2 2607   1.054   9.644   6.552
66945SOL     OW 2608  10.100   9.911  11.627
66945SOL    HW1 2609  10.033   9.868  11.573
66945SOL    HW2 2610  10.140   9.840  11.677
66946SOL     OW 2611   9.604   2.036   1.516
66946SOL    HW1 2612   9.698   2.051   1.514
66946SOL    HW2 2613   9.566   2.115   1.477
66947SOL     OW 2614   0.528   0.762  10.384
66947SOL    HW1 2615   0.622   0.774  10.397
66947SOL    HW2 2616   0.505   0.690  10.442
66948SOL     OW 2617   4.145  12.154  10.240
66948SOL    HW1 2618   4.136  12.249  10.252
66948SOL    HW2 2619   4.100  12.137  10.157
66949SOL     OW 2620   8.016   8.321  12.641
66949SOL    HW1 2621   7.991   8.255  12.706
66949SOL    HW2 2622   8.087   8.280  12.591
66950SOL     OW 2623   2.493  12.839  14.877
66950SOL    HW1 2624   2.577  12.804  14.846
66950SOL    HW2 2625   2.499  12.833   0.091
66951SOL     OW 2626  10.804  11.577  10.382
66951SOL    HW1 2627  10.875  11.539  10.434
66951SOL    HW2 2628  10.760  11.638  10.442
66952SOL     OW 2629   6.959  11.062  10.521
66952SOL    HW1 2630   6.952  11.103  10.435
66952SOL    HW2 2631   6.906  10.982  10.514
66953SOL     OW 2632  10.163   7.128   3.441
66953SOL    HW1 2633  10.117   7.198   3.488
66953SOL    HW2 2634  10.255   7.139   3.466
66954SOL     OW 2635   5.052  12.232   8.986
66954SOL    HW1 2636   4.980  12.294   8.974
66954SOL    HW2 2637   5.020  12.169   9.050
66955SOL     OW 2638   2.742   4.651   8.543
66955SOL    HW1 2639   2.707   4.663   8.631
66955SOL    HW2 2640   2.719   4.730   8.496
66956SOL     OW 2641  12.964   9.156   4.588
66956SOL    HW1 2642  12.989   9.071   4.552
66956SOL    HW2 2643  12.877   9.141   4.625
66957SOL     OW 2644   9.356   4.271   1.804
66957SOL    HW1 2645   9.269   4.310   1.798
66957SOL    HW2 2646   9.362   4.239   1.895
66958SOL     OW 2647  11.750   2.958  13.921
66958SOL    HW1 2648  11.816   3.010  13.875
66958SOL    HW2 2649  11.672   2.963  13.866
66959SOL     OW 2650   8.150   1.034   5.141
66959SOL    HW1 2651   8.186   1.120   5.163
66959SOL    HW2 2652   8.133   1.039   5.047
66960SOL     OW 2653   2.584   5.175   5.038
66960SOL    HW1 2654   2.676   5.176   5.010
66960SOL    HW2 2655   2.574   5.092   5.084
66961SOL     OW 2656  13.490  14.769  13.945
66961SOL    HW1 2657  13.412  14.762  13.890
66961SOL    HW2 2658  13.539  14.843  13.909
66962SOL     OW 2659  10.104   6.669   0.003
66962SOL    HW1 2660  10.144   6.751  14.857
66962SOL    HW2 2661  10.019   6.667  14.840
66963SOL     OW 2662   6.804   0.904   2.689
66963SOL    HW1 2663   6.753   0.913   2.769
66963SOL    HW2 2664   6.766   0.967   2.629
66964SOL     OW 2665   2.881   5.714  14.792
66964SOL    HW1 2666   2.889   5.795  14.742
66964SOL    HW2 2667   2.889   5.741   0.002
66965SOL     OW 2668   1.884   6.954   5.339
66965SOL    HW1 2669   1.953   6.982   5.399
66965SOL    HW2 2670   1.824   6.902   5.393
66966SOL     OW 2671   9.530   5.495  12.532
66966SOL    HW1 2672   9.565   5.433  12.469
66966SOL    HW2 2673   9.451   5.531  12.490
66967SOL     OW 2674   2.425  12.575  13.370
66967SOL    HW1 2675   2.403  12.668  13.373
66967SOL    HW2 2676   2.403  12.548  13.281
66968SOL     OW 2677   5.082   8.846  13.315
66968SOL    HW1 2678   5.091   8.839  13.220
66968SOL    HW2 2679   5.082   8.940  13.333
66969SOL     OW 2680  14.300  13.559   4.966
66969SOL    HW1 2681  14.391  13.553   4.936
66969SOL    HW2 2682  14.272  13.647   4.940
66970SOL     OW 2683   0.173   6.733   7.672
66970SOL    HW1 2684   0.117   6.810   7.667
66970SOL    HW2 2685   0.148   6.680   7.596
66971SOL     OW 2686  13.539   8.103  10.500
66971SOL    HW1 2687  13.489   8.090  10.419
66971SOL    HW2 2688  13.586   8.185  10.486
66972SOL     OW 2689   8.703   0.581   2.633
66972SOL    HW1 2690   8.618   0.600   2.595
66972SOL    HW2 2691   8.765   0.635   2.584
66973SOL     OW 2692   9.893  13.758  11.713
66973SOL    HW1 2693   9.945  13.697  11.765
66973SOL    HW2 2694   9.850  13.814  11.778
66974SOL     OW 2695   4.503   6.312  13.747
66974SOL    HW1 2696   4.547   6.392  13.718
66974SOL    HW2 2697   4.566   6.269  13.804
66975SOL     OW 2698  14.027   7.841   9.159
66975SOL    HW1 2699  14.016   7.752   9.191
66975SOL    HW2 2700  14.070   7.831   9.074
66976SOL     OW 2701  12.378   8.622   5.970
66976SOL    HW1 2702  12.395   8.529   5.953
66976SOL    HW2 2703  12.465   8.660   5.984
66977SOL     OW 2704   6.963   9.592   6.194
66977SOL    HW1 2705   6.898   9.656   6.222
66977SOL    HW2 2706   7.028   9.643   6.146
66978SOL     OW 2707   3.248   5.813   1.284
66978SOL    HW1 2708   3.327   5.868   1.274
66978SOL    HW2 2709   3.245   5.762   1.204
66979SOL     OW 2710  13.513   5.543   8.950
66979SOL    HW1 2711  13.482   5.455   8.972
66979SOL    HW2 2712  13.508   5.546   8.854
66980SOL     OW 2713   7.929   4.499   2.504
66980SOL    HW1 2714   8.016   4.519   2.469
66980SOL    HW2 2715   7.941   4.500   2.599
66981SOL     OW 2716   7.855   9.217  11.633
66981SOL    HW1 2717   7.781   9.179  11.587
66981SOL    HW2 2718   7.911   9.142  11.654
66982SOL     OW 2719   8.879   7.059   6.295
66982SOL    HW1 2720   8.966   7.071   6.333
66982SOL    HW2 2721   8.820   7.056   6.370
66983SOL     OW 2722   5.625   5.542   3.436
66983SOL    HW1 2723   5.563   5.574   3.371
66983SOL    HW2 2724   5.710   5.574   3.406
66984SOL     OW 2725   7.112   7.294   0.968
66984SOL    HW1 2726   7.072   7.228   0.912
66984SOL    HW2 2727   7.162   7.349   0.908
66985SOL     OW 2728   3.435  12.767   5.865
66985SOL    HW1 2729   3.502  12.702   5.888
66985SOL    HW2 2730   3.377  12.721   5.805
66986SOL     OW 2731   5.106  14.011   9.692
66986SOL    HW1 2732   5.069  14.035   9.777
66986SOL    HW2 2733   5.170  13.942   9.713
66987SOL     OW 2734   2.227  11.657  14.813
66987SOL    HW1 2735   2.164  11.728  14.826
66987SOL    HW2 2736   2.179  11.591  14.764
66988SOL     OW 2737   4.626   0.059   0.237
66988SOL    HW1 2738   4.721   0.057   0.223
66988SOL    HW2 2739   4.593  14.868   0.184
66989SOL     OW 2740  11.386   6.849  10.796
66989SOL    HW1 2741  11.474   6.817  10.815
66989SOL    HW2 2742  11.398   6.909  10.723
66990SOL     OW 2743   8.505   8.022   8.014
66990SOL    HW1 2744   8.473   8.039   7.925
66990SOL    HW2 2745   8.441   8.065   8.071
66991SOL     OW 2746  12.449  11.922   4.507
66991SOL    HW1 2747  12.376  11.954   4.454
66991SOL    HW2 2748  12.445  11.827   4.499
66992SOL     OW 2749   1.258   1.909   3.894
66992SOL    HW1 2750   1.209   1.845   3.843
66992SOL    HW2 2751   1.207   1.921   3.974
66993SOL     OW 2752   7.204   9.631   1.293
66993SOL    HW1 2753   7.266   9.650   1.363
66993SOL    HW2 2754   7.126   9.681   1.316
66994SOL     OW 2755   3.183   5.070   3.631
66994SOL    HW1 2756   3.223   5.039   3.712
66994SOL    HW2 2757   3.175   5.165   3.643
66995SOL     OW 2758   2.801   3.852  13.805
66995SOL    HW1 2759   2.743   3.809  13.867
66995SOL    HW2 2760   2.888   3.821  13.828
66996SOL     OW 2761   9.157   6.625   3.140
66996SOL    HW1 2762   9.239   6.658   3.176
66996SOL    HW2 2763   9.162   6.648   3.047
66997SOL     OW 2764   7.264   6.105   7.089
66997SOL    HW1 2765   7.193   6.070   7.144
66997SOL    HW2 2766   7.219   6.149   7.017
66998SOL     OW 2767   1.963   2.517   7.231
66998SOL    HW1 2768   1.966   2.601   7.185
66998SOL    HW2 2769   1.913   2.460   7.173
66999SOL     OW 2770   4.510  11.587   3.579
66999SOL    HW1 2771   4.414  11.585   3.573
66999SOL    HW2 2772   4.529  11.562   3.670
67000SOL     OW 2773   8.701   0.507   3.170
67000SOL    HW1 2774   8.761   0.493   3.243
67000SOL    HW2 2775   8.694   0.602   3.163
67001SOL     OW 2776  10.296  13.206  12.079
67001SOL    HW1 2777  10.381  13.246  12.059
67001SOL    HW2 2778  10.289  13.212  12.174
67002SOL     OW 2779   3.322  14.877   3.851
67002SOL    HW1 2780   3.367   0.053   3.912
67002SOL    HW2 2781   3.350  14.788   3.876
67003SOL     OW 2782   6.129   0.463   6.053
67003SOL    HW1 2783   6.156   0.372   6.047
67003SOL    HW2 2784   6.150   0.500   5.968
67004SOL     OW 2785   7.269   1.219   3.010
67004SOL    HW1 2786   7.239   1.282   3.075
67004SOL    HW2 2787   7.245   1.134   3.046
67005SOL     OW 2788  10.212   0.546   3.870
67005SOL    HW1 2789  10.221   0.567   3.963
67005SOL    HW2 2790  10.161   0.466   3.868
67006SOL     OW 2791   9.448  10.735   7.642
67006SOL    HW1 2792   9.411  10.652   7.672
67006SOL    HW2 2793   9.474  10.780   7.723
67007SOL     OW 2794   4.970   1.911   2.677
67007SOL    HW1 2795   5.010   1.974   2.737
67007SOL    HW2 2796   4.993   1.826   2.714
67008SOL     OW 2797   7.544  13.409  10.797
67008SOL    HW1 2798   7.456  13.439  10.776
67008SOL    HW2 2799   7.566  13.454  10.878
67009SOL     OW 2800   2.718  10.899   9.590
67009SOL    HW1 2801   2.718  10.920   9.683
67009SOL    HW2 2802   2.636  10.852   9.576
67010SOL     OW 2803   1.453   5.193  11.166
67010SOL    HW1 2804   1.517   5.204  11.096
67010SOL    HW2 2805   1.408   5.112  11.146
67011SOL     OW 2806  12.753   5.195   1.804
67011SOL    HW1 2807  12.766   5.197   1.710
67011SOL    HW2 2808  12.763   5.286   1.832
67012SOL     OW 2809   2.996   1.769  12.188
67012SOL    HW1 2810   2.945   1.719  12.124
67012SOL    HW2 2811   3.005   1.856  12.148
67013SOL     OW 2812  11.523   8.320  14.623
67013SOL    HW1 2813  11.493   8.357  14.539
67013SOL    HW2 2814  11.574   8.243  14.598
67014SOL     OW 2815  13.345  14.289   9.880
67014SOL    HW1 2816  13.304  14.220   9.829
67014SOL    HW2 2817  13.351  14.364   9.821
67015SOL     OW 2818   9.535  13.823   0.399
67015SOL    HW1 2819   9.499  13.842   0.486
67015SOL    HW2 2820   9.483  13.750   0.367
67016SOL     OW 2821  13.033   2.973  11.136
67016SOL    HW1 2822  13.121   2.952  11.106
67016SOL    HW2 2823  13.013   3.058  11.097
67017SOL     OW 2824   3.588   5.419  13.888
67017SOL    HW1 2825   3.583   5.514  13.879
67017SOL    HW2 2826   3.639   5.406  13.968
67018SOL     OW 2827   6.964   8.262   4.377
67018SOL    HW1 2828   6.997   8.334   4.430
67018SOL    HW2 2829   7.034   8.243   4.315
67019SOL     OW 2830   6.811   5.665   9.566
67019SOL    HW1 2831   6.903   5.651   9.587
67019SOL    HW2 2832   6.789   5.748   9.610
67020SOL     OW 2833  10.696   2.452   5.952
67020SOL    HW1 2834  10.660   2.425   5.868
67020SOL    HW2 2835  10.681   2.378   6.010
67021SOL     OW 2836   5.336   7.909   0.979
67021SOL    HW1 2837   5.259   7.854   0.965
67021SOL    HW2 2838   5.337   7.968   0.903
67022SOL     OW 2839  10.812   3.507  14.868
67022SOL    HW1 2840  10.834   3.478   0.075
67022SOL    HW2 2841  10.757   3.585   0.001
67023SOL     OW 2842   4.204   0.367   9.575
67023SOL    HW1 2843   4.223   0.447   9.623
67023SOL    HW2 2844   4.146   0.396   9.504
67024SOL     OW 2845   4.778  13.788   6.318
67024SOL    HW1 2846   4.800  13.712   6.372
67024SOL    HW2 2847   4.690  13.813   6.347
67025SOL     OW 2848   1.079  11.626  10.203
67025SOL    HW1 2849   1.081  11.535  10.174
67025SOL    HW2 2850   1.090  11.678  10.123
67026SOL     OW 2851   4.333   0.079  13.457
67026SOL    HW1 2852   4.306   0.151  13.515
67026SOL    HW2 2853   4.275   0.007  13.481
67027SOL     OW 2854   3.975   3.411   1.314
67027SOL    HW1 2855   4.001   3.342   1.374
67027SOL    HW2 2856   3.883   3.392   1.294
67028SOL     OW 2857   7.055   7.458   3.989
67028SOL    HW1 2858   6.979   7.403   3.972
67028SOL    HW2 2859   7.025   7.522   4.053
67029SOL     OW 2860  12.869  14.523   8.697
67029SOL    HW1 2861  12.950  14.475   8.681
67029SOL    HW2 2862  12.890  14.583   8.768
67030SOL     OW 2863   0.788  11.898   9.289
67030SOL    HW1 2864   0.862  11.907   9.350
67030SOL    HW2 2865   0.711  11.899   9.346
67031SOL     OW 2866  11.947   3.322   6.893
67031SOL    HW1 2867  11.944   3.310   6.798
67031SOL    HW2 2868  11.938   3.234   6.929
67032SOL     OW 2869  11.104   3.433  13.825
67032SOL    HW1 2870  11.089   3.423  13.731
67032SOL    HW2 2871  11.115   3.344  13.857
67033SOL     OW 2872  10.243  12.490  11.247
67033SOL    HW1 2873  10.227  12.543  11.169
67033SOL    HW2 2874  10.180  12.418  11.241
67034SOL     OW 2875  13.225  13.722   1.594
67034SOL    HW1 2876  13.241  13.670   1.673
67034SOL    HW2 2877  13.137  13.698   1.566
67035SOL     OW 2878   2.065   4.096   1.048
67035SOL    HW1 2879   2.138   4.119   1.105
67035SOL    HW2 2880   1.993   4.077   1.108
67036SOL     OW 2881   8.081   8.326  10.896
67036SOL    HW1 2882   8.108   8.286  10.978
67036SOL    HW2 2883   8.088   8.420  10.912
67037SOL     OW 2884  10.420   5.734  14.127
67037SOL    HW1 2885  10.363   5.769  14.059
67037SOL    HW2 2886  10.364   5.725  14.204
67038SOL     OW 2887   9.445   8.814   7.023
67038SOL    HW1 2888   9.373   8.875   7.007
67038SOL    HW2 2889   9.485   8.845   7.104
67039SOL     OW 2890  11.656   3.229   2.323
67039SOL    HW1 2891  11.709   3.283   2.382
67039SOL    HW2 2892  11.591   3.290   2.286
67040SOL     OW 2893  11.536   1.311  12.921
67040SOL    HW1 2894  11.626   1.337  12.941
67040SOL    HW2 2895  11.541   1.275  12.833
67041SOL     OW 2896   4.441   1.322  14.100
67041SOL    HW1 2897   4.537   1.314  14.104
67041SOL    HW2 2898   4.420   1.304  14.008
67042SOL     OW 2899   6.198  10.161  13.148
67042SOL    HW1 2900   6.260  10.091  13.172
67042SOL    HW2 2901   6.196  10.159  13.052
67043SOL     OW 2902   9.370   7.452   8.179
67043SOL    HW1 2903   9.393   7.390   8.110
67043SOL    HW2 2904   9.274   7.456   8.176
67044SOL     OW 2905  10.042  11.486   3.719
67044SOL    HW1 2906  10.056  11.428   3.794
67044SOL    HW2 2907   9.953  11.466   3.690
67045SOL     OW 2908  14.776   6.694   4.021
67045SOL    HW1 2909  14.769   6.648   4.105
67045SOL    HW2 2910  14.848   6.651   3.975
67046SOL     OW 2911   8.958  13.934   9.378
67046SOL    HW1 2912   8.884  13.959   9.433
67046SOL    HW2 2913   8.938  13.845   9.349
67047SOL     OW 2914  10.487  10.643   6.083
67047SOL    HW1 2915  10.473  10.711   6.149
67047SOL    HW2 2916  10.403  10.596   6.079
67048SOL     OW 2917   9.662   4.736  12.239
67048SOL    HW1 2918   9.675   4.763  12.149
67048SOL    HW2 2919   9.662   4.817  12.289
67049SOL     OW 2920   5.827   0.517  12.742
67049SOL    HW1 2921   5.897   0.452  12.745
67049SOL    HW2 2922   5.851   0.580  12.810
67050SOL     OW 2923   8.220   4.274   5.691
67050SOL    HW1 2924   8.271   4.261   5.771
67050SOL    HW2 2925   8.285   4.275   5.621
67051SOL     OW 2926   5.583   5.614  11.861
67051SOL    HW1 2927   5.621   5.696  11.830
67051SOL    HW2 2928   5.632   5.593  11.941
67052SOL     OW 2929  11.627   3.244   3.657
67052SOL    HW1 2930  11.577   3.183   3.603
67052SOL    HW2 2931  11.626   3.326   3.609
67053SOL     OW 2932  13.887   7.395  14.195
67053SOL    HW1 2933  13.882   7.321  14.136
67053SOL    HW2 2934  13.939   7.461  14.148
67054SOL     OW 2935   3.494  11.962  12.391
67054SOL    HW1 2936   3.461  11.907  12.320
67054SOL    HW2 2937   3.560  12.018  12.349
67055SOL     OW 2938   7.627   4.448  14.638
67055SOL    HW1 2939   7.721   4.465  14.627
67055SOL    HW2 2940   7.593   4.441  14.549
67056SOL     OW 2941   6.581   7.876   8.019
67056SOL    HW1 2942   6.588   7.861   7.925
67056SOL    HW2 2943   6.574   7.971   8.028
67057SOL     OW 2944   6.574  14.846   3.105
67057SOL    HW1 2945   6.570   0.006   3.019
67057SOL    HW2 2946   6.660  14.871   3.139
67058SOL     OW 2947   0.417  14.512   0.595
67058SOL    HW1 2948   0.498  14.467   0.571
67058SOL    HW2 2949   0.350  14.469   0.542
67059SOL     OW 2950   8.260   7.295  13.400
67059SOL    HW1 2951   8.326   7.238  13.361
67059SOL    HW2 2952   8.282   7.383  13.368
67060SOL     OW 2953   8.755   3.211   8.780
67060SOL    HW1 2954   8.805   3.286   8.748
67060SOL    HW2 2955   8.821   3.144   8.797
67061SOL     OW 2956  14.270   8.200  13.888
67061SOL    HW1 2957  14.271   8.296  13.893
67061SOL    HW2 2958  14.359   8.176  13.864
67062SOL     OW 2959   6.752   6.478   4.908
67062SOL    HW1 2960   6.777   6.554   4.960
67062SOL    HW2 2961   6.805   6.407   4.944
67063SOL     OW 2962  13.570  12.561  13.379
67063SOL    HW1 2963  13.563  12.467  13.394
67063SOL    HW2 2964  13.555  12.571  13.285
67064SOL     OW 2965   2.734   6.856  12.918
67064SOL    HW1 2966   2.814   6.886  12.875
67064SOL    HW2 2967   2.705   6.781  12.866
67065SOL     OW 2968   5.209   8.419   9.953
67065SOL    HW1 2969   5.114   8.408   9.952
67065SOL    HW2 2970   5.225   8.487  10.018
67066SOL     OW 2971   8.915   1.492  10.481
67066SOL    HW1 2972   8.916   1.549  10.558
67066SOL    HW2 2973   8.953   1.409  10.512
67067SOL     OW 2974   6.184   5.859   7.859
67067SOL    HW1 2975   6.260   5.805   7.881
67067SOL    HW2 2976   6.127   5.802   7.808
67068SOL     OW 2977   1.882   8.108  10.993
67068SOL    HW1 2978   1.968   8.066  10.984
67068SOL    HW2 2979   1.891   8.166  11.069
67069SOL     OW 2980   6.812   9.809   3.518
67069SOL    HW1 2981   6.841   9.720   3.498
67069SOL    HW2 2982   6.721   9.800   3.545
67070SOL     OW 2983   2.079   8.038  13.012
67070SOL    HW1 2984   2.146   8.067  12.951
67070SOL    HW2 2985   2.093   8.091  13.091
67071SOL     OW 2986  11.110   0.967   7.537
67071SOL    HW1 2987  11.114   0.992   7.445
67071SOL    HW2 2988  11.017   0.958   7.555
67072SOL     OW 2989  12.665   4.276   6.253
67072SOL    HW1 2990  12.580   4.235   6.240
67072SOL    HW2 2991  12.645   4.367   6.275
67073SOL     OW 2992   5.515  13.934  12.760
67073SOL    HW1 2993   5.602  13.896  12.770
67073SOL    HW2 2994   5.525  14.024  12.792
67074SOL     OW 2995   1.137  10.386   5.473
67074SOL    HW1 2996   1.228  10.363   5.495
67074SOL    HW2 2997   1.125  10.474   5.509
67075SOL     OW 2998   5.205   9.552   6.196
67075SOL    HW1 2999   5.268   9.573   6.127
67075SOL    HW2 3000   5.217   9.620   6.262
67076SOL     OW 3001   4.111   3.022   5.924
67076SOL    HW1 3002   4.158   2.971   5.990
67076SOL    HW2 3003   4.031   2.972   5.908
67077SOL     OW 3004   7.131   5.803   8.542
67077SOL    HW1 3005   7.049   5.756   8.525
67077SOL    HW2 3006   7.180   5.745   8.600
67078SOL     OW 3007   8.755  11.717   7.815
67078SOL    HW1 3008   8.679  11.665   7.842
67078SOL    HW2 3009   8.734  11.746   7.727
67079SOL     OW 3010   6.186   7.227   2.850
67079SOL    HW1 3011   6.216   7.169   2.920
67079SOL    HW2 3012   6.191   7.174   2.770
67080SOL     OW 3013   3.990  14.868  10.025
67080SOL    HW1 3014   4.049   0.038  10.080
67080SOL    HW2 3015   4.038  14.787  10.009
67081SOL     OW 3016   8.395   0.168  11.028
67081SOL    HW1 3017   8.324   0.165  11.093
67081SOL    HW2 3018   8.353   0.201  10.949
67082SOL     OW 3019   3.556  11.161   6.919
67082SOL    HW1 3020   3.461  11.161   6.927
67082SOL    HW2 3021   3.572  11.156   6.824
67083SOL     OW 3022   1.968   8.820   2.745
67083SOL    HW1 3023   2.015   8.827   2.828
67083SOL    HW2 3024   2.009   8.746   2.700
67084SOL     OW 3025   0.645   3.738   1.135
67084SOL    HW1 3026   0.564   3.781   1.162
67084SOL    HW2 3027   0.619   3.680   1.064
67085SOL     OW 3028   6.208   0.519   0.268
67085SOL    HW1 3029   6.291   0.531   0.221
67085SOL    HW2 3030   6.194   0.603   0.312
67086SOL     OW 3031  10.924   5.217   7.587
67086SOL    HW1 3032  10.950   5.258   7.505
67086SOL    HW2 3033  10.859   5.276   7.624
67087SOL     OW 3034  12.261   5.374  10.234
67087SOL    HW1 3035  12.193   5.442  10.233
67087SOL    HW2 3036  12.340   5.419  10.206
67088SOL     OW 3037  14.399   5.193  12.047
67088SOL    HW1 3038  14.378   5.201  12.140
67088SOL    HW2 3039  14.335   5.130  12.013
67089SOL     OW 3040   0.548  14.086   8.062
67089SOL    HW1 3041   0.632  14.042   8.073
67089SOL    HW2 3042   0.570  14.178   8.049
67090SOL     OW 3043   1.865   4.213  11.172
67090SOL    HW1 3044   1.930   4.213  11.102
67090SOL    HW2 3045   1.913   4.185  11.250
67091SOL     OW 3046  13.847   9.110   4.647
67091SOL    HW1 3047  13.929   9.074   4.615
67091SOL    HW2 3048  13.860   9.120   4.742
67092SOL     OW 3049   5.890   3.548   7.847
67092SOL    HW1 3050   5.930   3.506   7.923
67092SOL    HW2 3051   5.916   3.494   7.773
67093SOL     OW 3052  11.415   8.911  11.460
67093SOL    HW1 3053  11.505   8.926  11.491
67093SOL    HW2 3054  11.362   8.975  11.506
67094SOL     OW 3055   5.898  12.272   7.846
67094SOL    HW1 3056   5.895  12.188   7.893
67094SOL    HW2 3057   5.812  12.278   7.804
67095SOL     OW 3058   2.408  11.468   3.562
67095SOL    HW1 3059   2.426  11.419   3.482
67095SOL    HW2 3060   2.365  11.405   3.620
67096SOL     OW 3061   0.839   8.027   7.320
67096SOL    HW1 3062   0.777   8.095   7.294
67096SOL    HW2 3063   0.879   7.999   7.238
67097SOL     OW 3064   3.536   1.471   3.194
67097SOL    HW1 3065   3.554   1.506   3.107
67097SOL    HW2 3066   3.622   1.468   3.237
67098SOL     OW 3067   6.534   8.573   0.650
67098SOL    HW1 3068   6.455   8.597   0.602
67098SOL    HW2 3069   6.579   8.510   0.594
67099SOL     OW 3070   9.207   0.647  13.771
67099SOL    HW1 3071   9.193   0.645  13.866
67099SOL    HW2 3072   9.279   0.586  13.756
67100SOL     OW 3073   0.692   6.077   4.717
67100SOL    HW1 3074   0.731   6.011   4.659
67100SOL    HW2 3075   0.748   6.076   4.794
67101SOL     OW 3076   3.042   0.031   2.016
67101SOL    HW1 3077   3.100   0.088   2.066
67101SOL    HW2 3078   2.954   0.052   2.049
67102SOL     OW 3079   3.725  12.110  14.115
67102SOL    HW1 3080   3.745  12.018  14.100
67102SOL    HW2 3081   3.686  12.113  14.202
67103SOL     OW 3082   0.537  11.874  13.756
67103SOL    HW1 3083   0.530  11.834  13.843
67103SOL    HW2 3084   0.622  11.918  13.756
67104SOL     OW 3085   1.023   3.125   3.089
67104SOL    HW1 3086   1.105   3.136   3.041
67104SOL    HW2 3087   0.962   3.185   3.048
67105SOL     OW 3088  10.287   2.646  10.802
67105SOL    HW1 3089  10.279   2.735  10.838
67105SOL    HW2 3090  10.259   2.654  10.711
67106SOL     OW 3091   6.859  11.169   7.845
67106SOL    HW1 3092   6.841  11.242   7.904
67106SOL    HW2 3093   6.942  11.192   7.804
67107SOL     OW 3094  11.713   4.576   8.212
67107SOL    HW1 3095  11.724   4.571   8.307
67107SOL    HW2 3096  11.619   4.585   8.200
67108SOL     OW 3097   7.782  10.434   6.267
67108SOL    HW1 3098   7.782  10.443   6.362
67108SOL    HW2 3099   7.801  10.522   6.235
67109SOL     OW 3100  11.069   7.162   5.683
67109SOL    HW1 3101  11.140   7.224   5.664
67109SOL    HW2 3102  11.104   7.077   5.656
67110SOL     OW 3103   5.671   9.295   8.801
67110SOL    HW1 3104   5.703   9.327   8.716
67110SOL    HW2 3105   5.749   9.263   8.845
67111SOL     OW 3106   9.627  10.046  11.425
67111SOL    HW1 3107   9.608   9.971  11.482
67111SOL    HW2 3108   9.600  10.122  11.476
67112SOL     OW 3109  10.041   0.448   6.246
67112SOL    HW1 3110   9.976   0.388   6.284
67112SOL    HW2 3111  10.106   0.460   6.316
67113SOL     OW 3112   3.938   6.283   0.511
67113SOL    HW1 3113   4.029   6.256   0.502
67113SOL    HW2 3114   3.920   6.276   0.605
67114SOL     OW 3115   2.415   0.793   7.458
67114SOL    HW1 3116   2.412   0.720   7.397
67114SOL    HW2 3117   2.383   0.868   7.407
67115SOL     OW 3118  14.453   6.651   2.278
67115SOL    HW1 3119  14.441   6.589   2.349
67115SOL    HW2 3120  14.520   6.611   2.222
67116SOL     OW 3121  13.077  13.104   6.919
67116SOL    HW1 3122  13.172  13.112   6.931
67116SOL    HW2 3123  13.046  13.194   6.917
67117SOL     OW 3124   6.699   2.175   8.104
67117SOL    HW1 3125   6.693   2.154   8.197
67117SOL    HW2 3126   6.664   2.097   8.060
67118SOL     OW 3127   3.721   2.438   7.772
67118SOL    HW1 3128   3.632   2.470   7.781
67118SOL    HW2 3129   3.773   2.495   7.828
67119SOL     OW 3130   2.070  13.108   0.228
67119SOL    HW1 3131   2.033  13.126   0.315
67119SOL    HW2 3132   2.024  13.029   0.199
67120SOL     OW 3133   5.557  14.129   3.516
67120SOL    HW1 3134   5.469  14.159   3.496
67120SOL    HW2 3135   5.566  14.046   3.469
67121SOL     OW 3136   3.481   1.067  13.933
67121SOL    HW1 3137   3.550   1.130  13.948
67121SOL    HW2 3138   3.412   1.116  13.889
67122SOL     OW 3139   5.052  11.835   3.444
67122SOL    HW1 3140   5.045  11.875   3.357
67122SOL    HW2 3141   5.133  11.785   3.441
67123SOL     OW 3142   7.351   2.673   3.187
67123SOL    HW1 3143   7.365   2.599   3.128
67123SOL    HW2 3144   7.256   2.675   3.201
67124SOL     OW 3145   2.003   2.197   4.592
67124SOL    HW1 3146   1.948   2.263   4.634
67124SOL    HW2 3147   2.091   2.234   4.595
67125SOL     OW 3148   6.770   9.487  14.097
67125SOL    HW1 3149   6.828   9.422  14.137
67125SOL    HW2 3150   6.776   9.471  14.003
67126SOL     OW 3151   8.914   0.729   8.065
67126SOL    HW1 3152   8.958   0.716   8.148
67126SOL    HW2 3153   8.954   0.807   8.028
67127SOL     OW 3154   9.433   3.443   5.100
67127SOL    HW1 3155   9.432   3.448   5.195
67127SOL    HW2 3156   9.438   3.535   5.071
67128SOL     OW 3157  11.757  10.160  13.760
67128SOL    HW1 3158  11.852  10.153  13.756
67128SOL    HW2 3159  11.725  10.101  13.692
67129SOL     OW 3160   7.206  13.593   9.823
67129SOL    HW1 3161   7.134  13.558   9.875
67129SOL    HW2 3162   7.174  13.590   9.733
67130SOL     OW 3163   4.581  12.843   3.382
67130SOL    HW1 3164   4.623  12.772   3.429
67130SOL    HW2 3165   4.577  12.915   3.446
67131SOL     OW 3166  14.654   0.264   3.232
67131SOL    HW1 3167  14.605   0.218   3.164
67131SOL    HW2 3168  14.653   0.355   3.204
67132SOL     OW 3169   3.178   0.734   9.928
67132SOL    HW1 3170   3.095   0.741   9.974
67132SOL    HW2 3171   3.153   0.730   9.835
67133SOL     OW 3172   3.011   1.151   6.896
67133SOL    HW1 3173   3.014   1.056   6.881
67133SOL    HW2 3174   3.102   1.175   6.911
67134SOL     OW 3175  12.247   0.380   3.528
67134SOL    HW1 3176  12.169   0.418   3.568
67134SOL    HW2 3177  12.284   0.325   3.596
67135SOL     OW 3178  13.948   5.547   3.953
67135SOL    HW1 3179  13.990   5.461   3.963
67135SOL    HW2 3180  13.872   5.543   4.010
67136SOL     OW 3181  14.110   0.863   0.755
67136SOL    HW1 3182  14.036   0.923   0.761
67136SOL    HW2 3183  14.114   0.820   0.840
67137SOL     OW 3184   2.786   2.431  11.663
67137SOL    HW1 3185   2.705   2.475  11.638
67137SOL    HW2 3186   2.852   2.467  11.604
67138SOL     OW 3187   1.265   8.236   3.749
67138SOL    HW1 3188   1.268   8.276   3.836
67138SOL    HW2 3189   1.271   8.142   3.765
67139SOL     OW 3190  11.169   5.661  14.804
67139SOL    HW1 3191  11.194   5.582  14.852
67139SOL    HW2 3192  11.074   5.666  14.814
67140SOL     OW 3193  12.645  13.293   6.622
67140SOL    HW1 3194  12.684  13.241   6.552
67140SOL    HW2 3195  12.625  13.377   6.581
67141SOL     OW 3196   1.966   1.147  11.002
67141SOL    HW1 3197   2.056   1.149  11.033
67141SOL    HW2 3198   1.973   1.164  10.908
67142SOL     OW 3199   1.317   3.110  14.294
67142SOL    HW1 3200   1.395   3.149  14.334
67142SOL    HW2 3201   1.343   3.093  14.204
67143SOL     OW 3202   0.081   2.503   0.879
67143SOL    HW1 3203   0.102   2.558   0.954
67143SOL    HW2 3204   0.054   2.420   0.918
67144SOL     OW 3205   2.228  10.268   3.994
67144SOL    HW1 3206   2.193  10.242   4.078
67144SOL    HW2 3207   2.155  10.310   3.949
67145SOL     OW 3208   4.612   5.174   6.506
67145SOL    HW1 3209   4.699   5.192   6.471
67145SOL    HW2 3210   4.551   5.207   6.440
67146SOL     OW 3211  12.915  12.726  11.697
67146SOL    HW1 3212  12.844  12.755  11.639
67146SOL    HW2 3213  12.891  12.761  11.783
67147SOL     OW 3214   9.570  10.356   1.228
67147SOL    HW1 3215   9.655  10.332   1.263
67147SOL    HW2 3216   9.530  10.274   1.201
67148SOL     OW 3217  12.592   4.085   3.617
67148SOL    HW1 3218  12.641   4.167   3.603
67148SOL    HW2 3219  12.544   4.099   3.698
67149SOL     OW 3220  13.199   2.143   2.957
67149SOL    HW1 3221  13.249   2.071   2.918
67149SOL    HW2 3222  13.193   2.120   3.049
67150SOL     OW 3223  13.226  14.699   1.032
67150SOL    HW1 3224  13.204  14.619   1.080
67150SOL    HW2 3225  13.297  14.673   0.974
67151SOL     OW 3226   4.981   6.858   2.038
67151SOL    HW1 3227   5.031   6.939   2.033
67151SOL    HW2 3228   4.963   6.836   1.947
67152SOL     OW 3229  12.192   9.785   7.676
67152SOL    HW1 3230  12.237   9.748   7.600
67152SOL    HW2 3231  12.241   9.752   7.752
67153SOL     OW 3232  10.513   9.718   0.380
67153SOL    HW1 3233  10.593   9.684   0.420
67153SOL    HW2 3234  10.521   9.813   0.388
67154SOL     OW 3235   6.432   6.209   6.576
67154SOL    HW1 3236   6.341   6.234   6.590
67154SOL    HW2 3237   6.483   6.275   6.622
67155SOL     OW 3238   7.583  14.411  11.429
67155SOL    HW1 3239   7.655  14.371  11.381
67155SOL    HW2 3240   7.626  14.467  11.494
67156SOL     OW 3241  14.130   8.168  11.540
67156SOL    HW1 3242  14.111   8.095  11.481
67156SOL    HW2 3243  14.064   8.160  11.609
67157SOL     OW 3244   9.805   4.511   4.123
67157SOL    HW1 3245   9.715   4.497   4.154
67157SOL    HW2 3246   9.805   4.475   4.035
67158SOL     OW 3247   6.866  12.805   9.578
67158SOL    HW1 3248   6.805  12.838   9.644
67158SOL    HW2 3249   6.851  12.710   9.577
67159SOL     OW 3250   7.355  14.363   5.710
67159SOL    HW1 3251   7.322  14.300   5.645
67159SOL    HW2 3252   7.277  14.391   5.757
67160SOL     OW 3253   9.908  14.094  12.860
67160SOL    HW1 3254   9.888  14.007  12.894
67160SOL    HW2 3255  10.001  14.107  12.881
67161SOL     OW 3256   9.960   3.286   1.133
67161SOL    HW1 3257  10.022   3.303   1.062
67161SOL    HW2 3258   9.990   3.341   1.205
67162SOL     OW 3259  10.861   5.098   5.400
67162SOL    HW1 3260  10.872   5.110   5.306
67162SOL    HW2 3261  10.885   5.182   5.438
67163SOL     OW 3262  12.630   3.130   9.290
67163SOL    HW1 3263  12.669   3.105   9.374
67163SOL    HW2 3264  12.597   3.218   9.304
67164SOL     OW 3265   1.504   3.135   0.885
67164SOL    HW1 3266   1.409   3.136   0.870
67164SOL    HW2 3267   1.542   3.137   0.797
67165SOL     OW 3268  10.591   3.739  11.441
67165SOL    HW1 3269  10.621   3.766  11.354
67165SOL    HW2 3270  10.495   3.746  11.437
67166SOL     OW 3271   7.984  10.986  13.533
67166SOL    HW1 3272   8.068  10.944  13.515
67166SOL    HW2 3273   7.944  10.932  13.601
67167SOL     OW 3274   0.478  10.509   7.850
67167SOL    HW1 3275   0.483  10.437   7.787
67167SOL    HW2 3276   0.518  10.583   7.804
67168SOL     OW 3277   9.752  10.902  11.566
67168SOL    HW1 3278   9.736  10.928  11.475
67168SOL    HW2 3279   9.665  10.882  11.601
67169SOL     OW 3280   1.580   0.073   5.463
67169SOL    HW1 3281   1.626   0.137   5.409
67169SOL    HW2 3282   1.504   0.120   5.497
67170SOL     OW 3283  11.307  13.151   0.594
67170SOL    HW1 3284  11.358  13.079   0.631
67170SOL    HW2 3285  11.316  13.222   0.657
67171SOL     OW 3286   2.928   3.082   4.468
67171SOL    HW1 3287   3.022   3.099   4.458
67171SOL    HW2 3288   2.921   2.987   4.475
67172SOL     OW 3289   5.749   0.981   7.431
67172SOL    HW1 3290   5.676   0.950   7.484
67172SOL    HW2 3291   5.716   0.980   7.342
67173SOL     OW 3292  10.542   8.832   5.507
67173SOL    HW1 3293  10.502   8.793   5.429
67173SOL    HW2 3294  10.494   8.914   5.520
67174SOL     OW 3295   3.376   2.413   2.123
67174SOL    HW1 3296   3.445   2.461   2.169
67174SOL    HW2 3297   3.325   2.480   2.079
67175SOL     OW 3298   4.178  10.016   4.802
67175SOL    HW1 3299   4.132   9.951   4.855
67175SOL    HW2 3300   4.257  10.037   4.853
67176SOL     OW 3301   6.891   8.516  10.050
67176SOL    HW1 3302   6.807   8.535  10.093
67176SOL    HW2 3303   6.909   8.595   9.999
67177SOL     OW 3304  12.615   5.277   0.447
67177SOL    HW1 3305  12.583   5.299   0.360
67177SOL    HW2 3306  12.684   5.342   0.464
67178SOL     OW 3307   9.670   9.504  11.533
67178SOL    HW1 3308   9.629   9.569  11.475
67178SOL    HW2 3309   9.685   9.551  11.615
67179SOL     OW 3310  13.885   0.552  10.131
67179SOL    HW1 3311  13.884   0.512  10.043
67179SOL    HW2 3312  13.794   0.573  10.148
67180SOL     OW 3313   9.579   6.726   0.362
67180SOL    HW1 3314   9.586   6.742   0.268
67180SOL    HW2 3315   9.493   6.685   0.373
67181SOL     OW 3316  10.599   3.368   1.387
67181SOL    HW1 3317  10.633   3.454   1.412
67181SOL    HW2 3318  10.557   3.383   1.302
67182SOL     OW 3319  13.483  12.058   2.136
67182SOL    HW1 3320  13.416  12.116   2.100
67182SOL    HW2 3321  13.530  12.024   2.059
67183SOL     OW 3322   8.132  11.137   3.788
67183SOL    HW1 3323   8.041  11.133   3.816
67183SOL    HW2 3324   8.158  11.045   3.778
67184SOL     OW 3325   1.784   9.337  14.694
67184SOL    HW1 3326   1.786   9.241  14.688
67184SOL    HW2 3327   1.691   9.357  14.708
67185SOL     OW 3328  14.040  12.923   6.428
67185SOL    HW1 3329  13.980  12.974   6.373
67185SOL    HW2 3330  14.067  12.850   6.373
67186SOL     OW 3331   0.355   6.094  12.226
67186SOL    HW1 3332   0.407   6.153  12.280
67186SOL    HW2 3333   0.415   6.025  12.199
67187SOL     OW 3334   5.239   1.468   8.702
67187SOL    HW1 3335   5.311   1.532   8.698
67187SOL    HW2 3336   5.167   1.517   8.742
67188SOL     OW 3337   4.437   8.170   0.421
67188SOL    HW1 3338   4.361   8.114   0.435
67188SOL    HW2 3339   4.468   8.147   0.334
67189SOL     OW 3340  12.411   7.852  10.658
67189SOL    HW1 3341  12.333   7.904  10.677
67189SOL    HW2 3342  12.462   7.856  10.739
67190SOL     OW 3343   1.662   3.273  11.195
67190SOL    HW1 3344   1.646   3.198  11.252
67190SOL    HW2 3345   1.685   3.235  11.110
67191SOL     OW 3346   2.773  14.823  14.034
67191SOL    HW1 3347   2.723  14.856  14.109
67191SOL    HW2 3348   2.756  14.728  14.035
67192SOL     OW 3349   8.102   2.405  12.240
67192SOL    HW1 3350   8.014   2.438  12.255
67192SOL    HW2 3351   8.159   2.478  12.262
67193SOL     OW 3352   1.059   5.670   1.775
67193SOL    HW1 3353   1.039   5.590   1.727
67193SOL    HW2 3354   1.122   5.716   1.719
67194SOL     OW 3355  12.711   5.738   3.316
67194SOL    HW1 3356  12.769   5.670   3.351
67194SOL    HW2 3357  12.685   5.790   3.392
67195SOL     OW 3358  10.151   5.278  14.322
67195SOL    HW1 3359  10.067   5.311  14.291
67195SOL    HW2 3360  10.131   5.194  14.362
67196SOL     OW 3361   5.027   7.330   8.963
67196SOL    HW1 3362   4.986   7.348   8.878
67196SOL    HW2 3363   5.115   7.366   8.956
67197SOL     OW 3364  12.763   7.777   5.555
67197SOL    HW1 3365  12.763   7.873   5.556
67197SOL    HW2 3366  12.697   7.754   5.490
67198SOL     OW 3367   0.758   5.649   0.085
67198SOL    HW1 3368   0.831   5.667   0.025
67198SOL    HW2 3369   0.772   5.708   0.159
67199SOL     OW 3370   9.973   7.028  10.653
67199SOL    HW1 3371  10.012   7.017  10.566
67199SOL    HW2 3372   9.945   6.940  10.678
67200SOL     OW 3373   1.985   5.761   4.712
67200SOL    HW1 3374   1.899   5.772   4.751
67200SOL    HW2 3375   1.998   5.840   4.659
67201SOL     OW 3376  11.449  13.112   8.207
67201SOL    HW1 3377  11.449  13.070   8.120
67201SOL    HW2 3378  11.369  13.081   8.249
67202SOL     OW 3379   1.378  13.390   1.401
67202SOL    HW1 3380   1.381  13.463   1.339
67202SOL    HW2 3381   1.469  13.377   1.428
67203SOL     OW 3382   6.256   3.548   8.156
67203SOL    HW1 3383   6.270   3.641   8.134
67203SOL    HW2 3384   6.161   3.539   8.161
67204SOL     OW 3385  10.838   6.951  12.768
67204SOL    HW1 3386  10.842   6.860  12.740
67204SOL    HW2 3387  10.745   6.965  12.790
67205SOL     OW 3388  12.101   7.528   0.221
67205SOL    HW1 3389  12.093   7.437   0.250
67205SOL    HW2 3390  12.029   7.573   0.265
67206SOL     OW 3391  12.100   0.694   1.285
67206SOL    HW1 3392  12.181   0.643   1.286
67206SOL    HW2 3393  12.034   0.633   1.253
67207SOL     OW 3394  13.125   5.477   8.522
67207SOL    HW1 3395  13.037   5.450   8.498
67207SOL    HW2 3396  13.175   5.395   8.528
67208SOL     OW 3397   8.605   3.420   6.970
67208SOL    HW1 3398   8.653   3.400   6.890
67208SOL    HW2 3399   8.591   3.515   6.967
67209SOL     OW 3400   9.074  14.551  10.246
67209SOL    HW1 3401   9.017  14.615  10.203
67209SOL    HW2 3402   9.054  14.561  10.339
67210SOL     OW 3403   2.637   1.948   7.614
67210SOL    HW1 3404   2.731   1.946   7.632
67210SOL    HW2 3405   2.620   1.869   7.563
67211SOL     OW 3406  11.365   3.027   5.054
67211SOL    HW1 3407  11.331   2.999   4.969
67211SOL    HW2 3408  11.337   2.960   5.115
67212SOL     OW 3409   0.863  12.110  14.412
67212SOL    HW1 3410   0.892  12.197  14.442
67212SOL    HW2 3411   0.879  12.053  14.487
67213SOL     OW 3412   7.426   9.276   5.399
67213SOL    HW1 3413   7.335   9.252   5.380
67213SOL    HW2 3414   7.430   9.278   5.495
67214SOL     OW 3415  11.138   1.109  12.107
67214SOL    HW1 3416  11.183   1.186  12.071
67214SOL    HW2 3417  11.132   1.127  12.201
67215SOL     OW 3418  12.834   4.963   6.137
67215SOL    HW1 3419  12.927   4.984   6.145
67215SOL    HW2 3420  12.827   4.919   6.052
67216SOL     OW 3421  13.425   4.415   3.932
67216SOL    HW1 3422  13.438   4.485   3.868
67216SOL    HW2 3423  13.506   4.363   3.927
67217SOL     OW 3424   7.151   1.585  14.025
67217SOL    HW1 3425   7.139   1.502  13.979
67217SOL    HW2 3426   7.063   1.609  14.054
67218SOL     OW 3427   0.441   1.626  10.064
67218SOL    HW1 3428   0.356   1.668  10.077
67218SOL    HW2 3429   0.427   1.564   9.992
67219SOL     OW 3430   1.739   0.769   1.156
67219SOL    HW1 3431   1.810   0.813   1.108
67219SOL    HW2 3432   1.769   0.767   1.247
67220SOL     OW 3433   2.025   6.422   9.553
67220SOL    HW1 3434   1.958   6.374   9.602
67220SOL    HW2 3435   1.979   6.457   9.476
67221SOL     OW 3436  10.426   8.651   2.049
67221SOL    HW1 3437  10.462   8.740   2.043
67221SOL    HW2 3438  10.377   8.651   2.131
67222SOL     OW 3439  12.107   5.284  13.151
67222SOL    HW1 3440  12.127   5.191  13.158
67222SOL    HW2 3441  12.030   5.296  13.207
67223SOL     OW 3442  13.517   6.989   6.600
67223SOL    HW1 3443  13.487   7.014   6.513
67223SOL    HW2 3444  13.612   6.979   6.592
67224SOL     OW 3445   3.600   7.534  13.898
67224SOL    HW1 3446   3.566   7.519  13.810
67224SOL    HW2 3447   3.673   7.596  13.886
67225SOL     OW 3448   3.248   9.116   8.288
67225SOL    HW1 3449   3.316   9.171   8.327
67225SOL    HW2 3450   3.281   9.098   8.200
67226SOL     OW 3451   9.338  13.437  12.183
67226SOL    HW1 3452   9.340  13.357  12.236
67226SOL    HW2 3453   9.427  13.473  12.191
67227SOL     OW 3454  10.696  13.331  10.171
67227SOL    HW1 3455  10.695  13.392  10.097
67227SOL    HW2 3456  10.742  13.379  10.240
67228SOL     OW 3457   4.341   2.170   3.106
67228SOL    HW1 3458   4.313   2.128   3.187
67228SOL    HW2 3459   4.409   2.112   3.071
67229SOL     OW 3460   8.148   6.625   2.088
67229SOL    HW1 3461   8.087   6.595   2.022
67229SOL    HW2 3462   8.234   6.603   2.053
67230SOL     OW 3463   5.147   6.092   4.002
67230SOL    HW1 3464   5.203   6.114   4.077
67230SOL    HW2 3465   5.120   6.177   3.967
67231SOL     OW 3466  11.790   8.985  10.974
67231SOL    HW1 3467  11.878   8.974  11.009
67231SOL    HW2 3468  11.785   8.922  10.902
67232SOL     OW 3469  11.984   0.703   7.015
67232SOL    HW1 3470  11.950   0.759   7.085
67232SOL    HW2 3471  11.941   0.618   7.030
67233SOL     OW 3472   5.425   6.272   6.674
67233SOL    HW1 3473   5.406   6.365   6.691
67233SOL    HW2 3474   5.378   6.253   6.593
67234SOL     OW 3475   4.241   2.066  13.181
67234SOL    HW1 3476   4.225   1.972  13.189
67234SOL    HW2 3477   4.230   2.084  13.087
67235SOL     OW 3478   6.734  12.542   9.598
67235SOL    HW1 3479   6.718  12.576   9.686
67235SOL    HW2 3480   6.721  12.448   9.605
67236SOL     OW 3481  12.837  12.507   6.433
67236SOL    HW1 3482  12.872  12.469   6.353
67236SOL    HW2 3483  12.787  12.583   6.403
67237SOL     OW 3484   0.205  12.969   7.224
67237SOL    HW1 3485   0.285  13.010   7.257
67237SOL    HW2 3486   0.155  13.041   7.186
67238SOL     OW 3487   6.447   0.926   9.153
67238SOL    HW1 3488   6.385   0.949   9.083
67238SOL    HW2 3489   6.496   1.006   9.169
67239SOL     OW 3490   8.907  14.652   5.960
67239SOL    HW1 3491   8.857  14.720   6.004
67239SOL    HW2 3492   8.872  14.570   5.995
67240SOL     OW 3493   7.784  14.876   6.634
67240SOL    HW1 3494   7.796  14.866   6.728
67240SOL    HW2 3495   7.753  14.791   6.604
67241SOL     OW 3496   6.612   3.058  10.192
67241SOL    HW1 3497   6.683   2.996  10.178
67241SOL    HW2 3498   6.647   3.122  10.254
67242SOL     OW 3499  10.210  10.115   0.404
67242SOL    HW1 3500  10.235  10.065   0.326
67242SOL    HW2 3501  10.293  10.143   0.442
67243SOL     OW 3502  14.495   6.780  13.200
67243SOL    HW1 3503  14.423   6.784  13.137
67243SOL    HW2 3504  14.523   6.871  13.210
67244SOL     OW 3505   8.057   1.612  10.322
67244SOL    HW1 3506   8.027   1.526  10.353
67244SOL    HW2 3507   7.998   1.634  10.250
67245SOL     OW 3508   1.274   7.368   6.004
67245SOL    HW1 3509   1.345   7.315   5.968
67245SOL    HW2 3510   1.234   7.409   5.927
67246SOL     OW 3511   4.380  13.452   4.333
67246SOL    HW1 3512   4.445  13.385   4.311
67246SOL    HW2 3513   4.297  13.417   4.300
67247SOL     OW 3514   8.738   1.372   1.017
67247SOL    HW1 3515   8.703   1.302   1.071
67247SOL    HW2 3516   8.793   1.328   0.952
67248SOL     OW 3517   0.109   6.124   3.454
67248SOL    HW1 3518   0.138   6.187   3.388
67248SOL    HW2 3519   0.025   6.091   3.420
67249SOL     OW 3520   6.554  11.059  12.270
67249SOL    HW1 3521   6.506  10.988  12.313
67249SOL    HW2 3522   6.503  11.080  12.192
67250SOL     OW 3523   7.171   7.051   9.680
67250SOL    HW1 3524   7.101   7.074   9.619
67250SOL    HW2 3525   7.251   7.074   9.633
67251SOL     OW 3526   6.823  13.934   0.985
67251SOL    HW1 3527   6.878  13.887   1.048
67251SOL    HW2 3528   6.776  13.865   0.939
67252SOL     OW 3529  13.777   6.018   0.884
67252SOL    HW1 3530  13.855   6.032   0.937
67252SOL    HW2 3531  13.793   5.936   0.837
67253SOL     OW 3532   4.989  11.277   4.983
67253SOL    HW1 3533   5.040  11.347   4.942
67253SOL    HW2 3534   5.025  11.196   4.947
67254SOL     OW 3535   9.889   2.814  11.661
67254SOL    HW1 3536   9.887   2.821  11.757
67254SOL    HW2 3537   9.920   2.725  11.644
67255SOL     OW 3538   2.681   1.272   7.251
67255SOL    HW1 3539   2.699   1.265   7.157
67255SOL    HW2 3540   2.676   1.181   7.281
67256SOL     OW 3541  10.253  13.784   7.134
67256SOL    HW1 3542  10.203  13.803   7.054
67256SOL    HW2 3543  10.194  13.730   7.186
67257SOL     OW 3544  12.763   4.385   1.113
67257SOL    HW1 3545  12.719   4.420   1.035
67257SOL    HW2 3546  12.779   4.462   1.167
67258SOL     OW 3547  10.107   0.335  14.784
67258SOL    HW1 3548  10.100   0.416  14.735
67258SOL    HW2 3549  10.017   0.314  14.810
67259SOL     OW 3550   5.786   2.533   0.381
67259SOL    HW1 3551   5.743   2.614   0.353
67259SOL    HW2 3552   5.715   2.469   0.388
67260SOL     OW 3553   3.630   4.662   0.326
67260SOL    HW1 3554   3.721   4.633   0.329
67260SOL    HW2 3555   3.579   4.582   0.313
67261SOL     OW 3556   2.447  10.618   1.974
67261SOL    HW1 3557   2.387  10.599   2.047
67261SOL    HW2 3558   2.390  10.629   1.899
67262SOL     OW 3559   1.664   5.223  10.992
67262SOL    HW1 3560   1.717   5.255  11.065
67262SOL    HW2 3561   1.700   5.267  10.915
67263SOL     OW 3562   3.010   3.888   2.505
67263SOL    HW1 3563   3.091   3.915   2.547
67263SOL    HW2 3564   2.956   3.967   2.503
67264SOL     OW 3565   9.585   4.206   6.637
67264SOL    HW1 3566   9.565   4.290   6.678
67264SOL    HW2 3567   9.646   4.163   6.697
67265SOL     OW 3568   7.802   0.348   7.813
67265SOL    HW1 3569   7.892   0.326   7.838
67265SOL    HW2 3570   7.807   0.439   7.785
67266SOL     OW 3571  10.332  14.609   0.983
67266SOL    HW1 3572  10.388  14.542   1.022
67266SOL    HW2 3573  10.243  14.581   1.004
67267SOL     OW 3574   4.596  14.143  12.007
67267SOL    HW1 3575   4.629  14.106  11.925
67267SOL    HW2 3576   4.633  14.088  12.076
67268SOL     OW 3577   7.247   9.909  11.619
67268SOL    HW1 3578   7.327   9.947  11.657
67268SOL    HW2 3579   7.275   9.824  11.584
67269SOL     OW 3580  14.109  13.536   8.302
67269SOL    HW1 3581  14.168  13.588   8.247
67269SOL    HW2 3582  14.050  13.494   8.240
67270SOL     OW 3583   1.847   4.004   9.115
67270SOL    HW1 3584   1.763   4.030   9.077
67270SOL    HW2 3585   1.836   4.019   9.209
67271SOL     OW 3586   8.492   4.633   0.625
67271SOL    HW1 3587   8.557   4.703   0.613
67271SOL    HW2 3588   8.543   4.555   0.644
67272SOL     OW 3589  14.597   3.191   6.649
67272SOL    HW1 3590  14.683   3.155   6.625
67272SOL    HW2 3591  14.534   3.130   6.611
67273SOL     OW 3592   6.214   0.102   7.708
67273SOL    HW1 3593   6.251   0.075   7.623
67273SOL    HW2 3594   6.263   0.181   7.731
67274SOL     OW 3595   5.380  11.251   0.363
67274SOL    HW1 3596   5.313  11.239   0.431
67274SOL    HW2 3597   5.463  11.248   0.411
67275SOL     OW 3598   6.969  13.286   8.177
67275SOL    HW1 3599   7.015  13.370   8.176
67275SOL    HW2 3600   6.877  13.310   8.185
67276SOL     OW 3601   5.188   7.179   4.490
67276SOL    HW1 3602   5.120   7.135   4.540
67276SOL    HW2 3603   5.270   7.156   4.533
67277SOL     OW 3604   5.588  10.168   2.709
67277SOL    HW1 3605   5.671  10.211   2.691
67277SOL    HW2 3606   5.535  10.234   2.753
67278SOL     OW 3607  14.198  12.389   7.123
67278SOL    HW1 3608  14.130  12.447   7.090
67278SOL    HW2 3609  14.156  12.304   7.131
67279SOL     OW 3610  13.271   2.118  12.374
67279SOL    HW1 3611  13.323   2.125  12.454
67279SOL    HW2 3612  13.323   2.061  12.317
67280SOL     OW 3613   8.743  13.880  12.009
67280SOL    HW1 3614   8.672  13.854  12.067
67280SOL    HW2 3615   8.821  13.838  12.046
67281SOL     OW 3616   0.866   2.987   3.506
67281SOL    HW1 3617   0.827   3.005   3.421
67281SOL    HW2 3618   0.932   2.919   3.488
67282SOL     OW 3619   5.926   5.590  11.069
67282SOL    HW1 3620   5.881   5.585  10.985
67282SOL    HW2 3621   5.996   5.525  11.063
67283SOL     OW 3622   9.564   6.693   2.161
67283SOL    HW1 3623   9.538   6.678   2.070
67283SOL    HW2 3624   9.613   6.775   2.159
67284SOL     OW 3625   6.783   5.255   6.171
67284SOL    HW1 3626   6.716   5.273   6.105
67284SOL    HW2 3627   6.789   5.336   6.222
67285SOL     OW 3628   5.816   1.397   1.097
67285SOL    HW1 3629   5.896   1.437   1.061
67285SOL    HW2 3630   5.841   1.369   1.185
67286SOL     OW 3631  11.158   2.291   1.432
67286SOL    HW1 3632  11.161   2.386   1.445
67286SOL    HW2 3633  11.211   2.255   1.503
67287SOL     OW 3634  11.317  13.320  12.638
67287SOL    HW1 3635  11.349  13.351  12.553
67287SOL    HW2 3636  11.237  13.271  12.617
67288SOL     OW 3637   4.605   9.237   8.905
67288SOL    HW1 3638   4.635   9.326   8.926
67288SOL    HW2 3639   4.685   9.184   8.907
67289SOL     OW 3640  13.879   7.268   9.164
67289SOL    HW1 3641  13.843   7.179   9.168
67289SOL    HW2 3642  13.817   7.321   9.213
67290SOL     OW 3643   7.929   9.965  11.280
67290SOL    HW1 3644   7.924   9.873  11.308
67290SOL    HW2 3645   7.939   9.960  11.184
67291SOL     OW 3646   7.639   4.449   5.688
67291SOL    HW1 3647   7.679   4.504   5.756
67291SOL    HW2 3648   7.623   4.366   5.732
67292SOL     OW 3649   9.724  10.324   1.805
67292SOL    HW1 3650   9.763  10.348   1.722
67292SOL    HW2 3651   9.630  10.337   1.793
67293SOL     OW 3652   2.933   4.913  13.221
67293SOL    HW1 3653   2.983   4.862  13.157
67293SOL    HW2 3654   2.941   5.004  13.192
67294SOL     OW 3655  10.212   3.949  12.120
67294SOL    HW1 3656  10.261   4.010  12.175
67294SOL    HW2 3657  10.272   3.875  12.107
67295SOL     OW 3658   7.012   0.495   4.616
67295SOL    HW1 3659   6.994   0.402   4.606
67295SOL    HW2 3660   6.926   0.536   4.618
67296SOL     OW 3661  14.671   8.628   5.748
67296SOL    HW1 3662  14.627   8.593   5.825
67296SOL    HW2 3663  14.702   8.551   5.700
67297SOL     OW 3664   2.190   0.401   3.431
67297SOL    HW1 3665   2.186   0.484   3.383
67297SOL    HW2 3666   2.263   0.412   3.491
67298SOL     OW 3667   8.496  12.492   2.566
67298SOL    HW1 3668   8.428  12.434   2.601
67298SOL    HW2 3669   8.451  12.544   2.499
67299SOL     OW 3670   3.272   4.398   4.078
67299SOL    HW1 3671   3.204   4.344   4.117
67299SOL    HW2 3672   3.241   4.488   4.090
67300SOL     OW 3673   2.459   4.491  10.650
67300SOL    HW1 3674   2.373   4.452  10.662
67300SOL    HW2 3675   2.500   4.438  10.581
67301SOL     OW 3676   5.876   1.296  11.785
67301SOL    HW1 3677   5.829   1.334  11.859
67301SOL    HW2 3678   5.960   1.267  11.822
67302SOL     OW 3679   3.116  11.249   7.977
67302SOL    HW1 3680   3.200  11.209   8.000
67302SOL    HW2 3681   3.121  11.337   8.013
67303SOL     OW 3682   6.474   1.659   6.686
67303SOL    HW1 3683   6.528   1.729   6.650
67303SOL    HW2 3684   6.474   1.676   6.780
67304SOL     OW 3685  13.983   7.645   8.165
67304SOL    HW1 3686  13.939   7.650   8.250
67304SOL    HW2 3687  14.022   7.558   8.164
67305SOL     OW 3688   4.513   0.858  12.128
67305SOL    HW1 3689   4.577   0.842  12.198
67305SOL    HW2 3690   4.558   0.916  12.067
67306SOL     OW 3691   0.807  10.523   8.114
67306SOL    HW1 3692   0.858  10.444   8.099
67306SOL    HW2 3693   0.725  10.492   8.151
67307SOL     OW 3694   9.847  13.841   5.799
67307SOL    HW1 3695   9.861  13.769   5.860
67307SOL    HW2 3696   9.822  13.915   5.855
67308SOL     OW 3697   9.680   0.925  13.020
67308SOL    HW1 3698   9.609   0.862  13.034
67308SOL    HW2 3699   9.755   0.888  13.067
67309SOL     OW 3700  10.306  10.533   9.176
67309SOL    HW1 3701  10.362  10.506   9.248
67309SOL    HW2 3702  10.280  10.451   9.133
67310SOL     OW 3703  12.354   9.607   8.203
67310SOL    HW1 3704  12.364   9.672   8.273
67310SOL    HW2 3705  12.296   9.541   8.239
67311SOL     OW 3706  11.753   4.642   0.192
67311SOL    HW1 3707  11.690   4.631   0.120
67311SOL    HW2 3708  11.775   4.554   0.219
67312SOL     OW 3709  10.916  10.246   3.733
67312SOL    HW1 3710  10.887  10.185   3.666
67312SOL    HW2 3711  10.881  10.210   3.815
67313SOL     OW 3712  10.114   7.511   6.816
67313SOL    HW1 3713  10.168   7.552   6.885
67313SOL    HW2 3714  10.120   7.571   6.742
67314SOL     OW 3715   6.444   1.369   2.963
67314SOL    HW1 3716   6.488   1.317   2.895
67314SOL    HW2 3717   6.472   1.459   2.947
67315SOL     OW 3718   8.629  11.394   1.336
67315SOL    HW1 3719   8.669  11.343   1.407
67315SOL    HW2 3720   8.537  11.402   1.361
67316SOL     OW 3721   8.615   3.547   4.449
67316SOL    HW1 3722   8.684   3.606   4.417
67316SOL    HW2 3723   8.534   3.592   4.428
67317SOL     OW 3724   9.740  10.530  13.195
67317SOL    HW1 3725   9.809  10.539  13.261
67317SOL    HW2 3726   9.687  10.456  13.225
67318SOL     OW 3727  12.857  10.375   9.343
67318SOL    HW1 3728  12.783  10.433   9.332
67318SOL    HW2 3729  12.925  10.430   9.382
67319SOL     OW 3730   5.231  12.127   9.573
67319SOL    HW1 3731   5.272  12.049   9.610
67319SOL    HW2 3732   5.291  12.198   9.593
67320SOL     OW 3733   1.914   6.610   9.253
67320SOL    HW1 3734   1.858   6.536   9.279
67320SOL    HW2 3735   1.890   6.680   9.313
67321SOL     OW 3736   6.883   9.612   3.304
67321SOL    HW1 3737   6.975   9.622   3.326
67321SOL    HW2 3738   6.882   9.586   3.212
67322SOL     OW 3739   1.338   4.986  11.077
67322SOL    HW1 3740   1.249   4.963  11.102
67322SOL    HW2 3741   1.371   4.910  11.029
67323SOL     OW 3742  12.009   0.246  12.112
67323SOL    HW1 3743  12.095   0.246  12.071
67323SOL    HW2 3744  11.957   0.185  12.059
67324SOL     OW 3745   9.291   0.279  13.429
67324SOL    HW1 3746   9.202   0.245  13.437
67324SOL    HW2 3747   9.292   0.321  13.343
67325SOL     OW 3748  14.431   1.206   5.594
67325SOL    HW1 3749  14.448   1.229   5.685
67325SOL    HW2 3750  14.386   1.122   5.598
67326SOL     OW 3751   7.408   5.668  12.339
67326SOL    HW1 3752   7.380   5.614  12.265
67326SOL    HW2 3753   7.484   5.716  12.307
67327SOL     OW 3754   2.693  14.302  11.689
67327SOL    HW1 3755   2.660  14.368  11.629
67327SOL    HW2 3756   2.763  14.258  11.641
67328SOL     OW 3757  13.649  10.336   6.552
67328SOL    HW1 3758  13.668  10.242   6.546
67328SOL    HW2 3759  13.618  10.348   6.642
67329SOL     OW 3760   1.944   9.417   8.515
67329SOL    HW1 3761   1.986   9.347   8.565
67329SOL    HW2 3762   1.956   9.496   8.568
67330SOL     OW 3763  12.330  12.247   1.990
67330SOL    HW1 3764  12.367  12.315   2.047
67330SOL    HW2 3765  12.316  12.172   2.048
67331SOL     OW 3766   2.567   0.466   4.551
67331SOL    HW1 3767   2.564   0.488   4.458
67331SOL    HW2 3768   2.623   0.534   4.590
67332SOL     OW 3769  14.445  11.213  12.564
67332SOL    HW1 3770  14.506  11.149  12.528
67332SOL    HW2 3771  14.489  11.245  12.643
67333SOL     OW 3772   4.337   0.787   2.705
67333SOL    HW1 3773   4.302   0.729   2.772
67333SOL    HW2 3774   4.306   0.751   2.623
67334SOL     OW 3775   0.735   5.046  13.844
67334SOL    HW1 3776   0.662   5.109  13.838
67334SOL    HW2 3777   0.802   5.082  13.787
67335SOL     OW 3778  10.944   6.040  13.393
67335SOL    HW1 3779  10.938   6.131  13.421
67335SOL    HW2 3780  10.990   6.044  13.309
67336SOL     OW 3781   4.183   5.291   2.804
67336SOL    HW1 3782   4.244   5.219   2.790
67336SOL    HW2 3783   4.236   5.361   2.841
67337SOL     OW 3784  11.626   1.231   0.346
67337SOL    HW1 3785  11.631   1.324   0.369
67337SOL    HW2 3786  11.549   1.199   0.393
67338SOL     OW 3787   3.657  12.617   7.956
67338SOL    HW1 3788   3.749  12.638   7.968
67338SOL    HW2 3789   3.629  12.671   7.882
67339SOL     OW 3790   1.034  12.703  11.981
67339SOL    HW1 3791   1.130  12.708  11.986
67339SOL    HW2 3792   1.013  12.735  11.893
67340SOL     OW 3793   4.125   8.643  10.429
67340SOL    HW1 3794   4.056   8.702  10.397
67340SOL    HW2 3795   4.085   8.598  10.503
67341SOL     OW 3796  14.339  12.042  10.981
67341SOL    HW1 3797  14.396  12.063  11.056
67341SOL    HW2 3798  14.395  11.990  10.923
67342SOL     OW 3799  11.953   8.777   8.771
67342SOL    HW1 3800  11.911   8.800   8.688
67342SOL    HW2 3801  11.897   8.817   8.838
67343SOL     OW 3802   9.682   7.769   5.512
67343SOL    HW1 3803   9.749   7.774   5.444
67343SOL    HW2 3804   9.663   7.676   5.520
67344SOL     OW 3805  13.270  14.359  10.132
67344SOL    HW1 3806  13.338  14.306  10.175
67344SOL    HW2 3807  13.286  14.347  10.039
67345SOL     OW 3808   9.573   4.781   8.441
67345SOL    HW1 3809   9.574   4.725   8.518
67345SOL    HW2 3810   9.485   4.770   8.405
67346SOL     OW 3811   5.753   3.459  13.756
67346SOL    HW1 3812   5.782   3.541  13.797
67346SOL    HW2 3813   5.772   3.392  13.821
67347SOL     OW 3814   9.808  10.707   3.103
67347SOL    HW1 3815   9.808  10.802   3.095
67347SOL    HW2 3816   9.900  10.682   3.096
67348SOL     OW 3817  11.711  13.377   7.792
67348SOL    HW1 3818  11.763  13.437   7.738
67348SOL    HW2 3819  11.640  13.431   7.825
67349SOL     OW 3820   7.650  11.684   8.321
67349SOL    HW1 3821   7.566  11.719   8.350
67349SOL    HW2 3822   7.636  11.589   8.317
67350SOL     OW 3823   5.165   3.344   5.618
67350SOL    HW1 3824   5.210   3.414   5.571
67350SOL    HW2 3825   5.164   3.374   5.709
67351SOL     OW 3826   4.646   4.430   0.319
67351SOL    HW1 3827   4.641   4.523   0.298
67351SOL    HW2 3828   4.557   4.406   0.346
67352SOL     OW 3829   5.280   8.030   7.597
67352SOL    HW1 3830   5.319   8.117   7.602
67352SOL    HW2 3831   5.249   8.022   7.506
67353SOL     OW 3832   8.075   6.845   4.280
67353SOL    HW1 3833   7.989   6.855   4.240
67353SOL    HW2 3834   8.124   6.789   4.220
67354SOL     OW 3835   9.506   2.852  10.601
67354SOL    HW1 3836   9.486   2.796  10.676
67354SOL    HW2 3837   9.489   2.797  10.525
67355SOL     OW 3838   5.895   6.798   3.862
67355SOL    HW1 3839   5.895   6.723   3.804
67355SOL    HW2 3840   5.988   6.819   3.874
67356SOL     OW 3841  12.545   4.954   9.912
67356SOL    HW1 3842  12.493   4.953   9.832
67356SOL    HW2 3843  12.551   5.047   9.935
67357SOL     OW 3844   6.980  11.564   2.160
67357SOL    HW1 3845   7.032  11.586   2.083
67357SOL    HW2 3846   6.998  11.471   2.176
67358SOL     OW 3847   7.534   0.189   0.571
67358SOL    HW1 3848   7.526   0.252   0.643
67358SOL    HW2 3849   7.444   0.174   0.543
67359SOL     OW 3850  12.273   7.169  13.743
67359SOL    HW1 3851  12.219   7.220  13.803
67359SOL    HW2 3852  12.335   7.124  13.800
67360SOL     OW 3853  14.015   9.505  14.783
67360SOL    HW1 3854  13.987   9.418  14.810
67360SOL    HW2 3855  14.110   9.498  14.771
67361SOL     OW 3856   2.599   1.920  10.846
67361SOL    HW1 3857   2.615   1.877  10.761
67361SOL    HW2 3858   2.686   1.940  10.880
67362SOL     OW 3859  14.680   8.070   4.930
67362SOL    HW1 3860  14.651   8.076   4.839
67362SOL    HW2 3861  14.767   8.029   4.925
67363SOL     OW 3862  11.024  13.587   0.156
67363SOL    HW1 3863  10.966  13.529   0.107
67363SOL    HW2 3864  11.067  13.640   0.090
67364SOL     OW 3865   3.247   2.905   1.847
67364SOL    HW1 3866   3.203   2.982   1.883
67364SOL    HW2 3867   3.202   2.889   1.764
67365SOL     OW 3868   1.804   0.299   8.549
67365SOL    HW1 3869   1.722   0.292   8.598
67365SOL    HW2 3870   1.795   0.379   8.498
67366SOL     OW 3871  12.260   9.985  13.079
67366SOL    HW1 3872  12.172   9.985  13.042
67366SOL    HW2 3873  12.308  10.050  13.027
67367SOL     OW 3874   1.206  12.648   2.543
67367SOL    HW1 3875   1.155  12.726   2.523
67367SOL    HW2 3876   1.237  12.661   2.632
67368SOL     OW 3877  11.126   1.725   3.111
67368SOL    HW1 3878  11.114   1.699   3.020
67368SOL    HW2 3879  11.115   1.644   3.161
67369SOL     OW 3880   9.457  13.937   7.447
67369SOL    HW1 3881   9.489  13.865   7.393
67369SOL    HW2 3882   9.426  13.896   7.527
67370SOL     OW 3883   5.483   2.475   1.604
67370SOL    HW1 3884   5.397   2.458   1.643
67370SOL    HW2 3885   5.513   2.389   1.574
67371SOL     OW 3886   1.240   8.281  13.917
67371SOL    HW1 3887   1.280   8.350  13.970
67371SOL    HW2 3888   1.167   8.249  13.970
67372SOL     OW 3889   9.873  14.512   8.877
67372SOL    HW1 3890   9.856  14.419   8.868
67372SOL    HW2 3891   9.930  14.533   8.802
67373SOL     OW 3892   3.855   2.661   7.468
67373SOL    HW1 3893   3.860   2.742   7.519
67373SOL    HW2 3894   3.776   2.617   7.500
67374SOL     OW 3895   0.800  11.187   6.024
67374SOL    HW1 3896   0.831  11.222   6.107
67374SOL    HW2 3897   0.726  11.130   6.048
67375SOL     OW 3898  11.109   5.570   8.864
67375SOL    HW1 3899  11.103   5.524   8.781
67375SOL    HW2 3900  11.029   5.623   8.868
67376SOL     OW 3901  11.721   7.132  12.325
67376SOL    HW1 3902  11.737   7.055  12.271
67376SOL    HW2 3903  11.740   7.206  12.268
67377SOL     OW 3904  12.485  11.301   5.792
67377SOL    HW1 3905  12.433  11.331   5.717
67377SOL    HW2 3906  12.512  11.381   5.836
67378SOL     OW 3907   1.921   8.223   2.033
67378SOL    HW1 3908   1.827   8.238   2.039
67378SOL    HW2 3909   1.938   8.152   2.095
67379SOL     OW 3910   1.613   1.671   9.884
67379SOL    HW1 3911   1.618   1.753   9.934
67379SOL    HW2 3912   1.624   1.602   9.949
67380SOL     OW 3913   7.205   8.341   6.130
67380SOL    HW1 3914   7.262   8.352   6.054
67380SOL    HW2 3915   7.236   8.407   6.193
67381SOL     OW 3916  12.410   5.385  11.545
67381SOL    HW1 3917  12.435   5.347  11.630
67381SOL    HW2 3918  12.430   5.316  11.482
67382SOL     OW 3919   4.327   5.589   4.536
67382SOL    HW1 3920   4.378   5.668   4.516
67382SOL    HW2 3921   4.383   5.540   4.597
67383SOL     OW 3922   3.178   2.179   7.027
67383SOL    HW1 3923   3.146   2.248   6.969
67383SOL    HW2 3924   3.254   2.143   6.981
67384SOL     OW 3925   3.250   7.374   0.752
67384SOL    HW1 3926   3.179   7.330   0.706
67384SOL    HW2 3927   3.298   7.420   0.684
67385SOL     OW 3928   6.652   3.495  11.291
67385SOL    HW1 3929   6.574   3.533  11.250
67385SOL    HW2 3930   6.659   3.407  11.252
67386SOL     OW 3931   3.768   1.807  14.628
67386SOL    HW1 3932   3.797   1.874  14.690
67386SOL    HW2 3933   3.675   1.797  14.646
67387SOL     OW 3934   3.618   3.103  10.252
67387SOL    HW1 3935   3.696   3.151  10.225
67387SOL    HW2 3936   3.561   3.105  10.175
67388SOL     OW 3937   4.558   7.449   3.732
67388SOL    HW1 3938   4.548   7.499   3.813
67388SOL    HW2 3939   4.651   7.429   3.727
67389SOL     OW 3940   2.127   5.323   5.109
67389SOL    HW1 3941   2.205   5.309   5.055
67389SOL    HW2 3942   2.089   5.236   5.118
67390SOL     OW 3943  14.798   3.088   9.584
67390SOL    HW1 3944  14.731   3.019   9.586
67390SOL    HW2 3945  14.836   3.083   9.497
67391SOL     OW 3946   0.581  10.423   8.224
67391SOL    HW1 3947   0.517  10.480   8.182
67391SOL    HW2 3948   0.550  10.414   8.314
67392SOL     OW 3949   9.384  13.841  12.122
67392SOL    HW1 3950   9.381  13.927  12.080
67392SOL    HW2 3951   9.324  13.788  12.071
67393SOL     OW 3952   2.983  10.273   6.582
67393SOL    HW1 3953   3.016  10.345   6.527
67393SOL    HW2 3954   3.007  10.297   6.671
67394SOL     OW 3955   2.088   8.233  14.187
67394SOL    HW1 3956   2.059   8.278  14.107
67394SOL    HW2 3957   2.144   8.297  14.231
67395SOL     OW 3958   1.162   3.357   4.072
67395SOL    HW1 3959   1.180   3.393   3.985
67395SOL    HW2 3960   1.109   3.279   4.055
67396SOL     OW 3961   9.550   4.555  11.642
67396SOL    HW1 3962   9.525   4.466  11.669
67396SOL    HW2 3963   9.601   4.543  11.562
67397SOL     OW 3964   4.023  10.466   4.024
67397SOL    HW1 3965   3.978  10.514   3.955
67397SOL    HW2 3966   4.015  10.374   3.998
67398SOL     OW 3967   8.673   3.669   3.729
67398SOL    HW1 3968   8.612   3.720   3.677
67398SOL    HW2 3969   8.734   3.733   3.765
67399SOL     OW 3970   3.093   1.985  14.064
67399SOL    HW1 3971   3.097   2.063  14.007
67399SOL    HW2 3972   3.003   1.984  14.096
67400SOL     OW 3973  10.928  10.290   0.976
67400SOL    HW1 3974  10.938  10.217   1.036
67400SOL    HW2 3975  10.894  10.361   1.031
67401SOL     OW 3976   2.346  13.464  12.184
67401SOL    HW1 3977   2.382  13.402  12.247
67401SOL    HW2 3978   2.404  13.540  12.188
67402SOL     OW 3979   6.824  12.304  10.548
67402SOL    HW1 3980   6.864  12.358  10.617
67402SOL    HW2 3981   6.875  12.323  10.470
67403SOL     OW 3982   6.128  12.327   2.920
67403SOL    HW1 3983   6.201  12.267   2.903
67403SOL    HW2 3984   6.054  12.289   2.873
67404SOL     OW 3985   2.925   4.796   5.454
67404SOL    HW1 3986   2.888   4.874   5.414
67404SOL    HW2 3987   2.887   4.795   5.543
67405SOL     OW 3988   2.156  11.058   9.155
67405SOL    HW1 3989   2.237  11.086   9.111
67405SOL    HW2 3990   2.183  10.982   9.207
67406SOL     OW 3991  11.176   9.589  11.575
67406SOL    HW1 3992  11.122   9.512  11.561
67406SOL    HW2 3993  11.262   9.555  11.600
67407SOL     OW 3994   4.655   1.821   4.936
67407SOL    HW1 3995   4.704   1.899   4.960
67407SOL    HW2 3996   4.589   1.853   4.873
67408SOL     OW 3997   9.170   0.094   4.540
67408SOL    HW1 3998   9.264   0.110   4.550
67408SOL    HW2 3999   9.138   0.081   4.629
67409SOL     OW 4000   7.042   8.814   0.471
67409SOL    HW1 4001   6.967   8.757   0.454
67409SOL    HW2 4002   7.118   8.758   0.461
67410SOL     OW 4003  10.545   9.740   5.489
67410SOL    HW1 4004  10.541   9.774   5.399
67410SOL    HW2 4005  10.455   9.744   5.521
67411SOL     OW 4006  13.381   4.310  10.931
67411SOL    HW1 4007  13.411   4.313  10.840
67411SOL    HW2 4008  13.345   4.223  10.942
67412SOL     OW 4009  12.223   4.013  11.609
67412SOL    HW1 4010  12.268   3.929  11.616
67412SOL    HW2 4011  12.258   4.065  11.682
67413SOL     OW 4012   3.322   0.745   5.850
67413SOL    HW1 4013   3.329   0.652   5.868
67413SOL    HW2 4014   3.391   0.763   5.786
67414SOL     OW 4015   3.800  14.248  10.402
67414SOL    HW1 4016   3.782  14.165  10.360
67414SOL    HW2 4017   3.863  14.291  10.344
67415SOL     OW 4018   0.480   3.065   5.150
67415SOL    HW1 4019   0.388   3.081   5.133
67415SOL    HW2 4020   0.486   2.970   5.163
67416SOL     OW 4021  13.316   5.958   6.631
67416SOL    HW1 4022  13.350   5.907   6.704
67416SOL    HW2 4023  13.244   5.905   6.597
67417SOL     OW 4024  11.217  11.227   1.684
67417SOL    HW1 4025  11.246  11.302   1.736
67417SOL    HW2 4026  11.294  11.203   1.632
67418SOL     OW 4027  13.063  10.527  10.145
67418SOL    HW1 4028  13.027  10.602  10.192
67418SOL    HW2 4029  13.146  10.559  10.108
67419SOL     OW 4030   5.699   0.294   0.409
67419SOL    HW1 4031   5.680   0.284   0.316
67419SOL    HW2 4032   5.673   0.210   0.448
67420SOL     OW 4033   2.707   1.156  11.393
67420SOL    HW1 4034   2.669   1.230  11.345
67420SOL    HW2 4035   2.674   1.079  11.347
67421SOL     OW 4036  10.184  13.440   7.236
67421SOL    HW1 4037  10.273  13.413   7.215
67421SOL    HW2 4038  10.156  13.380   7.305
67422SOL     OW 4039   5.455   0.454   3.942
67422SOL    HW1 4040   5.449   0.368   3.902
67422SOL    HW2 4041   5.372   0.497   3.920
67423SOL     OW 4042   0.976  10.132   7.476
67423SOL    HW1 4043   0.899  10.090   7.438
67423SOL    HW2 4044   1.050  10.083   7.441
67424SOL     OW 4045   6.655  10.321  12.011
67424SOL    HW1 4046   6.566  10.309  12.046
67424SOL    HW2 4047   6.706  10.351  12.086
67425SOL     OW 4048   9.123   8.936  13.889
67425SOL    HW1 4049   9.197   8.996  13.877
67425SOL    HW2 4050   9.094   8.952  13.979
67426SOL     OW 4051   4.440  13.251  12.255
67426SOL    HW1 4052   4.530  13.224  12.237
67426SOL    HW2 4053   4.448  13.310  12.331
67427SOL     OW 4054  10.896   3.595   3.229
67427SOL    HW1 4055  10.900   3.657   3.156
67427SOL    HW2 4056  10.934   3.642   3.303
67428SOL     OW 4057   3.856  13.123   5.867
67428SOL    HW1 4058   3.917  13.153   5.935
67428SOL    HW2 4059   3.900  13.047   5.828
67429SOL     OW 4060   2.028   1.640  13.977
67429SOL    HW1 4061   1.933   1.629  13.977
67429SOL    HW2 4062   2.041   1.735  13.978
67430SOL     OW 4063   1.461   5.627   0.577
67430SOL    HW1 4064   1.377   5.672   0.570
67430SOL    HW2 4065   1.447   5.560   0.644
67431SOL     OW 4066   5.172   3.821  11.506
67431SOL    HW1 4067   5.196   3.774  11.426
67431SOL    HW2 4068   5.143   3.753  11.567
67432SOL     OW 4069  13.689   2.226  12.319
67432SOL    HW1 4070  13.724   2.162  12.381
67432SOL    HW2 4071  13.765   2.280  12.295
67433SOL     OW 4072   7.196  12.398   1.754
67433SOL    HW1 4073   7.171  12.331   1.818
67433SOL    HW2 4074   7.119  12.453   1.745
67434SOL     OW 4075   9.923  13.772   2.226
67434SOL    HW1 4076  10.006  13.745   2.186
67434SOL    HW2 4077   9.943  13.857   2.265
67435SOL     OW 4078   3.616   4.011   0.732
67435SOL    HW1 4079   3.621   3.932   0.679
67435SOL    HW2 4080   3.685   4.001   0.797
67436SOL     OW 4081   1.597  12.651  12.010
67436SOL    HW1 4082   1.630  12.561  12.004
67436SOL    HW2 4083   1.578  12.663  12.103
67437SOL     OW 4084   7.556  14.753   7.862
67437SOL    HW1 4085   7.612  14.831   7.859
67437SOL    HW2 4086   7.517  14.755   7.949
67438SOL     OW 4087  12.932   6.466   0.479
67438SOL    HW1 4088  12.843   6.481   0.511
67438SOL    HW2 4089  12.924   6.472   0.383
67439SOL     OW 4090   0.263   1.393   4.862
67439SOL    HW1 4091   0.207   1.462   4.827
67439SOL    HW2 4092   0.205   1.318   4.872
67440SOL     OW 4093   2.841   5.382  12.474
67440SOL    HW1 4094   2.846   5.463  12.526
67440SOL    HW2 4095   2.755   5.347  12.494
67441SOL     OW 4096   1.041   9.058  12.466
67441SOL    HW1 4097   1.092   9.120  12.414
67441SOL    HW2 4098   1.051   9.088  12.556
67442SOL     OW 4099   3.572   9.015   4.016
67442SOL    HW1 4100   3.638   8.954   4.048
67442SOL    HW2 4101   3.576   9.006   3.920
67443SOL     OW 4102  10.835  11.094   3.390
67443SOL    HW1 4103  10.784  11.033   3.442
67443SOL    HW2 4104  10.840  11.173   3.444
67444SOL     OW 4105   1.630   1.691   0.250
67444SOL    HW1 4106   1.711   1.642   0.237
67444SOL    HW2 4107   1.645   1.775   0.207
67445SOL     OW 4108   1.893   6.952   5.765
67445SOL    HW1 4109   1.962   6.923   5.706
67445SOL    HW2 4110   1.813   6.911   5.731
67446SOL     OW 4111   6.883  14.111  11.777
67446SOL    HW1 4112   6.829  14.188  11.795
67446SOL    HW2 4113   6.831  14.037  11.809
67447SOL     OW 4114   4.836   3.224   8.823
67447SOL    HW1 4115   4.821   3.218   8.728
67447SOL    HW2 4116   4.750   3.248   8.859
67448SOL     OW 4117  10.801   2.564   6.641
67448SOL    HW1 4118  10.854   2.487   6.661
67448SOL    HW2 4119  10.715   2.529   6.618
67449SOL     OW 4120  11.199   3.043   8.295
67449SOL    HW1 4121  11.109   3.064   8.274
67449SOL    HW2 4122  11.199   2.948   8.311
67450SOL     OW 4123  10.825   4.792  10.817
67450SOL    HW1 4124  10.735   4.759  10.817
67450SOL    HW2 4125  10.824   4.864  10.879
67451SOL     OW 4126   0.616  14.871  13.755
67451SOL    HW1 4127   0.702   0.005  13.715
67451SOL    HW2 4128   0.560  14.845  13.682
67452SOL     OW 4129  10.519   0.633  12.537
67452SOL    HW1 4130  10.532   0.651  12.630
67452SOL    HW2 4131  10.580   0.562  12.517
67453SOL     OW 4132  12.905  12.785  13.504
67453SOL    HW1 4133  12.844  12.800  13.431
67453SOL    HW2 4134  12.871  12.707  13.548
67454SOL     OW 4135   5.343   8.518  11.512
67454SOL    HW1 4136   5.356   8.423  11.502
67454SOL    HW2 4137   5.415   8.546  11.568
67455SOL     OW 4138  11.575  13.565  11.904
67455SOL    HW1 4139  11.667  13.543  11.889
67455SOL    HW2 4140  11.577  13.655  11.937
67456SOL     OW 4141   8.674  12.839   4.112
67456SOL    HW1 4142   8.642  12.929   4.114
67456SOL    HW2 4143   8.760  12.846   4.070
67457SOL     OW 4144  14.035   2.918  12.914
67457SOL    HW1 4145  14.018   2.946  13.004
67457SOL    HW2 4146  14.010   2.993  12.861
67458SOL     OW 4147   4.055  10.848   8.085
67458SOL    HW1 4148   4.038  10.797   8.005
67458SOL    HW2 4149   4.125  10.801   8.128
67459SOL     OW 4150   8.115   3.695  13.479
67459SOL    HW1 4151   8.093   3.748  13.402
67459SOL    HW2 4152   8.097   3.605  13.451
67460SOL     OW 4153   6.047  14.571   3.480
67460SOL    HW1 4154   6.078  14.509   3.414
67460SOL    HW2 4155   5.981  14.521   3.530
67461SOL     OW 4156  11.156   7.304   9.725
67461SOL    HW1 4157  11.161   7.219   9.768
67461SOL    HW2 4158  11.240   7.346   9.744
67462SOL     OW 4159   4.757   8.545   1.377
67462SOL    HW1 4160   4.770   8.573   1.287
67462SOL    HW2 4161   4.811   8.605   1.429
67463SOL     OW 4162   4.870   0.004   1.371
67463SOL    HW1 4163   4.940   0.052   1.325
67463SOL    HW2 4164   4.789   0.038   1.332
67464SOL     OW 4165   4.792   5.540  12.142
67464SOL    HW1 4166   4.734   5.616  12.143
67464SOL    HW2 4167   4.842   5.548  12.061
67465SOL     OW 4168  11.987   5.428   1.146
67465SOL    HW1 4169  12.069   5.472   1.170
67465SOL    HW2 4170  12.004   5.336   1.163
67466SOL     OW 4171   9.457   7.432  10.057
67466SOL    HW1 4172   9.366   7.450  10.036
67466SOL    HW2 4173   9.482   7.358  10.001
67467SOL     OW 4174  12.823   9.205   1.318
67467SOL    HW1 4175  12.744   9.240   1.276
67467SOL    HW2 4176  12.794   9.125   1.361
67468SOL     OW 4177  14.103   4.729   1.383
67468SOL    HW1 4178  14.157   4.803   1.409
67468SOL    HW2 4179  14.149   4.690   1.309
67469SOL     OW 4180   3.402   0.024   4.827
67469SOL    HW1 4181   3.429  14.819   4.859
67469SOL    HW2 4182   3.321   0.043   4.874
67470SOL     OW 4183  13.882   8.972   3.399
67470SOL    HW1 4184  13.798   8.995   3.440
67470SOL    HW2 4185  13.861   8.958   3.307
67471SOL     OW 4186  11.380   7.211   8.437
67471SOL    HW1 4187  11.361   7.119   8.450
67471SOL    HW2 4188  11.465   7.212   8.393
67472SOL     OW 4189   7.384  14.844  12.850
67472SOL    HW1 4190   7.340  14.760  12.837
67472SOL    HW2 4191   7.314   0.024  12.872
67473SOL     OW 4192   0.405   9.313   4.684
67473SOL    HW1 4193   0.446   9.241   4.732
67473SOL    HW2 4194   0.344   9.353   4.746
67474SOL     OW 4195   2.412   1.683   3.580
67474SOL    HW1 4196   2.470   1.753   3.610
67474SOL    HW2 4197   2.348   1.727   3.525
67475SOL     OW 4198   4.654   6.883   1.439
67475SOL    HW1 4199   4.601   6.804   1.454
67475SOL    HW2 4200   4.720   6.856   1.376
67476SOL     OW 4201   1.490  12.743   7.223
67476SOL    HW1 4202   1.434  12.665   7.226
67476SOL    HW2 4203   1.441  12.810   7.270
67477SOL     OW 4204  11.568   0.171   1.728
67477SOL    HW1 4205  11.575   0.167   1.823
67477SOL    HW2 4206  11.615   0.094   1.697
67478SOL     OW 4207  10.363  12.926   2.475
67478SOL    HW1 4208  10.374  12.893   2.385
67478SOL    HW2 4209  10.370  12.848   2.530
67479SOL     OW 4210   3.849  11.539  11.538
67479SOL    HW1 4211   3.893  11.467  11.493
67479SOL    HW2 4212   3.920  11.592  11.574
67480SOL     OW 4213   9.665  12.118   3.657
67480SOL    HW1 4214   9.581  12.084   3.687
67480SOL    HW2 4215   9.648  12.149   3.568
67481SOL     OW 4216   0.676   1.613   6.955
67481SOL    HW1 4217   0.627   1.662   7.021
67481SOL    HW2 4218   0.610   1.586   6.891
67482SOL     OW 4219   3.597  11.504   1.417
67482SOL    HW1 4220   3.576  11.501   1.510
67482SOL    HW2 4221   3.692  11.514   1.414
67483SOL     OW 4222   6.714   2.814  10.827
67483SOL    HW1 4223   6.728   2.833  10.919
67483SOL    HW2 4224   6.772   2.740  10.809
67484SOL     OW 4225   6.007   9.424  11.979
67484SOL    HW1 4226   6.064   9.403  11.905
67484SOL    HW2 4227   6.016   9.350  12.039
67485SOL     OW 4228  13.109   3.373   3.430
67485SOL    HW1 4229  13.167   3.405   3.500
67485SOL    HW2 4230  13.168   3.352   3.358
67486SOL     OW 4231   8.553   5.068   8.920
67486SOL    HW1 4232   8.579   4.992   8.972
67486SOL    HW2 4233   8.580   5.143   8.972
67487SOL     OW 4234   1.514  14.322  13.475
67487SOL    HW1 4235   1.447  14.266  13.515
67487SOL    HW2 4236   1.594  14.303  13.523
67488SOL     OW 4237   6.210   9.900   7.925
67488SOL    HW1 4238   6.163   9.877   7.845
67488SOL    HW2 4239   6.143   9.938   7.982
67489SOL     OW 4240   4.800   4.384   9.181
67489SOL    HW1 4241   4.728   4.372   9.242
67489SOL    HW2 4242   4.769   4.450   9.119
67490SOL     OW 4243   5.648  10.999   8.055
67490SOL    HW1 4244   5.744  11.005   8.056
67490SOL    HW2 4245   5.620  11.065   7.992
67491SOL     OW 4246  12.004  12.663   8.699
67491SOL    HW1 4247  11.992  12.646   8.605
67491SOL    HW2 4248  12.012  12.577   8.738
67492SOL     OW 4249   7.294   1.335  10.357
67492SOL    HW1 4250   7.249   1.260  10.318
67492SOL    HW2 4251   7.378   1.338  10.312
67493SOL     OW 4252   3.463  14.552  12.806
67493SOL    HW1 4253   3.545  14.506  12.791
67493SOL    HW2 4254   3.402  14.484  12.836
67494SOL     OW 4255   5.156   8.245   7.879
67494SOL    HW1 4256   5.146   8.162   7.833
67494SOL    HW2 4257   5.250   8.256   7.890
67495SOL     OW 4258  12.414  10.746  14.275
67495SOL    HW1 4259  12.399  10.841  14.270
67495SOL    HW2 4260  12.489  10.731  14.217
67496SOL     OW 4261  12.021   1.218   2.034
67496SOL    HW1 4262  12.112   1.191   2.047
67496SOL    HW2 4263  11.972   1.136   2.029
67497SOL     OW 4264   7.378   1.615  11.718
67497SOL    HW1 4265   7.288   1.617  11.749
67497SOL    HW2 4266   7.430   1.607  11.798
67498SOL     OW 4267   8.530   3.183  10.066
67498SOL    HW1 4268   8.453   3.137  10.031
67498SOL    HW2 4269   8.569   3.122  10.128
67499SOL     OW 4270  14.623  13.656   5.284
67499SOL    HW1 4271  14.533  13.634   5.305
67499SOL    HW2 4272  14.668  13.571   5.279
67500SOL     OW 4273  13.949  12.201   2.301
67500SOL    HW1 4274  14.042  12.218   2.319
67500SOL    HW2 4275  13.906  12.286   2.315
67501SOL     OW 4276   4.214   4.128   1.949
67501SOL    HW1 4277   4.163   4.168   1.879
67501SOL    HW2 4278   4.304   4.131   1.918
67502SOL     OW 4279  11.955   2.550   0.837
67502SOL    HW1 4280  11.869   2.567   0.875
67502SOL    HW2 4281  11.942   2.472   0.783
67503SOL     OW 4282   4.197   7.982  12.998
67503SOL    HW1 4283   4.214   7.906  12.943
67503SOL    HW2 4284   4.184   8.054  12.936
67504SOL     OW 4285   1.683   9.188   6.322
67504SOL    HW1 4286   1.596   9.224   6.309
67504SOL    HW2 4287   1.699   9.135   6.243
67505SOL     OW 4288   5.505   1.263   7.395
67505SOL    HW1 4289   5.509   1.314   7.315
67505SOL    HW2 4290   5.583   1.289   7.445
67506SOL     OW 4291   9.111  12.443   1.974
67506SOL    HW1 4292   9.151  12.483   1.897
67506SOL    HW2 4293   9.101  12.351   1.951
67507SOL     OW 4294   0.331   8.879   5.142
67507SOL    HW1 4295   0.403   8.943   5.144
67507SOL    HW2 4296   0.286   8.890   5.226
67508SOL     OW 4297   2.492  14.765   5.147
67508SOL    HW1 4298   2.447  14.847   5.165
67508SOL    HW2 4299   2.569  14.790   5.095
67509SOL     OW 4300   7.494   0.127  12.156
67509SOL    HW1 4301   7.589   0.122  12.157
67509SOL    HW2 4302   7.473   0.206  12.206
67510SOL     OW 4303   5.907   5.368  13.114
67510SOL    HW1 4304   5.817   5.387  13.086
67510SOL    HW2 4305   5.903   5.367  13.209
67511SOL     OW 4306   1.710  10.713   9.636
67511SOL    HW1 4307   1.648  10.718   9.709
67511SOL    HW2 4308   1.657  10.685   9.562
67512SOL     OW 4309   8.493   3.652   3.011
67512SOL    HW1 4310   8.397   3.660   3.010
67512SOL    HW2 4311   8.520   3.687   2.926
67513SOL     OW 4312  12.763   5.855   0.242
67513SOL    HW1 4313  12.745   5.822   0.330
67513SOL    HW2 4314  12.773   5.949   0.253
67514SOL     OW 4315   5.894   8.499  12.581
67514SOL    HW1 4316   5.836   8.486  12.656
67514SOL    HW2 4317   5.925   8.590  12.591
67515SOL     OW 4318  11.991  12.043  12.456
67515SOL    HW1 4319  11.903  12.079  12.463
67515SOL    HW2 4320  11.983  11.972  12.392
67516SOL     OW 4321   1.567  12.295   1.702
67516SOL    HW1 4322   1.531  12.281   1.790
67516SOL    HW2 4323   1.577  12.390   1.695
67517SOL     OW 4324   7.402   1.266  12.592
67517SOL    HW1 4325   7.406   1.188  12.647
67517SOL    HW2 4326   7.420   1.234  12.503
67518SOL     OW 4327  10.922   5.965   6.748
67518SOL    HW1 4328  10.929   5.970   6.653
67518SOL    HW2 4329  10.976   5.890   6.772
67519SOL     OW 4330   4.530   8.937   2.930
67519SOL    HW1 4331   4.506   8.845   2.938
67519SOL    HW2 4332   4.451   8.986   2.955
67520SOL     OW 4333   5.805   1.871   5.757
67520SOL    HW1 4334   5.837   1.903   5.841
67520SOL    HW2 4335   5.782   1.780   5.774
67521SOL     OW 4336   5.990   1.257   6.943
67521SOL    HW1 4337   5.965   1.318   6.874
67521SOL    HW2 4338   6.083   1.239   6.928
67522SOL     OW 4339   2.428   6.254   9.640
67522SOL    HW1 4340   2.408   6.255   9.734
67522SOL    HW2 4341   2.380   6.330   9.605
67523SOL     OW 4342  11.113  12.578  13.964
67523SOL    HW1 4343  11.062  12.500  13.988
67523SOL    HW2 4344  11.103  12.584  13.869
67524SOL     OW 4345  10.104  12.845   0.785
67524SOL    HW1 4346  10.188  12.813   0.818
67524SOL    HW2 4347  10.053  12.864   0.864
67525SOL     OW 4348   2.844   3.979   1.481
67525SOL    HW1 4349   2.774   3.972   1.546
67525SOL    HW2 4350   2.893   4.056   1.508
67526SOL     OW 4351   8.863  10.970   4.958
67526SOL    HW1 4352   8.878  10.969   4.863
67526SOL    HW2 4353   8.904  10.889   4.989
67527SOL     OW 4354   6.569   0.551   7.020
67527SOL    HW1 4355   6.484   0.585   7.050
67527SOL    HW2 4356   6.548   0.465   6.983
67528SOL     OW 4357   5.592   8.145   6.057
67528SOL    HW1 4358   5.529   8.086   6.017
67528SOL    HW2 4359   5.660   8.156   5.991
67529SOL     OW 4360   9.200   7.686   2.807
67529SOL    HW1 4361   9.191   7.669   2.713
67529SOL    HW2 4362   9.294   7.680   2.822
67530SOL     OW 4363  10.927   9.014   3.516
67530SOL    HW1 4364  10.972   9.054   3.441
67530SOL    HW2 4365  10.997   8.979   3.570
67531SOL     OW 4366   1.467   3.450  11.943
67531SOL    HW1 4367   1.466   3.366  11.990
67531SOL    HW2 4368   1.431   3.428  11.856
67532SOL     OW 4369   1.147   7.693  13.468
67532SOL    HW1 4370   1.132   7.623  13.404
67532SOL    HW2 4371   1.161   7.646  13.550
67533SOL     OW 4372   7.180  13.961  11.403
67533SOL    HW1 4373   7.128  13.966  11.483
67533SOL    HW2 4374   7.251  14.024  11.416
67534SOL     OW 4375   4.003   3.567   0.524
67534SOL    HW1 4376   4.039   3.583   0.437
67534SOL    HW2 4377   3.953   3.646   0.544
67535SOL     OW 4378  14.750  14.176   2.356
67535SOL    HW1 4379  14.713  14.224   2.282
67535SOL    HW2 4380  14.742  14.084   2.330
67536SOL     OW 4381   8.263  12.628   3.302
67536SOL    HW1 4382   8.329  12.682   3.346
67536SOL    HW2 4383   8.291  12.628   3.210
67537SOL     OW 4384   2.504   4.221   3.114
67537SOL    HW1 4385   2.470   4.284   3.178
67537SOL    HW2 4386   2.447   4.231   3.038
67538SOL     OW 4387   4.006  14.496  12.623
67538SOL    HW1 4388   3.940  14.560  12.597
67538SOL    HW2 4389   3.955  14.425  12.662
67539SOL     OW 4390   8.143  12.837   4.709
67539SOL    HW1 4391   8.175  12.748   4.692
67539SOL    HW2 4392   8.119  12.870   4.623
67540SOL     OW 4393   2.554   4.113   7.723
67540SOL    HW1 4394   2.586   4.033   7.681
67540SOL    HW2 4395   2.562   4.096   7.816
67541SOL     OW 4396   0.744   7.411   5.382
67541SOL    HW1 4397   0.703   7.340   5.432
67541SOL    HW2 4398   0.680   7.482   5.385
67542SOL     OW 4399   8.853   5.947   0.142
67542SOL    HW1 4400   8.836   6.040   0.128
67542SOL    HW2 4401   8.774   5.903   0.110
67543SOL     OW 4402   4.983   5.913   8.073
67543SOL    HW1 4403   5.077   5.903   8.089
67543SOL    HW2 4404   4.947   5.826   8.091
67544SOL     OW 4405   4.781   5.784   7.871
67544SOL    HW1 4406   4.826   5.701   7.859
67544SOL    HW2 4407   4.806   5.813   7.958
67545SOL     OW 4408   7.936  12.260   3.950
67545SOL    HW1 4409   8.011  12.299   3.995
67545SOL    HW2 4410   7.916  12.322   3.880
67546SOL     OW 4411  10.077  13.039   7.883
67546SOL    HW1 4412  10.096  12.999   7.799
67546SOL    HW2 4413  10.024  13.116   7.862
67547SOL     OW 4414  10.145   0.837  14.334
67547SOL    HW1 4415  10.078   0.904  14.347
67547SOL    HW2 4416  10.203   0.846  14.410
67548SOL     OW 4417   1.342   4.261  14.141
67548SOL    HW1 4418   1.382   4.309  14.068
67548SOL    HW2 4419   1.314   4.178  14.101
67549SOL     OW 4420   3.139  13.043   4.186
67549SOL    HW1 4421   3.069  13.093   4.145
67549SOL    HW2 4422   3.164  13.095   4.262
67550SOL     OW 4423   8.485  14.561   2.479
67550SOL    HW1 4424   8.562  14.529   2.433
67550SOL    HW2 4425   8.416  14.562   2.413
67551SOL     OW 4426   0.436   2.218   4.699
67551SOL    HW1 4427   0.374   2.290   4.715
67551SOL    HW2 4428   0.496   2.253   4.633
67552SOL     OW 4429   8.163  14.344   0.416
67552SOL    HW1 4430   8.218  14.352   0.494
67552SOL    HW2 4431   8.201  14.270   0.367
67553SOL     OW 4432   7.285  13.224   9.939
67553SOL    HW1 4433   7.209  13.226   9.881
67553SOL    HW2 4434   7.303  13.131   9.952
67554SOL     OW 4435   9.076   5.606   2.091
67554SOL    HW1 4436   9.093   5.694   2.126
67554SOL    HW2 4437   9.006   5.571   2.147
67555SOL     OW 4438   7.310   8.698   0.412
67555SOL    HW1 4439   7.293   8.667   0.323
67555SOL    HW2 4440   7.337   8.789   0.401
67556SOL     OW 4441   7.263   8.754   4.769
67556SOL    HW1 4442   7.265   8.665   4.804
67556SOL    HW2 4443   7.348   8.764   4.725
67557SOL     OW 4444   0.670   6.328   8.670
67557SOL    HW1 4445   0.586   6.346   8.627
67557SOL    HW2 4446   0.725   6.403   8.646
67558SOL     OW 4447  12.483   3.359   7.200
67558SOL    HW1 4448  12.453   3.282   7.247
67558SOL    HW2 4449  12.568   3.333   7.165
67559SOL     OW 4450   3.349  12.370   0.359
67559SOL    HW1 4451   3.356  12.360   0.264
67559SOL    HW2 4452   3.362  12.282   0.394
67560SOL     OW 4453   3.094   5.751   5.533
67560SOL    HW1 4454   3.036   5.676   5.543
67560SOL    HW2 4455   3.133   5.763   5.620
67561SOL     OW 4456   7.346   2.656   7.920
67561SOL    HW1 4457   7.402   2.609   7.858
67561SOL    HW2 4458   7.348   2.601   7.999
67562SOL     OW 4459   6.323  11.263   9.498
67562SOL    HW1 4460   6.328  11.168   9.509
67562SOL    HW2 4461   6.412  11.293   9.513
67563SOL     OW 4462   8.114   7.916   7.530
67563SOL    HW1 4463   8.142   7.824   7.523
67563SOL    HW2 4464   8.140   7.941   7.619
67564SOL     OW 4465  12.098   5.943   7.404
67564SOL    HW1 4466  12.028   5.901   7.355
67564SOL    HW2 4467  12.177   5.893   7.381
67565SOL     OW 4468   9.850   6.880   8.785
67565SOL    HW1 4469   9.862   6.870   8.691
67565SOL    HW2 4470   9.908   6.952   8.809
67566SOL     OW 4471  11.197   2.713  13.621
67566SOL    HW1 4472  11.273   2.665  13.588
67566SOL    HW2 4473  11.125   2.651  13.614
67567SOL     OW 4474  14.661  14.667  14.083
67567SOL    HW1 4475  14.673  14.761  14.076
67567SOL    HW2 4476  14.745  14.630  14.056
67568SOL     OW 4477   5.307  10.791   1.234
67568SOL    HW1 4478   5.360  10.712   1.250
67568SOL    HW2 4479   5.251  10.767   1.160
67569SOL     OW 4480   7.996   6.074   2.979
67569SOL    HW1 4481   7.938   6.009   2.939
67569SOL    HW2 4482   8.045   6.026   3.045
67570SOL     OW 4483  11.949  10.417   7.054
67570SOL    HW1 4484  11.910  10.330   7.052
67570SOL    HW2 4485  11.950  10.441   7.147
67571SOL     OW 4486   6.621   2.217  14.154
67571SOL    HW1 4487   6.717   2.211  14.154
67571SOL    HW2 4488   6.601   2.292  14.210
67572SOL     OW 4489   9.651   2.569  12.616
67572SOL    HW1 4490   9.708   2.568  12.693
67572SOL    HW2 4491   9.639   2.476  12.595
67573SOL     OW 4492  13.484   5.032   3.658
67573SOL    HW1 4493  13.471   5.117   3.616
67573SOL    HW2 4494  13.403   5.017   3.708
67574SOL     OW 4495   5.028   2.313  13.461
67574SOL    HW1 4496   5.031   2.336  13.368
67574SOL    HW2 4497   4.967   2.376  13.500
67575SOL     OW 4498   1.018   7.123   0.787
67575SOL    HW1 4499   1.053   7.192   0.844
67575SOL    HW2 4500   0.969   7.170   0.719
67576SOL     OW 4501   2.654   0.476   3.420
67576SOL    HW1 4502   2.612   0.562   3.409
67576SOL    HW2 4503   2.585   0.413   3.401
67577SOL     OW 4504   5.091  11.681   6.216
67577SOL    HW1 4505   5.144  11.761   6.212
67577SOL    HW2 4506   5.015  11.700   6.162
67578SOL     OW 4507   5.877  10.905   1.150
67578SOL    HW1 4508   5.914  10.990   1.129
67578SOL    HW2 4509   5.946  10.842   1.128
67579SOL     OW 4510   9.046  13.875   7.468
67579SOL    HW1 4511   8.957  13.882   7.432
67579SOL    HW2 4512   9.039  13.912   7.556
67580SOL     OW 4513   7.649  14.027  10.068
67580SOL    HW1 4514   7.708  14.021  10.143
67580SOL    HW2 4515   7.582  13.960  10.084
67581SOL     OW 4516   8.782   4.307   7.347
67581SOL    HW1 4517   8.863   4.268   7.378
67581SOL    HW2 4518   8.793   4.401   7.360
67582SOL     OW 4519   2.160  14.676   8.272
67582SOL    HW1 4520   2.150  14.703   8.363
67582SOL    HW2 4521   2.201  14.589   8.277
67583SOL     OW 4522  10.473   9.568   2.038
67583SOL    HW1 4523  10.497   9.587   1.948
67583SOL    HW2 4524  10.440   9.478   2.036
67584SOL     OW 4525   3.309  11.858  14.540
67584SOL    HW1 4526   3.338  11.819  14.622
67584SOL    HW2 4527   3.331  11.793  14.473
67585SOL     OW 4528   4.174   3.352   9.520
67585SOL    HW1 4529   4.230   3.275   9.528
67585SOL    HW2 4530   4.228   3.425   9.551
67586SOL     OW 4531   3.160   9.496  11.860
67586SOL    HW1 4532   3.080   9.469  11.814
67586SOL    HW2 4533   3.226   9.432  11.834
67587SOL     OW 4534   8.161   4.331   5.309
67587SOL    HW1 4535   8.199   4.411   5.347
67587SOL    HW2 4536   8.211   4.318   5.228
67588SOL     OW 4537   6.914   4.468   4.171
67588SOL    HW1 4538   6.856   4.465   4.095
67588SOL    HW2 4539   6.978   4.536   4.149
67589SOL     OW 4540   5.180   7.615   4.580
67589SOL    HW1 4541   5.182   7.706   4.551
67589SOL    HW2 4542   5.209   7.565   4.503
67590SOL     OW 4543   5.653  11.351  10.286
67590SOL    HW1 4544   5.605  11.282  10.332
67590SOL    HW2 4545   5.589  11.390  10.226
67591SOL     OW 4546  13.988  12.263   3.888
67591SOL    HW1 4547  13.895  12.283   3.900
67591SOL    HW2 4548  14.033  12.331   3.939
67592SOL     OW 4549   6.322   7.672  14.777
67592SOL    HW1 4550   6.372   7.753  14.783
67592SOL    HW2 4551   6.389   7.603  14.780
67593SOL     OW 4552  12.427   9.003  10.833
67593SOL    HW1 4553  12.460   8.947  10.762
67593SOL    HW2 4554  12.390   9.079  10.789
67594SOL     OW 4555  14.837   5.357   5.338
67594SOL    HW1 4556  14.840   5.268   5.376
67594SOL    HW2 4557  14.815   5.343   5.246
67595SOL     OW 4558  11.714   3.513  11.219
67595SOL    HW1 4559  11.619   3.502  11.225
67595SOL    HW2 4560  11.731   3.522  11.125
67596SOL     OW 4561   2.845  13.142   1.789
67596SOL    HW1 4562   2.850  13.225   1.741
67596SOL    HW2 4563   2.902  13.082   1.739
67597SOL     OW 4564   1.675  13.830   0.270
67597SOL    HW1 4565   1.729  13.751   0.280
67597SOL    HW2 4566   1.622  13.813   0.192
67598SOL     OW 4567  13.550   6.428   7.570
67598SOL    HW1 4568  13.511   6.434   7.657
67598SOL    HW2 4569  13.559   6.519   7.541
67599SOL     OW 4570  12.907  11.096   2.669
67599SOL    HW1 4571  12.949  11.020   2.709
67599SOL    HW2 4572  12.905  11.162   2.738
67600SOL     OW 4573   6.775   0.922  11.098
67600SOL    HW1 4574   6.830   0.882  11.031
67600SOL    HW2 4575   6.706   0.967  11.049
67601SOL     OW 4576   4.043   3.849  11.077
67601SOL    HW1 4577   3.953   3.881  11.069
67601SOL    HW2 4578   4.096   3.914  11.030
67602SOL     OW 4579   7.711  11.379   6.397
67602SOL    HW1 4580   7.751  11.387   6.483
67602SOL    HW2 4581   7.639  11.442   6.398
67603SOL     OW 4582   1.504   8.763  14.381
67603SOL    HW1 4583   1.596   8.775  14.361
67603SOL    HW2 4584   1.496   8.784  14.474
67604SOL     OW 4585   3.431   1.925  10.612
67604SOL    HW1 4586   3.431   1.842  10.659
67604SOL    HW2 4587   3.498   1.914  10.544
67605SOL     OW 4588   5.729  12.002  11.143
67605SOL    HW1 4589   5.685  11.943  11.203
67605SOL    HW2 4590   5.801  11.951  11.106
67606SOL     OW 4591  12.466  11.591  10.698
67606SOL    HW1 4592  12.375  11.564  10.687
67606SOL    HW2 4593  12.467  11.644  10.778
67607SOL     OW 4594   9.615   3.139  11.082
67607SOL    HW1 4595   9.583   3.216  11.128
67607SOL    HW2 4596   9.656   3.085  11.149
67608SOL     OW 4597   0.222  13.988  13.246
67608SOL    HW1 4598   0.314  13.995  13.219
67608SOL    HW2 4599   0.172  14.000  13.165
67609SOL     OW 4600   2.807   8.068  11.762
67609SOL    HW1 4601   2.878   8.128  11.786
67609SOL    HW2 4602   2.828   7.986  11.808
67610SOL     OW 4603  10.342   7.146   9.854
67610SOL    HW1 4604  10.284   7.100   9.914
67610SOL    HW2 4605  10.349   7.234   9.891
67611SOL     OW 4606   7.158  11.202  14.289
67611SOL    HW1 4607   7.115  11.119  14.270
67611SOL    HW2 4608   7.221  11.213  14.217
67612SOL     OW 4609   5.515   4.322   5.229
67612SOL    HW1 4610   5.502   4.295   5.320
67612SOL    HW2 4611   5.434   4.297   5.185
67613SOL     OW 4612   8.220   5.005  14.045
67613SOL    HW1 4613   8.139   5.012  14.097
67613SOL    HW2 4614   8.276   5.076  14.079
67614SOL     OW 4615   5.988  13.076   7.868
67614SOL    HW1 4616   6.063  13.091   7.810
67614SOL    HW2 4617   6.006  13.132   7.944
67615SOL     OW 4618  13.243  12.131   2.364
67615SOL    HW1 4619  13.245  12.037   2.348
67615SOL    HW2 4620  13.253  12.170   2.277
67616SOL     OW 4621   2.571  14.493   2.543
67616SOL    HW1 4622   2.649  14.461   2.499
67616SOL    HW2 4623   2.562  14.584   2.513
67617SOL     OW 4624  13.921   8.648   0.711
67617SOL    HW1 4625  13.873   8.642   0.629
67617SOL    HW2 4626  13.924   8.558   0.744
67618SOL     OW 4627   3.350   8.707   3.474
67618SOL    HW1 4628   3.435   8.751   3.471
67618SOL    HW2 4629   3.301   8.752   3.543
67619SOL     OW 4630  14.572   8.169   1.271
67619SOL    HW1 4631  14.548   8.146   1.181
67619SOL    HW2 4632  14.651   8.222   1.260
67620SOL     OW 4633   0.898  10.986   7.087
67620SOL    HW1 4634   0.934  10.942   7.164
67620SOL    HW2 4635   0.842  10.920   7.046
67621SOL     OW 4636  11.277  11.836  11.248
67621SOL    HW1 4637  11.313  11.815  11.334
67621SOL    HW2 4638  11.182  11.832  11.261
67622SOL     OW 4639   5.938   1.056   9.244
67622SOL    HW1 4640   5.910   0.989   9.307
67622SOL    HW2 4641   5.927   1.014   9.159
67623SOL     OW 4642   8.722   0.413   6.525
67623SOL    HW1 4643   8.681   0.328   6.542
67623SOL    HW2 4644   8.669   0.476   6.574
67624SOL     OW 4645   1.751   0.394   7.723
67624SOL    HW1 4646   1.695   0.449   7.668
67624SOL    HW2 4647   1.836   0.397   7.680
67625SOL     OW 4648   1.253  13.493   0.263
67625SOL    HW1 4649   1.224  13.439   0.189
67625SOL    HW2 4650   1.217  13.580   0.245
67626SOL     OW 4651  11.601  12.305  13.213
67626SOL    HW1 4652  11.612  12.213  13.237
67626SOL    HW2 4653  11.685  12.330  13.175
67627SOL     OW 4654  14.045  11.207  12.773
67627SOL    HW1 4655  13.986  11.237  12.842
67627SOL    HW2 4656  14.096  11.137  12.814
67628SOL     OW 4657  11.570   4.515  11.004
67628SOL    HW1 4658  11.475   4.517  11.013
67628SOL    HW2 4659  11.586   4.456  10.930
67629SOL     OW 4660   7.557  10.194  12.617
67629SOL    HW1 4661   7.571  10.286  12.635
67629SOL    HW2 4662   7.462  10.182  12.624
67630SOL     OW 4663   5.349  11.019   8.871
67630SOL    HW1 4664   5.305  11.103   8.883
67630SOL    HW2 4665   5.428  11.026   8.924
67631SOL     OW 4666   2.837  12.614   3.741
67631SOL    HW1 4667   2.741  12.608   3.734
67631SOL    HW2 4668   2.865  12.525   3.762
67632SOL     OW 4669   5.770   6.210   2.563
67632SOL    HW1 4670   5.759   6.195   2.469
67632SOL    HW2 4671   5.684   6.241   2.593
67633SOL     OW 4672   8.710   5.343  11.755
67633SOL    HW1 4673   8.726   5.254  11.723
67633SOL    HW2 4674   8.722   5.337  11.850
67634SOL     OW 4675  10.049  12.173   8.296
67634SOL    HW1 4676  10.003  12.216   8.225
67634SOL    HW2 4677  10.135  12.215   8.298
67635SOL     OW 4678   0.078   0.793   2.962
67635SOL    HW1 4679   0.003   0.778   3.020
67635SOL    HW2 4680   0.144   0.834   3.019
67636SOL     OW 4681  10.409   6.488   1.420
67636SOL    HW1 4682  10.352   6.422   1.458
67636SOL    HW2 4683  10.352   6.564   1.407
67637SOL     OW 4684  14.344   3.405   7.226
67637SOL    HW1 4685  14.251   3.427   7.233
67637SOL    HW2 4686  14.384   3.479   7.181
67638SOL     OW 4687   8.861   4.438   2.786
67638SOL    HW1 4688   8.859   4.534   2.788
67638SOL    HW2 4689   8.769   4.412   2.798
67639SOL     OW 4690   7.075   9.771  12.229
67639SOL    HW1 4691   6.983   9.797  12.225
67639SOL    HW2 4692   7.077   9.684  12.188
67640SOL     OW 4693   1.100   0.660  11.608
67640SOL    HW1 4694   1.144   0.722  11.667
67640SOL    HW2 4695   1.116   0.694  11.520
67641SOL     OW 4696  11.124   1.973   3.265
67641SOL    HW1 4697  11.216   1.999   3.270
67641SOL    HW2 4698  11.125   1.888   3.222
67642SOL     OW 4699   0.231   6.816   2.484
67642SOL    HW1 4700   0.244   6.893   2.428
67642SOL    HW2 4701   0.300   6.755   2.457
67643SOL     OW 4702   2.907   9.150   7.271
67643SOL    HW1 4703   2.987   9.147   7.219
67643SOL    HW2 4704   2.933   9.194   7.353
67644SOL     OW 4705   3.161   7.379   2.034
67644SOL    HW1 4706   3.127   7.314   2.095
67644SOL    HW2 4707   3.253   7.358   2.024
67645SOL     OW 4708  13.450   4.184   3.680
67645SOL    HW1 4709  13.487   4.165   3.767
67645SOL    HW2 4710  13.505   4.255   3.646
67646SOL     OW 4711   6.022  11.634   3.479
67646SOL    HW1 4712   5.932  11.658   3.499
67646SOL    HW2 4713   6.017  11.544   3.448
67647SOL     OW 4714  13.451   9.151   9.278
67647SOL    HW1 4715  13.359   9.158   9.251
67647SOL    HW2 4716  13.497   9.125   9.199
67648SOL     OW 4717   5.855   8.300   6.559
67648SOL    HW1 4718   5.873   8.295   6.465
67648SOL    HW2 4719   5.847   8.394   6.577
67649SOL     OW 4720   5.443  10.358   6.913
67649SOL    HW1 4721   5.437  10.292   6.844
67649SOL    HW2 4722   5.425  10.441   6.868
67650SOL     OW 4723  12.737  10.247  13.734
67650SOL    HW1 4724  12.673  10.273  13.669
67650SOL    HW2 4725  12.821  10.277  13.698
67651SOL     OW 4726   2.511   5.225   1.909
67651SOL    HW1 4727   2.510   5.155   1.974
67651SOL    HW2 4728   2.564   5.294   1.949
67652SOL     OW 4729   4.676   7.603   1.842
67652SOL    HW1 4730   4.731   7.665   1.794
67652SOL    HW2 4731   4.660   7.646   1.926
67653SOL     OW 4732   4.685   9.312   9.317
67653SOL    HW1 4733   4.717   9.229   9.352
67653SOL    HW2 4734   4.760   9.351   9.273
67654SOL     OW 4735  13.313  13.254   5.421
67654SOL    HW1 4736  13.386  13.203   5.388
67654SOL    HW2 4737  13.305  13.327   5.360
67655SOL     OW 4738  13.185   5.833   7.370
67655SOL    HW1 4739  13.195   5.826   7.275
67655SOL    HW2 4740  13.156   5.924   7.384
67656SOL     OW 4741   2.042   1.991  12.647
67656SOL    HW1 4742   1.954   2.010  12.681
67656SOL    HW2 4743   2.062   2.065  12.591
67657SOL     OW 4744   9.773   6.431   7.260
67657SOL    HW1 4745   9.861   6.468   7.264
67657SOL    HW2 4746   9.754   6.403   7.350
67658SOL     OW 4747   8.526  14.455   8.049
67658SOL    HW1 4748   8.560  14.484   7.965
67658SOL    HW2 4749   8.584  14.384   8.076
67659SOL     OW 4750  14.591   6.133   0.776
67659SOL    HW1 4751  14.528   6.144   0.705
67659SOL    HW2 4752  14.668   6.182   0.748
67660SOL     OW 4753  14.676  12.151   0.004
67660SOL    HW1 4754  14.716  12.151   0.091
67660SOL    HW2 4755  14.707  12.070  14.844
67661SOL     OW 4756  12.084   1.520   6.543
67661SOL    HW1 4757  12.145   1.521   6.617
67661SOL    HW2 4758  12.112   1.592   6.487
67662SOL     OW 4759   7.153   4.301   8.683
67662SOL    HW1 4760   7.163   4.380   8.737
67662SOL    HW2 4761   7.233   4.300   8.629
67663SOL     OW 4762  14.612   9.946   4.350
67663SOL    HW1 4763  14.586  10.027   4.306
67663SOL    HW2 4764  14.568   9.951   4.435
67664SOL     OW 4765   1.005  13.844   9.738
67664SOL    HW1 4766   0.998  13.899   9.659
67664SOL    HW2 4767   0.921  13.799   9.743
67665SOL     OW 4768   4.902   5.256   9.448
67665SOL    HW1 4769   4.922   5.333   9.501
67665SOL    HW2 4770   4.953   5.269   9.367
67666SOL     OW 4771   8.517   9.047   4.712
67666SOL    HW1 4772   8.472   9.043   4.628
67666SOL    HW2 4773   8.551   9.137   4.717
67667SOL     OW 4774  13.873   3.041   1.354
67667SOL    HW1 4775  13.800   3.022   1.413
67667SOL    HW2 4776  13.944   2.984   1.385
67668SOL     OW 4777   9.215   9.719  12.162
67668SOL    HW1 4778   9.193   9.790  12.223
67668SOL    HW2 4779   9.135   9.666  12.158
67669SOL     OW 4780   8.672  10.539   7.953
67669SOL    HW1 4781   8.636  10.588   7.879
67669SOL    HW2 4782   8.597  10.497   7.994
67670SOL     OW 4783   4.235   1.313   3.490
67670SOL    HW1 4784   4.273   1.327   3.577
67670SOL    HW2 4785   4.304   1.268   3.441
67671SOL     OW 4786  10.217   6.039   4.005
67671SOL    HW1 4787  10.285   6.103   3.987
67671SOL    HW2 4788  10.232   6.012   4.095
67672SOL     OW 4789   6.624  13.500  13.572
67672SOL    HW1 4790   6.609  13.566  13.504
67672SOL    HW2 4791   6.536  13.476  13.601
67673SOL     OW 4792   9.030  12.661   5.987
67673SOL    HW1 4793   9.025  12.690   5.896
67673SOL    HW2 4794   9.096  12.717   6.027
67674SOL     OW 4795   9.979   0.736   6.531
67674SOL    HW1 4796   9.937   0.806   6.580
67674SOL    HW2 4797  10.032   0.781   6.465
67675SOL     OW 4798   2.659   8.413   2.409
67675SOL    HW1 4799   2.595   8.427   2.339
67675SOL    HW2 4800   2.739   8.454   2.377
67676SOL     OW 4801   9.581   5.075   1.602
67676SOL    HW1 4802   9.525   4.999   1.616
67676SOL    HW2 4803   9.520   5.148   1.591
67677SOL     OW 4804  13.583   4.858   9.412
67677SOL    HW1 4805  13.573   4.881   9.504
67677SOL    HW2 4806  13.665   4.901   9.386
67678SOL     OW 4807   7.180   8.119   8.516
67678SOL    HW1 4808   7.111   8.054   8.500
67678SOL    HW2 4809   7.199   8.111   8.609
67679SOL     OW 4810   8.932   5.712   5.319
67679SOL    HW1 4811   8.851   5.679   5.360
67679SOL    HW2 4812   8.909   5.799   5.287
67680SOL     OW 4813   9.339   7.954   3.318
67680SOL    HW1 4814   9.394   7.921   3.247
67680SOL    HW2 4815   9.348   7.889   3.388
67681SOL     OW 4816   7.725  12.766   5.841
67681SOL    HW1 4817   7.663  12.831   5.874
67681SOL    HW2 4818   7.759  12.806   5.760
67682SOL     OW 4819  14.286   5.800   3.920
67682SOL    HW1 4820  14.251   5.866   3.979
67682SOL    HW2 4821  14.379   5.794   3.944
67683SOL     OW 4822   1.615  13.711   8.815
67683SOL    HW1 4823   1.602  13.806   8.819
67683SOL    HW2 4824   1.601  13.682   8.905
67684SOL     OW 4825   5.478   6.012   9.317
67684SOL    HW1 4826   5.492   6.026   9.410
67684SOL    HW2 4827   5.405   6.070   9.294
67685SOL     OW 4828  13.382   9.919  11.593
67685SOL    HW1 4829  13.347   9.862  11.524
67685SOL    HW2 4830  13.378  10.007  11.556
67686SOL     OW 4831   3.228   4.345   4.733
67686SOL    HW1 4832   3.198   4.263   4.771
67686SOL    HW2 4833   3.151   4.380   4.687
67687SOL     OW 4834  14.874   6.930   7.653
67687SOL    HW1 4835  14.780   6.913   7.658
67687SOL    HW2 4836   0.000   7.025   7.654
67688SOL     OW 4837  10.818   3.093   5.362
67688SOL    HW1 4838  10.753   3.106   5.430
67688SOL    HW2 4839  10.866   3.014   5.388
67689SOL     OW 4840   5.953  12.221   4.830
67689SOL    HW1 4841   5.957  12.163   4.754
67689SOL    HW2 4842   6.007  12.296   4.806
67690SOL     OW 4843   9.334   2.153   4.216
67690SOL    HW1 4844   9.271   2.179   4.148
67690SOL    HW2 4845   9.387   2.231   4.231
67691SOL     OW 4846   9.041   6.694  12.263
67691SOL    HW1 4847   9.100   6.746  12.210
67691SOL    HW2 4848   8.973   6.664  12.202
67692SOL     OW 4849   0.818   6.423  12.568
67692SOL    HW1 4850   0.831   6.505  12.520
67692SOL    HW2 4851   0.741   6.383  12.527
67693SOL     OW 4852  14.444   9.923   1.936
67693SOL    HW1 4853  14.491   9.920   1.853
67693SOL    HW2 4854  14.362   9.876   1.920
67694SOL     OW 4855   3.858   4.979   4.243
67694SOL    HW1 4856   3.926   4.975   4.311
67694SOL    HW2 4857   3.778   5.002   4.290
67695SOL     OW 4858  10.831   7.574   0.952
67695SOL    HW1 4859  10.786   7.544   0.872
67695SOL    HW2 4860  10.921   7.592   0.923
67696SOL     OW 4861   6.973  14.452   4.697
67696SOL    HW1 4862   7.058  14.484   4.668
67696SOL    HW2 4863   6.925  14.531   4.723
67697SOL     OW 4864   3.499   0.924   5.615
67697SOL    HW1 4865   3.573   0.921   5.677
67697SOL    HW2 4866   3.539   0.908   5.530
67698SOL     OW 4867  12.636   6.802   1.060
67698SOL    HW1 4868  12.660   6.749   0.984
67698SOL    HW2 4869  12.559   6.758   1.097
67699SOL     OW 4870   2.321   6.905  10.585
67699SOL    HW1 4871   2.246   6.891  10.644
67699SOL    HW2 4872   2.299   6.984  10.536
67700SOL     OW 4873  12.566  14.138  11.781
67700SOL    HW1 4874  12.653  14.101  11.793
67700SOL    HW2 4875  12.578  14.233  11.788
67701SOL     OW 4876  14.532  12.908   7.187
67701SOL    HW1 4877  14.524  12.997   7.221
67701SOL    HW2 4878  14.580  12.918   7.105
67702SOL     OW 4879  10.437   8.559   8.085
67702SOL    HW1 4880  10.398   8.472   8.085
67702SOL    HW2 4881  10.521   8.548   8.129
67703SOL     OW 4882   4.180  11.462  13.323
67703SOL    HW1 4883   4.140  11.546  13.346
67703SOL    HW2 4884   4.119  11.422  13.262
67704SOL     OW 4885   9.342   6.594   0.338
67704SOL    HW1 4886   9.285   6.610   0.262
67704SOL    HW2 4887   9.338   6.500   0.351
67705SOL     OW 4888   4.424   3.512   8.096
67705SOL    HW1 4889   4.486   3.462   8.043
67705SOL    HW2 4890   4.428   3.471   8.182
67706SOL     OW 4891   6.219   9.604   5.131
67706SOL    HW1 4892   6.302   9.562   5.154
67706SOL    HW2 4893   6.168   9.535   5.088
67707SOL     OW 4894   6.548   4.824  14.705
67707SOL    HW1 4895   6.509   4.909  14.685
67707SOL    HW2 4896   6.477   4.774  14.745
67708SOL     OW 4897   1.362   0.960   0.846
67708SOL    HW1 4898   1.315   1.039   0.821
67708SOL    HW2 4899   1.431   0.991   0.905
67709SOL     OW 4900   6.711   8.315   9.233
67709SOL    HW1 4901   6.688   8.405   9.207
67709SOL    HW2 4902   6.694   8.263   9.154
67710SOL     OW 4903  11.707   2.048  11.590
67710SOL    HW1 4904  11.641   2.115  11.609
67710SOL    HW2 4905  11.726   2.060  11.497
67711SOL     OW 4906   6.223   8.207  12.729
67711SOL    HW1 4907   6.175   8.221  12.811
67711SOL    HW2 4908   6.158   8.172  12.669
67712SOL     OW 4909   1.208   9.216  12.304
67712SOL    HW1 4910   1.241   9.303  12.282
67712SOL    HW2 4911   1.176   9.181  12.221
67713SOL     OW 4912   1.336   7.005  12.991
67713SOL    HW1 4913   1.380   6.989  13.075
67713SOL    HW2 4914   1.374   6.939  12.932
67714SOL     OW 4915  11.181   5.855   6.385
67714SOL    HW1 4916  11.088   5.835   6.395
67714SOL    HW2 4917  11.222   5.769   6.373
67715SOL     OW 4918  11.431   3.765   9.008
67715SOL    HW1 4919  11.399   3.690   9.058
67715SOL    HW2 4920  11.447   3.833   9.074
67716SOL     OW 4921  14.419   6.813  11.587
67716SOL    HW1 4922  14.382   6.747  11.529
67716SOL    HW2 4923  14.450   6.882  11.528
67717SOL     OW 4924  11.444   6.967   1.842
67717SOL    HW1 4925  11.509   7.034   1.864
67717SOL    HW2 4926  11.470   6.936   1.755
67718SOL     OW 4927   0.980   1.773  14.623
67718SOL    HW1 4928   0.937   1.739  14.702
67718SOL    HW2 4929   0.908   1.805  14.568
67719SOL     OW 4930   8.310   2.582   3.031
67719SOL    HW1 4931   8.367   2.526   3.083
67719SOL    HW2 4932   8.242   2.610   3.092
67720SOL     OW 4933   3.581  12.235  14.545
67720SOL    HW1 4934   3.570  12.325  14.578
67720SOL    HW2 4935   3.526  12.232  14.467
67721SOL     OW 4936   7.595   6.205   5.900
67721SOL    HW1 4937   7.511   6.158   5.902
67721SOL    HW2 4938   7.644   6.168   5.973
67722SOL     OW 4939  11.418   9.444  11.681
67722SOL    HW1 4940  11.440   9.360  11.642
67722SOL    HW2 4941  11.498   9.496  11.672
67723SOL     OW 4942  12.894   0.791   2.521
67723SOL    HW1 4943  12.951   0.715   2.537
67723SOL    HW2 4944  12.893   0.838   2.605
67724SOL     OW 4945   4.469  10.334   7.098
67724SOL    HW1 4946   4.494  10.353   7.188
67724SOL    HW2 4947   4.388  10.283   7.105
67725SOL     OW 4948   0.583   8.004   0.528
67725SOL    HW1 4949   0.533   7.983   0.449
67725SOL    HW2 4950   0.640   8.077   0.500
67726SOL     OW 4951   7.429   8.108   3.740
67726SOL    HW1 4952   7.361   8.082   3.802
67726SOL    HW2 4953   7.385   8.109   3.655
67727SOL     OW 4954   9.055  11.742   4.057
67727SOL    HW1 4955   9.096  11.800   3.993
67727SOL    HW2 4956   9.068  11.786   4.141
67728SOL     OW 4957   9.878   1.924   7.895
67728SOL    HW1 4958   9.967   1.921   7.859
67728SOL    HW2 4959   9.835   1.847   7.857
67729SOL     OW 4960   1.226  14.865   0.658
67729SOL    HW1 4961   1.279   0.045   0.708
67729SOL    HW2 4962   1.138  14.872   0.695
67730SOL     OW 4963  14.790   2.880  12.406
67730SOL    HW1 4964  14.779   2.819  12.332
67730SOL    HW2 4965  14.765   2.965  12.370
67731SOL     OW 4966   8.145   3.771   8.251
67731SOL    HW1 4967   8.218   3.721   8.289
67731SOL    HW2 4968   8.183   3.815   8.175
67732SOL     OW 4969  12.590   0.905   2.844
67732SOL    HW1 4970  12.555   0.865   2.924
67732SOL    HW2 4971  12.580   0.999   2.857
67733SOL     OW 4972   6.569  13.507  10.519
67733SOL    HW1 4973   6.528  13.585  10.482
67733SOL    HW2 4974   6.537  13.504  10.609
67734SOL     OW 4975   0.707  14.747   1.614
67734SOL    HW1 4976   0.618  14.774   1.591
67734SOL    HW2 4977   0.708  14.746   1.710
67735SOL     OW 4978   9.070  12.160   6.439
67735SOL    HW1 4979   9.052  12.184   6.530
67735SOL    HW2 4980   9.030  12.074   6.428
67736SOL     OW 4981   2.535  11.787   2.552
67736SOL    HW1 4982   2.520  11.862   2.610
67736SOL    HW2 4983   2.500  11.815   2.467
67737SOL     OW 4984   7.642   8.898  11.774
67737SOL    HW1 4985   7.669   8.812  11.807
67737SOL    HW2 4986   7.690   8.909  11.692
67738SOL     OW 4987  10.516   8.772  10.299
67738SOL    HW1 4988  10.426   8.745  10.319
67738SOL    HW2 4989  10.511   8.807  10.210
67739SOL     OW 4990   7.604   7.368   2.804
67739SOL    HW1 4991   7.694   7.354   2.831
67739SOL    HW2 4992   7.557   7.290   2.834
67740SOL     OW 4993  10.495   6.130   8.238
67740SOL    HW1 4994  10.431   6.201   8.228
67740SOL    HW2 4995  10.508   6.097   8.149
67741SOL     OW 4996   2.795  12.661  11.234
67741SOL    HW1 4997   2.872  12.717  11.230
67741SOL    HW2 4998   2.800  12.606  11.156
67742SOL     OW 4999   7.573   3.867   8.652
67742SOL    HW1 5000   7.662   3.853   8.684
67742SOL    HW2 5001   7.521   3.885   8.731
67743SOL     OW 5002   9.760   2.742   5.790
67743SOL    HW1 5003   9.752   2.695   5.873
67743SOL    HW2 5004   9.815   2.685   5.736
67744SOL     OW 5005  14.593   0.055   7.434
67744SOL    HW1 5006  14.615  14.843   7.435
67744SOL    HW2 5007  14.503   0.058   7.401
67745SOL     OW 5008  10.230   7.870  13.600
67745SOL    HW1 5009  10.187   7.896  13.519
67745SOL    HW2 5010  10.175   7.800  13.635
67746SOL     OW 5011   2.011   0.892   6.976
67746SOL    HW1 5012   2.101   0.912   6.953
67746SOL    HW2 5013   2.018   0.826   7.046
67747SOL     OW 5014  11.533   9.175  12.214
67747SOL    HW1 5015  11.623   9.199  12.233
67747SOL    HW2 5016  11.481   9.225  12.276
67748SOL     OW 5017   2.461   8.747  13.981
67748SOL    HW1 5018   2.531   8.811  13.996
67748SOL    HW2 5019   2.384   8.785  14.023
67749SOL     OW 5020  12.986   8.254  14.809
67749SOL    HW1 5021  12.949   8.217   0.008
67749SOL    HW2 5022  12.918   8.312  14.775
67750SOL     OW 5023  11.541   1.054  13.786
67750SOL    HW1 5024  11.464   1.005  13.814
67750SOL    HW2 5025  11.604   1.044  13.857
67751SOL     OW 5026   5.908   6.683   3.163
67751SOL    HW1 5027   5.952   6.669   3.079
67751SOL    HW2 5028   5.890   6.596   3.196
67752SOL     OW 5029  13.908  10.755  13.891
67752SOL    HW1 5030  13.962  10.820  13.937
67752SOL    HW2 5031  13.933  10.671  13.929
67753SOL     OW 5032  12.525   7.503  12.181
67753SOL    HW1 5033  12.607   7.498  12.131
67753SOL    HW2 5034  12.459   7.529  12.117
67754SOL     OW 5035   7.729   6.541   5.505
67754SOL    HW1 5036   7.668   6.491   5.559
67754SOL    HW2 5037   7.794   6.574   5.567
67755SOL     OW 5038   6.174   6.068  12.324
67755SOL    HW1 5039   6.126   6.151  12.328
67755SOL    HW2 5040   6.160   6.036  12.235
67756SOL     OW 5041   7.635  13.754   1.500
67756SOL    HW1 5042   7.696  13.827   1.504
67756SOL    HW2 5043   7.656  13.710   1.417
67757SOL     OW 5044   9.280  14.838   9.874
67757SOL    HW1 5045   9.303  14.746   9.866
67757SOL    HW2 5046   9.303  14.861   9.964
67758SOL     OW 5047   1.991  10.994   3.232
67758SOL    HW1 5048   1.995  11.073   3.286
67758SOL    HW2 5049   2.033  11.019   3.150
67759SOL     OW 5050   0.179  11.347  12.156
67759SOL    HW1 5051   0.268  11.332  12.188
67759SOL    HW2 5052   0.123  11.296  12.215
67760SOL     OW 5053   4.631  13.729  10.583
67760SOL    HW1 5054   4.711  13.695  10.543
67760SOL    HW2 5055   4.595  13.655  10.632
67761SOL     OW 5056   8.018   6.117  12.818
67761SOL    HW1 5057   8.067   6.042  12.784
67761SOL    HW2 5058   7.993   6.167  12.740
67762SOL     OW 5059  14.209   0.116   7.073
67762SOL    HW1 5060  14.223   0.033   7.027
67762SOL    HW2 5061  14.122   0.106   7.114
67763SOL     OW 5062   7.325   4.897   2.187
67763SOL    HW1 5063   7.410   4.867   2.219
67763SOL    HW2 5064   7.346   4.947   2.108
67764SOL     OW 5065   2.153   6.043   6.152
67764SOL    HW1 5066   2.204   5.970   6.117
67764SOL    HW2 5067   2.064   6.028   6.120
67765SOL     OW 5068   4.155   6.778   8.585
67765SOL    HW1 5069   4.090   6.775   8.515
67765SOL    HW2 5070   4.223   6.837   8.553
67766SOL     OW 5071   9.403   5.176   5.250
67766SOL    HW1 5072   9.467   5.245   5.230
67766SOL    HW2 5073   9.453   5.112   5.301
67767SOL     OW 5074  13.677   8.862  10.795
67767SOL    HW1 5075  13.622   8.792  10.760
67767SOL    HW2 5076  13.767   8.833  10.777
67768SOL     OW 5077   0.940  10.468   0.638
67768SOL    HW1 5078   0.957  10.388   0.688
67768SOL    HW2 5079   0.937  10.440   0.547
67769SOL     OW 5080   7.879   7.551   1.588
67769SOL    HW1 5081   7.788   7.559   1.557
67769SOL    HW2 5082   7.930   7.596   1.521
67770SOL     OW 5083   4.815   6.288  13.284
67770SOL    HW1 5084   4.778   6.268  13.198
67770SOL    HW2 5085   4.744   6.267  13.345
67771SOL     OW 5086   3.122   7.205  10.140
67771SOL    HW1 5087   3.196   7.227  10.082
67771SOL    HW2 5088   3.093   7.290  10.174
67772SOL     OW 5089   0.592   3.426   8.454
67772SOL    HW1 5090   0.656   3.398   8.388
67772SOL    HW2 5091   0.583   3.349   8.511
67773SOL     OW 5092   7.975  12.092   7.641
67773SOL    HW1 5093   8.031  12.022   7.610
67773SOL    HW2 5094   7.938  12.131   7.562
67774SOL     OW 5095   1.370  11.230   9.746
67774SOL    HW1 5096   1.424  11.260   9.819
67774SOL    HW2 5097   1.344  11.141   9.771
67775SOL     OW 5098   5.221   9.736   3.093
67775SOL    HW1 5099   5.162   9.810   3.107
67775SOL    HW2 5100   5.227   9.694   3.178
67776SOL     OW 5101   1.699   2.707   4.919
67776SOL    HW1 5102   1.671   2.796   4.898
67776SOL    HW2 5103   1.755   2.717   4.996
67777SOL     OW 5104   8.315   8.637   5.087
67777SOL    HW1 5105   8.276   8.723   5.073
67777SOL    HW2 5106   8.265   8.599   5.159
67778SOL     OW 5107  12.116   8.404   8.053
67778SOL    HW1 5108  12.095   8.324   8.004
67778SOL    HW2 5109  12.155   8.372   8.134
67779SOL     OW 5110   5.109   7.027  14.625
67779SOL    HW1 5111   5.088   7.049  14.715
67779SOL    HW2 5112   5.026   7.038  14.578
67780SOL     OW 5113  10.195  13.684   5.896
67780SOL    HW1 5114  10.238  13.675   5.811
67780SOL    HW2 5115  10.101  13.684   5.876
67781SOL     OW 5116   5.622  13.395   2.395
67781SOL    HW1 5117   5.580  13.450   2.329
67781SOL    HW2 5118   5.589  13.307   2.377
67782SOL     OW 5119   1.947  13.236   0.719
67782SOL    HW1 5120   1.917  13.152   0.754
67782SOL    HW2 5121   2.031  13.251   0.761
67783SOL     OW 5122  14.211   5.643   7.530
67783SOL    HW1 5123  14.255   5.707   7.586
67783SOL    HW2 5124  14.153   5.695   7.475
67784SOL     OW 5125   7.336   6.657   7.042
67784SOL    HW1 5126   7.276   6.730   7.057
67784SOL    HW2 5127   7.371   6.637   7.129
67785SOL     OW 5128  13.808   0.565   9.287
67785SOL    HW1 5129  13.827   0.500   9.353
67785SOL    HW2 5130  13.715   0.586   9.299
67786SOL     OW 5131  13.482   0.230   5.060
67786SOL    HW1 5132  13.500   0.261   4.972
67786SOL    HW2 5133  13.390   0.254   5.075
67787SOL     OW 5134   1.815  10.225  12.971
67787SOL    HW1 5135   1.865  10.306  12.958
67787SOL    HW2 5136   1.799  10.192  12.882
67788SOL     OW 5137   0.252  10.890   8.720
67788SOL    HW1 5138   0.233  10.983   8.714
67788SOL    HW2 5139   0.321  10.884   8.786
67789SOL     OW 5140  14.232   5.770  14.800
67789SOL    HW1 5141  14.213   5.792  14.708
67789SOL    HW2 5142  14.155   5.800  14.848
67790SOL     OW 5143   2.644  14.275   0.559
67790SOL    HW1 5144   2.715  14.330   0.593
67790SOL    HW2 5145   2.656  14.277   0.464
67791SOL     OW 5146   8.531   1.179  12.846
67791SOL    HW1 5147   8.564   1.107  12.899
67791SOL    HW2 5148   8.565   1.258  12.889
67792SOL     OW 5149   9.456   7.202   7.840
67792SOL    HW1 5150   9.473   7.179   7.748
67792SOL    HW2 5151   9.405   7.283   7.835
67793SOL     OW 5152   1.322   7.334  10.673
67793SOL    HW1 5153   1.235   7.303  10.647
67793SOL    HW2 5154   1.335   7.298  10.761
67794SOL     OW 5155  11.060   4.579   9.251
67794SOL    HW1 5156  11.144   4.623   9.241
67794SOL    HW2 5157  11.083   4.487   9.263
67795SOL     OW 5158   9.364  10.700   0.036
67795SOL    HW1 5159   9.405  10.615   0.023
67795SOL    HW2 5160   9.352  10.706   0.131
67796SOL     OW 5161  11.403   5.040   2.743
67796SOL    HW1 5162  11.390   4.965   2.685
67796SOL    HW2 5163  11.497   5.040   2.762
67797SOL     OW 5164   8.153   1.233   3.791
67797SOL    HW1 5165   8.222   1.287   3.753
67797SOL    HW2 5166   8.199   1.166   3.841
67798SOL     OW 5167   5.961   3.161  14.529
67798SOL    HW1 5168   5.975   3.246  14.487
67798SOL    HW2 5169   6.046   3.139  14.568
67799SOL     OW 5170   1.798   8.451   6.491
67799SOL    HW1 5171   1.705   8.430   6.497
67799SOL    HW2 5172   1.838   8.402   6.563
67800SOL     OW 5173   8.205   5.232   3.753
67800SOL    HW1 5174   8.178   5.315   3.792
67800SOL    HW2 5175   8.171   5.234   3.664
67801SOL     OW 5176   2.887   1.064  13.880
67801SOL    HW1 5177   2.808   1.073  13.827
67801SOL    HW2 5178   2.882   0.976  13.917
67802SOL     OW 5179   9.133   8.181   1.176
67802SOL    HW1 5180   9.132   8.257   1.119
67802SOL    HW2 5181   9.137   8.217   1.265
67803SOL     OW 5182   3.533  13.596  12.658
67803SOL    HW1 5183   3.570  13.662  12.599
67803SOL    HW2 5184   3.571  13.616  12.743
67804SOL     OW 5185   1.420  13.370   9.320
67804SOL    HW1 5186   1.415  13.441   9.383
67804SOL    HW2 5187   1.428  13.291   9.373
67805SOL     OW 5188   8.973  10.434   6.680
67805SOL    HW1 5189   8.880  10.455   6.692
67805SOL    HW2 5190   8.984  10.349   6.722
67806SOL     OW 5191   3.368  13.943  12.788
67806SOL    HW1 5192   3.423  13.987  12.723
67806SOL    HW2 5193   3.282  13.937  12.746
67807SOL     OW 5194   1.614  10.395  10.254
67807SOL    HW1 5195   1.537  10.451  10.270
67807SOL    HW2 5196   1.641  10.366  10.341
67808SOL     OW 5197   1.111   0.441   5.873
67808SOL    HW1 5198   1.115   0.347   5.857
67808SOL    HW2 5199   1.041   0.452   5.938
67809SOL     OW 5200   5.180   1.060   6.501
67809SOL    HW1 5201   5.127   1.042   6.578
67809SOL    HW2 5202   5.241   0.987   6.495
67810SOL     OW 5203  10.904  11.452   0.245
67810SOL    HW1 5204  10.976  11.490   0.195
67810SOL    HW2 5205  10.946  11.391   0.306
67811SOL     OW 5206   3.486  14.147  14.075
67811SOL    HW1 5207   3.468  14.081  14.008
67811SOL    HW2 5208   3.578  14.169  14.064
67812SOL     OW 5209   4.148   8.173  13.786
67812SOL    HW1 5210   4.205   8.137  13.853
67812SOL    HW2 5211   4.176   8.130  13.705
67813SOL     OW 5212   7.976   1.896  13.905
67813SOL    HW1 5213   8.012   1.825  13.853
67813SOL    HW2 5214   7.898   1.924  13.857
67814SOL     OW 5215  12.036  12.684   4.124
67814SOL    HW1 5216  12.079  12.673   4.208
67814SOL    HW2 5217  12.067  12.769   4.092
67815SOL     OW 5218   2.889   8.628   6.874
67815SOL    HW1 5219   2.873   8.670   6.958
67815SOL    HW2 5220   2.941   8.551   6.894
67816SOL     OW 5221   4.450   0.048   9.988
67816SOL    HW1 5222   4.467   0.132   9.944
67816SOL    HW2 5223   4.471  14.864   9.922
67817SOL     OW 5224   4.714  13.594  13.280
67817SOL    HW1 5225   4.637  13.541  13.258
67817SOL    HW2 5226   4.680  13.683  13.288
67818SOL     OW 5227   1.640  12.208  12.465
67818SOL    HW1 5228   1.620  12.301  12.455
67818SOL    HW2 5229   1.559  12.163  12.440
67819SOL     OW 5230  14.284   9.322   1.647
67819SOL    HW1 5231  14.345   9.259   1.684
67819SOL    HW2 5232  14.314   9.407   1.679
67820SOL     OW 5233   4.694   6.056   8.055
67820SOL    HW1 5234   4.769   6.084   8.108
67820SOL    HW2 5235   4.708   5.962   8.041
67821SOL     OW 5236  13.077  12.416  11.287
67821SOL    HW1 5237  13.054  12.506  11.264
67821SOL    HW2 5238  12.994  12.368  11.282
67822SOL     OW 5239  11.264   9.555   9.262
67822SOL    HW1 5240  11.202   9.627   9.250
67822SOL    HW2 5241  11.299   9.539   9.174
67823SOL     OW 5242   0.953   8.481  12.145
67823SOL    HW1 5243   0.992   8.397  12.170
67823SOL    HW2 5244   1.006   8.509  12.070
67824SOL     OW 5245  12.725   1.168   5.893
67824SOL    HW1 5246  12.681   1.094   5.852
67824SOL    HW2 5247  12.707   1.158   5.986
67825SOL     OW 5248   8.686   2.466   1.616
67825SOL    HW1 5249   8.629   2.401   1.656
67825SOL    HW2 5250   8.627   2.539   1.595
67826SOL     OW 5251  10.888   3.352   9.050
67826SOL    HW1 5252  10.925   3.410   8.984
67826SOL    HW2 5253  10.959   3.293   9.072
67827SOL     OW 5254   9.575  13.096   0.542
67827SOL    HW1 5255   9.642  13.089   0.474
67827SOL    HW2 5256   9.606  13.039   0.612
67828SOL     OW 5257  12.608  13.319   1.847
67828SOL    HW1 5258  12.558  13.329   1.929
67828SOL    HW2 5259  12.638  13.408   1.827
67829SOL     OW 5260   1.348  14.639  12.643
67829SOL    HW1 5261   1.364  14.625  12.549
67829SOL    HW2 5262   1.373  14.730  12.657
67830SOL     OW 5263  12.770   6.136   8.690
67830SOL    HW1 5264  12.713   6.096   8.624
67830SOL    HW2 5265  12.848   6.162   8.640
67831SOL     OW 5266   2.557  10.026  13.800
67831SOL    HW1 5267   2.545   9.998  13.709
67831SOL    HW2 5268   2.599   9.952  13.842
67832SOL     OW 5269   4.700   2.783  11.611
67832SOL    HW1 5270   4.630   2.728  11.646
67832SOL    HW2 5271   4.658   2.868  11.594
67833SOL     OW 5272   0.332   3.214   7.675
67833SOL    HW1 5273   0.325   3.233   7.769
67833SOL    HW2 5274   0.383   3.133   7.671
67834SOL     OW 5275  13.997   0.726   8.217
67834SOL    HW1 5276  14.005   0.635   8.245
67834SOL    HW2 5277  14.050   0.731   8.137
67835SOL     OW 5278  14.753   1.144  12.988
67835SOL    HW1 5279  14.833   1.123  13.037
67835SOL    HW2 5280  14.691   1.076  13.015
67836SOL     OW 5281   6.167   4.340  13.643
67836SOL    HW1 5282   6.076   4.314  13.626
67836SOL    HW2 5283   6.176   4.334  13.739
67837SOL     OW 5284   6.747  12.385   1.683
67837SOL    HW1 5285   6.717  12.378   1.774
67837SOL    HW2 5286   6.711  12.308   1.639
67838SOL     OW 5287   4.142  12.835   4.283
67838SOL    HW1 5288   4.156  12.820   4.377
67838SOL    HW2 5289   4.206  12.901   4.259
67839SOL     OW 5290   6.444   4.490  13.357
67839SOL    HW1 5291   6.355   4.460  13.342
67839SOL    HW2 5292   6.465   4.544  13.280
67840SOL     OW 5293   3.938   9.513   8.819
67840SOL    HW1 5294   3.891   9.443   8.863
67840SOL    HW2 5295   3.869   9.568   8.780
67841SOL     OW 5296   5.628   4.089   0.291
67841SOL    HW1 5297   5.603   3.996   0.295
67841SOL    HW2 5298   5.614   4.121   0.380
67842SOL     OW 5299   5.345   4.554  13.291
67842SOL    HW1 5300   5.426   4.602  13.273
67842SOL    HW2 5301   5.275   4.613  13.262
67843SOL     OW 5302   1.565   1.820   1.234
67843SOL    HW1 5303   1.609   1.810   1.149
67843SOL    HW2 5304   1.544   1.913   1.240
67844SOL     OW 5305   5.342   2.835  13.164
67844SOL    HW1 5306   5.315   2.906  13.106
67844SOL    HW2 5307   5.272   2.829  13.229
67845SOL     OW 5308   2.365   6.345  14.149
67845SOL    HW1 5309   2.363   6.252  14.172
67845SOL    HW2 5310   2.370   6.346  14.053
67846SOL     OW 5311   5.883   9.824   7.400
67846SOL    HW1 5312   5.819   9.753   7.395
67846SOL    HW2 5313   5.873   9.860   7.487
67847SOL     OW 5314   4.716   5.504   9.732
67847SOL    HW1 5315   4.791   5.551   9.695
67847SOL    HW2 5316   4.641   5.561   9.718
67848SOL     OW 5317   1.122   4.376  14.241
67848SOL    HW1 5318   1.165   4.405  14.321
67848SOL    HW2 5319   1.191   4.337  14.189
67849SOL     OW 5320  10.170   7.712  10.450
67849SOL    HW1 5321  10.183   7.685  10.359
67849SOL    HW2 5322  10.171   7.630  10.500
67850SOL     OW 5323   0.768   2.306  12.110
67850SOL    HW1 5324   0.711   2.304  12.187
67850SOL    HW2 5325   0.737   2.381  12.059
67851SOL     OW 5326   2.983   5.599   1.238
67851SOL    HW1 5327   3.045   5.526   1.230
67851SOL    HW2 5328   3.020   5.667   1.181
67852SOL     OW 5329  11.093  12.983   9.527
67852SOL    HW1 5330  11.091  12.934   9.609
67852SOL    HW2 5331  11.113  12.917   9.460
67853SOL     OW 5332   9.904   1.912  10.564
67853SOL    HW1 5333   9.970   1.842  10.568
67853SOL    HW2 5334   9.955   1.992  10.554
67854SOL     OW 5335  10.747  12.537   6.060
67854SOL    HW1 5336  10.693  12.550   5.982
67854SOL    HW2 5337  10.796  12.457   6.042
67855SOL     OW 5338   5.811  10.279   1.335
67855SOL    HW1 5339   5.873  10.351   1.348
67855SOL    HW2 5340   5.808  10.267   1.240
67856SOL     OW 5341   2.335   7.695   8.504
67856SOL    HW1 5342   2.241   7.696   8.484
67856SOL    HW2 5343   2.358   7.787   8.517
67857SOL     OW 5344   4.983   1.138   6.353
67857SOL    HW1 5345   5.060   1.086   6.379
67857SOL    HW2 5346   4.911   1.076   6.355
67858SOL     OW 5347  14.700   5.171   5.712
67858SOL    HW1 5348  14.655   5.100   5.665
67858SOL    HW2 5349  14.750   5.126   5.780
67859SOL     OW 5350   1.458   4.362   9.196
67859SOL    HW1 5351   1.429   4.361   9.287
67859SOL    HW2 5352   1.384   4.400   9.148
67860SOL     OW 5353  12.047   3.476   1.627
67860SOL    HW1 5354  12.133   3.434   1.621
67860SOL    HW2 5355  11.985   3.403   1.629
67861SOL     OW 5356   5.689  10.937   4.449
67861SOL    HW1 5357   5.739  11.019   4.439
67861SOL    HW2 5358   5.725  10.879   4.382
67862SOL     OW 5359   1.346   4.766  14.178
67862SOL    HW1 5360   1.291   4.752  14.101
67862SOL    HW2 5361   1.346   4.861  14.190
67863SOL     OW 5362   2.993   8.710   9.467
67863SOL    HW1 5363   2.950   8.796   9.470
67863SOL    HW2 5364   3.041   8.705   9.549
67864SOL     OW 5365   3.862   8.938   1.150
67864SOL    HW1 5366   3.838   9.027   1.123
67864SOL    HW2 5367   3.785   8.885   1.128
67865SOL     OW 5368  14.332   1.067   7.142
67865SOL    HW1 5369  14.324   1.131   7.071
67865SOL    HW2 5370  14.288   0.989   7.108
67866SOL     OW 5371  12.703   0.850   0.586
67866SOL    HW1 5372  12.650   0.868   0.664
67866SOL    HW2 5373  12.638   0.830   0.518
67867SOL     OW 5374   3.034   9.474   1.890
67867SOL    HW1 5375   3.120   9.503   1.919
67867SOL    HW2 5376   3.005   9.541   1.828
67868SOL     OW 5377  11.757  13.171   5.776
67868SOL    HW1 5378  11.663  13.171   5.759
67868SOL    HW2 5379  11.766  13.143   5.867
67869SOL     OW 5380   7.127   9.042   8.463
67869SOL    HW1 5381   7.165   9.113   8.514
67869SOL    HW2 5382   7.197   9.013   8.405
67870SOL     OW 5383   8.863   7.850   4.048
67870SOL    HW1 5384   8.941   7.835   4.101
67870SOL    HW2 5385   8.896   7.884   3.965
67871SOL     OW 5386   2.467  12.241   2.555
67871SOL    HW1 5387   2.454  12.225   2.461
67871SOL    HW2 5388   2.542  12.299   2.560
67872SOL     OW 5389   2.765  13.759  11.260
67872SOL    HW1 5390   2.812  13.828  11.306
67872SOL    HW2 5391   2.832  13.695  11.236
67873SOL     OW 5392   6.910   3.763   5.028
67873SOL    HW1 5393   6.854   3.756   5.106
67873SOL    HW2 5394   6.946   3.852   5.033
67874SOL     OW 5395  13.470   4.932   7.520
67874SOL    HW1 5396  13.377   4.944   7.503
67874SOL    HW2 5397  13.511   5.013   7.489
67875SOL     OW 5398  10.553   2.432  14.869
67875SOL    HW1 5399  10.473   2.410  14.821
67875SOL    HW2 5400  10.611   2.357  14.855
67876SOL     OW 5401   7.716   2.158  14.482
67876SOL    HW1 5402   7.802   2.197  14.464
67876SOL    HW2 5403   7.677   2.217  14.548
67877SOL     OW 5404   8.781   8.170   2.068
67877SOL    HW1 5405   8.747   8.106   2.131
67877SOL    HW2 5406   8.747   8.141   1.984
67878SOL     OW 5407  12.477   0.094   3.283
67878SOL    HW1 5408  12.536   0.103   3.208
67878SOL    HW2 5409  12.456   0.184   3.308
67879SOL     OW 5410  11.005  10.186   8.949
67879SOL    HW1 5411  10.914  10.156   8.944
67879SOL    HW2 5412  11.009  10.236   9.031
67880SOL     OW 5413  11.236   2.283   0.132
67880SOL    HW1 5414  11.220   2.268   0.039
67880SOL    HW2 5415  11.159   2.331   0.161
67881SOL     OW 5416   4.299  12.979   9.116
67881SOL    HW1 5417   4.220  13.033   9.120
67881SOL    HW2 5418   4.300  12.946   9.026
67882SOL     OW 5419   2.334  10.669   6.605
67882SOL    HW1 5420   2.266  10.723   6.645
67882SOL    HW2 5421   2.286  10.606   6.550
67883SOL     OW 5422   8.213   4.284  14.697
67883SOL    HW1 5423   8.258   4.366  14.681
67883SOL    HW2 5424   8.149   4.277  14.625
67884SOL     OW 5425  13.606   8.339   6.519
67884SOL    HW1 5426  13.616   8.247   6.497
67884SOL    HW2 5427  13.548   8.340   6.596
67885SOL     OW 5428   9.759  11.037  12.425
67885SOL    HW1 5429   9.830  11.102  12.425
67885SOL    HW2 5430   9.739  11.023  12.517
67886SOL     OW 5431   1.412   2.601   3.962
67886SOL    HW1 5432   1.383   2.652   4.037
67886SOL    HW2 5433   1.332   2.578   3.915
67887SOL     OW 5434   7.995   3.244   5.768
67887SOL    HW1 5435   8.025   3.230   5.678
67887SOL    HW2 5436   8.072   3.228   5.822
67888SOL     OW 5437  14.388   8.438   4.050
67888SOL    HW1 5438  14.314   8.377   4.042
67888SOL    HW2 5439  14.423   8.445   3.962
67889SOL     OW 5440  12.167  14.485   5.048
67889SOL    HW1 5441  12.180  14.524   5.134
67889SOL    HW2 5442  12.120  14.404   5.065
67890SOL     OW 5443  11.265  10.865   4.787
67890SOL    HW1 5444  11.250  10.956   4.812
67890SOL    HW2 5445  11.193  10.817   4.829
67891SOL     OW 5446   1.991   8.843  10.995
67891SOL    HW1 5447   2.012   8.927  10.955
67891SOL    HW2 5448   2.068   8.820  11.047
67892SOL     OW 5449   3.813   4.206   9.744
67892SOL    HW1 5450   3.851   4.284   9.785
67892SOL    HW2 5451   3.730   4.236   9.707
67893SOL     OW 5452   9.365  10.345   1.894
67893SOL    HW1 5453   9.279  10.376   1.867
67893SOL    HW2 5454   9.353  10.251   1.908
67894SOL     OW 5455  11.721  10.071  11.703
67894SOL    HW1 5456  11.779  10.062  11.627
67894SOL    HW2 5457  11.638  10.099  11.665
67895SOL     OW 5458   3.908  12.274   0.751
67895SOL    HW1 5459   3.961  12.307   0.824
67895SOL    HW2 5460   3.909  12.179   0.762
67896SOL     OW 5461   0.991  13.553   2.900
67896SOL    HW1 5462   1.059  13.616   2.924
67896SOL    HW2 5463   0.968  13.511   2.983
67897SOL     OW 5464   7.378   9.543  14.295
67897SOL    HW1 5465   7.318   9.482  14.252
67897SOL    HW2 5466   7.391   9.506  14.382
67898SOL     OW 5467   4.260   9.781   9.108
67898SOL    HW1 5468   4.168   9.787   9.084
67898SOL    HW2 5469   4.305   9.837   9.045
67899SOL     OW 5470   2.029   2.937   9.663
67899SOL    HW1 5471   2.097   3.004   9.651
67899SOL    HW2 5472   1.976   2.943   9.584
67900SOL     OW 5473   7.775   3.225  12.447
67900SOL    HW1 5474   7.718   3.158  12.486
67900SOL    HW2 5475   7.714   3.283  12.401
67901SOL     OW 5476   2.654  12.694  13.617
67901SOL    HW1 5477   2.575  12.694  13.670
67901SOL    HW2 5478   2.717  12.642  13.667
67902SOL     OW 5479   1.618   9.441   2.470
67902SOL    HW1 5480   1.581   9.453   2.383
67902SOL    HW2 5481   1.697   9.496   2.470
67903SOL     OW 5482   4.967  10.401  14.091
67903SOL    HW1 5483   5.041  10.374  14.036
67903SOL    HW2 5484   4.921  10.467  14.040
67904SOL     OW 5485   9.403  12.383  14.150
67904SOL    HW1 5486   9.315  12.413  14.127
67904SOL    HW2 5487   9.399  12.288  14.140
67905SOL     OW 5488  12.773   2.254   7.786
67905SOL    HW1 5489  12.727   2.213   7.713
67905SOL    HW2 5490  12.785   2.182   7.849
67906SOL     OW 5491   2.183   7.106   0.919
67906SOL    HW1 5492   2.170   7.155   0.837
67906SOL    HW2 5493   2.137   7.158   0.985
67907SOL     OW 5494   7.288   0.301   5.978
67907SOL    HW1 5495   7.341   0.319   5.900
67907SOL    HW2 5496   7.333   0.347   6.049
67908SOL     OW 5497   1.969   8.344   1.127
67908SOL    HW1 5498   1.943   8.328   1.218
67908SOL    HW2 5499   2.037   8.279   1.109
67909SOL     OW 5500   9.948   8.323   2.050
67909SOL    HW1 5501  10.032   8.279   2.037
67909SOL    HW2 5502   9.970   8.416   2.056
67910SOL     OW 5503  11.261   8.337   5.512
67910SOL    HW1 5504  11.303   8.360   5.595
67910SOL    HW2 5505  11.227   8.420   5.479
67911SOL     OW 5506   8.348   3.951   9.340
67911SOL    HW1 5507   8.443   3.959   9.328
67911SOL    HW2 5508   8.311   3.991   9.262
67912SOL     OW 5509   3.250   6.784   2.540
67912SOL    HW1 5510   3.248   6.715   2.607
67912SOL    HW2 5511   3.159   6.812   2.533
67913SOL     OW 5512   4.155  12.039   5.163
67913SOL    HW1 5513   4.154  12.120   5.215
67913SOL    HW2 5514   4.087  12.052   5.098
67914SOL     OW 5515   4.857   6.122   8.792
67914SOL    HW1 5516   4.874   6.205   8.749
67914SOL    HW2 5517   4.795   6.077   8.734
67915SOL     OW 5518  14.442   1.148  13.698
67915SOL    HW1 5519  14.347   1.134  13.704
67915SOL    HW2 5520  14.480   1.075  13.746
67916SOL     OW 5521   0.359   3.653   9.956
67916SOL    HW1 5522   0.337   3.695  10.039
67916SOL    HW2 5523   0.405   3.573   9.982
67917SOL     OW 5524   9.183   1.825   3.115
67917SOL    HW1 5525   9.147   1.910   3.140
67917SOL    HW2 5526   9.246   1.845   3.046
67918SOL     OW 5527   9.782  14.302  10.177
67918SOL    HW1 5528   9.757  14.240  10.108
67918SOL    HW2 5529   9.702  14.352  10.194
67919SOL     OW 5530   0.339  13.030   6.138
67919SOL    HW1 5531   0.248  13.003   6.128
67919SOL    HW2 5532   0.376  12.966   6.199
67920SOL     OW 5533  14.389  13.660  10.951
67920SOL    HW1 5534  14.327  13.624  11.015
67920SOL    HW2 5535  14.394  13.593  10.883
67921SOL     OW 5536  14.505   8.425   3.798
67921SOL    HW1 5537  14.497   8.354   3.734
67921SOL    HW2 5538  14.598   8.424   3.823
67922SOL     OW 5539  11.496   6.527  12.836
67922SOL    HW1 5540  11.501   6.446  12.886
67922SOL    HW2 5541  11.568   6.521  12.773
67923SOL     OW 5542   4.188  12.562  10.694
67923SOL    HW1 5543   4.246  12.519  10.631
67923SOL    HW2 5544   4.171  12.648  10.655
67924SOL     OW 5545  12.624  13.708   8.569
67924SOL    HW1 5546  12.615  13.695   8.664
67924SOL    HW2 5547  12.538  13.738   8.541
67925SOL     OW 5548  13.056   9.621   5.225
67925SOL    HW1 5549  12.962   9.621   5.207
67925SOL    HW2 5550  13.074   9.532   5.255
67926SOL     OW 5551   9.550   7.365   0.076
67926SOL    HW1 5552   9.557   7.288   0.133
67926SOL    HW2 5553   9.512   7.433   0.132
67927SOL     OW 5554  11.535   4.451   6.529
67927SOL    HW1 5555  11.457   4.453   6.585
67927SOL    HW2 5556  11.586   4.377   6.561
67928SOL     OW 5557   6.696   3.881   3.093
67928SOL    HW1 5558   6.768   3.829   3.058
67928SOL    HW2 5559   6.725   3.972   3.085
67929SOL     OW 5560  11.115   2.798   9.541
67929SOL    HW1 5561  11.068   2.784   9.459
67929SOL    HW2 5562  11.103   2.892   9.559
67930SOL     OW 5563   9.358   5.078   1.854
67930SOL    HW1 5564   9.411   5.006   1.820
67930SOL    HW2 5565   9.274   5.070   1.809
67931SOL     OW 5566   1.127   8.033   8.773
67931SOL    HW1 5567   1.174   8.111   8.745
67931SOL    HW2 5568   1.118   7.981   8.693
67932SOL     OW 5569  14.558  10.545  12.456
67932SOL    HW1 5570  14.536  10.478  12.520
67932SOL    HW2 5571  14.588  10.497  12.379
67933SOL     OW 5572   5.530  12.283  13.586
67933SOL    HW1 5573   5.553  12.193  13.606
67933SOL    HW2 5574   5.598  12.314  13.527
67934SOL     OW 5575   8.848   8.983  11.517
67934SOL    HW1 5576   8.812   9.066  11.548
67934SOL    HW2 5577   8.772   8.926  11.505
67935SOL     OW 5578   6.220   7.413   3.130
67935SOL    HW1 5579   6.296   7.394   3.185
67935SOL    HW2 5580   6.256   7.421   3.041
67936SOL     OW 5581   4.266  12.049  12.776
67936SOL    HW1 5582   4.243  12.141  12.793
67936SOL    HW2 5583   4.323  12.052  12.699
67937SOL     OW 5584   5.163   5.226  13.675
67937SOL    HW1 5585   5.236   5.260  13.623
67937SOL    HW2 5586   5.093   5.290  13.662
67938SOL     OW 5587   7.316   4.307   6.738
67938SOL    HW1 5588   7.308   4.383   6.679
67938SOL    HW2 5589   7.225   4.282   6.756
67939SOL     OW 5590  10.134   6.934   8.821
67939SOL    HW1 5591  10.226   6.954   8.837
67939SOL    HW2 5592  10.136   6.853   8.769
67940SOL     OW 5593  10.357  10.993  13.068
67940SOL    HW1 5594  10.399  11.075  13.092
67940SOL    HW2 5595  10.263  11.011  13.077
67941SOL     OW 5596   8.400  13.172   8.652
67941SOL    HW1 5597   8.371  13.086   8.619
67941SOL    HW2 5598   8.412  13.159   8.746
67942SOL     OW 5599   3.953  12.972   0.220
67942SOL    HW1 5600   3.898  12.901   0.184
67942SOL    HW2 5601   3.981  12.940   0.305
67943SOL     OW 5602  11.424   5.090   2.059
67943SOL    HW1 5603  11.413   5.028   2.131
67943SOL    HW2 5604  11.383   5.171   2.091
67944SOL     OW 5605   4.271  14.154   4.039
67944SOL    HW1 5606   4.290  14.132   4.130
67944SOL    HW2 5607   4.302  14.245   4.030
67945SOL     OW 5608  10.594   5.270   9.492
67945SOL    HW1 5609  10.671   5.296   9.441
67945SOL    HW2 5610  10.522   5.317   9.451
67946SOL     OW 5611  10.463  10.909   1.852
67946SOL    HW1 5612  10.408  10.929   1.928
67946SOL    HW2 5613  10.551  10.933   1.879
67947SOL     OW 5614   3.182   3.509   9.747
67947SOL    HW1 5615   3.202   3.551   9.664
67947SOL    HW2 5616   3.229   3.562   9.812
67948SOL     OW 5617   3.175   3.815   9.000
67948SOL    HW1 5618   3.118   3.815   8.923
67948SOL    HW2 5619   3.254   3.769   8.971
67949SOL     OW 5620  12.748  13.758   8.208
67949SOL    HW1 5621  12.808  13.703   8.259
67949SOL    HW2 5622  12.776  13.848   8.227
67950SOL     OW 5623   6.758   5.143  11.276
67950SOL    HW1 5624   6.782   5.230  11.245
67950SOL    HW2 5625   6.834   5.088  11.256
67951SOL     OW 5626   5.075  14.154   3.931
67951SOL    HW1 5627   5.005  14.173   3.869
67951SOL    HW2 5628   5.131  14.090   3.886
67952SOL     OW 5629   6.382  12.730   5.298
67952SOL    HW1 5630   6.348  12.819   5.285
67952SOL    HW2 5631   6.304  12.675   5.303
67953SOL     OW 5632   7.132   1.661  12.772
67953SOL    HW1 5633   7.210   1.608  12.755
67953SOL    HW2 5634   7.109   1.640  12.862
67954SOL     OW 5635   0.453   8.151   4.222
67954SOL    HW1 5636   0.521   8.181   4.161
67954SOL    HW2 5637   0.395   8.226   4.233
67955SOL     OW 5638   4.833   3.140   8.541
67955SOL    HW1 5639   4.769   3.072   8.517
67955SOL    HW2 5640   4.865   3.172   8.457
67956SOL     OW 5641  14.329   9.033   6.120
67956SOL    HW1 5642  14.316   9.012   6.028
67956SOL    HW2 5643  14.357   8.950   6.160
67957SOL     OW 5644   0.443   9.437   8.915
67957SOL    HW1 5645   0.484   9.352   8.901
67957SOL    HW2 5646   0.390   9.425   8.994
67958SOL     OW 5647   7.648  13.810  13.593
67958SOL    HW1 5648   7.682  13.730  13.633
67958SOL    HW2 5649   7.571  13.782  13.543
67959SOL     OW 5650   3.172  11.860   2.075
67959SOL    HW1 5651   3.203  11.930   2.132
67959SOL    HW2 5652   3.105  11.816   2.126
67960SOL     OW 5653   2.133   6.492  10.067
67960SOL    HW1 5654   2.073   6.527  10.000
67960SOL    HW2 5655   2.109   6.540  10.147
67961SOL     OW 5656   6.084   3.488   5.272
67961SOL    HW1 5657   6.009   3.534   5.234
67961SOL    HW2 5658   6.075   3.398   5.241
67962SOL     OW 5659   4.373   4.536  10.823
67962SOL    HW1 5660   4.327   4.619  10.810
67962SOL    HW2 5661   4.330   4.475  10.763
67963SOL     OW 5662   7.962   4.806   7.965
67963SOL    HW1 5663   8.055   4.826   7.951
67963SOL    HW2 5664   7.950   4.811   8.060
67964SOL     OW 5665   5.770   1.010  13.983
67964SOL    HW1 5666   5.844   1.025  14.042
67964SOL    HW2 5667   5.809   0.971  13.904
67965SOL     OW 5668  12.571   5.688  10.979
67965SOL    HW1 5669  12.489   5.644  11.002
67965SOL    HW2 5670  12.634   5.654  11.043
67966SOL     OW 5671   7.103   2.241  12.078
67966SOL    HW1 5672   7.167   2.308  12.055
67966SOL    HW2 5673   7.043   2.285  12.139
67967SOL     OW 5674  10.408  10.034   8.090
67967SOL    HW1 5675  10.340  10.093   8.123
67967SOL    HW2 5676  10.398  10.036   7.995
67968SOL     OW 5677  14.080   3.765   8.588
67968SOL    HW1 5678  14.099   3.851   8.624
67968SOL    HW2 5679  14.011   3.730   8.644
67969SOL     OW 5680   2.406   1.072  12.544
67969SOL    HW1 5681   2.312   1.063  12.528
67969SOL    HW2 5682   2.414   1.154  12.593
67970SOL     OW 5683   3.641   7.793   8.097
67970SOL    HW1 5684   3.735   7.805   8.092
67970SOL    HW2 5685   3.619   7.739   8.021
67971SOL     OW 5686   2.218   0.923  10.507
67971SOL    HW1 5687   2.258   0.836  10.511
67971SOL    HW2 5688   2.292   0.984  10.516
67972SOL     OW 5689  11.306  12.625  11.513
67972SOL    HW1 5690  11.278  12.560  11.448
67972SOL    HW2 5691  11.342  12.572  11.585
67973SOL     OW 5692   1.657  13.818  13.333
67973SOL    HW1 5693   1.629  13.843  13.421
67973SOL    HW2 5694   1.610  13.878  13.275
67974SOL     OW 5695   2.197   6.886   2.799
67974SOL    HW1 5696   2.272   6.945   2.786
67974SOL    HW2 5697   2.176   6.895   2.892
67975SOL     OW 5698  11.951   7.929  13.866
67975SOL    HW1 5699  11.917   7.840  13.868
67975SOL    HW2 5700  11.900   7.975  13.933
67976SOL     OW 5701   6.470   3.975   1.690
67976SOL    HW1 5702   6.436   3.987   1.779
67976SOL    HW2 5703   6.564   3.960   1.702
67977SOL     OW 5704   8.435   2.669   7.475
67977SOL    HW1 5705   8.518   2.713   7.493
67977SOL    HW2 5706   8.459   2.595   7.419
67978SOL     OW 5707  10.059   9.357  13.032
67978SOL    HW1 5708  10.151   9.348  13.058
67978SOL    HW2 5709  10.059   9.332  12.939
67979SOL     OW 5710   7.491   9.825   9.624
67979SOL    HW1 5711   7.461   9.876   9.548
67979SOL    HW2 5712   7.497   9.888   9.695
67980SOL     OW 5713   8.744  13.019   7.201
67980SOL    HW1 5714   8.679  13.010   7.132
67980SOL    HW2 5715   8.786  12.933   7.206
67981SOL     OW 5716  14.502   6.171   2.532
67981SOL    HW1 5717  14.430   6.123   2.491
67981SOL    HW2 5718  14.506   6.137   2.621
67982SOL     OW 5719   3.646   3.179   2.820
67982SOL    HW1 5720   3.705   3.132   2.878
67982SOL    HW2 5721   3.682   3.164   2.732
67983SOL     OW 5722   9.032   2.958  13.945
67983SOL    HW1 5723   9.014   2.982  13.854
67983SOL    HW2 5724   9.128   2.958  13.950
67984SOL     OW 5725   8.282  10.368   3.628
67984SOL    HW1 5726   8.264  10.288   3.578
67984SOL    HW2 5727   8.257  10.439   3.569
67985SOL     OW 5728   5.783   2.180  12.128
67985SOL    HW1 5729   5.754   2.207  12.041
67985SOL    HW2 5730   5.878   2.170  12.120
67986SOL     OW 5731   2.808   6.787   3.078
67986SOL    HW1 5732   2.819   6.692   3.075
67986SOL    HW2 5733   2.773   6.809   2.992
67987SOL     OW 5734   8.904   8.727   1.724
67987SOL    HW1 5735   8.937   8.785   1.792
67987SOL    HW2 5736   8.936   8.765   1.642
67988SOL     OW 5737   6.817   2.925   6.015
67988SOL    HW1 5738   6.749   2.946   6.079
67988SOL    HW2 5739   6.806   2.990   5.945
67989SOL     OW 5740   6.526   6.010   7.441
67989SOL    HW1 5741   6.516   6.077   7.374
67989SOL    HW2 5742   6.615   6.021   7.474
67990SOL     OW 5743   6.611  13.227   4.117
67990SOL    HW1 5744   6.665  13.151   4.093
67990SOL    HW2 5745   6.674  13.295   4.138
67991SOL     OW 5746   8.491   5.610   5.327
67991SOL    HW1 5747   8.409   5.635   5.369
67991SOL    HW2 5748   8.465   5.567   5.245
67992SOL     OW 5749   8.481   0.506   9.798
67992SOL    HW1 5750   8.521   0.576   9.849
67992SOL    HW2 5751   8.540   0.493   9.724
67993SOL     OW 5752   4.275   8.690   7.577
67993SOL    HW1 5753   4.180   8.692   7.569
67993SOL    HW2 5754   4.302   8.609   7.533
67994SOL     OW 5755   3.480  14.051   8.129
67994SOL    HW1 5756   3.428  14.040   8.049
67994SOL    HW2 5757   3.428  14.010   8.198
67995SOL     OW 5758   8.077  12.144  11.557
67995SOL    HW1 5759   8.142  12.159  11.489
67995SOL    HW2 5760   8.057  12.232  11.591
67996SOL     OW 5761   6.429  14.251   5.956
67996SOL    HW1 5762   6.411  14.280   6.045
67996SOL    HW2 5763   6.502  14.306   5.927
67997SOL     OW 5764   4.438  13.522  11.715
67997SOL    HW1 5765   4.427  13.499  11.623
67997SOL    HW2 5766   4.357  13.568  11.738
67998SOL     OW 5767   1.192   0.313   8.781
67998SOL    HW1 5768   1.206   0.286   8.690
67998SOL    HW2 5769   1.186   0.231   8.830
67999SOL     OW 5770   0.780   8.606   2.076
67999SOL    HW1 5771   0.768   8.527   2.129
67999SOL    HW2 5772   0.698   8.614   2.026
68000SOL     OW 5773   0.761   3.031  13.283
68000SOL    HW1 5774   0.788   2.939  13.288
68000SOL    HW2 5775   0.686   3.031  13.224
68001SOL     OW 5776   7.241   1.326   2.568
68001SOL    HW1 5777   7.276   1.356   2.484
68001SOL    HW2 5778   7.151   1.300   2.549
68002SOL     OW 5779  12.088   6.723   8.738
68002SOL    HW1 5780  12.133   6.788   8.683
68002SOL    HW2 5781  12.149   6.650   8.744
68003SOL     OW 5782   5.319   1.266   1.912
68003SOL    HW1 5783   5.331   1.284   2.006
68003SOL    HW2 5784   5.252   1.198   1.909
68004SOL     OW 5785   8.645  12.222  12.690
68004SOL    HW1 5786   8.563  12.269  12.699
68004SOL    HW2 5787   8.623  12.144  12.640
68005SOL     OW 5788   5.661   5.773   1.114
68005SOL    HW1 5789   5.701   5.702   1.163
68005SOL    HW2 5790   5.572   5.779   1.149
68006SOL     OW 5791  11.592   8.746   4.738
68006SOL    HW1 5792  11.648   8.731   4.814
68006SOL    HW2 5793  11.571   8.659   4.706
68007SOL     OW 5794  10.284   7.223   9.061
68007SOL    HW1 5795  10.223   7.174   9.116
68007SOL    HW2 5796  10.273   7.314   9.088
68008SOL     OW 5797  13.258  13.947   5.585
68008SOL    HW1 5798  13.344  13.970   5.550
68008SOL    HW2 5799  13.253  13.852   5.575
68009SOL     OW 5800   7.305   2.028  13.427
68009SOL    HW1 5801   7.284   2.111  13.384
68009SOL    HW2 5802   7.222   2.000  13.467
68010SOL     OW 5803  12.257   6.193  12.017
68010SOL    HW1 5804  12.190   6.130  11.988
68010SOL    HW2 5805  12.282   6.240  11.938
68011SOL     OW 5806  14.571  13.417   9.045
68011SOL    HW1 5807  14.549  13.331   9.007
68011SOL    HW2 5808  14.616  13.396   9.127
68012SOL     OW 5809   7.007  12.148   6.627
68012SOL    HW1 5810   7.059  12.072   6.601
68012SOL    HW2 5811   7.027  12.215   6.562
68013SOL     OW 5812   4.613  13.183  10.219
68013SOL    HW1 5813   4.561  13.231  10.154
68013SOL    HW2 5814   4.653  13.111  10.170
68014SOL     OW 5815   4.717   0.658   3.124
68014SOL    HW1 5816   4.716   0.562   3.117
68014SOL    HW2 5817   4.808   0.678   3.146
68015SOL     OW 5818   8.432   5.673   3.825
68015SOL    HW1 5819   8.498   5.661   3.893
68015SOL    HW2 5820   8.349   5.659   3.869
68016SOL     OW 5821   9.043  10.060   2.980
68016SOL    HW1 5822   8.986  10.016   2.918
68016SOL    HW2 5823   9.055  10.148   2.943
68017SOL     OW 5824   2.783  12.012   0.746
68017SOL    HW1 5825   2.843  12.085   0.761
68017SOL    HW2 5826   2.840  11.939   0.720
68018SOL     OW 5827   3.508  12.513   8.658
68018SOL    HW1 5828   3.528  12.433   8.706
68018SOL    HW2 5829   3.412  12.520   8.660
68019SOL     OW 5830  10.150   3.028   3.031
68019SOL    HW1 5831  10.133   2.934   3.042
68019SOL    HW2 5832  10.244   3.037   3.043
68020SOL     OW 5833  13.392   0.177   6.869
68020SOL    HW1 5834  13.419   0.255   6.820
68020SOL    HW2 5835  13.451   0.174   6.944
68021SOL     OW 5836   8.605   0.345   3.857
68021SOL    HW1 5837   8.641   0.290   3.926
68021SOL    HW2 5838   8.537   0.291   3.817
68022SOL     OW 5839  14.079   0.878  11.146
68022SOL    HW1 5840  14.129   0.798  11.156
68022SOL    HW2 5841  14.073   0.891  11.051
68023SOL     OW 5842   2.765  12.317   3.581
68023SOL    HW1 5843   2.692  12.259   3.604
68023SOL    HW2 5844   2.807  12.336   3.665
68024SOL     OW 5845   8.742  11.709   3.091
68024SOL    HW1 5846   8.836  11.706   3.070
68024SOL    HW2 5847   8.708  11.625   3.062
68025SOL     OW 5848   0.768  13.149  10.740
68025SOL    HW1 5849   0.759  13.061  10.703
68025SOL    HW2 5850   0.863  13.161  10.750
68026SOL     OW 5851   1.777  11.928  13.285
68026SOL    HW1 5852   1.737  12.010  13.314
68026SOL    HW2 5853   1.868  11.935  13.311
68027SOL     OW 5854   5.480  11.749   3.860
68027SOL    HW1 5855   5.495  11.655   3.868
68027SOL    HW2 5856   5.532  11.775   3.785
68028SOL     OW 5857   4.837   3.037   1.566
68028SOL    HW1 5858   4.830   2.952   1.522
68028SOL    HW2 5859   4.869   3.016   1.654
68029SOL     OW 5860   5.006   1.222   2.251
68029SOL    HW1 5861   5.027   1.181   2.168
68029SOL    HW2 5862   4.917   1.191   2.272
68030SOL     OW 5863   1.522  13.343   8.183
68030SOL    HW1 5864   1.586  13.322   8.115
68030SOL    HW2 5865   1.439  13.355   8.136
68031SOL     OW 5866   3.205   4.656   4.122
68031SOL    HW1 5867   3.161   4.704   4.052
68031SOL    HW2 5868   3.296   4.687   4.119
68032SOL     OW 5869   0.585  12.955   7.806
68032SOL    HW1 5870   0.566  12.865   7.779
68032SOL    HW2 5871   0.677  12.968   7.781
68033SOL     OW 5872   9.934   4.371   2.014
68033SOL    HW1 5873   9.898   4.301   1.958
68033SOL    HW2 5874   9.929   4.450   1.959
68034SOL     OW 5875   2.548   0.776  13.659
68034SOL    HW1 5876   2.517   0.712  13.595
68034SOL    HW2 5877   2.583   0.848  13.607
68035SOL     OW 5878   6.660   2.409   1.904
68035SOL    HW1 5879   6.589   2.469   1.881
68035SOL    HW2 5880   6.723   2.462   1.953
68036SOL     OW 5881   7.120  10.988   8.449
68036SOL    HW1 5882   7.067  10.915   8.417
68036SOL    HW2 5883   7.089  11.005   8.537
68037SOL     OW 5884   3.670   2.729  10.781
68037SOL    HW1 5885   3.728   2.800  10.755
68037SOL    HW2 5886   3.637   2.693  10.698
68038SOL     OW 5887  11.069  12.066   1.547
68038SOL    HW1 5888  11.119  12.147   1.535
68038SOL    HW2 5889  11.053  12.061   1.641
68039SOL     OW 5890  12.900   7.710  10.702
68039SOL    HW1 5891  12.912   7.615  10.703
68039SOL    HW2 5892  12.979   7.744  10.744
68040SOL     OW 5893   7.993  11.370   3.386
68040SOL    HW1 5894   7.985  11.422   3.466
68040SOL    HW2 5895   7.961  11.283   3.411
68041SOL     OW 5896   1.150   5.569  10.208
68041SOL    HW1 5897   1.241   5.568  10.235
68041SOL    HW2 5898   1.146   5.509  10.134
68042SOL     OW 5899   3.263   6.319   7.686
68042SOL    HW1 5900   3.325   6.388   7.710
68042SOL    HW2 5901   3.251   6.268   7.767
68043SOL     OW 5902   6.292   4.497   4.093
68043SOL    HW1 5903   6.215   4.442   4.088
68043SOL    HW2 5904   6.338   4.481   4.010
68044SOL     OW 5905   3.171   9.342   9.225
68044SOL    HW1 5906   3.147   9.366   9.135
68044SOL    HW2 5907   3.187   9.248   9.221
68045SOL     OW 5908  12.586   8.639   8.919
68045SOL    HW1 5909  12.655   8.610   8.860
68045SOL    HW2 5910  12.591   8.579   8.994
68046SOL     OW 5911  13.785   2.415   9.567
68046SOL    HW1 5912  13.758   2.428   9.476
68046SOL    HW2 5913  13.809   2.503   9.597
68047SOL     OW 5914   3.641   0.811   9.664
68047SOL    HW1 5915   3.641   0.772   9.576
68047SOL    HW2 5916   3.549   0.831   9.682
68048SOL     OW 5917   5.858  10.620   9.244
68048SOL    HW1 5918   5.769  10.585   9.250
68048SOL    HW2 5919   5.866  10.678   9.320
68049SOL     OW 5920   1.369   3.810  11.077
68049SOL    HW1 5921   1.331   3.790  10.992
68049SOL    HW2 5922   1.409   3.729  11.106
68050SOL     OW 5923  14.872   3.958   9.768
68050SOL    HW1 5924   0.003   3.938   9.676
68050SOL    HW2 5925  14.842   3.876   9.807
68051SOL     OW 5926   9.060   7.378   8.813
68051SOL    HW1 5927   9.119   7.365   8.887
68051SOL    HW2 5928   9.026   7.467   8.825
68052SOL     OW 5929   4.547   8.602   4.031
68052SOL    HW1 5930   4.503   8.603   4.116
68052SOL    HW2 5931   4.514   8.524   3.988
68053SOL     OW 5932  14.598   5.692   1.847
68053SOL    HW1 5933  14.644   5.649   1.919
68053SOL    HW2 5934  14.630   5.782   1.848
68054SOL     OW 5935  14.228   4.105   3.913
68054SOL    HW1 5936  14.309   4.155   3.900
68054SOL    HW2 5937  14.255   4.013   3.909
68055SOL     OW 5938   7.069  11.157   4.394
68055SOL    HW1 5939   7.009  11.158   4.319
68055SOL    HW2 5940   7.020  11.202   4.463
68056SOL     OW 5941  14.056   6.186  11.846
68056SOL    HW1 5942  14.146   6.154  11.844
68056SOL    HW2 5943  14.006   6.121  11.797
68057SOL     OW 5944   8.503  14.085   7.665
68057SOL    HW1 5945   8.441  14.148   7.701
68057SOL    HW2 5946   8.572  14.139   7.626
68058SOL     OW 5947   1.187   7.360  14.812
68058SOL    HW1 5948   1.121   7.387  14.877
68058SOL    HW2 5949   1.168   7.268  14.795
68059SOL     OW 5950  12.466  12.060   8.303
68059SOL    HW1 5951  12.371  12.064   8.317
68059SOL    HW2 5952  12.476  12.028   8.213
68060SOL     OW 5953   1.240   5.299  13.699
68060SOL    HW1 5954   1.299   5.365  13.663
68060SOL    HW2 5955   1.234   5.232  13.630
68061SOL     OW 5956   0.030  12.558   9.326
68061SOL    HW1 5957   0.073  12.473   9.317
68061SOL    HW2 5958   0.100  12.622   9.312
68062SOL     OW 5959  12.695   2.642   2.089
68062SOL    HW1 5960  12.660   2.729   2.072
68062SOL    HW2 5961  12.660   2.588   2.018
68063SOL     OW 5962   4.252   5.501  11.555
68063SOL    HW1 5963   4.331   5.459  11.590
68063SOL    HW2 5964   4.268   5.506  11.461
68064SOL     OW 5965  12.265   3.012   6.538
68064SOL    HW1 5966  12.206   3.011   6.462
68064SOL    HW2 5967  12.330   3.079   6.516
68065SOL     OW 5968   0.252   9.389  11.689
68065SOL    HW1 5969   0.273   9.305  11.646
68065SOL    HW2 5970   0.327   9.405  11.746
68066SOL     OW 5971   3.618   4.346   1.450
68066SOL    HW1 5972   3.675   4.345   1.373
68066SOL    HW2 5973   3.629   4.434   1.487
68067SOL     OW 5974   3.668  14.464   6.797
68067SOL    HW1 5975   3.666  14.543   6.742
68067SOL    HW2 5976   3.639  14.494   6.883
68068SOL     OW 5977   4.390  13.366  11.493
68068SOL    HW1 5978   4.302  13.366  11.456
68068SOL    HW2 5979   4.437  13.434  11.444
68069SOL     OW 5980  10.277   0.304  13.029
68069SOL    HW1 5981  10.218   0.233  13.005
68069SOL    HW2 5982  10.363   0.263  13.035
68070SOL     OW 5983   3.638   7.304  13.595
68070SOL    HW1 5984   3.704   7.340  13.535
68070SOL    HW2 5985   3.687   7.285  13.675
68071SOL     OW 5986   2.578   9.977   5.731
68071SOL    HW1 5987   2.531  10.059   5.749
68071SOL    HW2 5988   2.586   9.975   5.636
68072SOL     OW 5989   9.330   2.708   4.466
68072SOL    HW1 5990   9.335   2.789   4.415
68072SOL    HW2 5991   9.243   2.673   4.448
68073SOL     OW 5992   9.695   6.194   0.299
68073SOL    HW1 5993   9.720   6.149   0.379
68073SOL    HW2 5994   9.605   6.165   0.282
68074SOL     OW 5995  13.902  11.174   8.366
68074SOL    HW1 5996  13.848  11.187   8.288
68074SOL    HW2 5997  13.871  11.092   8.403
68075SOL     OW 5998   3.507   8.146   9.134
68075SOL    HW1 5999   3.413   8.157   9.148
68075SOL    HW2 6000   3.547   8.222   9.175
68076SOL     OW 6001   5.439   3.071   0.330
68076SOL    HW1 6002   5.346   3.050   0.338
68076SOL    HW2 6003   5.469   3.085   0.420
68077SOL     OW 6004   5.123   9.113   2.325
68077SOL    HW1 6005   5.105   9.198   2.285
68077SOL    HW2 6006   5.101   9.125   2.417
68078SOL     OW 6007   5.723   0.635   4.781
68078SOL    HW1 6008   5.684   0.716   4.748
68078SOL    HW2 6009   5.787   0.611   4.714
68079SOL     OW 6010  13.430   8.567   1.544
68079SOL    HW1 6011  13.367   8.513   1.591
68079SOL    HW2 6012  13.505   8.573   1.603
68080SOL     OW 6013   2.215  11.035  10.966
68080SOL    HW1 6014   2.197  11.074  11.051
68080SOL    HW2 6015   2.129  11.019  10.928
68081SOL     OW 6016   1.768   4.225   1.720
68081SOL    HW1 6017   1.780   4.224   1.625
68081SOL    HW2 6018   1.716   4.147   1.739
68082SOL     OW 6019   0.049  14.173  11.869
68082SOL    HW1 6020   0.070  14.202  11.781
68082SOL    HW2 6021   0.131  14.135  11.902
68083SOL     OW 6022   8.077   8.869   1.890
68083SOL    HW1 6023   8.103   8.950   1.933
68083SOL    HW2 6024   8.141   8.859   1.819
68084SOL     OW 6025   4.894  10.498   2.673
68084SOL    HW1 6026   4.915  10.544   2.754
68084SOL    HW2 6027   4.816  10.543   2.639
68085SOL     OW 6028  13.478  10.316  13.979
68085SOL    HW1 6029  13.471  10.410  13.998
68085SOL    HW2 6030  13.447  10.308  13.888
68086SOL     OW 6031   5.401   5.612   9.758
68086SOL    HW1 6032   5.366   5.657   9.835
68086SOL    HW2 6033   5.464   5.550   9.793
68087SOL     OW 6034   0.126  13.346   3.733
68087SOL    HW1 6035   0.109  13.428   3.685
68087SOL    HW2 6036   0.129  13.373   3.825
68088SOL     OW 6037   3.031  11.609   1.270
68088SOL    HW1 6038   3.071  11.692   1.244
68088SOL    HW2 6039   3.017  11.619   1.364
68089SOL     OW 6040   7.122   8.412  14.386
68089SOL    HW1 6041   7.192   8.352  14.361
68089SOL    HW2 6042   7.101   8.460  14.306
68090SOL     OW 6043  13.415  13.721   8.288
68090SOL    HW1 6044  13.444  13.807   8.257
68090SOL    HW2 6045  13.472  13.659   8.241
68091SOL     OW 6046  14.145  14.404  12.031
68091SOL    HW1 6047  14.076  14.351  11.991
68091SOL    HW2 6048  14.112  14.423  12.119
68092SOL     OW 6049  13.207   0.375   0.972
68092SOL    HW1 6050  13.129   0.361   1.026
68092SOL    HW2 6051  13.247   0.289   0.964
68093SOL     OW 6052  11.344  13.200  13.409
68093SOL    HW1 6053  11.277  13.142  13.445
68093SOL    HW2 6054  11.426  13.154  13.427
68094SOL     OW 6055  10.308   1.670   7.345
68094SOL    HW1 6056  10.400   1.674   7.320
68094SOL    HW2 6057  10.306   1.703   7.435
68095SOL     OW 6058   4.420   9.792  13.700
68095SOL    HW1 6059   4.365   9.796  13.622
68095SOL    HW2 6060   4.470   9.874  13.699
68096SOL     OW 6061   5.929   3.861  12.279
68096SOL    HW1 6062   6.014   3.894  12.250
68096SOL    HW2 6063   5.882   3.939  12.307
68097SOL     OW 6064   3.949   2.055   7.891
68097SOL    HW1 6065   3.962   2.080   7.799
68097SOL    HW2 6066   3.966   1.961   7.892
68098SOL     OW 6067   0.913   5.344   0.593
68098SOL    HW1 6068   0.892   5.427   0.637
68098SOL    HW2 6069   0.865   5.278   0.644
68099SOL     OW 6070   0.179   0.890  10.947
68099SOL    HW1 6071   0.152   0.980  10.965
68099SOL    HW2 6072   0.237   0.898  10.871
68100SOL     OW 6073   5.381   0.875   2.659
68100SOL    HW1 6074   5.289   0.875   2.634
68100SOL    HW2 6075   5.383   0.829   2.743
68101SOL     OW 6076  11.030   1.779   6.081
68101SOL    HW1 6077  11.051   1.685   6.080
68101SOL    HW2 6078  10.994   1.794   6.168
68102SOL     OW 6079  14.193   9.429   7.989
68102SOL    HW1 6080  14.183   9.384   8.073
68102SOL    HW2 6081  14.265   9.384   7.945
68103SOL     OW 6082   0.021   4.230   9.347
68103SOL    HW1 6083   0.068   4.253   9.267
68103SOL    HW2 6084   0.069   4.155   9.382
68104SOL     OW 6085  14.207  14.100  12.007
68104SOL    HW1 6086  14.167  14.022  11.967
68104SOL    HW2 6087  14.187  14.092  12.100
68105SOL     OW 6088  12.078   7.376  11.206
68105SOL    HW1 6089  12.118   7.445  11.259
68105SOL    HW2 6090  12.119   7.386  11.120
68106SOL     OW 6091  11.996   9.835   9.898
68106SOL    HW1 6092  11.937   9.799   9.964
68106SOL    HW2 6093  12.018   9.922   9.932
68107SOL     OW 6094   3.303   6.338  12.633
68107SOL    HW1 6095   3.392   6.302  12.625
68107SOL    HW2 6096   3.246   6.269  12.599
68108SOL     OW 6097   7.962  14.571   6.675
68108SOL    HW1 6098   7.937  14.526   6.594
68108SOL    HW2 6099   8.021  14.640   6.647
68109SOL     OW 6100   5.248   5.237   9.436
68109SOL    HW1 6101   5.327   5.221   9.386
68109SOL    HW2 6102   5.278   5.248   9.527
68110SOL     OW 6103   7.831   4.299   6.854
68110SOL    HW1 6104   7.846   4.222   6.909
68110SOL    HW2 6105   7.742   4.327   6.874
68111SOL     OW 6106  14.181   8.771   8.919
68111SOL    HW1 6107  14.244   8.783   8.848
68111SOL    HW2 6108  14.117   8.842   8.906
68112SOL     OW 6109  13.011   8.294   7.039
68112SOL    HW1 6110  12.961   8.354   6.983
68112SOL    HW2 6111  13.019   8.215   6.986
68113SOL     OW 6112   6.493  12.205   4.398
68113SOL    HW1 6113   6.489  12.127   4.342
68113SOL    HW2 6114   6.418  12.258   4.372
68114SOL     OW 6115   0.178   5.744   0.163
68114SOL    HW1 6116   0.197   5.805   0.234
68114SOL    HW2 6117   0.244   5.764   0.096
68115SOL     OW 6118   5.078   1.763   0.744
68115SOL    HW1 6119   5.137   1.837   0.730
68115SOL    HW2 6120   5.023   1.762   0.665
68116SOL     OW 6121   4.858   7.177  14.458
68116SOL    HW1 6122   4.793   7.133  14.513
68116SOL    HW2 6123   4.815   7.258  14.430
68117SOL     OW 6124   4.191   5.279  13.079
68117SOL    HW1 6125   4.210   5.370  13.100
68117SOL    HW2 6126   4.216   5.269  12.987
68118SOL     OW 6127   3.407  14.780   5.218
68118SOL    HW1 6128   3.401  14.871   5.192
68118SOL    HW2 6129   3.500  14.759   5.214
68119SOL     OW 6130   6.717   0.946   7.042
68119SOL    HW1 6131   6.674   0.894   7.110
68119SOL    HW2 6132   6.702   1.037   7.068
68120SOL     OW 6133   1.215   4.145   4.777
68120SOL    HW1 6134   1.228   4.104   4.691
68120SOL    HW2 6135   1.254   4.083   4.839
68121SOL     OW 6136   9.361  11.333   5.343
68121SOL    HW1 6137   9.403  11.290   5.269
68121SOL    HW2 6138   9.407  11.417   5.352
68122SOL     OW 6139   1.924   3.389   1.481
68122SOL    HW1 6140   1.907   3.403   1.387
68122SOL    HW2 6141   2.006   3.436   1.498
68123SOL     OW 6142  10.632   7.466   9.063
68123SOL    HW1 6143  10.616   7.546   9.113
68123SOL    HW2 6144  10.642   7.397   9.129
68124SOL     OW 6145   6.119   4.093  10.186
68124SOL    HW1 6146   6.139   4.004  10.215
68124SOL    HW2 6147   6.192   4.146  10.218
68125SOL     OW 6148   8.738  12.435  10.424
68125SOL    HW1 6149   8.654  12.479  10.433
68125SOL    HW2 6150   8.763  12.412  10.514
68126SOL     OW 6151   2.652   3.602   7.774
68126SOL    HW1 6152   2.584   3.575   7.713
68126SOL    HW2 6153   2.732   3.560   7.741
68127SOL     OW 6154  12.744   9.254  10.286
68127SOL    HW1 6155  12.770   9.234  10.376
68127SOL    HW2 6156  12.656   9.217  10.277
68128SOL     OW 6157   4.403   1.797   2.331
68128SOL    HW1 6158   4.426   1.862   2.265
68128SOL    HW2 6159   4.375   1.721   2.280
68129SOL     OW 6160   1.394   9.717   8.485
68129SOL    HW1 6161   1.411   9.674   8.401
68129SOL    HW2 6162   1.303   9.695   8.505
68130SOL     OW 6163   4.266   2.962  12.352
68130SOL    HW1 6164   4.246   2.976  12.444
68130SOL    HW2 6165   4.225   3.035  12.307
68131SOL     OW 6166   6.740  10.554   7.833
68131SOL    HW1 6167   6.791  10.528   7.756
68131SOL    HW2 6168   6.794  10.620   7.876
68132SOL     OW 6169   7.906   8.382   1.736
68132SOL    HW1 6170   7.823   8.342   1.761
68132SOL    HW2 6171   7.901   8.471   1.768
68133SOL     OW 6172  13.836  12.073   7.180
68133SOL    HW1 6173  13.815  12.083   7.087
68133SOL    HW2 6174  13.925  12.106   7.189
68134SOL     OW 6175  12.999  10.600  10.595
68134SOL    HW1 6176  13.020  10.692  10.582
68134SOL    HW2 6177  13.055  10.572  10.668
68135SOL     OW 6178  14.011  14.519   5.527
68135SOL    HW1 6179  14.052  14.433   5.527
68135SOL    HW2 6180  14.047  14.563   5.450
68136SOL     OW 6181   7.514   1.163  14.678
68136SOL    HW1 6182   7.456   1.224  14.632
68136SOL    HW2 6183   7.508   1.189  14.770
68137SOL     OW 6184  13.108  11.420  10.323
68137SOL    HW1 6185  13.176  11.487  10.321
68137SOL    HW2 6186  13.155  11.337  10.329
68138SOL     OW 6187   7.998   1.224   0.184
68138SOL    HW1 6188   8.064   1.159   0.206
68138SOL    HW2 6189   8.043   1.308   0.192
68139SOL     OW 6190  12.023   7.560   0.998
68139SOL    HW1 6191  11.984   7.507   1.069
68139SOL    HW2 6192  12.087   7.502   0.957
68140SOL     OW 6193  11.697   0.535  13.136
68140SOL    HW1 6194  11.717   0.628  13.138
68140SOL    HW2 6195  11.773   0.494  13.094
68141SOL     OW 6196   4.945   3.224   7.177
68141SOL    HW1 6197   4.986   3.270   7.103
68141SOL    HW2 6198   5.017   3.178   7.219
68142SOL     OW 6199   5.670   7.802   4.813
68142SOL    HW1 6200   5.661   7.793   4.908
68142SOL    HW2 6201   5.580   7.813   4.781
68143SOL     OW 6202   7.229  12.144   9.088
68143SOL    HW1 6203   7.269  12.215   9.037
68143SOL    HW2 6204   7.136  12.148   9.066
68144SOL     OW 6205   8.354   9.515  11.274
68144SOL    HW1 6206   8.435   9.554  11.241
68144SOL    HW2 6207   8.324   9.458  11.203
68145SOL     OW 6208   0.909   3.449   5.664
68145SOL    HW1 6209   0.877   3.410   5.745
68145SOL    HW2 6210   0.867   3.535   5.660
68146SOL     OW 6211   1.397   8.008   5.263
68146SOL    HW1 6212   1.439   8.038   5.182
68146SOL    HW2 6213   1.305   8.034   5.253
68147SOL     OW 6214   6.456   4.400  13.988
68147SOL    HW1 6215   6.365   4.376  13.975
68147SOL    HW2 6216   6.490   4.418  13.900
68148SOL     OW 6217   2.340   8.333  11.723
68148SOL    HW1 6218   2.283   8.256  11.724
68148SOL    HW2 6219   2.427   8.299  11.742
68149SOL     OW 6220   0.916   0.358   7.415
68149SOL    HW1 6221   0.870   0.297   7.357
68149SOL    HW2 6222   0.899   0.444   7.377
68150SOL     OW 6223   6.716   5.867   6.414
68150SOL    HW1 6224   6.652   5.914   6.361
68150SOL    HW2 6225   6.760   5.809   6.353
68151SOL     OW 6226   6.267   2.897   8.253
68151SOL    HW1 6227   6.232   2.919   8.167
68151SOL    HW2 6228   6.298   2.807   8.244
68152SOL     OW 6229   3.696   9.315   9.181
68152SOL    HW1 6230   3.776   9.357   9.214
68152SOL    HW2 6231   3.725   9.231   9.146
68153SOL     OW 6232   1.800   8.859   2.199
68153SOL    HW1 6233   1.843   8.881   2.282
68153SOL    HW2 6234   1.869   8.868   2.134
68154SOL     OW 6235  10.177  14.129   5.529
68154SOL    HW1 6236  10.234  14.145   5.605
68154SOL    HW2 6237  10.229  14.156   5.454
68155SOL     OW 6238   7.624  12.609   9.153
68155SOL    HW1 6239   7.622  12.705   9.163
68155SOL    HW2 6240   7.541  12.588   9.111
68156SOL     OW 6241   6.188   6.433  12.481
68156SOL    HW1 6242   6.093   6.426  12.479
68156SOL    HW2 6243   6.218   6.350  12.517
68157SOL     OW 6244   4.539   9.449   7.239
68157SOL    HW1 6245   4.519   9.417   7.151
68157SOL    HW2 6246   4.483   9.397   7.296
68158SOL     OW 6247  10.749  13.433   8.714
68158SOL    HW1 6248  10.748  13.455   8.621
68158SOL    HW2 6249  10.814  13.492   8.752
68159SOL     OW 6250   8.005   6.649  10.473
68159SOL    HW1 6251   8.019   6.558  10.500
68159SOL    HW2 6252   8.025   6.700  10.552
68160SOL     OW 6253   5.985   8.344  12.063
68160SOL    HW1 6254   5.904   8.295  12.056
68160SOL    HW2 6255   6.021   8.320  12.149
68161SOL     OW 6256   1.609  13.148   3.203
68161SOL    HW1 6257   1.694  13.169   3.165
68161SOL    HW2 6258   1.626  13.070   3.257
68162SOL     OW 6259  11.354   9.573   9.705
68162SOL    HW1 6260  11.443   9.603   9.724
68162SOL    HW2 6261  11.365   9.510   9.633
68163SOL     OW 6262  11.546   2.814   8.987
68163SOL    HW1 6263  11.453   2.822   8.966
68163SOL    HW2 6264  11.591   2.857   8.915
68164SOL     OW 6265  10.350   4.047   1.015
68164SOL    HW1 6266  10.375   3.986   1.086
68164SOL    HW2 6267  10.406   4.022   0.942
68165SOL     OW 6268  11.349   7.082   7.089
68165SOL    HW1 6269  11.317   7.115   7.005
68165SOL    HW2 6270  11.440   7.058   7.072
68166SOL     OW 6271  12.447   8.339   6.065
68166SOL    HW1 6272  12.542   8.345   6.055
68166SOL    HW2 6273  12.431   8.350   6.159
68167SOL     OW 6274   4.882   7.363   5.469
68167SOL    HW1 6275   4.840   7.300   5.411
68167SOL    HW2 6276   4.848   7.448   5.443
68168SOL     OW 6277   4.771  12.988   5.363
68168SOL    HW1 6278   4.720  12.944   5.431
68168SOL    HW2 6279   4.776  12.924   5.292
68169SOL     OW 6280  11.234  11.416   7.049
68169SOL    HW1 6281  11.163  11.434   6.988
68169SOL    HW2 6282  11.309  11.396   6.994
68170SOL     OW 6283   9.974   7.584  14.721
68170SOL    HW1 6284   9.951   7.508  14.775
68170SOL    HW2 6285   9.890   7.628  14.705
68171SOL     OW 6286  11.689   9.251   5.519
68171SOL    HW1 6287  11.731   9.304   5.451
68171SOL    HW2 6288  11.693   9.304   5.598
68172SOL     OW 6289   0.356   8.089   9.791
68172SOL    HW1 6290   0.414   8.110   9.718
68172SOL    HW2 6291   0.342   7.995   9.785
68173SOL     OW 6292   7.720   1.999   9.936
68173SOL    HW1 6293   7.769   2.065   9.887
68173SOL    HW2 6294   7.707   2.038  10.023
68174SOL     OW 6295   4.178  13.204  10.243
68174SOL    HW1 6296   4.181  13.118  10.202
68174SOL    HW2 6297   4.110  13.251  10.196
68175SOL     OW 6298   3.371   3.160   2.905
68175SOL    HW1 6299   3.370   3.245   2.948
68175SOL    HW2 6300   3.447   3.162   2.848
68176SOL     OW 6301  10.472   7.110   4.829
68176SOL    HW1 6302  10.413   7.040   4.857
68176SOL    HW2 6303  10.545   7.106   4.891
68177SOL     OW 6304   1.256   9.935   4.099
68177SOL    HW1 6305   1.235   9.890   4.181
68177SOL    HW2 6306   1.184   9.912   4.040
68178SOL     OW 6307  10.987   9.046   4.645
68178SOL    HW1 6308  10.925   9.064   4.716
68178SOL    HW2 6309  11.039   8.972   4.676
68179SOL     OW 6310   7.034   0.147  13.537
68179SOL    HW1 6311   7.021   0.199  13.458
68179SOL    HW2 6312   7.103   0.084  13.514
68180SOL     OW 6313   2.185   0.504   1.586
68180SOL    HW1 6314   2.188   0.474   1.677
68180SOL    HW2 6315   2.121   0.446   1.544
68181SOL     OW 6316   9.453   6.437   5.090
68181SOL    HW1 6317   9.528   6.382   5.064
68181SOL    HW2 6318   9.472   6.461   5.180
68182SOL     OW 6319  13.816   7.944   9.535
68182SOL    HW1 6320  13.771   7.993   9.604
68182SOL    HW2 6321  13.849   7.866   9.580
68183SOL     OW 6322   7.814   9.122   1.095
68183SOL    HW1 6323   7.854   9.174   1.025
68183SOL    HW2 6324   7.874   9.048   1.106
68184SOL     OW 6325   6.569   8.624   5.819
68184SOL    HW1 6326   6.608   8.567   5.886
68184SOL    HW2 6327   6.616   8.603   5.739
68185SOL     OW 6328   7.958   5.311   2.193
68185SOL    HW1 6329   8.023   5.379   2.208
68185SOL    HW2 6330   7.874   5.352   2.215
68186SOL     OW 6331   6.082   2.515   2.488
68186SOL    HW1 6332   5.987   2.500   2.493
68186SOL    HW2 6333   6.119   2.460   2.557
68187SOL     OW 6334   5.803   8.323   4.470
68187SOL    HW1 6335   5.801   8.289   4.380
68187SOL    HW2 6336   5.890   8.361   4.479
68188SOL     OW 6337   9.511   1.716   3.571
68188SOL    HW1 6338   9.579   1.767   3.526
68188SOL    HW2 6339   9.431   1.735   3.522
68189SOL     OW 6340   1.669   2.858   0.170
68189SOL    HW1 6341   1.717   2.941   0.176
68189SOL    HW2 6342   1.610   2.870   0.095
68190SOL     OW 6343  10.890   2.207   5.211
68190SOL    HW1 6344  10.838   2.192   5.290
68190SOL    HW2 6345  10.842   2.161   5.142
68191SOL     OW 6346   8.283   8.125   1.743
68191SOL    HW1 6347   8.240   8.105   1.660
68191SOL    HW2 6348   8.355   8.184   1.719
68192SOL     OW 6349   4.772   2.891   8.786
68192SOL    HW1 6350   4.725   2.839   8.852
68192SOL    HW2 6351   4.718   2.968   8.772
68193SOL     OW 6352   3.507   4.497  12.111
68193SOL    HW1 6353   3.530   4.505  12.019
68193SOL    HW2 6354   3.590   4.482  12.156
68194SOL     OW 6355   2.042  10.891   3.900
68194SOL    HW1 6356   1.954  10.855   3.911
68194SOL    HW2 6357   2.036  10.947   3.823
68195SOL     OW 6358  13.430  14.224   8.522
68195SOL    HW1 6359  13.429  14.226   8.618
68195SOL    HW2 6360  13.502  14.282   8.498
68196SOL     OW 6361   3.140   5.584   4.622
68196SOL    HW1 6362   3.163   5.671   4.591
68196SOL    HW2 6363   3.044   5.581   4.618
68197SOL     OW 6364  11.010   2.414   6.899
68197SOL    HW1 6365  10.977   2.453   6.980
68197SOL    HW2 6366  10.944   2.349   6.875
68198SOL     OW 6367   9.139   5.927   7.234
68198SOL    HW1 6368   9.214   5.896   7.183
68198SOL    HW2 6369   9.177   5.988   7.297
68199SOL     OW 6370  10.772   3.995   2.485
68199SOL    HW1 6371  10.722   4.004   2.404
68199SOL    HW2 6372  10.833   4.068   2.484
68200SOL     OW 6373   5.252   0.128   5.886
68200SOL    HW1 6374   5.248   0.157   5.977
68200SOL    HW2 6375   5.163   0.141   5.852
68201SOL     OW 6376   2.796   2.183  11.533
68201SOL    HW1 6377   2.880   2.215  11.501
68201SOL    HW2 6378   2.763   2.254  11.589
68202SOL     OW 6379   4.559   4.111   0.214
68202SOL    HW1 6380   4.626   4.095   0.281
68202SOL    HW2 6381   4.477   4.087   0.256
68203SOL     OW 6382   7.183   9.131  11.610
68203SOL    HW1 6383   7.203   9.037  11.615
68203SOL    HW2 6384   7.192   9.153  11.518
68204SOL     OW 6385   2.297   2.377   1.212
68204SOL    HW1 6386   2.233   2.323   1.258
68204SOL    HW2 6387   2.245   2.448   1.173
68205SOL     OW 6388  12.738  10.295   7.765
68205SOL    HW1 6389  12.663  10.238   7.782
68205SOL    HW2 6390  12.704  10.384   7.778
68206SOL     OW 6391   1.609   9.223  10.491
68206SOL    HW1 6392   1.594   9.304  10.539
68206SOL    HW2 6393   1.529   9.172  10.505
68207SOL     OW 6394   0.765  14.068   3.383
68207SOL    HW1 6395   0.821  14.131   3.429
68207SOL    HW2 6396   0.676  14.101   3.395
68208SOL     OW 6397   4.165   6.587   7.463
68208SOL    HW1 6398   4.083   6.589   7.511
68208SOL    HW2 6399   4.203   6.674   7.477
68209SOL     OW 6400  11.992   0.020   0.917
68209SOL    HW1 6401  11.927   0.077   0.958
68209SOL    HW2 6402  12.062   0.079   0.889
68210SOL     OW 6403   3.858  12.581   8.274
68210SOL    HW1 6404   3.924  12.557   8.338
68210SOL    HW2 6405   3.794  12.632   8.323
68211SOL     OW 6406  12.524  13.546   6.002
68211SOL    HW1 6407  12.443  13.514   5.962
68211SOL    HW2 6408  12.591  13.531   5.936
68212SOL     OW 6409   6.716  10.510  14.656
68212SOL    HW1 6410   6.622  10.492  14.660
68212SOL    HW2 6411   6.722  10.601  14.628
68213SOL     OW 6412   8.274   7.108  11.721
68213SOL    HW1 6413   8.208   7.040  11.738
68213SOL    HW2 6414   8.277   7.160  11.801
68214SOL     OW 6415   4.874   5.833   8.844
68214SOL    HW1 6416   4.893   5.912   8.893
68214SOL    HW2 6417   4.788   5.849   8.805
68215SOL     OW 6418   1.094   1.279  12.420
68215SOL    HW1 6419   1.136   1.195  12.405
68215SOL    HW2 6420   1.070   1.310  12.333
68216SOL     OW 6421  12.019  12.520   6.309
68216SOL    HW1 6422  12.079  12.531   6.383
68216SOL    HW2 6423  11.997  12.427   6.310
68217SOL     OW 6424   6.680  11.014   4.834
68217SOL    HW1 6425   6.587  10.991   4.841
68217SOL    HW2 6426   6.680  11.097   4.786
68218SOL     OW 6427  10.795  11.639  14.671
68218SOL    HW1 6428  10.700  11.641  14.675
68218SOL    HW2 6429  10.822  11.731  14.679
68219SOL     OW 6430  13.631  10.561   1.214
68219SOL    HW1 6431  13.591  10.626   1.157
68219SOL    HW2 6432  13.652  10.609   1.294
68220SOL     OW 6433  10.568   7.653  11.934
68220SOL    HW1 6434  10.658   7.641  11.904
68220SOL    HW2 6435  10.550   7.745  11.920
68221SOL     OW 6436  12.801  11.266   5.369
68221SOL    HW1 6437  12.735  11.198   5.359
68221SOL    HW2 6438  12.876  11.234   5.319
68222SOL     OW 6439   5.687   9.176   0.753
68222SOL    HW1 6440   5.692   9.264   0.715
68222SOL    HW2 6441   5.651   9.190   0.840
68223SOL     OW 6442   6.041   2.900  12.603
68223SOL    HW1 6443   6.124   2.888  12.650
68223SOL    HW2 6444   5.978   2.847  12.652
68224SOL     OW 6445   9.200   7.245   0.130
68224SOL    HW1 6446   9.274   7.260   0.187
68224SOL    HW2 6447   9.159   7.331   0.119
68225SOL     OW 6448  13.943  13.753   7.794
68225SOL    HW1 6449  13.966  13.806   7.870
68225SOL    HW2 6450  13.990  13.671   7.808
68226SOL     OW 6451  11.888   0.382   8.877
68226SOL    HW1 6452  11.829   0.412   8.809
68226SOL    HW2 6453  11.932   0.305   8.839
68227SOL     OW 6454  12.600   5.578  10.268
68227SOL    HW1 6455  12.525   5.631  10.295
68227SOL    HW2 6456  12.589   5.495  10.315
68228SOL     OW 6457   5.083  12.179   5.599
68228SOL    HW1 6458   5.036  12.105   5.560
68228SOL    HW2 6459   5.155  12.196   5.538
68229SOL     OW 6460  12.928  13.949   3.139
68229SOL    HW1 6461  12.842  13.919   3.111
68229SOL    HW2 6462  12.914  13.987   3.225
68230SOL     OW 6463  13.395  12.164  12.089
68230SOL    HW1 6464  13.429  12.094  12.035
68230SOL    HW2 6465  13.301  12.146  12.097
68231SOL     OW 6466   1.366   5.566   1.145
68231SOL    HW1 6467   1.378   5.488   1.091
68231SOL    HW2 6468   1.452   5.607   1.148
68232SOL     OW 6469   7.804   4.600   2.099
68232SOL    HW1 6470   7.754   4.569   2.175
68232SOL    HW2 6471   7.746   4.584   2.025
68233SOL     OW 6472   3.376   1.675  11.150
68233SOL    HW1 6473   3.347   1.686  11.240
68233SOL    HW2 6474   3.319   1.606  11.115
68234SOL     OW 6475   5.602   9.970   0.993
68234SOL    HW1 6476   5.531   9.922   0.950
68234SOL    HW2 6477   5.676   9.961   0.934
68235SOL     OW 6478  14.626   2.919   0.316
68235SOL    HW1 6479  14.715   2.937   0.288
68235SOL    HW2 6480  14.571   2.949   0.244
68236SOL     OW 6481   9.184   6.907  11.656
68236SOL    HW1 6482   9.272   6.901  11.619
68236SOL    HW2 6483   9.153   6.816  11.657
68237SOL     OW 6484   8.771  11.195  12.103
68237SOL    HW1 6485   8.802  11.237  12.184
68237SOL    HW2 6486   8.793  11.103  12.114
68238SOL     OW 6487  13.656  12.741   8.324
68238SOL    HW1 6488  13.617  12.723   8.409
68238SOL    HW2 6489  13.714  12.816   8.339
68239SOL     OW 6490  12.945   3.431   1.727
68239SOL    HW1 6491  12.870   3.373   1.737
68239SOL    HW2 6492  12.959   3.468   1.814
68240SOL     OW 6493   5.169  14.115   8.145
68240SOL    HW1 6494   5.214  14.198   8.157
68240SOL    HW2 6495   5.228  14.064   8.089
68241SOL     OW 6496  12.517   5.624   0.671
68241SOL    HW1 6497  12.443   5.569   0.645
68241SOL    HW2 6498  12.586   5.603   0.608
68242SOL     OW 6499   2.221  13.335   0.194
68242SOL    HW1 6500   2.193  13.246   0.216
68242SOL    HW2 6501   2.192  13.348   0.104
68243SOL     OW 6502  11.838   0.754   4.223
68243SOL    HW1 6503  11.914   0.709   4.185
68243SOL    HW2 6504  11.852   0.846   4.201
68244SOL     OW 6505   0.568   2.598  14.285
68244SOL    HW1 6506   0.629   2.619  14.355
68244SOL    HW2 6507   0.508   2.534  14.324
68245SOL     OW 6508  13.262  14.552   3.930
68245SOL    HW1 6509  13.232  14.466   3.961
68245SOL    HW2 6510  13.186  14.589   3.885
68246SOL     OW 6511   1.627  11.334   0.728
68246SOL    HW1 6512   1.707  11.385   0.716
68246SOL    HW2 6513   1.556  11.396   0.712
68247SOL     OW 6514   4.531   6.010  11.408
68247SOL    HW1 6515   4.620   5.975  11.418
68247SOL    HW2 6516   4.476   5.933  11.393
68248SOL     OW 6517   0.091   3.839   0.644
68248SOL    HW1 6518   0.011   3.882   0.676
68248SOL    HW2 6519   0.082   3.841   0.549
68249SOL     OW 6520  12.896  11.861   5.540
68249SOL    HW1 6521  12.820  11.850   5.482
68249SOL    HW2 6522  12.904  11.956   5.549
68250SOL     OW 6523  12.198  13.795   4.424
68250SOL    HW1 6524  12.252  13.874   4.427
68250SOL    HW2 6525  12.111  13.826   4.399
68251SOL     OW 6526  12.314   4.533   8.286
68251SOL    HW1 6527  12.387   4.568   8.337
68251SOL    HW2 6528  12.294   4.449   8.327
68252SOL     OW 6529   8.018  13.986   7.681
68252SOL    HW1 6530   8.006  14.020   7.769
68252SOL    HW2 6531   8.082  13.915   7.691
68253SOL     OW 6532  12.111  12.530   6.038
68253SOL    HW1 6533  12.146  12.446   6.008
68253SOL    HW2 6534  12.099  12.519   6.133
68254SOL     OW 6535   2.393   2.271   2.036
68254SOL    HW1 6536   2.460   2.278   2.105
68254SOL    HW2 6537   2.314   2.309   2.076
68255SOL     OW 6538   1.230  14.814  13.696
68255SOL    HW1 6539   1.282  14.735  13.680
68255SOL    HW2 6540   1.146  14.781  13.727
68256SOL     OW 6541   1.534   3.400   3.048
68256SOL    HW1 6542   1.599   3.402   3.118
68256SOL    HW2 6543   1.559   3.471   2.990
68257SOL     OW 6544   2.312  14.616  13.178
68257SOL    HW1 6545   2.331  14.695  13.229
68257SOL    HW2 6546   2.359  14.629  13.095
68258SOL     OW 6547   8.570   6.886   3.221
68258SOL    HW1 6548   8.553   6.808   3.168
68258SOL    HW2 6549   8.521   6.871   3.302
68259SOL     OW 6550   9.961   7.720  12.316
68259SOL    HW1 6551  10.030   7.654  12.314
68259SOL    HW2 6552   9.885   7.673  12.350
68260SOL     OW 6553   5.567   9.498   9.679
68260SOL    HW1 6554   5.580   9.513   9.772
68260SOL    HW2 6555   5.643   9.540   9.637
68261SOL     OW 6556   2.791   9.452   5.668
68261SOL    HW1 6557   2.730   9.386   5.700
68261SOL    HW2 6558   2.876   9.425   5.701
68262SOL     OW 6559   9.814   2.501   3.309
68262SOL    HW1 6560   9.820   2.408   3.334
68262SOL    HW2 6561   9.865   2.546   3.377
68263SOL     OW 6562   2.125  11.953   1.590
68263SOL    HW1 6563   2.102  12.012   1.518
68263SOL    HW2 6564   2.041  11.923   1.624
68264SOL     OW 6565   3.501   8.381   7.034
68264SOL    HW1 6566   3.527   8.433   7.110
68264SOL    HW2 6567   3.583   8.349   6.997
68265SOL     OW 6568   9.358   6.373   6.539
68265SOL    HW1 6569   9.308   6.327   6.606
68265SOL    HW2 6570   9.308   6.453   6.523
68266SOL     OW 6571   3.190  11.251   7.474
68266SOL    HW1 6572   3.230  11.194   7.409
68266SOL    HW2 6573   3.166  11.192   7.545
68267SOL     OW 6574   5.307   2.715   5.946
68267SOL    HW1 6575   5.214   2.689   5.946
68267SOL    HW2 6576   5.349   2.651   6.003
68268SOL     OW 6577  10.044   2.438   7.916
68268SOL    HW1 6578  10.136   2.461   7.926
68268SOL    HW2 6579  10.043   2.364   7.856
68269SOL     OW 6580   0.090  13.013   1.449
68269SOL    HW1 6581   0.125  12.936   1.404
68269SOL    HW2 6582  14.881  12.990   1.471
68270SOL     OW 6583   5.509   8.124  14.211
68270SOL    HW1 6584   5.587   8.081  14.246
68270SOL    HW2 6585   5.542   8.178  14.140
68271SOL     OW 6586   6.447   3.659   6.530
68271SOL    HW1 6587   6.500   3.735   6.508
68271SOL    HW2 6588   6.375   3.695   6.583
68272SOL     OW 6589   3.230  12.943  12.888
68272SOL    HW1 6590   3.325  12.945  12.886
68272SOL    HW2 6591   3.208  12.855  12.918
68273SOL     OW 6592   0.953   6.969   6.220
68273SOL    HW1 6593   0.876   7.016   6.252
68273SOL    HW2 6594   1.016   7.038   6.199
68274SOL     OW 6595  13.166  14.673  13.882
68274SOL    HW1 6596  13.237  14.677  13.818
68274SOL    HW2 6597  13.086  14.672  13.830
68275SOL     OW 6598   2.689  13.470  12.075
68275SOL    HW1 6599   2.687  13.406  12.004
68275SOL    HW2 6600   2.782  13.480  12.096
68276SOL     OW 6601  10.571   4.033   8.953
68276SOL    HW1 6602  10.535   4.088   8.883
68276SOL    HW2 6603  10.497   4.016   9.010
68277SOL     OW 6604  13.593   7.312   8.575
68277SOL    HW1 6605  13.522   7.316   8.511
68277SOL    HW2 6606  13.554   7.271   8.652
68278SOL     OW 6607   4.037   8.377  12.089
68278SOL    HW1 6608   3.943   8.371  12.071
68278SOL    HW2 6609   4.043   8.369  12.184
68279SOL     OW 6610   9.154   1.553   9.064
68279SOL    HW1 6611   9.115   1.572   8.978
68279SOL    HW2 6612   9.099   1.601   9.126
68280SOL     OW 6613   9.369   4.477  10.435
68280SOL    HW1 6614   9.421   4.514  10.363
68280SOL    HW2 6615   9.433   4.458  10.503
68281SOL     OW 6616   3.794   8.912   5.935
68281SOL    HW1 6617   3.821   8.889   6.023
68281SOL    HW2 6618   3.780   9.007   5.937
68282SOL     OW 6619  12.219   3.501   1.320
68282SOL    HW1 6620  12.165   3.425   1.344
68282SOL    HW2 6621  12.158   3.575   1.321
68283SOL     OW 6622  14.262  14.838  13.705
68283SOL    HW1 6623  14.223  14.771  13.760
68283SOL    HW2 6624  14.284  14.794  13.623
68284SOL     OW 6625  11.507   1.254  10.343
68284SOL    HW1 6626  11.536   1.232  10.254
68284SOL    HW2 6627  11.475   1.343  10.337
68285SOL     OW 6628   9.008   5.290  13.526
68285SOL    HW1 6629   8.930   5.251  13.565
68285SOL    HW2 6630   8.975   5.340  13.451
68286SOL     OW 6631  12.645  10.252   4.992
68286SOL    HW1 6632  12.728  10.205   4.986
68286SOL    HW2 6633  12.578  10.186   4.974
68287SOL     OW 6634   5.127   1.842   6.261
68287SOL    HW1 6635   5.177   1.910   6.305
68287SOL    HW2 6636   5.120   1.771   6.325
68288SOL     OW 6637   5.294   5.459   1.690
68288SOL    HW1 6638   5.236   5.417   1.627
68288SOL    HW2 6639   5.236   5.512   1.745
68289SOL     OW 6640   8.639  13.173   9.441
68289SOL    HW1 6641   8.670  13.083   9.439
68289SOL    HW2 6642   8.688  13.214   9.512
68290SOL     OW 6643   0.759   2.839   0.979
68290SOL    HW1 6644   0.838   2.858   1.029
68290SOL    HW2 6645   0.690   2.829   1.046
68291SOL     OW 6646   5.646   6.100   4.470
68291SOL    HW1 6647   5.584   6.028   4.480
68291SOL    HW2 6648   5.694   6.102   4.553
68292SOL     OW 6649   8.731   8.171   9.225
68292SOL    HW1 6650   8.704   8.160   9.134
68292SOL    HW2 6651   8.657   8.137   9.276
68293SOL     OW 6652  14.247  13.946   4.644
68293SOL    HW1 6653  14.292  13.950   4.728
68293SOL    HW2 6654  14.154  13.939   4.666
68294SOL     OW 6655   4.396  12.326  14.000
68294SOL    HW1 6656   4.454  12.252  14.021
68294SOL    HW2 6657   4.408  12.386  14.073
68295SOL     OW 6658   6.595  14.854  14.602
68295SOL    HW1 6659   6.515  14.860  14.654
68295SOL    HW2 6660   6.582  14.778  14.546
68296SOL     OW 6661   2.473   6.737  11.563
68296SOL    HW1 6662   2.425   6.738  11.480
68296SOL    HW2 6663   2.516   6.652  11.565
68297SOL     OW 6664  10.807   8.244  11.345
68297SOL    HW1 6665  10.887   8.235  11.293
68297SOL    HW2 6666  10.751   8.302  11.293
68298SOL     OW 6667   6.836  14.175   6.875
68298SOL    HW1 6668   6.884  14.107   6.922
68298SOL    HW2 6669   6.800  14.232   6.943
68299SOL     OW 6670   1.027   2.664  13.210
68299SOL    HW1 6671   0.965   2.728  13.174
68299SOL    HW2 6672   1.109   2.713  13.219
68300SOL     OW 6673  12.919   9.362   9.680
68300SOL    HW1 6674  12.903   9.273   9.711
68300SOL    HW2 6675  12.849   9.414   9.719
68301SOL     OW 6676   3.329   9.036   8.059
68301SOL    HW1 6677   3.273   8.981   8.005
68301SOL    HW2 6678   3.333   9.119   8.012
68302SOL     OW 6679  10.729   0.070   9.277
68302SOL    HW1 6680  10.658   0.133   9.291
68302SOL    HW2 6681  10.692   0.004   9.219
68303SOL     OW 6682   7.723  14.518  11.036
68303SOL    HW1 6683   7.797  14.492  10.981
68303SOL    HW2 6684   7.654  14.456  11.014
68304SOL     OW 6685  13.231   5.470   6.061
68304SOL    HW1 6686  13.201   5.392   6.015
68304SOL    HW2 6687  13.284   5.517   5.997
68305SOL     OW 6688   9.731  13.004   2.469
68305SOL    HW1 6689   9.652  12.980   2.421
68305SOL    HW2 6690   9.706  12.996   2.561
68306SOL     OW 6691  11.179  14.288  14.619
68306SOL    HW1 6692  11.196  14.365  14.566
68306SOL    HW2 6693  11.084  14.278  14.618
68307SOL     OW 6694  13.856   6.713   7.201
68307SOL    HW1 6695  13.898   6.633   7.232
68307SOL    HW2 6696  13.914   6.783   7.230
68308SOL     OW 6697   3.849  14.041   1.684
68308SOL    HW1 6698   3.840  14.091   1.603
68308SOL    HW2 6699   3.942  14.050   1.707
68309SOL     OW 6700   2.194   8.669   0.878
68309SOL    HW1 6701   2.167   8.646   0.967
68309SOL    HW2 6702   2.196   8.585   0.832
68310SOL     OW 6703  12.788   6.291  10.089
68310SOL    HW1 6704  12.794   6.326  10.178
68310SOL    HW2 6705  12.740   6.209  10.099
68311SOL     OW 6706   0.485   0.565  14.288
68311SOL    HW1 6707   0.574   0.538  14.264
68311SOL    HW2 6708   0.436   0.564  14.207
68312SOL     OW 6709   3.153   7.530   4.840
68312SOL    HW1 6710   3.241   7.495   4.830
68312SOL    HW2 6711   3.113   7.518   4.754
68313SOL     OW 6712   4.262  10.069  14.114
68313SOL    HW1 6713   4.227   9.988  14.078
68313SOL    HW2 6714   4.347  10.080  14.070
68314SOL     OW 6715   4.595  13.526  10.774
68314SOL    HW1 6716   4.519  13.574  10.806
68314SOL    HW2 6717   4.559  13.444  10.739
68315SOL     OW 6718  13.183   6.454   6.262
68315SOL    HW1 6719  13.242   6.388   6.224
68315SOL    HW2 6720  13.237   6.534   6.267
68316SOL     OW 6721   7.829   8.051   2.265
68316SOL    HW1 6722   7.882   8.127   2.288
68316SOL    HW2 6723   7.748   8.087   2.230
68317SOL     OW 6724   4.865  13.009   6.159
68317SOL    HW1 6725   4.852  13.099   6.188
68317SOL    HW2 6726   4.954  12.988   6.188
68318SOL     OW 6727  14.315   4.771   3.750
68318SOL    HW1 6728  14.355   4.839   3.697
68318SOL    HW2 6729  14.367   4.769   3.830
68319SOL     OW 6730  14.489   4.128   4.474
68319SOL    HW1 6731  14.412   4.174   4.506
68319SOL    HW2 6732  14.560   4.156   4.532
68320SOL     OW 6733   7.017   7.027   6.285
68320SOL    HW1 6734   6.996   7.045   6.376
68320SOL    HW2 6735   7.077   6.952   6.288
68321SOL     OW 6736   1.417   4.646  12.828
68321SOL    HW1 6737   1.496   4.672  12.875
68321SOL    HW2 6738   1.445   4.571  12.775
68322SOL     OW 6739   6.172   6.952   0.117
68322SOL    HW1 6740   6.137   7.038   0.139
68322SOL    HW2 6741   6.137   6.933   0.030
68323SOL     OW 6742   4.026   3.107  12.371
68323SOL    HW1 6743   3.985   3.177  12.422
68323SOL    HW2 6744   3.985   3.027  12.403
68324SOL     OW 6745   5.969  10.481   4.888
68324SOL    HW1 6746   5.901  10.532   4.932
68324SOL    HW2 6747   5.920  10.421   4.831
68325SOL     OW 6748   6.466   7.321   6.524
68325SOL    HW1 6749   6.515   7.240   6.511
68325SOL    HW2 6750   6.531   7.391   6.516
68326SOL     OW 6751  10.910  11.875   4.457
68326SOL    HW1 6752  10.857  11.896   4.534
68326SOL    HW2 6753  10.948  11.789   4.477
68327SOL     OW 6754   9.496   0.213   6.951
68327SOL    HW1 6755   9.438   0.155   7.000
68327SOL    HW2 6756   9.475   0.196   6.859
68328SOL     OW 6757  14.481   7.624   6.820
68328SOL    HW1 6758  14.514   7.586   6.739
68328SOL    HW2 6759  14.544   7.596   6.887
68329SOL     OW 6760   8.010  12.638  14.148
68329SOL    HW1 6761   7.997  12.627  14.242
68329SOL    HW2 6762   7.961  12.566  14.108
68330SOL     OW 6763   0.171  12.432   1.327
68330SOL    HW1 6764   0.111  12.371   1.286
68330SOL    HW2 6765   0.125  12.463   1.406
68331SOL     OW 6766   9.110   4.007   9.482
68331SOL    HW1 6767   9.175   4.034   9.547
68331SOL    HW2 6768   9.082   3.920   9.512
68332SOL     OW 6769  11.754  11.724  14.287
68332SOL    HW1 6770  11.843  11.711  14.254
68332SOL    HW2 6771  11.738  11.818  14.281
68333SOL     OW 6772   0.824   4.732   7.310
68333SOL    HW1 6773   0.772   4.766   7.383
68333SOL    HW2 6774   0.914   4.756   7.331
68334SOL     OW 6775  10.729   1.297  10.046
68334SOL    HW1 6776  10.732   1.392  10.056
68334SOL    HW2 6777  10.799   1.265  10.103
68335SOL     OW 6778  12.819   4.512   3.844
68335SOL    HW1 6779  12.898   4.505   3.898
68335SOL    HW2 6780  12.852   4.529   3.756
68336SOL     OW 6781   6.948   6.047   9.352
68336SOL    HW1 6782   6.869   6.036   9.405
68336SOL    HW2 6783   7.011   6.089   9.410
68337SOL     OW 6784   5.570   2.545   5.277
68337SOL    HW1 6785   5.526   2.462   5.260
68337SOL    HW2 6786   5.524   2.609   5.222
68338SOL     OW 6787   0.593  14.355  11.885
68338SOL    HW1 6788   0.660  14.317  11.829
68338SOL    HW2 6789   0.636  14.371  11.968
68339SOL     OW 6790   7.769  10.861   6.997
68339SOL    HW1 6791   7.695  10.844   6.938
68339SOL    HW2 6792   7.833  10.793   6.976
68340SOL     OW 6793   5.491   2.305   8.831
68340SOL    HW1 6794   5.427   2.339   8.768
68340SOL    HW2 6795   5.460   2.336   8.916
68341SOL     OW 6796   5.779   5.147   0.367
68341SOL    HW1 6797   5.709   5.211   0.358
68341SOL    HW2 6798   5.855   5.189   0.327
68342SOL     OW 6799  12.450   0.454  11.239
68342SOL    HW1 6800  12.516   0.492  11.180
68342SOL    HW2 6801  12.488   0.462  11.326
68343SOL     OW 6802   1.255   4.030  14.012
68343SOL    HW1 6803   1.258   3.935  14.023
68343SOL    HW2 6804   1.217   4.043  13.926
68344SOL     OW 6805   9.668   7.110   1.174
68344SOL    HW1 6806   9.667   7.173   1.101
68344SOL    HW2 6807   9.653   7.025   1.132
68345SOL     OW 6808   1.903  11.375  13.305
68345SOL    HW1 6809   1.912  11.446  13.242
68345SOL    HW2 6810   1.855  11.413  13.378
68346SOL     OW 6811   4.645   3.255   1.541
68346SOL    HW1 6812   4.710   3.188   1.520
68346SOL    HW2 6813   4.679   3.298   1.619
68347SOL     OW 6814  13.387   6.331   6.814
68347SOL    HW1 6815  13.363   6.303   6.725
68347SOL    HW2 6816  13.339   6.273   6.872
68348SOL     OW 6817   7.121  13.370   8.613
68348SOL    HW1 6818   7.171  13.357   8.533
68348SOL    HW2 6819   7.183  13.411   8.673
68349SOL     OW 6820   3.876  10.681   3.337
68349SOL    HW1 6821   3.841  10.651   3.254
68349SOL    HW2 6822   3.911  10.768   3.318
68350SOL     OW 6823   2.147   9.852   2.081
68350SOL    HW1 6824   2.055   9.876   2.082
68350SOL    HW2 6825   2.163   9.824   1.990
68351SOL     OW 6826   9.722   8.000   1.523
68351SOL    HW1 6827   9.785   8.064   1.491
68351SOL    HW2 6828   9.686   8.039   1.602
68352SOL     OW 6829   6.466   9.022   8.199
68352SOL    HW1 6830   6.528   8.968   8.151
68352SOL    HW2 6831   6.515   9.101   8.221
68353SOL     OW 6832   7.366  10.857   8.603
68353SOL    HW1 6833   7.326  10.844   8.689
68353SOL    HW2 6834   7.296  10.894   8.549
68354SOL     OW 6835   5.499   9.159  13.671
68354SOL    HW1 6836   5.413   9.192  13.697
68354SOL    HW2 6837   5.546   9.146  13.753
68355SOL     OW 6838   6.017  10.534   0.790
68355SOL    HW1 6839   5.960  10.601   0.753
68355SOL    HW2 6840   5.996  10.533   0.883
68356SOL     OW 6841  10.710   2.480   4.537
68356SOL    HW1 6842  10.691   2.434   4.456
68356SOL    HW2 6843  10.647   2.552   4.539
68357SOL     OW 6844   2.758   1.518  13.227
68357SOL    HW1 6845   2.701   1.567  13.169
68357SOL    HW2 6846   2.771   1.575  13.303
68358SOL     OW 6847   0.558   2.765   5.279
68358SOL    HW1 6848   0.507   2.761   5.198
68358SOL    HW2 6849   0.642   2.727   5.257
68359SOL     OW 6850   1.080   0.307   2.815
68359SOL    HW1 6851   1.127   0.378   2.770
68359SOL    HW2 6852   1.031   0.263   2.746
68360SOL     OW 6853  11.531   3.417  13.640
68360SOL    HW1 6854  11.579   3.361  13.702
68360SOL    HW2 6855  11.598   3.451  13.581
68361SOL     OW 6856   4.442   2.149   8.343
68361SOL    HW1 6857   4.484   2.230   8.312
68361SOL    HW2 6858   4.505   2.080   8.324
68362SOL     OW 6859  10.110   7.354  10.735
68362SOL    HW1 6860  10.076   7.427  10.788
68362SOL    HW2 6861  10.076   7.276  10.778
68363SOL     OW 6862   0.562   0.046   9.062
68363SOL    HW1 6863   0.637   0.103   9.079
68363SOL    HW2 6864   0.492   0.083   9.115
68364SOL     OW 6865  14.471   8.727   6.533
68364SOL    HW1 6866  14.491   8.815   6.502
68364SOL    HW2 6867  14.443   8.740   6.624
68365SOL     OW 6868  11.955  10.576   1.779
68365SOL    HW1 6869  12.009  10.505   1.744
68365SOL    HW2 6870  11.878  10.579   1.721
68366SOL     OW 6871   6.006   6.050   3.336
68366SOL    HW1 6872   5.958   6.010   3.263
68366SOL    HW2 6873   6.015   6.142   3.311
68367SOL     OW 6874  10.873   3.259  10.344
68367SOL    HW1 6875  10.963   3.267  10.377
68367SOL    HW2 6876  10.820   3.306  10.408
68368SOL     OW 6877  11.717   6.946   3.719
68368SOL    HW1 6878  11.728   7.016   3.654
68368SOL    HW2 6879  11.645   6.893   3.686
68369SOL     OW 6880   2.346  12.990   4.700
68369SOL    HW1 6881   2.321  12.916   4.754
68369SOL    HW2 6882   2.352  13.064   4.761
68370SOL     OW 6883   1.616  11.605   3.866
68370SOL    HW1 6884   1.617  11.531   3.804
68370SOL    HW2 6885   1.611  11.564   3.952
68371SOL     OW 6886   9.954  13.519  12.702
68371SOL    HW1 6887   9.908  13.463  12.764
68371SOL    HW2 6888   9.913  13.605  12.712
68372SOL     OW 6889   8.938  13.274   3.954
68372SOL    HW1 6890   8.854  13.298   3.994
68372SOL    HW2 6891   8.975  13.209   4.013
68373SOL     OW 6892  13.291   1.281  10.936
68373SOL    HW1 6893  13.357   1.242  10.878
68373SOL    HW2 6894  13.225   1.317  10.877
68374SOL     OW 6895  11.358  12.798   2.524
68374SOL    HW1 6896  11.269  12.829   2.511
68374SOL    HW2 6897  11.375  12.811   2.617
68375SOL     OW 6898  13.015   1.890  12.050
68375SOL    HW1 6899  13.013   1.975  12.094
68375SOL    HW2 6900  13.108   1.868  12.044
68376SOL     OW 6901   7.654   2.454   2.322
68376SOL    HW1 6902   7.583   2.391   2.325
68376SOL    HW2 6903   7.611   2.539   2.332
68377SOL     OW 6904   8.255  14.818   3.648
68377SOL    HW1 6905   8.218  14.809   3.736
68377SOL    HW2 6906   8.336  14.867   3.660
68378SOL     OW 6907  12.670   0.394   9.579
68378SOL    HW1 6908  12.721   0.325   9.536
68378SOL    HW2 6909  12.720   0.416   9.657
68379SOL     OW 6910  13.573   6.704   7.489
68379SOL    HW1 6911  13.588   6.765   7.416
68379SOL    HW2 6912  13.596   6.755   7.567
68380SOL     OW 6913   3.080   5.110   6.229
68380SOL    HW1 6914   3.112   5.139   6.315
68380SOL    HW2 6915   3.157   5.114   6.172
68381SOL     OW 6916  13.042   8.686   3.961
68381SOL    HW1 6917  13.055   8.770   3.918
68381SOL    HW2 6918  13.109   8.629   3.923
68382SOL     OW 6919  13.730   9.268  10.491
68382SOL    HW1 6920  13.792   9.316  10.436
68382SOL    HW2 6921  13.783   9.198  10.530
68383SOL     OW 6922   2.601   4.127   0.111
68383SOL    HW1 6923   2.537   4.179   0.160
68383SOL    HW2 6924   2.685   4.152   0.149
68384SOL     OW 6925  13.607   4.740   7.372
68384SOL    HW1 6926  13.561   4.794   7.435
68384SOL    HW2 6927  13.578   4.772   7.286
68385SOL     OW 6928   6.535  10.619  11.876
68385SOL    HW1 6929   6.470  10.559  11.911
68385SOL    HW2 6930   6.604  10.562  11.842
68386SOL     OW 6931  14.585   2.260   9.306
68386SOL    HW1 6932  14.615   2.197   9.241
68386SOL    HW2 6933  14.623   2.230   9.388
68387SOL     OW 6934   7.078  13.132   6.898
68387SOL    HW1 6935   7.143  13.201   6.913
68387SOL    HW2 6936   7.079  13.118   6.803
68388SOL     OW 6937   8.771   6.149   8.571
68388SOL    HW1 6938   8.763   6.205   8.494
68388SOL    HW2 6939   8.781   6.210   8.644
68389SOL     OW 6940   8.840   8.330   7.672
68389SOL    HW1 6941   8.745   8.337   7.660
68389SOL    HW2 6942   8.872   8.287   7.593
68390SOL     OW 6943  12.496   8.001   2.967
68390SOL    HW1 6944  12.502   7.997   2.872
68390SOL    HW2 6945  12.418   8.054   2.984
68391SOL     OW 6946   8.829   9.557  13.775
68391SOL    HW1 6947   8.772   9.551  13.698
68391SOL    HW2 6948   8.916   9.573  13.739
68392SOL     OW 6949   4.462   9.585   3.823
68392SOL    HW1 6950   4.403   9.533   3.768
68392SOL    HW2 6951   4.477   9.665   3.773
68393SOL     OW 6952   0.859   5.907   0.551
68393SOL    HW1 6953   0.807   5.851   0.492
68393SOL    HW2 6954   0.890   5.978   0.494
68394SOL     OW 6955   5.794  10.399  11.762
68394SOL    HW1 6956   5.712  10.388  11.810
68394SOL    HW2 6957   5.776  10.467  11.698
68395SOL     OW 6958   8.072   1.837  12.450
68395SOL    HW1 6959   8.151   1.830  12.396
68395SOL    HW2 6960   8.007   1.875  12.392
68396SOL     OW 6961   6.421   2.609  10.394
68396SOL    HW1 6962   6.434   2.699  10.426
68396SOL    HW2 6963   6.423   2.618  10.298
68397SOL     OW 6964  12.422   0.457   2.163
68397SOL    HW1 6965  12.393   0.546   2.145
68397SOL    HW2 6966  12.462   0.428   2.082
68398SOL     OW 6967   6.146  14.057   5.078
68398SOL    HW1 6968   6.060  14.023   5.052
68398SOL    HW2 6969   6.159  14.024   5.167
68399SOL     OW 6970   7.799   4.698   3.806
68399SOL    HW1 6971   7.795   4.656   3.720
68399SOL    HW2 6972   7.827   4.788   3.787
68400SOL     OW 6973  11.680   0.341  12.204
68400SOL    HW1 6974  11.759   0.346  12.258
68400SOL    HW2 6975  11.645   0.430  12.205
68401SOL     OW 6976   0.334   3.899  11.901
68401SOL    HW1 6977   0.372   3.820  11.939
68401SOL    HW2 6978   0.240   3.883  11.900
68402SOL     OW 6979  12.405  14.109   2.263
68402SOL    HW1 6980  12.321  14.123   2.307
68402SOL    HW2 6981  12.460  14.069   2.330
68403SOL     OW 6982  11.809   7.964  11.414
68403SOL    HW1 6983  11.782   7.998  11.329
68403SOL    HW2 6984  11.736   7.909  11.442
68404SOL     OW 6985  12.378   3.954   3.012
68404SOL    HW1 6986  12.418   4.024   2.960
68404SOL    HW2 6987  12.390   3.875   2.960
68405SOL     OW 6988  10.256  13.349   6.928
68405SOL    HW1 6989  10.271  13.415   6.996
68405SOL    HW2 6990  10.177  13.302   6.957
68406SOL     OW 6991  10.746  14.307   2.978
68406SOL    HW1 6992  10.709  14.230   3.021
68406SOL    HW2 6993  10.824  14.275   2.932
68407SOL     OW 6994   1.250  14.046   2.418
68407SOL    HW1 6995   1.169  14.046   2.468
68407SOL    HW2 6996   1.284  14.135   2.426
68408SOL     OW 6997   6.650  11.225  14.272
68408SOL    HW1 6998   6.578  11.237  14.211
68408SOL    HW2 6999   6.639  11.135  14.303
68409SOL     OW 7000   5.086   5.916   4.478
68409SOL    HW1 7001   5.128   5.956   4.554
68409SOL    HW2 7002   5.086   5.985   4.412
68410SOL     OW 7003   4.794  13.364   7.054
68410SOL    HW1 7004   4.747  13.374   7.136
68410SOL    HW2 7005   4.738  13.309   7.000
68411SOL     OW 7006   7.839   1.246   0.496
68411SOL    HW1 7007   7.746   1.257   0.514
68411SOL    HW2 7008   7.849   1.265   0.403
68412SOL     OW 7009   3.870   2.156   6.841
68412SOL    HW1 7010   3.908   2.070   6.820
68412SOL    HW2 7011   3.776   2.145   6.824
68413SOL     OW 7012   2.906   8.470   0.468
68413SOL    HW1 7013   2.811   8.461   0.475
68413SOL    HW2 7014   2.934   8.392   0.419
68414SOL     OW 7015  14.071   4.157  14.074
68414SOL    HW1 7016  14.045   4.067  14.093
68414SOL    HW2 7017  14.133   4.179  14.143
68415SOL     OW 7018  10.151  13.687   8.420
68415SOL    HW1 7019  10.119  13.777   8.420
68415SOL    HW2 7020  10.124  13.652   8.505
68416SOL     OW 7021   8.433  10.549  11.391
68416SOL    HW1 7022   8.349  10.556  11.436
68416SOL    HW2 7023   8.417  10.488  11.319
68417SOL     OW 7024  14.289  10.346   3.690
68417SOL    HW1 7025  14.365  10.288   3.698
68417SOL    HW2 7026  14.222  10.292   3.648
68418SOL     OW 7027   0.906   3.832  10.051
68418SOL    HW1 7028   0.922   3.846   9.958
68418SOL    HW2 7029   0.864   3.746  10.055
68419SOL     OW 7030   3.841   0.792  12.722
68419SOL    HW1 7031   3.892   0.714  12.698
68419SOL    HW2 7032   3.799   0.819  12.640
68420SOL     OW 7033   9.937   5.264   1.035
68420SOL    HW1 7034   9.888   5.190   1.001
68420SOL    HW2 7035   9.939   5.327   0.963
68421SOL     OW 7036  10.086   7.274   9.305
68421SOL    HW1 7037  10.050   7.338   9.244
68421SOL    HW2 7038  10.010   7.241   9.353
68422SOL     OW 7039  11.652  11.621   8.571
68422SOL    HW1 7040  11.634  11.690   8.507
68422SOL    HW2 7041  11.740  11.641   8.604
68423SOL     OW 7042  13.442   8.820   5.125
68423SOL    HW1 7043  13.398   8.794   5.043
68423SOL    HW2 7044  13.371   8.855   5.179
68424SOL     OW 7045   4.077  12.289   3.717
68424SOL    HW1 7046   4.097  12.310   3.808
68424SOL    HW2 7047   4.065  12.374   3.675
68425SOL     OW 7048   2.128  14.720   8.988
68425SOL    HW1 7049   2.043  14.751   8.957
68425SOL    HW2 7050   2.108  14.643   9.042
68426SOL     OW 7051   5.237   8.217  13.929
68426SOL    HW1 7052   5.212   8.179  13.844
68426SOL    HW2 7053   5.331   8.204  13.934
68427SOL     OW 7054   4.080   9.411   6.736
68427SOL    HW1 7055   4.031   9.332   6.756
68427SOL    HW2 7056   4.171   9.391   6.760
68428SOL     OW 7057   8.176  11.670   9.045
68428SOL    HW1 7058   8.184  11.587   9.092
68428SOL    HW2 7059   8.259  11.716   9.063
68429SOL     OW 7060   7.605   4.044   9.794
68429SOL    HW1 7061   7.662   4.120   9.801
68429SOL    HW2 7062   7.661   3.969   9.818
68430SOL     OW 7063   3.333   9.991   6.691
68430SOL    HW1 7064   3.341  10.051   6.617
68430SOL    HW2 7065   3.327   9.904   6.651
68431SOL     OW 7066   5.917  10.643  10.379
68431SOL    HW1 7067   5.889  10.559  10.416
68431SOL    HW2 7068   6.012  10.644  10.390
68432SOL     OW 7069  12.013  11.684   3.338
68432SOL    HW1 7070  11.955  11.611   3.315
68432SOL    HW2 7071  12.099  11.657   3.308
68433SOL     OW 7072   7.736   6.666   5.990
68433SOL    HW1 7073   7.742   6.594   6.053
68433SOL    HW2 7074   7.665   6.640   5.931
68434SOL     OW 7075   7.303   2.740   6.558
68434SOL    HW1 7076   7.383   2.724   6.608
68434SOL    HW2 7077   7.244   2.781   6.621
68435SOL     OW 7078  12.953   3.233  10.095
68435SOL    HW1 7079  13.034   3.193  10.061
68435SOL    HW2 7080  12.895   3.238  10.019
68436SOL     OW 7081   6.886  14.064   0.553
68436SOL    HW1 7082   6.950  14.018   0.606
68436SOL    HW2 7083   6.938  14.112   0.489
68437SOL     OW 7084   6.680  11.223  10.951
68437SOL    HW1 7085   6.692  11.140  10.904
68437SOL    HW2 7086   6.716  11.289  10.892
68438SOL     OW 7087   5.118   4.205   2.465
68438SOL    HW1 7088   5.034   4.243   2.491
68438SOL    HW2 7089   5.182   4.247   2.523
68439SOL     OW 7090  14.213   2.041   4.762
68439SOL    HW1 7091  14.166   2.094   4.698
68439SOL    HW2 7092  14.283   2.000   4.711
68440SOL     OW 7093   5.673   7.526  12.585
68440SOL    HW1 7094   5.743   7.591  12.575
68440SOL    HW2 7095   5.614   7.543  12.512
68441SOL     OW 7096   0.316  10.887   5.711
68441SOL    HW1 7097   0.393  10.904   5.765
68441SOL    HW2 7098   0.308  10.966   5.656
68442SOL     OW 7099  10.339  13.957  10.623
68442SOL    HW1 7100  10.278  13.894  10.661
68442SOL    HW2 7101  10.284  14.020  10.577
68443SOL     OW 7102   8.501   4.536  11.649
68443SOL    HW1 7103   8.569   4.469  11.638
68443SOL    HW2 7104   8.547   4.619  11.634
68444SOL     OW 7105  11.669  10.144   4.527
68444SOL    HW1 7106  11.715  10.228   4.527
68444SOL    HW2 7107  11.626  10.139   4.612
68445SOL     OW 7108   3.426   0.544   4.175
68445SOL    HW1 7109   3.351   0.549   4.235
68445SOL    HW2 7110   3.395   0.489   4.103
68446SOL     OW 7111  14.664  10.875   6.241
68446SOL    HW1 7112  14.745  10.864   6.291
68446SOL    HW2 7113  14.692  10.914   6.158
68447SOL     OW 7114   4.161   9.189   9.263
68447SOL    HW1 7115   4.235   9.249   9.275
68447SOL    HW2 7116   4.086   9.238   9.296
68448SOL     OW 7117   9.173  12.344   2.451
68448SOL    HW1 7118   9.097  12.390   2.486
68448SOL    HW2 7119   9.137  12.280   2.390
68449SOL     OW 7120  11.530   3.129   9.926
68449SOL    HW1 7121  11.466   3.110   9.857
68449SOL    HW2 7122  11.568   3.044   9.947
68450SOL     OW 7123  11.097  14.298   3.102
68450SOL    HW1 7124  11.093  14.232   3.171
68450SOL    HW2 7125  11.058  14.377   3.141
68451SOL     OW 7126   8.821   7.257   8.765
68451SOL    HW1 7127   8.905   7.296   8.787
68451SOL    HW2 7128   8.791   7.216   8.846
68452SOL     OW 7129   7.074  12.071  10.316
68452SOL    HW1 7130   6.980  12.054  10.307
68452SOL    HW2 7131   7.114  12.023  10.244
68453SOL     OW 7132  13.981   5.215   7.561
68453SOL    HW1 7133  13.895   5.189   7.594
68453SOL    HW2 7134  14.011   5.283   7.621
68454SOL     OW 7135   7.566  12.920   3.813
68454SOL    HW1 7136   7.475  12.937   3.787
68454SOL    HW2 7137   7.563  12.912   3.908
68455SOL     OW 7138  11.656   7.922   2.688
68455SOL    HW1 7139  11.725   7.870   2.647
68455SOL    HW2 7140  11.659   8.006   2.642
68456SOL     OW 7141   4.278   9.118   1.229
68456SOL    HW1 7142   4.253   9.178   1.158
68456SOL    HW2 7143   4.333   9.052   1.186
68457SOL     OW 7144  13.419  14.441   1.760
68457SOL    HW1 7145  13.505  14.477   1.784
68457SOL    HW2 7146  13.397  14.485   1.678
68458SOL     OW 7147  12.856  12.287   1.888
68458SOL    HW1 7148  12.767  12.269   1.855
68458SOL    HW2 7149  12.856  12.380   1.909
68459SOL     OW 7150   7.785   2.929   1.367
68459SOL    HW1 7151   7.747   3.004   1.414
68459SOL    HW2 7152   7.802   2.962   1.279
68460SOL     OW 7153   0.572   1.404  11.265
68460SOL    HW1 7154   0.572   1.309  11.279
68460SOL    HW2 7155   0.480   1.429  11.274
68461SOL     OW 7156  10.792  10.109   2.794
68461SOL    HW1 7157  10.742  10.190   2.787
68461SOL    HW2 7158  10.840  10.103   2.711
68462SOL     OW 7159   1.949  14.227  14.360
68462SOL    HW1 7160   1.882  14.206  14.425
68462SOL    HW2 7161   1.914  14.193  14.278
68463SOL     OW 7162  11.523   8.175   4.169
68463SOL    HW1 7163  11.485   8.087   4.165
68463SOL    HW2 7164  11.461   8.225   4.221
68464SOL     OW 7165   0.942  11.386  11.152
68464SOL    HW1 7166   0.978  11.460  11.103
68464SOL    HW2 7167   1.012  11.321  11.154
68465SOL     OW 7168  10.317   3.566   9.697
68465SOL    HW1 7169  10.229   3.568   9.735
68465SOL    HW2 7170  10.371   3.525   9.764
68466SOL     OW 7171   6.072   3.899   3.171
68466SOL    HW1 7172   6.053   3.858   3.087
68466SOL    HW2 7173   6.019   3.979   3.171
68467SOL     OW 7174   2.994   2.001   3.498
68467SOL    HW1 7175   2.933   1.998   3.424
68467SOL    HW2 7176   3.026   1.911   3.506
68468SOL     OW 7177  12.131   3.986   6.749
68468SOL    HW1 7178  12.182   3.920   6.795
68468SOL    HW2 7179  12.187   4.012   6.675
68469SOL     OW 7180  13.219  10.328   9.426
68469SOL    HW1 7181  13.290  10.269   9.401
68469SOL    HW2 7182  13.262  10.399   9.473
68470SOL     OW 7183  12.920  10.761   2.647
68470SOL    HW1 7184  12.923  10.824   2.719
68470SOL    HW2 7185  12.832  10.772   2.610
68471SOL     OW 7186  13.116   8.710  12.869
68471SOL    HW1 7187  13.053   8.686  12.937
68471SOL    HW2 7188  13.144   8.626  12.831
68472SOL     OW 7189   9.511   7.694  10.107
68472SOL    HW1 7190   9.493   7.604  10.082
68472SOL    HW2 7191   9.426   7.739  10.098
68473SOL     OW 7192  12.555   1.563   9.806
68473SOL    HW1 7193  12.585   1.640   9.855
68473SOL    HW2 7194  12.506   1.599   9.732
68474SOL     OW 7195  14.215  12.909  13.970
68474SOL    HW1 7196  14.163  12.938  13.895
68474SOL    HW2 7197  14.196  12.815  13.978
68475SOL     OW 7198   9.338   5.595   3.261
68475SOL    HW1 7199   9.425   5.602   3.222
68475SOL    HW2 7200   9.294   5.528   3.209
68476SOL     OW 7201  10.188  13.360  13.698
68476SOL    HW1 7202  10.148  13.349  13.784
68476SOL    HW2 7203  10.178  13.453  13.678
68477SOL     OW 7204  11.957  12.194  11.936
68477SOL    HW1 7205  11.898  12.265  11.908
68477SOL    HW2 7206  11.956  12.199  12.031
68478SOL     OW 7207   8.268   2.994  11.164
68478SOL    HW1 7208   8.301   3.072  11.121
68478SOL    HW2 7209   8.317   2.987  11.245
68479SOL     OW 7210   6.533  13.521  10.015
68479SOL    HW1 7211   6.446  13.560  10.007
68479SOL    HW2 7212   6.556  13.533  10.107
68480SOL     OW 7213   1.516  10.334   0.726
68480SOL    HW1 7214   1.506  10.263   0.789
68480SOL    HW2 7215   1.459  10.403   0.759
68481SOL     OW 7216  14.847  12.431  13.696
68481SOL    HW1 7217  14.842  12.463  13.606
68481SOL    HW2 7218  14.761  12.451  13.733
68482SOL     OW 7219  14.488  12.958  13.189
68482SOL    HW1 7220  14.486  13.053  13.203
68482SOL    HW2 7221  14.581  12.937  13.181
68483SOL     OW 7222   1.901  14.263   2.704
68483SOL    HW1 7223   1.928  14.313   2.627
68483SOL    HW2 7224   1.811  14.290   2.721
68484SOL     OW 7225  11.623  10.808   4.012
68484SOL    HW1 7226  11.678  10.854   3.949
68484SOL    HW2 7227  11.685  10.776   4.078
68485SOL     OW 7228  11.151   9.124   3.841
68485SOL    HW1 7229  11.225   9.078   3.882
68485SOL    HW2 7230  11.190   9.205   3.806
68486SOL     OW 7231   3.546  11.115   9.824
68486SOL    HW1 7232   3.515  11.136   9.912
68486SOL    HW2 7233   3.497  11.037   9.799
68487SOL     OW 7234   1.879   8.659   1.215
68487SOL    HW1 7235   1.880   8.753   1.235
68487SOL    HW2 7236   1.891   8.616   1.299
68488SOL     OW 7237  13.215   4.115   0.551
68488SOL    HW1 7238  13.156   4.045   0.581
68488SOL    HW2 7239  13.242   4.159   0.631
68489SOL     OW 7240   5.547   6.028   2.018
68489SOL    HW1 7241   5.498   6.102   2.054
68489SOL    HW2 7242   5.508   5.951   2.059
68490SOL     OW 7243  10.530   0.477   9.539
68490SOL    HW1 7244  10.621   0.458   9.516
68490SOL    HW2 7245  10.489   0.500   9.456
68491SOL     OW 7246  11.826  11.599   4.351
68491SOL    HW1 7247  11.808  11.652   4.273
68491SOL    HW2 7248  11.744  11.552   4.367
68492SOL     OW 7249  13.141   8.352   9.637
68492SOL    HW1 7250  13.162   8.291   9.707
68492SOL    HW2 7251  13.174   8.310   9.558
68493SOL     OW 7252   7.471  11.293   9.368
68493SOL    HW1 7253   7.517  11.268   9.448
68493SOL    HW2 7254   7.382  11.313   9.397
68494SOL     OW 7255   6.353   8.653   4.654
68494SOL    HW1 7256   6.341   8.743   4.685
68494SOL    HW2 7257   6.410   8.661   4.578
68495SOL     OW 7258   5.148   8.034   3.899
68495SOL    HW1 7259   5.193   8.090   3.963
68495SOL    HW2 7260   5.133   8.092   3.824
68496SOL     OW 7261   5.341  11.983   6.675
68496SOL    HW1 7262   5.380  11.896   6.664
68496SOL    HW2 7263   5.365  12.031   6.597
68497SOL     OW 7264  13.543  10.448   7.196
68497SOL    HW1 7265  13.583  10.367   7.228
68497SOL    HW2 7266  13.615  10.498   7.158
68498SOL     OW 7267   3.480   7.230   5.544
68498SOL    HW1 7268   3.474   7.323   5.526
68498SOL    HW2 7269   3.573   7.208   5.529
68499SOL     OW 7270  10.589   8.343   4.398
68499SOL    HW1 7271  10.607   8.405   4.469
68499SOL    HW2 7272  10.658   8.359   4.334
68500SOL     OW 7273   9.370   3.039   8.360
68500SOL    HW1 7274   9.418   2.974   8.410
68500SOL    HW2 7275   9.351   3.109   8.422
68501SOL     OW 7276  13.317   2.328  13.356
68501SOL    HW1 7277  13.407   2.314  13.386
68501SOL    HW2 7278  13.263   2.311  13.434
68502SOL     OW 7279  11.294   7.028   9.874
68502SOL    HW1 7280  11.233   6.954   9.864
68502SOL    HW2 7281  11.362   7.012   9.808
68503SOL     OW 7282   2.957  10.362  11.651
68503SOL    HW1 7283   2.959  10.422  11.725
68503SOL    HW2 7284   3.021  10.397  11.589
68504SOL     OW 7285   7.873   9.763   1.531
68504SOL    HW1 7286   7.833   9.677   1.543
68504SOL    HW2 7287   7.961   9.745   1.499
68505SOL     OW 7288   8.166   7.269   8.428
68505SOL    HW1 7289   8.100   7.200   8.418
68505SOL    HW2 7290   8.215   7.243   8.506
68506SOL     OW 7291   7.570   2.878   4.097
68506SOL    HW1 7292   7.593   2.791   4.065
68506SOL    HW2 7293   7.486   2.897   4.057
68507SOL     OW 7294   2.646  10.572  14.010
68507SOL    HW1 7295   2.705  10.644  13.988
68507SOL    HW2 7296   2.588  10.564  13.935
68508SOL     OW 7297   2.984  11.515   9.566
68508SOL    HW1 7298   2.984  11.600   9.522
68508SOL    HW2 7299   3.076  11.490   9.571
68509SOL     OW 7300   7.307  10.343   0.655
68509SOL    HW1 7301   7.282  10.289   0.580
68509SOL    HW2 7302   7.238  10.409   0.661
68510SOL     OW 7303   5.119   6.117  10.094
68510SOL    HW1 7304   5.148   6.050  10.156
68510SOL    HW2 7305   5.111   6.196  10.146
68511SOL     OW 7306   1.758   9.451   0.860
68511SOL    HW1 7307   1.773   9.420   0.771
68511SOL    HW2 7308   1.802   9.536   0.864
68512SOL     OW 7309   0.137   9.839   7.234
68512SOL    HW1 7310   0.196   9.768   7.257
68512SOL    HW2 7311   0.168   9.871   7.149
68513SOL     OW 7312   8.640   3.458   7.526
68513SOL    HW1 7313   8.610   3.521   7.591
68513SOL    HW2 7314   8.728   3.434   7.555
68514SOL     OW 7315   4.978  10.743   0.939
68514SOL    HW1 7316   5.002  10.808   0.873
68514SOL    HW2 7317   4.951  10.666   0.888
68515SOL     OW 7318   9.814  13.356  14.523
68515SOL    HW1 7319   9.754  13.389  14.590
68515SOL    HW2 7320   9.802  13.416  14.449
68516SOL     OW 7321   2.966   3.514   0.052
68516SOL    HW1 7322   2.963   3.449   0.122
68516SOL    HW2 7323   2.970   3.463  14.852
68517SOL     OW 7324   1.560   9.328   8.776
68517SOL    HW1 7325   1.612   9.292   8.704
68517SOL    HW2 7326   1.535   9.415   8.746
68518SOL     OW 7327  10.426   5.653   4.573
68518SOL    HW1 7328  10.357   5.719   4.562
68518SOL    HW2 7329  10.447   5.626   4.483
68519SOL     OW 7330   8.637   6.067  12.468
68519SOL    HW1 7331   8.697   6.132  12.504
68519SOL    HW2 7332   8.637   6.083  12.373
68520SOL     OW 7333  11.399   2.288  14.638
68520SOL    HW1 7334  11.406   2.354  14.569
68520SOL    HW2 7335  11.399   2.204  14.592
68521SOL     OW 7336   9.065  12.261   8.876
68521SOL    HW1 7337   9.021  12.327   8.928
68521SOL    HW2 7338   9.144  12.305   8.843
68522SOL     OW 7339   7.737   6.416   6.089
68522SOL    HW1 7340   7.673   6.362   6.135
68522SOL    HW2 7341   7.780   6.356   6.028
68523SOL     OW 7342   0.429   4.955   4.927
68523SOL    HW1 7343   0.404   5.015   4.856
68523SOL    HW2 7344   0.524   4.959   4.929
68524SOL     OW 7345  12.973   5.695   6.025
68524SOL    HW1 7346  12.913   5.644   6.079
68524SOL    HW2 7347  12.920   5.724   5.951
68525SOL     OW 7348  12.842   5.722   0.837
68525SOL    HW1 7349  12.837   5.626   0.830
68525SOL    HW2 7350  12.903   5.748   0.768
68526SOL     OW 7351   6.691   6.033  11.204
68526SOL    HW1 7352   6.775   5.996  11.232
68526SOL    HW2 7353   6.694   6.124  11.233
68527SOL     OW 7354   5.424   2.935  10.039
68527SOL    HW1 7355   5.467   2.933  10.124
68527SOL    HW2 7356   5.388   2.846  10.029
68528SOL     OW 7357   8.738   5.114   8.464
68528SOL    HW1 7358   8.737   5.047   8.396
68528SOL    HW2 7359   8.732   5.065   8.546
68529SOL     OW 7360   7.438   8.944   6.615
68529SOL    HW1 7361   7.457   8.860   6.655
68529SOL    HW2 7362   7.465   9.009   6.680
68530SOL     OW 7363  12.286   8.191   2.174
68530SOL    HW1 7364  12.273   8.281   2.146
68530SOL    HW2 7365  12.226   8.181   2.248
68531SOL     OW 7366   2.998  14.756   0.681
68531SOL    HW1 7367   3.062  14.688   0.660
68531SOL    HW2 7368   2.986  14.748   0.776
68532SOL     OW 7369   5.079   9.776  11.206
68532SOL    HW1 7370   5.115   9.827  11.279
68532SOL    HW2 7371   4.996   9.741  11.240
68533SOL     OW 7372   7.334  14.815   6.446
68533SOL    HW1 7373   7.326  14.778   6.359
68533SOL    HW2 7374   7.260  14.780   6.495
68534SOL     OW 7375   8.872  11.913   0.036
68534SOL    HW1 7376   8.845  11.821   0.037
68534SOL    HW2 7377   8.873  11.936  14.825
68535SOL     OW 7378  10.486   2.824   8.612
68535SOL    HW1 7379  10.403   2.787   8.582
68535SOL    HW2 7380  10.516   2.879   8.540
68536SOL     OW 7381  12.694   3.264   3.314
68536SOL    HW1 7382  12.675   3.241   3.223
68536SOL    HW2 7383  12.639   3.340   3.332
68537SOL     OW 7384  10.346  13.867   1.501
68537SOL    HW1 7385  10.333  13.913   1.418
68537SOL    HW2 7386  10.435  13.887   1.526
68538SOL     OW 7387  12.773   2.605   3.809
68538SOL    HW1 7388  12.795   2.685   3.857
68538SOL    HW2 7389  12.729   2.636   3.730
68539SOL     OW 7390   1.531   3.472  14.761
68539SOL    HW1 7391   1.476   3.551  14.760
68539SOL    HW2 7392   1.597   3.491  14.827
68540SOL     OW 7393  12.901   7.483   6.594
68540SOL    HW1 7394  12.975   7.423   6.588
68540SOL    HW2 7395  12.894   7.503   6.688
68541SOL     OW 7396   1.915  14.608   7.666
68541SOL    HW1 7397   1.911  14.537   7.602
68541SOL    HW2 7398   1.904  14.687   7.614
68542SOL     OW 7399   0.091   6.145   1.687
68542SOL    HW1 7400   0.022   6.212   1.692
68542SOL    HW2 7401   0.106   6.119   1.778
68543SOL     OW 7402   4.512   0.339  12.385
68543SOL    HW1 7403   4.500   0.308  12.295
68543SOL    HW2 7404   4.433   0.311  12.431
68544SOL     OW 7405  10.547   3.358   6.986
68544SOL    HW1 7406  10.626   3.412   6.981
68544SOL    HW2 7407  10.561   3.289   6.921
68545SOL     OW 7408   9.157   4.321   8.484
68545SOL    HW1 7409   9.203   4.248   8.524
68545SOL    HW2 7410   9.086   4.342   8.545
68546SOL     OW 7411   0.630   9.695   2.251
68546SOL    HW1 7412   0.545   9.701   2.294
68546SOL    HW2 7413   0.619   9.744   2.170
68547SOL     OW 7414   1.850   2.117  13.482
68547SOL    HW1 7415   1.772   2.102  13.535
68547SOL    HW2 7416   1.894   2.192  13.524
68548SOL     OW 7417   6.137   7.596   0.052
68548SOL    HW1 7418   6.206   7.631  14.877
68548SOL    HW2 7419   6.126   7.505   0.023
68549SOL     OW 7420  13.252   0.004   6.471
68549SOL    HW1 7421  13.341   0.038   6.462
68549SOL    HW2 7422  13.240  14.873   6.565
68550SOL     OW 7423   4.640   9.931   5.523
68550SOL    HW1 7424   4.597   9.925   5.438
68550SOL    HW2 7425   4.713   9.870   5.518
68551SOL     OW 7426   4.940  13.828  14.699
68551SOL    HW1 7427   4.903  13.740  14.700
68551SOL    HW2 7428   4.879  13.878  14.644
68552SOL     OW 7429   2.156  10.265   0.899
68552SOL    HW1 7430   2.083  10.277   0.838
68552SOL    HW2 7431   2.230  10.242   0.844
68553SOL     OW 7432   7.103   6.223   4.384
68553SOL    HW1 7433   7.160   6.198   4.311
68553SOL    HW2 7434   7.103   6.146   4.441
68554SOL     OW 7435   5.100   1.196   1.499
68554SOL    HW1 7436   5.165   1.252   1.541
68554SOL    HW2 7437   5.061   1.146   1.571
68555SOL     OW 7438   3.035   2.269   8.736
68555SOL    HW1 7439   3.073   2.188   8.704
68555SOL    HW2 7440   3.104   2.334   8.727
68556SOL     OW 7441   5.972   8.560   7.579
68556SOL    HW1 7442   5.909   8.561   7.651
68556SOL    HW2 7443   6.003   8.651   7.573
68557SOL     OW 7444   5.975   9.911   0.167
68557SOL    HW1 7445   5.989   9.914   0.262
68557SOL    HW2 7446   6.018   9.831   0.138
68558SOL     OW 7447   9.468   3.092   2.602
68558SOL    HW1 7448   9.550   3.118   2.643
68558SOL    HW2 7449   9.432   3.173   2.567
68559SOL     OW 7450   9.370   9.015   4.395
68559SOL    HW1 7451   9.290   8.984   4.354
68559SOL    HW2 7452   9.374   9.108   4.374
68560SOL     OW 7453  13.639  12.261  14.670
68560SOL    HW1 7454  13.559  12.209  14.677
68560SOL    HW2 7455  13.708  12.205  14.705
68561SOL     OW 7456   1.209   8.502   9.930
68561SOL    HW1 7457   1.218   8.494  10.025
68561SOL    HW2 7458   1.258   8.427   9.896
68562SOL     OW 7459   6.716   3.894   1.454
68562SOL    HW1 7460   6.675   3.896   1.541
68562SOL    HW2 7461   6.809   3.882   1.472
68563SOL     OW 7462   3.830   4.498   4.082
68563SOL    HW1 7463   3.815   4.574   4.139
68563SOL    HW2 7464   3.895   4.529   4.019
68564SOL     OW 7465  12.989   7.915  10.282
68564SOL    HW1 7466  12.917   7.878  10.333
68564SOL    HW2 7467  13.067   7.900  10.335
68565SOL     OW 7468  12.135   6.966   4.682
68565SOL    HW1 7469  12.053   6.945   4.727
68565SOL    HW2 7470  12.140   6.902   4.611
68566SOL     OW 7471   5.984  12.108   3.144
68566SOL    HW1 7472   5.959  12.183   3.090
68566SOL    HW2 7473   6.045  12.144   3.209
68567SOL     OW 7474  12.789   6.433   4.072
68567SOL    HW1 7475  12.736   6.498   4.025
68567SOL    HW2 7476  12.739   6.352   4.065
68568SOL     OW 7477   5.873  11.720  13.688
68568SOL    HW1 7478   5.898  11.640  13.640
68568SOL    HW2 7479   5.957  11.763  13.708
68569SOL     OW 7480   2.802   6.471   5.510
68569SOL    HW1 7481   2.878   6.527   5.524
68569SOL    HW2 7482   2.770   6.494   5.423
68570SOL     OW 7483   7.153  10.373  10.376
68570SOL    HW1 7484   7.092  10.342  10.442
68570SOL    HW2 7485   7.216  10.426  10.424
68571SOL     OW 7486   0.428  13.331   4.709
68571SOL    HW1 7487   0.392  13.418   4.723
68571SOL    HW2 7488   0.520  13.339   4.737
68572SOL     OW 7489   5.426   6.092  13.326
68572SOL    HW1 7490   5.462   6.180  13.326
68572SOL    HW2 7491   5.501   6.036  13.347
68573SOL     OW 7492  10.292   3.767   6.959
68573SOL    HW1 7493  10.309   3.850   6.913
68573SOL    HW2 7494  10.219   3.786   7.018
68574SOL     OW 7495   8.271  11.056   1.647
68574SOL    HW1 7496   8.175  11.056   1.652
68574SOL    HW2 7497   8.298  10.989   1.710
68575SOL     OW 7498   2.895   6.296   0.020
68575SOL    HW1 7499   2.841   6.374   0.007
68575SOL    HW2 7500   2.914   6.296   0.114
68576SOL     OW 7501  13.040   8.690   9.645
68576SOL    HW1 7502  13.095   8.672   9.569
68576SOL    HW2 7503  12.969   8.626   9.639
68577SOL     OW 7504   4.221   4.017   3.862
68577SOL    HW1 7505   4.193   3.926   3.876
68577SOL    HW2 7506   4.260   4.043   3.945
68578SOL     OW 7507  13.001  12.513  14.487
68578SOL    HW1 7508  12.915  12.476  14.468
68578SOL    HW2 7509  13.060  12.437  14.484
68579SOL     OW 7510  13.662   0.910  13.906
68579SOL    HW1 7511  13.747   0.942  13.936
68579SOL    HW2 7512  13.642   0.837  13.965
68580SOL     OW 7513   4.364   1.548   1.935
68580SOL    HW1 7514   4.346   1.462   1.896
68580SOL    HW2 7515   4.452   1.570   1.903
68581SOL     OW 7516   1.794   8.956   8.500
68581SOL    HW1 7517   1.822   9.003   8.422
68581SOL    HW2 7518   1.875   8.937   8.547
68582SOL     OW 7519   5.400  10.614  10.899
68582SOL    HW1 7520   5.440  10.611  10.986
68582SOL    HW2 7521   5.439  10.692  10.858
68583SOL     OW 7522  10.331   2.914   9.919
68583SOL    HW1 7523  10.238   2.933   9.926
68583SOL    HW2 7524  10.336   2.819   9.907
68584SOL     OW 7525   9.570   2.656  14.272
68584SOL    HW1 7526   9.582   2.642  14.366
68584SOL    HW2 7527   9.520   2.737  14.266
68585SOL     OW 7528   8.083  10.898   8.185
68585SOL    HW1 7529   8.151  10.965   8.174
68585SOL    HW2 7530   8.007  10.932   8.137
68586SOL     OW 7531  13.939  14.819  13.326
68586SOL    HW1 7532  13.974  14.744  13.375
68586SOL    HW2 7533  13.964  14.802  13.235
68587SOL     OW 7534   5.983   8.827  13.212
68587SOL    HW1 7535   5.921   8.768  13.168
68587SOL    HW2 7536   5.936   8.910  13.218
68588SOL     OW 7537  13.212   0.846   8.633
68588SOL    HW1 7538  13.265   0.912   8.676
68588SOL    HW2 7539  13.143   0.895   8.589
68589SOL     OW 7540   0.108  13.232   5.182
68589SOL    HW1 7541   0.048  13.211   5.254
68589SOL    HW2 7542   0.124  13.326   5.191
68590SOL     OW 7543  13.735   7.056   0.136
68590SOL    HW1 7544  13.735   7.018   0.049
68590SOL    HW2 7545  13.708   6.984   0.194
68591SOL     OW 7546   1.300   3.686   0.547
68591SOL    HW1 7547   1.365   3.700   0.478
68591SOL    HW2 7548   1.350   3.692   0.629
68592SOL     OW 7549   6.347   7.689  14.326
68592SOL    HW1 7550   6.430   7.700  14.371
68592SOL    HW2 7551   6.355   7.605  14.280
68593SOL     OW 7552   0.716  10.977   1.948
68593SOL    HW1 7553   0.680  10.914   2.009
68593SOL    HW2 7554   0.760  10.924   1.881
68594SOL     OW 7555   9.055   1.295  10.915
68594SOL    HW1 7556   9.032   1.384  10.940
68594SOL    HW2 7557   9.142   1.281  10.951
68595SOL     OW 7558   1.313   3.080   7.816
68595SOL    HW1 7559   1.291   3.155   7.762
68595SOL    HW2 7560   1.404   3.094   7.841
68596SOL     OW 7561  14.106   2.873   2.780
68596SOL    HW1 7562  14.015   2.842   2.774
68596SOL    HW2 7563  14.157   2.794   2.797
68597SOL     OW 7564   0.189   3.048   9.121
68597SOL    HW1 7565   0.207   2.975   9.062
68597SOL    HW2 7566   0.157   3.005   9.201
68598SOL     OW 7567   2.713   1.765   1.045
68598SOL    HW1 7568   2.622   1.737   1.037
68598SOL    HW2 7569   2.708   1.845   1.098
68599SOL     OW 7570   0.929   7.391   5.170
68599SOL    HW1 7571   0.892   7.447   5.102
68599SOL    HW2 7572   0.860   7.386   5.237
68600SOL     OW 7573   4.626  14.351   4.644
68600SOL    HW1 7574   4.546  14.304   4.669
68600SOL    HW2 7575   4.679  14.353   4.724
68601SOL     OW 7576   3.505   1.118   9.811
68601SOL    HW1 7577   3.442   1.173   9.859
68601SOL    HW2 7578   3.455   1.041   9.786
68602SOL     OW 7579   9.118   8.398   9.164
68602SOL    HW1 7580   9.130   8.303   9.160
68602SOL    HW2 7581   9.024   8.411   9.156
68603SOL     OW 7582   5.580   7.289   8.618
68603SOL    HW1 7583   5.581   7.278   8.523
68603SOL    HW2 7584   5.514   7.227   8.649
68604SOL     OW 7585   0.620  14.613   2.903
68604SOL    HW1 7586   0.624  14.523   2.870
68604SOL    HW2 7587   0.640  14.604   2.996
68605SOL     OW 7588   3.213   2.731   0.476
68605SOL    HW1 7589   3.250   2.644   0.494
68605SOL    HW2 7590   3.243   2.752   0.388
68606SOL     OW 7591   5.769  12.770   7.365
68606SOL    HW1 7592   5.684  12.731   7.344
68606SOL    HW2 7593   5.778  12.759   7.460
68607SOL     OW 7594   2.268   8.483  14.425
68607SOL    HW1 7595   2.351   8.515  14.460
68607SOL    HW2 7596   2.287   8.458  14.335
68608SOL     OW 7597  10.590   8.328  12.174
68608SOL    HW1 7598  10.535   8.312  12.097
68608SOL    HW2 7599  10.618   8.241  12.201
68609SOL     OW 7600   6.092   2.862   5.587
68609SOL    HW1 7601   6.026   2.798   5.616
68609SOL    HW2 7602   6.152   2.869   5.661
68610SOL     OW 7603   9.307  11.004  10.840
68610SOL    HW1 7604   9.350  10.926  10.876
68610SOL    HW2 7605   9.316  11.070  10.909
68611SOL     OW 7606   4.500   3.697   3.715
68611SOL    HW1 7607   4.593   3.705   3.694
68611SOL    HW2 7608   4.465   3.785   3.702
68612SOL     OW 7609   0.183  14.457   2.596
68612SOL    HW1 7610   0.138  14.541   2.584
68612SOL    HW2 7611   0.228  14.442   2.513
68613SOL     OW 7612   4.675  11.148   6.321
68613SOL    HW1 7613   4.698  11.086   6.391
68613SOL    HW2 7614   4.747  11.211   6.320
68614SOL     OW 7615  12.678   2.997   1.096
68614SOL    HW1 7616  12.725   2.932   1.147
68614SOL    HW2 7617  12.742   3.066   1.079
68615SOL     OW 7618   4.423   5.393   8.785
68615SOL    HW1 7619   4.481   5.439   8.845
68615SOL    HW2 7620   4.394   5.460   8.723
68616SOL     OW 7621   4.062   3.903   1.986
68616SOL    HW1 7622   4.092   3.862   2.067
68616SOL    HW2 7623   4.127   3.972   1.969
68617SOL     OW 7624   6.912  13.240   2.764
68617SOL    HW1 7625   6.941  13.198   2.844
68617SOL    HW2 7626   6.830  13.196   2.740
68618SOL     OW 7627  10.009   0.323  11.736
68618SOL    HW1 7628  10.095   0.281  11.742
68618SOL    HW2 7629   9.992   0.330  11.642
68619SOL     OW 7630   7.010   9.162   1.392
68619SOL    HW1 7631   6.926   9.184   1.352
68619SOL    HW2 7632   6.994   9.168   1.486
68620SOL     OW 7633  11.022   4.468   3.347
68620SOL    HW1 7634  10.964   4.469   3.424
68620SOL    HW2 7635  11.088   4.534   3.365
68621SOL     OW 7636  13.912  12.519  12.706
68621SOL    HW1 7637  13.914  12.613  12.724
68621SOL    HW2 7638  13.819  12.496  12.709
68622SOL     OW 7639   7.416  12.153  13.972
68622SOL    HW1 7640   7.437  12.060  13.966
68622SOL    HW2 7641   7.324  12.155  13.996
68623SOL     OW 7642  10.768   4.987  10.998
68623SOL    HW1 7643  10.770   4.948  11.085
68623SOL    HW2 7644  10.708   5.060  11.005
68624SOL     OW 7645   9.122   0.609  14.401
68624SOL    HW1 7646   9.204   0.562  14.418
68624SOL    HW2 7647   9.122   0.681  14.465
68625SOL     OW 7648  12.321  10.445  14.542
68625SOL    HW1 7649  12.374  10.523  14.552
68625SOL    HW2 7650  12.279  10.455  14.456
68626SOL     OW 7651  11.610   9.754  11.764
68626SOL    HW1 7652  11.682   9.816  11.762
68626SOL    HW2 7653  11.650   9.670  11.739
68627SOL     OW 7654   1.391  12.301   1.427
68627SOL    HW1 7655   1.483  12.312   1.451
68627SOL    HW2 7656   1.358  12.391   1.418
68628SOL     OW 7657   4.654   4.162  11.625
68628SOL    HW1 7658   4.686   4.252  11.629
68628SOL    HW2 7659   4.559   4.171  11.615
68629SOL     OW 7660   4.841  11.660   8.795
68629SOL    HW1 7661   4.929  11.663   8.832
68629SOL    HW2 7662   4.854  11.635   8.704
68630SOL     OW 7663  10.343   4.344   2.875
68630SOL    HW1 7664  10.392   4.385   2.946
68630SOL    HW2 7665  10.337   4.251   2.900
68631SOL     OW 7666   8.586  10.217  12.421
68631SOL    HW1 7667   8.535  10.209  12.502
68631SOL    HW2 7668   8.545  10.290  12.374
68632SOL     OW 7669   2.586  12.455   5.037
68632SOL    HW1 7670   2.670  12.461   5.084
68632SOL    HW2 7671   2.599  12.509   4.959
68633SOL     OW 7672  14.502   2.582  12.103
68633SOL    HW1 7673  14.515   2.649  12.036
68633SOL    HW2 7674  14.496   2.631  12.185
68634SOL     OW 7675   7.828  12.207   8.667
68634SOL    HW1 7676   7.828  12.189   8.573
68634SOL    HW2 7677   7.888  12.142   8.704
68635SOL     OW 7678  11.314   1.948  12.873
68635SOL    HW1 7679  11.223   1.966  12.849
68635SOL    HW2 7680  11.309   1.920  12.964
68636SOL     OW 7681   7.652   6.945   9.257
68636SOL    HW1 7682   7.712   7.020   9.256
68636SOL    HW2 7683   7.634   6.929   9.349
68637SOL     OW 7684   7.341   1.796  13.099
68637SOL    HW1 7685   7.307   1.886  13.099
68637SOL    HW2 7686   7.350   1.774  13.191
68638SOL     OW 7687  10.256   6.712   1.445
68638SOL    HW1 7688  10.267   6.771   1.520
68638SOL    HW2 7689  10.162   6.691   1.446
68639SOL     OW 7690   1.323  11.363   3.093
68639SOL    HW1 7691   1.312  11.452   3.060
68639SOL    HW2 7692   1.330  11.309   3.014
68640SOL     OW 7693  11.073   5.793   2.412
68640SOL    HW1 7694  11.022   5.719   2.445
68640SOL    HW2 7695  11.050   5.865   2.471
68641SOL     OW 7696   0.426   4.801   5.594
68641SOL    HW1 7697   0.464   4.888   5.594
68641SOL    HW2 7698   0.348   4.808   5.649
68642SOL     OW 7699  10.014   2.650   4.993
68642SOL    HW1 7700   9.955   2.578   4.972
68642SOL    HW2 7701   9.970   2.698   5.064
68643SOL     OW 7702  14.375  10.217  13.594
68643SOL    HW1 7703  14.365  10.146  13.530
68643SOL    HW2 7704  14.380  10.173  13.678
68644SOL     OW 7705   2.268   9.275   2.043
68644SOL    HW1 7706   2.359   9.250   2.062
68644SOL    HW2 7707   2.234   9.305   2.127
68645SOL     OW 7708   3.100   6.952   4.804
68645SOL    HW1 7709   3.054   6.889   4.749
68645SOL    HW2 7710   3.156   6.898   4.860
68646SOL     OW 7711   7.638   8.968  13.469
68646SOL    HW1 7712   7.730   8.978  13.442
68646SOL    HW2 7713   7.595   9.047  13.436
68647SOL     OW 7714   4.623   5.960   5.434
68647SOL    HW1 7715   4.574   5.959   5.516
68647SOL    HW2 7716   4.578   5.895   5.379
68648SOL     OW 7717  12.642   0.667   9.696
68648SOL    HW1 7718  12.735   0.678   9.678
68648SOL    HW2 7719  12.606   0.628   9.616
68649SOL     OW 7720   1.987   8.475   2.383
68649SOL    HW1 7721   1.989   8.466   2.288
68649SOL    HW2 7722   2.051   8.543   2.402
68650SOL     OW 7723   5.403  12.940  13.665
68650SOL    HW1 7724   5.494  12.939  13.632
68650SOL    HW2 7725   5.412  12.957  13.758
68651SOL     OW 7726   1.202   3.929   6.846
68651SOL    HW1 7727   1.141   3.875   6.894
68651SOL    HW2 7728   1.147   3.991   6.797
68652SOL     OW 7729   5.808  10.128  13.498
68652SOL    HW1 7730   5.767  10.104  13.415
68652SOL    HW2 7731   5.788  10.055  13.557
68653SOL     OW 7732   7.337   7.695   7.984
68653SOL    HW1 7733   7.389   7.712   7.906
68653SOL    HW2 7734   7.253   7.664   7.952
68654SOL     OW 7735   2.848   5.173  11.111
68654SOL    HW1 7736   2.870   5.244  11.051
68654SOL    HW2 7737   2.801   5.110  11.057
68655SOL     OW 7738  11.578  11.670  13.756
68655SOL    HW1 7739  11.568  11.652  13.662
68655SOL    HW2 7740  11.669  11.646  13.776
68656SOL     OW 7741  10.024   3.747   8.414
68656SOL    HW1 7742   9.975   3.766   8.494
68656SOL    HW2 7743  10.094   3.813   8.413
68657SOL     OW 7744   1.769  10.568  14.605
68657SOL    HW1 7745   1.809  10.620  14.675
68657SOL    HW2 7746   1.843  10.531  14.557
68658SOL     OW 7747  11.276   0.371   7.365
68658SOL    HW1 7748  11.292   0.439   7.299
68658SOL    HW2 7749  11.295   0.289   7.320
68659SOL     OW 7750   8.976   4.870   6.014
68659SOL    HW1 7751   8.967   4.882   5.920
68659SOL    HW2 7752   8.950   4.779   6.030
68660SOL     OW 7753   0.766   3.210   4.561
68660SOL    HW1 7754   0.854   3.250   4.564
68660SOL    HW2 7755   0.781   3.122   4.527
68661SOL     OW 7756  14.213   2.656   1.232
68661SOL    HW1 7757  14.191   2.602   1.156
68661SOL    HW2 7758  14.234   2.742   1.196
68662SOL     OW 7759  10.810  13.849   2.215
68662SOL    HW1 7760  10.832  13.773   2.162
68662SOL    HW2 7761  10.866  13.919   2.181
68663SOL     OW 7762   8.853  14.420   2.831
68663SOL    HW1 7763   8.903  14.415   2.912
68663SOL    HW2 7764   8.776  14.366   2.847
68664SOL     OW 7765   1.464   2.856   2.541
68664SOL    HW1 7766   1.370   2.849   2.551
68664SOL    HW2 7767   1.498   2.846   2.630
68665SOL     OW 7768   7.095  14.738   2.312
68665SOL    HW1 7769   7.033  14.751   2.384
68665SOL    HW2 7770   7.093  14.821   2.264
68666SOL     OW 7771   7.502   5.581   4.522
68666SOL    HW1 7772   7.409   5.576   4.548
68666SOL    HW2 7773   7.507   5.655   4.463
68667SOL     OW 7774   7.148   2.326   9.043
68667SOL    HW1 7775   7.056   2.301   9.052
68667SOL    HW2 7776   7.146   2.418   9.017
68668SOL     OW 7777  10.952  11.807   0.069
68668SOL    HW1 7778  11.011  11.840   0.001
68668SOL    HW2 7779  10.874  11.861   0.061
68669SOL     OW 7780  13.101  10.823   2.442
68669SOL    HW1 7781  13.036  10.848   2.377
68669SOL    HW2 7782  13.052  10.772   2.507
68670SOL     OW 7783   5.537   5.208   5.352
68670SOL    HW1 7784   5.547   5.149   5.427
68670SOL    HW2 7785   5.597   5.173   5.286
68671SOL     OW 7786   5.833   8.990  14.717
68671SOL    HW1 7787   5.787   9.066  14.751
68671SOL    HW2 7788   5.769   8.919  14.723
68672SOL     OW 7789   4.010   1.544   8.120
68672SOL    HW1 7790   3.962   1.572   8.198
68672SOL    HW2 7791   4.058   1.622   8.091
68673SOL     OW 7792  12.755   6.902  11.296
68673SOL    HW1 7793  12.837   6.950  11.282
68673SOL    HW2 7794  12.710   6.908  11.211
68674SOL     OW 7795   1.123  13.780   0.740
68674SOL    HW1 7796   1.149  13.800   0.830
68674SOL    HW2 7797   1.168  13.698   0.719
68675SOL     OW 7798   4.078   8.051  10.479
68675SOL    HW1 7799   4.144   8.095  10.532
68675SOL    HW2 7800   3.999   8.052  10.533
68676SOL     OW 7801   5.932   2.492   6.607
68676SOL    HW1 7802   6.022   2.503   6.639
68676SOL    HW2 7803   5.896   2.581   6.608
68677SOL     OW 7804   0.669   8.941  11.789
68677SOL    HW1 7805   0.685   8.888  11.867
68677SOL    HW2 7806   0.728   9.016  11.798
68678SOL     OW 7807  10.764   2.683  10.849
68678SOL    HW1 7808  10.857   2.695  10.830
68678SOL    HW2 7809  10.722   2.762  10.816
68679SOL     OW 7810   0.900  12.271   6.650
68679SOL    HW1 7811   0.834  12.238   6.589
68679SOL    HW2 7812   0.934  12.192   6.692
68680SOL     OW 7813  10.251   4.905  11.207
68680SOL    HW1 7814  10.231   4.946  11.291
68680SOL    HW2 7815  10.167   4.866  11.179
68681SOL     OW 7816   1.275   9.161  13.419
68681SOL    HW1 7817   1.331   9.135  13.346
68681SOL    HW2 7818   1.293   9.096  13.487
68682SOL     OW 7819   4.232   8.795   4.133
68682SOL    HW1 7820   4.152   8.791   4.185
68682SOL    HW2 7821   4.210   8.751   4.051
68683SOL     OW 7822   3.901  13.693  12.124
68683SOL    HW1 7823   3.959  13.700  12.200
68683SOL    HW2 7824   3.954  13.646  12.059
68684SOL     OW 7825  13.281  13.006  10.357
68684SOL    HW1 7826  13.256  13.098  10.361
68684SOL    HW2 7827  13.198  12.958  10.358
68685SOL     OW 7828  10.028  13.917   1.444
68685SOL    HW1 7829  10.101  13.978   1.452
68685SOL    HW2 7830  10.048  13.848   1.507
68686SOL     OW 7831  14.648   9.429   8.396
68686SOL    HW1 7832  14.713   9.447   8.329
68686SOL    HW2 7833  14.698   9.397   8.471
68687SOL     OW 7834   6.499   6.694   3.573
68687SOL    HW1 7835   6.513   6.600   3.585
68687SOL    HW2 7836   6.501   6.731   3.661
68688SOL     OW 7837   2.890   4.980   2.058
68688SOL    HW1 7838   2.877   5.071   2.031
68688SOL    HW2 7839   2.930   4.985   2.145
68689SOL     OW 7840   1.974  11.311  11.463
68689SOL    HW1 7841   1.941  11.394  11.498
68689SOL    HW2 7842   2.068  11.313  11.481
68690SOL     OW 7843   2.024  14.793   4.945
68690SOL    HW1 7844   2.099  14.782   4.887
68690SOL    HW2 7845   2.034  14.881   4.981
68691SOL     OW 7846   8.662   5.752  13.484
68691SOL    HW1 7847   8.749   5.741  13.521
68691SOL    HW2 7848   8.660   5.691  13.409
68692SOL     OW 7849   3.213   3.487   9.128
68692SOL    HW1 7850   3.290   3.543   9.117
68692SOL    HW2 7851   3.232   3.436   9.206
68693SOL     OW 7852  10.685   3.484  10.839
68693SOL    HW1 7853  10.653   3.410  10.891
68693SOL    HW2 7854  10.689   3.450  10.749
68694SOL     OW 7855   9.189   3.185   1.797
68694SOL    HW1 7856   9.093   3.186   1.796
68694SOL    HW2 7857   9.213   3.131   1.721
68695SOL     OW 7858   6.569   2.252   3.153
68695SOL    HW1 7859   6.607   2.309   3.086
68695SOL    HW2 7860   6.634   2.183   3.166
68696SOL     OW 7861  11.963   3.355  12.801
68696SOL    HW1 7862  11.994   3.351  12.710
68696SOL    HW2 7863  11.962   3.449  12.821
68697SOL     OW 7864  10.332   1.650   3.539
68697SOL    HW1 7865  10.360   1.661   3.448
68697SOL    HW2 7866  10.237   1.646   3.535
68698SOL     OW 7867  12.927   9.719   5.601
68698SOL    HW1 7868  12.955   9.765   5.680
68698SOL    HW2 7869  13.000   9.730   5.539
68699SOL     OW 7870   9.690   2.903  11.980
68699SOL    HW1 7871   9.624   2.918  11.913
68699SOL    HW2 7872   9.641   2.875  12.057
68700SOL     OW 7873   0.277   6.112  14.805
68700SOL    HW1 7874   0.305   6.125  14.715
68700SOL    HW2 7875   0.339   6.163  14.857
68701SOL     OW 7876   9.184  13.661   4.531
68701SOL    HW1 7877   9.234  13.600   4.476
68701SOL    HW2 7878   9.133  13.713   4.468
68702SOL     OW 7879  12.333   8.017  13.976
68702SOL    HW1 7880  12.275   7.984  13.907
68702SOL    HW2 7881  12.417   7.975  13.958
68703SOL     OW 7882   3.446  10.782   1.494
68703SOL    HW1 7883   3.383  10.774   1.423
68703SOL    HW2 7884   3.447  10.696   1.535
68704SOL     OW 7885   7.409  13.194   7.805
68704SOL    HW1 7886   7.331  13.139   7.813
68704SOL    HW2 7887   7.483  13.133   7.810
68705SOL     OW 7888  14.749   1.953  13.419
68705SOL    HW1 7889  14.765   2.017  13.489
68705SOL    HW2 7890  14.697   2.002  13.354
68706SOL     OW 7891   4.068   2.084   1.421
68706SOL    HW1 7892   4.045   2.168   1.462
68706SOL    HW2 7893   4.164   2.085   1.418
68707SOL     OW 7894  12.448   0.096  13.955
68707SOL    HW1 7895  12.409   0.015  13.989
68707SOL    HW2 7896  12.495   0.068  13.876
68708SOL     OW 7897   4.728  13.694   2.965
68708SOL    HW1 7898   4.695  13.763   2.907
68708SOL    HW2 7899   4.812  13.669   2.926
68709SOL     OW 7900   4.997   9.607  13.235
68709SOL    HW1 7901   5.043   9.665  13.175
68709SOL    HW2 7902   5.045   9.614  13.317
68710SOL     OW 7903  12.529  10.101   1.634
68710SOL    HW1 7904  12.460  10.082   1.570
68710SOL    HW2 7905  12.579  10.020   1.639
68711SOL     OW 7906  10.254  11.841   6.632
68711SOL    HW1 7907  10.259  11.920   6.578
68711SOL    HW2 7908  10.244  11.769   6.568
68712SOL     OW 7909   3.463  12.269  11.220
68712SOL    HW1 7910   3.507  12.206  11.278
68712SOL    HW2 7911   3.402  12.315  11.278
68713SOL     OW 7912   3.999   8.194   3.691
68713SOL    HW1 7913   4.046   8.211   3.772
68713SOL    HW2 7914   4.068   8.185   3.625
68714SOL     OW 7915  14.163  12.371   5.260
68714SOL    HW1 7916  14.123  12.417   5.185
68714SOL    HW2 7917  14.256  12.388   5.251
68715SOL     OW 7918   9.139   7.927  14.424
68715SOL    HW1 7919   9.129   7.837  14.392
68715SOL    HW2 7920   9.178   7.917  14.511
68716SOL     OW 7921  11.118  10.877   9.097
68716SOL    HW1 7922  11.052  10.942   9.075
68716SOL    HW2 7923  11.198  10.909   9.054
68717SOL     OW 7924   7.390   8.589   7.247
68717SOL    HW1 7925   7.394   8.651   7.174
68717SOL    HW2 7926   7.471   8.604   7.295
68718SOL     OW 7927   0.671   8.999   2.181
68718SOL    HW1 7928   0.654   8.905   2.171
68718SOL    HW2 7929   0.595   9.041   2.140
68719SOL     OW 7930   6.123  10.921  14.656
68719SOL    HW1 7931   6.090  10.966  14.579
68719SOL    HW2 7932   6.123  10.828  14.632
68720SOL     OW 7933   3.983  13.609   7.882
68720SOL    HW1 7934   4.062  13.555   7.889
68720SOL    HW2 7935   4.011  13.685   7.830
68721SOL     OW 7936   5.478  14.755   8.965
68721SOL    HW1 7937   5.511  14.693   8.900
68721SOL    HW2 7938   5.492  14.841   8.926
68722SOL     OW 7939   8.608   3.330  14.354
68722SOL    HW1 7940   8.540   3.308  14.291
68722SOL    HW2 7941   8.668   3.255  14.352
68723SOL     OW 7942   2.314   1.029  11.868
68723SOL    HW1 7943   2.295   0.997  11.957
68723SOL    HW2 7944   2.283   1.119  11.867
68724SOL     OW 7945  12.817   9.444   6.077
68724SOL    HW1 7946  12.808   9.532   6.115
68724SOL    HW2 7947  12.732   9.426   6.037
68725SOL     OW 7948   3.227  11.566  11.770
68725SOL    HW1 7949   3.275  11.617  11.835
68725SOL    HW2 7950   3.245  11.475  11.793
68726SOL     OW 7951   2.437   1.623   3.899
68726SOL    HW1 7952   2.484   1.581   3.827
68726SOL    HW2 7953   2.503   1.639   3.966
68727SOL     OW 7954   7.543   9.828   7.948
68727SOL    HW1 7955   7.621   9.810   7.896
68727SOL    HW2 7956   7.522   9.919   7.930
68728SOL     OW 7957   7.421   5.024   9.739
68728SOL    HW1 7958   7.418   4.957   9.808
68728SOL    HW2 7959   7.476   4.986   9.671
68729SOL     OW 7960   6.760   1.913   8.912
68729SOL    HW1 7961   6.844   1.954   8.892
68729SOL    HW2 7962   6.766   1.826   8.872
68730SOL     OW 7963   3.553   6.225  11.379
68730SOL    HW1 7964   3.608   6.285  11.329
68730SOL    HW2 7965   3.614   6.166  11.423
68731SOL     OW 7966   4.577  10.853  10.054
68731SOL    HW1 7967   4.571  10.885   9.964
68731SOL    HW2 7968   4.559  10.930  10.107
68732SOL     OW 7969   7.299   0.084   6.857
68732SOL    HW1 7970   7.253   0.134   6.790
68732SOL    HW2 7971   7.230   0.052   6.915
68733SOL     OW 7972   3.290   6.189   0.469
68733SOL    HW1 7973   3.293   6.279   0.434
68733SOL    HW2 7974   3.248   6.199   0.555
68734SOL     OW 7975   9.736   8.652  13.265
68734SOL    HW1 7976   9.730   8.592  13.339
68734SOL    HW2 7977   9.764   8.596  13.191
68735SOL     OW 7978   8.648   2.131   9.476
68735SOL    HW1 7979   8.693   2.214   9.459
68735SOL    HW2 7980   8.610   2.106   9.391
68736SOL     OW 7981   4.888   8.417   9.661
68736SOL    HW1 7982   4.876   8.512   9.669
68736SOL    HW2 7983   4.945   8.407   9.585
68737SOL     OW 7984   2.002   3.045   3.437
68737SOL    HW1 7985   1.954   2.963   3.445
68737SOL    HW2 7986   2.006   3.062   3.343
68738SOL     OW 7987  11.792   2.969   6.920
68738SOL    HW1 7988  11.699   2.973   6.899
68738SOL    HW2 7989  11.828   2.903   6.861
68739SOL     OW 7990   7.429   8.302  12.537
68739SOL    HW1 7991   7.334   8.299  12.524
68739SOL    HW2 7992   7.442   8.371  12.603
68740SOL     OW 7993   7.520  13.463   8.376
68740SOL    HW1 7994   7.555  13.522   8.309
68740SOL    HW2 7995   7.593  13.453   8.438
68741SOL     OW 7996   9.544  12.287   0.895
68741SOL    HW1 7997   9.465  12.338   0.912
68741SOL    HW2 7998   9.525  12.200   0.930
68742SOL     OW 7999  12.009   3.984   6.008
68742SOL    HW1 8000  12.088   3.932   5.996
68742SOL    HW2 8001  12.019   4.023   6.095
68743SOL     OW 8002  11.519   1.372   3.921
68743SOL    HW1 8003  11.489   1.460   3.945
68743SOL    HW2 8004  11.554   1.383   3.833
68744SOL     OW 8005   8.905   0.033   3.604
68744SOL    HW1 8006   8.959   0.072   3.672
68744SOL    HW2 8007   8.912   0.094   3.530
68745SOL     OW 8008  14.019  12.736   4.068
68745SOL    HW1 8009  14.111  12.764   4.068
68745SOL    HW2 8010  14.011  12.679   4.144
68746SOL     OW 8011   6.147   2.837   5.312
68746SOL    HW1 8012   6.159   2.856   5.405
68746SOL    HW2 8013   6.061   2.795   5.306
68747SOL     OW 8014   6.960   1.241  14.645
68747SOL    HW1 8015   6.974   1.320  14.593
68747SOL    HW2 8016   7.048   1.205  14.658
68748SOL     OW 8017   2.886  12.982  11.101
68748SOL    HW1 8018   2.930  13.047  11.157
68748SOL    HW2 8019   2.891  12.900  11.150
68749SOL     OW 8020  11.225   8.034   6.479
68749SOL    HW1 8021  11.257   8.010   6.566
68749SOL    HW2 8022  11.226   7.952   6.430
68750SOL     OW 8023   4.326   7.394  10.073
68750SOL    HW1 8024   4.377   7.418   9.996
68750SOL    HW2 8025   4.245   7.445  10.065
68751SOL     OW 8026   4.560   1.992   2.449
68751SOL    HW1 8027   4.621   1.946   2.507
68751SOL    HW2 8028   4.483   1.936   2.447
68752SOL     OW 8029   2.677  14.593  12.697
68752SOL    HW1 8030   2.623  14.632  12.628
68752SOL    HW2 8031   2.664  14.499  12.688
68753SOL     OW 8032   9.001   7.268  11.982
68753SOL    HW1 8033   8.939   7.336  11.954
68753SOL    HW2 8034   9.050   7.309  12.053
68754SOL     OW 8035   9.543  14.148   4.299
68754SOL    HW1 8036   9.634  14.145   4.272
68754SOL    HW2 8037   9.541  14.103   4.383
68755SOL     OW 8038  11.039  10.677   0.071
68755SOL    HW1 8039  11.112  10.699   0.128
68755SOL    HW2 8040  11.080  10.633  14.877
68756SOL     OW 8041   5.254  14.299   7.842
68756SOL    HW1 8042   5.294  14.299   7.928
68756SOL    HW2 8043   5.217  14.387   7.832
68757SOL     OW 8044   8.081   1.222   7.467
68757SOL    HW1 8045   8.116   1.257   7.549
68757SOL    HW2 8046   8.158   1.211   7.411
68758SOL     OW 8047  14.292   8.733   5.660
68758SOL    HW1 8048  14.340   8.697   5.587
68758SOL    HW2 8049  14.205   8.693   5.654
68759SOL     OW 8050  12.203   8.035   8.879
68759SOL    HW1 8051  12.142   8.051   8.951
68759SOL    HW2 8052  12.213   7.940   8.876
68760SOL     OW 8053  11.813  13.012   4.418
68760SOL    HW1 8054  11.866  13.012   4.338
68760SOL    HW2 8055  11.833  13.095   4.461
68761SOL     OW 8056  14.403   2.500   5.373
68761SOL    HW1 8057  14.388   2.531   5.284
68761SOL    HW2 8058  14.324   2.449   5.394
68762SOL     OW 8059   5.794   7.635   0.360
68762SOL    HW1 8060   5.845   7.713   0.381
68762SOL    HW2 8061   5.817   7.615   0.270
68763SOL     OW 8062   5.118   7.068   2.395
68763SOL    HW1 8063   5.110   7.094   2.487
68763SOL    HW2 8064   5.036   7.098   2.355
68764SOL     OW 8065   3.684  12.037   5.705
68764SOL    HW1 8066   3.610  12.024   5.645
68764SOL    HW2 8067   3.647  12.084   5.780
68765SOL     OW 8068   5.187   2.651  11.263
68765SOL    HW1 8069   5.242   2.720  11.226
68765SOL    HW2 8070   5.112   2.645  11.205
68766SOL     OW 8071  12.193  11.214   5.223
68766SOL    HW1 8072  12.272  11.261   5.194
68766SOL    HW2 8073  12.139  11.207   5.144
68767SOL     OW 8074  14.071  11.070  11.602
68767SOL    HW1 8075  14.011  11.014  11.653
68767SOL    HW2 8076  14.157  11.031  11.616
68768SOL     OW 8077   7.319   6.444   1.053
68768SOL    HW1 8078   7.370   6.450   1.134
68768SOL    HW2 8079   7.334   6.527   1.009
68769SOL     OW 8080  10.119  11.359   9.837
68769SOL    HW1 8081  10.055  11.289   9.822
68769SOL    HW2 8082  10.165  11.333   9.917
68770SOL     OW 8083  14.541   9.798  14.291
68770SOL    HW1 8084  14.607   9.861  14.322
68770SOL    HW2 8085  14.529   9.819  14.199
68771SOL     OW 8086  10.110   2.008   4.456
68771SOL    HW1 8087  10.122   2.078   4.392
68771SOL    HW2 8088  10.058   1.942   4.411
68772SOL     OW 8089   5.342   0.862   3.614
68772SOL    HW1 8090   5.317   0.873   3.705
68772SOL    HW2 8091   5.313   0.773   3.591
68773SOL     OW 8092  12.652   9.737  11.458
68773SOL    HW1 8093  12.717   9.779  11.401
68773SOL    HW2 8094  12.702   9.670  11.505
68774SOL     OW 8095  10.504  13.006   5.626
68774SOL    HW1 8096  10.432  13.067   5.613
68774SOL    HW2 8097  10.500  12.982   5.719
68775SOL     OW 8098  11.181  12.578  11.941
68775SOL    HW1 8099  11.194  12.673  11.946
68775SOL    HW2 8100  11.250  12.547  11.882
68776SOL     OW 8101  11.798  14.693   9.362
68776SOL    HW1 8102  11.726  14.676   9.422
68776SOL    HW2 8103  11.797  14.789   9.351
68777SOL     OW 8104   7.466   3.573  11.006
68777SOL    HW1 8105   7.476   3.553  11.098
68777SOL    HW2 8106   7.457   3.488  10.963
68778SOL     OW 8107   6.412   5.263   7.882
68778SOL    HW1 8108   6.489   5.267   7.939
68778SOL    HW2 8109   6.355   5.333   7.913
68779SOL     OW 8110   0.071   3.750  12.552
68779SOL    HW1 8111   0.160   3.782  12.538
68779SOL    HW2 8112   0.073   3.715  12.641
68780SOL     OW 8113  14.604   1.921  12.700
68780SOL    HW1 8114  14.669   1.854  12.678
68780SOL    HW2 8115  14.652   2.004  12.695
68781SOL     OW 8116   5.404   3.872   4.059
68781SOL    HW1 8117   5.464   3.905   4.126
68781SOL    HW2 8118   5.459   3.866   3.980
68782SOL     OW 8119  10.811   7.868   5.678
68782SOL    HW1 8120  10.863   7.803   5.726
68782SOL    HW2 8121  10.721   7.834   5.682
68783SOL     OW 8122   2.299   8.419   4.871
68783SOL    HW1 8123   2.218   8.389   4.912
68783SOL    HW2 8124   2.367   8.369   4.916
68784SOL     OW 8125   8.690   9.023   2.900
68784SOL    HW1 8126   8.706   9.072   2.819
68784SOL    HW2 8127   8.752   9.061   2.962
68785SOL     OW 8128   4.436  14.158   9.236
68785SOL    HW1 8129   4.422  14.225   9.302
68785SOL    HW2 8130   4.500  14.196   9.175
68786SOL     OW 8131   3.431   5.328  13.161
68786SOL    HW1 8132   3.399   5.397  13.220
68786SOL    HW2 8133   3.353   5.300  13.113
68787SOL     OW 8134   6.928   4.776   5.428
68787SOL    HW1 8135   6.873   4.851   5.407
68787SOL    HW2 8136   6.918   4.764   5.522
68788SOL     OW 8137  11.770   5.799  10.080
68788SOL    HW1 8138  11.692   5.786  10.025
68788SOL    HW2 8139  11.841   5.815  10.018
68789SOL     OW 8140   6.082   7.456   7.764
68789SOL    HW1 8141   6.110   7.506   7.687
68789SOL    HW2 8142   6.159   7.407   7.790
68790SOL     OW 8143   3.003  11.214   7.122
68790SOL    HW1 8144   3.053  11.134   7.104
68790SOL    HW2 8145   2.940  11.188   7.189
68791SOL     OW 8146   1.342   9.044   8.062
68791SOL    HW1 8147   1.249   9.064   8.063
68791SOL    HW2 8148   1.384   9.125   8.035
68792SOL     OW 8149   1.055   6.103   4.724
68792SOL    HW1 8150   0.991   6.071   4.787
68792SOL    HW2 8151   1.134   6.050   4.741
68793SOL     OW 8152   8.710  14.737  14.577
68793SOL    HW1 8153   8.628  14.786  14.579
68793SOL    HW2 8154   8.775  14.801  14.549
68794SOL     OW 8155  14.453  10.355  12.627
68794SOL    HW1 8156  14.369  10.346  12.583
68794SOL    HW2 8157  14.430  10.366  12.720
68795SOL     OW 8158   9.264   5.553   5.801
68795SOL    HW1 8159   9.331   5.603   5.755
68795SOL    HW2 8160   9.268   5.585   5.891
68796SOL     OW 8161   6.438   7.974  11.586
68796SOL    HW1 8162   6.415   8.019  11.505
68796SOL    HW2 8163   6.451   7.883  11.560
68797SOL     OW 8164   2.568   3.398   8.014
68797SOL    HW1 8165   2.657   3.375   7.989
68797SOL    HW2 8166   2.561   3.491   7.992
68798SOL     OW 8167  10.483   9.219  12.534
68798SOL    HW1 8168  10.519   9.135  12.509
68798SOL    HW2 8169  10.533   9.284  12.484
68799SOL     OW 8170  11.118  12.609   7.853
68799SOL    HW1 8171  11.130  12.624   7.759
68799SOL    HW2 8172  11.204  12.626   7.891
68800SOL     OW 8173  12.974  10.400  12.973
68800SOL    HW1 8174  12.996  10.428  12.884
68800SOL    HW2 8175  12.884  10.428  12.986
68801SOL     OW 8176  13.504   9.502  12.234
68801SOL    HW1 8177  13.544   9.436  12.291
68801SOL    HW2 8178  13.567   9.514  12.163
68802SOL     OW 8179   6.970   0.297   8.989
68802SOL    HW1 8180   6.920   0.235   8.936
68802SOL    HW2 8181   7.060   0.265   8.985
68803SOL     OW 8182   8.627   3.463   1.538
68803SOL    HW1 8183   8.565   3.398   1.572
68803SOL    HW2 8184   8.713   3.426   1.557
68804SOL     OW 8185   1.420  14.680   3.743
68804SOL    HW1 8186   1.446  14.672   3.835
68804SOL    HW2 8187   1.396  14.591   3.717
68805SOL     OW 8188   1.412  14.285   5.489
68805SOL    HW1 8189   1.372  14.231   5.557
68805SOL    HW2 8190   1.493  14.240   5.468
68806SOL     OW 8191  11.889   2.981   2.148
68806SOL    HW1 8192  11.813   3.037   2.167
68806SOL    HW2 8193  11.964   3.041   2.148
68807SOL     OW 8194   4.297   0.949  13.087
68807SOL    HW1 8195   4.307   0.855  13.067
68807SOL    HW2 8196   4.384   0.986  13.070
68808SOL     OW 8197   0.035   4.043  13.082
68808SOL    HW1 8198  14.870   4.126  13.069
68808SOL    HW2 8199   0.001   3.986  13.012
68809SOL     OW 8200   6.619   2.503  10.663
68809SOL    HW1 8201   6.703   2.503  10.708
68809SOL    HW2 8202   6.554   2.501  10.733
68810SOL     OW 8203  14.048  12.029   3.744
68810SOL    HW1 8204  14.089  11.963   3.800
68810SOL    HW2 8205  14.011  12.092   3.805
68811SOL     OW 8206   7.937   7.631   7.681
68811SOL    HW1 8207   7.924   7.549   7.634
68811SOL    HW2 8208   8.006   7.611   7.745
68812SOL     OW 8209   0.681  13.625   0.485
68812SOL    HW1 8210   0.692  13.676   0.566
68812SOL    HW2 8211   0.719  13.540   0.505
68813SOL     OW 8212   2.330  13.276  10.703
68813SOL    HW1 8213   2.364  13.190  10.727
68813SOL    HW2 8214   2.237  13.260  10.683
68814SOL     OW 8215   3.604   1.580   2.959
68814SOL    HW1 8216   3.697   1.586   2.979
68814SOL    HW2 8217   3.590   1.644   2.890
68815SOL     OW 8218   4.363   8.156   3.388
68815SOL    HW1 8219   4.410   8.229   3.428
68815SOL    HW2 8220   4.422   8.081   3.399
68816SOL     OW 8221  10.503  13.369  12.018
68816SOL    HW1 8222  10.546  13.338  11.938
68816SOL    HW2 8223  10.528  13.461  12.024
68817SOL     OW 8224   9.458   2.346   0.596
68817SOL    HW1 8225   9.526   2.348   0.662
68817SOL    HW2 8226   9.439   2.438   0.576
68818SOL     OW 8227  12.607   4.587   8.328
68818SOL    HW1 8228  12.689   4.539   8.315
68818SOL    HW2 8229  12.607   4.610   8.420
68819SOL     OW 8230  11.238   6.592   4.255
68819SOL    HW1 8231  11.258   6.511   4.208
68819SOL    HW2 8232  11.177   6.638   4.197
68820SOL     OW 8233   1.656   0.923   1.914
68820SOL    HW1 8234   1.645   0.903   1.821
68820SOL    HW2 8235   1.609   1.006   1.926
68821SOL     OW 8236   4.606   9.691  13.421
68821SOL    HW1 8237   4.514   9.716  13.426
68821SOL    HW2 8238   4.653   9.766  13.459
68822SOL     OW 8239   6.670  12.357  14.018
68822SOL    HW1 8240   6.590  12.385  13.974
68822SOL    HW2 8241   6.692  12.430  14.077
68823SOL     OW 8242   7.931  11.306   7.560
68823SOL    HW1 8243   7.872  11.359   7.614
68823SOL    HW2 8244   7.955  11.233   7.617
68824SOL     OW 8245   7.936   8.047   4.091
68824SOL    HW1 8246   7.861   8.020   4.039
68824SOL    HW2 8247   7.900   8.068   4.177
68825SOL     OW 8248  13.803   3.032   2.595
68825SOL    HW1 8249  13.811   3.111   2.542
68825SOL    HW2 8250  13.892   2.998   2.601
68826SOL     OW 8251  13.113   0.739   4.256
68826SOL    HW1 8252  13.029   0.694   4.259
68826SOL    HW2 8253  13.128   0.756   4.162
68827SOL     OW 8254  11.932   6.499  13.111
68827SOL    HW1 8255  11.905   6.436  13.045
68827SOL    HW2 8256  11.911   6.584  13.072
68828SOL     OW 8257  14.027   9.736   3.471
68828SOL    HW1 8258  14.061   9.699   3.553
68828SOL    HW2 8259  14.054   9.674   3.403
68829SOL     OW 8260   0.447   0.169   9.755
68829SOL    HW1 8261   0.407   0.207   9.677
68829SOL    HW2 8262   0.378   0.173   9.821
68830SOL     OW 8263   7.513  14.308   9.030
68830SOL    HW1 8264   7.504  14.389   9.081
68830SOL    HW2 8265   7.553  14.246   9.090
68831SOL     OW 8266  14.600  14.258   5.023
68831SOL    HW1 8267  14.657  14.208   4.964
68831SOL    HW2 8268  14.514  14.217   5.013
68832SOL     OW 8269   7.117   0.722   3.484
68832SOL    HW1 8270   7.164   0.723   3.401
68832SOL    HW2 8271   7.153   0.796   3.533
68833SOL     OW 8272   7.282  10.743   3.951
68833SOL    HW1 8273   7.189  10.744   3.927
68833SOL    HW2 8274   7.324  10.801   3.888
68834SOL     OW 8275  14.592   0.992   2.913
68834SOL    HW1 8276  14.548   0.967   2.832
68834SOL    HW2 8277  14.665   1.047   2.886
68835SOL     OW 8278   9.720   1.800  12.698
68835SOL    HW1 8279   9.699   1.892  12.682
68835SOL    HW2 8280   9.778   1.801  12.774
68836SOL     OW 8281  10.018   3.922   9.138
68836SOL    HW1 8282  10.083   3.854   9.152
68836SOL    HW2 8283  10.003   3.959   9.225
68837SOL     OW 8284  13.203   6.618   8.329
68837SOL    HW1 8285  13.234   6.644   8.242
68837SOL    HW2 8286  13.108   6.607   8.318
68838SOL     OW 8287   6.265   5.056   0.867
68838SOL    HW1 8288   6.211   5.134   0.851
68838SOL    HW2 8289   6.351   5.079   0.832
68839SOL     OW 8290   9.832   9.965   0.204
68839SOL    HW1 8291   9.838   9.895   0.140
68839SOL    HW2 8292   9.738   9.972   0.224
68840SOL     OW 8293  13.663   9.673   9.529
68840SOL    HW1 8294  13.746   9.679   9.576
68840SOL    HW2 8295  13.656   9.581   9.505
68841SOL     OW 8296  13.213   0.805   5.427
68841SOL    HW1 8297  13.267   0.832   5.353
68841SOL    HW2 8298  13.263   0.831   5.504
68842SOL     OW 8299   5.216   0.122   7.689
68842SOL    HW1 8300   5.167   0.198   7.719
68842SOL    HW2 8301   5.149   0.057   7.668
68843SOL     OW 8302   9.051   7.761  14.081
68843SOL    HW1 8303   9.021   7.842  14.121
68843SOL    HW2 8304   9.136   7.782  14.044
68844SOL     OW 8305   6.107   3.448   7.362
68844SOL    HW1 8306   6.180   3.436   7.301
68844SOL    HW2 8307   6.056   3.368   7.354
68845SOL     OW 8308   7.500   2.780  13.689
68845SOL    HW1 8309   7.533   2.855  13.740
68845SOL    HW2 8310   7.544   2.704  13.727
68846SOL     OW 8311   6.586   5.375   0.753
68846SOL    HW1 8312   6.563   5.467   0.762
68846SOL    HW2 8313   6.681   5.373   0.759
68847SOL     OW 8314   4.650   7.831   7.486
68847SOL    HW1 8315   4.640   7.904   7.547
68847SOL    HW2 8316   4.740   7.803   7.497
68848SOL     OW 8317  13.460   9.608   6.017
68848SOL    HW1 8318  13.426   9.619   6.106
68848SOL    HW2 8319  13.524   9.679   6.007
68849SOL     OW 8320   4.525   8.335   3.537
68849SOL    HW1 8321   4.486   8.422   3.541
68849SOL    HW2 8322   4.618   8.348   3.553
68850SOL     OW 8323   2.533  13.598   7.471
68850SOL    HW1 8324   2.611  13.633   7.427
68850SOL    HW2 8325   2.479  13.562   7.401
68851SOL     OW 8326  14.097   5.734   1.932
68851SOL    HW1 8327  14.035   5.804   1.953
68851SOL    HW2 8328  14.152   5.772   1.863
68852SOL     OW 8329   7.695   6.985   2.862
68852SOL    HW1 8330   7.762   6.953   2.802
68852SOL    HW2 8331   7.653   6.905   2.895
68853SOL     OW 8332   3.033   2.569   5.332
68853SOL    HW1 8333   2.991   2.655   5.332
68853SOL    HW2 8334   3.109   2.580   5.390
68854SOL     OW 8335   1.664   7.159  11.381
68854SOL    HW1 8336   1.682   7.098  11.453
68854SOL    HW2 8337   1.726   7.232  11.396
68855SOL     OW 8338   0.421  14.426   1.194
68855SOL    HW1 8339   0.338  14.395   1.230
68855SOL    HW2 8340   0.418  14.404   1.101
68856SOL     OW 8341   4.145   2.300   2.415
68856SOL    HW1 8342   4.224   2.300   2.361
68856SOL    HW2 8343   4.156   2.226   2.474
68857SOL     OW 8344   1.952   0.461   0.813
68857SOL    HW1 8345   1.996   0.480   0.730
68857SOL    HW2 8346   1.859   0.468   0.793
68858SOL     OW 8347  14.519  13.222  13.511
68858SOL    HW1 8348  14.607  13.241  13.477
68858SOL    HW2 8349  14.535  13.191  13.600
68859SOL     OW 8350   4.062   0.575   1.342
68859SOL    HW1 8351   3.975   0.611   1.360
68859SOL    HW2 8352   4.116   0.651   1.322
68860SOL     OW 8353   0.666   5.627  13.646
68860SOL    HW1 8354   0.695   5.618  13.737
68860SOL    HW2 8355   0.736   5.676  13.603
68861SOL     OW 8356   4.212  12.284   4.925
68861SOL    HW1 8357   4.220  12.303   5.018
68861SOL    HW2 8358   4.128  12.323   4.899
68862SOL     OW 8359   0.815   2.308  11.565
68862SOL    HW1 8360   0.799   2.393  11.607
68862SOL    HW2 8361   0.738   2.256  11.584
68863SOL     OW 8362   6.268  14.445   8.665
68863SOL    HW1 8363   6.203  14.513   8.681
68863SOL    HW2 8364   6.329  14.484   8.602
68864SOL     OW 8365  13.704  11.467   9.603
68864SOL    HW1 8366  13.616  11.505   9.610
68864SOL    HW2 8367  13.753  11.532   9.552
68865SOL     OW 8368  10.619  14.234   4.059
68865SOL    HW1 8369  10.638  14.262   3.969
68865SOL    HW2 8370  10.697  14.258   4.109
68866SOL     OW 8371   0.981   5.992  14.255
68866SOL    HW1 8372   0.906   5.976  14.314
68866SOL    HW2 8373   1.054   5.947  14.297
68867SOL     OW 8374   3.376   1.576   2.162
68867SOL    HW1 8375   3.339   1.496   2.124
68867SOL    HW2 8376   3.304   1.639   2.158
68868SOL     OW 8377   9.921   0.290  11.450
68868SOL    HW1 8378   9.964   0.287  11.365
68868SOL    HW2 8379   9.830   0.312  11.430
68869SOL     OW 8380  10.720   2.356   3.844
68869SOL    HW1 8381  10.717   2.451   3.834
68869SOL    HW2 8382  10.641   2.334   3.894
68870SOL     OW 8383   5.658   5.624  12.879
68870SOL    HW1 8384   5.745   5.600  12.846
68870SOL    HW2 8385   5.611   5.656  12.803
68871SOL     OW 8386   0.725   5.956  10.000
68871SOL    HW1 8387   0.651   5.895   9.995
68871SOL    HW2 8388   0.687   6.042   9.980
68872SOL     OW 8389  10.229   2.241   5.271
68872SOL    HW1 8390  10.150   2.236   5.217
68872SOL    HW2 8391  10.300   2.213   5.213
68873SOL     OW 8392   8.416   1.454   9.882
68873SOL    HW1 8393   8.438   1.467   9.790
68873SOL    HW2 8394   8.357   1.526   9.903
68874SOL     OW 8395  14.869  12.233   2.714
68874SOL    HW1 8396  14.811  12.189   2.652
68874SOL    HW2 8397  14.840  12.324   2.713
68875SOL     OW 8398   9.505  11.528  12.913
68875SOL    HW1 8399   9.447  11.476  12.970
68875SOL    HW2 8400   9.518  11.473  12.836
68876SOL     OW 8401  13.721  10.729   5.707
68876SOL    HW1 8402  13.710  10.822   5.726
68876SOL    HW2 8403  13.640  10.688   5.737
68877SOL     OW 8404   6.736   3.520   9.051
68877SOL    HW1 8405   6.754   3.597   9.104
68877SOL    HW2 8406   6.748   3.446   9.111
68878SOL     OW 8407   1.994   2.607  11.219
68878SOL    HW1 8408   2.062   2.619  11.152
68878SOL    HW2 8409   1.952   2.692  11.226
68879SOL     OW 8410   9.518   4.280  11.647
68879SOL    HW1 8411   9.596   4.225  11.638
68879SOL    HW2 8412   9.461   4.231  11.706
68880SOL     OW 8413   5.796   1.930  12.758
68880SOL    HW1 8414   5.707   1.962  12.772
68880SOL    HW2 8415   5.792   1.837  12.781
68881SOL     OW 8416  14.495   1.689   5.735
68881SOL    HW1 8417  14.530   1.778   5.737
68881SOL    HW2 8418  14.565   1.636   5.697
68882SOL     OW 8419   5.361   1.907  11.837
68882SOL    HW1 8420   5.363   1.828  11.782
68882SOL    HW2 8421   5.326   1.975  11.779
68883SOL     OW 8422  14.529   4.229   5.978
68883SOL    HW1 8423  14.467   4.292   6.015
68883SOL    HW2 8424  14.575   4.193   6.054
68884SOL     OW 8425   4.127   6.607   4.149
68884SOL    HW1 8426   4.104   6.635   4.237
68884SOL    HW2 8427   4.044   6.598   4.103
68885SOL     OW 8428   4.712   1.713  10.378
68885SOL    HW1 8429   4.691   1.689  10.288
68885SOL    HW2 8430   4.628   1.707  10.425
68886SOL     OW 8431  13.945   8.323   7.665
68886SOL    HW1 8432  13.999   8.323   7.744
68886SOL    HW2 8433  13.994   8.376   7.602
68887SOL     OW 8434  12.346   4.985   2.888
68887SOL    HW1 8435  12.404   4.957   2.817
68887SOL    HW2 8436  12.340   5.080   2.879
68888SOL     OW 8437   3.784   0.922  14.065
68888SOL    HW1 8438   3.793   0.898  13.972
68888SOL    HW2 8439   3.714   0.865  14.097
68889SOL     OW 8440  12.557  12.475   1.954
68889SOL    HW1 8441  12.644  12.508   1.931
68889SOL    HW2 8442  12.570  12.426   2.035
68890SOL     OW 8443   7.915   7.629   6.790
68890SOL    HW1 8444   8.003   7.622   6.755
68890SOL    HW2 8445   7.910   7.718   6.826
68891SOL     OW 8446  13.460   1.234   3.766
68891SOL    HW1 8447  13.541   1.276   3.739
68891SOL    HW2 8448  13.484   1.182   3.843
68892SOL     OW 8449  14.346   4.707  10.071
68892SOL    HW1 8450  14.348   4.765  10.148
68892SOL    HW2 8451  14.430   4.723  10.027
68893SOL     OW 8452   1.400   5.632  11.820
68893SOL    HW1 8453   1.451   5.554  11.845
68893SOL    HW2 8454   1.309   5.603  11.826
68894SOL     OW 8455   7.561   6.005   7.729
68894SOL    HW1 8456   7.596   6.094   7.728
68894SOL    HW2 8457   7.491   6.007   7.664
68895SOL     OW 8458   0.313   8.767   0.376
68895SOL    HW1 8459   0.250   8.806   0.315
68895SOL    HW2 8460   0.391   8.822   0.368
68896SOL     OW 8461   6.661   9.148  12.989
68896SOL    HW1 8462   6.687   9.194  12.910
68896SOL    HW2 8463   6.569   9.125  12.975
68897SOL     OW 8464  14.002   5.205   2.929
68897SOL    HW1 8465  14.009   5.215   2.834
68897SOL    HW2 8466  13.995   5.295   2.961
68898SOL     OW 8467  12.805   4.770  10.447
68898SOL    HW1 8468  12.730   4.782  10.388
68898SOL    HW2 8469  12.787   4.687  10.492
68899SOL     OW 8470   0.256   0.836   6.679
68899SOL    HW1 8471   0.166   0.855   6.654
68899SOL    HW2 8472   0.249   0.785   6.760
68900SOL     OW 8473   3.783  12.576  10.450
68900SOL    HW1 8474   3.803  12.572  10.544
68900SOL    HW2 8475   3.726  12.652  10.441
68901SOL     OW 8476   9.410   9.552   6.463
68901SOL    HW1 8477   9.382   9.517   6.548
68901SOL    HW2 8478   9.379   9.487   6.400
68902SOL     OW 8479   0.689  10.079   8.497
68902SOL    HW1 8480   0.636  10.140   8.446
68902SOL    HW2 8481   0.643  10.071   8.581
68903SOL     OW 8482  14.581  11.016  12.980
68903SOL    HW1 8483  14.642  10.967  13.035
68903SOL    HW2 8484  14.612  11.001  12.891
68904SOL     OW 8485   7.695   6.523   9.027
68904SOL    HW1 8486   7.604   6.517   8.999
68904SOL    HW2 8487   7.691   6.574   9.108
68905SOL     OW 8488   1.214   0.840  13.671
68905SOL    HW1 8489   1.234   0.916  13.617
68905SOL    HW2 8490   1.119   0.843  13.682
68906SOL     OW 8491  10.038  11.213   8.496
68906SOL    HW1 8492   9.970  11.146   8.509
68906SOL    HW2 8493   9.994  11.282   8.447
68907SOL     OW 8494   7.924   5.295  11.093
68907SOL    HW1 8495   7.969   5.316  11.175
68907SOL    HW2 8496   7.924   5.378  11.045
68908SOL     OW 8497   3.729   3.245  10.636
68908SOL    HW1 8498   3.665   3.202  10.579
68908SOL    HW2 8499   3.745   3.330  10.595
68909SOL     OW 8500   6.344  12.416   4.804
68909SOL    HW1 8501   6.295  12.445   4.881
68909SOL    HW2 8502   6.370  12.326   4.825
68910SOL     OW 8503   8.245   5.744   4.852
68910SOL    HW1 8504   8.326   5.769   4.808
68910SOL    HW2 8505   8.239   5.650   4.839
68911SOL     OW 8506   5.949   6.081   5.656
68911SOL    HW1 8507   5.969   6.153   5.596
68911SOL    HW2 8508   5.858   6.095   5.681
68912SOL     OW 8509   3.855   3.746   0.704
68912SOL    HW1 8510   3.893   3.831   0.725
68912SOL    HW2 8511   3.833   3.708   0.789
68913SOL     OW 8512  14.668   6.314   2.769
68913SOL    HW1 8513  14.662   6.379   2.699
68913SOL    HW2 8514  14.579   6.308   2.804
68914SOL     OW 8515   8.244   2.529   7.125
68914SOL    HW1 8516   8.312   2.496   7.066
68914SOL    HW2 8517   8.166   2.536   7.071
68915SOL     OW 8518   6.676  10.264   6.655
68915SOL    HW1 8519   6.618  10.244   6.582
68915SOL    HW2 8520   6.676  10.360   6.660
68916SOL     OW 8521   5.370   7.452   1.281
68916SOL    HW1 8522   5.323   7.435   1.363
68916SOL    HW2 8523   5.364   7.369   1.234
68917SOL     OW 8524   9.361   2.446   1.025
68917SOL    HW1 8525   9.396   2.492   0.949
68917SOL    HW2 8526   9.437   2.427   1.080
68918SOL     OW 8527   5.744  14.076   8.402
68918SOL    HW1 8528   5.653  14.075   8.372
68918SOL    HW2 8529   5.748  14.149   8.464
68919SOL     OW 8530  10.090   2.778   6.637
68919SOL    HW1 8531  10.123   2.789   6.727
68919SOL    HW2 8532  10.124   2.853   6.590
68920SOL     OW 8533   5.866   2.265   6.442
68920SOL    HW1 8534   5.897   2.179   6.471
68920SOL    HW2 8535   5.847   2.312   6.523
68921SOL     OW 8536   2.237   3.511   1.428
68921SOL    HW1 8537   2.225   3.586   1.487
68921SOL    HW2 8538   2.194   3.538   1.346
68922SOL     OW 8539  11.911  10.936   2.900
68922SOL    HW1 8540  11.865  10.860   2.866
68922SOL    HW2 8541  11.986  10.900   2.948
68923SOL     OW 8542   5.045   2.504   6.000
68923SOL    HW1 8543   5.010   2.439   5.939
68923SOL    HW2 8544   4.970   2.559   6.022
68924SOL     OW 8545  11.030   4.636   6.903
68924SOL    HW1 8546  11.016   4.542   6.887
68924SOL    HW2 8547  11.034   4.644   6.998
68925SOL     OW 8548  14.541  11.462   0.080
68925SOL    HW1 8549  14.606  11.514   0.128
68925SOL    HW2 8550  14.537  11.379   0.128
68926SOL     OW 8551   3.285   6.068   7.575
68926SOL    HW1 8552   3.288   6.151   7.624
68926SOL    HW2 8553   3.287   6.095   7.483
68927SOL     OW 8554   6.944   6.018   7.772
68927SOL    HW1 8555   6.954   6.070   7.851
68927SOL    HW2 8556   7.002   5.943   7.785
68928SOL     OW 8557   7.891  12.072  11.761
68928SOL    HW1 8558   7.950  12.077  11.686
68928SOL    HW2 8559   7.827  12.141  11.745
68929SOL     OW 8560   2.154   8.155   1.081
68929SOL    HW1 8561   2.099   8.095   1.031
68929SOL    HW2 8562   2.213   8.098   1.131
68930SOL     OW 8563  13.355  12.837   1.388
68930SOL    HW1 8564  13.263  12.812   1.382
68930SOL    HW2 8565  13.358  12.925   1.351
68931SOL     OW 8566  14.805  13.906  12.443
68931SOL    HW1 8567  14.718  13.944  12.432
68931SOL    HW2 8568  14.802  13.824  12.393
68932SOL     OW 8569  12.033   5.366  11.934
68932SOL    HW1 8570  12.114   5.364  11.986
68932SOL    HW2 8571  12.059   5.329  11.850
68933SOL     OW 8572   1.792   9.195   7.698
68933SOL    HW1 8573   1.808   9.158   7.784
68933SOL    HW2 8574   1.828   9.284   7.702
68934SOL     OW 8575   8.616   7.392   2.859
68934SOL    HW1 8576   8.707   7.415   2.841
68934SOL    HW2 8577   8.567   7.428   2.785
68935SOL     OW 8578   1.292   2.873   0.731
68935SOL    HW1 8579   1.213   2.853   0.680
68935SOL    HW2 8580   1.258   2.903   0.815
68936SOL     OW 8581   7.654   5.142   8.729
68936SOL    HW1 8582   7.710   5.219   8.742
68936SOL    HW2 8583   7.568   5.179   8.710
68937SOL     OW 8584   4.613   8.572   6.321
68937SOL    HW1 8585   4.641   8.630   6.251
68937SOL    HW2 8586   4.620   8.484   6.282
68938SOL     OW 8587  11.845  12.499   5.640
68938SOL    HW1 8588  11.852  12.564   5.570
68938SOL    HW2 8589  11.775  12.440   5.612
68939SOL     OW 8590   4.298   0.603   9.708
68939SOL    HW1 8591   4.257   0.690   9.714
68939SOL    HW2 8592   4.366   0.613   9.643
68940SOL     OW 8593   6.822   0.972   4.788
68940SOL    HW1 8594   6.888   0.946   4.723
68940SOL    HW2 8595   6.791   0.890   4.825
68941SOL     OW 8596   6.912   4.019  14.297
68941SOL    HW1 8597   6.888   4.109  14.276
68941SOL    HW2 8598   6.995   4.005  14.251
68942SOL     OW 8599   3.846   9.987  12.129
68942SOL    HW1 8600   3.868  10.032  12.210
68942SOL    HW2 8601   3.867  10.051  12.060
68943SOL     OW 8602   8.862  10.201  10.675
68943SOL    HW1 8603   8.854  10.267  10.606
68943SOL    HW2 8604   8.778  10.154  10.672
68944SOL     OW 8605   6.506   3.826   0.408
68944SOL    HW1 8606   6.463   3.749   0.446
68944SOL    HW2 8607   6.488   3.820   0.315
68945SOL     OW 8608   6.390  13.264   5.479
68945SOL    HW1 8609   6.427  13.295   5.396
68945SOL    HW2 8610   6.401  13.169   5.476
68946SOL     OW 8611   7.133   1.219   0.977
68946SOL    HW1 8612   7.106   1.128   0.989
68946SOL    HW2 8613   7.163   1.247   1.063
68947SOL     OW 8614  10.080   0.329  10.661
68947SOL    HW1 8615  10.010   0.395  10.656
68947SOL    HW2 8616  10.159   0.380  10.680
68948SOL     OW 8617   1.654  13.410   4.498
68948SOL    HW1 8618   1.739  13.412   4.543
68948SOL    HW2 8619   1.590  13.400   4.569
68949SOL     OW 8620   1.769   5.767   6.872
68949SOL    HW1 8621   1.856   5.805   6.855
68949SOL    HW2 8622   1.771   5.745   6.965
68950SOL     OW 8623   1.097  10.107   3.487
68950SOL    HW1 8624   1.165  10.167   3.454
68950SOL    HW2 8625   1.139  10.061   3.559
68951SOL     OW 8626   6.513   3.471  10.179
68951SOL    HW1 8627   6.603   3.452  10.155
68951SOL    HW2 8628   6.484   3.394  10.228
68952SOL     OW 8629   7.573   8.372  14.843
68952SOL    HW1 8630   7.581   8.277  14.835
68952SOL    HW2 8631   7.504   8.395  14.780
68953SOL     OW 8632  12.445   3.957   6.065
68953SOL    HW1 8633  12.467   3.994   5.980
68953SOL    HW2 8634  12.438   4.032   6.124
68954SOL     OW 8635  13.013  12.156   5.262
68954SOL    HW1 8636  13.087  12.214   5.248
68954SOL    HW2 8637  13.052  12.070   5.279
68955SOL     OW 8638  10.724  14.385   5.777
68955SOL    HW1 8639  10.724  14.313   5.714
68955SOL    HW2 8640  10.632  14.413   5.781
68956SOL     OW 8641  12.367  14.485   6.717
68956SOL    HW1 8642  12.374  14.555   6.782
68956SOL    HW2 8643  12.419  14.516   6.643
68957SOL     OW 8644  14.749   4.668   5.299
68957SOL    HW1 8645  14.698   4.748   5.287
68957SOL    HW2 8646  14.715   4.608   5.233
68958SOL     OW 8647   9.749   7.596  13.637
68958SOL    HW1 8648   9.779   7.673  13.685
68958SOL    HW2 8649   9.779   7.611  13.547
68959SOL     OW 8650   7.858  10.494   3.641
68959SOL    HW1 8651   7.915  10.445   3.700
68959SOL    HW2 8652   7.769  10.472   3.669
68960SOL     OW 8653   5.656   0.091  10.775
68960SOL    HW1 8654   5.726   0.137  10.730
68960SOL    HW2 8655   5.660   0.001  10.742
68961SOL     OW 8656  14.390   2.642   9.352
68961SOL    HW1 8657  14.377   2.618   9.444
68961SOL    HW2 8658  14.483   2.664   9.347
68962SOL     OW 8659   9.169   1.140   1.372
68962SOL    HW1 8660   9.086   1.092   1.369
68962SOL    HW2 8661   9.149   1.223   1.330
68963SOL     OW 8662   2.874  11.558  13.264
68963SOL    HW1 8663   2.847  11.547  13.173
68963SOL    HW2 8664   2.800  11.525  13.315
68964SOL     OW 8665  13.579  13.540   8.111
68964SOL    HW1 8666  13.640  13.476   8.148
68964SOL    HW2 8667  13.555  13.505   8.026
68965SOL     OW 8668   3.595   5.851  14.524
68965SOL    HW1 8669   3.557   5.763  14.529
68965SOL    HW2 8670   3.547   5.902  14.590
68966SOL     OW 8671   1.138  12.439   1.710
68966SOL    HW1 8672   1.081  12.502   1.753
68966SOL    HW2 8673   1.124  12.453   1.616
68967SOL     OW 8674   2.897   1.871  10.393
68967SOL    HW1 8675   2.873   1.949  10.342
68967SOL    HW2 8676   2.922   1.806  10.327
68968SOL     OW 8677  14.432   0.822   2.742
68968SOL    HW1 8678  14.374   0.866   2.804
68968SOL    HW2 8679  14.419   0.729   2.759
68969SOL     OW 8680  10.577   2.586   2.814
68969SOL    HW1 8681  10.625   2.625   2.888
68969SOL    HW2 8682  10.580   2.653   2.746
68970SOL     OW 8683  13.435  10.325  14.872
68970SOL    HW1 8684  13.407  10.366  14.790
68970SOL    HW2 8685  13.407  10.386   0.059
68971SOL     OW 8686   4.140   9.857   7.215
68971SOL    HW1 8687   4.076   9.899   7.272
68971SOL    HW2 8688   4.128   9.763   7.230
68972SOL     OW 8689   2.864   4.211  13.897
68972SOL    HW1 8690   2.795   4.165  13.946
68972SOL    HW2 8691   2.931   4.145  13.882
68973SOL     OW 8692   7.470  11.646   7.703
68973SOL    HW1 8693   7.390  11.630   7.653
68973SOL    HW2 8694   7.442  11.692   7.781
68974SOL     OW 8695   5.008   7.286   7.248
68974SOL    HW1 8696   4.923   7.298   7.292
68974SOL    HW2 8697   5.009   7.193   7.224
68975SOL     OW 8698   0.721   1.131   2.507
68975SOL    HW1 8699   0.702   1.180   2.587
68975SOL    HW2 8700   0.816   1.138   2.496
68976SOL     OW 8701  10.976   6.589  12.092
68976SOL    HW1 8702  10.935   6.662  12.138
68976SOL    HW2 8703  11.048   6.628  12.043
68977SOL     OW 8704  10.964  10.906  11.765
68977SOL    HW1 8705  11.006  10.961  11.832
68977SOL    HW2 8706  10.919  10.838  11.815
68978SOL     OW 8707   1.563  12.656   3.777
68978SOL    HW1 8708   1.576  12.561   3.767
68978SOL    HW2 8709   1.542  12.686   3.688
68979SOL     OW 8710   7.568  13.318  10.358
68979SOL    HW1 8711   7.605  13.386  10.303
68979SOL    HW2 8712   7.545  13.363  10.439
68980SOL     OW 8713   2.392  11.271   2.121
68980SOL    HW1 8714   2.398  11.350   2.176
68980SOL    HW2 8715   2.339  11.210   2.173
68981SOL     OW 8716  13.475   2.071   1.765
68981SOL    HW1 8717  13.540   2.040   1.828
68981SOL    HW2 8718  13.445   2.155   1.799
68982SOL     OW 8719  10.869  14.818   4.057
68982SOL    HW1 8720  10.869   0.027   4.089
68982SOL    HW2 8721  10.883  14.826   3.962
68983SOL     OW 8722   4.662   6.283  13.509
68983SOL    HW1 8723   4.670   6.285  13.604
68983SOL    HW2 8724   4.567   6.290  13.494
68984SOL     OW 8725   6.017   5.602   5.925
68984SOL    HW1 8726   6.112   5.614   5.928
68984SOL    HW2 8727   5.986   5.668   5.863
68985SOL     OW 8728  14.278   5.797   3.641
68985SOL    HW1 8729  14.344   5.866   3.641
68985SOL    HW2 8730  14.278   5.763   3.730
68986SOL     OW 8731   5.317   1.731  13.655
68986SOL    HW1 8732   5.382   1.775  13.600
68986SOL    HW2 8733   5.368   1.684  13.721
68987SOL     OW 8734  13.528   7.771   6.112
68987SOL    HW1 8735  13.539   7.716   6.189
68987SOL    HW2 8736  13.603   7.750   6.056
68988SOL     OW 8737  10.419   9.143   2.532
68988SOL    HW1 8738  10.373   9.226   2.519
68988SOL    HW2 8739  10.443   9.114   2.444
68989SOL     OW 8740   1.110   9.581  12.006
68989SOL    HW1 8741   1.058   9.643  12.057
68989SOL    HW2 8742   1.115   9.619  11.918
68990SOL     OW 8743   4.669   8.414   8.726
68990SOL    HW1 8744   4.745   8.399   8.671
68990SOL    HW2 8745   4.694   8.379   8.812
68991SOL     OW 8746  11.239  12.847  11.937
68991SOL    HW1 8747  11.204  12.924  11.891
68991SOL    HW2 8748  11.328  12.871  11.960
68992SOL     OW 8749   1.990  12.186  10.248
68992SOL    HW1 8750   1.970  12.194  10.155
68992SOL    HW2 8751   2.034  12.268  10.270
68993SOL     OW 8752   4.665  14.518  13.557
68993SOL    HW1 8753   4.623  14.518  13.471
68993SOL    HW2 8754   4.744  14.571  13.545
68994SOL     OW 8755   2.460  11.492  14.340
68994SOL    HW1 8756   2.417  11.543  14.408
68994SOL    HW2 8757   2.513  11.428  14.387
68995SOL     OW 8758   7.591  11.284   3.927
68995SOL    HW1 8759   7.648  11.274   3.851
68995SOL    HW2 8760   7.639  11.344   3.984
68996SOL     OW 8761   8.603   1.774   1.650
68996SOL    HW1 8762   8.621   1.680   1.644
68996SOL    HW2 8763   8.659   1.813   1.582
68997SOL     OW 8764  11.381   0.271   7.863
68997SOL    HW1 8765  11.378   0.249   7.770
68997SOL    HW2 8766  11.448   0.213   7.900
68998SOL     OW 8767   8.130   6.552  11.778
68998SOL    HW1 8768   8.087   6.498  11.844
68998SOL    HW2 8769   8.207   6.502  11.752
68999SOL     OW 8770   6.176  11.400  13.325
68999SOL    HW1 8771   6.162  11.457  13.249
68999SOL    HW2 8772   6.130  11.319  13.303
69000SOL     OW 8773   4.741  12.914   4.765
69000SOL    HW1 8774   4.727  12.826   4.800
69000SOL    HW2 8775   4.721  12.906   4.672
69001SOL     OW 8776   7.137   3.661   2.600
69001SOL    HW1 8777   7.139   3.625   2.689
69001SOL    HW2 8778   7.171   3.750   2.609
69002SOL     OW 8779   3.746   1.431   8.509
69002SOL    HW1 8780   3.748   1.339   8.533
69002SOL    HW2 8781   3.833   1.464   8.533
69003SOL     OW 8782   7.596   8.253  14.436
69003SOL    HW1 8783   7.641   8.205  14.505
69003SOL    HW2 8784   7.628   8.214  14.355
69004SOL     OW 8785   0.339  14.842  13.989
69004SOL    HW1 8786   0.411  14.780  14.000
69004SOL    HW2 8787   0.273  14.815  14.053
69005SOL     OW 8788   1.279  10.365   3.022
69005SOL    HW1 8789   1.214  10.386   3.089
69005SOL    HW2 8790   1.231  10.312   2.957
69006SOL     OW 8791   5.535  14.006   7.330
69006SOL    HW1 8792   5.482  13.980   7.405
69006SOL    HW2 8793   5.621  14.028   7.368
69007SOL     OW 8794   8.607  14.195   5.727
69007SOL    HW1 8795   8.540  14.263   5.728
69007SOL    HW2 8796   8.558  14.114   5.741
69008SOL     OW 8797   0.800  11.251   7.934
69008SOL    HW1 8798   0.740  11.248   7.860
69008SOL    HW2 8799   0.766  11.321   7.990
69009SOL     OW 8800   1.155  11.347  11.989
69009SOL    HW1 8801   1.196  11.278  11.936
69009SOL    HW2 8802   1.174  11.323  12.079
69010SOL     OW 8803  10.497  11.705   7.643
69010SOL    HW1 8804  10.495  11.610   7.659
69010SOL    HW2 8805  10.562  11.738   7.705
69011SOL     OW 8806   1.361   3.510  14.394
69011SOL    HW1 8807   1.278   3.483  14.355
69011SOL    HW2 8808   1.388   3.436  14.448
69012SOL     OW 8809  10.714  12.462   6.892
69012SOL    HW1 8810  10.667  12.408   6.829
69012SOL    HW2 8811  10.659  12.462   6.970
69013SOL     OW 8812   4.484  12.503  12.623
69013SOL    HW1 8813   4.492  12.495  12.528
69013SOL    HW2 8814   4.433  12.582  12.637
69014SOL     OW 8815   1.897  12.269  11.127
69014SOL    HW1 8816   1.974  12.213  11.135
69014SOL    HW2 8817   1.903  12.329  11.202
69015SOL     OW 8818   3.803   7.793   7.827
69015SOL    HW1 8819   3.894   7.767   7.809
69015SOL    HW2 8820   3.756   7.710   7.833
69016SOL     OW 8821   5.604   5.506   2.241
69016SOL    HW1 8822   5.533   5.568   2.260
69016SOL    HW2 8823   5.602   5.496   2.146
69017SOL     OW 8824   1.655   4.702   5.168
69017SOL    HW1 8825   1.571   4.693   5.213
69017SOL    HW2 8826   1.634   4.688   5.076
69018SOL     OW 8827  10.579  14.803   0.206
69018SOL    HW1 8828  10.488  14.797   0.235
69018SOL    HW2 8829  10.584   0.003   0.157
69019SOL     OW 8830   3.078   1.994  11.322
69019SOL    HW1 8831   3.091   2.073  11.270
69019SOL    HW2 8832   3.117   2.014  11.407
69020SOL     OW 8833   1.867   3.437   8.972
69020SOL    HW1 8834   1.872   3.443   8.877
69020SOL    HW2 8835   1.775   3.421   8.991
69021SOL     OW 8836   1.287   3.435   3.193
69021SOL    HW1 8837   1.252   3.519   3.221
69021SOL    HW2 8838   1.336   3.455   3.113
69022SOL     OW 8839   0.060   3.054   7.669
69022SOL    HW1 8840  14.880   3.013   7.608
69022SOL    HW2 8841   0.006   3.075   7.746
69023SOL     OW 8842   4.863   0.100   4.976
69023SOL    HW1 8843   4.954   0.077   4.992
69023SOL    HW2 8844   4.840   0.159   5.047
69024SOL     OW 8845   8.827   5.615   7.018
69024SOL    HW1 8846   8.735   5.626   6.992
69024SOL    HW2 8847   8.875   5.613   6.935
69025SOL     OW 8848   5.385  14.309  10.184
69025SOL    HW1 8849   5.320  14.291  10.116
69025SOL    HW2 8850   5.444  14.234  10.181
69026SOL     OW 8851  10.143   4.365   4.289
69026SOL    HW1 8852  10.085   4.298   4.253
69026SOL    HW2 8853  10.145   4.434   4.223
69027SOL     OW 8854   0.324   4.165   4.328
69027SOL    HW1 8855   0.249   4.118   4.363
69027SOL    HW2 8856   0.340   4.125   4.243
69028SOL     OW 8857  10.416   5.182   1.199
69028SOL    HW1 8858  10.363   5.252   1.161
69028SOL    HW2 8859  10.396   5.105   1.144
69029SOL     OW 8860  11.769   8.203   0.017
69029SOL    HW1 8861  11.713   8.281   0.014
69029SOL    HW2 8862  11.719   8.136  14.853
69030SOL     OW 8863  13.829  12.866  10.171
69030SOL    HW1 8864  13.920  12.888  10.190
69030SOL    HW2 8865  13.784  12.875  10.255
69031SOL     OW 8866   9.665  10.165  12.771
69031SOL    HW1 8867   9.721  10.243  12.766
69031SOL    HW2 8868   9.725  10.092  12.761
69032SOL     OW 8869  14.801   7.410   6.303
69032SOL    HW1 8870  14.796   7.326   6.257
69032SOL    HW2 8871  14.710   7.433   6.322
69033SOL     OW 8872   1.581   9.883  11.843
69033SOL    HW1 8873   1.657   9.916  11.890
69033SOL    HW2 8874   1.617   9.825  11.776
69034SOL     OW 8875  14.054   2.169   7.507
69034SOL    HW1 8876  14.066   2.085   7.551
69034SOL    HW2 8877  14.014   2.147   7.422
69035SOL     OW 8878  14.507   5.889   4.060
69035SOL    HW1 8879  14.572   5.820   4.050
69035SOL    HW2 8880  14.545   5.964   4.014
69036SOL     OW 8881   8.627   6.473   4.213
69036SOL    HW1 8882   8.700   6.464   4.152
69036SOL    HW2 8883   8.562   6.410   4.182
69037SOL     OW 8884  13.347   0.168   8.301
69037SOL    HW1 8885  13.322   0.085   8.261
69037SOL    HW2 8886  13.317   0.162   8.391
69038SOL     OW 8887   5.371   5.024  12.295
69038SOL    HW1 8888   5.311   4.952  12.317
69038SOL    HW2 8889   5.427   5.033  12.373
69039SOL     OW 8890   3.050   8.484   9.327
69039SOL    HW1 8891   3.099   8.512   9.250
69039SOL    HW2 8892   3.036   8.565   9.377
69040SOL     OW 8893   9.204   0.671   8.933
69040SOL    HW1 8894   9.180   0.649   8.843
69040SOL    HW2 8895   9.159   0.754   8.950
69041SOL     OW 8896  11.247   5.818  14.226
69041SOL    HW1 8897  11.175   5.825  14.288
69041SOL    HW2 8898  11.261   5.724  14.215
69042SOL     OW 8899  14.666   5.935  14.508
69042SOL    HW1 8900  14.666   5.959  14.415
69042SOL    HW2 8901  14.695   6.015  14.553
69043SOL     OW 8902   9.859   9.534   5.193
69043SOL    HW1 8903   9.943   9.570   5.164
69043SOL    HW2 8904   9.881   9.480   5.269
69044SOL     OW 8905   6.236   1.431   8.073
69044SOL    HW1 8906   6.158   1.482   8.097
69044SOL    HW2 8907   6.204   1.342   8.063
69045SOL     OW 8908  12.246   0.301   5.094
69045SOL    HW1 8909  12.190   0.328   5.021
69045SOL    HW2 8910  12.285   0.218   5.064
69046SOL     OW 8911   1.740  10.751  13.318
69046SOL    HW1 8912   1.802  10.819  13.291
69046SOL    HW2 8913   1.671  10.754  13.252
69047SOL     OW 8914   0.117   1.230   4.415
69047SOL    HW1 8915   0.109   1.265   4.504
69047SOL    HW2 8916   0.130   1.136   4.428
69048SOL     OW 8917   7.586   8.555   1.048
69048SOL    HW1 8918   7.580   8.597   1.135
69048SOL    HW2 8919   7.650   8.485   1.060
69049SOL     OW 8920   9.427   3.191  10.025
69049SOL    HW1 8921   9.522   3.179  10.032
69049SOL    HW2 8922   9.410   3.184   9.931
69050SOL     OW 8923   2.117  11.657  13.896
69050SOL    HW1 8924   2.065  11.578  13.886
69050SOL    HW2 8925   2.056  11.721  13.933
69051SOL     OW 8926   2.756   0.441   9.738
69051SOL    HW1 8927   2.773   0.347   9.740
69051SOL    HW2 8928   2.736   0.463   9.830
69052SOL     OW 8929   5.788   3.837  13.878
69052SOL    HW1 8930   5.816   3.755  13.919
69052SOL    HW2 8931   5.869   3.872  13.839
69053SOL     OW 8932   3.062   7.023  10.347
69053SOL    HW1 8933   3.095   7.069  10.270
69053SOL    HW2 8934   2.976   7.063  10.363
69054SOL     OW 8935   6.052   8.175   4.622
69054SOL    HW1 8936   6.127   8.217   4.579
69054SOL    HW2 8937   6.065   8.081   4.607
69055SOL     OW 8938  14.015  10.673  10.183
69055SOL    HW1 8939  13.980  10.760  10.203
69055SOL    HW2 8940  13.953  10.636  10.120
69056SOL     OW 8941   2.230   2.795   4.599
69056SOL    HW1 8942   2.189   2.826   4.519
69056SOL    HW2 8943   2.161   2.800   4.665
69057SOL     OW 8944   0.773   3.106   5.235
69057SOL    HW1 8945   0.775   3.192   5.277
69057SOL    HW2 8946   0.681   3.092   5.213
69058SOL     OW 8947   3.418  13.971   2.831
69058SOL    HW1 8948   3.377  13.919   2.762
69058SOL    HW2 8949   3.368  14.053   2.832
69059SOL     OW 8950  14.826  13.152   3.669
69059SOL    HW1 8951  14.872  13.228   3.704
69059SOL    HW2 8952  14.859  13.142   3.580
69060SOL     OW 8953  14.271  13.895   1.384
69060SOL    HW1 8954  14.316  13.922   1.303
69060SOL    HW2 8955  14.231  13.975   1.417
69061SOL     OW 8956   1.547  12.283  13.669
69061SOL    HW1 8957   1.579  12.292  13.759
69061SOL    HW2 8958   1.519  12.371  13.644
69062SOL     OW 8959   7.000   8.330   8.135
69062SOL    HW1 8960   6.949   8.249   8.137
69062SOL    HW2 8961   6.963   8.383   8.206
69063SOL     OW 8962  11.993   4.492   4.608
69063SOL    HW1 8963  11.964   4.417   4.659
69063SOL    HW2 8964  12.089   4.485   4.606
69064SOL     OW 8965   0.302  11.405   5.803
69064SOL    HW1 8966   0.352  11.430   5.725
69064SOL    HW2 8967   0.367  11.397   5.872
69065SOL     OW 8968   6.126   0.625   4.327
69065SOL    HW1 8969   6.035   0.647   4.307
69065SOL    HW2 8970   6.168   0.710   4.341
69066SOL     OW 8971  14.329   3.528   9.769
69066SOL    HW1 8972  14.322   3.468   9.694
69066SOL    HW2 8973  14.275   3.603   9.744
69067SOL     OW 8974   6.291  13.873   7.548
69067SOL    HW1 8975   6.217  13.869   7.608
69067SOL    HW2 8976   6.368  13.866   7.605
69068SOL     OW 8977   9.407  10.986   1.276
69068SOL    HW1 8978   9.479  10.996   1.338
69068SOL    HW2 8979   9.450  10.976   1.191
69069SOL     OW 8980   0.222   3.649  13.589
69069SOL    HW1 8981   0.186   3.687  13.669
69069SOL    HW2 8982   0.249   3.560  13.614
69070SOL     OW 8983  13.836   3.486   2.305
69070SOL    HW1 8984  13.849   3.559   2.366
69070SOL    HW2 8985  13.849   3.525   2.218
69071SOL     OW 8986   6.934  14.664   7.786
69071SOL    HW1 8987   6.971  14.577   7.778
69071SOL    HW2 8988   7.005  14.718   7.819
69072SOL     OW 8989   9.574   4.568   7.747
69072SOL    HW1 8990   9.588   4.484   7.704
69072SOL    HW2 8991   9.604   4.555   7.837
69073SOL     OW 8992   0.781  12.045  12.987
69073SOL    HW1 8993   0.718  12.115  12.974
69073SOL    HW2 8994   0.831  12.042  12.905
69074SOL     OW 8995  13.320  10.301   5.834
69074SOL    HW1 8996  13.245  10.362   5.832
69074SOL    HW2 8997  13.304  10.246   5.911
69075SOL     OW 8998   2.024   0.055   6.466
69075SOL    HW1 8999   1.950   0.029   6.521
69075SOL    HW2 9000   1.990   0.126   6.411
69076SOL     OW 9001   5.881   9.251  14.061
69076SOL    HW1 9002   5.885   9.316  14.131
69076SOL    HW2 9003   5.875   9.167  14.107
69077SOL     OW 9004  10.153  12.552   9.494
69077SOL    HW1 9005  10.227  12.540   9.554
69077SOL    HW2 9006  10.123  12.641   9.512
69078SOL     OW 9007   5.854  10.196  13.112
69078SOL    HW1 9008   5.831  10.104  13.098
69078SOL    HW2 9009   5.948  10.194  13.130
69079SOL     OW 9010   5.745   0.692   9.091
69079SOL    HW1 9011   5.782   0.673   9.178
69079SOL    HW2 9012   5.652   0.704   9.107
69080SOL     OW 9013   7.582  12.968   7.785
69080SOL    HW1 9014   7.653  13.024   7.757
69080SOL    HW2 9015   7.623  12.905   7.845
69081SOL     OW 9016   1.819  12.106   1.092
69081SOL    HW1 9017   1.876  12.183   1.089
69081SOL    HW2 9018   1.873  12.034   1.062
69082SOL     OW 9019   7.724   9.261   2.296
69082SOL    HW1 9020   7.773   9.200   2.353
69082SOL    HW2 9021   7.688   9.205   2.227
69083SOL     OW 9022   5.525  14.784  13.354
69083SOL    HW1 9023   5.458  14.835  13.309
69083SOL    HW2 9024   5.607  14.811  13.313
69084SOL     OW 9025  11.873   9.662  14.587
69084SOL    HW1 9026  11.882   9.598  14.517
69084SOL    HW2 9027  11.865   9.746  14.542
69085SOL     OW 9028  14.617   5.197   4.063
69085SOL    HW1 9029  14.615   5.234   3.975
69085SOL    HW2 9030  14.685   5.246   4.109
69086SOL     OW 9031   2.001   3.548   3.116
69086SOL    HW1 9032   1.969   3.514   3.033
69086SOL    HW2 9033   1.954   3.498   3.183
69087SOL     OW 9034  12.826   4.325  13.310
69087SOL    HW1 9035  12.921   4.334  13.313
69087SOL    HW2 9036  12.804   4.340  13.218
69088SOL     OW 9037  14.303  12.442   9.234
69088SOL    HW1 9038  14.211  12.462   9.217
69088SOL    HW2 9039  14.348  12.526   9.223
69089SOL     OW 9040   2.235   9.722   0.398
69089SOL    HW1 9041   2.312   9.728   0.341
69089SOL    HW2 9042   2.161   9.740   0.340
69090SOL     OW 9043   1.480   9.388   5.705
69090SOL    HW1 9044   1.470   9.295   5.727
69090SOL    HW2 9045   1.413   9.432   5.757
69091SOL     OW 9046   3.938   1.106  14.384
69091SOL    HW1 9047   3.903   1.172  14.444
69091SOL    HW2 9048   3.920   1.142  14.297
69092SOL     OW 9049  12.045   5.707  11.820
69092SOL    HW1 9050  12.066   5.798  11.801
69092SOL    HW2 9051  12.103   5.657  11.763
69093SOL     OW 9052   3.193   4.193   4.289
69093SOL    HW1 9053   3.177   4.147   4.371
69093SOL    HW2 9054   3.246   4.269   4.314
69094SOL     OW 9055   8.490   4.859  10.044
69094SOL    HW1 9056   8.571   4.895  10.081
69094SOL    HW2 9057   8.421   4.893  10.100
69095SOL     OW 9058  10.180   1.855  10.665
69095SOL    HW1 9059  10.225   1.771  10.673
69095SOL    HW2 9060  10.137   1.867  10.749
69096SOL     OW 9061   0.315   7.614  14.212
69096SOL    HW1 9062   0.396   7.649  14.175
69096SOL    HW2 9063   0.245   7.656  14.163
69097SOL     OW 9064  10.280  10.763   7.914
69097SOL    HW1 9065  10.214  10.715   7.963
69097SOL    HW2 9066  10.250  10.854   7.915
69098SOL     OW 9067   7.400  11.863   8.205
69098SOL    HW1 9068   7.341  11.932   8.175
69098SOL    HW2 9069   7.346  11.808   8.261
69099SOL     OW 9070   8.817   0.661   8.441
69099SOL    HW1 9071   8.842   0.590   8.499
69099SOL    HW2 9072   8.888   0.668   8.378
69100SOL     OW 9073  11.232   4.186  12.319
69100SOL    HW1 9074  11.152   4.234  12.298
69100SOL    HW2 9075  11.247   4.204  12.412
69101SOL     OW 9076  11.574   9.361   9.840
69101SOL    HW1 9077  11.597   9.452   9.819
69101SOL    HW2 9078  11.495   9.368   9.894
69102SOL     OW 9079  13.387   5.131  13.205
69102SOL    HW1 9080  13.386   5.116  13.300
69102SOL    HW2 9081  13.462   5.188  13.191
69103SOL     OW 9082   8.913   2.690  14.685
69103SOL    HW1 9083   8.892   2.597  14.693
69103SOL    HW2 9084   8.855   2.733  14.748
69104SOL     OW 9085   9.053   5.908   3.626
69104SOL    HW1 9086   8.983   5.853   3.660
69104SOL    HW2 9087   9.119   5.846   3.595
69105SOL     OW 9088   0.531  11.278  11.536
69105SOL    HW1 9089   0.591  11.347  11.565
69105SOL    HW2 9090   0.571  11.243  11.456
69106SOL     OW 9091  11.483  10.970   1.095
69106SOL    HW1 9092  11.505  10.941   1.183
69106SOL    HW2 9093  11.517  10.901   1.038
69107SOL     OW 9094   7.510   4.725  14.472
69107SOL    HW1 9095   7.478   4.779  14.544
69107SOL    HW2 9096   7.521   4.786  14.399
69108SOL     OW 9097   3.742   4.102  13.680
69108SOL    HW1 9098   3.779   4.187  13.704
69108SOL    HW2 9099   3.816   4.041  13.687
69109SOL     OW 9100   9.767  10.020   5.164
69109SOL    HW1 9101   9.857  10.040   5.139
69109SOL    HW2 9102   9.776   9.946   5.225
69110SOL     OW 9103   2.908  11.397   6.906
69110SOL    HW1 9104   2.955  11.470   6.946
69110SOL    HW2 9105   2.917  11.326   6.970
69111SOL     OW 9106   0.813  10.002  10.040
69111SOL    HW1 9107   0.730  10.050  10.044
69111SOL    HW2 9108   0.809   9.941  10.114
69112SOL     OW 9109  10.947   0.593   6.279
69112SOL    HW1 9110  10.876   0.587   6.343
69112SOL    HW2 9111  10.904   0.615   6.197
69113SOL     OW 9112  13.754   2.187   8.571
69113SOL    HW1 9113  13.698   2.183   8.493
69113SOL    HW2 9114  13.810   2.263   8.556
69114SOL     OW 9115   1.164   0.088   7.984
69114SOL    HW1 9116   1.204   0.034   8.053
69114SOL    HW2 9117   1.192   0.177   8.005
69115SOL     OW 9118   0.511  12.538   5.368
69115SOL    HW1 9119   0.538  12.606   5.307
69115SOL    HW2 9120   0.485  12.465   5.312
69116SOL     OW 9121   7.933   8.268   2.692
69116SOL    HW1 9122   7.964   8.189   2.736
69116SOL    HW2 9123   7.987   8.276   2.614
69117SOL     OW 9124   5.774  11.556   0.442
69117SOL    HW1 9125   5.774  11.499   0.365
69117SOL    HW2 9126   5.836  11.626   0.421
69118SOL     OW 9127   9.673   6.888   6.307
69118SOL    HW1 9128   9.678   6.824   6.236
69118SOL    HW2 9129   9.730   6.959   6.279
69119SOL     OW 9130   3.816   5.610   1.733
69119SOL    HW1 9131   3.733   5.561   1.729
69119SOL    HW2 9132   3.809   5.675   1.664
69120SOL     OW 9133   3.341   5.897   9.353
69120SOL    HW1 9134   3.305   5.967   9.298
69120SOL    HW2 9135   3.415   5.938   9.398
69121SOL     OW 9136   5.890   8.750   7.201
69121SOL    HW1 9137   5.977   8.710   7.210
69121SOL    HW2 9138   5.835   8.679   7.168
69122SOL     OW 9139  13.970   4.722   0.066
69122SOL    HW1 9140  13.941   4.812   0.082
69122SOL    HW2 9141  13.961   4.679   0.151
69123SOL     OW 9142   8.699   5.698   1.276
69123SOL    HW1 9143   8.729   5.787   1.295
69123SOL    HW2 9144   8.720   5.648   1.354
69124SOL     OW 9145   9.691   7.303   8.188
69124SOL    HW1 9146   9.645   7.372   8.139
69124SOL    HW2 9147   9.622   7.259   8.238
69125SOL     OW 9148  13.466  12.521  14.098
69125SOL    HW1 9149  13.448  12.580  14.025
69125SOL    HW2 9150  13.497  12.578  14.168
69126SOL     OW 9151   0.956   5.359   9.344
69126SOL    HW1 9152   0.998   5.429   9.394
69126SOL    HW2 9153   1.027   5.323   9.290
69127SOL     OW 9154   2.611  11.008   3.733
69127SOL    HW1 9155   2.544  11.037   3.795
69127SOL    HW2 9156   2.694  11.036   3.772
69128SOL     OW 9157   8.679  10.744  14.284
69128SOL    HW1 9158   8.647  10.817  14.231
69128SOL    HW2 9159   8.774  10.742  14.267
69129SOL     OW 9160   6.717   6.403   2.642
69129SOL    HW1 9161   6.706   6.478   2.584
69129SOL    HW2 9162   6.692   6.328   2.588
69130SOL     OW 9163  13.078   6.609   8.962
69130SOL    HW1 9164  13.097   6.516   8.950
69130SOL    HW2 9165  13.084   6.623   9.056
69131SOL     OW 9166  10.068  14.395  10.786
69131SOL    HW1 9167  10.080  14.303  10.763
69131SOL    HW2 9168  10.156  14.433  10.779
69132SOL     OW 9169   1.468   9.730   7.200
69132SOL    HW1 9170   1.546   9.676   7.185
69132SOL    HW2 9171   1.422   9.686   7.272
69133SOL     OW 9172  13.865   0.053   2.096
69133SOL    HW1 9173  13.850   0.132   2.148
69133SOL    HW2 9174  13.791  14.878   2.115
69134SOL     OW 9175   7.725   9.122   2.697
69134SOL    HW1 9176   7.781   9.115   2.620
69134SOL    HW2 9177   7.704   9.031   2.719
69135SOL     OW 9178   4.158   9.329   3.968
69135SOL    HW1 9179   4.074   9.369   3.946
69135SOL    HW2 9180   4.189   9.293   3.885
69136SOL     OW 9181  14.809  12.945   3.866
69136SOL    HW1 9182  14.840  13.022   3.818
69136SOL    HW2 9183  14.879  12.880   3.855
69137SOL     OW 9184   6.286   5.966   3.631
69137SOL    HW1 9185   6.280   5.933   3.541
69137SOL    HW2 9186   6.307   5.889   3.683
69138SOL     OW 9187  13.772   0.561   2.718
69138SOL    HW1 9188  13.757   0.474   2.753
69138SOL    HW2 9189  13.745   0.621   2.788
69139SOL     OW 9190  14.832   6.870   1.304
69139SOL    HW1 9191  14.880   6.945   1.270
69139SOL    HW2 9192  14.865   6.858   1.393
69140SOL     OW 9193  14.869  14.492   0.627
69140SOL    HW1 9194   0.002  14.586   0.623
69140SOL    HW2 9195   0.071  14.453   0.600
69141SOL     OW 9196  13.710   8.971   2.204
69141SOL    HW1 9197  13.664   8.890   2.223
69141SOL    HW2 9198  13.789   8.944   2.158
69142SOL     OW 9199   0.158  14.531   3.401
69142SOL    HW1 9200   0.072  14.501   3.372
69142SOL    HW2 9201   0.140  14.599   3.465
69143SOL     OW 9202  11.780  14.294   8.889
69143SOL    HW1 9203  11.864  14.308   8.846
69143SOL    HW2 9204  11.802  14.252   8.972
69144SOL     OW 9205  14.380   8.004   8.122
69144SOL    HW1 9206  14.375   7.913   8.150
69144SOL    HW2 9207  14.383   8.000   8.027
69145SOL     OW 9208   5.295   2.897   3.397
69145SOL    HW1 9209   5.377   2.906   3.349
69145SOL    HW2 9210   5.320   2.858   3.481
69146SOL     OW 9211   3.026   1.006   1.443
69146SOL    HW1 9212   3.055   1.000   1.534
69146SOL    HW2 9213   3.041   1.097   1.419
69147SOL     OW 9214   7.584   4.623   5.155
69147SOL    HW1 9215   7.494   4.616   5.188
69147SOL    HW2 9216   7.626   4.542   5.184
69148SOL     OW 9217   7.091   9.907   9.785
69148SOL    HW1 9218   7.111   9.887   9.877
69148SOL    HW2 9219   7.143   9.984   9.765
69149SOL     OW 9220  11.836   4.876   3.455
69149SOL    HW1 9221  11.829   4.837   3.542
69149SOL    HW2 9222  11.747   4.904   3.433
69150SOL     OW 9223  13.936   1.837   8.910
69150SOL    HW1 9224  14.028   1.859   8.896
69150SOL    HW2 9225  13.897   1.838   8.822
69151SOL     OW 9226   9.603  10.408   6.171
69151SOL    HW1 9227   9.591  10.374   6.260
69151SOL    HW2 9228   9.670  10.476   6.181
69152SOL     OW 9229   0.688   2.699  13.707
69152SOL    HW1 9230   0.662   2.607  13.710
69152SOL    HW2 9231   0.782   2.698  13.720
69153SOL     OW 9232   1.052   6.195  13.747
69153SOL    HW1 9233   1.051   6.162  13.837
69153SOL    HW2 9234   0.972   6.246  13.739
69154SOL     OW 9235   6.148  10.184  13.481
69154SOL    HW1 9236   6.103  10.123  13.422
69154SOL    HW2 9237   6.241  10.173  13.460
69155SOL     OW 9238   7.049   2.108  11.639
69155SOL    HW1 9239   7.106   2.073  11.708
69155SOL    HW2 9240   7.100   2.178  11.599
69156SOL     OW 9241   7.951   6.975  14.330
69156SOL    HW1 9242   8.010   6.994  14.257
69156SOL    HW2 9243   8.009   6.945  14.400
69157SOL     OW 9244  14.369   2.502  13.767
69157SOL    HW1 9245  14.449   2.519  13.818
69157SOL    HW2 9246  14.393   2.431  13.708
69158SOL     OW 9247   7.166   5.076   9.637
69158SOL    HW1 9248   7.155   5.169   9.618
69158SOL    HW2 9249   7.260   5.064   9.646
69159SOL     OW 9250   2.075   9.992   0.138
69159SOL    HW1 9251   2.150   9.965   0.085
69159SOL    HW2 9252   2.009  10.019   0.074
69160SOL     OW 9253   2.562  10.862   0.358
69160SOL    HW1 9254   2.568  10.907   0.442
69160SOL    HW2 9255   2.653  10.852   0.329
69161SOL     OW 9256   0.921  14.769   9.078
69161SOL    HW1 9257   0.937  14.823   9.155
69161SOL    HW2 9258   0.881  14.689   9.112
69162SOL     OW 9259   2.110   7.058   5.484
69162SOL    HW1 9260   2.135   7.146   5.458
69162SOL    HW2 9261   2.172   7.001   5.438
69163SOL     OW 9262   9.125  13.680  10.511
69163SOL    HW1 9263   9.136  13.676  10.606
69163SOL    HW2 9264   9.050  13.624  10.493
69164SOL     OW 9265  13.677  13.352   5.668
69164SOL    HW1 9266  13.683  13.267   5.626
69164SOL    HW2 9267  13.583  13.368   5.677
69165SOL     OW 9268   9.801   4.981   9.847
69165SOL    HW1 9269   9.768   4.925   9.917
69165SOL    HW2 9270   9.763   5.067   9.864
69166SOL     OW 9271   0.628   5.283   8.004
69166SOL    HW1 9272   0.645   5.335   7.925
69166SOL    HW2 9273   0.594   5.200   7.970
69167SOL     OW 9274   5.047   0.112   0.985
69167SOL    HW1 9275   4.989   0.147   1.052
69167SOL    HW2 9276   5.024   0.159   0.905
69168SOL     OW 9277   3.797  13.060  10.277
69168SOL    HW1 9278   3.856  13.011  10.334
69168SOL    HW2 9279   3.836  13.054  10.190
69169SOL     OW 9280   9.048   1.420  13.505
69169SOL    HW1 9281   9.046   1.372  13.422
69169SOL    HW2 9282   9.135   1.405  13.540
69170SOL     OW 9283   7.622   8.875   7.656
69170SOL    HW1 9284   7.608   8.860   7.749
69170SOL    HW2 9285   7.677   8.954   7.652
69171SOL     OW 9286   3.007   9.886   2.619
69171SOL    HW1 9287   3.078   9.840   2.665
69171SOL    HW2 9288   3.033   9.978   2.621
69172SOL     OW 9289  13.578  13.957   5.953
69172SOL    HW1 9290  13.568  13.877   5.902
69172SOL    HW2 9291  13.671  13.979   5.945
69173SOL     OW 9292   2.455   7.519  11.365
69173SOL    HW1 9293   2.477   7.561  11.281
69173SOL    HW2 9294   2.466   7.588  11.430
69174SOL     OW 9295   1.335   5.895   0.107
69174SOL    HW1 9296   1.300   5.876   0.194
69174SOL    HW2 9297   1.292   5.831   0.050
69175SOL     OW 9298  12.328   4.157  12.457
69175SOL    HW1 9299  12.241   4.144  12.419
69175SOL    HW2 9300  12.311   4.193  12.544
69176SOL     OW 9301   8.520   7.311   4.180
69176SOL    HW1 9302   8.474   7.393   4.198
69176SOL    HW2 9303   8.517   7.302   4.085
69177SOL     OW 9304   5.225   4.591   6.922
69177SOL    HW1 9305   5.260   4.629   6.841
69177SOL    HW2 9306   5.248   4.499   6.917
69178SOL     OW 9307   2.882  14.325   8.124
69178SOL    HW1 9308   2.942  14.370   8.185
69178SOL    HW2 9309   2.910  14.233   8.126
69179SOL     OW 9310   7.555   4.418   3.854
69179SOL    HW1 9311   7.618   4.373   3.910
69179SOL    HW2 9312   7.547   4.506   3.893
69180SOL     OW 9313  10.653   3.145   1.062
69180SOL    HW1 9314  10.665   3.073   1.124
69180SOL    HW2 9315  10.709   3.215   1.096
69181SOL     OW 9316   4.069   0.792  12.496
69181SOL    HW1 9317   4.126   0.717  12.479
69181SOL    HW2 9318   4.019   0.804  12.416
69182SOL     OW 9319   1.033   1.575   4.020
69182SOL    HW1 9320   1.051   1.568   4.113
69182SOL    HW2 9321   0.974   1.503   4.001
69183SOL     OW 9322  12.388   0.963   4.088
69183SOL    HW1 9323  12.455   0.905   4.052
69183SOL    HW2 9324  12.423   0.989   4.173
69184SOL     OW 9325   8.504   4.283   4.178
69184SOL    HW1 9326   8.507   4.188   4.167
69184SOL    HW2 9327   8.552   4.299   4.259
69185SOL     OW 9328   7.969  11.164   9.989
69185SOL    HW1 9329   8.037  11.213  10.036
69185SOL    HW2 9330   8.017  11.096   9.942
69186SOL     OW 9331   6.022   3.623   1.949
69186SOL    HW1 9332   5.967   3.670   1.886
69186SOL    HW2 9333   6.010   3.671   2.031
69187SOL     OW 9334   4.814   3.939   8.665
69187SOL    HW1 9335   4.840   3.995   8.738
69187SOL    HW2 9336   4.837   3.851   8.692
69188SOL     OW 9337   4.383  12.980  14.427
69188SOL    HW1 9338   4.349  13.053  14.375
69188SOL    HW2 9339   4.433  12.927  14.365
69189SOL     OW 9340   1.058   0.383  11.757
69189SOL    HW1 9341   1.143   0.342  11.773
69189SOL    HW2 9342   1.079   0.471  11.726
69190SOL     OW 9343   3.325   8.445   3.421
69190SOL    HW1 9344   3.335   8.538   3.438
69190SOL    HW2 9345   3.271   8.440   3.342
69191SOL     OW 9346  14.736  12.440   1.214
69191SOL    HW1 9347  14.690  12.430   1.298
69191SOL    HW2 9348  14.791  12.362   1.207
69192SOL     OW 9349  12.862   7.492   0.650
69192SOL    HW1 9350  12.949   7.527   0.630
69192SOL    HW2 9351  12.816   7.495   0.566
69193SOL     OW 9352   5.320   3.727   3.235
69193SOL    HW1 9353   5.338   3.821   3.238
69193SOL    HW2 9354   5.403   3.687   3.260
69194SOL     OW 9355   2.914   3.448   8.382
69194SOL    HW1 9356   2.834   3.435   8.331
69194SOL    HW2 9357   2.896   3.408   8.466
69195SOL     OW 9358   6.979  10.572  12.197
69195SOL    HW1 9359   6.884  10.565  12.203
69195SOL    HW2 9360   7.011  10.491  12.238
69196SOL     OW 9361   4.456  13.430  12.443
69196SOL    HW1 9362   4.368  13.458  12.468
69196SOL    HW2 9363   4.513  13.463  12.512
69197SOL     OW 9364   2.756   8.189   2.260
69197SOL    HW1 9365   2.762   8.244   2.338
69197SOL    HW2 9366   2.846   8.158   2.246
69198SOL     OW 9367  14.484  12.373  13.937
69198SOL    HW1 9368  14.408  12.342  13.986
69198SOL    HW2 9369  14.484  12.468  13.949
69199SOL     OW 9370   2.972  13.763   7.090
69199SOL    HW1 9371   2.896  13.802   7.046
69199SOL    HW2 9372   2.973  13.802   7.177
69200SOL     OW 9373  11.447   8.285   8.215
69200SOL    HW1 9374  11.394   8.278   8.295
69200SOL    HW2 9375  11.511   8.354   8.235
69201SOL     OW 9376   6.517   1.278  12.306
69201SOL    HW1 9377   6.557   1.361  12.281
69201SOL    HW2 9378   6.444   1.303  12.363
69202SOL     OW 9379   7.995   4.636  14.830
69202SOL    HW1 9380   7.926   4.685  14.875
69202SOL    HW2 9381   7.998   4.552  14.877
69203SOL     OW 9382  13.901   8.162  13.560
69203SOL    HW1 9383  13.808   8.142  13.544
69203SOL    HW2 9384  13.901   8.251  13.594
69204SOL     OW 9385  10.464   1.270   3.433
69204SOL    HW1 9386  10.492   1.213   3.361
69204SOL    HW2 9387  10.405   1.333   3.393
69205SOL     OW 9388  10.774   8.457  12.396
69205SOL    HW1 9389  10.754   8.464  12.489
69205SOL    HW2 9390  10.795   8.365  12.383
69206SOL     OW 9391   5.788   2.805   5.264
69206SOL    HW1 9392   5.808   2.748   5.339
69206SOL    HW2 9393   5.831   2.763   5.190
69207SOL     OW 9394  14.007   3.328  10.372
69207SOL    HW1 9395  14.027   3.381  10.448
69207SOL    HW2 9396  13.916   3.302  10.383
69208SOL     OW 9397   1.988   6.743   2.961
69208SOL    HW1 9398   2.078   6.742   2.992
69208SOL    HW2 9399   1.995   6.760   2.867
69209SOL     OW 9400  10.492  14.051   6.023
69209SOL    HW1 9401  10.585  14.048   6.047
69209SOL    HW2 9402  10.491  14.021   5.932
69210SOL     OW 9403   2.678   6.321  14.038
69210SOL    HW1 9404   2.605   6.300  13.979
69210SOL    HW2 9405   2.678   6.249  14.102
69211SOL     OW 9406   7.219   3.277  13.288
69211SOL    HW1 9407   7.253   3.359  13.254
69211SOL    HW2 9408   7.144   3.302  13.341
69212SOL     OW 9409   3.535   6.717   4.945
69212SOL    HW1 9410   3.525   6.708   5.040
69212SOL    HW2 9411   3.618   6.674   4.926
69213SOL     OW 9412   2.663   0.599   6.017
69213SOL    HW1 9413   2.612   0.519   6.005
69213SOL    HW2 9414   2.670   0.636   5.929
69214SOL     OW 9415   8.262   2.158   3.205
69214SOL    HW1 9416   8.309   2.088   3.252
69214SOL    HW2 9417   8.203   2.111   3.146
69215SOL     OW 9418  13.506   0.697   0.695
69215SOL    HW1 9419  13.596   0.723   0.679
69215SOL    HW2 9420  13.472   0.673   0.609
69216SOL     OW 9421   8.480   0.297   9.349
69216SOL    HW1 9422   8.560   0.256   9.383
69216SOL    HW2 9423   8.434   0.328   9.427
69217SOL     OW 9424  12.411   3.474   2.884
69217SOL    HW1 9425  12.385   3.506   2.970
69217SOL    HW2 9426  12.397   3.379   2.888
69218SOL     OW 9427   6.035   7.118  10.920
69218SOL    HW1 9428   6.106   7.056  10.905
69218SOL    HW2 9429   5.994   7.089  11.002
69219SOL     OW 9430   7.315  11.676   1.310
69219SOL    HW1 9431   7.338  11.676   1.403
69219SOL    HW2 9432   7.223  11.648   1.308
69220SOL     OW 9433   1.690   9.357   9.087
69220SOL    HW1 9434   1.719   9.276   9.130
69220SOL    HW2 9435   1.716   9.347   8.996
69221SOL     OW 9436   1.224   4.912   1.362
69221SOL    HW1 9437   1.238   4.822   1.390
69221SOL    HW2 9438   1.185   4.955   1.438
69222SOL     OW 9439  13.677   8.802  12.870
69222SOL    HW1 9440  13.634   8.727  12.829
69222SOL    HW2 9441  13.644   8.878  12.822
69223SOL     OW 9442   3.702  11.215  13.895
69223SOL    HW1 9443   3.774  11.258  13.942
69223SOL    HW2 9444   3.741  11.135  13.860
69224SOL     OW 9445  14.653  10.285   5.170
69224SOL    HW1 9446  14.724  10.348   5.187
69224SOL    HW2 9447  14.598  10.328   5.105
69225SOL     OW 9448  13.061  11.186  13.565
69225SOL    HW1 9449  13.104  11.189  13.480
69225SOL    HW2 9450  12.989  11.249  13.558
69226SOL     OW 9451  12.345  14.878  14.222
69226SOL    HW1 9452  12.330  14.821  14.146
69226SOL    HW2 9453  12.439   0.014  14.221
69227SOL     OW 9454   4.137  12.001   9.637
69227SOL    HW1 9455   4.166  11.932   9.698
69227SOL    HW2 9456   4.218  12.049   9.616
69228SOL     OW 9457   9.299   9.835   8.021
69228SOL    HW1 9458   9.304   9.857   8.114
69228SOL    HW2 9459   9.380   9.787   8.003
69229SOL     OW 9460   7.893  13.231   1.688
69229SOL    HW1 9461   7.853  13.172   1.624
69229SOL    HW2 9462   7.845  13.213   1.769
69230SOL     OW 9463   2.817   7.160  14.431
69230SOL    HW1 9464   2.778   7.243  14.403
69230SOL    HW2 9465   2.760   7.093  14.394
69231SOL     OW 9466   2.700   7.456   4.409
69231SOL    HW1 9467   2.767   7.406   4.456
69231SOL    HW2 9468   2.622   7.449   4.463
69232SOL     OW 9469   0.118  11.770  13.629
69232SOL    HW1 9470   0.111  11.704  13.560
69232SOL    HW2 9471   0.101  11.722  13.710
69233SOL     OW 9472   3.284   6.747  13.811
69233SOL    HW1 9473   3.285   6.671  13.753
69233SOL    HW2 9474   3.192   6.758  13.835
69234SOL     OW 9475   9.697  13.750   4.602
69234SOL    HW1 9476   9.622  13.769   4.659
69234SOL    HW2 9477   9.747  13.684   4.649
69235SOL     OW 9478   7.521   7.907   3.409
69235SOL    HW1 9479   7.542   7.999   3.424
69235SOL    HW2 9480   7.465   7.883   3.483
69236SOL     OW 9481   2.188   3.159   1.554
69236SOL    HW1 9482   2.250   3.116   1.495
69236SOL    HW2 9483   2.243   3.196   1.623
69237SOL     OW 9484   1.649  14.715   2.178
69237SOL    HW1 9485   1.612  14.756   2.256
69237SOL    HW2 9486   1.585  14.649   2.152
69238SOL     OW 9487  11.860   2.946   8.513
69238SOL    HW1 9488  11.821   2.896   8.442
69238SOL    HW2 9489  11.821   3.033   8.506
69239SOL     OW 9490   4.850  11.970   2.173
69239SOL    HW1 9491   4.854  11.886   2.219
69239SOL    HW2 9492   4.936  11.979   2.131
69240SOL     OW 9493  14.174   3.202  13.080
69240SOL    HW1 9494  14.257   3.246  13.060
69240SOL    HW2 9495  14.197   3.133  13.142
69241SOL     OW 9496  14.509  13.038  12.433
69241SOL    HW1 9497  14.576  13.083  12.485
69241SOL    HW2 9498  14.447  13.106  12.409
69242SOL     OW 9499  13.555   5.702   1.013
69242SOL    HW1 9500  13.474   5.679   1.059
69242SOL    HW2 9501  13.602   5.759   1.074
69243SOL     OW 9502   4.190  10.137   7.459
69243SOL    HW1 9503   4.271  10.120   7.411
69243SOL    HW2 9504   4.121  10.111   7.398
69244SOL     OW 9505   3.540   0.167   1.955
69244SOL    HW1 9506   3.516   0.167   2.048
69244SOL    HW2 9507   3.457   0.165   1.908
69245SOL     OW 9508  14.265   7.629   6.980
69245SOL    HW1 9509  14.316   7.655   6.904
69245SOL    HW2 9510  14.316   7.658   7.055
69246SOL     OW 9511   2.512   5.062   0.381
69246SOL    HW1 9512   2.500   5.036   0.472
69246SOL    HW2 9513   2.572   5.137   0.384
69247SOL     OW 9514  10.107   2.556  12.607
69247SOL    HW1 9515  10.050   2.482  12.629
69247SOL    HW2 9516  10.155   2.528  12.530
69248SOL     OW 9517   3.138   9.832  13.557
69248SOL    HW1 9518   3.118   9.850  13.465
69248SOL    HW2 9519   3.141   9.736  13.563
69249SOL     OW 9520   9.625   2.336   7.938
69249SOL    HW1 9521   9.618   2.261   7.879
69249SOL    HW2 9522   9.715   2.334   7.969
69250SOL     OW 9523  13.038   0.567  11.374
69250SOL    HW1 9524  12.996   0.546  11.457
69250SOL    HW2 9525  13.086   0.487  11.350
69251SOL     OW 9526   9.269  10.000   8.266
69251SOL    HW1 9527   9.269  10.095   8.280
69251SOL    HW2 9528   9.339   9.967   8.321
69252SOL     OW 9529   0.385   7.800   2.371
69252SOL    HW1 9530   0.411   7.886   2.402
69252SOL    HW2 9531   0.446   7.780   2.300
69253SOL     OW 9532   0.785   7.348  14.580
69253SOL    HW1 9533   0.842   7.423  14.566
69253SOL    HW2 9534   0.828   7.297  14.648
69254SOL     OW 9535   5.503  10.079   9.601
69254SOL    HW1 9536   5.464  10.111   9.682
69254SOL    HW2 9537   5.574  10.022   9.630
69255SOL     OW 9538  14.785   3.509   6.475
69255SOL    HW1 9539  14.833   3.574   6.526
69255SOL    HW2 9540  14.853   3.459   6.431
69256SOL     OW 9541   6.808   8.702  10.863
69256SOL    HW1 9542   6.779   8.641  10.795
69256SOL    HW2 9543   6.740   8.695  10.931
69257SOL     OW 9544  12.788   9.367   9.210
69257SOL    HW1 9545  12.723   9.386   9.278
69257SOL    HW2 9546  12.844   9.445   9.207
69258SOL     OW 9547   0.444   5.062  10.365
69258SOL    HW1 9548   0.422   5.155  10.373
69258SOL    HW2 9549   0.522   5.051  10.420
69259SOL     OW 9550   3.135   2.133  13.107
69259SOL    HW1 9551   3.173   2.181  13.181
69259SOL    HW2 9552   3.059   2.088  13.144
69260SOL     OW 9553   9.039   4.450  13.695
69260SOL    HW1 9554   9.110   4.465  13.757
69260SOL    HW2 9555   9.066   4.496  13.615
69261SOL     OW 9556   3.746   7.626   7.206
69261SOL    HW1 9557   3.826   7.608   7.255
69261SOL    HW2 9558   3.720   7.540   7.171
69262SOL     OW 9559   5.206   6.006  11.217
69262SOL    HW1 9560   5.216   5.963  11.302
69262SOL    HW2 9561   5.290   5.993  11.173
69263SOL     OW 9562   6.650   3.200   9.507
69263SOL    HW1 9563   6.566   3.155   9.506
69263SOL    HW2 9564   6.649   3.253   9.587
69264SOL     OW 9565  12.233   6.733   5.592
69264SOL    HW1 9566  12.161   6.730   5.654
69264SOL    HW2 9567  12.191   6.740   5.506
69265SOL     OW 9568   3.538  12.100  10.084
69265SOL    HW1 9569   3.512  12.127   9.995
69265SOL    HW2 9570   3.558  12.007  10.075
69266SOL     OW 9571  14.175  13.224   0.266
69266SOL    HW1 9572  14.093  13.181   0.242
69266SOL    HW2 9573  14.235  13.201   0.195
69267SOL     OW 9574   7.739   9.811  13.014
69267SOL    HW1 9575   7.701   9.875  12.954
69267SOL    HW2 9576   7.670   9.795  13.079
69268SOL     OW 9577   0.021   3.395   5.827
69268SOL    HW1 9578   0.016   3.445   5.909
69268SOL    HW2 9579   0.064   3.312   5.852
69269SOL     OW 9580   5.113   2.162   0.770
69269SOL    HW1 9581   5.066   2.139   0.850
69269SOL    HW2 9582   5.169   2.086   0.752
69270SOL     OW 9583   7.507   9.823   7.051
69270SOL    HW1 9584   7.418   9.815   7.016
69270SOL    HW2 9585   7.544   9.735   7.043
69271SOL     OW 9586  12.066   4.072   4.280
69271SOL    HW1 9587  11.990   4.089   4.335
69271SOL    HW2 9588  12.132   4.037   4.339
69272SOL     OW 9589   0.048   6.306  11.838
69272SOL    HW1 9590   0.140   6.302  11.811
69272SOL    HW2 9591  14.881   6.322  11.757
69273SOL     OW 9592   9.744   0.454   6.244
69273SOL    HW1 9593   9.744   0.410   6.329
69273SOL    HW2 9594   9.783   0.390   6.184
69274SOL     OW 9595   9.034   4.292  11.473
69274SOL    HW1 9596   9.040   4.262  11.564
69274SOL    HW2 9597   8.959   4.244  11.438
69275SOL     OW 9598   1.377   8.645   3.144
69275SOL    HW1 9599   1.400   8.736   3.163
69275SOL    HW2 9600   1.284   8.639   3.164
69276SOL     OW 9601   7.620   2.296  13.104
69276SOL    HW1 9602   7.646   2.207  13.128
69276SOL    HW2 9603   7.626   2.298  13.009
69277SOL     OW 9604   1.450   7.041   1.470
69277SOL    HW1 9605   1.402   7.123   1.468
69277SOL    HW2 9606   1.533   7.063   1.513
69278SOL     OW 9607   3.472   8.282   3.578
69278SOL    HW1 9608   3.412   8.332   3.523
69278SOL    HW2 9609   3.531   8.238   3.516
69279SOL     OW 9610   0.180  13.958   6.844
69279SOL    HW1 9611   0.153  13.870   6.820
69279SOL    HW2 9612   0.126  14.015   6.789
69280SOL     OW 9613   1.151   2.933   4.168
69280SOL    HW1 9614   1.075   2.905   4.117
69280SOL    HW2 9615   1.196   2.851   4.192
69281SOL     OW 9616   1.253   1.456  10.679
69281SOL    HW1 9617   1.255   1.369  10.719
69281SOL    HW2 9618   1.291   1.443  10.592
69282SOL     OW 9619  12.740   4.805   5.943
69282SOL    HW1 9620  12.674   4.737   5.926
69282SOL    HW2 9621  12.798   4.801   5.867
69283SOL     OW 9622   6.751   0.229  10.679
69283SOL    HW1 9623   6.792   0.161  10.626
69283SOL    HW2 9624   6.812   0.242  10.752
69284SOL     OW 9625   8.194   5.008  13.693
69284SOL    HW1 9626   8.154   5.091  13.667
69284SOL    HW2 9627   8.158   4.991  13.780
69285SOL     OW 9628   3.529   6.152   2.293
69285SOL    HW1 9629   3.591   6.193   2.354
69285SOL    HW2 9630   3.462   6.219   2.280
69286SOL     OW 9631   8.064   3.061   0.581
69286SOL    HW1 9632   8.021   3.009   0.650
69286SOL    HW2 9633   8.055   3.009   0.502
69287SOL     OW 9634  12.814  14.219  11.079
69287SOL    HW1 9635  12.862  14.241  11.158
69287SOL    HW2 9636  12.833  14.126  11.064
69288SOL     OW 9637  13.631  11.759   3.033
69288SOL    HW1 9638  13.710  11.744   2.981
69288SOL    HW2 9639  13.559  11.730   2.977
69289SOL     OW 9640   5.719  13.973   7.037
69289SOL    HW1 9641   5.628  13.996   7.021
69289SOL    HW2 9642   5.763  14.056   7.055
69290SOL     OW 9643  13.374  14.311  14.496
69290SOL    HW1 9644  13.342  14.263  14.420
69290SOL    HW2 9645  13.466  14.287  14.503
69291SOL     OW 9646   8.499   2.882   5.636
69291SOL    HW1 9647   8.406   2.897   5.618
69291SOL    HW2 9648   8.541   2.966   5.615
69292SOL     OW 9649  13.138   1.695   8.353
69292SOL    HW1 9650  13.199   1.733   8.416
69292SOL    HW2 9651  13.148   1.601   8.364
69293SOL     OW 9652   3.018  11.827  12.734
69293SOL    HW1 9653   3.032  11.851  12.642
69293SOL    HW2 9654   3.105  11.832  12.774
69294SOL     OW 9655   1.846   7.927   5.229
69294SOL    HW1 9656   1.833   7.836   5.203
69294SOL    HW2 9657   1.841   7.976   5.147
69295SOL     OW 9658  13.595   1.987   3.070
69295SOL    HW1 9659  13.566   1.900   3.097
69295SOL    HW2 9660  13.682   1.973   3.032
69296SOL     OW 9661   1.465   4.258   4.274
69296SOL    HW1 9662   1.542   4.201   4.272
69296SOL    HW2 9663   1.500   4.344   4.295
69297SOL     OW 9664  13.393   3.028  12.491
69297SOL    HW1 9665  13.469   3.084  12.484
69297SOL    HW2 9666  13.386   3.007  12.584
69298SOL     OW 9667  12.743  11.216  12.221
69298SOL    HW1 9668  12.713  11.154  12.154
69298SOL    HW2 9669  12.819  11.174  12.261
69299SOL     OW 9670   6.804  10.048   3.748
69299SOL    HW1 9671   6.857   9.969   3.742
69299SOL    HW2 9672   6.868  10.119   3.749
69300SOL     OW 9673   6.545   2.038  14.403
69300SOL    HW1 9674   6.538   1.945  14.421
69300SOL    HW2 9675   6.489   2.052  14.327
69301SOL     OW 9676   5.002   4.968   2.348
69301SOL    HW1 9677   5.024   4.968   2.255
69301SOL    HW2 9678   5.079   4.930   2.391
69302SOL     OW 9679  14.878  11.918   2.567
69302SOL    HW1 9680  14.800  11.928   2.622
69302SOL    HW2 9681   0.057  11.866   2.620
69303SOL     OW 9682   0.291   4.788  10.066
69303SOL    HW1 9683   0.339   4.731  10.126
69303SOL    HW2 9684   0.352   4.859  10.047
69304SOL     OW 9685   6.743   0.121  13.265
69304SOL    HW1 9686   6.717   0.165  13.184
69304SOL    HW2 9687   6.769   0.191  13.324
69305SOL     OW 9688   4.073  13.481   7.209
69305SOL    HW1 9689   4.162  13.467   7.178
69305SOL    HW2 9690   4.070  13.574   7.233
69306SOL     OW 9691   3.592   9.496  12.681
69306SOL    HW1 9692   3.499   9.494  12.659
69306SOL    HW2 9693   3.620   9.584  12.657
69307SOL     OW 9694   5.636   3.281   8.912
69307SOL    HW1 9695   5.660   3.265   8.821
69307SOL    HW2 9696   5.719   3.276   8.960
69308SOL     OW 9697   4.722   2.455   4.774
69308SOL    HW1 9698   4.720   2.445   4.679
69308SOL    HW2 9699   4.649   2.514   4.793
69309SOL     OW 9700   2.550   8.833  10.430
69309SOL    HW1 9701   2.498   8.803  10.505
69309SOL    HW2 9702   2.594   8.754  10.399
69310SOL     OW 9703   0.837   1.496   5.715
69310SOL    HW1 9704   0.753   1.519   5.675
69310SOL    HW2 9705   0.900   1.553   5.671
69311SOL     OW 9706  14.329   2.830   9.590
69311SOL    HW1 9707  14.235   2.811   9.586
69311SOL    HW2 9708  14.354   2.807   9.680
69312SOL     OW 9709   3.525   7.260   5.815
69312SOL    HW1 9710   3.610   7.216   5.822
69312SOL    HW2 9711   3.489   7.229   5.731
69313SOL     OW 9712   0.492  11.738   8.826
69313SOL    HW1 9713   0.501  11.723   8.732
69313SOL    HW2 9714   0.567  11.792   8.850
69314SOL     OW 9715  14.867  11.341   6.294
69314SOL    HW1 9716   0.043  11.409   6.329
69314SOL    HW2 9717  14.784  11.385   6.276
69315SOL     OW 9718   9.994   8.990  11.842
69315SOL    HW1 9719  10.068   9.042  11.873
69315SOL    HW2 9720   9.973   9.027  11.756
69316SOL     OW 9721   2.098   0.386   0.042
69316SOL    HW1 9722   2.033   0.317   0.031
69316SOL    HW2 9723   2.136   0.370   0.128
69317SOL     OW 9724  13.389   0.929   2.557
69317SOL    HW1 9725  13.483   0.941   2.571
69317SOL    HW2 9726  13.362   1.004   2.506
69318SOL     OW 9727   7.975   4.127   1.995
69318SOL    HW1 9728   8.039   4.077   2.046
69318SOL    HW2 9729   8.016   4.213   1.985
69319SOL     OW 9730   6.420   2.521  10.846
69319SOL    HW1 9731   6.352   2.551  10.785
69319SOL    HW2 9732   6.408   2.574  10.924
69320SOL     OW 9733   2.524  13.130   8.330
69320SOL    HW1 9734   2.564  13.165   8.409
69320SOL    HW2 9735   2.442  13.179   8.321
69321SOL     OW 9736   8.859   6.824   2.481
69321SOL    HW1 9737   8.803   6.899   2.501
69321SOL    HW2 9738   8.928   6.861   2.426
69322SOL     OW 9739   9.796  14.400   0.782
69322SOL    HW1 9740   9.797  14.309   0.751
69322SOL    HW2 9741   9.752  14.449   0.713
69323SOL     OW 9742   8.187  10.821  11.247
69323SOL    HW1 9743   8.151  10.802  11.334
69323SOL    HW2 9744   8.241  10.898  11.261
69324SOL     OW 9745   4.021  14.421   1.992
69324SOL    HW1 9746   4.003  14.514   2.000
69324SOL    HW2 9747   3.977  14.394   1.911
69325SOL     OW 9748   9.792   7.672   4.183
69325SOL    HW1 9749   9.790   7.763   4.153
69325SOL    HW2 9750   9.814   7.679   4.276
69326SOL     OW 9751   8.581   8.451   1.221
69326SOL    HW1 9752   8.588   8.356   1.213
69326SOL    HW2 9753   8.670   8.483   1.208
69327SOL     OW 9754   1.403   1.301   2.862
69327SOL    HW1 9755   1.406   1.346   2.778
69327SOL    HW2 9756   1.485   1.325   2.905
69328SOL     OW 9757   2.241   4.776   5.684
69328SOL    HW1 9758   2.254   4.700   5.628
69328SOL    HW2 9759   2.226   4.849   5.623
69329SOL     OW 9760  13.753   0.153   9.637
69329SOL    HW1 9761  13.659   0.168   9.649
69329SOL    HW2 9762  13.777   0.096   9.710
69330SOL     OW 9763   7.630  10.007  10.804
69330SOL    HW1 9764   7.598   9.919  10.825
69330SOL    HW2 9765   7.553  10.053  10.770
69331SOL     OW 9766   4.422  13.340   9.341
69331SOL    HW1 9767   4.464  13.278   9.281
69331SOL    HW2 9768   4.492  13.401   9.364
69332SOL     OW 9769  11.277   0.485  10.696
69332SOL    HW1 9770  11.276   0.552  10.764
69332SOL    HW2 9771  11.369   0.480  10.668
69333SOL     OW 9772  10.907   6.209   7.666
69333SOL    HW1 9773  10.940   6.166   7.744
69333SOL    HW2 9774  10.908   6.302   7.687
69334SOL     OW 9775   2.668   8.059  12.356
69334SOL    HW1 9776   2.743   8.010  12.320
69334SOL    HW2 9777   2.690   8.073  12.448
69335SOL     OW 9778   8.811   5.460   6.146
69335SOL    HW1 9779   8.846   5.457   6.057
69335SOL    HW2 9780   8.734   5.404   6.144
69336SOL     OW 9781   1.937   5.433   3.507
69336SOL    HW1 9782   1.987   5.504   3.548
69336SOL    HW2 9783   1.991   5.405   3.434
69337SOL     OW 9784   4.424   1.169   3.351
69337SOL    HW1 9785   4.496   1.139   3.295
69337SOL    HW2 9786   4.426   1.109   3.426
69338SOL     OW 9787   8.398   3.556  11.045
69338SOL    HW1 9788   8.461   3.608  10.995
69338SOL    HW2 9789   8.315   3.603  11.034
69339SOL     OW 9790   7.371   2.839  12.172
69339SOL    HW1 9791   7.366   2.759  12.223
69339SOL    HW2 9792   7.290   2.886  12.193
69340SOL     OW 9793   2.513   5.460   4.412
69340SOL    HW1 9794   2.516   5.385   4.471
69340SOL    HW2 9795   2.599   5.501   4.420
69341SOL     OW 9796   0.873  12.633   9.433
69341SOL    HW1 9797   0.911  12.552   9.400
69341SOL    HW2 9798   0.923  12.703   9.389
69342SOL     OW 9799  13.424   6.904   0.776
69342SOL    HW1 9800  13.391   6.994   0.773
69342SOL    HW2 9801  13.427   6.882   0.869
69343SOL     OW 9802   2.487   2.397   5.807
69343SOL    HW1 9803   2.539   2.336   5.859
69343SOL    HW2 9804   2.406   2.350   5.788
69344SOL     OW 9805   6.163  11.114   7.090
69344SOL    HW1 9806   6.133  11.177   7.025
69344SOL    HW2 9807   6.178  11.033   7.041
69345SOL     OW 9808  10.225   9.615   1.728
69345SOL    HW1 9809  10.310   9.636   1.692
69345SOL    HW2 9810  10.217   9.520   1.719
69346SOL     OW 9811   3.951   2.032   6.200
69346SOL    HW1 9812   3.956   1.951   6.149
69346SOL    HW2 9813   4.042   2.055   6.219
69347SOL     OW 9814  13.465   8.442   9.510
69347SOL    HW1 9815  13.457   8.429   9.605
69347SOL    HW2 9816  13.400   8.508   9.489
69348SOL     OW 9817  11.129   4.760  12.388
69348SOL    HW1 9818  11.200   4.706  12.425
69348SOL    HW2 9819  11.152   4.768  12.295
69349SOL     OW 9820  13.126   3.292   2.774
69349SOL    HW1 9821  13.065   3.366   2.781
69349SOL    HW2 9822  13.145   3.287   2.680
69350SOL     OW 9823   6.956   7.415  10.151
69350SOL    HW1 9824   6.974   7.324  10.175
69350SOL    HW2 9825   6.878   7.438  10.201
69351SOL     OW 9826   3.344  10.897   8.194
69351SOL    HW1 9827   3.290  10.825   8.161
69351SOL    HW2 9828   3.281  10.957   8.233
69352SOL     OW 9829  11.317   1.486  11.444
69352SOL    HW1 9830  11.343   1.419  11.381
69352SOL    HW2 9831  11.383   1.555  11.435
69353SOL     OW 9832  12.975   0.712   7.133
69353SOL    HW1 9833  12.927   0.662   7.066
69353SOL    HW2 9834  13.067   0.700   7.110
69354SOL     OW 9835   0.527  13.514  13.649
69354SOL    HW1 9836   0.517  13.559  13.565
69354SOL    HW2 9837   0.621  13.505  13.660
69355SOL     OW 9838  10.073   7.793   2.379
69355SOL    HW1 9839  10.129   7.766   2.451
69355SOL    HW2 9840   9.995   7.829   2.421
69356SOL     OW 9841   2.840   6.185  12.211
69356SOL    HW1 9842   2.919   6.203  12.261
69356SOL    HW2 9843   2.829   6.090  12.217
69357SOL     OW 9844   7.894   8.675  10.019
69357SOL    HW1 9845   7.949   8.665  10.097
69357SOL    HW2 9846   7.829   8.605  10.028
69358SOL     OW 9847   6.992   7.575   2.950
69358SOL    HW1 9848   6.990   7.482   2.928
69358SOL    HW2 9849   7.066   7.585   3.009
69359SOL     OW 9850   8.691   4.603  13.770
69359SOL    HW1 9851   8.604   4.569  13.791
69359SOL    HW2 9852   8.726   4.630  13.855
69360SOL     OW 9853   6.809   9.418   2.135
69360SOL    HW1 9854   6.815   9.361   2.058
69360SOL    HW2 9855   6.731   9.386   2.182
69361SOL     OW 9856   5.936   3.788  10.509
69361SOL    HW1 9857   5.916   3.776  10.601
69361SOL    HW2 9858   6.013   3.734  10.494
69362SOL     OW 9859  13.986   5.908   3.928
69362SOL    HW1 9860  14.054   5.920   3.995
69362SOL    HW2 9861  14.032   5.920   3.845
69363SOL     OW 9862   6.828   1.390  14.869
69363SOL    HW1 9863   6.912   1.385  14.825
69363SOL    HW2 9864   6.793   1.476  14.844
69364SOL     OW 9865   8.256  12.302   4.761
69364SOL    HW1 9866   8.314  12.248   4.708
69364SOL    HW2 9867   8.185  12.243   4.786
69365SOL     OW 9868  11.500   8.537   8.843
69365SOL    HW1 9869  11.531   8.625   8.824
69365SOL    HW2 9870  11.579   8.483   8.844
69366SOL     OW 9871  12.345  11.589   4.272
69366SOL    HW1 9872  12.302  11.562   4.354
69366SOL    HW2 9873  12.419  11.529   4.263
69367SOL     OW 9874   1.316   8.949   4.879
69367SOL    HW1 9875   1.303   8.855   4.883
69367SOL    HW2 9876   1.360   8.964   4.795
69368SOL     OW 9877  12.344  10.226   5.456
69368SOL    HW1 9878  12.342  10.147   5.401
69368SOL    HW2 9879  12.278  10.284   5.417
69369SOL     OW 9880  11.995   1.632  10.733
69369SOL    HW1 9881  12.020   1.711  10.782
69369SOL    HW2 9882  11.985   1.564  10.800
69370SOL     OW 9883  11.397   3.877   5.430
69370SOL    HW1 9884  11.481   3.882   5.477
69370SOL    HW2 9885  11.394   3.957   5.378
69371SOL     OW 9886  11.459  13.665   8.756
69371SOL    HW1 9887  11.372  13.691   8.786
69371SOL    HW2 9888  11.477  13.583   8.802
69372SOL     OW 9889   5.054   7.185  12.605
69372SOL    HW1 9890   4.961   7.172  12.590
69372SOL    HW2 9891   5.079   7.251  12.540
69373SOL     OW 9892  11.434   7.997  14.709
69373SOL    HW1 9893  11.528   7.988  14.722
69373SOL    HW2 9894  11.399   7.910  14.725
69374SOL     OW 9895   5.601  14.037   2.572
69374SOL    HW1 9896   5.695  14.053   2.583
69374SOL    HW2 9897   5.589  14.031   2.477
69375SOL     OW 9898   9.703   2.241   7.095
69375SOL    HW1 9899   9.613   2.258   7.125
69375SOL    HW2 9900   9.732   2.167   7.150
69376SOL     OW 9901  13.597   6.714   0.093
69376SOL    HW1 9902  13.581   6.775   0.021
69376SOL    HW2 9903  13.639   6.767   0.161
69377SOL     OW 9904  14.369   4.959   3.557
69377SOL    HW1 9905  14.393   5.051   3.569
69377SOL    HW2 9906  14.443   4.921   3.510
69378SOL     OW 9907   9.580  12.667   2.120
69378SOL    HW1 9908   9.527  12.588   2.110
69378SOL    HW2 9909   9.525  12.737   2.084
69379SOL     OW 9910   8.285  10.927   1.903
69379SOL    HW1 9911   8.301  10.976   1.984
69379SOL    HW2 9912   8.191  10.905   1.907
69380SOL     OW 9913  10.100  12.592  11.825
69380SOL    HW1 9914  10.080  12.596  11.732
69380SOL    HW2 9915  10.180  12.644  11.835
69381SOL     OW 9916  13.455  10.122   3.642
69381SOL    HW1 9917  13.364  10.095   3.626
69381SOL    HW2 9918  13.486  10.152   3.557
69382SOL     OW 9919   8.574  12.215  13.661
69382SOL    HW1 9920   8.497  12.250  13.707
69382SOL    HW2 9921   8.599  12.283  13.599
69383SOL     OW 9922  11.225   4.350  14.439
69383SOL    HW1 9923  11.198   4.269  14.481
69383SOL    HW2 9924  11.160   4.365  14.370
69384SOL     OW 9925   3.346  13.974  10.193
69384SOL    HW1 9926   3.405  14.041  10.229
69384SOL    HW2 9927   3.274  14.023  10.154
69385SOL     OW 9928   5.695  11.092  13.976
69385SOL    HW1 9929   5.661  11.146  13.905
69385SOL    HW2 9930   5.788  11.082  13.956
69386SOL     OW 9931   1.581   9.438   9.673
69386SOL    HW1 9932   1.496   9.407   9.706
69386SOL    HW2 9933   1.584   9.530   9.697
69387SOL     OW 9934  14.000   1.402  10.234
69387SOL    HW1 9935  14.063   1.363  10.174
69387SOL    HW2 9936  13.930   1.435  10.178
69388SOL     OW 9937   9.945   2.208  13.938
69388SOL    HW1 9938   9.855   2.186  13.963
69388SOL    HW2 9939   9.959   2.162  13.855
69389SOL     OW 9940  13.936  13.926   5.150
69389SOL    HW1 9941  13.934  13.844   5.200
69389SOL    HW2 9942  13.939  13.994   5.218
69390SOL     OW 9943   6.574   0.658   2.659
69390SOL    HW1 9944   6.621   0.662   2.742
69390SOL    HW2 9945   6.586   0.568   2.628
69391SOL     OW 9946   2.730  13.571   5.605
69391SOL    HW1 9947   2.812  13.522   5.606
69391SOL    HW2 9948   2.668  13.515   5.652
69392SOL     OW 9949   5.430  14.626   8.190
69392SOL    HW1 9950   5.441  14.716   8.221
69392SOL    HW2 9951   5.434  14.573   8.270
69393SOL     OW 9952   8.246   4.707  12.124
69393SOL    HW1 9953   8.265   4.665  12.208
69393SOL    HW2 9954   8.262   4.639  12.059
69394SOL     OW 9955   3.804  14.545   2.414
69394SOL    HW1 9956   3.745  14.581   2.347
69394SOL    HW2 9957   3.882  14.518   2.365
69395SOL     OW 9958   8.650   9.499   3.391
69395SOL    HW1 9959   8.692   9.571   3.439
69395SOL    HW2 9960   8.679   9.511   3.301
69396SOL     OW 9961   2.475  14.315   0.194
69396SOL    HW1 9962   2.557  14.306   0.242
69396SOL    HW2 9963   2.439  14.399   0.224
69397SOL     OW 9964   3.933   5.910   0.771
69397SOL    HW1 9965   3.928   5.817   0.749
69397SOL    HW2 9966   3.842   5.935   0.790
69398SOL     OW 9967   1.594  13.761   5.471
69398SOL    HW1 9968   1.586  13.665   5.472
69398SOL    HW2 9969   1.534  13.791   5.539
69399SOL     OW 9970   0.751  14.543   7.578
69399SOL    HW1 9971   0.845  14.527   7.581
69399SOL    HW2 9972   0.736  14.615   7.640
69400SOL     OW 9973   8.200   8.875   3.951
69400SOL    HW1 9974   8.132   8.909   4.009
69400SOL    HW2 9975   8.155   8.860   3.868
69401SOL     OW 9976   6.362   3.284   8.526
69401SOL    HW1 9977   6.271   3.254   8.522
69401SOL    HW2 9978   6.383   3.312   8.437
69402SOL     OW 9979   0.918  13.440   3.142
69402SOL    HW1 9980   0.830  13.415   3.168
69402SOL    HW2 9981   0.930  13.528   3.179
69403SOL     OW 9982   8.371  12.506   9.009
69403SOL    HW1 9983   8.460  12.515   8.975
69403SOL    HW2 9984   8.316  12.547   8.942
69404SOL     OW 9985   4.525   8.874  12.986
69404SOL    HW1 9986   4.437   8.912  12.989
69404SOL    HW2 9987   4.577   8.928  13.046
69405SOL     OW 9988   7.385   4.915   8.771
69405SOL    HW1 9989   7.377   4.834   8.821
69405SOL    HW2 9990   7.473   4.912   8.733
69406SOL     OW 9991  11.349   4.599   7.379
69406SOL    HW1 9992  11.421   4.536   7.374
69406SOL    HW2 9993  11.276   4.550   7.418
69407SOL     OW 9994   2.700  12.217  14.630
69407SOL    HW1 9995   2.741  12.143  14.676
69407SOL    HW2 9996   2.621  12.179  14.590
69408SOL     OW 9997  10.327  11.159   8.227
69408SOL    HW1 9998  10.352  11.202   8.309
69408SOL    HW2 9999  10.326  11.229   8.162
69409SOL     OW10000   5.150   7.401   8.541
69409SOL    HW110001   5.212   7.426   8.472
69409SOL    HW210002   5.064   7.423   8.504
69410SOL     OW10003   4.892  10.431  13.699
69410SOL    HW110004   4.943  10.383  13.634
69410SOL    HW210005   4.802  10.400  13.687
69411SOL     OW10006   5.512  13.564  11.132
69411SOL    HW110007   5.445  13.600  11.190
69411SOL    HW210008   5.502  13.613  11.050
69412SOL     OW10009   3.619   0.036   8.192
69412SOL    HW110010   3.580   0.049   8.105
69412SOL    HW210011   3.707   0.075   8.185
69413SOL     OW10012  14.374  10.708   7.579
69413SOL    HW110013  14.440  10.686   7.513
69413SOL    HW210014  14.328  10.626   7.595
69414SOL     OW10015   4.215   7.560   3.203
69414SOL    HW110016   4.201   7.643   3.250
69414SOL    HW210017   4.208   7.493   3.270
69415SOL     OW10018   7.565   1.781  13.300
69415SOL    HW110019   7.595   1.772  13.210
69415SOL    HW210020   7.543   1.691  13.327
69416SOL     OW10021   6.369  11.704   9.850
69416SOL    HW110022   6.311  11.706   9.925
69416SOL    HW210023   6.317  11.739   9.778
69417SOL     OW10024   7.704   7.318   6.511
69417SOL    HW110025   7.616   7.288   6.486
69417SOL    HW210026   7.762   7.249   6.478
69418SOL     OW10027  13.651   9.110   3.517
69418SOL    HW110028  13.694   9.167   3.581
69418SOL    HW210029  13.595   9.168   3.466
69419SOL     OW10030  10.171  14.264  11.209
69419SOL    HW110031  10.122  14.330  11.159
69419SOL    HW210032  10.241  14.237  11.151
69420SOL     OW10033  10.357   3.381   7.749
69420SOL    HW110034  10.322   3.296   7.777
69420SOL    HW210035  10.285   3.442   7.760
69421SOL     OW10036   7.789   4.674   7.798
69421SOL    HW110037   7.847   4.713   7.863
69421SOL    HW210038   7.750   4.748   7.752
69422SOL     OW10039   3.266  11.917  11.774
69422SOL    HW110040   3.291  11.841  11.827
69422SOL    HW210041   3.231  11.979  11.837
69423SOL     OW10042  12.039   2.733   7.656
69423SOL    HW110043  12.079   2.702   7.737
69423SOL    HW210044  12.068   2.670   7.590
69424SOL     OW10045   2.120   7.069  11.076
69424SOL    HW110046   2.067   7.096  11.000
69424SOL    HW210047   2.056   7.051  11.144
69425SOL     OW10048   9.500   1.896   3.787
69425SOL    HW110049   9.519   1.818   3.734
69425SOL    HW210050   9.510   1.969   3.725
69426SOL     OW10051   9.595   4.085   9.070
69426SOL    HW110052   9.659   4.147   9.104
69426SOL    HW210053   9.582   4.022   9.141
69427SOL     OW10054  14.595   5.170   7.690
69427SOL    HW110055  14.555   5.236   7.634
69427SOL    HW210056  14.595   5.090   7.637
69428SOL     OW10057   7.845  10.281  12.188
69428SOL    HW110058   7.757  10.262  12.221
69428SOL    HW210059   7.866  10.367  12.224
69429SOL     OW10060  11.733   2.576   3.400
69429SOL    HW110061  11.657   2.538   3.443
69429SOL    HW210062  11.717   2.671   3.402
69430SOL     OW10063   4.358   1.142   9.504
69430SOL    HW110064   4.283   1.101   9.462
69430SOL    HW210065   4.320   1.215   9.555
69431SOL     OW10066   3.827   3.731   5.383
69431SOL    HW110067   3.769   3.774   5.446
69431SOL    HW210068   3.915   3.750   5.415
69432SOL     OW10069   4.403   7.611  14.270
69432SOL    HW110070   4.492   7.647  14.278
69432SOL    HW210071   4.372   7.603  14.360
69433SOL     OW10072  10.926  14.545  11.121
69433SOL    HW110073  10.981  14.527  11.197
69433SOL    HW210074  10.890  14.459  11.097
69434SOL     OW10075   4.839   8.738  12.031
69434SOL    HW110076   4.898   8.813  12.019
69434SOL    HW210077   4.834   8.727  12.126
69435SOL     OW10078  10.591   4.202  11.001
69435SOL    HW110079  10.514   4.187  10.945
69435SOL    HW210080  10.637   4.275  10.959
69436SOL     OW10081   8.796   5.082  10.485
69436SOL    HW110082   8.889   5.062  10.477
69436SOL    HW210083   8.789   5.131  10.567
69437SOL     OW10084   4.160   6.004  13.779
69437SOL    HW110085   4.250   5.995  13.747
69437SOL    HW210086   4.161   6.086  13.828
69438SOL     OW10087   9.967   4.866   7.325
69438SOL    HW110088  10.026   4.803   7.367
69438SOL    HW210089   9.980   4.853   7.231
69439SOL     OW10090  14.349   8.735  11.923
69439SOL    HW110091  14.270   8.788  11.919
69439SOL    HW210092  14.415   8.794  11.961
69440SOL     OW10093  13.397   8.299   1.718
69440SOL    HW110094  13.487   8.267   1.728
69440SOL    HW210095  13.343   8.222   1.736
69441SOL     OW10096   8.514  14.634  13.581
69441SOL    HW110097   8.547  14.709  13.531
69441SOL    HW210098   8.479  14.673  13.662
69442SOL     OW10099   6.034  14.199   3.425
69442SOL    HW110100   6.052  14.289   3.398
69442SOL    HW210101   5.944  14.183   3.395
69443SOL     OW10102  14.500  12.169  10.767
69443SOL    HW110103  14.509  12.256  10.807
69443SOL    HW210104  14.484  12.187  10.675
69444SOL     OW10105   0.951   4.873  11.759
69444SOL    HW110106   0.901   4.793  11.779
69444SOL    HW210107   0.910   4.908  11.680
69445SOL     OW10108  13.449   4.880   2.301
69445SOL    HW110109  13.452   4.965   2.344
69445SOL    HW210110  13.514   4.886   2.231
69446SOL     OW10111   8.411  13.156   1.501
69446SOL    HW110112   8.504  13.134   1.511
69446SOL    HW210113   8.379  13.093   1.437
69447SOL     OW10114   7.983  11.922   1.830
69447SOL    HW110115   7.951  11.834   1.847
69447SOL    HW210116   8.015  11.953   1.915
69448SOL     OW10117  11.418   3.812   1.121
69448SOL    HW110118  11.431   3.903   1.093
69448SOL    HW210119  11.465   3.760   1.056
69449SOL     OW10120  12.717   0.374   3.141
69449SOL    HW110121  12.809   0.395   3.156
69449SOL    HW210122  12.671   0.415   3.215
69450SOL     OW10123  13.721   1.048  13.183
69450SOL    HW110124  13.711   0.955  13.205
69450SOL    HW210125  13.649   1.091  13.230
69451SOL     OW10126   8.423   8.002  14.510
69451SOL    HW110127   8.393   7.951  14.585
69451SOL    HW210128   8.427   7.939  14.438
69452SOL     OW10129   7.452  14.079   2.535
69452SOL    HW110130   7.396  14.034   2.472
69452SOL    HW210131   7.412  14.062   2.620
69453SOL     OW10132  12.213   2.607   4.639
69453SOL    HW110133  12.295   2.655   4.625
69453SOL    HW210134  12.157   2.632   4.566
69454SOL     OW10135  10.916   9.171   2.472
69454SOL    HW110136  10.861   9.182   2.550
69454SOL    HW210137  11.006   9.167   2.506
69455SOL     OW10138   4.075   6.261   9.888
69455SOL    HW110139   4.006   6.259   9.822
69455SOL    HW210140   4.028   6.268   9.971
69456SOL     OW10141   8.753  11.804   0.877
69456SOL    HW110142   8.778  11.799   0.784
69456SOL    HW210143   8.673  11.753   0.883
69457SOL     OW10144   7.323  11.934  12.724
69457SOL    HW110145   7.369  11.862  12.766
69457SOL    HW210146   7.305  11.996  12.795
69458SOL     OW10147   3.597   6.909   5.924
69458SOL    HW110148   3.599   6.864   5.840
69458SOL    HW210149   3.503   6.920   5.943
69459SOL     OW10150   1.314   0.278  11.820
69459SOL    HW110151   1.309   0.194  11.865
69459SOL    HW210152   1.363   0.334  11.879
69460SOL     OW10153   4.193   4.709   3.266
69460SOL    HW110154   4.244   4.697   3.186
69460SOL    HW210155   4.120   4.647   3.257
69461SOL     OW10156   1.394   0.287   9.616
69461SOL    HW110157   1.469   0.278   9.674
69461SOL    HW210158   1.383   0.382   9.606
69462SOL     OW10159  10.639   5.162   8.411
69462SOL    HW110160  10.626   5.144   8.504
69462SOL    HW210161  10.716   5.111   8.387
69463SOL     OW10162   9.294   0.435   0.442
69463SOL    HW110163   9.308   0.353   0.488
69463SOL    HW210164   9.208   0.465   0.472
69464SOL     OW10165  13.526   3.852   2.275
69464SOL    HW110166  13.577   3.853   2.356
69464SOL    HW210167  13.461   3.922   2.287
69465SOL     OW10168   9.613   1.997   0.751
69465SOL    HW110169   9.624   2.083   0.710
69465SOL    HW210170   9.530   1.965   0.715
69466SOL     OW10171  14.535   6.006   2.990
69466SOL    HW110172  14.614   5.973   3.032
69466SOL    HW210173  14.504   6.075   3.048
69467SOL     OW10174   4.440   8.568   9.697
69467SOL    HW110175   4.350   8.534   9.697
69467SOL    HW210176   4.434   8.648   9.750
69468SOL     OW10177  10.599  12.999  10.522
69468SOL    HW110178  10.688  13.029  10.506
69468SOL    HW210179  10.549  13.028  10.446
69469SOL     OW10180   3.948   5.932   9.874
69469SOL    HW110181   3.853   5.921   9.871
69469SOL    HW210182   3.963   6.018   9.833
69470SOL     OW10183   9.562   2.701   5.037
69470SOL    HW110184   9.629   2.633   5.033
69470SOL    HW210185   9.513   2.683   5.117
69471SOL     OW10186   6.599   0.776   5.870
69471SOL    HW110187   6.530   0.833   5.836
69471SOL    HW210188   6.607   0.707   5.804
69472SOL     OW10189   3.604   3.588   6.363
69472SOL    HW110190   3.518   3.629   6.374
69472SOL    HW210191   3.648   3.641   6.297
69473SOL     OW10192   2.286  12.990   1.106
69473SOL    HW110193   2.321  12.980   1.017
69473SOL    HW210194   2.195  13.017   1.093
69474SOL     OW10195  13.707   0.743   5.211
69474SOL    HW110196  13.650   0.819   5.220
69474SOL    HW210197  13.675   0.699   5.132
69475SOL     OW10198  11.258   3.388   3.595
69475SOL    HW110199  11.323   3.457   3.589
69475SOL    HW210200  11.247   3.374   3.689
69476SOL     OW10201   4.062   5.323  11.650
69476SOL    HW110202   3.998   5.363  11.708
69476SOL    HW210203   4.119   5.396  11.622
69477SOL     OW10204   8.639  12.783  12.256
69477SOL    HW110205   8.562  12.778  12.199
69477SOL    HW210206   8.603  12.797  12.343
69478SOL     OW10207   3.195   3.060  11.520
69478SOL    HW110208   3.169   3.021  11.437
69478SOL    HW210209   3.291   3.057  11.520
69479SOL     OW10210   9.109  11.193   2.864
69479SOL    HW110211   9.170  11.130   2.826
69479SOL    HW210212   9.105  11.264   2.801
69480SOL     OW10213  10.869   8.209   2.079
69480SOL    HW110214  10.905   8.223   1.991
69480SOL    HW210215  10.900   8.122   2.104
69481SOL     OW10216   7.176  13.626   3.501
69481SOL    HW110217   7.195  13.717   3.481
69481SOL    HW210218   7.110  13.600   3.437
69482SOL     OW10219   1.393   0.922  14.612
69482SOL    HW110220   1.353   0.910  14.698
69482SOL    HW210221   1.411   0.834  14.581
69483SOL     OW10222  13.336   7.624   4.577
69483SOL    HW110223  13.285   7.703   4.593
69483SOL    HW210224  13.284   7.554   4.616
69484SOL     OW10225  12.815  12.025   5.081
69484SOL    HW110226  12.883  12.064   5.135
69484SOL    HW210227  12.739  12.082   5.093
69485SOL     OW10228  10.478   5.095   9.674
69485SOL    HW110229  10.386   5.094   9.647
69485SOL    HW210230  10.522   5.148   9.607
69486SOL     OW10231  14.682   5.030  14.348
69486SOL    HW110232  14.750   4.968  14.321
69486SOL    HW210233  14.674   5.016  14.443
69487SOL     OW10234   1.337  10.509   8.220
69487SOL    HW110235   1.336  10.593   8.173
69487SOL    HW210236   1.269  10.457   8.177
69488SOL     OW10237   9.212  14.119   6.365
69488SOL    HW110238   9.170  14.052   6.418
69488SOL    HW210239   9.158  14.197   6.376
69489SOL     OW10240  10.168   3.393  11.183
69489SOL    HW110241  10.240   3.369  11.241
69489SOL    HW210242  10.140   3.479  11.214
69490SOL     OW10243  10.954   6.599   8.136
69490SOL    HW110244  10.892   6.665   8.169
69490SOL    HW210245  10.904   6.551   8.069
69491SOL     OW10246   6.841   2.088   2.441
69491SOL    HW110247   6.784   2.091   2.365
69491SOL    HW210248   6.853   1.995   2.460
69492SOL     OW10249   1.075  13.726   7.167
69492SOL    HW110250   1.089  13.808   7.214
69492SOL    HW210251   1.081  13.658   7.234
69493SOL     OW10252   5.369   8.364   9.291
69493SOL    HW110253   5.351   8.338   9.382
69493SOL    HW210254   5.411   8.287   9.253
69494SOL     OW10255  10.818  10.699   2.335
69494SOL    HW110256  10.838  10.707   2.428
69494SOL    HW210257  10.775  10.781   2.312
69495SOL     OW10258   4.166   9.272  13.798
69495SOL    HW110259   4.240   9.330  13.778
69495SOL    HW210260   4.146   9.228  13.716
69496SOL     OW10261   3.032  12.121  11.636
69496SOL    HW110262   3.024  12.065  11.559
69496SOL    HW210263   2.999  12.206  11.608
69497SOL     OW10264   9.874  11.265  10.081
69497SOL    HW110265   9.885  11.286   9.988
69497SOL    HW210266   9.854  11.348  10.123
69498SOL     OW10267   1.249   6.712  13.432
69498SOL    HW110268   1.320   6.722  13.369
69498SOL    HW210269   1.202   6.633  13.403
69499SOL     OW10270   1.710   6.597  10.731
69499SOL    HW110271   1.647   6.641  10.674
69499SOL    HW210272   1.744   6.666  10.787
69500SOL     OW10273   3.909   7.361  10.122
69500SOL    HW110274   3.841   7.320  10.175
69500SOL    HW210275   3.977   7.293  10.113
69501SOL     OW10276  10.547   6.688   9.538
69501SOL    HW110277  10.480   6.663   9.602
69501SOL    HW210278  10.573   6.605   9.497
69502SOL     OW10279   1.651  10.118  10.191
69502SOL    HW110280   1.598  10.195  10.210
69502SOL    HW210281   1.646  10.109  10.096
69503SOL     OW10282   4.130  10.975   5.288
69503SOL    HW110283   4.183  10.903   5.253
69503SOL    HW210284   4.054  10.931   5.326
69504SOL     OW10285   2.473   5.305   2.861
69504SOL    HW110286   2.520   5.313   2.945
69504SOL    HW210287   2.381   5.292   2.887
69505SOL     OW10288   3.215   6.871   5.372
69505SOL    HW110289   3.223   6.776   5.362
69505SOL    HW210290   3.168   6.900   5.294
69506SOL     OW10291  14.796  11.692   7.725
69506SOL    HW110292  14.704  11.667   7.722
69506SOL    HW210293  14.844  11.611   7.709
69507SOL     OW10294   4.018   2.252  11.190
69507SOL    HW110295   4.021   2.207  11.274
69507SOL    HW210296   3.946   2.211  11.143
69508SOL     OW10297   9.748   5.536   7.713
69508SOL    HW110298   9.811   5.492   7.656
69508SOL    HW210299   9.790   5.540   7.798
69509SOL     OW10300   1.615  13.406   1.845
69509SOL    HW110301   1.533  13.412   1.797
69509SOL    HW210302   1.619  13.314   1.874
69510SOL     OW10303   7.433  10.876   9.879
69510SOL    HW110304   7.358  10.849   9.932
69510SOL    HW210305   7.483  10.796   9.866
69511SOL     OW10306  13.657  10.997   2.852
69511SOL    HW110307  13.591  11.024   2.915
69511SOL    HW210308  13.666  10.903   2.865
69512SOL     OW10309   0.460   3.868   8.599
69512SOL    HW110310   0.509   3.790   8.573
69512SOL    HW210311   0.373   3.855   8.561
69513SOL     OW10312   5.335   9.701   0.176
69513SOL    HW110313   5.328   9.748   0.259
69513SOL    HW210314   5.399   9.750   0.125
69514SOL     OW10315  14.151   8.936  14.413
69514SOL    HW110316  14.184   8.960  14.327
69514SOL    HW210317  14.226   8.899  14.459
69515SOL     OW10318   9.087   2.019  11.349
69515SOL    HW110319   9.096   2.055  11.437
69515SOL    HW210320   9.177   2.001  11.322
69516SOL     OW10321   8.641   5.963  12.809
69516SOL    HW110322   8.628   5.887  12.753
69516SOL    HW210323   8.561   5.969  12.861
69517SOL     OW10324  14.467   5.444  12.383
69517SOL    HW110325  14.540   5.466  12.326
69517SOL    HW210326  14.489   5.483  12.468
69518SOL     OW10327   0.366  14.670   7.697
69518SOL    HW110328   0.439  14.719   7.734
69518SOL    HW210329   0.369  14.691   7.603
69519SOL     OW10330   5.016  11.963   4.697
69519SOL    HW110331   5.021  11.898   4.767
69519SOL    HW210332   4.995  11.913   4.619
69520SOL     OW10333   2.174   9.946   9.146
69520SOL    HW110334   2.203   9.865   9.188
69520SOL    HW210335   2.085   9.926   9.116
69521SOL     OW10336   8.076   0.262   9.729
69521SOL    HW110337   8.037   0.290   9.647
69521SOL    HW210338   8.025   0.185   9.755
69522SOL     OW10339  13.048   6.575   5.215
69522SOL    HW110340  13.087   6.523   5.285
69522SOL    HW210341  12.991   6.513   5.168
69523SOL     OW10342   6.253  10.130   8.695
69523SOL    HW110343   6.225  10.092   8.778
69523SOL    HW210344   6.348  10.142   8.705
69524SOL     OW10345   0.225  14.520  11.851
69524SOL    HW110346   0.151  14.476  11.893
69524SOL    HW210347   0.199  14.611  11.843
69525SOL     OW10348   4.851   8.001  14.189
69525SOL    HW110349   4.769   8.040  14.220
69525SOL    HW210350   4.894   8.071  14.141
69526SOL     OW10351   5.808  10.915   7.748
69526SOL    HW110352   5.726  10.952   7.713
69526SOL    HW210353   5.831  10.845   7.687
69527SOL     OW10354   5.721   6.711   6.144
69527SOL    HW110355   5.801   6.718   6.091
69527SOL    HW210356   5.669   6.787   6.119
69528SOL     OW10357  14.093   9.405  10.558
69528SOL    HW110358  14.031   9.346  10.515
69528SOL    HW210359  14.178   9.378  10.525
69529SOL     OW10360   6.691  11.493   2.711
69529SOL    HW110361   6.746  11.536   2.645
69529SOL    HW210362   6.743  11.419   2.741
69530SOL     OW10363  12.351   1.301  12.493
69530SOL    HW110364  12.368   1.359  12.568
69530SOL    HW210365  12.304   1.226  12.531
69531SOL     OW10366   6.623   8.111   7.654
69531SOL    HW110367   6.676   8.154   7.722
69531SOL    HW210368   6.686   8.084   7.588
69532SOL     OW10369   1.119   6.739  12.678
69532SOL    HW110370   1.141   6.646  12.686
69532SOL    HW210371   1.121   6.756  12.584
69533SOL     OW10372  10.453  14.525  12.568
69533SOL    HW110373  10.538  14.524  12.524
69533SOL    HW210374  10.402  14.591  12.520
69534SOL     OW10375  13.946   5.203   0.520
69534SOL    HW110376  13.958   5.232   0.611
69534SOL    HW210377  14.010   5.134   0.508
69535SOL     OW10378   7.323   0.778  14.841
69535SOL    HW110379   7.287   0.859  14.806
69535SOL    HW210380   7.350   0.800   0.049
69536SOL     OW10381  12.344  11.158   3.680
69536SOL    HW110382  12.369  11.231   3.737
69536SOL    HW210383  12.348  11.081   3.736
69537SOL     OW10384  14.044  13.452   7.387
69537SOL    HW110385  13.970  13.503   7.355
69537SOL    HW210386  14.022  13.362   7.367
69538SOL     OW10387   8.648   6.252  10.702
69538SOL    HW110388   8.554   6.257  10.717
69538SOL    HW210389   8.680   6.341  10.714
69539SOL     OW10390   1.815  10.736   5.214
69539SOL    HW110391   1.772  10.822   5.209
69539SOL    HW210392   1.745  10.673   5.200
69540SOL     OW10393   4.042  10.587  13.620
69540SOL    HW110394   4.131  10.556  13.603
69540SOL    HW210395   4.005  10.521  13.679
69541SOL     OW10396   1.375  11.544  12.271
69541SOL    HW110397   1.327  11.536  12.354
69541SOL    HW210398   1.340  11.474  12.216
69542SOL     OW10399   0.636   2.031   1.759
69542SOL    HW110400   0.684   1.956   1.795
69542SOL    HW210401   0.555   2.035   1.810
69543SOL     OW10402   9.838  14.765   5.601
69543SOL    HW110403   9.797  14.696   5.654
69543SOL    HW210404   9.824  14.845   5.651
69544SOL     OW10405   8.206   5.312   7.917
69544SOL    HW110406   8.164   5.365   7.849
69544SOL    HW210407   8.180   5.353   7.999
69545SOL     OW10408   7.036   1.924   4.047
69545SOL    HW110409   7.063   2.016   4.049
69545SOL    HW210410   7.082   1.887   3.972
69546SOL     OW10411   9.969  10.230   0.305
69546SOL    HW110412  10.031  10.183   0.361
69546SOL    HW210413   9.883  10.206   0.339
69547SOL     OW10414   8.852   0.125   5.909
69547SOL    HW110415   8.760   0.149   5.906
69547SOL    HW210416   8.899   0.207   5.895
69548SOL     OW10417   1.999   1.819  10.595
69548SOL    HW110418   2.045   1.891  10.638
69548SOL    HW210419   2.069   1.764  10.559
69549SOL     OW10420  14.773  12.986   7.729
69549SOL    HW110421  14.749  13.017   7.642
69549SOL    HW210422  14.852  13.036   7.752
69550SOL     OW10423  12.379  14.001   2.729
69550SOL    HW110424  12.330  13.956   2.660
69550SOL    HW210425  12.415  13.931   2.784
69551SOL     OW10426   1.172   0.453   0.951
69551SOL    HW110427   1.101   0.516   0.967
69551SOL    HW210428   1.178   0.448   0.855
69552SOL     OW10429   4.316  11.112   2.236
69552SOL    HW110430   4.302  11.147   2.148
69552SOL    HW210431   4.366  11.031   2.222
69553SOL     OW10432   4.573   0.884   1.085
69553SOL    HW110433   4.578   0.967   1.134
69553SOL    HW210434   4.646   0.832   1.118
69554SOL     OW10435   3.673  14.526   1.936
69554SOL    HW110436   3.715  14.440   1.936
69554SOL    HW210437   3.736  14.583   1.893
69555SOL     OW10438   1.863   4.382   3.201
69555SOL    HW110439   1.789   4.442   3.193
69555SOL    HW210440   1.908   4.389   3.117
69556SOL     OW10441   0.492  12.802   5.689
69556SOL    HW110442   0.572  12.832   5.645
69556SOL    HW210443   0.494  12.707   5.682
69557SOL     OW10444  11.728  12.368  13.504
69557SOL    HW110445  11.731  12.459  13.533
69557SOL    HW210446  11.755  12.371  13.412
69558SOL     OW10447  12.644  14.391   0.545
69558SOL    HW110448  12.609  14.463   0.493
69558SOL    HW210449  12.731  14.420   0.571
69559SOL     OW10450  13.014   2.944   7.922
69559SOL    HW110451  13.088   2.953   7.862
69559SOL    HW210452  12.985   2.853   7.911
69560SOL     OW10453  13.782   1.497   0.737
69560SOL    HW110454  13.872   1.466   0.733
69560SOL    HW210455  13.767   1.538   0.652
69561SOL     OW10456   4.345   4.228  14.696
69561SOL    HW110457   4.312   4.315  14.719
69561SOL    HW210458   4.303   4.208  14.613
69562SOL     OW10459   1.285   6.300  13.720
69562SOL    HW110460   1.326   6.282  13.804
69562SOL    HW210461   1.193   6.275  13.731
69563SOL     OW10462   4.409  10.048   3.025
69563SOL    HW110463   4.470  10.049   2.951
69563SOL    HW210464   4.322  10.048   2.984
69564SOL     OW10465  10.276   9.523  13.359
69564SOL    HW110466  10.330   9.599  13.380
69564SOL    HW210467  10.188   9.546  13.390
69565SOL     OW10468  13.706  10.981   3.563
69565SOL    HW110469  13.780  10.927   3.592
69565SOL    HW210470  13.641  10.972   3.634
69566SOL     OW10471   0.380   7.092  11.054
69566SOL    HW110472   0.351   7.085  11.145
69566SOL    HW210473   0.383   7.186  11.037
69567SOL     OW10474   2.514   1.291   5.141
69567SOL    HW110475   2.550   1.304   5.230
69567SOL    HW210476   2.473   1.375   5.120
69568SOL     OW10477   8.506   5.077   7.746
69568SOL    HW110478   8.538   4.987   7.743
69568SOL    HW210479   8.580   5.129   7.775
69569SOL     OW10480  14.736  11.620   3.614
69569SOL    HW110481  14.814  11.630   3.668
69569SOL    HW210482  14.691  11.544   3.652
69570SOL     OW10483   8.134  10.077   3.554
69570SOL    HW110484   8.154  10.010   3.619
69570SOL    HW210485   8.044  10.059   3.528
69571SOL     OW10486   4.804  13.561   5.431
69571SOL    HW110487   4.811  13.536   5.523
69571SOL    HW210488   4.826  13.654   5.430
69572SOL     OW10489  10.950   3.982   7.579
69572SOL    HW110490  10.988   4.049   7.521
69572SOL    HW210491  10.923   4.031   7.657
69573SOL     OW10492   9.730   3.286   8.444
69573SOL    HW110493   9.672   3.360   8.428
69573SOL    HW210494   9.713   3.226   8.372
69574SOL     OW10495   5.149  10.910   2.250
69574SOL    HW110496   5.076  10.940   2.195
69574SOL    HW210497   5.135  10.955   2.333
69575SOL     OW10498  11.815   9.456   1.736
69575SOL    HW110499  11.786   9.377   1.689
69575SOL    HW210500  11.740   9.479   1.792
69576SOL     OW10501   3.894  14.349   8.133
69576SOL    HW110502   3.841  14.271   8.118
69576SOL    HW210503   3.907  14.352   8.227
69577SOL     OW10504   1.033   9.361   6.127
69577SOL    HW110505   1.032   9.319   6.213
69577SOL    HW210506   1.124   9.356   6.099
69578SOL     OW10507  13.008  10.219   4.634
69578SOL    HW110508  13.073  10.277   4.675
69578SOL    HW210509  12.927  10.238   4.681
69579SOL     OW10510  10.274   4.831  14.470
69579SOL    HW110511  10.354   4.779  14.460
69579SOL    HW210512  10.223   4.785  14.536
69580SOL     OW10513  11.828   4.832  13.346
69580SOL    HW110514  11.780   4.885  13.410
69580SOL    HW210515  11.785   4.747  13.348
69581SOL     OW10516  12.656  10.816   4.714
69581SOL    HW110517  12.737  10.772   4.692
69581SOL    HW210518  12.599  10.747   4.748
69582SOL     OW10519  11.058   9.073  10.801
69582SOL    HW110520  11.021   8.993  10.840
69582SOL    HW210521  10.986   9.109  10.749
69583SOL     OW10522   9.656   1.353  14.648
69583SOL    HW110523   9.644   1.279  14.588
69583SOL    HW210524   9.598   1.421  14.613
69584SOL     OW10525   3.948   0.216   9.701
69584SOL    HW110526   3.948   0.247   9.791
69584SOL    HW210527   4.041   0.204   9.680
69585SOL     OW10528  11.115   4.351   0.753
69585SOL    HW110529  11.204   4.359   0.718
69585SOL    HW210530  11.128   4.331   0.846
69586SOL     OW10531   4.812   2.321   5.313
69586SOL    HW110532   4.878   2.358   5.254
69586SOL    HW210533   4.855   2.318   5.398
69587SOL     OW10534   9.295  10.127   7.905
69587SOL    HW110535   9.386  10.146   7.924
69587SOL    HW210536   9.280  10.039   7.939
69588SOL     OW10537   5.967   4.259   7.939
69588SOL    HW110538   5.917   4.225   8.013
69588SOL    HW210539   6.058   4.238   7.960
69589SOL     OW10540  13.451   5.025  11.880
69589SOL    HW110541  13.529   5.043  11.828
69589SOL    HW210542  13.471   4.945  11.929
69590SOL     OW10543   6.787   4.514   8.778
69590SOL    HW110544   6.704   4.548   8.744
69590SOL    HW210545   6.841   4.592   8.790
69591SOL     OW10546   4.865  10.383   3.255
69591SOL    HW110547   4.780  10.421   3.236
69591SOL    HW210548   4.846  10.314   3.319
69592SOL     OW10549  12.703   8.746   1.093
69592SOL    HW110550  12.623   8.696   1.076
69592SOL    HW210551  12.707   8.753   1.188
69593SOL     OW10552   5.893  12.775   2.511
69593SOL    HW110553   5.919  12.854   2.559
69593SOL    HW210554   5.861  12.807   2.427
69594SOL     OW10555  11.808   8.010   2.258
69594SOL    HW110556  11.814   8.105   2.254
69594SOL    HW210557  11.899   7.980   2.248
69595SOL     OW10558  13.520  11.398   2.873
69595SOL    HW110559  13.496  11.490   2.860
69595SOL    HW210560  13.470  11.351   2.807
69596SOL     OW10561  13.861   3.001   6.755
69596SOL    HW110562  13.912   2.976   6.833
69596SOL    HW210563  13.926   3.035   6.694
69597SOL     OW10564  11.383   5.779   5.936
69597SOL    HW110565  11.405   5.717   6.006
69597SOL    HW210566  11.402   5.865   5.973
69598SOL     OW10567   2.872   7.604   7.493
69598SOL    HW110568   2.874   7.558   7.409
69598SOL    HW210569   2.877   7.697   7.471
69599SOL     OW10570   8.909   2.347   7.196
69599SOL    HW110571   8.884   2.412   7.130
69599SOL    HW210572   8.989   2.382   7.235
69600SOL     OW10573  12.949   3.794   9.354
69600SOL    HW110574  12.996   3.788   9.436
69600SOL    HW210575  12.992   3.730   9.297
69601SOL     OW10576   1.939   6.164   9.498
69601SOL    HW110577   1.987   6.112   9.433
69601SOL    HW210578   2.007   6.194   9.559
69602SOL     OW10579  12.402  12.290   7.811
69602SOL    HW110580  12.453  12.211   7.831
69602SOL    HW210581  12.393  12.288   7.716
69603SOL     OW10582  14.799   7.129  11.221
69603SOL    HW110583  14.740   7.188  11.174
69603SOL    HW210584  14.824   7.177  11.299
69604SOL     OW10585  14.470  13.715  11.894
69604SOL    HW110586  14.514  13.794  11.866
69604SOL    HW210587  14.533  13.645  11.878
69605SOL     OW10588   2.077   3.605   5.082
69605SOL    HW110589   2.053   3.529   5.135
69605SOL    HW210590   2.090   3.569   4.994
69606SOL     OW10591   3.290  11.282  13.605
69606SOL    HW110592   3.287  11.375  13.629
69606SOL    HW210593   3.216  11.270  13.546
69607SOL     OW10594  12.389  11.231   0.059
69607SOL    HW110595  12.456  11.233   0.128
69607SOL    HW210596  12.433  11.269  14.864
69608SOL     OW10597   5.517   4.618  14.355
69608SOL    HW110598   5.517   4.648  14.446
69608SOL    HW210599   5.562   4.687  14.307
69609SOL     OW10600   1.269  10.777   4.847
69609SOL    HW110601   1.311  10.694   4.826
69609SOL    HW210602   1.177  10.763   4.825
69610SOL     OW10603   5.968   6.083   8.635
69610SOL    HW110604   6.018   6.003   8.622
69610SOL    HW210605   5.939   6.108   8.547
69611SOL     OW10606   4.564   7.016   7.332
69611SOL    HW110607   4.658   7.021   7.351
69611SOL    HW210608   4.544   6.923   7.337
69612SOL     OW10609  10.208   8.599  13.039
69612SOL    HW110610  10.185   8.544  12.964
69612SOL    HW210611  10.146   8.671  13.036
69613SOL     OW10612   9.355  13.921  12.609
69613SOL    HW110613   9.364  13.852  12.543
69613SOL    HW210614   9.409  13.993  12.576
69614SOL     OW10615  11.659  10.542  10.426
69614SOL    HW110616  11.622  10.513  10.510
69614SOL    HW210617  11.753  10.545  10.442
69615SOL     OW10618   9.905   7.467   2.376
69615SOL    HW110619   9.827   7.412   2.379
69615SOL    HW210620   9.877   7.552   2.411
69616SOL     OW10621   8.324  11.846  10.384
69616SOL    HW110622   8.251  11.821  10.327
69616SOL    HW210623   8.282  11.872  10.466
69617SOL     OW10624  11.974   7.062   0.422
69617SOL    HW110625  12.017   7.036   0.503
69617SOL    HW210626  11.917   7.134   0.447
69618SOL     OW10627  11.845   2.562   3.728
69618SOL    HW110628  11.751   2.549   3.719
69618SOL    HW210629  11.865   2.532   3.817
69619SOL     OW10630  10.747   0.292  14.342
69619SOL    HW110631  10.787   0.212  14.377
69619SOL    HW210632  10.709   0.265  14.259
69620SOL     OW10633  10.842   3.772   6.891
69620SOL    HW110634  10.925   3.778   6.844
69620SOL    HW210635  10.817   3.863   6.908
69621SOL     OW10636   7.924   1.619  12.646
69621SOL    HW110637   7.888   1.569  12.572
69621SOL    HW210638   7.892   1.573  12.723
69622SOL     OW10639   8.149   9.080   3.088
69622SOL    HW110640   8.083   9.146   3.064
69622SOL    HW210641   8.165   9.096   3.181
69623SOL     OW10642  11.809   3.473   0.688
69623SOL    HW110643  11.769   3.410   0.747
69623SOL    HW210644  11.893   3.494   0.729
69624SOL     OW10645   6.145  11.477   2.492
69624SOL    HW110646   6.120  11.530   2.416
69624SOL    HW210647   6.205  11.533   2.541
69625SOL     OW10648   3.583   5.848  11.829
69625SOL    HW110649   3.531   5.885  11.901
69625SOL    HW210650   3.657   5.908  11.819
69626SOL     OW10651   7.062   4.567   5.298
69626SOL    HW110652   7.000   4.624   5.344
69626SOL    HW210653   7.007   4.498   5.259
69627SOL     OW10654   1.011   2.624  12.024
69627SOL    HW110655   1.005   2.597  11.933
69627SOL    HW210656   0.922   2.616  12.058
69628SOL     OW10657   6.491  11.652   0.477
69628SOL    HW110658   6.421  11.608   0.525
69628SOL    HW210659   6.462  11.654   0.386
69629SOL     OW10660   3.626   7.785   7.005
69629SOL    HW110661   3.700   7.788   6.945
69629SOL    HW210662   3.650   7.717   7.069
69630SOL     OW10663  14.818  12.820   8.963
69630SOL    HW110664  14.855  12.878   9.030
69630SOL    HW210665  14.750  12.771   9.009
69631SOL     OW10666   3.530   9.903   2.850
69631SOL    HW110667   3.607   9.874   2.802
69631SOL    HW210668   3.486   9.965   2.792
69632SOL     OW10669   1.166  11.608   9.428
69632SOL    HW110670   1.172  11.529   9.482
69632SOL    HW210671   1.078  11.641   9.443
69633SOL     OW10672  13.871   0.489   3.147
69633SOL    HW110673  13.899   0.473   3.057
69633SOL    HW210674  13.951   0.513   3.193
69634SOL     OW10675   8.638   0.108  14.002
69634SOL    HW110676   8.613   0.016  14.005
69634SOL    HW210677   8.555   0.156  14.008
69635SOL     OW10678   6.352   2.220   4.552
69635SOL    HW110679   6.377   2.174   4.632
69635SOL    HW210680   6.360   2.313   4.573
69636SOL     OW10681   7.248   1.303   1.930
69636SOL    HW110682   7.258   1.216   1.969
69636SOL    HW210683   7.165   1.299   1.884
69637SOL     OW10684  14.491   0.157   9.164
69637SOL    HW110685  14.447   0.110   9.092
69637SOL    HW210686  14.428   0.224   9.191
69638SOL     OW10687   0.743  12.803   9.680
69638SOL    HW110688   0.685  12.729   9.663
69638SOL    HW210689   0.726  12.864   9.608
69639SOL     OW10690   9.644   4.797   1.253
69639SOL    HW110691   9.568   4.778   1.199
69639SOL    HW210692   9.663   4.714   1.298
69640SOL     OW10693   8.721  10.905   3.867
69640SOL    HW110694   8.701  10.985   3.819
69640SOL    HW210695   8.638  10.858   3.872
69641SOL     OW10696   4.585   8.600   9.020
69641SOL    HW110697   4.502   8.639   8.993
69641SOL    HW210698   4.561   8.515   9.056
69642SOL     OW10699   5.342   0.779   2.204
69642SOL    HW110700   5.349   0.853   2.264
69642SOL    HW210701   5.307   0.817   2.123
69643SOL     OW10702   6.208   1.128   7.345
69643SOL    HW110703   6.257   1.210   7.338
69643SOL    HW210704   6.157   1.138   7.426
69644SOL     OW10705   6.515   2.418   7.009
69644SOL    HW110706   6.586   2.419   7.074
69644SOL    HW210707   6.451   2.357   7.046
69645SOL     OW10708   7.513  14.642  14.788
69645SOL    HW110709   7.544  14.600  14.868
69645SOL    HW210710   7.560  14.598  14.718
69646SOL     OW10711   9.782   7.242  13.839
69646SOL    HW110712   9.839   7.237  13.762
69646SOL    HW210713   9.721   7.313  13.819
69647SOL     OW10714   2.961   9.363   0.187
69647SOL    HW110715   3.003   9.443   0.219
69647SOL    HW210716   2.905   9.334   0.259
69648SOL     OW10717   3.704  10.524   0.168
69648SOL    HW110718   3.756  10.476   0.232
69648SOL    HW210719   3.619  10.479   0.167
69649SOL     OW10720   1.582   2.975   7.160
69649SOL    HW110721   1.597   2.881   7.159
69649SOL    HW210722   1.562   2.995   7.251
69650SOL     OW10723   5.980   9.562  14.059
69650SOL    HW110724   5.906   9.622  14.057
69650SOL    HW210725   6.057   9.619  14.052
69651SOL     OW10726   9.384  14.074   4.794
69651SOL    HW110727   9.396  14.044   4.884
69651SOL    HW210728   9.365  14.167   4.802
69652SOL     OW10729   1.672  13.742  11.266
69652SOL    HW110730   1.715  13.732  11.181
69652SOL    HW210731   1.620  13.663  11.277
69653SOL     OW10732   2.553   7.142   6.195
69653SOL    HW110733   2.531   7.184   6.112
69653SOL    HW210734   2.648   7.144   6.199
69654SOL     OW10735  12.617  12.626   7.460
69654SOL    HW110736  12.696  12.674   7.433
69654SOL    HW210737  12.644  12.535   7.463
69655SOL     OW10738   2.050   3.254  12.388
69655SOL    HW110739   1.967   3.284  12.351
69655SOL    HW210740   2.117   3.293  12.332
69656SOL     OW10741   6.693  12.695   1.655
69656SOL    HW110742   6.702  12.698   1.751
69656SOL    HW210743   6.649  12.611   1.639
69657SOL     OW10744   3.742   7.627  11.710
69657SOL    HW110745   3.815   7.605  11.768
69657SOL    HW210746   3.773   7.603  11.622
69658SOL     OW10747  12.564  13.362   6.873
69658SOL    HW110748  12.593  13.370   6.782
69658SOL    HW210749  12.546  13.269   6.885
69659SOL     OW10750  14.020  10.884   0.900
69659SOL    HW110751  14.012  10.835   0.982
69659SOL    HW210752  14.092  10.945   0.915
69660SOL     OW10753   4.306  11.285   8.180
69660SOL    HW110754   4.337  11.363   8.134
69660SOL    HW210755   4.236  11.251   8.124
69661SOL     OW10756   9.189  13.839   1.519
69661SOL    HW110757   9.243  13.916   1.536
69661SOL    HW210758   9.243  13.785   1.461
69662SOL     OW10759   4.606   0.823   4.000
69662SOL    HW110760   4.595   0.767   3.923
69662SOL    HW210761   4.518   0.853   4.020
69663SOL     OW10762   6.910   1.101   9.547
69663SOL    HW110763   6.869   1.100   9.633
69663SOL    HW210764   7.004   1.100   9.566
69664SOL     OW10765   8.653   3.088   9.061
69664SOL    HW110766   8.711   3.106   8.987
69664SOL    HW210767   8.585   3.155   9.056
69665SOL     OW10768   2.223   7.256  12.899
69665SOL    HW110769   2.142   7.226  12.857
69665SOL    HW210770   2.289   7.252  12.829
69666SOL     OW10771   6.501   7.013   6.064
69666SOL    HW110772   6.562   6.955   6.110
69666SOL    HW210773   6.530   7.010   5.973
69667SOL     OW10774   5.431   8.924   4.250
69667SOL    HW110775   5.423   9.019   4.265
69667SOL    HW210776   5.351   8.901   4.202
69668SOL     OW10777  13.873   8.347  14.310
69668SOL    HW110778  13.801   8.362  14.250
69668SOL    HW210779  13.864   8.415  14.376
69669SOL     OW10780   8.525   2.353   7.935
69669SOL    HW110781   8.519   2.446   7.915
69669SOL    HW210782   8.556   2.350   8.026
69670SOL     OW10783   6.678  11.335   8.524
69670SOL    HW110784   6.662  11.407   8.463
69670SOL    HW210785   6.745  11.368   8.584
69671SOL     OW10786   3.899   6.273   7.555
69671SOL    HW110787   3.857   6.349   7.515
69671SOL    HW210788   3.901   6.207   7.485
69672SOL     OW10789  10.339   0.605  14.439
69672SOL    HW110790  10.387   0.626  14.359
69672SOL    HW210791  10.371   0.518  14.463
69673SOL     OW10792  13.669   1.184  10.477
69673SOL    HW110793  13.764   1.198  10.482
69673SOL    HW210794  13.632   1.265  10.512
69674SOL     OW10795   8.611   9.566   1.908
69674SOL    HW110796   8.573   9.563   1.996
69674SOL    HW210797   8.548   9.519   1.854
69675SOL     OW10798   8.870   2.545   7.025
69675SOL    HW110799   8.917   2.494   6.959
69675SOL    HW210800   8.909   2.633   7.019
69676SOL     OW10801   0.639  10.916  10.787
69676SOL    HW110802   0.575  10.938  10.719
69676SOL    HW210803   0.588  10.915  10.868
69677SOL     OW10804  13.593   3.375   5.961
69677SOL    HW110805  13.645   3.295   5.969
69677SOL    HW210806  13.651   3.439   5.921
69678SOL     OW10807  13.108  14.174   7.413
69678SOL    HW110808  13.046  14.197   7.483
69678SOL    HW210809  13.173  14.119   7.456
69679SOL     OW10810  12.928  13.313   7.681
69679SOL    HW110811  12.908  13.326   7.588
69679SOL    HW210812  12.858  13.255   7.711
69680SOL     OW10813  11.819   6.763  14.713
69680SOL    HW110814  11.727   6.790  14.721
69680SOL    HW210815  11.842   6.731  14.800
69681SOL     OW10816   5.545  14.330   8.326
69681SOL    HW110817   5.490  14.343   8.404
69681SOL    HW210818   5.615  14.394   8.335
69682SOL     OW10819   4.591   8.967  10.544
69682SOL    HW110820   4.679   9.005  10.533
69682SOL    HW210821   4.600   8.878  10.512
69683SOL     OW10822   2.006   2.782   3.032
69683SOL    HW110823   2.080   2.830   3.070
69683SOL    HW210824   1.937   2.788   3.099
69684SOL     OW10825   8.568  12.434  11.427
69684SOL    HW110826   8.496  12.468  11.480
69684SOL    HW210827   8.550  12.466  11.338
69685SOL     OW10828   6.113   8.845  10.278
69685SOL    HW110829   6.067   8.814  10.356
69685SOL    HW210830   6.055   8.912  10.240
69686SOL     OW10831   5.794  13.479   0.618
69686SOL    HW110832   5.763  13.567   0.594
69686SOL    HW210833   5.749  13.421   0.556
69687SOL     OW10834  13.717  12.346   2.100
69687SOL    HW110835  13.643  12.404   2.084
69687SOL    HW210836  13.741  12.362   2.191
69688SOL     OW10837   3.868   2.545   6.986
69688SOL    HW110838   3.792   2.526   7.040
69688SOL    HW210839   3.835   2.544   6.896
69689SOL     OW10840  12.591   2.047  12.674
69689SOL    HW110841  12.527   2.014  12.738
69689SOL    HW210842  12.538   2.088  12.606
69690SOL     OW10843   9.000   8.830   7.349
69690SOL    HW110844   9.044   8.915   7.349
69690SOL    HW210845   9.063   8.770   7.310
69691SOL     OW10846  12.525   4.711   6.976
69691SOL    HW110847  12.430   4.718   6.968
69691SOL    HW210848  12.547   4.767   7.050
69692SOL     OW10849  11.795  13.520  12.832
69692SOL    HW110850  11.788  13.488  12.922
69692SOL    HW210851  11.713  13.567  12.818
69693SOL     OW10852   2.008   8.891   0.730
69693SOL    HW110853   2.091   8.897   0.777
69693SOL    HW210854   1.979   8.982   0.720
69694SOL     OW10855   6.811   9.238   4.848
69694SOL    HW110856   6.751   9.224   4.775
69694SOL    HW210857   6.820   9.152   4.889
69695SOL     OW10858  10.767   0.125   9.706
69695SOL    HW110859  10.697   0.174   9.749
69695SOL    HW210860  10.831   0.191   9.681
69696SOL     OW10861  11.916   9.512   9.313
69696SOL    HW110862  11.886   9.486   9.226
69696SOL    HW210863  11.975   9.442   9.341
69697SOL     OW10864   9.320   5.052   8.554
69697SOL    HW110865   9.405   5.088   8.580
69697SOL    HW210866   9.270   5.128   8.523
69698SOL     OW10867   9.517   4.083   1.711
69698SOL    HW110868   9.470   4.162   1.739
69698SOL    HW210869   9.587   4.116   1.654
69699SOL     OW10870   8.711  12.191   5.498
69699SOL    HW110871   8.716  12.173   5.592
69699SOL    HW210872   8.719  12.106   5.456
69700SOL     OW10873   6.192   9.872  14.718
69700SOL    HW110874   6.181   9.791  14.768
69700SOL    HW210875   6.122   9.929  14.749
69701SOL     OW10876  14.392   0.874   4.496
69701SOL    HW110877  14.463   0.821   4.459
69701SOL    HW210878  14.432   0.921   4.568
69702SOL     OW10879   3.930   1.103   0.541
69702SOL    HW110880   3.841   1.088   0.510
69702SOL    HW210881   3.919   1.133   0.632
69703SOL     OW10882  14.873   7.124  10.508
69703SOL    HW110883   0.086   7.137  10.517
69703SOL    HW210884  14.864   7.038  10.468
69704SOL     OW10885   9.669   2.428   5.058
69704SOL    HW110886   9.606   2.384   5.001
69704SOL    HW210887   9.753   2.419   5.013
69705SOL     OW10888   5.082   6.520   0.575
69705SOL    HW110889   5.169   6.495   0.607
69705SOL    HW210890   5.094   6.605   0.534
69706SOL     OW10891  11.737   3.107   3.265
69706SOL    HW110892  11.768   3.033   3.214
69706SOL    HW210893  11.643   3.092   3.275
69707SOL     OW10894   7.922   7.631   8.668
69707SOL    HW110895   7.849   7.647   8.728
69707SOL    HW210896   7.929   7.711   8.616
69708SOL     OW10897   4.914   9.867   4.671
69708SOL    HW110898   4.906   9.819   4.754
69708SOL    HW210899   4.860   9.945   4.684
69709SOL     OW10900  13.067   9.823   5.034
69709SOL    HW110901  13.149   9.872   5.034
69709SOL    HW210902  13.082   9.751   5.095
69710SOL     OW10903   6.510  14.832   1.876
69710SOL    HW110904   6.540  14.774   1.945
69710SOL    HW210905   6.563  14.809   1.800
69711SOL     OW10906   2.506  12.240  10.203
69711SOL    HW110907   2.450  12.164  10.218
69711SOL    HW210908   2.450  12.315  10.225
69712SOL     OW10909   3.128   8.655   3.819
69712SOL    HW110910   3.122   8.653   3.914
69712SOL    HW210911   3.222   8.654   3.801
69713SOL     OW10912  13.676  13.409   4.167
69713SOL    HW110913  13.677  13.449   4.254
69713SOL    HW210914  13.766  13.416   4.136
69714SOL     OW10915   2.842   9.831   7.717
69714SOL    HW110916   2.784   9.900   7.685
69714SOL    HW210917   2.815   9.816   7.807
69715SOL     OW10918  12.040   2.474  12.506
69715SOL    HW110919  12.007   2.560  12.534
69715SOL    HW210920  11.971   2.413  12.531
69716SOL     OW10921   9.093  13.084   4.936
69716SOL    HW110922   9.084  12.995   4.902
69716SOL    HW210923   9.187  13.095   4.951
69717SOL     OW10924  12.181   3.667  14.377
69717SOL    HW110925  12.236   3.611  14.323
69717SOL    HW210926  12.100   3.617  14.388
69718SOL     OW10927  11.633   5.584   5.901
69718SOL    HW110928  11.727   5.591   5.913
69718SOL    HW210929  11.620   5.590   5.806
69719SOL     OW10930   0.046   7.154  11.518
69719SOL    HW110931  14.847   7.136  11.567
69719SOL    HW210932   0.112   7.099  11.560
69720SOL     OW10933   1.790   1.431  13.893
69720SOL    HW110934   1.742   1.405  13.972
69720SOL    HW210935   1.759   1.520  13.874
69721SOL     OW10936   4.912  14.413  13.415
69721SOL    HW110937   4.868  14.498  13.411
69721SOL    HW210938   4.956  14.413  13.500
69722SOL     OW10939  14.494  11.815   0.622
69722SOL    HW110940  14.572  11.864   0.597
69722SOL    HW210941  14.528  11.736   0.664
69723SOL     OW10942   1.294   5.116   6.055
69723SOL    HW110943   1.218   5.100   5.999
69723SOL    HW210944   1.352   5.170   6.002
69724SOL     OW10945   4.281   4.707  14.863
69724SOL    HW110946   4.204   4.722   0.037
69724SOL    HW210947   4.279   4.778  14.798
69725SOL     OW10948  11.721  10.858  11.226
69725SOL    HW110949  11.653  10.923  11.212
69725SOL    HW210950  11.700  10.787  11.166
69726SOL     OW10951  10.903  11.051  13.729
69726SOL    HW110952  10.817  11.077  13.695
69726SOL    HW210953  10.912  11.101  13.810
69727SOL     OW10954   3.270  12.065  12.568
69727SOL    HW110955   3.337  11.999  12.582
69727SOL    HW210956   3.254  12.063  12.473
69728SOL     OW10957   5.286   0.744  13.893
69728SOL    HW110958   5.328   0.707  13.971
69728SOL    HW210959   5.233   0.816  13.926
69729SOL     OW10960   4.117   2.746   8.662
69729SOL    HW110961   4.061   2.814   8.702
69729SOL    HW210962   4.206   2.774   8.681
69730SOL     OW10963  12.522   2.881   9.870
69730SOL    HW110964  12.588   2.813   9.860
69730SOL    HW210965  12.547   2.949   9.807
69731SOL     OW10966  13.148   5.383  13.996
69731SOL    HW110967  13.075   5.440  13.970
69731SOL    HW210968  13.122   5.296  13.964
69732SOL     OW10969   6.441   6.152   1.002
69732SOL    HW110970   6.376   6.151   0.931
69732SOL    HW210971   6.478   6.240   0.998
69733SOL     OW10972   9.322   1.393   8.896
69733SOL    HW110973   9.404   1.394   8.944
69733SOL    HW210974   9.256   1.424   8.959
69734SOL     OW10975  14.508   2.823  10.869
69734SOL    HW110976  14.467   2.872  10.940
69734SOL    HW210977  14.517   2.734  10.904
69735SOL     OW10978   9.565   7.891   5.742
69735SOL    HW110979   9.630   7.876   5.673
69735SOL    HW210980   9.603   7.853   5.820
69736SOL     OW10981  10.179   5.359  10.946
69736SOL    HW110982  10.177   5.284  11.005
69736SOL    HW210983  10.105   5.413  10.973
69737SOL     OW10984   8.503  13.424   4.624
69737SOL    HW110985   8.537  13.362   4.559
69737SOL    HW210986   8.552  13.404   4.704
69738SOL     OW10987   0.162   0.933  14.243
69738SOL    HW110988   0.091   0.990  14.271
69738SOL    HW210989   0.119   0.859  14.201
69739SOL     OW10990  11.562   9.068  14.637
69739SOL    HW110991  11.470   9.060  14.664
69739SOL    HW210992  11.584   8.982  14.603
69740SOL     OW10993   3.480   4.359  11.640
69740SOL    HW110994   3.508   4.372  11.549
69740SOL    HW210995   3.393   4.399  11.645
69741SOL     OW10996   5.479  13.037  11.129
69741SOL    HW110997   5.426  12.958  11.116
69741SOL    HW210998   5.430  13.106  11.084
69742SOL     OW10999  11.924  14.801  10.590
69742SOL    HW111000  11.842  14.818  10.636
69742SOL    HW211001  11.960   0.006  10.572
69743SOL     OW11002   8.975  11.871  11.614
69743SOL    HW111003   8.996  11.811  11.542
69743SOL    HW211004   9.029  11.948  11.597
69744SOL     OW11005  14.656  11.469  11.900
69744SOL    HW111006  14.732  11.509  11.858
69744SOL    HW211007  14.673  11.375  11.897
69745SOL     OW11008   3.848  14.351   1.784
69745SOL    HW111009   3.788  14.382   1.716
69745SOL    HW211010   3.912  14.298   1.738
69746SOL     OW11011   5.899   9.279   4.607
69746SOL    HW111012   5.807   9.252   4.609
69746SOL    HW211013   5.943   9.220   4.668
69747SOL     OW11014   2.054  12.938   0.783
69747SOL    HW111015   2.135  12.951   0.735
69747SOL    HW211016   2.066  12.985   0.865
69748SOL     OW11017   9.664   9.945   4.226
69748SOL    HW111018   9.603  10.012   4.256
69748SOL    HW211019   9.610   9.867   4.214
69749SOL     OW11020   9.025  12.249  10.336
69749SOL    HW111021   9.094  12.247  10.403
69749SOL    HW211022   9.070  12.226  10.255
69750SOL     OW11023   1.282   6.611  12.020
69750SOL    HW111024   1.223   6.676  11.982
69750SOL    HW211025   1.321   6.654  12.096
69751SOL     OW11026   0.141   1.902   0.510
69751SOL    HW111027   0.141   1.940   0.422
69751SOL    HW211028   0.128   1.977   0.568
69752SOL     OW11029   3.461   5.946  12.040
69752SOL    HW111030   3.530   5.988  12.090
69752SOL    HW211031   3.403   6.017  12.013
69753SOL     OW11032  11.961   8.095   7.110
69753SOL    HW111033  12.011   8.127   7.186
69753SOL    HW211034  11.885   8.051   7.148
69754SOL     OW11035   5.103   7.571   9.829
69754SOL    HW111036   5.066   7.496   9.874
69754SOL    HW211037   5.153   7.617   9.896
69755SOL     OW11038   3.609   0.590  11.780
69755SOL    HW111039   3.553   0.521  11.815
69755SOL    HW211040   3.548   0.655  11.746
69756SOL     OW11041   9.199   0.520   2.130
69756SOL    HW111042   9.122   0.576   2.135
69756SOL    HW211043   9.257   0.551   2.200
69757SOL     OW11044   9.654   9.599   7.520
69757SOL    HW111045   9.695   9.682   7.497
69757SOL    HW211046   9.672   9.589   7.614
69758SOL     OW11047   8.267   6.044   4.507
69758SOL    HW111048   8.359   6.045   4.536
69758SOL    HW211049   8.258   5.963   4.457
69759SOL     OW11050   1.482   5.948   3.940
69759SOL    HW111051   1.571   5.968   3.911
69759SOL    HW211052   1.482   5.970   4.033
69760SOL     OW11053   4.966  12.249  13.071
69760SOL    HW111054   4.881  12.228  13.108
69760SOL    HW211055   4.952  12.248  12.976
69761SOL     OW11056  11.585  10.595  12.220
69761SOL    HW111057  11.631  10.527  12.172
69761SOL    HW211058  11.492  10.575  12.208
69762SOL     OW11059   8.844   7.417  13.982
69762SOL    HW111060   8.789   7.486  13.946
69762SOL    HW211061   8.832   7.423  14.076
69763SOL     OW11062   0.387  13.468   2.668
69763SOL    HW111063   0.294  13.480   2.686
69763SOL    HW211064   0.423  13.428   2.747
69764SOL     OW11065  14.487   4.539   2.198
69764SOL    HW111066  14.581   4.534   2.180
69764SOL    HW211067  14.471   4.632   2.215
69765SOL     OW11068   7.598   4.699   9.427
69765SOL    HW111069   7.693   4.701   9.435
69765SOL    HW211070   7.569   4.779   9.471
69766SOL     OW11071   7.968   2.361  10.233
69766SOL    HW111072   7.929   2.309  10.304
69766SOL    HW211073   7.992   2.297  10.167
69767SOL     OW11074   7.756   7.585   2.647
69767SOL    HW111075   7.801   7.593   2.731
69767SOL    HW211076   7.723   7.495   2.646
69768SOL     OW11077  10.515  12.087   7.330
69768SOL    HW111078  10.449  12.023   7.355
69768SOL    HW211079  10.491  12.112   7.240
69769SOL     OW11080   3.321   3.097  14.060
69769SOL    HW111081   3.311   3.003  14.073
69769SOL    HW211082   3.254   3.136  14.115
69770SOL     OW11083   3.736  14.479  14.147
69770SOL    HW111084   3.703  14.555  14.099
69770SOL    HW211085   3.696  14.484  14.233
69771SOL     OW11086  13.655   3.165  13.440
69771SOL    HW111087  13.663   3.235  13.375
69771SOL    HW211088  13.743   3.157  13.476
69772SOL     OW11089   0.823   4.638  11.794
69772SOL    HW111090   0.736   4.608  11.823
69772SOL    HW211091   0.881   4.563  11.811
69773SOL     OW11092   7.513  13.701   9.944
69773SOL    HW111093   7.474  13.623   9.985
69773SOL    HW211094   7.596  13.713   9.990
69774SOL     OW11095   9.014   1.319   4.232
69774SOL    HW111096   9.059   1.335   4.148
69774SOL    HW211097   9.010   1.405   4.273
69775SOL     OW11098  11.744   2.591   6.562
69775SOL    HW111099  11.770   2.544   6.483
69775SOL    HW211100  11.715   2.677   6.531
69776SOL     OW11101  12.235   9.748   4.223
69776SOL    HW111102  12.152   9.747   4.272
69776SOL    HW211103  12.208   9.760   4.132
69777SOL     OW11104   8.611   4.616   5.215
69777SOL    HW111105   8.572   4.545   5.267
69777SOL    HW211106   8.689   4.642   5.265
69778SOL     OW11107   4.461  10.069   0.760
69778SOL    HW111108   4.412   9.991   0.733
69778SOL    HW211109   4.547  10.036   0.784
69779SOL     OW11110  13.768   9.607   3.754
69779SOL    HW111111  13.738   9.518   3.770
69779SOL    HW211112  13.863   9.599   3.743
69780SOL     OW11113  11.291   3.312  11.140
69780SOL    HW111114  11.252   3.295  11.055
69780SOL    HW211115  11.225   3.362  11.188
69781SOL     OW11116   3.337   5.502   4.424
69781SOL    HW111117   3.266   5.500   4.488
69781SOL    HW211118   3.417   5.505   4.477
69782SOL     OW11119  13.511   4.876   1.319
69782SOL    HW111120  13.463   4.813   1.264
69782SOL    HW211121  13.523   4.831   1.402
69783SOL     OW11122   1.194   1.371  13.077
69783SOL    HW111123   1.251   1.295  13.063
69783SOL    HW211124   1.251   1.436  13.117
69784SOL     OW11125  11.094   4.407  10.704
69784SOL    HW111126  11.003   4.427  10.680
69784SOL    HW211127  11.133   4.492  10.723
69785SOL     OW11128   3.501   4.154   1.604
69785SOL    HW111129   3.513   4.215   1.532
69785SOL    HW211130   3.577   4.168   1.660
69786SOL     OW11131   1.926   9.324   0.161
69786SOL    HW111132   1.851   9.380   0.142
69786SOL    HW211133   1.986   9.339   0.088
69787SOL     OW11134   4.325   6.539  14.794
69787SOL    HW111135   4.250   6.591  14.824
69787SOL    HW211136   4.308   6.523  14.701
69788SOL     OW11137  12.473   7.981  12.278
69788SOL    HW111138  12.423   7.965  12.358
69788SOL    HW211139  12.560   8.008  12.308
69789SOL     OW11140   6.475  10.977   5.845
69789SOL    HW111141   6.403  11.037   5.824
69789SOL    HW211142   6.543  10.997   5.780
69790SOL     OW11143   9.215   6.660   2.879
69790SOL    HW111144   9.308   6.683   2.875
69790SOL    HW211145   9.182   6.679   2.791
69791SOL     OW11146  14.167  12.615  13.481
69791SOL    HW111147  14.223  12.690  13.461
69791SOL    HW211148  14.134  12.586  13.396
69792SOL     OW11149   4.430   8.946   4.210
69792SOL    HW111150   4.418   9.041   4.203
69792SOL    HW211151   4.348   8.909   4.178
69793SOL     OW11152   8.712   9.223   3.412
69793SOL    HW111153   8.670   9.305   3.386
69793SOL    HW211154   8.646   9.156   3.395
69794SOL     OW11155   4.833   4.543  14.492
69794SOL    HW111156   4.875   4.474  14.544
69794SOL    HW211157   4.812   4.501  14.409
69795SOL     OW11158   9.504  12.298  11.616
69795SOL    HW111159   9.444  12.364  11.649
69795SOL    HW211160   9.464  12.215  11.641
69796SOL     OW11161  13.065   2.308   6.423
69796SOL    HW111162  13.046   2.314   6.517
69796SOL    HW211163  13.149   2.352   6.413
69797SOL     OW11164   5.446  11.042   1.140
69797SOL    HW111165   5.419  10.961   1.182
69797SOL    HW211166   5.368  11.097   1.142
69798SOL     OW11167  12.667   3.321   7.729
69798SOL    HW111168  12.703   3.318   7.640
69798SOL    HW211169  12.659   3.229   7.754
69799SOL     OW11170   0.425   1.604  13.463
69799SOL    HW111171   0.432   1.624  13.369
69799SOL    HW211172   0.511   1.629  13.498
69800SOL     OW11173   9.413  11.854   4.954
69800SOL    HW111174   9.466  11.929   4.981
69800SOL    HW211175   9.427  11.847   4.860
69801SOL     OW11176   0.849  11.966  10.360
69801SOL    HW111177   0.923  12.026  10.356
69801SOL    HW211178   0.877  11.896  10.419
69802SOL     OW11179   4.088  14.594  14.786
69802SOL    HW111180   4.006  14.625  14.824
69802SOL    HW211181   4.104  14.653  14.712
69803SOL     OW11182   2.035   9.420  13.121
69803SOL    HW111183   2.118   9.380  13.148
69803SOL    HW211184   2.015   9.483  13.190
69804SOL     OW11185   9.964   8.687   3.615
69804SOL    HW111186   9.916   8.747   3.558
69804SOL    HW211187   9.930   8.600   3.593
69805SOL     OW11188  13.336   7.033  12.038
69805SOL    HW111189  13.392   7.037  12.115
69805SOL    HW211190  13.382   7.084  11.971
69806SOL     OW11191  12.558   1.414   4.273
69806SOL    HW111192  12.593   1.365   4.198
69806SOL    HW211193  12.623   1.482   4.290
69807SOL     OW11194   2.740   8.165  14.016
69807SOL    HW111195   2.744   8.240  14.076
69807SOL    HW211196   2.731   8.204  13.929
69808SOL     OW11197   9.058   7.567   3.181
69808SOL    HW111198   9.126   7.527   3.126
69808SOL    HW211199   9.064   7.520   3.264
69809SOL     OW11200   5.736   3.212  14.200
69809SOL    HW111201   5.742   3.305  14.220
69809SOL    HW211202   5.705   3.209  14.109
69810SOL     OW11203   2.013   2.062   9.501
69810SOL    HW111204   2.041   1.991   9.443
69810SOL    HW211205   2.074   2.133   9.483
69811SOL     OW11206  11.157   5.985   1.954
69811SOL    HW111207  11.177   5.958   2.043
69811SOL    HW211208  11.174   6.079   1.953
69812SOL     OW11209   1.114   2.090  14.174
69812SOL    HW111210   1.024   2.091  14.207
69812SOL    HW211211   1.106   2.056  14.085
69813SOL     OW11212   4.478   7.796   0.966
69813SOL    HW111213   4.384   7.781   0.978
69813SOL    HW211214   4.497   7.762   0.878
69814SOL     OW11215   4.889   6.573   4.899
69814SOL    HW111216   4.972   6.528   4.887
69814SOL    HW211217   4.906   6.637   4.969
69815SOL     OW11218   1.324   4.744   2.651
69815SOL    HW111219   1.231   4.765   2.653
69815SOL    HW211220   1.361   4.801   2.584
69816SOL     OW11221  11.667   4.382   4.151
69816SOL    HW111222  11.685   4.329   4.073
69816SOL    HW211223  11.720   4.461   4.140
69817SOL     OW11224  13.922  13.966   5.646
69817SOL    HW111225  13.957  13.891   5.599
69817SOL    HW211226  13.856  14.002   5.587
69818SOL     OW11227   7.849  14.448   5.820
69818SOL    HW111228   7.857  14.376   5.883
69818SOL    HW211229   7.784  14.506   5.859
69819SOL     OW11230  13.346  12.313   9.263
69819SOL    HW111231  13.425  12.267   9.233
69819SOL    HW211232  13.319  12.366   9.189
69820SOL     OW11233   4.971   6.865   5.032
69820SOL    HW111234   4.946   6.795   5.092
69820SOL    HW211235   5.040   6.912   5.077
69821SOL     OW11236   9.576   9.682   0.894
69821SOL    HW111237   9.486   9.654   0.878
69821SOL    HW211238   9.612   9.694   0.806
69822SOL     OW11239  13.678  12.310   6.368
69822SOL    HW111240  13.601  12.366   6.381
69822SOL    HW211241  13.642  12.229   6.330
69823SOL     OW11242  10.914   6.776   9.002
69823SOL    HW111243  10.942   6.780   9.094
69823SOL    HW211244  10.950   6.855   8.963
69824SOL     OW11245  10.610   8.797   8.955
69824SOL    HW111246  10.551   8.733   8.995
69824SOL    HW211247  10.600   8.782   8.861
69825SOL     OW11248  11.925  12.994  11.233
69825SOL    HW111249  11.862  12.922  11.221
69825SOL    HW211250  11.898  13.035  11.315
69826SOL     OW11251   2.379   3.025   0.583
69826SOL    HW111252   2.377   3.120   0.593
69826SOL    HW211253   2.448   2.996   0.641
69827SOL     OW11254   4.268   7.452   6.529
69827SOL    HW111255   4.263   7.403   6.447
69827SOL    HW211256   4.178   7.453   6.562
69828SOL     OW11257   0.648  10.909   9.789
69828SOL    HW111258   0.707  10.890   9.862
69828SOL    HW211259   0.561  10.890   9.823
69829SOL     OW11260   4.595   5.151   8.738
69829SOL    HW111261   4.594   5.150   8.643
69829SOL    HW211262   4.514   5.197   8.762
69830SOL     OW11263   6.344   6.757   1.416
69830SOL    HW111264   6.293   6.733   1.494
69830SOL    HW211265   6.424   6.705   1.423
69831SOL     OW11266  14.014   0.799   5.591
69831SOL    HW111267  14.021   0.722   5.535
69831SOL    HW211268  14.060   0.775   5.671
69832SOL     OW11269   3.565   0.369   8.618
69832SOL    HW111270   3.492   0.431   8.626
69832SOL    HW211271   3.635   0.421   8.578
69833SOL     OW11272  13.229  10.054  12.369
69833SOL    HW111273  13.173  10.040  12.445
69833SOL    HW211274  13.305   9.998  12.384
69834SOL     OW11275   3.356   2.690   7.108
69834SOL    HW111276   3.326   2.601   7.130
69834SOL    HW211277   3.434   2.676   7.055
69835SOL     OW11278   5.816  12.475   9.659
69835SOL    HW111279   5.854  12.481   9.571
69835SOL    HW211280   5.892  12.478   9.717
69836SOL     OW11281   6.324   7.586   2.498
69836SOL    HW111282   6.419   7.576   2.510
69836SOL    HW211283   6.286   7.551   2.579
69837SOL     OW11284  13.905   3.650   0.463
69837SOL    HW111285  13.850   3.610   0.395
69837SOL    HW211286  13.842   3.687   0.526
69838SOL     OW11287   7.071  11.987  14.189
69838SOL    HW111288   6.984  12.028  14.184
69838SOL    HW211289   7.053  11.897  14.217
69839SOL     OW11290   2.064   8.887   4.027
69839SOL    HW111291   2.100   8.900   3.939
69839SOL    HW211292   1.971   8.868   4.012
69840SOL     OW11293   8.998  11.970   7.569
69840SOL    HW111294   9.051  12.032   7.619
69840SOL    HW211295   8.937  11.934   7.633
69841SOL     OW11296   1.640   7.781  11.893
69841SOL    HW111297   1.661   7.789  11.986
69841SOL    HW211298   1.564   7.838  11.881
69842SOL     OW11299   6.963   6.743   2.494
69842SOL    HW111300   6.920   6.798   2.429
69842SOL    HW211301   7.050   6.727   2.459
69843SOL     OW11302   2.767   1.173   3.876
69843SOL    HW111303   2.715   1.121   3.937
69843SOL    HW211304   2.792   1.251   3.926
69844SOL     OW11305   1.042   7.953   2.704
69844SOL    HW111306   1.088   8.005   2.638
69844SOL    HW211307   0.995   8.017   2.757
69845SOL     OW11308   0.484  12.169   1.056
69845SOL    HW111309   0.463  12.251   1.012
69845SOL    HW211310   0.577  12.175   1.078
69846SOL     OW11311  12.343   6.078   6.670
69846SOL    HW111312  12.306   5.990   6.668
69846SOL    HW211313  12.370   6.095   6.580
69847SOL     OW11314   9.371  13.818  11.703
69847SOL    HW111315   9.352  13.739  11.752
69847SOL    HW211316   9.294  13.873  11.715
69848SOL     OW11317   2.603   8.354  11.526
69848SOL    HW111318   2.566   8.266  11.517
69848SOL    HW211319   2.604   8.370  11.620
69849SOL     OW11320  11.413   3.868  10.397
69849SOL    HW111321  11.333   3.843  10.351
69849SOL    HW211322  11.402   3.961  10.417
69850SOL     OW11323  11.826   8.189   4.713
69850SOL    HW111324  11.733   8.175   4.731
69850SOL    HW211325  11.865   8.101   4.716
69851SOL     OW11326  14.366   0.394  12.613
69851SOL    HW111327  14.317   0.340  12.675
69851SOL    HW211328  14.333   0.367  12.527
69852SOL     OW11329  12.070   9.493   6.678
69852SOL    HW111330  12.149   9.443   6.694
69852SOL    HW211331  12.001   9.427   6.668
69853SOL     OW11332  10.140   8.641   1.895
69853SOL    HW111333  10.132   8.698   1.818
69853SOL    HW211334  10.229   8.607   1.891
69854SOL     OW11335  13.661   5.478   0.049
69854SOL    HW111336  13.565   5.468   0.048
69854SOL    HW211337  13.677   5.543   0.117
69855SOL     OW11338  10.107   8.608  14.381
69855SOL    HW111339  10.077   8.665  14.452
69855SOL    HW211340  10.163   8.543  14.423
69856SOL     OW11341   1.498  14.077   3.106
69856SOL    HW111342   1.568  14.110   3.161
69856SOL    HW211343   1.539  14.010   3.052
69857SOL     OW11344  11.324   9.017  12.153
69857SOL    HW111345  11.354   8.936  12.193
69857SOL    HW211346  11.390   9.082  12.179
69858SOL     OW11347  11.817   4.745  11.047
69858SOL    HW111348  11.754   4.791  10.991
69858SOL    HW211349  11.875   4.814  11.080
69859SOL     OW11350   5.837  10.220   2.062
69859SOL    HW111351   5.784  10.225   1.983
69859SOL    HW211352   5.841  10.127   2.083
69860SOL     OW11353  10.997  10.553   8.291
69860SOL    HW111354  10.979  10.479   8.232
69860SOL    HW211355  11.076  10.593   8.255
69861SOL     OW11356  10.123   0.761   4.614
69861SOL    HW111357  10.146   0.849   4.584
69861SOL    HW211358  10.169   0.703   4.553
69862SOL     OW11359   1.787  10.068   6.653
69862SOL    HW111360   1.748  10.069   6.566
69862SOL    HW211361   1.881  10.075   6.638
69863SOL     OW11362   4.302   0.665  13.052
69863SOL    HW111363   4.378   0.612  13.073
69863SOL    HW211364   4.270   0.630  12.968
69864SOL     OW11365  14.869   8.149   5.494
69864SOL    HW111366   0.020   8.190   5.414
69864SOL    HW211367   0.064   8.109   5.535
69865SOL     OW11368  12.095   6.819   7.273
69865SOL    HW111369  12.052   6.780   7.197
69865SOL    HW211370  12.150   6.749   7.308
69866SOL     OW11371   8.403   8.228   0.042
69866SOL    HW111372   8.477   8.170   0.021
69866SOL    HW211373   8.394   8.221   0.137
69867SOL     OW11374   5.020   8.840   9.558
69867SOL    HW111375   5.088   8.773   9.559
69867SOL    HW211376   5.019   8.873   9.469
69868SOL     OW11377   8.068   7.735  12.173
69868SOL    HW111378   7.982   7.757  12.208
69868SOL    HW211379   8.124   7.725  12.250
69869SOL     OW11380   4.203  10.865  13.396
69869SOL    HW111381   4.125  10.819  13.363
69869SOL    HW211382   4.270  10.847  13.330
69870SOL     OW11383   3.995   6.617   9.248
69870SOL    HW111384   4.054   6.620   9.323
69870SOL    HW211385   4.009   6.700   9.203
69871SOL     OW11386   8.889   8.000  14.052
69871SOL    HW111387   8.794   7.991  14.064
69871SOL    HW211388   8.920   8.036  14.134
69872SOL     OW11389   2.209  13.785   1.145
69872SOL    HW111390   2.273  13.788   1.074
69872SOL    HW211391   2.252  13.735   1.214
69873SOL     OW11392  12.135  13.182   1.487
69873SOL    HW111393  12.056  13.212   1.444
69873SOL    HW211394  12.104  13.125   1.558
69874SOL     OW11395   7.631   0.904   1.468
69874SOL    HW111396   7.636   0.849   1.547
69874SOL    HW211397   7.622   0.842   1.396
69875SOL     OW11398   9.671   1.951   3.095
69875SOL    HW111399   9.724   2.030   3.107
69875SOL    HW211400   9.718   1.900   3.029
69876SOL     OW11401   1.608  13.179  13.584
69876SOL    HW111402   1.606  13.104  13.524
69876SOL    HW211403   1.700  13.183  13.613
69877SOL     OW11404   5.218   8.635   9.574
69877SOL    HW111405   5.195   8.545   9.597
69877SOL    HW211406   5.278   8.663   9.643
69878SOL     OW11407   9.840  13.477   2.881
69878SOL    HW111408   9.825  13.386   2.910
69878SOL    HW211409   9.822  13.475   2.787
69879SOL     OW11410   1.657  10.515   9.977
69879SOL    HW111411   1.622  10.480  10.059
69879SOL    HW211412   1.734  10.566  10.002
69880SOL     OW11413   8.691   7.925   4.831
69880SOL    HW111414   8.762   7.935   4.895
69880SOL    HW211415   8.707   7.994   4.767
69881SOL     OW11416  13.949  13.700   1.699
69881SOL    HW111417  14.030  13.746   1.677
69881SOL    HW211418  13.883  13.769   1.706
69882SOL     OW11419  14.712  14.494   8.661
69882SOL    HW111420  14.725  14.577   8.706
69882SOL    HW211421  14.794  14.478   8.615
69883SOL     OW11422   0.021   1.512  13.602
69883SOL    HW111423  14.821   1.530  13.554
69883SOL    HW211424   0.073   1.592  13.591
69884SOL     OW11425   8.215   3.197   7.088
69884SOL    HW111426   8.174   3.263   7.031
69884SOL    HW211427   8.153   3.124   7.089
69885SOL     OW11428   0.476   7.774   9.526
69885SOL    HW111429   0.401   7.806   9.577
69885SOL    HW211430   0.543   7.755   9.591
69886SOL     OW11431  13.118   9.158  10.903
69886SOL    HW111432  13.069   9.233  10.936
69886SOL    HW211433  13.204   9.165  10.945
69887SOL     OW11434  14.871  12.101   0.589
69887SOL    HW111435  14.795  12.159   0.585
69887SOL    HW211436  14.879  12.079   0.682
69888SOL     OW11437   3.074   2.385   3.517
69888SOL    HW111438   3.149   2.412   3.571
69888SOL    HW211439   3.031   2.316   3.568
69889SOL     OW11440  11.644  12.453  12.451
69889SOL    HW111441  11.704  12.505  12.397
69889SOL    HW211442  11.671  12.362  12.436
69890SOL     OW11443  13.196  14.532   2.517
69890SOL    HW111444  13.143  14.457   2.491
69890SOL    HW211445  13.151  14.569   2.593
69891SOL     OW11446   6.199  13.828  10.676
69891SOL    HW111447   6.283  13.792  10.649
69891SOL    HW211448   6.220  13.914  10.712
69892SOL     OW11449   9.878   7.360  12.861
69892SOL    HW111450   9.939   7.433  12.850
69892SOL    HW211451   9.911   7.292  12.803
69893SOL     OW11452  12.657  13.196  13.306
69893SOL    HW111453  12.686  13.227  13.221
69893SOL    HW211454  12.630  13.106  13.291
69894SOL     OW11455   9.690  13.119  12.719
69894SOL    HW111456   9.752  13.052  12.690
69894SOL    HW211457   9.732  13.161  12.794
69895SOL     OW11458   6.265   7.993   3.346
69895SOL    HW111459   6.345   8.011   3.298
69895SOL    HW211460   6.211   8.071   3.333
69896SOL     OW11461  13.770   5.783   4.064
69896SOL    HW111462  13.725   5.854   4.110
69896SOL    HW211463  13.829   5.828   4.003
69897SOL     OW11464  14.464   3.687   0.490
69897SOL    HW111465  14.534   3.678   0.425
69897SOL    HW211466  14.504   3.658   0.572
69898SOL     OW11467  13.089   9.618  13.574
69898SOL    HW111468  13.161   9.557  13.591
69898SOL    HW211469  13.133   9.701  13.554
69899SOL     OW11470   2.836  11.446   7.620
69899SOL    HW111471   2.926  11.424   7.598
69899SOL    HW211472   2.801  11.367   7.660
69900SOL     OW11473   8.126   1.976   7.473
69900SOL    HW111474   8.151   1.931   7.553
69900SOL    HW211475   8.055   1.923   7.437
69901SOL     OW11476  12.574   1.077  14.394
69901SOL    HW111477  12.492   1.126  14.404
69901SOL    HW211478  12.547   0.985  14.396
69902SOL     OW11479   8.523   8.156  12.330
69902SOL    HW111480   8.486   8.094  12.267
69902SOL    HW211481   8.489   8.127  12.414
69903SOL     OW11482   9.924  11.487  14.387
69903SOL    HW111483   9.914  11.536  14.306
69903SOL    HW211484   9.855  11.522  14.444
69904SOL     OW11485   4.475  13.482   0.709
69904SOL    HW111486   4.474  13.460   0.616
69904SOL    HW211487   4.386  13.513   0.726
69905SOL     OW11488   4.218  14.320   2.169
69905SOL    HW111489   4.244  14.232   2.143
69905SOL    HW211490   4.185  14.360   2.089
69906SOL     OW11491  12.101   6.774   0.456
69906SOL    HW111492  12.005   6.771   0.450
69906SOL    HW211493  12.131   6.746   0.370
69907SOL     OW11494  11.888  11.546   7.731
69907SOL    HW111495  11.946  11.623   7.734
69907SOL    HW211496  11.847  11.544   7.817
69908SOL     OW11497  14.426   4.399   4.360
69908SOL    HW111498  14.455   4.309   4.345
69908SOL    HW211499  14.499   4.453   4.331
69909SOL     OW11500  14.657  14.546   1.759
69909SOL    HW111501  14.605  14.604   1.703
69909SOL    HW211502  14.744  14.548   1.721
69910SOL     OW11503   1.698   5.164  11.728
69910SOL    HW111504   1.606   5.136  11.729
69910SOL    HW211505   1.748   5.082  11.724
69911SOL     OW11506  12.867   8.653  14.221
69911SOL    HW111507  12.779   8.625  14.245
69911SOL    HW211508  12.865   8.748  14.226
69912SOL     OW11509   6.629   7.415  10.027
69912SOL    HW111510   6.545   7.435  10.068
69912SOL    HW211511   6.691   7.416  10.100
69913SOL     OW11512   6.412   6.461   1.022
69913SOL    HW111513   6.419   6.553   0.997
69913SOL    HW211514   6.386   6.464   1.114
69914SOL     OW11515  14.260   9.623  10.846
69914SOL    HW111516  14.275   9.529  10.838
69914SOL    HW211517  14.348   9.661  10.851
69915SOL     OW11518   9.825   6.654  13.225
69915SOL    HW111519   9.787   6.740  13.207
69915SOL    HW211520   9.771   6.617  13.294
69916SOL     OW11521   1.616   8.544   8.508
69916SOL    HW111522   1.644   8.582   8.591
69916SOL    HW211523   1.521   8.535   8.515
69917SOL     OW11524   9.489   4.664  14.467
69917SOL    HW111525   9.514   4.588  14.415
69917SOL    HW211526   9.422   4.631  14.528
69918SOL     OW11527  11.165   3.239  12.464
69918SOL    HW111528  11.084   3.206  12.502
69918SOL    HW211529  11.137   3.295  12.392
69919SOL     OW11530   5.854   4.583   2.023
69919SOL    HW111531   5.911   4.597   2.099
69919SOL    HW211532   5.891   4.638   1.955
69920SOL     OW11533   5.482  13.564   7.015
69920SOL    HW111534   5.503  13.631   7.080
69920SOL    HW211535   5.554  13.566   6.953
69921SOL     OW11536   0.254   1.934   6.837
69921SOL    HW111537   0.178   1.989   6.855
69921SOL    HW211538   0.245   1.860   6.897
69922SOL     OW11539   4.680   1.489  11.411
69922SOL    HW111540   4.726   1.552  11.466
69922SOL    HW211541   4.746   1.456  11.351
69923SOL     OW11542   9.650   8.253  11.885
69923SOL    HW111543   9.712   8.326  11.882
69923SOL    HW211544   9.705   8.177  11.905
69924SOL     OW11545   3.786   1.939   9.527
69924SOL    HW111546   3.785   2.034   9.540
69924SOL    HW211547   3.871   1.911   9.561
69925SOL     OW11548   4.820   8.594  12.799
69925SOL    HW111549   4.847   8.620  12.711
69925SOL    HW211550   4.899   8.556  12.838
69926SOL     OW11551   6.512  10.681   1.258
69926SOL    HW111552   6.492  10.660   1.349
69926SOL    HW211553   6.607  10.671   1.251
69927SOL     OW11554   7.143  12.012  11.077
69927SOL    HW111555   7.086  12.023  11.154
69927SOL    HW211556   7.097  12.058  11.007
69928SOL     OW11557  12.090  11.096  10.488
69928SOL    HW111558  12.041  11.100  10.570
69928SOL    HW211559  12.049  11.161  10.432
69929SOL     OW11560   7.435   5.105   0.684
69929SOL    HW111561   7.365   5.135   0.742
69929SOL    HW211562   7.516   5.119   0.733
69930SOL     OW11563   4.172   6.756   3.868
69930SOL    HW111564   4.164   6.666   3.901
69930SOL    HW211565   4.130   6.810   3.934
69931SOL     OW11566   7.434  11.245   0.277
69931SOL    HW111567   7.476  11.330   0.283
69931SOL    HW211568   7.491  11.186   0.327
69932SOL     OW11569   0.206  14.774   4.321
69932SOL    HW111570   0.138  14.838   4.300
69932SOL    HW211571   0.206  14.714   4.246
69933SOL     OW11572  13.119   8.551   8.062
69933SOL    HW111573  13.079   8.564   7.976
69933SOL    HW211574  13.198   8.605   8.060
69934SOL     OW11575   4.969   8.312  11.456
69934SOL    HW111576   4.888   8.353  11.428
69934SOL    HW211577   5.000   8.367  11.529
69935SOL     OW11578   7.184   1.066   5.090
69935SOL    HW111579   7.136   1.138   5.132
69935SOL    HW211580   7.230   1.022   5.161
69936SOL     OW11581   0.456  11.391   4.413
69936SOL    HW111582   0.446  11.484   4.397
69936SOL    HW211583   0.366  11.357   4.416
69937SOL     OW11584   3.372   6.423  10.090
69937SOL    HW111585   3.280   6.400  10.082
69937SOL    HW211586   3.403   6.427   9.999
69938SOL     OW11587  11.243  11.151   6.380
69938SOL    HW111588  11.234  11.126   6.288
69938SOL    HW211589  11.310  11.092   6.415
69939SOL     OW11590  10.190  10.758   8.266
69939SOL    HW111591  10.155  10.702   8.196
69939SOL    HW211592  10.123  10.826   8.277
69940SOL     OW11593  11.052   3.385   0.683
69940SOL    HW111594  11.126   3.443   0.665
69940SOL    HW211595  10.977   3.445   0.691
69941SOL     OW11596   0.648  12.578   4.770
69941SOL    HW111597   0.690  12.547   4.690
69941SOL    HW211598   0.716  12.570   4.837
69942SOL     OW11599   7.030  12.191   5.690
69942SOL    HW111600   7.029  12.102   5.654
69942SOL    HW211601   6.938  12.215   5.696
69943SOL     OW11602  12.448  14.223  12.748
69943SOL    HW111603  12.383  14.153  12.759
69943SOL    HW211604  12.417  14.272  12.672
69944SOL     OW11605  11.687   0.503   4.827
69944SOL    HW111606  11.612   0.447   4.808
69944SOL    HW211607  11.712   0.481   4.917
69945SOL     OW11608   0.582  11.215   6.733
69945SOL    HW111609   0.642  11.257   6.794
69945SOL    HW211610   0.529  11.157   6.787
69946SOL     OW11611  10.344   3.364   4.832
69946SOL    HW111612  10.352   3.459   4.825
69946SOL    HW211613  10.331   3.348   4.925
69947SOL     OW11614  13.964   7.152   2.799
69947SOL    HW111615  13.919   7.068   2.801
69947SOL    HW211616  13.995   7.160   2.709
69948SOL     OW11617   8.003   1.972   5.671
69948SOL    HW111618   8.052   1.907   5.620
69948SOL    HW211619   7.960   2.026   5.605
69949SOL     OW11620   5.872   1.860   1.259
69949SOL    HW111621   5.912   1.867   1.346
69949SOL    HW211622   5.938   1.897   1.200
69950SOL     OW11623   7.208  11.864   4.912
69950SOL    HW111624   7.181  11.773   4.899
69950SOL    HW211625   7.227  11.896   4.825
69951SOL     OW11626   2.323   8.627   4.394
69951SOL    HW111627   2.363   8.651   4.478
69951SOL    HW211628   2.326   8.532   4.391
69952SOL     OW11629  14.161  10.032   5.123
69952SOL    HW111630  14.092   9.969   5.100
69952SOL    HW211631  14.229   9.979   5.164
69953SOL     OW11632   1.547   1.498   4.850
69953SOL    HW111633   1.471   1.444   4.828
69953SOL    HW211634   1.520   1.587   4.827
69954SOL     OW11635   8.454  12.429  14.546
69954SOL    HW111636   8.455  12.520  14.578
69954SOL    HW211637   8.546  12.405  14.540
69955SOL     OW11638  14.504   3.175   1.255
69955SOL    HW111639  14.471   3.103   1.309
69955SOL    HW211640  14.561   3.132   1.191
69956SOL     OW11641   8.877   5.030   4.970
69956SOL    HW111642   8.947   5.094   4.983
69956SOL    HW211643   8.922   4.952   4.937
69957SOL     OW11644   7.686  10.685   9.330
69957SOL    HW111645   7.781  10.686   9.313
69957SOL    HW211646   7.676  10.623   9.402
69958SOL     OW11647  13.721   0.246  12.699
69958SOL    HW111648  13.700   0.218  12.788
69958SOL    HW211649  13.694   0.172  12.644
69959SOL     OW11650  13.849   8.966  13.915
69959SOL    HW111651  13.894   8.883  13.925
69959SOL    HW211652  13.910   9.021  13.865
69960SOL     OW11653   3.417  10.893   2.219
69960SOL    HW111654   3.415  10.948   2.297
69960SOL    HW211655   3.333  10.847   2.219
69961SOL     OW11656  11.213   2.746   4.246
69961SOL    HW111657  11.119   2.760   4.237
69961SOL    HW211658  11.236   2.789   4.328
69962SOL     OW11659  12.565   2.278   5.061
69962SOL    HW111660  12.533   2.307   4.975
69962SOL    HW211661  12.497   2.303   5.122
69963SOL     OW11662   9.224   8.881  10.362
69963SOL    HW111663   9.288   8.914  10.425
69963SOL    HW211664   9.187   8.959  10.321
69964SOL     OW11665   7.931  11.009  10.434
69964SOL    HW111666   7.843  10.988  10.463
69964SOL    HW211667   7.950  11.094  10.474
69965SOL     OW11668  10.686   6.223   2.949
69965SOL    HW111669  10.658   6.155   2.887
69965SOL    HW211670  10.702   6.175   3.030
69966SOL     OW11671   6.118   3.168  13.805
69966SOL    HW111672   6.179   3.119  13.859
69966SOL    HW211673   6.032   3.152  13.844
69967SOL     OW11674   8.092  12.075   3.169
69967SOL    HW111675   8.001  12.092   3.145
69967SOL    HW211676   8.101  12.113   3.256
69968SOL     OW11677  14.275  13.280  11.552
69968SOL    HW111678  14.287  13.375  11.542
69968SOL    HW211679  14.229  13.271  11.636
69969SOL     OW11680   6.450  10.836   2.193
69969SOL    HW111681   6.429  10.760   2.248
69969SOL    HW211682   6.527  10.875   2.235
69970SOL     OW11683   9.157   8.656  12.237
69970SOL    HW111684   9.101   8.595  12.284
69970SOL    HW211685   9.243   8.648  12.279
69971SOL     OW11686   4.576  12.942   3.674
69971SOL    HW111687   4.514  12.901   3.735
69971SOL    HW211688   4.522  13.001   3.621
69972SOL     OW11689  12.158   6.793  11.419
69972SOL    HW111690  12.070   6.757  11.419
69972SOL    HW211691  12.167   6.837  11.334
69973SOL     OW11692   1.078  13.928   3.419
69973SOL    HW111693   1.058  14.020   3.438
69973SOL    HW211694   1.162  13.931   3.373
69974SOL     OW11695  11.891   1.168   9.497
69974SOL    HW111696  11.944   1.089   9.500
69974SOL    HW211697  11.804   1.140   9.525
69975SOL     OW11698   2.011   4.755   6.631
69975SOL    HW111699   2.001   4.772   6.724
69975SOL    HW211700   1.921   4.756   6.596
69976SOL     OW11701  12.782   5.515   0.217
69976SOL    HW111702  12.802   5.423   0.236
69976SOL    HW211703  12.688   5.517   0.203
69977SOL     OW11704   9.957   3.115   4.915
69977SOL    HW111705   9.930   3.028   4.886
69977SOL    HW211706   9.898   3.175   4.870
69978SOL     OW11707  12.720  12.588  10.078
69978SOL    HW111708  12.746  12.673  10.043
69978SOL    HW211709  12.671  12.609  10.158
69979SOL     OW11710  10.662   9.288   9.741
69979SOL    HW111711  10.604   9.364   9.735
69979SOL    HW211712  10.748   9.325   9.758
69980SOL     OW11713   9.175   4.651   3.628
69980SOL    HW111714   9.182   4.695   3.713
69980SOL    HW211715   9.170   4.722   3.565
69981SOL     OW11716  11.998   3.996   9.631
69981SOL    HW111717  11.998   3.932   9.702
69981SOL    HW211718  11.907   4.025   9.624
69982SOL     OW11719   5.774   8.104   3.671
69982SOL    HW111720   5.744   8.015   3.687
69982SOL    HW211721   5.695   8.158   3.681
69983SOL     OW11722   8.546   6.285   6.094
69983SOL    HW111723   8.474   6.253   6.148
69983SOL    HW211724   8.503   6.319   6.015
69984SOL     OW11725  10.311   6.997  10.865
69984SOL    HW111726  10.360   6.989  10.784
69984SOL    HW211727  10.328   6.915  10.911
69985SOL     OW11728  14.823   0.695   4.670
69985SOL    HW111729  14.846   0.768   4.612
69985SOL    HW211730  14.752   0.730   4.725
69986SOL     OW11731  14.846   0.100   6.581
69986SOL    HW111732  14.824   0.008   6.567
69986SOL    HW211733   0.060   0.101   6.591
69987SOL     OW11734   8.830   8.059   0.322
69987SOL    HW111735   8.900   8.017   0.274
69987SOL    HW211736   8.838   8.152   0.301
69988SOL     OW11737   5.929   1.147  14.665
69988SOL    HW111738   6.009   1.106  14.696
69988SOL    HW211739   5.914   1.111  14.578
69989SOL     OW11740   3.508   5.276   7.825
69989SOL    HW111741   3.463   5.356   7.851
69989SOL    HW211742   3.439   5.217   7.795
69990SOL     OW11743   3.504   1.698   2.700
69990SOL    HW111744   3.457   1.710   2.617
69990SOL    HW211745   3.435   1.705   2.767
69991SOL     OW11746   5.046  12.235   2.238
69991SOL    HW111747   5.026  12.179   2.163
69991SOL    HW211748   5.078  12.317   2.199
69992SOL     OW11749  14.396   1.607   3.836
69992SOL    HW111750  14.316   1.655   3.813
69992SOL    HW211751  14.368   1.516   3.842
69993SOL     OW11752  11.861  10.702   6.675
69993SOL    HW111753  11.844  10.712   6.581
69993SOL    HW211754  11.944  10.747   6.689
69994SOL     OW11755   0.947  14.485  13.108
69994SOL    HW111756   1.009  14.426  13.064
69994SOL    HW211757   0.922  14.548  13.041
69995SOL     OW11758   8.037   7.548  10.390
69995SOL    HW111759   8.055   7.456  10.409
69995SOL    HW211760   7.976   7.547  10.317
69996SOL     OW11761   9.692   6.876  13.138
69996SOL    HW111762   9.738   6.942  13.087
69996SOL    HW211763   9.632   6.835  13.075
69997SOL     OW11764   0.865   6.765   7.329
69997SOL    HW111765   0.876   6.852   7.366
69997SOL    HW211766   0.899   6.772   7.240
69998SOL     OW11767   2.601   0.158  12.421
69998SOL    HW111768   2.610   0.245  12.383
69998SOL    HW211769   2.641   0.166  12.508
69999SOL     OW11770   8.816  11.504  11.407
69999SOL    HW111771   8.735  11.550  11.431
69999SOL    HW211772   8.817  11.505  11.311
70000SOL     OW11773   8.880   3.479   4.300
70000SOL    HW111774   8.868   3.573   4.287
70000SOL    HW211775   8.930   3.472   4.382
70001SOL     OW11776   4.816  14.554   2.320
70001SOL    HW111777   4.803  14.638   2.366
70001SOL    HW211778   4.898  14.566   2.272
70002SOL     OW11779   4.694  11.998  13.586
70002SOL    HW111780   4.689  11.960  13.674
70002SOL    HW211781   4.726  11.926  13.531
70003SOL     OW11782   7.327   1.457  14.208
70003SOL    HW111783   7.262   1.521  14.178
70003SOL    HW211784   7.400   1.510  14.239
70004SOL     OW11785   4.929   1.340   7.614
70004SOL    HW111786   4.898   1.259   7.656
70004SOL    HW211787   5.024   1.333   7.618
70005SOL     OW11788   8.301  10.031   9.712
70005SOL    HW111789   8.259   9.996   9.633
70005SOL    HW211790   8.271   9.974   9.782
70006SOL     OW11791   7.420   5.823   8.891
70006SOL    HW111792   7.365   5.901   8.897
70006SOL    HW211793   7.386   5.765   8.959
70007SOL     OW11794   5.554   0.434   2.582
70007SOL    HW111795   5.464   0.466   2.574
70007SOL    HW211796   5.548   0.341   2.557
70008SOL     OW11797  10.402   7.738  14.198
70008SOL    HW111798  10.349   7.790  14.258
70008SOL    HW211799  10.428   7.661  14.248
70009SOL     OW11800  14.311   1.698   0.709
70009SOL    HW111801  14.296   1.691   0.615
70009SOL    HW211802  14.404   1.721   0.716
70010SOL     OW11803  12.692   8.891   7.050
70010SOL    HW111804  12.759   8.957   7.069
70010SOL    HW211805  12.732   8.808   7.079
70011SOL     OW11806   6.873  14.639  10.869
70011SOL    HW111807   6.847  14.675  10.953
70011SOL    HW211808   6.969  14.635  10.873
70012SOL     OW11809   8.924  12.754   3.485
70012SOL    HW111810   8.952  12.769   3.575
70012SOL    HW211811   8.857  12.821   3.469
70013SOL     OW11812   7.169  10.421   4.125
70013SOL    HW111813   7.101  10.431   4.191
70013SOL    HW211814   7.185  10.510   4.094
70014SOL     OW11815   7.035   7.802   7.373
70014SOL    HW111816   7.027   7.849   7.290
70014SOL    HW211817   6.952   7.755   7.381
70015SOL     OW11818   6.524   5.349   5.527
70015SOL    HW111819   6.606   5.366   5.574
70015SOL    HW211820   6.456   5.360   5.593
70016SOL     OW11821   0.404   7.888   0.358
70016SOL    HW111822   0.446   7.887   0.272
70016SOL    HW211823   0.396   7.795   0.381
70017SOL     OW11824   6.609   9.948   9.761
70017SOL    HW111825   6.687   9.913   9.718
70017SOL    HW211826   6.575   9.874   9.812
70018SOL     OW11827  12.504  11.567   4.836
70018SOL    HW111828  12.581  11.622   4.851
70018SOL    HW211829  12.431  11.618   4.871
70019SOL     OW11830  10.185   2.150   6.048
70019SOL    HW111831  10.150   2.218   5.991
70019SOL    HW211832  10.276   2.139   6.020
70020SOL     OW11833   8.427   1.073   4.881
70020SOL    HW111834   8.342   1.031   4.865
70020SOL    HW211835   8.489   1.001   4.890
70021SOL     OW11836   2.442   4.842   6.491
70021SOL    HW111837   2.484   4.758   6.507
70021SOL    HW211838   2.474   4.868   6.404
70022SOL     OW11839   2.751  11.361  11.255
70022SOL    HW111840   2.841  11.333  11.269
70022SOL    HW211841   2.710  11.288  11.210
70023SOL     OW11842   0.502   3.793   5.012
70023SOL    HW111843   0.515   3.809   4.919
70023SOL    HW211844   0.590   3.776   5.046
70024SOL     OW11845   3.895  11.463  10.611
70024SOL    HW111846   3.929  11.529  10.670
70024SOL    HW211847   3.839  11.511  10.550
70025SOL     OW11848  11.599   2.291  10.520
70025SOL    HW111849  11.677   2.261  10.567
70025SOL    HW211850  11.527   2.279  10.582
70026SOL     OW11851   6.348   0.095  10.115
70026SOL    HW111852   6.385   0.182  10.128
70026SOL    HW211853   6.386   0.042  10.185
70027SOL     OW11854   1.982   4.938  13.739
70027SOL    HW111855   2.051   4.884  13.778
70027SOL    HW211856   2.013   5.028  13.751
70028SOL     OW11857   3.353   6.651   3.829
70028SOL    HW111858   3.348   6.666   3.923
70028SOL    HW211859   3.369   6.557   3.820
70029SOL     OW11860   8.450   9.346  11.487
70029SOL    HW111861   8.427   9.402  11.413
70029SOL    HW211862   8.371   9.343  11.541
70030SOL     OW11863   8.405   0.144   0.283
70030SOL    HW111864   8.406   0.177   0.372
70030SOL    HW211865   8.354   0.063   0.288
70031SOL     OW11866  12.653   6.492   0.528
70031SOL    HW111867  12.605   6.432   0.472
70031SOL    HW211868  12.610   6.576   0.517
70032SOL     OW11869   8.791   1.415  10.238
70032SOL    HW111870   8.833   1.407  10.324
70032SOL    HW211871   8.862   1.442  10.179
70033SOL     OW11872   4.130  10.007  10.776
70033SOL    HW111873   4.143  10.098  10.750
70033SOL    HW211874   4.039   9.988  10.752
70034SOL     OW11875   0.376   6.166   4.242
70034SOL    HW111876   0.402   6.235   4.303
70034SOL    HW211877   0.448   6.103   4.246
70035SOL     OW11878   9.222   4.278   6.732
70035SOL    HW111879   9.200   4.217   6.802
70035SOL    HW211880   9.309   4.312   6.756
70036SOL     OW11881   7.067   2.110   1.049
70036SOL    HW111882   6.979   2.147   1.046
70036SOL    HW211883   7.068   2.057   1.128
70037SOL     OW11884   8.302   1.849  13.413
70037SOL    HW111885   8.216   1.845  13.455
70037SOL    HW211886   8.286   1.822  13.323
70038SOL     OW11887   9.749   4.162  11.446
70038SOL    HW111888   9.828   4.170  11.393
70038SOL    HW211889   9.746   4.069  11.471
70039SOL     OW11890   4.879   8.431  13.734
70039SOL    HW111891   4.950   8.490  13.707
70039SOL    HW211892   4.834   8.408  13.652
70040SOL     OW11893  12.446  10.682   9.579
70040SOL    HW111894  12.438  10.651   9.669
70040SOL    HW211895  12.499  10.615   9.535
70041SOL     OW11896   6.136   0.884  12.974
70041SOL    HW111897   6.164   0.963  12.928
70041SOL    HW211898   6.066   0.914  13.032
70042SOL     OW11899   0.632  11.258   5.382
70042SOL    HW111900   0.596  11.186   5.329
70042SOL    HW211901   0.725  11.236   5.391
70043SOL     OW11902   4.491   7.317   0.874
70043SOL    HW111903   4.486   7.293   0.967
70043SOL    HW211904   4.400   7.333   0.849
70044SOL     OW11905   9.003  12.117   1.734
70044SOL    HW111906   9.029  12.125   1.826
70044SOL    HW211907   8.915  12.078   1.737
70045SOL     OW11908   4.961   9.670   5.696
70045SOL    HW111909   4.996   9.755   5.669
70045SOL    HW211910   5.024   9.606   5.664
70046SOL     OW11911   4.553   2.325   7.922
70046SOL    HW111912   4.581   2.342   7.832
70046SOL    HW211913   4.489   2.393   7.941
70047SOL     OW11914  11.720  13.023   3.893
70047SOL    HW111915  11.721  13.059   3.982
70047SOL    HW211916  11.691  12.932   3.905
70048SOL     OW11917  11.022   4.931  13.377
70048SOL    HW111918  11.034   4.959  13.467
70048SOL    HW211919  10.955   4.863  13.382
70049SOL     OW11920   3.827  12.437  10.008
70049SOL    HW111921   3.771  12.474   9.939
70049SOL    HW211922   3.793  12.349  10.021
70050SOL     OW11923   9.541   7.329   6.323
70050SOL    HW111924   9.545   7.262   6.391
70050SOL    HW211925   9.579   7.407   6.365
70051SOL     OW11926  12.960   5.458  10.527
70051SOL    HW111927  13.007   5.379  10.554
70051SOL    HW211928  12.871   5.445  10.559
70052SOL     OW11929   1.941  13.383  12.940
70052SOL    HW111930   1.926  13.435  12.861
70052SOL    HW211931   2.035  13.390  12.956
70053SOL     OW11932   8.623   7.603   6.019
70053SOL    HW111933   8.657   7.544   5.952
70053SOL    HW211934   8.676   7.585   6.096
70054SOL     OW11935  14.717  14.592  14.343
70054SOL    HW111936  14.699  14.615  14.252
70054SOL    HW211937  14.769  14.665  14.377
70055SOL     OW11938   4.797  12.099   1.171
70055SOL    HW111939   4.864  12.037   1.201
70055SOL    HW211940   4.824  12.122   1.082
70056SOL     OW11941   6.895  10.156   7.854
70056SOL    HW111942   6.832  10.095   7.817
70056SOL    HW211943   6.870  10.163   7.946
70057SOL     OW11944   5.097  13.895  10.058
70057SOL    HW111945   5.019  13.913  10.007
70057SOL    HW211946   5.150  13.837  10.003
70058SOL     OW11947   9.642  10.384   2.120
70058SOL    HW111948   9.686  10.456   2.163
70058SOL    HW211949   9.703  10.356   2.051
70059SOL     OW11950  13.716   5.394   6.291
70059SOL    HW111951  13.765   5.368   6.369
70059SOL    HW211952  13.749   5.481   6.270
70060SOL     OW11953   5.222   9.604   4.643
70060SOL    HW111954   5.284   9.591   4.570
70060SOL    HW211955   5.231   9.696   4.665
70061SOL     OW11956   1.664   2.985   6.582
70061SOL    HW111957   1.722   2.954   6.513
70061SOL    HW211958   1.654   3.079   6.565
70062SOL     OW11959   9.459   6.512   3.011
70062SOL    HW111960   9.428   6.590   3.057
70062SOL    HW211961   9.550   6.531   2.990
70063SOL     OW11962   5.380  10.925   5.161
70063SOL    HW111963   5.424  10.855   5.113
70063SOL    HW211964   5.348  10.985   5.093
70064SOL     OW11965   8.299   1.548   4.691
70064SOL    HW111966   8.383   1.539   4.736
70064SOL    HW211967   8.321   1.580   4.604
70065SOL     OW11968   2.003   1.557   2.180
70065SOL    HW111969   2.050   1.597   2.107
70065SOL    HW211970   1.952   1.487   2.139
70066SOL     OW11971   5.763  12.573   7.193
70066SOL    HW111972   5.792  12.631   7.263
70066SOL    HW211973   5.741  12.631   7.120
70067SOL     OW11974   9.527   0.122  10.645
70067SOL    HW111975   9.573   0.039  10.640
70067SOL    HW211976   9.441   0.099  10.680
70068SOL     OW11977  12.848   2.144   0.239
70068SOL    HW111978  12.782   2.132   0.170
70068SOL    HW211979  12.930   2.157   0.192
70069SOL     OW11980   8.751   8.367  11.246
70069SOL    HW111981   8.668   8.320  11.253
70069SOL    HW211982   8.725   8.457  11.223
70070SOL     OW11983   3.486   1.537   6.957
70070SOL    HW111984   3.515   1.544   7.048
70070SOL    HW211985   3.451   1.624   6.937
70071SOL     OW11986   0.104  10.626   3.833
70071SOL    HW111987   0.056  10.684   3.892
70071SOL    HW211988   0.191  10.618   3.872
70072SOL     OW11989   3.894   0.581   5.234
70072SOL    HW111990   3.886   0.488   5.216
70072SOL    HW211991   3.912   0.620   5.148
70073SOL     OW11992   0.004  13.414   0.733
70073SOL    HW111993   0.063  13.418   0.658
70073SOL    HW211994  14.865  13.505   0.753
70074SOL     OW11995   4.440   2.569   5.416
70074SOL    HW111996   4.419   2.659   5.393
70074SOL    HW211997   4.535   2.570   5.428
70075SOL     OW11998   7.050   2.111  14.638
70075SOL    HW111999   7.114   2.181  14.622
70075SOL    HW212000   6.998   2.108  14.558
70076SOL     OW12001   0.383   7.539   7.167
70076SOL    HW112002   0.472   7.507   7.181
70076SOL    HW212003   0.329   7.460   7.165
70077SOL     OW12004  12.298   2.097   9.785
70077SOL    HW112005  12.212   2.073   9.821
70077SOL    HW212006  12.354   2.108   9.862
70078SOL     OW12007   6.960  14.780   2.551
70078SOL    HW112008   6.890  14.724   2.517
70078SOL    HW212009   7.008  14.722   2.611
70079SOL     OW12010  11.664   9.936   1.564
70079SOL    HW112011  11.628  10.001   1.503
70079SOL    HW212012  11.627   9.959   1.649
70080SOL     OW12013   3.204   6.406  10.945
70080SOL    HW112014   3.190   6.436  10.855
70080SOL    HW212015   3.293   6.433  10.965
70081SOL     OW12016   5.158   4.003   0.242
70081SOL    HW112017   5.191   4.089   0.214
70081SOL    HW212018   5.066   4.003   0.216
70082SOL     OW12019  14.387   2.691  14.248
70082SOL    HW112020  14.325   2.715  14.317
70082SOL    HW212021  14.448   2.765  14.244
70083SOL     OW12022  10.595   7.789  10.166
70083SOL    HW112023  10.531   7.721  10.186
70083SOL    HW212024  10.592   7.798  10.071
70084SOL     OW12025   0.772   9.380   0.245
70084SOL    HW112026   0.831   9.408   0.315
70084SOL    HW212027   0.818   9.308   0.203
70085SOL     OW12028   0.137  12.268   6.891
70085SOL    HW112029   0.130  12.188   6.943
70085SOL    HW212030   0.219  12.258   6.843
70086SOL     OW12031  13.765   1.311   8.122
70086SOL    HW112032  13.799   1.321   8.210
70086SOL    HW212033  13.841   1.325   8.065
70087SOL     OW12034   3.428   1.487   5.055
70087SOL    HW112035   3.392   1.400   5.073
70087SOL    HW212036   3.388   1.544   5.121
70088SOL     OW12037  11.122  11.704  13.603
70088SOL    HW112038  11.041  11.733  13.644
70088SOL    HW212039  11.163  11.646  13.667
70089SOL     OW12040   4.017   4.042   4.729
70089SOL    HW112041   3.998   4.133   4.751
70089SOL    HW212042   3.945   3.992   4.767
70090SOL     OW12043  11.613   7.141   9.406
70090SOL    HW112044  11.521   7.145   9.433
70090SOL    HW212045  11.661   7.180   9.479
70091SOL     OW12046   1.688   1.701  13.228
70091SOL    HW112047   1.757   1.655  13.181
70091SOL    HW212048   1.611   1.693  13.173
70092SOL     OW12049   2.641   7.348   1.079
70092SOL    HW112050   2.704   7.391   1.137
70092SOL    HW212051   2.556   7.374   1.114
70093SOL     OW12052   8.908  14.866   3.041
70093SOL    HW112053   8.851   0.060   3.058
70093SOL    HW212054   8.959  14.856   3.121
70094SOL     OW12055   8.800  10.472   4.318
70094SOL    HW112056   8.808  10.447   4.226
70094SOL    HW212057   8.850  10.554   4.326
70095SOL     OW12058   6.968  13.424   7.500
70095SOL    HW112059   7.032  13.486   7.535
70095SOL    HW212060   7.006  13.338   7.518
70096SOL     OW12061   4.654   2.064   9.031
70096SOL    HW112062   4.614   2.048   8.946
70096SOL    HW212063   4.639   1.984   9.080
70097SOL     OW12064  12.977   2.761   0.051
70097SOL    HW112065  12.960   2.666   0.049
70097SOL    HW212066  13.071   2.769   0.038
70098SOL     OW12067  14.006  13.707   5.281
70098SOL    HW112068  14.061  13.738   5.352
70098SOL    HW212069  13.930  13.668   5.324
70099SOL     OW12070  10.371   5.304   5.786
70099SOL    HW112071  10.342   5.251   5.859
70099SOL    HW212072  10.415   5.243   5.727
70100SOL     OW12073   0.993   2.655   1.212
70100SOL    HW112074   0.906   2.618   1.229
70100SOL    HW212075   0.989   2.744   1.248
70101SOL     OW12076   1.225   1.629  14.664
70101SOL    HW112077   1.290   1.681  14.711
70101SOL    HW212078   1.160   1.693  14.634
70102SOL     OW12079  14.467   6.273   1.368
70102SOL    HW112080  14.554   6.281   1.406
70102SOL    HW212081  14.408   6.281   1.443
70103SOL     OW12082  11.795   0.695   9.700
70103SOL    HW112083  11.816   0.610   9.737
70103SOL    HW212084  11.855   0.756   9.744
70104SOL     OW12085   7.036   2.090   7.525
70104SOL    HW112086   7.010   2.119   7.612
70104SOL    HW212087   6.966   2.120   7.467
70105SOL     OW12088   0.451   0.105   1.729
70105SOL    HW112089   0.433   0.028   1.783
70105SOL    HW212090   0.466   0.069   1.641
70106SOL     OW12091   5.512   0.083   8.788
70106SOL    HW112092   5.527   0.072   8.695
70106SOL    HW212093   5.460   0.164   8.795
70107SOL     OW12094   8.144   9.950   9.494
70107SOL    HW112095   8.123   9.882   9.429
70107SOL    HW212096   8.060   9.966   9.538
70108SOL     OW12097  11.940   8.195   3.572
70108SOL    HW112098  12.024   8.160   3.543
70108SOL    HW212099  11.964   8.268   3.630
70109SOL     OW12100   8.356   5.098   7.534
70109SOL    HW112101   8.333   5.005   7.527
70109SOL    HW212102   8.415   5.102   7.609
70110SOL     OW12103   1.251  11.509   1.174
70110SOL    HW112104   1.224  11.506   1.266
70110SOL    HW212105   1.187  11.566   1.132
70111SOL     OW12106   3.651   7.240  14.008
70111SOL    HW112107   3.644   7.334  13.992
70111SOL    HW212108   3.617   7.199  13.929
70112SOL     OW12109  13.259   2.038   5.953
70112SOL    HW112110  13.340   2.090   5.950
70112SOL    HW212111  13.198   2.091   6.004
70113SOL     OW12112   3.039   2.620  12.131
70113SOL    HW112113   3.112   2.680  12.115
70113SOL    HW212114   3.010   2.595  12.043
70114SOL     OW12115   9.238   5.299   6.889
70114SOL    HW112116   9.233   5.389   6.857
70114SOL    HW212117   9.206   5.304   6.979
70115SOL     OW12118   5.478   0.196   4.520
70115SOL    HW112119   5.556   0.145   4.539
70115SOL    HW212120   5.407   0.132   4.516
70116SOL     OW12121   7.027   2.547   5.478
70116SOL    HW112122   7.021   2.452   5.482
70116SOL    HW212123   6.952   2.578   5.530
70117SOL     OW12124  11.633   7.295   1.623
70117SOL    HW112125  11.582   7.214   1.625
70117SOL    HW212126  11.579   7.356   1.572
70118SOL     OW12127   6.648   2.059   0.926
70118SOL    HW112128   6.597   2.124   0.877
70118SOL    HW212129   6.673   1.994   0.861
70119SOL     OW12130   5.967   0.795  14.190
70119SOL    HW112131   5.929   0.729  14.132
70119SOL    HW212132   6.059   0.798  14.164
70120SOL     OW12133   9.958   1.727   5.900
70120SOL    HW112134   9.966   1.663   5.970
70120SOL    HW212135   9.937   1.674   5.822
70121SOL     OW12136   1.055  13.275  14.835
70121SOL    HW112137   1.044  13.370  14.832
70121SOL    HW212138   0.981  13.241  14.785
70122SOL     OW12139  10.211   8.963  11.446
70122SOL    HW112140  10.148   9.020  11.490
70122SOL    HW212141  10.296   8.995  11.475
70123SOL     OW12142  11.668  13.757  11.599
70123SOL    HW112143  11.600  13.734  11.535
70123SOL    HW212144  11.641  13.713  11.680
70124SOL     OW12145  12.164  11.469   6.580
70124SOL    HW112146  12.151  11.450   6.488
70124SOL    HW212147  12.196  11.386   6.617
70125SOL     OW12148   7.076   4.918   6.669
70125SOL    HW112149   7.069   4.828   6.701
70125SOL    HW212150   7.002   4.963   6.709
70126SOL     OW12151   3.860  13.656   2.703
70126SOL    HW112152   3.900  13.648   2.617
70126SOL    HW212153   3.796  13.727   2.693
70127SOL     OW12154   5.587   2.970   5.162
70127SOL    HW112155   5.578   3.039   5.229
70127SOL    HW212156   5.662   2.918   5.191
70128SOL     OW12157   0.815   1.667  11.953
70128SOL    HW112158   0.806   1.585  12.002
70128SOL    HW212159   0.895   1.655  11.902
70129SOL     OW12160  10.948   6.061  12.247
70129SOL    HW112161  10.886   6.016  12.191
70129SOL    HW212162  10.912   6.149  12.257
70130SOL     OW12163   6.349   2.915   0.992
70130SOL    HW112164   6.273   2.873   1.032
70130SOL    HW212165   6.330   2.915   0.898
70131SOL     OW12166  13.995  11.099   7.197
70131SOL    HW112167  13.973  11.189   7.170
70131SOL    HW212168  13.970  11.095   7.289
70132SOL     OW12169   5.905   2.789   9.729
70132SOL    HW112170   5.953   2.820   9.652
70132SOL    HW212171   5.914   2.861   9.792
70133SOL     OW12172  12.685  12.713   2.155
70133SOL    HW112173  12.745  12.766   2.207
70133SOL    HW212174  12.625  12.777   2.115
70134SOL     OW12175   9.429   5.003   1.299
70134SOL    HW112176   9.472   5.089   1.301
70134SOL    HW212177   9.499   4.941   1.318
70135SOL     OW12178  13.854  10.210  10.582
70135SOL    HW112179  13.807  10.234  10.661
70135SOL    HW212180  13.909  10.136  10.608
70136SOL     OW12181   6.576   6.110  13.852
70136SOL    HW112182   6.487   6.145  13.845
70136SOL    HW212183   6.620   6.171  13.911
70137SOL     OW12184   6.732   3.372  10.984
70137SOL    HW112185   6.729   3.328  11.069
70137SOL    HW212186   6.824   3.370  10.959
70138SOL     OW12187   1.848  13.531   7.748
70138SOL    HW112188   1.829  13.446   7.707
70138SOL    HW212189   1.942  13.543   7.735
70139SOL     OW12190   1.173  14.469   8.129
70139SOL    HW112191   1.257  14.501   8.098
70139SOL    HW212192   1.112  14.487   8.058
70140SOL     OW12193   2.096   1.630   0.559
70140SOL    HW112194   2.070   1.694   0.493
70140SOL    HW212195   2.050   1.657   0.639
70141SOL     OW12196   1.943   9.065   0.266
70141SOL    HW112197   1.929   9.152   0.228
70141SOL    HW212198   1.895   9.067   0.349
70142SOL     OW12199  13.356   3.576   6.225
70142SOL    HW112200  13.298   3.639   6.267
70142SOL    HW212201  13.322   3.490   6.252
70143SOL     OW12202   5.351   6.549   5.226
70143SOL    HW112203   5.379   6.640   5.221
70143SOL    HW212204   5.416   6.507   5.281
70144SOL     OW12205   0.843   4.773   6.809
70144SOL    HW112206   0.890   4.757   6.727
70144SOL    HW212207   0.836   4.687   6.850
70145SOL     OW12208   4.923   4.590   2.815
70145SOL    HW112209   4.969   4.614   2.735
70145SOL    HW212210   4.831   4.586   2.789
70146SOL     OW12211   1.664   4.084   5.333
70146SOL    HW112212   1.650   4.161   5.389
70146SOL    HW212213   1.741   4.041   5.370
70147SOL     OW12214   9.994  12.273   9.791
70147SOL    HW112215   9.999  12.318   9.876
70147SOL    HW212216   9.973  12.342   9.728
70148SOL     OW12217   6.458   4.263   6.440
70148SOL    HW112218   6.460   4.315   6.521
70148SOL    HW212219   6.396   4.309   6.383
70149SOL     OW12220  12.326   8.430   3.272
70149SOL    HW112221  12.263   8.456   3.339
70149SOL    HW212222  12.404   8.404   3.320
70150SOL     OW12223   6.642   9.624  10.410
70150SOL    HW112224   6.632   9.683  10.485
70150SOL    HW212225   6.734   9.635  10.384
70151SOL     OW12226   2.762   0.236  13.511
70151SOL    HW112227   2.707   0.279  13.445
70151SOL    HW212228   2.740   0.281  13.593
70152SOL     OW12229   2.998  14.760   5.913
70152SOL    HW112230   3.090  14.784   5.925
70152SOL    HW212231   2.950  14.830   5.957
70153SOL     OW12232   9.170   0.921  14.100
70153SOL    HW112233   9.218   0.930  14.018
70153SOL    HW212234   9.203   0.992  14.155
70154SOL     OW12235   9.183  13.501   7.155
70154SOL    HW112236   9.271  13.538   7.154
70154SOL    HW212237   9.180  13.443   7.079
70155SOL     OW12238  10.783   3.221   2.973
70155SOL    HW112239  10.733   3.170   3.038
70155SOL    HW212240  10.848   3.268   3.025
70156SOL     OW12241   9.378   9.892   2.222
70156SOL    HW112242   9.393   9.811   2.174
70156SOL    HW212243   9.462   9.911   2.265
70157SOL     OW12244   3.220  12.225   0.650
70157SOL    HW112245   3.307  12.201   0.619
70157SOL    HW212246   3.235  12.303   0.703
70158SOL     OW12247  13.205   7.427   4.690
70158SOL    HW112248  13.118   7.460   4.713
70158SOL    HW212249  13.233   7.378   4.767
70159SOL     OW12250  10.403  10.351   8.001
70159SOL    HW112251  10.353  10.350   7.920
70159SOL    HW212252  10.462  10.276   7.994
70160SOL     OW12253   3.863  12.345   8.078
70160SOL    HW112254   3.847  12.384   7.992
70160SOL    HW212255   3.857  12.419   8.139
70161SOL     OW12256   6.742   5.665   6.882
70161SOL    HW112257   6.714   5.574   6.868
70161SOL    HW212258   6.694   5.715   6.816
70162SOL     OW12259   1.708   2.746   8.591
70162SOL    HW112260   1.624   2.788   8.573
70162SOL    HW212261   1.688   2.653   8.598
70163SOL     OW12262   5.490   5.095   9.302
70163SOL    HW112263   5.565   5.153   9.316
70163SOL    HW212264   5.487   5.081   9.207
70164SOL     OW12265  11.384  10.841  13.659
70164SOL    HW112266  11.429  10.804  13.735
70164SOL    HW212267  11.298  10.865  13.691
70165SOL     OW12268   0.676   1.885   3.084
70165SOL    HW112269   0.583   1.893   3.062
70165SOL    HW212270   0.707   1.975   3.094
70166SOL     OW12271   5.938   7.063   9.988
70166SOL    HW112272   5.903   7.151   9.991
70166SOL    HW212273   5.978   7.055   9.901
70167SOL     OW12274  11.851  12.930   5.215
70167SOL    HW112275  11.921  12.866   5.227
70167SOL    HW212276  11.883  12.988   5.145
70168SOL     OW12277   5.281   3.300   0.833
70168SOL    HW112278   5.344   3.322   0.903
70168SOL    HW212279   5.202   3.349   0.856
70169SOL     OW12280  12.159   4.605  12.549
70169SOL    HW112281  12.089   4.543  12.564
70169SOL    HW212282  12.127   4.661  12.478
70170SOL     OW12283   4.441   7.124   3.917
70170SOL    HW112284   4.425   7.218   3.920
70170SOL    HW212285   4.537   7.116   3.917
70171SOL     OW12286  11.247  10.017   0.483
70171SOL    HW112287  11.172  10.060   0.526
70171SOL    HW212288  11.319  10.078   0.496
70172SOL     OW12289   2.096  12.314  12.135
70172SOL    HW112290   2.153  12.385  12.106
70172SOL    HW212291   2.086  12.259  12.058
70173SOL     OW12292  11.943  13.337  11.159
70173SOL    HW112293  12.012  13.403  11.153
70173SOL    HW212294  11.960  13.278  11.085
70174SOL     OW12295   9.924   1.018   1.445
70174SOL    HW112296   9.837   1.036   1.480
70174SOL    HW212297   9.974   1.097   1.466
70175SOL     OW12298  11.518   9.763   9.434
70175SOL    HW112299  11.567   9.842   9.451
70175SOL    HW212300  11.438   9.772   9.486
70176SOL     OW12301  11.939   4.841  11.656
70176SOL    HW112302  11.947   4.930  11.689
70176SOL    HW212303  12.026   4.803  11.667
70177SOL     OW12304   4.496   2.702   2.842
70177SOL    HW112305   4.537   2.617   2.826
70177SOL    HW212306   4.521   2.755   2.767
70178SOL     OW12307   2.465   4.959  11.280
70178SOL    HW112308   2.448   5.052  11.292
70178SOL    HW212309   2.406   4.915  11.343
70179SOL     OW12310  14.106   8.131  10.040
70179SOL    HW112311  14.038   8.198  10.039
70179SOL    HW212312  14.175   8.166   9.983
70180SOL     OW12313   8.529   8.402   3.174
70180SOL    HW112314   8.465   8.339   3.141
70180SOL    HW212315   8.489   8.487   3.160
70181SOL     OW12316  13.080   4.933   5.140
70181SOL    HW112317  13.041   4.862   5.090
70181SOL    HW212318  13.114   4.993   5.073
70182SOL     OW12319  12.347   9.284  12.383
70182SOL    HW112320  12.350   9.194  12.350
70182SOL    HW212321  12.257   9.313  12.364
70183SOL     OW12322  13.884   1.294  14.751
70183SOL    HW112323  13.945   1.259  14.816
70183SOL    HW212324  13.900   1.242  14.673
70184SOL     OW12325   7.259   3.292   6.058
70184SOL    HW112326   7.216   3.254   6.135
70184SOL    HW212327   7.317   3.223   6.026
70185SOL     OW12328   8.600   9.210   9.761
70185SOL    HW112329   8.616   9.179   9.672
70185SOL    HW212330   8.528   9.155   9.793
70186SOL     OW12331  13.209   9.777   6.034
70186SOL    HW112332  13.168   9.693   6.055
70186SOL    HW212333  13.286   9.754   5.983
70187SOL     OW12334   4.026   8.787   2.908
70187SOL    HW112335   3.987   8.747   2.830
70187SOL    HW212336   4.049   8.876   2.880
70188SOL     OW12337   4.530   9.830   3.389
70188SOL    HW112338   4.543   9.919   3.358
70188SOL    HW212339   4.558   9.774   3.316
70189SOL     OW12340  13.824   5.417   7.837
70189SOL    HW112341  13.917   5.400   7.852
70189SOL    HW212342  13.788   5.332   7.809
70190SOL     OW12343  13.337   4.422   3.480
70190SOL    HW112344  13.305   4.458   3.563
70190SOL    HW212345  13.432   4.433   3.484
70191SOL     OW12346   5.772  13.087   1.528
70191SOL    HW112347   5.750  13.000   1.561
70191SOL    HW212348   5.800  13.136   1.606
70192SOL     OW12349   5.228   2.236  12.171
70192SOL    HW112350   5.174   2.221  12.249
70192SOL    HW212351   5.294   2.167  12.174
70193SOL     OW12352   0.427  13.610   3.338
70193SOL    HW112353   0.426  13.703   3.363
70193SOL    HW212354   0.418  13.612   3.242
70194SOL     OW12355   7.232   3.405   7.373
70194SOL    HW112356   7.261   3.329   7.424
70194SOL    HW212357   7.210   3.471   7.439
70195SOL     OW12358  14.006   4.888  13.599
70195SOL    HW112359  14.036   4.818  13.541
70195SOL    HW212360  14.081   4.907  13.654
70196SOL     OW12361   8.469   8.702  14.801
70196SOL    HW112362   8.445   8.683   0.011
70196SOL    HW212363   8.406   8.654  14.749
70197SOL     OW12364   5.350  14.364   0.684
70197SOL    HW112365   5.376  14.380   0.593
70197SOL    HW212366   5.388  14.437   0.733
70198SOL     OW12367   4.726   0.493  13.361
70198SOL    HW112368   4.805   0.520  13.408
70198SOL    HW212369   4.727   0.398  13.365
70199SOL     OW12370   6.696  12.303   6.398
70199SOL    HW112371   6.665  12.245   6.468
70199SOL    HW212372   6.763  12.251   6.353
70200SOL     OW12373   3.657  12.754   4.976
70200SOL    HW112374   3.661  12.758   5.071
70200SOL    HW212375   3.600  12.827   4.951
70201SOL     OW12376   9.005   3.058   5.311
70201SOL    HW112377   9.083   3.022   5.268
70201SOL    HW212378   8.942   2.986   5.310
70202SOL     OW12379  13.972   9.337  13.080
70202SOL    HW112380  14.009   9.256  13.115
70202SOL    HW212381  13.984   9.330  12.985
70203SOL     OW12382   3.152  13.775  13.002
70203SOL    HW112383   3.234  13.797  13.046
70203SOL    HW212384   3.084  13.811  13.059
70204SOL     OW12385  12.869  11.690  10.586
70204SOL    HW112386  12.806  11.659  10.651
70204SOL    HW212387  12.851  11.637  10.508
70205SOL     OW12388   4.694  14.286   8.599
70205SOL    HW112389   4.763  14.335   8.643
70205SOL    HW212390   4.695  14.319   8.509
70206SOL     OW12391  14.705   3.127   2.414
70206SOL    HW112392  14.752   3.199   2.457
70206SOL    HW212393  14.652   3.170   2.347
70207SOL     OW12394   6.657  11.334  13.648
70207SOL    HW112395   6.629  11.336  13.557
70207SOL    HW212396   6.712  11.255  13.654
70208SOL     OW12397   4.143   0.268   6.540
70208SOL    HW112398   4.218   0.251   6.484
70208SOL    HW212399   4.171   0.237   6.627
70209SOL     OW12400   4.492   0.578  12.162
70209SOL    HW112401   4.572   0.529  12.143
70209SOL    HW212402   4.516   0.670  12.146
70210SOL     OW12403   1.264   6.110   3.827
70210SOL    HW112404   1.342   6.064   3.855
70210SOL    HW212405   1.220   6.135   3.908
70211SOL     OW12406   1.773  14.210   9.382
70211SOL    HW112407   1.710  14.141   9.400
70211SOL    HW212408   1.788  14.205   9.288
70212SOL     OW12409  10.222   6.249   4.472
70212SOL    HW112410  10.158   6.260   4.543
70212SOL    HW212411  10.203   6.320   4.411
70213SOL     OW12412   5.785  12.956   2.329
70213SOL    HW112413   5.694  12.946   2.300
70213SOL    HW212414   5.798  13.051   2.335
70214SOL     OW12415  12.650  10.362  14.252
70214SOL    HW112416  12.578  10.311  14.287
70214SOL    HW212417  12.666  10.324  14.166
70215SOL     OW12418  10.403  13.440   3.347
70215SOL    HW112419  10.411  13.498   3.423
70215SOL    HW212420  10.377  13.499   3.276
70216SOL     OW12421   2.505  10.746   6.339
70216SOL    HW112422   2.423  10.734   6.292
70216SOL    HW212423   2.483  10.801   6.414
70217SOL     OW12424  13.391  12.604   3.168
70217SOL    HW112425  13.364  12.694   3.149
70217SOL    HW212426  13.427  12.572   3.086
70218SOL     OW12427   5.249   9.809  13.225
70218SOL    HW112428   5.291   9.724  13.209
70218SOL    HW212429   5.191   9.821  13.150
70219SOL     OW12430   9.580  10.591  14.236
70219SOL    HW112431   9.563  10.635  14.319
70219SOL    HW212432   9.658  10.539  14.253
70220SOL     OW12433   8.573   3.345   0.066
70220SOL    HW112434   8.519   3.348   0.145
70220SOL    HW212435   8.662   3.359   0.097
70221SOL     OW12436   8.250  14.272   2.992
70221SOL    HW112437   8.257  14.304   2.902
70221SOL    HW212438   8.322  14.315   3.038
70222SOL     OW12439   3.643  12.220  13.670
70222SOL    HW112440   3.737  12.222  13.691
70222SOL    HW212441   3.630  12.295  13.613
70223SOL     OW12442   0.471   3.520   7.385
70223SOL    HW112443   0.390   3.468   7.384
70223SOL    HW212444   0.505   3.508   7.474
70224SOL     OW12445  11.596   4.072  12.561
70224SOL    HW112446  11.549   4.153  12.582
70224SOL    HW212447  11.650   4.055  12.637
70225SOL     OW12448   9.450   9.599   9.673
70225SOL    HW112449   9.514   9.629   9.738
70225SOL    HW212450   9.499   9.537   9.618
70226SOL     OW12451   0.875   2.294  12.478
70226SOL    HW112452   0.873   2.367  12.540
70226SOL    HW212453   0.947   2.239  12.507
70227SOL     OW12454   7.764   2.906  10.048
70227SOL    HW112455   7.844   2.958  10.038
70227SOL    HW212456   7.693   2.968  10.036
70228SOL     OW12457  14.320   5.607   6.264
70228SOL    HW112458  14.401   5.629   6.310
70228SOL    HW212459  14.299   5.687   6.215
70229SOL     OW12460   9.533   6.972  14.317
70229SOL    HW112461   9.601   6.911  14.344
70229SOL    HW212462   9.553   6.992  14.225
70230SOL     OW12463   4.015   7.099   1.110
70230SOL    HW112464   3.925   7.126   1.128
70230SOL    HW212465   4.069   7.170   1.144
70231SOL     OW12466  13.044   7.532   7.595
70231SOL    HW112467  13.043   7.485   7.679
70231SOL    HW212468  13.117   7.493   7.547
70232SOL     OW12469   8.942   7.292  14.410
70232SOL    HW112470   8.891   7.259  14.485
70232SOL    HW212471   9.022   7.240  14.411
70233SOL     OW12472   4.614  10.656   9.112
70233SOL    HW112473   4.567  10.584   9.154
70233SOL    HW212474   4.558  10.733   9.125
70234SOL     OW12475  14.764   1.232  12.096
70234SOL    HW112476  14.796   1.232  12.187
70234SOL    HW212477  14.670   1.245  12.104
70235SOL     OW12478   8.900   6.886  14.592
70235SOL    HW112479   8.873   6.827  14.663
70235SOL    HW212480   8.826   6.888  14.532
70236SOL     OW12481   4.751   7.025   0.573
70236SOL    HW112482   4.797   7.004   0.654
70236SOL    HW212483   4.666   7.059   0.601
70237SOL     OW12484   2.787   2.127   5.490
70237SOL    HW112485   2.826   2.192   5.549
70237SOL    HW212486   2.845   2.125   5.414
70238SOL     OW12487   2.633   4.661   1.205
70238SOL    HW112488   2.610   4.660   1.298
70238SOL    HW212489   2.612   4.750   1.177
70239SOL     OW12490   4.601  11.878   7.451
70239SOL    HW112491   4.633  11.937   7.519
70239SOL    HW212492   4.674  11.870   7.389
70240SOL     OW12493  11.834   7.550  14.490
70240SOL    HW112494  11.832   7.626  14.433
70240SOL    HW212495  11.787   7.482  14.442
70241SOL     OW12496  12.420   9.528   6.469
70241SOL    HW112497  12.431   9.587   6.394
70241SOL    HW212498  12.359   9.461   6.439
70242SOL     OW12499   0.244  14.504   3.727
70242SOL    HW112500   0.199  14.577   3.684
70242SOL    HW212501   0.275  14.542   3.810
70243SOL     OW12502  11.510  11.518  13.449
70243SOL    HW112503  11.571  11.446  13.434
70243SOL    HW212504  11.439  11.503  13.386
70244SOL     OW12505   1.452   8.343  11.834
70244SOL    HW112506   1.538   8.310  11.810
70244SOL    HW212507   1.415   8.375  11.751
70245SOL     OW12508   8.864  14.218  11.934
70245SOL    HW112509   8.930  14.163  11.977
70245SOL    HW212510   8.908  14.248  11.854
70246SOL     OW12511   3.089  12.669  13.313
70246SOL    HW112512   3.068  12.759  13.289
70246SOL    HW212513   3.014  12.638  13.363
70247SOL     OW12514  11.607  12.879  10.182
70247SOL    HW112515  11.617  12.853  10.091
70247SOL    HW212516  11.525  12.928  10.185
70248SOL     OW12517   9.774  14.635   0.028
70248SOL    HW112518   9.840  14.658  14.844
70248SOL    HW212519   9.693  14.624  14.860
70249SOL     OW12520  10.589   3.761   9.950
70249SOL    HW112521  10.515   3.772   9.891
70249SOL    HW212522  10.639   3.688   9.913
70250SOL     OW12523   2.570  10.516   0.372
70250SOL    HW112524   2.485  10.473   0.359
70250SOL    HW212525   2.547  10.601   0.409
70251SOL     OW12526  11.470   3.167  14.872
70251SOL    HW112527  11.545   3.114  14.846
70251SOL    HW212528  11.396   3.129  14.823
70252SOL     OW12529  14.094   2.444   6.963
70252SOL    HW112530  14.017   2.445   7.020
70252SOL    HW212531  14.166   2.474   7.019
70253SOL     OW12532   0.056  13.996   3.616
70253SOL    HW112533  14.853  13.967   3.648
70253SOL    HW212534   0.047  14.090   3.604
70254SOL     OW12535   4.135  14.186   5.865
70254SOL    HW112536   4.118  14.104   5.911
70254SOL    HW212537   4.210  14.224   5.910
70255SOL     OW12538   4.818   6.144   4.561
70255SOL    HW112539   4.892   6.171   4.507
70255SOL    HW212540   4.852   6.146   4.650
70256SOL     OW12541  14.872   8.838  12.328
70256SOL    HW112542   0.058   8.791  12.278
70256SOL    HW212543   0.036   8.866  12.407
70257SOL     OW12544   0.248  14.236   0.803
70257SOL    HW112545   0.169  14.191   0.773
70257SOL    HW212546   0.250  14.220   0.898
70258SOL     OW12547  13.375   6.542  12.537
70258SOL    HW112548  13.385   6.521  12.445
70258SOL    HW212549  13.310   6.612  12.539
70259SOL     OW12550   2.083   4.950  11.711
70259SOL    HW112551   2.057   4.860  11.732
70259SOL    HW212552   2.001   4.999  11.711
70260SOL     OW12553   5.826   4.877   9.678
70260SOL    HW112554   5.756   4.825   9.637
70260SOL    HW212555   5.880   4.812   9.725
70261SOL     OW12556  10.204  13.003  12.812
70261SOL    HW112557  10.277  12.943  12.798
70261SOL    HW212558  10.239  13.089  12.793
70262SOL     OW12559   9.803   1.387   7.304
70262SOL    HW112560   9.761   1.472   7.294
70262SOL    HW212561   9.897   1.406   7.302
70263SOL     OW12562   5.207   9.898   1.894
70263SOL    HW112563   5.167   9.813   1.874
70263SOL    HW212564   5.140   9.945   1.944
70264SOL     OW12565   8.855   7.200   1.690
70264SOL    HW112566   8.793   7.273   1.699
70264SOL    HW212567   8.825   7.135   1.753
70265SOL     OW12568  11.235  10.954   2.495
70265SOL    HW112569  11.151  10.947   2.448
70265SOL    HW212570  11.211  10.976   2.585
70266SOL     OW12571   2.966  12.803   0.251
70266SOL    HW112572   3.026  12.729   0.257
70266SOL    HW212573   2.916  12.800   0.333
70267SOL     OW12574   4.288   6.264   8.642
70267SOL    HW112575   4.263   6.351   8.674
70267SOL    HW212576   4.337   6.225   8.714
70268SOL     OW12577   5.460   1.829   6.881
70268SOL    HW112578   5.485   1.908   6.833
70268SOL    HW212579   5.450   1.762   6.814
70269SOL     OW12580  10.132   8.917  12.412
70269SOL    HW112581  10.184   8.889  12.488
70269SOL    HW212582  10.042   8.900  12.437
70270SOL     OW12583   4.922  10.893   1.488
70270SOL    HW112584   4.864  10.848   1.550
70270SOL    HW212585   4.982  10.942   1.543
70271SOL     OW12586   1.529   0.188  14.189
70271SOL    HW112587   1.530   0.105  14.236
70271SOL    HW212588   1.566   0.168  14.103
70272SOL     OW12589   4.117  13.001   7.866
70272SOL    HW112590   4.205  12.986   7.832
70272SOL    HW212591   4.060  12.988   7.790
70273SOL     OW12592   5.276  12.078   1.806
70273SOL    HW112593   5.187  12.046   1.790
70273SOL    HW212594   5.264  12.168   1.837
70274SOL     OW12595  12.220   4.381  11.812
70274SOL    HW112596  12.299   4.433  11.828
70274SOL    HW212597  12.251   4.292  11.802
70275SOL     OW12598   7.548  10.060   4.152
70275SOL    HW112599   7.586   9.980   4.116
70275SOL    HW212600   7.610  10.087   4.220
70276SOL     OW12601  14.714   7.164  14.880
70276SOL    HW112602  14.714   7.117   0.082
70276SOL    HW212603  14.623   7.187  14.866
70277SOL     OW12604  10.681   9.731   9.088
70277SOL    HW112605  10.670   9.803   9.026
70277SOL    HW212606  10.776   9.721   9.097
70278SOL     OW12607  11.015  10.703   6.225
70278SOL    HW112608  10.988  10.786   6.265
70278SOL    HW212609  11.101  10.685   6.262
70279SOL     OW12610  11.801   4.534  13.040
70279SOL    HW112611  11.715   4.499  13.063
70279SOL    HW212612  11.862   4.486  13.097
70280SOL     OW12613   5.123  13.185  10.950
70280SOL    HW112614   5.055  13.242  10.916
70280SOL    HW212615   5.178  13.241  11.004
70281SOL     OW12616   5.678  14.773   2.040
70281SOL    HW112617   5.771  14.795   2.035
70281SOL    HW212618   5.676  14.677   2.040
70282SOL     OW12619   7.500   8.218   3.070
70282SOL    HW112620   7.507   8.307   3.035
70282SOL    HW212621   7.427   8.222   3.132
70283SOL     OW12622  11.360   8.705  13.153
70283SOL    HW112623  11.363   8.801  13.144
70283SOL    HW212624  11.282   8.679  13.105
70284SOL     OW12625   4.947   6.094   4.223
70284SOL    HW112626   5.005   6.116   4.150
70284SOL    HW212627   4.859   6.101   4.186
70285SOL     OW12628   3.571  11.961   3.034
70285SOL    HW112629   3.647  11.905   3.015
70285SOL    HW212630   3.503  11.929   2.976
70286SOL     OW12631  13.350   5.825  14.272
70286SOL    HW112632  13.369   5.851  14.182
70286SOL    HW212633  13.312   5.903  14.311
70287SOL     OW12634  13.789   4.864   4.950
70287SOL    HW112635  13.765   4.880   5.041
70287SOL    HW212636  13.785   4.768   4.941
70288SOL     OW12637  11.571   9.612   9.179
70288SOL    HW112638  11.523   9.651   9.253
70288SOL    HW212639  11.552   9.670   9.105
70289SOL     OW12640   4.869   9.285  13.449
70289SOL    HW112641   4.910   9.326  13.524
70289SOL    HW212642   4.827   9.357  13.402
70290SOL     OW12643   6.152   5.096   9.587
70290SOL    HW112644   6.215   5.029   9.613
70290SOL    HW212645   6.132   5.076   9.495
70291SOL     OW12646  14.453   6.538  10.315
70291SOL    HW112647  14.384   6.560  10.378
70291SOL    HW212648  14.525   6.597  10.335
70292SOL     OW12649  10.996   6.335   3.862
70292SOL    HW112650  11.042   6.414   3.834
70292SOL    HW212651  10.946   6.362   3.938
70293SOL     OW12652  13.736  14.236  10.347
70293SOL    HW112653  13.822  14.243  10.306
70293SOL    HW212654  13.690  14.315  10.318
70294SOL     OW12655  10.616   2.293   4.311
70294SOL    HW112656  10.590   2.288   4.219
70294SOL    HW212657  10.710   2.309   4.309
70295SOL     OW12658   7.077   4.459   0.610
70295SOL    HW112659   7.166   4.453   0.645
70295SOL    HW212660   7.048   4.368   0.603
70296SOL     OW12661   3.400   5.287  12.057
70296SOL    HW112662   3.307   5.295  12.035
70296SOL    HW212663   3.408   5.331  12.142
70297SOL     OW12664   6.163  14.414  10.665
70297SOL    HW112665   6.125  14.401  10.752
70297SOL    HW212666   6.251  14.375  10.671
70298SOL     OW12667  11.669   2.939   8.760
70298SOL    HW112668  11.618   3.019   8.759
70298SOL    HW212669  11.710   2.936   8.673
70299SOL     OW12670   3.910  13.274  12.370
70299SOL    HW112671   3.993  13.270  12.322
70299SOL    HW212672   3.845  13.245  12.307
70300SOL     OW12673   0.358   9.944   3.248
70300SOL    HW112674   0.432   9.961   3.307
70300SOL    HW212675   0.396   9.896   3.175
70301SOL     OW12676  13.939  13.697   1.026
70301SOL    HW112677  14.001  13.714   0.955
70301SOL    HW212678  13.876  13.769   1.020
70302SOL     OW12679   4.482   5.359   9.614
70302SOL    HW112680   4.454   5.397   9.531
70302SOL    HW212681   4.560   5.410   9.638
70303SOL     OW12682  14.602   9.632  10.817
70303SOL    HW112683  14.623   9.725  10.814
70303SOL    HW212684  14.687   9.588  10.824
70304SOL     OW12685  11.544   2.143   5.107
70304SOL    HW112686  11.607   2.072   5.093
70304SOL    HW212687  11.481   2.107   5.169
70305SOL     OW12688   4.517  11.985   0.084
70305SOL    HW112689   4.523  12.079   0.066
70305SOL    HW212690   4.438  11.957   0.038
70306SOL     OW12691   2.759   4.456  13.777
70306SOL    HW112692   2.668   4.482  13.796
70306SOL    HW212693   2.780   4.394  13.846
70307SOL     OW12694  11.545   9.112   9.507
70307SOL    HW112695  11.470   9.138   9.560
70307SOL    HW212696  11.616   9.170   9.536
70308SOL     OW12697  13.483   5.020  10.522
70308SOL    HW112698  13.475   4.933  10.561
70308SOL    HW212699  13.573   5.024  10.489
70309SOL     OW12700   4.068   3.378   3.314
70309SOL    HW112701   3.973   3.371   3.313
70309SOL    HW212702   4.091   3.386   3.406
70310SOL     OW12703   3.735   6.101   9.250
70310SOL    HW112704   3.801   6.088   9.318
70310SOL    HW212705   3.733   6.018   9.202
70311SOL     OW12706   0.277   9.106   5.864
70311SOL    HW112707   0.243   9.025   5.903
70311SOL    HW212708   0.288   9.166   5.938
70312SOL     OW12709   4.177   5.449   0.542
70312SOL    HW112710   4.157   5.366   0.585
70312SOL    HW212711   4.117   5.512   0.581
70313SOL     OW12712   8.952   6.812   9.354
70313SOL    HW112713   9.000   6.838   9.433
70313SOL    HW212714   8.925   6.894   9.314
70314SOL     OW12715  11.092  14.599   1.240
70314SOL    HW112716  11.113  14.612   1.147
70314SOL    HW212717  11.039  14.519   1.242
70315SOL     OW12718  12.765   1.607   0.069
70315SOL    HW112719  12.770   1.697   0.101
70315SOL    HW212720  12.676   1.598   0.037
70316SOL     OW12721  13.865  13.472  11.565
70316SOL    HW112722  13.873  13.377  11.579
70316SOL    HW212723  13.924  13.510  11.630
70317SOL     OW12724   1.075   0.497   9.893
70317SOL    HW112725   1.130   0.542   9.829
70317SOL    HW212726   1.024   0.566   9.934
70318SOL     OW12727  13.228  12.251  13.754
70318SOL    HW112728  13.286  12.215  13.822
70318SOL    HW212729  13.183  12.176  13.717
70319SOL     OW12730   4.097   8.058  14.716
70319SOL    HW112731   4.188   8.032  14.729
70319SOL    HW212732   4.046   7.979  14.736
70320SOL     OW12733   9.842  10.949   0.357
70320SOL    HW112734   9.796  10.881   0.407
70320SOL    HW212735   9.777  10.981   0.295
70321SOL     OW12736   8.768  10.652   9.734
70321SOL    HW112737   8.727  10.679   9.652
70321SOL    HW212738   8.851  10.613   9.708
70322SOL     OW12739  14.434   5.681   9.014
70322SOL    HW112740  14.442   5.608   8.952
70322SOL    HW212741  14.467   5.756   8.965
70323SOL     OW12742   5.232  10.163  10.806
70323SOL    HW112743   5.181  10.105  10.863
70323SOL    HW212744   5.193  10.150  10.719
70324SOL     OW12745   6.764   7.634   5.381
70324SOL    HW112746   6.709   7.634   5.303
70324SOL    HW212747   6.790   7.726   5.392
70325SOL     OW12748   2.973   2.221  10.725
70325SOL    HW112749   3.015   2.284  10.666
70325SOL    HW212750   3.002   2.136  10.693
70326SOL     OW12751  12.348   5.718   9.210
70326SOL    HW112752  12.368   5.678   9.126
70326SOL    HW212753  12.262   5.758   9.197
70327SOL     OW12754  10.993   6.777   9.277
70327SOL    HW112755  11.013   6.855   9.328
70327SOL    HW212756  10.991   6.706   9.341
70328SOL     OW12757  14.535  10.391   8.614
70328SOL    HW112758  14.479  10.338   8.558
70328SOL    HW212759  14.579  10.329   8.671
70329SOL     OW12760   1.378   9.043   3.921
70329SOL    HW112761   1.317   8.983   3.877
70329SOL    HW212762   1.437   9.072   3.851
70330SOL     OW12763   8.619   7.790  13.629
70330SOL    HW112764   8.665   7.873  13.617
70330SOL    HW212765   8.645   7.737  13.555
70331SOL     OW12766   9.916  12.303  11.560
70331SOL    HW112767   9.914  12.397  11.542
70331SOL    HW212768   9.982  12.269  11.499
70332SOL     OW12769  13.719  12.958  11.320
70332SOL    HW112770  13.792  12.974  11.379
70332SOL    HW212771  13.755  12.968  11.232
70333SOL     OW12772  14.335   3.776   5.098
70333SOL    HW112773  14.430   3.765   5.107
70333SOL    HW212774  14.303   3.691   5.069
70334SOL     OW12775   6.730   0.009   5.886
70334SOL    HW112776   6.806  14.836   5.865
70334SOL    HW212777   6.656  14.830   5.883
70335SOL     OW12778  11.501   3.468   5.038
70335SOL    HW112779  11.530   3.540   5.094
70335SOL    HW212780  11.463   3.405   5.098
70336SOL     OW12781   0.925   9.565   4.729
70336SOL    HW112782   0.833   9.582   4.708
70336SOL    HW212783   0.965   9.652   4.737
70337SOL     OW12784  10.928   3.365   5.552
70337SOL    HW112785  10.859   3.302   5.530
70337SOL    HW212786  10.888   3.451   5.537
70338SOL     OW12787   8.633  10.078   3.536
70338SOL    HW112788   8.723  10.112   3.542
70338SOL    HW212789   8.591  10.110   3.616
70339SOL     OW12790   7.526   8.666   9.771
70339SOL    HW112791   7.548   8.573   9.780
70339SOL    HW212792   7.477   8.687   9.851
70340SOL     OW12793   4.682   3.527  11.649
70340SOL    HW112794   4.719   3.557  11.566
70340SOL    HW212795   4.730   3.447  11.669
70341SOL     OW12796  12.447   0.029   5.579
70341SOL    HW112797  12.450  14.845   5.649
70341SOL    HW212798  12.456  14.859   5.498
70342SOL     OW12799  10.316   8.915   6.119
70342SOL    HW112800  10.239   8.894   6.066
70342SOL    HW212801  10.391   8.895   6.063
70343SOL     OW12802   3.852  10.837   7.128
70343SOL    HW112803   3.826  10.925   7.099
70343SOL    HW212804   3.891  10.796   7.051
70344SOL     OW12805   6.268   0.196   5.955
70344SOL    HW112806   6.299   0.227   5.870
70344SOL    HW212807   6.348   0.183   6.006
70345SOL     OW12808  14.190   6.916   0.997
70345SOL    HW112809  14.096   6.931   0.989
70345SOL    HW212810  14.203   6.891   1.088
70346SOL     OW12811   9.520  11.311  10.940
70346SOL    HW112812   9.517  11.234  10.997
70346SOL    HW212813   9.563  11.280  10.860
70347SOL     OW12814   8.141  13.166   5.384
70347SOL    HW112815   8.046  13.153   5.387
70347SOL    HW212816   8.176  13.095   5.437
70348SOL     OW12817   7.596  12.577   6.539
70348SOL    HW112818   7.632  12.597   6.453
70348SOL    HW212819   7.622  12.653   6.593
70349SOL     OW12820   8.715   5.461   8.235
70349SOL    HW112821   8.761   5.426   8.311
70349SOL    HW212822   8.634   5.499   8.270
70350SOL     OW12823   5.829   9.955   7.637
70350SOL    HW112824   5.752  10.010   7.618
70350SOL    HW212825   5.805   9.907   7.716
70351SOL     OW12826   3.438   4.260   9.910
70351SOL    HW112827   3.394   4.286   9.992
70351SOL    HW212828   3.521   4.223   9.939
70352SOL     OW12829  13.651   2.182   9.744
70352SOL    HW112830  13.611   2.142   9.667
70352SOL    HW212831  13.706   2.253   9.710
70353SOL     OW12832   1.277   9.730   2.003
70353SOL    HW112833   1.202   9.765   1.955
70353SOL    HW212834   1.264   9.760   2.093
70354SOL     OW12835  12.922   4.139   3.692
70354SOL    HW112836  12.853   4.203   3.679
70354SOL    HW212837  13.003   4.190   3.690
70355SOL     OW12838  10.465   4.252   8.009
70355SOL    HW112839  10.554   4.268   8.042
70355SOL    HW212840  10.422   4.338   8.016
70356SOL     OW12841  12.954   7.566   4.327
70356SOL    HW112842  12.972   7.520   4.245
70356SOL    HW212843  12.979   7.657   4.309
70357SOL     OW12844   5.146   3.295   2.105
70357SOL    HW112845   5.055   3.275   2.126
70357SOL    HW212846   5.152   3.390   2.115
70358SOL     OW12847   2.428   0.817   4.803
70358SOL    HW112848   2.411   0.837   4.895
70358SOL    HW212849   2.505   0.869   4.781
70359SOL     OW12850   7.004  14.696   0.518
70359SOL    HW112851   6.977  14.780   0.554
70359SOL    HW212852   6.976  14.699   0.426
70360SOL     OW12853  11.441   7.368   9.285
70360SOL    HW112854  11.384   7.435   9.320
70360SOL    HW212855  11.382   7.298   9.257
70361SOL     OW12856   7.365   9.153   6.335
70361SOL    HW112857   7.291   9.159   6.396
70361SOL    HW212858   7.393   9.244   6.323
70362SOL     OW12859   2.132   2.348   9.873
70362SOL    HW112860   2.183   2.401   9.934
70362SOL    HW212861   2.053   2.325   9.921
70363SOL     OW12862   0.139   4.590   1.653
70363SOL    HW112863   0.109   4.577   1.742
70363SOL    HW212864   0.221   4.640   1.662
70364SOL     OW12865   6.340  12.500  10.797
70364SOL    HW112866   6.429  12.492  10.764
70364SOL    HW212867   6.314  12.590  10.776
70365SOL     OW12868  10.083   1.382  12.404
70365SOL    HW112869  10.139   1.315  12.443
70365SOL    HW212870  10.032   1.417  12.478
70366SOL     OW12871   9.683  14.577  11.502
70366SOL    HW112872   9.759  14.622  11.465
70366SOL    HW212873   9.644  14.642  11.561
70367SOL     OW12874   2.482   3.386   1.518
70367SOL    HW112875   2.405   3.434   1.488
70367SOL    HW212876   2.523   3.354   1.438
70368SOL     OW12877   9.422   4.449   5.179
70368SOL    HW112878   9.395   4.375   5.124
70368SOL    HW212879   9.345   4.505   5.184
70369SOL     OW12880  10.230   9.142   8.850
70369SOL    HW112881  10.163   9.176   8.791
70369SOL    HW212882  10.182   9.085   8.911
70370SOL     OW12883  12.340   3.926  12.664
70370SOL    HW112884  12.343   3.837  12.630
70370SOL    HW212885  12.358   3.916  12.758
70371SOL     OW12886  10.232  13.813   6.677
70371SOL    HW112887  10.249  13.720   6.664
70371SOL    HW212888  10.314  13.856   6.653
70372SOL     OW12889  11.066   6.462   7.479
70372SOL    HW112890  11.009   6.505   7.542
70372SOL    HW212891  11.138   6.524   7.466
70373SOL     OW12892  13.877  13.847   3.042
70373SOL    HW112893  13.802  13.874   3.095
70373SOL    HW212894  13.919  13.778   3.093
70374SOL     OW12895   4.504  12.809   3.127
70374SOL    HW112896   4.541  12.826   3.213
70374SOL    HW212897   4.579  12.814   3.068
70375SOL     OW12898   4.768  10.013   6.505
70375SOL    HW112899   4.706   9.944   6.482
70375SOL    HW212900   4.837   9.969   6.554
70376SOL     OW12901   2.569   6.191   3.843
70376SOL    HW112902   2.551   6.097   3.850
70376SOL    HW212903   2.606   6.202   3.755
70377SOL     OW12904  10.726   4.322   4.886
70377SOL    HW112905  10.752   4.252   4.946
70377SOL    HW212906  10.630   4.325   4.893
70378SOL     OW12907  10.937  13.163   7.950
70378SOL    HW112908  10.970  13.250   7.974
70378SOL    HW212909  10.846  13.163   7.980
70379SOL     OW12910   4.355  10.293  13.741
70379SOL    HW112911   4.306  10.253  13.813
70379SOL    HW212912   4.308  10.266  13.662
70380SOL     OW12913   3.696   2.070  11.334
70380SOL    HW112914   3.756   2.120  11.390
70380SOL    HW212915   3.750   2.041  11.261
70381SOL     OW12916   0.673   4.664   0.737
70381SOL    HW112917   0.729   4.737   0.710
70381SOL    HW212918   0.615   4.701   0.803
70382SOL     OW12919  13.617  14.550   0.050
70382SOL    HW112920  13.564  14.493   0.105
70382SOL    HW212921  13.694  14.570   0.103
70383SOL     OW12922   6.123   5.543  14.230
70383SOL    HW112923   6.129   5.455  14.193
70383SOL    HW212924   6.193   5.592  14.187
70384SOL     OW12925  12.582   2.124   0.105
70384SOL    HW112926  12.614   2.066   0.036
70384SOL    HW212927  12.487   2.112   0.104
70385SOL     OW12928   9.700   7.136  11.667
70385SOL    HW112929   9.692   7.122  11.572
70385SOL    HW212930   9.673   7.227  11.679
70386SOL     OW12931   3.463  12.595  10.982
70386SOL    HW112932   3.492  12.636  10.900
70386SOL    HW212933   3.372  12.569  10.964
70387SOL     OW12934  14.856   0.538   0.499
70387SOL    HW112935   0.027   0.553   0.577
70387SOL    HW212936  14.862   0.619   0.449
70388SOL     OW12937   3.265  11.511   9.593
70388SOL    HW112938   3.280  11.578   9.659
70388SOL    HW212939   3.292  11.429   9.635
70389SOL     OW12940   0.859  10.113   2.502
70389SOL    HW112941   0.928  10.053   2.530
70389SOL    HW212942   0.800  10.118   2.578
70390SOL     OW12943   5.432  12.897   9.685
70390SOL    HW112944   5.342  12.865   9.683
70390SOL    HW212945   5.485  12.819   9.698
70391SOL     OW12946  11.041   0.816   0.472
70391SOL    HW112947  11.026   0.818   0.566
70391SOL    HW212948  11.012   0.728   0.446
70392SOL     OW12949   9.941   1.047  12.775
70392SOL    HW112950   9.902   1.097  12.704
70392SOL    HW212951   9.983   0.972  12.733
70393SOL     OW12952   1.289  11.770  11.737
70393SOL    HW112953   1.250  11.847  11.695
70393SOL    HW212954   1.327  11.720  11.665
70394SOL     OW12955   3.780  13.907  13.467
70394SOL    HW112956   3.795  13.826  13.418
70394SOL    HW212957   3.842  13.970  13.429
70395SOL     OW12958   6.312   4.260   4.506
70395SOL    HW112959   6.268   4.278   4.589
70395SOL    HW212960   6.394   4.308   4.511
70396SOL     OW12961   5.449  12.965   7.187
70396SOL    HW112962   5.366  12.968   7.235
70396SOL    HW212963   5.480  13.056   7.187
70397SOL     OW12964   7.140   3.659  12.506
70397SOL    HW112965   7.166   3.597  12.438
70397SOL    HW212966   7.188   3.631  12.584
70398SOL     OW12967   8.069  11.321   3.115
70398SOL    HW112968   8.035  11.330   3.204
70398SOL    HW212969   8.162  11.301   3.127
70399SOL     OW12970   1.959  14.625   3.133
70399SOL    HW112971   1.956  14.573   3.053
70399SOL    HW212972   1.996  14.709   3.106
70400SOL     OW12973   0.512   9.533   6.048
70400SOL    HW112974   0.493   9.513   6.139
70400SOL    HW212975   0.490   9.626   6.038
70401SOL     OW12976   0.484  12.314   4.421
70401SOL    HW112977   0.502  12.241   4.361
70401SOL    HW212978   0.489  12.392   4.366
70402SOL     OW12979   6.887   1.010   6.644
70402SOL    HW112980   6.889   1.104   6.626
70402SOL    HW212981   6.797   0.984   6.624
70403SOL     OW12982   2.513   8.681   3.064
70403SOL    HW112983   2.583   8.683   3.129
70403SOL    HW212984   2.433   8.695   3.114
70404SOL     OW12985   6.358   2.048  10.072
70404SOL    HW112986   6.313   2.048  10.156
70404SOL    HW212987   6.341   2.135  10.036
70405SOL     OW12988   6.676  14.326   3.850
70405SOL    HW112989   6.649  14.254   3.793
70405SOL    HW212990   6.769  14.312   3.865
70406SOL     OW12991  12.421   6.183  11.449
70406SOL    HW112992  12.368   6.227  11.382
70406SOL    HW212993  12.504   6.230  11.449
70407SOL     OW12994   3.012   0.039   6.711
70407SOL    HW112995   3.017   0.042   6.615
70407SOL    HW212996   3.092  14.874   6.737
70408SOL     OW12997   4.109   1.472   6.588
70408SOL    HW112998   4.023   1.430   6.592
70408SOL    HW212999   4.168   1.408   6.626
70409SOL     OW13000   8.521   3.773   2.267
70409SOL    HW113001   8.592   3.792   2.328
70409SOL    HW213002   8.563   3.770   2.181
70410SOL     OW13003   5.605   3.320  13.001
70410SOL    HW113004   5.576   3.359  12.919
70410SOL    HW213005   5.673   3.378  13.034
70411SOL     OW13006   7.531   7.843   3.686
70411SOL    HW113007   7.473   7.791   3.741
70411SOL    HW213008   7.521   7.932   3.718
70412SOL     OW13009   0.650   5.121   8.593
70412SOL    HW113010   0.619   5.036   8.625
70412SOL    HW213011   0.650   5.177   8.671
70413SOL     OW13012   1.689  11.519  14.627
70413SOL    HW113013   1.739  11.570  14.691
70413SOL    HW213014   1.620  11.578  14.597
70414SOL     OW13015   4.643   7.624   3.146
70414SOL    HW113016   4.590   7.689   3.192
70414SOL    HW213017   4.724   7.619   3.195
70415SOL     OW13018   7.356   9.645   5.948
70415SOL    HW113019   7.345   9.720   6.006
70415SOL    HW213020   7.290   9.658   5.880
70416SOL     OW13021   1.879   1.724   1.393
70416SOL    HW113022   1.796   1.683   1.415
70416SOL    HW213023   1.938   1.650   1.376
70417SOL     OW13024   3.808  14.775   8.516
70417SOL    HW113025   3.776  14.853   8.562
70417SOL    HW213026   3.900  14.768   8.543
70418SOL     OW13027   9.299   0.932   4.972
70418SOL    HW113028   9.281   1.023   4.949
70418SOL    HW213029   9.324   0.935   5.064
70419SOL     OW13030   9.039   2.336   4.603
70419SOL    HW113031   9.016   2.309   4.514
70419SOL    HW213032   9.023   2.258   4.657
70420SOL     OW13033  10.929   8.174  14.597
70420SOL    HW113034  10.973   8.130  14.525
70420SOL    HW213035  10.863   8.229  14.555
70421SOL     OW13036   9.683  13.469  14.038
70421SOL    HW113037   9.736  13.441  13.964
70421SOL    HW213038   9.685  13.394  14.098
70422SOL     OW13039   9.141  11.291  14.029
70422SOL    HW113040   9.160  11.208  14.073
70422SOL    HW213041   9.046  11.290  14.015
70423SOL     OW13042   2.079   8.738   3.193
70423SOL    HW113043   2.003   8.704   3.145
70423SOL    HW213044   2.041   8.797   3.257
70424SOL     OW13045  14.741   3.779   3.316
70424SOL    HW113046  14.684   3.827   3.257
70424SOL    HW213047  14.684   3.713   3.357
70425SOL     OW13048  12.942  10.786   5.326
70425SOL    HW113049  12.977  10.746   5.246
70425SOL    HW213050  12.854  10.814   5.302
70426SOL     OW13051   1.201  13.749  11.524
70426SOL    HW113052   1.242  13.766  11.608
70426SOL    HW213053   1.230  13.821  11.468
70427SOL     OW13054   6.340  14.089  10.833
70427SOL    HW113055   6.360  14.159  10.770
70427SOL    HW213056   6.420  14.037  10.837
70428SOL     OW13057   5.707   7.277   2.871
70428SOL    HW113058   5.679   7.240   2.954
70428SOL    HW213059   5.629   7.272   2.815
70429SOL     OW13060  11.997   8.570   7.383
70429SOL    HW113061  12.055   8.633   7.425
70429SOL    HW213062  12.006   8.490   7.435
70430SOL     OW13063   3.556  12.374   8.024
70430SOL    HW113064   3.565  12.459   7.982
70430SOL    HW213065   3.609  12.315   7.971
70431SOL     OW13066   9.031   0.169   5.031
70431SOL    HW113067   9.067   0.108   5.095
70431SOL    HW213068   8.962   0.216   5.079
70432SOL     OW13069   6.828  14.024   2.901
70432SOL    HW113070   6.799  14.087   2.835
70432SOL    HW213071   6.855  14.078   2.976
70433SOL     OW13072   9.806   2.047   6.634
70433SOL    HW113073   9.892   2.052   6.593
70433SOL    HW213074   9.770   2.135   6.626
70434SOL     OW13075   1.933   2.842  10.423
70434SOL    HW113076   1.913   2.866  10.333
70434SOL    HW213077   1.926   2.746  10.424
70435SOL     OW13078   5.805   0.781   1.821
70435SOL    HW113079   5.852   0.865   1.827
70435SOL    HW213080   5.760   0.786   1.737
70436SOL     OW13081  13.452   3.643   8.487
70436SOL    HW113082  13.495   3.558   8.485
70436SOL    HW213083  13.502   3.693   8.552
70437SOL     OW13084  10.075   1.732  12.515
70437SOL    HW113085  10.041   1.798  12.576
70437SOL    HW213086  10.019   1.656  12.529
70438SOL     OW13087   4.778   0.744   1.220
70438SOL    HW113088   4.792   0.708   1.308
70438SOL    HW213089   4.864   0.777   1.193
70439SOL     OW13090   5.464   6.708  13.479
70439SOL    HW113091   5.452   6.665  13.394
70439SOL    HW213092   5.394   6.774  13.482
70440SOL     OW13093   5.654   1.848   4.009
70440SOL    HW113094   5.722   1.864   4.076
70440SOL    HW213095   5.598   1.781   4.049
70441SOL     OW13096   8.806  11.139   5.669
70441SOL    HW113097   8.856  11.212   5.707
70441SOL    HW213098   8.867  11.098   5.607
70442SOL     OW13099   1.893   5.272   5.948
70442SOL    HW113100   1.808   5.280   5.991
70442SOL    HW213101   1.878   5.302   5.858
70443SOL     OW13102  12.814   5.091   9.249
70443SOL    HW113103  12.903   5.059   9.263
70443SOL    HW213104  12.761   5.044   9.314
70444SOL     OW13105   7.488  11.402   4.629
70444SOL    HW113106   7.473  11.386   4.722
70444SOL    HW213107   7.565  11.349   4.607
70445SOL     OW13108   8.016  13.196   9.316
70445SOL    HW113109   8.060  13.200   9.232
70445SOL    HW213110   7.938  13.252   9.306
70446SOL     OW13111  11.257   1.326  11.904
70446SOL    HW113112  11.200   1.286  11.839
70446SOL    HW213113  11.297   1.400  11.859
70447SOL     OW13114   1.226   4.345   8.703
70447SOL    HW113115   1.164   4.302   8.644
70447SOL    HW213116   1.308   4.349   8.654
70448SOL     OW13117   5.072   3.774   1.432
70448SOL    HW113118   5.053   3.715   1.360
70448SOL    HW213119   5.046   3.725   1.511
70449SOL     OW13120  11.941   9.382   1.990
70449SOL    HW113121  11.849   9.396   1.967
70449SOL    HW213122  11.947   9.289   2.010
70450SOL     OW13123   4.151   8.974  14.083
70450SOL    HW113124   4.179   9.029  14.156
70450SOL    HW213125   4.195   9.012  14.007
70451SOL     OW13126  11.560  12.810  10.867
70451SOL    HW113127  11.556  12.727  10.914
70451SOL    HW213128  11.493  12.803  10.800
70452SOL     OW13129  10.467   1.890   3.653
70452SOL    HW113130  10.422   1.826   3.599
70452SOL    HW213131  10.516   1.837   3.717
70453SOL     OW13132   4.455  14.353   5.877
70453SOL    HW113133   4.471  14.442   5.847
70453SOL    HW213134   4.484  14.352   5.968
70454SOL     OW13135  12.959   3.189  11.358
70454SOL    HW113136  12.883   3.134  11.373
70454SOL    HW213137  13.030   3.145  11.404
70455SOL     OW13138   8.633  12.546   9.384
70455SOL    HW113139   8.586  12.479   9.334
70455SOL    HW213140   8.704  12.574   9.327
70456SOL     OW13141   3.069   7.472  13.254
70456SOL    HW113142   3.008   7.498  13.324
70456SOL    HW213143   3.013   7.449  13.180
70457SOL     OW13144  14.197   0.409   8.251
70457SOL    HW113145  14.212   0.323   8.212
70457SOL    HW213146  14.115   0.398   8.301
70458SOL     OW13147  14.637   3.355   7.921
70458SOL    HW113148  14.585   3.329   7.997
70458SOL    HW213149  14.650   3.449   7.931
70459SOL     OW13150   3.915   2.349   4.293
70459SOL    HW113151   3.999   2.352   4.247
70459SOL    HW213152   3.904   2.257   4.318
70460SOL     OW13153   0.063   4.587   0.217
70460SOL    HW113154   0.112   4.601   0.136
70460SOL    HW213155   0.023   4.501   0.207
70461SOL     OW13156   5.664   4.479   4.868
70461SOL    HW113157   5.620   4.412   4.816
70461SOL    HW213158   5.596   4.544   4.886
70462SOL     OW13159   0.499   6.582   3.050
70462SOL    HW113160   0.454   6.497   3.046
70462SOL    HW213161   0.572   6.567   3.109
70463SOL     OW13162   3.755  11.968  11.428
70463SOL    HW113163   3.845  11.952  11.457
70463SOL    HW213164   3.725  12.041  11.482
70464SOL     OW13165  11.234  10.521  10.307
70464SOL    HW113166  11.284  10.601  10.324
70464SOL    HW213167  11.285  10.452  10.348
70465SOL     OW13168   3.326  14.487   6.757
70465SOL    HW113169   3.286  14.413   6.712
70465SOL    HW213170   3.414  14.456   6.781
70466SOL     OW13171  10.566   6.284   2.386
70466SOL    HW113172  10.544   6.194   2.409
70466SOL    HW213173  10.491   6.336   2.417
70467SOL     OW13174   2.751  12.908   7.268
70467SOL    HW113175   2.660  12.933   7.251
70467SOL    HW213176   2.797  12.929   7.187
70468SOL     OW13177  11.022   2.088   7.370
70468SOL    HW113178  11.073   2.035   7.308
70468SOL    HW213179  10.958   2.133   7.315
70469SOL     OW13180  13.007   3.803  14.085
70469SOL    HW113181  12.951   3.746  14.033
70469SOL    HW213182  12.994   3.774  14.175
70470SOL     OW13183  14.587  11.447   3.287
70470SOL    HW113184  14.555  11.487   3.206
70470SOL    HW213185  14.654  11.508   3.319
70471SOL     OW13186   1.977  10.031  14.535
70471SOL    HW113187   1.966   9.936  14.523
70471SOL    HW213188   1.898  10.069  14.495
70472SOL     OW13189   1.260  14.702  14.316
70472SOL    HW113190   1.332  14.699  14.252
70472SOL    HW213191   1.277  14.782  14.366
70473SOL     OW13192   2.676   5.687  13.240
70473SOL    HW113193   2.657   5.664  13.331
70473SOL    HW213194   2.736   5.762  13.246
70474SOL     OW13195  13.863  11.776   7.955
70474SOL    HW113196  13.865  11.695   7.904
70474SOL    HW213197  13.913  11.757   8.034
70475SOL     OW13198   6.819   1.795   4.952
70475SOL    HW113199   6.820   1.702   4.974
70475SOL    HW213200   6.729   1.823   4.968
70476SOL     OW13201  10.886  13.023   3.921
70476SOL    HW113202  10.939  13.074   3.859
70476SOL    HW213203  10.885  12.935   3.885
70477SOL     OW13204   9.218  13.904   9.340
70477SOL    HW113205   9.271  13.979   9.368
70477SOL    HW213206   9.128  13.932   9.353
70478SOL     OW13207   9.664   8.105   3.345
70478SOL    HW113208   9.695   8.053   3.419
70478SOL    HW213209   9.583   8.146   3.376
70479SOL     OW13210  13.795  11.667   1.038
70479SOL    HW113211  13.885  11.701   1.044
70479SOL    HW213212  13.750  11.728   0.980
70480SOL     OW13213   4.195  10.925   1.469
70480SOL    HW113214   4.180  10.929   1.374
70480SOL    HW213215   4.249  11.001   1.488
70481SOL     OW13216   9.206   0.470   3.018
70481SOL    HW113217   9.194   0.457   3.112
70481SOL    HW213218   9.142   0.411   2.977
70482SOL     OW13219   5.550   8.639   2.888
70482SOL    HW113220   5.624   8.693   2.861
70482SOL    HW213221   5.525   8.592   2.809
70483SOL     OW13222   0.215   1.487  11.935
70483SOL    HW113223   0.216   1.392  11.923
70483SOL    HW213224   0.131   1.504  11.978
70484SOL     OW13225   3.474   3.140  10.526
70484SOL    HW113226   3.475   3.153  10.431
70484SOL    HW213227   3.404   3.197  10.557
70485SOL     OW13228   1.604   2.755   3.349
70485SOL    HW113229   1.543   2.737   3.277
70485SOL    HW213230   1.676   2.694   3.336
70486SOL     OW13231   9.510   1.583   6.945
70486SOL    HW113232   9.543   1.593   6.856
70486SOL    HW213233   9.434   1.640   6.950
70487SOL     OW13234   5.476  12.879   2.520
70487SOL    HW113235   5.419  12.877   2.443
70487SOL    HW213236   5.539  12.809   2.505
70488SOL     OW13237  11.798  13.714   7.984
70488SOL    HW113238  11.773  13.806   7.974
70488SOL    HW213239  11.868  13.715   8.050
70489SOL     OW13240  14.047   8.339   7.925
70489SOL    HW113241  14.021   8.384   8.006
70489SOL    HW213242  14.142   8.326   7.935
70490SOL     OW13243   0.463  11.813  14.837
70490SOL    HW113244   0.530  11.745  14.839
70490SOL    HW213245   0.492  11.874  14.769
70491SOL     OW13246   0.036   8.978  11.690
70491SOL    HW113247  14.861   8.906  11.719
70491SOL    HW213248   0.087   8.941  11.618
70492SOL     OW13249  13.411   2.506   0.752
70492SOL    HW113250  13.411   2.449   0.675
70492SOL    HW213251  13.437   2.592   0.719
70493SOL     OW13252   1.920  13.865   5.692
70493SOL    HW113253   1.921  13.803   5.765
70493SOL    HW213254   1.884  13.946   5.730
70494SOL     OW13255   1.446  14.140   6.081
70494SOL    HW113256   1.538  14.113   6.087
70494SOL    HW213257   1.416  14.143   6.171
70495SOL     OW13258   2.535  12.266  12.350
70495SOL    HW113259   2.506  12.357  12.352
70495SOL    HW213260   2.612  12.265  12.406
70496SOL     OW13261   2.900   1.257   9.221
70496SOL    HW113262   2.813   1.266   9.182
70496SOL    HW213263   2.886   1.260   9.315
70497SOL     OW13264   3.992   5.131  12.272
70497SOL    HW113265   4.086   5.118  12.285
70497SOL    HW213266   3.987   5.207  12.214
70498SOL     OW13267   7.243  11.652   1.006
70498SOL    HW113268   7.232  11.739   0.967
70498SOL    HW213269   7.329  11.655   1.048
70499SOL     OW13270  10.414  10.275   7.275
70499SOL    HW113271  10.402  10.231   7.359
70499SOL    HW213272  10.447  10.206   7.217
70500SOL     OW13273   8.894  12.492  14.710
70500SOL    HW113274   8.854  12.458  14.630
70500SOL    HW213275   8.826  12.482  14.777
70501SOL     OW13276   5.130   4.613   0.108
70501SOL    HW113277   5.180   4.534   0.088
70501SOL    HW213278   5.176   4.652   0.182
70502SOL     OW13279  12.370   7.147   9.108
70502SOL    HW113280  12.313   7.149   9.185
70502SOL    HW213281  12.320   7.193   9.040
70503SOL     OW13282   8.694   0.382   5.410
70503SOL    HW113283   8.627   0.439   5.373
70503SOL    HW213284   8.682   0.388   5.504
70504SOL     OW13285   0.276   0.610  14.872
70504SOL    HW113286   0.267   0.516  14.856
70504SOL    HW213287   0.367   0.629  14.853
70505SOL     OW13288  13.851  10.712   2.920
70505SOL    HW113289  13.842  10.664   2.837
70505SOL    HW213290  13.943  10.738   2.922
70506SOL     OW13291   0.142  13.927  10.196
70506SOL    HW113292   0.071  13.903  10.136
70506SOL    HW213293   0.113  13.895  10.282
70507SOL     OW13294  10.693  13.565   4.837
70507SOL    HW113295  10.729  13.490   4.885
70507SOL    HW213296  10.659  13.622   4.906
70508SOL     OW13297   0.009   8.041  12.542
70508SOL    HW113298   0.052   8.077  12.620
70508SOL    HW213299  14.799   8.032  12.568
70509SOL     OW13300   9.972  12.071   8.546
70509SOL    HW113301  10.054  12.024   8.563
70509SOL    HW213302   9.989  12.120   8.465
70510SOL     OW13303   9.980   2.098   7.165
70510SOL    HW113304   9.948   2.086   7.075
70510SOL    HW213305  10.072   2.071   7.162
70511SOL     OW13306  11.408   7.041  10.591
70511SOL    HW113307  11.337   7.105  10.593
70511SOL    HW213308  11.487   7.091  10.612
70512SOL     OW13309  12.127   6.232   6.413
70512SOL    HW113310  12.088   6.213   6.498
70512SOL    HW213311  12.199   6.291   6.432
70513SOL     OW13312   7.875  12.626   1.333
70513SOL    HW113313   7.856  12.535   1.312
70513SOL    HW213314   7.873  12.672   1.249
70514SOL     OW13315   1.047   2.899  11.605
70514SOL    HW113316   1.016   2.945  11.527
70514SOL    HW213317   1.108   2.960  11.646
70515SOL     OW13318   6.208  12.708   0.092
70515SOL    HW113319   6.188  12.717  14.881
70515SOL    HW213320   6.157  12.777   0.134
70516SOL     OW13321   4.043  12.700  12.048
70516SOL    HW113322   4.052  12.713  12.142
70516SOL    HW213323   4.018  12.608  12.039
70517SOL     OW13324  13.432   7.195   9.408
70517SOL    HW113325  13.407   7.288   9.413
70517SOL    HW213326  13.381   7.161   9.335
70518SOL     OW13327   4.230   9.553   0.153
70518SOL    HW113328   4.321   9.546   0.182
70518SOL    HW213329   4.185   9.481   0.196
70519SOL     OW13330   7.381   8.572   3.369
70519SOL    HW113331   7.298   8.573   3.322
70519SOL    HW213332   7.358   8.551   3.460
70520SOL     OW13333   7.020   7.916  13.056
70520SOL    HW113334   7.077   7.878  13.122
70520SOL    HW213335   6.984   7.841  13.009
70521SOL     OW13336   8.054   9.318  14.244
70521SOL    HW113337   8.109   9.363  14.308
70521SOL    HW213338   8.087   9.347  14.159
70522SOL     OW13339   9.141  13.406   1.792
70522SOL    HW113340   9.147  13.501   1.801
70522SOL    HW213341   9.225  13.380   1.753
70523SOL     OW13342  12.129   9.562   6.372
70523SOL    HW113343  12.123   9.657   6.357
70523SOL    HW213344  12.109   9.551   6.465
70524SOL     OW13345   7.635   2.427  11.656
70524SOL    HW113346   7.629   2.388  11.744
70524SOL    HW213347   7.726   2.455  11.650
70525SOL     OW13348   6.707   4.160   5.327
70525SOL    HW113349   6.627   4.186   5.281
70525SOL    HW213350   6.687   4.174   5.420
70526SOL     OW13351   5.216   6.220   9.644
70526SOL    HW113352   5.213   6.242   9.737
70526SOL    HW213353   5.128   6.240   9.612
70527SOL     OW13354   8.306  12.208   2.527
70527SOL    HW113355   8.311  12.113   2.538
70527SOL    HW213356   8.323  12.243   2.615
70528SOL     OW13357   8.716  11.868   5.825
70528SOL    HW113358   8.682  11.860   5.914
70528SOL    HW213359   8.789  11.807   5.820
70529SOL     OW13360  14.138   4.688   2.483
70529SOL    HW113361  14.210   4.626   2.496
70529SOL    HW213362  14.142   4.746   2.559
70530SOL     OW13363  10.080   6.189   3.505
70530SOL    HW113364  10.096   6.132   3.579
70530SOL    HW213365  10.125   6.271   3.527
70531SOL     OW13366  10.059  14.603   3.375
70531SOL    HW113367   9.968  14.594   3.404
70531SOL    HW213368  10.053  14.647   3.290
70532SOL     OW13369   7.872  10.729   6.281
70532SOL    HW113370   7.918  10.726   6.197
70532SOL    HW213371   7.823  10.812   6.279
70533SOL     OW13372  13.871   1.590   1.565
70533SOL    HW113373  13.836   1.504   1.585
70533SOL    HW213374  13.845   1.645   1.639
70534SOL     OW13375  13.799   9.940   0.952
70534SOL    HW113376  13.873   9.978   0.905
70534SOL    HW213377  13.726   9.999   0.933
70535SOL     OW13378   7.500   2.680   3.679
70535SOL    HW113379   7.553   2.732   3.618
70535SOL    HW213380   7.433   2.640   3.624
70536SOL     OW13381   7.804   1.648  14.172
70536SOL    HW113382   7.899   1.649  14.160
70536SOL    HW213383   7.769   1.634  14.084
70537SOL     OW13384   6.438  13.122  13.808
70537SOL    HW113385   6.367  13.062  13.831
70537SOL    HW213386   6.506  13.066  13.770
70538SOL     OW13387   0.434  11.279   2.739
70538SOL    HW113388   0.346  11.282   2.777
70538SOL    HW213389   0.420  11.293   2.645
70539SOL     OW13390   1.805  12.094   9.485
70539SOL    HW113391   1.719  12.058   9.507
70539SOL    HW213392   1.799  12.186   9.511
70540SOL     OW13393   5.728   3.048   6.045
70540SOL    HW113394   5.641   3.085   6.035
70540SOL    HW213395   5.729   2.972   5.987
70541SOL     OW13396   0.142  14.061  12.525
70541SOL    HW113397   0.215  14.000  12.517
70541SOL    HW213398   0.068  14.016  12.484
70542SOL     OW13399   5.112   3.813   3.949
70542SOL    HW113400   5.189   3.853   3.989
70542SOL    HW213401   5.147   3.757   3.880
70543SOL     OW13402  12.666  11.944   0.558
70543SOL    HW113403  12.751  11.927   0.598
70543SOL    HW213404  12.622  11.859   0.559
70544SOL     OW13405   7.657  11.705  11.751
70544SOL    HW113406   7.582  11.761  11.769
70544SOL    HW213407   7.626  11.616  11.769
70545SOL     OW13408   0.769   2.012   8.967
70545SOL    HW113409   0.812   2.019   8.882
70545SOL    HW213410   0.676   2.030   8.948
70546SOL     OW13411   4.588  14.829  13.458
70546SOL    HW113412   4.608  14.766  13.389
70546SOL    HW213413   4.529   0.010  13.416
70547SOL     OW13414   7.893   7.387  14.851
70547SOL    HW113415   7.959   7.394   0.038
70547SOL    HW213416   7.891   7.294  14.829
70548SOL     OW13417  10.434  13.960   0.694
70548SOL    HW113418  10.469  13.881   0.652
70548SOL    HW213419  10.389  14.006   0.624
70549SOL     OW13420   3.093   1.847   5.424
70549SOL    HW113421   3.108   1.763   5.381
70549SOL    HW213422   3.001   1.843   5.452
70550SOL     OW13423  14.107  14.277  13.291
70550SOL    HW113424  14.062  14.199  13.260
70550SOL    HW213425  14.183  14.243  13.339
70551SOL     OW13426   0.571  10.703   0.490
70551SOL    HW113427   0.613  10.683   0.574
70551SOL    HW213428   0.617  10.780   0.458
70552SOL     OW13429  12.308   5.723   3.606
70552SOL    HW113430  12.253   5.784   3.655
70552SOL    HW213431  12.335   5.658   3.670
70553SOL     OW13432   2.201   0.013  14.849
70553SOL    HW113433   2.152  14.812  14.848
70553SOL    HW213434   2.209   0.036  14.756
70554SOL     OW13435   3.445  11.846   0.734
70554SOL    HW113436   3.406  11.782   0.794
70554SOL    HW213437   3.534  11.814   0.720
70555SOL     OW13438   4.104   7.400   2.775
70555SOL    HW113439   4.180   7.345   2.797
70555SOL    HW213440   4.063   7.419   2.859
70556SOL     OW13441   5.427  11.031  11.735
70556SOL    HW113442   5.349  11.019  11.681
70556SOL    HW213443   5.434  10.950  11.786
70557SOL     OW13444  13.431   1.295   4.099
70557SOL    HW113445  13.378   1.218   4.119
70557SOL    HW213446  13.504   1.291   4.160
70558SOL     OW13447   0.909  12.751  13.212
70558SOL    HW113448   1.004  12.763  13.218
70558SOL    HW213449   0.889  12.764  13.120
70559SOL     OW13450   1.922   7.458  12.045
70559SOL    HW113451   2.003   7.507  12.056
70559SOL    HW213452   1.864   7.519  11.998
70560SOL     OW13453  12.511   0.215   4.706
70560SOL    HW113454  12.428   0.171   4.726
70560SOL    HW213455  12.501   0.245   4.616
70561SOL     OW13456  10.070   4.574  10.732
70561SOL    HW113457  10.071   4.662  10.769
70561SOL    HW213458  10.049   4.517  10.806
70562SOL     OW13459  11.011   3.122   6.606
70562SOL    HW113460  11.057   3.046   6.641
70562SOL    HW213461  10.918   3.098   6.610
70563SOL     OW13462   0.262   9.796   9.525
70563SOL    HW113463   0.212   9.877   9.524
70563SOL    HW213464   0.218   9.741   9.589
70564SOL     OW13465   9.366  14.673   3.694
70564SOL    HW113466   9.418  14.745   3.728
70564SOL    HW213467   9.287  14.673   3.748
70565SOL     OW13468  10.721   6.689   2.977
70565SOL    HW113469  10.760   6.605   3.001
70565SOL    HW213470  10.628   6.669   2.963
70566SOL     OW13471  13.836   6.419   6.058
70566SOL    HW113472  13.926   6.401   6.030
70566SOL    HW213473  13.842   6.499   6.110
70567SOL     OW13474   2.743   7.673   8.944
70567SOL    HW113475   2.756   7.618   9.021
70567SOL    HW213476   2.756   7.614   8.869
70568SOL     OW13477   3.805   4.640   3.283
70568SOL    HW113478   3.721   4.639   3.331
70568SOL    HW213479   3.859   4.577   3.330
70569SOL     OW13480   4.457   1.073  12.544
70569SOL    HW113481   4.544   1.043  12.515
70569SOL    HW213482   4.417   0.995  12.583
70570SOL     OW13483   2.049  12.723   4.358
70570SOL    HW113484   1.973  12.772   4.327
70570SOL    HW213485   2.110  12.789   4.390
70571SOL     OW13486   0.936   9.537  13.343
70571SOL    HW113487   0.904   9.477  13.410
70571SOL    HW213488   1.020   9.500  13.315
70572SOL     OW13489   1.440  12.471   4.100
70572SOL    HW113490   1.402  12.386   4.125
70572SOL    HW213491   1.528  12.448   4.068
70573SOL     OW13492  14.274  14.168   3.699
70573SOL    HW113493  14.361  14.165   3.661
70573SOL    HW213494  14.278  14.109   3.774
70574SOL     OW13495  10.906   2.151  14.454
70574SOL    HW113496  10.917   2.240  14.423
70574SOL    HW213497  10.819   2.149  14.493
70575SOL     OW13498   8.473   4.229  10.157
70575SOL    HW113499   8.438   4.317  10.173
70575SOL    HW213500   8.425   4.173  10.217
70576SOL     OW13501   8.482   8.290   1.970
70576SOL    HW113502   8.457   8.198   1.971
70576SOL    HW213503   8.516   8.305   1.881
70577SOL     OW13504  10.553  10.902   2.817
70577SOL    HW113505  10.573  10.989   2.784
70577SOL    HW213506  10.547  10.847   2.739
70578SOL     OW13507   8.655  10.071   3.912
70578SOL    HW113508   8.712  10.126   3.966
70578SOL    HW213509   8.595  10.133   3.870
70579SOL     OW13510   4.247   4.789  11.308
70579SOL    HW113511   4.282   4.709  11.348
70579SOL    HW213512   4.168   4.759  11.261
70580SOL     OW13513   9.343  10.270   2.886
70580SOL    HW113514   9.260  10.244   2.846
70580SOL    HW213515   9.407  10.267   2.815
70581SOL     OW13516   3.688  12.663  12.116
70581SOL    HW113517   3.667  12.616  12.197
70581SOL    HW213518   3.783  12.652  12.106
70582SOL     OW13519  13.459  10.396  12.318
70582SOL    HW113520  13.380  10.447  12.301
70582SOL    HW213521  13.461  10.386  12.413
70583SOL     OW13522  14.285   6.316   0.916
70583SOL    HW113523  14.357   6.377   0.934
70583SOL    HW213524  14.269   6.273   0.999
70584SOL     OW13525   5.667  12.394   9.361
70584SOL    HW113526   5.759  12.414   9.378
70584SOL    HW213527   5.661  12.383   9.266
70585SOL     OW13528   5.166  10.489   7.810
70585SOL    HW113529   5.165  10.405   7.855
70585SOL    HW213530   5.212  10.548   7.870
70586SOL     OW13531  12.835   7.540   7.901
70586SOL    HW113532  12.810   7.621   7.946
70586SOL    HW213533  12.916   7.513   7.945
70587SOL     OW13534  10.403  13.834  10.890
70587SOL    HW113535  10.320  13.811  10.847
70587SOL    HW213536  10.418  13.926  10.866
70588SOL     OW13537  10.502   3.988   8.258
70588SOL    HW113538  10.561   4.040   8.312
70588SOL    HW213539  10.542   3.987   8.171
70589SOL     OW13540  12.531   4.364   5.346
70589SOL    HW113541  12.485   4.384   5.428
70589SOL    HW213542  12.546   4.270   5.350
70590SOL     OW13543  11.549   8.986   8.342
70590SOL    HW113544  11.625   8.928   8.331
70590SOL    HW213545  11.476   8.939   8.303
70591SOL     OW13546   3.410   2.262   2.653
70591SOL    HW113547   3.318   2.285   2.669
70591SOL    HW213548   3.410   2.223   2.566
70592SOL     OW13549   9.160   0.951   6.783
70592SOL    HW113550   9.184   0.860   6.768
70592SOL    HW213551   9.085   0.947   6.842
70593SOL     OW13552   4.066  13.445   2.044
70593SOL    HW113553   3.981  13.487   2.040
70593SOL    HW213554   4.048  13.351   2.036
70594SOL     OW13555   1.959  12.627  10.239
70594SOL    HW113556   1.992  12.690  10.175
70594SOL    HW213557   1.889  12.581  10.193
70595SOL     OW13558  11.395   1.647  10.819
70595SOL    HW113559  11.325   1.686  10.872
70595SOL    HW213560  11.476   1.682  10.858
70596SOL     OW13561   8.154  14.586   3.135
70596SOL    HW113562   8.150  14.665   3.189
70596SOL    HW213563   8.201  14.613   3.056
70597SOL     OW13564   8.346   3.831   5.687
70597SOL    HW113565   8.256   3.865   5.693
70597SOL    HW213566   8.390   3.892   5.628
70598SOL     OW13567  11.453   0.330   2.311
70598SOL    HW113568  11.385   0.352   2.376
70598SOL    HW213569  11.530   0.380   2.339
70599SOL     OW13570  13.170   3.172   4.120
70599SOL    HW113571  13.246   3.230   4.129
70599SOL    HW213572  13.129   3.199   4.038
70600SOL     OW13573  10.324  14.526   4.851
70600SOL    HW113574  10.286  14.472   4.781
70600SOL    HW213575  10.259  14.523   4.921
70601SOL     OW13576  10.075   6.064  13.885
70601SOL    HW113577  10.136   6.134  13.863
70601SOL    HW213578  10.030   6.095  13.963
70602SOL     OW13579   6.400  13.333   2.380
70602SOL    HW113580   6.467  13.314   2.445
70602SOL    HW213581   6.343  13.256   2.380
70603SOL     OW13582   6.292   0.350   1.979
70603SOL    HW113583   6.226   0.302   2.030
70603SOL    HW213584   6.346   0.394   2.044
70604SOL     OW13585   6.170   4.551  10.654
70604SOL    HW113586   6.196   4.575  10.743
70604SOL    HW213587   6.165   4.456  10.656
70605SOL     OW13588  12.547   3.800   7.860
70605SOL    HW113589  12.522   3.878   7.908
70605SOL    HW213590  12.464   3.761   7.832
70606SOL     OW13591   0.754  11.528   4.252
70606SOL    HW113592   0.717  11.494   4.334
70606SOL    HW213593   0.747  11.454   4.191
70607SOL     OW13594   6.576   7.658   2.754
70607SOL    HW113595   6.650   7.688   2.807
70607SOL    HW213596   6.519   7.735   2.745
70608SOL     OW13597   2.757  13.403   6.809
70608SOL    HW113598   2.668  13.367   6.800
70608SOL    HW213599   2.755  13.451   6.892
70609SOL     OW13600  11.212  11.114   3.892
70609SOL    HW113601  11.155  11.048   3.930
70609SOL    HW213602  11.261  11.067   3.824
70610SOL     OW13603  11.672   4.207  13.287
70610SOL    HW113604  11.745   4.161  13.246
70610SOL    HW213605  11.663   4.164  13.372
70611SOL     OW13606   2.381   4.571   3.040
70611SOL    HW113607   2.315   4.626   3.081
70611SOL    HW213608   2.399   4.503   3.104
70612SOL     OW13609  12.231  10.841   0.927
70612SOL    HW113610  12.167  10.899   0.967
70612SOL    HW213611  12.232  10.867   0.834
70613SOL     OW13612   3.509   3.779  10.679
70613SOL    HW113613   3.470   3.750  10.597
70613SOL    HW213614   3.464   3.861  10.700
70614SOL     OW13615  12.034   9.878   6.476
70614SOL    HW113616  11.972   9.840   6.538
70614SOL    HW213617  11.984   9.885   6.394
70615SOL     OW13618   9.396  14.833   5.622
70615SOL    HW113619   9.419  14.821   5.530
70615SOL    HW213620   9.346  14.755   5.645
70616SOL     OW13621   3.053  14.396   0.022
70616SOL    HW113622   3.145  14.379   0.004
70616SOL    HW213623   3.006  14.327  14.858
70617SOL     OW13624   0.467   4.751  11.287
70617SOL    HW113625   0.452   4.739  11.193
70617SOL    HW213626   0.395   4.808  11.315
70618SOL     OW13627   7.571   6.416   5.687
70618SOL    HW113628   7.601   6.356   5.756
70618SOL    HW213629   7.545   6.495   5.735
70619SOL     OW13630  12.976  13.190   6.540
70619SOL    HW113631  12.896  13.148   6.573
70619SOL    HW213632  12.966  13.189   6.445
70620SOL     OW13633   9.967   4.588  11.635
70620SOL    HW113634   9.975   4.641  11.557
70620SOL    HW213635   9.896   4.628  11.685
70621SOL     OW13636   3.240  10.078  14.320
70621SOL    HW113637   3.227  10.062  14.227
70621SOL    HW213638   3.211  10.169  14.333
70622SOL     OW13639   9.026  10.226  14.319
70622SOL    HW113640   8.978  10.217  14.401
70622SOL    HW213641   8.963  10.261  14.258
70623SOL     OW13642   8.604   1.281   9.800
70623SOL    HW113643   8.697   1.298   9.812
70623SOL    HW213644   8.560   1.345   9.857
70624SOL     OW13645  12.822   7.042   8.106
70624SOL    HW113646  12.812   7.124   8.059
70624SOL    HW213647  12.809   7.065   8.198
70625SOL     OW13648  11.871  11.573   2.201
70625SOL    HW113649  11.906  11.484   2.204
70625SOL    HW213650  11.946  11.629   2.221
70626SOL     OW13651   0.373   1.431   6.553
70626SOL    HW113652   0.396   1.483   6.476
70626SOL    HW213653   0.451   1.379   6.571
70627SOL     OW13654   1.111   6.995   7.559
70627SOL    HW113655   1.053   7.070   7.561
70627SOL    HW213656   1.152   6.997   7.473
70628SOL     OW13657   7.079  13.501   7.871
70628SOL    HW113658   7.086  13.530   7.780
70628SOL    HW213659   6.995  13.457   7.876
70629SOL     OW13660  13.849   0.541   7.355
70629SOL    HW113661  13.799   0.466   7.387
70629SOL    HW213662  13.896   0.573   7.432
70630SOL     OW13663   0.122  10.968   8.199
70630SOL    HW113664   0.106  10.922   8.282
70630SOL    HW213665   0.217  10.981   8.198
70631SOL     OW13666   0.022   4.423   5.056
70631SOL    HW113667   0.067   4.502   5.084
70631SOL    HW213668  14.812   4.436   5.082
70632SOL     OW13669   6.013   1.599   2.284
70632SOL    HW113670   6.002   1.694   2.280
70632SOL    HW213671   6.027   1.572   2.193
70633SOL     OW13672   9.003   1.811   7.033
70633SOL    HW113673   8.930   1.767   7.077
70633SOL    HW213674   8.994   1.903   7.059
70634SOL     OW13675   9.250   4.109   0.992
70634SOL    HW113676   9.295   4.062   1.062
70634SOL    HW213677   9.281   4.068   0.912
70635SOL     OW13678   7.425   0.419   3.809
70635SOL    HW113679   7.506   0.370   3.796
70635SOL    HW213680   7.356   0.359   3.780
70636SOL     OW13681   2.384   7.283  13.334
70636SOL    HW113682   2.339   7.214  13.285
70636SOL    HW213683   2.349   7.276  13.423
70637SOL     OW13684  11.463   0.435  14.809
70637SOL    HW113685  11.492   0.502  14.747
70637SOL    HW213686  11.470   0.477   0.013
70638SOL     OW13687   2.989   2.130   9.005
70638SOL    HW113688   3.074   2.173   9.016
70638SOL    HW213689   2.978   2.122   8.911
70639SOL     OW13690   5.640  14.826   9.533
70639SOL    HW113691   5.648   0.002   9.609
70639SOL    HW213692   5.605  14.744   9.568
70640SOL     OW13693   5.560  12.931  13.169
70640SOL    HW113694   5.625  12.958  13.234
70640SOL    HW213695   5.497  13.003  13.167
70641SOL     OW13696   5.341   8.594   8.172
70641SOL    HW113697   5.363   8.632   8.257
70641SOL    HW213698   5.287   8.660   8.130
70642SOL     OW13699   5.221  11.481  10.507
70642SOL    HW113700   5.157  11.536  10.552
70642SOL    HW213701   5.170  11.431  10.443
70643SOL     OW13702   9.539   0.095   2.203
70643SOL    HW113703   9.463   0.145   2.174
70643SOL    HW213704   9.521   0.005   2.176
70644SOL     OW13705   8.912   3.603   1.909
70644SOL    HW113706   8.962   3.668   1.860
70644SOL    HW213707   8.924   3.522   1.860
70645SOL     OW13708   5.815   7.452   8.542
70645SOL    HW113709   5.802   7.536   8.496
70645SOL    HW213710   5.727   7.422   8.562
70646SOL     OW13711   9.608  11.505   7.241
70646SOL    HW113712   9.652  11.423   7.220
70646SOL    HW213713   9.522  11.498   7.199
70647SOL     OW13714   6.372   9.985   1.335
70647SOL    HW113715   6.283  10.020   1.341
70647SOL    HW213716   6.382   9.931   1.413
70648SOL     OW13717   4.854   6.660   9.744
70648SOL    HW113718   4.862   6.729   9.809
70648SOL    HW213719   4.941   6.620   9.742
70649SOL     OW13720  10.719  12.050  14.528
70649SOL    HW113721  10.653  12.118  14.538
70649SOL    HW213722  10.741  12.052  14.434
70650SOL     OW13723   8.967   9.394   2.995
70650SOL    HW113724   8.993   9.314   3.042
70650SOL    HW213725   9.016   9.390   2.913
70651SOL     OW13726  12.298  14.579   9.279
70651SOL    HW113727  12.342  14.642   9.222
70651SOL    HW213728  12.219  14.554   9.232
70652SOL     OW13729   2.190   6.612   3.416
70652SOL    HW113730   2.131   6.666   3.363
70652SOL    HW213731   2.152   6.613   3.504
70653SOL     OW13732   9.611   5.217   1.285
70653SOL    HW113733   9.642   5.307   1.275
70653SOL    HW213734   9.677   5.163   1.241
70654SOL     OW13735  12.810   4.851   1.283
70654SOL    HW113736  12.735   4.908   1.298
70654SOL    HW213737  12.885   4.903   1.310
70655SOL     OW13738   0.430  13.917  13.950
70655SOL    HW113739   0.410  13.825  13.967
70655SOL    HW213740   0.525  13.923  13.955
70656SOL     OW13741   6.034   7.898  10.483
70656SOL    HW113742   6.041   7.861  10.395
70656SOL    HW213743   5.958   7.956  10.479
70657SOL     OW13744  12.815  13.636   9.688
70657SOL    HW113745  12.727  13.621   9.655
70657SOL    HW213746  12.834  13.558   9.740
70658SOL     OW13747   8.984  13.370   6.035
70658SOL    HW113748   8.979  13.284   6.077
70658SOL    HW213749   9.010  13.430   6.105
70659SOL     OW13750   9.306  13.051   5.075
70659SOL    HW113751   9.369  13.123   5.085
70659SOL    HW213752   9.356  12.972   5.098
70660SOL     OW13753   4.725   1.932   7.028
70660SOL    HW113754   4.702   1.898   6.941
70660SOL    HW213755   4.659   1.895   7.087
70661SOL     OW13756   8.078   7.679   2.699
70661SOL    HW113757   8.021   7.631   2.759
70661SOL    HW213758   8.018   7.723   2.639
70662SOL     OW13759   1.084  11.474   4.424
70662SOL    HW113760   1.004  11.497   4.376
70662SOL    HW213761   1.141  11.435   4.357
70663SOL     OW13762   7.707   0.176   5.868
70663SOL    HW113763   7.781   0.228   5.899
70663SOL    HW213764   7.683   0.122   5.943
70664SOL     OW13765  12.102   2.167   7.623
70664SOL    HW113766  12.014   2.203   7.634
70664SOL    HW213767  12.100   2.122   7.538
70665SOL     OW13768  13.183   3.973  12.199
70665SOL    HW113769  13.119   3.926  12.252
70665SOL    HW213770  13.190   3.923  12.118
70666SOL     OW13771  11.838  13.722   5.115
70666SOL    HW113772  11.764  13.758   5.065
70666SOL    HW213773  11.864  13.793   5.173
70667SOL     OW13774   0.184  12.958   0.689
70667SOL    HW113775   0.222  13.014   0.758
70667SOL    HW213776   0.129  12.896   0.736
70668SOL     OW13777   8.836   4.741   5.638
70668SOL    HW113778   8.891   4.806   5.683
70668SOL    HW213779   8.830   4.668   5.700
70669SOL     OW13780   5.338   7.351  11.403
70669SOL    HW113781   5.388   7.327  11.482
70669SOL    HW213782   5.375   7.436  11.377
70670SOL     OW13783   8.405   4.299   9.485
70670SOL    HW113784   8.462   4.223   9.495
70670SOL    HW213785   8.381   4.323   9.575
70671SOL     OW13786   8.849  10.996   0.598
70671SOL    HW113787   8.871  10.948   0.678
70671SOL    HW213788   8.805  10.932   0.543
70672SOL     OW13789  10.348  11.925  13.328
70672SOL    HW113790  10.371  11.885  13.412
70672SOL    HW213791  10.420  11.902  13.270
70673SOL     OW13792   6.023  14.526   2.071
70673SOL    HW113793   5.975  14.602   2.036
70673SOL    HW213794   6.105  14.526   2.022
70674SOL     OW13795  12.861   5.771   9.516
70674SOL    HW113796  12.772   5.739   9.500
70674SOL    HW213797  12.861   5.794   9.609
70675SOL     OW13798   8.644   8.201   6.832
70675SOL    HW113799   8.610   8.174   6.918
70675SOL    HW213800   8.655   8.119   6.784
70676SOL     OW13801  13.490   9.929  13.707
70676SOL    HW113802  13.447   9.992  13.649
70676SOL    HW213803  13.548   9.879  13.649
70677SOL     OW13804   6.243  12.234   7.000
70677SOL    HW113805   6.230  12.229   7.095
70677SOL    HW213806   6.307  12.303   6.987
70678SOL     OW13807  11.394   7.935  11.201
70678SOL    HW113808  11.485   7.925  11.231
70678SOL    HW213809  11.342   7.893  11.269
70679SOL     OW13810   1.999   4.322  11.954
70679SOL    HW113811   2.044   4.325  11.870
70679SOL    HW213812   2.054   4.265  12.008
70680SOL     OW13813   2.204   8.459  10.946
70680SOL    HW113814   2.289   8.448  10.988
70680SOL    HW213815   2.143   8.474  11.018
70681SOL     OW13816   0.789   8.366  13.086
70681SOL    HW113817   0.824   8.452  13.066
70681SOL    HW213818   0.814   8.351  13.178
70682SOL     OW13819  14.367   9.136   3.102
70682SOL    HW113820  14.415   9.073   3.048
70682SOL    HW213821  14.321   9.082   3.166
70683SOL     OW13822  11.795   8.218   5.768
70683SOL    HW113823  11.763   8.174   5.847
70683SOL    HW213824  11.753   8.304   5.771
70684SOL     OW13825   2.009   0.475   2.054
70684SOL    HW113826   1.985   0.560   2.090
70684SOL    HW213827   1.926   0.437   2.024
70685SOL     OW13828   1.177   3.674   3.207
70685SOL    HW113829   1.207   3.764   3.189
70685SOL    HW213830   1.082   3.680   3.204
70686SOL     OW13831  10.602  12.954  11.952
70686SOL    HW113832  10.660  13.012  11.903
70686SOL    HW213833  10.521  12.952  11.900
70687SOL     OW13834   6.958   1.213  10.880
70687SOL    HW113835   6.894   1.156  10.923
70687SOL    HW213836   6.908   1.289  10.852
70688SOL     OW13837   0.783   4.656   5.911
70688SOL    HW113838   0.711   4.631   5.852
70688SOL    HW213839   0.776   4.594   5.984
70689SOL     OW13840  11.077   2.731   2.924
70689SOL    HW113841  11.150   2.706   2.868
70689SOL    HW213842  11.114   2.797   2.983
70690SOL     OW13843   3.515   8.026   8.178
70690SOL    HW113844   3.556   7.941   8.162
70690SOL    HW213845   3.501   8.028   8.273
70691SOL     OW13846   5.329  13.155  13.173
70691SOL    HW113847   5.271  13.085  13.201
70691SOL    HW213848   5.271  13.229  13.155
70692SOL     OW13849   3.097   3.802  13.862
70692SOL    HW113850   3.088   3.896  13.846
70692SOL    HW213851   3.097   3.794  13.957
70693SOL     OW13852   0.267   2.602   1.751
70693SOL    HW113853   0.322   2.672   1.786
70693SOL    HW213854   0.317   2.568   1.676
70694SOL     OW13855   1.599   9.186   2.585
70694SOL    HW113856   1.504   9.196   2.584
70694SOL    HW213857   1.630   9.240   2.513
70695SOL     OW13858   9.628   2.541  10.051
70695SOL    HW113859   9.607   2.579   9.965
70695SOL    HW213860   9.702   2.592  10.082
70696SOL     OW13861  11.979   2.895   5.486
70696SOL    HW113862  12.013   2.920   5.400
70696SOL    HW213863  11.912   2.960   5.506
70697SOL     OW13864  10.830   9.651   4.028
70697SOL    HW113865  10.760   9.617   3.972
70697SOL    HW213866  10.876   9.714   3.974
70698SOL     OW13867   8.397   8.230   0.690
70698SOL    HW113868   8.384   8.325   0.680
70698SOL    HW213869   8.440   8.222   0.776
70699SOL     OW13870   5.618  12.740   1.189
70699SOL    HW113871   5.711  12.761   1.179
70699SOL    HW213872   5.610  12.651   1.156
70700SOL     OW13873  10.312   6.931   6.196
70700SOL    HW113874  10.275   7.014   6.167
70700SOL    HW213875  10.382   6.912   6.134
70701SOL     OW13876  12.758   2.041   9.070
70701SOL    HW113877  12.712   2.031   8.987
70701SOL    HW213878  12.724   2.122   9.107
70702SOL     OW13879  11.783   5.444   2.327
70702SOL    HW113880  11.776   5.443   2.232
70702SOL    HW213881  11.694   5.427   2.358
70703SOL     OW13882   6.168  12.730  10.043
70703SOL    HW113883   6.091  12.773  10.079
70703SOL    HW213884   6.176  12.649  10.093
70704SOL     OW13885   3.437   1.378  13.725
70704SOL    HW113886   3.413   1.455  13.674
70704SOL    HW213887   3.371   1.374  13.794
70705SOL     OW13888   2.622   7.223  13.072
70705SOL    HW113889   2.659   7.153  13.126
70705SOL    HW213890   2.553   7.261  13.126
70706SOL     OW13891  10.951  12.374   7.764
70706SOL    HW113892  10.989  12.451   7.806
70706SOL    HW213893  10.924  12.318   7.836
70707SOL     OW13894   0.084  11.489   3.840
70707SOL    HW113895   0.150  11.450   3.783
70707SOL    HW213896   0.081  11.431   3.916
70708SOL     OW13897   6.116   5.548   4.113
70708SOL    HW113898   6.154   5.467   4.079
70708SOL    HW213899   6.026   5.547   4.083
70709SOL     OW13900   6.147   3.704   0.647
70709SOL    HW113901   6.227   3.752   0.666
70709SOL    HW213902   6.146   3.633   0.711
70710SOL     OW13903  14.636  10.070   3.896
70710SOL    HW113904  14.646  10.160   3.927
70710SOL    HW213905  14.725  10.035   3.893
70711SOL     OW13906   7.293   8.627   0.689
70711SOL    HW113907   7.381   8.607   0.721
70711SOL    HW213908   7.308   8.686   0.615
70712SOL     OW13909   8.515   0.773  11.753
70712SOL    HW113910   8.468   0.857  11.759
70712SOL    HW213911   8.587   0.781  11.815
70713SOL     OW13912   9.997   1.953   3.944
70713SOL    HW113913   9.915   1.915   3.976
70713SOL    HW213914  10.060   1.936   4.013
70714SOL     OW13915   8.252   4.728   0.152
70714SOL    HW113916   8.161   4.751   0.169
70714SOL    HW213917   8.289   4.710   0.238
70715SOL     OW13918   3.658   9.719   8.427
70715SOL    HW113919   3.657   9.684   8.516
70715SOL    HW213920   3.662   9.814   8.439
70716SOL     OW13921   3.953  14.826   6.671
70716SOL    HW113922   4.040  14.863   6.654
70716SOL    HW213923   3.969  14.733   6.687
70717SOL     OW13924   9.756  11.762   4.222
70717SOL    HW113925   9.789  11.708   4.150
70717SOL    HW213926   9.770  11.708   4.300
70718SOL     OW13927   8.983   0.939   1.441
70718SOL    HW113928   9.031   0.878   1.498
70718SOL    HW213929   8.970   0.889   1.360
70719SOL     OW13930   8.543  13.469   5.472
70719SOL    HW113931   8.462  13.435   5.435
70719SOL    HW213932   8.569  13.540   5.413
70720SOL     OW13933   2.608   8.154   0.396
70720SOL    HW113934   2.632   8.192   0.311
70720SOL    HW213935   2.607   8.060   0.381
70721SOL     OW13936  14.045  12.210   7.005
70721SOL    HW113937  14.098  12.182   6.930
70721SOL    HW213938  13.981  12.270   6.967
70722SOL     OW13939  11.826   0.865   0.438
70722SOL    HW113940  11.788   0.777   0.434
70722SOL    HW213941  11.788   0.911   0.364
70723SOL     OW13942  10.887   9.667  11.174
70723SOL    HW113943  10.829   9.624  11.236
70723SOL    HW213944  10.947   9.599  11.144
70724SOL     OW13945   1.273  14.452   8.773
70724SOL    HW113946   1.345  14.508   8.745
70724SOL    HW213947   1.214  14.449   8.697
70725SOL     OW13948   6.589  13.547   9.397
70725SOL    HW113949   6.651  13.621   9.399
70725SOL    HW213950   6.571  13.529   9.490
70726SOL     OW13951  12.024  10.919  12.186
70726SOL    HW113952  12.098  10.966  12.148
70726SOL    HW213953  11.986  10.871  12.112
70727SOL     OW13954   8.920   7.395   8.138
70727SOL    HW113955   8.899   7.303   8.154
70727SOL    HW213956   8.998   7.393   8.083
70728SOL     OW13957   8.330   9.125   8.106
70728SOL    HW113958   8.414   9.167   8.088
70728SOL    HW213959   8.304   9.160   8.191
70729SOL     OW13960  14.863   6.142   4.026
70729SOL    HW113961  14.803   6.181   4.089
70729SOL    HW213962   0.053   6.107   4.079
70730SOL     OW13963   0.011  11.439   9.813
70730SOL    HW113964  14.818  11.423   9.756
70730SOL    HW213965   0.075  11.371   9.790
70731SOL     OW13966   6.111   1.863  12.885
70731SOL    HW113967   6.149   1.949  12.867
70731SOL    HW213968   6.111   1.818  12.800
70732SOL     OW13969   2.230  13.665   5.930
70732SOL    HW113970   2.211  13.590   5.873
70732SOL    HW213971   2.145  13.687   5.969
70733SOL     OW13972  13.600   5.361   5.607
70733SOL    HW113973  13.662   5.433   5.618
70733SOL    HW213974  13.650   5.293   5.563
70734SOL     OW13975   2.521   7.775  14.594
70734SOL    HW113976   2.454   7.800  14.658
70734SOL    HW213977   2.596   7.832  14.614
70735SOL     OW13978   4.740   5.040  14.419
70735SOL    HW113979   4.679   5.021  14.349
70735SOL    HW213980   4.797   4.962  14.423
70736SOL     OW13981   0.398   6.604   5.706
70736SOL    HW113982   0.373   6.636   5.619
70736SOL    HW213983   0.393   6.681   5.762
70737SOL     OW13984   6.247  14.794   5.863
70737SOL    HW113985   6.273  14.881   5.895
70737SOL    HW213986   6.152  14.797   5.860
70738SOL     OW13987   4.812   4.169  13.750
70738SOL    HW113988   4.841   4.172  13.659
70738SOL    HW213989   4.840   4.253  13.787
70739SOL     OW13990   0.111  12.950   4.399
70739SOL    HW113991   0.177  13.009   4.362
70739SOL    HW213992   0.035  12.962   4.343
70740SOL     OW13993   7.597  11.469  10.676
70740SOL    HW113994   7.577  11.395  10.620
70740SOL    HW213995   7.559  11.446  10.761
70741SOL     OW13996   4.147  12.331   8.945
70741SOL    HW113997   4.177  12.362   9.031
70741SOL    HW213998   4.068  12.280   8.963
70742SOL     OW13999   5.693  10.199   3.958
70742SOL    HW114000   5.628  10.269   3.964
70742SOL    HW214001   5.773  10.244   3.931
70743SOL     OW14002  13.346  10.858   0.744
70743SOL    HW114003  13.400  10.811   0.681
70743SOL    HW214004  13.296  10.790   0.789
70744SOL     OW14005  11.408   2.287   0.523
70744SOL    HW114006  11.391   2.382   0.526
70744SOL    HW214007  11.372   2.259   0.438
70745SOL     OW14008   6.119   5.189   2.600
70745SOL    HW114009   6.181   5.171   2.529
70745SOL    HW214010   6.034   5.171   2.562
70746SOL     OW14011   5.120  10.962   7.174
70746SOL    HW114012   5.031  10.984   7.147
70746SOL    HW214013   5.156  11.044   7.208
70747SOL     OW14014   7.854   3.940   8.261
70747SOL    HW114015   7.845   3.923   8.167
70747SOL    HW214016   7.942   3.912   8.283
70748SOL     OW14017   9.877   3.040   1.448
70748SOL    HW114018   9.930   3.036   1.528
70748SOL    HW214019   9.937   3.012   1.379
70749SOL     OW14020  11.809  14.191   2.317
70749SOL    HW114021  11.854  14.157   2.395
70749SOL    HW214022  11.716  14.180   2.336
70750SOL     OW14023   0.875   5.300  13.989
70750SOL    HW114024   0.936   5.226  13.994
70750SOL    HW214025   0.790   5.263  14.014
70751SOL     OW14026  12.606  14.724   1.238
70751SOL    HW114027  12.565  14.772   1.311
70751SOL    HW214028  12.532  14.690   1.187
70752SOL     OW14029   0.756  14.533   4.781
70752SOL    HW114030   0.752  14.484   4.699
70752SOL    HW214031   0.811  14.608   4.761
70753SOL     OW14032   8.394   9.613   0.820
70753SOL    HW114033   8.433   9.576   0.740
70753SOL    HW214034   8.311   9.649   0.791
70754SOL     OW14035   9.210   7.201  14.744
70754SOL    HW114036   9.225   7.199  14.839
70754SOL    HW214037   9.138   7.140  14.730
70755SOL     OW14038   0.833  13.103   2.437
70755SOL    HW114039   0.862  13.127   2.349
70755SOL    HW214040   0.911  13.069   2.480
70756SOL     OW14041  11.613   4.718   4.669
70756SOL    HW114042  11.709   4.725   4.664
70756SOL    HW214043  11.588   4.678   4.586
70757SOL     OW14044   2.480   6.701   8.248
70757SOL    HW114045   2.515   6.789   8.233
70757SOL    HW214046   2.557   6.646   8.259
70758SOL     OW14047   3.583   3.667   4.493
70758SOL    HW114048   3.585   3.637   4.584
70758SOL    HW214049   3.501   3.633   4.459
70759SOL     OW14050   5.122   2.570  13.827
70759SOL    HW114051   5.102   2.522  13.907
70759SOL    HW214052   5.216   2.557  13.814
70760SOL     OW14053   4.472   4.811   7.894
70760SOL    HW114054   4.382   4.780   7.899
70760SOL    HW214055   4.498   4.795   7.803
70761SOL     OW14056   7.826  11.999  10.568
70761SOL    HW114057   7.804  11.946  10.492
70761SOL    HW214058   7.870  11.938  10.627
70762SOL     OW14059   1.770   5.315   8.055
70762SOL    HW114060   1.755   5.315   7.960
70762SOL    HW214061   1.753   5.225   8.081
70763SOL     OW14062   6.049   7.596  10.201
70763SOL    HW114063   6.062   7.501  10.198
70763SOL    HW214064   5.955   7.606  10.218
70764SOL     OW14065   5.587   0.921   4.906
70764SOL    HW114066   5.587   0.892   4.815
70764SOL    HW214067   5.667   0.974   4.914
70765SOL     OW14068   0.349   5.427   1.739
70765SOL    HW114069   0.341   5.493   1.807
70765SOL    HW214070   0.360   5.477   1.658
70766SOL     OW14071  12.450   9.566  11.750
70766SOL    HW114072  12.527   9.540  11.799
70766SOL    HW214073  12.441   9.499  11.682
70767SOL     OW14074   3.398  11.775   1.868
70767SOL    HW114075   3.335  11.725   1.817
70767SOL    HW214076   3.345  11.825   1.929
70768SOL     OW14077  11.335   6.789  14.495
70768SOL    HW114078  11.394   6.865  14.494
70768SOL    HW214079  11.332   6.762  14.587
70769SOL     OW14080   3.877   8.583  10.175
70769SOL    HW114081   3.914   8.541  10.252
70769SOL    HW214082   3.907   8.530  10.102
70770SOL     OW14083   9.422   1.758   2.424
70770SOL    HW114084   9.457   1.686   2.475
70770SOL    HW214085   9.391   1.717   2.343
70771SOL     OW14086  12.498   2.268   3.143
70771SOL    HW114087  12.450   2.318   3.077
70771SOL    HW214088  12.438   2.259   3.216
70772SOL     OW14089   7.288   4.605   2.972
70772SOL    HW114090   7.327   4.547   3.037
70772SOL    HW214091   7.211   4.641   3.016
70773SOL     OW14092   1.547  14.042  12.348
70773SOL    HW114093   1.524  14.129  12.381
70773SOL    HW214094   1.508  13.982  12.411
70774SOL     OW14095   8.636   7.650   3.563
70774SOL    HW114096   8.684   7.568   3.573
70774SOL    HW214097   8.546   7.623   3.544
70775SOL     OW14098   9.241   0.744   5.506
70775SOL    HW114099   9.207   0.656   5.489
70775SOL    HW214100   9.335   0.733   5.520
70776SOL     OW14101   8.415  10.950   3.595
70776SOL    HW114102   8.403  10.959   3.500
70776SOL    HW214103   8.329  10.924   3.628
70777SOL     OW14104   5.501   4.589  10.816
70777SOL    HW114105   5.463   4.509  10.854
70777SOL    HW214106   5.585   4.561  10.780
70778SOL     OW14107   0.203   1.256   3.418
70778SOL    HW114108   0.141   1.244   3.346
70778SOL    HW214109   0.170   1.331   3.467
70779SOL     OW14110   5.048   3.120   8.707
70779SOL    HW114111   4.972   3.098   8.653
70779SOL    HW214112   5.011   3.170   8.780
70780SOL     OW14113   6.446   8.396   7.762
70780SOL    HW114114   6.539   8.405   7.745
70780SOL    HW214115   6.439   8.397   7.858
70781SOL     OW14116  12.245  12.415   9.648
70781SOL    HW114117  12.229  12.507   9.668
70781SOL    HW214118  12.340  12.407   9.645
70782SOL     OW14119   5.526   1.284  13.331
70782SOL    HW114120   5.437   1.258  13.356
70782SOL    HW214121   5.577   1.278  13.412
70783SOL     OW14122   8.859  14.879   4.000
70783SOL    HW114123   8.789  14.824   3.964
70783SOL    HW214124   8.877  14.842   4.086
70784SOL     OW14125   7.841   0.501   2.917
70784SOL    HW114126   7.880   0.522   2.831
70784SOL    HW214127   7.906   0.443   2.958
70785SOL     OW14128   6.304   5.949   6.867
70785SOL    HW114129   6.361   5.926   6.793
70785SOL    HW214130   6.249   5.871   6.880
70786SOL     OW14131   3.031  10.262   4.265
70786SOL    HW114132   3.106  10.275   4.207
70786SOL    HW214133   3.006  10.351   4.291
70787SOL     OW14134   4.479   7.629   0.071
70787SOL    HW114135   4.420   7.600   0.001
70787SOL    HW214136   4.453   7.579   0.148
70788SOL     OW14137   0.956  12.607   1.812
70788SOL    HW114138   0.862  12.588   1.809
70788SOL    HW214139   0.962  12.691   1.858
70789SOL     OW14140   6.740   6.652  14.643
70789SOL    HW114141   6.752   6.718  14.711
70789SOL    HW214142   6.823   6.605  14.640
70790SOL     OW14143   2.734  13.821   5.065
70790SOL    HW114144   2.697  13.810   4.977
70790SOL    HW214145   2.827  13.798   5.054
70791SOL     OW14146  10.322   2.159   8.156
70791SOL    HW114147  10.375   2.137   8.233
70791SOL    HW214148  10.384   2.169   8.085
70792SOL     OW14149  10.428  13.721  13.097
70792SOL    HW114150  10.456  13.688  13.012
70792SOL    HW214151  10.373  13.797  13.076
70793SOL     OW14152  12.289   7.071   1.716
70793SOL    HW114153  12.301   7.081   1.622
70793SOL    HW214154  12.361   7.120   1.755
70794SOL     OW14155   1.893   2.349  10.003
70794SOL    HW114156   1.845   2.303   9.935
70794SOL    HW214157   1.827   2.402  10.048
70795SOL     OW14158  13.394   1.282   7.795
70795SOL    HW114159  13.360   1.213   7.852
70795SOL    HW214160  13.332   1.355   7.805
70796SOL     OW14161   0.376   4.045  12.150
70796SOL    HW114162   0.305   3.998  12.107
70796SOL    HW214163   0.333   4.093  12.221
70797SOL     OW14164   9.850  14.828   9.269
70797SOL    HW114165   9.755  14.825   9.279
70797SOL    HW214166   9.869  14.759   9.206
70798SOL     OW14167   4.954   6.057  13.417
70798SOL    HW114168   4.967   6.012  13.333
70798SOL    HW214169   4.893   6.128  13.397
70799SOL     OW14170   1.721   3.269   9.306
70799SOL    HW114171   1.806   3.313   9.302
70799SOL    HW214172   1.677   3.293   9.225
70800SOL     OW14173   8.151   1.072   6.153
70800SOL    HW114174   8.061   1.070   6.120
70800SOL    HW214175   8.144   1.115   6.238
70801SOL     OW14176   4.577   0.924   1.545
70801SOL    HW114177   4.541   0.856   1.488
70801SOL    HW214178   4.664   0.891   1.568
70802SOL     OW14179  11.385   5.961   4.214
70802SOL    HW114180  11.409   6.004   4.296
70802SOL    HW214181  11.394   5.867   4.232
70803SOL     OW14182   3.638   7.828   5.119
70803SOL    HW114183   3.583   7.877   5.179
70803SOL    HW214184   3.721   7.816   5.166
70804SOL     OW14185   5.049  11.714  10.973
70804SOL    HW114186   5.085  11.739  11.058
70804SOL    HW214187   4.981  11.780  10.956
70805SOL     OW14188  14.044  13.033  11.827
70805SOL    HW114189  14.099  12.955  11.834
70805SOL    HW214190  13.960  13.000  11.796
70806SOL     OW14191  11.512   8.838   5.698
70806SOL    HW114192  11.490   8.905   5.633
70806SOL    HW214193  11.608   8.842   5.704
70807SOL     OW14194  13.920  11.441   8.475
70807SOL    HW114195  13.914  11.357   8.430
70807SOL    HW214196  14.009  11.471   8.457
70808SOL     OW14197   1.553  11.215  12.761
70808SOL    HW114198   1.531  11.220  12.668
70808SOL    HW214199   1.522  11.298  12.797
70809SOL     OW14200   8.932   9.752  14.821
70809SOL    HW114201   8.953   9.837  14.784
70809SOL    HW214202   8.990   9.691  14.775
70810SOL     OW14203   1.654  13.442   8.424
70810SOL    HW114204   1.587  13.397   8.372
70810SOL    HW214205   1.605  13.506   8.476
70811SOL     OW14206   6.120  10.079   1.327
70811SOL    HW114207   6.101  10.166   1.291
70811SOL    HW214208   6.040  10.029   1.310
70812SOL     OW14209  10.359   8.821  13.693
70812SOL    HW114210  10.306   8.744  13.671
70812SOL    HW214211  10.298   8.881  13.736
70813SOL     OW14212   7.112   7.639  10.055
70813SOL    HW114213   7.032   7.690  10.061
70813SOL    HW214214   7.090   7.555  10.095
70814SOL     OW14215  13.618   5.407  12.013
70814SOL    HW114216  13.588   5.497  12.027
70814SOL    HW214217  13.704   5.417  11.972
70815SOL     OW14218  14.743  13.847   8.819
70815SOL    HW114219  14.774  13.937   8.826
70815SOL    HW214220  14.726  13.820   8.909
70816SOL     OW14221   9.951   9.605   8.079
70816SOL    HW114222   9.874   9.548   8.078
70816SOL    HW214223   9.924   9.681   8.129
70817SOL     OW14224   1.211   2.433  10.561
70817SOL    HW114225   1.255   2.461  10.641
70817SOL    HW214226   1.144   2.499  10.546
70818SOL     OW14227   3.194   8.775  14.734
70818SOL    HW114228   3.238   8.690  14.738
70818SOL    HW214229   3.263   8.836  14.709
70819SOL     OW14230   4.432   6.825   2.733
70819SOL    HW114231   4.366   6.871   2.680
70819SOL    HW214232   4.383   6.790   2.807
70820SOL     OW14233   0.989  13.074   7.248
70820SOL    HW114234   0.933  13.130   7.302
70820SOL    HW214235   0.988  13.116   7.161
70821SOL     OW14236   6.607   9.315   7.782
70821SOL    HW114237   6.545   9.306   7.854
70821SOL    HW214238   6.598   9.406   7.753
70822SOL     OW14239  12.101  12.403  13.784
70822SOL    HW114240  12.124  12.493  13.761
70822SOL    HW214241  12.091  12.358  13.700
70823SOL     OW14242   2.508   7.977   6.632
70823SOL    HW114243   2.539   8.052   6.683
70823SOL    HW214244   2.587   7.942   6.591
70824SOL     OW14245   5.440   7.215   0.189
70824SOL    HW114246   5.378   7.146   0.214
70824SOL    HW214247   5.479   7.184   0.107
70825SOL     OW14248   5.554   1.274   9.132
70825SOL    HW114249   5.535   1.361   9.096
70825SOL    HW214250   5.602   1.292   9.213
70826SOL     OW14251   8.931   2.679  10.942
70826SOL    HW114252   8.930   2.587  10.916
70826SOL    HW214253   9.023   2.698  10.963
70827SOL     OW14254   6.735   1.860  10.481
70827SOL    HW114255   6.677   1.790  10.449
70827SOL    HW214256   6.744   1.842  10.575
70828SOL     OW14257   5.984   6.168   7.280
70828SOL    HW114258   5.953   6.253   7.252
70828SOL    HW214259   5.999   6.120   7.198
70829SOL     OW14260   4.538   0.807   0.821
70829SOL    HW114261   4.563   0.854   0.900
70829SOL    HW214262   4.532   0.715   0.849
70830SOL     OW14263  14.362  14.573  14.413
70830SOL    HW114264  14.412  14.492  14.404
70830SOL    HW214265  14.276  14.545  14.446
70831SOL     OW14266  10.153   6.937   7.766
70831SOL    HW114267  10.092   6.914   7.696
70831SOL    HW214268  10.189   6.853   7.795
70832SOL     OW14269   8.742  14.345   9.901
70832SOL    HW114270   8.805  14.278   9.927
70832SOL    HW214271   8.662  14.297   9.882
70833SOL     OW14272   4.137  13.504   5.564
70833SOL    HW114273   4.183  13.546   5.491
70833SOL    HW214274   4.050  13.543   5.563
70834SOL     OW14275   9.565   8.837   3.705
70834SOL    HW114276   9.646   8.878   3.674
70834SOL    HW214277   9.517   8.908   3.748
70835SOL     OW14278  12.385   4.624   9.768
70835SOL    HW114279  12.388   4.719   9.755
70835SOL    HW214280  12.294   4.601   9.752
70836SOL     OW14281  12.914   5.523   4.764
70836SOL    HW114282  12.838   5.562   4.722
70836SOL    HW214283  12.879   5.444   4.806
70837SOL     OW14284   1.019  11.573  11.650
70837SOL    HW114285   1.024  11.662  11.686
70837SOL    HW214286   0.977  11.522  11.718
70838SOL     OW14287   2.714   6.587   6.199
70838SOL    HW114288   2.669   6.603   6.282
70838SOL    HW214289   2.799   6.630   6.208
70839SOL     OW14290  13.398   8.318   8.872
70839SOL    HW114291  13.417   8.242   8.927
70839SOL    HW214292  13.338   8.286   8.806
70840SOL     OW14293   7.553   8.581   0.417
70840SOL    HW114294   7.465   8.602   0.450
70840SOL    HW214295   7.540   8.505   0.361
70841SOL     OW14296   6.712   1.842   0.751
70841SOL    HW114297   6.778   1.801   0.807
70841SOL    HW214298   6.721   1.797   0.667
70842SOL     OW14299   7.006   4.344   4.989
70842SOL    HW114300   7.010   4.437   4.967
70842SOL    HW214301   6.962   4.303   4.915
70843SOL     OW14302   0.446  11.094   0.422
70843SOL    HW114303   0.351  11.101   0.410
70843SOL    HW214304   0.459  11.097   0.516
70844SOL     OW14305   6.501   7.569  10.846
70844SOL    HW114306   6.539   7.654  10.824
70844SOL    HW214307   6.573   7.506  10.835
70845SOL     OW14308   0.341   8.704   9.321
70845SOL    HW114309   0.368   8.616   9.349
70845SOL    HW214310   0.412   8.761   9.350
70846SOL     OW14311   9.991   2.587   8.727
70846SOL    HW114312   9.935   2.664   8.722
70846SOL    HW214313  10.023   2.574   8.638
70847SOL     OW14314  11.130  10.542   3.581
70847SOL    HW114315  11.056  10.601   3.573
70847SOL    HW214316  11.099  10.459   3.546
70848SOL     OW14317  12.311  10.657  12.657
70848SOL    HW114318  12.217  10.673  12.661
70848SOL    HW214319  12.338  10.695  12.573
70849SOL     OW14320   5.788   0.763  13.506
70849SOL    HW114321   5.738   0.706  13.565
70849SOL    HW214322   5.740   0.846  13.506
70850SOL     OW14323   8.819   0.582  13.302
70850SOL    HW114324   8.905   0.576  13.260
70850SOL    HW214325   8.789   0.491  13.306
70851SOL     OW14326  13.489  13.673  13.883
70851SOL    HW114327  13.399  13.689  13.853
70851SOL    HW214328  13.486  13.585  13.921
70852SOL     OW14329   3.362  14.441   8.630
70852SOL    HW114330   3.341  14.365   8.685
70852SOL    HW214331   3.454  14.460   8.648
70853SOL     OW14332   7.320   6.071   1.659
70853SOL    HW114333   7.407   6.106   1.639
70853SOL    HW214334   7.336   5.986   1.698
70854SOL     OW14335   7.456   9.600  10.171
70854SOL    HW114336   7.419   9.522  10.129
70854SOL    HW214337   7.412   9.604  10.256
70855SOL     OW14338   6.217   6.204  11.516
70855SOL    HW114339   6.243   6.144  11.586
70855SOL    HW214340   6.241   6.158  11.435
70856SOL     OW14341   4.475  12.834   6.690
70856SOL    HW114342   4.442  12.887   6.617
70856SOL    HW214343   4.522  12.897   6.746
70857SOL     OW14344   7.142   3.501  10.516
70857SOL    HW114345   7.202   3.457  10.577
70857SOL    HW214346   7.086   3.555  10.571
70858SOL     OW14347   4.773   2.583   0.731
70858SOL    HW114348   4.832   2.518   0.770
70858SOL    HW214349   4.748   2.545   0.647
70859SOL     OW14350   2.495   6.900  14.168
70859SOL    HW114351   2.449   6.822  14.136
70859SOL    HW214352   2.445   6.973  14.130
70860SOL     OW14353   5.928   2.608   8.126
70860SOL    HW114354   5.839   2.572   8.120
70860SOL    HW214355   5.959   2.611   8.036
70861SOL     OW14356  11.660  12.305   7.218
70861SOL    HW114357  11.624  12.394   7.221
70861SOL    HW214358  11.642  12.275   7.129
70862SOL     OW14359   9.302   0.662   0.087
70862SOL    HW114360   9.347   0.674   0.170
70862SOL    HW214361   9.230   0.602   0.106
70863SOL     OW14362  11.582  14.414   2.299
70863SOL    HW114363  11.571  14.449   2.210
70863SOL    HW214364  11.659  14.358   2.293
70864SOL     OW14365  11.571   2.065  10.346
70864SOL    HW114366  11.576   2.155  10.378
70864SOL    HW214367  11.525   2.018  10.415
70865SOL     OW14368  13.932   3.841  12.308
70865SOL    HW114369  13.920   3.917  12.365
70865SOL    HW214370  14.024   3.818  12.318
70866SOL     OW14371   6.658   4.300  13.307
70866SOL    HW114372   6.588   4.356  13.274
70866SOL    HW214373   6.677   4.240  13.235
70867SOL     OW14374   3.165  14.012   1.269
70867SOL    HW114375   3.084  13.995   1.317
70867SOL    HW214376   3.186  13.928   1.227
70868SOL     OW14377  10.281  11.669  14.766
70868SOL    HW114378  10.238  11.665  14.851
70868SOL    HW214379  10.209  11.681  14.703
70869SOL     OW14380   3.748   2.489   0.377
70869SOL    HW114381   3.719   2.425   0.311
70869SOL    HW214382   3.830   2.452   0.411
70870SOL     OW14383   4.572  10.113   8.606
70870SOL    HW114384   4.578  10.207   8.620
70870SOL    HW214385   4.587  10.074   8.692
70871SOL     OW14386   7.816  10.778   1.581
70871SOL    HW114387   7.787  10.731   1.503
70871SOL    HW214388   7.911  10.767   1.581
70872SOL     OW14389   9.043   4.155  12.466
70872SOL    HW114390   9.034   4.222  12.398
70872SOL    HW214391   8.968   4.168  12.523
70873SOL     OW14392   7.425  12.179   6.247
70873SOL    HW114393   7.516  12.202   6.227
70873SOL    HW214394   7.398  12.243   6.313
70874SOL     OW14395  14.085   9.498   1.901
70874SOL    HW114396  14.056   9.499   1.993
70874SOL    HW214397  14.154   9.563   1.897
70875SOL     OW14398   8.364   4.946   1.170
70875SOL    HW114399   8.291   4.932   1.110
70875SOL    HW214400   8.343   4.893   1.247
70876SOL     OW14401  14.702   3.742   2.366
70876SOL    HW114402  14.675   3.759   2.456
70876SOL    HW214403  14.630   3.690   2.329
70877SOL     OW14404  11.000  11.617   8.930
70877SOL    HW114405  11.082  11.641   8.888
70877SOL    HW214406  11.014  11.634   9.023
70878SOL     OW14407  14.587   2.898   9.563
70878SOL    HW114408  14.642   2.835   9.610
70878SOL    HW214409  14.500   2.857   9.562
70879SOL     OW14410   3.718  13.122  14.656
70879SOL    HW114411   3.797  13.174  14.674
70879SOL    HW214412   3.676  13.166  14.582
70880SOL     OW14413   4.515  13.197   0.838
70880SOL    HW114414   4.465  13.227   0.915
70880SOL    HW214415   4.580  13.266   0.824
70881SOL     OW14416   5.124   6.225  11.376
70881SOL    HW114417   5.127   6.153  11.313
70881SOL    HW214418   5.215   6.254  11.383
70882SOL     OW14419  11.654  11.026   1.340
70882SOL    HW114420  11.720  11.016   1.272
70882SOL    HW214421  11.704  11.029   1.422
70883SOL     OW14422  14.010   9.811   2.518
70883SOL    HW114423  13.994   9.905   2.511
70883SOL    HW214424  14.025   9.783   2.427
70884SOL     OW14425   1.779   3.113   0.226
70884SOL    HW114426   1.738   3.100   0.311
70884SOL    HW214427   1.871   3.093   0.240
70885SOL     OW14428   7.736  13.675   5.944
70885SOL    HW114429   7.775  13.758   5.916
70885SOL    HW214430   7.806  13.630   5.992
70886SOL     OW14431   7.252  10.499   0.878
70886SOL    HW114432   7.326  10.444   0.903
70886SOL    HW214433   7.192  10.439   0.833
70887SOL     OW14434   3.753   1.921   3.102
70887SOL    HW114435   3.682   1.891   3.160
70887SOL    HW214436   3.712   1.929   3.016
70888SOL     OW14437   7.758   6.542   7.699
70888SOL    HW114438   7.729   6.458   7.735
70888SOL    HW214439   7.834   6.519   7.644
70889SOL     OW14440  13.930   3.759   6.295
70889SOL    HW114441  13.897   3.762   6.385
70889SOL    HW214442  13.851   3.762   6.240
70890SOL     OW14443  14.214   3.161   2.334
70890SOL    HW114444  14.253   3.145   2.421
70890SOL    HW214445  14.208   3.256   2.329
70891SOL     OW14446   6.593  13.807  12.803
70891SOL    HW114447   6.525  13.845  12.859
70891SOL    HW214448   6.673  13.812  12.856
70892SOL     OW14449  12.186   9.735  13.642
70892SOL    HW114450  12.200   9.819  13.598
70892SOL    HW214451  12.188   9.670  13.572
70893SOL     OW14452   8.700   9.269   6.094
70893SOL    HW114453   8.741   9.283   6.009
70893SOL    HW214454   8.718   9.178   6.115
70894SOL     OW14455   9.660   8.345  11.362
70894SOL    HW114456   9.616   8.369  11.443
70894SOL    HW214457   9.590   8.312  11.305
70895SOL     OW14458   1.636   8.121   0.696
70895SOL    HW114459   1.587   8.200   0.671
70895SOL    HW214460   1.576   8.049   0.679
70896SOL     OW14461   8.304   1.409   4.208
70896SOL    HW114462   8.374   1.375   4.263
70896SOL    HW214463   8.243   1.452   4.269
70897SOL     OW14464  13.438   2.121   3.557
70897SOL    HW114465  13.408   2.210   3.578
70897SOL    HW214466  13.484   2.131   3.474
70898SOL     OW14467  14.039  10.172   1.013
70898SOL    HW114468  13.981  10.128   0.950
70898SOL    HW214469  14.087  10.235   0.960
70899SOL     OW14470   1.384  14.081   1.479
70899SOL    HW114471   1.325  14.155   1.495
70899SOL    HW214472   1.438  14.109   1.405
70900SOL     OW14473  12.737   6.959   7.609
70900SOL    HW114474  12.770   7.047   7.591
70900SOL    HW214475  12.688   6.968   7.691
70901SOL     OW14476  10.223  13.759   5.621
70901SOL    HW114477  10.160  13.717   5.562
70901SOL    HW214478  10.189  13.848   5.631
70902SOL     OW14479   3.084   3.151   2.805
70902SOL    HW114480   3.158   3.134   2.864
70902SOL    HW214481   3.013   3.097   2.840
70903SOL     OW14482   1.492   0.263   0.084
70903SOL    HW114483   1.447   0.189   0.045
70903SOL    HW214484   1.433   0.337   0.069
70904SOL     OW14485   7.760   0.158  12.539
70904SOL    HW114486   7.771   0.072  12.500
70904SOL    HW214487   7.674   0.187  12.510
70905SOL     OW14488  14.370   5.514   8.716
70905SOL    HW114489  14.395   5.599   8.680
70905SOL    HW214490  14.278   5.504   8.692
70906SOL     OW14491  13.760   1.295   2.419
70906SOL    HW114492  13.808   1.214   2.398
70906SOL    HW214493  13.824   1.365   2.403
70907SOL     OW14494   9.718   0.125   1.471
70907SOL    HW114495   9.813   0.139   1.470
70907SOL    HW214496   9.688   0.170   1.550
70908SOL     OW14497   1.231   1.196  10.731
70908SOL    HW114498   1.246   1.157  10.817
70908SOL    HW214499   1.308   1.171  10.680
70909SOL     OW14500   3.615   1.843  11.202
70909SOL    HW114501   3.550   1.780  11.169
70909SOL    HW214502   3.586   1.861  11.292
70910SOL     OW14503   6.804   1.374   7.906
70910SOL    HW114504   6.860   1.347   7.833
70910SOL    HW214505   6.749   1.443   7.870
70911SOL     OW14506   3.188  14.367  10.299
70911SOL    HW114507   3.282  14.352  10.297
70911SOL    HW214508   3.178  14.458  10.324
70912SOL     OW14509   4.313   8.386   6.090
70912SOL    HW114510   4.403   8.361   6.069
70912SOL    HW214511   4.265   8.376   6.008
70913SOL     OW14512   7.850   2.240   4.434
70913SOL    HW114513   7.760   2.251   4.402
70913SOL    HW214514   7.841   2.186   4.513
70914SOL     OW14515  11.714  12.220   7.507
70914SOL    HW114516  11.777  12.291   7.517
70914SOL    HW214517  11.656  12.250   7.437
70915SOL     OW14518   1.396  12.287   4.408
70915SOL    HW114519   1.305  12.263   4.427
70915SOL    HW214520   1.419  12.233   4.332
70916SOL     OW14521  10.990  13.260  10.358
70916SOL    HW114522  10.969  13.232  10.447
70916SOL    HW214523  10.937  13.339  10.345
70917SOL     OW14524  11.856   0.333   1.545
70917SOL    HW114525  11.794   0.343   1.473
70917SOL    HW214526  11.832   0.401   1.607
70918SOL     OW14527   9.045  14.483   1.228
70918SOL    HW114528   9.016  14.433   1.305
70918SOL    HW214529   8.966  14.488   1.173
70919SOL     OW14530   9.531   3.785   5.548
70919SOL    HW114531   9.590   3.739   5.608
70919SOL    HW214532   9.587   3.815   5.477
70920SOL     OW14533   5.603   4.084  10.851
70920SOL    HW114534   5.557   4.038  10.781
70920SOL    HW214535   5.687   4.109  10.812
70921SOL     OW14536   4.677   9.665   5.205
70921SOL    HW114537   4.757   9.642   5.253
70921SOL    HW214538   4.639   9.581   5.179
70922SOL     OW14539  11.484  10.247  14.341
70922SOL    HW114540  11.495  10.183  14.270
70922SOL    HW214541  11.554  10.311  14.327
70923SOL     OW14542  13.418  10.011   5.195
70923SOL    HW114543  13.481  10.002   5.267
70923SOL    HW214544  13.333  10.003   5.237
70924SOL     OW14545   2.352  14.792   4.845
70924SOL    HW114546   2.353  14.721   4.781
70924SOL    HW214547   2.382  14.751   4.927
70925SOL     OW14548   5.797  14.091   5.594
70925SOL    HW114549   5.787  13.997   5.582
70925SOL    HW214550   5.823  14.101   5.685
70926SOL     OW14551  13.409   9.266   7.161
70926SOL    HW114552  13.324   9.304   7.141
70926SOL    HW214553  13.457   9.335   7.206
70927SOL     OW14554   5.212  10.143  10.190
70927SOL    HW114555   5.294  10.095  10.200
70927SOL    HW214556   5.144  10.076  10.196
70928SOL     OW14557   4.934   6.624  14.088
70928SOL    HW114558   4.892   6.677  14.020
70928SOL    HW214559   4.907   6.534  14.068
70929SOL     OW14560   6.904  11.096   7.368
70929SOL    HW114561   6.854  11.122   7.290
70929SOL    HW214562   6.917  11.002   7.357
70930SOL     OW14563   1.747   1.383   0.906
70930SOL    HW114564   1.693   1.348   0.836
70930SOL    HW214565   1.817   1.431   0.861
70931SOL     OW14566   4.461   8.281   7.233
70931SOL    HW114567   4.424   8.282   7.145
70931SOL    HW214568   4.512   8.200   7.237
70932SOL     OW14569   1.387   9.175  12.493
70932SOL    HW114570   1.313   9.168  12.433
70932SOL    HW214571   1.363   9.247  12.552
70933SOL     OW14572   0.869   7.867  11.317
70933SOL    HW114573   0.898   7.957  11.310
70933SOL    HW214574   0.923   7.830  11.387
70934SOL     OW14575  10.167  11.841  11.798
70934SOL    HW114576  10.253  11.881  11.785
70934SOL    HW214577  10.110  11.886  11.736
70935SOL     OW14578   8.191   0.180   3.422
70935SOL    HW114579   8.151   0.145   3.502
70935SOL    HW214580   8.236   0.259   3.451
70936SOL     OW14581   5.306   6.756   5.015
70936SOL    HW114582   5.236   6.748   5.079
70936SOL    HW214583   5.324   6.667   4.986
70937SOL     OW14584  11.308   9.550   0.554
70937SOL    HW114585  11.278   9.574   0.467
70937SOL    HW214586  11.293   9.629   0.607
70938SOL     OW14587  13.743  14.594  13.972
70938SOL    HW114588  13.667  14.652  13.965
70938SOL    HW214589  13.786  14.602  13.887
70939SOL     OW14590   8.730   0.488   0.750
70939SOL    HW114591   8.798   0.549   0.720
70939SOL    HW214592   8.653   0.543   0.765
70940SOL     OW14593   2.190   8.212  12.839
70940SOL    HW114594   2.272   8.242  12.799
70940SOL    HW214595   2.177   8.272  12.913
70941SOL     OW14596   3.567   1.813   1.575
70941SOL    HW114597   3.657   1.837   1.600
70941SOL    HW214598   3.546   1.739   1.633
70942SOL     OW14599   2.603   2.496   1.157
70942SOL    HW114600   2.654   2.478   1.236
70942SOL    HW214601   2.601   2.592   1.151
70943SOL     OW14602  14.733   5.999   7.815
70943SOL    HW114603  14.661   5.958   7.863
70943SOL    HW214604  14.700   6.009   7.726
70944SOL     OW14605   1.830  12.987   7.381
70944SOL    HW114606   1.735  12.978   7.380
70944SOL    HW214607   1.863  12.898   7.371
70945SOL     OW14608   7.670  13.143   2.962
70945SOL    HW114609   7.646  13.234   2.945
70945SOL    HW214610   7.751  13.130   2.913
70946SOL     OW14611  14.421   9.556   5.055
70946SOL    HW114612  14.491   9.607   5.095
70946SOL    HW214613  14.447   9.465   5.069
70947SOL     OW14614   3.978   5.075  14.636
70947SOL    HW114615   4.072   5.061  14.647
70947SOL    HW214616   3.966   5.168  14.654
70948SOL     OW14617   4.949   4.080   5.439
70948SOL    HW114618   4.865   4.045   5.470
70948SOL    HW214619   4.986   4.125   5.515
70949SOL     OW14620  10.303   9.841   3.671
70949SOL    HW114621  10.295   9.894   3.592
70949SOL    HW214622  10.396   9.841   3.691
70950SOL     OW14623  14.146   1.647   1.464
70950SOL    HW114624  14.189   1.561   1.459
70950SOL    HW214625  14.054   1.628   1.481
70951SOL     OW14626   8.203  14.866  14.053
70951SOL    HW114627   8.129  14.876  13.993
70951SOL    HW214628   8.165  14.829  14.133
70952SOL     OW14629   1.519   4.019  13.020
70952SOL    HW114630   1.452   3.951  13.027
70952SOL    HW214631   1.602   3.973  13.025
70953SOL     OW14632  10.034   4.896   3.082
70953SOL    HW114633  10.093   4.969   3.099
70953SOL    HW214634  10.091   4.827   3.046
70954SOL     OW14635  13.339   3.795   5.231
70954SOL    HW114636  13.263   3.851   5.217
70954SOL    HW214637  13.307   3.725   5.288
70955SOL     OW14638   9.217   3.898   1.243
70955SOL    HW114639   9.190   3.845   1.318
70955SOL    HW214640   9.261   3.836   1.185
70956SOL     OW14641   2.206  10.503  10.803
70956SOL    HW114642   2.140  10.483  10.737
70956SOL    HW214643   2.220  10.597  10.796
70957SOL     OW14644   5.009   8.408   4.372
70957SOL    HW114645   5.056   8.413   4.455
70957SOL    HW214646   4.944   8.339   4.385
70958SOL     OW14647   6.073   5.788  13.344
70958SOL    HW114648   6.129   5.724  13.389
70958SOL    HW214649   5.986   5.749  13.348
70959SOL     OW14650   6.690  13.182  12.013
70959SOL    HW114651   6.607  13.147  11.981
70959SOL    HW214652   6.730  13.224  11.937
70960SOL     OW14653   8.078   2.637   1.195
70960SOL    HW114654   8.089   2.726   1.161
70960SOL    HW214655   8.004   2.644   1.256
70961SOL     OW14656  11.325   5.016   1.037
70961SOL    HW114657  11.354   4.973   1.117
70961SOL    HW214658  11.232   4.995   1.029
70962SOL     OW14659   7.127  14.715  10.027
70962SOL    HW114660   7.204  14.671   9.991
70962SOL    HW214661   7.093  14.768   9.955
70963SOL     OW14662   9.945   7.327   1.624
70963SOL    HW114663   9.993   7.332   1.541
70963SOL    HW214664   9.966   7.410   1.668
70964SOL     OW14665   9.601   3.210   5.045
70964SOL    HW114666   9.561   3.293   5.069
70964SOL    HW214667   9.528   3.157   5.013
70965SOL     OW14668   7.774   5.535   2.346
70965SOL    HW114669   7.714   5.472   2.305
70965SOL    HW214670   7.727   5.567   2.423
70966SOL     OW14671   5.536   4.267   0.768
70966SOL    HW114672   5.452   4.301   0.796
70966SOL    HW214673   5.554   4.311   0.685
70967SOL     OW14674   2.292   0.885   2.380
70967SOL    HW114675   2.242   0.877   2.461
70967SOL    HW214676   2.239   0.838   2.315
70968SOL     OW14677   9.115  10.821  10.254
70968SOL    HW114678   9.185  10.880  10.282
70968SOL    HW214679   9.152  10.734  10.261
70969SOL     OW14680  14.755   1.852   2.535
70969SOL    HW114681  14.799   1.915   2.479
70969SOL    HW214682  14.821   1.785   2.553
70970SOL     OW14683   5.833   8.456   3.406
70970SOL    HW114684   5.824   8.548   3.432
70970SOL    HW214685   5.757   8.438   3.351
70971SOL     OW14686  13.138   8.949   3.847
70971SOL    HW114687  13.095   9.015   3.902
70971SOL    HW214688  13.224   8.937   3.887
70972SOL     OW14689   1.511   6.385  14.206
70972SOL    HW114690   1.468   6.462  14.243
70972SOL    HW214691   1.601   6.391  14.235
70973SOL     OW14692  10.732  10.148  14.662
70973SOL    HW114693  10.781  10.121  14.584
70973SOL    HW214694  10.732  10.070  14.718
70974SOL     OW14695   3.512  13.937  13.853
70974SOL    HW114696   3.543  14.017  13.810
70974SOL    HW214697   3.562  13.867  13.812
70975SOL     OW14698   2.487  13.969  10.319
70975SOL    HW114699   2.542  14.028  10.267
70975SOL    HW214700   2.397  13.988  10.290
70976SOL     OW14701   1.897   2.873   0.985
70976SOL    HW114702   1.803   2.875   0.968
70976SOL    HW214703   1.934   2.930   0.918
70977SOL     OW14704   2.537   2.243  12.373
70977SOL    HW114705   2.615   2.254  12.320
70977SOL    HW214706   2.479   2.314  12.345
70978SOL     OW14707   6.933  14.048  11.273
70978SOL    HW114708   6.882  13.967  11.281
70978SOL    HW214709   7.024  14.020  11.283
70979SOL     OW14710   9.649   4.543  13.642
70979SOL    HW114711   9.613   4.614  13.695
70979SOL    HW214712   9.669   4.583  13.558
70980SOL     OW14713   2.741   9.158  13.665
70980SOL    HW114714   2.724   9.244  13.704
70980SOL    HW214715   2.794   9.113  13.730
70981SOL     OW14716  10.900   3.751   3.467
70981SOL    HW114717  10.985   3.789   3.490
70981SOL    HW214718  10.848   3.826   3.437
70982SOL     OW14719   1.040   7.473   8.693
70982SOL    HW114720   1.126   7.437   8.668
70982SOL    HW214721   1.060   7.558   8.732
70983SOL     OW14722  11.529  13.230   1.055
70983SOL    HW114723  11.451  13.284   1.064
70983SOL    HW214724  11.599  13.292   1.032
70984SOL     OW14725  12.717   9.983  12.502
70984SOL    HW114726  12.645   9.936  12.460
70984SOL    HW214727  12.792   9.971  12.443
70985SOL     OW14728  10.201   6.798   8.147
70985SOL    HW114729  10.266   6.817   8.080
70985SOL    HW214730  10.144   6.733   8.106
70986SOL     OW14731   6.279  13.095   8.521
70986SOL    HW114732   6.372  13.108   8.537
70986SOL    HW214733   6.244  13.063   8.604
70987SOL     OW14734  10.129  13.813   0.629
70987SOL    HW114735  10.140  13.854   0.543
70987SOL    HW214736  10.205  13.841   0.679
70988SOL     OW14737   9.406  12.636   8.539
70988SOL    HW114738   9.398  12.571   8.469
70988SOL    HW214739   9.451  12.589   8.609
70989SOL     OW14740  11.651   6.734   8.936
70989SOL    HW114741  11.633   6.769   9.023
70989SOL    HW214742  11.746   6.736   8.928
70990SOL     OW14743  10.885   8.316  14.224
70990SOL    HW114744  10.832   8.316  14.144
70990SOL    HW214745  10.972   8.289  14.195
70991SOL     OW14746   7.463   6.911   8.193
70991SOL    HW114747   7.471   6.825   8.236
70991SOL    HW214748   7.550   6.926   8.154
70992SOL     OW14749  14.583   4.744  12.959
70992SOL    HW114750  14.598   4.650  12.954
70992SOL    HW214751  14.595   4.766  13.052
70993SOL     OW14752   9.611   3.286  11.766
70993SOL    HW114753   9.567   3.252  11.688
70993SOL    HW214754   9.544   3.285  11.834
70994SOL     OW14755   0.300  14.005   9.549
70994SOL    HW114756   0.364  14.052   9.497
70994SOL    HW214757   0.215  14.038   9.519
70995SOL     OW14758   7.774   6.639  14.848
70995SOL    HW114759   7.705   6.631  14.782
70995SOL    HW214760   7.727   6.650   0.049
70996SOL     OW14761   2.638   7.944  11.595
70996SOL    HW114762   2.709   7.903  11.546
70996SOL    HW214763   2.682   7.992  11.665
70997SOL     OW14764   3.558   6.894   1.090
70997SOL    HW114765   3.649   6.885   1.116
70997SOL    HW214766   3.562   6.917   0.997
70998SOL     OW14767  13.865   3.051  14.674
70998SOL    HW114768  13.774   3.023  14.666
70998SOL    HW214769  13.865   3.112  14.748
70999SOL     OW14770   5.653  14.579  10.016
70999SOL    HW114771   5.702  14.534  10.084
70999SOL    HW214772   5.686  14.543   9.934
71000SOL     OW14773   2.438   9.406   8.531
71000SOL    HW114774   2.382   9.341   8.573
71000SOL    HW214775   2.484   9.449   8.604
71001SOL     OW14776   0.015  13.482   8.733
71001SOL    HW114777  14.833  13.542   8.692
71001SOL    HW214778   0.040  13.422   8.663
71002SOL     OW14779   0.700   1.868   2.246
71002SOL    HW114780   0.679   1.879   2.339
71002SOL    HW214781   0.763   1.797   2.243
71003SOL     OW14782   2.154   2.197  13.209
71003SOL    HW114783   2.105   2.120  13.236
71003SOL    HW214784   2.219   2.164  13.146
71004SOL     OW14785   2.021  11.452   9.876
71004SOL    HW114786   2.048  11.497   9.956
71004SOL    HW214787   2.084  11.381   9.865
71005SOL     OW14788   6.023   6.285  14.535
71005SOL    HW114789   5.998   6.325  14.451
71005SOL    HW214790   6.042   6.360  14.592
71006SOL     OW14791   0.832   7.358   8.021
71006SOL    HW114792   0.889   7.286   7.993
71006SOL    HW214793   0.767   7.317   8.078
71007SOL     OW14794   7.393   9.645  12.815
71007SOL    HW114795   7.408   9.725  12.867
71007SOL    HW214796   7.313   9.665  12.765
71008SOL     OW14797   6.693   8.183   4.233
71008SOL    HW114798   6.690   8.096   4.272
71008SOL    HW214799   6.787   8.203   4.228
71009SOL     OW14800   8.498   3.680   5.099
71009SOL    HW114801   8.464   3.626   5.171
71009SOL    HW214802   8.510   3.617   5.028
71010SOL     OW14803   0.839   9.657   8.247
71010SOL    HW114804   0.909   9.700   8.295
71010SOL    HW214805   0.881   9.622   8.169
71011SOL     OW14806   9.573  11.239   2.442
71011SOL    HW114807   9.656  11.271   2.407
71011SOL    HW214808   9.587  11.145   2.455
71012SOL     OW14809   7.021   9.334   2.551
71012SOL    HW114810   7.083   9.307   2.483
71012SOL    HW214811   7.014   9.429   2.541
71013SOL     OW14812   6.799   3.162   5.836
71013SOL    HW114813   6.728   3.203   5.886
71013SOL    HW214814   6.823   3.228   5.771
71014SOL     OW14815  13.910   0.199   2.583
71014SOL    HW114816  13.936   0.241   2.665
71014SOL    HW214817  13.928   0.106   2.597
71015SOL     OW14818   8.507   3.972   5.121
71015SOL    HW114819   8.469   4.009   5.041
71015SOL    HW214820   8.532   3.883   5.097
71016SOL     OW14821   5.138   9.108   5.634
71016SOL    HW114822   5.100   9.024   5.610
71016SOL    HW214823   5.063   9.163   5.658
71017SOL     OW14824   0.116   2.101   6.129
71017SOL    HW114825   0.150   2.048   6.202
71017SOL    HW214826   0.021   2.088   6.131
71018SOL     OW14827  14.194  11.345  12.509
71018SOL    HW114828  14.156  11.304  12.587
71018SOL    HW214829  14.280  11.304  12.500
71019SOL     OW14830   8.701   8.476   2.888
71019SOL    HW114831   8.700   8.381   2.888
71019SOL    HW214832   8.766   8.500   2.954
71020SOL     OW14833   6.088   5.016  13.880
71020SOL    HW114834   6.007   4.965  13.876
71020SOL    HW214835   6.154   4.952  13.908
71021SOL     OW14836   8.589   2.314   9.069
71021SOL    HW114837   8.582   2.218   9.064
71021SOL    HW214838   8.671   2.334   9.025
71022SOL     OW14839  11.296  10.607  14.195
71022SOL    HW114840  11.355  10.678  14.220
71022SOL    HW214841  11.208  10.641  14.216
71023SOL     OW14842   4.883   1.761   1.804
71023SOL    HW114843   4.836   1.770   1.886
71023SOL    HW214844   4.952   1.827   1.808
71024SOL     OW14845   9.636   5.782   9.589
71024SOL    HW114846   9.622   5.876   9.603
71024SOL    HW214847   9.548   5.745   9.589
71025SOL     OW14848  12.647   3.985  10.188
71025SOL    HW114849  12.742   3.983  10.174
71025SOL    HW214850  12.613   4.040  10.117
71026SOL     OW14851   7.028  11.775   3.427
71026SOL    HW114852   7.002  11.864   3.405
71026SOL    HW214853   6.970  11.751   3.500
71027SOL     OW14854   0.480   4.826   0.849
71027SOL    HW114855   0.412   4.820   0.916
71027SOL    HW214856   0.499   4.920   0.842
71028SOL     OW14857  11.904  14.498   5.813
71028SOL    HW114858  11.852  14.475   5.890
71028SOL    HW214859  11.840  14.501   5.741
71029SOL     OW14860   4.209  13.069   8.266
71029SOL    HW114861   4.161  13.102   8.342
71029SOL    HW214862   4.291  13.035   8.302
71030SOL     OW14863   0.647   8.568   2.722
71030SOL    HW114864   0.591   8.491   2.730
71030SOL    HW214865   0.684   8.560   2.634
71031SOL     OW14866   9.844   6.242   9.159
71031SOL    HW114867   9.880   6.220   9.245
71031SOL    HW214868   9.883   6.327   9.138
71032SOL     OW14869  12.052   6.736   3.951
71032SOL    HW114870  12.063   6.641   3.943
71032SOL    HW214871  12.027   6.764   3.863
71033SOL     OW14872   9.886   2.701   9.437
71033SOL    HW114873   9.861   2.660   9.520
71033SOL    HW214874   9.808   2.692   9.382
71034SOL     OW14875   3.073  12.682   3.342
71034SOL    HW114876   3.135  12.739   3.295
71034SOL    HW214877   2.998  12.738   3.360
71035SOL     OW14878   5.293   1.498   5.931
71035SOL    HW114879   5.205   1.470   5.956
71035SOL    HW214880   5.292   1.498   5.836
71036SOL     OW14881   9.405  11.512  12.388
71036SOL    HW114882   9.390  11.449  12.316
71036SOL    HW214883   9.321  11.517  12.433
71037SOL     OW14884  11.876   3.989   6.764
71037SOL    HW114885  11.971   3.976   6.764
71037SOL    HW214886  11.859   4.034   6.847
71038SOL     OW14887   1.878  13.191   6.905
71038SOL    HW114888   1.881  13.108   6.858
71038SOL    HW214889   1.907  13.256   6.840
71039SOL     OW14890  11.904   1.572  12.003
71039SOL    HW114891  11.879   1.501  11.945
71039SOL    HW214892  11.890   1.538  12.091
71040SOL     OW14893   3.734  10.685   7.305
71040SOL    HW114894   3.775  10.753   7.250
71040SOL    HW214895   3.786  10.607   7.288
71041SOL     OW14896   0.982   9.655   3.450
71041SOL    HW114897   1.010   9.672   3.540
71041SOL    HW214898   1.050   9.693   3.395
71042SOL     OW14899  12.421   9.555  13.075
71042SOL    HW114900  12.450   9.539  12.985
71042SOL    HW214901  12.503   9.564  13.125
71043SOL     OW14902   3.248  12.804  12.443
71043SOL    HW114903   3.187  12.878  12.439
71043SOL    HW214904   3.332  12.844  12.466
71044SOL     OW14905   8.281  14.491   1.477
71044SOL    HW114906   8.372  14.471   1.499
71044SOL    HW214907   8.235  14.483   1.561
71045SOL     OW14908   4.505   4.522   2.478
71045SOL    HW114909   4.599   4.528   2.462
71045SOL    HW214910   4.496   4.449   2.540
71046SOL     OW14911   0.613  14.517  10.561
71046SOL    HW114912   0.621  14.596  10.509
71046SOL    HW214913   0.597  14.447  10.498
71047SOL     OW14914   8.601   0.839   6.641
71047SOL    HW114915   8.636   0.925   6.666
71047SOL    HW214916   8.512   0.857   6.612
71048SOL     OW14917   6.161   2.282   5.270
71048SOL    HW114918   6.067   2.296   5.254
71048SOL    HW214919   6.170   2.285   5.365
71049SOL     OW14920   7.248  12.230   1.247
71049SOL    HW114921   7.261  12.136   1.261
71049SOL    HW214922   7.229  12.265   1.334
71050SOL     OW14923   5.091  11.489  14.398
71050SOL    HW114924   5.147  11.452  14.465
71050SOL    HW214925   5.148  11.548  14.348
71051SOL     OW14926   6.418  14.366  11.931
71051SOL    HW114927   6.360  14.385  12.004
71051SOL    HW214928   6.454  14.451  11.905
71052SOL     OW14929   9.733   8.371   8.211
71052SOL    HW114930   9.649   8.332   8.233
71052SOL    HW214931   9.712   8.452   8.165
71053SOL     OW14932   0.132   4.750  13.548
71053SOL    HW114933   0.191   4.729  13.476
71053SOL    HW214934   0.142   4.677  13.609
71054SOL     OW14935  11.604  11.884   4.252
71054SOL    HW114936  11.670  11.828   4.210
71054SOL    HW214937  11.579  11.946   4.183
71055SOL     OW14938  14.188   3.016   7.748
71055SOL    HW114939  14.142   2.982   7.672
71055SOL    HW214940  14.148   3.102   7.764
71056SOL     OW14941   8.430  11.214   1.800
71056SOL    HW114942   8.365  11.167   1.749
71056SOL    HW214943   8.495  11.148   1.824
71057SOL     OW14944  12.742  11.281  10.030
71057SOL    HW114945  12.800  11.220   9.985
71057SOL    HW214946  12.799  11.352  10.059
71058SOL     OW14947   0.445  12.071   9.123
71058SOL    HW114948   0.436  12.016   9.201
71058SOL    HW214949   0.396  12.024   9.055
71059SOL     OW14950  11.289   3.302   0.844
71059SOL    HW114951  11.302   3.208   0.850
71059SOL    HW214952  11.283   3.320   0.750
71060SOL     OW14953   3.129  13.600   9.112
71060SOL    HW114954   3.127  13.603   9.016
71060SOL    HW214955   3.043  13.632   9.138
71061SOL     OW14956   2.950  10.573   0.344
71061SOL    HW114957   2.997  10.490   0.333
71061SOL    HW214958   2.875  10.566   0.285
71062SOL     OW14959   8.907   5.568   9.726
71062SOL    HW114960   8.955   5.650   9.717
71062SOL    HW214961   8.834   5.589   9.783
71063SOL     OW14962   4.139   7.020  13.042
71063SOL    HW114963   4.135   7.080  13.117
71063SOL    HW214964   4.052   7.023  13.004
71064SOL     OW14965   1.124   7.625   0.612
71064SOL    HW114966   1.031   7.623   0.594
71064SOL    HW214967   1.142   7.717   0.636
71065SOL     OW14968   4.785   2.158   4.373
71065SOL    HW114969   4.734   2.141   4.293
71065SOL    HW214970   4.876   2.150   4.345
71066SOL     OW14971   5.909   5.426   5.170
71066SOL    HW114972   5.986   5.388   5.213
71066SOL    HW214973   5.893   5.369   5.095
71067SOL     OW14974  13.053   0.042   1.404
71067SOL    HW114975  13.068   0.102   1.330
71067SOL    HW214976  13.099  14.844   1.380
71068SOL     OW14977   2.025  13.920   3.813
71068SOL    HW114978   2.091  13.925   3.744
71068SOL    HW214979   2.068  13.956   3.890
71069SOL     OW14980  14.010   7.268   1.082
71069SOL    HW114981  14.017   7.352   1.037
71069SOL    HW214982  13.967   7.289   1.165
71070SOL     OW14983   5.375   2.584   0.879
71070SOL    HW114984   5.373   2.548   0.967
71070SOL    HW214985   5.288   2.567   0.843
71071SOL     OW14986   4.076  11.691   7.818
71071SOL    HW114987   3.987  11.723   7.830
71071SOL    HW214988   4.121  11.716   7.899
71072SOL     OW14989   4.622  12.372   9.244
71072SOL    HW114990   4.578  12.413   9.319
71072SOL    HW214991   4.556  12.315   9.206
71073SOL     OW14992   8.771   7.718   8.465
71073SOL    HW114993   8.719   7.729   8.386
71073SOL    HW214994   8.712   7.746   8.536
71074SOL     OW14995   4.782  12.712   4.191
71074SOL    HW114996   4.725  12.741   4.262
71074SOL    HW214997   4.833  12.641   4.229
71075SOL     OW14998   6.215   0.823  10.529
71075SOL    HW114999   6.129   0.781  10.525
71075SOL    HW215000   6.208   0.896  10.467
71076SOL     OW15001  13.590  14.802   4.542
71076SOL    HW115002  13.667  14.856   4.526
71076SOL    HW215003  13.552  14.837   4.623
71077SOL     OW15004   9.499   6.967  13.668
71077SOL    HW115005   9.569   6.955  13.732
71077SOL    HW215006   9.534   6.928  13.588
71078SOL     OW15007  10.501   2.344   9.436
71078SOL    HW115008  10.478   2.380   9.351
71078SOL    HW215009  10.510   2.250   9.422
71079SOL     OW15010  13.456   2.798  13.259
71079SOL    HW115011  13.369   2.806  13.221
71079SOL    HW215012  13.499   2.731  13.205
71080SOL     OW15013   1.675   7.117  10.324
71080SOL    HW115014   1.587   7.135  10.356
71080SOL    HW215015   1.698   7.033  10.363
71081SOL     OW15016  13.677   4.096   0.428
71081SOL    HW115017  13.675   4.142   0.344
71081SOL    HW215018  13.770   4.080   0.445
71082SOL     OW15019  13.445  12.302   1.507
71082SOL    HW115020  13.476  12.316   1.597
71082SOL    HW215021  13.486  12.372   1.457
71083SOL     OW15022  13.458  12.885   0.928
71083SOL    HW115023  13.514  12.840   0.865
71083SOL    HW215024  13.369  12.874   0.894
71084SOL     OW15025  12.876  13.199   4.532
71084SOL    HW115026  12.808  13.229   4.471
71084SOL    HW215027  12.913  13.280   4.568
71085SOL     OW15028   5.636   8.805   4.620
71085SOL    HW115029   5.550   8.836   4.592
71085SOL    HW215030   5.618   8.722   4.664
71086SOL     OW15031   4.345   4.962   8.791
71086SOL    HW115032   4.390   4.973   8.707
71086SOL    HW215033   4.374   4.877   8.823
71087SOL     OW15034   3.302   5.711   9.557
71087SOL    HW115035   3.325   5.774   9.488
71087SOL    HW215036   3.206   5.712   9.559
71088SOL     OW15037   7.608   1.287   6.232
71088SOL    HW115038   7.533   1.278   6.173
71088SOL    HW215039   7.569   1.291   6.319
71089SOL     OW15040  13.895   6.897  13.501
71089SOL    HW115041  13.911   6.872  13.592
71089SOL    HW215042  13.938   6.981  13.491
71090SOL     OW15043   8.648   5.058  12.462
71090SOL    HW115044   8.704   5.133  12.480
71090SOL    HW215045   8.590   5.086  12.391
71091SOL     OW15046  12.706   0.719   4.725
71091SOL    HW115047  12.629   0.675   4.690
71091SOL    HW215048  12.780   0.676   4.682
71092SOL     OW15049  11.816   5.651  13.176
71092SOL    HW115050  11.877   5.638  13.248
71092SOL    HW215051  11.797   5.562  13.145
71093SOL     OW15052  11.098   6.562   0.276
71093SOL    HW115053  11.101   6.635   0.215
71093SOL    HW215054  11.117   6.601   0.362
71094SOL     OW15055   1.013   1.864   8.334
71094SOL    HW115056   0.993   1.816   8.414
71094SOL    HW215057   1.108   1.868   8.331
71095SOL     OW15058   7.780   6.260  12.108
71095SOL    HW115059   7.751   6.345  12.076
71095SOL    HW215060   7.703   6.224  12.153
71096SOL     OW15061   4.965  13.826  11.407
71096SOL    HW115062   4.900  13.763  11.438
71096SOL    HW215063   4.932  13.852  11.320
71097SOL     OW15064  14.743  13.880  10.055
71097SOL    HW115065  14.773  13.938   9.985
71097SOL    HW215066  14.715  13.939  10.125
71098SOL     OW15067   0.535   8.333  14.071
71098SOL    HW115068   0.623   8.303  14.092
71098SOL    HW215069   0.546   8.425  14.046
71099SOL     OW15070   8.767   0.096  11.970
71099SOL    HW115071   8.807   0.182  11.980
71099SOL    HW215072   8.714   0.103  11.890
71100SOL     OW15073  13.193   8.422   2.944
71100SOL    HW115074  13.127   8.411   3.012
71100SOL    HW215075  13.270   8.374   2.977
71101SOL     OW15076   2.551  10.523  12.335
71101SOL    HW115077   2.576  10.568  12.415
71101SOL    HW215078   2.494  10.585  12.289
71102SOL     OW15079   0.914   3.968   6.295
71102SOL    HW115080   0.972   4.001   6.363
71102SOL    HW215081   0.964   3.977   6.214
71103SOL     OW15082   1.268   8.229   5.690
71103SOL    HW115083   1.179   8.197   5.678
71103SOL    HW215084   1.319   8.152   5.715
71104SOL     OW15085   7.780  12.280   9.041
71104SOL    HW115086   7.776  12.361   8.991
71104SOL    HW215087   7.775  12.307   9.132
71105SOL     OW15088  10.696  11.352  10.779
71105SOL    HW115089  10.743  11.269  10.779
71105SOL    HW215090  10.656  11.357  10.692
71106SOL     OW15091   6.613   8.886   2.614
71106SOL    HW115092   6.666   8.811   2.590
71106SOL    HW215093   6.544   8.889   2.547
71107SOL     OW15094   5.033   0.168  13.461
71107SOL    HW115095   5.059   0.155  13.370
71107SOL    HW215096   4.937   0.170  13.458
71108SOL     OW15097   3.999   9.427   2.619
71108SOL    HW115098   4.060   9.499   2.631
71108SOL    HW215099   3.988   9.390   2.707
71109SOL     OW15100   4.668  10.740   0.082
71109SOL    HW115101   4.632  10.700   0.003
71109SOL    HW215102   4.592  10.752   0.140
71110SOL     OW15103   6.563   9.731  13.487
71110SOL    HW115104   6.494   9.785  13.448
71110SOL    HW215105   6.585   9.776  13.569
71111SOL     OW15106   4.248   5.976   1.855
71111SOL    HW115107   4.243   6.033   1.931
71111SOL    HW215108   4.334   5.994   1.817
71112SOL     OW15109   5.364   2.871  12.527
71112SOL    HW115110   5.411   2.808  12.473
71112SOL    HW215111   5.319   2.927  12.465
71113SOL     OW15112   4.841   8.894   1.461
71113SOL    HW115113   4.909   8.957   1.436
71113SOL    HW215114   4.788   8.883   1.383
71114SOL     OW15115  12.005  14.385  13.201
71114SOL    HW115116  11.953  14.411  13.277
71114SOL    HW215117  12.042  14.300  13.225
71115SOL     OW15118  11.722  12.937  11.883
71115SOL    HW115119  11.770  13.018  11.866
71115SOL    HW215120  11.734  12.885  11.803
71116SOL     OW15121  11.283  10.740   3.063
71116SOL    HW115122  11.252  10.664   3.112
71116SOL    HW215123  11.322  10.703   2.984
71117SOL     OW15124  13.768   9.477   2.917
71117SOL    HW115125  13.731   9.521   2.994
71117SOL    HW215126  13.804   9.548   2.863
71118SOL     OW15127   4.920   5.465   5.697
71118SOL    HW115128   4.978   5.416   5.639
71118SOL    HW215129   4.962   5.462   5.783
71119SOL     OW15130   7.352   3.558   8.850
71119SOL    HW115131   7.429   3.514   8.886
71119SOL    HW215132   7.335   3.512   8.768
71120SOL     OW15133   3.952  13.278  14.309
71120SOL    HW115134   3.973  13.220  14.382
71120SOL    HW215135   3.874  13.238  14.269
71121SOL     OW15136   3.459   0.147   4.052
71121SOL    HW115137   3.525   0.084   4.079
71121SOL    HW215138   3.422   0.180   4.134
71122SOL     OW15139  13.896  12.411   5.949
71122SOL    HW115140  13.810  12.452   5.955
71122SOL    HW215141  13.945  12.445   6.023
71123SOL     OW15142   5.279   8.786  10.814
71123SOL    HW115143   5.266   8.880  10.822
71123SOL    HW215144   5.282   8.754  10.904
71124SOL     OW15145  10.569   7.338   3.447
71124SOL    HW115146  10.618   7.258   3.423
71124SOL    HW215147  10.522   7.314   3.527
71125SOL     OW15148   7.854   2.229   9.822
71125SOL    HW115149   7.891   2.237   9.734
71125SOL    HW215150   7.920   2.266   9.880
71126SOL     OW15151   8.033   3.287   3.343
71126SOL    HW115152   7.943   3.298   3.313
71126SOL    HW215153   8.060   3.203   3.308
71127SOL     OW15154   4.364  12.097   2.844
71127SOL    HW115155   4.362  12.184   2.805
71127SOL    HW215156   4.352  12.112   2.937
71128SOL     OW15157   8.622  11.713  10.165
71128SOL    HW115158   8.621  11.806  10.186
71128SOL    HW215159   8.712  11.685  10.180
71129SOL     OW15160   4.023   3.706   7.013
71129SOL    HW115161   3.952   3.755   6.972
71129SOL    HW215162   4.093   3.706   6.947
71130SOL     OW15163   5.705   4.488   0.269
71130SOL    HW115164   5.624   4.538   0.255
71130SOL    HW215165   5.747   4.487   0.183
71131SOL     OW15166  14.155  14.514   6.956
71131SOL    HW115167  14.206  14.473   6.886
71131SOL    HW215168  14.067  14.523   6.920
71132SOL     OW15169  13.362   4.109   6.593
71132SOL    HW115170  13.333   4.193   6.629
71132SOL    HW215171  13.290   4.049   6.610
71133SOL     OW15172   7.070   5.883   5.725
71133SOL    HW115173   7.016   5.930   5.662
71133SOL    HW215174   7.135   5.837   5.672
71134SOL     OW15175   8.460   0.255  12.651
71134SOL    HW115176   8.495   0.183  12.597
71134SOL    HW215177   8.524   0.325  12.641
71135SOL     OW15178  14.230   8.893   6.963
71135SOL    HW115179  14.242   8.920   6.872
71135SOL    HW215180  14.163   8.825   6.959
71136SOL     OW15181   3.722   2.934   8.598
71136SOL    HW115182   3.698   2.981   8.677
71136SOL    HW215183   3.787   2.990   8.555
71137SOL     OW15184   5.923   3.680  13.066
71137SOL    HW115185   5.952   3.743  13.132
71137SOL    HW215186   5.972   3.600  13.085
71138SOL     OW15187   1.565   3.622   6.489
71138SOL    HW115188   1.645   3.633   6.438
71138SOL    HW215189   1.513   3.558   6.441
71139SOL     OW15190   8.483   2.072   1.608
71139SOL    HW115191   8.488   2.048   1.516
71139SOL    HW215192   8.428   2.005   1.647
71140SOL     OW15193  11.087  11.087   9.834
71140SOL    HW115194  11.080  11.128   9.920
71140SOL    HW215195  11.034  11.008   9.840
71141SOL     OW15196   2.987  10.151  11.010
71141SOL    HW115197   3.074  10.143  10.972
71141SOL    HW215198   2.975  10.070  11.060
71142SOL     OW15199   8.233  10.331   8.384
71142SOL    HW115200   8.274  10.248   8.360
71142SOL    HW215201   8.290  10.397   8.346
71143SOL     OW15202   8.714  13.477   0.097
71143SOL    HW115203   8.780  13.413   0.072
71143SOL    HW215204   8.754  13.524   0.171
71144SOL     OW15205  10.204   3.421   5.489
71144SOL    HW115206  10.145   3.361   5.535
71144SOL    HW215207  10.244   3.474   5.559
71145SOL     OW15208  12.528   9.361  13.281
71145SOL    HW115209  12.476   9.392  13.355
71145SOL    HW215210  12.581   9.290  13.317
71146SOL     OW15211   5.716   7.012  14.538
71146SOL    HW115212   5.640   6.965  14.505
71146SOL    HW215213   5.681   7.095  14.570
71147SOL     OW15214   6.230   0.478   9.396
71147SOL    HW115215   6.289   0.553   9.392
71147SOL    HW215216   6.285   0.403   9.373
71148SOL     OW15217   4.317  13.101   2.584
71148SOL    HW115218   4.392  13.157   2.562
71148SOL    HW215219   4.307  13.112   2.679
71149SOL     OW15220  14.334   6.928   0.777
71149SOL    HW115221  14.394   6.903   0.847
71149SOL    HW215222  14.247   6.905   0.810
71150SOL     OW15223   7.028   6.376   3.731
71150SOL    HW115224   7.070   6.462   3.732
71150SOL    HW215225   6.940   6.391   3.767
71151SOL     OW15226   1.428   1.796   1.510
71151SOL    HW115227   1.417   1.891   1.511
71151SOL    HW215228   1.339   1.761   1.503
71152SOL     OW15229   4.920   9.308   0.413
71152SOL    HW115230   4.900   9.371   0.344
71152SOL    HW215231   5.013   9.323   0.433
71153SOL     OW15232   2.329   0.047   8.433
71153SOL    HW115233   2.259  14.870   8.463
71153SOL    HW215234   2.410  14.881   8.451
71154SOL     OW15235   7.926  13.650   9.259
71154SOL    HW115236   7.877  13.599   9.323
71154SOL    HW215237   8.018  13.637   9.282
71155SOL     OW15238   3.565   0.195  13.971
71155SOL    HW115239   3.472   0.214  13.955
71155SOL    HW215240   3.597   0.165  13.886
71156SOL     OW15241  12.347  14.490   2.828
71156SOL    HW115242  12.318  14.496   2.737
71156SOL    HW215243  12.386  14.403   2.834
71157SOL     OW15244   4.273  11.262   0.440
71157SOL    HW115245   4.360  11.238   0.410
71157SOL    HW215246   4.231  11.303   0.365
71158SOL     OW15247   2.692   9.460   4.299
71158SOL    HW115248   2.664   9.465   4.208
71158SOL    HW215249   2.787   9.473   4.296
71159SOL     OW15250   6.197  13.767   3.102
71159SOL    HW115251   6.209  13.840   3.041
71159SOL    HW215252   6.112  13.730   3.079
71160SOL     OW15253   4.235   9.923   7.920
71160SOL    HW115254   4.189   9.906   8.002
71160SOL    HW215255   4.320   9.881   7.932
71161SOL     OW15256  14.195  14.741   9.552
71161SOL    HW115257  14.267  14.679   9.541
71161SOL    HW215258  14.207  14.805   9.482
71162SOL     OW15259  12.556   1.318  13.792
71162SOL    HW115260  12.497   1.244  13.807
71162SOL    HW215261  12.588   1.307  13.703
71163SOL     OW15262   9.339   7.500   3.360
71163SOL    HW115263   9.391   7.471   3.285
71163SOL    HW215264   9.280   7.426   3.378
71164SOL     OW15265  10.710  14.541  14.334
71164SOL    HW115266  10.698  14.622  14.285
71164SOL    HW215267  10.637  14.541  14.396
71165SOL     OW15268   4.872   2.550  13.321
71165SOL    HW115269   4.878   2.611  13.394
71165SOL    HW215270   4.886   2.604  13.243
71166SOL     OW15271  11.058   3.302  14.684
71166SOL    HW115272  11.120   3.313  14.756
71166SOL    HW215273  11.059   3.387  14.639
71167SOL     OW15274   7.837   3.058   6.905
71167SOL    HW115275   7.897   3.052   6.980
71167SOL    HW215276   7.761   3.005   6.931
71168SOL     OW15277   7.032  11.387  14.433
71168SOL    HW115278   7.073  11.319  14.379
71168SOL    HW215279   6.938  11.380  14.413
71169SOL     OW15280   7.776   4.091   5.691
71169SOL    HW115281   7.762   4.093   5.786
71169SOL    HW215282   7.742   4.006   5.663
71170SOL     OW15283  13.747  11.733  13.377
71170SOL    HW115284  13.724  11.660  13.434
71170SOL    HW215285  13.681  11.800  13.395
71171SOL     OW15286   7.862  14.088   5.392
71171SOL    HW115287   7.902  14.173   5.411
71171SOL    HW215288   7.778  14.091   5.438
71172SOL     OW15289   3.921   7.869   8.115
71172SOL    HW115290   3.942   7.812   8.041
71172SOL    HW215291   3.967   7.829   8.189
71173SOL     OW15292   6.277   0.632   5.598
71173SOL    HW115293   6.203   0.595   5.551
71173SOL    HW215294   6.350   0.628   5.536
71174SOL     OW15295   2.669   3.555   9.967
71174SOL    HW115296   2.684   3.462   9.951
71174SOL    HW215297   2.686   3.596   9.882
71175SOL     OW15298   0.418   2.722   9.320
71175SOL    HW115299   0.430   2.817   9.323
71175SOL    HW215300   0.497   2.690   9.276
71176SOL     OW15301   7.362  10.379  12.129
71176SOL    HW115302   7.408  10.301  12.097
71176SOL    HW215303   7.409  10.453  12.091
71177SOL     OW15304   0.283  12.604  11.089
71177SOL    HW115305   0.339  12.527  11.097
71177SOL    HW215306   0.202  12.580  11.134
71178SOL     OW15307  13.501   0.242   0.735
71178SOL    HW115308  13.506   0.148   0.716
71178SOL    HW215309  13.493   0.246   0.831
71179SOL     OW15310   1.650   6.413  10.956
71179SOL    HW115311   1.587   6.341  10.957
71179SOL    HW215312   1.665   6.429  10.863
71180SOL     OW15313  14.811   9.218  11.684
71180SOL    HW115314  14.842   9.128  11.695
71180SOL    HW215315  14.763   9.217  11.602
71181SOL     OW15316   4.284   0.466   8.289
71181SOL    HW115317   4.365   0.513   8.307
71181SOL    HW215318   4.231   0.527   8.238
71182SOL     OW15319  10.931   8.843   4.838
71182SOL    HW115320  10.975   8.776   4.889
71182SOL    HW215321  10.841   8.844   4.871
71183SOL     OW15322  11.090   6.169   6.971
71183SOL    HW115323  11.087   6.073   6.977
71183SOL    HW215324  11.007   6.192   6.930
71184SOL     OW15325   9.570   4.436   1.727
71184SOL    HW115326   9.647   4.378   1.730
71184SOL    HW215327   9.496   4.377   1.740
71185SOL     OW15328   5.963  13.406   1.321
71185SOL    HW115329   5.981  13.475   1.385
71185SOL    HW215330   5.868  13.398   1.319
71186SOL     OW15331   0.314   3.354   3.794
71186SOL    HW115332   0.351   3.289   3.853
71186SOL    HW215333   0.357   3.436   3.819
71187SOL     OW15334   9.049   1.568   5.011
71187SOL    HW115335   9.103   1.531   5.081
71187SOL    HW215336   9.001   1.493   4.976
71188SOL     OW15337   0.409  13.876   3.772
71188SOL    HW115338   0.371  13.904   3.855
71188SOL    HW215339   0.493  13.837   3.795
71189SOL     OW15340   9.154  10.558  10.333
71189SOL    HW115341   9.090  10.510  10.281
71189SOL    HW215342   9.151  10.515  10.419
71190SOL     OW15343   5.041   5.462  13.629
71190SOL    HW115344   5.062   5.533  13.569
71190SOL    HW215345   5.034   5.504  13.715
71191SOL     OW15346  14.150   0.671   3.605
71191SOL    HW115347  14.171   0.588   3.647
71191SOL    HW215348  14.147   0.734   3.677
71192SOL     OW15349  10.434  13.941  14.705
71192SOL    HW115350  10.352  13.991  14.710
71192SOL    HW215351  10.412  13.865  14.650
71193SOL     OW15352   8.261  10.141   3.285
71193SOL    HW115353   8.213  10.133   3.368
71193SOL    HW215354   8.209  10.091   3.222
71194SOL     OW15355   5.520   9.422   5.795
71194SOL    HW115356   5.578   9.345   5.797
71194SOL    HW215357   5.565   9.483   5.737
71195SOL     OW15358  14.342  10.939  14.453
71195SOL    HW115359  14.253  10.974  14.451
71195SOL    HW215360  14.385  10.978  14.378
71196SOL     OW15361   8.161  11.631  11.487
71196SOL    HW115362   8.068  11.617  11.506
71196SOL    HW215363   8.173  11.726  11.494
71197SOL     OW15364  10.134  10.650   6.725
71197SOL    HW115365  10.086  10.726   6.690
71197SOL    HW215366  10.142  10.590   6.651
71198SOL     OW15367  13.419   3.961   7.660
71198SOL    HW115368  13.452   4.015   7.588
71198SOL    HW215369  13.383   4.023   7.722
71199SOL     OW15370   3.176  13.126   2.381
71199SOL    HW115371   3.222  13.114   2.298
71199SOL    HW215372   3.243  13.111   2.448
71200SOL     OW15373   6.505   1.661   2.982
71200SOL    HW115374   6.510   1.749   3.018
71200SOL    HW215375   6.597   1.636   2.966
71201SOL     OW15376   2.009   9.594  14.146
71201SOL    HW115377   2.064   9.654  14.196
71201SOL    HW215378   2.055   9.583  14.063
71202SOL     OW15379   7.266  10.772   1.801
71202SOL    HW115380   7.360  10.780   1.783
71202SOL    HW215381   7.258  10.688   1.847
71203SOL     OW15382   5.699   5.770   5.763
71203SOL    HW115383   5.745   5.778   5.679
71203SOL    HW215384   5.611   5.806   5.745
71204SOL     OW15385  12.551  11.708   0.516
71204SOL    HW115386  12.509  11.714   0.430
71204SOL    HW215387  12.534  11.619   0.546
71205SOL     OW15388   3.306   1.800   6.843
71205SOL    HW115389   3.214   1.826   6.850
71205SOL    HW215390   3.309   1.745   6.764
71206SOL     OW15391   8.756   4.650  14.153
71206SOL    HW115392   8.697   4.725  14.151
71206SOL    HW215393   8.830   4.675  14.099
71207SOL     OW15394   3.785   6.474   7.038
71207SOL    HW115395   3.858   6.469   7.100
71207SOL    HW215396   3.775   6.568   7.021
71208SOL     OW15397  14.643  12.061   6.313
71208SOL    HW115398  14.642  12.037   6.220
71208SOL    HW215399  14.719  12.016   6.349
71209SOL     OW15400  13.982   2.756  14.414
71209SOL    HW115401  13.990   2.720  14.326
71209SOL    HW215402  13.947   2.684  14.466
71210SOL     OW15403  14.363   5.001  12.662
71210SOL    HW115404  14.274   5.010  12.694
71210SOL    HW215405  14.401   5.089  12.668
71211SOL     OW15406  13.883   6.024   7.969
71211SOL    HW115407  13.871   5.929   7.964
71211SOL    HW215408  13.806   6.060   7.924
71212SOL     OW15409   0.200   9.185   4.928
71212SOL    HW115410   0.247   9.209   5.008
71212SOL    HW215411   0.133   9.253   4.918
71213SOL     OW15412  13.878   5.039  14.050
71213SOL    HW115413  13.805   4.978  14.036
71213SOL    HW215414  13.952   4.999  14.004
71214SOL     OW15415  14.387   6.285  14.381
71214SOL    HW115416  14.404   6.320  14.468
71214SOL    HW215417  14.347   6.357  14.333
71215SOL     OW15418   3.792   9.134   1.423
71215SOL    HW115419   3.856   9.087   1.476
71215SOL    HW215420   3.707   9.109   1.459
71216SOL     OW15421   0.718   3.095   9.082
71216SOL    HW115422   0.704   3.002   9.095
71216SOL    HW215423   0.781   3.120   9.150
71217SOL     OW15424   8.829   8.566   5.069
71217SOL    HW115425   8.866   8.632   5.011
71217SOL    HW215426   8.796   8.498   5.010
71218SOL     OW15427   9.701  12.261   1.838
71218SOL    HW115428   9.710  12.355   1.855
71218SOL    HW215429   9.757  12.219   1.903
71219SOL     OW15430  10.308   3.493   6.955
71219SOL    HW115431  10.395   3.455   6.943
71219SOL    HW215432  10.319   3.585   6.930
71220SOL     OW15433   8.783   5.898   6.317
71220SOL    HW115434   8.759   5.979   6.273
71220SOL    HW215435   8.873   5.880   6.289
71221SOL     OW15436   0.726   2.594  14.502
71221SOL    HW115437   0.693   2.523  14.558
71221SOL    HW215438   0.817   2.570  14.486
71222SOL     OW15439   9.348   8.389   9.736
71222SOL    HW115440   9.413   8.379   9.806
71222SOL    HW215441   9.287   8.317   9.749
71223SOL     OW15442  13.330  11.717   7.222
71223SOL    HW115443  13.402  11.709   7.284
71223SOL    HW215444  13.274  11.641   7.240
71224SOL     OW15445   6.727   8.717   7.472
71224SOL    HW115446   6.689   8.629   7.477
71224SOL    HW215447   6.669   8.765   7.412
71225SOL     OW15448  11.706  13.684   7.144
71225SOL    HW115449  11.668  13.769   7.122
71225SOL    HW215450  11.800  13.702   7.153
71226SOL     OW15451   2.116  12.401  13.534
71226SOL    HW115452   2.078  12.399  13.446
71226SOL    HW215453   2.204  12.364  13.522
71227SOL     OW15454   3.393   4.217   6.502
71227SOL    HW115455   3.299   4.219   6.521
71227SOL    HW215456   3.425   4.302   6.535
71228SOL     OW15457  12.244   0.891   5.933
71228SOL    HW115458  12.296   0.966   5.961
71228SOL    HW215459  12.278   0.869   5.846
71229SOL     OW15460   0.210   8.414   4.213
71229SOL    HW115461   0.187   8.496   4.257
71229SOL    HW215462   0.258   8.441   4.135
71230SOL     OW15463   7.537  14.496  14.407
71230SOL    HW115464   7.511  14.426  14.468
71230SOL    HW215465   7.633  14.492  14.407
71231SOL     OW15466   6.226   5.537  12.929
71231SOL    HW115467   6.216   5.456  12.978
71231SOL    HW215468   6.207   5.606  12.992
71232SOL     OW15469  12.666   9.504   6.924
71232SOL    HW115470  12.576   9.490   6.893
71232SOL    HW215471  12.660   9.582   6.979
71233SOL     OW15472   3.525   5.650  13.452
71233SOL    HW115473   3.513   5.734  13.496
71233SOL    HW215474   3.577   5.671  13.374
71234SOL     OW15475  11.655   3.146   9.553
71234SOL    HW115476  11.709   3.208   9.505
71234SOL    HW215477  11.717   3.092   9.602
71235SOL     OW15478   3.847   8.096   5.362
71235SOL    HW115479   3.873   8.009   5.333
71235SOL    HW215480   3.930   8.139   5.386
71236SOL     OW15481  13.087  10.692   9.683
71236SOL    HW115482  13.032  10.770   9.676
71236SOL    HW215483  13.107  10.685   9.776
71237SOL     OW15484   8.914   7.052  11.706
71237SOL    HW115485   8.878   7.013  11.785
71237SOL    HW215486   9.006   7.067  11.727
71238SOL     OW15487   2.144  13.835   8.668
71238SOL    HW115488   2.091  13.911   8.642
71238SOL    HW215489   2.233  13.868   8.672
71239SOL     OW15490   7.885   8.049   8.336
71239SOL    HW115491   7.867   7.963   8.298
71239SOL    HW215492   7.830   8.109   8.285
71240SOL     OW15493   5.799   2.592   0.093
71240SOL    HW115494   5.716   2.566   0.054
71240SOL    HW215495   5.833   2.512   0.133
71241SOL     OW15496   0.406   2.518   1.509
71241SOL    HW115497   0.358   2.463   1.448
71241SOL    HW215498   0.488   2.471   1.525
71242SOL     OW15499   8.217   5.216  13.281
71242SOL    HW115500   8.300   5.170  13.265
71242SOL    HW215501   8.225   5.249  13.370
71243SOL     OW15502   1.638   7.115  11.659
71243SOL    HW115503   1.640   7.210  11.643
71243SOL    HW215504   1.554   7.099  11.702
71244SOL     OW15505   0.831   3.371   2.040
71244SOL    HW115506   0.924   3.366   2.019
71244SOL    HW215507   0.812   3.465   2.042
71245SOL     OW15508   3.217  11.266   3.953
71245SOL    HW115509   3.196  11.276   3.860
71245SOL    HW215510   3.166  11.190   3.981
71246SOL     OW15511   5.154  10.818   5.780
71246SOL    HW115512   5.105  10.868   5.844
71246SOL    HW215513   5.245  10.821   5.812
71247SOL     OW15514  13.856   8.317   5.969
71247SOL    HW115515  13.902   8.319   6.053
71247SOL    HW215516  13.766   8.296   5.991
71248SOL     OW15517   9.154   0.607  13.493
71248SOL    HW115518   9.194   0.577  13.575
71248SOL    HW215519   9.111   0.530  13.457
71249SOL     OW15520  11.556   5.025  12.879
71249SOL    HW115521  11.624   5.055  12.819
71249SOL    HW215522  11.558   4.929  12.872
71250SOL     OW15523  11.667   1.587   0.782
71250SOL    HW115524  11.582   1.628   0.799
71250SOL    HW215525  11.661   1.552   0.694
71251SOL     OW15526  12.298   3.987   6.481
71251SOL    HW115527  12.322   3.905   6.526
71251SOL    HW215528  12.266   3.958   6.395
71252SOL     OW15529   4.993   5.693   2.620
71252SOL    HW115530   4.998   5.641   2.700
71252SOL    HW215531   5.047   5.645   2.557
71253SOL     OW15532   3.656  13.104   0.300
71253SOL    HW115533   3.648  13.014   0.331
71253SOL    HW215534   3.589  13.111   0.231
71254SOL     OW15535   4.301  14.519   1.514
71254SOL    HW115536   4.368  14.491   1.577
71254SOL    HW215537   4.309  14.615   1.513
71255SOL     OW15538   2.167   2.890  10.650
71255SOL    HW115539   2.204   2.812  10.608
71255SOL    HW215540   2.078   2.894  10.617
71256SOL     OW15541   5.355   6.199   0.673
71256SOL    HW115542   5.406   6.136   0.724
71256SOL    HW215543   5.381   6.183   0.582
71257SOL     OW15544  12.166  13.433   5.033
71257SOL    HW115545  12.251  13.393   5.052
71257SOL    HW215546  12.179  13.526   5.050
71258SOL     OW15547  11.776   7.535  10.979
71258SOL    HW115548  11.702   7.478  10.957
71258SOL    HW215549  11.754   7.572  11.065
71259SOL     OW15550   7.684   4.795   5.698
71259SOL    HW115551   7.593   4.768   5.690
71259SOL    HW215552   7.709   4.822   5.610
71260SOL     OW15553   8.090  10.274   4.671
71260SOL    HW115554   8.185  10.270   4.674
71260SOL    HW215555   8.063  10.267   4.763
71261SOL     OW15556  11.365   4.163   3.865
71261SOL    HW115557  11.292   4.180   3.925
71261SOL    HW215558  11.435   4.130   3.921
71262SOL     OW15559  12.604   7.216  11.942
71262SOL    HW115560  12.521   7.195  11.986
71262SOL    HW215561  12.653   7.134  11.943
71263SOL     OW15562   4.181   3.678   0.745
71263SOL    HW115563   4.258   3.710   0.697
71263SOL    HW215564   4.133   3.626   0.681
71264SOL     OW15565  11.474   4.092  14.332
71264SOL    HW115566  11.479   4.131  14.419
71264SOL    HW215567  11.447   4.163  14.274
71265SOL     OW15568   9.714   3.477   2.511
71265SOL    HW115569   9.659   3.555   2.511
71265SOL    HW215570   9.684   3.426   2.587
71266SOL     OW15571   6.279  12.244   1.037
71266SOL    HW115572   6.202  12.280   1.081
71266SOL    HW215573   6.261  12.257   0.944
71267SOL     OW15574   5.450  10.257  13.910
71267SOL    HW115575   5.454  10.330  13.972
71267SOL    HW215576   5.478  10.295  13.827
71268SOL     OW15577   3.225  13.690   5.698
71268SOL    HW115578   3.231  13.784   5.716
71268SOL    HW215579   3.272  13.648   5.769
71269SOL     OW15580   9.541   3.325   5.915
71269SOL    HW115581   9.536   3.366   6.002
71269SOL    HW215582   9.511   3.236   5.929
71270SOL     OW15583  13.665   3.601  11.668
71270SOL    HW115584  13.742   3.639  11.711
71270SOL    HW215585  13.622   3.676  11.627
71271SOL     OW15586   9.733  11.423   8.652
71271SOL    HW115587   9.788  11.356   8.690
71271SOL    HW215588   9.772  11.440   8.566
71272SOL     OW15589   2.696   4.795  14.527
71272SOL    HW115590   2.779   4.822  14.490
71272SOL    HW215591   2.644   4.767  14.452
71273SOL     OW15592   7.308   5.446   2.993
71273SOL    HW115593   7.272   5.503   2.925
71273SOL    HW215594   7.380   5.495   3.031
71274SOL     OW15595  13.870   8.734   9.578
71274SOL    HW115596  13.790   8.690   9.547
71274SOL    HW215597  13.940   8.675   9.552
71275SOL     OW15598   0.029   3.805   9.164
71275SOL    HW115599  14.861   3.868   9.216
71275SOL    HW215600   0.073   3.750   9.229
71276SOL     OW15601   1.841   7.831  11.289
71276SOL    HW115602   1.881   7.764  11.234
71276SOL    HW215603   1.758   7.852  11.246
71277SOL     OW15604   8.218  13.181   2.580
71277SOL    HW115605   8.173  13.105   2.543
71277SOL    HW215606   8.151  13.249   2.585
71278SOL     OW15607  13.927   7.081   3.825
71278SOL    HW115608  13.900   7.171   3.809
71278SOL    HW215609  13.847   7.036   3.851
71279SOL     OW15610   8.345   2.840  13.979
71279SOL    HW115611   8.343   2.779  14.052
71279SOL    HW215612   8.416   2.900  13.999
71280SOL     OW15613  14.348   9.690  11.337
71280SOL    HW115614  14.443   9.678  11.345
71280SOL    HW215615  14.313   9.601  11.334
71281SOL     OW15616   4.555   9.164   5.285
71281SOL    HW115617   4.607   9.084   5.279
71281SOL    HW215618   4.470   9.134   5.317
71282SOL     OW15619  11.777   1.033   0.215
71282SOL    HW115620  11.698   1.076   0.248
71282SOL    HW215621  11.778   1.053   0.122
71283SOL     OW15622   5.091   2.154   2.084
71283SOL    HW115623   5.135   2.165   1.999
71283SOL    HW215624   5.054   2.066   2.081
71284SOL     OW15625   3.279   2.838  12.550
71284SOL    HW115626   3.257   2.925  12.518
71284SOL    HW215627   3.220   2.780  12.502
71285SOL     OW15628  11.001   4.609  11.875
71285SOL    HW115629  10.976   4.594  11.966
71285SOL    HW215630  10.974   4.529  11.829
71286SOL     OW15631  12.047   3.362  12.535
71286SOL    HW115632  12.141   3.380  12.541
71286SOL    HW215633  12.012   3.436  12.486
71287SOL     OW15634   9.196  11.425   4.546
71287SOL    HW115635   9.236  11.512   4.537
71287SOL    HW215636   9.155  11.426   4.632
71288SOL     OW15637  11.346   0.772  11.205
71288SOL    HW115638  11.346   0.796  11.298
71288SOL    HW215639  11.295   0.842  11.163
71289SOL     OW15640   2.630   9.576   2.692
71289SOL    HW115641   2.625   9.587   2.787
71289SOL    HW215642   2.611   9.663   2.657
71290SOL     OW15643   4.856  11.603  11.937
71290SOL    HW115644   4.858  11.612  11.842
71290SOL    HW215645   4.765  11.623  11.961
71291SOL     OW15646   0.620  13.685   3.773
71291SOL    HW115647   0.545  13.657   3.824
71291SOL    HW215648   0.617  13.631   3.694
71292SOL     OW15649  11.807   5.935  10.683
71292SOL    HW115650  11.744   5.928  10.754
71292SOL    HW215651  11.835   6.027  10.684
71293SOL     OW15652   2.517   7.664   0.307
71293SOL    HW115653   2.562   7.596   0.256
71293SOL    HW215654   2.551   7.746   0.271
71294SOL     OW15655   5.450   4.686   4.891
71294SOL    HW115656   5.392   4.699   4.816
71294SOL    HW215657   5.486   4.774   4.908
71295SOL     OW15658   5.514   6.230  12.016
71295SOL    HW115659   5.486   6.148  11.974
71295SOL    HW215660   5.440   6.255  12.072
71296SOL     OW15661   2.266   3.736   4.520
71296SOL    HW115662   2.246   3.652   4.480
71296SOL    HW215663   2.343   3.768   4.472
71297SOL     OW15664   5.403   3.209   7.682
71297SOL    HW115665   5.436   3.182   7.596
71297SOL    HW215666   5.331   3.269   7.661
71298SOL     OW15667   0.538  14.741  10.155
71298SOL    HW115668   0.489  14.814  10.192
71298SOL    HW215669   0.474  14.692  10.104
71299SOL     OW15670   9.949  11.791   9.647
71299SOL    HW115671  10.029  11.744   9.669
71299SOL    HW215672   9.971  11.838   9.566
71300SOL     OW15673   8.964  10.516   7.634
71300SOL    HW115674   9.031  10.474   7.580
71300SOL    HW215675   8.911  10.566   7.572
71301SOL     OW15676   9.846   7.952   5.863
71301SOL    HW115677   9.777   7.975   5.925
71301SOL    HW215678   9.906   8.026   5.865
71302SOL     OW15679   0.304   5.405   7.047
71302SOL    HW115680   0.315   5.456   7.128
71302SOL    HW215681   0.231   5.346   7.065
71303SOL     OW15682   7.060   2.470   4.582
71303SOL    HW115683   7.098   2.460   4.669
71303SOL    HW215684   7.039   2.381   4.553
71304SOL     OW15685  12.722   2.413   4.743
71304SOL    HW115686  12.628   2.405   4.758
71304SOL    HW215687  12.732   2.401   4.649
71305SOL     OW15688   7.501   4.338   5.972
71305SOL    HW115689   7.500   4.274   5.900
71305SOL    HW215690   7.584   4.321   6.017
71306SOL     OW15691   1.078   5.595   9.486
71306SOL    HW115692   1.062   5.658   9.556
71306SOL    HW215693   1.061   5.643   9.405
71307SOL     OW15694   8.093   5.319   6.189
71307SOL    HW115695   8.056   5.239   6.152
71307SOL    HW215696   8.079   5.310   6.283
71308SOL     OW15697   7.599   7.564  11.679
71308SOL    HW115698   7.572   7.554  11.588
71308SOL    HW215699   7.692   7.588  11.674
71309SOL     OW15700   6.611  10.963  11.855
71309SOL    HW115701   6.549  10.906  11.809
71309SOL    HW215702   6.697  10.928  11.833
71310SOL     OW15703   8.290   4.739   5.624
71310SOL    HW115704   8.264   4.774   5.709
71310SOL    HW215705   8.386   4.748   5.622
71311SOL     OW15706   2.037   3.133   8.729
71311SOL    HW115707   1.977   3.135   8.803
71311SOL    HW215708   2.083   3.049   8.737
71312SOL     OW15709  12.426   3.430   4.067
71312SOL    HW115710  12.454   3.497   4.130
71312SOL    HW215711  12.331   3.435   4.068
71313SOL     OW15712   6.804  10.073   0.661
71313SOL    HW115713   6.861  10.095   0.588
71313SOL    HW215714   6.851  10.004   0.708
71314SOL     OW15715   3.317   4.571  12.795
71314SOL    HW115716   3.394   4.597  12.745
71314SOL    HW215717   3.348   4.500  12.851
71315SOL     OW15718   0.085   8.595   2.462
71315SOL    HW115719   0.168   8.596   2.510
71315SOL    HW215720   0.034   8.666   2.501
71316SOL     OW15721   7.577   6.909   0.982
71316SOL    HW115722   7.505   6.876   1.035
71316SOL    HW215723   7.635   6.953   1.044
71317SOL     OW15724  11.061   5.456   8.631
71317SOL    HW115725  10.985   5.511   8.615
71317SOL    HW215726  11.131   5.495   8.579
71318SOL     OW15727   5.078  12.492   8.833
71318SOL    HW115728   5.007  12.519   8.774
71318SOL    HW215729   5.156  12.534   8.797
71319SOL     OW15730  12.599   2.525   8.819
71319SOL    HW115731  12.625   2.464   8.749
71319SOL    HW215732  12.510   2.552   8.795
71320SOL     OW15733  13.259   5.593   8.056
71320SOL    HW115734  13.330   5.529   8.060
71320SOL    HW215735  13.269   5.645   8.135
71321SOL     OW15736   0.656  11.198  10.520
71321SOL    HW115737   0.589  11.254  10.480
71321SOL    HW215738   0.655  11.222  10.613
71322SOL     OW15739  12.841   0.043   6.672
71322SOL    HW115740  12.840   0.138   6.687
71322SOL    HW215741  12.844   0.035   6.576
71323SOL     OW15742   1.529  10.867  13.159
71323SOL    HW115743   1.439  10.875  13.191
71323SOL    HW215744   1.533  10.924  13.083
71324SOL     OW15745   7.218   0.640   6.963
71324SOL    HW115746   7.260   0.690   6.892
71324SOL    HW215747   7.156   0.583   6.919
71325SOL     OW15748   4.897   7.094  10.320
71325SOL    HW115749   4.871   7.031  10.253
71325SOL    HW215750   4.989   7.112  10.303
71326SOL     OW15751  13.820   0.341   1.756
71326SOL    HW115752  13.855   0.421   1.717
71326SOL    HW215753  13.872   0.271   1.716
71327SOL     OW15754   8.901  13.382  13.782
71327SOL    HW115755   8.821  13.356  13.828
71327SOL    HW215756   8.954  13.424  13.849
71328SOL     OW15757   0.687   7.663  11.226
71328SOL    HW115758   0.737   7.730  11.273
71328SOL    HW215759   0.753   7.615  11.175
71329SOL     OW15760   7.159   4.726  13.096
71329SOL    HW115761   7.208   4.779  13.033
71329SOL    HW215762   7.091   4.785  13.129
71330SOL     OW15763   2.424   1.263   6.753
71330SOL    HW115764   2.452   1.349   6.722
71330SOL    HW215765   2.472   1.201   6.698
71331SOL     OW15766   3.512   6.225   3.356
71331SOL    HW115767   3.533   6.141   3.395
71331SOL    HW215768   3.434   6.255   3.404
71332SOL     OW15769   3.627  13.800   4.394
71332SOL    HW115770   3.710  13.829   4.433
71332SOL    HW215771   3.586  13.880   4.363
71333SOL     OW15772   7.369   4.686   8.988
71333SOL    HW115773   7.390   4.747   9.059
71333SOL    HW215774   7.421   4.608   9.008
71334SOL     OW15775   4.716  11.064   0.082
71334SOL    HW115776   4.689  11.099  14.878
71334SOL    HW215777   4.712  10.969   0.072
71335SOL     OW15778  10.789   5.219   5.774
71335SOL    HW115779  10.813   5.134   5.810
71335SOL    HW215780  10.871   5.267   5.770
71336SOL     OW15781   7.538   4.950   1.674
71336SOL    HW115782   7.583   4.912   1.598
71336SOL    HW215783   7.578   5.037   1.683
71337SOL     OW15784  13.975   4.615   1.031
71337SOL    HW115785  14.067   4.597   1.051
71337SOL    HW215786  13.935   4.633   1.116
71338SOL     OW15787   6.738   9.806  14.055
71338SOL    HW115788   6.812   9.784  14.112
71338SOL    HW215789   6.684   9.865  14.107
71339SOL     OW15790  12.505  11.390   2.624
71339SOL    HW115791  12.473  11.302   2.604
71339SOL    HW215792  12.426  11.444   2.622
71340SOL     OW15793   5.954  11.423   4.854
71340SOL    HW115794   6.010  11.444   4.929
71340SOL    HW215795   5.966  11.497   4.795
71341SOL     OW15796   8.337  13.382  10.359
71341SOL    HW115797   8.369  13.455  10.413
71341SOL    HW215798   8.332  13.308  10.420
71342SOL     OW15799   3.382   0.594  10.224
71342SOL    HW115800   3.438   0.518  10.241
71342SOL    HW215801   3.441   0.669  10.235
71343SOL     OW15802   3.427  13.720  14.819
71343SOL    HW115803   3.453  13.805  14.855
71343SOL    HW215804   3.462  13.719  14.730
71344SOL     OW15805   7.902   2.448   2.494
71344SOL    HW115806   7.942   2.393   2.426
71344SOL    HW215807   7.973   2.464   2.557
71345SOL     OW15808   7.905   7.557   2.396
71345SOL    HW115809   7.870   7.587   2.481
71345SOL    HW215810   7.876   7.624   2.334
71346SOL     OW15811   1.014   3.939  12.419
71346SOL    HW115812   1.004   3.962  12.511
71346SOL    HW215813   1.032   3.845  12.420
71347SOL     OW15814   0.001   2.360   1.563
71347SOL    HW115815  14.837   2.315   1.634
71347SOL    HW215816   0.036   2.439   1.604
71348SOL     OW15817   1.648   6.853   8.515
71348SOL    HW115818   1.599   6.934   8.522
71348SOL    HW215819   1.739   6.880   8.506
71349SOL     OW15820   5.056   7.673   5.846
71349SOL    HW115821   4.962   7.662   5.835
71349SOL    HW215822   5.065   7.754   5.897
71350SOL     OW15823   2.588  13.283   5.984
71350SOL    HW115824   2.618  13.373   5.970
71350SOL    HW215825   2.620  13.261   6.072
71351SOL     OW15826   9.016   0.083   4.768
71351SOL    HW115827   9.035   0.083   4.861
71351SOL    HW215828   8.920   0.086   4.763
71352SOL     OW15829  10.955  10.659  11.194
71352SOL    HW115830  10.865  10.634  11.212
71352SOL    HW215831  10.989  10.689  11.278
71353SOL     OW15832   3.543   5.153   5.177
71353SOL    HW115833   3.467   5.127   5.229
71353SOL    HW215834   3.618   5.134   5.233
71354SOL     OW15835   7.682  14.428   0.802
71354SOL    HW115836   7.767  14.447   0.763
71354SOL    HW215837   7.637  14.513   0.804
71355SOL     OW15838  13.616  12.253   3.212
71355SOL    HW115839  13.631  12.160   3.196
71355SOL    HW215840  13.536  12.274   3.164
71356SOL     OW15841   0.846   0.718  10.749
71356SOL    HW115842   0.838   0.623  10.757
71356SOL    HW215843   0.914   0.741  10.812
71357SOL     OW15844   4.868  13.536  11.908
71357SOL    HW115845   4.805  13.465  11.923
71357SOL    HW215846   4.908  13.551  11.994
71358SOL     OW15847  10.543  12.027  10.076
71358SOL    HW115848  10.499  12.112  10.078
71358SOL    HW215849  10.473  11.964  10.096
71359SOL     OW15850  14.707  11.423  14.641
71359SOL    HW115851  14.726  11.516  14.655
71359SOL    HW215852  14.664  11.421  14.555
71360SOL     OW15853  10.561  12.875   0.973
71360SOL    HW115854  10.628  12.944   0.978
71360SOL    HW215855  10.599  12.801   1.019
71361SOL     OW15856  10.956  14.495   4.979
71361SOL    HW115857  10.892  14.566   4.980
71361SOL    HW215858  10.993  14.494   5.067
71362SOL     OW15859   1.318  10.841  12.721
71362SOL    HW115860   1.394  10.798  12.683
71362SOL    HW215861   1.352  10.882  12.801
71363SOL     OW15862   5.322  14.755  14.474
71363SOL    HW115863   5.386  14.818  14.441
71363SOL    HW215864   5.238  14.788  14.445
71364SOL     OW15865   2.960   5.530   8.258
71364SOL    HW115866   2.940   5.622   8.241
71364SOL    HW215867   2.897   5.482   8.204
71365SOL     OW15868   5.991  10.298  12.422
71365SOL    HW115869   6.011  10.320  12.514
71365SOL    HW215870   5.956  10.209  12.426
71366SOL     OW15871  12.545   7.952   6.841
71366SOL    HW115872  12.505   7.973   6.925
71366SOL    HW215873  12.636   7.978   6.850
71367SOL     OW15874  14.071   2.365   0.290
71367SOL    HW115875  14.106   2.335   0.206
71367SOL    HW215876  14.147   2.403   0.335
71368SOL     OW15877   9.931  10.822   8.103
71368SOL    HW115878   9.979  10.881   8.161
71368SOL    HW215879   9.839  10.834   8.128
71369SOL     OW15880   1.834   2.134   9.166
71369SOL    HW115881   1.794   2.203   9.113
71369SOL    HW215882   1.875   2.181   9.238
71370SOL     OW15883   8.031  14.271  13.197
71370SOL    HW115884   8.020  14.294  13.289
71370SOL    HW215885   8.055  14.353  13.154
71371SOL     OW15886   1.104   6.030   6.786
71371SOL    HW115887   1.186   6.069   6.754
71371SOL    HW215888   1.123   6.006   6.877
71372SOL     OW15889   1.807  13.214   7.149
71372SOL    HW115890   1.778  13.124   7.162
71372SOL    HW215891   1.844  13.215   7.060
71373SOL     OW15892   9.982   1.416   1.665
71373SOL    HW115893   9.969   1.505   1.696
71373SOL    HW215894   9.893   1.384   1.647
71374SOL     OW15895   9.840  11.050   7.270
71374SOL    HW115896   9.844  10.975   7.210
71374SOL    HW215897   9.914  11.038   7.329
71375SOL     OW15898   5.034   0.816   1.163
71375SOL    HW115899   5.093   0.867   1.108
71375SOL    HW215900   5.092   0.770   1.224
71376SOL     OW15901   1.911   0.238   6.304
71376SOL    HW115902   1.832   0.288   6.322
71376SOL    HW215903   1.973   0.302   6.269
71377SOL     OW15904  10.859   5.725   3.770
71377SOL    HW115905  10.770   5.731   3.735
71377SOL    HW215906  10.915   5.714   3.693
71378SOL     OW15907   7.159  11.548   0.131
71378SOL    HW115908   7.184  11.461   0.101
71378SOL    HW215909   7.069  11.559   0.100
71379SOL     OW15910   1.118   7.700  13.842
71379SOL    HW115911   1.085   7.628  13.787
71379SOL    HW215912   1.192   7.662  13.889
71380SOL     OW15913   2.396   5.315   4.107
71380SOL    HW115914   2.455   5.361   4.047
71380SOL    HW215915   2.435   5.328   4.194
71381SOL     OW15916   1.714  10.066  14.406
71381SOL    HW115917   1.721  10.071  14.310
71381SOL    HW215918   1.662  10.142  14.430
71382SOL     OW15919   7.442   1.273   0.057
71382SOL    HW115920   7.500   1.332   0.009
71382SOL    HW215921   7.489   1.255   0.138
71383SOL     OW15922  14.597  14.542   0.880
71383SOL    HW115923  14.607  14.608   0.811
71383SOL    HW215924  14.649  14.576   0.953
71384SOL     OW15925   5.889   0.220   3.947
71384SOL    HW115926   5.984   0.227   3.956
71384SOL    HW215927   5.855   0.304   3.977
71385SOL     OW15928   1.055   8.251   4.423
71385SOL    HW115929   1.083   8.233   4.332
71385SOL    HW215930   1.126   8.304   4.459
71386SOL     OW15931  10.069  11.460   9.027
71386SOL    HW115932  10.153  11.426   9.057
71386SOL    HW215933  10.052  11.412   8.946
71387SOL     OW15934   2.297   6.943  14.773
71387SOL    HW115935   2.352   6.932  14.696
71387SOL    HW215936   2.300   7.037  14.791
71388SOL     OW15937  10.903   4.496   8.451
71388SOL    HW115938  10.973   4.557   8.428
71388SOL    HW215939  10.833   4.552   8.484
71389SOL     OW15940   5.552   6.212  10.793
71389SOL    HW115941   5.625   6.242  10.848
71389SOL    HW215942   5.497   6.290  10.782
71390SOL     OW15943  12.924   2.044   7.923
71390SOL    HW115944  13.007   2.079   7.891
71390SOL    HW215945  12.879   2.011   7.845
71391SOL     OW15946   4.918  14.631   4.506
71391SOL    HW115947   4.960  14.567   4.449
71391SOL    HW215948   4.933  14.715   4.464
71392SOL     OW15949   3.032  11.112   6.717
71392SOL    HW115950   2.992  11.177   6.659
71392SOL    HW215951   3.103  11.074   6.665
71393SOL     OW15952   3.977   9.053   3.934
71393SOL    HW115953   4.070   9.077   3.926
71393SOL    HW215954   3.930   9.131   3.905
71394SOL     OW15955   1.420   6.948   5.378
71394SOL    HW115956   1.475   7.009   5.426
71394SOL    HW215957   1.458   6.945   5.290
71395SOL     OW15958  13.091   0.839  13.378
71395SOL    HW115959  13.076   0.929  13.348
71395SOL    HW215960  13.018   0.789  13.340
71396SOL     OW15961   3.322   4.414   5.484
71396SOL    HW115962   3.374   4.340   5.515
71396SOL    HW215963   3.291   4.457   5.564
71397SOL     OW15964   6.712   4.493  11.836
71397SOL    HW115965   6.780   4.446  11.885
71397SOL    HW215966   6.630   4.452  11.863
71398SOL     OW15967  12.839   8.438   4.588
71398SOL    HW115968  12.815   8.530   4.579
71398SOL    HW215969  12.790   8.408   4.665
71399SOL     OW15970  11.702   6.630   2.047
71399SOL    HW115971  11.674   6.692   1.979
71399SOL    HW215972  11.692   6.544   2.007
71400SOL     OW15973  10.751   9.493   5.390
71400SOL    HW115974  10.742   9.520   5.481
71400SOL    HW215975  10.663   9.499   5.354
71401SOL     OW15976   2.800  10.816   0.268
71401SOL    HW115977   2.824  10.895   0.221
71401SOL    HW215978   2.880  10.763   0.270
71402SOL     OW15979   6.161   2.853  11.825
71402SOL    HW115980   6.219   2.866  11.900
71402SOL    HW215981   6.073   2.864  11.861
71403SOL     OW15982   8.905   4.801   1.015
71403SOL    HW115983   8.827   4.852   1.036
71403SOL    HW215984   8.910   4.803   0.920
71404SOL     OW15985   9.311  14.536   8.933
71404SOL    HW115986   9.241  14.503   8.876
71404SOL    HW215987   9.365  14.459   8.952
71405SOL     OW15988  10.563   4.689   0.213
71405SOL    HW115989  10.653   4.662   0.230
71405SOL    HW215990  10.530   4.625   0.150
71406SOL     OW15991  13.905   3.039   4.069
71406SOL    HW115992  13.955   3.115   4.039
71406SOL    HW215993  13.837   3.026   4.004
71407SOL     OW15994  10.892   4.921  14.840
71407SOL    HW115995  10.807   4.958  14.817
71407SOL    HW215996  10.891   4.833  14.802
71408SOL     OW15997   7.973  11.926   0.949
71408SOL    HW115998   7.988  12.004   0.896
71408SOL    HW215999   8.039  11.931   1.018
71409SOL     OW16000   6.352   1.105  11.925
71409SOL    HW116001   6.294   1.031  11.945
71409SOL    HW216002   6.420   1.101  11.992
71410SOL     OW16003   0.227   3.951   6.922
71410SOL    HW116004   0.219   3.961   7.017
71410SOL    HW216005   0.259   4.036   6.892
71411SOL     OW16006   2.578   0.434  12.362
71411SOL    HW116007   2.640   0.489  12.314
71411SOL    HW216008   2.498   0.487  12.366
71412SOL     OW16009   9.632  10.334   6.429
71412SOL    HW116010   9.637  10.343   6.524
71412SOL    HW216011   9.607  10.243   6.414
71413SOL     OW16012  13.599  11.277   5.920
71413SOL    HW116013  13.557  11.355   5.885
71413SOL    HW216014  13.529  11.212   5.926
71414SOL     OW16015  13.122   9.005  11.137
71414SOL    HW116016  13.027   9.001  11.125
71414SOL    HW216017  13.156   9.017  11.048
71415SOL     OW16018  13.883  11.854   1.747
71415SOL    HW116019  13.881  11.949   1.761
71415SOL    HW216020  13.973  11.836   1.720
71416SOL     OW16021  12.980   8.146   0.875
71416SOL    HW116022  13.065   8.140   0.918
71416SOL    HW216023  13.001   8.151   0.782
71417SOL     OW16024   3.756   3.277   9.827
71417SOL    HW116025   3.751   3.351   9.887
71417SOL    HW216026   3.685   3.292   9.765
71418SOL     OW16027   2.192   7.436   1.943
71418SOL    HW116028   2.205   7.526   1.913
71418SOL    HW216029   2.125   7.444   2.012
71419SOL     OW16030  11.519  12.992   8.977
71419SOL    HW116031  11.497  12.966   9.067
71419SOL    HW216032  11.615  12.988   8.974
71420SOL     OW16033   0.249   4.896  11.401
71420SOL    HW116034   0.174   4.954  11.414
71420SOL    HW216035   0.285   4.883  11.490
71421SOL     OW16036  10.348   5.689   7.396
71421SOL    HW116037  10.381   5.759   7.339
71421SOL    HW216038  10.385   5.609   7.360
71422SOL     OW16039   3.475   1.670   3.390
71422SOL    HW116040   3.488   1.616   3.312
71422SOL    HW216041   3.415   1.619   3.445
71423SOL     OW16042  12.898   3.164  10.723
71423SOL    HW116043  12.832   3.133  10.785
71423SOL    HW216044  12.868   3.252  10.699
71424SOL     OW16045   8.788   3.202   2.204
71424SOL    HW116046   8.848   3.135   2.238
71424SOL    HW216047   8.711   3.197   2.261
71425SOL     OW16048  10.662   5.757  14.271
71425SOL    HW116049  10.661   5.853  14.280
71425SOL    HW216050  10.585   5.738  14.218
71426SOL     OW16051   2.266  10.333   3.681
71426SOL    HW116052   2.335  10.315   3.745
71426SOL    HW216053   2.229  10.417   3.708
71427SOL     OW16054   4.189   8.311   1.420
71427SOL    HW116055   4.112   8.282   1.468
71427SOL    HW216056   4.245   8.351   1.486
71428SOL     OW16057   9.642   2.460  12.187
71428SOL    HW116058   9.719   2.411  12.160
71428SOL    HW216059   9.569   2.417  12.144
71429SOL     OW16060  11.434   2.893   5.882
71429SOL    HW116061  11.435   2.798   5.898
71429SOL    HW216062  11.348   2.909   5.844
71430SOL     OW16063  14.272  12.134  13.741
71430SOL    HW116064  14.211  12.140  13.814
71430SOL    HW216065  14.255  12.213  13.689
71431SOL     OW16066   4.472   3.417   3.452
71431SOL    HW116067   4.458   3.396   3.545
71431SOL    HW216068   4.398   3.472   3.429
71432SOL     OW16069  14.221   6.018   7.360
71432SOL    HW116070  14.271   6.082   7.310
71432SOL    HW216071  14.229   5.937   7.310
71433SOL     OW16072  13.286   7.417  12.461
71433SOL    HW116073  13.194   7.396  12.479
71433SOL    HW216074  13.323   7.438  12.547
71434SOL     OW16075   2.529   2.772  12.247
71434SOL    HW116076   2.505   2.865  12.239
71434SOL    HW216077   2.525   2.739  12.158
71435SOL     OW16078  10.242   0.118   4.295
71435SOL    HW116079  10.151   0.103   4.272
71435SOL    HW216080  10.246   0.210   4.322
71436SOL     OW16081   5.042   6.854  10.454
71436SOL    HW116082   5.007   6.812  10.533
71436SOL    HW216083   4.975   6.841  10.388
71437SOL     OW16084   2.068   0.281   2.721
71437SOL    HW116085   2.113   0.291   2.637
71437SOL    HW216086   2.019   0.199   2.713
71438SOL     OW16087   4.804   1.262   6.612
71438SOL    HW116088   4.821   1.184   6.560
71438SOL    HW216089   4.755   1.231   6.687
71439SOL     OW16090   5.643   0.812   1.554
71439SOL    HW116091   5.641   0.741   1.491
71439SOL    HW216092   5.698   0.879   1.514
71440SOL     OW16093  11.967  14.120   6.748
71440SOL    HW116094  11.968  14.028   6.774
71440SOL    HW216095  12.052  14.154   6.778
71441SOL     OW16096   9.518  10.833  11.709
71441SOL    HW116097   9.430  10.851  11.743
71441SOL    HW216098   9.568  10.804  11.785
71442SOL     OW16099   9.694  14.171   0.621
71442SOL    HW116100   9.759  14.102   0.632
71442SOL    HW216101   9.650  14.150   0.539
71443SOL     OW16102   0.019  11.880   8.092
71443SOL    HW116103  14.877  11.874   8.000
71443SOL    HW216104  14.842  11.818   8.136
71444SOL     OW16105   5.557   2.653  10.032
71444SOL    HW116106   5.646   2.618  10.024
71444SOL    HW216107   5.551   2.685  10.122
71445SOL     OW16108   2.230   6.805   0.956
71445SOL    HW116109   2.210   6.898   0.965
71445SOL    HW216110   2.249   6.776   1.045
71446SOL     OW16111   1.137  12.662   1.125
71446SOL    HW116112   1.200  12.723   1.164
71446SOL    HW216113   1.124  12.695   1.036
71447SOL     OW16114  14.079  12.919   9.705
71447SOL    HW116115  14.040  12.905   9.618
71447SOL    HW216116  14.025  12.866   9.764
71448SOL     OW16117   2.879  13.421  13.412
71448SOL    HW116118   2.807  13.460  13.363
71448SOL    HW216119   2.838  13.385  13.491
71449SOL     OW16120  11.742   7.139   1.113
71449SOL    HW116121  11.783   7.193   1.180
71449SOL    HW216122  11.781   7.170   1.031
71450SOL     OW16123  13.529   9.027   9.749
71450SOL    HW116124  13.508   8.972   9.674
71450SOL    HW216125  13.475   8.992   9.820
71451SOL     OW16126  10.380   0.074   9.703
71451SOL    HW116127  10.433   0.111   9.774
71451SOL    HW216128  10.445   0.045   9.638
71452SOL     OW16129  13.746  11.535  10.513
71452SOL    HW116130  13.777  11.513  10.425
71452SOL    HW216131  13.650  11.526  10.507
71453SOL     OW16132   1.930   7.445   7.927
71453SOL    HW116133   1.961   7.370   7.875
71453SOL    HW216134   2.001   7.509   7.920
71454SOL     OW16135   6.396   7.784  12.724
71454SOL    HW116136   6.380   7.836  12.803
71454SOL    HW216137   6.310   7.767  12.687
71455SOL     OW16138   8.657   6.934  14.486
71455SOL    HW116139   8.641   6.988  14.408
71455SOL    HW216140   8.584   6.872  14.487
71456SOL     OW16141   9.517  13.628   4.187
71456SOL    HW116142   9.563  13.651   4.107
71456SOL    HW216143   9.433  13.592   4.157
71457SOL     OW16144  10.651   8.362  11.161
71457SOL    HW116145  10.628   8.355  11.069
71457SOL    HW216146  10.567   8.378  11.205
71458SOL     OW16147  11.740   6.885   6.476
71458SOL    HW116148  11.715   6.797   6.504
71458SOL    HW216149  11.834   6.879   6.459
71459SOL     OW16150   0.761   9.042   3.844
71459SOL    HW116151   0.756   9.059   3.750
71459SOL    HW216152   0.825   9.104   3.877
71460SOL     OW16153   1.988   6.500   4.896
71460SOL    HW116154   2.056   6.562   4.921
71460SOL    HW216155   1.905   6.546   4.913
71461SOL     OW16156   7.693   6.256   5.238
71461SOL    HW116157   7.713   6.168   5.204
71461SOL    HW216158   7.778   6.292   5.263
71462SOL     OW16159   0.616   7.877   3.029
71462SOL    HW116160   0.708   7.889   3.009
71462SOL    HW216161   0.596   7.944   3.095
71463SOL     OW16162   3.803  13.438   7.966
71463SOL    HW116163   3.857  13.509   7.932
71463SOL    HW216164   3.714  13.473   7.966
71464SOL     OW16165   1.093  12.767  10.425
71464SOL    HW116166   1.135  12.739  10.344
71464SOL    HW216167   1.166  12.790  10.483
71465SOL     OW16168  10.531   8.591   4.817
71465SOL    HW116169  10.536   8.527   4.888
71465SOL    HW216170  10.441   8.586   4.786
71466SOL     OW16171  12.615   0.192   5.240
71466SOL    HW116172  12.649   0.266   5.191
71466SOL    HW216173  12.604   0.123   5.175
71467SOL     OW16174   4.446   1.676  11.385
71467SOL    HW116175   4.494   1.597  11.408
71467SOL    HW216176   4.378   1.684  11.451
71468SOL     OW16177   1.292  10.106   2.037
71468SOL    HW116178   1.221  10.065   1.988
71468SOL    HW216179   1.371  10.059   2.010
71469SOL     OW16180   8.039  10.587  12.703
71469SOL    HW116181   8.033  10.547  12.616
71469SOL    HW216182   7.952  10.623  12.720
71470SOL     OW16183   9.340  10.777  14.640
71470SOL    HW116184   9.345  10.734  14.725
71470SOL    HW216185   9.336  10.870  14.660
71471SOL     OW16186  13.968   3.887   5.223
71471SOL    HW116187  13.916   3.809   5.242
71471SOL    HW216188  13.904   3.958   5.221
71472SOL     OW16189  12.826  12.184   8.118
71472SOL    HW116190  12.878  12.106   8.099
71472SOL    HW216191  12.789  12.167   8.205
71473SOL     OW16192   8.348   4.606  13.840
71473SOL    HW116193   8.355   4.620  13.745
71473SOL    HW216194   8.377   4.516  13.853
71474SOL     OW16195   2.387   3.887   7.472
71474SOL    HW116196   2.396   3.957   7.407
71474SOL    HW216197   2.439   3.814   7.436
71475SOL     OW16198   3.986   0.105   4.533
71475SOL    HW116199   3.900   0.144   4.516
71475SOL    HW216200   3.972   0.011   4.523
71476SOL     OW16201  14.442   2.148   6.015
71476SOL    HW116202  14.504   2.076   6.023
71476SOL    HW216203  14.357   2.109   6.040
71477SOL     OW16204   2.490   8.829   8.764
71477SOL    HW116205   2.582   8.844   8.787
71477SOL    HW216206   2.484   8.735   8.751
71478SOL     OW16207   5.726   4.150   2.692
71478SOL    HW116208   5.685   4.213   2.631
71478SOL    HW216209   5.712   4.188   2.778
71479SOL     OW16210   6.501  12.294   2.440
71479SOL    HW116211   6.540  12.261   2.521
71479SOL    HW216212   6.407  12.294   2.458
71480SOL     OW16213  13.200   5.166  14.394
71480SOL    HW116214  13.237   5.182  14.481
71480SOL    HW216215  13.273   5.136  14.342
71481SOL     OW16216   8.525   7.911   0.884
71481SOL    HW116217   8.518   7.998   0.923
71481SOL    HW216218   8.514   7.851   0.958
71482SOL     OW16219  10.919  11.487  10.667
71482SOL    HW116220  10.980  11.425  10.627
71482SOL    HW216221  10.851  11.432  10.706
71483SOL     OW16222   6.991   9.432  13.576
71483SOL    HW116223   7.075   9.385  13.573
71483SOL    HW216224   6.936   9.386  13.512
71484SOL     OW16225   7.529   5.403  14.523
71484SOL    HW116226   7.594   5.450  14.575
71484SOL    HW216227   7.558   5.312  14.525
71485SOL     OW16228  13.513  13.418   8.670
71485SOL    HW116229  13.530  13.510   8.689
71485SOL    HW216230  13.437  13.396   8.723
71486SOL     OW16231  14.243   1.311   5.969
71486SOL    HW116232  14.189   1.386   5.993
71486SOL    HW216233  14.199   1.236   6.008
71487SOL     OW16234   9.811  10.124  13.066
71487SOL    HW116235   9.737  10.184  13.074
71487SOL    HW216236   9.772  10.040  13.040
71488SOL     OW16237   2.430  10.003   7.153
71488SOL    HW116238   2.472   9.941   7.094
71488SOL    HW216239   2.469   9.985   7.239
71489SOL     OW16240   4.949   7.627   6.935
71489SOL    HW116241   5.033   7.626   6.889
71489SOL    HW216242   4.896   7.689   6.885
71490SOL     OW16243   3.055   9.811   2.109
71490SOL    HW116244   3.007   9.830   2.190
71490SOL    HW216245   2.988   9.788   2.046
71491SOL     OW16246  14.429   5.122  13.586
71491SOL    HW116247  14.413   5.030  13.562
71491SOL    HW216248  14.343   5.164  13.580
71492SOL     OW16249   3.173   2.395   1.893
71492SOL    HW116250   3.141   2.480   1.924
71492SOL    HW216251   3.268   2.407   1.882
71493SOL     OW16252  14.382   5.193   9.275
71493SOL    HW116253  14.342   5.250   9.340
71493SOL    HW216254  14.442   5.249   9.227
71494SOL     OW16255   4.045   2.419   8.475
71494SOL    HW116256   4.097   2.431   8.555
71494SOL    HW216257   4.028   2.509   8.445
71495SOL     OW16258  11.490   7.501   5.978
71495SOL    HW116259  11.402   7.464   5.979
71495SOL    HW216260  11.485   7.576   6.038
71496SOL     OW16261  11.731  10.064   9.210
71496SOL    HW116262  11.741  10.155   9.181
71496SOL    HW216263  11.644  10.039   9.180
71497SOL     OW16264  10.263   8.134   7.944
71497SOL    HW116265  10.265   8.188   7.865
71497SOL    HW216266  10.189   8.075   7.932
71498SOL     OW16267   4.452   1.042   3.582
71498SOL    HW116268   4.513   0.969   3.595
71498SOL    HW216269   4.469   1.101   3.655
71499SOL     OW16270  14.000   6.660  10.303
71499SOL    HW116271  13.934   6.711  10.256
71499SOL    HW216272  13.953   6.581  10.332
71500SOL     OW16273  13.825   5.707  14.851
71500SOL    HW116274  13.891   5.695   0.038
71500SOL    HW216275  13.778   5.624  14.848
71501SOL     OW16276   5.411   8.482   0.436
71501SOL    HW116277   5.410   8.395   0.397
71501SOL    HW216278   5.504   8.503   0.445
71502SOL     OW16279  12.140  13.917  14.600
71502SOL    HW116280  12.048  13.919  14.574
71502SOL    HW216281  12.142  13.962  14.685
71503SOL     OW16282   8.397  12.067  12.256
71503SOL    HW116283   8.347  12.023  12.187
71503SOL    HW216284   8.411  11.999  12.322
71504SOL     OW16285   9.982   5.573  11.582
71504SOL    HW116286   9.887   5.558  11.575
71504SOL    HW216287  10.004   5.544  11.670
71505SOL     OW16288   2.494  11.816   2.938
71505SOL    HW116289   2.521  11.854   3.021
71505SOL    HW216290   2.504  11.888   2.875
71506SOL     OW16291  14.553   3.583   9.608
71506SOL    HW116292  14.492   3.511   9.592
71506SOL    HW216293  14.513   3.634   9.678
71507SOL     OW16294  11.565   5.839  11.374
71507SOL    HW116295  11.563   5.751  11.339
71507SOL    HW216296  11.482   5.878  11.347
71508SOL     OW16297   5.216  12.652   8.308
71508SOL    HW116298   5.203  12.714   8.379
71508SOL    HW216299   5.159  12.578   8.329
71509SOL     OW16300   8.732  14.518   0.712
71509SOL    HW116301   8.651  14.551   0.751
71509SOL    HW216302   8.764  14.453   0.775
71510SOL     OW16303  13.673  11.213   0.448
71510SOL    HW116304  13.707  11.254   0.528
71510SOL    HW216305  13.578  11.217   0.457
71511SOL     OW16306  11.428   7.902   5.020
71511SOL    HW116307  11.427   7.994   4.994
71511SOL    HW216308  11.423   7.903   5.115
71512SOL     OW16309  13.591   7.927   5.091
71512SOL    HW116310  13.660   7.963   5.035
71512SOL    HW216311  13.578   7.994   5.158
71513SOL     OW16312   5.702  11.054   5.005
71513SOL    HW116313   5.639  11.124   4.988
71513SOL    HW216314   5.648  10.977   5.025
71514SOL     OW16315  14.404   2.306  13.590
71514SOL    HW116316  14.420   2.212  13.594
71514SOL    HW216317  14.312   2.314  13.567
71515SOL     OW16318   4.794   2.640  12.973
71515SOL    HW116319   4.753   2.565  13.016
71515SOL    HW216320   4.814   2.610  12.885
71516SOL     OW16321   9.685   6.931  14.754
71516SOL    HW116322   9.689   6.844  14.715
71516SOL    HW216323   9.681   6.991  14.680
71517SOL     OW16324   5.388   4.919  10.276
71517SOL    HW116325   5.366   4.882  10.191
71517SOL    HW216326   5.454   4.985  10.256
71518SOL     OW16327   9.350   6.963   1.956
71518SOL    HW116328   9.416   6.895   1.967
71518SOL    HW216329   9.276   6.918   1.915
71519SOL     OW16330  13.627  10.990   8.201
71519SOL    HW116331  13.573  10.932   8.147
71519SOL    HW216332  13.618  11.076   8.159
71520SOL     OW16333   1.352  13.404   7.332
71520SOL    HW116334   1.399  13.422   7.414
71520SOL    HW216335   1.313  13.318   7.346
71521SOL     OW16336   0.722  12.139   7.269
71521SOL    HW116337   0.639  12.097   7.247
71521SOL    HW216338   0.748  12.184   7.188
71522SOL     OW16339   1.196   9.387   1.320
71522SOL    HW116340   1.263   9.455   1.325
71522SOL    HW216341   1.119   9.432   1.284
71523SOL     OW16342   8.770   4.760   8.820
71523SOL    HW116343   8.719   4.823   8.769
71523SOL    HW216344   8.728   4.759   8.906
71524SOL     OW16345   3.205   6.967   1.367
71524SOL    HW116346   3.270   7.029   1.400
71524SOL    HW216347   3.121   7.005   1.394
71525SOL     OW16348   1.756   4.745  10.454
71525SOL    HW116349   1.818   4.738  10.382
71525SOL    HW216350   1.783   4.824  10.501
71526SOL     OW16351  12.931  12.364   4.819
71526SOL    HW116352  12.923  12.376   4.914
71526SOL    HW216353  12.863  12.301   4.796
71527SOL     OW16354  14.335   8.902  14.163
71527SOL    HW116355  14.416   8.936  14.201
71527SOL    HW216356  14.338   8.808  14.180
71528SOL     OW16357   0.742  10.751  10.526
71528SOL    HW116358   0.770  10.823  10.471
71528SOL    HW216359   0.817  10.731  10.582
71529SOL     OW16360   0.259   2.860   4.296
71529SOL    HW116361   0.299   2.816   4.371
71529SOL    HW216362   0.176   2.813   4.282
71530SOL     OW16363   5.839   9.581   0.801
71530SOL    HW116364   5.753   9.605   0.835
71530SOL    HW216365   5.827   9.580   0.705
71531SOL     OW16366  14.051   6.446   0.795
71531SOL    HW116367  14.099   6.501   0.734
71531SOL    HW216368  14.118   6.409   0.852
71532SOL     OW16369   7.349  12.192   5.978
71532SOL    HW116370   7.399  12.199   6.059
71532SOL    HW216371   7.409  12.151   5.916
71533SOL     OW16372  10.252   4.678   1.553
71533SOL    HW116373  10.206   4.677   1.469
71533SOL    HW216374  10.343   4.700   1.530
71534SOL     OW16375  14.372   0.436   6.130
71534SOL    HW116376  14.422   0.355   6.126
71534SOL    HW216377  14.436   0.503   6.154
71535SOL     OW16378   3.362   7.327   8.317
71535SOL    HW116379   3.453   7.316   8.345
71535SOL    HW216380   3.320   7.244   8.341
71536SOL     OW16381   6.991   2.722   6.310
71536SOL    HW116382   6.965   2.786   6.376
71536SOL    HW216383   6.933   2.738   6.236
71537SOL     OW16384  10.623  14.082   5.266
71537SOL    HW116385  10.646  14.016   5.200
71537SOL    HW216386  10.707  14.117   5.295
71538SOL     OW16387   3.770  14.066   7.775
71538SOL    HW116388   3.752  13.994   7.836
71538SOL    HW216389   3.707  14.134   7.800
71539SOL     OW16390  11.357   3.866  14.241
71539SOL    HW116391  11.263   3.849  14.244
71539SOL    HW216392  11.368   3.948  14.289
71540SOL     OW16393  14.546   2.186   7.924
71540SOL    HW116394  14.513   2.169   7.836
71540SOL    HW216395  14.587   2.272   7.918
71541SOL     OW16396   0.114   2.401  13.512
71541SOL    HW116397   0.179   2.414  13.581
71541SOL    HW216398   0.043   2.461  13.536
71542SOL     OW16399   3.719  11.706   0.780
71542SOL    HW116400   3.715  11.614   0.806
71542SOL    HW216401   3.811  11.729   0.786
71543SOL     OW16402   5.941   0.323   8.193
71543SOL    HW116403   5.938   0.261   8.120
71543SOL    HW216404   5.849   0.339   8.214
71544SOL     OW16405   1.952   3.398   7.046
71544SOL    HW116406   1.919   3.366   7.130
71544SOL    HW216407   1.879   3.447   7.008
71545SOL     OW16408  10.902   1.688  12.359
71545SOL    HW116409  10.948   1.716  12.280
71545SOL    HW216410  10.809   1.699  12.338
71546SOL     OW16411   1.380  14.052   3.595
71546SOL    HW116412   1.453  14.112   3.605
71546SOL    HW216413   1.307  14.106   3.564
71547SOL     OW16414  11.575   0.149  14.473
71547SOL    HW116415  11.536   0.185  14.552
71547SOL    HW216416  11.555   0.056  14.475
71548SOL     OW16417   0.800   3.194  13.000
71548SOL    HW116418   0.718   3.153  13.026
71548SOL    HW216419   0.774   3.274  12.954
71549SOL     OW16420   3.185  13.009   5.631
71549SOL    HW116421   3.149  12.933   5.676
71549SOL    HW216422   3.208  13.070   5.701
71550SOL     OW16423   1.245  14.178   2.989
71550SOL    HW116424   1.154  14.173   3.021
71550SOL    HW216425   1.279  14.089   3.000
71551SOL     OW16426   6.084   5.676   2.912
71551SOL    HW116427   6.146   5.741   2.878
71551SOL    HW216428   6.101   5.597   2.860
71552SOL     OW16429   1.153  10.851  12.486
71552SOL    HW116430   1.224  10.907  12.454
71552SOL    HW216431   1.177  10.831  12.576
71553SOL     OW16432  13.757  11.121   0.806
71553SOL    HW116433  13.802  11.096   0.886
71553SOL    HW216434  13.701  11.046   0.786
71554SOL     OW16435  12.731   0.295  12.430
71554SOL    HW116436  12.805   0.284  12.490
71554SOL    HW216437  12.681   0.368  12.467
71555SOL     OW16438   2.307   1.360   4.584
71555SOL    HW116439   2.277   1.279   4.625
71555SOL    HW216440   2.284   1.350   4.492
71556SOL     OW16441   8.839  12.476   3.813
71556SOL    HW116442   8.921  12.484   3.764
71556SOL    HW216443   8.799  12.562   3.808
71557SOL     OW16444  14.852   1.935  14.515
71557SOL    HW116445  14.776   1.961  14.462
71557SOL    HW216446  14.819   1.866  14.572
71558SOL     OW16447  11.887  10.208   9.380
71558SOL    HW116448  11.900  10.164   9.464
71558SOL    HW216449  11.832  10.147   9.330
71559SOL     OW16450   5.907  11.039   1.837
71559SOL    HW116451   5.984  10.982   1.835
71559SOL    HW216452   5.937  11.121   1.797
71560SOL     OW16453  13.333   8.678   1.308
71560SOL    HW116454  13.364   8.632   1.386
71560SOL    HW216455  13.363   8.768   1.320
71561SOL     OW16456   7.665  13.507   9.362
71561SOL    HW116457   7.677  13.468   9.276
71561SOL    HW216458   7.594  13.570   9.350
71562SOL     OW16459  10.375   4.765  14.026
71562SOL    HW116460  10.429   4.741  14.101
71562SOL    HW216461  10.287   4.775  14.061
71563SOL     OW16462   7.030  14.484  10.684
71563SOL    HW116463   7.002  14.403  10.642
71563SOL    HW216464   6.957  14.508  10.742
71564SOL     OW16465   9.151  12.610   8.846
71564SOL    HW116466   9.193  12.566   8.920
71564SOL    HW216467   9.133  12.540   8.784
71565SOL     OW16468  13.223   7.198   8.123
71565SOL    HW116469  13.318   7.215   8.123
71565SOL    HW216470  13.204   7.168   8.212
71566SOL     OW16471   8.009   9.777   2.713
71566SOL    HW116472   8.013   9.766   2.618
71566SOL    HW216473   7.925   9.819   2.729
71567SOL     OW16474   1.606   1.449  11.948
71567SOL    HW116475   1.552   1.455  12.026
71567SOL    HW216476   1.547   1.417  11.880
71568SOL     OW16477   0.005   2.629   9.031
71568SOL    HW116478   0.045   2.580   9.103
71568SOL    HW216479  14.794   2.602   9.032
71569SOL     OW16480   5.921  10.839   5.955
71569SOL    HW116481   6.009  10.834   5.916
71569SOL    HW216482   5.923  10.919   6.007
71570SOL     OW16483   9.105  11.620   6.213
71570SOL    HW116484   9.135  11.617   6.304
71570SOL    HW216485   9.178  11.660   6.165
71571SOL     OW16486   1.354   9.154   2.991
71571SOL    HW116487   1.277   9.192   2.948
71571SOL    HW216488   1.377   9.078   2.937
71572SOL     OW16489   9.121   8.711  11.350
71572SOL    HW116490   9.197   8.745  11.302
71572SOL    HW216491   9.130   8.616  11.346
71573SOL     OW16492   5.512   5.449   1.977
71573SOL    HW116493   5.564   5.406   1.909
71573SOL    HW216494   5.463   5.517   1.930
71574SOL     OW16495   0.194   0.766   1.140
71574SOL    HW116496   0.262   0.756   1.207
71574SOL    HW216497   0.174   0.860   1.141
71575SOL     OW16498   7.850  13.278  13.502
71575SOL    HW116499   7.865  13.206  13.441
71575SOL    HW216500   7.756  13.273  13.522
71576SOL     OW16501   8.796  12.923   3.292
71576SOL    HW116502   8.839  12.884   3.216
71576SOL    HW216503   8.702  12.910   3.276
71577SOL     OW16504   3.564  12.476  14.652
71577SOL    HW116505   3.566  12.510  14.741
71577SOL    HW216506   3.573  12.554  14.596
71578SOL     OW16507  14.547   3.326   0.720
71578SOL    HW116508  14.549   3.283   0.805
71578SOL    HW216509  14.637   3.356   0.706
71579SOL     OW16510   6.821  14.128  13.075
71579SOL    HW116511   6.819  14.176  12.993
71579SOL    HW216512   6.903  14.154  13.117
71580SOL     OW16513  10.335  10.856  12.275
71580SOL    HW116514  10.262  10.876  12.216
71580SOL    HW216515  10.295  10.808  12.347
71581SOL     OW16516  11.609   0.844  12.287
71581SOL    HW116517  11.617   0.893  12.369
71581SOL    HW216518  11.672   0.885  12.228
71582SOL     OW16519  10.452  13.861   8.011
71582SOL    HW116520  10.439  13.838   8.103
71582SOL    HW216521  10.529  13.917   8.011
71583SOL     OW16522   9.421   0.585  14.027
71583SOL    HW116523   9.349   0.646  14.047
71583SOL    HW216524   9.474   0.584  14.106
71584SOL     OW16525  14.870   4.869   2.557
71584SOL    HW116526  14.825   4.790   2.587
71584SOL    HW216527   0.050   4.838   2.491
71585SOL     OW16528   3.725  10.861   3.097
71585SOL    HW116529   3.687  10.774   3.089
71585SOL    HW216530   3.681  10.900   3.173
71586SOL     OW16531   7.569   2.513   7.779
71586SOL    HW116532   7.523   2.482   7.701
71586SOL    HW216533   7.575   2.436   7.836
71587SOL     OW16534   1.500   0.193   3.187
71587SOL    HW116535   1.503   0.117   3.128
71587SOL    HW216536   1.569   0.175   3.251
71588SOL     OW16537   7.226   5.473  14.109
71588SOL    HW116538   7.145   5.505  14.070
71588SOL    HW216539   7.287   5.547  14.102
71589SOL     OW16540  10.985   9.184   6.461
71589SOL    HW116541  10.897   9.157   6.487
71589SOL    HW216542  11.017   9.235   6.536
71590SOL     OW16543   7.563   7.108  12.584
71590SOL    HW116544   7.586   7.017  12.601
71590SOL    HW216545   7.610   7.158  12.651
71591SOL     OW16546   9.085   1.728   9.303
71591SOL    HW116547   9.154   1.712   9.367
71591SOL    HW216548   9.008   1.686   9.340
71592SOL     OW16549   6.990   7.173  11.685
71592SOL    HW116550   7.081   7.203  11.692
71592SOL    HW216551   6.954   7.222  11.611
71593SOL     OW16552   2.920  14.035   3.998
71593SOL    HW116553   2.952  14.113   4.042
71593SOL    HW216554   2.852  14.001   4.057
71594SOL     OW16555   1.064   8.527  12.668
71594SOL    HW116556   1.143   8.477  12.647
71594SOL    HW216557   1.077   8.554  12.759
71595SOL     OW16558   4.876  14.549   7.076
71595SOL    HW116559   4.951  14.501   7.039
71595SOL    HW216560   4.876  14.526   7.169
71596SOL     OW16561   4.547  14.681   9.893
71596SOL    HW116562   4.456  14.663   9.871
71596SOL    HW216563   4.575  14.604   9.943
71597SOL     OW16564   7.030   6.416   4.810
71597SOL    HW116565   6.954   6.374   4.771
71597SOL    HW216566   6.995   6.490   4.859
71598SOL     OW16567   7.007   4.287  10.514
71598SOL    HW116568   6.941   4.305  10.581
71598SOL    HW216569   7.089   4.315  10.554
71599SOL     OW16570  12.482   4.898   0.636
71599SOL    HW116571  12.426   4.943   0.699
71599SOL    HW216572  12.494   4.810   0.673
71600SOL     OW16573  14.741  10.727  10.996
71600SOL    HW116574  14.762  10.639  11.029
71600SOL    HW216575  14.823  10.757  10.955
71601SOL     OW16576   3.815   6.636   1.489
71601SOL    HW116577   3.844   6.716   1.532
71601SOL    HW216578   3.896   6.588   1.471
71602SOL     OW16579   2.470   3.730   8.387
71602SOL    HW116580   2.443   3.711   8.477
71602SOL    HW216581   2.394   3.775   8.349
71603SOL     OW16582   1.395  10.883  14.026
71603SOL    HW116583   1.487  10.866  14.003
71603SOL    HW216584   1.373  10.815  14.090
71604SOL     OW16585  11.984  11.107   6.698
71604SOL    HW116586  12.056  11.156   6.737
71604SOL    HW216587  11.940  11.170   6.640
71605SOL     OW16588   1.577   6.270   2.180
71605SOL    HW116589   1.576   6.257   2.275
71605SOL    HW216590   1.643   6.209   2.148
71606SOL     OW16591  13.963   7.144   3.206
71606SOL    HW116592  13.915   7.225   3.220
71606SOL    HW216593  14.033   7.167   3.145
71607SOL     OW16594   8.521   4.039   8.954
71607SOL    HW116595   8.550   4.102   8.887
71607SOL    HW216596   8.473   4.092   9.018
71608SOL     OW16597   7.852   0.898  13.639
71608SOL    HW116598   7.769   0.851  13.632
71608SOL    HW216599   7.911   0.838  13.684
71609SOL     OW16600  11.647   9.135  13.123
71609SOL    HW116601  11.692   9.190  13.059
71609SOL    HW216602  11.634   9.191  13.198
71610SOL     OW16603  11.033   5.767   7.833
71610SOL    HW116604  11.124   5.745   7.815
71610SOL    HW216605  10.983   5.722   7.765
71611SOL     OW16606   2.288  13.280   8.298
71611SOL    HW116607   2.237  13.259   8.221
71611SOL    HW216608   2.229  13.262   8.372
71612SOL     OW16609  12.312   9.978   9.821
71612SOL    HW116610  12.371   9.977   9.745
71612SOL    HW216611  12.284  10.069   9.827
71613SOL     OW16612   8.399   0.666   7.159
71613SOL    HW116613   8.371   0.662   7.067
71613SOL    HW216614   8.319   0.653   7.209
71614SOL     OW16615   5.214   4.832  12.648
71614SOL    HW116616   5.197   4.877  12.565
71614SOL    HW216617   5.127   4.823  12.688
71615SOL     OW16618   3.528  14.856  10.913
71615SOL    HW116619   3.441  14.840  10.948
71615SOL    HW216620   3.587  14.819  10.979
71616SOL     OW16621   9.630  11.469   1.119
71616SOL    HW116622   9.638  11.455   1.024
71616SOL    HW216623   9.708  11.519   1.143
71617SOL     OW16624   7.646   9.279   1.622
71617SOL    HW116625   7.589   9.314   1.691
71617SOL    HW216626   7.588   9.264   1.548
71618SOL     OW16627   8.865  12.204   1.305
71618SOL    HW116628   8.866  12.122   1.355
71618SOL    HW216629   8.827  12.268   1.366
71619SOL     OW16630   3.520  11.582  13.625
71619SOL    HW116631   3.440  11.625  13.594
71619SOL    HW216632   3.517  11.591  13.720
71620SOL     OW16633  11.279  11.281   0.265
71620SOL    HW116634  11.254  11.338   0.192
71620SOL    HW216635  11.212  11.213   0.267
71621SOL     OW16636   2.184  12.764   8.977
71621SOL    HW116637   2.271  12.803   8.983
71621SOL    HW216638   2.128  12.821   9.030
71622SOL     OW16639   2.961   9.261   2.539
71622SOL    HW116640   2.909   9.341   2.544
71622SOL    HW216641   2.979   9.250   2.446
71623SOL     OW16642   2.004   7.656   5.514
71623SOL    HW116643   2.038   7.669   5.425
71623SOL    HW216644   2.078   7.675   5.571
71624SOL     OW16645   5.925   7.343   8.768
71624SOL    HW116646   5.883   7.383   8.692
71624SOL    HW216647   5.853   7.300   8.815
71625SOL     OW16648   1.507   9.621   4.172
71625SOL    HW116649   1.444   9.683   4.206
71625SOL    HW216650   1.479   9.605   4.082
71626SOL     OW16651   2.801   8.845  14.526
71626SOL    HW116652   2.781   8.830  14.433
71626SOL    HW216653   2.855   8.770  14.551
71627SOL     OW16654   2.825   5.398   1.330
71627SOL    HW116655   2.758   5.461   1.356
71627SOL    HW216656   2.897   5.452   1.298
71628SOL     OW16657  11.538   6.695  14.791
71628SOL    HW116658  11.574   6.609  14.814
71628SOL    HW216659  11.450   6.677  14.759
71629SOL     OW16660   8.855  11.885   2.257
71629SOL    HW116661   8.915  11.879   2.183
71629SOL    HW216662   8.774  11.921   2.220
71630SOL     OW16663  10.679   8.089   2.946
71630SOL    HW116664  10.750   8.028   2.965
71630SOL    HW216665  10.668   8.085   2.851
71631SOL     OW16666  10.562   4.469   0.045
71631SOL    HW116667  10.639   4.427   0.082
71631SOL    HW216668  10.497   4.399   0.037
71632SOL     OW16669   2.635   5.884   5.694
71632SOL    HW116670   2.570   5.849   5.632
71632SOL    HW216671   2.696   5.933   5.639
71633SOL     OW16672   4.735  14.222   3.303
71633SOL    HW116673   4.639  14.219   3.303
71633SOL    HW216674   4.758  14.266   3.221
71634SOL     OW16675   3.147   1.088   0.468
71634SOL    HW116676   3.066   1.039   0.455
71634SOL    HW216677   3.118   1.176   0.492
71635SOL     OW16678  13.398   3.964   8.816
71635SOL    HW116679  13.436   3.928   8.896
71635SOL    HW216680  13.335   3.898   8.787
71636SOL     OW16681   5.148   1.188  11.686
71636SOL    HW116682   5.081   1.235  11.736
71636SOL    HW216683   5.229   1.202  11.734
71637SOL     OW16684  14.181  14.596   9.208
71637SOL    HW116685  14.184  14.505   9.180
71637SOL    HW216686  14.109  14.634   9.157
71638SOL     OW16687   7.607  11.366  11.863
71638SOL    HW116688   7.515  11.368  11.838
71638SOL    HW216689   7.607  11.384  11.957
71639SOL     OW16690   2.345  13.935   5.061
71639SOL    HW116691   2.349  13.862   5.123
71639SOL    HW216692   2.339  13.894   4.975
71640SOL     OW16693   9.904   5.737   2.567
71640SOL    HW116694   9.932   5.648   2.589
71640SOL    HW216695   9.949   5.758   2.486
71641SOL     OW16696   2.967  14.659  13.856
71641SOL    HW116697   2.901  14.719  13.821
71641SOL    HW216698   2.930  14.572  13.843
71642SOL     OW16699   8.418   4.489   2.430
71642SOL    HW116700   8.336   4.537   2.428
71642SOL    HW216701   8.458   4.505   2.345
71643SOL     OW16702   9.911   8.331   3.672
71643SOL    HW116703   9.963   8.290   3.603
71643SOL    HW216704   9.827   8.286   3.669
71644SOL     OW16705  12.574   5.716   4.979
71644SOL    HW116706  12.562   5.802   5.019
71644SOL    HW216707  12.486   5.691   4.949
71645SOL     OW16708   6.037  11.597  14.130
71645SOL    HW116709   6.089  11.558  14.201
71645SOL    HW216710   5.960  11.633  14.174
71646SOL     OW16711  13.147   4.386  13.023
71646SOL    HW116712  13.127   4.308  13.074
71646SOL    HW216713  13.075   4.446  13.042
71647SOL     OW16714   6.085   1.302  13.169
71647SOL    HW116715   6.123   1.376  13.216
71647SOL    HW216716   6.026   1.261  13.233
71648SOL     OW16717   7.250   8.449   7.805
71648SOL    HW116718   7.199   8.465   7.885
71648SOL    HW216719   7.235   8.526   7.751
71649SOL     OW16720   5.549  13.703   7.906
71649SOL    HW116721   5.475  13.643   7.919
71649SOL    HW216722   5.574  13.728   7.995
71650SOL     OW16723   4.306  14.875   5.897
71650SOL    HW116724   4.254  14.795   5.891
71650SOL    HW216725   4.253   0.060   5.853
71651SOL     OW16726  10.048   4.824   8.017
71651SOL    HW116727  10.000   4.906   8.015
71651SOL    HW216728  10.020   4.782   8.098
71652SOL     OW16729  11.240   5.734   9.920
71652SOL    HW116730  11.284   5.765   9.999
71652SOL    HW216731  11.298   5.764   9.849
71653SOL     OW16732  11.320  10.632   3.390
71653SOL    HW116733  11.390  10.573   3.419
71653SOL    HW216734  11.253  10.625   3.458
71654SOL     OW16735  13.008   3.726   3.552
71654SOL    HW116736  13.047   3.779   3.623
71654SOL    HW216737  12.977   3.647   3.596
71655SOL     OW16738   1.906  11.614   8.638
71655SOL    HW116739   1.969  11.644   8.572
71655SOL    HW216740   1.947  11.637   8.721
71656SOL     OW16741  14.730   6.236   4.245
71656SOL    HW116742  14.759   6.165   4.302
71656SOL    HW216743  14.779   6.312   4.275
71657SOL     OW16744   9.140   9.383  11.472
71657SOL    HW116745   9.170   9.357  11.385
71657SOL    HW216746   9.214   9.361  11.530
71658SOL     OW16747   0.578   2.327   0.374
71658SOL    HW116748   0.602   2.239   0.346
71658SOL    HW216749   0.482   2.324   0.380
71659SOL     OW16750  12.599  11.738   2.791
71659SOL    HW116751  12.666  11.763   2.727
71659SOL    HW216752  12.647  11.691   2.859
71660SOL     OW16753   9.803   4.415   5.866
71660SOL    HW116754   9.730   4.470   5.897
71660SOL    HW216755   9.874   4.477   5.850
71661SOL     OW16756   0.949  11.323   4.682
71661SOL    HW116757   0.856  11.311   4.703
71661SOL    HW216758   0.950  11.332   4.586
71662SOL     OW16759   8.234  12.958   5.530
71662SOL    HW116760   8.198  12.885   5.580
71662SOL    HW216761   8.228  13.033   5.589
71663SOL     OW16762   5.460   0.367  14.786
71663SOL    HW116763   5.406   0.352  14.708
71663SOL    HW216764   5.465   0.282  14.829
71664SOL     OW16765  13.756   9.550   1.376
71664SOL    HW116766  13.666   9.573   1.354
71664SOL    HW216767  13.784   9.617   1.438
71665SOL     OW16768  12.959   4.314  11.502
71665SOL    HW116769  12.907   4.266  11.437
71665SOL    HW216770  13.044   4.325  11.462
71666SOL     OW16771   0.783   2.007   5.071
71666SOL    HW116772   0.867   1.966   5.094
71666SOL    HW216773   0.801   2.101   5.075
71667SOL     OW16774   4.385  13.996  12.337
71667SOL    HW116775   4.296  14.015  12.308
71667SOL    HW216776   4.391  14.036  12.424
71668SOL     OW16777   7.205   1.317  14.526
71668SOL    HW116778   7.146   1.255  14.482
71668SOL    HW216779   7.287   1.311  14.477
71669SOL     OW16780   0.357   0.394  12.474
71669SOL    HW116781   0.363   0.319  12.534
71669SOL    HW216782   0.327   0.356  12.391
71670SOL     OW16783  13.211  12.793  13.207
71670SOL    HW116784  13.225  12.863  13.271
71670SOL    HW216785  13.298  12.778  13.169
71671SOL     OW16786   9.699   2.585  11.438
71671SOL    HW116787   9.736   2.526  11.372
71671SOL    HW216788   9.765   2.591  11.506
71672SOL     OW16789   6.133  10.637   9.228
71672SOL    HW116790   6.179  10.554   9.216
71672SOL    HW216791   6.040  10.613   9.225
71673SOL     OW16792   4.272   3.359  10.983
71673SOL    HW116793   4.298   3.433  11.038
71673SOL    HW216794   4.312   3.376  10.898
71674SOL     OW16795   5.376   5.225  10.408
71674SOL    HW116796   5.459   5.199  10.369
71674SOL    HW216797   5.319   5.149  10.396
71675SOL     OW16798   5.023   6.743   3.607
71675SOL    HW116799   5.082   6.771   3.536
71675SOL    HW216800   5.080   6.693   3.666
71676SOL     OW16801  11.773   3.713   1.256
71676SOL    HW116802  11.719   3.705   1.334
71676SOL    HW216803  11.766   3.627   1.214
71677SOL     OW16804   9.361   2.254  10.106
71677SOL    HW116805   9.394   2.276  10.019
71677SOL    HW216806   9.300   2.182  10.092
71678SOL     OW16807   4.711   4.426   0.861
71678SOL    HW116808   4.705   4.337   0.896
71678SOL    HW216809   4.735   4.480   0.937
71679SOL     OW16810   8.075   0.376   2.999
71679SOL    HW116811   8.124   0.317   3.056
71679SOL    HW216812   8.121   0.372   2.915
71680SOL     OW16813   9.003   9.376   2.351
71680SOL    HW116814   9.073   9.359   2.413
71680SOL    HW216815   9.017   9.313   2.281
71681SOL     OW16816  13.467  11.904   4.247
71681SOL    HW116817  13.436  11.880   4.334
71681SOL    HW216818  13.560  11.882   4.247
71682SOL     OW16819   1.162  10.393  14.288
71682SOL    HW116820   1.234  10.439  14.330
71682SOL    HW216821   1.199  10.361  14.205
71683SOL     OW16822  13.007  14.468  11.976
71683SOL    HW116823  12.980  14.560  11.976
71683SOL    HW216824  13.102  14.470  11.962
71684SOL     OW16825   0.594  12.830  13.678
71684SOL    HW116826   0.553  12.844  13.763
71684SOL    HW216827   0.524  12.842  13.615
71685SOL     OW16828   4.734   8.855  14.183
71685SOL    HW116829   4.805   8.866  14.247
71685SOL    HW216830   4.655   8.850  14.237
71686SOL     OW16831  11.237   9.168   6.702
71686SOL    HW116832  11.268   9.257   6.718
71686SOL    HW216833  11.263   9.150   6.611
71687SOL     OW16834  13.346   3.161   8.709
71687SOL    HW116835  13.417   3.170   8.645
71687SOL    HW216836  13.312   3.250   8.720
71688SOL     OW16837  14.640   0.625   3.614
71688SOL    HW116838  14.638   0.554   3.677
71688SOL    HW216839  14.607   0.587   3.533
71689SOL     OW16840   2.047   3.035   8.344
71689SOL    HW116841   2.025   2.988   8.425
71689SOL    HW216842   2.117   2.983   8.305
71690SOL     OW16843   2.932   7.338   4.462
71690SOL    HW116844   2.960   7.255   4.500
71690SOL    HW216845   2.923   7.319   4.369
71691SOL     OW16846  14.236   7.765  11.662
71691SOL    HW116847  14.202   7.753  11.751
71691SOL    HW216848  14.291   7.843  11.668
71692SOL     OW16849  13.269   1.825   3.436
71692SOL    HW116850  13.204   1.895   3.450
71692SOL    HW216851  13.234   1.750   3.484
71693SOL     OW16852   1.483  13.553   7.159
71693SOL    HW116853   1.423  13.491   7.200
71693SOL    HW216854   1.440  13.638   7.167
71694SOL     OW16855  10.232  12.260  13.667
71694SOL    HW116856  10.153  12.219  13.632
71694SOL    HW216857  10.243  12.339  13.615
71695SOL     OW16858  14.264   1.119   7.626
71695SOL    HW116859  14.172   1.134   7.644
71695SOL    HW216860  14.272   1.124   7.531
71696SOL     OW16861  12.114   1.476  14.807
71696SOL    HW116862  12.122   1.516   0.012
71696SOL    HW216863  12.028   1.504  14.775
71697SOL     OW16864  14.241   6.580   6.100
71697SOL    HW116865  14.252   6.502   6.155
71697SOL    HW216866  14.298   6.564   6.025
71698SOL     OW16867   1.108   9.133   8.602
71698SOL    HW116868   1.149   9.118   8.687
71698SOL    HW216869   1.020   9.099   8.611
71699SOL     OW16870   8.586   3.075   2.821
71699SOL    HW116871   8.565   2.985   2.800
71699SOL    HW216872   8.544   3.127   2.753
71700SOL     OW16873   9.512   5.267   6.268
71700SOL    HW116874   9.549   5.226   6.347
71700SOL    HW216875   9.447   5.204   6.237
71701SOL     OW16876  13.898   4.546   6.398
71701SOL    HW116877  13.914   4.620   6.455
71701SOL    HW216878  13.829   4.496   6.442
71702SOL     OW16879   1.592   1.407   5.915
71702SOL    HW116880   1.509   1.361   5.901
71702SOL    HW216881   1.573   1.498   5.893
71703SOL     OW16882   6.063   9.433   3.167
71703SOL    HW116883   6.115   9.513   3.162
71703SOL    HW216884   6.088   9.393   3.251
71704SOL     OW16885  13.828  10.172   7.909
71704SOL    HW116886  13.915  10.189   7.875
71704SOL    HW216887  13.779  10.137   7.834
71705SOL     OW16888   6.524   5.137   4.235
71705SOL    HW116889   6.599   5.179   4.192
71705SOL    HW216890   6.494   5.072   4.173
71706SOL     OW16891   1.387   7.390   7.017
71706SOL    HW116892   1.412   7.317   6.962
71706SOL    HW216893   1.466   7.444   7.024
71707SOL     OW16894   3.722   6.401   3.777
71707SOL    HW116895   3.810   6.424   3.748
71707SOL    HW216896   3.728   6.400   3.873
71708SOL     OW16897   0.113   4.421  13.320
71708SOL    HW116898   0.090   4.485  13.252
71708SOL    HW216899   0.206   4.437  13.337
71709SOL     OW16900  14.150   3.292   4.210
71709SOL    HW116901  14.180   3.285   4.300
71709SOL    HW216902  14.223   3.259   4.158
71710SOL     OW16903   6.319  12.232   7.361
71710SOL    HW116904   6.389  12.251   7.299
71710SOL    HW216905   6.244  12.282   7.328
71711SOL     OW16906   2.991  12.763  11.602
71711SOL    HW116907   3.025  12.674  11.608
71711SOL    HW216908   2.900  12.756  11.631
71712SOL     OW16909   0.852   5.107   6.553
71712SOL    HW116910   0.792   5.118   6.626
71712SOL    HW216911   0.861   5.012   6.544
71713SOL     OW16912   9.130   1.015  11.434
71713SOL    HW116913   9.138   1.024  11.529
71713SOL    HW216914   9.088   0.930  11.421
71714SOL     OW16915   1.374  14.067  10.366
71714SOL    HW116916   1.409  14.123  10.297
71714SOL    HW216917   1.281  14.058  10.344
71715SOL     OW16918   8.834  10.698   6.538
71715SOL    HW116919   8.777  10.633   6.498
71715SOL    HW216920   8.837  10.674   6.631
71716SOL     OW16921  14.492  12.224   8.965
71716SOL    HW116922  14.529  12.296   8.915
71716SOL    HW216923  14.399  12.243   8.971
71717SOL     OW16924   0.556   1.000  12.095
71717SOL    HW116925   0.465   0.973  12.091
71717SOL    HW216926   0.595   0.967  12.014
71718SOL     OW16927   5.856   3.086  13.888
71718SOL    HW116928   5.842   3.007  13.940
71718SOL    HW216929   5.795   3.150  13.925
71719SOL     OW16930   7.344  10.370   7.830
71719SOL    HW116931   7.294  10.289   7.816
71719SOL    HW216932   7.327  10.422   7.752
71720SOL     OW16933   8.307   1.751   9.632
71720SOL    HW116934   8.362   1.816   9.674
71720SOL    HW216935   8.229   1.799   9.603
71721SOL     OW16936  12.696   6.158   4.523
71721SOL    HW116937  12.716   6.071   4.489
71721SOL    HW216938  12.601   6.164   4.517
71722SOL     OW16939   1.203   9.064   2.574
71722SOL    HW116940   1.174   9.084   2.485
71722SOL    HW216941   1.157   8.984   2.597
71723SOL     OW16942   5.796  12.164   0.170
71723SOL    HW116943   5.878  12.136   0.210
71723SOL    HW216944   5.728  12.125   0.225
71724SOL     OW16945   1.030   0.719   0.685
71724SOL    HW116946   1.085   0.653   0.642
71724SOL    HW216947   1.065   0.803   0.656
71725SOL     OW16948   0.560  13.046   3.897
71725SOL    HW116949   0.543  13.002   3.980
71725SOL    HW216950   0.476  13.084   3.872
71726SOL     OW16951  10.698   1.834   5.850
71726SOL    HW116952  10.646   1.866   5.777
71726SOL    HW216953  10.728   1.747   5.823
71727SOL     OW16954   9.844   3.049   4.050
71727SOL    HW116955   9.871   3.055   3.958
71727SOL    HW216956   9.876   2.963   4.079
71728SOL     OW16957   4.944  14.856   6.392
71728SOL    HW116958   4.882   0.031   6.347
71728SOL    HW216959   4.890  14.788   6.433
71729SOL     OW16960  13.848   9.280   5.257
71729SOL    HW116961  13.918   9.302   5.195
71729SOL    HW216962  13.888   9.216   5.316
71730SOL     OW16963  11.836   8.268   2.266
71730SOL    HW116964  11.822   8.334   2.199
71730SOL    HW216965  11.906   8.303   2.321
71731SOL     OW16966   2.464  10.787  13.420
71731SOL    HW116967   2.499  10.874  13.442
71731SOL    HW216968   2.537  10.741  13.378
71732SOL     OW16969  10.868   5.939   1.939
71732SOL    HW116970  10.953   5.951   1.981
71732SOL    HW216971  10.888   5.907   1.851
71733SOL     OW16972   5.817   2.189   0.984
71733SOL    HW116973   5.835   2.139   0.905
71733SOL    HW216974   5.901   2.225   1.010
71734SOL     OW16975   9.693   7.025   9.222
71734SOL    HW116976   9.756   6.981   9.280
71734SOL    HW216977   9.635   7.072   9.281
71735SOL     OW16978   8.679  10.516  14.010
71735SOL    HW116979   8.636  10.440  13.970
71735SOL    HW216980   8.619  10.543  14.080
71736SOL     OW16981   1.650   2.565  14.238
71736SOL    HW116982   1.668   2.495  14.301
71736SOL    HW216983   1.554   2.572  14.237
71737SOL     OW16984   4.266   5.230  12.466
71737SOL    HW116985   4.211   5.292  12.513
71737SOL    HW216986   4.275   5.267  12.378
71738SOL     OW16987  10.322   1.901   1.935
71738SOL    HW116988  10.371   1.894   2.017
71738SOL    HW216989  10.243   1.950   1.959
71739SOL     OW16990   0.370   5.803  12.837
71739SOL    HW116991   0.369   5.708  12.826
71739SOL    HW216992   0.402   5.837  12.753
71740SOL     OW16993   1.138   9.376  10.555
71740SOL    HW116994   1.142   9.421  10.471
71740SOL    HW216995   1.198   9.425  10.612
71741SOL     OW16996  13.906  10.052   8.432
71741SOL    HW116997  13.819  10.049   8.472
71741SOL    HW216998  13.966  10.038   8.505
71742SOL     OW16999   0.788   9.461  14.870
71742SOL    HW117000   0.781   9.437   0.081
71742SOL    HW217001   0.737   9.395  14.824
71743SOL     OW17002  13.318   0.518   6.009
71743SOL    HW117003  13.407   0.554   6.006
71743SOL    HW217004  13.275   0.568   6.078
71744SOL     OW17005  11.117  10.530   3.195
71744SOL    HW117006  11.035  10.511   3.240
71744SOL    HW217007  11.173  10.569   3.262
71745SOL     OW17008  10.406   9.777   2.202
71745SOL    HW117009  10.480   9.829   2.170
71745SOL    HW217010  10.400   9.705   2.139
71746SOL     OW17011  13.348   1.250   5.960
71746SOL    HW117012  13.335   1.341   5.985
71746SOL    HW217013  13.362   1.253   5.865
71747SOL     OW17014  10.946   2.108  11.405
71747SOL    HW117015  10.934   2.149  11.491
71747SOL    HW217016  10.895   2.162  11.346
71748SOL     OW17017  10.828  12.752  13.010
71748SOL    HW117018  10.826  12.705  12.926
71748SOL    HW217019  10.915  12.789  13.015
71749SOL     OW17020   5.322  10.533   4.322
71749SOL    HW117021   5.351  10.442   4.311
71749SOL    HW217022   5.298  10.538   4.415
71750SOL     OW17023   3.382   7.533   6.595
71750SOL    HW117024   3.324   7.457   6.584
71750SOL    HW217025   3.351   7.576   6.675
71751SOL     OW17026  13.476   9.592   0.446
71751SOL    HW117027  13.413   9.614   0.377
71751SOL    HW217028  13.561   9.614   0.410
71752SOL     OW17029  13.105  13.254   9.848
71752SOL    HW117030  13.030  13.195   9.842
71752SOL    HW217031  13.079  13.320   9.911
71753SOL     OW17032   1.898  13.992   0.470
71753SOL    HW117033   1.938  14.078   0.460
71753SOL    HW217034   1.862  13.972   0.383
71754SOL     OW17035  14.371   8.151  10.293
71754SOL    HW117036  14.312   8.076  10.283
71754SOL    HW217037  14.395   8.150  10.385
71755SOL     OW17038  14.688   0.138   7.696
71755SOL    HW117039  14.631   0.097   7.631
71755SOL    HW217040  14.670   0.232   7.688
71756SOL     OW17041   1.992  12.905  10.745
71756SOL    HW117042   1.923  12.957  10.703
71756SOL    HW217043   2.033  12.858  10.672
71757SOL     OW17044   6.672  12.378  11.294
71757SOL    HW117045   6.628  12.303  11.253
71757SOL    HW217046   6.603  12.424  11.341
71758SOL     OW17047   8.584  13.730  13.478
71758SOL    HW117048   8.638  13.697  13.407
71758SOL    HW217049   8.574  13.657  13.538
71759SOL     OW17050   1.796  13.601   1.531
71759SOL    HW117051   1.819  13.605   1.624
71759SOL    HW217052   1.722  13.661   1.521
71760SOL     OW17053  13.383   0.648   1.376
71760SOL    HW117054  13.355   0.651   1.468
71760SOL    HW217055  13.358   0.732   1.340
71761SOL     OW17056  10.481   4.823  11.301
71761SOL    HW117057  10.511   4.898  11.353
71761SOL    HW217058  10.391   4.846  11.276
71762SOL     OW17059  11.210  11.152   3.063
71762SOL    HW117060  11.143  11.214   3.090
71762SOL    HW217061  11.161  11.072   3.042
71763SOL     OW17062   1.436   6.198  10.319
71763SOL    HW117063   1.482   6.189  10.236
71763SOL    HW217064   1.393   6.113  10.332
71764SOL     OW17065   3.914  10.116  13.554
71764SOL    HW117066   4.007  10.100  13.539
71764SOL    HW217067   3.911  10.177  13.627
71765SOL     OW17068  13.293  13.283  10.712
71765SOL    HW117069  13.221  13.342  10.734
71765SOL    HW217070  13.360  13.340  10.673
71766SOL     OW17071   2.673   4.856   8.343
71766SOL    HW117072   2.666   4.904   8.261
71766SOL    HW217073   2.653   4.920   8.411
71767SOL     OW17074   2.735   3.726  10.330
71767SOL    HW117075   2.707   3.689  10.413
71767SOL    HW217076   2.831   3.720  10.332
71768SOL     OW17077   3.122   9.487   4.092
71768SOL    HW117078   3.073   9.412   4.060
71768SOL    HW217079   3.201   9.489   4.038
71769SOL     OW17080   2.958  13.215  11.282
71769SOL    HW117081   2.948  13.290  11.341
71769SOL    HW217082   2.938  13.251  11.195
71770SOL     OW17083   9.948   8.172   8.764
71770SOL    HW117084   9.946   8.267   8.752
71770SOL    HW217085  10.028   8.144   8.720
71771SOL     OW17086   5.501   0.226   1.419
71771SOL    HW117087   5.515   0.280   1.341
71771SOL    HW217088   5.406   0.216   1.425
71772SOL     OW17089   9.098   2.698  13.052
71772SOL    HW117090   9.070   2.639  13.122
71772SOL    HW217091   9.176   2.742  13.088
71773SOL     OW17092   0.731  14.371   8.475
71773SOL    HW117093   0.750  14.382   8.569
71773SOL    HW217094   0.789  14.433   8.432
71774SOL     OW17095  12.147   2.777  11.939
71774SOL    HW117096  12.150   2.862  11.896
71774SOL    HW217097  12.141   2.797  12.032
71775SOL     OW17098   9.584  14.114   6.180
71775SOL    HW117099   9.537  14.089   6.101
71775SOL    HW217100   9.525  14.176   6.224
71776SOL     OW17101   5.634   1.849   4.415
71776SOL    HW117102   5.693   1.849   4.340
71776SOL    HW217103   5.685   1.887   4.486
71777SOL     OW17104   7.751   0.180   2.802
71777SOL    HW117105   7.781   0.264   2.837
71777SOL    HW217106   7.794   0.115   2.857
71778SOL     OW17107  13.865  12.405   0.002
71778SOL    HW117108  13.937  12.420  14.822
71778SOL    HW217109  13.850  12.310  14.880
71779SOL     OW17110   7.583  10.292  11.786
71779SOL    HW117111   7.535  10.315  11.706
71779SOL    HW217112   7.554  10.356  11.851
71780SOL     OW17113  14.320   2.102   5.444
71780SOL    HW117114  14.237   2.149   5.432
71780SOL    HW217115  14.327   2.091   5.539
71781SOL     OW17116  12.016  10.423   7.889
71781SOL    HW117117  12.010  10.420   7.984
71781SOL    HW217118  12.096  10.473   7.872
71782SOL     OW17119  12.037   0.885   4.000
71782SOL    HW117120  12.132   0.893   3.999
71782SOL    HW217121  12.022   0.790   3.998
71783SOL     OW17122  10.241  13.747   4.567
71783SOL    HW117123  10.277  13.719   4.483
71783SOL    HW217124  10.305  13.809   4.601
71784SOL     OW17125  13.946   3.582  13.254
71784SOL    HW117126  13.922   3.671  13.283
71784SOL    HW217127  13.869   3.529  13.275
71785SOL     OW17128   2.336   5.410   9.672
71785SOL    HW117129   2.245   5.433   9.658
71785SOL    HW217130   2.385   5.462   9.608
71786SOL     OW17131   5.177  10.326  13.908
71786SOL    HW117132   5.265  10.290  13.913
71786SOL    HW217133   5.184  10.400  13.849
71787SOL     OW17134   0.972   0.431   3.970
71787SOL    HW117135   0.924   0.507   4.001
71787SOL    HW217136   0.912   0.389   3.908
71788SOL     OW17137   7.459   9.980   9.088
71788SOL    HW117138   7.408   9.966   9.167
71788SOL    HW217139   7.445  10.072   9.066
71789SOL     OW17140   1.814  13.295   6.613
71789SOL    HW117141   1.734  13.319   6.566
71789SOL    HW217142   1.830  13.370   6.671
71790SOL     OW17143  11.190   1.128   3.331
71790SOL    HW117144  11.123   1.059   3.325
71790SOL    HW217145  11.201   1.143   3.425
71791SOL     OW17146   9.794   6.744  10.999
71791SOL    HW117147   9.786   6.819  10.940
71791SOL    HW217148   9.722   6.754  11.061
71792SOL     OW17149  14.481  12.806  12.583
71792SOL    HW117150  14.394  12.770  12.566
71792SOL    HW217151  14.485  12.884  12.527
71793SOL     OW17152  12.582  12.727   0.125
71793SOL    HW117153  12.587  12.822   0.139
71793SOL    HW217154  12.513  12.698   0.185
71794SOL     OW17155   9.671   1.133   7.376
71794SOL    HW117156   9.648   1.211   7.426
71794SOL    HW217157   9.763   1.147   7.352
71795SOL     OW17158   4.804  13.044  11.065
71795SOL    HW117159   4.785  12.960  11.107
71795SOL    HW217160   4.882  13.076  11.111
71796SOL     OW17161   7.887   0.450  10.855
71796SOL    HW117162   7.910   0.478  10.944
71796SOL    HW217163   7.916   0.358  10.852
71797SOL     OW17164   5.636   7.478   4.308
71797SOL    HW117165   5.635   7.573   4.299
71797SOL    HW217166   5.617   7.446   4.220
71798SOL     OW17167   9.240   1.702   9.881
71798SOL    HW117168   9.182   1.683   9.808
71798SOL    HW217169   9.307   1.633   9.878
71799SOL     OW17170   3.786   1.202   3.466
71799SOL    HW117171   3.868   1.210   3.418
71799SOL    HW217172   3.770   1.107   3.469
71800SOL     OW17173  13.431   1.591   1.796
71800SOL    HW117174  13.477   1.517   1.836
71800SOL    HW217175  13.401   1.558   1.712
71801SOL     OW17176  10.200  13.445  10.396
71801SOL    HW117177  10.180  13.352  10.406
71801SOL    HW217178  10.203  13.459  10.301
71802SOL     OW17179   2.087   6.862   3.752
71802SOL    HW117180   2.180   6.859   3.772
71802SOL    HW217181   2.068   6.956   3.739
71803SOL     OW17182   2.120  10.615   4.810
71803SOL    HW117183   2.065  10.683   4.772
71803SOL    HW217184   2.164  10.575   4.735
71804SOL     OW17185   2.084   6.087   2.167
71804SOL    HW117186   2.115   6.037   2.091
71804SOL    HW217187   2.135   6.055   2.240
71805SOL     OW17188   8.545   4.878   4.619
71805SOL    HW117189   8.551   4.930   4.699
71805SOL    HW217190   8.454   4.849   4.615
71806SOL     OW17191   2.089   1.026  11.273
71806SOL    HW117192   2.093   0.986  11.360
71806SOL    HW217193   2.024   0.974  11.226
71807SOL     OW17194   9.455  11.026   2.859
71807SOL    HW117195   9.466  10.969   2.935
71807SOL    HW217196   9.459  11.115   2.894
71808SOL     OW17197   9.387   2.413   7.631
71808SOL    HW117198   9.446   2.460   7.689
71808SOL    HW217199   9.441   2.387   7.556
71809SOL     OW17200   9.272   8.551  10.549
71809SOL    HW117201   9.318   8.468  10.561
71809SOL    HW217202   9.312   8.590  10.471
71810SOL     OW17203   3.571   7.613   8.294
71810SOL    HW117204   3.652   7.562   8.295
71810SOL    HW217205   3.590   7.686   8.234
71811SOL     OW17206   9.879   2.449   4.852
71811SOL    HW117207   9.933   2.370   4.844
71811SOL    HW217208   9.863   2.476   4.762
71812SOL     OW17209  12.174  12.175   6.338
71812SOL    HW117210  12.083  12.179   6.368
71812SOL    HW217211  12.225  12.157   6.417
71813SOL     OW17212  14.050   6.882   7.245
71813SOL    HW117213  14.127   6.859   7.193
71813SOL    HW217214  14.064   6.973   7.269
71814SOL     OW17215   1.027   8.373   2.214
71814SOL    HW117216   1.044   8.282   2.238
71814SOL    HW217217   1.103   8.421   2.247
71815SOL     OW17218   2.360  11.384   6.505
71815SOL    HW117219   2.439  11.438   6.510
71815SOL    HW217220   2.314  11.400   6.587
71816SOL     OW17221  12.302  13.046  12.042
71816SOL    HW117222  12.294  12.965  12.091
71816SOL    HW217223  12.374  13.029  11.981
71817SOL     OW17224  12.269   5.128   9.154
71817SOL    HW117225  12.276   5.180   9.074
71817SOL    HW217226  12.342   5.066   9.149
71818SOL     OW17227   6.028  11.059   8.225
71818SOL    HW117228   6.055  11.048   8.134
71818SOL    HW217229   6.102  11.101   8.268
71819SOL     OW17230   5.331   5.335   7.197
71819SOL    HW117231   5.304   5.378   7.278
71819SOL    HW217232   5.425   5.355   7.189
71820SOL     OW17233   1.854   0.357   0.351
71820SOL    HW117234   1.822   0.342   0.262
71820SOL    HW217235   1.811   0.290   0.404
71821SOL     OW17236   2.663   3.998   2.068
71821SOL    HW117237   2.641   4.057   1.996
71821SOL    HW217238   2.607   3.922   2.055
71822SOL     OW17239   8.742  10.380   3.634
71822SOL    HW117240   8.727  10.372   3.539
71822SOL    HW217241   8.836  10.366   3.645
71823SOL     OW17242   2.288  10.426  12.997
71823SOL    HW117243   2.203  10.459  13.025
71823SOL    HW217244   2.270  10.340  12.959
71824SOL     OW17245   4.643   9.977  14.124
71824SOL    HW117246   4.716  10.037  14.113
71824SOL    HW217247   4.572  10.015  14.073
71825SOL     OW17248  13.399   9.782  14.078
71825SOL    HW117249  13.402   9.877  14.061
71825SOL    HW217250  13.487   9.760  14.107
71826SOL     OW17251   5.074  11.967  13.962
71826SOL    HW117252   5.063  11.872  13.953
71826SOL    HW217253   5.051  11.985  14.054
71827SOL     OW17254   8.211   8.739   9.140
71827SOL    HW117255   8.301   8.760   9.115
71827SOL    HW217256   8.198   8.649   9.110
71828SOL     OW17257   5.435  11.028   4.523
71828SOL    HW117258   5.515  10.988   4.490
71828SOL    HW217259   5.412  10.976   4.600
71829SOL     OW17260   0.292   7.196   2.978
71829SOL    HW117261   0.322   7.276   2.935
71829SOL    HW217262   0.266   7.138   2.907
71830SOL     OW17263  14.546   8.798   8.798
71830SOL    HW117264  14.601   8.751   8.737
71830SOL    HW217265  14.560   8.755   8.882
71831SOL     OW17266   5.023  11.388  13.434
71831SOL    HW117267   5.034  11.305  13.387
71831SOL    HW217268   5.111  11.410  13.466
71832SOL     OW17269   9.583  12.491  11.949
71832SOL    HW117270   9.614  12.400  11.951
71832SOL    HW217271   9.612  12.524  11.864
71833SOL     OW17272   7.706  14.687  11.949
71833SOL    HW117273   7.669  14.626  12.012
71833SOL    HW217274   7.631  14.714  11.895
71834SOL     OW17275  10.988  14.223   5.035
71834SOL    HW117276  10.953  14.309   5.013
71834SOL    HW217277  10.948  14.163   4.972
71835SOL     OW17278   1.509   3.632   6.762
71835SOL    HW117279   1.507   3.727   6.754
71835SOL    HW217280   1.542   3.601   6.678
71836SOL     OW17281   5.091   4.075   5.191
71836SOL    HW117282   5.139   3.993   5.180
71836SOL    HW217283   5.047   4.066   5.276
71837SOL     OW17284   7.844   4.214   9.758
71837SOL    HW117285   7.794   4.292   9.731
71837SOL    HW217286   7.935   4.240   9.745
71838SOL     OW17287  10.931  13.924   6.716
71838SOL    HW117288  10.877  13.868   6.771
71838SOL    HW217289  11.021  13.899   6.737
71839SOL     OW17290   5.692  11.452   9.234
71839SOL    HW117291   5.687  11.393   9.310
71839SOL    HW217292   5.667  11.538   9.269
71840SOL     OW17293   5.866   9.607  11.821
71840SOL    HW117294   5.886   9.544  11.889
71840SOL    HW217295   5.816   9.557  11.756
71841SOL     OW17296   5.595  12.551   5.359
71841SOL    HW117297   5.561  12.523   5.444
71841SOL    HW217298   5.545  12.630   5.338
71842SOL     OW17299   6.437   3.336   7.843
71842SOL    HW117300   6.464   3.321   7.752
71842SOL    HW217301   6.428   3.248   7.880
71843SOL     OW17302  10.609   5.671   8.980
71843SOL    HW117303  10.675   5.656   8.912
71843SOL    HW217304  10.599   5.766   8.984
71844SOL     OW17305   3.638   2.977  12.728
71844SOL    HW117306   3.595   3.056  12.760
71844SOL    HW217307   3.636   2.917  12.802
71845SOL     OW17308   9.808   8.817   2.004
71845SOL    HW117309   9.777   8.896   1.960
71845SOL    HW217310   9.829   8.757   1.932
71846SOL     OW17311   9.728   3.522  10.027
71846SOL    HW117312   9.685   3.605  10.051
71846SOL    HW217313   9.819   3.547  10.009
71847SOL     OW17314   4.447   8.019   2.777
71847SOL    HW117315   4.374   7.994   2.834
71847SOL    HW217316   4.505   8.070   2.833
71848SOL     OW17317  14.666   6.723   6.332
71848SOL    HW117318  14.622   6.746   6.250
71848SOL    HW217319  14.658   6.801   6.387
71849SOL     OW17320  10.128   2.686   7.568
71849SOL    HW117321  10.094   2.686   7.479
71849SOL    HW217322  10.097   2.604   7.605
71850SOL     OW17323   0.461  13.082   2.680
71850SOL    HW117324   0.507  13.067   2.762
71850SOL    HW217325   0.472  13.000   2.631
71851SOL     OW17326   7.112  12.949  12.262
71851SOL    HW117327   7.102  12.997  12.180
71851SOL    HW217328   7.070  12.864  12.245
71852SOL     OW17329   0.433   4.095   1.409
71852SOL    HW117330   0.417   4.018   1.355
71852SOL    HW217331   0.459   4.061   1.494
71853SOL     OW17332   4.392  11.803  13.790
71853SOL    HW117333   4.367  11.776  13.702
71853SOL    HW217334   4.379  11.898  13.791
71854SOL     OW17335   4.122  12.712  12.322
71854SOL    HW117336   4.114  12.742  12.412
71854SOL    HW217337   4.217  12.707  12.307
71855SOL     OW17338   6.003  14.101  12.423
71855SOL    HW117339   6.016  14.007  12.409
71855SOL    HW217340   5.927  14.107  12.481
71856SOL     OW17341   0.031   7.438   7.804
71856SOL    HW117342  14.831   7.392   7.783
71856SOL    HW217343   0.096   7.368   7.811
71857SOL     OW17344   9.531  11.501   7.813
71857SOL    HW117345   9.476  11.566   7.857
71857SOL    HW217346   9.621  11.527   7.836
71858SOL     OW17347   2.619  12.930  13.239
71858SOL    HW117348   2.614  13.015  13.195
71858SOL    HW217349   2.529  12.897  13.238
71859SOL     OW17350   6.027   0.179   8.811
71859SOL    HW117351   6.057   0.261   8.773
71859SOL    HW217352   5.981   0.204   8.891
71860SOL     OW17353   4.060   8.896   8.055
71860SOL    HW117354   4.098   8.938   7.978
71860SOL    HW217355   4.108   8.934   8.129
71861SOL     OW17356   8.143   6.571   4.590
71861SOL    HW117357   8.202   6.645   4.575
71861SOL    HW217358   8.130   6.569   4.684
71862SOL     OW17359   5.754  14.028  13.834
71862SOL    HW117360   5.708  13.990  13.910
71862SOL    HW217361   5.781  13.952  13.783
71863SOL     OW17362   1.714   7.011  13.662
71863SOL    HW117363   1.664   6.935  13.634
71863SOL    HW217364   1.805   6.988  13.646
71864SOL     OW17365   1.380   6.560   3.041
71864SOL    HW117366   1.380   6.557   3.137
71864SOL    HW217367   1.473   6.553   3.017
71865SOL     OW17368   6.478  12.681   6.498
71865SOL    HW117369   6.404  12.720   6.545
71865SOL    HW217370   6.551  12.742   6.514
71866SOL     OW17371   4.818  10.687   1.754
71866SOL    HW117372   4.758  10.671   1.682
71866SOL    HW217373   4.768  10.740   1.816
71867SOL     OW17374   5.972   2.808   8.287
71867SOL    HW117375   5.942   2.741   8.226
71867SOL    HW217376   6.064   2.788   8.303
71868SOL     OW17377   3.414   9.373  14.008
71868SOL    HW117378   3.436   9.339  13.921
71868SOL    HW217379   3.404   9.467  13.994
71869SOL     OW17380  12.964   8.282  11.470
71869SOL    HW117381  13.043   8.332  11.493
71869SOL    HW217382  12.892   8.341  11.487
71870SOL     OW17383   7.354   8.027   6.172
71870SOL    HW117384   7.356   7.934   6.147
71870SOL    HW217385   7.261   8.050   6.170
71871SOL     OW17386   4.313  13.223   4.160
71871SOL    HW117387   4.278  13.164   4.094
71871SOL    HW217388   4.408  13.221   4.146
71872SOL     OW17389   2.136  13.441   5.832
71872SOL    HW117390   2.176  13.458   5.747
71872SOL    HW217391   2.044  13.423   5.812
71873SOL     OW17392  13.096   5.601   9.927
71873SOL    HW117393  13.036   5.637   9.992
71873SOL    HW217394  13.162   5.670   9.914
71874SOL     OW17395  10.526  14.258  12.680
71874SOL    HW117396  10.440  14.241  12.718
71874SOL    HW217397  10.524  14.351  12.656
71875SOL     OW17398   0.456   2.425   8.912
71875SOL    HW117399   0.365   2.444   8.887
71875SOL    HW217400   0.487   2.365   8.844
71876SOL     OW17401  11.545   5.780   8.033
71876SOL    HW117402  11.534   5.748   7.944
71876SOL    HW217403  11.479   5.849   8.042
71877SOL     OW17404   2.689  11.238  11.512
71877SOL    HW117405   2.698  11.253  11.418
71877SOL    HW217406   2.736  11.312  11.552
71878SOL     OW17407  14.204  14.802   6.874
71878SOL    HW117408  14.172  14.714   6.896
71878SOL    HW217409  14.286  14.785   6.826
71879SOL     OW17410   3.749  10.510   9.818
71879SOL    HW117411   3.698  10.496   9.897
71879SOL    HW217412   3.707  10.455   9.752
71880SOL     OW17413   1.164   6.499  14.621
71880SOL    HW117414   1.149   6.578  14.673
71880SOL    HW217415   1.251   6.512  14.583
71881SOL     OW17416   5.126   5.737  10.249
71881SOL    HW117417   5.190   5.676  10.284
71881SOL    HW217418   5.157   5.823  10.276
71882SOL     OW17419   6.039   2.944   2.598
71882SOL    HW117420   6.070   2.896   2.521
71882SOL    HW217421   5.944   2.948   2.586
71883SOL     OW17422   3.218   4.127  14.245
71883SOL    HW117423   3.254   4.182  14.314
71883SOL    HW217424   3.126   4.116  14.269
71884SOL     OW17425   9.488   9.516   8.829
71884SOL    HW117426   9.553   9.447   8.819
71884SOL    HW217427   9.422   9.478   8.888
71885SOL     OW17428  12.140   7.856   0.376
71885SOL    HW117429  12.161   7.793   0.444
71885SOL    HW217430  12.184   7.937   0.404
71886SOL     OW17431   2.646  10.999  14.162
71886SOL    HW117432   2.611  10.926  14.213
71886SOL    HW217433   2.677  10.958  14.081
71887SOL     OW17434   8.585  13.771  12.517
71887SOL    HW117435   8.587  13.784  12.422
71887SOL    HW217436   8.545  13.851  12.551
71888SOL     OW17437   6.564  10.321   1.369
71888SOL    HW117438   6.554  10.397   1.427
71888SOL    HW217439   6.484  10.320   1.316
71889SOL     OW17440  12.812   6.310  11.197
71889SOL    HW117441  12.763   6.261  11.131
71889SOL    HW217442  12.867   6.244  11.240
71890SOL     OW17443   2.925  12.089   6.078
71890SOL    HW117444   2.975  12.026   6.027
71890SOL    HW217445   2.848  12.041   6.107
71891SOL     OW17446   0.296  13.948  12.188
71891SOL    HW117447   0.219  14.003  12.172
71891SOL    HW217448   0.345  13.995  12.255
71892SOL     OW17449   1.961   1.113  11.871
71892SOL    HW117450   2.042   1.162  11.887
71892SOL    HW217451   1.983   1.023  11.897
71893SOL     OW17452  12.574  12.993   0.138
71893SOL    HW117453  12.519  13.040   0.075
71893SOL    HW217454  12.657  13.040   0.136
71894SOL     OW17455  11.252   8.042   0.458
71894SOL    HW117456  11.259   8.127   0.414
71894SOL    HW217457  11.162   8.039   0.491
71895SOL     OW17458   3.988   8.103   8.239
71895SOL    HW117459   3.969   8.020   8.195
71895SOL    HW217460   3.923   8.164   8.205
71896SOL     OW17461   4.087  14.069   5.353
71896SOL    HW117462   4.126  14.069   5.440
71896SOL    HW217463   4.123  13.990   5.311
71897SOL     OW17464  14.048   7.810  10.497
71897SOL    HW117465  14.082   7.876  10.557
71897SOL    HW217466  14.108   7.736  10.506
71898SOL     OW17467   6.195   5.117   4.120
71898SOL    HW117468   6.256   5.180   4.082
71898SOL    HW217469   6.233   5.032   4.097
71899SOL     OW17470   9.940  10.957   3.882
71899SOL    HW117471   9.892  10.874   3.872
71899SOL    HW217472   9.956  10.964   3.976
71900SOL     OW17473   8.512  10.550   4.248
71900SOL    HW117474   8.422  10.520   4.234
71900SOL    HW217475   8.566  10.495   4.191
71901SOL     OW17476  12.422   2.559   0.711
71901SOL    HW117477  12.493   2.618   0.738
71901SOL    HW217478  12.446   2.532   0.622
71902SOL     OW17479   1.555   2.231  10.691
71902SOL    HW117480   1.595   2.208  10.607
71902SOL    HW217481   1.533   2.324  10.682
71903SOL     OW17482   6.678  11.861  10.153
71903SOL    HW117483   6.645  11.806  10.082
71903SOL    HW217484   6.606  11.865  10.216
71904SOL     OW17485  10.362   9.326   8.088
71904SOL    HW117486  10.415   9.285   8.020
71904SOL    HW217487  10.379   9.274   8.167
71905SOL     OW17488   8.609   1.467   9.211
71905SOL    HW117489   8.672   1.495   9.144
71905SOL    HW217490   8.609   1.372   9.205
71906SOL     OW17491  12.303   0.724   9.989
71906SOL    HW117492  12.265   0.788  10.050
71906SOL    HW217493  12.334   0.776   9.916
71907SOL     OW17494   7.352  13.515   8.768
71907SOL    HW117495   7.355  13.605   8.734
71907SOL    HW217496   7.435  13.476   8.739
71908SOL     OW17497   6.571  12.011  13.234
71908SOL    HW117498   6.589  12.007  13.140
71908SOL    HW217499   6.484  12.049  13.240
71909SOL     OW17500   3.246   7.746   7.961
71909SOL    HW117501   3.293   7.829   7.949
71909SOL    HW217502   3.295   7.701   8.030
71910SOL     OW17503  10.049  14.281   1.240
71910SOL    HW117504  10.026  14.302   1.331
71910SOL    HW217505  10.014  14.193   1.227
71911SOL     OW17506   9.325   4.249  14.854
71911SOL    HW117507   9.273   4.325  14.830
71911SOL    HW217508   9.409   4.286   0.001
71912SOL     OW17509   5.292  11.781   0.598
71912SOL    HW117510   5.226  11.734   0.650
71912SOL    HW217511   5.347  11.712   0.562
71913SOL     OW17512   8.082   1.504   2.319
71913SOL    HW117513   8.118   1.481   2.405
71913SOL    HW217514   7.999   1.547   2.338
71914SOL     OW17515  10.860   9.940   2.273
71914SOL    HW117516  10.904  10.021   2.247
71914SOL    HW217517  10.839   9.953   2.366
71915SOL     OW17518   3.774  13.442   2.387
71915SOL    HW117519   3.678  13.442   2.380
71915SOL    HW217520   3.800  13.527   2.351
71916SOL     OW17521  12.965  10.509   2.770
71916SOL    HW117522  12.965  10.457   2.690
71916SOL    HW217523  13.000  10.594   2.744
71917SOL     OW17524   3.412   4.942  11.726
71917SOL    HW117525   3.405   5.030  11.764
71917SOL    HW217526   3.343   4.940  11.660
71918SOL     OW17527   0.426   0.176  12.641
71918SOL    HW117528   0.381   0.097  12.613
71918SOL    HW217529   0.435   0.166  12.736
71919SOL     OW17530   2.204   1.318   9.986
71919SOL    HW117531   2.140   1.251   9.961
71919SOL    HW217532   2.255   1.278  10.056
71920SOL     OW17533   2.311   2.167  14.655
71920SOL    HW117534   2.227   2.153  14.613
71920SOL    HW217535   2.342   2.250  14.619
71921SOL     OW17536   6.003   6.256  12.889
71921SOL    HW117537   5.921   6.216  12.918
71921SOL    HW217538   6.071   6.194  12.915
71922SOL     OW17539   8.026   3.521   7.900
71922SOL    HW117540   8.020   3.569   7.817
71922SOL    HW217541   8.089   3.571   7.951
71923SOL     OW17542   5.864   6.369   1.614
71923SOL    HW117543   5.916   6.447   1.634
71923SOL    HW217544   5.918   6.320   1.552
71924SOL     OW17545   1.290   0.450  10.454
71924SOL    HW117546   1.229   0.502  10.402
71924SOL    HW217547   1.269   0.359  10.432
71925SOL     OW17548   7.811   0.567   2.165
71925SOL    HW117549   7.899   0.604   2.154
71925SOL    HW217550   7.825   0.486   2.215
71926SOL     OW17551  11.060   6.994   4.503
71926SOL    HW117552  11.111   7.004   4.423
71926SOL    HW217553  11.125   6.968   4.569
71927SOL     OW17554   2.848   8.573   1.001
71927SOL    HW117555   2.867   8.649   1.057
71927SOL    HW217556   2.918   8.574   0.935
71928SOL     OW17557   7.248   7.594   7.280
71928SOL    HW117558   7.283   7.654   7.214
71928SOL    HW217559   7.166   7.634   7.309
71929SOL     OW17560   2.472   7.724  13.829
71929SOL    HW117561   2.495   7.675  13.908
71929SOL    HW217562   2.403   7.672  13.788
71930SOL     OW17563   7.958   1.003   5.571
71930SOL    HW117564   7.866   0.981   5.558
71930SOL    HW217565   8.006   0.935   5.523
71931SOL     OW17566   6.157  14.500   9.632
71931SOL    HW117567   6.111  14.481   9.549
71931SOL    HW217568   6.229  14.437   9.634
71932SOL     OW17569   3.296   9.196  12.661
71932SOL    HW117570   3.388   9.182  12.685
71932SOL    HW217571   3.246   9.144  12.724
71933SOL     OW17572   0.630   0.324  14.641
71933SOL    HW117573   0.655   0.242  14.683
71933SOL    HW217574   0.651   0.311  14.548
71934SOL     OW17575  11.621   1.384   9.276
71934SOL    HW117576  11.647   1.373   9.367
71934SOL    HW217577  11.584   1.473   9.273
71935SOL     OW17578   6.994  13.668  11.493
71935SOL    HW117579   7.082  13.679  11.529
71935SOL    HW217580   6.936  13.694  11.564
71936SOL     OW17581  11.181  12.708  10.182
71936SOL    HW117582  11.221  12.625  10.154
71936SOL    HW217583  11.179  12.761  10.102
71937SOL     OW17584   7.335   5.775  11.302
71937SOL    HW117585   7.252   5.738  11.272
71937SOL    HW217586   7.316   5.867  11.319
71938SOL     OW17587   5.360  10.918   4.082
71938SOL    HW117588   5.299  10.888   4.014
71938SOL    HW217589   5.308  10.916   4.163
71939SOL     OW17590   1.738   4.385   0.080
71939SOL    HW117591   1.746   4.321   0.151
71939SOL    HW217592   1.689   4.339   0.012
71940SOL     OW17593   2.422   8.753  10.663
71940SOL    HW117594   2.413   8.659  10.648
71940SOL    HW217595   2.353   8.773  10.726
71941SOL     OW17596   9.052  11.172   1.007
71941SOL    HW117597   9.094  11.211   1.084
71941SOL    HW217598   8.968  11.139   1.039
71942SOL     OW17599   5.978   8.854   6.120
71942SOL    HW117600   5.927   8.834   6.042
71942SOL    HW217601   6.011   8.769   6.149
71943SOL     OW17602   4.775   3.101   0.665
71943SOL    HW117603   4.707   3.125   0.728
71943SOL    HW217604   4.845   3.065   0.719
71944SOL     OW17605   1.459   8.071   4.644
71944SOL    HW117606   1.479   8.075   4.737
71944SOL    HW217607   1.376   8.023   4.639
71945SOL     OW17608   4.464   5.365   1.789
71945SOL    HW117609   4.515   5.314   1.852
71945SOL    HW217610   4.425   5.435   1.841
71946SOL     OW17611   8.309  13.843   1.948
71946SOL    HW117612   8.385  13.786   1.934
71946SOL    HW217613   8.267  13.850   1.862
71947SOL     OW17614   2.006   6.260   6.853
71947SOL    HW117615   2.001   6.184   6.911
71947SOL    HW217616   2.019   6.222   6.766
71948SOL     OW17617  11.907   7.947  14.513
71948SOL    HW117618  11.901   7.922  14.420
71948SOL    HW217619  11.821   7.927  14.549
71949SOL     OW17620   4.703  14.240   0.178
71949SOL    HW117621   4.630  14.182   0.156
71949SOL    HW217622   4.727  14.216   0.268
71950SOL     OW17623  13.592   8.690   7.234
71950SOL    HW117624  13.539   8.728   7.164
71950SOL    HW217625  13.557   8.602   7.246
71951SOL     OW17626  12.916   0.901   7.924
71951SOL    HW117627  12.955   0.988   7.911
71951SOL    HW217628  12.822   0.918   7.929
71952SOL     OW17629   2.525   8.159   6.377
71952SOL    HW117630   2.507   8.104   6.453
71952SOL    HW217631   2.619   8.147   6.360
71953SOL     OW17632  12.469   1.764  12.858
71953SOL    HW117633  12.425   1.846  12.882
71953SOL    HW217634  12.485   1.721  12.942
71954SOL     OW17635   9.197  14.514   0.627
71954SOL    HW117636   9.213  14.478   0.540
71954SOL    HW217637   9.283  14.514   0.669
71955SOL     OW17638   0.404  11.716  12.572
71955SOL    HW117639   0.437  11.790  12.623
71955SOL    HW217640   0.311  11.712  12.592
71956SOL     OW17641   0.561   5.399   3.735
71956SOL    HW117642   0.617   5.396   3.812
71956SOL    HW217643   0.616   5.438   3.666
71957SOL     OW17644   4.756   7.217  13.842
71957SOL    HW117645   4.660   7.226  13.848
71957SOL    HW217646   4.786   7.227  13.932
71958SOL     OW17647  14.594   3.131   8.737
71958SOL    HW117648  14.575   3.193   8.807
71958SOL    HW217649  14.593   3.184   8.657
71959SOL     OW17650   3.371   1.146   5.953
71959SOL    HW117651   3.373   1.053   5.977
71959SOL    HW217652   3.386   1.147   5.859
71960SOL     OW17653  10.044   3.674   6.695
71960SOL    HW117654  10.126   3.722   6.702
71960SOL    HW217655   9.977   3.741   6.680
71961SOL     OW17656  14.632   2.008  14.377
71961SOL    HW117657  14.610   2.051  14.294
71961SOL    HW217658  14.557   1.951  14.394
71962SOL     OW17659   5.839  12.672   8.213
71962SOL    HW117660   5.837  12.577   8.204
71962SOL    HW217661   5.857  12.704   8.125
71963SOL     OW17662  12.028   8.429   3.369
71963SOL    HW117663  11.993   8.469   3.449
71963SOL    HW217664  11.996   8.486   3.299
71964SOL     OW17665   0.582   0.021   0.863
71964SOL    HW117666   0.488   0.023   0.879
71964SOL    HW217667   0.591  14.861   0.777
71965SOL     OW17668   0.556  10.377   2.932
71965SOL    HW117669   0.503  10.401   3.008
71965SOL    HW217670   0.545  10.450   2.871
71966SOL     OW17671   1.817   1.675   6.068
71966SOL    HW117672   1.737   1.685   6.015
71966SOL    HW217673   1.787   1.629   6.146
71967SOL     OW17674  12.937   2.678  11.815
71967SOL    HW117675  13.012   2.627  11.847
71967SOL    HW217676  12.974   2.761  11.786
71968SOL     OW17677  13.053  14.705   1.917
71968SOL    HW117678  13.143  14.696   1.949
71968SOL    HW217679  13.057  14.675   1.826
71969SOL     OW17680   8.728  11.526  12.530
71969SOL    HW117681   8.687  11.599  12.576
71969SOL    HW217682   8.719  11.452  12.590
71970SOL     OW17683   9.220   8.700   7.313
71970SOL    HW117684   9.245   8.624   7.261
71970SOL    HW217685   9.181   8.663   7.392
71971SOL     OW17686  12.335  11.662   2.336
71971SOL    HW117687  12.372  11.655   2.424
71971SOL    HW217688  12.246  11.627   2.344
71972SOL     OW17689   1.687   4.676   7.390
71972SOL    HW117690   1.628   4.722   7.331
71972SOL    HW217691   1.634   4.656   7.467
71973SOL     OW17692   7.483   0.636  11.285
71973SOL    HW117693   7.543   0.611  11.355
71973SOL    HW217694   7.424   0.561  11.276
71974SOL     OW17695   5.302   8.726  11.078
71974SOL    HW117696   5.354   8.769  11.146
71974SOL    HW217697   5.277   8.642  11.117
71975SOL     OW17698   4.574  12.416   6.567
71975SOL    HW117699   4.483  12.439   6.547
71975SOL    HW217700   4.575  12.321   6.569
71976SOL     OW17701  13.982   1.462  13.747
71976SOL    HW117702  13.924   1.416  13.686
71976SOL    HW217703  13.935   1.461  13.831
71977SOL     OW17704  12.384   5.938   0.471
71977SOL    HW117705  12.382   6.026   0.510
71977SOL    HW217706  12.292   5.911   0.470
71978SOL     OW17707  12.558   0.756  12.349
71978SOL    HW117708  12.628   0.692  12.338
71978SOL    HW217709  12.602   0.836  12.377
71979SOL     OW17710   2.178   9.768   1.815
71979SOL    HW117711   2.120   9.740   1.744
71979SOL    HW217712   2.266   9.743   1.785
71980SOL     OW17713   3.153   6.984  12.282
71980SOL    HW117714   3.088   6.916  12.263
71980SOL    HW217715   3.164   6.981  12.377
71981SOL     OW17716  14.832  12.452  14.571
71981SOL    HW117717  14.778  12.416  14.641
71981SOL    HW217718  14.845  12.380  14.510
71982SOL     OW17719  12.465   9.028  12.012
71982SOL    HW117720  12.399   9.088  11.978
71982SOL    HW217721  12.428   8.996  12.095
71983SOL     OW17722  11.444   1.663   3.947
71983SOL    HW117723  11.510   1.679   3.879
71983SOL    HW217724  11.451   1.739   4.005
71984SOL     OW17725   0.789   8.107   2.359
71984SOL    HW117726   0.868   8.158   2.377
71984SOL    HW217727   0.758   8.080   2.446
71985SOL     OW17728   5.030  14.006   8.539
71985SOL    HW117729   5.118  14.025   8.507
71985SOL    HW217730   4.975  14.003   8.461
71986SOL     OW17731   0.008  13.210  11.868
71986SOL    HW117732   0.061  13.183  11.943
71986SOL    HW217733  14.804  13.169  11.882
71987SOL     OW17734   8.292  11.547   3.646
71987SOL    HW117735   8.213  11.505   3.682
71987SOL    HW217736   8.263  11.587   3.565
71988SOL     OW17737   6.683   5.683  10.465
71988SOL    HW117738   6.616   5.751  10.455
71988SOL    HW217739   6.759   5.730  10.499
71989SOL     OW17740   4.992   7.942   6.815
71989SOL    HW117741   4.990   7.852   6.783
71989SOL    HW217742   4.952   7.993   6.745
71990SOL     OW17743  14.536   9.812   4.763
71990SOL    HW117744  14.531   9.821   4.668
71990SOL    HW217745  14.607   9.749   4.777
71991SOL     OW17746  12.416   6.166   2.203
71991SOL    HW117747  12.386   6.149   2.113
71991SOL    HW217748  12.397   6.085   2.250
71992SOL     OW17749   7.183   5.619  14.517
71992SOL    HW117750   7.102   5.622  14.466
71992SOL    HW217751   7.229   5.541  14.484
71993SOL     OW17752  13.699   2.539   0.249
71993SOL    HW117753  13.619   2.545   0.302
71993SOL    HW217754  13.747   2.465   0.288
71994SOL     OW17755  10.090   0.226  14.497
71994SOL    HW117756  10.115   0.138  14.471
71994SOL    HW217757  10.125   0.236  14.586
71995SOL     OW17758   5.464  13.372   5.762
71995SOL    HW117759   5.546  13.327   5.782
71995SOL    HW217760   5.437  13.337   5.677
71996SOL     OW17761   8.856   8.457   4.355
71996SOL    HW117762   8.790   8.425   4.294
71996SOL    HW217763   8.807   8.506   4.421
71997SOL     OW17764   3.020  14.223   9.185
71997SOL    HW117765   3.093  14.200   9.243
71997SOL    HW217766   2.945  14.233   9.244
71998SOL     OW17767  14.111   6.537   3.321
71998SOL    HW117768  14.080   6.618   3.363
71998SOL    HW217769  14.104   6.470   3.390
71999SOL     OW17770  12.900  11.467  11.313
71999SOL    HW117771  12.836  11.396  11.308
71999SOL    HW217772  12.916  11.492  11.222
72000SOL     OW17773  10.121  14.801   6.324
72000SOL    HW117774  10.056  14.751   6.374
72000SOL    HW217775  10.166  14.855   6.390
72001SOL     OW17776   5.821   6.752   3.482
72001SOL    HW117777   5.845   6.660   3.488
72001SOL    HW217778   5.725   6.751   3.480
72002SOL     OW17779  12.599  14.369  11.112
72002SOL    HW117780  12.670  14.312  11.082
72002SOL    HW217781  12.546  14.314  11.170
72003SOL     OW17782   8.172   2.873   1.121
72003SOL    HW117783   8.262   2.841   1.117
72003SOL    HW217784   8.176   2.949   1.179
72004SOL     OW17785   9.878   5.358   3.550
72004SOL    HW117786   9.831   5.315   3.621
72004SOL    HW217787   9.873   5.295   3.478
72005SOL     OW17788   2.333   7.294   7.885
72005SOL    HW117789   2.423   7.263   7.895
72005SOL    HW217790   2.327   7.369   7.944
72006SOL     OW17791   5.143   8.009  11.754
72006SOL    HW117792   5.233   7.985  11.731
72006SOL    HW217793   5.141   8.104  11.746
72007SOL     OW17794   9.627   9.794   5.655
72007SOL    HW117795   9.612   9.885   5.631
72007SOL    HW217796   9.689   9.762   5.590
72008SOL     OW17797  10.603  12.803   4.813
72008SOL    HW117798  10.614  12.826   4.721
72008SOL    HW217799  10.512  12.823   4.833
72009SOL     OW17800   4.043   3.739   7.285
72009SOL    HW117801   4.020   3.735   7.192
72009SOL    HW217802   4.112   3.805   7.290
72010SOL     OW17803   2.393  13.192  14.582
72010SOL    HW117804   2.336  13.138  14.527
72010SOL    HW217805   2.457  13.130  14.618
72011SOL     OW17806  14.154   0.489   9.870
72011SOL    HW117807  14.136   0.420   9.934
72011SOL    HW217808  14.193   0.559   9.922
72012SOL     OW17809  13.500   5.821  11.630
72012SOL    HW117810  13.454   5.738  11.620
72012SOL    HW217811  13.588   5.804  11.596
72013SOL     OW17812   2.353   2.860  14.391
72013SOL    HW117813   2.444   2.833  14.384
72013SOL    HW217814   2.318   2.808  14.463
72014SOL     OW17815   2.873  12.351   9.379
72014SOL    HW117816   2.804  12.290   9.355
72014SOL    HW217817   2.835  12.402   9.451
72015SOL     OW17818  12.382  13.573  12.558
72015SOL    HW117819  12.307  13.607  12.509
72015SOL    HW217820  12.421  13.651  12.599
72016SOL     OW17821   9.728   9.622   9.071
72016SOL    HW117822   9.813   9.600   9.034
72016SOL    HW217823   9.718   9.563   9.147
72017SOL     OW17824   5.496  13.969   8.234
72017SOL    HW117825   5.428  14.006   8.291
72017SOL    HW217826   5.455  13.963   8.148
72018SOL     OW17827  11.830   1.736  10.398
72018SOL    HW117828  11.830   1.646  10.368
72018SOL    HW217829  11.922   1.761  10.402
72019SOL     OW17830  11.385  13.896  12.085
72019SOL    HW117831  11.406  13.857  12.000
72019SOL    HW217832  11.299  13.936  12.072
72020SOL     OW17833   0.099   3.948   4.156
72020SOL    HW117834   0.111   3.856   4.177
72020SOL    HW217835   0.115   3.994   4.238
72021SOL     OW17836   9.615  13.745   3.338
72021SOL    HW117837   9.683  13.702   3.285
72021SOL    HW217838   9.565  13.796   3.275
72022SOL     OW17839  13.151   2.890  11.806
72022SOL    HW117840  13.139   2.972  11.855
72022SOL    HW217841  13.187   2.918  11.722
72023SOL     OW17842   5.439   3.512   2.629
72023SOL    HW117843   5.400   3.436   2.585
72023SOL    HW217844   5.367   3.549   2.681
72024SOL     OW17845   2.744   4.031   3.117
72024SOL    HW117846   2.716   4.089   3.047
72024SOL    HW217847   2.694   4.060   3.193
72025SOL     OW17848   7.221   1.628   2.254
72025SOL    HW117849   7.256   1.653   2.168
72025SOL    HW217850   7.299   1.618   2.309
72026SOL     OW17851  13.254   7.978   5.024
72026SOL    HW117852  13.206   7.995   5.104
72026SOL    HW217853  13.195   7.926   4.970
72027SOL     OW17854   0.492   9.844   2.739
72027SOL    HW117855   0.450   9.781   2.797
72027SOL    HW217856   0.464   9.930   2.772
72028SOL     OW17857   7.186   9.425   1.617
72028SOL    HW117858   7.221   9.379   1.541
72028SOL    HW217859   7.187   9.359   1.687
72029SOL     OW17860   8.140  12.934   2.409
72029SOL    HW117861   8.170  12.872   2.476
72029SOL    HW217862   8.163  12.892   2.326
72030SOL     OW17863  11.848   6.442   1.265
72030SOL    HW117864  11.912   6.488   1.210
72030SOL    HW217865  11.764   6.460   1.224
72031SOL     OW17866   1.361   9.200   1.232
72031SOL    HW117867   1.308   9.263   1.279
72031SOL    HW217868   1.300   9.158   1.170
72032SOL     OW17869   1.848   6.437  11.128
72032SOL    HW117870   1.911   6.364  11.126
72032SOL    HW217871   1.785   6.417  11.059
72033SOL     OW17872   4.126   5.406   6.931
72033SOL    HW117873   4.125   5.470   6.860
72033SOL    HW217874   4.180   5.334   6.898
72034SOL     OW17875   2.231   4.312   0.456
72034SOL    HW117876   2.179   4.379   0.501
72034SOL    HW217877   2.217   4.232   0.507
72035SOL     OW17878  13.889   5.917   2.124
72035SOL    HW117879  13.881   5.890   2.032
72035SOL    HW217880  13.870   5.838   2.174
72036SOL     OW17881   3.464   7.599  11.619
72036SOL    HW117882   3.456   7.507  11.593
72036SOL    HW217883   3.556   7.611  11.640
72037SOL     OW17884   7.302   1.241   9.706
72037SOL    HW117885   7.253   1.200   9.778
72037SOL    HW217886   7.393   1.230   9.731
72038SOL     OW17887   1.611  11.948   7.874
72038SOL    HW117888   1.662  11.879   7.831
72038SOL    HW217889   1.521  11.933   7.845
72039SOL     OW17890   7.017  14.174   3.014
72039SOL    HW117891   6.991  14.218   2.934
72039SOL    HW217892   7.031  14.245   3.077
72040SOL     OW17893   8.396   2.015   7.811
72040SOL    HW117894   8.319   1.977   7.769
72040SOL    HW217895   8.361   2.059   7.889
72041SOL     OW17896   3.510   8.568  12.802
72041SOL    HW117897   3.544   8.658  12.801
72041SOL    HW217898   3.572   8.520  12.747
72042SOL     OW17899   7.790   7.986   7.145
72042SOL    HW117900   7.854   7.955   7.209
72042SOL    HW217901   7.747   8.060   7.187
72043SOL     OW17902  13.436   1.214   0.578
72043SOL    HW117903  13.410   1.216   0.670
72043SOL    HW217904  13.369   1.160   0.535
72044SOL     OW17905   3.626   4.089  12.781
72044SOL    HW117906   3.674   4.169  12.760
72044SOL    HW217907   3.654   4.025  12.716
72045SOL     OW17908   5.373   3.984  14.190
72045SOL    HW117909   5.415   3.923  14.251
72045SOL    HW217910   5.438   3.998  14.122
72046SOL     OW17911   5.144   1.555   0.312
72046SOL    HW117912   5.210   1.614   0.348
72046SOL    HW217913   5.091   1.610   0.255
72047SOL     OW17914   3.021   0.470   1.795
72047SOL    HW117915   2.936   0.445   1.830
72047SOL    HW217916   3.005   0.553   1.750
72048SOL     OW17917  10.169  13.035   3.912
72048SOL    HW117918  10.126  12.955   3.881
72048SOL    HW217919  10.134  13.104   3.856
72049SOL     OW17920  10.188   4.456   1.876
72049SOL    HW117921  10.121   4.467   1.809
72049SOL    HW217922  10.164   4.375   1.921
72050SOL     OW17923  10.318   9.936   8.454
72050SOL    HW117924  10.223   9.925   8.456
72050SOL    HW217925  10.334  10.018   8.502
72051SOL     OW17926  13.293   0.223   8.570
72051SOL    HW117927  13.227   0.271   8.619
72051SOL    HW217928  13.345   0.291   8.526
72052SOL     OW17929  12.861   2.002   2.708
72052SOL    HW117930  12.778   2.045   2.688
72052SOL    HW217931  12.837   1.932   2.769
72053SOL     OW17932  12.157   0.425   2.262
72053SOL    HW117933  12.237   0.377   2.240
72053SOL    HW217934  12.087   0.377   2.217
72054SOL     OW17935  14.405   8.514  13.703
72054SOL    HW117936  14.395   8.496  13.610
72054SOL    HW217937  14.330   8.569  13.725
72055SOL     OW17938   0.156   7.788   3.385
72055SOL    HW117939   0.105   7.770   3.464
72055SOL    HW217940   0.098   7.760   3.313
72056SOL     OW17941   1.265   3.765  14.145
72056SOL    HW117942   1.193   3.702  14.146
72056SOL    HW217943   1.337   3.720  14.189
72057SOL     OW17944  14.587   9.363   0.858
72057SOL    HW117945  14.612   9.281   0.815
72057SOL    HW217946  14.543   9.413   0.789
72058SOL     OW17947   2.724   3.331   5.365
72058SOL    HW117948   2.630   3.319   5.361
72058SOL    HW217949   2.754   3.268   5.430
72059SOL     OW17950   1.157  10.029  10.713
72059SOL    HW117951   1.099  10.081  10.768
72059SOL    HW217952   1.098   9.982  10.654
72060SOL     OW17953   4.318  13.670  14.195
72060SOL    HW117954   4.413  13.663  14.197
72060SOL    HW217955   4.287  13.581  14.212
72061SOL     OW17956  13.862   5.422  11.893
72061SOL    HW117957  13.927   5.386  11.832
72061SOL    HW217958  13.910   5.435  11.974
72062SOL     OW17959   8.029  11.711   5.684
72062SOL    HW117960   8.015  11.670   5.599
72062SOL    HW217961   8.004  11.802   5.671
72063SOL     OW17962   0.676   4.581   5.499
72063SOL    HW117963   0.648   4.592   5.590
72063SOL    HW217964   0.620   4.511   5.465
72064SOL     OW17965   6.400  10.992  14.804
72064SOL    HW117966   6.394  10.911  14.855
72064SOL    HW217967   6.398  10.962  14.713
72065SOL     OW17968   8.507   3.106   2.006
72065SOL    HW117969   8.487   3.033   2.063
72065SOL    HW217970   8.570   3.159   2.055
72066SOL     OW17971  10.545  11.835  13.958
72066SOL    HW117972  10.456  11.872  13.955
72066SOL    HW217973  10.545  11.782  14.037
72067SOL     OW17974   5.558   7.579   2.837
72067SOL    HW117975   5.559   7.537   2.923
72067SOL    HW217976   5.484   7.640   2.841
72068SOL     OW17977  14.440  10.547  10.294
72068SOL    HW117978  14.372  10.606  10.260
72068SOL    HW217979  14.424  10.465  10.248
72069SOL     OW17980   8.379   5.918  11.719
72069SOL    HW117981   8.450   5.875  11.673
72069SOL    HW217982   8.334   5.970  11.652
72070SOL     OW17983   0.905   8.240  11.098
72070SOL    HW117984   0.947   8.310  11.047
72070SOL    HW217985   0.921   8.161  11.046
72071SOL     OW17986   7.117   3.058  11.945
72071SOL    HW117987   7.082   3.127  11.889
72071SOL    HW217988   7.211   3.060  11.930
72072SOL     OW17989  11.879   6.923   1.604
72072SOL    HW117990  11.934   6.846   1.622
72072SOL    HW217991  11.866   6.922   1.510
72073SOL     OW17992  14.743  13.848  13.097
72073SOL    HW117993  14.749  13.915  13.165
72073SOL    HW217994  14.701  13.774  13.140
72074SOL     OW17995  10.827  11.229  14.268
72074SOL    HW117996  10.877  11.222  14.187
72074SOL    HW217997  10.741  11.195  14.246
72075SOL     OW17998   0.184   9.557   4.848
72075SOL    HW117999   0.129   9.483   4.871
72075SOL    HW218000   0.240   9.570   4.925
72076SOL     OW18001   4.538  11.203   3.634
72076SOL    HW118002   4.622  11.211   3.589
72076SOL    HW218003   4.477  11.252   3.579
72077SOL     OW18004  10.298   0.363   0.684
72077SOL    HW118005  10.289   0.429   0.753
72077SOL    HW218006  10.208   0.334   0.667
72078SOL     OW18007   4.988   7.099  10.772
72078SOL    HW118008   5.031   7.019  10.801
72078SOL    HW218009   4.971   7.148  10.853
72079SOL     OW18010   7.320   7.224   4.869
72079SOL    HW118011   7.401   7.209   4.916
72079SOL    HW218012   7.314   7.152   4.806
72080SOL     OW18013   1.726  12.601   8.713
72080SOL    HW118014   1.755  12.679   8.667
72080SOL    HW218015   1.795  12.584   8.778
72081SOL     OW18016   8.859   7.516   2.081
72081SOL    HW118017   8.865   7.609   2.062
72081SOL    HW218018   8.807   7.480   2.010
72082SOL     OW18019   7.781   5.512   1.780
72082SOL    HW118020   7.845   5.442   1.765
72082SOL    HW218021   7.832   5.583   1.818
72083SOL     OW18022   9.453  14.678  11.022
72083SOL    HW118023   9.481  14.757  11.069
72083SOL    HW218024   9.528  14.619  11.026
72084SOL     OW18025   8.953   9.127   7.765
72084SOL    HW118026   8.864   9.139   7.731
72084SOL    HW218027   8.993   9.063   7.706
72085SOL     OW18028   7.976   3.981   1.281
72085SOL    HW118029   7.952   3.956   1.192
72085SOL    HW218030   8.072   3.980   1.281
72086SOL     OW18031   5.397  11.876   3.106
72086SOL    HW118032   5.340  11.810   3.145
72086SOL    HW218033   5.375  11.957   3.152
72087SOL     OW18034   6.591   0.638   1.174
72087SOL    HW118035   6.660   0.585   1.134
72087SOL    HW218036   6.580   0.600   1.262
72088SOL     OW18037  12.961  10.574   5.496
72088SOL    HW118038  12.871  10.571   5.527
72088SOL    HW218039  12.963  10.648   5.436
72089SOL     OW18040   8.342  13.280   7.851
72089SOL    HW118041   8.426  13.235   7.858
72089SOL    HW218042   8.286  13.219   7.802
72090SOL     OW18043   3.502  13.065  10.129
72090SOL    HW118044   3.534  13.032  10.213
72090SOL    HW218045   3.456  12.990  10.090
72091SOL     OW18046  13.088  12.066   5.822
72091SOL    HW118047  13.013  12.009   5.838
72091SOL    HW218048  13.105  12.107   5.907
72092SOL     OW18049   0.968   7.268   3.923
72092SOL    HW118050   0.890   7.270   3.978
72092SOL    HW218051   1.027   7.332   3.964
72093SOL     OW18052   5.831   5.654   6.793
72093SOL    HW118053   5.857   5.573   6.837
72093SOL    HW218054   5.755   5.629   6.741
72094SOL     OW18055  14.438  12.553  13.285
72094SOL    HW118056  14.494  12.495  13.337
72094SOL    HW218057  14.494  12.582  13.213
72095SOL     OW18058   5.033  11.869   7.269
72095SOL    HW118059   5.076  11.829   7.345
72095SOL    HW218060   5.103  11.885   7.206
72096SOL     OW18061  11.272   5.626   6.285
72096SOL    HW118062  11.353   5.620   6.234
72096SOL    HW218063  11.262   5.540   6.325
72097SOL     OW18064   6.858   0.236   6.618
72097SOL    HW118065   6.793   0.172   6.647
72097SOL    HW218066   6.806   0.303   6.573
72098SOL     OW18067  10.497  10.707   5.221
72098SOL    HW118068  10.408  10.706   5.187
72098SOL    HW218069  10.530  10.794   5.199
72099SOL     OW18070   7.695  12.406  14.378
72099SOL    HW118071   7.637  12.382  14.451
72099SOL    HW218072   7.660  12.358  14.303
72100SOL     OW18073  11.382   6.459   2.079
72100SOL    HW118074  11.414   6.505   2.156
72100SOL    HW218075  11.287   6.461   2.087
72101SOL     OW18076  10.998   1.889   0.487
72101SOL    HW118077  11.011   1.795   0.500
72101SOL    HW218078  10.968   1.921   0.572
72102SOL     OW18079  12.841   6.859   4.867
72102SOL    HW118080  12.835   6.793   4.798
72102SOL    HW218081  12.904   6.823   4.929
72103SOL     OW18082  10.603   0.160   6.003
72103SOL    HW118083  10.634   0.084   6.051
72103SOL    HW218084  10.508   0.162   6.020
72104SOL     OW18085   8.684   1.173   2.880
72104SOL    HW118086   8.648   1.090   2.911
72104SOL    HW218087   8.652   1.238   2.943
72105SOL     OW18088   7.577  11.354   5.545
72105SOL    HW118089   7.581  11.331   5.638
72105SOL    HW218090   7.631  11.432   5.537
72106SOL     OW18091  13.628   0.675   3.316
72106SOL    HW118092  13.606   0.657   3.225
72106SOL    HW218093  13.669   0.595   3.347
72107SOL     OW18094   0.466  11.017   1.054
72107SOL    HW118095   0.514  10.991   0.976
72107SOL    HW218096   0.374  10.998   1.033
72108SOL     OW18097   8.847   2.099   8.461
72108SOL    HW118098   8.905   2.175   8.458
72108SOL    HW218099   8.813   2.091   8.372
72109SOL     OW18100   9.519   3.267  14.723
72109SOL    HW118101   9.476   3.186  14.751
72109SOL    HW218102   9.543   3.251  14.631
72110SOL     OW18103   9.953   3.456   0.772
72110SOL    HW118104   9.996   3.402   0.706
72110SOL    HW218105   9.888   3.506   0.723
72111SOL     OW18106   9.773   6.310   9.637
72111SOL    HW118107   9.805   6.400   9.648
72111SOL    HW218108   9.680   6.319   9.619
72112SOL     OW18109   4.101  10.679   6.013
72112SOL    HW118110   4.150  10.625   6.075
72112SOL    HW218111   4.123  10.769   6.038
72113SOL     OW18112  12.988   2.905   7.043
72113SOL    HW118113  12.969   2.989   7.002
72113SOL    HW218114  13.061   2.870   6.992
72114SOL     OW18115   1.611   3.612   0.935
72114SOL    HW118116   1.599   3.670   1.011
72114SOL    HW218117   1.639   3.529   0.972
72115SOL     OW18118   5.607   5.955   8.996
72115SOL    HW118119   5.591   6.043   8.963
72115SOL    HW218120   5.694   5.932   8.962
72116SOL     OW18121   5.615  11.255   3.773
72116SOL    HW118122   5.672  11.178   3.763
72116SOL    HW218123   5.527  11.221   3.760
72117SOL     OW18124   8.916   1.053  12.926
72117SOL    HW118125   8.988   1.112  12.905
72117SOL    HW218126   8.890   1.078  13.015
72118SOL     OW18127  12.379  11.646   9.542
72118SOL    HW118128  12.456  11.639   9.599
72118SOL    HW218129  12.384  11.734   9.506
72119SOL     OW18130   8.930  11.020   6.894
72119SOL    HW118131   8.858  10.970   6.855
72119SOL    HW218132   8.992  11.032   6.823
72120SOL     OW18133   5.857   8.985   1.014
72120SOL    HW118134   5.933   8.932   0.992
72120SOL    HW218135   5.790   8.922   1.041
72121SOL     OW18136   7.365   1.568   3.276
72121SOL    HW118137   7.442   1.511   3.281
72121SOL    HW218138   7.399   1.656   3.287
72122SOL     OW18139   6.915   4.248   7.851
72122SOL    HW118140   7.001   4.223   7.885
72122SOL    HW218141   6.884   4.170   7.804
72123SOL     OW18142   7.713   5.624   1.324
72123SOL    HW118143   7.679   5.629   1.235
72123SOL    HW218144   7.788   5.683   1.325
72124SOL     OW18145  12.103   1.125   2.647
72124SOL    HW118146  12.016   1.121   2.607
72124SOL    HW218147  12.150   1.190   2.595
72125SOL     OW18148  12.262   6.241   9.897
72125SOL    HW118149  12.242   6.168   9.955
72125SOL    HW218150  12.185   6.249   9.841
72126SOL     OW18151  11.452  12.816   6.715
72126SOL    HW118152  11.538  12.822   6.673
72126SOL    HW218153  11.416  12.733   6.686
72127SOL     OW18154  13.584   2.617  13.100
72127SOL    HW118155  13.627   2.642  13.019
72127SOL    HW218156  13.528   2.544  13.077
72128SOL     OW18157   3.992   2.609   4.436
72128SOL    HW118158   3.968   2.695   4.402
72128SOL    HW218159   3.944   2.547   4.382
72129SOL     OW18160   2.087  10.474   5.401
72129SOL    HW118161   2.158  10.410   5.413
72129SOL    HW218162   2.122  10.536   5.337
72130SOL     OW18163  13.499   7.404   3.843
72130SOL    HW118164  13.476   7.468   3.909
72130SOL    HW218165  13.432   7.414   3.775
72131SOL     OW18166  14.725  14.186   0.593
72131SOL    HW118167  14.752  14.255   0.532
72131SOL    HW218168  14.760  14.213   0.678
72132SOL     OW18169  12.469  14.797   3.505
72132SOL    HW118170  12.480  14.850   3.427
72132SOL    HW218171  12.410  14.726   3.478
72133SOL     OW18172   1.885   0.561  14.837
72133SOL    HW118173   1.963   0.507  14.820
72133SOL    HW218174   1.885   0.573   0.050
72134SOL     OW18175   9.148   0.067  11.433
72134SOL    HW118176   9.141   0.136  11.368
72134SOL    HW218177   9.241   0.060  11.453
72135SOL     OW18178   6.305   8.975   2.998
72135SOL    HW118179   6.234   8.988   2.935
72135SOL    HW218180   6.384   8.996   2.950
72136SOL     OW18181   4.813  11.667  10.287
72136SOL    HW118182   4.901  11.698  10.306
72136SOL    HW218183   4.823  11.574  10.269
72137SOL     OW18184  13.837  12.165   6.560
72137SOL    HW118185  13.821  12.237   6.499
72137SOL    HW218186  13.755  12.158   6.610
72138SOL     OW18187  14.853   2.091   8.534
72138SOL    HW118188   0.052   2.084   8.482
72138SOL    HW218189  14.880   2.136   8.614
72139SOL     OW18190   1.316  13.316   6.849
72139SOL    HW118191   1.300  13.247   6.785
72139SOL    HW218192   1.403  13.297   6.884
72140SOL     OW18193   4.812   7.756  12.892
72140SOL    HW118194   4.760   7.789  12.819
72140SOL    HW218195   4.762   7.682  12.926
72141SOL     OW18196   7.262   3.911  11.377
72141SOL    HW118197   7.349   3.874  11.385
72141SOL    HW218198   7.232   3.922  11.468
72142SOL     OW18199   7.074   5.207   3.309
72142SOL    HW118200   6.995   5.156   3.323
72142SOL    HW218201   7.119   5.207   3.394
72143SOL     OW18202   4.489   5.843  14.785
72143SOL    HW118203   4.541   5.769  14.754
72143SOL    HW218204   4.491   5.905  14.712
72144SOL     OW18205   5.987   3.389  11.557
72144SOL    HW118206   6.033   3.309  11.530
72144SOL    HW218207   6.044   3.460  11.528
72145SOL     OW18208  14.457   0.614   3.352
72145SOL    HW118209  14.438   0.570   3.269
72145SOL    HW218210  14.398   0.690   3.353
72146SOL     OW18211   4.210   9.260   1.983
72146SOL    HW118212   4.290   9.246   1.931
72146SOL    HW218213   4.234   9.234   2.072
72147SOL     OW18214   4.278  12.611   7.189
72147SOL    HW118215   4.305  12.527   7.227
72147SOL    HW218216   4.338  12.624   7.115
72148SOL     OW18217  12.057   3.111   4.444
72148SOL    HW118218  12.010   3.190   4.468
72148SOL    HW218219  11.991   3.042   4.445
72149SOL     OW18220  12.103   0.275   1.586
72149SOL    HW118221  12.008   0.286   1.588
72149SOL    HW218222  12.127   0.283   1.494
72150SOL     OW18223   3.433   8.100   5.663
72150SOL    HW118224   3.359   8.087   5.723
72150SOL    HW218225   3.488   8.164   5.707
72151SOL     OW18226   5.135  10.302   4.450
72151SOL    HW118227   5.169  10.214   4.435
72151SOL    HW218228   5.193  10.338   4.518
72152SOL     OW18229   9.291   5.322  14.218
72152SOL    HW118230   9.221   5.355  14.162
72152SOL    HW218231   9.271   5.357  14.305
72153SOL     OW18232   6.268   4.956   7.020
72153SOL    HW118233   6.263   4.875   6.969
72153SOL    HW218234   6.311   4.930   7.102
72154SOL     OW18235   4.741   1.728   8.545
72154SOL    HW118236   4.680   1.763   8.480
72154SOL    HW218237   4.736   1.790   8.618
72155SOL     OW18238   0.016   6.617  14.019
72155SOL    HW118239   0.055   6.704  14.006
72155SOL    HW218240   0.084   6.556  13.991
72156SOL     OW18241   4.757   2.043   5.606
72156SOL    HW118242   4.718   2.041   5.519
72156SOL    HW218243   4.704   1.982   5.658
72157SOL     OW18244   6.839  14.735   9.389
72157SOL    HW118245   6.781  14.789   9.335
72157SOL    HW218246   6.912  14.793   9.412
72158SOL     OW18247  11.479  10.586   2.022
72158SOL    HW118248  11.456  10.677   1.999
72158SOL    HW218249  11.512  10.549   1.940
72159SOL     OW18250   5.622   8.509   6.838
72159SOL    HW118251   5.554   8.480   6.899
72159SOL    HW218252   5.595   8.596   6.811
72160SOL     OW18253   3.911   8.193   5.727
72160SOL    HW118254   3.828   8.239   5.729
72160SOL    HW218255   3.959   8.233   5.654
72161SOL     OW18256  14.471  10.990   5.615
72161SOL    HW118257  14.566  10.978   5.613
72161SOL    HW218258  14.458  11.084   5.620
72162SOL     OW18259   5.024   6.501   1.808
72162SOL    HW118260   5.027   6.508   1.903
72162SOL    HW218261   5.115   6.513   1.780
72163SOL     OW18262  12.576   1.888   4.768
72163SOL    HW118263  12.643   1.907   4.702
72163SOL    HW218264  12.542   1.974   4.793
72164SOL     OW18265   3.221  14.071   9.642
72164SOL    HW118266   3.212  13.981   9.612
72164SOL    HW218267   3.315  14.084   9.654
72165SOL     OW18268   8.481   8.243   0.316
72165SOL    HW118269   8.538   8.285   0.251
72165SOL    HW218270   8.434   8.316   0.357
72166SOL     OW18271   4.888   1.901   3.459
72166SOL    HW118272   4.845   1.822   3.428
72166SOL    HW218273   4.922   1.943   3.380
72167SOL     OW18274   1.091  12.611   7.495
72167SOL    HW118275   1.035  12.632   7.420
72167SOL    HW218276   1.158  12.553   7.460
72168SOL     OW18277  12.608  14.564   8.895
72168SOL    HW118278  12.610  14.469   8.886
72168SOL    HW218279  12.578  14.595   8.809
72169SOL     OW18280  13.013   6.474   2.029
72169SOL    HW118281  13.050   6.525   2.101
72169SOL    HW218282  13.021   6.531   1.952
72170SOL     OW18283  10.900   5.436  13.043
72170SOL    HW118284  10.899   5.530  13.029
72170SOL    HW218285  10.888   5.425  13.138
72171SOL     OW18286   9.770  12.329  12.290
72171SOL    HW118287   9.703  12.310  12.356
72171SOL    HW218288   9.732  12.297  12.208
72172SOL     OW18289  11.770   4.385   2.363
72172SOL    HW118290  11.861   4.412   2.353
72172SOL    HW218291  11.738   4.434   2.439
72173SOL     OW18292   8.020   7.525   2.049
72173SOL    HW118293   7.961   7.496   1.980
72173SOL    HW218294   7.984   7.610   2.077
72174SOL     OW18295  11.404  14.051  11.296
72174SOL    HW118296  11.312  14.040  11.319
72174SOL    HW218297  11.444  13.966  11.315
72175SOL     OW18298   7.181   0.768   0.614
72175SOL    HW118299   7.178   0.770   0.710
72175SOL    HW218300   7.162   0.859   0.588
72176SOL     OW18301   2.451   2.177   9.568
72176SOL    HW118302   2.517   2.167   9.500
72176SOL    HW218303   2.459   2.098   9.621
72177SOL     OW18304   4.148   1.904  11.744
72177SOL    HW118305   4.106   1.834  11.793
72177SOL    HW218306   4.205   1.948  11.807
72178SOL     OW18307   8.249  10.393   2.823
72178SOL    HW118308   8.295  10.334   2.762
72178SOL    HW218309   8.289  10.376   2.908
72179SOL     OW18310  14.560   6.373  12.597
72179SOL    HW118311  14.590   6.462  12.579
72179SOL    HW218312  14.632   6.333  12.646
72180SOL     OW18313   7.131   0.415   7.858
72180SOL    HW118314   7.165   0.356   7.791
72180SOL    HW218315   7.038   0.424   7.838
72181SOL     OW18316   4.779  10.080   0.016
72181SOL    HW118317   4.735  10.015   0.071
72181SOL    HW218318   4.864  10.041  14.878
72182SOL     OW18319   7.004   4.667   7.443
72182SOL    HW118320   6.913   4.672   7.472
72182SOL    HW218321   7.048   4.737   7.492
72183SOL     OW18322  13.646   6.462  14.838
72183SOL    HW118323  13.715   6.491  14.778
72183SOL    HW218324  13.658   6.516   0.035
72184SOL     OW18325   0.544   7.032  13.952
72184SOL    HW118326   0.514   7.077  13.873
72184SOL    HW218327   0.598   6.960  13.920
72185SOL     OW18328  12.652   8.828  13.431
72185SOL    HW118329  12.666   8.785  13.515
72185SOL    HW218330  12.565   8.801  13.404
72186SOL     OW18331   0.196  12.113   2.843
72186SOL    HW118332   0.136  12.165   2.790
72186SOL    HW218333   0.271  12.098   2.785
72187SOL     OW18334   6.598   2.112  13.208
72187SOL    HW118335   6.652   2.191  13.216
72187SOL    HW218336   6.530   2.136  13.145
72188SOL     OW18337   8.598  14.711   1.073
72188SOL    HW118338   8.550  14.650   1.017
72188SOL    HW218339   8.572  14.798   1.042
72189SOL     OW18340   1.598  10.729  11.788
72189SOL    HW118341   1.632  10.794  11.849
72189SOL    HW218342   1.561  10.781  11.717
72190SOL     OW18343   2.976   4.424   6.595
72190SOL    HW118344   2.891   4.422   6.640
72190SOL    HW218345   3.022   4.498   6.634
72191SOL     OW18346  13.759   3.684   0.085
72191SOL    HW118347  13.705   3.609   0.062
72191SOL    HW218348  13.848   3.659   0.060
72192SOL     OW18349   2.665   8.629   8.957
72192SOL    HW118350   2.737   8.592   9.008
72192SOL    HW218351   2.647   8.714   8.998
72193SOL     OW18352   6.203   0.849   7.431
72193SOL    HW118353   6.290   0.809   7.434
72193SOL    HW218354   6.216   0.932   7.384
72194SOL     OW18355   6.935  13.534   9.713
72194SOL    HW118356   6.841  13.516   9.701
72194SOL    HW218357   6.969  13.542   9.624
72195SOL     OW18358  10.318   4.779   3.240
72195SOL    HW118359  10.325   4.685   3.257
72195SOL    HW218360  10.290   4.785   3.149
72196SOL     OW18361   6.250  10.382   9.274
72196SOL    HW118362   6.313  10.388   9.201
72196SOL    HW218363   6.293  10.327   9.338
72197SOL     OW18364   2.317   8.684   1.268
72197SOL    HW118365   2.266   8.649   1.341
72197SOL    HW218366   2.258   8.679   1.193
72198SOL     OW18367  11.996   4.407   2.118
72198SOL    HW118368  11.905   4.420   2.092
72198SOL    HW218369  12.046   4.421   2.038
72199SOL     OW18370   9.965   0.845  11.594
72199SOL    HW118371   9.966   0.916  11.658
72199SOL    HW218372   9.952   0.766  11.645
72200SOL     OW18373   2.247   1.391   0.015
72200SOL    HW118374   2.196   1.364   0.092
72200SOL    HW218375   2.338   1.380   0.042
72201SOL     OW18376   6.362   6.959   8.912
72201SOL    HW118377   6.272   6.989   8.920
72201SOL    HW218378   6.380   6.960   8.818
72202SOL     OW18379  14.419   3.323   1.462
72202SOL    HW118380  14.374   3.402   1.431
72202SOL    HW218381  14.458   3.285   1.384
72203SOL     OW18382   6.038   0.932   0.643
72203SOL    HW118383   6.085   0.947   0.561
72203SOL    HW218384   5.955   0.893   0.617
72204SOL     OW18385   9.608   5.049   8.632
72204SOL    HW118386   9.650   4.971   8.597
72204SOL    HW218387   9.667   5.121   8.610
72205SOL     OW18388   1.377  14.443  11.054
72205SOL    HW118389   1.469  14.423  11.040
72205SOL    HW218390   1.377  14.526  11.101
72206SOL     OW18391   1.143  11.627  13.375
72206SOL    HW118392   1.064  11.648  13.426
72206SOL    HW218393   1.204  11.590  13.438
72207SOL     OW18394   2.047   3.914   1.542
72207SOL    HW118395   2.107   3.979   1.580
72207SOL    HW218396   1.960   3.952   1.554
72208SOL     OW18397   5.620   4.172   2.085
72208SOL    HW118398   5.602   4.255   2.040
72208SOL    HW218399   5.702   4.142   2.047
72209SOL     OW18400   1.163  12.686   9.866
72209SOL    HW118401   1.146  12.766   9.917
72209SOL    HW218402   1.082  12.670   9.818
72210SOL     OW18403   7.597  13.225   2.102
72210SOL    HW118404   7.507  13.248   2.081
72210SOL    HW218405   7.611  13.262   2.190
72211SOL     OW18406   4.913   6.290   2.646
72211SOL    HW118407   4.944   6.381   2.640
72211SOL    HW218408   4.820   6.295   2.626
72212SOL     OW18409  13.174   3.579   0.314
72212SOL    HW118410  13.096   3.635   0.317
72212SOL    HW218411  13.221   3.600   0.395
72213SOL     OW18412   5.639   0.463   6.361
72213SOL    HW118413   5.694   0.539   6.340
72213SOL    HW218414   5.686   0.416   6.429
72214SOL     OW18415   9.030   1.291  13.286
72214SOL    HW118416   9.062   1.367  13.238
72214SOL    HW218417   9.024   1.222  13.220
72215SOL     OW18418   2.587   9.641  11.285
72215SOL    HW118419   2.576   9.720  11.338
72215SOL    HW218420   2.674   9.608  11.309
72216SOL     OW18421   9.303  12.427   1.045
72216SOL    HW118422   9.234  12.413   1.109
72216SOL    HW218423   9.258  12.465   0.969
72217SOL     OW18424   8.743  10.259   9.121
72217SOL    HW118425   8.831  10.283   9.092
72217SOL    HW218426   8.723  10.322   9.191
72218SOL     OW18427  10.920   8.452   1.196
72218SOL    HW118428  10.857   8.463   1.125
72218SOL    HW218429  10.883   8.383   1.250
72219SOL     OW18430  11.058   5.409   2.120
72219SOL    HW118431  11.148   5.376   2.129
72219SOL    HW218432  11.008   5.332   2.092
72220SOL     OW18433   7.193  10.150   7.818
72220SOL    HW118434   7.100  10.167   7.802
72220SOL    HW218435   7.211  10.067   7.774
72221SOL     OW18436   2.101   2.997   9.087
72221SOL    HW118437   2.018   2.980   9.043
72221SOL    HW218438   2.121   3.088   9.066
72222SOL     OW18439   5.260  12.078  12.887
72222SOL    HW118440   5.235  11.998  12.840
72222SOL    HW218441   5.222  12.067  12.974
72223SOL     OW18442   6.247   9.627   3.201
72223SOL    HW118443   6.303   9.694   3.161
72223SOL    HW218444   6.196   9.675   3.266
72224SOL     OW18445  11.093   4.809  12.784
72224SOL    HW118446  11.060   4.745  12.720
72224SOL    HW218447  11.022   4.873  12.793
72225SOL     OW18448   7.376   0.621   9.906
72225SOL    HW118449   7.400   0.714   9.912
72225SOL    HW218450   7.361   0.594   9.996
72226SOL     OW18451   9.682  10.297   2.886
72226SOL    HW118452   9.647  10.354   2.817
72226SOL    HW218453   9.662  10.208   2.856
72227SOL     OW18454  14.661  10.711  11.314
72227SOL    HW118455  14.605  10.707  11.237
72227SOL    HW218456  14.615  10.770  11.374
72228SOL     OW18457   2.852  10.627  10.305
72228SOL    HW118458   2.872  10.585  10.221
72228SOL    HW218459   2.758  10.644  10.302
72229SOL     OW18460   1.141   6.928   0.646
72229SOL    HW118461   1.168   6.854   0.701
72229SOL    HW218462   1.104   6.991   0.708
72230SOL     OW18463   9.030   0.116   6.718
72230SOL    HW118464   9.005   0.202   6.685
72230SOL    HW218465   9.031   0.126   6.814
72231SOL     OW18466   8.128  13.959   4.728
72231SOL    HW118467   8.085  13.895   4.670
72231SOL    HW218468   8.126  13.918   4.814
72232SOL     OW18469  13.463  12.206   8.845
72232SOL    HW118470  13.466  12.297   8.815
72232SOL    HW218471  13.515  12.157   8.782
72233SOL     OW18472   7.327   8.191   2.516
72233SOL    HW118473   7.256   8.251   2.537
72233SOL    HW218474   7.358   8.158   2.600
72234SOL     OW18475   9.133   2.215  13.238
72234SOL    HW118476   9.173   2.128  13.245
72234SOL    HW218477   9.049   2.199  13.195
72235SOL     OW18478  10.645   9.439  11.192
72235SOL    HW118479  10.590   9.362  11.210
72235SOL    HW218480  10.731   9.402  11.172
72236SOL     OW18481  12.885   0.417  10.651
72236SOL    HW118482  12.944   0.487  10.676
72236SOL    HW218483  12.825   0.456  10.588
72237SOL     OW18484   7.555   1.984  12.079
72237SOL    HW118485   7.560   2.079  12.077
72237SOL    HW218486   7.585   1.960  12.167
72238SOL     OW18487   0.635   8.202   7.284
72238SOL    HW118488   0.552   8.159   7.261
72238SOL    HW218489   0.612   8.295   7.292
72239SOL     OW18490   2.350   3.226   2.720
72239SOL    HW118491   2.436   3.233   2.760
72239SOL    HW218492   2.357   3.278   2.640
72240SOL     OW18493   8.976   5.950   8.643
72240SOL    HW118494   8.937   5.869   8.676
72240SOL    HW218495   8.901   6.009   8.633
72241SOL     OW18496   2.555  13.833  12.686
72241SOL    HW118497   2.573  13.853  12.594
72241SOL    HW218498   2.558  13.737  12.691
72242SOL     OW18499   5.037   3.069  12.815
72242SOL    HW118500   4.950   3.051  12.850
72242SOL    HW218501   5.022   3.083  12.721
72243SOL     OW18502   9.161   9.833  12.410
72243SOL    HW118503   9.153   9.779  12.489
72243SOL    HW218504   9.077   9.823  12.365
72244SOL     OW18505  10.180  12.101   9.355
72244SOL    HW118506  10.161  12.067   9.268
72244SOL    HW218507  10.208  12.192   9.339
72245SOL     OW18508   1.786   5.418  14.396
72245SOL    HW118509   1.810   5.475  14.323
72245SOL    HW218510   1.760   5.335  14.355
72246SOL     OW18511   1.224  10.562   9.363
72246SOL    HW118512   1.296  10.548   9.425
72246SOL    HW218513   1.165  10.621   9.408
72247SOL     OW18514  11.426   6.497   6.327
72247SOL    HW118515  11.360   6.451   6.276
72247SOL    HW218516  11.431   6.448   6.409
72248SOL     OW18517  14.057   7.639   0.986
72248SOL    HW118518  14.062   7.621   0.892
72248SOL    HW218519  14.010   7.722   0.991
72249SOL     OW18520   8.060   8.648   0.130
72249SOL    HW118521   8.056   8.651   0.225
72249SOL    HW218522   8.019   8.729   0.101
72250SOL     OW18523   4.123   4.914   4.061
72250SOL    HW118524   4.105   4.886   4.151
72250SOL    HW218525   4.145   5.007   4.069
72251SOL     OW18526   4.316  14.842   9.007
72251SOL    HW118527   4.359  14.759   8.986
72251SOL    HW218528   4.327  14.852   9.101
72252SOL     OW18529   3.602   4.072  11.993
72252SOL    HW118530   3.532   4.130  11.961
72252SOL    HW218531   3.607   4.090  12.087
72253SOL     OW18532  14.378   3.614   0.217
72253SOL    HW118533  14.340   3.593   0.303
72253SOL    HW218534  14.333   3.694   0.190
72254SOL     OW18535   8.072   4.105   3.046
72254SOL    HW118536   8.014   4.040   3.083
72254SOL    HW218537   8.134   4.124   3.117
72255SOL     OW18538  13.608   3.719  10.107
72255SOL    HW118539  13.672   3.658  10.071
72255SOL    HW218540  13.589   3.685  10.194
72256SOL     OW18541  13.428   4.317   9.558
72256SOL    HW118542  13.512   4.284   9.525
72256SOL    HW218543  13.448   4.352   9.645
72257SOL     OW18544   5.884  10.831   8.005
72257SOL    HW118545   5.886  10.736   7.999
72257SOL    HW218546   5.861  10.860   7.917
72258SOL     OW18547   0.586  10.288  11.283
72258SOL    HW118548   0.624  10.360  11.334
72258SOL    HW218549   0.643  10.280  11.207
72259SOL     OW18550   2.459  10.963   0.101
72259SOL    HW118551   2.529  10.919   0.150
72259SOL    HW218552   2.501  11.041   0.065
72260SOL     OW18553   9.999  10.055   7.933
72260SOL    HW118554   9.921  10.003   7.916
72260SOL    HW218555  10.066  10.017   7.876
72261SOL     OW18556   9.370   4.645  13.126
72261SOL    HW118557   9.387   4.707  13.196
72261SOL    HW218558   9.375   4.559  13.167
72262SOL     OW18559   4.168   0.372   5.701
72262SOL    HW118560   4.204   0.345   5.616
72262SOL    HW218561   4.138   0.291   5.742
72263SOL     OW18562   0.151   1.972   1.297
72263SOL    HW118563   0.204   1.977   1.218
72263SOL    HW218564   0.062   1.957   1.266
72264SOL     OW18565  12.307   7.987  11.061
72264SOL    HW118566  12.331   7.988  11.153
72264SOL    HW218567  12.308   7.894  11.037
72265SOL     OW18568  11.584   6.782   2.931
72265SOL    HW118569  11.578   6.876   2.947
72265SOL    HW218570  11.516   6.744   2.986
72266SOL     OW18571   3.123   4.457   5.290
72266SOL    HW118572   3.123   4.547   5.322
72266SOL    HW218573   3.197   4.415   5.334
72267SOL     OW18574  14.536   4.773  12.690
72267SOL    HW118575  14.556   4.751  12.782
72267SOL    HW218576  14.478   4.848  12.695
72268SOL     OW18577   4.557   7.990   3.441
72268SOL    HW118578   4.608   8.051   3.388
72268SOL    HW218579   4.618   7.960   3.509
72269SOL     OW18580   4.125  13.848   1.966
72269SOL    HW118581   4.114  13.891   1.881
72269SOL    HW218582   4.164  13.763   1.946
72270SOL     OW18583   8.113  10.385   4.385
72270SOL    HW118584   8.033  10.334   4.396
72270SOL    HW218585   8.156  10.380   4.471
72271SOL     OW18586   7.231   8.838   4.080
72271SOL    HW118587   7.159   8.886   4.040
72271SOL    HW218588   7.253   8.890   4.158
72272SOL     OW18589  12.464   6.494  12.231
72272SOL    HW118590  12.501   6.409  12.257
72272SOL    HW218591  12.471   6.494  12.136
72273SOL     OW18592   3.556   7.690  11.913
72273SOL    HW118593   3.616   7.737  11.971
72273SOL    HW218594   3.608   7.671  11.835
72274SOL     OW18595  13.449   7.387   9.679
72274SOL    HW118596  13.542   7.406   9.677
72274SOL    HW218597  13.444   7.293   9.699
72275SOL     OW18598   4.177  14.421   6.956
72275SOL    HW118599   4.116  14.354   6.985
72275SOL    HW218600   4.254  14.409   7.011
72276SOL     OW18601   7.084   2.196   4.032
72276SOL    HW118602   6.999   2.225   3.998
72276SOL    HW218603   7.096   2.248   4.112
72277SOL     OW18604   2.241   7.566  14.517
72277SOL    HW118605   2.206   7.629  14.453
72277SOL    HW218606   2.277   7.495  14.463
72278SOL     OW18607  11.585  10.039   5.463
72278SOL    HW118608  11.519   9.974   5.440
72278SOL    HW218609  11.622  10.067   5.380
72279SOL     OW18610   2.937   9.976   1.182
72279SOL    HW118611   2.869   9.936   1.237
72279SOL    HW218612   3.015   9.923   1.197
72280SOL     OW18613   3.647   8.923   1.918
72280SOL    HW118614   3.643   9.003   1.972
72280SOL    HW218615   3.697   8.861   1.971
72281SOL     OW18616   7.270   6.703  13.951
72281SOL    HW118617   7.252   6.610  13.965
72281SOL    HW218618   7.299   6.708  13.860
72282SOL     OW18619   7.391   0.287  13.309
72282SOL    HW118620   7.310   0.270  13.260
72282SOL    HW218621   7.378   0.242  13.393
72283SOL     OW18622   8.770   5.815   8.990
72283SOL    HW118623   8.865   5.831   8.990
72283SOL    HW218624   8.738   5.862   9.067
72284SOL     OW18625   9.979   8.431  13.647
72284SOL    HW118626   9.923   8.413  13.723
72284SOL    HW218627  10.023   8.348  13.630
72285SOL     OW18628  11.036   1.577   8.556
72285SOL    HW118629  11.103   1.630   8.513
72285SOL    HW218630  11.001   1.521   8.486
72286SOL     OW18631   0.028   0.447   4.986
72286SOL    HW118632  14.825   0.403   4.994
72286SOL    HW218633   0.050   0.441   4.893
72287SOL     OW18634   7.635   2.346   3.572
72287SOL    HW118635   7.618   2.420   3.514
72287SOL    HW218636   7.556   2.293   3.567
72288SOL     OW18637   6.590   7.051   0.898
72288SOL    HW118638   6.583   7.121   0.833
72288SOL    HW218639   6.684   7.038   0.909
72289SOL     OW18640  13.344   8.256   5.869
72289SOL    HW118641  13.325   8.264   5.962
72289SOL    HW218642  13.335   8.162   5.851
72290SOL     OW18643   0.296   4.342   9.900
72290SOL    HW118644   0.381   4.384   9.909
72290SOL    HW218645   0.273   4.355   9.808
72291SOL     OW18646   3.579  11.368  11.023
72291SOL    HW118647   3.572  11.369  11.118
72291SOL    HW218648   3.662  11.413  11.004
72292SOL     OW18649   5.393  12.133   7.234
72292SOL    HW118650   5.372  12.040   7.236
72292SOL    HW218651   5.347  12.170   7.310
72293SOL     OW18652   9.606   6.581   7.095
72293SOL    HW118653   9.648   6.524   7.160
72293SOL    HW218654   9.670   6.650   7.079
72294SOL     OW18655  13.291  14.179  11.855
72294SOL    HW118656  13.289  14.271  11.881
72294SOL    HW218657  13.309  14.131  11.935
72295SOL     OW18658   7.006  13.787   6.349
72295SOL    HW118659   6.980  13.695   6.345
72295SOL    HW218660   6.962  13.828   6.275
72296SOL     OW18661  13.521   3.948  10.762
72296SOL    HW118662  13.552   3.955  10.852
72296SOL    HW218663  13.451   3.882  10.766
72297SOL     OW18664   8.801   6.391  14.006
72297SOL    HW118665   8.779   6.298  14.010
72297SOL    HW218666   8.755   6.429  14.081
72298SOL     OW18667   2.832  10.603   7.413
72298SOL    HW118668   2.917  10.563   7.428
72298SOL    HW218669   2.845  10.660   7.338
72299SOL     OW18670   7.938  10.482   0.369
72299SOL    HW118671   7.863  10.423   0.365
72299SOL    HW218672   8.011  10.428   0.398
72300SOL     OW18673  14.764  13.213   9.629
72300SOL    HW118674  14.671  13.192   9.627
72300SOL    HW218675  14.768  13.308   9.636
72301SOL     OW18676   3.312   9.833   7.079
72301SOL    HW118677   3.400   9.819   7.114
72301SOL    HW218678   3.321   9.910   7.023
72302SOL     OW18679   4.807   4.297   4.182
72302SOL    HW118680   4.720   4.306   4.220
72302SOL    HW218681   4.797   4.233   4.112
72303SOL     OW18682  10.719   5.980   0.444
72303SOL    HW118683  10.647   6.009   0.501
72303SOL    HW218684  10.796   6.023   0.481
72304SOL     OW18685  10.462   7.551   0.344
72304SOL    HW118686  10.376   7.535   0.383
72304SOL    HW218687  10.524   7.508   0.403
72305SOL     OW18688   7.772  12.034  10.143
72305SOL    HW118689   7.833  12.063  10.075
72305SOL    HW218690   7.828  12.014  10.218
72306SOL     OW18691   6.231  12.252  12.477
72306SOL    HW118692   6.294  12.235  12.407
72306SOL    HW218693   6.237  12.346  12.493
72307SOL     OW18694  11.540   9.846   0.949
72307SOL    HW118695  11.611   9.910   0.951
72307SOL    HW218696  11.465   9.894   0.914
72308SOL     OW18697   9.536   4.731  13.779
72308SOL    HW118698   9.497   4.803  13.729
72308SOL    HW218699   9.504   4.744  13.869
72309SOL     OW18700  10.497   7.831   2.685
72309SOL    HW118701  10.479   7.741   2.715
72309SOL    HW218702  10.589   7.829   2.659
72310SOL     OW18703   8.162   0.701   5.236
72310SOL    HW118704   8.108   0.771   5.200
72310SOL    HW218705   8.222   0.678   5.165
72311SOL     OW18706   2.092   1.746  14.282
72311SOL    HW118707   2.001   1.716  14.277
72311SOL    HW218708   2.102   1.804  14.207
72312SOL     OW18709   8.354   3.746   0.965
72312SOL    HW118710   8.309   3.666   0.992
72312SOL    HW218711   8.447   3.722   0.965
72313SOL     OW18712   6.043  11.012   0.941
72313SOL    HW118713   6.084  10.963   0.870
72313SOL    HW218714   6.108  11.010   1.012
72314SOL     OW18715  13.147  10.513   8.870
72314SOL    HW118716  13.075  10.575   8.855
72314SOL    HW218717  13.110  10.428   8.846
72315SOL     OW18718  14.113  14.492  14.443
72315SOL    HW118719  14.147  14.439  14.515
72315SOL    HW218720  14.049  14.436  14.399
72316SOL     OW18721   2.760   6.031   4.523
72316SOL    HW118722   2.776   6.056   4.614
72316SOL    HW218723   2.847   6.010   4.488
72317SOL     OW18724   7.770   0.698   4.280
72317SOL    HW118725   7.781   0.792   4.288
72317SOL    HW218726   7.784   0.680   4.187
72318SOL     OW18727   5.372   6.024   1.448
72318SOL    HW118728   5.413   6.091   1.393
72318SOL    HW218729   5.286   6.060   1.470
72319SOL     OW18730   6.765  12.290   0.991
72319SOL    HW118731   6.855  12.319   0.981
72319SOL    HW218732   6.732  12.337   1.068
72320SOL     OW18733  13.297   4.291  10.311
72320SOL    HW118734  13.333   4.337  10.387
72320SOL    HW218735  13.340   4.330  10.236
72321SOL     OW18736  14.495   6.907   6.689
72321SOL    HW118737  14.502   6.887   6.782
72321SOL    HW218738  14.403   6.928   6.676
72322SOL     OW18739   6.399   3.978   5.705
72322SOL    HW118740   6.343   4.051   5.680
72322SOL    HW218741   6.452   4.012   5.777
72323SOL     OW18742  14.496   2.397  12.833
72323SOL    HW118743  14.477   2.375  12.742
72323SOL    HW218744  14.591   2.387  12.841
72324SOL     OW18745  14.253   9.369   7.118
72324SOL    HW118746  14.217   9.453   7.088
72324SOL    HW218747  14.299   9.391   7.199
72325SOL     OW18748   1.353   9.308   0.508
72325SOL    HW118749   1.410   9.384   0.521
72325SOL    HW218750   1.393   9.239   0.560
72326SOL     OW18751   3.690   5.823   9.258
72326SOL    HW118752   3.599   5.809   9.233
72326SOL    HW218753   3.741   5.776   9.191
72327SOL     OW18754  13.392   1.099   1.332
72327SOL    HW118755  13.347   1.114   1.415
72327SOL    HW218756  13.357   1.015   1.301
72328SOL     OW18757   9.716   2.228   1.137
72328SOL    HW118758   9.656   2.164   1.098
72328SOL    HW218759   9.795   2.177   1.159
72329SOL     OW18760   4.181  10.147   4.570
72329SOL    HW118761   4.211  10.099   4.647
72329SOL    HW218762   4.219  10.100   4.495
72330SOL     OW18763   3.502   0.356  10.284
72330SOL    HW118764   3.495   0.298  10.209
72330SOL    HW218765   3.510   0.298  10.359
72331SOL     OW18766   8.792  13.389   9.280
72331SOL    HW118767   8.828  13.380   9.192
72331SOL    HW218768   8.781  13.299   9.311
72332SOL     OW18769  14.617  11.691  11.035
72332SOL    HW118770  14.684  11.700  10.966
72332SOL    HW218771  14.542  11.654  10.989
72333SOL     OW18772   0.458  11.463   3.225
72333SOL    HW118773   0.393  11.395   3.205
72333SOL    HW218774   0.406  11.541   3.245
72334SOL     OW18775  13.994  14.669   1.416
72334SOL    HW118776  13.971  14.692   1.506
72334SOL    HW218777  14.000  14.573   1.417
72335SOL     OW18778  13.038   2.594   7.198
72335SOL    HW118779  13.014   2.583   7.291
72335SOL    HW218780  13.011   2.512   7.157
72336SOL     OW18781   6.952  10.583   6.303
72336SOL    HW118782   6.985  10.533   6.377
72336SOL    HW218783   6.859  10.560   6.297
72337SOL     OW18784   1.702   1.527   8.329
72337SOL    HW118785   1.674   1.541   8.238
72337SOL    HW218786   1.750   1.606   8.351
72338SOL     OW18787  13.434   3.250   1.748
72338SOL    HW118788  13.367   3.316   1.768
72338SOL    HW218789  13.409   3.216   1.662
72339SOL     OW18790   5.071  12.066   5.869
72339SOL    HW118791   5.150  12.062   5.922
72339SOL    HW218792   5.094  12.121   5.794
72340SOL     OW18793  13.839   9.629  12.544
72340SOL    HW118794  13.854   9.715  12.585
72340SOL    HW218795  13.747   9.631  12.520
72341SOL     OW18796   5.252  12.676   5.884
72341SOL    HW118797   5.206  12.594   5.866
72341SOL    HW218798   5.198  12.743   5.843
72342SOL     OW18799   4.839   3.339   8.298
72342SOL    HW118800   4.819   3.359   8.206
72342SOL    HW218801   4.854   3.425   8.338
72343SOL     OW18802   7.028  11.470   7.088
72343SOL    HW118803   7.082  11.473   7.167
72343SOL    HW218804   7.075  11.523   7.024
72344SOL     OW18805   0.320  10.299   9.789
72344SOL    HW118806   0.253  10.355   9.829
72344SOL    HW218807   0.293  10.210   9.810
72345SOL     OW18808  10.146  11.828   0.461
72345SOL    HW118809  10.110  11.801   0.546
72345SOL    HW218810  10.209  11.897   0.483
72346SOL     OW18811   6.097  12.939   0.227
72346SOL    HW118812   6.083  13.027   0.194
72346SOL    HW218813   6.081  12.946   0.322
72347SOL     OW18814   3.085   4.805   3.883
72347SOL    HW118815   3.153   4.864   3.851
72347SOL    HW218816   3.008   4.825   3.829
72348SOL     OW18817  11.713  10.911   4.586
72348SOL    HW118818  11.647  10.890   4.652
72348SOL    HW218819  11.723  11.006   4.592
72349SOL     OW18820   5.525   0.251   7.125
72349SOL    HW118821   5.511   0.178   7.184
72349SOL    HW218822   5.606   0.292   7.156
72350SOL     OW18823   1.002   8.890  14.440
72350SOL    HW118824   1.053   8.951  14.387
72350SOL    HW218825   0.976   8.821  14.378
72351SOL     OW18826  12.631  12.099   4.385
72351SOL    HW118827  12.586  12.022   4.419
72351SOL    HW218828  12.724  12.077   4.387
72352SOL     OW18829   5.251   8.242  10.587
72352SOL    HW118830   5.214   8.293  10.659
72352SOL    HW218831   5.231   8.151  10.609
72353SOL     OW18832   2.315   3.708  13.392
72353SOL    HW118833   2.253   3.776  13.368
72353SOL    HW218834   2.359   3.742  13.470
72354SOL     OW18835   1.162   4.989   0.552
72354SOL    HW118836   1.177   5.042   0.474
72354SOL    HW218837   1.165   5.051   0.625
72355SOL     OW18838   7.637   8.207   3.411
72355SOL    HW118839   7.709   8.219   3.350
72355SOL    HW218840   7.644   8.282   3.471
72356SOL     OW18841  11.255   4.620   3.687
72356SOL    HW118842  11.343   4.651   3.664
72356SOL    HW218843  11.270   4.537   3.733
72357SOL     OW18844  13.140   9.322   7.824
72357SOL    HW118845  13.067   9.298   7.881
72357SOL    HW218846  13.101   9.325   7.736
72358SOL     OW18847   2.247   2.150   7.363
72358SOL    HW118848   2.287   2.235   7.381
72358SOL    HW218849   2.253   2.141   7.267
72359SOL     OW18850  14.162  11.756   5.724
72359SOL    HW118851  14.124  11.750   5.636
72359SOL    HW218852  14.106  11.818   5.770
72360SOL     OW18853   6.108   0.642   1.345
72360SOL    HW118854   6.076   0.578   1.410
72360SOL    HW218855   6.029   0.686   1.315
72361SOL     OW18856  10.992  10.032   6.592
72361SOL    HW118857  10.980   9.952   6.541
72361SOL    HW218858  10.908  10.077   6.586
72362SOL     OW18859   4.018   8.090  12.331
72362SOL    HW118860   3.954   8.160  12.345
72362SOL    HW218861   4.089   8.132  12.282
72363SOL     OW18862   5.954   1.794  11.086
72363SOL    HW118863   6.029   1.781  11.145
72363SOL    HW218864   5.934   1.707  11.052
72364SOL     OW18865   9.481   6.317  13.289
72364SOL    HW118866   9.519   6.389  13.239
72364SOL    HW218867   9.555   6.282  13.339
72365SOL     OW18868  13.046   3.991   4.889
72365SOL    HW118869  12.953   4.001   4.909
72365SOL    HW218870  13.054   3.900   4.861
72366SOL     OW18871   2.653   3.482   8.378
72366SOL    HW118872   2.581   3.429   8.342
72366SOL    HW218873   2.615   3.570   8.386
72367SOL     OW18874   2.872  14.871   6.299
72367SOL    HW118875   2.930  14.841   6.369
72367SOL    HW218876   2.840  14.791   6.258
72368SOL     OW18877  10.033   0.193   5.596
72368SOL    HW118878  10.006   0.226   5.510
72368SOL    HW218879   9.951   0.167   5.638
72369SOL     OW18880   6.317   5.734   3.795
72369SOL    HW118881   6.228   5.768   3.806
72369SOL    HW218882   6.353   5.732   3.884
72370SOL     OW18883  10.254  14.083   0.494
72370SOL    HW118884  10.291  14.165   0.460
72370SOL    HW218885  10.256  14.023   0.419
72371SOL     OW18886   9.270   3.197  12.418
72371SOL    HW118887   9.176   3.193  12.402
72371SOL    HW218888   9.279   3.212  12.512
72372SOL     OW18889  11.204  11.367  14.825
72372SOL    HW118890  11.123  11.409  14.855
72372SOL    HW218891  11.178  11.320  14.746
72373SOL     OW18892   8.898  10.220   3.264
72373SOL    HW118893   8.993  10.222   3.250
72373SOL    HW218894   8.877  10.127   3.270
72374SOL     OW18895   1.992   6.960   7.476
72374SOL    HW118896   2.043   6.936   7.399
72374SOL    HW218897   1.964   7.050   7.460
72375SOL     OW18898  11.952  10.846   9.355
72375SOL    HW118899  12.038  10.807   9.337
72375SOL    HW218900  11.903  10.775   9.397
72376SOL     OW18901   2.232  11.149   0.096
72376SOL    HW118902   2.267  11.238   0.094
72376SOL    HW218903   2.306  11.095   0.126
72377SOL     OW18904  14.144  14.341  12.501
72377SOL    HW118905  14.228  14.295  12.499
72377SOL    HW218906  14.097  14.301  12.574
72378SOL     OW18907   7.972   1.847   7.988
72378SOL    HW118908   7.972   1.786   8.062
72378SOL    HW218909   8.045   1.906   8.005
72379SOL     OW18910   1.367   1.179  13.047
72379SOL    HW118911   1.415   1.146  13.123
72379SOL    HW218912   1.403   1.130  12.973
72380SOL     OW18913   2.898   2.980   1.775
72380SOL    HW118914   2.867   2.924   1.847
72380SOL    HW218915   2.884   3.069   1.807
72381SOL     OW18916  11.104   6.091  11.354
72381SOL    HW118917  11.188   6.046  11.349
72381SOL    HW218918  11.060   6.067  11.272
72382SOL     OW18919   5.577   2.417  13.652
72382SOL    HW118920   5.642   2.464  13.704
72382SOL    HW218921   5.602   2.432  13.561
72383SOL     OW18922   6.853   1.179   0.546
72383SOL    HW118923   6.843   1.197   0.640
72383SOL    HW218924   6.767   1.201   0.508
72384SOL     OW18925   5.812   9.542  10.227
72384SOL    HW118926   5.816   9.635  10.207
72384SOL    HW218927   5.746   9.536  10.297
72385SOL     OW18928  12.292  11.895  14.635
72385SOL    HW118929  12.232  11.922  14.705
72385SOL    HW218930  12.361  11.961  14.637
72386SOL     OW18931  11.565  13.899   0.413
72386SOL    HW118932  11.563  13.823   0.471
72386SOL    HW218933  11.624  13.874   0.342
72387SOL     OW18934   6.204   4.661   7.755
72387SOL    HW118935   6.152   4.583   7.774
72387SOL    HW218936   6.168   4.695   7.673
72388SOL     OW18937   3.892  10.084   1.055
72388SOL    HW118938   3.925   9.999   1.085
72388SOL    HW218939   3.840  10.063   0.978
72389SOL     OW18940  11.378   8.087  12.018
72389SOL    HW118941  11.455   8.097  11.962
72389SOL    HW218942  11.415   8.073  12.106
72390SOL     OW18943   4.051   6.067  12.744
72390SOL    HW118944   4.065   6.054  12.651
72390SOL    HW218945   4.122   6.018  12.786
72391SOL     OW18946   5.813   9.005  14.159
72391SOL    HW118947   5.834   8.932  14.101
72391SOL    HW218948   5.845   8.978  14.245
72392SOL     OW18949   5.605   1.752  14.235
72392SOL    HW118950   5.637   1.834  14.197
72392SOL    HW218951   5.638   1.753  14.325
72393SOL     OW18952   3.480   9.760  12.341
72393SOL    HW118953   3.391   9.784  12.368
72393SOL    HW218954   3.496   9.676  12.384
72394SOL     OW18955   4.410   8.957   4.495
72394SOL    HW118956   4.450   8.960   4.408
72394SOL    HW218957   4.357   9.037   4.499
72395SOL     OW18958   9.071  13.067   7.454
72395SOL    HW118959   9.032  13.109   7.378
72395SOL    HW218960   9.141  13.127   7.482
72396SOL     OW18961   4.222  10.926  14.027
72396SOL    HW118962   4.162  10.928  13.952
72396SOL    HW218963   4.263  10.840  14.022
72397SOL     OW18964   2.153   2.141   2.863
72397SOL    HW118965   2.114   2.089   2.793
72397SOL    HW218966   2.078   2.179   2.910
72398SOL     OW18967   7.295  10.209  12.647
72398SOL    HW118968   7.242  10.135  12.616
72398SOL    HW218969   7.247  10.286  12.615
72399SOL     OW18970   7.426  10.660   1.444
72399SOL    HW118971   7.379  10.581   1.417
72399SOL    HW218972   7.413  10.721   1.372
72400SOL     OW18973   0.717   8.367   4.933
72400SOL    HW118974   0.791   8.330   4.885
72400SOL    HW218975   0.642   8.354   4.876
72401SOL     OW18976   8.296   6.224   6.177
72401SOL    HW118977   8.246   6.300   6.208
72401SOL    HW218978   8.246   6.191   6.103
72402SOL     OW18979  10.049   4.066   9.652
72402SOL    HW118980  10.117   4.129   9.674
72402SOL    HW218981  10.088   3.981   9.669
72403SOL     OW18982   6.993   4.985  11.289
72403SOL    HW118983   6.940   4.909  11.312
72403SOL    HW218984   7.083   4.956  11.302
72404SOL     OW18985   1.782   1.112   6.938
72404SOL    HW118986   1.740   1.033   6.903
72404SOL    HW218987   1.709   1.170   6.961
72405SOL     OW18988  12.462  10.892  11.928
72405SOL    HW118989  12.485  10.983  11.909
72405SOL    HW218990  12.501  10.841  11.857
72406SOL     OW18991  13.659  14.128   6.580
72406SOL    HW118992  13.747  14.166   6.583
72406SOL    HW218993  13.673  14.034   6.590
72407SOL     OW18994   3.153   3.141   1.986
72407SOL    HW118995   3.171   3.234   1.975
72407SOL    HW218996   3.196   3.118   2.069
72408SOL     OW18997  13.218   2.930   4.218
72408SOL    HW118998  13.193   3.019   4.194
72408SOL    HW218999  13.289   2.941   4.281
72409SOL     OW19000   0.344   3.500  14.513
72409SOL    HW119001   0.328   3.595  14.511
72409SOL    HW219002   0.422   3.488  14.459
72410SOL     OW19003   4.701   3.600   8.563
72410SOL    HW119004   4.638   3.672   8.569
72410SOL    HW219005   4.655   3.524   8.598
72411SOL     OW19006   4.569  13.761  14.564
72411SOL    HW119007   4.565  13.668  14.540
72411SOL    HW219008   4.649  13.793  14.522
72412SOL     OW19009  11.814   0.973   7.919
72412SOL    HW119010  11.766   1.028   7.857
72412SOL    HW219011  11.783   0.884   7.902
72413SOL     OW19012   7.139   3.384   2.082
72413SOL    HW119013   7.213   3.421   2.131
72413SOL    HW219014   7.174   3.368   1.994
72414SOL     OW19015   7.915  14.002  12.816
72414SOL    HW119016   7.835  14.019  12.866
72414SOL    HW219017   7.895  14.035  12.728
72415SOL     OW19018  14.128  13.306  10.048
72415SOL    HW119019  14.187  13.367  10.093
72415SOL    HW219020  14.172  13.286   9.965
72416SOL     OW19021   5.281   7.148   4.226
72416SOL    HW119022   5.280   7.190   4.313
72416SOL    HW219023   5.372   7.155   4.198
72417SOL     OW19024  14.119  10.902   9.892
72417SOL    HW119025  14.092  10.849   9.967
72417SOL    HW219026  14.138  10.989   9.929
72418SOL     OW19027  12.302  11.710   6.660
72418SOL    HW119028  12.298  11.704   6.755
72418SOL    HW219029  12.273  11.625   6.629
72419SOL     OW19030   4.650   6.866   1.855
72419SOL    HW119031   4.739   6.875   1.820
72419SOL    HW219032   4.643   6.774   1.881
72420SOL     OW19033  14.692  12.629  12.518
72420SOL    HW119034  14.643  12.698  12.564
72420SOL    HW219035  14.753  12.596  12.584
72421SOL     OW19036   7.051   5.227   0.002
72421SOL    HW119037   7.083   5.315  14.862
72421SOL    HW219038   7.033   5.230   0.096
72422SOL     OW19039  10.307   8.479   3.854
72422SOL    HW119040  10.242   8.412   3.835
72422SOL    HW219041  10.288   8.549   3.792
72423SOL     OW19042   3.104   6.501   8.422
72423SOL    HW119043   3.088   6.420   8.469
72423SOL    HW219044   3.017   6.539   8.410
72424SOL     OW19045  14.858  10.842  14.437
72424SOL    HW119046  14.769  10.808  14.423
72424SOL    HW219047   0.032  10.785  14.384
72425SOL     OW19048   1.356  14.638   7.228
72425SOL    HW119049   1.401  14.642   7.313
72425SOL    HW219050   1.334  14.729   7.209
72426SOL     OW19051   8.817  10.620  12.592
72426SOL    HW119052   8.856  10.577  12.516
72426SOL    HW219053   8.766  10.551  12.635
72427SOL     OW19054   7.975   4.540   3.194
72427SOL    HW119055   7.882   4.526   3.214
72427SOL    HW219056   8.008   4.592   3.267
72428SOL     OW19057   4.729  11.012  11.326
72428SOL    HW119058   4.642  11.001  11.365
72428SOL    HW219059   4.764  11.090  11.369
72429SOL     OW19060  12.055  12.263   4.783
72429SOL    HW119061  12.122  12.215   4.734
72429SOL    HW219062  12.098  12.288   4.865
72430SOL     OW19063  11.357   8.384   8.705
72430SOL    HW119064  11.402   8.442   8.766
72430SOL    HW219065  11.377   8.295   8.736
72431SOL     OW19066   8.928   4.061   3.226
72431SOL    HW119067   8.966   4.099   3.147
72431SOL    HW219068   8.849   4.112   3.242
72432SOL     OW19069   5.839   9.221   1.162
72432SOL    HW119070   5.857   9.134   1.128
72432SOL    HW219071   5.925   9.263   1.169
72433SOL     OW19072   0.839   7.948   8.571
72433SOL    HW119073   0.924   7.950   8.528
72433SOL    HW219074   0.834   7.861   8.611
72434SOL     OW19075   2.349   1.481   1.157
72434SOL    HW119076   2.326   1.418   1.089
72434SOL    HW219077   2.407   1.544   1.114
72435SOL     OW19078   6.587   7.945   5.693
72435SOL    HW119079   6.498   7.965   5.664
72435SOL    HW219080   6.576   7.871   5.753
72436SOL     OW19081   4.379  12.229   6.965
72436SOL    HW119082   4.325  12.172   7.020
72436SOL    HW219083   4.403  12.302   7.021
72437SOL     OW19084  11.800   7.118   8.921
72437SOL    HW119085  11.763   7.137   9.007
72437SOL    HW219086  11.848   7.036   8.933
72438SOL     OW19087  14.444  12.009   7.743
72438SOL    HW119088  14.361  11.981   7.703
72438SOL    HW219089  14.418  12.052   7.824
72439SOL     OW19090   6.266   8.705  12.709
72439SOL    HW119091   6.279   8.716  12.615
72439SOL    HW219092   6.203   8.774  12.732
72440SOL     OW19093   1.324   4.619  12.451
72440SOL    HW119094   1.301   4.674  12.526
72440SOL    HW219095   1.417   4.601  12.462
72441SOL     OW19096  14.284   7.388   6.437
72441SOL    HW119097  14.212   7.444   6.466
72441SOL    HW219098  14.258   7.358   6.349
72442SOL     OW19099   1.088   3.497   9.369
72442SOL    HW119100   1.110   3.511   9.461
72442SOL    HW219101   1.080   3.585   9.333
72443SOL     OW19102   0.562   4.383   2.428
72443SOL    HW119103   0.563   4.469   2.469
72443SOL    HW219104   0.491   4.336   2.472
72444SOL     OW19105   1.485   8.823  12.827
72444SOL    HW119106   1.395   8.806  12.802
72444SOL    HW219107   1.493   8.787  12.915
72445SOL     OW19108   9.726   4.144   1.555
72445SOL    HW119109   9.767   4.171   1.473
72445SOL    HW219110   9.787   4.080   1.592
72446SOL     OW19111   7.624   2.897   6.333
72446SOL    HW119112   7.575   2.974   6.306
72446SOL    HW219113   7.558   2.831   6.352
72447SOL     OW19114  10.983   5.975   9.061
72447SOL    HW119115  10.990   5.887   9.098
72447SOL    HW219116  10.969   5.960   8.967
72448SOL     OW19117  11.632  12.134   1.078
72448SOL    HW119118  11.557  12.102   1.129
72448SOL    HW219119  11.629  12.083   0.997
72449SOL     OW19120  11.197   3.320   2.817
72449SOL    HW119121  11.215   3.357   2.730
72449SOL    HW219122  11.132   3.251   2.801
72450SOL     OW19123  11.246   6.462   9.706
72450SOL    HW119124  11.255   6.379   9.660
72450SOL    HW219125  11.153   6.469   9.726
72451SOL     OW19126   5.383   1.952   4.351
72451SOL    HW119127   5.435   2.020   4.308
72451SOL    HW219128   5.447   1.886   4.378
72452SOL     OW19129   9.493  14.316  13.877
72452SOL    HW119130   9.414  14.268  13.849
72452SOL    HW219131   9.536  14.257  13.938
72453SOL     OW19132   1.759  10.046   3.525
72453SOL    HW119133   1.720   9.988   3.591
72453SOL    HW219134   1.684  10.092   3.488
72454SOL     OW19135  14.412   1.998   4.573
72454SOL    HW119136  14.497   2.010   4.616
72454SOL    HW219137  14.433   1.954   4.491
72455SOL     OW19138  11.214  14.054  12.886
72455SOL    HW119139  11.289  13.995  12.890
72455SOL    HW219140  11.246  14.136  12.922
72456SOL     OW19141  11.767  13.279   6.459
72456SOL    HW119142  11.776  13.184   6.449
72456SOL    HW219143  11.688  13.301   6.410
72457SOL     OW19144   9.068   3.393   9.162
72457SOL    HW119145   9.052   3.310   9.207
72457SOL    HW219146   8.981   3.424   9.136
72458SOL     OW19147  14.698   4.402   0.818
72458SOL    HW119148  14.770   4.391   0.756
72458SOL    HW219149  14.741   4.411   0.903
72459SOL     OW19150  13.436  11.812  12.251
72459SOL    HW119151  13.472  11.753  12.317
72459SOL    HW219152  13.501  11.811  12.180
72460SOL     OW19153   6.710   0.900  10.659
72460SOL    HW119154   6.758   0.844  10.598
72460SOL    HW219155   6.620   0.902  10.625
72461SOL     OW19156  13.971   8.150   2.357
72461SOL    HW119157  14.006   8.204   2.428
72461SOL    HW219158  14.042   8.147   2.293
72462SOL     OW19159  10.325   5.317   3.304
72462SOL    HW119160  10.371   5.354   3.379
72462SOL    HW219161  10.379   5.342   3.229
72463SOL     OW19162  14.573   9.476  10.544
72463SOL    HW119163  14.588   9.532  10.467
72463SOL    HW219164  14.583   9.534  10.619
72464SOL     OW19165   1.195   5.950   0.545
72464SOL    HW119166   1.205   5.856   0.559
72464SOL    HW219167   1.268   5.989   0.593
72465SOL     OW19168   6.204   2.974  12.980
72465SOL    HW119169   6.130   2.927  13.020
72465SOL    HW219170   6.279   2.916  12.994
72466SOL     OW19171   1.319  10.713  10.780
72466SOL    HW119172   1.309  10.668  10.863
72466SOL    HW219173   1.413  10.708  10.761
72467SOL     OW19174   0.690   9.819  12.335
72467SOL    HW119175   0.601   9.819  12.302
72467SOL    HW219176   0.689   9.754  12.406
72468SOL     OW19177   7.744   0.025   4.298
72468SOL    HW119178   7.740  14.820   4.257
72468SOL    HW219179   7.755   0.086   4.226
72469SOL     OW19180   6.710   6.522   8.396
72469SOL    HW119181   6.782   6.477   8.438
72469SOL    HW219182   6.738   6.613   8.389
72470SOL     OW19183   0.172  11.156   0.419
72470SOL    HW119184   0.084  11.157   0.382
72470SOL    HW219185   0.182  11.242   0.460
72471SOL     OW19186   7.239   9.593   6.301
72471SOL    HW119187   7.255   9.557   6.388
72471SOL    HW219188   7.158   9.552   6.272
72472SOL     OW19189  12.989  11.532   9.395
72472SOL    HW119190  12.976  11.626   9.409
72472SOL    HW219191  12.929  11.490   9.457
72473SOL     OW19192   1.012   5.467   1.550
72473SOL    HW119193   1.095   5.503   1.520
72473SOL    HW219194   1.002   5.385   1.501
72474SOL     OW19195   3.593  12.303  12.574
72474SOL    HW119196   3.567  12.364  12.644
72474SOL    HW219197   3.531  12.231  12.581
72475SOL     OW19198   0.817   3.011   3.773
72475SOL    HW119199   0.849   2.991   3.685
72475SOL    HW219200   0.742   3.069   3.759
72476SOL     OW19201   8.671   1.724   0.391
72476SOL    HW119202   8.588   1.688   0.421
72476SOL    HW219203   8.708   1.768   0.468
72477SOL     OW19204   6.834   9.620   2.457
72477SOL    HW119205   6.742   9.596   2.449
72477SOL    HW219206   6.840   9.708   2.420
72478SOL     OW19207  14.465   0.188   7.876
72478SOL    HW119208  14.506   0.108   7.909
72478SOL    HW219209  14.504   0.258   7.928
72479SOL     OW19210  10.764   4.426   8.847
72479SOL    HW119211  10.702   4.482   8.799
72479SOL    HW219212  10.720   4.408   8.930
72480SOL     OW19213  10.033  13.560  11.905
72480SOL    HW119214  10.023  13.498  11.977
72480SOL    HW219215  10.015  13.508  11.827
72481SOL     OW19216  12.410  11.075   5.468
72481SOL    HW119217  12.391  11.119   5.551
72481SOL    HW219218  12.328  11.033   5.444
72482SOL     OW19219   3.438  12.346   7.193
72482SOL    HW119220   3.455  12.298   7.275
72482SOL    HW219221   3.346  12.371   7.199
72483SOL     OW19222   5.830   4.485  13.181
72483SOL    HW119223   5.834   4.521  13.269
72483SOL    HW219224   5.832   4.390  13.194
72484SOL     OW19225   1.880   6.343   7.963
72484SOL    HW119226   1.831   6.290   8.025
72484SOL    HW219227   1.838   6.429   7.967
72485SOL     OW19228   1.369   8.023  10.807
72485SOL    HW119229   1.449   8.073  10.789
72485SOL    HW219230   1.302   8.065  10.753
72486SOL     OW19231   8.491   8.786   6.378
72486SOL    HW119232   8.455   8.764   6.292
72486SOL    HW219233   8.445   8.728   6.439
72487SOL     OW19234   7.870  10.238   5.880
72487SOL    HW119235   7.873  10.173   5.809
72487SOL    HW219236   7.779  10.266   5.883
72488SOL     OW19237   1.321   3.188  14.663
72488SOL    HW119238   1.334   3.195  14.758
72488SOL    HW219239   1.401   3.223  14.625
72489SOL     OW19240   9.998   2.376  13.306
72489SOL    HW119241  10.077   2.410  13.263
72489SOL    HW219242  10.030   2.336  13.387
72490SOL     OW19243  13.604  14.786   2.214
72490SOL    HW119244  13.631  14.695   2.208
72490SOL    HW219245  13.609  14.807   2.307
72491SOL     OW19246  13.644  11.290   8.756
72491SOL    HW119247  13.656  11.212   8.702
72491SOL    HW219248  13.644  11.362   8.694
72492SOL     OW19249  13.845   9.687  12.911
72492SOL    HW119250  13.841   9.736  12.829
72492SOL    HW219251  13.925   9.634  12.903
72493SOL     OW19252  10.248   0.813  13.513
72493SOL    HW119253  10.224   0.734  13.561
72493SOL    HW219254  10.319   0.785  13.455
72494SOL     OW19255  11.035  13.578   2.272
72494SOL    HW119256  11.095  13.649   2.250
72494SOL    HW219257  10.996  13.605   2.355
72495SOL     OW19258   7.137  12.927   9.880
72495SOL    HW119259   7.171  12.941   9.968
72495SOL    HW219260   7.107  12.836   9.879
72496SOL     OW19261   1.053  11.987   0.931
72496SOL    HW119262   1.100  11.903   0.936
72496SOL    HW219263   1.022  11.991   0.841
72497SOL     OW19264   0.164  14.263   5.535
72497SOL    HW119265   0.259  14.254   5.541
72497SOL    HW219266   0.148  14.357   5.543
72498SOL     OW19267   3.668   3.205   6.866
72498SOL    HW119268   3.648   3.202   6.773
72498SOL    HW219269   3.582   3.202   6.909
72499SOL     OW19270  10.951   7.905   8.653
72499SOL    HW119271  11.015   7.974   8.673
72499SOL    HW219272  10.929   7.868   8.738
72500SOL     OW19273   1.140   4.479   7.810
72500SOL    HW119274   1.062   4.456   7.862
72500SOL    HW219275   1.109   4.479   7.719
72501SOL     OW19276   7.017  13.106   0.270
72501SOL    HW119277   7.091  13.052   0.243
72501SOL    HW219278   7.021  13.182   0.212
72502SOL     OW19279   0.644   5.261   4.812
72502SOL    HW119280   0.716   5.200   4.825
72502SOL    HW219281   0.634   5.266   4.716
72503SOL     OW19282  10.023   6.798   0.603
72503SOL    HW119283   9.941   6.830   0.565
72503SOL    HW219284  10.049   6.867   0.664
72504SOL     OW19285   5.418   4.890   2.153
72504SOL    HW119286   5.469   4.902   2.233
72504SOL    HW219287   5.384   4.977   2.134
72505SOL     OW19288   5.034  10.391   8.234
72505SOL    HW119289   5.088  10.362   8.160
72505SOL    HW219290   4.947  10.354   8.216
72506SOL     OW19291   0.198   5.349  13.417
72506SOL    HW119292   0.291   5.338  13.436
72506SOL    HW219293   0.190   5.332  13.323
72507SOL     OW19294   1.764  12.663  10.554
72507SOL    HW119295   1.719  12.728  10.500
72507SOL    HW219296   1.741  12.579  10.514
72508SOL     OW19297  11.018   9.464   8.115
72508SOL    HW119298  11.092   9.524   8.106
72508SOL    HW219299  11.046   9.385   8.069
72509SOL     OW19300   3.642   1.929   4.975
72509SOL    HW119301   3.613   1.925   4.884
72509SOL    HW219302   3.572   1.886   5.024
72510SOL     OW19303  11.696   1.566  10.720
72510SOL    HW119304  11.769   1.618  10.688
72510SOL    HW219305  11.676   1.602  10.807
72511SOL     OW19306   4.274   1.546   5.529
72511SOL    HW119307   4.204   1.611   5.514
72511SOL    HW219308   4.335   1.560   5.457
72512SOL     OW19309   4.938   7.489   9.482
72512SOL    HW119310   4.928   7.583   9.496
72512SOL    HW219311   5.032   7.476   9.467
72513SOL     OW19312  14.624   6.012   7.127
72513SOL    HW119313  14.552   6.055   7.174
72513SOL    HW219314  14.621   5.921   7.156
72514SOL     OW19315   3.595  13.509   8.643
72514SOL    HW119316   3.672  13.452   8.647
72514SOL    HW219317   3.577  13.531   8.734
72515SOL     OW19318   5.612   2.386   9.275
72515SOL    HW119319   5.602   2.403   9.181
72515SOL    HW219320   5.526   2.355   9.303
72516SOL     OW19321   5.563   1.015   9.892
72516SOL    HW119322   5.540   1.052   9.978
72516SOL    HW219323   5.631   1.073   9.859
72517SOL     OW19324   4.819   4.025   6.674
72517SOL    HW119325   4.784   3.983   6.595
72517SOL    HW219326   4.897   3.974   6.695
72518SOL     OW19327   9.564   5.872   5.174
72518SOL    HW119328   9.633   5.864   5.239
72518SOL    HW219329   9.528   5.960   5.187
72519SOL     OW19330  10.707  10.609   0.263
72519SOL    HW119331  10.792  10.602   0.305
72519SOL    HW219332  10.685  10.702   0.268
72520SOL     OW19333   1.629  10.050   0.033
72520SOL    HW119334   1.695  10.048  14.846
72520SOL    HW219335   1.664  10.110   0.099
72521SOL     OW19336   6.083   8.674   9.999
72521SOL    HW119337   6.021   8.700  10.067
72521SOL    HW219338   6.098   8.581  10.014
72522SOL     OW19339   9.918   1.642   3.748
72522SOL    HW119340   9.920   1.715   3.686
72522SOL    HW219341  10.010   1.614   3.755
72523SOL     OW19342   8.134   5.986   1.796
72523SOL    HW119343   8.096   6.062   1.752
72523SOL    HW219344   8.134   5.918   1.729
72524SOL     OW19345   0.984   2.132   0.170
72524SOL    HW119346   1.015   2.074   0.240
72524SOL    HW219347   1.039   2.210   0.178
72525SOL     OW19348   9.103  11.125  10.205
72525SOL    HW119349   9.087  11.218  10.193
72525SOL    HW219350   9.016  11.084  10.194
72526SOL     OW19351   8.387  11.645   7.067
72526SOL    HW119352   8.452  11.702   7.026
72526SOL    HW219353   8.418  11.556   7.047
72527SOL     OW19354   3.991   9.162   6.449
72527SOL    HW119355   4.022   9.121   6.529
72527SOL    HW219356   4.015   9.100   6.380
72528SOL     OW19357  14.441   0.815  10.578
72528SOL    HW119358  14.410   0.823  10.668
72528SOL    HW219359  14.456   0.905  10.550
72529SOL     OW19360   6.789   1.780  13.072
72529SOL    HW119361   6.874   1.816  13.046
72529SOL    HW219362   6.798   1.685  13.060
72530SOL     OW19363   0.820   1.535  11.652
72530SOL    HW119364   0.807   1.519  11.559
72530SOL    HW219365   0.869   1.617  11.657
72531SOL     OW19366   6.163  13.950   9.270
72531SOL    HW119367   6.120  13.880   9.221
72531SOL    HW219368   6.256  13.942   9.247
72532SOL     OW19369   8.923   6.753   7.383
72532SOL    HW119370   9.014   6.727   7.398
72532SOL    HW219371   8.918   6.767   7.289
72533SOL     OW19372   8.281   9.159   1.602
72533SOL    HW119373   8.358   9.143   1.656
72533SOL    HW219374   8.209   9.119   1.652
72534SOL     OW19375  11.020  12.958   7.292
72534SOL    HW119376  11.024  12.902   7.370
72534SOL    HW219377  11.112  12.970   7.266
72535SOL     OW19378  14.777   3.999   6.411
72535SOL    HW119379  14.798   3.999   6.505
72535SOL    HW219380  14.698   3.946   6.405
72536SOL     OW19381  12.364   6.789   3.090
72536SOL    HW119382  12.445   6.769   3.138
72536SOL    HW219383  12.387   6.864   3.034
72537SOL     OW19384   8.524   4.734  14.836
72537SOL    HW119385   8.514   4.691   0.040
72537SOL    HW219386   8.600   4.691  14.796
72538SOL     OW19387   9.287   1.892   8.529
72538SOL    HW119388   9.360   1.852   8.482
72538SOL    HW219389   9.222   1.911   8.462
72539SOL     OW19390   6.712   5.390   3.817
72539SOL    HW119391   6.769   5.451   3.863
72539SOL    HW219392   6.635   5.442   3.792
72540SOL     OW19393  13.728   3.304   3.971
72540SOL    HW119394  13.816   3.283   3.941
72540SOL    HW219395  13.683   3.220   3.976
72541SOL     OW19396   4.180   8.307  14.779
72541SOL    HW119397   4.109   8.301  14.843
72541SOL    HW219398   4.178   8.222  14.735
72542SOL     OW19399  14.288   5.516   4.994
72542SOL    HW119400  14.261   5.556   5.076
72542SOL    HW219401  14.371   5.473   5.014
72543SOL     OW19402   8.319  14.253  13.953
72543SOL    HW119403   8.278  14.320  13.898
72543SOL    HW219404   8.249  14.222  14.009
72544SOL     OW19405   7.634  12.487   3.709
72544SOL    HW119406   7.591  12.402   3.700
72544SOL    HW219407   7.699  12.490   3.639
72545SOL     OW19408   8.502   9.370   5.218
72545SOL    HW119409   8.453   9.290   5.237
72545SOL    HW219410   8.490   9.424   5.296
72546SOL     OW19411   9.471  13.884   6.477
72546SOL    HW119412   9.387  13.839   6.470
72546SOL    HW219413   9.450  13.977   6.469
72547SOL     OW19414   9.114  13.937   7.756
72547SOL    HW119415   9.110  13.872   7.827
72547SOL    HW219416   9.207  13.955   7.745
72548SOL     OW19417  12.502   2.684  12.959
72548SOL    HW119418  12.409   2.679  12.935
72548SOL    HW219419  12.546   2.628  12.895
72549SOL     OW19420   6.921  14.538  14.115
72549SOL    HW119421   6.975  14.613  14.094
72549SOL    HW219422   6.983  14.468  14.136
72550SOL     OW19423  14.517   0.065  12.782
72550SOL    HW119424  14.447   0.117  12.821
72550SOL    HW219425  14.515   0.089  12.689
72551SOL     OW19426   5.437  14.049   7.745
72551SOL    HW119427   5.428  14.122   7.684
72551SOL    HW219428   5.416  13.972   7.694
72552SOL     OW19429   3.282   7.528   7.032
72552SOL    HW119430   3.256   7.575   7.111
72552SOL    HW219431   3.204   7.527   6.977
72553SOL     OW19432   6.701  13.048   7.330
72553SOL    HW119433   6.680  12.982   7.264
72553SOL    HW219434   6.650  13.022   7.407
72554SOL     OW19435   7.855   2.302   0.785
72554SOL    HW119436   7.802   2.377   0.812
72554SOL    HW219437   7.907   2.280   0.862
72555SOL     OW19438   7.061  14.650   8.665
72555SOL    HW119439   7.065  14.741   8.695
72555SOL    HW219440   6.975  14.643   8.623
72556SOL     OW19441   3.523   6.877   3.894
72556SOL    HW119442   3.484   6.793   3.917
72556SOL    HW219443   3.508   6.886   3.800
72557SOL     OW19444  13.897   4.818   1.597
72557SOL    HW119445  13.880   4.725   1.609
72557SOL    HW219446  13.942   4.845   1.677
72558SOL     OW19447  11.436   6.986   4.225
72558SOL    HW119448  11.478   6.956   4.145
72558SOL    HW219449  11.473   6.932   4.294
72559SOL     OW19450  13.844   1.043   3.384
72559SOL    HW119451  13.884   0.998   3.309
72559SOL    HW219452  13.759   1.000   3.394
72560SOL     OW19453   3.418   5.638   7.521
72560SOL    HW119454   3.435   5.733   7.521
72560SOL    HW219455   3.330   5.630   7.559
72561SOL     OW19456  11.830   7.216   9.854
72561SOL    HW119457  11.844   7.124   9.879
72561SOL    HW219458  11.917   7.254   9.850
72562SOL     OW19459  13.061   9.684  13.103
72562SOL    HW119460  13.150   9.666  13.073
72562SOL    HW219461  13.008   9.615  13.063
72563SOL     OW19462  11.241  11.786   1.623
72563SOL    HW119463  11.303  11.777   1.695
72563SOL    HW219464  11.220  11.880   1.620
72564SOL     OW19465   8.735   3.308  11.420
72564SOL    HW119466   8.745   3.299  11.515
72564SOL    HW219467   8.683   3.232  11.394
72565SOL     OW19468   8.155   1.646   2.924
72565SOL    HW119469   8.107   1.666   3.004
72565SOL    HW219470   8.150   1.550   2.916
72566SOL     OW19471   8.708  10.120   1.314
72566SOL    HW119472   8.617  10.148   1.326
72566SOL    HW219473   8.734  10.158   1.230
72567SOL     OW19474   1.821   4.269   7.804
72567SOL    HW119475   1.876   4.301   7.876
72567SOL    HW219476   1.872   4.199   7.765
72568SOL     OW19477   1.804   0.084   3.048
72568SOL    HW119478   1.820   0.178   3.056
72568SOL    HW219479   1.889   0.047   3.023
72569SOL     OW19480  10.423   1.564  10.178
72569SOL    HW119481  10.360   1.622  10.221
72569SOL    HW219482  10.370   1.491  10.146
72570SOL     OW19483   9.345   7.969   7.718
72570SOL    HW119484   9.328   7.936   7.806
72570SOL    HW219485   9.416   7.914   7.685
72571SOL     OW19486   9.715  13.869   6.940
72571SOL    HW119487   9.669  13.795   6.900
72571SOL    HW219488   9.647  13.915   6.989
72572SOL     OW19489  14.185  13.023  10.029
72572SOL    HW119490  14.216  12.995   9.943
72572SOL    HW219491  14.130  13.099  10.012
72573SOL     OW19492  12.956   3.074   8.195
72573SOL    HW119493  12.991   3.010   8.134
72573SOL    HW219494  12.899   3.022   8.253
72574SOL     OW19495   7.141  14.303   0.959
72574SOL    HW119496   7.126  14.380   0.904
72574SOL    HW219497   7.096  14.232   0.914
72575SOL     OW19498   8.234   5.248   8.561
72575SOL    HW119499   8.266   5.209   8.642
72575SOL    HW219500   8.313   5.273   8.513
72576SOL     OW19501   1.422   5.545  13.306
72576SOL    HW119502   1.364   5.606  13.351
72576SOL    HW219503   1.444   5.588  13.223
72577SOL     OW19504   8.816   5.740   8.713
72577SOL    HW119505   8.766   5.740   8.795
72577SOL    HW219506   8.874   5.664   8.720
72578SOL     OW19507  13.393   1.613   0.052
72578SOL    HW119508  13.413   1.582  14.845
72578SOL    HW219509  13.381   1.708   0.043
72579SOL     OW19510   6.964   5.764   1.020
72579SOL    HW119511   6.976   5.847   0.974
72579SOL    HW219512   6.890   5.779   1.079
72580SOL     OW19513   3.905   8.970   0.647
72580SOL    HW119514   3.900   9.034   0.576
72580SOL    HW219515   3.962   8.901   0.613
72581SOL     OW19516  10.118   0.032   8.708
72581SOL    HW119517  10.049   0.091   8.679
72581SOL    HW219518  10.192   0.052   8.652
72582SOL     OW19519  12.526   1.633   0.389
72582SOL    HW119520  12.484   1.696   0.331
72582SOL    HW219521  12.584   1.582   0.332
72583SOL     OW19522  10.891   0.144  11.550
72583SOL    HW119523  10.899   0.164  11.457
72583SOL    HW219524  10.873   0.229  11.591
72584SOL     OW19525   2.941   6.898  12.593
72584SOL    HW119526   2.923   6.975  12.647
72584SOL    HW219527   2.856   6.875  12.555
72585SOL     OW19528  13.727   0.759   7.271
72585SOL    HW119529  13.667   0.770   7.345
72585SOL    HW219530  13.775   0.679   7.292
72586SOL     OW19531   5.957   1.086   5.258
72586SOL    HW119532   5.938   1.161   5.314
72586SOL    HW219533   6.050   1.095   5.237
72587SOL     OW19534   7.897   5.514  13.580
72587SOL    HW119535   7.888   5.502  13.485
72587SOL    HW219536   7.807   5.510  13.613
72588SOL     OW19537   6.264  13.735   4.547
72588SOL    HW119538   6.237  13.719   4.457
72588SOL    HW219539   6.263  13.649   4.589
72589SOL     OW19540   8.745   6.156  10.479
72589SOL    HW119541   8.706   6.174  10.564
72589SOL    HW219542   8.742   6.240  10.432
72590SOL     OW19543   6.725   4.864   8.561
72590SOL    HW119544   6.757   4.923   8.629
72590SOL    HW219545   6.700   4.784   8.608
72591SOL     OW19546   3.220   5.291   1.436
72591SOL    HW119547   3.210   5.195   1.439
72591SOL    HW219548   3.267   5.313   1.517
72592SOL     OW19549   2.177   8.512  13.738
72592SOL    HW119550   2.149   8.431  13.696
72592SOL    HW219551   2.243   8.548  13.680
72593SOL     OW19552   5.116  13.277   0.032
72593SOL    HW119553   5.109  13.253  14.822
72593SOL    HW219554   5.195  13.233   0.063
72594SOL     OW19555   3.416   7.761  14.019
72594SOL    HW119556   3.403   7.799  13.933
72594SOL    HW219557   3.456   7.676  14.003
72595SOL     OW19558   3.740   4.685   1.842
72595SOL    HW119559   3.783   4.719   1.763
72595SOL    HW219560   3.716   4.595   1.820
72596SOL     OW19561   6.930  11.746  10.275
72596SOL    HW119562   6.966  11.757  10.187
72596SOL    HW219563   6.859  11.811  10.280
72597SOL     OW19564  13.256   4.172  13.915
72597SOL    HW119565  13.345   4.186  13.884
72597SOL    HW219566  13.239   4.079  13.898
72598SOL     OW19567  10.301   1.783   6.528
72598SOL    HW119568  10.223   1.802   6.475
72598SOL    HW219569  10.339   1.705   6.488
72599SOL     OW19570   2.004   9.610  13.329
72599SOL    HW119571   1.999   9.702  13.306
72599SOL    HW219572   1.957   9.603  13.412
72600SOL     OW19573   9.780   5.971   3.871
72600SOL    HW119574   9.848   6.031   3.840
72600SOL    HW219575   9.796   5.963   3.965
72601SOL     OW19576   6.488   2.367   9.268
72601SOL    HW119577   6.577   2.393   9.243
72601SOL    HW219578   6.478   2.399   9.357
72602SOL     OW19579   9.374   1.414  12.521
72602SOL    HW119580   9.367   1.328  12.481
72602SOL    HW219581   9.467   1.438  12.512
72603SOL     OW19582   0.456  11.978  14.478
72603SOL    HW119583   0.523  11.997  14.543
72603SOL    HW219584   0.380  11.950  14.529
72604SOL     OW19585   2.351   4.272   0.207
72604SOL    HW119586   2.325   4.290   0.298
72604SOL    HW219587   2.270   4.244   0.165
72605SOL     OW19588   9.400   2.976   3.172
72605SOL    HW119589   9.381   2.965   3.079
72605SOL    HW219590   9.381   2.891   3.211
72606SOL     OW19591   8.037   4.137  10.222
72606SOL    HW119592   7.962   4.189  10.250
72606SOL    HW219593   8.015   4.109  10.133
72607SOL     OW19594   0.302   9.473   4.434
72607SOL    HW119595   0.208   9.480   4.417
72607SOL    HW219596   0.315   9.380   4.454
72608SOL     OW19597   7.847  11.007  10.151
72608SOL    HW119598   7.912  11.014  10.221
72608SOL    HW219599   7.866  11.080  10.092
72609SOL     OW19600   3.225  14.842   0.072
72609SOL    HW119601   3.175  14.763   0.053
72609SOL    HW219602   3.218   0.012  14.873
72610SOL     OW19603  14.694  12.900   1.407
72610SOL    HW119604  14.622  12.959   1.385
72610SOL    HW219605  14.702  12.843   1.331
72611SOL     OW19606   2.596   7.782   8.329
72611SOL    HW119607   2.558   7.838   8.261
72611SOL    HW219608   2.539   7.705   8.332
72612SOL     OW19609  12.134   4.929   0.868
72612SOL    HW119610  12.113   4.895   0.781
72612SOL    HW219611  12.054   4.974   0.896
72613SOL     OW19612   9.535   4.478  12.188
72613SOL    HW119613   9.572   4.566  12.193
72613SOL    HW219614   9.443   4.493  12.167
72614SOL     OW19615   9.983   9.343  11.231
72614SOL    HW119616   9.932   9.359  11.151
72614SOL    HW219617  10.074   9.343  11.202
72615SOL     OW19618  11.186  12.276   8.071
72615SOL    HW119619  11.239  12.354   8.056
72615SOL    HW219620  11.132  12.268   7.993
72616SOL     OW19621   5.274  11.116  12.785
72616SOL    HW119622   5.227  11.059  12.724
72616SOL    HW219623   5.238  11.203  12.769
72617SOL     OW19624   7.720   1.471   5.432
72617SOL    HW119625   7.687   1.452   5.344
72617SOL    HW219626   7.719   1.386   5.476
72618SOL     OW19627  13.743  12.877   2.854
72618SOL    HW119628  13.780  12.891   2.941
72618SOL    HW219629  13.685  12.802   2.865
72619SOL     OW19630   2.341  14.769   3.797
72619SOL    HW119631   2.414  14.832   3.800
72619SOL    HW219632   2.302  14.782   3.711
72620SOL     OW19633   1.735   8.674   8.737
72620SOL    HW119634   1.755   8.764   8.764
72620SOL    HW219635   1.818   8.628   8.746
72621SOL     OW19636   0.518  12.070   2.464
72621SOL    HW119637   0.497  12.041   2.375
72621SOL    HW219638   0.594  12.127   2.453
72622SOL     OW19639   3.206  12.420   1.668
72622SOL    HW119640   3.219  12.344   1.611
72622SOL    HW219641   3.261  12.402   1.744
72623SOL     OW19642   2.894   2.779   2.816
72623SOL    HW119643   2.820   2.723   2.794
72623SOL    HW219644   2.961   2.757   2.751
72624SOL     OW19645   6.216  10.368   0.787
72624SOL    HW119646   6.155  10.441   0.790
72624SOL    HW219647   6.276  10.390   0.715
72625SOL     OW19648   9.367   3.855   2.051
72625SOL    HW119649   9.462   3.844   2.053
72625SOL    HW219650   9.350   3.900   1.967
72626SOL     OW19651   0.555   9.069  11.439
72626SOL    HW119652   0.604   9.010  11.381
72626SOL    HW219653   0.620   9.097  11.504
72627SOL     OW19654  11.037  12.332   9.982
72627SOL    HW119655  11.109  12.395   9.994
72627SOL    HW219656  10.992  12.362   9.903
72628SOL     OW19657   8.425   4.055   4.020
72628SOL    HW119658   8.334   4.073   4.042
72628SOL    HW219659   8.442   4.106   3.941
72629SOL     OW19660  11.042  10.650   8.832
72629SOL    HW119661  11.055  10.744   8.836
72629SOL    HW219662  11.127  10.615   8.804
72630SOL     OW19663   5.073   8.222   5.231
72630SOL    HW119664   5.120   8.289   5.280
72630SOL    HW219665   5.100   8.139   5.272
72631SOL     OW19666   1.960  10.312  13.191
72631SOL    HW119667   2.038  10.256  13.192
72631SOL    HW219668   1.905  10.275  13.123
72632SOL     OW19669   6.551  12.529   0.554
72632SOL    HW119670   6.585  12.601   0.607
72632SOL    HW219671   6.608  12.455   0.572
72633SOL     OW19672   8.732   1.294   0.606
72633SOL    HW119673   8.729   1.383   0.642
72633SOL    HW219674   8.698   1.302   0.517
72634SOL     OW19675   4.429  13.273  10.000
72634SOL    HW119676   4.370  13.215   9.952
72634SOL    HW219677   4.372  13.333  10.047
72635SOL     OW19678   8.729  10.283   2.549
72635SOL    HW119679   8.734  10.356   2.610
72635SOL    HW219680   8.677  10.316   2.476
72636SOL     OW19681   5.160   9.479   0.131
72636SOL    HW119682   5.113   9.507   0.052
72636SOL    HW219683   5.215   9.554   0.153
72637SOL     OW19684   0.783   9.258   5.296
72637SOL    HW119685   0.729   9.283   5.221
72637SOL    HW219686   0.831   9.338   5.319
72638SOL     OW19687   6.355  11.165   6.817
72638SOL    HW119688   6.445  11.152   6.787
72638SOL    HW219689   6.317  11.077   6.817
72639SOL     OW19690   6.243   9.337   6.446
72639SOL    HW119691   6.191   9.403   6.492
72639SOL    HW219692   6.308   9.387   6.397
72640SOL     OW19693   2.804   1.947   4.475
72640SOL    HW119694   2.727   1.999   4.498
72640SOL    HW219695   2.767   1.866   4.440
72641SOL     OW19696   7.382   4.935   0.935
72641SOL    HW119697   7.303   4.892   0.901
72641SOL    HW219698   7.426   4.868   0.986
72642SOL     OW19699  13.358   0.351   4.253
72642SOL    HW119700  13.304   0.296   4.196
72642SOL    HW219701  13.360   0.436   4.209
72643SOL     OW19702   0.248   8.073   1.846
72643SOL    HW119703   0.276   8.158   1.880
72643SOL    HW219704   0.289   8.067   1.760
72644SOL     OW19705   5.927   9.542   1.385
72644SOL    HW119706   5.907   9.509   1.297
72644SOL    HW219707   6.022   9.543   1.390
72645SOL     OW19708   9.057   3.543   7.824
72645SOL    HW119709   9.143   3.545   7.866
72645SOL    HW219710   9.000   3.593   7.883
72646SOL     OW19711   8.928  11.136   3.066
72646SOL    HW119712   8.969  11.198   3.005
72646SOL    HW219713   8.839  11.169   3.078
72647SOL     OW19714   4.492   9.541   8.941
72647SOL    HW119715   4.487   9.527   8.846
72647SOL    HW219716   4.424   9.484   8.977
72648SOL     OW19717   4.262   6.509   5.440
72648SOL    HW119718   4.302   6.427   5.410
72648SOL    HW219719   4.193   6.482   5.501
72649SOL     OW19720  12.721  12.841   6.818
72649SOL    HW119721  12.732  12.782   6.893
72649SOL    HW219722  12.707  12.783   6.743
72650SOL     OW19723   4.240   9.588  12.018
72650SOL    HW119724   4.236   9.603  12.113
72650SOL    HW219725   4.274   9.499  12.010
72651SOL     OW19726   3.866   3.913  11.322
72651SOL    HW119727   3.885   3.984  11.261
72651SOL    HW219728   3.945   3.859  11.321
72652SOL     OW19729  13.108  14.241  14.263
72652SOL    HW119730  13.115  14.166  14.323
72652SOL    HW219731  13.154  14.213  14.184
72653SOL     OW19732   5.783   6.033  14.495
72653SOL    HW119733   5.693   6.011  14.473
72653SOL    HW219734   5.828   6.037  14.410
72654SOL     OW19735   5.412  10.933   0.173
72654SOL    HW119736   5.350  10.997   0.136
72654SOL    HW219737   5.426  10.963   0.263
72655SOL     OW19738  12.234   8.406   7.222
72655SOL    HW119739  12.235   8.465   7.147
72655SOL    HW219740  12.281   8.454   7.291
72656SOL     OW19741  11.433   2.314   1.614
72656SOL    HW119742  11.452   2.405   1.636
72656SOL    HW219743  11.510   2.285   1.566
72657SOL     OW19744  11.170   1.897  10.533
72657SOL    HW119745  11.148   1.819  10.482
72657SOL    HW219746  11.091   1.915  10.584
72658SOL     OW19747   4.849   1.420   5.583
72658SOL    HW119748   4.920   1.423   5.519
72658SOL    HW219749   4.807   1.335   5.568
72659SOL     OW19750   6.111   0.894   4.913
72659SOL    HW119751   6.176   0.876   4.981
72659SOL    HW219752   6.152   0.961   4.859
72660SOL     OW19753  13.205   4.996   7.505
72660SOL    HW119754  13.194   5.083   7.466
72660SOL    HW219755  13.116   4.962   7.513
72661SOL     OW19756  11.736   5.944   7.259
72661SOL    HW119757  11.799   5.878   7.229
72661SOL    HW219758  11.658   5.893   7.283
72662SOL     OW19759  10.541   4.746   5.039
72662SOL    HW119760  10.614   4.735   4.978
72662SOL    HW219761  10.551   4.675   5.102
72663SOL     OW19762   4.546   7.174   1.116
72663SOL    HW119763   4.604   7.108   1.079
72663SOL    HW219764   4.501   7.129   1.188
72664SOL     OW19765   9.176   6.184  12.617
72664SOL    HW119766   9.165   6.131  12.697
72664SOL    HW219767   9.090   6.179  12.574
72665SOL     OW19768   5.748  14.682  12.639
72665SOL    HW119769   5.793  14.763  12.663
72665SOL    HW219770   5.815  14.614  12.648
72666SOL     OW19771   0.481   9.582   3.277
72666SOL    HW119772   0.562   9.613   3.318
72666SOL    HW219773   0.421   9.568   3.350
72667SOL     OW19774   5.975   5.414   6.891
72667SOL    HW119775   6.068   5.403   6.872
72667SOL    HW219776   5.972   5.437   6.984
72668SOL     OW19777   7.825   0.866  13.339
72668SOL    HW119778   7.787   0.907  13.417
72668SOL    HW219779   7.911   0.907  13.329
72669SOL     OW19780   2.505   3.113   1.359
72669SOL    HW119781   2.550   3.194   1.337
72669SOL    HW219782   2.576   3.052   1.383
72670SOL     OW19783   8.595   9.585   1.007
72670SOL    HW119784   8.519   9.584   0.948
72670SOL    HW219785   8.664   9.626   0.955
72671SOL     OW19786   6.242   8.170  14.401
72671SOL    HW119787   6.337   8.180  14.409
72671SOL    HW219788   6.206   8.230  14.466
72672SOL     OW19789   4.619   3.249  13.159
72672SOL    HW119790   4.699   3.233  13.209
72672SOL    HW219791   4.650   3.278  13.073
72673SOL     OW19792   1.017  11.912  11.455
72673SOL    HW119793   1.079  11.944  11.520
72673SOL    HW219794   0.931  11.926  11.494
72674SOL     OW19795  13.772   2.843   3.467
72674SOL    HW119796  13.715   2.773   3.499
72674SOL    HW219797  13.831   2.861   3.541
72675SOL     OW19798  11.138   2.479   7.198
72675SOL    HW119799  11.179   2.401   7.235
72675SOL    HW219800  11.139   2.543   7.270
72676SOL     OW19801  13.007   4.339   2.619
72676SOL    HW119802  12.997   4.431   2.592
72676SOL    HW219803  12.948   4.331   2.694
72677SOL     OW19804   9.978  13.344   3.762
72677SOL    HW119805   9.902  13.402   3.754
72677SOL    HW219806   9.990  13.334   3.857
72678SOL     OW19807   5.709   7.001   6.258
72678SOL    HW119808   5.714   7.034   6.168
72678SOL    HW219809   5.800   7.003   6.289
72679SOL     OW19810   1.546   4.373   2.267
72679SOL    HW119811   1.530   4.459   2.306
72679SOL    HW219812   1.561   4.315   2.342
72680SOL     OW19813   3.409   5.005   3.033
72680SOL    HW119814   3.467   5.072   2.995
72680SOL    HW219815   3.400   5.032   3.125
72681SOL     OW19816  11.284  10.692   6.309
72681SOL    HW119817  11.288  10.599   6.288
72681SOL    HW219818  11.375  10.716   6.327
72682SOL     OW19819  14.556   8.032   0.299
72682SOL    HW119820  14.610   8.038   0.220
72682SOL    HW219821  14.606   7.975   0.358
72683SOL     OW19822   9.399   3.839   1.631
72683SOL    HW119823   9.452   3.915   1.655
72683SOL    HW219824   9.452   3.792   1.567
72684SOL     OW19825   8.938  13.603   2.331
72684SOL    HW119826   8.867  13.646   2.284
72684SOL    HW219827   8.897  13.528   2.373
72685SOL     OW19828   4.037   1.587   9.735
72685SOL    HW119829   4.024   1.537   9.816
72685SOL    HW219830   3.970   1.554   9.676
72686SOL     OW19831   8.944   7.548  11.659
72686SOL    HW119832   8.984   7.469  11.620
72686SOL    HW219833   8.881   7.513  11.723
72687SOL     OW19834  13.380  14.569  13.132
72687SOL    HW119835  13.331  14.487  13.132
72687SOL    HW219836  13.341  14.620  13.202
72688SOL     OW19837  11.657   0.147   1.395
72688SOL    HW119838  11.701   0.062   1.394
72688SOL    HW219839  11.582   0.135   1.453
72689SOL     OW19840   7.237   1.122  11.770
72689SOL    HW119841   7.267   1.098  11.682
72689SOL    HW219842   7.313   1.163  11.811
72690SOL     OW19843  13.574   2.932   9.968
72690SOL    HW119844  13.503   2.991   9.941
72690SOL    HW219845  13.618   2.909   9.886
72691SOL     OW19846   2.061   5.951   4.467
72691SOL    HW119847   2.020   6.038   4.459
72691SOL    HW219848   2.004   5.894   4.414
72692SOL     OW19849   3.728   2.082   7.434
72692SOL    HW119850   3.704   2.161   7.387
72692SOL    HW219851   3.694   2.011   7.380
72693SOL     OW19852  11.857   4.293   9.494
72693SOL    HW119853  11.903   4.282   9.410
72693SOL    HW219854  11.907   4.361   9.539
72694SOL     OW19855  12.408   5.766   4.406
72694SOL    HW119856  12.322   5.744   4.371
72694SOL    HW219857  12.398   5.757   4.501
72695SOL     OW19858   9.020   1.051  14.587
72695SOL    HW119859   8.955   1.048  14.516
72695SOL    HW219860   8.968   1.035  14.667
72696SOL     OW19861  13.982   2.965   4.327
72696SOL    HW119862  13.971   3.056   4.357
72696SOL    HW219863  13.937   2.962   4.243
72697SOL     OW19864   8.275  12.955   1.835
72697SOL    HW119865   8.205  12.995   1.784
72697SOL    HW219866   8.322  13.029   1.874
72698SOL     OW19867   6.185   6.938  10.203
72698SOL    HW119868   6.127   6.943  10.126
72698SOL    HW219869   6.168   7.019  10.250
72699SOL     OW19870   7.979  12.461  14.400
72699SOL    HW119871   7.883  12.457  14.402
72699SOL    HW219872   8.006  12.426  14.484
72700SOL     OW19873  11.111   7.540   4.642
72700SOL    HW119874  11.048   7.589   4.590
72700SOL    HW219875  11.112   7.452   4.603
72701SOL     OW19876   9.968   6.420  13.053
72701SOL    HW119877   9.940   6.502  13.094
72701SOL    HW219878  10.038   6.446  12.993
72702SOL     OW19879  13.386  14.700   2.588
72702SOL    HW119880  13.342  14.777   2.623
72702SOL    HW219881  13.316  14.636   2.574
72703SOL     OW19882   8.566   5.701   0.573
72703SOL    HW119883   8.569   5.757   0.496
72703SOL    HW219884   8.638   5.639   0.561
72704SOL     OW19885   8.572  11.070   3.355
72704SOL    HW119886   8.590  11.147   3.409
72704SOL    HW219887   8.511  11.101   3.288
72705SOL     OW19888   0.465   6.677   2.432
72705SOL    HW119889   0.536   6.714   2.382
72705SOL    HW219890   0.505   6.606   2.483
72706SOL     OW19891   9.090  12.485   3.977
72706SOL    HW119892   9.021  12.434   3.935
72706SOL    HW219893   9.125  12.426   4.045
72707SOL     OW19894   2.484   3.880   0.393
72707SOL    HW119895   2.469   3.857   0.301
72707SOL    HW219896   2.405   3.928   0.419
72708SOL     OW19897  13.226   6.549  14.638
72708SOL    HW119898  13.135   6.577  14.653
72708SOL    HW219899  13.223   6.453  14.646
72709SOL     OW19900   5.485   6.544   8.761
72709SOL    HW119901   5.504   6.527   8.853
72709SOL    HW219902   5.553   6.606   8.734
72710SOL     OW19903   0.716   9.921  13.645
72710SOL    HW119904   0.794   9.871  13.623
72710SOL    HW219905   0.736  10.010  13.617
72711SOL     OW19906   5.557  12.009  10.850
72711SOL    HW119907   5.599  12.065  10.785
72711SOL    HW219908   5.624  11.995  10.917
72712SOL     OW19909   8.624   0.172   8.356
72712SOL    HW119910   8.570   0.181   8.278
72712SOL    HW219911   8.671   0.090   8.344
72713SOL     OW19912  14.459  13.752   1.533
72713SOL    HW119913  14.399  13.803   1.478
72713SOL    HW219914  14.497  13.687   1.474
72714SOL     OW19915   4.398   4.898   5.587
72714SOL    HW119916   4.347   4.955   5.530
72714SOL    HW219917   4.389   4.938   5.674
72715SOL     OW19918  11.889  12.112   4.306
72715SOL    HW119919  11.955  12.135   4.241
72715SOL    HW219920  11.817  12.173   4.291
72716SOL     OW19921   0.180   7.349   3.189
72716SOL    HW119922   0.215   7.313   3.271
72716SOL    HW219923   0.215   7.291   3.121
72717SOL     OW19924  13.049   2.207  11.265
72717SOL    HW119925  13.038   2.175  11.176
72717SOL    HW219926  12.970   2.259  11.282
72718SOL     OW19927   1.078   9.319   6.439
72718SOL    HW119928   1.002   9.280   6.484
72718SOL    HW219929   1.091   9.403   6.483
72719SOL     OW19930   6.136   9.074   6.163
72719SOL    HW119931   6.085   8.994   6.155
72719SOL    HW219932   6.186   9.079   6.082
72720SOL     OW19933  14.766   8.002   9.488
72720SOL    HW119934  14.781   8.064   9.416
72720SOL    HW219935  14.717   8.052   9.553
72721SOL     OW19936   2.890  10.803   3.067
72721SOL    HW119937   2.948  10.863   3.020
72721SOL    HW219938   2.855  10.745   2.999
72722SOL     OW19939  13.863   5.155   6.618
72722SOL    HW119940  13.938   5.201   6.578
72722SOL    HW219941  13.793   5.220   6.618
72723SOL     OW19942   3.642   7.317  10.662
72723SOL    HW119943   3.732   7.339  10.641
72723SOL    HW219944   3.649   7.246  10.726
72724SOL     OW19945  14.274   8.244  11.235
72724SOL    HW119946  14.238   8.290  11.159
72724SOL    HW219947  14.206   8.181  11.259
72725SOL     OW19948   6.934  12.785   7.744
72725SOL    HW119949   7.003  12.847   7.767
72725SOL    HW219950   6.970  12.735   7.671
72726SOL     OW19951   1.293   6.138   9.035
72726SOL    HW119952   1.326   6.156   9.123
72726SOL    HW219953   1.298   6.043   9.026
72727SOL     OW19954   4.733   4.351   6.572
72727SOL    HW119955   4.741   4.446   6.574
72727SOL    HW219956   4.808   4.320   6.623
72728SOL     OW19957   3.771  10.712   1.418
72728SOL    HW119958   3.729  10.630   1.442
72728SOL    HW219959   3.716  10.779   1.458
72729SOL     OW19960   5.305  13.249  13.577
72729SOL    HW119961   5.332  13.157  13.582
72729SOL    HW219962   5.260  13.266  13.660
72730SOL     OW19963  13.525   5.409   7.658
72730SOL    HW119964  13.455   5.454   7.612
72730SOL    HW219965  13.502   5.416   7.751
72731SOL     OW19966   9.642   9.609   7.149
72731SOL    HW119967   9.680   9.572   7.228
72731SOL    HW219968   9.692   9.689   7.133
72732SOL     OW19969   5.370   6.705  10.132
72732SOL    HW119970   5.466   6.702  10.142
72732SOL    HW219971   5.337   6.707  10.222
72733SOL     OW19972   8.356   0.918  12.143
72733SOL    HW119973   8.265   0.948  12.147
72733SOL    HW219974   8.355   0.848  12.078
72734SOL     OW19975   1.430   5.196  10.425
72734SOL    HW119976   1.444   5.244  10.507
72734SOL    HW219977   1.335   5.186  10.420
72735SOL     OW19978  11.954   6.586  11.120
72735SOL    HW119979  11.954   6.527  11.195
72735SOL    HW219980  12.003   6.538  11.052
72736SOL     OW19981   0.219   0.881   9.197
72736SOL    HW119982   0.164   0.919   9.129
72736SOL    HW219983   0.271   0.815   9.152
72737SOL     OW19984  11.540  12.786  14.021
72737SOL    HW119985  11.479  12.725  13.978
72737SOL    HW219986  11.620  12.781  13.968
72738SOL     OW19987  11.456   4.322   0.903
72738SOL    HW119988  11.522   4.306   0.836
72738SOL    HW219989  11.507   4.349   0.980
72739SOL     OW19990  12.577   7.849  10.895
72739SOL    HW119991  12.616   7.761  10.893
72739SOL    HW219992  12.515   7.846  10.968
72740SOL     OW19993   9.832  12.904   1.749
72740SOL    HW119994   9.856  12.812   1.755
72740SOL    HW219995   9.742  12.908   1.781
72741SOL     OW19996   3.068   3.897  14.752
72741SOL    HW119997   3.112   3.828  14.801
72741SOL    HW219998   3.082   3.976  14.803
72742SOL     OW19999   5.706  11.140   4.053
72742SOL    HW120000   5.754  11.142   3.970
72742SOL    HW220001   5.718  11.051   4.085
72743SOL     OW20002  12.308   1.602  14.277
72743SOL    HW120003  12.263   1.605  14.362
72743SOL    HW220004  12.336   1.693  14.262
72744SOL     OW20005  13.415   2.380   2.423
72744SOL    HW120006  13.340   2.358   2.477
72744SOL    HW220007  13.396   2.342   2.338
72745SOL     OW20008   2.199   8.048   5.561
72745SOL    HW120009   2.123   8.098   5.529
72745SOL    HW220010   2.171   8.016   5.647
72746SOL     OW20011   9.527   4.969  14.879
72746SOL    HW120012   9.504   4.881   0.028
72746SOL    HW220013   9.565   4.955  14.792
72747SOL     OW20014  13.428  11.707  11.080
72747SOL    HW120015  13.523  11.701  11.070
72747SOL    HW220016  13.414  11.794  11.118
72748SOL     OW20017  13.122  13.442   3.408
72748SOL    HW120018  13.098  13.457   3.499
72748SOL    HW220019  13.157  13.526   3.378
72749SOL     OW20020  13.337   3.079   9.487
72749SOL    HW120021  13.328   3.174   9.483
72749SOL    HW220022  13.357   3.053   9.397
72750SOL     OW20023   8.049  11.321   2.815
72750SOL    HW120024   7.965  11.352   2.779
72750SOL    HW220025   8.038  11.327   2.910
72751SOL     OW20026   4.465   7.641   3.435
72751SOL    HW120027   4.467   7.551   3.400
72751SOL    HW220028   4.459   7.696   3.357
72752SOL     OW20029   2.212  12.861  13.558
72752SOL    HW120030   2.237  12.835  13.470
72752SOL    HW220031   2.196  12.779  13.605
72753SOL     OW20032  14.662  10.469   2.149
72753SOL    HW120033  14.597  10.539   2.155
72753SOL    HW220034  14.742  10.514   2.120
72754SOL     OW20035   5.587  13.572   6.654
72754SOL    HW120036   5.656  13.610   6.707
72754SOL    HW220037   5.583  13.480   6.681
72755SOL     OW20038  12.832  13.894   8.544
72755SOL    HW120039  12.802  13.962   8.483
72755SOL    HW220040  12.774  13.819   8.527
72756SOL     OW20041   0.692   8.915   7.731
72756SOL    HW120042   0.695   9.011   7.725
72756SOL    HW220043   0.601   8.895   7.751
72757SOL     OW20044   6.856   5.563   0.608
72757SOL    HW120045   6.933   5.570   0.551
72757SOL    HW220046   6.861   5.474   0.643
72758SOL     OW20047   3.930  11.001   8.689
72758SOL    HW120048   3.884  11.031   8.767
72758SOL    HW220049   4.023  11.020   8.707
72759SOL     OW20050  11.799  12.919   1.146
72759SOL    HW120051  11.745  12.894   1.221
72759SOL    HW220052  11.886  12.884   1.167
72760SOL     OW20053   8.308  11.753   5.704
72760SOL    HW120054   8.212  11.745   5.703
72760SOL    HW220055   8.335  11.724   5.616
72761SOL     OW20056  13.337   8.420   0.948
72761SOL    HW120057  13.300   8.473   1.019
72761SOL    HW220058  13.315   8.468   0.868
72762SOL     OW20059   8.803  11.438   4.160
72762SOL    HW120060   8.823  11.345   4.153
72762SOL    HW220061   8.851  11.468   4.237
72763SOL     OW20062   7.931   7.501   0.871
72763SOL    HW120063   8.025   7.518   0.877
72763SOL    HW220064   7.922   7.406   0.884
72764SOL     OW20065  14.448  13.790   6.827
72764SOL    HW120066  14.383  13.806   6.758
72764SOL    HW220067  14.402  13.811   6.908
72765SOL     OW20068   4.261  10.273   8.717
72765SOL    HW120069   4.226  10.287   8.805
72765SOL    HW220070   4.243  10.354   8.671
72766SOL     OW20071  12.169   4.462   1.907
72766SOL    HW120072  12.173   4.497   1.818
72766SOL    HW220073  12.229   4.388   1.907
72767SOL     OW20074  10.371   9.193  10.583
72767SOL    HW120075  10.306   9.143  10.534
72767SOL    HW220076  10.412   9.129  10.641
72768SOL     OW20077   0.992   9.850   8.952
72768SOL    HW120078   1.052   9.867   9.025
72768SOL    HW220079   0.996   9.755   8.941
72769SOL     OW20080  13.350   3.231   6.275
72769SOL    HW120081  13.295   3.225   6.353
72769SOL    HW220082  13.421   3.168   6.291
72770SOL     OW20083   5.352   4.500   7.918
72770SOL    HW120084   5.301   4.491   7.999
72770SOL    HW220085   5.415   4.428   7.922
72771SOL     OW20086   6.672   7.370   0.226
72771SOL    HW120087   6.576   7.371   0.225
72771SOL    HW220088   6.695   7.295   0.172
72772SOL     OW20089   8.196   0.461  14.460
72772SOL    HW120090   8.235   0.529  14.407
72772SOL    HW220091   8.199   0.495  14.550
72773SOL     OW20092   3.135   6.187   5.507
72773SOL    HW120093   3.087   6.239   5.571
72773SOL    HW220094   3.226   6.190   5.537
72774SOL     OW20095   0.362   6.577   4.016
72774SOL    HW120096   0.357   6.663   4.057
72774SOL    HW220097   0.424   6.589   3.944
72775SOL     OW20098   7.338  10.378   9.674
72775SOL    HW120099   7.338  10.460   9.725
72775SOL    HW220100   7.414  10.330   9.707
72776SOL     OW20101   4.530   8.780   8.329
72776SOL    HW120102   4.618   8.812   8.309
72776SOL    HW220103   4.545   8.696   8.373
72777SOL     OW20104   8.139   4.870  10.861
72777SOL    HW120105   8.071   4.828  10.808
72777SOL    HW220106   8.092   4.907  10.936
72778SOL     OW20107   5.211   3.267  11.765
72778SOL    HW120108   5.274   3.199  11.789
72778SOL    HW220109   5.137   3.220  11.727
72779SOL     OW20110  12.434   4.406   9.919
72779SOL    HW120111  12.482   4.468   9.973
72779SOL    HW220112  12.392   4.459   9.852
72780SOL     OW20113  11.128  11.949  13.397
72780SOL    HW120114  11.220  11.923  13.384
72780SOL    HW220115  11.081  11.866  13.405
72781SOL     OW20116  13.141   9.533  11.241
72781SOL    HW120117  13.117   9.509  11.152
72781SOL    HW220118  13.223   9.581  11.232
72782SOL     OW20119   8.229  14.716  11.886
72782SOL    HW120120   8.250  14.730  11.794
72782SOL    HW220121   8.141  14.677  11.884
72783SOL     OW20122  11.767   7.101   7.284
72783SOL    HW120123  11.679   7.086   7.320
72783SOL    HW220124  11.761   7.184   7.238
72784SOL     OW20125  14.523   9.887   2.203
72784SOL    HW120126  14.477   9.888   2.120
72784SOL    HW220127  14.616   9.892   2.179
72785SOL     OW20128   5.636  11.367   2.117
72785SOL    HW120129   5.618  11.431   2.048
72785SOL    HW220130   5.632  11.282   2.072
72786SOL     OW20131  12.557   9.568  10.049
72786SOL    HW120132  12.627   9.549   9.987
72786SOL    HW220133  12.527   9.656  10.025
72787SOL     OW20134   3.946   6.461   8.640
72787SOL    HW120135   3.939   6.368   8.662
72787SOL    HW220136   3.858   6.496   8.652
72788SOL     OW20137  11.674   4.204   6.570
72788SOL    HW120138  11.726   4.183   6.492
72788SOL    HW220139  11.723   4.163   6.642
72789SOL     OW20140  14.835   0.597   8.865
72789SOL    HW120141  14.783   0.519   8.847
72789SOL    HW220142  14.879   0.616   8.782
72790SOL     OW20143   0.220  12.663   8.499
72790SOL    HW120144   0.198  12.738   8.444
72790SOL    HW220145   0.191  12.587   8.449
72791SOL     OW20146   5.171   4.980   9.590
72791SOL    HW120147   5.147   4.890   9.609
72791SOL    HW220148   5.088   5.028   9.592
72792SOL     OW20149  10.587   1.443   4.418
72792SOL    HW120150  10.519   1.376   4.411
72792SOL    HW220151  10.561   1.496   4.493
72793SOL     OW20152   2.461  11.439  14.677
72793SOL    HW120153   2.428  11.527  14.656
72793SOL    HW220154   2.405  11.379  14.628
72794SOL     OW20155  10.602   3.245  10.066
72794SOL    HW120156  10.601   3.241  10.162
72794SOL    HW220157  10.630   3.158  10.038
72795SOL     OW20158   6.759  13.444   1.461
72795SOL    HW120159   6.719  13.464   1.376
72795SOL    HW220160   6.700  13.380   1.501
72796SOL     OW20161   5.881   7.022  12.615
72796SOL    HW120162   5.836   7.082  12.673
72796SOL    HW220163   5.934   7.078  12.558
72797SOL     OW20164   4.429   5.808   4.328
72797SOL    HW120165   4.424   5.795   4.233
72797SOL    HW220166   4.512   5.768   4.353
72798SOL     OW20167   1.770   1.399   2.206
72798SOL    HW120168   1.688   1.444   2.226
72798SOL    HW220169   1.799   1.363   2.290
72799SOL     OW20170   6.775   9.740   6.350
72799SOL    HW120171   6.766   9.670   6.415
72799SOL    HW220172   6.807   9.815   6.400
72800SOL     OW20173   4.605   9.831  10.530
72800SOL    HW120174   4.676   9.865  10.584
72800SOL    HW220175   4.559   9.770  10.587
72801SOL     OW20176   7.456   1.265   7.156
72801SOL    HW120177   7.451   1.267   7.061
72801SOL    HW220178   7.365   1.275   7.186
72802SOL     OW20179   1.314   6.332   5.219
72802SOL    HW120180   1.392   6.354   5.270
72802SOL    HW220181   1.327   6.376   5.135
72803SOL     OW20182  10.674   3.373  14.638
72803SOL    HW120183  10.579   3.367  14.641
72803SOL    HW220184  10.699   3.420  14.718
72804SOL     OW20185   4.299   6.239  12.547
72804SOL    HW120186   4.352   6.219  12.625
72804SOL    HW220187   4.224   6.288  12.581
72805SOL     OW20188  10.900   8.209  12.702
72805SOL    HW120189  10.972   8.254  12.658
72805SOL    HW220190  10.943   8.138  12.750
72806SOL     OW20191   6.272   6.269   7.948
72806SOL    HW120192   6.266   6.313   7.863
72806SOL    HW220193   6.186   6.283   7.988
72807SOL     OW20194   7.583  12.150   5.830
72807SOL    HW120195   7.621  12.079   5.779
72807SOL    HW220196   7.657  12.207   5.852
72808SOL     OW20197   6.148  14.661  12.966
72808SOL    HW120198   6.063  14.634  13.002
72808SOL    HW220199   6.135  14.659  12.871
72809SOL     OW20200   5.271  14.774   3.071
72809SOL    HW120201   5.365  14.788   3.077
72809SOL    HW220202   5.244  14.824   2.994
72810SOL     OW20203   2.442  12.656  13.785
72810SOL    HW120204   2.349  12.655  13.762
72810SOL    HW220205   2.449  12.600  13.862
72811SOL     OW20206  11.067   2.347   0.784
72811SOL    HW120207  11.042   2.352   0.692
72811SOL    HW220208  10.995   2.303   0.827
72812SOL     OW20209  12.612   4.680   0.781
72812SOL    HW120210  12.556   4.627   0.837
72812SOL    HW220211  12.679   4.714   0.839
72813SOL     OW20212   2.729  14.280   0.324
72813SOL    HW120213   2.813  14.317   0.349
72813SOL    HW220214   2.751  14.217   0.255
72814SOL     OW20215   8.874   2.462   7.776
72814SOL    HW120216   8.811   2.449   7.706
72814SOL    HW220217   8.956   2.426   7.742
72815SOL     OW20218   4.619  13.233   6.919
72815SOL    HW120219   4.626  13.254   6.826
72815SOL    HW220220   4.568  13.152   6.922
72816SOL     OW20221  14.158   7.521   2.944
72816SOL    HW120222  14.114   7.578   2.881
72816SOL    HW220223  14.222   7.577   2.988
72817SOL     OW20224  11.096  10.601   1.933
72817SOL    HW120225  11.008  10.607   1.970
72817SOL    HW220226  11.145  10.670   1.977
72818SOL     OW20227  14.311   0.388   5.632
72818SOL    HW120228  14.312   0.299   5.666
72818SOL    HW220229  14.350   0.441   5.701
72819SOL     OW20230  14.786  14.022   5.163
72819SOL    HW120231  14.783  14.114   5.137
72819SOL    HW220232  14.828  14.022   5.249
72820SOL     OW20233   3.648  14.422   5.597
72820SOL    HW120234   3.614  14.390   5.680
72820SOL    HW220235   3.570  14.430   5.541
72821SOL     OW20236   5.970   3.609  12.148
72821SOL    HW120237   5.902   3.660  12.191
72821SOL    HW220238   6.024   3.574  12.219
72822SOL     OW20239   7.530   7.751   0.310
72822SOL    HW120240   7.484   7.771   0.391
72822SOL    HW220241   7.615   7.792   0.320
72823SOL     OW20242   6.434   5.549   5.350
72823SOL    HW120243   6.444   5.488   5.423
72823SOL    HW220244   6.517   5.598   5.348
72824SOL     OW20245   3.992   7.848   6.526
72824SOL    HW120246   4.009   7.832   6.619
72824SOL    HW220247   3.957   7.937   6.524
72825SOL     OW20248  12.474  13.392   5.085
72825SOL    HW120249  12.497  13.416   4.995
72825SOL    HW220250  12.490  13.472   5.136
72826SOL     OW20251   3.430   6.183  10.890
72826SOL    HW120252   3.481   6.218  10.964
72826SOL    HW220253   3.339   6.193  10.918
72827SOL     OW20254  10.281   3.416  12.091
72827SOL    HW120255  10.266   3.324  12.070
72827SOL    HW220256  10.275   3.419  12.187
72828SOL     OW20257   4.062  11.451   6.525
72828SOL    HW120258   4.058  11.530   6.578
72828SOL    HW220259   4.108  11.387   6.581
72829SOL     OW20260   4.821   1.060  14.025
72829SOL    HW120261   4.868   1.079  13.944
72829SOL    HW220262   4.753   0.997  14.000
72830SOL     OW20263   1.754   4.395   4.747
72830SOL    HW120264   1.837   4.436   4.723
72830SOL    HW220265   1.689   4.465   4.740
72831SOL     OW20266  10.248   8.996  14.790
72831SOL    HW120267  10.157   9.020  14.774
72831SOL    HW220268  10.298   9.074  14.764
72832SOL     OW20269   7.305   8.562   1.122
72832SOL    HW120270   7.385   8.552   1.069
72832SOL    HW220271   7.239   8.511   1.075
72833SOL     OW20272   6.252   8.839  14.696
72833SOL    HW120273   6.242   8.842  14.600
72833SOL    HW220274   6.170   8.800  14.727
72834SOL     OW20275   4.581   8.784   5.715
72834SOL    HW120276   4.543   8.869   5.739
72834SOL    HW220277   4.549   8.768   5.626
72835SOL     OW20278  11.424   2.631   0.892
72835SOL    HW120279  11.390   2.631   0.982
72835SOL    HW220280  11.377   2.559   0.849
72836SOL     OW20281  12.572   9.457   1.461
72836SOL    HW120282  12.613   9.541   1.440
72836SOL    HW220283  12.643   9.402   1.492
72837SOL     OW20284   7.184   3.462  11.434
72837SOL    HW120285   7.273   3.482  11.461
72837SOL    HW220286   7.148   3.546  11.406
72838SOL     OW20287   6.053  13.970   5.745
72838SOL    HW120288   6.033  13.877   5.734
72838SOL    HW220289   6.107  13.974   5.824
72839SOL     OW20290   7.442   0.927   9.833
72839SOL    HW120291   7.371   0.912   9.770
72839SOL    HW220292   7.518   0.949   9.780
72840SOL     OW20293   8.887   9.660   2.291
72840SOL    HW120294   8.879   9.708   2.374
72840SOL    HW220295   8.933   9.579   2.314
72841SOL     OW20296   9.074  10.443   8.310
72841SOL    HW120297   9.095  10.369   8.367
72841SOL    HW220298   9.032  10.404   8.234
72842SOL     OW20299  11.095   8.912   7.001
72842SOL    HW120300  11.031   8.951   7.059
72842SOL    HW220301  11.170   8.891   7.057
72843SOL     OW20302   2.723   1.906   6.720
72843SOL    HW120303   2.721   1.906   6.816
72843SOL    HW220304   2.812   1.878   6.698
72844SOL     OW20305  11.789   8.499   8.715
72844SOL    HW120306  11.818   8.589   8.703
72844SOL    HW220307  11.852   8.461   8.775
72845SOL     OW20308  14.064  14.202  11.774
72845SOL    HW120309  13.987  14.202  11.831
72845SOL    HW220310  14.138  14.190  11.833
72846SOL     OW20311   8.080   1.428  11.948
72846SOL    HW120312   8.039   1.451  11.864
72846SOL    HW220313   8.123   1.509  11.976
72847SOL     OW20314   1.605  14.596   9.723
72847SOL    HW120315   1.545  14.668   9.743
72847SOL    HW220316   1.564  14.519   9.763
72848SOL     OW20317   2.981  14.235   9.676
72848SOL    HW120318   3.069  14.199   9.676
72848SOL    HW220319   2.947  14.217   9.764
72849SOL     OW20320  11.529   5.344   8.432
72849SOL    HW120321  11.538   5.389   8.516
72849SOL    HW220322  11.465   5.396   8.383
72850SOL     OW20323   1.646   9.683  14.703
72850SOL    HW120324   1.583   9.729  14.646
72850SOL    HW220325   1.593   9.655  14.778
72851SOL     OW20326   2.702   7.266  14.080
72851SOL    HW120327   2.797   7.266  14.066
72851SOL    HW220328   2.690   7.303  14.167
72852SOL     OW20329   3.883   5.050   5.052
72852SOL    HW120330   3.830   5.123   5.019
72852SOL    HW220331   3.867   4.979   4.990
72853SOL     OW20332  10.999  10.035   1.963
72853SOL    HW120333  11.001  10.115   1.911
72853SOL    HW220334  10.981  10.064   2.052
72854SOL     OW20335   6.797   8.070   2.774
72854SOL    HW120336   6.716   8.056   2.724
72854SOL    HW220337   6.826   7.982   2.797
72855SOL     OW20338   8.491   5.303   8.681
72855SOL    HW120339   8.520   5.269   8.766
72855SOL    HW220340   8.442   5.382   8.703
72856SOL     OW20341   3.917   1.016   8.183
72856SOL    HW120342   3.901   1.037   8.091
72856SOL    HW220343   3.902   1.099   8.229
72857SOL     OW20344   9.865   2.267  12.108
72857SOL    HW120345   9.854   2.194  12.170
72857SOL    HW220346   9.852   2.346  12.161
72858SOL     OW20347  12.773   7.741  10.457
72858SOL    HW120348  12.814   7.728  10.543
72858SOL    HW220349  12.686   7.701  10.466
72859SOL     OW20350   9.909   2.859   2.820
72859SOL    HW120351   9.998   2.841   2.851
72859SOL    HW220352   9.852   2.810   2.880
72860SOL     OW20353  12.258   1.104  10.893
72860SOL    HW120354  12.299   1.089  10.808
72860SOL    HW220355  12.172   1.141  10.871
72861SOL     OW20356  11.557   1.551   4.349
72861SOL    HW120357  11.533   1.504   4.429
72861SOL    HW220358  11.545   1.487   4.279
72862SOL     OW20359   4.447   7.692   4.881
72862SOL    HW120360   4.517   7.747   4.916
72862SOL    HW220361   4.435   7.723   4.791
72863SOL     OW20362  10.756   9.685  14.146
72863SOL    HW120363  10.846   9.672  14.174
72863SOL    HW220364  10.737   9.610  14.090
72864SOL     OW20365   7.721   3.253  10.794
72864SOL    HW120366   7.680   3.169  10.777
72864SOL    HW220367   7.788   3.261  10.726
72865SOL     OW20368   8.730   6.258  11.717
72865SOL    HW120369   8.784   6.226  11.644
72865SOL    HW220370   8.749   6.352  11.721
72866SOL     OW20371  12.317   4.707  14.381
72866SOL    HW120372  12.283   4.716  14.470
72866SOL    HW220373  12.355   4.619  14.378
72867SOL     OW20374   9.956   1.209   3.723
72867SOL    HW120375  10.012   1.268   3.673
72867SOL    HW220376   9.896   1.268   3.770
72868SOL     OW20377   0.779   6.394   6.366
72868SOL    HW120378   0.798   6.341   6.444
72868SOL    HW220379   0.706   6.349   6.324
72869SOL     OW20380   3.789   5.072   6.424
72869SOL    HW120381   3.847   5.037   6.492
72869SOL    HW220382   3.847   5.118   6.364
72870SOL     OW20383   1.671  10.412   7.882
72870SOL    HW120384   1.619  10.416   7.963
72870SOL    HW220385   1.737  10.345   7.899
72871SOL     OW20386   4.584   8.533   7.236
72871SOL    HW120387   4.625   8.515   7.151
72871SOL    HW220388   4.561   8.447   7.270
72872SOL     OW20389  10.717   6.862  14.656
72872SOL    HW120390  10.666   6.906  14.589
72872SOL    HW220391  10.786   6.816  14.608
72873SOL     OW20392   7.153  11.678   6.944
72873SOL    HW120393   7.213  11.711   6.877
72873SOL    HW220394   7.173  11.730   7.022
72874SOL     OW20395   9.865  10.208   6.731
72874SOL    HW120396   9.889  10.240   6.643
72874SOL    HW220397   9.864  10.113   6.722
72875SOL     OW20398   9.094   9.493   8.504
72875SOL    HW120399   9.180   9.465   8.536
72875SOL    HW220400   9.115   9.558   8.436
72876SOL     OW20401  13.750   8.798   2.531
72876SOL    HW120402  13.772   8.710   2.562
72876SOL    HW220403  13.763   8.854   2.608
72877SOL     OW20404   5.405   6.749  12.009
72877SOL    HW120405   5.470   6.686  12.040
72877SOL    HW220406   5.422   6.758  11.915
72878SOL     OW20407  10.246   5.035   2.422
72878SOL    HW120408  10.279   5.014   2.334
72878SOL    HW220409  10.188   4.962   2.443
72879SOL     OW20410   9.005  11.688   1.256
72879SOL    HW120411   8.997  11.621   1.188
72879SOL    HW220412   8.946  11.758   1.228
72880SOL     OW20413  11.831   6.667   2.917
72880SOL    HW120414  11.739   6.668   2.890
72880SOL    HW220415  11.845   6.753   2.957
72881SOL     OW20416   6.453   7.969   8.329
72881SOL    HW120417   6.415   8.049   8.365
72881SOL    HW220418   6.485   7.920   8.405
72882SOL     OW20419   7.847   5.692   4.092
72882SOL    HW120420   7.755   5.678   4.115
72882SOL    HW220421   7.885   5.604   4.091
72883SOL     OW20422  10.133   3.523  14.612
72883SOL    HW120423  10.064   3.459  14.625
72883SOL    HW220424  10.159   3.548  14.701
72884SOL     OW20425  14.069   8.582   5.635
72884SOL    HW120426  14.000   8.562   5.699
72884SOL    HW220427  14.147   8.541   5.672
72885SOL     OW20428   3.294  12.609   1.988
72885SOL    HW120429   3.335  12.639   2.069
72885SOL    HW220430   3.237  12.680   1.962
72886SOL     OW20431   0.230   2.599   1.080
72886SOL    HW120432   0.194   2.684   1.056
72886SOL    HW220433   0.256   2.609   1.172
72887SOL     OW20434  14.571  11.838   7.925
72887SOL    HW120435  14.588  11.747   7.900
72887SOL    HW220436  14.539  11.879   7.845
72888SOL     OW20437   3.267   7.236   9.489
72888SOL    HW120438   3.203   7.181   9.445
72888SOL    HW220439   3.233   7.248   9.577
72889SOL     OW20440   3.949   9.749  11.907
72889SOL    HW120441   3.986   9.673  11.952
72889SOL    HW220442   3.924   9.809  11.977
72890SOL     OW20443   1.938   1.871   3.319
72890SOL    HW120444   1.970   1.939   3.260
72890SOL    HW220445   1.850   1.901   3.344
72891SOL     OW20446   1.566   0.829   3.189
72891SOL    HW120447   1.479   0.794   3.208
72891SOL    HW220448   1.608   0.761   3.136
72892SOL     OW20449  13.491   6.872   4.456
72892SOL    HW120450  13.496   6.887   4.361
72892SOL    HW220451  13.579   6.894   4.488
72893SOL     OW20452   6.794   0.172   2.745
72893SOL    HW120453   6.794   0.173   2.649
72893SOL    HW220454   6.776   0.262   2.771
72894SOL     OW20455  11.017  10.643   5.235
72894SOL    HW120456  10.941  10.654   5.292
72894SOL    HW220457  11.022  10.725   5.187
72895SOL     OW20458   0.516   9.459  10.227
72895SOL    HW120459   0.457   9.384  10.215
72895SOL    HW220460   0.538   9.487  10.138
72896SOL     OW20461   5.657   2.047   5.163
72896SOL    HW120462   5.749   2.030   5.181
72896SOL    HW220463   5.657   2.133   5.119
72897SOL     OW20464  12.784   3.741   2.336
72897SOL    HW120465  12.773   3.724   2.429
72897SOL    HW220466  12.870   3.705   2.314
72898SOL     OW20467  11.222   8.931   1.006
72898SOL    HW120468  11.253   8.961   0.921
72898SOL    HW220469  11.164   9.002   1.036
72899SOL     OW20470  13.961  13.312   6.578
72899SOL    HW120471  14.008  13.385   6.539
72899SOL    HW220472  13.868  13.332   6.566
72900SOL     OW20473  14.323  13.155   3.307
72900SOL    HW120474  14.411  13.145   3.270
72900SOL    HW220475  14.318  13.247   3.335
72901SOL     OW20476   6.961   6.904  11.566
72901SOL    HW120477   6.933   6.987  11.604
72901SOL    HW220478   7.029   6.928  11.503
72902SOL     OW20479  14.444   0.094  11.318
72902SOL    HW120480  14.364   0.148  11.314
72902SOL    HW220481  14.471   0.085  11.227
72903SOL     OW20482   4.161  12.826   0.713
72903SOL    HW120483   4.154  12.907   0.763
72903SOL    HW220484   4.215  12.848   0.637
72904SOL     OW20485   3.032   9.951   9.251
72904SOL    HW120486   2.937   9.949   9.263
72904SOL    HW220487   3.065   9.881   9.307
72905SOL     OW20488   9.100   3.022   0.354
72905SOL    HW120489   9.092   3.106   0.308
72905SOL    HW220490   9.029   2.969   0.320
72906SOL     OW20491   7.206   2.897   5.794
72906SOL    HW120492   7.128   2.901   5.740
72906SOL    HW220493   7.178   2.932   5.879
72907SOL     OW20494   1.950  11.884   1.793
72907SOL    HW120495   2.006  11.811   1.819
72907SOL    HW220496   1.879  11.882   1.857
72908SOL     OW20497   3.938  14.478   1.177
72908SOL    HW120498   3.895  14.498   1.095
72908SOL    HW220499   3.992  14.401   1.158
72909SOL     OW20500   1.994   3.748   6.199
72909SOL    HW120501   2.037   3.833   6.193
72909SOL    HW220502   2.066   3.685   6.203
72910SOL     OW20503   3.638   2.810   1.077
72910SOL    HW120504   3.688   2.889   1.098
72910SOL    HW220505   3.650   2.798   0.983
72911SOL     OW20506   2.725   7.633  10.332
72911SOL    HW120507   2.707   7.655  10.241
72911SOL    HW220508   2.764   7.546  10.328
72912SOL     OW20509   8.795   2.715   4.275
72912SOL    HW120510   8.700   2.707   4.261
72912SOL    HW220511   8.803   2.746   4.365
72913SOL     OW20512   9.469  12.700   1.694
72913SOL    HW120513   9.528  12.683   1.620
72913SOL    HW220514   9.485  12.628   1.755
72914SOL     OW20515   0.465  10.547   1.096
72914SOL    HW120516   0.437  10.539   1.005
72914SOL    HW220517   0.499  10.461   1.119
72915SOL     OW20518   3.776   8.633   9.414
72915SOL    HW120519   3.686   8.665   9.409
72915SOL    HW220520   3.767   8.538   9.419
72916SOL     OW20521   1.614   0.486   8.029
72916SOL    HW120522   1.650   0.559   7.979
72916SOL    HW220523   1.536   0.523   8.072
72917SOL     OW20524   5.046   8.357   1.544
72917SOL    HW120525   4.980   8.314   1.489
72917SOL    HW220526   5.027   8.450   1.535
72918SOL     OW20527   7.438   8.919  14.205
72918SOL    HW120528   7.460   8.882  14.120
72918SOL    HW220529   7.396   8.847  14.252
72919SOL     OW20530   9.601   0.226  12.369
72919SOL    HW120531   9.642   0.220  12.455
72919SOL    HW220532   9.619   0.142  12.328
72920SOL     OW20533  13.533   1.359   8.453
72920SOL    HW120534  13.515   1.271   8.420
72920SOL    HW220535  13.519   1.416   8.378
72921SOL     OW20536   7.949   3.560   4.984
72921SOL    HW120537   7.884   3.575   4.916
72921SOL    HW220538   7.909   3.495   5.042
72922SOL     OW20539   5.141   3.230   4.672
72922SOL    HW120540   5.164   3.137   4.662
72922SOL    HW220541   5.207   3.277   4.622
72923SOL     OW20542   7.209   0.393   8.148
72923SOL    HW120543   7.196   0.411   8.055
72923SOL    HW220544   7.130   0.427   8.190
72924SOL     OW20545   5.866   1.567   4.506
72924SOL    HW120546   5.801   1.602   4.567
72924SOL    HW220547   5.950   1.595   4.542
72925SOL     OW20548   1.118   4.096  13.239
72925SOL    HW120549   1.114   4.170  13.179
72925SOL    HW220550   1.037   4.102  13.290
72926SOL     OW20551  11.803   7.778  14.210
72926SOL    HW120552  11.896   7.795  14.218
72926SOL    HW220553  11.798   7.694  14.165
72927SOL     OW20554  13.696   9.100  14.682
72927SOL    HW120555  13.605   9.128  14.677
72927SOL    HW220556  13.736   9.134  14.602
72928SOL     OW20557   7.860   8.506   1.447
72928SOL    HW120558   7.801   8.581   1.449
72928SOL    HW220559   7.866   8.477   1.538
72929SOL     OW20560  12.991  14.005   2.851
72929SOL    HW120561  12.989  13.992   2.946
72929SOL    HW220562  12.926  13.944   2.817
72930SOL     OW20563  12.482   4.225  11.147
72930SOL    HW120564  12.532   4.266  11.218
72930SOL    HW220565  12.472   4.134  11.175
72931SOL     OW20566   5.064  12.458   5.776
72931SOL    HW120567   4.987  12.514   5.788
72931SOL    HW220568   5.030  12.377   5.741
72932SOL     OW20569   0.722   1.953   6.913
72932SOL    HW120570   0.805   1.970   6.870
72932SOL    HW220571   0.698   1.865   6.887
72933SOL     OW20572  10.357   6.321   3.235
72933SOL    HW120573  10.302   6.275   3.299
72933SOL    HW220574  10.312   6.404   3.221
72934SOL     OW20575   8.503   1.273   8.950
72934SOL    HW120576   8.563   1.346   8.966
72934SOL    HW220577   8.528   1.207   9.014
72935SOL     OW20578  11.640   9.704   4.543
72935SOL    HW120579  11.583   9.748   4.605
72935SOL    HW220580  11.597   9.620   4.526
72936SOL     OW20581   2.296  13.887  14.395
72936SOL    HW120582   2.279  13.801  14.435
72936SOL    HW220583   2.215  13.908  14.348
72937SOL     OW20584   9.981  10.328   9.556
72937SOL    HW120585  10.065  10.344   9.597
72937SOL    HW220586   9.995  10.346   9.463
72938SOL     OW20587  11.505   6.280   7.929
72938SOL    HW120588  11.582   6.234   7.962
72938SOL    HW220589  11.538   6.363   7.894
72939SOL     OW20590   7.718   2.807   1.619
72939SOL    HW120591   7.626   2.831   1.628
72939SOL    HW220592   7.739   2.826   1.528
72940SOL     OW20593   2.577   3.446  10.587
72940SOL    HW120594   2.643   3.382  10.560
72940SOL    HW220595   2.531   3.469  10.506
72941SOL     OW20596   8.103   4.301   6.726
72941SOL    HW120597   8.018   4.310   6.769
72941SOL    HW220598   8.082   4.264   6.641
72942SOL     OW20599  12.665  14.763  12.466
72942SOL    HW120600  12.608  14.769  12.389
72942SOL    HW220601  12.754  14.769  12.431
72943SOL     OW20602   4.679   1.899   8.741
72943SOL    HW120603   4.654   1.988   8.715
72943SOL    HW220604   4.597   1.859   8.770
72944SOL     OW20605   8.249   5.447   3.428
72944SOL    HW120606   8.241   5.529   3.476
72944SOL    HW220607   8.191   5.457   3.353
72945SOL     OW20608  10.304   5.545   8.876
72945SOL    HW120609  10.214   5.556   8.906
72945SOL    HW220610  10.342   5.633   8.880
72946SOL     OW20611   5.943   0.660  10.170
72946SOL    HW120612   5.954   0.742  10.121
72946SOL    HW220613   5.856   0.668  10.211
72947SOL     OW20614   9.016   5.638   3.100
72947SOL    HW120615   8.970   5.650   3.017
72947SOL    HW220616   9.019   5.725   3.139
72948SOL     OW20617  12.043   4.292  10.915
72948SOL    HW120618  11.993   4.358  10.962
72948SOL    HW220619  12.014   4.300  10.824
72949SOL     OW20620   5.879   8.168   4.224
72949SOL    HW120621   5.962   8.214   4.227
72949SOL    HW220622   5.900   8.078   4.248
72950SOL     OW20623   5.845  11.404   1.095
72950SOL    HW120624   5.857  11.494   1.125
72950SOL    HW220625   5.815  11.356   1.172
72951SOL     OW20626   3.058   4.506  11.367
72951SOL    HW120627   3.124   4.501  11.435
72951SOL    HW220628   3.090   4.573  11.307
72952SOL     OW20629   3.724   0.197   4.199
72952SOL    HW120630   3.745   0.218   4.108
72952SOL    HW220631   3.780   0.122   4.220
72953SOL     OW20632  10.934  10.610   6.825
72953SOL    HW120633  11.013  10.656   6.852
72953SOL    HW220634  10.863  10.670   6.848
72954SOL     OW20635  12.041   0.490   2.758
72954SOL    HW120636  12.071   0.493   2.667
72954SOL    HW220637  12.073   0.571   2.797
72955SOL     OW20638   7.506  11.819   4.880
72955SOL    HW120639   7.548  11.891   4.926
72955SOL    HW220640   7.537  11.826   4.790
72956SOL     OW20641   4.849   1.493   8.749
72956SOL    HW120642   4.938   1.510   8.717
72956SOL    HW220643   4.800   1.571   8.727
72957SOL     OW20644  10.454  14.541   8.057
72957SOL    HW120645  10.474  14.478   7.988
72957SOL    HW220646  10.508  14.617   8.036
72958SOL     OW20647  14.275   4.928   8.463
72958SOL    HW120648  14.352   4.971   8.502
72958SOL    HW220649  14.257   4.854   8.521
72959SOL     OW20650  11.230   0.975   9.223
72959SOL    HW120651  11.233   1.061   9.180
72959SOL    HW220652  11.296   0.923   9.178
72960SOL     OW20653  11.359   2.105   2.618
72960SOL    HW120654  11.398   2.190   2.639
72960SOL    HW220655  11.328   2.072   2.702
72961SOL     OW20656   2.861   2.933  12.091
72961SOL    HW120657   2.914   3.010  12.115
72961SOL    HW220658   2.835   2.895  12.175
72962SOL     OW20659  12.208  12.189   7.973
72962SOL    HW120660  12.180  12.264   8.026
72962SOL    HW220661  12.264  12.227   7.906
72963SOL     OW20662  10.695  11.820   1.488
72963SOL    HW120663  10.658  11.803   1.401
72963SOL    HW220664  10.734  11.907   1.481
72964SOL     OW20665  11.335   0.507   7.045
72964SOL    HW120666  11.336   0.417   7.012
72964SOL    HW220667  11.418   0.545   7.015
72965SOL     OW20668   9.886   1.685  13.593
72965SOL    HW120669   9.801   1.728  13.604
72965SOL    HW220670   9.866   1.591  13.601
72966SOL     OW20671   1.855   1.738  12.202
72966SOL    HW120672   1.871   1.669  12.266
72966SOL    HW220673   1.875   1.819  12.249
72967SOL     OW20674  12.695   6.872  11.002
72967SOL    HW120675  12.718   6.817  10.926
72967SOL    HW220676  12.658   6.951  10.964
72968SOL     OW20677   5.629  13.164  14.795
72968SOL    HW120678   5.613  13.259  14.789
72968SOL    HW220679   5.723  13.155  14.779
72969SOL     OW20680   5.343  12.500  11.215
72969SOL    HW120681   5.302  12.487  11.129
72969SOL    HW220682   5.279  12.466  11.277
72970SOL     OW20683  10.179  12.944   7.632
72970SOL    HW120684  10.129  12.926   7.552
72970SOL    HW220685  10.269  12.923   7.609
72971SOL     OW20686   3.829  12.545  11.519
72971SOL    HW120687   3.858  12.628  11.483
72971SOL    HW220688   3.741  12.533  11.484
72972SOL     OW20689  13.623  11.053   1.395
72972SOL    HW120690  13.602  10.977   1.449
72972SOL    HW220691  13.638  11.017   1.307
72973SOL     OW20692   5.040   2.625   0.071
72973SOL    HW120693   5.045   2.720   0.069
72973SOL    HW220694   5.127   2.596   0.044
72974SOL     OW20695   8.385  10.920   2.592
72974SOL    HW120696   8.361  10.987   2.656
72974SOL    HW220697   8.467  10.883   2.624
72975SOL     OW20698   9.616   7.463   9.343
72975SOL    HW120699   9.541   7.406   9.327
72975SOL    HW220700   9.656   7.428   9.423
72976SOL     OW20701  11.301  12.803  13.048
72976SOL    HW120702  11.334  12.746  12.978
72976SOL    HW220703  11.378  12.852  13.077
72977SOL     OW20704   0.242  13.876   6.037
72977SOL    HW120705   0.294  13.827   5.973
72977SOL    HW220706   0.285  13.961   6.042
72978SOL     OW20707  10.007  13.267   4.384
72978SOL    HW120708   9.946  13.328   4.342
72978SOL    HW220709  10.019  13.197   4.319
72979SOL     OW20710   4.258  11.119  11.172
72979SOL    HW120711   4.276  11.170  11.094
72979SOL    HW220712   4.321  11.047  11.169
72980SOL     OW20713   7.845   9.941   9.814
72980SOL    HW120714   7.898  10.021   9.814
72980SOL    HW220715   7.863   9.900   9.729
72981SOL     OW20716  11.298   8.088   1.790
72981SOL    HW120717  11.384   8.049   1.773
72981SOL    HW220718  11.293   8.161   1.728
72982SOL     OW20719   6.778  13.139   7.595
72982SOL    HW120720   6.756  13.049   7.618
72982SOL    HW220721   6.779  13.140   7.499
72983SOL     OW20722   1.034  10.172   4.462
72983SOL    HW120723   1.058  10.106   4.527
72983SOL    HW220724   1.093  10.246   4.479
72984SOL     OW20725   0.031   1.981   2.810
72984SOL    HW120726   0.010   2.038   2.884
72984SOL    HW220727  14.828   1.945   2.783
72985SOL     OW20728  10.721   3.545   4.379
72985SOL    HW120729  10.729   3.533   4.285
72985SOL    HW220730  10.718   3.640   4.390
72986SOL     OW20731  11.070  11.409   6.209
72986SOL    HW120732  11.157  11.445   6.221
72986SOL    HW220733  11.049  11.366   6.292
72987SOL     OW20734   3.668   9.569   4.002
72987SOL    HW120735   3.758   9.539   3.994
72987SOL    HW220736   3.670   9.659   3.968
72988SOL     OW20737   0.345   1.664  14.665
72988SOL    HW120738   0.361   1.743  14.614
72988SOL    HW220739   0.417   1.606  14.642
72989SOL     OW20740   2.875  12.993   5.152
72989SOL    HW120741   2.899  12.921   5.095
72989SOL    HW220742   2.838  13.059   5.094
72990SOL     OW20743   5.230   4.068  11.974
72990SOL    HW120744   5.312   4.117  11.969
72990SOL    HW220745   5.164   4.128  11.938
72991SOL     OW20746   6.431  10.439   5.944
72991SOL    HW120747   6.358  10.453   6.004
72991SOL    HW220748   6.406  10.486   5.865
72992SOL     OW20749   6.485   3.241  13.730
72992SOL    HW120750   6.494   3.288  13.813
72992SOL    HW220751   6.515   3.152  13.749
72993SOL     OW20752  13.470   5.883   0.823
72993SOL    HW120753  13.520   5.827   0.881
72993SOL    HW220754  13.381   5.881   0.858
72994SOL     OW20755  10.596   2.915   1.247
72994SOL    HW120756  10.613   2.865   1.167
72994SOL    HW220757  10.525   2.868   1.290
72995SOL     OW20758  11.668   4.755  12.173
72995SOL    HW120759  11.630   4.676  12.135
72995SOL    HW220760  11.750   4.767  12.126
72996SOL     OW20761  11.637  10.533  14.001
72996SOL    HW120762  11.608  10.476  13.929
72996SOL    HW220763  11.653  10.472  14.073
72997SOL     OW20764   5.959  10.877  14.155
72997SOL    HW120765   6.020  10.822  14.105
72997SOL    HW220766   6.013  10.917  14.222
72998SOL     OW20767  11.293   1.737   4.280
72998SOL    HW120768  11.321   1.828   4.267
72998SOL    HW220769  11.373   1.686   4.266
72999SOL     OW20770   4.751   2.820   0.456
72999SOL    HW120771   4.753   2.888   0.523
72999SOL    HW220772   4.658   2.807   0.438
73000SOL     OW20773  10.457   0.831   6.463
73000SOL    HW120774  10.477   0.811   6.371
73000SOL    HW220775  10.399   0.906   6.459
73001SOL     OW20776   6.906   6.433  13.705
73001SOL    HW120777   6.931   6.501  13.644
73001SOL    HW220778   6.877   6.480  13.784
73002SOL     OW20779   9.914   5.998  12.962
73002SOL    HW120780   9.839   6.056  12.946
73002SOL    HW220781   9.964   6.042  13.031
73003SOL     OW20782   7.356   8.591   8.720
73003SOL    HW120783   7.314   8.537   8.653
73003SOL    HW220784   7.440   8.549   8.737
73004SOL     OW20785  13.960  11.657   4.880
73004SOL    HW120786  13.882  11.648   4.825
73004SOL    HW220787  13.950  11.743   4.923
73005SOL     OW20788   1.545  13.665   1.584
73005SOL    HW120789   1.472  13.656   1.522
73005SOL    HW220790   1.506  13.644   1.669
73006SOL     OW20791  14.623   0.674   8.642
73006SOL    HW120792  14.529   0.681   8.622
73006SOL    HW220793  14.652   0.600   8.588
73007SOL     OW20794  14.870   2.346   9.850
73007SOL    HW120795   0.015   2.422   9.798
73007SOL    HW220796   0.028   2.271   9.806
73008SOL     OW20797   1.608   2.511  10.723
73008SOL    HW120798   1.696   2.507  10.687
73008SOL    HW220799   1.580   2.601  10.709
73009SOL     OW20800  14.384  10.798   6.027
73009SOL    HW120801  14.419  10.789   6.116
73009SOL    HW220802  14.395  10.891   6.007
73010SOL     OW20803   1.478   9.287  10.012
73010SOL    HW120804   1.493   9.333  10.095
73010SOL    HW220805   1.448   9.355   9.952
73011SOL     OW20806   8.799   4.886   2.537
73011SOL    HW120807   8.846   4.956   2.583
73011SOL    HW220808   8.869   4.835   2.495
73012SOL     OW20809   3.839  14.627   7.366
73012SOL    HW120810   3.932  14.621   7.344
73012SOL    HW220811   3.826  14.718   7.390
73013SOL     OW20812  10.632  13.154  14.103
73013SOL    HW120813  10.664  13.064  14.101
73013SOL    HW220814  10.644  13.186  14.014
73014SOL     OW20815   4.462  10.866   9.194
73014SOL    HW120816   4.441  10.938   9.253
73014SOL    HW220817   4.388  10.806   9.201
73015SOL     OW20818   7.943   2.853   8.368
73015SOL    HW120819   8.019   2.904   8.342
73015SOL    HW220820   7.947   2.774   8.314
73016SOL     OW20821   1.199  13.280   9.169
73016SOL    HW120822   1.257  13.340   9.216
73016SOL    HW220823   1.217  13.295   9.077
73017SOL     OW20824   0.933   9.189  11.326
73017SOL    HW120825   0.847   9.229  11.337
73017SOL    HW220826   0.923   9.101  11.363
73018SOL     OW20827   1.328   8.877   6.760
73018SOL    HW120828   1.350   8.906   6.849
73018SOL    HW220829   1.253   8.931   6.735
73019SOL     OW20830   0.350   9.702   3.771
73019SOL    HW120831   0.266   9.749   3.777
73019SOL    HW220832   0.407   9.747   3.834
73020SOL     OW20833   4.212   2.168  14.009
73020SOL    HW120834   4.153   2.094  13.995
73020SOL    HW220835   4.296   2.139  13.976
73021SOL     OW20836   6.887  12.372  10.824
73021SOL    HW120837   6.815  12.416  10.869
73021SOL    HW220838   6.884  12.282  10.856
73022SOL     OW20839   1.455   3.740   5.886
73022SOL    HW120840   1.432   3.678   5.817
73022SOL    HW220841   1.379   3.797   5.893
73023SOL     OW20842  12.131   0.501  11.823
73023SOL    HW120843  12.057   0.550  11.789
73023SOL    HW220844  12.165   0.453  11.748
73024SOL     OW20845   0.654   9.165   7.597
73024SOL    HW120846   0.665   9.247   7.646
73024SOL    HW220847   0.561   9.163   7.573
73025SOL     OW20848  12.371   3.650  10.062
73025SOL    HW120849  12.277   3.646  10.080
73025SOL    HW220850  12.382   3.732  10.014
73026SOL     OW20851   4.491  14.589   2.880
73026SOL    HW120852   4.419  14.639   2.842
73026SOL    HW220853   4.555  14.655   2.907
73027SOL     OW20854  13.231  10.568  12.634
73027SOL    HW120855  13.221  10.501  12.567
73027SOL    HW220856  13.307  10.540  12.686
73028SOL     OW20857   3.184  11.324   2.351
73028SOL    HW120858   3.255  11.377   2.314
73028SOL    HW220859   3.224  11.280   2.427
73029SOL     OW20860   9.313   9.618   2.363
73029SOL    HW120861   9.267   9.607   2.280
73029SOL    HW220862   9.396   9.659   2.339
73030SOL     OW20863   4.690   1.720  13.627
73030SOL    HW120864   4.620   1.712  13.692
73030SOL    HW220865   4.700   1.631  13.591
73031SOL     OW20866  12.997   8.061   6.470
73031SOL    HW120867  13.068   8.050   6.407
73031SOL    HW220868  13.015   8.146   6.511
73032SOL     OW20869  14.107   4.760   4.046
73032SOL    HW120870  14.083   4.781   4.136
73032SOL    HW220871  14.084   4.838   3.995
73033SOL     OW20872   4.528   6.080   1.336
73033SOL    HW120873   4.586   6.054   1.264
73033SOL    HW220874   4.445   6.100   1.293
73034SOL     OW20875   0.066   3.702   2.093
73034SOL    HW120876   0.137   3.693   2.029
73034SOL    HW220877  14.880   3.641   2.063
73035SOL     OW20878   3.788   3.695   5.902
73035SOL    HW120879   3.738   3.640   5.841
73035SOL    HW220880   3.862   3.727   5.851
73036SOL     OW20881  11.414   6.476  11.015
73036SOL    HW120882  11.331   6.432  10.995
73036SOL    HW220883  11.387   6.560  11.054
73037SOL     OW20884  14.297   9.751  14.470
73037SOL    HW120885  14.271   9.671  14.425
73037SOL    HW220886  14.390   9.761  14.449
73038SOL     OW20887   3.710   0.578   7.056
73038SOL    HW120888   3.623   0.617   7.053
73038SOL    HW220889   3.703   0.497   7.005
73039SOL     OW20890   1.877  10.086   3.792
73039SOL    HW120891   1.965  10.058   3.816
73039SOL    HW220892   1.839  10.010   3.746
73040SOL     OW20893   0.747   6.821   8.774
73040SOL    HW120894   0.759   6.757   8.844
73040SOL    HW220895   0.793   6.784   8.699
73041SOL     OW20896   1.848  10.611   6.837
73041SOL    HW120897   1.867  10.654   6.754
73041SOL    HW220898   1.830  10.520   6.813
73042SOL     OW20899   7.754  11.431   1.847
73042SOL    HW120900   7.722  11.440   1.757
73042SOL    HW220901   7.849  11.417   1.837
73043SOL     OW20902   9.264   9.666   1.307
73043SOL    HW120903   9.180   9.685   1.350
73043SOL    HW220904   9.249   9.687   1.215
73044SOL     OW20905  12.548   1.457   7.338
73044SOL    HW120906  12.531   1.397   7.265
73044SOL    HW220907  12.464   1.498   7.355
73045SOL     OW20908  12.072   8.658   5.075
73045SOL    HW120909  12.066   8.620   5.162
73045SOL    HW220910  12.045   8.750   5.087
73046SOL     OW20911  10.744  10.300   9.431
73046SOL    HW120912  10.717  10.213   9.459
73046SOL    HW220913  10.818  10.285   9.372
73047SOL     OW20914   2.468  13.092   9.216
73047SOL    HW120915   2.452  13.101   9.122
73047SOL    HW220916   2.559  13.062   9.222
73048SOL     OW20917  11.655   9.942   9.829
73048SOL    HW120918  11.716   9.930   9.756
73048SOL    HW220919  11.684  10.021   9.873
73049SOL     OW20920  10.236   7.680  13.275
73049SOL    HW120921  10.235   7.775  13.263
73049SOL    HW220922  10.319   7.662  13.320
73050SOL     OW20923   7.124   8.918  13.781
73050SOL    HW120924   7.187   8.983  13.811
73050SOL    HW220925   7.085   8.956  13.702
73051SOL     OW20926   6.307   3.024  11.603
73051SOL    HW120927   6.274   2.948  11.650
73051SOL    HW220928   6.281   3.099  11.656
73052SOL     OW20929   7.427   6.828  14.583
73052SOL    HW120930   7.404   6.847  14.492
73052SOL    HW220931   7.466   6.741  14.580
73053SOL     OW20932   9.072  10.451   0.706
73053SOL    HW120933   9.145  10.448   0.645
73053SOL    HW220934   9.064  10.543   0.729
73054SOL     OW20935  12.370   6.824  10.992
73054SOL    HW120936  12.444   6.790  11.043
73054SOL    HW220937  12.305   6.850  11.057
73055SOL     OW20938  10.562   8.894   2.015
73055SOL    HW120939  10.507   8.941   1.953
73055SOL    HW220940  10.634   8.860   1.962
73056SOL     OW20941   1.692  13.869   7.999
73056SOL    HW120942   1.627  13.873   7.929
73056SOL    HW220943   1.744  13.948   7.988
73057SOL     OW20944  10.096   8.495   3.122
73057SOL    HW120945  10.065   8.430   3.186
73057SOL    HW220946  10.119   8.443   3.045
73058SOL     OW20947   6.059   6.263   2.407
73058SOL    HW120948   6.057   6.358   2.423
73058SOL    HW220949   6.003   6.250   2.331
73059SOL     OW20950   7.067   2.377   1.137
73059SOL    HW120951   7.083   2.422   1.054
73059SOL    HW220952   7.076   2.284   1.116
73060SOL     OW20953   5.337   9.480   8.754
73060SOL    HW120954   5.276   9.490   8.827
73060SOL    HW220955   5.420   9.515   8.786
73061SOL     OW20956   7.984  14.291   2.991
73061SOL    HW120957   7.960  14.205   3.024
73061SOL    HW220958   8.077  14.300   3.012
73062SOL     OW20959   8.144   5.635   5.812
73062SOL    HW120960   8.212   5.657   5.876
73062SOL    HW220961   8.070   5.606   5.865
73063SOL     OW20962  12.932   9.519  14.500
73063SOL    HW120963  12.867   9.579  14.536
73063SOL    HW220964  12.981   9.489  14.577
73064SOL     OW20965   1.629   5.866   8.405
73064SOL    HW120966   1.614   5.796   8.341
73064SOL    HW220967   1.709   5.839   8.451
73065SOL     OW20968   4.346   5.580  14.175
73065SOL    HW120969   4.271   5.626  14.214
73065SOL    HW220970   4.422   5.626  14.210
73066SOL     OW20971  13.873   0.003   0.453
73066SOL    HW120972  13.909   0.090   0.468
73066SOL    HW220973  13.812   0.014   0.381
73067SOL     OW20974   0.764   3.685   9.566
73067SOL    HW120975   0.698   3.624   9.534
73067SOL    HW220976   0.723   3.771   9.556
73068SOL     OW20977  13.663   3.388   8.092
73068SOL    HW120978  13.580   3.363   8.052
73068SOL    HW220979  13.638   3.451   8.161
73069SOL     OW20980   0.648   0.777   8.071
73069SOL    HW120981   0.712   0.837   8.034
73069SOL    HW220982   0.682   0.690   8.048
73070SOL     OW20983  11.197   1.455   7.814
73070SOL    HW120984  11.193   1.385   7.748
73070SOL    HW220985  11.136   1.521   7.782
73071SOL     OW20986   4.357  14.548   9.047
73071SOL    HW120987   4.451  14.540   9.059
73071SOL    HW220988   4.325  14.458   9.049
73072SOL     OW20989  14.673   8.503  13.178
73072SOL    HW120990  14.735   8.566  13.142
73072SOL    HW220991  14.587   8.540  13.158
73073SOL     OW20992   4.887   6.804   0.005
73073SOL    HW120993   4.819   6.845   0.058
73073SOL    HW220994   4.840   6.758  14.818
73074SOL     OW20995   2.845  11.831  12.256
73074SOL    HW120996   2.906  11.828  12.182
73074SOL    HW220997   2.782  11.761  12.237
73075SOL     OW20998   6.768  11.606   6.965
73075SOL    HW120999   6.766  11.660   7.044
73075SOL    HW221000   6.837  11.541   6.981
73076SOL     OW21001  10.646   1.852   1.621
73076SOL    HW121002  10.708   1.791   1.663
73076SOL    HW221003  10.561   1.829   1.658
73077SOL     OW21004  14.859  12.764  11.315
73077SOL    HW121005   0.061  12.797  11.284
73077SOL    HW221006  14.881  12.706  11.388
73078SOL     OW21007  11.745   2.978   2.934
73078SOL    HW121008  11.672   2.977   2.872
73078SOL    HW221009  11.803   3.047   2.903
73079SOL     OW21010   5.908   3.896  13.332
73079SOL    HW121011   5.879   3.988  13.336
73079SOL    HW221012   5.827   3.845  13.331
73080SOL     OW21013  13.319   6.620  14.045
73080SOL    HW121014  13.311   6.526  14.025
73080SOL    HW221015  13.278   6.629  14.132
73081SOL     OW21016  13.499  12.848  10.354
73081SOL    HW121017  13.419  12.901  10.355
73081SOL    HW221018  13.474  12.766  10.397
73082SOL     OW21019  12.812   4.161  12.273
73082SOL    HW121020  12.849   4.238  12.229
73082SOL    HW221021  12.730   4.144  12.226
73083SOL     OW21022   2.756   6.271   7.536
73083SOL    HW121023   2.765   6.300   7.445
73083SOL    HW221024   2.834   6.219   7.552
73084SOL     OW21025   0.506   2.987  12.047
73084SOL    HW121026   0.552   2.954  11.969
73084SOL    HW221027   0.434   3.038  12.012
73085SOL     OW21028  10.397   6.947   0.763
73085SOL    HW121029  10.351   6.883   0.707
73085SOL    HW221030  10.358   7.031   0.740
73086SOL     OW21031   4.257   9.259   7.862
73086SOL    HW121032   4.325   9.292   7.803
73086SOL    HW221033   4.233   9.334   7.916
73087SOL     OW21034   8.262  11.832  11.138
73087SOL    HW121035   8.251  11.742  11.107
73087SOL    HW221036   8.350  11.835  11.173
73088SOL     OW21037   9.113   0.716   2.980
73088SOL    HW121038   9.133   0.623   2.969
73088SOL    HW221039   9.189   0.752   3.025
73089SOL     OW21040  14.024  12.027  14.270
73089SOL    HW121041  14.010  11.941  14.231
73089SOL    HW221042  14.118  12.043  14.258
73090SOL     OW21043  10.368   7.191  11.734
73090SOL    HW121044  10.383   7.280  11.763
73090SOL    HW221045  10.456   7.156  11.716
73091SOL     OW21046  10.417   4.453   1.691
73091SOL    HW121047  10.448   4.543   1.681
73091SOL    HW221048  10.349   4.458   1.758
73092SOL     OW21049   1.571   4.746   3.981
73092SOL    HW121050   1.483   4.742   3.944
73092SOL    HW221051   1.629   4.720   3.910
73093SOL     OW21052  10.376   7.628  10.192
73093SOL    HW121053  10.367   7.537  10.219
73093SOL    HW221054  10.288   7.654  10.164
73094SOL     OW21055  11.287  14.419   1.925
73094SOL    HW121056  11.347  14.353   1.961
73094SOL    HW221057  11.252  14.379   1.845
73095SOL     OW21058   0.659   7.349   1.314
73095SOL    HW121059   0.639   7.301   1.395
73095SOL    HW221060   0.591   7.416   1.309
73096SOL     OW21061  14.042   5.999   0.935
73096SOL    HW121062  14.108   5.984   0.867
73096SOL    HW221063  14.093   6.002   1.017
73097SOL     OW21064   1.592   6.917   2.773
73097SOL    HW121065   1.550   6.831   2.768
73097SOL    HW221066   1.614   6.939   2.683
73098SOL     OW21067  14.673   7.387  13.318
73098SOL    HW121068  14.598   7.371  13.260
73098SOL    HW221069  14.638   7.373  13.406
73099SOL     OW21070  10.799  12.396  10.167
73099SOL    HW121071  10.836  12.465  10.221
73099SOL    HW221072  10.856  12.392  10.090
73100SOL     OW21073  10.089  10.802   1.788
73100SOL    HW121074  10.094  10.722   1.841
73100SOL    HW221075  10.112  10.773   1.699
73101SOL     OW21076  10.445  11.816   8.701
73101SOL    HW121077  10.369  11.788   8.752
73101SOL    HW221078  10.507  11.743   8.709
73102SOL     OW21079   7.330   3.882   7.780
73102SOL    HW121080   7.376   3.882   7.864
73102SOL    HW221081   7.237   3.886   7.804
73103SOL     OW21082   0.827   3.656   8.839
73103SOL    HW121083   0.815   3.592   8.909
73103SOL    HW221084   0.750   3.646   8.783
73104SOL     OW21085   7.675   6.418  11.651
73104SOL    HW121086   7.737   6.411  11.579
73104SOL    HW221087   7.594   6.449  11.610
73105SOL     OW21088   6.651   5.329   2.234
73105SOL    HW121089   6.629   5.295   2.148
73105SOL    HW221090   6.573   5.378   2.261
73106SOL     OW21091   4.681  10.629  11.037
73106SOL    HW121092   4.765  10.585  11.029
73106SOL    HW221093   4.676  10.655  11.129
73107SOL     OW21094   1.385  11.349   6.149
73107SOL    HW121095   1.449  11.283   6.120
73107SOL    HW221096   1.364  11.398   6.070
73108SOL     OW21097   7.573  11.066   7.452
73108SOL    HW121098   7.529  11.134   7.401
73108SOL    HW221099   7.597  11.000   7.387
73109SOL     OW21100  12.064   2.890  11.500
73109SOL    HW121101  12.127   2.851  11.440
73109SOL    HW221102  12.114   2.907  11.580
73110SOL     OW21103   5.228   3.502   3.394
73110SOL    HW121104   5.279   3.580   3.371
73110SOL    HW221105   5.137   3.529   3.381
73111SOL     OW21106  13.327  11.068  13.126
73111SOL    HW121107  13.236  11.089  13.144
73111SOL    HW221108  13.359  11.027  13.206
73112SOL     OW21109   6.967   0.643   0.519
73112SOL    HW121110   6.949   0.717   0.460
73112SOL    HW221111   7.036   0.674   0.577
73113SOL     OW21112   3.649   0.083  11.863
73113SOL    HW121113   3.634   0.130  11.781
73113SOL    HW221114   3.719   0.133  11.906
73114SOL     OW21115   5.601   1.901   0.399
73114SOL    HW121116   5.628   1.928   0.312
73114SOL    HW221117   5.522   1.848   0.385
73115SOL     OW21118   5.832   1.545   2.633
73115SOL    HW121119   5.771   1.527   2.705
73115SOL    HW221120   5.809   1.634   2.604
73116SOL     OW21121   8.685   3.283   4.488
73116SOL    HW121122   8.700   3.264   4.396
73116SOL    HW221123   8.660   3.376   4.490
73117SOL     OW21124   2.272   9.897   1.525
73117SOL    HW121125   2.226   9.935   1.450
73117SOL    HW221126   2.330   9.831   1.486
73118SOL     OW21127  13.305   4.879  12.573
73118SOL    HW121128  13.366   4.842  12.636
73118SOL    HW221129  13.265   4.953  12.619
73119SOL     OW21130   0.824  12.129  13.999
73119SOL    HW121131   0.859  12.211  14.035
73119SOL    HW221132   0.730  12.143  13.995
73120SOL     OW21133  11.381   1.235   7.015
73120SOL    HW121134  11.393   1.205   7.106
73120SOL    HW221135  11.406   1.159   6.962
73121SOL     OW21136   5.953   0.949  10.371
73121SOL    HW121137   5.925   0.894  10.298
73121SOL    HW221138   6.031   0.994  10.338
73122SOL     OW21139  11.204   4.113  12.035
73122SOL    HW121140  11.265   4.142  12.103
73122SOL    HW221141  11.140   4.184  12.028
73123SOL     OW21142   4.236  11.066   3.515
73123SOL    HW121143   4.172  11.005   3.478
73123SOL    HW221144   4.210  11.076   3.606
73124SOL     OW21145   0.133   5.558   3.038
73124SOL    HW121146   0.124   5.617   3.113
73124SOL    HW221147   0.115   5.471   3.073
73125SOL     OW21148  11.584   5.250   3.447
73125SOL    HW121149  11.640   5.256   3.370
73125SOL    HW221150  11.510   5.308   3.428
73126SOL     OW21151   6.388   9.021   1.182
73126SOL    HW121152   6.468   9.069   1.204
73126SOL    HW221153   6.357   9.062   1.101
73127SOL     OW21154  13.922   9.210   7.834
73127SOL    HW121155  13.955   9.247   7.916
73127SOL    HW221156  13.986   9.237   7.768
73128SOL     OW21157   4.458  12.633   1.303
73128SOL    HW121158   4.541  12.634   1.257
73128SOL    HW221159   4.468  12.700   1.371
73129SOL     OW21160  13.139   8.651   1.087
73129SOL    HW121161  13.125   8.566   1.128
73129SOL    HW221162  13.210   8.691   1.137
73130SOL     OW21163   6.202   3.717   5.566
73130SOL    HW121164   6.271   3.701   5.631
73130SOL    HW221165   6.218   3.652   5.498
73131SOL     OW21166  12.045   9.881   8.988
73131SOL    HW121167  12.069   9.972   9.008
73131SOL    HW221168  11.972   9.888   8.926
73132SOL     OW21169   1.131   5.263   3.151
73132SOL    HW121170   1.150   5.277   3.244
73132SOL    HW221171   1.174   5.335   3.106
73133SOL     OW21172   3.886   9.550   5.674
73133SOL    HW121173   3.946   9.624   5.663
73133SOL    HW221174   3.900   9.523   5.765
73134SOL     OW21175   5.999   9.227   7.387
73134SOL    HW121176   5.928   9.287   7.367
73134SOL    HW221177   5.958   9.141   7.389
73135SOL     OW21178   2.932  14.813   9.454
73135SOL    HW121179   2.946   0.020   9.488
73135SOL    HW221180   2.852  14.782   9.496
73136SOL     OW21181   3.215  14.298   1.391
73136SOL    HW121182   3.157  14.362   1.348
73136SOL    HW221183   3.207  14.219   1.337
73137SOL     OW21184   2.933   3.854   0.580
73137SOL    HW121185   2.861   3.905   0.543
73137SOL    HW221186   3.005   3.864   0.518
73138SOL     OW21187  12.496  14.020   0.912
73138SOL    HW121188  12.502  14.084   0.842
73138SOL    HW221189  12.582  13.978   0.914
73139SOL     OW21190   1.396   5.744  14.508
73139SOL    HW121191   1.454   5.801  14.458
73139SOL    HW221192   1.450   5.667  14.528
73140SOL     OW21193   1.286  11.032  13.810
73140SOL    HW121194   1.309  10.961  13.869
73140SOL    HW221195   1.295  11.111  13.862
73141SOL     OW21196  12.758   8.503   2.017
73141SOL    HW121197  12.762   8.469   2.106
73141SOL    HW221198  12.727   8.429   1.964
73142SOL     OW21199   7.714   7.014  11.988
73142SOL    HW121200   7.770   6.974  11.921
73142SOL    HW221201   7.625   6.993  11.960
73143SOL     OW21202   1.646   9.154   9.312
73143SOL    HW121203   1.672   9.135   9.402
73143SOL    HW221204   1.629   9.249   9.311
73144SOL     OW21205   5.321   5.343   7.623
73144SOL    HW121206   5.313   5.412   7.688
73144SOL    HW221207   5.232   5.328   7.591
73145SOL     OW21208  12.007  10.742  14.174
73145SOL    HW121209  12.057  10.672  14.134
73145SOL    HW221210  12.017  10.816  14.113
73146SOL     OW21211   0.923  11.049   9.662
73146SOL    HW121212   0.876  11.075   9.742
73146SOL    HW221213   0.964  10.966   9.685
73147SOL     OW21214   9.471   7.709   3.560
73147SOL    HW121215   9.428   7.686   3.477
73147SOL    HW221216   9.462   7.630   3.614
73148SOL     OW21217   2.243  12.870  11.562
73148SOL    HW121218   2.238  12.847  11.470
73148SOL    HW221219   2.226  12.964  11.564
73149SOL     OW21220   1.104   1.647  11.056
73149SOL    HW121221   1.049   1.633  10.979
73149SOL    HW221222   1.143   1.733  11.043
73150SOL     OW21223  10.955  13.879  14.870
73150SOL    HW121224  11.046  13.851  14.874
73150SOL    HW221225  10.936  13.915   0.075
73151SOL     OW21226  11.773   1.776  13.542
73151SOL    HW121227  11.694   1.724  13.529
73151SOL    HW221228  11.831   1.750  13.470
73152SOL     OW21229   3.120   0.866  11.341
73152SOL    HW121230   3.054   0.910  11.287
73152SOL    HW221231   3.069   0.809  11.399
73153SOL     OW21232   7.425   6.421  11.160
73153SOL    HW121233   7.495   6.383  11.214
73153SOL    HW221234   7.345   6.383  11.196
73154SOL     OW21235  11.573  10.526  10.135
73154SOL    HW121236  11.655  10.561  10.102
73154SOL    HW221237  11.575  10.544  10.229
73155SOL     OW21238   4.358   9.490  13.721
73155SOL    HW121239   4.399   9.572  13.748
73155SOL    HW221240   4.364   9.490  13.625
73156SOL     OW21241   6.476  12.701  12.833
73156SOL    HW121242   6.461  12.612  12.801
73156SOL    HW221243   6.549  12.694  12.894
73157SOL     OW21244   5.877   1.055   1.874
73157SOL    HW121245   5.952   1.114   1.885
73157SOL    HW221246   5.813   1.086   1.937
73158SOL     OW21247   9.398   3.144   4.087
73158SOL    HW121248   9.484   3.124   4.123
73158SOL    HW221249   9.341   3.152   4.163
73159SOL     OW21250   6.937   2.357  11.018
73159SOL    HW121251   6.856   2.369  11.068
73159SOL    HW221252   6.997   2.316  11.079
73160SOL     OW21253   7.619   0.135   9.315
73160SOL    HW121254   7.553   0.125   9.383
73160SOL    HW221255   7.573   0.112   9.234
73161SOL     OW21256  10.853   2.364  11.835
73161SOL    HW121257  10.878   2.443  11.882
73161SOL    HW221258  10.764   2.346  11.864
73162SOL     OW21259   9.722  12.874   0.214
73162SOL    HW121260   9.768  12.790   0.204
73162SOL    HW221261   9.671  12.882   0.133
73163SOL     OW21262  11.556  12.478  10.236
73163SOL    HW121263  11.593  12.433  10.313
73163SOL    HW221264  11.553  12.570  10.261
73164SOL     OW21265   1.239  14.353   3.323
73164SOL    HW121266   1.201  14.387   3.404
73164SOL    HW221267   1.201  14.407   3.254
73165SOL     OW21268  12.673   9.938   4.724
73165SOL    HW121269  12.702   9.977   4.641
73165SOL    HW221270  12.677  10.010   4.787
73166SOL     OW21271   2.179  12.266   3.026
73166SOL    HW121272   2.247  12.269   3.094
73166SOL    HW221273   2.224  12.233   2.949
73167SOL     OW21274   3.237  13.172  13.568
73167SOL    HW121275   3.159  13.212  13.530
73167SOL    HW221276   3.216  13.079  13.572
73168SOL     OW21277  14.084   5.089  14.725
73168SOL    HW121278  14.001   5.055  14.695
73168SOL    HW221279  14.150   5.046  14.670
73169SOL     OW21280   1.134   4.010  11.990
73169SOL    HW121281   1.114   4.062  12.068
73169SOL    HW221282   1.196   4.063  11.941
73170SOL     OW21283   7.087   6.306   6.330
73170SOL    HW121284   7.103   6.362   6.406
73170SOL    HW221285   6.993   6.294   6.329
73171SOL     OW21286  13.604  13.170  10.076
73171SOL    HW121287  13.600  13.238  10.143
73171SOL    HW221288  13.675  13.198  10.018
73172SOL     OW21289   4.430   0.221  12.073
73172SOL    HW121290   4.392   0.201  11.987
73172SOL    HW221291   4.523   0.204  12.063
73173SOL     OW21292   3.826   4.308  10.378
73173SOL    HW121293   3.860   4.395  10.363
73173SOL    HW221294   3.731   4.318  10.373
73174SOL     OW21295   2.481   8.317   7.482
73174SOL    HW121296   2.556   8.272   7.520
73174SOL    HW221297   2.476   8.283   7.393
73175SOL     OW21298   2.128   6.047   8.825
73175SOL    HW121299   2.215   6.048   8.785
73175SOL    HW221300   2.143   6.012   8.913
73176SOL     OW21301   1.880   6.172   6.177
73176SOL    HW121302   1.803   6.118   6.164
73176SOL    HW221303   1.897   6.210   6.090
73177SOL     OW21304   0.174   9.251  12.362
73177SOL    HW121305   0.111   9.279  12.295
73177SOL    HW221306   0.253   9.303  12.344
73178SOL     OW21307  14.711   4.909   3.778
73178SOL    HW121308  14.775   4.976   3.803
73178SOL    HW221309  14.755   4.860   3.708
73179SOL     OW21310  12.176   3.048  14.590
73179SOL    HW121311  12.163   2.976  14.652
73179SOL    HW221312  12.222   3.115  14.641
73180SOL     OW21313   2.607   6.847  11.100
73180SOL    HW121314   2.517   6.871  11.076
73180SOL    HW221315   2.610   6.752  11.090
73181SOL     OW21316   8.148   7.809   0.902
73181SOL    HW121317   8.172   7.894   0.865
73181SOL    HW221318   8.071   7.782   0.852
73182SOL     OW21319  13.751  14.299   1.219
73182SOL    HW121320  13.753  14.306   1.315
73182SOL    HW221321  13.842  14.316   1.192
73183SOL     OW21322   8.680   2.345   8.160
73183SOL    HW121323   8.761   2.333   8.110
73183SOL    HW221324   8.706   2.398   8.235
73184SOL     OW21325   0.805  12.548  11.619
73184SOL    HW121326   0.733  12.589  11.668
73184SOL    HW221327   0.884  12.589  11.655
73185SOL     OW21328  12.806   3.957   8.403
73185SOL    HW121329  12.895   3.957   8.366
73185SOL    HW221330  12.819   3.930   8.494
73186SOL     OW21331  14.418   5.025   8.744
73186SOL    HW121332  14.390   4.962   8.810
73186SOL    HW221333  14.341   5.079   8.727
73187SOL     OW21334  12.903   8.196  12.906
73187SOL    HW121335  12.879   8.251  12.981
73187SOL    HW221336  12.976   8.142  12.938
73188SOL     OW21337   0.445   4.442  14.825
73188SOL    HW121338   0.509   4.471  14.760
73188SOL    HW221339   0.452   4.506   0.014
73189SOL     OW21340  10.106   7.143   4.706
73189SOL    HW121341  10.051   7.219   4.689
73189SOL    HW221342  10.126   7.148   4.800
73190SOL     OW21343   9.388  11.952  10.024
73190SOL    HW121344   9.316  11.909   9.977
73190SOL    HW221345   9.465  11.937   9.969
73191SOL     OW21346  10.886   2.154   3.988
73191SOL    HW121347  10.872   2.222   3.923
73191SOL    HW221348  10.828   2.178   4.060
73192SOL     OW21349   8.458   3.389   5.013
73192SOL    HW121350   8.508   3.389   4.932
73192SOL    HW221351   8.496   3.318   5.065
73193SOL     OW21352   1.425  13.064   8.258
73193SOL    HW121353   1.372  13.008   8.313
73193SOL    HW221354   1.416  13.151   8.296
73194SOL     OW21355   0.211   2.735   7.019
73194SOL    HW121356   0.288   2.685   7.048
73194SOL    HW221357   0.174   2.772   7.099
73195SOL     OW21358   5.656  11.286   2.738
73195SOL    HW121359   5.561  11.295   2.733
73195SOL    HW221360   5.690  11.368   2.703
73196SOL     OW21361   7.200  11.568   4.852
73196SOL    HW121362   7.230  11.479   4.867
73196SOL    HW221363   7.254  11.600   4.779
73197SOL     OW21364   0.082   7.459   7.375
73197SOL    HW121365   0.095   7.508   7.456
73197SOL    HW221366   0.004   7.407   7.391
73198SOL     OW21367   3.915   5.615  11.926
73198SOL    HW121368   3.846   5.644  11.986
73198SOL    HW221369   3.983   5.579  11.983
73199SOL     OW21370   5.259  14.312  10.482
73199SOL    HW121371   5.242  14.406  10.473
73199SOL    HW221372   5.335  14.296  10.426
73200SOL     OW21373   3.169   9.695  14.105
73200SOL    HW121374   3.240   9.677  14.044
73200SOL    HW221375   3.203   9.670  14.190
73201SOL     OW21376   4.800   9.955  10.675
73201SOL    HW121377   4.834  10.041  10.698
73201SOL    HW221378   4.877   9.898  10.674
73202SOL     OW21379  14.464   9.282  14.124
73202SOL    HW121380  14.477   9.238  14.208
73202SOL    HW221381  14.369   9.285  14.113
73203SOL     OW21382   9.984   2.143   9.175
73203SOL    HW121383   9.998   2.083   9.102
73203SOL    HW221384   9.971   2.228   9.133
73204SOL     OW21385  14.303   7.921   2.764
73204SOL    HW121386  14.321   7.987   2.697
73204SOL    HW221387  14.231   7.958   2.815
73205SOL     OW21388   8.931   3.426  12.196
73205SOL    HW121389   8.862   3.467  12.145
73205SOL    HW221390   9.010   3.476  12.175
73206SOL     OW21391   6.327   7.245   5.303
73206SOL    HW121392   6.400   7.235   5.241
73206SOL    HW221393   6.250   7.218   5.254
73207SOL     OW21394   9.700   8.246  12.913
73207SOL    HW121395   9.638   8.259  12.985
73207SOL    HW221396   9.770   8.193  12.950
73208SOL     OW21397   3.434   2.335  12.330
73208SOL    HW121398   3.384   2.364  12.406
73208SOL    HW221399   3.405   2.393  12.259
73209SOL     OW21400  14.310   1.732  13.950
73209SOL    HW121401  14.248   1.735  13.877
73209SOL    HW221402  14.396   1.722  13.909
73210SOL     OW21403   1.186  13.354  13.240
73210SOL    HW121404   1.176  13.444  13.212
73210SOL    HW221405   1.186  13.358  13.336
73211SOL     OW21406   9.006  12.044  10.681
73211SOL    HW121407   8.920  12.016  10.651
73211SOL    HW221408   9.053  12.069  10.601
73212SOL     OW21409   3.739  14.462  12.821
73212SOL    HW121410   3.831  14.447  12.845
73212SOL    HW221411   3.696  14.379  12.840
73213SOL     OW21412   1.022   5.031   4.271
73213SOL    HW121413   1.032   5.000   4.181
73213SOL    HW221414   1.014   4.950   4.323
73214SOL     OW21415   8.901   0.774   3.163
73214SOL    HW121416   8.932   0.701   3.215
73214SOL    HW221417   8.930   0.754   3.074
73215SOL     OW21418   7.019   1.795   6.646
73215SOL    HW121419   7.013   1.783   6.741
73215SOL    HW221420   6.929   1.809   6.617
73216SOL     OW21421  10.813   4.630   0.213
73216SOL    HW121422  10.822   4.534   0.213
73216SOL    HW221423  10.894   4.662   0.252
73217SOL     OW21424  13.689  14.827   0.160
73217SOL    HW121425  13.598  14.799   0.152
73217SOL    HW221426  13.692   0.030   0.116
73218SOL     OW21427  11.166  12.100   8.486
73218SOL    HW121428  11.189  12.086   8.395
73218SOL    HW221429  11.079  12.140   8.483
73219SOL     OW21430  10.519   2.226   6.869
73219SOL    HW121431  10.440   2.188   6.831
73219SOL    HW221432  10.589   2.163   6.848
73220SOL     OW21433   3.927  11.906   5.401
73220SOL    HW121434   3.856  11.849   5.429
73220SOL    HW221435   3.936  11.889   5.307
73221SOL     OW21436  10.046   4.005   3.653
73221SOL    HW121437  10.051   4.029   3.560
73221SOL    HW221438  10.082   3.917   3.657
73222SOL     OW21439  10.927  13.541   6.512
73222SOL    HW121440  10.847  13.593   6.521
73222SOL    HW221441  10.942  13.537   6.418
73223SOL     OW21442   3.664   8.855   2.827
73223SOL    HW121443   3.702   8.931   2.783
73223SOL    HW221444   3.728   8.785   2.814
73224SOL     OW21445   9.834   1.600   6.713
73224SOL    HW121446   9.922   1.586   6.677
73224SOL    HW221447   9.817   1.521   6.765
73225SOL     OW21448   5.587  14.146  11.736
73225SOL    HW121449   5.607  14.209  11.806
73225SOL    HW221450   5.495  14.122  11.751
73226SOL     OW21451   0.379   4.178   2.603
73226SOL    HW121452   0.327   4.114   2.555
73226SOL    HW221453   0.450   4.128   2.643
73227SOL     OW21454   9.720  10.661   2.224
73227SOL    HW121455   9.719  10.723   2.152
73227SOL    HW221456   9.813  10.644   2.241
73228SOL     OW21457   3.588  10.981   3.301
73228SOL    HW121458   3.523  11.049   3.285
73228SOL    HW221459   3.664  11.028   3.335
73229SOL     OW21460   3.697  10.204  14.213
73229SOL    HW121461   3.638  10.167  14.278
73229SOL    HW221462   3.703  10.297  14.236
73230SOL     OW21463   9.732   6.974   9.547
73230SOL    HW121464   9.821   6.951   9.572
73230SOL    HW221465   9.686   6.986   9.629
73231SOL     OW21466   7.926   6.067   3.372
73231SOL    HW121467   7.895   5.979   3.393
73231SOL    HW221468   7.981   6.055   3.294
73232SOL     OW21469   9.443  14.091   5.060
73232SOL    HW121470   9.486  14.113   5.143
73232SOL    HW221471   9.350  14.087   5.080
73233SOL     OW21472   5.159   4.053  14.702
73233SOL    HW121473   5.102   4.001  14.759
73233SOL    HW221474   5.243   4.008  14.705
73234SOL     OW21475   8.649  11.710   0.049
73234SOL    HW121476   8.597  11.722   0.128
73234SOL    HW221477   8.630  11.621   0.021
73235SOL     OW21478   6.475  11.595   1.518
73235SOL    HW121479   6.553  11.544   1.492
73235SOL    HW221480   6.402  11.534   1.506
73236SOL     OW21481  12.497   4.185   1.451
73236SOL    HW121482  12.412   4.153   1.420
73236SOL    HW221483  12.549   4.195   1.371
73237SOL     OW21484  10.311   7.925   3.354
73237SOL    HW121485  10.361   7.914   3.274
73237SOL    HW221486  10.377   7.943   3.421
73238SOL     OW21487   2.560  11.005   0.588
73238SOL    HW121488   2.466  11.008   0.607
73238SOL    HW221489   2.590  11.096   0.598
73239SOL     OW21490   3.490  11.492   2.627
73239SOL    HW121491   3.460  11.563   2.684
73239SOL    HW221492   3.585  11.495   2.632
73240SOL     OW21493   4.956  11.737   5.098
73240SOL    HW121494   5.016  11.669   5.129
73240SOL    HW221495   4.883  11.733   5.159
73241SOL     OW21496   6.090  12.365   7.262
73241SOL    HW121497   6.003  12.346   7.228
73241SOL    HW221498   6.095  12.461   7.262
73242SOL     OW21499   3.275   8.081   7.140
73242SOL    HW121500   3.254   8.003   7.088
73242SOL    HW221501   3.370   8.088   7.135
73243SOL     OW21502  13.772   0.855  12.909
73243SOL    HW121503  13.711   0.809  12.850
73243SOL    HW221504  13.719   0.875  12.986
73244SOL     OW21505   7.298  10.554  11.274
73244SOL    HW121506   7.241  10.602  11.334
73244SOL    HW221507   7.283  10.462  11.296
73245SOL     OW21508  11.495   1.993   9.004
73245SOL    HW121509  11.533   1.971   9.089
73245SOL    HW221510  11.481   2.088   9.008
73246SOL     OW21511  14.016   0.795   7.325
73246SOL    HW121512  14.008   0.783   7.420
73246SOL    HW221513  13.996   0.710   7.288
73247SOL     OW21514  10.142  14.209   9.534
73247SOL    HW121515  10.154  14.174   9.622
73247SOL    HW221516  10.047  14.206   9.520
73248SOL     OW21517   7.527   2.215   1.393
73248SOL    HW121518   7.455   2.166   1.431
73248SOL    HW221519   7.538   2.177   1.305
73249SOL     OW21520   0.812   7.338   9.691
73249SOL    HW121521   0.762   7.340   9.610
73249SOL    HW221522   0.772   7.405   9.746
73250SOL     OW21523   8.179   8.815   3.047
73250SOL    HW121524   8.139   8.787   2.965
73250SOL    HW221525   8.177   8.911   3.043
73251SOL     OW21526   0.708   9.130  10.444
73251SOL    HW121527   0.675   9.156  10.357
73251SOL    HW221528   0.757   9.206  10.474
73252SOL     OW21529   3.752  13.519   5.860
73252SOL    HW121530   3.707  13.435   5.860
73252SOL    HW221531   3.719  13.565   5.937
73253SOL     OW21532  12.432  14.386   1.587
73253SOL    HW121533  12.502  14.409   1.527
73253SOL    HW221534  12.441  14.291   1.599
73254SOL     OW21535  11.636   3.668   5.740
73254SOL    HW121536  11.625   3.614   5.819
73254SOL    HW221537  11.722   3.708   5.750
73255SOL     OW21538  13.489   7.416  13.281
73255SOL    HW121539  13.571   7.449  13.319
73255SOL    HW221540  13.445   7.494  13.248
73256SOL     OW21541   6.261   6.368  11.841
73256SOL    HW121542   6.196   6.403  11.781
73256SOL    HW221543   6.326   6.438  11.851
73257SOL     OW21544   6.047  13.399   2.370
73257SOL    HW121545   6.108  13.326   2.364
73257SOL    HW221546   6.094  13.466   2.419
73258SOL     OW21547  14.322  11.204  13.511
73258SOL    HW121548  14.373  11.276  13.548
73258SOL    HW221549  14.231  11.227  13.527
73259SOL     OW21550   0.111   4.511   3.123
73259SOL    HW121551   0.130   4.529   3.031
73259SOL    HW221552   0.077   4.422   3.124
73260SOL     OW21553  13.740  13.404  13.012
73260SOL    HW121554  13.668  13.440  12.959
73260SOL    HW221555  13.805  13.474  13.013
73261SOL     OW21556  11.615   3.275   6.500
73261SOL    HW121557  11.635   3.367   6.520
73261SOL    HW221558  11.525   3.276   6.470
73262SOL     OW21559   4.013   5.518   9.836
73262SOL    HW121560   3.956   5.478   9.770
73262SOL    HW221561   4.077   5.569   9.785
73263SOL     OW21562   3.728   9.083  12.162
73263SOL    HW121563   3.772   9.013  12.115
73263SOL    HW221564   3.751   9.162  12.115
73264SOL     OW21565   6.502  11.544   4.533
73264SOL    HW121566   6.465  11.615   4.585
73264SOL    HW221567   6.459  11.465   4.566
73265SOL     OW21568   4.967  14.279  13.758
73265SOL    HW121569   4.875  14.302  13.768
73265SOL    HW221570   5.011  14.362  13.739
73266SOL     OW21571  12.709   5.164  13.260
73266SOL    HW121572  12.618   5.194  13.250
73266SOL    HW221573  12.712   5.082  13.212
73267SOL     OW21574  13.011   8.879   2.048
73267SOL    HW121575  12.959   8.942   2.098
73267SOL    HW221576  13.090   8.927   2.025
73268SOL     OW21577   4.994  11.831   0.944
73268SOL    HW121578   4.981  11.921   0.974
73268SOL    HW221579   4.988  11.778   1.024
73269SOL     OW21580  12.820   3.936  11.289
73269SOL    HW121581  12.787   3.862  11.340
73269SOL    HW221582  12.894   3.969  11.340
73270SOL     OW21583   8.704   5.285   7.002
73270SOL    HW121584   8.726   5.349   6.934
73270SOL    HW221585   8.784   5.278   7.054
73271SOL     OW21586   4.281  11.870   3.048
73271SOL    HW121587   4.186  11.881   3.036
73271SOL    HW221588   4.310  11.951   3.090
73272SOL     OW21589  13.082   8.644   4.705
73272SOL    HW121590  13.161   8.591   4.705
73272SOL    HW221591  13.012   8.583   4.681
73273SOL     OW21592   3.491   1.578   6.090
73273SOL    HW121593   3.506   1.580   6.185
73273SOL    HW221594   3.442   1.497   6.075
73274SOL     OW21595   5.837  13.799  13.693
73274SOL    HW121596   5.865  13.774  13.605
73274SOL    HW221597   5.812  13.716  13.734
73275SOL     OW21598   1.009   1.236   1.642
73275SOL    HW121599   0.923   1.223   1.601
73275SOL    HW221600   1.049   1.149   1.640
73276SOL     OW21601   2.736   1.263   0.454
73276SOL    HW121602   2.764   1.287   0.543
73276SOL    HW221603   2.664   1.202   0.467
73277SOL     OW21604  10.062   7.388  14.119
73277SOL    HW121605   9.976   7.347  14.109
73277SOL    HW221606  10.122   7.327  14.075
73278SOL     OW21607  12.896   0.308   2.080
73278SOL    HW121608  12.820   0.292   2.024
73278SOL    HW221609  12.927   0.221   2.105
73279SOL     OW21610  11.646  13.101   4.136
73279SOL    HW121611  11.554  13.078   4.127
73279SOL    HW221612  11.674  13.060   4.217
73280SOL     OW21613   7.291   9.544  10.843
73280SOL    HW121614   7.216   9.485  10.851
73280SOL    HW221615   7.253   9.629  10.822
73281SOL     OW21616   8.121   0.258  13.102
73281SOL    HW121617   8.166   0.337  13.131
73281SOL    HW221618   8.178   0.186  13.130
73282SOL     OW21619   5.619   1.130   5.544
73282SOL    HW121620   5.614   1.101   5.453
73282SOL    HW221621   5.589   1.221   5.542
73283SOL     OW21622   9.174   0.896   0.990
73283SOL    HW121623   9.130   0.873   0.908
73283SOL    HW221624   9.127   0.974   1.022
73284SOL     OW21625   8.544   8.420   2.642
73284SOL    HW121626   8.565   8.485   2.708
73284SOL    HW221627   8.628   8.379   2.620
73285SOL     OW21628  13.390   4.608   4.592
73285SOL    HW121629  13.426   4.684   4.547
73285SOL    HW221630  13.384   4.541   4.525
73286SOL     OW21631   1.323   9.237   7.725
73286SOL    HW121632   1.359   9.232   7.814
73286SOL    HW221633   1.344   9.326   7.696
73287SOL     OW21634   2.599  11.871   1.336
73287SOL    HW121635   2.627  11.855   1.246
73287SOL    HW221636   2.592  11.784   1.375
73288SOL     OW21637   2.695   1.847   4.147
73288SOL    HW121638   2.773   1.898   4.165
73288SOL    HW221639   2.696   1.778   4.213
73289SOL     OW21640   6.440   3.265  10.330
73289SOL    HW121641   6.464   3.182  10.290
73289SOL    HW221642   6.345   3.271  10.318
73290SOL     OW21643  11.976   8.621  13.660
73290SOL    HW121644  12.050   8.576  13.701
73290SOL    HW221645  12.014   8.699  13.621
73291SOL     OW21646   8.839   8.589   9.798
73291SOL    HW121647   8.927   8.591   9.760
73291SOL    HW221648   8.831   8.672   9.846
73292SOL     OW21649   9.039   8.333   8.639
73292SOL    HW121650   9.032   8.240   8.656
73292SOL    HW221651   9.069   8.371   8.721
73293SOL     OW21652   3.823  10.125   7.595
73293SOL    HW121653   3.862  10.202   7.636
73293SOL    HW221654   3.847  10.052   7.651
73294SOL     OW21655   9.453   7.538   0.269
73294SOL    HW121656   9.402   7.580   0.200
73294SOL    HW221657   9.389   7.485   0.317
73295SOL     OW21658  11.505  13.418   9.639
73295SOL    HW121659  11.497  13.402   9.733
73295SOL    HW221660  11.481  13.335   9.599
73296SOL     OW21661   0.750   9.769   5.519
73296SOL    HW121662   0.749   9.696   5.580
73296SOL    HW221663   0.716   9.732   5.437
73297SOL     OW21664   2.284   2.568   0.500
73297SOL    HW121665   2.208   2.550   0.555
73297SOL    HW221666   2.295   2.489   0.447
73298SOL     OW21667   7.919   6.076  11.060
73298SOL    HW121668   7.957   6.091  10.973
73298SOL    HW221669   7.837   6.031  11.044
73299SOL     OW21670   3.497   8.778   1.746
73299SOL    HW121671   3.464   8.695   1.783
73299SOL    HW221672   3.542   8.820   1.818
73300SOL     OW21673   2.353   5.141  11.709
73300SOL    HW121674   2.431   5.101  11.671
73300SOL    HW221675   2.285   5.131  11.643
73301SOL     OW21676   5.038   4.009  12.875
73301SOL    HW121677   4.980   4.049  12.809
73301SOL    HW221678   5.006   4.044  12.958
73302SOL     OW21679   8.835  12.477   7.048
73302SOL    HW121680   8.930  12.466   7.053
73302SOL    HW221681   8.799  12.402   7.095
73303SOL     OW21682   3.077   0.485   9.308
73303SOL    HW121683   3.097   0.458   9.398
73303SOL    HW221684   3.010   0.553   9.317
73304SOL     OW21685   3.684  11.983  14.365
73304SOL    HW121686   3.766  12.006  14.410
73304SOL    HW221687   3.615  12.020  14.420
73305SOL     OW21688   8.637   6.682   9.597
73305SOL    HW121689   8.611   6.684   9.690
73305SOL    HW221690   8.589   6.755   9.557
73306SOL     OW21691  14.836   1.284  12.339
73306SOL    HW121692  14.828   1.283  12.434
73306SOL    HW221693   0.037   1.330  12.322
73307SOL     OW21694  11.153   4.781   1.602
73307SOL    HW121695  11.207   4.815   1.673
73307SOL    HW221696  11.159   4.686   1.609
73308SOL     OW21697  12.137   4.551   9.761
73308SOL    HW121698  12.082   4.582   9.688
73308SOL    HW221699  12.116   4.458   9.769
73309SOL     OW21700  11.793  13.716   8.883
73309SOL    HW121701  11.822  13.630   8.912
73309SOL    HW221702  11.700  13.718   8.903
73310SOL     OW21703   9.933   3.150   2.560
73310SOL    HW121704   9.894   3.226   2.603
73310SOL    HW221705   9.893   3.149   2.473
73311SOL     OW21706  14.745   7.365   5.981
73311SOL    HW121707  14.669   7.348   6.036
73311SOL    HW221708  14.769   7.456   6.002
73312SOL     OW21709  11.469   6.858   4.820
73312SOL    HW121710  11.527   6.799   4.771
73312SOL    HW221711  11.466   6.820   4.908
73313SOL     OW21712  12.164   4.287   5.776
73313SOL    HW121713  12.189   4.374   5.808
73313SOL    HW221714  12.081   4.302   5.730
73314SOL     OW21715  14.087   3.868  12.641
73314SOL    HW121716  14.083   3.902  12.731
73314SOL    HW221717  14.006   3.899  12.600
73315SOL     OW21718  11.329  11.730  11.874
73315SOL    HW121719  11.335  11.644  11.831
73315SOL    HW221720  11.255  11.721  11.934
73316SOL     OW21721  10.089   3.825  11.644
73316SOL    HW121722  10.098   3.813  11.738
73316SOL    HW221723  10.104   3.918  11.630
73317SOL     OW21724   3.507  11.430   7.527
73317SOL    HW121725   3.500  11.440   7.622
73317SOL    HW221726   3.483  11.516   7.492
73318SOL     OW21727  13.123   3.718  10.145
73318SOL    HW121728  13.063   3.643  10.149
73318SOL    HW221729  13.066   3.794  10.131
73319SOL     OW21730  14.606   6.271   8.253
73319SOL    HW121731  14.602   6.179   8.226
73319SOL    HW221732  14.671   6.272   8.323
73320SOL     OW21733   0.241   2.614   5.686
73320SOL    HW121734   0.203   2.568   5.610
73320SOL    HW221735   0.332   2.586   5.688
73321SOL     OW21736   5.337   6.444  11.779
73321SOL    HW121737   5.324   6.492  11.697
73321SOL    HW221738   5.287   6.493  11.844
73322SOL     OW21739   5.897  11.761  11.036
73322SOL    HW121740   5.982  11.764  10.992
73322SOL    HW221741   5.840  11.714  10.976
73323SOL     OW21742   1.520   1.368   2.372
73323SOL    HW121743   1.491   1.284   2.337
73323SOL    HW221744   1.442   1.405   2.413
73324SOL     OW21745   6.278   2.533   5.730
73324SOL    HW121746   6.355   2.501   5.777
73324SOL    HW221747   6.288   2.628   5.729
73325SOL     OW21748   7.104   1.773   4.303
73325SOL    HW121749   7.057   1.692   4.322
73325SOL    HW221750   7.073   1.799   4.216
73326SOL     OW21751  11.988   4.499   0.025
73326SOL    HW121752  11.972   4.590  14.881
73326SOL    HW221753  11.946   4.490   0.110
73327SOL     OW21754   5.826   0.849   9.853
73327SOL    HW121755   5.825   0.897   9.936
73327SOL    HW221756   5.749   0.882   9.806
73328SOL     OW21757   3.470   8.195  10.871
73328SOL    HW121758   3.446   8.113  10.916
73328SOL    HW221759   3.518   8.166  10.793
73329SOL     OW21760  14.608  11.885  12.939
73329SOL    HW121761  14.673  11.821  12.966
73329SOL    HW221762  14.652  11.937  12.871
73330SOL     OW21763  12.564   2.483   3.545
73330SOL    HW121764  12.469   2.494   3.542
73330SOL    HW221765  12.599   2.572   3.546
73331SOL     OW21766   1.945   7.807   0.061
73331SOL    HW121767   2.032   7.788   0.094
73331SOL    HW221768   1.907   7.722   0.043
73332SOL     OW21769  12.774   1.309   8.732
73332SOL    HW121770  12.797   1.399   8.758
73332SOL    HW221771  12.679   1.305   8.744
73333SOL     OW21772   0.152   7.262   8.949
73333SOL    HW121773   0.163   7.339   8.893
73333SOL    HW221774   0.140   7.190   8.887
73334SOL     OW21775   6.640  13.493  14.206
73334SOL    HW121776   6.586  13.446  14.142
73334SOL    HW221777   6.613  13.459  14.291
73335SOL     OW21778   4.427   0.174   3.933
73335SOL    HW121779   4.423   0.268   3.952
73335SOL    HW221780   4.496   0.141   3.991
73336SOL     OW21781   6.169   8.052   1.025
73336SOL    HW121782   6.083   8.080   0.994
73336SOL    HW221783   6.191   8.113   1.095
73337SOL     OW21784   9.951   6.491   9.186
73337SOL    HW121785   9.996   6.557   9.134
73337SOL    HW221786   9.972   6.513   9.276
73338SOL     OW21787   6.102   3.312  11.197
73338SOL    HW121788   6.009   3.293  11.211
73338SOL    HW221789   6.147   3.233  11.227
73339SOL     OW21790   5.831  12.547  13.783
73339SOL    HW121791   5.810  12.457  13.806
73339SOL    HW221792   5.764  12.572  13.720
73340SOL     OW21793   9.407   6.809   5.540
73340SOL    HW121794   9.340   6.741   5.528
73340SOL    HW221795   9.375   6.883   5.488
73341SOL     OW21796  12.489   1.590  10.384
73341SOL    HW121797  12.477   1.529  10.311
73341SOL    HW221798  12.484   1.677  10.344
73342SOL     OW21799  10.714   0.035   5.542
73342SOL    HW121800  10.668  14.835   5.527
73342SOL    HW221801  10.727   0.038   5.637
73343SOL     OW21802   0.276   0.347   0.293
73343SOL    HW121803   0.284   0.442   0.287
73343SOL    HW221804   0.202   0.326   0.236
73344SOL     OW21805   3.470   8.176   9.843
73344SOL    HW121806   3.411   8.234   9.892
73344SOL    HW221807   3.519   8.234   9.785
73345SOL     OW21808   3.246   5.790   7.228
73345SOL    HW121809   3.199   5.713   7.260
73345SOL    HW221810   3.333   5.758   7.206
73346SOL     OW21811   8.806   7.574  14.236
73346SOL    HW121812   8.749   7.615  14.301
73346SOL    HW221813   8.838   7.647  14.183
73347SOL     OW21814   6.648   8.375   9.527
73347SOL    HW121815   6.572   8.429   9.504
73347SOL    HW221816   6.656   8.384   9.622
73348SOL     OW21817  13.727  13.050  12.870
73348SOL    HW121818  13.743  13.135  12.830
73348SOL    HW221819  13.728  12.989  12.796
73349SOL     OW21820  10.159   7.382  12.109
73349SOL    HW121821  10.111   7.299  12.117
73349SOL    HW221822  10.250   7.356  12.099
73350SOL     OW21823   0.523   4.494   3.316
73350SOL    HW121824   0.566   4.439   3.382
73350SOL    HW221825   0.481   4.564   3.367
73351SOL     OW21826   6.555   2.795   8.601
73351SOL    HW121827   6.575   2.879   8.560
73351SOL    HW221828   6.460   2.787   8.592
73352SOL     OW21829  11.679   7.273   7.581
73352SOL    HW121830  11.719   7.187   7.592
73352SOL    HW221831  11.750   7.335   7.598
73353SOL     OW21832   5.244   7.491  14.067
73353SOL    HW121833   5.185   7.436  14.118
73353SOL    HW221834   5.227   7.465  13.976
73354SOL     OW21835   8.311   6.770   2.380
73354SOL    HW121836   8.342   6.850   2.423
73354SOL    HW221837   8.216   6.784   2.370
73355SOL     OW21838   9.695   6.000   1.395
73355SOL    HW121839   9.750   5.935   1.439
73355SOL    HW221840   9.745   6.082   1.401
73356SOL     OW21841   7.515  13.767   8.398
73356SOL    HW121842   7.536  13.755   8.306
73356SOL    HW221843   7.491  13.860   8.405
73357SOL     OW21844   7.948   0.796   2.570
73357SOL    HW121845   7.968   0.874   2.621
73357SOL    HW221846   8.024   0.739   2.581
73358SOL     OW21847   3.987   6.836   2.100
73358SOL    HW121848   4.013   6.894   2.172
73358SOL    HW221849   3.907   6.875   2.066
73359SOL     OW21850   0.211  11.121  10.023
73359SOL    HW121851   0.153  11.053  10.056
73359SOL    HW221852   0.170  11.148   9.940
73360SOL     OW21853   8.982   9.074   8.492
73360SOL    HW121854   8.939   9.159   8.478
73360SOL    HW221855   8.928   9.030   8.557
73361SOL     OW21856  13.995  11.092   5.127
73361SOL    HW121857  14.021  11.171   5.079
73361SOL    HW221858  13.923  11.121   5.183
73362SOL     OW21859   4.389   1.292   9.174
73362SOL    HW121860   4.335   1.229   9.222
73362SOL    HW221861   4.470   1.298   9.225
73363SOL     OW21862   2.358   8.589   3.950
73363SOL    HW121863   2.318   8.538   3.880
73363SOL    HW221864   2.396   8.524   4.009
73364SOL     OW21865  12.963   7.771  14.164
73364SOL    HW121866  12.882   7.792  14.117
73364SOL    HW221867  12.979   7.848  14.219
73365SOL     OW21868  13.107  14.468   9.707
73365SOL    HW121869  13.059  14.529   9.650
73365SOL    HW221870  13.169  14.524   9.754
73366SOL     OW21871  12.180   1.998   9.373
73366SOL    HW121872  12.135   1.981   9.290
73366SOL    HW221873  12.265   2.034   9.347
73367SOL     OW21874  10.105  10.639   8.727
73367SOL    HW121875  10.180  10.616   8.781
73367SOL    HW221876  10.123  10.599   8.642
73368SOL     OW21877  14.512   2.542  10.159
73368SOL    HW121878  14.549   2.595  10.088
73368SOL    HW221879  14.585   2.488  10.189
73369SOL     OW21880   3.339   4.628   8.240
73369SOL    HW121881   3.390   4.567   8.187
73369SOL    HW221882   3.383   4.629   8.325
73370SOL     OW21883  14.301  10.900  11.616
73370SOL    HW121884  14.290  10.805  11.607
73370SOL    HW221885  14.387  10.918  11.579
73371SOL     OW21886  12.106   4.254  13.146
73371SOL    HW121887  12.089   4.166  13.181
73371SOL    HW221888  12.064   4.313  13.210
73372SOL     OW21889  12.798   6.217  14.531
73372SOL    HW121890  12.883   6.259  14.516
73372SOL    HW221891  12.777   6.236  14.623
73373SOL     OW21892   3.016   7.836   4.352
73373SOL    HW121893   2.935   7.788   4.338
73373SOL    HW221894   3.037   7.821   4.444
73374SOL     OW21895  11.195  11.877   4.628
73374SOL    HW121896  11.138  11.954   4.620
73374SOL    HW221897  11.274  11.909   4.671
73375SOL     OW21898   5.169  14.335  14.199
73375SOL    HW121899   5.168  14.248  14.237
73375SOL    HW221900   5.082  14.345  14.159
73376SOL     OW21901   7.994   9.299   7.840
73376SOL    HW121902   7.989   9.367   7.773
73376SOL    HW221903   7.905   9.294   7.875
73377SOL     OW21904  14.715   1.563   8.399
73377SOL    HW121905  14.763   1.484   8.374
73377SOL    HW221906  14.708   1.614   8.318
73378SOL     OW21907   7.262  13.754   5.272
73378SOL    HW121908   7.216  13.838   5.273
73378SOL    HW221909   7.216  13.702   5.206
73379SOL     OW21910  11.913   0.920   7.223
73379SOL    HW121911  11.837   0.902   7.277
73379SOL    HW221912  11.974   0.966   7.282
73380SOL     OW21913  11.381   4.171   7.723
73380SOL    HW121914  11.381   4.099   7.787
73380SOL    HW221915  11.472   4.202   7.721
73381SOL     OW21916   0.705   7.991   5.111
73381SOL    HW121917   0.745   8.021   5.029
73381SOL    HW221918   0.745   8.046   5.179
73382SOL     OW21919   5.656   6.359   9.629
73382SOL    HW121920   5.676   6.381   9.538
73382SOL    HW221921   5.623   6.441   9.667
73383SOL     OW21922   6.886   0.510   6.351
73383SOL    HW121923   6.854   0.600   6.353
73383SOL    HW221924   6.970   0.514   6.397
73384SOL     OW21925   7.240   2.770  14.202
73384SOL    HW121926   7.221   2.693  14.254
73384SOL    HW221927   7.220   2.744  14.112
73385SOL     OW21928   1.415  13.720   3.882
73385SOL    HW121929   1.455  13.795   3.927
73385SOL    HW221930   1.355  13.684   3.947
73386SOL     OW21931  13.588  13.165  12.486
73386SOL    HW121932  13.533  13.226  12.436
73386SOL    HW221933  13.525  13.115  12.540
73387SOL     OW21934   1.234   0.473   0.696
73387SOL    HW121935   1.189   0.410   0.640
73387SOL    HW221936   1.326   0.465   0.672
73388SOL     OW21937   4.846  12.171   5.954
73388SOL    HW121938   4.915  12.115   5.920
73388SOL    HW221939   4.821  12.226   5.879
73389SOL     OW21940   6.839   2.909  12.595
73389SOL    HW121941   6.748   2.937  12.593
73389SOL    HW221942   6.878   2.954  12.670
73390SOL     OW21943   2.757  12.159  10.688
73390SOL    HW121944   2.787  12.167  10.597
73390SOL    HW221945   2.744  12.065  10.701
73391SOL     OW21946   5.211   8.044   8.655
73391SOL    HW121947   5.306   8.053   8.663
73391SOL    HW221948   5.194   8.047   8.561
73392SOL     OW21949   0.772  12.812   8.299
73392SOL    HW121950   0.856  12.774   8.324
73392SOL    HW221951   0.787  12.845   8.210
73393SOL     OW21952   8.360   3.685   9.365
73393SOL    HW121953   8.324   3.662   9.451
73393SOL    HW221954   8.346   3.780   9.359
73394SOL     OW21955   4.537   1.475   3.409
73394SOL    HW121956   4.554   1.466   3.502
73394SOL    HW221957   4.457   1.426   3.394
73395SOL     OW21958   9.656   1.674   8.073
73395SOL    HW121959   9.746   1.653   8.100
73395SOL    HW221960   9.604   1.601   8.106
73396SOL     OW21961   2.141   9.744   8.455
73396SOL    HW121962   2.087   9.699   8.520
73396SOL    HW221963   2.080   9.801   8.408
73397SOL     OW21964   9.673   4.497   5.266
73397SOL    HW121965   9.653   4.517   5.174
73397SOL    HW221966   9.588   4.475   5.304
73398SOL     OW21967  14.341  10.517   3.425
73398SOL    HW121968  14.249  10.490   3.417
73398SOL    HW221969  14.387  10.436   3.449
73399SOL     OW21970   6.784  12.466   7.522
73399SOL    HW121971   6.749  12.392   7.472
73399SOL    HW221972   6.821  12.426   7.600
73400SOL     OW21973   6.417   1.236   1.385
73400SOL    HW121974   6.505   1.198   1.385
73400SOL    HW221975   6.422   1.309   1.323
73401SOL     OW21976  11.028  10.986  11.383
73401SOL    HW121977  10.991  10.982  11.294
73401SOL    HW221978  11.019  10.897  11.417
73402SOL     OW21979   2.046  14.369   6.859
73402SOL    HW121980   2.051  14.464   6.873
73402SOL    HW221981   2.061  14.358   6.765
73403SOL     OW21982   3.097   8.815  10.241
73403SOL    HW121983   3.149   8.895  10.236
73403SOL    HW221984   3.151   8.753  10.289
73404SOL     OW21985   9.619   9.000   9.333
73404SOL    HW121986   9.552   8.960   9.278
73404SOL    HW221987   9.669   8.926   9.368
73405SOL     OW21988   2.839  10.022   3.593
73405SOL    HW121989   2.762  10.071   3.622
73405SOL    HW221990   2.806   9.963   3.525
73406SOL     OW21991   9.137   6.563  14.467
73406SOL    HW121992   9.172   6.652  14.461
73406SOL    HW221993   9.177   6.517  14.394
73407SOL     OW21994   8.092   9.179   3.648
73407SOL    HW121995   8.064   9.269   3.666
73407SOL    HW221996   8.165   9.164   3.708
73408SOL     OW21997   6.926  13.634   1.525
73408SOL    HW121998   6.934  13.668   1.436
73408SOL    HW221999   6.879  13.551   1.515
73409SOL     OW22000   9.446   5.435   4.547
73409SOL    HW122001   9.516   5.450   4.611
73409SOL    HW222002   9.380   5.386   4.596
73410SOL     OW22003   9.967  10.269   8.324
73410SOL    HW122004  10.053  10.242   8.292
73410SOL    HW222005   9.945  10.347   8.273
73411SOL     OW22006  14.403  14.319   5.313
73411SOL    HW122007  14.449  14.372   5.247
73411SOL    HW222008  14.343  14.264   5.262
73412SOL     OW22009   4.018  12.927   2.644
73412SOL    HW122010   4.044  12.860   2.707
73412SOL    HW222011   4.056  12.898   2.561
73413SOL     OW22012  10.713   2.696  11.990
73413SOL    HW122013  10.692   2.754  11.918
73413SOL    HW222014  10.631   2.688  12.039
73414SOL     OW22015   6.684   9.977   7.743
73414SOL    HW122016   6.665   9.889   7.710
73414SOL    HW222017   6.643  10.036   7.680
73415SOL     OW22018  11.325  11.947  11.712
73415SOL    HW122019  11.349  11.881  11.647
73415SOL    HW222020  11.297  11.896  11.788
73416SOL     OW22021  11.821   6.023   2.016
73416SOL    HW122022  11.875   5.986   2.085
73416SOL    HW222023  11.732   5.996   2.037
73417SOL     OW22024  10.899  10.352   8.748
73417SOL    HW122025  10.921  10.292   8.820
73417SOL    HW222026  10.977  10.350   8.691
73418SOL     OW22027   9.715   2.806   3.023
73418SOL    HW122028   9.629   2.823   2.984
73418SOL    HW222029   9.735   2.886   3.072
73419SOL     OW22030   0.356   2.030  10.564
73419SOL    HW122031   0.433   2.075  10.529
73419SOL    HW222032   0.286   2.096  10.562
73420SOL     OW22033   6.006   6.824   8.894
73420SOL    HW122034   6.033   6.914   8.879
73420SOL    HW222035   6.084   6.772   8.876
73421SOL     OW22036   7.892   7.106   3.438
73421SOL    HW122037   7.951   7.166   3.485
73421SOL    HW222038   7.809   7.153   3.432
73422SOL     OW22039   9.436   1.932   0.276
73422SOL    HW122040   9.522   1.892   0.264
73422SOL    HW222041   9.378   1.859   0.296
73423SOL     OW22042  13.321   0.861   1.221
73423SOL    HW122043  13.410   0.847   1.187
73423SOL    HW222044  13.264   0.845   1.146
73424SOL     OW22045   5.593  13.388   9.036
73424SOL    HW122046   5.684  13.360   9.030
73424SOL    HW222047   5.562  13.354   9.120
73425SOL     OW22048   4.406   1.176  10.199
73425SOL    HW122049   4.400   1.261  10.241
73425SOL    HW222050   4.321   1.164  10.157
73426SOL     OW22051   2.684   3.980  10.477
73426SOL    HW122052   2.681   3.906  10.416
73426SOL    HW222053   2.613   3.962  10.539
73427SOL     OW22054   2.648  12.571   9.218
73427SOL    HW122055   2.598  12.490   9.227
73427SOL    HW222056   2.595  12.625   9.159
73428SOL     OW22057   8.800   8.051  10.786
73428SOL    HW122058   8.780   8.089  10.701
73428SOL    HW222059   8.867   7.985  10.768
73429SOL     OW22060   7.532   8.752  13.373
73429SOL    HW122061   7.535   8.763  13.278
73429SOL    HW222062   7.570   8.832  13.408
73430SOL     OW22063   9.540   4.116  12.225
73430SOL    HW122064   9.615   4.173  12.213
73430SOL    HW222065   9.518   4.124  12.318
73431SOL     OW22066   2.178   7.352  10.640
73431SOL    HW122067   2.185   7.279  10.579
73431SOL    HW222068   2.100   7.399  10.612
73432SOL     OW22069   8.149  12.408   8.554
73432SOL    HW122070   8.074  12.446   8.507
73432SOL    HW222071   8.118  12.400   8.644
73433SOL     OW22072   5.835   3.750   4.045
73433SOL    HW122073   5.824   3.699   3.965
73433SOL    HW222074   5.897   3.819   4.023
73434SOL     OW22075  11.653   4.568  13.619
73434SOL    HW122076  11.612   4.635  13.674
73434SOL    HW222077  11.589   4.497  13.616
73435SOL     OW22078   7.368  14.230   4.392
73435SOL    HW122079   7.326  14.153   4.432
73435SOL    HW222080   7.461  14.212   4.398
73436SOL     OW22081   6.681  14.501   4.205
73436SOL    HW122082   6.597  14.465   4.234
73436SOL    HW222083   6.746  14.460   4.262
73437SOL     OW22084   9.112   4.663   0.416
73437SOL    HW122085   9.044   4.596   0.411
73437SOL    HW222086   9.106   4.709   0.332
73438SOL     OW22087   5.218  12.409   2.134
73438SOL    HW122088   5.293  12.377   2.085
73438SOL    HW222089   5.255  12.454   2.210
73439SOL     OW22090   2.738   7.682   5.719
73439SOL    HW122091   2.675   7.684   5.791
73439SOL    HW222092   2.751   7.589   5.701
73440SOL     OW22093   3.212  14.828   9.796
73440SOL    HW122094   3.229  14.874   9.714
73440SOL    HW222095   3.174  14.745   9.769
73441SOL     OW22096  10.547  14.317   5.008
73441SOL    HW122097  10.518  14.232   5.042
73441SOL    HW222098  10.605  14.295   4.935
73442SOL     OW22099   6.839  14.662   0.256
73442SOL    HW122100   6.807  14.655   0.166
73442SOL    HW222101   6.789  14.734   0.294
73443SOL     OW22102   0.231   3.307   9.002
73443SOL    HW122103   0.224   3.220   9.043
73443SOL    HW222104   0.192   3.296   8.916
73444SOL     OW22105  11.066   3.967   2.377
73444SOL    HW122106  11.050   4.061   2.390
73444SOL    HW222107  11.077   3.957   2.283
73445SOL     OW22108  13.095   3.739   7.424
73445SOL    HW122109  13.119   3.763   7.334
73445SOL    HW222110  13.124   3.649   7.434
73446SOL     OW22111   5.056   1.996   7.777
73446SOL    HW122112   5.076   2.040   7.860
73446SOL    HW222113   5.138   2.002   7.727
73447SOL     OW22114  12.644   2.883  13.081
73447SOL    HW122115  12.601   2.812  13.034
73447SOL    HW222116  12.589   2.897  13.158
73448SOL     OW22117   3.521  10.134   4.869
73448SOL    HW122118   3.535  10.139   4.964
73448SOL    HW222119   3.570  10.210   4.835
73449SOL     OW22120   2.951   2.397   1.711
73449SOL    HW122121   2.963   2.303   1.700
73449SOL    HW222122   3.013   2.422   1.779
73450SOL     OW22123  12.488   6.642   4.481
73450SOL    HW122124  12.562   6.703   4.475
73450SOL    HW222125  12.513   6.570   4.423
73451SOL     OW22126   3.246  11.999  10.334
73451SOL    HW122127   3.288  12.084  10.329
73451SOL    HW222128   3.217  11.991  10.425
73452SOL     OW22129  14.194   2.602  10.990
73452SOL    HW122130  14.107   2.563  10.988
73452SOL    HW222131  14.210   2.622  11.082
73453SOL     OW22132  11.178   9.938   5.002
73453SOL    HW122133  11.146   9.996   5.071
73453SOL    HW222134  11.155   9.850   5.032
73454SOL     OW22135   7.330   0.322   2.496
73454SOL    HW122136   7.333   0.356   2.585
73454SOL    HW222137   7.272   0.246   2.501
73455SOL     OW22138  10.329  12.882   9.714
73455SOL    HW122139  10.341  12.787   9.712
73455SOL    HW222140  10.413  12.917   9.684
73456SOL     OW22141   1.209  11.631  11.971
73456SOL    HW122142   1.236  11.540  11.965
73456SOL    HW222143   1.226  11.667  11.884
73457SOL     OW22144  10.657  13.370   2.547
73457SOL    HW122145  10.562  13.358   2.547
73457SOL    HW222146  10.688  13.320   2.472
73458SOL     OW22147  13.009   1.832   4.055
73458SOL    HW122148  13.025   1.738   4.049
73458SOL    HW222149  13.084   1.872   4.010
73459SOL     OW22150  11.101   6.895   5.547
73459SOL    HW122151  11.023   6.915   5.598
73459SOL    HW222152  11.103   6.799   5.544
73460SOL     OW22153   7.800  11.116   4.709
73460SOL    HW122154   7.843  11.165   4.639
73460SOL    HW222155   7.863  11.047   4.731
73461SOL     OW22156   1.712   0.424   9.173
73461SOL    HW122157   1.624   0.387   9.183
73461SOL    HW222158   1.707   0.510   9.215
73462SOL     OW22159  12.765  10.496   1.037
73462SOL    HW122160  12.690  10.466   1.088
73462SOL    HW222161  12.781  10.427   0.974
73463SOL     OW22162   5.236   2.542  13.137
73463SOL    HW122163   5.327   2.550  13.110
73463SOL    HW222164   5.195   2.623  13.106
73464SOL     OW22165   2.057   9.358   0.432
73464SOL    HW122166   2.148   9.329   0.420
73464SOL    HW222167   2.021   9.363   0.344
73465SOL     OW22168   0.836  14.517   9.144
73465SOL    HW122169   0.894  14.516   9.068
73465SOL    HW222170   0.893  14.496   9.218
73466SOL     OW22171   7.915  14.049   5.010
73466SOL    HW122172   7.820  14.049   5.019
73466SOL    HW222173   7.935  14.130   4.964
73467SOL     OW22174  13.772   1.492  11.908
73467SOL    HW122175  13.680   1.496  11.933
73467SOL    HW222176  13.791   1.398  11.900
73468SOL     OW22177   5.081   1.370  11.142
73468SOL    HW122178   5.089   1.450  11.089
73468SOL    HW222179   5.166   1.361  11.185
73469SOL     OW22180  12.676   8.197   0.680
73469SOL    HW122181  12.725   8.270   0.642
73469SOL    HW222182  12.730   8.121   0.662
73470SOL     OW22183   2.330  10.372   0.462
73470SOL    HW122184   2.247  10.342   0.499
73470SOL    HW222185   2.386  10.294   0.462
73471SOL     OW22186   7.658   6.210  12.614
73471SOL    HW122187   7.631   6.141  12.674
73471SOL    HW222188   7.675   6.165  12.531
73472SOL     OW22189  14.415   0.461   5.098
73472SOL    HW122190  14.372   0.430   5.177
73472SOL    HW222191  14.344   0.482   5.038
73473SOL     OW22192   3.270   1.082   8.480
73473SOL    HW122193   3.290   1.165   8.436
73473SOL    HW222194   3.290   1.015   8.415
73474SOL     OW22195  14.009   9.054   0.032
73474SOL    HW122196  14.046   9.108  14.843
73474SOL    HW222197  13.938   9.107   0.067
73475SOL     OW22198   9.473   0.983   6.760
73475SOL    HW122199   9.397   0.951   6.807
73475SOL    HW222200   9.463   1.079   6.760
73476SOL     OW22201   2.479   3.455   0.834
73476SOL    HW122202   2.458   3.465   0.927
73476SOL    HW222203   2.524   3.536   0.810
73477SOL     OW22204  12.404  10.699   6.126
73477SOL    HW122205  12.368  10.779   6.088
73477SOL    HW222206  12.489  10.689   6.084
73478SOL     OW22207   3.189   3.175   4.457
73478SOL    HW122208   3.232   3.255   4.486
73478SOL    HW222209   3.220   3.108   4.517
73479SOL     OW22210   1.777   9.278   3.113
73479SOL    HW122211   1.872   9.267   3.120
73479SOL    HW222212   1.744   9.189   3.105
73480SOL     OW22213  10.050   6.930  13.704
73480SOL    HW122214  10.103   6.910  13.626
73480SOL    HW222215  10.006   6.848  13.724
73481SOL     OW22216   2.162   9.482   8.909
73481SOL    HW122217   2.133   9.392   8.893
73481SOL    HW222218   2.110   9.511   8.984
73482SOL     OW22219  13.528   2.770  14.371
73482SOL    HW122220  13.459   2.735  14.314
73482SOL    HW222221  13.508   2.732  14.457
73483SOL     OW22222   6.862   8.570  13.437
73483SOL    HW122223   6.794   8.507  13.462
73483SOL    HW222224   6.842   8.649  13.487
73484SOL     OW22225  12.900  13.866   5.682
73484SOL    HW122226  12.868  13.952   5.708
73484SOL    HW222227  12.976  13.850   5.739
73485SOL     OW22228  12.074  13.559  12.782
73485SOL    HW122229  11.990  13.544  12.824
73485SOL    HW222230  12.057  13.631  12.720
73486SOL     OW22231   8.583  13.209  12.650
73486SOL    HW122232   8.669  13.167  12.641
73486SOL    HW222233   8.591  13.291  12.601
73487SOL     OW22234   9.104   8.778   0.648
73487SOL    HW122235   9.077   8.763   0.739
73487SOL    HW222236   9.119   8.691   0.612
73488SOL     OW22237   0.099  12.246  11.566
73488SOL    HW122238   0.171  12.300  11.533
73488SOL    HW222239   0.022  12.279  11.520
73489SOL     OW22240  14.204  10.551   3.016
73489SOL    HW122241  14.185  10.602   2.938
73489SOL    HW222242  14.135  10.575   3.078
73490SOL     OW22243   5.357   4.772  11.366
73490SOL    HW122244   5.397   4.857  11.350
73490SOL    HW222245   5.408   4.711  11.313
73491SOL     OW22246   5.787   2.983   2.063
73491SOL    HW122247   5.702   2.941   2.053
73491SOL    HW222248   5.769   3.077   2.060
73492SOL     OW22249   5.204  11.223   7.264
73492SOL    HW122250   5.112  11.217   7.288
73492SOL    HW222251   5.210  11.299   7.206
73493SOL     OW22252  14.747   3.652   4.556
73493SOL    HW122253  14.761   3.718   4.488
73493SOL    HW222254  14.792   3.688   4.633
73494SOL     OW22255   2.085   9.657   4.627
73494SOL    HW122256   2.067   9.715   4.701
73494SOL    HW222257   2.063   9.709   4.550
73495SOL     OW22258   8.837   3.235   0.151
73495SOL    HW122259   8.850   3.285   0.232
73495SOL    HW222260   8.799   3.152   0.179
73496SOL     OW22261   2.119   3.176  14.202
73496SOL    HW122262   2.157   3.095  14.168
73496SOL    HW222263   2.115   3.162  14.296
73497SOL     OW22264   0.035  14.804   9.195
73497SOL    HW122265  14.848  14.842   9.250
73497SOL    HW222266  14.871  14.737   9.144
73498SOL     OW22267   3.511   9.356   2.213
73498SOL    HW122268   3.514   9.370   2.308
73498SOL    HW222269   3.418   9.355   2.191
73499SOL     OW22270   0.394   7.125   8.084
73499SOL    HW122271   0.304   7.113   8.114
73499SOL    HW222272   0.445   7.061   8.134
73500SOL     OW22273  10.530   5.713   8.556
73500SOL    HW122274  10.446   5.752   8.581
73500SOL    HW222275  10.509   5.658   8.481
73501SOL     OW22276   7.168   7.859   1.331
73501SOL    HW122277   7.092   7.899   1.287
73501SOL    HW222278   7.243   7.910   1.300
73502SOL     OW22279   8.440   1.647   7.076
73502SOL    HW122280   8.474   1.565   7.111
73502SOL    HW222281   8.436   1.706   7.152
73503SOL     OW22282  14.659  14.513   6.500
73503SOL    HW122283  14.583  14.513   6.441
73503SOL    HW222284  14.629  14.466   6.578
73504SOL     OW22285  11.978   7.511   8.581
73504SOL    HW122286  11.938   7.436   8.626
73504SOL    HW222287  11.948   7.503   8.491
73505SOL     OW22288   4.646  13.483   0.929
73505SOL    HW122289   4.711  13.551   0.914
73505SOL    HW222290   4.603  13.470   0.845
73506SOL     OW22291   2.947   0.961   5.055
73506SOL    HW122292   2.894   0.994   5.127
73506SOL    HW222293   3.035   0.991   5.074
73507SOL     OW22294  13.415   8.656  11.985
73507SOL    HW122295  13.435   8.739  11.942
73507SOL    HW222296  13.428   8.590  11.916
73508SOL     OW22297  11.754  14.330   9.804
73508SOL    HW122298  11.660  14.346   9.806
73508SOL    HW222299  11.793  14.405   9.850
73509SOL     OW22300   6.818   3.736   8.305
73509SOL    HW122301   6.870   3.686   8.242
73509SOL    HW222302   6.866   3.728   8.388
73510SOL     OW22303   3.267  13.291   0.643
73510SOL    HW122304   3.323  13.217   0.619
73510SOL    HW222305   3.318  13.368   0.618
73511SOL     OW22306   6.576   4.618   4.587
73511SOL    HW122307   6.640   4.607   4.517
73511SOL    HW222308   6.491   4.617   4.542
73512SOL     OW22309  12.771  14.482   7.434
73512SOL    HW122310  12.733  14.515   7.515
73512SOL    HW222311  12.705  14.503   7.367
73513SOL     OW22312  10.438   8.304   1.424
73513SOL    HW122313  10.486   8.321   1.505
73513SOL    HW222314  10.494   8.243   1.375
73514SOL     OW22315  11.840  10.599  13.818
73514SOL    HW122316  11.758  10.615  13.864
73514SOL    HW222317  11.886  10.535  13.873
73515SOL     OW22318   4.543   4.984  14.119
73515SOL    HW122319   4.549   4.889  14.110
73515SOL    HW222320   4.500   5.013  14.038
73516SOL     OW22321   9.023   6.313   0.532
73516SOL    HW122322   8.959   6.242   0.541
73516SOL    HW222323   9.015   6.363   0.612
73517SOL     OW22324   3.695   0.500   7.640
73517SOL    HW122325   3.761   0.545   7.588
73517SOL    HW222326   3.713   0.526   7.730
73518SOL     OW22327   5.733   2.874   5.516
73518SOL    HW122328   5.643   2.890   5.543
73518SOL    HW222329   5.735   2.894   5.422
73519SOL     OW22330   4.918  12.660   6.221
73519SOL    HW122331   5.002  12.652   6.177
73519SOL    HW222332   4.936  12.711   6.300
73520SOL     OW22333   9.866   2.605  12.828
73520SOL    HW122334   9.828   2.688  12.854
73520SOL    HW222335   9.940   2.593  12.887
73521SOL     OW22336   3.771  10.097   4.266
73521SOL    HW122337   3.690  10.090   4.318
73521SOL    HW222338   3.797  10.006   4.252
73522SOL     OW22339   9.919   2.558  13.735
73522SOL    HW122340   9.924   2.611  13.815
73522SOL    HW222341   9.831   2.520  13.737
73523SOL     OW22342   8.262   4.206  14.085
73523SOL    HW122343   8.207   4.213  14.007
73523SOL    HW222344   8.346   4.176  14.052
73524SOL     OW22345   1.853   2.301   0.656
73524SOL    HW122346   1.795   2.232   0.688
73524SOL    HW222347   1.902   2.328   0.734
73525SOL     OW22348  11.455   8.561   3.658
73525SOL    HW122349  11.362   8.564   3.635
73525SOL    HW222350  11.456   8.535   3.750
73526SOL     OW22351   9.151   6.552  10.937
73526SOL    HW122352   9.118   6.470  10.900
73526SOL    HW222353   9.238   6.563  10.898
73527SOL     OW22354   1.721   8.875   1.607
73527SOL    HW122355   1.650   8.866   1.543
73527SOL    HW222356   1.763   8.790   1.609
73528SOL     OW22357  11.610  14.012  14.749
73528SOL    HW122358  11.543  14.080  14.753
73528SOL    HW222359  11.582  13.955  14.678
73529SOL     OW22360  12.580   2.732   3.325
73529SOL    HW122361  12.557   2.650   3.282
73529SOL    HW222362  12.626   2.783   3.258
73530SOL     OW22363   3.035   3.730   2.292
73530SOL    HW122364   3.039   3.782   2.372
73530SOL    HW222365   3.096   3.773   2.232
73531SOL     OW22366  13.690  13.637  12.595
73531SOL    HW122367  13.650  13.578  12.531
73531SOL    HW222368  13.621  13.699  12.617
73532SOL     OW22369  14.261   3.865   7.741
73532SOL    HW122370  14.346   3.904   7.724
73532SOL    HW222371  14.246   3.880   7.835
73533SOL     OW22372  10.907   2.173  11.649
73533SOL    HW122373  10.948   2.094  11.685
73533SOL    HW222374  10.900   2.232  11.724
73534SOL     OW22375   5.959  10.849  10.972
73534SOL    HW122376   5.998  10.762  10.971
73534SOL    HW222377   6.022  10.903  11.019
73535SOL     OW22378   6.339   2.149  13.069
73535SOL    HW122379   6.366   2.089  12.999
73535SOL    HW222380   6.244   2.153  13.062
73536SOL     OW22381  10.045   1.111  14.793
73536SOL    HW122382   9.975   1.058  14.830
73536SOL    HW222383  10.002   1.190  14.761
73537SOL     OW22384   8.340  12.631  13.198
73537SOL    HW122385   8.392  12.712  13.202
73537SOL    HW222386   8.370  12.580  13.274
73538SOL     OW22387   1.450   0.070   7.350
73538SOL    HW122388   1.481   0.156   7.377
73538SOL    HW222389   1.461   0.015   7.428
73539SOL     OW22390   1.133   4.082  14.754
73539SOL    HW122391   1.165   4.010  14.809
73539SOL    HW222392   1.102   4.148  14.816
73540SOL     OW22393  11.681   9.365  14.179
73540SOL    HW122394  11.771   9.394  14.166
73540SOL    HW222395  11.683   9.317  14.262
73541SOL     OW22396   0.569  13.864   1.898
73541SOL    HW122397   0.570  13.876   1.993
73541SOL    HW222398   0.492  13.809   1.881
73542SOL     OW22399   4.937   6.249  10.507
73542SOL    HW122400   4.870   6.182  10.489
73542SOL    HW222401   4.998   6.243  10.434
73543SOL     OW22402  14.269  13.179   8.505
73543SOL    HW122403  14.334  13.207   8.569
73543SOL    HW222404  14.194  13.150   8.558
73544SOL     OW22405   9.919   4.740  14.789
73544SOL    HW122406   9.840   4.756  14.738
73544SOL    HW222407   9.961   4.666  14.745
73545SOL     OW22408   2.232   1.663   3.056
73545SOL    HW122409   2.141   1.657   3.026
73545SOL    HW222410   2.244   1.755   3.079
73546SOL     OW22411   0.479  11.671   5.237
73546SOL    HW122412   0.549  11.665   5.172
73546SOL    HW222413   0.406  11.621   5.199
73547SOL     OW22414   0.484  10.616  11.779
73547SOL    HW122415   0.486  10.534  11.728
73547SOL    HW222416   0.468  10.684  11.713
73548SOL     OW22417   4.225   3.837  12.646
73548SOL    HW122418   4.188   3.755  12.613
73548SOL    HW222419   4.171   3.905  12.607
73549SOL     OW22420   3.819   7.229   7.342
73549SOL    HW122421   3.731   7.240   7.379
73549SOL    HW222422   3.874   7.209   7.417
73550SOL     OW22423  11.579   6.156   0.058
73550SOL    HW122424  11.636   6.170   0.133
73550SOL    HW222425  11.496   6.197   0.082
73551SOL     OW22426   6.986   8.422   9.724
73551SOL    HW122427   7.010   8.330   9.736
73551SOL    HW222428   7.064   8.471   9.747
73552SOL     OW22429   5.609   2.106   9.886
73552SOL    HW122430   5.614   2.200   9.901
73552SOL    HW222431   5.568   2.071   9.965
73553SOL     OW22432  10.970  12.782   8.377
73553SOL    HW122433  10.957  12.856   8.318
73553SOL    HW222434  10.886  12.771   8.421
73554SOL     OW22435   9.748   9.245   3.883
73554SOL    HW122436   9.749   9.332   3.922
73554SOL    HW222437   9.814   9.249   3.813
73555SOL     OW22438  10.492   9.477  14.401
73555SOL    HW122439  10.447   9.400  14.367
73555SOL    HW222440  10.459   9.549  14.348
73556SOL     OW22441   9.754   5.970   6.556
73556SOL    HW122442   9.695   6.013   6.495
73556SOL    HW222443   9.768   6.034   6.626
73557SOL     OW22444  12.938  13.581   8.370
73557SOL    HW122445  12.978  13.657   8.411
73557SOL    HW222446  12.985  13.506   8.408
73558SOL     OW22447   5.148  12.018   1.428
73558SOL    HW122448   5.211  12.075   1.384
73558SOL    HW222449   5.079  12.077   1.457
73559SOL     OW22450  12.098   2.776   8.162
73559SOL    HW122451  12.025   2.760   8.103
73559SOL    HW222452  12.156   2.834   8.113
73560SOL     OW22453   6.272   6.746   9.594
73560SOL    HW122454   6.252   6.690   9.670
73560SOL    HW222455   6.353   6.792   9.619
73561SOL     OW22456  10.465   2.423  10.359
73561SOL    HW122457  10.512   2.468  10.429
73561SOL    HW222458  10.400   2.485  10.329
73562SOL     OW22459   2.836  10.540   9.070
73562SOL    HW122460   2.770  10.580   9.126
73562SOL    HW222461   2.842  10.450   9.101
73563SOL     OW22462   6.977   8.870  13.221
73563SOL    HW122463   6.948   8.781  13.203
73563SOL    HW222464   7.071   8.869  13.202
73564SOL     OW22465   2.343  14.110   5.357
73564SOL    HW122466   2.365  14.022   5.328
73564SOL    HW222467   2.405  14.167   5.311
73565SOL     OW22468   5.085   8.290   7.108
73565SOL    HW122469   5.061   8.313   7.018
73565SOL    HW222470   5.177   8.266   7.103
73566SOL     OW22471   6.496   8.332  14.398
73566SOL    HW122472   6.508   8.364  14.309
73566SOL    HW222473   6.450   8.404  14.443
73567SOL     OW22474  12.151   6.005   6.232
73567SOL    HW122475  12.143   6.093   6.270
73567SOL    HW222476  12.126   5.946   6.303
73568SOL     OW22477  10.178   2.084   8.591
73568SOL    HW122478  10.119   2.096   8.666
73568SOL    HW222479  10.225   2.168   8.584
73569SOL     OW22480   9.908   7.120   1.301
73569SOL    HW122481   9.967   7.080   1.237
73569SOL    HW222482   9.821   7.110   1.263
73570SOL     OW22483   5.822   8.236  13.038
73570SOL    HW122484   5.827   8.291  13.116
73570SOL    HW222485   5.799   8.149  13.072
73571SOL     OW22486  10.441   4.510   3.721
73571SOL    HW122487  10.507   4.510   3.790
73571SOL    HW222488  10.357   4.505   3.766
73572SOL     OW22489   8.342   4.847  11.416
73572SOL    HW122490   8.312   4.935  11.438
73572SOL    HW222491   8.431   4.842  11.451
73573SOL     OW22492   2.566  10.163   3.775
73573SOL    HW122493   2.647  10.191   3.817
73573SOL    HW222494   2.554  10.225   3.703
73574SOL     OW22495  12.477   0.220   1.177
73574SOL    HW122496  12.413   0.152   1.200
73574SOL    HW222497  12.509   0.252   1.261
73575SOL     OW22498  13.361   0.034   0.077
73575SOL    HW122499  13.319  14.842   0.121
73575SOL    HW222500  13.368   0.101   0.145
73576SOL     OW22501  12.630  13.853  14.108
73576SOL    HW122502  12.597  13.922  14.051
73576SOL    HW222503  12.560  13.787  14.108
73577SOL     OW22504   0.065   5.334   7.892
73577SOL    HW122505   0.065   5.389   7.970
73577SOL    HW222506  14.879   5.371   7.835
73578SOL     OW22507   1.617   7.479   6.404
73578SOL    HW122508   1.682   7.521   6.348
73578SOL    HW222509   1.542   7.539   6.404
73579SOL     OW22510   1.720  10.844   0.178
73579SOL    HW122511   1.654  10.869   0.113
73579SOL    HW222512   1.724  10.918   0.238
73580SOL     OW22513   2.661   4.377   1.565
73580SOL    HW122514   2.648   4.469   1.589
73580SOL    HW222515   2.578   4.349   1.528
73581SOL     OW22516   1.891   2.155   1.163
73581SOL    HW122517   1.935   2.196   1.238
73581SOL    HW222518   1.798   2.171   1.179
73582SOL     OW22519   0.425   3.567   6.486
73582SOL    HW122520   0.520   3.552   6.481
73582SOL    HW222521   0.404   3.616   6.407
73583SOL     OW22522   2.386   6.194   5.107
73583SOL    HW122523   2.457   6.247   5.070
73583SOL    HW222524   2.322   6.186   5.037
73584SOL     OW22525   0.340   2.354   3.548
73584SOL    HW122526   0.280   2.376   3.620
73584SOL    HW222527   0.426   2.351   3.588
73585SOL     OW22528   9.067   6.424   2.676
73585SOL    HW122529   9.140   6.392   2.729
73585SOL    HW222530   9.051   6.513   2.709
73586SOL     OW22531   7.426   2.628  14.593
73586SOL    HW122532   7.513   2.666  14.607
73586SOL    HW222533   7.368   2.677  14.651
73587SOL     OW22534   4.775   3.932  10.657
73587SOL    HW122535   4.680   3.922  10.653
73587SOL    HW222536   4.808   3.868  10.593
73588SOL     OW22537  10.699   1.108  12.806
73588SOL    HW122538  10.749   1.028  12.825
73588SOL    HW222539  10.712   1.123  12.713
73589SOL     OW22540   6.137   6.940  13.040
73589SOL    HW122541   6.101   7.010  12.987
73589SOL    HW222542   6.220   6.975  13.073
73590SOL     OW22543  11.167   9.489   8.723
73590SOL    HW122544  11.076   9.519   8.722
73590SOL    HW222545  11.161   9.394   8.738
73591SOL     OW22546   7.325  12.541  11.298
73591SOL    HW122547   7.304  12.634  11.307
73591SOL    HW222548   7.420  12.540  11.282
73592SOL     OW22549   1.672   4.894   5.633
73592SOL    HW122550   1.709   4.957   5.695
73592SOL    HW222551   1.673   4.940   5.549
73593SOL     OW22552  12.772   7.454  14.288
73593SOL    HW122553  12.816   7.475  14.205
73593SOL    HW222554  12.801   7.365  14.308
73594SOL     OW22555   1.919  13.943   8.922
73594SOL    HW122556   1.838  13.980   8.886
73594SOL    HW222557   1.925  13.856   8.882
73595SOL     OW22558  10.242   5.308  14.041
73595SOL    HW122559  10.207   5.278  14.125
73595SOL    HW222560  10.166   5.308  13.982
73596SOL     OW22561   1.838   6.915   0.246
73596SOL    HW122562   1.801   6.838   0.289
73596SOL    HW222563   1.928   6.920   0.279
73597SOL     OW22564   0.742   6.492   3.152
73597SOL    HW122565   0.807   6.533   3.209
73597SOL    HW222566   0.721   6.409   3.194
73598SOL     OW22567   5.195  10.875   3.427
73598SOL    HW122568   5.113  10.912   3.461
73598SOL    HW222569   5.172  10.845   3.339
73599SOL     OW22570  14.479  14.191   7.081
73599SOL    HW122571  14.531  14.127   7.032
73599SOL    HW222572  14.415  14.223   7.018
73600SOL     OW22573  13.571   3.463   2.381
73600SOL    HW122574  13.564   3.497   2.470
73600SOL    HW222575  13.664   3.469   2.360
73601SOL     OW22576   3.516   1.525  11.550
73601SOL    HW122577   3.459   1.458  11.587
73601SOL    HW222578   3.600   1.514  11.595
73602SOL     OW22579   8.416   2.467   8.914
73602SOL    HW122580   8.459   2.552   8.901
73602SOL    HW222581   8.484   2.411   8.951
73603SOL     OW22582   4.666   4.186   6.345
73603SOL    HW122583   4.692   4.096   6.365
73603SOL    HW222584   4.672   4.231   6.429
73604SOL     OW22585   3.161   6.652  11.711
73604SOL    HW122586   3.122   6.736  11.686
73604SOL    HW222587   3.178   6.608  11.627
73605SOL     OW22588   3.776   8.559   8.905
73605SOL    HW122589   3.720   8.546   8.982
73605SOL    HW222590   3.813   8.472   8.888
73606SOL     OW22591  13.451  14.503   0.292
73606SOL    HW122592  13.435  14.597   0.305
73606SOL    HW222593  13.366  14.462   0.306
73607SOL     OW22594  11.060   6.077   3.772
73607SOL    HW122595  11.043   6.160   3.815
73607SOL    HW222596  10.988   6.068   3.709
73608SOL     OW22597  14.556   1.085   7.355
73608SOL    HW122598  14.510   1.035   7.287
73608SOL    HW222599  14.637   1.115   7.311
73609SOL     OW22600   6.444   3.535   1.738
73609SOL    HW122601   6.437   3.617   1.689
73609SOL    HW222602   6.355   3.518   1.770
73610SOL     OW22603  13.783   5.066  12.268
73610SOL    HW122604  13.877   5.050  12.258
73610SOL    HW222605  13.777   5.161  12.276
73611SOL     OW22606  12.850  13.284   3.526
73611SOL    HW122607  12.893  13.357   3.571
73611SOL    HW222608  12.893  13.206   3.559
73612SOL     OW22609   6.865   6.713   2.006
73612SOL    HW122610   6.910   6.752   1.931
73612SOL    HW222611   6.776   6.696   1.975
73613SOL     OW22612   6.463  13.657   5.333
73613SOL    HW122613   6.374  13.676   5.361
73613SOL    HW222614   6.499  13.741   5.306
73614SOL     OW22615   8.119   4.749   5.897
73614SOL    HW122616   8.061   4.732   5.971
73614SOL    HW222617   8.061   4.752   5.821
73615SOL     OW22618   1.095   6.831   1.178
73615SOL    HW122619   1.113   6.909   1.126
73615SOL    HW222620   1.170   6.774   1.162
73616SOL     OW22621   0.504   3.586   5.695
73616SOL    HW122622   0.410   3.586   5.710
73616SOL    HW222623   0.538   3.656   5.751
73617SOL     OW22624   6.786  10.879   0.235
73617SOL    HW122625   6.811  10.855   0.324
73617SOL    HW222626   6.691  10.891   0.240
73618SOL     OW22627  14.660  11.242   0.391
73618SOL    HW122628  14.672  11.151   0.420
73618SOL    HW222629  14.728  11.255   0.324
73619SOL     OW22630   7.825   6.147   9.772
73619SOL    HW122631   7.920   6.139   9.762
73619SOL    HW222632   7.794   6.184   9.690
73620SOL     OW22633  10.917   2.962  13.140
73620SOL    HW122634  10.967   3.024  13.193
73620SOL    HW222635  10.965   2.880  13.146
73621SOL     OW22636   2.461  10.011  11.088
73621SOL    HW122637   2.368  10.022  11.106
73621SOL    HW222638   2.467  10.002  10.993
73622SOL     OW22639   9.202   1.192   4.424
73622SOL    HW122640   9.247   1.114   4.392
73622SOL    HW222641   9.180   1.242   4.345
73623SOL     OW22642   7.580   2.313   0.228
73623SOL    HW122643   7.594   2.239   0.287
73623SOL    HW222644   7.654   2.372   0.246
73624SOL     OW22645   6.249   2.120   7.350
73624SOL    HW122646   6.308   2.112   7.425
73624SOL    HW222647   6.163   2.137   7.387
73625SOL     OW22648   2.817  12.643  14.599
73625SOL    HW122649   2.828  12.621  14.506
73625SOL    HW222650   2.736  12.598  14.625
73626SOL     OW22651  12.769  11.187   3.740
73626SOL    HW122652  12.800  11.121   3.678
73626SOL    HW222653  12.760  11.266   3.687
73627SOL     OW22654  13.360   0.935  14.402
73627SOL    HW122655  13.403   0.915  14.485
73627SOL    HW222656  13.348   1.030  14.403
73628SOL     OW22657   8.461  13.967  10.004
73628SOL    HW122658   8.413  13.885  10.017
73628SOL    HW222659   8.553  13.941  10.005
73629SOL     OW22660  11.712   8.003   3.455
73629SOL    HW122661  11.641   7.947   3.426
73629SOL    HW222662  11.785   7.982   3.397
73630SOL     OW22663   9.900   9.605  12.202
73630SOL    HW122664   9.817   9.651  12.195
73630SOL    HW222665   9.930   9.623  12.291
73631SOL     OW22666  10.798  12.524   6.567
73631SOL    HW122667  10.850  12.448   6.594
73631SOL    HW222668  10.708  12.501   6.589
73632SOL     OW22669   6.037   2.363   6.230
73632SOL    HW122670   6.124   2.353   6.269
73632SOL    HW222671   5.976   2.339   6.300
73633SOL     OW22672   2.263  12.769   5.861
73633SOL    HW122673   2.212  12.827   5.917
73633SOL    HW222674   2.262  12.811   5.775
73634SOL     OW22675   0.609   5.302  11.661
73634SOL    HW122676   0.699   5.280  11.685
73634SOL    HW222677   0.578   5.356  11.733
73635SOL     OW22678   3.869   3.270  10.189
73635SOL    HW122679   3.820   3.331  10.134
73635SOL    HW222680   3.961   3.285  10.166
73636SOL     OW22681   8.596   8.826   1.891
73636SOL    HW122682   8.508   8.859   1.872
73636SOL    HW222683   8.637   8.816   1.805
73637SOL     OW22684  11.786   6.798   8.588
73637SOL    HW122685  11.859   6.790   8.650
73637SOL    HW222686  11.823   6.845   8.514
73638SOL     OW22687   8.505   5.443   3.547
73638SOL    HW122688   8.493   5.538   3.558
73638SOL    HW222689   8.426   5.414   3.502
73639SOL     OW22690   1.941   9.051   1.551
73639SOL    HW122691   1.860   9.055   1.601
73639SOL    HW222692   2.006   9.014   1.611
73640SOL     OW22693   2.613   3.276   9.844
73640SOL    HW122694   2.585   3.211   9.908
73640SOL    HW222695   2.594   3.237   9.759
73641SOL     OW22696   2.293   3.384   4.092
73641SOL    HW122697   2.245   3.339   4.024
73641SOL    HW222698   2.238   3.459   4.116
73642SOL     OW22699   5.787   0.381   7.138
73642SOL    HW122700   5.846   0.321   7.183
73642SOL    HW222701   5.782   0.458   7.195
73643SOL     OW22702   1.183  13.012   9.153
73643SOL    HW122703   1.105  13.030   9.100
73643SOL    HW222704   1.224  13.098   9.166
73644SOL     OW22705  13.458   3.070   7.583
73644SOL    HW122706  13.479   3.121   7.505
73644SOL    HW222707  13.490   3.124   7.656
73645SOL     OW22708   5.365   1.582  11.813
73645SOL    HW122709   5.335   1.503  11.856
73645SOL    HW222710   5.460   1.582  11.825
73646SOL     OW22711   3.775  10.577  13.232
73646SOL    HW122712   3.704  10.530  13.189
73646SOL    HW222713   3.741  10.600  13.319
73647SOL     OW22714   2.645  13.162   4.463
73647SOL    HW122715   2.668  13.089   4.405
73647SOL    HW222716   2.721  13.221   4.458
73648SOL     OW22717   6.973   6.276   1.448
73648SOL    HW122718   6.882   6.303   1.438
73648SOL    HW222719   7.011   6.342   1.508
73649SOL     OW22720   1.079  13.654   6.663
73649SOL    HW122721   1.147  13.586   6.659
73649SOL    HW222722   1.032  13.636   6.744
73650SOL     OW22723   2.400   9.652   4.531
73650SOL    HW122724   2.411   9.633   4.437
73650SOL    HW222725   2.356   9.736   4.534
73651SOL     OW22726   8.191   5.526   8.929
73651SOL    HW122727   8.228   5.560   8.848
73651SOL    HW222728   8.104   5.495   8.905
73652SOL     OW22729   9.921   7.884   6.184
73652SOL    HW122730   9.908   7.978   6.172
73652SOL    HW222731   9.832   7.849   6.190
73653SOL     OW22732   2.941   4.845  14.681
73653SOL    HW122733   2.847   4.842  14.664
73653SOL    HW222734   2.961   4.938  14.689
73654SOL     OW22735   2.731   9.023   6.038
73654SOL    HW122736   2.654   9.024   5.981
73654SOL    HW222737   2.707   9.079   6.112
73655SOL     OW22738   3.263   6.625   2.801
73655SOL    HW122739   3.341   6.635   2.856
73655SOL    HW222740   3.205   6.696   2.829
73656SOL     OW22741   1.950  13.418   9.135
73656SOL    HW122742   1.893  13.422   9.058
73656SOL    HW222743   1.987  13.330   9.133
73657SOL     OW22744   5.191   5.085  14.499
73657SOL    HW122745   5.242   5.164  14.518
73657SOL    HW222746   5.247   5.013  14.527
73658SOL     OW22747  11.822  13.467  14.082
73658SOL    HW122748  11.760  13.528  14.122
73658SOL    HW222749  11.886  13.524  14.039
73659SOL     OW22750  11.322   6.125   7.116
73659SOL    HW122751  11.256   6.112   7.048
73659SOL    HW222752  11.339   6.219   7.115
73660SOL     OW22753   9.542  13.375  13.409
73660SOL    HW122754   9.488  13.426  13.348
73660SOL    HW222755   9.500  13.289  13.412
73661SOL     OW22756  11.337  13.701   2.702
73661SOL    HW122757  11.319  13.609   2.721
73661SOL    HW222758  11.366  13.702   2.611
73662SOL     OW22759  13.329   5.896  10.405
73662SOL    HW122760  13.345   5.989  10.389
73662SOL    HW222761  13.245   5.894  10.450
73663SOL     OW22762  14.805  10.953  13.130
73663SOL    HW122763  14.880  11.003  13.098
73663SOL    HW222764  14.842  10.889  13.190
73664SOL     OW22765  10.552   7.679   2.191
73664SOL    HW122766  10.639   7.641   2.193
73664SOL    HW222767  10.565   7.770   2.220
73665SOL     OW22768   8.853  10.315   7.957
73665SOL    HW122769   8.818  10.270   8.034
73665SOL    HW222770   8.789  10.383   7.938
73666SOL     OW22771  12.103   3.891   0.179
73666SOL    HW122772  12.140   3.823   0.124
73666SOL    HW222773  12.127   3.866   0.268
73667SOL     OW22774  12.302  12.003   7.423
73667SOL    HW122775  12.331  12.067   7.488
73667SOL    HW222776  12.252  11.939   7.472
73668SOL     OW22777  10.848   1.680   4.540
73668SOL    HW122778  10.942   1.661   4.546
73668SOL    HW222779  10.844   1.774   4.524
73669SOL     OW22780   1.755   2.395   7.926
73669SOL    HW122781   1.759   2.402   7.830
73669SOL    HW222782   1.662   2.382   7.944
73670SOL     OW22783  14.532   1.134   3.278
73670SOL    HW122784  14.454   1.104   3.231
73670SOL    HW222785  14.567   1.205   3.225
73671SOL     OW22786   9.657  10.180  11.840
73671SOL    HW122787   9.694  10.091  11.844
73671SOL    HW222788   9.696  10.225  11.914
73672SOL     OW22789   0.320   9.682  11.452
73672SOL    HW122790   0.386   9.634  11.503
73672SOL    HW222791   0.291   9.620  11.386
73673SOL     OW22792  12.106   6.258   5.943
73673SOL    HW122793  12.013   6.254   5.923
73673SOL    HW222794  12.109   6.276   6.038
73674SOL     OW22795  14.586   2.250   4.191
73674SOL    HW122796  14.642   2.215   4.122
73674SOL    HW222797  14.568   2.340   4.164
73675SOL     OW22798   2.197  14.127  14.093
73675SOL    HW122799   2.279  14.077  14.090
73675SOL    HW222800   2.170  14.133  14.001
73676SOL     OW22801   0.750   1.697   5.463
73676SOL    HW122802   0.707   1.620   5.426
73676SOL    HW222803   0.679   1.761   5.474
73677SOL     OW22804  13.938  14.183  13.624
73677SOL    HW122805  13.910  14.256  13.567
73677SOL    HW222806  13.941  14.108  13.566
73678SOL     OW22807   5.289   2.790  11.748
73678SOL    HW122808   5.242   2.766  11.668
73678SOL    HW222809   5.373   2.746  11.742
73679SOL     OW22810   7.501   5.768   5.944
73679SOL    HW122811   7.461   5.855   5.944
73679SOL    HW222812   7.426   5.708   5.940
73680SOL     OW22813  14.246   9.878  11.579
73680SOL    HW122814  14.282   9.847  11.662
73680SOL    HW222815  14.259   9.805  11.518
73681SOL     OW22816   5.116   1.744   5.481
73681SOL    HW122817   5.176   1.783   5.544
73681SOL    HW222818   5.092   1.815   5.423
73682SOL     OW22819   6.500   8.709  14.142
73682SOL    HW122820   6.455   8.653  14.205
73682SOL    HW222821   6.439   8.715  14.068
73683SOL     OW22822   0.475   1.189   2.424
73683SOL    HW122823   0.467   1.174   2.330
73683SOL    HW222824   0.561   1.154   2.446
73684SOL     OW22825   7.979   9.428   1.145
73684SOL    HW122826   8.068   9.402   1.124
73684SOL    HW222827   7.928   9.410   1.066
73685SOL     OW22828   7.721   1.879  10.429
73685SOL    HW122829   7.738   1.854  10.520
73685SOL    HW222830   7.740   1.799  10.379
73686SOL     OW22831   2.508   7.304  10.337
73686SOL    HW122832   2.474   7.364  10.402
73686SOL    HW222833   2.599   7.331  10.324
73687SOL     OW22834   9.111   0.940  10.150
73687SOL    HW122835   9.123   1.034  10.164
73687SOL    HW222836   9.190   0.912  10.104
73688SOL     OW22837  14.448   4.839   7.007
73688SOL    HW122838  14.509   4.876   6.943
73688SOL    HW222839  14.502   4.824   7.085
73689SOL     OW22840   6.376   1.852  12.611
73689SOL    HW122841   6.423   1.770  12.624
73689SOL    HW222842   6.443   1.920  12.622
73690SOL     OW22843   4.896  10.802   7.506
73690SOL    HW122844   4.902  10.709   7.529
73690SOL    HW222845   4.949  10.847   7.572
73691SOL     OW22846   7.672   3.080  14.531
73691SOL    HW122847   7.644   3.066  14.621
73691SOL    HW222848   7.768   3.077  14.535
73692SOL     OW22849   2.022   4.712  11.052
73692SOL    HW122850   1.999   4.791  11.101
73692SOL    HW222851   1.993   4.639  11.107
73693SOL     OW22852  11.531   3.069   5.390
73693SOL    HW122853  11.457   3.118   5.427
73693SOL    HW222854  11.520   2.980   5.425
73694SOL     OW22855  10.131   7.836   5.975
73694SOL    HW122856  10.075   7.839   6.053
73694SOL    HW222857  10.075   7.801   5.906
73695SOL     OW22858  12.395  10.242  12.219
73695SOL    HW122859  12.457  10.230  12.291
73695SOL    HW222860  12.450  10.252  12.141
73696SOL     OW22861   0.735   1.339   0.862
73696SOL    HW122862   0.735   1.430   0.891
73696SOL    HW222863   0.644   1.320   0.840
73697SOL     OW22864   5.204   8.202   2.929
73697SOL    HW122865   5.133   8.257   2.962
73697SOL    HW222866   5.267   8.197   3.001
73698SOL     OW22867   1.576   6.716   9.116
73698SOL    HW122868   1.572   6.713   9.021
73698SOL    HW222869   1.668   6.703   9.138
73699SOL     OW22870   7.593  14.290  14.764
73699SOL    HW122871   7.499  14.307  14.774
73699SOL    HW222872   7.603  14.267  14.672
73700SOL     OW22873   3.144   5.531   5.864
73700SOL    HW122874   3.170   5.466   5.930
73700SOL    HW222875   3.054   5.554   5.887
73701SOL     OW22876   2.836  11.654   5.626
73701SOL    HW122877   2.848  11.698   5.542
73701SOL    HW222878   2.746  11.674   5.652
73702SOL     OW22879   6.161   3.730  12.595
73702SOL    HW122880   6.183   3.668  12.665
73702SOL    HW222881   6.243   3.775  12.575
73703SOL     OW22882  12.357   1.301   5.205
73703SOL    HW122883  12.419   1.373   5.190
73703SOL    HW222884  12.271   1.341   5.191
73704SOL     OW22885   4.818   1.975  11.892
73704SOL    HW122886   4.855   1.969  11.981
73704SOL    HW222887   4.894   1.973  11.834
73705SOL     OW22888   7.851  14.799  14.782
73705SOL    HW122889   7.788  14.867  14.808
73705SOL    HW222890   7.914  14.846  14.727
73706SOL     OW22891   2.347   9.210  13.757
73706SOL    HW122892   2.419   9.249  13.806
73706SOL    HW222893   2.311   9.142  13.815
73707SOL     OW22894   4.070   0.999  13.764
73707SOL    HW122895   4.008   0.958  13.704
73707SOL    HW222896   4.032   1.085  13.783
73708SOL     OW22897  12.427   3.577   6.201
73708SOL    HW122898  12.388   3.494   6.174
73708SOL    HW222899  12.468   3.611   6.121
73709SOL     OW22900   5.930   5.270   8.564
73709SOL    HW122901   5.935   5.364   8.582
73709SOL    HW222902   5.904   5.231   8.647
73710SOL     OW22903   0.047  13.191   7.540
73710SOL    HW122904  14.865  13.144   7.486
73710SOL    HW222905   0.089  13.252   7.478
73711SOL     OW22906   7.801   3.312   3.008
73711SOL    HW122907   7.871   3.254   2.978
73711SOL    HW222908   7.792   3.292   3.101
73712SOL     OW22909   8.647   0.091  14.310
73712SOL    HW122910   8.653   0.088  14.215
73712SOL    HW222911   8.564   0.048  14.330
73713SOL     OW22912   3.399   5.760   6.312
73713SOL    HW122913   3.334   5.691   6.320
73713SOL    HW222914   3.352   5.840   6.338
73714SOL     OW22915  10.649   5.471   5.847
73714SOL    HW122916  10.605   5.502   5.926
73714SOL    HW222917  10.689   5.388   5.874
73715SOL     OW22918   1.316  13.543  14.299
73715SOL    HW122919   1.343  13.572  14.386
73715SOL    HW222920   1.220  13.538  14.304
73716SOL     OW22921  10.268  12.015   3.139
73716SOL    HW122922  10.364  12.014   3.135
73716SOL    HW222923  10.245  11.929   3.174
73717SOL     OW22924   3.532   4.302   6.224
73717SOL    HW122925   3.534   4.210   6.197
73717SOL    HW222926   3.445   4.313   6.263
73718SOL     OW22927   8.372   9.661  10.091
73718SOL    HW122928   8.401   9.577  10.057
73718SOL    HW222929   8.280   9.666  10.067
73719SOL     OW22930  12.124  14.243   0.653
73719SOL    HW122931  12.070  14.311   0.694
73719SOL    HW222932  12.159  14.193   0.726
73720SOL     OW22933   2.487  14.218   2.250
73720SOL    HW122934   2.493  14.123   2.245
73720SOL    HW222935   2.565  14.250   2.205
73721SOL     OW22936  10.401  12.658  14.607
73721SOL    HW122937  10.482  12.700  14.579
73721SOL    HW222938  10.340  12.672  14.534
73722SOL     OW22939   7.588   2.497  13.507
73722SOL    HW122940   7.651   2.442  13.461
73722SOL    HW222941   7.634   2.525  13.586
73723SOL     OW22942   8.271   6.607  14.096
73723SOL    HW122943   8.270   6.608  14.191
73723SOL    HW222944   8.348   6.657  14.071
73724SOL     OW22945   6.563  12.937   3.760
73724SOL    HW122946   6.564  13.030   3.783
73724SOL    HW222947   6.478  12.905   3.791
73725SOL     OW22948   8.374   9.297   0.191
73725SOL    HW122949   8.286   9.268   0.214
73725SOL    HW222950   8.366   9.329   0.102
73726SOL     OW22951   8.171  12.714   1.925
73726SOL    HW122952   8.205  12.790   1.879
73726SOL    HW222953   8.125  12.664   1.858
73727SOL     OW22954  13.886   9.554   1.024
73727SOL    HW122955  13.798   9.553   1.063
73727SOL    HW222956  13.931   9.480   1.063
73728SOL     OW22957   5.970   9.476   7.135
73728SOL    HW122958   6.040   9.542   7.132
73728SOL    HW222959   5.940   9.478   7.226
73729SOL     OW22960   4.590  10.997  14.606
73729SOL    HW122961   4.525  11.053  14.648
73729SOL    HW222962   4.560  10.988  14.516
73730SOL     OW22963   4.437   7.147   3.192
73730SOL    HW122964   4.531   7.129   3.194
73730SOL    HW222965   4.428   7.226   3.138
73731SOL     OW22966   2.721  12.937   5.750
73731SOL    HW122967   2.813  12.912   5.757
73731SOL    HW222968   2.694  12.907   5.663
73732SOL     OW22969   5.445   5.452  10.060
73732SOL    HW122970   5.424   5.369  10.016
73732SOL    HW222971   5.365   5.473  10.109
73733SOL     OW22972   5.432   4.298   8.760
73733SOL    HW122973   5.391   4.322   8.843
73733SOL    HW222974   5.388   4.217   8.734
73734SOL     OW22975   2.386   4.030  12.690
73734SOL    HW122976   2.410   3.938  12.677
73734SOL    HW222977   2.313   4.028  12.751
73735SOL     OW22978  14.583  11.001   8.362
73735SOL    HW122979  14.579  11.086   8.317
73735SOL    HW222980  14.578  11.023   8.455
73736SOL     OW22981   0.220   7.212  12.305
73736SOL    HW122982   0.292   7.270  12.329
73736SOL    HW222983   0.254   7.124  12.324
73737SOL     OW22984  10.202  11.081  12.545
73737SOL    HW122985  10.149  11.143  12.494
73737SOL    HW222986  10.292  11.097  12.518
73738SOL     OW22987  11.637   0.410   6.907
73738SOL    HW122988  11.645   0.425   6.813
73738SOL    HW222989  11.624   0.497   6.944
73739SOL     OW22990   6.063   6.950   6.462
73739SOL    HW122991   6.077   7.036   6.421
73739SOL    HW222992   6.149   6.908   6.462
73740SOL     OW22993   6.570   5.671   0.708
73740SOL    HW122994   6.590   5.626   0.625
73740SOL    HW222995   6.548   5.761   0.682
73741SOL     OW22996   5.665   9.638   5.672
73741SOL    HW122997   5.604   9.711   5.681
73741SOL    HW222998   5.689   9.638   5.579
73742SOL     OW22999   0.333  10.579   3.974
73742SOL    HW123000   0.410  10.537   3.935
73742SOL    HW223001   0.363  10.607   4.061
73743SOL     OW23002  12.653   4.979   7.670
73743SOL    HW123003  12.558   4.970   7.671
73743SOL    HW223004  12.671   5.039   7.598
73744SOL     OW23005  11.939   0.326   6.326
73744SOL    HW123006  12.032   0.313   6.306
73744SOL    HW223007  11.934   0.414   6.362
73745SOL     OW23008  13.098  11.973   2.798
73745SOL    HW123009  13.068  11.882   2.789
73745SOL    HW223010  13.084  12.011   2.711
73746SOL     OW23011  11.676   6.071   6.984
73746SOL    HW123012  11.751   6.026   7.024
73746SOL    HW223013  11.623   6.099   7.058
73747SOL     OW23014  12.196   5.588   2.814
73747SOL    HW123015  12.225   5.661   2.868
73747SOL    HW223016  12.268   5.573   2.752
73748SOL     OW23017   9.111   1.185   1.843
73748SOL    HW123018   9.160   1.172   1.762
73748SOL    HW223019   9.091   1.279   1.845
73749SOL     OW23020   0.954  12.709  12.909
73749SOL    HW123021   1.018  12.717  12.838
73749SOL    HW223022   0.872  12.743  12.872
73750SOL     OW23023   0.760   5.408  13.482
73750SOL    HW123024   0.711   5.462  13.543
73750SOL    HW223025   0.849   5.408  13.516
73751SOL     OW23026  11.734  11.408  12.501
73751SOL    HW123027  11.773  11.406  12.413
73751SOL    HW223028  11.792  11.465  12.551
73752SOL     OW23029  12.395   0.287   7.923
73752SOL    HW123030  12.416   0.334   8.004
73752SOL    HW223031  12.474   0.237   7.903
73753SOL     OW23032   1.042  11.323   1.909
73753SOL    HW123033   0.972  11.351   1.850
73753SOL    HW223034   1.036  11.227   1.910
73754SOL     OW23035   8.340  12.554   0.605
73754SOL    HW123036   8.359  12.553   0.511
73754SOL    HW223037   8.375  12.637   0.636
73755SOL     OW23038   8.552  13.845  10.771
73755SOL    HW123039   8.469  13.816  10.735
73755SOL    HW223040   8.568  13.788  10.846
73756SOL     OW23041   0.345   7.966   7.536
73756SOL    HW123042   0.427   7.981   7.582
73756SOL    HW223043   0.368   7.901   7.469
73757SOL     OW23044   7.078   2.340   3.530
73757SOL    HW123045   7.105   2.373   3.444
73757SOL    HW223046   6.986   2.314   3.518
73758SOL     OW23047   4.942   3.240   5.352
73758SOL    HW123048   4.894   3.289   5.419
73758SOL    HW223049   5.011   3.300   5.323
73759SOL     OW23050   4.579   0.847   2.220
73759SOL    HW123051   4.632   0.795   2.159
73759SOL    HW223052   4.496   0.861   2.174
73760SOL     OW23053   6.921   9.331  11.503
73760SOL    HW123054   6.919   9.245  11.545
73760SOL    HW223055   6.875   9.318  11.420
73761SOL     OW23056   4.102  11.810   2.166
73761SOL    HW123057   4.161  11.735   2.174
73761SOL    HW223058   4.076  11.829   2.256
73762SOL     OW23059   1.711   5.004   0.481
73762SOL    HW123060   1.771   4.930   0.470
73762SOL    HW223061   1.650   4.997   0.408
73763SOL     OW23062  13.131   7.620   1.536
73763SOL    HW123063  13.154   7.613   1.443
73763SOL    HW223064  13.094   7.534   1.557
73764SOL     OW23065   2.454   2.421   8.382
73764SOL    HW123066   2.500   2.338   8.394
73764SOL    HW223067   2.361   2.398   8.381
73765SOL     OW23068   5.952  13.988  11.732
73765SOL    HW123069   5.884  13.924  11.708
73765SOL    HW223070   5.921  14.071  11.695
73766SOL     OW23071   6.083   0.784  13.478
73766SOL    HW123072   6.010   0.750  13.426
73766SOL    HW223073   6.077   0.879  13.468
73767SOL     OW23074   6.297   5.049   6.024
73767SOL    HW123075   6.284   4.959   6.056
73767SOL    HW223076   6.259   5.104   6.093
73768SOL     OW23077   7.624   7.515   4.923
73768SOL    HW123078   7.658   7.567   4.995
73768SOL    HW223079   7.570   7.575   4.872
73769SOL     OW23080  12.326   7.067   7.505
73769SOL    HW123081  12.256   7.107   7.454
73769SOL    HW223082  12.325   6.975   7.478
73770SOL     OW23083   1.978  13.611   2.577
73770SOL    HW123084   1.889  13.604   2.540
73770SOL    HW223085   1.989  13.705   2.594
73771SOL     OW23086   2.947   2.093   5.271
73771SOL    HW123087   2.920   2.071   5.181
73771SOL    HW223088   3.019   2.033   5.290
73772SOL     OW23089   8.688   4.146   9.996
73772SOL    HW123090   8.611   4.159  10.051
73772SOL    HW223091   8.661   4.081   9.931
73773SOL     OW23092   1.177  10.195  10.460
73773SOL    HW123093   1.240  10.134  10.499
73773SOL    HW223094   1.222  10.229  10.383
73774SOL     OW23095   1.345  12.823   1.217
73774SOL    HW123096   1.358  12.866   1.301
73774SOL    HW223097   1.408  12.866   1.158
73775SOL     OW23098   0.587   1.847  10.177
73775SOL    HW123099   0.539   1.772  10.143
73775SOL    HW223100   0.545   1.866  10.261
73776SOL     OW23101  14.802  10.645  13.947
73776SOL    HW123102   0.014  10.662  13.965
73776SOL    HW223103  14.762  10.732  13.950
73777SOL     OW23104   2.921   1.607   2.276
73777SOL    HW123105   2.892   1.607   2.184
73777SOL    HW223106   3.013   1.635   2.272
73778SOL     OW23107   8.992   0.084   0.110
73778SOL    HW123108   9.080   0.048   0.102
73778SOL    HW223109   8.934   0.008   0.101
73779SOL     OW23110  11.452   9.848  10.522
73779SOL    HW123111  11.391   9.776  10.501
73779SOL    HW223112  11.400   9.910  10.572
73780SOL     OW23113   8.121   4.275   9.745
73780SOL    HW123114   8.208   4.299   9.779
73780SOL    HW223115   8.140   4.225   9.665
73781SOL     OW23116  11.082   1.459   2.286
73781SOL    HW123117  11.127   1.530   2.331
73781SOL    HW223118  11.062   1.494   2.199
73782SOL     OW23119   3.416  10.224   0.854
73782SOL    HW123120   3.322  10.236   0.843
73782SOL    HW223121   3.453  10.312   0.847
73783SOL     OW23122   2.153   6.199   7.625
73783SOL    HW123123   2.165   6.171   7.716
73783SOL    HW223124   2.161   6.294   7.628
73784SOL     OW23125   7.984  11.392  14.714
73784SOL    HW123126   8.056  11.329  14.711
73784SOL    HW223127   8.020  11.468  14.759
73785SOL     OW23128   8.999   1.732  12.424
73785SOL    HW123129   8.927   1.717  12.486
73785SOL    HW223130   9.066   1.776  12.476
73786SOL     OW23131   7.961  13.739  11.139
73786SOL    HW123132   7.945  13.832  11.120
73786SOL    HW223133   8.022  13.740  11.212
73787SOL     OW23134   0.940   7.446  13.414
73787SOL    HW123135   0.852   7.482  13.417
73787SOL    HW223136   0.946   7.406  13.327
73788SOL     OW23137   9.719   3.418  10.658
73788SOL    HW123138   9.624   3.417  10.662
73788SOL    HW223139   9.746   3.332  10.690
73789SOL     OW23140  10.729  14.691  12.618
73789SOL    HW123141  10.781  14.764  12.654
73789SOL    HW223142  10.732  14.624  12.686
73790SOL     OW23143  12.371   6.408   3.513
73790SOL    HW123144  12.309   6.440   3.579
73790SOL    HW223145  12.324   6.339   3.467
73791SOL     OW23146  12.941   8.715   5.824
73791SOL    HW123147  12.937   8.765   5.743
73791SOL    HW223148  12.861   8.740   5.871
73792SOL     OW23149  12.314   6.466   5.021
73792SOL    HW123150  12.408   6.485   5.021
73792SOL    HW223151  12.300   6.415   4.941
73793SOL     OW23152  12.331   8.641   8.042
73793SOL    HW123153  12.356   8.730   8.067
73793SOL    HW223154  12.240   8.633   8.071
73794SOL     OW23155  13.723   5.647   9.366
73794SOL    HW123156  13.657   5.579   9.353
73794SOL    HW223157  13.691   5.698   9.441
73795SOL     OW23158   8.152  13.408  13.880
73795SOL    HW123159   8.097  13.330  13.881
73795SOL    HW223160   8.199  13.403  13.797
73796SOL     OW23161  13.231   2.846   6.044
73796SOL    HW123162  13.326   2.856   6.035
73796SOL    HW223163  13.194   2.913   5.986
73797SOL     OW23164   0.666   7.565   2.989
73797SOL    HW123165   0.589   7.567   2.934
73797SOL    HW223166   0.646   7.625   3.061
73798SOL     OW23167  14.605   8.189   8.996
73798SOL    HW123168  14.675   8.174   8.933
73798SOL    HW223169  14.572   8.101   9.016
73799SOL     OW23170   7.793   5.458   7.551
73799SOL    HW123171   7.773   5.457   7.458
73799SOL    HW223172   7.732   5.395   7.589
73800SOL     OW23173   0.364  12.155   3.961
73800SOL    HW123174   0.337  12.240   3.925
73800SOL    HW223175   0.457  12.166   3.980
73801SOL     OW23176   0.829   7.654   8.072
73801SOL    HW123177   0.735   7.666   8.056
73801SOL    HW223178   0.844   7.561   8.055
73802SOL     OW23179  12.560   0.397   4.900
73802SOL    HW123180  12.568   0.333   4.829
73802SOL    HW223181  12.476   0.441   4.883
73803SOL     OW23182   2.423  13.103   8.621
73803SOL    HW123183   2.338  13.074   8.588
73803SOL    HW223184   2.401  13.164   8.691
73804SOL     OW23185  11.805   4.467  11.912
73804SOL    HW123186  11.715   4.496  11.901
73804SOL    HW223187  11.809   4.385  11.862
73805SOL     OW23188   6.098   1.531   7.194
73805SOL    HW123189   6.058   1.445   7.210
73805SOL    HW223190   6.025   1.593   7.200
73806SOL     OW23191   3.667  10.801   2.480
73806SOL    HW123192   3.599  10.867   2.490
73806SOL    HW223193   3.640  10.730   2.539
73807SOL     OW23194   3.399   7.816  11.261
73807SOL    HW123195   3.395   7.722  11.244
73807SOL    HW223196   3.483   7.829  11.304
73808SOL     OW23197   5.220  11.673   8.372
73808SOL    HW123198   5.159  11.746   8.367
73808SOL    HW223199   5.213  11.630   8.286
73809SOL     OW23200   9.420  14.754   6.650
73809SOL    HW123201   9.478  14.701   6.706
73809SOL    HW223202   9.346  14.776   6.707
73810SOL     OW23203  11.435   6.389   7.054
73810SOL    HW123204  11.453   6.383   6.960
73810SOL    HW223205  11.376   6.464   7.061
73811SOL     OW23206   8.558   2.054   2.890
73811SOL    HW123207   8.625   2.009   2.839
73811SOL    HW223208   8.477   2.007   2.869
73812SOL     OW23209  12.106   8.175   6.637
73812SOL    HW123210  12.082   8.212   6.722
73812SOL    HW223211  12.140   8.088   6.657
73813SOL     OW23212   1.747   6.479  14.021
73813SOL    HW123213   1.716   6.475  14.111
73813SOL    HW223214   1.709   6.559  13.986
73814SOL     OW23215  13.079   7.251   0.378
73814SOL    HW123216  12.996   7.221   0.414
73814SOL    HW223217  13.141   7.182   0.401
73815SOL     OW23218   9.952  10.564   0.568
73815SOL    HW123219  10.017  10.633   0.554
73815SOL    HW223220   9.916  10.582   0.655
73816SOL     OW23221  10.038  12.414  10.042
73816SOL    HW123222  10.046  12.402  10.137
73816SOL    HW223223  10.040  12.508  10.029
73817SOL     OW23224   6.267  13.784  11.418
73817SOL    HW123225   6.185  13.808  11.375
73817SOL    HW223226   6.294  13.703  11.374
73818SOL     OW23227  14.038  12.242   0.454
73818SOL    HW123228  14.075  12.289   0.379
73818SOL    HW223229  14.064  12.151   0.440
73819SOL     OW23230   0.269   6.477  10.883
73819SOL    HW123231   0.250   6.519  10.967
73819SOL    HW223232   0.269   6.548  10.820
73820SOL     OW23233   4.002   3.933   7.746
73820SOL    HW123234   3.987   3.956   7.838
73820SOL    HW223235   3.976   4.011   7.697
73821SOL     OW23236   0.278  11.552   9.493
73821SOL    HW123237   0.193  11.519   9.463
73821SOL    HW223238   0.342  11.505   9.440
73822SOL     OW23239   9.738   2.943   8.286
73822SOL    HW123240   9.688   3.013   8.245
73822SOL    HW223241   9.728   2.869   8.226
73823SOL     OW23242   2.890   5.621  11.848
73823SOL    HW123243   2.913   5.540  11.802
73823SOL    HW223244   2.918   5.691  11.789
73824SOL     OW23245  13.715   8.455   1.529
73824SOL    HW123246  13.704   8.501   1.612
73824SOL    HW223247  13.753   8.520   1.470
73825SOL     OW23248   8.566   2.801  14.612
73825SOL    HW123249   8.533   2.885  14.581
73825SOL    HW223250   8.660   2.815  14.624
73826SOL     OW23251  13.856   5.984   3.639
73826SOL    HW123252  13.945   6.011   3.664
73826SOL    HW223253  13.848   5.894   3.671
73827SOL     OW23254   5.682   2.826   0.370
73827SOL    HW123255   5.659   2.868   0.453
73827SOL    HW223256   5.600   2.784   0.342
73828SOL     OW23257  12.962   1.043  11.331
73828SOL    HW123258  12.996   1.037  11.242
73828SOL    HW223259  12.915   0.961  11.344
73829SOL     OW23260   9.373   6.603   2.529
73829SOL    HW123261   9.396   6.536   2.593
73829SOL    HW223262   9.455   6.650   2.513
73830SOL     OW23263   5.603   9.201   5.306
73830SOL    HW123264   5.556   9.274   5.347
73830SOL    HW223265   5.543   9.168   5.239
73831SOL     OW23266   0.597   8.084   7.580
73831SOL    HW123267   0.664   8.017   7.571
73831SOL    HW223268   0.613   8.144   7.507
73832SOL     OW23269  14.694   6.402   5.910
73832SOL    HW123270  14.696   6.384   6.004
73832SOL    HW223271  14.736   6.487   5.901
73833SOL     OW23272   1.394   9.071   9.798
73833SOL    HW123273   1.457   9.048   9.730
73833SOL    HW223274   1.446   9.116   9.864
73834SOL     OW23275   7.187   4.816   5.156
73834SOL    HW123276   7.239   4.848   5.230
73834SOL    HW223277   7.110   4.776   5.197
73835SOL     OW23278  12.537  13.384   2.339
73835SOL    HW123279  12.527  13.291   2.361
73835SOL    HW223280  12.449  13.420   2.351
73836SOL     OW23281  12.609   3.005   2.824
73836SOL    HW123282  12.559   3.045   2.753
73836SOL    HW223283  12.576   2.915   2.828
73837SOL     OW23284  14.399  12.815   0.209
73837SOL    HW123285  14.437  12.732   0.181
73837SOL    HW223286  14.305  12.803   0.200
73838SOL     OW23287  13.224   8.183  14.473
73838SOL    HW123288  13.172   8.126  14.530
73838SOL    HW223289  13.315   8.158  14.489
73839SOL     OW23290   4.123   7.297   8.826
73839SOL    HW123291   4.160   7.362   8.766
73839SOL    HW223292   4.192   7.282   8.891
73840SOL     OW23293  14.582   5.322  11.130
73840SOL    HW123294  14.601   5.359  11.043
73840SOL    HW223295  14.519   5.384  11.168
73841SOL     OW23296   9.448   1.034  10.913
73841SOL    HW123297   9.397   1.091  10.969
73841SOL    HW223298   9.395   1.024  10.834
73842SOL     OW23299  12.227   1.758   9.704
73842SOL    HW123300  12.149   1.776   9.756
73842SOL    HW223301  12.227   1.824   9.635
73843SOL     OW23302   0.694   9.066   3.533
73843SOL    HW123303   0.685   9.159   3.516
73843SOL    HW223304   0.639   9.024   3.466
73844SOL     OW23305   7.191   6.358   9.475
73844SOL    HW123306   7.124   6.353   9.542
73844SOL    HW223307   7.236   6.441   9.491
73845SOL     OW23308   7.170  11.486   7.339
73845SOL    HW123309   7.155  11.454   7.428
73845SOL    HW223310   7.242  11.548   7.347
73846SOL     OW23311   1.330   0.942  14.173
73846SOL    HW123312   1.358   1.016  14.226
73846SOL    HW223313   1.396   0.874  14.192
73847SOL     OW23314   3.988   6.125   9.000
73847SOL    HW123315   3.955   6.211   8.973
73847SOL    HW223316   3.909   6.075   9.022
73848SOL     OW23317  14.327  14.250  14.289
73848SOL    HW123318  14.332  14.214  14.200
73848SOL    HW223319  14.418  14.264  14.315
73849SOL     OW23320  12.909  14.694   7.666
73849SOL    HW123321  12.822  14.658   7.682
73849SOL    HW223322  12.965  14.655   7.733
73850SOL     OW23323   5.741   6.986  13.122
73850SOL    HW123324   5.749   7.066  13.070
73850SOL    HW223325   5.760   6.915  13.061
73851SOL     OW23326   8.821   4.604   1.900
73851SOL    HW123327   8.788   4.684   1.941
73851SOL    HW223328   8.869   4.634   1.823
73852SOL     OW23329  13.145   9.955   1.654
73852SOL    HW123330  13.140  10.032   1.596
73852SOL    HW223331  13.199   9.892   1.606
73853SOL     OW23332  13.637  14.096   0.568
73853SOL    HW123333  13.583  14.129   0.496
73853SOL    HW223334  13.705  14.043   0.526
73854SOL     OW23335   9.935   0.178   7.852
73854SOL    HW123336   9.993   0.235   7.902
73854SOL    HW223337   9.972   0.090   7.865
73855SOL     OW23338   4.147   6.338   4.256
73855SOL    HW123339   4.134   6.429   4.227
73855SOL    HW223340   4.058   6.304   4.267
73856SOL     OW23341   5.667  13.969   2.303
73856SOL    HW123342   5.593  13.998   2.250
73856SOL    HW223343   5.697  13.888   2.260
73857SOL     OW23344   5.208   2.367  11.926
73857SOL    HW123345   5.116   2.389  11.936
73857SOL    HW223346   5.231   2.321  12.006
73858SOL     OW23347   4.944   7.014   7.648
73858SOL    HW123348   5.021   6.959   7.658
73858SOL    HW223349   4.979   7.098   7.618
73859SOL     OW23350  14.054   5.727   5.157
73859SOL    HW123351  13.977   5.708   5.210
73859SOL    HW223352  14.128   5.691   5.207
73860SOL     OW23353   8.334  14.830   1.556
73860SOL    HW123354   8.329  14.758   1.619
73860SOL    HW223355   8.374  14.791   1.479
73861SOL     OW23356  11.801   7.988   9.184
73861SOL    HW123357  11.775   7.902   9.216
73861SOL    HW223358  11.750   8.049   9.236
73862SOL     OW23359  14.646   2.083   0.251
73862SOL    HW123360  14.588   2.153   0.282
73862SOL    HW223361  14.644   2.091   0.156
73863SOL     OW23362  14.285  11.879   5.985
73863SOL    HW123363  14.279  11.833   5.901
73863SOL    HW223364  14.199  11.867   6.025
73864SOL     OW23365   3.966  14.846  12.827
73864SOL    HW123366   3.970  14.871  12.920
73864SOL    HW223367   3.877  14.811  12.816
73865SOL     OW23368   8.309   9.464   2.937
73865SOL    HW123369   8.320   9.432   3.027
73865SOL    HW223370   8.235   9.524   2.942
73866SOL     OW23371   3.201   6.348   4.740
73866SOL    HW123372   3.294   6.365   4.755
73866SOL    HW223373   3.193   6.336   4.646
73867SOL     OW23374   8.286  14.224  11.485
73867SOL    HW123375   8.295  14.130  11.472
73867SOL    HW223376   8.291  14.236  11.580
73868SOL     OW23377   6.002   7.823   9.564
73868SOL    HW123378   6.081   7.872   9.545
73868SOL    HW223379   5.937   7.889   9.588
73869SOL     OW23380   2.384   5.524   3.300
73869SOL    HW123381   2.477   5.539   3.317
73869SOL    HW223382   2.343   5.610   3.309
73870SOL     OW23383   9.303  12.028   6.035
73870SOL    HW123384   9.235  11.973   6.072
73870SOL    HW223385   9.313  12.100   6.098
73871SOL     OW23386   3.747  13.529   3.253
73871SOL    HW123387   3.750  13.563   3.342
73871SOL    HW223388   3.800  13.591   3.202
73872SOL     OW23389   5.162  13.276   1.309
73872SOL    HW123390   5.231  13.277   1.242
73872SOL    HW223391   5.081  13.267   1.260
73873SOL     OW23392   3.849   8.216   6.165
73873SOL    HW123393   3.829   8.285   6.102
73873SOL    HW223394   3.926   8.173   6.129
73874SOL     OW23395  14.596  10.916   0.234
73874SOL    HW123396  14.637  10.967   0.304
73874SOL    HW223397  14.593  10.976   0.159
73875SOL     OW23398   7.480   9.205   8.376
73875SOL    HW123399   7.510   9.150   8.448
73875SOL    HW223400   7.430   9.275   8.418
73876SOL     OW23401  11.108  14.693   0.034
73876SOL    HW123402  11.046  14.712   0.106
73876SOL    HW223403  11.056  14.642  14.853
73877SOL     OW23404  12.762   3.861  13.601
73877SOL    HW123405  12.834   3.867  13.539
73877SOL    HW223406  12.781   3.783  13.653
73878SOL     OW23407   2.182   2.313   8.426
73878SOL    HW123408   2.136   2.251   8.481
73878SOL    HW223409   2.176   2.276   8.338
73879SOL     OW23410  12.304   2.924   5.061
73879SOL    HW123411  12.287   2.968   4.977
73879SOL    HW223412  12.282   2.833   5.045
73880SOL     OW23413  13.441  12.156  12.361
73880SOL    HW123414  13.448  12.162  12.265
73880SOL    HW223415  13.374  12.089  12.376
73881SOL     OW23416   5.773  14.323   6.870
73881SOL    HW123417   5.845  14.290   6.924
73881SOL    HW223418   5.699  14.268   6.894
73882SOL     OW23419   7.146   0.678   9.357
73882SOL    HW123420   7.064   0.727   9.363
73882SOL    HW223421   7.156   0.635   9.442
73883SOL     OW23422   2.830  12.014  11.336
73883SOL    HW123423   2.920  11.993  11.363
73883SOL    HW223424   2.795  12.067  11.408
73884SOL     OW23425   1.445   5.076   3.210
73884SOL    HW123426   1.482   5.011   3.151
73884SOL    HW223427   1.355   5.046   3.226
73885SOL     OW23428  14.079  12.090   8.291
73885SOL    HW123429  14.046  12.072   8.203
73885SOL    HW223430  14.100  12.004   8.327
73886SOL     OW23431  10.313   2.302   3.950
73886SOL    HW123432  10.223   2.271   3.951
73886SOL    HW223433  10.332   2.318   3.857
73887SOL     OW23434   3.283  11.099  10.015
73887SOL    HW123435   3.214  11.161   9.990
73887SOL    HW223436   3.243  11.045  10.083
73888SOL     OW23437  14.768   5.484   3.420
73888SOL    HW123438  14.675   5.463   3.418
73888SOL    HW223439  14.807   5.423   3.358
73889SOL     OW23440  14.097   7.891   7.993
73889SOL    HW123441  14.007   7.894   8.025
73889SOL    HW223442  14.122   7.799   8.004
73890SOL     OW23443  12.594   8.227   6.678
73890SOL    HW123444  12.549   8.187   6.753
73890SOL    HW223445  12.619   8.153   6.623
73891SOL     OW23446   1.341   4.021   1.204
73891SOL    HW123447   1.319   4.058   1.290
73891SOL    HW223448   1.293   3.938   1.201
73892SOL     OW23449   0.451   8.970   6.737
73892SOL    HW123450   0.450   8.900   6.803
73892SOL    HW223451   0.387   8.941   6.672
73893SOL     OW23452  13.429  11.758   3.229
73893SOL    HW123453  13.369  11.686   3.248
73893SOL    HW223454  13.509  11.715   3.197
73894SOL     OW23455   9.114   1.815   5.956
73894SOL    HW123456   9.197   1.858   5.980
73894SOL    HW223457   9.097   1.755   6.028
73895SOL     OW23458   7.384   4.038   4.677
73895SOL    HW123459   7.374   3.996   4.762
73895SOL    HW223460   7.337   4.121   4.686
73896SOL     OW23461   2.000   6.877  10.235
73896SOL    HW123462   2.089   6.872  10.202
73896SOL    HW223463   1.985   6.970  10.253
73897SOL     OW23464  14.251   3.712   0.730
73897SOL    HW123465  14.243   3.618   0.745
73897SOL    HW223466  14.275   3.748   0.815
73898SOL     OW23467   4.142   1.193   6.781
73898SOL    HW123468   4.214   1.170   6.723
73898SOL    HW223469   4.158   1.142   6.861
73899SOL     OW23470   2.530  12.290   0.247
73899SOL    HW123471   2.591  12.282   0.321
73899SOL    HW223472   2.585  12.318   0.173
73900SOL     OW23473  11.002  13.922   4.308
73900SOL    HW123474  10.929  13.979   4.284
73900SOL    HW223475  11.000  13.918   4.404
73901SOL     OW23476   5.801   4.513   1.064
73901SOL    HW123477   5.734   4.581   1.079
73901SOL    HW223478   5.866   4.529   1.132
73902SOL     OW23479  10.490   3.620   5.793
73902SOL    HW123480  10.580   3.606   5.823
73902SOL    HW223481  10.457   3.691   5.848
73903SOL     OW23482   2.173   2.242   0.092
73903SOL    HW123483   2.141   2.325   0.127
73903SOL    HW223484   2.210   2.264   0.007
73904SOL     OW23485  10.812  11.855   0.842
73904SOL    HW123486  10.798  11.941   0.801
73904SOL    HW223487  10.724  11.821   0.857
73905SOL     OW23488  13.745  10.320   3.216
73905SOL    HW123489  13.724  10.291   3.127
73905SOL    HW223490  13.827  10.276   3.237
73906SOL     OW23491   2.353  12.713  14.498
73906SOL    HW123492   2.341  12.743  14.588
73906SOL    HW223493   2.445  12.686  14.493
73907SOL     OW23494   7.584  13.992   5.676
73907SOL    HW123495   7.624  14.069   5.635
73907SOL    HW223496   7.578  14.015   5.769
73908SOL     OW23497  10.416   6.116   5.575
73908SOL    HW123498  10.333   6.120   5.528
73908SOL    HW223499  10.414   6.033   5.622
73909SOL     OW23500   5.767   7.677   8.123
73909SOL    HW123501   5.713   7.623   8.065
73909SOL    HW223502   5.842   7.702   8.069
73910SOL     OW23503  13.376   1.200   1.051
73910SOL    HW123504  13.322   1.138   1.001
73910SOL    HW223505  13.359   1.178   1.143
73911SOL     OW23506  14.657   5.762  13.522
73911SOL    HW123507  14.752   5.770  13.520
73911SOL    HW223508  14.628   5.806  13.442
73912SOL     OW23509  14.172   3.144  11.525
73912SOL    HW123510  14.175   3.192  11.607
73912SOL    HW223511  14.102   3.080  11.537
73913SOL     OW23512   2.615  10.618   3.641
73913SOL    HW123513   2.536  10.670   3.627
73913SOL    HW223514   2.629  10.620   3.735
73914SOL     OW23515   9.515   1.431   4.707
73914SOL    HW123516   9.438   1.439   4.652
73914SOL    HW223517   9.480   1.404   4.793
73915SOL     OW23518   2.950   4.203   9.640
73915SOL    HW123519   2.934   4.109   9.634
73915SOL    HW223520   2.955   4.220   9.734
73916SOL     OW23521   5.849  13.476  10.046
73916SOL    HW123522   5.816  13.440  10.129
73916SOL    HW223523   5.913  13.412  10.016
73917SOL     OW23524   9.638   5.990   7.369
73917SOL    HW123525   9.693   5.922   7.409
73917SOL    HW223526   9.629   5.963   7.278
73918SOL     OW23527  12.184   3.805  12.978
73918SOL    HW123528  12.268   3.791  12.936
73918SOL    HW223529  12.205   3.820  13.070
73919SOL     OW23530  13.226   4.210  12.096
73919SOL    HW123531  13.212   4.120  12.124
73919SOL    HW223532  13.319   4.226  12.112
73920SOL     OW23533   6.527   5.533   3.695
73920SOL    HW123534   6.573   5.583   3.628
73920SOL    HW223535   6.478   5.599   3.745
73921SOL     OW23536  10.600   9.476   8.876
73921SOL    HW123537  10.564   9.536   8.941
73921SOL    HW223538  10.524   9.429   8.842
73922SOL     OW23539  14.608   4.046   9.079
73922SOL    HW123540  14.637   4.111   9.144
73922SOL    HW223541  14.609   4.094   8.996
73923SOL     OW23542  13.450  11.579   6.386
73923SOL    HW123543  13.528  11.524   6.392
73923SOL    HW223544  13.480  11.658   6.341
73924SOL     OW23545   7.542  13.225   6.570
73924SOL    HW123546   7.466  13.282   6.576
73924SOL    HW223547   7.508  13.137   6.586
73925SOL     OW23548   3.721   2.790  11.485
73925SOL    HW123549   3.745   2.868  11.435
73925SOL    HW223550   3.805   2.754  11.515
73926SOL     OW23551   9.766  13.183   9.670
73926SOL    HW123552   9.692  13.160   9.727
73926SOL    HW223553   9.742  13.149   9.584
73927SOL     OW23554   1.424   1.310   8.069
73927SOL    HW123555   1.409   1.401   8.043
73927SOL    HW223556   1.377   1.301   8.152
73928SOL     OW23557   6.747   5.075  13.287
73928SOL    HW123558   6.701   5.045  13.208
73928SOL    HW223559   6.689   5.050  13.359
73929SOL     OW23560  11.098   7.040   7.823
73929SOL    HW123561  11.145   7.098   7.763
73929SOL    HW223562  11.080   7.094   7.900
73930SOL     OW23563  12.876   3.007  11.954
73930SOL    HW123564  12.946   3.068  11.932
73930SOL    HW223565  12.903   2.969  12.038
73931SOL     OW23566  13.629  14.097   4.568
73931SOL    HW123567  13.710  14.147   4.554
73931SOL    HW223568  13.574  14.154   4.621
73932SOL     OW23569   6.576   3.802  14.389
73932SOL    HW123570   6.629   3.830  14.464
73932SOL    HW223571   6.512   3.741  14.427
73933SOL     OW23572  12.659  10.159  10.130
73933SOL    HW123573  12.755  10.158  10.131
73933SOL    HW223574  12.634  10.131  10.218
73934SOL     OW23575  12.325   3.336   6.140
73934SOL    HW123576  12.308   3.266   6.077
73934SOL    HW223577  12.410   3.314   6.178
73935SOL     OW23578   2.170  11.211   1.611
73935SOL    HW123579   2.133  11.247   1.691
73935SOL    HW223580   2.236  11.275   1.584
73936SOL     OW23581   6.995  13.541   9.035
73936SOL    HW123582   7.074  13.494   9.008
73936SOL    HW223583   6.992  13.529   9.130
73937SOL     OW23584   7.703   3.235   8.984
73937SOL    HW123585   7.794   3.252   9.006
73937SOL    HW223586   7.707   3.170   8.914
73938SOL     OW23587  12.316   0.347   7.556
73938SOL    HW123588  12.350   0.389   7.478
73938SOL    HW223589  12.306   0.418   7.620
73939SOL     OW23590   9.302   6.486   6.802
73939SOL    HW123591   9.317   6.400   6.842
73939SOL    HW223592   9.215   6.512   6.833
73940SOL     OW23593  13.600   3.423   8.526
73940SOL    HW123594  13.656   3.438   8.450
73940SOL    HW223595  13.578   3.330   8.522
73941SOL     OW23596   3.002  14.485   6.543
73941SOL    HW123597   2.961  14.461   6.460
73941SOL    HW223598   3.084  14.435   6.544
73942SOL     OW23599   4.134   4.217   0.532
73942SOL    HW123600   4.051   4.170   0.533
73942SOL    HW223601   4.200   4.148   0.530
73943SOL     OW23602  10.861   0.664   1.822
73943SOL    HW123603  10.871   0.673   1.727
73943SOL    HW223604  10.866   0.754   1.854
73944SOL     OW23605  10.301   6.447   6.772
73944SOL    HW123606  10.259   6.516   6.824
73944SOL    HW223607  10.256   6.367   6.799
73945SOL     OW23608   8.257   1.815   1.142
73945SOL    HW123609   8.201   1.865   1.083
73945SOL    HW223610   8.204   1.801   1.220
73946SOL     OW23611   3.238   8.878  13.837
73946SOL    HW123612   3.297   8.803  13.846
73946SOL    HW223613   3.216   8.903  13.927
73947SOL     OW23614   2.121   8.623   8.006
73947SOL    HW123615   2.197   8.669   7.971
73947SOL    HW223616   2.072   8.691   8.053
73948SOL     OW23617   3.126   8.497   3.228
73948SOL    HW123618   3.061   8.555   3.267
73948SOL    HW223619   3.181   8.555   3.175
73949SOL     OW23620   0.523   0.524   3.790
73949SOL    HW123621   0.543   0.510   3.882
73949SOL    HW223622   0.501   0.617   3.783
73950SOL     OW23623   3.927  13.047  14.462
73950SOL    HW123624   3.834  13.064  14.478
73950SOL    HW223625   3.967  13.045  14.549
73951SOL     OW23626  10.399  11.372   2.556
73951SOL    HW123627  10.491  11.346   2.565
73951SOL    HW223628  10.397  11.463   2.585
73952SOL     OW23629   8.663   4.556   3.460
73952SOL    HW123630   8.674   4.503   3.381
73952SOL    HW223631   8.659   4.646   3.428
73953SOL     OW23632   7.356   7.736  11.523
73953SOL    HW123633   7.443   7.762  11.554
73953SOL    HW223634   7.312   7.704  11.601
73954SOL     OW23635  14.536   8.324  13.347
73954SOL    HW123636  14.474   8.251  13.355
73954SOL    HW223637  14.524   8.355  13.257
73955SOL     OW23638  13.482   0.533  14.733
73955SOL    HW123639  13.389   0.553  14.723
73955SOL    HW223640  13.521   0.558  14.649
73956SOL     OW23641   4.236  12.859   2.488
73956SOL    HW123642   4.266  12.945   2.519
73956SOL    HW223643   4.310  12.801   2.503
73957SOL     OW23644   3.762   4.576  12.182
73957SOL    HW123645   3.729   4.628  12.256
73957SOL    HW223646   3.804   4.641  12.124
73958SOL     OW23647  13.930   9.710  11.535
73958SOL    HW123648  13.875   9.634  11.554
73958SOL    HW223649  14.009   9.695  11.587
73959SOL     OW23650   3.725   3.268   6.570
73959SOL    HW123651   3.762   3.192   6.525
73959SOL    HW223652   3.631   3.252   6.571
73960SOL     OW23653   2.787   7.109  11.694
73960SOL    HW123654   2.847   7.131  11.764
73960SOL    HW223655   2.708   7.078  11.738
73961SOL     OW23656   8.032   7.086   3.180
73961SOL    HW123657   7.965   7.089   3.248
73961SOL    HW223658   8.114   7.073   3.227
73962SOL     OW23659  11.735  12.917   6.210
73962SOL    HW123660  11.642  12.907   6.233
73962SOL    HW223661  11.744  12.871   6.127
73963SOL     OW23662  14.000   6.486  12.163
73963SOL    HW123663  13.955   6.569  12.143
73963SOL    HW223664  14.079   6.513  12.211
73964SOL     OW23665   2.593  14.675   5.657
73964SOL    HW123666   2.667  14.705   5.604
73964SOL    HW223667   2.608  14.581   5.667
73965SOL     OW23668   5.497   7.693   1.590
73965SOL    HW123669   5.464   7.684   1.680
73965SOL    HW223670   5.528   7.784   1.585
73966SOL     OW23671   4.585   3.392   5.275
73966SOL    HW123672   4.660   3.398   5.334
73966SOL    HW223673   4.513   3.433   5.323
73967SOL     OW23674   6.475  13.265   1.002
73967SOL    HW123675   6.471  13.243   0.909
73967SOL    HW223676   6.389  13.241   1.037
73968SOL     OW23677   0.685   9.482   1.868
73968SOL    HW123678   0.599   9.469   1.908
73968SOL    HW223679   0.674   9.558   1.811
73969SOL     OW23680   7.642   4.031   2.497
73969SOL    HW123681   7.627   4.093   2.569
73969SOL    HW223682   7.702   4.076   2.438
73970SOL     OW23683   4.087  12.710   3.316
73970SOL    HW123684   4.149  12.716   3.243
73970SOL    HW223685   4.011  12.761   3.287
73971SOL     OW23686   4.606  10.089   1.509
73971SOL    HW123687   4.532  10.149   1.512
73971SOL    HW223688   4.612  10.062   1.417
73972SOL     OW23689   1.198   2.452   3.037
73972SOL    HW123690   1.118   2.505   3.031
73972SOL    HW223691   1.262   2.509   3.078
73973SOL     OW23692   5.918   6.453  12.492
73973SOL    HW123693   5.879   6.537  12.471
73973SOL    HW223694   5.844   6.397  12.516
73974SOL     OW23695   8.087   1.429   9.945
73974SOL    HW123696   8.081   1.413   9.851
73974SOL    HW223697   7.996   1.426   9.976
73975SOL     OW23698   7.045   5.626   0.382
73975SOL    HW123699   7.114   5.692   0.388
73975SOL    HW223700   7.092   5.543   0.374
73976SOL     OW23701   5.564   9.699  13.531
73976SOL    HW123702   5.481   9.741  13.507
73976SOL    HW223703   5.576   9.631  13.464
73977SOL     OW23704   9.592   4.312  11.987
73977SOL    HW123705   9.666   4.258  12.017
73977SOL    HW223706   9.593   4.388  12.046
73978SOL     OW23707   0.316  14.253   3.632
73978SOL    HW123708   0.299  14.343   3.662
73978SOL    HW223709   0.283  14.252   3.542
73979SOL     OW23710  10.704  11.347   1.115
73979SOL    HW123711  10.736  11.420   1.167
73979SOL    HW223712  10.749  11.270   1.150
73980SOL     OW23713  12.549   0.215   7.648
73980SOL    HW123714  12.474   0.274   7.636
73980SOL    HW223715  12.551   0.163   7.568
73981SOL     OW23716   6.796   1.515   0.634
73981SOL    HW123717   6.793   1.499   0.728
73981SOL    HW223718   6.798   1.428   0.594
73982SOL     OW23719   4.766  10.114   7.612
73982SOL    HW123720   4.842  10.158   7.575
73982SOL    HW223721   4.795  10.083   7.698
73983SOL     OW23722   2.237   4.107  13.900
73983SOL    HW123723   2.317   4.063  13.871
73983SOL    HW223724   2.219   4.071  13.987
73984SOL     OW23725   9.442   6.612   9.131
73984SOL    HW123726   9.397   6.631   9.213
73984SOL    HW223727   9.525   6.573   9.158
73985SOL     OW23728   1.679  14.467  11.305
73985SOL    HW123729   1.661  14.548  11.353
73985SOL    HW223730   1.615  14.405  11.340
73986SOL     OW23731  14.183  10.209  13.092
73986SOL    HW123732  14.231  10.288  13.117
73986SOL    HW223733  14.115  10.201  13.159
73987SOL     OW23734  12.571  12.358   8.587
73987SOL    HW123735  12.574  12.416   8.663
73987SOL    HW223736  12.501  12.296   8.607
73988SOL     OW23737   1.456  14.668   8.931
73988SOL    HW123738   1.482  14.737   8.870
73988SOL    HW223739   1.513  14.682   9.007
73989SOL     OW23740  11.074   3.220   4.926
73989SOL    HW123741  11.003   3.213   4.990
73989SOL    HW223742  11.107   3.131   4.916
73990SOL     OW23743   0.645  13.617  14.263
73990SOL    HW123744   0.639  13.526  14.291
73990SOL    HW223745   0.637  13.613  14.167
73991SOL     OW23746   8.235   3.456  12.910
73991SOL    HW123747   8.260   3.534  12.960
73991SOL    HW223748   8.145   3.437  12.939
73992SOL     OW23749   2.101  10.748   5.226
73992SOL    HW123750   2.135  10.765   5.138
73992SOL    HW223751   2.006  10.747   5.216
73993SOL     OW23752   5.283   4.035   9.854
73993SOL    HW123753   5.263   3.977   9.928
73993SOL    HW223754   5.378   4.045   9.858
73994SOL     OW23755   5.438   9.025   4.669
73994SOL    HW123756   5.469   8.974   4.744
73994SOL    HW223757   5.343   9.017   4.672
73995SOL     OW23758  13.488   0.146   9.749
73995SOL    HW123759  13.554   0.181   9.809
73995SOL    HW223760  13.407   0.148   9.801
73996SOL     OW23761   9.006  13.802  12.072
73996SOL    HW123762   9.085  13.767  12.030
73996SOL    HW223763   9.025  13.796  12.166
73997SOL     OW23764   1.364  14.203   8.848
73997SOL    HW123765   1.334  14.164   8.766
73997SOL    HW223766   1.341  14.296   8.840
73998SOL     OW23767  14.806   4.113   7.049
73998SOL    HW123768   0.008   4.135   7.090
73998SOL    HW223769  14.774   4.196   7.015
73999SOL     OW23770   4.681   6.474   9.808
73999SOL    HW123771   4.668   6.504   9.899
73999SOL    HW223772   4.755   6.525   9.776
74000SOL     OW23773  14.213   6.294   1.493
74000SOL    HW123774  14.249   6.216   1.536
74000SOL    HW223775  14.216   6.362   1.561
74001SOL     OW23776   5.087  13.988  12.314
74001SOL    HW123777   5.018  14.019  12.371
74001SOL    HW223778   5.161  14.046  12.330
74002SOL     OW23779   2.703  10.071  14.771
74002SOL    HW123780   2.792  10.036  14.766
74002SOL    HW223781   2.649  10.001  14.733
74003SOL     OW23782   0.517  14.729   6.672
74003SOL    HW123783   0.568  14.809   6.683
74003SOL    HW223784   0.452  14.751   6.605
74004SOL     OW23785   7.065   7.613  13.075
74004SOL    HW123786   7.147   7.568  13.055
74004SOL    HW223787   6.997   7.551  13.049
74005SOL     OW23788   1.339   2.983  10.656
74005SOL    HW123789   1.355   2.975  10.750
74005SOL    HW223790   1.291   3.065  10.646
74006SOL     OW23791   2.283   8.806   1.576
74006SOL    HW123792   2.242   8.734   1.528
74006SOL    HW223793   2.331   8.763   1.647
74007SOL     OW23794   2.474  12.220   7.493
74007SOL    HW123795   2.465  12.136   7.448
74007SOL    HW223796   2.503  12.281   7.425
74008SOL     OW23797   0.877   3.979   8.449
74008SOL    HW123798   0.833   3.968   8.365
74008SOL    HW223799   0.890   3.890   8.482
74009SOL     OW23800  14.010  11.626   0.550
74009SOL    HW123801  14.066  11.552   0.528
74009SOL    HW223802  13.955  11.594   0.622
74010SOL     OW23803  13.475   7.639  14.020
74010SOL    HW123804  13.510   7.726  14.001
74010SOL    HW223805  13.552   7.587  14.045
74011SOL     OW23806  13.231  11.517  12.495
74011SOL    HW123807  13.286  11.558  12.562
74011SOL    HW223808  13.210  11.431  12.530
74012SOL     OW23809   7.160   3.663   5.674
74012SOL    HW123810   7.238   3.717   5.688
74012SOL    HW223811   7.187   3.576   5.703
74013SOL     OW23812  13.832   9.990   5.013
74013SOL    HW123813  13.886   9.925   4.968
74013SOL    HW223814  13.837   9.965   5.105
74014SOL     OW23815   7.274   7.675  13.880
74014SOL    HW123816   7.188   7.710  13.855
74014SOL    HW223817   7.290   7.711  13.967
74015SOL     OW23818  12.651   3.269   1.673
74015SOL    HW123819  12.675   3.184   1.636
74015SOL    HW223820  12.601   3.248   1.751
74016SOL     OW23821  11.345   5.951  11.248
74016SOL    HW123822  11.303   5.872  11.213
74016SOL    HW223823  11.337   6.016  11.178
74017SOL     OW23824   8.881   2.564   6.319
74017SOL    HW123825   8.946   2.600   6.379
74017SOL    HW223826   8.836   2.641   6.284
74018SOL     OW23827   1.183   7.068  11.433
74018SOL    HW123828   1.265   7.103  11.399
74018SOL    HW223829   1.116   7.129  11.400
74019SOL     OW23830  11.793  13.939  13.133
74019SOL    HW123831  11.733  14.012  13.143
74019SOL    HW223832  11.844  13.938  13.214
74020SOL     OW23833  11.096   1.570   7.398
74020SOL    HW123834  11.152   1.643   7.422
74020SOL    HW223835  11.072   1.529   7.482
74021SOL     OW23836   9.248   6.353   3.805
74021SOL    HW123837   9.281   6.399   3.883
74021SOL    HW223838   9.323   6.348   3.746
74022SOL     OW23839   0.465  10.461  12.802
74022SOL    HW123840   0.544  10.438  12.851
74022SOL    HW223841   0.393  10.427  12.855
74023SOL     OW23842   0.498  14.354   5.304
74023SOL    HW123843   0.593  14.368   5.311
74023SOL    HW223844   0.463  14.438   5.275
74024SOL     OW23845   4.950   8.141  10.572
74024SOL    HW123846   5.010   8.087  10.623
74024SOL    HW223847   4.892   8.181  10.636
74025SOL     OW23848  12.239   0.508  10.864
74025SOL    HW123849  12.218   0.600  10.882
74025SOL    HW223850  12.258   0.471  10.950
74026SOL     OW23851  14.553   2.008  14.824
74026SOL    HW123852  14.647   2.005  14.805
74026SOL    HW223853  14.527   2.097  14.802
74027SOL     OW23854   7.146   1.214   5.921
74027SOL    HW123855   7.240   1.205   5.904
74027SOL    HW223856   7.104   1.190   5.839
74028SOL     OW23857   8.785  13.326  10.413
74028SOL    HW123858   8.870  13.296  10.444
74028SOL    HW223859   8.791  13.323  10.318
74029SOL     OW23860   5.251  13.702   0.815
74029SOL    HW123861   5.178  13.717   0.755
74029SOL    HW223862   5.263  13.786   0.859
74030SOL     OW23863  11.023   7.120   6.257
74030SOL    HW123864  11.029   7.214   6.268
74030SOL    HW223865  11.097   7.098   6.200
74031SOL     OW23866   0.267   3.614   6.924
74031SOL    HW123867   0.231   3.535   6.965
74031SOL    HW223868   0.288   3.672   6.997
74032SOL     OW23869   6.591   7.949  11.958
74032SOL    HW123870   6.600   8.024  11.899
74032SOL    HW223871   6.608   7.873  11.903
74033SOL     OW23872   3.591  10.794   9.565
74033SOL    HW123873   3.672  10.846   9.572
74033SOL    HW223874   3.575  10.762   9.654
74034SOL     OW23875   6.401   8.294  12.911
74034SOL    HW123876   6.347   8.260  12.840
74034SOL    HW223877   6.481   8.325  12.868
74035SOL     OW23878  11.436  14.148   0.587
74035SOL    HW123879  11.421  14.075   0.647
74035SOL    HW223880  11.481  14.108   0.512
74036SOL     OW23881   3.713  11.175   6.682
74036SOL    HW123882   3.716  11.265   6.713
74036SOL    HW223883   3.805  11.147   6.681
74037SOL     OW23884  11.061   0.354  10.611
74037SOL    HW123885  11.143   0.394  10.641
74037SOL    HW223886  10.995   0.422  10.625
74038SOL     OW23887  10.590   7.362  11.237
74038SOL    HW123888  10.512   7.413  11.260
74038SOL    HW223889  10.618   7.398  11.153
74039SOL     OW23890   0.137  14.477   9.931
74039SOL    HW123891   0.062  14.505   9.983
74039SOL    HW223892   0.209  14.532   9.963
74040SOL     OW23893   2.304   4.757   8.844
74040SOL    HW123894   2.250   4.834   8.823
74040SOL    HW223895   2.378   4.793   8.893
74041SOL     OW23896   9.548   4.347   0.368
74041SOL    HW123897   9.501   4.275   0.325
74041SOL    HW223898   9.620   4.304   0.415
74042SOL     OW23899  12.506   2.082   0.382
74042SOL    HW123900  12.572   2.043   0.440
74042SOL    HW223901  12.555   2.113   0.307
74043SOL     OW23902  13.308   1.882   5.084
74043SOL    HW123903  13.226   1.893   5.035
74043SOL    HW223904  13.280   1.866   5.174
74044SOL     OW23905   9.311   6.471   7.785
74044SOL    HW123906   9.283   6.425   7.706
74044SOL    HW223907   9.281   6.561   7.772
74045SOL     OW23908  13.959   9.506   2.633
74045SOL    HW123909  13.979   9.596   2.605
74045SOL    HW223910  13.867   9.493   2.609
74046SOL     OW23911   6.426  11.567   8.879
74046SOL    HW123912   6.341  11.596   8.913
74046SOL    HW223913   6.452  11.497   8.939
74047SOL     OW23914   0.561  11.880  14.231
74047SOL    HW123915   0.525  11.883  14.320
74047SOL    HW223916   0.639  11.937  14.236
74048SOL     OW23917   2.557   3.907   0.654
74048SOL    HW123918   2.556   3.893   0.560
74048SOL    HW223919   2.519   3.994   0.666
74049SOL     OW23920   8.212   2.404   5.118
74049SOL    HW123921   8.188   2.487   5.077
74049SOL    HW223922   8.301   2.417   5.149
74050SOL     OW23923  11.754  11.056  13.650
74050SOL    HW123924  11.768  11.103  13.568
74050SOL    HW223925  11.727  10.968  13.623
74051SOL     OW23926   8.728  12.773  10.013
74051SOL    HW123927   8.782  12.701  10.047
74051SOL    HW223928   8.768  12.852  10.049
74052SOL     OW23929   2.881   0.719  14.132
74052SOL    HW123930   2.809   0.778  14.111
74052SOL    HW223931   2.954   0.777  14.153
74053SOL     OW23932   0.419   4.808   2.680
74053SOL    HW123933   0.412   4.861   2.759
74053SOL    HW223934   0.506   4.829   2.645
74054SOL     OW23935   5.790   3.923   7.174
74054SOL    HW123936   5.873   3.920   7.221
74054SOL    HW223937   5.744   3.843   7.202
74055SOL     OW23938   7.844  12.456  14.052
74055SOL    HW123939   7.806  12.501  13.976
74055SOL    HW223940   7.820  12.364  14.041
74056SOL     OW23941  10.967   0.407   0.113
74056SOL    HW123942  10.894   0.368   0.064
74056SOL    HW223943  10.989   0.487   0.064
74057SOL     OW23944   6.126   3.644   1.224
74057SOL    HW123945   6.151   3.608   1.309
74057SOL    HW223946   6.167   3.730   1.220
74058SOL     OW23947   7.180  14.360  10.434
74058SOL    HW123948   7.221  14.298  10.374
74058SOL    HW223949   7.100  14.317  10.462
74059SOL     OW23950   6.103  10.916   4.186
74059SOL    HW123951   6.069  10.896   4.274
74059SOL    HW223952   6.193  10.882   4.187
74060SOL     OW23953  10.903   7.313   9.806
74060SOL    HW123954  10.957   7.319   9.727
74060SOL    HW223955  10.862   7.227   9.801
74061SOL     OW23956  13.608  12.623   4.233
74061SOL    HW123957  13.543  12.656   4.295
74061SOL    HW223958  13.659  12.700   4.209
74062SOL     OW23959   5.390  14.226   8.830
74062SOL    HW123960   5.460  14.172   8.793
74062SOL    HW223961   5.384  14.197   8.922
74063SOL     OW23962  10.683   3.501  10.154
74063SOL    HW123963  10.778   3.509  10.164
74063SOL    HW223964  10.670   3.415  10.114
74064SOL     OW23965   8.873   0.814   6.550
74064SOL    HW123966   8.788   0.836   6.587
74064SOL    HW223967   8.926   0.789   6.625
74065SOL     OW23968   6.393   1.826   2.216
74065SOL    HW123969   6.385   1.882   2.293
74065SOL    HW223970   6.383   1.737   2.248
74066SOL     OW23971   2.380  13.299   3.847
74066SOL    HW123972   2.377  13.345   3.764
74066SOL    HW223973   2.461  13.248   3.844
74067SOL     OW23974   8.072   9.768   7.817
74067SOL    HW123975   8.163   9.797   7.812
74067SOL    HW223976   8.028   9.818   7.749
74068SOL     OW23977  12.212   6.522  14.600
74068SOL    HW123978  12.228   6.454  14.535
74068SOL    HW223979  12.119   6.514  14.621
74069SOL     OW23980   1.431   4.430   8.523
74069SOL    HW123981   1.343   4.459   8.497
74069SOL    HW223982   1.488   4.464   8.454
74070SOL     OW23983   4.913   1.739  13.428
74070SOL    HW123984   4.848   1.687  13.380
74070SOL    HW223985   4.884   1.736  13.519
74071SOL     OW23986   0.537  11.219   4.218
74071SOL    HW123987   0.524  11.271   4.297
74071SOL    HW223988   0.546  11.129   4.249
74072SOL     OW23989   0.463   5.969  13.456
74072SOL    HW123990   0.492   5.969  13.365
74072SOL    HW223991   0.399   6.041  13.461
74073SOL     OW23992  10.023   5.177  11.699
74073SOL    HW123993  10.083   5.108  11.726
74073SOL    HW223994   9.964   5.188  11.773
74074SOL     OW23995   6.012   1.255   6.226
74074SOL    HW123996   6.074   1.191   6.260
74074SOL    HW223997   5.963   1.285   6.303
74075SOL     OW23998   9.590   8.138   0.495
74075SOL    HW123999   9.579   8.229   0.468
74075SOL    HW224000   9.683   8.130   0.516
74076SOL     OW24001   0.128   4.414  14.581
74076SOL    HW124002   0.078   4.369  14.512
74076SOL    HW224003   0.204   4.358  14.596
74077SOL     OW24004  10.560  11.868  14.306
74077SOL    HW124005  10.547  11.913  14.390
74077SOL    HW224006  10.634  11.809  14.321
74078SOL     OW24007  13.373   1.717  14.181
74078SOL    HW124008  13.433   1.643  14.183
74078SOL    HW224009  13.332   1.717  14.268
74079SOL     OW24010  10.450   8.385  12.881
74079SOL    HW124011  10.408   8.377  12.967
74079SOL    HW224012  10.535   8.424  12.900
74080SOL     OW24013  14.821  11.314   5.126
74080SOL    HW124014   0.001  11.295   5.054
74080SOL    HW224015  14.798  11.229   5.162
74081SOL     OW24016   8.664   9.542  14.413
74081SOL    HW124017   8.753   9.508  14.409
74081SOL    HW224018   8.637   9.552  14.322
74082SOL     OW24019   1.493  12.211   4.748
74082SOL    HW124020   1.459  12.281   4.804
74082SOL    HW224021   1.552  12.256   4.687
74083SOL     OW24022   1.748   1.515   3.486
74083SOL    HW124023   1.688   1.589   3.473
74083SOL    HW224024   1.777   1.524   3.577
74084SOL     OW24025  13.914   2.155   4.251
74084SOL    HW124026  13.821   2.170   4.229
74084SOL    HW224027  13.923   2.191   4.339
74085SOL     OW24028   4.595  10.036  10.324
74085SOL    HW124029   4.580   9.971  10.393
74085SOL    HW224030   4.611  10.117  10.371
74086SOL     OW24031  13.621   7.842   2.331
74086SOL    HW124032  13.690   7.874   2.273
74086SOL    HW224033  13.632   7.747   2.331
74087SOL     OW24034   6.521   8.006   3.232
74087SOL    HW124035   6.542   7.953   3.156
74087SOL    HW224036   6.559   8.092   3.213
74088SOL     OW24037   6.311  12.716  13.687
74088SOL    HW124038   6.233  12.666  13.664
74088SOL    HW224039   6.278  12.803  13.710
74089SOL     OW24040   6.166   7.558  14.567
74089SOL    HW124041   6.208   7.604  14.640
74089SOL    HW224042   6.177   7.617  14.492
74090SOL     OW24043   0.784   9.900   3.136
74090SOL    HW124044   0.747   9.987   3.118
74090SOL    HW224045   0.820   9.907   3.224
74091SOL     OW24046   6.933   1.079   1.758
74091SOL    HW124047   6.978   1.135   1.822
74091SOL    HW224048   6.914   0.999   1.807
74092SOL     OW24049   3.851  11.508   6.349
74092SOL    HW124050   3.925  11.469   6.396
74092SOL    HW224051   3.773  11.468   6.388
74093SOL     OW24052   1.483   4.301   0.596
74093SOL    HW124053   1.531   4.382   0.577
74093SOL    HW224054   1.459   4.308   0.689
74094SOL     OW24055  10.560  13.921   0.452
74094SOL    HW124056  10.563  14.004   0.405
74094SOL    HW224057  10.625  13.866   0.408
74095SOL     OW24058   0.527   2.606   3.521
74095SOL    HW124059   0.432   2.602   3.511
74095SOL    HW224060   0.541   2.683   3.576
74096SOL     OW24061  10.955   0.453   5.327
74096SOL    HW124062  11.009   0.416   5.257
74096SOL    HW224063  10.865   0.432   5.301
74097SOL     OW24064  12.935   7.611   8.999
74097SOL    HW124065  12.935   7.526   9.044
74097SOL    HW224066  13.004   7.661   9.042
74098SOL     OW24067   2.077   6.878  10.709
74098SOL    HW124068   2.009   6.828  10.755
74098SOL    HW224069   2.028   6.933  10.648
74099SOL     OW24070  13.795   5.270  14.162
74099SOL    HW124071  13.849   5.193  14.148
74099SOL    HW224072  13.707   5.243  14.134
74100SOL     OW24073  12.148   4.807   9.622
74100SOL    HW124074  12.100   4.887   9.642
74100SOL    HW224075  12.122   4.786   9.532
74101SOL     OW24076   8.190  13.222  11.149
74101SOL    HW124077   8.112  13.207  11.095
74101SOL    HW224078   8.230  13.135  11.155
74102SOL     OW24079   2.096  11.549  12.579
74102SOL    HW124080   2.007  11.568  12.552
74102SOL    HW224081   2.090  11.533  12.673
74103SOL     OW24082   7.747  11.384  13.246
74103SOL    HW124083   7.779  11.294  13.252
74103SOL    HW224084   7.728  11.396  13.153
74104SOL     OW24085  13.887  13.260   6.946
74104SOL    HW124086  13.886  13.337   6.888
74104SOL    HW224087  13.837  13.194   6.899
74105SOL     OW24088   3.273   5.308   8.612
74105SOL    HW124089   3.329   5.262   8.675
74105SOL    HW224090   3.267   5.249   8.537
74106SOL     OW24091   9.659   0.280   1.682
74106SOL    HW124092   9.586   0.317   1.732
74106SOL    HW224093   9.710   0.356   1.655
74107SOL     OW24094  10.418   5.469   5.430
74107SOL    HW124095  10.462   5.485   5.346
74107SOL    HW224096  10.464   5.394   5.467
74108SOL     OW24097   5.967  10.360  13.557
74108SOL    HW124098   5.895  10.296  13.556
74108SOL    HW224099   6.045  10.309  13.536
74109SOL     OW24100   4.107  10.649   2.607
74109SOL    HW124101   4.114  10.716   2.675
74109SOL    HW224102   4.041  10.684   2.546
74110SOL     OW24103   5.783   6.866   8.334
74110SOL    HW124104   5.773   6.812   8.413
74110SOL    HW224105   5.795   6.955   8.367
74111SOL     OW24106  10.613  10.905   5.056
74111SOL    HW124107  10.678  10.911   4.985
74111SOL    HW224108  10.609  10.994   5.092
74112SOL     OW24109   0.759  12.925   6.649
74112SOL    HW124110   0.803  12.878   6.578
74112SOL    HW224111   0.811  12.905   6.727
74113SOL     OW24112   0.253   6.666   7.172
74113SOL    HW124113   0.276   6.758   7.162
74113SOL    HW224114   0.316   6.619   7.117
74114SOL     OW24115   1.256   5.972   3.357
74114SOL    HW124116   1.194   5.992   3.427
74114SOL    HW224117   1.282   6.058   3.323
74115SOL     OW24118  11.556   9.621   1.536
74115SOL    HW124119  11.649   9.636   1.518
74115SOL    HW224120  11.555   9.566   1.615
74116SOL     OW24121   1.000   3.332  12.871
74116SOL    HW124122   0.937   3.288  12.927
74116SOL    HW224123   0.958   3.414  12.847
74117SOL     OW24124   1.066   7.162   1.312
74117SOL    HW124125   1.159   7.174   1.327
74117SOL    HW224126   1.057   7.156   1.217
74118SOL     OW24127   7.154  10.834   0.664
74118SOL    HW124128   7.139  10.796   0.577
74118SOL    HW224129   7.067  10.839   0.703
74119SOL     OW24130  10.364  10.941   9.407
74119SOL    HW124131  10.308  11.019   9.401
74119SOL    HW224132  10.311  10.871   9.369
74120SOL     OW24133   4.146  11.409  14.684
74120SOL    HW124134   4.225  11.452  14.717
74120SOL    HW224135   4.165  11.392  14.591
74121SOL     OW24136   2.810   3.568   2.279
74121SOL    HW124137   2.903   3.591   2.284
74121SOL    HW224138   2.766   3.650   2.257
74122SOL     OW24139  13.262   6.874  14.509
74122SOL    HW124140  13.289   6.965  14.519
74122SOL    HW224141  13.274   6.836  14.596
74123SOL     OW24142   7.484  12.959  10.040
74123SOL    HW124143   7.397  12.926  10.061
74123SOL    HW224144   7.529  12.885   9.999
74124SOL     OW24145   3.084   8.298   0.044
74124SOL    HW124146   3.162   8.278  14.873
74124SOL    HW224147   3.081   8.394   0.045
74125SOL     OW24148  13.740   9.937  13.336
74125SOL    HW124149  13.825   9.968  13.302
74125SOL    HW224150  13.760   9.852  13.374
74126SOL     OW24151   0.757  12.492   7.408
74126SOL    HW124152   0.829  12.523   7.354
74126SOL    HW224153   0.685  12.552   7.390
74127SOL     OW24154   6.573   0.813   4.863
74127SOL    HW124155   6.573   0.888   4.802
74127SOL    HW224156   6.572   0.736   4.805
74128SOL     OW24157   8.616  11.499  12.034
74128SOL    HW124158   8.636  11.543  12.116
74128SOL    HW224159   8.565  11.562  11.984
74129SOL     OW24160  14.172   0.993  11.535
74129SOL    HW124161  14.260   1.015  11.504
74129SOL    HW224162  14.113   1.038  11.475
74130SOL     OW24163   2.653   8.462   0.832
74130SOL    HW124164   2.726   8.481   0.891
74130SOL    HW224165   2.580   8.438   0.890
74131SOL     OW24166  13.376   1.871   3.687
74131SOL    HW124167  13.376   1.967   3.691
74131SOL    HW224168  13.358   1.851   3.596
74132SOL     OW24169   9.580   4.971   5.696
74132SOL    HW124170   9.565   5.048   5.751
74132SOL    HW224171   9.662   4.934   5.729
74133SOL     OW24172   6.766  11.560   6.299
74133SOL    HW124173   6.672  11.579   6.298
74133SOL    HW224174   6.799  11.603   6.220
74134SOL     OW24175  10.462  12.160   1.898
74134SOL    HW124176  10.458  12.255   1.885
74134SOL    HW224177  10.373  12.136   1.926
74135SOL     OW24178   8.489  11.627   8.877
74135SOL    HW124179   8.401  11.590   8.874
74135SOL    HW224180   8.546  11.551   8.891
74136SOL     OW24181   3.179   8.861   7.916
74136SOL    HW124182   3.114   8.807   7.961
74136SOL    HW224183   3.131   8.901   7.843
74137SOL     OW24184  10.812   0.721   2.398
74137SOL    HW124185  10.885   0.710   2.337
74137SOL    HW224186  10.811   0.640   2.449
74138SOL     OW24187   4.194   1.351  11.406
74138SOL    HW124188   4.287   1.330  11.407
74138SOL    HW224189   4.171   1.363  11.499
74139SOL     OW24190   6.260   8.231   0.820
74139SOL    HW124191   6.237   8.316   0.859
74139SOL    HW224192   6.233   8.167   0.887
74140SOL     OW24193  10.959   3.678   9.732
74140SOL    HW124194  10.947   3.770   9.757
74140SOL    HW224195  10.998   3.682   9.645
74141SOL     OW24196   4.150   6.743   2.393
74141SOL    HW124197   4.126   6.651   2.380
74141SOL    HW224198   4.240   6.749   2.359
74142SOL     OW24199   0.392   0.564  10.539
74142SOL    HW124200   0.375   0.642  10.592
74142SOL    HW224201   0.343   0.579  10.458
74143SOL     OW24202  13.140   9.540   4.074
74143SOL    HW124203  13.057   9.576   4.045
74143SOL    HW224204  13.146   9.455   4.031
74144SOL     OW24205   5.971   8.276  14.819
74144SOL    HW124206   6.018   8.198  14.790
74144SOL    HW224207   5.904   8.290  14.751
74145SOL     OW24208  13.760   4.334   8.424
74145SOL    HW124209  13.784   4.352   8.515
74145SOL    HW224210  13.672   4.296   8.430
74146SOL     OW24211  14.642  13.642   1.333
74146SOL    HW124212  14.583  13.671   1.264
74146SOL    HW224213  14.729  13.669   1.303
74147SOL     OW24214  11.728  11.133   2.178
74147SOL    HW124215  11.746  11.040   2.188
74147SOL    HW224216  11.737  11.149   2.084
74148SOL     OW24217  13.012  12.741   1.042
74148SOL    HW124218  13.000  12.648   1.061
74148SOL    HW224219  13.066  12.742   0.963
74149SOL     OW24220   9.486   5.368   7.928
74149SOL    HW124221   9.518   5.279   7.940
74149SOL    HW224222   9.404   5.357   7.879
74150SOL     OW24223   1.170   8.025  14.289
74150SOL    HW124224   1.147   8.036  14.197
74150SOL    HW224225   1.259   8.059  14.295
74151SOL     OW24226  12.744   9.691   0.642
74151SOL    HW124227  12.811   9.696   0.711
74151SOL    HW224228  12.661   9.689   0.690
74152SOL     OW24229  14.593  12.194   2.306
74152SOL    HW124230  14.636  12.278   2.321
74152SOL    HW224231  14.524  12.212   2.242
74153SOL     OW24232   0.782   5.841   6.408
74153SOL    HW124233   0.780   5.776   6.338
74153SOL    HW224234   0.866   5.828   6.452
74154SOL     OW24235  13.011  12.029   3.812
74154SOL    HW124236  12.998  12.061   3.902
74154SOL    HW224237  13.105  12.034   3.799
74155SOL     OW24238  12.989   1.124  13.372
74155SOL    HW124239  13.059   1.186  13.355
74155SOL    HW224240  12.964   1.139  13.464
74156SOL     OW24241   2.340   7.679   5.132
74156SOL    HW124242   2.330   7.722   5.217
74156SOL    HW224243   2.435   7.677   5.117
74157SOL     OW24244   1.879   0.121  10.093
74157SOL    HW124245   1.860   0.091  10.004
74157SOL    HW224246   1.797   0.108  10.141
74158SOL     OW24247   3.506   8.060   6.468
74158SOL    HW124248   3.535   7.986   6.523
74158SOL    HW224249   3.546   8.043   6.383
74159SOL     OW24250   9.823   0.596   5.978
74159SOL    HW124251   9.738   0.636   5.995
74159SOL    HW224252   9.806   0.502   5.982
74160SOL     OW24253  14.109   4.406   5.296
74160SOL    HW124254  14.054   4.332   5.321
74160SOL    HW224255  14.151   4.379   5.215
74161SOL     OW24256   6.933   5.631  14.387
74161SOL    HW124257   6.847   5.595  14.409
74161SOL    HW224258   6.928   5.723  14.412
74162SOL     OW24259   8.077   7.826  14.610
74162SOL    HW124260   8.079   7.855  14.701
74162SOL    HW224261   8.164   7.788  14.595
74163SOL     OW24262  14.673   8.951  12.639
74163SOL    HW124263  14.688   9.014  12.569
74163SOL    HW224264  14.717   8.988  12.715
74164SOL     OW24265  12.434   2.460   9.773
74164SOL    HW124266  12.419   2.468   9.867
74164SOL    HW224267  12.524   2.430   9.765
74165SOL     OW24268   4.520   1.290  12.262
74165SOL    HW124269   4.551   1.315  12.175
74165SOL    HW224270   4.444   1.234  12.245
74166SOL     OW24271   1.623   9.933   2.081
74166SOL    HW124272   1.602   9.870   2.012
74166SOL    HW224273   1.596   9.891   2.162
74167SOL     OW24274  10.586   7.398   6.347
74167SOL    HW124275  10.607   7.305   6.332
74167SOL    HW224276  10.507   7.396   6.401
74168SOL     OW24277   2.421  13.653   5.492
74168SOL    HW124278   2.493  13.590   5.494
74168SOL    HW224279   2.435  13.708   5.569
74169SOL     OW24280   2.208  11.466   5.987
74169SOL    HW124281   2.215  11.533   6.056
74169SOL    HW224282   2.234  11.385   6.030
74170SOL     OW24283   1.539  10.408  12.304
74170SOL    HW124284   1.634  10.412  12.303
74170SOL    HW224285   1.514  10.402  12.212
74171SOL     OW24286  10.100   3.015   6.455
74171SOL    HW124287  10.088   3.063   6.537
74171SOL    HW224288  10.012   3.003   6.421
74172SOL     OW24289  12.735   5.300  14.595
74172SOL    HW124290  12.690   5.382  14.572
74172SOL    HW224291  12.674   5.256  14.655
74173SOL     OW24292   5.623   2.401   2.954
74173SOL    HW124293   5.717   2.403   2.971
74173SOL    HW224294   5.584   2.447   3.028
74174SOL     OW24295   8.523   1.185   2.424
74174SOL    HW124296   8.594   1.183   2.488
74174SOL    HW224297   8.443   1.189   2.477
74175SOL     OW24298  10.078   7.312   1.378
74175SOL    HW124299  10.001   7.255   1.367
74175SOL    HW224300  10.069   7.377   1.308
74176SOL     OW24301   4.431  12.411   0.163
74176SOL    HW124302   4.487  12.354   0.109
74176SOL    HW224303   4.427  12.368   0.248
74177SOL     OW24304  14.617   0.688   4.412
74177SOL    HW124305  14.665   0.609   4.384
74177SOL    HW224306  14.681   0.737   4.463
74178SOL     OW24307   9.143  10.200   1.268
74178SOL    HW124308   9.109  10.138   1.332
74178SOL    HW224309   9.137  10.154   1.184
74179SOL     OW24310   7.237  13.601  11.604
74179SOL    HW124311   7.231  13.556  11.520
74179SOL    HW224312   7.185  13.547  11.664
74180SOL     OW24313   0.708  14.782   7.436
74180SOL    HW124314   0.728  14.806   7.345
74180SOL    HW224315   0.760  14.703   7.452
74181SOL     OW24316   2.061   0.159   5.037
74181SOL    HW124317   2.061   0.181   5.129
74181SOL    HW224318   2.028   0.237   4.993
74182SOL     OW24319   5.991  11.289   6.249
74182SOL    HW124320   5.953  11.225   6.309
74182SOL    HW224321   5.924  11.302   6.181
74183SOL     OW24322  13.709   9.149  12.860
74183SOL    HW124323  13.742   9.206  12.791
74183SOL    HW224324  13.646   9.092  12.816
74184SOL     OW24325  12.389  10.355   2.365
74184SOL    HW124326  12.311  10.375   2.312
74184SOL    HW224327  12.374  10.267   2.397
74185SOL     OW24328  12.143   4.645   4.831
74185SOL    HW124329  12.230   4.679   4.809
74185SOL    HW224330  12.127   4.577   4.766
74186SOL     OW24331   7.825   1.544   6.781
74186SOL    HW124332   7.848   1.560   6.689
74186SOL    HW224333   7.748   1.599   6.796
74187SOL     OW24334   2.352  11.816   1.507
74187SOL    HW124335   2.282  11.873   1.539
74187SOL    HW224336   2.432  11.853   1.544
74188SOL     OW24337   1.981  12.601  10.750
74188SOL    HW124338   1.929  12.543  10.806
74188SOL    HW224339   1.916  12.647  10.697
74189SOL     OW24340  10.783   1.138  12.495
74189SOL    HW124341  10.845   1.091  12.440
74189SOL    HW224342  10.697   1.108  12.466
74190SOL     OW24343  10.648   8.377   0.013
74190SOL    HW124344  10.606   8.432  14.828
74190SOL    HW224345  10.611   8.290  14.881
74191SOL     OW24346   4.238   8.198   6.341
74191SOL    HW124347   4.218   8.117   6.293
74191SOL    HW224348   4.246   8.264   6.272
74192SOL     OW24349   7.736   0.095   0.101
74192SOL    HW124350   7.673   0.154   0.060
74192SOL    HW224351   7.808   0.152   0.128
74193SOL     OW24352   9.410   8.264   9.355
74193SOL    HW124353   9.440   8.178   9.386
74193SOL    HW224354   9.490   8.314   9.342
74194SOL     OW24355   2.443   6.992   2.902
74194SOL    HW124356   2.507   7.007   2.972
74194SOL    HW224357   2.426   6.898   2.905
74195SOL     OW24358   7.838  12.752  14.497
74195SOL    HW124359   7.902  12.694  14.539
74195SOL    HW224360   7.865  12.755  14.406
74196SOL     OW24361   9.058   0.454   9.385
74196SOL    HW124362   9.100   0.453   9.298
74196SOL    HW224363   9.130   0.439   9.446
74197SOL     OW24364  14.546   4.938  11.604
74197SOL    HW124365  14.619   4.975  11.653
74197SOL    HW224366  14.519   5.009  11.545
74198SOL     OW24367  10.918   9.597  10.470
74198SOL    HW124368  10.961   9.609  10.385
74198SOL    HW224369  10.941   9.508  10.497
74199SOL     OW24370   1.062   0.163  12.351
74199SOL    HW124371   1.091   0.116  12.272
74199SOL    HW224372   0.988   0.112  12.384
74200SOL     OW24373   6.120   3.525   3.688
74200SOL    HW124374   6.148   3.509   3.778
74200SOL    HW224375   6.138   3.442   3.643
74201SOL     OW24376  10.375   8.805   8.035
74201SOL    HW124377  10.411   8.716   8.036
74201SOL    HW224378  10.392   8.837   7.946
74202SOL     OW24379   9.247  13.338   5.628
74202SOL    HW124380   9.329  13.365   5.587
74202SOL    HW224381   9.183  13.340   5.556
74203SOL     OW24382   7.794   3.379  11.274
74203SOL    HW124383   7.798   3.394  11.369
74203SOL    HW224384   7.883   3.394  11.243
74204SOL     OW24385   0.374  13.903  12.522
74204SOL    HW124386   0.447  13.952  12.559
74204SOL    HW224387   0.405  13.812  12.518
74205SOL     OW24388  13.438  13.857   7.918
74205SOL    HW124389  13.521  13.811   7.913
74205SOL    HW224390  13.413  13.871   7.826
74206SOL     OW24391  10.388   8.809   4.485
74206SOL    HW124392  10.307   8.816   4.536
74206SOL    HW224393  10.382   8.725   4.441
74207SOL     OW24394   0.963  11.775  11.822
74207SOL    HW124395   0.943  11.751  11.913
74207SOL    HW224396   0.952  11.870  11.819
74208SOL     OW24397   6.835   1.434  11.333
74208SOL    HW124398   6.924   1.438  11.367
74208SOL    HW224399   6.783   1.484  11.396
74209SOL     OW24400   4.926  12.118   4.979
74209SOL    HW124401   5.005  12.066   4.993
74209SOL    HW224402   4.957  12.209   4.979
74210SOL     OW24403   9.144   9.582   8.771
74210SOL    HW124404   9.176   9.500   8.735
74210SOL    HW224405   9.222   9.625   8.806
74211SOL     OW24406  11.324   0.767   9.570
74211SOL    HW124407  11.417   0.765   9.591
74211SOL    HW224408  11.280   0.745   9.652
74212SOL     OW24409  13.919  11.161   6.229
74212SOL    HW124410  14.000  11.196   6.191
74212SOL    HW224411  13.926  11.181   6.322
74213SOL     OW24412  11.511  10.314   9.427
74213SOL    HW124413  11.547  10.392   9.383
74213SOL    HW224414  11.416  10.325   9.420
74214SOL     OW24415   3.291   2.065   4.884
74214SOL    HW124416   3.264   1.979   4.852
74214SOL    HW224417   3.291   2.056   4.980
74215SOL     OW24418  11.271  11.088   5.777
74215SOL    HW124419  11.179  11.091   5.803
74215SOL    HW224420  11.315  11.145   5.840
74216SOL     OW24421  13.365   8.887   0.874
74216SOL    HW124422  13.357   8.922   0.963
74216SOL    HW224423  13.444   8.928   0.840
74217SOL     OW24424   7.399   2.397  12.961
74217SOL    HW124425   7.451   2.406  13.041
74217SOL    HW224426   7.308   2.401  12.992
74218SOL     OW24427   0.810  10.156  13.544
74218SOL    HW124428   0.902  10.141  13.522
74218SOL    HW224429   0.791  10.243  13.508
74219SOL     OW24430   0.300  12.851   2.883
74219SOL    HW124431   0.266  12.859   2.793
74219SOL    HW224432   0.389  12.818   2.872
74220SOL     OW24433   1.569  14.816   3.084
74220SOL    HW124434   1.633  14.873   3.041
74220SOL    HW224435   1.619  14.739   3.110
74221SOL     OW24436  13.565   0.120   1.896
74221SOL    HW124437  13.552   0.131   1.802
74221SOL    HW224438  13.484   0.077   1.926
74222SOL     OW24439   2.078  10.659   3.547
74222SOL    HW124440   2.126  10.600   3.606
74222SOL    HW224441   2.143  10.724   3.520
74223SOL     OW24442   2.114   6.432   1.529
74223SOL    HW124443   2.192   6.376   1.527
74223SOL    HW224444   2.109   6.462   1.620
74224SOL     OW24445  12.402  10.207  10.746
74224SOL    HW124446  12.324  10.203  10.691
74224SOL    HW224447  12.467  10.153  10.701
74225SOL     OW24448   2.285   1.711  13.196
74225SOL    HW124449   2.343   1.680  13.265
74225SOL    HW224450   2.202   1.728  13.240
74226SOL     OW24451  10.437   5.243   4.249
74226SOL    HW124452  10.441   5.286   4.334
74226SOL    HW224453  10.392   5.306   4.193
74227SOL     OW24454  13.799  11.463  13.855
74227SOL    HW124455  13.832  11.386  13.901
74227SOL    HW224456  13.719  11.487  13.902
74228SOL     OW24457   0.209  14.833   0.458
74228SOL    HW124458   0.277  14.822   0.524
74228SOL    HW224459   0.168   0.036   0.481
74229SOL     OW24460  11.828   9.944   4.513
74229SOL    HW124461  11.806   9.894   4.591
74229SOL    HW224462  11.773  10.023   4.519
74230SOL     OW24463   3.131  11.031   7.655
74230SOL    HW124464   3.157  10.962   7.593
74230SOL    HW224465   3.183  11.013   7.733
74231SOL     OW24466   7.093   9.822   6.074
74231SOL    HW124467   7.072   9.886   6.006
74231SOL    HW224468   7.176   9.852   6.111
74232SOL     OW24469   0.013   3.202   9.302
74232SOL    HW124470   0.011   3.265   9.230
74232SOL    HW224471  14.832   3.134   9.276
74233SOL     OW24472   5.895   2.762   1.949
74233SOL    HW124473   5.859   2.829   2.007
74233SOL    HW224474   5.920   2.809   1.870
74234SOL     OW24475   3.825   8.766   5.400
74234SOL    HW124476   3.738   8.780   5.364
74234SOL    HW224477   3.881   8.829   5.355
74235SOL     OW24478  14.231  14.186   3.429
74235SOL    HW124479  14.204  14.174   3.520
74235SOL    HW224480  14.317  14.145   3.423
74236SOL     OW24481   3.972   6.846   2.919
74236SOL    HW124482   3.929   6.781   2.863
74236SOL    HW224483   4.066   6.828   2.909
74237SOL     OW24484  11.447   7.536   5.490
74237SOL    HW124485  11.440   7.623   5.530
74237SOL    HW224486  11.528   7.541   5.439
74238SOL     OW24487   0.769   5.260  14.300
74238SOL    HW124488   0.742   5.257  14.392
74238SOL    HW224489   0.706   5.203  14.255
74239SOL     OW24490   6.375  11.937  12.564
74239SOL    HW124491   6.331  11.862  12.524
74239SOL    HW224492   6.323  12.013  12.538
74240SOL     OW24493  13.610   3.245   9.838
74240SOL    HW124494  13.577   3.333   9.859
74240SOL    HW224495  13.704   3.251   9.856
74241SOL     OW24496   1.804  14.127   7.952
74241SOL    HW124497   1.771  14.216   7.947
74241SOL    HW224498   1.897  14.136   7.973
74242SOL     OW24499   5.293   1.978  14.632
74242SOL    HW124500   5.359   1.958  14.697
74242SOL    HW224501   5.236   1.901  14.630
74243SOL     OW24502   0.352   3.549   8.680
74243SOL    HW124503   0.325   3.614   8.744
74243SOL    HW224504   0.440   3.523   8.708
74244SOL     OW24505  10.163   0.091  12.887
74244SOL    HW124506  10.220   0.035  12.834
74244SOL    HW224507  10.093   0.116  12.827
74245SOL     OW24508   0.571   2.870  14.429
74245SOL    HW124509   0.577   2.778  14.456
74245SOL    HW224510   0.479   2.883  14.408
74246SOL     OW24511   5.801   1.206   7.115
74246SOL    HW124512   5.875   1.203   7.053
74246SOL    HW224513   5.835   1.253   7.190
74247SOL     OW24514  12.618  13.571  13.293
74247SOL    HW124515  12.554  13.618  13.239
74247SOL    HW224516  12.565  13.514  13.349
74248SOL     OW24517   1.891   5.850  14.836
74248SOL    HW124518   1.948   5.773  14.836
74248SOL    HW224519   1.832   5.836  14.761
74249SOL     OW24520   2.538   6.538  12.580
74249SOL    HW124521   2.458   6.501  12.543
74249SOL    HW224522   2.510   6.578  12.662
74250SOL     OW24523   1.932  11.863   1.009
74250SOL    HW124524   1.940  11.774   0.974
74250SOL    HW224525   1.991  11.916   0.956
74251SOL     OW24526  12.439  13.608   0.102
74251SOL    HW124527  12.376  13.539   0.081
74251SOL    HW224528  12.422  13.628   0.194
74252SOL     OW24529   4.754  11.397   4.228
74252SOL    HW124530   4.683  11.456   4.205
74252SOL    HW224531   4.711  11.313   4.246
74253SOL     OW24532   6.778   2.120   6.316
74253SOL    HW124533   6.871   2.103   6.333
74253SOL    HW224534   6.778   2.195   6.257
74254SOL     OW24535   2.586   1.934   2.001
74254SOL    HW124536   2.675   1.966   2.018
74254SOL    HW224537   2.597   1.842   1.979
74255SOL     OW24538   7.244   1.152  13.332
74255SOL    HW124539   7.212   1.062  13.329
74255SOL    HW224540   7.320   1.153  13.275
74256SOL     OW24541   7.470  12.118   2.299
74256SOL    HW124542   7.401  12.097   2.235
74256SOL    HW224543   7.435  12.193   2.347
74257SOL     OW24544  14.183  14.167   6.400
74257SOL    HW124545  14.152  14.142   6.487
74257SOL    HW224546  14.254  14.106   6.381
74258SOL     OW24547   1.352   8.606   8.635
74258SOL    HW124548   1.413   8.603   8.709
74258SOL    HW224549   1.267   8.625   8.674
74259SOL     OW24550   5.999   4.472   6.534
74259SOL    HW124551   5.908   4.463   6.563
74259SOL    HW224552   6.050   4.473   6.615
74260SOL     OW24553   9.109   5.015   6.423
74260SOL    HW124554   9.086   5.047   6.510
74260SOL    HW224555   9.055   4.937   6.410
74261SOL     OW24556   9.661   5.506   6.246
74261SOL    HW124557   9.749   5.469   6.238
74261SOL    HW224558   9.602   5.431   6.240
74262SOL     OW24559  13.150  11.953   1.938
74262SOL    HW124560  13.082  11.999   1.986
74262SOL    HW224561  13.183  11.887   1.999
74263SOL     OW24562   8.044   5.517   8.692
74263SOL    HW124563   8.054   5.606   8.660
74263SOL    HW224564   8.084   5.462   8.624
74264SOL     OW24565   5.110   5.009  10.340
74264SOL    HW124566   5.040   4.971  10.286
74264SOL    HW224567   5.143   4.936  10.392
74265SOL     OW24568  13.085   2.618   5.384
74265SOL    HW124569  13.054   2.535   5.349
74265SOL    HW224570  13.065   2.682   5.316
74266SOL     OW24571  10.951  10.889   7.873
74266SOL    HW124572  10.860  10.872   7.850
74266SOL    HW224573  10.997  10.807   7.854
74267SOL     OW24574   5.554   6.165   3.166
74267SOL    HW124575   5.645   6.140   3.182
74267SOL    HW224576   5.558   6.229   3.095
74268SOL     OW24577   0.359  12.242  10.593
74268SOL    HW124578   0.317  12.301  10.656
74268SOL    HW224579   0.431  12.294  10.557
74269SOL     OW24580   7.821   7.896  14.744
74269SOL    HW124581   7.842   7.807  14.715
74269SOL    HW224582   7.876   7.910  14.821
74270SOL     OW24583  11.157   2.487   8.394
74270SOL    HW124584  11.157   2.450   8.482
74270SOL    HW224585  11.213   2.428   8.343
74271SOL     OW24586  14.637   7.055   0.860
74271SOL    HW124587  14.556   7.105   0.845
74271SOL    HW224588  14.620   7.005   0.940
74272SOL     OW24589   8.121  12.200   2.335
74272SOL    HW124590   8.125  12.104   2.343
74272SOL    HW224591   8.180  12.232   2.404
74273SOL     OW24592   1.939   9.160   0.960
74273SOL    HW124593   1.906   9.214   0.888
74273SOL    HW224594   1.892   9.077   0.951
74274SOL     OW24595   3.138   9.592  13.205
74274SOL    HW124596   3.125   9.676  13.247
74274SOL    HW224597   3.050   9.560  13.185
74275SOL     OW24598  11.282   3.774  11.691
74275SOL    HW124599  11.212   3.831  11.722
74275SOL    HW224600  11.317   3.733  11.770
74276SOL     OW24601  11.114  13.831   2.675
74276SOL    HW124602  11.201  13.792   2.675
74276SOL    HW224603  11.076  13.807   2.760
74277SOL     OW24604   5.088  13.661  10.816
74277SOL    HW124605   5.012  13.661  10.873
74277SOL    HW224606   5.124  13.750  10.825
74278SOL     OW24607   5.031   9.733   2.096
74278SOL    HW124608   5.024   9.828   2.095
74278SOL    HW224609   4.981   9.705   2.019
74279SOL     OW24610   4.092  10.900   9.606
74279SOL    HW124611   4.149  10.895   9.529
74279SOL    HW224612   4.101  10.814   9.648
74280SOL     OW24613   1.903   9.112   8.271
74280SOL    HW124614   1.998   9.097   8.269
74280SOL    HW224615   1.892   9.206   8.257
74281SOL     OW24616   7.686   6.719  10.374
74281SOL    HW124617   7.754   6.783  10.396
74281SOL    HW224618   7.656   6.744  10.287
74282SOL     OW24619  14.615   8.108   9.837
74282SOL    HW124620  14.602   8.182   9.778
74282SOL    HW224621  14.704   8.078   9.821
74283SOL     OW24622  10.650  12.457   4.559
74283SOL    HW124623  10.576  12.398   4.575
74283SOL    HW224624  10.681  12.432   4.472
74284SOL     OW24625   9.032  12.886   7.017
74284SOL    HW124626   9.021  12.849   6.929
74284SOL    HW224627   8.957  12.853   7.066
74285SOL     OW24628   7.649   3.379   6.219
74285SOL    HW124629   7.701   3.362   6.140
74285SOL    HW224630   7.652   3.474   6.230
74286SOL     OW24631  10.875   8.765   0.083
74286SOL    HW124632  10.812   8.810   0.027
74286SOL    HW224633  10.872   8.812   0.166
74287SOL     OW24634   6.991   9.574   5.704
74287SOL    HW124635   7.031   9.530   5.779
74287SOL    HW224636   6.904   9.600   5.735
74288SOL     OW24637   1.514  10.437   0.020
74288SOL    HW124638   1.440  10.378   0.024
74288SOL    HW224639   1.488  10.513   0.072
74289SOL     OW24640   9.297   4.170  12.554
74289SOL    HW124641   9.207   4.156  12.525
74289SOL    HW224642   9.294   4.162  12.649
74290SOL     OW24643   3.087   6.493   8.834
74290SOL    HW124644   3.147   6.431   8.792
74290SOL    HW224645   3.117   6.497   8.925
74291SOL     OW24646   2.076   8.564   9.976
74291SOL    HW124647   2.015   8.636   9.989
74291SOL    HW224648   2.116   8.581   9.891
74292SOL     OW24649   8.571  14.676   3.253
74292SOL    HW124650   8.569  14.580   3.254
74292SOL    HW224651   8.643  14.699   3.312
74293SOL     OW24652  10.408   1.992   8.404
74293SOL    HW124653  10.339   2.007   8.469
74293SOL    HW224654  10.432   1.900   8.415
74294SOL     OW24655   6.806   4.237   0.116
74294SOL    HW124656   6.792   4.287   0.036
74294SOL    HW224657   6.744   4.165   0.110
74295SOL     OW24658   8.973   2.713  11.895
74295SOL    HW124659   8.971   2.673  11.982
74295SOL    HW224660   9.040   2.782  11.902
74296SOL     OW24661   5.800   8.079   8.951
74296SOL    HW124662   5.879   8.060   9.000
74296SOL    HW224663   5.808   8.172   8.927
74297SOL     OW24664   5.765   5.792  11.099
74297SOL    HW124665   5.678   5.766  11.070
74297SOL    HW224666   5.819   5.713  11.090
74298SOL     OW24667  12.336  12.495   1.747
74298SOL    HW124668  12.266  12.524   1.806
74298SOL    HW224669  12.408  12.472   1.805
74299SOL     OW24670  13.770  11.880   5.693
74299SOL    HW124671  13.728  11.954   5.737
74299SOL    HW224672  13.719  11.868   5.613
74300SOL     OW24673   5.074  12.632   0.989
74300SOL    HW124674   5.055  12.644   0.896
74300SOL    HW224675   5.049  12.715   1.030
74301SOL     OW24676   4.261   1.720   2.587
74301SOL    HW124677   4.167   1.739   2.580
74301SOL    HW224678   4.287   1.695   2.499
74302SOL     OW24679   6.494   6.521   4.327
74302SOL    HW124680   6.436   6.476   4.387
74302SOL    HW224681   6.442   6.592   4.291
74303SOL     OW24682   4.124   4.264  13.396
74303SOL    HW124683   4.106   4.342  13.448
74303SOL    HW224684   4.209   4.234  13.427
74304SOL     OW24685   6.681   5.614   5.399
74304SOL    HW124686   6.726   5.570   5.471
74304SOL    HW224687   6.730   5.695   5.385
74305SOL     OW24688   0.490   7.132   4.067
74305SOL    HW124689   0.471   7.225   4.057
74305SOL    HW224690   0.481   7.116   4.161
74306SOL     OW24691  12.427   3.789   0.197
74306SOL    HW124692  12.429   3.705   0.242
74306SOL    HW224693  12.407   3.853   0.265
74307SOL     OW24694   1.555  14.289  13.020
74307SOL    HW124695   1.650  14.299  13.026
74307SOL    HW224696   1.520  14.378  13.033
74308SOL     OW24697   5.313   2.279   8.137
74308SOL    HW124698   5.293   2.367   8.171
74308SOL    HW224699   5.233   2.229   8.152
74309SOL     OW24700  12.319  11.910  10.446
74309SOL    HW124701  12.373  11.837  10.476
74309SOL    HW224702  12.299  11.889  10.355
74310SOL     OW24703   1.721   0.349   3.625
74310SOL    HW124704   1.774   0.388   3.695
74310SOL    HW224705   1.786   0.316   3.562
74311SOL     OW24706   6.926  12.633  11.083
74311SOL    HW124707   6.856  12.577  11.050
74311SOL    HW224708   6.897  12.722  11.062
74312SOL     OW24709   2.125   4.665  11.850
74312SOL    HW124710   2.075   4.653  11.770
74312SOL    HW224711   2.169   4.581  11.864
74313SOL     OW24712  10.957   8.239   5.964
74313SOL    HW124713  10.905   8.289   6.027
74313SOL    HW224714  10.894   8.177   5.926
74314SOL     OW24715   1.093   9.639   3.700
74314SOL    HW124716   1.118   9.652   3.791
74314SOL    HW224717   1.080   9.545   3.692
74315SOL     OW24718   2.784   9.615  13.399
74315SOL    HW124719   2.782   9.670  13.477
74315SOL    HW224720   2.709   9.556  13.409
74316SOL     OW24721   6.844   7.555   9.471
74316SOL    HW124722   6.796   7.501   9.533
74316SOL    HW224723   6.872   7.631   9.521
74317SOL     OW24724   6.346   3.526   5.404
74317SOL    HW124725   6.337   3.455   5.468
74317SOL    HW224726   6.292   3.498   5.331
74318SOL     OW24727  14.394   6.406  14.631
74318SOL    HW124728  14.327   6.450  14.684
74318SOL    HW224729  14.458   6.475  14.613
74319SOL     OW24730  10.682  11.525   6.144
74319SOL    HW124731  10.654  11.611   6.112
74319SOL    HW224732  10.753  11.500   6.085
74320SOL     OW24733   1.537   0.119   5.173
74320SOL    HW124734   1.474   0.047   5.167
74320SOL    HW224735   1.614   0.087   5.125
74321SOL     OW24736   2.175   1.920   8.351
74321SOL    HW124737   2.154   1.971   8.429
74321SOL    HW224738   2.176   1.984   8.280
74322SOL     OW24739   1.084   6.961  13.446
74322SOL    HW124740   1.137   6.882  13.455
74322SOL    HW224741   1.094   6.986  13.354
74323SOL     OW24742   4.563   9.785   9.035
74323SOL    HW124743   4.558   9.779   9.130
74323SOL    HW224744   4.531   9.701   9.004
74324SOL     OW24745   2.538   9.019  12.575
74324SOL    HW124746   2.565   8.957  12.643
74324SOL    HW224747   2.503   9.094  12.623
74325SOL     OW24748   2.691   5.912   1.712
74325SOL    HW124749   2.786   5.921   1.702
74325SOL    HW224750   2.654   5.986   1.665
74326SOL     OW24751  14.108   3.712   1.313
74326SOL    HW124752  14.050   3.664   1.370
74326SOL    HW224753  14.131   3.791   1.362
74327SOL     OW24754   1.768   7.250  14.323
74327SOL    HW124755   1.835   7.248  14.254
74327SOL    HW224756   1.729   7.162  14.321
74328SOL     OW24757  13.930   2.067   9.828
74328SOL    HW124758  13.976   1.997   9.781
74328SOL    HW224759  13.854   2.087   9.773
74329SOL     OW24760  13.061  10.198  11.640
74329SOL    HW124761  13.000  10.128  11.616
74329SOL    HW224762  13.142  10.177  11.593
74330SOL     OW24763   4.713   6.669   2.103
74330SOL    HW124764   4.752   6.582   2.103
74330SOL    HW224765   4.619   6.652   2.116
74331SOL     OW24766   0.285   8.207   8.243
74331SOL    HW124767   0.194   8.226   8.265
74331SOL    HW224768   0.282   8.170   8.155
74332SOL     OW24769   1.922   3.772   0.588
74332SOL    HW124770   1.997   3.754   0.644
74332SOL    HW224771   1.846   3.763   0.646
74333SOL     OW24772   0.495   2.037   7.469
74333SOL    HW124773   0.548   2.029   7.389
74333SOL    HW224774   0.537   1.977   7.531
74334SOL     OW24775   0.896   0.797   5.971
74334SOL    HW124776   0.806   0.801   5.940
74334SOL    HW224777   0.931   0.885   5.955
74335SOL     OW24778   1.398   1.650   4.650
74335SOL    HW124779   1.365   1.704   4.579
74335SOL    HW224780   1.356   1.565   4.638
74336SOL     OW24781   9.682  10.453   4.168
74336SOL    HW124782   9.650  10.523   4.225
74336SOL    HW224783   9.603  10.419   4.125
74337SOL     OW24784   9.132   4.586   3.996
74337SOL    HW124785   9.189   4.607   3.922
74337SOL    HW224786   9.055   4.544   3.956
74338SOL     OW24787   0.158  13.230  12.102
74338SOL    HW124788   0.181  13.313  12.059
74338SOL    HW224789   0.181  13.244  12.194
74339SOL     OW24790   3.539   8.614   6.872
74339SOL    HW124791   3.449   8.599   6.902
74339SOL    HW224792   3.529   8.663   6.791
74340SOL     OW24793   1.153  13.540   5.065
74340SOL    HW124794   1.185  13.622   5.026
74340SOL    HW224795   1.164  13.554   5.159
74341SOL     OW24796  14.092   0.558   1.355
74341SOL    HW124797  14.077   0.521   1.268
74341SOL    HW224798  14.151   0.496   1.398
74342SOL     OW24799   6.334   1.112   8.264
74342SOL    HW124800   6.349   1.065   8.181
74342SOL    HW224801   6.285   1.049   8.317
74343SOL     OW24802   0.309   9.599   0.771
74343SOL    HW124803   0.276   9.516   0.736
74343SOL    HW224804   0.343   9.646   0.695
74344SOL     OW24805   7.317  13.669   6.118
74344SOL    HW124806   7.291  13.578   6.133
74344SOL    HW224807   7.341  13.702   6.205
74345SOL     OW24808  10.283   0.462   5.330
74345SOL    HW124809  10.212   0.522   5.307
74345SOL    HW224810  10.267   0.441   5.422
74346SOL     OW24811  14.633   2.721   9.988
74346SOL    HW124812  14.663   2.680   9.907
74346SOL    HW224813  14.596   2.804   9.961
74347SOL     OW24814   7.621   1.474  14.338
74347SOL    HW124815   7.669   1.394  14.318
74347SOL    HW224816   7.661   1.541  14.282
74348SOL     OW24817   2.145  11.941   3.021
74348SOL    HW124818   2.132  11.846   3.024
74348SOL    HW224819   2.240  11.952   3.026
74349SOL     OW24820   8.092   3.664  13.922
74349SOL    HW124821   8.084   3.736  13.984
74349SOL    HW224822   8.010   3.616  13.930
74350SOL     OW24823   9.494   9.467  12.334
74350SOL    HW124824   9.463   9.413  12.261
74350SOL    HW224825   9.533   9.405  12.395
74351SOL     OW24826  13.681   8.858  14.776
74351SOL    HW124827  13.764   8.813  14.789
74351SOL    HW224828  13.706   8.947  14.751
74352SOL     OW24829  14.774   3.904  11.734
74352SOL    HW124830  14.820   3.988  11.733
74352SOL    HW224831  14.814   3.854  11.662
74353SOL     OW24832  13.210   5.090  12.765
74353SOL    HW124833  13.164   5.041  12.834
74353SOL    HW224834  13.145   5.153  12.734
74354SOL     OW24835  11.883   1.406   7.145
74354SOL    HW124836  11.804   1.435   7.191
74354SOL    HW224837  11.884   1.311   7.158
74355SOL     OW24838  11.369  13.236  10.805
74355SOL    HW124839  11.314  13.169  10.763
74355SOL    HW224840  11.421  13.187  10.869
74356SOL     OW24841   7.143   1.891   6.413
74356SOL    HW124842   7.233   1.863   6.425
74356SOL    HW224843   7.101   1.872   6.497
74357SOL     OW24844   8.222   3.447   6.200
74357SOL    HW124845   8.213   3.363   6.247
74357SOL    HW224846   8.316   3.452   6.179
74358SOL     OW24847   9.591  10.435   9.316
74358SOL    HW124848   9.657  10.383   9.269
74358SOL    HW224849   9.564  10.379   9.389
74359SOL     OW24850   3.521   3.236  12.779
74359SOL    HW124851   3.538   3.330  12.774
74359SOL    HW224852   3.447   3.223  12.720
74360SOL     OW24853  14.651  11.034  12.466
74360SOL    HW124854  14.641  10.950  12.422
74360SOL    HW224855  14.656  11.012  12.559
74361SOL     OW24856   2.281   8.321   7.815
74361SOL    HW124857   2.240   8.390   7.762
74361SOL    HW224858   2.295   8.249   7.753
74362SOL     OW24859   9.782   0.254   7.617
74362SOL    HW124860   9.808   0.202   7.694
74362SOL    HW224861   9.849   0.234   7.551
74363SOL     OW24862  14.023   9.396   5.075
74363SOL    HW124863  13.987   9.427   4.991
74363SOL    HW224864  14.089   9.331   5.050
74364SOL     OW24865   1.534   3.312  14.530
74364SOL    HW124866   1.544   3.361  14.612
74364SOL    HW224867   1.618   3.322  14.486
74365SOL     OW24868   7.502  10.749   2.019
74365SOL    HW124869   7.453  10.682   1.971
74365SOL    HW224870   7.555  10.793   1.952
74366SOL     OW24871   3.928   4.346   4.394
74366SOL    HW124872   3.893   4.278   4.337
74366SOL    HW224873   4.002   4.382   4.346
74367SOL     OW24874   5.347   1.321   8.500
74367SOL    HW124875   5.301   1.239   8.519
74367SOL    HW224876   5.311   1.384   8.562
74368SOL     OW24877   9.934   3.994   0.415
74368SOL    HW124878   9.995   4.059   0.451
74368SOL    HW224879   9.991   3.924   0.381
74369SOL     OW24880   9.540  10.881   6.972
74369SOL    HW124881   9.480  10.807   6.963
74369SOL    HW224882   9.509  10.927   7.050
74370SOL     OW24883  13.331   6.562   7.787
74370SOL    HW124884  13.258   6.501   7.779
74370SOL    HW224885  13.333   6.608   7.702
74371SOL     OW24886   1.755   5.845   4.165
74371SOL    HW124887   1.735   5.773   4.225
74371SOL    HW224888   1.703   5.918   4.197
74372SOL     OW24889  11.072  11.611   1.884
74372SOL    HW124890  11.060  11.631   1.792
74372SOL    HW224891  10.995  11.559   1.908
74373SOL     OW24892  11.742   8.581   5.605
74373SOL    HW124893  11.818   8.523   5.609
74373SOL    HW224894  11.710   8.572   5.515
74374SOL     OW24895  10.831   2.751  11.511
74374SOL    HW124896  10.826   2.666  11.467
74374SOL    HW224897  10.775   2.808  11.459
74375SOL     OW24898   2.735   0.287   7.353
74375SOL    HW124899   2.784   0.337   7.419
74375SOL    HW224900   2.690   0.219   7.403
74376SOL     OW24901   4.279  13.184   8.013
74376SOL    HW124902   4.309  13.143   8.094
74376SOL    HW224903   4.207  13.129   7.983
74377SOL     OW24904   6.766  13.467  14.622
74377SOL    HW124905   6.852  13.449  14.584
74377SOL    HW224906   6.776  13.447  14.715
74378SOL     OW24907  14.516   9.773   8.914
74378SOL    HW124908  14.555   9.696   8.874
74378SOL    HW224909  14.531   9.843   8.851
74379SOL     OW24910   2.153   2.266   6.894
74379SOL    HW124911   2.118   2.178   6.878
74379SOL    HW224912   2.115   2.320   6.824
74380SOL     OW24913   5.364   1.504  14.190
74380SOL    HW124914   5.397   1.431  14.243
74380SOL    HW224915   5.434   1.570  14.196
74381SOL     OW24916   2.069  12.656   1.428
74381SOL    HW124917   2.135  12.657   1.358
74381SOL    HW224918   2.032  12.744   1.427
74382SOL     OW24919   0.950   4.585   6.250
74382SOL    HW124920   0.953   4.680   6.245
74382SOL    HW224921   0.857   4.564   6.245
74383SOL     OW24922   5.399  10.473   6.286
74383SOL    HW124923   5.420  10.442   6.374
74383SOL    HW224924   5.349  10.402   6.247
74384SOL     OW24925   1.419  13.775   0.099
74384SOL    HW124926   1.412  13.865   0.069
74384SOL    HW224927   1.349  13.767   0.165
74385SOL     OW24928  10.520   8.020   7.871
74385SOL    HW124929  10.499   8.010   7.778
74385SOL    HW224930  10.438   8.047   7.911
74386SOL     OW24931  12.356  12.885   5.881
74386SOL    HW124932  12.348  12.881   5.786
74386SOL    HW224933  12.269  12.863   5.914
74387SOL     OW24934   4.435   6.526   6.295
74387SOL    HW124935   4.355   6.554   6.250
74387SOL    HW224936   4.404   6.477   6.371
74388SOL     OW24937  14.328   6.681   6.374
74388SOL    HW124938  14.289   6.667   6.460
74388SOL    HW224939  14.328   6.594   6.333
74389SOL     OW24940   8.847   2.359   6.089
74389SOL    HW124941   8.874   2.435   6.140
74389SOL    HW224942   8.773   2.322   6.139
74390SOL     OW24943   5.215   2.553   6.958
74390SOL    HW124944   5.135   2.605   6.958
74390SOL    HW224945   5.186   2.463   6.952
74391SOL     OW24946  14.381   8.694   4.130
74391SOL    HW124947  14.309   8.754   4.111
74391SOL    HW224948  14.345   8.607   4.109
74392SOL     OW24949   8.993  10.270   8.510
74392SOL    HW124950   9.084  10.239   8.519
74392SOL    HW224951   8.941  10.190   8.506
74393SOL     OW24952  13.233   7.549   9.784
74393SOL    HW124953  13.294   7.618   9.809
74393SOL    HW224954  13.288   7.474   9.763
74394SOL     OW24955  14.496  13.513   3.717
74394SOL    HW124956  14.542  13.464   3.648
74394SOL    HW224957  14.421  13.458   3.739
74395SOL     OW24958   1.958  10.130   8.799
74395SOL    HW124959   1.979  10.187   8.725
74395SOL    HW224960   1.973  10.185   8.876
74396SOL     OW24961   8.134  12.038   4.881
74396SOL    HW124962   8.225  12.066   4.891
74396SOL    HW224963   8.138  11.964   4.820
74397SOL     OW24964   9.688  13.713  13.377
74397SOL    HW124965   9.706  13.808  13.374
74397SOL    HW224966   9.708  13.682  13.288
74398SOL     OW24967   7.958  13.408   8.893
74398SOL    HW124968   7.988  13.499   8.896
74398SOL    HW224969   8.038  13.356   8.883
74399SOL     OW24970   1.469   6.699   7.961
74399SOL    HW124971   1.524   6.764   8.004
74399SOL    HW224972   1.383   6.741   7.954
74400SOL     OW24973   7.844   4.517   8.413
74400SOL    HW124974   7.790   4.438   8.405
74400SOL    HW224975   7.933   4.484   8.429
74401SOL     OW24976   4.491   2.606   6.983
74401SOL    HW124977   4.433   2.548   6.934
74401SOL    HW224978   4.540   2.547   7.041
74402SOL     OW24979  14.586  13.613   2.820
74402SOL    HW124980  14.550  13.600   2.733
74402SOL    HW224981  14.623  13.528   2.844
74403SOL     OW24982   8.795  12.193   6.115
74403SOL    HW124983   8.797  12.282   6.080
74403SOL    HW224984   8.867  12.148   6.070
74404SOL     OW24985  12.146   7.110  12.987
74404SOL    HW124986  12.173   7.201  12.989
74404SOL    HW224987  12.121   7.090  13.078
74405SOL     OW24988   3.501   9.592   4.214
74405SOL    HW124989   3.535   9.629   4.296
74405SOL    HW224990   3.580   9.572   4.163
74406SOL     OW24991   5.645   4.783   7.007
74406SOL    HW124992   5.605   4.849   6.951
74406SOL    HW224993   5.738   4.784   6.983
74407SOL     OW24994   8.764  12.471   8.043
74407SOL    HW124995   8.699  12.537   8.065
74407SOL    HW224996   8.843  12.522   8.022
74408SOL     OW24997  14.288  11.479   9.041
74408SOL    HW124998  14.347  11.448   9.110
74408SOL    HW224999  14.209  11.505   9.087
74409SOL     OW25000   4.083   8.394  10.976
74409SOL    HW125001   4.065   8.353  10.891
74409SOL    HW225002   4.023   8.469  10.979
74410SOL     OW25003  11.504   7.761   9.794
74410SOL    HW125004  11.551   7.791   9.717
74410SOL    HW225005  11.567   7.708   9.842
74411SOL     OW25006  11.285   7.388   4.212
74411SOL    HW125007  11.353   7.354   4.270
74411SOL    HW225008  11.235   7.310   4.187
74412SOL     OW25009  11.008  12.051   3.217
74412SOL    HW125010  11.097  12.017   3.212
74412SOL    HW225011  10.995  12.067   3.311
74413SOL     OW25012  14.697   3.665   7.695
74413SOL    HW125013  14.667   3.687   7.783
74413SOL    HW225014  14.760   3.594   7.708
74414SOL     OW25015  10.978   0.860   9.789
74414SOL    HW125016  11.017   0.885   9.872
74414SOL    HW225017  10.951   0.769   9.800
74415SOL     OW25018   3.939   1.302   3.078
74415SOL    HW125019   3.934   1.282   3.172
74415SOL    HW225020   4.022   1.346   3.067
74416SOL     OW25021  12.055  13.756   0.161
74416SOL    HW125022  11.982  13.708   0.201
74416SOL    HW225023  12.026  13.775   0.072
74417SOL     OW25024   0.730  13.379   3.427
74417SOL    HW125025   0.797  13.403   3.490
74417SOL    HW225026   0.745  13.285   3.411
74418SOL     OW25027   0.401   4.656  13.524
74418SOL    HW125028   0.450   4.724  13.569
74418SOL    HW225029   0.399   4.583  13.585
74419SOL     OW25030  13.705   1.479   3.349
74419SOL    HW125031  13.758   1.559   3.359
74419SOL    HW225032  13.619   1.503   3.384
74420SOL     OW25033   2.434   1.832   1.412
74420SOL    HW125034   2.457   1.766   1.477
74420SOL    HW225035   2.347   1.805   1.381
74421SOL     OW25036  11.530  13.505   1.275
74421SOL    HW125037  11.472  13.552   1.335
74421SOL    HW225038  11.575  13.442   1.330
74422SOL     OW25039  10.379   9.529   7.384
74422SOL    HW125040  10.474   9.534   7.395
74422SOL    HW225041  10.367   9.502   7.293
74423SOL     OW25042   0.949  11.654  12.074
74423SOL    HW125043   0.944  11.648  12.169
74423SOL    HW225044   1.031  11.609  12.051
74424SOL     OW25045   8.328   3.694   6.549
74424SOL    HW125046   8.272   3.729   6.479
74424SOL    HW225047   8.387   3.766   6.570
74425SOL     OW25048   1.387   0.823   7.074
74425SOL    HW125049   1.333   0.755   7.116
74425SOL    HW225050   1.418   0.877   7.147
74426SOL     OW25051   2.736  12.490   9.595
74426SOL    HW125052   2.643  12.500   9.572
74426SOL    HW225053   2.738  12.499   9.690
74427SOL     OW25054   7.402  14.598   1.395
74427SOL    HW125055   7.357  14.561   1.471
74427SOL    HW225056   7.339  14.658   1.357
74428SOL     OW25057  10.650  12.035   9.708
74428SOL    HW125058  10.562  12.000   9.720
74428SOL    HW225059  10.691  12.025   9.794
74429SOL     OW25060  12.712  14.500   8.251
74429SOL    HW125061  12.700  14.405   8.240
74429SOL    HW225062  12.736  14.531   8.163
74430SOL     OW25063   7.569   2.740   6.643
74430SOL    HW125064   7.549   2.752   6.736
74430SOL    HW225065   7.664   2.752   6.637
74431SOL     OW25066   9.448   7.911   9.488
74431SOL    HW125067   9.370   7.858   9.469
74431SOL    HW225068   9.494   7.863   9.557
74432SOL     OW25069   5.269   5.171   0.751
74432SOL    HW125070   5.197   5.119   0.715
74432SOL    HW225071   5.252   5.175   0.845
74433SOL     OW25072  11.130   7.091   1.481
74433SOL    HW125073  11.138   7.006   1.438
74433SOL    HW225074  11.060   7.079   1.545
74434SOL     OW25075  13.372   8.009   8.625
74434SOL    HW125076  13.381   8.028   8.532
74434SOL    HW225077  13.438   7.941   8.642
74435SOL     OW25078  12.381  14.729   7.946
74435SOL    HW125079  12.411  14.642   7.970
74435SOL    HW225080  12.368  14.774   8.029
74436SOL     OW25081  11.447   6.698  13.060
74436SOL    HW125082  11.424   6.774  13.006
74436SOL    HW225083  11.481   6.634  12.997
74437SOL     OW25084   7.808   5.310  12.492
74437SOL    HW125085   7.885   5.275  12.446
74437SOL    HW225086   7.843   5.382  12.544
74438SOL     OW25087   6.385   7.451  10.198
74438SOL    HW125088   6.355   7.376  10.250
74438SOL    HW225089   6.389   7.523  10.260
74439SOL     OW25090   0.378   8.692   4.089
74439SOL    HW125091   0.400   8.674   3.997
74439SOL    HW225092   0.451   8.744   4.122
74440SOL     OW25093  10.550   4.844  13.018
74440SOL    HW125094  10.541   4.840  12.923
74440SOL    HW225095  10.639   4.812  13.034
74441SOL     OW25096   3.787   7.311  12.853
74441SOL    HW125097   3.772   7.314  12.758
74441SOL    HW225098   3.727   7.244  12.884
74442SOL     OW25099   5.324  13.714  12.234
74442SOL    HW125100   5.314  13.742  12.325
74442SOL    HW225101   5.241  13.673  12.212
74443SOL     OW25102   9.963   2.655   7.044
74443SOL    HW125103   9.968   2.667   7.138
74443SOL    HW225104   9.889   2.709   7.016
74444SOL     OW25105   2.983   5.361   6.809
74444SOL    HW125106   3.024   5.303   6.872
74444SOL    HW225107   2.940   5.302   6.747
74445SOL     OW25108   9.259   2.577  11.733
74445SOL    HW125109   9.177   2.540  11.767
74445SOL    HW225110   9.300   2.506  11.685
74446SOL     OW25111   9.808   6.998   2.520
74446SOL    HW125112   9.737   7.038   2.470
74446SOL    HW225113   9.810   7.046   2.603
74447SOL     OW25114   1.884   1.953   6.487
74447SOL    HW125115   1.863   1.961   6.580
74447SOL    HW225116   1.920   1.865   6.478
74448SOL     OW25117   0.358   5.973  10.892
74448SOL    HW125118   0.318   6.061  10.895
74448SOL    HW225119   0.309   5.923  10.957
74449SOL     OW25120   9.187   6.045   0.440
74449SOL    HW125121   9.268   6.000   0.466
74449SOL    HW225122   9.186   6.125   0.492
74450SOL     OW25123   3.341   1.459   9.326
74450SOL    HW125124   3.407   1.461   9.256
74450SOL    HW225125   3.258   1.445   9.280
74451SOL     OW25126   6.881   8.109   5.329
74451SOL    HW125127   6.811   8.154   5.282
74451SOL    HW225128   6.845   8.022   5.348
74452SOL     OW25129   4.170   5.752   9.755
74452SOL    HW125130   4.118   5.816   9.805
74452SOL    HW225131   4.245   5.734   9.811
74453SOL     OW25132   0.063  10.190   9.976
74453SOL    HW125133   0.051  10.281   9.947
74453SOL    HW225134  14.868  10.144   9.941
74454SOL     OW25135  13.560   0.658  13.059
74454SOL    HW125136  13.511   0.703  12.990
74454SOL    HW225137  13.615   0.595  13.012
74455SOL     OW25138  12.368   3.279   8.912
74455SOL    HW125139  12.316   3.217   8.861
74455SOL    HW225140  12.443   3.227   8.943
74456SOL     OW25141   4.370   0.406   1.957
74456SOL    HW125142   4.416   0.328   1.927
74456SOL    HW225143   4.342   0.450   1.877
74457SOL     OW25144   8.388  14.276   7.196
74457SOL    HW125145   8.321  14.233   7.249
74457SOL    HW225146   8.442  14.205   7.163
74458SOL     OW25147   6.310   0.640  13.395
74458SOL    HW125148   6.246   0.711  13.397
74458SOL    HW225149   6.379   0.671  13.337
74459SOL     OW25150  14.658  13.415   6.179
74459SOL    HW125151  14.586  13.373   6.226
74459SOL    HW225152  14.683  13.490   6.234
74460SOL     OW25153   1.598   7.839  13.012
74460SOL    HW125154   1.692   7.819  13.004
74460SOL    HW225155   1.561   7.813  12.928
74461SOL     OW25156   8.123   8.917  13.623
74461SOL    HW125157   8.182   8.962  13.562
74461SOL    HW225158   8.056   8.878  13.567
74462SOL     OW25159   1.935   8.754   6.701
74462SOL    HW125160   1.934   8.735   6.607
74462SOL    HW225161   2.026   8.738   6.727
74463SOL     OW25162   7.675  12.733  14.219
74463SOL    HW125163   7.747  12.797  14.221
74463SOL    HW225164   7.600  12.783  14.188
74464SOL     OW25165   2.282   8.362   5.255
74464SOL    HW125166   2.241   8.304   5.190
74464SOL    HW225167   2.230   8.442   5.251
74465SOL     OW25168   8.046   5.911  11.961
74465SOL    HW125169   7.991   5.848  12.007
74465SOL    HW225170   8.076   5.865  11.883
74466SOL     OW25171  13.366  11.578   3.796
74466SOL    HW125172  13.271  11.589   3.792
74466SOL    HW225173  13.378  11.500   3.851
74467SOL     OW25174   2.972   8.248   7.481
74467SOL    HW125175   2.976   8.215   7.391
74467SOL    HW225176   2.878   8.251   7.502
74468SOL     OW25177   7.083   6.597   5.244
74468SOL    HW125178   7.024   6.544   5.191
74468SOL    HW225179   7.135   6.533   5.293
74469SOL     OW25180   5.385   6.506   9.966
74469SOL    HW125181   5.419   6.542   9.884
74469SOL    HW225182   5.387   6.580  10.027
74470SOL     OW25183  10.103  13.353  10.020
74470SOL    HW125184  10.092  13.303  10.101
74470SOL    HW225185  10.084  13.290   9.951
74471SOL     OW25186   5.302   2.003   9.101
74471SOL    HW125187   5.292   1.997   9.006
74471SOL    HW225188   5.218   2.037   9.131
74472SOL     OW25189  13.006  11.582  13.594
74472SOL    HW125190  12.931  11.571  13.652
74472SOL    HW225191  12.972  11.629  13.518
74473SOL     OW25192   0.206   2.825  12.282
74473SOL    HW125193   0.112   2.807  12.283
74473SOL    HW225194   0.216   2.905  12.334
74474SOL     OW25195  13.649  10.954  14.619
74474SOL    HW125196  13.737  10.988  14.604
74474SOL    HW225197  13.663  10.869  14.661
74475SOL     OW25198  10.323  11.318   5.863
74475SOL    HW125199  10.351  11.228   5.843
74475SOL    HW225200  10.404  11.369   5.862
74476SOL     OW25201  11.087   1.468   0.978
74476SOL    HW125202  11.011   1.433   1.024
74476SOL    HW225203  11.072   1.448   0.886
74477SOL     OW25204  13.321   1.115   5.588
74477SOL    HW125205  13.255   1.072   5.644
74477SOL    HW225206  13.384   1.046   5.568
74478SOL     OW25207   9.891  10.927  10.791
74478SOL    HW125208   9.817  10.918  10.852
74478SOL    HW225209   9.851  10.927  10.704
74479SOL     OW25210  13.216   9.653  11.634
74479SOL    HW125211  13.234   9.560  11.647
74479SOL    HW225212  13.259   9.675  11.552
74480SOL     OW25213   8.459   2.446  14.379
74480SOL    HW125214   8.410   2.365  14.367
74480SOL    HW225215   8.432   2.502  14.306
74481SOL     OW25216   0.195   8.373  14.184
74481SOL    HW125217   0.280   8.360  14.225
74481SOL    HW225218   0.197   8.316  14.107
74482SOL     OW25219   6.118   2.292  12.333
74482SOL    HW125220   6.108   2.262  12.242
74482SOL    HW225221   6.173   2.370  12.326
74483SOL     OW25222   3.017   3.984   0.218
74483SOL    HW125223   3.089   3.933   0.256
74483SOL    HW225224   2.954   3.994   0.290
74484SOL     OW25225   4.687  13.432   2.403
74484SOL    HW125226   4.628  13.445   2.330
74484SOL    HW225227   4.752  13.501   2.394
74485SOL     OW25228   4.754   3.782   3.750
74485SOL    HW125229   4.796   3.696   3.742
74485SOL    HW225230   4.726   3.786   3.841
74486SOL     OW25231  10.588  12.561   5.849
74486SOL    HW125232  10.529  12.492   5.819
74486SOL    HW225233  10.596  12.621   5.775
74487SOL     OW25234   4.786  12.427   6.267
74487SOL    HW125235   4.797  12.457   6.357
74487SOL    HW225236   4.830  12.493   6.214
74488SOL     OW25237   3.003  12.700  12.254
74488SOL    HW125238   3.085  12.731  12.217
74488SOL    HW225239   2.989  12.756  12.331
74489SOL     OW25240   5.726  12.792  14.178
74489SOL    HW125241   5.682  12.837  14.106
74489SOL    HW225242   5.783  12.728  14.135
74490SOL     OW25243   4.277  13.673   0.813
74490SOL    HW125244   4.357  13.720   0.834
74490SOL    HW225245   4.225  13.676   0.894
74491SOL     OW25246  14.758   2.538  13.578
74491SOL    HW125247  14.681   2.500  13.535
74491SOL    HW225248  14.750   2.632  13.563
74492SOL     OW25249  10.717   0.389   5.290
74492SOL    HW125250  10.645   0.334   5.261
74492SOL    HW225251  10.694   0.415   5.379
74493SOL     OW25252  13.310   9.122   7.851
74493SOL    HW125253  13.248   9.195   7.849
74493SOL    HW225254  13.321   9.102   7.944
74494SOL     OW25255  11.291  14.137   9.909
74494SOL    HW125256  11.227  14.124   9.839
74494SOL    HW225257  11.364  14.079   9.886
74495SOL     OW25258  14.492   1.974   3.787
74495SOL    HW125259  14.581   1.967   3.821
74495SOL    HW225260  14.439   2.005   3.861
74496SOL     OW25261   1.326  14.025  14.843
74496SOL    HW125262   1.373  14.109  14.847
74496SOL    HW225263   1.234  14.049  14.832
74497SOL     OW25264  14.645   5.232  14.727
74497SOL    HW125265  14.650   5.193  14.814
74497SOL    HW225266  14.670   5.323  14.741
74498SOL     OW25267  14.657  10.495  13.268
74498SOL    HW125268  14.615  10.578  13.247
74498SOL    HW225269  14.729  10.518  13.327
74499SOL     OW25270   3.542  14.234  13.797
74499SOL    HW125271   3.517  14.326  13.799
74499SOL    HW225272   3.620  14.231  13.740
74500SOL     OW25273   9.201   4.998   4.724
74500SOL    HW125274   9.228   4.979   4.814
74500SOL    HW225275   9.233   5.087   4.707
74501SOL     OW25276   6.508   9.333  12.047
74501SOL    HW125277   6.490   9.420  12.081
74501SOL    HW225278   6.429   9.282  12.066
74502SOL     OW25279   4.887  10.704   9.944
74502SOL    HW125280   4.969  10.751   9.959
74502SOL    HW225281   4.889  10.631  10.006
74503SOL     OW25282   3.849   7.348   0.445
74503SOL    HW125283   3.932   7.328   0.401
74503SOL    HW225284   3.875   7.379   0.532
74504SOL     OW25285   7.556   8.047   5.450
74504SOL    HW125286   7.591   7.960   5.435
74504SOL    HW225287   7.503   8.066   5.372
74505SOL     OW25288   9.197  13.395  10.007
74505SOL    HW125289   9.188  13.427  10.097
74505SOL    HW225290   9.166  13.468   9.953
74506SOL     OW25291  11.523  12.115   8.845
74506SOL    HW125292  11.617  12.129   8.839
74506SOL    HW225293  11.485  12.202   8.851
74507SOL     OW25294   1.016   0.582   2.456
74507SOL    HW125295   1.027   0.659   2.400
74507SOL    HW225296   0.922   0.563   2.454
74508SOL     OW25297   5.857   4.727   0.388
74508SOL    HW125298   5.865   4.697   0.298
74508SOL    HW225299   5.911   4.667   0.439
74509SOL     OW25300  14.864  14.367   4.357
74509SOL    HW125301  14.803  14.427   4.314
74509SOL    HW225302  14.812  14.324   4.425
74510SOL     OW25303  10.969   0.860   0.739
74510SOL    HW125304  11.008   0.793   0.796
74510SOL    HW225305  11.006   0.942   0.771
74511SOL     OW25306   9.270  12.720   5.634
74511SOL    HW125307   9.220  12.681   5.562
74511SOL    HW225308   9.203  12.753   5.694
74512SOL     OW25309   5.407  14.284   8.084
74512SOL    HW125310   5.460  14.224   8.032
74512SOL    HW225311   5.457  14.297   8.165
74513SOL     OW25312  10.161   0.446   3.031
74513SOL    HW125313  10.162   0.521   2.971
74513SOL    HW225314  10.103   0.472   3.102
74514SOL     OW25315   4.257   7.486   4.999
74514SOL    HW125316   4.344   7.524   4.995
74514SOL    HW225317   4.269   7.396   4.969
74515SOL     OW25318  14.214  14.059   0.918
74515SOL    HW125319  14.142  14.104   0.962
74515SOL    HW225320  14.171  13.993   0.864
74516SOL     OW25321   8.866   1.011   2.448
74516SOL    HW125322   8.818   0.929   2.459
74516SOL    HW225323   8.814   1.076   2.496
74517SOL     OW25324  11.998   5.397  14.603
74517SOL    HW125325  11.959   5.453  14.670
74517SOL    HW225326  12.017   5.315  14.648
74518SOL     OW25327   4.191   6.084  11.390
74518SOL    HW125328   4.237   6.062  11.310
74518SOL    HW225329   4.121   6.019  11.397
74519SOL     OW25330   1.981   6.764   2.124
74519SOL    HW125331   1.916   6.731   2.185
74519SOL    HW225332   1.933   6.825   2.068
74520SOL     OW25333   2.748  10.225  14.050
74520SOL    HW125334   2.731  10.287  14.121
74520SOL    HW225335   2.672  10.233  13.993
74521SOL     OW25336   4.341   3.243   3.834
74521SOL    HW125337   4.372   3.190   3.908
74521SOL    HW225338   4.277   3.303   3.873
74522SOL     OW25339   2.390   8.478  11.350
74522SOL    HW125340   2.352   8.402  11.307
74522SOL    HW225341   2.459   8.443  11.407
74523SOL     OW25342   2.307   2.995  10.871
74523SOL    HW125343   2.263   2.957  10.796
74523SOL    HW225344   2.309   3.089  10.853
74524SOL     OW25345  13.239   6.439   0.116
74524SOL    HW125346  13.264   6.411   0.204
74524SOL    HW225347  13.290   6.383   0.058
74525SOL     OW25348  12.264   5.545  14.655
74525SOL    HW125349  12.203   5.497  14.598
74525SOL    HW225350  12.282   5.626  14.608
74526SOL     OW25351  12.811  10.275   3.542
74526SOL    HW125352  12.730  10.263   3.591
74526SOL    HW225353  12.864  10.331   3.599
74527SOL     OW25354   0.423  12.421   9.967
74527SOL    HW125355   0.412  12.393   9.877
74527SOL    HW225356   0.458  12.344  10.012
74528SOL     OW25357   4.896   7.476   4.109
74528SOL    HW125358   4.964   7.410   4.101
74528SOL    HW225359   4.814   7.426   4.110
74529SOL     OW25360   3.126   4.901   3.048
74529SOL    HW125361   3.151   4.820   3.091
74529SOL    HW225362   3.187   4.909   2.975
74530SOL     OW25363   1.897   3.309   6.386
74530SOL    HW125364   1.802   3.307   6.402
74530SOL    HW225365   1.905   3.338   6.295
74531SOL     OW25366  11.153   6.816   1.428
74531SOL    HW125367  11.076   6.812   1.484
74531SOL    HW225368  11.160   6.727   1.391
74532SOL     OW25369  14.535  14.035  11.251
74532SOL    HW125370  14.481  14.085  11.190
74532SOL    HW225371  14.509  14.066  11.338
74533SOL     OW25372   5.866   0.118  13.654
74533SOL    HW125373   5.912   0.081  13.729
74533SOL    HW225374   5.871   0.051  13.586
74534SOL     OW25375   1.575   7.508   6.062
74534SOL    HW125376   1.553   7.600   6.051
74534SOL    HW225377   1.596   7.477   5.974
74535SOL     OW25378  14.351   3.388   9.548
74535SOL    HW125379  14.410   3.313   9.539
74535SOL    HW225380  14.299   3.388   9.468
74536SOL     OW25381  13.114   4.245   5.848
74536SOL    HW125382  13.204   4.237   5.879
74536SOL    HW225383  13.063   4.187   5.904
74537SOL     OW25384   8.458   3.751   4.263
74537SOL    HW125385   8.383   3.786   4.215
74537SOL    HW225386   8.423   3.725   4.348
74538SOL     OW25387  12.683  10.966   7.981
74538SOL    HW125388  12.684  11.061   7.974
74538SOL    HW225389  12.766  10.938   7.943
74539SOL     OW25390  12.539   7.156   0.899
74539SOL    HW125391  12.445   7.149   0.880
74539SOL    HW225392  12.543   7.174   0.993
74540SOL     OW25393   0.417   7.535   5.886
74540SOL    HW125394   0.490   7.492   5.843
74540SOL    HW225395   0.365   7.572   5.815
74541SOL     OW25396   4.156  12.400   8.682
74541SOL    HW125397   4.139  12.404   8.776
74541SOL    HW225398   4.150  12.307   8.660
74542SOL     OW25399  11.463  12.088  12.952
74542SOL    HW125400  11.418  12.008  12.925
74542SOL    HW225401  11.402  12.130  13.013
74543SOL     OW25402   0.317   2.867   0.645
74543SOL    HW125403   0.363   2.887   0.726
74543SOL    HW225404   0.228   2.845   0.672
74544SOL     OW25405   6.091   1.877   4.151
74544SOL    HW125406   6.168   1.822   4.143
74544SOL    HW225407   6.122   1.966   4.134
74545SOL     OW25408  11.939  10.368   3.177
74545SOL    HW125409  11.854  10.379   3.220
74545SOL    HW225410  11.957  10.454   3.138
74546SOL     OW25411   3.465   7.973   0.194
74546SOL    HW125412   3.417   7.936   0.268
74546SOL    HW225413   3.398   7.994   0.129
74547SOL     OW25414   2.248   5.610   8.461
74547SOL    HW125415   2.230   5.624   8.554
74547SOL    HW225416   2.162   5.612   8.420
74548SOL     OW25417   8.772   2.333  13.186
74548SOL    HW125418   8.710   2.290  13.245
74548SOL    HW225419   8.742   2.424  13.183
74549SOL     OW25420  13.253   7.644   6.105
74549SOL    HW125421  13.189   7.714   6.098
74549SOL    HW225422  13.323   7.682   6.159
74550SOL     OW25423   0.794   9.225   1.906
74550SOL    HW125424   0.789   9.307   1.857
74550SOL    HW225425   0.865   9.239   1.968
74551SOL     OW25426   0.151  14.613   4.111
74551SOL    HW125427   0.166  14.651   4.025
74551SOL    HW225428   0.175  14.521   4.101
74552SOL     OW25429   7.867   3.699   9.340
74552SOL    HW125430   7.935   3.633   9.351
74552SOL    HW225431   7.913   3.775   9.304
74553SOL     OW25432   1.988   4.161   5.222
74553SOL    HW125433   1.979   4.096   5.291
74553SOL    HW225434   2.076   4.147   5.187
74554SOL     OW25435   5.839   7.597  12.250
74554SOL    HW125436   5.850   7.571  12.159
74554SOL    HW225437   5.805   7.518  12.293
74555SOL     OW25438   2.462   6.942  14.563
74555SOL    HW125439   2.536   6.974  14.511
74555SOL    HW225440   2.423   6.872  14.511
74556SOL     OW25441   3.040   7.667   1.764
74556SOL    HW125442   3.095   7.743   1.780
74556SOL    HW225443   3.033   7.662   1.669
74557SOL     OW25444   2.870  10.513   5.672
74557SOL    HW125445   2.819  10.590   5.648
74557SOL    HW225446   2.853  10.502   5.766
74558SOL     OW25447   9.511  11.856   0.364
74558SOL    HW125448   9.543  11.938   0.401
74558SOL    HW225449   9.418  11.873   0.345
74559SOL     OW25450   6.857  11.049   0.946
74559SOL    HW125451   6.932  11.109   0.942
74559SOL    HW225452   6.866  11.006   1.031
74560SOL     OW25453   2.807   0.888   5.524
74560SOL    HW125454   2.825   0.924   5.610
74560SOL    HW225455   2.742   0.947   5.486
74561SOL     OW25456  11.239   1.402   6.390
74561SOL    HW125457  11.310   1.461   6.363
74561SOL    HW225458  11.202   1.443   6.468
74562SOL     OW25459   2.524   4.591   9.756
74562SOL    HW125460   2.579   4.515   9.737
74562SOL    HW225461   2.469   4.564   9.829
74563SOL     OW25462  12.162  13.640   5.500
74563SOL    HW125463  12.192  13.686   5.422
74563SOL    HW225464  12.066  13.639   5.492
74564SOL     OW25465  13.966  13.437   3.851
74564SOL    HW125466  13.961  13.434   3.756
74564SOL    HW225467  13.927  13.521   3.875
74565SOL     OW25468   5.231   7.600  10.080
74565SOL    HW125469   5.314   7.554  10.090
74565SOL    HW225470   5.187   7.589  10.164
74566SOL     OW25471   5.184   5.668   7.376
74566SOL    HW125472   5.158   5.699   7.463
74566SOL    HW225473   5.272   5.632   7.388
74567SOL     OW25474  10.482   6.342   0.518
74567SOL    HW125475  10.473   6.324   0.424
74567SOL    HW225476  10.485   6.437   0.524
74568SOL     OW25477   9.349   2.668  14.066
74568SOL    HW125478   9.359   2.575  14.049
74568SOL    HW225479   9.439   2.701  14.071
74569SOL     OW25480   4.555   7.719   5.916
74569SOL    HW125481   4.511   7.800   5.943
74569SOL    HW225482   4.524   7.653   5.977
74570SOL     OW25483   0.454  13.011   1.062
74570SOL    HW125484   0.549  13.005   1.056
74570SOL    HW225485   0.428  12.933   1.111
74571SOL     OW25486  11.641   1.201   1.793
74571SOL    HW125487  11.735   1.212   1.779
74571SOL    HW225488  11.600   1.261   1.731
74572SOL     OW25489  13.227   7.389   0.780
74572SOL    HW125490  13.157   7.341   0.824
74572SOL    HW225491  13.192   7.478   0.771
74573SOL     OW25492   5.997  11.563   9.916
74573SOL    HW125493   5.929  11.607   9.865
74573SOL    HW225494   5.959  11.554  10.004
74574SOL     OW25495  12.731   9.874   8.282
74574SOL    HW125496  12.720   9.926   8.362
74574SOL    HW225497  12.740   9.939   8.213
74575SOL     OW25498   2.149   8.970   4.425
74575SOL    HW125499   2.204   8.982   4.347
74575SOL    HW225500   2.110   9.056   4.440
74576SOL     OW25501   9.735  14.522   5.700
74576SOL    HW125502   9.809  14.468   5.673
74576SOL    HW225503   9.658  14.466   5.686
74577SOL     OW25504  10.323  12.643   7.826
74577SOL    HW125505  10.239  12.635   7.780
74577SOL    HW225506  10.311  12.718   7.884
74578SOL     OW25507   4.190   8.123   9.603
74578SOL    HW125508   4.284   8.140   9.613
74578SOL    HW225509   4.149   8.172   9.674
74579SOL     OW25510  12.411   5.713  10.365
74579SOL    HW125511  12.404   5.723  10.460
74579SOL    HW225512  12.320   5.704  10.335
74580SOL     OW25513  10.190   1.415   2.698
74580SOL    HW125514  10.235   1.344   2.652
74580SOL    HW225515  10.098   1.403   2.677
74581SOL     OW25516   4.461   4.131  12.275
74581SOL    HW125517   4.451   4.105  12.183
74581SOL    HW225518   4.424   4.220  12.278
74582SOL     OW25519   2.873  10.753  13.995
74582SOL    HW125520   2.929  10.762  14.072
74582SOL    HW225521   2.906  10.675  13.950
74583SOL     OW25522   0.952   7.197   8.678
74583SOL    HW125523   0.971   7.273   8.732
74583SOL    HW225524   1.013   7.203   8.604
74584SOL     OW25525   0.819   1.894   4.140
74584SOL    HW125526   0.803   1.875   4.047
74584SOL    HW225527   0.910   1.925   4.142
74585SOL     OW25528  13.302  11.597   9.381
74585SOL    HW125529  13.275  11.672   9.434
74585SOL    HW225530  13.277  11.521   9.432
74586SOL     OW25531  13.774   8.524  13.319
74586SOL    HW125532  13.812   8.445  13.282
74586SOL    HW225533  13.687   8.498  13.350
74587SOL     OW25534   9.326   6.804   6.085
74587SOL    HW125535   9.356   6.894   6.087
74587SOL    HW225536   9.394   6.757   6.036
74588SOL     OW25537  10.074  13.757   6.926
74588SOL    HW125538   9.994  13.705   6.932
74588SOL    HW225539  10.090  13.766   6.832
74589SOL     OW25540   8.549   6.091   4.570
74589SOL    HW125541   8.558   6.181   4.539
74589SOL    HW225542   8.619   6.043   4.526
74590SOL     OW25543   4.319   8.475   7.395
74590SOL    HW125544   4.335   8.556   7.346
74590SOL    HW225545   4.366   8.408   7.345
74591SOL     OW25546   2.611   1.488   2.610
74591SOL    HW125547   2.668   1.462   2.682
74591SOL    HW225548   2.655   1.562   2.569
74592SOL     OW25549  11.437   0.276   9.559
74592SOL    HW125550  11.490   0.313   9.487
74592SOL    HW225551  11.369   0.342   9.574
74593SOL     OW25552   0.600   3.977  12.325
74593SOL    HW125553   0.526   4.000  12.268
74593SOL    HW225554   0.675   3.973  12.266
74594SOL     OW25555  14.060   2.651  12.696
74594SOL    HW125556  14.081   2.582  12.759
74594SOL    HW225557  14.109   2.627  12.617
74595SOL     OW25558   3.728   6.353  14.398
74595SOL    HW125559   3.724   6.434  14.450
74595SOL    HW225560   3.788   6.296  14.446
74596SOL     OW25561  11.508  13.446   3.825
74596SOL    HW125562  11.467  13.474   3.744
74596SOL    HW225563  11.533  13.355   3.809
74597SOL     OW25564   0.233   5.050   0.190
74597SOL    HW125565   0.269   5.133   0.158
74597SOL    HW225566   0.184   5.015   0.116
74598SOL     OW25567   0.864   2.758   6.621
74598SOL    HW125568   0.770   2.758   6.634
74598SOL    HW225569   0.896   2.825   6.682
74599SOL     OW25570   8.116  12.273   7.932
74599SOL    HW125571   8.042  12.247   7.987
74599SOL    HW225572   8.096  12.362   7.904
74600SOL     OW25573   6.186   7.132   8.537
74600SOL    HW125574   6.132   7.097   8.466
74600SOL    HW225575   6.169   7.227   8.535
74601SOL     OW25576   5.687   5.547   9.833
74601SOL    HW125577   5.697   5.559   9.927
74601SOL    HW225578   5.726   5.462   9.814
74602SOL     OW25579  11.394   9.319  11.147
74602SOL    HW125580  11.482   9.286  11.132
74602SOL    HW225581  11.397   9.411  11.120
74603SOL     OW25582  11.388   5.796  12.325
74603SOL    HW125583  11.460   5.753  12.371
74603SOL    HW225584  11.351   5.857  12.389
74604SOL     OW25585   4.978   2.509   5.210
74604SOL    HW125586   4.922   2.585   5.226
74604SOL    HW225587   5.025   2.496   5.293
74605SOL     OW25588   8.734  14.615  10.722
74605SOL    HW125589   8.776  14.533  10.750
74605SOL    HW225590   8.732  14.669  10.801
74606SOL     OW25591   0.331   8.210  10.052
74606SOL    HW125592   0.254   8.155  10.064
74606SOL    HW225593   0.364   8.187   9.965
74607SOL     OW25594   1.617   6.240  12.401
74607SOL    HW125595   1.588   6.299  12.332
74607SOL    HW225596   1.678   6.180  12.358
74608SOL     OW25597  11.360  12.622   8.855
74608SOL    HW125598  11.336  12.607   8.946
74608SOL    HW225599  11.338  12.713   8.839
74609SOL     OW25600  12.224  13.919   2.533
74609SOL    HW125601  12.210  14.010   2.508
74609SOL    HW225602  12.188  13.869   2.460
74610SOL     OW25603   6.276   7.737   1.512
74610SOL    HW125604   6.312   7.825   1.514
74610SOL    HW225605   6.208   7.737   1.579
74611SOL     OW25606   3.954  11.163   3.134
74611SOL    HW125607   4.016  11.208   3.077
74611SOL    HW225608   3.975  11.194   3.222
74612SOL     OW25609   3.685  11.453   6.681
74612SOL    HW125610   3.593  11.481   6.689
74612SOL    HW225611   3.733  11.511   6.739
74613SOL     OW25612  10.112   9.935   1.420
74613SOL    HW125613  10.044   9.874   1.391
74613SOL    HW225614  10.118  10.000   1.350
74614SOL     OW25615  11.431  11.439  11.877
74614SOL    HW125616  11.474  11.362  11.915
74614SOL    HW225617  11.501  11.504  11.872
74615SOL     OW25618   7.086   3.686   3.454
74615SOL    HW125619   7.130   3.768   3.428
74615SOL    HW225620   7.026   3.668   3.382
74616SOL     OW25621   5.085   4.300  13.407
74616SOL    HW125622   5.010   4.348  13.373
74616SOL    HW225623   5.048   4.220  13.444
74617SOL     OW25624   1.026   0.104   3.981
74617SOL    HW125625   1.073   0.034   4.025
74617SOL    HW225626   0.993   0.064   3.900
74618SOL     OW25627   7.380  11.161   3.784
74618SOL    HW125628   7.435  11.210   3.845
74618SOL    HW225629   7.290  11.187   3.806
74619SOL     OW25630  13.142  14.454  14.826
74619SOL    HW125631  13.210  14.509  14.787
74619SOL    HW225632  13.084  14.431  14.753
74620SOL     OW25633   2.347  14.301  11.475
74620SOL    HW125634   2.256  14.299  11.447
74620SOL    HW225635   2.376  14.390  11.456
74621SOL     OW25636  13.034   4.449   8.953
74621SOL    HW125637  13.004   4.439   9.043
74621SOL    HW225638  12.960   4.422   8.899
74622SOL     OW25639  13.599   2.117   0.527
74622SOL    HW125640  13.666   2.139   0.592
74622SOL    HW225641  13.522   2.094   0.579
74623SOL     OW25642   0.240   2.463   7.239
74623SOL    HW125643   0.205   2.455   7.151
74623SOL    HW225644   0.166   2.444   7.297
74624SOL     OW25645   5.875   5.750   0.025
74624SOL    HW125646   5.888   5.844   0.013
74624SOL    HW225647   5.848   5.719  14.820
74625SOL     OW25648   8.553  10.045   9.786
74625SOL    HW125649   8.462  10.042   9.754
74625SOL    HW225650   8.554   9.986   9.861
74626SOL     OW25651   5.896   7.598   6.254
74626SOL    HW125652   5.850   7.525   6.295
74626SOL    HW225653   5.830   7.667   6.248
74627SOL     OW25654  13.462   0.172  13.305
74627SOL    HW125655  13.550   0.151  13.338
74627SOL    HW225656  13.448   0.263  13.332
74628SOL     OW25657  11.952  13.854   6.846
74628SOL    HW125658  11.900  13.793   6.794
74628SOL    HW225659  12.012  13.798   6.896
74629SOL     OW25660   0.019   5.179  14.629
74629SOL    HW125661   0.037   5.113  14.562
74629SOL    HW225662  14.808   5.167  14.650
74630SOL     OW25663   9.943   9.055   9.501
74630SOL    HW125664  10.011   9.068   9.566
74630SOL    HW225665   9.902   9.141   9.492
74631SOL     OW25666   3.162  11.142   4.309
74631SOL    HW125667   3.249  11.165   4.276
74631SOL    HW225668   3.112  11.122   4.230
74632SOL     OW25669   0.631  11.823   0.528
74632SOL    HW125670   0.546  11.796   0.562
74632SOL    HW225671   0.694  11.764   0.571
74633SOL     OW25672  13.649   8.920   1.885
74633SOL    HW125673  13.575   8.935   1.944
74633SOL    HW225674  13.705   8.996   1.896
74634SOL     OW25675   5.994  10.795   4.449
74634SOL    HW125676   5.974  10.848   4.526
74634SOL    HW225677   6.087  10.775   4.457
74635SOL     OW25678   9.362   2.123   3.357
74635SOL    HW125679   9.321   2.037   3.344
74635SOL    HW225680   9.363   2.135   3.452
74636SOL     OW25681   3.723   5.916  10.587
74636SOL    HW125682   3.759   5.890  10.672
74636SOL    HW225683   3.654   5.979  10.609
74637SOL     OW25684   5.359   7.424   4.395
74637SOL    HW125685   5.404   7.383   4.469
74637SOL    HW225686   5.428   7.471   4.348
74638SOL     OW25687   5.662   0.443  10.116
74638SOL    HW125688   5.631   0.359  10.081
74638SOL    HW225689   5.751   0.426  10.145
74639SOL     OW25690   2.888  11.766   2.883
74639SOL    HW125691   2.853  11.676   2.884
74639SOL    HW225692   2.838  11.812   2.950
74640SOL     OW25693   7.984   0.634   3.714
74640SOL    HW125694   7.944   0.618   3.629
74640SOL    HW225695   7.911   0.628   3.776
74641SOL     OW25696  11.936   0.245   3.622
74641SOL    HW125697  11.881   0.323   3.628
74641SOL    HW225698  11.874   0.173   3.611
74642SOL     OW25699   2.987  12.278   8.784
74642SOL    HW125700   3.051  12.217   8.746
74642SOL    HW225701   2.967  12.339   8.713
74643SOL     OW25702   0.184   0.456   1.320
74643SOL    HW125703   0.257   0.438   1.379
74643SOL    HW225704   0.155   0.369   1.291
74644SOL     OW25705   2.546   2.864   1.011
74644SOL    HW125706   2.469   2.822   1.050
74644SOL    HW225707   2.617   2.802   1.028
74645SOL     OW25708   8.641  13.846   8.236
74645SOL    HW125709   8.726  13.889   8.248
74645SOL    HW225710   8.656  13.756   8.263
74646SOL     OW25711   4.556  13.878  14.836
74646SOL    HW125712   4.476  13.837  14.870
74646SOL    HW225713   4.564  13.844  14.747
74647SOL     OW25714   7.553   6.278   8.419
74647SOL    HW125715   7.572   6.331   8.496
74647SOL    HW225716   7.623   6.301   8.357
74648SOL     OW25717   2.342   0.976   1.540
74648SOL    HW125718   2.276   1.033   1.579
74648SOL    HW225719   2.304   0.888   1.545
74649SOL     OW25720  10.621   4.003   8.000
74649SOL    HW125721  10.669   3.940   7.945
74649SOL    HW225722  10.572   4.056   7.938
74650SOL     OW25723   5.988   8.368   7.812
74650SOL    HW125724   6.025   8.361   7.900
74650SOL    HW225725   5.979   8.462   7.797
74651SOL     OW25726   4.837  10.000   3.665
74651SOL    HW125727   4.768  10.010   3.730
74651SOL    HW225728   4.914  10.042   3.704
74652SOL     OW25729   3.341   8.211  12.553
74652SOL    HW125730   3.377   8.154  12.485
74652SOL    HW225731   3.317   8.151  12.623
74653SOL     OW25732  12.052   8.160   5.963
74653SOL    HW125733  11.972   8.204   5.934
74653SOL    HW225734  12.041   8.150   6.058
74654SOL     OW25735  12.567   0.514  11.492
74654SOL    HW125736  12.553   0.606  11.471
74654SOL    HW225737  12.662   0.505  11.500
74655SOL     OW25738  13.822   4.203  13.067
74655SOL    HW125739  13.886   4.233  13.002
74655SOL    HW225740  13.772   4.135  13.022
74656SOL     OW25741   6.477   3.091   4.951
74656SOL    HW125742   6.424   3.027   4.999
74656SOL    HW225743   6.527   3.038   4.888
74657SOL     OW25744   1.063  11.816  10.667
74657SOL    HW125745   0.970  11.836  10.677
74657SOL    HW225746   1.083  11.836  10.576
74658SOL     OW25747   3.026  12.576   4.057
74658SOL    HW125748   3.087  12.620   3.998
74658SOL    HW225749   2.984  12.648   4.105
74659SOL     OW25750   1.813   8.199   7.252
74659SOL    HW125751   1.817   8.234   7.341
74659SOL    HW225752   1.887   8.239   7.207
74660SOL     OW25753   3.900  13.343   3.141
74660SOL    HW125754   3.864  13.408   3.202
74660SOL    HW225755   3.993  13.337   3.165
74661SOL     OW25756   5.158  13.472   1.853
74661SOL    HW125757   5.116  13.555   1.874
74661SOL    HW225758   5.094  13.405   1.877
74662SOL     OW25759   0.831   0.781   6.236
74662SOL    HW125760   0.848   0.772   6.142
74662SOL    HW225761   0.780   0.862   6.243
74663SOL     OW25762   0.314   7.237  13.120
74663SOL    HW125763   0.336   7.329  13.137
74663SOL    HW225764   0.394   7.201  13.082
74664SOL     OW25765  11.313   8.057  12.878
74664SOL    HW125766  11.298   8.149  12.900
74664SOL    HW225767  11.405   8.042  12.899
74665SOL     OW25768   0.388   6.299   1.004
74665SOL    HW125769   0.348   6.279   0.919
74665SOL    HW225770   0.323   6.353   1.049
74666SOL     OW25771   2.506   8.264  10.575
74666SOL    HW125772   2.596   8.285  10.598
74666SOL    HW225773   2.453   8.320  10.632
74667SOL     OW25774  11.727  10.302   4.179
74667SOL    HW125775  11.780  10.236   4.135
74667SOL    HW225776  11.780  10.331   4.253
74668SOL     OW25777   6.561   4.764  14.345
74668SOL    HW125778   6.561   4.857  14.365
74668SOL    HW225779   6.506   4.724  14.413
74669SOL     OW25780   8.259   9.307  14.826
74669SOL    HW125781   8.264   9.218  14.790
74669SOL    HW225782   8.166   9.327  14.826
74670SOL     OW25783   7.173  11.866   4.409
74670SOL    HW125784   7.113  11.866   4.334
74670SOL    HW225785   7.251  11.821   4.378
74671SOL     OW25786  10.199   4.875   5.673
74671SOL    HW125787  10.152   4.826   5.606
74671SOL    HW225788  10.136   4.940   5.705
74672SOL     OW25789   7.318   4.570  14.335
74672SOL    HW125790   7.360   4.526  14.261
74672SOL    HW225791   7.391   4.599  14.390
74673SOL     OW25792   3.152   0.129  11.928
74673SOL    HW125793   3.124   0.220  11.940
74673SOL    HW225794   3.183   0.125  11.837
74674SOL     OW25795   7.118   2.239   3.127
74674SOL    HW125796   7.176   2.227   3.051
74674SOL    HW225797   7.034   2.264   3.089
74675SOL     OW25798  13.720   0.516  12.902
74675SOL    HW125799  13.666   0.521  12.823
74675SOL    HW225800  13.809   0.535  12.872
74676SOL     OW25801   8.952  10.612  10.652
74676SOL    HW125802   8.998  10.537  10.613
74676SOL    HW225803   9.001  10.688  10.623
74677SOL     OW25804   7.979  13.979   1.114
74677SOL    HW125805   7.921  14.031   1.169
74677SOL    HW225806   8.041  13.939   1.175
74678SOL     OW25807  12.886   7.770   3.641
74678SOL    HW125808  12.884   7.786   3.735
74678SOL    HW225809  12.860   7.679   3.632
74679SOL     OW25810   7.338  10.096  12.366
74679SOL    HW125811   7.403  10.110  12.435
74679SOL    HW225812   7.388  10.060  12.293
74680SOL     OW25813  11.289  11.607   5.158
74680SOL    HW125814  11.211  11.589   5.107
74680SOL    HW225815  11.259  11.611   5.249
74681SOL     OW25816   6.049   5.331   9.230
74681SOL    HW125817   6.078   5.416   9.263
74681SOL    HW225818   5.962   5.319   9.269
74682SOL     OW25819   5.551   2.345   3.574
74682SOL    HW125820   5.464   2.320   3.605
74682SOL    HW225821   5.611   2.318   3.644
74683SOL     OW25822   9.038   3.282  10.315
74683SOL    HW125823   9.063   3.286  10.408
74683SOL    HW225824   9.102   3.222  10.276
74684SOL     OW25825  10.563   5.515   5.216
74684SOL    HW125826  10.490   5.536   5.157
74684SOL    HW225827  10.633   5.573   5.190
74685SOL     OW25828   3.551  12.095  13.237
74685SOL    HW125829   3.532  12.070  13.146
74685SOL    HW225830   3.612  12.168  13.230
74686SOL     OW25831   6.602  14.562   7.451
74686SOL    HW125832   6.508  14.562   7.472
74686SOL    HW225833   6.646  14.558   7.535
74687SOL     OW25834   8.177   4.024  10.588
74687SOL    HW125835   8.215   4.112  10.596
74687SOL    HW225836   8.082   4.038  10.594
74688SOL     OW25837  10.401   8.081  13.576
74688SOL    HW125838  10.400   8.083  13.672
74688SOL    HW225839  10.355   8.001  13.553
74689SOL     OW25840   6.046  13.629   4.932
74689SOL    HW125841   6.140  13.643   4.941
74689SOL    HW225842   6.013  13.712   4.898
74690SOL     OW25843  13.207   3.002   8.540
74690SOL    HW125844  13.284   2.952   8.512
74690SOL    HW225845  13.238   3.055   8.613
74691SOL     OW25846  12.475   5.553   7.720
74691SOL    HW125847  12.467   5.646   7.738
74691SOL    HW225848  12.413   5.511   7.779
74692SOL     OW25849   5.528  14.312   0.182
74692SOL    HW125850   5.457  14.254   0.153
74692SOL    HW225851   5.558  14.354   0.101
74693SOL     OW25852   3.898  10.237  10.925
74693SOL    HW125853   3.877  10.319  10.970
74693SOL    HW225854   3.954  10.189  10.987
74694SOL     OW25855   1.124   1.749   8.027
74694SOL    HW125856   1.082   1.832   8.048
74694SOL    HW225857   1.162   1.763   7.940
74695SOL     OW25858   9.026   7.152  13.404
74695SOL    HW125859   8.955   7.127  13.464
74695SOL    HW225860   9.050   7.240  13.431
74696SOL     OW25861   2.413   0.773   4.084
74696SOL    HW125862   2.374   0.752   4.169
74696SOL    HW225863   2.445   0.689   4.051
74697SOL     OW25864   1.421   6.986  14.760
74697SOL    HW125865   1.486   6.986  14.831
74697SOL    HW225866   1.461   6.934  14.691
74698SOL     OW25867  12.406   7.500   9.649
74698SOL    HW125868  12.492   7.506   9.608
74698SOL    HW225869  12.356   7.571   9.610
74699SOL     OW25870  14.011   2.024   7.015
74699SOL    HW125871  14.001   1.931   6.992
74699SOL    HW225872  13.927   2.063   6.991
74700SOL     OW25873   7.615   2.340   7.312
74700SOL    HW125874   7.696   2.391   7.315
74700SOL    HW225875   7.643   2.250   7.323
74701SOL     OW25876  11.904   6.524  14.217
74701SOL    HW125877  11.970   6.573  14.266
74701SOL    HW225878  11.899   6.439  14.261
74702SOL     OW25879  12.614   9.095  13.455
74702SOL    HW125880  12.519   9.099  13.464
74702SOL    HW225881  12.633   9.002  13.443
74703SOL     OW25882   6.707   3.320   1.909
74703SOL    HW125883   6.670   3.233   1.897
74703SOL    HW225884   6.633   3.380   1.891
74704SOL     OW25885  11.248   3.608   1.409
74704SOL    HW125886  11.215   3.622   1.320
74704SOL    HW225887  11.298   3.526   1.404
74705SOL     OW25888   1.506  12.446  12.391
74705SOL    HW125889   1.513  12.542  12.396
74705SOL    HW225890   1.462  12.429  12.308
74706SOL     OW25891  10.962   9.914  10.367
74706SOL    HW125892  10.874   9.881  10.386
74706SOL    HW225893  11.015   9.885  10.440
74707SOL     OW25894   4.840   6.223   8.215
74707SOL    HW125895   4.842   6.303   8.162
74707SOL    HW225896   4.777   6.242   8.284
74708SOL     OW25897   6.886  13.723   4.211
74708SOL    HW125898   6.907  13.635   4.241
74708SOL    HW225899   6.886  13.777   4.290
74709SOL     OW25900   3.881  11.189   3.853
74709SOL    HW125901   3.810  11.156   3.908
74709SOL    HW225902   3.854  11.278   3.830
74710SOL     OW25903   1.926   9.924   6.378
74710SOL    HW125904   1.992   9.856   6.364
74710SOL    HW225905   1.864   9.884   6.439
74711SOL     OW25906  12.564  14.755  13.276
74711SOL    HW125907  12.579  14.677  13.222
74711SOL    HW225908  12.534  14.821  13.215
74712SOL     OW25909   6.262   3.450   4.883
74712SOL    HW125910   6.203   3.386   4.921
74712SOL    HW225911   6.251   3.440   4.789
74713SOL     OW25912   3.798   5.925   8.679
74713SOL    HW125913   3.767   6.001   8.630
74713SOL    HW225914   3.863   5.884   8.622
74714SOL     OW25915   2.534   7.175   3.753
74714SOL    HW125916   2.486   7.142   3.677
74714SOL    HW225917   2.546   7.269   3.735
74715SOL     OW25918  12.155   4.113   2.728
74715SOL    HW125919  12.101   4.055   2.675
74715SOL    HW225920  12.245   4.092   2.701
74716SOL     OW25921  10.045   4.329  11.650
74716SOL    HW125922   9.982   4.400  11.639
74716SOL    HW225923  10.127   4.364  11.616
74717SOL     OW25924  14.761   0.332   2.579
74717SOL    HW125925  14.692   0.398   2.584
74717SOL    HW225926  14.808   0.340   2.662
74718SOL     OW25927  13.728   3.772   4.990
74718SOL    HW125928  13.669   3.755   4.916
74718SOL    HW225929  13.680   3.738   5.066
74719SOL     OW25930   0.493   5.604   6.884
74719SOL    HW125931   0.569   5.556   6.851
74719SOL    HW225932   0.454   5.547   6.950
74720SOL     OW25933   7.037   4.608   3.862
74720SOL    HW125934   6.996   4.643   3.942
74720SOL    HW225935   6.994   4.523   3.849
74721SOL     OW25936  11.717   0.315   8.191
74721SOL    HW125937  11.795   0.272   8.226
74721SOL    HW225938  11.644   0.271   8.234
74722SOL     OW25939   9.268  14.371   9.484
74722SOL    HW125940   9.186  14.357   9.533
74722SOL    HW225941   9.281  14.466   9.486
74723SOL     OW25942   6.367   6.280   4.100
74723SOL    HW125943   6.290   6.228   4.127
74723SOL    HW225944   6.340   6.371   4.112
74724SOL     OW25945   3.879  10.381   5.465
74724SOL    HW125946   3.921  10.332   5.536
74724SOL    HW225947   3.915  10.344   5.385
74725SOL     OW25948   4.422   5.150   8.994
74725SOL    HW125949   4.366   5.105   8.931
74725SOL    HW225950   4.379   5.234   9.008
74726SOL     OW25951   1.031   1.916   9.895
74726SOL    HW125952   0.946   1.876   9.876
74726SOL    HW225953   1.023   1.949   9.985
74727SOL     OW25954   5.961  10.380   6.221
74727SOL    HW125955   5.869  10.400   6.236
74727SOL    HW225956   5.977  10.300   6.271
74728SOL     OW25957   3.004   2.987   8.745
74728SOL    HW125958   2.935   2.931   8.709
74728SOL    HW225959   3.084   2.960   8.700
74729SOL     OW25960   3.438   4.575   0.071
74729SOL    HW125961   3.436   4.670   0.084
74729SOL    HW225962   3.350   4.554   0.039
74730SOL     OW25963  13.223   0.258   5.683
74730SOL    HW125964  13.178   0.303   5.754
74730SOL    HW225965  13.152   0.217   5.633
74731SOL     OW25966   5.223   2.367   6.170
74731SOL    HW125967   5.172   2.358   6.250
74731SOL    HW225968   5.162   2.404   6.106
74732SOL     OW25969   7.550  14.045   4.173
74732SOL    HW125970   7.543  14.095   4.091
74732SOL    HW225971   7.626  14.083   4.217
74733SOL     OW25972   4.649   9.753   6.557
74733SOL    HW125973   4.577   9.692   6.541
74733SOL    HW225974   4.645   9.771   6.651
74734SOL     OW25975   9.506  13.647   7.703
74734SOL    HW125976   9.412  13.632   7.697
74734SOL    HW225977   9.515  13.742   7.707
74735SOL     OW25978   7.225   3.511  13.132
74735SOL    HW125979   7.219   3.600  13.169
74735SOL    HW225980   7.151   3.505  13.072
74736SOL     OW25981   3.015   3.090  12.254
74736SOL    HW125982   3.036   3.076  12.346
74736SOL    HW225983   3.006   3.185  12.245
74737SOL     OW25984   4.761   2.219   1.729
74737SOL    HW125985   4.715   2.247   1.650
74737SOL    HW225986   4.720   2.136   1.752
74738SOL     OW25987   3.378  10.713   6.638
74738SOL    HW125988   3.363  10.638   6.580
74738SOL    HW225989   3.328  10.692   6.717
74739SOL     OW25990   9.614   6.709   4.641
74739SOL    HW125991   9.605   6.665   4.557
74739SOL    HW225992   9.576   6.648   4.704
74740SOL     OW25993   3.018  14.670   9.227
74740SOL    HW125994   2.955  14.598   9.230
74740SOL    HW225995   2.989  14.730   9.296
74741SOL     OW25996   4.107   5.026   3.626
74741SOL    HW125997   4.201   5.043   3.638
74741SOL    HW225998   4.091   5.044   3.533
74742SOL     OW25999   3.390   2.511   0.985
74742SOL    HW126000   3.449   2.581   0.958
74742SOL    HW226001   3.446   2.433   0.992
74743SOL     OW26002   9.737   0.927   7.555
74743SOL    HW126003   9.718   0.847   7.506
74743SOL    HW226004   9.703   0.997   7.500
74744SOL     OW26005  10.425   5.853   5.671
74744SOL    HW126006  10.418   5.861   5.767
74744SOL    HW226007  10.413   5.760   5.653
74745SOL     OW26008   7.877   2.976  12.327
74745SOL    HW126009   7.954   2.995  12.380
74745SOL    HW226010   7.816   3.049  12.345
74746SOL     OW26011   6.185  11.562  14.675
74746SOL    HW126012   6.253  11.556  14.742
74746SOL    HW226013   6.161  11.471  14.657
74747SOL     OW26014  12.885   8.402   9.038
74747SOL    HW126015  12.858   8.413   8.947
74747SOL    HW226016  12.928   8.317   9.040
74748SOL     OW26017   3.703   9.733   2.703
74748SOL    HW126018   3.682   9.788   2.627
74748SOL    HW226019   3.799   9.726   2.700
74749SOL     OW26020   5.605  13.721  11.777
74749SOL    HW126021   5.530  13.734  11.720
74749SOL    HW226022   5.568  13.725  11.866
74750SOL     OW26023   7.353  12.652   0.100
74750SOL    HW126024   7.353  12.663   0.005
74750SOL    HW226025   7.350  12.558   0.113
74751SOL     OW26026   3.519   9.182   8.684
74751SOL    HW126027   3.461   9.186   8.760
74751SOL    HW226028   3.535   9.088   8.671
74752SOL     OW26029   1.950   5.989  11.442
74752SOL    HW126030   1.960   5.904  11.400
74752SOL    HW226031   1.865   6.021  11.412
74753SOL     OW26032   4.743   4.984  13.814
74753SOL    HW126033   4.834   4.962  13.794
74753SOL    HW226034   4.705   5.011  13.731
74754SOL     OW26035   3.909   9.628  10.969
74754SOL    HW126036   3.842   9.614  10.903
74754SOL    HW226037   3.991   9.630  10.920
74755SOL     OW26038   0.021   5.216   9.531
74755SOL    HW126039   0.030   5.181   9.619
74755SOL    HW226040  14.877   5.308   9.545
74756SOL     OW26041  13.902   7.926   5.578
74756SOL    HW126042  13.956   7.863   5.627
74756SOL    HW226043  13.965   7.987   5.540
74757SOL     OW26044  10.463   8.916   4.208
74757SOL    HW126045  10.506   8.831   4.220
74757SOL    HW226046  10.446   8.947   4.297
74758SOL     OW26047  10.804  12.771   7.721
74758SOL    HW126048  10.744  12.839   7.752
74758SOL    HW226049  10.752  12.719   7.659
74759SOL     OW26050  14.785  11.815   1.699
74759SOL    HW126051  14.775  11.906   1.726
74759SOL    HW226052  14.792  11.766   1.782
74760SOL     OW26053   8.447  10.504  11.990
74760SOL    HW126054   8.390  10.439  11.948
74760SOL    HW226055   8.513  10.523  11.924
74761SOL     OW26056   0.877   6.962   8.403
74761SOL    HW126057   0.848   6.950   8.313
74761SOL    HW226058   0.825   6.900   8.454
74762SOL     OW26059   8.857   7.619   0.751
74762SOL    HW126060   8.948   7.589   0.761
74762SOL    HW226061   8.863   7.697   0.697
74763SOL     OW26062   8.248   8.187   6.485
74763SOL    HW126063   8.184   8.125   6.520
74763SOL    HW226064   8.232   8.268   6.533
74764SOL     OW26065  12.064  11.385   1.396
74764SOL    HW126066  12.063  11.293   1.370
74764SOL    HW226067  12.136  11.393   1.458
74765SOL     OW26068   5.632  12.955  13.973
74765SOL    HW126069   5.538  12.973  13.973
74765SOL    HW226070   5.663  12.987  13.888
74766SOL     OW26071  14.093  13.619  13.977
74766SOL    HW126072  14.088  13.641  13.884
74766SOL    HW226073  14.002  13.616  14.006
74767SOL     OW26074   3.484   2.437  10.298
74767SOL    HW126075   3.575   2.438  10.269
74767SOL    HW226076   3.483   2.380  10.375
74768SOL     OW26077   0.241   9.970  10.412
74768SOL    HW126078   0.241  10.038  10.344
74768SOL    HW226079   0.208   9.892  10.367
74769SOL     OW26080   7.325   1.642   8.268
74769SOL    HW126081   7.359   1.554   8.285
74769SOL    HW226082   7.296   1.673   8.354
74770SOL     OW26083   7.097   9.516   4.455
74770SOL    HW126084   7.118   9.444   4.396
74770SOL    HW226085   7.144   9.496   4.536
74771SOL     OW26086   7.978   3.203   6.091
74771SOL    HW126087   7.916   3.269   6.062
74771SOL    HW226088   8.062   3.231   6.055
74772SOL     OW26089  14.580   5.711   9.249
74772SOL    HW126090  14.601   5.802   9.228
74772SOL    HW226091  14.507   5.688   9.193
74773SOL     OW26092   7.511   8.107  12.085
74773SOL    HW126093   7.562   8.145  12.013
74773SOL    HW226094   7.552   8.142  12.164
74774SOL     OW26095   9.889   8.935   4.721
74774SOL    HW126096   9.813   8.955   4.667
74774SOL    HW226097   9.902   9.014   4.773
74775SOL     OW26098  11.945  10.205  11.466
74775SOL    HW126099  11.915  10.230  11.379
74775SOL    HW226100  12.033  10.243  11.473
74776SOL     OW26101  12.155   2.983   8.400
74776SOL    HW126102  12.064   2.955   8.401
74776SOL    HW226103  12.205   2.904   8.380
74777SOL     OW26104   7.966   3.065   7.137
74777SOL    HW126105   7.924   3.148   7.161
74777SOL    HW226106   7.973   3.017   7.220
74778SOL     OW26107   1.029   1.420   7.485
74778SOL    HW126108   1.015   1.465   7.569
74778SOL    HW226109   1.106   1.365   7.500
74779SOL     OW26110   4.029  10.317   5.232
74779SOL    HW126111   4.016  10.331   5.138
74779SOL    HW226112   4.110  10.364   5.252
74780SOL     OW26113   6.346   7.695  11.513
74780SOL    HW126114   6.277   7.706  11.448
74780SOL    HW226115   6.424   7.673  11.461
74781SOL     OW26116  13.913  10.460   8.576
74781SOL    HW126117  13.852  10.467   8.650
74781SOL    HW226118  13.998  10.442   8.617
74782SOL     OW26119   9.881  14.242   9.573
74782SOL    HW126120   9.917  14.248   9.661
74782SOL    HW226121   9.859  14.332   9.550
74783SOL     OW26122  13.031   1.456   2.985
74783SOL    HW126123  12.994   1.519   2.924
74783SOL    HW226124  12.966   1.386   2.992
74784SOL     OW26125   9.211   5.424   5.268
74784SOL    HW126126   9.259   5.344   5.243
74784SOL    HW226127   9.133   5.423   5.212
74785SOL     OW26128   8.720  13.869   5.940
74785SOL    HW126129   8.759  13.892   6.024
74785SOL    HW226130   8.792  13.877   5.877
74786SOL     OW26131   3.290  13.868   9.188
74786SOL    HW126132   3.325  13.825   9.110
74786SOL    HW226133   3.208  13.823   9.206
74787SOL     OW26134   9.900   0.818   9.579
74787SOL    HW126135   9.979   0.778   9.616
74787SOL    HW226136   9.840   0.745   9.567
74788SOL     OW26137  14.496  13.571   3.141
74788SOL    HW126138  14.436  13.534   3.076
74788SOL    HW226139  14.577  13.520   3.129
74789SOL     OW26140   2.040   6.469   5.997
74789SOL    HW126141   1.991   6.537   6.043
74789SOL    HW226142   2.100   6.434   6.064
74790SOL     OW26143   9.128  11.298   8.249
74790SOL    HW126144   9.136  11.263   8.160
74790SOL    HW226145   9.119  11.393   8.237
74791SOL     OW26146   6.720   7.033   2.639
74791SOL    HW126147   6.776   7.094   2.591
74791SOL    HW226148   6.657   7.002   2.574
74792SOL     OW26149   9.336  11.046   3.355
74792SOL    HW126150   9.374  11.134   3.359
74792SOL    HW226151   9.242  11.060   3.365
74793SOL     OW26152   1.385   5.234  10.078
74793SOL    HW126153   1.455   5.215  10.140
74793SOL    HW226154   1.429   5.241   9.993
74794SOL     OW26155   1.442  11.241   8.477
74794SOL    HW126156   1.356  11.201   8.488
74794SOL    HW226157   1.468  11.267   8.566
74795SOL     OW26158   3.296   4.888  13.465
74795SOL    HW126159   3.327   4.807  13.425
74795SOL    HW226160   3.295   4.951  13.393
74796SOL     OW26161  13.926   1.281  10.478
74796SOL    HW126162  13.900   1.334  10.402
74796SOL    HW226163  14.005   1.236  10.450
74797SOL     OW26164   0.014   8.305  12.336
74797SOL    HW126165   0.025   8.289  12.242
74797SOL    HW226166   0.009   8.218  12.375
74798SOL     OW26167   1.724   1.246   7.385
74798SOL    HW126168   1.799   1.288   7.428
74798SOL    HW226169   1.702   1.172   7.441
74799SOL     OW26170   9.889   3.399  13.648
74799SOL    HW126171   9.936   3.446  13.579
74799SOL    HW226172   9.856   3.320  13.606
74800SOL     OW26173   2.738   7.351   8.929
74800SOL    HW126174   2.734   7.354   8.834
74800SOL    HW226175   2.745   7.258   8.950
74801SOL     OW26176   6.276  12.518   9.848
74801SOL    HW126177   6.313  12.502   9.935
74801SOL    HW226178   6.183  12.533   9.864
74802SOL     OW26179   2.112   9.623   2.416
74802SOL    HW126180   2.195   9.579   2.432
74802SOL    HW226181   2.113   9.646   2.323
74803SOL     OW26182  12.242   8.707   0.337
74803SOL    HW126183  12.317   8.670   0.291
74803SOL    HW226184  12.279   8.752   0.413
74804SOL     OW26185   8.922   1.781  14.524
74804SOL    HW126186   8.880   1.845  14.581
74804SOL    HW226187   8.939   1.706  14.580
74805SOL     OW26188   6.199   4.708   2.642
74805SOL    HW126189   6.201   4.625   2.594
74805SOL    HW226190   6.282   4.751   2.620
74806SOL     OW26191   7.079   3.254   0.073
74806SOL    HW126192   7.086   3.252   0.169
74806SOL    HW226193   7.121   3.173   0.044
74807SOL     OW26194   8.285   6.966  10.109
74807SOL    HW126195   8.194   6.983  10.085
74807SOL    HW226196   8.298   7.013  10.191
74808SOL     OW26197  12.068   8.115   8.294
74808SOL    HW126198  12.131   8.169   8.246
74808SOL    HW226199  12.009   8.179   8.335
74809SOL     OW26200   4.570   3.715  14.530
74809SOL    HW126201   4.618   3.798  14.526
74809SOL    HW226202   4.590   3.672  14.447
74810SOL     OW26203   3.472   8.268   8.615
74810SOL    HW126204   3.553   8.312   8.592
74810SOL    HW226205   3.464   8.278   8.710
74811SOL     OW26206  14.418  11.334   7.755
74811SOL    HW126207  14.476  11.259   7.746
74811SOL    HW226208  14.355  11.324   7.683
74812SOL     OW26209   9.125   2.231   6.336
74812SOL    HW126210   9.218   2.245   6.316
74812SOL    HW226211   9.080   2.304   6.295
74813SOL     OW26212  14.685   4.601   8.288
74813SOL    HW126213  14.597   4.639   8.286
74813SOL    HW226214  14.727   4.641   8.364
74814SOL     OW26215   5.903   3.479   3.245
74814SOL    HW126216   5.982   3.485   3.297
74814SOL    HW226217   5.900   3.388   3.215
74815SOL     OW26218  13.837   3.455   1.178
74815SOL    HW126219  13.830   3.391   1.248
74815SOL    HW226220  13.915   3.429   1.129
74816SOL     OW26221  12.951   5.603  12.335
74816SOL    HW126222  12.934   5.657  12.257
74816SOL    HW226223  13.046   5.602  12.343
74817SOL     OW26224   5.594  10.355   9.952
74817SOL    HW126225   5.643  10.426   9.993
74817SOL    HW226226   5.512  10.352  10.001
74818SOL     OW26227  11.470   3.304   4.802
74818SOL    HW126228  11.387   3.340   4.769
74818SOL    HW226229  11.501   3.368   4.866
74819SOL     OW26230   6.105   2.829   4.324
74819SOL    HW126231   6.074   2.740   4.341
74819SOL    HW226232   6.028   2.884   4.339
74820SOL     OW26233  11.669   5.946   7.774
74820SOL    HW126234  11.610   5.980   7.706
74820SOL    HW226235  11.728   6.020   7.793
74821SOL     OW26236   9.885   9.296  13.198
74821SOL    HW126237   9.900   9.369  13.259
74821SOL    HW226238   9.951   9.308  13.130
74822SOL     OW26239  11.501  13.415   4.120
74822SOL    HW126240  11.512  13.420   4.025
74822SOL    HW226241  11.442  13.340   4.133
74823SOL     OW26242  13.072   8.391  10.036
74823SOL    HW126243  13.042   8.468  10.084
74823SOL    HW226244  13.129   8.426   9.968
74824SOL     OW26245   9.511  13.105   9.521
74824SOL    HW126246   9.544  13.079   9.435
74824SOL    HW226247   9.517  13.201   9.521
74825SOL     OW26248   9.719   9.007  10.405
74825SOL    HW126249   9.707   8.916  10.430
74825SOL    HW226250   9.644   9.027  10.349
74826SOL     OW26251  12.252  11.876   3.699
74826SOL    HW126252  12.291  11.813   3.639
74826SOL    HW226253  12.165  11.894   3.663
74827SOL     OW26254   9.286   5.347  14.673
74827SOL    HW126255   9.247   5.391  14.598
74827SOL    HW226256   9.296   5.416  14.739
74828SOL     OW26257   4.194   2.069  14.556
74828SOL    HW126258   4.180   2.006  14.486
74828SOL    HW226259   4.215   2.016  14.633
74829SOL     OW26260  10.784  10.406  11.492
74829SOL    HW126261  10.879  10.398  11.492
74829SOL    HW226262  10.759  10.406  11.584
74830SOL     OW26263   0.704   3.812  14.405
74830SOL    HW126264   0.683   3.842  14.494
74830SOL    HW226265   0.620   3.784  14.368
74831SOL     OW26266   3.608   9.290   7.768
74831SOL    HW126267   3.667   9.216   7.781
74831SOL    HW226268   3.647   9.339   7.695
74832SOL     OW26269   4.777   1.235   3.406
74832SOL    HW126270   4.858   1.256   3.453
74832SOL    HW226271   4.708   1.282   3.454
74833SOL     OW26272   5.337   8.027   0.735
74833SOL    HW126273   5.308   8.116   0.714
74833SOL    HW226274   5.417   8.015   0.684
74834SOL     OW26275  11.407   9.118   7.315
74834SOL    HW126276  11.318   9.091   7.340
74834SOL    HW226277  11.442   9.043   7.268
74835SOL     OW26278   6.441   3.945  12.149
74835SOL    HW126279   6.391   3.966  12.228
74835SOL    HW226280   6.523   3.908  12.181
74836SOL     OW26281  13.397  11.328   4.211
74836SOL    HW126282  13.343  11.258   4.247
74836SOL    HW226283  13.487  11.305   4.236
74837SOL     OW26284   6.863   7.645   7.035
74837SOL    HW126285   6.775   7.610   7.040
74837SOL    HW226286   6.914   7.575   6.994
74838SOL     OW26287   8.813   3.179   8.392
74838SOL    HW126288   8.881   3.115   8.374
74838SOL    HW226289   8.819   3.197   8.486
74839SOL     OW26290  10.116   0.860   4.300
74839SOL    HW126291  10.182   0.823   4.358
74839SOL    HW226292  10.161   0.876   4.217
74840SOL     OW26293  11.194   4.441   9.556
74840SOL    HW126294  11.264   4.504   9.568
74840SOL    HW226295  11.142   4.446   9.636
74841SOL     OW26296   4.877   1.358  10.264
74841SOL    HW126297   4.915   1.385  10.181
74841SOL    HW226298   4.934   1.395  10.331
74842SOL     OW26299  12.466   3.578  10.665
74842SOL    HW126300  12.423   3.518  10.727
74842SOL    HW226301  12.441   3.543  10.579
74843SOL     OW26302  14.664   8.868   7.164
74843SOL    HW126303  14.661   8.960   7.137
74843SOL    HW226304  14.657   8.818   7.083
74844SOL     OW26305  13.492  11.180  11.876
74844SOL    HW126306  13.463  11.124  11.948
74844SOL    HW226307  13.438  11.152  11.801
74845SOL     OW26308   8.973   7.204   0.323
74845SOL    HW126309   9.008   7.280   0.276
74845SOL    HW226310   8.880   7.202   0.299
74846SOL     OW26311   2.223   4.937   2.060
74846SOL    HW126312   2.214   4.915   1.967
74846SOL    HW226313   2.294   4.880   2.090
74847SOL     OW26314   7.633   5.109  11.442
74847SOL    HW126315   7.623   5.014  11.435
74847SOL    HW226316   7.585   5.132  11.521
74848SOL     OW26317   7.331   5.140  10.037
74848SOL    HW126318   7.351   5.186  10.119
74848SOL    HW226319   7.339   5.207   9.969
74849SOL     OW26320   2.028  10.477   0.725
74849SOL    HW126321   2.054  10.422   0.651
74849SOL    HW226322   1.932  10.480   0.720
74850SOL     OW26323   6.494   7.645   6.790
74850SOL    HW126324   6.576   7.694   6.796
74850SOL    HW226325   6.452   7.678   6.710
74851SOL     OW26326   3.914   4.094  13.428
74851SOL    HW126327   3.992   4.144  13.451
74851SOL    HW226328   3.846   4.160  13.415
74852SOL     OW26329  13.192   9.567  11.904
74852SOL    HW126330  13.214   9.633  11.839
74852SOL    HW226331  13.205   9.484  11.859
74853SOL     OW26332   2.818   4.749  12.453
74853SOL    HW126333   2.911   4.771  12.442
74853SOL    HW226334   2.815   4.654  12.453
74854SOL     OW26335   2.713   6.094  14.819
74854SOL    HW126336   2.729   6.084  14.726
74854SOL    HW226337   2.767   6.169  14.845
74855SOL     OW26338  12.251   9.267   1.234
74855SOL    HW126339  12.188   9.231   1.297
74855SOL    HW226340  12.197   9.312   1.170
74856SOL     OW26341   9.244   8.831  14.783
74856SOL    HW126342   9.270   8.817  14.692
74856SOL    HW226343   9.151   8.850  14.779
74857SOL     OW26344  13.515   0.521   7.641
74857SOL    HW126345  13.553   0.467   7.571
74857SOL    HW226346  13.471   0.458   7.699
74858SOL     OW26347   5.005   4.666  10.778
74858SOL    HW126348   5.099   4.665  10.797
74858SOL    HW226349   4.963   4.653  10.863
74859SOL     OW26350  11.216  13.178  14.251
74859SOL    HW126351  11.303  13.182  14.210
74859SOL    HW226352  11.192  13.085  14.245
74860SOL     OW26353   1.576   2.499  13.763
74860SOL    HW126354   1.539   2.421  13.804
74860SOL    HW226355   1.513   2.568  13.783
74861SOL     OW26356   8.251  14.728  13.223
74861SOL    HW126357   8.277  14.770  13.305
74861SOL    HW226358   8.164  14.693  13.242
74862SOL     OW26359  11.916  13.898  11.579
74862SOL    HW126360  11.961  13.817  11.556
74862SOL    HW226361  11.840  13.870  11.630
74863SOL     OW26362   5.957   5.547  10.069
74863SOL    HW126363   6.006   5.591  10.138
74863SOL    HW226364   5.865   5.566  10.087
74864SOL     OW26365   5.532   0.460   7.883
74864SOL    HW126366   5.571   0.547   7.876
74864SOL    HW226367   5.589   0.412   7.944
74865SOL     OW26368   0.873   3.502  13.247
74865SOL    HW126369   0.832   3.588  13.251
74865SOL    HW226370   0.801   3.441  13.231
74866SOL     OW26371   9.384   6.599   1.017
74866SOL    HW126372   9.398   6.669   0.952
74866SOL    HW226373   9.462   6.601   1.072
74867SOL     OW26374   6.788   7.563  14.626
74867SOL    HW126375   6.881   7.545  14.642
74867SOL    HW226376   6.789   7.620  14.549
74868SOL     OW26377   6.208  12.924  13.028
74868SOL    HW126378   6.202  12.859  12.959
74868SOL    HW226379   6.119  12.956  13.040
74869SOL     OW26380   8.814   2.938   5.040
74869SOL    HW126381   8.796   3.031   5.051
74869SOL    HW226382   8.848   2.910   5.125
74870SOL     OW26383   2.256   5.188  12.145
74870SOL    HW126384   2.212   5.184  12.230
74870SOL    HW226385   2.297   5.102  12.136
74871SOL     OW26386   9.147  13.444  12.774
74871SOL    HW126387   9.111  13.447  12.685
74871SOL    HW226388   9.106  13.518  12.819
74872SOL     OW26389   4.743   8.291   2.675
74872SOL    HW126390   4.723   8.375   2.634
74872SOL    HW226391   4.770   8.314   2.764
74873SOL     OW26392   3.297   3.963   1.613
74873SOL    HW126393   3.221   4.004   1.571
74873SOL    HW226394   3.367   4.028   1.604
74874SOL     OW26395  10.535  14.041   2.837
74874SOL    HW126396  10.517  14.064   2.928
74874SOL    HW226397  10.626  14.011   2.838
74875SOL     OW26398   9.440   3.280  10.378
74875SOL    HW126399   9.436   3.185  10.380
74875SOL    HW226400   9.524   3.300  10.338
74876SOL     OW26401   7.187   5.341   0.715
74876SOL    HW126402   7.153   5.430   0.716
74876SOL    HW226403   7.246   5.337   0.790
74877SOL     OW26404   6.853   4.494   8.264
74877SOL    HW126405   6.762   4.470   8.281
74877SOL    HW226406   6.887   4.521   8.350
74878SOL     OW26407   4.257  12.163   5.740
74878SOL    HW126408   4.235  12.135   5.829
74878SOL    HW226409   4.226  12.091   5.685
74879SOL     OW26410   1.183   3.785   1.230
74879SOL    HW126411   1.094   3.809   1.255
74879SOL    HW226412   1.205   3.711   1.287
74880SOL     OW26413  14.804  10.748   3.402
74880SOL    HW126414  14.715  10.735   3.435
74880SOL    HW226415  14.826  10.837   3.429
74881SOL     OW26416  12.723   3.886   3.944
74881SOL    HW126417  12.813   3.908   3.919
74881SOL    HW226418  12.729   3.798   3.981
74882SOL     OW26419   1.681   0.488  12.597
74882SOL    HW126420   1.641   0.417  12.647
74882SOL    HW226421   1.775   0.472  12.602
74883SOL     OW26422   8.170   0.423   6.964
74883SOL    HW126423   8.129   0.391   6.884
74883SOL    HW226424   8.178   0.518   6.950
74884SOL     OW26425  10.883   5.856   7.329
74884SOL    HW126426  10.804   5.863   7.382
74884SOL    HW226427  10.851   5.853   7.239
74885SOL     OW26428   5.978   2.790  12.335
74885SOL    HW126429   5.913   2.720  12.340
74885SOL    HW226430   5.984   2.823  12.425
74886SOL     OW26431   0.262  10.448  13.818
74886SOL    HW126432   0.279  10.424  13.727
74886SOL    HW226433   0.299  10.375  13.869
74887SOL     OW26434  14.524   5.759  12.196
74887SOL    HW126435  14.535   5.798  12.282
74887SOL    HW226436  14.592   5.692  12.190
74888SOL     OW26437   8.234  11.069  14.237
74888SOL    HW126438   8.166  11.067  14.170
74888SOL    HW226439   8.271  11.157  14.231
74889SOL     OW26440   6.373  11.545  11.274
74889SOL    HW126441   6.335  11.468  11.230
74889SOL    HW226442   6.459  11.554  11.234
74890SOL     OW26443  13.799  14.391   9.674
74890SOL    HW126444  13.764  14.478   9.659
74890SOL    HW226445  13.783  14.375   9.768
74891SOL     OW26446   5.327  13.275   3.086
74891SOL    HW126447   5.323  13.232   3.001
74891SOL    HW226448   5.257  13.341   3.083
74892SOL     OW26449   7.502  11.701  12.462
74892SOL    HW126450   7.551  11.781  12.481
74892SOL    HW226451   7.410  11.728  12.462
74893SOL     OW26452  13.083   0.232  11.725
74893SOL    HW126453  13.090   0.163  11.660
74893SOL    HW226454  13.033   0.301  11.682
74894SOL     OW26455   3.325   2.235   8.188
74894SOL    HW126456   3.247   2.190   8.155
74894SOL    HW226457   3.290   2.305   8.244
74895SOL     OW26458   8.910   6.122  11.559
74895SOL    HW126459   8.995   6.167  11.562
74895SOL    HW226460   8.878   6.138  11.471
74896SOL     OW26461   5.534  10.819   3.090
74896SOL    HW126462   5.628  10.821   3.108
74896SOL    HW226463   5.502  10.906   3.114
74897SOL     OW26464  13.034   0.186   1.155
74897SOL    HW126465  12.993   0.264   1.193
74897SOL    HW226466  12.961   0.124   1.143
74898SOL     OW26467  10.385   8.114   5.295
74898SOL    HW126468  10.410   8.024   5.315
74898SOL    HW226469  10.307   8.105   5.240
74899SOL     OW26470   0.426   6.272   8.508
74899SOL    HW126471   0.473   6.242   8.430
74899SOL    HW226472   0.359   6.331   8.474
74900SOL     OW26473  12.245  10.743   5.195
74900SOL    HW126474  12.236  10.819   5.253
74900SOL    HW226475  12.163  10.741   5.145
74901SOL     OW26476   0.954   2.497   5.012
74901SOL    HW126477   0.904   2.416   5.004
74901SOL    HW226478   1.045   2.469   5.016
74902SOL     OW26479  12.712   0.872   8.190
74902SOL    HW126480  12.727   0.957   8.151
74902SOL    HW226481  12.617   0.866   8.202
74903SOL     OW26482   5.005   8.992  14.787
74903SOL    HW126483   4.986   8.978  14.880
74903SOL    HW226484   4.938   8.942  14.741
74904SOL     OW26485   2.746   0.222  14.683
74904SOL    HW126486   2.791   0.305  14.666
74904SOL    HW226487   2.699   0.236  14.765
74905SOL     OW26488   2.202   1.564  11.617
74905SOL    HW126489   2.136   1.622  11.579
74905SOL    HW226490   2.178   1.477  11.584
74906SOL     OW26491  12.142   2.484   9.780
74906SOL    HW126492  12.229   2.469   9.744
74906SOL    HW226493  12.137   2.426   9.856
74907SOL     OW26494   1.012   5.539   8.756
74907SOL    HW126495   1.025   5.513   8.847
74907SOL    HW226496   0.967   5.464   8.716
74908SOL     OW26497   5.305  12.376   9.872
74908SOL    HW126498   5.352  12.327   9.804
74908SOL    HW226499   5.373  12.407   9.931
74909SOL     OW26500   6.458   8.564   3.690
74909SOL    HW126501   6.496   8.493   3.639
74909SOL    HW226502   6.501   8.558   3.775
74910SOL     OW26503  12.675   5.626  11.236
74910SOL    HW126504  12.587   5.592  11.252
74910SOL    HW226505  12.729   5.547  11.226
74911SOL     OW26506   5.571   2.016  12.509
74911SOL    HW126507   5.551   1.933  12.553
74911SOL    HW226508   5.486   2.060  12.503
74912SOL     OW26509   2.684   1.275   8.752
74912SOL    HW126510   2.683   1.198   8.809
74912SOL    HW226511   2.719   1.243   8.669
74913SOL     OW26512  12.136  14.352  12.079
74913SOL    HW126513  12.217  14.400  12.061
74913SOL    HW226514  12.137  14.337  12.174
74914SOL     OW26515   5.298   3.083   3.616
74914SOL    HW126516   5.219   3.109   3.664
74914SOL    HW226517   5.270   3.081   3.524
74915SOL     OW26518   9.945   2.258  10.820
74915SOL    HW126519   9.987   2.228  10.900
74915SOL    HW226520  10.008   2.237  10.750
74916SOL     OW26521  12.093   2.449   3.149
74916SOL    HW126522  12.002   2.431   3.171
74916SOL    HW226523  12.091   2.474   3.057
74917SOL     OW26524   4.425  10.679   8.658
74917SOL    HW126525   4.414  10.612   8.726
74917SOL    HW226526   4.356  10.743   8.677
74918SOL     OW26527   4.795   0.441   3.450
74918SOL    HW126528   4.874   0.394   3.423
74918SOL    HW226529   4.730   0.418   3.383
74919SOL     OW26530   7.471  12.000   4.364
74919SOL    HW126531   7.397  12.029   4.310
74919SOL    HW226532   7.489  11.911   4.333
74920SOL     OW26533  11.678   8.325   9.838
74920SOL    HW126534  11.687   8.390   9.908
74920SOL    HW226535  11.670   8.242   9.885
74921SOL     OW26536   3.226   6.778   6.543
74921SOL    HW126537   3.211   6.688   6.572
74921SOL    HW226538   3.283   6.816   6.610
74922SOL     OW26539   8.909  11.239   9.296
74922SOL    HW126540   8.982  11.284   9.339
74922SOL    HW226541   8.860  11.308   9.252
74923SOL     OW26542  13.200   0.398   8.773
74923SOL    HW126543  13.150   0.479   8.783
74923SOL    HW226544  13.155   0.335   8.830
74924SOL     OW26545   4.017  13.770   0.292
74924SOL    HW126546   4.006  13.807   0.380
74924SOL    HW226547   3.927  13.754   0.262
74925SOL     OW26548   3.953   2.996   2.089
74925SOL    HW126549   3.910   2.933   2.031
74925SOL    HW226550   4.035   3.017   2.044
74926SOL     OW26551   5.540  12.227   3.387
74926SOL    HW126552   5.516  12.264   3.472
74926SOL    HW226553   5.601  12.290   3.350
74927SOL     OW26554  10.053   9.070   9.223
74927SOL    HW126555  10.131   9.124   9.218
74927SOL    HW226556  10.023   9.079   9.313
74928SOL     OW26557  14.064   7.378   6.811
74928SOL    HW126558  14.149   7.395   6.851
74928SOL    HW226559  14.008   7.450   6.842
74929SOL     OW26560   6.265   4.525  10.967
74929SOL    HW126561   6.336   4.547  11.027
74929SOL    HW226562   6.185   4.543  11.017
74930SOL     OW26563   4.391  12.051  10.176
74930SOL    HW126564   4.395  12.103  10.095
74930SOL    HW226565   4.307  12.075  10.215
74931SOL     OW26566   5.699   9.409   1.892
74931SOL    HW126567   5.734   9.374   1.974
74931SOL    HW226568   5.715   9.339   1.828
74932SOL     OW26569   2.224  10.031   9.412
74932SOL    HW126570   2.236   9.950   9.363
74932SOL    HW226571   2.157  10.079   9.363
74933SOL     OW26572  12.725   3.634   2.574
74933SOL    HW126573  12.765   3.548   2.562
74933SOL    HW226574  12.731   3.651   2.668
74934SOL     OW26575   3.442   4.264  10.963
74934SOL    HW126576   3.443   4.170  10.978
74934SOL    HW226577   3.533   4.287  10.945
74935SOL     OW26578   0.457   2.641   7.060
74935SOL    HW126579   0.489   2.559   7.022
74935SOL    HW226580   0.523   2.705   7.036
74936SOL     OW26581  12.315  13.952  10.436
74936SOL    HW126582  12.384  13.891  10.412
74936SOL    HW226583  12.242  13.897  10.463
74937SOL     OW26584  11.960  13.576   4.167
74937SOL    HW126585  11.905  13.498   4.177
74937SOL    HW226586  11.903  13.649   4.186
74938SOL     OW26587  14.107   1.186   2.993
74938SOL    HW126588  14.017   1.178   3.026
74938SOL    HW226589  14.123   1.281   2.992
74939SOL     OW26590  12.294   7.693   1.664
74939SOL    HW126591  12.266   7.610   1.702
74939SOL    HW226592  12.248   7.697   1.580
74940SOL     OW26593   7.620   6.269   7.993
74940SOL    HW126594   7.539   6.255   8.042
74940SOL    HW226595   7.592   6.314   7.913
74941SOL     OW26596  14.842   6.157  10.349
74941SOL    HW126597   0.018   6.192  10.417
74941SOL    HW226598  14.868   6.205  10.270
74942SOL     OW26599   6.526   5.852  13.586
74942SOL    HW126600   6.532   5.897  13.671
74942SOL    HW226601   6.592   5.783  13.590
74943SOL     OW26602   7.461  11.517   6.304
74943SOL    HW126603   7.461  11.608   6.332
74943SOL    HW226604   7.428  11.519   6.214
74944SOL     OW26605  13.155  14.216   3.785
74944SOL    HW126606  13.178  14.263   3.705
74944SOL    HW226607  13.059  14.213   3.784
74945SOL     OW26608   4.768  12.559   5.054
74945SOL    HW126609   4.791  12.553   5.146
74945SOL    HW226610   4.672  12.566   5.054
74946SOL     OW26611   1.791   2.203  14.874
74946SOL    HW126612   1.751   2.192   0.079
74946SOL    HW226613   1.846   2.125  14.864
74947SOL     OW26614   7.552   7.496  13.583
74947SOL    HW126615   7.553   7.534  13.670
74947SOL    HW226616   7.483   7.430  13.587
74948SOL     OW26617  14.412   5.497   3.697
74948SOL    HW126618  14.335   5.551   3.716
74948SOL    HW226619  14.481   5.532   3.754
74949SOL     OW26620   1.789  14.335   1.400
74949SOL    HW126621   1.884  14.335   1.415
74949SOL    HW226622   1.759  14.418   1.438
74950SOL     OW26623   7.904   6.356   0.135
74950SOL    HW126624   7.979   6.327   0.187
74950SOL    HW226625   7.889   6.446   0.162
74951SOL     OW26626   6.637  14.623   6.807
74951SOL    HW126627   6.690  14.579   6.741
74951SOL    HW226628   6.552  14.579   6.802
74952SOL     OW26629   6.847   1.342   2.701
74952SOL    HW126630   6.874   1.305   2.617
74952SOL    HW226631   6.925   1.332   2.757
74953SOL     OW26632   1.226   2.577   6.223
74953SOL    HW126633   1.281   2.551   6.149
74953SOL    HW226634   1.136   2.558   6.194
74954SOL     OW26635   1.908  12.706   1.969
74954SOL    HW126636   1.980  12.659   1.928
74954SOL    HW226637   1.837  12.643   1.975
74955SOL     OW26638  13.611   5.753   9.592
74955SOL    HW126639  13.541   5.814   9.568
74955SOL    HW226640  13.648   5.789   9.673
74956SOL     OW26641   4.627  13.168   7.608
74956SOL    HW126642   4.622  13.082   7.650
74956SOL    HW226643   4.609  13.152   7.516
74957SOL     OW26644  13.808   7.229   9.932
74957SOL    HW126645  13.732   7.263   9.979
74957SOL    HW226646  13.789   7.136   9.920
74958SOL     OW26647   2.024   8.175   3.557
74958SOL    HW126648   1.958   8.204   3.620
74958SOL    HW226649   1.988   8.095   3.519
74959SOL     OW26650   0.367   6.323   0.526
74959SOL    HW126651   0.434   6.259   0.500
74959SOL    HW226652   0.417   6.398   0.557
74960SOL     OW26653   9.159   1.184   6.661
74960SOL    HW126654   9.185   1.099   6.695
74960SOL    HW226655   9.241   1.235   6.660
74961SOL     OW26656   1.524   3.747   9.122
74961SOL    HW126657   1.592   3.694   9.164
74961SOL    HW226658   1.569   3.828   9.098
74962SOL     OW26659   0.727   9.750   2.644
74962SOL    HW126660   0.768   9.784   2.724
74962SOL    HW226661   0.645   9.799   2.637
74963SOL     OW26662   0.997   2.881  12.839
74963SOL    HW126663   1.056   2.941  12.885
74963SOL    HW226664   0.975   2.927  12.758
74964SOL     OW26665  12.480  13.014   7.297
74964SOL    HW126666  12.408  12.951   7.303
74964SOL    HW226667  12.557  12.961   7.275
74965SOL     OW26668   7.422  10.546   1.701
74965SOL    HW126669   7.445  10.597   1.623
74965SOL    HW226670   7.369  10.474   1.667
74966SOL     OW26671   3.738   1.288   5.316
74966SOL    HW126672   3.810   1.351   5.307
74966SOL    HW226673   3.780   1.207   5.345
74967SOL     OW26674  10.274   3.788   6.679
74967SOL    HW126675  10.351   3.797   6.734
74967SOL    HW226676  10.272   3.868   6.626
74968SOL     OW26677   3.324   7.695   1.180
74968SOL    HW126678   3.311   7.660   1.092
74968SOL    HW226679   3.309   7.789   1.171
74969SOL     OW26680  12.524   9.419  12.816
74969SOL    HW126681  12.556   9.445  12.730
74969SOL    HW226682  12.561   9.332  12.830
74970SOL     OW26683   6.516   6.271   8.285
74970SOL    HW126684   6.576   6.255   8.358
74970SOL    HW226685   6.437   6.305   8.326
74971SOL     OW26686  10.193  10.302   3.566
74971SOL    HW126687  10.110  10.345   3.547
74971SOL    HW226688  10.231  10.355   3.636
74972SOL     OW26689   3.213   3.211   8.441
74972SOL    HW126690   3.293   3.259   8.416
74972SOL    HW226691   3.142   3.273   8.425
74973SOL     OW26692   8.792  13.995   4.957
74973SOL    HW126693   8.748  14.014   5.040
74973SOL    HW226694   8.811  13.901   4.961
74974SOL     OW26695   9.793   4.682  14.106
74974SOL    HW126696   9.706   4.716  14.086
74974SOL    HW226697   9.794   4.595  14.065
74975SOL     OW26698  11.705   3.239  11.262
74975SOL    HW126699  11.714   3.332  11.243
74975SOL    HW226700  11.736   3.229  11.352
74976SOL     OW26701   0.671  13.642  10.529
74976SOL    HW126702   0.612  13.688  10.589
74976SOL    HW226703   0.692  13.560  10.573
74977SOL     OW26704   1.311   8.081   3.504
74977SOL    HW126705   1.363   8.150   3.544
74977SOL    HW226706   1.357   8.060   3.423
74978SOL     OW26707  14.405   1.001   1.784
74978SOL    HW126708  14.330   0.996   1.843
74978SOL    HW226709  14.446   1.085   1.804
74979SOL     OW26710   3.446   7.621   2.225
74979SOL    HW126711   3.355   7.647   2.220
74979SOL    HW226712   3.486   7.683   2.286
74980SOL     OW26713   7.858   0.575   7.250
74980SOL    HW126714   7.851   0.669   7.234
74980SOL    HW226715   7.773   0.540   7.225
74981SOL     OW26716   8.965   7.445  12.540
74981SOL    HW126717   8.955   7.520  12.599
74981SOL    HW226718   8.963   7.369  12.598
74982SOL     OW26719   3.906   1.249   3.696
74982SOL    HW126720   3.824   1.238   3.648
74982SOL    HW226721   3.947   1.327   3.658
74983SOL     OW26722   4.211   3.174  11.296
74983SOL    HW126723   4.259   3.257  11.301
74983SOL    HW226724   4.197   3.149  11.387
74984SOL     OW26725  13.492  12.258   3.574
74984SOL    HW126726  13.468  12.192   3.508
74984SOL    HW226727  13.495  12.340   3.526
74985SOL     OW26728  10.538   0.876   4.515
74985SOL    HW126729  10.590   0.906   4.441
74985SOL    HW226730  10.586   0.908   4.592
74986SOL     OW26731   0.460   5.349  13.504
74986SOL    HW126732   0.457   5.418  13.571
74986SOL    HW226733   0.518   5.283  13.542
74987SOL     OW26734   0.667   7.559  12.192
74987SOL    HW126735   0.702   7.618  12.259
74987SOL    HW226736   0.698   7.595  12.109
74988SOL     OW26737   6.137   3.621  14.289
74988SOL    HW126738   6.215   3.578  14.254
74988SOL    HW226739   6.170   3.704  14.325
74989SOL     OW26740   9.171  13.541  12.435
74989SOL    HW126741   9.098  13.484  12.457
74989SOL    HW226742   9.248  13.485  12.440
74990SOL     OW26743   2.575   1.775   8.826
74990SOL    HW126744   2.614   1.816   8.749
74990SOL    HW226745   2.586   1.840   8.895
74991SOL     OW26746   5.176   6.029   8.548
74991SOL    HW126747   5.121   6.087   8.495
74991SOL    HW226748   5.181   6.072   8.633
74992SOL     OW26749  11.261   1.069   9.663
74992SOL    HW126750  11.175   1.102   9.639
74992SOL    HW226751  11.316   1.091   9.587
74993SOL     OW26752   4.286   8.185  10.644
74993SOL    HW126753   4.324   8.163  10.729
74993SOL    HW226754   4.287   8.281  10.641
74994SOL     OW26755   3.834  11.499   5.401
74994SOL    HW126756   3.904  11.452   5.448
74994SOL    HW226757   3.785  11.429   5.356
74995SOL     OW26758  10.349  14.313   3.269
74995SOL    HW126759  10.334  14.406   3.251
74995SOL    HW226760  10.265  14.281   3.299
74996SOL     OW26761   4.989   7.525   6.125
74996SOL    HW126762   4.921   7.496   6.064
74996SOL    HW226763   5.069   7.526   6.073
74997SOL     OW26764  11.030  10.013   8.027
74997SOL    HW126765  10.990   9.985   7.945
74997SOL    HW226766  11.005   9.947   8.091
74998SOL     OW26767   1.598  14.063  12.815
74998SOL    HW126768   1.565  14.115  12.888
74998SOL    HW226769   1.564  13.975  12.831
74999SOL     OW26770  12.879   7.994   5.367
74999SOL    HW126771  12.809   8.006   5.431
74999SOL    HW226772  12.862   8.060   5.300
75000SOL     OW26773   3.995  14.538   7.170
75000SOL    HW126774   4.015  14.449   7.198
75000SOL    HW226775   3.973  14.530   7.077
75001SOL     OW26776  11.764   9.262   7.526
75001SOL    HW126777  11.826   9.311   7.581
75001SOL    HW226778  11.760   9.312   7.445
75002SOL     OW26779   1.880   3.923   5.438
75002SOL    HW126780   1.881   3.828   5.420
75002SOL    HW226781   1.970   3.943   5.464
75003SOL     OW26782   4.663   7.292   2.067
75003SOL    HW126783   4.692   7.329   1.984
75003SOL    HW226784   4.681   7.199   2.061
75004SOL     OW26785   5.464   5.421   3.083
75004SOL    HW126786   5.510   5.447   3.003
75004SOL    HW226787   5.473   5.496   3.142
75005SOL     OW26788  14.448  14.237   3.224
75005SOL    HW126789  14.413  14.289   3.296
75005SOL    HW226790  14.371  14.200   3.181
75006SOL     OW26791   6.119   1.813  10.041
75006SOL    HW126792   6.102   1.884  10.104
75006SOL    HW226793   6.067   1.836   9.964
75007SOL     OW26794  12.333   4.471  13.719
75007SOL    HW126795  12.356   4.397  13.775
75007SOL    HW226796  12.341   4.436  13.630
75008SOL     OW26797  11.761   3.777  10.472
75008SOL    HW126798  11.679   3.827  10.472
75008SOL    HW226799  11.829   3.843  10.461
75009SOL     OW26800   2.357   2.687   8.844
75009SOL    HW126801   2.293   2.721   8.782
75009SOL    HW226802   2.323   2.713   8.930
75010SOL     OW26803   0.808  14.461  13.968
75010SOL    HW126804   0.806  14.430  14.058
75010SOL    HW226805   0.777  14.551  13.973
75011SOL     OW26806   9.276   9.223   6.680
75011SOL    HW126807   9.207   9.244   6.743
75011SOL    HW226808   9.234   9.162   6.618
75012SOL     OW26809  12.890  12.109  14.185
75012SOL    HW126810  12.871  12.077  14.097
75012SOL    HW226811  12.814  12.083  14.237
75013SOL     OW26812   1.168   2.556   0.695
75013SOL    HW126813   1.212   2.584   0.615
75013SOL    HW226814   1.118   2.632   0.723
75014SOL     OW26815   1.384   6.104   6.768
75014SOL    HW126816   1.440   6.029   6.752
75014SOL    HW226817   1.445   6.174   6.794
75015SOL     OW26818  13.923   5.001   0.084
75015SOL    HW126819  13.840   5.046   0.067
75015SOL    HW226820  13.975   5.015   0.006
75016SOL     OW26821  11.905   5.436   6.519
75016SOL    HW126822  11.942   5.394   6.442
75016SOL    HW226823  11.862   5.366   6.567
75017SOL     OW26824  12.361   7.385   5.670
75017SOL    HW126825  12.344   7.290   5.669
75017SOL    HW226826  12.330   7.416   5.586
75018SOL     OW26827   0.209   7.670   1.609
75018SOL    HW126828   0.152   7.619   1.551
75018SOL    HW226829   0.168   7.757   1.612
75019SOL     OW26830   3.627  10.321  10.776
75019SOL    HW126831   3.625  10.413  10.748
75019SOL    HW226832   3.661  10.324  10.865
75020SOL     OW26833  13.656  10.858  11.209
75020SOL    HW126834  13.688  10.774  11.177
75020SOL    HW226835  13.698  10.923  11.152
75021SOL     OW26836  10.503  12.623   3.719
75021SOL    HW126837  10.476  12.587   3.803
75021SOL    HW226838  10.423  12.624   3.666
75022SOL     OW26839   7.302   7.341   5.382
75022SOL    HW126840   7.308   7.426   5.426
75022SOL    HW226841   7.291   7.362   5.290
75023SOL     OW26842   7.521  14.315  11.996
75023SOL    HW126843   7.588  14.301  12.062
75023SOL    HW226844   7.473  14.232  11.993
75024SOL     OW26845   9.530   7.162   9.394
75024SOL    HW126846   9.474   7.092   9.429
75024SOL    HW226847   9.574   7.198   9.471
75025SOL     OW26848  12.284  12.536   3.532
75025SOL    HW126849  12.225  12.497   3.467
75025SOL    HW226850  12.245  12.512   3.617
75026SOL     OW26851   4.199   6.333  10.883
75026SOL    HW126852   4.247   6.314  10.964
75026SOL    HW226853   4.221   6.424  10.864
75027SOL     OW26854   4.453  14.494  12.795
75027SOL    HW126855   4.398  14.567  12.822
75027SOL    HW226856   4.541  14.532  12.786
75028SOL     OW26857  10.497   0.343  14.438
75028SOL    HW126858  10.576   0.369  14.391
75028SOL    HW226859  10.455   0.279  14.380
75029SOL     OW26860  13.162   2.590   6.635
75029SOL    HW126861  13.140   2.617   6.545
75029SOL    HW226862  13.251   2.557   6.629
75030SOL     OW26863  11.943  11.519   6.296
75030SOL    HW126864  11.952  11.565   6.380
75030SOL    HW226865  12.032  11.509   6.265
75031SOL     OW26866  11.425   9.987   5.905
75031SOL    HW126867  11.350  10.043   5.887
75031SOL    HW226868  11.418   9.915   5.842
75032SOL     OW26869  10.535   1.369   5.719
75032SOL    HW126870  10.585   1.361   5.639
75032SOL    HW226871  10.451   1.327   5.699
75033SOL     OW26872   0.685   1.500   9.986
75033SOL    HW126873   0.607   1.534  10.029
75033SOL    HW226874   0.750   1.492  10.056
75034SOL     OW26875   8.275   5.737   0.619
75034SOL    HW126876   8.231   5.796   0.680
75034SOL    HW226877   8.364   5.771   0.611
75035SOL     OW26878  14.178   9.400   9.462
75035SOL    HW126879  14.140   9.353   9.536
75035SOL    HW226880  14.251   9.344   9.433
75036SOL     OW26881   0.601   2.137   5.274
75036SOL    HW126882   0.513   2.175   5.269
75036SOL    HW226883   0.620   2.107   5.185
75037SOL     OW26884   8.345   8.377   7.154
75037SOL    HW126885   8.381   8.290   7.138
75037SOL    HW226886   8.373   8.429   7.078
75038SOL     OW26887   5.576   5.824  14.617
75038SOL    HW126888   5.662   5.807  14.577
75038SOL    HW226889   5.513   5.796  14.550
75039SOL     OW26890   9.194   3.210   4.976
75039SOL    HW126891   9.170   3.126   4.937
75039SOL    HW226892   9.260   3.245   4.917
75040SOL     OW26893   6.296   6.425   3.835
75040SOL    HW126894   6.268   6.414   3.926
75040SOL    HW226895   6.305   6.335   3.802
75041SOL     OW26896   5.358   6.755   1.607
75041SOL    HW126897   5.325   6.671   1.638
75041SOL    HW226898   5.437   6.733   1.558
75042SOL     OW26899   1.741   8.920   4.502
75042SOL    HW126900   1.808   8.950   4.441
75042SOL    HW226901   1.789   8.892   4.580
75043SOL     OW26902   6.329   7.057   6.638
75043SOL    HW126903   6.394   7.124   6.663
75043SOL    HW226904   6.318   7.004   6.717
75044SOL     OW26905   0.195   7.073   7.408
75044SOL    HW126906   0.256   7.147   7.413
75044SOL    HW226907   0.117   7.103   7.454
75045SOL     OW26908   2.495   0.824   5.794
75045SOL    HW126909   2.463   0.827   5.885
75045SOL    HW226910   2.422   0.856   5.742
75046SOL     OW26911  14.041   1.203   0.083
75046SOL    HW126912  14.069   1.256   0.158
75046SOL    HW226913  14.101   1.128   0.082
75047SOL     OW26914  10.527   7.199  10.104
75047SOL    HW126915  10.559   7.126  10.051
75047SOL    HW226916  10.597   7.265  10.098
75048SOL     OW26917   4.328   3.150   1.137
75048SOL    HW126918   4.328   3.151   1.041
75048SOL    HW226919   4.257   3.091   1.160
75049SOL     OW26920   5.378   5.293  12.587
75049SOL    HW126921   5.419   5.210  12.562
75049SOL    HW226922   5.450   5.356  12.588
75050SOL     OW26923   2.276  10.683   1.752
75050SOL    HW126924   2.307  10.774   1.757
75050SOL    HW226925   2.298  10.654   1.664
75051SOL     OW26926   6.239   8.958  11.665
75051SOL    HW126927   6.234   8.979  11.758
75051SOL    HW226928   6.329   8.978  11.640
75052SOL     OW26929   8.622   0.976   0.869
75052SOL    HW126930   8.611   0.979   0.774
75052SOL    HW226931   8.653   1.063   0.892
75053SOL     OW26932  11.032   2.709  14.242
75053SOL    HW126933  11.011   2.678  14.154
75053SOL    HW226934  11.125   2.734  14.238
75054SOL     OW26935  11.456   3.358  11.940
75054SOL    HW126936  11.401   3.319  12.008
75054SOL    HW226937  11.409   3.343  11.858
75055SOL     OW26938   8.680   0.788   6.159
75055SOL    HW126939   8.714   0.855   6.100
75055SOL    HW226940   8.757   0.748   6.198
75056SOL     OW26941   5.553   5.596   6.839
75056SOL    HW126942   5.554   5.684   6.877
75056SOL    HW226943   5.476   5.594   6.784
75057SOL     OW26944   8.044  12.193   1.216
75057SOL    HW126945   8.080  12.129   1.155
75057SOL    HW226946   8.114  12.257   1.229
75058SOL     OW26947  12.930  12.407   5.105
75058SOL    HW126948  12.940  12.315   5.130
75058SOL    HW226949  13.020  12.438   5.091
75059SOL     OW26950  14.144   4.092   5.459
75059SOL    HW126951  14.161   4.015   5.406
75059SOL    HW226952  14.070   4.135   5.415
75060SOL     OW26953   8.836  12.394  10.682
75060SOL    HW126954   8.921  12.435  10.671
75060SOL    HW226955   8.837  12.360  10.772
75061SOL     OW26956  10.238   7.803   3.711
75061SOL    HW126957  10.257   7.780   3.620
75061SOL    HW226958  10.258   7.897   3.716
75062SOL     OW26959   7.998  12.933   3.534
75062SOL    HW126960   7.914  12.896   3.562
75062SOL    HW226961   8.038  12.966   3.614
75063SOL     OW26962  10.868   7.998  10.749
75063SOL    HW126963  10.884   8.068  10.812
75063SOL    HW226964  10.859   8.043  10.665
75064SOL     OW26965   4.410  10.797   1.657
75064SOL    HW126966   4.365  10.855   1.595
75064SOL    HW226967   4.348  10.727   1.673
75065SOL     OW26968  12.550   5.018   8.013
75065SOL    HW126969  12.631   4.995   7.967
75065SOL    HW226970  12.480   4.996   7.952
75066SOL     OW26971  10.136  10.688   1.543
75066SOL    HW126972  10.090  10.609   1.574
75066SOL    HW226973  10.100  10.704   1.456
75067SOL     OW26974  11.562   1.241  10.057
75067SOL    HW126975  11.524   1.164  10.014
75067SOL    HW226976  11.560   1.310   9.991
75068SOL     OW26977  14.804   8.893   9.954
75068SOL    HW126978  14.742   8.923  10.020
75068SOL    HW226979  14.835   8.973   9.912
75069SOL     OW26980  10.774   7.311   4.587
75069SOL    HW126981  10.738   7.226   4.560
75069SOL    HW226982  10.834   7.335   4.516
75070SOL     OW26983   4.680  10.840  13.188
75070SOL    HW126984   4.680  10.934  13.208
75070SOL    HW226985   4.768  10.823  13.156
75071SOL     OW26986  13.630   4.036  12.952
75071SOL    HW126987  13.575   3.958  12.950
75071SOL    HW226988  13.570   4.108  12.933
75072SOL     OW26989  13.620   1.295   1.542
75072SOL    HW126990  13.677   1.234   1.495
75072SOL    HW226991  13.641   1.282   1.634
75073SOL     OW26992  11.732   2.148   4.751
75073SOL    HW126993  11.721   2.168   4.659
75073SOL    HW226994  11.731   2.233   4.795
75074SOL     OW26995   7.411  10.749   6.559
75074SOL    HW126996   7.418  10.805   6.481
75074SOL    HW226997   7.329  10.701   6.548
75075SOL     OW26998  12.439   6.170   4.486
75075SOL    HW126999  12.380   6.193   4.413
75075SOL    HW227000  12.381   6.128   4.550
75076SOL     OW27001   2.174   4.123  12.888
75076SOL    HW127002   2.084   4.102  12.862
75076SOL    HW227003   2.169   4.213  12.920
75077SOL     OW27004   1.319  12.651  14.164
75077SOL    HW127005   1.249  12.690  14.217
75077SOL    HW227006   1.370  12.598  14.225
75078SOL     OW27007  10.328   8.489  13.990
75078SOL    HW127008  10.356   8.479  14.081
75078SOL    HW227009  10.237   8.519  13.995
75079SOL     OW27010   8.600   9.267   3.101
75079SOL    HW127011   8.570   9.288   3.012
75079SOL    HW227012   8.541   9.199   3.131
75080SOL     OW27013  12.021   4.034  12.007
75080SOL    HW127014  12.039   3.990  12.091
75080SOL    HW227015  11.966   4.109  12.031
75081SOL     OW27016  10.370  10.343  13.331
75081SOL    HW127017  10.331  10.268  13.285
75081SOL    HW227018  10.379  10.411  13.264
75082SOL     OW27019   1.133   2.098   1.643
75082SOL    HW127020   1.046   2.060   1.647
75082SOL    HW227021   1.159   2.091   1.551
75083SOL     OW27022   7.045   2.917   3.931
75083SOL    HW127023   7.112   2.860   3.893
75083SOL    HW227024   7.061   2.913   4.025
75084SOL     OW27025   5.747  12.624  10.473
75084SOL    HW127026   5.799  12.613  10.393
75084SOL    HW227027   5.668  12.670  10.444
75085SOL     OW27028   8.331  11.033  11.254
75085SOL    HW127029   8.396  11.018  11.323
75085SOL    HW227030   8.382  11.069  11.181
75086SOL     OW27031   9.805   0.069   9.608
75086SOL    HW127032   9.871   0.024   9.556
75086SOL    HW227033   9.811   0.030   9.695
75087SOL     OW27034   4.881   2.911   6.476
75087SOL    HW127035   4.794   2.903   6.438
75087SOL    HW227036   4.867   2.905   6.570
75088SOL     OW27037   9.870  13.657   5.994
75088SOL    HW127038   9.878  13.714   6.071
75088SOL    HW227039   9.801  13.595   6.018
75089SOL     OW27040   3.545   0.773   3.038
75089SOL    HW127041   3.523   0.683   3.015
75089SOL    HW227042   3.463   0.810   3.071
75090SOL     OW27043   3.559  14.727  10.656
75090SOL    HW127044   3.466  14.736  10.639
75090SOL    HW227045   3.571  14.758  10.746
75091SOL     OW27046   3.858  13.158   7.413
75091SOL    HW127047   3.926  13.142   7.349
75091SOL    HW227048   3.873  13.249   7.441
75092SOL     OW27049  11.971   1.305   8.383
75092SOL    HW127050  11.990   1.399   8.385
75092SOL    HW227051  11.995   1.274   8.471
75093SOL     OW27052  11.073  13.617   6.118
75093SOL    HW127053  11.143  13.601   6.181
75093SOL    HW227054  11.102  13.572   6.039
75094SOL     OW27055   7.988   7.369   8.826
75094SOL    HW127056   8.065   7.345   8.878
75094SOL    HW227057   8.023   7.424   8.756
75095SOL     OW27058   2.880  14.822  11.418
75095SOL    HW127059   2.890  14.858  11.506
75095SOL    HW227060   2.786  14.827  11.401
75096SOL     OW27061  12.380   2.452  10.959
75096SOL    HW127062  12.407   2.514  10.892
75096SOL    HW227063  12.389   2.366  10.918
75097SOL     OW27064  10.386   3.044  10.823
75097SOL    HW127065  10.461   2.987  10.804
75097SOL    HW227066  10.321   2.986  10.862
75098SOL     OW27067   1.110   7.751   3.290
75098SOL    HW127068   1.192   7.704   3.304
75098SOL    HW227069   1.130   7.813   3.220
75099SOL     OW27070  14.464   1.060  11.601
75099SOL    HW127071  14.468   0.985  11.661
75099SOL    HW227072  14.505   1.131  11.650
75100SOL     OW27073   8.239  14.406  11.115
75100SOL    HW127074   8.289  14.486  11.134
75100SOL    HW227075   8.307  14.341  11.097
75101SOL     OW27076  11.779   2.432  10.295
75101SOL    HW127077  11.708   2.408  10.235
75101SOL    HW227078  11.772   2.527  10.304
75102SOL     OW27079   7.587   2.422   5.390
75102SOL    HW127080   7.556   2.464   5.309
75102SOL    HW227081   7.683   2.426   5.383
75103SOL     OW27082   9.164   9.810   1.079
75103SOL    HW127083   9.244   9.847   1.042
75103SOL    HW227084   9.101   9.881   1.076
75104SOL     OW27085   6.866   0.010   5.574
75104SOL    HW127086   6.799   0.067   5.611
75104SOL    HW227087   6.841  14.879   5.483
75105SOL     OW27088   8.002   4.055   7.840
75105SOL    HW127089   7.924   4.094   7.800
75105SOL    HW227090   7.969   4.008   7.916
75106SOL     OW27091   1.363   7.495   5.459
75106SOL    HW127092   1.352   7.421   5.518
75106SOL    HW227093   1.304   7.477   5.386
75107SOL     OW27094   6.889   3.765   2.927
75107SOL    HW127095   6.983   3.783   2.937
75107SOL    HW227096   6.882   3.671   2.939
75108SOL     OW27097  13.356   5.935  10.128
75108SOL    HW127098  13.420   6.005  10.115
75108SOL    HW227099  13.322   5.949  10.216
75109SOL     OW27100   2.299   1.487   1.905
75109SOL    HW127101   2.337   1.503   1.992
75109SOL    HW227102   2.357   1.421   1.866
75110SOL     OW27103   0.994   4.765  14.058
75110SOL    HW127104   0.916   4.724  14.097
75110SOL    HW227105   1.046   4.691  14.027
75111SOL     OW27106  14.190   0.703   8.799
75111SOL    HW127107  14.096   0.719   8.795
75111SOL    HW227108  14.226   0.779   8.845
75112SOL     OW27109   5.094   4.280  12.666
75112SOL    HW127110   5.162   4.299  12.601
75112SOL    HW227111   5.136   4.293  12.750
75113SOL     OW27112   3.454  13.928   3.874
75113SOL    HW127113   3.534  13.979   3.885
75113SOL    HW227114   3.383  13.992   3.874
75114SOL     OW27115  10.413  13.785   6.282
75114SOL    HW127116  10.452  13.825   6.360
75114SOL    HW227117  10.356  13.716   6.317
75115SOL     OW27118  11.617   9.808   6.038
75115SOL    HW127119  11.536   9.858   6.022
75115SOL    HW227120  11.681   9.874   6.063
75116SOL     OW27121   6.888   1.095   5.306
75116SOL    HW127122   6.835   1.016   5.315
75116SOL    HW227123   6.976   1.068   5.333
75117SOL     OW27124   1.991  10.862   6.919
75117SOL    HW127125   1.908  10.907   6.903
75117SOL    HW227126   1.986  10.836   7.012
75118SOL     OW27127   5.776   8.884  10.830
75118SOL    HW127128   5.762   8.955  10.892
75118SOL    HW227129   5.764   8.804  10.882
75119SOL     OW27130  12.354   4.924   2.589
75119SOL    HW127131  12.308   5.006   2.608
75119SOL    HW227132  12.320   4.897   2.504
75120SOL     OW27133   2.330  14.878  11.531
75120SOL    HW127134   2.387   0.033  11.600
75120SOL    HW227135   2.289   0.074  11.492
75121SOL     OW27136  10.019  13.996   3.652
75121SOL    HW127137  10.106  14.023   3.684
75121SOL    HW227138  10.009  13.906   3.682
75122SOL     OW27139   0.678   6.440   0.146
75122SOL    HW127140   0.695   6.385   0.069
75122SOL    HW227141   0.584   6.455   0.144
75123SOL     OW27142   0.836   9.580  13.859
75123SOL    HW127143   0.907   9.601  13.919
75123SOL    HW227144   0.773   9.651  13.871
75124SOL     OW27145   2.093   8.312   5.008
75124SOL    HW127146   2.076   8.252   4.936
75124SOL    HW227147   2.037   8.280   5.079
75125SOL     OW27148  14.623  11.388   7.070
75125SOL    HW127149  14.710  11.348   7.068
75125SOL    HW227150  14.597  11.392   6.978
75126SOL     OW27151   9.319   6.916  12.849
75126SOL    HW127152   9.296   6.942  12.760
75126SOL    HW227153   9.235   6.893  12.889
75127SOL     OW27154  10.243  13.985  14.133
75127SOL    HW127155  10.331  14.020  14.121
75127SOL    HW227156  10.209  13.973  14.044
75128SOL     OW27157   1.830   6.504   6.407
75128SOL    HW127158   1.865   6.423   6.445
75128SOL    HW227159   1.735   6.491   6.406
75129SOL     OW27160   2.446   9.463  14.515
75129SOL    HW127161   2.505   9.389  14.503
75129SOL    HW227162   2.502   9.540  14.504
75130SOL     OW27163   4.237  11.588   2.304
75130SOL    HW127164   4.144  11.565   2.309
75130SOL    HW227165   4.281  11.507   2.280
75131SOL     OW27166  14.084   3.388  13.911
75131SOL    HW127167  14.153   3.411  13.974
75131SOL    HW227168  14.026   3.464  13.911
75132SOL     OW27169   4.255   5.228  12.819
75132SOL    HW127170   4.242   5.134  12.803
75132SOL    HW227171   4.345   5.244  12.792
75133SOL     OW27172   9.353   5.729  14.176
75133SOL    HW127173   9.414   5.655  14.168
75133SOL    HW227174   9.283   5.709  14.114
75134SOL     OW27175   2.655   7.665   4.681
75134SOL    HW127176   2.748   7.640   4.673
75134SOL    HW227177   2.658   7.757   4.706
75135SOL     OW27178   6.931  10.639   1.875
75135SOL    HW127179   6.988  10.602   1.807
75135SOL    HW227180   6.983  10.633   1.955
75136SOL     OW27181   9.179   0.004   4.243
75136SOL    HW127182   9.097  14.837   4.236
75136SOL    HW227183   9.181   0.037   4.333
75137SOL     OW27184   5.442  10.002   6.324
75137SOL    HW127185   5.506   9.948   6.278
75137SOL    HW227186   5.493  10.071   6.366
75138SOL     OW27187   0.776   4.362  11.444
75138SOL    HW127188   0.746   4.305  11.374
75138SOL    HW227189   0.830   4.306  11.499
75139SOL     OW27190   0.797  13.166   0.978
75139SOL    HW127191   0.823  13.120   0.898
75139SOL    HW227192   0.861  13.138   1.044
75140SOL     OW27193   2.146   3.682   1.955
75140SOL    HW127194   2.157   3.621   1.882
75140SOL    HW227195   2.099   3.756   1.917
75141SOL     OW27196   1.551   4.096  10.069
75141SOL    HW127197   1.631   4.074  10.022
75141SOL    HW227198   1.512   4.166  10.017
75142SOL     OW27199   8.542   5.893   9.556
75142SOL    HW127200   8.612   5.954   9.578
75142SOL    HW227201   8.468   5.949   9.532
75143SOL     OW27202  10.462   3.071   1.441
75143SOL    HW127203  10.535   3.031   1.394
75143SOL    HW227204  10.464   3.163   1.415
75144SOL     OW27205   8.205   7.898  10.917
75144SOL    HW127206   8.261   7.865  10.988
75144SOL    HW227207   8.158   7.820  10.886
75145SOL     OW27208  10.569   7.180  10.496
75145SOL    HW127209  10.491   7.138  10.459
75145SOL    HW227210  10.616   7.215  10.421
75146SOL     OW27211   3.074   0.669  13.295
75146SOL    HW127212   3.167   0.664  13.317
75146SOL    HW227213   3.050   0.760  13.312
75147SOL     OW27214   9.403  11.451   1.533
75147SOL    HW127215   9.415  11.424   1.624
75147SOL    HW227216   9.316  11.419   1.510
75148SOL     OW27217   4.479  12.289   0.395
75148SOL    HW127218   4.473  12.365   0.453
75148SOL    HW227219   4.571  12.261   0.401
75149SOL     OW27220   0.079  14.229  10.056
75149SOL    HW127221   0.120  14.300  10.007
75149SOL    HW227222   0.149  14.164  10.067
75150SOL     OW27223   4.271  12.818  14.633
75150SOL    HW127224   4.260  12.884  14.700
75150SOL    HW227225   4.301  12.866  14.556
75151SOL     OW27226  12.011   9.134  11.449
75151SOL    HW127227  12.082   9.087  11.406
75151SOL    HW227228  12.035   9.133  11.542
75152SOL     OW27229   7.101   7.392   9.519
75152SOL    HW127230   7.020   7.443   9.514
75152SOL    HW227231   7.135   7.394   9.430
75153SOL     OW27232  12.868   3.384   3.549
75153SOL    HW127233  12.822   3.446   3.492
75153SOL    HW227234  12.934   3.344   3.492
75154SOL     OW27235   6.556   3.736   3.278
75154SOL    HW127236   6.471   3.725   3.237
75154SOL    HW227237   6.604   3.795   3.220
75155SOL     OW27238   7.396   1.372   2.818
75155SOL    HW127239   7.318   1.375   2.762
75155SOL    HW227240   7.370   1.319   2.893
75156SOL     OW27241   6.016  11.032  10.416
75156SOL    HW127242   6.088  10.984  10.459
75156SOL    HW227243   6.023  11.006  10.324
75157SOL     OW27244   8.984   5.071   8.650
75157SOL    HW127245   8.922   5.061   8.577
75157SOL    HW227246   9.033   4.989   8.650
75158SOL     OW27247   9.690   2.392  13.733
75158SOL    HW127248   9.719   2.307  13.765
75158SOL    HW227249   9.639   2.371  13.654
75159SOL     OW27250   2.384   2.542   2.284
75159SOL    HW127251   2.302   2.574   2.321
75159SOL    HW227252   2.392   2.588   2.200
75160SOL     OW27253   1.520  10.215   0.975
75160SOL    HW127254   1.462  10.143   1.000
75160SOL    HW227255   1.471  10.294   0.996
75161SOL     OW27256   1.532   5.923   9.352
75161SOL    HW127257   1.624   5.899   9.351
75161SOL    HW227258   1.485   5.841   9.334
75162SOL     OW27259   9.136  10.345   6.290
75162SOL    HW127260   9.199  10.415   6.274
75162SOL    HW227261   9.060  10.389   6.328
75163SOL     OW27262   3.547   3.305   5.267
75163SOL    HW127263   3.629   3.353   5.280
75163SOL    HW227264   3.562   3.221   5.312
75164SOL     OW27265  13.148  10.819  13.461
75164SOL    HW127266  13.138  10.732  13.423
75164SOL    HW227267  13.222  10.858  13.415
75165SOL     OW27268  11.239   0.697   2.521
75165SOL    HW127269  11.172   0.756   2.487
75165SOL    HW227270  11.302   0.755   2.564
75166SOL     OW27271   9.166   9.893   5.282
75166SOL    HW127272   9.177   9.952   5.357
75166SOL    HW227273   9.251   9.894   5.238
75167SOL     OW27274  14.233   1.670   2.530
75167SOL    HW127275  14.274   1.729   2.467
75167SOL    HW227276  14.215   1.590   2.481
75168SOL     OW27277   8.311   5.960  11.422
75168SOL    HW127278   8.239   5.947  11.484
75168SOL    HW227279   8.330   5.873  11.388
75169SOL     OW27280   6.845   2.267   3.924
75169SOL    HW127281   6.839   2.360   3.901
75169SOL    HW227282   6.782   2.256   3.996
75170SOL     OW27283   0.415   3.249   0.468
75170SOL    HW127284   0.358   3.199   0.409
75170SOL    HW227285   0.482   3.187   0.494
75171SOL     OW27286  11.239   8.183   7.234
75171SOL    HW127287  11.317   8.194   7.180
75171SOL    HW227288  11.267   8.210   7.322
75172SOL     OW27289   3.817   9.096   9.059
75172SOL    HW127290   3.785   9.095   8.968
75172SOL    HW227291   3.912   9.108   9.051
75173SOL     OW27292  10.186  13.406   2.591
75173SOL    HW127293  10.264  13.409   2.535
75173SOL    HW227294  10.114  13.431   2.533
75174SOL     OW27295   0.182   6.749  12.517
75174SOL    HW127296   0.128   6.699  12.456
75174SOL    HW227297   0.132   6.752  12.598
75175SOL     OW27298   7.035   2.649   3.171
75175SOL    HW127299   7.033   2.562   3.212
75175SOL    HW227300   7.079   2.705   3.235
75176SOL     OW27301   9.889   4.472   7.789
75176SOL    HW127302   9.874   4.471   7.883
75176SOL    HW227303   9.957   4.539   7.776
75177SOL     OW27304   4.436   2.675  12.469
75177SOL    HW127305   4.441   2.673  12.373
75177SOL    HW227306   4.343   2.662  12.489
75178SOL     OW27307   4.795  11.966  12.423
75178SOL    HW127308   4.815  11.957  12.516
75178SOL    HW227309   4.729  11.899  12.405
75179SOL     OW27310  14.573  13.449   8.106
75179SOL    HW127311  14.561  13.456   8.201
75179SOL    HW227312  14.528  13.367   8.083
75180SOL     OW27313   0.173   2.942  10.802
75180SOL    HW127314   0.096   2.922  10.748
75180SOL    HW227315   0.183   3.037  10.794
75181SOL     OW27316   6.468   3.412   8.278
75181SOL    HW127317   6.448   3.330   8.233
75181SOL    HW227318   6.398   3.472   8.250
75182SOL     OW27319   5.447  14.010   4.727
75182SOL    HW127320   5.384  14.082   4.736
75182SOL    HW227321   5.528  14.052   4.698
75183SOL     OW27322  11.303   6.449   2.401
75183SOL    HW127323  11.263   6.531   2.371
75183SOL    HW227324  11.387   6.446   2.355
75184SOL     OW27325   1.710   1.270   0.621
75184SOL    HW127326   1.802   1.297   0.631
75184SOL    HW227327   1.714   1.194   0.563
75185SOL     OW27328  14.250  11.521  10.113
75185SOL    HW127329  14.169  11.567  10.091
75185SOL    HW227330  14.302  11.525  10.032
75186SOL     OW27331  11.752   2.721   1.854
75186SOL    HW127332  11.749   2.678   1.940
75186SOL    HW227333  11.833   2.772   1.856
75187SOL     OW27334   4.969   5.986   7.173
75187SOL    HW127335   4.929   6.062   7.131
75187SOL    HW227336   5.022   6.022   7.244
75188SOL     OW27337   8.869   1.592   7.654
75188SOL    HW127338   8.931   1.629   7.591
75188SOL    HW227339   8.785   1.591   7.608
75189SOL     OW27340  13.565   8.271   0.374
75189SOL    HW127341  13.575   8.295   0.466
75189SOL    HW227342  13.473   8.249   0.364
75190SOL     OW27343   3.970   4.905  13.734
75190SOL    HW127344   3.908   4.877  13.667
75190SOL    HW227345   3.920   4.902  13.816
75191SOL     OW27346   0.288   0.429   2.533
75191SOL    HW127347   0.361   0.370   2.551
75191SOL    HW227348   0.279   0.482   2.612
75192SOL     OW27349  14.463   8.071   6.491
75192SOL    HW127350  14.479   8.157   6.529
75192SOL    HW227351  14.536   8.057   6.431
75193SOL     OW27352   6.354  11.716   6.563
75193SOL    HW127353   6.364  11.747   6.653
75193SOL    HW227354   6.315  11.790   6.516
75194SOL     OW27355  13.836   8.209  13.170
75194SOL    HW127356  13.755   8.212  13.118
75194SOL    HW227357  13.887   8.138  13.132
75195SOL     OW27358  14.532   8.454   9.267
75195SOL    HW127359  14.564   8.544   9.279
75195SOL    HW227360  14.585   8.402   9.327
75196SOL     OW27361   6.145   5.100   2.326
75196SOL    HW127362   6.239   5.084   2.338
75196SOL    HW227363   6.115   5.025   2.275
75197SOL     OW27364  14.207  11.823   3.867
75197SOL    HW127365  14.278  11.862   3.917
75197SOL    HW227366  14.236  11.734   3.849
75198SOL     OW27367  14.213   1.887   0.373
75198SOL    HW127368  14.132   1.939   0.367
75198SOL    HW227369  14.246   1.883   0.284
75199SOL     OW27370  13.904   9.719   4.700
75199SOL    HW127371  13.832   9.754   4.648
75199SOL    HW227372  13.909   9.627   4.674
75200SOL     OW27373   2.782   1.773  14.407
75200SOL    HW127374   2.774   1.679  14.427
75200SOL    HW227375   2.842   1.807  14.474
75201SOL     OW27376   2.952   3.144  14.107
75201SOL    HW127377   3.030   3.187  14.144
75201SOL    HW227378   2.882   3.207  14.120
75202SOL     OW27379   7.264  11.910   3.183
75202SOL    HW127380   7.288  11.957   3.104
75202SOL    HW227381   7.221  11.975   3.238
75203SOL     OW27382   0.739   4.345   3.637
75203SOL    HW127383   0.726   4.422   3.692
75203SOL    HW227384   0.785   4.380   3.560
75204SOL     OW27385   8.500  13.607  14.851
75204SOL    HW127386   8.574  13.560   0.008
75204SOL    HW227387   8.506  13.589  14.757
75205SOL     OW27388   4.875   3.373  11.961
75205SOL    HW127389   4.924   3.424  11.897
75205SOL    HW227390   4.822   3.312  11.909
75206SOL     OW27391  14.830  10.985   7.210
75206SOL    HW127392  14.803  10.959   7.122
75206SOL    HW227393  14.867  10.906   7.249
75207SOL     OW27394  13.987   8.376   4.488
75207SOL    HW127395  13.965   8.379   4.581
75207SOL    HW227396  14.081   8.395   4.485
75208SOL     OW27397  12.221   1.206   5.871
75208SOL    HW127398  12.247   1.213   5.779
75208SOL    HW227399  12.139   1.256   5.877
75209SOL     OW27400   5.662  11.893   3.038
75209SOL    HW127401   5.573  11.877   3.070
75209SOL    HW227402   5.708  11.928   3.114
75210SOL     OW27403   3.075  13.283   1.155
75210SOL    HW127404   3.017  13.229   1.209
75210SOL    HW227405   3.139  13.318   1.217
75211SOL     OW27406   1.623   1.835   6.443
75211SOL    HW127407   1.546   1.888   6.463
75211SOL    HW227408   1.690   1.898   6.416
75212SOL     OW27409   2.829  14.760  11.854
75212SOL    HW127410   2.739  14.729  11.848
75212SOL    HW227411   2.874  14.713  11.783
75213SOL     OW27412   0.767  10.934   8.168
75213SOL    HW127413   0.689  10.881   8.158
75213SOL    HW227414   0.835  10.887   8.120
75214SOL     OW27415   3.277   5.843  14.515
75214SOL    HW127416   3.192   5.800  14.500
75214SOL    HW227417   3.264   5.932  14.482
75215SOL     OW27418  14.012   8.601  10.509
75215SOL    HW127419  14.051   8.687  10.495
75215SOL    HW227420  13.930   8.603  10.459
75216SOL     OW27421   4.914   6.707  12.082
75216SOL    HW127422   4.897   6.660  12.000
75216SOL    HW227423   4.870   6.791  12.071
75217SOL     OW27424   3.721   8.916   9.638
75217SOL    HW127425   3.692   8.829   9.611
75217SOL    HW227426   3.641   8.966   9.653
75218SOL     OW27427  14.771  13.428  13.017
75218SOL    HW127428  14.733  13.392  13.097
75218SOL    HW227429  14.836  13.492  13.047
75219SOL     OW27430   7.344   2.276  10.854
75219SOL    HW127431   7.300   2.355  10.884
75219SOL    HW227432   7.414   2.262  10.918
75220SOL     OW27433   8.922   4.337  12.841
75220SOL    HW127434   8.972   4.403  12.792
75220SOL    HW227435   8.938   4.255  12.795
75221SOL     OW27436   9.987  12.613   7.346
75221SOL    HW127437   9.990  12.708   7.355
75221SOL    HW227438   9.894  12.592   7.346
75222SOL     OW27439  11.467   7.767   7.002
75222SOL    HW127440  11.455   7.705   6.930
75222SOL    HW227441  11.431   7.849   6.969
75223SOL     OW27442  14.119   3.237   0.763
75223SOL    HW127443  14.164   3.321   0.756
75223SOL    HW227444  14.057   3.237   0.690
75224SOL     OW27445   0.534  12.456  12.441
75224SOL    HW127446   0.552  12.408  12.360
75224SOL    HW227447   0.465  12.404  12.484
75225SOL     OW27448   7.680   0.640   4.652
75225SOL    HW127449   7.764   0.613   4.614
75225SOL    HW227450   7.665   0.728   4.618
75226SOL     OW27451   3.350   3.919   4.609
75226SOL    HW127452   3.308   3.879   4.533
75226SOL    HW227453   3.438   3.942   4.578
75227SOL     OW27454   7.880   2.320   0.514
75227SOL    HW127455   7.905   2.228   0.509
75227SOL    HW227456   7.877   2.340   0.607
75228SOL     OW27457  13.869   5.446   8.220
75228SOL    HW127458  13.787   5.487   8.250
75228SOL    HW227459  13.846   5.353   8.210
75229SOL     OW27460  11.657  12.738   9.940
75229SOL    HW127461  11.673  12.748   9.846
75229SOL    HW227462  11.573  12.694   9.946
75230SOL     OW27463   2.669  13.137   5.403
75230SOL    HW127464   2.716  13.054   5.412
75230SOL    HW227465   2.738  13.201   5.387
75231SOL     OW27466   9.432  13.406   4.864
75231SOL    HW127467   9.474  13.350   4.928
75231SOL    HW227468   9.372  13.461   4.915
75232SOL     OW27469  11.608   6.066  10.864
75232SOL    HW127470  11.581   5.985  10.909
75232SOL    HW227471  11.599   6.134  10.931
75233SOL     OW27472   9.344   8.305  12.713
75233SOL    HW127473   9.315   8.395  12.698
75233SOL    HW227474   9.308   8.281  12.798
75234SOL     OW27475   8.514   5.255  10.699
75234SOL    HW127476   8.435   5.304  10.724
75234SOL    HW227477   8.549   5.304  10.625
75235SOL     OW27478  10.472   7.020   3.938
75235SOL    HW127479  10.471   7.000   4.032
75235SOL    HW227480  10.565   7.029   3.917
75236SOL     OW27481   9.285   1.815   8.038
75236SOL    HW127482   9.356   1.856   8.087
75236SOL    HW227483   9.317   1.812   7.948
75237SOL     OW27484  11.781   7.668   6.613
75237SOL    HW127485  11.728   7.599   6.574
75237SOL    HW227486  11.771   7.656   6.708
75238SOL     OW27487   2.372  14.754   0.602
75238SOL    HW127488   2.418  14.837   0.598
75238SOL    HW227489   2.416  14.705   0.671
75239SOL     OW27490   1.950   2.019  13.826
75239SOL    HW127491   1.955   1.987  13.916
75239SOL    HW227492   1.897   2.098  13.831
75240SOL     OW27493   3.179  10.187  12.227
75240SOL    HW127494   3.196  10.111  12.172
75240SOL    HW227495   3.127  10.153  12.300
75241SOL     OW27496   5.566  14.829  11.561
75241SOL    HW127497   5.549  14.842  11.467
75241SOL    HW227498   5.574   0.036  11.596
75242SOL     OW27499  10.111  12.065  10.433
75242SOL    HW127500  10.129  12.071  10.527
75242SOL    HW227501  10.138  11.977  10.409
75243SOL     OW27502  10.119   9.948   4.280
75243SOL    HW127503  10.088   9.977   4.366
75243SOL    HW227504  10.067   9.998   4.217
75244SOL     OW27505   4.630  11.440   7.016
75244SOL    HW127506   4.619  11.509   7.082
75244SOL    HW227507   4.694  11.476   6.955
75245SOL     OW27508   9.003   6.534  11.395
75245SOL    HW127509   8.925   6.584  11.419
75245SOL    HW227510   9.049   6.590  11.332
75246SOL     OW27511   1.377   6.658   7.366
75246SOL    HW127512   1.289   6.689   7.387
75246SOL    HW227513   1.433   6.734   7.379
75247SOL     OW27514   9.523   2.116   3.625
75247SOL    HW127515   9.514   2.210   3.612
75247SOL    HW227516   9.614   2.104   3.652
75248SOL     OW27517   8.664   9.738   4.918
75248SOL    HW127518   8.748   9.693   4.927
75248SOL    HW227519   8.599   9.667   4.914
75249SOL     OW27520   5.897   9.093   8.731
75249SOL    HW127521   5.989   9.074   8.716
75249SOL    HW227522   5.867   9.134   8.650
75250SOL     OW27523  12.531   6.510  10.210
75250SOL    HW127524  12.481   6.570  10.266
75250SOL    HW227525  12.618   6.550  10.205
75251SOL     OW27526   5.472   3.890  12.744
75251SOL    HW127527   5.514   3.862  12.663
75251SOL    HW227528   5.398   3.943  12.716
75252SOL     OW27529   2.000   5.721  11.370
75252SOL    HW127530   1.917   5.676  11.353
75252SOL    HW227531   2.053   5.657  11.416
75253SOL     OW27532  10.414  13.391   5.672
75253SOL    HW127533  10.342  13.332   5.650
75253SOL    HW227534  10.406  13.405   5.767
75254SOL     OW27535   1.789   5.989  13.731
75254SOL    HW127536   1.736   5.982  13.652
75254SOL    HW227537   1.763   5.914  13.785
75255SOL     OW27538   5.681  14.261   1.746
75255SOL    HW127539   5.730  14.303   1.816
75255SOL    HW227540   5.747  14.226   1.687
75256SOL     OW27541   7.739  14.570  14.650
75256SOL    HW127542   7.790  14.512  14.593
75256SOL    HW227543   7.797  14.643  14.669
75257SOL     OW27544  11.242   1.539   0.154
75257SOL    HW127545  11.284   1.611   0.199
75257SOL    HW227546  11.149   1.561   0.154
75258SOL     OW27547   8.342   3.072   0.897
75258SOL    HW127548   8.322   3.076   0.803
75258SOL    HW227549   8.398   2.995   0.906
75259SOL     OW27550  14.373  14.734   2.190
75259SOL    HW127551  14.426  14.727   2.111
75259SOL    HW227552  14.429  14.780   2.253
75260SOL     OW27553   7.225   3.284   4.218
75260SOL    HW127554   7.189   3.250   4.300
75260SOL    HW227555   7.156   3.339   4.182
75261SOL     OW27556   1.037   0.069   0.007
75261SOL    HW127557   1.080   0.088  14.805
75261SOL    HW227558   0.989   0.149   0.027
75262SOL     OW27559   9.656   0.730   1.271
75262SOL    HW127560   9.592   0.768   1.332
75262SOL    HW227561   9.661   0.638   1.296
75263SOL     OW27562   1.262   3.184   6.501
75263SOL    HW127563   1.236   3.158   6.413
75263SOL    HW227564   1.260   3.104   6.553
75264SOL     OW27565   0.958  14.545  10.242
75264SOL    HW127566   0.907  14.521  10.165
75264SOL    HW227567   0.921  14.628  10.270
75265SOL     OW27568   3.476   2.878   9.869
75265SOL    HW127569   3.504   2.832   9.789
75265SOL    HW227570   3.381   2.867   9.871
75266SOL     OW27571  10.235   7.826  12.526
75266SOL    HW127572  10.209   7.739  12.495
75266SOL    HW227573  10.272   7.869  12.448
75267SOL     OW27574   0.376  13.207  14.438
75267SOL    HW127575   0.306  13.213  14.503
75267SOL    HW227576   0.330  13.204  14.354
75268SOL     OW27577   7.187   3.842   3.854
75268SOL    HW127578   7.139   3.853   3.937
75268SOL    HW227579   7.130   3.879   3.788
75269SOL     OW27580  11.922  14.595   8.930
75269SOL    HW127581  11.968  14.634   9.005
75269SOL    HW227582  11.832  14.627   8.939
75270SOL     OW27583  10.844  13.866   9.499
75270SOL    HW127584  10.803  13.909   9.573
75270SOL    HW227585  10.780  13.800   9.471
75271SOL     OW27586  11.999   0.556  14.366
75271SOL    HW127587  12.023   0.468  14.338
75271SOL    HW227588  11.931   0.542  14.432
75272SOL     OW27589   2.323   0.592  12.464
75272SOL    HW127590   2.261   0.652  12.422
75272SOL    HW227591   2.361   0.643  12.535
75273SOL     OW27592   1.002   5.589  13.356
75273SOL    HW127593   0.933   5.626  13.411
75273SOL    HW227594   1.053   5.534  13.416
75274SOL     OW27595  13.924   2.440   7.192
75274SOL    HW127596  13.958   2.520   7.231
75274SOL    HW227597  13.860   2.407   7.256
75275SOL     OW27598  13.329   0.463  11.406
75275SOL    HW127599  13.297   0.552  11.389
75275SOL    HW227600  13.364   0.434  11.321
75276SOL     OW27601  14.844   8.396  11.393
75276SOL    HW127602  14.874   8.461  11.456
75276SOL    HW227603  14.866   8.435  11.308
75277SOL     OW27604  14.668   8.427   2.143
75277SOL    HW127605  14.739   8.491   2.145
75277SOL    HW227606  14.707   8.347   2.177
75278SOL     OW27607   2.273   5.703   2.087
75278SOL    HW127608   2.268   5.654   2.005
75278SOL    HW227609   2.183   5.730   2.105
75279SOL     OW27610  11.155   1.239   7.645
75279SOL    HW127611  11.117   1.203   7.725
75279SOL    HW227612  11.166   1.164   7.587
75280SOL     OW27613   2.440   0.839  11.488
75280SOL    HW127614   2.364   0.895  11.502
75280SOL    HW227615   2.493   0.886  11.423
75281SOL     OW27616   4.696  14.696  13.175
75281SOL    HW127617   4.702  14.602  13.196
75281SOL    HW227618   4.638  14.700  13.100
75282SOL     OW27619  13.396   7.058   5.665
75282SOL    HW127620  13.336   6.990   5.634
75282SOL    HW227621  13.340   7.132   5.687
75283SOL     OW27622  11.140   2.760   5.931
75283SOL    HW127623  11.056   2.727   5.899
75283SOL    HW227624  11.180   2.684   5.974
75284SOL     OW27625   6.320   9.013   5.043
75284SOL    HW127626   6.253   9.073   5.074
75284SOL    HW227627   6.373   8.994   5.120
75285SOL     OW27628   1.461   9.544   3.538
75285SOL    HW127629   1.544   9.542   3.491
75285SOL    HW227630   1.399   9.582   3.476
75286SOL     OW27631  10.863   5.325  11.571
75286SOL    HW127632  10.809   5.392  11.614
75286SOL    HW227633  10.939   5.372  11.538
75287SOL     OW27634  13.545   3.400  11.788
75287SOL    HW127635  13.598   3.473  11.758
75287SOL    HW227636  13.602   3.323  11.778
75288SOL     OW27637   7.231   9.527  13.167
75288SOL    HW127638   7.184   9.570  13.096
75288SOL    HW227639   7.166   9.470  13.208
75289SOL     OW27640  13.650  10.687  11.487
75289SOL    HW127641  13.577  10.670  11.427
75289SOL    HW227642  13.679  10.776  11.466
75290SOL     OW27643  12.167   6.733   1.457
75290SOL    HW127644  12.159   6.773   1.543
75290SOL    HW227645  12.083   6.690   1.442
75291SOL     OW27646   8.009  11.387   1.754
75291SOL    HW127647   7.986  11.422   1.668
75291SOL    HW227648   8.005  11.292   1.744
75292SOL     OW27649  12.821   6.707   8.933
75292SOL    HW127650  12.812   6.690   8.839
75292SOL    HW227651  12.890   6.648   8.962
75293SOL     OW27652  14.350   0.657   8.564
75293SOL    HW127653  14.279   0.644   8.627
75293SOL    HW227654  14.341   0.748   8.536
75294SOL     OW27655  12.802   2.622  13.928
75294SOL    HW127656  12.776   2.671  13.850
75294SOL    HW227657  12.742   2.547  13.931
75295SOL     OW27658   3.415   2.091  11.255
75295SOL    HW127659   3.466   2.144  11.316
75295SOL    HW227660   3.477   2.025  11.223
75296SOL     OW27661   5.435   9.648   4.210
75296SOL    HW127662   5.487   9.633   4.131
75296SOL    HW227663   5.500   9.662   4.279
75297SOL     OW27664   5.584   6.909  11.577
75297SOL    HW127665   5.624   6.982  11.624
75297SOL    HW227666   5.635   6.900  11.497
75298SOL     OW27667   3.093   3.845   4.746
75298SOL    HW127668   2.999   3.847   4.766
75298SOL    HW227669   3.103   3.775   4.683
75299SOL     OW27670  12.048  11.156   9.873
75299SOL    HW127671  12.137  11.129   9.849
75299SOL    HW227672  12.037  11.122   9.962
75300SOL     OW27673  10.421  11.813   0.090
75300SOL    HW127674  10.477  11.774   0.157
75300SOL    HW227675  10.405  11.743   0.027
75301SOL     OW27676   1.059  13.756   8.346
75301SOL    HW127677   1.034  13.746   8.254
75301SOL    HW227678   0.984  13.801   8.386
75302SOL     OW27679  12.323   0.553  14.321
75302SOL    HW127680  12.238   0.517  14.347
75302SOL    HW227681  12.387   0.492  14.356
75303SOL     OW27682  12.317  11.742  11.519
75303SOL    HW127683  12.279  11.790  11.445
75303SOL    HW227684  12.381  11.802  11.556
75304SOL     OW27685   4.745   4.818   5.119
75304SOL    HW127686   4.679   4.864   5.067
75304SOL    HW227687   4.705   4.810   5.205
75305SOL     OW27688  13.184   1.017   0.839
75305SOL    HW127689  13.279   1.008   0.848
75305SOL    HW227690  13.160   0.949   0.776
75306SOL     OW27691  12.020   6.059   9.555
75306SOL    HW127692  11.950   6.081   9.494
75306SOL    HW227693  12.057   5.977   9.522
75307SOL     OW27694   3.650   3.469   0.914
75307SOL    HW127695   3.710   3.534   0.951
75307SOL    HW227696   3.654   3.484   0.819
75308SOL     OW27697   6.412   6.148   2.814
75308SOL    HW127698   6.471   6.082   2.776
75308SOL    HW227699   6.399   6.212   2.744
75309SOL     OW27700   3.299  12.600  12.264
75309SOL    HW127701   3.301  12.651  12.346
75309SOL    HW227702   3.331  12.660  12.198
75310SOL     OW27703  14.719   8.488   4.652
75310SOL    HW127704  14.780   8.556   4.623
75310SOL    HW227705  14.639   8.504   4.602
75311SOL     OW27706   0.751  12.490   4.507
75311SOL    HW127707   0.816  12.560   4.506
75311SOL    HW227708   0.696  12.507   4.431
75312SOL     OW27709  11.483   4.467   4.855
75312SOL    HW127710  11.407   4.496   4.805
75312SOL    HW227711  11.551   4.454   4.789
75313SOL     OW27712   0.154  10.976  10.420
75313SOL    HW127713   0.071  10.933  10.440
75313SOL    HW227714   0.138  11.069  10.439
75314SOL     OW27715  14.783  13.442   6.835
75314SOL    HW127716  14.750  13.531   6.848
75314SOL    HW227717  14.781  13.402   6.922
75315SOL     OW27718   7.895   9.237  10.408
75315SOL    HW127719   7.815   9.262  10.362
75315SOL    HW227720   7.942   9.181  10.347
75316SOL     OW27721   3.393   4.494  14.367
75316SOL    HW127722   3.469   4.464  14.417
75316SOL    HW227723   3.429   4.536  14.290
75317SOL     OW27724   8.982  12.791   5.312
75317SOL    HW127725   9.023  12.775   5.227
75317SOL    HW227726   9.028  12.731   5.371
75318SOL     OW27727   9.125   2.213   8.226
75318SOL    HW127728   9.064   2.240   8.157
75318SOL    HW227729   9.212   2.230   8.190
75319SOL     OW27730  12.425  10.067  11.178
75319SOL    HW127731  12.379  10.058  11.095
75319SOL    HW227732  12.413   9.983  11.222
75320SOL     OW27733   6.147  12.800   3.431
75320SOL    HW127734   6.127  12.764   3.345
75320SOL    HW227735   6.103  12.740   3.492
75321SOL     OW27736   1.169   0.075  12.606
75321SOL    HW127737   1.225   0.065  12.529
75321SOL    HW227738   1.114   0.151  12.587
75322SOL     OW27739  12.697  12.533   4.073
75322SOL    HW127740  12.637  12.464   4.045
75322SOL    HW227741  12.754  12.548   3.997
75323SOL     OW27742   6.453  11.920  14.707
75323SOL    HW127743   6.433  12.013  14.698
75323SOL    HW227744   6.524  11.904  14.645
75324SOL     OW27745  13.367   3.712   1.415
75324SOL    HW127746  13.369   3.775   1.486
75324SOL    HW227747  13.455   3.673   1.415
75325SOL     OW27748   6.241  10.052   0.727
75325SOL    HW127749   6.269  10.139   0.753
75325SOL    HW227750   6.150  10.046   0.758
75326SOL     OW27751   4.300  10.431   4.768
75326SOL    HW127752   4.333  10.514   4.733
75326SOL    HW227753   4.209  10.428   4.740
75327SOL     OW27754   0.505  13.794   6.297
75327SOL    HW127755   0.496  13.712   6.248
75327SOL    HW227756   0.416  13.819   6.318
75328SOL     OW27757   8.729   3.259  10.510
75328SOL    HW127758   8.798   3.195  10.492
75328SOL    HW227759   8.667   3.213  10.567
75329SOL     OW27760  10.547   4.008   7.439
75329SOL    HW127761  10.455   4.027   7.454
75329SOL    HW227762  10.568   4.056   7.358
75330SOL     OW27763  13.258   5.410   2.452
75330SOL    HW127764  13.189   5.426   2.516
75330SOL    HW227765  13.243   5.475   2.383
75331SOL     OW27766  14.812  10.219  12.748
75331SOL    HW127767  14.876  10.249  12.683
75331SOL    HW227768  14.821  10.280  12.821
75332SOL     OW27769  11.133   2.366  14.345
75332SOL    HW127770  11.069   2.421  14.390
75332SOL    HW227771  11.137   2.286  14.397
75333SOL     OW27772  10.562   9.562   3.259
75333SOL    HW127773  10.488   9.621   3.246
75333SOL    HW227774  10.631   9.596   3.202
75334SOL     OW27775  11.845   1.020   5.885
75334SOL    HW127776  11.885   0.947   5.932
75334SOL    HW227777  11.909   1.090   5.890
75335SOL     OW27778  12.916   1.859   6.851
75335SOL    HW127779  12.973   1.924   6.812
75335SOL    HW227780  12.848   1.910   6.896
75336SOL     OW27781   6.183   9.876   5.134
75336SOL    HW127782   6.200   9.784   5.118
75336SOL    HW227783   6.234   9.922   5.068
75337SOL     OW27784   5.147  10.934   7.605
75337SOL    HW127785   5.111  10.963   7.689
75337SOL    HW227786   5.212  10.867   7.628
75338SOL     OW27787  10.559   8.792  11.567
75338SOL    HW127788  10.629   8.756  11.622
75338SOL    HW227789  10.518   8.858  11.621
75339SOL     OW27790  11.389  12.498   5.544
75339SOL    HW127791  11.476  12.464   5.567
75339SOL    HW227792  11.361  12.546   5.623
75340SOL     OW27793   1.712   6.508   3.331
75340SOL    HW127794   1.653   6.515   3.406
75340SOL    HW227795   1.704   6.592   3.287
75341SOL     OW27796  12.553   7.586   1.881
75341SOL    HW127797  12.558   7.665   1.935
75341SOL    HW227798  12.470   7.594   1.834
75342SOL     OW27799   1.718   4.048  13.950
75342SOL    HW127800   1.794   3.990  13.963
75342SOL    HW227801   1.688   4.067  14.039
75343SOL     OW27802   1.831   9.816  14.871
75343SOL    HW127803   1.868   9.728   0.000
75343SOL    HW227804   1.766   9.806  14.802
75344SOL     OW27805   5.268   5.244   1.841
75344SOL    HW127806   5.284   5.337   1.825
75344SOL    HW227807   5.300   5.200   1.762
75345SOL     OW27808  10.133  13.350   4.999
75345SOL    HW127809  10.125  13.445   5.008
75345SOL    HW227810  10.202  13.326   5.060
75346SOL     OW27811   7.290   3.718  10.686
75346SOL    HW127812   7.213   3.690  10.735
75346SOL    HW227813   7.257   3.781  10.622
75347SOL     OW27814   8.740   9.598  14.820
75347SOL    HW127815   8.681   9.619  14.747
75347SOL    HW227816   8.805   9.669  14.820
75348SOL     OW27817   3.207   9.683  12.856
75348SOL    HW127818   3.183   9.616  12.921
75348SOL    HW227819   3.300   9.668  12.839
75349SOL     OW27820  14.154   8.975   2.703
75349SOL    HW127821  14.093   9.046   2.683
75349SOL    HW227822  14.208   9.009   2.774
75350SOL     OW27823  14.208   9.069   0.982
75350SOL    HW127824  14.250   9.035   0.903
75350SOL    HW227825  14.173   9.154   0.956
75351SOL     OW27826   2.911  10.946  10.954
75351SOL    HW127827   2.942  11.036  10.943
75351SOL    HW227828   2.971  10.908  11.018
75352SOL     OW27829   8.173   5.611   0.142
75352SOL    HW127830   8.081   5.590   0.123
75352SOL    HW227831   8.191   5.690   0.092
75353SOL     OW27832  12.482  13.393  12.362
75353SOL    HW127833  12.448  13.450  12.430
75353SOL    HW227834  12.412  13.329  12.346
75354SOL     OW27835  13.960   1.390   4.217
75354SOL    HW127836  13.948   1.480   4.188
75354SOL    HW227837  13.937   1.391   4.310
75355SOL     OW27838   9.932  11.451  12.043
75355SOL    HW127839   9.968  11.537  12.064
75355SOL    HW227840  10.007  11.399  12.013
75356SOL     OW27841   7.843   0.023   4.910
75356SOL    HW127842   7.840  14.826   4.964
75356SOL    HW227843   7.818  14.875   4.822
75357SOL     OW27844   9.123  13.056   8.526
75357SOL    HW127845   9.092  13.114   8.596
75357SOL    HW227846   9.131  12.970   8.567
75358SOL     OW27847   2.057  13.171  14.229
75358SOL    HW127848   2.119  13.141  14.295
75358SOL    HW227849   2.059  13.103  14.161
75359SOL     OW27850   4.184  12.194  11.566
75359SOL    HW127851   4.133  12.221  11.490
75359SOL    HW227852   4.264  12.156  11.528
75360SOL     OW27853   1.359   5.563   5.893
75360SOL    HW127854   1.324   5.535   5.808
75360SOL    HW227855   1.415   5.638   5.871
75361SOL     OW27856   1.732   1.014  11.042
75361SOL    HW127857   1.815   1.063  11.040
75361SOL    HW227858   1.721   0.984  10.952
75362SOL     OW27859  11.886   2.824   1.400
75362SOL    HW127860  11.932   2.833   1.317
75362SOL    HW227861  11.888   2.730   1.419
75363SOL     OW27862   0.311   1.454  11.326
75363SOL    HW127863   0.312   1.381  11.388
75363SOL    HW227864   0.256   1.423  11.254
75364SOL     OW27865   0.105  13.815   8.999
75364SOL    HW127866   0.027  13.819   9.054
75364SOL    HW227867   0.133  13.906   8.990
75365SOL     OW27868   3.498   8.786  12.355
75365SOL    HW127869   3.546   8.867  12.370
75365SOL    HW227870   3.555   8.736  12.296
75366SOL     OW27871  11.406   2.546   5.637
75366SOL    HW127872  11.496   2.550   5.668
75366SOL    HW227873  11.406   2.476   5.572
75367SOL     OW27874  10.446   3.908   8.610
75367SOL    HW127875  10.526   3.907   8.558
75367SOL    HW227876  10.456   3.982   8.670
75368SOL     OW27877  11.688   5.635   3.022
75368SOL    HW127878  11.656   5.569   2.960
75368SOL    HW227879  11.650   5.717   2.990
75369SOL     OW27880   9.815   3.772   4.000
75369SOL    HW127881   9.871   3.697   4.015
75369SOL    HW227882   9.865   3.847   4.032
75370SOL     OW27883  10.647  14.458   6.515
75370SOL    HW127884  10.698  14.380   6.495
75370SOL    HW227885  10.686  14.526   6.460
75371SOL     OW27886  14.267   6.572   5.119
75371SOL    HW127887  14.175   6.580   5.098
75371SOL    HW227888  14.276   6.614   5.205
75372SOL     OW27889   4.010  11.374  11.051
75372SOL    HW127890   3.929  11.412  11.084
75372SOL    HW227891   4.071  11.447  11.045
75373SOL     OW27892   2.905  10.659   5.948
75373SOL    HW127893   2.885  10.752   5.960
75373SOL    HW227894   3.001  10.654   5.950
75374SOL     OW27895  12.048   0.415   5.598
75374SOL    HW127896  12.103   0.369   5.534
75374SOL    HW227897  11.993   0.346   5.635
75375SOL     OW27898   0.066   5.671   7.918
75375SOL    HW127899   0.101   5.760   7.912
75375SOL    HW227900   0.064   5.640   7.827
75376SOL     OW27901   7.339  14.215  11.630
75376SOL    HW127902   7.381  14.154  11.691
75376SOL    HW227903   7.259  14.243  11.676
75377SOL     OW27904   7.887   5.919   3.655
75377SOL    HW127905   7.892   5.948   3.746
75377SOL    HW227906   7.829   5.981   3.612
75378SOL     OW27907   4.244  14.189   0.776
75378SOL    HW127908   4.279  14.277   0.759
75378SOL    HW227909   4.280  14.165   0.861
75379SOL     OW27910   0.276   0.462   3.303
75379SOL    HW127911   0.316   0.502   3.381
75379SOL    HW227912   0.349   0.453   3.242
75380SOL     OW27913   7.385   9.943  10.496
75380SOL    HW127914   7.298   9.982  10.493
75380SOL    HW227915   7.368   9.849  10.501
75381SOL     OW27916   6.409  14.685   3.565
75381SOL    HW127917   6.364  14.699   3.482
75381SOL    HW227918   6.473  14.756   3.569
75382SOL     OW27919  10.751  12.928  13.310
75382SOL    HW127920  10.656  12.929  13.302
75382SOL    HW227921  10.774  12.836  13.319
75383SOL     OW27922   1.076   3.056  13.034
75383SOL    HW127923   0.986   3.027  13.045
75383SOL    HW227924   1.083   3.134  13.090
75384SOL     OW27925  12.588   6.992  12.397
75384SOL    HW127926  12.543   7.076  12.397
75384SOL    HW227927  12.650   6.997  12.325
75385SOL     OW27928   8.922  11.904   7.931
75385SOL    HW127929   8.880  11.981   7.892
75385SOL    HW227930   8.883  11.830   7.886
75386SOL     OW27931   7.081  13.492  12.278
75386SOL    HW127932   7.115  13.411  12.315
75386SOL    HW227933   7.031  13.533  12.349
75387SOL     OW27934  11.476   8.538   7.540
75387SOL    HW127935  11.417   8.522   7.613
75387SOL    HW227936  11.550   8.585   7.579
75388SOL     OW27937  14.004   7.553   5.894
75388SOL    HW127938  13.998   7.579   5.986
75388SOL    HW227939  13.921   7.510   5.875
75389SOL     OW27940   0.446   4.049   8.866
75389SOL    HW127941   0.512   4.110   8.897
75389SOL    HW227942   0.490   3.999   8.797
75390SOL     OW27943   5.318  12.905   2.744
75390SOL    HW127944   5.368  12.875   2.668
75390SOL    HW227945   5.321  12.831   2.805
75391SOL     OW27946   1.333   6.723  12.259
75391SOL    HW127947   1.345   6.658  12.327
75391SOL    HW227948   1.324   6.806  12.306
75392SOL     OW27949   8.576   2.511  14.618
75392SOL    HW127950   8.521   2.494  14.543
75392SOL    HW227951   8.584   2.606  14.622
75393SOL     OW27952   0.685   0.192  12.522
75393SOL    HW127953   0.703   0.285  12.535
75393SOL    HW227954   0.608   0.175  12.576
75394SOL     OW27955  10.846   8.784   8.568
75394SOL    HW127956  10.884   8.763   8.483
75394SOL    HW227957  10.919   8.817   8.620
75395SOL     OW27958   3.975  11.599   3.638
75395SOL    HW127959   4.064  11.610   3.672
75395SOL    HW227960   3.977  11.639   3.551
75396SOL     OW27961  13.564  10.168   4.395
75396SOL    HW127962  13.472  10.158   4.370
75396SOL    HW227963  13.613  10.117   4.330
75397SOL     OW27964   6.710   8.551   5.550
75397SOL    HW127965   6.702   8.455   5.551
75397SOL    HW227966   6.719   8.573   5.458
75398SOL     OW27967   8.941  12.996   2.046
75398SOL    HW127968   8.906  12.975   1.960
75398SOL    HW227969   8.866  13.028   2.095
75399SOL     OW27970   0.194   4.258  10.771
75399SOL    HW127971   0.162   4.209  10.847
75399SOL    HW227972   0.130   4.328  10.759
75400SOL     OW27973  14.870   3.107   0.344
75400SOL    HW127974   0.035   3.123   0.262
75400SOL    HW227975   0.056   3.079   0.406
75401SOL     OW27976  13.742   7.624  13.876
75401SOL    HW127977  13.731   7.550  13.816
75401SOL    HW227978  13.680   7.689  13.845
75402SOL     OW27979   0.999   2.939   9.199
75402SOL    HW127980   1.004   2.976   9.111
75402SOL    HW227981   0.996   3.015   9.257
75403SOL     OW27982  12.821   6.952   7.012
75403SOL    HW127983  12.819   6.863   7.046
75403SOL    HW227984  12.740   6.992   7.044
75404SOL     OW27985  12.099   5.929  14.408
75404SOL    HW127986  12.192   5.938  14.387
75404SOL    HW227987  12.097   5.916  14.503
75405SOL     OW27988   1.946  10.206   9.802
75405SOL    HW127989   1.989  10.267   9.743
75405SOL    HW227990   1.992  10.217   9.886
75406SOL     OW27991   5.238  12.207  11.925
75406SOL    HW127992   5.265  12.132  11.977
75406SOL    HW227993   5.247  12.282  11.985
75407SOL     OW27994   6.924   2.115   5.842
75407SOL    HW127995   6.957   2.027   5.857
75407SOL    HW227996   6.992   2.158   5.790
75408SOL     OW27997   0.459   3.106   3.340
75408SOL    HW127998   0.387   3.043   3.335
75408SOL    HW227999   0.424   3.179   3.391
75409SOL     OW28000  14.711   2.945   5.584
75409SOL    HW128001  14.754   2.876   5.635
75409SOL    HW228002  14.743   3.027   5.622
75410SOL     OW28003  13.123   7.899   9.709
75410SOL    HW128004  13.058   7.898   9.639
75410SOL    HW228005  13.074   7.872   9.787
75411SOL     OW28006   2.197   9.076   4.184
75411SOL    HW128007   2.285   9.081   4.146
75411SOL    HW228008   2.150   9.016   4.127
75412SOL     OW28009   3.166   6.317   1.541
75412SOL    HW128010   3.150   6.348   1.451
75412SOL    HW228011   3.160   6.397   1.594
75413SOL     OW28012   9.294   9.611   4.306
75413SOL    HW128013   9.237   9.624   4.381
75413SOL    HW228014   9.255   9.537   4.259
75414SOL     OW28015   5.340   4.738   8.536
75414SOL    HW128016   5.310   4.706   8.621
75414SOL    HW228017   5.367   4.659   8.489
75415SOL     OW28018  11.563   1.213   3.375
75415SOL    HW128019  11.520   1.190   3.292
75415SOL    HW228020  11.501   1.272   3.418
75416SOL     OW28021  13.506  11.303   3.636
75416SOL    HW128022  13.541  11.259   3.713
75416SOL    HW228023  13.573  11.368   3.612
75417SOL     OW28024   2.771   6.421   2.106
75417SOL    HW128025   2.747   6.438   2.015
75417SOL    HW228026   2.723   6.342   2.130
75418SOL     OW28027   6.032   2.917  11.404
75418SOL    HW128028   5.947   2.887  11.435
75418SOL    HW228029   6.096   2.871  11.458
75419SOL     OW28030   4.634   0.849   3.566
75419SOL    HW128031   4.705   0.821   3.508
75419SOL    HW228032   4.679   0.880   3.645
75420SOL     OW28033   1.846  11.396  14.440
75420SOL    HW128034   1.775  11.440  14.487
75420SOL    HW228035   1.883  11.464  14.384
75421SOL     OW28036  12.696   4.135   7.351
75421SOL    HW128037  12.685   4.211   7.409
75421SOL    HW228038  12.611   4.092   7.352
75422SOL     OW28039   6.663   7.817   1.955
75422SOL    HW128040   6.692   7.732   1.921
75422SOL    HW228041   6.743   7.866   1.970
75423SOL     OW28042  14.640   8.674   2.840
75423SOL    HW128043  14.729   8.706   2.833
75423SOL    HW228044  14.639   8.593   2.788
75424SOL     OW28045   2.193   1.056   0.428
75424SOL    HW128046   2.173   0.972   0.470
75424SOL    HW228047   2.111   1.106   0.434
75425SOL     OW28048  13.380  14.752   0.345
75425SOL    HW128049  13.413  14.839   0.367
75425SOL    HW228050  13.294  14.768   0.306
75426SOL     OW28051  10.798  13.998   5.705
75426SOL    HW128052  10.767  13.938   5.638
75426SOL    HW228053  10.854  14.060   5.657
75427SOL     OW28054  12.647   7.407   2.756
75427SOL    HW128055  12.680   7.335   2.703
75427SOL    HW228056  12.624   7.475   2.694
75428SOL     OW28057   9.132   4.645   5.176
75428SOL    HW128058   9.142   4.707   5.104
75428SOL    HW228059   9.037   4.637   5.188
75429SOL     OW28060   7.900   0.932   0.785
75429SOL    HW128061   7.927   0.860   0.728
75429SOL    HW228062   7.951   0.918   0.866
75430SOL     OW28063   0.632   8.047  11.152
75430SOL    HW128064   0.692   8.005  11.213
75430SOL    HW228065   0.624   8.137  11.185
75431SOL     OW28066   3.071  14.762  11.976
75431SOL    HW128067   3.104  14.851  11.963
75431SOL    HW228068   2.977  14.768  11.954
75432SOL     OW28069   7.071   6.764   4.607
75432SOL    HW128070   7.148   6.725   4.649
75432SOL    HW228071   7.033   6.693   4.556
75433SOL     OW28072   3.712   3.298   1.116
75433SOL    HW128073   3.671   3.356   1.051
75433SOL    HW228074   3.676   3.326   1.200
75434SOL     OW28075   2.031   4.659   8.885
75434SOL    HW128076   2.002   4.686   8.798
75434SOL    HW228077   2.123   4.684   8.888
75435SOL     OW28078   5.293  10.057   5.404
75435SOL    HW128079   5.252  10.112   5.471
75435SOL    HW228080   5.333  10.120   5.343
75436SOL     OW28081  12.418  11.417  12.430
75436SOL    HW128082  12.445  11.492  12.377
75436SOL    HW228083  12.356  11.370  12.375
75437SOL     OW28084  14.717   9.702  13.337
75437SOL    HW128085  14.718   9.641  13.411
75437SOL    HW228086  14.751   9.650  13.263
75438SOL     OW28087   4.160  12.783  13.827
75438SOL    HW128088   4.139  12.708  13.883
75438SOL    HW228089   4.082  12.795  13.773
75439SOL     OW28090   9.676   7.537  13.121
75439SOL    HW128091   9.592   7.534  13.076
75439SOL    HW228092   9.682   7.454  13.167
75440SOL     OW28093   5.301   2.287   9.762
75440SOL    HW128094   5.297   2.249   9.674
75440SOL    HW228095   5.390   2.322   9.768
75441SOL     OW28096  13.646   5.532   8.011
75441SOL    HW128097  13.574   5.471   8.022
75441SOL    HW228098  13.717   5.480   7.973
75442SOL     OW28099  11.066   4.941   4.137
75442SOL    HW128100  11.095   4.934   4.227
75442SOL    HW228101  10.986   4.993   4.141
75443SOL     OW28102   9.152  12.397  14.413
75443SOL    HW128103   9.208  12.450  14.470
75443SOL    HW228104   9.095  12.460  14.369
75444SOL     OW28105  14.382  14.006   1.164
75444SOL    HW128106  14.348  14.040   1.081
75444SOL    HW228107  14.454  13.948   1.138
75445SOL     OW28108   6.421   0.898   7.182
75445SOL    HW128109   6.420   0.915   7.088
75445SOL    HW228110   6.341   0.849   7.198
75446SOL     OW28111   1.011   0.328   7.666
75446SOL    HW128112   0.998   0.338   7.572
75446SOL    HW228113   1.065   0.249   7.674
75447SOL     OW28114   1.556   1.876   2.407
75447SOL    HW128115   1.509   1.937   2.350
75447SOL    HW228116   1.517   1.791   2.387
75448SOL     OW28117  13.980   9.223   3.514
75448SOL    HW128118  14.011   9.241   3.425
75448SOL    HW228119  13.951   9.132   3.512
75449SOL     OW28120  13.419   6.139   5.482
75449SOL    HW128121  13.459   6.195   5.416
75449SOL    HW228122  13.458   6.053   5.466
75450SOL     OW28123  12.478   1.317   2.091
75450SOL    HW128124  12.411   1.377   2.059
75450SOL    HW228125  12.432   1.234   2.106
75451SOL     OW28126  11.276  10.003  10.677
75451SOL    HW128127  11.322   9.959  10.749
75451SOL    HW228128  11.183  10.000  10.703
75452SOL     OW28129  10.821  11.753  13.658
75452SOL    HW128130  10.757  11.694  13.699
75452SOL    HW228131  10.785  11.840  13.672
75453SOL     OW28132   5.560   2.052   0.849
75453SOL    HW128133   5.582   2.031   0.940
75453SOL    HW228134   5.486   2.111   0.856
75454SOL     OW28135   5.562  11.712  14.440
75454SOL    HW128136   5.564  11.805  14.417
75454SOL    HW228137   5.560  11.667  14.356
75455SOL     OW28138  12.035   9.571   8.728
75455SOL    HW128139  12.113   9.613   8.693
75455SOL    HW228140  12.021   9.614   8.813
75456SOL     OW28141   9.411   2.277  10.890
75456SOL    HW128142   9.399   2.253  10.798
75456SOL    HW228143   9.506   2.284  10.901
75457SOL     OW28144   2.628   3.034   6.654
75457SOL    HW128145   2.661   3.084   6.729
75457SOL    HW228146   2.544   3.073   6.634
75458SOL     OW28147  13.916   7.739   8.770
75458SOL    HW128148  13.894   7.662   8.718
75458SOL    HW228149  13.903   7.813   8.711
75459SOL     OW28150   8.308  12.307   0.347
75459SOL    HW128151   8.399  12.283   0.329
75459SOL    HW228152   8.293  12.384   0.293
75460SOL     OW28153   6.698  13.118   6.699
75460SOL    HW128154   6.752  13.194   6.717
75460SOL    HW228155   6.621  13.130   6.754
75461SOL     OW28156  10.140   3.326   9.742
75461SOL    HW128157  10.197   3.281   9.806
75461SOL    HW228158  10.169   3.292   9.657
75462SOL     OW28159  11.808   3.122   4.836
75462SOL    HW128160  11.868   3.069   4.785
75462SOL    HW228161  11.742   3.151   4.773
75463SOL     OW28162   2.546   3.467   4.719
75463SOL    HW128163   2.459   3.495   4.747
75463SOL    HW228164   2.545   3.474   4.624
75464SOL     OW28165   2.492  11.602   7.042
75464SOL    HW128166   2.416  11.544   7.038
75464SOL    HW228167   2.456  11.689   7.022
75465SOL     OW28168  10.888   5.320   0.963
75465SOL    HW128169  10.864   5.359   1.047
75465SOL    HW228170  10.813   5.265   0.940
75466SOL     OW28171   6.343  13.556   0.650
75466SOL    HW128172   6.342  13.474   0.602
75466SOL    HW228173   6.318  13.623   0.586
75467SOL     OW28174   4.014  10.079  14.505
75467SOL    HW128175   3.979  10.096  14.417
75467SOL    HW228176   4.108  10.095  14.497
75468SOL     OW28177   1.978  12.431   0.680
75468SOL    HW128178   2.034  12.381   0.621
75468SOL    HW228179   1.910  12.370   0.708
75469SOL     OW28180   4.701  12.182  13.152
75469SOL    HW128181   4.637  12.157  13.085
75469SOL    HW228182   4.673  12.135  13.230
75470SOL     OW28183   7.419   6.288   2.120
75470SOL    HW128184   7.372   6.215   2.159
75470SOL    HW228185   7.364   6.317   2.047
75471SOL     OW28186   8.403  10.230  10.845
75471SOL    HW128187   8.362  10.144  10.851
75471SOL    HW228188   8.374  10.276  10.923
75472SOL     OW28189   5.655   0.618   0.873
75472SOL    HW128190   5.599   0.541   0.861
75472SOL    HW228191   5.742   0.581   0.890
75473SOL     OW28192  10.204   2.551   3.464
75473SOL    HW128193  10.200   2.624   3.402
75473SOL    HW228194  10.291   2.557   3.504
75474SOL     OW28195   2.727   4.526  11.677
75474SOL    HW128196   2.747   4.566  11.762
75474SOL    HW228197   2.659   4.582  11.640
75475SOL     OW28198   2.775   4.710   4.152
75475SOL    HW128199   2.701   4.698   4.210
75475SOL    HW228200   2.852   4.689   4.206
75476SOL     OW28201   5.071   1.223   8.758
75476SOL    HW128202   5.112   1.159   8.700
75476SOL    HW228203   5.044   1.295   8.700
75477SOL     OW28204   7.073  13.080   8.676
75477SOL    HW128205   6.997  13.105   8.728
75477SOL    HW228206   7.117  13.163   8.657
75478SOL     OW28207   9.501  11.891   7.769
75478SOL    HW128208   9.542  11.839   7.699
75478SOL    HW228209   9.513  11.839   7.848
75479SOL     OW28210   5.294   5.921   7.981
75479SOL    HW128211   5.386   5.914   7.956
75479SOL    HW228212   5.283   5.857   8.052
75480SOL     OW28213   0.367  10.265   3.370
75480SOL    HW128214   0.363  10.338   3.432
75480SOL    HW228215   0.382  10.188   3.425
75481SOL     OW28216   4.148   6.696   4.444
75481SOL    HW128217   4.227   6.643   4.451
75481SOL    HW228218   4.095   6.670   4.519
75482SOL     OW28219  11.679  14.155  12.002
75482SOL    HW128220  11.677  14.141  11.908
75482SOL    HW228221  11.706  14.246  12.013
75483SOL     OW28222  12.379   8.878  13.597
75483SOL    HW128223  12.405   8.918  13.679
75483SOL    HW228224  12.399   8.785  13.608
75484SOL     OW28225  12.722   5.328   3.657
75484SOL    HW128226  12.801   5.311   3.607
75484SOL    HW228227  12.650   5.312   3.596
75485SOL     OW28228   7.750   6.400  13.961
75485SOL    HW128229   7.742   6.305  13.957
75485SOL    HW228230   7.837   6.419  13.926
75486SOL     OW28231  12.997   7.775  13.281
75486SOL    HW128232  13.052   7.844  13.317
75486SOL    HW228233  13.031   7.694  13.318
75487SOL     OW28234  11.801   4.699   5.869
75487SOL    HW128235  11.872   4.763   5.870
75487SOL    HW228236  11.818   4.643   5.945
75488SOL     OW28237   2.143   2.622   3.332
75488SOL    HW128238   2.229   2.594   3.300
75488SOL    HW228239   2.137   2.584   3.420
75489SOL     OW28240   7.167   8.840   7.410
75489SOL    HW128241   7.140   8.924   7.450
75489SOL    HW228242   7.260   8.851   7.392
75490SOL     OW28243   2.797   5.334  14.556
75490SOL    HW128244   2.743   5.413  14.552
75490SOL    HW228245   2.753   5.279  14.620
75491SOL     OW28246  12.152   6.845   1.684
75491SOL    HW128247  12.089   6.829   1.754
75491SOL    HW228248  12.201   6.921   1.713
75492SOL     OW28249  13.221  14.358   8.039
75492SOL    HW128250  13.172  14.432   8.075
75492SOL    HW228251  13.200  14.359   7.946
75493SOL     OW28252   6.143   6.803  12.579
75493SOL    HW128253   6.099   6.766  12.655
75493SOL    HW228254   6.181   6.885  12.611
75494SOL     OW28255  11.090  12.389   4.180
75494SOL    HW128256  11.089  12.354   4.269
75494SOL    HW228257  11.129  12.320   4.127
75495SOL     OW28258  11.180  10.103   7.622
75495SOL    HW128259  11.213  10.108   7.712
75495SOL    HW228260  11.257  10.112   7.567
75496SOL     OW28261  14.563   3.324  14.030
75496SOL    HW128262  14.512   3.311  14.110
75496SOL    HW228263  14.640   3.268  14.040
75497SOL     OW28264   8.086   9.789   5.416
75497SOL    HW128265   8.117   9.720   5.357
75497SOL    HW228266   7.991   9.789   5.406
75498SOL     OW28267   4.485   3.886  12.411
75498SOL    HW128268   4.510   3.912  12.500
75498SOL    HW228269   4.467   3.969  12.366
75499SOL     OW28270   6.772   9.797  12.244
75499SOL    HW128271   6.753   9.708  12.274
75499SOL    HW228272   6.691   9.825  12.202
75500SOL     OW28273   8.688   4.399  11.353
75500SOL    HW128274   8.653   4.310  11.342
75500SOL    HW228275   8.610   4.455  11.350
75501SOL     OW28276   8.103   0.386   2.694
75501SOL    HW128277   8.154   0.457   2.656
75501SOL    HW228278   8.023   0.384   2.642
75502SOL     OW28279  13.967   0.688   7.557
75502SOL    HW128280  14.018   0.617   7.594
75502SOL    HW228281  13.914   0.721   7.630
75503SOL     OW28282   1.914  10.986   7.832
75503SOL    HW128283   1.937  11.006   7.922
75503SOL    HW228284   1.872  11.066   7.799
75504SOL     OW28285   7.503  13.107   4.282
75504SOL    HW128286   7.515  13.051   4.359
75504SOL    HW228287   7.506  13.196   4.317
75505SOL     OW28288   8.720   2.386   0.769
75505SOL    HW128289   8.804   2.407   0.729
75505SOL    HW228290   8.655   2.421   0.709
75506SOL     OW28291   8.798   6.021  13.862
75506SOL    HW128292   8.775   6.056  13.948
75506SOL    HW228293   8.740   6.068  13.802
75507SOL     OW28294  13.437   8.520  14.861
75507SOL    HW128295  13.372   8.452  14.849
75507SOL    HW228296  13.521   8.476  14.849
75508SOL     OW28297   7.920   0.613  13.424
75508SOL    HW128298   7.844   0.669  13.409
75508SOL    HW228299   7.969   0.657  13.494
75509SOL     OW28300   6.900   5.610   4.947
75509SOL    HW128301   6.853   5.555   5.010
75509SOL    HW228302   6.838   5.679   4.924
75510SOL     OW28303   5.360  12.965  10.678
75510SOL    HW128304   5.327  12.950  10.766
75510SOL    HW228305   5.283  12.959  10.622
75511SOL     OW28306  10.454   6.043   6.850
75511SOL    HW128307  10.427   5.990   6.775
75511SOL    HW228308  10.484   6.125   6.811
75512SOL     OW28309   4.008   0.018   0.539
75512SOL    HW128310   3.995   0.104   0.579
75512SOL    HW228311   3.929   0.003   0.487
75513SOL     OW28312  13.924   1.451   9.262
75513SOL    HW128313  13.849   1.402   9.229
75513SOL    HW228314  13.994   1.433   9.199
75514SOL     OW28315  11.995   1.579   0.162
75514SOL    HW128316  11.957   1.492   0.176
75514SOL    HW228317  11.924   1.631   0.125
75515SOL     OW28318  12.011  11.650  14.168
75515SOL    HW128319  12.040  11.732  14.127
75515SOL    HW228320  12.088  11.616  14.213
75516SOL     OW28321  11.781  14.294  13.051
75516SOL    HW128322  11.846  14.327  13.113
75516SOL    HW228323  11.718  14.246  13.107
75517SOL     OW28324   4.942   2.162  13.838
75517SOL    HW128325   4.913   2.087  13.889
75517SOL    HW228326   5.018   2.130  13.789
75518SOL     OW28327   2.832   0.837   1.351
75518SOL    HW128328   2.881   0.907   1.393
75518SOL    HW228329   2.772   0.806   1.418
75519SOL     OW28330   7.518  13.006  13.639
75519SOL    HW128331   7.595  12.970  13.595
75519SOL    HW228332   7.459  12.931  13.649
75520SOL     OW28333  10.286   2.527   1.894
75520SOL    HW128334  10.261   2.434   1.895
75520SOL    HW228335  10.354   2.532   1.826
75521SOL     OW28336  10.982   0.197   7.171
75521SOL    HW128337  11.028   0.118   7.197
75521SOL    HW228338  10.972   0.247   7.252
75522SOL     OW28339   1.046   2.745  14.327
75522SOL    HW128340   1.078   2.676  14.269
75522SOL    HW228341   0.956   2.762  14.298
75523SOL     OW28342  11.236   5.383   6.369
75523SOL    HW128343  11.148   5.349   6.387
75523SOL    HW228344  11.267   5.414   6.454
75524SOL     OW28345   0.113   6.555   3.910
75524SOL    HW128346   0.207   6.567   3.922
75524SOL    HW228347   0.104   6.521   3.821
75525SOL     OW28348  13.468   9.221  14.687
75525SOL    HW128349  13.435   9.290  14.746
75525SOL    HW228350  13.394   9.162  14.676
75526SOL     OW28351  10.092   3.482   7.123
75526SOL    HW128352  10.170   3.446   7.081
75526SOL    HW228353  10.031   3.499   7.052
75527SOL     OW28354  11.384   7.696  11.560
75527SOL    HW128355  11.306   7.694  11.504
75527SOL    HW228356  11.367   7.631  11.627
75528SOL     OW28357  11.433   2.660   1.599
75528SOL    HW128358  11.498   2.624   1.659
75528SOL    HW228359  11.428   2.753   1.621
75529SOL     OW28360   1.446   5.076   7.016
75529SOL    HW128361   1.534   5.109   7.032
75529SOL    HW228362   1.401   5.147   6.969
75530SOL     OW28363  11.829   1.164   1.315
75530SOL    HW128364  11.900   1.185   1.255
75530SOL    HW228365  11.793   1.249   1.340
75531SOL     OW28366   5.071   8.426   9.421
75531SOL    HW128367   5.128   8.349   9.418
75531SOL    HW228368   5.072   8.459   9.331
75532SOL     OW28369  11.144  13.010  13.449
75532SOL    HW128370  11.147  12.915  13.459
75532SOL    HW228371  11.103  13.024  13.363
75533SOL     OW28372   1.150   9.840  14.480
75533SOL    HW128373   1.224   9.848  14.420
75533SOL    HW228374   1.126   9.747  14.476
75534SOL     OW28375   4.495   9.928   6.296
75534SOL    HW128376   4.463  10.018   6.300
75534SOL    HW228377   4.448   9.882   6.366
75535SOL     OW28378  11.854   9.366   4.915
75535SOL    HW128379  11.827   9.279   4.885
75535SOL    HW228380  11.807   9.379   4.997
75536SOL     OW28381  10.541   1.401   7.887
75536SOL    HW128382  10.583   1.392   7.973
75536SOL    HW228383  10.614   1.404   7.825
75537SOL     OW28384   9.201   0.251   8.018
75537SOL    HW128385   9.132   0.309   7.985
75537SOL    HW228386   9.207   0.272   8.111
75538SOL     OW28387   3.956   6.471   7.245
75538SOL    HW128388   4.020   6.540   7.232
75538SOL    HW228389   3.946   6.464   7.340
75539SOL     OW28390   2.925   8.415   8.765
75539SOL    HW128391   2.886   8.399   8.851
75539SOL    HW228392   2.983   8.339   8.750
75540SOL     OW28393   0.462  10.733  13.028
75540SOL    HW128394   0.439  10.671  13.098
75540SOL    HW228395   0.380  10.749  12.982
75541SOL     OW28396   0.121   9.254  10.410
75541SOL    HW128397   0.209   9.276  10.381
75541SOL    HW228398   0.104   9.167  10.372
75542SOL     OW28399   6.175   4.750   6.716
75542SOL    HW128400   6.268   4.744   6.694
75542SOL    HW228401   6.141   4.662   6.702
75543SOL     OW28402   3.773   1.146   8.646
75543SOL    HW128403   3.755   1.057   8.616
75543SOL    HW228404   3.686   1.184   8.660
75544SOL     OW28405   8.323  12.526   4.205
75544SOL    HW128406   8.390  12.594   4.191
75544SOL    HW228407   8.314  12.521   4.300
75545SOL     OW28408  11.384  14.022   0.272
75545SOL    HW128409  11.437  14.100   0.256
75545SOL    HW228410  11.437  13.969   0.332
75546SOL     OW28411   7.705  13.040   9.289
75546SOL    HW128412   7.704  13.124   9.334
75546SOL    HW228413   7.687  12.975   9.357
75547SOL     OW28414   3.310   0.476   1.773
75547SOL    HW128415   3.352   0.396   1.740
75547SOL    HW228416   3.217   0.460   1.761
75548SOL     OW28417  13.677   8.565  12.634
75548SOL    HW128418  13.734   8.495  12.666
75548SOL    HW228419  13.644   8.533  12.550
75549SOL     OW28420  12.978   6.117  12.130
75549SOL    HW128421  13.064   6.097  12.093
75549SOL    HW228422  12.916   6.089  12.063
75550SOL     OW28423  12.879   7.499   3.657
75550SOL    HW128424  12.935   7.434   3.700
75550SOL    HW228425  12.793   7.456   3.651
75551SOL     OW28426  14.834  10.320   9.020
75551SOL    HW128427  14.792  10.301   9.104
75551SOL    HW228428   0.032  10.267   9.021
75552SOL     OW28429  10.635   1.950   8.250
75552SOL    HW128430  10.721   1.957   8.290
75552SOL    HW228431  10.575   1.991   8.312
75553SOL     OW28432   5.416  11.183   2.837
75553SOL    HW128433   5.415  11.111   2.774
75553SOL    HW228434   5.361  11.250   2.796
75554SOL     OW28435   6.231   3.003  10.304
75554SOL    HW128436   6.248   2.960  10.388
75554SOL    HW228437   6.177   3.079  10.327
75555SOL     OW28438   4.190  13.392  14.146
75555SOL    HW128439   4.144  13.394  14.230
75555SOL    HW228440   4.141  13.450  14.089
75556SOL     OW28441  12.947   2.975   3.534
75556SOL    HW128442  13.010   3.006   3.469
75556SOL    HW228443  12.863   3.013   3.506
75557SOL     OW28444  10.944  13.272  13.811
75557SOL    HW128445  10.976  13.362  13.822
75557SOL    HW228446  10.864  13.281  13.759
75558SOL     OW28447   6.260   5.403  11.889
75558SOL    HW128448   6.310   5.354  11.954
75558SOL    HW228449   6.174   5.414  11.928
75559SOL     OW28450  14.095  11.710   0.088
75559SOL    HW128451  14.180  11.671   0.066
75559SOL    HW228452  14.108  11.746   0.176
75560SOL     OW28453   7.748   3.734  14.075
75560SOL    HW128454   7.712   3.651  14.044
75560SOL    HW228455   7.706   3.748  14.159
75561SOL     OW28456   3.941  12.350   4.902
75561SOL    HW128457   3.914  12.391   4.984
75561SOL    HW228458   3.906  12.261   4.907
75562SOL     OW28459   3.876   6.555   8.361
75562SOL    HW128460   3.904   6.646   8.366
75562SOL    HW228461   3.899   6.518   8.446
75563SOL     OW28462   4.398   4.323   6.745
75563SOL    HW128463   4.333   4.275   6.694
75563SOL    HW228464   4.358   4.332   6.832
75564SOL     OW28465   5.984   6.248  12.277
75564SOL    HW128466   5.933   6.300  12.340
75564SOL    HW228467   5.920   6.221  12.211
75565SOL     OW28468   7.042   7.856   2.188
75565SOL    HW128469   7.019   7.928   2.247
75565SOL    HW228470   7.137   7.851   2.193
75566SOL     OW28471   1.299   7.244  12.705
75566SOL    HW128472   1.334   7.182  12.640
75566SOL    HW228473   1.218   7.203  12.736
75567SOL     OW28474  14.447  10.730   2.130
75567SOL    HW128475  14.521  10.756   2.183
75567SOL    HW228476  14.425  10.807   2.078
75568SOL     OW28477   8.818  12.558  12.635
75568SOL    HW128478   8.839  12.651  12.632
75568SOL    HW228479   8.725  12.554  12.613
75569SOL     OW28480   3.284   3.664  10.243
75569SOL    HW128481   3.242   3.658  10.329
75569SOL    HW228482   3.298   3.758  10.230
75570SOL     OW28483   4.913  14.478   8.068
75570SOL    HW128484   4.990  14.472   8.124
75570SOL    HW228485   4.868  14.557   8.097
75571SOL     OW28486   1.468   3.937   6.762
75571SOL    HW128487   1.462   4.033   6.758
75571SOL    HW228488   1.379   3.909   6.785
75572SOL     OW28489   8.651  12.286   4.255
75572SOL    HW128490   8.709  12.350   4.298
75572SOL    HW228491   8.621  12.330   4.176
75573SOL     OW28492  13.275  12.023   3.748
75573SOL    HW128493  13.341  11.963   3.780
75573SOL    HW228494  13.305  12.109   3.776
75574SOL     OW28495  11.482  14.095  12.473
75574SOL    HW128496  11.461  14.075  12.564
75574SOL    HW228497  11.401  14.130  12.436
75575SOL     OW28498   8.241   6.646   5.705
75575SOL    HW128499   8.176   6.691   5.759
75575SOL    HW228500   8.320   6.698   5.714
75576SOL     OW28501   8.401  13.767   9.280
75576SOL    HW128502   8.457  13.840   9.305
75576SOL    HW228503   8.461  13.694   9.265
75577SOL     OW28504  12.528  11.576   4.009
75577SOL    HW128505  12.597  11.515   4.035
75577SOL    HW228506  12.542  11.653   4.063
75578SOL     OW28507  12.275  14.834  12.720
75578SOL    HW128508  12.248  14.816  12.810
75578SOL    HW228509  12.314  14.752  12.690
75579SOL     OW28510   0.891   3.710   4.246
75579SOL    HW128511   0.939   3.745   4.321
75579SOL    HW228512   0.920   3.619   4.240
75580SOL     OW28513   5.240  10.599   5.662
75580SOL    HW128514   5.220  10.526   5.722
75580SOL    HW228515   5.203  10.676   5.706
75581SOL     OW28516   1.428  12.321   6.799
75581SOL    HW128517   1.506  12.363   6.763
75581SOL    HW228518   1.462  12.253   6.858
75582SOL     OW28519   6.491  12.210  14.695
75582SOL    HW128520   6.529  12.232  14.780
75582SOL    HW228521   6.531  12.272  14.634
75583SOL     OW28522  10.345  11.416   0.512
75583SOL    HW128523  10.419  11.376   0.467
75583SOL    HW228524  10.283  11.344   0.527
75584SOL     OW28525   4.725  14.867   4.733
75584SOL    HW128526   4.772  14.784   4.732
75584SOL    HW228527   4.769   0.037   4.801
75585SOL     OW28528  10.127  10.920   2.430
75585SOL    HW128529  10.081  10.982   2.487
75585SOL    HW228530  10.165  10.855   2.490
75586SOL     OW28531   8.131   4.702  14.600
75586SOL    HW128532   8.051   4.721  14.551
75586SOL    HW228533   8.101   4.655  14.678
75587SOL     OW28534  12.970   5.620   7.370
75587SOL    HW128535  13.023   5.699   7.357
75587SOL    HW228536  12.985   5.597   7.462
75588SOL     OW28537  11.291   6.309  13.017
75588SOL    HW128538  11.366   6.325  12.960
75588SOL    HW228539  11.273   6.216  13.007
75589SOL     OW28540   5.168  11.607   3.881
75589SOL    HW128541   5.113  11.604   3.959
75589SOL    HW228542   5.123  11.669   3.823
75590SOL     OW28543  10.167  12.328   0.541
75590SOL    HW128544  10.130  12.328   0.453
75590SOL    HW228545  10.130  12.406   0.582
75591SOL     OW28546   9.556  12.168   4.080
75591SOL    HW128547   9.512  12.171   4.165
75591SOL    HW228548   9.640  12.125   4.098
75592SOL     OW28549   0.917   8.939  13.604
75592SOL    HW128550   0.978   8.955  13.532
75592SOL    HW228551   0.861   9.016  13.606
75593SOL     OW28552   7.866   7.867   6.896
75593SOL    HW128553   7.839   7.901   6.981
75593SOL    HW228554   7.957   7.895   6.886
75594SOL     OW28555   1.630   7.594  14.012
75594SOL    HW128556   1.697   7.660  13.995
75594SOL    HW228557   1.657   7.553  14.094
75595SOL     OW28558   2.924   4.590   0.771
75595SOL    HW128559   2.845   4.566   0.723
75595SOL    HW228560   2.985   4.620   0.704
75596SOL     OW28561   4.227   1.400   7.990
75596SOL    HW128562   4.240   1.474   7.931
75596SOL    HW228563   4.169   1.433   8.058
75597SOL     OW28564   1.099   9.154   9.466
75597SOL    HW128565   1.074   9.073   9.511
75597SOL    HW228566   1.127   9.126   9.379
75598SOL     OW28567  12.072   2.078   0.934
75598SOL    HW128568  11.980   2.095   0.954
75598SOL    HW228569  12.105   2.033   1.012
75599SOL     OW28570   1.681   5.387   8.543
75599SOL    HW128571   1.625   5.442   8.488
75599SOL    HW228572   1.768   5.426   8.535
75600SOL     OW28573   5.976   0.369   4.974
75600SOL    HW128574   6.070   0.358   4.984
75600SOL    HW228575   5.964   0.464   4.961
75601SOL     OW28576  14.277   2.235   3.552
75601SOL    HW128577  14.189   2.270   3.547
75601SOL    HW228578  14.294   2.226   3.645
75602SOL     OW28579   5.421   7.993   5.588
75602SOL    HW128580   5.341   7.941   5.587
75602SOL    HW228581   5.488   7.934   5.554
75603SOL     OW28582   8.459   5.577  14.298
75603SOL    HW128583   8.553   5.574  14.285
75603SOL    HW228584   8.437   5.492  14.337
75604SOL     OW28585   0.899  10.467   2.167
75604SOL    HW128586   0.938  10.551   2.192
75604SOL    HW228587   0.864  10.432   2.249
75605SOL     OW28588  14.269   3.480  10.914
75605SOL    HW128589  14.321   3.530  10.977
75605SOL    HW228590  14.310   3.498  10.829
75606SOL     OW28591  13.089   4.144  13.146
75606SOL    HW128592  13.064   4.130  13.238
75606SOL    HW228593  13.177   4.108  13.139
75607SOL     OW28594   1.199   6.529  14.083
75607SOL    HW128595   1.278   6.539  14.137
75607SOL    HW228596   1.130   6.568  14.136
75608SOL     OW28597   4.788   0.491   6.780
75608SOL    HW128598   4.810   0.558   6.715
75608SOL    HW228599   4.820   0.527   6.863
75609SOL     OW28600  12.885   4.296  11.207
75609SOL    HW128601  12.893   4.225  11.143
75609SOL    HW228602  12.831   4.362  11.162
75610SOL     OW28603   1.176  12.307   2.648
75610SOL    HW128604   1.192  12.221   2.688
75610SOL    HW228605   1.248  12.362   2.681
75611SOL     OW28606  13.156  12.714  12.538
75611SOL    HW128607  13.140  12.710  12.632
75611SOL    HW228608  13.072  12.690  12.499
75612SOL     OW28609   2.476   4.489   1.878
75612SOL    HW128610   2.428   4.568   1.854
75612SOL    HW228611   2.567   4.518   1.884
75613SOL     OW28612  11.940  12.526   1.302
75613SOL    HW128613  11.937  12.553   1.210
75613SOL    HW228614  11.959  12.433   1.299
75614SOL     OW28615   7.447  11.422   6.787
75614SOL    HW128616   7.477  11.331   6.787
75614SOL    HW228617   7.374  11.422   6.725
75615SOL     OW28618   5.791   1.486   3.488
75615SOL    HW128619   5.820   1.562   3.437
75615SOL    HW228620   5.871   1.440   3.510
75616SOL     OW28621   3.062   6.561   3.998
75616SOL    HW128622   3.090   6.647   3.965
75616SOL    HW228623   2.973   6.576   4.031
75617SOL     OW28624   5.468  11.791  13.804
75617SOL    HW128625   5.467  11.697  13.785
75617SOL    HW228626   5.391  11.826  13.760
75618SOL     OW28627   2.837   9.188   6.668
75618SOL    HW128628   2.890   9.226   6.738
75618SOL    HW228629   2.778   9.259   6.642
75619SOL     OW28630   9.763   5.702   2.033
75619SOL    HW128631   9.681   5.710   1.986
75619SOL    HW228632   9.824   5.662   1.970
75620SOL     OW28633   5.551  11.715   7.734
75620SOL    HW128634   5.643  11.689   7.729
75620SOL    HW228635   5.521  11.713   7.644
75621SOL     OW28636   6.708   6.580   6.395
75621SOL    HW128637   6.619   6.591   6.429
75621SOL    HW228638   6.752   6.662   6.417
75622SOL     OW28639   9.494   7.321  14.284
75622SOL    HW128640   9.421   7.262  14.301
75622SOL    HW228641   9.506   7.319  14.189
75623SOL     OW28642   0.243  13.462   0.593
75623SOL    HW128643   0.294  13.534   0.629
75623SOL    HW228644   0.231  13.484   0.501
75624SOL     OW28645   8.799   2.960   6.617
75624SOL    HW128646   8.781   3.021   6.688
75624SOL    HW228647   8.722   2.904   6.613
75625SOL     OW28648   1.132   1.189   3.521
75625SOL    HW128649   1.086   1.255   3.470
75625SOL    HW228650   1.147   1.231   3.607
75626SOL     OW28651  13.359  10.893   2.993
75626SOL    HW128652  13.332  10.914   3.082
75626SOL    HW228653  13.446  10.854   3.002
75627SOL     OW28654  12.364   0.903  11.089
75627SOL    HW128655  12.322   0.975  11.042
75627SOL    HW228656  12.321   0.825  11.055
75628SOL     OW28657  12.361  14.524   7.513
75628SOL    HW128658  12.436  14.540   7.456
75628SOL    HW228659  12.301  14.597   7.493
75629SOL     OW28660   8.958  13.380  12.517
75629SOL    HW128661   8.869  13.411  12.503
75629SOL    HW228662   8.948  13.288  12.540
75630SOL     OW28663  12.058   4.573  14.510
75630SOL    HW128664  12.084   4.636  14.578
75630SOL    HW228665  12.015   4.503  14.559
75631SOL     OW28666   8.925  14.258   6.530
75631SOL    HW128667   8.977  14.306   6.467
75631SOL    HW228668   8.884  14.325   6.585
75632SOL     OW28669  13.125   8.468   9.290
75632SOL    HW128670  13.046   8.461   9.236
75632SOL    HW228671  13.146   8.377   9.312
75633SOL     OW28672   9.404   8.365   7.215
75633SOL    HW128673   9.476   8.338   7.158
75633SOL    HW228674   9.335   8.392   7.154
75634SOL     OW28675   3.327   9.631   1.006
75634SOL    HW128676   3.370   9.716   0.997
75634SOL    HW228677   3.252   9.635   0.946
75635SOL     OW28678   3.667   0.142   0.556
75635SOL    HW128679   3.753   0.182   0.566
75635SOL    HW228680   3.609   0.195   0.611
75636SOL     OW28681  12.355   7.300  10.675
75636SOL    HW128682  12.330   7.386  10.707
75636SOL    HW228683  12.272   7.255  10.658
75637SOL     OW28684   3.569  13.543   4.990
75637SOL    HW128685   3.507  13.606   4.954
75637SOL    HW228686   3.597  13.490   4.915
75638SOL     OW28687   5.295   4.073   4.820
75638SOL    HW128688   5.288   3.992   4.770
75638SOL    HW228689   5.297   4.045   4.912
75639SOL     OW28690   2.773   6.530   0.351
75639SOL    HW128691   2.700   6.576   0.309
75639SOL    HW228692   2.844   6.594   0.351
75640SOL     OW28693   4.138  14.629   2.262
75640SOL    HW128694   4.226  14.638   2.298
75640SOL    HW228695   4.118  14.536   2.271
75641SOL     OW28696   2.902  11.072   3.796
75641SOL    HW128697   2.925  11.156   3.756
75641SOL    HW228698   2.978  11.017   3.781
75642SOL     OW28699  13.337  13.284   6.425
75642SOL    HW128700  13.413  13.233   6.449
75642SOL    HW228701  13.269  13.259   6.488
75643SOL     OW28702   3.789   0.941   7.307
75643SOL    HW128703   3.821   0.971   7.221
75643SOL    HW228704   3.727   0.871   7.286
75644SOL     OW28705   6.721   4.958   7.612
75644SOL    HW128706   6.784   4.958   7.685
75644SOL    HW228707   6.667   5.035   7.628
75645SOL     OW28708   4.291   7.315   0.071
75645SOL    HW128709   4.376   7.306   0.113
75645SOL    HW228710   4.228   7.323   0.143
75646SOL     OW28711   7.578  12.993   4.747
75646SOL    HW128712   7.669  12.967   4.733
75646SOL    HW228713   7.582  13.059   4.815
75647SOL     OW28714   9.248  10.104   6.259
75647SOL    HW128715   9.230  10.198   6.259
75647SOL    HW228716   9.343  10.098   6.267
75648SOL     OW28717  12.555   7.726  12.351
75648SOL    HW128718  12.529   7.795  12.290
75648SOL    HW228719  12.544   7.645  12.300
75649SOL     OW28720   0.785   9.029   8.097
75649SOL    HW128721   0.730   9.091   8.049
75649SOL    HW228722   0.729   8.952   8.108
75650SOL     OW28723   8.585  13.192   7.816
75650SOL    HW128724   8.676  13.164   7.802
75650SOL    HW228725   8.545  13.183   7.730
75651SOL     OW28726   1.510  12.127   3.661
75651SOL    HW128727   1.493  12.094   3.749
75651SOL    HW228728   1.545  12.052   3.614
75652SOL     OW28729   7.296   8.156   4.555
75652SOL    HW128730   7.272   8.070   4.591
75652SOL    HW228731   7.376   8.179   4.602
75653SOL     OW28732   2.732   2.649  13.799
75653SOL    HW128733   2.765   2.738  13.797
75653SOL    HW228734   2.734   2.620  13.708
75654SOL     OW28735   9.618  13.695   8.486
75654SOL    HW128736   9.675  13.770   8.473
75654SOL    HW228737   9.629  13.643   8.406
75655SOL     OW28738   1.755  13.863  13.000
75655SOL    HW128739   1.669  13.892  13.029
75655SOL    HW228740   1.814  13.889  13.071
75656SOL     OW28741  10.275   9.405   8.483
75656SOL    HW128742  10.280   9.374   8.574
75656SOL    HW228743  10.188   9.379   8.453
75657SOL     OW28744   5.449  10.812   8.714
75657SOL    HW128745   5.542  10.832   8.724
75657SOL    HW228746   5.405  10.872   8.773
75658SOL     OW28747  12.887  10.564   8.657
75658SOL    HW128748  12.794  10.583   8.663
75658SOL    HW228749  12.897  10.477   8.696
75659SOL     OW28750   6.397  13.858   8.151
75659SOL    HW128751   6.343  13.921   8.197
75659SOL    HW228752   6.456  13.823   8.218
75660SOL     OW28753   6.299   0.130  13.347
75660SOL    HW128754   6.377   0.110  13.294
75660SOL    HW228755   6.229   0.140  13.283
75661SOL     OW28756   4.532   2.008   6.516
75661SOL    HW128757   4.438   2.018   6.525
75661SOL    HW228758   4.544   1.918   6.484
75662SOL     OW28759   7.079  10.128   4.311
75662SOL    HW128760   7.135  10.150   4.236
75662SOL    HW228761   6.994  10.107   4.272
75663SOL     OW28762  11.422   4.067   2.557
75663SOL    HW128763  11.401   3.996   2.497
75663SOL    HW228764  11.400   4.147   2.510
75664SOL     OW28765   5.616   1.855   6.069
75664SOL    HW128766   5.526   1.825   6.084
75664SOL    HW228767   5.635   1.913   6.143
75665SOL     OW28768   6.506  11.652   0.820
75665SOL    HW128769   6.556  11.705   0.881
75665SOL    HW228770   6.570  11.624   0.755
75666SOL     OW28771   5.581   5.860   3.343
75666SOL    HW128772   5.672   5.880   3.321
75666SOL    HW228773   5.570   5.892   3.433
75667SOL     OW28774   5.907   3.353   7.035
75667SOL    HW128775   5.889   3.317   7.122
75667SOL    HW228776   5.994   3.320   7.013
75668SOL     OW28777   5.892   5.189   5.653
75668SOL    HW128778   5.866   5.100   5.628
75668SOL    HW228779   5.862   5.199   5.743
75669SOL     OW28780  11.382   3.588   9.395
75669SOL    HW128781  11.318   3.533   9.439
75669SOL    HW228782  11.367   3.676   9.431
75670SOL     OW28783   2.356   5.043   6.080
75670SOL    HW128784   2.278   5.046   6.024
75670SOL    HW228785   2.332   5.095   6.157
75671SOL     OW28786   9.075   0.526   6.095
75671SOL    HW128787   8.994   0.577   6.098
75671SOL    HW228788   9.144   0.590   6.079
75672SOL     OW28789   7.636   5.322   3.618
75672SOL    HW128790   7.604   5.256   3.680
75672SOL    HW228791   7.574   5.394   3.627
75673SOL     OW28792   6.262   6.505   0.160
75673SOL    HW128793   6.245   6.572   0.226
75673SOL    HW228794   6.263   6.552   0.077
75674SOL     OW28795  13.887   9.707   0.041
75674SOL    HW128796  13.914   9.676   0.128
75674SOL    HW228797  13.920   9.640  14.862
75675SOL     OW28798  14.766   2.534  14.457
75675SOL    HW128799  14.798   2.444  14.464
75675SOL    HW228800  14.692   2.538  14.517
75676SOL     OW28801   6.237   8.984  14.351
75676SOL    HW128802   6.215   9.015  14.264
75676SOL    HW228803   6.272   9.061  14.396
75677SOL     OW28804   5.992   0.540   9.489
75677SOL    HW128805   6.074   0.513   9.447
75677SOL    HW228806   6.018   0.607   9.551
75678SOL     OW28807   5.885   1.664   0.393
75678SOL    HW128808   5.851   1.753   0.385
75678SOL    HW228809   5.876   1.627   0.305
75679SOL     OW28810  11.509   4.990   2.440
75679SOL    HW128811  11.569   4.933   2.391
75679SOL    HW228812  11.425   4.982   2.394
75680SOL     OW28813   8.289   4.476   1.746
75680SOL    HW128814   8.309   4.389   1.782
75680SOL    HW228815   8.371   4.524   1.754
75681SOL     OW28816   8.841  10.242  10.026
75681SOL    HW128817   8.801  10.155  10.018
75681SOL    HW228818   8.781  10.300   9.980
75682SOL     OW28819   1.950   9.581   9.073
75682SOL    HW128820   1.868   9.564   9.028
75682SOL    HW228821   1.958   9.676   9.074
75683SOL     OW28822   5.492   2.605   7.059
75683SOL    HW128823   5.397   2.602   7.047
75683SOL    HW228824   5.521   2.515   7.042
75684SOL     OW28825   4.444   5.080  10.703
75684SOL    HW128826   4.497   5.040  10.772
75684SOL    HW228827   4.501   5.083  10.627
75685SOL     OW28828  12.825  13.248   7.444
75685SOL    HW128829  12.851  13.157   7.462
75685SOL    HW228830  12.777  13.243   7.361
75686SOL     OW28831   8.036  12.525   7.853
75686SOL    HW128832   8.063  12.569   7.772
75686SOL    HW228833   8.000  12.594   7.908
75687SOL     OW28834   2.752  12.786   9.463
75687SOL    HW128835   2.843  12.757   9.468
75687SOL    HW228836   2.700  12.708   9.482
75688SOL     OW28837  12.340  12.614   0.880
75688SOL    HW128838  12.278  12.551   0.842
75688SOL    HW228839  12.314  12.698   0.844
75689SOL     OW28840   7.718   0.228   4.099
75689SOL    HW128841   7.630   0.195   4.118
75689SOL    HW228842   7.725   0.308   4.150
75690SOL     OW28843   2.233   6.416  13.046
75690SOL    HW128844   2.160   6.446  12.991
75690SOL    HW228845   2.193   6.397  13.131
75691SOL     OW28846  13.653  11.823   7.094
75691SOL    HW128847  13.566  11.860   7.106
75691SOL    HW228848  13.712  11.888   7.133
75692SOL     OW28849   7.666  14.228   4.330
75692SOL    HW128850   7.629  14.302   4.281
75692SOL    HW228851   7.715  14.269   4.401
75693SOL     OW28852   1.820  13.096  10.690
75693SOL    HW128853   1.792  13.149  10.764
75693SOL    HW228854   1.786  13.141  10.613
75694SOL     OW28855   6.326   0.629   5.946
75694SOL    HW128856   6.390   0.580   5.894
75694SOL    HW228857   6.269   0.670   5.881
75695SOL     OW28858  14.071   2.822   3.683
75695SOL    HW128859  14.009   2.756   3.714
75695SOL    HW228860  14.019   2.901   3.671
75696SOL     OW28861  11.440   4.118   1.308
75696SOL    HW128862  11.371   4.178   1.337
75696SOL    HW228863  11.423   4.106   1.214
75697SOL     OW28864  10.737   6.604   3.899
75697SOL    HW128865  10.814   6.639   3.855
75697SOL    HW228866  10.666   6.661   3.871
75698SOL     OW28867  13.614   0.019   5.834
75698SOL    HW128868  13.572   0.094   5.791
75698SOL    HW228869  13.579  14.824   5.787
75699SOL     OW28870   5.329   7.127   5.279
75699SOL    HW128871   5.292   7.123   5.367
75699SOL    HW228872   5.399   7.192   5.286
75700SOL     OW28873   8.308  11.963   8.140
75700SOL    HW128874   8.301  11.916   8.057
75700SOL    HW228875   8.282  11.899   8.206
75701SOL     OW28876   8.537   9.885  10.003
75701SOL    HW128877   8.477   9.815  10.028
75701SOL    HW228878   8.579   9.911  10.085
75702SOL     OW28879  14.662   2.296   6.376
75702SOL    HW128880  14.600   2.298   6.449
75702SOL    HW228881  14.612   2.328   6.301
75703SOL     OW28882   0.284   0.307  13.039
75703SOL    HW128883   0.246   0.394  13.027
75703SOL    HW228884   0.220   0.260  13.090
75704SOL     OW28885   7.853   6.785   5.374
75704SOL    HW128886   7.806   6.714   5.416
75704SOL    HW228887   7.892   6.834   5.446
75705SOL     OW28888  14.581   1.585  10.219
75705SOL    HW128889  14.490   1.562  10.202
75705SOL    HW228890  14.577   1.674  10.253
75706SOL     OW28891   4.227  10.620   1.719
75706SOL    HW128892   4.164  10.624   1.646
75706SOL    HW228893   4.177  10.651   1.794
75707SOL     OW28894   0.804   3.898  12.139
75707SOL    HW128895   0.895   3.917  12.117
75707SOL    HW228896   0.806   3.810  12.177
75708SOL     OW28897   9.371   6.540   5.725
75708SOL    HW128898   9.452   6.490   5.711
75708SOL    HW228899   9.388   6.592   5.803
75709SOL     OW28900   8.683  13.572  11.531
75709SOL    HW128901   8.733  13.550  11.453
75709SOL    HW228902   8.720  13.517  11.600
75710SOL     OW28903   4.891   8.344  13.444
75710SOL    HW128904   4.812   8.304  13.480
75710SOL    HW228905   4.958   8.276  13.450
75711SOL     OW28906   2.728  13.890  14.597
75711SOL    HW128907   2.822  13.889  14.616
75711SOL    HW228908   2.721  13.857  14.507
75712SOL     OW28909   8.456  11.638   5.387
75712SOL    HW128910   8.450  11.680   5.301
75712SOL    HW228911   8.398  11.562   5.381
75713SOL     OW28912   7.861   7.424   5.014
75713SOL    HW128913   7.849   7.330   5.003
75713SOL    HW228914   7.773   7.461   5.008
75714SOL     OW28915  13.605   8.181  12.996
75714SOL    HW128916  13.630   8.088  13.003
75714SOL    HW228917  13.510   8.181  13.007
75715SOL     OW28918   3.072  11.246  13.435
75715SOL    HW128919   2.996  11.303  13.450
75715SOL    HW228920   3.039  11.158  13.451
75716SOL     OW28921   8.255  14.592  12.927
75716SOL    HW128922   8.319  14.522  12.938
75716SOL    HW228923   8.219  14.606  13.015
75717SOL     OW28924  12.540   0.611   8.471
75717SOL    HW128925  12.612   0.611   8.408
75717SOL    HW228926  12.505   0.700   8.468
75718SOL     OW28927  14.208   4.436   7.910
75718SOL    HW128928  14.194   4.405   7.820
75718SOL    HW228929  14.190   4.530   7.904
75719SOL     OW28930   7.377   0.420   0.352
75719SOL    HW128931   7.319   0.481   0.305
75719SOL    HW228932   7.358   0.436   0.444
75720SOL     OW28933   9.227  11.003   2.706
75720SOL    HW128934   9.264  11.065   2.643
75720SOL    HW228935   9.300  10.983   2.765
75721SOL     OW28936   5.960  11.487   7.262
75721SOL    HW128937   5.950  11.398   7.295
75721SOL    HW228938   6.011  11.477   7.182
75722SOL     OW28939  11.403   1.050   1.607
75722SOL    HW128940  11.365   1.003   1.681
75722SOL    HW228941  11.470   0.991   1.574
75723SOL     OW28942   7.725   7.669   6.490
75723SOL    HW128943   7.735   7.662   6.395
75723SOL    HW228944   7.769   7.592   6.524
75724SOL     OW28945   6.766   8.138  10.120
75724SOL    HW128946   6.846   8.124  10.171
75724SOL    HW228947   6.707   8.068  10.149
75725SOL     OW28948  12.524   3.130   7.405
75725SOL    HW128949  12.558   3.042   7.390
75725SOL    HW228950  12.451   3.118   7.466
75726SOL     OW28951  13.690  12.198  14.077
75726SOL    HW128952  13.670  12.227  13.988
75726SOL    HW228953  13.615  12.227  14.129
75727SOL     OW28954   9.463  13.719   9.180
75727SOL    HW128955   9.530  13.688   9.119
75727SOL    HW228956   9.380  13.687   9.143
75728SOL     OW28957   0.292   6.655   1.009
75728SOL    HW128958   0.274   6.571   1.052
75728SOL    HW228959   0.274   6.639   0.917
75729SOL     OW28960   4.073   3.949  14.592
75729SOL    HW128961   4.012   4.021  14.609
75729SOL    HW228962   4.148   3.990  14.549
75730SOL     OW28963  13.998   7.285  11.568
75730SOL    HW128964  13.982   7.217  11.633
75730SOL    HW228965  13.928   7.274  11.503
75731SOL     OW28966   1.559  10.399   9.300
75731SOL    HW128967   1.540  10.333   9.367
75731SOL    HW228968   1.562  10.482   9.348
75732SOL     OW28969   7.228   9.160  14.532
75732SOL    HW128970   7.232   9.217  14.608
75732SOL    HW228971   7.232   9.071  14.568
75733SOL     OW28972   2.727  13.900  11.034
75733SOL    HW128973   2.702  13.825  11.087
75733SOL    HW228974   2.751  13.967  11.098
75734SOL     OW28975  13.209   1.643   3.627
75734SOL    HW128976  13.127   1.655   3.675
75734SOL    HW228977  13.231   1.551   3.638
75735SOL     OW28978   0.448   1.975   0.664
75735SOL    HW128979   0.410   1.914   0.727
75735SOL    HW228980   0.449   2.059   0.710
75736SOL     OW28981   1.419   5.309  10.658
75736SOL    HW128982   1.325   5.316  10.639
75736SOL    HW228983   1.423   5.256  10.738
75737SOL     OW28984  12.459   5.477   3.742
75737SOL    HW128985  12.445   5.489   3.836
75737SOL    HW228986  12.410   5.398   3.720
75738SOL     OW28987  12.935   6.735   6.363
75738SOL    HW128988  13.029   6.745   6.374
75738SOL    HW228989  12.912   6.797   6.294
75739SOL     OW28990   6.454   2.833  11.876
75739SOL    HW128991   6.538   2.787  11.869
75739SOL    HW228992   6.403   2.780  11.937
75740SOL     OW28993   2.661   0.667  11.882
75740SOL    HW128994   2.584   0.692  11.829
75740SOL    HW228995   2.709   0.607  11.825
75741SOL     OW28996   3.963   8.785   3.889
75741SOL    HW128997   3.988   8.877   3.901
75741SOL    HW228998   3.953   8.775   3.794
75742SOL     OW28999  12.014   9.897   0.823
75742SOL    HW129000  11.958   9.945   0.762
75742SOL    HW229001  11.967   9.900   0.906
75743SOL     OW29002  11.881   6.841  11.008
75743SOL    HW129003  11.892   6.746  11.017
75743SOL    HW229004  11.950   6.867  10.947
75744SOL     OW29005   6.729   4.167   4.634
75744SOL    HW129006   6.744   4.216   4.553
75744SOL    HW229007   6.695   4.082   4.605
75745SOL     OW29008  13.596  14.530   2.638
75745SOL    HW129009  13.574  14.618   2.610
75745SOL    HW229010  13.526  14.475   2.603
75746SOL     OW29011   7.617   6.799   4.462
75746SOL    HW129012   7.618   6.847   4.545
75746SOL    HW229013   7.695   6.744   4.465
75747SOL     OW29014   9.917   7.567  11.425
75747SOL    HW129015   9.822   7.566  11.434
75747SOL    HW229016   9.946   7.632  11.490
75748SOL     OW29017  10.219   9.057   7.867
75748SOL    HW129018  10.196   9.149   7.880
75748SOL    HW229019  10.144   9.019   7.820
75749SOL     OW29020   0.842   6.847   0.627
75749SOL    HW129021   0.829   6.808   0.713
75749SOL    HW229022   0.936   6.867   0.623
75750SOL     OW29023   5.729   1.223  12.438
75750SOL    HW129024   5.721   1.214  12.343
75750SOL    HW229025   5.793   1.156  12.463
75751SOL     OW29026   1.165   3.392   5.765
75751SOL    HW129027   1.180   3.423   5.854
75751SOL    HW229028   1.086   3.439   5.737
75752SOL     OW29029  13.107  12.953  11.598
75752SOL    HW129030  13.067  13.023  11.547
75752SOL    HW229031  13.058  12.875  11.573
75753SOL     OW29032   2.121   7.320   1.091
75753SOL    HW129033   2.167   7.387   1.041
75753SOL    HW229034   2.036   7.310   1.048
75754SOL     OW29035   8.001   1.418  10.958
75754SOL    HW129036   7.943   1.343  10.970
75754SOL    HW229037   8.089   1.383  10.974
75755SOL     OW29038  11.421   9.348  12.983
75755SOL    HW129039  11.366   9.290  12.930
75755SOL    HW229040  11.501   9.297  12.997
75756SOL     OW29041   3.669   6.664   1.790
75756SOL    HW129042   3.695   6.735   1.731
75756SOL    HW229043   3.573   6.664   1.787
75757SOL     OW29044   6.634   3.435   4.670
75757SOL    HW129045   6.652   3.463   4.760
75757SOL    HW229046   6.675   3.502   4.615
75758SOL     OW29047  14.132  11.696   6.460
75758SOL    HW129048  14.107  11.781   6.496
75758SOL    HW229049  14.100  11.633   6.523
75759SOL     OW29050   0.700   0.258   2.770
75759SOL    HW129051   0.719   0.341   2.815
75759SOL    HW229052   0.787   0.221   2.750
75760SOL     OW29053   5.984  10.376  11.005
75760SOL    HW129054   5.974  10.293  10.958
75760SOL    HW229055   5.935  10.439  10.953
75761SOL     OW29056   5.596   3.968  14.046
75761SOL    HW129057   5.635   4.052  14.021
75761SOL    HW229058   5.666   3.904  14.033
75762SOL     OW29059   4.120  11.683   9.195
75762SOL    HW129060   4.189  11.749   9.190
75762SOL    HW229061   4.135  11.626   9.120
75763SOL     OW29062   9.004   1.254   7.104
75763SOL    HW129063   9.079   1.195   7.096
75763SOL    HW229064   8.982   1.278   7.015
75764SOL     OW29065   5.838   3.236   5.246
75764SOL    HW129066   5.899   3.175   5.287
75764SOL    HW229067   5.768   3.246   5.311
75765SOL     OW29068   7.814  12.818   8.259
75765SOL    HW129069   7.744  12.884   8.254
75765SOL    HW229070   7.894  12.869   8.272
75766SOL     OW29071   8.609  14.816  10.523
75766SOL    HW129072   8.659  14.763  10.585
75766SOL    HW229073   8.571   0.004  10.577
75767SOL     OW29074  10.510  11.707  14.618
75767SOL    HW129075  10.503  11.802  14.610
75767SOL    HW229076  10.424  11.679  14.650
75768SOL     OW29077   4.571  12.295  11.971
75768SOL    HW129078   4.524  12.343  11.903
75768SOL    HW229079   4.629  12.236  11.923
75769SOL     OW29080   0.706   7.546  13.723
75769SOL    HW129081   0.628   7.538  13.669
75769SOL    HW229082   0.779   7.540  13.662
75770SOL     OW29083   2.320   7.635   6.002
75770SOL    HW129084   2.386   7.705   6.006
75770SOL    HW229085   2.350   7.577   5.933
75771SOL     OW29086   6.474   5.878  10.753
75771SOL    HW129087   6.503   5.951  10.807
75771SOL    HW229088   6.496   5.799  10.803
75772SOL     OW29089   3.995   6.566  13.356
75772SOL    HW129090   3.955   6.486  13.390
75772SOL    HW229091   4.088   6.556  13.372
75773SOL     OW29092   5.672  10.961   6.623
75773SOL    HW129093   5.748  10.946   6.567
75773SOL    HW229094   5.619  11.024   6.575
75774SOL     OW29095   1.896   4.820   4.093
75774SOL    HW129096   1.826   4.781   4.146
75774SOL    HW229097   1.882   4.786   4.005
75775SOL     OW29098   5.199   3.630  12.035
75775SOL    HW129099   5.216   3.537  12.047
75775SOL    HW229100   5.170   3.661  12.121
75776SOL     OW29101   1.710  11.501   0.056
75776SOL    HW129102   1.705  11.448  14.857
75776SOL    HW229103   1.686  11.441   0.126
75777SOL     OW29104   3.039  13.521   7.911
75777SOL    HW129105   3.052  13.445   7.968
75777SOL    HW229106   3.060  13.489   7.823
75778SOL     OW29107  11.119   2.636   3.248
75778SOL    HW129108  11.186   2.697   3.280
75778SOL    HW229109  11.156   2.601   3.167
75779SOL     OW29110   6.176  12.272   9.722
75779SOL    HW129111   6.217  12.344   9.768
75779SOL    HW229112   6.233  12.255   9.647
75780SOL     OW29113  12.480   4.187   6.889
75780SOL    HW129114  12.528   4.266   6.863
75780SOL    HW229115  12.428   4.215   6.965
75781SOL     OW29116  10.662   5.311  11.344
75781SOL    HW129117  10.592   5.376  11.346
75781SOL    HW229118  10.725   5.342  11.409
75782SOL     OW29119   4.040   9.238   2.404
75782SOL    HW129120   4.050   9.283   2.488
75782SOL    HW229121   3.946   9.245   2.384
75783SOL     OW29122  14.675  13.366   0.505
75783SOL    HW129123  14.604  13.370   0.569
75783SOL    HW229124  14.702  13.275   0.504
75784SOL     OW29125   7.705  10.321  10.769
75784SOL    HW129126   7.790  10.281  10.753
75784SOL    HW229127   7.642  10.264  10.725
75785SOL     OW29128  10.961  11.790   3.749
75785SOL    HW129129  11.040  11.773   3.697
75785SOL    HW229130  10.890  11.752   3.697
75786SOL     OW29131   6.030  14.236   9.688
75786SOL    HW129132   6.063  14.221   9.777
75786SOL    HW229133   6.020  14.331   9.682
75787SOL     OW29134   8.860   5.558   7.287
75787SOL    HW129135   8.830   5.587   7.200
75787SOL    HW229136   8.858   5.462   7.281
75788SOL     OW29137  12.119  11.249   3.911
75788SOL    HW129138  12.136  11.281   3.823
75788SOL    HW229139  12.163  11.312   3.969
75789SOL     OW29140  13.506   5.586  10.354
75789SOL    HW129141  13.520   5.570  10.261
75789SOL    HW229142  13.423   5.633  10.359
75790SOL     OW29143   0.427  12.465  13.732
75790SOL    HW129144   0.341  12.492  13.762
75790SOL    HW229145   0.434  12.500  13.643
75791SOL     OW29146  14.720  14.593   2.122
75791SOL    HW129147  14.765  14.627   2.044
75791SOL    HW229148  14.791  14.557   2.176
75792SOL     OW29149   5.353   6.047   5.101
75792SOL    HW129150   5.363   5.952   5.110
75792SOL    HW229151   5.442   6.079   5.087
75793SOL     OW29152   6.272  12.125  14.157
75793SOL    HW129153   6.245  12.037  14.181
75793SOL    HW229154   6.350  12.113  14.102
75794SOL     OW29155   5.922   9.872   8.874
75794SOL    HW129156   5.901   9.824   8.955
75794SOL    HW229157   5.941   9.803   8.810
75795SOL     OW29158   8.551   4.952   8.030
75795SOL    HW129159   8.484   4.991   7.974
75795SOL    HW229160   8.586   4.879   7.980
75796SOL     OW29161  10.787   4.118   0.303
75796SOL    HW129162  10.873   4.078   0.312
75796SOL    HW229163  10.739   4.060   0.243
75797SOL     OW29164   7.362   4.928   4.602
75797SOL    HW129165   7.350   4.836   4.625
75797SOL    HW229166   7.434   4.957   4.660
75798SOL     OW29167   4.297   2.638   7.760
75798SOL    HW129168   4.320   2.560   7.810
75798SOL    HW229169   4.304   2.611   7.668
75799SOL     OW29170  14.128  14.879   1.319
75799SOL    HW129171  14.217  14.860   1.346
75799SOL    HW229172  14.079  14.799   1.340
75800SOL     OW29173   2.429   7.252  14.133
75800SOL    HW129174   2.521   7.233  14.112
75800SOL    HW229175   2.407   7.325  14.076
75801SOL     OW29176   6.549   8.380  14.128
75801SOL    HW129177   6.547   8.289  14.097
75801SOL    HW229178   6.624   8.419  14.083
75802SOL     OW29179  12.046   6.146  14.012
75802SOL    HW129180  12.044   6.123  13.919
75802SOL    HW229181  12.116   6.211  14.019
75803SOL     OW29182  14.359  13.972   6.360
75803SOL    HW129183  14.437  14.020   6.332
75803SOL    HW229184  14.340  13.912   6.287
75804SOL     OW29185   6.342   2.624   5.384
75804SOL    HW129186   6.305   2.535   5.385
75804SOL    HW229187   6.274   2.677   5.343
75805SOL     OW29188   7.155  12.599   6.824
75805SOL    HW129189   7.059  12.597   6.823
75805SOL    HW229190   7.180  12.513   6.859
75806SOL     OW29191   0.446  10.202  13.197
75806SOL    HW129192   0.434  10.194  13.292
75806SOL    HW229193   0.433  10.295  13.180
75807SOL     OW29194   0.233   1.386   9.481
75807SOL    HW129195   0.174   1.402   9.554
75807SOL    HW229196   0.180   1.336   9.418
75808SOL     OW29197   4.953   0.126   5.811
75808SOL    HW129198   4.964   0.198   5.873
75808SOL    HW229199   4.858   0.109   5.810
75809SOL     OW29200  13.935   7.323   8.302
75809SOL    HW129201  13.908   7.406   8.341
75809SOL    HW229202  13.863   7.300   8.243
75810SOL     OW29203  11.689  10.113   5.206
75810SOL    HW129204  11.751  10.105   5.134
75810SOL    HW229205  11.703  10.202   5.239
75811SOL     OW29206  10.815  11.494   1.601
75811SOL    HW129207  10.890  11.480   1.658
75811SOL    HW229208  10.807  11.589   1.596
75812SOL     OW29209  12.356   0.033   8.149
75812SOL    HW129210  12.340  14.854   8.222
75812SOL    HW229211  12.311   0.113   8.174
75813SOL     OW29212   0.175  12.495   0.766
75813SOL    HW129213   0.243  12.510   0.700
75813SOL    HW229214   0.149  12.583   0.793
75814SOL     OW29215   2.610   0.040   1.386
75814SOL    HW129216   2.574   0.042   1.475
75814SOL    HW229217   2.542   0.079   1.332
75815SOL     OW29218   1.133   9.394   8.489
75815SOL    HW129219   1.142   9.380   8.395
75815SOL    HW229220   1.136   9.306   8.526
75816SOL     OW29221   1.644   4.370  10.762
75816SOL    HW129222   1.642   4.386  10.668
75816SOL    HW229223   1.710   4.303  10.774
75817SOL     OW29224  13.811   7.276   6.820
75817SOL    HW129225  13.893   7.262   6.866
75817SOL    HW229226  13.770   7.189   6.816
75818SOL     OW29227  12.311   6.117   0.808
75818SOL    HW129228  12.232   6.068   0.786
75818SOL    HW229229  12.290   6.160   0.890
75819SOL     OW29230   6.612  12.810   6.072
75819SOL    HW129231   6.680  12.874   6.093
75819SOL    HW229232   6.538  12.833   6.129
75820SOL     OW29233   7.064   0.183   3.443
75820SOL    HW129234   7.007   0.249   3.482
75820SOL    HW229235   7.095   0.223   3.362
75821SOL     OW29236   8.550  10.715  11.588
75821SOL    HW129237   8.641  10.731  11.562
75821SOL    HW229238   8.516  10.656  11.521
75822SOL     OW29239   2.385  14.548   0.313
75822SOL    HW129240   2.470  14.588   0.335
75822SOL    HW229241   2.337  14.549   0.396
75823SOL     OW29242   1.319   1.565  11.573
75823SOL    HW129243   1.267   1.642  11.548
75823SOL    HW229244   1.410   1.596  11.572
75824SOL     OW29245   3.913   3.344   4.934
75824SOL    HW129246   3.832   3.301   4.961
75824SOL    HW229247   3.887   3.400   4.861
75825SOL     OW29248   3.560   3.505   9.464
75825SOL    HW129249   3.517   3.425   9.495
75825SOL    HW229250   3.599   3.542   9.544
75826SOL     OW29251   2.481   0.793   6.579
75826SOL    HW129252   2.521   0.732   6.641
75826SOL    HW229253   2.387   0.776   6.585
75827SOL     OW29254   8.182   0.007  10.831
75827SOL    HW129255   8.185  14.828  10.905
75827SOL    HW229256   8.214  14.837  10.757
75828SOL     OW29257   6.465  10.139  11.080
75828SOL    HW129258   6.453  10.068  11.017
75828SOL    HW229259   6.388  10.133  11.137
75829SOL     OW29260   6.288   0.440  13.142
75829SOL    HW129261   6.200   0.460  13.176
75829SOL    HW229262   6.281   0.455  13.048
75830SOL     OW29263  12.951  11.971   6.258
75830SOL    HW129264  12.983  12.008   6.341
75830SOL    HW229265  12.919  11.884   6.282
75831SOL     OW29266   1.731   7.640   6.662
75831SOL    HW129267   1.758   7.729   6.641
75831SOL    HW229268   1.677   7.613   6.587
75832SOL     OW29269   9.232   3.208   8.552
75832SOL    HW129270   9.167   3.216   8.622
75832SOL    HW229271   9.259   3.298   8.534
75833SOL     OW29272  12.263  13.063  11.461
75833SOL    HW129273  12.219  13.133  11.412
75833SOL    HW229274  12.207  13.049  11.537
75834SOL     OW29275   2.408  12.209   5.095
75834SOL    HW129276   2.477  12.187   5.157
75834SOL    HW229277   2.429  12.297   5.065
75835SOL     OW29278   2.764  10.973  12.523
75835SOL    HW129279   2.771  10.962  12.428
75835SOL    HW229280   2.841  11.026  12.546
75836SOL     OW29281   2.452  14.025   6.570
75836SOL    HW129282   2.506  14.102   6.548
75836SOL    HW229283   2.450  13.975   6.488
75837SOL     OW29284  13.173   4.627   4.364
75837SOL    HW129285  13.222   4.705   4.338
75837SOL    HW229286  13.235   4.555   4.353
75838SOL     OW29287   1.890  10.346   8.302
75838SOL    HW129288   1.907  10.438   8.322
75838SOL    HW229289   1.796  10.342   8.284
75839SOL     OW29290   5.887  13.960  12.938
75839SOL    HW129291   5.868  14.009  13.018
75839SOL    HW229292   5.962  14.004  12.899
75840SOL     OW29293  14.761   0.709  11.884
75840SOL    HW129294  14.854   0.697  11.864
75840SOL    HW229295  14.759   0.782  11.945
75841SOL     OW29296   9.568  12.908  10.241
75841SOL    HW129297   9.590  12.833  10.296
75841SOL    HW229298   9.477  12.895  10.217
75842SOL     OW29299   2.105   9.394   5.308
75842SOL    HW129300   2.077   9.331   5.375
75842SOL    HW229301   2.132   9.339   5.234
75843SOL     OW29302  13.539   5.083   2.899
75843SOL    HW129303  13.566   5.172   2.922
75843SOL    HW229304  13.601   5.056   2.831
75844SOL     OW29305   5.558   5.773   7.463
75844SOL    HW129306   5.556   5.818   7.547
75844SOL    HW229307   5.510   5.831   7.404
75845SOL     OW29308  12.687  10.498  11.137
75845SOL    HW129309  12.698  10.513  11.231
75845SOL    HW229310  12.608  10.548  11.114
75846SOL     OW29311  11.822   4.901   5.642
75846SOL    HW129312  11.821   4.805   5.636
75846SOL    HW229313  11.733   4.927   5.617
75847SOL     OW29314  10.612   8.774   5.201
75847SOL    HW129315  10.663   8.692   5.206
75847SOL    HW229316  10.660   8.835   5.257
75848SOL     OW29317  12.765   6.821   8.321
75848SOL    HW129318  12.687   6.802   8.372
75848SOL    HW229319  12.795   6.906   8.354
75849SOL     OW29320   4.489   0.787   4.845
75849SOL    HW129321   4.576   0.804   4.808
75849SOL    HW229322   4.493   0.825   4.933
75850SOL     OW29323  10.873  12.239  11.947
75850SOL    HW129324  10.903  12.251  12.037
75850SOL    HW229325  10.786  12.280  11.945
75851SOL     OW29326   9.168  11.400   2.678
75851SOL    HW129327   9.146  11.491   2.699
75851SOL    HW229328   9.263  11.398   2.679
75852SOL     OW29329   6.535   4.907  13.752
75852SOL    HW129330   6.500   4.823  13.779
75852SOL    HW229331   6.544   4.957  13.834
75853SOL     OW29332   0.863  14.636   9.753
75853SOL    HW129333   0.911  14.706   9.797
75853SOL    HW229334   0.856  14.666   9.662
75854SOL     OW29335   6.511  13.319   8.299
75854SOL    HW129336   6.463  13.277   8.371
75854SOL    HW229337   6.600  13.328   8.331
75855SOL     OW29338   0.132   5.495   8.094
75855SOL    HW129339   0.097   5.563   8.037
75855SOL    HW229340   0.227   5.505   8.087
75856SOL     OW29341   7.065   7.730   1.049
75856SOL    HW129342   7.086   7.754   0.959
75856SOL    HW229343   7.020   7.807   1.085
75857SOL     OW29344  13.249   9.237   8.936
75857SOL    HW129345  13.277   9.149   8.964
75857SOL    HW229346  13.163   9.248   8.976
75858SOL     OW29347   7.523   6.099   6.567
75858SOL    HW129348   7.583   6.036   6.607
75858SOL    HW229349   7.489   6.054   6.489
75859SOL     OW29350  13.584   6.228   8.346
75859SOL    HW129351  13.676   6.253   8.355
75859SOL    HW229352  13.551   6.225   8.436
75860SOL     OW29353   6.946  10.103   0.428
75860SOL    HW129354   6.969  10.030   0.370
75860SOL    HW229355   6.870  10.144   0.386
75861SOL     OW29356  13.530   0.020   4.103
75861SOL    HW129357  13.560   0.089   4.044
75861SOL    HW229358  13.507  14.829   4.045
75862SOL     OW29359  13.733  10.191   8.979
75862SOL    HW129360  13.784  10.111   8.979
75862SOL    HW229361  13.787  10.255   8.933
75863SOL     OW29362  14.304   9.822   4.524
75863SOL    HW129363  14.348   9.907   4.524
75863SOL    HW229364  14.213   9.843   4.506
75864SOL     OW29365   3.485  11.928   5.202
75864SOL    HW129366   3.553  11.989   5.230
75864SOL    HW229367   3.408  11.954   5.253
75865SOL     OW29368   4.401  12.557   8.604
75865SOL    HW129369   4.330  12.502   8.638
75865SOL    HW229370   4.357  12.619   8.545
75866SOL     OW29371  10.699  12.395   6.328
75866SOL    HW129372  10.701  12.447   6.247
75866SOL    HW229373  10.784  12.352   6.331
75867SOL     OW29374   8.143  10.179   7.654
75867SOL    HW129375   8.083  10.230   7.599
75867SOL    HW229376   8.133  10.217   7.741
75868SOL     OW29377  14.150   0.660   3.040
75868SOL    HW129378  14.224   0.699   3.087
75868SOL    HW229379  14.180   0.573   3.015
75869SOL     OW29380   2.856   6.269  12.857
75869SOL    HW129381   2.789   6.220  12.904
75869SOL    HW229382   2.807   6.329  12.801
75870SOL     OW29383   7.749  13.424   4.888
75870SOL    HW129384   7.689  13.492   4.916
75870SOL    HW229385   7.819  13.424   4.954
75871SOL     OW29386   1.608   8.582  12.801
75871SOL    HW129387   1.549   8.507  12.801
75871SOL    HW229388   1.550   8.658  12.803
75872SOL     OW29389   3.244   4.425   7.181
75872SOL    HW129390   3.322   4.472   7.209
75872SOL    HW229391   3.271   4.334   7.174
75873SOL     OW29392   5.444  11.958   4.022
75873SOL    HW129393   5.442  11.872   3.981
75873SOL    HW229394   5.365  11.962   4.076
75874SOL     OW29395  12.090   3.089   2.734
75874SOL    HW129396  12.062   3.092   2.826
75874SOL    HW229397  12.019   3.131   2.686
75875SOL     OW29398   3.803   0.665   1.447
75875SOL    HW129399   3.769   0.616   1.521
75875SOL    HW229400   3.731   0.666   1.383
75876SOL     OW29401  14.017   9.301   7.546
75876SOL    HW129402  14.029   9.234   7.479
75876SOL    HW229403  13.922   9.301   7.563
75877SOL     OW29404  12.040  14.434   6.934
75877SOL    HW129405  12.041  14.498   6.863
75877SOL    HW229406  12.073  14.353   6.894
75878SOL     OW29407   8.666  10.285  11.905
75878SOL    HW129408   8.741  10.290  11.964
75878SOL    HW229409   8.654  10.374  11.873
75879SOL     OW29410  14.336   3.724  12.771
75879SOL    HW129411  14.340   3.748  12.864
75879SOL    HW229412  14.264   3.777  12.737
75880SOL     OW29413  11.516   9.238  11.520
75880SOL    HW129414  11.519   9.182  11.598
75880SOL    HW229415  11.605   9.237  11.486
75881SOL     OW29416   8.393  13.867  14.055
75881SOL    HW129417   8.425  13.949  14.016
75881SOL    HW229418   8.403  13.803  13.985
75882SOL     OW29419   3.034   7.214  12.187
75882SOL    HW129420   3.067   7.143  12.242
75882SOL    HW229421   3.113   7.257  12.154
75883SOL     OW29422   7.274   7.765   7.070
75883SOL    HW129423   7.298   7.838   7.014
75883SOL    HW229424   7.201   7.722   7.024
75884SOL     OW29425  11.230   0.676   9.821
75884SOL    HW129426  11.225   0.771   9.832
75884SOL    HW229427  11.166   0.642   9.883
75885SOL     OW29428  11.576   5.475   1.814
75885SOL    HW129429  11.615   5.416   1.750
75885SOL    HW229430  11.535   5.544   1.762
75886SOL     OW29431   7.666  12.906  10.636
75886SOL    HW129432   7.676  12.853  10.558
75886SOL    HW229433   7.576  12.890  10.665
75887SOL     OW29434   4.956  13.148  12.101
75887SOL    HW129435   5.048  13.131  12.121
75887SOL    HW229436   4.958  13.199  12.020
75888SOL     OW29437   5.865  13.128   6.245
75888SOL    HW129438   5.775  13.107   6.270
75888SOL    HW229439   5.884  13.069   6.172
75889SOL     OW29440  13.768   8.460   6.338
75889SOL    HW129441  13.739   8.552   6.336
75889SOL    HW229442  13.718   8.421   6.409
75890SOL     OW29443   3.337   1.297  10.545
75890SOL    HW129444   3.270   1.316  10.610
75890SOL    HW229445   3.384   1.221  10.580
75891SOL     OW29446   7.909   0.370   5.852
75891SOL    HW129447   7.885   0.374   5.760
75891SOL    HW229448   7.925   0.461   5.877
75892SOL     OW29449   1.901  13.955   2.009
75892SOL    HW129450   1.886  13.938   1.916
75892SOL    HW229451   1.996  13.952   2.019
75893SOL     OW29452   3.636   6.264   5.004
75893SOL    HW129453   3.556   6.212   5.003
75893SOL    HW229454   3.706   6.200   5.007
75894SOL     OW29455   1.699   8.608  10.798
75894SOL    HW129456   1.608   8.579  10.808
75894SOL    HW229457   1.750   8.527  10.799
75895SOL     OW29458   7.855   5.148   3.601
75895SOL    HW129459   7.918   5.207   3.560
75895SOL    HW229460   7.770   5.192   3.591
75896SOL     OW29461   2.693   7.661   3.452
75896SOL    HW129462   2.769   7.606   3.474
75896SOL    HW229463   2.703   7.680   3.359
75897SOL     OW29464  13.974   1.201   6.958
75897SOL    HW129465  14.000   1.109   6.953
75897SOL    HW229466  13.987   1.234   6.869
75898SOL     OW29467   0.598   3.466  11.878
75898SOL    HW129468   0.578   3.552  11.841
75898SOL    HW229469   0.552   3.404  11.822
75899SOL     OW29470   3.460   4.178   7.682
75899SOL    HW129471   3.401   4.172   7.606
75899SOL    HW229472   3.485   4.087   7.699
75900SOL     OW29473   1.496  10.427   8.622
75900SOL    HW129474   1.558  10.356   8.611
75900SOL    HW229475   1.507  10.482   8.544
75901SOL     OW29476   7.234   0.191   5.253
75901SOL    HW129477   7.273   0.171   5.338
75901SOL    HW229478   7.262   0.281   5.235
75902SOL     OW29479  12.466  12.537  14.021
75902SOL    HW129480  12.537  12.495  14.071
75902SOL    HW229481  12.508  12.613  13.981
75903SOL     OW29482   1.252   2.516   8.515
75903SOL    HW129483   1.171   2.566   8.516
75903SOL    HW229484   1.259   2.480   8.604
75904SOL     OW29485  11.492   0.835   5.281
75904SOL    HW129486  11.476   0.765   5.345
75904SOL    HW229487  11.581   0.818   5.250
75905SOL     OW29488   6.273  13.287   9.506
75905SOL    HW129489   6.276  13.277   9.411
75905SOL    HW229490   6.182  13.268   9.530
75906SOL     OW29491  12.009  13.230  13.594
75906SOL    HW129492  12.049  13.144  13.580
75906SOL    HW229493  12.070  13.292  13.553
75907SOL     OW29494   3.709   2.877   1.540
75907SOL    HW129495   3.618   2.846   1.543
75907SOL    HW229496   3.738   2.872   1.631
75908SOL     OW29497  12.587   2.850   7.458
75908SOL    HW129498  12.607   2.857   7.552
75908SOL    HW229499  12.567   2.758   7.444
75909SOL     OW29500  10.012   8.275   4.188
75909SOL    HW129501   9.948   8.207   4.209
75909SOL    HW229502  10.063   8.286   4.268
75910SOL     OW29503   5.160  14.088  13.669
75910SOL    HW129504   5.085  14.131  13.710
75910SOL    HW229505   5.219  14.159  13.645
75911SOL     OW29506   6.173  11.355   1.234
75911SOL    HW129507   6.168  11.377   1.142
75911SOL    HW229508   6.119  11.276   1.243
75912SOL     OW29509   9.143  14.512   5.237
75912SOL    HW129510   9.066  14.475   5.193
75912SOL    HW229511   9.121  14.508   5.330
75913SOL     OW29512   6.502   3.023   5.939
75913SOL    HW129513   6.457   3.011   6.022
75913SOL    HW229514   6.533   3.114   5.941
75914SOL     OW29515   1.063  13.111   5.703
75914SOL    HW129516   1.020  13.065   5.776
75914SOL    HW229517   1.015  13.082   5.625
75915SOL     OW29518   5.362   6.404   6.039
75915SOL    HW129519   5.347   6.492   6.074
75915SOL    HW229520   5.423   6.364   6.102
75916SOL     OW29521   2.503   3.221  13.234
75916SOL    HW129522   2.495   3.195  13.143
75916SOL    HW229523   2.588   3.263  13.240
75917SOL     OW29524   0.730   1.570   8.786
75917SOL    HW129525   0.812   1.611   8.758
75917SOL    HW229526   0.672   1.579   8.710
75918SOL     OW29527  12.382   4.114   3.796
75918SOL    HW129528  12.323   4.188   3.815
75918SOL    HW229529  12.373   4.056   3.872
75919SOL     OW29530  10.320   6.463   7.133
75919SOL    HW129531  10.379   6.471   7.208
75919SOL    HW229532  10.334   6.374   7.102
75920SOL     OW29533   1.837   3.678   5.251
75920SOL    HW129534   1.800   3.764   5.231
75920SOL    HW229535   1.829   3.628   5.170
75921SOL     OW29536  11.045   3.691   2.779
75921SOL    HW129537  10.966   3.653   2.740
75921SOL    HW229538  11.090   3.735   2.706
75922SOL     OW29539  12.725   7.665   8.672
75922SOL    HW129540  12.703   7.669   8.579
75922SOL    HW229541  12.673   7.592   8.705
75923SOL     OW29542  12.769   8.015   9.103
75923SOL    HW129543  12.684   8.047   9.072
75923SOL    HW229544  12.821   8.004   9.023
75924SOL     OW29545   3.333  13.630   0.416
75924SOL    HW129546   3.238  13.641   0.423
75924SOL    HW229547   3.346  13.536   0.406
75925SOL     OW29548   0.778   1.170   6.316
75925SOL    HW129549   0.755   1.087   6.358
75925SOL    HW229550   0.695   1.216   6.305
75926SOL     OW29551  14.723   3.770   3.877
75926SOL    HW129552  14.680   3.741   3.796
75926SOL    HW229553  14.664   3.742   3.947
75927SOL     OW29554   5.645   1.395   1.722
75927SOL    HW129555   5.666   1.407   1.629
75927SOL    HW229556   5.605   1.309   1.727
75928SOL     OW29557   6.293   2.622   6.652
75928SOL    HW129558   6.370   2.667   6.687
75928SOL    HW229559   6.282   2.546   6.709
75929SOL     OW29560  12.572  13.180   8.898
75929SOL    HW129561  12.582  13.193   8.804
75929SOL    HW229562  12.654  13.137   8.925
75930SOL     OW29563   7.966   6.965  12.588
75930SOL    HW129564   8.039   6.931  12.639
75930SOL    HW229565   7.982   6.934  12.499
75931SOL     OW29566   5.346   3.553   6.536
75931SOL    HW129567   5.383   3.507   6.611
75931SOL    HW229568   5.270   3.500   6.511
75932SOL     OW29569  11.121   2.619   5.659
75932SOL    HW129570  11.166   2.702   5.673
75932SOL    HW229571  11.191   2.556   5.646
75933SOL     OW29572   7.513   5.001  10.216
75933SOL    HW129573   7.520   5.095  10.231
75933SOL    HW229574   7.440   4.991  10.155
75934SOL     OW29575   2.206  12.964   8.328
75934SOL    HW129576   2.232  12.989   8.239
75934SOL    HW229577   2.161  12.880   8.316
75935SOL     OW29578  13.446   9.013   2.369
75935SOL    HW129579  13.370   8.955   2.363
75935SOL    HW229580  13.515   8.967   2.321
75936SOL     OW29581  11.755  12.561   1.475
75936SOL    HW129582  11.714  12.641   1.443
75936SOL    HW229583  11.840  12.560   1.431
75937SOL     OW29584   2.733  13.399   9.196
75937SOL    HW129585   2.796  13.327   9.198
75937SOL    HW229586   2.704  13.402   9.105
75938SOL     OW29587   2.026   3.255   9.808
75938SOL    HW129588   2.082   3.220   9.740
75938SOL    HW229589   2.069   3.230   9.890
75939SOL     OW29590   1.696   7.201   9.547
75939SOL    HW129591   1.729   7.290   9.555
75939SOL    HW229592   1.725   7.156   9.627
75940SOL     OW29593   8.602   5.447   9.666
75940SOL    HW129594   8.574   5.524   9.716
75940SOL    HW229595   8.593   5.374   9.728
75941SOL     OW29596   4.375   0.254   7.463
75941SOL    HW129597   4.469   0.265   7.448
75941SOL    HW229598   4.368   0.196   7.538
75942SOL     OW29599   8.491   5.249   4.994
75942SOL    HW129600   8.518   5.238   4.903
75942SOL    HW229601   8.416   5.190   5.004
75943SOL     OW29602   3.370   3.898  11.922
75943SOL    HW129603   3.332   3.894  11.834
75943SOL    HW229604   3.432   3.971  11.917
75944SOL     OW29605  12.752   5.550   7.652
75944SOL    HW129606  12.768   5.456   7.645
75944SOL    HW229607  12.663   5.556   7.689
75945SOL     OW29608   2.864  11.425   1.369
75945SOL    HW129609   2.902  11.340   1.349
75945SOL    HW229610   2.916  11.487   1.318
75946SOL     OW29611   4.852   5.476   6.945
75946SOL    HW129612   4.768   5.432   6.942
75946SOL    HW229613   4.835   5.557   6.994
75947SOL     OW29614   7.637   8.423   2.311
75947SOL    HW129615   7.717   8.447   2.266
75947SOL    HW229616   7.664   8.358   2.376
75948SOL     OW29617   6.917   8.003   0.471
75948SOL    HW129618   7.005   8.038   0.481
75948SOL    HW229619   6.903   7.999   0.376
75949SOL     OW29620   8.794  14.198   7.954
75949SOL    HW129621   8.867  14.259   7.953
75949SOL    HW229622   8.811  14.138   7.881
75950SOL     OW29623   9.826  10.093  13.875
75950SOL    HW129624   9.863  10.038  13.805
75950SOL    HW229625   9.743  10.123  13.839
75951SOL     OW29626   9.381  11.290   6.585
75951SOL    HW129627   9.378  11.208   6.633
75951SOL    HW229628   9.397  11.264   6.494
75952SOL     OW29629   4.045   3.284   5.905
75952SOL    HW129630   4.115   3.340   5.938
75952SOL    HW229631   4.083   3.197   5.901
75953SOL     OW29632   0.794   2.708   1.616
75953SOL    HW129633   0.827   2.651   1.686
75953SOL    HW229634   0.724   2.758   1.657
75954SOL     OW29635   0.019  13.707  14.528
75954SOL    HW129636   0.044  13.757  14.451
75954SOL    HW229637   0.098  13.658  14.552
75955SOL     OW29638  12.868   7.369   9.902
75955SOL    HW129639  12.894   7.416   9.822
75955SOL    HW229640  12.785   7.409   9.927
75956SOL     OW29641   1.766   1.720   5.075
75956SOL    HW129642   1.798   1.691   4.990
75956SOL    HW229643   1.801   1.808   5.086
75957SOL     OW29644   4.553  13.201  11.907
75957SOL    HW129645   4.633  13.231  11.864
75957SOL    HW229646   4.502  13.160  11.838
75958SOL     OW29647   6.713  14.004   7.215
75958SOL    HW129648   6.760  14.064   7.273
75958SOL    HW229649   6.621  14.027   7.228
75959SOL     OW29650   8.925   3.639   5.410
75959SOL    HW129651   8.989   3.709   5.425
75959SOL    HW229652   8.841   3.684   5.404
75960SOL     OW29653   6.406  12.834   1.229
75960SOL    HW129654   6.474  12.877   1.177
75960SOL    HW229655   6.390  12.751   1.184
75961SOL     OW29656  10.734   9.585   2.843
75961SOL    HW129657  10.644   9.555   2.840
75961SOL    HW229658  10.760   9.595   2.751
75962SOL     OW29659   0.709   1.911   0.580
75962SOL    HW129660   0.615   1.925   0.591
75962SOL    HW229661   0.716   1.856   0.502
75963SOL     OW29662   8.792   5.227   0.924
75963SOL    HW129663   8.698   5.227   0.906
75963SOL    HW229664   8.808   5.313   0.964
75964SOL     OW29665   0.657  12.462   9.244
75964SOL    HW129666   0.608  12.420   9.174
75964SOL    HW229667   0.745  12.472   9.208
75965SOL     OW29668   1.774   8.802   5.674
75965SOL    HW129669   1.815   8.722   5.708
75965SOL    HW229670   1.844   8.847   5.627
75966SOL     OW29671  11.547   5.323  11.713
75966SOL    HW129672  11.515   5.408  11.680
75966SOL    HW229673  11.641   5.336  11.723
75967SOL     OW29674  13.436   1.088   1.861
75967SOL    HW129675  13.481   1.102   1.944
75967SOL    HW229676  13.348   1.124   1.875
75968SOL     OW29677   1.698  13.225  14.464
75968SOL    HW129678   1.700  13.129  14.468
75968SOL    HW229679   1.643  13.251  14.538
75969SOL     OW29680   8.895   6.107  13.477
75969SOL    HW129681   8.961   6.038  13.487
75969SOL    HW229682   8.811   6.062  13.487
75970SOL     OW29683   1.767  11.213   2.255
75970SOL    HW129684   1.697  11.251   2.201
75970SOL    HW229685   1.754  11.252   2.342
75971SOL     OW29686   8.508   9.004   2.401
75971SOL    HW129687   8.493   9.000   2.307
75971SOL    HW229688   8.507   8.912   2.430
75972SOL     OW29689  14.791  12.664   4.138
75972SOL    HW129690  14.696  12.672   4.124
75972SOL    HW229691  14.821  12.754   4.152
75973SOL     OW29692  10.876   2.752   3.449
75973SOL    HW129693  10.807   2.818   3.460
75973SOL    HW229694  10.847   2.699   3.375
75974SOL     OW29695   2.162  13.129  11.589
75974SOL    HW129696   2.148  13.205  11.532
75974SOL    HW229697   2.195  13.165  11.671
75975SOL     OW29698   5.090   5.031   1.806
75975SOL    HW129699   5.138   5.114   1.804
75975SOL    HW229700   5.095   4.998   1.716
75976SOL     OW29701  12.397   9.725   0.117
75976SOL    HW129702  12.343   9.657   0.158
75976SOL    HW229703  12.404   9.699   0.026
75977SOL     OW29704   4.665  11.950   5.862
75977SOL    HW129705   4.591  12.010   5.867
75977SOL    HW229706   4.713  11.964   5.944
75978SOL     OW29707   2.473  12.943   7.232
75978SOL    HW129708   2.424  12.872   7.191
75978SOL    HW229709   2.417  13.020   7.220
75979SOL     OW29710  14.253   6.118   5.153
75979SOL    HW129711  14.293   6.184   5.097
75979SOL    HW229712  14.164   6.150   5.168
75980SOL     OW29713   7.192   9.347  12.434
75980SOL    HW129714   7.167   9.435  12.462
75980SOL    HW229715   7.275   9.330  12.478
75981SOL     OW29716  14.554   1.184   1.909
75981SOL    HW129717  14.547   1.262   1.854
75981SOL    HW229718  14.628   1.202   1.967
75982SOL     OW29719  12.402   8.002   5.688
75982SOL    HW129720  12.474   8.042   5.737
75982SOL    HW229721  12.327   8.007   5.747
75983SOL     OW29722  12.017   3.277   6.167
75983SOL    HW129723  12.065   3.272   6.249
75983SOL    HW229724  11.926   3.263   6.191
75984SOL     OW29725   8.655   8.760  10.672
75984SOL    HW129726   8.612   8.763  10.587
75984SOL    HW229727   8.633   8.673  10.706
75985SOL     OW29728   7.544   4.721   2.300
75985SOL    HW129729   7.591   4.783   2.243
75985SOL    HW229730   7.601   4.644   2.303
75986SOL     OW29731   4.106   3.917   9.141
75986SOL    HW129732   4.188   3.938   9.097
75986SOL    HW229733   4.038   3.960   9.088
75987SOL     OW29734   8.309   7.071   5.132
75987SOL    HW129735   8.352   7.034   5.209
75987SOL    HW229736   8.221   7.031   5.133
75988SOL     OW29737   4.766  14.148  13.960
75988SOL    HW129738   4.764  14.219  13.895
75988SOL    HW229739   4.674  14.132  13.980
75989SOL     OW29740   2.425  13.434   3.619
75989SOL    HW129741   2.353  13.416   3.559
75989SOL    HW229742   2.488  13.483   3.567
75990SOL     OW29743   8.340   3.984   2.536
75990SOL    HW129744   8.391   4.043   2.482
75990SOL    HW229745   8.252   4.022   2.537
75991SOL     OW29746  14.041   3.059   5.684
75991SOL    HW129747  13.983   3.134   5.690
75991SOL    HW229748  14.117   3.091   5.636
75992SOL     OW29749   2.417   9.798  13.240
75992SOL    HW129750   2.432   9.891  13.252
75992SOL    HW229751   2.503   9.763  13.214
75993SOL     OW29752  11.170   3.817  13.757
75993SOL    HW129753  11.097   3.765  13.791
75993SOL    HW229754  11.247   3.762  13.771
75994SOL     OW29755  12.836  13.681   1.418
75994SOL    HW129756  12.815  13.762   1.464
75994SOL    HW229757  12.847  13.708   1.327
75995SOL     OW29758   7.955  11.118   3.479
75995SOL    HW129759   7.939  11.075   3.563
75995SOL    HW229760   7.884  11.086   3.422
75996SOL     OW29761   4.641   0.649   6.327
75996SOL    HW129762   4.602   0.562   6.317
75996SOL    HW229763   4.623   0.693   6.245
75997SOL     OW29764   5.056  14.623   6.817
75997SOL    HW129765   5.133  14.576   6.849
75997SOL    HW229766   5.023  14.671   6.893
75998SOL     OW29767   1.053   5.744  10.594
75998SOL    HW129768   1.146   5.723  10.606
75998SOL    HW229769   1.011   5.714  10.675
75999SOL     OW29770   1.930   2.334   4.330
75999SOL    HW129771   1.846   2.291   4.319
75999SOL    HW229772   1.952   2.320   4.422
76000SOL     OW29773  10.022   6.878  12.971
76000SOL    HW129774  10.112   6.911  12.973
76000SOL    HW229775  10.031   6.784  12.987
76001SOL     OW29776   3.359   8.037   0.672
76001SOL    HW129777   3.318   8.119   0.645
76001SOL    HW229778   3.369   7.987   0.591
76002SOL     OW29779   2.750  12.223   5.517
76002SOL    HW129780   2.789  12.296   5.564
76002SOL    HW229781   2.801  12.147   5.545
76003SOL     OW29782   8.788   4.418   2.122
76003SOL    HW129783   8.813   4.467   2.044
76003SOL    HW229784   8.862   4.359   2.138
76004SOL     OW29785  10.185  11.664   4.044
76004SOL    HW129786  10.135  11.725   3.991
76004SOL    HW229787  10.251  11.628   3.984
76005SOL     OW29788  10.490  12.254   6.128
76005SOL    HW129789  10.500  12.350   6.130
76005SOL    HW229790  10.448  12.233   6.211
76006SOL     OW29791   7.072   1.144   5.515
76006SOL    HW129792   7.001   1.183   5.566
76006SOL    HW229793   7.077   1.197   5.435
76007SOL     OW29794   3.606  10.743   0.801
76007SOL    HW129795   3.685  10.755   0.853
76007SOL    HW229796   3.597  10.824   0.751
76008SOL     OW29797  12.235   2.264  13.443
76008SOL    HW129798  12.299   2.211  13.491
76008SOL    HW229799  12.200   2.204  13.377
76009SOL     OW29800   8.264   5.192   6.421
76009SOL    HW129801   8.203   5.259   6.452
76009SOL    HW229802   8.338   5.241   6.385
76010SOL     OW29803   3.959   7.795   1.341
76010SOL    HW129804   4.017   7.844   1.400
76010SOL    HW229805   3.981   7.828   1.254
76011SOL     OW29806   5.402   6.580   9.693
76011SOL    HW129807   5.461   6.627   9.635
76011SOL    HW229808   5.331   6.549   9.636
76012SOL     OW29809   6.540   9.686  12.545
76012SOL    HW129810   6.546   9.659  12.637
76012SOL    HW229811   6.451   9.662  12.519
76013SOL     OW29812  11.168   7.425  11.183
76013SOL    HW129813  11.106   7.371  11.134
76013SOL    HW229814  11.120   7.505  11.204
76014SOL     OW29815  14.230  13.676   9.481
76014SOL    HW129816  14.285  13.752   9.460
76014SOL    HW229817  14.246  13.660   9.574
76015SOL     OW29818   8.265   3.830   3.582
76015SOL    HW129819   8.304   3.758   3.532
76015SOL    HW229820   8.336   3.859   3.640
76016SOL     OW29821   1.685   4.942   5.359
76016SOL    HW129822   1.679   4.910   5.269
76016SOL    HW229823   1.660   5.034   5.355
76017SOL     OW29824  14.357   5.669  10.007
76017SOL    HW129825  14.324   5.601   9.948
76017SOL    HW229826  14.390   5.622  10.083
76018SOL     OW29827   4.888   8.942   1.151
76018SOL    HW129828   4.814   8.997   1.125
76018SOL    HW229829   4.850   8.855   1.161
76019SOL     OW29830   8.639   8.144   8.601
76019SOL    HW129831   8.605   8.186   8.680
76019SOL    HW229832   8.578   8.171   8.532
76020SOL     OW29833   5.895   0.529   4.590
76020SOL    HW129834   5.984   0.558   4.571
76020SOL    HW229835   5.863   0.491   4.508
76021SOL     OW29836   4.689   2.159  11.713
76021SOL    HW129837   4.737   2.121  11.787
76021SOL    HW229838   4.601   2.176  11.748
76022SOL     OW29839   6.394   1.511   3.828
76022SOL    HW129840   6.414   1.557   3.747
76022SOL    HW229841   6.353   1.429   3.801
76023SOL     OW29842  13.735   6.812  12.219
76023SOL    HW129843  13.748   6.890  12.165
76023SOL    HW229844  13.645   6.785  12.201
76024SOL     OW29845   4.504   9.072   5.700
76024SOL    HW129846   4.466   9.040   5.782
76024SOL    HW229847   4.429   9.097   5.647
76025SOL     OW29848  14.301   5.856  12.780
76025SOL    HW129849  14.292   5.825  12.690
76025SOL    HW229850  14.211   5.855  12.814
76026SOL     OW29851  13.225   8.455  12.739
76026SOL    HW129852  13.274   8.404  12.674
76026SOL    HW229853  13.135   8.454  12.708
76027SOL     OW29854  11.208   2.417   8.985
76027SOL    HW129855  11.156   2.408   8.905
76027SOL    HW229856  11.178   2.499   9.023
76028SOL     OW29857   3.804   8.130  14.421
76028SOL    HW129858   3.818   8.147  14.514
76028SOL    HW229859   3.802   8.034  14.414
76029SOL     OW29860   6.483   6.520  14.702
76029SOL    HW129861   6.572   6.554  14.696
76029SOL    HW229862   6.491   6.427  14.677
76030SOL     OW29863   1.948   4.193   4.487
76030SOL    HW129864   1.993   4.219   4.566
76030SOL    HW229865   1.996   4.116   4.456
76031SOL     OW29866   8.661   6.731   4.655
76031SOL    HW129867   8.625   6.673   4.588
76031SOL    HW229868   8.599   6.804   4.659
76032SOL     OW29869   7.829   9.769   8.468
76032SOL    HW129870   7.819   9.675   8.486
76032SOL    HW229871   7.741   9.805   8.474
76033SOL     OW29872   7.726  13.978  14.367
76033SOL    HW129873   7.772  14.005  14.288
76033SOL    HW229874   7.707  13.885  14.353
76034SOL     OW29875  10.764  10.431  10.702
76034SOL    HW129876  10.721  10.497  10.649
76034SOL    HW229877  10.745  10.457  10.793
76035SOL     OW29878  13.712   1.414   7.519
76035SOL    HW129879  13.772   1.362   7.466
76035SOL    HW229880  13.747   1.502   7.516
76036SOL     OW29881   5.007   9.711   8.791
76036SOL    HW129882   4.951   9.643   8.828
76036SOL    HW229883   5.061   9.740   8.865
76037SOL     OW29884   5.533   6.057  14.375
76037SOL    HW129885   5.455   6.067  14.429
76037SOL    HW229886   5.531   6.131  14.315
76038SOL     OW29887   2.885   3.151   9.575
76038SOL    HW129888   2.949   3.081   9.566
76038SOL    HW229889   2.861   3.172   9.484
76039SOL     OW29890   9.414   1.266   7.227
76039SOL    HW129891   9.391   1.356   7.249
76039SOL    HW229892   9.498   1.274   7.180
76040SOL     OW29893   6.996   5.527   6.238
76040SOL    HW129894   6.901   5.544   6.239
76040SOL    HW229895   7.017   5.518   6.145
76041SOL     OW29896   5.963   0.657   4.973
76041SOL    HW129897   5.878   0.700   4.981
76041SOL    HW229898   6.016   0.718   4.921
76042SOL     OW29899   6.388   0.073  11.587
76042SOL    HW129900   6.461   0.135  11.581
76042SOL    HW229901   6.319   0.121  11.631
76043SOL     OW29902   0.218  14.011   9.261
76043SOL    HW129903   0.223  14.060   9.179
76043SOL    HW229904   0.195  14.077   9.327
76044SOL     OW29905   0.634   8.122   6.538
76044SOL    HW129906   0.640   8.039   6.584
76044SOL    HW229907   0.551   8.118   6.491
76045SOL     OW29908   8.936  12.893  14.855
76045SOL    HW129909   8.970  12.805  14.871
76045SOL    HW229910   8.843  12.880  14.836
76046SOL     OW29911   8.832   3.456  14.427
76046SOL    HW129912   8.893   3.418  14.364
76046SOL    HW229913   8.748   3.414  14.408
76047SOL     OW29914   7.397   0.365  10.843
76047SOL    HW129915   7.432   0.382  10.756
76047SOL    HW229916   7.466   0.315  10.887
76048SOL     OW29917  10.803   2.250   0.810
76048SOL    HW129918  10.734   2.314   0.791
76048SOL    HW229919  10.755   2.172   0.839
76049SOL     OW29920  14.257   9.408  14.722
76049SOL    HW129921  14.320   9.344  14.756
76049SOL    HW229922  14.273   9.409  14.627
76050SOL     OW29923   6.004   4.024   1.146
76050SOL    HW129924   5.953   3.944   1.143
76050SOL    HW229925   5.946   4.089   1.186
76051SOL     OW29926   7.011  13.037  11.711
76051SOL    HW129927   7.001  13.049  11.616
76051SOL    HW229928   6.970  12.952  11.728
76052SOL     OW29929   4.486  14.157  14.695
76052SOL    HW129930   4.509  14.115  14.778
76052SOL    HW229931   4.432  14.093  14.649
76053SOL     OW29932   9.203   3.083  11.811
76053SOL    HW129933   9.164   3.027  11.877
76053SOL    HW229934   9.213   3.028  11.734
76054SOL     OW29935  13.758   2.610   7.048
76054SOL    HW129936  13.802   2.533   7.084
76054SOL    HW229937  13.713   2.650   7.123
76055SOL     OW29938  13.903  11.806   2.457
76055SOL    HW129939  13.934  11.764   2.537
76055SOL    HW229940  13.879  11.895   2.484
76056SOL     OW29941   1.842   4.345   6.477
76056SOL    HW129942   1.781   4.356   6.404
76056SOL    HW229943   1.915   4.296   6.440
76057SOL     OW29944   1.066   7.231   9.029
76057SOL    HW129945   1.141   7.199   8.979
76057SOL    HW229946   0.995   7.170   9.006
76058SOL     OW29947   7.733   5.140   9.453
76058SOL    HW129948   7.739   5.231   9.481
76058SOL    HW229949   7.810   5.127   9.398
76059SOL     OW29950  14.699   9.735   3.226
76059SOL    HW129951  14.645   9.656   3.224
76059SOL    HW229952  14.720   9.748   3.318
76060SOL     OW29953   6.318   3.670   3.163
76060SOL    HW129954   6.259   3.694   3.092
76060SOL    HW229955   6.279   3.592   3.201
76061SOL     OW29956   1.506   6.074  13.958
76061SOL    HW129957   1.468   6.161  13.964
76061SOL    HW229958   1.432   6.014  13.969
76062SOL     OW29959   6.566   7.016   1.697
76062SOL    HW129960   6.533   7.096   1.739
76062SOL    HW229961   6.622   6.976   1.764
76063SOL     OW29962   6.123   9.190  10.111
76063SOL    HW129963   6.039   9.236  10.113
76063SOL    HW229964   6.166   9.215  10.193
76064SOL     OW29965  13.511   6.841   8.967
76064SOL    HW129966  13.540   6.750   8.979
76064SOL    HW229967  13.422   6.833   8.934
76065SOL     OW29968  10.012  14.531   8.613
76065SOL    HW129969  10.032  14.521   8.520
76065SOL    HW229970  10.081  14.589   8.646
76066SOL     OW29971  14.125  14.160  10.334
76066SOL    HW129972  14.179  14.190  10.261
76066SOL    HW229973  14.072  14.089  10.298
76067SOL     OW29974   9.063   9.834   4.231
76067SOL    HW129975   8.996   9.891   4.267
76067SOL    HW229976   9.139   9.846   4.288
76068SOL     OW29977   9.206   4.327   1.172
76068SOL    HW129978   9.204   4.258   1.106
76068SOL    HW229979   9.176   4.405   1.127
76069SOL     OW29980   9.487   6.937   4.144
76069SOL    HW129981   9.480   6.905   4.234
76069SOL    HW229982   9.396   6.940   4.113
76070SOL     OW29983   2.080   3.403   7.971
76070SOL    HW129984   1.993   3.442   7.958
76070SOL    HW229985   2.141   3.473   7.946
76071SOL     OW29986  14.438   8.304   7.043
76071SOL    HW129987  14.351   8.265   7.031
76071SOL    HW229988  14.484   8.286   6.961
76072SOL     OW29989  11.673   5.162   6.994
76072SOL    HW129990  11.653   5.157   7.088
76072SOL    HW229991  11.614   5.099   6.954
76073SOL     OW29992   8.988   0.055   9.567
76073SOL    HW129993   9.060   0.076   9.627
76073SOL    HW229994   9.024  14.869   9.509
76074SOL     OW29995  12.280   9.693  12.782
76074SOL    HW129996  12.212   9.653  12.836
76074SOL    HW229997  12.324   9.620  12.740
76075SOL     OW29998   6.344   5.654  11.042
76075SOL    HW129999   6.417   5.703  11.004
76075SOL    HW230000   6.365   5.647  11.135
76076SOL     OW30001  14.723   4.176  11.094
76076SOL    HW130002  14.667   4.131  11.156
76076SOL    HW230003  14.776   4.107  11.053
76077SOL     OW30004   6.156  13.463   3.011
76077SOL    HW130005   6.071  13.477   3.052
76077SOL    HW230006   6.208  13.419   3.078
76078SOL     OW30007   1.472   7.625  10.988
76078SOL    HW130008   1.552   7.624  11.041
76078SOL    HW230009   1.441   7.715  10.991
76079SOL     OW30010  12.366   1.784   5.564
76079SOL    HW130011  12.439   1.722   5.558
76079SOL    HW230012  12.290   1.730   5.586
76080SOL     OW30013   7.042   0.043  10.997
76080SOL    HW130014   6.954   0.070  11.023
76080SOL    HW230015   7.038   0.037  10.901
76081SOL     OW30016   1.453   7.609   8.268
76081SOL    HW130017   1.495   7.680   8.219
76081SOL    HW230018   1.524   7.572   8.321
76082SOL     OW30019   5.944  10.002   3.639
76082SOL    HW130020   5.966   9.909   3.650
76082SOL    HW230021   5.854  10.009   3.671
76083SOL     OW30022  10.439  13.352   7.135
76083SOL    HW130023  10.534  13.346   7.138
76083SOL    HW230024  10.415  13.313   7.051
76084SOL     OW30025   9.240   2.090  11.790
76084SOL    HW130026   9.150   2.085  11.757
76084SOL    HW230027   9.233   2.066  11.882
76085SOL     OW30028  11.990   4.490  13.221
76085SOL    HW130029  11.917   4.497  13.282
76085SOL    HW230030  12.020   4.581  13.208
76086SOL     OW30031  10.713   6.419   4.533
76086SOL    HW130032  10.632   6.470   4.532
76086SOL    HW230033  10.691   6.340   4.583
76087SOL     OW30034  14.342  11.306   7.243
76087SOL    HW130035  14.372  11.266   7.161
76087SOL    HW230036  14.421  11.345   7.280
76088SOL     OW30037   1.917   6.216  13.464
76088SOL    HW130038   1.884   6.288  13.518
76088SOL    HW230039   1.915   6.140  13.521
76089SOL     OW30040   4.935   2.559   7.827
76089SOL    HW130041   4.989   2.625   7.870
76089SOL    HW230042   4.937   2.484   7.886
76090SOL     OW30043   6.805  14.005   8.679
76090SOL    HW130044   6.792  14.065   8.753
76090SOL    HW230045   6.813  13.919   8.721
76091SOL     OW30046   5.415  12.947   0.309
76091SOL    HW130047   5.448  12.942   0.399
76091SOL    HW230048   5.487  12.988   0.260
76092SOL     OW30049  13.155   2.151   7.839
76092SOL    HW130050  13.147   2.202   7.759
76092SOL    HW230051  13.231   2.094   7.824
76093SOL     OW30052   8.185   7.217  11.982
76093SOL    HW130053   8.185   7.136  12.033
76093SOL    HW230054   8.093   7.240  11.973
76094SOL     OW30055   7.222   5.922   3.948
76094SOL    HW130056   7.312   5.952   3.960
76094SOL    HW230057   7.172   6.002   3.933
76095SOL     OW30058  11.312  10.019   0.836
76095SOL    HW130059  11.219   9.998   0.827
76095SOL    HW230060  11.317  10.071   0.916
76096SOL     OW30061  11.517   7.071   7.347
76096SOL    HW130062  11.501   6.992   7.399
76096SOL    HW230063  11.472   7.054   7.264
76097SOL     OW30064  10.837   3.851   2.190
76097SOL    HW130065  10.782   3.792   2.137
76097SOL    HW230066  10.836   3.813   2.277
76098SOL     OW30067   3.330   3.571   8.478
76098SOL    HW130068   3.255   3.606   8.429
76098SOL    HW230069   3.291   3.512   8.542
76099SOL     OW30070   0.690   5.144   2.760
76099SOL    HW130071   0.596   5.159   2.773
76099SOL    HW230072   0.721   5.221   2.712
76100SOL     OW30073   6.615   8.474   6.812
76100SOL    HW130074   6.561   8.414   6.760
76100SOL    HW230075   6.696   8.483   6.761
76101SOL     OW30076  10.725   3.941   1.622
76101SOL    HW130077  10.632   3.956   1.641
76101SOL    HW230078  10.745   3.998   1.548
76102SOL     OW30079  13.938   3.856   1.915
76102SOL    HW130080  13.851   3.817   1.908
76102SOL    HW230081  13.965   3.869   1.824
76103SOL     OW30082   1.721   5.575   1.510
76103SOL    HW130083   1.737   5.506   1.445
76103SOL    HW230084   1.801   5.628   1.508
76104SOL     OW30085  13.648   1.882   4.750
76104SOL    HW130086  13.636   1.821   4.677
76104SOL    HW230087  13.718   1.844   4.802
76105SOL     OW30088   1.386   7.789   2.421
76105SOL    HW130089   1.435   7.707   2.411
76105SOL    HW230090   1.452   7.853   2.446
76106SOL     OW30091   3.712   5.762  11.534
76106SOL    HW130092   3.622   5.784  11.556
76106SOL    HW230093   3.721   5.671  11.563
76107SOL     OW30094   8.752   5.788   7.398
76107SOL    HW130095   8.785   5.709   7.354
76107SOL    HW230096   8.807   5.797   7.476
76108SOL     OW30097   8.952   9.810   6.173
76108SOL    HW130098   8.939   9.778   6.084
76108SOL    HW230099   8.870   9.790   6.217
76109SOL     OW30100   5.478  14.676   7.200
76109SOL    HW130101   5.540  14.739   7.237
76109SOL    HW230102   5.416  14.730   7.150
76110SOL     OW30103  10.490  12.398  11.285
76110SOL    HW130104  10.536  12.445  11.215
76110SOL    HW230105  10.401  12.434  11.282
76111SOL     OW30106   6.210   9.743  14.041
76111SOL    HW130107   6.221   9.831  14.076
76111SOL    HW230108   6.292   9.699  14.061
76112SOL     OW30109  14.378  11.253   0.272
76112SOL    HW130110  14.450  11.211   0.318
76112SOL    HW230111  14.386  11.223   0.182
76113SOL     OW30112   0.292   4.826   8.523
76113SOL    HW130113   0.317   4.910   8.562
76113SOL    HW230114   0.283   4.766   8.597
76114SOL     OW30115  12.712   1.835   2.934
76114SOL    HW130116  12.649   1.906   2.946
76114SOL    HW230117  12.684   1.767   2.996
76115SOL     OW30118   9.280   1.723   3.357
76115SOL    HW130119   9.260   1.794   3.418
76115SOL    HW230120   9.253   1.757   3.272
76116SOL     OW30121   8.768   7.066   5.380
76116SOL    HW130122   8.859   7.088   5.394
76116SOL    HW230123   8.719   7.116   5.445
76117SOL     OW30124   0.646   4.344   9.634
76117SOL    HW130125   0.620   4.435   9.647
76117SOL    HW230126   0.711   4.327   9.702
76118SOL     OW30127   8.886   7.786   6.493
76118SOL    HW130128   8.926   7.784   6.406
76118SOL    HW230129   8.879   7.694   6.519
76119SOL     OW30130   5.058  13.919  13.459
76119SOL    HW130131   5.101  13.954  13.537
76119SOL    HW230132   5.103  13.837  13.441
76120SOL     OW30133   8.732   8.985   3.593
76120SOL    HW130134   8.698   9.020   3.675
76120SOL    HW230135   8.679   9.027   3.525
76121SOL     OW30136  12.115  13.701  10.360
76121SOL    HW130137  12.091  13.632  10.298
76121SOL    HW230138  12.151  13.654  10.436
76122SOL     OW30139  10.004   9.429   0.905
76122SOL    HW130140  10.090   9.396   0.882
76122SOL    HW230141   9.987   9.499   0.841
76123SOL     OW30142   3.228   8.754   5.810
76123SOL    HW130143   3.152   8.756   5.869
76123SOL    HW230144   3.214   8.828   5.751
76124SOL     OW30145   8.122   7.958   6.953
76124SOL    HW130146   8.118   8.054   6.950
76124SOL    HW230147   8.108   7.936   7.045
76125SOL     OW30148   8.585   1.252  10.146
76125SOL    HW130149   8.500   1.298  10.148
76125SOL    HW230150   8.649   1.320  10.169
76126SOL     OW30151   4.369  13.151   7.702
76126SOL    HW130152   4.446  13.203   7.680
76126SOL    HW230153   4.346  13.178   7.791
76127SOL     OW30154   9.474   0.563  11.573
76127SOL    HW130155   9.395   0.617  11.577
76127SOL    HW230156   9.445   0.482  11.532
76128SOL     OW30157   7.963   2.890   4.995
76128SOL    HW130158   7.964   2.944   5.074
76128SOL    HW230159   8.040   2.919   4.945
76129SOL     OW30160   7.200   3.028  13.883
76129SOL    HW130161   7.170   2.992  13.800
76129SOL    HW230162   7.275   3.083  13.860
76130SOL     OW30163   1.272   2.312   6.542
76130SOL    HW130164   1.252   2.222   6.571
76130SOL    HW230165   1.309   2.301   6.455
76131SOL     OW30166   7.909   8.620  12.029
76131SOL    HW130167   7.944   8.556  12.091
76131SOL    HW230168   7.971   8.693  12.032
76132SOL     OW30169   9.930  11.939  13.585
76132SOL    HW130170   9.889  12.024  13.567
76132SOL    HW230171   9.890  11.879  13.522
76133SOL     OW30172  14.621   0.331   5.028
76133SOL    HW130173  14.546   0.386   5.052
76133SOL    HW230174  14.604   0.248   5.070
76134SOL     OW30175   0.690   0.057   3.074
76134SOL    HW130176   0.657   0.020   2.992
76134SOL    HW230177   0.676   0.151   3.065
76135SOL     OW30178   5.803   0.128  11.922
76135SOL    HW130179   5.889   0.164  11.905
76135SOL    HW230180   5.752   0.202  11.955
76136SOL     OW30181  14.473   8.717  11.659
76136SOL    HW130182  14.418   8.742  11.733
76136SOL    HW230183  14.481   8.622  11.667
76137SOL     OW30184   3.984   6.884   9.103
76137SOL    HW130185   4.024   6.867   9.018
76137SOL    HW230186   3.960   6.977   9.101
76138SOL     OW30187   3.663   3.777   7.138
76138SOL    HW130188   3.639   3.684   7.140
76138SOL    HW230189   3.613   3.816   7.209
76139SOL     OW30190   2.947   9.112   3.116
76139SOL    HW130191   3.038   9.091   3.095
76139SOL    HW230192   2.935   9.081   3.205
76140SOL     OW30193   3.202  10.425   9.143
76140SOL    HW130194   3.128  10.442   9.201
76140SOL    HW230195   3.264  10.496   9.160
76141SOL     OW30196   8.502  12.807   6.091
76141SOL    HW130197   8.520  12.739   6.026
76141SOL    HW230198   8.513  12.889   6.043
76142SOL     OW30199   0.638   0.413   2.451
76142SOL    HW130200   0.605   0.326   2.427
76142SOL    HW230201   0.730   0.399   2.471
76143SOL     OW30202   3.310   9.619  10.929
76143SOL    HW130203   3.232   9.645  10.978
76143SOL    HW230204   3.355   9.701  10.912
76144SOL     OW30205  12.248   3.626   3.472
76144SOL    HW130206  12.191   3.570   3.525
76144SOL    HW230207  12.336   3.591   3.487
76145SOL     OW30208   6.176   2.991  14.359
76145SOL    HW130209   6.198   3.010  14.450
76145SOL    HW230210   6.168   3.077  14.318
76146SOL     OW30211   8.951  14.829   8.829
76146SOL    HW130212   8.857  14.846   8.827
76146SOL    HW230213   8.964  14.768   8.901
76147SOL     OW30214   5.134   9.982   8.711
76147SOL    HW130215   5.196   9.964   8.782
76147SOL    HW230216   5.048   9.978   8.752
76148SOL     OW30217   9.700  11.996   1.656
76148SOL    HW130218   9.738  12.030   1.575
76148SOL    HW230219   9.709  12.068   1.718
76149SOL     OW30220   5.814   0.713  11.489
76149SOL    HW130221   5.770   0.660  11.555
76149SOL    HW230222   5.782   0.678  11.405
76150SOL     OW30223   2.118  14.122  10.336
76150SOL    HW130224   2.138  14.061  10.407
76150SOL    HW230225   2.202  14.139  10.294
76151SOL     OW30226  12.201   6.600   6.019
76151SOL    HW130227  12.125   6.556   5.982
76151SOL    HW230228  12.276   6.561   5.972
76152SOL     OW30229  13.338   2.145   9.298
76152SOL    HW130230  13.367   2.186   9.380
76152SOL    HW230231  13.363   2.053   9.307
76153SOL     OW30232   4.056   4.217   1.760
76153SOL    HW130233   4.047   4.312   1.749
76153SOL    HW230234   3.981   4.180   1.714
76154SOL     OW30235   2.205  11.835   4.612
76154SOL    HW130236   2.113  11.860   4.621
76154SOL    HW230237   2.246  11.868   4.693
76155SOL     OW30238  13.008  14.398   7.278
76155SOL    HW130239  12.924  14.417   7.319
76155SOL    HW230240  13.045  14.328   7.330
76156SOL     OW30241   3.609  10.057  12.312
76156SOL    HW130242   3.697  10.087  12.334
76156SOL    HW230243   3.568  10.132  12.269
76157SOL     OW30244   7.915   6.000   2.580
76157SOL    HW130245   7.861   6.070   2.544
76157SOL    HW230246   7.986   6.046   2.627
76158SOL     OW30247   4.383   9.064  10.682
76158SOL    HW130248   4.447   9.021  10.625
76158SOL    HW230249   4.413   9.044  10.771
76159SOL     OW30250   5.253  11.676   3.418
76159SOL    HW130251   5.262  11.584   3.393
76159SOL    HW230252   5.341  11.712   3.408
76160SOL     OW30253   5.757   3.645  14.441
76160SOL    HW130254   5.750   3.740  14.441
76160SOL    HW230255   5.823   3.626  14.508
76161SOL     OW30256   2.906   6.331   1.751
76161SOL    HW130257   2.896   6.252   1.699
76161SOL    HW230258   2.996   6.361   1.733
76162SOL     OW30259   6.050   3.428  13.287
76162SOL    HW130260   5.963   3.416  13.326
76162SOL    HW230261   6.066   3.522  13.292
76163SOL     OW30262   1.436   2.616   8.349
76163SOL    HW130263   1.450   2.690   8.407
76163SOL    HW230264   1.376   2.559   8.397
76164SOL     OW30265  13.829   7.575   1.700
76164SOL    HW130266  13.824   7.541   1.789
76164SOL    HW230267  13.798   7.665   1.707
76165SOL     OW30268   9.513  10.282  11.625
76165SOL    HW130269   9.554  10.250  11.706
76165SOL    HW230270   9.508  10.377  11.637
76166SOL     OW30271   6.235   2.852  10.630
76166SOL    HW130272   6.330   2.851  10.624
76166SOL    HW230273   6.214   2.943  10.652
76167SOL     OW30274   2.967   6.913   6.779
76167SOL    HW130275   3.049   6.931   6.825
76167SOL    HW230276   2.983   6.833   6.730
76168SOL     OW30277   9.443   1.339  10.556
76168SOL    HW130278   9.497   1.305  10.627
76168SOL    HW230279   9.482   1.303  10.476
76169SOL     OW30280   1.913   4.206   3.522
76169SOL    HW130281   1.988   4.240   3.473
76169SOL    HW230282   1.886   4.128   3.473
76170SOL     OW30283   7.158   8.325   1.312
76170SOL    HW130284   7.086   8.295   1.257
76170SOL    HW230285   7.234   8.323   1.254
76171SOL     OW30286  10.083   1.854  11.498
76171SOL    HW130287   9.998   1.871  11.539
76171SOL    HW230288  10.081   1.761  11.477
76172SOL     OW30289   2.593   8.145   9.219
76172SOL    HW130290   2.575   8.239   9.210
76172SOL    HW230291   2.535   8.104   9.155
76173SOL     OW30292  14.079   7.633   2.255
76173SOL    HW130293  14.096   7.695   2.325
76173SOL    HW230294  14.079   7.547   2.298
76174SOL     OW30295  11.864  12.996  13.327
76174SOL    HW130296  11.785  12.955  13.363
76174SOL    HW230297  11.831  13.063  13.267
76175SOL     OW30298   4.682   8.584   4.367
76175SOL    HW130299   4.588   8.592   4.353
76175SOL    HW230300   4.704   8.497   4.334
76176SOL     OW30301   3.504   0.938   0.976
76176SOL    HW130302   3.443   0.939   0.902
76176SOL    HW230303   3.496   1.026   1.014
76177SOL     OW30304   3.306   1.813   4.739
76177SOL    HW130305   3.280   1.727   4.772
76177SOL    HW230306   3.325   1.799   4.647
76178SOL     OW30307   5.926   1.959   5.997
76178SOL    HW130308   5.956   2.043   6.031
76178SOL    HW230309   5.893   1.912   6.073
76179SOL     OW30310   5.253   4.185   9.644
76179SOL    HW130311   5.165   4.222   9.643
76179SOL    HW230312   5.256   4.132   9.724
76180SOL     OW30313   3.896  13.366   1.069
76180SOL    HW130314   3.929  13.303   1.132
76180SOL    HW230315   3.967  13.379   1.007
76181SOL     OW30316  12.233  14.636  13.355
76181SOL    HW130317  12.188  14.577  13.415
76181SOL    HW230318  12.292  14.580  13.305
76182SOL     OW30319  10.600   9.437   9.242
76182SOL    HW130320  10.612   9.344   9.222
76182SOL    HW230321  10.566   9.475   9.162
76183SOL     OW30322  10.415  11.299  13.188
76183SOL    HW130323  10.357  11.245  13.241
76183SOL    HW230324  10.384  11.389  13.202
76184SOL     OW30325   0.760   8.987   4.835
76184SOL    HW130326   0.841   9.037   4.822
76184SOL    HW230327   0.768   8.951   4.924
76185SOL     OW30328   3.156   4.347  10.481
76185SOL    HW130329   3.142   4.272  10.424
76185SOL    HW230330   3.248   4.342  10.507
76186SOL     OW30331   6.909  12.382   9.388
76186SOL    HW130332   6.930  12.370   9.481
76186SOL    HW230333   6.990  12.361   9.342
76187SOL     OW30334  11.733  14.281  10.812
76187SOL    HW130335  11.784  14.310  10.887
76187SOL    HW230336  11.797  14.241  10.753
76188SOL     OW30337  10.778   0.047  12.938
76188SOL    HW130338  10.758  14.845  12.895
76188SOL    HW230339  10.859   0.031  12.986
76189SOL     OW30340   9.233   8.010  11.132
76189SOL    HW130341   9.288   8.055  11.196
76189SOL    HW230342   9.203   7.931  11.177
76190SOL     OW30343  13.682   1.928  10.668
76190SOL    HW130344  13.669   1.927  10.762
76190SOL    HW230345  13.777   1.937  10.656
76191SOL     OW30346   6.045   0.147  14.365
76191SOL    HW130347   6.097   0.227  14.362
76191SOL    HW230348   6.097   0.086  14.419
76192SOL     OW30349  12.438  10.109  13.371
76192SOL    HW130350  12.456  10.028  13.323
76192SOL    HW230351  12.491  10.175  13.326
76193SOL     OW30352   5.314   4.389   9.852
76193SOL    HW130353   5.351   4.352   9.771
76193SOL    HW230354   5.320   4.483   9.840
76194SOL     OW30355  10.034   6.503  12.041
76194SOL    HW130356  10.100   6.460  11.986
76194SOL    HW230357  10.070   6.589  12.059
76195SOL     OW30358  13.044   1.428   9.590
76195SOL    HW130359  13.107   1.493   9.557
76195SOL    HW230360  13.035   1.449   9.683
76196SOL     OW30361  13.115  12.246  11.887
76196SOL    HW130362  13.179  12.188  11.929
76196SOL    HW230363  13.072  12.191  11.822
76197SOL     OW30364   6.492   1.454   9.702
76197SOL    HW130365   6.529   1.449   9.614
76197SOL    HW230366   6.566   1.437   9.760
76198SOL     OW30367   0.554   8.777   4.460
76198SOL    HW130368   0.572   8.855   4.513
76198SOL    HW230369   0.494   8.725   4.514
76199SOL     OW30370  12.440  10.969  10.075
76199SOL    HW130371  12.474  11.058  10.065
76199SOL    HW230372  12.355  10.980  10.118
76200SOL     OW30373   1.310  11.837   4.511
76200SOL    HW130374   1.294  11.884   4.593
76200SOL    HW230375   1.283  11.899   4.442
76201SOL     OW30376   5.058  13.996   4.569
76201SOL    HW130377   5.071  13.970   4.478
76201SOL    HW230378   4.963  14.009   4.577
76202SOL     OW30379  12.910   4.536   1.645
76202SOL    HW130380  12.888   4.446   1.669
76202SOL    HW230381  12.959   4.527   1.564
76203SOL     OW30382  11.626   3.723   8.803
76203SOL    HW130383  11.583   3.751   8.884
76203SOL    HW230384  11.717   3.706   8.829
76204SOL     OW30385   1.627   5.507  13.979
76204SOL    HW130386   1.717   5.474  13.984
76204SOL    HW230387   1.582   5.446  13.921
76205SOL     OW30388   7.109   5.903   0.614
76205SOL    HW130389   7.021   5.899   0.653
76205SOL    HW230390   7.169   5.900   0.689
76206SOL     OW30391  11.789  13.363   2.295
76206SOL    HW130392  11.799  13.427   2.225
76206SOL    HW230393  11.700  13.330   2.287
76207SOL     OW30394  10.570   9.784  10.370
76207SOL    HW130395  10.588   9.729  10.294
76207SOL    HW230396  10.550   9.721  10.440
76208SOL     OW30397  11.785  13.311   9.617
76208SOL    HW130398  11.870  13.354   9.606
76208SOL    HW230399  11.722  13.379   9.592
76209SOL     OW30400   4.728   8.487   3.678
76209SOL    HW130401   4.755   8.579   3.678
76209SOL    HW230402   4.650   8.485   3.734
76210SOL     OW30403   3.159   1.159  11.609
76210SOL    HW130404   3.187   1.221  11.542
76210SOL    HW230405   3.164   1.209  11.691
76211SOL     OW30406   1.087  12.316   1.958
76211SOL    HW130407   1.130  12.365   1.888
76211SOL    HW230408   0.997  12.306   1.929
76212SOL     OW30409   5.612   2.614  14.524
76212SOL    HW130410   5.599   2.521  14.539
76212SOL    HW230411   5.658   2.645  14.602
76213SOL     OW30412  14.352  10.891   7.775
76213SOL    HW130413  14.377  10.826   7.709
76213SOL    HW230414  14.424  10.891   7.838
76214SOL     OW30415  11.200   5.148  11.804
76214SOL    HW130416  11.271   5.121  11.746
76214SOL    HW230417  11.173   5.234  11.770
76215SOL     OW30418   5.493   4.527   1.639
76215SOL    HW130419   5.561   4.569   1.691
76215SOL    HW230420   5.420   4.589   1.638
76216SOL     OW30421   9.990   6.688   1.059
76216SOL    HW130422  10.051   6.628   1.017
76216SOL    HW230423  10.021   6.775   1.034
76217SOL     OW30424   3.376   0.609   9.676
76217SOL    HW130425   3.448   0.558   9.637
76217SOL    HW230426   3.405   0.626   9.766
76218SOL     OW30427   0.932   3.852   5.855
76218SOL    HW130428   0.840   3.874   5.872
76218SOL    HW230429   0.964   3.817   5.938
76219SOL     OW30430   5.853   4.516  14.566
76219SOL    HW130431   5.905   4.438  14.585
76219SOL    HW230432   5.889   4.548  14.483
76220SOL     OW30433   4.247  12.737   1.910
76220SOL    HW130434   4.245  12.799   1.837
76220SOL    HW230435   4.205  12.659   1.875
76221SOL     OW30436   8.161   1.603   5.770
76221SOL    HW130437   8.182   1.512   5.748
76221SOL    HW230438   8.198   1.654   5.698
76222SOL     OW30439  14.534  11.890   9.404
76222SOL    HW130440  14.627  11.870   9.398
76222SOL    HW230441  14.510  11.919   9.316
76223SOL     OW30442  12.722   9.551   1.917
76223SOL    HW130443  12.662   9.625   1.929
76223SOL    HW230444  12.671   9.474   1.940
76224SOL     OW30445  14.860   6.498  10.313
76224SOL    HW130446   0.015   6.425  10.264
76224SOL    HW230447   0.055   6.543  10.349
76225SOL     OW30448  14.219   1.282   4.146
76225SOL    HW130449  14.179   1.344   4.207
76225SOL    HW230450  14.150   1.266   4.081
76226SOL     OW30451   3.509   8.744   9.891
76226SOL    HW130452   3.467   8.830   9.878
76226SOL    HW230453   3.549   8.750   9.978
76227SOL     OW30454   5.556  14.453   5.864
76227SOL    HW130455   5.583  14.405   5.786
76227SOL    HW230456   5.614  14.530   5.865
76228SOL     OW30457   5.620   9.301  10.290
76228SOL    HW130458   5.701   9.264  10.254
76228SOL    HW230459   5.553   9.237  10.267
76229SOL     OW30460   7.196  14.580   9.670
76229SOL    HW130461   7.123  14.616   9.721
76229SOL    HW230462   7.163  14.497   9.635
76230SOL     OW30463  13.891   8.502   0.453
76230SOL    HW130464  13.937   8.485   0.371
76230SOL    HW230465  13.870   8.415   0.487
76231SOL     OW30466   9.922  14.245   7.133
76231SOL    HW130467   9.976  14.165   7.134
76231SOL    HW230468   9.980  14.313   7.166
76232SOL     OW30469  14.319  10.992   9.572
76232SOL    HW130470  14.319  10.975   9.478
76232SOL    HW230471  14.237  11.039   9.588
76233SOL     OW30472   9.153   6.982   0.309
76233SOL    HW130473   9.246   7.004   0.307
76233SOL    HW230474   9.108   7.065   0.295
76234SOL     OW30475  13.975   6.535  10.817
76234SOL    HW130476  13.956   6.514  10.908
76234SOL    HW230477  14.070   6.538  10.812
76235SOL     OW30478   5.175   7.185   6.734
76235SOL    HW130479   5.154   7.265   6.783
76235SOL    HW230480   5.257   7.205   6.690
76236SOL     OW30481   9.957  10.514  12.643
76236SOL    HW130482  10.034  10.532  12.589
76236SOL    HW230483   9.883  10.540  12.588
76237SOL     OW30484   0.125   9.339  14.810
76237SOL    HW130485   0.074   9.407  14.765
76237SOL    HW230486   0.131   9.268  14.746
76238SOL     OW30487   0.670   4.292   5.863
76238SOL    HW130488   0.692   4.294   5.770
76238SOL    HW230489   0.578   4.319   5.866
76239SOL     OW30490   0.246   7.147   1.365
76239SOL    HW130491   0.167   7.181   1.323
76239SOL    HW230492   0.297   7.109   1.293
76240SOL     OW30493  12.001  10.860  11.266
76240SOL    HW130494  12.039  10.938  11.227
76240SOL    HW230495  11.910  10.861  11.237
76241SOL     OW30496   7.477   7.236   2.572
76241SOL    HW130497   7.535   7.295   2.621
76241SOL    HW230498   7.490   7.150   2.612
76242SOL     OW30499   9.383   1.901   6.462
76242SOL    HW130500   9.302   1.851   6.462
76242SOL    HW230501   9.408   1.906   6.554
76243SOL     OW30502   8.181  10.591  11.475
76243SOL    HW130503   8.119  10.519  11.481
76243SOL    HW230504   8.128  10.669  11.492
76244SOL     OW30505   6.626  14.091   3.675
76244SOL    HW130506   6.579  14.064   3.596
76244SOL    HW230507   6.715  14.111   3.645
76245SOL     OW30508   0.815   8.195   5.918
76245SOL    HW130509   0.864   8.198   6.001
76245SOL    HW230510   0.772   8.280   5.913
76246SOL     OW30511   5.308   9.435  13.556
76246SOL    HW130512   5.396   9.462  13.584
76246SOL    HW230513   5.324   9.378  13.481
76247SOL     OW30514   9.168  11.539   7.439
76247SOL    HW130515   9.202  11.567   7.523
76247SOL    HW230516   9.213  11.594   7.375
76248SOL     OW30517  10.390   4.653  10.343
76248SOL    HW130518  10.433   4.589  10.399
76248SOL    HW230519  10.297   4.636  10.353
76249SOL     OW30520  10.774   8.312   8.444
76249SOL    HW130521  10.767   8.263   8.526
76249SOL    HW230522  10.776   8.244   8.376
76250SOL     OW30523  10.402   4.293  10.650
76250SOL    HW130524  10.388   4.388  10.657
76250SOL    HW230525  10.323   4.261  10.607
76251SOL     OW30526  11.478   6.782   8.105
76251SOL    HW130527  11.471   6.766   8.199
76251SOL    HW230528  11.438   6.705   8.064
76252SOL     OW30529   8.911   3.396   8.660
76252SOL    HW130530   8.917   3.461   8.730
76252SOL    HW230531   8.986   3.415   8.603
76253SOL     OW30532   2.796   7.464   1.718
76253SOL    HW130533   2.886   7.444   1.744
76253SOL    HW230534   2.743   7.437   1.793
76254SOL     OW30535  12.366   3.173  12.403
76254SOL    HW130536  12.445   3.143  12.359
76254SOL    HW230537  12.317   3.093  12.422
76255SOL     OW30538  14.411   9.348   9.033
76255SOL    HW130539  14.331   9.300   9.053
76255SOL    HW230540  14.382   9.428   8.990
76256SOL     OW30541  10.001   7.369   4.548
76256SOL    HW130542   9.908   7.389   4.560
76256SOL    HW230543  10.008   7.342   4.457
76257SOL     OW30544   9.564   0.616  13.603
76257SOL    HW130545   9.597   0.688  13.549
76257SOL    HW230546   9.598   0.633  13.691
76258SOL     OW30547   7.186   6.977   4.130
76258SOL    HW130548   7.147   6.892   4.150
76258SOL    HW230549   7.129   7.014   4.062
76259SOL     OW30550   3.808  14.613  12.480
76259SOL    HW130551   3.741  14.650  12.423
76259SOL    HW230552   3.814  14.521  12.454
76260SOL     OW30553   5.601  13.063  12.105
76260SOL    HW130554   5.543  13.139  12.102
76260SOL    HW230555   5.543  12.990  12.130
76261SOL     OW30556   6.311  12.408   4.338
76261SOL    HW130557   6.222  12.402   4.305
76261SOL    HW230558   6.312  12.490   4.388
76262SOL     OW30559   4.313   5.237   2.485
76262SOL    HW130560   4.241   5.261   2.427
76262SOL    HW230561   4.320   5.142   2.477
76263SOL     OW30562   3.755   9.209   7.032
76263SOL    HW130563   3.825   9.262   6.992
76263SOL    HW230564   3.686   9.207   6.965
76264SOL     OW30565   9.424  14.384   4.389
76264SOL    HW130566   9.444  14.461   4.336
76264SOL    HW230567   9.474  14.313   4.347
76265SOL     OW30568   3.854  14.852   4.245
76265SOL    HW130569   3.761  14.832   4.237
76265SOL    HW230570   3.897  14.786   4.192
76266SOL     OW30571   0.000   9.889  12.101
76266SOL    HW130572  14.871   9.800  12.133
76266SOL    HW230573  14.794   9.927  12.108
76267SOL     OW30574   8.019  11.489   1.484
76267SOL    HW130575   8.092  11.547   1.506
76267SOL    HW230576   7.941  11.545   1.488
76268SOL     OW30577   6.251   0.359   8.792
76268SOL    HW130578   6.316   0.427   8.775
76268SOL    HW230579   6.241   0.358   8.888
76269SOL     OW30580   0.943   9.339   5.580
76269SOL    HW130581   0.987   9.266   5.536
76269SOL    HW230582   0.906   9.299   5.660
76270SOL     OW30583   5.272  12.395  13.551
76270SOL    HW130584   5.350  12.341  13.563
76270SOL    HW230585   5.296  12.458  13.484
76271SOL     OW30586   9.755   7.987  11.439
76271SOL    HW130587   9.686   8.028  11.492
76271SOL    HW230588   9.836   8.029  11.470
76272SOL     OW30589   0.979  10.633   6.186
76272SOL    HW130590   0.938  10.713   6.154
76272SOL    HW230591   0.966  10.569   6.117
76273SOL     OW30592   9.143   6.355   8.533
76273SOL    HW130593   9.190   6.404   8.601
76273SOL    HW230594   9.201   6.282   8.512
76274SOL     OW30595   5.544   7.688   5.945
76274SOL    HW130596   5.466   7.666   5.893
76274SOL    HW230597   5.531   7.779   5.971
76275SOL     OW30598   7.152  11.614  10.406
76275SOL    HW130599   7.091  11.646  10.339
76275SOL    HW230600   7.099  11.609  10.485
76276SOL     OW30601  12.232  10.329  12.499
76276SOL    HW130602  12.196  10.416  12.518
76276SOL    HW230603  12.264  10.336  12.409
76277SOL     OW30604   2.857  14.580   6.266
76277SOL    HW130605   2.802  14.514   6.307
76277SOL    HW230606   2.946  14.561   6.298
76278SOL     OW30607  11.008  11.772  13.206
76278SOL    HW130608  10.946  11.704  13.181
76278SOL    HW230609  11.027  11.819  13.124
76279SOL     OW30610   6.013  11.782  12.767
76279SOL    HW130611   6.092  11.729  12.763
76279SOL    HW230612   5.957  11.738  12.831
76280SOL     OW30613   9.978   0.939   3.831
76280SOL    HW130614   9.985   1.024   3.786
76280SOL    HW230615   9.884   0.929   3.847
76281SOL     OW30616   1.509   1.808   7.683
76281SOL    HW130617   1.539   1.894   7.710
76281SOL    HW230618   1.498   1.815   7.588
76282SOL     OW30619  10.884   7.484   2.366
76282SOL    HW130620  10.805   7.443   2.401
76282SOL    HW230621  10.851   7.548   2.301
76283SOL     OW30622   3.820   7.832  10.099
76283SOL    HW130623   3.777   7.748  10.084
76283SOL    HW230624   3.877   7.816  10.174
76284SOL     OW30625   3.141  10.905   4.718
76284SOL    HW130626   3.227  10.910   4.761
76284SOL    HW230627   3.080  10.883   4.788
76285SOL     OW30628  13.102  12.887   0.388
76285SOL    HW130629  13.072  12.824   0.322
76285SOL    HW230630  13.143  12.957   0.338
76286SOL     OW30631  11.992   9.545   2.322
76286SOL    HW130632  12.053   9.472   2.316
76286SOL    HW230633  11.916   9.518   2.270
76287SOL     OW30634  11.302   5.075   6.753
76287SOL    HW130635  11.258   5.009   6.700
76287SOL    HW230636  11.393   5.048   6.755
76288SOL     OW30637   1.271   7.171  10.336
76288SOL    HW130638   1.330   7.102  10.306
76288SOL    HW230639   1.223   7.197  10.258
76289SOL     OW30640   4.922  11.564   5.487
76289SOL    HW130641   4.890  11.569   5.397
76289SOL    HW230642   4.922  11.654   5.518
76290SOL     OW30643   9.761   7.960   7.846
76290SOL    HW130644   9.750   8.005   7.929
76290SOL    HW230645   9.676   7.919   7.828
76291SOL     OW30646   4.031  12.748   5.006
76291SOL    HW130647   4.110  12.763   5.057
76291SOL    HW230648   3.969  12.814   5.036
76292SOL     OW30649   1.542  13.743   7.472
76292SOL    HW130650   1.579  13.807   7.412
76292SOL    HW230651   1.618  13.704   7.515
76293SOL     OW30652  10.410  12.703   2.006
76293SOL    HW130653  10.322  12.710   2.043
76293SOL    HW230654  10.399  12.727   1.914
76294SOL     OW30655   7.563  13.774   9.520
76294SOL    HW130656   7.615  13.710   9.568
76294SOL    HW230657   7.627  13.821   9.467
76295SOL     OW30658   0.808  10.344   2.799
76295SOL    HW130659   0.729  10.367   2.846
76295SOL    HW230660   0.785  10.264   2.751
76296SOL     OW30661  12.400   5.365  13.960
76296SOL    HW130662  12.444   5.448  13.942
76296SOL    HW230663  12.337   5.386  14.029
76297SOL     OW30664   9.133  14.045   4.725
76297SOL    HW130665   9.095  14.108   4.787
76297SOL    HW230666   9.227  14.046   4.745
76298SOL     OW30667   5.316  14.339   4.129
76298SOL    HW130668   5.344  14.248   4.133
76298SOL    HW230669   5.308  14.357   4.035
76299SOL     OW30670   0.930   2.152   1.327
76299SOL    HW130671   1.004   2.189   1.278
76299SOL    HW230672   0.896   2.226   1.377
76300SOL     OW30673   6.788   3.938  11.637
76300SOL    HW130674   6.824   3.971  11.555
76300SOL    HW230675   6.786   3.843  11.626
76301SOL     OW30676   0.995  11.876   3.916
76301SOL    HW130677   0.956  11.856   4.001
76301SOL    HW230678   0.933  11.839   3.852
76302SOL     OW30679   6.853  12.578   5.821
76302SOL    HW130680   6.864  12.607   5.731
76302SOL    HW230681   6.899  12.644   5.874
76303SOL     OW30682  12.408   1.545   3.008
76303SOL    HW130683  12.405   1.449   3.009
76303SOL    HW230684  12.492   1.565   2.967
76304SOL     OW30685   5.748  13.771   5.552
76304SOL    HW130686   5.718  13.821   5.476
76304SOL    HW230687   5.667  13.751   5.600
76305SOL     OW30688   2.517  10.331  13.153
76305SOL    HW130689   2.593  10.365  13.106
76305SOL    HW230690   2.442  10.358  13.100
76306SOL     OW30691  14.729   4.629  11.569
76306SOL    HW130692  14.635   4.642  11.583
76306SOL    HW230693  14.748   4.677  11.489
76307SOL     OW30694   7.131   0.294   1.406
76307SOL    HW130695   7.043   0.266   1.432
76307SOL    HW230696   7.189   0.232   1.450
76308SOL     OW30697   9.050   6.183  10.990
76308SOL    HW130698   9.061   6.235  10.911
76308SOL    HW230699   8.989   6.233  11.044
76309SOL     OW30700   4.617   3.091  11.106
76309SOL    HW130701   4.526   3.090  11.076
76309SOL    HW230702   4.647   3.000  11.095
76310SOL     OW30703   4.230   2.472  10.245
76310SOL    HW130704   4.267   2.552  10.206
76310SOL    HW230705   4.250   2.479  10.338
76311SOL     OW30706   6.657   8.231   5.217
76311SOL    HW130707   6.661   8.322   5.246
76311SOL    HW230708   6.564   8.217   5.197
76312SOL     OW30709  12.410   2.322   6.680
76312SOL    HW130710  12.339   2.310   6.617
76312SOL    HW230711  12.366   2.335   6.764
76313SOL     OW30712   8.166  11.249  11.045
76313SOL    HW130713   8.164  11.203  11.129
76313SOL    HW230714   8.093  11.212  10.996
76314SOL     OW30715   9.508   2.560   1.349
76314SOL    HW130716   9.472   2.481   1.308
76314SOL    HW230717   9.494   2.546   1.443
76315SOL     OW30718   7.987   3.046   1.722
76315SOL    HW130719   7.951   2.976   1.777
76315SOL    HW230720   7.920   3.059   1.654
76316SOL     OW30721   1.666   0.346  13.571
76316SOL    HW130722   1.586   0.347  13.518
76316SOL    HW230723   1.730   0.300  13.516
76317SOL     OW30724  12.445   7.330  13.198
76317SOL    HW130725  12.370   7.317  13.257
76317SOL    HW230726  12.410   7.312  13.111
76318SOL     OW30727  14.666   6.283   5.216
76318SOL    HW130728  14.704   6.219   5.275
76318SOL    HW230729  14.582   6.305   5.256
76319SOL     OW30730  13.123   6.137   0.478
76319SOL    HW130731  13.127   6.216   0.425
76319SOL    HW230732  13.167   6.071   0.425
76320SOL     OW30733   8.055   7.672  10.777
76320SOL    HW130734   7.993   7.616  10.825
76320SOL    HW230735   8.133   7.618  10.765
76321SOL     OW30736  14.401   6.276   7.424
76321SOL    HW130737  14.310   6.308   7.422
76321SOL    HW230738  14.429   6.289   7.514
76322SOL     OW30739  14.233  14.125   5.716
76322SOL    HW130740  14.251  14.050   5.774
76322SOL    HW230741  14.148  14.157   5.744
76323SOL     OW30742  12.394  10.567   0.034
76323SOL    HW130743  12.311  10.527   0.009
76323SOL    HW230744  12.370  10.636   0.096
76324SOL     OW30745   8.061   9.937   1.817
76324SOL    HW130746   7.996   9.998   1.851
76324SOL    HW230747   8.023   9.851   1.832
76325SOL     OW30748   2.883   8.749   0.454
76325SOL    HW130749   2.885   8.765   0.549
76325SOL    HW230750   2.886   8.653   0.446
76326SOL     OW30751   3.997   6.033   1.767
76326SOL    HW130752   3.963   6.104   1.821
76326SOL    HW230753   4.082   6.011   1.805
76327SOL     OW30754  11.770   4.742   9.893
76327SOL    HW130755  11.703   4.759   9.959
76327SOL    HW230756  11.723   4.737   9.810
76328SOL     OW30757  10.366   4.716   5.403
76328SOL    HW130758  10.306   4.782   5.366
76328SOL    HW230759  10.308   4.649   5.440
76329SOL     OW30760  12.432   2.054   9.289
76329SOL    HW130761  12.480   1.992   9.233
76329SOL    HW230762  12.500   2.110   9.326
76330SOL     OW30763  12.155  14.409   1.127
76330SOL    HW130764  12.184  14.435   1.040
76330SOL    HW230765  12.107  14.485   1.160
76331SOL     OW30766   8.287   7.199  13.029
76331SOL    HW130767   8.210   7.241  13.068
76331SOL    HW230768   8.342   7.175  13.104
76332SOL     OW30769   3.222   7.929  10.269
76332SOL    HW130770   3.225   7.846  10.222
76332SOL    HW230771   3.213   7.995  10.201
76333SOL     OW30772  10.215  11.876  13.664
76333SOL    HW130773  10.266  11.831  13.597
76333SOL    HW230774  10.141  11.914  13.616
76334SOL     OW30775  13.941   1.772   9.335
76334SOL    HW130776  13.982   1.852   9.302
76334SOL    HW230777  14.001   1.741   9.403
76335SOL     OW30778   4.505  13.144   9.132
76335SOL    HW130779   4.556  13.131   9.212
76335SOL    HW230780   4.434  13.080   9.139
76336SOL     OW30781   8.649   3.755   7.421
76336SOL    HW130782   8.631   3.735   7.513
76336SOL    HW230783   8.723   3.699   7.398
76337SOL     OW30784   2.864   1.215  11.015
76337SOL    HW130785   2.824   1.301  11.029
76337SOL    HW230786   2.940   1.215  11.074
76338SOL     OW30787   4.179   2.139   5.507
76338SOL    HW130788   4.105   2.119   5.450
76338SOL    HW230789   4.252   2.156   5.447
76339SOL     OW30790   2.400   5.007   2.441
76339SOL    HW130791   2.408   4.989   2.535
76339SOL    HW230792   2.483   4.977   2.404
76340SOL     OW30793  12.471   0.412   1.893
76340SOL    HW130794  12.398   0.367   1.850
76340SOL    HW230795  12.442   0.503   1.901
76341SOL     OW30796   4.888  11.896  12.692
76341SOL    HW130797   4.797  11.882  12.720
76341SOL    HW230798   4.940  11.844  12.753
76342SOL     OW30799   5.802  10.764   5.204
76342SOL    HW130800   5.843  10.817   5.273
76342SOL    HW230801   5.768  10.688   5.251
76343SOL     OW30802   8.476   3.511  10.099
76343SOL    HW130803   8.399   3.516  10.042
76343SOL    HW230804   8.483   3.418  10.121
76344SOL     OW30805   7.926   9.723  12.364
76344SOL    HW130806   8.013   9.685  12.373
76344SOL    HW230807   7.866   9.650  12.384
76345SOL     OW30808   1.185   1.360  14.709
76345SOL    HW130809   1.221   1.445  14.684
76345SOL    HW230810   1.094   1.379  14.731
76346SOL     OW30811   9.184   7.269   3.885
76346SOL    HW130812   9.195   7.315   3.969
76346SOL    HW230813   9.248   7.198   3.888
76347SOL     OW30814  14.250   6.098  12.386
76347SOL    HW130815  14.156   6.082  12.395
76347SOL    HW230816  14.260   6.126  12.295
76348SOL     OW30817   4.599   2.619  10.111
76348SOL    HW130818   4.574   2.618  10.019
76348SOL    HW230819   4.678   2.674  10.114
76349SOL     OW30820   2.448  12.827   0.270
76349SOL    HW130821   2.506  12.833   0.346
76349SOL    HW230822   2.369  12.873   0.297
76350SOL     OW30823   1.974   8.841  12.549
76350SOL    HW130824   1.965   8.814  12.458
76350SOL    HW230825   2.028   8.920  12.546
76351SOL     OW30826  10.191  10.580  12.546
76351SOL    HW130827  10.251  10.620  12.609
76351SOL    HW230828  10.247  10.523  12.493
76352SOL     OW30829  13.134  11.886   9.201
76352SOL    HW130830  13.054  11.848   9.164
76352SOL    HW230831  13.120  11.981   9.196
76353SOL     OW30832   4.043   6.914   4.091
76353SOL    HW130833   3.962   6.936   4.044
76353SOL    HW230834   4.014   6.854   4.160
76354SOL     OW30835  10.331   1.777   0.064
76354SOL    HW130836  10.254   1.818   0.104
76354SOL    HW230837  10.296   1.699   0.021
76355SOL     OW30838   8.923   0.511   3.905
76355SOL    HW130839   8.921   0.438   3.966
76355SOL    HW230840   9.013   0.543   3.908
76356SOL     OW30841   9.081   5.769   0.118
76356SOL    HW130842   9.007   5.829   0.120
76356SOL    HW230843   9.082   5.728   0.204
76357SOL     OW30844  12.568   2.801  11.697
76357SOL    HW130845  12.546   2.796  11.790
76357SOL    HW230846  12.577   2.710  11.669
76358SOL     OW30847  12.948  11.779   3.116
76358SOL    HW130848  12.970  11.850   3.056
76358SOL    HW230849  13.011  11.786   3.187
76359SOL     OW30850  14.364   6.554   4.319
76359SOL    HW130851  14.346   6.461   4.306
76359SOL    HW230852  14.445   6.555   4.371
76360SOL     OW30853   7.142   2.007  10.810
76360SOL    HW130854   7.120   1.966  10.894
76360SOL    HW230855   7.129   2.101  10.825
76361SOL     OW30856   4.402   0.390  13.235
76361SOL    HW130857   4.422   0.442  13.312
76361SOL    HW230858   4.481   0.394  13.182
76362SOL     OW30859  13.629  10.950   9.545
76362SOL    HW130860  13.582  11.033   9.540
76362SOL    HW230861  13.679  10.946   9.464
76363SOL     OW30862  14.010   1.167   5.420
76363SOL    HW130863  14.032   1.143   5.330
76363SOL    HW230864  14.061   1.247   5.437
76364SOL     OW30865   6.310   7.858   2.936
76364SOL    HW130866   6.292   7.951   2.949
76364SOL    HW230867   6.251   7.831   2.865
76365SOL     OW30868   1.371  12.234   9.722
76365SOL    HW130869   1.422  12.311   9.697
76365SOL    HW230870   1.282  12.268   9.735
76366SOL     OW30871  14.850   4.464   6.021
76366SOL    HW130872  14.781   4.443   5.959
76366SOL    HW230873  14.830   4.554   6.050
76367SOL     OW30874  11.146   0.871   5.427
76367SOL    HW130875  11.182   0.836   5.509
76367SOL    HW230876  11.118   0.960   5.450
76368SOL     OW30877   8.375  11.268   3.157
76368SOL    HW130878   8.365  11.186   3.108
76368SOL    HW230879   8.349  11.246   3.247
76369SOL     OW30880  14.764   4.005   3.999
76369SOL    HW130881  14.834   3.989   4.062
76369SOL    HW230882  14.763   3.926   3.944
76370SOL     OW30883  10.662   4.324   2.657
76370SOL    HW130884  10.643   4.357   2.745
76370SOL    HW230885  10.736   4.377   2.627
76371SOL     OW30886   5.325  14.567   7.635
76371SOL    HW130887   5.356  14.645   7.591
76371SOL    HW230888   5.357  14.575   7.725
76372SOL     OW30889   0.716   3.001   9.357
76372SOL    HW130890   0.626   3.014   9.329
76372SOL    HW230891   0.742   2.918   9.317
76373SOL     OW30892   2.024   5.123   9.335
76373SOL    HW130893   2.086   5.057   9.304
76373SOL    HW230894   1.945   5.072   9.357
76374SOL     OW30895   9.271   0.078  10.698
76374SOL    HW130896   9.195   0.128  10.667
76374SOL    HW230897   9.261   0.076  10.793
76375SOL     OW30898   3.096   6.198   0.231
76375SOL    HW130899   3.101   6.141   0.307
76375SOL    HW230900   3.051   6.277   0.262
76376SOL     OW30901  10.317  11.598   8.041
76376SOL    HW130902  10.255  11.644   7.984
76376SOL    HW230903  10.336  11.661   8.111
76377SOL     OW30904  11.947  12.075  14.452
76377SOL    HW130905  11.936  12.105  14.543
76377SOL    HW230906  11.989  12.149  14.408
76378SOL     OW30907  13.907  11.589  11.800
76378SOL    HW130908  13.997  11.596  11.771
76378SOL    HW230909  13.857  11.572  11.720
76379SOL     OW30910   5.874   4.507   6.275
76379SOL    HW130911   5.811   4.525   6.345
76379SOL    HW230912   5.911   4.422   6.297
76380SOL     OW30913   4.552  12.748   8.066
76380SOL    HW130914   4.491  12.684   8.102
76380SOL    HW230915   4.614  12.696   8.016
76381SOL     OW30916   3.757   6.397   1.725
76381SOL    HW130917   3.766   6.491   1.708
76381SOL    HW230918   3.783   6.355   1.643
76382SOL     OW30919   3.338   1.816   2.396
76382SOL    HW130920   3.393   1.881   2.351
76382SOL    HW230921   3.255   1.862   2.411
76383SOL     OW30922   1.104   1.062   2.378
76383SOL    HW130923   1.059   1.143   2.403
76383SOL    HW230924   1.156   1.086   2.302
76384SOL     OW30925   9.153   0.642   3.939
76384SOL    HW130926   9.098   0.674   3.867
76384SOL    HW230927   9.220   0.709   3.950
76385SOL     OW30928   6.582   1.618  10.287
76385SOL    HW130929   6.535   1.660  10.215
76385SOL    HW230930   6.528   1.541  10.308
76386SOL     OW30931   8.101  14.847   5.947
76386SOL    HW130932   8.109  14.813   6.036
76386SOL    HW230933   8.014  14.821   5.918
76387SOL     OW30934   3.999  14.028  13.349
76387SOL    HW130935   4.005  14.124  13.354
76387SOL    HW230936   4.057  14.004  13.277
76388SOL     OW30937   0.940   6.564   8.886
76388SOL    HW130938   0.986   6.486   8.917
76388SOL    HW230939   1.002   6.636   8.901
76389SOL     OW30940   3.699   9.605   4.699
76389SOL    HW130941   3.706   9.686   4.647
76389SOL    HW230942   3.634   9.626   4.766
76390SOL     OW30943  11.036   3.702   0.722
76390SOL    HW130944  11.044   3.723   0.815
76390SOL    HW230945  11.044   3.787   0.678
76391SOL     OW30946  13.164   1.297   0.225
76391SOL    HW130947  13.116   1.368   0.181
76391SOL    HW230948  13.251   1.333   0.238
76392SOL     OW30949   8.247  10.085   0.843
76392SOL    HW130950   8.298  10.012   0.810
76392SOL    HW230951   8.256  10.153   0.776
76393SOL     OW30952  10.457   3.941   0.365
76393SOL    HW130953  10.451   4.021   0.312
76393SOL    HW230954  10.507   3.880   0.311
76394SOL     OW30955   0.029  14.848   8.582
76394SOL    HW130956  14.843  14.821   8.644
76394SOL    HW230957   0.002  14.809   8.499
76395SOL     OW30958   7.139   6.434  13.959
76395SOL    HW130959   7.053   6.476  13.960
76395SOL    HW230960   7.159   6.423  13.866
76396SOL     OW30961  14.241   0.310  14.569
76396SOL    HW130962  14.300   0.240  14.594
76396SOL    HW230963  14.212   0.287  14.480
76397SOL     OW30964   5.074   8.519   6.066
76397SOL    HW130965   5.024   8.599   6.075
76397SOL    HW230966   5.042   8.479   5.985
76398SOL     OW30967  12.982   2.764   5.167
76398SOL    HW130968  13.054   2.823   5.141
76398SOL    HW230969  12.947   2.732   5.084
76399SOL     OW30970   4.018   1.960  10.889
76399SOL    HW130971   4.102   1.915  10.881
76399SOL    HW230972   3.960   1.911  10.830
76400SOL     OW30973   1.517   8.132  12.939
76400SOL    HW130974   1.606   8.110  12.909
76400SOL    HW230975   1.513   8.099  13.029
76401SOL     OW30976  13.113   5.089  10.275
76401SOL    HW130977  13.118   4.995  10.291
76401SOL    HW230978  13.204   5.116  10.264
76402SOL     OW30979  12.580  14.822  10.159
76402SOL    HW130980  12.609  14.759  10.224
76402SOL    HW230981  12.572  14.772  10.078
76403SOL     OW30982   4.596   3.580   7.766
76403SOL    HW130983   4.666   3.514   7.770
76403SOL    HW230984   4.563   3.575   7.676
76404SOL     OW30985  13.260   7.800  12.138
76404SOL    HW130986  13.247   7.756  12.222
76404SOL    HW230987  13.339   7.760  12.101
76405SOL     OW30988  12.864   6.657   4.684
76405SOL    HW130989  12.931   6.678   4.619
76405SOL    HW230990  12.857   6.561   4.681
76406SOL     OW30991  10.615   3.591  12.934
76406SOL    HW130992  10.662   3.576  12.852
76406SOL    HW230993  10.635   3.682  12.956
76407SOL     OW30994   0.135   4.466   5.679
76407SOL    HW130995   0.156   4.393   5.620
76407SOL    HW230996   0.095   4.531   5.621
76408SOL     OW30997   2.562  13.447   3.259
76408SOL    HW130998   2.578  13.363   3.302
76408SOL    HW230999   2.578  13.512   3.328
76409SOL     OW31000   5.536   8.632   4.015
76409SOL    HW131001   5.617   8.588   4.040
76409SOL    HW231002   5.468   8.566   4.029
76410SOL     OW31003  13.273  12.229   2.100
76410SOL    HW131004  13.263  12.319   2.071
76410SOL    HW231005  13.204  12.181   2.055
76411SOL     OW31006   7.344   9.699   3.857
76411SOL    HW131007   7.308   9.761   3.920
76411SOL    HW231008   7.396   9.638   3.910
76412SOL     OW31009   1.000  12.725   1.493
76412SOL    HW131010   0.927  12.699   1.438
76412SOL    HW231011   0.964  12.727   1.582
76413SOL     OW31012   1.467   3.763   8.389
76413SOL    HW131013   1.491   3.855   8.395
76413SOL    HW231014   1.431   3.753   8.300
76414SOL     OW31015   7.159  13.004  10.139
76414SOL    HW131016   7.220  13.055  10.193
76414SOL    HW231017   7.180  12.913  10.159
76415SOL     OW31018  11.143   5.625  12.265
76415SOL    HW131019  11.202   5.700  12.269
76415SOL    HW231020  11.201   5.548  12.265
76416SOL     OW31021   8.191   1.576  13.264
76416SOL    HW131022   8.097   1.569  13.278
76416SOL    HW231023   8.202   1.659  13.218
76417SOL     OW31024   0.555  11.157   4.540
76417SOL    HW131025   0.531  11.250   4.548
76417SOL    HW231026   0.649  11.155   4.558
76418SOL     OW31027   2.776  10.866   7.006
76418SOL    HW131028   2.715  10.805   6.963
76418SOL    HW231029   2.816  10.914   6.933
76419SOL     OW31030  12.990   4.675   8.629
76419SOL    HW131031  13.061   4.660   8.691
76419SOL    HW231032  12.913   4.691   8.684
76420SOL     OW31033   3.103  12.037   7.746
76420SOL    HW131034   3.129  12.012   7.835
76420SOL    HW231035   3.039  12.107   7.758
76421SOL     OW31036  12.406  10.651   4.972
76421SOL    HW131037  12.357  10.687   5.046
76421SOL    HW231038  12.366  10.565   4.958
76422SOL     OW31039  13.886   4.438   2.684
76422SOL    HW131040  13.873   4.459   2.777
76422SOL    HW231041  13.979   4.420   2.676
76423SOL     OW31042   7.366   6.293   6.703
76423SOL    HW131043   7.410   6.370   6.740
76423SOL    HW231044   7.438   6.234   6.679
76424SOL     OW31045   6.143   9.577   6.503
76424SOL    HW131046   6.062   9.603   6.546
76424SOL    HW231047   6.119   9.570   6.410
76425SOL     OW31048   4.287   7.603   4.246
76425SOL    HW131049   4.318   7.551   4.320
76425SOL    HW231050   4.360   7.662   4.227
76426SOL     OW31051   4.777   9.957  10.122
76426SOL    HW131052   4.718   9.898  10.075
76426SOL    HW231053   4.724   9.991  10.194
76427SOL     OW31054   9.946   9.704  13.849
76427SOL    HW131055   9.973   9.614  13.867
76427SOL    HW231056   9.988   9.756  13.917
76428SOL     OW31057   4.547  13.899   5.266
76428SOL    HW131058   4.511  13.925   5.351
76428SOL    HW231059   4.623  13.845   5.288
76429SOL     OW31060   3.666   9.326   5.294
76429SOL    HW131061   3.748   9.341   5.342
76429SOL    HW231062   3.660   9.399   5.233
76430SOL     OW31063  11.144  14.015   9.223
76430SOL    HW131064  11.176  14.067   9.297
76430SOL    HW231065  11.182  13.928   9.236
76431SOL     OW31066  11.490  10.619  14.417
76431SOL    HW131067  11.573  10.653  14.382
76431SOL    HW231068  11.442  10.589  14.340
76432SOL     OW31069   3.658  14.144   4.155
76432SOL    HW131070   3.753  14.133   4.153
76432SOL    HW231071   3.630  14.134   4.064
76433SOL     OW31072  10.799  13.631   8.494
76433SOL    HW131073  10.771  13.717   8.525
76433SOL    HW231074  10.883  13.647   8.451
76434SOL     OW31075  12.725  10.441   6.410
76434SOL    HW131076  12.649  10.405   6.365
76434SOL    HW231077  12.711  10.419   6.502
76435SOL     OW31078   5.450   0.029   5.458
76435SOL    HW131079   5.382   0.078   5.504
76435SOL    HW231080   5.408  14.827   5.437
76436SOL     OW31081  14.448  12.353   5.961
76436SOL    HW131082  14.384  12.289   5.992
76436SOL    HW231083  14.519  12.349   6.025
76437SOL     OW31084   2.324  10.928   1.497
76437SOL    HW131085   2.312  10.942   1.591
76437SOL    HW231086   2.401  10.980   1.475
76438SOL     OW31087   5.540   5.185   0.684
76438SOL    HW131088   5.550   5.093   0.659
76438SOL    HW231089   5.446   5.196   0.698
76439SOL     OW31090  10.096  14.662  14.119
76439SOL    HW131091  10.010  14.629  14.144
76439SOL    HW231092  10.154  14.586  14.125
76440SOL     OW31093  14.414   2.018  13.578
76440SOL    HW131094  14.468   2.025  13.657
76440SOL    HW231095  14.377   1.929  13.582
76441SOL     OW31096   6.610   3.271   6.016
76441SOL    HW131097   6.585   3.282   6.108
76441SOL    HW231098   6.617   3.361   5.982
76442SOL     OW31099   1.727   5.897   2.365
76442SOL    HW131100   1.813   5.899   2.406
76442SOL    HW231101   1.669   5.934   2.432
76443SOL     OW31102  10.564   2.138   7.680
76443SOL    HW131103  10.579   2.231   7.661
76443SOL    HW231104  10.597   2.093   7.602
76444SOL     OW31105   3.909   6.968   5.660
76444SOL    HW131106   3.934   6.908   5.730
76444SOL    HW231107   3.881   6.911   5.589
76445SOL     OW31108   8.008   3.012   8.900
76445SOL    HW131109   8.097   2.990   8.927
76445SOL    HW231110   7.989   2.951   8.828
76446SOL     OW31111  14.259   0.918   1.122
76446SOL    HW131112  14.187   0.862   1.092
76446SOL    HW231113  14.307   0.865   1.185
76447SOL     OW31114   8.247   2.706   1.608
76447SOL    HW131115   8.195   2.782   1.586
76447SOL    HW231116   8.187   2.632   1.599
76448SOL     OW31117   2.645   7.019   3.126
76448SOL    HW131118   2.706   7.090   3.110
76448SOL    HW231119   2.700   6.941   3.133
76449SOL     OW31120   6.498   6.811  11.354
76449SOL    HW131121   6.517   6.718  11.361
76449SOL    HW231122   6.444   6.830  11.430
76450SOL     OW31123  10.459   9.701   4.746
76450SOL    HW131124  10.548   9.671   4.764
76450SOL    HW231125  10.406   9.622   4.748
76451SOL     OW31126  10.443   6.807  11.033
76451SOL    HW131127  10.503   6.748  10.988
76451SOL    HW231128  10.370   6.751  11.060
76452SOL     OW31129   0.015   0.937  11.993
76452SOL    HW131130   0.093   0.929  11.938
76452SOL    HW231131   0.047   0.975  12.075
76453SOL     OW31132   8.450   0.741   9.005
76453SOL    HW131133   8.375   0.728   8.947
76453SOL    HW231134   8.441   0.672   9.071
76454SOL     OW31135  14.294   2.928   4.316
76454SOL    HW131136  14.268   2.926   4.224
76454SOL    HW231137  14.214   2.952   4.363
76455SOL     OW31138   9.680   0.771   7.028
76455SOL    HW131139   9.633   0.692   7.055
76455SOL    HW231140   9.639   0.842   7.078
76456SOL     OW31141   2.432  11.898  10.675
76456SOL    HW131142   2.470  11.972  10.629
76456SOL    HW231143   2.507  11.852  10.713
76457SOL     OW31144   4.721   2.838  11.229
76457SOL    HW131145   4.795   2.891  11.258
76457SOL    HW231146   4.761   2.760  11.191
76458SOL     OW31147  10.919  12.644   1.108
76458SOL    HW131148  10.900  12.712   1.043
76458SOL    HW231149  10.999  12.675   1.151
76459SOL     OW31150   6.277   3.797   6.045
76459SOL    HW131151   6.314   3.755   5.967
76459SOL    HW231152   6.290   3.734   6.115
76460SOL     OW31153  10.756   1.757   0.964
76460SOL    HW131154  10.666   1.771   0.933
76460SOL    HW231155  10.777   1.836   1.013
76461SOL     OW31156   5.254   9.176  13.843
76461SOL    HW131157   5.238   9.132  13.759
76461SOL    HW231158   5.241   9.107  13.908
76462SOL     OW31159  13.646   7.897  14.831
76462SOL    HW131160  13.674   7.823   0.002
76462SOL    HW231161  13.558   7.916  14.862
76463SOL     OW31162   4.775  12.205   5.489
76463SOL    HW131163   4.860  12.238   5.460
76463SOL    HW231164   4.776  12.112   5.462
76464SOL     OW31165   3.615   4.330   4.554
76464SOL    HW131166   3.680   4.277   4.508
76464SOL    HW231167   3.632   4.314   4.647
76465SOL     OW31168  12.764  10.750  12.569
76465SOL    HW131169  12.760  10.845  12.576
76465SOL    HW231170  12.695  10.718  12.627
76466SOL     OW31171   9.824  11.061   8.538
76466SOL    HW131172   9.818  10.965   8.535
76466SOL    HW231173   9.773  11.090   8.463
76467SOL     OW31174   3.986   0.745   6.653
76467SOL    HW131175   4.003   0.804   6.580
76467SOL    HW231176   4.017   0.660   6.622
76468SOL     OW31177  14.486   0.030   8.714
76468SOL    HW131178  14.533   0.110   8.690
76468SOL    HW231179  14.435   0.008   8.636
76469SOL     OW31180   5.471   2.642   5.029
76469SOL    HW131181   5.491   2.676   4.942
76469SOL    HW231182   5.414   2.567   5.013
76470SOL     OW31183  14.542   4.402  10.392
76470SOL    HW131184  14.457   4.431  10.358
76470SOL    HW231185  14.604   4.467  10.358
76471SOL     OW31186  13.124   5.630  11.774
76471SOL    HW131187  13.208   5.628  11.729
76471SOL    HW231188  13.062   5.659  11.708
76472SOL     OW31189   5.575  11.280   4.495
76472SOL    HW131190   5.550  11.302   4.405
76472SOL    HW231191   5.531  11.198   4.514
76473SOL     OW31192  14.846   8.970   5.542
76473SOL    HW131193  14.755   8.953   5.521
76473SOL    HW231194  14.844   9.053   5.590
76474SOL     OW31195   8.887   4.371   1.562
76474SOL    HW131196   8.875   4.309   1.634
76474SOL    HW231197   8.799   4.390   1.530
76475SOL     OW31198  11.749   6.010   1.475
76475SOL    HW131199  11.786   5.936   1.523
76475SOL    HW231200  11.810   6.025   1.404
76476SOL     OW31201  12.390   5.097   0.809
76476SOL    HW131202  12.370   5.075   0.901
76476SOL    HW231203  12.309   5.136   0.776
76477SOL     OW31204   4.482   0.538  10.447
76477SOL    HW131205   4.510   0.559  10.358
76477SOL    HW231206   4.505   0.616  10.499
76478SOL     OW31207  12.724   4.746   3.121
76478SOL    HW131208  12.738   4.652   3.115
76478SOL    HW231209  12.629   4.756   3.129
76479SOL     OW31210  13.892   6.594   1.523
76479SOL    HW131211  13.850   6.512   1.496
76479SOL    HW231212  13.847   6.662   1.473
76480SOL     OW31213  10.104  12.425  14.368
76480SOL    HW131214  10.046  12.364  14.415
76480SOL    HW231215  10.133  12.376  14.292
76481SOL     OW31216  11.008   3.998   5.827
76481SOL    HW131217  11.025   3.922   5.882
76481SOL    HW231218  11.040   3.974   5.740
76482SOL     OW31219   0.401   1.218   2.759
76482SOL    HW131220   0.377   1.304   2.725
76482SOL    HW231221   0.449   1.237   2.840
76483SOL     OW31222  10.102   9.658   8.458
76483SOL    HW131223  10.056   9.575   8.442
76483SOL    HW231224  10.158   9.669   8.381
76484SOL     OW31225   3.081   9.913   6.801
76484SOL    HW131226   3.050   9.998   6.832
76484SOL    HW231227   3.167   9.930   6.764
76485SOL     OW31228   1.776   2.634   4.603
76485SOL    HW131229   1.711   2.622   4.672
76485SOL    HW231230   1.810   2.546   4.587
76486SOL     OW31231   7.723  11.223  12.469
76486SOL    HW131232   7.633  11.205  12.441
76486SOL    HW231233   7.731  11.319  12.461
76487SOL     OW31234  11.023   5.229   4.796
76487SOL    HW131235  11.014   5.146   4.749
76487SOL    HW231236  11.003   5.295   4.730
76488SOL     OW31237   2.860  12.280  12.067
76488SOL    HW131238   2.880  12.209  12.128
76488SOL    HW231239   2.945  12.318  12.046
76489SOL     OW31240  14.108   4.159  12.129
76489SOL    HW131241  14.078   4.099  12.060
76489SOL    HW231242  14.032   4.213  12.149
76490SOL     OW31243   2.045  10.518  13.760
76490SOL    HW131244   2.046  10.537  13.854
76490SOL    HW231245   2.123  10.463  13.747
76491SOL     OW31246  13.196   4.137   2.689
76491SOL    HW131247  13.138   4.210   2.667
76491SOL    HW231248  13.155   4.061   2.645
76492SOL     OW31249   8.003  14.101  10.786
76492SOL    HW131250   8.004  14.064  10.698
76492SOL    HW231251   7.915  14.137  10.796
76493SOL     OW31252   4.214   3.782   7.641
76493SOL    HW131253   4.173   3.700   7.670
76493SOL    HW231254   4.181   3.848   7.702
76494SOL     OW31255   4.508  13.518   1.160
76494SOL    HW131256   4.442  13.449   1.164
76494SOL    HW231257   4.545  13.510   1.072
76495SOL     OW31258   3.363   1.595   6.651
76495SOL    HW131259   3.315   1.533   6.595
76495SOL    HW231260   3.420   1.643   6.590
76496SOL     OW31261   3.319   2.737  10.815
76496SOL    HW131262   3.392   2.719  10.756
76496SOL    HW231263   3.255   2.668  10.796
76497SOL     OW31264   7.002   2.973  10.489
76497SOL    HW131265   6.959   2.917  10.424
76497SOL    HW231266   7.047   3.040  10.436
76498SOL     OW31267  11.998   8.718   7.795
76498SOL    HW131268  12.021   8.698   7.885
76498SOL    HW231269  12.057   8.665   7.742
76499SOL     OW31270  11.329   0.478   5.008
76499SOL    HW131271  11.378   0.397   4.994
76499SOL    HW231272  11.250   0.449   5.054
76500SOL     OW31273   2.964  13.093   8.062
76500SOL    HW131274   2.892  13.112   8.002
76500SOL    HW231275   3.031  13.157   8.040
76501SOL     OW31276  11.932  11.461  11.311
76501SOL    HW131277  11.869  11.407  11.262
76501SOL    HW231278  11.895  11.467  11.399
76502SOL     OW31279   0.045   9.952  14.145
76502SOL    HW131280   0.060   9.859  14.125
76502SOL    HW231281   0.065   9.998  14.063
76503SOL     OW31282   3.639  10.458  13.687
76503SOL    HW131283   3.573  10.436  13.753
76503SOL    HW231284   3.607  10.416  13.607
76504SOL     OW31285   0.082   9.245   8.820
76504SOL    HW131286   0.162   9.229   8.870
76504SOL    HW231287   0.012   9.243   8.886
76505SOL     OW31288  11.128   6.497  14.366
76505SOL    HW131289  11.148   6.573  14.311
76505SOL    HW231290  11.147   6.421  14.310
76506SOL     OW31291   5.895  14.123  14.286
76506SOL    HW131292   5.925  14.073  14.362
76506SOL    HW231293   5.884  14.058  14.217
76507SOL     OW31294   4.170   1.867  14.745
76507SOL    HW131295   4.217   1.797  14.698
76507SOL    HW231296   4.093   1.824  14.781
76508SOL     OW31297   8.207  12.683   9.735
76508SOL    HW131298   8.219  12.604   9.683
76508SOL    HW231299   8.246  12.753   9.682
76509SOL     OW31300   8.648   2.390  10.827
76509SOL    HW131301   8.624   2.370  10.737
76509SOL    HW231302   8.666   2.484  10.827
76510SOL     OW31303   8.194  10.241   5.832
76510SOL    HW131304   8.196  10.334   5.810
76510SOL    HW231305   8.118  10.207   5.785
76511SOL     OW31306   5.288  10.932  12.164
76511SOL    HW131307   5.262  10.992  12.234
76511SOL    HW231308   5.227  10.858  12.173
76512SOL     OW31309   6.112   4.464  10.310
76512SOL    HW131310   6.067   4.503  10.235
76512SOL    HW231311   6.157   4.538  10.352
76513SOL     OW31312   3.389   5.210  11.768
76513SOL    HW131313   3.354   5.298  11.756
76513SOL    HW231314   3.409   5.206  11.862
76514SOL     OW31315   6.592   5.462   7.448
76514SOL    HW131316   6.516   5.481   7.504
76514SOL    HW231317   6.667   5.497   7.496
76515SOL     OW31318   6.196   6.628   3.459
76515SOL    HW131319   6.182   6.588   3.372
76515SOL    HW231320   6.290   6.640   3.465
76516SOL     OW31321  12.241  13.406  13.933
76516SOL    HW131322  12.301  13.386  14.005
76516SOL    HW231323  12.211  13.495  13.950
76517SOL     OW31324   6.766   4.374   2.261
76517SOL    HW131325   6.746   4.281   2.251
76517SOL    HW231326   6.709   4.403   2.333
76518SOL     OW31327   4.460   6.620   2.115
76518SOL    HW131328   4.428   6.548   2.169
76518SOL    HW231329   4.382   6.673   2.098
76519SOL     OW31330  10.430   8.356   3.092
76519SOL    HW131331  10.449   8.430   3.035
76519SOL    HW231332  10.468   8.381   3.177
76520SOL     OW31333  14.558  12.768   1.627
76520SOL    HW131334  14.583  12.854   1.661
76520SOL    HW231335  14.621  12.753   1.556
76521SOL     OW31336   2.247   0.659   7.107
76521SOL    HW131337   2.221   0.590   7.045
76521SOL    HW231338   2.339   0.675   7.087
76522SOL     OW31339   5.354   6.917   4.774
76522SOL    HW131340   5.423   6.958   4.722
76522SOL    HW231341   5.346   6.973   4.852
76523SOL     OW31342   9.188   9.107  12.534
76523SOL    HW131343   9.204   9.111  12.628
76523SOL    HW231344   9.099   9.072  12.526
76524SOL     OW31345  14.489  11.339   2.705
76524SOL    HW131346  14.480  11.432   2.726
76524SOL    HW231347  14.404  11.315   2.668
76525SOL     OW31348   9.389   1.804  11.842
76525SOL    HW131349   9.452   1.856  11.891
76525SOL    HW231350   9.413   1.714  11.860
76526SOL     OW31351   7.735  12.408   4.642
76526SOL    HW131352   7.703  12.488   4.601
76526SOL    HW231353   7.688  12.337   4.597
76527SOL     OW31354   3.673   0.620   0.482
76527SOL    HW131355   3.735   0.693   0.494
76527SOL    HW231356   3.627   0.614   0.565
76528SOL     OW31357   6.074   4.209  11.783
76528SOL    HW131358   5.994   4.259  11.765
76528SOL    HW231359   6.080   4.208  11.879
76529SOL     OW31360   0.395   2.323   7.503
76529SOL    HW131361   0.408   2.228   7.501
76529SOL    HW231362   0.467   2.355   7.557
76530SOL     OW31363   5.936  12.725   1.159
76530SOL    HW131364   6.004  12.677   1.206
76530SOL    HW231365   5.983  12.780   1.097
76531SOL     OW31366  11.450   1.373   5.344
76531SOL    HW131367  11.520   1.354   5.407
76531SOL    HW231368  11.481   1.333   5.262
76532SOL     OW31369  12.093   1.706  11.757
76532SOL    HW131370  12.003   1.727  11.732
76532SOL    HW231371  12.086   1.625  11.807
76533SOL     OW31372   9.813  14.344   8.270
76533SOL    HW131373   9.838  14.433   8.245
76533SOL    HW231374   9.887  14.290   8.243
76534SOL     OW31375  14.683  12.938  11.680
76534SOL    HW131376  14.705  12.957  11.588
76534SOL    HW231377  14.754  12.881  11.709
76535SOL     OW31378  10.776  14.124   6.625
76535SOL    HW131379  10.786  14.176   6.705
76535SOL    HW231380  10.834  14.050   6.637
76536SOL     OW31381   7.749   2.233   1.083
76536SOL    HW131382   7.683   2.178   1.039
76536SOL    HW231383   7.824   2.232   1.023
76537SOL     OW31384   9.326   7.877   7.965
76537SOL    HW131385   9.239   7.845   7.990
76537SOL    HW231386   9.369   7.898   8.048
76538SOL     OW31387   7.323   9.677  10.443
76538SOL    HW131388   7.356   9.591  10.469
76538SOL    HW231389   7.233   9.678  10.476
76539SOL     OW31390   1.052   4.213   5.812
76539SOL    HW131391   1.099   4.292   5.782
76539SOL    HW231392   1.022   4.172   5.731
76540SOL     OW31393   9.423   0.062  11.483
76540SOL    HW131394   9.435   0.044  11.390
76540SOL    HW231395   9.510   0.049  11.522
76541SOL     OW31396  12.181  11.499   2.080
76541SOL    HW131397  12.137  11.492   1.995
76541SOL    HW231398  12.247  11.568   2.067
76542SOL     OW31399   9.121   8.309   7.170
76542SOL    HW131400   9.029   8.304   7.146
76542SOL    HW231401   9.124   8.292   7.264
76543SOL     OW31402   4.767   6.463  10.349
76543SOL    HW131403   4.677   6.440  10.330
76543SOL    HW231404   4.797   6.397  10.412
76544SOL     OW31405   2.478   5.708   1.706
76544SOL    HW131406   2.531   5.786   1.724
76544SOL    HW231407   2.542   5.641   1.682
76545SOL     OW31408   8.222   3.512  14.752
76545SOL    HW131409   8.268   3.557  14.681
76545SOL    HW231410   8.231   3.571  14.828
76546SOL     OW31411   6.379  13.111  12.877
76546SOL    HW131412   6.400  13.041  12.815
76546SOL    HW231413   6.346  13.065  12.954
76547SOL     OW31414  13.365   5.680   5.723
76547SOL    HW131415  13.406   5.651   5.805
76547SOL    HW231416  13.436   5.724   5.676
76548SOL     OW31417   8.429   9.203   2.572
76548SOL    HW131418   8.465   9.140   2.510
76548SOL    HW231419   8.460   9.288   2.541
76549SOL     OW31420   5.328   7.601   5.051
76549SOL    HW131421   5.255   7.557   5.008
76549SOL    HW231422   5.376   7.531   5.095
76550SOL     OW31423  13.018   2.598   1.973
76550SOL    HW131424  13.003   2.674   2.029
76550SOL    HW231425  12.978   2.622   1.890
76551SOL     OW31426   3.922   8.530  14.821
76551SOL    HW131427   4.016   8.535  14.800
76551SOL    HW231428   3.912   8.443  14.860
76552SOL     OW31429  10.223  13.772  11.936
76552SOL    HW131430  10.272  13.720  12.001
76552SOL    HW231431  10.145  13.720  11.917
76553SOL     OW31432  14.761  13.152   2.969
76553SOL    HW131433  14.852  13.121   2.967
76553SOL    HW231434  14.741  13.161   3.062
76554SOL     OW31435  13.750  11.523  11.572
76554SOL    HW131436  13.709  11.467  11.638
76554SOL    HW231437  13.801  11.463  11.518
76555SOL     OW31438   5.627   2.940   8.967
76555SOL    HW131439   5.721   2.937   8.946
76555SOL    HW231440   5.620   3.005   9.037
76556SOL     OW31441  11.059   2.617   0.372
76556SOL    HW131442  11.033   2.663   0.451
76556SOL    HW231443  10.976   2.588   0.333
76557SOL     OW31444  12.175  12.964   2.425
76557SOL    HW131445  12.092  12.984   2.381
76557SOL    HW231446  12.219  12.904   2.364
76558SOL     OW31447   7.403  10.028  14.026
76558SOL    HW131448   7.414   9.950  14.080
76558SOL    HW231449   7.407  10.101  14.089
76559SOL     OW31450   2.226   4.726   1.041
76559SOL    HW131451   2.299   4.782   1.013
76559SOL    HW231452   2.251   4.638   1.012
76560SOL     OW31453   1.878   9.042   9.792
76560SOL    HW131454   1.913   8.953   9.794
76560SOL    HW231455   1.882   9.072   9.882
76561SOL     OW31456  14.113  12.259  11.195
76561SOL    HW131457  14.020  12.266  11.213
76561SOL    HW231458  14.142  12.187  11.252
76562SOL     OW31459   3.104   9.537   6.804
76562SOL    HW131460   3.055   9.455   6.815
76562SOL    HW231461   3.102   9.577   6.891
76563SOL     OW31462   3.228  12.466   4.824
76563SOL    HW131463   3.290  12.398   4.797
76563SOL    HW231464   3.281  12.533   4.867
76564SOL     OW31465  13.171   8.843   8.535
76564SOL    HW131466  13.090   8.793   8.525
76564SOL    HW231467  13.144   8.934   8.523
76565SOL     OW31468  10.635   8.042  11.388
76565SOL    HW131469  10.671   7.975  11.446
76565SOL    HW231470  10.696   8.115  11.394
76566SOL     OW31471  10.902   1.799   7.337
76566SOL    HW131472  10.958   1.729   7.369
76566SOL    HW231473  10.855   1.831   7.414
76567SOL     OW31474  14.229   5.149   2.525
76567SOL    HW131475  14.168   5.088   2.482
76567SOL    HW231476  14.179   5.186   2.597
76568SOL     OW31477   7.446   1.804   5.519
76568SOL    HW131478   7.524   1.760   5.553
76568SOL    HW231479   7.478   1.890   5.490
76569SOL     OW31480   8.697  13.135  11.726
76569SOL    HW131481   8.655  13.092  11.651
76569SOL    HW231482   8.644  13.108  11.801
76570SOL     OW31483   9.361   7.761   4.181
76570SOL    HW131484   9.357   7.689   4.245
76570SOL    HW231485   9.414   7.828   4.224
76571SOL     OW31486   1.341   2.087  10.863
76571SOL    HW131487   1.419   2.124  10.822
76571SOL    HW231488   1.331   2.001  10.824
76572SOL     OW31489  10.945  12.085   6.930
76572SOL    HW131490  11.035  12.112   6.945
76572SOL    HW231491  10.918  12.043   7.011
76573SOL     OW31492  13.321   8.731   0.443
76573SOL    HW131493  13.348   8.667   0.509
76573SOL    HW231494  13.345   8.816   0.481
76574SOL     OW31495   1.521   1.004   2.141
76574SOL    HW131496   1.537   0.916   2.106
76574SOL    HW231497   1.603   1.027   2.185
76575SOL     OW31498  10.877   8.308   5.615
76575SOL    HW131499  10.924   8.349   5.688
76575SOL    HW231500  10.793   8.354   5.611
76576SOL     OW31501   2.079  12.447   9.764
76576SOL    HW131502   2.062  12.474   9.674
76576SOL    HW231503   2.062  12.353   9.765
76577SOL     OW31504   1.051  14.475   7.400
76577SOL    HW131505   1.130  14.433   7.367
76577SOL    HW231506   0.991  14.476   7.325
76578SOL     OW31507  10.852   4.024  13.352
76578SOL    HW131508  10.900   4.057  13.428
76578SOL    HW231509  10.791   3.959  13.388
76579SOL     OW31510   5.027   5.741   0.501
76579SOL    HW131511   4.993   5.825   0.471
76579SOL    HW231512   5.051   5.694   0.421
76580SOL     OW31513   7.441   2.192  12.488
76580SOL    HW131514   7.375   2.156  12.429
76580SOL    HW231515   7.451   2.283  12.462
76581SOL     OW31516   4.262   3.483   5.965
76581SOL    HW131517   4.351   3.463   5.936
76581SOL    HW231518   4.272   3.519   6.052
76582SOL     OW31519  13.647   6.318   0.602
76582SOL    HW131520  13.595   6.399   0.605
76582SOL    HW231521  13.589   6.251   0.637
76583SOL     OW31522   6.854   2.149  10.117
76583SOL    HW131523   6.825   2.134  10.027
76583SOL    HW231524   6.948   2.162  10.110
76584SOL     OW31525   1.267  13.682  10.174
76584SOL    HW131526   1.251  13.665  10.267
76584SOL    HW231527   1.362  13.678  10.164
76585SOL     OW31528  11.399   5.632   1.626
76585SOL    HW131529  11.436   5.720   1.623
76585SOL    HW231530  11.306   5.645   1.643
76586SOL     OW31531   2.882   3.990   7.320
76586SOL    HW131532   2.856   3.912   7.271
76586SOL    HW231533   2.969   4.011   7.286
76587SOL     OW31534  11.476   5.340   5.145
76587SOL    HW131535  11.508   5.339   5.235
76587SOL    HW231536  11.385   5.369   5.153
76588SOL     OW31537   5.197  11.819  11.846
76588SOL    HW131538   5.134  11.836  11.915
76588SOL    HW231539   5.279  11.855  11.878
76589SOL     OW31540   5.892   2.168  10.087
76589SOL    HW131541   5.980   2.191  10.055
76589SOL    HW231542   5.904   2.157  10.182
76590SOL     OW31543  10.551   0.039   8.497
76590SOL    HW131544  10.543   0.072   8.586
76590SOL    HW231545  10.570   0.116   8.444
76591SOL     OW31546   9.106   8.080   9.120
76591SOL    HW131547   9.032   8.048   9.069
76591SOL    HW231548   9.118   8.014   9.189
76592SOL     OW31549   2.605   4.209   4.936
76592SOL    HW131550   2.596   4.296   4.977
76592SOL    HW231551   2.641   4.227   4.850
76593SOL     OW31552  10.465   4.533   5.215
76593SOL    HW131553  10.386   4.486   5.189
76593SOL    HW231554  10.441   4.580   5.295
76594SOL     OW31555  10.764   9.005  11.906
76594SOL    HW131556  10.803   8.924  11.939
76594SOL    HW231557  10.670   8.986  11.900
76595SOL     OW31558  13.700   0.187   1.463
76595SOL    HW131559  13.771   0.163   1.403
76595SOL    HW231560  13.690   0.281   1.451
76596SOL     OW31561   0.447   9.553   1.008
76596SOL    HW131562   0.515   9.492   0.978
76596SOL    HW231563   0.411   9.590   0.928
76597SOL     OW31564   1.750   3.992   6.342
76597SOL    HW131565   1.714   3.982   6.430
76597SOL    HW231566   1.688   3.944   6.286
76598SOL     OW31567   9.407   1.734  11.573
76598SOL    HW131568   9.399   1.777  11.658
76598SOL    HW231569   9.458   1.655  11.591
76599SOL     OW31570  10.318  10.578   8.888
76599SOL    HW131571  10.304  10.554   8.979
76599SOL    HW231572  10.408  10.610   8.886
76600SOL     OW31573  12.037   2.328  11.789
76600SOL    HW131574  12.130   2.310  11.791
76600SOL    HW231575  12.003   2.294  11.872
76601SOL     OW31576   6.852  12.147  13.203
76601SOL    HW131577   6.777  12.131  13.147
76601SOL    HW231578   6.894  12.061  13.213
76602SOL     OW31579   3.934  14.569  10.325
76602SOL    HW131580   3.935  14.486  10.278
76602SOL    HW231581   3.978  14.549  10.408
76603SOL     OW31582   4.523   3.090  10.267
76603SOL    HW131583   4.510   3.103  10.174
76603SOL    HW231584   4.615   3.063  10.275
76604SOL     OW31585   2.598   1.890  10.237
76604SOL    HW131586   2.595   1.940  10.155
76604SOL    HW231587   2.662   1.821  10.220
76605SOL     OW31588   9.343   5.412   9.921
76605SOL    HW131589   9.362   5.395  10.013
76605SOL    HW231590   9.287   5.339   9.894
76606SOL     OW31591   7.692   4.599   0.073
76606SOL    HW131592   7.670   4.600  14.861
76606SOL    HW231593   7.665   4.512   0.103
76607SOL     OW31594  10.179  11.372   4.795
76607SOL    HW131595  10.190  11.398   4.704
76607SOL    HW231596  10.212  11.446   4.846
76608SOL     OW31597   1.083  13.582   9.548
76608SOL    HW131598   1.053  13.544   9.630
76608SOL    HW231599   1.003  13.609   9.503
76609SOL     OW31600   5.556   5.272  11.710
76609SOL    HW131601   5.509   5.353  11.731
76609SOL    HW231602   5.489   5.204  11.717
76610SOL     OW31603   0.987   5.971   2.677
76610SOL    HW131604   1.051   6.032   2.713
76610SOL    HW231605   0.925   6.026   2.630
76611SOL     OW31606  14.131  14.808   4.378
76611SOL    HW131607  14.132   0.021   4.358
76611SOL    HW231608  14.116  14.804   4.472
76612SOL     OW31609   0.470   6.738   1.178
76612SOL    HW131610   0.516   6.801   1.122
76612SOL    HW231611   0.405   6.698   1.120
76613SOL     OW31612  10.143  12.579   7.608
76613SOL    HW131613  10.058  12.616   7.631
76613SOL    HW231614  10.153  12.598   7.515
76614SOL     OW31615   5.248   7.758  13.983
76614SOL    HW131616   5.261   7.671  14.019
76614SOL    HW231617   5.158   7.781  14.006
76615SOL     OW31618   3.270   6.637  12.173
76615SOL    HW131619   3.339   6.702  12.190
76615SOL    HW231620   3.189   6.688  12.171
76616SOL     OW31621  10.235   4.957   7.153
76616SOL    HW131622  10.272   5.018   7.090
76616SOL    HW231623  10.305   4.944   7.218
76617SOL     OW31624  12.137   0.630  14.121
76617SOL    HW131625  12.073   0.622  14.193
76617SOL    HW231626  12.220   0.605  14.161
76618SOL     OW31627   8.938  14.391   6.776
76618SOL    HW131628   8.981  14.394   6.861
76618SOL    HW231629   8.884  14.470   6.773
76619SOL     OW31630   4.912   5.999  13.708
76619SOL    HW131631   4.992   5.954  13.736
76619SOL    HW231632   4.929   6.024  13.617
76620SOL     OW31633   3.445   8.729  11.020
76620SOL    HW131634   3.535   8.759  11.011
76620SOL    HW231635   3.408   8.736  10.932
76621SOL     OW31636   2.828  11.639   2.420
76621SOL    HW131637   2.786  11.605   2.499
76621SOL    HW231638   2.789  11.589   2.348
76622SOL     OW31639   0.785   5.470  14.654
76622SOL    HW131640   0.774   5.375  14.648
76622SOL    HW231641   0.880   5.483  14.652
76623SOL     OW31642  11.679  10.120   5.842
76623SOL    HW131643  11.613  10.050   5.846
76623SOL    HW231644  11.722  10.118   5.927
76624SOL     OW31645   8.810   5.018  13.603
76624SOL    HW131646   8.795   5.030  13.696
76624SOL    HW231647   8.809   4.923  13.591
76625SOL     OW31648   4.568   3.223  12.346
76625SOL    HW131649   4.532   3.148  12.297
76625SOL    HW231650   4.502   3.291  12.337
76626SOL     OW31651  14.090   8.578   6.962
76626SOL    HW131652  14.057   8.496   6.925
76626SOL    HW231653  14.013   8.620   7.001
76627SOL     OW31654   8.450  11.618   6.758
76627SOL    HW131655   8.403  11.535   6.763
76627SOL    HW231656   8.495  11.615   6.674
76628SOL     OW31657  12.769   1.742   8.047
76628SOL    HW131658  12.860   1.754   8.073
76628SOL    HW231659  12.764   1.781   7.959
76629SOL     OW31660   4.190   9.810   0.120
76629SOL    HW131661   4.129   9.820   0.047
76629SOL    HW231662   4.198   9.716   0.133
76630SOL     OW31663   2.388   0.949  10.854
76630SOL    HW131664   2.357   0.864  10.824
76630SOL    HW231665   2.483   0.943  10.849
76631SOL     OW31666   2.903   6.121   9.165
76631SOL    HW131667   2.923   6.070   9.087
76631SOL    HW231668   2.900   6.212   9.135
76632SOL     OW31669  12.282  12.813   1.573
76632SOL    HW131670  12.231  12.741   1.611
76632SOL    HW231671  12.264  12.809   1.479
76633SOL     OW31672   4.055   5.921   2.526
76633SOL    HW131673   4.032   5.954   2.612
76633SOL    HW231674   4.142   5.884   2.537
76634SOL     OW31675   1.624   1.612   1.464
76634SOL    HW131676   1.557   1.552   1.430
76634SOL    HW231677   1.578   1.695   1.474
76635SOL     OW31678   0.345  11.710   9.167
76635SOL    HW131679   0.440  11.720   9.178
76635SOL    HW231680   0.336  11.652   9.091
76636SOL     OW31681   6.373  14.280   5.128
76636SOL    HW131682   6.387  14.260   5.220
76636SOL    HW231683   6.365  14.195   5.085
76637SOL     OW31684   1.236  12.155   5.159
76637SOL    HW131685   1.178  12.228   5.182
76637SOL    HW231686   1.178  12.080   5.150
76638SOL     OW31687   2.535   5.071   9.202
76638SOL    HW131688   2.622   5.103   9.225
76638SOL    HW231689   2.480   5.093   9.278
76639SOL     OW31690  10.545   8.924  12.133
76639SOL    HW131691  10.545   8.957  12.223
76639SOL    HW231692  10.572   8.833  12.141
76640SOL     OW31693   3.050  12.260   7.942
76640SOL    HW131694   3.144  12.240   7.943
76640SOL    HW231695   3.020  12.236   8.030
76641SOL     OW31696   8.959   0.345   6.610
76641SOL    HW131697   9.026   0.366   6.545
76641SOL    HW231698   8.881   0.391   6.579
76642SOL     OW31699   4.131   1.207   4.629
76642SOL    HW131700   4.193   1.271   4.596
76642SOL    HW231701   4.126   1.139   4.561
76643SOL     OW31702  11.855  12.420   8.907
76643SOL    HW131703  11.823  12.509   8.894
76643SOL    HW231704  11.839  12.377   8.824
76644SOL     OW31705   7.081   0.277   7.617
76644SOL    HW131706   7.140   0.301   7.546
76644SOL    HW231707   7.073   0.182   7.610
76645SOL     OW31708   7.248   5.483  11.350
76645SOL    HW131709   7.342   5.472  11.339
76645SOL    HW231710   7.210   5.458  11.265
76646SOL     OW31711   5.857  10.382  10.470
76646SOL    HW131712   5.798  10.382  10.545
76646SOL    HW231713   5.927  10.322  10.494
76647SOL     OW31714   1.351  13.285   0.823
76647SOL    HW131715   1.432  13.245   0.792
76647SOL    HW231716   1.380  13.349   0.889
76648SOL     OW31717  12.746   7.403   4.983
76648SOL    HW131718  12.780   7.321   4.947
76648SOL    HW231719  12.697   7.376   5.061
76649SOL     OW31720  13.148   7.262  11.985
76649SOL    HW131721  13.144   7.336  12.047
76649SOL    HW231722  13.185   7.190  12.036
76650SOL     OW31723  12.034   1.914   1.580
76650SOL    HW131724  12.023   2.004   1.551
76650SOL    HW231725  12.012   1.861   1.503
76651SOL     OW31726  13.565  11.325   4.892
76651SOL    HW131727  13.653  11.358   4.914
76651SOL    HW231728  13.552  11.251   4.951
76652SOL     OW31729   9.408   8.636   9.626
76652SOL    HW131730   9.388   8.548   9.660
76652SOL    HW231731   9.456   8.620   9.545
76653SOL     OW31732  11.301   0.131   2.782
76653SOL    HW131733  11.325   0.097   2.696
76653SOL    HW231734  11.355   0.209   2.793
76654SOL     OW31735   8.472   1.635  11.834
76654SOL    HW131736   8.536   1.671  11.895
76654SOL    HW231737   8.387   1.650  11.877
76655SOL     OW31738  11.224   1.321   6.803
76655SOL    HW131739  11.161   1.364   6.861
76655SOL    HW231740  11.274   1.263   6.861
76656SOL     OW31741   7.722  11.701   2.765
76656SOL    HW131742   7.630  11.683   2.781
76656SOL    HW231743   7.723  11.772   2.701
76657SOL     OW31744  12.234  12.830   9.298
76657SOL    HW131745  12.194  12.888   9.233
76657SOL    HW231746  12.323  12.862   9.309
76658SOL     OW31747   4.288  10.809   0.950
76658SOL    HW131748   4.310  10.786   0.860
76658SOL    HW231749   4.214  10.753   0.972
76659SOL     OW31750   0.554   7.611   1.303
76659SOL    HW131751   0.487   7.670   1.339
76659SOL    HW231752   0.520   7.586   1.217
76660SOL     OW31753   2.540  10.882   7.818
76660SOL    HW131754   2.480  10.953   7.794
76660SOL    HW231755   2.621  10.927   7.841
76661SOL     OW31756   4.586   3.412   3.837
76661SOL    HW131757   4.548   3.496   3.861
76661SOL    HW231758   4.510   3.356   3.818
76662SOL     OW31759   8.051  12.445  12.756
76662SOL    HW131760   7.979  12.417  12.813
76662SOL    HW231761   8.091  12.364  12.726
76663SOL     OW31762   1.340   2.282  12.679
76663SOL    HW131763   1.270   2.230  12.641
76663SOL    HW231764   1.296   2.342  12.739
76664SOL     OW31765   2.465   3.245   5.347
76664SOL    HW131766   2.452   3.176   5.282
76664SOL    HW231767   2.388   3.238   5.404
76665SOL     OW31768  12.712   1.084   4.922
76665SOL    HW131769  12.792   1.136   4.912
76665SOL    HW231770  12.733   1.000   4.882
76666SOL     OW31771   7.662   1.777   4.759
76666SOL    HW131772   7.748   1.766   4.799
76666SOL    HW231773   7.677   1.834   4.684
76667SOL     OW31774   4.178  14.218  14.433
76667SOL    HW131775   4.159  14.221  14.339
76667SOL    HW231776   4.198  14.126  14.450
76668SOL     OW31777  11.423  12.165   0.307
76668SOL    HW131778  11.361  12.120   0.249
76668SOL    HW231779  11.507  12.160   0.261
76669SOL     OW31780  10.820  14.826  13.383
76669SOL    HW131781  10.815  14.832  13.478
76669SOL    HW231782  10.881   0.014  13.358
76670SOL     OW31783   0.697   8.199   9.808
76670SOL    HW131784   0.648   8.205   9.726
76670SOL    HW231785   0.682   8.283   9.852
76671SOL     OW31786   2.590   6.693   4.232
76671SOL    HW131787   2.567   6.602   4.250
76671SOL    HW231788   2.535   6.717   4.157
76672SOL     OW31789   4.819   0.188   2.242
76672SOL    HW131790   4.819   0.284   2.239
76672SOL    HW231791   4.802   0.167   2.334
76673SOL     OW31792  10.075   6.886   3.541
76673SOL    HW131793  10.089   6.967   3.493
76673SOL    HW231794  10.005   6.907   3.604
76674SOL     OW31795  13.858   5.638   3.060
76674SOL    HW131796  13.805   5.589   3.122
76674SOL    HW231797  13.934   5.581   3.043
76675SOL     OW31798   5.356  12.068   8.887
76675SOL    HW131799   5.286  12.068   8.822
76675SOL    HW231800   5.434  12.096   8.839
76676SOL     OW31801   2.678  13.624   6.037
76676SOL    HW131802   2.751  13.600   5.979
76676SOL    HW231803   2.699  13.713   6.065
76677SOL     OW31804   6.983   8.438   2.741
76677SOL    HW131805   6.916   8.474   2.800
76677SOL    HW231806   6.954   8.462   2.654
76678SOL     OW31807   2.116   4.995  12.796
76678SOL    HW131808   2.087   4.909  12.825
76678SOL    HW231809   2.120   5.048  12.875
76679SOL     OW31810   5.129   9.497  13.773
76679SOL    HW131811   5.070   9.422  13.778
76679SOL    HW231812   5.169   9.489  13.686
76680SOL     OW31813   1.785   7.455  13.801
76680SOL    HW131814   1.712   7.500  13.842
76680SOL    HW231815   1.763   7.362  13.808
76681SOL     OW31816   7.792   0.838   7.878
76681SOL    HW131817   7.706   0.858   7.916
76681SOL    HW231818   7.855   0.869   7.943
76682SOL     OW31819   4.245  12.590   9.446
76682SOL    HW131820   4.216  12.586   9.537
76682SOL    HW231821   4.192  12.660   9.407
76683SOL     OW31822   3.351  11.970   3.334
76683SOL    HW131823   3.413  11.900   3.355
76683SOL    HW231824   3.400  12.028   3.275
76684SOL     OW31825  12.384   9.196  11.080
76684SOL    HW131826  12.345   9.138  11.015
76684SOL    HW231827  12.414   9.272  11.030
76685SOL     OW31828   1.119   5.355   2.512
76685SOL    HW131829   1.063   5.282   2.487
76685SOL    HW231830   1.140   5.340   2.604
76686SOL     OW31831   1.428   6.108   5.727
76686SOL    HW131832   1.400   6.018   5.710
76686SOL    HW231833   1.432   6.114   5.823
76687SOL     OW31834  14.363   2.932   2.932
76687SOL    HW131835  14.318   3.014   2.950
76687SOL    HW231836  14.293   2.870   2.910
76688SOL     OW31837   9.387  10.658   2.298
76688SOL    HW131838   9.402  10.713   2.221
76688SOL    HW231839   9.334  10.585   2.265
76689SOL     OW31840   4.316  11.393  13.892
76689SOL    HW131841   4.387  11.393  13.827
76689SOL    HW231842   4.250  11.452  13.855
76690SOL     OW31843   2.056   4.476   7.382
76690SOL    HW131844   1.985   4.506   7.439
76690SOL    HW231845   2.128   4.456   7.441
76691SOL     OW31846   6.340   5.875   1.713
76691SOL    HW131847   6.330   5.905   1.804
76691SOL    HW231848   6.254   5.889   1.674
76692SOL     OW31849   2.689  13.615  14.231
76692SOL    HW131850   2.616  13.619  14.169
76692SOL    HW231851   2.690  13.525  14.261
76693SOL     OW31852   0.510   4.716   2.403
76693SOL    HW131853   0.509   4.773   2.326
76693SOL    HW231854   0.451   4.644   2.380
76694SOL     OW31855  11.624   4.453  10.732
76694SOL    HW131856  11.540   4.428  10.694
76694SOL    HW231857  11.637   4.544  10.703
76695SOL     OW31858   9.147   4.064   3.020
76695SOL    HW131859   9.198   4.086   2.943
76695SOL    HW231860   9.116   3.975   3.004
76696SOL     OW31861  13.132   8.872   7.708
76696SOL    HW131862  13.174   8.942   7.658
76696SOL    HW231863  13.148   8.895   7.799
76697SOL     OW31864   7.916  10.558   5.707
76697SOL    HW131865   7.858  10.492   5.668
76697SOL    HW231866   7.916  10.630   5.644
76698SOL     OW31867  10.859   5.633   5.845
76698SOL    HW131868  10.849   5.679   5.928
76698SOL    HW231869  10.789   5.567   5.846
76699SOL     OW31870   0.946   3.797   7.642
76699SOL    HW131871   0.860   3.803   7.601
76699SOL    HW231872   0.982   3.714   7.611
76700SOL     OW31873  12.449  10.239   5.718
76700SOL    HW131874  12.409  10.205   5.638
76700SOL    HW231875  12.390  10.308   5.747
76701SOL     OW31876  11.607  13.233   5.363
76701SOL    HW131877  11.525  13.189   5.385
76701SOL    HW231878  11.668  13.207   5.431
76702SOL     OW31879   9.190   0.081   1.784
76702SOL    HW131880   9.196   0.156   1.843
76702SOL    HW231881   9.134   0.019   1.831
76703SOL     OW31882   4.182   5.905  12.552
76703SOL    HW131883   4.274   5.932  12.556
76703SOL    HW231884   4.181   5.815  12.584
76704SOL     OW31885  10.591   3.039  13.523
76704SOL    HW131886  10.588   2.950  13.489
76704SOL    HW231887  10.684   3.061  13.523
76705SOL     OW31888   8.727   2.999   0.251
76705SOL    HW131889   8.729   2.910   0.286
76705SOL    HW231890   8.642   3.006   0.208
76706SOL     OW31891   9.954  14.380   4.090
76706SOL    HW131892  10.013  14.304   4.099
76706SOL    HW231893  10.008  14.446   4.047
76707SOL     OW31894   6.485   6.659   3.890
76707SOL    HW131895   6.435   6.578   3.876
76707SOL    HW231896   6.443   6.701   3.965
76708SOL     OW31897   0.064   4.975   0.392
76708SOL    HW131898   0.127   5.008   0.327
76708SOL    HW231899  14.864   4.964   0.342
76709SOL     OW31900   3.023  10.014  10.484
76709SOL    HW131901   3.011  10.081  10.417
76709SOL    HW231902   3.105  10.037  10.528
76710SOL     OW31903   8.921   5.064  11.656
76710SOL    HW131904   8.966   5.133  11.608
76710SOL    HW231905   8.965   4.984  11.631
76711SOL     OW31906  10.717   3.119   3.904
76711SOL    HW131907  10.689   3.201   3.947
76711SOL    HW231908  10.804   3.103   3.939
76712SOL     OW31909   8.026   1.791   5.080
76712SOL    HW131910   8.095   1.849   5.113
76712SOL    HW231911   7.991   1.747   5.157
76713SOL     OW31912   0.709   2.797   4.540
76713SOL    HW131913   0.707   2.791   4.445
76713SOL    HW231914   0.656   2.875   4.560
76714SOL     OW31915   9.674  11.261   4.224
76714SOL    HW131916   9.644  11.351   4.209
76714SOL    HW231917   9.694  11.228   4.137
76715SOL     OW31918   2.607   4.564  10.843
76715SOL    HW131919   2.550   4.542  10.769
76715SOL    HW231920   2.663   4.487  10.855
76716SOL     OW31921   2.621  14.574   9.426
76716SOL    HW131922   2.668  14.559   9.344
76716SOL    HW231923   2.534  14.535   9.412
76717SOL     OW31924  13.167   6.860   7.649
76717SOL    HW131925  13.224   6.809   7.592
76717SOL    HW231926  13.079   6.825   7.633
76718SOL     OW31927   4.175   4.893   6.521
76718SOL    HW131928   4.190   4.801   6.543
76718SOL    HW231929   4.147   4.891   6.430
76719SOL     OW31930   8.218  12.926   2.810
76719SOL    HW131931   8.283  12.987   2.844
76719SOL    HW231932   8.261  12.884   2.736
76720SOL     OW31933   7.947   7.769  10.518
76720SOL    HW131934   7.989   7.708  10.458
76720SOL    HW231935   8.002   7.767  10.596
76721SOL     OW31936   9.673   2.869   3.627
76721SOL    HW131937   9.727   2.829   3.559
76721SOL    HW231938   9.713   2.955   3.642
76722SOL     OW31939   9.073  11.446   3.625
76722SOL    HW131940   9.140  11.466   3.560
76722SOL    HW231941   9.056  11.352   3.613
76723SOL     OW31942   9.797   3.733   1.309
76723SOL    HW131943   9.731   3.692   1.254
76723SOL    HW231944   9.750   3.764   1.386
76724SOL     OW31945  10.303  12.002  13.901
76724SOL    HW131946  10.293  11.982  13.808
76724SOL    HW231947  10.246  12.077  13.916
76725SOL     OW31948   0.170   7.574   1.968
76725SOL    HW131949   0.193   7.517   1.895
76725SOL    HW231950   0.210   7.658   1.947
76726SOL     OW31951   5.118   8.058   1.237
76726SOL    HW131952   5.161   7.977   1.208
76726SOL    HW231953   5.184   8.126   1.225
76727SOL     OW31954   9.195  11.947   2.142
76727SOL    HW131955   9.149  11.866   2.121
76727SOL    HW231956   9.288  11.924   2.139
76728SOL     OW31957  14.618   2.729   4.353
76728SOL    HW131958  14.602   2.752   4.261
76728SOL    HW231959  14.533   2.697   4.385
76729SOL     OW31960  10.682  13.335  10.739
76729SOL    HW131961  10.649  13.257  10.783
76729SOL    HW231962  10.615  13.402  10.755
76730SOL     OW31963   5.378  11.581   1.564
76730SOL    HW131964   5.317  11.642   1.523
76730SOL    HW231965   5.453  11.636   1.588
76731SOL     OW31966  13.686   7.213  14.399
76731SOL    HW131967  13.662   7.121  14.402
76731SOL    HW231968  13.685   7.235  14.306
76732SOL     OW31969  12.608   5.881   9.732
76732SOL    HW131970  12.703   5.892   9.729
76732SOL    HW231971  12.588   5.828   9.655
76733SOL     OW31972   5.392   0.729   5.746
76733SOL    HW131973   5.322   0.695   5.802
76733SOL    HW231974   5.410   0.658   5.684
76734SOL     OW31975   1.513  11.108   5.888
76734SOL    HW131976   1.536  11.200   5.904
76734SOL    HW231977   1.426  11.098   5.925
76735SOL     OW31978   0.880  13.878   0.639
76735SOL    HW131979   0.804  13.826   0.663
76735SOL    HW231980   0.955  13.827   0.672
76736SOL     OW31981  12.453   1.440  10.112
76736SOL    HW131982  12.374   1.413  10.159
76736SOL    HW231983  12.421   1.464  10.024
76737SOL     OW31984  13.442   6.981  14.880
76737SOL    HW131985  13.420   6.895  14.844
76737SOL    HW231986  13.510   7.015  14.822
76738SOL     OW31987   3.915   4.720   0.017
76738SOL    HW131988   3.970   4.742   0.092
76738SOL    HW231989   3.931   4.627   0.002
76739SOL     OW31990  10.273   1.202  13.769
76739SOL    HW131991  10.268   1.197  13.674
76739SOL    HW231992  10.255   1.293  13.790
76740SOL     OW31993  10.278   6.237  13.880
76740SOL    HW131994  10.353   6.275  13.833
76740SOL    HW231995  10.253   6.305  13.942
76741SOL     OW31996   3.055  14.721   5.641
76741SOL    HW131997   3.125  14.672   5.684
76741SOL    HW231998   2.997  14.748   5.712
76742SOL     OW31999   8.479   8.388   6.706
76742SOL    HW132000   8.518   8.385   6.618
76742SOL    HW232001   8.531   8.326   6.757
76743SOL     OW32002   9.740  12.465   8.473
76743SOL    HW132003   9.836  12.465   8.475
76743SOL    HW232004   9.718  12.427   8.388
76744SOL     OW32005   8.922   1.459   1.469
76744SOL    HW132006   8.862   1.527   1.440
76744SOL    HW232007   8.867   1.398   1.519
76745SOL     OW32008  12.790   5.677   2.514
76745SOL    HW132009  12.862   5.739   2.517
76745SOL    HW232010  12.813   5.616   2.443
76746SOL     OW32011   5.126  10.155   3.122
76746SOL    HW132012   5.093  10.245   3.115
76746SOL    HW232013   5.209  10.156   3.075
76747SOL     OW32014   6.985  11.994   7.848
76747SOL    HW132015   6.963  11.912   7.804
76747SOL    HW232016   6.947  12.062   7.791
76748SOL     OW32017   1.949  12.825   7.896
76748SOL    HW132018   1.923  12.911   7.864
76748SOL    HW232019   1.921  12.765   7.827
76749SOL     OW32020   3.530   3.023   5.364
76749SOL    HW132021   3.544   2.960   5.293
76749SOL    HW232022   3.616   3.032   5.405
76750SOL     OW32023   6.001   4.459   7.771
76750SOL    HW132024   5.998   4.382   7.828
76750SOL    HW232025   5.912   4.494   7.772
76751SOL     OW32026   1.161   6.819  11.563
76751SOL    HW132027   1.237   6.821  11.621
76751SOL    HW232028   1.163   6.905  11.519
76752SOL     OW32029   6.917  11.548   5.607
76752SOL    HW132030   6.965  11.471   5.640
76752SOL    HW232031   6.969  11.578   5.533
76753SOL     OW32032  10.227  13.796  14.551
76753SOL    HW132033  10.185  13.854  14.488
76753SOL    HW232034  10.216  13.708  14.514
76754SOL     OW32035   1.311   9.249  11.841
76754SOL    HW132036   1.335   9.211  11.925
76754SOL    HW232037   1.334   9.341  11.849
76755SOL     OW32038  12.684   1.506   1.370
76755SOL    HW132039  12.606   1.454   1.351
76755SOL    HW232040  12.723   1.523   1.284
76756SOL     OW32041   1.034   9.494  12.331
76756SOL    HW132042   1.087   9.473  12.255
76756SOL    HW232043   1.090   9.472  12.406
76757SOL     OW32044  11.249  10.441  12.961
76757SOL    HW132045  11.281  10.429  12.872
76757SOL    HW232046  11.318  10.404  13.016
76758SOL     OW32047   6.883   8.350   6.896
76758SOL    HW132048   6.932   8.372   6.975
76758SOL    HW232049   6.795   8.329   6.926
76759SOL     OW32050   1.919   1.438   3.119
76759SOL    HW132051   1.859   1.371   3.085
76759SOL    HW232052   1.941   1.491   3.043
76760SOL     OW32053   9.329   8.489   1.246
76760SOL    HW132054   9.272   8.420   1.279
76760SOL    HW232055   9.278   8.533   1.180
76761SOL     OW32056  13.545   2.725   3.558
76761SOL    HW132057  13.513   2.661   3.622
76761SOL    HW232058  13.468   2.774   3.532
76762SOL     OW32059   9.556   2.090   0.478
76762SOL    HW132060   9.496   2.066   0.407
76762SOL    HW232061   9.513   2.163   0.522
76763SOL     OW32062   2.585   8.664   3.578
76763SOL    HW132063   2.599   8.730   3.645
76763SOL    HW232064   2.490   8.655   3.572
76764SOL     OW32065   2.250   6.446   3.032
76764SOL    HW132066   2.160   6.455   3.063
76764SOL    HW232067   2.261   6.351   3.020
76765SOL     OW32068   4.764   1.993  14.416
76765SOL    HW132069   4.668   2.001  14.416
76765SOL    HW232070   4.794   2.062  14.358
76766SOL     OW32071   6.703   9.015   7.036
76766SOL    HW132072   6.677   8.969   7.115
76766SOL    HW232073   6.751   9.092   7.068
76767SOL     OW32074   9.361  12.968  12.234
76767SOL    HW132075   9.339  12.896  12.293
76767SOL    HW232076   9.279  13.016  12.224
76768SOL     OW32077   8.202  13.375   5.717
76768SOL    HW132078   8.150  13.421   5.651
76768SOL    HW232079   8.141  13.354   5.787
76769SOL     OW32080   7.077   1.480  11.449
76769SOL    HW132081   7.171   1.494  11.454
76769SOL    HW232082   7.052   1.450  11.537
76770SOL     OW32083  12.679   7.978  14.781
76770SOL    HW132084  12.625   8.053  14.756
76770SOL    HW232085  12.621   7.925  14.837
76771SOL     OW32086  14.792   6.007   8.462
76771SOL    HW132087  14.697   5.997   8.455
76771SOL    HW232088  14.818   6.047   8.379
76772SOL     OW32089   2.249   9.715  11.758
76772SOL    HW132090   2.335   9.728  11.798
76772SOL    HW232091   2.266   9.716  11.664
76773SOL     OW32092  12.527  11.317   1.480
76773SOL    HW132093  12.462  11.386   1.495
76773SOL    HW232094  12.499  11.244   1.534
76774SOL     OW32095   5.860   8.860   4.471
76774SOL    HW132096   5.790   8.879   4.534
76774SOL    HW232097   5.841   8.772   4.439
76775SOL     OW32098   1.601   2.255   0.817
76775SOL    HW132099   1.596   2.296   0.730
76775SOL    HW232100   1.568   2.166   0.803
76776SOL     OW32101  14.692   8.017  14.842
76776SOL    HW132102  14.683   7.927  14.872
76776SOL    HW232103  14.722   8.009  14.751
76777SOL     OW32104   2.912   4.235   2.831
76777SOL    HW132105   2.843   4.277   2.882
76777SOL    HW232106   2.924   4.291   2.755
76778SOL     OW32107   8.568  10.748  13.643
76778SOL    HW132108   8.514  10.827  13.645
76778SOL    HW232109   8.633  10.765  13.575
76779SOL     OW32110  13.144  13.529  13.070
76779SOL    HW132111  13.182  13.571  12.993
76779SOL    HW232112  13.073  13.587  13.097
76780SOL     OW32113  10.503  10.714   4.833
76780SOL    HW132114  10.494  10.785   4.897
76780SOL    HW232115  10.451  10.642   4.869
76781SOL     OW32116   8.297   6.960   9.788
76781SOL    HW132117   8.298   6.958   9.883
76781SOL    HW232118   8.254   6.878   9.762
76782SOL     OW32119  11.502   0.085   5.698
76782SOL    HW132120  11.485   0.177   5.716
76782SOL    HW232121  11.565   0.058   5.766
76783SOL     OW32122   8.294   4.470  14.484
76783SOL    HW132123   8.359   4.539  14.472
76783SOL    HW232124   8.217   4.515  14.519
76784SOL     OW32125   2.247   7.541   0.337
76784SOL    HW132126   2.214   7.622   0.297
76784SOL    HW232127   2.335   7.563   0.367
76785SOL     OW32128   5.626  14.438   2.687
76785SOL    HW132129   5.567  14.385   2.742
76785SOL    HW232130   5.585  14.439   2.601
76786SOL     OW32131  12.136   8.832   8.466
76786SOL    HW132132  12.120   8.750   8.419
76786SOL    HW232133  12.059   8.886   8.447
76787SOL     OW32134   8.971  12.041   0.271
76787SOL    HW132135   9.015  11.969   0.316
76787SOL    HW232136   8.934  12.002   0.192
76788SOL     OW32137   6.581  11.907   7.998
76788SOL    HW132138   6.622  11.978   8.046
76788SOL    HW232139   6.516  11.949   7.941
76789SOL     OW32140  10.466  12.363  13.738
76789SOL    HW132141  10.427  12.450  13.746
76789SOL    HW232142  10.394  12.307  13.711
76790SOL     OW32143   8.889   4.636   7.817
76790SOL    HW132144   8.917   4.713   7.767
76790SOL    HW232145   8.905   4.562   7.759
76791SOL     OW32146   3.984   4.449   0.019
76791SOL    HW132147   3.890   4.433   0.016
76791SOL    HW232148   4.014   4.404   0.098
76792SOL     OW32149   5.715   4.692   6.724
76792SOL    HW132150   5.686   4.766   6.671
76792SOL    HW232151   5.801   4.718   6.757
76793SOL     OW32152  13.843  12.137   4.324
76793SOL    HW132153  13.922  12.154   4.273
76793SOL    HW232154  13.773  12.183   4.277
76794SOL     OW32155   2.560   0.726   8.439
76794SOL    HW132156   2.531   0.816   8.452
76794SOL    HW232157   2.612   0.705   8.516
76795SOL     OW32158  14.667   5.496   6.395
76795SOL    HW132159  14.599   5.433   6.375
76795SOL    HW232160  14.645   5.573   6.343
76796SOL     OW32161  11.026  12.356  14.141
76796SOL    HW132162  11.003  12.358  14.234
76796SOL    HW232163  11.062  12.268  14.127
76797SOL     OW32164  14.846   9.072   8.598
76797SOL    HW132165   0.052   9.111   8.600
76797SOL    HW232166  14.807   9.099   8.682
76798SOL     OW32167   5.143   7.110  10.527
76798SOL    HW132168   5.113   7.024  10.497
76798SOL    HW232169   5.118   7.113  10.619
76799SOL     OW32170   7.913   5.428   0.117
76799SOL    HW132171   7.829   5.459   0.082
76799SOL    HW232172   7.939   5.357   0.058
76800SOL     OW32173   7.698   9.362   3.899
76800SOL    HW132174   7.723   9.314   3.978
76800SOL    HW232175   7.776   9.413   3.876
76801SOL     OW32176  12.976   3.935   1.599
76801SOL    HW132177  13.036   3.890   1.538
76801SOL    HW232178  12.891   3.934   1.555
76802SOL     OW32179   9.152   9.643   6.301
76802SOL    HW132180   9.077   9.696   6.274
76802SOL    HW232181   9.135   9.622   6.392
76803SOL     OW32182  12.787  13.836   7.158
76803SOL    HW132183  12.793  13.919   7.111
76803SOL    HW232184  12.695  13.828   7.182
76804SOL     OW32185   9.088   6.050  14.529
76804SOL    HW132186   9.078   5.957  14.508
76804SOL    HW232187   9.018   6.068  14.593
76805SOL     OW32188   0.148   4.689   5.140
76805SOL    HW132189   0.216   4.628   5.168
76805SOL    HW232190   0.123   4.736   5.220
76806SOL     OW32191  12.904   2.236   4.152
76806SOL    HW132192  12.862   2.310   4.107
76806SOL    HW232193  12.952   2.276   4.224
76807SOL     OW32194   2.651   2.296   3.572
76807SOL    HW132195   2.602   2.333   3.646
76807SOL    HW232196   2.723   2.248   3.613
76808SOL     OW32197   1.568   4.055   0.280
76808SOL    HW132198   1.502   4.119   0.306
76808SOL    HW232199   1.538   3.973   0.318
76809SOL     OW32200  11.116   4.596   0.592
76809SOL    HW132201  11.031   4.637   0.573
76809SOL    HW232202  11.107   4.561   0.680
76810SOL     OW32203   7.401   5.480   7.482
76810SOL    HW132204   7.401   5.576   7.477
76810SOL    HW232205   7.359   5.452   7.400
76811SOL     OW32206   1.596  11.540   9.330
76811SOL    HW132207   1.511  11.502   9.308
76811SOL    HW232208   1.656  11.504   9.264
76812SOL     OW32209   7.826   9.395   0.420
76812SOL    HW132210   7.896   9.419   0.481
76812SOL    HW232211   7.768   9.471   0.418
76813SOL     OW32212   0.177  12.838  12.143
76813SOL    HW132213   0.127  12.901  12.196
76813SOL    HW232214   0.199  12.768  12.204
76814SOL     OW32215   2.777  10.421   4.128
76814SOL    HW132216   2.742  10.339   4.162
76814SOL    HW232217   2.722  10.489   4.167
76815SOL     OW32218  14.536   0.615   4.824
76815SOL    HW132219  14.560   0.523   4.830
76815SOL    HW232220  14.446   0.619   4.858
76816SOL     OW32221   4.110   5.206   5.941
76816SOL    HW132222   4.019   5.176   5.950
76816SOL    HW232223   4.107   5.299   5.964
76817SOL     OW32224   1.014  12.176   7.610
76817SOL    HW132225   1.032  12.265   7.643
76817SOL    HW232226   0.935  12.186   7.558
76818SOL     OW32227   4.291  11.046   2.951
76818SOL    HW132228   4.236  11.102   3.006
76818SOL    HW232229   4.237  11.029   2.873
76819SOL     OW32230   8.802   7.734  12.889
76819SOL    HW132231   8.745   7.659  12.873
76819SOL    HW232232   8.842   7.715  12.974
76820SOL     OW32233  14.534   9.270   9.393
76820SOL    HW132234  14.448   9.238   9.420
76820SOL    HW232235  14.516   9.356   9.355
76821SOL     OW32236   5.719  10.331  10.762
76821SOL    HW132237   5.753  10.255  10.809
76821SOL    HW232238   5.627  10.337  10.787
76822SOL     OW32239   4.720   6.516   7.182
76822SOL    HW132240   4.806   6.481   7.160
76822SOL    HW232241   4.678   6.447   7.233
76823SOL     OW32242   9.961  10.716  10.450
76823SOL    HW132243   9.928  10.641  10.401
76823SOL    HW232244   9.963  10.687  10.541
76824SOL     OW32245   2.493   4.935   8.957
76824SOL    HW132246   2.499   4.974   9.044
76824SOL    HW232247   2.584   4.926   8.928
76825SOL     OW32248   9.855  12.092   1.454
76825SOL    HW132249   9.925  12.039   1.417
76825SOL    HW232250   9.828  12.150   1.383
76826SOL     OW32251  13.277  14.015   2.842
76826SOL    HW132252  13.207  14.073   2.809
76826SOL    HW232253  13.233  13.933   2.863
76827SOL     OW32254   5.846  12.193   8.760
76827SOL    HW132255   5.886  12.264   8.810
76827SOL    HW232256   5.920  12.148   8.718
76828SOL     OW32257   1.009  14.864   0.288
76828SOL    HW132258   0.987   0.036   0.212
76828SOL    HW232259   0.947  14.792   0.286
76829SOL     OW32260  10.942   7.980   3.424
76829SOL    HW132261  10.952   7.961   3.517
76829SOL    HW232262  10.911   8.071   3.421
76830SOL     OW32263   5.416   6.021  11.890
76830SOL    HW132264   5.361   6.088  11.849
76830SOL    HW232265   5.355   5.955  11.922
76831SOL     OW32266   8.662   6.794   2.048
76831SOL    HW132267   8.608   6.873   2.050
76831SOL    HW232268   8.626   6.738   2.118
76832SOL     OW32269   7.458   0.117   4.095
76832SOL    HW132270   7.363   0.129   4.099
76832SOL    HW232271   7.475   0.089   4.004
76833SOL     OW32272   3.420   5.669  12.604
76833SOL    HW132273   3.492   5.606  12.606
76833SOL    HW232274   3.341   5.615  12.596
76834SOL     OW32275   9.303   3.114   6.993
76834SOL    HW132276   9.338   3.046   7.052
76834SOL    HW232277   9.337   3.196   7.029
76835SOL     OW32278  11.088   3.648   9.485
76835SOL    HW132279  11.047   3.720   9.438
76835SOL    HW232280  11.066   3.570   9.434
76836SOL     OW32281  11.537   4.511   2.720
76836SOL    HW132282  11.519   4.433   2.773
76836SOL    HW232283  11.627   4.500   2.690
76837SOL     OW32284   9.583   3.524   8.390
76837SOL    HW132285   9.551   3.597   8.443
76837SOL    HW232286   9.602   3.564   8.305
76838SOL     OW32287   4.656   7.076   1.623
76838SOL    HW132288   4.664   7.024   1.543
76838SOL    HW232289   4.597   7.026   1.678
76839SOL     OW32290   6.741  10.783   8.652
76839SOL    HW132291   6.649  10.770   8.676
76839SOL    HW232292   6.758  10.874   8.674
76840SOL     OW32293  12.400   8.985  11.713
76840SOL    HW132294  12.413   8.891  11.722
76840SOL    HW232295  12.442   9.023  11.791
76841SOL     OW32296   0.685   4.613  12.925
76841SOL    HW132297   0.682   4.708  12.939
76841SOL    HW232298   0.609   4.580  12.972
76842SOL     OW32299  14.027   0.127   8.523
76842SOL    HW132300  14.018   0.096   8.433
76842SOL    HW232301  14.056   0.049   8.572
76843SOL     OW32302   0.066  12.556   5.126
76843SOL    HW132303   0.117  12.637   5.133
76843SOL    HW232304  14.856  12.584   5.135
76844SOL     OW32305   9.894   6.858   2.299
76844SOL    HW132306   9.851   6.903   2.226
76844SOL    HW232307   9.884   6.917   2.374
76845SOL     OW32308   0.476   6.458  13.534
76845SOL    HW132309   0.504   6.471  13.625
76845SOL    HW232310   0.431   6.539  13.511
76846SOL     OW32311   9.403   3.420   0.997
76846SOL    HW132312   9.397   3.331   0.963
76846SOL    HW232313   9.313   3.452   0.997
76847SOL     OW32314   7.172   6.295   5.293
76847SOL    HW132315   7.146   6.219   5.346
76847SOL    HW232316   7.259   6.273   5.261
76848SOL     OW32317  11.929   3.331   1.027
76848SOL    HW132318  11.933   3.297   1.116
76848SOL    HW232319  11.869   3.273   0.981
76849SOL     OW32320   5.692   2.036   4.643
76849SOL    HW132321   5.623   2.049   4.708
76849SOL    HW232322   5.770   2.076   4.681
76850SOL     OW32323  11.755   6.159   0.259
76850SOL    HW132324  11.700   6.112   0.322
76850SOL    HW232325  11.795   6.089   0.207
76851SOL     OW32326   1.641   3.562   4.595
76851SOL    HW132327   1.617   3.471   4.612
76851SOL    HW232328   1.614   3.578   4.504
76852SOL     OW32329  14.793  11.434  11.313
76852SOL    HW132330  14.720  11.403  11.259
76852SOL    HW232331  14.871  11.397  11.271
76853SOL     OW32332   8.831   5.062  12.778
76853SOL    HW132333   8.842   5.111  12.697
76853SOL    HW232334   8.908   5.006  12.784
76854SOL     OW32335  11.000  12.720   2.026
76854SOL    HW132336  11.064  12.791   2.016
76854SOL    HW232337  10.986  12.713   2.121
76855SOL     OW32338  12.998   3.838   4.567
76855SOL    HW132339  12.903   3.830   4.555
76855SOL    HW232340  13.035   3.766   4.515
76856SOL     OW32341  14.306   8.326  12.580
76856SOL    HW132342  14.283   8.252  12.524
76856SOL    HW232343  14.362   8.381  12.524
76857SOL     OW32344   7.625   2.656   3.908
76857SOL    HW132345   7.570   2.655   3.830
76857SOL    HW232346   7.714   2.643   3.876
76858SOL     OW32347   2.636  13.263   2.449
76858SOL    HW132348   2.547  13.233   2.469
76858SOL    HW232349   2.626  13.356   2.430
76859SOL     OW32350   9.388   2.053   4.749
76859SOL    HW132351   9.364   2.044   4.842
76859SOL    HW232352   9.306   2.076   4.706
76860SOL     OW32353   6.830   0.708   2.474
76860SOL    HW132354   6.868   0.624   2.499
76860SOL    HW232355   6.829   0.759   2.555
76861SOL     OW32356  13.752  13.906   0.905
76861SOL    HW132357  13.672  13.890   0.855
76861SOL    HW232358  13.750  14.000   0.923
76862SOL     OW32359   6.119   1.259   4.664
76862SOL    HW132360   6.033   1.263   4.706
76862SOL    HW232361   6.111   1.318   4.589
76863SOL     OW32362   9.294   6.244  13.000
76863SOL    HW132363   9.354   6.180  12.962
76863SOL    HW232364   9.331   6.329  12.975
76864SOL     OW32365  12.000   5.924  14.130
76864SOL    HW132366  12.007   6.001  14.074
76864SOL    HW232367  12.051   5.945  14.208
76865SOL     OW32368  12.286   8.659   9.056
76865SOL    HW132369  12.236   8.701   9.126
76865SOL    HW232370  12.301   8.569   9.088
76866SOL     OW32371  12.567  13.208   3.253
76866SOL    HW132372  12.526  13.220   3.339
76866SOL    HW232373  12.634  13.141   3.267
76867SOL     OW32374   6.947   2.686  14.421
76867SOL    HW132375   6.886   2.647  14.484
76867SOL    HW232376   7.034   2.664  14.455
76868SOL     OW32377   6.261   6.685  13.988
76868SOL    HW132378   6.348   6.719  13.967
76868SOL    HW232379   6.277   6.594  14.014
76869SOL     OW32380  14.843   1.234  11.840
76869SOL    HW132381  14.802   1.235  11.927
76869SOL    HW232382   0.051   1.205  11.856
76870SOL     OW32383   3.363  14.037   0.215
76870SOL    HW132384   3.378  13.949   0.248
76870SOL    HW232385   3.292  14.028   0.151
76871SOL     OW32386   4.545   9.270   2.316
76871SOL    HW132387   4.551   9.359   2.282
76871SOL    HW232388   4.557   9.213   2.240
76872SOL     OW32389   5.983   3.503   8.168
76872SOL    HW132390   5.989   3.500   8.263
76872SOL    HW232391   5.953   3.592   8.148
76873SOL     OW32392   5.872   4.165   8.169
76873SOL    HW132393   5.933   4.095   8.194
76873SOL    HW232394   5.873   4.226   8.242
76874SOL     OW32395  14.854   7.522  11.544
76874SOL    HW132396   0.010   7.477  11.620
76874SOL    HW232397  14.806   7.596  11.580
76875SOL     OW32398   4.261   9.601   9.302
76875SOL    HW132399   4.266   9.671   9.237
76875SOL    HW232400   4.315   9.632   9.375
76876SOL     OW32401   1.124   3.840  10.237
76876SOL    HW132402   1.207   3.836  10.189
76876SOL    HW232403   1.057   3.841  10.168
76877SOL     OW32404   0.641   2.161  11.778
76877SOL    HW132405   0.657   2.085  11.834
76877SOL    HW232406   0.615   2.230  11.839
76878SOL     OW32407  13.805   5.495   0.539
76878SOL    HW132408  13.899   5.512   0.551
76878SOL    HW232409  13.768   5.499   0.627
76879SOL     OW32410  10.020  11.176   1.174
76879SOL    HW132411  10.106  11.136   1.189
76879SOL    HW232412   9.978  11.174   1.260
76880SOL     OW32413  14.557   0.227   1.178
76880SOL    HW132414  14.597   0.313   1.172
76880SOL    HW232415  14.513   0.214   1.094
76881SOL     OW32416   5.836   9.825   6.528
76881SOL    HW132417   5.923   9.855   6.555
76881SOL    HW232418   5.810   9.886   6.459
76882SOL     OW32419   5.819   0.483   4.037
76882SOL    HW132420   5.892   0.541   4.015
76882SOL    HW232421   5.743   0.522   3.993
76883SOL     OW32422   1.108   2.631  11.572
76883SOL    HW132423   1.172   2.652  11.640
76883SOL    HW232424   1.064   2.714  11.554
76884SOL     OW32425   7.949   6.324   5.895
76884SOL    HW132426   8.012   6.252   5.891
76884SOL    HW232427   7.920   6.336   5.804
76885SOL     OW32428   6.893   4.221   3.578
76885SOL    HW132429   6.826   4.215   3.647
76885SOL    HW232430   6.972   4.186   3.618
76886SOL     OW32431   3.374   2.809  11.770
76886SOL    HW132432   3.403   2.887  11.817
76886SOL    HW232433   3.372   2.835  11.679
76887SOL     OW32434   4.332   2.799   1.940
76887SOL    HW132435   4.387   2.841   2.005
76887SOL    HW232436   4.334   2.706   1.963
76888SOL     OW32437   7.449   0.730   6.419
76888SOL    HW132438   7.385   0.725   6.490
76888SOL    HW232439   7.442   0.646   6.373
76889SOL     OW32440  12.136  12.304   7.438
76889SOL    HW132441  12.061  12.296   7.379
76889SOL    HW232442  12.099  12.340   7.519
76890SOL     OW32443   3.141   3.283   8.981
76890SOL    HW132444   3.163   3.368   9.018
76890SOL    HW232445   3.111   3.302   8.892
76891SOL     OW32446  13.864   1.757   8.032
76891SOL    HW132447  13.837   1.676   7.989
76891SOL    HW232448  13.789   1.782   8.086
76892SOL     OW32449   9.970   8.680  10.292
76892SOL    HW132450   9.902   8.693  10.225
76892SOL    HW232451   9.967   8.586  10.311
76893SOL     OW32452  10.162   0.600  11.273
76893SOL    HW132453  10.073   0.624  11.297
76893SOL    HW232454  10.163   0.504  11.276
76894SOL     OW32455   6.642   4.653   1.321
76894SOL    HW132456   6.580   4.657   1.249
76894SOL    HW232457   6.593   4.683   1.397
76895SOL     OW32458   8.352  12.113  10.720
76895SOL    HW132459   8.389  12.146  10.802
76895SOL    HW232460   8.402  12.159  10.652
76896SOL     OW32461  14.116  12.463   9.773
76896SOL    HW132462  14.051  12.408   9.729
76896SOL    HW232463  14.158  12.512   9.702
76897SOL     OW32464   2.785   3.656   1.871
76897SOL    HW132465   2.724   3.610   1.813
76897SOL    HW232466   2.806   3.592   1.939
76898SOL     OW32467  10.377   1.525   6.455
76898SOL    HW132468  10.447   1.488   6.510
76898SOL    HW232469  10.340   1.449   6.410
76899SOL     OW32470  12.223   6.751   4.185
76899SOL    HW132471  12.206   6.660   4.208
76899SOL    HW232472  12.167   6.768   4.109
76900SOL     OW32473   4.800   3.002   5.281
76900SOL    HW132474   4.853   3.075   5.314
76900SOL    HW232475   4.713   3.017   5.319
76901SOL     OW32476   8.086  13.360  11.858
76901SOL    HW132477   8.014  13.363  11.795
76901SOL    HW232478   8.090  13.448  11.895
76902SOL     OW32479   1.025   3.756   2.820
76902SOL    HW132480   0.974   3.829   2.784
76902SOL    HW232481   1.058   3.710   2.743
76903SOL     OW32482   9.133  13.069   0.081
76903SOL    HW132483   9.210  13.050   0.027
76903SOL    HW232484   9.068  13.005   0.054
76904SOL     OW32485   3.981   7.904  13.897
76904SOL    HW132486   3.900   7.860  13.874
76904SOL    HW232487   3.977   7.988  13.852
76905SOL     OW32488  12.970  13.788  13.359
76905SOL    HW132489  12.939  13.802  13.270
76905SOL    HW232490  13.014  13.703  13.356
76906SOL     OW32491  14.279   1.711   9.637
76906SOL    HW132492  14.184   1.706   9.630
76906SOL    HW232493  14.299   1.674   9.723
76907SOL     OW32494  13.447   2.040   1.194
76907SOL    HW132495  13.470   2.111   1.255
76907SOL    HW232496  13.456   1.960   1.247
76908SOL     OW32497  10.914  10.817   1.216
76908SOL    HW132498  10.937  10.859   1.134
76908SOL    HW232499  10.899  10.726   1.193
76909SOL     OW32500   6.873  10.348  11.363
76909SOL    HW132501   6.865  10.436  11.326
76909SOL    HW232502   6.783  10.314  11.363
76910SOL     OW32503   8.874   0.897   6.840
76910SOL    HW132504   8.864   0.846   6.920
76910SOL    HW232505   8.821   0.976   6.855
76911SOL     OW32506   2.111  12.061   0.888
76911SOL    HW132507   2.195  12.015   0.889
76911SOL    HW232508   2.134  12.154   0.892
76912SOL     OW32509   9.688  12.905   8.014
76912SOL    HW132510   9.738  12.880   8.092
76912SOL    HW232511   9.706  12.835   7.951
76913SOL     OW32512   9.820   0.266  11.131
76913SOL    HW132513   9.860   0.338  11.083
76913SOL    HW232514   9.744   0.305  11.174
76914SOL     OW32515   8.315   8.638   0.995
76914SOL    HW132516   8.272   8.712   0.953
76914SOL    HW232517   8.315   8.660   1.088
76915SOL     OW32518   7.044  14.159   1.271
76915SOL    HW132519   7.089  14.217   1.332
76915SOL    HW232520   7.059  14.198   1.185
76916SOL     OW32521   1.004  12.559  10.790
76916SOL    HW132522   0.931  12.497  10.799
76916SOL    HW232523   0.975  12.622  10.725
76917SOL     OW32524  11.012  10.928   1.492
76917SOL    HW132525  10.981  10.873   1.420
76917SOL    HW232526  10.942  10.992   1.505
76918SOL     OW32527  13.381   1.521   1.112
76918SOL    HW132528  13.450   1.555   1.055
76918SOL    HW232529  13.421   1.448   1.159
76919SOL     OW32530  14.860   0.913   4.507
76919SOL    HW132531   0.062   0.936   4.467
76919SOL    HW232532  14.802   0.985   4.485
76920SOL     OW32533   6.822   9.469   9.406
76920SOL    HW132534   6.900   9.430   9.367
76920SOL    HW232535   6.784   9.399   9.460
76921SOL     OW32536  11.555   5.885   1.665
76921SOL    HW132537  11.580   5.909   1.575
76921SOL    HW232538  11.638   5.862   1.708
76922SOL     OW32539   0.364   8.755   1.112
76922SOL    HW132540   0.283   8.708   1.093
76922SOL    HW232541   0.337   8.845   1.128
76923SOL     OW32542  10.879  13.662   1.586
76923SOL    HW132543  10.842  13.721   1.652
76923SOL    HW232544  10.947  13.713   1.543
76924SOL     OW32545   6.311   2.630   6.350
76924SOL    HW132546   6.307   2.628   6.446
76924SOL    HW232547   6.227   2.668   6.324
76925SOL     OW32548   2.466   4.959  14.182
76925SOL    HW132549   2.525   4.969  14.256
76925SOL    HW232550   2.380   4.979  14.217
76926SOL     OW32551   1.065  13.649   1.220
76926SOL    HW132552   1.093  13.707   1.291
76926SOL    HW232553   0.992  13.600   1.258
76927SOL     OW32554  13.317   5.159   1.509
76927SOL    HW132555  13.389   5.122   1.560
76927SOL    HW232556  13.258   5.085   1.493
76928SOL     OW32557   1.494   0.821   4.787
76928SOL    HW132558   1.578   0.865   4.799
76928SOL    HW232559   1.510   0.731   4.816
76929SOL     OW32560  10.345   0.335   3.540
76929SOL    HW132561  10.347   0.410   3.600
76929SOL    HW232562  10.350   0.258   3.597
76930SOL     OW32563  11.005   8.376  13.670
76930SOL    HW132564  10.978   8.393  13.760
76930SOL    HW232565  10.990   8.282  13.658
76931SOL     OW32566   7.088  13.575   5.130
76931SOL    HW132567   7.003  13.611   5.156
76931SOL    HW232568   7.066  13.502   5.072
76932SOL     OW32569  10.492  12.079  10.998
76932SOL    HW132570  10.439  12.122  10.931
76932SOL    HW232571  10.550  12.148  11.031
76933SOL     OW32572  11.898   8.415   5.977
76933SOL    HW132573  11.958   8.462   6.036
76933SOL    HW232574  11.900   8.465   5.896
76934SOL     OW32575   5.138   4.137   7.833
76934SOL    HW132576   5.110   4.047   7.814
76934SOL    HW232577   5.230   4.139   7.804
76935SOL     OW32578  11.583  11.596   0.978
76935SOL    HW132579  11.579  11.527   1.044
76935SOL    HW232580  11.555  11.675   1.025
76936SOL     OW32581   9.024  10.590   5.273
76936SOL    HW132582   8.987  10.632   5.351
76936SOL    HW232583   9.100  10.542   5.307
76937SOL     OW32584  12.802   9.265   0.659
76937SOL    HW132585  12.780   9.194   0.598
76937SOL    HW232586  12.758   9.341   0.622
76938SOL     OW32587  11.567   8.051  13.798
76938SOL    HW132588  11.627   8.122  13.771
76938SOL    HW232589  11.499   8.051  13.730
76939SOL     OW32590   1.584   6.039  12.614
76939SOL    HW132591   1.572   6.111  12.552
76939SOL    HW232592   1.667   5.999  12.588
76940SOL     OW32593   8.736  14.223  14.644
76940SOL    HW132594   8.779  14.282  14.582
76940SOL    HW232595   8.688  14.281  14.703
76941SOL     OW32596   3.780   3.300   2.024
76941SOL    HW132597   3.782   3.395   2.031
76941SOL    HW232598   3.819   3.281   1.939
76942SOL     OW32599   1.940   4.561   2.635
76942SOL    HW132600   2.021   4.564   2.686
76942SOL    HW232601   1.876   4.608   2.689
76943SOL     OW32602   3.092   0.204  14.484
76943SOL    HW132603   3.094   0.267  14.556
76943SOL    HW232604   3.073   0.257  14.406
76944SOL     OW32605  10.509   0.255   9.298
76944SOL    HW132606  10.479   0.345   9.302
76944SOL    HW232607  10.445   0.211   9.241
76945SOL     OW32608  11.912   2.017  13.475
76945SOL    HW132609  12.004   1.996  13.457
76945SOL    HW232610  11.864   1.973  13.405
76946SOL     OW32611   5.815   6.961   5.903
76946SOL    HW132612   5.899   6.920   5.926
76946SOL    HW232613   5.817   7.046   5.946
76947SOL     OW32614   7.711   2.232  12.222
76947SOL    HW132615   7.710   2.213  12.316
76947SOL    HW232616   7.797   2.202  12.193
76948SOL     OW32617  13.976   6.023  10.398
76948SOL    HW132618  13.938   6.024  10.486
76948SOL    HW232619  14.060   5.979  10.410
76949SOL     OW32620   6.701  12.663   0.727
76949SOL    HW132621   6.793  12.660   0.703
76949SOL    HW232622   6.701  12.693   0.818
76950SOL     OW32623   9.605  13.883  13.895
76950SOL    HW132624   9.634  13.847  13.812
76950SOL    HW232625   9.511  13.867  13.897
76951SOL     OW32626  13.377   2.014   7.797
76951SOL    HW132627  13.390   2.005   7.703
76951SOL    HW232628  13.438   2.084   7.823
76952SOL     OW32629   7.189   1.461   0.845
76952SOL    HW132630   7.135   1.530   0.882
76952SOL    HW232631   7.188   1.391   0.910
76953SOL     OW32632  13.732  12.048  11.222
76953SOL    HW132633  13.796  11.989  11.262
76953SOL    HW232634  13.679  12.079  11.295
76954SOL     OW32635  11.579   5.774  14.448
76954SOL    HW132636  11.522   5.833  14.497
76954SOL    HW232637  11.667   5.810  14.460
76955SOL     OW32638  13.234  12.622  12.035
76955SOL    HW132639  13.319  12.602  11.996
76955SOL    HW232640  13.232  12.571  12.116
76956SOL     OW32641   3.363   9.136   5.919
76956SOL    HW132642   3.363   9.177   6.006
76956SOL    HW232643   3.403   9.050   5.934
76957SOL     OW32644  14.580   1.059   0.804
76957SOL    HW132645  14.545   0.984   0.755
76957SOL    HW232646  14.674   1.046   0.806
76958SOL     OW32647   7.710  10.480   9.945
76958SOL    HW132648   7.788  10.492   9.999
76958SOL    HW232649   7.639  10.469  10.008
76959SOL     OW32650   4.868   1.383   6.265
76959SOL    HW132651   4.792   1.389   6.322
76959SOL    HW232652   4.904   1.295   6.282
76960SOL     OW32653  10.838   0.021   0.697
76960SOL    HW132654  10.778   0.025   0.622
76960SOL    HW232655  10.860  14.809   0.704
76961SOL     OW32656  10.714   2.040   3.203
76961SOL    HW132657  10.666   1.999   3.131
76961SOL    HW232658  10.697   1.984   3.279
76962SOL     OW32659  13.676   0.180   8.753
76962SOL    HW132660  13.594   0.155   8.795
76962SOL    HW232661  13.653   0.193   8.661
76963SOL     OW32662   7.948  10.564   1.932
76963SOL    HW132663   7.861  10.525   1.921
76963SOL    HW232664   7.960  10.566   2.027
76964SOL     OW32665  14.047   6.173   3.039
76964SOL    HW132666  14.055   6.196   2.946
76964SOL    HW232667  13.992   6.094   3.039
76965SOL     OW32668   5.718   7.246   6.712
76965SOL    HW132669   5.718   7.158   6.748
76965SOL    HW232670   5.788   7.246   6.647
76966SOL     OW32671   4.476   2.071   6.981
76966SOL    HW132672   4.533   2.082   7.057
76966SOL    HW232673   4.486   2.153   6.931
76967SOL     OW32674   0.436   7.688  12.940
76967SOL    HW132675   0.389   7.620  12.891
76967SOL    HW232676   0.393   7.770  12.915
76968SOL     OW32677   0.951   8.926   5.832
76968SOL    HW132678   0.867   8.960   5.863
76968SOL    HW232679   1.005   9.004   5.819
76969SOL     OW32680   4.544   4.503   5.935
76969SOL    HW132681   4.619   4.548   5.973
76969SOL    HW232682   4.491   4.573   5.897
76970SOL     OW32683   9.663   1.897   7.283
76970SOL    HW132684   9.722   1.932   7.216
76970SOL    HW232685   9.667   1.802   7.272
76971SOL     OW32686   6.402  13.732  13.412
76971SOL    HW132687   6.455  13.672  13.359
76971SOL    HW232688   6.332  13.676  13.448
76972SOL     OW32689   4.672   2.434   9.544
76972SOL    HW132690   4.577   2.438   9.543
76972SOL    HW232691   4.698   2.464   9.457
76973SOL     OW32692   3.689   5.677  12.090
76973SOL    HW132693   3.598   5.650  12.079
76973SOL    HW232694   3.696   5.700  12.183
76974SOL     OW32695   3.109  12.373  12.116
76974SOL    HW132696   3.130  12.455  12.071
76974SOL    HW232697   3.194  12.339  12.145
76975SOL     OW32698   0.777  12.011   1.190
76975SOL    HW132699   0.748  11.977   1.106
76975SOL    HW232700   0.839  12.081   1.168
76976SOL     OW32701  10.907   0.701  12.522
76976SOL    HW132702  10.876   0.707  12.432
76976SOL    HW232703  11.002   0.698  12.515
76977SOL     OW32704   9.716   4.670   8.062
76977SOL    HW132705   9.733   4.735   8.130
76977SOL    HW232706   9.802   4.647   8.028
76978SOL     OW32707  13.870   1.294   8.383
76978SOL    HW132708  13.846   1.355   8.454
76978SOL    HW232709  13.879   1.209   8.427
76979SOL     OW32710  13.757   1.234   9.454
76979SOL    HW132711  13.677   1.285   9.439
76979SOL    HW232712  13.730   1.165   9.514
76980SOL     OW32713  14.350  10.438  14.417
76980SOL    HW132714  14.329  10.355  14.461
76980SOL    HW232715  14.277  10.496  14.439
76981SOL     OW32716  12.912   6.602   7.991
76981SOL    HW132717  12.900   6.572   7.901
76981SOL    HW232718  12.943   6.692   7.983
76982SOL     OW32719   7.000   5.715   8.147
76982SOL    HW132720   6.993   5.807   8.121
76982SOL    HW232721   6.913   5.693   8.181
76983SOL     OW32722  11.123   8.907  12.401
76983SOL    HW132723  11.203   8.855  12.397
76983SOL    HW232724  11.065   8.859  12.460
76984SOL     OW32725   3.217   0.148  12.573
76984SOL    HW132726   3.256   0.229  12.606
76984SOL    HW232727   3.271   0.078  12.611
76985SOL     OW32728  10.971  10.047   1.070
76985SOL    HW132729  10.916   9.977   1.106
76985SOL    HW232730  11.061  10.019   1.088
76986SOL     OW32731   5.744   7.150  11.534
76986SOL    HW132732   5.740   7.237  11.494
76986SOL    HW232733   5.819   7.155  11.594
76987SOL     OW32734   1.968   8.054   9.605
76987SOL    HW132735   1.962   8.127   9.667
76987SOL    HW232736   2.061   8.044   9.588
76988SOL     OW32737   3.750   5.275   3.660
76988SOL    HW132738   3.740   5.239   3.572
76988SOL    HW232739   3.689   5.225   3.714
76989SOL     OW32740   1.543   4.394   6.033
76989SOL    HW132741   1.613   4.405   5.968
76989SOL    HW232742   1.490   4.321   6.000
76990SOL     OW32743   5.204   1.439   9.613
76990SOL    HW132744   5.287   1.486   9.612
76990SOL    HW232745   5.191   1.416   9.705
76991SOL     OW32746   6.484   2.256   2.306
76991SOL    HW132747   6.402   2.233   2.262
76991SOL    HW232748   6.538   2.178   2.298
76992SOL     OW32749   1.435   4.009  11.222
76992SOL    HW132750   1.381   4.075  11.179
76992SOL    HW232751   1.412   3.927  11.179
76993SOL     OW32752  14.795   5.844  10.326
76993SOL    HW132753  14.807   5.932  10.290
76993SOL    HW232754  14.875   5.826  10.374
76994SOL     OW32755   9.715  11.814   2.103
76994SOL    HW132756   9.789  11.840   2.158
76994SOL    HW232757   9.749  11.745   2.047
76995SOL     OW32758   7.752   9.265   9.076
76995SOL    HW132759   7.840   9.244   9.106
76995SOL    HW232760   7.713   9.181   9.054
76996SOL     OW32761  13.933   1.034   2.004
76996SOL    HW132762  13.878   1.004   1.932
76996SOL    HW232763  13.951   0.955   2.055
76997SOL     OW32764  10.135   7.201   9.646
76997SOL    HW132765  10.206   7.173   9.703
76997SOL    HW232766  10.132   7.135   9.577
76998SOL     OW32767   2.486   0.440  10.027
76998SOL    HW132768   2.516   0.352  10.001
76998SOL    HW232769   2.566   0.483  10.059
76999SOL     OW32770   5.915   7.198  14.230
76999SOL    HW132771   5.828   7.231  14.209
76999SOL    HW232772   5.966   7.276  14.251
77000SOL     OW32773   5.053   4.284  10.390
77000SOL    HW132774   5.094   4.283  10.476
77000SOL    HW232775   4.971   4.237  10.401
77001SOL     OW32776  11.035  14.571   5.236
77001SOL    HW132777  11.113  14.619   5.266
77001SOL    HW232778  10.964  14.604   5.291
77002SOL     OW32779  11.416  14.527  12.118
77002SOL    HW132780  11.325  14.533  12.147
77002SOL    HW232781  11.464  14.581  12.180
77003SOL     OW32782   7.944  11.039   4.195
77003SOL    HW132783   8.027  11.020   4.151
77003SOL    HW232784   7.877  11.024   4.128
77004SOL     OW32785   3.414  13.266  12.114
77004SOL    HW132786   3.482  13.238  12.053
77004SOL    HW232787   3.427  13.360  12.123
77005SOL     OW32788   2.208   5.103  14.052
77005SOL    HW132789   2.217   5.008  14.046
77005SOL    HW232790   2.273   5.137  13.990
77006SOL     OW32791   5.409  10.305   7.984
77006SOL    HW132792   5.395  10.394   8.018
77006SOL    HW232793   5.478  10.270   8.039
77007SOL     OW32794   2.460   4.270  14.166
77007SOL    HW132795   2.411   4.312  14.096
77007SOL    HW232796   2.434   4.318  14.245
77008SOL     OW32797   8.275   4.302   8.836
77008SOL    HW132798   8.301   4.385   8.796
77008SOL    HW232799   8.357   4.256   8.851
77009SOL     OW32800   8.366   1.025   1.952
77009SOL    HW132801   8.274   1.008   1.971
77009SOL    HW232802   8.403   1.053   2.036
77010SOL     OW32803   1.774  12.696   2.657
77010SOL    HW132804   1.698  12.751   2.676
77010SOL    HW232805   1.760  12.665   2.568
77011SOL     OW32806  10.380   5.037   4.075
77011SOL    HW132807  10.286   5.025   4.083
77011SOL    HW232808  10.396   5.125   4.111
77012SOL     OW32809   3.467   2.879   5.879
77012SOL    HW132810   3.528   2.850   5.812
77012SOL    HW232811   3.398   2.813   5.880
77013SOL     OW32812   8.090   8.037   2.736
77013SOL    HW132813   8.035   7.960   2.725
77013SOL    HW232814   8.179   8.004   2.734
77014SOL     OW32815   0.491   7.173   7.797
77014SOL    HW132816   0.527   7.261   7.794
77014SOL    HW232817   0.501   7.145   7.888
77015SOL     OW32818   0.213   2.614   6.454
77015SOL    HW132819   0.241   2.522   6.462
77015SOL    HW232820   0.220   2.649   6.543
77016SOL     OW32821   9.159   7.406   6.166
77016SOL    HW132822   9.124   7.335   6.112
77016SOL    HW232823   9.123   7.486   6.127
77017SOL     OW32824  13.552   8.748  11.553
77017SOL    HW132825  13.643   8.731  11.574
77017SOL    HW232826  13.532   8.830  11.600
77018SOL     OW32827  12.829   6.379   0.187
77018SOL    HW132828  12.875   6.429   0.119
77018SOL    HW232829  12.806   6.297   0.144
77019SOL     OW32830   1.985   4.017   4.925
77019SOL    HW132831   2.080   4.018   4.939
77019SOL    HW232832   1.970   3.946   4.864
77020SOL     OW32833   6.678  11.386  11.536
77020SOL    HW132834   6.600  11.330  11.531
77020SOL    HW232835   6.660  11.447  11.607
77021SOL     OW32836   6.314   5.853   6.228
77021SOL    HW132837   6.312   5.909   6.305
77021SOL    HW232838   6.319   5.764   6.262
77022SOL     OW32839   6.937  11.329   3.217
77022SOL    HW132840   6.975  11.269   3.282
77022SOL    HW232841   6.986  11.410   3.228
77023SOL     OW32842   9.597   1.292   2.251
77023SOL    HW132843   9.649   1.212   2.260
77023SOL    HW232844   9.571   1.314   2.340
77024SOL     OW32845  12.273   9.473  12.596
77024SOL    HW132846  12.250   9.387  12.632
77024SOL    HW232847  12.357   9.459  12.553
77025SOL     OW32848  14.205   3.131  10.518
77025SOL    HW132849  14.152   3.205  10.488
77025SOL    HW232850  14.230   3.086  10.437
77026SOL     OW32851   4.242  13.717   7.350
77026SOL    HW132852   4.215  13.799   7.309
77026SOL    HW232853   4.242  13.736   7.444
77027SOL     OW32854   9.362  13.083   0.948
77027SOL    HW132855   9.398  13.025   0.881
77027SOL    HW232856   9.390  13.045   1.031
77028SOL     OW32857   9.631   6.596   8.092
77028SOL    HW132858   9.548   6.570   8.054
77028SOL    HW232859   9.617   6.687   8.120
77029SOL     OW32860   8.901   2.479   0.595
77029SOL    HW132861   8.905   2.447   0.505
77029SOL    HW232862   8.982   2.529   0.606
77030SOL     OW32863   1.529   0.555  10.581
77030SOL    HW132864   1.546   0.610  10.504
77030SOL    HW232865   1.442   0.518  10.566
77031SOL     OW32866   9.917  12.013   7.443
77031SOL    HW132867   9.874  11.971   7.367
77031SOL    HW232868   9.934  11.941   7.503
77032SOL     OW32869   0.015   6.889   2.267
77032SOL    HW132870  14.822   6.902   2.209
77032SOL    HW232871  14.872   6.933   2.348
77033SOL     OW32872   1.981  12.103   5.965
77033SOL    HW132873   2.073  12.095   5.990
77033SOL    HW232874   1.938  12.143   6.041
77034SOL     OW32875   9.309   4.076   9.664
77034SOL    HW132876   9.318   4.141   9.733
77034SOL    HW232877   9.350   3.997   9.699
77035SOL     OW32878   7.815  12.499   0.936
77035SOL    HW132879   7.905  12.473   0.916
77035SOL    HW232880   7.776  12.519   0.851
77036SOL     OW32881  12.852  11.264  10.986
77036SOL    HW132882  12.758  11.280  10.991
77036SOL    HW232883  12.868  11.194  11.049
77037SOL     OW32884   9.999   6.916   6.726
77037SOL    HW132885   9.907   6.926   6.700
77037SOL    HW232886  10.047   6.914   6.643
77038SOL     OW32887  13.642  12.328   4.885
77038SOL    HW132888  13.661  12.352   4.794
77038SOL    HW232889  13.589  12.249   4.879
77039SOL     OW32890   4.679   3.367  14.174
77039SOL    HW132891   4.631   3.385  14.093
77039SOL    HW232892   4.745   3.302  14.149
77040SOL     OW32893   5.606   2.975   7.655
77040SOL    HW132894   5.656   2.896   7.676
77040SOL    HW232895   5.558   2.996   7.736
77041SOL     OW32896   4.773   0.002  12.372
77041SOL    HW132897   4.698  14.825  12.378
77041SOL    HW232898   4.803  14.875  12.282
77042SOL     OW32899   5.594   1.081  12.140
77042SOL    HW132900   5.595   1.005  12.082
77042SOL    HW232901   5.601   1.156  12.082
77043SOL     OW32902   4.302  11.579  11.648
77043SOL    HW132903   4.317  11.487  11.626
77043SOL    HW232904   4.208  11.584  11.666
77044SOL     OW32905  14.635   9.588  14.555
77044SOL    HW132906  14.629   9.619  14.464
77044SOL    HW232907  14.645   9.493  14.547
77045SOL     OW32908   7.410   9.161  14.330
77045SOL    HW132909   7.330   9.180  14.378
77045SOL    HW232910   7.393   9.078  14.287
77046SOL     OW32911   0.850   9.887   4.453
77046SOL    HW132912   0.872   9.827   4.382
77046SOL    HW232913   0.798   9.956   4.412
77047SOL     OW32914   0.479   9.127  13.408
77047SOL    HW132915   0.553   9.168  13.363
77047SOL    HW232916   0.458   9.051  13.354
77048SOL     OW32917   0.758  13.144   4.713
77048SOL    HW132918   0.820  13.087   4.667
77048SOL    HW232919   0.751  13.222   4.658
77049SOL     OW32920  12.848  13.163  12.318
77049SOL    HW132921  12.831  13.230  12.384
77049SOL    HW232922  12.763  13.120  12.305
77050SOL     OW32923   6.186  12.758  10.741
77050SOL    HW132924   6.225  12.845  10.732
77050SOL    HW232925   6.092  12.771  10.724
77051SOL     OW32926   9.462   2.931  14.283
77051SOL    HW132927   9.385   2.941  14.340
77051SOL    HW232928   9.441   2.983  14.205
77052SOL     OW32929   7.345  13.527   4.587
77052SOL    HW132930   7.304  13.602   4.544
77052SOL    HW232931   7.351  13.553   4.679
77053SOL     OW32932   8.048   8.404   0.973
77053SOL    HW132933   8.084   8.456   0.900
77053SOL    HW232934   8.065   8.458   1.051
77054SOL     OW32935   9.883  14.565   8.149
77054SOL    HW132936   9.845  14.653   8.155
77054SOL    HW232937   9.969  14.579   8.109
77055SOL     OW32938   4.213  12.215   3.489
77055SOL    HW132939   4.188  12.270   3.563
77055SOL    HW232940   4.156  12.242   3.418
77056SOL     OW32941  14.306   7.041   2.252
77056SOL    HW132942  14.241   7.025   2.183
77056SOL    HW232943  14.271   6.996   2.329
77057SOL     OW32944  14.589  13.729   4.352
77057SOL    HW132945  14.569  13.661   4.288
77057SOL    HW232946  14.644  13.791   4.303
77058SOL     OW32947  13.416  14.239   6.582
77058SOL    HW132948  13.496  14.191   6.558
77058SOL    HW232949  13.358  14.172   6.619
77059SOL     OW32950  12.698   7.695   8.413
77059SOL    HW132951  12.644   7.681   8.336
77059SOL    HW232952  12.781   7.651   8.393
77060SOL     OW32953   9.968   8.996   3.528
77060SOL    HW132954   9.923   8.990   3.613
77060SOL    HW232955   9.911   8.947   3.468
77061SOL     OW32956   3.082  13.884  12.417
77061SOL    HW132957   3.060  13.976  12.405
77061SOL    HW232958   3.066  13.868  12.510
77062SOL     OW32959   4.031   2.945   0.200
77062SOL    HW132960   3.988   2.972   0.281
77062SOL    HW232961   4.022   2.849   0.200
77063SOL     OW32962   8.598   8.471   9.828
77063SOL    HW132963   8.610   8.383   9.864
77063SOL    HW232964   8.687   8.504   9.817
77064SOL     OW32965   9.110   3.638  13.744
77064SOL    HW132966   9.186   3.656  13.799
77064SOL    HW232967   9.050   3.710  13.761
77065SOL     OW32968  10.796   4.496  12.235
77065SOL    HW132969  10.789   4.574  12.180
77065SOL    HW232970  10.705   4.477  12.261
77066SOL     OW32971   0.372  13.828  10.055
77066SOL    HW132972   0.326  13.758  10.009
77066SOL    HW232973   0.308  13.864  10.116
77067SOL     OW32974  14.734   4.959   0.558
77067SOL    HW132975  14.809   4.957   0.499
77067SOL    HW232976  14.743   5.040   0.607
77068SOL     OW32977  11.544  14.345  10.987
77068SOL    HW132978  11.618  14.356  10.928
77068SOL    HW232979  11.482  14.413  10.962
77069SOL     OW32980   9.036   9.475   3.908
77069SOL    HW132981   9.018   9.534   3.981
77069SOL    HW232982   9.079   9.530   3.842
77070SOL     OW32983  10.778  11.954   6.507
77070SOL    HW132984  10.710  11.890   6.487
77070SOL    HW232985  10.744  12.036   6.471
77071SOL     OW32986   8.661   1.740  10.625
77071SOL    HW132987   8.605   1.810  10.593
77071SOL    HW232988   8.679   1.686  10.548
77072SOL     OW32989  13.479   8.267   7.870
77072SOL    HW132990  13.564   8.230   7.845
77072SOL    HW232991  13.488   8.360   7.853
77073SOL     OW32992   9.128   2.381   7.688
77073SOL    HW132993   9.217   2.403   7.718
77073SOL    HW232994   9.106   2.451   7.627
77074SOL     OW32995  14.402  11.658   9.462
77074SOL    HW132996  14.324  11.636   9.410
77074SOL    HW232997  14.441  11.733   9.416
77075SOL     OW32998   3.225  10.689   3.849
77075SOL    HW132999   3.303  10.643   3.882
77075SOL    HW233000   3.169  10.700   3.926
77076SOL     OW33001  12.384  12.262   7.543
77076SOL    HW133002  12.294  12.270   7.510
77076SOL    HW233003  12.432  12.332   7.499
77077SOL     OW33004  13.242  14.292   5.719
77077SOL    HW133005  13.156  14.260   5.692
77077SOL    HW233006  13.238  14.386   5.706
77078SOL     OW33007   0.448  10.974   1.325
77078SOL    HW133008   0.500  10.913   1.376
77078SOL    HW233009   0.479  10.963   1.235
77079SOL     OW33010  12.109   2.594   2.145
77079SOL    HW133011  12.048   2.660   2.179
77079SOL    HW233012  12.069   2.565   2.063
77080SOL     OW33013   7.965  10.797   2.429
77080SOL    HW133014   8.044  10.750   2.403
77080SOL    HW233015   7.997  10.881   2.461
77081SOL     OW33016  11.648   8.636   0.658
77081SOL    HW133017  11.655   8.674   0.745
77081SOL    HW233018  11.600   8.701   0.607
77082SOL     OW33019  10.140   5.950   9.199
77082SOL    HW133020  10.071   5.938   9.134
77082SOL    HW233021  10.115   5.893   9.272
77083SOL     OW33022   9.875   1.182  13.514
77083SOL    HW133023   9.935   1.109  13.530
77083SOL    HW233024   9.896   1.211  13.425
77084SOL     OW33025   0.435  10.975   4.708
77084SOL    HW133026   0.493  11.017   4.645
77084SOL    HW233027   0.380  10.917   4.656
77085SOL     OW33028   7.396   5.904   6.373
77085SOL    HW133029   7.380   5.868   6.460
77085SOL    HW233030   7.385   5.830   6.314
77086SOL     OW33031   0.638  11.572  10.939
77086SOL    HW133032   0.691  11.564  11.018
77086SOL    HW233033   0.627  11.482  10.908
77087SOL     OW33034   7.645   2.914   0.194
77087SOL    HW133035   7.679   2.833   0.156
77087SOL    HW233036   7.603   2.886   0.276
77088SOL     OW33037   3.983   5.447   5.225
77088SOL    HW133038   4.054   5.510   5.209
77088SOL    HW233039   3.905   5.501   5.236
77089SOL     OW33040   8.843   1.646  13.862
77089SOL    HW133041   8.924   1.606  13.895
77089SOL    HW233042   8.870   1.692  13.783
77090SOL     OW33043  13.831  11.262   5.680
77090SOL    HW133044  13.790  11.333   5.729
77090SOL    HW233045  13.795  11.182   5.719
77091SOL     OW33046   0.813  14.188   7.435
77091SOL    HW133047   0.742  14.130   7.406
77091SOL    HW233048   0.854  14.218   7.354
77092SOL     OW33049   4.838   7.895   6.025
77092SOL    HW133050   4.933   7.909   6.035
77092SOL    HW233051   4.816   7.833   6.094
77093SOL     OW33052  10.052   2.393   3.690
77093SOL    HW133053  10.006   2.399   3.606
77093SOL    HW233054  10.131   2.343   3.670
77094SOL     OW33055  13.597   8.478  12.152
77094SOL    HW133056  13.582   8.573  12.151
77094SOL    HW233057  13.582   8.451  12.061
77095SOL     OW33058  14.535   3.976  11.174
77095SOL    HW133059  14.532   3.943  11.084
77095SOL    HW233060  14.464   4.041  11.178
77096SOL     OW33061  14.451   6.036   0.522
77096SOL    HW133062  14.471   5.948   0.554
77096SOL    HW233063  14.534   6.068   0.485
77097SOL     OW33064   6.019  11.856  13.915
77097SOL    HW133065   6.099  11.903  13.890
77097SOL    HW233066   6.033  11.834  14.007
77098SOL     OW33067   1.861  10.225   4.751
77098SOL    HW133068   1.842  10.266   4.835
77098SOL    HW233069   1.877  10.298   4.692
77099SOL     OW33070   9.675   2.272   5.494
77099SOL    HW133071   9.737   2.220   5.546
77099SOL    HW233072   9.687   2.240   5.404
77100SOL     OW33073   0.846   5.273   5.235
77100SOL    HW133074   0.867   5.304   5.146
77100SOL    HW233075   0.751   5.274   5.239
77101SOL     OW33076   8.747  10.778   1.756
77101SOL    HW133077   8.655  10.793   1.734
77101SOL    HW233078   8.778  10.716   1.689
77102SOL     OW33079  13.748  13.685   8.470
77102SOL    HW133080  13.666  13.709   8.512
77102SOL    HW233081  13.738  13.712   8.379
77103SOL     OW33082   0.754   7.987   4.815
77103SOL    HW133083   0.792   7.904   4.786
77103SOL    HW233084   0.662   7.982   4.791
77104SOL     OW33085   0.534   0.043   8.225
77104SOL    HW133086   0.457   0.034   8.169
77104SOL    HW233087   0.503   0.021   8.312
77105SOL     OW33088   1.216   2.707  13.554
77105SOL    HW133089   1.274   2.775  13.519
77105SOL    HW233090   1.218   2.638  13.489
77106SOL     OW33091   3.136   4.424  13.199
77106SOL    HW133092   3.123   4.360  13.269
77106SOL    HW233093   3.051   4.468  13.192
77107SOL     OW33094   7.123   5.615   9.979
77107SOL    HW133095   7.157   5.671  10.049
77107SOL    HW233096   7.196   5.559   9.954
77108SOL     OW33097   8.086  10.422   0.033
77108SOL    HW133098   8.100  10.511   0.064
77108SOL    HW233099   8.165  10.401  14.865
77109SOL     OW33100  13.040   1.902   1.384
77109SOL    HW133101  13.000   1.836   1.327
77109SOL    HW233102  12.967   1.956   1.412
77110SOL     OW33103  10.291   6.910   9.494
77110SOL    HW133104  10.207   6.948   9.469
77110SOL    HW233105  10.278   6.877   9.583
77111SOL     OW33106   6.278   0.411   1.195
77111SOL    HW133107   6.274   0.426   1.290
77111SOL    HW233108   6.272   0.316   1.186
77112SOL     OW33109   5.324   3.659  14.729
77112SOL    HW133110   5.296   3.670  14.819
77112SOL    HW233111   5.273   3.584  14.697
77113SOL     OW33112   7.914   2.859   2.943
77113SOL    HW133113   7.975   2.926   2.971
77113SOL    HW233114   7.867   2.898   2.869
77114SOL     OW33115   8.136  12.661  13.471
77114SOL    HW133116   8.231  12.647  13.470
77114SOL    HW233117   8.119  12.716  13.394
77115SOL     OW33118   7.508   1.838   8.154
77115SOL    HW133119   7.595   1.808   8.178
77115SOL    HW233120   7.449   1.769   8.186
77116SOL     OW33121   0.741   1.084   7.204
77116SOL    HW133122   0.771   1.149   7.269
77116SOL    HW233123   0.818   1.067   7.151
77117SOL     OW33124   4.070   8.994   2.745
77117SOL    HW133125   4.102   9.001   2.655
77117SOL    HW233126   3.978   9.019   2.741
77118SOL     OW33127   0.198  12.628   6.972
77118SOL    HW133128   0.103  12.631   6.987
77118SOL    HW233129   0.207  12.586   6.886
77119SOL     OW33130   5.486  10.721   1.756
77119SOL    HW133131   5.453  10.632   1.754
77119SOL    HW233132   5.496  10.745   1.663
77120SOL     OW33133  12.167   4.105  12.901
77120SOL    HW133134  12.135   4.166  12.966
77120SOL    HW233135  12.216   4.040  12.951
77121SOL     OW33136  14.612  14.287   7.882
77121SOL    HW133137  14.578  14.202   7.911
77121SOL    HW233138  14.707  14.278   7.888
77122SOL     OW33139  10.146   8.487  11.262
77122SOL    HW133140  10.163   8.581  11.270
77122SOL    HW233141  10.074   8.470  11.322
77123SOL     OW33142   8.960   4.257  10.570
77123SOL    HW133143   9.010   4.279  10.491
77123SOL    HW233144   8.928   4.168  10.554
77124SOL     OW33145   0.557   2.210   8.713
77124SOL    HW133146   0.637   2.233   8.666
77124SOL    HW233147   0.567   2.117   8.733
77125SOL     OW33148  12.751   6.541  11.618
77125SOL    HW133149  12.745   6.515  11.526
77125SOL    HW233150  12.784   6.631  11.616
77126SOL     OW33151  10.665   8.466   6.548
77126SOL    HW133152  10.620   8.427   6.473
77126SOL    HW233153  10.737   8.406   6.567
77127SOL     OW33154   3.549  11.393   5.653
77127SOL    HW133155   3.470  11.346   5.624
77127SOL    HW233156   3.621  11.345   5.613
77128SOL     OW33157  14.645  11.442  12.419
77128SOL    HW133158  14.596  11.464  12.497
77128SOL    HW233159  14.734  11.424  12.450
77129SOL     OW33160   0.100   2.332   2.087
77129SOL    HW133161   0.022   2.377   2.055
77129SOL    HW233162   0.079   2.306   2.176
77130SOL     OW33163   4.509  14.704   7.473
77130SOL    HW133164   4.526  14.611   7.484
77130SOL    HW233165   4.420  14.717   7.505
77131SOL     OW33166   5.396   5.237  14.621
77131SOL    HW133167   5.413   5.225  14.714
77131SOL    HW233168   5.481   5.257  14.583
77132SOL     OW33169  11.377  13.167   6.784
77132SOL    HW133170  11.334  13.093   6.827
77132SOL    HW233171  11.307  13.211   6.735
77133SOL     OW33172   5.109   2.661   5.708
77133SOL    HW133173   5.199   2.663   5.675
77133SOL    HW233174   5.104   2.581   5.761
77134SOL     OW33175   2.829   5.155   7.617
77134SOL    HW133176   2.753   5.098   7.612
77134SOL    HW233177   2.808   5.231   7.562
77135SOL     OW33178  14.616  11.954  11.692
77135SOL    HW133179  14.597  11.867  11.657
77135SOL    HW233180  14.690  11.940  11.752
77136SOL     OW33181   1.374   6.938   5.740
77136SOL    HW133182   1.361   6.875   5.811
77136SOL    HW233183   1.309   7.006   5.756
77137SOL     OW33184   6.139   0.389   2.374
77137SOL    HW133185   6.091   0.444   2.436
77137SOL    HW233186   6.183   0.324   2.429
77138SOL     OW33187   4.116   7.196  11.277
77138SOL    HW133188   4.155   7.271  11.232
77138SOL    HW233189   4.051   7.162  11.215
77139SOL     OW33190  14.813  11.906  14.595
77139SOL    HW133191  14.740  11.869  14.646
77139SOL    HW233192  14.771  11.945  14.518
77140SOL     OW33193   6.383  10.649   0.371
77140SOL    HW133194   6.348  10.564   0.344
77140SOL    HW233195   6.369  10.651   0.466
77141SOL     OW33196  14.464   4.555  13.934
77141SOL    HW133197  14.384   4.549  13.986
77141SOL    HW233198  14.462   4.643  13.897
77142SOL     OW33199   6.404   6.846   9.147
77142SOL    HW133200   6.394   6.871   9.055
77142SOL    HW233201   6.343   6.903   9.194
77143SOL     OW33202   2.276  12.349   5.694
77143SOL    HW133203   2.240  12.421   5.745
77143SOL    HW233204   2.251  12.368   5.603
77144SOL     OW33205   2.951  10.941   9.414
77144SOL    HW133206   2.876  10.957   9.471
77144SOL    HW233207   3.005  10.878   9.461
77145SOL     OW33208  12.252   5.659   7.345
77145SOL    HW133209  12.339   5.623   7.361
77145SOL    HW233210  12.197   5.624   7.415
77146SOL     OW33211  11.036  14.584  13.806
77146SOL    HW133212  10.971  14.617  13.868
77146SOL    HW233213  11.064  14.662  13.757
77147SOL     OW33214   0.471  12.488  13.094
77147SOL    HW133215   0.490  12.564  13.039
77147SOL    HW233216   0.519  12.504  13.175
77148SOL     OW33217   9.421   9.321   9.558
77148SOL    HW133218   9.363   9.337   9.633
77148SOL    HW233219   9.419   9.226   9.546
77149SOL     OW33220  13.488   6.049  14.591
77149SOL    HW133221  13.419   6.021  14.652
77149SOL    HW233222  13.546   5.974  14.585
77150SOL     OW33223   6.434   1.466  11.121
77150SOL    HW133224   6.463   1.458  11.031
77150SOL    HW233225   6.492   1.409  11.171
77151SOL     OW33226   2.047  10.497   1.055
77151SOL    HW133227   2.034  10.537   0.969
77151SOL    HW233228   2.059  10.404   1.036
77152SOL     OW33229  13.829  13.108  14.181
77152SOL    HW133230  13.836  13.149  14.095
77152SOL    HW233231  13.764  13.039  14.169
77153SOL     OW33232   3.136   9.957   4.721
77153SOL    HW133233   3.088   9.966   4.803
77153SOL    HW233234   3.093  10.018   4.661
77154SOL     OW33235  11.670   3.427   1.507
77154SOL    HW133236  11.582   3.464   1.497
77154SOL    HW233237  11.695   3.400   1.419
77155SOL     OW33238  10.436   2.035  10.521
77155SOL    HW133239  10.483   2.051  10.439
77155SOL    HW233240  10.379   1.960  10.501
77156SOL     OW33241   8.441  12.731  14.614
77156SOL    HW133242   8.501  12.803  14.632
77156SOL    HW233243   8.359  12.756  14.657
77157SOL     OW33244   2.108   7.255   2.224
77157SOL    HW133245   2.105   7.350   2.208
77157SOL    HW233246   2.115   7.217   2.137
77158SOL     OW33247  12.643   1.693   3.784
77158SOL    HW133248  12.642   1.753   3.858
77158SOL    HW233249  12.569   1.635   3.798
77159SOL     OW33250   2.882  11.951   5.555
77159SOL    HW133251   2.842  11.923   5.473
77159SOL    HW233252   2.817  11.929   5.622
77160SOL     OW33253  12.610   7.740   2.463
77160SOL    HW133254  12.674   7.710   2.398
77160SOL    HW233255  12.661   7.790   2.526
77161SOL     OW33256   4.388   2.502   4.489
77161SOL    HW133257   4.379   2.546   4.404
77161SOL    HW233258   4.408   2.411   4.467
77162SOL     OW33259  11.104   2.303   9.242
77162SOL    HW133260  11.063   2.222   9.210
77162SOL    HW233261  11.168   2.326   9.174
77163SOL     OW33262   4.471   4.413   3.732
77163SOL    HW133263   4.533   4.430   3.804
77163SOL    HW233264   4.394   4.375   3.775
77164SOL     OW33265   5.610  12.471   2.005
77164SOL    HW133266   5.691  12.419   2.001
77164SOL    HW233267   5.598  12.488   2.099
77165SOL     OW33268  12.309   4.868   0.195
77165SOL    HW133269  12.368   4.876   0.269
77165SOL    HW233270  12.256   4.948   0.197
77166SOL     OW33271  13.524   8.037   2.522
77166SOL    HW133272  13.544   8.125   2.489
77166SOL    HW233273  13.555   7.978   2.453
77167SOL     OW33274   0.780  11.883  10.638
77167SOL    HW133275   0.731  11.853  10.561
77167SOL    HW233276   0.731  11.849  10.713
77168SOL     OW33277  12.744  11.421   4.417
77168SOL    HW133278  12.684  11.348   4.431
77168SOL    HW233279  12.831  11.381   4.414
77169SOL     OW33280  11.371   4.989   5.239
77169SOL    HW133281  11.319   4.909   5.238
77169SOL    HW233282  11.353   5.031   5.155
77170SOL     OW33283   5.787   3.439   2.057
77170SOL    HW133284   5.874   3.432   2.017
77170SOL    HW233285   5.804   3.442   2.151
77171SOL     OW33286   1.708   8.218   8.773
77171SOL    HW133287   1.686   8.159   8.845
77171SOL    HW233288   1.634   8.278   8.768
77172SOL     OW33289   7.338   0.750   8.532
77172SOL    HW133290   7.274   0.821   8.523
77172SOL    HW233291   7.340   0.709   8.445
77173SOL     OW33292  10.759   3.889  14.566
77173SOL    HW133293  10.682   3.834  14.551
77173SOL    HW233294  10.784   3.871  14.657
77174SOL     OW33295  13.970  12.982   2.278
77174SOL    HW133296  13.899  12.921   2.300
77174SOL    HW233297  13.925  13.059   2.243
77175SOL     OW33298  13.541   0.489  12.302
77175SOL    HW133299  13.509   0.449  12.383
77175SOL    HW233300  13.462   0.516  12.256
77176SOL     OW33301   3.318   7.497   4.581
77176SOL    HW133302   3.270   7.497   4.498
77176SOL    HW233303   3.382   7.426   4.571
77177SOL     OW33304   7.089  14.670   3.286
77177SOL    HW133305   7.124  14.757   3.307
77177SOL    HW233306   7.132  14.646   3.204
77178SOL     OW33307   9.961   7.026  11.748
77178SOL    HW133308   9.953   7.007  11.654
77178SOL    HW233309   9.902   7.100  11.763
77179SOL     OW33310   9.330   3.642  10.711
77179SOL    HW133311   9.328   3.683  10.797
77179SOL    HW233312   9.238   3.640  10.684
77180SOL     OW33313   1.685  12.444   6.669
77180SOL    HW133314   1.662  12.474   6.581
77180SOL    HW233315   1.779  12.463   6.677
77181SOL     OW33316   0.482   1.967  12.677
77181SOL    HW133317   0.400   2.017  12.676
77181SOL    HW233318   0.550   2.032  12.662
77182SOL     OW33319   3.140   2.942  10.699
77182SOL    HW133320   3.173   2.855  10.722
77182SOL    HW233321   3.094   2.972  10.778
77183SOL     OW33322   2.464   6.431  14.463
77183SOL    HW133323   2.430   6.377  14.391
77183SOL    HW233324   2.399   6.419  14.533
77184SOL     OW33325   3.878  10.739  10.970
77184SOL    HW133326   3.838  10.707  11.051
77184SOL    HW233327   3.955  10.787  11.000
77185SOL     OW33328  12.562   1.248   4.064
77185SOL    HW133329  12.519   1.231   3.980
77185SOL    HW233330  12.512   1.197   4.127
77186SOL     OW33331   4.160  11.847   1.361
77186SOL    HW133332   4.233  11.870   1.302
77186SOL    HW233333   4.191  11.769   1.407
77187SOL     OW33334   8.465   5.594  11.061
77187SOL    HW133335   8.559   5.581  11.077
77187SOL    HW233336   8.425   5.511  11.086
77188SOL     OW33337  13.331   7.132   5.306
77188SOL    HW133338  13.378   7.092   5.233
77188SOL    HW233339  13.321   7.060   5.369
77189SOL     OW33340   1.572   4.172   8.467
77189SOL    HW133341   1.515   4.247   8.486
77189SOL    HW233342   1.538   4.102   8.522
77190SOL     OW33343   8.778   1.850   6.854
77190SOL    HW133344   8.781   1.928   6.909
77190SOL    HW233345   8.808   1.780   6.912
77191SOL     OW33346   6.871  14.738   2.859
77191SOL    HW133347   6.840  14.824   2.830
77191SOL    HW233348   6.961  14.733   2.827
77192SOL     OW33349   6.948  11.884  13.249
77192SOL    HW133350   6.953  11.800  13.203
77192SOL    HW233351   7.028  11.888  13.302
77193SOL     OW33352  10.728   4.622   1.859
77193SOL    HW133353  10.722   4.555   1.927
77193SOL    HW233354  10.647   4.672   1.867
77194SOL     OW33355  11.909   9.128   1.197
77194SOL    HW133356  11.885   9.063   1.131
77194SOL    HW233357  11.901   9.212   1.151
77195SOL     OW33358   2.327   6.950   5.114
77195SOL    HW133359   2.233   6.953   5.098
77195SOL    HW233360   2.357   7.040   5.099
77196SOL     OW33361  12.763  13.850  14.661
77196SOL    HW133362  12.707  13.819  14.590
77196SOL    HW233363  12.831  13.784  14.669
77197SOL     OW33364   8.634   9.147  11.551
77197SOL    HW133365   8.682   9.192  11.483
77197SOL    HW233366   8.543   9.175  11.540
77198SOL     OW33367   2.458   2.025  12.233
77198SOL    HW133368   2.505   2.091  12.283
77198SOL    HW233369   2.478   2.046  12.141
77199SOL     OW33370  13.711  14.623   3.196
77199SOL    HW133371  13.701  14.639   3.102
77199SOL    HW233372  13.731  14.530   3.203
77200SOL     OW33373   1.451   4.405   4.608
77200SOL    HW133374   1.359   4.383   4.596
77200SOL    HW233375   1.482   4.425   4.519
77201SOL     OW33376  11.521   0.606  12.179
77201SOL    HW133377  11.580   0.670  12.218
77201SOL    HW233378  11.521   0.626  12.086
77202SOL     OW33379   5.461  14.557   3.270
77202SOL    HW133380   5.388  14.496   3.273
77202SOL    HW233381   5.483  14.564   3.177
77203SOL     OW33382   2.947  13.473   9.558
77203SOL    HW133383   3.021  13.488   9.500
77203SOL    HW233384   2.956  13.381   9.584
77204SOL     OW33385   7.660  12.399  13.282
77204SOL    HW133386   7.660  12.441  13.196
77204SOL    HW233387   7.575  12.421  13.319
77205SOL     OW33388   0.137   5.572   9.119
77205SOL    HW133389   0.188   5.491   9.130
77205SOL    HW233390   0.052   5.543   9.086
77206SOL     OW33391  10.698   0.388   7.733
77206SOL    HW133392  10.634   0.349   7.792
77206SOL    HW233393  10.779   0.339   7.750
77207SOL     OW33394  12.943  10.767  12.093
77207SOL    HW133395  12.956  10.695  12.031
77207SOL    HW233396  12.938  10.724  12.178
77208SOL     OW33397  11.936   0.727   3.024
77208SOL    HW133398  11.842   0.717   3.012
77208SOL    HW233399  11.949   0.718   3.119
77209SOL     OW33400   3.529  12.969   2.722
77209SOL    HW133401   3.526  12.993   2.815
77209SOL    HW233402   3.614  12.927   2.712
77210SOL     OW33403   6.874  13.035   4.716
77210SOL    HW133404   6.852  12.944   4.696
77210SOL    HW233405   6.791  13.082   4.707
77211SOL     OW33406  13.461  14.847   4.785
77211SOL    HW133407  13.465   0.060   4.768
77211SOL    HW233408  13.444  14.839   4.879
77212SOL     OW33409   8.163   6.286   8.102
77212SOL    HW133410   8.182   6.193   8.089
77212SOL    HW233411   8.248   6.326   8.116
77213SOL     OW33412  11.312   1.619  14.110
77213SOL    HW133413  11.406   1.607  14.097
77213SOL    HW233414  11.304   1.705  14.151
77214SOL     OW33415   0.688   9.179   6.880
77214SOL    HW133416   0.642   9.174   6.964
77214SOL    HW233417   0.700   9.088   6.853
77215SOL     OW33418   9.455   2.609  11.064
77215SOL    HW133419   9.524   2.673  11.083
77215SOL    HW233420   9.414   2.592  11.149
77216SOL     OW33421  11.709   7.984   0.328
77216SOL    HW133422  11.764   8.049   0.372
77216SOL    HW233423  11.768   7.910   0.312
77217SOL     OW33424   8.772   0.475   3.639
77217SOL    HW133425   8.696   0.437   3.683
77217SOL    HW233426   8.830   0.501   3.710
77218SOL     OW33427   6.170   5.892   4.765
77218SOL    HW133428   6.190   5.972   4.815
77218SOL    HW233429   6.240   5.831   4.789
77219SOL     OW33430   1.055  12.705  11.007
77219SOL    HW133431   1.063  12.781  10.949
77219SOL    HW233432   1.049  12.631  10.947
77220SOL     OW33433   5.242   1.946  11.303
77220SOL    HW133434   5.255   2.035  11.337
77220SOL    HW233435   5.270   1.952  11.211
77221SOL     OW33436  12.655   0.197   2.933
77221SOL    HW133437  12.565   0.211   2.902
77221SOL    HW233438  12.663   0.256   3.007
77222SOL     OW33439   2.887   8.468  12.049
77222SOL    HW133440   2.797   8.458  12.015
77222SOL    HW233441   2.880   8.536  12.116
77223SOL     OW33442   2.053  14.215  14.700
77223SOL    HW133443   2.063  14.308  14.681
77223SOL    HW233444   2.142  14.186  14.723
77224SOL     OW33445  11.336   2.052   5.253
77224SOL    HW133446  11.360   1.971   5.298
77224SOL    HW233447  11.318   2.113   5.325
77225SOL     OW33448   9.023  10.177   5.794
77225SOL    HW133449   9.078  10.112   5.837
77225SOL    HW233450   8.953  10.126   5.753
77226SOL     OW33451   5.200  11.972   6.913
77226SOL    HW133452   5.226  11.989   6.822
77226SOL    HW233453   5.237  12.045   6.962
77227SOL     OW33454   3.414  12.109  14.347
77227SOL    HW133455   3.365  12.183  14.313
77227SOL    HW233456   3.347  12.042  14.365
77228SOL     OW33457  13.828   4.130   9.686
77228SOL    HW133458  13.894   4.079   9.734
77228SOL    HW233459  13.763   4.153   9.753
77229SOL     OW33460   9.151  10.518   1.871
77229SOL    HW133461   9.132  10.565   1.790
77229SOL    HW233462   9.067  10.478   1.896
77230SOL     OW33463  12.788   0.423   0.481
77230SOL    HW133464  12.694   0.435   0.475
77230SOL    HW233465  12.824   0.512   0.475
77231SOL     OW33466   8.669   0.822   4.171
77231SOL    HW133467   8.702   0.806   4.083
77231SOL    HW233468   8.698   0.747   4.222
77232SOL     OW33469  13.893   1.068   2.326
77232SOL    HW133470  13.922   1.002   2.390
77232SOL    HW233471  13.973   1.098   2.284
77233SOL     OW33472  13.313  12.886  14.107
77233SOL    HW133473  13.275  12.830  14.039
77233SOL    HW233474  13.301  12.837  14.188
77234SOL     OW33475   1.878  11.423  11.066
77234SOL    HW133476   1.839  11.426  10.979
77234SOL    HW233477   1.935  11.500  11.070
77235SOL     OW33478   8.783  10.264   5.076
77235SOL    HW133479   8.791  10.236   4.985
77235SOL    HW233480   8.768  10.358   5.071
77236SOL     OW33481   9.973   5.159   6.558
77236SOL    HW133482   9.966   5.066   6.580
77236SOL    HW233483   9.903   5.173   6.494
77237SOL     OW33484   5.551   6.618  10.752
77237SOL    HW133485   5.608   6.556  10.706
77237SOL    HW233486   5.536   6.689  10.688
77238SOL     OW33487   9.681  12.103  10.358
77238SOL    HW133488   9.695  12.012  10.333
77238SOL    HW233489   9.765  12.145  10.345
77239SOL     OW33490  14.475  12.710   7.020
77239SOL    HW133491  14.491  12.760   7.100
77239SOL    HW233492  14.421  12.768   6.966
77240SOL     OW33493  12.294  12.558  13.538
77240SOL    HW133494  12.302  12.617  13.463
77240SOL    HW233495  12.281  12.617  13.613
77241SOL     OW33496   5.658   8.472  14.751
77241SOL    HW133497   5.568   8.486  14.723
77241SOL    HW233498   5.698   8.425  14.678
77242SOL     OW33499  10.512   7.500   5.555
77242SOL    HW133500  10.573   7.478   5.484
77242SOL    HW233501  10.544   7.584   5.588
77243SOL     OW33502   9.192  12.917   3.902
77243SOL    HW133503   9.223  12.914   3.993
77243SOL    HW233504   9.208  13.008   3.875
77244SOL     OW33505  11.958   0.614   8.168
77244SOL    HW133506  11.907   0.534   8.155
77244SOL    HW233507  11.942   0.638   8.260
77245SOL     OW33508   7.194   8.985  12.140
77245SOL    HW133509   7.251   8.981  12.063
77245SOL    HW233510   7.241   9.041  12.202
77246SOL     OW33511   1.181  13.664   2.533
77246SOL    HW133512   1.205  13.598   2.468
77246SOL    HW233513   1.101  13.705   2.498
77247SOL     OW33514   0.104   6.601   4.475
77247SOL    HW133515   0.164   6.588   4.548
77247SOL    HW233516   0.137   6.544   4.406
77248SOL     OW33517   3.419  10.367   9.507
77248SOL    HW133518   3.489  10.413   9.462
77248SOL    HW233519   3.386  10.303   9.444
77249SOL     OW33520  10.305   4.834  13.128
77249SOL    HW133521  10.286   4.923  13.157
77249SOL    HW233522  10.392   4.840  13.089
77250SOL     OW33523   5.160   4.496  11.409
77250SOL    HW133524   5.128   4.430  11.471
77250SOL    HW233525   5.233   4.538  11.454
77251SOL     OW33526  10.682   3.867   2.981
77251SOL    HW133527  10.757   3.808   2.993
77251SOL    HW233528  10.704   3.919   2.904
77252SOL     OW33529   9.538   2.014   9.201
77252SOL    HW133530   9.618   2.045   9.244
77252SOL    HW233531   9.517   2.082   9.138
77253SOL     OW33532  13.893   5.129  13.501
77253SOL    HW133533  13.813   5.145  13.552
77253SOL    HW233534  13.932   5.052  13.543
77254SOL     OW33535   8.033   3.016   9.727
77254SOL    HW133536   8.083   2.958   9.784
77254SOL    HW233537   8.055   2.988   9.638
77255SOL     OW33538   0.755  11.422  13.342
77255SOL    HW133539   0.707  11.359  13.289
77255SOL    HW233540   0.713  11.506  13.323
77256SOL     OW33541   9.464   2.633   3.528
77256SOL    HW133542   9.540   2.680   3.493
77256SOL    HW233543   9.395   2.699   3.533
77257SOL     OW33544   0.147  12.316   8.016
77257SOL    HW133545   0.067  12.265   8.028
77257SOL    HW233546   0.211  12.254   7.983
77258SOL     OW33547   0.953   5.276   1.365
77258SOL    HW133548   1.003   5.352   1.333
77258SOL    HW233549   0.962   5.211   1.295
77259SOL     OW33550   2.826   5.770   9.418
77259SOL    HW133551   2.819   5.815   9.502
77259SOL    HW233552   2.840   5.678   9.442
77260SOL     OW33553   0.030  12.514   1.583
77260SOL    HW133554   0.013  12.485   1.673
77260SOL    HW233555   0.113  12.561   1.588
77261SOL     OW33556   8.343   3.817  10.563
77261SOL    HW133557   8.419   3.850  10.611
77261SOL    HW233558   8.279   3.888  10.568
77262SOL     OW33559   2.660  11.646  13.913
77262SOL    HW133560   2.715  11.721  13.935
77262SOL    HW233561   2.625  11.616  13.996
77263SOL     OW33562   5.459  13.221   7.399
77263SOL    HW133563   5.506  13.299   7.429
77263SOL    HW233564   5.405  13.253   7.326
77264SOL     OW33565   1.018   0.039   8.329
77264SOL    HW133566   0.974   0.117   8.296
77264SOL    HW233567   1.069   0.007   8.254
77265SOL     OW33568  11.820   9.962   9.591
77265SOL    HW133569  11.804   9.874   9.556
77265SOL    HW233570  11.745  10.013   9.561
77266SOL     OW33571  13.905   4.518  10.054
77266SOL    HW133572  13.843   4.559   9.993
77266SOL    HW233573  13.869   4.430  10.068
77267SOL     OW33574   3.469   5.014   8.972
77267SOL    HW133575   3.456   4.950   9.042
77267SOL    HW233576   3.424   5.092   9.004
77268SOL     OW33577   1.205   8.396   6.249
77268SOL    HW133578   1.176   8.332   6.314
77268SOL    HW233579   1.180   8.358   6.165
77269SOL     OW33580   8.835   2.847   5.689
77269SOL    HW133581   8.805   2.761   5.718
77269SOL    HW233582   8.911   2.828   5.634
77270SOL     OW33583   4.115  11.519   5.712
77270SOL    HW133584   4.139  11.520   5.620
77270SOL    HW233585   4.021  11.501   5.712
77271SOL     OW33586   4.460   3.900  11.349
77271SOL    HW133587   4.516   3.922  11.274
77271SOL    HW233588   4.390   3.846  11.311
77272SOL     OW33589  12.797  11.538   6.143
77272SOL    HW133590  12.806  11.452   6.185
77272SOL    HW233591  12.707  11.540   6.111
77273SOL     OW33592  11.671   3.833   9.755
77273SOL    HW133593  11.694   3.913   9.708
77273SOL    HW233594  11.728   3.766   9.718
77274SOL     OW33595   4.459  12.568   3.354
77274SOL    HW133596   4.436  12.660   3.341
77274SOL    HW233597   4.400  12.538   3.423
77275SOL     OW33598   0.085   4.525   4.423
77275SOL    HW133599   0.115   4.598   4.479
77275SOL    HW233600   0.105   4.554   4.334
77276SOL     OW33601   5.128   3.175   2.407
77276SOL    HW133602   5.105   3.171   2.314
77276SOL    HW233603   5.150   3.085   2.430
77277SOL     OW33604   2.047   9.175   5.797
77277SOL    HW133605   2.067   9.084   5.818
77277SOL    HW233606   1.954   9.185   5.818
77278SOL     OW33607  13.707   9.304  11.656
77278SOL    HW133608  13.718   9.387  11.702
77278SOL    HW233609  13.758   9.314  11.576
77279SOL     OW33610  13.553   9.893   8.403
77279SOL    HW133611  13.579   9.954   8.472
77279SOL    HW233612  13.554   9.945   8.323
77280SOL     OW33613   7.027  13.035  11.444
77280SOL    HW133614   7.073  13.100  11.391
77280SOL    HW233615   6.953  13.007  11.390
77281SOL     OW33616  12.800   1.456   1.115
77281SOL    HW133617  12.739   1.437   1.044
77281SOL    HW233618  12.841   1.372   1.135
77282SOL     OW33619   9.946  14.314  14.332
77282SOL    HW133620   9.955  14.252  14.259
77282SOL    HW233621   9.861  14.356  14.317
77283SOL     OW33622   6.556  13.949  14.518
77283SOL    HW133623   6.486  13.974  14.457
77283SOL    HW233624   6.636  13.952  14.465
77284SOL     OW33625   4.970   8.653   1.496
77284SOL    HW133626   5.062   8.678   1.490
77284SOL    HW233627   4.924   8.733   1.520
77285SOL     OW33628  13.654   1.989   9.499
77285SOL    HW133629  13.637   1.968   9.406
77285SOL    HW233630  13.690   1.908   9.534
77286SOL     OW33631   5.756   5.919   8.303
77286SOL    HW133632   5.774   5.991   8.244
77286SOL    HW233633   5.667   5.891   8.280
77287SOL     OW33634   6.115   8.019   8.345
77287SOL    HW133635   6.198   8.048   8.383
77287SOL    HW233636   6.075   7.964   8.413
77288SOL     OW33637  12.214   5.836   9.750
77288SOL    HW133638  12.193   5.829   9.657
77288SOL    HW233639  12.285   5.900   9.754
77289SOL     OW33640  10.952   4.759   2.066
77289SOL    HW133641  10.873   4.809   2.086
77289SOL    HW233642  11.024   4.812   2.102
77290SOL     OW33643   4.916   9.361  12.841
77290SOL    HW133644   4.932   9.414  12.762
77290SOL    HW233645   4.953   9.275  12.820
77291SOL     OW33646   3.727   8.090   9.845
77291SOL    HW133647   3.748   8.176   9.882
77291SOL    HW233648   3.632   8.082   9.854
77292SOL     OW33649   8.261   0.907  14.234
77292SOL    HW133650   8.183   0.860  14.205
77292SOL    HW233651   8.319   0.908  14.157
77293SOL     OW33652   2.810   5.704   1.437
77293SOL    HW133653   2.878   5.655   1.390
77293SOL    HW233654   2.815   5.793   1.401
77294SOL     OW33655   1.982  14.759  13.054
77294SOL    HW133656   1.910  14.821  13.044
77294SOL    HW233657   1.960  14.687  12.994
77295SOL     OW33658   2.419   6.002   9.224
77295SOL    HW133659   2.389   5.989   9.314
77295SOL    HW233660   2.483   6.072   9.230
77296SOL     OW33661  12.538  14.183   4.546
77296SOL    HW133662  12.617  14.232   4.523
77296SOL    HW233663  12.570  14.096   4.569
77297SOL     OW33664   5.074  14.874   9.358
77297SOL    HW133665   5.102  14.799   9.306
77297SOL    HW233666   5.129   0.065   9.328
77298SOL     OW33667   4.336   3.327  14.702
77298SOL    HW133668   4.312   3.258  14.764
77298SOL    HW233669   4.272   3.396  14.718
77299SOL     OW33670   4.002  12.639  11.239
77299SOL    HW133671   4.073  12.680  11.190
77299SOL    HW233672   3.981  12.702  11.308
77300SOL     OW33673  10.765  12.989   0.734
77300SOL    HW133674  10.743  13.047   0.806
77300SOL    HW233675  10.680  12.954   0.705
77301SOL     OW33676  11.669   1.856   9.443
77301SOL    HW133677  11.756   1.890   9.464
77301SOL    HW233678  11.630   1.924   9.387
77302SOL     OW33679  10.270   3.093   3.345
77302SOL    HW133680  10.358   3.127   3.330
77302SOL    HW233681  10.216   3.171   3.359
77303SOL     OW33682   3.363  12.880  13.880
77303SOL    HW133683   3.369  12.921  13.967
77303SOL    HW233684   3.397  12.947  13.820
77304SOL     OW33685   1.686   4.509  13.771
77304SOL    HW133686   1.708   4.599  13.792
77304SOL    HW233687   1.655   4.512  13.680
77305SOL     OW33688   3.925   0.864  14.480
77305SOL    HW133689   3.935   0.943  14.426
77305SOL    HW233690   3.941   0.894  14.569
77306SOL     OW33691   8.887   9.243   0.145
77306SOL    HW133692   8.926   9.159   0.171
77306SOL    HW233693   8.919   9.305   0.210
77307SOL     OW33694   7.424   9.775   2.187
77307SOL    HW133695   7.358   9.800   2.253
77307SOL    HW233696   7.376   9.717   2.127
77308SOL     OW33697   0.504   5.049   8.847
77308SOL    HW133698   0.431   5.044   8.786
77308SOL    HW233699   0.508   5.142   8.872
77309SOL     OW33700  13.638   9.681   2.416
77309SOL    HW133701  13.684   9.721   2.490
77309SOL    HW233702  13.629   9.589   2.442
77310SOL     OW33703  12.308   2.539  11.959
77310SOL    HW133704  12.241   2.605  11.942
77310SOL    HW233705  12.268   2.479  12.021
77311SOL     OW33706  10.451   2.766   6.490
77311SOL    HW133707  10.545   2.750   6.478
77311SOL    HW233708  10.442   2.786   6.583
77312SOL     OW33709   5.091   4.742   9.662
77312SOL    HW133710   4.997   4.733   9.682
77312SOL    HW233711   5.115   4.658   9.623
77313SOL     OW33712   6.389   2.104   7.940
77313SOL    HW133713   6.451   2.150   7.884
77313SOL    HW233714   6.444   2.047   7.995
77314SOL     OW33715  14.323   8.536   0.240
77314SOL    HW133716  14.297   8.475   0.172
77314SOL    HW233717  14.419   8.535   0.238
77315SOL     OW33718  11.747   5.543  10.216
77315SOL    HW133719  11.838   5.549  10.185
77315SOL    HW233720  11.694   5.555  10.137
77316SOL     OW33721   7.535   8.550   0.779
77316SOL    HW133722   7.546   8.521   0.869
77316SOL    HW233723   7.624   8.567   0.748
77317SOL     OW33724   6.338   1.406   0.521
77317SOL    HW133725   6.281   1.479   0.498
77317SOL    HW233726   6.318   1.387   0.613
77318SOL     OW33727   3.620  10.233  10.484
77318SOL    HW133728   3.687  10.250  10.550
77318SOL    HW233729   3.665  10.182  10.417
77319SOL     OW33730   4.289   3.454   7.500
77319SOL    HW133731   4.254   3.477   7.586
77319SOL    HW233732   4.384   3.455   7.512
77320SOL     OW33733   6.291   1.304   9.259
77320SOL    HW133734   6.307   1.244   9.186
77320SOL    HW233735   6.359   1.283   9.323
77321SOL     OW33736   1.671   8.197   2.219
77321SOL    HW133737   1.641   8.174   2.131
77321SOL    HW233738   1.637   8.285   2.234
77322SOL     OW33739   7.700   1.594  13.938
77322SOL    HW133740   7.617   1.550  13.926
77322SOL    HW233741   7.693   1.674  13.887
77323SOL     OW33742   9.512   3.238  11.349
77323SOL    HW133743   9.554   3.318  11.382
77323SOL    HW233744   9.443   3.269  11.291
77324SOL     OW33745   2.295   6.391   6.687
77324SOL    HW133746   2.382   6.381   6.648
77324SOL    HW233747   2.308   6.375   6.781
77325SOL     OW33748   9.346   5.399   0.525
77325SOL    HW133749   9.356   5.328   0.588
77325SOL    HW233750   9.432   5.407   0.484
77326SOL     OW33751   0.967  11.377  12.995
77326SOL    HW133752   0.917  11.296  13.004
77326SOL    HW233753   0.902  11.443  12.970
77327SOL     OW33754   3.764  11.697  14.379
77327SOL    HW133755   3.851  11.697  14.417
77327SOL    HW233756   3.727  11.782  14.403
77328SOL     OW33757   2.015  11.646  11.806
77328SOL    HW133758   2.011  11.578  11.874
77328SOL    HW233759   2.083  11.616  11.746
77329SOL     OW33760   0.418   6.643  14.482
77329SOL    HW133761   0.377   6.727  14.503
77329SOL    HW233762   0.495   6.638  14.538
77330SOL     OW33763   1.093   6.295   2.672
77330SOL    HW133764   1.059   6.315   2.759
77330SOL    HW233765   1.187   6.284   2.684
77331SOL     OW33766   2.107  13.379  10.356
77331SOL    HW133767   2.163  13.305  10.379
77331SOL    HW233768   2.157  13.429  10.291
77332SOL     OW33769   0.523  10.645  13.361
77332SOL    HW133770   0.618  10.655  13.360
77332SOL    HW233771   0.490  10.723  13.406
77333SOL     OW33772  14.609   4.889   3.455
77333SOL    HW133773  14.701   4.903   3.478
77333SOL    HW233774  14.608   4.801   3.416
77334SOL     OW33775  12.493  13.306   4.016
77334SOL    HW133776  12.547  13.228   4.023
77334SOL    HW233777  12.525  13.365   4.085
77335SOL     OW33778  12.965   1.555   7.653
77335SOL    HW133779  12.885   1.598   7.681
77335SOL    HW233780  12.964   1.563   7.557
77336SOL     OW33781  11.401   9.972   9.670
77336SOL    HW133782  11.321   9.920   9.664
77336SOL    HW233783  11.418   9.978   9.764
77337SOL     OW33784   2.762   1.070   5.261
77337SOL    HW133785   2.840   1.090   5.313
77337SOL    HW233786   2.703   1.144   5.276
77338SOL     OW33787  11.866  13.395   1.101
77338SOL    HW133788  11.944  13.398   1.045
77338SOL    HW233789  11.793  13.392   1.039
77339SOL     OW33790   5.782   0.945  10.117
77339SOL    HW133791   5.737   0.861  10.107
77339SOL    HW233792   5.712   1.009  10.126
77340SOL     OW33793   6.613  12.242   1.945
77340SOL    HW133794   6.519  12.239   1.960
77340SOL    HW233795   6.635  12.154   1.913
77341SOL     OW33796   1.916   6.406   3.598
77341SOL    HW133797   1.940   6.496   3.574
77341SOL    HW233798   1.824   6.412   3.625
77342SOL     OW33799   2.010   5.728   6.153
77342SOL    HW133800   2.088   5.720   6.208
77342SOL    HW233801   1.953   5.787   6.202
77343SOL     OW33802   3.218   4.691   9.019
77343SOL    HW133803   3.278   4.733   9.081
77343SOL    HW233804   3.131   4.707   9.056
77344SOL     OW33805   6.575   5.447  14.232
77344SOL    HW133806   6.641   5.380  14.216
77344SOL    HW233807   6.492   5.402  14.218
77345SOL     OW33808   0.889   7.073  10.597
77345SOL    HW133809   0.966   7.045  10.548
77345SOL    HW233810   0.867   7.158  10.561
77346SOL     OW33811   7.252   8.358   7.125
77346SOL    HW133812   7.308   8.428   7.160
77346SOL    HW233813   7.200   8.330   7.201
77347SOL     OW33814   2.890   7.457   8.429
77347SOL    HW133815   2.983   7.431   8.431
77347SOL    HW233816   2.891   7.545   8.392
77348SOL     OW33817  14.651   5.214  12.204
77348SOL    HW133818  14.566   5.173  12.186
77348SOL    HW233819  14.715   5.156  12.164
77349SOL     OW33820   7.728   0.554   3.817
77349SOL    HW133821   7.677   0.594   3.747
77349SOL    HW233822   7.676   0.568   3.896
77350SOL     OW33823  12.832  13.306   5.061
77350SOL    HW133824  12.738  13.290   5.050
77350SOL    HW233825  12.874  13.226   5.031
77351SOL     OW33826  12.507   0.407   5.460
77351SOL    HW133827  12.598   0.435   5.461
77351SOL    HW233828  12.498   0.359   5.377
77352SOL     OW33829  11.936   8.701   3.292
77352SOL    HW133830  11.899   8.764   3.230
77352SOL    HW233831  11.877   8.704   3.367
77353SOL     OW33832   0.728  12.204   6.891
77353SOL    HW133833   0.693  12.223   6.804
77353SOL    HW233834   0.670  12.137   6.926
77354SOL     OW33835  13.752   7.161   1.679
77354SOL    HW133836  13.754   7.214   1.599
77354SOL    HW233837  13.661   7.162   1.707
77355SOL     OW33838   3.333   1.998  10.224
77355SOL    HW133839   3.344   1.903  10.231
77355SOL    HW233840   3.340   2.016  10.130
77356SOL     OW33841   9.656  10.238   7.047
77356SOL    HW133842   9.636  10.210   7.136
77356SOL    HW233843   9.620  10.169   6.991
77357SOL     OW33844  10.695  13.439  13.947
77357SOL    HW133845  10.781  13.481  13.950
77357SOL    HW233846  10.693  13.396  13.861
77358SOL     OW33847   2.779  10.376   5.161
77358SOL    HW133848   2.723  10.436   5.111
77358SOL    HW233849   2.862  10.423   5.171
77359SOL     OW33850   1.206   8.189   4.867
77359SOL    HW133851   1.140   8.229   4.924
77359SOL    HW233852   1.223   8.255   4.800
77360SOL     OW33853  12.506   9.451   9.024
77360SOL    HW133854  12.528   9.359   9.042
77360SOL    HW233855  12.456   9.478   9.101
77361SOL     OW33856   6.429   5.703  13.236
77361SOL    HW133857   6.337   5.683  13.218
77361SOL    HW233858   6.429   5.797  13.255
77362SOL     OW33859  14.278  11.605   0.736
77362SOL    HW133860  14.317  11.568   0.657
77362SOL    HW233861  14.352  11.639   0.786
77363SOL     OW33862   2.247   1.894  10.695
77363SOL    HW133863   2.258   1.823  10.758
77363SOL    HW233864   2.315   1.879  10.629
77364SOL     OW33865  11.735   3.982  11.475
77364SOL    HW133866  11.758   3.895  11.443
77364SOL    HW233867  11.733   3.972  11.571
77365SOL     OW33868   5.100  13.198   8.925
77365SOL    HW133869   5.029  13.171   8.867
77365SOL    HW233870   5.059  13.262   8.984
77366SOL     OW33871   8.706   4.433   0.653
77366SOL    HW133872   8.714   4.351   0.605
77366SOL    HW233873   8.789   4.442   0.699
77367SOL     OW33874   9.609   5.345   5.195
77367SOL    HW133875   9.684   5.312   5.145
77367SOL    HW233876   9.576   5.419   5.143
77368SOL     OW33877   1.500  12.584  14.381
77368SOL    HW133878   1.537  12.540  14.305
77368SOL    HW233879   1.557  12.660  14.396
77369SOL     OW33880   2.692  11.944   0.443
77369SOL    HW133881   2.626  11.875   0.441
77369SOL    HW233882   2.757  11.913   0.506
77370SOL     OW33883   3.649  10.650   4.618
77370SOL    HW133884   3.678  10.726   4.567
77370SOL    HW233885   3.670  10.575   4.563
77371SOL     OW33886  14.708   2.967   0.579
77371SOL    HW133887  14.624   3.008   0.559
77371SOL    HW233888  14.743   2.942   0.493
77372SOL     OW33889   2.552   4.926   1.180
77372SOL    HW133890   2.488   4.884   1.237
77372SOL    HW233891   2.619   4.959   1.240
77373SOL     OW33892   7.290   1.882  12.763
77373SOL    HW133893   7.246   1.800  12.741
77373SOL    HW233894   7.281   1.889  12.858
77374SOL     OW33895   8.797   4.363   7.936
77374SOL    HW133896   8.804   4.446   7.981
77374SOL    HW233897   8.714   4.368   7.889
77375SOL     OW33898  12.797   7.131  14.046
77375SOL    HW133899  12.803   7.052  14.099
77375SOL    HW233900  12.879   7.178  14.063
77376SOL     OW33901   1.964   3.000  11.988
77376SOL    HW133902   1.875   3.020  12.019
77376SOL    HW233903   1.952   2.927  11.927
77377SOL     OW33904   8.948   2.393  14.777
77377SOL    HW133905   8.898   2.321  14.814
77377SOL    HW233906   8.988   2.357  14.698
77378SOL     OW33907   5.878   1.536   0.088
77378SOL    HW133908   5.914   1.481   0.018
77378SOL    HW233909   5.788   1.505   0.100
77379SOL     OW33910   8.994   3.933   6.712
77379SOL    HW133911   8.920   3.950   6.655
77379SOL    HW233912   9.050   3.873   6.663
77380SOL     OW33913   2.827  12.561   1.380
77380SOL    HW133914   2.762  12.608   1.328
77380SOL    HW233915   2.776  12.509   1.441
77381SOL     OW33916   3.779  12.980   7.053
77381SOL    HW133917   3.827  12.923   6.992
77381SOL    HW233918   3.821  13.065   7.043
77382SOL     OW33919   5.591   5.713   8.741
77382SOL    HW133920   5.622   5.632   8.701
77382SOL    HW233921   5.608   5.781   8.676
77383SOL     OW33922  11.104  11.491   0.902
77383SOL    HW133923  11.013  11.472   0.877
77383SOL    HW233924  11.118  11.582   0.875
77384SOL     OW33925   1.809  14.757   4.068
77384SOL    HW133926   1.753  14.813   4.015
77384SOL    HW233927   1.757  14.678   4.084
77385SOL     OW33928  11.865   0.065   1.599
77385SOL    HW133929  11.854   0.159   1.586
77385SOL    HW233930  11.870   0.054   1.694
77386SOL     OW33931  12.844   9.456  10.131
77386SOL    HW133932  12.883   9.414  10.054
77386SOL    HW233933  12.803   9.385  10.179
77387SOL     OW33934   3.598   6.698  10.846
77387SOL    HW133935   3.657   6.625  10.829
77387SOL    HW233936   3.526   6.685  10.784
77388SOL     OW33937   2.630   2.288   7.518
77388SOL    HW133938   2.712   2.240   7.532
77388SOL    HW233939   2.610   2.274   7.426
77389SOL     OW33940   6.905   9.371  13.861
77389SOL    HW133941   6.905   9.382  13.766
77389SOL    HW233942   6.942   9.284  13.875
77390SOL     OW33943   5.711  10.521   6.197
77390SOL    HW133944   5.618  10.508   6.218
77390SOL    HW233945   5.712  10.600   6.142
77391SOL     OW33946  10.295   3.276  14.110
77391SOL    HW133947  10.202   3.260  14.126
77391SOL    HW233948  10.298   3.308  14.020
77392SOL     OW33949  11.670   7.931  14.811
77392SOL    HW133950  11.647   7.926   0.022
77392SOL    HW233951  11.641   7.847  14.775
77393SOL     OW33952   8.001   8.401   3.615
77393SOL    HW133953   8.025   8.346   3.689
77393SOL    HW233954   7.931   8.457   3.649
77394SOL     OW33955   1.311  12.410   7.424
77394SOL    HW133956   1.318  12.334   7.481
77394SOL    HW233957   1.383  12.467   7.453
77395SOL     OW33958   8.992   8.904   1.911
77395SOL    HW133959   9.055   8.884   1.980
77395SOL    HW233960   9.017   8.991   1.879
77396SOL     OW33961   8.986  13.470   2.774
77396SOL    HW133962   8.910  13.497   2.826
77396SOL    HW233963   9.035  13.551   2.760
77397SOL     OW33964   7.827   2.414   6.732
77397SOL    HW133965   7.803   2.401   6.640
77397SOL    HW233966   7.835   2.325   6.767
77398SOL     OW33967   7.459   8.429   0.211
77398SOL    HW133968   7.382   8.478   0.184
77398SOL    HW233969   7.507   8.413   0.130
77399SOL     OW33970  11.229   4.045  13.410
77399SOL    HW133971  11.195   4.131  13.385
77399SOL    HW233972  11.286   4.019  13.338
77400SOL     OW33973   4.906  10.751  11.282
77400SOL    HW133974   4.966  10.698  11.230
77400SOL    HW233975   4.954  10.768  11.363
77401SOL     OW33976   2.333   9.738  12.815
77401SOL    HW133977   2.270   9.755  12.885
77401SOL    HW233978   2.418   9.738  12.858
77402SOL     OW33979   2.813   0.454  13.057
77402SOL    HW133980   2.842   0.424  13.143
77402SOL    HW233981   2.783   0.544  13.071
77403SOL     OW33982  11.428  14.182   2.857
77403SOL    HW133983  11.461  14.109   2.910
77403SOL    HW233984  11.474  14.259   2.892
77404SOL     OW33985   7.558   4.291   0.413
77404SOL    HW133986   7.477   4.243   0.426
77404SOL    HW233987   7.535   4.383   0.426
77405SOL     OW33988  10.424   4.560  13.211
77405SOL    HW133989  10.457   4.534  13.125
77405SOL    HW233990  10.403   4.653  13.201
77406SOL     OW33991   0.056   6.273   2.285
77406SOL    HW133992   0.076   6.189   2.244
77406SOL    HW233993   0.141   6.311   2.304
77407SOL     OW33994   4.062   7.114   0.141
77407SOL    HW133995   3.992   7.054   0.166
77407SOL    HW233996   4.053   7.188   0.201
77408SOL     OW33997   8.564   5.009   0.796
77408SOL    HW133998   8.604   4.995   0.882
77408SOL    HW233999   8.564   5.104   0.785
77409SOL     OW34000   5.306  11.073  10.344
77409SOL    HW134001   5.355  10.994  10.365
77409SOL    HW234002   5.350  11.142  10.395
77410SOL     OW34003   8.745   7.620   9.033
77410SOL    HW134004   8.672   7.633   9.094
77410SOL    HW234005   8.773   7.529   9.048
77411SOL     OW34006   3.490   2.074  12.422
77411SOL    HW134007   3.436   2.065  12.501
77411SOL    HW234008   3.479   2.166  12.396
77412SOL     OW34009  11.884   6.293  12.937
77412SOL    HW134010  11.912   6.202  12.950
77412SOL    HW234011  11.910   6.313  12.847
77413SOL     OW34012   2.585   0.510   1.054
77413SOL    HW134013   2.567   0.428   1.100
77413SOL    HW234014   2.500   0.551   1.044
77414SOL     OW34015  10.732   5.563   3.453
77414SOL    HW134016  10.816   5.518   3.443
77414SOL    HW234017  10.733   5.632   3.386
77415SOL     OW34018  12.064  11.263   6.368
77415SOL    HW134019  12.023  11.177   6.357
77415SOL    HW234020  11.998  11.324   6.336
77416SOL     OW34021  10.648  12.624   9.441
77416SOL    HW134022  10.730  12.670   9.421
77416SOL    HW234023  10.661  12.537   9.404
77417SOL     OW34024  11.995  10.956   9.053
77417SOL    HW134025  12.018  10.868   9.023
77417SOL    HW234026  11.994  10.949   9.149
77418SOL     OW34027   7.479   1.579   1.696
77418SOL    HW134028   7.493   1.496   1.741
77418SOL    HW234029   7.385   1.596   1.705
77419SOL     OW34030   4.340  12.126   7.614
77419SOL    HW134031   4.368  12.057   7.674
77419SOL    HW234032   4.245  12.130   7.626
77420SOL     OW34033   5.485   1.086  11.579
77420SOL    HW134034   5.417   1.153  11.571
77420SOL    HW234035   5.559   1.121  11.529
77421SOL     OW34036  10.596   5.724   3.619
77421SOL    HW134037  10.572   5.667   3.691
77421SOL    HW234038  10.650   5.670   3.562
77422SOL     OW34039  12.134   2.085   2.197
77422SOL    HW134040  12.227   2.068   2.210
77422SOL    HW234041  12.091   2.001   2.213
77423SOL     OW34042  12.579  10.189  12.024
77423SOL    HW134043  12.668  10.159  12.044
77423SOL    HW234044  12.592  10.272  11.977
77424SOL     OW34045   4.435   2.572   5.137
77424SOL    HW134046   4.453   2.536   5.224
77424SOL    HW234047   4.340   2.569   5.130
77425SOL     OW34048   0.093  13.523   3.956
77425SOL    HW134049   0.029  13.529   4.027
77425SOL    HW234050   0.070  13.596   3.897
77426SOL     OW34051   7.132   8.618   8.476
77426SOL    HW134052   7.167   8.676   8.409
77426SOL    HW234053   7.189   8.542   8.475
77427SOL     OW34054  13.222   8.202   8.694
77427SOL    HW134055  13.292   8.138   8.678
77427SOL    HW234056  13.226   8.261   8.619
77428SOL     OW34057   4.426  13.870  12.098
77428SOL    HW134058   4.415  13.911  12.184
77428SOL    HW234059   4.511  13.826  12.103
77429SOL     OW34060   7.604  12.684   4.965
77429SOL    HW134061   7.674  12.695   4.900
77429SOL    HW234062   7.547  12.760   4.954
77430SOL     OW34063   2.152   8.384  13.031
77430SOL    HW134064   2.202   8.459  13.062
77430SOL    HW234065   2.117   8.343  13.111
77431SOL     OW34066  12.382  12.735   8.763
77431SOL    HW134067  12.351  12.661   8.815
77431SOL    HW234068  12.437  12.695   8.695
77432SOL     OW34069   9.552   1.496   5.222
77432SOL    HW134070   9.613   1.498   5.149
77432SOL    HW234071   9.566   1.410   5.263
77433SOL     OW34072  12.955  11.099   2.394
77433SOL    HW134073  12.934  11.090   2.487
77433SOL    HW234074  12.913  11.024   2.352
77434SOL     OW34075  14.106   8.069   7.466
77434SOL    HW134076  14.015   8.048   7.490
77434SOL    HW234077  14.101   8.157   7.428
77435SOL     OW34078  13.388   7.740   7.435
77435SOL    HW134079  13.448   7.803   7.396
77435SOL    HW234080  13.402   7.659   7.385
77436SOL     OW34081   7.724   5.431   9.498
77436SOL    HW134082   7.632   5.453   9.512
77436SOL    HW234083   7.766   5.514   9.473
77437SOL     OW34084   0.617   4.857   7.736
77437SOL    HW134085   0.680   4.821   7.673
77437SOL    HW234086   0.545   4.794   7.737
77438SOL     OW34087   8.469  13.554  14.273
77438SOL    HW134088   8.540  13.616  14.260
77438SOL    HW234089   8.450  13.519  14.185
77439SOL     OW34090   9.933   3.364   2.932
77439SOL    HW134091   9.938   3.407   3.017
77439SOL    HW234092   9.848   3.319   2.933
77440SOL     OW34093   1.544  10.623  10.602
77440SOL    HW134094   1.614  10.574  10.559
77440SOL    HW234095   1.580  10.710  10.615
77441SOL     OW34096  12.250   0.022   1.617
77441SOL    HW134097  12.184  14.835   1.622
77441SOL    HW234098  12.203   0.098   1.582
77442SOL     OW34099  14.809   4.478  12.809
77442SOL    HW134100  14.874   4.523  12.756
77442SOL    HW234101  14.841   4.388  12.817
77443SOL     OW34102   3.478  14.775   6.432
77443SOL    HW134103   3.515  14.812   6.351
77443SOL    HW234104   3.419  14.706   6.402
77444SOL     OW34105   3.196  14.504   0.695
77444SOL    HW134106   3.216  14.434   0.758
77444SOL    HW234107   3.222  14.585   0.740
77445SOL     OW34108   0.597   7.957  14.265
77445SOL    HW134109   0.582   7.866  14.290
77445SOL    HW234110   0.595   8.005  14.347
77446SOL     OW34111   5.233   0.686   9.749
77446SOL    HW134112   5.269   0.770   9.718
77446SOL    HW234113   5.282   0.667   9.829
77447SOL     OW34114   2.230  10.765  14.584
77447SOL    HW134115   2.237  10.857  14.559
77447SOL    HW234116   2.151  10.761  14.638
77448SOL     OW34117  11.951  10.478   5.654
77448SOL    HW134118  11.860  10.458   5.677
77448SOL    HW234119  11.944  10.539   5.581
77449SOL     OW34120  14.662   8.643   8.613
77449SOL    HW134121  14.679   8.556   8.648
77449SOL    HW234122  14.748   8.674   8.583
77450SOL     OW34123  11.836  10.927   0.452
77450SOL    HW134124  11.761  10.986   0.441
77450SOL    HW234125  11.904  10.964   0.395
77451SOL     OW34126   8.898   0.730   8.999
77451SOL    HW134127   8.815   0.698   9.032
77451SOL    HW234128   8.919   0.805   9.055
77452SOL     OW34129  10.379  12.946  13.861
77452SOL    HW134130  10.437  13.018  13.837
77452SOL    HW234131  10.425  12.868  13.831
77453SOL     OW34132  11.434   8.501  14.279
77453SOL    HW134133  11.529   8.497  14.275
77453SOL    HW234134  11.409   8.565  14.214
77454SOL     OW34135   1.339   3.489   9.087
77454SOL    HW134136   1.338   3.574   9.132
77454SOL    HW234137   1.338   3.425   9.158
77455SOL     OW34138  10.460   7.714  11.281
77455SOL    HW134139  10.392   7.679  11.224
77455SOL    HW234140  10.511   7.773  11.224
77456SOL     OW34141   9.432  11.804   4.098
77456SOL    HW134142   9.517  11.845   4.080
77456SOL    HW234143   9.406  11.765   4.015
77457SOL     OW34144  12.609   6.975   2.414
77457SOL    HW134145  12.514   6.988   2.422
77457SOL    HW234146  12.640   7.054   2.370
77458SOL     OW34147   7.381  13.037  11.270
77458SOL    HW134148   7.318  13.108  11.283
77458SOL    HW234149   7.467  13.078  11.282
77459SOL     OW34150  11.657   8.243  11.477
77459SOL    HW134151  11.654   8.233  11.573
77459SOL    HW234152  11.749   8.232  11.455
77460SOL     OW34153  13.566   3.555  12.858
77460SOL    HW134154  13.525   3.471  12.834
77460SOL    HW234155  13.632   3.532  12.922
77461SOL     OW34156   9.811  13.349  11.144
77461SOL    HW134157   9.775  13.419  11.090
77461SOL    HW234158   9.901  13.339  11.113
77462SOL     OW34159   6.312   4.509  11.312
77462SOL    HW134160   6.257   4.431  11.314
77462SOL    HW234161   6.393   4.481  11.270
77463SOL     OW34162  13.935  14.572   2.952
77463SOL    HW134163  14.006  14.516   2.984
77463SOL    HW234164  13.929  14.553   2.859
77464SOL     OW34165   7.639  12.689   1.019
77464SOL    HW134166   7.708  12.625   1.005
77464SOL    HW234167   7.569  12.662   0.960
77465SOL     OW34168   2.607   0.327   9.349
77465SOL    HW134169   2.676   0.371   9.398
77465SOL    HW234170   2.627   0.346   9.257
77466SOL     OW34171  12.642   8.227  11.971
77466SOL    HW134172  12.729   8.191  11.954
77466SOL    HW234173  12.659   8.306  12.022
77467SOL     OW34174   2.511  14.154   4.600
77467SOL    HW134175   2.435  14.145   4.657
77467SOL    HW234176   2.482  14.123   4.515
77468SOL     OW34177   2.281   0.878  13.486
77468SOL    HW134178   2.339   0.822  13.435
77468SOL    HW234179   2.337   0.917  13.552
77469SOL     OW34180  12.780   9.846  13.059
77469SOL    HW134181  12.698   9.864  13.013
77469SOL    HW234182  12.797   9.754  13.042
77470SOL     OW34183  12.235   5.768   8.933
77470SOL    HW134184  12.259   5.744   8.844
77470SOL    HW234185  12.208   5.860   8.927
77471SOL     OW34186   1.497  12.881   3.012
77471SOL    HW134187   1.558  12.951   2.987
77471SOL    HW234188   1.455  12.855   2.930
77472SOL     OW34189  13.927  10.761   4.742
77472SOL    HW134190  13.892  10.690   4.796
77472SOL    HW234191  13.975  10.716   4.673
77473SOL     OW34192   3.293   1.041  10.041
77473SOL    HW134193   3.239   1.058  10.119
77473SOL    HW234194   3.257   0.961  10.004
77474SOL     OW34195   0.035   5.382   5.787
77474SOL    HW134196   0.035   5.475   5.763
77474SOL    HW234197  14.827   5.353   5.771
77475SOL     OW34198  13.857  11.048  14.849
77475SOL    HW134199  13.800  11.035   0.043
77475SOL    HW234200  13.861  11.143  14.838
77476SOL     OW34201  12.651   5.780   4.019
77476SOL    HW134202  12.609   5.851   4.068
77476SOL    HW234203  12.718   5.746   4.078
77477SOL     OW34204   0.341   3.607  12.489
77477SOL    HW134205   0.356   3.595  12.583
77477SOL    HW234206   0.306   3.523  12.460
77478SOL     OW34207   1.335   5.858  10.820
77478SOL    HW134208   1.255   5.910  10.833
77478SOL    HW234209   1.326   5.822  10.731
77479SOL     OW34210  10.445   9.701  13.508
77479SOL    HW134211  10.379   9.761  13.543
77479SOL    HW234212  10.525   9.752  13.505
77480SOL     OW34213   3.393   0.067   6.959
77480SOL    HW134214   3.328   0.097   7.023
77480SOL    HW234215   3.464   0.030   7.013
77481SOL     OW34216   9.479  11.318  13.746
77481SOL    HW134217   9.408  11.258  13.770
77481SOL    HW234218   9.559  11.269  13.760
77482SOL     OW34219   4.707   0.164  12.596
77482SOL    HW134220   4.626   0.205  12.566
77482SOL    HW234221   4.732   0.106  12.524
77483SOL     OW34222  13.546   0.263  10.973
77483SOL    HW134223  13.544   0.168  10.967
77483SOL    HW234224  13.559   0.293  10.883
77484SOL     OW34225   1.102   5.253   7.139
77484SOL    HW134226   1.041   5.293   7.077
77484SOL    HW234227   1.189   5.277   7.106
77485SOL     OW34228   3.327  13.859  10.434
77485SOL    HW134229   3.338  13.918  10.359
77485SOL    HW234230   3.252  13.894  10.482
77486SOL     OW34231  13.632   8.081   9.270
77486SOL    HW134232  13.667   7.994   9.250
77486SOL    HW234233  13.610   8.078   9.363
77487SOL     OW34234  13.600   4.250   8.662
77487SOL    HW134235  13.583   4.202   8.581
77487SOL    HW234236  13.646   4.187   8.718
77488SOL     OW34237   6.386   8.625  11.793
77488SOL    HW134238   6.363   8.645  11.702
77488SOL    HW234239   6.335   8.687  11.845
77489SOL     OW34240   1.820   7.293   1.228
77489SOL    HW134241   1.772   7.351   1.170
77489SOL    HW234242   1.850   7.222   1.171
77490SOL     OW34243   6.835   2.487  11.893
77490SOL    HW134244   6.904   2.439  11.941
77490SOL    HW234245   6.883   2.535  11.825
77491SOL     OW34246  10.175  14.634   8.077
77491SOL    HW134247  10.172  14.725   8.105
77491SOL    HW234248  10.267  14.619   8.055
77492SOL     OW34249   0.565  11.245  14.208
77492SOL    HW134250   0.653  11.210  14.216
77492SOL    HW234251   0.571  11.334  14.244
77493SOL     OW34252  10.595   2.415  14.381
77493SOL    HW134253  10.527   2.472  14.415
77493SOL    HW234254  10.608   2.443  14.290
77494SOL     OW34255  14.199   2.592   8.479
77494SOL    HW134256  14.176   2.502   8.457
77494SOL    HW234257  14.117   2.631   8.509
77495SOL     OW34258  10.837   9.800  10.636
77495SOL    HW134259  10.752   9.811  10.678
77495SOL    HW234260  10.826   9.723  10.581
77496SOL     OW34261   3.322   7.685   9.781
77496SOL    HW134262   3.313   7.772   9.820
77496SOL    HW234263   3.415   7.677   9.759
77497SOL     OW34264   4.669  10.739   7.977
77497SOL    HW134265   4.763  10.759   7.978
77497SOL    HW234266   4.644  10.739   8.070
77498SOL     OW34267  14.765   0.728   6.203
77498SOL    HW134268  14.681   0.773   6.191
77498SOL    HW234269  14.831   0.797   6.195
77499SOL     OW34270  11.521   5.142  12.182
77499SOL    HW134271  11.455   5.177  12.121
77499SOL    HW234272  11.593   5.206  12.179
77500SOL     OW34273  14.641   4.184  13.002
77500SOL    HW134274  14.626   4.140  12.919
77500SOL    HW234275  14.615   4.119  13.068
77501SOL     OW34276  12.348  13.863   0.739
77501SOL    HW134277  12.366  13.905   0.655
77501SOL    HW234278  12.391  13.919   0.803
77502SOL     OW34279   1.939  10.388   2.938
77502SOL    HW134280   1.866  10.448   2.922
77502SOL    HW234281   1.899  10.314   2.984
77503SOL     OW34282  12.924   2.117  10.118
77503SOL    HW134283  13.004   2.163  10.092
77503SOL    HW234284  12.956   2.039  10.164
77504SOL     OW34285   5.778  10.832   7.075
77504SOL    HW134286   5.767  10.882   6.994
77504SOL    HW234287   5.706  10.769   7.074
77505SOL     OW34288   9.200   7.533   9.751
77505SOL    HW134289   9.123   7.565   9.704
77505SOL    HW234290   9.173   7.446   9.783
77506SOL     OW34291   4.098   4.355   6.332
77506SOL    HW134292   4.060   4.279   6.377
77506SOL    HW234293   4.189   4.330   6.316
77507SOL     OW34294  10.513  12.689   4.523
77507SOL    HW134295  10.569  12.613   4.534
77507SOL    HW234296  10.526  12.717   4.433
77508SOL     OW34297   5.812  10.464  11.212
77508SOL    HW134298   5.858  10.531  11.262
77508SOL    HW234299   5.874  10.437  11.144
77509SOL     OW34300   2.274  10.685  13.147
77509SOL    HW134301   2.299  10.606  13.195
77509SOL    HW234302   2.270  10.753  13.214
77510SOL     OW34303   2.326   1.704  14.599
77510SOL    HW134304   2.274   1.624  14.591
77510SOL    HW234305   2.338   1.734  14.509
77511SOL     OW34306   9.284  10.154  12.131
77511SOL    HW134307   9.317  10.243  12.123
77511SOL    HW234308   9.222  10.145  12.058
77512SOL     OW34309  14.301  14.738  13.434
77512SOL    HW134310  14.383  14.689  13.430
77512SOL    HW234311  14.268  14.738  13.344
77513SOL     OW34312   2.253   5.217   3.004
77513SOL    HW134313   2.297   5.254   3.081
77513SOL    HW234314   2.160   5.221   3.026
77514SOL     OW34315   4.288   5.537   8.559
77514SOL    HW134316   4.324   5.622   8.533
77514SOL    HW234317   4.195   5.545   8.540
77515SOL     OW34318  10.018   6.090   3.826
77515SOL    HW134319  10.027   6.002   3.790
77515SOL    HW234320  10.096   6.103   3.880
77516SOL     OW34321   0.826   3.317  11.957
77516SOL    HW134322   0.815   3.291  12.048
77516SOL    HW234323   0.746   3.366  11.936
77517SOL     OW34324   4.620  12.627   8.742
77517SOL    HW134325   4.566  12.595   8.670
77517SOL    HW234326   4.558  12.658   8.807
77518SOL     OW34327   4.756   8.600  14.635
77518SOL    HW134328   4.696   8.579  14.707
77518SOL    HW234329   4.700   8.596  14.556
77519SOL     OW34330  13.702   0.064   2.837
77519SOL    HW134331  13.660   0.087   2.753
77519SOL    HW234332  13.693  14.851   2.843
77520SOL     OW34333   8.161   5.149   0.386
77520SOL    HW134334   8.087   5.130   0.328
77520SOL    HW234335   8.184   5.240   0.367
77521SOL     OW34336  10.479  14.462   8.571
77521SOL    HW134337  10.573  14.475   8.562
77521SOL    HW234338  10.449  14.442   8.482
77522SOL     OW34339   3.033   5.343   2.410
77522SOL    HW134340   2.959   5.329   2.352
77522SOL    HW234341   3.109   5.316   2.358
77523SOL     OW34342   7.200  10.377   3.040
77523SOL    HW134343   7.128  10.418   2.992
77523SOL    HW234344   7.159  10.304   3.086
77524SOL     OW34345   2.759   3.906   5.367
77524SOL    HW134346   2.692   3.975   5.365
77524SOL    HW234347   2.712   3.827   5.339
77525SOL     OW34348  12.137   1.924   2.676
77525SOL    HW134349  12.227   1.893   2.689
77525SOL    HW234350  12.082   1.857   2.717
77526SOL     OW34351  10.017   1.852  10.876
77526SOL    HW134352   9.980   1.939  10.885
77526SOL    HW234353   9.950   1.801  10.831
77527SOL     OW34354   6.121  10.708   2.053
77527SOL    HW134355   6.200  10.719   2.001
77527SOL    HW234356   6.107  10.614   2.056
77528SOL     OW34357   8.059   9.092   5.962
77528SOL    HW134358   8.137   9.091   6.017
77528SOL    HW234359   7.993   9.046   6.014
77529SOL     OW34360  13.934   0.815  11.368
77529SOL    HW134361  13.974   0.846  11.287
77529SOL    HW234362  13.894   0.732  11.345
77530SOL     OW34363   7.649   1.687   7.390
77530SOL    HW134364   7.632   1.635   7.468
77530SOL    HW234365   7.624   1.629   7.317
77531SOL     OW34366   8.620   4.014   4.213
77531SOL    HW134367   8.556   4.022   4.142
77531SOL    HW234368   8.576   3.960   4.279
77532SOL     OW34369   9.768   5.611  12.194
77532SOL    HW134370   9.809   5.615  12.280
77532SOL    HW234371   9.813   5.678  12.143
77533SOL     OW34372   4.471   1.617   7.894
77533SOL    HW134373   4.412   1.628   7.819
77533SOL    HW234374   4.525   1.541   7.871
77534SOL     OW34375   0.428   3.706   9.139
77534SOL    HW134376   0.478   3.624   9.146
77534SOL    HW234377   0.463   3.761   9.209
77535SOL     OW34378   4.347   0.510   0.000
77535SOL    HW134379   4.373   0.536   0.089
77535SOL    HW234380   4.392   0.573  14.824
77536SOL     OW34381   3.616  12.824   9.817
77536SOL    HW134382   3.664  12.742   9.827
77536SOL    HW234383   3.554  12.807   9.746
77537SOL     OW34384  10.008   5.109   5.477
77537SOL    HW134385  10.043   5.054   5.547
77537SOL    HW234386  10.077   5.172   5.458
77538SOL     OW34387  10.645   6.020  11.200
77538SOL    HW134388  10.708   6.021  11.127
77538SOL    HW234389  10.700   6.015  11.278
77539SOL     OW34390   3.868   9.205   5.944
77539SOL    HW134391   3.865   9.186   6.037
77539SOL    HW234392   3.940   9.268   5.934
77540SOL     OW34393   2.762  12.565   3.420
77540SOL    HW134394   2.801  12.647   3.388
77540SOL    HW234395   2.834  12.518   3.461
77541SOL     OW34396   3.544   4.706   2.035
77541SOL    HW134397   3.614   4.710   1.970
77541SOL    HW234398   3.548   4.617   2.071
77542SOL     OW34399   6.692   6.618   0.544
77542SOL    HW134400   6.615   6.570   0.574
77542SOL    HW234401   6.658   6.688   0.489
77543SOL     OW34402   0.619   1.873   0.023
77543SOL    HW134403   0.656   1.959   0.006
77543SOL    HW234404   0.544   1.867  14.845
77544SOL     OW34405   7.805   9.152   5.261
77544SOL    HW134406   7.767   9.112   5.339
77544SOL    HW234407   7.789   9.246   5.271
77545SOL     OW34408  12.469  13.398  10.426
77545SOL    HW134409  12.388  13.448  10.415
77545SOL    HW234410  12.444  13.323  10.480
77546SOL     OW34411   6.093   1.786   0.722
77546SOL    HW134412   5.998   1.780   0.727
77546SOL    HW234413   6.123   1.760   0.809
77547SOL     OW34414  11.891   4.198  14.133
77547SOL    HW134415  11.913   4.288  14.110
77547SOL    HW234416  11.908   4.192  14.227
77548SOL     OW34417  10.878  14.690   1.401
77548SOL    HW134418  10.925  14.739   1.469
77548SOL    HW234419  10.944  14.669   1.336
77549SOL     OW34420   4.853   6.832   4.521
77549SOL    HW134421   4.870   6.737   4.522
77549SOL    HW234422   4.758   6.839   4.523
77550SOL     OW34423  10.144   2.761   3.100
77550SOL    HW134424  10.189   2.719   3.027
77550SOL    HW234425  10.068   2.706   3.116
77551SOL     OW34426   7.329  10.436  12.975
77551SOL    HW134427   7.269  10.455  12.903
77551SOL    HW234428   7.291  10.481  13.051
77552SOL     OW34429   5.022   3.183   3.381
77552SOL    HW134430   5.015   3.161   3.288
77552SOL    HW234431   5.115   3.201   3.395
77553SOL     OW34432   8.522  11.238   7.223
77553SOL    HW134433   8.585  11.304   7.254
77553SOL    HW234434   8.460  11.229   7.295
77554SOL     OW34435   9.678   6.876   1.380
77554SOL    HW134436   9.718   6.961   1.395
77554SOL    HW234437   9.748   6.813   1.398
77555SOL     OW34438  10.066  14.203  11.703
77555SOL    HW134439  10.114  14.120  11.703
77555SOL    HW234440  10.006  14.197  11.777
77556SOL     OW34441  11.786  11.460   9.671
77556SOL    HW134442  11.695  11.485   9.685
77556SOL    HW234443  11.826  11.537   9.633
77557SOL     OW34444   5.559   6.026   6.644
77557SOL    HW134445   5.624   6.090   6.616
77557SOL    HW234446   5.489   6.079   6.682
77558SOL     OW34447   5.468  11.844   0.785
77558SOL    HW134448   5.393  11.840   0.726
77558SOL    HW234449   5.445  11.785   0.857
77559SOL     OW34450   5.704  13.249   5.921
77559SOL    HW134451   5.713  13.270   6.013
77559SOL    HW234452   5.771  13.301   5.877
77560SOL     OW34453  14.713  12.106   9.988
77560SOL    HW134454  14.646  12.135  10.050
77560SOL    HW234455  14.794  12.148  10.018
77561SOL     OW34456   1.401   3.761   2.835
77561SOL    HW134457   1.384   3.696   2.768
77561SOL    HW234458   1.496   3.770   2.838
77562SOL     OW34459   2.266   3.446   9.136
77562SOL    HW134460   2.295   3.491   9.057
77562SOL    HW234461   2.347   3.411   9.175
77563SOL     OW34462   6.728   6.880   8.092
77563SOL    HW134463   6.674   6.896   8.015
77563SOL    HW234464   6.729   6.963   8.139
77564SOL     OW34465  14.683   2.675   0.138
77564SOL    HW134466  14.644   2.681   0.225
77564SOL    HW234467  14.642   2.746   0.088
77565SOL     OW34468   3.900  11.888  13.973
77565SOL    HW134469   3.953  11.908  14.050
77565SOL    HW234470   3.963  11.874  13.902
77566SOL     OW34471   1.626   2.947   4.825
77566SOL    HW134472   1.567   3.023   4.832
77566SOL    HW234473   1.713   2.985   4.811
77567SOL     OW34474  10.502   4.446  12.956
77567SOL    HW134475  10.457   4.418  12.876
77567SOL    HW234476  10.581   4.391  12.958
77568SOL     OW34477  11.937  11.960   5.221
77568SOL    HW134478  12.018  11.922   5.186
77568SOL    HW234479  11.955  11.969   5.315
77569SOL     OW34480   3.315  12.319   5.436
77569SOL    HW134481   3.304  12.325   5.531
77569SOL    HW234482   3.402  12.357   5.419
77570SOL     OW34483   0.079   0.840   7.647
77570SOL    HW134484   0.062   0.820   7.555
77570SOL    HW234485   0.135   0.769   7.677
77571SOL     OW34486  11.587   5.532   5.443
77571SOL    HW134487  11.635   5.604   5.483
77571SOL    HW234488  11.496   5.549   5.465
77572SOL     OW34489   3.365   8.713  14.423
77572SOL    HW134490   3.270   8.716  14.410
77572SOL    HW234491   3.382   8.622  14.448
77573SOL     OW34492   7.584   8.479   8.769
77573SOL    HW134493   7.612   8.532   8.843
77573SOL    HW234494   7.609   8.389   8.792
77574SOL     OW34495   6.160  12.537  13.183
77574SOL    HW134496   6.192  12.472  13.121
77574SOL    HW234497   6.108  12.487  13.247
77575SOL     OW34498   9.205   2.976  12.764
77575SOL    HW134499   9.236   2.972  12.855
77575SOL    HW234500   9.252   3.050  12.727
77576SOL     OW34501   5.684   6.137   5.745
77576SOL    HW134502   5.674   6.163   5.837
77576SOL    HW234503   5.628   6.060   5.735
77577SOL     OW34504   8.195   2.895   4.862
77577SOL    HW134505   8.168   2.858   4.777
77577SOL    HW234506   8.246   2.972   4.839
77578SOL     OW34507   9.432   4.440   3.922
77578SOL    HW134508   9.398   4.352   3.937
77578SOL    HW234509   9.482   4.433   3.841
77579SOL     OW34510  10.978   1.331  14.574
77579SOL    HW134511  10.894   1.372  14.555
77579SOL    HW234512  10.958   1.239  14.588
77580SOL     OW34513   9.579  13.863   7.998
77580SOL    HW134514   9.484  13.852   8.002
77580SOL    HW234515   9.604  13.894   8.085
77581SOL     OW34516   8.264  12.686  11.822
77581SOL    HW134517   8.205  12.655  11.891
77581SOL    HW234518   8.318  12.609  11.801
77582SOL     OW34519   1.875   1.631   6.710
77582SOL    HW134520   1.899   1.652   6.620
77582SOL    HW234521   1.793   1.679   6.725
77583SOL     OW34522   3.855  14.364  11.381
77583SOL    HW134523   3.810  14.302  11.324
77583SOL    HW234524   3.892  14.311  11.451
77584SOL     OW34525   2.992   6.202   0.546
77584SOL    HW134526   3.054   6.209   0.618
77584SOL    HW234527   2.911   6.240   0.580
77585SOL     OW34528   4.768   8.395   9.226
77585SOL    HW134529   4.809   8.316   9.261
77585SOL    HW234530   4.695   8.363   9.172
77586SOL     OW34531   5.259   3.612   5.874
77586SOL    HW134532   5.298   3.693   5.907
77586SOL    HW234533   5.185   3.641   5.821
77587SOL     OW34534  10.607  11.318   3.467
77587SOL    HW134535  10.572  11.281   3.386
77587SOL    HW234536  10.579  11.409   3.466
77588SOL     OW34537   2.034   2.372   9.617
77588SOL    HW134538   2.044   2.344   9.707
77588SOL    HW234539   1.966   2.440   9.620
77589SOL     OW34540  12.356  14.202   7.061
77589SOL    HW134541  12.308  14.182   6.980
77589SOL    HW234542  12.293  14.250   7.115
77590SOL     OW34543   3.718   2.318  12.304
77590SOL    HW134544   3.715   2.411  12.281
77590SOL    HW234545   3.627   2.294  12.322
77591SOL     OW34546   2.464   2.145   7.716
77591SOL    HW134547   2.507   2.196   7.647
77591SOL    HW234548   2.516   2.066   7.724
77592SOL     OW34549   6.258  11.963  13.885
77592SOL    HW134550   6.302  11.918  13.958
77592SOL    HW234551   6.329  12.003  13.835
77593SOL     OW34552   7.068   0.799   1.874
77593SOL    HW134553   7.055   0.766   1.963
77593SOL    HW234554   7.023   0.735   1.818
77594SOL     OW34555  14.744  10.475   4.509
77594SOL    HW134556  14.765  10.550   4.454
77594SOL    HW234557  14.714  10.512   4.592
77595SOL     OW34558   2.233   7.169   0.197
77595SOL    HW134559   2.230   7.171   0.101
77595SOL    HW234560   2.321   7.199   0.220
77596SOL     OW34561   4.829   1.887   7.676
77596SOL    HW134562   4.908   1.919   7.720
77596SOL    HW234563   4.842   1.792   7.670
77597SOL     OW34564   1.142   4.137   4.485
77597SOL    HW134565   1.175   4.222   4.511
77597SOL    HW234566   1.174   4.124   4.396
77598SOL     OW34567   2.067   6.522  14.739
77598SOL    HW134568   2.023   6.569  14.809
77598SOL    HW234569   2.036   6.432  14.747
77599SOL     OW34570  11.996  13.656   9.130
77599SOL    HW134571  12.051  13.733   9.148
77599SOL    HW234572  12.048  13.603   9.069
77600SOL     OW34573  10.612   5.327   5.592
77600SOL    HW134574  10.599   5.402   5.650
77600SOL    HW234575  10.652   5.260   5.647
77601SOL     OW34576   7.707  10.208   4.977
77601SOL    HW134577   7.725  10.235   5.068
77601SOL    HW234578   7.677  10.288   4.934
77602SOL     OW34579  12.241  14.063  12.786
77602SOL    HW134580  12.163  14.099  12.746
77602SOL    HW234581  12.210  14.019  12.865
77603SOL     OW34582   2.691  10.694   4.189
77603SOL    HW134583   2.670  10.783   4.162
77603SOL    HW234584   2.706  10.700   4.283
77604SOL     OW34585   9.787  11.389   5.223
77604SOL    HW134586   9.847  11.457   5.253
77604SOL    HW234587   9.705  11.406   5.270
77605SOL     OW34588  13.917  13.499   9.745
77605SOL    HW134589  13.851  13.490   9.677
77605SOL    HW234590  13.887  13.572   9.799
77606SOL     OW34591  13.998   6.135   8.956
77606SOL    HW134592  14.010   6.071   9.026
77606SOL    HW234593  14.043   6.096   8.881
77607SOL     OW34594   2.440  13.047   1.637
77607SOL    HW134595   2.468  13.133   1.668
77607SOL    HW234596   2.521  12.995   1.631
77608SOL     OW34597   4.061   7.031   0.860
77608SOL    HW134598   3.976   7.037   0.817
77608SOL    HW234599   4.051   7.080   0.941
77609SOL     OW34600   2.377  12.760   2.888
77609SOL    HW134601   2.338  12.839   2.925
77609SOL    HW234602   2.309  12.693   2.896
77610SOL     OW34603   8.033   9.793  14.143
77610SOL    HW134604   8.017   9.699  14.147
77610SOL    HW234605   7.957   9.828  14.097
77611SOL     OW34606  14.801  14.342   0.346
77611SOL    HW134607  14.812  14.432   0.315
77611SOL    HW234608  14.711  14.320   0.324
77612SOL     OW34609  13.066   3.526  11.779
77612SOL    HW134610  13.129   3.527  11.708
77612SOL    HW234611  12.981   3.540  11.737
77613SOL     OW34612   1.973   5.947  14.052
77613SOL    HW134613   1.954   5.890  13.977
77613SOL    HW234614   1.900   6.010  14.053
77614SOL     OW34615   3.244   5.261   5.428
77614SOL    HW134616   3.164   5.254   5.376
77614SOL    HW234617   3.277   5.349   5.409
77615SOL     OW34618   0.520   2.057  12.198
77615SOL    HW134619   0.506   2.094  12.285
77615SOL    HW234620   0.540   1.965  12.214
77616SOL     OW34621  13.732   9.643   0.608
77616SOL    HW134622  13.788   9.692   0.548
77616SOL    HW234623  13.706   9.707   0.674
77617SOL     OW34624   3.644   1.100   9.301
77617SOL    HW134625   3.589   1.037   9.254
77617SOL    HW234626   3.586   1.136   9.368
77618SOL     OW34627   8.830  10.008  14.171
77618SOL    HW134628   8.779  10.004  14.091
77618SOL    HW234629   8.906  10.062  14.149
77619SOL     OW34630   4.883  14.854   2.511
77619SOL    HW134631   4.878   0.063   2.541
77619SOL    HW234632   4.873  14.801   2.591
77620SOL     OW34633  12.388  10.037   7.999
77620SOL    HW134634  12.341  10.089   7.934
77620SOL    HW234635  12.336  10.047   8.079
77621SOL     OW34636   2.458   7.731  11.543
77621SOL    HW134637   2.492   7.818  11.564
77621SOL    HW234638   2.504   7.672  11.604
77622SOL     OW34639   4.524   9.625  14.393
77622SOL    HW134640   4.558   9.690  14.332
77622SOL    HW234641   4.433   9.613  14.367
77623SOL     OW34642   7.839   7.450   1.194
77623SOL    HW134643   7.811   7.446   1.102
77623SOL    HW234644   7.757   7.455   1.243
77624SOL     OW34645   9.026   3.639   2.461
77624SOL    HW134646   8.948   3.597   2.499
77624SOL    HW234647   8.999   3.665   2.373
77625SOL     OW34648  13.644   2.065   0.987
77625SOL    HW134649  13.683   1.982   0.959
77625SOL    HW234650  13.581   2.040   1.055
77626SOL     OW34651   2.167   9.974   7.698
77626SOL    HW134652   2.112   9.897   7.707
77626SOL    HW234653   2.120  10.029   7.635
77627SOL     OW34654  11.555  12.075   5.693
77627SOL    HW134655  11.500  12.046   5.620
77627SOL    HW234656  11.645  12.057   5.663
77628SOL     OW34657  12.262  10.469   5.858
77628SOL    HW134658  12.204  10.437   5.790
77628SOL    HW234659  12.265  10.399   5.923
77629SOL     OW34660   6.350   5.219  12.074
77629SOL    HW134661   6.402   5.146  12.106
77629SOL    HW234662   6.291   5.240  12.145
77630SOL     OW34663  13.860   0.043   8.913
77630SOL    HW134664  13.814   0.103   8.855
77630SOL    HW234665  13.816   0.053   8.998
77631SOL     OW34666  10.062   4.844   9.392
77631SOL    HW134667  10.030   4.844   9.482
77631SOL    HW234668   9.983   4.833   9.339
77632SOL     OW34669   4.146   9.484  13.344
77632SOL    HW134670   4.121   9.564  13.298
77632SOL    HW234671   4.093   9.415  13.304
77633SOL     OW34672   7.868  12.438  10.729
77633SOL    HW134673   7.906  12.486  10.655
77633SOL    HW234674   7.824  12.504  10.781
77634SOL     OW34675  13.396  10.518   4.222
77634SOL    HW134676  13.348  10.439   4.200
77634SOL    HW234677  13.488  10.494   4.212
77635SOL     OW34678  11.580  11.029   5.438
77635SOL    HW134679  11.669  11.059   5.459
77635SOL    HW234680  11.547  11.094   5.376
77636SOL     OW34681   9.332  10.316   7.067
77636SOL    HW134682   9.324  10.253   6.995
77636SOL    HW234683   9.252  10.368   7.062
77637SOL     OW34684  12.417   6.348   2.849
77637SOL    HW134685  12.371   6.309   2.774
77637SOL    HW234686  12.374   6.312   2.926
77638SOL     OW34687  10.323  14.592   1.980
77638SOL    HW134688  10.239  14.585   2.025
77638SOL    HW234689  10.387  14.565   2.045
77639SOL     OW34690  13.230   6.267  14.677
77639SOL    HW134691  13.225   6.176  14.649
77639SOL    HW234692  13.288   6.266  14.753
77640SOL     OW34693  14.423   9.027   4.138
77640SOL    HW134694  14.456   9.010   4.226
77640SOL    HW234695  14.430   9.122   4.127
77641SOL     OW34696   7.147  13.781   0.415
77641SOL    HW134697   7.237  13.772   0.445
77641SOL    HW234698   7.102  13.705   0.450
77642SOL     OW34699   7.249   2.220   1.562
77642SOL    HW134700   7.244   2.307   1.601
77642SOL    HW234701   7.158   2.191   1.558
77643SOL     OW34702   9.679  14.257   7.018
77643SOL    HW134703   9.759  14.254   7.070
77643SOL    HW234704   9.658  14.166   6.999
77644SOL     OW34705   5.529   5.860  13.612
77644SOL    HW134706   5.610   5.810  13.618
77644SOL    HW234707   5.538   5.912  13.532
77645SOL     OW34708   3.173   6.241   0.731
77645SOL    HW134709   3.164   6.219   0.823
77645SOL    HW234710   3.174   6.337   0.728
77646SOL     OW34711   5.019   9.720  10.390
77646SOL    HW134712   5.101   9.671  10.387
77646SOL    HW234713   4.961   9.675  10.328
77647SOL     OW34714   0.303  11.613   3.514
77647SOL    HW134715   0.283  11.545   3.578
77647SOL    HW234716   0.375  11.662   3.553
77648SOL     OW34717  12.007  11.534   1.826
77648SOL    HW134718  11.991  11.481   1.748
77648SOL    HW234719  12.081  11.590   1.802
77649SOL     OW34720   3.725   9.956  14.767
77649SOL    HW134721   3.758   9.898  14.836
77649SOL    HW234722   3.641   9.917  14.742
77650SOL     OW34723   7.847  10.311   4.454
77650SOL    HW134724   7.789  10.367   4.402
77650SOL    HW234725   7.877  10.367   4.526
77651SOL     OW34726  14.683   3.285  10.259
77651SOL    HW134727  14.645   3.318  10.178
77651SOL    HW234728  14.762   3.338  10.272
77652SOL     OW34729  13.676   9.224   5.043
77652SOL    HW134730  13.715   9.254   5.125
77652SOL    HW234731  13.693   9.130   5.041
77653SOL     OW34732   3.953  10.185   3.426
77653SOL    HW134733   3.989  10.267   3.393
77653SOL    HW234734   4.009  10.162   3.500
77654SOL     OW34735  12.966   3.107   6.812
77654SOL    HW134736  13.040   3.154   6.851
77654SOL    HW234737  13.000   3.019   6.795
77655SOL     OW34738   3.341   0.805   7.478
77655SOL    HW134739   3.253   0.768   7.471
77655SOL    HW234740   3.338   0.858   7.557
77656SOL     OW34741  13.228   9.642   7.267
77656SOL    HW134742  13.163   9.578   7.295
77656SOL    HW234743  13.262   9.608   7.184
77657SOL     OW34744   2.651   5.028  13.580
77657SOL    HW134745   2.659   5.097  13.646
77657SOL    HW234746   2.640   5.075  13.497
77658SOL     OW34747   6.579   4.465  13.714
77658SOL    HW134748   6.663   4.432  13.683
77658SOL    HW234749   6.514   4.414  13.665
77659SOL     OW34750   0.987  13.672   3.259
77659SOL    HW134751   1.034  13.684   3.342
77659SOL    HW234752   0.935  13.752   3.250
77660SOL     OW34753   6.609  13.094  12.621
77660SOL    HW134754   6.634  13.002  12.626
77660SOL    HW234755   6.682  13.141  12.662
77661SOL     OW34756  10.421  12.454   2.625
77661SOL    HW134757  10.454  12.480   2.539
77661SOL    HW234758  10.380  12.533   2.660
77662SOL     OW34759   0.849  14.618  11.141
77662SOL    HW134760   0.862  14.524  11.140
77662SOL    HW234761   0.933  14.654  11.170
77663SOL     OW34762   0.420  11.812  12.883
77663SOL    HW134763   0.423  11.895  12.834
77663SOL    HW234764   0.337  11.815  12.930
77664SOL     OW34765   8.335  12.919   4.270
77664SOL    HW134766   8.377  12.883   4.192
77664SOL    HW234767   8.338  13.014   4.257
77665SOL     OW34768   9.451  13.830  14.737
77665SOL    HW134769   9.477  13.824  14.829
77665SOL    HW234770   9.374  13.886  14.737
77666SOL     OW34771  12.809   3.091   7.864
77666SOL    HW134772  12.851   3.137   7.792
77666SOL    HW234773  12.880   3.038   7.903
77667SOL     OW34774   8.037   6.645   6.666
77667SOL    HW134775   7.957   6.632   6.717
77667SOL    HW234776   8.091   6.568   6.685
77668SOL     OW34777   6.965   9.889   0.774
77668SOL    HW134778   7.018   9.923   0.846
77668SOL    HW234779   6.962   9.794   0.788
77669SOL     OW34780   3.369   9.457   3.544
77669SOL    HW134781   3.284   9.473   3.586
77669SOL    HW234782   3.422   9.532   3.569
77670SOL     OW34783  11.023  14.517  10.196
77670SOL    HW134784  11.089  14.479  10.138
77670SOL    HW234785  10.957  14.449  10.205
77671SOL     OW34786  12.441   0.932   8.280
77671SOL    HW134787  12.357   0.977   8.266
77671SOL    HW234788  12.434   0.853   8.227
77672SOL     OW34789  13.920   0.373   8.553
77672SOL    HW134790  13.837   0.358   8.507
77672SOL    HW234791  13.962   0.288   8.556
77673SOL     OW34792   0.636  12.009   4.503
77673SOL    HW134793   0.670  12.019   4.414
77673SOL    HW234794   0.543  12.031   4.496
77674SOL     OW34795   6.825  13.836  12.973
77674SOL    HW134796   6.835  13.912  13.031
77674SOL    HW234797   6.803  13.764  13.031
77675SOL     OW34798  11.881  10.361   4.382
77675SOL    HW134799  11.960  10.414   4.372
77675SOL    HW234800  11.834  10.401   4.456
77676SOL     OW34801   8.910   9.420  10.207
77676SOL    HW134802   8.842   9.389  10.266
77676SOL    HW234803   8.930   9.345  10.151
77677SOL     OW34804   3.096   5.845   3.108
77677SOL    HW134805   3.072   5.820   3.018
77677SOL    HW234806   3.032   5.800   3.163
77678SOL     OW34807   1.711   4.996   8.963
77678SOL    HW134808   1.745   5.074   9.008
77678SOL    HW234809   1.767   4.925   8.994
77679SOL     OW34810  12.959  12.913   7.154
77679SOL    HW134811  13.031  12.918   7.091
77679SOL    HW234812  13.003  12.905   7.239
77680SOL     OW34813   6.811   5.104   9.224
77680SOL    HW134814   6.806   5.198   9.241
77680SOL    HW234815   6.747   5.088   9.154
77681SOL     OW34816   2.045  14.700   9.912
77681SOL    HW134817   2.036  14.701  10.007
77681SOL    HW234818   1.983  14.765   9.880
77682SOL     OW34819   5.049   7.069  13.922
77682SOL    HW134820   5.095   6.993  13.959
77682SOL    HW234821   4.976   7.085  13.981
77683SOL     OW34822   1.369  12.952   1.506
77683SOL    HW134823   1.457  12.920   1.489
77683SOL    HW234824   1.377  13.003   1.587
77684SOL     OW34825   8.655  10.460   1.751
77684SOL    HW134826   8.616  10.457   1.664
77684SOL    HW234827   8.747  10.482   1.736
77685SOL     OW34828  13.186   9.218   6.682
77685SOL    HW134829  13.227   9.131   6.678
77685SOL    HW234830  13.180   9.246   6.591
77686SOL     OW34831   4.582  14.091   4.106
77686SOL    HW134832   4.541  14.162   4.057
77686SOL    HW234833   4.660  14.130   4.144
77687SOL     OW34834   2.412   5.031   8.340
77687SOL    HW134835   2.410   5.014   8.434
77687SOL    HW234836   2.344   4.975   8.303
77688SOL     OW34837  14.358  14.144  12.507
77688SOL    HW134838  14.382  14.171  12.595
77688SOL    HW234839  14.439  14.108  12.470
77689SOL     OW34840   5.769   5.958   0.941
77689SOL    HW134841   5.722   5.905   1.005
77689SOL    HW234842   5.857   5.919   0.939
77690SOL     OW34843   3.181   1.594   1.584
77690SOL    HW134844   3.128   1.614   1.507
77690SOL    HW234845   3.246   1.663   1.588
77691SOL     OW34846   7.398   1.543  12.732
77691SOL    HW134847   7.473   1.597  12.709
77691SOL    HW234848   7.414   1.460  12.688
77692SOL     OW34849  10.718  10.997  12.370
77692SOL    HW134850  10.768  11.042  12.438
77692SOL    HW234851  10.785  10.959  12.312
77693SOL     OW34852   9.027   6.849   3.450
77693SOL    HW134853   8.958   6.868   3.513
77693SOL    HW234854   8.986   6.791   3.386
77694SOL     OW34855   7.645   7.060  14.034
77694SOL    HW134856   7.618   7.152  14.037
77694SOL    HW234857   7.725   7.060  13.982
77695SOL     OW34858   3.784  12.673  13.219
77695SOL    HW134859   3.728  12.702  13.291
77695SOL    HW234860   3.826  12.754  13.188
77696SOL     OW34861  11.504   1.956   0.396
77696SOL    HW134862  11.454   2.027   0.356
77696SOL    HW234863  11.439   1.888   0.414
77697SOL     OW34864   4.357   7.922   8.650
77697SOL    HW134865   4.337   8.004   8.604
77697SOL    HW234866   4.440   7.894   8.612
77698SOL     OW34867  10.563   1.652   7.261
77698SOL    HW134868  10.656   1.645   7.280
77698SOL    HW234869  10.553   1.611   7.175
77699SOL     OW34870   1.455  10.629   5.470
77699SOL    HW134871   1.396  10.614   5.397
77699SOL    HW234872   1.501  10.710   5.447
77700SOL     OW34873   7.367   3.810   0.206
77700SOL    HW134874   7.309   3.856   0.146
77700SOL    HW234875   7.358   3.717   0.182
77701SOL     OW34876   7.501   3.286   3.439
77701SOL    HW134877   7.524   3.289   3.532
77701SOL    HW234878   7.462   3.371   3.420
77702SOL     OW34879   4.508   2.980  12.162
77702SOL    HW134880   4.417   2.964  12.187
77702SOL    HW234881   4.520   2.929  12.081
77703SOL     OW34882   8.763   8.901   2.668
77703SOL    HW134883   8.766   8.810   2.638
77703SOL    HW234884   8.757   8.894   2.763
77704SOL     OW34885   5.047   7.971   1.511
77704SOL    HW134886   4.965   7.926   1.493
77704SOL    HW234887   5.073   8.009   1.427
77705SOL     OW34888   8.298   0.141   2.125
77705SOL    HW134889   8.388   0.151   2.156
77705SOL    HW234890   8.244   0.172   2.198
77706SOL     OW34891   9.510  12.596   3.870
77706SOL    HW134892   9.418  12.615   3.853
77706SOL    HW234893   9.511  12.504   3.895
77707SOL     OW34894   1.184   3.672  12.831
77707SOL    HW134895   1.123   3.746  12.839
77707SOL    HW234896   1.175   3.625  12.914
77708SOL     OW34897   8.365  10.308  12.261
77708SOL    HW134898   8.345  10.225  12.304
77708SOL    HW234899   8.404  10.284  12.178
77709SOL     OW34900   9.567   8.048   1.877
77709SOL    HW134901   9.641   8.057   1.937
77709SOL    HW234902   9.572   7.958   1.846
77710SOL     OW34903  14.505  13.778   0.313
77710SOL    HW134904  14.437  13.732   0.264
77710SOL    HW234905  14.579  13.718   0.315
77711SOL     OW34906   9.898   2.994   0.226
77711SOL    HW134907   9.909   2.983   0.320
77711SOL    HW234908   9.813   3.037   0.217
77712SOL     OW34909   6.258   6.825  10.762
77712SOL    HW134910   6.266   6.779  10.846
77712SOL    HW234911   6.345   6.820  10.723
77713SOL     OW34912  14.792  14.755   3.565
77713SOL    HW134913  14.767  14.806   3.487
77713SOL    HW234914  14.718  14.765   3.624
77714SOL     OW34915   3.758   5.657  10.410
77714SOL    HW134916   3.726   5.740  10.375
77714SOL    HW234917   3.726   5.591  10.348
77715SOL     OW34918   5.565   4.212   6.185
77715SOL    HW134919   5.551   4.304   6.207
77715SOL    HW234920   5.610   4.214   6.101
77716SOL     OW34921  12.424   8.288   1.459
77716SOL    HW134922  12.348   8.233   1.480
77716SOL    HW234923  12.497   8.248   1.507
77717SOL     OW34924   9.251  10.094   6.885
77717SOL    HW134925   9.252  10.039   6.963
77717SOL    HW234926   9.281  10.037   6.815
77718SOL     OW34927  11.574   5.134  13.148
77718SOL    HW134928  11.560   5.111  13.056
77718SOL    HW234929  11.635   5.208  13.146
77719SOL     OW34930   7.099  11.982  14.863
77719SOL    HW134931   7.126  11.997   0.072
77719SOL    HW234932   7.146  12.049  14.813
77720SOL     OW34933  10.283  12.321   7.609
77720SOL    HW134934  10.230  12.397   7.630
77720SOL    HW234935  10.357  12.355   7.560
77721SOL     OW34936   7.099  10.950  10.214
77721SOL    HW134937   7.103  10.988  10.127
77721SOL    HW234938   7.108  10.856  10.199
77722SOL     OW34939  11.690   8.629   7.701
77722SOL    HW134940  11.777   8.665   7.715
77722SOL    HW234941  11.684   8.556   7.763
77723SOL     OW34942   4.085  14.836   6.316
77723SOL    HW134943   4.147  14.840   6.388
77723SOL    HW234944   4.017  14.776   6.346
77724SOL     OW34945   9.206   4.015   4.877
77724SOL    HW134946   9.187   3.952   4.807
77724SOL    HW234947   9.125   4.063   4.888
77725SOL     OW34948   1.187  10.662  14.377
77725SOL    HW134949   1.103  10.708  14.374
77725SOL    HW234950   1.189  10.621  14.464
77726SOL     OW34951   6.864  13.814   4.853
77726SOL    HW134952   6.949  13.769   4.850
77726SOL    HW234953   6.804  13.749   4.888
77727SOL     OW34954   6.464   5.102   9.723
77727SOL    HW134955   6.439   5.173   9.782
77727SOL    HW234956   6.558   5.091   9.737
77728SOL     OW34957  12.090   3.594  10.122
77728SOL    HW134958  12.002   3.584  10.086
77728SOL    HW234959  12.077   3.643  10.203
77729SOL     OW34960  13.069   2.652   6.106
77729SOL    HW134961  13.008   2.663   6.033
77729SOL    HW234962  13.129   2.726   6.099
77730SOL     OW34963  11.516   5.687   4.337
77730SOL    HW134964  11.442   5.695   4.397
77730SOL    HW234965  11.481   5.638   4.262
77731SOL     OW34966   0.895  10.286   1.839
77731SOL    HW134967   0.898  10.282   1.934
77731SOL    HW234968   0.953  10.214   1.811
77732SOL     OW34969  14.442   8.365  14.319
77732SOL    HW134970  14.428   8.363  14.225
77732SOL    HW234971  14.417   8.278  14.349
77733SOL     OW34972   8.875   2.680   7.980
77733SOL    HW134973   8.856   2.767   7.944
77733SOL    HW234974   8.898   2.627   7.904
77734SOL     OW34975  10.672   6.367   8.497
77734SOL    HW134976  10.642   6.400   8.413
77734SOL    HW234977  10.758   6.408   8.510
77735SOL     OW34978   4.788   0.575   5.173
77735SOL    HW134979   4.823   0.533   5.094
77735SOL    HW234980   4.718   0.517   5.202
77736SOL     OW34981   6.828   5.327  11.780
77736SOL    HW134982   6.900   5.269  11.754
77736SOL    HW234983   6.749   5.282  11.749
77737SOL     OW34984  10.740  14.223   6.374
77737SOL    HW134985  10.749  14.208   6.468
77737SOL    HW234986  10.795  14.155   6.334
77738SOL     OW34987   6.952   6.785   6.833
77738SOL    HW134988   6.865   6.818   6.810
77738SOL    HW234989   6.960   6.704   6.784
77739SOL     OW34990   2.739   8.772   9.278
77739SOL    HW134991   2.647   8.782   9.303
77739SOL    HW234992   2.787   8.813   9.350
77740SOL     OW34993  14.592   7.186  12.077
77740SOL    HW134994  14.578   7.280  12.089
77740SOL    HW234995  14.582   7.149  12.165
77741SOL     OW34996  14.458   0.426   6.844
77741SOL    HW134997  14.528   0.368   6.811
77741SOL    HW234998  14.417   0.376   6.915
77742SOL     OW34999  10.040   1.930   8.994
77742SOL    HW135000   9.969   1.884   8.948
77742SOL    HW235001  10.051   1.880   9.075
77743SOL     OW35002   6.410   5.236  13.083
77743SOL    HW135003   6.387   5.179  13.009
77743SOL    HW235004   6.328   5.280  13.106
77744SOL     OW35005   1.663  12.224   7.847
77744SOL    HW135006   1.625  12.249   7.931
77744SOL    HW235007   1.646  12.130   7.840
77745SOL     OW35008   1.523   6.391   8.250
77745SOL    HW135009   1.554   6.456   8.314
77745SOL    HW235010   1.563   6.309   8.277
77746SOL     OW35011   6.537   2.156   3.755
77746SOL    HW135012   6.616   2.181   3.803
77746SOL    HW235013   6.465   2.192   3.807
77747SOL     OW35014   3.500   2.546   1.408
77747SOL    HW135015   3.408   2.519   1.407
77747SOL    HW235016   3.499   2.637   1.379
77748SOL     OW35017  13.796   9.541   7.491
77748SOL    HW135018  13.832   9.624   7.524
77748SOL    HW235019  13.795   9.484   7.568
77749SOL     OW35020   6.620   8.816  13.351
77749SOL    HW135021   6.572   8.898  13.365
77749SOL    HW235022   6.615   8.801  13.257
77750SOL     OW35023  14.486   3.251   8.091
77750SOL    HW135024  14.424   3.283   8.156
77750SOL    HW235025  14.442   3.177   8.050
77751SOL     OW35026   6.828  10.448   7.359
77751SOL    HW135027   6.872  10.363   7.364
77751SOL    HW235028   6.875  10.503   7.422
77752SOL     OW35029   2.148  11.975   2.741
77752SOL    HW135030   2.175  12.066   2.731
77752SOL    HW235031   2.143  11.962   2.836
77753SOL     OW35032   7.493  12.143   1.660
77753SOL    HW135033   7.551  12.068   1.653
77753SOL    HW235034   7.537  12.212   1.610
77754SOL     OW35035   5.154   3.682   8.463
77754SOL    HW135036   5.180   3.620   8.394
77754SOL    HW235037   5.237   3.716   8.496
77755SOL     OW35038   1.226   4.513   6.273
77755SOL    HW135039   1.243   4.573   6.201
77755SOL    HW235040   1.139   4.538   6.305
77756SOL     OW35041   2.289  11.485  12.879
77756SOL    HW135042   2.347  11.435  12.821
77756SOL    HW235043   2.344  11.557  12.911
77757SOL     OW35044   9.958   0.797   0.784
77757SOL    HW135045   9.958   0.790   0.689
77757SOL    HW235046   9.916   0.716   0.815
77758SOL     OW35047   2.914   5.495   9.488
77758SOL    HW135048   3.010   5.501   9.486
77758SOL    HW235049   2.894   5.419   9.433
77759SOL     OW35050  14.235  10.425   7.306
77759SOL    HW135051  14.317  10.466   7.278
77759SOL    HW235052  14.236  10.339   7.265
77760SOL     OW35053   5.575  13.609   4.000
77760SOL    HW135054   5.604  13.583   3.913
77760SOL    HW235055   5.597  13.702   4.006
77761SOL     OW35056   9.747  11.725   2.529
77761SOL    HW135057   9.835  11.759   2.544
77761SOL    HW235058   9.693  11.770   2.594
77762SOL     OW35059   4.209   2.031   7.041
77762SOL    HW135060   4.304   2.022   7.042
77762SOL    HW235061   4.187   2.049   6.950
77763SOL     OW35062  14.721   7.605   1.413
77763SOL    HW135063  14.692   7.695   1.397
77763SOL    HW235064  14.643   7.560   1.445
77764SOL     OW35065   1.160  14.784   4.095
77764SOL    HW135066   1.124  14.695   4.092
77764SOL    HW235067   1.250  14.775   4.065
77765SOL     OW35068   8.604   3.716   7.685
77765SOL    HW135069   8.534   3.780   7.694
77765SOL    HW235070   8.626   3.693   7.776
77766SOL     OW35071   5.675   8.806  13.578
77766SOL    HW135072   5.747   8.784  13.519
77766SOL    HW235073   5.597   8.773  13.534
77767SOL     OW35074  10.038  11.736  14.566
77767SOL    HW135075  10.022  11.764  14.476
77767SOL    HW235076   9.977  11.664  14.580
77768SOL     OW35077  10.072   5.148   5.729
77768SOL    HW135078  10.078   5.228   5.676
77768SOL    HW235079  10.099   5.176   5.817
77769SOL     OW35080  10.933   7.769   5.069
77769SOL    HW135081  10.875   7.844   5.057
77769SOL    HW235082  10.923   7.718   4.989
77770SOL     OW35083  12.585   1.332   6.578
77770SOL    HW135084  12.497   1.343   6.614
77770SOL    HW235085  12.616   1.249   6.616
77771SOL     OW35086  10.494  13.294   3.873
77771SOL    HW135087  10.457  13.223   3.820
77771SOL    HW235088  10.529  13.251   3.951
77772SOL     OW35089   7.856   7.906   3.735
77772SOL    HW135090   7.804   7.864   3.667
77772SOL    HW235091   7.924   7.842   3.757
77773SOL     OW35092   4.029   7.626  10.941
77773SOL    HW135093   4.110   7.642  10.990
77773SOL    HW235094   3.968   7.692  10.973
77774SOL     OW35095   2.140   6.061   3.834
77774SOL    HW135096   2.102   5.989   3.884
77774SOL    HW235097   2.184   6.019   3.760
77775SOL     OW35098   4.214   8.523   8.830
77775SOL    HW135099   4.133   8.485   8.797
77775SOL    HW235100   4.277   8.451   8.826
77776SOL     OW35101   3.766  13.088   9.768
77776SOL    HW135102   3.701  13.021   9.791
77776SOL    HW235103   3.763  13.094   9.673
77777SOL     OW35104  11.181   6.689  10.832
77777SOL    HW135105  11.268   6.725  10.814
77777SOL    HW235106  11.138   6.687  10.746
77778SOL     OW35107   1.252  10.303   4.832
77778SOL    HW135108   1.179  10.334   4.886
77778SOL    HW235109   1.277  10.219   4.871
77779SOL     OW35110   6.419   1.558   9.225
77779SOL    HW135111   6.466   1.583   9.146
77779SOL    HW235112   6.363   1.485   9.198
77780SOL     OW35113   2.477   0.847   7.732
77780SOL    HW135114   2.553   0.799   7.764
77780SOL    HW235115   2.470   0.823   7.640
77781SOL     OW35116  10.174   6.723  11.596
77781SOL    HW135117  10.166   6.808  11.641
77781SOL    HW235118  10.260   6.727  11.554
77782SOL     OW35119   4.621   9.122   1.436
77782SOL    HW135120   4.686   9.107   1.505
77782SOL    HW235121   4.618   9.039   1.387
77783SOL     OW35122  12.175  13.401   1.672
77783SOL    HW135123  12.145  13.331   1.615
77783SOL    HW235124  12.096  13.448   1.697
77784SOL     OW35125   2.102   6.210  10.411
77784SOL    HW135126   2.010   6.221  10.434
77784SOL    HW235127   2.106   6.123  10.371
77785SOL     OW35128  10.194   7.566  12.341
77785SOL    HW135129  10.264   7.571  12.276
77785SOL    HW235130  10.185   7.473  12.359
77786SOL     OW35131   6.733  13.740  11.604
77786SOL    HW135132   6.649  13.777  11.632
77786SOL    HW235133   6.723  13.727  11.510
77787SOL     OW35134   5.591  13.813   4.212
77787SOL    HW135135   5.678  13.773   4.216
77787SOL    HW235136   5.595  13.887   4.272
77788SOL     OW35137   8.275   9.017   7.459
77788SOL    HW135138   8.222   8.945   7.492
77788SOL    HW235139   8.362   8.979   7.443
77789SOL     OW35140   5.622  10.297   9.479
77789SOL    HW135141   5.706  10.309   9.523
77789SOL    HW235142   5.578  10.228   9.529
77790SOL     OW35143   1.245  14.341  13.327
77790SOL    HW135144   1.272  14.329  13.236
77790SOL    HW235145   1.205  14.428  13.329
77791SOL     OW35146  11.544   8.164   5.029
77791SOL    HW135147  11.606   8.092   5.042
77791SOL    HW235148  11.503   8.175   5.115
77792SOL     OW35149   1.349   3.338   7.687
77792SOL    HW135150   1.357   3.414   7.745
77792SOL    HW235151   1.438   3.321   7.657
77793SOL     OW35152   2.999   2.549  11.865
77793SOL    HW135153   2.954   2.483  11.812
77793SOL    HW235154   3.092   2.537  11.845
77794SOL     OW35155   3.746   3.888  11.589
77794SOL    HW135156   3.785   3.802  11.603
77794SOL    HW235157   3.748   3.901  11.494
77795SOL     OW35158   2.114  10.104  11.595
77795SOL    HW135159   2.105  10.090  11.690
77795SOL    HW235160   2.191  10.159  11.586
77796SOL     OW35161   1.841   5.678  12.718
77796SOL    HW135162   1.824   5.753  12.775
77796SOL    HW235163   1.936   5.671  12.714
77797SOL     OW35164   3.097   8.249   9.818
77797SOL    HW135165   3.122   8.333   9.779
77797SOL    HW235166   3.139   8.183   9.763
77798SOL     OW35167   5.163   8.004  10.373
77798SOL    HW135168   5.213   7.923  10.369
77798SOL    HW235169   5.098   7.989  10.442
77799SOL     OW35170  12.317  12.540   2.988
77799SOL    HW135171  12.288  12.594   3.062
77799SOL    HW235172  12.288  12.589   2.911
77800SOL     OW35173   0.211  13.036  11.540
77800SOL    HW135174   0.232  13.044  11.633
77800SOL    HW235175   0.296  13.037  11.496
77801SOL     OW35176   6.048   2.760   0.069
77801SOL    HW135177   5.985   2.690   0.084
77801SOL    HW235178   6.034   2.821   0.142
77802SOL     OW35179   7.466   3.125   4.572
77802SOL    HW135180   7.436   3.205   4.529
77802SOL    HW235181   7.558   3.117   4.547
77803SOL     OW35182   3.551   4.326   0.181
77803SOL    HW135183   3.512   4.410   0.206
77803SOL    HW235184   3.485   4.285   0.125
77804SOL     OW35185  12.957   2.169  14.433
77804SOL    HW135186  12.919   2.109  14.498
77804SOL    HW235187  12.997   2.112  14.368
77805SOL     OW35188   3.575   9.864   2.516
77805SOL    HW135189   3.597   9.946   2.473
77805SOL    HW235190   3.488   9.842   2.482
77806SOL     OW35191  13.180   8.699   5.953
77806SOL    HW135192  13.092   8.693   5.916
77806SOL    HW235193  13.193   8.792   5.969
77807SOL     OW35194  14.134   3.885   7.192
77807SOL    HW135195  14.222   3.881   7.230
77807SOL    HW235196  14.143   3.842   7.107
77808SOL     OW35197  10.109  11.356  14.225
77808SOL    HW135198  10.075  11.294  14.161
77808SOL    HW235199  10.033  11.382  14.276
77809SOL     OW35200  10.728  13.944  13.733
77809SOL    HW135201  10.716  14.000  13.810
77809SOL    HW235202  10.760  13.861  13.768
77810SOL     OW35203   9.832   6.352   2.052
77810SOL    HW135204   9.775   6.371   2.126
77810SOL    HW235205   9.921   6.363   2.086
77811SOL     OW35206   6.004  11.712   9.229
77811SOL    HW135207   5.911  11.700   9.248
77811SOL    HW235208   6.027  11.792   9.277
77812SOL     OW35209  12.045   7.635   4.123
77812SOL    HW135210  12.029   7.553   4.077
77812SOL    HW235211  12.108   7.611   4.192
77813SOL     OW35212  14.489  10.823  12.131
77813SOL    HW135213  14.475  10.746  12.077
77813SOL    HW235214  14.479  10.897  12.071
77814SOL     OW35215  14.694   1.062   9.585
77814SOL    HW135216  14.683   1.156   9.571
77814SOL    HW235217  14.610   1.024   9.557
77815SOL     OW35218   9.474   7.290  11.991
77815SOL    HW135219   9.468   7.308  12.085
77815SOL    HW235220   9.565   7.264  11.978
77816SOL     OW35221   4.813  11.273   3.368
77816SOL    HW135222   4.889  11.321   3.402
77816SOL    HW235223   4.842  11.240   3.283
77817SOL     OW35224  14.768   3.038  12.027
77817SOL    HW135225  14.796   2.947  12.023
77817SOL    HW235226  14.682   3.038  11.984
77818SOL     OW35227   5.387  11.531   2.904
77818SOL    HW135228   5.468  11.568   2.939
77818SOL    HW235229   5.357  11.470   2.971
77819SOL     OW35230   2.216   7.338   5.407
77819SOL    HW135231   2.293   7.385   5.374
77819SOL    HW235232   2.156   7.336   5.333
77820SOL     OW35233   6.838   4.637  11.624
77820SOL    HW135234   6.763   4.617  11.568
77820SOL    HW235235   6.813   4.604  11.711
77821SOL     OW35236   1.797   4.576  10.920
77821SOL    HW135237   1.872   4.614  10.875
77821SOL    HW235238   1.743   4.539  10.849
77822SOL     OW35239  11.247  10.108   4.295
77822SOL    HW135240  11.339  10.131   4.312
77822SOL    HW235241  11.224  10.159   4.218
77823SOL     OW35242   8.592   0.684  12.879
77823SOL    HW135243   8.591   0.708  12.972
77823SOL    HW235244   8.683   0.663  12.861
77824SOL     OW35245   1.607   8.957   8.912
77824SOL    HW135246   1.680   8.956   8.851
77824SOL    HW235247   1.546   9.021   8.876
77825SOL     OW35248   2.919   3.072   8.362
77825SOL    HW135249   2.844   3.053   8.419
77825SOL    HW235250   2.993   3.033   8.407
77826SOL     OW35251   0.097  13.499  13.537
77826SOL    HW135252   0.125  13.498  13.628
77826SOL    HW235253   0.061  13.411  13.522
77827SOL     OW35254   6.736   0.494   5.363
77827SOL    HW135255   6.728   0.475   5.270
77827SOL    HW235256   6.816   0.546   5.371
77828SOL     OW35257   7.117   7.051  11.394
77828SOL    HW135258   7.203   7.021  11.365
77828SOL    HW235259   7.127   7.146  11.403
77829SOL     OW35260   4.282  12.054  14.619
77829SOL    HW135261   4.368  12.026  14.651
77829SOL    HW235262   4.300  12.099  14.536
77830SOL     OW35263  13.680  14.073   2.375
77830SOL    HW135264  13.610  14.047   2.435
77830SOL    HW235265  13.666  14.019   2.297
77831SOL     OW35266  10.256  14.821   2.331
77831SOL    HW135267  10.196  14.817   2.404
77831SOL    HW235268  10.221  14.760   2.266
77832SOL     OW35269  13.921   4.197   9.432
77832SOL    HW135270  13.935   4.171   9.523
77832SOL    HW235271  13.828   4.181   9.417
77833SOL     OW35272  10.555  14.784   5.048
77833SOL    HW135273  10.459  14.792   5.050
77833SOL    HW235274  10.571  14.691   5.033
77834SOL     OW35275  12.239   6.629   2.282
77834SOL    HW135276  12.298   6.703   2.276
77834SOL    HW235277  12.288   6.563   2.332
77835SOL     OW35278   8.841   3.771   4.320
77835SOL    HW135279   8.850   3.802   4.230
77835SOL    HW235280   8.842   3.851   4.373
77836SOL     OW35281   7.016   1.353   6.644
77836SOL    HW135282   6.966   1.406   6.582
77836SOL    HW235283   6.958   1.344   6.720
77837SOL     OW35284   1.458   8.179   6.232
77837SOL    HW135285   1.364   8.166   6.220
77837SOL    HW235286   1.491   8.193   6.143
77838SOL     OW35287   5.466   1.119   0.130
77838SOL    HW135288   5.559   1.106   0.115
77838SOL    HW235289   5.462   1.180   0.203
77839SOL     OW35290   5.693  14.283  11.400
77839SOL    HW135291   5.739  14.281  11.316
77839SOL    HW235292   5.703  14.373  11.430
77840SOL     OW35293   1.813  10.254  11.451
77840SOL    HW135294   1.718  10.255  11.467
77840SOL    HW235295   1.851  10.256  11.539
77841SOL     OW35296  11.915   9.818   1.625
77841SOL    HW135297  11.839   9.876   1.614
77841SOL    HW235298  11.889   9.757   1.694
77842SOL     OW35299  14.247   8.039   8.868
77842SOL    HW135300  14.193   8.118   8.873
77842SOL    HW235301  14.273   8.034   8.776
77843SOL     OW35302   3.936   5.075   0.483
77843SOL    HW135303   4.011   5.056   0.426
77843SOL    HW235304   3.914   5.166   0.464
77844SOL     OW35305  14.606  11.955   0.335
77844SOL    HW135306  14.635  11.895   0.404
77844SOL    HW235307  14.596  11.901   0.257
77845SOL     OW35308   4.204  12.941   6.829
77845SOL    HW135309   4.277  12.897   6.786
77845SOL    HW235310   4.234  13.031   6.840
77846SOL     OW35311   4.661   6.177   9.233
77846SOL    HW135312   4.644   6.160   9.326
77846SOL    HW235313   4.579   6.153   9.190
77847SOL     OW35314  14.651   1.671   0.668
77847SOL    HW135315  14.658   1.755   0.624
77847SOL    HW235316  14.636   1.608   0.597
77848SOL     OW35317  12.974   9.173   7.017
77848SOL    HW135318  13.059   9.193   7.056
77848SOL    HW235319  12.979   9.080   6.994
77849SOL     OW35320   7.198  10.301   6.580
77849SOL    HW135321   7.242  10.281   6.663
77849SOL    HW235322   7.266  10.337   6.524
77850SOL     OW35323   0.374  13.617   5.008
77850SOL    HW135324   0.401  13.527   5.023
77850SOL    HW235325   0.426  13.668   5.070
77851SOL     OW35326   2.417   4.153   0.737
77851SOL    HW135327   2.342   4.104   0.771
77851SOL    HW235328   2.398   4.244   0.761
77852SOL     OW35329   6.439  14.203   8.055
77852SOL    HW135330   6.461  14.176   8.144
77852SOL    HW235331   6.520  14.192   8.006
77853SOL     OW35332  10.766  10.347   2.154
77853SOL    HW135333  10.818  10.267   2.158
77853SOL    HW235334  10.789  10.395   2.233
77854SOL     OW35335  14.466   1.286  14.420
77854SOL    HW135336  14.523   1.361  14.436
77854SOL    HW235337  14.488   1.258  14.331
77855SOL     OW35338   1.247  11.619   5.405
77855SOL    HW135339   1.274  11.539   5.450
77855SOL    HW235340   1.329  11.660   5.378
77856SOL     OW35341  13.725   8.559   8.845
77856SOL    HW135342  13.707   8.532   8.935
77856SOL    HW235343  13.757   8.480   8.802
77857SOL     OW35344   3.841   4.880   3.110
77857SOL    HW135345   3.846   4.875   3.015
77857SOL    HW235346   3.843   4.788   3.139
77858SOL     OW35347   5.587  12.890  11.634
77858SOL    HW135348   5.518  12.835  11.671
77858SOL    HW235349   5.545  12.934  11.559
77859SOL     OW35350   6.378   1.171   8.709
77859SOL    HW135351   6.436   1.129   8.645
77859SOL    HW235352   6.294   1.127   8.698
77860SOL     OW35353   7.870   5.020   2.762
77860SOL    HW135354   7.781   4.998   2.787
77860SOL    HW235355   7.866   5.034   2.667
77861SOL     OW35356   5.715  13.775  12.824
77861SOL    HW135357   5.768  13.695  12.827
77861SOL    HW235358   5.753  13.831  12.891
77862SOL     OW35359   6.262   6.043   0.475
77862SOL    HW135360   6.330   5.988   0.513
77862SOL    HW235361   6.283   6.132   0.503
77863SOL     OW35362   9.113  13.801   8.314
77863SOL    HW135363   9.152  13.774   8.398
77863SOL    HW235364   9.121  13.724   8.259
77864SOL     OW35365  13.157   3.313  14.700
77864SOL    HW135366  13.146   3.334  14.607
77864SOL    HW235367  13.252   3.309  14.713
77865SOL     OW35368   0.470   0.051   7.248
77865SOL    HW135369   0.440   0.045   7.157
77865SOL    HW235370   0.563   0.031   7.244
77866SOL     OW35371  12.411   3.198  11.770
77866SOL    HW135372  12.467   3.149  11.831
77866SOL    HW235373  12.402   3.141  11.694
77867SOL     OW35374   7.601  10.486  14.038
77867SOL    HW135375   7.581  10.400  13.999
77867SOL    HW235376   7.563  10.482  14.125
77868SOL     OW35377  10.347   1.934  11.467
77868SOL    HW135378  10.345   1.931  11.371
77868SOL    HW235379  10.260   1.906  11.493
77869SOL     OW35380  10.782  12.390   3.358
77869SOL    HW135381  10.728  12.456   3.403
77869SOL    HW235382  10.722  12.316   3.344
77870SOL     OW35383   7.502  12.490   1.395
77870SOL    HW135384   7.578  12.443   1.429
77870SOL    HW235385   7.427  12.455   1.443
77871SOL     OW35386   1.125   6.714   5.942
77871SOL    HW135387   1.110   6.804   5.912
77871SOL    HW235388   1.110   6.659   5.866
77872SOL     OW35389   4.926  11.337   7.107
77872SOL    HW135390   4.948  11.391   7.183
77872SOL    HW235391   4.834  11.314   7.120
77873SOL     OW35392   1.067   8.691  11.138
77873SOL    HW135393   1.030   8.763  11.190
77873SOL    HW235394   1.101   8.734  11.059
77874SOL     OW35395   9.006   7.674  13.095
77874SOL    HW135396   8.992   7.632  13.180
77874SOL    HW235397   9.050   7.757  13.117
77875SOL     OW35398   3.528   0.006   2.488
77875SOL    HW135399   3.527   0.090   2.533
77875SOL    HW235400   3.455   0.010   2.426
77876SOL     OW35401   0.525  10.672  13.845
77876SOL    HW135402   0.511  10.598  13.785
77876SOL    HW235403   0.595  10.643  13.903
77877SOL     OW35404   6.728   1.332   5.903
77877SOL    HW135405   6.817   1.326   5.938
77877SOL    HW235406   6.671   1.317   5.979
77878SOL     OW35407   2.805   8.029   2.938
77878SOL    HW135408   2.749   8.092   2.893
77878SOL    HW235409   2.831   8.073   3.018
77879SOL     OW35410   5.528   4.563   2.425
77879SOL    HW135411   5.494   4.595   2.341
77879SOL    HW235412   5.451   4.557   2.482
77880SOL     OW35413   3.946  12.771  10.282
77880SOL    HW135414   3.944  12.680  10.311
77880SOL    HW235415   3.895  12.771  10.201
77881SOL     OW35416  10.397   4.473   4.839
77881SOL    HW135417  10.415   4.524   4.918
77881SOL    HW235418  10.351   4.534   4.781
77882SOL     OW35419  13.361  13.327  13.017
77882SOL    HW135420  13.337  13.416  13.041
77882SOL    HW235421  13.400  13.290  13.096
77883SOL     OW35422  11.111  12.470   8.842
77883SOL    HW135423  11.067  12.551   8.868
77883SOL    HW235424  11.195  12.498   8.805
77884SOL     OW35425   0.695   6.306   9.175
77884SOL    HW135426   0.663   6.306   9.085
77884SOL    HW235427   0.768   6.245   9.174
77885SOL     OW35428  12.024   4.387  12.022
77885SOL    HW135429  11.937   4.424  12.011
77885SOL    HW235430  12.068   4.405  11.939
77886SOL     OW35431  12.903   7.245  11.856
77886SOL    HW135432  12.867   7.158  11.837
77886SOL    HW235433  12.995   7.229  11.874
77887SOL     OW35434   1.727   2.925   2.418
77887SOL    HW135435   1.792   2.868   2.460
77887SOL    HW235436   1.644   2.899   2.458
77888SOL     OW35437   4.067  11.820  10.526
77888SOL    HW135438   4.150  11.814  10.573
77888SOL    HW235439   4.050  11.730  10.497
77889SOL     OW35440   5.921   1.079  12.140
77889SOL    HW135441   5.895   1.053  12.052
77889SOL    HW235442   5.907   1.173  12.143
77890SOL     OW35443   0.643   3.633  13.333
77890SOL    HW135444   0.633   3.547  13.373
77890SOL    HW235445   0.557   3.674  13.344
77891SOL     OW35446   3.718   9.858   3.564
77891SOL    HW135447   3.732   9.931   3.624
77891SOL    HW235448   3.653   9.890   3.502
77892SOL     OW35449  13.378   3.783   7.004
77892SOL    HW135450  13.445   3.755   6.942
77892SOL    HW235451  13.369   3.877   6.990
77893SOL     OW35452   8.577  13.046  10.451
77893SOL    HW135453   8.506  13.019  10.510
77893SOL    HW235454   8.596  13.136  10.476
77894SOL     OW35455   5.299   6.933   6.074
77894SOL    HW135456   5.364   6.909   6.008
77894SOL    HW235457   5.223   6.961   6.023
77895SOL     OW35458   2.367   1.551   2.167
77895SOL    HW135459   2.358   1.631   2.219
77895SOL    HW235460   2.408   1.488   2.226
77896SOL     OW35461  10.258   9.085   4.228
77896SOL    HW135462  10.165   9.103   4.219
77896SOL    HW235463  10.266   8.990   4.216
77897SOL     OW35464  13.662   2.221   8.316
77897SOL    HW135465  13.694   2.311   8.309
77897SOL    HW235466  13.675   2.184   8.229
77898SOL     OW35467   0.380  13.255   0.066
77898SOL    HW135468   0.457  13.210   0.030
77898SOL    HW235469   0.417  13.331   0.112
77899SOL     OW35470   5.606   4.645   1.879
77899SOL    HW135471   5.675   4.614   1.938
77899SOL    HW235472   5.587   4.734   1.909
77900SOL     OW35473   2.095  13.189  10.976
77900SOL    HW135474   2.048  13.265  11.010
77900SOL    HW235475   2.173  13.183  11.031
77901SOL     OW35476   8.835   5.503  12.131
77901SOL    HW135477   8.771   5.538  12.069
77901SOL    HW235478   8.856   5.416  12.097
77902SOL     OW35479   5.755   2.595   4.862
77902SOL    HW135480   5.735   2.676   4.814
77902SOL    HW235481   5.843   2.609   4.897
77903SOL     OW35482   6.189  10.276   3.855
77903SOL    HW135483   6.222  10.250   3.769
77903SOL    HW235484   6.267  10.308   3.902
77904SOL     OW35485   6.596   8.850  13.092
77904SOL    HW135486   6.524   8.903  13.058
77904SOL    HW235487   6.667   8.861  13.029
77905SOL     OW35488   5.034   7.305  11.851
77905SOL    HW135489   4.938   7.306  11.852
77905SOL    HW235490   5.058   7.259  11.932
77906SOL     OW35491   2.819   8.709   4.705
77906SOL    HW135492   2.788   8.619   4.698
77906SOL    HW235493   2.876   8.708   4.783
77907SOL     OW35494   2.627   6.870   1.125
77907SOL    HW135495   2.705   6.902   1.169
77907SOL    HW235496   2.593   6.946   1.077
77908SOL     OW35497   2.464  13.796   6.365
77908SOL    HW135498   2.371  13.795   6.344
77908SOL    HW235499   2.494  13.707   6.343
77909SOL     OW35500   9.095   9.000   8.217
77909SOL    HW135501   9.189   9.016   8.219
77909SOL    HW235502   9.068   8.998   8.309
77910SOL     OW35503  10.740   6.676   1.467
77910SOL    HW135504  10.684   6.734   1.416
77910SOL    HW235505  10.693   6.661   1.548
77911SOL     OW35506   2.711   1.897   0.383
77911SOL    HW135507   2.699   1.847   0.302
77911SOL    HW235508   2.684   1.986   0.360
77912SOL     OW35509   8.376   7.664  13.738
77912SOL    HW135510   8.310   7.704  13.680
77912SOL    HW235511   8.459   7.701  13.708
77913SOL     OW35512  12.413   8.485  10.053
77913SOL    HW135513  12.421   8.473   9.958
77913SOL    HW235514  12.347   8.421  10.080
77914SOL     OW35515   3.100  13.101   5.275
77914SOL    HW135516   3.172  13.135   5.221
77914SOL    HW235517   3.040  13.061   5.212
77915SOL     OW35518   2.261  11.838   1.214
77915SOL    HW135519   2.298  11.833   1.302
77915SOL    HW235520   2.166  11.841   1.229
77916SOL     OW35521   1.876  14.797   2.055
77916SOL    HW135522   1.801  14.772   2.110
77916SOL    HW235523   1.851  14.769   1.967
77917SOL     OW35524   6.154  10.810   4.927
77917SOL    HW135525   6.072  10.844   4.891
77917SOL    HW235526   6.183  10.877   4.989
77918SOL     OW35527   6.052   7.326  13.973
77918SOL    HW135528   5.974   7.270  13.975
77918SOL    HW235529   6.083   7.320  13.883
77919SOL     OW35530  10.685   4.979   1.516
77919SOL    HW135531  10.702   4.969   1.422
77919SOL    HW235532  10.590   4.972   1.524
77920SOL     OW35533   7.412  10.093   5.023
77920SOL    HW135534   7.488  10.113   4.970
77920SOL    HW235535   7.344  10.152   4.991
77921SOL     OW35536   9.294  10.742   8.644
77921SOL    HW135537   9.229  10.674   8.659
77921SOL    HW235538   9.275  10.773   8.555
77922SOL     OW35539  14.802   4.724   6.106
77922SOL    HW135540  14.871   4.771   6.060
77922SOL    HW235541  14.721   4.759   6.070
77923SOL     OW35542   2.102  13.671   6.525
77923SOL    HW135543   2.135  13.732   6.459
77923SOL    HW235544   2.176  13.613   6.543
77924SOL     OW35545   4.301   8.727   3.232
77924SOL    HW135546   4.298   8.653   3.171
77924SOL    HW235547   4.215   8.726   3.274
77925SOL     OW35548  14.709   3.779   2.749
77925SOL    HW135549  14.775   3.848   2.757
77925SOL    HW235550  14.644   3.801   2.815
77926SOL     OW35551   5.973   3.940  12.613
77926SOL    HW135552   6.022   3.860  12.634
77926SOL    HW235553   6.040   4.008  12.607
77927SOL     OW35554  10.329   7.425   6.489
77927SOL    HW135555  10.348   7.499   6.547
77927SOL    HW235556  10.284   7.362   6.545
77928SOL     OW35557  14.523   2.307   1.680
77928SOL    HW135558  14.484   2.392   1.659
77928SOL    HW235559  14.450   2.245   1.679
77929SOL     OW35560   0.586   2.203   7.735
77929SOL    HW135561   0.539   2.123   7.709
77929SOL    HW235562   0.668   2.171   7.772
77930SOL     OW35563   2.605   2.195   8.436
77930SOL    HW135564   2.631   2.157   8.520
77930SOL    HW235565   2.614   2.123   8.373
77931SOL     OW35566   4.666  10.736   1.544
77931SOL    HW135567   4.574  10.731   1.569
77931SOL    HW235568   4.665  10.736   1.449
77932SOL     OW35569   0.671   2.864  12.572
77932SOL    HW135570   0.765   2.872  12.557
77932SOL    HW235571   0.632   2.928  12.513
77933SOL     OW35572   9.440  12.459   5.692
77933SOL    HW135573   9.370  12.403   5.725
77933SOL    HW235574   9.395  12.522   5.636
77934SOL     OW35575   6.493  14.624   3.231
77934SOL    HW135576   6.434  14.666   3.293
77934SOL    HW235577   6.532  14.696   3.182
77935SOL     OW35578   5.800   2.740  11.763
77935SOL    HW135579   5.852   2.694  11.697
77935SOL    HW235580   5.739   2.675  11.796
77936SOL     OW35581   9.901   7.074   1.704
77936SOL    HW135582   9.931   7.165   1.701
77936SOL    HW235583   9.855   7.066   1.788
77937SOL     OW35584   4.827   7.614   4.600
77937SOL    HW135585   4.915   7.580   4.612
77937SOL    HW235586   4.785   7.550   4.541
77938SOL     OW35587   5.115   2.978   0.354
77938SOL    HW135588   5.161   2.932   0.424
77938SOL    HW235589   5.086   2.908   0.295
77939SOL     OW35590  11.779   8.345  13.951
77939SOL    HW135591  11.850   8.313  13.897
77939SOL    HW235592  11.794   8.440  13.956
77940SOL     OW35593   9.736   4.091   3.533
77940SOL    HW135594   9.649   4.132   3.527
77940SOL    HW235595   9.736   4.047   3.618
77941SOL     OW35596  11.275  11.396   1.133
77941SOL    HW135597  11.360  11.353   1.125
77941SOL    HW235598  11.242  11.400   1.044
77942SOL     OW35599  10.206  12.754  12.218
77942SOL    HW135600  10.133  12.742  12.158
77942SOL    HW235601  10.170  12.803  12.292
77943SOL     OW35602   7.253   6.538  14.639
77943SOL    HW135603   7.275   6.504  14.725
77943SOL    HW235604   7.314   6.494  14.579
77944SOL     OW35605  10.086   7.018   1.103
77944SOL    HW135606  10.129   7.102   1.090
77944SOL    HW235607  10.159   6.956   1.114
77945SOL     OW35608   9.196   8.050   6.090
77945SOL    HW135609   9.251   8.119   6.127
77945SOL    HW235610   9.196   8.067   5.995
77946SOL     OW35611   4.868   4.826  12.431
77946SOL    HW135612   4.873   4.820  12.526
77946SOL    HW235613   4.813   4.903  12.414
77947SOL     OW35614   5.860   3.266   8.135
77947SOL    HW135615   5.899   3.349   8.165
77947SOL    HW235616   5.806   3.237   8.209
77948SOL     OW35617  14.805   7.112   6.256
77948SOL    HW135618  14.753   7.100   6.177
77948SOL    HW235619  14.763   7.054   6.321
77949SOL     OW35620   1.696   2.724   9.793
77949SOL    HW135621   1.642   2.645   9.794
77949SOL    HW235622   1.633   2.796   9.790
77950SOL     OW35623   1.610   1.591  10.412
77950SOL    HW135624   1.688   1.538  10.397
77950SOL    HW235625   1.644   1.676  10.440
77951SOL     OW35626   4.040   1.212   3.349
77951SOL    HW135627   4.098   1.155   3.298
77951SOL    HW235628   4.100   1.261   3.405
77952SOL     OW35629   2.373   5.085   5.656
77952SOL    HW135630   2.414   5.044   5.580
77952SOL    HW235631   2.314   5.018   5.690
77953SOL     OW35632   1.848   9.914   9.841
77953SOL    HW135633   1.919   9.856   9.815
77953SOL    HW235634   1.886  10.002   9.837
77954SOL     OW35635   8.277  14.571   9.880
77954SOL    HW135636   8.302  14.512   9.952
77954SOL    HW235637   8.192  14.605   9.906
77955SOL     OW35638   3.497   9.949   0.573
77955SOL    HW135639   3.418   9.969   0.523
77955SOL    HW235640   3.525  10.034   0.608
77956SOL     OW35641  13.488  11.123   5.044
77956SOL    HW135642  13.454  11.098   5.130
77956SOL    HW235643  13.556  11.058   5.026
77957SOL     OW35644  11.321   7.337  11.393
77957SOL    HW135645  11.405   7.315  11.352
77957SOL    HW235646  11.270   7.377  11.322
77958SOL     OW35647   0.133   4.237   6.047
77958SOL    HW135648   0.090   4.310   6.003
77958SOL    HW235649   0.062   4.186   6.085
77959SOL     OW35650  10.120   0.589   7.548
77959SOL    HW135651  10.184   0.577   7.477
77959SOL    HW235652  10.043   0.625   7.505
77960SOL     OW35653   1.525   3.980  11.493
77960SOL    HW135654   1.617   4.006  11.492
77960SOL    HW235655   1.491   4.008  11.408
77961SOL     OW35656   0.264   6.399   9.800
77961SOL    HW135657   0.189   6.458   9.808
77961SOL    HW235658   0.320   6.422   9.874
77962SOL     OW35659  11.125  12.375   4.719
77962SOL    HW135660  11.218  12.365   4.737
77962SOL    HW235661  11.114  12.341   4.630
77963SOL     OW35662   1.151   0.880  12.619
77963SOL    HW135663   1.173   0.964  12.660
77963SOL    HW235664   1.235   0.844  12.591
77964SOL     OW35665   9.995   2.431   6.118
77964SOL    HW135666  10.052   2.501   6.150
77964SOL    HW235667  10.022   2.417   6.027
77965SOL     OW35668  11.199  14.142  10.203
77965SOL    HW135669  11.292  14.122  10.196
77965SOL    HW235670  11.177  14.186  10.121
77966SOL     OW35671   6.493   0.602  10.083
77966SOL    HW135672   6.448   0.684  10.061
77966SOL    HW235673   6.553   0.587  10.010
77967SOL     OW35674   5.421   0.851   0.135
77967SOL    HW135675   5.441   0.943   0.122
77967SOL    HW235676   5.329   0.842   0.112
77968SOL     OW35677   3.433   4.003  11.057
77968SOL    HW135678   3.345   3.969  11.075
77968SOL    HW235679   3.487   3.969  11.128
77969SOL     OW35680   7.819   5.337  10.146
77969SOL    HW135681   7.859   5.280  10.080
77969SOL    HW235682   7.742   5.373  10.102
77970SOL     OW35683   3.489   9.352   3.288
77970SOL    HW135684   3.521   9.410   3.218
77970SOL    HW235685   3.432   9.408   3.341
77971SOL     OW35686   7.026   1.885  11.500
77971SOL    HW135687   7.114   1.850  11.515
77971SOL    HW235688   7.028   1.973  11.539
77972SOL     OW35689   8.719   1.846   6.332
77972SOL    HW135690   8.646   1.907   6.345
77972SOL    HW235691   8.781   1.896   6.279
77973SOL     OW35692   5.983   4.660   6.065
77973SOL    HW135693   5.974   4.573   6.026
77973SOL    HW235694   5.956   4.649   6.156
77974SOL     OW35695  14.117   4.306   2.699
77974SOL    HW135696  14.074   4.264   2.773
77974SOL    HW235697  14.133   4.235   2.636
77975SOL     OW35698   0.221   3.901   7.326
77975SOL    HW135699   0.185   3.823   7.369
77975SOL    HW235700   0.281   3.867   7.260
77976SOL     OW35701  13.628  14.274  11.667
77976SOL    HW135702  13.694  14.294  11.600
77976SOL    HW235703  13.635  14.179  11.679
77977SOL     OW35704  12.050  12.287  11.469
77977SOL    HW135705  11.991  12.348  11.426
77977SOL    HW235706  12.111  12.259  11.401
77978SOL     OW35707   5.497   6.872  14.429
77978SOL    HW135708   5.470   6.920  14.351
77978SOL    HW235709   5.426   6.809  14.444
77979SOL     OW35710  13.490   7.964   9.784
77979SOL    HW135711  13.558   7.982   9.850
77979SOL    HW235712  13.493   8.040   9.726
77980SOL     OW35713  10.443  11.636  10.727
77980SOL    HW135714  10.470  11.683  10.806
77980SOL    HW235715  10.445  11.544  10.752
77981SOL     OW35716   8.718   7.008   6.567
77981SOL    HW135717   8.649   7.007   6.634
77981SOL    HW235718   8.717   7.097   6.533
77982SOL     OW35719   2.709  11.417   3.281
77982SOL    HW135720   2.729  11.508   3.304
77982SOL    HW235721   2.794  11.373   3.285
77983SOL     OW35722  10.836   2.016   1.199
77983SOL    HW135723  10.894   2.035   1.273
77983SOL    HW235724  10.752   1.995   1.239
77984SOL     OW35725   2.733  10.267   1.047
77984SOL    HW135726   2.819  10.234   1.020
77984SOL    HW235727   2.753  10.329   1.117
77985SOL     OW35728   8.626  14.357  14.845
77985SOL    HW135729   8.561  14.334   0.029
77985SOL    HW235730   8.636  14.452  14.853
77986SOL     OW35731  13.466   2.834   0.672
77986SOL    HW135732  13.427   2.890   0.740
77986SOL    HW235733  13.392   2.802   0.622
77987SOL     OW35734   6.300   1.324   5.383
77987SOL    HW135735   6.286   1.249   5.441
77987SOL    HW235736   6.355   1.383   5.434
77988SOL     OW35737   1.676  14.681  11.859
77988SOL    HW135738   1.683  14.605  11.801
77988SOL    HW235739   1.684  14.645  11.947
77989SOL     OW35740  13.347  14.695   6.865
77989SOL    HW135741  13.362  14.682   6.771
77989SOL    HW235742  13.288  14.770   6.869
77990SOL     OW35743   6.632   7.340   7.163
77990SOL    HW135744   6.612   7.250   7.188
77990SOL    HW235745   6.560   7.391   7.202
77991SOL     OW35746   6.240   8.314  13.144
77991SOL    HW135747   6.294   8.246  13.183
77991SOL    HW235748   6.288   8.339  13.064
77992SOL     OW35749   5.560  13.283  13.259
77992SOL    HW135750   5.609  13.271  13.177
77992SOL    HW235751   5.472  13.250  13.240
77993SOL     OW35752  14.581  10.902   4.615
77993SOL    HW135753  14.594  10.969   4.683
77993SOL    HW235754  14.495  10.865   4.635
77994SOL     OW35755  13.094   3.696   2.726
77994SOL    HW135756  13.036   3.624   2.750
77994SOL    HW235757  13.037   3.773   2.721
77995SOL     OW35758   7.821  10.595   0.873
77995SOL    HW135759   7.736  10.635   0.890
77995SOL    HW235760   7.834  10.533   0.945
77996SOL     OW35761  13.769  12.405  11.540
77996SOL    HW135762  13.791  12.459  11.616
77996SOL    HW235763  13.684  12.439  11.510
77997SOL     OW35764   4.246   0.472   9.937
77997SOL    HW135765   4.275   0.518   9.858
77997SOL    HW235766   4.317   0.412   9.958
77998SOL     OW35767  13.438   2.182   4.941
77998SOL    HW135768  13.385   2.233   5.002
77998SOL    HW235769  13.484   2.119   4.996
77999SOL     OW35770   7.469   9.706   8.649
77999SOL    HW135771   7.398   9.685   8.709
77999SOL    HW235772   7.429   9.702   8.562
78000SOL     OW35773   2.998   2.316   5.430
78000SOL    HW135774   2.989   2.411   5.417
78000SOL    HW235775   3.019   2.282   5.343
78001SOL     OW35776   0.931   1.996   6.748
78001SOL    HW135777   0.990   1.922   6.732
78001SOL    HW235778   0.917   2.035   6.662
78002SOL     OW35779   8.060   9.259  13.270
78002SOL    HW135780   7.985   9.269  13.211
78002SOL    HW235781   8.123   9.208  13.219
78003SOL     OW35782  10.718   9.634   0.501
78003SOL    HW135783  10.719   9.560   0.561
78003SOL    HW235784  10.805   9.673   0.509
78004SOL     OW35785   7.788  12.879   0.299
78004SOL    HW135786   7.696  12.888   0.275
78004SOL    HW235787   7.790  12.802   0.356
78005SOL     OW35788   5.585   3.082   4.034
78005SOL    HW135789   5.653   3.148   4.024
78005SOL    HW235790   5.509   3.130   4.065
78006SOL     OW35791   5.291  10.539  12.651
78006SOL    HW135792   5.366  10.530  12.710
78006SOL    HW235793   5.322  10.594  12.579
78007SOL     OW35794   6.332   4.023   6.390
78007SOL    HW135795   6.285   4.022   6.474
78007SOL    HW235796   6.392   4.097   6.398
78008SOL     OW35797   0.041   2.612   6.226
78008SOL    HW135798   0.086   2.562   6.158
78008SOL    HW235799   0.106   2.619   6.297
78009SOL     OW35800   1.390   0.582   8.150
78009SOL    HW135801   1.391   0.617   8.239
78009SOL    HW235802   1.363   0.656   8.096
78010SOL     OW35803  13.702  11.200   9.209
78010SOL    HW135804  13.734  11.201   9.119
78010SOL    HW235805  13.607  11.192   9.201
78011SOL     OW35806   2.121  11.906  11.674
78011SOL    HW135807   2.088  11.856  11.749
78011SOL    HW235808   2.214  11.883  11.669
78012SOL     OW35809   1.876  10.608   4.938
78012SOL    HW135810   1.893  10.659   5.018
78012SOL    HW235811   1.961  10.572   4.914
78013SOL     OW35812   5.685  13.966   6.263
78013SOL    HW135813   5.610  13.911   6.286
78013SOL    HW235814   5.679  14.041   6.323
78014SOL     OW35815   7.504   3.893   0.405
78014SOL    HW135816   7.455   3.857   0.331
78014SOL    HW235817   7.491   3.988   0.397
78015SOL     OW35818   2.620   0.966   2.103
78015SOL    HW135819   2.536   1.004   2.079
78015SOL    HW235820   2.660   1.031   2.161
78016SOL     OW35821  10.536   7.536  14.707
78016SOL    HW135822  10.584   7.543  14.790
78016SOL    HW235823  10.597   7.492  14.648
78017SOL     OW35824   1.145  13.304   3.091
78017SOL    HW135825   1.078  13.361   3.129
78017SOL    HW235826   1.172  13.247   3.162
78018SOL     OW35827  12.114   6.892  11.681
78018SOL    HW135828  12.075   6.980  11.675
78018SOL    HW235829  12.106   6.857  11.593
78019SOL     OW35830   4.468   3.665  12.247
78019SOL    HW135831   4.458   3.730  12.316
78019SOL    HW235832   4.379   3.651  12.214
78020SOL     OW35833   4.396   2.213  10.598
78020SOL    HW135834   4.405   2.173  10.511
78020SOL    HW235835   4.308   2.252  10.597
78021SOL     OW35836   9.651   5.519   1.207
78021SOL    HW135837   9.603   5.556   1.134
78021SOL    HW235838   9.614   5.561   1.285
78022SOL     OW35839   3.204   0.031  10.570
78022SOL    HW135840   3.223   0.019  10.663
78022SOL    HW235841   3.113   0.060  10.568
78023SOL     OW35842   3.122  10.140   9.468
78023SOL    HW135843   3.121  10.083   9.391
78023SOL    HW235844   3.183  10.099   9.528
78024SOL     OW35845  12.761  13.601   5.711
78024SOL    HW135846  12.785  13.692   5.728
78024SOL    HW235847  12.781  13.555   5.792
78025SOL     OW35848  10.825   5.093   4.120
78025SOL    HW135849  10.746   5.044   4.097
78025SOL    HW235850  10.794   5.163   4.177
78026SOL     OW35851   7.281   6.414  10.527
78026SOL    HW135852   7.327   6.454  10.453
78026SOL    HW235853   7.259   6.487  10.584
78027SOL     OW35854   7.346  10.465   4.816
78027SOL    HW135855   7.333  10.556   4.788
78027SOL    HW235856   7.423  10.436   4.766
78028SOL     OW35857   7.963  11.925   0.188
78028SOL    HW135858   7.872  11.955   0.195
78028SOL    HW235859   8.015  12.005   0.190
78029SOL     OW35860   1.699   7.295  12.678
78029SOL    HW135861   1.637   7.248  12.622
78029SOL    HW235862   1.687   7.387  12.655
78030SOL     OW35863  10.100   5.967   8.474
78030SOL    HW135864  10.067   6.026   8.406
78030SOL    HW235865  10.060   5.998   8.555
78031SOL     OW35866   8.504   6.831   1.031
78031SOL    HW135867   8.469   6.800   0.948
78031SOL    HW235868   8.593   6.861   1.010
78032SOL     OW35869  13.286   9.536   2.272
78032SOL    HW135870  13.257   9.482   2.345
78032SOL    HW235871  13.291   9.624   2.309
78033SOL     OW35872  10.667   2.951  10.753
78033SOL    HW135873  10.665   2.990  10.666
78033SOL    HW235874  10.733   3.001  10.800
78034SOL     OW35875   9.447   7.159   2.826
78034SOL    HW135876   9.400   7.187   2.747
78034SOL    HW235877   9.391   7.091   2.864
78035SOL     OW35878   8.720  13.686  14.228
78035SOL    HW135879   8.785  13.622  14.257
78035SOL    HW235880   8.735  13.693  14.133
78036SOL     OW35881   9.089  10.438   6.000
78036SOL    HW135882   9.176  10.464   6.029
78036SOL    HW235883   9.093  10.343   5.993
78037SOL     OW35884  10.138  12.342   7.154
78037SOL    HW135885  10.128  12.295   7.237
78037SOL    HW235886  10.187  12.282   7.098
78038SOL     OW35887   4.758   5.751   0.577
78038SOL    HW135888   4.849   5.725   0.561
78038SOL    HW235889   4.751   5.758   0.672
78039SOL     OW35890  13.553   5.606  10.645
78039SOL    HW135891  13.639   5.644  10.629
78039SOL    HW235892  13.514   5.596  10.558
78040SOL     OW35893   4.921   1.071   3.635
78040SOL    HW135894   4.958   1.026   3.560
78040SOL    HW235895   4.846   1.118   3.600
78041SOL     OW35896  13.200   1.175  13.754
78041SOL    HW135897  13.295   1.186  13.745
78041SOL    HW235898  13.181   1.093  13.710
78042SOL     OW35899   0.950  11.901  14.623
78042SOL    HW135900   0.994  11.841  14.562
78042SOL    HW235901   1.012  11.910  14.695
78043SOL     OW35902   2.294   7.505   8.054
78043SOL    HW135903   2.251   7.555   7.985
78043SOL    HW235904   2.378   7.548   8.067
78044SOL     OW35905  10.771   3.055   4.422
78044SOL    HW135906  10.852   3.006   4.437
78044SOL    HW235907  10.799   3.141   4.394
78045SOL     OW35908  12.356  10.319   1.327
78045SOL    HW135909  12.317  10.324   1.240
78045SOL    HW235910  12.313  10.390   1.376
78046SOL     OW35911   2.830  12.645  10.575
78046SOL    HW135912   2.817  12.617  10.484
78046SOL    HW235913   2.742  12.651  10.612
78047SOL     OW35914   5.821  10.602   0.086
78047SOL    HW135915   5.742  10.655   0.073
78047SOL    HW235916   5.796  10.514   0.059
78048SOL     OW35917   7.652  13.248   2.656
78048SOL    HW135918   7.616  13.171   2.698
78048SOL    HW235919   7.638  13.319   2.719
78049SOL     OW35920   1.552   1.694   4.121
78049SOL    HW135921   1.585   1.604   4.118
78049SOL    HW235922   1.552   1.723   4.030
78050SOL     OW35923   3.966   6.233   2.533
78050SOL    HW135924   4.052   6.266   2.560
78050SOL    HW235925   3.908   6.254   2.606
78051SOL     OW35926   2.785  12.307   2.261
78051SOL    HW135927   2.741  12.224   2.279
78051SOL    HW235928   2.728  12.352   2.198
78052SOL     OW35929   2.955   8.862   8.776
78052SOL    HW135930   2.973   8.832   8.865
78052SOL    HW235931   3.000   8.800   8.720
78053SOL     OW35932   7.152   3.452  14.796
78053SOL    HW135933   7.118   3.392  14.863
78053SOL    HW235934   7.203   3.396  14.737
78054SOL     OW35935   6.112   6.294   0.280
78054SOL    HW135936   6.165   6.348   0.223
78054SOL    HW235937   6.111   6.341   0.364
78055SOL     OW35938   7.054   9.376   9.604
78055SOL    HW135939   7.099   9.293   9.621
78055SOL    HW235940   7.053   9.421   9.688
78056SOL     OW35941  12.779   9.011   0.931
78056SOL    HW135942  12.742   8.927   0.958
78056SOL    HW235943  12.873   8.994   0.923
78057SOL     OW35944  13.164   7.648  12.399
78057SOL    HW135945  13.241   7.592  12.415
78057SOL    HW235946  13.090   7.596  12.430
78058SOL     OW35947   8.437   7.540  14.488
78058SOL    HW135948   8.505   7.606  14.475
78058SOL    HW235949   8.454   7.505  14.576
78059SOL     OW35950  11.112   1.370  12.271
78059SOL    HW135951  11.026   1.370  12.312
78059SOL    HW235952  11.107   1.438  12.203
78060SOL     OW35953  12.790   3.213  11.673
78060SOL    HW135954  12.803   3.124  11.705
78060SOL    HW235955  12.878   3.251  11.670
78061SOL     OW35956   3.758   5.200  12.417
78061SOL    HW135957   3.785   5.290  12.433
78061SOL    HW235958   3.835   5.159  12.377
78062SOL     OW35959   0.865   2.266   4.747
78062SOL    HW135960   0.831   2.339   4.696
78062SOL    HW235961   0.960   2.275   4.742
78063SOL     OW35962   8.393   1.339   0.414
78063SOL    HW135963   8.430   1.259   0.377
78063SOL    HW235964   8.336   1.373   0.346
78064SOL     OW35965   0.556   1.795   6.227
78064SOL    HW135966   0.572   1.873   6.281
78064SOL    HW235967   0.640   1.777   6.185
78065SOL     OW35968  11.258   7.124   3.557
78065SOL    HW135969  11.178   7.097   3.512
78065SOL    HW235970  11.313   7.161   3.488
78066SOL     OW35971   9.408  14.260  13.399
78066SOL    HW135972   9.342  14.285  13.463
78066SOL    HW235973   9.474  14.213  13.449
78067SOL     OW35974   7.066  13.028  10.821
78067SOL    HW135975   7.133  12.988  10.876
78067SOL    HW235976   7.068  13.120  10.844
78068SOL     OW35977   0.027   4.332   2.367
78068SOL    HW135978  14.858   4.296   2.294
78068SOL    HW235979  14.867   4.296   2.445
78069SOL     OW35980   5.011  13.481   0.719
78069SOL    HW135981   5.041  13.504   0.807
78069SOL    HW235982   4.944  13.547   0.699
78070SOL     OW35983   5.492  11.622  13.020
78070SOL    HW135984   5.490  11.554  13.088
78070SOL    HW235985   5.483  11.704  13.068
78071SOL     OW35986   5.926   4.498  12.909
78071SOL    HW135987   5.927   4.507  13.004
78071SOL    HW235988   5.838   4.526  12.883
78072SOL     OW35989   1.410  12.228   7.122
78072SOL    HW135990   1.347  12.290   7.087
78072SOL    HW235991   1.493  12.277   7.126
78073SOL     OW35992  14.166  14.291   5.518
78073SOL    HW135993  14.204  14.246   5.593
78073SOL    HW235994  14.226  14.274   5.446
78074SOL     OW35995   9.585   5.798   3.220
78074SOL    HW135996   9.549   5.801   3.309
78074SOL    HW235997   9.679   5.807   3.232
78075SOL     OW35998   1.256   9.221   2.334
78075SOL    HW135999   1.335   9.247   2.287
78075SOL    HW236000   1.272   9.248   2.425
78076SOL     OW36001   8.098   5.579   9.965
78076SOL    HW136002   8.041   5.652   9.993
78076SOL    HW236003   8.187   5.614   9.973
78077SOL     OW36004   7.389   9.815   6.454
78077SOL    HW136005   7.456   9.777   6.398
78077SOL    HW236006   7.353   9.888   6.403
78078SOL     OW36007  10.422   5.336   9.118
78078SOL    HW136008  10.437   5.371   9.030
78078SOL    HW236009  10.393   5.412   9.170
78079SOL     OW36010   8.202   0.313   8.747
78079SOL    HW136011   8.135   0.349   8.805
78079SOL    HW236012   8.161   0.316   8.660
78080SOL     OW36013   5.401  11.989  11.506
78080SOL    HW136014   5.435  12.037  11.581
78080SOL    HW236015   5.477  11.940  11.473
78081SOL     OW36016  12.281   4.564  12.224
78081SOL    HW136017  12.374   4.546  12.207
78081SOL    HW236018  12.280   4.605  12.311
78082SOL     OW36019  12.732  14.667  10.704
78082SOL    HW136020  12.824  14.682  10.728
78082SOL    HW236021  12.702  14.600  10.766
78083SOL     OW36022   3.744  10.122   5.406
78083SOL    HW136023   3.807  10.128   5.478
78083SOL    HW236024   3.736  10.211   5.373
78084SOL     OW36025   6.182  10.901   7.690
78084SOL    HW136026   6.241  10.976   7.685
78084SOL    HW236027   6.151  10.900   7.781
78085SOL     OW36028  14.223   5.128   7.887
78085SOL    HW136029  14.287   5.199   7.890
78085SOL    HW236030  14.159   5.150   7.954
78086SOL     OW36031   0.879   3.690  11.885
78086SOL    HW136032   0.969   3.671  11.911
78086SOL    HW236033   0.888   3.751  11.812
78087SOL     OW36034   7.347  14.159  14.288
78087SOL    HW136035   7.338  14.131  14.197
78087SOL    HW236036   7.367  14.078  14.336
78088SOL     OW36037   6.017   2.199   7.806
78088SOL    HW136038   6.067   2.163   7.733
78088SOL    HW236039   5.942   2.141   7.814
78089SOL     OW36040   0.468  12.301   1.751
78089SOL    HW136041   0.473  12.236   1.681
78089SOL    HW236042   0.376  12.325   1.755
78090SOL     OW36043  14.218   5.434   8.009
78090SOL    HW136044  14.302   5.411   7.969
78090SOL    HW236045  14.178   5.350   8.029
78091SOL     OW36046  10.134  10.099   1.200
78091SOL    HW136047  10.162  10.026   1.145
78091SOL    HW236048  10.056  10.134   1.158
78092SOL     OW36049  14.344   7.207   0.727
78092SOL    HW136050  14.256   7.244   0.733
78092SOL    HW236051  14.331   7.113   0.734
78093SOL     OW36052  11.469  12.645  13.511
78093SOL    HW136053  11.454  12.572  13.452
78093SOL    HW236054  11.507  12.606  13.589
78094SOL     OW36055   5.183   1.713   3.815
78094SOL    HW136056   5.265   1.757   3.838
78094SOL    HW236057   5.125   1.784   3.787
78095SOL     OW36058  14.717  12.003  14.352
78095SOL    HW136059  14.634  12.039  14.321
78095SOL    HW236060  14.778  12.077  14.351
78096SOL     OW36061  13.833   5.164   5.687
78096SOL    HW136062  13.813   5.206   5.771
78096SOL    HW236063  13.925   5.183   5.672
78097SOL     OW36064   2.376   1.474  13.857
78097SOL    HW136065   2.354   1.518  13.939
78097SOL    HW236066   2.352   1.537  13.788
78098SOL     OW36067   7.183  13.390   6.904
78098SOL    HW136068   7.203  13.484   6.899
78098SOL    HW236069   7.244  13.350   6.841
78099SOL     OW36070  12.778   6.673   7.164
78099SOL    HW136071  12.814   6.663   7.253
78099SOL    HW236072  12.836   6.620   7.109
78100SOL     OW36073   7.239   2.232   7.406
78100SOL    HW136074   7.174   2.186   7.459
78100SOL    HW236075   7.300   2.163   7.378
78101SOL     OW36076  14.876  13.709   1.267
78101SOL    HW136077   0.060  13.731   1.334
78101SOL    HW236078  14.874  13.786   1.210
78102SOL     OW36079  13.098  10.887   8.043
78102SOL    HW136080  13.053  10.910   7.961
78102SOL    HW236081  13.109  10.792   8.038
78103SOL     OW36082   8.960  14.409   4.229
78103SOL    HW136083   8.941  14.485   4.284
78103SOL    HW236084   8.877  14.361   4.225
78104SOL     OW36085   8.108  12.134   8.527
78104SOL    HW136086   8.150  12.074   8.588
78104SOL    HW236087   8.141  12.220   8.551
78105SOL     OW36088   7.769   5.928   1.069
78105SOL    HW136089   7.740   6.016   1.044
78105SOL    HW236090   7.719   5.869   1.013
78106SOL     OW36091   8.792   1.669   7.109
78106SOL    HW136092   8.812   1.600   7.172
78106SOL    HW236093   8.709   1.643   7.069
78107SOL     OW36094   9.663   7.414   3.297
78107SOL    HW136095   9.578   7.392   3.260
78107SOL    HW236096   9.703   7.473   3.233
78108SOL     OW36097   5.042  10.145   8.532
78108SOL    HW136098   4.960  10.163   8.577
78108SOL    HW236099   5.085  10.079   8.586
78109SOL     OW36100   1.837   1.758   8.406
78109SOL    HW136101   1.788   1.792   8.481
78109SOL    HW236102   1.929   1.767   8.432
78110SOL     OW36103   9.436   1.646   2.791
78110SOL    HW136104   9.489   1.636   2.870
78110SOL    HW236105   9.414   1.739   2.790
78111SOL     OW36106  13.820   5.049   3.079
78111SOL    HW136107  13.866   5.112   3.134
78111SOL    HW236108  13.834   5.080   2.990
78112SOL     OW36109  14.727   2.275   1.348
78112SOL    HW136110  14.716   2.194   1.399
78112SOL    HW236111  14.791   2.326   1.398
78113SOL     OW36112   8.131  12.979   7.767
78113SOL    HW136113   8.064  12.922   7.730
78113SOL    HW236114   8.114  13.064   7.727
78114SOL     OW36115   2.379  11.114   8.528
78114SOL    HW136116   2.430  11.033   8.530
78114SOL    HW236117   2.317  11.105   8.600
78115SOL     OW36118   0.679   8.162   2.090
78115SOL    HW136119   0.689   8.130   2.180
78115SOL    HW236120   0.682   8.082   2.037
78116SOL     OW36121   4.113  13.342  11.414
78116SOL    HW136122   4.096  13.305  11.328
78116SOL    HW236123   4.135  13.267  11.469
78117SOL     OW36124   6.791   9.359  10.623
78117SOL    HW136125   6.714   9.358  10.567
78117SOL    HW236126   6.822   9.268  10.623
78118SOL     OW36127   4.640   8.509  10.735
78118SOL    HW136128   4.555   8.552  10.738
78118SOL    HW236129   4.686   8.550  10.662
78119SOL     OW36130   6.703  12.944  13.999
78119SOL    HW136131   6.642  12.898  13.942
78119SOL    HW236132   6.648  12.978  14.070
78120SOL     OW36133  10.617   5.837   6.941
78120SOL    HW136134  10.652   5.910   6.993
78120SOL    HW236135  10.548   5.876   6.888
78121SOL     OW36136   7.402   5.782   3.077
78121SOL    HW136137   7.330   5.751   3.132
78121SOL    HW236138   7.424   5.869   3.111
78122SOL     OW36139  14.109  14.363   3.698
78122SOL    HW136140  14.176  14.298   3.718
78122SOL    HW236141  14.155  14.432   3.651
78123SOL     OW36142   4.933  13.710  13.085
78123SOL    HW136143   4.880  13.637  13.052
78123SOL    HW236144   4.870  13.768  13.127
78124SOL     OW36145  14.112  14.249   0.124
78124SOL    HW136146  14.102  14.157   0.147
78124SOL    HW236147  14.031  14.272   0.078
78125SOL     OW36148   4.891   5.068   7.961
78125SOL    HW136149   4.966   5.081   7.903
78125SOL    HW236150   4.930   5.048   8.046
78126SOL     OW36151   7.218  14.492  13.263
78126SOL    HW136152   7.281  14.434  13.219
78126SOL    HW236153   7.219  14.462  13.354
78127SOL     OW36154  11.592   5.039   7.894
78127SOL    HW136155  11.648   5.101   7.941
78127SOL    HW236156  11.563   4.977   7.961
78128SOL     OW36157   1.295  10.193  13.746
78128SOL    HW136158   1.330  10.114  13.787
78128SOL    HW236159   1.290  10.171  13.652
78129SOL     OW36160  13.434   1.338   5.715
78129SOL    HW136161  13.415   1.273   5.648
78129SOL    HW236162  13.382   1.414   5.691
78130SOL     OW36163   5.360   9.103   5.176
78130SOL    HW136164   5.293   9.155   5.132
78130SOL    HW236165   5.344   9.014   5.146
78131SOL     OW36166   8.538   9.844  12.180
78131SOL    HW136167   8.510   9.846  12.089
78131SOL    HW236168   8.531   9.752  12.205
78132SOL     OW36169   3.607   5.451   0.084
78132SOL    HW136170   3.598   5.452  14.870
78132SOL    HW236171   3.624   5.360   0.106
78133SOL     OW36172   9.693   9.251  14.803
78133SOL    HW136173   9.724   9.237   0.011
78133SOL    HW236174   9.633   9.179  14.787
78134SOL     OW36175   9.697   5.335  10.137
78134SOL    HW136176   9.643   5.410  10.160
78134SOL    HW236177   9.650   5.259  10.170
78135SOL     OW36178   6.576   6.584   1.999
78135SOL    HW136179   6.536   6.671   2.003
78135SOL    HW236180   6.573   6.560   1.907
78136SOL     OW36181   0.337  11.362  10.007
78136SOL    HW136182   0.327  11.359   9.912
78136SOL    HW236183   0.325  11.272  10.036
78137SOL     OW36184  11.956   1.031   5.343
78137SOL    HW136185  11.891   1.086   5.386
78137SOL    HW236186  12.040   1.060   5.378
78138SOL     OW36187   0.173  10.355  11.728
78138SOL    HW136188   0.128  10.416  11.787
78138SOL    HW236189   0.120  10.276  11.732
78139SOL     OW36190  12.806  10.997  14.432
78139SOL    HW136191  12.852  11.030  14.355
78139SOL    HW236192  12.723  11.044  14.432
78140SOL     OW36193   8.595   3.839   9.405
78140SOL    HW136194   8.562   3.750   9.395
78140SOL    HW236195   8.685   3.827   9.435
78141SOL     OW36196  13.492   9.511  10.670
78141SOL    HW136197  13.398   9.501  10.687
78141SOL    HW236198  13.500   9.495  10.576
78142SOL     OW36199   7.106  12.172  12.083
78142SOL    HW136200   7.049  12.117  12.029
78142SOL    HW236201   7.171  12.112  12.119
78143SOL     OW36202   5.504   5.881   4.399
78143SOL    HW136203   5.472   5.836   4.478
78143SOL    HW236204   5.529   5.810   4.340
78144SOL     OW36205   2.419   1.486   2.931
78144SOL    HW136206   2.365   1.524   3.000
78144SOL    HW236207   2.405   1.542   2.855
78145SOL     OW36208   8.010   2.918   0.339
78145SOL    HW136209   8.065   2.962   0.274
78145SOL    HW236210   8.007   2.826   0.310
78146SOL     OW36211   7.739  14.747  11.238
78146SOL    HW136212   7.733  14.688  11.163
78146SOL    HW236213   7.830  14.739  11.268
78147SOL     OW36214   8.751   9.267  11.332
78147SOL    HW136215   8.834   9.249  11.289
78147SOL    HW236216   8.684   9.245  11.266
78148SOL     OW36217  12.862   5.455   1.843
78148SOL    HW136218  12.935   5.447   1.781
78148SOL    HW236219  12.889   5.522   1.905
78149SOL     OW36220  12.021  14.084   8.712
78149SOL    HW136221  11.926  14.081   8.712
78149SOL    HW236222  12.043  14.176   8.727
78150SOL     OW36223   2.636   3.328   1.301
78150SOL    HW136224   2.692   3.381   1.357
78150SOL    HW236225   2.695   3.291   1.236
78151SOL     OW36226  12.231  12.115   8.439
78151SOL    HW136227  12.221  12.067   8.522
78151SOL    HW236228  12.173  12.191   8.448
78152SOL     OW36229   1.646   0.899  13.977
78152SOL    HW136230   1.735   0.869  13.999
78152SOL    HW236231   1.619   0.950  14.053
78153SOL     OW36232   1.249  10.415   0.496
78153SOL    HW136233   1.251  10.478   0.568
78153SOL    HW236234   1.181  10.352   0.521
78154SOL     OW36235   8.257   3.571  12.665
78154SOL    HW136236   8.284   3.514  12.736
78154SOL    HW236237   8.184   3.525  12.624
78155SOL     OW36238   4.855   1.512  13.952
78155SOL    HW136239   4.879   1.493  13.862
78155SOL    HW236240   4.938   1.538  13.994
78156SOL     OW36241   1.931   8.067  12.053
78156SOL    HW136242   1.972   8.023  11.979
78156SOL    HW236243   2.002   8.085  12.114
78157SOL     OW36244   0.500   2.227   9.122
78157SOL    HW136245   0.553   2.273   9.188
78157SOL    HW236246   0.468   2.297   9.065
78158SOL     OW36247   6.913   2.497  12.964
78158SOL    HW136248   6.826   2.475  12.995
78158SOL    HW236249   6.902   2.516  12.871
78159SOL     OW36250   4.540   3.586   2.252
78159SOL    HW136251   4.626   3.586   2.295
78159SOL    HW236252   4.554   3.536   2.171
78160SOL     OW36253   4.385  13.368   4.763
78160SOL    HW136254   4.381  13.276   4.734
78160SOL    HW236255   4.403  13.363   4.857
78161SOL     OW36256  14.424   9.190  11.342
78161SOL    HW136257  14.462   9.104  11.325
78161SOL    HW236258  14.338   9.171  11.379
78162SOL     OW36259   6.223   5.437   8.115
78162SOL    HW136260   6.145   5.407   8.068
78162SOL    HW236261   6.198   5.523   8.150
78163SOL     OW36262   7.278  13.389   8.379
78163SOL    HW136263   7.371  13.411   8.383
78163SOL    HW236264   7.253  13.411   8.289
78164SOL     OW36265  11.984   1.959  11.965
78164SOL    HW136266  12.007   1.894  12.031
78164SOL    HW236267  11.888   1.963  11.968
78165SOL     OW36268  14.456   9.867   6.830
78165SOL    HW136269  14.502   9.945   6.797
78165SOL    HW236270  14.399   9.901   6.899
78166SOL     OW36271   8.102   1.711  14.395
78166SOL    HW136272   8.030   1.648  14.402
78166SOL    HW236273   8.123   1.713  14.302
78167SOL     OW36274  12.538   3.643   5.955
78167SOL    HW136275  12.611   3.623   5.897
78167SOL    HW236276  12.460   3.637   5.899
78168SOL     OW36277   8.154   6.105   6.533
78168SOL    HW136278   8.210   6.075   6.605
78168SOL    HW236279   8.068   6.066   6.552
78169SOL     OW36280  14.108   2.185  13.250
78169SOL    HW136281  14.187   2.180  13.196
78169SOL    HW236282  14.090   2.095  13.275
78170SOL     OW36283   5.735   9.027   7.126
78170SOL    HW136284   5.738   8.932   7.133
78170SOL    HW236285   5.825   9.053   7.108
78171SOL     OW36286   1.643   2.305  12.846
78171SOL    HW136287   1.723   2.253  12.850
78171SOL    HW236288   1.630   2.321  12.752
78172SOL     OW36289   8.156  13.072  11.836
78172SOL    HW136290   8.175  13.061  11.743
78172SOL    HW236291   8.136  13.166  11.845
78173SOL     OW36292   1.329  12.542   5.935
78173SOL    HW136293   1.387  12.482   5.890
78173SOL    HW236294   1.278  12.487   5.994
78174SOL     OW36295   0.084   5.549  14.775
78174SOL    HW136296   0.055   5.636  14.747
78174SOL    HW236297   0.051   5.541  14.865
78175SOL     OW36298   3.609   9.182   3.503
78175SOL    HW136299   3.685   9.135   3.470
78175SOL    HW236300   3.582   9.238   3.430
78176SOL     OW36301   7.571   7.445   3.813
78176SOL    HW136302   7.660   7.461   3.781
78176SOL    HW236303   7.536   7.379   3.754
78177SOL     OW36304   0.657  12.479   1.818
78177SOL    HW136305   0.623  12.515   1.900
78177SOL    HW236306   0.584  12.427   1.784
78178SOL     OW36307   7.875   8.977  14.703
78178SOL    HW136308   7.817   9.041  14.742
78178SOL    HW236309   7.822   8.898  14.693
78179SOL     OW36310   1.213   0.431   6.280
78179SOL    HW136311   1.265   0.457   6.204
78179SOL    HW236312   1.270   0.448   6.355
78180SOL     OW36313  14.443  13.245   4.488
78180SOL    HW136314  14.516  13.242   4.549
78180SOL    HW236315  14.375  13.295   4.533
78181SOL     OW36316  14.662   1.268   9.841
78181SOL    HW136317  14.611   1.189   9.823
78181SOL    HW236318  14.660   1.317   9.758
78182SOL     OW36319   5.532   5.265   3.408
78182SOL    HW136320   5.553   5.359   3.413
78182SOL    HW236321   5.606   5.227   3.360
78183SOL     OW36322   7.078   6.263  10.669
78183SOL    HW136323   7.040   6.204  10.604
78183SOL    HW236324   7.148   6.308  10.623
78184SOL     OW36325   9.643   4.206  13.417
78184SOL    HW136326   9.571   4.222  13.479
78184SOL    HW236327   9.681   4.123  13.447
78185SOL     OW36328   4.700   7.852   6.874
78185SOL    HW136329   4.733   7.794   6.805
78185SOL    HW236330   4.660   7.925   6.827
78186SOL     OW36331  13.585   7.432  12.499
78186SOL    HW136332  13.654   7.365  12.498
78186SOL    HW236333  13.509   7.388  12.462
78187SOL     OW36334  13.178   3.466   7.486
78187SOL    HW136335  13.128   3.475   7.567
78187SOL    HW236336  13.269   3.479   7.512
78188SOL     OW36337   8.866   2.827   5.290
78188SOL    HW136338   8.918   2.750   5.266
78188SOL    HW236339   8.811   2.797   5.362
78189SOL     OW36340   5.357   4.832   9.233
78189SOL    HW136341   5.292   4.901   9.245
78189SOL    HW236342   5.432   4.861   9.284
78190SOL     OW36343   1.372   7.692   3.419
78190SOL    HW136344   1.460   7.694   3.381
78190SOL    HW236345   1.356   7.599   3.436
78191SOL     OW36346  14.366   9.755  12.753
78191SOL    HW136347  14.440   9.815  12.744
78191SOL    HW236348  14.368   9.728  12.845
78192SOL     OW36349   0.715  13.816   5.646
78192SOL    HW136350   0.755  13.823   5.733
78192SOL    HW236351   0.683  13.904   5.627
78193SOL     OW36352   1.142  11.112   1.204
78193SOL    HW136353   1.189  11.029   1.195
78193SOL    HW236354   1.196  11.163   1.265
78194SOL     OW36355   4.061  11.089   6.543
78194SOL    HW136356   4.130  11.144   6.581
78194SOL    HW236357   4.019  11.048   6.618
78195SOL     OW36358   5.863  13.996  10.178
78195SOL    HW136359   5.862  13.966  10.269
78195SOL    HW236360   5.832  13.920  10.128
78196SOL     OW36361   7.100  10.223   0.856
78196SOL    HW136362   7.122  10.168   0.781
78196SOL    HW236363   7.102  10.163   0.931
78197SOL     OW36364   7.899   3.228  13.242
78197SOL    HW136365   7.916   3.133  13.246
78197SOL    HW236366   7.803   3.234  13.237
78198SOL     OW36367   1.973  11.932  12.441
78198SOL    HW136368   1.995  12.024  12.426
78198SOL    HW236369   2.003  11.914  12.530
78199SOL     OW36370   2.357   7.716  12.533
78199SOL    HW136371   2.327   7.698  12.622
78199SOL    HW236372   2.448   7.685  12.532
78200SOL     OW36373  14.227   5.088   3.967
78200SOL    HW136374  14.267   5.076   4.053
78200SOL    HW236375  14.300   5.088   3.905
78201SOL     OW36376   1.554   6.129  10.831
78201SOL    HW136377   1.541   6.203  10.772
78201SOL    HW236378   1.486   6.066  10.806
78202SOL     OW36379   9.368   5.223   4.162
78202SOL    HW136380   9.379   5.178   4.246
78202SOL    HW236381   9.309   5.296   4.181
78203SOL     OW36382   4.095   6.468  10.354
78203SOL    HW136383   4.162   6.489  10.419
78203SOL    HW236384   4.096   6.543  10.294
78204SOL     OW36385   5.452  12.998  10.377
78204SOL    HW136386   5.460  13.092  10.389
78204SOL    HW236387   5.380  12.988  10.314
78205SOL     OW36388   8.286  10.857   3.341
78205SOL    HW136389   8.273  10.912   3.264
78205SOL    HW236390   8.362  10.803   3.320
78206SOL     OW36391  11.544  10.675   6.216
78206SOL    HW136392  11.577  10.588   6.194
78206SOL    HW236393  11.547  10.723   6.133
78207SOL     OW36394   6.474   9.701   8.785
78207SOL    HW136395   6.398   9.692   8.728
78207SOL    HW236396   6.522   9.618   8.774
78208SOL     OW36397  14.277   7.561   7.453
78208SOL    HW136398  14.261   7.469   7.431
78208SOL    HW236399  14.197   7.606   7.424
78209SOL     OW36400   8.986  12.546   2.224
78209SOL    HW136401   9.027  12.506   2.147
78209SOL    HW236402   8.905  12.584   2.191
78210SOL     OW36403   3.276   2.451  11.450
78210SOL    HW136404   3.252   2.390  11.379
78210SOL    HW236405   3.321   2.522  11.405
78211SOL     OW36406  13.753   3.789   3.658
78211SOL    HW136407  13.726   3.867   3.708
78211SOL    HW236408  13.674   3.762   3.611
78212SOL     OW36409   6.756   8.617   1.255
78212SOL    HW136410   6.679   8.660   1.219
78212SOL    HW236411   6.807   8.591   1.178
78213SOL     OW36412   4.784   0.324  13.780
78213SOL    HW136413   4.868   0.340  13.737
78213SOL    HW236414   4.807   0.315  13.873
78214SOL     OW36415  11.249  13.131   2.237
78214SOL    HW136416  11.263  13.216   2.196
78214SOL    HW236417  11.327  13.117   2.291
78215SOL     OW36418   5.625  11.851   9.020
78215SOL    HW136419   5.530  11.838   9.022
78215SOL    HW236420   5.648  11.846   8.927
78216SOL     OW36421   1.308  14.845   3.552
78216SOL    HW136422   1.325  14.790   3.629
78216SOL    HW236423   1.261   0.039   3.587
78217SOL     OW36424  11.621   2.484  13.307
78217SOL    HW136425  11.690   2.430  13.347
78217SOL    HW236426  11.544   2.428  13.306
78218SOL     OW36427   2.011   3.588  14.340
78218SOL    HW136428   2.103   3.566  14.355
78218SOL    HW236429   2.004   3.596  14.244
78219SOL     OW36430   6.415  12.091   6.053
78219SOL    HW136431   6.436  12.016   6.108
78219SOL    HW236432   6.323  12.109   6.071
78220SOL     OW36433   9.645   0.015  12.188
78220SOL    HW136434   9.576   0.068  12.149
78220SOL    HW236435   9.614  14.806  12.178
78221SOL     OW36436   1.590  14.379   6.274
78221SOL    HW136437   1.605  14.434   6.197
78221SOL    HW236438   1.649  14.414   6.341
78222SOL     OW36439   4.602   5.956   1.773
78222SOL    HW136440   4.591   5.863   1.751
78222SOL    HW236441   4.550   6.003   1.708
78223SOL     OW36442  11.259   1.706   7.959
78223SOL    HW136443  11.172   1.717   7.998
78223SOL    HW236444  11.262   1.614   7.932
78224SOL     OW36445  12.643   7.543   7.234
78224SOL    HW136446  12.591   7.502   7.303
78224SOL    HW236447  12.733   7.541   7.267
78225SOL     OW36448  13.084   0.580  14.184
78225SOL    HW136449  13.150   0.552  14.247
78225SOL    HW236450  13.114   0.666  14.155
78226SOL     OW36451   0.296   1.065   0.040
78226SOL    HW136452   0.240   1.102  14.854
78226SOL    HW236453   0.369   1.026  14.873
78227SOL     OW36454   2.410   5.128   9.972
78227SOL    HW136455   2.399   5.044  10.016
78227SOL    HW236456   2.436   5.188  10.042
78228SOL     OW36457   4.707  12.675  12.648
78228SOL    HW136458   4.637  12.610  12.647
78228SOL    HW236459   4.698  12.719  12.733
78229SOL     OW36460   7.296   4.747   1.286
78229SOL    HW136461   7.234   4.791   1.344
78229SOL    HW236462   7.247   4.733   1.205
78230SOL     OW36463   3.026   7.919  12.686
78230SOL    HW136464   3.113   7.915  12.725
78230SOL    HW236465   3.000   8.011  12.694
78231SOL     OW36466   8.917   3.856  13.714
78231SOL    HW136467   8.931   3.949  13.731
78231SOL    HW236468   8.841   3.854  13.655
78232SOL     OW36469  10.193   9.590  14.846
78232SOL    HW136470  10.132   9.665  14.849
78232SOL    HW236471  10.259   9.616  14.782
78233SOL     OW36472  14.099   2.436   2.737
78233SOL    HW136473  14.094   2.458   2.644
78233SOL    HW236474  14.136   2.347   2.739
78234SOL     OW36475   4.515   7.505   3.993
78234SOL    HW136476   4.555   7.420   4.008
78234SOL    HW236477   4.518   7.549   4.079
78235SOL     OW36478  11.628   6.228   5.316
78235SOL    HW136479  11.577   6.153   5.287
78235SOL    HW236480  11.708   6.225   5.263
78236SOL     OW36481   4.912   6.760   1.784
78236SOL    HW136482   4.881   6.674   1.813
78236SOL    HW236483   4.942   6.746   1.694
78237SOL     OW36484  14.090   4.388   8.146
78237SOL    HW136485  14.071   4.295   8.157
78237SOL    HW236486  14.134   4.395   8.062
78238SOL     OW36487  10.600  13.297  11.775
78238SOL    HW136488  10.583  13.351  11.698
78238SOL    HW236489  10.611  13.208  11.740
78239SOL     OW36490  13.305  12.552   0.824
78239SOL    HW136491  13.281  12.642   0.804
78239SOL    HW236492  13.393  12.558   0.862
78240SOL     OW36493   6.867  10.425   9.483
78240SOL    HW136494   6.960  10.416   9.465
78240SOL    HW236495   6.823  10.386   9.407
78241SOL     OW36496   7.845   4.212  11.355
78241SOL    HW136497   7.867   4.119  11.358
78241SOL    HW236498   7.753   4.215  11.329
78242SOL     OW36499   9.893  14.164  13.662
78242SOL    HW136500   9.899  14.243  13.716
78242SOL    HW236501   9.972  14.165  13.608
78243SOL     OW36502  12.203   3.859   1.222
78243SOL    HW136503  12.152   3.789   1.263
78243SOL    HW236504  12.191   3.934   1.280
78244SOL     OW36505   6.858   4.368   6.552
78244SOL    HW136506   6.942   4.322   6.558
78244SOL    HW236507   6.798   4.303   6.514
78245SOL     OW36508  10.120   7.985  12.701
78245SOL    HW136509  10.144   7.911  12.645
78245SOL    HW236510  10.029   7.967  12.726
78246SOL     OW36511  11.910   1.398  13.512
78246SOL    HW136512  11.845   1.328  13.510
78246SOL    HW236513  11.945   1.397  13.601
78247SOL     OW36514  12.587   0.826  10.398
78247SOL    HW136515  12.564   0.853  10.310
78247SOL    HW236516  12.567   0.902  10.453
78248SOL     OW36517  14.429  12.668   8.414
78248SOL    HW136518  14.358  12.731   8.399
78248SOL    HW236519  14.472  12.659   8.329
78249SOL     OW36520   8.917   1.397   3.480
78249SOL    HW136521   8.952   1.482   3.453
78249SOL    HW236522   8.956   1.381   3.566
78250SOL     OW36523  13.210  11.164  10.308
78250SOL    HW136524  13.284  11.124  10.353
78250SOL    HW236525  13.136  11.107  10.329
78251SOL     OW36526   6.604  14.482  12.224
78251SOL    HW136527   6.655  14.434  12.289
78251SOL    HW236528   6.516  14.446  12.232
78252SOL     OW36529  13.144   1.706   2.392
78252SOL    HW136530  13.197   1.641   2.347
78252SOL    HW236531  13.126   1.667   2.478
78253SOL     OW36532   5.475   2.283   5.307
78253SOL    HW136533   5.530   2.293   5.385
78253SOL    HW236534   5.389   2.260   5.341
78254SOL     OW36535  12.343   8.086   1.826
78254SOL    HW136536  12.418   8.059   1.773
78254SOL    HW236537  12.381   8.140   1.895
78255SOL     OW36538   1.922   7.820  13.036
78255SOL    HW136539   1.973   7.898  13.013
78255SOL    HW236540   1.952   7.797  13.123
78256SOL     OW36541   9.017  12.182  10.064
78256SOL    HW136542   9.057  12.249  10.009
78256SOL    HW236543   9.015  12.104  10.008
78257SOL     OW36544   9.567  11.527   5.345
78257SOL    HW136545   9.518  11.565   5.272
78257SOL    HW236546   9.561  11.592   5.415
78258SOL     OW36547   0.330   9.133  11.599
78258SOL    HW136548   0.409   9.126  11.545
78258SOL    HW236549   0.320   9.046  11.638
78259SOL     OW36550  14.808  10.044  10.791
78259SOL    HW136551  14.803  10.043  10.887
78259SOL    HW236552   0.013  10.008  10.772
78260SOL     OW36553   2.109   6.141   7.364
78260SOL    HW136554   2.090   6.133   7.457
78260SOL    HW236555   2.023   6.139   7.322
78261SOL     OW36556   8.589   1.260  14.003
78261SOL    HW136557   8.656   1.322  14.029
78261SOL    HW236558   8.590   1.262  13.907
78262SOL     OW36559   3.990  10.885   3.167
78262SOL    HW136560   3.989  10.978   3.191
78262SOL    HW236561   3.917  10.875   3.106
78263SOL     OW36562   5.977   8.183  13.432
78263SOL    HW136563   5.957   8.110  13.373
78263SOL    HW236564   6.070   8.172  13.453
78264SOL     OW36565   1.869  10.512   6.352
78264SOL    HW136566   1.841  10.551   6.435
78264SOL    HW236567   1.854  10.418   6.362
78265SOL     OW36568   3.088   4.646   3.437
78265SOL    HW136569   3.127   4.733   3.430
78265SOL    HW236570   2.994   4.662   3.443
78266SOL     OW36571   9.017   8.911   9.013
78266SOL    HW136572   9.064   8.876   9.088
78266SOL    HW236573   9.026   8.844   8.945
78267SOL     OW36574   6.909   2.592  11.637
78267SOL    HW136575   6.897   2.655  11.566
78267SOL    HW236576   7.003   2.579  11.643
78268SOL     OW36577   9.666  13.017   2.741
78268SOL    HW136578   9.614  12.944   2.708
78268SOL    HW236579   9.657  13.012   2.836
78269SOL     OW36580  11.774  11.712   8.130
78269SOL    HW136581  11.722  11.706   8.049
78269SOL    HW236582  11.862  11.685   8.104
78270SOL     OW36583   5.859   6.537   4.245
78270SOL    HW136584   5.841   6.627   4.218
78270SOL    HW236585   5.776   6.491   4.235
78271SOL     OW36586   2.871   0.367   6.075
78271SOL    HW136587   2.784   0.398   6.100
78271SOL    HW236588   2.913   0.445   6.038
78272SOL     OW36589   2.280   8.423  14.146
78272SOL    HW136590   2.224   8.403  14.072
78272SOL    HW236591   2.365   8.443  14.107
78273SOL     OW36592   8.763   7.657   3.248
78273SOL    HW136593   8.715   7.647   3.165
78273SOL    HW236594   8.852   7.629   3.227
78274SOL     OW36595  13.084  10.239   5.107
78274SOL    HW136596  13.109  10.214   5.196
78274SOL    HW236597  13.009  10.183   5.087
78275SOL     OW36598  13.701   2.034  12.745
78275SOL    HW136599  13.778   1.978  12.751
78275SOL    HW236600  13.628   1.979  12.774
78276SOL     OW36601   7.945  13.990   8.163
78276SOL    HW136602   7.913  13.990   8.073
78276SOL    HW236603   8.029  14.036   8.159
78277SOL     OW36604  10.790  14.290   6.113
78277SOL    HW136605  10.792  14.213   6.056
78277SOL    HW236606  10.747  14.258   6.193
78278SOL     OW36607  12.383   1.284  14.119
78278SOL    HW136608  12.463   1.267  14.069
78278SOL    HW236609  12.328   1.335  14.060
78279SOL     OW36610   0.428   6.935  14.544
78279SOL    HW136611   0.448   6.931  14.637
78279SOL    HW236612   0.512   6.921  14.500
78280SOL     OW36613   8.791   4.226  12.581
78280SOL    HW136614   8.711   4.175  12.571
78280SOL    HW236615   8.762   4.313  12.607
78281SOL     OW36616   4.470   0.467   9.387
78281SOL    HW136617   4.406   0.402   9.414
78281SOL    HW236618   4.452   0.481   9.293
78282SOL     OW36619   7.339   3.863   4.889
78282SOL    HW136620   7.422   3.816   4.892
78282SOL    HW236621   7.313   3.873   4.980
78283SOL     OW36622  10.538   8.056   4.331
78283SOL    HW136623  10.480   8.103   4.271
78283SOL    HW236624  10.599   8.122   4.361
78284SOL     OW36625  14.076   3.470   7.260
78284SOL    HW136626  14.080   3.450   7.354
78284SOL    HW236627  13.994   3.517   7.248
78285SOL     OW36628  13.858   5.240   4.638
78285SOL    HW136629  13.888   5.284   4.558
78285SOL    HW236630  13.799   5.304   4.678
78286SOL     OW36631  11.842   2.108   8.348
78286SOL    HW136632  11.799   2.042   8.294
78286SOL    HW236633  11.811   2.090   8.437
78287SOL     OW36634   6.506   8.131   0.474
78287SOL    HW136635   6.491   8.117   0.568
78287SOL    HW236636   6.474   8.051   0.432
78288SOL     OW36637   2.783   9.142  12.200
78288SOL    HW136638   2.820   9.221  12.161
78288SOL    HW236639   2.853   9.077  12.193
78289SOL     OW36640  11.047   0.739   2.270
78289SOL    HW136641  11.059   0.829   2.239
78289SOL    HW236642  11.118   0.691   2.228
78290SOL     OW36643   5.476   2.766   1.669
78290SOL    HW136644   5.465   2.671   1.668
78290SOL    HW236645   5.388   2.800   1.655
78291SOL     OW36646   8.234  11.794   2.079
78291SOL    HW136647   8.274  11.815   1.995
78291SOL    HW236648   8.203  11.878   2.113
78292SOL     OW36649   5.028   2.487  10.221
78292SOL    HW136650   4.980   2.406  10.205
78292SOL    HW236651   5.065   2.476  10.309
78293SOL     OW36652  10.306   6.697   6.371
78293SOL    HW136653  10.344   6.633   6.311
78293SOL    HW236654  10.319   6.781   6.328
78294SOL     OW36655  13.081   0.387  14.510
78294SOL    HW136656  13.112   0.473  14.481
78294SOL    HW236657  13.149   0.355  14.569
78295SOL     OW36658  13.762  14.077   8.432
78295SOL    HW136659  13.734  14.033   8.512
78295SOL    HW236660  13.740  14.169   8.446
78296SOL     OW36661   7.581   7.884  12.757
78296SOL    HW136662   7.658   7.839  12.721
78296SOL    HW236663   7.517   7.882  12.686
78297SOL     OW36664   9.786   4.909  10.934
78297SOL    HW136665   9.716   4.958  10.891
78297SOL    HW236666   9.755   4.894  11.023
78298SOL     OW36667  12.169   3.416  14.553
78298SOL    HW136668  12.123   3.363  14.618
78298SOL    HW236669  12.239   3.359  14.520
78299SOL     OW36670   5.930   9.388   5.551
78299SOL    HW136671   5.993   9.458   5.540
78299SOL    HW236672   5.875   9.392   5.473
78300SOL     OW36673  11.337   8.298  13.266
78300SOL    HW136674  11.383   8.381  13.272
78300SOL    HW236675  11.303   8.282  13.354
78301SOL     OW36676   8.680  11.220   6.317
78301SOL    HW136677   8.630  11.291   6.359
78301SOL    HW236678   8.706  11.164   6.390
78302SOL     OW36679   8.465   1.763  11.371
78302SOL    HW136680   8.411   1.762  11.450
78302SOL    HW236681   8.493   1.855  11.363
78303SOL     OW36682  10.005   4.446   9.422
78303SOL    HW136683  10.069   4.494   9.475
78303SOL    HW236684  10.049   4.431   9.339
78304SOL     OW36685   1.793   3.816   0.219
78304SOL    HW136686   1.784   3.900   0.175
78304SOL    HW236687   1.886   3.796   0.213
78305SOL     OW36688   5.534  14.164  10.502
78305SOL    HW136689   5.578  14.117  10.573
78305SOL    HW236690   5.545  14.107  10.426
78306SOL     OW36691  10.288   9.903   1.040
78306SOL    HW136692  10.266   9.813   1.015
78306SOL    HW236693  10.221   9.957   0.998
78307SOL     OW36694   8.564  12.240   2.325
78307SOL    HW136695   8.557  12.329   2.290
78307SOL    HW236696   8.481  12.227   2.371
78308SOL     OW36697  11.465  11.684  12.305
78308SOL    HW136698  11.420  11.603  12.283
78308SOL    HW236699  11.426  11.712  12.388
78309SOL     OW36700  12.281   4.881  10.679
78309SOL    HW136701  12.219   4.948  10.710
78309SOL    HW236702  12.331   4.858  10.757
78310SOL     OW36703  12.814   1.701   9.094
78310SOL    HW136704  12.885   1.661   9.144
78310SOL    HW236705  12.857   1.738   9.017
78311SOL     OW36706  10.363   4.496   8.036
78311SOL    HW136707  10.290   4.546   7.997
78311SOL    HW236708  10.430   4.562   8.054
78312SOL     OW36709   9.130   7.794   3.659
78312SOL    HW136710   9.037   7.769   3.662
78312SOL    HW236711   9.160   7.761   3.574
78313SOL     OW36712  10.586   7.707   8.396
78313SOL    HW136713  10.515   7.672   8.450
78313SOL    HW236714  10.626   7.774   8.451
78314SOL     OW36715  10.117   9.997   6.386
78314SOL    HW136716  10.123   9.914   6.433
78314SOL    HW236717  10.207  10.029   6.382
78315SOL     OW36718   4.955   7.037   7.081
78315SOL    HW136719   5.022   7.041   7.013
78315SOL    HW236720   4.880   7.083   7.044
78316SOL     OW36721   0.120   3.739  11.875
78316SOL    HW136722   0.054   3.773  11.936
78316SOL    HW236723   0.069   3.710  11.799
78317SOL     OW36724  12.147  14.494   6.496
78317SOL    HW136725  12.224  14.461   6.451
78317SOL    HW236726  12.101  14.415   6.526
78318SOL     OW36727   2.935   8.160   9.023
78318SOL    HW136728   2.917   8.084   8.968
78318SOL    HW236729   2.949   8.123   9.111
78319SOL     OW36730  11.972   6.374  14.617
78319SOL    HW136731  11.888   6.406  14.583
78319SOL    HW236732  12.009   6.324  14.544
78320SOL     OW36733   7.444   6.565   5.442
78320SOL    HW136734   7.528   6.611   5.452
78320SOL    HW236735   7.436   6.551   5.348
78321SOL     OW36736   1.018   4.581   5.513
78321SOL    HW136737   0.993   4.494   5.482
78321SOL    HW236738   1.106   4.594   5.479
78322SOL     OW36739   4.975   3.304   1.508
78322SOL    HW136740   4.946   3.371   1.570
78322SOL    HW236741   5.002   3.230   1.563
78323SOL     OW36742   7.252  13.171   6.025
78323SOL    HW136743   7.216  13.173   5.936
78323SOL    HW236744   7.330  13.226   6.019
78324SOL     OW36745  13.845  12.577   3.865
78324SOL    HW136746  13.889  12.549   3.945
78324SOL    HW236747  13.783  12.645   3.894
78325SOL     OW36748   3.672  11.378  11.315
78325SOL    HW136749   3.755  11.336  11.337
78325SOL    HW236750   3.691  11.472  11.317
78326SOL     OW36751   5.941   3.211   3.252
78326SOL    HW136752   6.019   3.165   3.221
78326SOL    HW236753   5.931   3.182   3.343
78327SOL     OW36754   9.370   2.354  11.511
78327SOL    HW136755   9.380   2.349  11.606
78327SOL    HW236756   9.406   2.271  11.479
78328SOL     OW36757   9.543   5.453   2.817
78328SOL    HW136758   9.485   5.516   2.774
78328SOL    HW236759   9.583   5.502   2.889
78329SOL     OW36760   6.585  13.703   2.337
78329SOL    HW136761   6.617  13.616   2.361
78329SOL    HW236762   6.609  13.759   2.410
78330SOL     OW36763  14.175   1.266  14.349
78330SOL    HW136764  14.269   1.277  14.365
78330SOL    HW236765  14.137   1.353  14.365
78331SOL     OW36766   6.133  11.089   5.608
78331SOL    HW136767   6.052  11.075   5.655
78331SOL    HW236768   6.145  11.184   5.607
78332SOL     OW36769   4.814  10.773   8.726
78332SOL    HW136770   4.809  10.778   8.822
78332SOL    HW236771   4.871  10.698   8.709
78333SOL     OW36772   0.306   3.543   1.845
78333SOL    HW136773   0.377   3.575   1.790
78333SOL    HW236774   0.232   3.533   1.784
78334SOL     OW36775  11.175  11.122   1.394
78334SOL    HW136776  11.115  11.068   1.445
78334SOL    HW236777  11.260  11.109   1.435
78335SOL     OW36778   6.263   9.262   5.198
78335SOL    HW136779   6.335   9.314   5.162
78335SOL    HW236780   6.259   9.287   5.290
78336SOL     OW36781   6.868  12.108   8.356
78336SOL    HW136782   6.859  12.203   8.366
78336SOL    HW236783   6.800  12.084   8.294
78337SOL     OW36784   7.205  10.753   7.769
78337SOL    HW136785   7.161  10.838   7.768
78337SOL    HW236786   7.205  10.727   7.861
78338SOL     OW36787  11.208   2.790   5.128
78338SOL    HW136788  11.194   2.748   5.213
78338SOL    HW236789  11.125   2.834   5.110
78339SOL     OW36790   7.457  13.973  10.807
78339SOL    HW136791   7.420  13.899  10.759
78339SOL    HW236792   7.381  14.023  10.836
78340SOL     OW36793   2.045  14.840   3.005
78340SOL    HW136794   2.048   0.003   2.921
78340SOL    HW236795   2.130  14.859   3.045
78341SOL     OW36796  11.880   4.830   2.152
78341SOL    HW136797  11.955   4.846   2.094
78341SOL    HW236798  11.893   4.890   2.225
78342SOL     OW36799   4.364   7.512  11.797
78342SOL    HW136800   4.412   7.510  11.879
78342SOL    HW236801   4.328   7.601  11.792
78343SOL     OW36802  11.621  13.635  14.225
78343SOL    HW136803  11.613  13.617  14.319
78343SOL    HW236804  11.546  13.691  14.205
78344SOL     OW36805  12.721   0.983   8.989
78344SOL    HW136806  12.791   1.020   9.043
78344SOL    HW236807  12.760   0.907   8.947
78345SOL     OW36808   8.679   1.093  10.428
78345SOL    HW136809   8.646   1.133  10.508
78345SOL    HW236810   8.626   1.130  10.358
78346SOL     OW36811   2.325   1.156  14.208
78346SOL    HW136812   2.305   1.089  14.143
78346SOL    HW236813   2.406   1.127  14.249
78347SOL     OW36814   4.732   7.573   1.055
78347SOL    HW136815   4.770   7.518   1.124
78347SOL    HW236816   4.650   7.605   1.093
78348SOL     OW36817   3.735   7.172   5.484
78348SOL    HW136818   3.781   7.219   5.414
78348SOL    HW236819   3.722   7.084   5.450
78349SOL     OW36820   4.857   4.302   2.546
78349SOL    HW136821   4.824   4.213   2.550
78349SOL    HW236822   4.856   4.332   2.637
78350SOL     OW36823   3.458   4.765   3.979
78350SOL    HW136824   3.528   4.751   4.044
78350SOL    HW236825   3.495   4.731   3.898
78351SOL     OW36826  12.926   5.090   0.797
78351SOL    HW136827  12.835   5.092   0.770
78351SOL    HW236828  12.973   5.135   0.726
78352SOL     OW36829   1.979   5.047  12.166
78352SOL    HW136830   1.959   5.099  12.089
78352SOL    HW236831   2.026   5.107  12.224
78353SOL     OW36832   7.888   8.018   6.012
78353SOL    HW136833   7.960   7.997   6.071
78353SOL    HW236834   7.813   8.032   6.069
78354SOL     OW36835  11.313  10.626   5.952
78354SOL    HW136836  11.309  10.536   5.920
78354SOL    HW236837  11.400  10.634   5.991
78355SOL     OW36838   2.440   4.459  11.413
78355SOL    HW136839   2.438   4.492  11.323
78355SOL    HW236840   2.465   4.534  11.466
78356SOL     OW36841   0.120  10.639  11.966
78356SOL    HW136842   0.090  10.709  11.909
78356SOL    HW236843   0.082  10.659  12.052
78357SOL     OW36844   4.226   5.637   1.462
78357SOL    HW136845   4.202   5.571   1.526
78357SOL    HW236846   4.190   5.603   1.379
78358SOL     OW36847  11.312   8.239  14.778
78358SOL    HW136848  11.377   8.299  14.741
78358SOL    HW236849  11.358   8.155  14.784
78359SOL     OW36850  11.542   8.226  10.669
78359SOL    HW136851  11.534   8.310  10.713
78359SOL    HW236852  11.518   8.243  10.578
78360SOL     OW36853   2.961  12.519   4.895
78360SOL    HW136854   3.055  12.520   4.875
78360SOL    HW236855   2.931  12.436   4.859
78361SOL     OW36856  13.190  13.428   2.735
78361SOL    HW136857  13.177  13.347   2.784
78361SOL    HW236858  13.283  13.429   2.715
78362SOL     OW36859  12.125   3.477   3.648
78362SOL    HW136860  12.085   3.400   3.688
78362SOL    HW236861  12.144   3.535   3.722
78363SOL     OW36862   2.223  10.280  11.380
78363SOL    HW136863   2.241  10.329  11.299
78363SOL    HW236864   2.193  10.194  11.350
78364SOL     OW36865   6.165   3.211   9.793
78364SOL    HW136866   6.166   3.118   9.814
78364SOL    HW236867   6.218   3.251   9.862
78365SOL     OW36868   1.092   1.518   8.192
78365SOL    HW136869   1.071   1.592   8.136
78365SOL    HW236870   1.142   1.556   8.264
78366SOL     OW36871   8.244  10.878   9.631
78366SOL    HW136872   8.249  10.786   9.656
78366SOL    HW236873   8.192  10.877   9.550
78367SOL     OW36874  14.880   7.229   3.479
78367SOL    HW136875  14.800   7.213   3.529
78367SOL    HW236876  14.866   7.186   3.395
78368SOL     OW36877  11.071   3.821  13.478
78368SOL    HW136878  11.111   3.792  13.560
78368SOL    HW236879  11.132   3.887  13.444
78369SOL     OW36880   6.403   8.522  14.557
78369SOL    HW136881   6.489   8.561  14.566
78369SOL    HW236882   6.343   8.596  14.551
78370SOL     OW36883   9.973   1.496   1.331
78370SOL    HW136884   9.877   1.496   1.338
78370SOL    HW236885   9.999   1.414   1.374
78371SOL     OW36886   0.246   3.208   0.925
78371SOL    HW136887   0.192   3.286   0.935
78371SOL    HW236888   0.194   3.150   0.869
78372SOL     OW36889   6.061   6.226  13.731
78372SOL    HW136890   6.005   6.294  13.694
78372SOL    HW236891   6.015   6.197  13.810
78373SOL     OW36892   8.221  13.020   9.785
78373SOL    HW136893   8.139  13.031   9.738
78373SOL    HW236894   8.275  12.966   9.727
78374SOL     OW36895   7.960   9.266  12.181
78374SOL    HW136896   7.870   9.270  12.147
78374SOL    HW236897   7.951   9.287  12.274
78375SOL     OW36898  14.143   3.599   4.422
78375SOL    HW136899  14.065   3.647   4.395
78375SOL    HW236900  14.146   3.609   4.517
78376SOL     OW36901  12.535   4.948   8.300
78376SOL    HW136902  12.533   4.989   8.214
78376SOL    HW236903  12.629   4.941   8.320
78377SOL     OW36904  10.943  14.351  11.856
78377SOL    HW136905  10.869  14.359  11.796
78377SOL    HW236906  10.929  14.420  11.921
78378SOL     OW36907   3.383  12.520   0.589
78378SOL    HW136908   3.380  12.494   0.498
78378SOL    HW236909   3.465  12.570   0.597
78379SOL     OW36910  12.174   3.933  13.702
78379SOL    HW136911  12.246   3.996  13.693
78379SOL    HW236912  12.097   3.980  13.668
78380SOL     OW36913   5.936   7.662   5.321
78380SOL    HW136914   5.994   7.623   5.386
78380SOL    HW236915   5.964   7.754   5.316
78381SOL     OW36916   9.060   6.084   1.181
78381SOL    HW136917   9.146   6.054   1.210
78381SOL    HW236918   9.066   6.180   1.184
78382SOL     OW36919   6.038  11.988   3.584
78382SOL    HW136920   6.054  12.058   3.648
78382SOL    HW236921   6.089  11.914   3.616
78383SOL     OW36922   7.601  13.389   9.126
78383SOL    HW136923   7.622  13.463   9.069
78383SOL    HW236924   7.620  13.311   9.073
78384SOL     OW36925   6.303   9.965  14.175
78384SOL    HW136926   6.336   9.960  14.265
78384SOL    HW236927   6.363  10.024  14.130
78385SOL     OW36928   6.436  10.874   2.595
78385SOL    HW136929   6.448  10.957   2.550
78385SOL    HW236930   6.411  10.898   2.684
78386SOL     OW36931  10.963   4.217   9.854
78386SOL    HW136932  10.926   4.226   9.942
78386SOL    HW236933  10.887   4.208   9.797
78387SOL     OW36934   4.657   9.649   3.189
78387SOL    HW136935   4.594   9.641   3.117
78387SOL    HW236936   4.675   9.558   3.215
78388SOL     OW36937  10.969   3.817  10.103
78388SOL    HW136938  10.922   3.898  10.123
78388SOL    HW236939  10.950   3.801  10.010
78389SOL     OW36940   7.790   0.711  11.561
78389SOL    HW136941   7.858   0.677  11.620
78389SOL    HW236942   7.749   0.632  11.524
78390SOL     OW36943   4.694   2.370  11.968
78390SOL    HW136944   4.769   2.386  11.911
78390SOL    HW236945   4.732   2.327  12.045
78391SOL     OW36946   0.037   1.544   1.276
78391SOL    HW136947  14.835   1.584   1.248
78391SOL    HW236948   0.046   1.568   1.368
78392SOL     OW36949  11.515   4.629  12.751
78392SOL    HW136950  11.603   4.665  12.746
78392SOL    HW236951  11.525   4.548  12.802
78393SOL     OW36952   0.112   5.260  13.853
78393SOL    HW136953   0.098   5.353  13.840
78393SOL    HW236954   0.207   5.251  13.865
78394SOL     OW36955   7.647  11.717   0.688
78394SOL    HW136956   7.565  11.720   0.639
78394SOL    HW236957   7.686  11.633   0.665
78395SOL     OW36958  11.384   2.731  14.496
78395SOL    HW136959  11.477   2.744  14.511
78395SOL    HW236960  11.369   2.762  14.407
78396SOL     OW36961  13.684   1.559   6.161
78396SOL    HW136962  13.673   1.471   6.125
78396SOL    HW236963  13.704   1.614   6.085
78397SOL     OW36964   6.542   5.034  14.398
78397SOL    HW136965   6.622   5.083  14.380
78397SOL    HW236966   6.511   5.069  14.482
78398SOL     OW36967  11.559   6.437   9.506
78398SOL    HW136968  11.578   6.496   9.433
78398SOL    HW236969  11.473   6.401   9.486
78399SOL     OW36970   9.283   7.163   4.900
78399SOL    HW136971   9.211   7.101   4.890
78399SOL    HW236972   9.269   7.203   4.985
78400SOL     OW36973   2.804  11.961   8.119
78400SOL    HW136974   2.713  11.991   8.122
78400SOL    HW236975   2.798  11.866   8.112
78401SOL     OW36976  14.327   3.702   1.993
78401SOL    HW136977  14.242   3.659   1.986
78401SOL    HW236978  14.357   3.711   1.902
78402SOL     OW36979   9.248  14.512  13.888
78402SOL    HW136980   9.250  14.433  13.943
78402SOL    HW236981   9.296  14.577  13.940
78403SOL     OW36982   6.840   4.618   0.140
78403SOL    HW136983   6.861   4.596   0.231
78403SOL    HW236984   6.778   4.550   0.114
78404SOL     OW36985   3.242  13.123   5.863
78404SOL    HW136986   3.238  13.218   5.873
78404SOL    HW236987   3.161  13.092   5.904
78405SOL     OW36988  11.924  10.751   9.794
78405SOL    HW136989  11.875  10.833   9.784
78405SOL    HW236990  12.005  10.767   9.745
78406SOL     OW36991  12.988  10.208  12.710
78406SOL    HW136992  12.965  10.290  12.665
78406SOL    HW236993  12.944  10.214  12.795
78407SOL     OW36994   7.214   5.698   7.900
78407SOL    HW136995   7.235   5.624   7.843
78407SOL    HW236996   7.174   5.659   7.977
78408SOL     OW36997   1.168   4.718   3.938
78408SOL    HW136998   1.101   4.660   3.903
78408SOL    HW236999   1.179   4.689   4.029
78409SOL     OW37000   0.665   4.133  14.516
78409SOL    HW137001   0.740   4.074  14.514
78409SOL    HW237002   0.627   4.120  14.603
78410SOL     OW37003   0.404   2.778   5.050
78410SOL    HW137004   0.456   2.750   4.975
78410SOL    HW237005   0.313   2.767   5.022
78411SOL     OW37006   0.413  11.183  12.047
78411SOL    HW137007   0.429  11.090  12.032
78411SOL    HW237008   0.319  11.193  12.034
78412SOL     OW37009   7.542   2.420   2.020
78412SOL    HW137010   7.527   2.514   2.029
78412SOL    HW237011   7.465   2.380   2.060
78413SOL     OW37012   3.920  12.055  14.470
78413SOL    HW137013   3.981  11.991  14.505
78413SOL    HW237014   3.917  12.124  14.537
78414SOL     OW37015   4.638   3.959  11.131
78414SOL    HW137016   4.631   4.050  11.102
78414SOL    HW237017   4.679   3.913  11.057
78415SOL     OW37018  12.047   5.062   9.614
78415SOL    HW137019  12.100   5.109   9.679
78415SOL    HW237020  12.055   5.115   9.535
78416SOL     OW37021  13.208   3.411  12.374
78416SOL    HW137022  13.245   3.445  12.455
78416SOL    HW237023  13.142   3.475  12.349
78417SOL     OW37024   3.946   8.929  12.090
78417SOL    HW137025   3.978   8.839  12.080
78417SOL    HW237026   3.998   8.965  12.161
78418SOL     OW37027  12.193   0.346  12.302
78418SOL    HW137028  12.273   0.294  12.310
78418SOL    HW237029  12.126   0.282  12.277
78419SOL     OW37030  14.764   0.671   9.581
78419SOL    HW137031  14.800   0.711   9.502
78419SOL    HW237032  14.793   0.728   9.653
78420SOL     OW37033  11.646  14.153  13.704
78420SOL    HW137034  11.679  14.068  13.675
78420SOL    HW237035  11.579  14.177  13.640
78421SOL     OW37036   0.045  11.763   0.250
78421SOL    HW137037   0.091  11.752   0.166
78421SOL    HW237038   0.113  11.787   0.312
78422SOL     OW37039   2.117  13.586  13.283
78422SOL    HW137040   2.122  13.554  13.374
78422SOL    HW237041   2.208  13.606  13.260
78423SOL     OW37042   6.922   1.576   2.087
78423SOL    HW137043   6.947   1.528   2.007
78423SOL    HW237044   6.916   1.667   2.059
78424SOL     OW37045   4.482   7.788   9.599
78424SOL    HW137046   4.534   7.789   9.679
78424SOL    HW237047   4.394   7.766   9.627
78425SOL     OW37048   4.919   6.035   4.823
78425SOL    HW137049   4.958   6.039   4.910
78425SOL    HW237050   4.834   5.993   4.837
78426SOL     OW37051   6.556  10.315   2.779
78426SOL    HW137052   6.493  10.251   2.747
78426SOL    HW237053   6.636  10.265   2.794
78427SOL     OW37054   4.748   3.580   7.304
78427SOL    HW137055   4.663   3.622   7.292
78427SOL    HW237056   4.811   3.645   7.273
78428SOL     OW37057   0.986   9.633  10.822
78428SOL    HW137058   0.902   9.679  10.822
78428SOL    HW237059   1.021   9.649  10.734
78429SOL     OW37060   6.480  13.586   5.905
78429SOL    HW137061   6.507  13.595   5.814
78429SOL    HW237062   6.387  13.562   5.900
78430SOL     OW37063  11.074   9.643   4.696
78430SOL    HW137064  11.041   9.660   4.608
78430SOL    HW237065  11.099   9.729   4.729
78431SOL     OW37066   3.805   1.515   0.259
78431SOL    HW137067   3.779   1.571   0.333
78431SOL    HW237068   3.898   1.535   0.246
78432SOL     OW37069   6.560  12.355   5.600
78432SOL    HW137070   6.627  12.328   5.664
78432SOL    HW237071   6.587  12.313   5.518
78433SOL     OW37072  10.259  10.181  12.149
78433SOL    HW137073  10.352  10.165  12.165
78433SOL    HW237074  10.223  10.095  12.128
78434SOL     OW37075   9.357   7.053  11.926
78434SOL    HW137076   9.371   7.144  11.954
78434SOL    HW237077   9.438   7.031  11.878
78435SOL     OW37078   0.403   6.854   2.077
78435SOL    HW137079   0.432   6.764   2.089
78435SOL    HW237080   0.374   6.858   1.986
78436SOL     OW37081   1.632  14.016  10.598
78436SOL    HW137082   1.623  13.931  10.642
78436SOL    HW237083   1.701  14.003  10.534
78437SOL     OW37084   8.989   7.022  14.812
78437SOL    HW137085   8.968   6.969  14.735
78437SOL    HW237086   8.904   7.046  14.849
78438SOL     OW37087   0.717  11.448   3.122
78438SOL    HW137088   0.634  11.461   3.167
78438SOL    HW237089   0.694  11.402   3.041
78439SOL     OW37090   5.582   3.031  10.909
78439SOL    HW137091   5.597   2.953  10.963
78439SOL    HW237092   5.566   3.101  10.972
78440SOL     OW37093  10.404  12.511  11.635
78440SOL    HW137094  10.427  12.586  11.691
78440SOL    HW237095  10.349  12.549  11.567
78441SOL     OW37096   1.323   5.512   3.330
78441SOL    HW137097   1.315   5.596   3.287
78441SOL    HW237098   1.302   5.529   3.422
78442SOL     OW37099  10.537   1.385  13.392
78442SOL    HW137100  10.615   1.408  13.442
78442SOL    HW237101  10.486   1.466  13.388
78443SOL     OW37102  14.410  11.802   8.950
78443SOL    HW137103  14.461  11.858   8.892
78443SOL    HW237104  14.379  11.861   9.019
78444SOL     OW37105   3.363   0.939   7.720
78444SOL    HW137106   3.456   0.922   7.735
78444SOL    HW237107   3.351   1.031   7.741
78445SOL     OW37108   0.019   1.176   9.939
78445SOL    HW137109   0.063   1.255   9.971
78445SOL    HW237110  14.809   1.201   9.929
78446SOL     OW37111   1.654  11.354   1.106
78446SOL    HW137112   1.674  11.275   1.056
78446SOL    HW237113   1.735  11.373   1.153
78447SOL     OW37114   1.504   2.243  13.473
78447SOL    HW137115   1.562   2.310  13.507
78447SOL    HW237116   1.525   2.237  13.380
78448SOL     OW37117   3.673  12.833  11.887
78448SOL    HW137118   3.738  12.901  11.901
78448SOL    HW237119   3.675  12.780  11.967
78449SOL     OW37120  11.435   9.921  11.601
78449SOL    HW137121  11.350   9.900  11.642
78449SOL    HW237122  11.498   9.866  11.648
78450SOL     OW37123   4.099   5.772   8.755
78450SOL    HW137124   4.040   5.801   8.686
78450SOL    HW237125   4.079   5.680   8.768
78451SOL     OW37126  13.616  10.764   2.993
78451SOL    HW137127  13.706  10.739   2.975
78451SOL    HW237128  13.574  10.684   3.023
78452SOL     OW37129   9.341   1.015   8.925
78452SOL    HW137130   9.289   1.081   8.880
78452SOL    HW237131   9.277   0.958   8.966
78453SOL     OW37132   4.551   8.536  12.254
78453SOL    HW137133   4.490   8.492  12.195
78453SOL    HW237134   4.497   8.562  12.329
78454SOL     OW37135   9.439   4.667  10.898
78454SOL    HW137136   9.384   4.702  10.969
78454SOL    HW237137   9.517   4.634  10.943
78455SOL     OW37138   2.199   0.757   1.634
78455SOL    HW137139   2.114   0.793   1.658
78455SOL    HW237140   2.184   0.663   1.627
78456SOL     OW37141   5.327  11.955   7.879
78456SOL    HW137142   5.252  11.901   7.904
78456SOL    HW237143   5.402  11.911   7.918
78457SOL     OW37144   8.516   6.832   2.854
78457SOL    HW137145   8.421   6.836   2.841
78457SOL    HW237146   8.537   6.739   2.849
78458SOL     OW37147   8.288   0.222   7.434
78458SOL    HW137148   8.319   0.144   7.390
78458SOL    HW237149   8.284   0.289   7.366
78459SOL     OW37150  12.887   8.544   6.140
78459SOL    HW137151  12.951   8.527   6.209
78459SOL    HW237152  12.874   8.639   6.141
78460SOL     OW37153   3.897   5.694   2.436
78460SOL    HW137154   3.936   5.639   2.367
78460SOL    HW237155   3.966   5.757   2.458
78461SOL     OW37156   8.437  14.361   4.439
78461SOL    HW137157   8.473  14.326   4.520
78461SOL    HW237158   8.399  14.285   4.394
78462SOL     OW37159   6.872   6.958   1.633
78462SOL    HW137160   6.801   6.970   1.570
78462SOL    HW237161   6.828   6.936   1.715
78463SOL     OW37162   2.125   0.666   8.747
78463SOL    HW137163   2.173   0.622   8.677
78463SOL    HW237164   2.033   0.653   8.725
78464SOL     OW37165   9.649   7.942  14.490
78464SOL    HW137166   9.561   7.938  14.452
78464SOL    HW237167   9.684   8.026  14.459
78465SOL     OW37168  10.170  13.771  10.769
78465SOL    HW137169  10.105  13.778  10.839
78465SOL    HW237170  10.127  13.717  10.702
78466SOL     OW37171   1.576   4.128   2.861
78466SOL    HW137172   1.493   4.082   2.847
78466SOL    HW237173   1.631   4.100   2.788
78467SOL     OW37174   8.286   6.314   4.419
78467SOL    HW137175   8.310   6.357   4.501
78467SOL    HW237176   8.277   6.221   4.443
78468SOL     OW37177  13.071  12.328  10.266
78468SOL    HW137178  13.111  12.408  10.301
78468SOL    HW237179  13.038  12.354  10.180
78469SOL     OW37180   1.415   0.903   1.210
78469SOL    HW137181   1.339   0.960   1.223
78469SOL    HW237182   1.468   0.915   1.288
78470SOL     OW37183  12.764   0.149   1.454
78470SOL    HW137184  12.780   0.140   1.548
78470SOL    HW237185  12.851   0.149   1.414
78471SOL     OW37186  13.346   3.439  11.580
78471SOL    HW137187  13.429   3.463  11.621
78471SOL    HW237188  13.335   3.346  11.602
78472SOL     OW37189  13.581  11.509   7.331
78472SOL    HW137190  13.602  11.565   7.406
78472SOL    HW237191  13.589  11.420   7.365
78473SOL     OW37192   7.346  11.454   5.343
78473SOL    HW137193   7.257  11.438   5.314
78473SOL    HW237194   7.373  11.372   5.384
78474SOL     OW37195  14.749  13.681   8.595
78474SOL    HW137196  14.736  13.735   8.673
78474SOL    HW237197  14.687  13.716   8.531
78475SOL     OW37198   2.351   4.517  13.613
78475SOL    HW137199   2.363   4.608  13.584
78475SOL    HW237200   2.409   4.508  13.689
78476SOL     OW37201   0.736  10.847   1.704
78476SOL    HW137202   0.782  10.930   1.689
78476SOL    HW237203   0.774  10.786   1.640
78477SOL     OW37204  11.118   6.438   7.027
78477SOL    HW137205  11.049   6.426   7.092
78477SOL    HW237206  11.144   6.349   7.004
78478SOL     OW37207   4.727   1.707   6.017
78478SOL    HW137208   4.801   1.765   6.037
78478SOL    HW237209   4.742   1.678   5.927
78479SOL     OW37210   3.256   3.157   0.798
78479SOL    HW137211   3.327   3.096   0.815
78479SOL    HW237212   3.300   3.236   0.765
78480SOL     OW37213   6.673  10.573   4.882
78480SOL    HW137214   6.660  10.581   4.977
78480SOL    HW237215   6.759  10.533   4.873
78481SOL     OW37216   1.252  14.300   3.895
78481SOL    HW137217   1.282  14.326   3.809
78481SOL    HW237218   1.261  14.205   3.896
78482SOL     OW37219  10.372  11.460   4.359
78482SOL    HW137220  10.404  11.406   4.287
78482SOL    HW237221  10.446  11.465   4.420
78483SOL     OW37222  12.476  10.031  13.993
78483SOL    HW137223  12.487   9.984  14.076
78483SOL    HW237224  12.540  10.102  13.997
78484SOL     OW37225   6.320   5.478  10.277
78484SOL    HW137226   6.371   5.541  10.227
78484SOL    HW237227   6.357   5.393  10.254
78485SOL     OW37228   9.002  13.557   9.867
78485SOL    HW137229   8.962  13.619   9.805
78485SOL    HW237230   8.928  13.521   9.916
78486SOL     OW37231   9.270   0.707   6.767
78486SOL    HW137232   9.311   0.667   6.844
78486SOL    HW237233   9.291   0.646   6.696
78487SOL     OW37234   1.697  14.817  13.040
78487SOL    HW137235   1.609  14.808  13.003
78487SOL    HW237236   1.691   0.008  13.102
78488SOL     OW37237  11.550  11.130  13.796
78488SOL    HW137238  11.517  11.213  13.764
78488SOL    HW237239  11.616  11.103  13.731
78489SOL     OW37240  12.213   5.615   8.354
78489SOL    HW137241  12.230   5.662   8.272
78489SOL    HW237242  12.296   5.571   8.374
78490SOL     OW37243   4.672   8.606  13.048
78490SOL    HW137244   4.750   8.553  13.064
78490SOL    HW237245   4.664   8.661  13.126
78491SOL     OW37246   2.650   7.945   1.629
78491SOL    HW137247   2.682   7.953   1.539
78491SOL    HW237248   2.629   7.852   1.639
78492SOL     OW37249  11.118   0.006   9.509
78492SOL    HW137250  11.049   0.014   9.575
78492SOL    HW237251  11.075   0.029   9.426
78493SOL     OW37252   3.925  13.439   3.718
78493SOL    HW137253   3.969  13.473   3.796
78493SOL    HW237254   3.977  13.363   3.692
78494SOL     OW37255   7.004  11.869   6.300
78494SOL    HW137256   7.001  11.813   6.222
78494SOL    HW237257   7.078  11.928   6.285
78495SOL     OW37258   8.738   2.255  11.270
78495SOL    HW137259   8.766   2.274  11.180
78495SOL    HW237260   8.755   2.161  11.281
78496SOL     OW37261   7.123   2.235   8.324
78496SOL    HW137262   7.177   2.157   8.309
78496SOL    HW237263   7.154   2.270   8.407
78497SOL     OW37264  10.877   5.398   7.893
78497SOL    HW137265  10.878   5.335   7.964
78497SOL    HW237266  10.964   5.439   7.895
78498SOL     OW37267  12.337   3.373   9.865
78498SOL    HW137268  12.323   3.435   9.936
78498SOL    HW237269  12.400   3.311   9.900
78499SOL     OW37270   6.799   3.570   1.167
78499SOL    HW137271   6.848   3.489   1.160
78499SOL    HW237272   6.851   3.635   1.120
78500SOL     OW37273  12.661   6.690   7.584
78500SOL    HW137274  12.674   6.781   7.610
78500SOL    HW237275  12.578   6.692   7.535
78501SOL     OW37276  10.701   5.690  12.420
78501SOL    HW137277  10.711   5.713  12.328
78501SOL    HW237278  10.773   5.628  12.437
78502SOL     OW37279   2.586   5.209  11.184
78502SOL    HW137280   2.559   5.210  11.092
78502SOL    HW237281   2.677   5.179  11.182
78503SOL     OW37282   6.507   3.332  13.159
78503SOL    HW137283   6.479   3.243  13.182
78503SOL    HW237284   6.527   3.327  13.066
78504SOL     OW37285   4.003   3.174   7.758
78504SOL    HW137286   4.034   3.225   7.833
78504SOL    HW237287   3.964   3.238   7.699
78505SOL     OW37288   7.341   1.172  11.515
78505SOL    HW137289   7.252   1.138  11.509
78505SOL    HW237290   7.378   1.158  11.428
78506SOL     OW37291   1.364   4.052   7.742
78506SOL    HW137292   1.285   4.018   7.784
78506SOL    HW237293   1.332   4.103   7.668
78507SOL     OW37294   4.306  10.815   4.472
78507SOL    HW137295   4.392  10.812   4.430
78507SOL    HW237296   4.263  10.891   4.433
78508SOL     OW37297  11.784   9.709   9.484
78508SOL    HW137298  11.854   9.664   9.436
78508SOL    HW237299  11.713   9.716   9.420
78509SOL     OW37300   4.863   6.192   6.388
78509SOL    HW137301   4.836   6.101   6.379
78509SOL    HW237302   4.785   6.242   6.362
78510SOL     OW37303  10.236   9.748   7.117
78510SOL    HW137304  10.157   9.796   7.093
78510SOL    HW237305  10.216   9.657   7.096
78511SOL     OW37306  10.789  13.203   6.157
78511SOL    HW137307  10.759  13.244   6.075
78511SOL    HW237308  10.775  13.270   6.224
78512SOL     OW37309   5.597   0.553  10.754
78512SOL    HW137310   5.565   0.643  10.748
78512SOL    HW237311   5.546   0.515  10.825
78513SOL     OW37312  12.021   9.932   8.198
78513SOL    HW137313  12.051  10.021   8.179
78513SOL    HW237314  12.017   9.889   8.113
78514SOL     OW37315   4.611   9.116  13.462
78514SOL    HW137316   4.653   9.184  13.409
78514SOL    HW237317   4.645   9.129  13.550
78515SOL     OW37318   7.367   9.951   9.364
78515SOL    HW137319   7.324   9.872   9.398
78515SOL    HW237320   7.299  10.019   9.371
78516SOL     OW37321   8.097  13.882   3.566
78516SOL    HW137322   8.075  13.962   3.615
78516SOL    HW237323   8.165  13.910   3.505
78517SOL     OW37324   4.579   6.752   6.226
78517SOL    HW137325   4.523   6.687   6.269
78517SOL    HW237326   4.664   6.709   6.218
78518SOL     OW37327   1.457  14.047   7.518
78518SOL    HW137328   1.466  13.982   7.447
78518SOL    HW237329   1.482  14.130   7.478
78519SOL     OW37330  12.154   0.510  12.516
78519SOL    HW137331  12.136   0.599  12.485
78519SOL    HW237332  12.192   0.465  12.440
78520SOL     OW37333   7.448   1.594  13.913
78520SOL    HW137334   7.398   1.598  13.831
78520SOL    HW237335   7.397   1.646  13.975
78521SOL     OW37336   6.103   5.568   0.331
78521SOL    HW137337   6.136   5.598   0.416
78521SOL    HW237338   6.176   5.584   0.271
78522SOL     OW37339   3.574   7.317   6.679
78522SOL    HW137340   3.554   7.392   6.736
78522SOL    HW237341   3.580   7.355   6.591
78523SOL     OW37342   2.872   6.433   3.481
78523SOL    HW137343   2.947   6.459   3.535
78523SOL    HW237344   2.887   6.476   3.397
78524SOL     OW37345   1.719  13.401   6.039
78524SOL    HW137346   1.635  13.390   6.082
78524SOL    HW237347   1.709  13.356   5.955
78525SOL     OW37348   3.152   1.103  13.050
78525SOL    HW137349   3.070   1.153  13.045
78525SOL    HW237350   3.186   1.123  13.137
78526SOL     OW37351  11.542   3.382   5.629
78526SOL    HW137352  11.626   3.378   5.582
78526SOL    HW237353  11.486   3.434   5.572
78527SOL     OW37354   8.532  12.605   1.155
78527SOL    HW137355   8.585  12.525   1.165
78527SOL    HW237356   8.471  12.584   1.084
78528SOL     OW37357  14.303   7.364  13.936
78528SOL    HW137358  14.260   7.431  13.883
78528SOL    HW237359  14.358   7.413  13.997
78529SOL     OW37360  14.631  10.331  11.580
78529SOL    HW137361  14.611  10.239  11.565
78529SOL    HW237362  14.691  10.355  11.509
78530SOL     OW37363   7.020   0.645  14.410
78530SOL    HW137364   6.944   0.698  14.385
78530SOL    HW237365   7.062   0.621  14.328
78531SOL     OW37366   2.872   1.614  14.869
78531SOL    HW137367   2.877   1.702   0.023
78531SOL    HW237368   2.817   1.566   0.050
78532SOL     OW37369  12.158   8.888  11.267
78532SOL    HW137370  12.172   8.844  11.351
78532SOL    HW237371  12.174   8.980  11.285
78533SOL     OW37372  11.203   2.546   6.500
78533SOL    HW137373  11.231   2.593   6.578
78533SOL    HW237374  11.212   2.610   6.429
78534SOL     OW37375  12.971   0.044   2.086
78534SOL    HW137376  12.963  14.849   2.143
78534SOL    HW237377  12.963   0.009   1.998
78535SOL     OW37378   4.625   3.610   0.558
78535SOL    HW137379   4.669   3.650   0.483
78535SOL    HW237380   4.657   3.520   0.559
78536SOL     OW37381   1.536   0.286   8.674
78536SOL    HW137382   1.535   0.380   8.655
78536SOL    HW237383   1.499   0.279   8.762
78537SOL     OW37384   5.606   2.262  11.790
78537SOL    HW137385   5.553   2.328  11.835
78537SOL    HW237386   5.574   2.179  11.825
78538SOL     OW37387   4.467  10.801  14.752
78538SOL    HW137388   4.464  10.852  14.671
78538SOL    HW237389   4.466  10.710  14.723
78539SOL     OW37390   6.146   0.659  14.420
78539SOL    HW137391   6.116   0.568  14.427
78539SOL    HW237392   6.087   0.700  14.357
78540SOL     OW37393   4.323   6.738  11.997
78540SOL    HW137394   4.317   6.782  11.912
78540SOL    HW237395   4.412   6.704  11.999
78541SOL     OW37396   3.465   8.930   3.315
78541SOL    HW137397   3.529   8.907   3.382
78541SOL    HW237398   3.495   8.884   3.236
78542SOL     OW37399   1.681  12.494  14.173
78542SOL    HW137400   1.751  12.557  14.190
78542SOL    HW237401   1.710  12.414  14.217
78543SOL     OW37402  12.559  12.089  13.594
78543SOL    HW137403  12.640  12.086  13.644
78543SOL    HW237404  12.545  12.183  13.578
78544SOL     OW37405   6.579   1.930  10.132
78544SOL    HW137406   6.610   1.989  10.201
78544SOL    HW237407   6.495   1.967  10.104
78545SOL     OW37408   6.857  11.362  13.228
78545SOL    HW137409   6.909  11.413  13.166
78545SOL    HW237410   6.922  11.322  13.286
78546SOL     OW37411  13.856  12.390   7.539
78546SOL    HW137412  13.805  12.468   7.559
78546SOL    HW237413  13.897  12.409   7.454
78547SOL     OW37414  10.261   3.776  10.031
78547SOL    HW137415  10.255   3.680  10.022
78547SOL    HW237416  10.263   3.791  10.126
78548SOL     OW37417   7.566   9.836  11.564
78548SOL    HW137418   7.565   9.877  11.651
78548SOL    HW237419   7.579   9.909  11.503
78549SOL     OW37420   2.196  14.663  14.682
78549SOL    HW137421   2.140  14.732  14.646
78549SOL    HW237422   2.148  14.582  14.667
78550SOL     OW37423  13.675   0.548   5.417
78550SOL    HW137424  13.686   0.588   5.503
78550SOL    HW237425  13.663   0.621   5.357
78551SOL     OW37426  10.601   9.357  10.707
78551SOL    HW137427  10.640   9.319  10.785
78551SOL    HW237428  10.554   9.285  10.666
78552SOL     OW37429   4.921   4.924   5.847
78552SOL    HW137430   4.890   5.009   5.816
78552SOL    HW237431   4.883   4.861   5.787
78553SOL     OW37432  12.606   1.926  10.517
78553SOL    HW137433  12.559   1.898  10.438
78553SOL    HW237434  12.610   2.021  10.509
78554SOL     OW37435  13.854   5.753   7.903
78554SOL    HW137436  13.845   5.753   7.808
78554SOL    HW237437  13.821   5.667   7.930
78555SOL     OW37438   4.408  11.152  14.025
78555SOL    HW137439   4.336  11.088  14.031
78555SOL    HW237440   4.378  11.215  13.960
78556SOL     OW37441   2.670   6.082   1.489
78556SOL    HW137442   2.663   6.178   1.484
78556SOL    HW237443   2.763   6.066   1.503
78557SOL     OW37444   4.845   4.657  13.943
78557SOL    HW137445   4.913   4.590  13.936
78557SOL    HW237446   4.890   4.734  13.978
78558SOL     OW37447   2.328   6.786   0.120
78558SOL    HW137448   2.314   6.834   0.038
78558SOL    HW237449   2.263   6.823   0.180
78559SOL     OW37450   1.117   2.664   3.876
78559SOL    HW137451   1.147   2.755   3.879
78559SOL    HW237452   1.030   2.670   3.834
78560SOL     OW37453   6.329   0.412   4.061
78560SOL    HW137454   6.260   0.466   4.023
78560SOL    HW237455   6.405   0.425   4.004
78561SOL     OW37456  14.781   9.685   1.091
78561SOL    HW137457  14.748   9.728   1.012
78561SOL    HW237458  14.723   9.610   1.104
78562SOL     OW37459   3.597   9.758   0.781
78562SOL    HW137460   3.573   9.799   0.698
78562SOL    HW237461   3.545   9.806   0.847
78563SOL     OW37462  11.962   9.841  11.816
78563SOL    HW137463  11.979   9.887  11.733
78563SOL    HW237464  12.012   9.890  11.881
78564SOL     OW37465   5.031   0.168   1.866
78564SOL    HW137466   5.032   0.154   1.771
78564SOL    HW237467   4.992   0.255   1.877
78565SOL     OW37468   7.652  10.717   8.657
78565SOL    HW137469   7.644  10.732   8.751
78565SOL    HW237470   7.578  10.660   8.635
78566SOL     OW37471   2.353   5.537   1.875
78566SOL    HW137472   2.408   5.517   1.951
78566SOL    HW237473   2.414   5.573   1.810
78567SOL     OW37474  12.381   0.562   1.304
78567SOL    HW137475  12.337   0.606   1.377
78567SOL    HW237476  12.427   0.489   1.344
78568SOL     OW37477   1.353   5.121  12.869
78568SOL    HW137478   1.333   5.210  12.842
78568SOL    HW237479   1.446   5.109  12.847
78569SOL     OW37480  14.293  13.855   6.584
78569SOL    HW137481  14.275  13.768   6.549
78569SOL    HW237482  14.312  13.909   6.508
78570SOL     OW37483   2.111   6.207  11.891
78570SOL    HW137484   2.067   6.222  11.808
78570SOL    HW237485   2.176   6.276  11.897
78571SOL     OW37486   1.613   1.988   3.722
78571SOL    HW137487   1.536   2.043   3.711
78571SOL    HW237488   1.656   2.023   3.801
78572SOL     OW37489  11.073   2.520  10.214
78572SOL    HW137490  11.116   2.508  10.298
78572SOL    HW237491  11.141   2.555  10.156
78573SOL     OW37492   8.340   3.434   0.227
78573SOL    HW137493   8.388   3.514   0.247
78573SOL    HW237494   8.308   3.402   0.311
78574SOL     OW37495   6.722  14.046   4.511
78574SOL    HW137496   6.708  14.141   4.510
78574SOL    HW237497   6.646  14.010   4.465
78575SOL     OW37498   0.959  12.584   3.773
78575SOL    HW137499   0.974  12.619   3.685
78575SOL    HW237500   1.040  12.541   3.796
78576SOL     OW37501   3.017  14.800   8.595
78576SOL    HW137502   2.958  14.778   8.523
78576SOL    HW237503   3.083  14.731   8.593
78577SOL     OW37504  10.743   0.714  12.776
78577SOL    HW137505  10.785   0.724  12.690
78577SOL    HW237506  10.766   0.793  12.824
78578SOL     OW37507   8.838  10.089  12.748
78578SOL    HW137508   8.856  10.099  12.841
78578SOL    HW237509   8.745  10.108  12.739
78579SOL     OW37510   7.274   9.311  14.767
78579SOL    HW137511   7.206   9.275  14.823
78579SOL    HW237512   7.348   9.327  14.826
78580SOL     OW37513  10.045  10.019   0.910
78580SOL    HW137514   9.979   9.955   0.937
78580SOL    HW237515  10.046  10.013   0.814
78581SOL     OW37516  12.139   3.107  13.902
78581SOL    HW137517  12.147   3.190  13.854
78581SOL    HW237518  12.082   3.128  13.976
78582SOL     OW37519   0.525  11.427   4.713
78582SOL    HW137520   0.532  11.444   4.619
78582SOL    HW237521   0.466  11.494   4.745
78583SOL     OW37522  10.036   3.455   1.353
78583SOL    HW137523  10.011   3.510   1.427
78583SOL    HW237524  10.131   3.449   1.358
78584SOL     OW37525   9.274  14.420   1.078
78584SOL    HW137526   9.283  14.471   0.997
78584SOL    HW237527   9.192  14.451   1.117
78585SOL     OW37528  14.749   4.182   7.530
78585SOL    HW137529  14.837   4.195   7.493
78585SOL    HW237530  14.752   4.230   7.613
78586SOL     OW37531   6.451   8.154   2.329
78586SOL    HW137532   6.400   8.074   2.320
78586SOL    HW237533   6.406   8.204   2.397
78587SOL     OW37534   3.382   3.758   6.456
78587SOL    HW137535   3.380   3.680   6.511
78587SOL    HW237536   3.359   3.830   6.515
78588SOL     OW37537   1.973   8.640  11.831
78588SOL    HW137538   2.058   8.685  11.831
78588SOL    HW237539   1.940   8.652  11.921
78589SOL     OW37540   3.290   1.150   3.186
78589SOL    HW137541   3.254   1.228   3.143
78589SOL    HW237542   3.221   1.120   3.244
78590SOL     OW37543   2.402   2.370   3.862
78590SOL    HW137544   2.359   2.292   3.899
78590SOL    HW237545   2.346   2.443   3.888
78591SOL     OW37546   1.627   2.051   7.778
78591SOL    HW137547   1.702   2.092   7.735
78591SOL    HW237548   1.635   2.075   7.870
78592SOL     OW37549   5.761   5.766  14.389
78592SOL    HW137550   5.807   5.761  14.305
78592SOL    HW237551   5.671   5.744  14.369
78593SOL     OW37552  14.055  10.202  13.739
78593SOL    HW137553  14.059  10.207  13.835
78593SOL    HW237554  13.996  10.274  13.714
78594SOL     OW37555   6.210   3.048   3.832
78594SOL    HW137556   6.227   3.135   3.868
78594SOL    HW237557   6.211   2.989   3.907
78595SOL     OW37558   1.855   4.939   7.038
78595SOL    HW137559   1.776   4.885   7.044
78595SOL    HW237560   1.919   4.882   6.996
78596SOL     OW37561   6.532   2.462   9.532
78596SOL    HW137562   6.591   2.537   9.520
78596SOL    HW237563   6.590   2.387   9.538
78597SOL     OW37564   9.811   8.047   5.250
78597SOL    HW137565   9.860   8.052   5.168
78597SOL    HW237566   9.727   8.088   5.229
78598SOL     OW37567  13.490   7.079   6.349
78598SOL    HW137568  13.402   7.073   6.312
78598SOL    HW237569  13.543   7.019   6.297
78599SOL     OW37570   6.522  10.568   3.396
78599SOL    HW137571   6.539  10.477   3.422
78599SOL    HW237572   6.448  10.562   3.336
78600SOL     OW37573   6.065   5.415  10.358
78600SOL    HW137574   6.151   5.424  10.319
78600SOL    HW237575   6.024   5.501  10.346
78601SOL     OW37576   1.347   6.418   1.339
78601SOL    HW137577   1.300   6.494   1.305
78601SOL    HW237578   1.437   6.429   1.308
78602SOL     OW37579   7.532  10.298  13.664
78602SOL    HW137580   7.538  10.310  13.569
78602SOL    HW237581   7.442  10.321  13.685
78603SOL     OW37582   9.674   6.131  12.119
78603SOL    HW137583   9.759   6.173  12.125
78603SOL    HW237584   9.640   6.156  12.033
78604SOL     OW37585  10.857  10.079   3.939
78604SOL    HW137586  10.903   9.998   3.916
78604SOL    HW237587  10.781  10.050   3.989
78605SOL     OW37588   7.676   5.191   1.764
78605SOL    HW137589   7.735   5.261   1.737
78605SOL    HW237590   7.733   5.127   1.807
78606SOL     OW37591  13.855   8.098  13.996
78606SOL    HW137592  13.773   8.109  14.044
78606SOL    HW237593  13.919   8.072  14.062
78607SOL     OW37594  10.385  14.311   0.778
78607SOL    HW137595  10.457  14.257   0.811
78607SOL    HW237596  10.306  14.265   0.804
78608SOL     OW37597  13.580   2.046   2.372
78608SOL    HW137598  13.550   2.043   2.463
78608SOL    HW237599  13.515   2.100   2.327
78609SOL     OW37600  13.065  10.153   9.589
78609SOL    HW137601  13.125  10.207   9.537
78609SOL    HW237602  12.986  10.147   9.536
78610SOL     OW37603   9.756   2.088   4.963
78610SOL    HW137604   9.753   2.001   4.921
78610SOL    HW237605   9.685   2.137   4.922
78611SOL     OW37606   1.064  14.507   8.961
78611SOL    HW137607   1.149  14.530   9.000
78611SOL    HW237608   1.085  14.442   8.894
78612SOL     OW37609   0.272  12.421  14.048
78612SOL    HW137610   0.311  12.348  14.096
78612SOL    HW237611   0.343  12.484  14.037
78613SOL     OW37612  14.147  13.078  13.484
78613SOL    HW137613  14.070  13.050  13.434
78613SOL    HW237614  14.141  13.174  13.486
78614SOL     OW37615   6.498   7.758   9.290
78614SOL    HW137616   6.451   7.676   9.306
78614SOL    HW237617   6.488   7.807   9.372
78615SOL     OW37618   3.084   9.334   3.700
78615SOL    HW137619   3.127   9.249   3.710
78615SOL    HW237620   3.048   9.332   3.611
78616SOL     OW37621   8.694   3.163   0.950
78616SOL    HW137622   8.677   3.087   0.895
78616SOL    HW237623   8.684   3.130   1.040
78617SOL     OW37624  14.383   3.660  10.461
78617SOL    HW137625  14.313   3.680  10.522
78617SOL    HW237626  14.385   3.565  10.457
78618SOL     OW37627  11.830   7.514   9.609
78618SOL    HW137628  11.841   7.591   9.554
78618SOL    HW237629  11.873   7.538   9.692
78619SOL     OW37630   6.147   1.702   3.229
78619SOL    HW137631   6.113   1.779   3.183
78619SOL    HW237632   6.150   1.633   3.162
78620SOL     OW37633   8.561   2.108  14.338
78620SOL    HW137634   8.578   2.119  14.432
78620SOL    HW237635   8.616   2.174  14.296
78621SOL     OW37636  11.929   2.720   8.934
78621SOL    HW137637  11.869   2.651   8.907
78621SOL    HW237638  11.979   2.681   9.006
78622SOL     OW37639  13.978  10.184   0.224
78622SOL    HW137640  13.901  10.200   0.279
78622SOL    HW237641  13.957  10.226   0.140
78623SOL     OW37642   8.291   4.782   1.385
78623SOL    HW137643   8.233   4.719   1.344
78623SOL    HW237644   8.334   4.734   1.455
78624SOL     OW37645   0.659   7.645   8.412
78624SOL    HW137646   0.707   7.661   8.493
78624SOL    HW237647   0.600   7.720   8.404
78625SOL     OW37648   6.019   0.250   4.316
78625SOL    HW137649   6.010   0.179   4.253
78625SOL    HW237650   5.931   0.284   4.327
78626SOL     OW37651  13.570   1.759   7.625
78626SOL    HW137652  13.608   1.728   7.543
78626SOL    HW237653  13.503   1.695   7.646
78627SOL     OW37654   1.168   5.042   5.417
78627SOL    HW137655   1.138   5.115   5.471
78627SOL    HW237656   1.097   5.028   5.354
78628SOL     OW37657   0.123   0.643   8.635
78628SOL    HW137658   0.136   0.698   8.558
78628SOL    HW237659   0.150   0.556   8.608
78629SOL     OW37660   9.286   6.715  11.461
78629SOL    HW137661   9.197   6.687  11.438
78629SOL    HW237662   9.322   6.750  11.380
78630SOL     OW37663  11.242   4.602  14.574
78630SOL    HW137664  11.170   4.659  14.548
78630SOL    HW237665  11.223   4.518  14.531
78631SOL     OW37666  11.627   1.516  13.546
78631SOL    HW137667  11.656   1.515  13.637
78631SOL    HW237668  11.596   1.427  13.530
78632SOL     OW37669  12.232   2.791   2.313
78632SOL    HW137670  12.162   2.727   2.298
78632SOL    HW237671  12.255   2.782   2.405
78633SOL     OW37672  10.074   9.010   5.040
78633SOL    HW137673   9.996   9.018   5.093
78633SOL    HW237674  10.146   9.039   5.097
78634SOL     OW37675   7.461  13.984  13.699
78634SOL    HW137676   7.545  13.968  13.654
78634SOL    HW237677   7.470  13.938  13.782
78635SOL     OW37678   9.575  11.666   0.581
78635SOL    HW137679   9.562  11.704   0.495
78635SOL    HW237680   9.608  11.738   0.635
78636SOL     OW37681   5.973  13.932   1.436
78636SOL    HW137682   6.018  13.972   1.361
78636SOL    HW237683   6.018  13.968   1.513
78637SOL     OW37684  14.749   0.055   2.530
78637SOL    HW137685  14.719   0.145   2.544
78637SOL    HW237686  14.840   0.055   2.558
78638SOL     OW37687   3.410   5.352  10.033
78638SOL    HW137688   3.469   5.397  10.094
78638SOL    HW237689   3.465   5.331   9.957
78639SOL     OW37690  14.852   1.827   7.026
78639SOL    HW137691  14.870   1.803   7.117
78639SOL    HW237692  14.842   1.922   7.028
78640SOL     OW37693   9.425  13.003   2.329
78640SOL    HW137694   9.459  13.090   2.311
78640SOL    HW237695   9.363  12.986   2.258
78641SOL     OW37696   9.126  10.076   4.941
78641SOL    HW137697   9.056  10.030   4.987
78641SOL    HW237698   9.156  10.143   5.003
78642SOL     OW37699   3.293   3.409   3.527
78642SOL    HW137700   3.285   3.316   3.505
78642SOL    HW237701   3.344   3.446   3.454
78643SOL     OW37702  14.276   5.391  11.006
78643SOL    HW137703  14.303   5.404  11.096
78643SOL    HW237704  14.197   5.445  10.996
78644SOL     OW37705  12.243   5.851  13.188
78644SOL    HW137706  12.307   5.864  13.259
78644SOL    HW237707  12.206   5.765  13.205
78645SOL     OW37708  10.688  10.266   7.895
78645SOL    HW137709  10.771  10.311   7.914
78645SOL    HW237710  10.676  10.206   7.969
78646SOL     OW37711   1.663   4.411  10.480
78646SOL    HW137712   1.724   4.468  10.432
78646SOL    HW237713   1.580   4.422  10.435
78647SOL     OW37714   8.835   9.256   0.521
78647SOL    HW137715   8.824   9.170   0.559
78647SOL    HW237716   8.913   9.248   0.466
78648SOL     OW37717  11.485   1.617   9.358
78648SOL    HW137718  11.541   1.670   9.415
78648SOL    HW237719  11.439   1.557   9.417
78649SOL     OW37720  10.618   0.246   8.326
78649SOL    HW137721  10.550   0.254   8.259
78649SOL    HW237722  10.669   0.326   8.319
78650SOL     OW37723  14.642  13.207   3.236
78650SOL    HW137724  14.625  13.228   3.327
78650SOL    HW237725  14.663  13.291   3.195
78651SOL     OW37726   3.190   2.472   4.744
78651SOL    HW137727   3.135   2.519   4.807
78651SOL    HW237728   3.269   2.450   4.793
78652SOL     OW37729  10.095  10.389   7.561
78652SOL    HW137730  10.021  10.329   7.553
78652SOL    HW237731  10.076  10.459   7.499
78653SOL     OW37732  13.090   1.403   0.510
78653SOL    HW137733  13.066   1.420   0.419
78653SOL    HW237734  13.174   1.449   0.522
78654SOL     OW37735   8.126   1.045   6.745
78654SOL    HW137736   8.101   0.953   6.756
78654SOL    HW237737   8.077   1.075   6.668
78655SOL     OW37738  10.639   4.379   7.378
78655SOL    HW137739  10.545   4.364   7.383
78655SOL    HW237740  10.670   4.313   7.315
78656SOL     OW37741   7.068   5.624   2.344
78656SOL    HW137742   6.998   5.626   2.409
78656SOL    HW237743   7.144   5.588   2.390
78657SOL     OW37744  11.263  14.144  12.637
78657SOL    HW137745  11.233  14.117  12.724
78657SOL    HW237746  11.196  14.204  12.606
78658SOL     OW37747   4.742  11.727  14.281
78658SOL    HW137748   4.770  11.695  14.367
78658SOL    HW237749   4.751  11.650  14.224
78659SOL     OW37750   5.765   4.377   1.465
78659SOL    HW137751   5.771   4.471   1.444
78659SOL    HW237752   5.739   4.375   1.556
78660SOL     OW37753   0.537  12.202   0.652
78660SOL    HW137754   0.522  12.241   0.566
78660SOL    HW237755   0.629  12.177   0.652
78661SOL     OW37756   7.379   5.174   2.758
78661SOL    HW137757   7.433   5.095   2.760
78661SOL    HW237758   7.363   5.195   2.850
78662SOL     OW37759   3.775   3.688  12.976
78662SOL    HW137760   3.845   3.712  13.037
78662SOL    HW237761   3.767   3.593  12.985
78663SOL     OW37762   5.624  12.369   9.852
78663SOL    HW137763   5.696  12.373   9.789
78663SOL    HW237764   5.662  12.403   9.934
78664SOL     OW37765   4.663   9.565   6.888
78664SOL    HW137766   4.582   9.618   6.884
78664SOL    HW237767   4.712   9.603   6.962
78665SOL     OW37768  14.695   7.316  11.433
78665SOL    HW137769  14.630   7.306  11.502
78665SOL    HW237770  14.764   7.369  11.474
78666SOL     OW37771  12.181  13.405  13.437
78666SOL    HW137772  12.277  13.408  13.428
78666SOL    HW237773  12.150  13.379  13.350
78667SOL     OW37774  10.129   5.283  13.308
78667SOL    HW137775  10.115   5.374  13.281
78667SOL    HW237776  10.041   5.252  13.330
78668SOL     OW37777  10.938   5.755  12.101
78668SOL    HW137778  10.844   5.756  12.121
78668SOL    HW237779  10.970   5.674  12.138
78669SOL     OW37780   4.003   8.689   7.879
78669SOL    HW137781   4.026   8.754   7.945
78669SOL    HW237782   4.079   8.631   7.875
78670SOL     OW37783   6.005  14.530  13.889
78670SOL    HW137784   6.097  14.535  13.866
78670SOL    HW237785   5.974  14.450  13.847
78671SOL     OW37786   5.365  13.154   5.152
78671SOL    HW137787   5.300  13.157   5.081
78671SOL    HW237788   5.313  13.158   5.232
78672SOL     OW37789   9.822   7.535  11.777
78672SOL    HW137790   9.765   7.502  11.708
78672SOL    HW237791   9.885   7.465  11.792
78673SOL     OW37792   0.431   6.730   7.557
78673SOL    HW137793   0.473   6.805   7.599
78673SOL    HW237794   0.338   6.740   7.578
78674SOL     OW37795  13.641  10.043   6.381
78674SOL    HW137796  13.734  10.028   6.401
78674SOL    HW237797  13.611   9.960   6.344
78675SOL     OW37798   1.483  13.812   9.597
78675SOL    HW137799   1.522  13.871   9.534
78675SOL    HW237800   1.552  13.749   9.618
78676SOL     OW37801  14.292  13.357   1.742
78676SOL    HW137802  14.206  13.316   1.749
78676SOL    HW237803  14.320  13.370   1.833
78677SOL     OW37804   2.860  11.377  13.528
78677SOL    HW137805   2.794  11.424  13.477
78677SOL    HW237806   2.817  11.355  13.610
78678SOL     OW37807   3.915   4.654   2.933
78678SOL    HW137808   3.997   4.684   2.894
78678SOL    HW237809   3.938   4.578   2.985
78679SOL     OW37810   8.887   0.187   9.347
78679SOL    HW137811   8.891   0.265   9.402
78679SOL    HW237812   8.882   0.114   9.409
78680SOL     OW37813  12.203   1.814  10.962
78680SOL    HW137814  12.293   1.837  10.986
78680SOL    HW237815  12.185   1.867  10.884
78681SOL     OW37816   1.678   0.444   4.420
78681SOL    HW137817   1.687   0.354   4.389
78681SOL    HW237818   1.766   0.470   4.446
78682SOL     OW37819  13.844   0.526   1.538
78682SOL    HW137820  13.772   0.588   1.525
78682SOL    HW237821  13.905   0.545   1.467
78683SOL     OW37822   0.807   2.010  13.814
78683SOL    HW137823   0.790   2.089  13.762
78683SOL    HW237824   0.900   1.992  13.800
78684SOL     OW37825   4.141  11.211   2.532
78684SOL    HW137826   4.212  11.273   2.516
78684SOL    HW237827   4.185  11.127   2.545
78685SOL     OW37828   3.548  13.744   1.736
78685SOL    HW137829   3.524  13.831   1.768
78685SOL    HW237830   3.515  13.741   1.647
78686SOL     OW37831   1.124  11.266   6.724
78686SOL    HW137832   1.120  11.327   6.797
78686SOL    HW237833   1.087  11.184   6.758
78687SOL     OW37834  13.906   3.972   4.902
78687SOL    HW137835  13.858   3.897   4.938
78687SOL    HW237836  13.850   4.006   4.833
78688SOL     OW37837   4.998   8.391   2.150
78688SOL    HW137838   4.923   8.338   2.175
78688SOL    HW237839   5.065   8.371   2.215
78689SOL     OW37840   0.739   1.344   3.503
78689SOL    HW137841   0.761   1.271   3.561
78689SOL    HW237842   0.821   1.364   3.457
78690SOL     OW37843   1.015   9.941   8.007
78690SOL    HW137844   1.099   9.986   7.997
78690SOL    HW237845   0.964   9.998   8.064
78691SOL     OW37846   4.686  11.989   8.135
78691SOL    HW137847   4.735  11.925   8.083
78691SOL    HW237848   4.612  12.014   8.080
78692SOL     OW37849   5.682   5.312   9.145
78692SOL    HW137850   5.701   5.401   9.114
78692SOL    HW237851   5.738   5.302   9.223
78693SOL     OW37852   0.533  12.619   9.703
78693SOL    HW137853   0.592  12.604   9.776
78693SOL    HW237854   0.490  12.535   9.689
78694SOL     OW37855  10.753   3.112   2.705
78694SOL    HW137856  10.779   3.148   2.790
78694SOL    HW237857  10.658   3.107   2.709
78695SOL     OW37858   5.762   3.172  14.702
78695SOL    HW137859   5.835   3.151  14.645
78695SOL    HW237860   5.686   3.131  14.661
78696SOL     OW37861  12.721   9.571  12.299
78696SOL    HW137862  12.662   9.592  12.226
78696SOL    HW237863  12.671   9.595  12.377
78697SOL     OW37864   5.121   2.068   4.608
78697SOL    HW137865   5.083   2.153   4.628
78697SOL    HW237866   5.190   2.087   4.545
78698SOL     OW37867  10.471   5.513  11.323
78698SOL    HW137868  10.421   5.510  11.405
78698SOL    HW237869  10.407   5.536  11.256
78699SOL     OW37870  12.568   3.005   7.987
78699SOL    HW137871  12.588   2.923   8.032
78699SOL    HW237872  12.653   3.050   7.981
78700SOL     OW37873   1.108  11.422   0.866
78700SOL    HW137874   1.150  11.336   0.877
78700SOL    HW237875   1.181  11.481   0.846
78701SOL     OW37876  11.414  10.742   9.817
78701SOL    HW137877  11.385  10.685   9.888
78701SOL    HW237878  11.338  10.751   9.760
78702SOL     OW37879  14.832  11.025   2.462
78702SOL    HW137880  14.817  11.118   2.480
78702SOL    HW237881  14.800  11.013   2.373
78703SOL     OW37882  11.884   6.063   4.253
78703SOL    HW137883  11.834   5.983   4.268
78703SOL    HW237884  11.880   6.076   4.158
78704SOL     OW37885   9.335   5.902  12.983
78704SOL    HW137886   9.247   5.934  12.961
78704SOL    HW237887   9.392   5.976  12.966
78705SOL     OW37888  14.710   8.593   0.225
78705SOL    HW137889  14.674   8.677   0.200
78705SOL    HW237890  14.803   8.599   0.203
78706SOL     OW37891  11.957   5.924   2.530
78706SOL    HW137892  11.991   5.904   2.617
78706SOL    HW237893  11.864   5.943   2.544
78707SOL     OW37894   9.254   7.497   4.951
78707SOL    HW137895   9.163   7.474   4.931
78707SOL    HW237896   9.285   7.543   4.873
78708SOL     OW37897   1.341  11.239  12.539
78708SOL    HW137898   1.280  11.215  12.608
78708SOL    HW237899   1.372  11.326  12.564
78709SOL     OW37900  13.767   7.882   5.880
78709SOL    HW137901  13.799   7.891   5.790
78709SOL    HW237902  13.782   7.790   5.901
78710SOL     OW37903  13.219   4.822   9.125
78710SOL    HW137904  13.156   4.773   9.178
78710SOL    HW237905  13.304   4.786   9.150
78711SOL     OW37906   1.988  13.714  10.181
78711SOL    HW137907   1.996  13.803  10.147
78711SOL    HW237908   2.051  13.709  10.253
78712SOL     OW37909   1.546   5.917  14.311
78712SOL    HW137910   1.482   5.983  14.285
78712SOL    HW237911   1.531   5.844  14.251
78713SOL     OW37912  13.977  13.168  14.546
78713SOL    HW137913  13.907  13.193  14.485
78713SOL    HW237914  13.982  13.240  14.608
78714SOL     OW37915   3.469   6.933   3.636
78714SOL    HW137916   3.532   7.003   3.657
78714SOL    HW237917   3.390   6.980   3.611
78715SOL     OW37918  13.419   4.469  14.294
78715SOL    HW137919  13.378   4.499  14.376
78715SOL    HW237920  13.376   4.521  14.226
78716SOL     OW37921   3.585   5.481   1.948
78716SOL    HW137922   3.572   5.565   1.991
78716SOL    HW237923   3.615   5.422   2.017
78717SOL     OW37924   2.954  10.440   6.213
78717SOL    HW137925   2.938  10.531   6.186
78717SOL    HW237926   2.985  10.447   6.303
78718SOL     OW37927   9.577  11.087   1.652
78718SOL    HW137928   9.668  11.066   1.676
78718SOL    HW237929   9.580  11.179   1.626
78719SOL     OW37930  10.578  13.894   9.986
78719SOL    HW137931  10.548  13.950  10.057
78719SOL    HW237932  10.661  13.858  10.017
78720SOL     OW37933  11.872   6.164   2.821
78720SOL    HW137934  11.811   6.232   2.850
78720SOL    HW237935  11.854   6.090   2.878
78721SOL     OW37936  13.599  14.290   0.379
78721SOL    HW137937  13.556  14.373   0.361
78721SOL    HW237938  13.584  14.237   0.301
78722SOL     OW37939  14.461   8.855  12.308
78722SOL    HW137940  14.524   8.913  12.352
78722SOL    HW237941  14.486   8.858  12.216
78723SOL     OW37942   2.854   9.007   1.623
78723SOL    HW137943   2.839   8.916   1.595
78723SOL    HW237944   2.941   9.028   1.590
78724SOL     OW37945   0.003  14.875   4.514
78724SOL    HW137946  14.823  14.840   4.579
78724SOL    HW237947   0.083   0.011   4.563
78725SOL     OW37948   1.992   6.600   0.563
78725SOL    HW137949   2.068   6.588   0.619
78725SOL    HW237950   1.959   6.512   0.546
78726SOL     OW37951  11.172   0.614   1.622
78726SOL    HW137952  11.243   0.645   1.565
78726SOL    HW237953  11.217   0.564   1.690
78727SOL     OW37954   9.277   0.877   9.906
78727SOL    HW137955   9.198   0.830   9.883
78727SOL    HW237956   9.296   0.932   9.830
78728SOL     OW37957   5.570  12.585   2.249
78728SOL    HW137958   5.611  12.577   2.335
78728SOL    HW237959   5.476  12.572   2.266
78729SOL     OW37960   0.113  11.385   5.452
78729SOL    HW137961   0.194  11.428   5.480
78729SOL    HW237962   0.141  11.323   5.384
78730SOL     OW37963  14.862   6.429   8.893
78730SOL    HW137964   0.037   6.478   8.953
78730SOL    HW237965   0.039   6.370   8.847
78731SOL     OW37966   8.585  13.097   6.022
78731SOL    HW137967   8.591  13.100   6.118
78731SOL    HW237968   8.572  13.188   5.996
78732SOL     OW37969   6.285   4.607  12.415
78732SOL    HW137970   6.204   4.634  12.372
78732SOL    HW237971   6.300   4.675  12.481
78733SOL     OW37972  11.413  13.550   5.078
78733SOL    HW137973  11.364  13.467   5.079
78733SOL    HW237974  11.482  13.535   5.013
78734SOL     OW37975   1.564   3.511   8.473
78734SOL    HW137976   1.657   3.497   8.457
78734SOL    HW237977   1.550   3.603   8.454
78735SOL     OW37978   7.118   8.605   3.042
78735SOL    HW137979   7.104   8.547   3.117
78735SOL    HW237980   7.037   8.656   3.036
78736SOL     OW37981   5.057   3.063   5.008
78736SOL    HW137982   5.062   2.995   5.075
78736SOL    HW237983   4.975   3.045   4.961
78737SOL     OW37984  14.522   9.880  13.245
78737SOL    HW137985  14.568   9.815  13.298
78737SOL    HW237986  14.508   9.837  13.161
78738SOL     OW37987   5.655   7.464   3.618
78738SOL    HW137988   5.742   7.424   3.628
78738SOL    HW237989   5.667   7.529   3.550
78739SOL     OW37990   6.453   1.228   4.194
78739SOL    HW137991   6.491   1.159   4.249
78739SOL    HW237992   6.429   1.184   4.113
78740SOL     OW37993   5.883   9.288   9.527
78740SOL    HW137994   5.885   9.192   9.533
78740SOL    HW237995   5.970   9.312   9.496
78741SOL     OW37996   7.713   4.725   4.260
78741SOL    HW137997   7.674   4.700   4.343
78741SOL    HW237998   7.753   4.810   4.277
78742SOL     OW37999   2.992  10.011   5.380
78742SOL    HW138000   3.050  10.025   5.305
78742SOL    HW238001   3.052  10.008   5.456
78743SOL     OW38002   7.572  13.010   2.482
78743SOL    HW138003   7.592  12.923   2.516
78743SOL    HW238004   7.640  13.027   2.416
78744SOL     OW38005   2.428   8.145   2.480
78744SOL    HW138006   2.506   8.193   2.452
78744SOL    HW238007   2.387   8.116   2.398
78745SOL     OW38008   8.506   6.418   1.088
78745SOL    HW138009   8.434   6.384   1.141
78745SOL    HW238010   8.481   6.508   1.067
78746SOL     OW38011   8.594   4.729   8.452
78746SOL    HW138012   8.639   4.766   8.377
78746SOL    HW238013   8.520   4.788   8.467
78747SOL     OW38014   6.197   9.404  12.349
78747SOL    HW138015   6.171   9.312  12.356
78747SOL    HW238016   6.130   9.452  12.398
78748SOL     OW38017   4.768   7.257  11.025
78748SOL    HW138018   4.792   7.165  11.014
78748SOL    HW238019   4.819   7.287  11.100
78749SOL     OW38020  12.444  11.548  12.172
78749SOL    HW138021  12.410  11.616  12.114
78749SOL    HW238022  12.531  11.579  12.198
78750SOL     OW38023   0.153  13.244  13.340
78750SOL    HW138024   0.202  13.311  13.388
78750SOL    HW238025   0.218  13.208  13.279
78751SOL     OW38026  11.954  13.280   9.996
78751SOL    HW138027  11.940  13.305   9.904
78751SOL    HW238028  12.010  13.349  10.031
78752SOL     OW38029   4.306  10.299   0.733
78752SOL    HW138030   4.377  10.235   0.742
78752SOL    HW238031   4.233  10.249   0.697
78753SOL     OW38032   9.100   0.519  13.145
78753SOL    HW138033   9.063   0.477  13.068
78753SOL    HW238034   9.189   0.485  13.151
78754SOL     OW38035   4.756   1.858  10.103
78754SOL    HW138036   4.727   1.927  10.162
78754SOL    HW238037   4.814   1.902  10.041
78755SOL     OW38038   6.826  10.466   6.824
78755SOL    HW138039   6.918  10.455   6.849
78755SOL    HW238040   6.777  10.444   6.903
78756SOL     OW38041  13.774   1.555  10.485
78756SOL    HW138042  13.849   1.557  10.545
78756SOL    HW238043  13.701   1.525  10.540
78757SOL     OW38044   5.627   1.881   1.477
78757SOL    HW138045   5.671   1.956   1.517
78757SOL    HW238046   5.619   1.817   1.548
78758SOL     OW38047   4.303  14.725  11.027
78758SOL    HW138048   4.244  14.784  11.072
78758SOL    HW238049   4.334  14.774  10.951
78759SOL     OW38050   4.708   2.221  12.201
78759SOL    HW138051   4.662   2.142  12.173
78759SOL    HW238052   4.740   2.200  12.289
78760SOL     OW38053   1.552   9.126  14.474
78760SOL    HW138054   1.566   9.149  14.382
78760SOL    HW238055   1.458   9.140  14.488
78761SOL     OW38056   2.246   2.651   4.062
78761SOL    HW138057   2.242   2.558   4.082
78761SOL    HW238058   2.326   2.681   4.106
78762SOL     OW38059   2.859   7.836  11.119
78762SOL    HW138060   2.791   7.864  11.058
78762SOL    HW238061   2.930   7.804  11.063
78763SOL     OW38062   5.416  12.589   1.351
78763SOL    HW138063   5.507  12.614   1.367
78763SOL    HW238064   5.390  12.641   1.275
78764SOL     OW38065   5.949  12.090   0.408
78764SOL    HW138066   6.027  12.095   0.463
78764SOL    HW238067   5.941  11.998   0.385
78765SOL     OW38068  11.057   4.704  14.393
78765SOL    HW138069  10.980   4.693  14.337
78765SOL    HW238070  11.131   4.676  14.338
78766SOL     OW38071   6.789   0.402   7.358
78766SOL    HW138072   6.826   0.486   7.333
78766SOL    HW238073   6.709   0.394   7.305
78767SOL     OW38074   2.809   8.468   5.674
78767SOL    HW138075   2.824   8.384   5.718
78767SOL    HW238076   2.717   8.467   5.650
78768SOL     OW38077   4.567  10.058   1.232
78768SOL    HW138078   4.615  10.005   1.168
78768SOL    HW238079   4.589  10.148   1.210
78769SOL     OW38080   7.583  11.067   8.628
78769SOL    HW138081   7.490  11.073   8.603
78769SOL    HW238082   7.581  11.049   8.722
78770SOL     OW38083   7.675   4.579  11.258
78770SOL    HW138084   7.621   4.501  11.273
78770SOL    HW238085   7.688   4.582  11.163
78771SOL     OW38086   2.173   9.520   9.761
78771SOL    HW138087   2.232   9.515   9.686
78771SOL    HW238088   2.176   9.433   9.800
78772SOL     OW38089  13.849   0.365  13.098
78772SOL    HW138090  13.920   0.340  13.039
78772SOL    HW238091  13.788   0.415  13.042
78773SOL     OW38092   5.166   6.760  14.728
78773SOL    HW138093   5.113   6.691  14.687
78773SOL    HW238094   5.114   6.839  14.719
78774SOL     OW38095   3.299   4.892   2.463
78774SOL    HW138096   3.319   4.976   2.421
78774SOL    HW238097   3.287   4.914   2.556
78775SOL     OW38098  11.838   4.208   7.647
78775SOL    HW138099  11.819   4.301   7.653
78775SOL    HW238100  11.914   4.195   7.703
78776SOL     OW38101   7.718   7.756   2.894
78776SOL    HW138102   7.783   7.751   2.964
78776SOL    HW238103   7.689   7.666   2.880
78777SOL     OW38104  11.593   7.255   3.866
78777SOL    HW138105  11.597   7.235   3.772
78777SOL    HW238106  11.657   7.325   3.878
78778SOL     OW38107  13.044  13.976  10.509
78778SOL    HW138108  13.123  13.938  10.546
78778SOL    HW238109  13.075  14.053  10.460
78779SOL     OW38110   5.187   6.255   1.944
78779SOL    HW138111   5.154   6.325   2.001
78779SOL    HW238112   5.114   6.194   1.936
78780SOL     OW38113   5.966   3.832  11.607
78780SOL    HW138114   5.933   3.845  11.696
78780SOL    HW238115   6.016   3.911  11.588
78781SOL     OW38116   2.052  14.377  10.202
78781SOL    HW138117   2.128  14.332  10.239
78781SOL    HW238118   1.979  14.318  10.217
78782SOL     OW38119   7.090   5.774   7.446
78782SOL    HW138120   6.997   5.751   7.453
78782SOL    HW238121   7.118   5.736   7.362
78783SOL     OW38122  12.392   6.241   7.299
78783SOL    HW138123  12.467   6.268   7.247
78783SOL    HW238124  12.333   6.317   7.298
78784SOL     OW38125   9.210   0.129   7.334
78784SOL    HW138126   9.232   0.171   7.417
78784SOL    HW238127   9.169   0.047   7.359
78785SOL     OW38128  13.144  10.531   5.730
78785SOL    HW138129  13.076  10.512   5.666
78785SOL    HW238130  13.119  10.615   5.768
78786SOL     OW38131   8.590  14.159  13.610
78786SOL    HW138132   8.588  14.119  13.523
78786SOL    HW238133   8.619  14.089  13.668
78787SOL     OW38134   3.677   7.967   2.135
78787SOL    HW138135   3.739   7.908   2.093
78787SOL    HW238136   3.704   7.969   2.227
78788SOL     OW38137   2.726  11.414  14.604
78788SOL    HW138138   2.651  11.458  14.643
78788SOL    HW238139   2.754  11.473  14.533
78789SOL     OW38140   9.968  14.347   1.549
78789SOL    HW138141   9.898  14.294   1.588
78789SOL    HW238142  10.011  14.389   1.624
78790SOL     OW38143   1.881   4.978   5.847
78790SOL    HW138144   1.944   4.977   5.919
78790SOL    HW238145   1.802   5.016   5.885
78791SOL     OW38146   8.159  11.632   7.775
78791SOL    HW138147   8.070  11.643   7.807
78791SOL    HW238148   8.152  11.638   7.680
78792SOL     OW38149  10.209   9.574   9.930
78792SOL    HW138150  10.303   9.586   9.943
78792SOL    HW238151  10.175   9.663   9.920
78793SOL     OW38152   6.098  14.402   3.258
78793SOL    HW138153   6.177  14.401   3.204
78793SOL    HW238154   6.026  14.390   3.195
78794SOL     OW38155   0.030   6.274  14.839
78794SOL    HW138156   0.010   6.229  14.757
78794SOL    HW238157   0.112   6.235  14.868
78795SOL     OW38158  12.204   8.122   3.537
78795SOL    HW138159  12.281   8.162   3.498
78795SOL    HW238160  12.238   8.050   3.590
78796SOL     OW38161  12.597   3.292   5.758
78796SOL    HW138162  12.660   3.221   5.770
78796SOL    HW238163  12.522   3.250   5.715
78797SOL     OW38164   4.439  13.307   5.350
78797SOL    HW138165   4.490  13.227   5.363
78797SOL    HW238166   4.392  13.292   5.268
78798SOL     OW38167   4.074   0.991   3.668
78798SOL    HW138168   4.011   1.058   3.695
78798SOL    HW238169   4.153   1.040   3.645
78799SOL     OW38170   2.443  11.819   9.686
78799SOL    HW138171   2.445  11.855   9.775
78799SOL    HW238172   2.501  11.743   9.690
78800SOL     OW38173  10.815  11.030   8.575
78800SOL    HW138174  10.719  11.038   8.578
78800SOL    HW238175  10.831  10.946   8.533
78801SOL     OW38176  13.706   8.257   2.285
78801SOL    HW138177  13.766   8.211   2.345
78801SOL    HW238178  13.757   8.267   2.204
78802SOL     OW38179   0.259  13.497   7.296
78802SOL    HW138180   0.340  13.482   7.247
78802SOL    HW238181   0.288  13.522   7.384
78803SOL     OW38182   5.032  14.365  13.173
78803SOL    HW138183   5.009  14.389  13.263
78803SOL    HW238184   5.076  14.280  13.182
78804SOL     OW38185   9.644  13.175   5.337
78804SOL    HW138186   9.738  13.159   5.324
78804SOL    HW238187   9.615  13.102   5.392
78805SOL     OW38188   7.537   8.485   6.887
78805SOL    HW138189   7.460   8.430   6.870
78805SOL    HW238190   7.610   8.423   6.891
78806SOL     OW38191   6.150   5.408   2.787
78806SOL    HW138192   6.138   5.316   2.762
78806SOL    HW238193   6.192   5.404   2.874
78807SOL     OW38194   9.233   0.999   4.140
78807SOL    HW138195   9.305   0.946   4.173
78807SOL    HW238196   9.154   0.947   4.157
78808SOL     OW38197   4.028   8.863  12.346
78808SOL    HW138198   4.037   8.776  12.386
78808SOL    HW238199   4.105   8.911  12.376
78809SOL     OW38200   1.073   0.491   6.652
78809SOL    HW138201   1.020   0.465   6.577
78809SOL    HW238202   1.019   0.555   6.699
78810SOL     OW38203   0.309   5.327   0.127
78810SOL    HW138204   0.309   5.355   0.036
78810SOL    HW238205   0.363   5.392   0.172
78811SOL     OW38206   6.796  12.099   9.265
78811SOL    HW138207   6.705  12.127   9.255
78811SOL    HW238208   6.796  12.045   9.344
78812SOL     OW38209   1.355   3.737   7.896
78812SOL    HW138210   1.390   3.699   7.815
78812SOL    HW238211   1.274   3.780   7.868
78813SOL     OW38212   1.840   0.869  14.803
78813SOL    HW138213   1.831   0.811  14.878
78813SOL    HW238214   1.753   0.907  14.791
78814SOL     OW38215  10.951  11.242   2.847
78814SOL    HW138216  10.944  11.240   2.942
78814SOL    HW238217  11.036  11.283   2.831
78815SOL     OW38218  10.434   2.664  14.529
78815SOL    HW138219  10.420   2.700  14.441
78815SOL    HW238220  10.494   2.726  14.571
78816SOL     OW38221   9.784   1.328   3.326
78816SOL    HW138222   9.720   1.378   3.378
78816SOL    HW238223   9.781   1.240   3.362
78817SOL     OW38224   1.849   0.356   1.278
78817SOL    HW138225   1.812   0.277   1.238
78817SOL    HW238226   1.775   0.395   1.326
78818SOL     OW38227  11.835   9.173  11.999
78818SOL    HW138228  11.877   9.249  11.958
78818SOL    HW238229  11.891   9.099  11.974
78819SOL     OW38230  13.825  12.353  11.239
78819SOL    HW138231  13.798  12.316  11.323
78819SOL    HW238232  13.834  12.447  11.256
78820SOL     OW38233  10.331   4.172   4.314
78820SOL    HW138234  10.260   4.235   4.325
78820SOL    HW238235  10.411   4.225   4.317
78821SOL     OW38236   0.362   0.696   9.034
78821SOL    HW138237   0.384   0.702   8.941
78821SOL    HW238238   0.349   0.602   9.049
78822SOL     OW38239   2.959   4.011  11.643
78822SOL    HW138240   2.907   4.091  11.643
78822SOL    HW238241   2.941   3.970  11.728
78823SOL     OW38242  12.023   6.584   0.777
78823SOL    HW138243  11.930   6.591   0.799
78823SOL    HW238244  12.023   6.554   0.686
78824SOL     OW38245   3.718   9.919  12.972
78824SOL    HW138246   3.659   9.861  13.020
78824SOL    HW238247   3.700   9.901  12.880
78825SOL     OW38248  14.067   0.069   2.333
78825SOL    HW138249  14.144   0.036   2.379
78825SOL    HW238250  13.999   0.003   2.349
78826SOL     OW38251  10.558   6.509  12.016
78826SOL    HW138252  10.532   6.462  11.936
78826SOL    HW238253  10.641   6.469  12.040
78827SOL     OW38254   1.938   1.068   5.636
78827SOL    HW138255   1.968   1.077   5.727
78827SOL    HW238256   1.889   0.985   5.636
78828SOL     OW38257  10.431   0.194  10.876
78828SOL    HW138258  10.344   0.164  10.849
78828SOL    HW238259  10.440   0.167  10.967
78829SOL     OW38260   4.415   9.348  13.965
78829SOL    HW138261   4.377   9.397  13.892
78829SOL    HW238262   4.509   9.361  13.956
78830SOL     OW38263   9.702   8.144  13.744
78830SOL    HW138264   9.709   8.181  13.656
78830SOL    HW238265   9.608   8.135  13.759
78831SOL     OW38266   7.085   2.862   1.999
78831SOL    HW138267   7.040   2.873   1.916
78831SOL    HW238268   7.060   2.939   2.051
78832SOL     OW38269   8.802  14.783  11.318
78832SOL    HW138270   8.890  14.751  11.334
78832SOL    HW238271   8.813  14.874  11.290
78833SOL     OW38272   6.956   5.645   9.182
78833SOL    HW138273   7.010   5.724   9.176
78833SOL    HW238274   6.866   5.677   9.192
78834SOL     OW38275   3.731   0.072  13.658
78834SOL    HW138276   3.738   0.129  13.582
78834SOL    HW238277   3.637   0.059  13.671
78835SOL     OW38278   1.135   2.792   0.982
78835SOL    HW138279   1.091   2.874   0.959
78835SOL    HW238280   1.066   2.738   1.020
78836SOL     OW38281  13.110  14.049   2.360
78836SOL    HW138282  13.180  14.060   2.424
78836SOL    HW238283  13.042  14.000   2.407
78837SOL     OW38284   2.202   4.394   1.123
78837SOL    HW138285   2.294   4.367   1.121
78837SOL    HW238286   2.166   4.351   1.200
78838SOL     OW38287   0.462   9.648   1.403
78838SOL    HW138288   0.535   9.703   1.376
78838SOL    HW238289   0.387   9.683   1.356
78839SOL     OW38290  14.145   9.044   8.297
78839SOL    HW138291  14.209   8.977   8.319
78839SOL    HW238292  14.192   9.127   8.306
78840SOL     OW38293  13.927   2.426   5.015
78840SOL    HW138294  13.840   2.412   4.978
78840SOL    HW238295  13.918   2.502   5.072
78841SOL     OW38296   7.142   4.237   3.923
78841SOL    HW138297   7.143   4.252   3.828
78841SOL    HW238298   7.083   4.162   3.935
78842SOL     OW38299  12.677   5.214   2.515
78842SOL    HW138300  12.688   5.265   2.595
78842SOL    HW238301  12.592   5.171   2.525
78843SOL     OW38302  13.159   6.352   2.698
78843SOL    HW138303  13.176   6.374   2.790
78843SOL    HW238304  13.241   6.313   2.668
78844SOL     OW38305  11.141  13.945   6.147
78844SOL    HW138306  11.095  13.881   6.201
78844SOL    HW238307  11.196  13.891   6.090
78845SOL     OW38308  11.734   6.622   9.661
78845SOL    HW138309  11.733   6.535   9.700
78845SOL    HW238310  11.646   6.633   9.625
78846SOL     OW38311   4.830   3.124   3.155
78846SOL    HW138312   4.791   3.212   3.155
78846SOL    HW238313   4.782   3.077   3.223
78847SOL     OW38314   8.054  13.780   0.463
78847SOL    HW138315   7.995  13.772   0.539
78847SOL    HW238316   8.105  13.699   0.464
78848SOL     OW38317  12.209   3.193  14.833
78848SOL    HW138318  12.116   3.183  14.851
78848SOL    HW238319  12.238   3.260   0.013
78849SOL     OW38320   9.767   0.309   9.925
78849SOL    HW138321   9.828   0.305   9.851
78849SOL    HW238322   9.730   0.221   9.931
78850SOL     OW38323   1.918   7.087   3.481
78850SOL    HW138324   1.943   7.166   3.529
78850SOL    HW238325   1.869   7.119   3.405
78851SOL     OW38326  12.338   5.270   5.330
78851SOL    HW138327  12.399   5.344   5.323
78851SOL    HW238328  12.261   5.298   5.281
78852SOL     OW38329  10.068   5.095  13.747
78852SOL    HW138330  10.064   5.006  13.782
78852SOL    HW238331   9.992   5.139  13.786
78853SOL     OW38332   6.271  14.594   5.495
78853SOL    HW138333   6.334  14.638   5.438
78853SOL    HW238334   6.203  14.659   5.512
78854SOL     OW38335   4.061   2.369   1.266
78854SOL    HW138336   3.996   2.313   1.224
78854SOL    HW238337   4.010   2.428   1.321
78855SOL     OW38338   2.529   6.193   0.989
78855SOL    HW138339   2.572   6.248   0.923
78855SOL    HW238340   2.437   6.219   0.987
78856SOL     OW38341   8.543  13.730   0.212
78856SOL    HW138342   8.524  13.702   0.122
78856SOL    HW238343   8.466  13.782   0.237
78857SOL     OW38344  14.397  10.513   0.779
78857SOL    HW138345  14.490  10.504   0.802
78857SOL    HW238346  14.393  10.593   0.727
78858SOL     OW38347   9.289  13.537   4.024
78858SOL    HW138348   9.221  13.581   3.972
78858SOL    HW238349   9.319  13.465   3.968
78859SOL     OW38350  12.976   1.591  12.020
78859SOL    HW138351  12.894   1.625  11.984
78859SOL    HW238352  13.005   1.658  12.082
78860SOL     OW38353  11.844   1.868   0.744
78860SOL    HW138354  11.841   1.941   0.806
78860SOL    HW238355  11.773   1.810   0.772
78861SOL     OW38356   4.970   9.328   5.979
78861SOL    HW138357   4.932   9.416   5.982
78861SOL    HW238358   4.919   9.283   5.911
78862SOL     OW38359   5.726   0.611   8.707
78862SOL    HW138360   5.716   0.703   8.684
78862SOL    HW238361   5.779   0.574   8.637
78863SOL     OW38362   7.700   4.329   9.302
78863SOL    HW138363   7.634   4.269   9.338
78863SOL    HW238364   7.764   4.339   9.373
78864SOL     OW38365   0.703   8.898  14.673
78864SOL    HW138366   0.777   8.956  14.694
78864SOL    HW238367   0.704   8.890  14.578
78865SOL     OW38368  10.347   5.880  13.132
78865SOL    HW138369  10.285   5.894  13.203
78865SOL    HW238370  10.293   5.869  13.054
78866SOL     OW38371  14.407   3.161   9.162
78866SOL    HW138372  14.417   3.067   9.172
78866SOL    HW238373  14.451   3.181   9.079
78867SOL     OW38374   3.310   0.647   9.228
78867SOL    HW138375   3.296   0.557   9.198
78867SOL    HW238376   3.223   0.686   9.229
78868SOL     OW38377  11.904  11.749   1.608
78868SOL    HW138378  11.825  11.790   1.572
78868SOL    HW238379  11.892  11.752   1.703
78869SOL     OW38380   4.562   0.291   6.888
78869SOL    HW138381   4.609   0.228   6.942
78869SOL    HW238382   4.626   0.360   6.870
78870SOL     OW38383  13.270   3.834   4.560
78870SOL    HW138384  13.181   3.854   4.591
78870SOL    HW238385  13.256   3.788   4.477
78871SOL     OW38386   6.269   1.103   4.397
78871SOL    HW138387   6.221   1.107   4.314
78871SOL    HW238388   6.205   1.129   4.463
78872SOL     OW38389   1.258   0.141   4.948
78872SOL    HW138390   1.295   0.071   5.001
78872SOL    HW238391   1.242   0.100   4.863
78873SOL     OW38392   3.057   5.345   7.239
78873SOL    HW138393   3.120   5.407   7.203
78873SOL    HW238394   3.056   5.272   7.176
78874SOL     OW38395   3.144  12.884  14.437
78874SOL    HW138396   3.112  12.917  14.353
78874SOL    HW238397   3.218  12.941  14.458
78875SOL     OW38398   0.828   5.205   4.288
78875SOL    HW138399   0.911   5.157   4.295
78875SOL    HW238400   0.787   5.171   4.209
78876SOL     OW38401  11.860   5.913   0.175
78876SOL    HW138402  11.934   5.933   0.118
78876SOL    HW238403  11.817   5.838   0.134
78877SOL     OW38404  13.651  13.478   3.008
78877SOL    HW138405  13.572  13.531   3.017
78877SOL    HW238406  13.650  13.419   3.083
78878SOL     OW38407  12.350   0.714   3.443
78878SOL    HW138408  12.271   0.726   3.495
78878SOL    HW238409  12.393   0.637   3.481
78879SOL     OW38410   0.180  13.515  14.253
78879SOL    HW138411   0.197  13.443  14.192
78879SOL    HW238412   0.194  13.477  14.340
78880SOL     OW38413   6.727   1.329   6.471
78880SOL    HW138414   6.806   1.287   6.503
78880SOL    HW238415   6.747   1.423   6.473
78881SOL     OW38416   9.520   2.339   9.393
78881SOL    HW138417   9.575   2.313   9.319
78881SOL    HW238418   9.534   2.270   9.459
78882SOL     OW38419   7.955   4.759   4.546
78882SOL    HW138420   7.918   4.823   4.485
78882SOL    HW238421   7.885   4.741   4.608
78883SOL     OW38422   9.427  14.583   5.244
78883SOL    HW138423   9.336  14.554   5.239
78883SOL    HW238424   9.478  14.502   5.245
78884SOL     OW38425  13.580   0.017   5.333
78884SOL    HW138426  13.546   0.103   5.356
78884SOL    HW238427  13.668   0.015   5.372
78885SOL     OW38428  12.771   3.659   5.776
78885SOL    HW138429  12.827   3.697   5.708
78885SOL    HW238430  12.827   3.597   5.822
78886SOL     OW38431   8.051   2.680   5.305
78886SOL    HW138432   7.979   2.741   5.321
78886SOL    HW238433   8.101   2.680   5.386
78887SOL     OW38434   0.712   7.305   1.931
78887SOL    HW138435   0.783   7.264   1.881
78887SOL    HW238436   0.676   7.235   1.984
78888SOL     OW38437   8.192   4.929   3.855
78888SOL    HW138438   8.267   4.987   3.861
78888SOL    HW238439   8.229   4.842   3.837
78889SOL     OW38440   7.918   0.669   8.148
78889SOL    HW138441   7.953   0.755   8.121
78889SOL    HW238442   7.883   0.684   8.236
78890SOL     OW38443  13.184   9.150   3.454
78890SOL    HW138444  13.154   9.083   3.393
78890SOL    HW238445  13.226   9.216   3.399
78891SOL     OW38446   6.648   0.293   7.622
78891SOL    HW138447   6.659   0.344   7.542
78891SOL    HW238448   6.669   0.203   7.597
78892SOL     OW38449   9.114   2.505   7.303
78892SOL    HW138450   9.070   2.579   7.344
78892SOL    HW238451   9.204   2.511   7.335
78893SOL     OW38452  11.448   5.750   7.029
78893SOL    HW138453  11.461   5.819   6.963
78893SOL    HW238454  11.512   5.683   7.006
78894SOL     OW38455  14.112  12.546   0.015
78894SOL    HW138456  14.057  12.556   0.093
78894SOL    HW238457  14.126  12.636  14.866
78895SOL     OW38458  11.444   3.991  12.859
78895SOL    HW138459  11.464   3.966  12.950
78895SOL    HW238460  11.366   4.045  12.866
78896SOL     OW38461   6.663   0.935  11.336
78896SOL    HW138462   6.711   0.966  11.259
78896SOL    HW238463   6.592   0.998  11.347
78897SOL     OW38464   9.011  14.312   1.939
78897SOL    HW138465   9.056  14.266   2.009
78897SOL    HW238466   8.926  14.268   1.932
78898SOL     OW38467  11.803   7.387   3.987
78898SOL    HW138468  11.838   7.405   4.074
78898SOL    HW238469  11.879   7.397   3.929
78899SOL     OW38470  14.150   3.758   6.156
78899SOL    HW138471  14.158   3.853   6.156
78899SOL    HW238472  14.068   3.740   6.203
78900SOL     OW38473  12.778  11.373  13.053
78900SOL    HW138474  12.846  11.309  13.031
78900SOL    HW238475  12.697  11.322  13.053
78901SOL     OW38476   2.960   7.743   4.828
78901SOL    HW138477   2.967   7.655   4.790
78901SOL    HW238478   2.945   7.728   4.921
78902SOL     OW38479   1.599   7.618   0.651
78902SOL    HW138480   1.521   7.567   0.673
78902SOL    HW238481   1.586   7.644   0.560
78903SOL     OW38482   9.042   6.824   3.813
78903SOL    HW138483   8.956   6.787   3.833
78903SOL    HW238484   9.086   6.755   3.763
78904SOL     OW38485   0.397   3.923   7.668
78904SOL    HW138486   0.368   3.833   7.654
78904SOL    HW238487   0.352   3.974   7.601
78905SOL     OW38488   8.965  10.598  13.472
78905SOL    HW138489   9.036  10.535  13.461
78905SOL    HW238490   8.984  10.641  13.555
78906SOL     OW38491   0.208   1.615   7.530
78906SOL    HW138492   0.189   1.533   7.576
78906SOL    HW238493   0.126   1.665   7.537
78907SOL     OW38494   1.382   9.799  10.179
78907SOL    HW138495   1.385   9.867  10.247
78907SOL    HW238496   1.474   9.788  10.153
78908SOL     OW38497   1.314  11.886   8.075
78908SOL    HW138498   1.329  11.973   8.111
78908SOL    HW238499   1.322  11.897   7.980
78909SOL     OW38500   1.466   5.695   4.787
78909SOL    HW138501   1.372   5.688   4.802
78909SOL    HW238502   1.499   5.607   4.804
78910SOL     OW38503   5.010   4.045  11.225
78910SOL    HW138504   5.021   4.140  11.213
78910SOL    HW238505   4.954   4.038  11.303
78911SOL     OW38506   8.006   8.265   0.691
78911SOL    HW138507   7.941   8.248   0.759
78911SOL    HW238508   8.067   8.328   0.730
78912SOL     OW38509  11.460  14.535   9.064
78912SOL    HW138510  11.452  14.545   9.159
78912SOL    HW238511  11.370  14.522   9.034
78913SOL     OW38512   6.270   2.682   1.379
78913SOL    HW138513   6.297   2.757   1.432
78913SOL    HW238514   6.348   2.658   1.329
78914SOL     OW38515   1.254  14.188   6.342
78914SOL    HW138516   1.172  14.176   6.388
78914SOL    HW238517   1.257  14.282   6.323
78915SOL     OW38518   1.528   9.110   6.565
78915SOL    HW138519   1.603   9.084   6.619
78915SOL    HW238520   1.566   9.131   6.480
78916SOL     OW38521   2.768   9.451   9.445
78916SOL    HW138522   2.840   9.500   9.484
78916SOL    HW238523   2.699   9.454   9.511
78917SOL     OW38524   3.828   5.071   5.306
78917SOL    HW138525   3.898   5.024   5.351
78917SOL    HW238526   3.856   5.073   5.215
78918SOL     OW38527  13.649  11.026   0.178
78918SOL    HW138528  13.613  11.070   0.100
78918SOL    HW238529  13.644  11.092   0.247
78919SOL     OW38530   2.686  12.952   8.534
78919SOL    HW138531   2.608  12.986   8.579
78919SOL    HW238532   2.733  13.030   8.505
78920SOL     OW38533   9.340   2.442  12.565
78920SOL    HW138534   9.364   2.486  12.647
78920SOL    HW238535   9.349   2.510  12.498
78921SOL     OW38536  10.165   9.017   1.861
78921SOL    HW138537  10.230   9.086   1.866
78921SOL    HW238538  10.096   9.052   1.804
78922SOL     OW38539   1.791  10.098  10.890
78922SOL    HW138540   1.863  10.076  10.830
78922SOL    HW238541   1.818  10.063  10.974
78923SOL     OW38542   5.352   3.280   9.901
78923SOL    HW138543   5.351   3.334   9.980
78923SOL    HW238544   5.286   3.212   9.918
78924SOL     OW38545   8.353  11.331  12.380
78924SOL    HW138546   8.285  11.288  12.432
78924SOL    HW238547   8.427  11.271  12.383
78925SOL     OW38548  13.535   5.169  14.105
78925SOL    HW138549  13.473   5.235  14.134
78925SOL    HW238550  13.506   5.088  14.147
78926SOL     OW38551   5.943   4.787   6.414
78926SOL    HW138552   5.947   4.883   6.409
78926SOL    HW238553   5.855   4.765   6.384
78927SOL     OW38554   4.511   9.824  10.063
78927SOL    HW138555   4.435   9.864  10.022
78927SOL    HW238556   4.487   9.816  10.156
78928SOL     OW38557  10.845  10.790  10.886
78928SOL    HW138558  10.851  10.723  10.954
78928SOL    HW238559  10.880  10.747  10.807
78929SOL     OW38560   0.279  11.685   6.196
78929SOL    HW138561   0.208  11.643   6.147
78929SOL    HW238562   0.347  11.703   6.130
78930SOL     OW38563   5.317   6.652   7.042
78930SOL    HW138564   5.404   6.654   7.002
78930SOL    HW238565   5.258   6.629   6.970
78931SOL     OW38566   3.771   9.383   9.978
78931SOL    HW138567   3.756   9.308   9.921
78931SOL    HW238568   3.855   9.419   9.948
78932SOL     OW38569   5.178  10.283  12.620
78932SOL    HW138570   5.270  10.262  12.606
78932SOL    HW238571   5.179  10.371  12.657
78933SOL     OW38572   8.024  14.605   7.240
78933SOL    HW138573   8.058  14.606   7.150
78933SOL    HW238574   8.013  14.697   7.263
78934SOL     OW38575   5.181   3.426  11.252
78934SOL    HW138576   5.145   3.436  11.164
78934SOL    HW238577   5.177   3.514  11.290
78935SOL     OW38578  11.519  12.938   0.395
78935SOL    HW138579  11.525  12.907   0.486
78935SOL    HW238580  11.437  12.901   0.363
78936SOL     OW38581   5.902   4.846  12.844
78936SOL    HW138582   5.824   4.799  12.872
78936SOL    HW238583   5.877   4.888  12.761
78937SOL     OW38584  14.036   5.878  12.076
78937SOL    HW138585  13.965   5.851  12.017
78937SOL    HW238586  14.112   5.830  12.045
78938SOL     OW38587   4.470   0.857   7.509
78938SOL    HW138588   4.390   0.811   7.532
78938SOL    HW238589   4.443   0.920   7.442
78939SOL     OW38590   4.933   1.324   8.989
78939SOL    HW138591   4.982   1.274   8.924
78939SOL    HW238592   4.933   1.268   9.067
78940SOL     OW38593   9.569   9.242   4.807
78940SOL    HW138594   9.575   9.261   4.713
78940SOL    HW238595   9.606   9.154   4.816
78941SOL     OW38596   1.832   3.217   1.857
78941SOL    HW138597   1.871   3.193   1.772
78941SOL    HW238598   1.738   3.219   1.840
78942SOL     OW38599   9.071   5.838   9.851
78942SOL    HW138600   9.046   5.838   9.759
78942SOL    HW238601   9.152   5.787   9.854
78943SOL     OW38602  12.691  12.886   7.243
78943SOL    HW138603  12.759  12.885   7.310
78943SOL    HW238604  12.739  12.887   7.160
78944SOL     OW38605   0.036   2.317   2.344
78944SOL    HW138606   0.052   2.386   2.407
78944SOL    HW238607  14.839   2.272   2.376
78945SOL     OW38608   1.603   9.618   7.638
78945SOL    HW138609   1.613   9.713   7.637
78945SOL    HW238610   1.655   9.588   7.563
78946SOL     OW38611   8.594   1.155   1.535
78946SOL    HW138612   8.567   1.092   1.468
78946SOL    HW238613   8.648   1.104   1.596
78947SOL     OW38614  13.050   1.019  14.868
78947SOL    HW138615  13.125   0.960  14.861
78947SOL    HW238616  13.025   1.038  14.777
78948SOL     OW38617  12.940   4.308  14.211
78948SOL    HW138618  12.888   4.239  14.252
78948SOL    HW238619  12.902   4.319  14.125
78949SOL     OW38620  10.910  13.215   6.561
78949SOL    HW138621  10.821  13.239   6.535
78949SOL    HW238622  10.898  13.167   6.643
78950SOL     OW38623   3.377  13.989   7.883
78950SOL    HW138624   3.399  13.897   7.869
78950SOL    HW238625   3.287  13.988   7.913
78951SOL     OW38626  12.248  10.284  10.984
78951SOL    HW138627  12.299  10.363  10.997
78951SOL    HW238628  12.271  10.256  10.895
78952SOL     OW38629  12.850   6.500   9.688
78952SOL    HW138630  12.875   6.451   9.767
78952SOL    HW238631  12.858   6.592   9.714
78953SOL     OW38632   8.429  12.677   8.450
78953SOL    HW138633   8.498  12.627   8.493
78953SOL    HW238634   8.473  12.751   8.409
78954SOL     OW38635   3.449   6.750   4.346
78954SOL    HW138636   3.437   6.778   4.436
78954SOL    HW238637   3.514   6.680   4.350
78955SOL     OW38638  10.027  14.424  13.045
78955SOL    HW138639  10.093  14.490  13.066
78955SOL    HW238640  10.076  14.341  13.043
78956SOL     OW38641   8.518  10.370   5.707
78956SOL    HW138642   8.536  10.457   5.673
78956SOL    HW238643   8.513  10.381   5.802
78957SOL     OW38644  13.444   3.874   4.775
78957SOL    HW138645  13.454   3.969   4.781
78957SOL    HW238646  13.386   3.860   4.701
78958SOL     OW38647   3.345   2.935   7.412
78958SOL    HW138648   3.306   2.866   7.464
78958SOL    HW238649   3.333   3.014   7.464
78959SOL     OW38650   0.024   7.082   8.761
78959SOL    HW138651   0.064   7.148   8.705
78959SOL    HW238652   0.037   6.999   8.715
78960SOL     OW38653   3.872  13.522  10.857
78960SOL    HW138654   3.952  13.561  10.820
78960SOL    HW238655   3.807  13.531  10.787
78961SOL     OW38656   1.183  14.507  11.713
78961SOL    HW138657   1.209  14.595  11.740
78961SOL    HW238658   1.091  14.501  11.740
78962SOL     OW38659   2.342   8.436  10.721
78962SOL    HW138660   2.284   8.438  10.645
78962SOL    HW238661   2.287   8.464  10.794
78963SOL     OW38662   2.734   6.140  13.326
78963SOL    HW138663   2.647   6.107  13.351
78963SOL    HW238664   2.738   6.228  13.363
78964SOL     OW38665  10.280  12.314   8.258
78964SOL    HW138666  10.259  12.400   8.221
78964SOL    HW238667  10.348  12.280   8.200
78965SOL     OW38668  12.275  14.120   4.451
78965SOL    HW138669  12.210  14.142   4.518
78965SOL    HW238670  12.359  14.135   4.494
78966SOL     OW38671  12.455   4.763  12.887
78966SOL    HW138672  12.448   4.857  12.904
78966SOL    HW238673  12.469   4.724  12.973
78967SOL     OW38674  10.787   1.455   4.225
78967SOL    HW138675  10.824   1.544   4.224
78967SOL    HW238676  10.722   1.458   4.295
78968SOL     OW38677   3.265   2.967   9.634
78968SOL    HW138678   3.182   2.945   9.593
78968SOL    HW238679   3.257   3.060   9.656
78969SOL     OW38680   0.227  11.588   8.460
78969SOL    HW138681   0.167  11.647   8.414
78969SOL    HW238682   0.304  11.584   8.403
78970SOL     OW38683   1.691  12.341   6.340
78970SOL    HW138684   1.644  12.315   6.261
78970SOL    HW238685   1.783  12.322   6.321
78971SOL     OW38686   7.650  12.043   0.558
78971SOL    HW138687   7.694  12.032   0.642
78971SOL    HW238688   7.577  11.982   0.561
78972SOL     OW38689  10.712  10.725   6.909
78972SOL    HW138690  10.750  10.813   6.901
78972SOL    HW238691  10.619  10.741   6.923
78973SOL     OW38692   8.093  11.200  13.357
78973SOL    HW138693   8.076  11.190  13.263
78973SOL    HW238694   8.028  11.144  13.399
78974SOL     OW38695   2.160   3.473   2.293
78974SOL    HW138696   2.171   3.393   2.242
78974SOL    HW238697   2.075   3.464   2.335
78975SOL     OW38698  12.677   8.280   2.195
78975SOL    HW138699  12.635   8.195   2.204
78975SOL    HW238700  12.640   8.333   2.266
78976SOL     OW38701   9.327   5.728   8.863
78976SOL    HW138702   9.365   5.816   8.867
78976SOL    HW238703   9.259   5.734   8.796
78977SOL     OW38704  11.143   7.151   1.106
78977SOL    HW138705  11.062   7.182   1.064
78977SOL    HW238706  11.119   7.064   1.141
78978SOL     OW38707   1.094  10.715   5.858
78978SOL    HW138708   1.142  10.721   5.940
78978SOL    HW238709   1.157  10.680   5.795
78979SOL     OW38710   9.162  12.625   0.388
78979SOL    HW138711   9.122  12.543   0.359
78979SOL    HW238712   9.237  12.597   0.440
78980SOL     OW38713  14.846   4.254   1.032
78980SOL    HW138714  14.802   4.226   1.112
78980SOL    HW238715   0.043   4.299   1.062
78981SOL     OW38716   8.600  12.478  11.784
78981SOL    HW138717   8.592  12.421  11.708
78981SOL    HW238718   8.628  12.562  11.749
78982SOL     OW38719   4.795  13.700   4.435
78982SOL    HW138720   4.758  13.742   4.357
78982SOL    HW238721   4.847  13.628   4.401
78983SOL     OW38722  13.811   8.429   7.272
78983SOL    HW138723  13.893   8.387   7.248
78983SOL    HW238724  13.828   8.466   7.359
78984SOL     OW38725   8.028   5.679   3.249
78984SOL    HW138726   7.958   5.634   3.294
78984SOL    HW238727   7.996   5.690   3.159
78985SOL     OW38728  13.882   6.851   6.738
78985SOL    HW138729  13.926   6.868   6.821
78985SOL    HW238730  13.842   6.935   6.714
78986SOL     OW38731   3.602  11.512   1.750
78986SOL    HW138732   3.519  11.557   1.731
78986SOL    HW238733   3.576  11.422   1.770
78987SOL     OW38734  14.198   4.601   8.288
78987SOL    HW138735  14.148   4.547   8.227
78987SOL    HW238736  14.154   4.589   8.372
78988SOL     OW38737   9.228   0.902   8.209
78988SOL    HW138738   9.177   0.923   8.131
78988SOL    HW238739   9.317   0.930   8.187
78989SOL     OW38740  12.241  12.877  10.477
78989SOL    HW138741  12.200  12.861  10.392
78989SOL    HW238742  12.315  12.935  10.458
78990SOL     OW38743  13.625  13.073  10.849
78990SOL    HW138744  13.570  13.071  10.771
78990SOL    HW238745  13.569  13.112  10.916
78991SOL     OW38746  12.180  12.694  11.452
78991SOL    HW138747  12.252  12.662  11.506
78991SOL    HW238748  12.128  12.748  11.511
78992SOL     OW38749   7.299   4.977  11.640
78992SOL    HW138750   7.222   4.993  11.696
78992SOL    HW238751   7.369   5.027  11.682
78993SOL     OW38752  13.079  11.860   7.181
78993SOL    HW138753  13.061  11.779   7.228
78993SOL    HW238754  13.133  11.911   7.241
78994SOL     OW38755  10.583  13.864   1.884
78994SOL    HW138756  10.558  13.774   1.862
78994SOL    HW238757  10.587  13.909   1.800
78995SOL     OW38758  11.183   2.801   7.859
78995SOL    HW138759  11.122   2.829   7.791
78995SOL    HW238760  11.267   2.794   7.814
78996SOL     OW38761   6.242   6.480   5.623
78996SOL    HW138762   6.153   6.501   5.653
78996SOL    HW238763   6.236   6.482   5.528
78997SOL     OW38764   4.299   3.643   0.008
78997SOL    HW138765   4.381   3.687   0.029
78997SOL    HW238766   4.294   3.644  14.794
78998SOL     OW38767   4.435   8.463  11.883
78998SOL    HW138768   4.381   8.541  11.899
78998SOL    HW238769   4.429   8.413  11.964
78999SOL     OW38770  10.589  14.855   4.749
78999SOL    HW138771  10.639   0.008   4.675
78999SOL    HW238772  10.557   0.052   4.794
79000SOL     OW38773   5.624   3.772  14.808
79000SOL    HW138774   5.610   3.847  14.867
79000SOL    HW238775   5.538   3.758  14.768
79001SOL     OW38776   5.263  11.406   7.026
79001SOL    HW138777   5.355  11.399   7.002
79001SOL    HW238778   5.216  11.359   6.957
79002SOL     OW38779   1.118   7.246   3.512
79002SOL    HW138780   1.064   7.225   3.436
79002SOL    HW238781   1.115   7.341   3.519
79003SOL     OW38782   2.837   4.739   9.387
79003SOL    HW138783   2.752   4.771   9.416
79003SOL    HW238784   2.829   4.644   9.387
79004SOL     OW38785   1.594  12.396  11.825
79004SOL    HW138786   1.663  12.411  11.889
79004SOL    HW238787   1.640  12.390  11.741
79005SOL     OW38788   7.865  12.060   4.565
79005SOL    HW138789   7.778  12.093   4.545
79005SOL    HW238790   7.881  12.086   4.656
79006SOL     OW38791  12.331   7.410   2.150
79006SOL    HW138792  12.382   7.450   2.080
79006SOL    HW238793  12.377   7.328   2.170
79007SOL     OW38794   4.265   7.796   5.808
79007SOL    HW138795   4.335   7.860   5.819
79007SOL    HW238796   4.186   7.848   5.791
79008SOL     OW38797   2.301   3.660  11.227
79008SOL    HW138798   2.332   3.633  11.140
79008SOL    HW238799   2.300   3.579  11.278
79009SOL     OW38800   8.047  13.195   2.007
79009SOL    HW138801   8.032  13.241   2.089
79009SOL    HW238802   7.961  13.160   1.983
79010SOL     OW38803   2.880   0.141   1.615
79010SOL    HW138804   2.917   0.156   1.702
79010SOL    HW238805   2.795   0.187   1.617
79011SOL     OW38806  12.914  12.773   6.325
79011SOL    HW138807  12.825  12.768   6.358
79011SOL    HW238808  12.942  12.862   6.346
79012SOL     OW38809  13.317   3.337   9.549
79012SOL    HW138810  13.268   3.378   9.620
79012SOL    HW238811  13.407   3.364   9.563
79013SOL     OW38812   7.239  12.349  12.468
79013SOL    HW138813   7.236  12.418  12.535
79013SOL    HW238814   7.320  12.301  12.487
79014SOL     OW38815  12.618  12.960  12.745
79014SOL    HW138816  12.584  12.991  12.661
79014SOL    HW238817  12.555  12.895  12.774
79015SOL     OW38818   5.284   6.500   8.070
79015SOL    HW138819   5.259   6.433   8.134
79015SOL    HW238820   5.294   6.580   8.122
79016SOL     OW38821   1.328  11.709   3.754
79016SOL    HW138822   1.409  11.675   3.714
79016SOL    HW238823   1.304  11.643   3.818
79017SOL     OW38824   5.003   1.368   2.815
79017SOL    HW138825   4.960   1.303   2.760
79017SOL    HW238826   5.045   1.317   2.884
79018SOL     OW38827   5.759   5.913   4.181
79018SOL    HW138828   5.732   5.834   4.228
79018SOL    HW238829   5.677   5.960   4.164
79019SOL     OW38830   4.294  12.558  13.082
79019SOL    HW138831   4.311  12.648  13.053
79019SOL    HW238832   4.257  12.515  13.005
79020SOL     OW38833   0.455  12.025   1.914
79020SOL    HW138834   0.478  12.107   1.871
79020SOL    HW238835   0.401  11.978   1.851
79021SOL     OW38836  10.600   3.193  14.444
79021SOL    HW138837  10.563   3.152  14.522
79021SOL    HW238838  10.637   3.275  14.475
79022SOL     OW38839   4.216   9.293   6.023
79022SOL    HW138840   4.169   9.263   5.945
79022SOL    HW238841   4.207   9.388   6.022
79023SOL     OW38842   1.589  11.324  11.918
79023SOL    HW138843   1.566  11.413  11.892
79023SOL    HW238844   1.674  11.308  11.876
79024SOL     OW38845   7.527  13.390   1.089
79024SOL    HW138846   7.458  13.327   1.066
79024SOL    HW238847   7.606  13.354   1.049
79025SOL     OW38848   7.762   2.761  12.137
79025SOL    HW138849   7.755   2.843  12.185
79025SOL    HW238850   7.692   2.766  12.071
79026SOL     OW38851  10.937  13.760  14.291
79026SOL    HW138852  10.956  13.744  14.199
79026SOL    HW238853  10.899  13.848  14.293
79027SOL     OW38854  12.734   7.425  12.729
79027SOL    HW138855  12.726   7.338  12.770
79027SOL    HW238856  12.720   7.409  12.636
79028SOL     OW38857   3.819   1.279   4.491
79028SOL    HW138858   3.852   1.213   4.432
79028SOL    HW238859   3.878   1.354   4.480
79029SOL     OW38860   7.711   8.072  13.855
79029SOL    HW138861   7.744   8.019  13.783
79029SOL    HW238862   7.617   8.054  13.858
79030SOL     OW38863   8.273  14.736  11.252
79030SOL    HW138864   8.335  14.692  11.310
79030SOL    HW238865   8.298  14.828  11.254
79031SOL     OW38866   3.643   7.013   9.270
79031SOL    HW138867   3.722   7.039   9.223
79031SOL    HW238868   3.572   7.032   9.209
79032SOL     OW38869   0.560   1.801   9.718
79032SOL    HW138870   0.492   1.734   9.729
79032SOL    HW238871   0.557   1.823   9.625
79033SOL     OW38872   0.391  12.503   0.087
79033SOL    HW138873   0.411  12.419   0.046
79033SOL    HW238874   0.381  12.563   0.014
79034SOL     OW38875  14.199  13.832   4.924
79034SOL    HW138876  14.155  13.915   4.906
79034SOL    HW238877  14.220  13.836   5.017
79035SOL     OW38878   9.552   7.304   3.882
79035SOL    HW138879   9.514   7.341   3.803
79035SOL    HW238880   9.597   7.377   3.924
79036SOL     OW38881   7.277   1.590   1.395
79036SOL    HW138882   7.188   1.619   1.415
79036SOL    HW238883   7.311   1.560   1.480
79037SOL     OW38884   3.658   5.900   0.248
79037SOL    HW138885   3.615   5.985   0.246
79037SOL    HW238886   3.676   5.884   0.341
79038SOL     OW38887   1.705   8.881   7.040
79038SOL    HW138888   1.622   8.918   7.009
79038SOL    HW238889   1.690   8.862   7.132
79039SOL     OW38890   4.405   9.699   9.532
79039SOL    HW138891   4.381   9.643   9.606
79039SOL    HW238892   4.444   9.776   9.572
79040SOL     OW38893   1.906  12.522  14.798
79040SOL    HW138894   1.976  12.462  14.772
79040SOL    HW238895   1.949  12.607  14.809
79041SOL     OW38896  14.014   6.924   4.904
79041SOL    HW138897  13.995   6.856   4.840
79041SOL    HW238898  13.942   6.918   4.967
79042SOL     OW38899   9.879   8.868   3.197
79042SOL    HW138900   9.880   8.925   3.121
79042SOL    HW238901   9.944   8.801   3.178
79043SOL     OW38902  11.320  14.271   7.427
79043SOL    HW138903  11.235  14.314   7.415
79043SOL    HW238904  11.318  14.240   7.518
79044SOL     OW38905  12.061   4.645   3.273
79044SOL    HW138906  12.131   4.599   3.226
79044SOL    HW238907  12.036   4.585   3.344
79045SOL     OW38908   4.710   3.761   9.267
79045SOL    HW138909   4.637   3.718   9.313
79045SOL    HW238910   4.680   3.771   9.177
79046SOL     OW38911   4.521   6.195   5.789
79046SOL    HW138912   4.483   6.279   5.816
79046SOL    HW238913   4.577   6.169   5.862
79047SOL     OW38914  13.992   8.332   5.023
79047SOL    HW138915  13.938   8.289   5.088
79047SOL    HW238916  14.072   8.357   5.070
79048SOL     OW38917   0.834  11.389  10.375
79048SOL    HW138918   0.921  11.403  10.413
79048SOL    HW238919   0.790  11.331  10.438
79049SOL     OW38920   9.993   9.734   9.484
79049SOL    HW138921  10.004   9.644   9.514
79049SOL    HW238922  10.057   9.784   9.535
79050SOL     OW38923   2.793   6.210   7.030
79050SOL    HW138924   2.826   6.146   7.093
79050SOL    HW238925   2.752   6.157   6.961
79051SOL     OW38926   9.992   1.254  14.209
79051SOL    HW138927  10.000   1.209  14.294
79051SOL    HW238928  10.064   1.317  14.208
79052SOL     OW38929   4.634   7.162   4.309
79052SOL    HW138930   4.582   7.153   4.389
79052SOL    HW238931   4.638   7.073   4.273
79053SOL     OW38932   4.158  10.679   3.119
79053SOL    HW138933   4.104  10.751   3.154
79053SOL    HW238934   4.102  10.602   3.125
79054SOL     OW38935  11.339  13.565   1.516
79054SOL    HW138936  11.265  13.603   1.469
79054SOL    HW238937  11.299  13.503   1.577
79055SOL     OW38938   3.731  13.709  11.799
79055SOL    HW138939   3.777  13.658  11.732
79055SOL    HW238940   3.794  13.777  11.825
79056SOL     OW38941  13.460   3.836   8.299
79056SOL    HW138942  13.468   3.770   8.368
79056SOL    HW238943  13.543   3.884   8.303
79057SOL     OW38944   6.802  13.364   4.893
79057SOL    HW138945   6.771  13.291   4.841
79057SOL    HW238946   6.877  13.329   4.942
79058SOL     OW38947   0.509   5.058   6.612
79058SOL    HW138948   0.593   5.031   6.651
79058SOL    HW238949   0.451   4.984   6.626
79059SOL     OW38950  12.133   2.586  10.436
79059SOL    HW138951  12.124   2.680  10.455
79059SOL    HW238952  12.187   2.583  10.357
79060SOL     OW38953  12.509   0.752   3.083
79060SOL    HW138954  12.453   0.810   3.133
79060SOL    HW238955  12.596   0.763   3.122
79061SOL     OW38956   2.771   4.916   8.912
79061SOL    HW138957   2.854   4.948   8.947
79061SOL    HW238958   2.794   4.835   8.866
79062SOL     OW38959  11.546   1.713   1.940
79062SOL    HW138960  11.595   1.772   1.883
79062SOL    HW238961  11.561   1.747   2.028
79063SOL     OW38962   1.863   5.464  11.051
79063SOL    HW138963   1.897   5.458  10.962
79063SOL    HW238964   1.931   5.424  11.105
79064SOL     OW38965   5.789  12.870   3.397
79064SOL    HW138966   5.771  12.795   3.454
79064SOL    HW238967   5.808  12.942   3.456
79065SOL     OW38968   5.386   9.567   0.642
79065SOL    HW138969   5.321   9.526   0.698
79065SOL    HW238970   5.392   9.658   0.673
79066SOL     OW38971  14.681  11.821   7.414
79066SOL    HW138972  14.775  11.835   7.426
79066SOL    HW238973  14.675  11.735   7.372
79067SOL     OW38974  14.149   5.230  13.486
79067SOL    HW138975  14.055   5.212  13.483
79067SOL    HW238976  14.158   5.297  13.554
79068SOL     OW38977   8.417   2.415  11.969
79068SOL    HW138978   8.432   2.505  11.938
79068SOL    HW238979   8.412   2.363  11.889
79069SOL     OW38980  13.166  10.895   5.406
79069SOL    HW138981  13.086  10.844   5.391
79069SOL    HW238982  13.232  10.852   5.352
79070SOL     OW38983   6.381   7.716   4.787
79070SOL    HW138984   6.400   7.794   4.839
79070SOL    HW238985   6.440   7.721   4.712
79071SOL     OW38986   6.546   6.492  12.866
79071SOL    HW138987   6.516   6.444  12.789
79071SOL    HW238988   6.467   6.503  12.919
79072SOL     OW38989   5.199   0.557   2.155
79072SOL    HW138990   5.259   0.632   2.158
79072SOL    HW238991   5.205   0.525   2.065
79073SOL     OW38992   0.935   2.452  12.715
79073SOL    HW138993   0.997   2.525  12.714
79073SOL    HW238994   0.879   2.470  12.791
79074SOL     OW38995   5.939  13.462  11.234
79074SOL    HW138996   5.999  13.489  11.165
79074SOL    HW238997   5.980  13.493  11.315
79075SOL     OW38998  11.342   9.710   5.179
79075SOL    HW138999  11.359   9.760   5.099
79075SOL    HW239000  11.250   9.685   5.173
79076SOL     OW39001  11.542   0.049  13.275
79076SOL    HW139002  11.630   0.078  13.250
79076SOL    HW239003  11.514   0.114  13.340
79077SOL     OW39004   7.945   1.517  13.811
79077SOL    HW139005   7.886   1.455  13.768
79077SOL    HW239006   7.891   1.561  13.877
79078SOL     OW39007   6.324   3.911   3.891
79078SOL    HW139008   6.305   3.878   3.803
79078SOL    HW239009   6.419   3.922   3.893
79079SOL     OW39010   3.642   0.536   5.715
79079SOL    HW139011   3.643   0.546   5.620
79079SOL    HW239012   3.594   0.454   5.730
79080SOL     OW39013  11.557   6.081   0.838
79080SOL    HW139014  11.600   6.029   0.906
79080SOL    HW239015  11.620   6.082   0.766
79081SOL     OW39016   7.717   1.256   4.932
79081SOL    HW139017   7.803   1.298   4.931
79081SOL    HW239018   7.708   1.219   5.020
79082SOL     OW39019   1.393   1.169  12.526
79082SOL    HW139020   1.379   1.248  12.474
79082SOL    HW239021   1.359   1.098  12.472
79083SOL     OW39022  11.351  13.465  12.065
79083SOL    HW139023  11.415  13.522  12.023
79083SOL    HW239024  11.308  13.420  11.992
79084SOL     OW39025  14.438   6.201   4.926
79084SOL    HW139026  14.516   6.257   4.920
79084SOL    HW239027  14.469   6.121   4.967
79085SOL     OW39028   6.526  14.141   8.660
79085SOL    HW139029   6.574  14.182   8.732
79085SOL    HW239030   6.547  14.048   8.666
79086SOL     OW39031   9.652  10.490  12.859
79086SOL    HW139032   9.708  10.501  12.936
79086SOL    HW239033   9.563  10.484  12.893
79087SOL     OW39034   1.806   6.575  13.375
79087SOL    HW139035   1.768   6.577  13.463
79087SOL    HW239036   1.767   6.649  13.330
79088SOL     OW39037  13.394   2.939  12.853
79088SOL    HW139038  13.330   3.009  12.866
79088SOL    HW239039  13.432   2.924  12.939
79089SOL     OW39040   1.105  12.502   2.175
79089SOL    HW139041   1.171  12.460   2.231
79089SOL    HW239042   1.114  12.458   2.090
79090SOL     OW39043   0.697   1.099  13.967
79090SOL    HW139044   0.790   1.097  13.991
79090SOL    HW239045   0.672   1.007  13.962
79091SOL     OW39046   1.840   8.938  10.541
79091SOL    HW139047   1.848   9.027  10.575
79091SOL    HW239048   1.902   8.887  10.593
79092SOL     OW39049  11.237   3.561   7.751
79092SOL    HW139050  11.174   3.633   7.758
79092SOL    HW239051  11.320   3.605   7.733
79093SOL     OW39052   9.788  14.759   2.802
79093SOL    HW139053   9.862  14.819   2.799
79093SOL    HW239054   9.711  14.813   2.781
79094SOL     OW39055   1.759   8.810   3.269
79094SOL    HW139056   1.799   8.854   3.193
79094SOL    HW239057   1.755   8.877   3.337
79095SOL     OW39058  10.968   4.898   5.557
79095SOL    HW139059  10.937   4.809   5.540
79095SOL    HW239060  10.939   4.948   5.481
79096SOL     OW39061   6.998  11.510  11.209
79096SOL    HW139062   6.931  11.560  11.257
79096SOL    HW239063   7.035  11.451  11.275
79097SOL     OW39064  14.439   9.267   4.451
79097SOL    HW139065  14.476   9.336   4.506
79097SOL    HW239066  14.433   9.306   4.364
79098SOL     OW39067   5.052  10.918   4.543
79098SOL    HW139068   5.071  11.010   4.555
79098SOL    HW239069   4.977  10.916   4.483
79099SOL     OW39070  11.582  11.192  11.709
79099SOL    HW139071  11.630  11.123  11.662
79099SOL    HW239072  11.640  11.268  11.705
79100SOL     OW39073   0.289   6.794   5.891
79100SOL    HW139074   0.210   6.827   5.849
79100SOL    HW239075   0.260   6.765   5.978
79101SOL     OW39076  14.113   7.142   4.784
79101SOL    HW139077  14.069   7.065   4.820
79101SOL    HW239078  14.155   7.111   4.704
79102SOL     OW39079   2.759   0.481   1.285
79102SOL    HW139080   2.805   0.399   1.267
79102SOL    HW239081   2.721   0.506   1.201
79103SOL     OW39082  14.697  10.104   0.756
79103SOL    HW139083  14.756  10.174   0.727
79103SOL    HW239084  14.721  10.029   0.701
79104SOL     OW39085   9.807  13.296  14.849
79104SOL    HW139086   9.776  13.380  14.816
79104SOL    HW239087   9.762  13.285   0.051
79105SOL     OW39088  12.449   7.809  13.816
79105SOL    HW139089  12.490   7.867  13.752
79105SOL    HW239090  12.407   7.741  13.763
79106SOL     OW39091   4.289   6.082   9.895
79106SOL    HW139092   4.311   6.103   9.986
79106SOL    HW239093   4.204   6.122   9.881
79107SOL     OW39094  12.313   3.432   1.003
79107SOL    HW139095  12.282   3.450   1.092
79107SOL    HW239096  12.407   3.422   1.012
79108SOL     OW39097   1.928  13.170   0.465
79108SOL    HW139098   1.839  13.181   0.431
79108SOL    HW239099   1.923  13.198   0.557
79109SOL     OW39100   2.607  14.017   9.065
79109SOL    HW139101   2.633  13.941   9.013
79109SOL    HW239102   2.648  14.002   9.150
79110SOL     OW39103   5.903   4.721   5.797
79110SOL    HW139104   5.986   4.707   5.752
79110SOL    HW239105   5.926   4.717   5.890
79111SOL     OW39106  12.399   0.820  14.324
79111SOL    HW139107  12.387   0.726  14.309
79111SOL    HW239108  12.313   0.859  14.310
79112SOL     OW39109   3.085  11.941   1.280
79112SOL    HW139110   3.175  11.964   1.258
79112SOL    HW239111   3.044  11.920   1.197
79113SOL     OW39112  13.082  14.086  11.576
79113SOL    HW139113  13.103  13.996  11.599
79113SOL    HW239114  13.115  14.096  11.486
79114SOL     OW39115  11.000   6.163   1.042
79114SOL    HW139116  10.974   6.182   0.952
79114SOL    HW239117  11.087   6.124   1.034
79115SOL     OW39118  10.992  14.270  13.211
79115SOL    HW139119  10.967  14.343  13.154
79115SOL    HW239120  10.945  14.195  13.176
79116SOL     OW39121   5.783  14.536   1.557
79116SOL    HW139122   5.841  14.475   1.511
79116SOL    HW239123   5.826  14.550   1.641
79117SOL     OW39124   6.860   6.180   8.699
79117SOL    HW139125   6.953   6.190   8.678
79117SOL    HW239126   6.857   6.102   8.755
79118SOL     OW39127   5.140   3.631   4.975
79118SOL    HW139128   5.130   3.618   5.069
79118SOL    HW239129   5.168   3.546   4.941
79119SOL     OW39130   9.133   8.458   8.870
79119SOL    HW139131   9.130   8.480   8.963
79119SOL    HW239132   9.132   8.543   8.825
79120SOL     OW39133   8.684   4.607  11.970
79120SOL    HW139134   8.730   4.597  11.886
79120SOL    HW239135   8.695   4.699  11.993
79121SOL     OW39136  13.401   7.260   6.797
79121SOL    HW139137  13.331   7.194   6.795
79121SOL    HW239138  13.474   7.218   6.752
79122SOL     OW39139   2.803   5.564  10.687
79122SOL    HW139140   2.790   5.658  10.675
79122SOL    HW239141   2.897   5.555  10.704
79123SOL     OW39142   3.917   7.479   3.697
79123SOL    HW139143   4.001   7.447   3.730
79123SOL    HW239144   3.865   7.399   3.685
79124SOL     OW39145   0.361   5.226  12.838
79124SOL    HW139146   0.443   5.204  12.794
79124SOL    HW239147   0.373   5.194  12.927
79125SOL     OW39148   0.751   3.538   2.316
79125SOL    HW139149   0.659   3.515   2.326
79125SOL    HW239150   0.767   3.533   2.222
79126SOL     OW39151  12.905   9.155   3.111
79126SOL    HW139152  12.903   9.168   3.016
79126SOL    HW239153  12.899   9.243   3.148
79127SOL     OW39154   3.914   0.577   3.445
79127SOL    HW139155   3.889   0.534   3.363
79127SOL    HW239156   3.999   0.616   3.428
79128SOL     OW39157   4.608   7.786   5.273
79128SOL    HW139158   4.657   7.760   5.195
79128SOL    HW239159   4.525   7.740   5.266
79129SOL     OW39160   7.454  12.888  14.169
79129SOL    HW139161   7.476  12.981  14.174
79129SOL    HW239162   7.395  12.881  14.094
79130SOL     OW39163   6.673   3.270   2.351
79130SOL    HW139164   6.748   3.292   2.295
79130SOL    HW239165   6.703   3.287   2.440
79131SOL     OW39166   8.479  11.562   3.367
79131SOL    HW139167   8.385  11.579   3.378
79131SOL    HW239168   8.518  11.591   3.450
79132SOL     OW39169  13.175   6.482   1.000
79132SOL    HW139170  13.229   6.526   0.935
79132SOL    HW239171  13.169   6.391   0.969
79133SOL     OW39172  14.481   2.356   0.975
79133SOL    HW139173  14.433   2.289   0.926
79133SOL    HW239174  14.498   2.317   1.060
79134SOL     OW39175   4.286  12.052   0.607
79134SOL    HW139176   4.289  11.963   0.643
79134SOL    HW239177   4.358  12.098   0.650
79135SOL     OW39178   2.509  11.719  14.826
79135SOL    HW139179   2.418  11.707  14.799
79135SOL    HW239180   2.544  11.780  14.761
79136SOL     OW39181   6.876   4.025   0.759
79136SOL    HW139182   6.847   3.936   0.736
79136SOL    HW239183   6.824   4.048   0.836
79137SOL     OW39184   3.779  13.680   9.791
79137SOL    HW139185   3.734  13.677   9.876
79137SOL    HW239186   3.856  13.735   9.807
79138SOL     OW39187   6.120  11.929  10.526
79138SOL    HW139188   6.158  11.997  10.470
79138SOL    HW239189   6.046  11.895  10.475
79139SOL     OW39190   3.729   1.548   7.438
79139SOL    HW139191   3.722   1.520   7.529
79139SOL    HW239192   3.823   1.546   7.420
79140SOL     OW39193   6.171   1.776   9.103
79140SOL    HW139194   6.246   1.806   9.154
79140SOL    HW239195   6.126   1.856   9.076
79141SOL     OW39196   9.691   1.458   4.143
79141SOL    HW139197   9.773   1.416   4.168
79141SOL    HW239198   9.626   1.424   4.205
79142SOL     OW39199   8.447   5.148  14.825
79142SOL    HW139200   8.476   5.213   0.008
79142SOL    HW239201   8.418   5.074  14.877
79143SOL     OW39202   8.195   1.299  14.429
79143SOL    HW139203   8.137   1.248  14.485
79143SOL    HW239204   8.280   1.295  14.473
79144SOL     OW39205  14.635  12.616   4.574
79144SOL    HW139206  14.724  12.630   4.544
79144SOL    HW239207  14.609  12.701   4.611
79145SOL     OW39208   7.745   5.933   4.202
79145SOL    HW139209   7.664   5.936   4.151
79145SOL    HW239210   7.793   5.858   4.167
79146SOL     OW39211  11.330   3.985   6.786
79146SOL    HW139212  11.364   4.052   6.726
79146SOL    HW239213  11.397   3.975   6.853
79147SOL     OW39214   2.016  10.200   6.566
79147SOL    HW139215   1.992  10.196   6.473
79147SOL    HW239216   2.097  10.250   6.567
79148SOL     OW39217   8.019   7.556  12.413
79148SOL    HW139218   7.934   7.598  12.397
79148SOL    HW239219   8.083   7.621  12.386
79149SOL     OW39220   9.497  14.861  12.903
79149SOL    HW139221   9.569  14.853  12.841
79149SOL    HW239222   9.526   0.047  12.965
79150SOL     OW39223  14.651   4.223   4.096
79150SOL    HW139224  14.572   4.184   4.134
79150SOL    HW239225  14.691   4.152   4.045
79151SOL     OW39226   3.681  14.061   1.320
79151SOL    HW139227   3.692  14.105   1.235
79151SOL    HW239228   3.621  14.117   1.369
79152SOL     OW39229   7.119  11.100  12.251
79152SOL    HW139230   7.087  11.174  12.198
79152SOL    HW239231   7.064  11.026  12.226
79153SOL     OW39232  14.599  11.080   3.551
79153SOL    HW139233  14.691  11.062   3.535
79153SOL    HW239234  14.553  11.037   3.479
79154SOL     OW39235   1.892   6.802   1.067
79154SOL    HW139236   1.812   6.750   1.074
79154SOL    HW239237   1.960   6.746   1.102
79155SOL     OW39238   8.917   1.662   3.402
79155SOL    HW139239   8.847   1.716   3.366
79155SOL    HW239240   8.921   1.687   3.494
79156SOL     OW39241   9.321   4.240  13.067
79156SOL    HW139242   9.265   4.235  13.145
79156SOL    HW239243   9.401   4.282  13.098
79157SOL     OW39244   1.942   8.409   6.261
79157SOL    HW139245   2.024   8.448   6.292
79157SOL    HW239246   1.884   8.411   6.337
79158SOL     OW39247   3.047   9.004  13.503
79158SOL    HW139248   3.013   8.918  13.526
79158SOL    HW239249   2.971   9.052  13.469
79159SOL     OW39250  14.029  11.012   0.256
79159SOL    HW139251  14.047  10.944   0.192
79159SOL    HW239252  13.944  10.989   0.292
79160SOL     OW39253  11.909  10.754  12.004
79160SOL    HW139254  11.952  10.727  11.923
79160SOL    HW239255  11.899  10.673  12.055
79161SOL     OW39256  14.334   6.427   3.646
79161SOL    HW139257  14.276   6.502   3.631
79161SOL    HW239258  14.335   6.381   3.562
79162SOL     OW39259   2.812   2.071  13.467
79162SOL    HW139260   2.858   2.005  13.519
79162SOL    HW239261   2.720   2.044  13.470
79163SOL     OW39262   4.966   5.187  12.833
79163SOL    HW139263   5.027   5.247  12.791
79163SOL    HW239264   4.922   5.240  12.900
79164SOL     OW39265   5.058  10.875  14.721
79164SOL    HW139266   4.964  10.887  14.708
79164SOL    HW239267   5.097  10.898  14.636
79165SOL     OW39268  11.999   5.547   8.618
79165SOL    HW139269  12.034   5.634   8.602
79165SOL    HW239270  12.005   5.502   8.533
79166SOL     OW39271   1.795   5.724   6.609
79166SOL    HW139272   1.784   5.723   6.704
79166SOL    HW239273   1.854   5.651   6.591
79167SOL     OW39274  14.414   4.673   1.782
79167SOL    HW139275  14.495   4.697   1.828
79167SOL    HW239276  14.403   4.741   1.716
79168SOL     OW39277   3.157   7.254   9.744
79168SOL    HW139278   3.138   7.160   9.750
79168SOL    HW239279   3.232   7.267   9.803
79169SOL     OW39280  12.409   5.911   2.282
79169SOL    HW139281  12.437   5.944   2.368
79169SOL    HW239282  12.341   5.847   2.302
79170SOL     OW39283   7.969   9.233   2.061
79170SOL    HW139284   8.053   9.194   2.041
79170SOL    HW239285   7.974   9.254   2.154
79171SOL     OW39286   6.500  10.728  13.561
79171SOL    HW139287   6.545  10.749  13.479
79171SOL    HW239288   6.503  10.633  13.567
79172SOL     OW39289   7.380   4.275  13.931
79172SOL    HW139290   7.287   4.286  13.949
79172SOL    HW239291   7.393   4.316  13.846
79173SOL     OW39292  12.603   9.557  10.853
79173SOL    HW139293  12.649   9.593  10.929
79173SOL    HW239294  12.621   9.620  10.782
79174SOL     OW39295   2.300   0.318  11.161
79174SOL    HW139296   2.329   0.403  11.193
79174SOL    HW239297   2.206   0.328  11.146
79175SOL     OW39298   4.149   0.986   2.567
79175SOL    HW139299   4.209   1.004   2.494
79175SOL    HW239300   4.165   1.057   2.629
79176SOL     OW39301   3.572  12.541  11.381
79176SOL    HW139302   3.546  12.611  11.321
79176SOL    HW239303   3.495  12.527  11.436
79177SOL     OW39304  11.657  13.932   7.038
79177SOL    HW139305  11.729  13.954   6.979
79177SOL    HW239306  11.641  14.012   7.087
79178SOL     OW39307   1.532  10.853  12.045
79178SOL    HW139308   1.593  10.844  12.118
79178SOL    HW239309   1.527  10.947  12.028
79179SOL     OW39310  13.210  12.832   0.859
79179SOL    HW139311  13.179  12.898   0.920
79179SOL    HW239312  13.147  12.834   0.787
79180SOL     OW39313  13.930  10.356  11.027
79180SOL    HW139314  13.928  10.269  10.988
79180SOL    HW239315  13.893  10.413  10.960
79181SOL     OW39316  10.378   4.632   9.385
79181SOL    HW139317  10.319   4.694   9.343
79181SOL    HW239318  10.455   4.628   9.328
79182SOL     OW39319  12.565  13.940  12.891
79182SOL    HW139320  12.574  13.934  12.986
79182SOL    HW239321  12.506  14.014  12.877
79183SOL     OW39322   7.202   7.900  10.096
79183SOL    HW139323   7.198   7.820  10.043
79183SOL    HW239324   7.266   7.880  10.164
79184SOL     OW39325   8.264   2.451  13.244
79184SOL    HW139326   8.246   2.377  13.302
79184SOL    HW239327   8.206   2.437  13.169
79185SOL     OW39328  14.544   7.738  12.242
79185SOL    HW139329  14.613   7.743  12.308
79185SOL    HW239330  14.477   7.682  12.282
79186SOL     OW39331  13.811   3.602   7.436
79186SOL    HW139332  13.760   3.661   7.491
79186SOL    HW239333  13.865   3.660   7.382
79187SOL     OW39334   7.206   2.106   3.407
79187SOL    HW139335   7.125   2.084   3.451
79187SOL    HW239336   7.178   2.147   3.325
79188SOL     OW39337   6.192   9.442   4.303
79188SOL    HW139338   6.176   9.350   4.325
79188SOL    HW239339   6.115   9.489   4.336
79189SOL     OW39340   5.463  12.528   0.621
79189SOL    HW139341   5.496  12.463   0.684
79189SOL    HW239342   5.538  12.584   0.603
79190SOL     OW39343  14.384   0.023   4.741
79190SOL    HW139344  14.442   0.095   4.715
79190SOL    HW239345  14.304   0.066   4.771
79191SOL     OW39346   3.184  11.632   3.422
79191SOL    HW139347   3.173  11.726   3.413
79191SOL    HW239348   3.098  11.601   3.454
79192SOL     OW39349  13.446   8.013   6.092
79192SOL    HW139350  13.456   7.923   6.121
79192SOL    HW239351  13.395   8.007   6.011
79193SOL     OW39352   3.801   1.911   8.706
79193SOL    HW139353   3.863   1.981   8.726
79193SOL    HW239354   3.720   1.956   8.683
79194SOL     OW39355  13.087   7.701  14.405
79194SOL    HW139356  13.004   7.666  14.437
79194SOL    HW239357  13.069   7.732  14.317
79195SOL     OW39358   2.214  14.567   8.777
79195SOL    HW139359   2.143  14.504   8.767
79195SOL    HW239360   2.180  14.633   8.837
79196SOL     OW39361   2.000   1.150  10.207
79196SOL    HW139362   2.011   1.136  10.113
79196SOL    HW239363   1.905   1.144  10.221
79197SOL     OW39364   2.029  13.993   4.187
79197SOL    HW139365   2.081  14.032   4.117
79197SOL    HW239366   1.991  14.067   4.233
79198SOL     OW39367   0.725   9.508   2.748
79198SOL    HW139368   0.630   9.506   2.751
79198SOL    HW239369   0.746   9.595   2.716
79199SOL     OW39370   8.725  10.631  12.987
79199SOL    HW139371   8.763  10.716  12.965
79199SOL    HW239372   8.679  10.604  12.908
79200SOL     OW39373   0.528   9.030   8.421
79200SOL    HW139374   0.565   9.111   8.457
79200SOL    HW239375   0.604   8.973   8.409
79201SOL     OW39376  13.048   9.765   2.373
79201SOL    HW139377  13.050   9.856   2.402
79201SOL    HW239378  13.121   9.723   2.418
79202SOL     OW39379   2.294  11.742   4.357
79202SOL    HW139380   2.277  11.794   4.436
79202SOL    HW239381   2.344  11.800   4.300
79203SOL     OW39382  11.131   9.955   6.366
79203SOL    HW139383  11.138  10.008   6.445
79203SOL    HW239384  11.216   9.964   6.323
79204SOL     OW39385   4.805  10.301   0.292
79204SOL    HW139386   4.861  10.365   0.249
79204SOL    HW239387   4.726  10.299   0.238
79205SOL     OW39388  13.059  14.300   3.310
79205SOL    HW139389  13.089  14.334   3.225
79205SOL    HW239390  12.965  14.316   3.310
79206SOL     OW39391  10.508  14.168  10.218
79206SOL    HW139392  10.522  14.237  10.283
79206SOL    HW239393  10.528  14.210  10.135
79207SOL     OW39394   2.631   1.420  10.176
79207SOL    HW139395   2.589   1.334  10.168
79207SOL    HW239396   2.592   1.458  10.255
79208SOL     OW39397   6.529   3.681   8.367
79208SOL    HW139398   6.502   3.589   8.377
79208SOL    HW239399   6.612   3.676   8.319
79209SOL     OW39400   5.777   7.756   2.208
79209SOL    HW139401   5.845   7.766   2.275
79209SOL    HW239402   5.716   7.692   2.245
79210SOL     OW39403   0.133  12.396   5.972
79210SOL    HW139404   0.126  12.328   6.039
79210SOL    HW239405   0.207  12.369   5.918
79211SOL     OW39406  11.638  13.552  14.498
79211SOL    HW139407  11.641  13.458  14.515
79211SOL    HW239408  11.715  13.587  14.543
79212SOL     OW39409   3.457   7.347   8.695
79212SOL    HW139410   3.413   7.348   8.780
79212SOL    HW239411   3.461   7.254   8.672
79213SOL     OW39412   3.915   4.201   2.206
79213SOL    HW139413   3.914   4.296   2.193
79213SOL    HW239414   3.858   4.167   2.137
79214SOL     OW39415   4.698   9.759  11.125
79214SOL    HW139416   4.734   9.820  11.060
79214SOL    HW239417   4.680   9.680  11.074
79215SOL     OW39418   5.798  11.012   7.301
79215SOL    HW139419   5.803  10.950   7.228
79215SOL    HW239420   5.865  10.983   7.363
79216SOL     OW39421  10.439  10.828   6.676
79216SOL    HW139422  10.351  10.859   6.657
79216SOL    HW239423  10.478  10.897   6.729
79217SOL     OW39424   6.627   6.754   7.714
79217SOL    HW139425   6.613   6.669   7.754
79217SOL    HW239426   6.551   6.767   7.658
79218SOL     OW39427  12.839   8.632   2.291
79218SOL    HW139428  12.792   8.676   2.221
79218SOL    HW239429  12.866   8.702   2.351
79219SOL     OW39430   3.243   4.985  11.459
79219SOL    HW139431   3.250   4.890  11.456
79219SOL    HW239432   3.171   5.006  11.400
79220SOL     OW39433   3.865   5.411   9.631
79220SOL    HW139434   3.772   5.411   9.612
79220SOL    HW239435   3.903   5.353   9.565
79221SOL     OW39436  14.211  14.658  11.595
79221SOL    HW139437  14.279  14.665  11.527
79221SOL    HW239438  14.159  14.738  11.585
79222SOL     OW39439   8.686   0.995   0.601
79222SOL    HW139440   8.762   0.971   0.548
79222SOL    HW239441   8.688   1.090   0.604
79223SOL     OW39442  14.419  12.013  11.866
79223SOL    HW139443  14.452  11.945  11.925
79223SOL    HW239444  14.482  12.016  11.795
79224SOL     OW39445  11.206  12.753  13.483
79224SOL    HW139446  11.299  12.734  13.473
79224SOL    HW239447  11.176  12.694  13.552
79225SOL     OW39448  11.730  10.811   7.138
79225SOL    HW139449  11.660  10.798   7.202
79225SOL    HW239450  11.685  10.816   7.054
79226SOL     OW39451  13.833   9.892   1.820
79226SOL    HW139452  13.838   9.979   1.860
79226SOL    HW239453  13.741   9.867   1.828
79227SOL     OW39454   0.492   2.008   3.477
79227SOL    HW139455   0.443   2.024   3.396
79227SOL    HW239456   0.449   1.932   3.516
79228SOL     OW39457  12.575   6.180  13.901
79228SOL    HW139458  12.655   6.228  13.916
79228SOL    HW239459  12.581   6.150  13.810
79229SOL     OW39460   1.134   9.410  13.111
79229SOL    HW139461   1.063   9.346  13.102
79229SOL    HW239462   1.106   9.485  13.059
79230SOL     OW39463   9.205   9.167   9.840
79230SOL    HW139464   9.226   9.258   9.818
79230SOL    HW239465   9.182   9.170   9.933
79231SOL     OW39466   5.443   8.973   2.560
79231SOL    HW139467   5.439   8.879   2.543
79231SOL    HW239468   5.470   9.012   2.477
79232SOL     OW39469   0.448  13.541   4.423
79232SOL    HW139470   0.466  13.598   4.498
79232SOL    HW239471   0.353  13.546   4.411
79233SOL     OW39472  12.577  14.403   7.909
79233SOL    HW139473  12.559  14.309   7.909
79233SOL    HW239474  12.510  14.440   7.968
79234SOL     OW39475  10.640  13.268  12.833
79234SOL    HW139476  10.729  13.237  12.849
79234SOL    HW239477  10.584  13.194  12.859
79235SOL     OW39478   8.729   1.876  14.247
79235SOL    HW139479   8.686   1.802  14.290
79235SOL    HW239480   8.678   1.952  14.274
79236SOL     OW39481  13.676  13.314   3.757
79236SOL    HW139482  13.738  13.256   3.801
79236SOL    HW239483  13.723  13.396   3.747
79237SOL     OW39484  12.394  11.801  12.107
79237SOL    HW139485  12.358  11.821  12.020
79237SOL    HW239486  12.484  11.833  12.103
79238SOL     OW39487   6.388   0.872   3.812
79238SOL    HW139488   6.334   0.863   3.733
79238SOL    HW239489   6.478   0.878   3.779
79239SOL     OW39490   4.203  10.638   8.367
79239SOL    HW139491   4.273  10.581   8.398
79239SOL    HW239492   4.221  10.723   8.407
79240SOL     OW39493   6.627  10.108  13.646
79240SOL    HW139494   6.613  10.160  13.724
79240SOL    HW239495   6.608  10.018  13.673
79241SOL     OW39496  11.625   3.530   6.586
79241SOL    HW139497  11.574   3.568   6.657
79241SOL    HW239498  11.614   3.591   6.513
79242SOL     OW39499  14.081   7.917   0.373
79242SOL    HW139500  14.077   7.882   0.283
79242SOL    HW239501  14.032   7.999   0.369
79243SOL     OW39502  10.937  12.619   5.760
79243SOL    HW139503  10.911  12.528   5.745
79243SOL    HW239504  11.025  12.613   5.796
79244SOL     OW39505   5.216   2.920   1.471
79244SOL    HW139506   5.175   2.861   1.409
79244SOL    HW239507   5.238   2.998   1.420
79245SOL     OW39508   8.512  10.321  13.912
79245SOL    HW139509   8.443  10.359  13.966
79245SOL    HW239510   8.466  10.276  13.841
79246SOL     OW39511   7.651   8.464  12.427
79246SOL    HW139512   7.574   8.469  12.371
79246SOL    HW239513   7.678   8.372  12.421
79247SOL     OW39514  12.567   0.589   7.779
79247SOL    HW139515  12.564   0.575   7.684
79247SOL    HW239516  12.484   0.554   7.811
79248SOL     OW39517   3.658  12.765   3.652
79248SOL    HW139518   3.706  12.839   3.690
79248SOL    HW239519   3.693  12.688   3.696
79249SOL     OW39520   7.596  12.769  11.165
79249SOL    HW139521   7.659  12.697  11.163
79249SOL    HW239522   7.586  12.790  11.257
79250SOL     OW39523   3.453   7.397   1.352
79250SOL    HW139524   3.513   7.446   1.408
79250SOL    HW239525   3.392   7.463   1.319
79251SOL     OW39526  10.291  10.108  11.813
79251SOL    HW139527  10.213  10.052  11.816
79251SOL    HW239528  10.296  10.137  11.722
79252SOL     OW39529  11.571   2.206   7.666
79252SOL    HW139530  11.566   2.193   7.760
79252SOL    HW239531  11.491   2.253   7.643
79253SOL     OW39532   3.775  13.792   8.690
79253SOL    HW139533   3.760  13.715   8.745
79253SOL    HW239534   3.868  13.812   8.701
79254SOL     OW39535  10.234   9.824   7.388
79254SOL    HW139536  10.326   9.809   7.367
79254SOL    HW239537  10.186   9.761   7.334
79255SOL     OW39538  13.751  10.591   4.923
79255SOL    HW139539  13.721  10.594   5.014
79255SOL    HW239540  13.730  10.502   4.894
79256SOL     OW39541   0.422  10.577  14.772
79256SOL    HW139542   0.391  10.565  14.862
79256SOL    HW239543   0.477  10.501  14.755
79257SOL     OW39544   5.583   1.394   7.003
79257SOL    HW139545   5.653   1.330   6.990
79257SOL    HW239546   5.503   1.341   7.007
79258SOL     OW39547  10.065   9.180   9.715
79258SOL    HW139548  10.073   9.271   9.743
79258SOL    HW239549  10.030   9.135   9.791
79259SOL     OW39550   7.107  13.148   6.619
79259SOL    HW139551   7.058  13.136   6.538
79259SOL    HW239552   7.172  13.078   6.619
79260SOL     OW39553   4.068   8.236   4.524
79260SOL    HW139554   4.141   8.286   4.489
79260SOL    HW239555   3.996   8.251   4.463
79261SOL     OW39556  11.693  10.008   7.149
79261SOL    HW139557  11.715  10.068   7.220
79261SOL    HW239558  11.624   9.951   7.186
79262SOL     OW39559   5.921  12.546  11.279
79262SOL    HW139560   6.007  12.579  11.306
79262SOL    HW239561   5.893  12.490  11.351
79263SOL     OW39562   2.847   2.822  11.419
79263SOL    HW139563   2.820   2.896  11.473
79263SOL    HW239564   2.772   2.805  11.362
79264SOL     OW39565   3.484   5.584   8.435
79264SOL    HW139566   3.522   5.615   8.352
79264SOL    HW239567   3.421   5.517   8.409
79265SOL     OW39568   8.384   0.469   7.872
79265SOL    HW139569   8.406   0.560   7.852
79265SOL    HW239570   8.385   0.425   7.788
79266SOL     OW39571   1.392   9.561  14.061
79266SOL    HW139572   1.349   9.646  14.063
79266SOL    HW239573   1.365   9.522  13.978
79267SOL     OW39574   5.295  14.201   6.109
79267SOL    HW139575   5.378  14.229   6.147
79267SOL    HW239576   5.317  14.124   6.056
79268SOL     OW39577   6.682  10.805   9.634
79268SOL    HW139578   6.641  10.722   9.613
79268SOL    HW239579   6.657  10.823   9.725
79269SOL     OW39580  10.980   4.307  12.926
79269SOL    HW139581  10.935   4.253  12.991
79269SOL    HW239582  10.919   4.313  12.853
79270SOL     OW39583   7.985  13.006   3.272
79270SOL    HW139584   8.078  12.996   3.255
79270SOL    HW239585   7.973  12.976   3.362
79271SOL     OW39586   1.956   5.165  14.086
79271SOL    HW139587   1.965   5.260  14.082
79271SOL    HW239588   2.045   5.132  14.074
79272SOL     OW39589   7.468  13.154  14.700
79272SOL    HW139590   7.550  13.199  14.715
79272SOL    HW239591   7.449  13.109  14.783
79273SOL     OW39592   5.458   5.244   6.570
79273SOL    HW139593   5.413   5.234   6.653
79273SOL    HW239594   5.429   5.329   6.537
79274SOL     OW39595   8.997   6.238  13.797
79274SOL    HW139596   8.951   6.154  13.793
79274SOL    HW239597   8.958   6.283  13.871
79275SOL     OW39598   0.400   4.672   4.006
79275SOL    HW139599   0.405   4.717   3.922
79275SOL    HW239600   0.469   4.712   4.059
79276SOL     OW39601   8.197   1.493  13.945
79276SOL    HW139602   8.106   1.504  13.917
79276SOL    HW239603   8.193   1.425  14.011
79277SOL     OW39604  14.853   1.523   5.945
79277SOL    HW139605   0.034   1.505   6.015
79277SOL    HW239606   0.022   1.573   5.880
79278SOL     OW39607   9.385   8.565  12.370
79278SOL    HW139608   9.352   8.476  12.374
79278SOL    HW239609   9.480   8.555  12.360
79279SOL     OW39610  10.602  10.147   4.396
79279SOL    HW139611  10.555  10.069   4.424
79279SOL    HW239612  10.545  10.220   4.422
79280SOL     OW39613   8.082  11.417   2.356
79280SOL    HW139614   8.091  11.484   2.288
79280SOL    HW239615   7.997  11.377   2.339
79281SOL     OW39616   4.397   1.940   8.798
79281SOL    HW139617   4.310   1.923   8.834
79281SOL    HW239618   4.388   2.023   8.752
79282SOL     OW39619   7.816  11.180   5.755
79282SOL    HW139620   7.845  11.125   5.682
79282SOL    HW239621   7.867  11.150   5.829
79283SOL     OW39622   4.594   8.076   5.223
79283SOL    HW139623   4.598   7.980   5.229
79283SOL    HW239624   4.511   8.099   5.265
79284SOL     OW39625   5.217   8.478   6.842
79284SOL    HW139626   5.134   8.430   6.839
79284SOL    HW239627   5.198   8.562   6.802
79285SOL     OW39628  10.127  11.323   7.367
79285SOL    HW139629  10.075  11.319   7.287
79285SOL    HW239630  10.156  11.414   7.372
79286SOL     OW39631   4.374   8.886   4.912
79286SOL    HW139632   4.317   8.953   4.950
79286SOL    HW239633   4.461   8.907   4.945
79287SOL     OW39634  10.489   5.422  13.999
79287SOL    HW139635  10.474   5.462  13.913
79287SOL    HW239636  10.406   5.378  14.019
79288SOL     OW39637  12.328   6.634   2.869
79288SOL    HW139638  12.292   6.546   2.858
79288SOL    HW239639  12.303   6.659   2.958
79289SOL     OW39640   6.959   1.196   0.222
79289SOL    HW139641   6.947   1.121   0.279
79289SOL    HW239642   6.873   1.209   0.180
79290SOL     OW39643   6.198  11.378   5.701
79290SOL    HW139644   6.288  11.395   5.730
79290SOL    HW239645   6.180  11.445   5.635
79291SOL     OW39646   0.282   6.566   8.183
79291SOL    HW139647   0.219   6.637   8.167
79291SOL    HW239648   0.227   6.490   8.204
79292SOL     OW39649   2.233  12.103   1.189
79292SOL    HW139650   2.141  12.101   1.163
79292SOL    HW239651   2.266  12.016   1.165
79293SOL     OW39652   2.899  11.130   5.556
79293SOL    HW139653   2.872  11.143   5.465
79293SOL    HW239654   2.991  11.103   5.551
79294SOL     OW39655  14.062   7.459   2.497
79294SOL    HW139656  14.017   7.438   2.579
79294SOL    HW239657  14.155   7.452   2.519
79295SOL     OW39658  12.627  10.229  11.050
79295SOL    HW139659  12.609  10.302  11.110
79295SOL    HW239660  12.574  10.157  11.083
79296SOL     OW39661   6.071  13.337   1.953
79296SOL    HW139662   6.166  13.324   1.959
79296SOL    HW239663   6.034  13.252   1.976
79297SOL     OW39664   2.463   9.791   2.811
79297SOL    HW139665   2.553   9.823   2.803
79297SOL    HW239666   2.412   9.845   2.750
79298SOL     OW39667  13.926   1.146  13.328
79298SOL    HW139668  13.879   1.174  13.406
79298SOL    HW239669  13.860   1.100  13.276
79299SOL     OW39670   3.611   9.519   5.674
79299SOL    HW139671   3.587   9.477   5.757
79299SOL    HW239672   3.706   9.530   5.678
79300SOL     OW39673   5.766   1.708  10.249
79300SOL    HW139674   5.816   1.788  10.267
79300SOL    HW239675   5.737   1.717  10.158
79301SOL     OW39676   3.933   6.418   6.296
79301SOL    HW139677   3.934   6.488   6.361
79301SOL    HW239678   4.005   6.361   6.321
79302SOL     OW39679  10.409   6.961  13.315
79302SOL    HW139680  10.457   6.882  13.343
79302SOL    HW239681  10.355   6.984  13.391
79303SOL     OW39682   7.597  14.793   1.375
79303SOL    HW139683   7.508  14.759   1.369
79303SOL    HW239684   7.592  14.880   1.334
79304SOL     OW39685  10.961   3.771  12.670
79304SOL    HW139686  10.975   3.762  12.576
79304SOL    HW239687  10.893   3.706  12.690
79305SOL     OW39688   7.137  13.662   5.739
79305SOL    HW139689   7.180  13.581   5.709
79305SOL    HW239690   7.044  13.647   5.722
79306SOL     OW39691   0.296   5.599   0.910
79306SOL    HW139692   0.246   5.517   0.908
79306SOL    HW239693   0.230   5.668   0.905
79307SOL     OW39694   7.039   6.035   9.621
79307SOL    HW139695   6.996   6.118   9.641
79307SOL    HW239696   7.001   5.972   9.682
79308SOL     OW39697   7.399   4.565   8.562
79308SOL    HW139698   7.430   4.623   8.492
79308SOL    HW239699   7.478   4.539   8.609
79309SOL     OW39700   1.459   0.570   8.709
79309SOL    HW139701   1.450   0.659   8.675
79309SOL    HW239702   1.532   0.575   8.771
79310SOL     OW39703   2.520   2.580   0.838
79310SOL    HW139704   2.605   2.573   0.881
79310SOL    HW239705   2.462   2.524   0.889
79311SOL     OW39706  13.583   8.617   5.767
79311SOL    HW139707  13.576   8.697   5.714
79311SOL    HW239708  13.501   8.570   5.751
79312SOL     OW39709  10.611   4.861   4.645
79312SOL    HW139710  10.636   4.940   4.692
79312SOL    HW239711  10.567   4.892   4.566
79313SOL     OW39712   6.636  11.110   7.544
79313SOL    HW139713   6.602  11.021   7.557
79313SOL    HW239714   6.693  11.103   7.467
79314SOL     OW39715   6.597   3.206   5.274
79314SOL    HW139716   6.603   3.258   5.193
79314SOL    HW239717   6.517   3.155   5.263
79315SOL     OW39718   2.817   7.582   8.020
79315SOL    HW139719   2.866   7.664   8.024
79315SOL    HW239720   2.849   7.531   8.094
79316SOL     OW39721   3.458   6.636   8.754
79316SOL    HW139722   3.404   6.574   8.803
79316SOL    HW239723   3.461   6.714   8.809
79317SOL     OW39724   7.545   6.584  14.683
79317SOL    HW139725   7.475   6.620  14.737
79317SOL    HW239726   7.526   6.491  14.677
79318SOL     OW39727   2.613   5.882   6.504
79318SOL    HW139728   2.548   5.951   6.512
79318SOL    HW239729   2.596   5.842   6.419
79319SOL     OW39730  13.213   6.100  11.972
79319SOL    HW139731  13.183   6.184  11.936
79319SOL    HW239732  13.217   6.041  11.896
79320SOL     OW39733   6.811   9.576   4.434
79320SOL    HW139734   6.798   9.670   4.421
79320SOL    HW239735   6.906   9.565   4.439
79321SOL     OW39736  12.240  10.652  13.074
79321SOL    HW139737  12.327  10.614  13.086
79321SOL    HW239738  12.244  10.736  13.121
79322SOL     OW39739   7.408   9.229   5.101
79322SOL    HW139740   7.422   9.232   5.195
79322SOL    HW239741   7.403   9.136   5.080
79323SOL     OW39742  14.232   3.308   9.305
79323SOL    HW139743  14.195   3.254   9.374
79323SOL    HW239744  14.293   3.251   9.259
79324SOL     OW39745   3.316   2.321   9.592
79324SOL    HW139746   3.266   2.341   9.670
79324SOL    HW239747   3.400   2.289   9.625
79325SOL     OW39748  11.525   5.293  13.697
79325SOL    HW139749  11.553   5.280  13.607
79325SOL    HW239750  11.430   5.304  13.691
79326SOL     OW39751  10.285   0.985  13.155
79326SOL    HW139752  10.218   1.017  13.094
79326SOL    HW239753  10.334   1.064  13.179
79327SOL     OW39754  11.125   1.616   2.627
79327SOL    HW139755  11.130   1.698   2.676
79327SOL    HW239756  11.033   1.607   2.603
79328SOL     OW39757   6.731   4.190  10.290
79328SOL    HW139758   6.812   4.237  10.271
79328SOL    HW239759   6.670   4.257  10.321
79329SOL     OW39760   2.354   9.809   6.356
79329SOL    HW139761   2.319   9.891   6.393
79329SOL    HW239762   2.281   9.748   6.360
79330SOL     OW39763   6.705  10.787   6.238
79330SOL    HW139764   6.721  10.863   6.295
79330SOL    HW239765   6.663  10.723   6.294
79331SOL     OW39766  11.129   8.582  12.215
79331SOL    HW139767  11.192   8.536  12.271
79331SOL    HW239768  11.184   8.628  12.151
79332SOL     OW39769   5.374   7.158   1.300
79332SOL    HW139770   5.286   7.129   1.325
79332SOL    HW239771   5.433   7.095   1.342
79333SOL     OW39772   5.529   6.209   6.228
79333SOL    HW139773   5.527   6.249   6.315
79333SOL    HW239774   5.496   6.120   6.242
79334SOL     OW39775  14.474   1.772  12.917
79334SOL    HW139776  14.476   1.855  12.966
79334SOL    HW239777  14.546   1.780  12.855
79335SOL     OW39778   0.417   5.876  12.551
79335SOL    HW139779   0.352   5.874  12.481
79335SOL    HW239780   0.490   5.824  12.517
79336SOL     OW39781   2.727  14.211   8.809
79336SOL    HW139782   2.779  14.230   8.731
79336SOL    HW239783   2.638  14.198   8.777
79337SOL     OW39784   0.411   7.725   1.006
79337SOL    HW139785   0.363   7.642   1.013
79337SOL    HW239786   0.343   7.790   0.990
79338SOL     OW39787   3.384   3.930  14.780
79338SOL    HW139788   3.369   3.957  14.690
79338SOL    HW239789   3.389   3.834  14.776
79339SOL     OW39790   4.966   6.008   0.941
79339SOL    HW139791   4.878   5.984   0.911
79339SOL    HW239792   5.017   5.928   0.932
79340SOL     OW39793   8.174   4.196   5.050
79340SOL    HW139794   8.122   4.132   5.098
79340SOL    HW239795   8.148   4.186   4.959
79341SOL     OW39796  14.051   3.314  14.523
79341SOL    HW139797  13.964   3.347  14.545
79341SOL    HW239798  14.068   3.348  14.435
79342SOL     OW39799   5.278   1.192   7.498
79342SOL    HW139800   5.270   1.100   7.473
79342SOL    HW239801   5.369   1.214   7.477
79343SOL     OW39802   2.047  10.438  11.860
79343SOL    HW139803   2.136  10.463  11.836
79343SOL    HW239804   2.055  10.350  11.896
79344SOL     OW39805  10.220   0.661   1.266
79344SOL    HW139806  10.237   0.574   1.301
79344SOL    HW239807  10.128   0.678   1.285
79345SOL     OW39808  13.553  11.203   8.051
79345SOL    HW139809  13.511  11.196   7.965
79345SOL    HW239810  13.604  11.284   8.046
79346SOL     OW39811   3.964   3.387   7.582
79346SOL    HW139812   4.032   3.451   7.601
79346SOL    HW239813   3.987   3.353   7.495
79347SOL     OW39814   2.694   2.040   7.298
79347SOL    HW139815   2.727   2.011   7.383
79347SOL    HW239816   2.772   2.062   7.248
79348SOL     OW39817   6.746   6.138   1.181
79348SOL    HW139818   6.805   6.181   1.242
79348SOL    HW239819   6.703   6.210   1.135
79349SOL     OW39820   0.084   9.385   3.053
79349SOL    HW139821   0.136   9.452   3.098
79349SOL    HW239822   0.111   9.302   3.093
79350SOL     OW39823   1.943  10.783   2.307
79350SOL    HW139824   1.959  10.723   2.234
79350SOL    HW239825   1.982  10.739   2.383
79351SOL     OW39826  14.840  14.053   9.871
79351SOL    HW139827   0.003  14.121   9.921
79351SOL    HW239828  14.833  14.088   9.782
79352SOL     OW39829   5.281  13.730   2.924
79352SOL    HW139830   5.265  13.705   2.833
79352SOL    HW239831   5.373  13.710   2.939
79353SOL     OW39832  13.516   6.594  12.933
79353SOL    HW139833  13.589   6.536  12.910
79353SOL    HW239834  13.527   6.669  12.874
79354SOL     OW39835   8.608  10.866   7.395
79354SOL    HW139836   8.596  10.898   7.484
79354SOL    HW239837   8.520  10.840   7.366
79355SOL     OW39838   6.011   7.233   5.582
79355SOL    HW139839   5.952   7.165   5.552
79355SOL    HW239840   5.960   7.285   5.644
79356SOL     OW39841  12.595  13.395   0.699
79356SOL    HW139842  12.563  13.486   0.694
79356SOL    HW239843  12.690  13.403   0.692
79357SOL     OW39844  11.304   0.955  14.266
79357SOL    HW139845  11.248   0.899  14.213
79357SOL    HW239846  11.323   0.903  14.344
79358SOL     OW39847   4.661  12.356   5.700
79358SOL    HW139848   4.681  12.298   5.627
79358SOL    HW239849   4.605  12.304   5.757
79359SOL     OW39850   6.580   4.107  11.447
79359SOL    HW139851   6.517   4.037  11.464
79359SOL    HW239852   6.643   4.068  11.387
79360SOL     OW39853  14.721   9.794  12.399
79360SOL    HW139854  14.758   9.737  12.466
79360SOL    HW239855  14.626   9.785  12.410
79361SOL     OW39856   6.754   9.873   5.209
79361SOL    HW139857   6.806   9.943   5.248
79361SOL    HW239858   6.774   9.876   5.116
79362SOL     OW39859  13.223   5.265   7.363
79362SOL    HW139860  13.278   5.283   7.287
79362SOL    HW239861  13.245   5.334   7.426
79363SOL     OW39862  12.153   8.134   9.845
79363SOL    HW139863  12.094   8.078   9.794
79363SOL    HW239864  12.096   8.201   9.883
79364SOL     OW39865  14.637   5.208   2.630
79364SOL    HW139866  14.660   5.153   2.705
79364SOL    HW239867  14.601   5.147   2.566
79365SOL     OW39868  14.046  14.864  11.532
79365SOL    HW139869  14.040   0.076  11.551
79365SOL    HW239870  13.995  14.852  11.452
79366SOL     OW39871   9.717  10.882   4.143
79366SOL    HW139872   9.659  10.904   4.215
79366SOL    HW239873   9.796  10.849   4.185
79367SOL     OW39874   6.001   6.063   6.532
79367SOL    HW139875   5.919   6.112   6.534
79367SOL    HW239876   6.047   6.091   6.611
79368SOL     OW39877   9.840   7.488   3.758
79368SOL    HW139878   9.844   7.576   3.795
79368SOL    HW239879   9.824   7.502   3.664
79369SOL     OW39880   3.305  11.395   4.634
79369SOL    HW139881   3.218  11.373   4.666
79369SOL    HW239882   3.303  11.489   4.620
79370SOL     OW39883  11.698  12.878  14.721
79370SOL    HW139884  11.770  12.828  14.759
79370SOL    HW239885  11.716  12.877  14.627
79371SOL     OW39886   3.479   3.565  14.040
79371SOL    HW139887   3.407   3.597  13.987
79371SOL    HW239888   3.546   3.634  14.033
79372SOL     OW39889   8.237   8.275  14.708
79372SOL    HW139890   8.288   8.294  14.629
79372SOL    HW239891   8.301   8.251  14.774
79373SOL     OW39892   7.664   1.915   0.146
79373SOL    HW139893   7.756   1.936   0.130
79373SOL    HW239894   7.651   1.832   0.101
79374SOL     OW39895   1.542   8.040  13.865
79374SOL    HW139896   1.456   8.001  13.877
79374SOL    HW239897   1.531   8.132  13.890
79375SOL     OW39898   9.605   9.493   4.808
79375SOL    HW139899   9.575   9.402   4.813
79375SOL    HW239900   9.698   9.486   4.785
79376SOL     OW39901   3.628   6.940  13.395
79376SOL    HW139902   3.708   6.893  13.371
79376SOL    HW239903   3.629   6.941  13.491
79377SOL     OW39904   0.861   5.100   9.114
79377SOL    HW139905   0.915   5.155   9.171
79377SOL    HW239906   0.860   5.014   9.157
79378SOL     OW39907   1.772   2.969   3.751
79378SOL    HW139908   1.810   2.905   3.691
79378SOL    HW239909   1.781   2.929   3.837
79379SOL     OW39910  11.487   2.391   9.603
79379SOL    HW139911  11.404   2.413   9.561
79379SOL    HW239912  11.552   2.401   9.534
79380SOL     OW39913   6.744  10.784   3.064
79380SOL    HW139914   6.710  10.724   2.997
79380SOL    HW239915   6.838  10.765   3.068
79381SOL     OW39916   4.107   8.251   2.235
79381SOL    HW139917   4.053   8.291   2.304
79381SOL    HW239918   4.051   8.183   2.198
79382SOL     OW39919  14.041  13.209   5.055
79382SOL    HW139920  14.094  13.174   4.984
79382SOL    HW239921  14.083  13.293   5.076
79383SOL     OW39922  13.245   6.371   8.125
79383SOL    HW139923  13.209   6.354   8.212
79383SOL    HW239924  13.260   6.465   8.122
79384SOL     OW39925   7.024   9.721  13.889
79384SOL    HW139926   6.999   9.783  13.958
79384SOL    HW239927   6.987   9.758  13.809
79385SOL     OW39928   4.980   1.527   3.315
79385SOL    HW139929   4.948   1.576   3.239
79385SOL    HW239930   5.040   1.462   3.277
79386SOL     OW39931   0.557  14.113   3.663
79386SOL    HW139932   0.495  14.176   3.628
79386SOL    HW239933   0.508  14.031   3.667
79387SOL     OW39934   6.126  12.871   5.390
79387SOL    HW139935   6.210  12.916   5.383
79387SOL    HW239936   6.062  12.938   5.366
79388SOL     OW39937  13.441   6.063  11.326
79388SOL    HW139938  13.443   5.971  11.301
79388SOL    HW239939  13.497   6.107  11.261
79389SOL     OW39940  14.328  13.663   0.149
79389SOL    HW139941  14.380  13.583   0.163
79389SOL    HW239942  14.238  13.636   0.166
79390SOL     OW39943   2.395  12.135   8.389
79390SOL    HW139944   2.357  12.113   8.303
79390SOL    HW239945   2.468  12.193   8.368
79391SOL     OW39946  12.618   8.700  10.971
79391SOL    HW139947  12.587   8.778  11.016
79391SOL    HW239948  12.566   8.629  11.006
79392SOL     OW39949   3.780   7.964   6.284
79392SOL    HW139950   3.799   8.003   6.370
79392SOL    HW239951   3.773   8.040   6.225
79393SOL     OW39952   8.177   2.750   3.742
79393SOL    HW139953   8.194   2.779   3.653
79393SOL    HW239954   8.108   2.684   3.733
79394SOL     OW39955   9.621   3.445  13.681
79394SOL    HW139956   9.580   3.506  13.620
79394SOL    HW239957   9.714   3.448  13.658
79395SOL     OW39958   7.649  13.508   4.233
79395SOL    HW139959   7.611  13.507   4.145
79395SOL    HW239960   7.607  13.434   4.278
79396SOL     OW39961   3.793   0.305  12.826
79396SOL    HW139962   3.727   0.373  12.814
79396SOL    HW239963   3.746   0.232  12.865
79397SOL     OW39964  13.908   1.823  12.795
79397SOL    HW139965  13.875   1.734  12.787
79397SOL    HW239966  13.940   1.829  12.885
79398SOL     OW39967   3.380   7.896  11.579
79398SOL    HW139968   3.326   7.938  11.646
79398SOL    HW239969   3.378   7.803  11.600
79399SOL     OW39970   4.091  11.051  10.424
79399SOL    HW139971   4.100  10.957  10.411
79399SOL    HW239972   4.106  11.064  10.518
79400SOL     OW39973   7.907  12.912   0.767
79400SOL    HW139974   7.863  12.830   0.746
79400SOL    HW239975   7.836  12.977   0.768
79401SOL     OW39976   8.486   7.885   8.472
79401SOL    HW139977   8.534   7.951   8.421
79401SOL    HW239978   8.549   7.855   8.537
79402SOL     OW39979  11.629   0.996  10.770
79402SOL    HW139980  11.648   0.978  10.678
79402SOL    HW239981  11.544   1.041  10.769
79403SOL     OW39982   8.503  14.060  13.915
79403SOL    HW139983   8.465  14.133  13.866
79403SOL    HW239984   8.522  13.993  13.848
79404SOL     OW39985   9.425  14.446  13.193
79404SOL    HW139986   9.506  14.494  13.212
79404SOL    HW239987   9.413  14.388  13.269
79405SOL     OW39988  12.744   3.752   4.516
79405SOL    HW139989  12.714   3.663   4.497
79405SOL    HW239990  12.687   3.808   4.464
79406SOL     OW39991  10.154   0.787   9.928
79406SOL    HW139992  10.144   0.869   9.880
79406SOL    HW239993  10.181   0.815  10.016
79407SOL     OW39994   7.052  13.057  11.981
79407SOL    HW139995   7.032  13.149  12.000
79407SOL    HW239996   7.026  13.045  11.890
79408SOL     OW39997   6.722   2.512   9.919
79408SOL    HW139998   6.725   2.489  10.012
79408SOL    HW239999   6.768   2.441   9.875
79409SOL     OW40000  11.302   2.157  14.071
79409SOL    HW140001  11.376   2.099  14.090
79409SOL    HW240002  11.254   2.162  14.154
79410SOL     OW40003  12.466  10.251  14.411
79410SOL    HW140004  12.401  10.302  14.459
79410SOL    HW240005  12.417  10.213  14.337
79411SOL     OW40006   5.728  12.978  10.336
79411SOL    HW140007   5.633  12.971  10.341
79411SOL    HW240008   5.757  12.975  10.428
79412SOL     OW40009  13.392  10.748  13.695
79412SOL    HW140010  13.335  10.818  13.663
79412SOL    HW240011  13.386  10.753  13.790
79413SOL     OW40012   2.576  10.773  14.305
79413SOL    HW140013   2.655  10.768  14.358
79413SOL    HW240014   2.555  10.682  14.284
79414SOL     OW40015   4.802   8.684   9.630
79414SOL    HW140016   4.858   8.760   9.611
79414SOL    HW240017   4.713   8.717   9.619
79415SOL     OW40018   6.551  11.921   0.429
79415SOL    HW140019   6.583  11.897   0.342
79415SOL    HW240020   6.513  11.840   0.464
79416SOL     OW40021   9.363  12.463   2.086
79416SOL    HW140022   9.270  12.461   2.065
79416SOL    HW240023   9.407  12.451   2.002
79417SOL     OW40024   7.808  14.822  10.207
79417SOL    HW140025   7.868  14.764  10.254
79417SOL    HW240026   7.810  14.791  10.117
79418SOL     OW40027  10.151   8.220  11.876
79418SOL    HW140028  10.200   8.220  11.959
79418SOL    HW240029  10.170   8.135  11.837
79419SOL     OW40030   4.052   5.688   3.152
79419SOL    HW140031   4.092   5.637   3.222
79419SOL    HW240032   3.987   5.629   3.114
79420SOL     OW40033   3.873  13.632  13.521
79420SOL    HW140034   3.963  13.606  13.503
79420SOL    HW240035   3.881  13.709  13.578
79421SOL     OW40036   9.480   5.683   1.070
79421SOL    HW140037   9.401   5.632   1.052
79421SOL    HW240038   9.498   5.730   0.989
79422SOL     OW40039   1.551  12.915   1.017
79422SOL    HW140040   1.627  12.867   1.050
79422SOL    HW240041   1.589  12.988   0.968
79423SOL     OW40042   9.828  13.737  14.652
79423SOL    HW140043   9.775  13.723  14.574
79423SOL    HW240044   9.917  13.714  14.624
79424SOL     OW40045   3.947   0.771   4.515
79424SOL    HW140046   3.961   0.719   4.436
79424SOL    HW240047   4.002   0.849   4.502
79425SOL     OW40048   2.450   5.406  13.208
79425SOL    HW140049   2.395   5.474  13.169
79425SOL    HW240050   2.539   5.442  13.204
79426SOL     OW40051   4.517  11.793   6.331
79426SOL    HW140052   4.483  11.882   6.319
79426SOL    HW240053   4.462  11.756   6.400
79427SOL     OW40054   1.975  12.953  10.268
79427SOL    HW140055   1.906  12.889  10.253
79427SOL    HW240056   1.939  13.036  10.237
79428SOL     OW40057  14.260   0.594   4.940
79428SOL    HW140058  14.232   0.618   4.851
79428SOL    HW240059  14.227   0.665   4.995
79429SOL     OW40060   8.097   3.363  11.505
79429SOL    HW140061   8.127   3.272  11.510
79429SOL    HW240062   8.050   3.377  11.588
79430SOL     OW40063  13.547  13.390   4.832
79430SOL    HW140064  13.580  13.449   4.900
79430SOL    HW240065  13.623  13.369   4.779
79431SOL     OW40066   4.028   4.082   6.923
79431SOL    HW140067   3.950   4.030   6.941
79431SOL    HW240068   4.096   4.045   6.979
79432SOL     OW40069  14.616  14.503   3.014
79432SOL    HW140070  14.628  14.414   3.047
79432SOL    HW240071  14.610  14.557   3.093
79433SOL     OW40072  12.122   3.997   5.371
79433SOL    HW140073  12.136   4.091   5.369
79433SOL    HW240074  12.172   3.967   5.447
79434SOL     OW40075   9.444  13.029   6.022
79434SOL    HW140076   9.530  13.017   5.981
79434SOL    HW240077   9.382  13.025   5.949
79435SOL     OW40078  12.899   2.152  10.645
79435SOL    HW140079  12.938   2.239  10.638
79435SOL    HW240080  12.806   2.166  10.627
79436SOL     OW40081   2.768   1.185  14.667
79436SOL    HW140082   2.848   1.225  14.701
79436SOL    HW240083   2.762   1.100  14.711
79437SOL     OW40084  12.066   3.875  13.957
79437SOL    HW140085  11.979   3.910  13.943
79437SOL    HW240086  12.101   3.861  13.869
79438SOL     OW40087   9.190   7.949  10.503
79438SOL    HW140088   9.178   7.863  10.463
79438SOL    HW240089   9.284   7.968  10.493
79439SOL     OW40090   2.165   1.264   6.612
79439SOL    HW140091   2.184   1.171   6.602
79439SOL    HW240092   2.247   1.303   6.642
79440SOL     OW40093   4.513   4.187   6.976
79440SOL    HW140094   4.557   4.106   7.003
79440SOL    HW240095   4.501   4.177   6.882
79441SOL     OW40096  13.823   2.802   4.476
79441SOL    HW140097  13.884   2.862   4.434
79441SOL    HW240098  13.787   2.851   4.549
79442SOL     OW40099   4.745   3.029   8.086
79442SOL    HW140100   4.701   3.062   8.164
79442SOL    HW240101   4.812   2.969   8.120
79443SOL     OW40102  14.167  12.807  11.483
79443SOL    HW140103  14.174  12.719  11.521
79443SOL    HW240104  14.230  12.859  11.533
79444SOL     OW40105   3.506  10.279  14.859
79444SOL    HW140106   3.427  10.232  14.830
79444SOL    HW240107   3.482  10.316   0.062
79445SOL     OW40108   5.188   3.400  14.849
79445SOL    HW140109   5.136   3.341   0.022
79445SOL    HW240110   5.268   3.415   0.018
79446SOL     OW40111  13.386   2.333   9.526
79446SOL    HW140112  13.439   2.365   9.599
79446SOL    HW240113  13.298   2.365   9.544
79447SOL     OW40114   1.903   3.390   2.884
79447SOL    HW140115   1.841   3.431   2.823
79447SOL    HW240116   1.954   3.330   2.831
79448SOL     OW40117   3.670   9.269  10.631
79448SOL    HW140118   3.747   9.212  10.634
79448SOL    HW240119   3.692   9.343  10.688
79449SOL     OW40120  14.004   9.357   6.700
79449SOL    HW140121  14.052   9.342   6.619
79449SOL    HW240122  13.920   9.314   6.687
79450SOL     OW40123   6.772   1.681  13.872
79450SOL    HW140124   6.703   1.746  13.886
79450SOL    HW240125   6.808   1.703  13.786
79451SOL     OW40126   6.893  12.397  11.691
79451SOL    HW140127   6.936  12.430  11.612
79451SOL    HW240128   6.817  12.349  11.659
79452SOL     OW40129  12.606  11.630  13.146
79452SOL    HW140130  12.574  11.677  13.070
79452SOL    HW240131  12.656  11.557  13.110
79453SOL     OW40132   7.049   4.059   8.594
79453SOL    HW140133   7.105   4.135   8.609
79453SOL    HW240134   7.105   3.997   8.547
79454SOL     OW40135   1.422   1.352  10.135
79454SOL    HW140136   1.351   1.416  10.131
79454SOL    HW240137   1.495   1.394  10.091
79455SOL     OW40138  13.476   2.480   5.867
79455SOL    HW140139  13.388   2.498   5.837
79455SOL    HW240140  13.511   2.417   5.804
79456SOL     OW40141   1.230   2.222   1.415
79456SOL    HW140142   1.164   2.277   1.373
79456SOL    HW240143   1.270   2.279   1.480
79457SOL     OW40144  12.312  12.681  14.593
79457SOL    HW140145  12.404  12.674  14.618
79457SOL    HW240146  12.266  12.699  14.674
79458SOL     OW40147   3.321   1.722   4.487
79458SOL    HW140148   3.344   1.807   4.451
79458SOL    HW240149   3.226   1.715   4.473
79459SOL     OW40150   1.426  14.540   8.076
79459SOL    HW140151   1.496  14.514   8.136
79459SOL    HW240152   1.447  14.631   8.053
79460SOL     OW40153   9.930   2.567   3.914
79460SOL    HW140154   9.987   2.533   3.844
79460SOL    HW240155   9.871   2.495   3.934
79461SOL     OW40156   6.376   1.128   0.681
79461SOL    HW140157   6.463   1.104   0.651
79461SOL    HW240158   6.343   1.049   0.724
79462SOL     OW40159   8.627  11.307  14.576
79462SOL    HW140160   8.668  11.369  14.516
79462SOL    HW240161   8.627  11.352  14.661
79463SOL     OW40162   3.599  14.112  13.401
79463SOL    HW140163   3.609  14.022  13.371
79463SOL    HW240164   3.644  14.114  13.486
79464SOL     OW40165   9.534   9.703   8.621
79464SOL    HW140166   9.519   9.641   8.693
79464SOL    HW240167   9.581   9.652   8.555
79465SOL     OW40168   7.577   2.514   1.334
79465SOL    HW140169   7.552   2.523   1.426
79465SOL    HW240170   7.573   2.420   1.316
79466SOL     OW40171   1.704   8.930   9.166
79466SOL    HW140172   1.653   8.956   9.089
79466SOL    HW240173   1.688   9.000   9.230
79467SOL     OW40174   6.214   7.090   3.081
79467SOL    HW140175   6.148   7.153   3.109
79467SOL    HW240176   6.228   7.035   3.159
79468SOL     OW40177   0.085   7.430  10.230
79468SOL    HW140178   0.176   7.418  10.202
79468SOL    HW240179   0.086   7.508  10.285
79469SOL     OW40180   3.900   4.363   3.397
79469SOL    HW140181   3.904   4.287   3.339
79469SOL    HW240182   3.811   4.361   3.434
79470SOL     OW40183   2.533  12.282   6.117
79470SOL    HW140184   2.538  12.319   6.029
79470SOL    HW240185   2.621  12.290   6.152
79471SOL     OW40186   9.484   8.686  13.676
79471SOL    HW140187   9.398   8.703  13.716
79471SOL    HW240188   9.465   8.668  13.584
79472SOL     OW40189   8.277   9.635   9.142
79472SOL    HW140190   8.240   9.653   9.055
79472SOL    HW240191   8.243   9.704   9.198
79473SOL     OW40192   1.534   8.393   1.167
79473SOL    HW140193   1.607   8.417   1.110
79473SOL    HW240194   1.464   8.369   1.107
79474SOL     OW40195   6.368   8.367   7.075
79474SOL    HW140196   6.341   8.352   7.165
79474SOL    HW240197   6.447   8.420   7.081
79475SOL     OW40198  14.372   2.773   3.306
79475SOL    HW140199  14.406   2.731   3.227
79475SOL    HW240200  14.356   2.864   3.281
79476SOL     OW40201  10.060   7.896   3.221
79476SOL    HW140202  10.028   7.938   3.141
79476SOL    HW240203  10.129   7.954   3.252
79477SOL     OW40204   2.327  10.328   7.790
79477SOL    HW140205   2.265  10.395   7.819
79477SOL    HW240206   2.360  10.361   7.707
79478SOL     OW40207  14.644  10.794   2.344
79478SOL    HW140208  14.679  10.864   2.290
79478SOL    HW240209  14.679  10.812   2.432
79479SOL     OW40210   3.138   9.572   3.806
79479SOL    HW140211   3.224   9.557   3.846
79479SOL    HW240212   3.109   9.486   3.777
79480SOL     OW40213   3.347  14.754   5.556
79480SOL    HW140214   3.279  14.758   5.623
79480SOL    HW240215   3.382  14.665   5.562
79481SOL     OW40216  10.801   8.928   4.450
79481SOL    HW140217  10.857   8.996   4.489
79481SOL    HW240218  10.720   8.974   4.429
79482SOL     OW40219  12.772  13.622   4.427
79482SOL    HW140220  12.862  13.625   4.394
79482SOL    HW240221  12.724  13.683   4.371
79483SOL     OW40222   9.226  10.714   2.553
79483SOL    HW140223   9.188  10.792   2.513
79483SOL    HW240224   9.309  10.701   2.508
79484SOL     OW40225   3.501   1.461   9.123
79484SOL    HW140226   3.575   1.405   9.100
79484SOL    HW240227   3.455   1.475   9.040
79485SOL     OW40228   3.062   7.096   3.887
79485SOL    HW140229   2.981   7.138   3.858
79485SOL    HW240230   3.048   7.003   3.872
79486SOL     OW40231   7.502   2.313  11.440
79486SOL    HW140232   7.502   2.314  11.536
79486SOL    HW240233   7.591   2.337  11.416
79487SOL     OW40234  14.790   7.015   0.656
79487SOL    HW140235  14.791   6.921   0.674
79487SOL    HW240236  14.732   7.051   0.723
79488SOL     OW40237  11.135  10.006   8.771
79488SOL    HW140238  11.120  10.023   8.678
79488SOL    HW240239  11.081  10.071   8.817
79489SOL     OW40240  11.921   9.244   8.124
79489SOL    HW140241  11.919   9.319   8.064
79489SOL    HW240242  11.875   9.175   8.078
79490SOL     OW40243  13.484  13.273  12.058
79490SOL    HW140244  13.445  13.310  11.980
79490SOL    HW240245  13.480  13.178  12.045
79491SOL     OW40246   8.700   2.034   7.039
79491SOL    HW140247   8.715   2.060   7.130
79491SOL    HW240248   8.640   2.100   7.005
79492SOL     OW40249   3.570   6.289   2.883
79492SOL    HW140250   3.519   6.288   2.964
79492SOL    HW240251   3.516   6.338   2.821
79493SOL     OW40252   5.657  11.932   7.332
79493SOL    HW140253   5.605  11.870   7.384
79493SOL    HW240254   5.620  11.926   7.244
79494SOL     OW40255   1.309   1.171  12.116
79494SOL    HW140256   1.240   1.204  12.059
79494SOL    HW240257   1.332   1.085  12.080
79495SOL     OW40258   7.237  14.653   5.243
79495SOL    HW140259   7.169  14.663   5.176
79495SOL    HW240260   7.226  14.563   5.275
79496SOL     OW40261   6.569   2.610   3.305
79496SOL    HW140262   6.651   2.562   3.307
79496SOL    HW240263   6.539   2.610   3.396
79497SOL     OW40264   9.626   9.694   3.296
79497SOL    HW140265   9.590   9.651   3.374
79497SOL    HW240266   9.716   9.714   3.319
79498SOL     OW40267   3.732  14.561  13.700
79498SOL    HW140268   3.646  14.591  13.673
79498SOL    HW240269   3.723  14.544  13.794
79499SOL     OW40270   8.673   3.027  12.325
79499SOL    HW140271   8.656   3.121  12.331
79499SOL    HW240272   8.622   2.998  12.250
79500SOL     OW40273   5.163  10.327   3.929
79500SOL    HW140274   5.226  10.270   3.971
79500SOL    HW240275   5.182  10.414   3.964
79501SOL     OW40276  13.111   3.029   0.139
79501SOL    HW140277  13.153   3.106   0.179
79501SOL    HW240278  13.124   3.041   0.045
79502SOL     OW40279   5.693   4.076  13.555
79502SOL    HW140280   5.653   4.014  13.617
79502SOL    HW240281   5.646   4.062  13.473
79503SOL     OW40282  11.712   0.313   2.609
79503SOL    HW140283  11.754   0.373   2.670
79503SOL    HW240284  11.619   0.316   2.632
79504SOL     OW40285   3.580   5.467  14.384
79504SOL    HW140286   3.494   5.490  14.349
79504SOL    HW240287   3.566   5.382  14.427
79505SOL     OW40288  14.710   4.097  14.693
79505SOL    HW140289  14.672   4.024  14.644
79505SOL    HW240290  14.777   4.056  14.748
79506SOL     OW40291   9.734   8.553  12.822
79506SOL    HW140292   9.747   8.560  12.917
79506SOL    HW240293   9.733   8.458  12.806
79507SOL     OW40294   0.171   8.354   4.972
79507SOL    HW140295   0.218   8.433   4.944
79507SOL    HW240296   0.079   8.374   4.955
79508SOL     OW40297   8.754  13.086   3.504
79508SOL    HW140298   8.815  13.056   3.436
79508SOL    HW240299   8.729  13.174   3.477
79509SOL     OW40300   5.461  12.706   2.997
79509SOL    HW140301   5.550  12.740   2.989
79509SOL    HW240302   5.417  12.768   3.056
79510SOL     OW40303   9.102   2.310   5.954
79510SOL    HW140304   9.063   2.374   5.893
79510SOL    HW240305   9.027   2.271   5.998
79511SOL     OW40306   6.566   1.453   8.553
79511SOL    HW140307   6.537   1.362   8.540
79511SOL    HW240308   6.498   1.491   8.609
79512SOL     OW40309   7.703  14.315   7.075
79512SOL    HW140310   7.764  14.323   7.149
79512SOL    HW240311   7.722  14.390   7.019
79513SOL     OW40312   9.787  13.696   1.569
79513SOL    HW140313   9.807  13.781   1.608
79513SOL    HW240314   9.698  13.677   1.600
79514SOL     OW40315   7.379  10.883  14.554
79514SOL    HW140316   7.339  10.877  14.641
79514SOL    HW240317   7.341  10.809  14.506
79515SOL     OW40318   7.032   1.175   2.568
79515SOL    HW140319   6.955   1.128   2.535
79515SOL    HW240320   7.048   1.137   2.654
79516SOL     OW40321  11.809  11.328   6.600
79516SOL    HW140322  11.793  11.323   6.506
79516SOL    HW240323  11.726  11.356   6.638
79517SOL     OW40324  11.936   8.814  10.100
79517SOL    HW140325  12.017   8.794  10.148
79517SOL    HW240326  11.965   8.836  10.012
79518SOL     OW40327   4.752   9.797   3.957
79518SOL    HW140328   4.844   9.824   3.956
79518SOL    HW240329   4.756   9.701   3.956
79519SOL     OW40330   7.139   7.611   8.472
79519SOL    HW140331   7.184   7.640   8.393
79519SOL    HW240332   7.071   7.552   8.441
79520SOL     OW40333   4.857   1.974   7.266
79520SOL    HW140334   4.802   1.948   7.340
79520SOL    HW240335   4.798   1.973   7.191
79521SOL     OW40336   9.916   7.008   5.671
79521SOL    HW140337   9.831   6.967   5.659
79521SOL    HW240338   9.963   6.993   5.589
79522SOL     OW40339   1.789   3.452   5.406
79522SOL    HW140340   1.809   3.526   5.348
79522SOL    HW240341   1.729   3.397   5.356
79523SOL     OW40342   0.182   1.844   3.198
79523SOL    HW140343   0.193   1.840   3.293
79523SOL    HW240344   0.089   1.860   3.185
79524SOL     OW40345  10.718   0.356   5.676
79524SOL    HW140346  10.635   0.308   5.676
79524SOL    HW240347  10.708   0.419   5.604
79525SOL     OW40348  12.126   6.148  11.465
79525SOL    HW140349  12.193   6.122  11.528
79525SOL    HW240350  12.175   6.168  11.385
79526SOL     OW40351   7.372   0.892   5.248
79526SOL    HW140352   7.415   0.904   5.164
79526SOL    HW240353   7.431   0.835   5.298
79527SOL     OW40354   3.981   6.888  13.625
79527SOL    HW140355   4.047   6.838  13.673
79527SOL    HW240356   3.949   6.953  13.687
79528SOL     OW40357   4.961   1.679   9.506
79528SOL    HW140358   5.053   1.653   9.514
79528SOL    HW240359   4.961   1.745   9.436
79529SOL     OW40360  11.638  10.459   0.848
79529SOL    HW140361  11.554  10.477   0.805
79529SOL    HW240362  11.696  10.527   0.815
79530SOL     OW40363   4.985   9.943   3.921
79530SOL    HW140364   4.930  10.020   3.938
79530SOL    HW240365   5.075   9.975   3.931
79531SOL     OW40366  14.019   3.890   4.659
79531SOL    HW140367  13.992   3.935   4.739
79531SOL    HW240368  14.114   3.905   4.654
79532SOL     OW40369  11.205   2.261  11.373
79532SOL    HW140370  11.238   2.220  11.453
79532SOL    HW240371  11.214   2.194  11.305
79533SOL     OW40372   5.061  11.228   9.903
79533SOL    HW140373   4.966  11.230   9.906
79533SOL    HW240374   5.087  11.178   9.980
79534SOL     OW40375   7.547   8.416   5.262
79534SOL    HW140376   7.555   8.404   5.167
79534SOL    HW240377   7.464   8.374   5.284
79535SOL     OW40378  10.986   4.251  11.518
79535SOL    HW140379  11.004   4.157  11.521
79535SOL    HW240380  11.046   4.289  11.582
79536SOL     OW40381   6.236   9.828   2.706
79536SOL    HW140382   6.330   9.816   2.694
79536SOL    HW240383   6.198   9.814   2.619
79537SOL     OW40384   3.962   9.608   2.884
79537SOL    HW140385   3.884   9.553   2.891
79537SOL    HW240386   3.999   9.608   2.973
79538SOL     OW40387  10.891   0.512  14.311
79538SOL    HW140388  10.835   0.586  14.336
79538SOL    HW240389  10.839   0.434  14.332
79539SOL     OW40390   5.042  11.437   8.067
79539SOL    HW140391   5.073  11.346   8.066
79539SOL    HW240392   5.121  11.489   8.053
79540SOL     OW40393   7.046   2.662  11.378
79540SOL    HW140394   7.114   2.730  11.379
79540SOL    HW240395   6.964   2.711  11.376
79541SOL     OW40396   1.113  10.710   5.529
79541SOL    HW140397   1.047  10.665   5.581
79541SOL    HW240398   1.195  10.698   5.577
79542SOL     OW40399  14.049  11.094   9.304
79542SOL    HW140400  13.976  11.153   9.291
79542SOL    HW240401  14.120  11.150   9.337
79543SOL     OW40402   2.037   7.665   1.143
79543SOL    HW140403   1.996   7.608   1.208
79543SOL    HW240404   1.968   7.684   1.080
79544SOL     OW40405   8.863   4.702   3.612
79544SOL    HW140406   8.935   4.697   3.550
79544SOL    HW240407   8.791   4.655   3.570
79545SOL     OW40408   9.968   9.459  10.200
79545SOL    HW140409   9.894   9.399  10.208
79545SOL    HW240410  10.036   9.407  10.158
79546SOL     OW40411   1.200   7.905  14.678
79546SOL    HW140412   1.248   7.853  14.742
79546SOL    HW240413   1.109   7.900  14.707
79547SOL     OW40414   4.066  14.199   7.489
79547SOL    HW140415   4.065  14.179   7.582
79547SOL    HW240416   4.014  14.279   7.481
79548SOL     OW40417   0.886   8.484   0.788
79548SOL    HW140418   0.892   8.437   0.872
79548SOL    HW240419   0.918   8.421   0.723
79549SOL     OW40420  13.320   8.054  12.097
79549SOL    HW140421  13.249   8.091  12.044
79549SOL    HW240422  13.299   7.961  12.104
79550SOL     OW40423  13.967   5.815   2.487
79550SOL    HW140424  14.061   5.799   2.473
79550SOL    HW240425  13.924   5.743   2.441
79551SOL     OW40426   7.245  14.759   3.949
79551SOL    HW140427   7.205  14.833   3.904
79551SOL    HW240428   7.195  14.751   4.031
79552SOL     OW40429  14.650   4.141   8.418
79552SOL    HW140430  14.678   4.218   8.368
79552SOL    HW240431  14.731   4.102   8.448
79553SOL     OW40432   9.531   9.100  13.387
79553SOL    HW140433   9.521   9.133  13.297
79553SOL    HW240434   9.553   9.007  13.376
79554SOL     OW40435  13.181   1.144   0.444
79554SOL    HW140436  13.184   1.213   0.377
79554SOL    HW240437  13.117   1.176   0.508
79555SOL     OW40438  12.960   3.393   4.496
79555SOL    HW140439  13.029   3.338   4.458
79555SOL    HW240440  12.954   3.364   4.587
79556SOL     OW40441   8.348  11.947   3.166
79556SOL    HW140442   8.277  11.998   3.128
79556SOL    HW240443   8.357  11.872   3.108
79557SOL     OW40444   6.491   2.877  14.689
79557SOL    HW140445   6.403   2.861  14.657
79557SOL    HW240446   6.537   2.917  14.615
79558SOL     OW40447   3.245   7.002   7.194
79558SOL    HW140448   3.286   7.065   7.135
79558SOL    HW240449   3.297   7.005   7.274
79559SOL     OW40450  11.862   8.117   9.756
79559SOL    HW140451  11.833   8.194   9.706
79559SOL    HW240452  11.823   8.129   9.842
79560SOL     OW40453  11.626  13.580   0.442
79560SOL    HW140454  11.596  13.512   0.503
79560SOL    HW240455  11.559  13.581   0.373
79561SOL     OW40456   9.122  13.951   6.552
79561SOL    HW140457   9.151  13.860   6.553
79561SOL    HW240458   9.175  13.994   6.619
79562SOL     OW40459   2.770   4.843   9.801
79562SOL    HW140460   2.721   4.773   9.757
79562SOL    HW240461   2.777   4.912   9.735
79563SOL     OW40462   5.943   3.536   4.778
79563SOL    HW140463   5.906   3.480   4.846
79563SOL    HW240464   5.943   3.624   4.817
79564SOL     OW40465   1.284   3.660   5.071
79564SOL    HW140466   1.364   3.690   5.028
79564SOL    HW240467   1.277   3.567   5.049
79565SOL     OW40468   7.224  11.058   8.917
79565SOL    HW140469   7.221  10.965   8.894
79565SOL    HW240470   7.199  11.061   9.009
79566SOL     OW40471  12.059   8.062   7.899
79566SOL    HW140472  12.005   8.066   7.820
79566SOL    HW240473  12.050   7.971   7.929
79567SOL     OW40474   5.087   1.617   8.889
79567SOL    HW140475   5.067   1.575   8.973
79567SOL    HW240476   5.011   1.673   8.872
79568SOL     OW40477  10.293  10.511  14.009
79568SOL    HW140478  10.341  10.543  13.933
79568SOL    HW240479  10.330  10.424  14.026
79569SOL     OW40480  13.639   2.669   7.982
79569SOL    HW140481  13.676   2.606   7.920
79569SOL    HW240482  13.707   2.736   7.993
79570SOL     OW40483  10.634   6.435  14.327
79570SOL    HW140484  10.666   6.408  14.413
79570SOL    HW240485  10.696   6.502  14.298
79571SOL     OW40486  12.594   0.440  14.146
79571SOL    HW140487  12.628   0.520  14.105
79571SOL    HW240488  12.671   0.384  14.157
79572SOL     OW40489  10.177   6.668   6.938
79572SOL    HW140490  10.110   6.718   6.984
79572SOL    HW240491  10.234   6.635   7.008
79573SOL     OW40492   8.078  13.922  13.787
79573SOL    HW140493   8.149  13.983  13.765
79573SOL    HW240494   8.071  13.866  13.710
79574SOL     OW40495   1.210   1.162   1.897
79574SOL    HW140496   1.194   1.069   1.881
79574SOL    HW240497   1.252   1.193   1.816
79575SOL     OW40498   2.541   9.822   6.995
79575SOL    HW140499   2.565   9.803   6.904
79575SOL    HW240500   2.544   9.738   7.039
79576SOL     OW40501  14.342  11.563   5.220
79576SOL    HW140502  14.424  11.560   5.269
79576SOL    HW240503  14.366  11.602   5.136
79577SOL     OW40504   6.945  13.609   0.520
79577SOL    HW140505   6.947  13.553   0.598
79577SOL    HW240506   6.874  13.671   0.537
79578SOL     OW40507   8.110   8.823   8.864
79578SOL    HW140508   8.090   8.849   8.954
79578SOL    HW240509   8.069   8.891   8.811
79579SOL     OW40510   4.092   8.079  10.909
79579SOL    HW140511   4.186   8.096  10.915
79579SOL    HW240512   4.062   8.081  11.000
79580SOL     OW40513   8.391   5.177  11.682
79580SOL    HW140514   8.299   5.195  11.665
79580SOL    HW240515   8.393   5.084  11.708
79581SOL     OW40516   2.015   0.902   8.478
79581SOL    HW140517   1.986   0.812   8.468
79581SOL    HW240518   2.067   0.919   8.399
79582SOL     OW40519   4.430   0.367  10.115
79582SOL    HW140520   4.438   0.462  10.115
79582SOL    HW240521   4.503   0.337  10.061
79583SOL     OW40522   7.759   6.635   0.549
79583SOL    HW140523   7.839   6.687   0.547
79583SOL    HW240524   7.754   6.602   0.639
79584SOL     OW40525  14.758   7.719   1.122
79584SOL    HW140526  14.685   7.747   1.177
79584SOL    HW240527  14.721   7.709   1.034
79585SOL     OW40528   8.089   7.508   0.512
79585SOL    HW140529   8.121   7.584   0.465
79585SOL    HW240530   8.150   7.438   0.489
79586SOL     OW40531   7.819  14.046   2.750
79586SOL    HW140532   7.855  14.008   2.671
79586SOL    HW240533   7.777  14.126   2.721
79587SOL     OW40534   1.869  13.505   3.190
79587SOL    HW140535   1.822  13.469   3.265
79587SOL    HW240536   1.813  13.576   3.159
79588SOL     OW40537   0.973   9.257  14.170
79588SOL    HW140538   1.055   9.286  14.209
79588SOL    HW240539   0.915   9.242  14.245
79589SOL     OW40540  14.514   0.379   8.111
79589SOL    HW140541  14.499   0.437   8.036
79589SOL    HW240542  14.487   0.430   8.187
79590SOL     OW40543  12.666   2.303  12.104
79590SOL    HW140544  12.685   2.256  12.023
79590SOL    HW240545  12.578   2.275  12.128
79591SOL     OW40546   1.400  11.533   3.473
79591SOL    HW140547   1.438  11.572   3.395
79591SOL    HW240548   1.313  11.504   3.447
79592SOL     OW40549   9.856   0.199   2.206
79592SOL    HW140550   9.890   0.277   2.250
79592SOL    HW240551   9.928   0.172   2.148
79593SOL     OW40552   7.386   5.180   8.865
79593SOL    HW140553   7.361   5.088   8.872
79593SOL    HW240554   7.464   5.188   8.920
79594SOL     OW40555   5.026   7.116  12.067
79594SOL    HW140556   4.992   7.179  12.131
79594SOL    HW240557   5.085   7.060  12.117
79595SOL     OW40558   3.106   0.309   3.553
79595SOL    HW140559   3.135   0.225   3.590
79595SOL    HW240560   3.010   0.304   3.555
79596SOL     OW40561   0.291   1.755  12.014
79596SOL    HW140562   0.321   1.746  12.105
79596SOL    HW240563   0.279   1.665  11.984
79597SOL     OW40564   5.603   2.609  13.999
79597SOL    HW140565   5.596   2.594  14.094
79597SOL    HW240566   5.609   2.704  13.990
79598SOL     OW40567   0.692   4.397   6.429
79598SOL    HW140568   0.757   4.368   6.365
79598SOL    HW240569   0.622   4.332   6.423
79599SOL     OW40570   9.324  13.517  11.730
79599SOL    HW140571   9.264  13.443  11.724
79599SOL    HW240572   9.409  13.482  11.703
79600SOL     OW40573   8.768   5.340   0.533
79600SOL    HW140574   8.830   5.278   0.495
79600SOL    HW240575   8.818   5.386   0.600
79601SOL     OW40576  13.607  13.814   3.963
79601SOL    HW140577  13.569  13.891   4.005
79601SOL    HW240578  13.701  13.831   3.963
79602SOL     OW40579   6.011   2.836  13.121
79602SOL    HW140580   5.933   2.891  13.126
79602SOL    HW240581   6.035   2.820  13.212
79603SOL     OW40582   9.437   6.984   9.027
79603SOL    HW140583   9.499   6.928   8.981
79603SOL    HW240584   9.444   6.957   9.119
79604SOL     OW40585  12.783   7.785   4.171
79604SOL    HW140586  12.802   7.814   4.081
79604SOL    HW240587  12.849   7.828   4.224
79605SOL     OW40588  14.130  14.718   4.943
79605SOL    HW140589  14.184  14.678   4.874
79605SOL    HW240590  14.042  14.723   4.904
79606SOL     OW40591   2.015   4.316   8.350
79606SOL    HW140592   1.925   4.286   8.336
79606SOL    HW240593   2.054   4.316   8.262
79607SOL     OW40594   5.187   0.041  10.498
79607SOL    HW140595   5.155  14.872  10.572
79607SOL    HW240596   5.201   0.129  10.533
79608SOL     OW40597  14.067  14.041   7.535
79608SOL    HW140598  13.995  14.067   7.477
79608SOL    HW240599  14.059  13.946   7.540
79609SOL     OW40600   8.561  11.913   0.645
79609SOL    HW140601   8.523  11.958   0.570
79609SOL    HW240602   8.632  11.970   0.674
79610SOL     OW40603   4.828   2.945   6.832
79610SOL    HW140604   4.847   3.024   6.781
79610SOL    HW240605   4.775   2.977   6.906
79611SOL     OW40606   9.736  13.594  14.361
79611SOL    HW140607   9.706  13.680  14.332
79611SOL    HW240608   9.666  13.534  14.336
79612SOL     OW40609   8.604   5.157   9.327
79612SOL    HW140610   8.552   5.077   9.328
79612SOL    HW240611   8.547   5.223   9.366
79613SOL     OW40612  13.304   7.486   8.615
79613SOL    HW140613  13.254   7.409   8.642
79613SOL    HW240614  13.286   7.551   8.682
79614SOL     OW40615   8.973   8.102  14.281
79614SOL    HW140616   8.979   8.198  14.288
79614SOL    HW240617   9.039   8.069  14.342
79615SOL     OW40618  12.162   2.016   7.133
79615SOL    HW140619  12.107   2.085   7.169
79615SOL    HW240620  12.229   2.062   7.083
79616SOL     OW40621   3.301  10.070   7.496
79616SOL    HW140622   3.255  10.023   7.427
79616SOL    HW240623   3.394  10.049   7.483
79617SOL     OW40624  12.101   5.949   0.013
79617SOL    HW140625  12.142   6.026   0.053
79617SOL    HW240626  12.101   5.967  14.800
79618SOL     OW40627  11.274  14.593  13.182
79618SOL    HW140628  11.232  14.651  13.119
79618SOL    HW240629  11.298  14.515  13.131
79619SOL     OW40630   2.629   9.648   9.293
79619SOL    HW140631   2.690   9.584   9.329
79619SOL    HW240632   2.580   9.599   9.227
79620SOL     OW40633   5.609  13.852  10.621
79620SOL    HW140634   5.638  13.774  10.669
79620SOL    HW240635   5.620  13.923  10.684
79621SOL     OW40636   3.416   0.468   2.024
79621SOL    HW140637   3.409   0.539   2.088
79621SOL    HW240638   3.363   0.497   1.950
79622SOL     OW40639  14.465   5.734  14.570
79622SOL    HW140640  14.519   5.804  14.533
79622SOL    HW240641  14.377   5.770  14.572
79623SOL     OW40642   2.932  14.041   8.151
79623SOL    HW140643   3.007  14.027   8.210
79623SOL    HW240644   2.857  14.009   8.200
79624SOL     OW40645  10.959  10.050  13.378
79624SOL    HW140646  10.967  10.121  13.314
79624SOL    HW240647  11.030   9.990  13.357
79625SOL     OW40648   3.164   3.047   0.098
79625SOL    HW140649   3.099   2.989   0.136
79625SOL    HW240650   3.199   2.999   0.023
79626SOL     OW40651   6.660   9.237   4.603
79626SOL    HW140652   6.743   9.268   4.566
79626SOL    HW240653   6.606   9.316   4.609
79627SOL     OW40654   6.862   1.037   9.148
79627SOL    HW140655   6.815   0.983   9.084
79627SOL    HW240656   6.792   1.078   9.200
79628SOL     OW40657   0.157  12.998  12.382
79628SOL    HW140658   0.070  13.019  12.417
79628SOL    HW240659   0.210  13.075  12.403
79629SOL     OW40660   1.236  14.175   1.876
79629SOL    HW140661   1.221  14.106   1.811
79629SOL    HW240662   1.151  14.217   1.887
79630SOL     OW40663   8.224  12.453  10.553
79630SOL    HW140664   8.310  12.473  10.517
79630SOL    HW240665   8.228  12.480  10.644
79631SOL     OW40666  12.798   3.110  10.475
79631SOL    HW140667  12.847   3.044  10.427
79631SOL    HW240668  12.825   3.099  10.566
79632SOL     OW40669   5.175   1.098  13.562
79632SOL    HW140670   5.190   1.138  13.476
79632SOL    HW240671   5.226   1.152  13.623
79633SOL     OW40672  13.484  12.330   1.176
79633SOL    HW140673  13.444  12.282   1.248
79633SOL    HW240674  13.435  12.301   1.098
79634SOL     OW40675   0.425   3.302   1.840
79634SOL    HW140676   0.377   3.252   1.773
79634SOL    HW240677   0.392   3.391   1.831
79635SOL     OW40678   8.580   0.323  14.473
79635SOL    HW140679   8.532   0.288  14.548
79635SOL    HW240680   8.622   0.246  14.433
79636SOL     OW40681   8.805   5.844  12.289
79636SOL    HW140682   8.842   5.874  12.206
79636SOL    HW240683   8.714   5.873  12.287
79637SOL     OW40684  10.862   3.613  11.006
79637SOL    HW140685  10.955   3.611  10.985
79637SOL    HW240686  10.824   3.545  10.951
79638SOL     OW40687   7.568   5.139  12.178
79638SOL    HW140688   7.571   5.183  12.263
79638SOL    HW240689   7.520   5.058  12.195
79639SOL     OW40690   5.090   0.281   0.421
79639SOL    HW140691   5.146   0.264   0.497
79639SOL    HW240692   5.023   0.213   0.426
79640SOL     OW40693   2.564   0.794   9.260
79640SOL    HW140694   2.588   0.778   9.169
79640SOL    HW240695   2.647   0.789   9.307
79641SOL     OW40696  14.278  12.924  14.834
79641SOL    HW140697  14.232  12.893   0.030
79641SOL    HW240698  14.329  12.849  14.805
79642SOL     OW40699   9.928   1.316  14.641
79642SOL    HW140700   9.834   1.331  14.651
79642SOL    HW240701   9.965   1.402  14.621
79643SOL     OW40702  14.398   2.252  13.079
79643SOL    HW140703  14.448   2.267  13.000
79643SOL    HW240704  14.409   2.159  13.098
79644SOL     OW40705   5.480   8.283   9.971
79644SOL    HW140706   5.450   8.353   9.912
79644SOL    HW240707   5.557   8.320  10.015
79645SOL     OW40708   3.325   1.672   7.770
79645SOL    HW140709   3.386   1.621   7.824
79645SOL    HW240710   3.296   1.610   7.703
79646SOL     OW40711   9.932   7.384  10.266
79646SOL    HW140712   9.857   7.442  10.276
79646SOL    HW240713   9.932   7.331  10.345
79647SOL     OW40714   1.927   1.624   4.736
79647SOL    HW140715   1.937   1.537   4.699
79647SOL    HW240716   2.007   1.638   4.787
79648SOL     OW40717  10.278   2.472   9.045
79648SOL    HW140718  10.363   2.428   9.051
79648SOL    HW240719  10.294   2.547   8.989
79649SOL     OW40720   9.833   5.691   4.533
79649SOL    HW140721   9.771   5.723   4.467
79649SOL    HW240722   9.855   5.602   4.504
79650SOL     OW40723   1.387  12.491  10.072
79650SOL    HW140724   1.431  12.420  10.118
79650SOL    HW240725   1.448  12.564  10.077
79651SOL     OW40726  12.924  12.753  10.977
79651SOL    HW140727  13.017  12.744  10.999
79651SOL    HW240728  12.901  12.841  11.005
79652SOL     OW40729  12.327   1.097   2.165
79652SOL    HW140730  12.245   1.067   2.206
79652SOL    HW240731  12.395   1.050   2.213
79653SOL     OW40732   5.433   6.932   7.774
79653SOL    HW140733   5.445   6.848   7.732
79653SOL    HW240734   5.518   6.951   7.815
79654SOL     OW40735   3.776   2.704   7.902
79654SOL    HW140736   3.745   2.759   7.831
79654SOL    HW240737   3.864   2.677   7.875
79655SOL     OW40738   5.702   3.101  12.846
79655SOL    HW140739   5.654   3.168  12.896
79655SOL    HW240740   5.716   3.141  12.760
79656SOL     OW40741   5.446   5.866  10.195
79656SOL    HW140742   5.427   5.946  10.244
79656SOL    HW240743   5.504   5.816  10.253
79657SOL     OW40744   0.165  14.197  10.831
79657SOL    HW140745   0.188  14.218  10.921
79657SOL    HW240746   0.238  14.233  10.779
79658SOL     OW40747   5.332  12.731   1.820
79658SOL    HW140748   5.292  12.701   1.901
79658SOL    HW240749   5.265  12.784   1.777
79659SOL     OW40750  13.105  12.402  13.957
79659SOL    HW140751  13.164  12.370  13.889
79659SOL    HW240752  13.107  12.335  14.025
79660SOL     OW40753   5.944  11.101   0.429
79660SOL    HW140754   5.979  11.132   0.513
79660SOL    HW240755   5.986  11.016   0.416
79661SOL     OW40756   5.993   6.086   9.974
79661SOL    HW140757   5.942   6.121   9.901
79661SOL    HW240758   5.938   6.016  10.009
79662SOL     OW40759   7.380  12.110   0.159
79662SOL    HW140760   7.298  12.116   0.210
79662SOL    HW240761   7.435  12.050   0.210
79663SOL     OW40762  13.714  11.158  13.284
79663SOL    HW140763  13.676  11.092  13.342
79663SOL    HW240764  13.687  11.130  13.196
79664SOL     OW40765   8.199  10.020   1.382
79664SOL    HW140766   8.187  10.105   1.340
79664SOL    HW240767   8.235   9.964   1.313
79665SOL     OW40768   7.087  11.549   3.278
79665SOL    HW140769   7.180  11.549   3.255
79665SOL    HW240770   7.072  11.634   3.318
79666SOL     OW40771   7.966   8.275   9.177
79666SOL    HW140772   7.958   8.299   9.085
79666SOL    HW240773   8.057   8.245   9.186
79667SOL     OW40774  13.387  10.841   8.080
79667SOL    HW140775  13.403  10.776   8.148
79667SOL    HW240776  13.293  10.832   8.061
79668SOL     OW40777  12.540   8.868   5.814
79668SOL    HW140778  12.605   8.814   5.861
79668SOL    HW240779  12.587   8.900   5.737
79669SOL     OW40780   9.219   5.031   7.716
79669SOL    HW140781   9.304   4.996   7.691
79669SOL    HW240782   9.237   5.123   7.739
79670SOL     OW40783   2.095   0.660  10.111
79670SOL    HW140784   2.167   0.622  10.163
79670SOL    HW240785   2.080   0.745  10.151
79671SOL     OW40786   0.366   3.171   3.080
79671SOL    HW140787   0.302   3.242   3.076
79671SOL    HW240788   0.404   3.177   3.167
79672SOL     OW40789   5.144   1.324   4.260
79672SOL    HW140790   5.134   1.336   4.354
79672SOL    HW240791   5.131   1.231   4.246
79673SOL     OW40792   1.161  11.472   3.311
79673SOL    HW140793   1.123  11.386   3.330
79673SOL    HW240794   1.226  11.455   3.242
79674SOL     OW40795   2.269   1.220   5.391
79674SOL    HW140796   2.355   1.236   5.432
79674SOL    HW240797   2.249   1.303   5.347
79675SOL     OW40798   4.137   6.362   7.673
79675SOL    HW140799   4.130   6.452   7.703
79675SOL    HW240800   4.053   6.344   7.631
79676SOL     OW40801   8.742   5.530  14.294
79676SOL    HW140802   8.783   5.595  14.238
79676SOL    HW240803   8.747   5.566  14.382
79677SOL     OW40804   9.757   2.331   1.455
79677SOL    HW140805   9.826   2.282   1.499
79677SOL    HW240806   9.802   2.401   1.408
79678SOL     OW40807  10.025   6.025   7.478
79678SOL    HW140808   9.960   5.961   7.450
79678SOL    HW240809  10.091   6.026   7.408
79679SOL     OW40810   0.284  13.949   4.041
79679SOL    HW140811   0.341  13.888   4.087
79679SOL    HW240812   0.311  14.035   4.072
79680SOL     OW40813  12.835   7.627   0.219
79680SOL    HW140814  12.792   7.593   0.140
79680SOL    HW240815  12.921   7.587   0.219
79681SOL     OW40816   6.769  13.334   1.897
79681SOL    HW140817   6.837  13.304   1.958
79681SOL    HW240818   6.749  13.257   1.844
79682SOL     OW40819   8.337  11.890   1.846
79682SOL    HW140820   8.393  11.860   1.774
79682SOL    HW240821   8.267  11.940   1.802
79683SOL     OW40822  11.771   4.119   6.302
79683SOL    HW140823  11.827   4.064   6.356
79683SOL    HW240824  11.740   4.062   6.232
79684SOL     OW40825   6.440   7.791   5.874
79684SOL    HW140826   6.485   7.836   5.945
79684SOL    HW240827   6.396   7.717   5.916
79685SOL     OW40828   7.333  13.996   7.460
79685SOL    HW140829   7.373  14.077   7.430
79685SOL    HW240830   7.364  13.985   7.550
79686SOL     OW40831   4.543  10.567   9.999
79686SOL    HW140832   4.589  10.650  10.004
79686SOL    HW240833   4.604  10.508   9.954
79687SOL     OW40834   7.408   9.346  12.802
79687SOL    HW140835   7.433   9.436  12.824
79687SOL    HW240836   7.433   9.336  12.710
79688SOL     OW40837  12.206   5.929   3.322
79688SOL    HW140838  12.183   5.956   3.233
79688SOL    HW240839  12.152   5.851   3.339
79689SOL     OW40840   0.812   5.438   0.353
79689SOL    HW140841   0.838   5.394   0.434
79689SOL    HW240842   0.773   5.370   0.299
79690SOL     OW40843   0.437   4.449  12.788
79690SOL    HW140844   0.455   4.358  12.812
79690SOL    HW240845   0.422   4.493  12.871
79691SOL     OW40846  12.952  14.187   0.015
79691SOL    HW140847  12.977  14.111  14.844
79691SOL    HW240848  12.964  14.262  14.838
79692SOL     OW40849  10.861   7.328   8.395
79692SOL    HW140850  10.790   7.369   8.345
79692SOL    HW240851  10.874   7.386   8.471
79693SOL     OW40852  13.687   4.014   1.374
79693SOL    HW140853  13.765   3.999   1.321
79693SOL    HW240854  13.627   3.943   1.350
79694SOL     OW40855   5.334  14.556  12.691
79694SOL    HW140856   5.385  14.575  12.613
79694SOL    HW240857   5.392  14.578  12.764
79695SOL     OW40858   9.090   8.429  13.193
79695SOL    HW140859   9.089   8.394  13.104
79695SOL    HW240860   9.182   8.450  13.210
79696SOL     OW40861   4.242  13.664  12.110
79696SOL    HW140862   4.283  13.597  12.055
79696SOL    HW240863   4.289  13.745  12.089
79697SOL     OW40864   8.329  10.019  12.917
79697SOL    HW140865   8.323  10.054  13.006
79697SOL    HW240866   8.258  10.062  12.869
79698SOL     OW40867   9.522  11.222  10.173
79698SOL    HW140868   9.503  11.160  10.103
79698SOL    HW240869   9.544  11.303  10.127
79699SOL     OW40870  10.745  10.133   0.567
79699SOL    HW140871  10.747  10.116   0.661
79699SOL    HW240872  10.807  10.205   0.554
79700SOL     OW40873   7.386   4.857   0.163
79700SOL    HW140874   7.297   4.834   0.190
79700SOL    HW240875   7.387   4.953   0.163
79701SOL     OW40876  13.979   4.612   4.523
79701SOL    HW140877  13.929   4.541   4.564
79701SOL    HW240878  13.984   4.679   4.590
79702SOL     OW40879   7.805  10.212   0.010
79702SOL    HW140880   7.767  10.167  14.816
79702SOL    HW240881   7.899  10.217  14.872
79703SOL     OW40882   9.029   2.168   7.469
79703SOL    HW140883   9.047   2.217   7.548
79703SOL    HW240884   9.116   2.144   7.436
79704SOL     OW40885   6.460   5.260   9.073
79704SOL    HW140886   6.505   5.181   9.043
79704SOL    HW240887   6.419   5.234   9.156
79705SOL     OW40888   0.649  12.254   6.476
79705SOL    HW140889   0.593  12.229   6.549
79705SOL    HW240890   0.637  12.184   6.412
79706SOL     OW40891   5.488  14.413  13.259
79706SOL    HW140892   5.510  14.349  13.327
79706SOL    HW240893   5.402  14.447  13.284
79707SOL     OW40894   7.411  10.379   6.429
79707SOL    HW140895   7.463  10.433   6.489
79707SOL    HW240896   7.404  10.432   6.350
79708SOL     OW40897  14.773  14.509   3.817
79708SOL    HW140898  14.698  14.505   3.758
79708SOL    HW240899  14.815  14.593   3.799
79709SOL     OW40900   7.111   2.562   2.002
79709SOL    HW140901   7.125   2.657   2.003
79709SOL    HW240902   7.036   2.548   2.060
79710SOL     OW40903   0.271   5.111  13.127
79710SOL    HW140904   0.252   5.205  13.138
79710SOL    HW240905   0.197   5.067  13.169
79711SOL     OW40906  10.493  13.927   6.615
79711SOL    HW140907  10.503  13.966   6.702
79711SOL    HW240908  10.470  14.000   6.558
79712SOL     OW40909   3.806  14.733  10.561
79712SOL    HW140910   3.824  14.644  10.530
79712SOL    HW240911   3.712  14.734  10.577
79713SOL     OW40912   6.620  10.669   3.724
79713SOL    HW140913   6.532  10.668   3.686
79713SOL    HW240914   6.662  10.745   3.684
79714SOL     OW40915   7.560   7.252   5.049
79714SOL    HW140916   7.569   7.347   5.045
79714SOL    HW240917   7.642   7.218   5.013
79715SOL     OW40918  12.739   3.747   8.981
79715SOL    HW140919  12.819   3.728   8.932
79715SOL    HW240920  12.701   3.661   8.998
79716SOL     OW40921   8.129   6.107   5.887
79716SOL    HW140922   8.187   6.111   5.811
79716SOL    HW240923   8.169   6.042   5.945
79717SOL     OW40924   8.568  13.776   5.690
79717SOL    HW140925   8.524  13.691   5.684
79717SOL    HW240926   8.607  13.776   5.777
79718SOL     OW40927  11.074   4.306  14.195
79718SOL    HW140928  11.025   4.349  14.125
79718SOL    HW240929  11.067   4.213  14.176
79719SOL     OW40930  12.385  12.140   5.029
79719SOL    HW140931  12.327  12.213   5.007
79719SOL    HW240932  12.350  12.066   4.979
79720SOL     OW40933   8.992   0.905   5.472
79720SOL    HW140934   8.989   0.951   5.387
79720SOL    HW240935   9.072   0.853   5.468
79721SOL     OW40936  12.322  11.714   6.927
79721SOL    HW140937  12.326  11.709   7.023
79721SOL    HW240938  12.362  11.798   6.905
79722SOL     OW40939   9.904   6.622  12.315
79722SOL    HW140940   9.888   6.712  12.284
79722SOL    HW240941   9.855   6.567  12.254
79723SOL     OW40942   3.171   6.217  11.145
79723SOL    HW140943   3.084   6.246  11.172
79723SOL    HW240944   3.206   6.289  11.093
79724SOL     OW40945  10.286  11.763   4.813
79724SOL    HW140946  10.346  11.836   4.831
79724SOL    HW240947  10.284  11.714   4.895
79725SOL     OW40948   5.482   8.096   4.763
79725SOL    HW140949   5.533   8.111   4.684
79725SOL    HW240950   5.528   8.146   4.831
79726SOL     OW40951   7.162   9.295   5.633
79726SOL    HW140952   7.133   9.381   5.666
79726SOL    HW240953   7.178   9.310   5.540
79727SOL     OW40954   5.950   4.971   3.666
79727SOL    HW140955   5.957   5.023   3.746
79727SOL    HW240956   5.916   4.886   3.696
79728SOL     OW40957   4.263  14.645  13.804
79728SOL    HW140958   4.171  14.624  13.818
79728SOL    HW240959   4.310  14.583  13.858
79729SOL     OW40960  14.717  11.376   8.850
79729SOL    HW140961  14.682  11.448   8.903
79729SOL    HW240962  14.722  11.302   8.911
79730SOL     OW40963   0.830   3.781  10.895
79730SOL    HW140964   0.741   3.799  10.868
79730SOL    HW240965   0.826   3.777  10.991
79731SOL     OW40966   2.977   9.983   6.290
79731SOL    HW140967   2.930   9.988   6.206
79731SOL    HW240968   2.912  10.010   6.355
79732SOL     OW40969   3.817  10.411   3.866
79732SOL    HW140970   3.754  10.379   3.802
79732SOL    HW240971   3.838  10.335   3.920
79733SOL     OW40972  13.040   3.930   1.942
79733SOL    HW140973  12.953   3.906   1.974
79733SOL    HW240974  13.032   4.022   1.917
79734SOL     OW40975   9.630   2.563   7.001
79734SOL    HW140976   9.643   2.491   6.939
79734SOL    HW240977   9.550   2.539   7.048
79735SOL     OW40978   0.058   0.592   7.049
79735SOL    HW140979   0.088   0.537   7.120
79735SOL    HW240980  14.851   0.562   7.031
79736SOL     OW40981   6.138   0.838   0.103
79736SOL    HW140982   6.199   0.912   0.102
79736SOL    HW240983   6.152   0.794   0.020
79737SOL     OW40984  12.212   9.902   4.604
79737SOL    HW140985  12.141   9.905   4.540
79737SOL    HW240986  12.292   9.905   4.552
79738SOL     OW40987  10.268   7.904  10.010
79738SOL    HW140988  10.280   7.878   9.918
79738SOL    HW240989  10.182   7.946  10.012
79739SOL     OW40990   6.809   9.665  11.949
79739SOL    HW140991   6.840   9.621  12.028
79739SOL    HW240992   6.864   9.744  11.943
79740SOL     OW40993  14.181  14.224   7.944
79740SOL    HW140994  14.147  14.276   8.017
79740SOL    HW240995  14.137  14.139   7.953
79741SOL     OW40996  12.638   5.397   6.855
79741SOL    HW140997  12.653   5.465   6.790
79741SOL    HW240998  12.704   5.330   6.835
79742SOL     OW40999   8.040   1.160   0.885
79742SOL    HW141000   7.967   1.106   0.915
79742SOL    HW241001   8.001   1.222   0.824
79743SOL     OW41002  12.114   9.757   9.420
79743SOL    HW141003  12.106   9.664   9.440
79743SOL    HW241004  12.048   9.772   9.352
79744SOL     OW41005  10.214  10.496  10.357
79744SOL    HW141006  10.209  10.515  10.450
79744SOL    HW241007  10.179  10.407  10.348
79745SOL     OW41008   1.055   0.853   6.583
79745SOL    HW141009   0.988   0.803   6.537
79745SOL    HW241010   1.136   0.804   6.569
79746SOL     OW41011   4.799  10.345   8.055
79746SOL    HW141012   4.722  10.391   8.022
79746SOL    HW241013   4.835  10.300   7.979
79747SOL     OW41014  11.056   4.643  11.585
79747SOL    HW141015  11.008   4.685  11.657
79747SOL    HW241016  11.138   4.692  11.579
79748SOL     OW41017   4.342   9.211   6.439
79748SOL    HW141018   4.315   9.300   6.418
79748SOL    HW241019   4.266   9.173   6.484
79749SOL     OW41020  12.063  13.645  11.215
79749SOL    HW141021  11.996  13.705  11.184
79749SOL    HW241022  12.080  13.672  11.305
79750SOL     OW41023   5.644   0.083   0.672
79750SOL    HW141024   5.668  14.872   0.683
79750SOL    HW241025   5.610   0.110   0.757
79751SOL     OW41026   7.199   6.009  14.052
79751SOL    HW141027   7.236   6.097  14.050
79751SOL    HW241028   7.261   5.956  14.002
79752SOL     OW41029   0.361  11.253   6.980
79752SOL    HW141030   0.293  11.270   6.915
79752SOL    HW241031   0.325  11.286   7.062
79753SOL     OW41032  14.536   6.241   6.325
79753SOL    HW141033  14.574   6.153   6.324
79753SOL    HW241034  14.609   6.299   6.305
79754SOL     OW41035   8.450   5.571  13.609
79754SOL    HW141036   8.522   5.623  13.575
79754SOL    HW241037   8.372   5.624  13.592
79755SOL     OW41038   9.149  13.959  11.728
79755SOL    HW141039   9.121  14.015  11.801
79755SOL    HW241040   9.078  13.895  11.720
79756SOL     OW41041  10.729  14.753   8.372
79756SOL    HW141042  10.775  14.821   8.323
79756SOL    HW241043  10.659  14.799   8.418
79757SOL     OW41044  11.925   5.303  12.750
79757SOL    HW141045  11.996   5.329  12.691
79757SOL    HW241046  11.857   5.369  12.735
79758SOL     OW41047   8.997  13.058   6.490
79758SOL    HW141048   9.023  13.145   6.459
79758SOL    HW241049   8.934  13.076   6.560
79759SOL     OW41050   6.990  10.710   8.595
79759SOL    HW141051   6.976  10.673   8.508
79759SOL    HW241052   6.904  10.746   8.620
79760SOL     OW41053   5.060   5.278   6.931
79760SOL    HW141054   5.038   5.371   6.923
79760SOL    HW241055   5.143   5.269   6.883
79761SOL     OW41056   3.973   6.763   3.281
79761SOL    HW141057   4.027   6.790   3.206
79761SOL    HW241058   4.008   6.678   3.306
79762SOL     OW41059   7.740   3.440  13.464
79762SOL    HW141060   7.801   3.469  13.396
79762SOL    HW241061   7.671   3.507  13.464
79763SOL     OW41062   9.367   9.130  12.965
79763SOL    HW141063   9.343   9.149  13.055
79763SOL    HW241064   9.447   9.079  12.971
79764SOL     OW41065  13.826  12.061   4.809
79764SOL    HW141066  13.814  11.970   4.835
79764SOL    HW241067  13.849  12.107   4.889
79765SOL     OW41068   7.253   6.822   7.666
79765SOL    HW141069   7.249   6.831   7.571
79765SOL    HW241070   7.327   6.875   7.693
79766SOL     OW41071  12.296  13.956   7.951
79766SOL    HW141072  12.214  14.004   7.961
79766SOL    HW241073  12.293  13.887   8.018
79767SOL     OW41074   0.789   5.806  10.500
79767SOL    HW141075   0.821   5.821  10.411
79767SOL    HW241076   0.868   5.806  10.554
79768SOL     OW41077   5.781   2.071   7.857
79768SOL    HW141078   5.736   2.029   7.930
79768SOL    HW241079   5.798   2.001   7.795
79769SOL     OW41080  10.464   6.133   6.435
79769SOL    HW141081  10.484   6.126   6.342
79769SOL    HW241082  10.463   6.227   6.452
79770SOL     OW41083  13.290   5.937  12.210
79770SOL    HW141084  13.232   5.997  12.162
79770SOL    HW241085  13.355   5.910  12.145
79771SOL     OW41086   7.889   0.940   6.102
79771SOL    HW141087   7.804   0.974   6.077
79771SOL    HW241088   7.905   0.869   6.040
79772SOL     OW41089  10.021   8.811   6.862
79772SOL    HW141090   9.963   8.837   6.791
79772SOL    HW241091  10.109   8.813   6.823
79773SOL     OW41092   1.025   4.026   3.137
79773SOL    HW141093   1.040   4.026   3.232
79773SOL    HW241094   1.083   3.958   3.103
79774SOL     OW41095   8.769  10.242  13.498
79774SOL    HW141096   8.814  10.190  13.431
79774SOL    HW241097   8.692  10.190  13.521
79775SOL     OW41098   6.421   6.676   0.466
79775SOL    HW141099   6.364   6.719   0.402
79775SOL    HW241100   6.456   6.600   0.421
79776SOL     OW41101  14.479   7.284  14.848
79776SOL    HW141102  14.389   7.256  14.868
79776SOL    HW241103  14.479   7.300  14.754
79777SOL     OW41104  12.754  10.680   0.295
79777SOL    HW141105  12.786  10.610   0.238
79777SOL    HW241106  12.659  10.664   0.301
79778SOL     OW41107   5.159   2.198   4.946
79778SOL    HW141108   5.115   2.205   4.862
79778SOL    HW241109   5.223   2.127   4.935
79779SOL     OW41110   4.806  10.855  14.185
79779SOL    HW141111   4.834  10.848  14.277
79779SOL    HW241112   4.716  10.825  14.185
79780SOL     OW41113   9.651   4.294   7.987
79780SOL    HW141114   9.723   4.266   8.044
79780SOL    HW241115   9.598   4.351   8.042
79781SOL     OW41116   5.406   0.659   4.573
79781SOL    HW141117   5.488   0.664   4.523
79781SOL    HW241118   5.418   0.585   4.632
79782SOL     OW41119   4.302   1.306   7.541
79782SOL    HW141120   4.379   1.276   7.493
79782SOL    HW241121   4.230   1.254   7.505
79783SOL     OW41122   6.810   1.002  14.576
79783SOL    HW141123   6.876   1.071  14.579
79783SOL    HW241124   6.728   1.047  14.595
79784SOL     OW41125  13.036   1.730  14.178
79784SOL    HW141126  12.975   1.701  14.110
79784SOL    HW241127  13.119   1.689  14.153
79785SOL     OW41128   5.305   0.274   8.777
79785SOL    HW141129   5.271   0.329   8.706
79785SOL    HW241130   5.369   0.328   8.822
79786SOL     OW41131   7.487   6.018   8.498
79786SOL    HW141132   7.522   6.104   8.478
79786SOL    HW241133   7.412   6.008   8.440
79787SOL     OW41134   3.235   4.045  12.151
79787SOL    HW141135   3.259   4.123  12.200
79787SOL    HW241136   3.317   4.016  12.110
79788SOL     OW41137   6.435   9.623   3.898
79788SOL    HW141138   6.340   9.611   3.896
79788SOL    HW241139   6.448   9.718   3.894
79789SOL     OW41140   2.609   1.023  12.840
79789SOL    HW141141   2.693   1.015  12.795
79789SOL    HW241142   2.598   1.118  12.852
79790SOL     OW41143  12.372  12.848  13.908
79790SOL    HW141144  12.340  12.860  13.998
79790SOL    HW241145  12.466  12.835  13.918
79791SOL     OW41146  14.208   1.552   4.370
79791SOL    HW141147  14.193   1.640   4.405
79791SOL    HW241148  14.214   1.564   4.275
79792SOL     OW41149   3.612   1.942  10.107
79792SOL    HW141150   3.533   1.940  10.053
79792SOL    HW241151   3.651   1.855  10.097
79793SOL     OW41152  10.219  10.328   3.311
79793SOL    HW141153  10.228  10.318   3.406
79793SOL    HW241154  10.292  10.386   3.287
79794SOL     OW41155   5.146   1.091   2.730
79794SOL    HW141156   5.060   1.058   2.703
79794SOL    HW241157   5.192   1.109   2.648
79795SOL     OW41158   3.252   5.843   0.797
79795SOL    HW141159   3.288   5.888   0.720
79795SOL    HW241160   3.166   5.883   0.810
79796SOL     OW41161   7.761  14.028   2.222
79796SOL    HW141162   7.674  13.991   2.204
79796SOL    HW241163   7.743  14.117   2.252
79797SOL     OW41164   2.388  14.065  12.181
79797SOL    HW141165   2.397  14.065  12.085
79797SOL    HW241166   2.371  14.157  12.203
79798SOL     OW41167   7.716   2.552   9.146
79798SOL    HW141168   7.738   2.482   9.085
79798SOL    HW241169   7.765   2.628   9.113
79799SOL     OW41170   2.303   3.773   7.692
79799SOL    HW141171   2.340   3.835   7.630
79799SOL    HW241172   2.224   3.739   7.649
79800SOL     OW41173   6.396   1.617   8.740
79800SOL    HW141174   6.380   1.597   8.832
79800SOL    HW241175   6.311   1.604   8.697
79801SOL     OW41176   4.850   6.678   5.211
79801SOL    HW141177   4.876   6.611   5.275
79801SOL    HW241178   4.795   6.631   5.148
79802SOL     OW41179   0.425   4.042  13.545
79802SOL    HW141180   0.455   3.951  13.539
79802SOL    HW241181   0.371   4.044  13.624
79803SOL     OW41182   8.082   6.318   3.160
79803SOL    HW141183   8.042   6.238   3.127
79803SOL    HW241184   8.174   6.296   3.173
79804SOL     OW41185  13.911   7.960   8.581
79804SOL    HW141186  13.832   7.987   8.534
79804SOL    HW241187  13.909   8.009   8.663
79805SOL     OW41188  13.807   2.808   2.044
79805SOL    HW141189  13.823   2.835   1.954
79805SOL    HW241190  13.848   2.721   2.051
79806SOL     OW41191   6.030   9.019   3.728
79806SOL    HW141192   6.038   9.010   3.633
79806SOL    HW241193   5.991   8.936   3.756
79807SOL     OW41194   4.928  14.337  14.112
79807SOL    HW141195   4.883  14.268  14.064
79807SOL    HW241196   4.896  14.328  14.202
79808SOL     OW41197   5.989   3.640   2.445
79808SOL    HW141198   6.044   3.631   2.367
79808SOL    HW241199   6.026   3.579   2.508
79809SOL     OW41200   4.687  12.974  12.420
79809SOL    HW141201   4.748  12.909  12.386
79809SOL    HW241202   4.689  13.045  12.356
79810SOL     OW41203   8.943   4.214  14.821
79810SOL    HW141204   8.992   4.295  14.833
79810SOL    HW241205   9.006   4.152  14.784
79811SOL     OW41206   7.677   7.490   7.826
79811SOL    HW141207   7.770   7.512   7.833
79811SOL    HW241208   7.646   7.491   7.916
79812SOL     OW41209  10.990   2.056   1.425
79812SOL    HW141210  10.936   2.056   1.503
79812SOL    HW241211  11.036   2.140   1.428
79813SOL     OW41212   8.919   7.074   4.314
79813SOL    HW141213   8.930   7.013   4.241
79813SOL    HW241214   8.848   7.036   4.366
79814SOL     OW41215   2.423   3.297   9.527
79814SOL    HW141216   2.504   3.324   9.484
79814SOL    HW241217   2.361   3.367   9.509
79815SOL     OW41218   7.151   8.399   4.553
79815SOL    HW141219   7.191   8.314   4.539
79815SOL    HW241220   7.143   8.406   4.648
79816SOL     OW41221   4.225   9.326  12.022
79816SOL    HW141222   4.253   9.247  11.978
79816SOL    HW241223   4.194   9.296  12.108
79817SOL     OW41224  14.000   3.721   6.664
79817SOL    HW141225  14.021   3.629   6.679
79817SOL    HW241226  13.914   3.720   6.622
79818SOL     OW41227  14.608   0.142   7.139
79818SOL    HW141228  14.531   0.196   7.120
79818SOL    HW241229  14.603   0.125   7.233
79819SOL     OW41230   9.063   1.751   0.096
79819SOL    HW141231   8.975   1.737   0.132
79819SOL    HW241232   9.058   1.837   0.054
79820SOL     OW41233  10.664   2.545   6.925
79820SOL    HW141234  10.732   2.563   6.990
79820SOL    HW241235  10.645   2.452   6.935
79821SOL     OW41236   3.438  13.566   1.246
79821SOL    HW141237   3.501  13.631   1.276
79821SOL    HW241238   3.485  13.517   1.178
79822SOL     OW41239   6.995   3.444  12.978
79822SOL    HW141240   7.021   3.355  13.002
79822SOL    HW241241   7.002   3.446  12.883
79823SOL     OW41242   8.133  10.689  10.180
79823SOL    HW141243   8.219  10.676  10.139
79823SOL    HW241244   8.150  10.682  10.274
79824SOL     OW41245   4.485  12.660  14.699
79824SOL    HW141246   4.470  12.605  14.622
79824SOL    HW241247   4.425  12.733  14.689
79825SOL     OW41248  11.632   4.396   1.102
79825SOL    HW141249  11.645   4.317   1.049
79825SOL    HW241250  11.720   4.425   1.124
79826SOL     OW41251   7.593   0.642   8.967
79826SOL    HW141252   7.672   0.693   8.954
79826SOL    HW241253   7.522   0.701   8.940
79827SOL     OW41254   0.336   6.810  11.016
79827SOL    HW141255   0.421   6.789  11.053
79827SOL    HW241256   0.342   6.902  10.990
79828SOL     OW41257   0.912  10.568  14.216
79828SOL    HW141258   0.900  10.604  14.303
79828SOL    HW241259   0.983  10.504  14.227
79829SOL     OW41260   0.770   8.048  13.815
79829SOL    HW141261   0.713   8.108  13.767
79829SOL    HW241262   0.851   8.098  13.830
79830SOL     OW41263   4.412  11.240   7.888
79830SOL    HW141264   4.423  11.214   7.797
79830SOL    HW241265   4.360  11.321   7.884
79831SOL     OW41266   5.329  10.691   0.470
79831SOL    HW141267   5.259  10.670   0.408
79831SOL    HW241268   5.359  10.779   0.444
79832SOL     OW41269   8.908   4.343   3.029
79832SOL    HW141270   8.924   4.389   2.947
79832SOL    HW241271   8.855   4.267   3.004
79833SOL     OW41272   9.115   8.923   4.251
79833SOL    HW141273   9.059   8.846   4.262
79833SOL    HW241274   9.159   8.908   4.167
79834SOL     OW41275  10.594  11.651   0.210
79834SOL    HW141276  10.666  11.625   0.268
79834SOL    HW241277  10.571  11.570   0.164
79835SOL     OW41278   9.519   6.185   4.833
79835SOL    HW141279   9.556   6.151   4.751
79835SOL    HW241280   9.425   6.171   4.825
79836SOL     OW41281   1.120   2.659  12.740
79836SOL    HW141282   1.061   2.721  12.782
79836SOL    HW241283   1.203   2.669  12.787
79837SOL     OW41284  12.353   3.860   9.092
79837SOL    HW141285  12.337   3.804   9.167
79837SOL    HW241286  12.360   3.948   9.129
79838SOL     OW41287   4.945   4.194  10.165
79838SOL    HW141288   4.994   4.237  10.235
79838SOL    HW241289   4.966   4.245  10.087
79839SOL     OW41290   7.418   2.484   4.103
79839SOL    HW141291   7.513   2.488   4.106
79839SOL    HW241292   7.389   2.543   4.172
79840SOL     OW41293  13.946   0.131   7.138
79840SOL    HW141294  13.913   0.213   7.101
79840SOL    HW241295  13.954   0.149   7.232
79841SOL     OW41296  10.869  12.193   2.060
79841SOL    HW141297  10.946  12.154   2.019
79841SOL    HW241298  10.869  12.284   2.030
79842SOL     OW41299  12.832  14.663  14.563
79842SOL    HW141300  12.850  14.587  14.508
79842SOL    HW241301  12.869  14.737  14.515
79843SOL     OW41302  11.604   6.984   7.062
79843SOL    HW141303  11.577   6.969   6.971
79843SOL    HW241304  11.693   7.019   7.055
79844SOL     OW41305   6.692   2.422  13.086
79844SOL    HW141306   6.608   2.428  13.041
79844SOL    HW241307   6.678   2.468  13.169
79845SOL     OW41308  13.934  12.189   1.220
79845SOL    HW141309  13.893  12.223   1.140
79845SOL    HW241310  13.935  12.263   1.280
79846SOL     OW41311   4.681  13.839  10.211
79846SOL    HW141312   4.751  13.830  10.277
79846SOL    HW241313   4.721  13.808  10.130
79847SOL     OW41314   8.724   2.975  11.521
79847SOL    HW141315   8.810   2.991  11.561
79847SOL    HW241316   8.742   2.911  11.453
79848SOL     OW41317   7.686   6.798   7.664
79848SOL    HW141318   7.715   6.708   7.679
79848SOL    HW241319   7.767   6.848   7.655
79849SOL     OW41320   6.676   8.370   0.504
79849SOL    HW141321   6.630   8.298   0.461
79849SOL    HW241322   6.697   8.336   0.591
79850SOL     OW41323  13.551  10.045  12.484
79850SOL    HW141324  13.602  10.007  12.413
79850SOL    HW241325  13.611  10.048  12.558
79851SOL     OW41326   6.627   3.264   0.258
79851SOL    HW141327   6.592   3.352   0.245
79851SOL    HW241328   6.655   3.236   0.171
79852SOL     OW41329   5.925   3.077   9.169
79852SOL    HW141330   5.999   3.076   9.108
79852SOL    HW241331   5.903   3.169   9.180
79853SOL     OW41332   3.359  11.102   9.374
79853SOL    HW141333   3.276  11.149   9.367
79853SOL    HW241334   3.397  11.133   9.456
79854SOL     OW41335   0.714   1.677   2.908
79854SOL    HW141336   0.808   1.662   2.898
79854SOL    HW241337   0.708   1.762   2.952
79855SOL     OW41338  12.693   6.530   3.028
79855SOL    HW141339  12.662   6.548   2.939
79855SOL    HW241340  12.641   6.589   3.083
79856SOL     OW41341   5.717  12.869   6.252
79856SOL    HW141342   5.678  12.785   6.232
79856SOL    HW241343   5.648  12.933   6.234
79857SOL     OW41344  12.416   2.903  11.485
79857SOL    HW141345  12.432   2.997  11.495
79857SOL    HW241346  12.445   2.864  11.567
79858SOL     OW41347   0.873   5.549  11.797
79858SOL    HW141348   0.853   5.594  11.880
79858SOL    HW241349   0.963   5.520  11.807
79859SOL     OW41350  12.851   6.481   6.365
79859SOL    HW141351  12.848   6.499   6.459
79859SOL    HW241352  12.897   6.557   6.327
79860SOL     OW41353  11.527   0.105   3.428
79860SOL    HW141354  11.481   0.181   3.465
79860SOL    HW241355  11.538   0.127   3.336
79861SOL     OW41356   2.863  11.813  14.607
79861SOL    HW141357   2.921  11.872  14.558
79861SOL    HW241358   2.922  11.753  14.653
79862SOL     OW41359   5.045   7.717   0.398
79862SOL    HW141360   5.097   7.736   0.476
79862SOL    HW241361   5.003   7.800   0.377
79863SOL     OW41362  11.853  12.259   0.688
79863SOL    HW141363  11.758  12.258   0.678
79863SOL    HW241364  11.870  12.334   0.745
79864SOL     OW41365   3.575   1.292   8.155
79864SOL    HW141366   3.606   1.259   8.070
79864SOL    HW241367   3.494   1.245   8.171
79865SOL     OW41368   5.532  11.590   8.684
79865SOL    HW141369   5.468  11.531   8.723
79865SOL    HW241370   5.609  11.535   8.668
79866SOL     OW41371   2.530   9.605   5.125
79866SOL    HW141372   2.513   9.552   5.047
79866SOL    HW241373   2.538   9.542   5.196
79867SOL     OW41374   0.236   2.637   9.485
79867SOL    HW141375   0.315   2.653   9.433
79867SOL    HW241376   0.264   2.653   9.575
79868SOL     OW41377   2.547   0.176   1.013
79868SOL    HW141378   2.462   0.202   0.979
79868SOL    HW241379   2.548   0.081   1.005
79869SOL     OW41380   1.201   9.257   2.773
79869SOL    HW141381   1.107   9.276   2.781
79869SOL    HW241382   1.208   9.203   2.695
79870SOL     OW41383   1.493  12.901   5.867
79870SOL    HW141384   1.407  12.932   5.897
79870SOL    HW241385   1.516  12.832   5.929
79871SOL     OW41386  12.535   6.576   7.927
79871SOL    HW141387  12.591   6.545   7.999
79871SOL    HW241388  12.522   6.669   7.944
79872SOL     OW41389  11.712   1.881   1.814
79872SOL    HW141390  11.734   1.898   1.723
79872SOL    HW241391  11.701   1.967   1.853
79873SOL     OW41392  12.916   2.898   4.302
79873SOL    HW141393  12.861   2.930   4.230
79873SOL    HW241394  12.854   2.866   4.367
79874SOL     OW41395  14.712   9.457   7.005
79874SOL    HW141396  14.697   9.468   7.099
79874SOL    HW241397  14.630   9.484   6.964
79875SOL     OW41398   3.125  12.800   4.324
79875SOL    HW141399   3.129  12.878   4.268
79875SOL    HW241400   3.048  12.753   4.293
79876SOL     OW41401  10.508  11.742   6.752
79876SOL    HW141402  10.472  11.792   6.825
79876SOL    HW241403  10.432  11.718   6.699
79877SOL     OW41404  12.674   9.854  10.005
79877SOL    HW141405  12.601   9.854  10.068
79877SOL    HW241406  12.694   9.947   9.992
79878SOL     OW41407   7.840   8.376   5.171
79878SOL    HW141408   7.838   8.375   5.267
79878SOL    HW241409   7.790   8.299   5.145
79879SOL     OW41410  14.341   5.990   9.179
79879SOL    HW141411  14.295   6.048   9.240
79879SOL    HW241412  14.302   5.904   9.192
79880SOL     OW41413   8.714  10.410  11.206
79880SOL    HW141414   8.778  10.420  11.136
79880SOL    HW241415   8.691  10.499  11.231
79881SOL     OW41416  10.267   4.208   9.679
79881SOL    HW141417  10.338   4.224   9.741
79881SOL    HW241418  10.276   4.277   9.613
79882SOL     OW41419   4.157   5.954   0.612
79882SOL    HW141420   4.131   5.936   0.522
79882SOL    HW241421   4.074   5.959   0.660
79883SOL     OW41422  14.422   9.194   2.627
79883SOL    HW141423  14.451   9.276   2.668
79883SOL    HW241424  14.343   9.170   2.673
79884SOL     OW41425   1.000   1.022   5.852
79884SOL    HW141426   0.938   1.075   5.802
79884SOL    HW241427   1.018   1.074   5.930
79885SOL     OW41428  11.721   3.439  14.547
79885SOL    HW141429  11.742   3.354  14.509
79885SOL    HW241430  11.668   3.418  14.625
79886SOL     OW41431  13.158  13.663   9.300
79886SOL    HW141432  13.133  13.668   9.392
79886SOL    HW241433  13.140  13.750   9.265
79887SOL     OW41434   5.096  11.655   0.773
79887SOL    HW141435   5.026  11.593   0.751
79887SOL    HW241436   5.050  11.732   0.806
79888SOL     OW41437   8.475   6.956  11.612
79888SOL    HW141438   8.420   7.025  11.649
79888SOL    HW241439   8.423   6.876  11.624
79889SOL     OW41440   4.914   6.072   9.106
79889SOL    HW141441   4.922   6.076   9.011
79889SOL    HW241442   4.821   6.051   9.122
79890SOL     OW41443  11.560   1.614   5.421
79890SOL    HW141444  11.575   1.601   5.514
79890SOL    HW241445  11.525   1.530   5.390
79891SOL     OW41446   2.251   7.538   9.942
79891SOL    HW141447   2.201   7.620   9.944
79891SOL    HW241448   2.315   7.552   9.872
79892SOL     OW41449   1.193  11.026   3.131
79892SOL    HW141450   1.277  11.026   3.084
79892SOL    HW241451   1.142  10.956   3.089
79893SOL     OW41452   3.684   3.703  13.855
79893SOL    HW141453   3.635   3.680  13.777
79893SOL    HW241454   3.644   3.785  13.885
79894SOL     OW41455  14.754   8.865   9.633
79894SOL    HW141456  14.681   8.925   9.618
79894SOL    HW241457  14.716   8.795   9.687
79895SOL     OW41458   5.502  12.418   4.340
79895SOL    HW141459   5.469  12.475   4.270
79895SOL    HW241460   5.570  12.470   4.383
79896SOL     OW41461  10.657  13.293   5.924
79896SOL    HW141462  10.619  13.205   5.921
79896SOL    HW241463  10.585  13.349   5.950
79897SOL     OW41464  13.106   7.288   8.963
79897SOL    HW141465  13.156   7.261   9.040
79897SOL    HW241466  13.111   7.213   8.904
79898SOL     OW41467   8.517  14.114   4.094
79898SOL    HW141468   8.518  14.023   4.123
79898SOL    HW241469   8.431  14.124   4.053
79899SOL     OW41470   3.161  14.840   5.024
79899SOL    HW141471   3.227  14.810   5.086
79899SOL    HW241472   3.078  14.823   5.068
79900SOL     OW41473  11.976   6.711  10.074
79900SOL    HW141474  11.996   6.707   9.981
79900SOL    HW241475  11.904   6.649  10.086
79901SOL     OW41476   8.912   1.846   9.644
79901SOL    HW141477   8.941   1.757   9.663
79901SOL    HW241478   8.824   1.836   9.608
79902SOL     OW41479   7.288  10.542   7.653
79902SOL    HW141480   7.261  10.629   7.683
79902SOL    HW241481   7.353  10.560   7.585
79903SOL     OW41482   8.290  12.284  13.383
79903SOL    HW141483   8.320  12.370  13.412
79903SOL    HW241484   8.355  12.256  13.318
79904SOL     OW41485   8.583  14.551   5.654
79904SOL    HW141486   8.549  14.530   5.741
79904SOL    HW241487   8.672  14.581   5.669
79905SOL     OW41488   3.945   8.340   7.239
79905SOL    HW141489   3.869   8.356   7.295
79905SOL    HW241490   3.917   8.269   7.182
79906SOL     OW41491   1.531  13.126   6.667
79906SOL    HW141492   1.515  13.070   6.743
79906SOL    HW241493   1.557  13.210   6.704
79907SOL     OW41494   7.267   4.608   7.702
79907SOL    HW141495   7.272   4.688   7.650
79907SOL    HW241496   7.344   4.610   7.758
79908SOL     OW41497   4.482  14.324  12.279
79908SOL    HW141498   4.392  14.307  12.249
79908SOL    HW241499   4.534  14.255  12.239
79909SOL     OW41500   8.214   2.644   5.545
79909SOL    HW141501   8.277   2.572   5.537
79909SOL    HW241502   8.214   2.666   5.638
79910SOL     OW41503  12.490   1.616   0.035
79910SOL    HW141504  12.468   1.707   0.054
79910SOL    HW241505  12.464   1.603  14.825
79911SOL     OW41506   2.957   7.386   3.617
79911SOL    HW141507   2.896   7.315   3.636
79911SOL    HW241508   2.911   7.465   3.645
79912SOL     OW41509   3.663   1.521  10.833
79912SOL    HW141510   3.688   1.441  10.786
79912SOL    HW241511   3.707   1.514  10.918
79913SOL     OW41512   6.780  11.403   7.998
79913SOL    HW141513   6.791  11.497   7.980
79913SOL    HW241514   6.717  11.401   8.071
79914SOL     OW41515   2.871   2.421  13.874
79914SOL    HW141516   2.901   2.462  13.955
79914SOL    HW241517   2.830   2.493  13.824
79915SOL     OW41518   7.208  11.892   2.699
79915SOL    HW141519   7.115  11.914   2.701
79915SOL    HW241520   7.250  11.963   2.747
79916SOL     OW41521   1.928   8.353   9.464
79916SOL    HW141522   2.014   8.343   9.503
79916SOL    HW241523   1.938   8.322   9.374
79917SOL     OW41524  13.273   7.368   5.427
79917SOL    HW141525  13.306   7.286   5.391
79917SOL    HW241526  13.206   7.397   5.364
79918SOL     OW41527   9.918   5.538   7.933
79918SOL    HW141528  10.002   5.532   7.887
79918SOL    HW241529   9.940   5.564   8.022
79919SOL     OW41530  13.682   6.109   2.176
79919SOL    HW141531  13.744   6.087   2.246
79919SOL    HW241532  13.734   6.106   2.096
79920SOL     OW41533  13.893   8.666   4.714
79920SOL    HW141534  13.824   8.677   4.648
79920SOL    HW241535  13.902   8.572   4.724
79921SOL     OW41536   2.997  14.470  11.977
79921SOL    HW141537   3.083  14.510  11.987
79921SOL    HW241538   2.936  14.543  11.984
79922SOL     OW41539  14.573  14.698   4.006
79922SOL    HW141540  14.588  14.774   4.062
79922SOL    HW241541  14.596  14.623   4.061
79923SOL     OW41542   4.303   1.605   3.261
79923SOL    HW141543   4.377   1.558   3.298
79923SOL    HW241544   4.341   1.660   3.192
79924SOL     OW41545   6.235   3.306   6.579
79924SOL    HW141546   6.218   3.293   6.486
79924SOL    HW241547   6.220   3.220   6.618
79925SOL     OW41548  12.637   1.548   2.797
79925SOL    HW141549  12.567   1.590   2.745
79925SOL    HW241550  12.648   1.462   2.756
79926SOL     OW41551   4.441  11.413   4.656
79926SOL    HW141552   4.432  11.475   4.583
79926SOL    HW241553   4.536  11.404   4.667
79927SOL     OW41554   5.542   3.238   5.717
79927SOL    HW141555   5.508   3.152   5.691
79927SOL    HW241556   5.484   3.267   5.787
79928SOL     OW41557  11.995  10.644   3.105
79928SOL    HW141558  12.040  10.659   3.188
79928SOL    HW241559  11.903  10.664   3.124
79929SOL     OW41560   8.327  14.822   8.271
79929SOL    HW141561   8.293  14.802   8.183
79929SOL    HW241562   8.311   0.034   8.282
79930SOL     OW41563   1.915  12.819   8.673
79930SOL    HW141564   2.006  12.789   8.667
79930SOL    HW241565   1.897  12.857   8.587
79931SOL     OW41566  13.428   3.937   9.353
79931SOL    HW141567  13.397   3.918   9.442
79931SOL    HW241568  13.421   3.853   9.307
79932SOL     OW41569  12.089  11.989   1.127
79932SOL    HW141570  12.151  11.968   1.196
79932SOL    HW241571  12.117  11.937   1.052
79933SOL     OW41572   2.593   7.102  10.894
79933SOL    HW141573   2.542   7.063  10.823
79933SOL    HW241574   2.575   7.047  10.970
79934SOL     OW41575   9.168  10.631   6.670
79934SOL    HW141576   9.240  10.579   6.706
79934SOL    HW241577   9.104  10.567   6.640
79935SOL     OW41578   0.450   1.117  12.366
79935SOL    HW141579   0.470   1.038  12.417
79935SOL    HW241580   0.533   1.141  12.326
79936SOL     OW41581  12.547   4.400  14.870
79936SOL    HW141582  12.513   4.335   0.050
79936SOL    HW241583  12.478   4.409  14.804
79937SOL     OW41584   5.553   9.969  13.130
79937SOL    HW141585   5.542   9.987  13.223
79937SOL    HW241586   5.464   9.955  13.097
79938SOL     OW41587   4.755   7.437   6.983
79938SOL    HW141588   4.836   7.480   7.010
79938SOL    HW241589   4.731   7.481   6.902
79939SOL     OW41590   2.572   4.153   7.149
79939SOL    HW141591   2.610   4.079   7.102
79939SOL    HW241592   2.501   4.114   7.201
79940SOL     OW41593   0.179   1.568   3.612
79940SOL    HW141594   0.259   1.575   3.559
79940SOL    HW241595   0.108   1.574   3.549
79941SOL     OW41596   1.551  11.934   4.294
79941SOL    HW141597   1.506  12.019   4.301
79941SOL    HW241598   1.512  11.893   4.218
79942SOL     OW41599  10.315   5.521  14.759
79942SOL    HW141600  10.261   5.567  14.695
79942SOL    HW241601  10.340   5.440  14.715
79943SOL     OW41602   0.407   1.007   4.522
79943SOL    HW141603   0.443   0.930   4.566
79943SOL    HW241604   0.406   1.074   4.590
79944SOL     OW41605   6.328  14.496   7.323
79944SOL    HW141606   6.377  14.426   7.279
79944SOL    HW241607   6.265  14.525   7.258
79945SOL     OW41608  12.827  12.551   8.217
79945SOL    HW141609  12.778  12.551   8.300
79945SOL    HW241610  12.781  12.490   8.161
79946SOL     OW41611   0.575  14.878   8.516
79946SOL    HW141612   0.492  14.833   8.504
79946SOL    HW241613   0.589  14.878   8.611
79947SOL     OW41614  10.821  11.132  11.534
79947SOL    HW141615  10.856  11.179  11.609
79947SOL    HW241616  10.897  11.089  11.495
79948SOL     OW41617   9.986   6.392   3.852
79948SOL    HW141618  10.055   6.446   3.890
79948SOL    HW241619  10.033   6.330   3.796
79949SOL     OW41620   0.830  13.582   5.290
79949SOL    HW141621   0.822  13.538   5.374
79949SOL    HW241622   0.887  13.657   5.307
79950SOL     OW41623  12.149   9.541   3.751
79950SOL    HW141624  12.145   9.615   3.691
79950SOL    HW241625  12.092   9.474   3.712
79951SOL     OW41626   0.381   5.309  10.794
79951SOL    HW141627   0.403   5.216  10.801
79951SOL    HW241628   0.286   5.311  10.793
79952SOL     OW41629  10.649   2.158   2.670
79952SOL    HW141630  10.564   2.130   2.704
79952SOL    HW241631  10.675   2.231   2.725
79953SOL     OW41632   3.803  14.790   9.813
79953SOL    HW141633   3.833  14.846   9.885
79953SOL    HW241634   3.708  14.788   9.822
79954SOL     OW41635  10.735   6.348   4.937
79954SOL    HW141636  10.766   6.423   4.887
79954SOL    HW241637  10.807   6.329   4.998
79955SOL     OW41638   2.939  12.991   8.693
79955SOL    HW141639   3.022  12.962   8.656
79955SOL    HW241640   2.873  12.945   8.641
79956SOL     OW41641  13.778   5.613   5.600
79956SOL    HW141642  13.816   5.654   5.678
79956SOL    HW241643  13.849   5.560   5.564
79957SOL     OW41644  11.062  13.275  12.526
79957SOL    HW141645  11.116  13.286  12.447
79957SOL    HW241646  11.009  13.198  12.508
79958SOL     OW41647  13.108   2.478   9.858
79958SOL    HW141648  13.105   2.453   9.765
79958SOL    HW241649  13.106   2.574   9.856
79959SOL     OW41650  13.746   4.925   3.672
79959SOL    HW141651  13.669   4.979   3.692
79959SOL    HW241652  13.722   4.837   3.701
79960SOL     OW41653   7.149   4.310  13.456
79960SOL    HW141654   7.238   4.321  13.420
79960SOL    HW241655   7.093   4.311  13.379
79961SOL     OW41656  12.752   8.846   8.979
79961SOL    HW141657  12.718   8.927   9.018
79961SOL    HW241658  12.674   8.793   8.963
79962SOL     OW41659   9.034   4.041   8.739
79962SOL    HW141660   9.121   4.071   8.712
79962SOL    HW241661   9.044   4.018   8.831
79963SOL     OW41662   1.260  14.431  13.896
79963SOL    HW141663   1.195  14.372  13.858
79963SOL    HW241664   1.327  14.373  13.932
79964SOL     OW41665   6.840   2.567   5.208
79964SOL    HW141666   6.800   2.653   5.196
79964SOL    HW241667   6.901   2.579   5.280
79965SOL     OW41668   8.999   6.287   5.891
79965SOL    HW141669   9.043   6.238   5.961
79965SOL    HW241670   9.017   6.379   5.912
79966SOL     OW41671  14.601   7.888   8.654
79966SOL    HW141672  14.685   7.933   8.654
79966SOL    HW241673  14.621   7.799   8.625
79967SOL     OW41674  12.837  14.573   2.041
79967SOL    HW141675  12.929  14.599   2.030
79967SOL    HW241676  12.793  14.606   1.963
79968SOL     OW41677   5.640   0.885   6.502
79968SOL    HW141678   5.648   0.883   6.407
79968SOL    HW241679   5.662   0.797   6.530
79969SOL     OW41680   1.626  14.174   5.397
79969SOL    HW141681   1.632  14.091   5.349
79969SOL    HW241682   1.671  14.236   5.341
79970SOL     OW41683   8.580   9.102   9.433
79970SOL    HW141684   8.603   9.038   9.500
79970SOL    HW241685   8.509   9.061   9.384
79971SOL     OW41686   2.101  11.667   8.439
79971SOL    HW141687   2.188  11.649   8.475
79971SOL    HW241688   2.093  11.609   8.363
79972SOL     OW41689  12.896   7.161   9.497
79972SOL    HW141690  12.905   7.089   9.559
79972SOL    HW241691  12.982   7.204   9.499
79973SOL     OW41692  10.214   5.643  13.670
79973SOL    HW141693  10.166   5.657  13.751
79973SOL    HW241694  10.273   5.718  13.663
79974SOL     OW41695   6.546   1.063   4.736
79974SOL    HW141696   6.562   1.076   4.643
79974SOL    HW241697   6.628   1.085   4.779
79975SOL     OW41698   2.143  11.069  12.328
79975SOL    HW141699   2.113  11.052  12.418
79975SOL    HW241700   2.122  11.161  12.313
79976SOL     OW41701  12.785  14.746   1.552
79976SOL    HW141702  12.843  14.820   1.574
79976SOL    HW241703  12.707  14.787   1.514
79977SOL     OW41704  10.336   0.848  14.523
79977SOL    HW141705  10.359   0.759  14.496
79977SOL    HW241706  10.418   0.897  14.520
79978SOL     OW41707  11.302  13.531   6.250
79978SOL    HW141708  11.348  13.447   6.247
79978SOL    HW241709  11.331  13.572   6.331
79979SOL     OW41710  10.251   9.403   1.412
79979SOL    HW141711  10.179   9.457   1.379
79979SOL    HW241712  10.291   9.365   1.334
79980SOL     OW41713  13.408   6.295  12.988
79980SOL    HW141714  13.497   6.263  12.982
79980SOL    HW241715  13.396   6.348  12.909
79981SOL     OW41716  12.529   6.971  10.610
79981SOL    HW141717  12.514   6.880  10.635
79981SOL    HW241718  12.510   6.973  10.516
79982SOL     OW41719   5.629  11.926  14.256
79982SOL    HW141720   5.564  11.989  14.286
79982SOL    HW241721   5.625  11.930  14.161
79983SOL     OW41722   7.365   4.812   3.952
79983SOL    HW141723   7.428   4.741   3.958
79983SOL    HW241724   7.410   4.888   3.989
79984SOL     OW41725   0.152  14.808   4.915
79984SOL    HW141726   0.060  14.788   4.932
79984SOL    HW241727   0.152   0.017   4.884
79985SOL     OW41728   7.896   2.922  13.693
79985SOL    HW141729   7.824   2.945  13.753
79985SOL    HW241730   7.972   2.911  13.751
79986SOL     OW41731   8.949  14.506  14.751
79986SOL    HW141732   8.884  14.509  14.680
79986SOL    HW241733   9.023  14.458  14.714
79987SOL     OW41734   9.365  13.204   8.428
79987SOL    HW141735   9.296  13.148   8.463
79987SOL    HW241736   9.443  13.148   8.425
79988SOL     OW41737   1.576   2.611   4.436
79988SOL    HW141738   1.647   2.626   4.499
79988SOL    HW241739   1.574   2.692   4.384
79989SOL     OW41740   4.670   7.870  10.386
79989SOL    HW141741   4.606   7.798  10.390
79989SOL    HW241742   4.620   7.944  10.353
79990SOL     OW41743   4.869   1.180  10.028
79990SOL    HW141744   4.958   1.150  10.011
79990SOL    HW241745   4.870   1.206  10.120
79991SOL     OW41746  10.535   0.418   1.896
79991SOL    HW141747  10.517   0.512   1.902
79991SOL    HW241748  10.578   0.397   1.979
79992SOL     OW41749   4.113   8.000   4.622
79992SOL    HW141750   4.028   7.960   4.606
79992SOL    HW241751   4.102   8.092   4.597
79993SOL     OW41752   2.881   8.729   5.798
79993SOL    HW141753   2.856   8.653   5.746
79993SOL    HW241754   2.938   8.780   5.740
79994SOL     OW41755   8.853  10.627   1.560
79994SOL    HW141756   8.909  10.684   1.508
79994SOL    HW241757   8.870  10.539   1.527
79995SOL     OW41758   9.120   5.331   9.451
79995SOL    HW141759   9.046   5.381   9.483
79995SOL    HW241760   9.089   5.240   9.450
79996SOL     OW41761   4.193  12.969   2.072
79996SOL    HW141762   4.249  12.902   2.035
79996SOL    HW241763   4.128  12.921   2.123
79997SOL     OW41764  14.503   2.872   6.869
79997SOL    HW141765  14.486   2.792   6.820
79997SOL    HW241766  14.433   2.932   6.842
79998SOL     OW41767   1.680   0.792  13.017
79998SOL    HW141768   1.666   0.832  13.102
79998SOL    HW241769   1.694   0.866  12.958
79999SOL     OW41770  13.645  11.403   2.251
79999SOL    HW141771  13.550  11.413   2.258
79999SOL    HW241772  13.681  11.488   2.276
80000SOL     OW41773  10.209  13.764   3.902
80000SOL    HW141774  10.120  13.792   3.923
80000SOL    HW241775  10.205  13.734   3.811
80001SOL     OW41776  10.192  13.661  14.794
80001SOL    HW141777  10.267  13.604  14.812
80001SOL    HW241778  10.216  13.709  14.715
80002SOL     OW41779   4.417   4.405   7.119
80002SOL    HW141780   4.446   4.319   7.088
80002SOL    HW241781   4.328   4.414   7.084
80003SOL     OW41782  10.604   3.111   7.222
80003SOL    HW141783  10.532   3.170   7.200
80003SOL    HW241784  10.625   3.131   7.313
80004SOL     OW41785  14.694   3.163   1.956
80004SOL    HW141786  14.719   3.081   1.914
80004SOL    HW241787  14.761   3.177   2.023
80005SOL     OW41788  12.479   3.489   5.343
80005SOL    HW141789  12.535   3.506   5.419
80005SOL    HW241790  12.481   3.393   5.333
80006SOL     OW41791   6.976   9.302   7.508
80006SOL    HW141792   7.065   9.265   7.513
80006SOL    HW241793   6.963   9.345   7.593
80007SOL     OW41794  12.347   0.916   1.737
80007SOL    HW141795  12.413   0.916   1.806
80007SOL    HW241796  12.269   0.877   1.778
80008SOL     OW41797  14.403   0.058  11.601
80008SOL    HW141798  14.406   0.057  11.505
80008SOL    HW241799  14.382   0.148  11.624
80009SOL     OW41800   9.556  10.088   7.998
80009SOL    HW141801   9.586  10.065   8.085
80009SOL    HW241802   9.590  10.177   7.983
80010SOL     OW41803   1.807  13.052   2.222
80010SOL    HW141804   1.772  12.974   2.266
80010SOL    HW241805   1.902  13.047   2.236
80011SOL     OW41806  13.856   7.921   2.245
80011SOL    HW141807  13.884   7.999   2.294
80011SOL    HW241808  13.919   7.853   2.271
80012SOL     OW41809   6.785  10.017   8.299
80012SOL    HW141810   6.719  10.085   8.309
80012SOL    HW241811   6.829  10.014   8.385
80013SOL     OW41812   7.811   9.537  14.118
80013SOL    HW141813   7.816   9.552  14.024
80013SOL    HW241814   7.719   9.551  14.140
80014SOL     OW41815  10.202  13.153   9.502
80014SOL    HW141816  10.261  13.208   9.451
80014SOL    HW241817  10.226  13.169   9.593
80015SOL     OW41818   1.061  13.195  10.633
80015SOL    HW141819   1.077  13.233  10.720
80015SOL    HW241820   1.139  13.142  10.616
80016SOL     OW41821   0.593  10.715  14.596
80016SOL    HW141822   0.534  10.702  14.670
80016SOL    HW241823   0.536  10.738  14.523
80017SOL     OW41824   1.500   4.580   7.629
80017SOL    HW141825   1.550   4.499   7.622
80017SOL    HW241826   1.448   4.569   7.709
80018SOL     OW41827  13.637   8.285   4.974
80018SOL    HW141828  13.709   8.274   5.036
80018SOL    HW241829  13.612   8.377   4.984
80019SOL     OW41830   5.273  11.574   7.246
80019SOL    HW141831   5.290  11.516   7.171
80019SOL    HW241832   5.186  11.549   7.276
80020SOL     OW41833   6.579  10.018   4.881
80020SOL    HW141834   6.557  10.110   4.866
80020SOL    HW241835   6.654  10.002   4.824
80021SOL     OW41836  11.482   5.092  13.867
80021SOL    HW141837  11.440   5.071  13.783
80021SOL    HW241838  11.520   5.179  13.853
80022SOL     OW41839   2.047  12.971  13.098
80022SOL    HW141840   2.004  13.028  13.161
80022SOL    HW241841   2.133  13.011  13.084
80023SOL     OW41842  11.845   8.901   3.809
80023SOL    HW141843  11.846   8.994   3.833
80023SOL    HW241844  11.761   8.890   3.764
80024SOL     OW41845  11.923   0.661   2.157
80024SOL    HW141846  11.947   0.569   2.168
80024SOL    HW241847  11.916   0.695   2.246
80025SOL     OW41848   1.841  12.864   1.092
80025SOL    HW141849   1.884  12.784   1.059
80025SOL    HW241850   1.863  12.866   1.185
80026SOL     OW41851   0.842  10.463   7.738
80026SOL    HW141852   0.781  10.536   7.732
80026SOL    HW241853   0.878  10.454   7.650
80027SOL     OW41854   1.297   4.677  10.140
80027SOL    HW141855   1.348   4.603  10.105
80027SOL    HW241856   1.355   4.717  10.206
80028SOL     OW41857  14.289  13.570   7.630
80028SOL    HW141858  14.341  13.552   7.552
80028SOL    HW241859  14.353  13.582   7.700
80029SOL     OW41860   0.929  11.319   7.431
80029SOL    HW141861   0.990  11.257   7.471
80029SOL    HW241862   0.980  11.400   7.423
80030SOL     OW41863   8.349  13.830  12.736
80030SOL    HW141864   8.394  13.776  12.800
80030SOL    HW241865   8.409  13.902  12.719
80031SOL     OW41866   8.844  14.462   8.951
80031SOL    HW141867   8.878  14.541   8.993
80031SOL    HW241868   8.910  14.440   8.884
80032SOL     OW41869  14.082   6.945   0.508
80032SOL    HW141870  14.091   6.973   0.599
80032SOL    HW241871  14.016   7.004   0.472
80033SOL     OW41872   3.370  10.477   2.908
80033SOL    HW141873   3.387  10.435   2.824
80033SOL    HW241874   3.284  10.518   2.897
80034SOL     OW41875   6.020   0.212  13.935
80034SOL    HW141876   5.932   0.236  13.963
80034SOL    HW241877   6.013   0.120  13.910
80035SOL     OW41878   1.299  10.123  13.475
80035SOL    HW141879   1.209  10.108  13.447
80035SOL    HW241880   1.348  10.047  13.444
80036SOL     OW41881   1.805  13.627   8.276
80036SOL    HW141882   1.878  13.636   8.337
80036SOL    HW241883   1.745  13.566   8.318
80037SOL     OW41884   9.944   1.082   6.129
80037SOL    HW141885  10.032   1.044   6.133
80037SOL    HW241886   9.888   1.019   6.174
80038SOL     OW41887   2.782  13.168   4.890
80038SOL    HW141888   2.743  13.222   4.821
80038SOL    HW241889   2.718  13.170   4.961
80039SOL     OW41890   0.223   4.052   2.421
80039SOL    HW141891   0.184   3.981   2.371
80039SOL    HW241892   0.149   4.095   2.464
80040SOL     OW41893   2.064   3.927   1.931
80040SOL    HW141894   2.117   3.980   1.871
80040SOL    HW241895   2.022   3.990   1.988
80041SOL     OW41896   4.755   1.130   2.283
80041SOL    HW141897   4.668   1.105   2.251
80041SOL    HW241898   4.743   1.146   2.376
80042SOL     OW41899   9.115   0.754   1.234
80042SOL    HW141900   9.177   0.681   1.243
80042SOL    HW241901   9.140   0.796   1.151
80043SOL     OW41902   0.030   6.076   1.433
80043SOL    HW141903  14.864   5.993   1.428
80043SOL    HW241904   0.049   6.088   1.526
80044SOL     OW41905   7.965  12.864   9.946
80044SOL    HW141906   7.950  12.959   9.948
80044SOL    HW241907   7.963  12.842   9.853
80045SOL     OW41908  14.512  11.856   0.035
80045SOL    HW141909  14.594  11.902   0.058
80045SOL    HW241910  14.496  11.881  14.826
80046SOL     OW41911   8.270   5.581   4.017
80046SOL    HW141912   8.200   5.537   3.969
80046SOL    HW241913   8.327   5.511   4.048
80047SOL     OW41914   9.936  14.879   0.471
80047SOL    HW141915   9.864   0.050   0.434
80047SOL    HW241916   9.928  14.794   0.428
80048SOL     OW41917  14.081   5.218  12.473
80048SOL    HW141918  14.020   5.162  12.520
80048SOL    HW241919  14.073   5.304  12.516
80049SOL     OW41920   1.434   8.371   2.608
80049SOL    HW141921   1.436   8.465   2.587
80049SOL    HW241922   1.526   8.346   2.614
80050SOL     OW41923   0.805  14.359   6.620
80050SOL    HW141924   0.736  14.326   6.562
80050SOL    HW241925   0.812  14.452   6.599
80051SOL     OW41926   4.353   4.493  11.716
80051SOL    HW141927   4.300   4.483  11.795
80051SOL    HW241928   4.436   4.529  11.747
80052SOL     OW41929   3.101  12.146   4.831
80052SOL    HW141930   3.173  12.097   4.793
80052SOL    HW241931   3.095  12.115   4.922
80053SOL     OW41932   6.418   5.605   5.856
80053SOL    HW141933   6.423   5.541   5.785
80053SOL    HW241934   6.505   5.601   5.897
80054SOL     OW41935  13.293   8.464   7.111
80054SOL    HW141936  13.386   8.453   7.131
80054SOL    HW241937  13.291   8.530   7.041
80055SOL     OW41938  10.750   1.800  12.677
80055SOL    HW141939  10.683   1.738  12.649
80055SOL    HW241940  10.723   1.883  12.636
80056SOL     OW41941  11.727   4.607   3.465
80056SOL    HW141942  11.693   4.554   3.537
80056SOL    HW241943  11.814   4.570   3.447
80057SOL     OW41944   3.031   7.391   9.221
80057SOL    HW141945   2.966   7.395   9.291
80057SOL    HW241946   3.109   7.433   9.257
80058SOL     OW41947   6.208  11.871   7.698
80058SOL    HW141948   6.160  11.951   7.678
80058SOL    HW241949   6.233  11.836   7.612
80059SOL     OW41950   4.709  10.214   6.344
80059SOL    HW141951   4.763  10.231   6.266
80059SOL    HW241952   4.749  10.137   6.384
80060SOL     OW41953   2.935   8.253   4.233
80060SOL    HW141954   2.923   8.306   4.154
80060SOL    HW241955   2.851   8.260   4.279
80061SOL     OW41956  13.620   6.893   2.623
80061SOL    HW141957  13.571   6.815   2.646
80061SOL    HW241958  13.554   6.955   2.591
80062SOL     OW41959  11.731   3.857  12.436
80062SOL    HW141960  11.675   3.788  12.400
80062SOL    HW241961  11.670   3.917  12.479
80063SOL     OW41962   1.052   2.310  11.193
80063SOL    HW141963   1.063   2.391  11.242
80063SOL    HW241964   1.133   2.302  11.142
80064SOL     OW41965   0.212  14.483  13.424
80064SOL    HW141966   0.130  14.433  13.425
80064SOL    HW241967   0.280  14.417  13.411
80065SOL     OW41968  12.107   4.524   5.118
80065SOL    HW141969  12.144   4.602   5.159
80065SOL    HW241970  12.148   4.521   5.031
80066SOL     OW41971   8.515   7.769   1.809
80066SOL    HW141972   8.509   7.865   1.813
80066SOL    HW241973   8.438   7.738   1.857
80067SOL     OW41974  13.496   0.118   1.639
80067SOL    HW141975  13.567   0.127   1.575
80067SOL    HW241976  13.436   0.189   1.619
80068SOL     OW41977   5.719  12.824  12.922
80068SOL    HW141978   5.781  12.770  12.971
80068SOL    HW241979   5.651  12.846  12.985
80069SOL     OW41980   2.674   5.442  12.238
80069SOL    HW141981   2.639   5.518  12.191
80069SOL    HW241982   2.617   5.370  12.212
80070SOL     OW41983   5.275   3.788   6.733
80070SOL    HW141984   5.311   3.707   6.696
80070SOL    HW241985   5.342   3.854   6.715
80071SOL     OW41986   5.826   8.267  14.593
80071SOL    HW141987   5.872   8.236  14.515
80071SOL    HW241988   5.771   8.194  14.620
80072SOL     OW41989   0.033   1.477  13.259
80072SOL    HW141990   0.049   1.394  13.303
80072SOL    HW241991   0.115   1.527  13.270
80073SOL     OW41992   7.284   2.785   2.196
80073SOL    HW141993   7.240   2.739   2.268
80073SOL    HW241994   7.213   2.820   2.143
80074SOL     OW41995   7.869   8.602   6.236
80074SOL    HW141996   7.960   8.606   6.267
80074SOL    HW241997   7.876   8.567   6.147
80075SOL     OW41998   7.449   8.818   4.341
80075SOL    HW141999   7.375   8.876   4.322
80075SOL    HW242000   7.519   8.848   4.283
80076SOL     OW42001  11.235  11.750   2.971
80076SOL    HW142002  11.285  11.820   3.015
80076SOL    HW242003  11.210  11.691   3.042
80077SOL     OW42004  12.260   9.222   0.881
80077SOL    HW142005  12.318   9.191   0.950
80077SOL    HW242006  12.309   9.209   0.800
80078SOL     OW42007   7.321  11.907   7.835
80078SOL    HW142008   7.248  11.930   7.893
80078SOL    HW242009   7.390  11.875   7.894
80079SOL     OW42010  13.938   5.804   1.295
80079SOL    HW142011  13.842   5.807   1.293
80079SOL    HW242012  13.959   5.769   1.382
80080SOL     OW42013   3.952   1.063  12.263
80080SOL    HW142014   3.993   1.090  12.345
80080SOL    HW242015   3.867   1.107  12.263
80081SOL     OW42016   6.494  10.506   1.548
80081SOL    HW142017   6.411  10.555   1.544
80081SOL    HW242018   6.561  10.574   1.558
80082SOL     OW42019   5.126   5.576   6.370
80082SOL    HW142020   5.060   5.525   6.416
80082SOL    HW242021   5.080   5.613   6.295
80083SOL     OW42022   4.184   1.536  13.788
80083SOL    HW142023   4.123   1.482  13.838
80083SOL    HW242024   4.136   1.559  13.708
80084SOL     OW42025  12.409  13.867   5.589
80084SOL    HW142026  12.436  13.890   5.500
80084SOL    HW242027  12.316  13.892   5.593
80085SOL     OW42028   8.622   4.941   8.684
80085SOL    HW142029   8.553   4.894   8.638
80085SOL    HW242030   8.579   4.980   8.760
80086SOL     OW42031  12.339   8.967   7.551
80086SOL    HW142032  12.259   9.006   7.516
80086SOL    HW242033  12.386   9.041   7.591
80087SOL     OW42034   3.691   9.286   8.074
80087SOL    HW142035   3.647   9.215   8.028
80087SOL    HW242036   3.742   9.331   8.007
80088SOL     OW42037  11.849   0.473   9.846
80088SOL    HW142038  11.930   0.488   9.895
80088SOL    HW242039  11.853   0.381   9.820
80089SOL     OW42040  12.305   3.181   3.794
80089SOL    HW142041  12.335   3.256   3.743
80089SOL    HW242042  12.377   3.163   3.854
80090SOL     OW42043   5.135   3.369   4.072
80090SOL    HW142044   5.142   3.351   4.165
80090SOL    HW242045   5.210   3.425   4.052
80091SOL     OW42046   1.830   5.189   0.653
80091SOL    HW142047   1.807   5.117   0.594
80091SOL    HW242048   1.915   5.164   0.689
80092SOL     OW42049   0.849  14.756   4.468
80092SOL    HW142050   0.807  14.782   4.387
80092SOL    HW242051   0.801  14.803   4.536
80093SOL     OW42052  13.783   6.749   8.510
80093SOL    HW142053  13.766   6.659   8.481
80093SOL    HW242054  13.850   6.740   8.578
80094SOL     OW42055   7.449   3.842   3.948
80094SOL    HW142056   7.358   3.820   3.928
80094SOL    HW242057   7.445   3.930   3.986
80095SOL     OW42058   0.574   1.452   0.156
80095SOL    HW142059   0.520   1.392   0.104
80095SOL    HW242060   0.612   1.396   0.224
80096SOL     OW42061  12.372   4.570  12.721
80096SOL    HW142062  12.294   4.609  12.682
80096SOL    HW242063  12.389   4.623  12.800
80097SOL     OW42064   8.792   4.894   3.004
80097SOL    HW142065   8.699   4.886   3.025
80097SOL    HW242066   8.808   4.988   3.003
80098SOL     OW42067   8.713   1.356   0.283
80098SOL    HW142068   8.773   1.429   0.296
80098SOL    HW242069   8.757   1.300   0.218
80099SOL     OW42070   2.368  11.273   7.662
80099SOL    HW142071   2.402  11.228   7.585
80099SOL    HW242072   2.443  11.320   7.698
80100SOL     OW42073   9.923  11.035   2.601
80100SOL    HW142074   9.954  11.120   2.629
80100SOL    HW242075   9.828  11.042   2.603
80101SOL     OW42076   7.029   2.025   0.031
80101SOL    HW142077   7.023   2.069  14.827
80101SOL    HW242078   6.941   1.990   0.045
80102SOL     OW42079   0.781   5.902   0.197
80102SOL    HW142080   0.830   5.956   0.259
80102SOL    HW242081   0.691   5.934   0.203
80103SOL     OW42082   5.625  14.690   1.189
80103SOL    HW142083   5.636  14.697   1.284
80103SOL    HW242084   5.637  14.780   1.158
80104SOL     OW42085   9.289   6.587   2.258
80104SOL    HW142086   9.361   6.633   2.215
80104SOL    HW242087   9.322   6.569   2.347
80105SOL     OW42088   1.173   6.946   1.929
80105SOL    HW142089   1.221   6.912   2.004
80105SOL    HW242090   1.133   7.027   1.961
80106SOL     OW42091   1.847   9.452   6.628
80106SOL    HW142092   1.769   9.497   6.662
80106SOL    HW242093   1.918   9.513   6.643
80107SOL     OW42094  12.050  11.632   0.688
80107SOL    HW142095  12.126  11.656   0.740
80107SOL    HW242096  11.990  11.590   0.750
80108SOL     OW42097  13.976   3.402   9.288
80108SOL    HW142098  13.967   3.492   9.319
80108SOL    HW242099  14.071   3.387   9.286
80109SOL     OW42100  13.653  14.468   5.869
80109SOL    HW142101  13.606  14.385   5.868
80109SOL    HW242102  13.615  14.516   5.942
80110SOL     OW42103   4.875  10.089   7.895
80110SOL    HW142104   4.885   9.998   7.925
80110SOL    HW242105   4.790  10.116   7.929
80111SOL     OW42106  11.660  13.171   1.733
80111SOL    HW142107  11.603  13.170   1.656
80111SOL    HW242108  11.604  13.141   1.805
80112SOL     OW42109   3.029   4.397  13.927
80112SOL    HW142110   3.101   4.346  13.964
80112SOL    HW242111   2.957   4.335  13.917
80113SOL     OW42112   8.553   7.757  10.213
80113SOL    HW142113   8.555   7.751  10.118
80113SOL    HW242114   8.598   7.839  10.233
80114SOL     OW42115   8.670   7.043   9.758
80114SOL    HW142116   8.711   7.129   9.755
80114SOL    HW242117   8.631   7.037   9.845
80115SOL     OW42118   2.069   2.507   2.987
80115SOL    HW142119   2.082   2.497   2.893
80115SOL    HW242120   2.074   2.601   3.003
80116SOL     OW42121   1.140   7.787   5.746
80116SOL    HW142122   1.183   7.828   5.821
80116SOL    HW242123   1.206   7.786   5.677
80117SOL     OW42124   9.182  11.744   8.651
80117SOL    HW142125   9.144  11.673   8.599
80117SOL    HW242126   9.109  11.803   8.670
80118SOL     OW42127   2.117   4.286   7.930
80118SOL    HW142128   2.156   4.212   7.882
80118SOL    HW242129   2.155   4.280   8.018
80119SOL     OW42130   3.287  14.200   2.801
80119SOL    HW142131   3.240  14.261   2.858
80119SOL    HW242132   3.249  14.213   2.715
80120SOL     OW42133  11.582   6.945  14.881
80120SOL    HW142134  11.641   6.921   0.071
80120SOL    HW242135  11.559   6.862  14.840
80121SOL     OW42136  14.793  13.004  14.282
80121SOL    HW142137  14.703  13.001  14.250
80121SOL    HW242138  14.790  12.956  14.365
80122SOL     OW42139  10.158  13.835  10.384
80122SOL    HW142140  10.246  13.799  10.393
80122SOL    HW242141  10.168  13.910  10.325
80123SOL     OW42142  13.642  11.833   3.865
80123SOL    HW142143  13.557  11.849   3.905
80123SOL    HW242144  13.644  11.891   3.789
80124SOL     OW42145   4.851  11.595   4.675
80124SOL    HW142146   4.865  11.527   4.609
80124SOL    HW242147   4.768  11.572   4.717
80125SOL     OW42148   1.546   2.101   0.517
80125SOL    HW142149   1.481   2.059   0.574
80125SOL    HW242150   1.537   2.194   0.536
80126SOL     OW42151   2.376  12.965   5.092
80126SOL    HW142152   2.364  12.933   5.181
80126SOL    HW242153   2.462  12.930   5.066
80127SOL     OW42154  10.761  10.622   8.659
80127SOL    HW142155  10.854  10.612   8.675
80127SOL    HW242156  10.738  10.547   8.603
80128SOL     OW42157   2.283  12.998   4.184
80128SOL    HW142158   2.315  12.933   4.121
80128SOL    HW242159   2.235  13.062   4.131
80129SOL     OW42160   7.163   3.574   8.356
80129SOL    HW142161   7.102   3.555   8.284
80129SOL    HW242162   7.106   3.593   8.430
80130SOL     OW42163   6.263  10.995   4.571
80130SOL    HW142164   6.310  11.049   4.506
80130SOL    HW242165   6.271  10.906   4.539
80131SOL     OW42166   0.408  12.863   6.345
80131SOL    HW142167   0.330  12.808   6.336
80131SOL    HW242168   0.406  12.892   6.436
80132SOL     OW42169  12.806  12.206   3.303
80132SOL    HW142170  12.865  12.280   3.322
80132SOL    HW242171  12.835  12.137   3.362
80133SOL     OW42172   0.837  12.845   4.376
80133SOL    HW142173   0.774  12.892   4.431
80133SOL    HW242174   0.784  12.805   4.308
80134SOL     OW42175   0.400   4.632  11.553
80134SOL    HW142176   0.421   4.675  11.470
80134SOL    HW242177   0.314   4.593  11.539
80135SOL     OW42178  13.845   6.380   9.728
80135SOL    HW142179  13.787   6.420   9.792
80135SOL    HW242180  13.894   6.454   9.691
80136SOL     OW42181   3.381   2.614   4.607
80136SOL    HW142182   3.306   2.563   4.637
80136SOL    HW242183   3.416   2.564   4.533
80137SOL     OW42184   0.110   4.762  12.813
80137SOL    HW142185   0.188   4.790  12.861
80137SOL    HW242186   0.145   4.718  12.735
80138SOL     OW42187   4.533   1.575   5.388
80138SOL    HW142188   4.466   1.628   5.346
80138SOL    HW242189   4.579   1.532   5.316
80139SOL     OW42190   9.028   6.350   4.985
80139SOL    HW142191   8.996   6.438   4.964
80139SOL    HW242192   9.099   6.364   5.047
80140SOL     OW42193  10.881   9.483  12.357
80140SOL    HW142194  10.902   9.460  12.266
80140SOL    HW242195  10.803   9.432  12.376
80141SOL     OW42196   3.977   2.538  10.135
80141SOL    HW142197   4.043   2.485  10.181
80141SOL    HW242198   4.021   2.567  10.056
80142SOL     OW42199   1.600  12.656   0.161
80142SOL    HW142200   1.653  12.730   0.130
80142SOL    HW242201   1.614  12.654   0.256
80143SOL     OW42202   1.788  14.277   5.734
80143SOL    HW142203   1.786  14.314   5.822
80143SOL    HW242204   1.745  14.191   5.743
80144SOL     OW42205   5.206  12.825   6.602
80144SOL    HW142206   5.247  12.791   6.523
80144SOL    HW242207   5.208  12.920   6.592
80145SOL     OW42208   3.614  12.679   4.416
80145SOL    HW142209   3.621  12.708   4.326
80145SOL    HW242210   3.523  12.652   4.426
80146SOL     OW42211  11.496  11.883   9.065
80146SOL    HW142212  11.506  11.965   9.113
80146SOL    HW242213  11.512  11.907   8.973
80147SOL     OW42214   6.289   3.886   9.433
80147SOL    HW142215   6.276   3.866   9.340
80147SOL    HW242216   6.317   3.804   9.473
80148SOL     OW42217   5.012   6.085  12.934
80148SOL    HW142218   5.092   6.098  12.985
80148SOL    HW242219   4.976   6.173  12.922
80149SOL     OW42220   5.783  13.875   6.022
80149SOL    HW142221   5.737  13.917   6.095
80149SOL    HW242222   5.714  13.860   5.957
80150SOL     OW42223  14.876  10.826  12.144
80150SOL    HW142224  14.797  10.841  12.195
80150SOL    HW242225   0.006  10.906  12.094
80151SOL     OW42226  14.686  10.545  14.194
80151SOL    HW142227  14.605  10.592  14.213
80151SOL    HW242228  14.754  10.613  14.192
80152SOL     OW42229   2.661   0.515   2.700
80152SOL    HW142230   2.645   0.549   2.788
80152SOL    HW242231   2.662   0.593   2.644
80153SOL     OW42232   4.479   4.534   0.746
80153SOL    HW142233   4.420   4.463   0.772
80153SOL    HW242234   4.566   4.505   0.772
80154SOL     OW42235   0.094   5.313  10.434
80154SOL    HW142236   0.086   5.342  10.343
80154SOL    HW242237   0.054   5.226  10.436
80155SOL     OW42238   6.108   3.679   9.754
80155SOL    HW142239   6.110   3.590   9.718
80155SOL    HW242240   6.033   3.720   9.711
80156SOL     OW42241  12.001   7.984  11.116
80156SOL    HW142242  12.060   8.057  11.136
80156SOL    HW242243  11.914   8.015  11.142
80157SOL     OW42244   3.689   4.029   6.212
80157SOL    HW142245   3.748   3.989   6.148
80157SOL    HW242246   3.609   3.977   6.207
80158SOL     OW42247   8.159  11.991   0.546
80158SOL    HW142248   8.098  11.937   0.596
80158SOL    HW242249   8.116  12.005   0.462
80159SOL     OW42250   6.016   1.870   2.274
80159SOL    HW142251   6.057   1.926   2.208
80159SOL    HW242252   5.980   1.932   2.338
80160SOL     OW42253  10.712  14.354   0.495
80160SOL    HW142254  10.772  14.429   0.497
80160SOL    HW242255  10.637  14.382   0.548
80161SOL     OW42256   1.922   2.664   5.953
80161SOL    HW142257   1.866   2.597   5.991
80161SOL    HW242258   1.939   2.725   6.024
80162SOL     OW42259  10.981   9.398   6.096
80162SOL    HW142260  11.057   9.340   6.091
80162SOL    HW242261  11.014   9.477   6.138
80163SOL     OW42262   8.260   8.210   9.457
80163SOL    HW142263   8.265   8.218   9.552
80163SOL    HW242264   8.349   8.225   9.427
80164SOL     OW42265   5.531   3.594  10.317
80164SOL    HW142266   5.549   3.673  10.266
80164SOL    HW242267   5.492   3.626  10.398
80165SOL     OW42268   7.591   6.566   7.423
80165SOL    HW142269   7.550   6.481   7.441
80165SOL    HW242270   7.646   6.582   7.499
80166SOL     OW42271   7.336   3.968  10.034
80166SOL    HW142272   7.389   3.944   9.958
80166SOL    HW242273   7.293   3.887  10.060
80167SOL     OW42274  11.380   3.017   0.364
80167SOL    HW142275  11.396   2.959   0.289
80167SOL    HW242276  11.435   2.981   0.434
80168SOL     OW42277   7.124   0.727   4.382
80168SOL    HW142278   7.174   0.668   4.326
80168SOL    HW242279   7.189   0.788   4.417
80169SOL     OW42280   6.817   7.653   5.005
80169SOL    HW142281   6.895   7.622   5.050
80169SOL    HW242282   6.745   7.605   5.045
80170SOL     OW42283   3.361   1.179   9.210
80170SOL    HW142284   3.432   1.210   9.154
80170SOL    HW242285   3.396   1.184   9.299
80171SOL     OW42286   6.500   8.442  14.856
80171SOL    HW142287   6.487   8.377   0.043
80171SOL    HW242288   6.414   8.452  14.816
80172SOL     OW42289   2.628   7.885   0.204
80172SOL    HW142290   2.596   7.939   0.132
80172SOL    HW242291   2.719   7.866   0.181
80173SOL     OW42292   7.207   7.822  14.770
80173SOL    HW142293   7.207   7.898  14.711
80173SOL    HW242294   7.154   7.757  14.724
80174SOL     OW42295   6.942   4.495   8.511
80174SOL    HW142296   6.929   4.463   8.600
80174SOL    HW242297   7.035   4.476   8.492
80175SOL     OW42298   2.392  10.731  12.280
80175SOL    HW142299   2.400  10.771  12.367
80175SOL    HW242300   2.438  10.791  12.221
80176SOL     OW42301   6.572  10.384   9.835
80176SOL    HW142302   6.570  10.352   9.925
80176SOL    HW242303   6.662  10.370   9.806
80177SOL     OW42304   0.565  10.512  14.276
80177SOL    HW142305   0.593  10.558  14.196
80177SOL    HW242306   0.477  10.483  14.256
80178SOL     OW42307   5.746   6.691   0.173
80178SOL    HW142308   5.657   6.717   0.149
80178SOL    HW242309   5.803   6.748   0.121
80179SOL     OW42310   9.776   5.039   1.169
80179SOL    HW142311   9.755   5.059   1.078
80179SOL    HW242312   9.744   4.950   1.183
80180SOL     OW42313   0.229   7.627   7.574
80180SOL    HW142314   0.285   7.691   7.530
80180SOL    HW242315   0.291   7.564   7.612
80181SOL     OW42316   7.523  12.761   1.261
80181SOL    HW142317   7.555  12.733   1.175
80181SOL    HW242318   7.518  12.680   1.312
80182SOL     OW42319   7.897   1.822   6.510
80182SOL    HW142320   7.913   1.733   6.477
80182SOL    HW242321   7.815   1.815   6.559
80183SOL     OW42322   5.053  13.778   2.701
80183SOL    HW142323   5.035  13.798   2.793
80183SOL    HW242324   4.975  13.729   2.673
80184SOL     OW42325   3.352   9.724   6.699
80184SOL    HW142326   3.298   9.677   6.636
80184SOL    HW242327   3.311   9.708   6.783
80185SOL     OW42328   4.311   9.456   9.742
80185SOL    HW142329   4.393   9.450   9.790
80185SOL    HW242330   4.309   9.376   9.688
80186SOL     OW42331  10.234   4.263   2.500
80186SOL    HW142332  10.270   4.323   2.436
80186SOL    HW242333  10.310   4.219   2.538
80187SOL     OW42334   4.708   3.781   4.012
80187SOL    HW142335   4.629   3.744   4.052
80187SOL    HW242336   4.778   3.761   4.075
80188SOL     OW42337   1.979  12.014   0.567
80188SOL    HW142338   1.966  12.091   0.622
80188SOL    HW242339   1.892  11.995   0.531
80189SOL     OW42340   2.876   1.644  10.643
80189SOL    HW142341   2.836   1.563  10.675
80189SOL    HW242342   2.908   1.688  10.722
80190SOL     OW42343   1.502   2.509  12.951
80190SOL    HW142344   1.553   2.434  12.922
80190SOL    HW242345   1.412   2.487  12.927
80191SOL     OW42346   0.967   1.439   3.675
80191SOL    HW142347   0.892   1.494   3.699
80191SOL    HW242348   0.996   1.402   3.759
80192SOL     OW42349  10.346   8.281   0.340
80192SOL    HW142350  10.319   8.215   0.276
80192SOL    HW242351  10.418   8.327   0.298
80193SOL     OW42352   9.788   1.382   6.859
80193SOL    HW142353   9.849   1.311   6.876
80193SOL    HW242354   9.721   1.373   6.926
80194SOL     OW42355   3.375   0.718   3.787
80194SOL    HW142356   3.360   0.753   3.875
80194SOL    HW242357   3.303   0.658   3.772
80195SOL     OW42358   9.350   1.641   0.684
80195SOL    HW142359   9.394   1.726   0.682
80195SOL    HW242360   9.346   1.618   0.777
80196SOL     OW42361   1.446  12.340   0.276
80196SOL    HW142362   1.527  12.292   0.261
80196SOL    HW242363   1.400  12.289   0.343
80197SOL     OW42364   1.206   2.132   8.551
80197SOL    HW142365   1.213   2.179   8.468
80197SOL    HW242366   1.194   2.201   8.617
80198SOL     OW42367  13.862   4.677  10.478
80198SOL    HW142368  13.786   4.650  10.427
80198SOL    HW242369  13.888   4.598  10.525
80199SOL     OW42370   6.530   9.450  11.094
80199SOL    HW142371   6.501   9.477  11.007
80199SOL    HW242372   6.623   9.474  11.097
80200SOL     OW42373   3.283  11.745  13.553
80200SOL    HW142374   3.306  11.782  13.638
80200SOL    HW242375   3.188  11.757  13.546
80201SOL     OW42376   6.435   6.838   4.088
80201SOL    HW142377   6.434   6.877   4.176
80201SOL    HW242378   6.343   6.822   4.068
80202SOL     OW42379   8.382   1.898   8.653
80202SOL    HW142380   8.444   1.942   8.712
80202SOL    HW242381   8.356   1.967   8.591
80203SOL     OW42382   6.584   5.011  11.111
80203SOL    HW142383   6.647   5.063  11.161
80203SOL    HW242384   6.517   5.074  11.084
80204SOL     OW42385   3.110   4.494   3.809
80204SOL    HW142386   3.167   4.507   3.733
80204SOL    HW242387   3.111   4.578   3.855
80205SOL     OW42388   4.895   3.890   5.104
80205SOL    HW142389   4.882   3.971   5.055
80205SOL    HW242390   4.814   3.841   5.091
80206SOL     OW42391  11.470   7.894   7.725
80206SOL    HW142392  11.523   7.896   7.804
80206SOL    HW242393  11.393   7.841   7.749
80207SOL     OW42394   4.297  12.750   5.436
80207SOL    HW142395   4.284  12.722   5.527
80207SOL    HW242396   4.238  12.824   5.425
80208SOL     OW42397   0.208   0.479   9.343
80208SOL    HW142398   0.155   0.530   9.282
80208SOL    HW242399   0.280   0.537   9.368
80209SOL     OW42400   2.342   9.397  11.174
80209SOL    HW142401   2.250   9.372  11.161
80209SOL    HW242402   2.390   9.343  11.112
80210SOL     OW42403   8.432   9.864   3.128
80210SOL    HW142404   8.378   9.838   3.053
80210SOL    HW242405   8.460   9.954   3.107
80211SOL     OW42406  11.652   5.154   4.762
80211SOL    HW142407  11.622   5.064   4.772
80211SOL    HW242408  11.747   5.150   4.774
80212SOL     OW42409   2.087   3.565   8.327
80212SOL    HW142410   2.030   3.490   8.310
80212SOL    HW242411   2.082   3.579   8.421
80213SOL     OW42412  11.836   5.204   1.869
80213SOL    HW142413  11.761   5.216   1.927
80213SOL    HW242414  11.798   5.201   1.781
80214SOL     OW42415   8.434  13.537   5.711
80214SOL    HW142416   8.465  13.493   5.633
80214SOL    HW242417   8.358  13.486   5.739
80215SOL     OW42418   2.494   7.611   2.697
80215SOL    HW142419   2.413   7.620   2.747
80215SOL    HW242420   2.557   7.574   2.759
80216SOL     OW42421   8.693  12.564   6.282
80216SOL    HW142422   8.718  12.473   6.296
80216SOL    HW242423   8.661  12.594   6.367
80217SOL     OW42424   4.268   8.245   9.137
80217SOL    HW142425   4.221   8.169   9.102
80217SOL    HW242426   4.200   8.312   9.149
80218SOL     OW42427   4.780  14.214   7.028
80218SOL    HW142428   4.701  14.265   7.047
80218SOL    HW242429   4.820  14.199   7.113
80219SOL     OW42430   6.065  13.178  13.225
80219SOL    HW142431   6.040  13.150  13.137
80219SOL    HW242432   6.090  13.269  13.216
80220SOL     OW42433   2.367   8.286  11.112
80220SOL    HW142434   2.361   8.250  11.024
80220SOL    HW242435   2.455   8.325  11.116
80221SOL     OW42436   5.515   0.847  13.271
80221SOL    HW142437   5.555   0.840  13.357
80221SOL    HW242438   5.460   0.769  13.264
80222SOL     OW42439   3.896   1.669   8.634
80222SOL    HW142440   3.849   1.617   8.699
80222SOL    HW242441   3.839   1.745   8.618
80223SOL     OW42442   3.271   2.254   5.141
80223SOL    HW142443   3.282   2.165   5.175
80223SOL    HW242444   3.358   2.294   5.152
80224SOL     OW42445   6.023  10.754   6.724
80224SOL    HW142446   5.934  10.748   6.758
80224SOL    HW242447   6.013  10.754   6.629
80225SOL     OW42448   5.887   8.172   3.433
80225SOL    HW142449   5.868   8.128   3.516
80225SOL    HW242450   5.900   8.264   3.456
80226SOL     OW42451  13.070   6.812   0.877
80226SOL    HW142452  13.006   6.828   0.946
80226SOL    HW242453  13.152   6.795   0.924
80227SOL     OW42454  10.520  13.221   3.451
80227SOL    HW142455  10.567  13.288   3.500
80227SOL    HW242456  10.462  13.271   3.393
80228SOL     OW42457   0.252  11.994  12.268
80228SOL    HW142458   0.286  11.914  12.307
80228SOL    HW242459   0.160  11.997  12.295
80229SOL     OW42460   5.677   2.035   6.278
80229SOL    HW142461   5.758   2.053   6.325
80229SOL    HW242462   5.610   2.026   6.346
80230SOL     OW42463   9.437   6.299   3.152
80230SOL    HW142464   9.445   6.372   3.091
80230SOL    HW242465   9.423   6.222   3.096
80231SOL     OW42466  11.423   4.745   2.618
80231SOL    HW142467  11.443   4.670   2.673
80231SOL    HW242468  11.443   4.715   2.529
80232SOL     OW42469   5.567   6.464   0.519
80232SOL    HW142470   5.601   6.376   0.537
80232SOL    HW242471   5.500   6.478   0.587
80233SOL     OW42472  11.796   2.032   7.913
80233SOL    HW142473  11.839   2.114   7.939
80233SOL    HW242474  11.703   2.054   7.910
80234SOL     OW42475   8.474  10.433   8.226
80234SOL    HW142476   8.515  10.518   8.237
80234SOL    HW242477   8.502  10.383   8.303
80235SOL     OW42478   7.534   8.168   4.700
80235SOL    HW142479   7.541   8.260   4.728
80235SOL    HW242480   7.608   8.155   4.641
80236SOL     OW42481   4.901  11.588  12.428
80236SOL    HW142482   4.809  11.598  12.451
80236SOL    HW242483   4.923  11.669  12.382
80237SOL     OW42484   8.635  10.419   1.248
80237SOL    HW142485   8.561  10.360   1.254
80237SOL    HW242486   8.597  10.507   1.249
80238SOL     OW42487   6.255   1.104   8.981
80238SOL    HW142488   6.184   1.168   8.991
80238SOL    HW242489   6.257   1.086   8.887
80239SOL     OW42490   3.565   2.787   5.628
80239SOL    HW142491   3.561   2.701   5.584
80239SOL    HW242492   3.653   2.819   5.609
80240SOL     OW42493  10.784   9.903   1.218
80240SOL    HW142494  10.700   9.947   1.200
80240SOL    HW242495  10.775   9.871   1.308
80241SOL     OW42496   5.676  11.070  12.059
80241SOL    HW142497   5.619  11.126  12.007
80241SOL    HW242498   5.620  10.997  12.085
80242SOL     OW42499   0.657   3.427  12.862
80242SOL    HW142500   0.596   3.480  12.913
80242SOL    HW242501   0.726   3.488  12.836
80243SOL     OW42502  10.267  13.527  10.138
80243SOL    HW142503  10.190  13.499  10.087
80243SOL    HW242504  10.320  13.577  10.076
80244SOL     OW42505   1.734   5.320   4.076
80244SOL    HW142506   1.727   5.378   4.001
80244SOL    HW242507   1.808   5.263   4.055
80245SOL     OW42508   3.687  14.811   7.618
80245SOL    HW142509   3.681  14.717   7.602
80245SOL    HW242510   3.713  14.818   7.710
80246SOL     OW42511   6.258   1.956  14.507
80246SOL    HW142512   6.310   1.927  14.581
80246SOL    HW242513   6.243   2.049  14.524
80247SOL     OW42514   8.645   9.937   5.454
80247SOL    HW142515   8.641   9.958   5.361
80247SOL    HW242516   8.572   9.985   5.493
80248SOL     OW42517  10.299   3.138   8.333
80248SOL    HW142518  10.387   3.101   8.339
80248SOL    HW242519  10.312   3.233   8.343
80249SOL     OW42520   8.627   4.103  10.490
80249SOL    HW142521   8.573   4.178  10.463
80249SOL    HW242522   8.709   4.114  10.441
80250SOL     OW42523   5.913  10.914   5.471
80250SOL    HW142524   5.907  10.923   5.566
80250SOL    HW242525   5.951  10.997   5.441
80251SOL     OW42526  10.752  13.052   5.636
80251SOL    HW142527  10.661  13.031   5.614
80251SOL    HW242528  10.775  12.989   5.704
80252SOL     OW42529  11.495   5.130   8.279
80252SOL    HW142530  11.521   5.200   8.339
80252SOL    HW242531  11.571   5.072   8.276
80253SOL     OW42532   8.035  13.580   1.361
80253SOL    HW142533   8.111  13.522   1.354
80253SOL    HW242534   8.001  13.586   1.272
80254SOL     OW42535  14.829  10.770   4.537
80254SOL    HW142536  14.747  10.815   4.555
80254SOL    HW242537  14.860  10.808   4.454
80255SOL     OW42538  12.320   5.265  12.058
80255SOL    HW142539  12.268   5.268  12.138
80255SOL    HW242540  12.399   5.218  12.082
80256SOL     OW42541   8.031   7.653   4.117
80256SOL    HW142542   8.048   7.723   4.180
80256SOL    HW242543   7.936   7.640   4.120
80257SOL     OW42544  10.468   7.752  10.796
80257SOL    HW142545  10.403   7.810  10.755
80257SOL    HW242546  10.416   7.682  10.835
80258SOL     OW42547  11.468   1.527  10.362
80258SOL    HW142548  11.553   1.564  10.385
80258SOL    HW242549  11.417   1.530  10.443
80259SOL     OW42550  13.265   2.822  10.070
80259SOL    HW142551  13.236   2.913  10.065
80259SOL    HW242552  13.241   2.784   9.986
80260SOL     OW42553   7.159   1.953  11.236
80260SOL    HW142554   7.122   1.916  11.316
80260SOL    HW242555   7.227   1.891  11.210
80261SOL     OW42556   3.041  10.120   8.436
80261SOL    HW142557   3.091  10.199   8.456
80261SOL    HW242558   3.086  10.050   8.484
80262SOL     OW42559   5.296  11.238   4.291
80262SOL    HW142560   5.368  11.243   4.228
80262SOL    HW242561   5.218  11.261   4.241
80263SOL     OW42562  10.501   9.547   5.113
80263SOL    HW142563  10.580   9.514   5.070
80263SOL    HW242564  10.446   9.578   5.041
80264SOL     OW42565  13.448  14.644  11.843
80264SOL    HW142566  13.481  14.578  11.782
80264SOL    HW242567  13.395  14.702  11.789
80265SOL     OW42568   0.516  10.980  13.066
80265SOL    HW142569   0.481  10.893  13.046
80265SOL    HW242570   0.567  10.968  13.146
80266SOL     OW42571  11.106   0.904   9.455
80266SOL    HW142572  11.170   0.852   9.503
80266SOL    HW242573  11.155   0.943   9.383
80267SOL     OW42574  12.591   0.015  13.739
80267SOL    HW142575  12.658  14.829  13.744
80267SOL    HW242576  12.537  14.871  13.663
80268SOL     OW42577   4.603  12.583  14.140
80268SOL    HW142578   4.566  12.502  14.174
80268SOL    HW242579   4.594  12.576  14.045
80269SOL     OW42580  14.873   3.469  10.387
80269SOL    HW142581   0.076   3.513  10.396
80269SOL    HW242582  14.832   3.478  10.473
80270SOL     OW42583  11.032   2.179   4.514
80270SOL    HW142584  11.046   2.224   4.597
80270SOL    HW242585  11.097   2.110   4.512
80271SOL     OW42586   1.948  12.976   2.916
80271SOL    HW142587   1.861  12.990   2.878
80271SOL    HW242588   1.934  12.906   2.981
80272SOL     OW42589   5.637  13.293  13.909
80272SOL    HW142590   5.688  13.212  13.919
80272SOL    HW242591   5.641  13.312  13.816
80273SOL     OW42592   7.290   9.502   7.722
80273SOL    HW142593   7.340   9.421   7.716
80273SOL    HW242594   7.200   9.474   7.737
80274SOL     OW42595   3.908   2.635  14.113
80274SOL    HW142596   3.897   2.709  14.173
80274SOL    HW242597   3.973   2.664  14.049
80275SOL     OW42598  10.162  11.353   1.576
80275SOL    HW142599  10.237  11.402   1.541
80275SOL    HW242600  10.184  11.261   1.558
80276SOL     OW42601  12.262   3.622  12.274
80276SOL    HW142602  12.195   3.689  12.284
80276SOL    HW242603  12.226   3.562  12.209
80277SOL     OW42604   3.580   9.642   6.360
80277SOL    HW142605   3.635   9.602   6.427
80277SOL    HW242606   3.494   9.651   6.401
80278SOL     OW42607  11.773   5.317   7.389
80278SOL    HW142608  11.796   5.387   7.328
80278SOL    HW242609  11.698   5.274   7.349
80279SOL     OW42610   8.556   4.064   6.298
80279SOL    HW142611   8.514   4.053   6.213
80279SOL    HW242612   8.489   4.037   6.361
80280SOL     OW42613   4.366   7.253   9.002
80280SOL    HW142614   4.376   7.333   9.054
80280SOL    HW242615   4.454   7.234   8.969
80281SOL     OW42616  10.941   6.397   7.243
80281SOL    HW142617  10.997   6.422   7.316
80281SOL    HW242618  10.874   6.341   7.282
80282SOL     OW42619   1.918  13.812   2.249
80282SOL    HW142620   1.906  13.867   2.171
80282SOL    HW242621   1.834  13.816   2.294
80283SOL     OW42622   8.464   2.770   9.974
80283SOL    HW142623   8.436   2.745  10.062
80283SOL    HW242624   8.383   2.775   9.924
80284SOL     OW42625  14.862   9.152  12.770
80284SOL    HW142626   0.053   9.090  12.779
80284SOL    HW242627   0.022   9.238  12.773
80285SOL     OW42628  11.182   1.052   2.959
80285SOL    HW142629  11.225   1.116   2.902
80285SOL    HW242630  11.149   1.103   3.032
80286SOL     OW42631  13.330   7.765   1.685
80286SOL    HW142632  13.256   7.727   1.637
80286SOL    HW242633  13.353   7.843   1.634
80287SOL     OW42634   9.902   2.601   3.071
80287SOL    HW142635   9.833   2.664   3.047
80287SOL    HW242636   9.874   2.568   3.157
80288SOL     OW42637   9.036  11.625   1.538
80288SOL    HW142638   9.019  11.630   1.444
80288SOL    HW242639   9.070  11.712   1.561
80289SOL     OW42640   1.003  14.515   7.669
80289SOL    HW142641   1.034  14.499   7.580
80289SOL    HW242642   1.061  14.582   7.703
80290SOL     OW42643   1.594   7.442   1.381
80290SOL    HW142644   1.551   7.408   1.459
80290SOL    HW242645   1.655   7.373   1.355
80291SOL     OW42646   4.581  12.228  11.382
80291SOL    HW142647   4.669  12.237  11.420
80291SOL    HW242648   4.597  12.215  11.289
80292SOL     OW42649   1.095  12.151   4.011
80292SOL    HW142650   1.045  12.074   3.984
80292SOL    HW242651   1.030  12.211   4.046
80293SOL     OW42652   9.365   5.635  12.133
80293SOL    HW142653   9.410   5.702  12.185
80293SOL    HW242654   9.279   5.673  12.115
80294SOL     OW42655   6.309   2.500   0.702
80294SOL    HW142656   6.283   2.448   0.625
80294SOL    HW242657   6.229   2.507   0.753
80295SOL     OW42658   0.527   5.520  11.864
80295SOL    HW142659   0.531   5.479  11.950
80295SOL    HW242660   0.597   5.586  11.866
80296SOL     OW42661   8.455   2.290  13.131
80296SOL    HW142662   8.474   2.222  13.195
80296SOL    HW242663   8.407   2.356  13.180
80297SOL     OW42664  12.155  14.704  10.777
80297SOL    HW142665  12.209  14.783  10.778
80297SOL    HW242666  12.070  14.732  10.808
80298SOL     OW42667   0.252   3.470   2.799
80298SOL    HW142668   0.211   3.458   2.714
80298SOL    HW242669   0.209   3.547   2.836
80299SOL     OW42670   3.956  13.308   8.173
80299SOL    HW142671   3.889  13.325   8.106
80299SOL    HW242672   4.008  13.236   8.138
80300SOL     OW42673   2.357  12.457   2.059
80300SOL    HW142674   2.368  12.455   1.964
80300SOL    HW242675   2.263  12.460   2.073
80301SOL     OW42676  10.375   2.217   6.344
80301SOL    HW142677  10.294   2.181   6.310
80301SOL    HW242678  10.357   2.310   6.356
80302SOL     OW42679   7.925  10.157   8.282
80302SOL    HW142680   7.938  10.063   8.282
80302SOL    HW242681   7.851  10.172   8.341
80303SOL     OW42682   2.060   3.659  13.584
80303SOL    HW142683   2.012   3.702  13.655
80303SOL    HW242684   2.047   3.715  13.508
80304SOL     OW42685  14.663  14.761  11.138
80304SOL    HW142686  14.730  14.699  11.110
80304SOL    HW242687  14.688  14.786  11.227
80305SOL     OW42688   1.186   9.069   1.081
80305SOL    HW142689   1.097   9.041   1.104
80305SOL    HW242690   1.213   9.008   1.012
80306SOL     OW42691   8.250   9.423  10.999
80306SOL    HW142692   8.243   9.396  10.907
80306SOL    HW242693   8.188   9.495  11.007
80307SOL     OW42694  13.077  10.153  11.238
80307SOL    HW142695  13.109  10.205  11.164
80307SOL    HW242696  12.982  10.156  11.230
80308SOL     OW42697  12.051  14.377  12.394
80308SOL    HW142698  11.967  14.420  12.376
80308SOL    HW242699  12.085  14.422  12.471
80309SOL     OW42700   9.539  14.610  11.848
80309SOL    HW142701   9.494  14.634  11.766
80309SOL    HW242702   9.632  14.609  11.824
80310SOL     OW42703  13.180   3.669  12.923
80310SOL    HW142704  13.164   3.760  12.945
80310SOL    HW242705  13.211   3.629  13.004
80311SOL     OW42706   0.909   0.947   3.353
80311SOL    HW142707   0.891   0.853   3.361
80311SOL    HW242708   1.000   0.951   3.324
80312SOL     OW42709   4.253   8.966  11.025
80312SOL    HW142710   4.313   9.038  11.007
80312SOL    HW242711   4.203   8.995  11.101
80313SOL     OW42712   4.884   7.294  12.882
80313SOL    HW142713   4.966   7.311  12.836
80313SOL    HW242714   4.833   7.374  12.871
80314SOL     OW42715  11.449   1.352  14.602
80314SOL    HW142716  11.384   1.297  14.558
80314SOL    HW242717  11.408   1.375  14.686
80315SOL     OW42718   8.287   4.139  12.957
80315SOL    HW142719   8.300   4.232  12.938
80315SOL    HW242720   8.342   4.093  12.893
80316SOL     OW42721  11.165  13.028  11.756
80316SOL    HW142722  11.156  12.973  11.678
80316SOL    HW242723  11.092  13.090  11.751
80317SOL     OW42724   7.022  11.019  13.175
80317SOL    HW142725   6.953  11.000  13.239
80317SOL    HW242726   7.086  10.949  13.187
80318SOL     OW42727   3.371  10.899   4.874
80318SOL    HW142728   3.401  10.984   4.906
80318SOL    HW242729   3.451  10.853   4.850
80319SOL     OW42730   7.163   9.192  11.345
80319SOL    HW142731   7.252   9.169  11.321
80319SOL    HW242732   7.125   9.230  11.265
80320SOL     OW42733   4.025   8.290  10.714
80320SOL    HW142734   4.019   8.204  10.757
80320SOL    HW242735   4.034   8.269  10.621
80321SOL     OW42736   5.417   0.636   4.911
80321SOL    HW142737   5.390   0.628   5.003
80321SOL    HW242738   5.462   0.720   4.906
80322SOL     OW42739   8.927   2.844  10.655
80322SOL    HW142740   8.995   2.815  10.717
80322SOL    HW242741   8.903   2.931  10.686
80323SOL     OW42742   4.701   5.426   6.653
80323SOL    HW142743   4.691   5.331   6.645
80323SOL    HW242744   4.625   5.455   6.703
80324SOL     OW42745  11.576   7.088   6.563
80324SOL    HW142746  11.594   7.170   6.516
80324SOL    HW242747  11.634   7.024   6.523
80325SOL     OW42748  13.603   1.512  11.297
80325SOL    HW142749  13.645   1.592  11.266
80325SOL    HW242750  13.514   1.539  11.320
80326SOL     OW42751  13.797   1.680   1.944
80326SOL    HW142752  13.757   1.739   1.879
80326SOL    HW242753  13.724   1.629   1.978
80327SOL     OW42754   9.185  13.592   7.709
80327SOL    HW142755   9.178  13.641   7.626
80327SOL    HW242756   9.099  13.602   7.750
80328SOL     OW42757   9.791   9.912   0.756
80328SOL    HW142758   9.830   9.901   0.669
80328SOL    HW242759   9.698   9.931   0.738
80329SOL     OW42760   7.789  10.171  11.546
80329SOL    HW142761   7.792  10.249  11.602
80329SOL    HW242762   7.822  10.100  11.601
80330SOL     OW42763   3.188   5.528   6.201
80330SOL    HW142764   3.107   5.480   6.217
80330SOL    HW242765   3.161   5.607   6.154
80331SOL     OW42766   1.643   2.426   5.590
80331SOL    HW142767   1.712   2.381   5.542
80331SOL    HW242768   1.596   2.356   5.637
80332SOL     OW42769   2.241   0.224   8.685
80332SOL    HW142770   2.268   0.274   8.608
80332SOL    HW242771   2.161   0.179   8.659
80333SOL     OW42772   0.588  11.938   9.466
80333SOL    HW142773   0.539  11.873   9.517
80333SOL    HW242774   0.571  12.021   9.510
80334SOL     OW42775   1.968   2.359  13.583
80334SOL    HW142776   1.980   2.436  13.639
80334SOL    HW242777   1.972   2.394  13.493
80335SOL     OW42778   1.866   4.970   1.856
80335SOL    HW142779   1.772   4.975   1.836
80335SOL    HW242780   1.892   5.061   1.872
80336SOL     OW42781   7.229  11.457   6.611
80336SOL    HW142782   7.241  11.515   6.535
80336SOL    HW242783   7.152  11.492   6.656
80337SOL     OW42784   1.661   9.879   7.693
80337SOL    HW142785   1.686   9.966   7.660
80337SOL    HW242786   1.735   9.853   7.748
80338SOL     OW42787   7.577   4.963   4.786
80338SOL    HW142788   7.531   4.986   4.867
80338SOL    HW242789   7.611   4.875   4.802
80339SOL     OW42790   1.075   0.836   3.132
80339SOL    HW142791   1.163   0.842   3.096
80339SOL    HW242792   1.066   0.745   3.159
80340SOL     OW42793  14.435   6.349   9.406
80340SOL    HW142794  14.454   6.271   9.458
80340SOL    HW242795  14.518   6.395   9.398
80341SOL     OW42796   6.900   1.517   4.248
80341SOL    HW142797   6.932   1.538   4.160
80341SOL    HW242798   6.834   1.583   4.266
80342SOL     OW42799   1.238   9.683   0.381
80342SOL    HW142800   1.310   9.718   0.434
80342SOL    HW242801   1.216   9.600   0.422
80343SOL     OW42802  14.637  14.246  13.526
80343SOL    HW142803  14.590  14.255  13.443
80343SOL    HW242804  14.729  14.255  13.503
80344SOL     OW42805   6.295   8.168   1.988
80344SOL    HW142806   6.211   8.148   2.028
80344SOL    HW242807   6.319   8.087   1.942
80345SOL     OW42808  10.321   1.835   0.541
80345SOL    HW142809  10.390   1.897   0.516
80345SOL    HW242810  10.368   1.754   0.561
80346SOL     OW42811  13.441   9.075   8.091
80346SOL    HW142812  13.467   9.147   8.147
80346SOL    HW242813  13.518   9.018   8.087
80347SOL     OW42814   6.812  12.006   4.142
80347SOL    HW142815   6.875  12.052   4.086
80347SOL    HW242816   6.855  11.923   4.163
80348SOL     OW42817   1.051   0.565  11.989
80348SOL    HW142818   1.120   0.594  12.049
80348SOL    HW242819   1.003   0.498  12.037
80349SOL     OW42820  12.098  10.981  14.012
80349SOL    HW142821  12.023  11.037  14.032
80349SOL    HW242822  12.133  11.015  13.930
80350SOL     OW42823  14.597   3.972   7.993
80350SOL    HW142824  14.669   4.003   8.048
80350SOL    HW242825  14.576   4.046   7.936
80351SOL     OW42826  10.100  11.018   8.277
80351SOL    HW142827  10.074  11.065   8.356
80351SOL    HW242828  10.179  11.063   8.247
80352SOL     OW42829   7.764   0.301  11.265
80352SOL    HW142830   7.686   0.263  11.224
80352SOL    HW242831   7.814   0.226  11.295
80353SOL     OW42832   1.807  10.025   5.113
80353SOL    HW142833   1.729  10.017   5.058
80353SOL    HW242834   1.799   9.954   5.176
80354SOL     OW42835   7.562  12.364  13.889
80354SOL    HW142836   7.634  12.331  13.835
80354SOL    HW242837   7.511  12.287  13.911
80355SOL     OW42838   7.856   7.696   8.057
80355SOL    HW142839   7.862   7.603   8.081
80355SOL    HW242840   7.826   7.739   8.137
80356SOL     OW42841  10.161   5.183   7.297
80356SOL    HW142842  10.154   5.110   7.236
80356SOL    HW242843  10.089   5.170   7.359
80357SOL     OW42844   8.692   2.250   1.005
80357SOL    HW142845   8.708   2.286   0.918
80357SOL    HW242846   8.730   2.163   1.003
80358SOL     OW42847   0.109   8.762   6.296
80358SOL    HW142848   0.112   8.821   6.220
80358SOL    HW242849   0.040   8.699   6.275
80359SOL     OW42850  12.715  10.938   9.867
80359SOL    HW142851  12.621  10.917   9.869
80359SOL    HW242852  12.758  10.853   9.858
80360SOL     OW42853   6.970   0.921   9.824
80360SOL    HW142854   7.031   0.976   9.873
80360SOL    HW242855   6.886   0.966   9.830
80361SOL     OW42856  14.861   7.284  14.615
80361SOL    HW142857  14.818   7.266  14.698
80361SOL    HW242858  14.859   7.201  14.568
80362SOL     OW42859   6.571   7.011   7.521
80362SOL    HW142860   6.514   6.945   7.560
80362SOL    HW242861   6.659   6.975   7.529
80363SOL     OW42862  12.493   3.358   9.345
80363SOL    HW142863  12.413   3.306   9.333
80363SOL    HW242864  12.482   3.399   9.431
80364SOL     OW42865   9.863   4.436  10.193
80364SOL    HW142866   9.834   4.366  10.251
80364SOL    HW242867   9.955   4.417  10.175
80365SOL     OW42868  14.182   6.861   5.961
80365SOL    HW142869  14.118   6.834   5.895
80365SOL    HW242870  14.190   6.785   6.019
80366SOL     OW42871  11.801   7.377   7.888
80366SOL    HW142872  11.827   7.285   7.898
80366SOL    HW242873  11.723   7.386   7.944
80367SOL     OW42874   7.152   3.843   8.121
80367SOL    HW142875   7.218   3.784   8.084
80367SOL    HW242876   7.180   3.857   8.211
80368SOL     OW42877   1.516  10.475  10.847
80368SOL    HW142878   1.526  10.515  10.761
80368SOL    HW242879   1.535  10.545  10.909
80369SOL     OW42880   7.792  12.001  12.710
80369SOL    HW142881   7.770  12.011  12.802
80369SOL    HW242882   7.870  12.055  12.697
80370SOL     OW42883  11.782   2.900  13.372
80370SOL    HW142884  11.731   2.867  13.446
80370SOL    HW242885  11.725   2.886  13.296
80371SOL     OW42886  11.586   0.102   7.903
80371SOL    HW142887  11.610   0.057   7.985
80371SOL    HW242888  11.618   0.044   7.834
80372SOL     OW42889   3.583  11.994  12.641
80372SOL    HW142890   3.623  11.920  12.687
80372SOL    HW242891   3.570  11.962  12.551
80373SOL     OW42892   6.235   2.702   2.730
80373SOL    HW142893   6.301   2.634   2.741
80373SOL    HW242894   6.182   2.671   2.656
80374SOL     OW42895  12.052   5.913  12.467
80374SOL    HW142896  12.024   5.999  12.437
80374SOL    HW242897  12.113   5.931  12.539
80375SOL     OW42898   7.705   0.845   9.587
80375SOL    HW142899   7.791   0.822   9.551
80375SOL    HW242900   7.675   0.765   9.630
80376SOL     OW42901  14.735   6.727  13.079
80376SOL    HW142902  14.752   6.800  13.139
80376SOL    HW242903  14.641   6.712  13.085
80377SOL     OW42904   7.269   8.441   6.867
80377SOL    HW142905   7.253   8.406   6.955
80377SOL    HW242906   7.214   8.519   6.863
80378SOL     OW42907   9.098   0.301   8.780
80378SOL    HW142908   9.078   0.358   8.706
80378SOL    HW242909   9.013   0.271   8.811
80379SOL     OW42910  14.801  12.359   5.756
80379SOL    HW142911  14.753  12.438   5.781
80379SOL    HW242912  14.875  12.355   5.816
80380SOL     OW42913   4.610  14.288   9.034
80380SOL    HW142914   4.667  14.276   8.958
80380SOL    HW242915   4.605  14.383   9.046
80381SOL     OW42916  13.776   8.327  12.288
80381SOL    HW142917  13.708   8.389  12.262
80381SOL    HW242918  13.799   8.282  12.207
80382SOL     OW42919   8.655   1.201  11.452
80382SOL    HW142920   8.615   1.259  11.387
80382SOL    HW242921   8.747   1.227  11.454
80383SOL     OW42922   0.556  14.583   2.264
80383SOL    HW142923   0.532  14.577   2.172
80383SOL    HW242924   0.549  14.676   2.285
80384SOL     OW42925   8.941  10.455   8.946
80384SOL    HW142926   8.919  10.548   8.949
80384SOL    HW242927   8.992  10.441   9.025
80385SOL     OW42928  12.910   2.159   4.863
80385SOL    HW142929  12.836   2.208   4.827
80385SOL    HW242930  12.906   2.176   4.957
80386SOL     OW42931   0.215   7.167   2.477
80386SOL    HW142932   0.247   7.257   2.481
80386SOL    HW242933   0.253   7.131   2.396
80387SOL     OW42934  13.816   6.058  14.626
80387SOL    HW142935  13.741   6.111  14.598
80387SOL    HW242936  13.814   6.061  14.721
80388SOL     OW42937  14.631   6.269   3.601
80388SOL    HW142938  14.593   6.293   3.685
80388SOL    HW242939  14.663   6.179   3.613
80389SOL     OW42940   0.522   9.107   4.832
80389SOL    HW142941   0.592   9.046   4.808
80389SOL    HW242942   0.459   9.054   4.881
80390SOL     OW42943  14.868   8.263   6.930
80390SOL    HW142944  14.849   8.349   6.967
80390SOL    HW242945  14.841   8.270   6.838
80391SOL     OW42946   3.818  10.310  11.613
80391SOL    HW142947   3.848  10.267  11.533
80391SOL    HW242948   3.740  10.261  11.639
80392SOL     OW42949  14.254   8.524  11.057
80392SOL    HW142950  14.347   8.540  11.074
80392SOL    HW242951  14.217   8.611  11.041
80393SOL     OW42952  14.599   7.620  11.790
80393SOL    HW142953  14.585   7.572  11.872
80393SOL    HW242954  14.544   7.576  11.726
80394SOL     OW42955   9.710   3.622   3.039
80394SOL    HW142956   9.750   3.549   3.086
80394SOL    HW242957   9.629   3.640   3.086
80395SOL     OW42958   0.576   0.880   8.812
80395SOL    HW142959   0.534   0.797   8.836
80395SOL    HW242960   0.511   0.947   8.833
80396SOL     OW42961   4.526   7.338   0.193
80396SOL    HW142962   4.557   7.271   0.254
80396SOL    HW242963   4.584   7.412   0.207
80397SOL     OW42964   8.570  13.256   4.408
80397SOL    HW142965   8.644  13.305   4.372
80397SOL    HW242966   8.519  13.229   4.332
80398SOL     OW42967   7.300  10.757   4.276
80398SOL    HW142968   7.237  10.787   4.342
80398SOL    HW242969   7.277  10.806   4.198
80399SOL     OW42970   5.362   3.822   2.913
80399SOL    HW142971   5.396   3.870   2.837
80399SOL    HW242972   5.337   3.736   2.878
80400SOL     OW42973  13.451   8.312  14.255
80400SOL    HW142974  13.389   8.262  14.308
80400SOL    HW242975  13.459   8.396  14.301
80401SOL     OW42976   0.500  10.095   4.711
80401SOL    HW142977   0.517  10.181   4.750
80401SOL    HW242978   0.502  10.111   4.616
80402SOL     OW42979   1.335  12.998  13.683
80402SOL    HW142980   1.297  13.054  13.752
80402SOL    HW242981   1.363  13.059  13.615
80403SOL     OW42982   4.867   3.549   9.359
80403SOL    HW142983   4.851   3.610   9.287
80403SOL    HW242984   4.955   3.570   9.389
80404SOL     OW42985  14.507   9.913  10.795
80404SOL    HW142986  14.475   9.858  10.867
80404SOL    HW242987  14.525   9.997  10.836
80405SOL     OW42988   5.637   0.243   5.566
80405SOL    HW142989   5.553   0.214   5.529
80405SOL    HW242990   5.687   0.162   5.577
80406SOL     OW42991  14.192   6.290   3.856
80406SOL    HW142992  14.198   6.346   3.933
80406SOL    HW242993  14.238   6.338   3.787
80407SOL     OW42994  11.208   7.914   3.314
80407SOL    HW142995  11.113   7.925   3.318
80407SOL    HW242996  11.227   7.909   3.221
80408SOL     OW42997  13.667   4.725   0.139
80408SOL    HW142998  13.577   4.694   0.125
80408SOL    HW242999  13.722   4.656   0.104
80409SOL     OW43000   5.609   9.485   2.592
80409SOL    HW143001   5.695   9.453   2.618
80409SOL    HW243002   5.552   9.461   2.664
80410SOL     OW43003   0.713  10.312   4.357
80410SOL    HW143004   0.637  10.260   4.384
80410SOL    HW243005   0.737  10.362   4.435
80411SOL     OW43006  12.877   8.409   9.676
80411SOL    HW143007  12.970   8.405   9.655
80411SOL    HW243008  12.869   8.368   9.762
80412SOL     OW43009  10.759  10.646   5.352
80412SOL    HW143010  10.684  10.649   5.293
80412SOL    HW243011  10.733  10.699   5.427
80413SOL     OW43012  11.557  12.631  11.058
80413SOL    HW143013  11.475  12.645  11.104
80413SOL    HW243014  11.600  12.560  11.106
80414SOL     OW43015   4.314   1.359  13.080
80414SOL    HW143016   4.229   1.315  13.085
80414SOL    HW243017   4.320   1.388  12.989
80415SOL     OW43018   7.878   8.458  14.341
80415SOL    HW143019   7.831   8.392  14.291
80415SOL    HW243020   7.955   8.412  14.374
80416SOL     OW43021   7.457  11.191  12.358
80416SOL    HW143022   7.384  11.165  12.415
80416SOL    HW243023   7.450  11.286  12.353
80417SOL     OW43024  12.346   4.358  13.465
80417SOL    HW143025  12.254   4.352  13.441
80417SOL    HW243026  12.393   4.334  13.385
80418SOL     OW43027   0.573  14.151  13.695
80418SOL    HW143028   0.613  14.140  13.609
80418SOL    HW243029   0.642  14.192  13.748
80419SOL     OW43030   3.976   5.745  13.657
80419SOL    HW143031   3.916   5.671  13.652
80419SOL    HW243032   3.999   5.751  13.750
80420SOL     OW43033   1.372   6.638  10.880
80420SOL    HW143034   1.291   6.689  10.882
80420SOL    HW243035   1.347   6.554  10.842
80421SOL     OW43036   0.680  10.186   0.553
80421SOL    HW143037   0.743  10.220   0.490
80421SOL    HW243038   0.725  10.114   0.597
80422SOL     OW43039   2.988  13.428   0.036
80422SOL    HW143040   2.913  13.479   0.006
80422SOL    HW243041   2.979  13.424   0.131
80423SOL     OW43042   8.082   0.113   5.584
80423SOL    HW143043   8.110   0.192   5.538
80423SOL    HW243044   8.134   0.112   5.664
80424SOL     OW43045  14.032   8.809   2.858
80424SOL    HW143046  14.106   8.756   2.887
80424SOL    HW243047  14.065   8.859   2.784
80425SOL     OW43048   7.514   2.098  12.745
80425SOL    HW143049   7.500   2.160  12.673
80425SOL    HW243050   7.438   2.039  12.741
80426SOL     OW43051   5.635  13.729  13.317
80426SOL    HW143052   5.568  13.765  13.376
80426SOL    HW243053   5.591  13.721  13.233
80427SOL     OW43054   3.187   4.143   2.780
80427SOL    HW143055   3.098   4.177   2.788
80427SOL    HW243056   3.238   4.218   2.750
80428SOL     OW43057   4.286   4.516   4.860
80428SOL    HW143058   4.199   4.512   4.818
80428SOL    HW243059   4.347   4.488   4.791
80429SOL     OW43060  12.057   5.377  14.334
80429SOL    HW143061  12.060   5.286  14.304
80429SOL    HW243062  12.031   5.371  14.426
80430SOL     OW43063   0.703  14.432  12.877
80430SOL    HW143064   0.644  14.506  12.860
80430SOL    HW243065   0.740  14.411  12.792
80431SOL     OW43066   6.045  14.293   6.404
80431SOL    HW143067   6.021  14.205   6.375
80431SOL    HW243068   5.971  14.348   6.378
80432SOL     OW43069   9.330   6.101  14.376
80432SOL    HW143070   9.263   6.099  14.444
80432SOL    HW243071   9.283   6.086  14.294
80433SOL     OW43072   4.522   7.410  13.643
80433SOL    HW143073   4.540   7.328  13.596
80433SOL    HW243074   4.608   7.441  13.671
80434SOL     OW43075   2.624  10.645   8.626
80434SOL    HW143076   2.651  10.594   8.702
80434SOL    HW243077   2.586  10.581   8.566
80435SOL     OW43078  12.533  10.278  11.355
80435SOL    HW143079  12.469  10.225  11.307
80435SOL    HW243080  12.499  10.367  11.350
80436SOL     OW43081   0.674  11.156  11.335
80436SOL    HW143082   0.634  11.113  11.260
80436SOL    HW243083   0.768  11.157  11.315
80437SOL     OW43084   4.026   9.782   6.831
80437SOL    HW143085   3.963   9.834   6.782
80437SOL    HW243086   4.063   9.721   6.766
80438SOL     OW43087  12.582   5.514   3.244
80438SOL    HW143088  12.489   5.525   3.225
80438SOL    HW243089  12.612   5.601   3.268
80439SOL     OW43090  13.954   5.031   1.293
80439SOL    HW143091  13.879   5.077   1.329
80439SOL    HW243092  13.962   4.952   1.347
80440SOL     OW43093   1.060   8.665   0.752
80440SOL    HW143094   1.137   8.608   0.758
80440SOL    HW243095   0.986   8.604   0.744
80441SOL     OW43096   4.572   2.414   6.201
80441SOL    HW143097   4.485   2.451   6.188
80441SOL    HW243098   4.557   2.321   6.217
80442SOL     OW43099  10.012  14.054   6.273
80442SOL    HW143100  10.105  14.065   6.253
80442SOL    HW243101   9.996  13.960   6.261
80443SOL     OW43102  12.326   6.989   7.161
80443SOL    HW143103  12.265   7.048   7.117
80443SOL    HW243104  12.274   6.911   7.182
80444SOL     OW43105   7.561   7.783  10.006
80444SOL    HW143106   7.607   7.836   9.940
80444SOL    HW243107   7.485   7.749   9.959
80445SOL     OW43108   6.685   0.459   6.694
80445SOL    HW143109   6.779   0.451   6.713
80445SOL    HW243110   6.668   0.553   6.697
80446SOL     OW43111   5.698   8.181   5.815
80446SOL    HW143112   5.777   8.235   5.812
80446SOL    HW243113   5.678   8.164   5.723
80447SOL     OW43114  13.452  14.163   7.665
80447SOL    HW143115  13.494  14.142   7.748
80447SOL    HW243116  13.517  14.213   7.616
80448SOL     OW43117   2.668   0.476   6.399
80448SOL    HW143118   2.576   0.450   6.412
80448SOL    HW243119   2.715   0.393   6.391
80449SOL     OW43120   8.944  10.139  11.370
80449SOL    HW143121   8.927  10.175  11.457
80449SOL    HW243122   8.991  10.058  11.385
80450SOL     OW43123   4.576  12.145   6.488
80450SOL    HW143124   4.504  12.118   6.432
80450SOL    HW243125   4.654  12.106   6.449
80451SOL     OW43126  12.973  10.768  10.228
80451SOL    HW143127  13.042  10.814  10.276
80451SOL    HW243128  12.925  10.837  10.184
80452SOL     OW43129  14.142  14.021   4.202
80452SOL    HW143130  14.196  14.091   4.165
80452SOL    HW243131  14.092  14.063   4.273
80453SOL     OW43132   4.215   9.908  12.144
80453SOL    HW143133   4.266   9.868  12.074
80453SOL    HW243134   4.242  10.000  12.143
80454SOL     OW43135   9.673   9.343  13.862
80454SOL    HW143136   9.690   9.372  13.952
80454SOL    HW243137   9.651   9.423  13.815
80455SOL     OW43138  11.312  10.832   1.974
80455SOL    HW143139  11.348  10.899   1.916
80455SOL    HW243140  11.254  10.880   2.033
80456SOL     OW43141  11.145   6.105   8.064
80456SOL    HW143142  11.065   6.103   8.118
80456SOL    HW243143  11.119   6.066   7.981
80457SOL     OW43144   3.077  13.776  14.061
80457SOL    HW143145   3.010  13.746  13.998
80457SOL    HW243146   3.048  13.739  14.145
80458SOL     OW43147   3.866   1.836   6.637
80458SOL    HW143148   3.860   1.758   6.582
80458SOL    HW243149   3.796   1.826   6.701
80459SOL     OW43150   4.834  14.062   6.268
80459SOL    HW143151   4.798  13.974   6.253
80459SOL    HW243152   4.926  14.046   6.288
80460SOL     OW43153   1.821   4.342   2.162
80460SOL    HW143154   1.893   4.381   2.212
80460SOL    HW243155   1.742   4.381   2.200
80461SOL     OW43156   1.687  13.160   5.272
80461SOL    HW143157   1.626  13.093   5.241
80461SOL    HW243158   1.660  13.240   5.228
80462SOL     OW43159   9.197   6.448   5.163
80462SOL    HW143160   9.191   6.476   5.254
80462SOL    HW243161   9.290   6.431   5.148
80463SOL     OW43162  12.587   6.243   7.559
80463SOL    HW143163  12.611   6.285   7.642
80463SOL    HW243164  12.498   6.213   7.572
80464SOL     OW43165   9.258   0.549   3.512
80464SOL    HW143166   9.292   0.576   3.427
80464SOL    HW243167   9.232   0.458   3.499
80465SOL     OW43168   8.416  11.079  14.852
80465SOL    HW143169   8.498  11.077   0.020
80465SOL    HW243170   8.361  11.012   0.011
80466SOL     OW43171   5.361   6.835   2.110
80466SOL    HW143172   5.368   6.858   2.017
80466SOL    HW243173   5.273   6.865   2.135
80467SOL     OW43174   7.535  13.571  14.547
80467SOL    HW143175   7.455  13.528  14.516
80467SOL    HW243176   7.601  13.502  14.547
80468SOL     OW43177   1.506   3.694  11.496
80468SOL    HW143178   1.513   3.790  11.493
80468SOL    HW243179   1.532   3.671  11.585
80469SOL     OW43180   3.553   1.007  12.370
80469SOL    HW143181   3.512   0.982  12.287
80469SOL    HW243182   3.482   1.042  12.423
80470SOL     OW43183   4.951   4.494   1.091
80470SOL    HW143184   4.903   4.430   1.143
80470SOL    HW243185   5.024   4.445   1.053
80471SOL     OW43186   0.311  12.706  10.824
80471SOL    HW143187   0.406  12.694  10.820
80471SOL    HW243188   0.288  12.689  10.915
80472SOL     OW43189  11.711   0.706  12.849
80472SOL    HW143190  11.790   0.733  12.896
80472SOL    HW243191  11.643   0.766  12.879
80473SOL     OW43192  11.508   1.924  10.123
80473SOL    HW143193  11.435   1.865  10.144
80473SOL    HW243194  11.515   1.982  10.199
80474SOL     OW43195   4.230  12.627   6.867
80474SOL    HW143196   4.239  12.531   6.865
80474SOL    HW243197   4.139  12.641   6.893
80475SOL     OW43198   7.574   7.698   6.175
80475SOL    HW143199   7.519   7.620   6.179
80475SOL    HW243200   7.530   7.756   6.112
80476SOL     OW43201   2.257  11.211   4.595
80476SOL    HW143202   2.280  11.120   4.575
80476SOL    HW243203   2.172  11.205   4.639
80477SOL     OW43204   5.691   8.181   7.794
80477SOL    HW143205   5.658   8.175   7.705
80477SOL    HW243206   5.786   8.173   7.786
80478SOL     OW43207   4.736   7.196   5.331
80478SOL    HW143208   4.711   7.105   5.344
80478SOL    HW243209   4.747   7.205   5.237
80479SOL     OW43210   4.220   3.617   3.060
80479SOL    HW143211   4.184   3.635   2.974
80479SOL    HW243212   4.150   3.569   3.106
80480SOL     OW43213   5.741   7.614  13.648
80480SOL    HW143214   5.683   7.686  13.674
80480SOL    HW243215   5.684   7.537  13.647
80481SOL     OW43216  10.643  12.860   6.121
80481SOL    HW143217  10.647  12.801   6.045
80481SOL    HW243218  10.713  12.831   6.178
80482SOL     OW43219   9.666  11.200  10.736
80482SOL    HW143220   9.709  11.122  10.701
80482SOL    HW243221   9.576  11.196  10.703
80483SOL     OW43222   1.599   7.206   5.169
80483SOL    HW143223   1.554   7.136   5.121
80483SOL    HW243224   1.692   7.190   5.153
80484SOL     OW43225   7.778   1.127   1.542
80484SOL    HW143226   7.734   1.042   1.541
80484SOL    HW243227   7.770   1.157   1.632
80485SOL     OW43228   9.414   8.262   3.795
80485SOL    HW143229   9.322   8.277   3.818
80485SOL    HW243230   9.419   8.169   3.773
80486SOL     OW43231   5.755   4.808   2.830
80486SOL    HW143232   5.845   4.795   2.857
80486SOL    HW243233   5.759   4.815   2.735
80487SOL     OW43234   7.561   0.302   7.987
80487SOL    HW143235   7.600   0.388   8.000
80487SOL    HW243236   7.623   0.256   7.930
80488SOL     OW43237  13.325   2.382   4.750
80488SOL    HW143238  13.272   2.304   4.735
80488SOL    HW243239  13.363   2.369   4.837
80489SOL     OW43240  14.576  14.452   3.641
80489SOL    HW143241  14.487  14.488   3.638
80489SOL    HW243242  14.563  14.358   3.625
80490SOL     OW43243  10.181  10.040  14.097
80490SOL    HW143244  10.206  10.099  14.168
80490SOL    HW243245  10.260   9.992  14.076
80491SOL     OW43246  11.938   4.824   6.559
80491SOL    HW143247  11.873   4.769   6.516
80491SOL    HW243248  11.887   4.895   6.598
80492SOL     OW43249  14.508   3.921   2.619
80492SOL    HW143250  14.464   3.966   2.691
80492SOL    HW243251  14.585   3.881   2.660
80493SOL     OW43252  10.940  11.225   4.014
80493SOL    HW143253  11.009  11.290   3.997
80493SOL    HW243254  10.943  11.211   4.108
80494SOL     OW43255  13.595   8.168   9.517
80494SOL    HW143256  13.680   8.207   9.537
80494SOL    HW243257  13.532   8.224   9.563
80495SOL     OW43258   3.175   4.071   4.875
80495SOL    HW143259   3.162   3.993   4.821
80495SOL    HW243260   3.099   4.073   4.933
80496SOL     OW43261   5.289   4.243  14.104
80496SOL    HW143262   5.320   4.295  14.178
80496SOL    HW243263   5.290   4.153  14.136
80497SOL     OW43264   1.127   7.907  13.112
80497SOL    HW143265   1.183   7.960  13.054
80497SOL    HW243266   1.159   7.818  13.100
80498SOL     OW43267   9.393  11.083  13.863
80498SOL    HW143268   9.395  10.996  13.824
80498SOL    HW243269   9.389  11.068  13.957
80499SOL     OW43270   6.820   6.810  10.309
80499SOL    HW143271   6.771   6.892  10.316
80499SOL    HW243272   6.908   6.837  10.285
80500SOL     OW43273   1.939  12.417  12.815
80500SOL    HW143274   2.034  12.405  12.819
80500SOL    HW243275   1.915  12.396  12.725
80501SOL     OW43276  10.824   6.479   6.062
80501SOL    HW143277  10.775   6.547   6.014
80501SOL    HW243278  10.916   6.503   6.049
80502SOL     OW43279  13.423   7.592   4.014
80502SOL    HW143280  13.487   7.604   4.084
80502SOL    HW243281  13.344   7.636   4.045
80503SOL     OW43282   6.915  11.569  11.905
80503SOL    HW143283   6.962  11.585  11.987
80503SOL    HW243284   6.840  11.516  11.931
80504SOL     OW43285   6.890  10.038   5.922
80504SOL    HW143286   6.867  10.016   5.832
80504SOL    HW243287   6.837   9.980   5.976
80505SOL     OW43288  11.982   9.337   0.262
80505SOL    HW143289  11.921   9.396   0.218
80505SOL    HW243290  11.932   9.257   0.277
80506SOL     OW43291   9.720  11.109   3.988
80506SOL    HW143292   9.727  11.036   4.050
80506SOL    HW243293   9.793  11.095   3.927
80507SOL     OW43294   3.499  13.476  10.374
80507SOL    HW143295   3.555  13.416  10.325
80507SOL    HW243296   3.505  13.559  10.326
80508SOL     OW43297   4.917   6.970   5.691
80508SOL    HW143298   4.887   6.911   5.622
80508SOL    HW243299   4.838   6.994   5.739
80509SOL     OW43300  10.900  10.863  12.227
80509SOL    HW143301  10.979  10.822  12.192
80509SOL    HW243302  10.892  10.945  12.177
80510SOL     OW43303   0.202  12.475  13.190
80510SOL    HW143304   0.147  12.528  13.132
80510SOL    HW243305   0.282  12.460  13.139
80511SOL     OW43306  10.312   6.495   2.654
80511SOL    HW143307  10.377   6.511   2.722
80511SOL    HW243308  10.238   6.550   2.679
80512SOL     OW43309   1.137   9.641   8.554
80512SOL    HW143310   1.137   9.655   8.649
80512SOL    HW243311   1.125   9.546   8.544
80513SOL     OW43312   5.032   7.685   8.608
80513SOL    HW143313   5.045   7.752   8.676
80513SOL    HW243314   5.085   7.611   8.637
80514SOL     OW43315   0.346   8.250   7.471
80514SOL    HW143316   0.286   8.259   7.545
80514SOL    HW243317   0.345   8.157   7.451
80515SOL     OW43318   9.633   8.616   2.322
80515SOL    HW143319   9.554   8.568   2.348
80515SOL    HW243320   9.675   8.640   2.404
80516SOL     OW43321  11.749   8.883   8.952
80516SOL    HW143322  11.716   8.897   9.041
80516SOL    HW243323  11.769   8.970   8.920
80517SOL     OW43324  14.316   0.187  10.087
80517SOL    HW143325  14.294   0.106  10.132
80517SOL    HW243326  14.231   0.228  10.068
80518SOL     OW43327   0.900  11.562   4.827
80518SOL    HW143328   0.982  11.610   4.837
80518SOL    HW243329   0.923  11.487   4.773
80519SOL     OW43330  12.246  10.551   7.835
80519SOL    HW143331  12.317  10.535   7.898
80519SOL    HW243332  12.280  10.618   7.777
80520SOL     OW43333   4.088  11.243   1.842
80520SOL    HW143334   4.156  11.292   1.888
80520SOL    HW243335   4.081  11.160   1.889
80521SOL     OW43336  12.052   9.479   8.225
80521SOL    HW143337  12.111   9.486   8.300
80521SOL    HW243338  12.023   9.388   8.225
80522SOL     OW43339   7.845   3.297   9.255
80522SOL    HW143340   7.813   3.344   9.332
80522SOL    HW243341   7.894   3.362   9.205
80523SOL     OW43342  14.307   8.272   9.911
80523SOL    HW143343  14.393   8.314   9.912
80523SOL    HW243344  14.255   8.325   9.849
80524SOL     OW43345  12.765   7.636   4.720
80524SOL    HW143346  12.710   7.634   4.799
80524SOL    HW243347  12.833   7.571   4.738
80525SOL     OW43348   0.645  11.694  11.835
80525SOL    HW143349   0.738  11.714  11.847
80525SOL    HW243350   0.602  11.733  11.911
80526SOL     OW43351  12.738   3.833   0.143
80526SOL    HW143352  12.670   3.900   0.146
80526SOL    HW243353  12.810   3.869   0.196
80527SOL     OW43354   4.520   3.594   8.866
80527SOL    HW143355   4.564   3.663   8.914
80527SOL    HW243356   4.427   3.607   8.885
80528SOL     OW43357  14.748   3.617   4.123
80528SOL    HW143358  14.824   3.573   4.083
80528SOL    HW243359  14.785   3.695   4.163
80529SOL     OW43360  13.177   3.697  13.562
80529SOL    HW143361  13.265   3.723  13.534
80529SOL    HW243362  13.121   3.717  13.487
80530SOL     OW43363   3.399   1.560   2.431
80530SOL    HW143364   3.405   1.560   2.336
80530SOL    HW243365   3.374   1.650   2.454
80531SOL     OW43366  14.117   3.824  10.033
80531SOL    HW143367  14.047   3.871  10.078
80531SOL    HW243368  14.103   3.732  10.055
80532SOL     OW43369   7.704   1.766   3.109
80532SOL    HW143370   7.665   1.680   3.092
80532SOL    HW243371   7.674   1.820   3.036
80533SOL     OW43372   1.750   5.626  11.340
80533SOL    HW143373   1.699   5.629  11.259
80533SOL    HW243374   1.685   5.638  11.410
80534SOL     OW43375  14.329   3.625  13.771
80534SOL    HW143376  14.298   3.576  13.695
80534SOL    HW243377  14.420   3.598  13.783
80535SOL     OW43378   5.274   4.923   8.336
80535SOL    HW143379   5.367   4.903   8.343
80535SOL    HW243380   5.232   4.871   8.405
80536SOL     OW43381   2.674   9.039  12.903
80536SOL    HW143382   2.756   9.005  12.940
80536SOL    HW243383   2.630   9.081  12.976
80537SOL     OW43384  10.103  13.564   9.126
80537SOL    HW143385  10.139  13.597   9.044
80537SOL    HW243386  10.009  13.580   9.118
80538SOL     OW43387  12.948  12.694   2.360
80538SOL    HW143388  13.016  12.673   2.425
80538SOL    HW243389  12.883  12.625   2.370
80539SOL     OW43390   3.227  11.862   2.527
80539SOL    HW143391   3.149  11.908   2.558
80539SOL    HW243392   3.229  11.782   2.579
80540SOL     OW43393   9.978   1.017   0.316
80540SOL    HW143394   9.888   1.009   0.346
80540SOL    HW243395   9.975   0.993   0.224
80541SOL     OW43396   2.942  11.238   0.754
80541SOL    HW143397   2.958  11.147   0.728
80541SOL    HW243398   2.977  11.290   0.682
80542SOL     OW43399   3.647   8.493   7.770
80542SOL    HW143400   3.589   8.424   7.738
80542SOL    HW243401   3.732   8.450   7.779
80543SOL     OW43402  13.227   0.247   7.916
80543SOL    HW143403  13.222   0.242   8.012
80543SOL    HW243404  13.172   0.175   7.886
80544SOL     OW43405   1.571   6.047  12.907
80544SOL    HW143406   1.574   6.038  12.812
80544SOL    HW243407   1.655   6.012  12.937
80545SOL     OW43408   3.985  11.865   4.559
80545SOL    HW143409   4.066  11.814   4.552
80545SOL    HW243410   3.996  11.918   4.637
80546SOL     OW43411   5.624   0.926   9.531
80546SOL    HW143412   5.718   0.914   9.517
80546SOL    HW243413   5.607   1.016   9.505
80547SOL     OW43414   8.537   1.919  12.508
80547SOL    HW143415   8.519   2.005  12.472
80547SOL    HW243416   8.489   1.917  12.591
80548SOL     OW43417   5.180   5.443   8.441
80548SOL    HW143418   5.161   5.472   8.531
80548SOL    HW243419   5.203   5.351   8.450
80549SOL     OW43420  12.001   2.301  12.932
80549SOL    HW143421  11.960   2.387  12.923
80549SOL    HW243422  11.929   2.242  12.955
80550SOL     OW43423  14.575   6.304   7.702
80550SOL    HW143424  14.657   6.283   7.747
80550SOL    HW243425  14.508   6.295   7.770
80551SOL     OW43426  13.866   1.712   2.357
80551SOL    HW143427  13.917   1.648   2.407
80551SOL    HW243428  13.925   1.787   2.348
80552SOL     OW43429   7.932  10.009   2.110
80552SOL    HW143430   7.923  10.033   2.202
80552SOL    HW243431   8.025  10.017   2.092
80553SOL     OW43432  10.022  12.684  10.038
80553SOL    HW143433   9.949  12.717   9.986
80553SOL    HW243434  10.009  12.723  10.125
80554SOL     OW43435   2.869   2.880  14.093
80554SOL    HW143436   2.824   2.907  14.013
80554SOL    HW243437   2.927   2.953  14.114
80555SOL     OW43438  12.291   1.979   4.897
80555SOL    HW143439  12.310   2.026   4.815
80555SOL    HW243440  12.212   1.928   4.877
80556SOL     OW43441   1.742   4.171  11.816
80556SOL    HW143442   1.732   4.257  11.776
80556SOL    HW243443   1.659   4.127  11.800
80557SOL     OW43444  10.970  10.761   4.933
80557SOL    HW143445  10.911  10.799   4.867
80557SOL    HW243446  10.967  10.667   4.916
80558SOL     OW43447   1.924   2.718  11.823
80558SOL    HW143448   1.878   2.700  11.741
80558SOL    HW243449   1.896   2.649  11.883
80559SOL     OW43450   6.328   7.812   0.796
80559SOL    HW143451   6.261   7.811   0.865
80559SOL    HW243452   6.284   7.852   0.721
80560SOL     OW43453  13.989  13.072   5.622
80560SOL    HW143454  14.066  13.127   5.638
80560SOL    HW243455  13.990  13.056   5.528
80561SOL     OW43456   8.909   3.843   8.287
80561SOL    HW143457   8.979   3.890   8.241
80561SOL    HW243458   8.948   3.819   8.371
80562SOL     OW43459   0.236   7.242  12.843
80562SOL    HW143460   0.239   7.253  12.938
80562SOL    HW243461   0.236   7.147  12.830
80563SOL     OW43462   2.793  12.696   5.219
80563SOL    HW143463   2.880  12.724   5.250
80563SOL    HW243464   2.806  12.605   5.191
80564SOL     OW43465   9.889   5.720   8.147
80564SOL    HW143466   9.823   5.756   8.206
80564SOL    HW243467   9.970   5.721   8.197
80565SOL     OW43468  14.348   1.186   0.304
80565SOL    HW143469  14.270   1.229   0.338
80565SOL    HW243470  14.395   1.158   0.382
80566SOL     OW43471   5.659  13.375   8.724
80566SOL    HW143472   5.655  13.286   8.758
80566SOL    HW243473   5.658  13.431   8.801
80567SOL     OW43474  10.130   8.754   3.140
80567SOL    HW143475  10.157   8.776   3.229
80567SOL    HW243476  10.110   8.661   3.143
80568SOL     OW43477   5.451   3.136   4.737
80568SOL    HW143478   5.507   3.067   4.773
80568SOL    HW243479   5.362   3.105   4.755
80569SOL     OW43480   3.627  13.114   6.701
80569SOL    HW143481   3.536  13.143   6.699
80569SOL    HW243482   3.622  13.019   6.703
80570SOL     OW43483   1.110   3.053  10.126
80570SOL    HW143484   1.140   3.109  10.197
80570SOL    HW243485   1.184   3.049  10.066
80571SOL     OW43486  11.358   0.898  14.693
80571SOL    HW143487  11.360   0.938  14.780
80571SOL    HW243488  11.288   0.943  14.647
80572SOL     OW43489  13.192   1.495  14.602
80572SOL    HW143490  13.123   1.451  14.653
80572SOL    HW243491  13.274   1.463  14.640
80573SOL     OW43492   2.153   3.747   3.188
80573SOL    HW143493   2.175   3.754   3.096
80573SOL    HW243494   2.096   3.670   3.194
80574SOL     OW43495   6.440   0.694   4.218
80574SOL    HW143496   6.415   0.603   4.232
80574SOL    HW243497   6.404   0.716   4.132
80575SOL     OW43498   3.084   9.301   1.675
80575SOL    HW143499   3.068   9.328   1.766
80575SOL    HW243500   3.123   9.378   1.634
80576SOL     OW43501  10.123   3.433   2.749
80576SOL    HW143502  10.066   3.388   2.812
80576SOL    HW243503  10.097   3.525   2.755
80577SOL     OW43504   9.406   3.198  11.954
80577SOL    HW143505   9.381   3.155  12.036
80577SOL    HW243506   9.359   3.150  11.887
80578SOL     OW43507   6.956  10.675   0.203
80578SOL    HW143508   6.907  10.601   0.239
80578SOL    HW243509   6.888  10.731   0.164
80579SOL     OW43510   8.482  10.679   1.294
80579SOL    HW143511   8.515  10.741   1.359
80579SOL    HW243512   8.414  10.728   1.248
80580SOL     OW43513   3.339   7.770   7.402
80580SOL    HW143514   3.306   7.859   7.415
80580SOL    HW243515   3.422   7.782   7.355
80581SOL     OW43516   4.622  11.938   8.418
80581SOL    HW143517   4.598  11.960   8.328
80581SOL    HW243518   4.602  11.844   8.425
80582SOL     OW43519  13.478  11.192   8.442
80582SOL    HW143520  13.554  11.137   8.458
80582SOL    HW243521  13.404  11.131   8.443
80583SOL     OW43522   5.092   8.488  11.618
80583SOL    HW143523   5.068   8.549  11.687
80583SOL    HW243524   5.177   8.518  11.587
80584SOL     OW43525   0.342  12.710  11.501
80584SOL    HW143526   0.286  12.774  11.457
80584SOL    HW243527   0.419  12.703  11.445
80585SOL     OW43528  11.219   3.483   5.828
80585SOL    HW143529  11.239   3.575   5.811
80585SOL    HW243530  11.163   3.485   5.906
80586SOL     OW43531  11.028   7.387   5.338
80586SOL    HW143532  10.966   7.329   5.382
80586SOL    HW243533  10.984   7.472   5.335
80587SOL     OW43534  12.697   3.002  13.436
80587SOL    HW143535  12.690   2.927  13.495
80587SOL    HW243536  12.626   2.990  13.373
80588SOL     OW43537  12.249   6.228   1.958
80588SOL    HW143538  12.304   6.260   1.886
80588SOL    HW243539  12.173   6.191   1.914
80589SOL     OW43540   4.831   8.795  13.932
80589SOL    HW143541   4.782   8.814  14.012
80589SOL    HW243542   4.888   8.722  13.956
80590SOL     OW43543   4.825  13.604   3.659
80590SOL    HW143544   4.845  13.662   3.732
80590SOL    HW243545   4.878  13.637   3.586
80591SOL     OW43546  11.817   4.648   5.525
80591SOL    HW143547  11.753   4.585   5.560
80591SOL    HW243548  11.766   4.703   5.466
80592SOL     OW43549   7.097   4.937  13.713
80592SOL    HW143550   7.035   4.865  13.698
80592SOL    HW243551   7.104   4.942  13.808
80593SOL     OW43552  11.949   6.577   0.005
80593SOL    HW143553  11.940   6.482  14.879
80593SOL    HW243554  11.980   6.592   0.094
80594SOL     OW43555   9.451   1.042   1.285
80594SOL    HW143556   9.425   0.951   1.301
80594SOL    HW243557   9.369   1.091   1.284
80595SOL     OW43558   2.936   7.415   7.840
80595SOL    HW143559   2.970   7.484   7.783
80595SOL    HW243560   2.876   7.460   7.900
80596SOL     OW43561   6.782   1.604   2.952
80596SOL    HW143562   6.816   1.514   2.948
80596SOL    HW243563   6.831   1.644   3.024
80597SOL     OW43564  14.557   9.285  12.585
80597SOL    HW143565  14.638   9.320  12.548
80597SOL    HW243566  14.582   9.252  12.672
80598SOL     OW43567  14.523  14.305  13.273
80598SOL    HW143568  14.480  14.221  13.256
80598SOL    HW243569  14.584  14.315  13.200
80599SOL     OW43570   7.154   8.005  12.553
80599SOL    HW143571   7.145   8.089  12.508
80599SOL    HW243572   7.066   7.986  12.587
80600SOL     OW43573  10.402   4.540   2.099
80600SOL    HW143574  10.452   4.621   2.109
80600SOL    HW243575  10.331   4.562   2.039
80601SOL     OW43576  10.018  11.636  10.204
80601SOL    HW143577   9.930  11.599  10.217
80601SOL    HW243578  10.011  11.684  10.121
80602SOL     OW43579   4.528   5.586  10.226
80602SOL    HW143580   4.607   5.607  10.176
80602SOL    HW243581   4.530   5.646  10.301
80603SOL     OW43582   5.511   8.051   1.932
80603SOL    HW143583   5.587   8.087   1.887
80603SOL    HW243584   5.440   8.058   1.869
80604SOL     OW43585   9.827  13.658   1.888
80604SOL    HW143586   9.870  13.732   1.845
80604SOL    HW243587   9.803  13.692   1.974
80605SOL     OW43588   3.717  11.678  14.722
80605SOL    HW143589   3.730  11.683  14.627
80605SOL    HW243590   3.795  11.718  14.759
80606SOL     OW43591   2.112   6.570   1.797
80606SOL    HW143592   2.157   6.545   1.878
80606SOL    HW243593   2.131   6.663   1.787
80607SOL     OW43594   7.021   3.402   8.844
80607SOL    HW143595   7.067   3.416   8.762
80607SOL    HW243596   6.929   3.390   8.819
80608SOL     OW43597   2.727  14.156  11.948
80608SOL    HW143598   2.742  14.071  11.908
80608SOL    HW243599   2.735  14.218  11.876
80609SOL     OW43600   0.066   9.823   3.715
80609SOL    HW143601   0.093   9.829   3.623
80609SOL    HW243602   0.065   9.914   3.745
80610SOL     OW43603  14.483  13.953   4.823
80610SOL    HW143604  14.449  14.033   4.862
80610SOL    HW243605  14.511  13.900   4.898
80611SOL     OW43606   1.450   5.604   8.228
80611SOL    HW143607   1.366   5.632   8.264
80611SOL    HW243608   1.501   5.685   8.220
80612SOL     OW43609   8.042   6.972   0.208
80612SOL    HW143610   8.077   7.060   0.214
80612SOL    HW243611   8.077   6.926   0.284
80613SOL     OW43612   8.311   1.265   2.544
80613SOL    HW143613   8.221   1.257   2.512
80613SOL    HW243614   8.313   1.351   2.587
80614SOL     OW43615   8.814   4.307   4.572
80614SOL    HW143616   8.808   4.388   4.623
80614SOL    HW243617   8.901   4.272   4.593
80615SOL     OW43618  13.432  13.067   8.855
80615SOL    HW143619  13.404  13.158   8.861
80615SOL    HW243620  13.414  13.030   8.942
80616SOL     OW43621   4.805   0.533   6.030
80616SOL    HW143622   4.712   0.510   6.029
80616SOL    HW243623   4.818   0.574   6.115
80617SOL     OW43624   1.522   0.377  11.987
80617SOL    HW143625   1.581   0.304  11.968
80617SOL    HW243626   1.574   0.455  11.972
80618SOL     OW43627   8.944   1.802  10.465
80618SOL    HW143628   8.971   1.748  10.539
80618SOL    HW243629   9.013   1.792  10.400
80619SOL     OW43630  12.981  14.623   9.532
80619SOL    HW143631  13.052  14.685   9.517
80619SOL    HW243632  12.938  14.614   9.447
80620SOL     OW43633  11.215   3.779   2.553
80620SOL    HW143634  11.304   3.795   2.522
80620SOL    HW243635  11.159   3.814   2.483
80621SOL     OW43636   1.532   4.568   1.942
80621SOL    HW143637   1.582   4.599   2.018
80621SOL    HW243638   1.598   4.528   1.885
80622SOL     OW43639   0.821   6.733   0.928
80622SOL    HW143640   0.898   6.690   0.890
80622SOL    HW243641   0.845   6.751   1.018
80623SOL     OW43642   2.939   5.218  13.600
80623SOL    HW143643   3.006   5.242  13.664
80623SOL    HW243644   2.963   5.129  13.573
80624SOL     OW43645  13.843   2.634  14.618
80624SOL    HW143646  13.765   2.686  14.594
80624SOL    HW243647  13.824   2.604  14.707
80625SOL     OW43648  14.057   4.434  11.491
80625SOL    HW143649  14.014   4.382  11.559
80625SOL    HW243650  14.007   4.416  11.412
80626SOL     OW43651  13.875  12.824   9.881
80626SOL    HW143652  13.844  12.896   9.936
80626SOL    HW243653  13.799  12.768   9.868
80627SOL     OW43654  13.377  12.911   2.484
80627SOL    HW143655  13.353  12.878   2.397
80627SOL    HW243656  13.319  12.986   2.498
80628SOL     OW43657   1.671   7.636  11.603
80628SOL    HW143658   1.712   7.722  11.600
80628SOL    HW243659   1.678   7.602  11.514
80629SOL     OW43660  11.836  11.140   8.961
80629SOL    HW143661  11.866  11.135   8.871
80629SOL    HW243662  11.885  11.071   9.006
80630SOL     OW43663  13.377   5.824   1.717
80630SOL    HW143664  13.417   5.861   1.796
80630SOL    HW243665  13.359   5.733   1.741
80631SOL     OW43666   5.551   1.613   0.315
80631SOL    HW143667   5.504   1.620   0.398
80631SOL    HW243668   5.632   1.567   0.337
80632SOL     OW43669  14.267  11.404  10.363
80632SOL    HW143670  14.258  11.433  10.272
80632SOL    HW243671  14.251  11.483  10.414
80633SOL     OW43672  13.353  11.637   5.217
80633SOL    HW143673  13.258  11.641   5.223
80633SOL    HW243674  13.370  11.569   5.152
80634SOL     OW43675   0.668   8.563   5.122
80634SOL    HW143676   0.705   8.491   5.071
80634SOL    HW243677   0.736   8.587   5.184
80635SOL     OW43678   5.489   3.490   8.194
80635SOL    HW143679   5.475   3.469   8.102
80635SOL    HW243680   5.573   3.536   8.196
80636SOL     OW43681   3.565   3.163  14.436
80636SOL    HW143682   3.488   3.195  14.482
80636SOL    HW243683   3.634   3.226  14.459
80637SOL     OW43684   7.032  13.134   3.277
80637SOL    HW143685   6.984  13.203   3.322
80637SOL    HW243686   6.991  13.053   3.308
80638SOL     OW43687   5.951   4.048   7.767
80638SOL    HW143688   5.989   3.978   7.819
80638SOL    HW243689   5.957   4.126   7.823
80639SOL     OW43690   0.989   0.121   3.033
80639SOL    HW143691   0.947   0.055   2.977
80639SOL    HW243692   1.002   0.196   2.975
80640SOL     OW43693  12.051   8.910   4.285
80640SOL    HW143694  12.002   8.832   4.311
80640SOL    HW243695  12.067   8.957   4.366
80641SOL     OW43696   4.182   4.301   3.791
80641SOL    HW143697   4.194   4.208   3.773
80641SOL    HW243698   4.165   4.339   3.705
80642SOL     OW43699   5.485   1.223   8.809
80642SOL    HW143700   5.487   1.145   8.865
80642SOL    HW243701   5.473   1.188   8.720
80643SOL     OW43702  10.437   9.933  14.089
80643SOL    HW143703  10.489   9.950  14.010
80643SOL    HW243704  10.502   9.917  14.157
80644SOL     OW43705   7.844   0.593  12.208
80644SOL    HW143706   7.783   0.569  12.276
80644SOL    HW243707   7.843   0.519  12.147
80645SOL     OW43708  13.639   9.650   0.175
80645SOL    HW143709  13.571   9.714   0.155
80645SOL    HW243710  13.712   9.674   0.119
80646SOL     OW43711  14.372  13.146   0.108
80646SOL    HW143712  14.461  13.141   0.144
80646SOL    HW243713  14.365  13.068   0.053
80647SOL     OW43714   7.805  10.230  13.025
80647SOL    HW143715   7.775  10.144  12.996
80647SOL    HW243716   7.725  10.281  13.038
80648SOL     OW43717   9.546   8.145   1.159
80648SOL    HW143718   9.620   8.206   1.153
80648SOL    HW243719   9.487   8.185   1.223
80649SOL     OW43720  14.367   2.310   4.939
80649SOL    HW143721  14.358   2.373   4.868
80649SOL    HW243722  14.324   2.231   4.907
80650SOL     OW43723   1.148   7.260   2.607
80650SOL    HW143724   1.170   7.220   2.691
80650SOL    HW243725   1.052   7.269   2.609
80651SOL     OW43726   4.548   0.765   9.239
80651SOL    HW143727   4.471   0.778   9.295
80651SOL    HW243728   4.533   0.680   9.198
80652SOL     OW43729  12.476   3.240  14.167
80652SOL    HW143730  12.514   3.152  14.170
80652SOL    HW243731  12.520   3.282  14.093
80653SOL     OW43732   2.925  13.112   0.639
80653SOL    HW143733   2.967  13.044   0.691
80653SOL    HW243734   2.886  13.066   0.566
80654SOL     OW43735  11.345   1.774  10.278
80654SOL    HW143736  11.258   1.777  10.318
80654SOL    HW243737  11.381   1.690  10.306
80655SOL     OW43738  10.647  11.024   9.235
80655SOL    HW143739  10.584  11.028   9.307
80655SOL    HW243740  10.721  10.974   9.270
80656SOL     OW43741  11.796   0.585   7.295
80656SOL    HW143742  11.802   0.560   7.203
80656SOL    HW243743  11.729   0.653   7.297
80657SOL     OW43744   0.302  14.149   2.345
80657SOL    HW143745   0.223  14.113   2.385
80657SOL    HW243746   0.366  14.078   2.347
80658SOL     OW43747   2.621   3.927   6.984
80658SOL    HW143748   2.685   3.879   6.931
80658SOL    HW243749   2.536   3.898   6.950
80659SOL     OW43750   5.116  11.418   1.704
80659SOL    HW143751   5.172  11.356   1.658
80659SOL    HW243752   5.134  11.502   1.662
80660SOL     OW43753   6.768   5.323  10.269
80660SOL    HW143754   6.730   5.324  10.181
80660SOL    HW243755   6.693   5.336  10.328
80661SOL     OW43756  13.400  11.208   0.470
80661SOL    HW143757  13.367  11.188   0.558
80661SOL    HW243758  13.396  11.124   0.424
80662SOL     OW43759  12.077   8.409   2.979
80662SOL    HW143760  12.078   8.398   3.074
80662SOL    HW243761  12.052   8.500   2.965
80663SOL     OW43762  13.966  12.670   4.718
80663SOL    HW143763  13.890  12.711   4.677
80663SOL    HW243764  13.951  12.680   4.812
80664SOL     OW43765   9.408   0.173  12.612
80664SOL    HW143766   9.458   0.097  12.582
80664SOL    HW243767   9.359   0.140  12.688
80665SOL     OW43768   6.959   6.637  10.466
80665SOL    HW143769   6.911   6.708  10.423
80665SOL    HW243770   6.895   6.597  10.525
80666SOL     OW43771   6.547   6.213   5.565
80666SOL    HW143772   6.568   6.200   5.658
80666SOL    HW243773   6.630   6.199   5.520
80667SOL     OW43774   2.895   5.254  12.924
80667SOL    HW143775   2.862   5.231  13.011
80667SOL    HW243776   2.853   5.191  12.865
80668SOL     OW43777   0.915  12.326   4.127
80668SOL    HW143778   0.872  12.391   4.071
80668SOL    HW243779   0.985  12.376   4.171
80669SOL     OW43780   9.760   8.678   1.095
80669SOL    HW143781   9.762   8.700   1.188
80669SOL    HW243782   9.823   8.737   1.054
80670SOL     OW43783  13.632   2.286   5.693
80670SOL    HW143784  13.611   2.242   5.610
80670SOL    HW243785  13.722   2.317   5.681
80671SOL     OW43786  13.174  13.381  11.443
80671SOL    HW143787  13.079  13.373  11.444
80671SOL    HW243788  13.204  13.293  11.418
80672SOL     OW43789  10.162  13.481   3.591
80672SOL    HW143790  10.141  13.450   3.503
80672SOL    HW243791  10.112  13.423   3.649
80673SOL     OW43792   7.313   3.197  12.473
80673SOL    HW143793   7.292   3.245  12.553
80673SOL    HW243794   7.354   3.116  12.503
80674SOL     OW43795   7.839   8.282   6.246
80674SOL    HW143796   7.861   8.355   6.188
80674SOL    HW243797   7.764   8.240   6.204
80675SOL     OW43798  11.513   6.853   3.525
80675SOL    HW143799  11.464   6.934   3.540
80675SOL    HW243800  11.493   6.829   3.435
80676SOL     OW43801  11.252   1.784   9.440
80676SOL    HW143802  11.303   1.822   9.512
80676SOL    HW243803  11.169   1.831   9.442
80677SOL     OW43804  14.628  11.302  13.132
80677SOL    HW143805  14.696  11.320  13.067
80677SOL    HW243806  14.677  11.272  13.209
80678SOL     OW43807   1.389   0.837  12.406
80678SOL    HW143808   1.440   0.877  12.336
80678SOL    HW243809   1.424   0.749  12.415
80679SOL     OW43810   3.152   8.668   9.687
80679SOL    HW143811   3.175   8.682   9.778
80679SOL    HW243812   3.187   8.582   9.666
80680SOL     OW43813   7.029  14.407   7.274
80680SOL    HW143814   7.069  14.490   7.246
80680SOL    HW243815   7.079  14.381   7.351
80681SOL     OW43816   0.856   5.543   7.330
80681SOL    HW143817   0.823   5.614   7.276
80681SOL    HW243818   0.919   5.584   7.389
80682SOL     OW43819   1.554   7.551   7.692
80682SOL    HW143820   1.608   7.549   7.771
80682SOL    HW243821   1.580   7.631   7.648
80683SOL     OW43822   9.784   5.049  14.237
80683SOL    HW143823   9.754   5.088  14.155
80683SOL    HW243824   9.706   5.006  14.273
80684SOL     OW43825  14.723   3.465   3.568
80684SOL    HW143826  14.779   3.531   3.608
80684SOL    HW243827  14.777   3.424   3.501
80685SOL     OW43828   7.398   4.170   7.748
80685SOL    HW143829   7.321   4.215   7.711
80685SOL    HW243830   7.398   4.195   7.840
80686SOL     OW43831   9.598  14.141  14.054
80686SOL    HW143832   9.674  14.138  14.112
80686SOL    HW243833   9.597  14.056  14.011
80687SOL     OW43834   0.308  11.398   6.640
80687SOL    HW143835   0.378  11.460   6.619
80687SOL    HW243836   0.352  11.314   6.648
80688SOL     OW43837   9.479   0.222   3.542
80688SOL    HW143838   9.394   0.224   3.586
80688SOL    HW243839   9.543   0.215   3.613
80689SOL     OW43840  13.161   5.469   2.047
80689SOL    HW143841  13.201   5.383   2.063
80689SOL    HW243842  13.068   5.450   2.037
80690SOL     OW43843   2.375   9.029  12.020
80690SOL    HW143844   2.415   9.046  11.934
80690SOL    HW243845   2.449   9.008  12.077
80691SOL     OW43846   7.034  10.117   6.477
80691SOL    HW143847   7.033  10.132   6.382
80691SOL    HW243848   7.103  10.175   6.509
80692SOL     OW43849   6.427   0.568  12.531
80692SOL    HW143850   6.416   0.656  12.497
80692SOL    HW243851   6.521   0.551  12.526
80693SOL     OW43852   0.444   5.064  14.494
80693SOL    HW143853   0.416   5.025  14.411
80693SOL    HW243854   0.397   5.015  14.561
80694SOL     OW43855   2.010   5.408   6.170
80694SOL    HW143856   1.981   5.496   6.146
80694SOL    HW243857   1.996   5.356   6.090
80695SOL     OW43858   8.195   7.761  13.571
80695SOL    HW143859   8.219   7.703  13.499
80695SOL    HW243860   8.139   7.708  13.628
80696SOL     OW43861   7.473   2.969   1.602
80696SOL    HW143862   7.422   2.945   1.526
80696SOL    HW243863   7.414   2.955   1.676
80697SOL     OW43864   3.037  13.100  11.549
80697SOL    HW143865   3.044  13.004  11.543
80697SOL    HW243866   2.980  13.125  11.476
80698SOL     OW43867  12.869   1.602   6.790
80698SOL    HW143868  12.811   1.613   6.715
80698SOL    HW243869  12.875   1.689   6.829
80699SOL     OW43870  14.381   9.811   0.215
80699SOL    HW143871  14.342   9.724   0.228
80699SOL    HW243872  14.389   9.847   0.303
80700SOL     OW43873   2.929   1.871  14.643
80700SOL    HW143874   2.884   1.930  14.703
80700SOL    HW243875   3.017   1.861  14.680
80701SOL     OW43876  13.534   1.007   7.135
80701SOL    HW143877  13.582   0.928   7.160
80701SOL    HW243878  13.443   0.988   7.160
80702SOL     OW43879   0.513   7.001   6.227
80702SOL    HW143880   0.446   6.934   6.233
80702SOL    HW243881   0.468   7.077   6.191
80703SOL     OW43882   9.150  13.538   8.228
80703SOL    HW143883   9.186  13.518   8.314
80703SOL    HW243884   9.080  13.474   8.216
80704SOL     OW43885   0.604  14.164   6.161
80704SOL    HW143886   0.601  14.247   6.208
80704SOL    HW243887   0.695  14.136   6.165
80705SOL     OW43888   8.459   7.819  11.063
80705SOL    HW143889   8.524   7.768  11.111
80705SOL    HW243890   8.450   7.900  11.113
80706SOL     OW43891   3.777   3.498   5.257
80706SOL    HW143892   3.829   3.447   5.319
80706SOL    HW243893   3.776   3.586   5.293
80707SOL     OW43894   3.749   8.297  11.179
80707SOL    HW143895   3.770   8.391  11.175
80707SOL    HW243896   3.748   8.269  11.088
80708SOL     OW43897   7.245  13.295  12.439
80708SOL    HW143898   7.304  13.342  12.381
80708SOL    HW243899   7.294  13.217  12.466
80709SOL     OW43900   5.802   2.420   1.343
80709SOL    HW143901   5.739   2.358   1.307
80709SOL    HW243902   5.749   2.487   1.386
80710SOL     OW43903  12.207   4.973  10.280
80710SOL    HW143904  12.251   5.000  10.361
80710SOL    HW243905  12.277   4.954  10.219
80711SOL     OW43906  12.478   2.920   0.916
80711SOL    HW143907  12.544   2.964   0.971
80711SOL    HW243908  12.407   2.983   0.909
80712SOL     OW43909   3.444  12.655  12.645
80712SOL    HW143910   3.351  12.635  12.656
80712SOL    HW243911   3.445  12.735  12.593
80713SOL     OW43912   7.664   4.072   7.779
80713SOL    HW143913   7.573   4.099   7.764
80713SOL    HW243914   7.716   4.148   7.751
80714SOL     OW43915   1.680   9.834   8.002
80714SOL    HW143916   1.599   9.808   7.958
80714SOL    HW243917   1.664   9.924   8.031
80715SOL     OW43918   5.531   4.590  11.248
80715SOL    HW143919   5.574   4.640  11.178
80715SOL    HW243920   5.502   4.510  11.204
80716SOL     OW43921   4.526   8.467   1.257
80716SOL    HW143922   4.598   8.484   1.318
80716SOL    HW243923   4.456   8.432   1.313
80717SOL     OW43924  10.960  11.347   7.698
80717SOL    HW143925  10.971  11.286   7.625
80717SOL    HW243926  10.923  11.426   7.657
80718SOL     OW43927   0.578   8.886   9.330
80718SOL    HW143928   0.638   8.826   9.373
80718SOL    HW243929   0.633   8.943   9.278
80719SOL     OW43930   4.314   8.253  12.503
80719SOL    HW143931   4.234   8.272  12.453
80719SOL    HW243932   4.304   8.304  12.584
80720SOL     OW43933  14.478   7.681   2.712
80720SOL    HW143934  14.519   7.687   2.626
80720SOL    HW243935  14.434   7.765   2.724
80721SOL     OW43936   2.027   0.910   1.782
80721SOL    HW143937   1.953   0.957   1.743
80721SOL    HW243938   2.094   0.978   1.794
80722SOL     OW43939  10.210   7.290  12.436
80722SOL    HW143940  10.294   7.246  12.447
80722SOL    HW243941  10.150   7.221  12.408
80723SOL     OW43942  11.295   6.683   7.038
80723SOL    HW143943  11.233   6.617   7.007
80723SOL    HW243944  11.241   6.756   7.065
80724SOL     OW43945   1.213   3.729   5.493
80724SOL    HW143946   1.282   3.789   5.522
80724SOL    HW243947   1.132   3.771   5.521
80725SOL     OW43948   1.004   5.757   6.120
80725SOL    HW143949   0.948   5.804   6.059
80725SOL    HW243950   0.944   5.708   6.176
80726SOL     OW43951  12.369   8.234  10.679
80726SOL    HW143952  12.356   8.327  10.700
80726SOL    HW243953  12.459   8.216  10.705
80727SOL     OW43954  11.991   1.180   6.220
80727SOL    HW143955  12.001   1.117   6.149
80727SOL    HW243956  12.045   1.145   6.291
80728SOL     OW43957   1.034  11.130   7.999
80728SOL    HW143958   0.953  11.171   7.970
80728SOL    HW243959   1.084  11.201   8.039
80729SOL     OW43960   6.890  13.770  11.250
80729SOL    HW143961   6.808  13.723  11.268
80729SOL    HW243962   6.948  13.745  11.321
80730SOL     OW43963  14.298   0.081  14.737
80730SOL    HW143964  14.207   0.101  14.715
80730SOL    HW243965  14.292   0.020  14.810
80731SOL     OW43966   2.517  13.950  10.649
80731SOL    HW143967   2.567  14.012  10.597
80731SOL    HW243968   2.462  13.904  10.586
80732SOL     OW43969   9.672   7.477  12.180
80732SOL    HW143970   9.718   7.407  12.133
80732SOL    HW243971   9.585   7.439  12.199
80733SOL     OW43972   8.668  12.648   5.880
80733SOL    HW143973   8.720  12.592   5.938
80733SOL    HW243974   8.719  12.653   5.799
80734SOL     OW43975   2.215   2.328  10.970
80734SOL    HW143976   2.287   2.268  10.949
80734SOL    HW243977   2.136   2.278  10.952
80735SOL     OW43978  12.130  11.354  12.658
80735SOL    HW143979  12.169  11.440  12.673
80735SOL    HW243980  12.078  11.365  12.578
80736SOL     OW43981   6.665   4.176  12.773
80736SOL    HW143982   6.594   4.241  12.769
80736SOL    HW243983   6.688   4.172  12.866
80737SOL     OW43984  12.838   4.263   1.610
80737SOL    HW143985  12.781   4.186   1.608
80737SOL    HW243986  12.892   4.255   1.531
80738SOL     OW43987  11.304   2.997  10.433
80738SOL    HW143988  11.325   2.969  10.344
80738SOL    HW243989  11.387   2.988  10.481
80739SOL     OW43990  12.088  12.511   0.778
80739SOL    HW143991  12.092  12.601   0.746
80739SOL    HW243992  12.118  12.458   0.704
80740SOL     OW43993   1.817  13.004   9.902
80740SOL    HW143994   1.870  13.083   9.906
80740SOL    HW243995   1.787  12.999   9.811
80741SOL     OW43996   1.897   7.082   1.050
80741SOL    HW143997   1.868   7.079   0.959
80741SOL    HW243998   1.900   6.990   1.077
80742SOL     OW43999   8.343   9.940  10.398
80742SOL    HW144000   8.339   9.844  10.401
80742SOL    HW244001   8.381   9.965  10.482
80743SOL     OW44002  14.681   2.923   8.461
80743SOL    HW144003  14.698   2.879   8.378
80743SOL    HW244004  14.647   3.009   8.436
80744SOL     OW44005   0.656   6.683  14.622
80744SOL    HW144006   0.706   6.754  14.662
80744SOL    HW244007   0.675   6.607  14.677
80745SOL     OW44008   4.408  11.793  10.239
80745SOL    HW144009   4.342  11.760  10.178
80745SOL    HW244010   4.386  11.886  10.250
80746SOL     OW44011   4.328  13.427   7.066
80746SOL    HW144012   4.346  13.517   7.038
80746SOL    HW244013   4.400  13.406   7.126
80747SOL     OW44014   7.931   8.614   8.800
80747SOL    HW144015   7.958   8.633   8.710
80747SOL    HW244016   7.974   8.681   8.853
80748SOL     OW44017   9.691  12.055   6.779
80748SOL    HW144018   9.615  12.096   6.737
80748SOL    HW244019   9.716  12.117   6.847
80749SOL     OW44020   8.154  13.210   8.077
80749SOL    HW144021   8.207  13.252   8.144
80749SOL    HW244022   8.185  13.249   7.995
80750SOL     OW44023   1.938   6.263   8.537
80750SOL    HW144024   1.856   6.292   8.576
80750SOL    HW244025   1.981   6.343   8.508
80751SOL     OW44026  11.246  13.855  10.273
80751SOL    HW144027  11.274  13.934  10.226
80751SOL    HW244028  11.216  13.888  10.358
80752SOL     OW44029   6.137  12.944   1.994
80752SOL    HW144030   6.199  13.011   1.966
80752SOL    HW244031   6.078  12.933   1.919
80753SOL     OW44032  11.238   0.055   4.511
80753SOL    HW144033  11.293  14.861   4.530
80753SOL    HW244034  11.201   0.081   4.596
80754SOL     OW44035   3.818   7.194  11.649
80754SOL    HW144036   3.731   7.176  11.683
80754SOL    HW244037   3.867   7.113  11.660
80755SOL     OW44038  13.405   5.610  12.681
80755SOL    HW144039  13.446   5.692  12.653
80755SOL    HW244040  13.433   5.598  12.772
80756SOL     OW44041  11.967   5.456   1.956
80756SOL    HW144042  12.042   5.443   1.898
80756SOL    HW244043  11.924   5.370   1.960
80757SOL     OW44044   3.940   7.401  11.360
80757SOL    HW144045   3.913   7.430  11.272
80757SOL    HW244046   3.982   7.317  11.345
80758SOL     OW44047   5.286  12.885   0.054
80758SOL    HW144048   5.353  12.857  14.873
80758SOL    HW244049   5.336  12.916   0.130
80759SOL     OW44050   0.295  11.182   5.322
80759SOL    HW144051   0.318  11.220   5.238
80759SOL    HW244052   0.358  11.112   5.336
80760SOL     OW44053   8.262   5.669  14.146
80760SOL    HW144054   8.305   5.716  14.074
80760SOL    HW244055   8.334   5.628  14.194
80761SOL     OW44056   2.371   4.498   9.965
80761SOL    HW144057   2.354   4.505  10.059
80761SOL    HW244058   2.392   4.405   9.952
80762SOL     OW44059   5.269  11.643   5.619
80762SOL    HW144060   5.341  11.609   5.673
80762SOL    HW244061   5.202  11.668   5.682
80763SOL     OW44062   5.629   8.126   7.551
80763SOL    HW144063   5.636   8.118   7.456
80763SOL    HW244064   5.591   8.043   7.579
80764SOL     OW44065   4.507   2.662  13.561
80764SOL    HW144066   4.427   2.646  13.511
80764SOL    HW244067   4.556   2.580  13.554
80765SOL     OW44068   8.668  12.940   2.122
80765SOL    HW144069   8.668  13.001   2.196
80765SOL    HW244070   8.588  12.960   2.073
80766SOL     OW44071   9.671  14.130  13.090
80766SOL    HW144072   9.686  14.151  12.998
80766SOL    HW244073   9.576  14.132  13.100
80767SOL     OW44074  14.696  14.728  11.844
80767SOL    HW144075  14.603  14.727  11.866
80767SOL    HW244076  14.699  14.747  11.750
80768SOL     OW44077  11.890  11.677  10.676
80768SOL    HW144078  11.938  11.752  10.641
80768SOL    HW244079  11.875  11.621  10.600
80769SOL     OW44080   9.271  11.063  12.902
80769SOL    HW144081   9.240  11.067  12.812
80769SOL    HW244082   9.363  11.087  12.897
80770SOL     OW44083   3.868   1.123   6.752
80770SOL    HW144084   3.947   1.177   6.756
80770SOL    HW244085   3.897   1.036   6.778
80771SOL     OW44086  14.399   4.132   4.772
80771SOL    HW144087  14.405   4.227   4.769
80771SOL    HW244088  14.350   4.114   4.852
80772SOL     OW44089   3.168   2.558   7.831
80772SOL    HW144090   3.204   2.541   7.918
80772SOL    HW244091   3.128   2.645   7.838
80773SOL     OW44092   8.329   7.121   6.622
80773SOL    HW144093   8.315   7.213   6.598
80773SOL    HW244094   8.271   7.072   6.564
80774SOL     OW44095   5.783   0.586   7.314
80774SOL    HW144096   5.790   0.556   7.404
80774SOL    HW244097   5.863   0.635   7.298
80775SOL     OW44098   6.257   4.881  12.110
80775SOL    HW144099   6.344   4.865  12.146
80775SOL    HW244100   6.257   4.837  12.025
80776SOL     OW44101   4.483   6.270   6.497
80776SOL    HW144102   4.507   6.211   6.426
80776SOL    HW244103   4.403   6.232   6.533
80777SOL     OW44104  12.341   7.971  12.509
80777SOL    HW144105  12.295   8.037  12.561
80777SOL    HW244106  12.412   7.941  12.566
80778SOL     OW44107   9.440   9.729   2.775
80778SOL    HW144108   9.402   9.711   2.860
80778SOL    HW244109   9.459   9.643   2.738
80779SOL     OW44110  10.634   7.355   3.915
80779SOL    HW144111  10.617   7.373   4.007
80779SOL    HW244112  10.711   7.298   3.916
80780SOL     OW44113   1.478  14.512   2.081
80780SOL    HW144114   1.504  14.429   2.121
80780SOL    HW244115   1.494  14.500   1.988
80781SOL     OW44116  13.407  13.507   9.341
80781SOL    HW144117  13.441  13.465   9.263
80781SOL    HW244118  13.326  13.550   9.312
80782SOL     OW44119   3.210   8.457  12.668
80782SOL    HW144120   3.248   8.371  12.650
80782SOL    HW244121   3.276   8.501  12.723
80783SOL     OW44122  10.803   2.929  12.229
80783SOL    HW144123  10.844   3.000  12.277
80783SOL    HW244124  10.873   2.863  12.220
80784SOL     OW44125   9.857  13.349   9.079
80784SOL    HW144126   9.928  13.325   9.139
80784SOL    HW244127   9.818  13.427   9.118
80785SOL     OW44128   7.047   7.294   3.044
80785SOL    HW144129   7.142   7.307   3.046
80785SOL    HW244130   7.029   7.261   2.956
80786SOL     OW44131   4.132  12.380   1.431
80786SOL    HW144132   4.100  12.347   1.515
80786SOL    HW244133   4.055  12.417   1.389
80787SOL     OW44134   3.272   2.427  11.052
80787SOL    HW144135   3.327   2.446  10.975
80787SOL    HW244136   3.255   2.513  11.089
80788SOL     OW44137  12.325   1.392  12.753
80788SOL    HW144138  12.294   1.476  12.786
80788SOL    HW244139  12.326   1.335  12.829
80789SOL     OW44140  14.613   4.356  13.418
80789SOL    HW144141  14.652   4.443  13.417
80789SOL    HW244142  14.572   4.346  13.332
80790SOL     OW44143  13.345   0.727   2.373
80790SOL    HW144144  13.250   0.710   2.376
80790SOL    HW244145  13.359   0.794   2.439
80791SOL     OW44146   6.104  11.197  11.855
80791SOL    HW144147   6.040  11.192  11.783
80791SOL    HW244148   6.154  11.116  11.849
80792SOL     OW44149   3.679   5.381   1.672
80792SOL    HW144150   3.605   5.436   1.647
80792SOL    HW244151   3.648   5.333   1.749
80793SOL     OW44152   5.824   5.684  13.298
80793SOL    HW144153   5.852   5.597  13.328
80793SOL    HW244154   5.756   5.665  13.234
80794SOL     OW44155   8.465   0.579  12.673
80794SOL    HW144156   8.375   0.611  12.673
80794SOL    HW244157   8.513   0.639  12.731
80795SOL     OW44158  11.899   3.680   4.813
80795SOL    HW144159  11.830   3.723   4.864
80795SOL    HW244160  11.894   3.588   4.839
80796SOL     OW44161   7.125  10.835   8.787
80796SOL    HW144162   7.151  10.769   8.851
80796SOL    HW244163   7.071  10.788   8.724
80797SOL     OW44164   2.625   8.110   4.048
80797SOL    HW144165   2.647   8.097   4.140
80797SOL    HW244166   2.548   8.054   4.034
80798SOL     OW44167   6.795  13.840   6.740
80798SOL    HW144168   6.871  13.840   6.799
80798SOL    HW244169   6.810  13.914   6.682
80799SOL     OW44170  12.143   2.018   0.254
80799SOL    HW144171  12.200   2.048   0.183
80799SOL    HW244172  12.097   2.097   0.283
80800SOL     OW44173   6.047   3.483   9.357
80800SOL    HW144174   6.005   3.564   9.386
80800SOL    HW244175   6.038   3.483   9.262
80801SOL     OW44176   2.557   2.337  13.982
80801SOL    HW144177   2.489   2.339  13.915
80801SOL    HW244178   2.623   2.277  13.947
80802SOL     OW44179   8.782  14.679   6.657
80802SOL    HW144180   8.688  14.696   6.668
80802SOL    HW244181   8.823  14.716   6.735
80803SOL     OW44182   3.495  11.240  14.084
80803SOL    HW144183   3.558  11.236  14.012
80803SOL    HW244184   3.409  11.235  14.042
80804SOL     OW44185   6.952  11.095   1.659
80804SOL    HW144186   7.011  11.084   1.585
80804SOL    HW244187   6.865  11.074   1.626
80805SOL     OW44188   4.000   3.202   9.743
80805SOL    HW144189   3.982   3.244   9.659
80805SOL    HW244190   3.926   3.227   9.799
80806SOL     OW44191   7.114   4.127   3.650
80806SOL    HW144192   7.084   4.041   3.622
80806SOL    HW244193   7.195   4.141   3.601
80807SOL     OW44194   5.189  10.029   8.304
80807SOL    HW144195   5.225  10.107   8.261
80807SOL    HW244196   5.105  10.057   8.340
80808SOL     OW44197   2.046  13.381   4.305
80808SOL    HW144198   2.040  13.456   4.247
80808SOL    HW244199   2.136  13.350   4.296
80809SOL     OW44200   1.636  12.887  11.242
80809SOL    HW144201   1.669  12.884  11.152
80809SOL    HW244202   1.711  12.919  11.293
80810SOL     OW44203   2.302   3.636   5.255
80810SOL    HW144204   2.273   3.620   5.345
80810SOL    HW244205   2.224   3.621   5.202
80811SOL     OW44206   1.198   5.064  12.167
80811SOL    HW144207   1.209   4.969  12.173
80811SOL    HW244208   1.110   5.080  12.202
80812SOL     OW44209   9.089  11.387   0.254
80812SOL    HW144210   9.011  11.369   0.306
80812SOL    HW244211   9.162  11.364   0.311
80813SOL     OW44212  13.510   9.590  13.926
80813SOL    HW144213  13.564   9.629  13.858
80813SOL    HW244214  13.473   9.664  13.974
80814SOL     OW44215   5.681   9.947   6.008
80814SOL    HW144216   5.728   9.897   5.942
80814SOL    HW244217   5.749   9.995   6.055
80815SOL     OW44218  12.707   4.504   6.021
80815SOL    HW144219  12.635   4.441   6.030
80815SOL    HW244220  12.764   4.465   5.955
80816SOL     OW44221  10.785   9.206   3.401
80816SOL    HW144222  10.816   9.126   3.443
80816SOL    HW244223  10.770   9.182   3.310
80817SOL     OW44224   2.074  10.301   6.107
80817SOL    HW144225   2.040  10.390   6.118
80817SOL    HW244226   2.127  10.306   6.027
80818SOL     OW44227   1.323   0.783   4.179
80818SOL    HW144228   1.293   0.755   4.093
80818SOL    HW244229   1.402   0.835   4.162
80819SOL     OW44230   0.290  10.245  12.970
80819SOL    HW144231   0.252  10.166  12.931
80819SOL    HW244232   0.338  10.213  13.046
80820SOL     OW44233  14.851   7.141   2.001
80820SOL    HW144234  14.770   7.107   1.963
80820SOL    HW244235  14.843   7.236   1.992
80821SOL     OW44236   4.228   6.240  14.546
80821SOL    HW144237   4.258   6.239  14.637
80821SOL    HW244238   4.251   6.327  14.514
80822SOL     OW44239  12.026  11.552   2.856
80822SOL    HW144240  12.001  11.643   2.873
80822SOL    HW244241  11.943  11.507   2.839
80823SOL     OW44242   0.603   1.886   8.259
80823SOL    HW144243   0.579   1.977   8.237
80823SOL    HW244244   0.593   1.881   8.354
80824SOL     OW44245  10.985   6.350   8.506
80824SOL    HW144246  11.056   6.300   8.546
80824SOL    HW244247  11.017   6.372   8.419
80825SOL     OW44248   6.949  13.339  12.931
80825SOL    HW144249   6.898  13.322  12.852
80825SOL    HW244250   6.894  13.307  13.002
80826SOL     OW44251   2.791   0.827   4.161
80826SOL    HW144252   2.871   0.799   4.116
80826SOL    HW244253   2.759   0.901   4.110
80827SOL     OW44254   5.293   7.901  12.763
80827SOL    HW144255   5.330   7.977  12.717
80827SOL    HW244256   5.206   7.930  12.791
80828SOL     OW44257  10.571  10.350   6.214
80828SOL    HW144258  10.639  10.407   6.177
80828SOL    HW244259  10.616  10.268   6.232
80829SOL     OW44260   4.706   1.567   0.805
80829SOL    HW144261   4.671   1.552   0.717
80829SOL    HW244262   4.781   1.625   0.791
80830SOL     OW44263   6.594   6.035   1.638
80830SOL    HW144264   6.511   6.003   1.673
80830SOL    HW244265   6.637   5.958   1.602
80831SOL     OW44266   9.139   1.411   3.975
80831SOL    HW144267   9.227   1.393   3.941
80831SOL    HW244268   9.135   1.506   3.984
80832SOL     OW44269  10.152   9.573  11.127
80832SOL    HW144270  10.212   9.636  11.089
80832SOL    HW244271  10.204   9.493  11.136
80833SOL     OW44272   1.872  14.667  13.846
80833SOL    HW144273   1.780  14.643  13.847
80833SOL    HW244274   1.896  14.670  13.754
80834SOL     OW44275  11.617  12.559  11.935
80834SOL    HW144276  11.701  12.566  11.888
80834SOL    HW244277  11.620  12.629  12.000
80835SOL     OW44278   9.044   0.986  12.188
80835SOL    HW144279   9.107   0.964  12.120
80835SOL    HW244280   9.097   0.997  12.267
80836SOL     OW44281   5.885   9.229   3.960
80836SOL    HW144282   5.930   9.210   4.042
80836SOL    HW244283   5.801   9.183   3.968
80837SOL     OW44284   1.503   9.038   4.255
80837SOL    HW144285   1.548   9.076   4.179
80837SOL    HW244286   1.573   9.015   4.316
80838SOL     OW44287   8.024   9.258   9.083
80838SOL    HW144288   8.047   9.349   9.103
80838SOL    HW244289   8.022   9.254   8.988
80839SOL     OW44290  11.255   9.612   6.552
80839SOL    HW144291  11.237   9.588   6.461
80839SOL    HW244292  11.319   9.684   6.545
80840SOL     OW44293  12.909   5.085  11.047
80840SOL    HW144294  12.878   5.106  11.135
80840SOL    HW244295  12.921   4.990  11.047
80841SOL     OW44296  12.581   7.897  11.912
80841SOL    HW144297  12.568   7.896  11.817
80841SOL    HW244298  12.659   7.950  11.925
80842SOL     OW44299   3.836   3.409   4.272
80842SOL    HW144300   3.788   3.492   4.267
80842SOL    HW244301   3.911   3.428   4.328
80843SOL     OW44302   2.174   4.882   7.655
80843SOL    HW144303   2.165   4.914   7.565
80843SOL    HW244304   2.269   4.877   7.668
80844SOL     OW44305   6.228   1.538   8.972
80844SOL    HW144306   6.166   1.477   9.013
80844SOL    HW244307   6.227   1.615   9.028
80845SOL     OW44308  10.408   2.500  12.043
80845SOL    HW144309  10.363   2.572  11.999
80845SOL    HW244310  10.418   2.530  12.133
80846SOL     OW44311   2.921   6.683   7.016
80846SOL    HW144312   2.942   6.683   6.922
80846SOL    HW244313   2.825   6.686   7.019
80847SOL     OW44314  10.126   6.135   5.014
80847SOL    HW144315  10.126   6.149   5.109
80847SOL    HW244316  10.218   6.124   4.991
80848SOL     OW44317   2.678   1.506  10.789
80848SOL    HW144318   2.645   1.418  10.768
80848SOL    HW244319   2.605   1.564  10.766
80849SOL     OW44320  13.712   0.758   8.213
80849SOL    HW144321  13.800   0.753   8.250
80849SOL    HW244322  13.694   0.852   8.207
80850SOL     OW44323  13.406   6.519  12.258
80850SOL    HW144324  13.419   6.611  12.233
80850SOL    HW244325  13.495   6.483  12.262
80851SOL     OW44326  10.789   8.014  14.355
80851SOL    HW144327  10.710   8.022  14.408
80851SOL    HW244328  10.785   8.088  14.295
80852SOL     OW44329   5.950   4.142  11.501
80852SOL    HW144330   5.944   4.198  11.578
80852SOL    HW244331   5.868   4.091  11.502
80853SOL     OW44332   4.926  11.844   6.080
80853SOL    HW144333   4.914  11.938   6.088
80853SOL    HW244334   4.846  11.806   6.117
80854SOL     OW44335   3.544   3.413  11.793
80854SOL    HW144336   3.564   3.379  11.706
80854SOL    HW244337   3.497   3.495  11.777
80855SOL     OW44338  12.783  11.278   8.363
80855SOL    HW144339  12.714  11.230   8.408
80855SOL    HW244340  12.738  11.356   8.328
80856SOL     OW44341   1.646  11.253   3.048
80856SOL    HW144342   1.594  11.330   3.028
80856SOL    HW244343   1.582  11.189   3.080
80857SOL     OW44344   8.445  14.156   2.381
80857SOL    HW144345   8.395  14.096   2.435
80857SOL    HW244346   8.415  14.139   2.292
80858SOL     OW44347   4.563  14.681   0.128
80858SOL    HW144348   4.493  14.643   0.075
80858SOL    HW244349   4.599  14.606   0.177
80859SOL     OW44350  12.155   3.276   8.025
80859SOL    HW144351  12.066   3.297   8.053
80859SOL    HW244352  12.200   3.252   8.106
80860SOL     OW44353   9.268   0.998  10.681
80860SOL    HW144354   9.259   0.932  10.611
80860SOL    HW244355   9.179   1.027  10.698
80861SOL     OW44356   8.956   4.769   1.427
80861SOL    HW144357   9.008   4.703   1.382
80861SOL    HW244358   9.006   4.850   1.416
80862SOL     OW44359   5.398   8.779  13.890
80862SOL    HW144360   5.379   8.860  13.936
80862SOL    HW244361   5.327   8.769  13.827
80863SOL     OW44362  13.250   1.028   7.899
80863SOL    HW144363  13.205   0.946   7.915
80863SOL    HW244364  13.343   1.008   7.914
80864SOL     OW44365   6.559   6.216   2.459
80864SOL    HW144366   6.574   6.237   2.367
80864SOL    HW244367   6.590   6.126   2.469
80865SOL     OW44368   0.981   4.704  14.716
80865SOL    HW144369   1.028   4.769  14.767
80865SOL    HW244370   0.951   4.751  14.638
80866SOL     OW44371  13.722   8.951   2.749
80866SOL    HW144372  13.785   8.912   2.811
80866SOL    HW244373  13.751   9.041   2.738
80867SOL     OW44374  10.998   0.452   1.164
80867SOL    HW144375  10.938   0.476   1.093
80867SOL    HW244376  11.036   0.536   1.192
80868SOL     OW44377   3.460  12.491   2.669
80868SOL    HW144378   3.512  12.427   2.718
80868SOL    HW244379   3.470  12.572   2.717
80869SOL     OW44380   8.152   4.945   6.412
80869SOL    HW144381   8.178   5.035   6.429
80869SOL    HW244382   8.225   4.909   6.360
80870SOL     OW44383   4.339  12.259   8.314
80870SOL    HW144384   4.268  12.319   8.336
80870SOL    HW244385   4.385  12.245   8.397
80871SOL     OW44386   3.438  12.312   4.761
80871SOL    HW144387   3.507  12.337   4.700
80871SOL    HW244388   3.405  12.229   4.726
80872SOL     OW44389   8.694   7.640  13.912
80872SOL    HW144390   8.630   7.673  13.975
80872SOL    HW244391   8.673   7.686  13.831
80873SOL     OW44392   7.707  10.780   2.534
80873SOL    HW144393   7.788  10.758   2.489
80873SOL    HW244394   7.671  10.695   2.561
80874SOL     OW44395   3.997  11.197   5.551
80874SOL    HW144396   4.083  11.225   5.517
80874SOL    HW244397   4.006  11.206   5.646
80875SOL     OW44398  14.637  11.651   2.796
80875SOL    HW144399  14.544  11.637   2.781
80875SOL    HW244400  14.640  11.722   2.860
80876SOL     OW44401   2.332  13.782  10.490
80876SOL    HW144402   2.309  13.695  10.523
80876SOL    HW244403   2.341  13.771  10.396
80877SOL     OW44404   8.577   0.235   7.901
80877SOL    HW144405   8.540   0.323   7.903
80877SOL    HW244406   8.672   0.248   7.896
80878SOL     OW44407   8.124  13.318   6.232
80878SOL    HW144408   8.172  13.386   6.279
80878SOL    HW244409   8.174  13.238   6.247
80879SOL     OW44410   6.658   7.436   1.683
80879SOL    HW144411   6.733   7.410   1.737
80879SOL    HW244412   6.581   7.413   1.736
80880SOL     OW44413  10.996  11.960  11.840
80880SOL    HW144414  10.932  12.013  11.886
80880SOL    HW244415  11.080  12.003  11.858
80881SOL     OW44416  12.327  14.128   9.479
80881SOL    HW144417  12.288  14.115   9.565
80881SOL    HW244418  12.360  14.218   9.481
80882SOL     OW44419   2.871   7.864   5.527
80882SOL    HW144420   2.850   7.808   5.601
80882SOL    HW244421   2.876   7.804   5.452
80883SOL     OW44422  10.257   1.475   9.044
80883SOL    HW144423  10.294   1.534   8.979
80883SOL    HW244424  10.296   1.390   9.024
80884SOL     OW44425   5.949  12.226   9.109
80884SOL    HW144426   5.937  12.289   9.038
80884SOL    HW244427   5.987  12.277   9.180
80885SOL     OW44428   0.052   8.576   3.562
80885SOL    HW144429   0.096   8.635   3.501
80885SOL    HW244430  14.860   8.627   3.595
80886SOL     OW44431   1.703   2.083   5.894
80886SOL    HW144432   1.740   2.048   5.813
80886SOL    HW244433   1.743   2.030   5.964
80887SOL     OW44434   5.811   3.230   5.820
80887SOL    HW144435   5.794   3.202   5.910
80887SOL    HW244436   5.724   3.250   5.785
80888SOL     OW44437   9.295   8.748   6.770
80888SOL    HW144438   9.285   8.707   6.685
80888SOL    HW244439   9.206   8.762   6.801
80889SOL     OW44440   9.752   1.668  11.039
80889SOL    HW144441   9.784   1.603  10.976
80889SOL    HW244442   9.656   1.667  11.027
80890SOL     OW44443  11.515   5.684   8.306
80890SOL    HW144444  11.456   5.610   8.294
80890SOL    HW244445  11.518   5.726   8.220
80891SOL     OW44446   3.321   0.961  10.993
80891SOL    HW144447   3.259   0.892  11.016
80891SOL    HW244448   3.383   0.919  10.934
80892SOL     OW44449   1.407   0.399   1.845
80892SOL    HW144450   1.334   0.339   1.861
80892SOL    HW244451   1.373   0.485   1.870
80893SOL     OW44452   8.171   0.469   1.947
80893SOL    HW144453   8.123   0.387   1.960
80893SOL    HW244454   8.213   0.458   1.862
80894SOL     OW44455  12.007  11.665   8.740
80894SOL    HW144456  12.005  11.572   8.761
80894SOL    HW244457  11.941  11.705   8.797
80895SOL     OW44458  10.601  11.291   1.619
80895SOL    HW144459  10.655  11.369   1.623
80895SOL    HW244460  10.530  11.314   1.558
80896SOL     OW44461   2.520  10.047  13.255
80896SOL    HW144462   2.521  10.137  13.222
80896SOL    HW244463   2.509  10.057  13.349
80897SOL     OW44464   1.640   0.209   1.540
80897SOL    HW144465   1.647   0.304   1.524
80897SOL    HW244466   1.636   0.171   1.452
80898SOL     OW44467   0.500   6.543   5.376
80898SOL    HW144468   0.442   6.617   5.387
80898SOL    HW244469   0.456   6.487   5.311
80899SOL     OW44470   3.127   0.526   2.545
80899SOL    HW144471   3.188   0.457   2.520
80899SOL    HW244472   3.092   0.497   2.630
80900SOL     OW44473  13.370   9.698  14.793
80900SOL    HW144474  13.363   9.682  14.699
80900SOL    HW244475  13.336   9.787  14.805
80901SOL     OW44476   7.889  14.088   4.246
80901SOL    HW144477   7.940  14.135   4.180
80901SOL    HW244478   7.826  14.153   4.277
80902SOL     OW44479  10.542   3.066   7.660
80902SOL    HW144480  10.511   3.055   7.749
80902SOL    HW244481  10.464   3.054   7.605
80903SOL     OW44482   6.777  12.874  12.608
80903SOL    HW144483   6.827  12.933  12.552
80903SOL    HW244484   6.754  12.801  12.551
80904SOL     OW44485   8.198  11.260   7.764
80904SOL    HW144486   8.264  11.301   7.820
80904SOL    HW244487   8.114  11.285   7.802
80905SOL     OW44488  14.629   8.942   6.476
80905SOL    HW144489  14.659   8.874   6.536
80905SOL    HW244490  14.617   9.019   6.531
80906SOL     OW44491   0.868   3.209   7.485
80906SOL    HW144492   0.775   3.229   7.484
80906SOL    HW244493   0.898   3.239   7.571
80907SOL     OW44494   3.096   3.895   7.603
80907SOL    HW144495   3.031   3.924   7.666
80907SOL    HW244496   3.118   3.973   7.552
80908SOL     OW44497  14.030   5.690  13.285
80908SOL    HW144498  13.992   5.610  13.322
80908SOL    HW244499  14.105   5.710  13.342
80909SOL     OW44500   7.262   9.722   9.469
80909SOL    HW144501   7.170   9.699   9.476
80909SOL    HW244502   7.308   9.648   9.509
80910SOL     OW44503   9.579   9.353   2.104
80910SOL    HW144504   9.499   9.302   2.093
80910SOL    HW244505   9.629   9.338   2.024
80911SOL     OW44506   3.792   6.799   4.538
80911SOL    HW144507   3.740   6.861   4.589
80911SOL    HW244508   3.838   6.746   4.603
80912SOL     OW44509  13.693   2.473   4.297
80912SOL    HW144510  13.665   2.443   4.384
80912SOL    HW244511  13.644   2.555   4.284
80913SOL     OW44512  13.956   4.756   9.284
80913SOL    HW144513  14.035   4.728   9.240
80913SOL    HW244514  13.912   4.674   9.309
80914SOL     OW44515   3.063   4.768  13.034
80914SOL    HW144516   3.155   4.761  13.061
80914SOL    HW244517   3.028   4.680  13.047
80915SOL     OW44518   8.084  13.208   7.644
80915SOL    HW144519   8.071  13.300   7.669
80915SOL    HW244520   8.130  13.212   7.560
80916SOL     OW44521   9.698   4.753   7.226
80916SOL    HW144522   9.770   4.768   7.164
80916SOL    HW244523   9.707   4.824   7.290
80917SOL     OW44524   7.076   0.776  12.055
80917SOL    HW144525   7.002   0.749  12.109
80917SOL    HW244526   7.039   0.837  11.992
80918SOL     OW44527   3.251   6.805   9.792
80918SOL    HW144528   3.220   6.872   9.732
80918SOL    HW244529   3.341   6.830   9.813
80919SOL     OW44530   6.765  10.858  12.674
80919SOL    HW144531   6.809  10.906  12.604
80919SOL    HW244532   6.707  10.922  12.715
80920SOL     OW44533  12.158  14.316  10.153
80920SOL    HW144534  12.213  14.294  10.079
80920SOL    HW244535  12.199  14.271  10.228
80921SOL     OW44536   3.699   7.456   9.816
80921SOL    HW144537   3.720   7.404   9.739
80921SOL    HW244538   3.724   7.546   9.791
80922SOL     OW44539  13.127   6.920   0.123
80922SOL    HW144540  13.135   6.991   0.059
80922SOL    HW244541  13.214   6.880   0.125
80923SOL     OW44542  12.592  12.539   6.794
80923SOL    HW144543  12.588  12.448   6.765
80923SOL    HW244544  12.510  12.578   6.764
80924SOL     OW44545  13.416   8.020   8.343
80924SOL    HW144546  13.387   7.940   8.299
80924SOL    HW244547  13.467   8.067   8.277
80925SOL     OW44548  14.190  11.682  13.819
80925SOL    HW144549  14.169  11.720  13.904
80925SOL    HW244550  14.172  11.752  13.756
80926SOL     OW44551   0.156   2.602   7.868
80926SOL    HW144552   0.168   2.586   7.775
80926SOL    HW244553   0.245   2.602   7.904
80927SOL     OW44554  11.995   8.307   5.351
80927SOL    HW144555  12.020   8.237   5.292
80927SOL    HW244556  11.939   8.265   5.416
80928SOL     OW44557  13.035  10.911  10.609
80928SOL    HW144558  13.036  10.957  10.693
80928SOL    HW244559  12.972  10.960  10.556
80929SOL     OW44560   0.164   3.270   4.611
80929SOL    HW144561   0.151   3.334   4.681
80929SOL    HW244562   0.228   3.310   4.553
80930SOL     OW44563   7.206  12.965   2.665
80930SOL    HW144564   7.223  12.955   2.759
80930SOL    HW244565   7.261  12.898   2.624
80931SOL     OW44566   0.751   2.117   6.145
80931SOL    HW144567   0.779   2.099   6.055
80931SOL    HW244568   0.787   2.204   6.164
80932SOL     OW44569   2.377   3.142  12.323
80932SOL    HW144570   2.394   3.207  12.392
80932SOL    HW244571   2.464   3.111  12.298
80933SOL     OW44572  11.754  14.012  11.097
80933SOL    HW144573  11.687  13.943  11.103
80933SOL    HW244574  11.788  14.005  11.008
80934SOL     OW44575  10.438   6.964   9.272
80934SOL    HW144576  10.500   6.948   9.343
80934SOL    HW244577  10.352   6.954   9.313
80935SOL     OW44578   5.283  12.507  10.392
80935SOL    HW144579   5.296  12.447  10.465
80935SOL    HW244580   5.206  12.558  10.417
80936SOL     OW44581  11.346   7.162   1.630
80936SOL    HW144582  11.356   7.069   1.651
80936SOL    HW244583  11.263   7.166   1.583
80937SOL     OW44584   6.877   9.932  14.727
80937SOL    HW144585   6.848   9.858  14.781
80937SOL    HW244586   6.970   9.916  14.712
80938SOL     OW44587  13.440   0.883   5.611
80938SOL    HW144588  13.533   0.888   5.630
80938SOL    HW244589  13.398   0.879   5.697
80939SOL     OW44590   0.393   9.742   9.290
80939SOL    HW144591   0.341   9.739   9.370
80939SOL    HW244592   0.456   9.671   9.300
80940SOL     OW44593  14.279  13.414  13.933
80940SOL    HW144594  14.221  13.482  13.967
80940SOL    HW244595  14.346  13.461  13.884
80941SOL     OW44596   4.256   2.417  11.204
80941SOL    HW144597   4.305   2.336  11.218
80941SOL    HW244598   4.170   2.388  11.173
80942SOL     OW44599  11.699  13.825   0.183
80942SOL    HW144600  11.787  13.794   0.204
80942SOL    HW244601  11.699  13.831   0.087
80943SOL     OW44602  14.280   4.023   7.480
80943SOL    HW144603  14.250   3.933   7.496
80943SOL    HW244604  14.372   4.021   7.504
80944SOL     OW44605  14.317   4.480  13.007
80944SOL    HW144606  14.409   4.504  13.018
80944SOL    HW244607  14.282   4.478  13.096
80945SOL     OW44608   8.804  11.871  14.422
80945SOL    HW144609   8.757  11.788  14.420
80945SOL    HW244610   8.849  11.871  14.506
80946SOL     OW44611   8.754   2.809   8.242
80946SOL    HW144612   8.825   2.765   8.290
80946SOL    HW244613   8.757   2.770   8.155
80947SOL     OW44614  10.552   9.227   7.166
80947SOL    HW144615  10.482   9.292   7.158
80947SOL    HW244616  10.619   9.256   7.105
80948SOL     OW44617   8.844  13.649   0.265
80948SOL    HW144618   8.926  13.675   0.307
80948SOL    HW244619   8.790  13.728   0.267
80949SOL     OW44620  10.035   3.388   1.700
80949SOL    HW144621  10.097   3.347   1.640
80949SOL    HW244622   9.980   3.316   1.732
80950SOL     OW44623  11.002  11.637   3.345
80950SOL    HW144624  10.920  11.637   3.395
80950SOL    HW244625  11.051  11.712   3.380
80951SOL     OW44626   4.486   6.377  14.581
80951SOL    HW144627   4.581   6.372  14.572
80951SOL    HW244628   4.457   6.426  14.504
80952SOL     OW44629  14.030   7.562  12.894
80952SOL    HW144630  14.123   7.581  12.877
80952SOL    HW244631  13.986   7.647  12.883
80953SOL     OW44632   5.520   5.187   8.371
80953SOL    HW144633   5.615   5.194   8.358
80953SOL    HW244634   5.511   5.113   8.432
80954SOL     OW44635   0.598   1.922   5.437
80954SOL    HW144636   0.507   1.895   5.428
80954SOL    HW244637   0.607   1.997   5.379
80955SOL     OW44638   8.988  14.430   3.504
80955SOL    HW144639   8.974  14.463   3.415
80955SOL    HW244640   8.969  14.336   3.498
80956SOL     OW44641  14.411  13.721   3.336
80956SOL    HW144642  14.330  13.671   3.350
80956SOL    HW244643  14.462  13.668   3.275
80957SOL     OW44644   7.960   1.953   0.078
80957SOL    HW144645   7.972   2.035   0.030
80957SOL    HW244646   8.044   1.936   0.120
80958SOL     OW44647   2.448   2.362  14.249
80958SOL    HW144648   2.400   2.281  14.266
80958SOL    HW244649   2.482   2.352  14.160
80959SOL     OW44650   9.682   1.951   3.993
80959SOL    HW144651   9.722   1.864   3.995
80959SOL    HW244652   9.608   1.941   3.933
80960SOL     OW44653   2.082   6.795   8.657
80960SOL    HW144654   2.147   6.727   8.679
80960SOL    HW244655   2.050   6.826   8.741
80961SOL     OW44656  13.922   0.340  10.976
80961SOL    HW144657  13.862   0.349  10.902
80961SOL    HW244658  13.988   0.278  10.944
80962SOL     OW44659   2.895   2.941   1.160
80962SOL    HW144660   2.856   3.029   1.157
80962SOL    HW244661   2.936   2.931   1.074
80963SOL     OW44662  14.187   2.272   2.248
80963SOL    HW144663  14.245   2.333   2.203
80963SOL    HW244664  14.132   2.235   2.179
80964SOL     OW44665  13.365   8.946   1.474
80964SOL    HW144666  13.453   8.983   1.464
80964SOL    HW244667  13.308   9.007   1.429
80965SOL     OW44668   4.607  11.346  14.535
80965SOL    HW144669   4.550  11.348  14.458
80965SOL    HW244670   4.693  11.320  14.500
80966SOL     OW44671   5.132  12.306  10.119
80966SOL    HW144672   5.093  12.357  10.048
80966SOL    HW244673   5.214  12.352  10.139
80967SOL     OW44674  14.641  10.309   6.663
80967SOL    HW144675  14.680  10.327   6.749
80967SOL    HW244676  14.648  10.391   6.615
80968SOL     OW44677   0.343   7.363   6.473
80968SOL    HW144678   0.296   7.296   6.523
80968SOL    HW244679   0.386   7.417   6.540
80969SOL     OW44680   0.605   0.888  13.526
80969SOL    HW144681   0.633   0.824  13.460
80969SOL    HW244682   0.612   0.841  13.609
80970SOL     OW44683   7.382   9.008   8.768
80970SOL    HW144684   7.439   8.996   8.845
80970SOL    HW244685   7.307   9.056   8.802
80971SOL     OW44686   2.425   2.380  13.540
80971SOL    HW144687   2.407   2.380  13.446
80971SOL    HW244688   2.420   2.472  13.566
80972SOL     OW44689   5.753  13.484   9.401
80972SOL    HW144690   5.680  13.440   9.445
80972SOL    HW244691   5.822  13.489   9.468
80973SOL     OW44692   2.860   5.298  11.521
80973SOL    HW144693   2.919   5.358  11.567
80973SOL    HW244694   2.883   5.309  11.428
80974SOL     OW44695   3.092  11.887   3.413
80974SOL    HW144696   3.110  11.915   3.502
80974SOL    HW244697   3.162  11.925   3.361
80975SOL     OW44698  12.941   2.582  13.581
80975SOL    HW144699  12.887   2.549  13.509
80975SOL    HW244700  12.882   2.635  13.633
80976SOL     OW44701   6.521   9.608  10.169
80976SOL    HW144702   6.505   9.513  10.167
80976SOL    HW244703   6.540   9.627  10.261
80977SOL     OW44704  12.433   2.121  13.601
80977SOL    HW144705  12.368   2.096  13.666
80977SOL    HW244706  12.513   2.137  13.650
80978SOL     OW44707   1.645   7.617   7.276
80978SOL    HW144708   1.632   7.523   7.270
80978SOL    HW244709   1.579   7.655   7.219
80979SOL     OW44710   5.795   8.054   3.203
80979SOL    HW144711   5.840   8.093   3.278
80979SOL    HW244712   5.863   8.042   3.137
80980SOL     OW44713  13.745   0.396   3.849
80980SOL    HW144714  13.787   0.482   3.861
80980SOL    HW244715  13.657   0.407   3.886
80981SOL     OW44716   4.713  11.482   7.567
80981SOL    HW144717   4.619  11.482   7.588
80981SOL    HW244718   4.751  11.418   7.626
80982SOL     OW44719   3.491   3.789   2.900
80982SOL    HW144720   3.483   3.810   2.993
80982SOL    HW244721   3.416   3.833   2.860
80983SOL     OW44722   2.574   2.927   8.881
80983SOL    HW144723   2.555   2.880   8.800
80983SOL    HW244724   2.496   2.914   8.935
80984SOL     OW44725   9.235   4.816  13.982
80984SOL    HW144726   9.254   4.834  14.074
80984SOL    HW244727   9.202   4.899  13.947
80985SOL     OW44728  11.705  14.105   3.325
80985SOL    HW144729  11.761  14.181   3.316
80985SOL    HW244730  11.693  14.094   3.420
80986SOL     OW44731  14.332   0.337  12.343
80986SOL    HW144732  14.257   0.396  12.359
80986SOL    HW244733  14.373   0.372  12.264
80987SOL     OW44734  12.143   1.216   0.593
80987SOL    HW144735  12.189   1.255   0.518
80987SOL    HW244736  12.143   1.122   0.575
80988SOL     OW44737   3.407   6.137   8.132
80988SOL    HW144738   3.440   6.220   8.098
80988SOL    HW244739   3.316   6.156   8.156
80989SOL     OW44740   3.869   9.646  13.323
80989SOL    HW144741   3.918   9.621  13.245
80989SOL    HW244742   3.842   9.736  13.307
80990SOL     OW44743  10.767  13.145   4.700
80990SOL    HW144744  10.857  13.134   4.730
80990SOL    HW244745  10.721  13.181   4.776
80991SOL     OW44746  10.463   6.759  12.120
80991SOL    HW144747  10.448   6.809  12.040
80991SOL    HW244748  10.490   6.672  12.090
80992SOL     OW44749   7.576  13.210  10.065
80992SOL    HW144750   7.509  13.243  10.125
80992SOL    HW244751   7.548  13.121  10.043
80993SOL     OW44752  13.017   3.405   7.039
80993SOL    HW144753  13.088   3.378   7.097
80993SOL    HW244754  13.058   3.467   6.979
80994SOL     OW44755   2.960   7.600   6.418
80994SOL    HW144756   2.986   7.511   6.393
80994SOL    HW244757   2.882   7.617   6.366
80995SOL     OW44758  11.228   5.033   5.934
80995SOL    HW144759  11.181   5.039   6.017
80995SOL    HW244760  11.217   4.941   5.908
80996SOL     OW44761   4.967   9.914   3.407
80996SOL    HW144762   5.043   9.966   3.434
80996SOL    HW244763   4.901   9.930   3.475
80997SOL     OW44764  10.963   2.566   4.499
80997SOL    HW144765  10.979   2.575   4.405
80997SOL    HW244766  10.874   2.533   4.506
80998SOL     OW44767  12.521   8.768   9.244
80998SOL    HW144768  12.445   8.709   9.237
80998SOL    HW244769  12.495   8.846   9.195
80999SOL     OW44770  13.152   5.320   6.516
80999SOL    HW144771  13.207   5.398   6.507
80999SOL    HW244772  13.207   5.247   6.487
81000SOL     OW44773   1.836  11.431   9.216
81000SOL    HW144774   1.871  11.393   9.297
81000SOL    HW244775   1.879  11.381   9.147
81001SOL     OW44776   9.196   4.505   9.254
81001SOL    HW144777   9.202   4.588   9.301
81001SOL    HW244778   9.267   4.507   9.190
81002SOL     OW44779  10.905   8.317   4.202
81002SOL    HW144780  10.828   8.347   4.154
81002SOL    HW244781  10.881   8.232   4.238
81003SOL     OW44782   2.128   6.868   8.340
81003SOL    HW144783   2.159   6.791   8.292
81003SOL    HW244784   2.122   6.839   8.431
81004SOL     OW44785   7.330  11.095   5.628
81004SOL    HW144786   7.366  11.084   5.540
81004SOL    HW244787   7.236  11.106   5.613
81005SOL     OW44788   0.518   4.030   1.660
81005SOL    HW144789   0.612   4.043   1.665
81005SOL    HW244790   0.493   4.005   1.749
81006SOL     OW44791   5.870  10.129  11.767
81006SOL    HW144792   5.830  10.216  11.763
81006SOL    HW244793   5.963  10.146  11.785
81007SOL     OW44794  12.531  10.324   9.957
81007SOL    HW144795  12.568  10.243   9.994
81007SOL    HW244796  12.457  10.344  10.013
81008SOL     OW44797   5.692  14.567   8.398
81008SOL    HW144798   5.734  14.573   8.484
81008SOL    HW244799   5.607  14.608   8.409
81009SOL     OW44800   3.333   5.347   2.759
81009SOL    HW144801   3.424   5.321   2.744
81009SOL    HW244802   3.317   5.325   2.851
81010SOL     OW44803   0.294   2.362   1.313
81010SOL    HW144804   0.229   2.329   1.252
81010SOL    HW244805   0.371   2.307   1.298
81011SOL     OW44806  12.309  14.293   5.599
81011SOL    HW144807  12.257  14.303   5.678
81011SOL    HW244808  12.246  14.305   5.527
81012SOL     OW44809  11.327   9.047   6.472
81012SOL    HW144810  11.385   8.972   6.469
81012SOL    HW244811  11.239   9.010   6.462
81013SOL     OW44812   4.534   1.240   7.369
81013SOL    HW144813   4.506   1.163   7.319
81013SOL    HW244814   4.555   1.305   7.302
81014SOL     OW44815  10.183   9.713  11.796
81014SOL    HW144816  10.173   9.700  11.890
81014SOL    HW244817  10.146   9.633  11.757
81015SOL     OW44818   3.049  11.193  10.686
81015SOL    HW144819   3.110  11.149  10.744
81015SOL    HW244820   3.104  11.234  10.620
81016SOL     OW44821   2.555   5.929   3.944
81016SOL    HW144822   2.595   5.955   4.026
81016SOL    HW244823   2.465   5.904   3.967
81017SOL     OW44824   9.252  13.601  14.503
81017SOL    HW144825   9.205  13.520  14.522
81017SOL    HW244826   9.183  13.666  14.491
81018SOL     OW44827   6.618   3.513   1.348
81018SOL    HW144828   6.566   3.592   1.333
81018SOL    HW244829   6.688   3.517   1.282
81019SOL     OW44830  13.057  11.095  13.852
81019SOL    HW144831  13.137  11.132  13.890
81019SOL    HW244832  13.022  11.167  13.798
81020SOL     OW44833   7.038   6.355   8.234
81020SOL    HW144834   7.054   6.319   8.321
81020SOL    HW244835   6.979   6.428   8.249
81021SOL     OW44836  10.662  10.855   5.505
81021SOL    HW144837  10.570  10.844   5.531
81021SOL    HW244838  10.673  10.949   5.497
81022SOL     OW44839   3.568  10.436  13.154
81022SOL    HW144840   3.492  10.443  13.210
81022SOL    HW244841   3.597  10.345  13.162
81023SOL     OW44842  10.607  10.366   5.588
81023SOL    HW144843  10.518  10.395   5.565
81023SOL    HW244844  10.625  10.408   5.672
81024SOL     OW44845   4.087   1.198   9.577
81024SOL    HW144846   4.006   1.173   9.533
81024SOL    HW244847   4.065   1.200   9.670
81025SOL     OW44848   7.688   3.128  11.242
81025SOL    HW144849   7.724   3.217  11.243
81025SOL    HW244850   7.731   3.086  11.167
81026SOL     OW44851   0.004   1.149   2.651
81026SOL    HW144852  14.808   1.190   2.613
81026SOL    HW244853   0.076   1.176   2.594
81027SOL     OW44854  14.241   0.029   9.287
81027SOL    HW144855  14.292   0.106   9.314
81027SOL    HW244856  14.220   0.045   9.195
81028SOL     OW44857   7.108  13.359  10.628
81028SOL    HW144858   7.046  13.432  10.622
81028SOL    HW244859   7.087  13.305  10.552
81029SOL     OW44860   4.979   8.616   5.603
81029SOL    HW144861   5.025   8.618   5.519
81029SOL    HW244862   5.033   8.671   5.661
81030SOL     OW44863   5.435  10.837  11.435
81030SOL    HW144864   5.388  10.879  11.508
81030SOL    HW244865   5.373  10.773  11.401
81031SOL     OW44866  13.549  13.857  10.414
81031SOL    HW144867  13.586  13.903  10.339
81031SOL    HW244868  13.625  13.828  10.464
81032SOL     OW44869  14.218   9.455  13.836
81032SOL    HW144870  14.294   9.412  13.798
81032SOL    HW244871  14.180   9.390  13.895
81033SOL     OW44872   2.527   9.046  13.353
81033SOL    HW144873   2.519   8.954  13.379
81033SOL    HW244874   2.450   9.089  13.391
81034SOL     OW44875   4.387   0.332   8.898
81034SOL    HW144876   4.304   0.286   8.884
81034SOL    HW244877   4.442   0.269   8.944
81035SOL     OW44878   9.736  14.549   0.551
81035SOL    HW144879   9.732  14.634   0.595
81035SOL    HW244880   9.724  14.570   0.458
81036SOL     OW44881   8.555   5.329   5.963
81036SOL    HW144882   8.562   5.385   5.885
81036SOL    HW244883   8.480   5.363   6.011
81037SOL     OW44884   7.003   8.155   5.555
81037SOL    HW144885   6.972   8.145   5.465
81037SOL    HW244886   6.985   8.070   5.596
81038SOL     OW44887   1.304  11.397   7.777
81038SOL    HW144888   1.383  11.429   7.734
81038SOL    HW244889   1.315  11.302   7.778
81039SOL     OW44890  14.382   8.238   1.672
81039SOL    HW144891  14.369   8.206   1.761
81039SOL    HW244892  14.309   8.201   1.623
81040SOL     OW44893   7.917   4.585  14.085
81040SOL    HW144894   7.995   4.622  14.043
81040SOL    HW244895   7.950   4.512  14.136
81041SOL     OW44896   7.473  12.288   9.436
81041SOL    HW144897   7.471  12.231   9.359
81041SOL    HW244898   7.566  12.302   9.454
81042SOL     OW44899   4.929   9.000   5.875
81042SOL    HW144900   4.936   9.005   5.971
81042SOL    HW244901   4.847   9.045   5.855
81043SOL     OW44902   8.931  11.399  10.888
81043SOL    HW144903   8.968  11.455  10.819
81043SOL    HW244904   8.903  11.320  10.842
81044SOL     OW44905  10.697   9.715   6.620
81044SOL    HW144906  10.687   9.768   6.541
81044SOL    HW244907  10.695   9.778   6.692
81045SOL     OW44908   5.848   4.234   1.242
81045SOL    HW144909   5.826   4.290   1.316
81045SOL    HW244910   5.814   4.281   1.166
81046SOL     OW44911   5.767   3.306   4.056
81046SOL    HW144912   5.738   3.352   4.135
81046SOL    HW244913   5.856   3.278   4.076
81047SOL     OW44914   5.821   9.603   0.532
81047SOL    HW144915   5.873   9.681   0.510
81047SOL    HW244916   5.773   9.583   0.453
81048SOL     OW44917   1.958   3.956   3.398
81048SOL    HW144918   1.914   3.957   3.314
81048SOL    HW244919   2.048   3.981   3.378
81049SOL     OW44920   0.636  12.927   2.504
81049SOL    HW144921   0.701  12.994   2.483
81049SOL    HW244922   0.642  12.865   2.431
81050SOL     OW44923   4.413   6.047   0.364
81050SOL    HW144924   4.455   6.016   0.284
81050SOL    HW244925   4.485   6.079   0.418
81051SOL     OW44926   5.661   6.463  10.546
81051SOL    HW144927   5.657   6.412  10.465
81051SOL    HW244928   5.654   6.554  10.517
81052SOL     OW44929  14.603  11.302   8.140
81052SOL    HW144930  14.688  11.313   8.097
81052SOL    HW244931  14.549  11.373   8.104
81053SOL     OW44932  10.476   6.360   2.128
81053SOL    HW144933  10.499   6.355   2.220
81053SOL    HW244934  10.505   6.276   2.092
81054SOL     OW44935   3.840   9.396   6.381
81054SOL    HW144936   3.917   9.374   6.433
81054SOL    HW244937   3.875   9.442   6.305
81055SOL     OW44938   0.234  12.088   3.583
81055SOL    HW144939   0.253  12.173   3.622
81055SOL    HW244940   0.311  12.068   3.529
81056SOL     OW44941  11.895  10.294   2.035
81056SOL    HW144942  11.823  10.261   1.981
81056SOL    HW244943  11.901  10.231   2.107
81057SOL     OW44944  14.616   7.789   4.287
81057SOL    HW144945  14.595   7.822   4.200
81057SOL    HW244946  14.641   7.867   4.337
81058SOL     OW44947   5.610   8.813   5.241
81058SOL    HW144948   5.602   8.881   5.175
81058SOL    HW244949   5.701   8.817   5.269
81059SOL     OW44950   9.334   7.181  13.656
81059SOL    HW144951   9.401   7.115  13.674
81059SOL    HW244952   9.294   7.198  13.741
81060SOL     OW44953  12.217   4.962  11.643
81060SOL    HW144954  12.243   4.966  11.735
81060SOL    HW244955  12.277   4.900  11.603
81061SOL     OW44956   3.352   2.077   6.806
81061SOL    HW144957   3.371   1.985   6.820
81061SOL    HW244958   3.355   2.088   6.710
81062SOL     OW44959  10.468   9.963  14.451
81062SOL    HW144960  10.539  10.026  14.459
81062SOL    HW244961  10.505   9.891  14.400
81063SOL     OW44962   9.024   0.888   4.923
81063SOL    HW144963   9.039   0.902   4.830
81063SOL    HW244964   9.103   0.844   4.954
81064SOL     OW44965   5.989   6.287   3.221
81064SOL    HW144966   6.062   6.349   3.228
81064SOL    HW244967   5.968   6.286   3.127
81065SOL     OW44968   9.763   6.095   1.960
81065SOL    HW144969   9.770   6.180   2.005
81065SOL    HW244970   9.789   6.031   2.026
81066SOL     OW44971   4.244   7.241   1.568
81066SOL    HW144972   4.338   7.236   1.582
81066SOL    HW244973   4.211   7.292   1.642
81067SOL     OW44974  14.591   9.933  12.767
81067SOL    HW144975  14.674   9.922  12.720
81067SOL    HW244976  14.603   9.883  12.848
81068SOL     OW44977   7.350  14.028   2.906
81068SOL    HW144978   7.272  13.987   2.869
81068SOL    HW244979   7.416  13.958   2.905
81069SOL     OW44980  14.047   6.471   1.220
81069SOL    HW144981  14.007   6.437   1.300
81069SOL    HW244982  14.118   6.410   1.201
81070SOL     OW44983  12.447   6.451   8.246
81070SOL    HW144984  12.520   6.472   8.188
81070SOL    HW244985  12.454   6.357   8.261
81071SOL     OW44986   1.811   6.586   4.287
81071SOL    HW144987   1.889   6.566   4.236
81071SOL    HW244988   1.843   6.632   4.365
81072SOL     OW44989   1.565   1.931   4.875
81072SOL    HW144990   1.599   1.976   4.797
81072SOL    HW244991   1.635   1.938   4.939
81073SOL     OW44992   5.964   7.279  11.832
81073SOL    HW144993   6.017   7.301  11.756
81073SOL    HW244994   6.026   7.247  11.897
81074SOL     OW44995   9.218   5.603  13.300
81074SOL    HW144996   9.149   5.627  13.238
81074SOL    HW244997   9.295   5.654  13.272
81075SOL     OW44998   8.042   8.960   2.794
81075SOL    HW144999   7.992   9.010   2.730
81075SOL    HW245000   8.034   9.010   2.875
81076SOL     OW45001   1.812   9.554   9.807
81076SOL    HW145002   1.856   9.498   9.743
81076SOL    HW245003   1.731   9.506   9.829
81077SOL     OW45004   9.216   2.565   0.532
81077SOL    HW145005   9.235   2.641   0.476
81077SOL    HW245006   9.191   2.496   0.470
81078SOL     OW45007   6.680   9.440  14.472
81078SOL    HW145008   6.769   9.423  14.439
81078SOL    HW245009   6.626   9.444  14.393
81079SOL     OW45010   1.411  11.557   2.236
81079SOL    HW145011   1.463  11.619   2.184
81079SOL    HW245012   1.387  11.606   2.315
81080SOL     OW45013   5.033   3.190  12.078
81080SOL    HW145014   5.005   3.271  12.037
81080SOL    HW245015   4.973   3.179  12.153
81081SOL     OW45016   2.494   1.817  13.604
81081SOL    HW145017   2.490   1.913  13.599
81081SOL    HW245018   2.478   1.788  13.514
81082SOL     OW45019   7.658   3.338   9.846
81082SOL    HW145020   7.628   3.404   9.783
81082SOL    HW245021   7.754   3.339   9.838
81083SOL     OW45022   4.281   9.268   1.017
81083SOL    HW145023   4.373   9.260   0.993
81083SOL    HW245024   4.235   9.209   0.957
81084SOL     OW45025   0.267   0.420   4.021
81084SOL    HW145026   0.327   0.493   4.008
81084SOL    HW245027   0.218   0.443   4.100
81085SOL     OW45028  13.720   2.584   5.331
81085SOL    HW145029  13.649   2.611   5.272
81085SOL    HW245030  13.795   2.570   5.273
81086SOL     OW45031   9.104  14.852   5.211
81086SOL    HW145032   9.105  14.762   5.241
81086SOL    HW245033   9.167  14.854   5.138
81087SOL     OW45034  14.256   8.484   4.868
81087SOL    HW145035  14.273   8.543   4.941
81087SOL    HW245036  14.166   8.455   4.881
81088SOL     OW45037   4.111   1.899   1.134
81088SOL    HW145038   4.193   1.903   1.085
81088SOL    HW245039   4.075   1.988   1.126
81089SOL     OW45040   4.119  10.856  10.957
81089SOL    HW145041   4.153  10.768  10.940
81089SOL    HW245042   4.127  10.901  10.873
81090SOL     OW45043  12.352   1.921   0.761
81090SOL    HW145044  12.343   1.891   0.671
81090SOL    HW245045  12.276   1.884   0.806
81091SOL     OW45046  10.058   7.668  10.181
81091SOL    HW145047  10.010   7.587  10.194
81091SOL    HW245048  10.015   7.710  10.107
81092SOL     OW45049   9.507   3.680   3.471
81092SOL    HW145050   9.517   3.703   3.563
81092SOL    HW245051   9.559   3.744   3.424
81093SOL     OW45052   5.515   2.211   1.558
81093SOL    HW145053   5.449   2.148   1.528
81093SOL    HW245054   5.588   2.157   1.588
81094SOL     OW45055   3.242   2.449   3.875
81094SOL    HW145056   3.153   2.417   3.859
81094SOL    HW245057   3.282   2.451   3.789
81095SOL     OW45058   7.697   6.348  10.572
81095SOL    HW145059   7.724   6.281  10.508
81095SOL    HW245060   7.761   6.340  10.642
81096SOL     OW45061  10.257  12.563   7.343
81096SOL    HW145062  10.162  12.559   7.347
81096SOL    HW245063  10.282  12.490   7.286
81097SOL     OW45064   9.118  14.411  11.752
81097SOL    HW145065   9.191  14.412  11.814
81097SOL    HW245066   9.106  14.503  11.729
81098SOL     OW45067   5.384   2.984   2.301
81098SOL    HW145068   5.394   3.076   2.276
81098SOL    HW245069   5.449   2.971   2.370
81099SOL     OW45070   4.807   8.854  14.675
81099SOL    HW145071   4.713   8.874  14.669
81099SOL    HW245072   4.811   8.759  14.670
81100SOL     OW45073   1.305  13.505   2.355
81100SOL    HW145074   1.380  13.498   2.414
81100SOL    HW245075   1.344  13.513   2.268
81101SOL     OW45076  14.133   8.854  10.540
81101SOL    HW145077  14.185   8.896  10.472
81101SOL    HW245078  14.194   8.795  10.584
81102SOL     OW45079   8.510  13.620   8.376
81102SOL    HW145080   8.432  13.641   8.325
81102SOL    HW245081   8.507  13.525   8.389
81103SOL     OW45082   6.958   1.102  13.891
81103SOL    HW145083   6.888   1.038  13.883
81103SOL    HW245084   6.998   1.106  13.804
81104SOL     OW45085   9.687   0.841   8.440
81104SOL    HW145086   9.627   0.828   8.513
81104SOL    HW245087   9.707   0.935   8.442
81105SOL     OW45088  13.233   3.862  11.709
81105SOL    HW145089  13.326   3.877  11.692
81105SOL    HW245090  13.194   3.855  11.622
81106SOL     OW45091   9.262   4.001  13.599
81106SOL    HW145092   9.168   3.995  13.584
81106SOL    HW245093   9.283   3.925  13.654
81107SOL     OW45094  10.143   6.931  12.617
81107SOL    HW145095  10.229   6.889  12.627
81107SOL    HW245096  10.134   6.945  12.523
81108SOL     OW45097   6.225  13.671   4.274
81108SOL    HW145098   6.208  13.727   4.199
81108SOL    HW245099   6.212  13.582   4.241
81109SOL     OW45100   3.853   2.010   1.314
81109SOL    HW145101   3.804   2.089   1.337
81109SOL    HW245102   3.942   2.026   1.344
81110SOL     OW45103  10.355   8.256   4.525
81110SOL    HW145104  10.421   8.256   4.456
81110SOL    HW245105  10.335   8.163   4.538
81111SOL     OW45106   5.205   2.764   1.235
81111SOL    HW145107   5.285   2.794   1.194
81111SOL    HW245108   5.139   2.769   1.166
81112SOL     OW45109  14.620   1.741   0.057
81112SOL    HW145110  14.707   1.779   0.068
81112SOL    HW245111  14.565   1.814   0.029
81113SOL     OW45112   3.481  12.770   6.240
81113SOL    HW145113   3.503  12.862   6.256
81113SOL    HW245114   3.551  12.739   6.183
81114SOL     OW45115   0.903   0.001  10.615
81114SOL    HW145116   0.864   0.028  10.532
81114SOL    HW245117   0.970  14.818  10.591
81115SOL     OW45118   5.386   2.670  13.511
81115SOL    HW145119   5.474   2.672  13.474
81115SOL    HW245120   5.358   2.579  13.502
81116SOL     OW45121  11.489  12.877   9.239
81116SOL    HW145122  11.564  12.909   9.288
81116SOL    HW245123  11.518  12.795   9.201
81117SOL     OW45124   2.975   5.833  11.361
81117SOL    HW145125   2.921   5.910  11.348
81117SOL    HW245126   3.061   5.867  11.387
81118SOL     OW45127  11.312   0.885  10.367
81118SOL    HW145128  11.291   0.967  10.411
81118SOL    HW245129  11.400   0.898  10.332
81119SOL     OW45130  12.858   6.158   6.988
81119SOL    HW145131  12.825   6.200   7.067
81119SOL    HW245132  12.780   6.140   6.935
81120SOL     OW45133   1.416   2.775   1.097
81120SOL    HW145134   1.346   2.769   1.033
81120SOL    HW245135   1.413   2.692   1.145
81121SOL     OW45136  10.021  12.450   7.866
81121SOL    HW145137   9.994  12.498   7.788
81121SOL    HW245138  10.020  12.358   7.840
81122SOL     OW45139  14.518  11.217  10.969
81122SOL    HW145140  14.536  11.124  10.982
81122SOL    HW245141  14.549  11.235  10.880
81123SOL     OW45142   8.148  11.641   6.723
81123SOL    HW145143   8.241  11.620   6.715
81123SOL    HW245144   8.126  11.682   6.639
81124SOL     OW45145   5.394   2.643   3.132
81124SOL    HW145146   5.408   2.724   3.082
81124SOL    HW245147   5.306   2.615   3.109
81125SOL     OW45148   6.998   1.951  12.121
81125SOL    HW145149   7.011   2.046  12.114
81125SOL    HW245150   7.041   1.915  12.044
81126SOL     OW45151  14.506  12.874   6.599
81126SOL    HW145152  14.429  12.927   6.579
81126SOL    HW245153  14.565  12.934   6.645
81127SOL     OW45154   2.292   7.034   8.845
81127SOL    HW145155   2.197   7.044   8.834
81127SOL    HW245156   2.329   7.074   8.766
81128SOL     OW45157  13.278   7.791   5.318
81128SOL    HW145158  13.299   7.780   5.225
81128SOL    HW245159  13.307   7.880   5.339
81129SOL     OW45160   0.651  10.331   1.046
81129SOL    HW145161   0.580  10.283   1.003
81129SOL    HW245162   0.721  10.266   1.056
81130SOL     OW45163   4.498   5.463   8.434
81130SOL    HW145164   4.420   5.477   8.487
81130SOL    HW245165   4.468   5.473   8.344
81131SOL     OW45166   8.747   0.949  10.770
81131SOL    HW145167   8.717   0.877  10.825
81131SOL    HW245168   8.678   1.015  10.777
81132SOL     OW45169   5.416   0.878  12.819
81132SOL    HW145170   5.354   0.873  12.747
81132SOL    HW245171   5.374   0.829  12.890
81133SOL     OW45172   2.281   9.113   3.245
81133SOL    HW145173   2.337   9.058   3.299
81133SOL    HW245174   2.320   9.200   3.250
81134SOL     OW45175   7.550  10.837   4.547
81134SOL    HW145176   7.529  10.914   4.494
81134SOL    HW245177   7.627  10.800   4.505
81135SOL     OW45178   0.181  13.208   1.304
81135SOL    HW145179   0.111  13.251   1.254
81135SOL    HW245180   0.135  13.147   1.362
81136SOL     OW45181   7.098   0.059   4.782
81136SOL    HW145182   7.106   0.038   4.875
81136SOL    HW245183   7.076   0.152   4.780
81137SOL     OW45184  10.373   6.298  14.635
81137SOL    HW145185  10.449   6.355  14.625
81137SOL    HW245186  10.331   6.328  14.716
81138SOL     OW45187   4.688  13.991   2.371
81138SOL    HW145188   4.597  13.976   2.346
81138SOL    HW245189   4.683  14.025   2.460
81139SOL     OW45190   2.570  14.730   8.192
81139SOL    HW145191   2.493  14.767   8.147
81139SOL    HW245192   2.533  14.678   8.262
81140SOL     OW45193  13.102   5.675  10.496
81140SOL    HW145194  13.054   5.592  10.490
81140SOL    HW245195  13.112   5.690  10.590
81141SOL     OW45196  12.463  12.147   1.099
81141SOL    HW145197  12.421  12.063   1.118
81141SOL    HW245198  12.440  12.202   1.174
81142SOL     OW45199   0.160   8.612  14.502
81142SOL    HW145200   0.196   8.615  14.591
81142SOL    HW245201   0.098   8.538  14.504
81143SOL     OW45202   5.626   9.934  13.643
81143SOL    HW145203   5.619   9.839  13.631
81143SOL    HW245204   5.572   9.953  13.719
81144SOL     OW45205   4.045   3.671  11.392
81144SOL    HW145206   3.978   3.669  11.460
81144SOL    HW245207   4.000   3.641  11.313
81145SOL     OW45208  14.272   2.269  12.238
81145SOL    HW145209  14.367   2.263  12.250
81145SOL    HW245210  14.259   2.249  12.145
81146SOL     OW45211  12.540   1.602  13.077
81146SOL    HW145212  12.541   1.508  13.061
81146SOL    HW245213  12.631   1.623  13.101
81147SOL     OW45214   4.948   8.429   7.309
81147SOL    HW145215   5.019   8.438   7.372
81147SOL    HW245216   4.991   8.403   7.228
81148SOL     OW45217   0.223   1.146   2.962
81148SOL    HW145218   0.283   1.161   2.890
81148SOL    HW245219   0.244   1.057   2.992
81149SOL     OW45220   2.788   6.154   6.615
81149SOL    HW145221   2.834   6.072   6.635
81149SOL    HW245222   2.747   6.138   6.530
81150SOL     OW45223   5.381   7.452   7.666
81150SOL    HW145224   5.326   7.414   7.597
81150SOL    HW245225   5.408   7.376   7.718
81151SOL     OW45226   8.204   4.268   1.280
81151SOL    HW145227   8.250   4.351   1.263
81151SOL    HW245228   8.111   4.292   1.279
81152SOL     OW45229   3.907   8.639   8.461
81152SOL    HW145230   3.913   8.681   8.376
81152SOL    HW245231   3.975   8.680   8.514
81153SOL     OW45232   6.632   9.601   7.295
81153SOL    HW145233   6.562   9.566   7.240
81153SOL    HW245234   6.592   9.677   7.338
81154SOL     OW45235  10.763   1.259   7.231
81154SOL    HW145236  10.699   1.208   7.181
81154SOL    HW245237  10.847   1.236   7.191
81155SOL     OW45238   3.942   3.890  13.704
81155SOL    HW145239   3.883   3.816  13.720
81155SOL    HW245240   3.998   3.860  13.632
81156SOL     OW45241   5.986   0.775   8.642
81156SOL    HW145242   5.973   0.695   8.692
81156SOL    HW245243   6.068   0.761   8.594
81157SOL     OW45244   2.064   8.699  14.411
81157SOL    HW145245   2.097   8.610  14.426
81157SOL    HW245246   2.062   8.708  14.316
81158SOL     OW45247  10.287  13.229  12.732
81158SOL    HW145248  10.214  13.251  12.675
81158SOL    HW245249  10.360  13.282  12.700
81159SOL     OW45250   6.373  10.313   7.534
81159SOL    HW145251   6.303  10.333   7.472
81159SOL    HW245252   6.328  10.296   7.617
81160SOL     OW45253   9.552   9.978   7.358
81160SOL    HW145254   9.647   9.982   7.368
81160SOL    HW245255   9.526  10.066   7.331
81161SOL     OW45256   0.976  13.418   0.822
81161SOL    HW145257   1.008  13.383   0.905
81161SOL    HW245258   0.926  13.496   0.846
81162SOL     OW45259   6.809   6.105   4.438
81162SOL    HW145260   6.888   6.055   4.415
81162SOL    HW245261   6.743   6.076   4.375
81163SOL     OW45262  13.991   9.542   7.270
81163SOL    HW145263  13.923   9.537   7.338
81163SOL    HW245264  14.004   9.451   7.242
81164SOL     OW45265   0.633   2.352   0.051
81164SOL    HW145266   0.689   2.393   0.117
81164SOL    HW245267   0.672   2.265   0.038
81165SOL     OW45268   9.264   5.140  13.131
81165SOL    HW145269   9.300   5.229  13.124
81165SOL    HW245270   9.268   5.105  13.043
81166SOL     OW45271   9.167  11.682   6.479
81166SOL    HW145272   9.073  11.698   6.485
81166SOL    HW245273   9.199  11.688   6.569
81167SOL     OW45274  12.882   8.125   1.680
81167SOL    HW145275  12.909   8.212   1.708
81167SOL    HW245276  12.941   8.104   1.608
81168SOL     OW45277   6.200   0.035  13.082
81168SOL    HW145278   6.290   0.065  13.067
81168SOL    HW245279   6.200  14.826  13.051
81169SOL     OW45280   0.472   0.124   5.757
81169SOL    HW145281   0.501   0.128   5.666
81169SOL    HW245282   0.505   0.041   5.790
81170SOL     OW45283  14.304  10.241   4.710
81170SOL    HW145284  14.248  10.185   4.657
81170SOL    HW245285  14.253  10.259   4.789
81171SOL     OW45286   0.717   5.491  13.879
81171SOL    HW145287   0.772   5.420  13.913
81171SOL    HW245288   0.696   5.544  13.956
81172SOL     OW45289  14.353   3.600   6.832
81172SOL    HW145290  14.291   3.617   6.761
81172SOL    HW245291  14.327   3.661   6.901
81173SOL     OW45292   1.679   2.010   7.037
81173SOL    HW145293   1.714   2.092   7.002
81173SOL    HW245294   1.750   1.976   7.091
81174SOL     OW45295  12.297   6.473   0.495
81174SOL    HW145296  12.329   6.558   0.525
81174SOL    HW245297  12.204   6.474   0.514
81175SOL     OW45298   9.469  11.025   8.486
81175SOL    HW145299   9.479  11.107   8.534
81175SOL    HW245300   9.544  11.022   8.427
81176SOL     OW45301   8.471   6.929   4.643
81176SOL    HW145302   8.457   7.007   4.590
81176SOL    HW245303   8.458   6.959   4.733
81177SOL     OW45304   1.745  13.465   2.430
81177SOL    HW145305   1.750  13.450   2.335
81177SOL    HW245306   1.808  13.404   2.467
81178SOL     OW45307  14.263   2.653   2.709
81178SOL    HW145308  14.234   2.700   2.631
81178SOL    HW245309  14.209   2.574   2.712
81179SOL     OW45310   7.574   6.898   1.287
81179SOL    HW145311   7.558   6.951   1.364
81179SOL    HW245312   7.626   6.954   1.229
81180SOL     OW45313   3.814  14.277   5.891
81180SOL    HW145314   3.737  14.261   5.837
81180SOL    HW245315   3.885  14.289   5.828
81181SOL     OW45316   7.740   0.203   0.918
81181SOL    HW145317   7.731   0.282   0.970
81181SOL    HW245318   7.658   0.155   0.931
81182SOL     OW45319   6.885   5.810   4.222
81182SOL    HW145320   6.870   5.899   4.189
81182SOL    HW245321   6.804   5.787   4.267
81183SOL     OW45322  10.976  14.333   5.867
81183SOL    HW145323  10.892  14.374   5.889
81183SOL    HW245324  10.951  14.255   5.818
81184SOL     OW45325   6.756   5.510   8.968
81184SOL    HW145326   6.695   5.551   9.029
81184SOL    HW245327   6.841   5.549   8.989
81185SOL     OW45328   6.642   6.541  11.617
81185SOL    HW145329   6.669   6.592  11.693
81185SOL    HW245330   6.677   6.590  11.542
81186SOL     OW45331  12.388   8.704  11.817
81186SOL    HW145332  12.293   8.714  11.826
81186SOL    HW245333  12.399   8.622  11.770
81187SOL     OW45334  11.501  11.782   7.711
81187SOL    HW145335  11.527  11.874   7.718
81187SOL    HW245336  11.584  11.735   7.698
81188SOL     OW45337   3.304  13.907   8.724
81188SOL    HW145338   3.301  13.974   8.792
81188SOL    HW245339   3.390  13.919   8.683
81189SOL     OW45340  12.017  14.750   6.472
81189SOL    HW145341  12.058  14.663   6.466
81189SOL    HW245342  12.074  14.799   6.531
81190SOL     OW45343  12.970   8.130   8.597
81190SOL    HW145344  13.048   8.134   8.653
81190SOL    HW245345  12.962   8.218   8.561
81191SOL     OW45346   2.438  10.195   9.335
81191SOL    HW145347   2.440  10.187   9.240
81191SOL    HW245348   2.356  10.153   9.362
81192SOL     OW45349   2.825   1.851   5.509
81192SOL    HW145350   2.809   1.811   5.595
81192SOL    HW245351   2.782   1.937   5.514
81193SOL     OW45352   2.872   5.513   4.722
81193SOL    HW145353   2.906   5.527   4.810
81193SOL    HW245354   2.778   5.525   4.730
81194SOL     OW45355   5.935  13.499  14.857
81194SOL    HW145356   5.982  13.502   0.060
81194SOL    HW245357   5.844  13.516  14.880
81195SOL     OW45358  10.034   4.817   0.452
81195SOL    HW145359  10.104   4.760   0.421
81195SOL    HW245360  10.069   4.906   0.442
81196SOL     OW45361   7.091   0.866   0.257
81196SOL    HW145362   7.096   0.908   0.343
81196SOL    HW245363   7.001   0.880   0.229
81197SOL     OW45364   8.410   1.779  14.316
81197SOL    HW145365   8.432   1.866  14.350
81197SOL    HW245366   8.407   1.723  14.393
81198SOL     OW45367   6.124  14.675  13.489
81198SOL    HW145368   6.132  14.587  13.452
81198SOL    HW245369   6.205  14.719  13.463
81199SOL     OW45370  10.807   8.270   9.505
81199SOL    HW145371  10.834   8.274   9.414
81199SOL    HW245372  10.880   8.228   9.550
81200SOL     OW45373  12.287   6.883  11.914
81200SOL    HW145374  12.266   6.796  11.946
81200SOL    HW245375  12.236   6.893  11.834
81201SOL     OW45376   6.801   4.026   9.662
81201SOL    HW145377   6.739   4.002   9.731
81201SOL    HW245378   6.856   4.094   9.702
81202SOL     OW45379  14.214  10.196   2.486
81202SOL    HW145380  14.208  10.137   2.410
81202SOL    HW245381  14.298  10.239   2.476
81203SOL     OW45382   2.392  14.127   2.760
81203SOL    HW145383   2.384  14.168   2.674
81203SOL    HW245384   2.428  14.040   2.741
81204SOL     OW45385   6.516  13.413   5.242
81204SOL    HW145386   6.568  13.441   5.167
81204SOL    HW245387   6.499  13.494   5.291
81205SOL     OW45388   0.720  11.978   0.914
81205SOL    HW145389   0.759  12.064   0.901
81205SOL    HW245390   0.767  11.920   0.855
81206SOL     OW45391  10.419  13.353   9.034
81206SOL    HW145392  10.331  13.363   8.999
81206SOL    HW245393  10.430  13.426   9.095
81207SOL     OW45394   3.360   3.541  10.660
81207SOL    HW145395   3.325   3.484  10.728
81207SOL    HW245396   3.450   3.558  10.686
81208SOL     OW45397   9.307  13.740   0.250
81208SOL    HW145398   9.349  13.689   0.181
81208SOL    HW245399   9.281  13.822   0.208
81209SOL     OW45400  12.960   7.034   1.566
81209SOL    HW145401  12.881   6.984   1.543
81209SOL    HW245402  12.999   7.057   1.482
81210SOL     OW45403   1.977   0.142  14.202
81210SOL    HW145404   2.052   0.083  14.196
81210SOL    HW245405   2.000   0.217  14.147
81211SOL     OW45406   9.324  12.087   0.629
81211SOL    HW145407   9.298  12.113   0.717
81211SOL    HW245408   9.295  12.158   0.573
81212SOL     OW45409   2.665   1.514   0.206
81212SOL    HW145410   2.626   1.430   0.181
81212SOL    HW245411   2.619   1.539   0.286
81213SOL     OW45412   7.288   6.686  12.569
81213SOL    HW145413   7.350   6.613  12.575
81213SOL    HW245414   7.273   6.712  12.660
81214SOL     OW45415   9.944  13.213  10.219
81214SOL    HW145416   9.992  13.135  10.247
81214SOL    HW245417   9.856  13.201  10.255
81215SOL     OW45418  12.880   4.752   0.031
81215SOL    HW145419  12.948   4.690   0.058
81215SOL    HW245420  12.927   4.834   0.018
81216SOL     OW45421   6.796  11.459  13.863
81216SOL    HW145422   6.758  11.430  13.780
81216SOL    HW245423   6.889  11.438  13.855
81217SOL     OW45424   2.035  12.778  14.881
81217SOL    HW145425   1.968  12.846  14.874
81217SOL    HW245426   2.007  12.725   0.075
81218SOL     OW45427  14.764   5.929   6.873
81218SOL    HW145428  14.731   5.972   6.952
81218SOL    HW245429  14.831   5.989   6.839
81219SOL     OW45430   4.670  12.622   0.294
81219SOL    HW145431   4.645  12.595   0.206
81219SOL    HW245432   4.752  12.576   0.312
81220SOL     OW45433   9.819   3.206   5.715
81220SOL    HW145434   9.816   3.137   5.648
81220SOL    HW245435   9.848   3.161   5.794
81221SOL     OW45436  10.484   5.518   4.066
81221SOL    HW145437  10.414   5.455   4.047
81221SOL    HW245438  10.497   5.565   3.984
81222SOL     OW45439  10.831  11.893   7.432
81222SOL    HW145440  10.811  11.919   7.522
81222SOL    HW245441  10.758  11.837   7.406
81223SOL     OW45442   9.825   4.850   2.167
81223SOL    HW145443   9.860   4.928   2.209
81223SOL    HW245444   9.895   4.785   2.174
81224SOL     OW45445   8.283   0.001  13.469
81224SOL    HW145446   8.219   0.067  13.443
81224SOL    HW245447   8.257  14.856  13.557
81225SOL     OW45448   0.853  13.393  12.262
81225SOL    HW145449   0.849  13.457  12.191
81225SOL    HW245450   0.917  13.328  12.233
81226SOL     OW45451  11.787   4.458   2.628
81226SOL    HW145452  11.762   4.384   2.683
81226SOL    HW245453  11.880   4.444   2.609
81227SOL     OW45454  13.641   5.425   2.346
81227SOL    HW145455  13.624   5.403   2.254
81227SOL    HW245456  13.596   5.508   2.360
81228SOL     OW45457   7.700  12.318   1.471
81228SOL    HW145458   7.739  12.291   1.387
81228SOL    HW245459   7.745  12.265   1.536
81229SOL     OW45460   8.605  13.557   6.653
81229SOL    HW145461   8.651  13.596   6.578
81229SOL    HW245462   8.539  13.622   6.678
81230SOL     OW45463   6.352   6.988   1.305
81230SOL    HW145464   6.362   6.908   1.356
81230SOL    HW245465   6.280   7.035   1.347
81231SOL     OW45466   0.927   3.771   0.108
81231SOL    HW145467   0.876   3.819   0.043
81231SOL    HW245468   0.868   3.702   0.139
81232SOL     OW45469   3.127   0.523   4.904
81232SOL    HW145470   3.121   0.439   4.949
81232SOL    HW245471   3.058   0.576   4.943
81233SOL     OW45472  10.000   1.444   3.233
81233SOL    HW145473   9.928   1.398   3.275
81233SOL    HW245474   9.980   1.440   3.139
81234SOL     OW45475   0.090  10.562   6.619
81234SOL    HW145476   0.015  10.532   6.568
81234SOL    HW245477   0.152  10.593   6.553
81235SOL     OW45478   2.582  11.044   1.447
81235SOL    HW145479   2.600  11.106   1.518
81235SOL    HW245480   2.634  10.967   1.469
81236SOL     OW45481   7.131   4.140   1.976
81236SOL    HW145482   7.210   4.088   1.993
81236SOL    HW245483   7.113   4.184   2.059
81237SOL     OW45484   6.636   1.568   1.514
81237SOL    HW145485   6.545   1.558   1.541
81237SOL    HW245486   6.679   1.610   1.589
81238SOL     OW45487   6.013   7.004   4.611
81238SOL    HW145488   6.071   7.009   4.687
81238SOL    HW245489   5.928   7.034   4.643
81239SOL     OW45490   2.411   2.816  11.366
81239SOL    HW145491   2.472   2.759  11.319
81239SOL    HW245492   2.430   2.800  11.458
81240SOL     OW45493   8.434   9.696   6.245
81240SOL    HW145494   8.367   9.754   6.281
81240SOL    HW245495   8.517   9.733   6.277
81241SOL     OW45496  10.235   9.326  14.808
81241SOL    HW145497  10.267   9.314   0.016
81241SOL    HW245498  10.195   9.413  14.808
81242SOL     OW45499  10.444   2.849   0.689
81242SOL    HW145500  10.445   2.937   0.653
81242SOL    HW245501  10.479   2.794   0.619
81243SOL     OW45502   4.195   5.592  14.699
81243SOL    HW145503   4.164   5.529  14.634
81243SOL    HW245504   4.289   5.576  14.706
81244SOL     OW45505   8.710   9.597   5.270
81244SOL    HW145506   8.701   9.503   5.278
81244SOL    HW245507   8.765   9.609   5.192
81245SOL     OW45508   9.871  13.739   3.660
81245SOL    HW145509   9.877  13.780   3.747
81245SOL    HW245510   9.846  13.648   3.678
81246SOL     OW45511   6.495   2.218   0.760
81246SOL    HW145512   6.514   2.169   0.680
81246SOL    HW245513   6.533   2.304   0.745
81247SOL     OW45514   5.541   4.393   3.161
81247SOL    HW145515   5.542   4.404   3.066
81247SOL    HW245516   5.470   4.450   3.191
81248SOL     OW45517  13.774   8.622  13.793
81248SOL    HW145518  13.800   8.705  13.753
81248SOL    HW245519  13.771   8.641  13.887
81249SOL     OW45520   3.437   8.954  10.764
81249SOL    HW145521   3.465   9.013  10.835
81249SOL    HW245522   3.428   9.011  10.688
81250SOL     OW45523   4.586  13.528   6.301
81250SOL    HW145524   4.612  13.621   6.305
81250SOL    HW245525   4.536  13.521   6.220
81251SOL     OW45526  13.401  13.216   8.494
81251SOL    HW145527  13.432  13.299   8.529
81251SOL    HW245528  13.446  13.207   8.410
81252SOL     OW45529   0.637   1.893   2.528
81252SOL    HW145530   0.667   1.810   2.564
81252SOL    HW245531   0.699   1.958   2.561
81253SOL     OW45532   9.069   1.052   7.745
81253SOL    HW145533   9.068   1.142   7.715
81253SOL    HW245534   9.031   1.002   7.673
81254SOL     OW45535   7.996   4.814   2.139
81254SOL    HW145536   7.937   4.754   2.092
81254SOL    HW245537   8.084   4.782   2.116
81255SOL     OW45538   5.177  13.052   7.611
81255SOL    HW145539   5.237  13.046   7.536
81255SOL    HW245540   5.097  13.089   7.575
81256SOL     OW45541   8.680   7.167   0.254
81256SOL    HW145542   8.604   7.175   0.312
81256SOL    HW245543   8.693   7.256   0.220
81257SOL     OW45544   1.504  10.609   9.465
81257SOL    HW145545   1.495  10.686   9.408
81257SOL    HW245546   1.432  10.617   9.528
81258SOL     OW45547  11.320   2.262   7.577
81258SOL    HW145548  11.257   2.331   7.599
81258SOL    HW245549  11.310   2.250   7.483
81259SOL     OW45550   5.878   8.398   0.710
81259SOL    HW145551   5.821   8.336   0.755
81259SOL    HW245552   5.868   8.480   0.759
81260SOL     OW45553   5.015   8.844   9.281
81260SOL    HW145554   4.953   8.771   9.285
81260SOL    HW245555   4.963   8.918   9.249
81261SOL     OW45556   5.617   3.825  10.175
81261SOL    HW145557   5.589   3.917  10.174
81261SOL    HW245558   5.713   3.830  10.178
81262SOL     OW45559  10.978  10.213   4.633
81262SOL    HW145560  11.050  10.160   4.668
81262SOL    HW245561  10.951  10.166   4.554
81263SOL     OW45562  13.710   2.819   8.310
81263SOL    HW145563  13.713   2.914   8.298
81263SOL    HW245564  13.797   2.789   8.281
81264SOL     OW45565   9.257  11.689   7.197
81264SOL    HW145566   9.301  11.629   7.137
81264SOL    HW245567   9.204  11.745   7.140
81265SOL     OW45568   5.294   6.234  13.751
81265SOL    HW145569   5.234   6.308  13.741
81265SOL    HW245570   5.286   6.184  13.670
81266SOL     OW45571   6.685   2.270   1.332
81266SOL    HW145572   6.597   2.299   1.311
81266SOL    HW245573   6.726   2.250   1.248
81267SOL     OW45574   0.501  12.945   0.702
81267SOL    HW145575   0.429  12.982   0.651
81267SOL    HW245576   0.461  12.874   0.753
81268SOL     OW45577   3.045   2.207  14.456
81268SOL    HW145578   2.974   2.257  14.416
81268SOL    HW245579   3.005   2.124  14.482
81269SOL     OW45580   8.689  12.444   3.048
81269SOL    HW145581   8.637  12.371   3.081
81269SOL    HW245582   8.748  12.404   2.984
81270SOL     OW45583   3.615  13.325   0.844
81270SOL    HW145584   3.684  13.375   0.888
81270SOL    HW245585   3.604  13.368   0.760
81271SOL     OW45586  12.430  13.916   6.209
81271SOL    HW145587  12.376  13.837   6.217
81271SOL    HW245588  12.520  13.886   6.220
81272SOL     OW45589  13.929   8.942   8.042
81272SOL    HW145590  13.924   9.034   8.066
81272SOL    HW245591  13.894   8.938   7.954
81273SOL     OW45592   8.291   5.086   8.836
81273SOL    HW145593   8.374   5.105   8.879
81273SOL    HW245594   8.225   5.119   8.895
81274SOL     OW45595   4.842  11.823   0.672
81274SOL    HW145596   4.837  11.728   0.682
81274SOL    HW245597   4.848  11.857   0.761
81275SOL     OW45598   9.539  14.851   6.293
81275SOL    HW145599   9.453  14.866   6.333
81275SOL    HW245600   9.573  14.773   6.337
81276SOL     OW45601   8.590   5.986   1.200
81276SOL    HW145602   8.583   6.027   1.286
81276SOL    HW245603   8.632   6.053   1.145
81277SOL     OW45604   9.373  11.551   8.751
81277SOL    HW145605   9.345  11.493   8.681
81277SOL    HW245606   9.311  11.623   8.749
81278SOL     OW45607   0.955   1.253   2.774
81278SOL    HW145608   0.894   1.179   2.774
81278SOL    HW245609   0.936   1.299   2.856
81279SOL     OW45610  10.500  13.429   1.017
81279SOL    HW145611  10.412  13.462   0.999
81279SOL    HW245612  10.558  13.487   0.968
81280SOL     OW45613  14.585   4.330  12.179
81280SOL    HW145614  14.506   4.292  12.217
81280SOL    HW245615  14.604   4.407  12.233
81281SOL     OW45616  10.520   2.413   5.732
81281SOL    HW145617  10.490   2.383   5.646
81281SOL    HW245618  10.549   2.503   5.716
81282SOL     OW45619   3.599  14.373  11.618
81282SOL    HW145620   3.589  14.278  11.614
81282SOL    HW245621   3.656  14.387  11.693
81283SOL     OW45622   9.212   5.370   2.522
81283SOL    HW145623   9.262   5.318   2.584
81283SOL    HW245624   9.243   5.460   2.536
81284SOL     OW45625   1.627   5.642   7.871
81284SOL    HW145626   1.656   5.683   7.953
81284SOL    HW245627   1.707   5.626   7.822
81285SOL     OW45628   0.104   0.086   2.154
81285SOL    HW145629   0.013   0.074   2.183
81285SOL    HW245630   0.124   0.177   2.176
81286SOL     OW45631   5.071  11.978  10.138
81286SOL    HW145632   5.112  12.057  10.102
81286SOL    HW245633   4.997  12.010  10.189
81287SOL     OW45634   6.555  11.972  11.282
81287SOL    HW145635   6.465  11.955  11.255
81287SOL    HW245636   6.556  11.957  11.376
81288SOL     OW45637   0.790   4.481  12.734
81288SOL    HW145638   0.851   4.546  12.699
81288SOL    HW245639   0.740   4.527  12.801
81289SOL     OW45640  11.746   2.237   3.291
81289SOL    HW145641  11.792   2.313   3.256
81289SOL    HW245642  11.663   2.235   3.243
81290SOL     OW45643  11.557   7.395  10.982
81290SOL    HW145644  11.500   7.420  10.910
81290SOL    HW245645  11.538   7.459  11.051
81291SOL     OW45646  10.409   7.473   8.109
81291SOL    HW145647  10.315   7.476   8.091
81291SOL    HW245648  10.443   7.407   8.049
81292SOL     OW45649   4.427   5.107   1.298
81292SOL    HW145650   4.338   5.126   1.326
81292SOL    HW245651   4.417   5.034   1.237
81293SOL     OW45652   8.197  10.225   6.243
81293SOL    HW145653   8.146  10.242   6.322
81293SOL    HW245654   8.163  10.286   6.178
81294SOL     OW45655   4.912   8.762   3.212
81294SOL    HW145656   4.882   8.841   3.257
81294SOL    HW245657   4.976   8.793   3.148
81295SOL     OW45658   4.003   2.382   6.166
81295SOL    HW145659   4.026   2.428   6.085
81295SOL    HW245660   4.068   2.313   6.175
81296SOL     OW45661  11.003   3.087   7.547
81296SOL    HW145662  11.046   3.041   7.474
81296SOL    HW245663  11.069   3.087   7.617
81297SOL     OW45664   7.878  11.354  14.210
81297SOL    HW145665   7.973  11.346  14.202
81297SOL    HW245666   7.865  11.397  14.294
81298SOL     OW45667  10.647  13.271   7.605
81298SOL    HW145668  10.669  13.196   7.660
81298SOL    HW245669  10.712  13.337   7.628
81299SOL     OW45670   8.476  10.774  13.290
81299SOL    HW145671   8.541  10.809  13.351
81299SOL    HW245672   8.516  10.694  13.256
81300SOL     OW45673  13.444   6.525   0.582
81300SOL    HW145674  13.385   6.596   0.557
81300SOL    HW245675  13.461   6.540   0.675
81301SOL     OW45676  12.718  11.085   4.621
81301SOL    HW145677  12.738  11.109   4.712
81301SOL    HW245678  12.703  10.990   4.624
81302SOL     OW45679  12.650   3.761  12.696
81302SOL    HW145680  12.737   3.744  12.732
81302SOL    HW245681  12.663   3.836  12.638
81303SOL     OW45682   7.292  14.724   0.733
81303SOL    HW145683   7.272  14.637   0.767
81303SOL    HW245684   7.254  14.724   0.645
81304SOL     OW45685   2.444   8.425  12.197
81304SOL    HW145686   2.398   8.451  12.276
81304SOL    HW245687   2.505   8.497  12.179
81305SOL     OW45688   5.813   0.851   6.813
81305SOL    HW145689   5.895   0.841   6.861
81305SOL    HW245690   5.819   0.937   6.772
81306SOL     OW45691  14.850  13.727  11.081
81306SOL    HW145692  14.785  13.708  11.013
81306SOL    HW245693   0.014  13.805  11.048
81307SOL     OW45694  13.159   2.602  10.228
81307SOL    HW145695  13.162   2.686  10.181
81307SOL    HW245696  13.230   2.551  10.190
81308SOL     OW45697  10.068   1.576  11.457
81308SOL    HW145698  10.120   1.505  11.421
81308SOL    HW245699  10.087   1.576  11.550
81309SOL     OW45700   8.237  14.026  14.242
81309SOL    HW145701   8.175  13.960  14.275
81309SOL    HW245702   8.295  13.977  14.184
81310SOL     OW45703   8.548   3.815   9.131
81310SOL    HW145704   8.577   3.849   9.215
81310SOL    HW245705   8.525   3.892   9.080
81311SOL     OW45706   5.913   0.926  13.759
81311SOL    HW145707   5.973   0.870  13.710
81311SOL    HW245708   5.832   0.925  13.708
81312SOL     OW45709  10.659   3.002   2.375
81312SOL    HW145710  10.670   2.918   2.419
81312SOL    HW245711  10.577   3.037   2.410
81313SOL     OW45712   0.542   1.952  13.726
81313SOL    HW145713   0.568   1.881  13.667
81313SOL    HW245714   0.616   1.962  13.786
81314SOL     OW45715   7.258  10.944  13.529
81314SOL    HW145716   7.330  10.935  13.592
81314SOL    HW245717   7.270  11.032  13.492
81315SOL     OW45718   9.444   7.630   8.378
81315SOL    HW145719   9.511   7.599   8.439
81315SOL    HW245720   9.427   7.555   8.320
81316SOL     OW45721   9.466   9.144  10.255
81316SOL    HW145722   9.390   9.187  10.215
81316SOL    HW245723   9.529   9.215  10.268
81317SOL     OW45724   7.481   6.952   7.693
81317SOL    HW145725   7.562   6.906   7.670
81317SOL    HW245726   7.502   7.000   7.773
81318SOL     OW45727   6.591   7.386  12.656
81318SOL    HW145728   6.571   7.321  12.723
81318SOL    HW245729   6.662   7.348  12.605
81319SOL     OW45730   1.835   4.186   5.637
81319SOL    HW145731   1.865   4.170   5.727
81319SOL    HW245732   1.838   4.100   5.595
81320SOL     OW45733  14.758   1.256   7.013
81320SOL    HW145734  14.732   1.172   7.051
81320SOL    HW245735  14.844   1.240   6.974
81321SOL     OW45736   1.467   7.182   4.838
81321SOL    HW145737   1.427   7.269   4.835
81321SOL    HW245738   1.409   7.130   4.894
81322SOL     OW45739   7.978   5.270   5.466
81322SOL    HW145740   7.970   5.194   5.408
81322SOL    HW245741   7.908   5.258   5.530
81323SOL     OW45742  10.746   9.108   8.306
81323SOL    HW145743  10.719   9.102   8.398
81323SOL    HW245744  10.674   9.068   8.257
81324SOL     OW45745   9.181  10.025   5.502
81324SOL    HW145746   9.220  10.093   5.447
81324SOL    HW245747   9.092  10.056   5.519
81325SOL     OW45748   9.124   1.703   1.360
81325SOL    HW145749   9.197   1.653   1.395
81325SOL    HW245750   9.164   1.760   1.293
81326SOL     OW45751   3.413  13.961   8.349
81326SOL    HW145752   3.435  13.876   8.388
81326SOL    HW245753   3.434  14.025   8.417
81327SOL     OW45754   8.615   3.112  14.802
81327SOL    HW145755   8.573   3.181  14.853
81327SOL    HW245756   8.551   3.091  14.734
81328SOL     OW45757  12.808   2.460   7.601
81328SOL    HW145758  12.825   2.395   7.670
81328SOL    HW245759  12.721   2.494   7.622
81329SOL     OW45760   8.508  12.109   1.920
81329SOL    HW145761   8.430  12.158   1.945
81329SOL    HW245762   8.475  12.023   1.894
81330SOL     OW45763  11.533   6.369  13.819
81330SOL    HW145764  11.538   6.285  13.774
81330SOL    HW245765  11.584   6.357  13.899
81331SOL     OW45766  13.728  13.640   6.041
81331SOL    HW145767  13.779  13.695   6.100
81331SOL    HW245768  13.737  13.681   5.955
81332SOL     OW45769  13.691  11.925  14.190
81332SOL    HW145770  13.706  11.866  14.116
81332SOL    HW245771  13.717  12.011  14.158
81333SOL     OW45772   2.006  13.556   8.052
81333SOL    HW145773   1.921  13.600   8.057
81333SOL    HW245774   2.061  13.603   8.114
81334SOL     OW45775   7.256   8.558   6.309
81334SOL    HW145776   7.222   8.584   6.394
81334SOL    HW245777   7.227   8.626   6.249
81335SOL     OW45778   6.904   2.931   5.333
81335SOL    HW145779   6.842   2.923   5.261
81335SOL    HW245780   6.891   3.020   5.366
81336SOL     OW45781   9.247  13.127   7.141
81336SOL    HW145782   9.155  13.140   7.163
81336SOL    HW245783   9.263  13.034   7.153
81337SOL     OW45784   2.544   0.238   8.869
81337SOL    HW145785   2.569   0.154   8.908
81337SOL    HW245786   2.628   0.280   8.847
81338SOL     OW45787  14.282   7.062   6.937
81338SOL    HW145788  14.278   7.157   6.925
81338SOL    HW245789  14.280   7.026   6.848
81339SOL     OW45790   3.849  12.549   9.327
81339SOL    HW145791   3.877  12.465   9.291
81339SOL    HW245792   3.929  12.603   9.327
81340SOL     OW45793   1.644   2.420   8.227
81340SOL    HW145794   1.595   2.502   8.221
81340SOL    HW245795   1.736   2.447   8.230
81341SOL     OW45796   6.267   8.268   1.180
81341SOL    HW145797   6.255   8.328   1.107
81341SOL    HW245798   6.314   8.320   1.246
81342SOL     OW45799  11.903   1.708   5.284
81342SOL    HW145800  11.895   1.779   5.348
81342SOL    HW245801  11.997   1.690   5.281
81343SOL     OW45802  12.766  11.348   3.503
81343SOL    HW145803  12.798  11.433   3.474
81343SOL    HW245804  12.674  11.347   3.478
81344SOL     OW45805   9.305   2.538  10.193
81344SOL    HW145806   9.229   2.502  10.146
81344SOL    HW245807   9.370   2.469  10.191
81345SOL     OW45808   4.204   1.092  11.785
81345SOL    HW145809   4.202   1.009  11.835
81345SOL    HW245810   4.120   1.094  11.739
81346SOL     OW45811  12.865  13.946   6.628
81346SOL    HW145812  12.865  13.916   6.537
81346SOL    HW245813  12.954  13.929   6.659
81347SOL     OW45814   0.503  10.085   0.063
81347SOL    HW145815   0.510  10.134  14.863
81347SOL    HW245816   0.590  10.090   0.102
81348SOL     OW45817  12.007   2.518   1.644
81348SOL    HW145818  12.022   2.613   1.643
81348SOL    HW245819  11.987   2.496   1.553
81349SOL     OW45820   9.343  11.016   9.087
81349SOL    HW145821   9.289  11.064   9.024
81349SOL    HW245822   9.430  11.013   9.047
81350SOL     OW45823  14.395   9.545   1.780
81350SOL    HW145824  14.370   9.630   1.817
81350SOL    HW245825  14.491   9.543   1.787
81351SOL     OW45826  14.866   8.093   7.164
81351SOL    HW145827  14.839   8.128   7.079
81351SOL    HW245828   0.044   8.160   7.199
81352SOL     OW45829   6.981  10.968  10.829
81352SOL    HW145830   6.889  10.969  10.855
81352SOL    HW245831   6.987  11.033  10.758
81353SOL     OW45832   6.646   7.561  10.548
81353SOL    HW145833   6.656   7.645  10.593
81353SOL    HW245834   6.659   7.496  10.616
81354SOL     OW45835   7.325   6.961   0.228
81354SOL    HW145836   7.384   7.032   0.251
81354SOL    HW245837   7.354   6.933   0.141
81355SOL     OW45838  10.705  13.761  14.474
81355SOL    HW145839  10.771  13.693  14.488
81355SOL    HW245840  10.750  13.829  14.424
81356SOL     OW45841   5.634   1.930   1.130
81356SOL    HW145842   5.579   1.960   1.202
81356SOL    HW245843   5.718   1.909   1.170
81357SOL     OW45844   4.362  10.348   3.450
81357SOL    HW145845   4.354  10.260   3.415
81357SOL    HW245846   4.355  10.406   3.374
81358SOL     OW45847   2.786  13.559   7.721
81358SOL    HW145848   2.836  13.637   7.698
81358SOL    HW245849   2.837  13.486   7.686
81359SOL     OW45850   7.810  12.572   5.294
81359SOL    HW145851   7.901  12.554   5.271
81359SOL    HW245852   7.762  12.495   5.265
81360SOL     OW45853   8.064   9.477   1.683
81360SOL    HW145854   8.005   9.408   1.654
81360SOL    HW245855   8.052   9.480   1.778
81361SOL     OW45856  14.174   2.023  10.048
81361SOL    HW145857  14.092   2.050  10.007
81361SOL    HW245858  14.177   1.928  10.035
81362SOL     OW45859  12.210   9.974  13.508
81362SOL    HW145860  12.186  10.013  13.424
81362SOL    HW245861  12.266  10.039  13.550
81363SOL     OW45862  11.301   7.313   5.416
81363SOL    HW145863  11.345   7.393   5.443
81363SOL    HW245864  11.208   7.337   5.409
81364SOL     OW45865   0.422  13.970   7.017
81364SOL    HW145866   0.361  13.963   6.944
81364SOL    HW245867   0.386  14.040   7.072
81365SOL     OW45868  10.883   0.790   9.028
81365SOL    HW145869  10.895   0.696   9.014
81365SOL    HW245870  10.820   0.816   8.960
81366SOL     OW45871   6.917   0.117   3.172
81366SOL    HW145872   6.992   0.177   3.168
81366SOL    HW245873   6.855   0.161   3.230
81367SOL     OW45874  14.463   6.725   3.963
81367SOL    HW145875  14.466   6.725   3.868
81367SOL    HW245876  14.555   6.713   3.989
81368SOL     OW45877   8.561   0.643   3.459
81368SOL    HW145878   8.634   0.593   3.495
81368SOL    HW245879   8.602   0.704   3.398
81369SOL     OW45880   1.767  10.726   0.650
81369SOL    HW145881   1.824  10.706   0.725
81369SOL    HW245882   1.826  10.724   0.574
81370SOL     OW45883   0.936   4.943  14.254
81370SOL    HW145884   0.965   4.887  14.182
81370SOL    HW245885   0.937   5.032  14.218
81371SOL     OW45886  14.359  10.666  13.554
81371SOL    HW145887  14.435  10.630  13.599
81371SOL    HW245888  14.295  10.680  13.624
81372SOL     OW45889   9.788   4.309  14.277
81372SOL    HW145890   9.781   4.357  14.194
81372SOL    HW245891   9.809   4.219  14.250
81373SOL     OW45892   1.027   4.795   7.770
81373SOL    HW145893   1.005   4.888   7.766
81373SOL    HW245894   1.057   4.773   7.681
81374SOL     OW45895  13.114   3.046   3.793
81374SOL    HW145896  13.029   3.033   3.751
81374SOL    HW245897  13.123   2.972   3.853
81375SOL     OW45898  11.203   2.533  10.464
81375SOL    HW145899  11.191   2.582  10.545
81375SOL    HW245900  11.296   2.511  10.462
81376SOL     OW45901   2.570   7.991   7.541
81376SOL    HW145902   2.589   7.897   7.532
81376SOL    HW245903   2.590   8.028   7.455
81377SOL     OW45904  13.609   7.427  11.353
81377SOL    HW145905  13.701   7.407  11.371
81377SOL    HW245906  13.593   7.510  11.397
81378SOL     OW45907   5.902   0.480  12.160
81378SOL    HW145908   5.990   0.451  12.137
81378SOL    HW245909   5.903   0.487  12.256
81379SOL     OW45910   2.644   5.052   6.272
81379SOL    HW145911   2.722   5.083   6.318
81379SOL    HW245912   2.649   4.957   6.278
81380SOL     OW45913   6.263   1.223   3.727
81380SOL    HW145914   6.280   1.221   3.632
81380SOL    HW245915   6.168   1.216   3.735
81381SOL     OW45916   7.148  12.483  14.738
81381SOL    HW145917   7.180  12.408  14.788
81381SOL    HW245918   7.212  12.494  14.667
81382SOL     OW45919   6.201   8.789  13.060
81382SOL    HW145920   6.133   8.803  13.126
81382SOL    HW245921   6.177   8.707  13.017
81383SOL     OW45922  12.603   5.457   5.047
81383SOL    HW145923  12.616   5.550   5.028
81383SOL    HW245924  12.562   5.455   5.133
81384SOL     OW45925   2.384  13.576   6.881
81384SOL    HW145926   2.305  13.616   6.846
81384SOL    HW245927   2.426  13.645   6.933
81385SOL     OW45928  14.569   8.480  12.570
81385SOL    HW145929  14.609   8.548  12.625
81385SOL    HW245930  14.581   8.512  12.480
81386SOL     OW45931   9.765  14.491   2.002
81386SOL    HW145932   9.830  14.489   2.072
81386SOL    HW245933   9.814  14.520   1.925
81387SOL     OW45934  13.885   7.142   7.619
81387SOL    HW145935  13.926   7.197   7.552
81387SOL    HW245936  13.792   7.161   7.612
81388SOL     OW45937   5.931   1.947   0.295
81388SOL    HW145938   5.977   2.014   0.346
81388SOL    HW245939   6.000   1.889   0.264
81389SOL     OW45940   6.819   9.527  12.908
81389SOL    HW145941   6.754   9.586  12.948
81389SOL    HW245942   6.773   9.487  12.835
81390SOL     OW45943   8.594   5.813  12.551
81390SOL    HW145944   8.599   5.899  12.509
81390SOL    HW245945   8.652   5.758  12.498
81391SOL     OW45946   2.117   1.045   3.784
81391SOL    HW145947   2.144   1.016   3.872
81391SOL    HW245948   2.043   1.102   3.800
81392SOL     OW45949   8.102   1.478   6.024
81392SOL    HW145950   8.079   1.559   6.071
81392SOL    HW245951   8.108   1.505   5.933
81393SOL     OW45952  12.615   9.780   3.555
81393SOL    HW145953  12.524   9.751   3.559
81393SOL    HW245954  12.610   9.875   3.567
81394SOL     OW45955   9.771   2.358   3.987
81394SOL    HW145956   9.770   2.279   4.040
81394SOL    HW245957   9.680   2.373   3.963
81395SOL     OW45958   7.893   1.315   1.363
81395SOL    HW145959   7.853   1.234   1.393
81395SOL    HW245960   7.920   1.360   1.443
81396SOL     OW45961   0.851   4.817   5.429
81396SOL    HW145962   0.784   4.765   5.475
81396SOL    HW245963   0.933   4.793   5.471
81397SOL     OW45964   4.387   3.730  13.144
81397SOL    HW145965   4.360   3.815  13.180
81397SOL    HW245966   4.375   3.739  13.050
81398SOL     OW45967   4.760   7.365  10.430
81398SOL    HW145968   4.688   7.342  10.371
81398SOL    HW245969   4.780   7.283  10.476
81399SOL     OW45970   9.576  13.077   9.255
81399SOL    HW145971   9.659  13.035   9.232
81399SOL    HW245972   9.577  13.160   9.208
81400SOL     OW45973   0.876   6.189   7.572
81400SOL    HW145974   0.886   6.283   7.557
81400SOL    HW245975   0.897   6.149   7.488
81401SOL     OW45976  12.724   0.374   1.152
81401SOL    HW145977  12.647   0.381   1.209
81401SOL    HW245978  12.796   0.356   1.213
81402SOL     OW45979   2.623   3.974   8.822
81402SOL    HW145980   2.683   4.006   8.754
81402SOL    HW245981   2.540   4.018   8.803
81403SOL     OW45982  13.036   0.746  12.373
81403SOL    HW145983  12.989   0.792  12.303
81403SOL    HW245984  12.977   0.751  12.448
81404SOL     OW45985   0.556   5.937   7.240
81404SOL    HW145986   0.496   5.987   7.185
81404SOL    HW245987   0.500   5.881   7.292
81405SOL     OW45988   7.310   3.685   2.252
81405SOL    HW145989   7.373   3.626   2.292
81405SOL    HW245990   7.348   3.772   2.264
81406SOL     OW45991  11.342   7.122   2.521
81406SOL    HW145992  11.265   7.079   2.485
81406SOL    HW245993  11.348   7.206   2.475
81407SOL     OW45994   9.059   5.056   9.234
81407SOL    HW145995   9.030   5.014   9.153
81407SOL    HW245996   9.084   5.145   9.207
81408SOL     OW45997   6.811   9.537  11.055
81408SOL    HW145998   6.773   9.528  10.968
81408SOL    HW245999   6.854   9.453  11.071
81409SOL     OW46000   6.863  13.622  11.813
81409SOL    HW146001   6.782  13.661  11.780
81409SOL    HW246002   6.885  13.674  11.890
81410SOL     OW46003   7.013   2.306   6.556
81410SOL    HW146004   6.946   2.316   6.488
81410SOL    HW246005   7.079   2.373   6.534
81411SOL     OW46006   8.894  14.250  13.611
81411SOL    HW146007   8.848  14.282  13.688
81411SOL    HW246008   8.917  14.329  13.562
81412SOL     OW46009   0.153   7.390   9.834
81412SOL    HW146010   0.071   7.396   9.884
81412SOL    HW246011   0.139   7.317   9.774
81413SOL     OW46012   7.420  10.173   2.713
81413SOL    HW146013   7.434  10.208   2.625
81413SOL    HW246014   7.332  10.135   2.710
81414SOL     OW46015   3.824   6.710  10.208
81414SOL    HW146016   3.849   6.800  10.229
81414SOL    HW246017   3.744   6.694  10.259
81415SOL     OW46018   9.938   9.536   0.204
81415SOL    HW146019  10.013   9.477   0.214
81415SOL    HW246020   9.959   9.589   0.127
81416SOL     OW46021  11.561   4.418  12.196
81416SOL    HW146022  11.623   4.414  12.268
81416SOL    HW246023  11.573   4.335  12.150
81417SOL     OW46024   4.317  11.321   3.439
81417SOL    HW146025   4.352  11.298   3.353
81417SOL    HW246026   4.273  11.242   3.469
81418SOL     OW46027   8.449   6.451  11.285
81418SOL    HW146028   8.361   6.414  11.281
81418SOL    HW246029   8.439   6.533  11.333
81419SOL     OW46030   0.462   3.553   6.121
81419SOL    HW146031   0.446   3.541   6.027
81419SOL    HW246032   0.517   3.479   6.146
81420SOL     OW46033   3.632   6.966   4.730
81420SOL    HW146034   3.596   7.017   4.657
81420SOL    HW246035   3.556   6.948   4.786
81421SOL     OW46036   2.051   4.823   0.043
81421SOL    HW146037   2.125   4.857  14.874
81421SOL    HW246038   2.025   4.744  14.878
81422SOL     OW46039   4.279   5.484   3.945
81422SOL    HW146040   4.305   5.395   3.971
81422SOL    HW246041   4.355   5.518   3.897
81423SOL     OW46042   8.144   6.963  12.059
81423SOL    HW146043   8.067   6.907  12.057
81423SOL    HW246044   8.196   6.936  11.984
81424SOL     OW46045  12.576   6.484   3.707
81424SOL    HW146046  12.575   6.531   3.624
81424SOL    HW246047  12.655   6.431   3.705
81425SOL     OW46048   4.940   4.573  13.381
81425SOL    HW146049   4.873   4.505  13.390
81425SOL    HW246050   4.919   4.637  13.449
81426SOL     OW46051   9.732   6.793   4.323
81426SOL    HW146052   9.652   6.828   4.363
81426SOL    HW246053   9.706   6.708   4.287
81427SOL     OW46054  10.916   0.687  14.056
81427SOL    HW146055  10.907   0.761  13.995
81427SOL    HW246056  10.933   0.612  13.999
81428SOL     OW46057  12.678   2.022   1.264
81428SOL    HW146058  12.746   2.078   1.228
81428SOL    HW246059  12.637   1.980   1.188
81429SOL     OW46060   4.149  13.275   7.381
81429SOL    HW146061   4.108  13.349   7.337
81429SOL    HW246062   4.224  13.314   7.426
81430SOL     OW46063   4.085  10.239  10.385
81430SOL    HW146064   4.150  10.245  10.315
81430SOL    HW246065   4.041  10.324  10.384
81431SOL     OW46066  13.433   7.061   2.564
81431SOL    HW146067  13.425   7.153   2.591
81431SOL    HW246068  13.349   7.022   2.586
81432SOL     OW46069  10.040  11.851  14.316
81432SOL    HW146070   9.991  11.813  14.244
81432SOL    HW246071  10.101  11.911  14.274
81433SOL     OW46072   4.821  12.773   0.470
81433SOL    HW146073   4.753  12.736   0.414
81433SOL    HW246074   4.903  12.752   0.426
81434SOL     OW46075   2.759  10.059  12.471
81434SOL    HW146076   2.700  10.001  12.520
81434SOL    HW246077   2.738  10.147  12.504
81435SOL     OW46078  13.699  10.127  11.124
81435SOL    HW146079  13.732  10.166  11.044
81435SOL    HW246080  13.710  10.194  11.191
81436SOL     OW46081  12.078   3.004  11.140
81436SOL    HW146082  12.084   3.096  11.167
81436SOL    HW246083  12.004   2.970  11.189
81437SOL     OW46084   2.480  14.149   8.748
81437SOL    HW146085   2.458  14.094   8.673
81437SOL    HW246086   2.446  14.100   8.824
81438SOL     OW46087  11.613   1.548   1.709
81438SOL    HW146088  11.533   1.501   1.686
81438SOL    HW246089  11.586   1.609   1.778
81439SOL     OW46090   1.276   6.708  10.152
81439SOL    HW146091   1.340   6.779  10.161
81439SOL    HW246092   1.246   6.714  10.062
81440SOL     OW46093   9.057  13.779  14.425
81440SOL    HW146094   9.104  13.861  14.413
81440SOL    HW246095   8.967  13.806  14.441
81441SOL     OW46096   6.119   1.575   6.435
81441SOL    HW146097   6.163   1.550   6.516
81441SOL    HW246098   6.115   1.670   6.437
81442SOL     OW46099  11.467   9.080   6.010
81442SOL    HW146100  11.558   9.050   6.009
81442SOL    HW246101  11.416   9.004   5.982
81443SOL     OW46102   7.545   3.285   9.209
81443SOL    HW146103   7.601   3.287   9.287
81443SOL    HW246104   7.604   3.260   9.138
81444SOL     OW46105   4.277   9.710   4.981
81444SOL    HW146106   4.193   9.744   4.950
81444SOL    HW246107   4.276   9.724   5.075
81445SOL     OW46108  14.818   9.537   1.727
81445SOL    HW146109  14.766   9.486   1.666
81445SOL    HW246110  14.866   9.599   1.672
81446SOL     OW46111  10.520   8.207  11.849
81446SOL    HW146112  10.506   8.144  11.778
81446SOL    HW246113  10.611   8.235  11.838
81447SOL     OW46114   2.692   0.394  14.158
81447SOL    HW146115   2.671   0.324  14.219
81447SOL    HW246116   2.639   0.375  14.080
81448SOL     OW46117   1.066   1.134  13.175
81448SOL    HW146118   1.059   1.053  13.125
81448SOL    HW246119   1.096   1.199  13.112
81449SOL     OW46120   0.221  13.800   3.547
81449SOL    HW146121   0.301  13.809   3.598
81449SOL    HW246122   0.159  13.859   3.589
81450SOL     OW46123   7.044   9.157  10.664
81450SOL    HW146124   7.045   9.071  10.622
81450SOL    HW246125   7.135   9.173  10.690
81451SOL     OW46126  11.785  10.473   4.605
81451SOL    HW146127  11.840  10.453   4.681
81451SOL    HW246128  11.697  10.480   4.641
81452SOL     OW46129   3.542   2.269   7.325
81452SOL    HW146130   3.487   2.302   7.254
81452SOL    HW246131   3.617   2.329   7.326
81453SOL     OW46132   8.682   4.512  14.373
81453SOL    HW146133   8.684   4.560  14.290
81453SOL    HW246134   8.749   4.444  14.363
81454SOL     OW46135   5.340   0.249   4.294
81454SOL    HW146136   5.332   0.344   4.291
81454SOL    HW246137   5.408   0.233   4.360
81455SOL     OW46138   0.231   4.211   8.901
81455SOL    HW146139   0.292   4.156   8.852
81455SOL    HW246140   0.286   4.279   8.940
81456SOL     OW46141   5.276   6.678  12.279
81456SOL    HW146142   5.317   6.719  12.355
81456SOL    HW246143   5.348   6.632  12.235
81457SOL     OW46144  11.397  11.125   1.943
81457SOL    HW146145  11.412  11.177   2.022
81457SOL    HW246146  11.302  11.119   1.936
81458SOL     OW46147   8.984  14.656   0.760
81458SOL    HW146148   8.896  14.627   0.734
81458SOL    HW246149   9.043  14.599   0.711
81459SOL     OW46150  12.928  11.101  14.777
81459SOL    HW146151  12.847  11.148  14.800
81459SOL    HW246152  12.902  11.042  14.706
81460SOL     OW46153   2.124  12.994   6.017
81460SOL    HW146154   2.207  13.041   6.010
81460SOL    HW246155   2.059  13.062   6.034
81461SOL     OW46156   8.855   3.137  11.858
81461SOL    HW146157   8.910   3.098  11.791
81461SOL    HW246158   8.903   3.124  11.940
81462SOL     OW46159   3.455  13.987  14.394
81462SOL    HW146160   3.412  14.017  14.474
81462SOL    HW246161   3.441  14.058  14.332
81463SOL     OW46162   1.195   0.414  11.452
81463SOL    HW146163   1.139   0.383  11.381
81463SOL    HW246164   1.147   0.489  11.488
81464SOL     OW46165   2.411  13.242  12.365
81464SOL    HW146166   2.435  13.166  12.418
81464SOL    HW246167   2.457  13.228  12.282
81465SOL     OW46168   9.187   7.667   1.030
81465SOL    HW146169   9.120   7.660   1.098
81465SOL    HW246170   9.233   7.748   1.051
81466SOL     OW46171   8.614   2.578  13.550
81466SOL    HW146172   8.531   2.588  13.503
81466SOL    HW246173   8.677   2.627  13.497
81467SOL     OW46174   3.859   8.262   0.507
81467SOL    HW146175   3.783   8.248   0.450
81467SOL    HW246176   3.822   8.301   0.586
81468SOL     OW46177   7.674   0.788   1.703
81468SOL    HW146178   7.613   0.826   1.766
81468SOL    HW246179   7.699   0.704   1.741
81469SOL     OW46180   3.629   4.939  10.245
81469SOL    HW146181   3.570   4.881  10.197
81469SOL    HW246182   3.713   4.933  10.199
81470SOL     OW46183   1.004  13.777   2.363
81470SOL    HW146184   0.956  13.860   2.359
81470SOL    HW246185   1.073  13.786   2.298
81471SOL     OW46186   4.561   1.873   6.211
81471SOL    HW146187   4.567   1.816   6.134
81471SOL    HW246188   4.558   1.813   6.285
81472SOL     OW46189  14.218  14.229   8.393
81472SOL    HW146190  14.224  14.236   8.298
81472SOL    HW246191  14.202  14.318   8.423
81473SOL     OW46192   5.549  12.697   3.837
81473SOL    HW146193   5.512  12.619   3.877
81473SOL    HW246194   5.553  12.762   3.907
81474SOL     OW46195   8.580   6.757   3.973
81474SOL    HW146196   8.556   6.846   3.948
81474SOL    HW246197   8.502   6.705   3.953
81475SOL     OW46198   5.824   9.933   0.806
81475SOL    HW146199   5.902   9.983   0.830
81475SOL    HW246200   5.854   9.843   0.796
81476SOL     OW46201  12.555   1.912   9.633
81476SOL    HW146202  12.581   1.950   9.548
81476SOL    HW246203  12.496   1.977   9.671
81477SOL     OW46204   7.902  13.443  11.680
81477SOL    HW146205   7.854  13.526  11.681
81477SOL    HW246206   7.845  13.382  11.634
81478SOL     OW46207   8.137   5.125  11.630
81478SOL    HW146208   8.137   5.102  11.537
81478SOL    HW246209   8.050   5.097  11.661
81479SOL     OW46210  10.477   1.160  14.393
81479SOL    HW146211  10.496   1.250  14.367
81479SOL    HW246212  10.429   1.124  14.319
81480SOL     OW46213   0.566  10.371   9.886
81480SOL    HW146214   0.553  10.445   9.945
81480SOL    HW246215   0.477  10.346   9.860
81481SOL     OW46216  12.636  12.818  10.300
81481SOL    HW146217  12.656  12.893  10.244
81481SOL    HW246218  12.721  12.778  10.318
81482SOL     OW46219   8.737  10.875  13.921
81482SOL    HW146220   8.671  10.909  13.981
81482SOL    HW246221   8.743  10.782  13.942
81483SOL     OW46222   8.279   7.676  10.502
81483SOL    HW146223   8.212   7.637  10.447
81483SOL    HW246224   8.284   7.620  10.580
81484SOL     OW46225   1.772   6.664   4.867
81484SOL    HW146226   1.789   6.755   4.846
81484SOL    HW246227   1.701   6.668   4.932
81485SOL     OW46228   8.516   2.313   0.326
81485SOL    HW146229   8.431   2.296   0.284
81485SOL    HW246230   8.494   2.361   0.406
81486SOL     OW46231  10.401   0.517  14.828
81486SOL    HW146232  10.329   0.461  14.799
81486SOL    HW246233  10.390   0.597  14.778
81487SOL     OW46234   8.336   8.505   0.363
81487SOL    HW146235   8.326   8.541   0.275
81487SOL    HW246236   8.257   8.452   0.377
81488SOL     OW46237  14.491   4.853   4.286
81488SOL    HW146238  14.442   4.860   4.369
81488SOL    HW246239  14.450   4.781   4.240
81489SOL     OW46240   3.295  13.431   8.232
81489SOL    HW146241   3.326  13.416   8.321
81489SOL    HW246242   3.338  13.512   8.205
81490SOL     OW46243   1.655   2.830  12.571
81490SOL    HW146244   1.690   2.815  12.658
81490SOL    HW246245   1.733   2.848  12.517
81491SOL     OW46246  11.928  12.867   5.732
81491SOL    HW146247  11.887  12.877   5.647
81491SOL    HW246248  11.860  12.891   5.795
81492SOL     OW46249  13.079   7.741  12.956
81492SOL    HW146250  13.099   7.658  12.999
81492SOL    HW246251  12.997   7.726  12.910
81493SOL     OW46252   9.548   4.145   4.577
81493SOL    HW146253   9.548   4.171   4.485
81493SOL    HW246254   9.609   4.205   4.619
81494SOL     OW46255  10.093   2.488   4.425
81494SOL    HW146256  10.085   2.550   4.497
81494SOL    HW246257  10.047   2.530   4.352
81495SOL     OW46258  10.965   8.695   1.381
81495SOL    HW146259  10.953   8.635   1.308
81495SOL    HW246260  10.932   8.648   1.457
81496SOL     OW46261  13.032  10.520   7.002
81496SOL    HW146262  13.065  10.601   7.041
81496SOL    HW246263  13.075  10.514   6.917
81497SOL     OW46264   8.817   0.339   7.179
81497SOL    HW146265   8.782   0.416   7.224
81497SOL    HW246266   8.770   0.337   7.095
81498SOL     OW46267  12.455   8.476   6.315
81498SOL    HW146268  12.408   8.445   6.393
81498SOL    HW246269  12.523   8.410   6.300
81499SOL     OW46270   1.295  10.967   6.012
81499SOL    HW146271   1.275  10.884   6.055
81499SOL    HW246272   1.210  11.005   5.991
81500SOL     OW46273   9.246  11.806  13.153
81500SOL    HW146274   9.339  11.807  13.130
81500SOL    HW246275   9.231  11.718  13.186
81501SOL     OW46276   4.718   9.648   5.590
81501SOL    HW146277   4.800   9.665   5.637
81501SOL    HW246278   4.733   9.564   5.547
81502SOL     OW46279   8.778  10.686   4.580
81502SOL    HW146280   8.845  10.623   4.552
81502SOL    HW246281   8.695  10.639   4.567
81503SOL     OW46282   4.933  13.704   8.463
81503SOL    HW146283   4.963  13.684   8.374
81503SOL    HW246284   5.001  13.668   8.520
81504SOL     OW46285  13.541  11.326   1.416
81504SOL    HW146286  13.462  11.339   1.365
81504SOL    HW246287  13.550  11.231   1.422
81505SOL     OW46288  13.195   1.308  14.808
81505SOL    HW146289  13.178   1.370  14.879
81505SOL    HW246290  13.222   1.228  14.853
81506SOL     OW46291   5.355  12.230  14.538
81506SOL    HW146292   5.422  12.253  14.602
81506SOL    HW246293   5.298  12.168  14.584
81507SOL     OW46294   7.406  10.475   8.743
81507SOL    HW146295   7.434  10.478   8.652
81507SOL    HW246296   7.324  10.426   8.742
81508SOL     OW46297  12.097   1.830   4.265
81508SOL    HW146298  12.065   1.767   4.329
81508SOL    HW246299  12.020   1.855   4.215
81509SOL     OW46300   5.490  13.733   6.068
81509SOL    HW146301   5.518  13.654   6.113
81509SOL    HW246302   5.495  13.802   6.135
81510SOL     OW46303   5.013   2.312   1.301
81510SOL    HW146304   4.949   2.377   1.329
81510SOL    HW246305   5.096   2.359   1.299
81511SOL     OW46306  14.255   4.718   8.648
81511SOL    HW146307  14.347   4.692   8.650
81511SOL    HW246308  14.207   4.635   8.646
81512SOL     OW46309  10.528  12.717   0.128
81512SOL    HW146310  10.459  12.662   0.090
81512SOL    HW246311  10.561  12.665   0.202
81513SOL     OW46312  11.510   4.231   7.315
81513SOL    HW146313  11.553   4.315   7.328
81513SOL    HW246314  11.505   4.221   7.219
81514SOL     OW46315   4.927   3.499  14.098
81514SOL    HW146316   4.888   3.482  14.012
81514SOL    HW246317   4.858   3.477  14.160
81515SOL     OW46318  13.735   1.062  12.677
81515SOL    HW146319  13.720   0.975  12.641
81515SOL    HW246320  13.805   1.050  12.741
81516SOL     OW46321   2.205  11.677   6.947
81516SOL    HW146322   2.178  11.691   7.038
81516SOL    HW246323   2.161  11.597   6.921
81517SOL     OW46324  11.083  14.851   5.630
81517SOL    HW146325  11.080  14.763   5.592
81517SOL    HW246326  11.074   0.029   5.556
81518SOL     OW46327   4.221   5.993  14.072
81518SOL    HW146328   4.227   6.070  14.015
81518SOL    HW246329   4.180   6.025  14.152
81519SOL     OW46330   0.239   9.447   3.779
81519SOL    HW146331   0.286   9.531   3.775
81519SOL    HW246332   0.306   9.381   3.759
81520SOL     OW46333  10.257  13.332   4.193
81520SOL    HW146334  10.279  13.383   4.116
81520SOL    HW246335  10.253  13.241   4.161
81521SOL     OW46336   9.012  12.780   5.739
81521SOL    HW146337   8.948  12.841   5.774
81521SOL    HW246338   8.964  12.729   5.674
81522SOL     OW46339   6.936   1.280  12.010
81522SOL    HW146340   6.883   1.353  11.977
81522SOL    HW246341   6.962   1.307  12.098
81523SOL     OW46342   2.966   2.868   6.976
81523SOL    HW146343   2.876   2.856   7.007
81523SOL    HW246344   3.018   2.871   7.056
81524SOL     OW46345   0.022   5.310   3.838
81524SOL    HW146346  14.812   5.337   3.844
81524SOL    HW246347   0.021   5.216   3.856
81525SOL     OW46348   8.791   7.107  13.556
81525SOL    HW146349   8.743   7.185  13.527
81525SOL    HW246350   8.724   7.040  13.567
81526SOL     OW46351   0.682   6.755   8.080
81526SOL    HW146352   0.776   6.767   8.089
81526SOL    HW246353   0.672   6.700   8.002
81527SOL     OW46354   4.321  14.793   9.314
81527SOL    HW146355   4.348  14.877   9.351
81527SOL    HW246356   4.230  14.783   9.340
81528SOL     OW46357   8.172  14.524   1.237
81528SOL    HW146358   8.148  14.436   1.207
81528SOL    HW246359   8.208  14.511   1.325
81529SOL     OW46360  11.806   7.783  11.903
81529SOL    HW146361  11.861   7.709  11.876
81529SOL    HW246362  11.855   7.824  11.975
81530SOL     OW46363   5.294   4.643   0.812
81530SOL    HW146364   5.234   4.690   0.869
81530SOL    HW246365   5.376   4.690   0.819
81531SOL     OW46366   7.841  12.269   3.346
81531SOL    HW146367   7.862  12.290   3.255
81531SOL    HW246368   7.782  12.193   3.340
81532SOL     OW46369  10.725  13.317   9.002
81532SOL    HW146370  10.710  13.354   8.915
81532SOL    HW246371  10.657  13.356   9.056
81533SOL     OW46372  13.972  14.704   9.051
81533SOL    HW146373  13.933  14.665   8.973
81533SOL    HW246374  13.957  14.798   9.040
81534SOL     OW46375   3.765   9.137  10.956
81534SOL    HW146376   3.719   9.147  11.039
81534SOL    HW246377   3.839   9.197  10.961
81535SOL     OW46378   5.378  12.476   2.599
81535SOL    HW146379   5.342  12.496   2.685
81535SOL    HW246380   5.417  12.389   2.609
81536SOL     OW46381  11.429  10.977   1.714
81536SOL    HW146382  11.393  11.026   1.639
81536SOL    HW246383  11.483  11.041   1.760
81537SOL     OW46384  11.007   0.220   0.837
81537SOL    HW146385  10.961   0.148   0.793
81537SOL    HW246386  11.097   0.189   0.846
81538SOL     OW46387  12.151   1.043  10.609
81538SOL    HW146388  12.135   0.965  10.662
81538SOL    HW246389  12.064   1.075  10.586
81539SOL     OW46390   0.086   2.001  11.179
81539SOL    HW146391   0.085   2.023  11.272
81539SOL    HW246392   0.132   1.917  11.174
81540SOL     OW46393   7.705   5.002  13.424
81540SOL    HW146394   7.683   5.076  13.368
81540SOL    HW246395   7.697   5.035  13.513
81541SOL     OW46396  10.132  11.376   4.494
81541SOL    HW146397  10.196  11.416   4.436
81541SOL    HW246398  10.066  11.340   4.435
81542SOL     OW46399   7.763   5.315  11.758
81542SOL    HW146400   7.826   5.353  11.819
81542SOL    HW246401   7.713   5.390  11.725
81543SOL     OW46402   6.313   5.250  11.668
81543SOL    HW146403   6.290   5.333  11.710
81543SOL    HW246404   6.268   5.183  11.720
81544SOL     OW46405  11.266   5.694  13.784
81544SOL    HW146406  11.187   5.649  13.753
81544SOL    HW246407  11.321   5.623  13.818
81545SOL     OW46408   3.732  14.265   2.685
81545SOL    HW146409   3.819  14.278   2.647
81545SOL    HW246410   3.746  14.276   2.779
81546SOL     OW46411   8.778  13.218   0.695
81546SOL    HW146412   8.833  13.289   0.729
81546SOL    HW246413   8.786  13.148   0.760
81547SOL     OW46414  13.248  14.521  10.984
81547SOL    HW146415  13.296  14.460  11.039
81547SOL    HW246416  13.280  14.607  11.011
81548SOL     OW46417   6.933   7.931  10.584
81548SOL    HW146418   6.945   7.950  10.677
81548SOL    HW246419   7.006   7.975  10.541
81549SOL     OW46420   5.715  13.855   1.821
81549SOL    HW146421   5.706  13.849   1.726
81549SOL    HW246422   5.751  13.770   1.847
81550SOL     OW46423  10.730   7.150   0.421
81550SOL    HW146424  10.735   7.055   0.427
81550SOL    HW246425  10.813   7.181   0.455
81551SOL     OW46426   6.180  14.735   4.320
81551SOL    HW146427   6.147  14.775   4.239
81551SOL    HW246428   6.105  14.690   4.357
81552SOL     OW46429   2.008  11.989   2.113
81552SOL    HW146430   2.019  11.897   2.135
81552SOL    HW246431   2.079  12.008   2.052
81553SOL     OW46432  12.398   1.055  10.269
81553SOL    HW146433  12.402   1.142  10.228
81553SOL    HW246434  12.434   0.996  10.204
81554SOL     OW46435   3.583   6.593  13.801
81554SOL    HW146436   3.489   6.599  13.782
81554SOL    HW246437   3.588   6.545  13.884
81555SOL     OW46438  11.416   1.737   2.943
81555SOL    HW146439  11.428   1.734   3.038
81555SOL    HW246440  11.495   1.781   2.911
81556SOL     OW46441   4.528   8.645   9.378
81556SOL    HW146442   4.621   8.623   9.387
81556SOL    HW246443   4.516   8.719   9.437
81557SOL     OW46444   8.059  11.077  14.044
81557SOL    HW146445   8.077  11.055  13.953
81557SOL    HW246446   7.964  11.093  14.047
81558SOL     OW46447   2.003   4.089   0.763
81558SOL    HW146448   2.034   4.144   0.834
81558SOL    HW246449   2.074   4.025   0.750
81559SOL     OW46450  12.621   8.851  10.214
81559SOL    HW146451  12.665   8.793  10.276
81559SOL    HW246452  12.585   8.921  10.269
81560SOL     OW46453  10.601  10.616  13.592
81560SOL    HW146454  10.665  10.577  13.534
81560SOL    HW246455  10.580  10.701  13.553
81561SOL     OW46456   5.874   6.649   9.816
81561SOL    HW146457   5.818   6.694   9.880
81561SOL    HW246458   5.856   6.694   9.733
81562SOL     OW46459   4.705   3.477  10.177
81562SOL    HW146460   4.749   3.446  10.255
81562SOL    HW246461   4.654   3.553  10.206
81563SOL     OW46462  14.602   4.392   3.261
81563SOL    HW146463  14.622   4.440   3.341
81563SOL    HW246464  14.516   4.423   3.235
81564SOL     OW46465   7.091  13.095   6.267
81564SOL    HW146466   7.047  13.178   6.252
81564SOL    HW246467   7.138  13.077   6.185
81565SOL     OW46468  12.774   9.866   2.710
81565SOL    HW146469  12.789   9.858   2.804
81565SOL    HW246470  12.852   9.912   2.677
81566SOL     OW46471   7.384  11.089   5.364
81566SOL    HW146472   7.303  11.101   5.314
81566SOL    HW246473   7.452  11.126   5.308
81567SOL     OW46474  13.786   0.329   2.879
81567SOL    HW146475  13.878   0.304   2.869
81567SOL    HW246476  13.740   0.247   2.895
81568SOL     OW46477  13.161   5.172   4.957
81568SOL    HW146478  13.255   5.184   4.962
81568SOL    HW246479  13.124   5.253   4.994
81569SOL     OW46480   1.015   4.502   3.552
81569SOL    HW146481   0.967   4.470   3.476
81569SOL    HW246482   1.097   4.452   3.551
81570SOL     OW46483   0.893  12.662   3.310
81570SOL    HW146484   0.809  12.618   3.317
81570SOL    HW246485   0.920  12.675   3.401
81571SOL     OW46486   3.342   2.639   6.125
81571SOL    HW146487   3.286   2.567   6.095
81571SOL    HW246488   3.287   2.717   6.121
81572SOL     OW46489   9.065   3.818   2.967
81572SOL    HW146490   9.119   3.740   2.953
81572SOL    HW246491   9.004   3.818   2.893
81573SOL     OW46492  12.795   4.582   1.304
81573SOL    HW146493  12.797   4.677   1.294
81573SOL    HW246494  12.716   4.565   1.355
81574SOL     OW46495   9.443   6.060  13.585
81574SOL    HW146496   9.457   6.051  13.491
81574SOL    HW246497   9.524   6.098  13.618
81575SOL     OW46498   9.674   0.666  13.839
81575SOL    HW146499   9.757   0.659  13.886
81575SOL    HW246500   9.607   0.664  13.907
81576SOL     OW46501  13.976  12.411  13.912
81576SOL    HW146502  13.896  12.437  13.958
81576SOL    HW246503  13.963  12.442  13.822
81577SOL     OW46504   7.353   4.345   5.052
81577SOL    HW146505   7.282   4.301   5.100
81577SOL    HW246506   7.385   4.411   5.113
81578SOL     OW46507   4.172   4.798   4.956
81578SOL    HW146508   4.198   4.867   4.895
81578SOL    HW246509   4.209   4.718   4.917
81579SOL     OW46510  13.951   5.463  13.723
81579SOL    HW146511  13.918   5.380  13.756
81579SOL    HW246512  14.046   5.452  13.721
81580SOL     OW46513  12.329   5.604  12.875
81580SOL    HW146514  12.365   5.676  12.928
81580SOL    HW246515  12.394   5.588  12.808
81581SOL     OW46516   1.307   0.095   4.305
81581SOL    HW146517   1.228   0.098   4.359
81581SOL    HW246518   1.287   0.035   4.234
81582SOL     OW46519  13.390   7.761   5.061
81582SOL    HW146520  13.376   7.852   5.035
81582SOL    HW246521  13.486   7.753   5.068
81583SOL     OW46522   5.685   3.537  10.846
81583SOL    HW146523   5.692   3.477  10.771
81583SOL    HW246524   5.592   3.563  10.847
81584SOL     OW46525  10.045   9.985  11.997
81584SOL    HW146526   9.974   9.953  11.942
81584SOL    HW246527  10.002  10.014  12.078
81585SOL     OW46528   0.727   8.786   9.863
81585SOL    HW146529   0.791   8.822   9.801
81585SOL    HW246530   0.644   8.828   9.839
81586SOL     OW46531   2.936   4.403   1.406
81586SOL    HW146532   2.843   4.420   1.394
81586SOL    HW246533   2.963   4.466   1.474
81587SOL     OW46534   1.794   5.830   6.323
81587SOL    HW146535   1.721   5.892   6.329
81587SOL    HW246536   1.795   5.786   6.408
81588SOL     OW46537   0.682  10.136   8.776
81588SOL    HW146538   0.647  10.173   8.857
81588SOL    HW246539   0.776  10.151   8.782
81589SOL     OW46540  14.530  12.150   5.162
81589SOL    HW146541  14.532  12.246   5.158
81589SOL    HW246542  14.622  12.124   5.164
81590SOL     OW46543   5.019   4.792   8.625
81590SOL    HW146544   4.925   4.787   8.607
81590SOL    HW246545   5.032   4.880   8.659
81591SOL     OW46546   6.981  12.626   2.715
81591SOL    HW146547   7.002  12.654   2.804
81591SOL    HW246548   6.979  12.707   2.664
81592SOL     OW46549   3.748  12.952   5.659
81592SOL    HW146550   3.673  12.912   5.703
81592SOL    HW246551   3.710  13.009   5.592
81593SOL     OW46552   1.285   7.928  13.804
81593SOL    HW146553   1.287   7.932  13.900
81593SOL    HW246554   1.207   7.878  13.784
81594SOL     OW46555  12.293  10.100   1.479
81594SOL    HW146556  12.228  10.051   1.428
81594SOL    HW246557  12.329  10.163   1.417
81595SOL     OW46558   4.395   8.576  12.452
81595SOL    HW146559   4.324   8.608  12.396
81595SOL    HW246560   4.351   8.534  12.526
81596SOL     OW46561  13.982  12.141  13.311
81596SOL    HW146562  13.984  12.049  13.286
81596SOL    HW246563  13.979  12.189  13.227
81597SOL     OW46564   4.191   4.662   7.066
81597SOL    HW146565   4.114   4.652   7.010
81597SOL    HW246566   4.166   4.618   7.148
81598SOL     OW46567   2.020   1.293  14.414
81598SOL    HW146568   2.113   1.276  14.402
81598SOL    HW246569   1.978   1.251  14.339
81599SOL     OW46570   3.463  11.828  14.160
81599SOL    HW146571   3.430  11.865  14.078
81599SOL    HW246572   3.508  11.900  14.203
81600SOL     OW46573   0.975   0.804   2.838
81600SOL    HW146574   1.059   0.847   2.849
81600SOL    HW246575   0.929   0.858   2.773
81601SOL     OW46576   4.416   3.373   9.178
81601SOL    HW146577   4.391   3.280   9.186
81601SOL    HW246578   4.335   3.417   9.153
81602SOL     OW46579   5.269   7.559  12.450
81602SOL    HW146580   5.352   7.585  12.410
81602SOL    HW246581   5.274   7.593  12.540
81603SOL     OW46582   0.049   2.849   2.098
81603SOL    HW146583   0.007   2.855   2.184
81603SOL    HW246584   0.141   2.831   2.117
81604SOL     OW46585  12.217  11.240  13.038
81604SOL    HW146586  12.267  11.317  13.011
81604SOL    HW246587  12.279  11.188  13.089
81605SOL     OW46588  11.110   0.766  12.967
81605SOL    HW146589  11.067   0.692  12.923
81605SOL    HW246590  11.203   0.745  12.965
81606SOL     OW46591   6.658   5.049  11.534
81606SOL    HW146592   6.584   4.992  11.512
81606SOL    HW246593   6.701   5.065  11.450
81607SOL     OW46594  14.400   2.461   4.705
81607SOL    HW146595  14.416   2.494   4.617
81607SOL    HW246596  14.458   2.385   4.713
81608SOL     OW46597  10.304   3.250   5.788
81608SOL    HW146598  10.286   3.256   5.882
81608SOL    HW246599  10.229   3.293   5.747
81609SOL     OW46600   8.492   0.789   1.002
81609SOL    HW146601   8.446   0.724   0.949
81609SOL    HW246602   8.547   0.836   0.940
81610SOL     OW46603   2.473   1.795   5.462
81610SOL    HW146604   2.435   1.838   5.538
81610SOL    HW246605   2.518   1.718   5.498
81611SOL     OW46606  12.708  13.734   6.832
81611SOL    HW146607  12.775  13.692   6.885
81611SOL    HW246608  12.715  13.827   6.852
81612SOL     OW46609   0.198  10.199   4.767
81612SOL    HW146610   0.120  10.187   4.713
81612SOL    HW246611   0.265  10.145   4.725
81613SOL     OW46612   7.718   6.171   0.134
81613SOL    HW146613   7.781   6.243   0.137
81613SOL    HW246614   7.642   6.208   0.088
81614SOL     OW46615   9.727   0.057   6.521
81614SOL    HW146616   9.794  14.875   6.497
81614SOL    HW246617   9.721   0.052   6.616
81615SOL     OW46618   5.355   4.195   4.181
81615SOL    HW146619   5.299   4.126   4.147
81615SOL    HW246620   5.418   4.150   4.236
81616SOL     OW46621   4.770   7.425  12.466
81616SOL    HW146622   4.810   7.510  12.485
81616SOL    HW246623   4.677   7.445  12.457
81617SOL     OW46624   6.356  11.183   0.930
81617SOL    HW146625   6.262  11.190   0.914
81617SOL    HW246626   6.389  11.273   0.920
81618SOL     OW46627   9.841   4.091   4.781
81618SOL    HW146628   9.912   4.112   4.842
81618SOL    HW246629   9.806   4.176   4.755
81619SOL     OW46630   2.319   5.303   0.420
81619SOL    HW146631   2.386   5.262   0.366
81619SOL    HW246632   2.354   5.391   0.437
81620SOL     OW46633  12.405  10.540  11.020
81620SOL    HW146634  12.333  10.580  10.970
81620SOL    HW246635  12.463  10.503  10.953
81621SOL     OW46636   1.616   0.240   1.806
81621SOL    HW146637   1.636   0.217   1.715
81621SOL    HW246638   1.554   0.313   1.799
81622SOL     OW46639   2.389  11.860   0.190
81622SOL    HW146640   2.446  11.804   0.137
81622SOL    HW246641   2.328  11.800   0.231
81623SOL     OW46642   5.428  13.271   7.095
81623SOL    HW146643   5.435  13.347   7.037
81623SOL    HW246644   5.518  13.253   7.121
81624SOL     OW46645   6.748   1.914  14.127
81624SOL    HW146646   6.789   1.828  14.132
81624SOL    HW246647   6.808   1.967  14.076
81625SOL     OW46648  10.880   6.476   1.347
81625SOL    HW146649  10.804   6.419   1.343
81625SOL    HW246650  10.849   6.556   1.390
81626SOL     OW46651   9.331   4.031   5.892
81626SOL    HW146652   9.266   4.006   5.958
81626SOL    HW246653   9.330   3.959   5.829
81627SOL     OW46654   9.216   1.393   3.099
81627SOL    HW146655   9.179   1.411   3.013
81627SOL    HW246656   9.176   1.459   3.156
81628SOL     OW46657   0.801   0.140  14.201
81628SOL    HW146658   0.845   0.222  14.223
81628SOL    HW246659   0.837   0.116  14.115
81629SOL     OW46660  12.556   0.446  12.190
81629SOL    HW146661  12.472   0.483  12.164
81629SOL    HW246662  12.534   0.365  12.237
81630SOL     OW46663   8.609  13.517   3.480
81630SOL    HW146664   8.688  13.558   3.516
81630SOL    HW246665   8.605  13.432   3.526
81631SOL     OW46666  10.639   5.230  11.012
81631SOL    HW146667  10.621   5.229  11.106
81631SOL    HW246668  10.636   5.322  10.987
81632SOL     OW46669  13.628  10.543   3.549
81632SOL    HW146670  13.565  10.587   3.491
81632SOL    HW246671  13.644  10.607   3.619
81633SOL     OW46672  11.295   8.931  12.857
81633SOL    HW146673  11.313   8.926  12.951
81633SOL    HW246674  11.224   8.868  12.843
81634SOL     OW46675   4.614   9.533   8.678
81634SOL    HW146676   4.561   9.455   8.662
81634SOL    HW246677   4.701   9.509   8.646
81635SOL     OW46678   4.270   6.248  13.983
81635SOL    HW146679   4.245   6.324  14.035
81635SOL    HW246680   4.287   6.282  13.895
81636SOL     OW46681  10.949   5.195   1.767
81636SOL    HW146682  10.941   5.115   1.715
81636SOL    HW246683  11.023   5.241   1.728
81637SOL     OW46684  11.608   8.153   8.995
81637SOL    HW146685  11.536   8.215   9.007
81637SOL    HW246686  11.675   8.184   9.056
81638SOL     OW46687   8.946   2.268   6.885
81638SOL    HW146688   8.906   2.198   6.937
81638SOL    HW246689   8.936   2.239   6.794
81639SOL     OW46690   3.922   8.885  11.529
81639SOL    HW146691   3.979   8.864  11.603
81639SOL    HW246692   3.919   8.981  11.527
81640SOL     OW46693   6.944  13.613   6.955
81640SOL    HW146694   7.015  13.673   6.932
81640SOL    HW246695   6.878  13.628   6.887
81641SOL     OW46696   3.285  10.358   3.511
81641SOL    HW146697   3.287  10.390   3.601
81641SOL    HW246698   3.193  10.337   3.495
81642SOL     OW46699  12.644  13.621   4.658
81642SOL    HW146700  12.632  13.716   4.664
81642SOL    HW246701  12.697  13.608   4.580
81643SOL     OW46702  10.406   6.067  14.201
81643SOL    HW146703  10.352   6.100  14.273
81643SOL    HW246704  10.473   6.014  14.243
81644SOL     OW46705  13.842   4.687   0.523
81644SOL    HW146706  13.843   4.641   0.607
81644SOL    HW246707  13.918   4.745   0.526
81645SOL     OW46708  11.192   8.757  14.617
81645SOL    HW146709  11.174   8.822  14.685
81645SOL    HW246710  11.176   8.673  14.659
81646SOL     OW46711   2.802  11.364   1.040
81646SOL    HW146712   2.759  11.285   1.073
81646SOL    HW246713   2.870  11.331   0.982
81647SOL     OW46714   5.397   2.679   8.747
81647SOL    HW146715   5.351   2.758   8.775
81647SOL    HW246716   5.450   2.654   8.823
81648SOL     OW46717   1.536   1.408   7.641
81648SOL    HW146718   1.524   1.377   7.551
81648SOL    HW246719   1.456   1.382   7.686
81649SOL     OW46720  13.036   4.970   6.645
81649SOL    HW146721  12.957   4.983   6.593
81649SOL    HW246722  13.108   4.990   6.585
81650SOL     OW46723   6.381   3.636  13.643
81650SOL    HW146724   6.346   3.606  13.559
81650SOL    HW246725   6.403   3.728  13.628
81651SOL     OW46726   5.884   5.076  10.681
81651SOL    HW146727   5.967   5.030  10.673
81651SOL    HW246728   5.900   5.163  10.644
81652SOL     OW46729  10.091  13.366   3.300
81652SOL    HW146730  10.119  13.278   3.324
81652SOL    HW246731  10.172  13.413   3.280
81653SOL     OW46732   0.101   8.809   5.723
81653SOL    HW146733   0.025   8.801   5.781
81653SOL    HW246734   0.068   8.855   5.646
81654SOL     OW46735   2.997  13.587   8.838
81654SOL    HW146736   2.994  13.677   8.807
81654SOL    HW246737   3.061  13.544   8.781
81655SOL     OW46738   9.818   0.876   1.884
81655SOL    HW146739   9.845   0.892   1.974
81655SOL    HW246740   9.865   0.942   1.833
81656SOL     OW46741   6.041   7.441   3.354
81656SOL    HW146742   6.093   7.455   3.275
81656SOL    HW246743   6.062   7.516   3.410
81657SOL     OW46744   0.459   4.645  10.250
81657SOL    HW146745   0.430   4.559  10.278
81657SOL    HW246746   0.537   4.662  10.303
81658SOL     OW46747   1.879   8.575   5.132
81658SOL    HW146748   1.802   8.518   5.132
81658SOL    HW246749   1.876   8.620   5.216
81659SOL     OW46750   8.714   9.142  12.636
81659SOL    HW146751   8.796   9.116  12.594
81659SOL    HW246752   8.665   9.060  12.643
81660SOL     OW46753  13.958   5.929   4.985
81660SOL    HW146754  14.007   5.979   4.920
81660SOL    HW246755  14.020   5.864   5.016
81661SOL     OW46756  13.953   6.907   9.669
81661SOL    HW146757  13.997   6.965   9.608
81661SOL    HW246758  13.929   6.831   9.616
81662SOL     OW46759   1.216   8.211  13.255
81662SOL    HW146760   1.129   8.175  13.270
81662SOL    HW246761   1.267   8.138  13.219
81663SOL     OW46762  10.552   0.616  11.171
81663SOL    HW146763  10.610   0.552  11.132
81663SOL    HW246764  10.468   0.602  11.128
81664SOL     OW46765   6.072   2.188  13.076
81664SOL    HW146766   6.002   2.132  13.110
81664SOL    HW246767   6.033   2.231  12.999
81665SOL     OW46768   7.369   6.345   3.591
81665SOL    HW146769   7.356   6.250   3.583
81665SOL    HW246770   7.462   6.358   3.576
81666SOL     OW46771   9.329   3.045   9.216
81666SOL    HW146772   9.372   3.005   9.141
81666SOL    HW246773   9.397   3.098   9.258
81667SOL     OW46774   9.948   5.659   4.245
81667SOL    HW146775  10.029   5.609   4.231
81667SOL    HW246776   9.977   5.748   4.263
81668SOL     OW46777   2.356  11.173   1.124
81668SOL    HW146778   2.304  11.106   1.167
81668SOL    HW246779   2.320  11.256   1.157
81669SOL     OW46780  12.622   6.573  12.031
81669SOL    HW146781  12.664   6.642  12.083
81669SOL    HW246782  12.668   6.493  12.055
81670SOL     OW46783   7.963  13.012  10.997
81670SOL    HW146784   7.931  13.078  10.935
81670SOL    HW246785   7.896  13.010  11.066
81671SOL     OW46786   3.474   7.212   6.201
81671SOL    HW146787   3.562   7.247   6.193
81671SOL    HW246788   3.417   7.290   6.200
81672SOL     OW46789   5.024   5.609   4.808
81672SOL    HW146790   5.039   5.603   4.902
81672SOL    HW246791   5.032   5.519   4.776
81673SOL     OW46792  10.466  10.361   9.554
81673SOL    HW146793  10.453  10.334   9.463
81673SOL    HW246794  10.530  10.299   9.588
81674SOL     OW46795  11.777  14.334  13.400
81674SOL    HW146796  11.831  14.295  13.468
81674SOL    HW246797  11.693  14.350  13.442
81675SOL     OW46798   8.376   2.134   4.794
81675SOL    HW146799   8.307   2.163   4.735
81675SOL    HW246800   8.345   2.050   4.828
81676SOL     OW46801   1.742   5.509   8.272
81676SOL    HW146802   1.738   5.450   8.197
81676SOL    HW246803   1.680   5.579   8.251
81677SOL     OW46804   9.054  13.746   2.947
81677SOL    HW146805   9.145  13.774   2.949
81677SOL    HW246806   9.008  13.807   3.005
81678SOL     OW46807   5.204   1.724  11.635
81678SOL    HW146808   5.254   1.681  11.703
81678SOL    HW246809   5.182   1.654  11.573
81679SOL     OW46810  10.353  11.779   6.312
81679SOL    HW146811  10.410  11.775   6.389
81679SOL    HW246812  10.398  11.839   6.253
81680SOL     OW46813  11.549  12.432   8.546
81680SOL    HW146814  11.577  12.432   8.455
81680SOL    HW246815  11.485  12.362   8.552
81681SOL     OW46816   3.706  12.342   9.130
81681SOL    HW146817   3.671  12.386   9.208
81681SOL    HW246818   3.801  12.352   9.138
81682SOL     OW46819   0.687  13.540   6.642
81682SOL    HW146820   0.694  13.627   6.603
81682SOL    HW246821   0.704  13.480   6.569
81683SOL     OW46822   6.345  14.647   6.586
81683SOL    HW146823   6.360  14.726   6.639
81683SOL    HW246824   6.385  14.576   6.637
81684SOL     OW46825   1.559  12.830  11.814
81684SOL    HW146826   1.535  12.762  11.750
81684SOL    HW246827   1.598  12.781  11.886
81685SOL     OW46828  11.531   4.872   0.639
81685SOL    HW146829  11.626   4.886   0.645
81685SOL    HW246830  11.494   4.930   0.706
81686SOL     OW46831  14.782  12.013   5.173
81686SOL    HW146832  14.778  11.940   5.234
81686SOL    HW246833  14.796  12.090   5.228
81687SOL     OW46834   1.602   4.176   4.659
81687SOL    HW146835   1.542   4.245   4.630
81687SOL    HW246836   1.671   4.223   4.706
81688SOL     OW46837  11.593   4.697   3.958
81688SOL    HW146838  11.603   4.653   3.874
81688SOL    HW246839  11.498   4.702   3.972
81689SOL     OW46840   8.370   4.873   8.491
81689SOL    HW146841   8.379   4.958   8.448
81689SOL    HW246842   8.302   4.887   8.557
81690SOL     OW46843  11.512  11.656   3.587
81690SOL    HW146844  11.604  11.670   3.605
81690SOL    HW246845  11.488  11.581   3.642
81691SOL     OW46846   9.611  13.730  14.121
81691SOL    HW146847   9.646  13.644  14.101
81691SOL    HW246848   9.630  13.783  14.043
81692SOL     OW46849  14.851  11.165   0.207
81692SOL    HW146850   0.025  11.090   0.189
81692SOL    HW246851  14.823  11.195   0.120
81693SOL     OW46852  13.558  11.945   6.536
81693SOL    HW146853  13.473  11.903   6.525
81693SOL    HW246854  13.538  12.034   6.565
81694SOL     OW46855  14.500   6.285  11.662
81694SOL    HW146856  14.489   6.279  11.757
81694SOL    HW246857  14.502   6.195  11.632
81695SOL     OW46858   6.411   5.129  12.526
81695SOL    HW146859   6.460   5.197  12.482
81695SOL    HW246860   6.324   5.167  12.539
81696SOL     OW46861  12.581   7.195   7.490
81696SOL    HW146862  12.499   7.150   7.509
81696SOL    HW246863  12.559   7.288   7.494
81697SOL     OW46864  14.347  11.968  14.447
81697SOL    HW146865  14.348  11.891  14.391
81697SOL    HW246866  14.286  11.946  14.517
81698SOL     OW46867   8.485   6.423   6.739
81698SOL    HW146868   8.542   6.463   6.805
81698SOL    HW246869   8.546   6.376   6.681
81699SOL     OW46870   5.335   6.203   3.359
81699SOL    HW146871   5.399   6.172   3.295
81699SOL    HW246872   5.289   6.273   3.314
81700SOL     OW46873   9.675   7.269  13.214
81700SOL    HW146874   9.728   7.217  13.154
81700SOL    HW246875   9.587   7.233  13.206
81701SOL     OW46876  10.733  10.685   0.989
81701SOL    HW146877  10.723  10.747   0.917
81701SOL    HW246878  10.653  10.697   1.041
81702SOL     OW46879   4.113   7.839   2.114
81702SOL    HW146880   4.130   7.817   2.205
81702SOL    HW246881   4.192   7.812   2.067
81703SOL     OW46882   5.312   9.522   2.404
81703SOL    HW146883   5.282   9.610   2.424
81703SOL    HW246884   5.267   9.466   2.467
81704SOL     OW46885  10.671   1.568  10.071
81704SOL    HW146886  10.602   1.592  10.134
81704SOL    HW246887  10.622   1.540   9.993
81705SOL     OW46888  14.040   2.107   5.792
81705SOL    HW146889  14.049   2.055   5.872
81705SOL    HW246890  14.130   2.124   5.764
81706SOL     OW46891   7.631   4.613   6.146
81706SOL    HW146892   7.677   4.617   6.230
81706SOL    HW246893   7.549   4.567   6.165
81707SOL     OW46894   5.269   1.799   8.343
81707SOL    HW146895   5.234   1.712   8.328
81707SOL    HW246896   5.342   1.807   8.281
81708SOL     OW46897   6.475   0.610   8.143
81708SOL    HW146898   6.401   0.551   8.157
81708SOL    HW246899   6.543   0.579   8.204
81709SOL     OW46900   8.939  12.565   1.541
81709SOL    HW146901   8.979  12.478   1.532
81709SOL    HW246902   8.845  12.547   1.547
81710SOL     OW46903  11.074   3.116   0.618
81710SOL    HW146904  11.151   3.100   0.673
81710SOL    HW246905  11.071   3.211   0.607
81711SOL     OW46906  14.601   1.334   0.842
81711SOL    HW146907  14.578   1.378   0.760
81711SOL    HW246908  14.578   1.242   0.828
81712SOL     OW46909  13.774   9.119   0.174
81712SOL    HW146910  13.758   9.057   0.245
81712SOL    HW246911  13.687   9.154   0.153
81713SOL     OW46912   0.733   2.245  14.444
81713SOL    HW146913   0.787   2.303  14.497
81713SOL    HW246914   0.732   2.286  14.357
81714SOL     OW46915   6.835   1.857  10.740
81714SOL    HW146916   6.801   1.937  10.781
81714SOL    HW246917   6.895   1.821  10.805
81715SOL     OW46918   2.856   5.114   5.648
81715SOL    HW146919   2.775   5.164   5.665
81715SOL    HW246920   2.888   5.150   5.565
81716SOL     OW46921   2.796   9.705   0.674
81716SOL    HW146922   2.780   9.740   0.762
81716SOL    HW246923   2.840   9.776   0.628
81717SOL     OW46924   3.033   5.461   6.499
81717SOL    HW146925   3.066   5.387   6.549
81717SOL    HW246926   3.025   5.429   6.409
81718SOL     OW46927  10.724   8.433  12.995
81718SOL    HW146928  10.676   8.368  13.045
81718SOL    HW246929  10.806   8.445  13.043
81719SOL     OW46930  11.870   7.565  10.230
81719SOL    HW146931  11.800   7.519  10.185
81719SOL    HW246932  11.884   7.516  10.311
81720SOL     OW46933   0.725  11.024   3.650
81720SOL    HW146934   0.641  11.041   3.606
81720SOL    HW246935   0.708  11.045   3.742
81721SOL     OW46936   1.325   5.288   1.402
81721SOL    HW146937   1.364   5.301   1.316
81721SOL    HW246938   1.232   5.272   1.384
81722SOL     OW46939   9.440  13.890  14.222
81722SOL    HW146940   9.509  13.842  14.177
81722SOL    HW246941   9.454  13.872  14.315
81723SOL     OW46942   3.493   0.627  14.681
81723SOL    HW146943   3.541   0.697  14.726
81723SOL    HW246944   3.490   0.555  14.744
81724SOL     OW46945   0.977   5.018  11.115
81724SOL    HW146946   0.912   4.961  11.157
81724SOL    HW246947   0.928   5.096  11.091
81725SOL     OW46948   3.956   4.688  14.441
81725SOL    HW146949   4.019   4.620  14.416
81725SOL    HW246950   3.987   4.719  14.526
81726SOL     OW46951   0.228  10.111  14.338
81726SOL    HW146952   0.251  10.035  14.393
81726SOL    HW246953   0.177  10.074  14.266
81727SOL     OW46954   8.674   1.305   7.765
81727SOL    HW146955   8.643   1.395   7.756
81727SOL    HW246956   8.714   1.302   7.852
81728SOL     OW46957   3.213   4.706   1.754
81728SOL    HW146958   3.278   4.767   1.720
81728SOL    HW246959   3.160   4.757   1.814
81729SOL     OW46960  13.882   9.948   6.109
81729SOL    HW146961  13.892   9.937   6.014
81729SOL    HW246962  13.925  10.031   6.128
81730SOL     OW46963   7.624   1.466   3.316
81730SOL    HW146964   7.705   1.448   3.269
81730SOL    HW246965   7.624   1.404   3.388
81731SOL     OW46966   0.361   4.993   6.855
81731SOL    HW146967   0.359   4.925   6.922
81731SOL    HW246968   0.342   4.947   6.773
81732SOL     OW46969   1.370   3.981   7.297
81732SOL    HW146970   1.330   3.894   7.292
81732SOL    HW246971   1.396   4.000   7.207
81733SOL     OW46972   6.535  13.013   2.832
81733SOL    HW146973   6.512  13.061   2.911
81733SOL    HW246974   6.502  12.925   2.846
81734SOL     OW46975   7.482   7.166   6.442
81734SOL    HW146976   7.498   7.074   6.421
81734SOL    HW246977   7.388   7.178   6.425
81735SOL     OW46978   3.279  13.488   7.036
81735SOL    HW146979   3.266  13.532   7.120
81735SOL    HW246980   3.309  13.400   7.060
81736SOL     OW46981  10.274   6.236  13.132
81736SOL    HW146982  10.292   6.314  13.185
81736SOL    HW246983  10.315   6.255  13.048
81737SOL     OW46984  12.184   4.254   5.366
81737SOL    HW146985  12.133   4.333   5.383
81737SOL    HW246986  12.272   4.275   5.400
81738SOL     OW46987  12.209  11.333  14.071
81738SOL    HW146988  12.240  11.321  14.161
81738SOL    HW246989  12.288  11.325  14.018
81739SOL     OW46990  10.789  11.444   9.135
81739SOL    HW146991  10.704  11.484   9.152
81739SOL    HW246992  10.801  11.451   9.040
81740SOL     OW46993   0.596   5.578   9.135
81740SOL    HW146994   0.606   5.612   9.046
81740SOL    HW246995   0.516   5.618   9.168
81741SOL     OW46996   5.136   8.955   8.703
81741SOL    HW146997   5.163   8.874   8.747
81741SOL    HW246998   5.041   8.949   8.699
81742SOL     OW46999  14.423   1.000   9.531
81742SOL    HW147000  14.380   0.914   9.537
81742SOL    HW247001  14.429   1.016   9.437
81743SOL     OW47002   4.917   7.077   1.112
81743SOL    HW147003   4.971   7.035   1.045
81743SOL    HW247004   4.972   7.079   1.190
81744SOL     OW47005  14.479  12.019   8.764
81744SOL    HW147006  14.488  12.084   8.834
81744SOL    HW247007  14.561  12.025   8.715
81745SOL     OW47008   6.562   7.915   2.970
81745SOL    HW147009   6.484   7.864   2.947
81745SOL    HW247010   6.575   7.974   2.895
81746SOL     OW47011   0.255  12.597  11.760
81746SOL    HW147012   0.321  12.628  11.698
81746SOL    HW247013   0.227  12.675  11.808
81747SOL     OW47014   1.949   4.655   8.222
81747SOL    HW147015   1.916   4.634   8.309
81747SOL    HW247016   1.912   4.587   8.165
81748SOL     OW47017  11.481   3.786  10.672
81748SOL    HW147018  11.439   3.790  10.585
81748SOL    HW247019  11.486   3.693  10.691
81749SOL     OW47020   9.286   5.757   1.767
81749SOL    HW147021   9.197   5.740   1.800
81749SOL    HW247022   9.280   5.738   1.673
81750SOL     OW47023   1.302   1.356   4.386
81750SOL    HW147024   1.383   1.405   4.374
81750SOL    HW247025   1.255   1.403   4.455
81751SOL     OW47026   8.891   0.359   0.178
81751SOL    HW147027   8.935   0.276   0.160
81751SOL    HW247028   8.814   0.335   0.229
81752SOL     OW47029   1.446  11.156  10.214
81752SOL    HW147030   1.370  11.105  10.185
81752SOL    HW247031   1.500  11.092  10.261
81753SOL     OW47032   5.078   6.741  11.719
81753SOL    HW147033   5.119   6.686  11.786
81753SOL    HW247034   4.995   6.768  11.758
81754SOL     OW47035   7.944   9.519   8.273
81754SOL    HW147036   7.927   9.584   8.204
81754SOL    HW247037   7.940   9.435   8.228
81755SOL     OW47038   8.972   0.691  14.846
81755SOL    HW147039   9.013   0.648   0.039
81755SOL    HW247040   8.934   0.619  14.795
81756SOL     OW47041   1.099   8.994  11.540
81756SOL    HW147042   1.108   8.989  11.445
81756SOL    HW247043   1.174   9.047  11.568
81757SOL     OW47044   3.573   7.640   7.862
81757SOL    HW147045   3.607   7.553   7.886
81757SOL    HW247046   3.490   7.622   7.819
81758SOL     OW47047  11.093   6.311   0.380
81758SOL    HW147048  11.049   6.249   0.321
81758SOL    HW247049  11.100   6.392   0.328
81759SOL     OW47050   3.283  10.510  11.229
81759SOL    HW147051   3.281  10.479  11.139
81759SOL    HW247052   3.363  10.563  11.234
81760SOL     OW47053   7.533   4.267   4.860
81760SOL    HW147054   7.485   4.259   4.778
81760SOL    HW247055   7.466   4.262   4.929
81761SOL     OW47056  14.374   3.031   3.233
81761SOL    HW147057  14.354   3.062   3.144
81761SOL    HW247058  14.351   3.105   3.289
81762SOL     OW47059   0.092  12.949   4.681
81762SOL    HW147060   0.128  12.950   4.592
81762SOL    HW247061   0.148  13.008   4.731
81763SOL     OW47062   8.258   7.995   1.115
81763SOL    HW147063   8.294   7.958   1.195
81763SOL    HW247064   8.218   7.921   1.070
81764SOL     OW47065   8.146   7.971  11.296
81764SOL    HW147066   8.132   7.988  11.389
81764SOL    HW247067   8.152   7.876  11.290
81765SOL     OW47068   5.221  12.215   4.719
81765SOL    HW147069   5.190  12.180   4.635
81765SOL    HW247070   5.159  12.183   4.783
81766SOL     OW47071   8.560   5.275   6.620
81766SOL    HW147072   8.471   5.306   6.638
81766SOL    HW247073   8.564   5.267   6.525
81767SOL     OW47074  10.011   2.249   8.392
81767SOL    HW147075   9.927   2.220   8.426
81767SOL    HW247076  10.073   2.181   8.419
81768SOL     OW47077  10.672  12.438  14.586
81768SOL    HW147078  10.596  12.423  14.529
81768SOL    HW247079  10.635  12.444  14.674
81769SOL     OW47080   8.418   2.602   4.877
81769SOL    HW147081   8.431   2.696   4.874
81769SOL    HW247082   8.435   2.578   4.968
81770SOL     OW47083  13.401   2.049   5.368
81770SOL    HW147084  13.419   2.122   5.428
81770SOL    HW247085  13.457   1.978   5.399
81771SOL     OW47086   6.860   6.919   0.869
81771SOL    HW147087   6.929   6.980   0.843
81771SOL    HW247088   6.889   6.886   0.955
81772SOL     OW47089   3.192   7.829   4.939
81772SOL    HW147090   3.132   7.898   4.909
81772SOL    HW247091   3.189   7.763   4.870
81773SOL     OW47092   6.497  11.644   6.313
81773SOL    HW147093   6.466  11.656   6.402
81773SOL    HW247094   6.433  11.690   6.258
81774SOL     OW47095   8.416   5.093   8.265
81774SOL    HW147096   8.321   5.101   8.254
81774SOL    HW247097   8.443   5.032   8.196
81775SOL     OW47098   1.511  14.846  12.712
81775SOL    HW147099   1.487  14.855  12.805
81775SOL    HW247100   1.561   0.043  12.692
81776SOL     OW47101  12.612   0.774   4.993
81776SOL    HW147102  12.652   0.757   4.908
81776SOL    HW247103  12.542   0.836   4.974
81777SOL     OW47104  12.409   6.910   1.918
81777SOL    HW147105  12.384   6.870   1.834
81777SOL    HW247106  12.453   6.840   1.966
81778SOL     OW47107  12.781  14.185   8.996
81778SOL    HW147108  12.875  14.192   9.012
81778SOL    HW247109  12.747  14.135   9.070
81779SOL     OW47110   9.120   9.648  11.426
81779SOL    HW147111   9.079   9.563  11.441
81779SOL    HW247112   9.198   9.629  11.374
81780SOL     OW47113   3.363  14.684   0.858
81780SOL    HW147114   3.372  14.625   0.932
81780SOL    HW247115   3.450  14.687   0.818
81781SOL     OW47116  11.926   3.575  14.360
81781SOL    HW147117  11.874   3.599  14.437
81781SOL    HW247118  11.898   3.636  14.292
81782SOL     OW47119  10.960   3.257  10.968
81782SOL    HW147120  11.041   3.306  10.956
81782SOL    HW247121  10.945   3.256  11.063
81783SOL     OW47122   3.427   8.156  12.029
81783SOL    HW147123   3.351   8.116  12.070
81783SOL    HW247124   3.434   8.115  11.943
81784SOL     OW47125   4.018   2.616  12.803
81784SOL    HW147126   3.960   2.660  12.741
81784SOL    HW247127   4.023   2.675  12.878
81785SOL     OW47128  14.228   3.258  13.701
81785SOL    HW147129  14.239   3.330  13.640
81785SOL    HW247130  14.184   3.296  13.777
81786SOL     OW47131   3.278  13.634  11.870
81786SOL    HW147132   3.340  13.591  11.930
81786SOL    HW247133   3.334  13.688  11.814
81787SOL     OW47134   8.443  10.558  14.783
81787SOL    HW147135   8.386  10.609  14.725
81787SOL    HW247136   8.440  10.605  14.867
81788SOL     OW47137  10.855   5.821  10.134
81788SOL    HW147138  10.951   5.818  10.136
81788SOL    HW247139  10.828   5.780  10.216
81789SOL     OW47140   9.074  14.063  13.970
81789SOL    HW147141   9.110  13.990  14.020
81789SOL    HW247142   8.983  14.070  13.998
81790SOL     OW47143   2.515  10.605   4.705
81790SOL    HW147144   2.560  10.549   4.768
81790SOL    HW247145   2.546  10.693   4.726
81791SOL     OW47146   7.365   5.907  10.694
81791SOL    HW147147   7.301   5.974  10.720
81791SOL    HW247148   7.450   5.951  10.701
81792SOL     OW47149   6.941   0.235   4.570
81792SOL    HW147150   6.859   0.196   4.599
81792SOL    HW247151   6.993   0.161   4.539
81793SOL     OW47152   0.916   8.335   1.016
81793SOL    HW147153   1.002   8.344   1.056
81793SOL    HW247154   0.854   8.348   1.088
81794SOL     OW47155   1.764  10.793   7.431
81794SOL    HW147156   1.790  10.701   7.428
81794SOL    HW247157   1.668  10.791   7.431
81795SOL     OW47158   5.698  10.905  14.178
81795SOL    HW147159   5.793  10.896  14.182
81795SOL    HW247160   5.683  10.977  14.117
81796SOL     OW47161   7.418   7.669  14.852
81796SOL    HW147162   7.413   7.665   0.066
81796SOL    HW247163   7.352   7.734  14.827
81797SOL     OW47164   7.584   0.261  14.835
81797SOL    HW147165   7.491   0.279  14.821
81797SOL    HW247166   7.626   0.346  14.822
81798SOL     OW47167   6.037   0.217   7.549
81798SOL    HW147168   5.980   0.260   7.613
81798SOL    HW247169   6.087   0.153   7.600
81799SOL     OW47170  13.460   1.370   2.693
81799SOL    HW147171  13.473   1.384   2.786
81799SOL    HW247172  13.548   1.374   2.655
81800SOL     OW47173  11.510  12.058  14.088
81800SOL    HW147174  11.600  12.072  14.118
81800SOL    HW247175  11.520  12.004  14.009
81801SOL     OW47176   7.390  10.919   8.232
81801SOL    HW147177   7.463  10.929   8.292
81801SOL    HW247178   7.392  10.997   8.177
81802SOL     OW47179   7.616   9.779   3.489
81802SOL    HW147180   7.543   9.804   3.545
81802SOL    HW247181   7.636   9.689   3.515
81803SOL     OW47182   0.958   9.912   1.279
81803SOL    HW147183   0.908   9.848   1.228
81803SOL    HW247184   1.049   9.890   1.262
81804SOL     OW47185  13.880   4.673   5.607
81804SOL    HW147186  13.855   4.688   5.516
81804SOL    HW247187  13.827   4.734   5.657
81805SOL     OW47188   8.439   4.898  12.037
81805SOL    HW147189   8.520   4.870  12.079
81805SOL    HW247190   8.370   4.846  12.080
81806SOL     OW47191   8.803  14.072   3.019
81806SOL    HW147192   8.805  14.056   2.925
81806SOL    HW247193   8.762  14.158   3.028
81807SOL     OW47194  14.681   7.170   2.732
81807SOL    HW147195  14.710   7.184   2.642
81807SOL    HW247196  14.602   7.224   2.741
81808SOL     OW47197   3.741   3.783   8.757
81808SOL    HW147198   3.649   3.803   8.772
81808SOL    HW247199   3.746   3.687   8.760
81809SOL     OW47200   7.883  11.034   0.429
81809SOL    HW147201   7.937  11.011   0.504
81809SOL    HW247202   7.929  11.108   0.389
81810SOL     OW47203  14.613   9.352  11.055
81810SOL    HW147204  14.656   9.334  11.139
81810SOL    HW247205  14.684   9.358  10.992
81811SOL     OW47206   9.919   6.812   1.823
81811SOL    HW147207   9.963   6.866   1.758
81811SOL    HW247208   9.984   6.746   1.849
81812SOL     OW47209   9.586   2.673   4.545
81812SOL    HW147210   9.506   2.679   4.492
81812SOL    HW247211   9.632   2.755   4.528
81813SOL     OW47212   1.512   5.859   6.771
81813SOL    HW147213   1.476   5.863   6.859
81813SOL    HW247214   1.605   5.842   6.783
81814SOL     OW47215   6.447   5.040  14.109
81814SOL    HW147216   6.482   4.974  14.049
81814SOL    HW247217   6.502   5.031  14.188
81815SOL     OW47218   7.888   5.017   1.274
81815SOL    HW147219   7.887   5.062   1.189
81815SOL    HW247220   7.870   5.086   1.338
81816SOL     OW47221   1.183  10.976  10.753
81816SOL    HW147222   1.088  10.969  10.748
81816SOL    HW247223   1.211  10.891  10.789
81817SOL     OW47224   5.544   7.647   9.106
81817SOL    HW147225   5.584   7.622   9.189
81817SOL    HW247226   5.561   7.741   9.098
81818SOL     OW47227   3.393  10.210   6.509
81818SOL    HW147228   3.450  10.269   6.459
81818SOL    HW247229   3.347  10.268   6.570
81819SOL     OW47230   9.946  10.495   1.109
81819SOL    HW147231  10.006  10.447   1.052
81819SOL    HW247232   9.859  10.475   1.074
81820SOL     OW47233  13.418  14.451   3.055
81820SOL    HW147234  13.391  14.380   2.997
81820SOL    HW247235  13.457  14.408   3.130
81821SOL     OW47236   9.537   0.956  14.224
81821SOL    HW147237   9.622   0.921  14.195
81821SOL    HW247238   9.493   0.881  14.264
81822SOL     OW47239   2.745   7.733   0.456
81822SOL    HW147240   2.659   7.695   0.436
81822SOL    HW247241   2.797   7.717   0.377
81823SOL     OW47242   5.606   4.453   4.375
81823SOL    HW147243   5.589   4.373   4.425
81823SOL    HW247244   5.698   4.473   4.391
81824SOL     OW47245  13.482  11.445   3.157
81824SOL    HW147246  13.570  11.463   3.189
81824SOL    HW247247  13.492  11.433   3.062
81825SOL     OW47248   7.899  11.095   6.007
81825SOL    HW147249   7.822  11.040   5.990
81825SOL    HW247250   7.888  11.123   6.098
81826SOL     OW47251  13.198   2.251   9.046
81826SOL    HW147252  13.126   2.308   9.073
81826SOL    HW247253  13.237   2.220   9.129
81827SOL     OW47254  12.258   5.101  14.512
81827SOL    HW147255  12.336   5.120  14.459
81827SOL    HW247256  12.186   5.099  14.449
81828SOL     OW47257   2.388  11.480   5.095
81828SOL    HW147258   2.334  11.445   5.024
81828SOL    HW247259   2.455  11.413   5.109
81829SOL     OW47260   0.188   9.977   0.907
81829SOL    HW147261   0.163   9.939   0.822
81829SOL    HW247262   0.158   9.913   0.971
81830SOL     OW47263   7.191   5.950  13.565
81830SOL    HW147264   7.264   5.906  13.521
81830SOL    HW247265   7.125   5.962  13.497
81831SOL     OW47266   0.512   1.734  13.058
81831SOL    HW147267   0.560   1.664  13.104
81831SOL    HW247268   0.555   1.741  12.973
81832SOL     OW47269  14.776   9.551   0.275
81832SOL    HW147270  14.810   9.627   0.227
81832SOL    HW247271  14.848   9.489   0.275
81833SOL     OW47272   9.900   1.453   2.005
81833SOL    HW147273   9.811   1.484   1.990
81833SOL    HW247274   9.903   1.432   2.099
81834SOL     OW47275   3.360   1.242  13.411
81834SOL    HW147276   3.419   1.170  13.432
81834SOL    HW247277   3.408   1.293  13.346
81835SOL     OW47278   8.915   2.998   8.868
81835SOL    HW147279   8.889   2.932   8.803
81835SOL    HW247280   9.003   2.973   8.894
81836SOL     OW47281   6.535  10.939   3.965
81836SOL    HW147282   6.491  10.925   3.881
81836SOL    HW247283   6.469  10.977   4.022
81837SOL     OW47284   3.206   1.086   3.806
81837SOL    HW147285   3.135   1.022   3.805
81837SOL    HW247286   3.278   1.042   3.760
81838SOL     OW47287   0.934   1.412   4.797
81838SOL    HW147288   1.019   1.374   4.821
81838SOL    HW247289   0.932   1.496   4.843
81839SOL     OW47290   0.949  13.409   7.633
81839SOL    HW147291   0.957  13.499   7.601
81839SOL    HW247292   0.926  13.418   7.725
81840SOL     OW47293   7.803   4.721   0.651
81840SOL    HW147294   7.793   4.816   0.651
81840SOL    HW247295   7.765   4.692   0.569
81841SOL     OW47296   5.291  10.509   4.575
81841SOL    HW147297   5.352  10.491   4.646
81841SOL    HW247298   5.219  10.557   4.616
81842SOL     OW47299  13.541   4.478   2.068
81842SOL    HW147300  13.602   4.496   2.140
81842SOL    HW247301  13.526   4.384   2.071
81843SOL     OW47302   9.695   2.305   9.185
81843SOL    HW147303   9.762   2.371   9.168
81843SOL    HW247304   9.631   2.317   9.114
81844SOL     OW47305  14.325  11.791  11.502
81844SOL    HW147306  14.415  11.800  11.533
81844SOL    HW247307  14.329  11.722  11.437
81845SOL     OW47308   1.989   2.422   5.840
81845SOL    HW147309   1.991   2.514   5.869
81845SOL    HW247310   2.070   2.385   5.874
81846SOL     OW47311   0.395   5.749  14.342
81846SOL    HW147312   0.448   5.674  14.370
81846SOL    HW247313   0.337   5.767  14.416
81847SOL     OW47314   0.348  10.565   0.454
81847SOL    HW147315   0.426  10.621   0.458
81847SOL    HW247316   0.293  10.596   0.526
81848SOL     OW47317   7.510  14.425   2.815
81848SOL    HW147318   7.526  14.421   2.910
81848SOL    HW247319   7.421  14.390   2.804
81849SOL     OW47320  13.557  10.608  10.933
81849SOL    HW147321  13.548  10.562  11.016
81849SOL    HW247322  13.471  10.601  10.892
81850SOL     OW47323  11.467   7.635   4.372
81850SOL    HW147324  11.501   7.581   4.300
81850SOL    HW247325  11.464   7.576   4.447
81851SOL     OW47326   0.743   0.911  10.123
81851SOL    HW147327   0.648   0.901  10.115
81851SOL    HW247328   0.756   1.005  10.139
81852SOL     OW47329  10.632   2.676   5.692
81852SOL    HW147330  10.588   2.753   5.729
81852SOL    HW247331  10.720   2.679   5.729
81853SOL     OW47332   4.063   5.035   2.192
81853SOL    HW147333   4.032   4.973   2.127
81853SOL    HW247334   4.001   5.027   2.265
81854SOL     OW47335   5.921   1.758   9.390
81854SOL    HW147336   5.937   1.777   9.298
81854SOL    HW247337   5.874   1.674   9.388
81855SOL     OW47338  11.394  13.785   7.802
81855SOL    HW147339  11.446  13.853   7.760
81855SOL    HW247340  11.306  13.822   7.808
81856SOL     OW47341   6.217   1.439  14.441
81856SOL    HW147342   6.261   1.494  14.376
81856SOL    HW247343   6.275   1.364  14.452
81857SOL     OW47344   9.449  12.872   5.209
81857SOL    HW147345   9.510  12.898   5.278
81857SOL    HW247346   9.449  12.776   5.213
81858SOL     OW47347  12.422   3.094  11.064
81858SOL    HW147348  12.423   2.999  11.055
81858SOL    HW247349  12.469   3.111  11.146
81859SOL     OW47350   0.392   8.161   6.806
81859SOL    HW147351   0.387   8.204   6.720
81859SOL    HW247352   0.387   8.067   6.786
81860SOL     OW47353   9.035  11.515  13.673
81860SOL    HW147354   9.089  11.589  13.699
81860SOL    HW247355   8.995  11.541  13.590
81861SOL     OW47356   6.771   1.907   3.992
81861SOL    HW147357   6.862   1.896   4.018
81861SOL    HW247358   6.733   1.962   4.061
81862SOL     OW47359   8.301  11.363   6.206
81862SOL    HW147360   8.378  11.318   6.172
81862SOL    HW247361   8.230  11.338   6.147
81863SOL     OW47362   6.161   5.435  11.081
81863SOL    HW147363   6.216   5.512  11.065
81863SOL    HW247364   6.148   5.434  11.176
81864SOL     OW47365  10.162  14.134  10.537
81864SOL    HW147366  10.088  14.150  10.479
81864SOL    HW247367  10.212  14.215  10.535
81865SOL     OW47368   2.347  14.236  13.413
81865SOL    HW147369   2.411  14.289  13.460
81865SOL    HW247370   2.298  14.191  13.482
81866SOL     OW47371   8.609  11.773   9.627
81866SOL    HW147372   8.585  11.716   9.554
81866SOL    HW247373   8.541  11.758   9.693
81867SOL     OW47374   5.857   8.698   5.852
81867SOL    HW147375   5.842   8.653   5.768
81867SOL    HW247376   5.772   8.734   5.875
81868SOL     OW47377  14.498   1.414   0.553
81868SOL    HW147378  14.409   1.425   0.589
81868SOL    HW247379  14.502   1.322   0.528
81869SOL     OW47380   8.905   3.979   9.934
81869SOL    HW147381   8.853   4.021  10.002
81869SOL    HW247382   8.912   4.046   9.865
81870SOL     OW47383  14.827   3.172   7.984
81870SOL    HW147384   0.016   3.228   8.015
81870SOL    HW247385  14.759   3.233   7.955
81871SOL     OW47386   0.080  11.451   7.203
81871SOL    HW147387   0.052  11.395   7.276
81871SOL    HW247388   0.175  11.451   7.209
81872SOL     OW47389  10.416   7.276  12.117
81872SOL    HW147390  10.473   7.323  12.056
81872SOL    HW247391  10.474   7.247  12.187
81873SOL     OW47392  14.626   2.552   6.005
81873SOL    HW147393  14.676   2.512   5.934
81873SOL    HW247394  14.602   2.478   6.061
81874SOL     OW47395   4.903   9.995   9.267
81874SOL    HW147396   4.951   9.970   9.188
81874SOL    HW247397   4.971  10.028   9.326
81875SOL     OW47398   9.559   9.928  11.120
81875SOL    HW147399   9.548   9.857  11.184
81875SOL    HW247400   9.615   9.991  11.163
81876SOL     OW47401   8.779  10.178   7.287
81876SOL    HW147402   8.737  10.094   7.308
81876SOL    HW247403   8.848  10.155   7.225
81877SOL     OW47404   6.153  10.455  13.214
81877SOL    HW147405   6.132  10.364  13.191
81877SOL    HW247406   6.079  10.484  13.267
81878SOL     OW47407   5.652   5.372   0.174
81878SOL    HW147408   5.719   5.436   0.197
81878SOL    HW247409   5.593   5.371   0.250
81879SOL     OW47410   6.483   9.553   9.658
81879SOL    HW147411   6.390   9.532   9.667
81879SOL    HW247412   6.491   9.591   9.571
81880SOL     OW47413  12.985  11.653  14.814
81880SOL    HW147414  13.051  11.639   0.001
81880SOL    HW247415  12.911  11.599  14.842
81881SOL     OW47416   5.552  13.667   2.992
81881SOL    HW147417   5.596  13.582   3.001
81881SOL    HW247418   5.621  13.727   2.964
81882SOL     OW47419  13.740   9.400  13.659
81882SOL    HW147420  13.723   9.490  13.630
81882SOL    HW247421  13.719   9.346  13.583
81883SOL     OW47422  13.240   3.580  13.823
81883SOL    HW147423  13.160   3.530  13.835
81883SOL    HW247424  13.225   3.632  13.744
81884SOL     OW47425   5.165  13.966   3.724
81884SOL    HW147426   5.256  13.995   3.720
81884SOL    HW247427   5.125  14.002   3.645
81885SOL     OW47428   7.825  14.307   4.537
81885SOL    HW147429   7.900  14.356   4.505
81885SOL    HW247430   7.857  14.263   4.617
81886SOL     OW47431   9.846   3.815   4.755
81886SOL    HW147432   9.857   3.910   4.757
81886SOL    HW247433   9.784   3.796   4.825
81887SOL     OW47434  11.912   1.138   7.049
81887SOL    HW147435  11.905   1.052   7.091
81887SOL    HW247436  11.827   1.151   7.007
81888SOL     OW47437   2.860   0.537   5.526
81888SOL    HW147438   2.850   0.524   5.432
81888SOL    HW247439   2.859   0.449   5.563
81889SOL     OW47440  10.277  11.574   3.620
81889SOL    HW147441  10.292  11.510   3.551
81889SOL    HW247442  10.184  11.566   3.642
81890SOL     OW47443   7.806   5.192   3.229
81890SOL    HW147444   7.810   5.126   3.160
81890SOL    HW247445   7.738   5.161   3.288
81891SOL     OW47446   8.151   3.003   4.576
81891SOL    HW147447   8.198   3.060   4.515
81891SOL    HW247448   8.105   2.941   4.519
81892SOL     OW47449  14.762   3.041  10.230
81892SOL    HW147450  14.747   3.040  10.136
81892SOL    HW247451  14.729   3.126  10.259
81893SOL     OW47452   8.305  13.843  11.089
81893SOL    HW147453   8.282  13.754  11.062
81893SOL    HW247454   8.273  13.850  11.178
81894SOL     OW47455  10.550   4.355  11.627
81894SOL    HW147456  10.539   4.260  11.625
81894SOL    HW247457  10.584   4.377  11.540
81895SOL     OW47458   1.192  14.379   0.606
81895SOL    HW147459   1.262  14.444   0.598
81895SOL    HW247460   1.223  14.319   0.674
81896SOL     OW47461   2.150  14.582  13.801
81896SOL    HW147462   2.090  14.614  13.734
81896SOL    HW247463   2.237  14.608  13.770
81897SOL     OW47464  10.480   9.273  13.396
81897SOL    HW147465  10.546   9.270  13.464
81897SOL    HW247466  10.433   9.190  13.405
81898SOL     OW47467  13.174  12.442   2.804
81898SOL    HW147468  13.254  12.493   2.813
81898SOL    HW247469  13.193  12.359   2.848
81899SOL     OW47470   5.912  12.149   3.895
81899SOL    HW147471   5.965  12.070   3.892
81899SOL    HW247472   5.832  12.126   3.848
81900SOL     OW47473  11.546   1.880   4.104
81900SOL    HW147474  11.593   1.902   4.024
81900SOL    HW247475  11.613   1.848   4.164
81901SOL     OW47476  14.626  11.102  14.675
81901SOL    HW147477  14.563  11.036  14.649
81901SOL    HW247478  14.680  11.060  14.742
81902SOL     OW47479   0.155   5.468   9.933
81902SOL    HW147480   0.197   5.419  10.004
81902SOL    HW247481   0.133   5.552   9.972
81903SOL     OW47482   7.895  13.496   1.688
81903SOL    HW147483   7.909  13.402   1.702
81903SOL    HW247484   7.983  13.531   1.674
81904SOL     OW47485  10.996  13.171  14.748
81904SOL    HW147486  11.080  13.215  14.760
81904SOL    HW247487  10.990  13.155  14.654
81905SOL     OW47488   7.839   9.410  11.839
81905SOL    HW147489   7.865   9.347  11.771
81905SOL    HW247490   7.871   9.372  11.921
81906SOL     OW47491   7.989  10.363   2.703
81906SOL    HW147492   7.907  10.407   2.729
81906SOL    HW247493   8.053  10.392   2.768
81907SOL     OW47494  12.131  12.144   0.891
81907SOL    HW147495  12.094  12.130   0.978
81907SOL    HW247496  12.091  12.225   0.861
81908SOL     OW47497   3.115   8.201   1.223
81908SOL    HW147498   3.152   8.262   1.159
81908SOL    HW247499   3.135   8.240   1.308
81909SOL     OW47500   2.252  11.741  12.470
81909SOL    HW147501   2.213  11.821  12.506
81909SOL    HW247502   2.232  11.674  12.535
81910SOL     OW47503   5.498   4.802   0.887
81910SOL    HW147504   5.492   4.889   0.927
81910SOL    HW247505   5.561   4.813   0.817
81911SOL     OW47506   8.274   1.162   7.274
81911SOL    HW147507   8.338   1.101   7.236
81911SOL    HW247508   8.303   1.248   7.245
81912SOL     OW47509   7.532  13.871   3.845
81912SOL    HW147510   7.614  13.863   3.893
81912SOL    HW247511   7.510  13.964   3.850
81913SOL     OW47512   8.084   3.041  12.469
81913SOL    HW147513   8.083   2.976  12.538
81913SOL    HW247514   8.145   3.108  12.499
81914SOL     OW47515   3.876   4.528   3.703
81914SOL    HW147516   3.928   4.530   3.783
81914SOL    HW247517   3.869   4.619   3.676
81915SOL     OW47518  11.683   8.078   5.981
81915SOL    HW147519  11.674   7.987   6.010
81915SOL    HW247520  11.723   8.123   6.056
81916SOL     OW47521   3.532   9.981  13.282
81916SOL    HW147522   3.484  10.027  13.351
81916SOL    HW247523   3.475   9.985  13.206
81917SOL     OW47524   0.030   5.088   9.294
81917SOL    HW147525  14.869   5.117   9.374
81917SOL    HW247526  14.845   5.036   9.249
81918SOL     OW47527  11.209   0.711   6.188
81918SOL    HW147528  11.247   0.652   6.123
81918SOL    HW247529  11.126   0.670   6.211
81919SOL     OW47530  13.031   1.718  14.794
81919SOL    HW147531  13.000   1.641  14.746
81919SOL    HW247532  13.102   1.752  14.740
81920SOL     OW47533  14.380   2.393  14.239
81920SOL    HW147534  14.320   2.368  14.169
81920SOL    HW247535  14.373   2.488  14.244
81921SOL     OW47536   2.885   4.579   4.797
81921SOL    HW147537   2.961   4.579   4.855
81921SOL    HW247538   2.882   4.491   4.760
81922SOL     OW47539   8.852   2.992   9.886
81922SOL    HW147540   8.926   2.932   9.898
81922SOL    HW247541   8.862   3.057   9.956
81923SOL     OW47542   7.642   1.521   7.598
81923SOL    HW147543   7.708   1.451   7.596
81923SOL    HW247544   7.639   1.548   7.690
81924SOL     OW47545   1.649  10.130   8.045
81924SOL    HW147546   1.666  10.200   8.108
81924SOL    HW247547   1.719  10.137   7.981
81925SOL     OW47548   3.079  10.550   3.670
81925SOL    HW147549   3.137  10.596   3.731
81925SOL    HW247550   3.004  10.609   3.659
81926SOL     OW47551   0.569   8.660   0.973
81926SOL    HW147552   0.550   8.653   0.880
81926SOL    HW247553   0.487   8.690   1.012
81927SOL     OW47554  12.226   6.637   7.427
81927SOL    HW147555  12.198   6.624   7.518
81927SOL    HW247556  12.319   6.657   7.433
81928SOL     OW47557   4.371  11.569  14.167
81928SOL    HW147558   4.277  11.578  14.152
81928SOL    HW247559   4.412  11.620  14.097
81929SOL     OW47560   4.136  11.809   2.461
81929SOL    HW147561   4.112  11.764   2.541
81929SOL    HW247562   4.122  11.902   2.480
81930SOL     OW47563   8.165   3.990   4.531
81930SOL    HW147564   8.124   3.920   4.582
81930SOL    HW247565   8.259   3.972   4.537
81931SOL     OW47566  11.920  10.553   2.048
81931SOL    HW147567  11.923  10.558   1.952
81931SOL    HW247568  11.901  10.461   2.067
81932SOL     OW47569   7.404  14.565  10.847
81932SOL    HW147570   7.372  14.575  10.757
81932SOL    HW247571   7.336  14.604  10.901
81933SOL     OW47572  10.205   6.667   7.564
81933SOL    HW147573  10.210   6.624   7.649
81933SOL    HW247574  10.119   6.643   7.530
81934SOL     OW47575   9.293   1.130   1.623
81934SOL    HW147576   9.261   1.117   1.534
81934SOL    HW247577   9.330   1.045   1.648
81935SOL     OW47578   5.388   6.832  13.212
81935SOL    HW147579   5.424   6.802  13.129
81935SOL    HW247580   5.308   6.879  13.188
81936SOL     OW47581   7.101  10.943   2.017
81936SOL    HW147582   7.073  11.017   1.964
81936SOL    HW247583   7.136  10.880   1.954
81937SOL     OW47584   9.800  12.298  11.988
81937SOL    HW147585   9.737  12.240  12.030
81937SOL    HW247586   9.778  12.294  11.895
81938SOL     OW47587  11.525   2.879   4.596
81938SOL    HW147588  11.581   2.802   4.606
81938SOL    HW247589  11.585   2.953   4.593
81939SOL     OW47590   4.518  10.907   2.262
81939SOL    HW147591   4.585  10.859   2.212
81939SOL    HW247592   4.438  10.854   2.251
81940SOL     OW47593   2.382   0.322   0.525
81940SOL    HW147594   2.460   0.352   0.478
81940SOL    HW247595   2.409   0.241   0.567
81941SOL     OW47596   7.955  10.114  10.720
81941SOL    HW147597   7.997  10.029  10.708
81941SOL    HW247598   7.938  10.120  10.814
81942SOL     OW47599   1.885  12.331  11.450
81942SOL    HW147600   1.889  12.270  11.523
81942SOL    HW247601   1.802  12.377  11.461
81943SOL     OW47602  13.272   8.576  13.295
81943SOL    HW147603  13.326   8.585  13.373
81943SOL    HW247604  13.321   8.622  13.226
81944SOL     OW47605  12.325   5.692   8.676
81944SOL    HW147606  12.247   5.745   8.663
81944SOL    HW247607  12.395   5.741   8.632
81945SOL     OW47608  14.364  13.170   4.959
81945SOL    HW147609  14.373  13.225   4.880
81945SOL    HW247610  14.297  13.106   4.935
81946SOL     OW47611   5.111   3.611   7.947
81946SOL    HW147612   5.096   3.519   7.926
81946SOL    HW247613   5.042   3.634   8.008
81947SOL     OW47614   0.603   4.500   2.884
81947SOL    HW147615   0.546   4.572   2.909
81947SOL    HW247616   0.581   4.481   2.793
81948SOL     OW47617   2.143  13.919   0.161
81948SOL    HW147618   2.056  13.949   0.188
81948SOL    HW247619   2.195  13.999   0.157
81949SOL     OW47620   7.115   6.745  11.184
81949SOL    HW147621   7.049   6.813  11.195
81949SOL    HW247622   7.073   6.680  11.128
81950SOL     OW47623   0.406   1.727  12.572
81950SOL    HW147624   0.493   1.688  12.578
81950SOL    HW247625   0.417   1.817  12.603
81951SOL     OW47626  13.295  13.743   1.907
81951SOL    HW147627  13.308  13.837   1.922
81951SOL    HW247628  13.200  13.732   1.908
81952SOL     OW47629  14.718  12.500   2.725
81952SOL    HW147630  14.709  12.558   2.800
81952SOL    HW247631  14.797  12.531   2.680
81953SOL     OW47632  12.176  12.372   9.123
81953SOL    HW147633  12.111  12.306   9.148
81953SOL    HW247634  12.160  12.446   9.182
81954SOL     OW47635  13.745  14.820   7.278
81954SOL    HW147636  13.801   0.003   7.237
81954SOL    HW247637  13.691  14.785   7.207
81955SOL     OW47638   8.316   2.039   9.359
81955SOL    HW147639   8.317   2.026   9.454
81955SOL    HW247640   8.404   2.017   9.331
81956SOL     OW47641   9.028   6.511   7.690
81956SOL    HW147642   9.030   6.528   7.784
81956SOL    HW247643   8.992   6.423   7.682
81957SOL     OW47644   1.292  11.629   0.781
81957SOL    HW147645   1.293  11.708   0.833
81957SOL    HW247646   1.348  11.568   0.828
81958SOL     OW47647   9.062  10.407  11.312
81958SOL    HW147648   8.995  10.350  11.352
81958SOL    HW247649   9.125  10.346  11.274
81959SOL     OW47650   2.496  14.835   0.183
81959SOL    HW147651   2.547   0.034   0.182
81959SOL    HW247652   2.555  14.770   0.221
81960SOL     OW47653   1.639   5.086   2.454
81960SOL    HW147654   1.674   5.145   2.388
81960SOL    HW247655   1.715   5.049   2.498
81961SOL     OW47656   4.357   7.974   1.602
81961SOL    HW147657   4.397   7.992   1.687
81961SOL    HW247658   4.421   8.006   1.538
81962SOL     OW47659  13.010   3.951   6.398
81962SOL    HW147660  12.921   3.967   6.367
81962SOL    HW247661  13.062   3.942   6.319
81963SOL     OW47662   5.324   9.050   6.580
81963SOL    HW147663   5.373   8.968   6.588
81963SOL    HW247664   5.233   9.022   6.570
81964SOL     OW47665   0.786  11.673  11.458
81964SOL    HW147666   0.785  11.763  11.490
81964SOL    HW247667   0.866  11.634  11.494
81965SOL     OW47668  12.673  10.627   3.631
81965SOL    HW147669  12.751  10.571   3.635
81965SOL    HW247670  12.619  10.586   3.563
81966SOL     OW47671  11.561  14.028   2.669
81966SOL    HW147672  11.642  14.008   2.716
81966SOL    HW247673  11.512  14.084   2.728
81967SOL     OW47674  12.863  14.244  11.886
81967SOL    HW147675  12.913  14.319  11.918
81967SOL    HW247676  12.844  14.193  11.964
81968SOL     OW47677  11.954   3.058   7.845
81968SOL    HW147678  11.949   3.074   7.751
81968SOL    HW247679  12.034   3.102   7.873
81969SOL     OW47680   0.687  13.488   2.710
81969SOL    HW147681   0.602  13.486   2.666
81969SOL    HW247682   0.736  13.416   2.670
81970SOL     OW47683   4.961   9.730   6.841
81970SOL    HW147684   4.893   9.664   6.826
81970SOL    HW247685   4.976   9.727   6.936
81971SOL     OW47686   1.956   8.596  13.173
81971SOL    HW147687   1.942   8.549  13.091
81971SOL    HW247688   2.051   8.603  13.180
81972SOL     OW47689   6.388   8.485   2.872
81972SOL    HW147690   6.409   8.434   2.950
81972SOL    HW247691   6.468   8.482   2.819
81973SOL     OW47692   3.841   2.675   8.533
81973SOL    HW147693   3.765   2.734   8.539
81973SOL    HW247694   3.879   2.678   8.621
81974SOL     OW47695  11.618   9.168  11.119
81974SOL    HW147696  11.677   9.222  11.171
81974SOL    HW247697  11.675   9.126  11.054
81975SOL     OW47698  13.685   6.471   2.320
81975SOL    HW147699  13.612   6.419   2.287
81975SOL    HW247700  13.649   6.521   2.393
81976SOL     OW47701  11.225  12.853   4.880
81976SOL    HW147702  11.306  12.803   4.877
81976SOL    HW247703  11.161  12.798   4.835
81977SOL     OW47704   2.982  13.561   4.776
81977SOL    HW147705   3.049  13.525   4.718
81977SOL    HW247706   2.934  13.623   4.721
81978SOL     OW47707   4.767  11.674  14.814
81978SOL    HW147708   4.746  11.727   0.010
81978SOL    HW247709   4.855  11.703  14.788
81979SOL     OW47710   4.887  11.125  14.161
81979SOL    HW147711   4.883  11.030  14.173
81979SOL    HW247712   4.796  11.153  14.157
81980SOL     OW47713   6.115  14.598   2.990
81980SOL    HW147714   6.139  14.685   3.023
81980SOL    HW247715   6.020  14.594   3.000
81981SOL     OW47716   9.953   9.851   9.255
81981SOL    HW147717   9.964   9.793   9.331
81981SOL    HW247718   9.898   9.922   9.288
81982SOL     OW47719   3.611  10.613   3.073
81982SOL    HW147720   3.518  10.631   3.057
81982SOL    HW247721   3.613  10.521   3.099
81983SOL     OW47722   8.569  13.888   0.547
81983SOL    HW147723   8.474  13.898   0.543
81983SOL    HW247724   8.586  13.835   0.624
81984SOL     OW47725   0.739   0.244   7.636
81984SOL    HW147726   0.758   0.279   7.548
81984SOL    HW247727   0.825   0.232   7.676
81985SOL     OW47728   9.348   7.434   4.674
81985SOL    HW147729   9.370   7.342   4.664
81985SOL    HW247730   9.254   7.435   4.694
81986SOL     OW47731   4.155   5.767  10.217
81986SOL    HW147732   4.228   5.829  10.216
81986SOL    HW247733   4.077   5.822  10.212
81987SOL     OW47734   3.021  10.592   4.056
81987SOL    HW147735   2.951  10.571   3.993
81987SOL    HW247736   3.026  10.514   4.112
81988SOL     OW47737   0.847  10.363   3.542
81988SOL    HW147738   0.869  10.293   3.481
81988SOL    HW247739   0.931  10.395   3.574
81989SOL     OW47740   9.994  14.828  11.896
81989SOL    HW147741  10.061  14.789  11.952
81989SOL    HW247742   9.925  14.761  11.891
81990SOL     OW47743  10.516   6.521   7.662
81990SOL    HW147744  10.605   6.496   7.684
81990SOL    HW247745  10.513   6.616   7.676
81991SOL     OW47746   9.892   8.468   6.241
81991SOL    HW147747   9.900   8.508   6.155
81991SOL    HW247748   9.797   8.460   6.255
81992SOL     OW47749   5.291   4.666   4.662
81992SOL    HW147750   5.317   4.635   4.575
81992SOL    HW247751   5.219   4.609   4.687
81993SOL     OW47752   7.432   5.160   7.185
81993SOL    HW147753   7.522   5.167   7.151
81993SOL    HW247754   7.443   5.137   7.277
81994SOL     OW47755   1.316   3.258   6.168
81994SOL    HW147756   1.383   3.307   6.215
81994SOL    HW247757   1.364   3.188   6.123
81995SOL     OW47758   8.424   6.893  13.422
81995SOL    HW147759   8.355   6.829  13.439
81995SOL    HW247760   8.464   6.909  13.507
81996SOL     OW47761   9.384   3.204  14.071
81996SOL    HW147762   9.341   3.282  14.105
81996SOL    HW247763   9.477   3.225  14.072
81997SOL     OW47764   3.168  12.839  13.582
81997SOL    HW147765   3.160  12.747  13.610
81997SOL    HW247766   3.081  12.876  13.598
81998SOL     OW47767   6.656   3.292  13.421
81998SOL    HW147768   6.691   3.338  13.497
81998SOL    HW247769   6.565   3.321  13.415
81999SOL     OW47770   4.220   9.588   6.026
81999SOL    HW147771   4.298   9.551   6.068
81999SOL    HW247772   4.232   9.682   6.030
82000SOL     OW47773  12.458   0.342   8.170
82000SOL    HW147774  12.528   0.337   8.235
82000SOL    HW247775  12.391   0.397   8.211
82001SOL     OW47776   2.127   0.971   0.806
82001SOL    HW147777   2.192   0.977   0.876
82001SOL    HW247778   2.137   1.052   0.757
82002SOL     OW47779   6.491   4.660   9.847
82002SOL    HW147780   6.485   4.597   9.920
82002SOL    HW247781   6.582   4.688   9.847
82003SOL     OW47782   0.803   6.794   1.195
82003SOL    HW147783   0.890   6.834   1.194
82003SOL    HW247784   0.806   6.731   1.267
82004SOL     OW47785   8.791  10.380   0.427
82004SOL    HW147786   8.722  10.349   0.486
82004SOL    HW247787   8.760  10.357   0.340
82005SOL     OW47788   4.817  13.651   2.632
82005SOL    HW147789   4.801  13.560   2.656
82005SOL    HW247790   4.743  13.699   2.670
82006SOL     OW47791   5.178  11.627   5.198
82006SOL    HW147792   5.234  11.695   5.234
82006SOL    HW247793   5.224  11.545   5.218
82007SOL     OW47794   2.490   1.189   3.525
82007SOL    HW147795   2.440   1.167   3.447
82007SOL    HW247796   2.459   1.276   3.551
82008SOL     OW47797   5.632   5.807   1.462
82008SOL    HW147798   5.652   5.733   1.405
82008SOL    HW247799   5.553   5.782   1.508
82009SOL     OW47800  14.655   8.526   9.569
82009SOL    HW147801  14.645   8.587   9.642
82009SOL    HW247802  14.681   8.581   9.495
82010SOL     OW47803   6.535   4.562   9.346
82010SOL    HW147804   6.461   4.575   9.406
82010SOL    HW247805   6.612   4.575   9.400
82011SOL     OW47806   2.386  11.818   6.784
82011SOL    HW147807   2.436  11.740   6.760
82011SOL    HW247808   2.299  11.785   6.807
82012SOL     OW47809  12.354   1.877  14.230
82012SOL    HW147810  12.416   1.884  14.157
82012SOL    HW247811  12.308   1.961  14.231
82013SOL     OW47812  14.084  11.630   6.745
82013SOL    HW147813  14.123  11.543   6.750
82013SOL    HW247814  13.995  11.616   6.712
82014SOL     OW47815   1.396  12.228   5.546
82014SOL    HW147816   1.475  12.237   5.494
82014SOL    HW247817   1.375  12.134   5.542
82015SOL     OW47818   7.341   6.675   0.883
82015SOL    HW147819   7.265   6.729   0.906
82015SOL    HW247820   7.308   6.615   0.816
82016SOL     OW47821  10.282  14.764   6.610
82016SOL    HW147822  10.249  14.740   6.696
82016SOL    HW247823  10.291  14.680   6.564
82017SOL     OW47824   4.352  14.595  14.830
82017SOL    HW147825   4.257  14.601  14.821
82017SOL    HW247826   4.385  14.607  14.741
82018SOL     OW47827  12.318   8.778   3.659
82018SOL    HW147828  12.351   8.795   3.747
82018SOL    HW247829  12.231   8.740   3.674
82019SOL     OW47830   6.066   6.966  14.270
82019SOL    HW147831   6.079   6.977  14.364
82019SOL    HW247832   6.030   7.050  14.241
82020SOL     OW47833  10.194   7.691   1.882
82020SOL    HW147834  10.178   7.784   1.898
82020SOL    HW247835  10.254   7.664   1.951
82021SOL     OW47836   9.412  11.961   1.550
82021SOL    HW147837   9.423  11.867   1.536
82021SOL    HW247838   9.500  11.997   1.541
82022SOL     OW47839   2.185   8.430  10.502
82022SOL    HW147840   2.143   8.412  10.418
82022SOL    HW247841   2.158   8.519  10.524
82023SOL     OW47842  13.594   4.513   6.981
82023SOL    HW147843  13.674   4.544   7.024
82023SOL    HW247844  13.525   4.570   7.013
82024SOL     OW47845   5.880  11.749  11.951
82024SOL    HW147846   5.856  11.704  11.870
82024SOL    HW247847   5.920  11.680  12.005
82025SOL     OW47848   0.814  14.222   3.597
82025SOL    HW147849   0.733  14.183   3.630
82025SOL    HW247850   0.790  14.313   3.576
82026SOL     OW47851   0.049  11.297  14.359
82026SOL    HW147852   0.003  11.214  14.364
82026SOL    HW247853   0.136  11.280  14.395
82027SOL     OW47854   5.656  11.891   8.388
82027SOL    HW147855   5.700  11.908   8.471
82027SOL    HW247856   5.724  11.857   8.331
82028SOL     OW47857  11.892  13.807   9.693
82028SOL    HW147858  11.828  13.863   9.737
82028SOL    HW247859  11.908  13.850   9.609
82029SOL     OW47860   1.617   7.464   5.304
82029SOL    HW147861   1.595   7.375   5.276
82029SOL    HW247862   1.548   7.487   5.366
82030SOL     OW47863  12.696  14.007   1.801
82030SOL    HW147864  12.678  14.101   1.810
82030SOL    HW247865  12.765  13.990   1.866
82031SOL     OW47866   6.833   1.235   2.200
82031SOL    HW147867   6.800   1.322   2.222
82031SOL    HW247868   6.928   1.248   2.191
82032SOL     OW47869  11.381   8.004  13.583
82032SOL    HW147870  11.364   7.947  13.508
82032SOL    HW247871  11.351   8.090  13.555
82033SOL     OW47872  13.722  12.820   4.657
82033SOL    HW147873  13.752  12.911   4.657
82033SOL    HW247874  13.627  12.826   4.653
82034SOL     OW47875   4.246   9.970   5.495
82034SOL    HW147876   4.271  10.012   5.413
82034SOL    HW247877   4.282  10.027   5.563
82035SOL     OW47878   3.936  10.707   6.857
82035SOL    HW147879   3.953  10.682   6.766
82035SOL    HW247880   3.871  10.644   6.888
82036SOL     OW47881   2.543   0.461   4.017
82036SOL    HW147882   2.470   0.421   3.969
82036SOL    HW247883   2.549   0.410   4.098
82037SOL     OW47884  12.115   4.265   6.846
82037SOL    HW147885  12.064   4.184   6.837
82037SOL    HW247886  12.169   4.268   6.767
82038SOL     OW47887   9.744  11.887   0.736
82038SOL    HW147888   9.766  11.970   0.777
82038SOL    HW247889   9.785  11.821   0.792
82039SOL     OW47890   4.249   3.691   0.306
82039SOL    HW147891   4.275   3.680   0.215
82039SOL    HW247892   4.157   3.717   0.301
82040SOL     OW47893   2.307   9.354  14.290
82040SOL    HW147894   2.396   9.319  14.302
82040SOL    HW247895   2.251   9.277  14.295
82041SOL     OW47896  11.387  12.480  12.554
82041SOL    HW147897  11.327  12.478  12.479
82041SOL    HW247898  11.474  12.469  12.515
82042SOL     OW47899   1.817   1.705  11.524
82042SOL    HW147900   1.853   1.619  11.542
82042SOL    HW247901   1.729   1.688  11.491
82043SOL     OW47902   3.338   0.981   8.998
82043SOL    HW147903   3.330   1.062   9.049
82043SOL    HW247904   3.339   1.009   8.907
82044SOL     OW47905  11.053   7.800   3.920
82044SOL    HW147906  11.125   7.758   3.874
82044SOL    HW247907  10.981   7.801   3.857
82045SOL     OW47908   0.198  12.001   1.337
82045SOL    HW147909   0.256  11.939   1.383
82045SOL    HW247910   0.197  12.079   1.393
82046SOL     OW47911   9.852   0.722   9.287
82046SOL    HW147912   9.808   0.806   9.281
82046SOL    HW247913   9.820   0.683   9.369
82047SOL     OW47914  12.575  12.011   4.798
82047SOL    HW147915  12.483  11.989   4.811
82047SOL    HW247916  12.573  12.096   4.753
82048SOL     OW47917   8.443  14.702   6.384
82048SOL    HW147918   8.535  14.716   6.404
82048SOL    HW247919   8.397  14.732   6.463
82049SOL     OW47920   8.443   1.445  14.213
82049SOL    HW147921   8.474   1.535  14.202
82049SOL    HW247922   8.492   1.395  14.148
82050SOL     OW47923   0.093   9.612  13.209
82050SOL    HW147924   0.021   9.548  13.209
82050SOL    HW247925   0.158   9.575  13.269
82051SOL     OW47926  10.569  13.088  10.780
82051SOL    HW147927  10.572  13.068  10.687
82051SOL    HW247928  10.569  13.003  10.823
82052SOL     OW47929   2.097  13.312  11.385
82052SOL    HW147930   2.067  13.402  11.385
82052SOL    HW247931   2.128  13.297  11.295
82053SOL     OW47932   9.650  12.122  14.466
82053SOL    HW147933   9.735  12.097  14.430
82053SOL    HW247934   9.638  12.212  14.437
82054SOL     OW47935   5.648   5.411  14.653
82054SOL    HW147936   5.593   5.443  14.724
82054SOL    HW247937   5.712   5.480  14.638
82055SOL     OW47938  14.765  12.989   7.000
82055SOL    HW147939  14.733  13.051   6.934
82055SOL    HW247940  14.852  12.964   6.968
82056SOL     OW47941  13.251   9.174   1.268
82056SOL    HW147942  13.165   9.215   1.258
82056SOL    HW247943  13.310   9.246   1.291
82057SOL     OW47944  13.209  14.030   3.159
82057SOL    HW147945  13.124  13.985   3.154
82057SOL    HW247946  13.194  14.114   3.117
82058SOL     OW47947   2.788  12.243  11.184
82058SOL    HW147948   2.836  12.228  11.103
82058SOL    HW247949   2.808  12.166  11.238
82059SOL     OW47950   2.428  13.617  13.738
82059SOL    HW147951   2.442  13.550  13.671
82059SOL    HW247952   2.335  13.610  13.761
82060SOL     OW47953   1.402   1.378  11.748
82060SOL    HW147954   1.372   1.444  11.686
82060SOL    HW247955   1.350   1.300  11.727
82061SOL     OW47956   7.770   3.749  12.845
82061SOL    HW147957   7.789   3.820  12.906
82061SOL    HW247958   7.850   3.740  12.793
82062SOL     OW47959   8.310   2.072   7.086
82062SOL    HW147960   8.239   2.075   7.022
82062SOL    HW247961   8.389   2.086   7.033
82063SOL     OW47962   1.923  10.822   7.213
82063SOL    HW147963   1.856  10.833   7.280
82063SOL    HW247964   1.948  10.729   7.219
82064SOL     OW47965   1.617   3.755   9.886
82064SOL    HW147966   1.549   3.687   9.891
82064SOL    HW247967   1.596   3.803   9.806
82065SOL     OW47968  14.673   7.686   0.859
82065SOL    HW147969  14.591   7.679   0.809
82065SOL    HW247970  14.741   7.680   0.792
82066SOL     OW47971  14.656   3.637   0.161
82066SOL    HW147972  14.565   3.663   0.177
82066SOL    HW247973  14.661   3.623   0.067
82067SOL     OW47974   3.532   1.352   4.174
82067SOL    HW147975   3.526   1.357   4.269
82067SOL    HW247976   3.458   1.298   4.148
82068SOL     OW47977  10.127   0.849   6.316
82068SOL    HW147978  10.174   0.923   6.276
82068SOL    HW247979  10.129   0.781   6.249
82069SOL     OW47980  14.326   2.611   0.300
82069SOL    HW147981  14.417   2.594   0.322
82069SOL    HW247982  14.327   2.630   0.206
82070SOL     OW47983   0.096  11.674  10.315
82070SOL    HW147984   0.104  11.768  10.297
82070SOL    HW247985   0.105  11.667  10.410
82071SOL     OW47986   1.559   5.208   9.854
82071SOL    HW147987   1.514   5.149   9.794
82071SOL    HW247988   1.639   5.162   9.878
82072SOL     OW47989   1.938  14.223   4.318
82072SOL    HW147990   1.842  14.218   4.314
82072SOL    HW247991   1.954  14.303   4.369
82073SOL     OW47992   8.793   3.060  14.029
82073SOL    HW147993   8.882   3.030  14.013
82073SOL    HW247994   8.795   3.154  14.009
82074SOL     OW47995   6.999  10.086  12.814
82074SOL    HW147996   7.047  10.064  12.734
82074SOL    HW247997   6.948  10.164  12.791
82075SOL     OW47998   8.996  13.401   0.707
82075SOL    HW147999   9.069  13.342   0.727
82075SOL    HW248000   8.987  13.397   0.612
82076SOL     OW48001   4.058  12.207  14.684
82076SOL    HW148002   4.144  12.169  14.663
82076SOL    HW248003   4.048  12.191  14.778
82077SOL     OW48004   6.115   6.526   9.832
82077SOL    HW148005   6.155   6.592   9.888
82077SOL    HW248006   6.026   6.557   9.817
82078SOL     OW48007   0.000   8.438   2.881
82078SOL    HW148008   0.092   8.416   2.861
82078SOL    HW248009   0.004   8.480   2.967
82079SOL     OW48010  14.477   9.617  11.926
82079SOL    HW148011  14.483   9.662  12.011
82079SOL    HW248012  14.531   9.670  11.867
82080SOL     OW48013   0.352   5.589   8.280
82080SOL    HW148014   0.368   5.624   8.192
82080SOL    HW248015   0.401   5.507   8.283
82081SOL     OW48016  11.617   2.320  11.558
82081SOL    HW148017  11.712   2.329  11.566
82081SOL    HW248018  11.597   2.362  11.474
82082SOL     OW48019   6.665   8.868   3.809
82082SOL    HW148020   6.586   8.922   3.813
82082SOL    HW248021   6.643   8.790   3.860
82083SOL     OW48022  12.264   4.908  14.218
82083SOL    HW148023  12.300   4.859  14.291
82083SOL    HW248024  12.188   4.856  14.190
82084SOL     OW48025   5.211  10.408   0.398
82084SOL    HW148026   5.190  10.488   0.351
82084SOL    HW248027   5.227  10.343   0.330
82085SOL     OW48028   8.790  11.281   0.869
82085SOL    HW148029   8.794  11.245   0.958
82085SOL    HW248030   8.698  11.306   0.858
82086SOL     OW48031  11.403   3.220  10.731
82086SOL    HW148032  11.362   3.135  10.717
82086SOL    HW248033  11.444   3.241  10.648
82087SOL     OW48034   2.025  11.705   2.140
82087SOL    HW148035   2.017  11.671   2.051
82087SOL    HW248036   2.024  11.627   2.196
82088SOL     OW48037   7.111   4.080  10.369
82088SOL    HW148038   7.059   4.143  10.418
82088SOL    HW248039   7.095   4.101  10.277
82089SOL     OW48040  11.763   3.230   6.212
82089SOL    HW148041  11.703   3.191   6.149
82089SOL    HW248042  11.707   3.272   6.277
82090SOL     OW48043   7.738   2.881   3.588
82090SOL    HW148044   7.763   2.813   3.526
82090SOL    HW248045   7.787   2.958   3.561
82091SOL     OW48046  13.277   8.004   4.165
82091SOL    HW148047  13.196   7.975   4.121
82091SOL    HW248048  13.347   7.967   4.112
82092SOL     OW48049   7.844   8.222   0.281
82092SOL    HW148050   7.817   8.311   0.304
82092SOL    HW248051   7.804   8.167   0.347
82093SOL     OW48052   0.704   9.231   5.027
82093SOL    HW148053   0.644   9.215   4.954
82093SOL    HW248054   0.777   9.280   4.989
82094SOL     OW48055  14.031   4.452   4.221
82094SOL    HW148056  14.056   4.360   4.214
82094SOL    HW248057  13.941   4.450   4.255
82095SOL     OW48058   2.262  11.807  11.073
82095SOL    HW148059   2.286  11.734  11.016
82095SOL    HW248060   2.341  11.860  11.078
82096SOL     OW48061   0.631  10.648   8.790
82096SOL    HW148062   0.723  10.623   8.800
82096SOL    HW248063   0.619  10.657   8.696
82097SOL     OW48064   1.379   8.365   3.536
82097SOL    HW148065   1.330   8.333   3.612
82097SOL    HW248066   1.445   8.424   3.573
82098SOL     OW48067  12.090   8.371  12.013
82098SOL    HW148068  12.114   8.462  12.033
82098SOL    HW248069  12.172   8.323  12.021
82099SOL     OW48070   5.502   1.688   5.345
82099SOL    HW148071   5.495   1.781   5.362
82099SOL    HW248072   5.583   1.679   5.294
82100SOL     OW48073   8.935  14.684   9.070
82100SOL    HW148074   9.023  14.685   9.108
82100SOL    HW248075   8.883  14.737   9.130
82101SOL     OW48076   7.091   5.151  14.328
82101SOL    HW148077   7.164   5.213  14.321
82101SOL    HW248078   7.133   5.065  14.329
82102SOL     OW48079   0.013   2.303   0.254
82102SOL    HW148080   0.051   2.349   0.180
82102SOL    HW248081  14.801   2.302   0.237
82103SOL     OW48082   3.826  12.190  12.609
82103SOL    HW148083   3.761  12.258  12.591
82103SOL    HW248084   3.777  12.108  12.599
82104SOL     OW48085   7.524   4.468   9.152
82104SOL    HW148086   7.612   4.442   9.176
82104SOL    HW248087   7.469   4.443   9.226
82105SOL     OW48088   9.507  14.627   1.496
82105SOL    HW148089   9.505  14.682   1.575
82105SOL    HW248090   9.581  14.568   1.509
82106SOL     OW48091  10.528   7.485   6.886
82106SOL    HW148092  10.620   7.510   6.880
82106SOL    HW248093  10.505   7.459   6.796
82107SOL     OW48094   6.630   2.920   8.890
82107SOL    HW148095   6.624   2.849   8.826
82107SOL    HW248096   6.666   2.994   8.841
82108SOL     OW48097   7.868  13.779   3.472
82108SOL    HW148098   7.954  13.786   3.514
82108SOL    HW248099   7.843  13.869   3.453
82109SOL     OW48100   3.040   8.054  12.006
82109SOL    HW148101   3.034   8.137  11.959
82109SOL    HW248102   3.130   8.050  12.038
82110SOL     OW48103   5.185   4.760  11.594
82110SOL    HW148104   5.246   4.793  11.528
82110SOL    HW248105   5.222   4.676  11.621
82111SOL     OW48106   5.824  13.294   3.333
82111SOL    HW148107   5.830  13.202   3.306
82111SOL    HW248108   5.733  13.318   3.314
82112SOL     OW48109   2.951   5.683   1.855
82112SOL    HW148110   3.021   5.704   1.917
82112SOL    HW248111   2.871   5.685   1.907
82113SOL     OW48112   8.773   8.265  10.243
82113SOL    HW148113   8.799   8.336  10.183
82113SOL    HW248114   8.733   8.310  10.317
82114SOL     OW48115   6.208  10.431  11.196
82114SOL    HW148116   6.123  10.424  11.154
82114SOL    HW248117   6.206  10.364  11.265
82115SOL     OW48118   7.954   8.723  13.526
82115SOL    HW148119   7.886   8.781  13.494
82115SOL    HW248120   7.907   8.645  13.556
82116SOL     OW48121  14.191   4.669  11.537
82116SOL    HW148122  14.181   4.711  11.451
82116SOL    HW248123  14.150   4.583  11.527
82117SOL     OW48124   4.028   9.051   8.626
82117SOL    HW148125   4.077   9.132   8.620
82117SOL    HW248126   3.960   9.058   8.559
82118SOL     OW48127   1.828   5.681   9.157
82118SOL    HW148128   1.920   5.680   9.129
82118SOL    HW248129   1.830   5.723   9.243
82119SOL     OW48130   9.884   8.405  10.956
82119SOL    HW148131   9.891   8.310  10.960
82119SOL    HW248132   9.801   8.422  10.911
82120SOL     OW48133   1.774   8.207   0.892
82120SOL    HW148134   1.746   8.298   0.903
82120SOL    HW248135   1.733   8.178   0.811
82121SOL     OW48136   1.060   6.122  10.372
82121SOL    HW148137   1.088   6.082  10.455
82121SOL    HW248138   1.114   6.079  10.305
82122SOL     OW48139   9.637   7.802  13.418
82122SOL    HW148140   9.598   7.877  13.374
82122SOL    HW248141   9.569   7.769  13.476
82123SOL     OW48142   2.906  10.669   0.608
82123SOL    HW148143   2.923  10.625   0.525
82123SOL    HW248144   2.813  10.689   0.606
82124SOL     OW48145   7.665   4.318   1.321
82124SOL    HW148146   7.710   4.259   1.382
82124SOL    HW248147   7.734   4.350   1.263
82125SOL     OW48148  12.034  11.999  10.189
82125SOL    HW148149  12.116  11.950  10.200
82125SOL    HW248150  11.966  11.937  10.212
82126SOL     OW48151   9.962   8.542   8.072
82126SOL    HW148152   9.984   8.452   8.099
82126SOL    HW248153  10.022   8.597   8.121
82127SOL     OW48154  11.141   4.892  14.695
82127SOL    HW148155  11.055   4.862  14.665
82127SOL    HW248156  11.188   4.914  14.614
82128SOL     OW48157   2.258   6.366  11.226
82128SOL    HW148158   2.218   6.296  11.278
82128SOL    HW248159   2.257   6.333  11.136
82129SOL     OW48160   9.708  11.547   2.797
82129SOL    HW148161   9.665  11.602   2.862
82129SOL    HW248162   9.704  11.598   2.716
82130SOL     OW48163   1.700  14.079   6.135
82130SOL    HW148164   1.759  14.032   6.195
82130SOL    HW248165   1.754  14.149   6.099
82131SOL     OW48166   9.729   7.154   3.360
82131SOL    HW148167   9.690   7.130   3.444
82131SOL    HW248168   9.724   7.250   3.358
82132SOL     OW48169   0.114  13.466  13.852
82132SOL    HW148170   0.203  13.434  13.862
82132SOL    HW248171   0.124  13.558  13.829
82133SOL     OW48172  14.879   7.747  11.352
82133SOL    HW148173   0.087   7.730  11.382
82133SOL    HW248174  14.839   7.799  11.422
82134SOL     OW48175   7.183  14.252  12.975
82134SOL    HW148176   7.177  14.167  13.020
82134SOL    HW248177   7.185  14.229  12.882
82135SOL     OW48178  13.026   7.887  12.020
82135SOL    HW148179  13.004   7.838  12.100
82135SOL    HW248180  13.121   7.890  12.019
82136SOL     OW48181   5.139  14.654  14.674
82136SOL    HW148182   5.115  14.570  14.637
82136SOL    HW248183   5.211  14.685  14.619
82137SOL     OW48184   3.457   3.764   4.820
82137SOL    HW148185   3.404   3.810   4.755
82137SOL    HW248186   3.415   3.783   4.904
82138SOL     OW48187  12.145   4.034   3.442
82138SOL    HW148188  12.150   4.126   3.465
82138SOL    HW248189  12.225   4.017   3.392
82139SOL     OW48190   5.089  14.730  13.063
82139SOL    HW148191   5.009  14.781  13.080
82139SOL    HW248192   5.079  14.700  12.973
82140SOL     OW48193   0.070   5.083   9.760
82140SOL    HW148194   0.085   4.988   9.765
82140SOL    HW248195   0.090   5.115   9.848
82141SOL     OW48196  13.873  13.773  11.099
82141SOL    HW148197  13.915  13.852  11.064
82141SOL    HW248198  13.945  13.715  11.121
82142SOL     OW48199  14.088   3.151  12.740
82142SOL    HW148200  14.158   3.211  12.714
82142SOL    HW248201  14.037   3.201  12.804
82143SOL     OW48202  12.086  10.070   5.761
82143SOL    HW148203  12.074  10.011   5.686
82143SOL    HW248204  12.111  10.154   5.721
82144SOL     OW48205   7.516  14.021   8.779
82144SOL    HW148206   7.483  14.082   8.713
82144SOL    HW248207   7.585  13.973   8.733
82145SOL     OW48208   7.538   2.104   5.816
82145SOL    HW148209   7.507   2.125   5.727
82145SOL    HW248210   7.531   2.186   5.864
82146SOL     OW48211   5.352  14.620   9.393
82146SOL    HW148212   5.290  14.559   9.353
82146SOL    HW248213   5.348  14.698   9.338
82147SOL     OW48214   9.604  12.322   8.962
82147SOL    HW148215   9.565  12.280   9.039
82147SOL    HW248216   9.670  12.382   8.998
82148SOL     OW48217  10.407   3.793  14.102
82148SOL    HW148218  10.471   3.761  14.039
82148SOL    HW248219  10.460   3.833  14.171
82149SOL     OW48220   6.624  11.224   5.076
82149SOL    HW148221   6.674  11.163   5.130
82149SOL    HW248222   6.547  11.174   5.048
82150SOL     OW48223  14.784  11.076   4.250
82150SOL    HW148224  14.791  11.094   4.343
82150SOL    HW248225  14.872  11.045   4.225
82151SOL     OW48226  12.600  12.543   0.455
82151SOL    HW148227  12.694  12.525   0.446
82151SOL    HW248228  12.593  12.594   0.536
82152SOL     OW48229   3.384   1.076   0.201
82152SOL    HW148230   3.470   1.033   0.209
82152SOL    HW248231   3.321   1.005   0.202
82153SOL     OW48232   3.478  13.751   0.886
82153SOL    HW148233   3.552  13.808   0.909
82153SOL    HW248234   3.483  13.742   0.791
82154SOL     OW48235   2.042   1.702  13.298
82154SOL    HW148236   1.961   1.680  13.252
82154SOL    HW248237   2.023   1.683  13.390
82155SOL     OW48238   0.834  10.690   1.472
82155SOL    HW148239   0.803  10.677   1.382
82155SOL    HW248240   0.867  10.604   1.499
82156SOL     OW48241   2.514   6.455   0.839
82156SOL    HW148242   2.502   6.549   0.852
82156SOL    HW248243   2.569   6.449   0.761
82157SOL     OW48244  13.957   7.931   0.983
82157SOL    HW148245  13.946   8.015   0.938
82157SOL    HW248246  13.876   7.919   1.032
82158SOL     OW48247   5.459  13.224   9.232
82158SOL    HW148248   5.423  13.143   9.196
82158SOL    HW248249   5.495  13.199   9.317
82159SOL     OW48250   2.438   0.639   2.888
82159SOL    HW148251   2.528   0.624   2.915
82159SOL    HW248252   2.404   0.703   2.951
82160SOL     OW48253  13.338   0.434   9.672
82160SOL    HW148254  13.278   0.502   9.644
82160SOL    HW248255  13.291   0.352   9.657
82161SOL     OW48256  14.873   6.453   5.488
82161SOL    HW148257   0.068   6.448   5.545
82161SOL    HW248258  14.801   6.420   5.541
82162SOL     OW48259   7.882   9.439  11.482
82162SOL    HW148260   7.866   9.351  11.517
82162SOL    HW248261   7.796   9.481  11.482
82163SOL     OW48262   5.154   0.125  12.950
82163SOL    HW148263   5.219   0.118  12.880
82163SOL    HW248264   5.071   0.140  12.904
82164SOL     OW48265   2.810   7.688   4.275
82164SOL    HW148266   2.801   7.599   4.309
82164SOL    HW248267   2.731   7.733   4.306
82165SOL     OW48268  10.840   3.724   5.056
82165SOL    HW148269  10.762   3.762   5.096
82165SOL    HW248270  10.868   3.656   5.118
82166SOL     OW48271  13.069  13.891  12.228
82166SOL    HW148272  13.110  13.959  12.282
82166SOL    HW248273  12.975  13.900  12.245
82167SOL     OW48274   1.683   4.407  11.122
82167SOL    HW148275   1.753   4.342  11.121
82167SOL    HW248276   1.713   4.476  11.063
82168SOL     OW48277   6.267  14.689   3.351
82168SOL    HW148278   6.228  14.730   3.274
82168SOL    HW248279   6.193  14.665   3.406
82169SOL     OW48280   9.467  11.954   4.640
82169SOL    HW148281   9.515  11.880   4.677
82169SOL    HW248282   9.519  11.980   4.563
82170SOL     OW48283   9.067  11.296   9.925
82170SOL    HW148284   9.018  11.347   9.989
82170SOL    HW248285   9.027  11.209   9.927
82171SOL     OW48286   9.745   6.573   2.999
82171SOL    HW148287   9.750   6.667   2.980
82171SOL    HW248288   9.806   6.532   2.938
82172SOL     OW48289  11.547  14.011   9.874
82172SOL    HW148290  11.529  13.917   9.876
82172SOL    HW248291  11.541  14.034   9.781
82173SOL     OW48292   8.750   7.773   1.244
82173SOL    HW148293   8.797   7.749   1.164
82173SOL    HW248294   8.757   7.868   1.249
82174SOL     OW48295   3.147   0.485   9.736
82174SOL    HW148296   3.230   0.519   9.704
82174SOL    HW248297   3.117   0.426   9.667
82175SOL     OW48298   3.855   7.486   5.090
82175SOL    HW148299   3.855   7.481   5.185
82175SOL    HW248300   3.932   7.537   5.068
82176SOL     OW48301  13.183   0.598   3.548
82176SOL    HW148302  13.218   0.687   3.558
82176SOL    HW248303  13.220   0.567   3.466
82177SOL     OW48304   0.478   1.471  11.966
82177SOL    HW148305   0.384   1.459  11.949
82177SOL    HW248306   0.512   1.510  11.886
82178SOL     OW48307   5.856  14.558  10.490
82178SOL    HW148308   5.804  14.487  10.527
82178SOL    HW248309   5.848  14.548  10.395
82179SOL     OW48310   8.358  12.744  12.161
82179SOL    HW148311   8.345  12.711  12.072
82179SOL    HW248312   8.299  12.819  12.166
82180SOL     OW48313   1.765   0.907   2.462
82180SOL    HW148314   1.724   0.939   2.542
82180SOL    HW248315   1.761   0.980   2.400
82181SOL     OW48316   1.082   8.100   1.013
82181SOL    HW148317   1.010   8.039   1.030
82181SOL    HW248318   1.096   8.144   1.098
82182SOL     OW48319   6.952  11.890   1.188
82182SOL    HW148320   6.955  11.872   1.094
82182SOL    HW248321   6.867  11.931   1.202
82183SOL     OW48322   4.962  13.140  13.526
82183SOL    HW148323   5.021  13.204  13.566
82183SOL    HW248324   4.946  13.076  13.595
82184SOL     OW48325  14.468   1.629   4.153
82184SOL    HW148326  14.396   1.620   4.090
82184SOL    HW248327  14.508   1.542   4.157
82185SOL     OW48328   5.574   8.546   2.618
82185SOL    HW148329   5.511   8.574   2.552
82185SOL    HW248330   5.609   8.463   2.585
82186SOL     OW48331   9.670   6.093   3.564
82186SOL    HW148332   9.611   6.094   3.488
82186SOL    HW248333   9.624   6.040   3.629
82187SOL     OW48334   4.491  14.606   9.434
82187SOL    HW148335   4.436  14.661   9.379
82187SOL    HW248336   4.457  14.620   9.523
82188SOL     OW48337   9.867   8.974   3.806
82188SOL    HW148338   9.943   8.944   3.856
82188SOL    HW248339   9.819   9.030   3.866
82189SOL     OW48340   8.458   1.466   1.337
82189SOL    HW148341   8.468   1.545   1.285
82189SOL    HW248342   8.519   1.476   1.410
82190SOL     OW48343   3.739   3.879   3.535
82190SOL    HW148344   3.800   3.807   3.517
82190SOL    HW248345   3.791   3.941   3.586
82191SOL     OW48346  11.220  13.303   1.633
82191SOL    HW148347  11.303  13.258   1.619
82191SOL    HW248348  11.177  13.304   1.548
82192SOL     OW48349   3.130  13.750   7.729
82192SOL    HW148350   3.104  13.664   7.695
82192SOL    HW248351   3.223  13.740   7.750
82193SOL     OW48352   9.779  12.817   9.843
82193SOL    HW148353   9.731  12.764   9.906
82193SOL    HW248354   9.759  12.908   9.867
82194SOL     OW48355  13.813   3.002   5.331
82194SOL    HW148356  13.744   2.947   5.367
82194SOL    HW248357  13.888   2.987   5.388
82195SOL     OW48358  13.216   0.745   5.117
82195SOL    HW148359  13.128   0.709   5.125
82195SOL    HW248360  13.264   0.680   5.066
82196SOL     OW48361   7.338   5.510   8.405
82196SOL    HW148362   7.429   5.500   8.434
82196SOL    HW248363   7.287   5.510   8.485
82197SOL     OW48364  10.633  11.354   7.426
82197SOL    HW148365  10.654  11.370   7.518
82197SOL    HW248366  10.598  11.264   7.425
82198SOL     OW48367   9.668   1.963  13.134
82198SOL    HW148368   9.660   2.013  13.215
82198SOL    HW248369   9.621   2.015  13.069
82199SOL     OW48370   6.858  11.570   0.021
82199SOL    HW148371   6.840  11.651  14.855
82199SOL    HW248372   6.791  11.509  14.873
82200SOL     OW48373   5.563  12.755   0.093
82200SOL    HW148374   5.622  12.793   0.158
82200SOL    HW248375   5.552  12.664   0.120
82201SOL     OW48376   5.328   1.831  12.849
82201SOL    HW148377   5.417   1.808  12.874
82201SOL    HW248378   5.277   1.821  12.929
82202SOL     OW48379   5.661   2.011   6.796
82202SOL    HW148380   5.712   2.092   6.791
82202SOL    HW248381   5.724   1.942   6.774
82203SOL     OW48382  13.366   1.931   4.246
82203SOL    HW148383  13.274   1.928   4.269
82203SOL    HW248384  13.380   2.019   4.212
82204SOL     OW48385   4.553  13.165  12.699
82204SOL    HW148386   4.642  13.199  12.701
82204SOL    HW248387   4.526  13.171  12.608
82205SOL     OW48388   2.812   7.149  10.424
82205SOL    HW148389   2.858   7.194  10.495
82205SOL    HW248390   2.746   7.096  10.468
82206SOL     OW48391  13.493   4.161  12.092
82206SOL    HW148392  13.514   4.087  12.035
82206SOL    HW248393  13.537   4.141  12.174
82207SOL     OW48394  11.643   0.170  14.007
82207SOL    HW148395  11.575   0.233  13.983
82207SOL    HW248396  11.679   0.141  13.923
82208SOL     OW48397  13.829   1.739  10.305
82208SOL    HW148398  13.750   1.789  10.325
82208SOL    HW248399  13.817   1.656  10.351
82209SOL     OW48400   8.979  13.046   6.139
82209SOL    HW148401   9.065  13.007   6.154
82209SOL    HW248402   8.920  12.996   6.196
82210SOL     OW48403   7.024   7.884   3.147
82210SOL    HW148404   7.100   7.843   3.106
82210SOL    HW248405   6.950   7.830   3.119
82211SOL     OW48406   9.068   1.504  13.947
82211SOL    HW148407   9.098   1.448  14.019
82211SOL    HW248408   9.147   1.526  13.899
82212SOL     OW48409  13.768   2.275   1.094
82212SOL    HW148410  13.739   2.185   1.076
82212SOL    HW248411  13.687   2.323   1.111
82213SOL     OW48412   1.885   8.964  12.920
82213SOL    HW148413   1.837   8.921  12.849
82213SOL    HW248414   1.909   9.049  12.884
82214SOL     OW48415   7.489  14.809   3.857
82214SOL    HW148416   7.399  14.794   3.887
82214SOL    HW248417   7.540  14.739   3.897
82215SOL     OW48418  11.288   2.898   1.108
82215SOL    HW148419  11.303   2.823   1.166
82215SOL    HW248420  11.205   2.935   1.139
82216SOL     OW48421  12.928   8.360   1.482
82216SOL    HW148422  13.002   8.413   1.453
82216SOL    HW248423  12.917   8.381   1.574
82217SOL     OW48424   5.374  11.452  13.757
82217SOL    HW148425   5.347  11.488  13.841
82217SOL    HW248426   5.385  11.358  13.773
82218SOL     OW48427  10.561   5.626   1.200
82218SOL    HW148428  10.575   5.719   1.217
82218SOL    HW248429  10.612   5.581   1.267
82219SOL     OW48430   7.122   4.337   4.345
82219SOL    HW148431   7.062   4.360   4.273
82219SOL    HW248432   7.149   4.422   4.381
82220SOL     OW48433   7.709  10.385   3.434
82220SOL    HW148434   7.798  10.386   3.470
82220SOL    HW248435   7.680  10.476   3.440
82221SOL     OW48436   8.083   5.224   9.549
82221SOL    HW148437   8.072   5.306   9.598
82221SOL    HW248438   8.033   5.160   9.600
82222SOL     OW48439   9.617  11.309  14.727
82222SOL    HW148440   9.607  11.404  14.725
82222SOL    HW248441   9.578  11.282  14.810
82223SOL     OW48442   0.511   1.111   1.727
82223SOL    HW148443   0.515   1.205   1.707
82223SOL    HW248444   0.546   1.069   1.648
82224SOL     OW48445   9.038  10.506   0.011
82224SOL    HW148446   9.051  10.519  14.799
82224SOL    HW248447   8.987  10.424   0.017
82225SOL     OW48448  11.457   9.082   8.664
82225SOL    HW148449  11.399   9.125   8.601
82225SOL    HW248450  11.443   9.130   8.746
82226SOL     OW48451   3.343   0.988   4.718
82226SOL    HW148452   3.282   0.916   4.736
82226SOL    HW248453   3.413   0.947   4.667
82227SOL     OW48454   9.963   7.372   5.978
82227SOL    HW148455   9.927   7.357   5.890
82227SOL    HW248456   9.898   7.428   6.021
82228SOL     OW48457   5.872   1.118  13.238
82228SOL    HW148458   5.906   1.039  13.196
82228SOL    HW248459   5.784   1.129  13.200
82229SOL     OW48460  13.858   3.799   8.164
82229SOL    HW148461  13.788   3.863   8.177
82229SOL    HW248462  13.934   3.837   8.209
82230SOL     OW48463   0.801  14.691   0.368
82230SOL    HW148464   0.741  14.764   0.355
82230SOL    HW248465   0.782  14.660   0.457
82231SOL     OW48466   9.879   0.521  10.712
82231SOL    HW148467   9.871   0.591  10.648
82231SOL    HW248468   9.807   0.461  10.692
82232SOL     OW48469   2.904   8.734   1.593
82232SOL    HW148470   2.877   8.696   1.509
82232SOL    HW248471   2.981   8.683   1.618
82233SOL     OW48472   9.209   1.558   6.394
82233SOL    HW148473   9.272   1.610   6.344
82233SOL    HW248474   9.263   1.497   6.445
82234SOL     OW48475  10.938   0.294  13.691
82234SOL    HW148476  10.856   0.246  13.695
82234SOL    HW248477  10.939   0.348  13.770
82235SOL     OW48478   3.781  10.953   0.918
82235SOL    HW148479   3.831  10.883   0.962
82235SOL    HW248480   3.839  10.982   0.848
82236SOL     OW48481   4.306  13.806   7.588
82236SOL    HW148482   4.379  13.866   7.581
82236SOL    HW248483   4.305  13.779   7.680
82237SOL     OW48484   5.532   2.182  12.850
82237SOL    HW148485   5.588   2.201  12.775
82237SOL    HW248486   5.457   2.240  12.840
82238SOL     OW48487  14.287  13.531  11.481
82238SOL    HW148488  14.352  13.591  11.444
82238SOL    HW248489  14.221  13.588  11.521
82239SOL     OW48490   8.435  13.695  10.283
82239SOL    HW148491   8.376  13.704  10.208
82239SOL    HW248492   8.522  13.717  10.249
82240SOL     OW48493   6.288   5.469   6.081
82240SOL    HW148494   6.217   5.405   6.067
82240SOL    HW248495   6.314   5.496   5.993
82241SOL     OW48496   5.208   3.975  12.372
82241SOL    HW148497   5.165   3.999  12.290
82241SOL    HW248498   5.233   3.883  12.359
82242SOL     OW48499  14.307  10.511   1.144
82242SOL    HW148500  14.393  10.545   1.121
82242SOL    HW248501  14.324  10.429   1.190
82243SOL     OW48502  14.095  14.357   0.442
82243SOL    HW148503  14.016  14.311   0.416
82243SOL    HW248504  14.133  14.387   0.359
82244SOL     OW48505  10.535   1.101  11.978
82244SOL    HW148506  10.508   1.144  12.059
82244SOL    HW248507  10.594   1.032  12.007
82245SOL     OW48508   0.572   1.098   0.207
82245SOL    HW148509   0.641   1.158   0.180
82245SOL    HW248510   0.540   1.134   0.290
82246SOL     OW48511   2.430   2.221   6.422
82246SOL    HW148512   2.512   2.176   6.443
82246SOL    HW248513   2.442   2.310   6.455
82247SOL     OW48514   8.795   5.165   1.811
82247SOL    HW148515   8.841   5.154   1.727
82247SOL    HW248516   8.737   5.089   1.815
82248SOL     OW48517   9.513  12.600   0.086
82248SOL    HW148518   9.582  12.615   0.022
82248SOL    HW248519   9.439  12.653   0.054
82249SOL     OW48520   1.223   4.060  14.508
82249SOL    HW148521   1.183   3.973  14.501
82249SOL    HW248522   1.207   4.086  14.599
82250SOL     OW48523   2.501  11.234   3.369
82250SOL    HW148524   2.563  11.295   3.329
82250SOL    HW248525   2.552  11.154   3.382
82251SOL     OW48526   5.253   0.287   2.884
82251SOL    HW148527   5.322   0.285   2.950
82251SOL    HW248528   5.265   0.370   2.839
82252SOL     OW48529  10.841   7.571   0.361
82252SOL    HW148530  10.933   7.555   0.380
82252SOL    HW248531  10.840   7.647   0.303
82253SOL     OW48532   4.586  12.898   1.182
82253SOL    HW148533   4.596  12.807   1.156
82253SOL    HW248534   4.512  12.898   1.243
82254SOL     OW48535   5.237   1.190  13.322
82254SOL    HW148536   5.173   1.256  13.295
82254SOL    HW248537   5.214   1.112  13.271
82255SOL     OW48538   4.111   1.300   0.719
82255SOL    HW148539   4.086   1.317   0.628
82255SOL    HW248540   4.030   1.307   0.768
82256SOL     OW48541  13.919  12.829   0.779
82256SOL    HW148542  13.916  12.859   0.687
82256SOL    HW248543  14.012  12.830   0.801
82257SOL     OW48544  12.468   3.670   1.184
82257SOL    HW148545  12.389   3.724   1.181
82257SOL    HW248546  12.469   3.631   1.271
82258SOL     OW48547   1.334  11.554  10.280
82258SOL    HW148548   1.319  11.465  10.312
82258SOL    HW248549   1.246  11.589  10.264
82259SOL     OW48550   2.913   6.936   8.007
82259SOL    HW148551   2.915   7.011   7.948
82259SOL    HW248552   2.821   6.929   8.034
82260SOL     OW48553  11.723  13.419   6.059
82260SOL    HW148554  11.634  13.407   6.026
82260SOL    HW248555  11.756  13.331   6.074
82261SOL     OW48556  12.145   9.864  10.223
82261SOL    HW148557  12.172   9.774  10.203
82261SOL    HW248558  12.054   9.857  10.249
82262SOL     OW48559  12.304   8.759  13.068
82262SOL    HW148560  12.233   8.819  13.089
82262SOL    HW248561  12.381   8.815  13.061
82263SOL     OW48562   0.386   5.925   4.802
82263SOL    HW148563   0.338   5.901   4.882
82263SOL    HW248564   0.425   6.010   4.822
82264SOL     OW48565  10.607  12.652   1.126
82264SOL    HW148566  10.700  12.655   1.149
82264SOL    HW248567  10.583  12.560   1.134
82265SOL     OW48568   7.678  14.847   0.576
82265SOL    HW148569   7.715  14.830   0.489
82265SOL    HW248570   7.626   0.045   0.565
82266SOL     OW48571   7.917   6.257   8.234
82266SOL    HW148572   7.923   6.161   8.232
82266SOL    HW248573   8.001   6.287   8.199
82267SOL     OW48574   5.554   2.941  14.141
82267SOL    HW148575   5.585   2.955  14.051
82267SOL    HW248576   5.622   2.886  14.181
82268SOL     OW48577   4.692   0.809  13.996
82268SOL    HW148578   4.694   0.754  13.918
82268SOL    HW248579   4.722   0.752  14.067
82269SOL     OW48580   4.124  10.091  12.439
82269SOL    HW148581   4.179  10.158  12.480
82269SOL    HW248582   4.056  10.141  12.394
82270SOL     OW48583   2.721  14.171   2.683
82270SOL    HW148584   2.754  14.229   2.614
82270SOL    HW248585   2.627  14.191   2.687
82271SOL     OW48586   5.673   6.190   0.602
82271SOL    HW148587   5.678   6.129   0.528
82271SOL    HW248588   5.632   6.139   0.671
82272SOL     OW48589   3.555   0.995   4.304
82272SOL    HW148590   3.501   1.075   4.302
82272SOL    HW248591   3.534   0.951   4.221
82273SOL     OW48592   9.925   9.409  11.514
82273SOL    HW148593   9.831   9.423  11.525
82273SOL    HW248594   9.935   9.386  11.422
82274SOL     OW48595   1.259  13.077   4.619
82274SOL    HW148596   1.247  13.167   4.649
82274SOL    HW248597   1.244  13.080   4.524
82275SOL     OW48598   7.960   0.283   4.383
82275SOL    HW148599   8.014   0.323   4.315
82275SOL    HW248600   7.971   0.189   4.371
82276SOL     OW48601   6.082   0.794   5.869
82276SOL    HW148602   6.007   0.826   5.918
82276SOL    HW248603   6.141   0.869   5.863
82277SOL     OW48604   7.273  14.567   1.137
82277SOL    HW148605   7.226  14.644   1.169
82277SOL    HW248606   7.336  14.547   1.206
82278SOL     OW48607  13.643  10.816   4.343
82278SOL    HW148608  13.711  10.750   4.327
82278SOL    HW248609  13.580  10.772   4.399
82279SOL     OW48610  13.643   1.724   8.200
82279SOL    HW148611  13.704   1.745   8.270
82279SOL    HW248612  13.570   1.786   8.211
82280SOL     OW48613  10.434   1.306  11.562
82280SOL    HW148614  10.501   1.373  11.562
82280SOL    HW248615  10.397   1.309  11.651
82281SOL     OW48616   1.028  11.226  12.439
82281SOL    HW148617   1.002  11.211  12.530
82281SOL    HW248618   0.992  11.151  12.391
82282SOL     OW48619   1.565   6.919  11.078
82282SOL    HW148620   1.470   6.919  11.095
82282SOL    HW248621   1.595   6.833  11.107
82283SOL     OW48622   8.922   4.754   1.693
82283SOL    HW148623   8.970   4.819   1.744
82283SOL    HW248624   8.916   4.791   1.605
82284SOL     OW48625   4.485  12.140   8.534
82284SOL    HW148626   4.541  12.076   8.490
82284SOL    HW248627   4.518  12.143   8.624
82285SOL     OW48628   2.283  11.122  13.768
82285SOL    HW148629   2.348  11.180  13.729
82285SOL    HW248630   2.332  11.041  13.787
82286SOL     OW48631   7.885   0.210   6.126
82286SOL    HW148632   7.966   0.159   6.132
82286SOL    HW248633   7.913   0.295   6.092
82287SOL     OW48634   7.197   4.621  10.868
82287SOL    HW148635   7.150   4.596  10.949
82287SOL    HW248636   7.173   4.713  10.854
82288SOL     OW48637   2.031   7.866   0.398
82288SOL    HW148638   2.090   7.809   0.348
82288SOL    HW248639   2.087   7.911   0.460
82289SOL     OW48640   2.173  13.405   5.265
82289SOL    HW148641   2.254  13.355   5.275
82289SOL    HW248642   2.148  13.393   5.174
82290SOL     OW48643   9.782   2.040   3.682
82290SOL    HW148644   9.848   2.065   3.618
82290SOL    HW248645   9.832   2.016   3.760
82291SOL     OW48646  12.618   6.469   9.527
82291SOL    HW148647  12.549   6.425   9.576
82291SOL    HW248648  12.683   6.493   9.592
82292SOL     OW48649   0.741   3.765   5.116
82292SOL    HW148650   0.821   3.731   5.075
82292SOL    HW248651   0.766   3.784   5.206
82293SOL     OW48652   1.346  12.027   6.091
82293SOL    HW148653   1.410  11.972   6.046
82293SOL    HW248654   1.340  11.991   6.179
82294SOL     OW48655   1.310   2.989   9.917
82294SOL    HW148656   1.272   2.916   9.868
82294SOL    HW248657   1.328   3.055   9.850
82295SOL     OW48658   1.567   4.125  13.737
82295SOL    HW148659   1.495   4.177  13.773
82295SOL    HW248660   1.618   4.100  13.814
82296SOL     OW48661   1.889   9.049   7.418
82296SOL    HW148662   1.893   9.131   7.369
82296SOL    HW248663   1.888   9.076   7.510
82297SOL     OW48664  14.043  11.675  10.053
82297SOL    HW148665  14.093  11.710   9.979
82297SOL    HW248666  13.952  11.687  10.028
82298SOL     OW48667  12.586   3.686  13.127
82298SOL    HW148668  12.639   3.623  13.079
82298SOL    HW248669  12.649   3.732  13.183
82299SOL     OW48670   6.072   6.722  12.864
82299SOL    HW148671   6.004   6.665  12.898
82299SOL    HW248672   6.083   6.790  12.932
82300SOL     OW48673  11.889  10.863   8.061
82300SOL    HW148674  11.951  10.848   7.990
82300SOL    HW248675  11.808  10.823   8.031
82301SOL     OW48676   6.262   0.375   5.184
82301SOL    HW148677   6.304   0.410   5.105
82301SOL    HW248678   6.208   0.447   5.217
82302SOL     OW48679   3.443   1.858   4.166
82302SOL    HW148680   3.420   1.923   4.233
82302SOL    HW248681   3.466   1.911   4.090
82303SOL     OW48682  10.348   9.453   3.664
82303SOL    HW148683  10.420   9.463   3.602
82303SOL    HW248684  10.269   9.471   3.612
82304SOL     OW48685   5.176  11.383  12.268
82304SOL    HW148686   5.141  11.402  12.181
82304SOL    HW248687   5.219  11.299  12.259
82305SOL     OW48688   2.953  14.770  10.567
82305SOL    HW148689   2.877  14.823  10.542
82305SOL    HW248690   2.920  14.710  10.634
82306SOL     OW48691   0.461  10.966   6.038
82306SOL    HW148692   0.527  10.960   5.969
82306SOL    HW248693   0.429  10.876   6.049
82307SOL     OW48694  13.133  10.786   5.061
82307SOL    HW148695  13.157  10.694   5.048
82307SOL    HW248696  13.216  10.834   5.056
82308SOL     OW48697   2.429   5.754   0.561
82308SOL    HW148698   2.386   5.830   0.522
82308SOL    HW248699   2.392   5.748   0.650
82309SOL     OW48700   3.383   2.508  12.118
82309SOL    HW148701   3.343   2.595  12.110
82309SOL    HW248702   3.374   2.469  12.031
82310SOL     OW48703   8.088  14.843   3.248
82310SOL    HW148704   8.038  14.798   3.316
82310SOL    HW248705   8.098   0.051   3.281
82311SOL     OW48706   4.230  11.597   2.916
82311SOL    HW148707   4.283  11.610   2.995
82311SOL    HW248708   4.274  11.525   2.871
82312SOL     OW48709  11.247  14.490   4.817
82312SOL    HW148710  11.234  14.395   4.822
82312SOL    HW248711  11.175  14.526   4.869
82313SOL     OW48712   8.572   3.758   4.785
82313SOL    HW148713   8.664   3.733   4.773
82313SOL    HW248714   8.566   3.783   4.877
82314SOL     OW48715  10.966  10.284  10.579
82314SOL    HW148716  10.923  10.285  10.494
82314SOL    HW248717  10.908  10.336  10.635
82315SOL     OW48718  14.210   8.613   9.192
82315SOL    HW148719  14.294   8.569   9.180
82315SOL    HW248720  14.204   8.673   9.118
82316SOL     OW48721   7.261  11.691  12.226
82316SOL    HW148722   7.246  11.751  12.300
82316SOL    HW248723   7.300  11.747  12.158
82317SOL     OW48724   8.124  14.470  10.882
82317SOL    HW148725   8.179  14.538  10.843
82317SOL    HW248726   8.157  14.460  10.971
82318SOL     OW48727  11.330  13.673   7.457
82318SOL    HW148728  11.338  13.686   7.363
82318SOL    HW248729  11.413  13.634   7.484
82319SOL     OW48730  10.556   3.716   6.549
82319SOL    HW148731  10.559   3.691   6.641
82319SOL    HW248732  10.627   3.780   6.540
82320SOL     OW48733   5.744   2.198   0.590
82320SOL    HW148734   5.688   2.233   0.521
82320SOL    HW248735   5.699   2.221   0.671
82321SOL     OW48736   8.401   3.186   2.636
82321SOL    HW148737   8.362   3.139   2.709
82321SOL    HW248738   8.353   3.155   2.559
82322SOL     OW48739   6.825  12.089   2.395
82322SOL    HW148740   6.758  12.137   2.348
82322SOL    HW248741   6.845  12.144   2.471
82323SOL     OW48742   4.084  10.203   1.341
82323SOL    HW148743   4.130  10.123   1.365
82323SOL    HW248744   4.101  10.213   1.247
82324SOL     OW48745   0.778   5.777  12.623
82324SOL    HW148746   0.785   5.701  12.681
82324SOL    HW248747   0.727   5.745  12.548
82325SOL     OW48748   3.791   7.097   9.055
82325SOL    HW148749   3.770   7.057   8.971
82325SOL    HW248750   3.765   7.189   9.045
82326SOL     OW48751   1.411   3.748   4.115
82326SOL    HW148752   1.416   3.842   4.096
82326SOL    HW248753   1.325   3.722   4.082
82327SOL     OW48754   5.000  13.887  10.521
82327SOL    HW148755   5.001  13.978  10.490
82327SOL    HW248756   4.967  13.893  10.611
82328SOL     OW48757  11.389   5.342   9.998
82328SOL    HW148758  11.303   5.305  10.019
82328SOL    HW248759  11.436   5.344  10.081
82329SOL     OW48760   5.052  13.425   9.248
82329SOL    HW148761   5.147  13.423   9.259
82329SOL    HW248762   5.039  13.425   9.154
82330SOL     OW48763   4.488   6.166   8.488
82330SOL    HW148764   4.415   6.206   8.534
82330SOL    HW248765   4.455   6.153   8.398
82331SOL     OW48766   0.313  10.316   6.047
82331SOL    HW148767   0.377  10.317   6.118
82331SOL    HW248768   0.355  10.265   5.978
82332SOL     OW48769   9.515   5.162  12.781
82332SOL    HW148770   9.514   5.252  12.813
82332SOL    HW248771   9.572   5.165  12.704
82333SOL     OW48772   7.575   4.623   0.792
82333SOL    HW148773   7.659   4.646   0.753
82333SOL    HW248774   7.511   4.677   0.746
82334SOL     OW48775   7.096  11.361  14.711
82334SOL    HW148776   7.085  11.373  14.617
82334SOL    HW248777   7.026  11.414  14.751
82335SOL     OW48778   3.003   4.932   7.529
82335SOL    HW148779   2.953   5.014   7.532
82335SOL    HW248780   3.011   4.905   7.620
82336SOL     OW48781   0.655   3.545  11.459
82336SOL    HW148782   0.717   3.569  11.528
82336SOL    HW248783   0.659   3.617  11.396
82337SOL     OW48784   1.331   2.358  12.182
82337SOL    HW148785   1.306   2.340  12.273
82337SOL    HW248786   1.303   2.449  12.167
82338SOL     OW48787  13.957  11.345   7.470
82338SOL    HW148788  13.919  11.258   7.459
82338SOL    HW248789  13.893  11.392   7.523
82339SOL     OW48790   8.423   6.700  10.094
82339SOL    HW148791   8.358   6.767  10.112
82339SOL    HW248792   8.478   6.698  10.172
82340SOL     OW48793   5.508   3.520   2.269
82340SOL    HW148794   5.474   3.603   2.301
82340SOL    HW248795   5.599   3.518   2.299
82341SOL     OW48796   1.653   4.085   0.024
82341SOL    HW148797   1.651   3.993  14.879
82341SOL    HW248798   1.618   4.085   0.113
82342SOL     OW48799   9.730   7.608  13.960
82342SOL    HW148800   9.687   7.601  14.046
82342SOL    HW248801   9.687   7.541  13.907
82343SOL     OW48802   2.258  10.634   7.413
82343SOL    HW148803   2.281  10.706   7.354
82343SOL    HW248804   2.280  10.666   7.501
82344SOL     OW48805   8.155  10.020  12.650
82344SOL    HW148806   8.072  10.019  12.696
82344SOL    HW248807   8.147  10.092  12.588
82345SOL     OW48808   6.090  11.421   7.033
82345SOL    HW148809   6.025  11.377   6.979
82345SOL    HW248810   6.162  11.440   6.973
82346SOL     OW48811   0.004   9.544   5.226
82346SOL    HW148812  14.868   9.454   5.252
82346SOL    HW248813   0.085   9.568   5.272
82347SOL     OW48814  14.821  11.256  13.930
82347SOL    HW148815   0.020  11.217  13.894
82347SOL    HW248816  14.759  11.255  13.857
82348SOL     OW48817   8.656   6.740   4.262
82348SOL    HW148818   8.625   6.651   4.243
82348SOL    HW248819   8.658   6.783   4.177
82349SOL     OW48820  11.798  11.408   8.743
82349SOL    HW148821  11.748  11.438   8.668
82349SOL    HW248822  11.778  11.315   8.750
82350SOL     OW48823   9.466   7.734   8.747
82350SOL    HW148824   9.374   7.751   8.765
82350SOL    HW248825   9.487   7.789   8.672
82351SOL     OW48826   2.383  12.508  10.247
82351SOL    HW148827   2.371  12.541  10.336
82351SOL    HW248828   2.389  12.587  10.193
82352SOL     OW48829   0.937   8.415   8.435
82352SOL    HW148830   0.978   8.487   8.483
82352SOL    HW248831   0.882   8.372   8.500
82353SOL     OW48832   5.730  11.628   3.433
82353SOL    HW148833   5.758  11.536   3.432
82353SOL    HW248834   5.672  11.636   3.357
82354SOL     OW48835   4.832  10.785   5.550
82354SOL    HW148836   4.866  10.799   5.638
82354SOL    HW248837   4.740  10.813   5.555
82355SOL     OW48838   4.839  10.425   3.762
82355SOL    HW148839   4.829  10.461   3.851
82355SOL    HW248840   4.757  10.446   3.718
82356SOL     OW48841   3.436  11.273   8.897
82356SOL    HW148842   3.422  11.242   8.808
82356SOL    HW248843   3.388  11.355   8.903
82357SOL     OW48844  13.321  11.830   6.040
82357SOL    HW148845  13.244  11.784   6.008
82357SOL    HW248846  13.395  11.781   6.003
82358SOL     OW48847  12.906   3.369   9.659
82358SOL    HW148848  12.949   3.286   9.679
82358SOL    HW248849  12.843   3.382   9.730
82359SOL     OW48850  13.195   9.180  13.019
82359SOL    HW148851  13.120   9.236  13.040
82359SOL    HW248852  13.267   9.241  13.004
82360SOL     OW48853   2.643   5.144   7.244
82360SOL    HW148854   2.600   5.196   7.176
82360SOL    HW248855   2.636   5.054   7.213
82361SOL     OW48856   5.104  10.594  11.132
82361SOL    HW148857   5.092  10.502  11.154
82361SOL    HW248858   5.088  10.599  11.038
82362SOL     OW48859   1.469   7.199   5.899
82362SOL    HW148860   1.540   7.244   5.853
82362SOL    HW248861   1.511   7.161   5.977
82363SOL     OW48862   4.138  11.210   4.959
82363SOL    HW148863   4.065  11.209   5.021
82363SOL    HW248864   4.212  11.178   5.009
82364SOL     OW48865   9.437   9.058  12.435
82364SOL    HW148866   9.345   9.059  12.462
82364SOL    HW248867   9.474   8.980  12.476
82365SOL     OW48868   1.373   0.956   9.470
82365SOL    HW148869   1.330   0.976   9.553
82365SOL    HW248870   1.462   0.992   9.480
82366SOL     OW48871   1.177  13.878   3.051
82366SOL    HW148872   1.101  13.884   2.994
82366SOL    HW248873   1.187  13.784   3.069
82367SOL     OW48874   0.847  12.831   5.084
82367SOL    HW148875   0.936  12.831   5.048
82367SOL    HW248876   0.815  12.743   5.069
82368SOL     OW48877  12.491   4.138   2.215
82368SOL    HW148878  12.583   4.143   2.188
82368SOL    HW248879  12.442   4.162   2.137
82369SOL     OW48880   4.272   3.966  13.170
82369SOL    HW148881   4.313   4.052  13.182
82369SOL    HW248882   4.182   3.985  13.145
82370SOL     OW48883  14.346  14.606   3.639
82370SOL    HW148884  14.268  14.613   3.584
82370SOL    HW248885  14.316  14.627   3.727
82371SOL     OW48886   9.002   9.064   4.615
82371SOL    HW148887   8.960   8.992   4.568
82371SOL    HW248888   8.981   9.047   4.707
82372SOL     OW48889  12.527  10.579   9.849
82372SOL    HW148890  12.528  10.486   9.872
82372SOL    HW248891  12.616  10.609   9.865
82373SOL     OW48892  10.182  13.062   0.204
82373SOL    HW148893  10.134  13.144   0.215
82373SOL    HW248894  10.267  13.089   0.168
82374SOL     OW48895   7.247  13.812  12.937
82374SOL    HW148896   7.299  13.774  12.866
82374SOL    HW248897   7.295  13.791  13.017
82375SOL     OW48898   8.122  10.546  10.768
82375SOL    HW148899   8.080  10.543  10.854
82375SOL    HW248900   8.087  10.470  10.721
82376SOL     OW48901   0.672   6.055   2.766
82376SOL    HW148902   0.633   6.012   2.842
82376SOL    HW248903   0.714   5.984   2.717
82377SOL     OW48904   0.040   6.134   6.811
82377SOL    HW148905   0.133   6.149   6.792
82377SOL    HW248906   0.028   6.173   6.898
82378SOL     OW48907   9.512   6.446   4.508
82378SOL    HW148908   9.480   6.368   4.462
82378SOL    HW248909   9.464   6.446   4.591
82379SOL     OW48910  14.137   9.143  11.137
82379SOL    HW148911  14.194   9.192  11.077
82379SOL    HW248912  14.184   9.143  11.220
82380SOL     OW48913   9.043  13.293  10.436
82380SOL    HW148914   9.087  13.275  10.519
82380SOL    HW248915   9.110  13.283  10.370
82381SOL     OW48916  11.436   0.580   1.481
82381SOL    HW148917  11.385   0.573   1.400
82381SOL    HW248918  11.460   0.490   1.503
82382SOL     OW48919   6.487  10.503  12.202
82382SOL    HW148920   6.408  10.534  12.246
82382SOL    HW248921   6.462  10.419  12.164
82383SOL     OW48922  10.451   6.031   3.263
82383SOL    HW148923  10.422   6.120   3.244
82383SOL    HW248924  10.373   5.988   3.297
82384SOL     OW48925  11.182   5.400  11.725
82384SOL    HW148926  11.158   5.461  11.655
82384SOL    HW248927  11.184   5.454  11.804
82385SOL     OW48928   9.920   5.406   4.865
82385SOL    HW148929   9.902   5.486   4.913
82385SOL    HW248930  10.004   5.376   4.899
82386SOL     OW48931   6.758   1.150   8.316
82386SOL    HW148932   6.845   1.185   8.334
82386SOL    HW248933   6.737   1.184   8.229
82387SOL     OW48934   5.173   3.706   5.560
82387SOL    HW148935   5.118   3.752   5.496
82387SOL    HW248936   5.126   3.714   5.642
82388SOL     OW48937  13.732   1.468  13.932
82388SOL    HW148938  13.740   1.551  13.978
82388SOL    HW248939  13.652   1.477  13.880
82389SOL     OW48940  11.363   9.853   6.889
82389SOL    HW148941  11.410   9.816   6.814
82389SOL    HW248942  11.281   9.886   6.851
82390SOL     OW48943  12.104  10.420   7.608
82390SOL    HW148944  12.186  10.426   7.559
82390SOL    HW248945  12.112  10.487   7.676
82391SOL     OW48946  13.177   9.849   2.981
82391SOL    HW148947  13.194   9.793   3.057
82391SOL    HW248948  13.208   9.798   2.906
82392SOL     OW48949   1.268   5.329   5.496
82392SOL    HW148950   1.303   5.357   5.412
82392SOL    HW248951   1.175   5.352   5.493
82393SOL     OW48952   8.350  14.459  12.001
82393SOL    HW148953   8.413  14.469  11.929
82393SOL    HW248954   8.284  14.526  11.984
82394SOL     OW48955   6.492  12.331  12.225
82394SOL    HW148956   6.422  12.394  12.235
82394SOL    HW248957   6.572  12.380  12.247
82395SOL     OW48958   1.246   9.841  14.865
82395SOL    HW148959   1.218   9.868   0.071
82395SOL    HW248960   1.318   9.899  14.844
82396SOL     OW48961  11.437   1.900  10.569
82396SOL    HW148962  11.451   1.806  10.582
82396SOL    HW248963  11.344   1.908  10.547
82397SOL     OW48964  14.011  11.872  13.360
82397SOL    HW148965  13.934  11.831  13.399
82397SOL    HW248966  14.055  11.915  13.433
82398SOL     OW48967   6.517   4.063  14.515
82398SOL    HW148968   6.604   4.044  14.548
82398SOL    HW248969   6.504   4.001  14.442
82399SOL     OW48970   7.705   9.402   5.412
82399SOL    HW148971   7.701   9.487   5.456
82399SOL    HW248972   7.669   9.419   5.325
82400SOL     OW48973   7.342  11.659   8.852
82400SOL    HW148974   7.395  11.642   8.774
82400SOL    HW248975   7.286  11.581   8.860
82401SOL     OW48976   0.064   0.650   3.593
82401SOL    HW148977   0.096   0.597   3.666
82401SOL    HW248978  14.854   0.669   3.616
82402SOL     OW48979   4.968   9.836   7.210
82402SOL    HW148980   4.970   9.931   7.221
82402SOL    HW248981   5.010   9.802   7.289
82403SOL     OW48982   7.057  10.128  12.361
82403SOL    HW148983   7.037  10.139  12.268
82403SOL    HW248984   7.130  10.067  12.363
82404SOL     OW48985  14.380  14.526   2.850
82404SOL    HW148986  14.397  14.565   2.765
82404SOL    HW248987  14.460  14.478   2.872
82405SOL     OW48988   1.171  13.325   3.850
82405SOL    HW148989   1.153  13.278   3.768
82405SOL    HW248990   1.246  13.279   3.888
82406SOL     OW48991   5.666   3.748  13.334
82406SOL    HW148992   5.607   3.785  13.268
82406SOL    HW248993   5.680   3.658  13.305
82407SOL     OW48994   5.580   0.220  11.594
82407SOL    HW148995   5.553   0.252  11.508
82407SOL    HW248996   5.659   0.270  11.614
82408SOL     OW48997   9.172   7.936   5.205
82408SOL    HW148998   9.224   7.936   5.284
82408SOL    HW248999   9.204   8.010   5.154
82409SOL     OW49000  14.836   4.595   1.033
82409SOL    HW149001   0.041   4.554   1.040
82409SOL    HW249002  14.790   4.567   1.112
82410SOL     OW49003   2.742  10.489   3.438
82410SOL    HW149004   2.688  10.539   3.499
82410SOL    HW249005   2.710  10.513   3.351
82411SOL     OW49006   6.476  10.511   3.021
82411SOL    HW149007   6.498  10.418   3.028
82411SOL    HW249008   6.492  10.534   2.930
82412SOL     OW49009   0.816   8.152   6.331
82412SOL    HW149010   0.865   8.233   6.322
82412SOL    HW249011   0.819   8.131   6.424
82413SOL     OW49012   3.650  11.114   8.303
82413SOL    HW149013   3.696  11.136   8.384
82413SOL    HW249014   3.717  11.075   8.247
82414SOL     OW49015  13.789   2.696   1.218
82414SOL    HW149016  13.829   2.619   1.178
82414SOL    HW249017  13.820   2.695   1.309
82415SOL     OW49018   6.494   3.052  13.228
82415SOL    HW149019   6.516   2.960  13.214
82415SOL    HW249020   6.457   3.055  13.316
82416SOL     OW49021  13.964  13.568   2.163
82416SOL    HW149022  14.019  13.646   2.165
82416SOL    HW249023  13.894  13.586   2.226
82417SOL     OW49024  11.882  13.313   8.746
82417SOL    HW149025  11.858  13.305   8.838
82417SOL    HW249026  11.904  13.405   8.734
82418SOL     OW49027  13.263  11.981   5.641
82418SOL    HW149028  13.325  12.052   5.624
82418SOL    HW249029  13.195  12.022   5.696
82419SOL     OW49030   5.059  14.068   2.415
82419SOL    HW149031   5.032  14.142   2.361
82419SOL    HW249032   5.016  13.992   2.376
82420SOL     OW49033  11.112   3.127   6.976
82420SOL    HW149034  11.048   3.137   7.046
82420SOL    HW249035  11.173   3.060   7.007
82421SOL     OW49036   0.272   1.233  13.186
82421SOL    HW149037   0.293   1.316  13.143
82421SOL    HW249038   0.356   1.198  13.215
82422SOL     OW49039   2.153  14.376   9.912
82422SOL    HW149040   2.245  14.400   9.922
82422SOL    HW249041   2.114  14.395   9.997
82423SOL     OW49042   7.327   7.302  12.433
82423SOL    HW149043   7.347   7.278  12.524
82423SOL    HW249044   7.344   7.221  12.383
82424SOL     OW49045  10.951   6.385   9.725
82424SOL    HW149046  10.863   6.424   9.722
82424SOL    HW249047  10.949   6.328   9.801
82425SOL     OW49048   5.281   2.029   3.157
82425SOL    HW149049   5.291   1.934   3.149
82425SOL    HW249050   5.367   2.060   3.187
82426SOL     OW49051   1.083   4.688   5.247
82426SOL    HW149052   1.131   4.609   5.223
82426SOL    HW249053   1.018   4.657   5.311
82427SOL     OW49054   4.483   5.237   8.167
82427SOL    HW149055   4.469   5.159   8.220
82427SOL    HW249056   4.459   5.211   8.079
82428SOL     OW49057  11.873  12.676   7.576
82428SOL    HW149058  11.918  12.724   7.645
82428SOL    HW249059  11.910  12.709   7.495
82429SOL     OW49060   2.274   3.447  14.372
82429SOL    HW149061   2.307   3.372  14.422
82429SOL    HW249062   2.313   3.436  14.285
82430SOL     OW49063   7.770   1.035   1.850
82430SOL    HW149064   7.831   0.963   1.831
82430SOL    HW249065   7.693   0.992   1.886
82431SOL     OW49066   2.646  13.303   7.289
82431SOL    HW149067   2.570  13.284   7.234
82431SOL    HW249068   2.703  13.355   7.233
82432SOL     OW49069   9.724  10.320  10.436
82432SOL    HW149070   9.749  10.272  10.515
82432SOL    HW249071   9.656  10.266  10.396
82433SOL     OW49072   7.390   3.251  10.109
82433SOL    HW149073   7.351   3.323  10.158
82433SOL    HW249074   7.344   3.173  10.140
82434SOL     OW49075   1.576   7.797   0.892
82434SOL    HW149076   1.665   7.781   0.923
82434SOL    HW249077   1.563   7.732   0.823
82435SOL     OW49078   8.338   9.494   1.728
82435SOL    HW149079   8.243   9.490   1.718
82435SOL    HW249080   8.370   9.530   1.645
82436SOL     OW49081   3.701   1.253  11.457
82436SOL    HW149082   3.695   1.308  11.535
82436SOL    HW249083   3.696   1.163  11.490
82437SOL     OW49084   0.651  11.566   2.773
82437SOL    HW149085   0.623  11.578   2.682
82437SOL    HW249086   0.581  11.603   2.826
82438SOL     OW49087  14.430   7.251   1.160
82438SOL    HW149088  14.461   7.341   1.169
82438SOL    HW249089  14.398   7.245   1.070
82439SOL     OW49090  10.396   6.767   7.952
82439SOL    HW149091  10.461   6.803   7.893
82439SOL    HW249092  10.363   6.688   7.908
82440SOL     OW49093   6.441  12.476   1.791
82440SOL    HW149094   6.457  12.394   1.743
82440SOL    HW249095   6.457  12.454   1.882
82441SOL     OW49096  12.109  10.518   4.365
82441SOL    HW149097  12.184  10.532   4.423
82441SOL    HW249098  12.144  10.464   4.294
82442SOL     OW49099   7.185   7.829   0.177
82442SOL    HW149100   7.190   7.853   0.084
82442SOL    HW249101   7.163   7.736   0.176
82443SOL     OW49102   0.391  10.275   0.205
82443SOL    HW149103   0.423  10.191   0.173
82443SOL    HW249104   0.311  10.291   0.156
82444SOL     OW49105   7.952  10.257   3.092
82444SOL    HW149106   7.908  10.172   3.094
82444SOL    HW249107   8.021  10.245   3.027
82445SOL     OW49108   7.447   5.952  14.308
82445SOL    HW149109   7.454   6.027  14.249
82445SOL    HW249110   7.412   5.988  14.389
82446SOL     OW49111   3.249   8.799   1.632
82446SOL    HW149112   3.217   8.885   1.605
82446SOL    HW249113   3.338   8.816   1.665
82447SOL     OW49114   6.726  12.969   5.319
82447SOL    HW149115   6.685  12.928   5.395
82447SOL    HW249116   6.817  12.984   5.345
82448SOL     OW49117  10.503   9.788   0.004
82448SOL    HW149118  10.499   9.693   0.006
82448SOL    HW249119  10.597   9.808   0.012
82449SOL     OW49120   2.547  12.175  13.243
82449SOL    HW149121   2.530  12.201  13.334
82449SOL    HW249122   2.606  12.100  13.251
82450SOL     OW49123   7.159  11.637   1.956
82450SOL    HW149124   7.118  11.627   1.870
82450SOL    HW249125   7.253  11.642   1.937
82451SOL     OW49126  12.258  14.863   8.629
82451SOL    HW149127  12.260   0.046   8.699
82451SOL    HW249128  12.220  14.785   8.669
82452SOL     OW49129   1.630   0.353  10.386
82452SOL    HW149130   1.543   0.366  10.423
82452SOL    HW249131   1.628   0.399  10.302
82453SOL     OW49132  12.561   3.190   1.294
82453SOL    HW149133  12.584   3.186   1.201
82453SOL    HW249134  12.484   3.134   1.302
82454SOL     OW49135   5.835  11.860   1.121
82454SOL    HW149136   5.851  11.765   1.128
82454SOL    HW249137   5.833  11.876   1.026
82455SOL     OW49138   4.935   1.554   4.569
82455SOL    HW149139   4.902   1.643   4.575
82455SOL    HW249140   4.896   1.509   4.644
82456SOL     OW49141   4.115   0.760   3.376
82456SOL    HW149142   4.180   0.755   3.307
82456SOL    HW249143   4.059   0.834   3.351
82457SOL     OW49144   9.493   6.165   8.314
82457SOL    HW149145   9.580   6.124   8.318
82457SOL    HW249146   9.496   6.219   8.235
82458SOL     OW49147  12.914   1.089   6.389
82458SOL    HW149148  12.964   1.014   6.356
82458SOL    HW249149  12.841   1.050   6.437
82459SOL     OW49150   2.773   4.462   9.448
82459SOL    HW149151   2.775   4.477   9.542
82459SOL    HW249152   2.680   4.466   9.424
82460SOL     OW49153  13.343  10.885   7.066
82460SOL    HW149154  13.406  10.839   7.123
82460SOL    HW249155  13.359  10.849   6.979
82461SOL     OW49156   8.028   4.157   0.859
82461SOL    HW149157   8.052   4.186   0.947
82461SOL    HW249158   8.105   4.176   0.805
82462SOL     OW49159  13.621   4.951   6.384
82462SOL    HW149160  13.671   4.955   6.465
82462SOL    HW249161  13.593   4.860   6.377
82463SOL     OW49162  13.060   6.406  12.459
82463SOL    HW149163  12.991   6.346  12.485
82463SOL    HW249164  13.121   6.353  12.408
82464SOL     OW49165  14.035  10.238   9.867
82464SOL    HW149166  13.950  10.238   9.910
82464SOL    HW249167  14.091  10.291   9.923
82465SOL     OW49168   6.518  14.156   9.338
82465SOL    HW149169   6.611  14.159   9.315
82465SOL    HW249170   6.509  14.079   9.393
82466SOL     OW49171  11.981   6.210   9.768
82466SOL    HW149172  12.002   6.132   9.717
82466SOL    HW249173  11.890   6.230   9.745
82467SOL     OW49174   3.081   2.886  11.274
82467SOL    HW149175   3.039   2.913  11.193
82467SOL    HW249176   3.010   2.880  11.338
82468SOL     OW49177   9.981   1.862   1.056
82468SOL    HW149178   9.924   1.868   0.980
82468SOL    HW249179   9.955   1.934   1.113
82469SOL     OW49180   0.994   3.496   6.296
82469SOL    HW149181   1.029   3.524   6.381
82469SOL    HW249182   0.903   3.526   6.297
82470SOL     OW49183   4.373   7.162   7.451
82470SOL    HW149184   4.404   7.163   7.541
82470SOL    HW249185   4.439   7.111   7.404
82471SOL     OW49186  12.724   9.982   6.038
82471SOL    HW149187  12.766  10.017   6.117
82471SOL    HW249188  12.793   9.984   5.971
82472SOL     OW49189   6.798  11.352   8.848
82472SOL    HW149190   6.752  11.268   8.841
82472SOL    HW249191   6.734  11.411   8.888
82473SOL     OW49192   4.018   5.145  13.430
82473SOL    HW149193   3.947   5.081  13.435
82473SOL    HW249194   4.098   5.093  13.429
82474SOL     OW49195   7.976   8.165   5.806
82474SOL    HW149196   8.038   8.201   5.870
82474SOL    HW249197   7.918   8.110   5.858
82475SOL     OW49198   0.601   0.332   3.177
82475SOL    HW149199   0.620   0.397   3.244
82475SOL    HW249200   0.617   0.378   3.094
82476SOL     OW49201   5.374   4.133  13.721
82476SOL    HW149202   5.313   4.075  13.767
82476SOL    HW249203   5.441   4.075  13.687
82477SOL     OW49204   6.859  12.517   6.596
82477SOL    HW149205   6.890  12.429   6.571
82477SOL    HW249206   6.831  12.556   6.513
82478SOL     OW49207  10.163   6.747  12.117
82478SOL    HW149208  10.110   6.805  12.061
82478SOL    HW249209  10.253   6.770  12.096
82479SOL     OW49210   0.259   6.698   2.810
82479SOL    HW149211   0.351   6.716   2.829
82479SOL    HW249212   0.257   6.682   2.716
82480SOL     OW49213  13.187   4.188   9.458
82480SOL    HW149214  13.138   4.247   9.401
82480SOL    HW249215  13.267   4.235   9.479
82481SOL     OW49216   5.298   9.171   4.914
82481SOL    HW149217   5.393   9.166   4.905
82481SOL    HW249218   5.270   9.231   4.845
82482SOL     OW49219   7.854  13.517  14.835
82482SOL    HW149220   7.898  13.523  14.750
82482SOL    HW249221   7.921  13.541   0.017
82483SOL     OW49222   6.085  14.714  10.992
82483SOL    HW149223   6.170  14.722  10.950
82483SOL    HW249224   6.079  14.622  11.018
82484SOL     OW49225   4.582   2.536   1.243
82484SOL    HW149226   4.501   2.492   1.270
82484SOL    HW249227   4.553   2.608   1.187
82485SOL     OW49228   1.730   1.512   6.297
82485SOL    HW149229   1.720   1.525   6.391
82485SOL    HW249230   1.769   1.425   6.288
82486SOL     OW49231   7.931   2.159   5.441
82486SOL    HW149232   8.023   2.142   5.419
82486SOL    HW249233   7.929   2.251   5.467
82487SOL     OW49234  11.427  12.762  10.627
82487SOL    HW149235  11.494  12.757  10.560
82487SOL    HW249236  11.345  12.774  10.579
82488SOL     OW49237   7.518  10.067   7.831
82488SOL    HW149238   7.583  10.021   7.778
82488SOL    HW249239   7.539  10.160   7.819
82489SOL     OW49240  10.324   2.043  13.096
82489SOL    HW149241  10.374   2.097  13.036
82489SOL    HW249242  10.387   1.980  13.131
82490SOL     OW49243   4.485  11.591   2.597
82490SOL    HW149244   4.527  11.506   2.582
82490SOL    HW249245   4.520  11.647   2.527
82491SOL     OW49246   4.104   7.358   0.338
82491SOL    HW149247   4.104   7.453   0.349
82491SOL    HW249248   4.164   7.326   0.405
82492SOL     OW49249  10.232  11.587   6.150
82492SOL    HW149250  10.296  11.516   6.155
82492SOL    HW249251  10.264  11.653   6.212
82493SOL     OW49252   7.794   0.917   3.765
82493SOL    HW149253   7.746   0.847   3.721
82493SOL    HW249254   7.727   0.983   3.785
82494SOL     OW49255   1.434  13.574  14.549
82494SOL    HW149256   1.526  13.599  14.540
82494SOL    HW249257   1.417  13.575  14.643
82495SOL     OW49258  13.553   4.144   2.076
82495SOL    HW149259  13.486   4.141   2.144
82495SOL    HW249260  13.560   4.054   2.045
82496SOL     OW49261   5.753  11.910   4.919
82496SOL    HW149262   5.690  11.863   4.864
82496SOL    HW249263   5.718  11.999   4.925
82497SOL     OW49264  12.092  13.313   9.726
82497SOL    HW149265  12.110  13.340   9.816
82497SOL    HW249266  12.087  13.395   9.677
82498SOL     OW49267   1.657   1.918  12.980
82498SOL    HW149268   1.616   1.998  12.947
82498SOL    HW249269   1.623   1.848  12.925
82499SOL     OW49270   8.940   9.100   2.249
82499SOL    HW149271   8.889   9.100   2.330
82499SOL    HW249272   8.875   9.106   2.180
82500SOL     OW49273   2.638   4.119  14.022
82500SOL    HW149274   2.587   4.168  14.086
82500SOL    HW249275   2.587   4.124  13.941
82501SOL     OW49276   2.288   4.945  14.817
82501SOL    HW149277   2.322   4.900  14.740
82501SOL    HW249278   2.300   5.038  14.798
82502SOL     OW49279   7.697   3.835   2.704
82502SOL    HW149280   7.754   3.758   2.697
82502SOL    HW249281   7.675   3.857   2.613
82503SOL     OW49282  10.249  12.301   8.541
82503SOL    HW149283  10.274  12.306   8.448
82503SOL    HW249284  10.321  12.253   8.582
82504SOL     OW49285   0.385   0.682  12.937
82504SOL    HW149286   0.370   0.637  12.853
82504SOL    HW249287   0.326   0.639  12.998
82505SOL     OW49288   1.879   7.843   6.356
82505SOL    HW149289   1.873   7.766   6.411
82505SOL    HW249290   1.947   7.822   6.292
82506SOL     OW49291   8.385   7.471  11.663
82506SOL    HW149292   8.379   7.563  11.637
82506SOL    HW249293   8.346   7.469  11.751
82507SOL     OW49294   7.076   8.335  10.149
82507SOL    HW149295   7.008   8.400  10.133
82507SOL    HW249296   7.042   8.281  10.221
82508SOL     OW49297   0.553  12.731  12.466
82508SOL    HW149298   0.541  12.636  12.477
82508SOL    HW249299   0.551  12.744  12.371
82509SOL     OW49300  13.526  10.427   1.741
82509SOL    HW149301  13.580  10.430   1.820
82509SOL    HW249302  13.576  10.374   1.679
82510SOL     OW49303   7.442   1.733  13.593
82510SOL    HW149304   7.350   1.746  13.615
82510SOL    HW249305   7.441   1.675  13.517
82511SOL     OW49306  12.830   5.168  11.306
82511SOL    HW149307  12.761   5.152  11.370
82511SOL    HW249308  12.907   5.189  11.358
82512SOL     OW49309  14.863   9.815  14.475
82512SOL    HW149310  14.820   9.795  14.558
82512SOL    HW249311  14.834   9.904  14.454
82513SOL     OW49312   6.890   5.194   5.272
82513SOL    HW149313   6.894   5.288   5.288
82513SOL    HW249314   6.967   5.175   5.220
82514SOL     OW49315   9.161   8.542   2.205
82514SOL    HW149316   9.092   8.584   2.256
82514SOL    HW249317   9.124   8.536   2.117
82515SOL     OW49318   5.734   5.180  10.965
82515SOL    HW149319   5.772   5.215  10.884
82515SOL    HW249320   5.640   5.186  10.952
82516SOL     OW49321   4.290   5.850   9.243
82516SOL    HW149322   4.248   5.794   9.309
82516SOL    HW249323   4.236   5.839   9.165
82517SOL     OW49324   9.054   3.028   8.413
82517SOL    HW149325   9.073   2.936   8.427
82517SOL    HW249326   9.139   3.072   8.424
82518SOL     OW49327   0.385  10.564   8.102
82518SOL    HW149328   0.408  10.527   8.017
82518SOL    HW249329   0.295  10.593   8.092
82519SOL     OW49330   7.029   9.982  13.392
82519SOL    HW149331   6.973   9.958  13.318
82519SOL    HW249332   7.108   9.928  13.381
82520SOL     OW49333  13.378   1.371  13.079
82520SOL    HW149334  13.292   1.345  13.047
82520SOL    HW249335  13.419   1.416  13.005
82521SOL     OW49336  14.338   7.396   1.894
82521SOL    HW149337  14.392   7.376   1.970
82521SOL    HW249338  14.399   7.436   1.831
82522SOL     OW49339   8.146   9.551   4.396
82522SOL    HW149340   8.130   9.499   4.475
82522SOL    HW249341   8.062   9.593   4.378
82523SOL     OW49342   3.238   2.203   9.060
82523SOL    HW149343   3.291   2.176   8.985
82523SOL    HW249344   3.283   2.166   9.136
82524SOL     OW49345   9.603   9.484   1.498
82524SOL    HW149346   9.690   9.525   1.505
82524SOL    HW249347   9.579   9.462   1.587
82525SOL     OW49348   2.709   9.295   8.617
82525SOL    HW149349   2.643   9.312   8.684
82525SOL    HW249350   2.765   9.228   8.655
82526SOL     OW49351   7.695   0.501   1.448
82526SOL    HW149352   7.703   0.567   1.379
82526SOL    HW249353   7.610   0.519   1.489
82527SOL     OW49354   5.490   9.309   6.208
82527SOL    HW149355   5.546   9.231   6.213
82527SOL    HW249356   5.433   9.293   6.133
82528SOL     OW49357   0.471  12.735  12.987
82528SOL    HW149358   0.422  12.811  12.956
82528SOL    HW249359   0.451  12.731  13.081
82529SOL     OW49360  11.838   2.428  11.642
82529SOL    HW149361  11.856   2.519  11.619
82529SOL    HW249362  11.914   2.401  11.694
82530SOL     OW49363   6.044   0.834   3.400
82530SOL    HW149364   5.991   0.893   3.454
82530SOL    HW249365   6.005   0.747   3.414
82531SOL     OW49366   9.710   9.494   7.750
82531SOL    HW149367   9.796   9.469   7.786
82531SOL    HW249368   9.649   9.433   7.790
82532SOL     OW49369   9.394  11.522   7.012
82532SOL    HW149370   9.418  11.429   7.009
82532SOL    HW249371   9.443  11.562   6.940
82533SOL     OW49372   6.471  14.831   5.540
82533SOL    HW149373   6.390  14.863   5.581
82533SOL    HW249374   6.473  14.875   5.455
82534SOL     OW49375   9.521  13.424   5.503
82534SOL    HW149376   9.572  13.348   5.474
82534SOL    HW249377   9.478  13.456   5.423
82535SOL     OW49378   4.053   5.368  12.645
82535SOL    HW149379   4.109   5.325  12.709
82535SOL    HW249380   4.043   5.457  12.678
82536SOL     OW49381  12.042   2.328   0.251
82536SOL    HW149382  12.022   2.362   0.339
82536SOL    HW249383  11.959   2.293   0.220
82537SOL     OW49384   9.420   4.747   4.798
82537SOL    HW149385   9.405   4.798   4.878
82537SOL    HW249386   9.461   4.808   4.738
82538SOL     OW49387   4.627   3.281   5.019
82538SOL    HW149388   4.547   3.295   4.968
82538SOL    HW249389   4.611   3.326   5.101
82539SOL     OW49390  12.727   1.958   7.053
82539SOL    HW149391  12.659   2.011   7.094
82539SOL    HW249392  12.744   1.887   7.115
82540SOL     OW49393  11.160   1.796   2.807
82540SOL    HW149394  11.169   1.883   2.768
82540SOL    HW249395  11.239   1.784   2.859
82541SOL     OW49396   6.126   7.102   8.890
82541SOL    HW149397   6.135   7.141   8.803
82541SOL    HW249398   6.107   7.175   8.948
82542SOL     OW49399   5.418   0.612  14.102
82542SOL    HW149400   5.494   0.559  14.124
82542SOL    HW249401   5.343   0.555  14.122
82543SOL     OW49402  10.509  11.435   7.691
82543SOL    HW149403  10.518  11.347   7.653
82543SOL    HW249404  10.534  11.424   7.783
82544SOL     OW49405   6.859   5.493   7.091
82544SOL    HW149406   6.880   5.423   7.029
82544SOL    HW249407   6.850   5.571   7.036
82545SOL     OW49408   1.549   9.066   6.073
82545SOL    HW149409   1.637   9.064   6.036
82545SOL    HW249410   1.501   8.999   6.025
82546SOL     OW49411   7.042   0.004  11.282
82546SOL    HW149412   7.010  14.805  11.322
82546SOL    HW249413   7.040  14.867  11.188
82547SOL     OW49414   9.334   3.027  10.441
82547SOL    HW149415   9.299   3.049  10.355
82547SOL    HW249416   9.358   2.934  10.434
82548SOL     OW49417  14.089   4.332  13.502
82548SOL    HW149418  14.146   4.257  13.519
82548SOL    HW249419  14.117   4.398  13.566
82549SOL     OW49420  14.537   0.077  10.564
82549SOL    HW149421  14.590   0.002  10.539
82549SOL    HW249422  14.567   0.148  10.507
82550SOL     OW49423   9.432   5.328   5.590
82550SOL    HW149424   9.449   5.421   5.580
82550SOL    HW249425   9.358   5.310   5.533
82551SOL     OW49426   9.361   8.281  12.381
82551SOL    HW149427   9.278   8.267  12.426
82551SOL    HW249428   9.418   8.211  12.413
82552SOL     OW49429   3.029   0.501  14.454
82552SOL    HW149430   2.962   0.569  14.456
82552SOL    HW249431   3.103   0.539  14.502
82553SOL     OW49432   0.723   3.630   6.354
82553SOL    HW149433   0.663   3.557   6.339
82553SOL    HW249434   0.704   3.691   6.282
82554SOL     OW49435   4.720   6.394   2.048
82554SOL    HW149436   4.736   6.302   2.027
82554SOL    HW249437   4.673   6.428   1.971
82555SOL     OW49438   7.787   2.890   6.117
82555SOL    HW149439   7.795   2.795   6.124
82555SOL    HW249440   7.752   2.917   6.202
82556SOL     OW49441  14.426  11.657  11.288
82556SOL    HW149442  14.516  11.623  11.289
82556SOL    HW249443  14.409  11.675  11.195
82557SOL     OW49444  11.543  12.602   0.095
82557SOL    HW149445  11.591  12.520   0.085
82557SOL    HW249446  11.475  12.598   0.028
82558SOL     OW49447   2.874  14.455  14.151
82558SOL    HW149448   2.944  14.520  14.162
82558SOL    HW249449   2.796  14.497  14.186
82559SOL     OW49450   1.724  14.594  11.084
82559SOL    HW149451   1.692  14.564  11.169
82559SOL    HW249452   1.666  14.553  11.020
82560SOL     OW49453   8.075  13.711   5.677
82560SOL    HW149454   7.985  13.720   5.647
82560SOL    HW249455   8.117  13.658   5.609
82561SOL     OW49456   7.583  11.130  10.252
82561SOL    HW149457   7.666  11.092  10.224
82561SOL    HW249458   7.528  11.126  10.173
82562SOL     OW49459   5.616   5.419   4.822
82562SOL    HW149460   5.646   5.505   4.793
82562SOL    HW249461   5.546   5.397   4.761
82563SOL     OW49462   3.645   4.814   0.067
82563SOL    HW149463   3.729   4.773   0.045
82563SOL    HW249464   3.616   4.767   0.146
82564SOL     OW49465   6.133   3.002   6.428
82564SOL    HW149466   6.142   2.949   6.508
82564SOL    HW249467   6.041   2.997   6.405
82565SOL     OW49468   0.309  10.742   2.525
82565SOL    HW149469   0.393  10.731   2.568
82565SOL    HW249470   0.247  10.758   2.596
82566SOL     OW49471   6.229   7.568  12.065
82566SOL    HW149472   6.220   7.527  11.979
82566SOL    HW249473   6.306   7.525  12.103
82567SOL     OW49474  13.855   9.559  10.049
82567SOL    HW149475  13.833   9.527  10.136
82567SOL    HW249476  13.811   9.498   9.990
82568SOL     OW49477  10.116   9.710  12.075
82568SOL    HW149478  10.119   9.804  12.093
82568SOL    HW249479  10.032   9.682  12.111
82569SOL     OW49480  12.286   2.213   0.519
82569SOL    HW149481  12.368   2.182   0.481
82569SOL    HW249482  12.239   2.253   0.445
82570SOL     OW49483   3.131   4.433   8.017
82570SOL    HW149484   3.225   4.420   8.007
82570SOL    HW249485   3.121   4.528   8.029
82571SOL     OW49486  12.244   8.282  13.275
82571SOL    HW149487  12.225   8.227  13.198
82571SOL    HW249488  12.303   8.229  13.328
82572SOL     OW49489   6.867   8.892   2.012
82572SOL    HW149490   6.947   8.923   2.053
82572SOL    HW249491   6.894   8.814   1.963
82573SOL     OW49492   0.072  14.590  13.053
82573SOL    HW149493  14.879  14.643  13.080
82573SOL    HW249494   0.138  14.653  13.026
82574SOL     OW49495   9.138   2.337  13.616
82574SOL    HW149496   9.076   2.385  13.561
82574SOL    HW249497   9.092   2.324  13.699
82575SOL     OW49498   7.911   5.532   5.932
82575SOL    HW149499   7.832   5.480   5.941
82575SOL    HW249500   7.976   5.471   5.897
82576SOL     OW49501   9.655   7.188   5.928
82576SOL    HW149502   9.748   7.208   5.913
82576SOL    HW249503   9.654   7.098   5.958
82577SOL     OW49504   4.932   8.417  11.993
82577SOL    HW149505   4.850   8.466  11.981
82577SOL    HW249506   4.995   8.484  12.020
82578SOL     OW49507   3.073  14.026   2.022
82578SOL    HW149508   3.037  13.945   1.987
82578SOL    HW249509   3.090  14.080   1.945
82579SOL     OW49510  12.347  13.062  10.831
82579SOL    HW149511  12.406  12.988  10.844
82579SOL    HW249512  12.260  13.023  10.824
82580SOL     OW49513   3.501  12.193   4.042
82580SOL    HW149514   3.430  12.230   3.990
82580SOL    HW249515   3.534  12.119   3.990
82581SOL     OW49516  10.099   1.592  12.895
82581SOL    HW149517  10.027   1.641  12.856
82581SOL    HW249518  10.089   1.607  12.989
82582SOL     OW49519  10.632   4.096   7.689
82582SOL    HW149520  10.648   4.072   7.598
82582SOL    HW249521  10.548   4.140   7.688
82583SOL     OW49522   9.020  11.690   7.011
82583SOL    HW149523   9.018  11.639   7.092
82583SOL    HW249524   8.953  11.649   6.956
82584SOL     OW49525   3.616   5.696   2.436
82584SOL    HW149526   3.589   5.618   2.484
82584SOL    HW249527   3.711   5.685   2.423
82585SOL     OW49528  12.942   1.472  14.704
82585SOL    HW149529  12.903   1.445  14.621
82585SOL    HW249530  12.886   1.432  14.771
82586SOL     OW49531   3.887   3.378   5.480
82586SOL    HW149532   3.963   3.322   5.464
82586SOL    HW249533   3.910   3.429   5.558
82587SOL     OW49534   5.758   5.389   8.827
82587SOL    HW149535   5.737   5.410   8.736
82587SOL    HW249536   5.789   5.298   8.823
82588SOL     OW49537   4.119   7.357  13.961
82588SOL    HW149538   4.140   7.377  14.052
82588SOL    HW249539   4.165   7.425  13.911
82589SOL     OW49540   1.182   7.963   5.001
82589SOL    HW149541   1.212   8.041   4.953
82589SOL    HW249542   1.145   7.998   5.082
82590SOL     OW49543  14.732  13.358   2.753
82590SOL    HW149544  14.680  13.346   2.673
82590SOL    HW249545  14.715  13.279   2.804
82591SOL     OW49546  10.752  10.120   8.936
82591SOL    HW149547  10.714  10.052   8.880
82591SOL    HW249548  10.687  10.191   8.934
82592SOL     OW49549   9.413  11.247   1.860
82592SOL    HW149550   9.483  11.261   1.923
82592SOL    HW249551   9.446  11.180   1.801
82593SOL     OW49552  10.529   2.789  13.405
82593SOL    HW149553  10.486   2.770  13.322
82593SOL    HW249554  10.499   2.720  13.465
82594SOL     OW49555   7.556   1.656   3.803
82594SOL    HW149556   7.563   1.726   3.868
82594SOL    HW249557   7.556   1.702   3.719
82595SOL     OW49558   7.645   9.132  14.829
82595SOL    HW149559   7.614   9.219  14.851
82595SOL    HW249560   7.629   9.123  14.735
82596SOL     OW49561  12.210   5.155   2.605
82596SOL    HW149562  12.274   5.189   2.542
82596SOL    HW249563  12.128   5.197   2.582
82597SOL     OW49564   3.772   8.737   2.106
82597SOL    HW149565   3.808   8.664   2.055
82597SOL    HW249566   3.742   8.697   2.187
82598SOL     OW49567   4.761   2.367   3.408
82598SOL    HW149568   4.803   2.448   3.436
82598SOL    HW249569   4.720   2.333   3.488
82599SOL     OW49570   0.630  10.413  12.999
82599SOL    HW149571   0.620  10.364  13.081
82599SOL    HW249572   0.677  10.493  13.025
82600SOL     OW49573   2.616   8.077   5.744
82600SOL    HW149574   2.711   8.088   5.749
82600SOL    HW249575   2.585   8.103   5.831
82601SOL     OW49576   6.770   1.791  14.471
82601SOL    HW149577   6.682   1.753  14.469
82601SOL    HW249578   6.829   1.715  14.472
82602SOL     OW49579   6.247  10.553  13.718
82602SOL    HW149580   6.322  10.538  13.660
82602SOL    HW249581   6.174  10.570  13.658
82603SOL     OW49582  10.631   6.814   4.403
82603SOL    HW149583  10.549   6.784   4.364
82603SOL    HW249584  10.617   6.808   4.497
82604SOL     OW49585  13.927  13.707  10.278
82604SOL    HW149586  13.857  13.660  10.234
82604SOL    HW249587  13.929  13.670  10.367
82605SOL     OW49588   3.650   1.997   6.756
82605SOL    HW149589   3.619   1.930   6.816
82605SOL    HW249590   3.622   1.968   6.670
82606SOL     OW49591   4.284   8.408  12.700
82606SOL    HW149592   4.192   8.432  12.713
82606SOL    HW249593   4.330   8.446  12.774
82607SOL     OW49594  10.504   0.586  10.455
82607SOL    HW149595  10.480   0.538  10.376
82607SOL    HW249596  10.587   0.629  10.433
82608SOL     OW49597   3.489  13.035  10.645
82608SOL    HW149598   3.462  13.099  10.580
82608SOL    HW249599   3.431  12.960  10.630
82609SOL     OW49600   3.554   5.141  13.870
82609SOL    HW149601   3.571   5.236  13.869
82609SOL    HW249602   3.498   5.128  13.946
82610SOL     OW49603   4.765   0.975   6.228
82610SOL    HW149604   4.738   0.918   6.156
82610SOL    HW249605   4.825   1.038   6.187
82611SOL     OW49606  11.418  10.156  10.453
82611SOL    HW149607  11.397  10.080  10.507
82611SOL    HW249608  11.368  10.228  10.491
82612SOL     OW49609  14.821   1.207   7.980
82612SOL    HW149610  14.809   1.143   8.050
82612SOL    HW249611  14.843   1.155   7.903
82613SOL     OW49612   2.092   4.302   9.178
82613SOL    HW149613   2.114   4.393   9.201
82613SOL    HW249614   1.998   4.305   9.159
82614SOL     OW49615   7.490   5.318   9.761
82614SOL    HW149616   7.446   5.358   9.686
82614SOL    HW249617   7.476   5.224   9.749
82615SOL     OW49618  14.166  11.327   5.044
82615SOL    HW149619  14.193  11.366   5.127
82615SOL    HW249620  14.182  11.395   4.979
82616SOL     OW49621   8.281  10.889   5.276
82616SOL    HW149622   8.334  10.881   5.355
82616SOL    HW249623   8.338  10.858   5.206
82617SOL     OW49624   0.315   5.100   4.635
82617SOL    HW149625   0.229   5.060   4.637
82617SOL    HW249626   0.351   5.075   4.550
82618SOL     OW49627   0.222  12.049  14.303
82618SOL    HW149628   0.229  11.974  14.244
82618SOL    HW249629   0.284  12.032  14.373
82619SOL     OW49630   8.254  12.509  12.245
82619SOL    HW149631   8.296  12.593  12.227
82619SOL    HW249632   8.161  12.530  12.253
82620SOL     OW49633   9.358   6.354  12.471
82620SOL    HW149634   9.317   6.305  12.542
82620SOL    HW249635   9.361   6.292  12.398
82621SOL     OW49636  13.664  11.882  14.649
82621SOL    HW149637  13.715  11.802  14.638
82621SOL    HW249638  13.697  11.941  14.582
82622SOL     OW49639   4.941   8.115   9.061
82622SOL    HW149640   5.001   8.121   8.987
82622SOL    HW249641   4.998   8.117   9.138
82623SOL     OW49642   5.794   0.600  12.422
82623SOL    HW149643   5.736   0.585  12.496
82623SOL    HW249644   5.806   0.694  12.418
82624SOL     OW49645   1.995   3.108  10.172
82624SOL    HW149646   2.061   3.163  10.129
82624SOL    HW249647   2.013   3.019  10.139
82625SOL     OW49648  10.817  14.414   4.205
82625SOL    HW149649  10.858  14.443   4.286
82625SOL    HW249650  10.751  14.481   4.186
82626SOL     OW49651   0.044   0.363  14.218
82626SOL    HW149652  14.869   0.335  14.145
82626SOL    HW249653  14.881   0.439  14.254
82627SOL     OW49654  11.047   0.659   4.060
82627SOL    HW149655  11.143   0.669   4.057
82627SOL    HW249656  11.032   0.584   4.117
82628SOL     OW49657   7.462  13.125   9.650
82628SOL    HW149658   7.401  13.065   9.606
82628SOL    HW249659   7.531  13.068   9.683
82629SOL     OW49660   5.406  13.652   9.378
82629SOL    HW149661   5.462  13.621   9.450
82629SOL    HW249662   5.387  13.573   9.327
82630SOL     OW49663  14.244   7.678   6.239
82630SOL    HW149664  14.179   7.627   6.287
82630SOL    HW249665  14.213   7.768   6.246
82631SOL     OW49666   3.346   7.883   0.430
82631SOL    HW149667   3.258   7.873   0.465
82631SOL    HW249668   3.388   7.798   0.445
82632SOL     OW49669  13.578   3.410   9.590
82632SOL    HW149670  13.603   3.335   9.645
82632SOL    HW249671  13.657   3.431   9.540
82633SOL     OW49672   4.318   5.458   8.225
82633SOL    HW149673   4.381   5.386   8.217
82633SOL    HW249674   4.234   5.419   8.199
82634SOL     OW49675  12.333   0.280   6.574
82634SOL    HW149676  12.391   0.297   6.500
82634SOL    HW249677  12.387   0.296   6.651
82635SOL     OW49678   6.978  14.686   8.963
82635SOL    HW149679   7.028  14.631   8.902
82635SOL    HW249680   6.887  14.666   8.943
82636SOL     OW49681  11.820   6.409   1.752
82636SOL    HW149682  11.781   6.370   1.674
82636SOL    HW249683  11.832   6.336   1.813
82637SOL     OW49684  14.198  14.570   3.221
82637SOL    HW149685  14.286  14.607   3.235
82637SOL    HW249686  14.198  14.543   3.129
82638SOL     OW49687  14.724   0.242   8.997
82638SOL    HW149688  14.802   0.242   9.054
82638SOL    HW249689  14.652   0.221   9.056
82639SOL     OW49690   3.946   9.733   3.760
82639SOL    HW149691   3.990   9.652   3.734
82639SOL    HW249692   3.990   9.801   3.708
82640SOL     OW49693   1.235   2.432  12.876
82640SOL    HW149694   1.168   2.500  12.867
82640SOL    HW249695   1.187   2.358  12.916
82641SOL     OW49696   1.008   5.097   3.447
82641SOL    HW149697   1.018   5.178   3.497
82641SOL    HW249698   1.097   5.062   3.441
82642SOL     OW49699   7.042   0.044   2.049
82642SOL    HW149700   6.947   0.040   2.043
82642SOL    HW249701   7.059   0.111   2.115
82643SOL     OW49702   8.026   9.241   1.340
82643SOL    HW149703   7.991   9.315   1.291
82643SOL    HW249704   7.989   9.250   1.428
82644SOL     OW49705  14.207   5.472  13.597
82644SOL    HW149706  14.239   5.486  13.508
82644SOL    HW249707  14.271   5.517  13.652
82645SOL     OW49708   8.824   3.857   0.290
82645SOL    HW149709   8.895   3.806   0.250
82645SOL    HW249710   8.838   3.946   0.258
82646SOL     OW49711   7.623  12.071   6.472
82646SOL    HW149712   7.539  12.113   6.456
82646SOL    HW249713   7.688  12.135   6.441
82647SOL     OW49714  11.624   2.594   5.248
82647SOL    HW149715  11.683   2.628   5.315
82647SOL    HW249716  11.544   2.647   5.257
82648SOL     OW49717  13.602   9.390   0.591
82648SOL    HW149718  13.648   9.472   0.608
82648SOL    HW249719  13.522   9.417   0.545
82649SOL     OW49720   8.023   4.455  12.226
82649SOL    HW149721   7.963   4.528  12.214
82649SOL    HW249722   7.997   4.416  12.309
82650SOL     OW49723  13.386   4.687   1.193
82650SOL    HW149724  13.353   4.642   1.115
82650SOL    HW249725  13.326   4.761   1.205
82651SOL     OW49726  10.696   7.741  13.762
82651SOL    HW149727  10.734   7.801  13.697
82651SOL    HW249728  10.606   7.728  13.732
82652SOL     OW49729   7.614  10.877   7.255
82652SOL    HW149730   7.549  10.828   7.205
82652SOL    HW249731   7.695  10.868   7.204
82653SOL     OW49732  13.554   5.139   5.074
82653SOL    HW149733  13.485   5.203   5.058
82653SOL    HW249734  13.605   5.138   4.994
82654SOL     OW49735   9.256  11.988   7.832
82654SOL    HW149736   9.256  12.080   7.804
82654SOL    HW249737   9.334  11.951   7.790
82655SOL     OW49738   4.092  12.631   3.742
82655SOL    HW149739   4.056  12.573   3.675
82655SOL    HW249740   4.099  12.576   3.820
82656SOL     OW49741  10.069  13.067   5.813
82656SOL    HW149742   9.982  13.101   5.834
82656SOL    HW249743  10.110  13.052   5.898
82657SOL     OW49744   6.042   7.910   5.296
82657SOL    HW149745   6.047   7.973   5.368
82657SOL    HW249746   6.126   7.918   5.251
82658SOL     OW49747  12.728   3.913   7.676
82658SOL    HW149748  12.794   3.901   7.608
82658SOL    HW249749  12.652   3.866   7.644
82659SOL     OW49750   8.869   4.168   8.123
82659SOL    HW149751   8.802   4.148   8.188
82659SOL    HW249752   8.832   4.240   8.072
82660SOL     OW49753   2.050   9.226   8.945
82660SOL    HW149754   2.028   9.196   9.033
82660SOL    HW249755   1.990   9.178   8.887
82661SOL     OW49756   5.245   3.373  12.036
82661SOL    HW149757   5.226   3.352  11.945
82661SOL    HW249758   5.196   3.308  12.086
82662SOL     OW49759  13.077   6.863   0.384
82662SOL    HW149760  13.100   6.770   0.387
82662SOL    HW249761  13.107   6.892   0.297
82663SOL     OW49762   7.218   4.099   5.710
82663SOL    HW149763   7.164   4.128   5.783
82663SOL    HW249764   7.190   4.153   5.636
82664SOL     OW49765  12.103  13.336   0.951
82664SOL    HW149766  12.044  13.261   0.946
82664SOL    HW249767  12.122  13.359   0.860
82665SOL     OW49768   4.369  13.361   6.072
82665SOL    HW149769   4.312  13.428   6.108
82665SOL    HW249770   4.371  13.292   6.138
82666SOL     OW49771  12.787   6.724   1.885
82666SOL    HW149772  12.877   6.757   1.889
82666SOL    HW249773  12.735   6.788   1.934
82667SOL     OW49774   5.006  12.398  12.562
82667SOL    HW149775   4.949  12.382  12.487
82667SOL    HW249776   4.947  12.389  12.638
82668SOL     OW49777  10.510  14.196   1.083
82668SOL    HW149778  10.496  14.289   1.061
82668SOL    HW249779  10.543  14.157   1.002
82669SOL     OW49780  11.131  11.439  14.512
82669SOL    HW149781  11.055  11.389  14.543
82669SOL    HW249782  11.150  11.401  14.426
82670SOL     OW49783  11.199   8.309  10.833
82670SOL    HW149784  11.291   8.335  10.826
82670SOL    HW249785  11.201   8.224  10.876
82671SOL     OW49786   9.605   3.501  12.066
82671SOL    HW149787   9.645   3.554  12.135
82671SOL    HW249788   9.596   3.561  11.992
82672SOL     OW49789   0.481   5.319   8.294
82672SOL    HW149790   0.575   5.318   8.314
82672SOL    HW249791   0.464   5.235   8.252
82673SOL     OW49792   0.417   4.763   6.043
82673SOL    HW149793   0.401   4.675   6.009
82673SOL    HW249794   0.339   4.812   6.017
82674SOL     OW49795   2.755   4.396  14.369
82674SOL    HW149796   2.685   4.460  14.383
82674SOL    HW249797   2.802   4.429  14.292
82675SOL     OW49798  10.618  13.018   1.777
82675SOL    HW149799  10.562  13.018   1.854
82675SOL    HW249800  10.661  12.933   1.777
82676SOL     OW49801   3.020   0.456  13.772
82676SOL    HW149802   2.951   0.497  13.825
82676SOL    HW249803   2.999   0.362  13.774
82677SOL     OW49804  13.577   1.543   4.694
82677SOL    HW149805  13.555   1.563   4.785
82677SOL    HW249806  13.506   1.582   4.643
82678SOL     OW49807   2.774  13.719   9.480
82678SOL    HW149808   2.736  13.787   9.534
82678SOL    HW249809   2.772  13.640   9.534
82679SOL     OW49810  13.545  10.028   8.871
82679SOL    HW149811  13.582   9.953   8.918
82679SOL    HW249812  13.597  10.103   8.902
82680SOL     OW49813   1.638  12.208   6.934
82680SOL    HW149814   1.665  12.225   7.024
82680SOL    HW249815   1.686  12.274   6.882
82681SOL     OW49816   7.708   1.313  11.379
82681SOL    HW149817   7.691   1.401  11.346
82681SOL    HW249818   7.633   1.261  11.350
82682SOL     OW49819   7.453   9.114   4.559
82682SOL    HW149820   7.548   9.126   4.549
82682SOL    HW249821   7.430   9.170   4.633
82683SOL     OW49822  11.757  12.650  13.901
82683SOL    HW149823  11.784  12.632  13.991
82683SOL    HW249824  11.823  12.711  13.868
82684SOL     OW49825   3.424   4.679   8.727
82684SOL    HW149826   3.353   4.623   8.758
82684SOL    HW249827   3.403   4.766   8.763
82685SOL     OW49828  11.235   4.115  11.407
82685SOL    HW149829  11.323   4.088  11.383
82685SOL    HW249830  11.185   4.111  11.326
82686SOL     OW49831   3.076   9.933   4.158
82686SOL    HW149832   3.019   9.863   4.127
82686SOL    HW249833   3.139   9.946   4.086
82687SOL     OW49834  11.848   8.484  10.693
82687SOL    HW149835  11.796   8.526  10.625
82687SOL    HW249836  11.822   8.529  10.774
82688SOL     OW49837   0.239   6.290   0.765
82688SOL    HW149838   0.150   6.273   0.733
82688SOL    HW249839   0.293   6.284   0.686
82689SOL     OW49840  11.457   3.555   1.666
82689SOL    HW149841  11.370   3.595   1.661
82689SOL    HW249842  11.474   3.544   1.759
82690SOL     OW49843   3.772   4.471   7.198
82690SOL    HW149844   3.699   4.478   7.136
82690SOL    HW249845   3.734   4.426   7.274
82691SOL     OW49846   8.985   7.856   8.133
82691SOL    HW149847   9.010   7.771   8.097
82691SOL    HW249848   8.907   7.882   8.083
82692SOL     OW49849  13.106   5.882   1.637
82692SOL    HW149850  13.174   5.825   1.601
82692SOL    HW249851  13.056   5.911   1.560
82693SOL     OW49852  13.310   6.919   7.892
82693SOL    HW149853  13.255   6.995   7.912
82693SOL    HW249854  13.266   6.877   7.818
82694SOL     OW49855   9.294   0.491   7.358
82694SOL    HW149856   9.360   0.504   7.290
82694SOL    HW249857   9.211   0.491   7.310
82695SOL     OW49858   4.770   2.139   7.629
82695SOL    HW149859   4.849   2.187   7.654
82695SOL    HW249860   4.792   2.047   7.641
82696SOL     OW49861   3.236   4.478   5.043
82696SOL    HW149862   3.308   4.420   5.070
82696SOL    HW249863   3.201   4.511   5.126
82697SOL     OW49864   5.119  11.376   0.860
82697SOL    HW149865   5.135  11.299   0.915
82697SOL    HW249866   5.151  11.351   0.774
82698SOL     OW49867  13.981  11.723   2.008
82698SOL    HW149868  13.910  11.759   1.953
82698SOL    HW249869  13.957  11.631   2.020
82699SOL     OW49870  11.681   5.132   4.370
82699SOL    HW149871  11.658   5.196   4.437
82699SOL    HW249872  11.634   5.052   4.396
82700SOL     OW49873  13.829   0.410   9.890
82700SOL    HW149874  13.856   0.441   9.804
82700SOL    HW249875  13.734   0.402   9.883
82701SOL     OW49876   8.442   2.153   6.033
82701SOL    HW149877   8.377   2.223   6.025
82701SOL    HW249878   8.391   2.075   6.055
82702SOL     OW49879   7.919   3.834   1.630
82702SOL    HW149880   7.893   3.777   1.703
82702SOL    HW249881   7.983   3.894   1.667
82703SOL     OW49882   8.407  12.252   0.828
82703SOL    HW149883   8.375  12.309   0.899
82703SOL    HW249884   8.459  12.310   0.773
82704SOL     OW49885   6.038   7.162  12.939
82704SOL    HW149886   5.948   7.184  12.961
82704SOL    HW249887   6.058   7.216  12.862
82705SOL     OW49888   8.454  13.574  10.510
82705SOL    HW149889   8.408  13.619  10.581
82705SOL    HW249890   8.446  13.633  10.435
82706SOL     OW49891   2.424   5.882   2.250
82706SOL    HW149892   2.380   5.922   2.175
82706SOL    HW249893   2.378   5.799   2.263
82707SOL     OW49894   5.145   8.114   6.102
82707SOL    HW149895   5.225   8.166   6.097
82707SOL    HW249896   5.088   8.163   6.161
82708SOL     OW49897   0.929  13.069   1.625
82708SOL    HW149898   0.851  13.079   1.571
82708SOL    HW249899   0.999  13.048   1.562
82709SOL     OW49900   3.597  12.782  10.513
82709SOL    HW149901   3.636  12.869  10.525
82709SOL    HW249902   3.512  12.800  10.472
82710SOL     OW49903   0.341  11.821   5.448
82710SOL    HW149904   0.404  11.798   5.516
82710SOL    HW249905   0.370  11.770   5.372
82711SOL     OW49906  12.155   7.928   1.730
82711SOL    HW149907  12.212   7.854   1.711
82711SOL    HW249908  12.213   7.995   1.766
82712SOL     OW49909   7.148   7.631   3.772
82712SOL    HW149910   7.126   7.724   3.773
82712SOL    HW249911   7.084   7.591   3.831
82713SOL     OW49912  13.580   9.776   8.959
82713SOL    HW149913  13.663   9.737   8.929
82713SOL    HW249914  13.513   9.712   8.934
82714SOL     OW49915   9.887   1.496   7.880
82714SOL    HW149916   9.794   1.471   7.881
82714SOL    HW249917   9.898   1.553   7.956
82715SOL     OW49918   7.100   3.675   6.790
82715SOL    HW149919   7.078   3.683   6.883
82715SOL    HW249920   7.169   3.609   6.788
82716SOL     OW49921   5.321   6.449  10.778
82716SOL    HW149922   5.392   6.512  10.765
82716SOL    HW249923   5.315   6.438  10.872
82717SOL     OW49924  10.392   3.915  11.781
82717SOL    HW149925  10.392   3.823  11.754
82717SOL    HW249926  10.324   3.921  11.847
82718SOL     OW49927   4.435   2.735   6.741
82718SOL    HW149928   4.446   2.693   6.826
82718SOL    HW249929   4.484   2.817   6.750
82719SOL     OW49930  13.201   1.249  12.184
82719SOL    HW149931  13.184   1.240  12.278
82719SOL    HW249932  13.266   1.181  12.164
82720SOL     OW49933   7.221   3.251   9.410
82720SOL    HW149934   7.214   3.288   9.322
82720SOL    HW249935   7.224   3.327   9.467
82721SOL     OW49936   5.209   0.452   3.194
82721SOL    HW149937   5.287   0.403   3.169
82721SOL    HW249938   5.242   0.529   3.239
82722SOL     OW49939  14.435   9.176   8.430
82722SOL    HW149940  14.459   9.098   8.479
82722SOL    HW249941  14.376   9.224   8.489
82723SOL     OW49942   0.596   5.689   1.454
82723SOL    HW149943   0.617   5.648   1.538
82723SOL    HW249944   0.681   5.706   1.414
82724SOL     OW49945   1.070   5.293  12.571
82724SOL    HW149946   1.140   5.343  12.612
82724SOL    HW249947   1.033   5.353  12.506
82725SOL     OW49948  11.378   7.745   5.654
82725SOL    HW149949  11.442   7.815   5.667
82725SOL    HW249950  11.303   7.770   5.708
82726SOL     OW49951  13.030  12.872   1.551
82726SOL    HW149952  13.056  12.825   1.472
82726SOL    HW249953  13.083  12.833   1.621
82727SOL     OW49954   0.548   9.947   5.135
82727SOL    HW149955   0.480   9.920   5.197
82727SOL    HW249956   0.507   9.939   5.050
82728SOL     OW49957  11.572  13.206   3.739
82728SOL    HW149958  11.639  13.150   3.778
82728SOL    HW249959  11.588  13.201   3.645
82729SOL     OW49960   0.731   2.388   8.116
82729SOL    HW149961   0.703   2.474   8.147
82729SOL    HW249962   0.658   2.358   8.061
82730SOL     OW49963   2.245   2.803   7.322
82730SOL    HW149964   2.294   2.722   7.317
82730SOL    HW249965   2.310   2.872   7.308
82731SOL     OW49966   9.137   5.347   8.004
82731SOL    HW149967   9.175   5.293   7.935
82731SOL    HW249968   9.049   5.311   8.017
82732SOL     OW49969  14.341   5.215  12.345
82732SOL    HW149970  14.406   5.279  12.375
82732SOL    HW249971  14.259   5.242  12.387
82733SOL     OW49972   5.458  12.810  11.882
82733SOL    HW149973   5.441  12.903  11.868
82733SOL    HW249974   5.548  12.806  11.913
82734SOL     OW49975   2.735  11.729   5.860
82734SOL    HW149976   2.693  11.787   5.797
82734SOL    HW249977   2.798  11.679   5.808
82735SOL     OW49978  14.732   7.636   5.732
82735SOL    HW149979  14.696   7.617   5.645
82735SOL    HW249980  14.674   7.702   5.768
82736SOL     OW49981   6.235   2.579  13.886
82736SOL    HW149982   6.163   2.637  13.910
82736SOL    HW249983   6.217   2.555  13.795
82737SOL     OW49984  11.686   6.651   1.758
82737SOL    HW149985  11.608   6.651   1.703
82737SOL    HW249986  11.719   6.561   1.753
82738SOL     OW49987   1.969   1.548   2.444
82738SOL    HW149988   1.934   1.459   2.443
82738SOL    HW249989   1.996   1.563   2.353
82739SOL     OW49990  13.636   1.157   2.055
82739SOL    HW149991  13.620   1.196   2.141
82739SOL    HW249992  13.669   1.069   2.073
82740SOL     OW49993   1.352   2.587   6.476
82740SOL    HW149994   1.295   2.515   6.503
82740SOL    HW249995   1.309   2.623   6.398
82741SOL     OW49996  12.911  14.379  13.581
82741SOL    HW149997  12.973  14.347  13.646
82741SOL    HW249998  12.884  14.301  13.533
82742SOL     OW49999   9.320   0.821  11.362
82742SOL    HW150000   9.300   0.754  11.296
82742SOL    HW250001   9.266   0.896  11.338
82743SOL     OW50002   2.797   5.222  14.037
82743SOL    HW150003   2.829   5.282  13.969
82743SOL    HW250004   2.796   5.275  14.117
82744SOL     OW50005   1.129  12.521   8.551
82744SOL    HW150006   1.173  12.446   8.511
82744SOL    HW250007   1.186  12.547   8.624
82745SOL     OW50008   5.739   4.518   9.165
82745SOL    HW150009   5.731   4.535   9.071
82745SOL    HW250010   5.678   4.446   9.181
82746SOL     OW50011   6.662   2.614   6.523
82746SOL    HW150012   6.722   2.542   6.542
82746SOL    HW250013   6.616   2.586   6.443
82747SOL     OW50014  11.979   2.035  12.732
82747SOL    HW150015  11.912   2.094  12.697
82747SOL    HW250016  11.975   2.048  12.827
82748SOL     OW50017  10.275   2.223  10.395
82748SOL    HW150018  10.344   2.287  10.375
82748SOL    HW250019  10.318   2.158  10.451
82749SOL     OW50020  11.191  10.965  14.612
82749SOL    HW150021  11.266  10.975  14.553
82749SOL    HW250022  11.154  11.053  14.619
82750SOL     OW50023   2.466  10.330  14.771
82750SOL    HW150024   2.425  10.335  14.858
82750SOL    HW250025   2.413  10.387  14.716
82751SOL     OW50026   4.658  10.347   1.201
82751SOL    HW150027   4.626  10.426   1.157
82751SOL    HW250028   4.675  10.375   1.291
82752SOL     OW50029  12.560   3.610   9.260
82752SOL    HW150030  12.484   3.653   9.300
82752SOL    HW250031  12.567   3.526   9.306
82753SOL     OW50032  12.651  12.735  13.919
82753SOL    HW150033  12.713  12.666  13.944
82753SOL    HW250034  12.704  12.814  13.914
82754SOL     OW50035   6.038   2.303   1.071
82754SOL    HW150036   6.068   2.369   1.133
82754SOL    HW250037   6.113   2.288   1.013
82755SOL     OW50038   5.770   3.989   4.879
82755SOL    HW150039   5.694   3.948   4.922
82755SOL    HW250040   5.782   4.071   4.926
82756SOL     OW50041   8.868  10.354  10.967
82756SOL    HW150042   8.943  10.300  10.944
82756SOL    HW250043   8.812  10.351  10.889
82757SOL     OW50044   4.164  12.886   7.109
82757SOL    HW150045   4.176  12.792   7.101
82757SOL    HW250046   4.114  12.911   7.031
82758SOL     OW50047   2.296  13.519  10.847
82758SOL    HW150048   2.363  13.579  10.813
82758SOL    HW250049   2.304  13.441  10.793
82759SOL     OW50050   2.602   9.962  13.524
82759SOL    HW150051   2.689  10.002  13.528
82759SOL    HW250052   2.618   9.868  13.524
82760SOL     OW50053   5.429   0.463   5.897
82760SOL    HW150054   5.442   0.415   5.979
82760SOL    HW250055   5.518   0.474   5.861
82761SOL     OW50056   0.847   6.653   0.202
82761SOL    HW150057   0.776   6.588   0.197
82761SOL    HW250058   0.906   6.630   0.130
82762SOL     OW50059   8.587  11.857   5.086
82762SOL    HW150060   8.586  11.893   4.997
82762SOL    HW250061   8.618  11.767   5.074
82763SOL     OW50062   8.106   4.859  12.298
82763SOL    HW150063   8.157   4.815  12.230
82763SOL    HW250064   8.040   4.909  12.250
82764SOL     OW50065   4.376   2.382   0.105
82764SOL    HW150066   4.339   2.361   0.018
82764SOL    HW250067   4.416   2.300   0.134
82765SOL     OW50068  10.337   3.542   6.522
82765SOL    HW150069  10.421   3.578   6.549
82765SOL    HW250070  10.273   3.607   6.550
82766SOL     OW50071   8.514  12.515   1.703
82766SOL    HW150072   8.492  12.533   1.795
82766SOL    HW250073   8.512  12.600   1.660
82767SOL     OW50074   3.359   8.638  13.968
82767SOL    HW150075   3.353   8.622  14.062
82767SOL    HW250076   3.404   8.561  13.933
82768SOL     OW50077  13.492  10.198   3.970
82768SOL    HW150078  13.491  10.291   3.948
82768SOL    HW250079  13.447  10.156   3.896
82769SOL     OW50080   0.675   1.629   7.346
82769SOL    HW150081   0.695   1.674   7.428
82769SOL    HW250082   0.759   1.625   7.300
82770SOL     OW50083  14.530  13.963  14.707
82770SOL    HW150084  14.515  14.056  14.722
82770SOL    HW250085  14.541  13.956  14.612
82771SOL     OW50086  13.258   9.619   5.766
82771SOL    HW150087  13.232   9.693   5.710
82771SOL    HW250088  13.350   9.603   5.743
82772SOL     OW50089   4.156   7.713   5.476
82772SOL    HW150090   4.208   7.792   5.492
82772SOL    HW250091   4.088   7.716   5.543
82773SOL     OW50092   4.048   7.657   4.832
82773SOL    HW150093   4.110   7.608   4.886
82773SOL    HW250094   4.017   7.593   4.767
82774SOL     OW50095   1.770  12.760   6.818
82774SOL    HW150096   1.787  12.700   6.745
82774SOL    HW250097   1.776  12.847   6.779
82775SOL     OW50098  10.762   1.444  14.522
82775SOL    HW150099  10.704   1.519  14.536
82775SOL    HW250100  10.770   1.438  14.427
82776SOL     OW50101  14.757   9.351   3.656
82776SOL    HW150102  14.798   9.308   3.731
82776SOL    HW250103  14.748   9.281   3.591
82777SOL     OW50104   0.403   6.284   7.627
82777SOL    HW150105   0.380   6.192   7.632
82777SOL    HW250106   0.328   6.326   7.584
82778SOL     OW50107   3.102   2.134   8.019
82778SOL    HW150108   3.116   2.048   7.980
82778SOL    HW250109   3.142   2.195   7.957
82779SOL     OW50110   0.781   3.581   9.967
82779SOL    HW150111   0.762   3.488   9.977
82779SOL    HW250112   0.778   3.597   9.872
82780SOL     OW50113   2.648   1.486   7.021
82780SOL    HW150114   2.620   1.497   6.930
82780SOL    HW250115   2.697   1.404   7.021
82781SOL     OW50116  13.100   8.048  11.086
82781SOL    HW150117  13.084   8.143  11.092
82781SOL    HW250118  13.015   8.008  11.104
82782SOL     OW50119   8.590   7.032  10.003
82782SOL    HW150120   8.503   7.067  10.022
82782SOL    HW250121   8.643   7.059  10.077
82783SOL     OW50122  10.113  10.228  10.874
82783SOL    HW150123  10.165  10.231  10.955
82783SOL    HW250124  10.076  10.140  10.873
82784SOL     OW50125   2.803   2.020  12.293
82784SOL    HW150126   2.717   1.995  12.260
82784SOL    HW250127   2.849   2.056  12.217
82785SOL     OW50128  10.330   3.543  10.744
82785SOL    HW150129  10.314   3.528  10.837
82785SOL    HW250130  10.245   3.527  10.702
82786SOL     OW50131   5.771   1.549   9.261
82786SOL    HW150132   5.860   1.566   9.232
82786SOL    HW250133   5.766   1.453   9.266
82787SOL     OW50134  12.331   3.406  12.542
82787SOL    HW150135  12.323   3.320  12.501
82787SOL    HW250136  12.420   3.407  12.578
82788SOL     OW50137   0.332  11.659  11.186
82788SOL    HW150138   0.373  11.578  11.156
82788SOL    HW250139   0.320  11.646  11.280
82789SOL     OW50140  12.672  11.898   7.798
82789SOL    HW150141  12.704  11.824   7.849
82789SOL    HW250142  12.736  11.968   7.813
82790SOL     OW50143  12.751   8.397  13.918
82790SOL    HW150144  12.722   8.332  13.983
82790SOL    HW250145  12.722   8.481  13.953
82791SOL     OW50146   2.607   0.332  11.352
82791SOL    HW150147   2.585   0.347  11.444
82791SOL    HW250148   2.588   0.416  11.309
82792SOL     OW50149  13.043  11.808   4.790
82792SOL    HW150150  13.116  11.770   4.740
82792SOL    HW250151  13.084  11.874   4.846
82793SOL     OW50152   6.780   4.401  13.534
82793SOL    HW150153   6.766   4.496  13.532
82793SOL    HW250154   6.740   4.370  13.452
82794SOL     OW50155   5.868  13.327   6.481
82794SOL    HW150156   5.889  13.277   6.402
82794SOL    HW250157   5.950  13.369   6.506
82795SOL     OW50158   7.231  10.681   9.757
82795SOL    HW150159   7.136  10.686   9.754
82795SOL    HW250160   7.260  10.721   9.675
82796SOL     OW50161  14.363   1.478   3.479
82796SOL    HW150162  14.317   1.396   3.499
82796SOL    HW250163  14.438   1.478   3.538
82797SOL     OW50164   1.399   7.455   8.054
82797SOL    HW150165   1.488   7.442   8.023
82797SOL    HW250166   1.408   7.497   8.139
82798SOL     OW50167  12.327   4.342   4.239
82798SOL    HW150168  12.381   4.352   4.161
82798SOL    HW250169  12.237   4.343   4.206
82799SOL     OW50170   6.173   2.150   1.462
82799SOL    HW150171   6.237   2.171   1.529
82799SOL    HW250172   6.225   2.124   1.386
82800SOL     OW50173   5.182  13.445   4.543
82800SOL    HW150174   5.147  13.527   4.579
82800SOL    HW250175   5.119  13.378   4.570
82801SOL     OW50176  10.954   5.710   2.122
82801SOL    HW150177  11.028   5.680   2.175
82801SOL    HW250178  10.931   5.795   2.159
82802SOL     OW50179  12.380   3.213  10.241
82802SOL    HW150180  12.285   3.212  10.252
82802SOL    HW250181  12.412   3.154  10.309
82803SOL     OW50182   8.965   6.297   2.028
82803SOL    HW150183   8.885   6.302   1.975
82803SOL    HW250184   8.965   6.377   2.080
82804SOL     OW50185  12.207   5.461   3.440
82804SOL    HW150186  12.277   5.474   3.504
82804SOL    HW250187  12.253   5.453   3.356
82805SOL     OW50188   4.070  12.419   0.936
82805SOL    HW150189   4.155  12.437   0.977
82805SOL    HW250190   4.037  12.505   0.909
82806SOL     OW50191   4.115  12.824   9.384
82806SOL    HW150192   4.166  12.893   9.342
82806SOL    HW250193   4.078  12.865   9.462
82807SOL     OW50194   5.554   1.137   6.597
82807SOL    HW150195   5.494   1.172   6.532
82807SOL    HW250196   5.564   1.045   6.574
82808SOL     OW50197   5.235  10.437  13.399
82808SOL    HW150198   5.223  10.519  13.351
82808SOL    HW250199   5.183  10.448  13.478
82809SOL     OW50200   5.709   1.891  11.992
82809SOL    HW150201   5.775   1.915  11.926
82809SOL    HW250202   5.634   1.947  11.971
82810SOL     OW50203   6.051  13.488   3.414
82810SOL    HW150204   6.014  13.415   3.364
82810SOL    HW250205   6.133  13.508   3.369
82811SOL     OW50206   6.137  13.807  12.995
82811SOL    HW150207   6.070  13.827  13.060
82811SOL    HW250208   6.087  13.785  12.916
82812SOL     OW50209   2.913   6.548   1.489
82812SOL    HW150210   2.980   6.529   1.424
82812SOL    HW250211   2.962   6.562   1.571
82813SOL     OW50212   5.891  12.826   3.978
82813SOL    HW150213   5.818  12.825   3.917
82813SOL    HW250214   5.941  12.747   3.957
82814SOL     OW50215  10.023   7.575  12.918
82814SOL    HW150216  10.107   7.620  12.929
82814SOL    HW250217   9.998   7.550  13.007
82815SOL     OW50218   9.027  11.438  12.727
82815SOL    HW150219   8.940  11.470  12.750
82815SOL    HW250220   9.049  11.377  12.797
82816SOL     OW50221   4.854   4.114   5.932
82816SOL    HW150222   4.759   4.100   5.936
82816SOL    HW250223   4.868   4.194   5.983
82817SOL     OW50224   2.057  13.919   1.502
82817SOL    HW150225   1.985  13.944   1.443
82817SOL    HW250226   2.104  14.001   1.517
82818SOL     OW50227  12.603   1.768  11.522
82818SOL    HW150228  12.661   1.714  11.576
82818SOL    HW250229  12.519   1.766  11.568
82819SOL     OW50230  12.811   3.474  14.714
82819SOL    HW150231  12.726   3.512  14.691
82819SOL    HW250232  12.830   3.511  14.801
82820SOL     OW50233  13.033   7.155   6.076
82820SOL    HW150234  13.066   7.244   6.063
82820SOL    HW250235  12.939   7.167   6.090
82821SOL     OW50236   3.019  12.780   5.374
82821SOL    HW150237   3.114  12.792   5.380
82821SOL    HW250238   2.993  12.747   5.460
82822SOL     OW50239   6.707  13.174  14.296
82822SOL    HW150240   6.765  13.241  14.260
82822SOL    HW250241   6.752  13.143  14.375
82823SOL     OW50242  13.654   6.366  12.231
82823SOL    HW150243  13.711   6.391  12.303
82823SOL    HW250244  13.713   6.337  12.162
82824SOL     OW50245  11.846  13.014   2.974
82824SOL    HW150246  11.809  13.102   2.967
82824SOL    HW250247  11.855  12.984   2.883
82825SOL     OW50248  10.981   7.213  11.052
82825SOL    HW150249  11.061   7.215  11.000
82825SOL    HW250250  10.914   7.183  10.992
82826SOL     OW50251   2.652   1.440   3.758
82826SOL    HW150252   2.639   1.349   3.787
82826SOL    HW250253   2.699   1.481   3.831
82827SOL     OW50254   6.936   0.033  10.523
82827SOL    HW150255   6.995  14.849  10.486
82827SOL    HW250256   6.857   0.028  10.468
82828SOL     OW50257  11.642   4.602   5.034
82828SOL    HW150258  11.591   4.561   4.964
82828SOL    HW250259  11.731   4.570   5.021
82829SOL     OW50260   4.763  10.483   4.830
82829SOL    HW150261   4.833  10.504   4.892
82829SOL    HW250262   4.798  10.409   4.780
82830SOL     OW50263  13.242   5.079   0.460
82830SOL    HW150264  13.336   5.091   0.456
82830SOL    HW250265  13.205   5.162   0.430
82831SOL     OW50266   0.766   4.433   9.183
82831SOL    HW150267   0.735   4.516   9.217
82831SOL    HW250268   0.762   4.373   9.258
82832SOL     OW50269   1.248   8.431   7.790
82832SOL    HW150270   1.248   8.452   7.696
82832SOL    HW250271   1.255   8.516   7.833
82833SOL     OW50272   4.119   0.552  10.772
82833SOL    HW150273   4.116   0.457  10.786
82833SOL    HW250274   4.189   0.583  10.830
82834SOL     OW50275   3.721  13.646   5.508
82834SOL    HW150276   3.664  13.579   5.468
82834SOL    HW250277   3.691  13.728   5.469
82835SOL     OW50278   4.842   8.325  11.040
82835SOL    HW150279   4.924   8.305  11.084
82835SOL    HW250280   4.830   8.419  11.054
82836SOL     OW50281  10.758   1.936   3.833
82836SOL    HW150282  10.735   1.996   3.904
82836SOL    HW250283  10.835   1.975   3.792
82837SOL     OW50284  11.340   4.582   4.409
82837SOL    HW150285  11.430   4.613   4.398
82837SOL    HW250286  11.321   4.534   4.328
82838SOL     OW50287  11.717  14.302   2.629
82838SOL    HW150288  11.678  14.282   2.715
82838SOL    HW250289  11.778  14.230   2.613
82839SOL     OW50290  12.938  11.081  11.160
82839SOL    HW150291  13.029  11.060  11.137
82839SOL    HW250292  12.901  11.000  11.193
82840SOL     OW50293  11.273  12.267  13.053
82840SOL    HW150294  11.202  12.331  13.047
82840SOL    HW250295  11.239  12.200  13.113
82841SOL     OW50296   8.143   8.484   9.477
82841SOL    HW150297   8.187   8.401   9.462
82841SOL    HW250298   8.143   8.494   9.573
82842SOL     OW50299  12.285   0.647   9.627
82842SOL    HW150300  12.280   0.627   9.721
82842SOL    HW250301  12.284   0.743   9.623
82843SOL     OW50302  13.899   6.953   6.074
82843SOL    HW150303  13.972   6.972   6.132
82843SOL    HW250304  13.917   6.865   6.041
82844SOL     OW50305   7.906  14.250  10.362
82844SOL    HW150306   7.952  14.295  10.291
82844SOL    HW250307   7.859  14.320  10.408
82845SOL     OW50308   4.338   4.972   5.130
82845SOL    HW150309   4.320   5.005   5.218
82845SOL    HW250310   4.299   4.884   5.129
82846SOL     OW50311   3.193   7.199  10.493
82846SOL    HW150312   3.167   7.133  10.428
82846SOL    HW250313   3.279   7.169  10.524
82847SOL     OW50314   0.563   3.297   6.183
82847SOL    HW150315   0.647   3.255   6.166
82847SOL    HW250316   0.500   3.247   6.132
82848SOL     OW50317   8.627  13.780   3.444
82848SOL    HW150318   8.614  13.805   3.353
82848SOL    HW250319   8.597  13.689   3.449
82849SOL     OW50320  10.552   4.741   8.049
82849SOL    HW150321  10.601   4.792   8.114
82849SOL    HW250322  10.481   4.799   8.022
82850SOL     OW50323   3.951   0.580   0.628
82850SOL    HW150324   4.029   0.635   0.643
82850SOL    HW250325   3.878   0.636   0.654
82851SOL     OW50326   3.311  13.041   1.292
82851SOL    HW150327   3.344  12.996   1.214
82851SOL    HW250328   3.264  12.974   1.341
82852SOL     OW50329  14.166  14.603   9.956
82852SOL    HW150330  14.111  14.530   9.928
82852SOL    HW250331  14.169  14.595  10.051
82853SOL     OW50332   0.401   7.476   2.926
82853SOL    HW150333   0.341   7.506   2.857
82853SOL    HW250334   0.356   7.499   3.007
82854SOL     OW50335   9.867  10.167  14.602
82854SOL    HW150336   9.867  10.260  14.623
82854SOL    HW250337   9.960  10.142  14.601
82855SOL     OW50338   0.144   6.375   7.147
82855SOL    HW150339   0.057   6.345   7.120
82855SOL    HW250340   0.155   6.459   7.102
82856SOL     OW50341   0.265  10.589   9.832
82856SOL    HW150342   0.189  10.648   9.834
82856SOL    HW250343   0.336  10.641   9.869
82857SOL     OW50344  11.532  10.149  14.599
82857SOL    HW150345  11.457  10.092  14.621
82857SOL    HW250346  11.508  10.189  14.515
82858SOL     OW50347   7.511   9.212   5.953
82858SOL    HW150348   7.570   9.162   5.897
82858SOL    HW250349   7.521   9.174   6.040
82859SOL     OW50350   9.704  10.716   3.883
82859SOL    HW150351   9.694  10.764   3.965
82859SOL    HW250352   9.615  10.706   3.850
82860SOL     OW50353   4.784   3.906  14.125
82860SOL    HW150354   4.840   3.829  14.131
82860SOL    HW250355   4.831   3.965  14.067
82861SOL     OW50356  11.869   6.531  12.220
82861SOL    HW150357  11.942   6.478  12.253
82861SOL    HW250358  11.853   6.497  12.131
82862SOL     OW50359   4.535  11.810   4.167
82862SOL    HW150360   4.563  11.901   4.158
82862SOL    HW250361   4.441  11.815   4.183
82863SOL     OW50362   0.149   5.794  13.229
82863SOL    HW150363   0.244   5.807  13.222
82863SOL    HW250364   0.112   5.849  13.160
82864SOL     OW50365  12.837   4.416  10.819
82864SOL    HW150366  12.789   4.333  10.809
82864SOL    HW250367  12.798   4.456  10.897
82865SOL     OW50368  11.144  10.602   2.586
82865SOL    HW150369  11.133  10.593   2.492
82865SOL    HW250370  11.227  10.558   2.605
82866SOL     OW50371   7.564  11.215   5.826
82866SOL    HW150372   7.572  11.232   5.920
82866SOL    HW250373   7.649  11.179   5.801
82867SOL     OW50374  14.414   3.800  10.084
82867SOL    HW150375  14.401   3.825  10.175
82867SOL    HW250376  14.429   3.705  10.087
82868SOL     OW50377   5.995   4.909   4.445
82868SOL    HW150378   6.078   4.933   4.487
82868SOL    HW250379   5.980   4.978   4.381
82869SOL     OW50380   6.600   4.864   3.300
82869SOL    HW150381   6.567   4.844   3.388
82869SOL    HW250382   6.674   4.923   3.315
82870SOL     OW50383  11.848   3.933   3.491
82870SOL    HW150384  11.943   3.932   3.499
82870SOL    HW250385  11.817   3.878   3.563
82871SOL     OW50386  13.460   4.997   6.705
82871SOL    HW150387  13.550   4.971   6.684
82871SOL    HW250388  13.430   4.931   6.768
82872SOL     OW50389   3.156   7.938  12.396
82872SOL    HW150390   3.136   7.906  12.484
82872SOL    HW250391   3.239   7.985  12.405
82873SOL     OW50392   3.878  10.964  13.405
82873SOL    HW150393   3.824  10.964  13.484
82873SOL    HW250394   3.893  10.872  13.385
82874SOL     OW50395  14.818   0.810   2.742
82874SOL    HW150396  14.775   0.896   2.742
82874SOL    HW250397  14.870   0.808   2.822
82875SOL     OW50398  14.230   3.698  14.438
82875SOL    HW150399  14.290   3.765  14.404
82875SOL    HW250400  14.229   3.713  14.533
82876SOL     OW50401  14.239   2.132   1.390
82876SOL    HW150402  14.162   2.081   1.416
82876SOL    HW250403  14.233   2.136   1.295
82877SOL     OW50404   3.192   7.610   4.015
82877SOL    HW150405   3.217   7.606   3.923
82877SOL    HW250406   3.245   7.680   4.052
82878SOL     OW50407  13.554   3.898  11.592
82878SOL    HW150408  13.512   3.953  11.525
82878SOL    HW250409  13.582   3.960  11.659
82879SOL     OW50410   4.494   2.165  13.601
82879SOL    HW150411   4.580   2.124  13.607
82879SOL    HW250412   4.482   2.182  13.507
82880SOL     OW50413   7.201   7.339   9.220
82880SOL    HW150414   7.280   7.384   9.192
82880SOL    HW250415   7.229   7.249   9.235
82881SOL     OW50416  11.353   1.183  14.401
82881SOL    HW150417  11.303   1.118  14.351
82881SOL    HW250418  11.427   1.133  14.436
82882SOL     OW50419  12.868   9.070  14.109
82882SOL    HW150420  12.840   9.138  14.171
82882SOL    HW250421  12.963   9.081  14.103
82883SOL     OW50422  14.396   1.159   6.492
82883SOL    HW150423  14.481   1.117   6.485
82883SOL    HW250424  14.415   1.253   6.496
82884SOL     OW50425   0.755   7.802   6.023
82884SOL    HW150426   0.820   7.732   6.027
82884SOL    HW250427   0.726   7.803   5.932
82885SOL     OW50428   5.960   8.226   0.399
82885SOL    HW150429   5.964   8.315   0.365
82885SOL    HW250430   5.867   8.207   0.404
82886SOL     OW50431  13.253   4.603   0.975
82886SOL    HW150432  13.283   4.575   0.889
82886SOL    HW250433  13.164   4.634   0.960
82887SOL     OW50434   2.896   3.997  14.570
82887SOL    HW150435   2.856   4.077  14.603
82887SOL    HW250436   2.903   3.940  14.647
82888SOL     OW50437   3.832   2.679   4.067
82888SOL    HW150438   3.808   2.738   3.996
82888SOL    HW250439   3.766   2.610   4.064
82889SOL     OW50440   7.406   8.567  14.262
82889SOL    HW150441   7.462   8.532  14.193
82889SOL    HW250442   7.318   8.537  14.240
82890SOL     OW50443   0.312  10.363  14.247
82890SOL    HW150444   0.296  10.279  14.290
82890SOL    HW250445   0.327  10.340  14.155
82891SOL     OW50446   0.624  13.325   8.785
82891SOL    HW150447   0.566  13.335   8.710
82891SOL    HW250448   0.667  13.410   8.793
82892SOL     OW50449   4.414   5.591  12.924
82892SOL    HW150450   4.352   5.575  12.995
82892SOL    HW250451   4.499   5.595  12.967
82893SOL     OW50452  14.289   2.548   2.318
82893SOL    HW150453  14.249   2.611   2.258
82893SOL    HW250454  14.215   2.514   2.369
82894SOL     OW50455   0.753  14.362   4.538
82894SOL    HW150456   0.700  14.414   4.478
82894SOL    HW250457   0.837  14.352   4.493
82895SOL     OW50458  10.726   3.151   4.711
82895SOL    HW150459  10.746   3.238   4.676
82895SOL    HW250460  10.705   3.099   4.633
82896SOL     OW50461  10.964  13.550   4.103
82896SOL    HW150462  10.888  13.561   4.160
82896SOL    HW250463  10.973  13.634   4.058
82897SOL     OW50464   8.868  13.339   6.695
82897SOL    HW150465   8.928  13.399   6.649
82897SOL    HW250466   8.921  13.302   6.765
82898SOL     OW50467   1.193   5.048   2.651
82898SOL    HW150468   1.126   4.981   2.637
82898SOL    HW250469   1.242   5.051   2.569
82899SOL     OW50470   2.617   5.244  10.898
82899SOL    HW150471   2.538   5.230  10.846
82899SOL    HW250472   2.649   5.156  10.917
82900SOL     OW50473   9.438  13.638   5.961
82900SOL    HW150474   9.415  13.546   5.969
82900SOL    HW250475   9.452  13.651   5.867
82901SOL     OW50476   3.687  13.293   4.222
82901SOL    HW150477   3.640  13.276   4.141
82901SOL    HW250478   3.745  13.218   4.233
82902SOL     OW50479   1.810   2.273   7.590
82902SOL    HW150480   1.730   2.286   7.540
82902SOL    HW250481   1.880   2.305   7.532
82903SOL     OW50482  11.121   9.675   9.849
82903SOL    HW150483  11.203   9.638   9.817
82903SOL    HW250484  11.075   9.601   9.889
82904SOL     OW50485   5.485   6.720   0.117
82904SOL    HW150486   5.410   6.676   0.157
82904SOL    HW250487   5.455   6.741   0.028
82905SOL     OW50488   6.889   2.892   3.162
82905SOL    HW150489   6.896   2.797   3.165
82905SOL    HW250490   6.947   2.923   3.230
82906SOL     OW50491   8.907   3.967  11.714
82906SOL    HW150492   8.827   4.020  11.723
82906SOL    HW250493   8.875   3.878  11.698
82907SOL     OW50494   3.738  10.286   8.859
82907SOL    HW150495   3.793  10.355   8.898
82907SOL    HW250496   3.787  10.256   8.782
82908SOL     OW50497   4.370   1.365  12.806
82908SOL    HW150498   4.431   1.350  12.734
82908SOL    HW250499   4.321   1.284  12.813
82909SOL     OW50500  13.404   5.407   1.629
82909SOL    HW150501  13.338   5.341   1.607
82909SOL    HW250502  13.355   5.487   1.643
82910SOL     OW50503  11.929   9.083   3.404
82910SOL    HW150504  11.860   9.071   3.469
82910SOL    HW250505  11.949   9.177   3.407
82911SOL     OW50506   8.584  14.543   8.861
82911SOL    HW150507   8.524  14.469   8.851
82911SOL    HW250508   8.667  14.504   8.887
82912SOL     OW50509   8.132   0.874   9.001
82912SOL    HW150510   8.142   0.896   8.909
82912SOL    HW250511   8.085   0.790   9.002
82913SOL     OW50512  12.337   5.876  14.285
82913SOL    HW150513  12.336   5.781  14.271
82913SOL    HW250514  12.363   5.912  14.200
82914SOL     OW50515  10.149   3.075   6.977
82914SOL    HW150516  10.239   3.095   6.953
82914SOL    HW250517  10.137   2.983   6.952
82915SOL     OW50518   7.215  10.277  11.354
82915SOL    HW150519   7.265  10.228  11.419
82915SOL    HW250520   7.176  10.210  11.298
82916SOL     OW50521   2.753   6.798  10.105
82916SOL    HW150522   2.753   6.752  10.189
82916SOL    HW250523   2.776   6.731  10.041
82917SOL     OW50524   3.101   3.539   1.773
82917SOL    HW150525   3.068   3.606   1.713
82917SOL    HW250526   3.105   3.583   1.858
82918SOL     OW50527  14.314  11.891  10.463
82918SOL    HW150528  14.241  11.953  10.462
82918SOL    HW250529  14.382  11.935  10.514
82919SOL     OW50530   1.533   2.815  14.032
82919SOL    HW150531   1.514   2.721  14.031
82919SOL    HW250532   1.619   2.821  14.073
82920SOL     OW50533   7.011   8.892  10.808
82920SOL    HW150534   7.022   8.860  10.719
82920SOL    HW250535   6.941   8.837  10.844
82921SOL     OW50536   6.162  11.680  10.899
82921SOL    HW150537   6.258  11.682  10.892
82921SOL    HW250538   6.134  11.623  10.827
82922SOL     OW50539   7.394  10.961   0.913
82922SOL    HW150540   7.317  11.001   0.955
82922SOL    HW250541   7.368  10.870   0.898
82923SOL     OW50542   2.967   2.029   7.771
82923SOL    HW150543   2.981   2.121   7.747
82923SOL    HW250544   2.936   1.988   7.691
82924SOL     OW50545   7.771   5.853   9.788
82924SOL    HW150546   7.688   5.877   9.746
82924SOL    HW250547   7.825   5.931   9.778
82925SOL     OW50548  10.046   5.826  10.109
82925SOL    HW150549  10.107   5.776  10.162
82925SOL    HW250550   9.978   5.854  10.170
82926SOL     OW50551  10.847  13.939   0.922
82926SOL    HW150552  10.858  14.033   0.909
82926SOL    HW250553  10.840  13.903   0.833
82927SOL     OW50554   8.301   2.172   5.635
82927SOL    HW150555   8.237   2.216   5.691
82927SOL    HW250556   8.346   2.111   5.694
82928SOL     OW50557  11.397   0.608   0.743
82928SOL    HW150558  11.488   0.611   0.772
82928SOL    HW250559  11.399   0.554   0.664
82929SOL     OW50560   9.042   0.298  10.225
82929SOL    HW150561   9.057   0.391  10.209
82929SOL    HW250562   9.109   0.273  10.288
82930SOL     OW50563   8.171   0.614   7.289
82930SOL    HW150564   8.090   0.638   7.244
82930SOL    HW250565   8.144   0.590   7.378
82931SOL     OW50566  11.972   6.749   9.759
82931SOL    HW150567  11.886   6.708   9.750
82931SOL    HW250568  12.019   6.725   9.678
82932SOL     OW50569   7.673   8.480   9.408
82932SOL    HW150570   7.630   8.397   9.429
82932SOL    HW250571   7.763   8.468   9.437
82933SOL     OW50572   9.868   9.996  12.723
82933SOL    HW150573   9.929   9.975  12.652
82933SOL    HW250574   9.867   9.917  12.778
82934SOL     OW50575   1.180   3.154   7.520
82934SOL    HW150576   1.208   3.245   7.520
82934SOL    HW250577   1.138   3.141   7.605
82935SOL     OW50578   9.619   6.553  13.416
82935SOL    HW150579   9.685   6.504  13.464
82935SOL    HW250580   9.535   6.518  13.447
82936SOL     OW50581   4.038   8.297   5.522
82936SOL    HW150582   3.952   8.337   5.506
82936SOL    HW250583   4.094   8.332   5.452
82937SOL     OW50584  14.202   9.962   6.668
82937SOL    HW150585  14.277   9.962   6.608
82937SOL    HW250586  14.185   9.869   6.684
82938SOL     OW50587   9.479   7.296  12.253
82938SOL    HW150588   9.516   7.208  12.250
82938SOL    HW250589   9.476   7.318  12.346
82939SOL     OW50590   0.794   5.338  12.158
82939SOL    HW150591   0.709   5.352  12.200
82939SOL    HW250592   0.772   5.302  12.072
82940SOL     OW50593   6.820   4.879   2.119
82940SOL    HW150594   6.875   4.914   2.189
82940SOL    HW250595   6.877   4.816   2.074
82941SOL     OW50596   2.640   4.895   9.470
82941SOL    HW150597   2.637   4.951   9.392
82941SOL    HW250598   2.718   4.923   9.517
82942SOL     OW50599  11.777   8.873   9.695
82942SOL    HW150600  11.686   8.857   9.720
82942SOL    HW250601  11.814   8.785   9.680
82943SOL     OW50602   4.433   9.742   6.977
82943SOL    HW150603   4.444   9.834   6.954
82943SOL    HW250604   4.441   9.739   7.072
82944SOL     OW50605   2.510   2.937   9.833
82944SOL    HW150606   2.418   2.950   9.854
82944SOL    HW250607   2.539   2.870   9.895
82945SOL     OW50608  11.906   3.088   1.819
82945SOL    HW150609  11.950   3.011   1.856
82945SOL    HW250610  11.941   3.162   1.869
82946SOL     OW50611   6.113  12.379   3.210
82946SOL    HW150612   6.164  12.418   3.139
82946SOL    HW250613   6.173  12.316   3.250
82947SOL     OW50614  12.531   2.828   9.482
82947SOL    HW150615  12.583   2.819   9.403
82947SOL    HW250616  12.492   2.742   9.495
82948SOL     OW50617   1.823   0.733   2.047
82948SOL    HW150618   1.774   0.773   1.975
82948SOL    HW250619   1.892   0.796   2.067
82949SOL     OW50620  10.225   4.562   1.188
82949SOL    HW150621  10.229   4.467   1.179
82949SOL    HW250622  10.316   4.589   1.201
82950SOL     OW50623  14.491  11.496  10.666
82950SOL    HW150624  14.439  11.536  10.596
82950SOL    HW250625  14.512  11.569  10.725
82951SOL     OW50626   2.279   6.789   1.735
82951SOL    HW150627   2.373   6.777   1.747
82951SOL    HW250628   2.258   6.867   1.786
82952SOL     OW50629   3.722   1.501   7.729
82952SOL    HW150630   3.630   1.477   7.716
82952SOL    HW250631   3.743   1.470   7.817
82953SOL     OW50632   3.749   1.550   1.157
82953SOL    HW150633   3.794   1.620   1.205
82953SOL    HW250634   3.742   1.584   1.067
82954SOL     OW50635   9.387  11.243  12.239
82954SOL    HW150636   9.301  11.277  12.214
82954SOL    HW250637   9.371  11.195  12.320
82955SOL     OW50638   8.965  13.299  13.135
82955SOL    HW150639   8.895  13.361  13.154
82955SOL    HW250640   9.007  13.284  13.220
82956SOL     OW50641  13.193   7.179   1.091
82956SOL    HW150642  13.244   7.224   1.024
82956SOL    HW250643  13.102   7.187   1.061
82957SOL     OW50644   2.882  13.326   3.854
82957SOL    HW150645   2.937  13.304   3.930
82957SOL    HW250646   2.805  13.270   3.864
82958SOL     OW50647   9.273  14.088   1.686
82958SOL    HW150648   9.184  14.111   1.661
82958SOL    HW250649   9.272  14.089   1.782
82959SOL     OW50650   5.216   5.362  10.236
82959SOL    HW150651   5.131   5.337  10.272
82959SOL    HW250652   5.279   5.310  10.284
82960SOL     OW50653  10.968   7.312  13.592
82960SOL    HW150654  11.042   7.287  13.536
82960SOL    HW250655  10.984   7.403  13.614
82961SOL     OW50656   0.457   3.421  10.338
82961SOL    HW150657   0.495   3.334  10.326
82961SOL    HW250658   0.492   3.451  10.422
82962SOL     OW50659   2.305  12.629  10.739
82962SOL    HW150660   2.289  12.684  10.816
82962SOL    HW250661   2.218  12.609  10.706
82963SOL     OW50662   2.613   4.827   2.367
82963SOL    HW150663   2.680   4.895   2.360
82963SOL    HW250664   2.630   4.784   2.451
82964SOL     OW50665   8.391   8.678   3.134
82964SOL    HW150666   8.359   8.669   3.224
82964SOL    HW250667   8.324   8.731   3.090
82965SOL     OW50668  10.281  11.292  11.605
82965SOL    HW150669  10.237  11.218  11.647
82965SOL    HW250670  10.241  11.369  11.645
82966SOL     OW50671  11.670  10.250  12.937
82966SOL    HW150672  11.714  10.242  12.852
82966SOL    HW250673  11.623  10.167  12.947
82967SOL     OW50674   1.617   3.547  11.722
82967SOL    HW150675   1.616   3.458  11.757
82967SOL    HW250676   1.656   3.599  11.791
82968SOL     OW50677   0.126   4.954   0.901
82968SOL    HW150678   0.139   4.880   0.961
82968SOL    HW250679   0.072   5.016   0.950
82969SOL     OW50680  11.403   2.129  14.433
82969SOL    HW150681  11.453   2.090  14.361
82969SOL    HW250682  11.312   2.117  14.408
82970SOL     OW50683   9.570   7.777   1.765
82970SOL    HW150684   9.527   7.728   1.835
82970SOL    HW250685   9.515   7.762   1.688
82971SOL     OW50686   5.204   7.444   1.020
82971SOL    HW150687   5.258   7.516   1.054
82971SOL    HW250688   5.219   7.447   0.925
82972SOL     OW50689   5.710   4.536   8.889
82972SOL    HW150690   5.747   4.621   8.863
82972SOL    HW250691   5.689   4.493   8.806
82973SOL     OW50692   9.359  12.708   1.357
82973SOL    HW150693   9.404  12.624   1.348
82973SOL    HW250694   9.304  12.714   1.280
82974SOL     OW50695   4.457   4.567   8.396
82974SOL    HW150696   4.467   4.630   8.325
82974SOL    HW250697   4.510   4.492   8.369
82975SOL     OW50698  14.860   1.005   0.074
82975SOL    HW150699   0.068   0.990   0.105
82975SOL    HW250700  14.822   0.917   0.067
82976SOL     OW50701   2.437   2.387   4.276
82976SOL    HW150702   2.442   2.373   4.371
82976SOL    HW250703   2.352   2.349   4.252
82977SOL     OW50704   1.095   6.466  12.621
82977SOL    HW150705   1.102   6.424  12.706
82977SOL    HW250706   1.010   6.438  12.587
82978SOL     OW50707   3.093   1.696   9.992
82978SOL    HW150708   3.076   1.787   9.966
82978SOL    HW250709   3.159   1.704  10.062
82979SOL     OW50710  13.044   7.589  14.006
82979SOL    HW150711  13.098   7.637  13.943
82979SOL    HW250712  13.013   7.655  14.068
82980SOL     OW50713  13.589  10.238   7.550
82980SOL    HW150714  13.542  10.168   7.506
82980SOL    HW250715  13.675  10.239   7.509
82981SOL     OW50716   6.048   2.572   2.088
82981SOL    HW150717   6.001   2.655   2.076
82981SOL    HW250718   6.101   2.562   2.009
82982SOL     OW50719   1.769  10.034  12.010
82982SOL    HW150720   1.756  10.120  11.972
82982SOL    HW250721   1.864  10.025  12.018
82983SOL     OW50722  11.498  14.149  10.720
82983SOL    HW150723  11.576  14.170  10.772
82983SOL    HW250724  11.488  14.054  10.729
82984SOL     OW50725   7.909   1.684   8.533
82984SOL    HW150726   7.939   1.690   8.442
82984SOL    HW250727   7.813   1.680   8.526
82985SOL     OW50728  11.354   8.427   1.661
82985SOL    HW150729  11.333   8.493   1.594
82985SOL    HW250730  11.336   8.343   1.620
82986SOL     OW50731   3.773  12.826   0.089
82986SOL    HW150732   3.678  12.830   0.098
82986SOL    HW250733   3.789  12.772   0.012
82987SOL     OW50734  12.541  13.610   5.242
82987SOL    HW150735  12.553  13.579   5.332
82987SOL    HW250736  12.627  13.643   5.217
82988SOL     OW50737  13.837  10.830   8.001
82988SOL    HW150738  13.785  10.790   7.931
82988SOL    HW250739  13.928  10.811   7.978
82989SOL     OW50740   5.281   1.410   5.661
82989SOL    HW150741   5.361   1.380   5.619
82989SOL    HW250742   5.213   1.398   5.595
82990SOL     OW50743   2.408  13.327  11.632
82990SOL    HW150744   2.439  13.404  11.584
82990SOL    HW250745   2.438  13.253  11.580
82991SOL     OW50746   0.296   4.052   5.751
82991SOL    HW150747   0.257   4.117   5.694
82991SOL    HW250748   0.384   4.038   5.715
82992SOL     OW50749   5.409   3.901  12.210
82992SOL    HW150750   5.353   3.948  12.272
82992SOL    HW250751   5.420   3.962  12.137
82993SOL     OW50752   7.603  12.191   4.496
82993SOL    HW150753   7.559  12.119   4.452
82993SOL    HW250754   7.553  12.205   4.576
82994SOL     OW50755   3.982   7.976   9.905
82994SOL    HW150756   3.930   8.053   9.881
82994SOL    HW250757   3.956   7.956   9.995
82995SOL     OW50758   1.668  13.721  10.816
82995SOL    HW150759   1.607  13.667  10.766
82995SOL    HW250760   1.706  13.781  10.752
82996SOL     OW50761   9.085   8.398   0.230
82996SOL    HW150762   9.060   8.439   0.147
82996SOL    HW250763   9.180   8.387   0.224
82997SOL     OW50764   1.419  14.264   7.964
82997SOL    HW150765   1.390  14.348   7.928
82997SOL    HW250766   1.382  14.262   8.053
82998SOL     OW50767  14.457  10.770   0.667
82998SOL    HW150768  14.428  10.852   0.626
82998SOL    HW250769  14.546  10.789   0.698
82999SOL     OW50770   3.296  11.123   6.900
82999SOL    HW150771   3.259  11.064   6.966
82999SOL    HW250772   3.230  11.125   6.830
83000SOL     OW50773  12.278  12.713   3.216
83000SOL    HW150774  12.244  12.776   3.153
83000SOL    HW250775  12.353  12.757   3.257
83001SOL     OW50776  10.802   6.516   6.449
83001SOL    HW150777  10.795   6.445   6.386
83001SOL    HW250778  10.872   6.572   6.416
83002SOL     OW50779   7.653  13.321   2.382
83002SOL    HW150780   7.642  13.298   2.474
83002SOL    HW250781   7.747  13.316   2.367
83003SOL     OW50782   9.965   7.710   2.716
83003SOL    HW150783   9.909   7.698   2.640
83003SOL    HW250784   9.957   7.629   2.766
83004SOL     OW50785  11.154   5.659   1.474
83004SOL    HW150786  11.133   5.751   1.458
83004SOL    HW250787  11.104   5.611   1.408
83005SOL     OW50788   4.567   0.462   5.303
83005SOL    HW150789   4.511   0.438   5.377
83005SOL    HW250790   4.545   0.398   5.235
83006SOL     OW50791   6.136  12.135   3.378
83006SOL    HW150792   6.086  12.085   3.443
83006SOL    HW250793   6.224  12.141   3.415
83007SOL     OW50794  10.390   8.402   7.283
83007SOL    HW150795  10.324   8.398   7.214
83007SOL    HW250796  10.421   8.312   7.291
83008SOL     OW50797   7.593  13.707   8.134
83008SOL    HW150798   7.638  13.636   8.088
83008SOL    HW250799   7.517  13.726   8.079
83009SOL     OW50800   6.384   8.921   0.050
83009SOL    HW150801   6.342   8.933  14.846
83009SOL    HW250802   6.317   8.951   0.113
83010SOL     OW50803   1.447  11.681  14.769
83010SOL    HW150804   1.402  11.602  14.740
83010SOL    HW250805   1.498  11.708  14.692
83011SOL     OW50806   9.037   7.726   8.614
83011SOL    HW150807   8.981   7.661   8.656
83011SOL    HW250808   8.976   7.786   8.570
83012SOL     OW50809   4.194  11.167   8.776
83012SOL    HW150810   4.131  11.220   8.726
83012SOL    HW250811   4.184  11.197   8.866
83013SOL     OW50812   6.952   0.690  14.125
83013SOL    HW150813   6.895   0.736  14.187
83013SOL    HW250814   6.898   0.618  14.091
83014SOL     OW50815  12.624   6.073   6.830
83014SOL    HW150816  12.570   6.123   6.769
83014SOL    HW250817  12.661   6.003   6.777
83015SOL     OW50818  11.483  12.764   0.644
83015SOL    HW150819  11.535  12.698   0.691
83015SOL    HW250820  11.396  12.760   0.684
83016SOL     OW50821  14.798  12.182   8.080
83016SOL    HW150822  14.733  12.244   8.045
83016SOL    HW250823  14.783  12.102   8.030
83017SOL     OW50824  10.413   4.919   0.789
83017SOL    HW150825  10.384   4.991   0.733
83017SOL    HW250826  10.422   4.845   0.729
83018SOL     OW50827   6.314   7.874   7.040
83018SOL    HW150828   6.308   7.779   7.031
83018SOL    HW250829   6.400   7.896   7.004
83019SOL     OW50830  14.732   5.054   2.912
83019SOL    HW150831  14.667   5.038   2.980
83019SOL    HW250832  14.816   5.049   2.957
83020SOL     OW50833   4.597   1.818   4.236
83020SOL    HW150834   4.586   1.724   4.250
83020SOL    HW250835   4.613   1.854   4.323
83021SOL     OW50836  13.494  11.483  10.648
83021SOL    HW150837  13.427  11.483  10.716
83021SOL    HW250838  13.454  11.530  10.575
83022SOL     OW50839   4.243   3.737  13.421
83022SOL    HW150840   4.234   3.685  13.341
83022SOL    HW250841   4.159   3.782  13.430
83023SOL     OW50842   9.655  13.527  11.905
83023SOL    HW150843   9.729  13.566  11.858
83023SOL    HW250844   9.602  13.487  11.837
83024SOL     OW50845  13.214   0.363   4.517
83024SOL    HW150846  13.304   0.342   4.492
83024SOL    HW250847  13.218   0.456   4.542
83025SOL     OW50848   1.100  13.767  14.370
83025SOL    HW150849   1.142  13.774  14.455
83025SOL    HW250850   1.013  13.805  14.382
83026SOL     OW50851   3.237   9.532   1.273
83026SOL    HW150852   3.312   9.590   1.257
83026SOL    HW250853   3.211   9.502   1.186
83027SOL     OW50854   2.788   5.318  11.815
83027SOL    HW150855   2.801   5.306  11.721
83027SOL    HW250856   2.693   5.317  11.826
83028SOL     OW50857   6.720  13.136   1.712
83028SOL    HW150858   6.660  13.122   1.639
83028SOL    HW250859   6.797  13.083   1.690
83029SOL     OW50860   7.471   7.620   1.151
83029SOL    HW150861   7.389   7.651   1.189
83029SOL    HW250862   7.476   7.663   1.066
83030SOL     OW50863   5.643   8.700   1.735
83030SOL    HW150864   5.603   8.755   1.668
83030SOL    HW250865   5.734   8.692   1.708
83031SOL     OW50866   0.312  14.572   2.098
83031SOL    HW150867   0.247  14.502   2.094
83031SOL    HW250868   0.273  14.637   2.157
83032SOL     OW50869  13.385   3.644   0.613
83032SOL    HW150870  13.401   3.736   0.589
83032SOL    HW250871  13.472   3.607   0.626
83033SOL     OW50872   5.453   6.983  12.795
83033SOL    HW150873   5.372   6.955  12.751
83033SOL    HW250874   5.462   7.075  12.771
83034SOL     OW50875  13.428  12.035   2.680
83034SOL    HW150876  13.406  12.018   2.588
83034SOL    HW250877  13.397  11.957   2.726
83035SOL     OW50878   5.057   7.616   8.020
83035SOL    HW150879   5.071   7.553   7.949
83035SOL    HW250880   4.962   7.629   8.022
83036SOL     OW50881   3.961   3.122  14.860
83036SOL    HW150882   3.962   3.117  14.764
83036SOL    HW250883   4.047   3.090   0.005
83037SOL     OW50884   5.409   1.720  11.189
83037SOL    HW150885   5.485   1.699  11.243
83037SOL    HW250886   5.334   1.692  11.241
83038SOL     OW50887   1.894   0.638   3.626
83038SOL    HW150888   1.968   0.697   3.644
83038SOL    HW250889   1.923   0.553   3.659
83039SOL     OW50890   9.990   9.842  14.094
83039SOL    HW150891   9.916   9.872  14.146
83039SOL    HW250892  10.053   9.915  14.097
83040SOL     OW50893   7.883   6.881   6.278
83040SOL    HW150894   7.871   6.918   6.366
83040SOL    HW250895   7.908   6.790   6.294
83041SOL     OW50896   9.165   7.461  10.783
83041SOL    HW150897   9.131   7.506  10.861
83041SOL    HW250898   9.254   7.435  10.808
83042SOL     OW50899   1.950   2.561   9.324
83042SOL    HW150900   1.931   2.589   9.234
83042SOL    HW250901   2.025   2.613   9.351
83043SOL     OW50902   2.971   4.135  14.346
83043SOL    HW150903   2.919   4.215  14.358
83043SOL    HW250904   2.970   4.093  14.432
83044SOL     OW50905   8.783   2.664   2.711
83044SOL    HW150906   8.798   2.596   2.646
83044SOL    HW250907   8.730   2.622   2.778
83045SOL     OW50908  13.398  10.453  11.583
83045SOL    HW150909  13.429  10.457  11.673
83045SOL    HW250910  13.372  10.543  11.563
83046SOL     OW50911   2.394   6.077  12.532
83046SOL    HW150912   2.418   5.986  12.547
83046SOL    HW250913   2.330   6.074  12.461
83047SOL     OW50914   9.003  11.965  13.218
83047SOL    HW150915   8.941  11.901  13.182
83047SOL    HW250916   9.088  11.938  13.186
83048SOL     OW50917  10.684   2.159  13.328
83048SOL    HW150918  10.765   2.131  13.369
83048SOL    HW250919  10.708   2.180  13.238
83049SOL     OW50920   0.502   2.215   0.757
83049SOL    HW150921   0.467   2.285   0.813
83049SOL    HW250922   0.593   2.241   0.742
83050SOL     OW50923   8.274  11.943   2.733
83050SOL    HW150924   8.365  11.929   2.761
83050SOL    HW250925   8.224  11.875   2.778
83051SOL     OW50926   3.509   1.142   7.923
83051SOL    HW150927   3.589   1.125   7.873
83051SOL    HW250928   3.444   1.165   7.857
83052SOL     OW50929   4.687   3.238   0.058
83052SOL    HW150930   4.679   3.181  14.863
83052SOL    HW250931   4.746   3.308   0.030
83053SOL     OW50932  10.853   8.205  11.610
83053SOL    HW150933  10.801   8.212  11.530
83053SOL    HW250934  10.923   8.144  11.587
83054SOL     OW50935  14.700   4.737   6.359
83054SOL    HW150936  14.741   4.748   6.274
83054SOL    HW250937  14.689   4.826   6.392
83055SOL     OW50938   4.901   9.476  12.559
83055SOL    HW150939   4.890   9.409  12.492
83055SOL    HW250940   4.864   9.555  12.520
83056SOL     OW50941  12.919  10.733  14.233
83056SOL    HW150942  12.852  10.737  14.164
83056SOL    HW250943  13.002  10.727  14.186
83057SOL     OW50944  11.971  14.299   2.866
83057SOL    HW150945  12.011  14.213   2.853
83057SOL    HW250946  12.039  14.362   2.839
83058SOL     OW50947  11.453   3.526  10.771
83058SOL    HW150948  11.470   3.463  10.842
83058SOL    HW250949  11.403   3.477  10.707
83059SOL     OW50950   9.645   5.344  14.245
83059SOL    HW150951   9.570   5.335  14.304
83059SOL    HW250952   9.623   5.289  14.171
83060SOL     OW50953   5.042   8.480  12.879
83060SOL    HW150954   5.126   8.465  12.835
83060SOL    HW250955   5.041   8.415  12.949
83061SOL     OW50956   4.708   7.344  13.246
83061SOL    HW150957   4.725   7.421  13.191
83061SOL    HW250958   4.740   7.270  13.194
83062SOL     OW50959   4.509  10.332   6.183
83062SOL    HW150960   4.597  10.338   6.220
83062SOL    HW250961   4.464  10.267   6.237
83063SOL     OW50962   0.540   6.390  10.980
83063SOL    HW150963   0.512   6.317  11.036
83063SOL    HW250964   0.462   6.413  10.930
83064SOL     OW50965  10.041   0.709  13.119
83064SOL    HW150966   9.986   0.634  13.094
83064SOL    HW250967  10.129   0.672  13.127
83065SOL     OW50968   9.947   6.569   5.931
83065SOL    HW150969   9.982   6.650   5.896
83065SOL    HW250970   9.898   6.596   6.009
83066SOL     OW50971  12.598  10.319   5.423
83066SOL    HW150972  12.514  10.284   5.451
83066SOL    HW250973  12.618  10.389   5.485
83067SOL     OW50974   0.080   2.476   5.481
83067SOL    HW150975   0.128   2.394   5.488
83067SOL    HW250976   0.003   2.454   5.428
83068SOL     OW50977   3.967   8.729   3.175
83068SOL    HW150978   4.007   8.725   3.087
83068SOL    HW250979   3.876   8.706   3.161
83069SOL     OW50980   2.493   6.612   7.433
83069SOL    HW150981   2.462   6.675   7.499
83069SOL    HW250982   2.436   6.627   7.357
83070SOL     OW50983   3.817  11.795   7.808
83070SOL    HW150984   3.733  11.750   7.821
83070SOL    HW250985   3.805  11.880   7.850
83071SOL     OW50986   5.036  10.395   0.629
83071SOL    HW150987   5.111  10.374   0.573
83071SOL    HW250988   4.998  10.310   0.650
83072SOL     OW50989   4.995   9.762  13.736
83072SOL    HW150990   5.068   9.815  13.767
83072SOL    HW250991   5.033   9.675  13.724
83073SOL     OW50992   2.171   4.814  13.876
83073SOL    HW150993   2.176   4.808  13.972
83073SOL    HW250994   2.157   4.723  13.848
83074SOL     OW50995   5.813  13.803  12.293
83074SOL    HW150996   5.903  13.824  12.269
83074SOL    HW250997   5.801  13.844  12.378
83075SOL     OW50998   2.399  10.041  14.754
83075SOL    HW150999   2.434  10.130  14.761
83075SOL    HW251000   2.304  10.052  14.751
83076SOL     OW51001   9.100   0.774  14.615
83076SOL    HW151002   9.054   0.857  14.607
83076SOL    HW251003   9.064   0.734  14.694
83077SOL     OW51004   0.676  12.889  11.381
83077SOL    HW151005   0.739  12.928  11.321
83077SOL    HW251006   0.687  12.939  11.462
83078SOL     OW51007  13.410   8.293   5.606
83078SOL    HW151008  13.412   8.312   5.700
83078SOL    HW251009  13.323   8.258   5.590
83079SOL     OW51010   3.277   2.669  11.200
83079SOL    HW151011   3.354   2.680  11.257
83079SOL    HW251012   3.216   2.737  11.229
83080SOL     OW51013   8.207   3.855   4.184
83080SOL    HW151014   8.163   3.912   4.246
83080SOL    HW251015   8.139   3.830   4.121
83081SOL     OW51016   6.708  12.511   2.707
83081SOL    HW151017   6.776  12.578   2.709
83081SOL    HW251018   6.691  12.495   2.614
83082SOL     OW51019  11.857   3.322  10.325
83082SOL    HW151020  11.822   3.295  10.409
83082SOL    HW251021  11.836   3.415  10.319
83083SOL     OW51022   5.338   8.839   5.079
83083SOL    HW151023   5.275   8.855   5.009
83083SOL    HW251024   5.306   8.759   5.122
83084SOL     OW51025   2.936   3.912  12.760
83084SOL    HW151026   3.027   3.933  12.782
83084SOL    HW251027   2.884   3.957  12.827
83085SOL     OW51028   0.324   8.490   0.446
83085SOL    HW151029   0.354   8.568   0.400
83085SOL    HW251030   0.405   8.443   0.466
83086SOL     OW51031  12.951   1.946   5.641
83086SOL    HW151032  12.950   1.851   5.651
83086SOL    HW251033  12.909   1.979   5.721
83087SOL     OW51034   6.219   7.998   0.108
83087SOL    HW151035   6.235   8.092   0.103
83087SOL    HW251036   6.173   7.977   0.026
83088SOL     OW51037  14.633   9.347   5.555
83088SOL    HW151038  14.628   9.254   5.577
83088SOL    HW251039  14.580   9.391   5.622
83089SOL     OW51040   2.614   6.969   9.822
83089SOL    HW151041   2.585   6.937   9.907
83089SOL    HW251042   2.537   6.964   9.766
83090SOL     OW51043  14.747   1.548   7.603
83090SOL    HW151044  14.732   1.473   7.661
83090SOL    HW251045  14.734   1.512   7.515
83091SOL     OW51046   9.190  11.267   5.867
83091SOL    HW151047   9.255  11.324   5.826
83091SOL    HW251048   9.183  11.192   5.808
83092SOL     OW51049   1.819   4.343  12.901
83092SOL    HW151050   1.733   4.303  12.884
83092SOL    HW251051   1.873   4.315  12.828
83093SOL     OW51052  12.346   4.809   3.832
83093SOL    HW151053  12.281   4.849   3.774
83093SOL    HW251054  12.429   4.817   3.784
83094SOL     OW51055   1.522   9.271   5.130
83094SOL    HW151056   1.502   9.317   5.048
83094SOL    HW251057   1.470   9.317   5.196
83095SOL     OW51058  13.632  12.040   8.670
83095SOL    HW151059  13.627  12.099   8.594
83095SOL    HW251060  13.724  12.042   8.695
83096SOL     OW51061   1.098   4.757   3.612
83096SOL    HW151062   1.118   4.799   3.529
83096SOL    HW251063   1.077   4.666   3.589
83097SOL     OW51064   1.518   5.511   9.398
83097SOL    HW151065   1.582   5.491   9.330
83097SOL    HW251066   1.521   5.436   9.457
83098SOL     OW51067   8.792  12.739   1.132
83098SOL    HW151068   8.795  12.822   1.180
83098SOL    HW251069   8.700  12.713   1.135
83099SOL     OW51070   8.420   6.565   3.346
83099SOL    HW151071   8.487   6.591   3.283
83099SOL    HW251072   8.455   6.487   3.388
83100SOL     OW51073   5.541   7.058  14.875
83100SOL    HW151074   5.507   6.974   0.024
83100SOL    HW251075   5.495   7.074  14.793
83101SOL     OW51076   0.441  11.358  13.485
83101SOL    HW151077   0.529  11.329  13.509
83101SOL    HW251078   0.454  11.446  13.448
83102SOL     OW51079   5.000   6.083   1.802
83102SOL    HW151080   4.990   6.124   1.716
83102SOL    HW251081   5.079   6.030   1.794
83103SOL     OW51082   8.923   4.146  14.119
83103SOL    HW151083   8.851   4.087  14.139
83103SOL    HW251084   8.888   4.205  14.052
83104SOL     OW51085   3.755   7.560   4.575
83104SOL    HW151086   3.693   7.556   4.648
83104SOL    HW251087   3.828   7.505   4.602
83105SOL     OW51088  11.521   8.838   0.487
83105SOL    HW151089  11.454   8.789   0.440
83105SOL    HW251090  11.590   8.852   0.422
83106SOL     OW51091  14.028   4.038   0.254
83106SOL    HW151092  14.005   4.049   0.347
83106SOL    HW251093  13.944   4.035   0.209
83107SOL     OW51094   7.915  13.610   6.942
83107SOL    HW151095   7.876  13.679   6.996
83107SOL    HW251096   7.978  13.656   6.886
83108SOL     OW51097  10.312  12.170   5.157
83108SOL    HW151098  10.234  12.226   5.156
83108SOL    HW251099  10.379  12.221   5.110
83109SOL     OW51100   9.979  13.839  12.492
83109SOL    HW151101  10.030  13.917  12.469
83109SOL    HW251102  10.011  13.771  12.431
83110SOL     OW51103   4.992  13.261   4.565
83110SOL    HW151104   5.009  13.197   4.634
83110SOL    HW251105   4.987  13.210   4.485
83111SOL     OW51106  14.430   9.432   4.217
83111SOL    HW151107  14.509   9.406   4.170
83111SOL    HW251108  14.446   9.523   4.243
83112SOL     OW51109   2.652   3.266  11.753
83112SOL    HW151110   2.695   3.238  11.834
83112SOL    HW251111   2.614   3.186  11.716
83113SOL     OW51112   5.980  11.077   3.437
83113SOL    HW151113   5.923  11.152   3.455
83113SOL    HW251114   6.025  11.061   3.520
83114SOL     OW51115   7.895   4.737  14.421
83114SOL    HW151116   7.845   4.655  14.416
83114SOL    HW251117   7.928   4.750  14.332
83115SOL     OW51118   5.108   9.340   4.475
83115SOL    HW151119   5.203   9.347   4.477
83115SOL    HW251120   5.077   9.430   4.481
83116SOL     OW51121   4.934   2.932   7.661
83116SOL    HW151122   4.960   2.934   7.754
83116SOL    HW251123   4.852   2.882   7.661
83117SOL     OW51124   5.214  10.594   3.262
83117SOL    HW151125   5.171  10.559   3.340
83117SOL    HW251126   5.164  10.672   3.240
83118SOL     OW51127   8.335   7.889   2.398
83118SOL    HW151128   8.398   7.834   2.444
83118SOL    HW251129   8.263   7.830   2.377
83119SOL     OW51130   7.728   7.030  13.259
83119SOL    HW151131   7.672   6.954  13.245
83119SOL    HW251132   7.688   7.075  13.334
83120SOL     OW51133   1.074   9.838   5.482
83120SOL    HW151134   1.070   9.744   5.499
83120SOL    HW251135   1.121   9.874   5.558
83121SOL     OW51136   2.700   0.981  10.977
83121SOL    HW151137   2.757   0.981  10.900
83121SOL    HW251138   2.727   1.057  11.028
83122SOL     OW51139   0.132   2.735  12.976
83122SOL    HW151140   0.038   2.723  12.985
83122SOL    HW251141   0.145   2.830  12.975
83123SOL     OW51142   8.904   9.929   8.933
83123SOL    HW151143   8.888   9.890   8.847
83123SOL    HW251144   8.942   9.857   8.985
83124SOL     OW51145   3.713   8.113   6.847
83124SOL    HW151146   3.802   8.083   6.829
83124SOL    HW251147   3.696   8.178   6.778
83125SOL     OW51148  10.207   7.570  11.760
83125SOL    HW151149  10.120   7.586  11.797
83125SOL    HW251150  10.199   7.592  11.667
83126SOL     OW51151   4.333  13.812  11.429
83126SOL    HW151152   4.241  13.790  11.414
83126SOL    HW251153   4.340  13.904  11.406
83127SOL     OW51154  10.788   9.120   0.860
83127SOL    HW151155  10.865   9.066   0.877
83127SOL    HW251156  10.792   9.140   0.767
83128SOL     OW51157  12.857   9.055  11.918
83128SOL    HW151158  12.810   8.975  11.942
83128SOL    HW251159  12.788   9.122  11.911
83129SOL     OW51160   4.031  12.732   2.823
83129SOL    HW151161   3.938  12.709   2.820
83129SOL    HW251162   4.036  12.799   2.891
83130SOL     OW51163  10.746  11.531   4.797
83130SOL    HW151164  10.749  11.492   4.710
83130SOL    HW251165  10.690  11.472   4.848
83131SOL     OW51166   9.941   9.051   9.959
83131SOL    HW151167   9.953   9.027  10.051
83131SOL    HW251168   9.864   9.107   9.959
83132SOL     OW51169  12.790  10.109   4.386
83132SOL    HW151170  12.883  10.087   4.398
83132SOL    HW251171  12.786  10.203   4.403
83133SOL     OW51172  13.820  12.902   1.047
83133SOL    HW151173  13.878  12.850   1.102
83133SOL    HW251174  13.842  12.875   0.958
83134SOL     OW51175   6.190   5.228   3.178
83134SOL    HW151176   6.165   5.261   3.264
83134SOL    HW251177   6.222   5.139   3.195
83135SOL     OW51178   3.618   4.516  13.281
83135SOL    HW151179   3.648   4.607  13.285
83135SOL    HW251180   3.541   4.518  13.224
83136SOL     OW51181   4.552  13.956   9.489
83136SOL    HW151182   4.599  13.896   9.547
83136SOL    HW251183   4.590  13.940   9.403
83137SOL     OW51184  13.933   5.077   3.404
83137SOL    HW151185  13.840   5.079   3.426
83137SOL    HW251186  13.970   5.009   3.460
83138SOL     OW51187   3.924   8.820   9.269
83138SOL    HW151188   3.854   8.862   9.219
83138SOL    HW251189   3.881   8.751   9.318
83139SOL     OW51190  11.395   4.878  13.553
83139SOL    HW151191  11.354   4.962  13.575
83139SOL    HW251192  11.413   4.885  13.459
83140SOL     OW51193   8.118  12.134   0.222
83140SOL    HW151194   8.182  12.184   0.273
83140SOL    HW251195   8.054  12.200   0.194
83141SOL     OW51196   9.455  11.271   3.472
83141SOL    HW151197   9.536  11.304   3.434
83141SOL    HW251198   9.398  11.348   3.477
83142SOL     OW51199   9.652   2.835  11.504
83142SOL    HW151200   9.647   2.739  11.498
83142SOL    HW251201   9.742   2.852  11.531
83143SOL     OW51202   9.074  12.645   0.074
83143SOL    HW151203   9.103  12.555   0.057
83143SOL    HW251204   9.019  12.638   0.152
83144SOL     OW51205  13.111   3.293   0.275
83144SOL    HW151206  13.118   3.380   0.316
83144SOL    HW251207  13.053   3.307   0.200
83145SOL     OW51208   2.207   7.065   6.679
83145SOL    HW151209   2.133   7.091   6.624
83145SOL    HW251210   2.175   7.078   6.769
83146SOL     OW51211   8.470   6.272   1.363
83146SOL    HW151212   8.503   6.209   1.426
83146SOL    HW251213   8.538   6.339   1.357
83147SOL     OW51214   7.659   2.383   9.700
83147SOL    HW151215   7.653   2.376   9.605
83147SOL    HW251216   7.707   2.304   9.727
83148SOL     OW51217   5.498   2.545  11.476
83148SOL    HW151218   5.533   2.459  11.499
83148SOL    HW251219   5.495   2.545  11.381
83149SOL     OW51220   1.228   5.484  13.930
83149SOL    HW151221   1.262   5.397  13.908
83149SOL    HW251222   1.141   5.486  13.891
83150SOL     OW51223  11.017  13.099   5.792
83150SOL    HW151224  10.930  13.060   5.804
83150SOL    HW251225  11.019  13.126   5.700
83151SOL     OW51226  10.208  13.735   2.101
83151SOL    HW151227  10.239  13.823   2.078
83151SOL    HW251228  10.273  13.702   2.163
83152SOL     OW51229  10.306  13.426  11.768
83152SOL    HW151230  10.272  13.500  11.818
83152SOL    HW251231  10.339  13.464  11.687
83153SOL     OW51232  10.700   2.821   4.750
83153SOL    HW151233  10.724   2.889   4.813
83153SOL    HW251234  10.722   2.739   4.794
83154SOL     OW51235   5.030  13.818   2.982
83154SOL    HW151236   5.010  13.814   3.075
83154SOL    HW251237   5.122  13.794   2.975
83155SOL     OW51238   2.153  10.447   5.043
83155SOL    HW151239   2.172  10.360   5.008
83155SOL    HW251240   2.157  10.506   4.968
83156SOL     OW51241  13.723   8.643   6.740
83156SOL    HW151242  13.798   8.666   6.687
83156SOL    HW251243  13.698   8.724   6.784
83157SOL     OW51244   1.269   2.209   0.815
83157SOL    HW151245   1.355   2.250   0.816
83157SOL    HW251246   1.215   2.263   0.873
83158SOL     OW51247   5.118   2.775  13.292
83158SOL    HW151248   5.079   2.768  13.379
83158SOL    HW251249   5.044   2.791  13.233
83159SOL     OW51250   1.170  10.159  12.347
83159SOL    HW151251   1.241  10.144  12.285
83159SOL    HW251252   1.095  10.183  12.293
83160SOL     OW51253   0.699   9.042   2.807
83160SOL    HW151254   0.747   9.072   2.884
83160SOL    HW251255   0.755   9.064   2.733
83161SOL     OW51256  14.455  10.599   7.934
83161SOL    HW151257  14.472  10.546   7.855
83161SOL    HW251258  14.523  10.572   7.995
83162SOL     OW51259  13.598   1.115   8.851
83162SOL    HW151260  13.683   1.072   8.861
83162SOL    HW251261  13.555   1.107   8.936
83163SOL     OW51262   5.986   7.935  13.297
83163SOL    HW151263   5.896   7.927  13.265
83163SOL    HW251264   6.001   7.856  13.349
83164SOL     OW51265   9.145   2.528   0.079
83164SOL    HW151266   9.065   2.543   0.029
83164SOL    HW251267   9.194   2.463   0.028
83165SOL     OW51268   8.696   3.535   9.362
83165SOL    HW151269   8.643   3.457   9.348
83165SOL    HW251270   8.690   3.552   9.456
83166SOL     OW51271  12.543   4.765   9.301
83166SOL    HW151272  12.567   4.839   9.356
83166SOL    HW251273  12.502   4.703   9.362
83167SOL     OW51274   3.683  10.229   3.435
83167SOL    HW151275   3.648  10.147   3.401
83167SOL    HW251276   3.776  10.211   3.448
83168SOL     OW51277   8.189  12.152  10.231
83168SOL    HW151278   8.243  12.125  10.158
83168SOL    HW251279   8.246  12.208  10.284
83169SOL     OW51280   3.782  14.053  14.812
83169SOL    HW151281   3.852  14.115  14.834
83169SOL    HW251282   3.828  13.971  14.795
83170SOL     OW51283   3.856   5.778   2.787
83170SOL    HW151284   3.916   5.728   2.843
83170SOL    HW251285   3.853   5.728   2.705
83171SOL     OW51286   3.784   3.621  10.676
83171SOL    HW151287   3.689   3.634  10.683
83171SOL    HW251288   3.794   3.555  10.607
83172SOL     OW51289   8.691  13.128   1.551
83172SOL    HW151290   8.702  13.043   1.509
83172SOL    HW251291   8.742  13.122   1.632
83173SOL     OW51292   0.353   1.381  11.657
83173SOL    HW151293   0.378   1.298  11.616
83173SOL    HW251294   0.434   1.431  11.661
83174SOL     OW51295  12.187  11.890  10.769
83174SOL    HW151296  12.235  11.969  10.746
83174SOL    HW251297  12.248  11.839  10.822
83175SOL     OW51298  12.527  11.844   9.081
83175SOL    HW151299  12.546  11.926   9.127
83175SOL    HW251300  12.550  11.861   8.990
83176SOL     OW51301  14.662   3.481   1.150
83176SOL    HW151302  14.684   3.397   1.110
83176SOL    HW251303  14.699   3.475   1.238
83177SOL     OW51304  10.286   1.980  10.142
83177SOL    HW151305  10.238   2.062  10.130
83177SOL    HW251306  10.356   2.002  10.204
83178SOL     OW51307   6.507   9.023   2.821
83178SOL    HW151308   6.518   8.962   2.748
83178SOL    HW251309   6.559   9.099   2.796
83179SOL     OW51310   3.762  11.381   0.213
83179SOL    HW151311   3.837  11.434   0.184
83179SOL    HW251312   3.690  11.409   0.156
83180SOL     OW51313   3.760  11.858   1.414
83180SOL    HW151314   3.779  11.769   1.445
83180SOL    HW251315   3.840  11.907   1.432
83181SOL     OW51316  10.278   2.360   4.974
83181SOL    HW151317  10.371   2.346   4.987
83181SOL    HW251318  10.264   2.340   4.881
83182SOL     OW51319   4.578   3.225  10.865
83182SOL    HW151320   4.573   3.152  10.802
83182SOL    HW251321   4.588   3.183  10.950
83183SOL     OW51322  14.129   4.886  11.008
83183SOL    HW151323  14.116   4.978  10.988
83183SOL    HW251324  14.180   4.853  10.934
83184SOL     OW51325   3.409   2.377  14.118
83184SOL    HW151326   3.400   2.422  14.034
83184SOL    HW251327   3.445   2.291  14.096
83185SOL     OW51328   0.376   7.000   0.346
83185SOL    HW151329   0.356   7.059   0.419
83185SOL    HW251330   0.334   6.918   0.369
83186SOL     OW51331   2.460   7.201   6.677
83186SOL    HW151332   2.387   7.263   6.684
83186SOL    HW251333   2.429   7.134   6.615
83187SOL     OW51334   3.956  11.860   1.195
83187SOL    HW151335   3.979  11.942   1.152
83187SOL    HW251336   4.007  11.859   1.276
83188SOL     OW51337   1.501  12.956   0.468
83188SOL    HW151338   1.524  12.870   0.432
83188SOL    HW251339   1.421  12.941   0.517
83189SOL     OW51340   3.063   2.944   2.487
83189SOL    HW151341   3.140   3.001   2.489
83189SOL    HW251342   2.991   3.002   2.512
83190SOL     OW51343   3.841   6.704  12.460
83190SOL    HW151344   3.759   6.656  12.459
83190SOL    HW251345   3.856   6.726  12.552
83191SOL     OW51346  13.806  11.122   1.685
83191SOL    HW151347  13.795  11.195   1.746
83191SOL    HW251348  13.815  11.045   1.740
83192SOL     OW51349   8.729  10.872   8.594
83192SOL    HW151350   8.805  10.898   8.542
83192SOL    HW251351   8.766  10.848   8.679
83193SOL     OW51352  12.375   1.046  14.641
83193SOL    HW151353  12.423   1.104  14.700
83193SOL    HW251354  12.359   1.098  14.563
83194SOL     OW51355   7.966   4.629   6.374
83194SOL    HW151356   7.870   4.629   6.370
83194SOL    HW251357   7.985   4.605   6.465
83195SOL     OW51358  13.262  14.255   4.021
83195SOL    HW151359  13.342  14.308   4.012
83195SOL    HW251360  13.246  14.222   3.933
83196SOL     OW51361   2.024   8.671  13.887
83196SOL    HW151362   2.099   8.621  13.854
83196SOL    HW251363   2.032   8.756  13.845
83197SOL     OW51364   7.731  10.795   9.981
83197SOL    HW151365   7.784  10.838  10.048
83197SOL    HW251366   7.673  10.737  10.031
83198SOL     OW51367   7.319  13.254   2.102
83198SOL    HW151368   7.255  13.202   2.151
83198SOL    HW251369   7.271  13.287   2.027
83199SOL     OW51370   6.156   8.093   7.868
83199SOL    HW151371   6.087   8.152   7.899
83199SOL    HW251372   6.226   8.105   7.932
83200SOL     OW51373   8.148   5.364  14.389
83200SOL    HW151374   8.204   5.305  14.440
83200SOL    HW251375   8.084   5.397  14.452
83201SOL     OW51376   7.326  11.182  12.035
83201SOL    HW151377   7.357  11.272  12.038
83201SOL    HW251378   7.266  11.174  12.109
83202SOL     OW51379   1.405   9.834   0.526
83202SOL    HW151380   1.419   9.797   0.613
83202SOL    HW251381   1.447   9.920   0.529
83203SOL     OW51382  14.105   6.002   3.417
83203SOL    HW151383  14.155   5.991   3.498
83203SOL    HW251384  14.046   6.074   3.435
83204SOL     OW51385   2.822   5.304   7.362
83204SOL    HW151386   2.905   5.315   7.316
83204SOL    HW251387   2.777   5.235   7.313
83205SOL     OW51388   6.017   7.432   9.836
83205SOL    HW151389   6.112   7.428   9.843
83205SOL    HW251390   6.001   7.496   9.767
83206SOL     OW51391   2.887   2.235   0.627
83206SOL    HW151392   2.818   2.295   0.655
83206SOL    HW251393   2.908   2.263   0.538
83207SOL     OW51394   7.309  13.066   4.706
83207SOL    HW151395   7.281  12.978   4.680
83207SOL    HW251396   7.402  13.056   4.727
83208SOL     OW51397   7.283  12.732   1.119
83208SOL    HW151398   7.356  12.753   1.177
83208SOL    HW251399   7.205  12.762   1.166
83209SOL     OW51400   8.880   0.372  11.139
83209SOL    HW151401   8.815   0.408  11.079
83209SOL    HW251402   8.859   0.411  11.223
83210SOL     OW51403   4.318   4.068   1.476
83210SOL    HW151404   4.287   4.025   1.556
83210SOL    HW251405   4.297   4.007   1.406
83211SOL     OW51406   7.082   8.308  13.990
83211SOL    HW151407   7.173   8.288  13.970
83211SOL    HW251408   7.033   8.272  13.917
83212SOL     OW51409   6.393   1.848   1.424
83212SOL    HW151410   6.437   1.865   1.507
83212SOL    HW251411   6.394   1.932   1.378
83213SOL     OW51412   5.829   2.705   6.835
83213SOL    HW151413   5.813   2.782   6.781
83213SOL    HW251414   5.879   2.737   6.910
83214SOL     OW51415   6.634  14.170   6.645
83214SOL    HW151416   6.716  14.187   6.692
83214SOL    HW251417   6.662  14.142   6.558
83215SOL     OW51418  12.294   0.238  10.003
83215SOL    HW151419  12.333   0.324   9.984
83215SOL    HW251420  12.228   0.257  10.070
83216SOL     OW51421   6.366   4.132   7.880
83216SOL    HW151422   6.305   4.151   7.808
83216SOL    HW251423   6.313   4.136   7.959
83217SOL     OW51424   4.225  11.608   1.958
83217SOL    HW151425   4.142  11.647   1.984
83217SOL    HW251426   4.213  11.583   1.866
83218SOL     OW51427  10.315   8.270  12.107
83218SOL    HW151428  10.239   8.303  12.155
83218SOL    HW251429  10.345   8.345  12.055
83219SOL     OW51430   8.255   1.348   5.674
83219SOL    HW151431   8.338   1.349   5.721
83219SOL    HW251432   8.278   1.373   5.584
83220SOL     OW51433  10.578  11.365   4.908
83220SOL    HW151434  10.601  11.309   4.983
83220SOL    HW251435  10.562  11.303   4.837
83221SOL     OW51436   1.920   1.641  13.563
83221SOL    HW151437   1.977   1.605  13.631
83221SOL    HW251438   1.918   1.735  13.582
83222SOL     OW51439  14.466   8.423   5.087
83222SOL    HW151440  14.461   8.356   5.019
83222SOL    HW251441  14.549   8.404   5.132
83223SOL     OW51442   9.829   6.623   1.269
83223SOL    HW151443   9.878   6.658   1.195
83223SOL    HW251444   9.893   6.573   1.319
83224SOL     OW51445   0.109   3.506   4.069
83224SOL    HW151446   0.100   3.512   3.974
83224SOL    HW251447   0.157   3.425   4.083
83225SOL     OW51448   1.800   2.874  13.230
83225SOL    HW151449   1.834   2.951  13.276
83225SOL    HW251450   1.853   2.801  13.263
83226SOL     OW51451   0.965  11.619   2.657
83226SOL    HW151452   0.928  11.595   2.572
83226SOL    HW251453   1.012  11.541   2.686
83227SOL     OW51454   4.836   7.976   0.689
83227SOL    HW151455   4.860   8.016   0.773
83227SOL    HW251456   4.920   7.949   0.650
83228SOL     OW51457  10.534   0.185  13.071
83228SOL    HW151458  10.590   0.126  13.022
83228SOL    HW251459  10.548   0.162  13.163
83229SOL     OW51460   4.668   6.495   3.668
83229SOL    HW151461   4.728   6.422   3.651
83229SOL    HW251462   4.583   6.453   3.682
83230SOL     OW51463   8.740  11.481   5.984
83230SOL    HW151464   8.664  11.536   5.967
83230SOL    HW251465   8.788  11.527   6.052
83231SOL     OW51466   8.423   0.370   0.491
83231SOL    HW151467   8.453   0.442   0.437
83231SOL    HW251468   8.337   0.398   0.524
83232SOL     OW51469  13.296   7.345  11.751
83232SOL    HW151470  13.359   7.277  11.776
83232SOL    HW251471  13.242   7.357  11.829
83233SOL     OW51472  10.444   5.941   5.243
83233SOL    HW151473  10.463   5.867   5.185
83233SOL    HW251474  10.523   5.951   5.296
83234SOL     OW51475   2.284   6.254   2.812
83234SOL    HW151476   2.291   6.315   2.739
83234SOL    HW251477   2.374   6.243   2.843
83235SOL     OW51478   7.623   2.537  13.813
83235SOL    HW151479   7.591   2.464  13.867
83235SOL    HW251480   7.714   2.514  13.793
83236SOL     OW51481   4.239   1.740   3.865
83236SOL    HW151482   4.147   1.718   3.874
83236SOL    HW251483   4.247   1.774   3.776
83237SOL     OW51484  11.260   9.093   0.144
83237SOL    HW151485  11.214   9.154   0.202
83237SOL    HW251486  11.333   9.144   0.109
83238SOL     OW51487   6.474  13.826  10.630
83238SOL    HW151488   6.492  13.793  10.542
83238SOL    HW251489   6.553  13.875  10.654
83239SOL     OW51490  14.484  11.003   3.941
83239SOL    HW151491  14.492  10.940   4.012
83239SOL    HW251492  14.552  10.977   3.878
83240SOL     OW51493   5.914   5.283   6.275
83240SOL    HW151494   5.827   5.282   6.234
83240SOL    HW251495   5.896   5.277   6.369
83241SOL     OW51496   1.738   6.935   2.301
83241SOL    HW151497   1.686   6.986   2.239
83241SOL    HW251498   1.695   6.850   2.305
83242SOL     OW51499  11.206   1.856   3.538
83242SOL    HW151500  11.128   1.909   3.521
83242SOL    HW251501  11.279   1.917   3.528
83243SOL     OW51502   0.843   7.294  10.431
83243SOL    HW151503   0.794   7.371  10.461
83243SOL    HW251504   0.815   7.280  10.341
83244SOL     OW51505   6.788   8.768  14.633
83244SOL    HW151506   6.796   8.799  14.543
83244SOL    HW251507   6.732   8.691  14.628
83245SOL     OW51508   7.605   6.137   0.985
83245SOL    HW151509   7.570   6.130   0.896
83245SOL    HW251510   7.528   6.145   1.040
83246SOL     OW51511   2.655  14.033   5.230
83246SOL    HW151512   2.694  13.973   5.166
83246SOL    HW251513   2.695  14.009   5.314
83247SOL     OW51514  11.510   6.667  14.145
83247SOL    HW151515  11.597   6.690  14.112
83247SOL    HW251516  11.521   6.578  14.179
83248SOL     OW51517   7.287  12.379   1.504
83248SOL    HW151518   7.205  12.403   1.461
83248SOL    HW251519   7.267  12.382   1.598
83249SOL     OW51520   7.060  10.115   2.411
83249SOL    HW151521   7.061  10.098   2.316
83249SOL    HW251522   7.063  10.027   2.450
83250SOL     OW51523   4.570   4.965   4.988
83250SOL    HW151524   4.549   5.016   4.910
83250SOL    HW251525   4.495   4.978   5.046
83251SOL     OW51526   9.845  11.918  14.701
83251SOL    HW151527   9.926  11.906  14.652
83251SOL    HW251528   9.776  11.895  14.639
83252SOL     OW51529   7.935   2.295  11.921
83252SOL    HW151530   7.918   2.388  11.939
83252SOL    HW251531   7.998   2.296  11.849
83253SOL     OW51532   9.781   5.623  10.261
83253SOL    HW151533   9.712   5.664  10.208
83253SOL    HW251534   9.848   5.599  10.197
83254SOL     OW51535   9.096  11.086   0.401
83254SOL    HW151536   9.093  11.172   0.444
83254SOL    HW251537   9.042  11.030   0.457
83255SOL     OW51538   1.780   1.084   6.597
83255SOL    HW151539   1.816   1.145   6.532
83255SOL    HW251540   1.810   1.118   6.681
83256SOL     OW51541   0.343   8.918  11.765
83256SOL    HW151542   0.353   8.831  11.804
83256SOL    HW251543   0.416   8.969  11.801
83257SOL     OW51544  13.738   3.628  10.559
83257SOL    HW151545  13.705   3.559  10.616
83257SOL    HW251546  13.741   3.705  10.616
83258SOL     OW51547  10.316   3.122   9.240
83258SOL    HW151548  10.366   3.125   9.321
83258SOL    HW251549  10.307   3.213   9.213
83259SOL     OW51550   8.892   9.409   3.580
83259SOL    HW151551   8.840   9.377   3.653
83259SOL    HW251552   8.850   9.371   3.502
83260SOL     OW51553   4.303   6.522   6.540
83260SOL    HW151554   4.339   6.601   6.579
83260SOL    HW251555   4.226   6.501   6.594
83261SOL     OW51556  10.753   9.715   9.783
83261SOL    HW151557  10.667   9.750   9.760
83261SOL    HW251558  10.810   9.738   9.710
83262SOL     OW51559   0.575  10.274  10.698
83262SOL    HW151560   0.583  10.354  10.646
83262SOL    HW251561   0.593  10.204  10.635
83263SOL     OW51562   2.482   9.470   3.677
83263SOL    HW151563   2.568   9.511   3.669
83263SOL    HW251564   2.501   9.376   3.687
83264SOL     OW51565  13.342  11.441  11.442
83264SOL    HW151566  13.291  11.375  11.394
83264SOL    HW251567  13.420  11.453  11.389
83265SOL     OW51568  14.020   2.472   4.773
83265SOL    HW151569  14.004   2.454   4.866
83265SOL    HW251570  13.938   2.509   4.741
83266SOL     OW51571   0.660  14.422  11.397
83266SOL    HW151572   0.580  14.438  11.448
83266SOL    HW251573   0.636  14.351  11.338
83267SOL     OW51574   5.342  13.446  12.963
83267SOL    HW151575   5.270  13.503  12.935
83267SOL    HW251576   5.327  13.433  13.057
83268SOL     OW51577   5.768   7.010   6.856
83268SOL    HW151578   5.773   6.920   6.889
83268SOL    HW251579   5.846   7.020   6.801
83269SOL     OW51580   4.347   6.230   5.388
83269SOL    HW151581   4.349   6.194   5.299
83269SOL    HW251582   4.335   6.153   5.444
83270SOL     OW51583   2.278   5.933   3.599
83270SOL    HW151584   2.299   5.855   3.651
83270SOL    HW251585   2.205   5.906   3.543
83271SOL     OW51586   6.212   7.947  13.709
83271SOL    HW151587   6.272   7.943  13.783
83271SOL    HW251588   6.267   7.966  13.633
83272SOL     OW51589  12.277  10.555   5.399
83272SOL    HW151590  12.286  10.601   5.315
83272SOL    HW251591  12.216  10.484   5.380
83273SOL     OW51592   2.066   4.214  14.313
83273SOL    HW151593   2.098   4.162  14.240
83273SOL    HW251594   2.105   4.173  14.390
83274SOL     OW51595  12.320  10.458  10.533
83274SOL    HW151596  12.309  10.397  10.460
83274SOL    HW251597  12.385  10.522  10.502
83275SOL     OW51598   8.299  13.574  10.987
83275SOL    HW151599   8.294  13.559  11.081
83275SOL    HW251600   8.239  13.511  10.949
83276SOL     OW51601   8.204  11.627  12.867
83276SOL    HW151602   8.216  11.692  12.936
83276SOL    HW251603   8.117  11.590  12.883
83277SOL     OW51604  13.895  13.185   0.235
83277SOL    HW151605  13.849  13.183   0.318
83277SOL    HW251606  13.875  13.101   0.194
83278SOL     OW51607   3.788   6.858   3.904
83278SOL    HW151608   3.834   6.913   3.840
83278SOL    HW251609   3.695   6.868   3.882
83279SOL     OW51610   8.516   6.626   2.250
83279SOL    HW151611   8.446   6.644   2.312
83279SOL    HW251612   8.590   6.599   2.305
83280SOL     OW51613   8.994   2.112  11.580
83280SOL    HW151614   8.963   2.022  11.586
83280SOL    HW251615   8.958   2.155  11.658
83281SOL     OW51616   5.074  12.654  12.709
83281SOL    HW151617   5.162  12.615  12.703
83281SOL    HW251618   5.032  12.631  12.627
83282SOL     OW51619  12.389   6.552   1.671
83282SOL    HW151620  12.309   6.544   1.723
83282SOL    HW251621  12.360   6.547   1.580
83283SOL     OW51622   5.782   6.665  14.427
83283SOL    HW151623   5.764   6.756  14.406
83283SOL    HW251624   5.745   6.653  14.515
83284SOL     OW51625   9.783   2.409   6.822
83284SOL    HW151626   9.817   2.410   6.733
83284SOL    HW251627   9.718   2.339   6.822
83285SOL     OW51628   0.040  14.685   0.297
83285SOL    HW151629   0.102  14.625   0.257
83285SOL    HW251630   0.091  14.731   0.364
83286SOL     OW51631  14.822   1.553   6.317
83286SOL    HW151632   0.021   1.567   6.267
83286SOL    HW251633  14.756   1.604   6.269
83287SOL     OW51634   4.528  12.294   4.619
83287SOL    HW151635   4.510  12.300   4.713
83287SOL    HW251636   4.548  12.202   4.604
83288SOL     OW51637   5.525   0.738   6.276
83288SOL    HW151638   5.482   0.659   6.308
83288SOL    HW251639   5.464   0.808   6.297
83289SOL     OW51640  14.070  13.742   3.932
83289SOL    HW151641  14.002  13.804   3.958
83289SOL    HW251642  14.139  13.797   3.895
83290SOL     OW51643   7.788   8.728  14.222
83290SOL    HW151644   7.739   8.801  14.261
83290SOL    HW251645   7.813   8.674  14.297
83291SOL     OW51646  12.312  11.138  12.673
83291SOL    HW151647  12.253  11.211  12.689
83291SOL    HW251648  12.399  11.177  12.668
83292SOL     OW51649   0.258   2.539   5.229
83292SOL    HW151650   0.179   2.584   5.200
83292SOL    HW251651   0.255   2.545   5.325
83293SOL     OW51652  11.361   5.600   0.902
83293SOL    HW151653  11.272   5.628   0.925
83293SOL    HW251654  11.409   5.604   0.985
83294SOL     OW51655  13.033   7.623   8.145
83294SOL    HW151656  13.118   7.603   8.186
83294SOL    HW251657  12.997   7.694   8.198
83295SOL     OW51658  14.491   9.316   6.481
83295SOL    HW151659  14.497   9.226   6.515
83295SOL    HW251660  14.429   9.311   6.409
83296SOL     OW51661   1.808  10.282  13.991
83296SOL    HW151662   1.792  10.204  14.043
83296SOL    HW251663   1.899  10.304  14.007
83297SOL     OW51664   6.533   9.931   6.862
83297SOL    HW151665   6.598   9.902   6.926
83297SOL    HW251666   6.570   9.906   6.778
83298SOL     OW51667   9.436   4.237   5.447
83298SOL    HW151668   9.462   4.172   5.382
83298SOL    HW251669   9.388   4.303   5.398
83299SOL     OW51670  13.517   7.173  14.672
83299SOL    HW151671  13.586   7.232  14.640
83299SOL    HW251672  13.471   7.145  14.593
83300SOL     OW51673   8.088   0.928   7.482
83300SOL    HW151674   8.132   0.927   7.568
83300SOL    HW251675   8.102   1.017   7.449
83301SOL     OW51676  14.740   8.410   5.592
83301SOL    HW151677  14.676   8.417   5.521
83301SOL    HW251678  14.777   8.322   5.583
83302SOL     OW51679   0.576  11.407  11.957
83302SOL    HW151680   0.507  11.344  11.980
83302SOL    HW251681   0.598  11.386  11.867
83303SOL     OW51682   8.471   4.425  13.277
83303SOL    HW151683   8.386   4.411  13.235
83303SOL    HW251684   8.489   4.518  13.263
83304SOL     OW51685   6.250   4.103   2.805
83304SOL    HW151686   6.281   4.055   2.883
83304SOL    HW251687   6.329   4.117   2.753
83305SOL     OW51688  11.460   5.256   0.240
83305SOL    HW151689  11.468   5.164   0.265
83305SOL    HW251690  11.472   5.257   0.145
83306SOL     OW51691   4.424   4.318   3.085
83306SOL    HW151692   4.421   4.234   3.131
83306SOL    HW251693   4.476   4.374   3.142
83307SOL     OW51694   9.120  12.220  13.578
83307SOL    HW151695   9.065  12.253  13.650
83307SOL    HW251696   9.092  12.129  13.567
83308SOL     OW51697   6.879  14.322  12.675
83308SOL    HW151698   6.843  14.343  12.589
83308SOL    HW251699   6.918  14.235  12.664
83309SOL     OW51700  10.967   9.668   3.536
83309SOL    HW151701  11.011   9.588   3.566
83309SOL    HW251702  11.031   9.737   3.550
83310SOL     OW51703   2.789   1.134   9.470
83310SOL    HW151704   2.804   1.132   9.564
83310SOL    HW251705   2.736   1.213   9.456
83311SOL     OW51706  14.630   0.543  10.176
83311SOL    HW151707  14.542   0.542  10.139
83311SOL    HW251708  14.646   0.634  10.200
83312SOL     OW51709  13.246   0.220   2.878
83312SOL    HW151710  13.321   0.214   2.937
83312SOL    HW251711  13.179   0.164   2.918
83313SOL     OW51712   9.919  12.538  11.039
83313SOL    HW151713   9.902  12.501  11.126
83313SOL    HW251714   9.832  12.564  11.007
83314SOL     OW51715   8.369   3.912   7.632
83314SOL    HW151716   8.291   3.942   7.585
83314SOL    HW251717   8.395   3.987   7.686
83315SOL     OW51718   4.769   5.854   0.285
83315SOL    HW151719   4.808   5.896   0.361
83315SOL    HW251720   4.690   5.813   0.318
83316SOL     OW51721  10.758   6.265  12.350
83316SOL    HW151722  10.810   6.300  12.422
83316SOL    HW251723  10.690   6.213  12.392
83317SOL     OW51724   6.840  10.497   3.612
83317SOL    HW151725   6.765  10.554   3.629
83317SOL    HW251726   6.809  10.437   3.544
83318SOL     OW51727   0.345   3.612  11.715
83318SOL    HW151728   0.300   3.538  11.674
83318SOL    HW251729   0.281   3.646  11.778
83319SOL     OW51730  12.571   6.378  13.270
83319SOL    HW151731  12.662   6.406  13.271
83319SOL    HW251732  12.545   6.376  13.362
83320SOL     OW51733   8.054  11.960   5.147
83320SOL    HW151734   8.141  11.975   5.183
83320SOL    HW251735   8.064  11.973   5.053
83321SOL     OW51736   3.603  13.047   0.794
83321SOL    HW151737   3.507  13.045   0.800
83321SOL    HW251738   3.625  13.138   0.812
83322SOL     OW51739   6.040  10.486   5.270
83322SOL    HW151740   6.118  10.430   5.275
83322SOL    HW251741   6.063  10.562   5.323
83323SOL     OW51742   6.251  13.669  10.068
83323SOL    HW151743   6.256  13.758  10.103
83323SOL    HW251744   6.179  13.629  10.117
83324SOL     OW51745   9.981   2.620   4.210
83324SOL    HW151746   9.974   2.574   4.127
83324SOL    HW251747  10.066   2.664   4.206
83325SOL     OW51748   5.222   4.280   0.387
83325SOL    HW151749   5.133   4.300   0.358
83325SOL    HW251750   5.211   4.240   0.473
83326SOL     OW51751   0.045   3.276  10.736
83326SOL    HW151752   0.140   3.267  10.736
83326SOL    HW251753   0.018   3.237  10.653
83327SOL     OW51754   2.206   7.841   6.378
83327SOL    HW151755   2.164   7.797   6.304
83327SOL    HW251756   2.273   7.896   6.338
83328SOL     OW51757  12.143   7.235   0.773
83328SOL    HW151758  12.202   7.287   0.719
83328SOL    HW251759  12.126   7.156   0.720
83329SOL     OW51760  13.718  14.476  12.124
83329SOL    HW151761  13.783  14.543  12.100
83329SOL    HW251762  13.685  14.444  12.040
83330SOL     OW51763   8.489   2.717   1.889
83330SOL    HW151764   8.555   2.650   1.907
83330SOL    HW251765   8.463   2.701   1.798
83331SOL     OW51766   5.257   7.020   7.616
83331SOL    HW151767   5.314   7.016   7.693
83331SOL    HW251768   5.297   6.959   7.553
83332SOL     OW51769  12.945   2.192   3.153
83332SOL    HW151770  12.988   2.229   3.230
83332SOL    HW251771  12.970   2.250   3.081
83333SOL     OW51772   8.423  10.041   4.578
83333SOL    HW151773   8.460  10.107   4.636
83333SOL    HW251774   8.488   9.971   4.577
83334SOL     OW51775   8.175   9.426  14.476
83334SOL    HW151776   8.265   9.441  14.447
83334SOL    HW251777   8.144   9.513  14.504
83335SOL     OW51778   9.588   2.671   9.102
83335SOL    HW151779   9.607   2.655   9.195
83335SOL    HW251780   9.674   2.684   9.062
83336SOL     OW51781  10.448   9.026  10.813
83336SOL    HW151782  10.478   8.935  10.806
83336SOL    HW251783  10.395   9.027  10.892
83337SOL     OW51784   3.398  11.693   0.461
83337SOL    HW151785   3.346  11.677   0.540
83337SOL    HW251786   3.413  11.787   0.461
83338SOL     OW51787   1.090   9.067   4.456
83338SOL    HW151788   1.029   9.125   4.410
83338SOL    HW251789   1.169   9.067   4.402
83339SOL     OW51790   1.808   6.160   8.163
83339SOL    HW151791   1.733   6.124   8.211
83339SOL    HW251792   1.882   6.106   8.190
83340SOL     OW51793  11.331   1.410   3.076
83340SOL    HW151794  11.354   1.484   3.132
83340SOL    HW251795  11.245   1.431   3.040
83341SOL     OW51796   3.482  10.805   7.326
83341SOL    HW151797   3.547  10.749   7.283
83341SOL    HW251798   3.468  10.763   7.411
83342SOL     OW51799  10.975   6.333   4.506
83342SOL    HW151800  10.942   6.245   4.524
83342SOL    HW251801  10.900   6.390   4.520
83343SOL     OW51802  12.731  11.831   7.539
83343SOL    HW151803  12.819  11.802   7.560
83343SOL    HW251804  12.697  11.865   7.622
83344SOL     OW51805  10.972   6.686   6.301
83344SOL    HW151806  11.066   6.685   6.283
83344SOL    HW251807  10.952   6.779   6.312
83345SOL     OW51808  11.536   7.616  13.657
83345SOL    HW151809  11.500   7.578  13.738
83345SOL    HW251810  11.570   7.701  13.684
83346SOL     OW51811  12.705  14.676   1.824
83346SOL    HW151812  12.730  14.744   1.763
83346SOL    HW251813  12.617  14.650   1.797
83347SOL     OW51814   3.202  14.046   8.997
83347SOL    HW151815   3.117  14.009   8.976
83347SOL    HW251816   3.230  13.999   9.076
83348SOL     OW51817   0.303   3.198  10.695
83348SOL    HW151818   0.321   3.128  10.633
83348SOL    HW251819   0.366   3.267  10.673
83349SOL     OW51820   9.755   1.850   4.813
83349SOL    HW151821   9.756   1.755   4.798
83349SOL    HW251822   9.691   1.883   4.750
83350SOL     OW51823   8.574   9.074   3.832
83350SOL    HW151824   8.543   8.989   3.865
83350SOL    HW251825   8.633   9.106   3.900
83351SOL     OW51826  12.428   9.497   5.148
83351SOL    HW151827  12.412   9.405   5.170
83351SOL    HW251828  12.473   9.532   5.226
83352SOL     OW51829  12.161   2.989  11.760
83352SOL    HW151830  12.069   3.006  11.777
83352SOL    HW251831  12.202   3.076  11.760
83353SOL     OW51832   5.487   3.515  11.324
83353SOL    HW151833   5.490   3.589  11.264
83353SOL    HW251834   5.407   3.468  11.300
83354SOL     OW51835   4.498   3.551   9.371
83354SOL    HW151836   4.489   3.475   9.313
83354SOL    HW251837   4.475   3.517   9.458
83355SOL     OW51838   5.554   3.161  10.685
83355SOL    HW151839   5.563   3.108  10.764
83355SOL    HW251840   5.460   3.169  10.671
83356SOL     OW51841  14.743   6.738   1.818
83356SOL    HW151842  14.825   6.760   1.862
83356SOL    HW251843  14.684   6.811   1.837
83357SOL     OW51844  12.784  14.356  10.369
83357SOL    HW151845  12.760  14.443  10.400
83357SOL    HW251846  12.872  14.367  10.332
83358SOL     OW51847   7.090  11.762  10.894
83358SOL    HW151848   7.149  11.707  10.944
83358SOL    HW251849   7.109  11.851  10.925
83359SOL     OW51850   7.586  12.009   1.211
83359SOL    HW151851   7.512  12.006   1.150
83359SOL    HW251852   7.653  12.059   1.166
83360SOL     OW51853  12.055   7.549   8.847
83360SOL    HW151854  12.006   7.481   8.892
83360SOL    HW251855  11.992   7.589   8.786
83361SOL     OW51856   6.315   8.906   2.065
83361SOL    HW151857   6.398   8.909   2.112
83361SOL    HW251858   6.323   8.971   1.996
83362SOL     OW51859   4.343  12.441   0.812
83362SOL    HW151860   4.352  12.441   0.717
83362SOL    HW251861   4.346  12.533   0.837
83363SOL     OW51862  13.523   8.526   4.956
83363SOL    HW151863  13.441   8.513   4.909
83363SOL    HW251864  13.546   8.617   4.940
83364SOL     OW51865   9.526   3.676   2.489
83364SOL    HW151866   9.556   3.745   2.430
83364SOL    HW251867   9.447   3.641   2.447
83365SOL     OW51868  10.512  13.904  11.252
83365SOL    HW151869  10.560  13.973  11.296
83365SOL    HW251870  10.487  13.844  11.322
83366SOL     OW51871   9.435   4.382   2.445
83366SOL    HW151872   9.409   4.432   2.368
83366SOL    HW251873   9.414   4.438   2.520
83367SOL     OW51874  11.101  13.279   6.033
83367SOL    HW151875  11.085  13.203   5.977
83367SOL    HW251876  11.159  13.247   6.102
83368SOL     OW51877  13.996  13.040  12.334
83368SOL    HW151878  14.002  12.945  12.323
83368SOL    HW251879  13.939  13.052  12.410
83369SOL     OW51880   5.826   1.422   4.240
83369SOL    HW151881   5.902   1.479   4.240
83369SOL    HW251882   5.755   1.476   4.275
83370SOL     OW51883   3.769   0.295  13.454
83370SOL    HW151884   3.861   0.322  13.451
83370SOL    HW251885   3.725   0.365  13.502
83371SOL     OW51886  14.004   9.098   5.416
83371SOL    HW151887  14.018   9.028   5.480
83371SOL    HW251888  14.025   9.057   5.331
83372SOL     OW51889  10.431   5.168   6.212
83372SOL    HW151890  10.450   5.246   6.160
83372SOL    HW251891  10.437   5.198   6.303
83373SOL     OW51892   5.343   7.760   2.853
83373SOL    HW151893   5.322   7.817   2.779
83373SOL    HW251894   5.258   7.728   2.883
83374SOL     OW51895   3.804   8.365  12.943
83374SOL    HW151896   3.803   8.273  12.971
83374SOL    HW251897   3.870   8.406  12.998
83375SOL     OW51898   4.075   0.380   4.334
83375SOL    HW151899   4.041   0.406   4.419
83375SOL    HW251900   4.170   0.372   4.347
83376SOL     OW51901   9.287  10.919   3.603
83376SOL    HW151902   9.285  10.960   3.517
83376SOL    HW251903   9.261  10.988   3.664
83377SOL     OW51904   9.668  12.671   2.989
83377SOL    HW151905   9.676  12.606   2.918
83377SOL    HW251906   9.702  12.752   2.951
83378SOL     OW51907   4.082   0.763   2.201
83378SOL    HW151908   4.085   0.854   2.171
83378SOL    HW251909   4.050   0.714   2.126
83379SOL     OW51910   3.523   5.697  13.836
83379SOL    HW151911   3.502   5.776  13.885
83379SOL    HW251912   3.581   5.727  13.765
83380SOL     OW51913  12.534  14.111   5.998
83380SOL    HW151914  12.520  14.049   6.071
83380SOL    HW251915  12.590  14.063   5.937
83381SOL     OW51916   7.493   8.559   5.025
83381SOL    HW151917   7.405   8.594   5.043
83381SOL    HW251918   7.548   8.637   5.015
83382SOL     OW51919   4.130   8.605   2.599
83382SOL    HW151920   4.095   8.686   2.563
83382SOL    HW251921   4.218   8.598   2.561
83383SOL     OW51922   1.223   5.427   9.635
83383SOL    HW151923   1.172   5.350   9.662
83383SOL    HW251924   1.166   5.472   9.572
83384SOL     OW51925   2.005   5.561   1.402
83384SOL    HW151926   2.050   5.545   1.485
83384SOL    HW251927   2.058   5.629   1.359
83385SOL     OW51928   2.687   4.437   2.282
83385SOL    HW151929   2.705   4.346   2.259
83385SOL    HW251930   2.773   4.475   2.300
83386SOL     OW51931   7.930  13.070   6.398
83386SOL    HW151932   7.999  13.060   6.332
83386SOL    HW251933   7.930  12.986   6.444
83387SOL     OW51934   9.800   6.886   0.453
83387SOL    HW151935   9.729   6.826   0.433
83387SOL    HW251936   9.836   6.910   0.368
83388SOL     OW51937  12.012  12.554  12.438
83388SOL    HW151938  12.021  12.488  12.507
83388SOL    HW251939  12.067  12.522  12.367
83389SOL     OW51940  14.788  14.556  10.976
83389SOL    HW151941  14.867  14.547  10.923
83389SOL    HW251942  14.716  14.564  10.913
83390SOL     OW51943   2.660   3.800   1.602
83390SOL    HW151944   2.637   3.876   1.656
83390SOL    HW251945   2.599   3.805   1.528
83391SOL     OW51946   9.386   4.714   9.701
83391SOL    HW151947   9.454   4.663   9.745
83391SOL    HW251948   9.388   4.799   9.743
83392SOL     OW51949  11.889  11.290   7.939
83392SOL    HW151950  11.919  11.282   8.029
83392SOL    HW251951  11.809  11.343   7.945
83393SOL     OW51952  14.164   1.762  10.082
83393SOL    HW151953  14.070   1.744  10.084
83393SOL    HW251954  14.180   1.813  10.162
83394SOL     OW51955   7.741  13.612   4.570
83394SOL    HW151956   7.730  13.517   4.576
83394SOL    HW251957   7.829  13.625   4.534
83395SOL     OW51958  12.677   2.044   3.860
83395SOL    HW151959  12.637   1.959   3.878
83395SOL    HW251960  12.635   2.075   3.780
83396SOL     OW51961   9.276   1.257   2.422
83396SOL    HW151962   9.370   1.274   2.431
83396SOL    HW251963   9.259   1.266   2.328
83397SOL     OW51964   7.339   0.124   8.023
83397SOL    HW151965   7.379   0.200   7.980
83397SOL    HW251966   7.274   0.162   8.082
83398SOL     OW51967   9.012   6.743   6.250
83398SOL    HW151968   8.983   6.654   6.232
83398SOL    HW251969   8.945   6.779   6.310
83399SOL     OW51970  11.040  10.256  10.966
83399SOL    HW151971  11.107  10.188  10.957
83399SOL    HW251972  10.957  10.208  10.970
83400SOL     OW51973   7.499   8.445  12.151
83400SOL    HW151974   7.446   8.439  12.071
83400SOL    HW251975   7.447   8.500  12.209
83401SOL     OW51976   1.771   6.040  10.331
83401SOL    HW151977   1.782   6.121  10.381
83401SOL    HW251978   1.733   6.068  10.247
83402SOL     OW51979   7.039   4.689   9.590
83402SOL    HW151980   7.075   4.745   9.658
83402SOL    HW251981   7.009   4.750   9.522
83403SOL     OW51982  14.545   6.030  11.501
83403SOL    HW151983  14.551   5.935  11.490
83403SOL    HW251984  14.624   6.063  11.457
83404SOL     OW51985  14.092   6.965   1.312
83404SOL    HW151986  14.008   6.934   1.279
83404SOL    HW251987  14.069   7.034   1.375
83405SOL     OW51988   9.347   5.738   7.480
83405SOL    HW151989   9.329   5.733   7.386
83405SOL    HW251990   9.269   5.702   7.522
83406SOL     OW51991  11.169   4.265   3.196
83406SOL    HW151992  11.263   4.250   3.206
83406SOL    HW251993  11.151   4.342   3.249
83407SOL     OW51994   6.850  13.345   6.753
83407SOL    HW151995   6.924  13.312   6.702
83407SOL    HW251996   6.853  13.440   6.741
83408SOL     OW51997   2.980   9.104   1.886
83408SOL    HW151998   2.949   9.097   1.795
83408SOL    HW251999   3.075   9.105   1.878
83409SOL     OW52000   6.852   9.923   6.528
83409SOL    HW152001   6.901   9.922   6.610
83409SOL    HW252002   6.887   9.998   6.480
83410SOL     OW52003   3.243  13.249   9.851
83410SOL    HW152004   3.249  13.288   9.763
83410SOL    HW252005   3.331  13.215   9.867
83411SOL     OW52006   8.939  14.116   9.745
83411SOL    HW152007   9.025  14.087   9.714
83411SOL    HW252008   8.946  14.117   9.840
83412SOL     OW52009  10.491   3.613  10.342
83412SOL    HW152010  10.447   3.693  10.312
83412SOL    HW252011  10.549   3.589  10.270
83413SOL     OW52012  12.919   5.087   2.514
83413SOL    HW152013  12.907   5.012   2.457
83413SOL    HW252014  12.848   5.147   2.490
83414SOL     OW52015   0.020   3.585   8.276
83414SOL    HW152016   0.114   3.601   8.290
83414SOL    HW252017  14.862   3.672   8.281
83415SOL     OW52018  12.210   4.696   4.322
83415SOL    HW152019  12.204   4.721   4.230
83415SOL    HW252020  12.179   4.605   4.325
83416SOL     OW52021   7.794   6.682   3.682
83416SOL    HW152022   7.865   6.643   3.732
83416SOL    HW252023   7.754   6.608   3.637
83417SOL     OW52024  13.442   8.977   0.064
83417SOL    HW152025  13.388   8.900   0.046
83417SOL    HW252026  13.513   8.973   0.001
83418SOL     OW52027   6.606  10.261   3.445
83418SOL    HW152028   6.526  10.209   3.436
83418SOL    HW252029   6.625  10.259   3.538
83419SOL     OW52030   9.266   6.075   1.833
83419SOL    HW152031   9.298   5.986   1.818
83419SOL    HW252032   9.216   6.096   1.753
83420SOL     OW52033  10.814   5.088  11.264
83420SOL    HW152034  10.760   5.167  11.269
83420SOL    HW252035  10.895   5.118  11.221
83421SOL     OW52036  12.651   6.007   8.442
83421SOL    HW152037  12.738   6.003   8.402
83421SOL    HW252038  12.612   5.922   8.425
83422SOL     OW52039   2.994  10.821   4.904
83422SOL    HW152040   3.024  10.857   4.988
83422SOL    HW252041   2.899  10.820   4.911
83423SOL     OW52042  13.257   0.865   6.585
83423SOL    HW152043  13.176   0.914   6.571
83423SOL    HW252044  13.257   0.844   6.678
83424SOL     OW52045   5.683  13.370  13.646
83424SOL    HW152046   5.739  13.434  13.601
83424SOL    HW252047   5.610  13.357  13.585
83425SOL     OW52048   7.389  11.821  10.477
83425SOL    HW152049   7.469  11.782  10.442
83425SOL    HW252050   7.325  11.750  10.472
83426SOL     OW52051  10.339  13.533   4.765
83426SOL    HW152052  10.331  13.619   4.805
83426SOL    HW252053  10.260  13.523   4.712
83427SOL     OW52054   9.483  11.354  10.414
83427SOL    HW152055   9.513  11.296  10.344
83427SOL    HW252056   9.443  11.296  10.478
83428SOL     OW52057   3.818   7.502  13.445
83428SOL    HW152058   3.900   7.534  13.484
83428SOL    HW252059   3.829   7.515  13.351
83429SOL     OW52060   8.053  12.077   3.604
83429SOL    HW152061   8.111  12.060   3.678
83429SOL    HW252062   8.069  12.005   3.543
83430SOL     OW52063   8.110  10.874  14.768
83430SOL    HW152064   8.165  10.801  14.739
83430SOL    HW252065   8.095  10.857  14.861
83431SOL     OW52066   5.113  12.668   0.206
83431SOL    HW152067   5.150  12.693   0.121
83431SOL    HW252068   5.103  12.750   0.254
83432SOL     OW52069   1.474   2.355   3.330
83432SOL    HW152070   1.456   2.262   3.314
83432SOL    HW252071   1.510   2.387   3.247
83433SOL     OW52072   6.950  13.918   6.997
83433SOL    HW152073   6.939  13.872   7.080
83433SOL    HW252074   7.044  13.927   6.986
83434SOL     OW52075   4.957  11.836   6.934
83434SOL    HW152076   5.023  11.898   6.965
83434SOL    HW252077   4.873  11.878   6.955
83435SOL     OW52078  11.973   4.632  10.737
83435SOL    HW152079  12.059   4.671  10.722
83435SOL    HW252080  11.911   4.703  10.721
83436SOL     OW52081   9.593   1.809  13.482
83436SOL    HW152082   9.564   1.801  13.391
83436SOL    HW252083   9.554   1.890  13.513
83437SOL     OW52084  11.058   3.680  10.540
83437SOL    HW152085  11.104   3.720  10.467
83437SOL    HW252086  11.067   3.743  10.612
83438SOL     OW52087  14.588   7.513  13.876
83438SOL    HW152088  14.599   7.418  13.880
83438SOL    HW252089  14.669   7.548  13.913
83439SOL     OW52090  14.725  12.568  13.930
83439SOL    HW152091  14.657  12.608  13.985
83439SOL    HW252092  14.746  12.486  13.974
83440SOL     OW52093   6.264  14.333   0.226
83440SOL    HW152094   6.271  14.238   0.230
83440SOL    HW252095   6.340  14.365   0.274
83441SOL     OW52096   3.425  13.725   7.842
83441SOL    HW152097   3.508  13.754   7.802
83441SOL    HW252098   3.436  13.630   7.852
83442SOL     OW52099  11.436  10.091   3.010
83442SOL    HW152100  11.435  10.034   2.933
83442SOL    HW252101  11.393  10.040   3.078
83443SOL     OW52102   3.225   5.270   2.999
83443SOL    HW152103   3.233   5.183   3.039
83443SOL    HW252104   3.146   5.306   3.038
83444SOL     OW52105  12.552   0.777  11.454
83444SOL    HW152106  12.500   0.771  11.534
83444SOL    HW252107  12.600   0.859  11.462
83445SOL     OW52108   9.146   6.546   5.960
83445SOL    HW152109   9.199   6.482   6.008
83445SOL    HW252110   9.142   6.621   6.019
83446SOL     OW52111   0.101   8.849  13.326
83446SOL    HW152112   0.127   8.852  13.418
83446SOL    HW252113   0.005   8.847  13.328
83447SOL     OW52114  13.104   3.519   5.695
83447SOL    HW152115  13.084   3.572   5.618
83447SOL    HW252116  13.047   3.442   5.687
83448SOL     OW52117   0.057   5.335   0.249
83448SOL    HW152118   0.144   5.330   0.209
83448SOL    HW252119   0.015   5.410   0.207
83449SOL     OW52120  10.164  10.879  10.800
83449SOL    HW152121  10.165  10.817  10.727
83449SOL    HW252122  10.071  10.892  10.820
83450SOL     OW52123   3.865   4.648  13.444
83450SOL    HW152124   3.855   4.610  13.356
83450SOL    HW252125   3.958   4.667  13.451
83451SOL     OW52126   7.579  14.613  13.564
83451SOL    HW152127   7.495  14.610  13.610
83451SOL    HW252128   7.563  14.563  13.483
83452SOL     OW52129  13.099  13.832  11.272
83452SOL    HW152130  13.134  13.921  11.282
83452SOL    HW252131  13.137  13.783  11.345
83453SOL     OW52132   0.993   0.679   7.899
83453SOL    HW152133   0.984   0.677   7.994
83453SOL    HW252134   0.944   0.757   7.872
83454SOL     OW52135  14.644  13.469   4.200
83454SOL    HW152136  14.632  13.504   4.112
83454SOL    HW252137  14.634  13.374   4.189
83455SOL     OW52138  14.011  13.673   9.305
83455SOL    HW152139  14.082  13.689   9.366
83455SOL    HW252140  14.025  13.737   9.234
83456SOL     OW52141  14.088   9.328  11.464
83456SOL    HW152142  14.004   9.331  11.418
83456SOL    HW252143  14.140   9.397  11.424
83457SOL     OW52144  14.532   1.517   5.951
83457SOL    HW152145  14.515   1.570   5.872
83457SOL    HW252146  14.619   1.544   5.979
83458SOL     OW52147   3.165  14.697   3.457
83458SOL    HW152148   3.164  14.611   3.500
83458SOL    HW252149   3.251  14.702   3.417
83459SOL     OW52150   9.058   9.664   8.028
83459SOL    HW152151   8.993   9.678   7.959
83459SOL    HW252152   9.142   9.688   7.987
83460SOL     OW52153  12.193  11.191  13.418
83460SOL    HW152154  12.144  11.119  13.377
83460SOL    HW252155  12.260  11.147  13.470
83461SOL     OW52156   6.812  11.669  10.939
83461SOL    HW152157   6.879  11.602  10.930
83461SOL    HW252158   6.861  11.748  10.965
83462SOL     OW52159   6.027   8.091  12.566
83462SOL    HW152160   5.962   8.158  12.584
83462SOL    HW252161   6.023   8.078  12.471
83463SOL     OW52162  10.609   4.535   4.418
83463SOL    HW152163  10.653   4.535   4.503
83463SOL    HW252164  10.525   4.578   4.433
83464SOL     OW52165   5.891  14.627   5.720
83464SOL    HW152166   5.933  14.676   5.649
83464SOL    HW252167   5.952  14.555   5.738
83465SOL     OW52168   1.146   2.415   7.061
83465SOL    HW152169   1.107   2.399   6.975
83465SOL    HW252170   1.084   2.376   7.123
83466SOL     OW52171   1.554   4.988   7.628
83466SOL    HW152172   1.542   5.016   7.719
83466SOL    HW252173   1.643   4.951   7.627
83467SOL     OW52174   5.739   5.166  12.629
83467SOL    HW152175   5.793   5.196  12.702
83467SOL    HW252176   5.748   5.070  12.631
83468SOL     OW52177  12.016  12.084   7.771
83468SOL    HW152178  12.091  12.086   7.831
83468SOL    HW252179  12.056  12.075   7.684
83469SOL     OW52180   2.693   1.323   3.308
83469SOL    HW152181   2.705   1.349   3.217
83469SOL    HW252182   2.669   1.404   3.353
83470SOL     OW52183   2.985  10.509   4.388
83470SOL    HW152184   3.036  10.535   4.465
83470SOL    HW252185   2.898  10.545   4.403
83471SOL     OW52186   2.275  11.818   9.093
83471SOL    HW152187   2.205  11.882   9.110
83471SOL    HW252188   2.330  11.861   9.028
83472SOL     OW52189   4.469   3.399  11.891
83472SOL    HW152190   4.518   3.317  11.884
83472SOL    HW252191   4.444   3.420  11.800
83473SOL     OW52192   3.156  10.381   9.594
83473SOL    HW152193   3.140  10.288   9.579
83473SOL    HW252194   3.237  10.399   9.546
83474SOL     OW52195   3.084   6.504   7.261
83474SOL    HW152196   3.014   6.442   7.281
83474SOL    HW252197   3.068   6.530   7.171
83475SOL     OW52198  12.080   8.719   3.804
83475SOL    HW152199  12.084   8.748   3.896
83475SOL    HW252200  12.001   8.762   3.770
83476SOL     OW52201  12.026   4.374   1.196
83476SOL    HW152202  11.995   4.333   1.277
83476SOL    HW252203  11.968   4.450   1.185
83477SOL     OW52204  14.495   7.468   8.263
83477SOL    HW152205  14.451   7.469   8.179
83477SOL    HW252206  14.575   7.417   8.249
83478SOL     OW52207   3.700  12.700   8.701
83478SOL    HW152208   3.608  12.671   8.701
83478SOL    HW252209   3.743  12.642   8.763
83479SOL     OW52210  12.433  13.568   0.414
83479SOL    HW152211  12.511  13.591   0.463
83479SOL    HW252212  12.389  13.652   0.398
83480SOL     OW52213   9.357   3.200   2.903
83480SOL    HW152214   9.285   3.196   2.966
83480SOL    HW252215   9.400   3.284   2.921
83481SOL     OW52216  12.040  11.870  10.531
83481SOL    HW152217  12.015  11.959  10.557
83481SOL    HW252218  12.130  11.878  10.499
83482SOL     OW52219  12.722  13.724  13.516
83482SOL    HW152220  12.704  13.667  13.442
83482SOL    HW252221  12.798  13.776  13.489
83483SOL     OW52222   3.852   7.163  13.340
83483SOL    HW152223   3.795   7.213  13.282
83483SOL    HW252224   3.804   7.083  13.358
83484SOL     OW52225   3.795   4.245   3.686
83484SOL    HW152226   3.720   4.243   3.626
83484SOL    HW252227   3.824   4.336   3.685
83485SOL     OW52228   6.219  10.346  14.754
83485SOL    HW152229   6.151  10.348  14.821
83485SOL    HW252230   6.171  10.343  14.671
83486SOL     OW52231   8.617  14.005   6.837
83486SOL    HW152232   8.703  14.037   6.808
83486SOL    HW252233   8.573  13.981   6.756
83487SOL     OW52234   5.553   0.907   5.856
83487SOL    HW152235   5.644   0.886   5.836
83487SOL    HW252236   5.504   0.830   5.829
83488SOL     OW52237  12.760  11.905  13.423
83488SOL    HW152238  12.694  11.842  13.395
83488SOL    HW252239  12.733  11.988  13.384
83489SOL     OW52240   8.003  11.202   9.604
83489SOL    HW152241   7.973  11.153   9.528
83489SOL    HW252242   7.956  11.163   9.678
83490SOL     OW52243   5.731   3.573   4.488
83490SOL    HW152244   5.657   3.620   4.448
83490SOL    HW252245   5.805   3.632   4.476
83491SOL     OW52246  14.552   8.408   1.079
83491SOL    HW152247  14.514   8.464   1.011
83491SOL    HW252248  14.643   8.436   1.087
83492SOL     OW52249  10.341   5.736   0.007
83492SOL    HW152250  10.248   5.756   0.001
83492SOL    HW252251  10.347   5.642  14.871
83493SOL     OW52252  11.702   0.901   3.731
83493SOL    HW152253  11.735   0.821   3.770
83493SOL    HW252254  11.653   0.945   3.801
83494SOL     OW52255  14.259   9.131   5.730
83494SOL    HW152256  14.174   9.096   5.758
83494SOL    HW252257  14.248   9.226   5.735
83495SOL     OW52258   1.769   0.276   9.525
83495SOL    HW152259   1.852   0.231   9.544
83495SOL    HW252260   1.795   0.367   9.509
83496SOL     OW52261   6.186   2.374   4.841
83496SOL    HW152262   6.215   2.316   4.911
83496SOL    HW252263   6.258   2.374   4.778
83497SOL     OW52264  10.526   8.587   1.133
83497SOL    HW152265  10.490   8.673   1.111
83497SOL    HW252266  10.459   8.546   1.187
83498SOL     OW52267   2.234   1.815   7.875
83498SOL    HW152268   2.246   1.738   7.819
83498SOL    HW252269   2.320   1.830   7.914
83499SOL     OW52270  12.432   9.001   9.047
83499SOL    HW152271  12.343   9.019   9.078
83499SOL    HW252272  12.420   8.949   8.968
83500SOL     OW52273   8.315   9.736   7.597
83500SOL    HW152274   8.368   9.688   7.661
83500SOL    HW252275   8.322   9.827   7.623
83501SOL     OW52276   2.985   5.619   0.256
83501SOL    HW152277   3.068   5.614   0.211
83501SOL    HW252278   3.003   5.673   0.333
83502SOL     OW52279   0.893   0.091  13.953
83502SOL    HW152280   0.920   0.165  13.900
83502SOL    HW252281   0.938   0.016  13.915
83503SOL     OW52282   1.717  12.640   6.125
83503SOL    HW152283   1.623  12.653   6.121
83503SOL    HW252284   1.742  12.615   6.037
83504SOL     OW52285   2.811   0.305   8.862
83504SOL    HW152286   2.840   0.396   8.851
83504SOL    HW252287   2.851   0.258   8.788
83505SOL     OW52288   0.044  14.343   6.152
83505SOL    HW152289   0.001  14.357   6.067
83505SOL    HW252290   0.029  14.424   6.200
83506SOL     OW52291  12.956  11.854   0.572
83506SOL    HW152292  13.024  11.818   0.628
83506SOL    HW252293  13.001  11.875   0.490
83507SOL     OW52294   4.069   9.547  14.548
83507SOL    HW152295   4.070   9.502  14.632
83507SOL    HW252296   4.154   9.527  14.509
83508SOL     OW52297   4.578   7.566   2.293
83508SOL    HW152298   4.660   7.528   2.262
83508SOL    HW252299   4.528   7.492   2.326
83509SOL     OW52300   2.371  10.912   2.172
83509SOL    HW152301   2.354  10.828   2.214
83509SOL    HW252302   2.325  10.976   2.226
83510SOL     OW52303  13.391  11.518   2.290
83510SOL    HW152304  13.391  11.500   2.384
83510SOL    HW252305  13.371  11.612   2.283
83511SOL     OW52306   3.610   2.487   4.734
83511SOL    HW152307   3.579   2.573   4.708
83511SOL    HW252308   3.683   2.469   4.674
83512SOL     OW52309   5.271  12.868  14.470
83512SOL    HW152310   5.338  12.839  14.532
83512SOL    HW252311   5.278  12.806  14.397
83513SOL     OW52312  13.613   8.316   4.675
83513SOL    HW152313  13.559   8.306   4.753
83513SOL    HW252314  13.551   8.337   4.606
83514SOL     OW52315  12.578   1.493  10.636
83514SOL    HW152316  12.562   1.508  10.542
83514SOL    HW252317  12.631   1.568  10.664
83515SOL     OW52318   5.530   2.830   9.414
83515SOL    HW152319   5.600   2.884   9.378
83515SOL    HW252320   5.549   2.826   9.508
83516SOL     OW52321   7.298  12.436  14.266
83516SOL    HW152322   7.349  12.493  14.209
83516SOL    HW252323   7.222  12.410  14.214
83517SOL     OW52324   9.687  13.006   6.588
83517SOL    HW152325   9.601  13.046   6.600
83517SOL    HW252326   9.677  12.917   6.621
83518SOL     OW52327  12.712   0.389  11.064
83518SOL    HW152328  12.752   0.313  11.108
83518SOL    HW252329  12.678   0.354  10.982
83519SOL     OW52330   6.326   8.094   5.276
83519SOL    HW152331   6.360   8.177   5.310
83519SOL    HW252332   6.375   8.027   5.323
83520SOL     OW52333   9.915  14.771   1.739
83520SOL    HW152334   9.988  14.821   1.775
83520SOL    HW252335   9.837  14.816   1.772
83521SOL     OW52336   4.631   7.424   5.709
83521SOL    HW152337   4.595   7.507   5.678
83521SOL    HW252338   4.588   7.358   5.655
83522SOL     OW52339   7.827   2.031   2.952
83522SOL    HW152340   7.753   2.088   2.973
83522SOL    HW252341   7.863   2.005   3.037
83523SOL     OW52342   4.605   8.464   6.603
83523SOL    HW152343   4.623   8.519   6.527
83523SOL    HW252344   4.576   8.380   6.565
83524SOL     OW52345  10.866  14.416   1.506
83524SOL    HW152346  10.841  14.498   1.462
83524SOL    HW252347  10.795  14.355   1.486
83525SOL     OW52348  11.172   4.990   9.265
83525SOL    HW152349  11.167   4.924   9.335
83525SOL    HW252350  11.260   5.027   9.275
83526SOL     OW52351  11.903   0.808   5.053
83526SOL    HW152352  11.988   0.832   5.016
83526SOL    HW252353  11.897   0.714   5.041
83527SOL     OW52354   1.431   3.221   1.402
83527SOL    HW152355   1.340   3.218   1.375
83527SOL    HW252356   1.474   3.154   1.348
83528SOL     OW52357   9.469   8.816   0.423
83528SOL    HW152358   9.469   8.821   0.519
83528SOL    HW252359   9.425   8.733   0.404
83529SOL     OW52360   1.600  13.907  10.178
83529SOL    HW152361   1.581  13.855  10.100
83529SOL    HW252362   1.532  13.884  10.241
83530SOL     OW52363   0.757  14.484  13.302
83530SOL    HW152364   0.671  14.456  13.269
83530SOL    HW252365   0.815  14.475  13.227
83531SOL     OW52366  12.965   4.346   4.153
83531SOL    HW152367  13.040   4.296   4.122
83531SOL    HW252368  12.984   4.437   4.128
83532SOL     OW52369   9.705   6.088   7.916
83532SOL    HW152370   9.642   6.148   7.876
83532SOL    HW252371   9.683   6.002   7.878
83533SOL     OW52372   0.733  11.347  10.109
83533SOL    HW152373   0.647  11.385  10.129
83533SOL    HW252374   0.780  11.350  10.192
83534SOL     OW52375   7.190  12.663   8.514
83534SOL    HW152376   7.198  12.635   8.423
83534SOL    HW252377   7.274  12.639   8.554
83535SOL     OW52378  11.354  13.085   5.376
83535SOL    HW152379  11.399  13.003   5.397
83535SOL    HW252380  11.261  13.064   5.386
83536SOL     OW52381  14.678   1.609  10.930
83536SOL    HW152382  14.608   1.660  10.970
83536SOL    HW252383  14.725   1.672  10.875
83537SOL     OW52384   5.848   1.960   9.886
83537SOL    HW152385   5.878   2.016   9.958
83537SOL    HW252386   5.777   2.009   9.845
83538SOL     OW52387  11.011   7.325  10.048
83538SOL    HW152388  11.046   7.414  10.050
83538SOL    HW252389  10.949   7.325   9.976
83539SOL     OW52390   1.061  13.269  11.459
83539SOL    HW152391   1.109  13.351  11.468
83539SOL    HW252392   1.089  13.234  11.374
83540SOL     OW52393   2.725   2.017   5.986
83540SOL    HW152394   2.670   2.096   5.986
83540SOL    HW252395   2.796   2.038   6.047
83541SOL     OW52396   4.359  13.259   1.142
83541SOL    HW152397   4.335  13.260   1.235
83541SOL    HW252398   4.453  13.243   1.142
83542SOL     OW52399   2.577  10.449   7.252
83542SOL    HW152400   2.486  10.471   7.236
83542SOL    HW252401   2.621  10.534   7.260
83543SOL     OW52402   4.644   6.925  10.703
83543SOL    HW152403   4.708   6.994  10.717
83543SOL    HW252404   4.643   6.912  10.608
83544SOL     OW52405  14.580  11.340   6.454
83544SOL    HW152406  14.536  11.257   6.436
83544SOL    HW252407  14.568  11.391   6.374
83545SOL     OW52408   8.670  10.502   3.868
83545SOL    HW152409   8.636  10.586   3.838
83545SOL    HW252410   8.718  10.466   3.793
83546SOL     OW52411   1.828  13.407  10.337
83546SOL    HW152412   1.915  13.369  10.325
83546SOL    HW252413   1.795  13.365  10.417
83547SOL     OW52414   7.404   1.112   1.157
83547SOL    HW152415   7.397   1.047   1.087
83547SOL    HW252416   7.367   1.192   1.119
83548SOL     OW52417  13.995  10.228  13.319
83548SOL    HW152418  14.015  10.167  13.391
83548SOL    HW252419  14.022  10.313  13.352
83549SOL     OW52420   2.000   8.926   5.564
83549SOL    HW152421   2.005   9.022   5.569
83549SOL    HW252422   2.058   8.903   5.491
83550SOL     OW52423   2.073   4.579   5.076
83550SOL    HW152424   2.108   4.528   5.149
83550SOL    HW252425   2.078   4.521   5.000
83551SOL     OW52426  11.507   9.736  12.727
83551SOL    HW152427  11.598   9.741  12.755
83551SOL    HW252428  11.510   9.689  12.643
83552SOL     OW52429   0.063   3.760   7.574
83552SOL    HW152430  14.875   3.738   7.635
83552SOL    HW252431   0.121   3.819   7.623
83553SOL     OW52432  11.687   5.838  10.353
83553SOL    HW152433  11.715   5.821  10.263
83553SOL    HW252434  11.688   5.752  10.395
83554SOL     OW52435   3.803  11.239  13.140
83554SOL    HW152436   3.788  11.229  13.046
83554SOL    HW252437   3.733  11.188  13.181
83555SOL     OW52438  13.829   9.385  11.395
83555SOL    HW152439  13.844   9.460  11.338
83555SOL    HW252440  13.766   9.331  11.348
83556SOL     OW52441   9.766   8.471   3.372
83556SOL    HW152442   9.804   8.384   3.384
83556SOL    HW252443   9.727   8.493   3.456
83557SOL     OW52444  12.388  13.698  13.185
83557SOL    HW152445  12.311  13.746  13.216
83557SOL    HW252446  12.352  13.632  13.126
83558SOL     OW52447   1.381   0.295  10.174
83558SOL    HW152448   1.403   0.373  10.225
83558SOL    HW252449   1.457   0.282  10.116
83559SOL     OW52450  13.839   6.592  14.615
83559SOL    HW152451  13.904   6.531  14.650
83559SOL    HW252452  13.874   6.618  14.529
83560SOL     OW52453  10.831  10.431   1.298
83560SOL    HW152454  10.849  10.339   1.316
83560SOL    HW252455  10.774  10.429   1.221
83561SOL     OW52456   9.950  11.610  12.970
83561SOL    HW152457   9.901  11.664  12.907
83561SOL    HW252458   9.891  11.601  13.045
83562SOL     OW52459   2.834   7.343  10.001
83562SOL    HW152460   2.830   7.248   9.986
83562SOL    HW252461   2.919   7.369   9.966
83563SOL     OW52462   3.602   5.051  11.199
83563SOL    HW152463   3.515   5.037  11.162
83563SOL    HW252464   3.617   5.145  11.191
83564SOL     OW52465  10.205   6.780   1.893
83564SOL    HW152466  10.227   6.696   1.852
83564SOL    HW252467  10.234   6.771   1.983
83565SOL     OW52468  13.132   6.181   7.921
83565SOL    HW152469  13.199   6.236   7.961
83565SOL    HW252470  13.077   6.153   7.994
83566SOL     OW52471   7.142  14.267   7.509
83566SOL    HW152472   7.134  14.174   7.485
83566SOL    HW252473   7.233  14.276   7.538
83567SOL     OW52474  12.477   0.565   9.453
83567SOL    HW152475  12.506   0.481   9.489
83567SOL    HW252476  12.418   0.600   9.520
83568SOL     OW52477  12.751  10.516  13.905
83568SOL    HW152478  12.740  10.492  13.813
83568SOL    HW252479  12.837  10.481  13.929
83569SOL     OW52480   1.355  12.625   6.737
83569SOL    HW152481   1.399  12.603   6.654
83569SOL    HW252482   1.425  12.632   6.801
83570SOL     OW52483   3.476   6.053   6.943
83570SOL    HW152484   3.521   6.098   7.015
83570SOL    HW252485   3.443   5.972   6.982
83571SOL     OW52486   5.894   0.135   0.106
83571SOL    HW152487   5.812   0.127   0.056
83571SOL    HW252488   5.918   0.227   0.097
83572SOL     OW52489   6.450  11.671   4.959
83572SOL    HW152490   6.462  11.685   4.865
83572SOL    HW252491   6.357  11.649   4.967
83573SOL     OW52492  12.773  11.355  10.718
83573SOL    HW152493  12.691  11.403  10.705
83573SOL    HW252494  12.787  11.356  10.812
83574SOL     OW52495   0.030  14.780   8.070
83574SOL    HW152496   0.046  14.731   7.989
83574SOL    HW252497  14.860  14.855   8.043
83575SOL     OW52498   1.575   8.438   2.288
83575SOL    HW152499   1.594   8.518   2.238
83575SOL    HW252500   1.623   8.450   2.371
83576SOL     OW52501   4.709  12.144   2.330
83576SOL    HW152502   4.782  12.202   2.350
83576SOL    HW252503   4.747  12.075   2.275
83577SOL     OW52504   6.098  10.070   4.405
83577SOL    HW152505   6.125   9.981   4.426
83577SOL    HW252506   6.111  10.078   4.311
83578SOL     OW52507   8.998   8.924  14.881
83578SOL    HW152508   8.987   8.992  14.815
83578SOL    HW252509   8.924   8.865  14.868
83579SOL     OW52510  14.844   3.306   7.502
83579SOL    HW152511  14.755   3.321   7.470
83579SOL    HW252512  14.855   3.211   7.500
83580SOL     OW52513  12.180   0.986   7.014
83580SOL    HW152514  12.239   0.979   7.089
83580SOL    HW252515  12.092   0.976   7.051
83581SOL     OW52516   0.401   1.789   7.358
83581SOL    HW152517   0.319   1.740   7.358
83581SOL    HW252518   0.383   1.866   7.413
83582SOL     OW52519   2.914   6.241  11.597
83582SOL    HW152520   2.908   6.228  11.691
83582SOL    HW252521   2.986   6.303  11.585
83583SOL     OW52522  12.643  13.921   8.865
83583SOL    HW152523  12.730  13.942   8.899
83583SOL    HW252524  12.636  13.826   8.873
83584SOL     OW52525  11.042  11.179  14.695
83584SOL    HW152526  11.047  11.140  14.782
83584SOL    HW252527  10.949  11.176  14.672
83585SOL     OW52528   6.316   5.464  10.672
83585SOL    HW152529   6.403   5.487  10.641
83585SOL    HW252530   6.329   5.441  10.765
83586SOL     OW52531  10.067   6.084  12.075
83586SOL    HW152532  10.049   6.136  11.997
83586SOL    HW252533  10.012   6.006  12.066
83587SOL     OW52534   0.609   8.646   5.531
83587SOL    HW152535   0.570   8.723   5.489
83587SOL    HW252536   0.545   8.577   5.517
83588SOL     OW52537   7.607   3.533  13.974
83588SOL    HW152538   7.577   3.451  14.011
83588SOL    HW252539   7.576   3.531  13.883
83589SOL     OW52540   5.030  11.001   5.926
83589SOL    HW152541   5.047  11.052   6.005
83589SOL    HW252542   4.945  11.032   5.896
83590SOL     OW52543   2.854   7.330   6.373
83590SOL    HW152544   2.773   7.332   6.425
83590SOL    HW252545   2.867   7.237   6.354
83591SOL     OW52546   3.003   2.212   1.390
83591SOL    HW152547   2.961   2.209   1.304
83591SOL    HW252548   2.962   2.141   1.440
83592SOL     OW52549  10.749   9.127   5.060
83592SOL    HW152550  10.742   9.129   5.155
83592SOL    HW252551  10.709   9.043   5.035
83593SOL     OW52552  14.429   8.335   7.321
83593SOL    HW152553  14.517   8.368   7.339
83593SOL    HW252554  14.438   8.290   7.237
83594SOL     OW52555   0.082   4.526   1.387
83594SOL    HW152556   0.125   4.441   1.383
83594SOL    HW252557   0.091   4.554   1.478
83595SOL     OW52558  14.833  10.249   4.609
83595SOL    HW152559  14.830  10.336   4.569
83595SOL    HW252560  14.818  10.189   4.536
83596SOL     OW52561   2.073   7.427   8.458
83596SOL    HW152562   2.063   7.518   8.427
83596SOL    HW252563   2.121   7.384   8.387
83597SOL     OW52564  12.226   4.846   9.195
83597SOL    HW152565  12.223   4.942   9.191
83597SOL    HW252566  12.318   4.825   9.183
83598SOL     OW52567   3.146  10.847  12.598
83598SOL    HW152568   3.171  10.784  12.531
83598SOL    HW252569   3.224  10.857  12.653
83599SOL     OW52570  11.500   6.230   7.401
83599SOL    HW152571  11.406   6.220   7.386
83599SOL    HW252572  11.515   6.325   7.394
83600SOL     OW52573  13.653  11.578  10.936
83600SOL    HW152574  13.633  11.610  10.847
83600SOL    HW252575  13.733  11.625  10.960
83601SOL     OW52576   4.162   0.912  11.025
83601SOL    HW152577   4.221   0.966  11.078
83601SOL    HW252578   4.106   0.868  11.089
83602SOL     OW52579  13.807   8.086  11.479
83602SOL    HW152580  13.801   8.088  11.575
83602SOL    HW252581  13.890   8.043  11.461
83603SOL     OW52582  14.697   7.051   4.605
83603SOL    HW152583  14.716   7.088   4.691
83603SOL    HW252584  14.722   6.959   4.611
83604SOL     OW52585   4.612  14.511  13.970
83604SOL    HW152586   4.642  14.583  14.024
83604SOL    HW252587   4.518  14.504  13.989
83605SOL     OW52588  13.932   6.969   6.982
83605SOL    HW152589  13.950   7.047   7.034
83605SOL    HW252590  13.939   6.897   7.045
83606SOL     OW52591  11.175  12.590  14.466
83606SOL    HW152592  11.247  12.591  14.528
83606SOL    HW252593  11.118  12.519  14.496
83607SOL     OW52594   1.929   0.110   7.071
83607SOL    HW152595   1.886   0.118   6.986
83607SOL    HW252596   1.865   0.064   7.126
83608SOL     OW52597   5.496   7.021  13.375
83608SOL    HW152598   5.589   7.042  13.383
83608SOL    HW252599   5.492   6.952  13.309
83609SOL     OW52600   1.700   3.293   4.555
83609SOL    HW152601   1.794   3.300   4.536
83609SOL    HW252602   1.692   3.217   4.612
83610SOL     OW52603   0.693   9.143   0.666
83610SOL    HW152604   0.621   9.179   0.614
83610SOL    HW252605   0.769   9.147   0.608
83611SOL     OW52606   3.519   0.829  12.066
83611SOL    HW152607   3.460   0.858  11.997
83611SOL    HW252608   3.461   0.803  12.138
83612SOL     OW52609   0.213   2.066  13.190
83612SOL    HW152610   0.193   2.060  13.097
83612SOL    HW252611   0.180   1.984  13.228
83613SOL     OW52612  12.943  14.118   4.434
83613SOL    HW152613  13.014  14.127   4.497
83613SOL    HW252614  12.881  14.187   4.458
83614SOL     OW52615   2.191   9.856   1.022
83614SOL    HW152616   2.147   9.774   1.047
83614SOL    HW252617   2.158   9.875   0.935
83615SOL     OW52618   4.134   7.974   1.430
83615SOL    HW152619   4.094   8.061   1.422
83615SOL    HW252620   4.213   7.989   1.482
83616SOL     OW52621   9.278   7.159   8.206
83616SOL    HW152622   9.334   7.206   8.268
83616SOL    HW252623   9.340   7.112   8.150
83617SOL     OW52624   3.128   1.651  10.565
83617SOL    HW152625   3.034   1.662  10.576
83617SOL    HW252626   3.164   1.739  10.580
83618SOL     OW52627   1.733  12.685  13.648
83618SOL    HW152628   1.651  12.721  13.682
83618SOL    HW252629   1.784  12.763  13.623
83619SOL     OW52630  14.480   0.606  13.736
83619SOL    HW152631  14.432   0.524  13.722
83619SOL    HW252632  14.412   0.673  13.743
83620SOL     OW52633  12.321   2.516  11.487
83620SOL    HW152634  12.287   2.602  11.461
83620SOL    HW252635  12.301   2.459  11.414
83621SOL     OW52636  11.988   3.501  10.609
83621SOL    HW152637  11.896   3.526  10.599
83621SOL    HW252638  11.991   3.457  10.694
83622SOL     OW52639   5.750   6.330  14.288
83622SOL    HW152640   5.774   6.237  14.292
83622SOL    HW252641   5.832   6.377  14.302
83623SOL     OW52642   4.737   0.159  14.326
83623SOL    HW152643   4.711   0.202  14.407
83623SOL    HW252644   4.655   0.140  14.281
83624SOL     OW52645   9.079   7.587  14.779
83624SOL    HW152646   8.993   7.604  14.741
83624SOL    HW252647   9.134   7.563  14.704
83625SOL     OW52648  10.867  14.649  13.183
83625SOL    HW152649  10.936  14.713  13.167
83625SOL    HW252650  10.821  14.681  13.261
83626SOL     OW52651   0.430   5.936  11.872
83626SOL    HW152652   0.389   5.850  11.881
83626SOL    HW252653   0.501   5.923  11.810
83627SOL     OW52654   7.558  10.886  11.162
83627SOL    HW152655   7.628  10.859  11.103
83627SOL    HW252656   7.576  10.838  11.243
83628SOL     OW52657   4.252   6.826   3.486
83628SOL    HW152658   4.309   6.751   3.468
83628SOL    HW252659   4.280   6.857   3.572
83629SOL     OW52660  10.314   0.820   0.278
83629SOL    HW152661  10.303   0.915   0.287
83629SOL    HW252662  10.386   0.799   0.339
83630SOL     OW52663  12.200   1.109  11.327
83630SOL    HW152664  12.237   1.022  11.312
83630SOL    HW252665  12.267   1.155  11.379
83631SOL     OW52666   4.982  10.786   5.145
83631SOL    HW152667   5.025  10.798   5.230
83631SOL    HW252668   4.994  10.870   5.100
83632SOL     OW52669  14.641  14.515   4.200
83632SOL    HW152670  14.589  14.465   4.263
83632SOL    HW252671  14.652  14.601   4.241
83633SOL     OW52672   4.249   2.413  14.145
83633SOL    HW152673   4.237   2.333  14.094
83633SOL    HW252674   4.181   2.473  14.112
83634SOL     OW52675   5.500   3.659  14.125
83634SOL    HW152676   5.414   3.616  14.125
83634SOL    HW252677   5.488   3.736  14.068
83635SOL     OW52678   8.376   0.483   3.995
83635SOL    HW152679   8.346   0.396   3.970
83635SOL    HW252680   8.463   0.491   3.957
83636SOL     OW52681   9.485  10.601   3.364
83636SOL    HW152682   9.442  10.638   3.287
83636SOL    HW252683   9.413  10.569   3.418
83637SOL     OW52684   2.595   7.726   7.584
83637SOL    HW152685   2.660   7.659   7.564
83637SOL    HW252686   2.581   7.719   7.678
83638SOL     OW52687  12.951   2.440  10.971
83638SOL    HW152688  12.989   2.520  11.008
83638SOL    HW252689  12.858   2.460  10.962
83639SOL     OW52690   9.078  14.422   1.529
83639SOL    HW152691   9.067  14.485   1.600
83639SOL    HW252692   9.166  14.437   1.496
83640SOL     OW52693   7.012   1.027   2.809
83640SOL    HW152694   6.976   1.047   2.895
83640SOL    HW252695   6.955   0.958   2.774
83641SOL     OW52696   4.465   8.262   1.086
83641SOL    HW152697   4.483   8.336   1.145
83641SOL    HW252698   4.372   8.270   1.066
83642SOL     OW52699   8.249  13.919   7.957
83642SOL    HW152700   8.211  14.003   7.981
83642SOL    HW252701   8.289  13.887   8.038
83643SOL     OW52702  11.869   2.778  14.771
83643SOL    HW152703  11.816   2.710  14.729
83643SOL    HW252704  11.826   2.793  14.855
83644SOL     OW52705  11.966   2.016   6.569
83644SOL    HW152706  12.034   2.014   6.503
83644SOL    HW252707  11.919   2.098   6.553
83645SOL     OW52708   4.140  11.857   2.756
83645SOL    HW152709   4.191  11.777   2.738
83645SOL    HW252710   4.205  11.920   2.785
83646SOL     OW52711   8.149   2.841  14.828
83646SOL    HW152712   8.139   2.845  14.733
83646SOL    HW252713   8.097   2.915  14.861
83647SOL     OW52714  14.873   0.194   6.250
83647SOL    HW152715  14.794   0.163   6.294
83647SOL    HW252716   0.004   0.283   6.282
83648SOL     OW52717   6.206   9.983   7.070
83648SOL    HW152718   6.130  10.033   7.041
83648SOL    HW252719   6.239  10.032   7.146
83649SOL     OW52720   9.453  13.519   0.164
83649SOL    HW152721   9.440  13.505   0.258
83649SOL    HW252722   9.528  13.578   0.158
83650SOL     OW52723  13.210   8.856  10.802
83650SOL    HW152724  13.260   8.931  10.771
83650SOL    HW252725  13.276   8.787  10.815
83651SOL     OW52726   0.438   9.816   7.013
83651SOL    HW152727   0.352   9.855   7.000
83651SOL    HW252728   0.421   9.724   7.032
83652SOL     OW52729  11.374   8.360  12.641
83652SOL    HW152730  11.386   8.455  12.652
83652SOL    HW252731  11.407   8.323  12.723
83653SOL     OW52732   0.135   4.184   3.450
83653SOL    HW152733   0.225   4.205   3.424
83653SOL    HW252734   0.080   4.229   3.386
83654SOL     OW52735   0.145   5.401   8.753
83654SOL    HW152736   0.214   5.364   8.698
83654SOL    HW252737   0.092   5.453   8.693
83655SOL     OW52738   1.427   3.684   5.313
83655SOL    HW152739   1.345   3.697   5.361
83655SOL    HW252740   1.400   3.686   5.221
83656SOL     OW52741   5.408   3.842   5.649
83656SOL    HW152742   5.490   3.796   5.667
83656SOL    HW252743   5.341   3.773   5.650
83657SOL     OW52744   9.697  12.582   4.196
83657SOL    HW152745   9.758  12.606   4.266
83657SOL    HW252746   9.749  12.526   4.137
83658SOL     OW52747   2.575  10.338  10.966
83658SOL    HW152748   2.607  10.351  10.877
83658SOL    HW252749   2.533  10.252  10.964
83659SOL     OW52750  13.488  11.124   2.388
83659SOL    HW152751  13.488  11.028   2.379
83659SOL    HW252752  13.530  11.155   2.307
83660SOL     OW52753   8.857   3.515  11.028
83660SOL    HW152754   8.921   3.532  10.959
83660SOL    HW252755   8.784   3.473  10.984
83661SOL     OW52756   5.767  13.113   5.339
83661SOL    HW152757   5.752  13.049   5.270
83661SOL    HW252758   5.719  13.078   5.415
83662SOL     OW52759   4.151   1.477  14.708
83662SOL    HW152760   4.077   1.425  14.739
83662SOL    HW252761   4.114   1.533  14.639
83663SOL     OW52762   8.389   6.544   2.913
83663SOL    HW152763   8.440   6.500   2.845
83663SOL    HW252764   8.318   6.482   2.933
83664SOL     OW52765   8.985   1.307   7.644
83664SOL    HW152766   8.893   1.282   7.653
83664SOL    HW252767   8.984   1.388   7.593
83665SOL     OW52768  10.358   8.827   1.048
83665SOL    HW152769  10.271   8.866   1.060
83665SOL    HW252770  10.394   8.872   0.972
83666SOL     OW52771   1.035   0.327  13.881
83666SOL    HW152772   0.996   0.361  13.800
83666SOL    HW252773   1.129   0.327  13.864
83667SOL     OW52774   4.755   8.127   1.611
83667SOL    HW152775   4.760   8.057   1.546
83667SOL    HW252776   4.756   8.208   1.560
83668SOL     OW52777   0.536  11.803   3.610
83668SOL    HW152778   0.516  11.863   3.683
83668SOL    HW252779   0.614  11.840   3.569
83669SOL     OW52780  13.831  14.789  10.099
83669SOL    HW152781  13.848  14.712  10.153
83669SOL    HW252782  13.736  14.797  10.099
83670SOL     OW52783   3.152   7.577   5.134
83670SOL    HW152784   3.171   7.545   5.046
83670SOL    HW252785   3.193   7.513   5.192
83671SOL     OW52786  10.043   6.698   3.318
83671SOL    HW152787   9.957   6.663   3.295
83671SOL    HW252788  10.027   6.755   3.393
83672SOL     OW52789   8.967  13.085  12.027
83672SOL    HW152790   8.887  13.034  12.039
83672SOL    HW252791   9.038  13.024  12.048
83673SOL     OW52792   1.276  14.879   0.387
83673SOL    HW152793   1.192  14.877   0.342
83673SOL    HW252794   1.254  14.875   0.480
83674SOL     OW52795  14.349  14.219  12.787
83674SOL    HW152796  14.359  14.311  12.813
83674SOL    HW252797  14.396  14.170  12.854
83675SOL     OW52798  10.036   7.979   7.837
83675SOL    HW152799  10.057   7.887   7.852
83675SOL    HW252800   9.941   7.982   7.835
83676SOL     OW52801   8.014   0.968  12.524
83676SOL    HW152802   7.935   0.921  12.497
83676SOL    HW252803   8.046   1.009  12.443
83677SOL     OW52804  14.582   7.644   2.101
83677SOL    HW152805  14.575   7.561   2.053
83677SOL    HW252806  14.547   7.625   2.188
83678SOL     OW52807  14.587  12.286   9.500
83678SOL    HW152808  14.626  12.364   9.462
83678SOL    HW252809  14.645  12.263   9.573
83679SOL     OW52810  12.111   0.968   6.360
83679SOL    HW152811  12.132   0.874   6.362
83679SOL    HW252812  12.161   1.005   6.432
83680SOL     OW52813  12.459   0.624   4.648
83680SOL    HW152814  12.403   0.635   4.725
83680SOL    HW252815  12.398   0.603   4.576
83681SOL     OW52816   2.623   2.863   3.755
83681SOL    HW152817   2.614   2.795   3.687
83681SOL    HW252818   2.536   2.904   3.759
83682SOL     OW52819   7.134   3.132   6.526
83682SOL    HW152820   7.094   3.049   6.551
83682SOL    HW252821   7.204   3.146   6.589
83683SOL     OW52822  13.204  14.562  12.659
83683SOL    HW152823  13.131  14.514  12.620
83683SOL    HW252824  13.237  14.618  12.589
83684SOL     OW52825  12.167   0.116   3.743
83684SOL    HW152826  12.084   0.139   3.701
83684SOL    HW252827  12.183   0.025   3.717
83685SOL     OW52828  10.552   4.487   0.633
83685SOL    HW152829  10.600   4.413   0.595
83685SOL    HW252830  10.594   4.502   0.718
83686SOL     OW52831   9.342   8.564   0.537
83686SOL    HW152832   9.362   8.581   0.629
83686SOL    HW252833   9.274   8.496   0.539
83687SOL     OW52834  11.409  13.074  11.650
83687SOL    HW152835  11.331  13.053  11.702
83687SOL    HW252836  11.435  12.990  11.611
83688SOL     OW52837   3.112   8.172   3.637
83688SOL    HW152838   3.033   8.162   3.689
83688SOL    HW252839   3.092   8.127   3.555
83689SOL     OW52840   6.129  11.615   7.442
83689SOL    HW152841   6.053  11.601   7.385
83689SOL    HW252842   6.132  11.537   7.497
83690SOL     OW52843   0.983   1.145   6.125
83690SOL    HW152844   0.904   1.155   6.178
83690SOL    HW252845   1.026   1.068   6.160
83691SOL     OW52846   1.571   2.556   6.717
83691SOL    HW152847   1.561   2.566   6.622
83691SOL    HW252848   1.483   2.539   6.748
83692SOL     OW52849   4.191   7.629   9.616
83692SOL    HW152850   4.149   7.711   9.642
83692SOL    HW252851   4.175   7.570   9.690
83693SOL     OW52852   9.142  10.323  13.738
83693SOL    HW152853   9.229  10.292  13.763
83693SOL    HW252854   9.126  10.398  13.796
83694SOL     OW52855   7.075   4.298   2.240
83694SOL    HW152856   7.075   4.391   2.215
83694SOL    HW252857   6.983   4.278   2.258
83695SOL     OW52858   4.730  12.102  14.462
83695SOL    HW152859   4.737  12.188  14.503
83695SOL    HW252860   4.799  12.050  14.503
83696SOL     OW52861  11.707   7.607   9.949
83696SOL    HW152862  11.652   7.528   9.940
83696SOL    HW252863  11.782   7.590   9.892
83697SOL     OW52864   1.672   2.241  13.219
83697SOL    HW152865   1.759   2.276  13.202
83697SOL    HW252866   1.688   2.152  13.252
83698SOL     OW52867   7.258   1.534   8.874
83698SOL    HW152868   7.184   1.502   8.925
83698SOL    HW252869   7.277   1.463   8.812
83699SOL     OW52870   0.715   4.968   4.804
83699SOL    HW152871   0.690   4.892   4.752
83699SOL    HW252872   0.745   4.931   4.887
83700SOL     OW52873   8.992  13.325   2.222
83700SOL    HW152874   8.980  13.357   2.312
83700SOL    HW252875   9.086  13.335   2.206
83701SOL     OW52876  11.266   8.578  13.814
83701SOL    HW152877  11.185   8.542  13.778
83701SOL    HW252878  11.335   8.522  13.778
83702SOL     OW52879  14.382   4.900   7.830
83702SOL    HW152880  14.400   4.899   7.736
83702SOL    HW252881  14.319   4.971   7.842
83703SOL     OW52882  12.135   3.793  11.879
83703SOL    HW152883  12.078   3.745  11.819
83703SOL    HW252884  12.094   3.879  11.889
83704SOL     OW52885   1.047   7.604   5.454
83704SOL    HW152886   1.093   7.549   5.390
83704SOL    HW252887   0.969   7.554   5.478
83705SOL     OW52888  10.009   0.134   6.984
83705SOL    HW152889  10.104   0.135   6.976
83705SOL    HW252890   9.981   0.217   6.946
83706SOL     OW52891  13.615   2.413  12.087
83706SOL    HW152892  13.618   2.320  12.111
83706SOL    HW252893  13.541   2.449  12.135
83707SOL     OW52894  12.999   2.176  10.975
83707SOL    HW152895  12.995   2.271  10.983
83707SOL    HW252896  13.092   2.157  10.963
83708SOL     OW52897   9.444   3.199   5.402
83708SOL    HW152898   9.439   3.165   5.491
83708SOL    HW252899   9.504   3.273   5.407
83709SOL     OW52900   4.732   6.282   0.866
83709SOL    HW152901   4.644   6.256   0.894
83709SOL    HW252902   4.759   6.348   0.929
83710SOL     OW52903   2.872  10.178  14.516
83710SOL    HW152904   2.944  10.218  14.466
83710SOL    HW252905   2.844  10.245  14.577
83711SOL     OW52906   4.240  14.268  12.100
83711SOL    HW152907   4.273  14.188  12.060
83711SOL    HW252908   4.265  14.337  12.039
83712SOL     OW52909   6.990   2.111   1.594
83712SOL    HW152910   6.972   2.145   1.682
83712SOL    HW252911   6.941   2.169   1.536
83713SOL     OW52912   1.255  14.389   7.258
83713SOL    HW152913   1.239  14.351   7.172
83713SOL    HW252914   1.273  14.482   7.241
83714SOL     OW52915  14.299   5.619   3.007
83714SOL    HW152916  14.225   5.592   3.061
83714SOL    HW252917  14.279   5.587   2.919
83715SOL     OW52918   4.910  14.294   3.500
83715SOL    HW152919   4.952  14.380   3.493
83715SOL    HW252920   4.846  14.293   3.429
83716SOL     OW52921   6.031   7.126  13.518
83716SOL    HW152922   6.078   7.043  13.518
83716SOL    HW252923   6.018   7.146  13.611
83717SOL     OW52924   7.817   8.310   7.387
83717SOL    HW152925   7.835   8.220   7.415
83717SOL    HW252926   7.886   8.330   7.324
83718SOL     OW52927   6.046  14.837  13.818
83718SOL    HW152928   6.025  14.750  13.784
83718SOL    HW252929   6.141  14.839  13.824
83719SOL     OW52930   7.559   1.609  10.973
83719SOL    HW152931   7.570   1.544  10.904
83719SOL    HW252932   7.493   1.670  10.939
83720SOL     OW52933  11.737  11.562   9.042
83720SOL    HW152934  11.786  11.522   8.971
83720SOL    HW252935  11.802  11.578   9.110
83721SOL     OW52936   5.819  10.551   8.232
83721SOL    HW152937   5.793  10.609   8.304
83721SOL    HW252938   5.768  10.472   8.245
83722SOL     OW52939  13.185  12.171   4.790
83722SOL    HW152940  13.096  12.200   4.809
83722SOL    HW252941  13.187  12.080   4.820
83723SOL     OW52942  12.792   8.879   4.290
83723SOL    HW152943  12.803   8.948   4.224
83723SOL    HW252944  12.698   8.873   4.303
83724SOL     OW52945   3.696   0.554   9.861
83724SOL    HW152946   3.724   0.527   9.774
83724SOL    HW252947   3.660   0.642   9.848
83725SOL     OW52948   7.823   3.963   4.090
83725SOL    HW152949   7.876   3.979   4.168
83725SOL    HW252950   7.741   4.010   4.106
83726SOL     OW52951   6.429   0.205   3.221
83726SOL    HW152952   6.410   0.248   3.138
83726SOL    HW252953   6.481   0.129   3.198
83727SOL     OW52954  13.319   2.455   8.148
83727SOL    HW152955  13.309   2.522   8.080
83727SOL    HW252956  13.393   2.402   8.119
83728SOL     OW52957  14.615   9.382   7.641
83728SOL    HW152958  14.605   9.296   7.681
83728SOL    HW252959  14.683   9.370   7.574
83729SOL     OW52960   6.156   9.505  11.433
83729SOL    HW152961   6.063   9.485  11.416
83729SOL    HW252962   6.154   9.579  11.493
83730SOL     OW52963   3.756   2.224   6.199
83730SOL    HW152964   3.787   2.304   6.241
83730SOL    HW252965   3.832   2.166   6.199
83731SOL     OW52966  11.622   8.006  11.792
83731SOL    HW152967  11.551   7.965  11.742
83731SOL    HW252968  11.671   7.933  11.830
83732SOL     OW52969   3.269  11.992  13.993
83732SOL    HW152970   3.173  11.998  13.994
83732SOL    HW252971   3.299  12.083  13.994
83733SOL     OW52972  13.319   3.590  14.386
83733SOL    HW152973  13.413   3.576  14.400
83733SOL    HW252974  13.297   3.664  14.444
83734SOL     OW52975   0.097   4.092  13.590
83734SOL    HW152976   0.031   4.125  13.529
83734SOL    HW252977   0.078   3.998  13.595
83735SOL     OW52978   1.550   3.228  12.736
83735SOL    HW152979   1.636   3.216  12.695
83735SOL    HW252980   1.533   3.322  12.730
83736SOL     OW52981   7.555   5.699   7.194
83736SOL    HW152982   7.545   5.755   7.117
83736SOL    HW252983   7.563   5.611   7.158
83737SOL     OW52984   5.790  11.278   3.257
83737SOL    HW152985   5.717  11.295   3.316
83737SOL    HW252986   5.771  11.191   3.220
83738SOL     OW52987   2.558  14.793   0.999
83738SOL    HW152988   2.529  14.740   0.925
83738SOL    HW252989   2.600  14.731   1.058
83739SOL     OW52990   6.666  11.312   5.665
83739SOL    HW152991   6.642  11.232   5.711
83739SOL    HW252992   6.597  11.374   5.689
83740SOL     OW52993   0.274   1.907  10.345
83740SOL    HW152994   0.275   1.978  10.281
83740SOL    HW252995   0.307   1.946  10.426
83741SOL     OW52996   4.563  10.797   6.380
83741SOL    HW152997   4.638  10.838   6.423
83741SOL    HW252998   4.585  10.704   6.375
83742SOL     OW52999   4.011   8.859   1.706
83742SOL    HW153000   4.081   8.859   1.771
83742SOL    HW253001   4.055   8.882   1.624
83743SOL     OW53002   0.028  12.223   1.211
83743SOL    HW153003   0.045  12.159   1.142
83743SOL    HW253004   0.012  12.171   1.290
83744SOL     OW53005  11.088  13.990   3.859
83744SOL    HW153006  11.036  14.042   3.798
83744SOL    HW253007  11.171  14.036   3.865
83745SOL     OW53008  13.971  11.290   4.412
83745SOL    HW153009  14.060  11.294   4.446
83745SOL    HW253010  13.977  11.231   4.337
83746SOL     OW53011   8.558  11.900   4.812
83746SOL    HW153012   8.617  11.936   4.746
83746SOL    HW253013   8.483  11.867   4.763
83747SOL     OW53014   0.836   1.064   1.772
83747SOL    HW153015   0.849   0.977   1.734
83747SOL    HW253016   0.754   1.096   1.733
83748SOL     OW53017   9.410   2.503  13.479
83748SOL    HW153018   9.355   2.569  13.521
83748SOL    HW253019   9.407   2.428  13.539
83749SOL     OW53020  14.501  14.129   9.414
83749SOL    HW153021  14.427  14.161   9.362
83749SOL    HW253022  14.577  14.174   9.378
83750SOL     OW53023   3.886  10.318   4.356
83750SOL    HW153024   3.961  10.333   4.299
83750SOL    HW253025   3.846  10.237   4.324
83751SOL     OW53026   2.850   8.944   9.491
83751SOL    HW153027   2.877   8.911   9.576
83751SOL    HW253028   2.878   9.035   9.490
83752SOL     OW53029   4.991   8.536   3.365
83752SOL    HW153030   5.074   8.583   3.376
83752SOL    HW253031   4.932   8.601   3.329
83753SOL     OW53032   5.149   4.483  14.620
83753SOL    HW153033   5.172   4.406  14.568
83753SOL    HW253034   5.068   4.459  14.665
83754SOL     OW53035  14.266  11.630   8.781
83754SOL    HW153036  14.296  11.539   8.783
83754SOL    HW253037  14.316  11.673   8.851
83755SOL     OW53038   2.682   6.366   1.511
83755SOL    HW153039   2.635   6.409   1.583
83755SOL    HW253040   2.765   6.413   1.505
83756SOL     OW53041   2.346  12.228  11.281
83756SOL    HW153042   2.406  12.301  11.267
83756SOL    HW253043   2.339  12.220  11.376
83757SOL     OW53044  14.547  11.228   6.841
83757SOL    HW153045  14.463  11.201   6.877
83757SOL    HW253046  14.571  11.157   6.781
83758SOL     OW53047  10.263  12.735  13.335
83758SOL    HW153048  10.201  12.806  13.351
83758SOL    HW253049  10.234  12.695  13.253
83759SOL     OW53050   9.496   0.465   6.661
83759SOL    HW153051   9.583   0.497   6.637
83759SOL    HW253052   9.488   0.381   6.616
83760SOL     OW53053   3.327   2.372   3.627
83760SOL    HW153054   3.401   2.392   3.570
83760SOL    HW253055   3.311   2.279   3.613
83761SOL     OW53056   3.748   5.674   3.946
83761SOL    HW153057   3.715   5.658   4.034
83761SOL    HW253058   3.838   5.704   3.960
83762SOL     OW53059   6.270  13.129   1.142
83762SOL    HW153060   6.210  13.189   1.186
83762SOL    HW253061   6.327  13.097   1.212
83763SOL     OW53062   9.266  14.044   6.755
83763SOL    HW153063   9.356  14.076   6.746
83763SOL    HW253064   9.250  14.045   6.850
83764SOL     OW53065   8.217   8.068   7.777
83764SOL    HW153066   8.263   7.986   7.791
83764SOL    HW253067   8.268   8.134   7.824
83765SOL     OW53068   5.138  14.552   2.971
83765SOL    HW153069   5.193  14.617   3.014
83765SOL    HW253070   5.165  14.469   3.010
83766SOL     OW53071   2.669   8.820   6.332
83766SOL    HW153072   2.627   8.835   6.247
83766SOL    HW253073   2.695   8.906   6.362
83767SOL     OW53074   4.856   1.361   1.052
83767SOL    HW153075   4.815   1.402   1.128
83767SOL    HW253076   4.896   1.433   1.004
83768SOL     OW53077   6.613  11.335  13.157
83768SOL    HW153078   6.585  11.264  13.215
83768SOL    HW253079   6.706  11.347  13.175
83769SOL     OW53080  14.172   5.045  11.868
83769SOL    HW153081  14.227   5.105  11.817
83769SOL    HW253082  14.197   4.958  11.838
83770SOL     OW53083   7.571  10.950   9.601
83770SOL    HW153084   7.638  10.981   9.540
83770SOL    HW253085   7.620  10.903   9.668
83771SOL     OW53086  12.994   4.824  13.887
83771SOL    HW153087  12.989   4.915  13.860
83771SOL    HW253088  12.904   4.792  13.883
83772SOL     OW53089  13.730   4.092  13.354
83772SOL    HW153090  13.729   4.138  13.270
83772SOL    HW253091  13.710   4.159  13.419
83773SOL     OW53092   3.434   1.292  10.230
83773SOL    HW153093   3.446   1.277  10.323
83773SOL    HW253094   3.342   1.319  10.222
83774SOL     OW53095   1.433  13.871   4.449
83774SOL    HW153096   1.402  13.926   4.377
83774SOL    HW253097   1.487  13.804   4.406
83775SOL     OW53098   8.246   6.908   9.125
83775SOL    HW153099   8.172   6.967   9.141
83775SOL    HW253100   8.284   6.892   9.211
83776SOL     OW53101  13.248   6.793   8.900
83776SOL    HW153102  13.214   6.707   8.876
83776SOL    HW253103  13.189   6.823   8.969
83777SOL     OW53104  14.332  10.209  11.864
83777SOL    HW153105  14.340  10.118  11.837
83777SOL    HW253106  14.422  10.237  11.882
83778SOL     OW53107  13.693  11.516   9.052
83778SOL    HW153108  13.696  11.558   8.966
83778SOL    HW253109  13.727  11.582   9.112
83779SOL     OW53110   1.429  10.507   1.007
83779SOL    HW153111   1.385  10.558   0.940
83779SOL    HW253112   1.437  10.566   1.082
83780SOL     OW53113   8.782   0.492   8.050
83780SOL    HW153114   8.828   0.575   8.033
83780SOL    HW253115   8.691   0.518   8.065
83781SOL     OW53116   9.632   9.722   1.876
83781SOL    HW153117   9.601   9.812   1.886
83781SOL    HW253118   9.727   9.729   1.879
83782SOL     OW53119  10.306   2.859  10.212
83782SOL    HW153120  10.383   2.915  10.225
83782SOL    HW253121  10.284   2.869  10.119
83783SOL     OW53122  10.373  12.260  12.812
83783SOL    HW153123  10.411  12.305  12.887
83783SOL    HW253124  10.376  12.325  12.741
83784SOL     OW53125  13.687   2.706   8.668
83784SOL    HW153126  13.777   2.726   8.693
83784SOL    HW253127  13.654   2.786   8.627
83785SOL     OW53128   3.894   5.784  13.058
83785SOL    HW153129   3.948   5.828  12.992
83785SOL    HW253130   3.899   5.691  13.036
83786SOL     OW53131   4.014  13.406  13.277
83786SOL    HW153132   3.920  13.399  13.293
83786SOL    HW253133   4.033  13.500  13.284
83787SOL     OW53134   3.332   0.579  14.026
83787SOL    HW153135   3.284   0.610  13.949
83787SOL    HW253136   3.296   0.492  14.043
83788SOL     OW53137   1.654  14.739  13.580
83788SOL    HW153138   1.582  14.715  13.521
83788SOL    HW253139   1.691  14.818  13.541
83789SOL     OW53140   0.372  14.112   6.026
83789SOL    HW153141   0.379  14.207   6.020
83789SOL    HW253142   0.442  14.086   6.086
83790SOL     OW53143  10.217   2.263   1.544
83790SOL    HW153144  10.261   2.179   1.532
83790SOL    HW253145  10.264   2.305   1.616
83791SOL     OW53146   5.413  14.719  13.599
83791SOL    HW153147   5.445  14.733  13.510
83791SOL    HW253148   5.349  14.790  13.613
83792SOL     OW53149   3.721   6.198   6.282
83792SOL    HW153150   3.795   6.239   6.326
83792SOL    HW253151   3.732   6.104   6.299
83793SOL     OW53152   7.719   4.490   3.233
83793SOL    HW153153   7.669   4.472   3.154
83793SOL    HW253154   7.652   4.505   3.300
83794SOL     OW53155  11.384   7.854   7.307
83794SOL    HW153156  11.370   7.828   7.216
83794SOL    HW253157  11.456   7.917   7.303
83795SOL     OW53158   9.500  14.130   2.918
83795SOL    HW153159   9.419  14.152   2.872
83795SOL    HW253160   9.539  14.214   2.939
83796SOL     OW53161   6.967   5.360  10.459
83796SOL    HW153162   6.984   5.271  10.490
83796SOL    HW253163   6.940   5.349  10.367
83797SOL     OW53164   5.107   2.202   7.424
83797SOL    HW153165   5.117   2.145   7.347
83797SOL    HW253166   5.061   2.279   7.391
83798SOL     OW53167  14.519  10.108  13.018
83798SOL    HW153168  14.527  10.059  13.099
83798SOL    HW253169  14.521  10.042  12.949
83799SOL     OW53170   3.360  14.813   1.943
83799SOL    HW153171   3.305  14.807   1.865
83799SOL    HW253172   3.329  14.743   2.000
83800SOL     OW53173   2.113   5.643   4.133
83800SOL    HW153174   2.193   5.597   4.159
83800SOL    HW253175   2.063   5.650   4.214
83801SOL     OW53176  13.643  12.179   8.445
83801SOL    HW153177  13.598  12.159   8.363
83801SOL    HW253178  13.623  12.271   8.461
83802SOL     OW53179   1.901   3.689   1.411
83802SOL    HW153180   1.942   3.712   1.328
83802SOL    HW253181   1.953   3.734   1.477
83803SOL     OW53182  14.182  11.575  14.309
83803SOL    HW153183  14.095  11.572  14.270
83803SOL    HW253184  14.224  11.652  14.269
83804SOL     OW53185   6.763  13.742  11.009
83804SOL    HW153186   6.818  13.760  11.085
83804SOL    HW253187   6.820  13.755  10.933
83805SOL     OW53188   5.024   3.060  11.281
83805SOL    HW153189   5.116   3.078  11.262
83805SOL    HW253190   4.982   3.058  11.195
83806SOL     OW53191   2.333   5.830   1.199
83806SOL    HW153192   2.336   5.884   1.278
83806SOL    HW253193   2.397   5.760   1.215
83807SOL     OW53194   2.546   9.684   8.508
83807SOL    HW153195   2.522   9.730   8.589
83807SOL    HW253196   2.486   9.609   8.504
83808SOL     OW53197  11.425  11.862   7.406
83808SOL    HW153198  11.432  11.953   7.433
83808SOL    HW253199  11.332  11.841   7.416
83809SOL     OW53200   9.549   3.937   3.961
83809SOL    HW153201   9.514   3.849   3.976
83809SOL    HW253202   9.640   3.931   3.989
83810SOL     OW53203  10.620  10.196  11.459
83810SOL    HW153204  10.666  10.280  11.459
83810SOL    HW253205  10.689  10.130  11.466
83811SOL     OW53206  11.652  13.557   5.479
83811SOL    HW153207  11.571  13.554   5.530
83811SOL    HW253208  11.674  13.465   5.464
83812SOL     OW53209   3.714   6.327   8.002
83812SOL    HW153210   3.712   6.296   7.911
83812SOL    HW253211   3.634   6.380   8.010
83813SOL     OW53212  14.301   5.125   9.972
83813SOL    HW153213  14.363   5.069   9.927
83813SOL    HW253214  14.216   5.104   9.933
83814SOL     OW53215  12.746  13.469   7.923
83814SOL    HW153216  12.816  13.410   7.952
83814SOL    HW253217  12.788  13.555   7.918
83815SOL     OW53218   2.153   2.989   5.030
83815SOL    HW153219   2.104   2.907   5.045
83815SOL    HW253220   2.242   2.960   5.009
83816SOL     OW53221  11.702   5.485   0.266
83816SOL    HW153222  11.749   5.403   0.279
83816SOL    HW253223  11.612   5.459   0.248
83817SOL     OW53224   2.730   3.465  11.544
83817SOL    HW153225   2.750   3.415  11.623
83817SOL    HW253226   2.687   3.403  11.486
83818SOL     OW53227   2.461   3.206   3.480
83818SOL    HW153228   2.403   3.140   3.517
83818SOL    HW253229   2.402   3.270   3.440
83819SOL     OW53230   7.708  10.764   0.278
83819SOL    HW153231   7.750  10.728   0.356
83819SOL    HW253232   7.660  10.840   0.310
83820SOL     OW53233   7.035   9.819   8.187
83820SOL    HW153234   7.111   9.796   8.133
83820SOL    HW253235   6.965   9.836   8.124
83821SOL     OW53236  12.868   1.793   8.443
83821SOL    HW153237  12.896   1.788   8.534
83821SOL    HW253238  12.937   1.748   8.394
83822SOL     OW53239  13.650   0.718   1.525
83822SOL    HW153240  13.587   0.679   1.464
83822SOL    HW253241  13.624   0.810   1.531
83823SOL     OW53242   8.263  10.384   9.223
83823SOL    HW153243   8.265  10.328   9.300
83823SOL    HW253244   8.291  10.470   9.254
83824SOL     OW53245  12.038  10.092   9.986
83824SOL    HW153246  12.017  10.111   9.895
83824SOL    HW253247  12.045  10.178  10.028
83825SOL     OW53248  11.310   0.719   0.506
83825SOL    HW153249  11.287   0.629   0.531
83825SOL    HW253250  11.227   0.766   0.503
83826SOL     OW53251   7.590   4.504  13.426
83826SOL    HW153252   7.684   4.487  13.418
83826SOL    HW253253   7.584   4.593  13.461
83827SOL     OW53254  11.127  11.408   5.287
83827SOL    HW153255  11.048  11.445   5.327
83827SOL    HW253256  11.105  11.398   5.195
83828SOL     OW53257   4.044   2.135  13.360
83828SOL    HW153258   4.119   2.141  13.302
83828SOL    HW253259   4.060   2.201  13.428
83829SOL     OW53260   2.612   1.842   9.252
83829SOL    HW153261   2.542   1.840   9.186
83829SOL    HW253262   2.598   1.763   9.304
83830SOL     OW53263   4.549   7.641  12.446
83830SOL    HW153264   4.565   7.734  12.431
83830SOL    HW253265   4.457   7.629  12.425
83831SOL     OW53266   3.325   3.783  13.198
83831SOL    HW153267   3.241   3.749  13.166
83831SOL    HW253268   3.383   3.777  13.123
83832SOL     OW53269  12.970  11.018   8.846
83832SOL    HW153270  13.061  11.047   8.837
83832SOL    HW253271  12.945  10.989   8.759
83833SOL     OW53272   3.809   3.556   9.658
83833SOL    HW153273   3.886   3.561   9.715
83833SOL    HW253274   3.823   3.623   9.592
83834SOL     OW53275   5.995   5.713  10.683
83834SOL    HW153276   6.074   5.698  10.735
83834SOL    HW253277   6.027   5.747  10.600
83835SOL     OW53278  10.732   1.429  10.710
83835SOL    HW153279  10.767   1.360  10.653
83835SOL    HW253280  10.773   1.413  10.795
83836SOL     OW53281  12.458   9.401  11.499
83836SOL    HW153282  12.478   9.307  11.497
83836SOL    HW253283  12.503   9.437  11.422
83837SOL     OW53284   3.871   4.990   1.391
83837SOL    HW153285   3.820   5.064   1.423
83837SOL    HW253286   3.962   5.014   1.408
83838SOL     OW53287   7.514  11.912  10.719
83838SOL    HW153288   7.475  11.873  10.640
83838SOL    HW253289   7.592  11.859  10.735
83839SOL     OW53290   1.321  10.666   4.323
83839SOL    HW153291   1.354  10.665   4.234
83839SOL    HW253292   1.246  10.606   4.321
83840SOL     OW53293   3.744   1.729   1.940
83840SOL    HW153294   3.781   1.670   1.875
83840SOL    HW253295   3.762   1.687   2.024
83841SOL     OW53296   3.365   7.122  14.387
83841SOL    HW153297   3.435   7.059  14.403
83841SOL    HW253298   3.337   7.106  14.297
83842SOL     OW53299  10.974   5.204  13.802
83842SOL    HW153300  10.895   5.243  13.840
83842SOL    HW253301  10.971   5.228  13.710
83843SOL     OW53302   4.548  14.000   8.960
83843SOL    HW153303   4.572  13.908   8.966
83843SOL    HW253304   4.632  14.047   8.964
83844SOL     OW53305   1.851   5.763  10.160
83844SOL    HW153306   1.765   5.802  10.177
83844SOL    HW253307   1.869   5.785  10.069
83845SOL     OW53308  12.769   4.288   7.109
83845SOL    HW153309  12.722   4.240   7.178
83845SOL    HW253310  12.706   4.351   7.076
83846SOL     OW53311   1.342   3.664  12.509
83846SOL    HW153312   1.338   3.582  12.459
83846SOL    HW253313   1.415   3.653  12.569
83847SOL     OW53314  13.009   9.270   0.850
83847SOL    HW153315  12.937   9.279   0.788
83847SOL    HW253316  12.980   9.320   0.927
83848SOL     OW53317   1.792   7.847   0.685
83848SOL    HW153318   1.733   7.905   0.732
83848SOL    HW253319   1.736   7.776   0.653
83849SOL     OW53320  11.201   5.544   3.009
83849SOL    HW153321  11.241   5.537   3.095
83849SOL    HW253322  11.119   5.494   3.016
83850SOL     OW53323   5.311   1.981   1.468
83850SOL    HW153324   5.280   1.902   1.424
83850SOL    HW253325   5.232   2.035   1.480
83851SOL     OW53326   8.660  12.164  14.824
83851SOL    HW153327   8.683  12.216   0.019
83851SOL    HW253328   8.597  12.218  14.776
83852SOL     OW53329   2.251   1.788   9.340
83852SOL    HW153330   2.327   1.780   9.282
83852SOL    HW253331   2.187   1.836   9.288
83853SOL     OW53332   9.267   1.370   4.612
83853SOL    HW153333   9.269   1.453   4.564
83853SOL    HW253334   9.226   1.309   4.550
83854SOL     OW53335  11.477   1.735   8.126
83854SOL    HW153336  11.413   1.717   8.057
83854SOL    HW253337  11.436   1.803   8.180
83855SOL     OW53338   3.144  13.319   4.319
83855SOL    HW153339   3.231  13.355   4.304
83855SOL    HW253340   3.114  13.292   4.232
83856SOL     OW53341  10.099   6.060  13.185
83856SOL    HW153342  10.130   5.987  13.239
83856SOL    HW253343  10.177   6.110  13.164
83857SOL     OW53344  12.094   7.664  14.038
83857SOL    HW153345  12.044   7.675  13.958
83857SOL    HW253346  12.167   7.606  14.014
83858SOL     OW53347   6.153   7.763  11.319
83858SOL    HW153348   6.161   7.845  11.271
83858SOL    HW253349   6.077   7.776  11.376
83859SOL     OW53350   0.961   0.842   2.337
83859SOL    HW153351   1.021   0.915   2.356
83859SOL    HW253352   0.909   0.873   2.263
83860SOL     OW53353  11.325   3.242   5.738
83860SOL    HW153354  11.404   3.281   5.701
83860SOL    HW253355  11.276   3.316   5.773
83861SOL     OW53356   4.152   3.995   5.737
83861SOL    HW153357   4.192   4.063   5.790
83861SOL    HW253358   4.096   4.043   5.675
83862SOL     OW53359  11.253   0.052  13.231
83862SOL    HW153360  11.337   0.025  13.269
83862SOL    HW253361  11.263   0.147  13.218
83863SOL     OW53362   1.562  10.179   7.313
83863SOL    HW153363   1.514  10.125   7.250
83863SOL    HW253364   1.494  10.212   7.373
83864SOL     OW53365  14.213   5.830  10.347
83864SOL    HW153366  14.212   5.907  10.290
83864SOL    HW253367  14.135   5.781  10.322
83865SOL     OW53368   2.320  14.303   7.091
83865SOL    HW153369   2.307  14.246   7.015
83865SOL    HW253370   2.341  14.388   7.053
83866SOL     OW53371   5.635   7.796  11.174
83866SOL    HW153372   5.626   7.795  11.270
83866SOL    HW253373   5.546   7.812  11.143
83867SOL     OW53374   0.617   1.185   4.360
83867SOL    HW153375   0.541   1.129   4.371
83867SOL    HW253376   0.670   1.171   4.438
83868SOL     OW53377  13.408   0.861   8.309
83868SOL    HW153378  13.343   0.800   8.273
83868SOL    HW253379  13.452   0.898   8.232
83869SOL     OW53380   3.099  11.783   4.446
83869SOL    HW153381   3.151  11.814   4.372
83869SOL    HW253382   3.057  11.862   4.480
83870SOL     OW53383   2.253  12.892   6.861
83870SOL    HW153384   2.177  12.841   6.889
83870SOL    HW253385   2.220  12.948   6.791
83871SOL     OW53386   8.011   8.952   3.509
83871SOL    HW153387   8.021   9.043   3.536
83871SOL    HW253388   7.917   8.940   3.496
83872SOL     OW53389  13.879   6.781   0.433
83872SOL    HW153390  13.968   6.802   0.460
83872SOL    HW253391  13.865   6.691   0.464
83873SOL     OW53392  12.368   1.011   6.811
83873SOL    HW153393  12.372   1.106   6.800
83873SOL    HW253394  12.306   0.997   6.882
83874SOL     OW53395   0.227  14.779   2.318
83874SOL    HW153396   0.162  14.724   2.363
83874SOL    HW253397   0.177  14.851   2.282
83875SOL     OW53398   5.316   2.900  11.230
83875SOL    HW153399   5.293   2.946  11.310
83875SOL    HW253400   5.371   2.963  11.182
83876SOL     OW53401   0.124   7.702   4.997
83876SOL    HW153402   0.215   7.683   5.021
83876SOL    HW253403   0.086   7.616   4.978
83877SOL     OW53404   4.976  10.173   4.669
83877SOL    HW153405   5.016  10.137   4.590
83877SOL    HW253406   4.951  10.262   4.645
83878SOL     OW53407   2.226  11.852   0.551
83878SOL    HW153408   2.139  11.891   0.539
83878SOL    HW253409   2.251  11.878   0.640
83879SOL     OW53410  14.250  12.267  10.161
83879SOL    HW153411  14.244  12.332  10.092
83879SOL    HW253412  14.210  12.188  10.124
83880SOL     OW53413   2.922   2.309  13.161
83880SOL    HW153414   2.924   2.379  13.096
83880SOL    HW253415   2.830   2.285  13.167
83881SOL     OW53416   5.798  13.611   9.160
83881SOL    HW153417   5.801  13.529   9.209
83881SOL    HW253418   5.731  13.663   9.204
83882SOL     OW53419   5.982  10.658   3.415
83882SOL    HW153420   6.068  10.698   3.416
83882SOL    HW253421   5.989  10.586   3.352
83883SOL     OW53422   0.859   1.485   9.761
83883SOL    HW153423   0.862   1.396   9.728
83883SOL    HW253424   0.792   1.483   9.830
83884SOL     OW53425  11.443   2.967   3.577
83884SOL    HW153426  11.422   3.013   3.496
83884SOL    HW253427  11.359   2.935   3.609
83885SOL     OW53428  13.778   2.439   6.553
83885SOL    HW153429  13.775   2.378   6.627
83885SOL    HW253430  13.691   2.479   6.551
83886SOL     OW53431  14.291   6.299   3.394
83886SOL    HW153432  14.316   6.284   3.303
83886SOL    HW253433  14.202   6.263   3.400
83887SOL     OW53434   2.432   7.599   5.568
83887SOL    HW153435   2.361   7.645   5.522
83887SOL    HW253436   2.505   7.601   5.507
83888SOL     OW53437   0.336  14.281   6.383
83888SOL    HW153438   0.418  14.264   6.429
83888SOL    HW253439   0.276  14.214   6.415
83889SOL     OW53440   6.291  13.617   5.062
83889SOL    HW153441   6.301  13.595   5.154
83889SOL    HW253442   6.363  13.677   5.043
83890SOL     OW53443   5.996   4.588   0.572
83890SOL    HW153444   6.067   4.527   0.590
83890SOL    HW253445   5.940   4.584   0.649
83891SOL     OW53446  11.705   4.836   1.926
83891SOL    HW153447  11.748   4.853   2.009
83891SOL    HW253448  11.762   4.773   1.881
83892SOL     OW53449   8.316  13.214  12.175
83892SOL    HW153450   8.408  13.226  12.153
83892SOL    HW253451   8.316  13.161  12.254
83893SOL     OW53452  11.409   2.886  13.974
83893SOL    HW153453  11.467   2.856  13.904
83893SOL    HW253454  11.321   2.879  13.938
83894SOL     OW53455   7.922  13.781   1.881
83894SOL    HW153456   7.836  13.823   1.878
83894SOL    HW253457   7.972  13.826   1.812
83895SOL     OW53458   7.851  12.237   6.414
83895SOL    HW153459   7.916  12.181   6.456
83895SOL    HW253460   7.858  12.321   6.460
83896SOL     OW53461   2.583   0.639  14.063
83896SOL    HW153462   2.667   0.622  14.018
83896SOL    HW253463   2.594   0.602  14.150
83897SOL     OW53464   9.825   5.206  13.857
83897SOL    HW153465   9.748   5.160  13.890
83897SOL    HW253466   9.803   5.228  13.767
83898SOL     OW53467   2.406   7.064  10.334
83898SOL    HW153468   2.330   7.090  10.386
83898SOL    HW253469   2.448   7.147  10.309
83899SOL     OW53470   0.183   2.542   8.812
83899SOL    HW153471   0.111   2.562   8.872
83899SOL    HW253472   0.168   2.600   8.737
83900SOL     OW53473   3.984   2.427   0.446
83900SOL    HW153474   4.046   2.500   0.453
83900SOL    HW253475   4.038   2.350   0.432
83901SOL     OW53476   5.605  10.649   0.703
83901SOL    HW153477   5.576  10.603   0.624
83901SOL    HW253478   5.541  10.719   0.715
83902SOL     OW53479   4.117   5.496   1.699
83902SOL    HW153480   4.024   5.475   1.708
83902SOL    HW253481   4.132   5.565   1.764
83903SOL     OW53482   8.493   3.393   0.685
83903SOL    HW153483   8.478   3.395   0.780
83903SOL    HW253484   8.430   3.329   0.653
83904SOL     OW53485   8.739   1.171   3.890
83904SOL    HW153486   8.734   1.163   3.985
83904SOL    HW253487   8.649   1.155   3.860
83905SOL     OW53488   1.632   9.940   6.176
83905SOL    HW153489   1.580   9.919   6.099
83905SOL    HW253490   1.700   9.873   6.178
83906SOL     OW53491  12.512  11.217   3.471
83906SOL    HW153492  12.491  11.171   3.552
83906SOL    HW253493  12.427  11.243   3.435
83907SOL     OW53494  14.627  13.548  12.170
83907SOL    HW153495  14.578  13.487  12.115
83907SOL    HW253496  14.680  13.492  12.226
83908SOL     OW53497  11.538  13.520   1.687
83908SOL    HW153498  11.607  13.583   1.665
83908SOL    HW253499  11.465  13.544   1.631
83909SOL     OW53500   0.102  11.850   7.418
83909SOL    HW153501   0.181  11.804   7.446
83909SOL    HW253502   0.075  11.806   7.338
83910SOL     OW53503  11.131  10.225  14.747
83910SOL    HW153504  11.161  10.316  14.743
83910SOL    HW253505  11.039  10.231  14.773
83911SOL     OW53506   7.706   4.881   9.869
83911SOL    HW153507   7.624   4.850   9.832
83911SOL    HW253508   7.771   4.818   9.839
83912SOL     OW53509   6.342  12.174  10.732
83912SOL    HW153510   6.333  12.269  10.740
83912SOL    HW253511   6.421  12.152  10.780
83913SOL     OW53512   2.038  11.186  10.291
83913SOL    HW153513   2.030  11.100  10.333
83913SOL    HW253514   1.957  11.196  10.243
83914SOL     OW53515  12.698   7.513   4.068
83914SOL    HW153516  12.742   7.598   4.073
83914SOL    HW253517  12.655   7.513   3.983
83915SOL     OW53518   1.208  14.476   2.930
83915SOL    HW153519   1.239  14.388   2.954
83915SOL    HW253520   1.195  14.472   2.835
83916SOL     OW53521   7.719   9.640   7.721
83916SOL    HW153522   7.713   9.613   7.629
83916SOL    HW253523   7.716   9.557   7.770
83917SOL     OW53524   2.111   7.206  12.084
83917SOL    HW153525   2.081   7.291  12.116
83917SOL    HW253526   2.142   7.224  11.995
83918SOL     OW53527  11.222   4.270  11.645
83918SOL    HW153528  11.240   4.231  11.559
83918SOL    HW253529  11.307   4.274  11.688
83919SOL     OW53530  14.594   7.754   0.029
83919SOL    HW153531  14.502   7.736   0.012
83919SOL    HW253532  14.641   7.680  14.871
83920SOL     OW53533   8.604  10.667   7.725
83920SOL    HW153534   8.658  10.665   7.645
83920SOL    HW253535   8.515  10.684   7.693
83921SOL     OW53536   8.058  13.673   0.113
83921SOL    HW153537   8.092  13.761   0.098
83921SOL    HW253538   8.008  13.680   0.195
83922SOL     OW53539   4.127   5.234  11.959
83922SOL    HW153540   4.171   5.317  11.942
83922SOL    HW253541   4.045   5.260  12.002
83923SOL     OW53542   5.065   4.050   4.686
83923SOL    HW153543   5.052   3.956   4.701
83923SOL    HW253544   5.159   4.064   4.698
83924SOL     OW53545   1.539   0.214   3.920
83924SOL    HW153546   1.592   0.138   3.894
83924SOL    HW253547   1.523   0.261   3.838
83925SOL     OW53548  14.761  12.344  12.925
83925SOL    HW153549  14.813  12.290  12.866
83925SOL    HW253550  14.673  12.344  12.886
83926SOL     OW53551   6.449   5.732   4.034
83926SOL    HW153552   6.446   5.821   4.070
83926SOL    HW253553   6.384   5.683   4.085
83927SOL     OW53554   1.701   4.985  13.462
83927SOL    HW153555   1.656   4.955  13.383
83927SOL    HW253556   1.791   4.956  13.451
83928SOL     OW53557  10.026   0.217   4.720
83928SOL    HW153558  10.109   0.174   4.741
83928SOL    HW253559  10.048   0.278   4.649
83929SOL     OW53560  10.576   6.046   2.765
83929SOL    HW153561  10.506   6.100   2.729
83929SOL    HW253562  10.625   6.015   2.688
83930SOL     OW53563  12.956  14.390   7.771
83930SOL    HW153564  13.048  14.371   7.756
83930SOL    HW253565  12.910  14.333   7.709
83931SOL     OW53566   8.083   2.334   9.966
83931SOL    HW153567   8.174   2.305   9.971
83931SOL    HW253568   8.088   2.429   9.959
83932SOL     OW53569   5.739  12.369  12.970
83932SOL    HW153570   5.755  12.311  13.044
83932SOL    HW253571   5.734  12.310  12.894
83933SOL     OW53572   7.104  11.195   3.834
83933SOL    HW153573   7.075  11.275   3.789
83933SOL    HW253574   7.047  11.126   3.800
83934SOL     OW53575  14.202   0.958   4.140
83934SOL    HW153576  14.292   0.926   4.148
83934SOL    HW253577  14.181   0.993   4.226
83935SOL     OW53578   0.772   6.915  14.678
83935SOL    HW153579   0.716   6.984  14.711
83935SOL    HW253580   0.841   6.906  14.744
83936SOL     OW53581   6.976   3.604  12.130
83936SOL    HW153582   7.050   3.559  12.172
83936SOL    HW253583   7.012   3.639  12.048
83937SOL     OW53584   9.430  10.527   0.572
83937SOL    HW153585   9.515  10.485   0.564
83937SOL    HW253586   9.446  10.604   0.627
83938SOL     OW53587  10.550   5.061   3.638
83938SOL    HW153588  10.508   4.990   3.591
83938SOL    HW253589  10.643   5.041   3.633
83939SOL     OW53590   5.074   1.777  14.598
83939SOL    HW153591   5.091   1.729  14.517
83939SOL    HW253592   4.989   1.745  14.627
83940SOL     OW53593   4.177   3.877  10.711
83940SOL    HW153594   4.131   3.961  10.709
83940SOL    HW253595   4.108   3.812  10.719
83941SOL     OW53596   2.790   6.565   7.629
83941SOL    HW153597   2.732   6.543   7.556
83941SOL    HW253598   2.878   6.561   7.593
83942SOL     OW53599  14.188   4.419  13.760
83942SOL    HW153600  14.160   4.329  13.772
83942SOL    HW253601  14.281   4.419  13.785
83943SOL     OW53602   4.417   2.183   2.030
83943SOL    HW153603   4.369   2.225   1.959
83943SOL    HW253604   4.507   2.175   1.997
83944SOL     OW53605  13.315   5.629   1.155
83944SOL    HW153606  13.281   5.547   1.118
83944SOL    HW253607  13.244   5.661   1.210
83945SOL     OW53608   6.184   4.129   5.572
83945SOL    HW153609   6.151   4.204   5.621
83945SOL    HW253610   6.144   4.053   5.614
83946SOL     OW53611   3.688   4.064   5.853
83946SOL    HW153612   3.649   4.148   5.828
83946SOL    HW253613   3.613   4.013   5.885
83947SOL     OW53614   4.012  10.846   0.264
83947SOL    HW153615   3.987  10.820   0.352
83947SOL    HW253616   4.001  10.941   0.263
83948SOL     OW53617   3.576  13.952   8.618
83948SOL    HW153618   3.586  14.023   8.681
83948SOL    HW253619   3.636  13.884   8.648
83949SOL     OW53620   3.936  11.183   4.773
83949SOL    HW153621   3.997  11.176   4.846
83949SOL    HW253622   3.893  11.097   4.769
83950SOL     OW53623   5.711  10.219   0.730
83950SOL    HW153624   5.689  10.193   0.641
83950SOL    HW253625   5.743  10.140   0.772
83951SOL     OW53626   7.923   0.544   1.170
83951SOL    HW153627   7.957   0.549   1.259
83951SOL    HW253628   7.882   0.458   1.164
83952SOL     OW53629  11.664  10.798   5.261
83952SOL    HW153630  11.717  10.862   5.213
83952SOL    HW253631  11.628  10.846   5.335
83953SOL     OW53632   3.396   4.017  14.519
83953SOL    HW153633   3.345   4.093  14.492
83953SOL    HW253634   3.403   3.963  14.440
83954SOL     OW53635   7.902  12.086   5.620
83954SOL    HW153636   7.870  12.127   5.700
83954SOL    HW253637   7.918  12.158   5.560
83955SOL     OW53638   4.983   2.540   0.510
83955SOL    HW153639   4.965   2.448   0.525
83955SOL    HW253640   4.900   2.584   0.530
83956SOL     OW53641  14.110   2.943   4.782
83956SOL    HW153642  14.027   2.990   4.773
83956SOL    HW253643  14.177   3.006   4.757
83957SOL     OW53644   5.645  11.911   5.577
83957SOL    HW153645   5.590  11.957   5.514
83957SOL    HW253646   5.585  11.854   5.625
83958SOL     OW53647   3.754   6.510   6.646
83958SOL    HW153648   3.723   6.598   6.665
83958SOL    HW253649   3.692   6.476   6.581
83959SOL     OW53650   9.596   3.711   0.551
83959SOL    HW153651   9.502   3.692   0.548
83959SOL    HW253652   9.611   3.765   0.473
83960SOL     OW53653   0.658   9.137  10.170
83960SOL    HW153654   0.752   9.128  10.150
83960SOL    HW253655   0.614   9.113  10.088
83961SOL     OW53656  14.350   2.251   4.360
83961SOL    HW153657  14.326   2.173   4.409
83961SOL    HW253658  14.418   2.221   4.299
83962SOL     OW53659  11.872  10.036   7.840
83962SOL    HW153660  11.921   9.976   7.895
83962SOL    HW253661  11.912  10.029   7.753
83963SOL     OW53662   3.432  14.603  11.616
83963SOL    HW153663   3.466  14.517  11.592
83963SOL    HW253664   3.481  14.628  11.694
83964SOL     OW53665  13.180   9.303   9.280
83964SOL    HW153666  13.173   9.292   9.375
83964SOL    HW253667  13.128   9.381   9.261
83965SOL     OW53668  10.941   1.478  11.690
83965SOL    HW153669  10.954   1.405  11.630
83965SOL    HW253670  11.023   1.527  11.687
83966SOL     OW53671   3.718   7.107   2.568
83966SOL    HW153672   3.648   7.068   2.516
83966SOL    HW253673   3.708   7.068   2.655
83967SOL     OW53674  10.199   2.269   1.918
83967SOL    HW153675  10.196   2.281   2.013
83967SOL    HW253676  10.158   2.183   1.904
83968SOL     OW53677   5.579   0.301   8.577
83968SOL    HW153678   5.617   0.381   8.612
83968SOL    HW253679   5.487   0.324   8.560
83969SOL     OW53680   2.929   7.546   4.070
83969SOL    HW153681   3.018   7.576   4.050
83969SOL    HW253682   2.891   7.616   4.122
83970SOL     OW53683   8.382  13.408   6.345
83970SOL    HW153684   8.385  13.435   6.253
83970SOL    HW253685   8.452  13.344   6.354
83971SOL     OW53686  10.337   8.682   1.509
83971SOL    HW153687  10.331   8.743   1.436
83971SOL    HW253688  10.340   8.596   1.469
83972SOL     OW53689  13.300  13.444   1.965
83972SOL    HW153690  13.266  13.458   1.877
83972SOL    HW253691  13.370  13.507   1.975
83973SOL     OW53692   2.910   4.477  12.155
83973SOL    HW153693   2.914   4.442  12.244
83973SOL    HW253694   2.996   4.517  12.141
83974SOL     OW53695  11.136  10.380  12.569
83974SOL    HW153696  11.215  10.400  12.620
83974SOL    HW253697  11.165  10.384  12.478
83975SOL     OW53698  14.370   7.826  12.508
83975SOL    HW153699  14.321   7.825  12.590
83975SOL    HW253700  14.363   7.737  12.474
83976SOL     OW53701  11.821   5.764   3.699
83976SOL    HW153702  11.812   5.674   3.732
83976SOL    HW253703  11.797   5.819   3.774
83977SOL     OW53704   3.291   8.272   3.817
83977SOL    HW153705   3.361   8.321   3.775
83977SOL    HW253706   3.242   8.234   3.744
83978SOL     OW53707   7.661  13.506  12.459
83978SOL    HW153708   7.726  13.439  12.478
83978SOL    HW253709   7.703  13.588  12.483
83979SOL     OW53710   4.924  11.628   8.547
83979SOL    HW153711   4.861  11.557   8.541
83979SOL    HW253712   5.007  11.585   8.568
83980SOL     OW53713   4.240   1.458   4.614
83980SOL    HW153714   4.273   1.522   4.677
83980SOL    HW253715   4.307   1.454   4.546
83981SOL     OW53716   0.367  13.686   6.773
83981SOL    HW153717   0.275  13.693   6.797
83981SOL    HW253718   0.396  13.777   6.762
83982SOL     OW53719   6.977   7.580   5.704
83982SOL    HW153720   6.971   7.485   5.696
83982SOL    HW253721   7.029   7.594   5.784
83983SOL     OW53722  10.729   0.210  10.110
83983SOL    HW153723  10.816   0.186  10.142
83983SOL    HW253724  10.672   0.200  10.186
83984SOL     OW53725   6.829   0.493   1.076
83984SOL    HW153726   6.865   0.551   1.009
83984SOL    HW253727   6.775   0.431   1.028
83985SOL     OW53728   3.902  10.941   2.844
83985SOL    HW153729   3.866  11.014   2.893
83985SOL    HW253730   3.885  10.963   2.752
83986SOL     OW53731   2.394  11.231   4.277
83986SOL    HW153732   2.446  11.237   4.357
83986SOL    HW253733   2.304  11.242   4.306
83987SOL     OW53734   2.249  13.307   1.939
83987SOL    HW153735   2.274  13.399   1.945
83987SOL    HW253736   2.328  13.258   1.962
83988SOL     OW53737   4.689   4.372   1.665
83988SOL    HW153738   4.649   4.391   1.750
83988SOL    HW253739   4.666   4.281   1.647
83989SOL     OW53740   5.007   4.614   7.868
83989SOL    HW153741   5.034   4.668   7.794
83989SOL    HW253742   5.006   4.674   7.943
83990SOL     OW53743   1.815   9.857   1.706
83990SOL    HW153744   1.870   9.931   1.732
83990SOL    HW253745   1.877   9.788   1.682
83991SOL     OW53746   3.112  12.078  10.573
83991SOL    HW153747   3.131  12.155  10.627
83991SOL    HW253748   3.069  12.017  10.633
83992SOL     OW53749  11.970   4.167  12.382
83992SOL    HW153750  11.967   4.081  12.341
83992SOL    HW253751  12.007   4.151  12.469
83993SOL     OW53752   3.625   8.912  11.710
83993SOL    HW153753   3.671   8.840  11.753
83993SOL    HW253754   3.691   8.955  11.655
83994SOL     OW53755  14.382  14.350   7.749
83994SOL    HW153756  14.469  14.350   7.790
83994SOL    HW253757  14.322  14.330   7.821
83995SOL     OW53758   9.558   3.398   1.467
83995SOL    HW153759   9.652   3.382   1.460
83995SOL    HW253760   9.534   3.366   1.554
83996SOL     OW53761   9.179  13.225   3.191
83996SOL    HW153762   9.107  13.284   3.171
83996SOL    HW253763   9.171  13.154   3.127
83997SOL     OW53764   8.495   0.007   5.676
83997SOL    HW153765   8.519  14.804   5.714
83997SOL    HW253766   8.409  14.873   5.637
83998SOL     OW53767  11.311   3.338   1.415
83998SOL    HW153768  11.349   3.269   1.360
83998SOL    HW253769  11.309   3.300   1.503
83999SOL     OW53770  13.839  13.773  12.000
83999SOL    HW153771  13.764  13.827  11.976
83999SOL    HW253772  13.812  13.728  12.080
84000SOL     OW53773   5.408   1.342   9.361
84000SOL    HW153774   5.356   1.301   9.292
84000SOL    HW253775   5.420   1.432   9.331
84001SOL     OW53776   4.796   3.577   2.794
84001SOL    HW153777   4.754   3.653   2.834
84001SOL    HW253778   4.795   3.510   2.862
84002SOL     OW53779   7.681  14.614   9.322
84002SOL    HW153780   7.763  14.628   9.274
84002SOL    HW253781   7.704  14.628   9.413
84003SOL     OW53782   3.479   0.003  12.143
84003SOL    HW153783   3.561   0.015  12.095
84003SOL    HW253784   3.497  14.813  12.204
84004SOL     OW53785  10.648  14.551   2.092
84004SOL    HW153786  10.677  14.471   2.048
84004SOL    HW253787  10.574  14.523   2.147
84005SOL     OW53788  11.708  13.915  10.201
84005SOL    HW153789  11.783  13.946  10.150
84005SOL    HW253790  11.726  13.945  10.290
84006SOL     OW53791   3.899   8.291   9.957
84006SOL    HW153792   3.888   8.368   9.901
84006SOL    HW253793   3.990   8.297   9.987
84007SOL     OW53794   1.983   2.949   6.938
84007SOL    HW153795   2.003   2.927   6.847
84007SOL    HW253796   2.013   3.039   6.948
84008SOL     OW53797   0.212   2.142   1.527
84008SOL    HW153798   0.193   2.115   1.437
84008SOL    HW253799   0.159   2.220   1.541
84009SOL     OW53800  13.025  12.091   9.539
84009SOL    HW153801  13.063  12.091   9.627
84009SOL    HW253802  13.100  12.106   9.480
84010SOL     OW53803  10.026  10.991   9.897
84010SOL    HW153804   9.931  11.001   9.902
84010SOL    HW253805  10.053  10.975   9.988
84011SOL     OW53806   2.598   9.080   0.543
84011SOL    HW153807   2.625   9.087   0.635
84011SOL    HW253808   2.531   9.011   0.544
84012SOL     OW53809  10.742  13.576   1.187
84012SOL    HW153810  10.718  13.572   1.280
84012SOL    HW253811  10.663  13.610   1.144
84013SOL     OW53812   4.877   6.797   3.136
84013SOL    HW153813   4.866   6.848   3.217
84013SOL    HW253814   4.795   6.808   3.089
84014SOL     OW53815  13.504  10.779   3.471
84014SOL    HW153816  13.538  10.824   3.394
84014SOL    HW253817  13.477  10.849   3.530
84015SOL     OW53818  14.577   8.355   5.373
84015SOL    HW153819  14.600   8.285   5.312
84015SOL    HW253820  14.619   8.434   5.337
84016SOL     OW53821   0.820  14.237  13.788
84016SOL    HW153822   0.808  14.306  13.853
84016SOL    HW253823   0.870  14.170  13.835
84017SOL     OW53824   0.634   1.114  11.316
84017SOL    HW153825   0.623   1.045  11.382
84017SOL    HW253826   0.729   1.125  11.309
84018SOL     OW53827   6.269   2.005  14.238
84018SOL    HW153828   6.353   1.976  14.203
84018SOL    HW253829   6.267   1.972  14.328
84019SOL     OW53830  11.863  11.767  13.634
84019SOL    HW153831  11.912  11.832  13.684
84019SOL    HW253832  11.868  11.687  13.686
84020SOL     OW53833  14.714  13.996   7.703
84020SOL    HW153834  14.733  14.029   7.791
84020SOL    HW253835  14.620  13.981   7.702
84021SOL     OW53836  13.033   8.775   0.678
84021SOL    HW153837  13.103   8.720   0.713
84021SOL    HW253838  12.997   8.819   0.755
84022SOL     OW53839  11.535   2.539   4.809
84022SOL    HW153840  11.445   2.573   4.815
84022SOL    HW253841  11.546   2.487   4.888
84023SOL     OW53842  11.025   2.440   5.949
84023SOL    HW153843  11.063   2.433   6.037
84023SOL    HW253844  10.971   2.361   5.940
84024SOL     OW53845   9.585  10.156  10.229
84024SOL    HW153846   9.582  10.065  10.199
84024SOL    HW253847   9.676  10.170  10.255
84025SOL     OW53848  12.237  14.483   3.636
84025SOL    HW153849  12.327  14.476   3.667
84025SOL    HW253850  12.223  14.403   3.585
84026SOL     OW53851  13.548   7.440   5.401
84026SOL    HW153852  13.560   7.365   5.459
84026SOL    HW253853  13.453   7.450   5.393
84027SOL     OW53854  11.917   5.651   6.663
84027SOL    HW153855  11.991   5.631   6.720
84027SOL    HW253856  11.905   5.573   6.610
84028SOL     OW53857  13.431  11.077   5.875
84028SOL    HW153858  13.439  11.016   5.949
84028SOL    HW253859  13.364  11.039   5.819
84029SOL     OW53860   8.269   8.487  12.283
84029SOL    HW153861   8.296   8.497  12.192
84029SOL    HW253862   8.174   8.482  12.279
84030SOL     OW53863  13.246   9.183   0.805
84030SOL    HW153864  13.164   9.232   0.813
84030SOL    HW253865  13.218   9.092   0.795
84031SOL     OW53866   6.012   2.646   5.731
84031SOL    HW153867   6.086   2.599   5.693
84031SOL    HW253868   5.985   2.592   5.806
84032SOL     OW53869   5.749   2.935  11.221
84032SOL    HW153870   5.721   2.876  11.151
84032SOL    HW253871   5.719   2.893  11.302
84033SOL     OW53872  14.239   3.373  12.402
84033SOL    HW153873  14.244   3.307  12.471
84033SOL    HW253874  14.221   3.455  12.449
84034SOL     OW53875   6.216   1.520   9.957
84034SOL    HW153876   6.304   1.552   9.977
84034SOL    HW253877   6.158   1.592   9.982
84035SOL     OW53878  10.246   1.306   6.715
84035SOL    HW153879  10.330   1.346   6.737
84035SOL    HW253880  10.267   1.247   6.642
84036SOL     OW53881   9.434  10.673   9.302
84036SOL    HW153882   9.496  10.607   9.334
84036SOL    HW253883   9.351  10.627   9.296
84037SOL     OW53884  10.833   5.355  14.425
84037SOL    HW153885  10.829   5.382  14.333
84037SOL    HW253886  10.906   5.293  14.427
84038SOL     OW53887  14.389   9.749   5.637
84038SOL    HW153888  14.324   9.808   5.599
84038SOL    HW253889  14.432   9.801   5.705
84039SOL     OW53890   1.562   8.719   6.702
84039SOL    HW153891   1.493   8.786   6.709
84039SOL    HW253892   1.585   8.718   6.609
84040SOL     OW53893  11.840   1.771   6.691
84040SOL    HW153894  11.875   1.853   6.656
84040SOL    HW253895  11.837   1.712   6.616
84041SOL     OW53896   3.387   8.214  14.178
84041SOL    HW153897   3.321   8.282  14.190
84041SOL    HW253898   3.469   8.254  14.209
84042SOL     OW53899   7.892  13.862  13.991
84042SOL    HW153900   7.926  13.777  14.020
84042SOL    HW253901   7.946  13.886  13.916
84043SOL     OW53902   0.037  13.981  10.974
84043SOL    HW153903   0.080  14.000  10.891
84043SOL    HW253904  14.826  13.996  10.957
84044SOL     OW53905   1.478  13.510   0.906
84044SOL    HW153906   1.470  13.599   0.873
84044SOL    HW253907   1.548  13.471   0.854
84045SOL     OW53908  13.857   6.142   0.652
84045SOL    HW153909  13.795   6.211   0.627
84045SOL    HW253910  13.820   6.105   0.732
84046SOL     OW53911  12.966   1.713   3.709
84046SOL    HW153912  12.966   1.805   3.736
84046SOL    HW253913  12.944   1.715   3.616
84047SOL     OW53914   2.226  12.705   1.188
84047SOL    HW153915   2.154  12.746   1.140
84047SOL    HW253916   2.305  12.736   1.143
84048SOL     OW53917   9.318   7.785  13.975
84048SOL    HW153918   9.402   7.804  13.932
84048SOL    HW253919   9.302   7.693  13.956
84049SOL     OW53920  14.180   0.337  13.872
84049SOL    HW153921  14.103   0.372  13.828
84049SOL    HW253922  14.148   0.262  13.922
84050SOL     OW53923  12.443   7.651  12.669
84050SOL    HW153924  12.418   7.559  12.667
84050SOL    HW253925  12.451   7.675  12.576
84051SOL     OW53926   6.345   8.738   9.862
84051SOL    HW153927   6.340   8.642   9.870
84051SOL    HW253928   6.258   8.768   9.891
84052SOL     OW53929  10.325  13.021   0.651
84052SOL    HW153930  10.420  13.005   0.653
84052SOL    HW253931  10.291  12.955   0.591
84053SOL     OW53932   2.700   3.657  14.586
84053SOL    HW153933   2.665   3.600  14.654
84053SOL    HW253934   2.795   3.647  14.593
84054SOL     OW53935   3.009   6.275   8.600
84054SOL    HW153936   3.063   6.270   8.679
84054SOL    HW253937   3.048   6.213   8.539
84055SOL     OW53938  10.368  14.375   9.388
84055SOL    HW153939  10.427  14.322   9.441
84055SOL    HW253940  10.280  14.344   9.411
84056SOL     OW53941  14.314   7.323   3.610
84056SOL    HW153942  14.256   7.316   3.535
84056SOL    HW253943  14.255   7.321   3.686
84057SOL     OW53944   9.390   9.055  11.768
84057SOL    HW153945   9.302   9.015  11.769
84057SOL    HW253946   9.447   8.985  11.800
84058SOL     OW53947   9.653   5.760   6.923
84058SOL    HW153948   9.625   5.670   6.937
84058SOL    HW253949   9.714   5.755   6.850
84059SOL     OW53950  10.776   5.759   3.256
84059SOL    HW153951  10.833   5.821   3.301
84059SOL    HW253952  10.761   5.798   3.170
84060SOL     OW53953   1.331   7.471   9.336
84060SOL    HW153954   1.388   7.478   9.412
84060SOL    HW253955   1.370   7.401   9.283
84061SOL     OW53956   2.540   6.180   2.878
84061SOL    HW153957   2.533   6.098   2.831
84061SOL    HW253958   2.633   6.203   2.873
84062SOL     OW53959   5.089   6.541   9.848
84062SOL    HW153960   5.130   6.588   9.920
84062SOL    HW253961   5.142   6.462   9.836
84063SOL     OW53962   5.323   0.723   8.571
84063SOL    HW153963   5.331   0.696   8.663
84063SOL    HW253964   5.384   0.796   8.562
84064SOL     OW53965   9.224  13.448   8.476
84064SOL    HW153966   9.280  13.373   8.457
84064SOL    HW253967   9.262  13.489   8.553
84065SOL     OW53968   6.045  14.650  10.134
84065SOL    HW153969   6.050  14.673  10.041
84065SOL    HW253970   6.052  14.734  10.179
84066SOL     OW53971  10.816   2.652   1.145
84066SOL    HW153972  10.815   2.574   1.089
84066SOL    HW253973  10.833   2.619   1.233
84067SOL     OW53974  10.726  10.656   7.608
84067SOL    HW153975  10.694  10.575   7.648
84067SOL    HW253976  10.718  10.721   7.678
84068SOL     OW53977   1.792   6.385   9.386
84068SOL    HW153978   1.852   6.311   9.395
84068SOL    HW253979   1.713   6.347   9.346
84069SOL     OW53980  11.069  13.095   4.770
84069SOL    HW153981  11.119  13.136   4.700
84069SOL    HW253982  11.103  13.006   4.776
84070SOL     OW53983   3.971   0.353   2.187
84070SOL    HW153984   4.000   0.384   2.101
84070SOL    HW253985   3.876   0.362   2.185
84071SOL     OW53986   1.632  14.194   6.997
84071SOL    HW153987   1.584  14.147   7.065
84071SOL    HW253988   1.622  14.287   7.021
84072SOL     OW53989   0.932   6.283   3.620
84072SOL    HW153990   0.870   6.303   3.550
84072SOL    HW253991   0.876   6.264   3.696
84073SOL     OW53992   7.610   1.546   3.001
84073SOL    HW153993   7.561   1.496   2.936
84073SOL    HW253994   7.678   1.486   3.032
84074SOL     OW53995   4.942   8.893  14.399
84074SOL    HW153996   4.901   8.929  14.478
84074SOL    HW253997   4.982   8.811  14.429
84075SOL     OW53998   9.200   1.686   8.720
84075SOL    HW153999   9.212   1.766   8.669
84075SOL    HW254000   9.286   1.646   8.723
84076SOL     OW54001  14.520   1.889   9.681
84076SOL    HW154002  14.561   1.855   9.602
84076SOL    HW254003  14.452   1.825   9.703
84077SOL     OW54004  11.524  11.325   6.616
84077SOL    HW154005  11.546  11.348   6.526
84077SOL    HW254006  11.438  11.365   6.630
84078SOL     OW54007   4.575   6.656  11.965
84078SOL    HW154008   4.631   6.585  11.932
84078SOL    HW254009   4.607   6.672  12.054
84079SOL     OW54010  14.195   5.444  12.580
84079SOL    HW154011  14.198   5.530  12.623
84079SOL    HW254012  14.281   5.405  12.598
84080SOL     OW54013   8.038   0.350   7.234
84080SOL    HW154014   8.102   0.385   7.172
84080SOL    HW254015   7.983   0.424   7.258
84081SOL     OW54016   6.614  13.681  11.371
84081SOL    HW154017   6.593  13.590  11.348
84081SOL    HW254018   6.530  13.726  11.371
84082SOL     OW54019   8.184  14.407  12.343
84082SOL    HW154020   8.163  14.459  12.266
84082SOL    HW254021   8.269  14.367  12.322
84083SOL     OW54022   3.970   5.814  12.203
84083SOL    HW154023   3.912   5.888  12.222
84083SOL    HW254024   4.007   5.833  12.117
84084SOL     OW54025   3.296  14.053   5.155
84084SOL    HW154026   3.232  14.122   5.175
84084SOL    HW254027   3.381  14.096   5.164
84085SOL     OW54028   1.524  13.994   0.725
84085SOL    HW154029   1.618  14.001   0.707
84085SOL    HW254030   1.509  14.056   0.797
84086SOL     OW54031   8.408   2.321   1.075
84086SOL    HW154032   8.400   2.414   1.099
84086SOL    HW254033   8.501   2.302   1.082
84087SOL     OW54034   7.133  11.906   2.061
84087SOL    HW154035   7.185  11.837   2.102
84087SOL    HW254036   7.118  11.875   1.972
84088SOL     OW54037   5.388   7.497   8.725
84088SOL    HW154038   5.340   7.533   8.650
84088SOL    HW254039   5.457   7.443   8.687
84089SOL     OW54040  11.077   0.602   7.727
84089SOL    HW154041  11.164   0.566   7.740
84089SOL    HW254042  11.089   0.697   7.736
84090SOL     OW54043   2.979  14.351   0.414
84090SOL    HW154044   3.023  14.436   0.418
84090SOL    HW254045   3.049  14.289   0.395
84091SOL     OW54046   6.377   2.756   7.146
84091SOL    HW154047   6.342   2.757   7.235
84091SOL    HW254048   6.461   2.802   7.153
84092SOL     OW54049   5.957   8.107   9.246
84092SOL    HW154050   6.021   8.084   9.314
84092SOL    HW254051   5.998   8.079   9.164
84093SOL     OW54052  13.254   9.745   1.468
84093SOL    HW154053  13.245   9.766   1.374
84093SOL    HW254054  13.234   9.652   1.474
84094SOL     OW54055  13.107  13.106   8.604
84094SOL    HW154056  13.169  13.035   8.618
84094SOL    HW254057  13.074  13.092   8.515
84095SOL     OW54058   2.149   4.163  11.253
84095SOL    HW154059   2.234   4.175  11.295
84095SOL    HW254060   2.147   4.070  11.229
84096SOL     OW54061   5.693  11.699   5.189
84096SOL    HW154062   5.682  11.793   5.176
84096SOL    HW254063   5.634  11.659   5.124
84097SOL     OW54064   7.747  11.462  10.043
84097SOL    HW154065   7.792  11.485  10.124
84097SOL    HW254066   7.660  11.433  10.070
84098SOL     OW54067   6.725  11.651   1.852
84098SOL    HW154068   6.761  11.573   1.810
84098SOL    HW254069   6.683  11.617   1.932
84099SOL     OW54070   3.923  13.608  12.770
84099SOL    HW154071   3.911  13.542  12.702
84099SOL    HW254072   3.902  13.562  12.852
84100SOL     OW54073   2.994   0.512   8.460
84100SOL    HW154074   3.070   0.527   8.405
84100SOL    HW254075   2.970   0.421   8.444
84101SOL     OW54076  13.348   4.890   4.866
84101SOL    HW154077  13.361   4.940   4.946
84101SOL    HW254078  13.377   4.949   4.796
84102SOL     OW54079   5.512   2.636  11.722
84102SOL    HW154080   5.505   2.568  11.789
84102SOL    HW254081   5.501   2.590  11.639
84103SOL     OW54082   4.431  14.250   5.640
84103SOL    HW154083   4.438  14.287   5.728
84103SOL    HW254084   4.512  14.276   5.596
84104SOL     OW54085   0.821  11.166   8.717
84104SOL    HW154086   0.789  11.253   8.692
84104SOL    HW254087   0.843  11.124   8.634
84105SOL     OW54088   1.798   5.451   7.099
84105SOL    HW154089   1.754   5.366   7.104
84105SOL    HW254090   1.806   5.480   7.190
84106SOL     OW54091   8.286   3.950   6.347
84106SOL    HW154092   8.212   3.966   6.288
84106SOL    HW254093   8.269   4.005   6.423
84107SOL     OW54094  12.939   0.161   9.923
84107SOL    HW154095  12.901   0.132   9.841
84107SOL    HW254096  12.876   0.225   9.958
84108SOL     OW54097   5.152  13.732   6.350
84108SOL    HW154098   5.234  13.715   6.397
84108SOL    HW254099   5.147  13.828   6.344
84109SOL     OW54100   7.722  13.932   7.962
84109SOL    HW154101   7.644  13.935   7.906
84109SOL    HW254102   7.689  13.899   8.046
84110SOL     OW54103   3.817  14.112   9.800
84110SOL    HW154104   3.813  14.074   9.711
84110SOL    HW254105   3.908  14.101   9.827
84111SOL     OW54106   3.043  11.342   4.732
84111SOL    HW154107   3.040  11.258   4.688
84111SOL    HW254108   2.958  11.382   4.714
84112SOL     OW54109   1.758   1.068   3.907
84112SOL    HW154110   1.802   1.146   3.873
84112SOL    HW254111   1.668   1.075   3.874
84113SOL     OW54112   8.331   9.685   9.750
84113SOL    HW154113   8.384   9.624   9.800
84113SOL    HW254114   8.255   9.703   9.806
84114SOL     OW54115   7.898   5.011  12.212
84114SOL    HW154116   7.859   5.062  12.141
84114SOL    HW254117   7.825   4.962  12.250
84115SOL     OW54118   3.439  14.302   6.356
84115SOL    HW154119   3.478  14.284   6.270
84115SOL    HW254120   3.417  14.216   6.390
84116SOL     OW54121   5.970   1.350  12.169
84116SOL    HW154122   5.975   1.315  12.258
84116SOL    HW254123   5.979   1.445  12.179
84117SOL     OW54124   3.821   0.009   0.954
84117SOL    HW154125   3.882   0.078   0.929
84117SOL    HW254126   3.735   0.051   0.953
84118SOL     OW54127  11.804   1.640   1.090
84118SOL    HW154128  11.815   1.594   1.173
84118SOL    HW254129  11.796   1.571   1.024
84119SOL     OW54130   1.263   0.785   3.928
84119SOL    HW154131   1.291   0.840   3.855
84119SOL    HW254132   1.305   0.701   3.913
84120SOL     OW54133   4.442   4.444   0.028
84120SOL    HW154134   4.395   4.523   0.003
84120SOL    HW254135   4.413   4.425   0.117
84121SOL     OW54136   5.182  13.920   0.328
84121SOL    HW154137   5.191  13.978   0.252
84121SOL    HW254138   5.269  13.884   0.342
84122SOL     OW54139   6.647  14.346   5.040
84122SOL    HW154140   6.554  14.324   5.048
84122SOL    HW254141   6.686  14.315   5.122
84123SOL     OW54142   7.014   4.258  11.255
84123SOL    HW154143   7.074   4.318  11.211
84123SOL    HW254144   7.013   4.180  11.200
84124SOL     OW54145   9.337  10.175   3.756
84124SOL    HW154146   9.394  10.235   3.803
84124SOL    HW254147   9.395  10.128   3.696
84125SOL     OW54148   8.667   2.598  12.876
84125SOL    HW154149   8.580   2.594  12.915
84125SOL    HW254150   8.702   2.509  12.886
84126SOL     OW54151   1.920   9.968   2.883
84126SOL    HW154152   1.899   9.876   2.867
84126SOL    HW254153   1.875  10.015   2.812
84127SOL     OW54154   4.942  10.461   6.660
84127SOL    HW154155   5.019  10.515   6.676
84127SOL    HW254156   4.972  10.371   6.673
84128SOL     OW54157  10.475   0.705   4.837
84128SOL    HW154158  10.516   0.774   4.888
84128SOL    HW254159  10.391   0.689   4.880
84129SOL     OW54160   6.544   2.175   1.830
84129SOL    HW154161   6.471   2.211   1.779
84129SOL    HW254162   6.592   2.251   1.860
84130SOL     OW54163   5.550  12.859   2.198
84130SOL    HW154164   5.589  12.773   2.218
84130SOL    HW254165   5.563  12.869   2.103
84131SOL     OW54166   5.606   0.107  13.533
84131SOL    HW154167   5.634   0.030  13.484
84131SOL    HW254168   5.686   0.141  13.572
84132SOL     OW54169  13.285   5.959   2.731
84132SOL    HW154170  13.296   6.054   2.720
84132SOL    HW254171  13.373   5.927   2.752
84133SOL     OW54172   1.593   8.340  13.961
84133SOL    HW154173   1.541   8.418  13.979
84133SOL    HW254174   1.633   8.318  14.045
84134SOL     OW54175   3.494   2.092   7.068
84134SOL    HW154176   3.468   2.093   6.976
84134SOL    HW254177   3.534   2.177   7.083
84135SOL     OW54178  12.548   5.772  13.101
84135SOL    HW154179  12.513   5.854  13.064
84135SOL    HW254180  12.642   5.777  13.084
84136SOL     OW54181   8.634  10.220   1.874
84136SOL    HW154182   8.645  10.312   1.851
84136SOL    HW254183   8.539  10.205   1.868
84137SOL     OW54184   8.428  12.770   7.999
84137SOL    HW154185   8.395  12.693   8.045
84137SOL    HW254186   8.509  12.793   8.045
84138SOL     OW54187  12.061  11.428   5.316
84138SOL    HW154188  11.993  11.463   5.259
84138SOL    HW254189  12.098  11.355   5.267
84139SOL     OW54190   0.961   3.221  14.767
84139SOL    HW154191   0.998   3.162  14.834
84139SOL    HW254192   1.033   3.239  14.707
84140SOL     OW54193   5.969   9.851  11.890
84140SOL    HW154194   5.925   9.780  11.844
84140SOL    HW254195   5.958   9.831  11.983
84141SOL     OW54196  12.254   0.918   4.399
84141SOL    HW154197  12.188   0.916   4.469
84141SOL    HW254198  12.277   1.010   4.390
84142SOL     OW54199   2.213   1.713   9.653
84142SOL    HW154200   2.166   1.729   9.572
84142SOL    HW254201   2.145   1.716   9.721
84143SOL     OW54202   3.610   4.546   7.831
84143SOL    HW154203   3.525   4.560   7.789
84143SOL    HW254204   3.655   4.483   7.775
84144SOL     OW54205   0.088   4.019  10.959
84144SOL    HW154206   0.132   3.940  10.989
84144SOL    HW254207   0.050   3.994  10.874
84145SOL     OW54208  11.413   3.550  12.826
84145SOL    HW154209  11.436   3.633  12.786
84145SOL    HW254210  11.318   3.556  12.840
84146SOL     OW54211   0.022   5.782  14.313
84146SOL    HW154212  14.834   5.717  14.327
84146SOL    HW254213  14.860   5.855  14.270
84147SOL     OW54214   3.339   8.469   4.994
84147SOL    HW154215   3.337   8.377   5.021
84147SOL    HW254216   3.417   8.505   5.036
84148SOL     OW54217   0.796   2.626   4.310
84148SOL    HW154218   0.788   2.550   4.252
84148SOL    HW254219   0.833   2.695   4.255
84149SOL     OW54220   2.112  11.495   0.818
84149SOL    HW154221   2.153  11.551   0.752
84149SOL    HW254222   2.158  11.517   0.899
84150SOL     OW54223   4.363   4.937   9.412
84150SOL    HW154224   4.307   4.863   9.434
84150SOL    HW254225   4.432   4.900   9.357
84151SOL     OW54226   1.500  10.605   8.411
84151SOL    HW154227   1.485  10.699   8.425
84151SOL    HW254228   1.452  10.585   8.331
84152SOL     OW54229   7.225   7.376   5.110
84152SOL    HW154230   7.241   7.308   5.044
84152SOL    HW254231   7.177   7.444   5.062
84153SOL     OW54232   8.097   0.212  13.473
84153SOL    HW154233   8.009   0.240  13.445
84153SOL    HW254234   8.136   0.292  13.510
84154SOL     OW54235   6.085   6.848  14.717
84154SOL    HW154236   6.090   6.927  14.662
84154SOL    HW254237   5.992   6.841  14.740
84155SOL     OW54238   4.360   2.583  12.193
84155SOL    HW154239   4.432   2.577  12.130
84155SOL    HW254240   4.319   2.496  12.190
84156SOL     OW54241  11.954   4.093  11.594
84156SOL    HW154242  11.917   4.046  11.519
84156SOL    HW254243  12.046   4.067  11.595
84157SOL     OW54244   8.123   8.562   6.300
84157SOL    HW154245   8.192   8.628   6.302
84157SOL    HW254246   8.105   8.543   6.392
84158SOL     OW54247   0.510   6.953   8.842
84158SOL    HW154248   0.492   6.937   8.935
84158SOL    HW254249   0.604   6.936   8.832
84159SOL     OW54250   2.816   4.768   6.477
84159SOL    HW154251   2.765   4.737   6.552
84159SOL    HW254252   2.789   4.860   6.467
84160SOL     OW54253   3.868   6.238   0.119
84160SOL    HW154254   3.905   6.168   0.063
84160SOL    HW254255   3.794   6.196   0.163
84161SOL     OW54256   5.815   0.816   1.272
84161SOL    HW154257   5.799   0.818   1.178
84161SOL    HW254258   5.875   0.889   1.288
84162SOL     OW54259   3.512  12.473  13.938
84162SOL    HW154260   3.498  12.507  14.026
84162SOL    HW254261   3.443  12.515  13.885
84163SOL     OW54262   6.954  11.948   5.569
84163SOL    HW154263   6.903  11.872   5.595
84163SOL    HW254264   6.934  11.960   5.476
84164SOL     OW54265   1.751   3.401   6.760
84164SOL    HW154266   1.835   3.408   6.716
84164SOL    HW254267   1.756   3.464   6.832
84165SOL     OW54268   7.851  11.700   5.189
84165SOL    HW154269   7.776  11.639   5.189
84165SOL    HW254270   7.912  11.662   5.252
84166SOL     OW54271  13.629  10.595   6.853
84166SOL    HW154272  13.680  10.608   6.932
84166SOL    HW254273  13.625  10.500   6.842
84167SOL     OW54274   9.177   9.640   4.954
84167SOL    HW154275   9.167   9.548   4.929
84167SOL    HW254276   9.195   9.637   5.048
84168SOL     OW54277   1.878   5.077   4.042
84168SOL    HW154278   1.869   5.001   4.099
84168SOL    HW254279   1.915   5.042   3.961
84169SOL     OW54280   3.948   7.352   9.343
84169SOL    HW154281   4.025   7.398   9.377
84169SOL    HW254282   3.964   7.344   9.249
84170SOL     OW54283   5.121  10.469  10.447
84170SOL    HW154284   5.160  10.545  10.404
84170SOL    HW254285   5.174  10.456  10.525
84171SOL     OW54286   9.136   2.505   3.635
84171SOL    HW154287   9.141   2.593   3.599
84171SOL    HW254288   9.115   2.449   3.560
84172SOL     OW54289  10.990   0.128  10.157
84172SOL    HW154290  11.020   0.134  10.248
84172SOL    HW254291  11.048   0.063  10.117
84173SOL     OW54292   4.501   2.689   4.630
84173SOL    HW154293   4.563   2.712   4.561
84173SOL    HW254294   4.446   2.620   4.592
84174SOL     OW54295   8.781   0.269   5.148
84174SOL    HW154296   8.811   0.358   5.131
84174SOL    HW254297   8.739   0.274   5.234
84175SOL     OW54298   1.174   7.807   7.674
84175SOL    HW154299   1.134   7.797   7.588
84175SOL    HW254300   1.212   7.721   7.693
84176SOL     OW54301   7.652   2.277  11.936
84176SOL    HW154302   7.733   2.242  11.899
84176SOL    HW254303   7.674   2.295  12.028
84177SOL     OW54304  14.557   0.013   2.313
84177SOL    HW154305  14.529   0.070   2.242
84177SOL    HW254306  14.620   0.065   2.363
84178SOL     OW54307  13.834  14.647   1.194
84178SOL    HW154308  13.895  14.575   1.181
84178SOL    HW254309  13.859  14.686   1.278
84179SOL     OW54310   9.220   1.399   9.906
84179SOL    HW154311   9.251   1.310   9.887
84179SOL    HW254312   9.227   1.445   9.823
84180SOL     OW54313   0.076   2.904  14.870
84180SOL    HW154314   0.008   2.969  14.851
84180SOL    HW254315   0.060   2.880   0.080
84181SOL     OW54316  12.149   5.269  11.029
84181SOL    HW154317  12.130   5.331  11.099
84181SOL    HW254318  12.233   5.297  10.993
84182SOL     OW54319   6.289  13.005   9.683
84182SOL    HW154320   6.232  13.075   9.651
84182SOL    HW254321   6.230  12.942   9.724
84183SOL     OW54322   3.422  10.298  12.179
84183SOL    HW154323   3.337  10.268  12.211
84183SOL    HW254324   3.401  10.353  12.104
84184SOL     OW54325   6.410   3.228   2.311
84184SOL    HW154326   6.411   3.177   2.392
84184SOL    HW254327   6.493   3.275   2.311
84185SOL     OW54328  10.654   2.043   2.386
84185SOL    HW154329  10.718   1.973   2.374
84185SOL    HW254330  10.660   2.065   2.479
84186SOL     OW54331   0.688   2.800  11.082
84186SOL    HW154332   0.638   2.730  11.122
84186SOL    HW254333   0.667   2.795  10.989
84187SOL     OW54334   4.675  14.140   0.974
84187SOL    HW154335   4.598  14.101   0.933
84187SOL    HW254336   4.739  14.069   0.975
84188SOL     OW54337   8.054  12.250   5.444
84188SOL    HW154338   8.103  12.327   5.473
84188SOL    HW254339   8.119  12.180   5.439
84189SOL     OW54340   4.588   5.386  12.434
84189SOL    HW154341   4.614   5.336  12.511
84189SOL    HW254342   4.605   5.327  12.360
84190SOL     OW54343  14.514  10.194  13.962
84190SOL    HW154344  14.590  10.249  13.980
84190SOL    HW254345  14.549  10.105  13.959
84191SOL     OW54346   8.831   1.677  11.202
84191SOL    HW154347   8.759   1.668  11.141
84191SOL    HW254348   8.891   1.739  11.160
84192SOL     OW54349   4.099  11.220   9.054
84192SOL    HW154350   4.112  11.195   9.145
84192SOL    HW254351   4.017  11.179   9.029
84193SOL     OW54352  13.272   6.069   8.569
84193SOL    HW154353  13.366   6.074   8.551
84193SOL    HW254354  13.253   6.147   8.621
84194SOL     OW54355   5.846  11.255  14.471
84194SOL    HW154356   5.789  11.311  14.419
84194SOL    HW254357   5.805  11.252  14.558
84195SOL     OW54358  13.679   3.532  13.820
84195SOL    HW154359  13.613   3.498  13.880
84195SOL    HW254360  13.744   3.574  13.877
84196SOL     OW54361  13.706   4.075   0.847
84196SOL    HW154362  13.791   4.035   0.864
84196SOL    HW254363  13.690   4.131   0.924
84197SOL     OW54364   2.096   7.411   1.617
84197SOL    HW154365   2.141   7.482   1.663
84197SOL    HW254366   2.004   7.422   1.640
84198SOL     OW54367   4.314   6.596   7.028
84198SOL    HW154368   4.402   6.634   7.034
84198SOL    HW254369   4.329   6.502   7.023
84199SOL     OW54370   9.560   5.660   6.547
84199SOL    HW154371   9.645   5.687   6.513
84199SOL    HW254372   9.575   5.572   6.582
84200SOL     OW54373   7.189  13.021   8.438
84200SOL    HW154374   7.275  13.004   8.477
84200SOL    HW254375   7.128  13.017   8.511
84201SOL     OW54376   3.559  10.520  14.707
84201SOL    HW154377   3.540  10.491  14.618
84201SOL    HW254378   3.552  10.441  14.760
84202SOL     OW54379  10.361   0.013  12.172
84202SOL    HW154380  10.419   0.029  12.246
84202SOL    HW254381  10.404   0.057  12.098
84203SOL     OW54382  12.491   1.081  10.550
84203SOL    HW154383  12.434   1.080  10.473
84203SOL    HW254384  12.448   1.022  10.612
84204SOL     OW54385   6.399   5.348  12.327
84204SOL    HW154386   6.375   5.440  12.340
84204SOL    HW254387   6.480   5.351  12.277
84205SOL     OW54388   5.711   3.825   0.548
84205SOL    HW154389   5.636   3.874   0.582
84205SOL    HW254390   5.674   3.770   0.479
84206SOL     OW54391   9.635   8.223   6.327
84206SOL    HW154392   9.714   8.239   6.379
84206SOL    HW254393   9.587   8.156   6.376
84207SOL     OW54394   7.681  14.687   2.824
84207SOL    HW154395   7.635  14.622   2.772
84207SOL    HW254396   7.773  14.659   2.824
84208SOL     OW54397  12.879   6.956   2.483
84208SOL    HW154398  12.786   6.937   2.493
84208SOL    HW254399  12.882   7.030   2.422
84209SOL     OW54400   3.159  10.182   2.046
84209SOL    HW154401   3.191  10.129   1.973
84209SOL    HW254402   3.065  10.163   2.050
84210SOL     OW54403  10.357   8.091  10.913
84210SOL    HW154404  10.425   8.052  10.967
84210SOL    HW254405  10.275   8.058  10.950
84211SOL     OW54406   5.427   5.673   1.863
84211SOL    HW154407   5.409   5.692   1.771
84211SOL    HW254408   5.431   5.759   1.906
84212SOL     OW54409   2.678   4.083   1.664
84212SOL    HW154410   2.688   4.161   1.611
84212SOL    HW254411   2.648   4.115   1.749
84213SOL     OW54412   5.275   8.297   8.152
84213SOL    HW154413   5.183   8.310   8.172
84213SOL    HW254414   5.315   8.383   8.161
84214SOL     OW54415  14.807   3.506   8.745
84214SOL    HW154416  14.861   3.566   8.797
84214SOL    HW254417  14.722   3.549   8.738
84215SOL     OW54418   5.557   1.450   6.018
84215SOL    HW154419   5.562   1.356   6.005
84215SOL    HW254420   5.478   1.477   5.971
84216SOL     OW54421  14.612  13.573   3.959
84216SOL    HW154422  14.681  13.628   3.922
84216SOL    HW254423  14.564  13.540   3.882
84217SOL     OW54424  12.741   6.036   2.371
84217SOL    HW154425  12.715   6.124   2.346
84217SOL    HW254426  12.822   6.047   2.420
84218SOL     OW54427   7.154  13.053   2.227
84218SOL    HW154428   7.161  12.958   2.232
84218SOL    HW254429   7.191  13.085   2.309
84219SOL     OW54430  14.801   9.843   6.748
84219SOL    HW154431  14.855   9.772   6.783
84219SOL    HW254432  14.791   9.904   6.821
84220SOL     OW54433   4.519   6.478   0.092
84220SOL    HW154434   4.459   6.520   0.030
84220SOL    HW254435   4.482   6.392   0.108
84221SOL     OW54436   1.401   3.082   9.004
84221SOL    HW154437   1.332   3.043   8.950
84221SOL    HW254438   1.361   3.093   9.090
84222SOL     OW54439   4.694   0.306  11.717
84222SOL    HW154440   4.666   0.386  11.672
84222SOL    HW254441   4.617   0.249  11.713
84223SOL     OW54442   9.353   2.202  13.505
84223SOL    HW154443   9.269   2.228  13.541
84223SOL    HW254444   9.336   2.121  13.458
84224SOL     OW54445   9.239  11.416  10.761
84224SOL    HW154446   9.168  11.480  10.760
84224SOL    HW254447   9.312  11.459  10.717
84225SOL     OW54448   3.590  13.178   8.644
84225SOL    HW154449   3.544  13.244   8.695
84225SOL    HW254450   3.683  13.200   8.653
84226SOL     OW54451   6.090   3.212  10.674
84226SOL    HW154452   6.184   3.206  10.692
84226SOL    HW254453   6.052   3.138  10.721
84227SOL     OW54454   3.956  12.542   5.475
84227SOL    HW154455   3.965  12.636   5.461
84227SOL    HW254456   3.958  12.532   5.570
84228SOL     OW54457   2.495   1.465   9.937
84228SOL    HW154458   2.538   1.460  10.022
84228SOL    HW254459   2.423   1.402   9.943
84229SOL     OW54460  13.787  14.316   5.139
84229SOL    HW154461  13.733  14.288   5.213
84229SOL    HW254462  13.724  14.346   5.073
84230SOL     OW54463   9.722   4.362   9.420
84230SOL    HW154464   9.685   4.446   9.446
84230SOL    HW254465   9.814   4.380   9.403
84231SOL     OW54466   3.356  11.935   3.912
84231SOL    HW154467   3.451  11.921   3.913
84231SOL    HW254468   3.342  12.001   3.844
84232SOL     OW54469   4.735  13.271  13.172
84232SOL    HW154470   4.831  13.263  13.173
84232SOL    HW254471   4.708  13.229  13.254
84233SOL     OW54472  10.641   1.398   8.132
84233SOL    HW154473  10.730   1.422   8.108
84233SOL    HW254474  10.646   1.376   8.224
84234SOL     OW54475  14.107   6.023  11.058
84234SOL    HW154476  14.153   6.029  10.974
84234SOL    HW254477  14.086   6.114  11.080
84235SOL     OW54478   7.700   6.212   9.162
84235SOL    HW154479   7.775   6.223   9.222
84235SOL    HW254480   7.716   6.128   9.119
84236SOL     OW54481   8.005  10.931   1.380
84236SOL    HW154482   8.091  10.964   1.353
84236SOL    HW254483   8.024  10.873   1.454
84237SOL     OW54484   1.202   9.954   5.690
84237SOL    HW154485   1.287   9.993   5.711
84237SOL    HW254486   1.202   9.870   5.735
84238SOL     OW54487   9.240  10.753   9.586
84238SOL    HW154488   9.286  10.780   9.666
84238SOL    HW254489   9.190  10.831   9.561
84239SOL     OW54490   5.515  11.519   6.118
84239SOL    HW154491   5.524  11.537   6.211
84239SOL    HW254492   5.432  11.472   6.111
84240SOL     OW54493   8.800  10.717  11.487
84240SOL    HW154494   8.874  10.767  11.521
84240SOL    HW254495   8.832  10.681  11.404
84241SOL     OW54496  10.861   8.278   7.550
84241SOL    HW154497  10.780   8.230   7.565
84241SOL    HW254498  10.929   8.226   7.593
84242SOL     OW54499   8.971   1.678  13.601
84242SOL    HW154500   9.010   1.602  13.558
84242SOL    HW254501   8.907   1.711  13.537
84243SOL     OW54502  14.529   3.406   6.518
84243SOL    HW154503  14.590   3.478   6.502
84243SOL    HW254504  14.583   3.338   6.559
84244SOL     OW54505   4.660   6.921   5.344
84244SOL    HW154506   4.589   6.953   5.399
84244SOL    HW254507   4.680   6.834   5.378
84245SOL     OW54508   6.043   5.946   3.068
84245SOL    HW154509   6.089   5.972   2.988
84245SOL    HW254510   6.029   5.852   3.057
84246SOL     OW54511  13.276  11.623   0.633
84246SOL    HW154512  13.237  11.609   0.546
84246SOL    HW254513  13.248  11.711   0.658
84247SOL     OW54514   5.962   0.372  13.646
84247SOL    HW154515   6.015   0.360  13.567
84247SOL    HW254516   5.913   0.290  13.654
84248SOL     OW54517  13.769  11.587   4.283
84248SOL    HW154518  13.763  11.681   4.267
84248SOL    HW254519  13.860  11.573   4.309
84249SOL     OW54520   4.770  10.125   9.561
84249SOL    HW154521   4.782  10.183   9.636
84249SOL    HW254522   4.852  10.132   9.512
84250SOL     OW54523   5.930  14.416  12.722
84250SOL    HW154524   5.932  14.380  12.633
84250SOL    HW254525   5.997  14.368  12.770
84251SOL     OW54526   7.159   0.425  12.860
84251SOL    HW154527   7.239   0.420  12.807
84251SOL    HW254528   7.140   0.335  12.884
84252SOL     OW54529   3.656   2.106   8.959
84252SOL    HW154530   3.685   2.195   8.938
84252SOL    HW254531   3.565   2.103   8.929
84253SOL     OW54532  10.544  14.250   2.445
84253SOL    HW154533  10.496  14.194   2.505
84253SOL    HW254534  10.522  14.217   2.358
84254SOL     OW54535   2.138   4.298   5.500
84254SOL    HW154536   2.049   4.283   5.534
84254SOL    HW254537   2.178   4.212   5.497
84255SOL     OW54538   4.863   8.480   1.924
84255SOL    HW154539   4.924   8.441   1.986
84255SOL    HW254540   4.813   8.406   1.889
84256SOL     OW54541   4.883  10.591   2.153
84256SOL    HW154542   4.927  10.635   2.079
84256SOL    HW254543   4.954  10.571   2.214
84257SOL     OW54544  14.484   8.397   7.870
84257SOL    HW154545  14.434   8.364   7.945
84257SOL    HW254546  14.468   8.334   7.800
84258SOL     OW54547  13.409  10.915  12.880
84258SOL    HW154548  13.369  10.974  12.944
84258SOL    HW254549  13.461  10.972  12.824
84259SOL     OW54550   2.874  13.921   9.762
84259SOL    HW154551   2.780  13.937   9.755
84259SOL    HW254552   2.902  13.974   9.836
84260SOL     OW54553   0.257   8.330   6.330
84260SOL    HW154554   0.176   8.323   6.380
84260SOL    HW254555   0.287   8.420   6.346
84261SOL     OW54556   2.545  11.254   3.056
84261SOL    HW154557   2.619  11.212   3.100
84261SOL    HW254558   2.529  11.334   3.106
84262SOL     OW54559   2.582   1.051   6.624
84262SOL    HW154560   2.539   0.966   6.614
84262SOL    HW254561   2.669   1.039   6.585
84263SOL     OW54562   1.542   4.805  12.232
84263SOL    HW154563   1.480   4.753  12.180
84263SOL    HW254564   1.611   4.743  12.255
84264SOL     OW54565   8.636   3.696   0.936
84264SOL    HW154566   8.666   3.650   0.858
84264SOL    HW254567   8.675   3.647   1.009
84265SOL     OW54568   0.187   7.770   3.869
84265SOL    HW154569   0.171   7.782   3.962
84265SOL    HW254570   0.236   7.688   3.863
84266SOL     OW54571   6.945   2.653  13.850
84266SOL    HW154572   6.893   2.579  13.818
84266SOL    HW254573   6.899   2.680  13.930
84267SOL     OW54574   6.675   8.313   1.969
84267SOL    HW154575   6.645   8.227   1.999
84267SOL    HW254576   6.628   8.376   2.024
84268SOL     OW54577   8.716   9.929   4.716
84268SOL    HW154578   8.696   9.864   4.783
84268SOL    HW254579   8.706   9.882   4.633
84269SOL     OW54580   7.759  11.466   4.015
84269SOL    HW154581   7.772  11.527   3.942
84269SOL    HW254582   7.772  11.520   4.093
84270SOL     OW54583   3.656  10.171  13.095
84270SOL    HW154584   3.684  10.087  13.059
84270SOL    HW254585   3.690  10.173  13.184
84271SOL     OW54586   6.663  11.480   9.052
84271SOL    HW154587   6.692  11.556   9.102
84271SOL    HW254588   6.615  11.426   9.115
84272SOL     OW54589   3.717   9.922  14.388
84272SOL    HW154590   3.796   9.974  14.401
84272SOL    HW254591   3.646   9.978  14.419
84273SOL     OW54592   2.091   7.647   6.594
84273SOL    HW154593   2.144   7.705   6.539
84273SOL    HW254594   2.100   7.561   6.553
84274SOL     OW54595   3.042   9.749   2.901
84274SOL    HW154596   3.039   9.679   2.966
84274SOL    HW254597   3.078   9.824   2.948
84275SOL     OW54598   0.920  14.851   8.755
84275SOL    HW154599   0.972   0.004   8.827
84275SOL    HW254600   0.833   0.008   8.767
84276SOL     OW54601   1.607   7.384  11.927
84276SOL    HW154602   1.629   7.291  11.935
84276SOL    HW254603   1.567   7.392  11.841
84277SOL     OW54604  13.126  11.256  13.313
84277SOL    HW154605  13.182  11.332  13.331
84277SOL    HW254606  13.045  11.293  13.279
84278SOL     OW54607   9.600   1.226   5.368
84278SOL    HW154608   9.564   1.142   5.397
84278SOL    HW254609   9.654   1.256   5.442
84279SOL     OW54610   9.484   9.299  12.772
84279SOL    HW154611   9.421   9.369  12.751
84279SOL    HW254612   9.432   9.235  12.821
84280SOL     OW54613   8.293   8.720   4.679
84280SOL    HW154614   8.380   8.682   4.686
84280SOL    HW254615   8.248   8.666   4.614
84281SOL     OW54616   7.670  11.980   9.177
84281SOL    HW154617   7.704  12.056   9.224
84281SOL    HW254618   7.705  11.987   9.089
84282SOL     OW54619   4.949   5.522   6.584
84282SOL    HW154620   4.999   5.534   6.665
84282SOL    HW254621   4.860   5.503   6.614
84283SOL     OW54622  14.863   4.228   2.100
84283SOL    HW154623  14.835   4.137   2.098
84283SOL    HW254624   0.072   4.227   2.068
84284SOL     OW54625  12.402   2.911   7.759
84284SOL    HW154626  12.463   2.935   7.829
84284SOL    HW254627  12.336   2.857   7.802
84285SOL     OW54628   0.668  13.282  10.322
84285SOL    HW154629   0.644  13.286  10.229
84285SOL    HW254630   0.739  13.218  10.325
84286SOL     OW54631  14.292   1.308   8.842
84286SOL    HW154632  14.344   1.318   8.762
84286SOL    HW254633  14.326   1.228   8.882
84287SOL     OW54634   5.371   3.970  10.337
84287SOL    HW154635   5.438   4.028  10.374
84287SOL    HW254636   5.314   4.028  10.286
84288SOL     OW54637   7.946  10.088  10.426
84288SOL    HW154638   7.878  10.078  10.360
84288SOL    HW254639   7.898  10.085  10.509
84289SOL     OW54640  12.333   5.031   6.686
84289SOL    HW154641  12.290   4.981   6.755
84289SOL    HW254642  12.359   5.113   6.728
84290SOL     OW54643  14.096   5.404   7.722
84290SOL    HW154644  14.137   5.399   7.808
84290SOL    HW254645  14.148   5.468   7.674
84291SOL     OW54646  13.300   7.232  13.225
84291SOL    HW154647  13.251   7.205  13.303
84291SOL    HW254648  13.355   7.304  13.256
84292SOL     OW54649   0.056  14.676   2.514
84292SOL    HW154650  14.848  14.641   2.519
84292SOL    HW254651   0.048  14.766   2.544
84293SOL     OW54652  14.431   8.946   9.105
84293SOL    HW154653  14.387   8.914   9.184
84293SOL    HW254654  14.494   8.878   9.083
84294SOL     OW54655   5.074  11.936   8.284
84294SOL    HW154656   4.994  11.933   8.336
84294SOL    HW254657   5.126  12.005   8.326
84295SOL     OW54658   4.519   2.565  11.969
84295SOL    HW154659   4.454   2.509  11.926
84295SOL    HW254660   4.598   2.511  11.974
84296SOL     OW54661  14.779   8.709   8.238
84296SOL    HW154662  14.863   8.752   8.256
84296SOL    HW254663  14.714   8.772   8.267
84297SOL     OW54664   5.120   8.079   3.500
84297SOL    HW154665   5.097   7.997   3.458
84297SOL    HW254666   5.088   8.147   3.441
84298SOL     OW54667   7.602   8.893   6.395
84298SOL    HW154668   7.529   8.908   6.456
84298SOL    HW254669   7.680   8.908   6.447
84299SOL     OW54670   2.253   6.017  10.199
84299SOL    HW154671   2.300   5.960  10.138
84299SOL    HW254672   2.171   5.971  10.216
84300SOL     OW54673   0.414   5.866   2.604
84300SOL    HW154674   0.346   5.892   2.542
84300SOL    HW254675   0.496   5.877   2.555
84301SOL     OW54676   9.526   6.258   6.898
84301SOL    HW154677   9.438   6.246   6.932
84301SOL    HW254678   9.529   6.349   6.871
84302SOL     OW54679   9.101   6.872   8.037
84302SOL    HW154680   9.014   6.887   8.075
84302SOL    HW254681   9.153   6.839   8.110
84303SOL     OW54682   8.776   6.566  11.816
84303SOL    HW154683   8.738   6.650  11.790
84303SOL    HW254684   8.818   6.584  11.900
84304SOL     OW54685   2.170   4.594  11.468
84304SOL    HW154686   2.238   4.531  11.493
84304SOL    HW254687   2.088   4.551  11.489
84305SOL     OW54688  11.072  14.171   3.363
84305SOL    HW154689  11.104  14.100   3.419
84305SOL    HW254690  10.978  14.175   3.381
84306SOL     OW54691  12.610   0.045   8.196
84306SOL    HW154692  12.515   0.035   8.183
84306SOL    HW254693  12.631   0.126   8.149
84307SOL     OW54694   7.046  14.812   1.623
84307SOL    HW154695   7.066  14.839   1.533
84307SOL    HW254696   6.961  14.852   1.642
84308SOL     OW54697  11.857   2.913   4.421
84308SOL    HW154698  11.772   2.952   4.404
84308SOL    HW254699  11.838   2.826   4.455
84309SOL     OW54700  14.115  14.391  10.480
84309SOL    HW154701  14.154  14.400  10.567
84309SOL    HW254702  14.131  14.299  10.456
84310SOL     OW54703   7.447   1.237   8.068
84310SOL    HW154704   7.496   1.233   7.986
84310SOL    HW254705   7.355   1.232   8.041
84311SOL     OW54706  14.643   1.644   7.114
84311SOL    HW154707  14.728   1.683   7.098
84311SOL    HW254708  14.580   1.714   7.094
84312SOL     OW54709   9.831  13.099  10.751
84312SOL    HW154710   9.830  13.190  10.723
84312SOL    HW254711   9.919  13.069  10.730
84313SOL     OW54712   2.709   0.211  12.681
84313SOL    HW154713   2.686   0.304  12.684
84313SOL    HW254714   2.803   0.209  12.697
84314SOL     OW54715   8.264   9.021   9.633
84314SOL    HW154716   8.255   9.085   9.562
84314SOL    HW254717   8.327   8.957   9.599
84315SOL     OW54718   3.966   8.055   3.982
84315SOL    HW154719   3.998   8.010   4.060
84315SOL    HW254720   4.009   8.010   3.909
84316SOL     OW54721   0.963   6.683   7.881
84316SOL    HW154722   1.029   6.618   7.857
84316SOL    HW254723   0.976   6.698   7.974
84317SOL     OW54724   4.587   8.847  10.164
84317SOL    HW154725   4.607   8.938  10.187
84317SOL    HW254726   4.673   8.804  10.159
84318SOL     OW54727  10.931   9.235   4.106
84318SOL    HW154728  11.002   9.245   4.042
84318SOL    HW254729  10.860   9.195   4.057
84319SOL     OW54730   2.795   6.372   7.292
84319SOL    HW154731   2.791   6.467   7.286
84319SOL    HW254732   2.747   6.341   7.215
84320SOL     OW54733   9.114   8.742   8.781
84320SOL    HW154734   9.036   8.736   8.727
84320SOL    HW254735   9.143   8.833   8.772
84321SOL     OW54736   1.119  10.253   0.240
84321SOL    HW154737   1.206  10.215   0.227
84321SOL    HW254738   1.064  10.210   0.175
84322SOL     OW54739  11.331  10.551   0.958
84322SOL    HW154740  11.246  10.541   0.916
84322SOL    HW254741  11.389  10.579   0.887
84323SOL     OW54742  10.473   0.935   9.601
84323SOL    HW154743  10.532   0.876   9.648
84323SOL    HW254744  10.531   0.986   9.543
84324SOL     OW54745   3.441  11.697   5.919
84324SOL    HW154746   3.356  11.730   5.951
84324SOL    HW254747   3.434  11.602   5.925
84325SOL     OW54748   4.566   6.859   4.519
84325SOL    HW154749   4.525   6.903   4.593
84325SOL    HW254750   4.495   6.850   4.455
84326SOL     OW54751   6.766   7.042   1.883
84326SOL    HW154752   6.753   7.061   1.976
84326SOL    HW254753   6.800   7.124   1.846
84327SOL     OW54754   9.705  11.777  14.343
84327SOL    HW154755   9.695  11.692  14.298
84327SOL    HW254756   9.663  11.840  14.285
84328SOL     OW54757   7.312  14.593   2.382
84328SOL    HW154758   7.227  14.620   2.348
84328SOL    HW254759   7.350  14.673   2.419
84329SOL     OW54760   7.453   8.874   2.949
84329SOL    HW154761   7.375   8.845   2.900
84329SOL    HW254762   7.446   8.830   3.033
84330SOL     OW54763   9.395   5.500   7.081
84330SOL    HW154764   9.477   5.475   7.038
84330SOL    HW254765   9.344   5.543   7.013
84331SOL     OW54766   3.659   9.452  13.422
84331SOL    HW154767   3.726   9.436  13.489
84331SOL    HW254768   3.679   9.540  13.389
84332SOL     OW54769   6.141  12.590   1.292
84332SOL    HW154770   6.132  12.531   1.367
84332SOL    HW254771   6.216  12.556   1.244
84333SOL     OW54772   3.438  13.147   9.536
84333SOL    HW154773   3.465  13.190   9.455
84333SOL    HW254774   3.382  13.211   9.579
84334SOL     OW54775   7.637  11.006   2.240
84334SOL    HW154776   7.632  10.911   2.233
84334SOL    HW254777   7.707  11.032   2.181
84335SOL     OW54778  13.087  11.675   5.247
84335SOL    HW154779  13.071  11.667   5.153
84335SOL    HW254780  13.001  11.660   5.287
84336SOL     OW54781   7.616   5.607  12.633
84336SOL    HW154782   7.618   5.512  12.642
84336SOL    HW254783   7.532   5.626  12.592
84337SOL     OW54784  13.048   5.464   3.084
84337SOL    HW154785  12.974   5.406   3.096
84337SOL    HW254786  13.076   5.486   3.173
84338SOL     OW54787   8.191   5.757   6.429
84338SOL    HW154788   8.144   5.698   6.370
84338SOL    HW254789   8.152   5.843   6.414
84339SOL     OW54790  10.928   0.662   1.558
84339SOL    HW154791  11.021   0.652   1.578
84339SOL    HW254792  10.902   0.578   1.519
84340SOL     OW54793  13.639   9.563   6.727
84340SOL    HW154794  13.615   9.476   6.696
84340SOL    HW254795  13.666   9.550   6.817
84341SOL     OW54796  13.071  12.907   1.873
84341SOL    HW154797  12.976  12.905   1.865
84341SOL    HW254798  13.088  12.891   1.966
84342SOL     OW54799   9.348   4.801  12.442
84342SOL    HW154800   9.301   4.872  12.486
84342SOL    HW254801   9.414   4.773  12.506
84343SOL     OW54802  13.356   8.714  10.501
84343SOL    HW154803  13.264   8.712  10.525
84343SOL    HW254804  13.366   8.641  10.439
84344SOL     OW54805   0.324  12.965   9.473
84344SOL    HW154806   0.342  12.994   9.383
84344SOL    HW254807   0.260  13.028   9.506
84345SOL     OW54808   5.094  10.532  14.286
84345SOL    HW154809   5.127  10.574  14.206
84345SOL    HW254810   5.022  10.477  14.256
84346SOL     OW54811  12.564   1.853   3.252
84346SOL    HW154812  12.582   1.947   3.263
84346SOL    HW254813  12.650   1.812   3.253
84347SOL     OW54814   8.976   6.687   8.862
84347SOL    HW154815   8.916   6.616   8.886
84347SOL    HW254816   9.062   6.655   8.887
84348SOL     OW54817   2.265   5.846  13.065
84348SOL    HW154818   2.271   5.848  12.969
84348SOL    HW254819   2.321   5.773  13.091
84349SOL     OW54820   7.316   5.908   1.072
84349SOL    HW154821   7.266   5.891   1.152
84349SOL    HW254822   7.361   5.991   1.088
84350SOL     OW54823   5.821   0.974  10.613
84350SOL    HW154824   5.858   0.927  10.538
84350SOL    HW254825   5.840   1.066  10.596
84351SOL     OW54826   3.029   5.184  12.480
84351SOL    HW154827   2.952   5.237  12.460
84351SOL    HW254828   3.071   5.229  12.553
84352SOL     OW54829   6.648  12.676   4.443
84352SOL    HW154830   6.634  12.586   4.472
84352SOL    HW254831   6.591  12.729   4.498
84353SOL     OW54832   1.834  11.055   7.521
84353SOL    HW154833   1.917  11.086   7.556
84353SOL    HW254834   1.847  10.962   7.503
84354SOL     OW54835   6.914   5.959   2.346
84354SOL    HW154836   6.890   5.896   2.277
84354SOL    HW254837   6.886   6.043   2.310
84355SOL     OW54838  10.430   3.722  11.161
84355SOL    HW154839  10.436   3.633  11.126
84355SOL    HW254840  10.398   3.775  11.088
84356SOL     OW54841   2.600   2.631  14.063
84356SOL    HW154842   2.629   2.541  14.077
84356SOL    HW254843   2.643   2.658  13.982
84357SOL     OW54844   2.609   1.339   4.475
84357SOL    HW154845   2.531   1.286   4.458
84357SOL    HW254846   2.580   1.405   4.538
84358SOL     OW54847   9.307  12.749  11.509
84358SOL    HW154848   9.367  12.823  11.524
84358SOL    HW254849   9.247  12.781  11.442
84359SOL     OW54850   5.902  11.650   4.394
84359SOL    HW154851   5.962  11.619   4.461
84359SOL    HW254852   5.900  11.745   4.404
84360SOL     OW54853   8.213  13.297   7.404
84360SOL    HW154854   8.158  13.363   7.362
84360SOL    HW254855   8.302  13.327   7.387
84361SOL     OW54856   7.541  12.575   0.273
84361SOL    HW154857   7.503  12.599   0.188
84361SOL    HW254858   7.499  12.635   0.335
84362SOL     OW54859   4.385  10.189   8.386
84362SOL    HW154860   4.373  10.282   8.405
84362SOL    HW254861   4.460  10.164   8.440
84363SOL     OW54862   8.751   6.354   6.614
84363SOL    HW154863   8.822   6.370   6.552
84363SOL    HW254864   8.783   6.283   6.670
84364SOL     OW54865  10.324   5.607   1.781
84364SOL    HW154866  10.267   5.680   1.807
84364SOL    HW254867  10.264   5.538   1.756
84365SOL     OW54868   4.392  10.268   1.525
84365SOL    HW154869   4.353  10.334   1.468
84365SOL    HW254870   4.322  10.242   1.584
84366SOL     OW54871   0.363  10.476  13.200
84366SOL    HW154872   0.411  10.533  13.260
84366SOL    HW254873   0.278  10.519  13.189
84367SOL     OW54874   1.520   8.728   5.631
84367SOL    HW154875   1.462   8.805   5.631
84367SOL    HW254876   1.608   8.764   5.642
84368SOL     OW54877   3.181   2.191  11.158
84368SOL    HW154878   3.206   2.267  11.106
84368SOL    HW254879   3.264   2.151  11.184
84369SOL     OW54880  12.048  10.781   4.371
84369SOL    HW154881  12.086  10.694   4.386
84369SOL    HW254882  11.954  10.765   4.370
84370SOL     OW54883   6.881   1.050   0.998
84370SOL    HW154884   6.960   1.025   1.046
84370SOL    HW254885   6.826   1.094   1.064
84371SOL     OW54886  14.716   7.100   0.259
84371SOL    HW154887  14.646   7.122   0.321
84371SOL    HW254888  14.796   7.103   0.311
84372SOL     OW54889  13.857   1.843   0.478
84372SOL    HW154890  13.910   1.898   0.421
84372SOL    HW254891  13.853   1.891   0.561
84373SOL     OW54892   5.879   6.966   9.401
84373SOL    HW154893   5.939   6.912   9.350
84373SOL    HW254894   5.892   7.055   9.368
84374SOL     OW54895  12.468  11.100  11.623
84374SOL    HW154896  12.407  11.158  11.577
84374SOL    HW254897  12.464  11.129  11.714
84375SOL     OW54898   2.437  14.397  12.662
84375SOL    HW154899   2.432  14.381  12.757
84375SOL    HW254900   2.347  14.418  12.637
84376SOL     OW54901  14.820  10.214   5.472
84376SOL    HW154902  14.775  10.296   5.492
84376SOL    HW254903  14.788  10.152   5.537
84377SOL     OW54904   2.833   6.541  13.066
84377SOL    HW154905   2.887   6.462  13.076
84377SOL    HW254906   2.831   6.556  12.971
84378SOL     OW54907   7.855  10.236  11.914
84378SOL    HW154908   7.859  10.281  11.998
84378SOL    HW254909   7.808  10.297  11.856
84379SOL     OW54910   8.456  10.165   4.991
84379SOL    HW154911   8.490  10.156   5.080
84379SOL    HW254912   8.365  10.192   5.002
84380SOL     OW54913   7.806  12.802  12.820
84380SOL    HW154914   7.887  12.757  12.844
84380SOL    HW254915   7.741  12.733  12.812
84381SOL     OW54916   1.070   1.657  11.851
84381SOL    HW154917   1.103   1.742  11.822
84381SOL    HW254918   1.149   1.608  11.877
84382SOL     OW54919   3.218   7.687  11.732
84382SOL    HW154920   3.301   7.642  11.717
84382SOL    HW254921   3.162   7.621  11.773
84383SOL     OW54922  14.837   4.358   6.354
84383SOL    HW154923  14.849   4.295   6.283
84383SOL    HW254924  14.776   4.315   6.414
84384SOL     OW54925   6.430   9.928   0.024
84384SOL    HW154926   6.505   9.868   0.015
84384SOL    HW254927   6.374   9.908  14.831
84385SOL     OW54928   0.248   7.451   4.331
84385SOL    HW154929   0.224   7.413   4.246
84385SOL    HW254930   0.177   7.425   4.389
84386SOL     OW54931   3.926   6.316  12.049
84386SOL    HW154932   3.840   6.294  12.014
84386SOL    HW254933   3.931   6.412  12.043
84387SOL     OW54934  10.139  11.322  12.736
84387SOL    HW154935  10.218  11.272  12.757
84387SOL    HW254936  10.101  11.343  12.821
84388SOL     OW54937  13.449   8.676   3.627
84388SOL    HW154938  13.449   8.749   3.565
84388SOL    HW254939  13.500   8.608   3.583
84389SOL     OW54940   7.152  14.030   6.316
84389SOL    HW154941   7.117  14.054   6.230
84389SOL    HW254942   7.112  13.946   6.336
84390SOL     OW54943  14.854  12.784   3.600
84390SOL    HW154944  14.824  12.852   3.539
84390SOL    HW254945  14.776  12.763   3.652
84391SOL     OW54946   9.946   2.806  13.183
84391SOL    HW154947   9.892   2.845  13.114
84391SOL    HW254948   9.894   2.818  13.263
84392SOL     OW54949  14.513  11.844   8.195
84392SOL    HW154950  14.555  11.845   8.109
84392SOL    HW254951  14.576  11.888   8.253
84393SOL     OW54952   1.023  14.235   0.415
84393SOL    HW154953   1.076  14.242   0.335
84393SOL    HW254954   1.080  14.269   0.484
84394SOL     OW54955   7.317   0.154   1.519
84394SOL    HW154956   7.339   0.061   1.521
84394SOL    HW254957   7.401   0.199   1.515
84395SOL     OW54958   7.767   1.562   0.963
84395SOL    HW154959   7.728   1.478   0.988
84395SOL    HW254960   7.701   1.627   0.985
84396SOL     OW54961   9.925   6.582   7.618
84396SOL    HW154962   9.912   6.615   7.707
84396SOL    HW254963   9.852   6.521   7.605
84397SOL     OW54964   6.517  10.621   7.073
84397SOL    HW154965   6.524  10.575   6.989
84397SOL    HW254966   6.503  10.551   7.138
84398SOL     OW54967   8.801  11.326   2.776
84398SOL    HW154968   8.768  11.401   2.826
84398SOL    HW254969   8.896  11.330   2.787
84399SOL     OW54970   4.516  12.579   9.419
84399SOL    HW154971   4.430  12.583   9.460
84399SOL    HW254972   4.518  12.652   9.358
84400SOL     OW54973   1.423   1.157   8.336
84400SOL    HW154974   1.337   1.142   8.376
84400SOL    HW254975   1.451   1.242   8.369
84401SOL     OW54976   0.447   1.566   6.314
84401SOL    HW154977   0.468   1.523   6.231
84401SOL    HW254978   0.478   1.656   6.303
84402SOL     OW54979  14.089   7.182   8.702
84402SOL    HW154980  14.036   7.125   8.758
84402SOL    HW254981  14.159   7.125   8.669
84403SOL     OW54982   1.818   2.307   4.041
84403SOL    HW154983   1.873   2.311   4.119
84403SOL    HW254984   1.834   2.391   3.997
84404SOL     OW54985  14.629   5.910  10.616
84404SOL    HW154986  14.673   5.881  10.537
84404SOL    HW254987  14.548   5.951  10.586
84405SOL     OW54988  11.158   8.695  14.310
84405SOL    HW154989  11.202   8.712  14.227
84405SOL    HW254990  11.227   8.699  14.375
84406SOL     OW54991  13.590   8.091   8.152
84406SOL    HW154992  13.642   8.169   8.131
84406SOL    HW254993  13.591   8.039   8.071
84407SOL     OW54994  12.737  12.932   2.837
84407SOL    HW154995  12.722  12.986   2.760
84407SOL    HW254996  12.676  12.966   2.903
84408SOL     OW54997   5.489  12.946  14.665
84408SOL    HW154998   5.546  12.944  14.588
84408SOL    HW254999   5.544  12.982  14.735
84409SOL     OW55000   3.764   9.766  10.078
84409SOL    HW155001   3.734   9.839  10.023
84409SOL    HW255002   3.698   9.698  10.065
84410SOL     OW55003  10.957   3.597   3.819
84410SOL    HW155004  10.869   3.590   3.780
84410SOL    HW255005  10.979   3.690   3.810
84411SOL     OW55006  13.164  13.575   8.778
84411SOL    HW155007  13.227  13.626   8.828
84411SOL    HW255008  13.190  13.588   8.687
84412SOL     OW55009   7.455  12.673   6.002
84412SOL    HW155010   7.488  12.733   5.935
84412SOL    HW255011   7.435  12.592   5.954
84413SOL     OW55012  14.490  12.909  12.833
84413SOL    HW155013  14.489  12.852  12.756
84413SOL    HW255014  14.576  12.893  12.873
84414SOL     OW55015  13.317   9.253  10.333
84414SOL    HW155016  13.245   9.205  10.293
84414SOL    HW255017  13.371   9.281  10.259
84415SOL     OW55018   6.877   4.006   6.912
84415SOL    HW155019   6.896   3.914   6.930
84415SOL    HW255020   6.783   4.009   6.894
84416SOL     OW55021  12.297  13.634   7.588
84416SOL    HW155022  12.361  13.600   7.526
84416SOL    HW255023  12.218  13.649   7.535
84417SOL     OW55024  13.423   1.966  10.660
84417SOL    HW155025  13.419   2.061  10.671
84417SOL    HW255026  13.517   1.946  10.653
84418SOL     OW55027  11.893  10.840   5.736
84418SOL    HW155028  11.941  10.759   5.754
84418SOL    HW255029  11.930  10.904   5.797
84419SOL     OW55030  11.217   7.107  11.769
84419SOL    HW155031  11.139   7.053  11.761
84419SOL    HW255032  11.191   7.192  11.735
84420SOL     OW55033   2.654   5.285   8.927
84420SOL    HW155034   2.653   5.276   8.832
84420SOL    HW255035   2.607   5.209   8.960
84421SOL     OW55036   8.694   3.801   2.041
84421SOL    HW155037   8.735   3.865   2.099
84421SOL    HW255038   8.760   3.733   2.030
84422SOL     OW55039  12.737  10.450  13.489
84422SOL    HW155040  12.739  10.518  13.557
84422SOL    HW255041  12.751  10.498  13.408
84423SOL     OW55042   4.447   3.268   2.338
84423SOL    HW155043   4.438   3.356   2.375
84423SOL    HW255044   4.372   3.260   2.280
84424SOL     OW55045   7.127   8.316   4.027
84424SOL    HW155046   7.176   8.320   4.109
84424SOL    HW255047   7.067   8.391   4.031
84425SOL     OW55048  11.581  11.399   3.492
84425SOL    HW155049  11.669  11.437   3.500
84425SOL    HW255050  11.590  11.333   3.423
84426SOL     OW55051  11.082   1.480  14.138
84426SOL    HW155052  11.150   1.547  14.134
84426SOL    HW255053  11.098   1.434  14.220
84427SOL     OW55054   8.131  10.713   4.983
84427SOL    HW155055   8.180  10.762   5.049
84427SOL    HW255056   8.185  10.636   4.966
84428SOL     OW55057  13.296   0.645   8.150
84428SOL    HW155058  13.262   0.656   8.061
84428SOL    HW255059  13.385   0.611   8.138
84429SOL     OW55060   7.511  10.973  14.182
84429SOL    HW155061   7.443  10.907  14.197
84429SOL    HW255062   7.546  10.991  14.269
84430SOL     OW55063  13.804  11.847   4.996
84430SOL    HW155064  13.742  11.777   5.019
84430SOL    HW255065  13.830  11.885   5.081
84431SOL     OW55066  10.817   8.186  12.343
84431SOL    HW155067  10.802   8.100  12.382
84431SOL    HW255068  10.898   8.177  12.294
84432SOL     OW55069  13.296   5.598   1.812
84432SOL    HW155070  13.224   5.587   1.750
84432SOL    HW255071  13.257   5.581   1.898
84433SOL     OW55072   0.643   0.718   2.284
84433SOL    HW155073   0.642   0.795   2.226
84433SOL    HW255074   0.556   0.679   2.273
84434SOL     OW55075  11.184   9.840  10.101
84434SOL    HW155076  11.164   9.898  10.175
84434SOL    HW255077  11.186   9.898  10.025
84435SOL     OW55078   7.831   0.234   0.526
84435SOL    HW155079   7.823   0.311   0.581
84435SOL    HW255080   7.743   0.197   0.522
84436SOL     OW55081   1.211   9.969   2.518
84436SOL    HW155082   1.290   9.916   2.529
84436SOL    HW255083   1.239  10.044   2.465
84437SOL     OW55084   9.048  11.708  11.376
84437SOL    HW155085   8.991  11.632  11.366
84437SOL    HW255086   9.112  11.682  11.443
84438SOL     OW55087   1.622   9.217   4.026
84438SOL    HW155088   1.642   9.156   3.955
84438SOL    HW255089   1.596   9.298   3.981
84439SOL     OW55090   9.472  13.827  10.251
84439SOL    HW155091   9.453  13.846  10.342
84439SOL    HW255092   9.502  13.910  10.214
84440SOL     OW55093   6.500  13.941   5.276
84440SOL    HW155094   6.533  13.978   5.358
84440SOL    HW255095   6.408  13.969   5.273
84441SOL     OW55096  12.662   2.597  12.726
84441SOL    HW155097  12.677   2.678  12.677
84441SOL    HW255098  12.576   2.567  12.698
84442SOL     OW55099  12.650   4.365  13.536
84442SOL    HW155100  12.696   4.356  13.452
84442SOL    HW255101  12.661   4.280  13.579
84443SOL     OW55102   7.762   2.554   8.684
84443SOL    HW155103   7.856   2.536   8.688
84443SOL    HW255104   7.753   2.625   8.622
84444SOL     OW55105   7.885   2.554  11.991
84444SOL    HW155106   7.875   2.633  12.045
84444SOL    HW255107   7.959   2.573  11.934
84445SOL     OW55108   8.969   8.033   4.560
84445SOL    HW155109   8.885   8.043   4.515
84445SOL    HW255110   8.946   8.028   4.653
84446SOL     OW55111   7.847   0.361  12.040
84446SOL    HW155112   7.831   0.278  12.085
84446SOL    HW255113   7.795   0.356  11.960
84447SOL     OW55114   1.316   2.385  11.440
84447SOL    HW155115   1.377   2.332  11.390
84447SOL    HW255116   1.313   2.469  11.393
84448SOL     OW55117   7.396   3.297   8.708
84448SOL    HW155118   7.480   3.315   8.666
84448SOL    HW255119   7.408   3.213   8.752
84449SOL     OW55120   2.918  11.392   8.665
84449SOL    HW155121   2.915  11.300   8.638
84449SOL    HW255122   2.978  11.394   8.739
84450SOL     OW55123   1.474   5.850   6.278
84450SOL    HW155124   1.414   5.797   6.226
84450SOL    HW255125   1.440   5.842   6.367
84451SOL     OW55126  11.401   7.924   4.146
84451SOL    HW155127  11.392   7.923   4.050
84451SOL    HW255128  11.440   7.839   4.166
84452SOL     OW55129  11.572   5.126   9.893
84452SOL    HW155130  11.519   5.206   9.890
84452SOL    HW255131  11.512   5.060   9.927
84453SOL     OW55132   0.674   1.909  11.938
84453SOL    HW155133   0.726   1.829  11.946
84453SOL    HW255134   0.687   1.955  12.021
84454SOL     OW55135   0.482  13.758   5.244
84454SOL    HW155136   0.508  13.723   5.329
84454SOL    HW255137   0.431  13.836   5.264
84455SOL     OW55138   4.887   3.287   2.221
84455SOL    HW155139   4.827   3.238   2.278
84455SOL    HW255140   4.830   3.348   2.174
84456SOL     OW55141   5.770  14.052   7.478
84456SOL    HW155142   5.779  13.969   7.525
84456SOL    HW255143   5.746  14.115   7.545
84457SOL     OW55144   1.589   9.986   6.839
84457SOL    HW155145   1.653  10.004   6.770
84457SOL    HW255146   1.636  10.003   6.920
84458SOL     OW55147   5.102   4.630   8.338
84458SOL    HW155148   5.093   4.682   8.417
84458SOL    HW255149   5.121   4.541   8.369
84459SOL     OW55150   6.038   0.447  12.493
84459SOL    HW155151   5.953   0.489  12.481
84459SOL    HW255152   6.048   0.440  12.588
84460SOL     OW55153   9.052   3.861   0.492
84460SOL    HW155154   9.039   3.819   0.577
84460SOL    HW255155   8.966   3.857   0.450
84461SOL     OW55156   0.185   7.848  10.989
84461SOL    HW155157   0.209   7.940  10.994
84461SOL    HW255158   0.265   7.801  11.015
84462SOL     OW55159   3.603  11.349   5.292
84462SOL    HW155160   3.587  11.256   5.310
84462SOL    HW255161   3.521  11.392   5.316
84463SOL     OW55162  13.019   1.940   7.131
84463SOL    HW155163  12.948   1.973   7.076
84463SOL    HW255164  13.094   1.935   7.072
84464SOL     OW55165  11.992   3.278  14.312
84464SOL    HW155166  11.981   3.372  14.330
84464SOL    HW255167  11.975   3.236  14.397
84465SOL     OW55168  13.528   5.213   7.138
84465SOL    HW155169  13.562   5.298   7.112
84465SOL    HW255170  13.542   5.209   7.233
84466SOL     OW55171   5.503  14.604   3.013
84466SOL    HW155172   5.469  14.524   2.972
84466SOL    HW255173   5.487  14.672   2.947
84467SOL     OW55174   3.231   3.693   6.789
84467SOL    HW155175   3.261   3.646   6.866
84467SOL    HW255176   3.262   3.642   6.715
84468SOL     OW55177  11.906  10.641  10.557
84468SOL    HW155178  11.953  10.705  10.504
84468SOL    HW255179  11.845  10.693  10.610
84469SOL     OW55180   1.506  13.321  14.647
84469SOL    HW155181   1.460  13.263  14.707
84469SOL    HW255182   1.437  13.376  14.610
84470SOL     OW55183   5.039  12.268  13.620
84470SOL    HW155184   5.110  12.316  13.576
84470SOL    HW255185   4.959  12.310  13.589
84471SOL     OW55186   8.274   3.110   2.434
84471SOL    HW155187   8.254   3.033   2.382
84471SOL    HW255188   8.202   3.171   2.416
84472SOL     OW55189  10.854  13.742  11.857
84472SOL    HW155190  10.774  13.698  11.885
84472SOL    HW255191  10.832  13.835  11.857
84473SOL     OW55192  10.466   3.755   3.546
84473SOL    HW155193  10.443   3.681   3.489
84473SOL    HW255194  10.436   3.728   3.633
84474SOL     OW55195   3.435   5.905   1.017
84474SOL    HW155196   3.474   5.991   1.033
84474SOL    HW255197   3.372   5.921   0.946
84475SOL     OW55198   4.914   6.109   5.787
84475SOL    HW155199   4.991   6.166   5.779
84475SOL    HW255200   4.873   6.112   5.701
84476SOL     OW55201   1.794   1.865  11.900
84476SOL    HW155202   1.788   1.864  11.996
84476SOL    HW255203   1.711   1.827  11.871
84477SOL     OW55204   3.989   9.104   0.404
84477SOL    HW155205   4.065   9.054   0.372
84477SOL    HW255206   4.026   9.160   0.473
84478SOL     OW55207   9.589   5.472   9.688
84478SOL    HW155208   9.577   5.455   9.594
84478SOL    HW255209   9.513   5.431   9.729
84479SOL     OW55210   6.738   0.540   1.891
84479SOL    HW155211   6.691   0.599   1.832
84479SOL    HW255212   6.750   0.460   1.840
84480SOL     OW55213  14.650   6.048   1.027
84480SOL    HW155214  14.634   6.087   0.941
84480SOL    HW255215  14.732   6.088   1.057
84481SOL     OW55216   6.761  12.347   7.860
84481SOL    HW155217   6.674  12.324   7.895
84481SOL    HW255218   6.819  12.339   7.935
84482SOL     OW55219  13.316  11.431   7.850
84482SOL    HW155220  13.402  11.410   7.813
84482SOL    HW255221  13.256  11.427   7.776
84483SOL     OW55222   7.786  14.340   3.781
84483SOL    HW155223   7.723  14.352   3.711
84483SOL    HW255224   7.865  14.386   3.751
84484SOL     OW55225  14.036   0.711   4.156
84484SOL    HW155226  14.085   0.789   4.129
84484SOL    HW255227  14.082   0.638   4.116
84485SOL     OW55228  12.103   9.441   1.054
84485SOL    HW155229  12.063   9.407   0.973
84485SOL    HW255230  12.046   9.514   1.080
84486SOL     OW55231   9.191   2.021  12.927
84486SOL    HW155232   9.139   1.941  12.935
84486SOL    HW255233   9.130   2.086  12.891
84487SOL     OW55234   9.361   4.248   9.858
84487SOL    HW155235   9.455   4.234   9.856
84487SOL    HW255236   9.347   4.311   9.929
84488SOL     OW55237   7.340   2.879   8.680
84488SOL    HW155238   7.355   2.836   8.595
84488SOL    HW255239   7.409   2.845   8.737
84489SOL     OW55240  14.875   8.503   8.377
84489SOL    HW155241  14.821   8.578   8.352
84489SOL    HW255242  14.828   8.464   8.450
84490SOL     OW55243   9.302   8.077  12.885
84490SOL    HW155244   9.321   7.984  12.874
84490SOL    HW255245   9.210   8.080  12.911
84491SOL     OW55246   6.901   5.496   7.850
84491SOL    HW155247   6.904   5.564   7.918
84491SOL    HW255248   6.987   5.455   7.853
84492SOL     OW55249  14.423  12.316   6.979
84492SOL    HW155250  14.352  12.355   7.031
84492SOL    HW255251  14.378  12.260   6.916
84493SOL     OW55252  10.155   7.581   5.589
84493SOL    HW155253  10.095   7.555   5.519
84493SOL    HW255254  10.100   7.586   5.667
84494SOL     OW55255   5.075  11.059   1.636
84494SOL    HW155256   5.164  11.058   1.603
84494SOL    HW255257   5.080  11.014   1.721
84495SOL     OW55258   6.587  14.594   4.604
84495SOL    HW155259   6.562  14.618   4.515
84495SOL    HW255260   6.656  14.528   4.593
84496SOL     OW55261   8.688  12.673   3.180
84496SOL    HW155262   8.676  12.602   3.117
84496SOL    HW255263   8.758  12.643   3.238
84497SOL     OW55264   8.699  10.382   3.317
84497SOL    HW155265   8.784  10.340   3.302
84497SOL    HW255266   8.635  10.313   3.299
84498SOL     OW55267  11.530  13.448   8.929
84498SOL    HW155268  11.459  13.393   8.962
84498SOL    HW255269  11.607  13.391   8.930
84499SOL     OW55270   9.126  11.909   1.565
84499SOL    HW155271   9.220  11.928   1.573
84499SOL    HW255272   9.083  11.992   1.584
84500SOL     OW55273   4.106   3.063   2.667
84500SOL    HW155274   4.194   3.026   2.665
84500SOL    HW255275   4.055   3.010   2.606
84501SOL     OW55276   3.107   6.618  13.372
84501SOL    HW155277   3.172   6.585  13.310
84501SOL    HW255278   3.085   6.542  13.426
84502SOL     OW55279   4.607   9.388   0.079
84502SOL    HW155280   4.592   9.393  14.866
84502SOL    HW255281   4.685   9.442   0.093
84503SOL     OW55282   4.126   3.260   5.404
84503SOL    HW155283   4.166   3.310   5.332
84503SOL    HW255284   4.200   3.235   5.460
84504SOL     OW55285   7.362   1.876   3.424
84504SOL    HW155286   7.323   1.959   3.396
84504SOL    HW255287   7.290   1.830   3.467
84505SOL     OW55288   1.677   4.262  14.436
84505SOL    HW155289   1.634   4.211  14.504
84505SOL    HW255290   1.609   4.321  14.402
84506SOL     OW55291   8.269   3.056   8.995
84506SOL    HW155292   8.350   3.053   9.046
84506SOL    HW255293   8.297   3.036   8.905
84507SOL     OW55294   7.450   8.867   2.162
84507SOL    HW155295   7.512   8.818   2.216
84507SOL    HW255296   7.413   8.802   2.102
84508SOL     OW55297   9.723   4.248  12.650
84508SOL    HW155298   9.683   4.232  12.736
84508SOL    HW255299   9.648   4.251  12.590
84509SOL     OW55300   0.725   0.667   5.629
84509SOL    HW155301   0.791   0.732   5.654
84509SOL    HW255302   0.771   0.583   5.635
84510SOL     OW55303  11.883  13.834   3.955
84510SOL    HW155304  11.798  13.807   3.921
84510SOL    HW255305  11.878  13.815   4.049
84511SOL     OW55306   7.723  10.989   5.561
84511SOL    HW155307   7.661  10.990   5.634
84511SOL    HW255308   7.676  10.942   5.491
84512SOL     OW55309   8.446   2.746  10.696
84512SOL    HW155310   8.430   2.792  10.779
84512SOL    HW255311   8.364   2.756  10.647
84513SOL     OW55312   8.393  14.574   7.188
84513SOL    HW155313   8.302  14.593   7.214
84513SOL    HW255314   8.402  14.480   7.200
84514SOL     OW55315   7.884   5.956   5.770
84514SOL    HW155316   7.927   5.983   5.851
84514SOL    HW255317   7.837   5.876   5.793
84515SOL     OW55318   5.219   8.676   0.437
84515SOL    HW155319   5.226   8.725   0.355
84515SOL    HW255320   5.277   8.601   0.426
84516SOL     OW55321  12.944  12.488  13.631
84516SOL    HW155322  12.939  12.413  13.572
84516SOL    HW255323  13.037  12.511  13.634
84517SOL     OW55324  14.035   5.091   9.934
84517SOL    HW155325  14.048   5.011   9.985
84517SOL    HW255326  13.940   5.104   9.933
84518SOL     OW55327   5.247  10.023   0.352
84518SOL    HW155328   5.294  10.106   0.341
84518SOL    HW255329   5.165  10.036   0.305
84519SOL     OW55330   4.464   2.547   9.271
84519SOL    HW155331   4.555   2.519   9.263
84519SOL    HW255332   4.443   2.535   9.364
84520SOL     OW55333  11.922   3.576   6.397
84520SOL    HW155334  12.000   3.522   6.383
84520SOL    HW255335  11.919   3.590   6.492
84521SOL     OW55336   8.282   6.732  12.410
84521SOL    HW155337   8.294   6.659  12.349
84521SOL    HW255338   8.320   6.701  12.492
84522SOL     OW55339  11.113   7.702   0.801
84522SOL    HW155340  11.189   7.751   0.772
84522SOL    HW255341  11.038   7.748   0.762
84523SOL     OW55342  13.653   9.190   6.018
84523SOL    HW155343  13.715   9.225   6.082
84523SOL    HW255344  13.662   9.246   5.941
84524SOL     OW55345   9.395  13.383   4.410
84524SOL    HW155346   9.461  13.317   4.387
84524SOL    HW255347   9.373  13.364   4.501
84525SOL     OW55348   6.346   5.175  13.781
84525SOL    HW155349   6.265   5.170  13.833
84525SOL    HW255350   6.404   5.230  13.833
84526SOL     OW55351   8.955   1.287   6.806
84526SOL    HW155352   8.910   1.302   6.723
84526SOL    HW255353   9.047   1.277   6.782
84527SOL     OW55354   2.351  12.521  11.509
84527SOL    HW155355   2.393  12.559  11.432
84527SOL    HW255356   2.259  12.513  11.483
84528SOL     OW55357   7.759   2.176  13.559
84528SOL    HW155358   7.693   2.110  13.538
84528SOL    HW255359   7.768   2.227  13.478
84529SOL     OW55360  10.372   4.058   6.540
84529SOL    HW155361  10.460   4.034   6.511
84529SOL    HW255362  10.385   4.133   6.598
84530SOL     OW55363  13.594  10.570  10.522
84530SOL    HW155364  13.666  10.561  10.459
84530SOL    HW255365  13.516  10.546  10.472
84531SOL     OW55366  12.076   2.855  10.414
84531SOL    HW155367  11.984   2.858  10.442
84531SOL    HW255368  12.076   2.894  10.327
84532SOL     OW55369  10.337   0.265   0.354
84532SOL    HW155370  10.253   0.305   0.378
84532SOL    HW255371  10.321   0.171   0.363
84533SOL     OW55372  10.698  12.923   8.316
84533SOL    HW155373  10.696  12.852   8.380
84533SOL    HW255374  10.612  12.921   8.275
84534SOL     OW55375  12.640   7.511   7.719
84534SOL    HW155376  12.571   7.472   7.774
84534SOL    HW255377  12.720   7.504   7.772
84535SOL     OW55378   3.215   6.233   6.980
84535SOL    HW155379   3.284   6.241   6.914
84535SOL    HW255380   3.169   6.317   6.976
84536SOL     OW55381  14.383  14.801  13.942
84536SOL    HW155382  14.331  14.722  13.949
84536SOL    HW255383  14.340  14.853  13.874
84537SOL     OW55384  13.097   2.275   2.253
84537SOL    HW155385  13.059   2.340   2.311
84537SOL    HW255386  13.086   2.192   2.299
84538SOL     OW55387   2.337   0.855   0.207
84538SOL    HW155388   2.272   0.866   0.137
84538SOL    HW255389   2.379   0.771   0.187
84539SOL     OW55390  12.442   2.090   0.958
84539SOL    HW155391  12.537   2.086   0.957
84539SOL    HW255392  12.415   2.049   0.876
84540SOL     OW55393   5.313  14.060  10.645
84540SOL    HW155394   5.278  14.107  10.569
84540SOL    HW255395   5.406  14.083  10.646
84541SOL     OW55396   3.436   4.850   6.077
84541SOL    HW155397   3.415   4.770   6.125
84541SOL    HW255398   3.504   4.891   6.130
84542SOL     OW55399   4.434  13.539  11.064
84542SOL    HW155400   4.377  13.595  11.012
84542SOL    HW255401   4.400  13.451  11.050
84543SOL     OW55402   2.072   1.187   5.879
84543SOL    HW155403   2.105   1.233   5.802
84543SOL    HW255404   1.990   1.231   5.900
84544SOL     OW55405   0.300   2.585  12.838
84544SOL    HW155406   0.228   2.641  12.866
84544SOL    HW255407   0.259   2.502  12.812
84545SOL     OW55408   4.724   2.329   8.382
84545SOL    HW155409   4.788   2.261   8.403
84545SOL    HW255410   4.737   2.346   8.289
84546SOL     OW55411  14.794   4.142   8.094
84546SOL    HW155412  14.785   4.204   8.166
84546SOL    HW255413  14.842   4.191   8.026
84547SOL     OW55414   3.844  10.160   7.900
84547SOL    HW155415   3.890  10.157   7.984
84547SOL    HW255416   3.825  10.068   7.880
84548SOL     OW55417   3.680  13.604  14.786
84548SOL    HW155418   3.613  13.621  14.852
84548SOL    HW255419   3.746  13.552  14.832
84549SOL     OW55420  10.830   6.573   8.841
84549SOL    HW155421  10.829   6.651   8.897
84549SOL    HW255422  10.869   6.603   8.759
84550SOL     OW55423   8.405  14.502   1.971
84550SOL    HW155424   8.383  14.585   2.013
84550SOL    HW255425   8.369  14.435   2.029
84551SOL     OW55426   6.264   8.451   5.197
84551SOL    HW155427   6.169   8.440   5.189
84551SOL    HW255428   6.288   8.506   5.123
84552SOL     OW55429   5.803   7.985   7.059
84552SOL    HW155430   5.855   7.942   7.127
84552SOL    HW255431   5.867   8.035   7.008
84553SOL     OW55432   0.176  12.102  13.157
84553SOL    HW155433   0.224  12.183  13.175
84553SOL    HW255434   0.233  12.033  13.192
84554SOL     OW55435  13.622   5.253  10.198
84554SOL    HW155436  13.616   5.304  10.117
84554SOL    HW255437  13.705   5.207  10.192
84555SOL     OW55438   5.674   1.809  11.056
84555SOL    HW155439   5.649   1.803  11.148
84555SOL    HW255440   5.769   1.822  11.057
84556SOL     OW55441   6.802   4.388   0.506
84556SOL    HW155442   6.719   4.376   0.460
84556SOL    HW255443   6.868   4.356   0.445
84557SOL     OW55444   6.136   7.197   5.949
84557SOL    HW155445   6.103   7.286   5.938
84557SOL    HW255446   6.167   7.193   6.039
84558SOL     OW55447  11.462   8.957   4.988
84558SOL    HW155448  11.444   8.865   4.970
84558SOL    HW255449  11.500   8.991   4.907
84559SOL     OW55450   9.763   7.574  12.417
84559SOL    HW155451   9.700   7.631  12.461
84559SOL    HW255452   9.723   7.554  12.333
84560SOL     OW55453  13.132   3.030  10.774
84560SOL    HW155454  13.043   3.061  10.758
84560SOL    HW255455  13.122   2.961  10.840
84561SOL     OW55456  11.082   3.432   0.961
84561SOL    HW155457  11.146   3.375   1.004
84561SOL    HW255458  11.102   3.426   0.868
84562SOL     OW55459  11.450   1.687   9.956
84562SOL    HW155460  11.448   1.726   9.869
84562SOL    HW255461  11.527   1.726   9.998
84563SOL     OW55462   2.934   7.089   9.974
84563SOL    HW155463   3.000   7.132  10.030
84563SOL    HW255464   2.957   6.996   9.978
84564SOL     OW55465  13.010  13.229   2.946
84564SOL    HW155466  13.101  13.205   2.930
84564SOL    HW255467  12.967  13.146   2.968
84565SOL     OW55468   0.828   1.979  13.443
84565SOL    HW155469   0.803   1.911  13.381
84565SOL    HW255470   0.748   2.032  13.455
84566SOL     OW55471   7.774   2.701   0.110
84566SOL    HW155472   7.759   2.629   0.171
84566SOL    HW255473   7.846   2.671   0.055
84567SOL     OW55474   6.609   7.888   6.399
84567SOL    HW155475   6.594   7.977   6.431
84567SOL    HW255476   6.687   7.859   6.445
84568SOL     OW55477   2.598   1.392   9.561
84568SOL    HW155478   2.596   1.447   9.640
84568SOL    HW255479   2.532   1.325   9.577
84569SOL     OW55480   3.855   0.158  10.460
84569SOL    HW155481   3.886   0.088  10.516
84569SOL    HW255482   3.836   0.116  10.376
84570SOL     OW55483   1.420  14.470   5.200
84570SOL    HW155484   1.466  14.475   5.116
84570SOL    HW255485   1.485  14.496   5.265
84571SOL     OW55486  10.670   8.775  13.965
84571SOL    HW155487  10.741   8.783  14.028
84571SOL    HW255488  10.592   8.801  14.014
84572SOL     OW55489   0.654  13.377  10.584
84572SOL    HW155490   0.671  13.358  10.492
84572SOL    HW255491   0.697  13.306  10.632
84573SOL     OW55492  13.002  13.797   2.090
84573SOL    HW155493  12.995  13.754   2.175
84573SOL    HW255494  13.011  13.726   2.027
84574SOL     OW55495   1.137  12.720   0.425
84574SOL    HW155496   1.222  12.739   0.385
84574SOL    HW255497   1.095  12.659   0.364
84575SOL     OW55498  12.551  13.027   8.594
84575SOL    HW155499  12.595  13.082   8.530
84575SOL    HW255500  12.562  12.937   8.561
84576SOL     OW55501   8.688  12.732   8.859
84576SOL    HW155502   8.726  12.764   8.778
84576SOL    HW255503   8.655  12.644   8.837
84577SOL     OW55504  11.810  12.022   2.661
84577SOL    HW155505  11.833  11.936   2.695
84577SOL    HW255506  11.890  12.074   2.668
84578SOL     OW55507  13.911   5.459  13.350
84578SOL    HW155508  13.887   5.400  13.278
84578SOL    HW255509  13.907   5.405  13.428
84579SOL     OW55510   0.351  11.066   3.540
84579SOL    HW155511   0.301  11.083   3.620
84579SOL    HW255512   0.393  11.150   3.520
84580SOL     OW55513  12.960  12.361  12.280
84580SOL    HW155514  13.047  12.369  12.240
84580SOL    HW255515  12.906  12.321  12.212
84581SOL     OW55516   8.141  14.859   9.051
84581SOL    HW155517   8.175   0.042   9.113
84581SOL    HW255518   8.204  14.857   8.980
84582SOL     OW55519  12.679   2.321   8.992
84582SOL    HW155520  12.672   2.253   8.925
84582SOL    HW255521  12.625   2.393   8.958
84583SOL     OW55522  13.377   7.916  13.526
84583SOL    HW155523  13.389   7.824  13.552
84583SOL    HW255524  13.282   7.927  13.522
84584SOL     OW55525   8.759  12.435  12.034
84584SOL    HW155526   8.708  12.501  11.988
84584SOL    HW255527   8.696  12.391  12.092
84585SOL     OW55528  14.486  11.788   1.665
84585SOL    HW155529  14.580  11.804   1.669
84585SOL    HW255530  14.462  11.761   1.754
84586SOL     OW55531  10.016   4.730  12.057
84586SOL    HW155532  10.054   4.722  11.969
84586SOL    HW255533   9.937   4.782  12.044
84587SOL     OW55534   6.238   3.191  13.157
84587SOL    HW155535   6.171   3.175  13.223
84587SOL    HW255536   6.289   3.110  13.153
84588SOL     OW55537  12.686   5.081   5.401
84588SOL    HW155538  12.729   5.128   5.329
84588SOL    HW255539  12.752   5.018   5.431
84589SOL     OW55540  12.855  14.761   0.547
84589SOL    HW155541  12.791  14.794   0.483
84589SOL    HW255542  12.930  14.820   0.538
84590SOL     OW55543   3.188   7.665  10.212
84590SOL    HW155544   3.118   7.601  10.199
84590SOL    HW255545   3.226   7.642  10.297
84591SOL     OW55546   9.577  10.667   7.910
84591SOL    HW155547   9.591  10.586   7.959
84591SOL    HW255548   9.652  10.672   7.851
84592SOL     OW55549   1.016   6.059   5.453
84592SOL    HW155550   1.103   6.029   5.428
84592SOL    HW255551   0.965   6.056   5.372
84593SOL     OW55552   1.268   9.269   6.017
84593SOL    HW155553   1.354   9.311   6.009
84593SOL    HW255554   1.280   9.205   6.088
84594SOL     OW55555   5.659   1.163   1.995
84594SOL    HW155556   5.620   1.077   2.008
84594SOL    HW255557   5.601   1.207   1.933
84595SOL     OW55558  12.997  10.215  14.361
84595SOL    HW155559  12.976  10.289  14.417
84595SOL    HW255560  13.061  10.165  14.411
84596SOL     OW55561  13.779   3.991  11.408
84596SOL    HW155562  13.760   3.914  11.354
84596SOL    HW255563  13.785   3.957  11.497
84597SOL     OW55564   7.476   1.497   5.259
84597SOL    HW155565   7.443   1.587   5.263
84597SOL    HW255566   7.460   1.462   5.347
84598SOL     OW55567   7.062   8.046   6.419
84598SOL    HW155568   7.098   8.002   6.497
84598SOL    HW255569   7.020   7.975   6.370
84599SOL     OW55570   2.920   8.428   8.140
84599SOL    HW155571   2.876   8.372   8.203
84599SOL    HW255572   2.998   8.460   8.185
84600SOL     OW55573   7.504  13.072   5.279
84600SOL    HW155574   7.551  12.989   5.292
84600SOL    HW255575   7.468  13.065   5.191
84601SOL     OW55576   4.183  10.016  13.536
84601SOL    HW155577   4.241  10.079  13.495
84601SOL    HW255578   4.217  10.006  13.625
84602SOL     OW55579   1.090   3.499   0.277
84602SOL    HW155580   1.054   3.548   0.351
84602SOL    HW255581   1.024   3.432   0.258
84603SOL     OW55582   9.167  14.595   9.148
84603SOL    HW155583   9.162  14.500   9.158
84603SOL    HW255584   9.227  14.608   9.074
84604SOL     OW55585   4.156  10.357  12.800
84604SOL    HW155586   4.099  10.336  12.874
84604SOL    HW255587   4.097  10.391  12.733
84605SOL     OW55588   0.360   3.465  14.047
84605SOL    HW155589   0.444   3.448  14.005
84605SOL    HW255590   0.330   3.379  14.077
84606SOL     OW55591   1.127  13.713  12.698
84606SOL    HW155592   1.217  13.727  12.727
84606SOL    HW255593   1.128  13.626  12.658
84607SOL     OW55594   4.820   7.154  13.101
84607SOL    HW155595   4.783   7.074  13.063
84607SOL    HW255596   4.843   7.208  13.025
84608SOL     OW55597   0.028   5.208  12.086
84608SOL    HW155598  14.866   5.136  12.039
84608SOL    HW255599   0.053   5.169  12.170
84609SOL     OW55600  11.306   6.714  12.769
84609SOL    HW155601  11.231   6.654  12.759
84609SOL    HW255602  11.381   6.656  12.782
84610SOL     OW55603   3.178  13.477   8.685
84610SOL    HW155604   3.270  13.503   8.680
84610SOL    HW255605   3.180  13.381   8.679
84611SOL     OW55606   8.957   9.166  10.107
84611SOL    HW155607   8.912   9.129  10.030
84611SOL    HW255608   8.926   9.113  10.180
84612SOL     OW55609   4.304   0.888  10.180
84612SOL    HW155610   4.278   0.797  10.167
84612SOL    HW255611   4.239   0.923  10.241
84613SOL     OW55612   0.884   4.798   9.427
84613SOL    HW155613   0.924   4.880   9.398
84613SOL    HW255614   0.866   4.812   9.520
84614SOL     OW55615   4.383   8.306   0.083
84614SOL    HW155616   4.444   8.325   0.011
84614SOL    HW255617   4.297   8.300   0.040
84615SOL     OW55618   0.099   1.162   6.240
84615SOL    HW155619   0.112   1.068   6.254
84615SOL    HW255620   0.157   1.204   6.303
84616SOL     OW55621   7.244  14.667  12.280
84616SOL    HW155622   7.193  14.595  12.242
84616SOL    HW255623   7.216  14.744  12.230
84617SOL     OW55624   8.137  11.135   5.126
84617SOL    HW155625   8.150  11.078   5.202
84617SOL    HW255626   8.204  11.107   5.064
84618SOL     OW55627   3.388   2.521  13.882
84618SOL    HW155628   3.389   2.457  13.811
84618SOL    HW255629   3.480   2.531  13.906
84619SOL     OW55630   0.383   4.334   9.259
84619SOL    HW155631   0.400   4.242   9.276
84619SOL    HW255632   0.417   4.379   9.336
84620SOL     OW55633  11.651   0.491   7.995
84620SOL    HW155634  11.558   0.476   7.985
84620SOL    HW255635  11.680   0.424   8.057
84621SOL     OW55636  10.239  10.991   1.208
84621SOL    HW155637  10.223  10.897   1.213
84621SOL    HW255638  10.334  10.998   1.198
84622SOL     OW55639   7.509  11.435   4.913
84622SOL    HW155640   7.603  11.418   4.912
84622SOL    HW255641   7.494  11.482   4.995
84623SOL     OW55642   8.789   6.939   6.843
84623SOL    HW155643   8.706   6.987   6.842
84623SOL    HW255644   8.855   7.007   6.829
84624SOL     OW55645   7.777  13.027  11.234
84624SOL    HW155646   7.722  13.099  11.264
84624SOL    HW255647   7.804  12.981  11.313
84625SOL     OW55648   6.394  12.466   3.497
84625SOL    HW155649   6.442  12.398   3.543
84625SOL    HW255650   6.336  12.505   3.563
84626SOL     OW55651   9.810   1.329   0.059
84626SOL    HW155652   9.779   1.356  14.854
84626SOL    HW255653   9.896   1.370   0.066
84627SOL     OW55654   8.452  14.327   3.175
84627SOL    HW155655   8.531  14.322   3.230
84627SOL    HW255656   8.379  14.325   3.236
84628SOL     OW55657  11.096  11.690   8.602
84628SOL    HW155658  11.066  11.603   8.630
84628SOL    HW255659  11.185  11.676   8.571
84629SOL     OW55660   0.648   1.199   8.403
84629SOL    HW155661   0.618   1.164   8.319
84629SOL    HW255662   0.604   1.144   8.468
84630SOL     OW55663  11.918   3.640   7.414
84630SOL    HW155664  11.859   3.593   7.355
84630SOL    HW255665  11.861   3.698   7.464
84631SOL     OW55666   1.877   5.470   6.549
84631SOL    HW155667   1.828   5.412   6.491
84631SOL    HW255668   1.967   5.464   6.518
84632SOL     OW55669  12.717   3.930  14.159
84632SOL    HW155670  12.756   3.906  14.075
84632SOL    HW255671  12.718   3.849  14.211
84633SOL     OW55672  11.247   6.787   7.811
84633SOL    HW155673  11.199   6.730   7.871
84633SOL    HW255674  11.196   6.868   7.810
84634SOL     OW55675  10.863  12.847   0.466
84634SOL    HW155676  10.788  12.885   0.513
84634SOL    HW255677  10.894  12.777   0.523
84635SOL     OW55678   7.326  10.955   6.949
84635SOL    HW155679   7.239  10.944   6.912
84635SOL    HW255680   7.318  11.029   7.010
84636SOL     OW55681   8.636   0.771   4.530
84636SOL    HW155682   8.641   0.681   4.497
84636SOL    HW255683   8.667   0.825   4.456
84637SOL     OW55684   5.189  14.774   3.354
84637SOL    HW155685   5.206  14.749   3.263
84637SOL    HW255686   5.164  14.866   3.349
84638SOL     OW55687   5.498   1.493   9.583
84638SOL    HW155688   5.486   1.438   9.506
84638SOL    HW255689   5.554   1.441   9.641
84639SOL     OW55690   7.142   0.257  11.281
84639SOL    HW155691   7.119   0.164  11.292
84639SOL    HW255692   7.131   0.273  11.187
84640SOL     OW55693   0.307  14.189  12.330
84640SOL    HW155694   0.267  14.160  12.413
84640SOL    HW255695   0.247  14.257  12.298
84641SOL     OW55696   1.754   5.191   9.167
84641SOL    HW155697   1.849   5.202   9.163
84641SOL    HW255698   1.719   5.281   9.163
84642SOL     OW55699   7.742   9.509  12.966
84642SOL    HW155700   7.728   9.596  13.005
84642SOL    HW255701   7.796   9.526  12.889
84643SOL     OW55702   2.810   2.433  14.844
84643SOL    HW155703   2.745   2.385  14.793
84643SOL    HW255704   2.891   2.425  14.793
84644SOL     OW55705  11.219   6.990  12.714
84644SOL    HW155706  11.244   6.913  12.766
84644SOL    HW255707  11.302   7.030  12.689
84645SOL     OW55708   7.092   0.024   8.714
84645SOL    HW155709   7.168   0.011   8.770
84645SOL    HW255710   7.127   0.066   8.635
84646SOL     OW55711   1.227  12.737  13.458
84646SOL    HW155712   1.193  12.660  13.505
84646SOL    HW255713   1.161  12.805  13.471
84647SOL     OW55714  10.959  14.748   2.730
84647SOL    HW155715  11.041  14.757   2.680
84647SOL    HW255716  10.909  14.682   2.682
84648SOL     OW55717   1.928  11.823   9.464
84648SOL    HW155718   1.880  11.892   9.419
84648SOL    HW255719   1.963  11.769   9.393
84649SOL     OW55720   4.295   4.373   8.516
84649SOL    HW155721   4.224   4.360   8.452
84649SOL    HW255722   4.351   4.440   8.477
84650SOL     OW55723   2.244   8.755  10.213
84650SOL    HW155724   2.325   8.757  10.161
84650SOL    HW255725   2.175   8.737  10.149
84651SOL     OW55726  12.783  13.380  13.109
84651SOL    HW155727  12.720  13.437  13.153
84651SOL    HW255728  12.860  13.381  13.166
84652SOL     OW55729   8.304   2.714  12.988
84652SOL    HW155730   8.293   2.723  13.083
84652SOL    HW255731   8.307   2.804  12.955
84653SOL     OW55732  11.977   2.197   7.230
84653SOL    HW155733  11.952   2.289   7.215
84653SOL    HW255734  11.894   2.150   7.233
84654SOL     OW55735  14.831   1.131   2.895
84654SOL    HW155736   0.032   1.115   2.940
84654SOL    HW255737  14.856   1.143   2.803
84655SOL     OW55738   1.249   8.566   0.045
84655SOL    HW155739   1.237   8.483   0.001
84655SOL    HW255740   1.334   8.558   0.089
84656SOL     OW55741  13.688   0.013  11.926
84656SOL    HW155742  13.751  14.873  11.995
84656SOL    HW255743  13.698   0.107  11.913
84657SOL     OW55744   9.177   8.337  10.366
84657SOL    HW155745   9.123   8.413  10.342
84657SOL    HW255746   9.213   8.360  10.451
84658SOL     OW55747   8.959   1.962   6.268
84658SOL    HW155748   9.018   1.916   6.327
84658SOL    HW255749   8.951   2.050   6.306
84659SOL     OW55750   2.667  12.428   7.391
84659SOL    HW155751   2.750  12.466   7.419
84659SOL    HW255752   2.601  12.472   7.445
84660SOL     OW55753   8.891  11.693   9.820
84660SOL    HW155754   8.959  11.680   9.754
84660SOL    HW255755   8.853  11.778   9.799
84661SOL     OW55756   6.331   2.633  10.126
84661SOL    HW155757   6.355   2.639  10.034
84661SOL    HW255758   6.235   2.628  10.126
84662SOL     OW55759   0.865   0.785   1.301
84662SOL    HW155760   0.848   0.691   1.309
84662SOL    HW255761   0.851   0.803   1.208
84663SOL     OW55762  12.762  11.029   3.078
84663SOL    HW155763  12.849  11.005   3.108
84663SOL    HW255764  12.740  11.108   3.128
84664SOL     OW55765  12.889   7.144  10.075
84664SOL    HW155766  12.882   7.209  10.005
84664SOL    HW255767  12.945   7.185  10.140
84665SOL     OW55768  14.713   2.690  13.056
84665SOL    HW155769  14.649   2.693  12.985
84665SOL    HW255770  14.675   2.630  13.120
84666SOL     OW55771   2.538   8.930  11.242
84666SOL    HW155772   2.561   8.919  11.334
84666SOL    HW255773   2.504   8.845  11.214
84667SOL     OW55774  10.530   2.992   4.346
84667SOL    HW155775  10.612   3.027   4.382
84667SOL    HW255776  10.527   2.902   4.377
84668SOL     OW55777  13.612  13.355   9.783
84668SOL    HW155778  13.608  13.261   9.803
84668SOL    HW255779  13.583  13.362   9.692
84669SOL     OW55780  11.789  12.647   2.689
84669SOL    HW155781  11.729  12.592   2.640
84669SOL    HW255782  11.876  12.623   2.656
84670SOL     OW55783   0.757  13.022   9.214
84670SOL    HW155784   0.706  13.021   9.134
84670SOL    HW255785   0.713  12.959   9.272
84671SOL     OW55786   8.576   8.646  12.174
84671SOL    HW155787   8.643   8.670  12.111
84671SOL    HW255788   8.503   8.613  12.121
84672SOL     OW55789   1.344   0.573   5.444
84672SOL    HW155790   1.314   0.624   5.369
84672SOL    HW255791   1.439   0.569   5.434
84673SOL     OW55792   5.338   0.550  13.709
84673SOL    HW155793   5.345   0.597  13.793
84673SOL    HW255794   5.332   0.619  13.643
84674SOL     OW55795  14.466   3.239  12.810
84674SOL    HW155796  14.447   3.278  12.896
84674SOL    HW255797  14.415   3.158  12.809
84675SOL     OW55798   0.991   4.970  14.538
84675SOL    HW155799   1.056   5.030  14.574
84675SOL    HW255800   1.033   4.934  14.460
84676SOL     OW55801   7.710   6.556   0.823
84676SOL    HW155802   7.743   6.468   0.845
84676SOL    HW255803   7.626   6.562   0.869
84677SOL     OW55804   2.504  14.280  10.054
84677SOL    HW155805   2.491  14.367  10.016
84677SOL    HW255806   2.599  14.270  10.058
84678SOL     OW55807   1.483  14.553   2.770
84678SOL    HW155808   1.498  14.483   2.832
84678SOL    HW255809   1.407  14.600   2.804
84679SOL     OW55810   4.555   4.600   5.065
84679SOL    HW155811   4.637   4.648   5.076
84679SOL    HW255812   4.508   4.612   5.147
84680SOL     OW55813   1.685   8.194  10.199
84680SOL    HW155814   1.777   8.186  10.224
84680SOL    HW255815   1.659   8.281  10.228
84681SOL     OW55816  10.601   9.290   6.569
84681SOL    HW155817  10.534   9.224   6.590
84681SOL    HW255818  10.575   9.325   6.484
84682SOL     OW55819   6.382   7.637   1.281
84682SOL    HW155820   6.394   7.663   1.372
84682SOL    HW255821   6.287   7.639   1.268
84683SOL     OW55822   4.546   9.006   6.390
84683SOL    HW155823   4.470   9.048   6.428
84683SOL    HW255824   4.513   8.961   6.312
84684SOL     OW55825  13.803   4.638   4.818
84684SOL    HW155826  13.712   4.611   4.804
84684SOL    HW255827  13.854   4.559   4.801
84685SOL     OW55828   2.133   4.773  12.126
84685SOL    HW155829   2.123   4.737  12.038
84685SOL    HW255830   2.084   4.855  12.125
84686SOL     OW55831   1.164   2.854  12.362
84686SOL    HW155832   1.168   2.771  12.314
84686SOL    HW255833   1.244   2.854  12.415
84687SOL     OW55834   4.556   0.334   2.393
84687SOL    HW155835   4.528   0.409   2.446
84687SOL    HW255836   4.503   0.340   2.314
84688SOL     OW55837   9.315  14.385   8.155
84688SOL    HW155838   9.396  14.420   8.193
84688SOL    HW255839   9.252  14.456   8.164
84689SOL     OW55840  11.554  13.805   8.556
84689SOL    HW155841  11.551  13.752   8.635
84689SOL    HW255842  11.553  13.742   8.484
84690SOL     OW55843  11.710   4.122   2.334
84690SOL    HW155844  11.729   4.214   2.353
84690SOL    HW255845  11.615   4.116   2.337
84691SOL     OW55846   8.792   2.398   0.353
84691SOL    HW155847   8.822   2.307   0.347
84691SOL    HW255848   8.700   2.395   0.328
84692SOL     OW55849   8.902  12.527   4.447
84692SOL    HW155850   8.914  12.545   4.540
84692SOL    HW255851   8.807  12.529   4.434
84693SOL     OW55852  11.528   3.783  12.720
84693SOL    HW155853  11.480   3.809  12.642
84693SOL    HW255854  11.533   3.863  12.773
84694SOL     OW55855   5.948   2.397   0.193
84694SOL    HW155856   6.001   2.318   0.205
84694SOL    HW255857   5.909   2.413   0.279
84695SOL     OW55858  14.238   5.175   5.072
84695SOL    HW155859  14.289   5.148   4.996
84695SOL    HW255860  14.173   5.236   5.036
84696SOL     OW55861  10.073   6.322   6.906
84696SOL    HW155862   9.998   6.336   6.848
84696SOL    HW255863  10.035   6.288   6.987
84697SOL     OW55864  14.379   7.009   1.304
84697SOL    HW155865  14.393   7.100   1.277
84697SOL    HW255866  14.285   7.003   1.320
84698SOL     OW55867   8.670   4.554   3.854
84698SOL    HW155868   8.633   4.526   3.770
84698SOL    HW255869   8.736   4.487   3.874
84699SOL     OW55870   3.182   9.214  14.600
84699SOL    HW155871   3.110   9.153  14.614
84699SOL    HW255872   3.154   9.295  14.642
84700SOL     OW55873   8.335   4.145   9.123
84700SOL    HW155874   8.257   4.168   9.071
84700SOL    HW255875   8.361   4.228   9.163
84701SOL     OW55876   4.133   3.205   1.407
84701SOL    HW155877   4.207   3.265   1.405
84701SOL    HW255878   4.140   3.162   1.492
84702SOL     OW55879   9.053   5.769   9.590
84702SOL    HW155880   9.118   5.808   9.532
84702SOL    HW255881   8.970   5.778   9.543
84703SOL     OW55882  10.360   5.283   8.768
84703SOL    HW155883  10.374   5.374   8.793
84703SOL    HW255884  10.276   5.259   8.805
84704SOL     OW55885  12.115   1.137  12.043
84704SOL    HW155886  12.143   1.049  12.017
84704SOL    HW255887  12.085   1.126  12.134
84705SOL     OW55888  10.130   0.657   9.696
84705SOL    HW155889  10.215   0.669   9.652
84705SOL    HW255890  10.150   0.670   9.788
84706SOL     OW55891   4.937  13.862   7.871
84706SOL    HW155892   4.898  13.777   7.850
84706SOL    HW255893   4.875  13.903   7.931
84707SOL     OW55894  14.250   1.682   8.622
84707SOL    HW155895  14.323   1.737   8.650
84707SOL    HW255896  14.272   1.655   8.533
84708SOL     OW55897   2.196   1.178   9.087
84708SOL    HW155898   2.236   1.181   9.174
84708SOL    HW255899   2.183   1.085   9.069
84709SOL     OW55900   4.476  13.390   3.090
84709SOL    HW155901   4.471  13.398   2.995
84709SOL    HW255902   4.476  13.480   3.122
84710SOL     OW55903   0.169   3.858   0.353
84710SOL    HW155904   0.237   3.812   0.401
84710SOL    HW255905   0.110   3.789   0.322
84711SOL     OW55906   0.156   6.064   7.210
84711SOL    HW155907   0.190   6.003   7.144
84711SOL    HW255908   0.074   6.026   7.238
84712SOL     OW55909   6.209  10.832   2.989
84712SOL    HW155910   6.194  10.878   3.071
84712SOL    HW255911   6.298  10.857   2.963
84713SOL     OW55912  12.951  14.606   5.834
84713SOL    HW155913  12.946  14.664   5.758
84713SOL    HW255914  12.915  14.658   5.906
84714SOL     OW55915   6.064   2.988   4.912
84714SOL    HW155916   6.097   2.968   4.824
84714SOL    HW255917   5.969   2.988   4.902
84715SOL     OW55918   3.300   6.871   8.306
84715SOL    HW155919   3.334   6.933   8.370
84715SOL    HW255920   3.300   6.787   8.352
84716SOL     OW55921   2.248   2.027   7.608
84716SOL    HW155922   2.320   2.070   7.654
84716SOL    HW255923   2.262   2.048   7.516
84717SOL     OW55924   5.655   8.693   8.464
84717SOL    HW155925   5.600   8.617   8.444
84717SOL    HW255926   5.733   8.656   8.505
84718SOL     OW55927  14.795  11.707  12.987
84718SOL    HW155928  14.778  11.625  13.033
84718SOL    HW255929  14.808  11.681  12.896
84719SOL     OW55930   6.097   4.071   1.487
84719SOL    HW155931   6.186   4.101   1.467
84719SOL    HW255932   6.041   4.136   1.446
84720SOL     OW55933  10.215   1.002   2.544
84720SOL    HW155934  10.209   0.996   2.449
84720SOL    HW255935  10.248   0.917   2.572
84721SOL     OW55936   7.536   6.689   4.235
84721SOL    HW155937   7.568   6.726   4.316
84721SOL    HW255938   7.597   6.617   4.215
84722SOL     OW55939   9.372   0.767  14.341
84722SOL    HW155940   9.355   0.679  14.374
84722SOL    HW255941   9.301   0.784  14.279
84723SOL     OW55942   1.389  12.134  12.366
84723SOL    HW155943   1.432  12.162  12.285
84723SOL    HW255944   1.413  12.042  12.375
84724SOL     OW55945   9.008   1.086   6.478
84724SOL    HW155946   8.989   0.997   6.508
84724SOL    HW255947   9.050   1.128   6.552
84725SOL     OW55948   9.641   2.915  12.567
84725SOL    HW155949   9.672   2.986  12.510
84725SOL    HW255950   9.657   2.835  12.516
84726SOL     OW55951   5.811   7.758   3.955
84726SOL    HW155952   5.747   7.746   3.886
84726SOL    HW255953   5.759   7.763   4.036
84727SOL     OW55954  11.096   0.196   6.778
84727SOL    HW155955  11.019   0.224   6.827
84727SOL    HW255956  11.064   0.127   6.720
84728SOL     OW55957   9.943   7.773   9.980
84728SOL    HW155958   9.913   7.765   9.889
84728SOL    HW255959   9.955   7.868   9.992
84729SOL     OW55960   6.170   0.986   9.758
84729SOL    HW155961   6.148   1.012   9.669
84729SOL    HW255962   6.227   1.057   9.790
84730SOL     OW55963   6.463   0.800   6.390
84730SOL    HW155964   6.373   0.804   6.423
84730SOL    HW255965   6.454   0.820   6.296
84731SOL     OW55966  13.104   9.900   0.879
84731SOL    HW155967  13.083   9.966   0.813
84731SOL    HW255968  13.051   9.824   0.856
84732SOL     OW55969  13.499  13.842   6.616
84732SOL    HW155970  13.430  13.789   6.575
84732SOL    HW255971  13.452  13.898   6.678
84733SOL     OW55972   5.324   5.543  11.718
84733SOL    HW155973   5.299   5.566  11.629
84733SOL    HW255974   5.411   5.582  11.729
84734SOL     OW55975   4.030   2.637   7.865
84734SOL    HW155976   4.064   2.725   7.881
84734SOL    HW255977   4.099   2.594   7.814
84735SOL     OW55978   9.793   4.197  12.121
84735SOL    HW155979   9.833   4.136  12.183
84735SOL    HW255980   9.864   4.220  12.061
84736SOL     OW55981   2.748   9.992   1.566
84736SOL    HW155982   2.719   9.987   1.658
84736SOL    HW255983   2.843   9.990   1.572
84737SOL     OW55984   8.201  12.557   4.717
84737SOL    HW155985   8.120  12.546   4.765
84737SOL    HW255986   8.254  12.481   4.741
84738SOL     OW55987   1.211   4.155   4.183
84738SOL    HW155988   1.297   4.190   4.202
84738SOL    HW255989   1.227   4.083   4.122
84739SOL     OW55990   2.773   6.576   4.054
84739SOL    HW155991   2.717   6.529   3.991
84739SOL    HW255992   2.713   6.602   4.124
84740SOL     OW55993   6.206   9.304   5.818
84740SOL    HW155994   6.275   9.247   5.852
84740SOL    HW255995   6.177   9.262   5.738
84741SOL     OW55996   1.206   1.142   8.771
84741SOL    HW155997   1.234   1.106   8.855
84741SOL    HW255998   1.155   1.220   8.793
84742SOL     OW55999  14.424   1.161   8.292
84742SOL    HW156000  14.450   1.107   8.217
84742SOL    HW256001  14.340   1.125   8.319
84743SOL     OW56002  12.033   3.226   3.728
84743SOL    HW156003  12.109   3.173   3.750
84743SOL    HW256004  11.962   3.190   3.781
84744SOL     OW56005  11.725   3.834   4.976
84744SOL    HW156006  11.718   3.882   5.059
84744SOL    HW256007  11.651   3.773   4.979
84745SOL     OW56008  14.639   8.057   5.583
84745SOL    HW156009  14.726   8.090   5.560
84745SOL    HW256010  14.592   8.054   5.499
84746SOL     OW56011  11.653   5.337   0.875
84746SOL    HW156012  11.680   5.405   0.937
84746SOL    HW256013  11.583   5.378   0.824
84747SOL     OW56014   6.494   8.891   4.817
84747SOL    HW156015   6.453   8.951   4.755
84747SOL    HW256016   6.451   8.909   4.900
84748SOL     OW56017   0.031  14.082   0.294
84748SOL    HW156018  14.877  14.163   0.333
84748SOL    HW256019   0.109  14.063   0.346
84749SOL     OW56020   7.476   2.003  14.837
84749SOL    HW156021   7.536   1.994   0.029
84749SOL    HW256022   7.406   1.940  14.854
84750SOL     OW56023  10.965   7.389   6.098
84750SOL    HW156024  10.971   7.305   6.052
84750SOL    HW256025  10.890   7.433   6.058
84751SOL     OW56026   3.777  14.872   0.342
84751SOL    HW156027   3.715   0.036   0.399
84751SOL    HW256028   3.747   0.009   0.253
84752SOL     OW56029   5.993   7.506  11.445
84752SOL    HW156030   6.011   7.523  11.537
84752SOL    HW256031   6.079   7.494  11.405
84753SOL     OW56032   7.743  13.156  11.631
84753SOL    HW156033   7.755  13.169  11.537
84753SOL    HW256034   7.668  13.210  11.654
84754SOL     OW56035   2.828   3.646  11.993
84754SOL    HW156036   2.804   3.701  11.919
84754SOL    HW256037   2.762   3.576  11.993
84755SOL     OW56038   9.178   6.914   9.000
84755SOL    HW156039   9.266   6.948   9.012
84755SOL    HW256040   9.172   6.839   9.059
84756SOL     OW56041  13.858   5.109  10.225
84756SOL    HW156042  13.807   5.044  10.176
84756SOL    HW256043  13.936   5.061  10.253
84757SOL     OW56044  13.965   2.867   8.961
84757SOL    HW156045  14.045   2.912   8.989
84757SOL    HW256046  13.946   2.806   9.032
84758SOL     OW56047   5.185  10.262   7.011
84758SOL    HW156048   5.237  10.342   7.002
84758SOL    HW256049   5.179  10.248   7.105
84759SOL     OW56050   8.156   8.770   9.410
84759SOL    HW156051   8.162   8.680   9.441
84759SOL    HW256052   8.176   8.765   9.316
84760SOL     OW56053   6.936   5.302   9.861
84760SOL    HW156054   6.985   5.268   9.936
84760SOL    HW256055   6.896   5.383   9.893
84761SOL     OW56056  13.340   8.736   5.573
84761SOL    HW156057  13.313   8.653   5.614
84761SOL    HW256058  13.391   8.709   5.496
84762SOL     OW56059  13.363   2.360  10.936
84762SOL    HW156060  13.326   2.272  10.931
84762SOL    HW256061  13.378   2.374  11.030
84763SOL     OW56062   6.310  12.889   7.924
84763SOL    HW156063   6.280  12.825   7.988
84763SOL    HW256064   6.310  12.973   7.971
84764SOL     OW56065   1.029   7.374  13.933
84764SOL    HW156066   1.045   7.410  13.846
84764SOL    HW256067   0.949   7.322  13.923
84765SOL     OW56068   3.348   4.647  13.875
84765SOL    HW156069   3.342   4.594  13.796
84765SOL    HW256070   3.367   4.735  13.843
84766SOL     OW56071   7.857   5.839   6.351
84766SOL    HW156072   7.817   5.779   6.415
84766SOL    HW256073   7.821   5.812   6.267
84767SOL     OW56074  13.053   7.781   6.450
84767SOL    HW156075  13.071   7.874   6.461
84767SOL    HW256076  12.961   7.771   6.478
84768SOL     OW56077  13.323   3.242   3.788
84768SOL    HW156078  13.245   3.188   3.799
84768SOL    HW256079  13.389   3.183   3.753
84769SOL     OW56080  10.800   2.048  14.152
84769SOL    HW156081  10.705   2.046  14.139
84769SOL    HW256082  10.822   2.141  14.159
84770SOL     OW56083   0.061  10.455   8.460
84770SOL    HW156084   0.065  10.442   8.366
84770SOL    HW256085  14.852  10.483   8.477
84771SOL     OW56086  11.267   3.123   2.119
84771SOL    HW156087  11.308   3.133   2.205
84771SOL    HW256088  11.288   3.204   2.073
84772SOL     OW56089  13.079  14.508  11.250
84772SOL    HW156090  13.087  14.567  11.176
84772SOL    HW256091  12.988  14.516  11.279
84773SOL     OW56092   1.630  13.288   6.857
84773SOL    HW156093   1.704  13.231   6.879
84773SOL    HW256094   1.628  13.354   6.926
84774SOL     OW56095   9.060   6.806  13.498
84774SOL    HW156096   9.111   6.748  13.442
84774SOL    HW256097   9.090   6.894  13.475
84775SOL     OW56098  14.085   3.003   3.402
84775SOL    HW156099  14.066   2.924   3.352
84775SOL    HW256100  14.098   3.071   3.336
84776SOL     OW56101  14.870  14.114   0.836
84776SOL    HW156102  14.810  14.147   0.903
84776SOL    HW256103  14.843  14.024   0.821
84777SOL     OW56104   6.294  10.760   7.029
84777SOL    HW156105   6.371  10.706   7.046
84777SOL    HW256106   6.221  10.707   7.061
84778SOL     OW56107   7.684   9.660   5.516
84778SOL    HW156108   7.745   9.726   5.550
84778SOL    HW256109   7.624   9.643   5.588
84779SOL     OW56110   1.238   6.417   8.355
84779SOL    HW156111   1.289   6.338   8.338
84779SOL    HW256112   1.302   6.487   8.361
84780SOL     OW56113  12.728   9.271   7.111
84780SOL    HW156114  12.815   9.238   7.086
84780SOL    HW256115  12.710   9.341   7.049
84781SOL     OW56116   3.110   9.563   0.333
84781SOL    HW156117   3.074   9.651   0.322
84781SOL    HW256118   3.073   9.533   0.417
84782SOL     OW56119   0.077   9.386  12.150
84782SOL    HW156120   0.119   9.463  12.113
84782SOL    HW256121   0.044   9.337  12.075
84783SOL     OW56122  13.850   4.114   5.584
84783SOL    HW156123  13.855   4.100   5.679
84783SOL    HW256124  13.772   4.066   5.556
84784SOL     OW56125   1.003   4.435   8.254
84784SOL    HW156126   0.984   4.498   8.184
84784SOL    HW256127   0.926   4.440   8.311
84785SOL     OW56128  13.320   6.712   0.145
84785SOL    HW156129  13.415   6.718   0.153
84785SOL    HW256130  13.303   6.621   0.121
84786SOL     OW56131  11.751   5.203   8.529
84786SOL    HW156132  11.689   5.246   8.469
84786SOL    HW256133  11.714   5.217   8.616
84787SOL     OW56134   7.950   0.890  12.986
84787SOL    HW156135   7.999   0.947  13.046
84787SOL    HW256136   7.997   0.807  12.988
84788SOL     OW56137  14.749   5.905   2.199
84788SOL    HW156138  14.709   5.847   2.264
84788SOL    HW256139  14.729   5.993   2.230
84789SOL     OW56140   3.346   9.724  11.830
84789SOL    HW156141   3.330   9.629  11.837
84789SOL    HW256142   3.260   9.761  11.811
84790SOL     OW56143  10.389  13.624  11.107
84790SOL    HW156144  10.390  13.714  11.074
84790SOL    HW256145  10.300  13.593  11.090
84791SOL     OW56146   7.443   4.354  14.790
84791SOL    HW156147   7.400   4.437  14.813
84791SOL    HW256148   7.523   4.380  14.745
84792SOL     OW56149   7.841  10.348  13.439
84792SOL    HW156150   7.814  10.316  13.525
84792SOL    HW256151   7.907  10.286  13.410
84793SOL     OW56152  10.029   5.043   1.248
84793SOL    HW156153  10.033   5.138   1.252
84793SOL    HW256154   9.956   5.024   1.188
84794SOL     OW56155  11.662   6.215   1.626
84794SOL    HW156156  11.720   6.160   1.572
84794SOL    HW256157  11.633   6.157   1.696
84795SOL     OW56158   8.549   1.871   5.589
84795SOL    HW156159   8.578   1.957   5.559
84795SOL    HW256160   8.577   1.867   5.681
84796SOL     OW56161  13.879   3.716   4.541
84796SOL    HW156162  13.807   3.700   4.602
84796SOL    HW256163  13.933   3.782   4.584
84797SOL     OW56164   2.476  14.751  12.566
84797SOL    HW156165   2.490  14.741  12.472
84797SOL    HW256166   2.391  14.710  12.582
84798SOL     OW56167   3.885   0.284   6.454
84798SOL    HW156168   3.972   0.256   6.484
84798SOL    HW256169   3.848   0.329   6.530
84799SOL     OW56170   4.251  13.790  13.933
84799SOL    HW156171   4.316  13.745  13.988
84799SOL    HW256172   4.248  13.738  13.853
84800SOL     OW56173  13.430   1.404  11.905
84800SOL    HW156174  13.355   1.464  11.911
84800SOL    HW256175  13.483   1.424  11.982
84801SOL     OW56176   5.342   0.280   8.314
84801SOL    HW156177   5.362   0.372   8.330
84801SOL    HW256178   5.250   0.280   8.288
84802SOL     OW56179   8.589  13.688   3.190
84802SOL    HW156180   8.556  13.609   3.146
84802SOL    HW256181   8.678  13.667   3.215
84803SOL     OW56182   0.611  11.214   6.455
84803SOL    HW156183   0.589  11.208   6.548
84803SOL    HW256184   0.649  11.301   6.445
84804SOL     OW56185   8.831  10.473   2.734
84804SOL    HW156186   8.915  10.490   2.692
84804SOL    HW256187   8.801  10.558   2.765
84805SOL     OW56188  11.337   8.353   5.776
84805SOL    HW156189  11.428   8.379   5.761
84805SOL    HW256190  11.342   8.259   5.794
84806SOL     OW56191   2.072   7.463   6.064
84806SOL    HW156192   2.166   7.484   6.062
84806SOL    HW256193   2.068   7.374   6.097
84807SOL     OW56194  14.072  12.205   0.814
84807SOL    HW156195  14.130  12.135   0.843
84807SOL    HW256196  14.095  12.218   0.721
84808SOL     OW56197   9.977   4.417  12.925
84808SOL    HW156198  10.024   4.420  13.008
84808SOL    HW256199   9.952   4.326  12.915
84809SOL     OW56200   6.515   8.785   1.127
84809SOL    HW156201   6.426   8.812   1.149
84809SOL    HW256202   6.508   8.746   1.040
84810SOL     OW56203  11.450   0.591   8.610
84810SOL    HW156204  11.428   0.501   8.631
84810SOL    HW256205  11.368   0.639   8.619
84811SOL     OW56206   9.170  13.727   5.991
84811SOL    HW156207   9.260  13.693   5.996
84811SOL    HW256208   9.128  13.675   5.923
84812SOL     OW56209   6.788   6.088   0.109
84812SOL    HW156210   6.767   6.079   0.202
84812SOL    HW256211   6.765   6.178   0.088
84813SOL     OW56212  13.683   1.033   4.142
84813SOL    HW156213  13.700   1.095   4.213
84813SOL    HW256214  13.717   0.950   4.174
84814SOL     OW56215   6.587   5.476  10.615
84814SOL    HW156216   6.638   5.537  10.561
84814SOL    HW256217   6.581   5.397  10.562
84815SOL     OW56218   7.619  14.668  11.614
84815SOL    HW156219   7.631  14.735  11.546
84815SOL    HW256220   7.575  14.715  11.685
84816SOL     OW56221   5.657   6.314  13.408
84816SOL    HW156222   5.617   6.329  13.323
84816SOL    HW256223   5.748   6.288  13.388
84817SOL     OW56224   0.676   0.417   6.841
84817SOL    HW156225   0.743   0.356   6.871
84817SOL    HW256226   0.726   0.491   6.805
84818SOL     OW56227   4.836   0.926   9.704
84818SOL    HW156228   4.828   1.017   9.677
84818SOL    HW256229   4.762   0.912   9.763
84819SOL     OW56230   0.171   9.631   1.339
84819SOL    HW156231   0.211   9.568   1.279
84819SOL    HW256232   0.077   9.609   1.339
84820SOL     OW56233  12.577  12.645  12.544
84820SOL    HW156234  12.636  12.576  12.514
84820SOL    HW256235  12.501  12.638  12.486
84821SOL     OW56236   0.518   6.281   4.457
84821SOL    HW156237   0.436   6.291   4.505
84821SOL    HW256238   0.583   6.322   4.514
84822SOL     OW56239   1.685  11.804   9.620
84822SOL    HW156240   1.643  11.727   9.583
84822SOL    HW256241   1.776  11.799   9.591
84823SOL     OW56242   1.810   6.083   2.158
84823SOL    HW156243   1.898   6.114   2.180
84823SOL    HW256244   1.801   6.000   2.206
84824SOL     OW56245   5.355  10.166   9.829
84824SOL    HW156246   5.279  10.119   9.865
84824SOL    HW256247   5.362  10.245   9.882
84825SOL     OW56248   8.144   1.957  12.837
84825SOL    HW156249   8.232   1.953  12.799
84825SOL    HW256250   8.096   2.018  12.780
84826SOL     OW56251   8.440  10.277   6.695
84826SOL    HW156252   8.373  10.279   6.763
84826SOL    HW256253   8.404  10.332   6.625
84827SOL     OW56254   9.469   0.896   4.252
84827SOL    HW156255   9.415   0.901   4.330
84827SOL    HW256256   9.523   0.975   4.255
84828SOL     OW56257   1.512   1.919   5.573
84828SOL    HW156258   1.445   1.883   5.630
84828SOL    HW256259   1.467   1.932   5.489
84829SOL     OW56260   4.860  11.826  13.004
84829SOL    HW156261   4.825  11.750  12.957
84829SOL    HW256262   4.783  11.875  13.032
84830SOL     OW56263   2.041   0.126  10.949
84830SOL    HW156264   2.026   0.175  11.029
84830SOL    HW256265   2.115   0.069  10.969
84831SOL     OW56266  11.568   7.435   5.725
84831SOL    HW156267  11.524   7.475   5.801
84831SOL    HW256268  11.531   7.481   5.649
84832SOL     OW56269  11.996   0.934  10.909
84832SOL    HW156270  11.934   0.870  10.875
84832SOL    HW256271  11.949   1.018  10.904
84833SOL     OW56272  11.148   5.855  14.596
84833SOL    HW156273  11.106   5.820  14.518
84833SOL    HW256274  11.153   5.780  14.656
84834SOL     OW56275  14.059  14.579   0.630
84834SOL    HW156276  14.080  14.585   0.537
84834SOL    HW256277  14.102  14.499   0.660
84835SOL     OW56278   2.991  13.982   5.059
84835SOL    HW156279   3.066  14.021   5.103
84835SOL    HW256280   2.991  13.891   5.088
84836SOL     OW56281   7.756   8.335  12.126
84836SOL    HW156282   7.668   8.371  12.132
84836SOL    HW256283   7.757   8.285  12.045
84837SOL     OW56284   0.016   3.461   0.558
84837SOL    HW156285   0.097   3.501   0.524
84837SOL    HW256286  14.837   3.464   0.485
84838SOL     OW56287   7.849  11.157  13.838
84838SOL    HW156288   7.816  11.073  13.870
84838SOL    HW256289   7.777  11.218  13.852
84839SOL     OW56290   7.526  13.590  11.598
84839SOL    HW156291   7.529  13.613  11.505
84839SOL    HW256292   7.439  13.619  11.627
84840SOL     OW56293   8.627   7.615   9.308
84840SOL    HW156294   8.658   7.531   9.340
84840SOL    HW256295   8.590   7.658   9.385
84841SOL     OW56296  12.644   1.705   8.321
84841SOL    HW156297  12.682   1.734   8.238
84841SOL    HW256298  12.704   1.740   8.388
84842SOL     OW56299   5.036   0.965   2.366
84842SOL    HW156300   5.074   1.045   2.331
84842SOL    HW256301   5.064   0.896   2.306
84843SOL     OW56302  11.868  12.741   0.718
84843SOL    HW156303  11.839  12.805   0.652
84843SOL    HW256304  11.928  12.790   0.773
84844SOL     OW56305  13.363   9.222   5.577
84844SOL    HW156306  13.334   9.151   5.634
84844SOL    HW256307  13.458   9.227   5.592
84845SOL     OW56308   2.361   6.253  12.232
84845SOL    HW156309   2.347   6.225  12.323
84845SOL    HW256310   2.427   6.192  12.198
84846SOL     OW56311   8.201   4.639   5.380
84846SOL    HW156312   8.224   4.675   5.466
84846SOL    HW256313   8.285   4.629   5.335
84847SOL     OW56314   5.023  14.314  11.909
84847SOL    HW156315   5.117  14.330  11.922
84847SOL    HW256316   4.988  14.400  11.885
84848SOL     OW56317   6.671   9.842  12.954
84848SOL    HW156318   6.581   9.814  12.972
84848SOL    HW256319   6.675   9.849  12.859
84849SOL     OW56320   7.470  12.174   4.735
84849SOL    HW156321   7.521  12.151   4.813
84849SOL    HW256322   7.410  12.102   4.723
84850SOL     OW56323   2.728   8.035   4.277
84850SOL    HW156324   2.718   7.950   4.321
84850SOL    HW256325   2.819   8.035   4.246
84851SOL     OW56326   2.114   5.648   8.762
84851SOL    HW156327   2.052   5.578   8.784
84851SOL    HW256328   2.059   5.720   8.730
84852SOL     OW56329   6.169   5.284   3.442
84852SOL    HW156330   6.230   5.282   3.515
84852SOL    HW256331   6.112   5.360   3.460
84853SOL     OW56332   9.142   6.503   5.609
84853SOL    HW156333   9.214   6.528   5.668
84853SOL    HW256334   9.157   6.556   5.530
84854SOL     OW56335   8.658   2.265   2.642
84854SOL    HW156336   8.692   2.179   2.664
84854SOL    HW256337   8.565   2.250   2.623
84855SOL     OW56338   6.884   2.174  12.406
84855SOL    HW156339   6.917   2.216  12.327
84855SOL    HW256340   6.872   2.246  12.468
84856SOL     OW56341  13.974   2.549  13.682
84856SOL    HW156342  14.018   2.601  13.749
84856SOL    HW256343  14.046   2.504  13.637
84857SOL     OW56344   4.886   2.244  10.850
84857SOL    HW156345   4.803   2.204  10.824
84857SOL    HW256346   4.919   2.189  10.921
84858SOL     OW56347   0.499   8.460   4.212
84858SOL    HW156348   0.444   8.538   4.205
84858SOL    HW256349   0.535   8.448   4.124
84859SOL     OW56350  11.032   1.904   6.346
84859SOL    HW156351  10.969   1.925   6.415
84859SOL    HW256352  11.116   1.899   6.391
84860SOL     OW56353   8.849  12.035  14.686
84860SOL    HW156354   8.784  12.093  14.727
84860SOL    HW256355   8.910  12.095  14.643
84861SOL     OW56356  12.304   3.348   1.579
84861SOL    HW156357  12.312   3.378   1.669
84861SOL    HW256358  12.391   3.359   1.542
84862SOL     OW56359   7.643   8.692   8.943
84862SOL    HW156360   7.566   8.695   8.999
84862SOL    HW256361   7.717   8.698   9.003
84863SOL     OW56362  13.640  13.476   6.257
84863SOL    HW156363  13.662  13.544   6.194
84863SOL    HW256364  13.546  13.486   6.273
84864SOL     OW56365   9.145   8.132   7.647
84864SOL    HW156366   9.145   8.208   7.705
84864SOL    HW256367   9.212   8.074   7.683
84865SOL     OW56368  11.874  10.233   7.579
84865SOL    HW156369  11.919  10.311   7.612
84865SOL    HW256370  11.937  10.162   7.591
84866SOL     OW56371   9.418   0.672   1.118
84866SOL    HW156372   9.431   0.728   1.041
84866SOL    HW256373   9.459   0.720   1.190
84867SOL     OW56374   4.363   9.857  10.881
84867SOL    HW156375   4.327   9.768  10.886
84867SOL    HW256376   4.291   9.909  10.845
84868SOL     OW56377  13.371   7.729   6.826
84868SOL    HW156378  13.281   7.752   6.847
84868SOL    HW256379  13.373   7.633   6.830
84869SOL     OW56380   3.610   3.183   8.281
84869SOL    HW156381   3.577   3.111   8.335
84869SOL    HW256382   3.578   3.163   8.193
84870SOL     OW56383   9.112  12.776   6.394
84870SOL    HW156384   9.027  12.810   6.423
84870SOL    HW256385   9.098  12.752   6.303
84871SOL     OW56386   1.904   5.226  13.725
84871SOL    HW156387   1.821   5.211  13.680
84871SOL    HW256388   1.968   5.242  13.655
84872SOL     OW56389   1.903  14.010  11.191
84872SOL    HW156390   1.865  13.925  11.168
84872SOL    HW256391   1.833  14.072  11.172
84873SOL     OW56392  12.954   1.903  12.871
84873SOL    HW156393  12.874   1.943  12.906
84873SOL    HW256394  13.002   1.976  12.833
84874SOL     OW56395  11.664  13.901   7.414
84874SOL    HW156396  11.695  13.977   7.463
84874SOL    HW256397  11.715  13.828   7.449
84875SOL     OW56398   5.984   1.351   0.553
84875SOL    HW156399   5.968   1.355   0.459
84875SOL    HW256400   6.038   1.428   0.571
84876SOL     OW56401   0.839   2.955   2.054
84876SOL    HW156402   0.787   2.919   2.127
84876SOL    HW256403   0.880   3.033   2.091
84877SOL     OW56404   8.319   2.883   6.893
84877SOL    HW156405   8.235   2.914   6.859
84877SOL    HW256406   8.305   2.876   6.988
84878SOL     OW56407   1.009   6.407  11.957
84878SOL    HW156408   1.018   6.488  12.008
84878SOL    HW256409   0.914   6.396  11.946
84879SOL     OW56410   5.681   4.177   9.102
84879SOL    HW156411   5.773   4.154   9.107
84879SOL    HW256412   5.649   4.131   9.024
84880SOL     OW56413  10.444   9.246   8.359
84880SOL    HW156414  10.374   9.301   8.394
84880SOL    HW256415  10.465   9.185   8.429
84881SOL     OW56416   6.143  10.360   4.447
84881SOL    HW156417   6.116  10.270   4.432
84881SOL    HW256418   6.098  10.386   4.527
84882SOL     OW56419   1.431   1.893   5.308
84882SOL    HW156420   1.411   1.956   5.240
84882SOL    HW256421   1.423   1.808   5.265
84883SOL     OW56422   6.752   0.183  14.204
84883SOL    HW156423   6.828   0.167  14.149
84883SOL    HW256424   6.783   0.170  14.293
84884SOL     OW56425   2.299  13.521   9.667
84884SOL    HW156426   2.228  13.479   9.716
84884SOL    HW256427   2.379  13.493   9.713
84885SOL     OW56428  10.037   0.244   0.346
84885SOL    HW156429  10.043   0.266   0.438
84885SOL    HW256430   9.980   0.168   0.342
84886SOL     OW56431  10.676   9.854  12.417
84886SOL    HW156432  10.755   9.811  12.451
84886SOL    HW256433  10.653   9.805  12.338
84887SOL     OW56434   1.493   0.361  14.580
84887SOL    HW156435   1.443   0.412  14.517
84887SOL    HW256436   1.552   0.424  14.622
84888SOL     OW56437  14.045   3.791   9.442
84888SOL    HW156438  14.045   3.704   9.482
84888SOL    HW256439  13.960   3.828   9.465
84889SOL     OW56440   4.635   7.660  10.972
84889SOL    HW156441   4.695   7.732  10.955
84889SOL    HW256442   4.591   7.645  10.889
84890SOL     OW56443  14.292   7.512  11.975
84890SOL    HW156444  14.226   7.549  12.034
84890SOL    HW256445  14.244   7.491  11.895
84891SOL     OW56446  11.205   4.735   6.026
84891SOL    HW156447  11.143   4.750   5.954
84891SOL    HW256448  11.191   4.644   6.050
84892SOL     OW56449  11.971  11.892   3.065
84892SOL    HW156450  11.951  11.962   3.127
84892SOL    HW256451  11.921  11.817   3.096
84893SOL     OW56452  13.062   8.106  13.273
84893SOL    HW156453  13.107   8.111  13.357
84893SOL    HW256454  12.971   8.128  13.292
84894SOL     OW56455   2.190  12.991   6.626
84894SOL    HW156456   2.252  12.923   6.597
84894SOL    HW256457   2.109  12.971   6.579
84895SOL     OW56458   6.964   6.175  10.437
84895SOL    HW156459   6.977   6.099  10.381
84895SOL    HW256460   6.978   6.250  10.380
84896SOL     OW56461   3.532  12.846   6.805
84896SOL    HW156462   3.574  12.796   6.875
84896SOL    HW256463   3.443  12.862   6.837
84897SOL     OW56464   2.798   5.919  12.245
84897SOL    HW156465   2.768   5.860  12.176
84897SOL    HW256466   2.873   5.873  12.284
84898SOL     OW56467   1.162   5.114   1.597
84898SOL    HW156468   1.188   5.202   1.569
84898SOL    HW256469   1.217   5.095   1.672
84899SOL     OW56470   3.314   3.892  11.637
84899SOL    HW156471   3.352   3.976  11.612
84899SOL    HW256472   3.253   3.870  11.566
84900SOL     OW56473   9.484  13.093  13.432
84900SOL    HW156474   9.440  13.078  13.349
84900SOL    HW256475   9.557  13.031  13.432
84901SOL     OW56476  11.464   7.607   7.637
84901SOL    HW156477  11.386   7.594   7.690
84901SOL    HW256478  11.535   7.616   7.700
84902SOL     OW56479   7.178   1.262   3.448
84902SOL    HW156480   7.230   1.340   3.465
84902SOL    HW256481   7.237   1.203   3.402
84903SOL     OW56482  14.043   7.742  14.807
84903SOL    HW156483  14.012   7.786   0.004
84903SOL    HW256484  13.967   7.741  14.748
84904SOL     OW56485   7.776   6.962   2.102
84904SOL    HW156486   7.818   6.978   2.187
84904SOL    HW256487   7.847   6.939   2.043
84905SOL     OW56488   5.635   0.334  11.969
84905SOL    HW156489   5.632   0.429  11.980
84905SOL    HW256490   5.620   0.320  11.876
84906SOL     OW56491   1.777  12.336   2.360
84906SOL    HW156492   1.849  12.296   2.409
84906SOL    HW256493   1.769  12.281   2.282
84907SOL     OW56494  11.649   2.140   6.198
84907SOL    HW156495  11.592   2.204   6.240
84907SOL    HW256496  11.651   2.166   6.106
84908SOL     OW56497  14.657   9.837  11.467
84908SOL    HW156498  14.636   9.747  11.443
84908SOL    HW256499  14.752   9.838  11.476
84909SOL     OW56500  10.850  13.959   0.508
84909SOL    HW156501  10.945  13.953   0.517
84909SOL    HW256502  10.816  13.891   0.568
84910SOL     OW56503   4.977   4.854   9.971
84910SOL    HW156504   5.070   4.838   9.957
84910SOL    HW256505   4.965   4.945   9.945
84911SOL     OW56506   9.461  14.555   4.908
84911SOL    HW156507   9.449  14.593   4.995
84911SOL    HW256508   9.545  14.509   4.914
84912SOL     OW56509   5.988   8.296  11.785
84912SOL    HW156510   6.010   8.370  11.728
84912SOL    HW256511   5.991   8.332  11.873
84913SOL     OW56512   6.582  12.765  10.604
84913SOL    HW156513   6.659  12.714  10.577
84913SOL    HW256514   6.508  12.719  10.565
84914SOL     OW56515   8.516   6.519   4.466
84914SOL    HW156516   8.452   6.589   4.480
84914SOL    HW256517   8.539   6.526   4.374
84915SOL     OW56518   4.407   6.603   8.506
84915SOL    HW156519   4.410   6.682   8.561
84915SOL    HW256520   4.353   6.542   8.556
84916SOL     OW56521   9.892   7.985  13.495
84916SOL    HW156522   9.877   7.994  13.400
84916SOL    HW256523   9.852   7.901  13.518
84917SOL     OW56524   8.529   8.607   4.727
84917SOL    HW156525   8.464   8.563   4.782
84917SOL    HW256526   8.603   8.547   4.725
84918SOL     OW56527   0.301  11.688   6.906
84918SOL    HW156528   0.377  11.631   6.916
84918SOL    HW256529   0.317  11.735   6.824
84919SOL     OW56530  11.549   4.619   3.259
84919SOL    HW156531  11.494   4.697   3.265
84919SOL    HW256532  11.601   4.620   3.340
84920SOL     OW56533  10.359   2.483   7.618
84920SOL    HW156534  10.330   2.551   7.558
84920SOL    HW256535  10.311   2.405   7.590
84921SOL     OW56536   1.433   4.850   3.430
84921SOL    HW156537   1.396   4.889   3.351
84921SOL    HW256538   1.501   4.791   3.398
84922SOL     OW56539  14.037   5.494   4.695
84922SOL    HW156540  14.042   5.590   4.702
84922SOL    HW256541  13.995   5.479   4.610
84923SOL     OW56542   0.638   9.989  11.156
84923SOL    HW156543   0.650  10.054  11.087
84923SOL    HW256544   0.551  10.007  11.190
84924SOL     OW56545   7.918   2.685  14.503
84924SOL    HW156546   7.968   2.604  14.515
84924SOL    HW256547   7.918   2.699  14.408
84925SOL     OW56548   2.154   9.414  10.248
84925SOL    HW156549   2.189   9.475  10.184
84925SOL    HW256550   2.206   9.335  10.238
84926SOL     OW56551   8.038   7.253   1.284
84926SOL    HW156552   7.967   7.315   1.267
84926SOL    HW256553   8.019   7.218   1.371
84927SOL     OW56554   4.881   8.818   4.706
84927SOL    HW156555   4.801   8.785   4.665
84927SOL    HW256556   4.850   8.880   4.772
84928SOL     OW56557   8.294   5.207   2.750
84928SOL    HW156558   8.232   5.210   2.823
84928SOL    HW256559   8.241   5.227   2.673
84929SOL     OW56560   3.450  14.597   4.661
84929SOL    HW156561   3.359  14.617   4.684
84929SOL    HW256562   3.501  14.641   4.730
84930SOL     OW56563   5.791   6.481  13.173
84930SOL    HW156564   5.828   6.408  13.222
84930SOL    HW256565   5.844   6.557  13.200
84931SOL     OW56566   5.910   0.510   0.881
84931SOL    HW156567   5.979   0.479   0.940
84931SOL    HW256568   5.851   0.435   0.872
84932SOL     OW56569   7.116   1.882   2.651
84932SOL    HW156570   7.141   1.929   2.571
84932SOL    HW256571   7.152   1.794   2.639
84933SOL     OW56572  12.178   4.138   1.406
84933SOL    HW156573  12.217   4.065   1.454
84933SOL    HW256574  12.084   4.118   1.403
84934SOL     OW56575   5.426  13.546   8.616
84934SOL    HW156576   5.497  13.599   8.652
84934SOL    HW256577   5.430  13.464   8.666
84935SOL     OW56578   0.176   9.961  10.670
84935SOL    HW156579   0.200   9.986  10.581
84935SOL    HW256580   0.251   9.911  10.702
84936SOL     OW56581   8.394  11.987   0.908
84936SOL    HW156582   8.408  12.072   0.868
84936SOL    HW256583   8.478  11.942   0.899
84937SOL     OW56584  13.249  12.100   1.228
84937SOL    HW156585  13.221  12.156   1.301
84937SOL    HW256586  13.296  12.027   1.270
84938SOL     OW56587  12.483   7.450   6.547
84938SOL    HW156588  12.438   7.445   6.463
84938SOL    HW256589  12.455   7.534   6.584
84939SOL     OW56590   8.448   4.341   1.450
84939SOL    HW156591   8.488   4.377   1.371
84939SOL    HW256592   8.443   4.247   1.434
84940SOL     OW56593   4.279  14.249  12.939
84940SOL    HW156594   4.244  14.214  12.857
84940SOL    HW256595   4.370  14.221  12.940
84941SOL     OW56596   0.749   5.392   5.904
84941SOL    HW156597   0.707   5.362   5.823
84941SOL    HW256598   0.822   5.447   5.874
84942SOL     OW56599   6.163   4.055   0.920
84942SOL    HW156600   6.238   3.995   0.920
84942SOL    HW256601   6.103   4.019   0.986
84943SOL     OW56602  12.401   9.900   4.361
84943SOL    HW156603  12.343   9.835   4.321
84943SOL    HW256604  12.488   9.859   4.358
84944SOL     OW56605  10.600   4.481   2.902
84944SOL    HW156606  10.562   4.417   2.962
84944SOL    HW256607  10.694   4.464   2.905
84945SOL     OW56608   4.797   7.989   2.711
84945SOL    HW156609   4.775   8.082   2.722
84945SOL    HW256610   4.891   7.989   2.693
84946SOL     OW56611   7.431   1.026   4.734
84946SOL    HW156612   7.475   0.987   4.810
84946SOL    HW256613   7.474   1.111   4.722
84947SOL     OW56614   4.979   6.007   6.048
84947SOL    HW156615   4.936   6.036   5.967
84947SOL    HW256616   5.053   6.066   6.059
84948SOL     OW56617   8.468   1.292   6.338
84948SOL    HW156618   8.386   1.243   6.339
84948SOL    HW256619   8.456   1.356   6.267
84949SOL     OW56620  13.802   9.857   1.206
84949SOL    HW156621  13.749   9.781   1.184
84949SOL    HW256622  13.813   9.904   1.124
84950SOL     OW56623   1.453   7.948   0.595
84950SOL    HW156624   1.364   7.933   0.625
84950SOL    HW256625   1.472   7.876   0.536
84951SOL     OW56626   4.075   5.335  11.176
84951SOL    HW156627   3.981   5.345  11.190
84951SOL    HW256628   4.083   5.273  11.104
84952SOL     OW56629   0.252   2.207   2.481
84952SOL    HW156630   0.196   2.254   2.419
84952SOL    HW256631   0.337   2.200   2.437
84953SOL     OW56632   5.081   4.994   2.079
84953SOL    HW156633   5.085   4.998   1.984
84953SOL    HW256634   5.129   5.071   2.108
84954SOL     OW56635   8.461   5.351   6.325
84954SOL    HW156636   8.548   5.311   6.327
84954SOL    HW256637   8.453   5.388   6.237
84955SOL     OW56638   2.855   7.498   1.182
84955SOL    HW156639   2.911   7.546   1.121
84955SOL    HW256640   2.818   7.566   1.239
84956SOL     OW56641   5.084  10.100  12.838
84956SOL    HW156642   5.167  10.103  12.887
84956SOL    HW256643   5.043  10.185  12.857
84957SOL     OW56644   3.232  14.509   7.088
84957SOL    HW156645   3.235  14.588   7.142
84957SOL    HW256646   3.239  14.541   6.998
84958SOL     OW56647   9.365   7.279   8.555
84958SOL    HW156648   9.410   7.330   8.622
84958SOL    HW256649   9.275   7.311   8.556
84959SOL     OW56650   3.499   8.214   2.555
84959SOL    HW156651   3.565   8.228   2.487
84959SOL    HW256652   3.537   8.252   2.634
84960SOL     OW56653   7.934  10.019   1.488
84960SOL    HW156654   8.023  10.009   1.453
84960SOL    HW256655   7.904   9.929   1.502
84961SOL     OW56656   5.507   8.329   5.251
84961SOL    HW156657   5.497   8.322   5.346
84961SOL    HW256658   5.537   8.418   5.237
84962SOL     OW56659   0.830  10.257   5.771
84962SOL    HW156660   0.908  10.232   5.722
84962SOL    HW256661   0.769  10.288   5.705
84963SOL     OW56662   8.147   9.434  10.192
84963SOL    HW156663   8.055   9.436  10.218
84963SOL    HW256664   8.147   9.390  10.107
84964SOL     OW56665   2.500   1.195  12.218
84964SOL    HW156666   2.425   1.149  12.178
84964SOL    HW256667   2.576   1.164  12.168
84965SOL     OW56668   1.294   4.654   6.017
84965SOL    HW156669   1.377   4.677   5.975
84965SOL    HW256670   1.266   4.575   5.971
84966SOL     OW56671  12.506   0.396  13.398
84966SOL    HW156672  12.454   0.472  13.373
84966SOL    HW256673  12.492   0.333  13.327
84967SOL     OW56674   1.319  10.680   9.653
84967SOL    HW156675   1.318  10.611   9.720
84967SOL    HW256676   1.234  10.723   9.662
84968SOL     OW56677   9.682   3.361   7.927
84968SOL    HW156678   9.777   3.371   7.936
84968SOL    HW256679   9.668   3.358   7.832
84969SOL     OW56680   5.353   1.087   4.556
84969SOL    HW156681   5.339   1.154   4.623
84969SOL    HW256682   5.317   1.007   4.593
84970SOL     OW56683   9.705   9.083   1.305
84970SOL    HW156684   9.684   9.032   1.383
84970SOL    HW256685   9.642   9.155   1.305
84971SOL     OW56686   6.459   1.375  10.323
84971SOL    HW156687   6.438   1.307  10.387
84971SOL    HW256688   6.497   1.328  10.249
84972SOL     OW56689   9.037   5.795  10.199
84972SOL    HW156690   8.951   5.762  10.225
84972SOL    HW256691   9.088   5.717  10.178
84973SOL     OW56692   6.772   4.638   4.372
84973SOL    HW156693   6.763   4.731   4.351
84973SOL    HW256694   6.838   4.606   4.312
84974SOL     OW56695   4.237  14.815   2.441
84974SOL    HW156696   4.162  14.810   2.380
84974SOL    HW256697   4.227   0.019   2.483
84975SOL     OW56698   1.114  11.622   3.068
84975SOL    HW156699   1.027  11.600   3.034
84975SOL    HW256700   1.104  11.617   3.163
84976SOL     OW56701   0.041   5.432   4.781
84976SOL    HW156702   0.074   5.499   4.722
84976SOL    HW256703   0.036   5.475   4.867
84977SOL     OW56704   5.363   2.619   4.677
84977SOL    HW156705   5.344   2.584   4.765
84977SOL    HW256706   5.446   2.578   4.653
84978SOL     OW56707  14.123   8.217   3.820
84978SOL    HW156708  14.130   8.123   3.837
84978SOL    HW256709  14.172   8.229   3.738
84979SOL     OW56710  11.204   3.212   4.438
84979SOL    HW156711  11.267   3.255   4.379
84979SOL    HW256712  11.216   3.255   4.522
84980SOL     OW56713  12.989   0.008   9.178
84980SOL    HW156714  12.940   0.090   9.184
84980SOL    HW256715  13.044   0.019   9.101
84981SOL     OW56716  13.179  12.941   5.252
84981SOL    HW156717  13.257  12.954   5.197
84981SOL    HW256718  13.214  12.927   5.340
84982SOL     OW56719  12.093   0.836  11.729
84982SOL    HW156720  12.066   0.754  11.688
84982SOL    HW256721  12.059   0.904  11.672
84983SOL     OW56722   4.026   7.588  13.642
84983SOL    HW156723   4.038   7.682  13.625
84983SOL    HW256724   4.107   7.548  13.609
84984SOL     OW56725  11.277  14.262  13.513
84984SOL    HW156726  11.293  14.299  13.601
84984SOL    HW256727  11.227  14.330  13.468
84985SOL     OW56728   6.455  12.059   7.490
84985SOL    HW156729   6.409  12.120   7.433
84985SOL    HW256730   6.415  11.974   7.472
84986SOL     OW56731   0.321   9.263  13.601
84986SOL    HW156732   0.342   9.186  13.548
84986SOL    HW256733   0.395   9.272  13.662
84987SOL     OW56734   5.188   9.256  12.598
84987SOL    HW156735   5.255   9.190  12.611
84987SOL    HW256736   5.109   9.207  12.574
84988SOL     OW56737  13.536   0.966   4.950
84988SOL    HW156738  13.510   1.049   4.910
84988SOL    HW256739  13.472   0.902   4.918
84989SOL     OW56740   1.614   3.228  13.972
84989SOL    HW156741   1.599   3.227  14.066
84989SOL    HW256742   1.707   3.244  13.962
84990SOL     OW56743  14.383   6.855   3.713
84990SOL    HW156744  14.422   6.910   3.780
84990SOL    HW256745  14.393   6.904   3.632
84991SOL     OW56746   8.515  10.714   3.719
84991SOL    HW156747   8.429  10.675   3.731
84991SOL    HW256748   8.536  10.699   3.627
84992SOL     OW56749   9.129   6.949   7.629
84992SOL    HW156750   9.175   6.872   7.598
84992SOL    HW256751   9.159   7.020   7.572
84993SOL     OW56752  10.257  14.423   0.080
84993SOL    HW156753  10.225  14.334   0.066
84993SOL    HW256754  10.187  14.466   0.129
84994SOL     OW56755   3.077  14.187   4.415
84994SOL    HW156756   3.152  14.126   4.419
84994SOL    HW256757   3.094  14.249   4.486
84995SOL     OW56758  11.590  13.116  13.479
84995SOL    HW156759  11.635  13.158  13.552
84995SOL    HW256760  11.639  13.036  13.462
84996SOL     OW56761   3.961   1.353  10.219
84996SOL    HW156762   4.012   1.433  10.209
84996SOL    HW256763   3.941   1.349  10.313
84997SOL     OW56764  13.138  11.990   7.717
84997SOL    HW156765  13.157  11.967   7.808
84997SOL    HW256766  13.206  11.947   7.666
84998SOL     OW56767   5.451   8.827   3.861
84998SOL    HW156768   5.365   8.848   3.899
84998SOL    HW256769   5.487   8.761   3.921
84999SOL     OW56770  14.658   4.292   6.550
84999SOL    HW156771  14.719   4.291   6.623
84999SOL    HW256772  14.614   4.377   6.556
85000SOL     OW56773   1.556   2.157   6.693
85000SOL    HW156774   1.632   2.114   6.732
85000SOL    HW256775   1.574   2.156   6.599
85001SOL     OW56776   0.736  12.044   2.818
85001SOL    HW156777   0.793  11.967   2.810
85001SOL    HW256778   0.712  12.046   2.910
85002SOL     OW56779   5.062   5.826   8.414
85002SOL    HW156780   5.096   5.894   8.472
85002SOL    HW256781   5.134   5.806   8.354
85003SOL     OW56782  14.823   2.980   4.232
85003SOL    HW156783  14.870   3.062   4.242
85003SOL    HW256784  14.843   2.951   4.144
85004SOL     OW56785  11.180  14.035   1.906
85004SOL    HW156786  11.202  14.100   1.839
85004SOL    HW256787  11.192  13.951   1.862
85005SOL     OW56788  12.909   5.564  13.931
85005SOL    HW156789  12.879   5.594  14.017
85005SOL    HW256790  12.904   5.641  13.875
85006SOL     OW56791   8.069   4.085   2.577
85006SOL    HW156792   8.069   3.994   2.606
85006SOL    HW256793   8.090   4.135   2.656
85007SOL     OW56794   2.306  10.515   7.166
85007SOL    HW156795   2.248  10.539   7.093
85007SOL    HW256796   2.253  10.530   7.244
85008SOL     OW56797  11.828   4.002   4.770
85008SOL    HW156798  11.915   3.992   4.809
85008SOL    HW256799  11.769   3.959   4.832
85009SOL     OW56800   1.566   1.083   3.252
85009SOL    HW156801   1.655   1.090   3.287
85009SOL    HW256802   1.556   0.991   3.229
85010SOL     OW56803  14.551   8.243   6.785
85010SOL    HW156804  14.511   8.306   6.725
85010SOL    HW256805  14.630   8.214   6.739
85011SOL     OW56806   3.755   6.334  13.307
85011SOL    HW156807   3.713   6.274  13.246
85011SOL    HW256808   3.687   6.398  13.329
85012SOL     OW56809   4.470   2.154   6.290
85012SOL    HW156810   4.492   2.076   6.240
85012SOL    HW256811   4.499   2.135   6.379
85013SOL     OW56812   1.772   4.102  11.471
85013SOL    HW156813   1.770   4.145  11.556
85013SOL    HW256814   1.860   4.064  11.465
85014SOL     OW56815  10.062  11.152  10.697
85014SOL    HW156816   9.984  11.116  10.739
85014SOL    HW256817  10.135  11.121  10.751
85015SOL     OW56818   8.631   1.298   7.336
85015SOL    HW156819   8.627   1.222   7.394
85015SOL    HW256820   8.636   1.261   7.248
85016SOL     OW56821   7.462   3.995   2.791
85016SOL    HW156822   7.489   4.071   2.740
85016SOL    HW256823   7.533   3.931   2.779
85017SOL     OW56824   2.938   0.216   4.430
85017SOL    HW156825   2.918   0.123   4.433
85017SOL    HW256826   2.907   0.251   4.514
85018SOL     OW56827   4.915   1.670  14.305
85018SOL    HW156828   4.925   1.741  14.242
85018SOL    HW256829   5.005   1.649  14.332
85019SOL     OW56830   2.006   2.745  12.531
85019SOL    HW156831   1.966   2.710  12.611
85019SOL    HW256832   2.078   2.799  12.561
85020SOL     OW56833   8.063   5.403   6.764
85020SOL    HW156834   8.049   5.457   6.842
85020SOL    HW256835   7.996   5.335   6.769
85021SOL     OW56836   3.175  14.299   2.253
85021SOL    HW156837   3.129  14.245   2.318
85021SOL    HW256838   3.105  14.342   2.204
85022SOL     OW56839  13.149   6.155   5.514
85022SOL    HW156840  13.241   6.143   5.491
85022SOL    HW256841  13.135   6.095   5.587
85023SOL     OW56842   9.369   0.403   5.224
85023SOL    HW156843   9.290   0.350   5.227
85023SOL    HW256844   9.440   0.343   5.246
85024SOL     OW56845   3.156  11.966   5.543
85024SOL    HW156846   3.061  11.964   5.528
85024SOL    HW256847   3.192  11.996   5.460
85025SOL     OW56848   4.780   2.068   2.925
85025SOL    HW156849   4.795   2.117   3.006
85025SOL    HW256850   4.692   2.031   2.935
85026SOL     OW56851   9.001   4.437   0.483
85026SOL    HW156852   9.012   4.469   0.573
85026SOL    HW256853   9.025   4.345   0.487
85027SOL     OW56854  14.662   4.298   6.927
85027SOL    HW156855  14.671   4.393   6.940
85027SOL    HW256856  14.575   4.287   6.889
85028SOL     OW56857  14.667  10.294  14.324
85028SOL    HW156858  14.678  10.372  14.270
85028SOL    HW256859  14.589  10.312  14.377
85029SOL     OW56860   4.647   6.397   3.190
85029SOL    HW156861   4.718   6.416   3.129
85029SOL    HW256862   4.621   6.482   3.224
85030SOL     OW56863   6.162   4.830  10.998
85030SOL    HW156864   6.089   4.892  10.992
85030SOL    HW256865   6.176   4.817  11.091
85031SOL     OW56866  10.311  11.264  10.027
85031SOL    HW156867  10.352  11.186  10.064
85031SOL    HW256868  10.291  11.319  10.102
85032SOL     OW56869   6.070   6.213   5.454
85032SOL    HW156870   6.008   6.250   5.392
85032SOL    HW256871   6.151   6.262   5.440
85033SOL     OW56872   6.615  10.938  14.307
85033SOL    HW156873   6.612  10.930  14.211
85033SOL    HW256874   6.603  10.849  14.339
85034SOL     OW56875   1.525   2.351   4.535
85034SOL    HW156876   1.465   2.308   4.474
85034SOL    HW256877   1.513   2.444   4.520
85035SOL     OW56878   8.184   2.234  13.370
85035SOL    HW156879   8.174   2.152  13.322
85035SOL    HW256880   8.177   2.209  13.462
85036SOL     OW56881   3.384  11.445   5.405
85036SOL    HW156882   3.435  11.524   5.385
85036SOL    HW256883   3.316  11.475   5.465
85037SOL     OW56884   8.607   8.528   8.816
85037SOL    HW156885   8.559   8.609   8.797
85037SOL    HW256886   8.659   8.512   8.738
85038SOL     OW56887  10.526   7.594  12.628
85038SOL    HW156888  10.564   7.507  12.613
85038SOL    HW256889  10.525   7.635  12.542
85039SOL     OW56890   2.897   2.544  10.564
85039SOL    HW156891   2.954   2.474  10.531
85039SOL    HW256892   2.817   2.537  10.511
85040SOL     OW56893  11.566   1.747   9.693
85040SOL    HW156894  11.630   1.678   9.716
85040SOL    HW256895  11.600   1.785   9.612
85041SOL     OW56896   3.974   9.214   7.446
85041SOL    HW156897   3.975   9.248   7.535
85041SOL    HW256898   3.882   9.202   7.425
85042SOL     OW56899   4.663  10.281   6.625
85042SOL    HW156900   4.737  10.342   6.629
85042SOL    HW256901   4.690  10.216   6.560
85043SOL     OW56902  12.264   6.048  13.442
85043SOL    HW156903  12.247   6.127  13.492
85043SOL    HW256904  12.359   6.044  13.434
85044SOL     OW56905   3.159   3.432   6.399
85044SOL    HW156906   3.093   3.364   6.410
85044SOL    HW256907   3.240   3.385   6.380
85045SOL     OW56908   7.831   4.045   2.790
85045SOL    HW156909   7.926   4.038   2.800
85045SOL    HW256910   7.807   3.967   2.739
85046SOL     OW56911  13.767   5.903   7.555
85046SOL    HW156912  13.694   5.949   7.512
85046SOL    HW256913  13.727   5.827   7.596
85047SOL     OW56914   9.150   5.032   5.317
85047SOL    HW156915   9.196   4.948   5.322
85047SOL    HW256916   9.216   5.093   5.284
85048SOL     OW56917   9.879   1.338   6.414
85048SOL    HW156918   9.950   1.402   6.412
85048SOL    HW256919   9.818   1.368   6.346
85049SOL     OW56920  14.221   0.310   2.546
85049SOL    HW156921  14.160   0.253   2.498
85049SOL    HW256922  14.295   0.320   2.487
85050SOL     OW56923  11.399  12.212   8.568
85050SOL    HW156924  11.309  12.184   8.553
85050SOL    HW256925  11.452  12.152   8.517
85051SOL     OW56926  11.732   9.289  12.931
85051SOL    HW156927  11.827   9.292  12.924
85051SOL    HW256928  11.704   9.243  12.852
85052SOL     OW56929  14.346  11.864   1.209
85052SOL    HW156930  14.371  11.843   1.119
85052SOL    HW256931  14.280  11.933   1.200
85053SOL     OW56932  14.069   0.888  10.510
85053SOL    HW156933  14.012   0.894  10.587
85053SOL    HW256934  14.057   0.799  10.478
85054SOL     OW56935   3.261  11.291  10.462
85054SOL    HW156936   3.266  11.200  10.435
85054SOL    HW256937   3.172  11.317  10.441
85055SOL     OW56938   8.880   4.065  10.363
85055SOL    HW156939   8.884   3.980  10.319
85055SOL    HW256940   8.911   4.128  10.298
85056SOL     OW56941   3.313   5.162   7.158
85056SOL    HW156942   3.407   5.175   7.161
85056SOL    HW256943   3.295   5.101   7.230
85057SOL     OW56944   7.594  12.396   4.931
85057SOL    HW156945   7.578  12.374   4.839
85057SOL    HW256946   7.597  12.491   4.933
85058SOL     OW56947   0.484   8.383   4.472
85058SOL    HW156948   0.512   8.457   4.526
85058SOL    HW256949   0.516   8.405   4.384
85059SOL     OW56950  10.061  12.854  14.074
85059SOL    HW156951  10.107  12.920  14.021
85059SOL    HW256952  10.102  12.861  14.161
85060SOL     OW56953   1.329  10.678   2.310
85060SOL    HW156954   1.418  10.669   2.277
85060SOL    HW256955   1.340  10.722   2.395
85061SOL     OW56956   2.487   4.810   7.354
85061SOL    HW156957   2.434   4.888   7.334
85061SOL    HW256958   2.568   4.845   7.391
85062SOL     OW56959   1.044  10.791   0.134
85062SOL    HW156960   1.061  10.750   0.050
85062SOL    HW256961   1.044  10.718   0.197
85063SOL     OW56962   1.247  11.485   6.845
85063SOL    HW156963   1.299  11.502   6.767
85063SOL    HW256964   1.300  11.517   6.917
85064SOL     OW56965   6.620  10.629   1.896
85064SOL    HW156966   6.647  10.617   1.987
85064SOL    HW256967   6.696  10.601   1.845
85065SOL     OW56968   9.722   0.164   0.442
85065SOL    HW156969   9.659   0.158   0.515
85065SOL    HW256970   9.688   0.234   0.387
85066SOL     OW56971   2.572   4.479   1.005
85066SOL    HW156972   2.606   4.552   1.057
85066SOL    HW256973   2.650   4.435   0.971
85067SOL     OW56974  11.642  14.478   0.804
85067SOL    HW156975  11.635  14.467   0.709
85067SOL    HW256976  11.730  14.513   0.818
85068SOL     OW56977  12.459   3.569   7.031
85068SOL    HW156978  12.480   3.508   7.101
85068SOL    HW256979  12.397   3.522   6.976
85069SOL     OW56980  12.802   8.057   3.008
85069SOL    HW156981  12.741   8.026   2.940
85069SOL    HW256982  12.887   8.061   2.964
85070SOL     OW56983   7.517  13.629   5.248
85070SOL    HW156984   7.534  13.672   5.331
85070SOL    HW256985   7.422  13.638   5.235
85071SOL     OW56986   6.952   1.288  14.135
85071SOL    HW156987   6.979   1.314  14.047
85071SOL    HW256988   6.871   1.239  14.122
85072SOL     OW56989   0.736  13.032  12.537
85072SOL    HW156990   0.760  12.978  12.462
85072SOL    HW256991   0.819  13.053  12.579
85073SOL     OW56992   0.908   7.888  10.070
85073SOL    HW156993   0.922   7.853  10.158
85073SOL    HW256994   0.957   7.828  10.013
85074SOL     OW56995  12.967   1.022  13.062
85074SOL    HW156996  12.926   1.108  13.069
85074SOL    HW256997  13.059   1.040  13.043
85075SOL     OW56998   1.078  14.193   5.180
85075SOL    HW156999   1.167  14.180   5.211
85075SOL    HW257000   1.036  14.108   5.193
85076SOL     OW57001   9.464  11.238   7.808
85076SOL    HW157002   9.452  11.230   7.714
85076SOL    HW257003   9.509  11.321   7.820
85077SOL     OW57004   8.180   8.900   7.117
85077SOL    HW157005   8.122   8.861   7.183
85077SOL    HW257006   8.130   8.974   7.083
85078SOL     OW57007  13.858  10.138   1.915
85078SOL    HW157008  13.899  10.211   1.869
85078SOL    HW257009  13.766  10.163   1.922
85079SOL     OW57010   6.315   6.292   6.178
85079SOL    HW157011   6.282   6.245   6.254
85079SOL    HW257012   6.398   6.329   6.207
85080SOL     OW57013   8.206   8.934  10.053
85080SOL    HW157014   8.288   8.901  10.017
85080SOL    HW257015   8.148   8.941   9.978
85081SOL     OW57016   8.805   3.022  10.846
85081SOL    HW157017   8.729   3.046  10.792
85081SOL    HW257018   8.766   2.978  10.922
85082SOL     OW57019   9.107   7.845   6.248
85082SOL    HW157020   9.075   7.786   6.180
85082SOL    HW257021   9.164   7.907   6.201
85083SOL     OW57022   7.065  14.407   5.167
85083SOL    HW157023   7.072  14.350   5.090
85083SOL    HW257024   7.104  14.356   5.238
85084SOL     OW57025   2.110   7.417   7.019
85084SOL    HW157026   2.170   7.471   6.968
85084SOL    HW257027   2.162   7.384   7.092
85085SOL     OW57028   9.526  11.301   5.815
85085SOL    HW157029   9.484  11.387   5.811
85085SOL    HW257030   9.598  11.306   5.752
85086SOL     OW57031   3.141   1.731   2.162
85086SOL    HW157032   3.104   1.755   2.077
85086SOL    HW257033   3.137   1.811   2.213
85087SOL     OW57034  14.182  13.027   1.675
85087SOL    HW157035  14.141  13.097   1.726
85087SOL    HW257036  14.274  13.029   1.701
85088SOL     OW57037  10.422  11.178   7.284
85088SOL    HW157038  10.361  11.125   7.233
85088SOL    HW257039  10.450  11.121   7.355
85089SOL     OW57040   2.653   0.178   0.208
85089SOL    HW157041   2.685   0.224   0.285
85089SOL    HW257042   2.683   0.230   0.134
85090SOL     OW57043   5.883   2.807  10.231
85090SOL    HW157044   5.895   2.902  10.229
85090SOL    HW257045   5.934   2.778  10.306
85091SOL     OW57046   0.607   3.321   0.722
85091SOL    HW157047   0.559   3.250   0.765
85091SOL    HW257048   0.665   3.355   0.790
85092SOL     OW57049  13.267   5.808   9.908
85092SOL    HW157050  13.298   5.835   9.995
85092SOL    HW257051  13.338   5.832   9.849
85093SOL     OW57052   3.940   4.472   6.142
85093SOL    HW157053   3.854   4.486   6.180
85093SOL    HW257054   3.991   4.432   6.212
85094SOL     OW57055   3.182   9.130   0.297
85094SOL    HW157056   3.094   9.167   0.301
85094SOL    HW257057   3.176   9.048   0.346
85095SOL     OW57058  13.483   9.267   4.177
85095SOL    HW157059  13.396   9.232   4.192
85095SOL    HW257060  13.531   9.196   4.133
85096SOL     OW57061   6.782  12.799  14.226
85096SOL    HW157062   6.754  12.843  14.146
85096SOL    HW257063   6.853  12.854  14.260
85097SOL     OW57064   2.930   7.580   4.588
85097SOL    HW157065   2.944   7.494   4.548
85097SOL    HW257066   2.999   7.635   4.549
85098SOL     OW57067  14.287   0.184   5.201
85098SOL    HW157068  14.259   0.222   5.117
85098SOL    HW257069  14.256   0.094   5.198
85099SOL     OW57070   6.348  14.406   3.634
85099SOL    HW157071   6.394  14.477   3.589
85099SOL    HW257072   6.336  14.339   3.568
85100SOL     OW57073   7.080   6.418  12.404
85100SOL    HW157074   7.161   6.413  12.455
85100SOL    HW257075   7.109   6.425  12.313
85101SOL     OW57076   8.486   0.523   4.269
85101SOL    HW157077   8.443   0.486   4.192
85101SOL    HW257078   8.482   0.453   4.334
85102SOL     OW57079   1.756   8.380  13.491
85102SOL    HW157080   1.688   8.355  13.554
85102SOL    HW257081   1.717   8.363  13.405
85103SOL     OW57082   9.773   0.416  14.140
85103SOL    HW157083   9.817   0.340  14.177
85103SOL    HW257084   9.843   0.468  14.100
85104SOL     OW57085   1.558   0.653  11.073
85104SOL    HW157086   1.532   0.588  11.138
85104SOL    HW257087   1.562   0.605  10.990
85105SOL     OW57088   6.094  11.179   9.133
85105SOL    HW157089   6.159  11.119   9.094
85105SOL    HW257090   6.058  11.130   9.207
85106SOL     OW57091   3.844  13.120   2.772
85106SOL    HW157092   3.908  13.056   2.739
85106SOL    HW257093   3.771  13.116   2.710
85107SOL     OW57094  11.712   3.845   1.525
85107SOL    HW157095  11.642   3.816   1.467
85107SOL    HW257096  11.744   3.765   1.566
85108SOL     OW57097  11.532  14.149   7.177
85108SOL    HW157098  11.472  14.107   7.239
85108SOL    HW257099  11.516  14.243   7.188
85109SOL     OW57100   6.318  10.337   0.538
85109SOL    HW157101   6.313  10.367   0.447
85109SOL    HW257102   6.377  10.262   0.535
85110SOL     OW57103   9.965   1.105   1.834
85110SOL    HW157104  10.052   1.080   1.802
85110SOL    HW257105   9.982   1.153   1.915
85111SOL     OW57106   7.400  10.517   3.955
85111SOL    HW157107   7.348  10.451   3.909
85111SOL    HW257108   7.356  10.600   3.935
85112SOL     OW57109   3.311   0.342  13.764
85112SOL    HW157110   3.288   0.304  13.679
85112SOL    HW257111   3.228   0.374  13.799
85113SOL     OW57112   2.384  11.403   4.748
85113SOL    HW157113   2.391  11.492   4.712
85113SOL    HW257114   2.343  11.352   4.679
85114SOL     OW57115  10.623  10.238  13.323
85114SOL    HW157116  10.546  10.293  13.332
85114SOL    HW257117  10.685  10.289  13.271
85115SOL     OW57118  13.636  14.841  14.354
85115SOL    HW157119  13.627   0.054  14.345
85115SOL    HW257120  13.565  14.805  14.301
85116SOL     OW57121  13.599  14.464   9.035
85116SOL    HW157122  13.647  14.524   8.977
85116SOL    HW257123  13.607  14.505   9.122
85117SOL     OW57124   2.631   2.488   6.632
85117SOL    HW157125   2.681   2.407   6.629
85117SOL    HW257126   2.636   2.523   6.542
85118SOL     OW57127   8.089  11.717   6.480
85118SOL    HW157128   8.002  11.738   6.448
85118SOL    HW257129   8.136  11.685   6.403
85119SOL     OW57130   8.251  12.578  11.323
85119SOL    HW157131   8.328  12.569  11.266
85119SOL    HW257132   8.176  12.569  11.264
85120SOL     OW57133   5.028  11.711   4.842
85120SOL    HW157134   4.996  11.690   4.929
85120SOL    HW257135   4.974  11.659   4.783
85121SOL     OW57136   2.787   6.237   4.128
85121SOL    HW157137   2.773   6.326   4.096
85121SOL    HW257138   2.882   6.229   4.137
85122SOL     OW57139   3.108   4.657  10.914
85122SOL    HW157140   3.128   4.689  10.826
85122SOL    HW257141   3.078   4.567  10.900
85123SOL     OW57142   6.409  10.714   0.772
85123SOL    HW157143   6.453  10.798   0.768
85123SOL    HW257144   6.471  10.656   0.817
85124SOL     OW57145  12.974   6.143   8.166
85124SOL    HW157146  13.037   6.181   8.226
85124SOL    HW257147  12.931   6.074   8.217
85125SOL     OW57148   1.511   0.742   2.750
85125SOL    HW157149   1.576   0.741   2.819
85125SOL    HW257150   1.503   0.651   2.722
85126SOL     OW57151   2.103   7.733  11.779
85126SOL    HW157152   2.131   7.725  11.688
85126SOL    HW257153   2.019   7.688  11.783
85127SOL     OW57154   8.409   8.761   8.232
85127SOL    HW157155   8.498   8.733   8.256
85127SOL    HW257156   8.354   8.686   8.254
85128SOL     OW57157   1.962   6.627   5.210
85128SOL    HW157158   2.049   6.634   5.248
85128SOL    HW257159   1.944   6.533   5.206
85129SOL     OW57160   7.368   8.949   0.034
85129SOL    HW157161   7.347   8.927  14.825
85129SOL    HW257162   7.290   8.996   0.065
85130SOL     OW57163   0.254   1.145  12.188
85130SOL    HW157164   0.206   1.221  12.221
85130SOL    HW257165   0.318   1.125  12.257
85131SOL     OW57166  11.087   3.562  11.734
85131SOL    HW157167  11.173   3.539  11.699
85131SOL    HW257168  11.026   3.537  11.665
85132SOL     OW57169  14.466   9.726   3.529
85132SOL    HW157170  14.419   9.798   3.571
85132SOL    HW257171  14.397   9.663   3.505
85133SOL     OW57172   2.102   2.818   6.224
85133SOL    HW157173   2.033   2.812   6.291
85133SOL    HW257174   2.178   2.852   6.272
85134SOL     OW57175   0.283   5.840   6.722
85134SOL    HW157176   0.376   5.865   6.718
85134SOL    HW257177   0.285   5.750   6.755
85135SOL     OW57178   7.406   3.931   0.823
85135SOL    HW157179   7.436   4.006   0.771
85135SOL    HW257180   7.378   3.969   0.906
85136SOL     OW57181   1.457   7.687  12.365
85136SOL    HW157182   1.535   7.742  12.363
85136SOL    HW257183   1.432   7.678  12.273
85137SOL     OW57184   1.829   4.952  11.156
85137SOL    HW157185   1.781   4.886  11.106
85137SOL    HW257186   1.762   4.995  11.210
85138SOL     OW57187   8.153  10.049   3.038
85138SOL    HW157188   8.064  10.022   3.017
85138SOL    HW257189   8.208   9.995   2.981
85139SOL     OW57190   4.741   5.271  13.088
85139SOL    HW157191   4.647   5.256  13.095
85139SOL    HW257192   4.774   5.263  13.177
85140SOL     OW57193   8.909   0.011  14.436
85140SOL    HW157194   8.974  14.835  14.396
85140SOL    HW257195   8.839   0.018  14.372
85141SOL     OW57196   2.452   2.739  13.463
85141SOL    HW157197   2.547   2.744  13.455
85141SOL    HW257198   2.420   2.818  13.419
85142SOL     OW57199  12.134  11.730   8.055
85142SOL    HW157200  12.125  11.637   8.035
85142SOL    HW257201  12.147  11.772   7.970
85143SOL     OW57202  10.629  11.713   7.900
85143SOL    HW157203  10.707  11.704   7.955
85143SOL    HW257204  10.572  11.641   7.926
85144SOL     OW57205  13.178   7.355   6.359
85144SOL    HW157206  13.204   7.438   6.399
85144SOL    HW257207  13.134   7.380   6.278
85145SOL     OW57208  12.925   3.750  10.545
85145SOL    HW157209  12.899   3.663  10.514
85145SOL    HW257210  12.858   3.773  10.610
85146SOL     OW57211   7.696  11.322   4.469
85146SOL    HW157212   7.743  11.378   4.531
85146SOL    HW257213   7.761  11.301   4.402
85147SOL     OW57214  13.252  13.520   0.882
85147SOL    HW157215  13.339  13.558   0.894
85147SOL    HW257216  13.262  13.429   0.909
85148SOL     OW57217   2.841   3.776   6.332
85148SOL    HW157218   2.810   3.691   6.302
85148SOL    HW257219   2.935   3.763   6.348
85149SOL     OW57220   4.037   2.233   9.407
85149SOL    HW157221   3.951   2.254   9.372
85149SOL    HW257222   4.065   2.156   9.356
85150SOL     OW57223   7.492  11.447   8.042
85150SOL    HW157224   7.517  11.438   8.134
85150SOL    HW257225   7.540  11.376   7.998
85151SOL     OW57226  10.786   9.992  10.043
85151SOL    HW157227  10.787  10.088  10.049
85151SOL    HW257228  10.693   9.969  10.043
85152SOL     OW57229  11.788   3.485   4.200
85152SOL    HW157230  11.878   3.497   4.229
85152SOL    HW257231  11.795   3.460   4.108
85153SOL     OW57232  11.610   3.113  13.112
85153SOL    HW157233  11.697   3.152  13.114
85153SOL    HW257234  11.561   3.166  13.049
85154SOL     OW57235   2.081  13.766  13.815
85154SOL    HW157236   2.000  13.792  13.859
85154SOL    HW257237   2.146  13.764  13.886
85155SOL     OW57238  12.722   2.741   9.727
85155SOL    HW157239  12.774   2.663   9.707
85155SOL    HW257240  12.674   2.761   9.647
85156SOL     OW57241   9.202   9.017   3.328
85156SOL    HW157242   9.247   8.989   3.407
85156SOL    HW257243   9.120   9.055   3.359
85157SOL     OW57244   1.640  10.806   6.926
85157SOL    HW157245   1.706  10.736   6.931
85157SOL    HW257246   1.562  10.764   6.890
85158SOL     OW57247  11.688  13.263  10.134
85158SOL    HW157248  11.666  13.212  10.057
85158SOL    HW257249  11.728  13.343  10.100
85159SOL     OW57250   5.551  13.532  12.581
85159SOL    HW157251   5.539  13.473  12.506
85159SOL    HW257252   5.639  13.568  12.570
85160SOL     OW57253  14.800   7.469  10.876
85160SOL    HW157254  14.808   7.521  10.956
85160SOL    HW257255  14.881   7.418  10.872
85161SOL     OW57256   5.741   6.055   7.479
85161SOL    HW157257   5.826   6.090   7.454
85161SOL    HW257258   5.711   6.008   7.402
85162SOL     OW57259   5.089  13.703  10.273
85162SOL    HW157260   5.121  13.767  10.209
85162SOL    HW257261   5.108  13.744  10.358
85163SOL     OW57262   6.807  13.223   7.097
85163SOL    HW157263   6.802  13.128   7.102
85163SOL    HW257264   6.734  13.254   7.152
85164SOL     OW57265   4.933   2.609  13.614
85164SOL    HW157266   4.874   2.551  13.663
85164SOL    HW257267   5.016   2.604  13.661
85165SOL     OW57268   7.689   5.720   5.177
85165SOL    HW157269   7.729   5.799   5.214
85165SOL    HW257270   7.732   5.648   5.222
85166SOL     OW57271  12.668   4.523  14.641
85166SOL    HW157272  12.689   4.617  14.645
85166SOL    HW257273  12.653   4.498  14.732
85167SOL     OW57274  11.482   9.894   1.796
85167SOL    HW157275  11.393   9.858   1.804
85167SOL    HW257276  11.478   9.977   1.842
85168SOL     OW57277   7.375  12.525  13.087
85168SOL    HW157278   7.391  12.602  13.033
85168SOL    HW257279   7.302  12.480  13.043
85169SOL     OW57280   2.107  11.153   9.652
85169SOL    HW157281   2.194  11.189   9.638
85169SOL    HW257282   2.105  11.074   9.598
85170SOL     OW57283   0.787  11.928  13.582
85170SOL    HW157284   0.842  11.942  13.659
85170SOL    HW257285   0.844  11.946  13.507
85171SOL     OW57286   9.971   4.675   4.283
85171SOL    HW157287   9.952   4.607   4.218
85171SOL    HW257288   9.885   4.702   4.315
85172SOL     OW57289  13.043  11.424   8.199
85172SOL    HW157290  13.046  11.345   8.253
85172SOL    HW257291  13.068  11.494   8.259
85173SOL     OW57292   0.825   8.836   7.499
85173SOL    HW157293   0.785   8.864   7.581
85173SOL    HW257294   0.907   8.885   7.494
85174SOL     OW57295   2.518   8.192   4.358
85174SOL    HW157296   2.586   8.136   4.322
85174SOL    HW257297   2.503   8.258   4.291
85175SOL     OW57298   4.761   9.734   6.316
85175SOL    HW157299   4.701   9.799   6.278
85175SOL    HW257300   4.736   9.730   6.408
85176SOL     OW57301   1.804   7.904   6.715
85176SOL    HW157302   1.876   7.876   6.772
85176SOL    HW257303   1.789   7.996   6.738
85177SOL     OW57304  12.601   6.626   2.784
85177SOL    HW157305  12.510   6.616   2.812
85177SOL    HW257306  12.597   6.631   2.689
85178SOL     OW57307  13.662  14.167   0.844
85178SOL    HW157308  13.640  14.156   0.752
85178SOL    HW257309  13.719  14.244   0.845
85179SOL     OW57310   2.930  14.530  11.026
85179SOL    HW157311   2.998  14.521  11.093
85179SOL    HW257312   2.862  14.582  11.067
85180SOL     OW57313   7.669  14.088   9.685
85180SOL    HW157314   7.666  14.164   9.744
85180SOL    HW257315   7.585  14.044   9.699
85181SOL     OW57316  13.912  10.641  14.459
85181SOL    HW157317  13.966  10.571  14.496
85181SOL    HW257318  13.837  10.596  14.420
85182SOL     OW57319  11.538  12.448   4.804
85182SOL    HW157320  11.584  12.458   4.721
85182SOL    HW257321  11.601  12.406   4.862
85183SOL     OW57322  12.343  14.438   3.995
85183SOL    HW157323  12.376  14.407   3.911
85183SOL    HW257324  12.418  14.433   4.054
85184SOL     OW57325   5.946   1.679  14.644
85184SOL    HW157326   5.946   1.585  14.661
85184SOL    HW257327   5.953   1.719  14.731
85185SOL     OW57328   2.026   0.370   7.922
85185SOL    HW157329   1.964   0.357   7.994
85185SOL    HW257330   1.988   0.322   7.848
85186SOL     OW57331   8.735  14.281   4.226
85186SOL    HW157332   8.661  14.237   4.184
85186SOL    HW257333   8.754  14.226   4.303
85187SOL     OW57334  14.373   7.762   1.767
85187SOL    HW157335  14.413   7.678   1.747
85187SOL    HW257336  14.281   7.751   1.745
85188SOL     OW57337   8.682   0.434   2.103
85188SOL    HW157338   8.708   0.363   2.161
85188SOL    HW257339   8.696   0.513   2.155
85189SOL     OW57340   7.567  14.692   0.781
85189SOL    HW157341   7.592  14.730   0.698
85189SOL    HW257342   7.476  14.721   0.795
85190SOL     OW57343   0.836  11.605   3.530
85190SOL    HW157344   0.804  11.515   3.525
85190SOL    HW257345   0.927  11.597   3.556
85191SOL     OW57346  12.642  13.119   9.646
85191SOL    HW157347  12.613  13.197   9.598
85191SOL    HW257348  12.642  13.050   9.580
85192SOL     OW57349   4.799   0.640   0.778
85192SOL    HW157350   4.732   0.671   0.718
85192SOL    HW257351   4.877   0.629   0.724
85193SOL     OW57352   7.979   6.449   2.490
85193SOL    HW157353   7.986   6.393   2.412
85193SOL    HW257354   8.011   6.394   2.562
85194SOL     OW57355  14.750   4.998  12.023
85194SOL    HW157356  14.684   4.949  12.072
85194SOL    HW257357  14.739   4.968  11.933
85195SOL     OW57358  10.205  11.157   1.846
85195SOL    HW157359  10.295  11.184   1.828
85195SOL    HW257360  10.213  11.091   1.914
85196SOL     OW57361   9.347   6.596  14.276
85196SOL    HW157362   9.285   6.550  14.220
85196SOL    HW257363   9.420   6.618  14.217
85197SOL     OW57364  14.364  12.665   8.076
85197SOL    HW157365  14.327  12.706   7.998
85197SOL    HW257366  14.434  12.724   8.103
85198SOL     OW57367  14.853  11.616   5.161
85198SOL    HW157368   0.020  11.657   5.232
85198SOL    HW257369  14.768  11.594   5.198
85199SOL     OW57370   3.386   6.691  10.218
85199SOL    HW157371   3.295   6.717  10.206
85199SOL    HW257372   3.397   6.613  10.163
85200SOL     OW57373   8.937  11.711  10.534
85200SOL    HW157374   8.947  11.776  10.464
85200SOL    HW257375   8.864  11.743  10.586
85201SOL     OW57376   1.309  13.360  13.002
85201SOL    HW157377   1.268  13.349  13.087
85201SOL    HW257378   1.391  13.310  13.008
85202SOL     OW57379  14.345   2.246   2.499
85202SOL    HW157380  14.281   2.282   2.438
85202SOL    HW257381  14.341   2.152   2.487
85203SOL     OW57382   6.745  11.386   7.299
85203SOL    HW157383   6.731  11.304   7.252
85203SOL    HW257384   6.829  11.419   7.268
85204SOL     OW57385   9.243   3.387   3.419
85204SOL    HW157386   9.299   3.320   3.458
85204SOL    HW257387   9.180   3.337   3.367
85205SOL     OW57388  10.577   2.822   1.855
85205SOL    HW157389  10.591   2.732   1.825
85205SOL    HW257390  10.531   2.811   1.939
85206SOL     OW57391   9.768   6.495   1.571
85206SOL    HW157392   9.773   6.467   1.663
85206SOL    HW257393   9.676   6.484   1.549
85207SOL     OW57394   9.115   8.023   0.883
85207SOL    HW157395   9.039   8.061   0.840
85207SOL    HW257396   9.118   8.066   0.968
85208SOL     OW57397  11.246   5.334   7.357
85208SOL    HW157398  11.260   5.400   7.290
85208SOL    HW257399  11.288   5.256   7.323
85209SOL     OW57400   6.032   0.169  13.228
85209SOL    HW157401   6.091   0.099  13.200
85209SOL    HW257402   5.951   0.125  13.250
85210SOL     OW57403   7.020   8.024   9.489
85210SOL    HW157404   7.035   8.119   9.493
85210SOL    HW257405   7.055   7.998   9.404
85211SOL     OW57406  10.120   5.769   8.275
85211SOL    HW157407  10.108   5.820   8.355
85211SOL    HW257408  10.152   5.831   8.210
85212SOL     OW57409   2.074   1.089   6.125
85212SOL    HW157410   2.071   1.119   6.034
85212SOL    HW257411   2.162   1.111   6.155
85213SOL     OW57412  11.209   5.673   8.510
85213SOL    HW157413  11.113   5.679   8.502
85213SOL    HW257414  11.229   5.717   8.592
85214SOL     OW57415   3.735   6.969   8.825
85214SOL    HW157416   3.820   6.970   8.782
85214SOL    HW257417   3.734   6.887   8.875
85215SOL     OW57418  11.919   0.392   4.687
85215SOL    HW157419  11.927   0.440   4.604
85215SOL    HW257420  11.833   0.418   4.721
85216SOL     OW57421   8.313   1.013   4.026
85216SOL    HW157422   8.338   1.030   4.117
85216SOL    HW257423   8.294   0.920   4.024
85217SOL     OW57424   3.349   8.793   4.380
85217SOL    HW157425   3.295   8.715   4.391
85217SOL    HW257426   3.311   8.858   4.439
85218SOL     OW57427  13.815  12.050  12.955
85218SOL    HW157428  13.860  12.062  12.871
85218SOL    HW257429  13.881  12.011  13.012
85219SOL     OW57430   3.686  13.586  11.366
85219SOL    HW157431   3.700  13.586  11.271
85219SOL    HW257432   3.590  13.585  11.375
85220SOL     OW57433   6.341   3.323   2.689
85220SOL    HW157434   6.354   3.229   2.682
85220SOL    HW257435   6.422   3.362   2.655
85221SOL     OW57436   1.786   7.169  12.031
85221SOL    HW157437   1.846   7.137  11.964
85221SOL    HW257438   1.834   7.238  12.076
85222SOL     OW57439   0.906   5.466  11.249
85222SOL    HW157440   0.952   5.462  11.165
85222SOL    HW257441   0.916   5.557  11.278
85223SOL     OW57442   4.098  11.931   5.619
85223SOL    HW157443   4.066  11.909   5.532
85223SOL    HW257444   4.020  11.930   5.675
85224SOL     OW57445  13.409   6.000   2.457
85224SOL    HW157446  13.392   5.932   2.392
85224SOL    HW257447  13.392   5.958   2.541
85225SOL     OW57448   4.411  14.810  14.239
85225SOL    HW157449   4.470  14.737  14.220
85225SOL    HW257450   4.450  14.852  14.316
85226SOL     OW57451   5.118   8.440  14.153
85226SOL    HW157452   5.104   8.469  14.243
85226SOL    HW257453   5.208   8.408  14.152
85227SOL     OW57454   9.046   7.124   8.390
85227SOL    HW157455   9.066   7.182   8.463
85227SOL    HW257456   9.132   7.103   8.352
85228SOL     OW57457  13.368   2.360   1.136
85228SOL    HW157458  13.443   2.392   1.085
85228SOL    HW257459  13.408   2.320   1.214
85229SOL     OW57460   7.947  12.884  11.407
85229SOL    HW157461   8.032  12.878  11.363
85229SOL    HW257462   7.963  12.854  11.496
85230SOL     OW57463   4.011  13.214   1.265
85230SOL    HW157464   3.981  13.199   1.354
85230SOL    HW257465   4.067  13.138   1.245
85231SOL     OW57466   1.824   0.052  13.520
85231SOL    HW157467   1.833   0.086  13.609
85231SOL    HW257468   1.885  14.859  13.516
85232SOL     OW57469  10.172   7.595   9.401
85232SOL    HW157470  10.154   7.687   9.423
85232SOL    HW257471  10.149   7.587   9.309
85233SOL     OW57472   6.503  12.226  10.485
85233SOL    HW157473   6.575  12.187  10.535
85233SOL    HW257474   6.424  12.201  10.533
85234SOL     OW57475   4.231   3.140   3.593
85234SOL    HW157476   4.298   3.134   3.661
85234SOL    HW257477   4.236   3.230   3.563
85235SOL     OW57478   6.098  11.431   4.141
85235SOL    HW157479   6.087  11.342   4.176
85235SOL    HW257480   6.136  11.481   4.213
85236SOL     OW57481   6.841   7.790   4.739
85236SOL    HW157482   6.930   7.764   4.715
85236SOL    HW257483   6.825   7.745   4.822
85237SOL     OW57484   9.203   4.629   8.790
85237SOL    HW157485   9.173   4.554   8.740
85237SOL    HW257486   9.142   4.699   8.768
85238SOL     OW57487   0.546  12.051  13.448
85238SOL    HW157488   0.505  12.082  13.528
85238SOL    HW257489   0.621  12.000  13.477
85239SOL     OW57490   0.819   5.883   5.215
85239SOL    HW157491   0.882   5.836   5.270
85239SOL    HW257492   0.766   5.934   5.276
85240SOL     OW57493   5.396  10.104   2.999
85240SOL    HW157494   5.413  10.170   2.931
85240SOL    HW257495   5.435  10.141   3.078
85241SOL     OW57496  13.642  10.436   4.149
85241SOL    HW157497  13.660  10.342   4.154
85241SOL    HW257498  13.728  10.477   4.163
85242SOL     OW57499  12.854   2.473   4.030
85242SOL    HW157500  12.806   2.507   3.954
85242SOL    HW257501  12.828   2.530   4.102
85243SOL     OW57502   4.913   0.285   9.747
85243SOL    HW157503   4.836   0.334   9.776
85243SOL    HW257504   4.976   0.294   9.819
85244SOL     OW57505  12.692   1.357   0.894
85244SOL    HW157506  12.686   1.273   0.849
85244SOL    HW257507  12.718   1.419   0.827
85245SOL     OW57508   8.563   8.689  12.845
85245SOL    HW157509   8.599   8.766  12.888
85245SOL    HW257510   8.639   8.636  12.821
85246SOL     OW57511  14.189  14.381   0.925
85246SOL    HW157512  14.279  14.386   0.958
85246SOL    HW257513  14.197  14.338   0.840
85247SOL     OW57514   7.540  12.355  14.582
85247SOL    HW157515   7.457  12.401  14.572
85247SOL    HW257516   7.520  12.264  14.561
85248SOL     OW57517   6.868   1.453   5.366
85248SOL    HW157518   6.845   1.422   5.454
85248SOL    HW257519   6.917   1.534   5.381
85249SOL     OW57520   7.118   9.147   3.481
85249SOL    HW157521   7.189   9.160   3.419
85249SOL    HW257522   7.051   9.210   3.455
85250SOL     OW57523   0.677  11.216   5.688
85250SOL    HW157524   0.770  11.197   5.695
85250SOL    HW257525   0.665  11.247   5.598
85251SOL     OW57526   7.682   7.311   9.811
85251SOL    HW157527   7.775   7.312   9.832
85251SOL    HW257528   7.662   7.401   9.782
85252SOL     OW57529   6.705   2.486  13.780
85252SOL    HW157530   6.651   2.533  13.843
85252SOL    HW257531   6.734   2.408  13.828
85253SOL     OW57532   7.412   2.208   4.040
85253SOL    HW157533   7.398   2.302   4.046
85253SOL    HW257534   7.431   2.180   4.130
85254SOL     OW57535   5.674   9.715  11.194
85254SOL    HW157536   5.681   9.704  11.289
85254SOL    HW257537   5.597   9.771  11.183
85255SOL     OW57538   6.338  12.948   0.486
85255SOL    HW157539   6.389  13.014   0.533
85255SOL    HW257540   6.384  12.938   0.403
85256SOL     OW57541   1.016   3.823  13.002
85256SOL    HW157542   1.008   3.800  13.095
85256SOL    HW257543   0.938   3.876  12.984
85257SOL     OW57544   5.775   9.956  11.543
85257SOL    HW157545   5.823   9.993  11.618
85257SOL    HW257546   5.806  10.007  11.468
85258SOL     OW57547   2.917   4.669   5.137
85258SOL    HW157548   2.898   4.633   5.224
85258SOL    HW257549   2.955   4.596   5.089
85259SOL     OW57550  14.775   4.831  12.513
85259SOL    HW157551  14.768   4.918  12.473
85259SOL    HW257552  14.692   4.818  12.559
85260SOL     OW57553  13.536   2.826   3.076
85260SOL    HW157554  13.545   2.732   3.096
85260SOL    HW257555  13.541   2.830   2.980
85261SOL     OW57556   5.867   6.407   7.109
85261SOL    HW157557   5.922   6.450   7.174
85261SOL    HW257558   5.928   6.370   7.046
85262SOL     OW57559  13.610   7.585   4.271
85262SOL    HW157560  13.540   7.538   4.316
85262SOL    HW257561  13.691   7.552   4.310
85263SOL     OW57562   5.799   6.883  14.763
85263SOL    HW157563   5.737   6.812  14.745
85263SOL    HW257564   5.772   6.953  14.703
85264SOL     OW57565   4.345   1.503   4.011
85264SOL    HW157566   4.403   1.538   3.944
85264SOL    HW257567   4.257   1.523   3.980
85265SOL     OW57568   0.313   5.950   3.175
85265SOL    HW157569   0.323   6.006   3.252
85265SOL    HW257570   0.253   5.998   3.118
85266SOL     OW57571   3.188  14.050   0.017
85266SOL    HW157572   3.225  14.079  14.815
85266SOL    HW257573   3.101  14.091   0.019
85267SOL     OW57574  10.716   8.726   5.717
85267SOL    HW157575  10.680   8.758   5.799
85267SOL    HW257576  10.689   8.791   5.652
85268SOL     OW57577  10.522   1.901   5.670
85268SOL    HW157578  10.460   1.861   5.609
85268SOL    HW257579  10.500   1.994   5.669
85269SOL     OW57580   3.086   0.218   5.771
85269SOL    HW157581   3.104   0.223   5.865
85269SOL    HW257582   3.120   0.132   5.745
85270SOL     OW57583   7.707   9.708   6.770
85270SOL    HW157584   7.626   9.752   6.747
85270SOL    HW257585   7.687   9.660   6.851
85271SOL     OW57586   6.974   5.088   6.079
85271SOL    HW157587   6.897   5.140   6.102
85271SOL    HW257588   6.948   5.038   6.002
85272SOL     OW57589  13.195  13.059   4.029
85272SOL    HW157590  13.135  13.044   3.956
85272SOL    HW257591  13.269  13.000   4.013
85273SOL     OW57592   1.399   2.875  11.495
85273SOL    HW157593   1.416   2.848  11.585
85273SOL    HW257594   1.317   2.831  11.472
85274SOL     OW57595   4.650  10.697   0.768
85274SOL    HW157596   4.733  10.652   0.786
85274SOL    HW257597   4.601  10.635   0.714
85275SOL     OW57598   6.992   0.234  14.443
85275SOL    HW157599   6.930   0.163  14.458
85275SOL    HW257600   7.045   0.204  14.369
85276SOL     OW57601  10.768  12.968   1.463
85276SOL    HW157602  10.775  12.876   1.440
85276SOL    HW257603  10.674  12.986   1.468
85277SOL     OW57604  12.761   8.404   6.840
85277SOL    HW157605  12.746   8.342   6.769
85277SOL    HW257606  12.780   8.487   6.795
85278SOL     OW57607   3.964   4.865   0.660
85278SOL    HW157608   3.942   4.907   0.743
85278SOL    HW257609   3.929   4.923   0.593
85279SOL     OW57610  11.480   4.994   7.654
85279SOL    HW157611  11.515   4.985   7.743
85279SOL    HW257612  11.392   5.029   7.667
85280SOL     OW57613  10.785   1.473  13.683
85280SOL    HW157614  10.865   1.468  13.734
85280SOL    HW257615  10.802   1.417  13.607
85281SOL     OW57616   4.045   8.923   2.015
85281SOL    HW157617   4.030   8.834   1.983
85281SOL    HW257618   4.126   8.916   2.066
85282SOL     OW57619   2.473   7.968   9.385
85282SOL    HW157620   2.423   7.941   9.308
85282SOL    HW257621   2.531   8.037   9.353
85283SOL     OW57622  12.885  13.567   7.279
85283SOL    HW157623  12.828  13.635   7.242
85283SOL    HW257624  12.845  13.484   7.250
85284SOL     OW57625   8.361   1.258  12.427
85284SOL    HW157626   8.327   1.331  12.478
85284SOL    HW257627   8.413   1.208  12.490
85285SOL     OW57628  13.783   6.433   0.222
85285SOL    HW157629  13.863   6.383   0.206
85285SOL    HW257630  13.812   6.507   0.276
85286SOL     OW57631  12.004   6.422   0.552
85286SOL    HW157632  11.980   6.356   0.617
85286SOL    HW257633  11.980   6.384   0.468
85287SOL     OW57634   6.218   9.718   8.478
85287SOL    HW157635   6.216   9.813   8.474
85287SOL    HW257636   6.215   9.697   8.571
85288SOL     OW57637  10.678   2.881   0.331
85288SOL    HW157638  10.623   2.805   0.309
85288SOL    HW257639  10.615   2.950   0.352
85289SOL     OW57640   3.589   1.605  11.989
85289SOL    HW157641   3.603   1.591  12.083
85289SOL    HW257642   3.655   1.552  11.946
85290SOL     OW57643   8.248   1.650   9.938
85290SOL    HW157644   8.196   1.711   9.885
85290SOL    HW257645   8.194   1.571   9.943
85291SOL     OW57646   0.706   6.368  11.936
85291SOL    HW157647   0.736   6.402  11.852
85291SOL    HW257648   0.639   6.303  11.914
85292SOL     OW57649   2.091  11.886  14.242
85292SOL    HW157650   2.049  11.866  14.157
85292SOL    HW257651   2.048  11.966  14.271
85293SOL     OW57652  12.328   2.317   6.949
85293SOL    HW157653  12.263   2.387   6.941
85293SOL    HW257654  12.393   2.352   7.011
85294SOL     OW57655   4.913  10.418   4.542
85294SOL    HW157656   4.864  10.457   4.469
85294SOL    HW257657   4.997  10.391   4.503
85295SOL     OW57658   7.839   6.780   4.765
85295SOL    HW157659   7.883   6.796   4.681
85295SOL    HW257660   7.888   6.708   4.804
85296SOL     OW57661   0.846   7.957   3.768
85296SOL    HW157662   0.837   7.907   3.687
85296SOL    HW257663   0.796   8.037   3.752
85297SOL     OW57664  13.563   1.960  12.472
85297SOL    HW157665  13.506   1.999  12.538
85297SOL    HW257666  13.652   1.977  12.503
85298SOL     OW57667  11.292   5.765   5.344
85298SOL    HW157668  11.282   5.738   5.253
85298SOL    HW257669  11.288   5.684   5.394
85299SOL     OW57670   7.880   7.116   7.763
85299SOL    HW157671   7.893   7.174   7.837
85299SOL    HW257672   7.867   7.174   7.688
85300SOL     OW57673  13.066   9.370  10.465
85300SOL    HW157674  13.055   9.308  10.537
85300SOL    HW257675  13.062   9.316  10.386
85301SOL     OW57676   2.020   9.117  14.026
85301SOL    HW157677   1.988   9.094  14.113
85301SOL    HW257678   1.990   9.207  14.013
85302SOL     OW57679   9.602  10.693  11.146
85302SOL    HW157680   9.650  10.774  11.127
85302SOL    HW257681   9.665  10.624  11.132
85303SOL     OW57682  13.920   3.629  13.947
85303SOL    HW157683  13.960   3.714  13.932
85303SOL    HW257684  13.878   3.637  14.033
85304SOL     OW57685  11.187   3.061   6.380
85304SOL    HW157686  11.120   3.120   6.345
85304SOL    HW257687  11.174   3.064   6.475
85305SOL     OW57688  11.698  13.783   1.705
85305SOL    HW157689  11.655  13.815   1.626
85305SOL    HW257690  11.786  13.821   1.702
85306SOL     OW57691   2.931  12.737   2.826
85306SOL    HW157692   2.852  12.692   2.798
85306SOL    HW257693   3.002  12.688   2.783
85307SOL     OW57694  10.408  14.687   2.585
85307SOL    HW157695  10.398  14.680   2.680
85307SOL    HW257696  10.343  14.752   2.559
85308SOL     OW57697   8.486   1.602  10.861
85308SOL    HW157698   8.441   1.657  10.797
85308SOL    HW257699   8.574   1.593  10.826
85309SOL     OW57700   2.788   7.140   0.983
85309SOL    HW157701   2.734   7.213   1.015
85309SOL    HW257702   2.800   7.158   0.890
85310SOL     OW57703   0.511  12.942  12.640
85310SOL    HW157704   0.591  12.977  12.601
85310SOL    HW257705   0.493  12.862  12.590
85311SOL     OW57706   8.562  10.799  14.559
85311SOL    HW157707   8.487  10.841  14.517
85311SOL    HW257708   8.616  10.767  14.486
85312SOL     OW57709   2.225   8.342   9.497
85312SOL    HW157710   2.262   8.397   9.427
85312SOL    HW257711   2.290   8.346   9.567
85313SOL     OW57712   8.188   3.674   0.090
85313SOL    HW157713   8.271   3.679   0.138
85313SOL    HW257714   8.154   3.587   0.108
85314SOL     OW57715   4.870  12.740  14.020
85314SOL    HW157716   4.778  12.742  14.046
85314SOL    HW257717   4.880  12.657  13.973
85315SOL     OW57718   8.493   1.140  14.854
85315SOL    HW157719   8.455   1.219  14.817
85315SOL    HW257720   8.442   1.069  14.816
85316SOL     OW57721   2.802   2.973  10.079
85316SOL    HW157722   2.762   2.903  10.028
85316SOL    HW257723   2.856   3.021  10.017
85317SOL     OW57724   6.881   0.985  12.758
85317SOL    HW157725   6.969   0.959  12.788
85317SOL    HW257726   6.836   0.902  12.741
85318SOL     OW57727   3.994   4.457   9.721
85318SOL    HW157728   4.056   4.384   9.724
85318SOL    HW257729   4.015   4.510   9.798
85319SOL     OW57730  12.802   6.748   9.846
85319SOL    HW157731  12.757   6.827   9.876
85319SOL    HW257732  12.850   6.717   9.923
85320SOL     OW57733   3.051  10.713   5.432
85320SOL    HW157734   2.988  10.748   5.495
85320SOL    HW257735   3.109  10.657   5.484
85321SOL     OW57736   0.804  10.308  10.320
85321SOL    HW157737   0.712  10.301  10.297
85321SOL    HW257738   0.835  10.218  10.328
85322SOL     OW57739   4.052   0.904   7.733
85322SOL    HW157740   4.109   0.960   7.680
85322SOL    HW257741   3.988   0.870   7.671
85323SOL     OW57742  11.552   3.238  12.380
85323SOL    HW157743  11.490   3.232  12.453
85323SOL    HW257744  11.545   3.153  12.337
85324SOL     OW57745   5.241   9.166   8.369
85324SOL    HW157746   5.231   9.126   8.455
85324SOL    HW257747   5.154   9.202   8.349
85325SOL     OW57748  12.170   8.124  10.454
85325SOL    HW157749  12.232   8.144  10.525
85325SOL    HW257750  12.092   8.176  10.476
85326SOL     OW57751   8.238  12.647   8.824
85326SOL    HW157752   8.262  12.715   8.761
85326SOL    HW257753   8.143  12.657   8.835
85327SOL     OW57754   9.647   8.944   7.422
85327SOL    HW157755   9.576   8.909   7.368
85327SOL    HW257756   9.603   8.978   7.500
85328SOL     OW57757  11.679   7.966   8.404
85328SOL    HW157758  11.719   8.048   8.374
85328SOL    HW257759  11.744   7.927   8.461
85329SOL     OW57760  12.648   8.936   9.621
85329SOL    HW157761  12.673   8.856   9.666
85329SOL    HW257762  12.561   8.957   9.655
85330SOL     OW57763   3.247  12.892   6.183
85330SOL    HW157764   3.316  12.939   6.138
85330SOL    HW257765   3.277  12.801   6.185
85331SOL     OW57766  10.849  11.871   1.152
85331SOL    HW157767  10.838  11.903   1.062
85331SOL    HW257768  10.770  11.820   1.169
85332SOL     OW57769   4.046   6.019   7.002
85332SOL    HW157770   4.068   6.106   7.036
85332SOL    HW257771   3.951   6.020   6.994
85333SOL     OW57772   7.318   5.633   4.239
85333SOL    HW157773   7.274   5.687   4.305
85333SOL    HW257774   7.264   5.641   4.161
85334SOL     OW57775  10.752  14.635  12.894
85334SOL    HW157776  10.750  14.604  12.985
85334SOL    HW257777  10.822  14.584  12.853
85335SOL     OW57778  12.999   8.324  13.604
85335SOL    HW157779  12.908   8.296  13.604
85335SOL    HW257780  12.995   8.419  13.614
85336SOL     OW57781  10.261  11.684   5.492
85336SOL    HW157782  10.179  11.704   5.536
85336SOL    HW257783  10.327  11.736   5.539
85337SOL     OW57784  11.327   6.273   0.799
85337SOL    HW157785  11.277   6.227   0.866
85337SOL    HW257786  11.415   6.235   0.804
85338SOL     OW57787  13.144   6.072  13.560
85338SOL    HW157788  13.228   6.112  13.540
85338SOL    HW257789  13.158   5.978  13.548
85339SOL     OW57790  12.044   5.692   7.963
85339SOL    HW157791  12.056   5.692   7.868
85339SOL    HW257792  12.049   5.784   7.988
85340SOL     OW57793   5.112  12.905   0.362
85340SOL    HW157794   5.202  12.875   0.370
85340SOL    HW257795   5.101  12.968   0.434
85341SOL     OW57796   8.119  11.528   5.880
85341SOL    HW157797   8.071  11.600   5.839
85341SOL    HW257798   8.190  11.571   5.927
85342SOL     OW57799   9.293  11.063  14.155
85342SOL    HW157800   9.296  11.015  14.238
85342SOL    HW257801   9.360  11.130  14.164
85343SOL     OW57802   7.782  14.560  12.712
85343SOL    HW157803   7.691  14.587  12.710
85343SOL    HW257804   7.832  14.641  12.703
85344SOL     OW57805  10.034   7.205  11.157
85344SOL    HW157806  10.087   7.147  11.212
85344SOL    HW257807  10.041   7.168  11.069
85345SOL     OW57808   4.192   9.978  12.831
85345SOL    HW157809   4.154  10.017  12.910
85345SOL    HW257810   4.275  10.026  12.819
85346SOL     OW57811   4.886  13.637  12.474
85346SOL    HW157812   4.901  13.588  12.393
85346SOL    HW257813   4.962  13.618  12.528
85347SOL     OW57814   4.686   9.142   8.052
85347SOL    HW157815   4.633   9.220   8.034
85347SOL    HW257816   4.624   9.069   8.048
85348SOL     OW57817   3.586   3.848   1.161
85348SOL    HW157818   3.566   3.938   1.139
85348SOL    HW257819   3.526   3.796   1.108
85349SOL     OW57820  13.794   4.051   8.696
85349SOL    HW157821  13.865   4.012   8.644
85349SOL    HW257822  13.808   4.016   8.784
85350SOL     OW57823   1.087  12.284  14.539
85350SOL    HW157824   1.028  12.352  14.508
85350SOL    HW257825   1.054  12.260  14.625
85351SOL     OW57826  11.750   9.937  11.001
85351SOL    HW157827  11.800   9.953  10.921
85351SOL    HW257828  11.779   9.850  11.031
85352SOL     OW57829  14.663  10.837   1.927
85352SOL    HW157830  14.746  10.885   1.928
85352SOL    HW257831  14.600  10.899   1.965
85353SOL     OW57832   4.259   1.100   1.789
85353SOL    HW157833   4.170   1.105   1.823
85353SOL    HW257834   4.293   1.189   1.798
85354SOL     OW57835   2.126  13.546   3.159
85354SOL    HW157836   2.177  13.469   3.134
85354SOL    HW257837   2.037  13.512   3.171
85355SOL     OW57838  12.473  13.948   9.311
85355SOL    HW157839  12.429  14.000   9.378
85355SOL    HW257840  12.406  13.935   9.243
85356SOL     OW57841  10.272  10.848  13.429
85356SOL    HW157842  10.226  10.785  13.484
85356SOL    HW257843  10.338  10.887  13.486
85357SOL     OW57844   2.305  14.816   8.096
85357SOL    HW157845   2.247  14.765   8.153
85357SOL    HW257846   2.266   0.021   8.093
85358SOL     OW57847   0.345   8.206   3.152
85358SOL    HW157848   0.327   8.293   3.186
85358SOL    HW257849   0.358   8.151   3.229
85359SOL     OW57850   1.221   4.801  12.258
85359SOL    HW157851   1.259   4.736  12.317
85359SOL    HW257852   1.128   4.777  12.253
85360SOL     OW57853   4.017   5.517   4.580
85360SOL    HW157854   4.111   5.508   4.567
85360SOL    HW257855   3.999   5.471   4.662
85361SOL     OW57856   1.321   9.402  13.526
85361SOL    HW157857   1.376   9.363  13.593
85361SOL    HW257858   1.301   9.329  13.466
85362SOL     OW57859   9.322   7.341   2.151
85362SOL    HW157860   9.410   7.377   2.138
85362SOL    HW257861   9.274   7.367   2.072
85363SOL     OW57862  10.002   1.174   9.249
85363SOL    HW157863  10.032   1.175   9.340
85363SOL    HW257864   9.934   1.106   9.247
85364SOL     OW57865   7.604   4.082   4.228
85364SOL    HW157866   7.556   4.151   4.181
85364SOL    HW257867   7.536   4.030   4.271
85365SOL     OW57868  10.112   4.929   4.133
85365SOL    HW157869  10.052   4.976   4.191
85365SOL    HW257870  10.056   4.889   4.067
85366SOL     OW57871   4.889  13.228   8.279
85366SOL    HW157872   4.905  13.227   8.184
85366SOL    HW257873   4.800  13.262   8.287
85367SOL     OW57874   7.053   1.980   1.292
85367SOL    HW157875   7.138   1.978   1.336
85367SOL    HW257876   6.998   1.921   1.344
85368SOL     OW57877  10.402   0.656   5.144
85368SOL    HW157878  10.410   0.739   5.189
85368SOL    HW257879  10.379   0.593   5.212
85369SOL     OW57880   6.823  12.049  13.734
85369SOL    HW157881   6.812  12.120  13.671
85369SOL    HW257882   6.760  11.982  13.706
85370SOL     OW57883   4.888   7.675  12.469
85370SOL    HW157884   4.966   7.708  12.425
85370SOL    HW257885   4.844   7.753  12.503
85371SOL     OW57886   8.822  11.997  10.468
85371SOL    HW157887   8.882  11.987  10.394
85371SOL    HW257888   8.737  12.013  10.428
85372SOL     OW57889  14.009   2.866   1.147
85372SOL    HW157890  13.934   2.880   1.205
85372SOL    HW257891  13.971   2.834   1.066
85373SOL     OW57892   8.549   5.972  13.214
85373SOL    HW157893   8.532   6.059  13.178
85373SOL    HW257894   8.462   5.936  13.231
85374SOL     OW57895  10.521  12.778   2.968
85374SOL    HW157896  10.521  12.727   2.887
85374SOL    HW257897  10.471  12.857   2.947
85375SOL     OW57898  12.501   8.666  11.439
85375SOL    HW157899  12.558   8.685  11.365
85375SOL    HW257900  12.547   8.700  11.515
85376SOL     OW57901   0.395   9.558   7.112
85376SOL    HW157902   0.318   9.564   7.169
85376SOL    HW257903   0.462   9.517   7.167
85377SOL     OW57904   6.009  12.349   6.884
85377SOL    HW157905   6.085  12.329   6.939
85377SOL    HW257906   5.940  12.373   6.945
85378SOL     OW57907   2.500   4.987  13.328
85378SOL    HW157908   2.565   5.044  13.288
85378SOL    HW257909   2.474   4.928  13.257
85379SOL     OW57910  13.239   9.748  14.308
85379SOL    HW157911  13.177   9.807  14.266
85379SOL    HW257912  13.315   9.746  14.248
85380SOL     OW57913   5.014   0.709  13.147
85380SOL    HW157914   5.017   0.629  13.199
85380SOL    HW257915   4.942   0.759  13.185
85381SOL     OW57916   6.908   7.574   8.093
85381SOL    HW157917   6.946   7.612   8.172
85381SOL    HW257918   6.832   7.525   8.124
85382SOL     OW57919   2.291   6.543   0.338
85382SOL    HW157920   2.243   6.460   0.347
85382SOL    HW257921   2.250   6.601   0.401
85383SOL     OW57922   0.544  12.194  13.053
85383SOL    HW157923   0.576  12.181  13.142
85383SOL    HW257924   0.557  12.287  13.036
85384SOL     OW57925   2.816   9.411   1.613
85384SOL    HW157926   2.752   9.347   1.584
85384SOL    HW257927   2.884   9.359   1.655
85385SOL     OW57928   6.669   8.551   5.238
85385SOL    HW157929   6.698   8.639   5.262
85385SOL    HW257930   6.586   8.564   5.192
85386SOL     OW57931  10.492  11.974   0.383
85386SOL    HW157932  10.561  11.960   0.447
85386SOL    HW257933  10.534  11.962   0.298
85387SOL     OW57934  13.027   8.148   2.545
85387SOL    HW157935  12.991   8.181   2.463
85387SOL    HW257936  13.100   8.093   2.518
85388SOL     OW57937   7.777   9.941   2.721
85388SOL    HW157938   7.709   9.989   2.768
85388SOL    HW257939   7.843  10.007   2.699
85389SOL     OW57940  12.025   1.840   2.196
85389SOL    HW157941  11.994   1.792   2.273
85389SOL    HW257942  12.032   1.773   2.128
85390SOL     OW57943   0.383   0.035   6.977
85390SOL    HW157944   0.312  14.856   6.958
85390SOL    HW257945   0.462  14.870   6.948
85391SOL     OW57946  13.250  14.315  13.110
85391SOL    HW157947  13.170  14.343  13.067
85391SOL    HW257948  13.228  14.230  13.149
85392SOL     OW57949  13.865   7.584  11.578
85392SOL    HW157950  13.914   7.504  11.559
85392SOL    HW257951  13.896   7.647  11.513
85393SOL     OW57952   0.307   5.514   2.543
85393SOL    HW157953   0.252   5.500   2.620
85393SOL    HW257954   0.244   5.524   2.471
85394SOL     OW57955   9.041   3.177   6.915
85394SOL    HW157956   9.032   3.220   6.830
85394SOL    HW257957   9.134   3.153   6.920
85395SOL     OW57958   6.031   4.158   4.874
85395SOL    HW157959   5.972   4.123   4.941
85395SOL    HW257960   6.060   4.242   4.909
85396SOL     OW57961   8.452   6.632   0.184
85396SOL    HW157962   8.437   6.608   0.276
85396SOL    HW257963   8.366   6.654   0.150
85397SOL     OW57964   2.414   9.255   7.892
85397SOL    HW157965   2.428   9.161   7.902
85397SOL    HW257966   2.357   9.262   7.815
85398SOL     OW57967   2.833   1.682   9.782
85398SOL    HW157968   2.787   1.731   9.714
85398SOL    HW257969   2.878   1.749   9.833
85399SOL     OW57970   6.997  10.224  10.612
85399SOL    HW157971   7.054  10.202  10.685
85399SOL    HW257972   6.919  10.171  10.625
85400SOL     OW57973   7.816  10.776  13.368
85400SOL    HW157974   7.873  10.742  13.436
85400SOL    HW257975   7.874  10.790  13.293
85401SOL     OW57976   8.995   7.403   9.282
85401SOL    HW157977   9.044   7.371   9.357
85401SOL    HW257978   9.024   7.493   9.271
85402SOL     OW57979   7.006   9.541  11.653
85402SOL    HW157980   6.987   9.453  11.619
85402SOL    HW257981   6.931   9.562  11.709
85403SOL     OW57982   0.905  12.843   6.862
85403SOL    HW157983   0.987  12.806   6.829
85403SOL    HW257984   0.845  12.768   6.865
85404SOL     OW57985  10.328   9.225   1.186
85404SOL    HW157986  10.410   9.177   1.193
85404SOL    HW257987  10.261   9.158   1.177
85405SOL     OW57988   7.366  10.613   6.249
85405SOL    HW157989   7.313  10.599   6.170
85405SOL    HW257990   7.345  10.702   6.277
85406SOL     OW57991   2.271  10.013  12.578
85406SOL    HW157992   2.277  10.107  12.565
85406SOL    HW257993   2.200  10.002  12.642
85407SOL     OW57994   5.869   4.470   3.109
85407SOL    HW157995   5.866   4.374   3.116
85407SOL    HW257996   5.962   4.492   3.117
85408SOL     OW57997   9.178   8.266  14.459
85408SOL    HW157998   9.244   8.238  14.523
85408SOL    HW257999   9.223   8.261  14.375
85409SOL     OW58000  12.637   5.393   5.961
85409SOL    HW158001  12.619   5.305   5.995
85409SOL    HW258002  12.698   5.379   5.888
85410SOL     OW58003  14.768   0.487   7.614
85410SOL    HW158004  14.728   0.560   7.566
85410SOL    HW258005  14.845   0.464   7.562
85411SOL     OW58006   7.527   9.656   9.831
85411SOL    HW158007   7.436   9.633   9.846
85411SOL    HW258008   7.525   9.716   9.757
85412SOL     OW58009   5.442   6.114  10.327
85412SOL    HW158010   5.479   6.181  10.270
85412SOL    HW258011   5.515   6.085  10.382
85413SOL     OW58012   5.521   0.157   2.590
85413SOL    HW158013   5.434   0.131   2.620
85413SOL    HW258014   5.547   0.088   2.528
85414SOL     OW58015  11.086   9.766   2.741
85414SOL    HW158016  11.103   9.849   2.785
85414SOL    HW258017  11.073   9.703   2.811
85415SOL     OW58018  14.597   2.785   6.369
85415SOL    HW158019  14.633   2.704   6.405
85415SOL    HW258020  14.503   2.777   6.380
85416SOL     OW58021   7.673  10.086   8.155
85416SOL    HW158022   7.679  10.149   8.227
85416SOL    HW258023   7.592  10.109   8.110
85417SOL     OW58024   2.421  11.401   0.471
85417SOL    HW158025   2.404  11.311   0.499
85417SOL    HW258026   2.497  11.428   0.522
85418SOL     OW58027   8.596   8.555   2.023
85418SOL    HW158028   8.563   8.475   1.983
85418SOL    HW258029   8.553   8.625   1.975
85419SOL     OW58030  12.797  13.108  10.439
85419SOL    HW158031  12.793  13.167  10.364
85419SOL    HW258032  12.849  13.034  10.408
85420SOL     OW58033   3.488   5.909   8.826
85420SOL    HW158034   3.561   5.851   8.846
85420SOL    HW258035   3.492   5.976   8.893
85421SOL     OW58036   7.461  10.457   9.274
85421SOL    HW158037   7.468  10.434   9.181
85421SOL    HW258038   7.549  10.489   9.297
85422SOL     OW58039   4.572   0.899  11.114
85422SOL    HW158040   4.549   0.895  11.021
85422SOL    HW258041   4.667   0.890  11.116
85423SOL     OW58042  14.068  10.638   6.186
85423SOL    HW158043  13.987  10.651   6.137
85423SOL    HW258044  14.137  10.641   6.120
85424SOL     OW58045   9.074   3.878  10.934
85424SOL    HW158046   9.020   3.905  11.007
85424SOL    HW258047   9.146   3.942  10.933
85425SOL     OW58048  13.910  11.260   4.825
85425SOL    HW158049  13.882  11.322   4.891
85425SOL    HW258050  13.870  11.291   4.744
85426SOL     OW58051   9.406   1.492  11.038
85426SOL    HW158052   9.418   1.539  10.956
85426SOL    HW258053   9.440   1.552  11.105
85427SOL     OW58054   5.520   5.491  12.223
85427SOL    HW158055   5.425   5.495  12.235
85427SOL    HW258056   5.532   5.465  12.131
85428SOL     OW58057  10.121   7.759   1.305
85428SOL    HW158058  10.207   7.732   1.339
85428SOL    HW258059  10.130   7.853   1.288
85429SOL     OW58060   0.827   7.035   6.541
85429SOL    HW158061   0.811   7.087   6.462
85429SOL    HW258062   0.817   7.097   6.613
85430SOL     OW58063   8.127  14.437  13.787
85430SOL    HW158064   8.125  14.502  13.858
85430SOL    HW258065   8.039  14.399  13.787
85431SOL     OW58066   3.175   9.234  10.702
85431SOL    HW158067   3.245   9.201  10.759
85431SOL    HW258068   3.219   9.296  10.644
85432SOL     OW58069   5.139   8.807   5.737
85432SOL    HW158070   5.188   8.883   5.708
85432SOL    HW258071   5.206   8.740   5.754
85433SOL     OW58072  13.915   6.466  11.344
85433SOL    HW158073  13.996   6.436  11.385
85433SOL    HW258074  13.846   6.428  11.399
85434SOL     OW58075  12.844   6.060   5.413
85434SOL    HW158076  12.937   6.052   5.433
85434SOL    HW258077  12.810   5.971   5.423
85435SOL     OW58078  13.564   8.147   5.289
85435SOL    HW158079  13.509   8.120   5.363
85435SOL    HW258080  13.553   8.243   5.287
85436SOL     OW58081  13.636   2.786   4.245
85436SOL    HW158082  13.728   2.759   4.243
85436SOL    HW258083  13.606   2.777   4.155
85437SOL     OW58084   6.821  14.558  10.485
85437SOL    HW158085   6.814  14.532  10.393
85437SOL    HW258086   6.871  14.640  10.483
85438SOL     OW58087  11.788   9.409   0.560
85438SOL    HW158088  11.848   9.457   0.617
85438SOL    HW258089  11.783   9.322   0.599
85439SOL     OW58090   9.080  11.337  14.869
85439SOL    HW158091   9.088  11.245  14.843
85439SOL    HW258092   9.076  11.335   0.083
85440SOL     OW58093  11.285  12.893   6.125
85440SOL    HW158094  11.378  12.883   6.145
85440SOL    HW258095  11.241  12.824   6.175
85441SOL     OW58096  12.974  12.984   0.099
85441SOL    HW158097  13.043  13.034   0.144
85441SOL    HW258098  12.898  13.042   0.100
85442SOL     OW58099   6.244  12.900   0.801
85442SOL    HW158100   6.252  12.915   0.707
85442SOL    HW258101   6.191  12.821   0.808
85443SOL     OW58102  10.247   0.135   1.452
85443SOL    HW158103  10.277   0.080   1.524
85443SOL    HW258104  10.274   0.087   1.373
85444SOL     OW58105  14.091  11.725   2.277
85444SOL    HW158106  14.026  11.756   2.340
85444SOL    HW258107  14.050  11.739   2.191
85445SOL     OW58108   0.683   7.546  13.443
85445SOL    HW158109   0.642   7.459  13.444
85445SOL    HW258110   0.619   7.601  13.397
85446SOL     OW58111  13.025   3.132   9.720
85446SOL    HW158112  12.977   3.097   9.795
85446SOL    HW258113  13.027   3.060   9.657
85447SOL     OW58114   2.931   3.308   1.701
85447SOL    HW158115   2.986   3.385   1.718
85447SOL    HW258116   2.908   3.276   1.788
85448SOL     OW58117   7.973   2.846   4.408
85448SOL    HW158118   7.910   2.868   4.339
85448SOL    HW258119   8.048   2.809   4.362
85449SOL     OW58120   7.947   9.834  12.100
85449SOL    HW158121   7.946   9.804  12.191
85449SOL    HW258122   7.905   9.765  12.050
85450SOL     OW58123   7.801  10.294  13.716
85450SOL    HW158124   7.706  10.301  13.704
85450SOL    HW258125   7.811  10.239  13.794
85451SOL     OW58126  11.165  14.021   7.834
85451SOL    HW158127  11.104  14.086   7.799
85451SOL    HW258128  11.245  14.033   7.784
85452SOL     OW58129  12.177  13.257   0.588
85452SOL    HW158130  12.094  13.210   0.591
85452SOL    HW258131  12.242  13.188   0.573
85453SOL     OW58132   2.098  14.390  12.782
85453SOL    HW158133   2.134  14.311  12.822
85453SOL    HW258134   2.139  14.462  12.831
85454SOL     OW58135  14.575   3.866   6.300
85454SOL    HW158136  14.587   3.777   6.266
85454SOL    HW258137  14.548   3.917   6.223
85455SOL     OW58138   6.481   3.810   2.409
85455SOL    HW158139   6.401   3.857   2.435
85455SOL    HW258140   6.527   3.794   2.491
85456SOL     OW58141   2.215   5.469  13.450
85456SOL    HW158142   2.230   5.375  13.457
85456SOL    HW258143   2.302   5.508  13.454
85457SOL     OW58144   6.320  10.925  10.938
85457SOL    HW158145   6.258  10.955  11.004
85457SOL    HW258146   6.290  10.837  10.914
85458SOL     OW58147  10.585   9.763   9.357
85458SOL    HW158148  10.617   9.736   9.271
85458SOL    HW258149  10.496   9.726   9.362
85459SOL     OW58150   2.878   3.279  13.843
85459SOL    HW158151   2.883   3.204  13.903
85459SOL    HW258152   2.963   3.323  13.853
85460SOL     OW58153   5.296   9.097   9.270
85460SOL    HW158154   5.375   9.126   9.225
85460SOL    HW258155   5.310   9.003   9.285
85461SOL     OW58156  14.790   5.990   3.629
85461SOL    HW158157  14.870   6.030   3.664
85461SOL    HW258158  14.816   5.956   3.543
85462SOL     OW58159   4.080  13.523   0.159
85462SOL    HW158160   4.073  13.615   0.184
85462SOL    HW258161   4.106  13.478   0.239
85463SOL     OW58162   2.155  14.293   2.815
85463SOL    HW158163   2.212  14.217   2.804
85463SOL    HW258164   2.070  14.264   2.780
85464SOL     OW58165   6.365  13.463  12.475
85464SOL    HW158166   6.441  13.458  12.416
85464SOL    HW258167   6.340  13.372  12.488
85465SOL     OW58168   7.681  14.718  14.038
85465SOL    HW158169   7.615  14.671  14.089
85465SOL    HW258170   7.631  14.780  13.984
85466SOL     OW58171  11.905   8.286  14.306
85466SOL    HW158172  11.962   8.327  14.371
85466SOL    HW258173  11.964   8.244  14.245
85467SOL     OW58174  11.818   5.793  11.506
85467SOL    HW158175  11.853   5.879  11.532
85467SOL    HW258176  11.751   5.813  11.441
85468SOL     OW58177  14.210   7.054   4.244
85468SOL    HW158178  14.191   7.068   4.151
85468SOL    HW258179  14.266   6.976   4.245
85469SOL     OW58180  13.085   3.654  10.808
85469SOL    HW158181  13.070   3.561  10.824
85469SOL    HW258182  13.070   3.665  10.714
85470SOL     OW58183  11.211   9.192  13.142
85470SOL    HW158184  11.188   9.255  13.211
85470SOL    HW258185  11.127   9.157  13.113
85471SOL     OW58186  11.967   8.713  13.278
85471SOL    HW158187  11.903   8.762  13.329
85471SOL    HW258188  12.035   8.778  13.256
85472SOL     OW58189   1.210   9.948  13.198
85472SOL    HW158190   1.245  10.032  13.169
85472SOL    HW258191   1.126   9.940  13.154
85473SOL     OW58192  14.781   4.348   8.262
85473SOL    HW158193  14.740   4.431   8.284
85473SOL    HW258194  14.873   4.360   8.282
85474SOL     OW58195   8.214  12.064   5.538
85474SOL    HW158196   8.303  12.030   5.546
85474SOL    HW258197   8.192  12.095   5.625
85475SOL     OW58198  14.831   7.399  12.017
85475SOL    HW158199  14.736   7.405  12.024
85475SOL    HW258200  14.864   7.475  12.065
85476SOL     OW58201   9.286   8.878   1.462
85476SOL    HW158202   9.368   8.924   1.480
85476SOL    HW258203   9.231   8.943   1.419
85477SOL     OW58204   5.376   5.171  11.127
85477SOL    HW158205   5.421   5.111  11.068
85477SOL    HW258206   5.303   5.205  11.076
85478SOL     OW58207   4.005  10.920   9.221
85478SOL    HW158208   3.972  10.912   9.132
85478SOL    HW258209   3.930  10.952   9.271
85479SOL     OW58210   2.737   8.446   4.711
85479SOL    HW158211   2.766   8.436   4.802
85479SOL    HW258212   2.702   8.360   4.688
85480SOL     OW58213   4.838  14.406   9.536
85480SOL    HW158214   4.772  14.338   9.528
85480SOL    HW258215   4.796  14.474   9.588
85481SOL     OW58216   0.531   7.714   9.205
85481SOL    HW158217   0.604   7.737   9.148
85481SOL    HW258218   0.554   7.751   9.290
85482SOL     OW58219   7.876   8.291  13.854
85482SOL    HW158220   7.867   8.353  13.926
85482SOL    HW258221   7.812   8.223  13.872
85483SOL     OW58222   4.216   7.496   3.713
85483SOL    HW158223   4.180   7.523   3.798
85483SOL    HW258224   4.308   7.519   3.718
85484SOL     OW58225   1.166   2.407   3.438
85484SOL    HW158226   1.222   2.371   3.370
85484SOL    HW258227   1.225   2.457   3.494
85485SOL     OW58228   9.469  11.219   3.164
85485SOL    HW158229   9.374  11.213   3.159
85485SOL    HW258230   9.499  11.128   3.159
85486SOL     OW58231  14.644  14.107   5.878
85486SOL    HW158232  14.615  14.163   5.950
85486SOL    HW258233  14.729  14.073   5.906
85487SOL     OW58234  13.343  11.726   0.997
85487SOL    HW158235  13.287  11.731   1.075
85487SOL    HW258236  13.411  11.792   1.011
85488SOL     OW58237  10.625   8.122   0.834
85488SOL    HW158238  10.595   8.144   0.922
85488SOL    HW258239  10.545   8.114   0.783
85489SOL     OW58240   5.830   4.500  11.353
85489SOL    HW158241   5.746   4.494  11.398
85489SOL    HW258242   5.885   4.553  11.410
85490SOL     OW58243   8.958   3.128   6.415
85490SOL    HW158244   8.886   3.116   6.477
85490SOL    HW258245   9.035   3.095   6.461
85491SOL     OW58246   4.248  11.071  13.570
85491SOL    HW158247   4.220  11.004  13.507
85491SOL    HW258248   4.208  11.045  13.653
85492SOL     OW58249   9.044   5.615   6.216
85492SOL    HW158250   8.964   5.577   6.178
85492SOL    HW258251   9.114   5.558   6.186
85493SOL     OW58252  13.480   2.089   2.649
85493SOL    HW158253  13.402   2.047   2.684
85493SOL    HW258254  13.522   2.130   2.725
85494SOL     OW58255   7.311  10.707  11.580
85494SOL    HW158256   7.257  10.696  11.658
85494SOL    HW258257   7.278  10.787  11.539
85495SOL     OW58258  14.819   3.567  14.179
85495SOL    HW158259  14.789   3.634  14.241
85495SOL    HW258260  14.833   3.490  14.234
85496SOL     OW58261  13.253   5.401   4.546
85496SOL    HW158262  13.335   5.393   4.594
85496SOL    HW258263  13.280   5.422   4.456
85497SOL     OW58264   4.030  10.318   6.526
85497SOL    HW158265   4.068  10.235   6.500
85497SOL    HW258266   3.949  10.324   6.475
85498SOL     OW58267   3.292  12.413   8.141
85498SOL    HW158268   3.347  12.485   8.112
85498SOL    HW258269   3.307  12.408   8.236
85499SOL     OW58270  10.765   8.017   4.979
85499SOL    HW158271  10.749   8.047   5.069
85499SOL    HW258272  10.766   8.097   4.926
85500SOL     OW58273   2.155   4.188   8.586
85500SOL    HW158274   2.243   4.218   8.606
85500SOL    HW258275   2.125   4.246   8.515
85501SOL     OW58276   8.391   1.025   6.020
85501SOL    HW158277   8.379   1.116   5.992
85501SOL    HW258278   8.315   1.007   6.075
85502SOL     OW58279  10.119   5.482  11.847
85502SOL    HW158280  10.127   5.573  11.876
85502SOL    HW258281  10.179   5.434  11.903
85503SOL     OW58282  12.780   8.101   4.853
85503SOL    HW158283  12.854   8.142   4.897
85503SOL    HW258284  12.818   8.060   4.775
85504SOL     OW58285   7.702   2.021  11.422
85504SOL    HW158286   7.607   2.033  11.411
85504SOL    HW258287   7.719   2.050  11.512
85505SOL     OW58288   4.366   9.326   8.642
85505SOL    HW158289   4.346   9.252   8.700
85505SOL    HW258290   4.390   9.285   8.559
85506SOL     OW58291   8.649   6.462  14.579
85506SOL    HW158292   8.698   6.539  14.549
85506SOL    HW258293   8.667   6.457  14.673
85507SOL     OW58294  11.727  10.916  10.092
85507SOL    HW158295  11.670  10.964  10.031
85507SOL    HW258296  11.668  10.886  10.161
85508SOL     OW58297  13.309   0.048  12.327
85508SOL    HW158298  13.382   0.088  12.279
85508SOL    HW258299  13.247   0.120  12.341
85509SOL     OW58300  13.436   1.772   3.224
85509SOL    HW158301  13.458   1.679   3.230
85509SOL    HW258302  13.376   1.787   3.296
85510SOL     OW58303   7.218  12.636   4.080
85510SOL    HW158304   7.206  12.731   4.087
85510SOL    HW258305   7.281  12.625   4.009
85511SOL     OW58306  13.685  12.574  13.099
85511SOL    HW158307  13.662  12.489  13.061
85511SOL    HW258308  13.781  12.578  13.092
85512SOL     OW58309   4.606   7.384   8.712
85512SOL    HW158310   4.552   7.462   8.721
85512SOL    HW258311   4.598   7.360   8.619
85513SOL     OW58312   6.800   8.017  14.537
85513SOL    HW158313   6.875   8.075  14.543
85513SOL    HW258314   6.835   7.937  14.498
85514SOL     OW58315  12.275   6.765   8.201
85514SOL    HW158316  12.293   6.713   8.279
85514SOL    HW258317  12.228   6.705   8.143
85515SOL     OW58318   8.402   6.336   4.163
85515SOL    HW158319   8.335   6.305   4.102
85515SOL    HW258320   8.357   6.345   4.246
85516SOL     OW58321   9.345   7.443   7.787
85516SOL    HW158322   9.413   7.486   7.838
85516SOL    HW258323   9.286   7.514   7.761
85517SOL     OW58324   6.684  11.952   7.608
85517SOL    HW158325   6.621  12.004   7.558
85517SOL    HW258326   6.630  11.889   7.656
85518SOL     OW58327   1.830  14.835   6.599
85518SOL    HW158328   1.833  14.740   6.604
85518SOL    HW258329   1.741  14.858   6.625
85519SOL     OW58330   9.426   8.742   9.970
85519SOL    HW158331   9.425   8.829   9.930
85519SOL    HW258332   9.334   8.725   9.990
85520SOL     OW58333  10.909   6.945   7.637
85520SOL    HW158334  10.967   6.963   7.711
85520SOL    HW258335  10.853   7.022   7.631
85521SOL     OW58336   5.979   9.179   0.738
85521SOL    HW158337   5.949   9.197   0.648
85521SOL    HW258338   5.899   9.153   0.785
85522SOL     OW58339   1.068   3.811  14.506
85522SOL    HW158340   1.044   3.725  14.540
85522SOL    HW258341   1.006   3.871  14.547
85523SOL     OW58342   4.310   6.308  11.146
85523SOL    HW158343   4.289   6.358  11.224
85523SOL    HW258344   4.301   6.216  11.172
85524SOL     OW58345  12.832   9.422  12.708
85524SOL    HW158346  12.878   9.338  12.710
85524SOL    HW258347  12.895   9.483  12.670
85525SOL     OW58348   7.648   0.732  14.281
85525SOL    HW158349   7.666   0.822  14.308
85525SOL    HW258350   7.583   0.701  14.344
85526SOL     OW58351  12.391   7.338  14.342
85526SOL    HW158352  12.435   7.413  14.303
85526SOL    HW258353  12.410   7.343  14.435
85527SOL     OW58354  13.371  12.600   6.281
85527SOL    HW158355  13.383  12.510   6.311
85527SOL    HW258356  13.427  12.653   6.338
85528SOL     OW58357   9.045   9.153   4.348
85528SOL    HW158358   9.023   9.129   4.438
85528SOL    HW258359   9.061   9.069   4.304
85529SOL     OW58360   9.434   6.930   0.581
85529SOL    HW158361   9.339   6.935   0.585
85529SOL    HW258362   9.454   6.930   0.487
85530SOL     OW58363   2.257   0.385   5.979
85530SOL    HW158364   2.206   0.395   5.898
85530SOL    HW258365   2.284   0.474   6.001
85531SOL     OW58366  10.413   3.136  12.447
85531SOL    HW158367  10.377   3.083  12.518
85531SOL    HW258368  10.493   3.091  12.420
85532SOL     OW58369   8.797   2.465   3.834
85532SOL    HW158370   8.849   2.395   3.796
85532SOL    HW258371   8.848   2.545   3.817
85533SOL     OW58372   8.350   9.550  13.560
85533SOL    HW158373   8.333   9.496  13.483
85533SOL    HW258374   8.280   9.527  13.621
85534SOL     OW58375   0.496  12.131  12.017
85534SOL    HW158376   0.585  12.098  12.035
85534SOL    HW258377   0.446  12.053  11.995
85535SOL     OW58378   0.394   9.887   8.484
85535SOL    HW158379   0.439   9.823   8.428
85535SOL    HW258380   0.412   9.858   8.573
85536SOL     OW58381   4.163   0.207   8.864
85536SOL    HW158382   4.159   0.209   8.959
85536SOL    HW258383   4.095   0.145   8.839
85537SOL     OW58384   9.597   4.595   5.977
85537SOL    HW158385   9.506   4.627   5.974
85537SOL    HW258386   9.645   4.665   6.022
85538SOL     OW58387   1.589  11.914   3.515
85538SOL    HW158388   1.557  11.857   3.445
85538SOL    HW258389   1.662  11.866   3.554
85539SOL     OW58390   8.508   4.145  13.986
85539SOL    HW158391   8.557   4.072  14.025
85539SOL    HW258392   8.522   4.135  13.892
85540SOL     OW58393   9.540   1.559   6.650
85540SOL    HW158394   9.631   1.571   6.623
85540SOL    HW258395   9.507   1.489   6.594
85541SOL     OW58396   5.701  12.385   6.718
85541SOL    HW158397   5.770  12.322   6.703
85541SOL    HW258398   5.713  12.452   6.650
85542SOL     OW58399   8.099   8.555   5.706
85542SOL    HW158400   8.070   8.582   5.619
85542SOL    HW258401   8.160   8.483   5.690
85543SOL     OW58402  12.936   6.595   8.281
85543SOL    HW158403  12.936   6.582   8.186
85543SOL    HW258404  12.876   6.669   8.295
85544SOL     OW58405   9.380   7.455   3.722
85544SOL    HW158406   9.324   7.377   3.728
85544SOL    HW258407   9.336   7.520   3.776
85545SOL     OW58408  14.004   5.765   4.738
85545SOL    HW158409  13.933   5.750   4.801
85545SOL    HW258410  13.962   5.812   4.666
85546SOL     OW58411  10.214   3.604   0.531
85546SOL    HW158412  10.266   3.680   0.558
85546SOL    HW258413  10.127   3.619   0.569
85547SOL     OW58414  14.094   3.296   5.248
85547SOL    HW158415  14.097   3.390   5.261
85547SOL    HW258416  14.003   3.277   5.227
85548SOL     OW58417   9.766   3.924  14.629
85548SOL    HW158418   9.741   3.834  14.652
85548SOL    HW258419   9.696   3.979  14.664
85549SOL     OW58420   8.378   7.375   0.481
85549SOL    HW158421   8.461   7.403   0.520
85549SOL    HW258422   8.336   7.323   0.550
85550SOL     OW58423   0.202   4.464  11.661
85550SOL    HW158424   0.138   4.514  11.712
85550SOL    HW258425   0.235   4.400  11.723
85551SOL     OW58426  14.638   9.141  12.070
85551SOL    HW158427  14.583   9.219  12.066
85551SOL    HW258428  14.724   9.171  12.043
85552SOL     OW58429   1.264   0.551   8.920
85552SOL    HW158430   1.210   0.492   8.867
85552SOL    HW258431   1.349   0.551   8.877
85553SOL     OW58432   7.070   4.680   4.161
85553SOL    HW158433   7.001   4.747   4.164
85553SOL    HW258434   7.142   4.718   4.212
85554SOL     OW58435  14.389   3.928  14.196
85554SOL    HW158436  14.338   3.996  14.239
85554SOL    HW258437  14.359   3.928  14.106
85555SOL     OW58438   8.302   8.427  13.297
85555SOL    HW158439   8.231   8.407  13.236
85555SOL    HW258440   8.280   8.379  13.377
85556SOL     OW58441   7.128   6.431   7.975
85556SOL    HW158442   7.169   6.518   7.978
85556SOL    HW258443   7.085   6.422   8.060
85557SOL     OW58444   1.208  11.278   3.556
85557SOL    HW158445   1.200  11.190   3.594
85557SOL    HW258446   1.291  11.276   3.508
85558SOL     OW58447   7.764   0.924   7.605
85558SOL    HW158448   7.778   0.923   7.700
85558SOL    HW258449   7.806   0.844   7.574
85559SOL     OW58450   2.091   8.754   2.442
85559SOL    HW158451   2.125   8.792   2.361
85559SOL    HW258452   2.150   8.785   2.510
85560SOL     OW58453  12.552   8.004   5.216
85560SOL    HW158454  12.558   7.925   5.270
85560SOL    HW258455  12.561   7.971   5.126
85561SOL     OW58456   4.622   7.144  14.875
85561SOL    HW158457   4.596   7.214   0.054
85561SOL    HW258458   4.559   7.074   0.011
85562SOL     OW58459   9.289  13.044   7.854
85562SOL    HW158460   9.302  13.005   7.940
85562SOL    HW258461   9.302  13.138   7.867
85563SOL     OW58462   0.914  14.052   8.609
85563SOL    HW158463   0.830  14.058   8.563
85563SOL    HW258464   0.962  14.130   8.583
85564SOL     OW58465   3.481   6.200   6.382
85564SOL    HW158466   3.561   6.201   6.329
85564SOL    HW258467   3.505   6.245   6.463
85565SOL     OW58468   6.339  10.964   1.120
85565SOL    HW158469   6.344  10.976   1.215
85565SOL    HW258470   6.367  11.048   1.084
85566SOL     OW58471   8.291  13.508   7.682
85566SOL    HW158472   8.374  13.542   7.650
85566SOL    HW258473   8.315  13.436   7.741
85567SOL     OW58474   0.751   4.724  10.152
85567SOL    HW158475   0.781   4.650  10.100
85567SOL    HW258476   0.707   4.782  10.089
85568SOL     OW58477   7.091   9.828   5.743
85568SOL    HW158478   7.099   9.809   5.650
85568SOL    HW258479   7.013   9.781   5.771
85569SOL     OW58480   4.750   5.696  10.548
85569SOL    HW158481   4.782   5.752  10.478
85569SOL    HW258482   4.825   5.641  10.571
85570SOL     OW58483   7.163   1.047   9.573
85570SOL    HW158484   7.221   1.115   9.607
85570SOL    HW258485   7.202   1.022   9.489
85571SOL     OW58486  11.708   0.632   5.650
85571SOL    HW158487  11.668   0.719   5.649
85571SOL    HW258488  11.742   0.622   5.738
85572SOL     OW58489   7.694   1.110   5.994
85572SOL    HW158490   7.647   1.142   6.070
85572SOL    HW258491   7.770   1.167   5.986
85573SOL     OW58492   9.743   0.024   6.800
85573SOL    HW158493   9.834   0.026   6.828
85573SOL    HW258494   9.695   0.067   6.871
85574SOL     OW58495   1.626   0.032  10.847
85574SOL    HW158496   1.576   0.113  10.851
85574SOL    HW258497   1.578  14.858  10.786
85575SOL     OW58498  11.118   0.061   7.751
85575SOL    HW158499  11.172   0.128   7.793
85575SOL    HW258500  11.121  14.868   7.811
85576SOL     OW58501   8.519   3.645  13.694
85576SOL    HW158502   8.424   3.637  13.681
85576SOL    HW258503   8.533   3.618  13.785
85577SOL     OW58504  12.167   0.707   6.318
85577SOL    HW158505  12.098   0.654   6.277
85577SOL    HW258506  12.183   0.665   6.402
85578SOL     OW58507  13.335   7.085   8.467
85578SOL    HW158508  13.342   7.030   8.545
85578SOL    HW258509  13.355   7.025   8.395
85579SOL     OW58510   2.464  10.823   4.064
85579SOL    HW158511   2.420  10.738   4.053
85579SOL    HW258512   2.491  10.823   4.155
85580SOL     OW58513  10.300   6.913   2.381
85580SOL    HW158514  10.319   6.999   2.344
85580SOL    HW258515  10.382   6.885   2.420
85581SOL     OW58516   1.095   8.595   2.052
85581SOL    HW158517   1.101   8.509   2.010
85581SOL    HW258518   1.006   8.598   2.087
85582SOL     OW58519   8.821   1.930  10.061
85582SOL    HW158520   8.793   1.940  10.152
85582SOL    HW258521   8.881   1.855  10.062
85583SOL     OW58522   2.580  12.364   1.419
85583SOL    HW158523   2.596  12.330   1.507
85583SOL    HW258524   2.506  12.314   1.386
85584SOL     OW58525   7.121   4.142   4.542
85584SOL    HW158526   7.106   4.213   4.479
85584SOL    HW258527   7.170   4.183   4.613
85585SOL     OW58528  12.323   8.961   9.551
85585SOL    HW158529  12.363   8.968   9.638
85585SOL    HW258530  12.358   9.036   9.502
85586SOL     OW58531   4.186  10.989   4.301
85586SOL    HW158532   4.251  11.044   4.257
85586SOL    HW258533   4.111  10.990   4.242
85587SOL     OW58534   8.470  13.459   3.072
85587SOL    HW158535   8.453  13.405   3.149
85587SOL    HW258536   8.532  13.409   3.020
85588SOL     OW58537  10.673  11.514   6.403
85588SOL    HW158538  10.679  11.540   6.311
85588SOL    HW258539  10.703  11.423   6.403
85589SOL     OW58540   6.581  11.279   4.235
85589SOL    HW158541   6.511  11.283   4.169
85589SOL    HW258542   6.598  11.371   4.257
85590SOL     OW58543   6.979  11.727   9.839
85590SOL    HW158544   7.016  11.732   9.927
85590SOL    HW258545   7.040  11.776   9.784
85591SOL     OW58546   4.022   4.223   6.056
85591SOL    HW158547   4.072   4.241   5.976
85591SOL    HW258548   4.005   4.310   6.093
85592SOL     OW58549  14.741   3.146   4.883
85592SOL    HW158550  14.743   3.113   4.793
85592SOL    HW258551  14.823   3.113   4.922
85593SOL     OW58552   5.233  12.191   1.198
85593SOL    HW158553   5.307  12.210   1.140
85593SOL    HW258554   5.175  12.266   1.189
85594SOL     OW58555   8.872   3.173  14.749
85594SOL    HW158556   8.915   3.216  14.823
85594SOL    HW258557   8.780   3.168  14.775
85595SOL     OW58558   4.859   7.842  13.779
85595SOL    HW158559   4.916   7.894  13.723
85595SOL    HW258560   4.916   7.806  13.846
85596SOL     OW58561   6.272   9.438   2.509
85596SOL    HW158562   6.207   9.464   2.444
85596SOL    HW258563   6.356   9.459   2.468
85597SOL     OW58564   0.829   2.722  11.668
85597SOL    HW158565   0.797   2.749  11.755
85597SOL    HW258566   0.884   2.795  11.639
85598SOL     OW58567   0.238   6.387   5.641
85598SOL    HW158568   0.294   6.464   5.633
85598SOL    HW258569   0.218   6.381   5.734
85599SOL     OW58570  14.331  10.424   7.577
85599SOL    HW158571  14.426  10.425   7.569
85599SOL    HW258572  14.304  10.339   7.542
85600SOL     OW58573   3.008   8.125   7.234
85600SOL    HW158574   3.098   8.115   7.204
85600SOL    HW258575   2.957   8.139   7.154
85601SOL     OW58576   1.153  10.624   7.480
85601SOL    HW158577   1.090  10.561   7.446
85601SOL    HW258578   1.127  10.638   7.571
85602SOL     OW58579   5.424  11.497   1.251
85602SOL    HW158580   5.431  11.588   1.279
85602SOL    HW258581   5.511  11.461   1.267
85603SOL     OW58582   5.254  14.398   0.264
85603SOL    HW158583   5.218  14.326   0.213
85603SOL    HW258584   5.188  14.414   0.331
85604SOL     OW58585  11.797   3.079   3.788
85604SOL    HW158586  11.738   3.025   3.841
85604SOL    HW258587  11.738   3.129   3.731
85605SOL     OW58588   0.826   8.576  11.565
85605SOL    HW158589   0.734   8.594  11.587
85605SOL    HW258590   0.833   8.602  11.473
85606SOL     OW58591   1.980  10.421  14.501
85606SOL    HW158592   2.033  10.487  14.456
85606SOL    HW258593   1.914  10.396  14.437
85607SOL     OW58594   9.758   1.579   4.751
85607SOL    HW158595   9.707   1.516   4.700
85607SOL    HW258596   9.838   1.592   4.700
85608SOL     OW58597   5.317   4.836  13.044
85608SOL    HW158598   5.263   4.815  13.121
85608SOL    HW258599   5.328   4.931  13.048
85609SOL     OW58600   3.885  12.409   9.633
85609SOL    HW158601   3.949  12.352   9.591
85609SOL    HW258602   3.832  12.351   9.687
85610SOL     OW58603   1.364   6.332   8.651
85610SOL    HW158604   1.376   6.410   8.597
85610SOL    HW258605   1.309   6.362   8.724
85611SOL     OW58606   1.618   6.324   4.583
85611SOL    HW158607   1.551   6.277   4.633
85611SOL    HW258608   1.678   6.357   4.648
85612SOL     OW58609   9.910  12.779  13.499
85612SOL    HW158610   9.997  12.805  13.469
85612SOL    HW258611   9.926  12.730  13.580
85613SOL     OW58612  13.668   7.503   4.919
85613SOL    HW158613  13.651   7.595   4.904
85613SOL    HW258614  13.610   7.479   4.992
85614SOL     OW58615   3.480   8.401   1.497
85614SOL    HW158616   3.560   8.347   1.496
85614SOL    HW258617   3.452   8.399   1.589
85615SOL     OW58618   7.613  10.144   0.192
85615SOL    HW158619   7.685  10.167   0.134
85615SOL    HW258620   7.609  10.049   0.189
85616SOL     OW58621  12.099  12.772   0.263
85616SOL    HW158622  12.183  12.764   0.218
85616SOL    HW258623  12.070  12.681   0.274
85617SOL     OW58624  13.193   0.199   9.815
85617SOL    HW158625  13.214   0.269   9.878
85617SOL    HW258626  13.100   0.180   9.831
85618SOL     OW58627  10.767  14.022   5.977
85618SOL    HW158628  10.827  13.963   6.021
85618SOL    HW258629  10.780  14.005   5.884
85619SOL     OW58630   4.838   8.964   6.350
85619SOL    HW158631   4.765   8.993   6.405
85619SOL    HW258632   4.799   8.899   6.291
85620SOL     OW58633   4.927   6.530   6.599
85620SOL    HW158634   4.925   6.602   6.535
85620SOL    HW258635   4.872   6.561   6.671
85621SOL     OW58636   8.406  12.626   5.008
85621SOL    HW158637   8.368  12.693   4.951
85621SOL    HW258638   8.486  12.666   5.041
85622SOL     OW58639   8.512   1.804  12.964
85622SOL    HW158640   8.464   1.729  12.930
85622SOL    HW258641   8.597   1.768  12.991
85623SOL     OW58642   4.569   1.042  14.320
85623SOL    HW158643   4.516   1.045  14.400
85623SOL    HW258644   4.659   1.032  14.351
85624SOL     OW58645   7.722   1.706   8.253
85624SOL    HW158646   7.811   1.694   8.220
85624SOL    HW258647   7.688   1.618   8.265
85625SOL     OW58648  12.133  11.874   1.902
85625SOL    HW158649  12.189  11.849   1.975
85625SOL    HW258650  12.045  11.874   1.939
85626SOL     OW58651   4.464   5.049   2.892
85626SOL    HW158652   4.554   5.076   2.875
85626SOL    HW258653   4.431   5.023   2.806
85627SOL     OW58654   6.820  11.011  14.830
85627SOL    HW158655   6.915  11.007  14.819
85627SOL    HW258656   6.807  11.014   0.043
85628SOL     OW58657  12.397  14.183   8.518
85628SOL    HW158658  12.473  14.147   8.564
85628SOL    HW258659  12.372  14.259   8.570
85629SOL     OW58660  12.436  11.363   9.479
85629SOL    HW158661  12.397  11.294   9.425
85629SOL    HW258662  12.361  11.414   9.509
85630SOL     OW58663   7.671  13.631   1.756
85630SOL    HW158664   7.759  13.594   1.763
85630SOL    HW258665   7.665  13.660   1.665
85631SOL     OW58666   7.146   6.139   1.257
85631SOL    HW158667   7.105   6.161   1.341
85631SOL    HW258668   7.121   6.048   1.241
85632SOL     OW58669   9.232   7.660  11.542
85632SOL    HW158670   9.139   7.679  11.545
85632SOL    HW258671   9.240   7.570  11.573
85633SOL     OW58672   6.530  11.932   6.245
85633SOL    HW158673   6.590  11.920   6.319
85633SOL    HW258674   6.490  11.846   6.232
85634SOL     OW58675   1.471  14.317  14.856
85634SOL    HW158676   1.445  14.409  14.855
85634SOL    HW258677   1.476  14.293  14.763
85635SOL     OW58678   8.044  14.648  10.299
85635SOL    HW158679   8.125  14.697  10.280
85635SOL    HW258680   8.067  14.593  10.374
85636SOL     OW58681   4.892  13.717   7.588
85636SOL    HW158682   4.866  13.650   7.651
85636SOL    HW258683   4.968  13.680   7.544
85637SOL     OW58684   4.138  13.056   3.238
85637SOL    HW158685   4.171  13.137   3.277
85637SOL    HW258686   4.202  13.034   3.170
85638SOL     OW58687  14.811  12.888   3.220
85638SOL    HW158688  14.734  12.877   3.165
85638SOL    HW258689   0.001  12.849   3.170
85639SOL     OW58690   5.556   1.444   4.771
85639SOL    HW158691   5.631   1.480   4.723
85639SOL    HW258692   5.497   1.519   4.781
85640SOL     OW58693  11.958  10.414   6.691
85640SOL    HW158694  11.935  10.505   6.708
85640SOL    HW258695  11.917  10.394   6.607
85641SOL     OW58696  13.018   6.435   3.364
85641SOL    HW158697  13.000   6.418   3.272
85641SOL    HW258698  13.114   6.435   3.370
85642SOL     OW58699   3.055   6.968   0.625
85642SOL    HW158700   3.065   6.997   0.715
85642SOL    HW258701   3.070   6.873   0.629
85643SOL     OW58702  11.242   3.384   3.304
85643SOL    HW158703  11.225   3.381   3.398
85643SOL    HW258704  11.250   3.477   3.284
85644SOL     OW58705   0.863   9.575   7.099
85644SOL    HW158706   0.823   9.606   7.180
85644SOL    HW258707   0.934   9.517   7.129
85645SOL     OW58708  12.030   1.962   9.125
85645SOL    HW158709  11.983   2.005   9.054
85645SOL    HW258710  12.039   1.871   9.097
85646SOL     OW58711   9.210  11.279   6.150
85646SOL    HW158712   9.212  11.297   6.056
85646SOL    HW258713   9.117  11.282   6.173
85647SOL     OW58714   3.060  14.713   8.918
85647SOL    HW158715   3.046  14.720   9.013
85647SOL    HW258716   3.090  14.623   8.905
85648SOL     OW58717   1.354   6.376  10.755
85648SOL    HW158718   1.273   6.419  10.726
85648SOL    HW258719   1.407   6.370  10.675
85649SOL     OW58720  14.572   3.222  14.316
85649SOL    HW158721  14.503   3.284  14.293
85649SOL    HW258722  14.591   3.240  14.408
85650SOL     OW58723   5.028   3.836   9.016
85650SOL    HW158724   5.061   3.869   9.100
85650SOL    HW258725   4.996   3.749   9.036
85651SOL     OW58726   6.745   8.878   9.007
85651SOL    HW158727   6.679   8.944   9.028
85651SOL    HW258728   6.811   8.887   9.076
85652SOL     OW58729  14.754   2.812   8.218
85652SOL    HW158730  14.764   2.769   8.133
85652SOL    HW258731  14.802   2.894   8.209
85653SOL     OW58732   6.088  10.944   6.253
85653SOL    HW158733   6.121  10.885   6.185
85653SOL    HW258734   6.161  11.002   6.273
85654SOL     OW58735   3.689   9.090   6.537
85654SOL    HW158736   3.712   9.004   6.572
85654SOL    HW258737   3.771   9.122   6.499
85655SOL     OW58738   1.935   3.555   5.841
85655SOL    HW158739   1.877   3.625   5.812
85655SOL    HW258740   2.019   3.598   5.859
85656SOL     OW58741  11.434   6.047  10.168
85656SOL    HW158742  11.428   6.137  10.135
85656SOL    HW258743  11.393   6.051  10.255
85657SOL     OW58744   0.708   2.309   7.143
85657SOL    HW158745   0.633   2.340   7.194
85657SOL    HW258746   0.745   2.388   7.104
85658SOL     OW58747   4.199   8.002   0.577
85658SOL    HW158748   4.252   7.944   0.522
85658SOL    HW258749   4.109   7.973   0.564
85659SOL     OW58750   9.487  12.696   9.014
85659SOL    HW158751   9.491  12.762   8.945
85659SOL    HW258752   9.556  12.634   8.993
85660SOL     OW58753   7.375   9.946   0.693
85660SOL    HW158754   7.296   9.970   0.646
85660SOL    HW258755   7.441  10.009   0.663
85661SOL     OW58756   5.945   0.679   6.219
85661SOL    HW158757   6.017   0.629   6.257
85661SOL    HW258758   5.980   0.713   6.136
85662SOL     OW58759   5.903   0.671   8.169
85662SOL    HW158760   5.993   0.648   8.146
85662SOL    HW258761   5.903   0.766   8.175
85663SOL     OW58762   7.875  10.664   4.380
85663SOL    HW158763   7.882  10.600   4.309
85663SOL    HW258764   7.958  10.711   4.379
85664SOL     OW58765  11.531  13.260   2.728
85664SOL    HW158766  11.463  13.296   2.670
85664SOL    HW258767  11.601  13.233   2.668
85665SOL     OW58768   4.328  10.412   6.470
85665SOL    HW158769   4.393  10.478   6.496
85665SOL    HW258770   4.250  10.435   6.521
85666SOL     OW58771   7.953   1.156  13.997
85666SOL    HW158772   8.030   1.189  14.042
85666SOL    HW258773   7.988   1.106  13.923
85667SOL     OW58774   3.540   1.138  11.765
85667SOL    HW158775   3.618   1.169  11.810
85667SOL    HW258776   3.470   1.195  11.795
85668SOL     OW58777   2.155   6.750  14.607
85668SOL    HW158778   2.176   6.794  14.689
85668SOL    HW258779   2.121   6.665  14.634
85669SOL     OW58780  11.155  13.817  11.451
85669SOL    HW158781  11.126  13.748  11.511
85669SOL    HW258782  11.134  13.898  11.496
85670SOL     OW58783   8.950   6.683  13.130
85670SOL    HW158784   9.003   6.630  13.070
85670SOL    HW258785   8.872   6.630  13.147
85671SOL     OW58786   0.477  10.098  10.461
85671SOL    HW158787   0.406  10.039  10.435
85671SOL    HW258788   0.495  10.151  10.383
85672SOL     OW58789  12.537   9.692   8.451
85672SOL    HW158790  12.520   9.777   8.411
85672SOL    HW258791  12.598   9.711   8.523
85673SOL     OW58792  14.066   9.192   4.228
85673SOL    HW158793  14.100   9.199   4.139
85673SOL    HW258794  14.068   9.282   4.262
85674SOL     OW58795   6.547   3.803   7.562
85674SOL    HW158796   6.514   3.892   7.566
85674SOL    HW258797   6.519   3.763   7.644
85675SOL     OW58798  10.999  12.308   0.774
85675SOL    HW158799  11.088  12.311   0.737
85675SOL    HW258800  11.012  12.283   0.866
85676SOL     OW58801   5.869  12.875   5.511
85676SOL    HW158802   5.787  12.852   5.469
85676SOL    HW258803   5.936  12.827   5.462
85677SOL     OW58804   2.119  12.316   5.076
85677SOL    HW158805   2.026  12.293   5.069
85677SOL    HW258806   2.120  12.408   5.102
85678SOL     OW58807  12.425   0.733   3.781
85678SOL    HW158808  12.408   0.644   3.811
85678SOL    HW258809  12.474   0.774   3.853
85679SOL     OW58810  14.821   4.016  12.648
85679SOL    HW158811  14.879   3.942  12.664
85679SOL    HW258812  14.880   4.092  12.644
85680SOL     OW58813   3.185  13.929   6.891
85680SOL    HW158814   3.164  13.837   6.873
85680SOL    HW258815   3.218  13.930   6.980
85681SOL     OW58816   6.915   3.787   2.497
85681SOL    HW158817   6.880   3.732   2.427
85681SOL    HW258818   6.997   3.745   2.522
85682SOL     OW58819   0.289   6.204  13.516
85682SOL    HW158820   0.247   6.245  13.591
85682SOL    HW258821   0.315   6.278  13.460
85683SOL     OW58822  12.659   9.445   9.419
85683SOL    HW158823  12.634   9.385   9.490
85683SOL    HW258824  12.727   9.500   9.458
85684SOL     OW58825   6.616  14.070  13.230
85684SOL    HW158826   6.639  13.988  13.273
85684SOL    HW258827   6.694  14.093  13.178
85685SOL     OW58828   5.064   7.276   4.130
85685SOL    HW158829   5.055   7.207   4.064
85685SOL    HW258830   5.151   7.263   4.167
85686SOL     OW58831   0.480   0.564   1.124
85686SOL    HW158832   0.500   0.656   1.110
85686SOL    HW258833   0.406   0.564   1.186
85687SOL     OW58834   2.454   4.851  10.247
85687SOL    HW158835   2.378   4.795  10.264
85687SOL    HW258836   2.447   4.921  10.311
85688SOL     OW58837  13.761   1.196   3.879
85688SOL    HW158838  13.739   1.174   3.789
85688SOL    HW258839  13.760   1.292   3.882
85689SOL     OW58840   1.050   8.803   4.509
85689SOL    HW158841   1.045   8.898   4.496
85689SOL    HW258842   1.143   8.782   4.502
85690SOL     OW58843   7.792   9.136  10.652
85690SOL    HW158844   7.849   9.152  10.577
85690SOL    HW258845   7.853   9.125  10.726
85691SOL     OW58846   9.131  11.260  13.753
85691SOL    HW158847   9.160  11.275  13.843
85691SOL    HW258848   9.075  11.335  13.733
85692SOL     OW58849  12.456  13.024  10.056
85692SOL    HW158850  12.395  12.950  10.060
85692SOL    HW258851  12.538  12.985  10.025
85693SOL     OW58852   9.679  14.621  12.300
85693SOL    HW158853   9.760  14.583  12.266
85693SOL    HW258854   9.677  14.594  12.392
85694SOL     OW58855   7.972  13.308   2.630
85694SOL    HW158856   7.949  13.274   2.544
85694SOL    HW258857   7.914  13.263   2.690
85695SOL     OW58858   3.573  14.508   9.859
85695SOL    HW158859   3.523  14.497   9.779
85695SOL    HW258860   3.570  14.602   9.877
85696SOL     OW58861   3.992  11.630   0.398
85696SOL    HW158862   4.015  11.626   0.305
85696SOL    HW258863   3.898  11.613   0.401
85697SOL     OW58864  14.086   1.043   5.179
85697SOL    HW158865  14.035   0.982   5.232
85697SOL    HW258866  14.086   1.004   5.091
85698SOL     OW58867   3.199   1.714   9.682
85698SOL    HW158868   3.163   1.681   9.764
85698SOL    HW258869   3.163   1.655   9.615
85699SOL     OW58870   0.891  14.047  11.506
85699SOL    HW158871   0.962  14.041  11.570
85699SOL    HW258872   0.896  13.964  11.457
85700SOL     OW58873   5.846   5.972   1.578
85700SOL    HW158874   5.787   6.009   1.644
85700SOL    HW258875   5.793   5.906   1.532
85701SOL     OW58876  11.628   0.673   7.639
85701SOL    HW158877  11.673   0.619   7.575
85701SOL    HW258878  11.536   0.672   7.611
85702SOL     OW58879  13.796  11.733   0.210
85702SOL    HW158880  13.861  11.788   0.167
85702SOL    HW258881  13.839  11.648   0.219
85703SOL     OW58882  11.357  10.422   7.314
85703SOL    HW158883  11.318  10.379   7.238
85703SOL    HW258884  11.440  10.457   7.281
85704SOL     OW58885  14.187   5.131   1.235
85704SOL    HW158886  14.102   5.093   1.258
85704SOL    HW258887  14.211   5.086   1.154
85705SOL     OW58888  10.446   8.149   7.317
85705SOL    HW158889  10.502   8.096   7.260
85705SOL    HW258890  10.458   8.110   7.404
85706SOL     OW58891   6.487   0.891  11.567
85706SOL    HW158892   6.521   0.812  11.608
85706SOL    HW258893   6.529   0.893  11.481
85707SOL     OW58894  11.619   4.124  13.550
85707SOL    HW158895  11.673   4.166  13.616
85707SOL    HW258896  11.593   4.040  13.590
85708SOL     OW58897   1.130   6.231  14.189
85708SOL    HW158898   1.071   6.204  14.118
85708SOL    HW258899   1.071   6.265  14.257
85709SOL     OW58900  13.798  11.003   4.670
85709SOL    HW158901  13.836  10.922   4.704
85709SOL    HW258902  13.852  11.073   4.709
85710SOL     OW58903   6.275  10.345  11.661
85710SOL    HW158904   6.269  10.249  11.658
85710SOL    HW258905   6.184  10.375  11.652
85711SOL     OW58906  14.394  10.376   5.815
85711SOL    HW158907  14.302  10.395   5.831
85711SOL    HW258908  14.440  10.455   5.844
85712SOL     OW58909   4.415   7.136   4.464
85712SOL    HW158910   4.348   7.180   4.517
85712SOL    HW258911   4.370   7.059   4.429
85713SOL     OW58912  11.207  12.681   0.715
85713SOL    HW158913  11.207  12.612   0.781
85713SOL    HW258914  11.133  12.661   0.658
85714SOL     OW58915   8.730   5.165   4.277
85714SOL    HW158916   8.739   5.122   4.192
85714SOL    HW258917   8.677   5.104   4.329
85715SOL     OW58918   2.188   6.348   6.414
85715SOL    HW158919   2.110   6.295   6.425
85715SOL    HW258920   2.242   6.329   6.491
85716SOL     OW58921   8.871   6.604  12.079
85716SOL    HW158922   8.798   6.655  12.113
85716SOL    HW258923   8.842   6.513  12.087
85717SOL     OW58924   6.605   7.119   6.366
85717SOL    HW158925   6.676   7.153   6.311
85717SOL    HW258926   6.526   7.162   6.333
85718SOL     OW58927  13.855  13.344  10.889
85718SOL    HW158928  13.784  13.288  10.921
85718SOL    HW258929  13.915  13.350  10.963
85719SOL     OW58930  11.436   0.234   4.961
85719SOL    HW158931  11.501   0.164   4.951
85719SOL    HW258932  11.401   0.247   4.873
85720SOL     OW58933  13.267   9.000   9.064
85720SOL    HW158934  13.338   8.938   9.081
85720SOL    HW258935  13.201   8.948   9.017
85721SOL     OW58936  13.847   6.517  11.844
85721SOL    HW158937  13.935   6.517  11.883
85721SOL    HW258938  13.789   6.500  11.918
85722SOL     OW58939   8.362   7.059   3.959
85722SOL    HW158940   8.298   7.050   4.030
85722SOL    HW258941   8.317   7.110   3.892
85723SOL     OW58942  13.622   3.456   5.623
85723SOL    HW158943  13.551   3.469   5.686
85723SOL    HW258944  13.646   3.545   5.596
85724SOL     OW58945   4.302   1.768   9.294
85724SOL    HW158946   4.212   1.750   9.320
85724SOL    HW258947   4.308   1.739   9.203
85725SOL     OW58948  10.171  11.285   9.557
85725SOL    HW158949  10.214  11.337   9.625
85725SOL    HW258950  10.152  11.201   9.600
85726SOL     OW58951   3.531  13.860   1.988
85726SOL    HW158952   3.532  13.772   2.028
85726SOL    HW258953   3.623  13.878   1.968
85727SOL     OW58954   4.388   8.313   8.811
85727SOL    HW158955   4.365   8.232   8.766
85727SOL    HW258956   4.462   8.349   8.761
85728SOL     OW58957   9.537  14.267   0.028
85728SOL    HW158958   9.478  14.282   0.102
85728SOL    HW258959   9.602  14.205   0.062
85729SOL     OW58960  11.399   8.130   9.524
85729SOL    HW158961  11.358   8.209   9.558
85729SOL    HW258962  11.369   8.060   9.582
85730SOL     OW58963   3.463   7.108   5.001
85730SOL    HW158964   3.438   7.101   4.908
85730SOL    HW258965   3.551   7.070   5.005
85731SOL     OW58966   0.676   3.310  13.267
85731SOL    HW158967   0.724   3.239  13.224
85731SOL    HW258968   0.617   3.266  13.328
85732SOL     OW58969  11.469  12.831   5.546
85732SOL    HW158970  11.504  12.801   5.462
85732SOL    HW258971  11.411  12.760   5.574
85733SOL     OW58972   8.120  10.826  10.743
85733SOL    HW158973   8.150  10.737  10.761
85733SOL    HW258974   8.166  10.851  10.663
85734SOL     OW58975   7.748   2.722  10.277
85734SOL    HW158976   7.751   2.784  10.204
85734SOL    HW258977   7.806   2.650  10.249
85735SOL     OW58978   7.411   4.215   8.017
85735SOL    HW158979   7.396   4.210   8.112
85735SOL    HW258980   7.475   4.285   8.007
85736SOL     OW58981   9.020  14.677  10.652
85736SOL    HW158982   9.102  14.692  10.699
85736SOL    HW258983   8.952  14.691  10.717
85737SOL     OW58984   0.828  12.585   5.268
85737SOL    HW158985   0.870  12.514   5.220
85737SOL    HW258986   0.746  12.601   5.222
85738SOL     OW58987   9.951  14.722   9.773
85738SOL    HW158988  10.032  14.760   9.806
85738SOL    HW258989   9.912  14.677   9.848
85739SOL     OW58990   2.651  14.646  13.321
85739SOL    HW158991   2.656  14.628  13.228
85739SOL    HW258992   2.733  14.614  13.357
85740SOL     OW58993  13.136  13.549  10.520
85740SOL    HW158994  13.082  13.519  10.593
85740SOL    HW258995  13.208  13.597  10.562
85741SOL     OW58996  10.928   3.251   4.323
85741SOL    HW158997  11.021   3.249   4.345
85741SOL    HW258998  10.918   3.330   4.269
85742SOL     OW58999   3.343   5.118   2.314
85742SOL    HW159000   3.304   5.196   2.276
85742SOL    HW259001   3.386   5.074   2.241
85743SOL     OW59002   4.507   6.238   2.885
85743SOL    HW159003   4.539   6.160   2.931
85743SOL    HW259004   4.465   6.290   2.954
85744SOL     OW59005   2.095   4.640   7.128
85744SOL    HW159006   2.033   4.703   7.165
85744SOL    HW259007   2.114   4.580   7.200
85745SOL     OW59008   4.589  12.272   5.292
85745SOL    HW159009   4.516  12.311   5.341
85745SOL    HW259010   4.651  12.246   5.360
85746SOL     OW59011   8.950   5.778  14.729
85746SOL    HW159012   9.044   5.765  14.712
85746SOL    HW259013   8.945   5.865  14.768
85747SOL     OW59014   1.717  14.243   0.095
85747SOL    HW159015   1.635  14.266   0.052
85747SOL    HW259016   1.741  14.322   0.145
85748SOL     OW59017   3.880   3.852   6.341
85748SOL    HW159018   3.971   3.823   6.343
85748SOL    HW259019   3.845   3.814   6.261
85749SOL     OW59020   9.323   4.593  14.706
85749SOL    HW159021   9.355   4.602  14.796
85749SOL    HW259022   9.314   4.683  14.674
85750SOL     OW59023   3.927   2.999  13.609
85750SOL    HW159024   3.942   2.906  13.593
85750SOL    HW259025   3.886   3.031  13.529
85751SOL     OW59026  10.920   6.333  10.498
85751SOL    HW159027  10.901   6.418  10.459
85751SOL    HW259028  10.949   6.354  10.587
85752SOL     OW59029   8.546  10.771   6.957
85752SOL    HW159030   8.589  10.712   7.019
85752SOL    HW259031   8.536  10.854   7.005
85753SOL     OW59032   8.640   5.439  10.537
85753SOL    HW159033   8.735   5.432  10.521
85753SOL    HW259034   8.633   5.498  10.612
85754SOL     OW59035   0.680  14.669  12.573
85754SOL    HW159036   0.682  14.577  12.598
85754SOL    HW259037   0.591  14.684  12.541
85755SOL     OW59038   6.097  11.651   0.350
85755SOL    HW159039   6.180  11.661   0.303
85755SOL    HW259040   6.067  11.564   0.326
85756SOL     OW59041   3.999   0.408   3.723
85756SOL    HW159042   4.068   0.350   3.691
85756SOL    HW259043   3.986   0.471   3.653
85757SOL     OW59044  12.380   3.829   5.010
85757SOL    HW159045  12.409   3.746   5.049
85757SOL    HW259046  12.293   3.844   5.047
85758SOL     OW59047  12.935   6.054   6.569
85758SOL    HW159048  12.967   6.125   6.513
85758SOL    HW259049  12.842   6.047   6.548
85759SOL     OW59050  14.540   6.492  11.485
85759SOL    HW159051  14.460   6.541  11.468
85759SOL    HW259052  14.515   6.425  11.549
85760SOL     OW59053   7.711  10.624  10.523
85760SOL    HW159054   7.765  10.634  10.602
85760SOL    HW259055   7.634  10.679  10.541
85761SOL     OW59056   2.806   1.494  14.441
85761SOL    HW159057   2.763   1.457  14.364
85761SOL    HW259058   2.891   1.524  14.409
85762SOL     OW59059   5.382   0.830   8.201
85762SOL    HW159060   5.389   0.914   8.248
85762SOL    HW259061   5.318   0.847   8.133
85763SOL     OW59062   7.015  11.733   3.727
85763SOL    HW159063   6.961  11.659   3.754
85763SOL    HW259064   7.105  11.698   3.729
85764SOL     OW59065   3.390   5.219  13.627
85764SOL    HW159066   3.429   5.175  13.703
85764SOL    HW259067   3.457   5.214  13.559
85765SOL     OW59068   6.739   0.063   7.558
85765SOL    HW159069   6.727   0.011   7.479
85765SOL    HW259070   6.833   0.079   7.563
85766SOL     OW59071   0.031   3.107  13.220
85766SOL    HW159072   0.103   3.170  13.230
85766SOL    HW259073   0.074   3.022  13.223
85767SOL     OW59074   6.884   0.791   4.214
85767SOL    HW159075   6.814   0.727   4.226
85767SOL    HW259076   6.947   0.771   4.284
85768SOL     OW59077   2.537  10.101   1.986
85768SOL    HW159078   2.531  10.182   1.935
85768SOL    HW259079   2.541  10.032   1.920
85769SOL     OW59080   4.201  13.148   5.319
85769SOL    HW159081   4.168  13.131   5.407
85769SOL    HW259082   4.284  13.101   5.315
85770SOL     OW59083   7.078   1.747  12.510
85770SOL    HW159084   7.102   1.704  12.592
85770SOL    HW259085   7.052   1.836  12.536
85771SOL     OW59086   4.208   6.687   4.820
85771SOL    HW159087   4.258   6.606   4.813
85771SOL    HW259088   4.234   6.724   4.905
85772SOL     OW59089   9.077   2.420   0.341
85772SOL    HW159090   9.093   2.448   0.250
85772SOL    HW259091   8.987   2.389   0.341
85773SOL     OW59092  12.682  14.800  10.454
85773SOL    HW159093  12.726  14.747  10.388
85773SOL    HW259094  12.694  14.752  10.536
85774SOL     OW59095   6.868  11.242   2.803
85774SOL    HW159096   6.821  11.158   2.811
85774SOL    HW259097   6.887  11.250   2.710
85775SOL     OW59098   8.690  12.713   0.353
85775SOL    HW159099   8.732  12.628   0.343
85775SOL    HW259100   8.762  12.776   0.356
85776SOL     OW59101   2.612   1.490   5.896
85776SOL    HW159102   2.627   1.578   5.931
85776SOL    HW259103   2.700   1.451   5.892
85777SOL     OW59104   9.096   7.071   8.782
85777SOL    HW159105   9.113   7.013   8.856
85777SOL    HW259106   9.163   7.047   8.717
85778SOL     OW59107   0.584  10.364  13.920
85778SOL    HW159108   0.644  10.310  13.868
85778SOL    HW259109   0.525  10.301  13.961
85779SOL     OW59110   0.699  14.242   9.358
85779SOL    HW159111   0.688  14.335   9.339
85779SOL    HW259112   0.767  14.213   9.297
85780SOL     OW59113   9.305  13.043   2.592
85780SOL    HW159114   9.343  13.032   2.504
85780SOL    HW259115   9.335  12.966   2.641
85781SOL     OW59116   8.614   5.614   8.856
85781SOL    HW159117   8.590   5.700   8.889
85781SOL    HW259118   8.635   5.563   8.934
85782SOL     OW59119  11.327  14.048   5.336
85782SOL    HW159120  11.345  14.108   5.264
85782SOL    HW259121  11.329  13.961   5.295
85783SOL     OW59122   3.755   7.513  14.133
85783SOL    HW159123   3.797   7.574  14.072
85783SOL    HW259124   3.713   7.569  14.198
85784SOL     OW59125   3.356   3.743  13.864
85784SOL    HW159126   3.267   3.770  13.843
85784SOL    HW259127   3.410   3.785  13.797
85785SOL     OW59128   5.178   2.777   6.762
85785SOL    HW159129   5.206   2.826   6.839
85785SOL    HW259130   5.086   2.757   6.778
85786SOL     OW59131   9.759  11.615   7.891
85786SOL    HW159132   9.800  11.586   7.810
85786SOL    HW259133   9.800  11.699   7.910
85787SOL     OW59134  13.481   8.746  13.922
85787SOL    HW159135  13.428   8.738  14.001
85787SOL    HW259136  13.568   8.715  13.948
85788SOL     OW59137   6.555   3.820   8.069
85788SOL    HW159138   6.610   3.870   8.008
85788SOL    HW259139   6.609   3.743   8.090
85789SOL     OW59140  10.219  11.150   0.881
85789SOL    HW159141  10.231  11.107   0.966
85789SOL    HW259142  10.293  11.120   0.828
85790SOL     OW59143  10.363   3.171  13.445
85790SOL    HW159144  10.400   3.210  13.364
85790SOL    HW259145  10.436   3.123  13.483
85791SOL     OW59146   2.639  11.431   6.830
85791SOL    HW159147   2.733  11.416   6.844
85791SOL    HW259148   2.618  11.503   6.889
85792SOL     OW59149   8.192   5.420   2.035
85792SOL    HW159150   8.202   5.436   2.129
85792SOL    HW259151   8.155   5.332   2.030
85793SOL     OW59152   9.204   5.420   3.869
85793SOL    HW159153   9.299   5.426   3.854
85793SOL    HW259154   9.173   5.362   3.799
85794SOL     OW59155  12.872  13.482   3.189
85794SOL    HW159156  12.932  13.508   3.259
85794SOL    HW259157  12.802  13.548   3.192
85795SOL     OW59158   2.940   1.638   7.585
85795SOL    HW159159   2.903   1.606   7.667
85795SOL    HW259160   2.916   1.573   7.520
85796SOL     OW59161   4.225   7.705   0.972
85796SOL    HW159162   4.152   7.743   1.021
85796SOL    HW259163   4.191   7.695   0.883
85797SOL     OW59164   8.608   9.472   9.230
85797SOL    HW159165   8.671   9.496   9.163
85797SOL    HW259166   8.529   9.446   9.181
85798SOL     OW59167   8.540   3.147   6.400
85798SOL    HW159168   8.465   3.160   6.458
85798SOL    HW259169   8.501   3.122   6.316
85799SOL     OW59170   2.394   6.403   9.882
85799SOL    HW159171   2.321   6.425   9.939
85799SOL    HW259172   2.416   6.312   9.904
85800SOL     OW59173   1.960   2.238  10.852
85800SOL    HW159174   1.907   2.159  10.867
85800SOL    HW259175   1.901   2.298  10.806
85801SOL     OW59176  10.808   4.890   6.379
85801SOL    HW159177  10.746   4.929   6.440
85801SOL    HW259178  10.806   4.947   6.302
85802SOL     OW59179  11.479   9.535   3.245
85802SOL    HW159180  11.513   9.448   3.225
85802SOL    HW259181  11.520   9.593   3.181
85803SOL     OW59182   3.172  13.149  10.320
85803SOL    HW159183   3.142  13.130  10.231
85803SOL    HW259184   3.092  13.163  10.369
85804SOL     OW59185   9.396   7.997  14.285
85804SOL    HW159186   9.348   8.070  14.322
85804SOL    HW259187   9.337   7.922  14.293
85805SOL     OW59188   6.312  13.979   2.104
85805SOL    HW159189   6.328  13.886   2.120
85805SOL    HW259190   6.306  14.017   2.192
85806SOL     OW59191  13.302   6.743   2.307
85806SOL    HW159192  13.289   6.748   2.401
85806SOL    HW259193  13.216   6.723   2.271
85807SOL     OW59194   0.780   6.183   4.363
85807SOL    HW159195   0.847   6.251   4.362
85807SOL    HW259196   0.697   6.231   4.369
85808SOL     OW59197  13.949   5.530  14.135
85808SOL    HW159198  13.903   5.446  14.125
85808SOL    HW259199  13.882   5.596  14.123
85809SOL     OW59200  13.991   8.611   4.077
85809SOL    HW159201  13.907   8.616   4.032
85809SOL    HW259202  13.970   8.583   4.166
85810SOL     OW59203   7.019   6.972   8.849
85810SOL    HW159204   6.940   6.940   8.892
85810SOL    HW259205   7.085   6.906   8.866
85811SOL     OW59206   5.257  13.432   2.106
85811SOL    HW159207   5.174  13.455   2.148
85811SOL    HW259208   5.236  13.428   2.013
85812SOL     OW59209   1.751   8.055  13.149
85812SOL    HW159210   1.673   8.009  13.179
85812SOL    HW259211   1.820   8.025  13.208
85813SOL     OW59212  10.705  11.504  12.756
85813SOL    HW159213  10.656  11.507  12.674
85813SOL    HW259214  10.660  11.565  12.813
85814SOL     OW59215  12.751   4.690   0.294
85814SOL    HW159216  12.837   4.698   0.335
85814SOL    HW259217  12.770   4.690   0.200
85815SOL     OW59218   1.731  14.716   1.800
85815SOL    HW159219   1.685  14.779   1.745
85815SOL    HW259220   1.680  14.635   1.792
85816SOL     OW59221  14.370  14.763   1.803
85816SOL    HW159222  14.441  14.726   1.856
85816SOL    HW259223  14.296  14.705   1.818
85817SOL     OW59224  11.391  12.145   1.268
85817SOL    HW159225  11.457  12.111   1.329
85817SOL    HW259226  11.313  12.094   1.286
85818SOL     OW59227  11.571   2.040  14.640
85818SOL    HW159228  11.510   2.050  14.567
85818SOL    HW259229  11.657   2.030  14.599
85819SOL     OW59230   3.876   1.503   2.457
85819SOL    HW159231   3.789   1.472   2.432
85819SOL    HW259232   3.915   1.430   2.506
85820SOL     OW59233   0.097   7.394   4.083
85820SOL    HW159234   0.101   7.320   4.022
85820SOL    HW259235   0.017   7.379   4.133
85821SOL     OW59236  12.890  11.140   9.826
85821SOL    HW159237  12.907  11.178   9.739
85821SOL    HW259238  12.818  11.079   9.812
85822SOL     OW59239   7.046   4.566   8.036
85822SOL    HW159240   6.998   4.532   8.111
85822SOL    HW259241   7.138   4.548   8.056
85823SOL     OW59242   8.888   3.111   3.647
85823SOL    HW159243   8.944   3.187   3.635
85823SOL    HW259244   8.889   3.096   3.742
85824SOL     OW59245   7.481   0.584  13.894
85824SOL    HW159246   7.510   0.675  13.903
85824SOL    HW259247   7.477   0.552  13.984
85825SOL     OW59248  13.750  14.097   9.389
85825SOL    HW159249  13.665  14.109   9.431
85825SOL    HW259250  13.813  14.132   9.452
85826SOL     OW59251   5.206   1.819   4.522
85826SOL    HW159252   5.179   1.890   4.580
85826SOL    HW259253   5.264   1.861   4.458
85827SOL     OW59254  10.367   8.852   3.539
85827SOL    HW159255  10.459   8.827   3.529
85827SOL    HW259256  10.365   8.945   3.515
85828SOL     OW59257  11.209  10.961   7.549
85828SOL    HW159258  11.258  10.969   7.630
85828SOL    HW259259  11.202  10.866   7.535
85829SOL     OW59260  14.190  13.822   2.109
85829SOL    HW159261  14.224  13.911   2.110
85829SOL    HW259262  14.245  13.775   2.046
85830SOL     OW59263   7.838  11.706   1.575
85830SOL    HW159264   7.823  11.735   1.665
85830SOL    HW259265   7.788  11.767   1.521
85831SOL     OW59266   5.947   9.942   9.906
85831SOL    HW159267   6.016   9.966   9.844
85831SOL    HW259268   5.968   9.852   9.931
85832SOL     OW59269   5.246   5.526   2.908
85832SOL    HW159270   5.301   5.591   2.863
85832SOL    HW259271   5.308   5.468   2.952
85833SOL     OW59272   3.272  13.132   1.606
85833SOL    HW159273   3.321  13.061   1.565
85833SOL    HW259274   3.331  13.167   1.672
85834SOL     OW59275   7.797  12.916   4.548
85834SOL    HW159276   7.859  12.989   4.554
85834SOL    HW259277   7.828  12.864   4.473
85835SOL     OW59278   5.435   6.564   0.918
85835SOL    HW159279   5.354   6.614   0.933
85835SOL    HW259280   5.505   6.629   0.925
85836SOL     OW59281  11.594  14.772  13.999
85836SOL    HW159282  11.592  14.867  13.995
85836SOL    HW259283  11.568  14.744  13.911
85837SOL     OW59284   4.196   3.576   1.286
85837SOL    HW159285   4.187   3.574   1.190
85837SOL    HW259286   4.114   3.540   1.318
85838SOL     OW59287  10.369   8.398   0.905
85838SOL    HW159288  10.311   8.362   0.837
85838SOL    HW259289  10.392   8.322   0.959
85839SOL     OW59290   7.985   5.882  14.123
85839SOL    HW159291   7.969   5.838  14.039
85839SOL    HW259292   8.010   5.971  14.099
85840SOL     OW59293   8.599   6.402   7.987
85840SOL    HW159294   8.668   6.424   8.050
85840SOL    HW259295   8.640   6.410   7.901
85841SOL     OW59296   8.811   5.627   2.895
85841SOL    HW159297   8.785   5.649   2.806
85841SOL    HW259298   8.867   5.549   2.885
85842SOL     OW59299   2.503   9.828   5.290
85842SOL    HW159300   2.408   9.838   5.279
85842SOL    HW259301   2.528   9.766   5.222
85843SOL     OW59302   4.579   2.886  13.457
85843SOL    HW159303   4.539   2.801  13.473
85843SOL    HW259304   4.624   2.876  13.373
85844SOL     OW59305   4.303   5.933   8.732
85844SOL    HW159306   4.370   5.888   8.681
85844SOL    HW259307   4.229   5.872   8.734
85845SOL     OW59308   9.744   6.565  12.592
85845SOL    HW159309   9.717   6.650  12.556
85845SOL    HW259310   9.759   6.511  12.515
85846SOL     OW59311   0.217   0.919  11.806
85846SOL    HW159312   0.298   0.967  11.787
85846SOL    HW259313   0.189   0.885  11.721
85847SOL     OW59314  14.867  13.306   2.120
85847SOL    HW159315  14.805  13.353   2.065
85847SOL    HW259316  14.813  13.247   2.172
85848SOL     OW59317   8.067  13.016   1.666
85848SOL    HW159318   8.010  12.979   1.598
85848SOL    HW259319   8.027  13.101   1.686
85849SOL     OW59320  11.287   5.096  13.647
85849SOL    HW159321  11.228   5.070  13.717
85849SOL    HW259322  11.268   5.189  13.633
85850SOL     OW59323   7.247   8.729   5.087
85850SOL    HW159324   7.206   8.666   5.147
85850SOL    HW259325   7.203   8.714   5.003
85851SOL     OW59326   3.254  12.074   1.510
85851SOL    HW159327   3.166  12.087   1.546
85851SOL    HW259328   3.302  12.028   1.579
85852SOL     OW59329   8.661  14.436   2.089
85852SOL    HW159330   8.699  14.464   2.172
85852SOL    HW259331   8.609  14.511   2.059
85853SOL     OW59332   1.105   1.646  14.347
85853SOL    HW159333   1.025   1.597  14.367
85853SOL    HW259334   1.141   1.671  14.432
85854SOL     OW59335   7.958  10.469   1.386
85854SOL    HW159336   7.873  10.513   1.384
85854SOL    HW259337   8.021  10.538   1.366
85855SOL     OW59338   7.511   6.373   7.760
85855SOL    HW159339   7.431   6.322   7.746
85855SOL    HW259340   7.494   6.457   7.718
85856SOL     OW59341  13.385  13.743   4.823
85856SOL    HW159342  13.460  13.702   4.780
85856SOL    HW259343  13.341  13.792   4.753
85857SOL     OW59344  10.097  10.363  13.111
85857SOL    HW159345  10.082  10.320  13.195
85857SOL    HW259346  10.049  10.309  13.048
85858SOL     OW59347  13.436   3.798  12.909
85858SOL    HW159348  13.372   3.815  12.839
85858SOL    HW259349  13.476   3.714  12.885
85859SOL     OW59350   2.633  10.309   8.206
85859SOL    HW159351   2.599  10.348   8.125
85859SOL    HW259352   2.714  10.266   8.180
85860SOL     OW59353   3.233   3.669   1.476
85860SOL    HW159354   3.230   3.616   1.396
85860SOL    HW259355   3.144   3.703   1.485
85861SOL     OW59356  11.290  14.427   0.399
85861SOL    HW159357  11.202  14.413   0.365
85861SOL    HW259358  11.310  14.346   0.446
85862SOL     OW59359  13.886   4.718  13.265
85862SOL    HW159360  13.850   4.805  13.251
85862SOL    HW259361  13.823   4.659  13.223
85863SOL     OW59362   6.839   4.449   0.778
85863SOL    HW159363   6.834   4.422   0.686
85863SOL    HW259364   6.925   4.420   0.808
85864SOL     OW59365   9.483   8.493   6.646
85864SOL    HW159366   9.493   8.434   6.720
85864SOL    HW259367   9.543   8.565   6.665
85865SOL     OW59368  12.937   5.620   8.283
85865SOL    HW159369  12.965   5.702   8.242
85865SOL    HW259370  13.018   5.574   8.305
85866SOL     OW59371  13.788   3.437  11.483
85866SOL    HW159372  13.804   3.495  11.558
85866SOL    HW259373  13.782   3.349  11.522
85867SOL     OW59374   5.134  11.735   7.752
85867SOL    HW159375   5.056  11.680   7.758
85867SOL    HW259376   5.100  11.825   7.752
85868SOL     OW59377  13.214   5.931   7.949
85868SOL    HW159378  13.190   6.011   7.903
85868SOL    HW259379  13.187   5.861   7.889
85869SOL     OW59380   9.168   3.628   1.163
85869SOL    HW159381   9.127   3.568   1.225
85869SOL    HW259382   9.142   3.596   1.077
85870SOL     OW59383   3.483  14.647   3.978
85870SOL    HW159384   3.506  14.650   3.885
85870SOL    HW259385   3.471  14.553   3.996
85871SOL     OW59386   3.184   5.312  10.616
85871SOL    HW159387   3.275   5.330  10.594
85871SOL    HW259388   3.184   5.222  10.647
85872SOL     OW59389   5.335   3.654   4.273
85872SOL    HW159390   5.371   3.590   4.211
85872SOL    HW259391   5.330   3.736   4.224
85873SOL     OW59392  11.992  14.577   6.155
85873SOL    HW159393  11.936  14.503   6.130
85873SOL    HW259394  12.013  14.561   6.247
85874SOL     OW59395   8.450  14.601   2.743
85874SOL    HW159396   8.482  14.593   2.653
85874SOL    HW259397   8.374  14.543   2.745
85875SOL     OW59398  12.600  10.464   7.395
85875SOL    HW159399  12.520  10.516   7.391
85875SOL    HW259400  12.574  10.376   7.368
85876SOL     OW59401   0.815   8.146  12.926
85876SOL    HW159402   0.803   8.069  12.981
85876SOL    HW259403   0.816   8.220  12.988
85877SOL     OW59404  10.188   9.297  10.911
85877SOL    HW159405  10.264   9.355  10.912
85877SOL    HW259406  10.154   9.304  10.822
85878SOL     OW59407   9.647   7.735  10.907
85878SOL    HW159408   9.633   7.665  10.844
85878SOL    HW259409   9.686   7.806  10.856
85879SOL     OW59410  13.721  12.021   8.111
85879SOL    HW159411  13.638  12.058   8.141
85879SOL    HW259412  13.761  11.985   8.190
85880SOL     OW59413   3.325   9.809   0.039
85880SOL    HW159414   3.373   9.845  14.845
85880SOL    HW259415   3.392   9.766   0.092
85881SOL     OW59416  13.515   7.546   7.274
85881SOL    HW159417  13.570   7.584   7.206
85881SOL    HW259418  13.518   7.452   7.258
85882SOL     OW59419  11.149   0.120  12.884
85882SOL    HW159420  11.155   0.078  12.798
85882SOL    HW259421  11.239   0.146  12.904
85883SOL     OW59422   1.347   1.550   0.230
85883SOL    HW159423   1.279   1.617   0.237
85883SOL    HW259424   1.428   1.600   0.216
85884SOL     OW59425   6.238  14.421  14.817
85884SOL    HW159426   6.206  14.439   0.025
85884SOL    HW259427   6.158  14.410  14.766
85885SOL     OW59428   0.982  10.467   6.414
85885SOL    HW159429   0.989  10.520   6.335
85885SOL    HW259430   1.000  10.528   6.486
85886SOL     OW59431   6.440  11.401  13.456
85886SOL    HW159432   6.360  11.400  13.403
85886SOL    HW259433   6.485  11.482  13.429
85887SOL     OW59434  11.852  12.922  14.199
85887SOL    HW159435  11.859  12.829  14.178
85887SOL    HW259436  11.797  12.958  14.130
85888SOL     OW59437  11.189   2.679   1.870
85888SOL    HW159438  11.274   2.715   1.843
85888SOL    HW259439  11.178   2.601   1.816
85889SOL     OW59440   2.213  14.823   1.072
85889SOL    HW159441   2.248  14.790   1.154
85889SOL    HW259442   2.198  14.744   1.019
85890SOL     OW59443  13.519  12.102   9.773
85890SOL    HW159444  13.591  12.157   9.742
85890SOL    HW259445  13.472  12.076   9.694
85891SOL     OW59446  12.985   7.283  14.382
85891SOL    HW159447  12.985   7.194  14.418
85891SOL    HW259448  13.041   7.332  14.442
85892SOL     OW59449   7.310   5.522   7.731
85892SOL    HW159450   7.375   5.506   7.662
85892SOL    HW259451   7.329   5.456   7.797
85893SOL     OW59452   8.231  11.663   3.398
85893SOL    HW159453   8.235  11.756   3.420
85893SOL    HW259454   8.138  11.644   3.389
85894SOL     OW59455   1.549   7.145   8.561
85894SOL    HW159456   1.584   7.221   8.607
85894SOL    HW259457   1.460   7.171   8.536
85895SOL     OW59458   3.875   4.725   7.127
85895SOL    HW159459   3.818   4.654   7.159
85895SOL    HW259460   3.845   4.742   7.038
85896SOL     OW59461  10.944   7.803   8.381
85896SOL    HW159462  10.875   7.737   8.369
85896SOL    HW259463  10.935   7.831   8.472
85897SOL     OW59464  14.362   8.491   3.138
85897SOL    HW159465  14.436   8.442   3.172
85897SOL    HW259466  14.365   8.476   3.043
85898SOL     OW59467  10.919   9.016  13.967
85898SOL    HW159468  10.837   9.060  13.948
85898SOL    HW259469  10.960   9.003  13.882
85899SOL     OW59470  10.670   6.612  11.200
85899SOL    HW159471  10.658   6.622  11.105
85899SOL    HW259472  10.702   6.697  11.230
85900SOL     OW59473   6.933  11.909   1.832
85900SOL    HW159474   6.843  11.944   1.831
85900SOL    HW259475   6.922  11.816   1.810
85901SOL     OW59476  13.906   4.099   6.397
85901SOL    HW159477  13.829   4.063   6.352
85901SOL    HW259478  13.936   4.029   6.454
85902SOL     OW59479  14.055   0.624  13.953
85902SOL    HW159480  14.114   0.570  14.005
85902SOL    HW259481  14.094   0.626  13.865
85903SOL     OW59482   5.590   6.836   0.402
85903SOL    HW159483   5.542   6.820   0.320
85903SOL    HW259484   5.681   6.819   0.380
85904SOL     OW59485  12.442   5.543   7.048
85904SOL    HW159486  12.505   5.518   6.980
85904SOL    HW259487  12.476   5.625   7.084
85905SOL     OW59488   2.033   0.951   7.356
85905SOL    HW159489   1.986   1.010   7.297
85905SOL    HW259490   1.985   0.959   7.439
85906SOL     OW59491  12.977   3.762   0.342
85906SOL    HW159492  12.963   3.803   0.427
85906SOL    HW259493  12.951   3.829   0.279
85907SOL     OW59494   1.810   0.272   5.773
85907SOL    HW159495   1.751   0.328   5.722
85907SOL    HW259496   1.760   0.192   5.787
85908SOL     OW59497  10.170   8.504   5.974
85908SOL    HW159498  10.170   8.412   6.001
85908SOL    HW259499  10.153   8.501   5.880
85909SOL     OW59500  13.110  10.036  13.687
85909SOL    HW159501  13.193  10.026  13.640
85909SOL    HW259502  13.055   9.965  13.655
85910SOL     OW59503   3.982   9.893   3.354
85910SOL    HW159504   3.970   9.968   3.412
85910SOL    HW259505   3.971   9.929   3.265
85911SOL     OW59506   7.816   5.621  13.113
85911SOL    HW159507   7.899   5.669  13.121
85911SOL    HW259508   7.751   5.688  13.092
85912SOL     OW59509   4.972   0.314   1.492
85912SOL    HW159510   5.049   0.314   1.548
85912SOL    HW259511   4.991   0.379   1.425
85913SOL     OW59512  12.467   5.209   4.750
85913SOL    HW159513  12.391   5.154   4.729
85913SOL    HW259514  12.538   5.147   4.766
85914SOL     OW59515  11.232  12.927   5.852
85914SOL    HW159516  11.156  12.986   5.851
85914SOL    HW259517  11.272  12.940   5.938
85915SOL     OW59518   4.978   2.955   2.967
85915SOL    HW159519   4.901   2.912   2.931
85915SOL    HW259520   4.944   3.018   3.030
85916SOL     OW59521   7.393   6.934   7.398
85916SOL    HW159522   7.365   7.012   7.349
85916SOL    HW259523   7.426   6.969   7.481
85917SOL     OW59524   4.469   9.130  10.973
85917SOL    HW159525   4.533   9.185  10.928
85917SOL    HW259526   4.517   9.092  11.046
85918SOL     OW59527   9.827   3.122  12.127
85918SOL    HW159528   9.748   3.170  12.153
85918SOL    HW259529   9.794   3.044  12.083
85919SOL     OW59530   8.791   8.977   5.021
85919SOL    HW159531   8.736   8.935   5.087
85919SOL    HW259532   8.762   9.069   5.022
85920SOL     OW59533   7.322   7.215   5.880
85920SOL    HW159534   7.317   7.122   5.856
85920SOL    HW259535   7.285   7.219   5.968
85921SOL     OW59536   4.363   0.214   0.027
85921SOL    HW159537   4.307   0.189   0.101
85921SOL    HW259538   4.358   0.310   0.025
85922SOL     OW59539  13.802   3.357  11.202
85922SOL    HW159540  13.798   3.384  11.293
85922SOL    HW259541  13.849   3.273  11.204
85923SOL     OW59542   7.267   2.579   0.422
85923SOL    HW159543   7.311   2.548   0.344
85923SOL    HW259544   7.308   2.532   0.494
85924SOL     OW59545   9.286   0.055   0.883
85924SOL    HW159546   9.262   0.019   0.798
85924SOL    HW259547   9.359   0.001   0.913
85925SOL     OW59548   4.067   4.559  12.973
85925SOL    HW159549   4.104   4.471  12.983
85925SOL    HW259550   4.106   4.591  12.892
85926SOL     OW59551  10.271   1.115   9.178
85926SOL    HW159552  10.304   1.085   9.263
85926SOL    HW259553  10.189   1.160   9.199
85927SOL     OW59554   4.222   6.579  12.202
85927SOL    HW159555   4.132   6.610  12.201
85927SOL    HW259556   4.261   6.614  12.122
85928SOL     OW59557   5.773  14.517   4.054
85928SOL    HW159558   5.796  14.576   4.127
85928SOL    HW259559   5.761  14.576   3.980
85929SOL     OW59560  10.626  11.726   1.243
85929SOL    HW159561  10.570  11.692   1.172
85929SOL    HW259562  10.669  11.648   1.278
85930SOL     OW59563   0.266  12.000  10.190
85930SOL    HW159564   0.179  11.968  10.165
85930SOL    HW259565   0.250  12.065  10.257
85931SOL     OW59566   5.701   6.650   1.686
85931SOL    HW159567   5.675   6.647   1.594
85931SOL    HW259568   5.789   6.612   1.688
85932SOL     OW59569   9.027   6.572   6.886
85932SOL    HW159570   8.970   6.637   6.845
85932SOL    HW259571   8.975   6.536   6.958
85933SOL     OW59572   4.401   1.900   4.825
85933SOL    HW159573   4.380   1.809   4.802
85933SOL    HW259574   4.316   1.944   4.828
85934SOL     OW59575  10.052  10.591   7.374
85934SOL    HW159576  10.017  10.649   7.442
85934SOL    HW259577  10.143  10.618   7.363
85935SOL     OW59578   5.259  12.917   4.674
85935SOL    HW159579   5.208  12.987   4.715
85935SOL    HW259580   5.195  12.849   4.654
85936SOL     OW59581  11.726  11.891   8.655
85936SOL    HW159582  11.804  11.915   8.605
85936SOL    HW259583  11.758  11.873   8.743
85937SOL     OW59584   1.805  10.171   9.201
85937SOL    HW159585   1.780  10.179   9.109
85937SOL    HW259586   1.730  10.130   9.244
85938SOL     OW59587   3.463  12.997   6.012
85938SOL    HW159588   3.472  12.919   5.956
85938SOL    HW259589   3.394  13.048   5.970
85939SOL     OW59590  13.705  13.930   3.252
85939SOL    HW159591  13.636  13.929   3.186
85939SOL    HW259592  13.671  13.986   3.322
85940SOL     OW59593   2.245   5.978   1.973
85940SOL    HW159594   2.265   5.892   1.937
85940SOL    HW259595   2.181   6.015   1.912
85941SOL     OW59596   2.977  13.359   6.137
85941SOL    HW159597   3.026  13.297   6.083
85941SOL    HW259598   2.963  13.435   6.080
85942SOL     OW59599  10.964   7.377   7.758
85942SOL    HW159600  10.874   7.351   7.744
85942SOL    HW259601  10.995   7.321   7.830
85943SOL     OW59602   3.447   1.674  10.737
85943SOL    HW159603   3.388   1.690  10.811
85943SOL    HW259604   3.511   1.612  10.771
85944SOL     OW59605   2.241   3.829  11.432
85944SOL    HW159606   2.244   3.734  11.428
85944SOL    HW259607   2.249   3.858  11.341
85945SOL     OW59608  12.225  12.182   7.204
85945SOL    HW159609  12.206  12.217   7.291
85945SOL    HW259610  12.183  12.096   7.204
85946SOL     OW59611   0.668  11.537  12.653
85946SOL    HW159612   0.581  11.560  12.620
85946SOL    HW259613   0.725  11.608  12.624
85947SOL     OW59614  11.699   0.670  10.577
85947SOL    HW159615  11.627   0.609  10.596
85947SOL    HW259616  11.773   0.614  10.556
85948SOL     OW59617   5.466   4.856  14.039
85948SOL    HW159618   5.538   4.919  14.036
85948SOL    HW259619   5.411   4.886  14.112
85949SOL     OW59620   2.591   4.223   5.789
85949SOL    HW159621   2.686   4.234   5.802
85949SOL    HW259622   2.552   4.245   5.873
85950SOL     OW59623   2.472  10.250   5.721
85950SOL    HW159624   2.557  10.268   5.682
85950SOL    HW259625   2.413  10.239   5.647
85951SOL     OW59626   5.433  14.601   6.694
85951SOL    HW159627   5.415  14.689   6.662
85951SOL    HW259628   5.452  14.613   6.788
85952SOL     OW59629   7.963   3.440  14.796
85952SOL    HW159630   8.055   3.450  14.770
85952SOL    HW259631   7.914   3.467  14.718
85953SOL     OW59632  14.129   0.718  11.892
85953SOL    HW159633  14.154   0.676  11.810
85953SOL    HW259634  14.119   0.811  11.870
85954SOL     OW59635   9.990   2.617  14.608
85954SOL    HW159636   9.930   2.544  14.626
85954SOL    HW259637   9.999   2.617  14.513
85955SOL     OW59638   4.478  10.198   7.628
85955SOL    HW159639   4.573  10.196   7.641
85955SOL    HW259640   4.450  10.108   7.643
85956SOL     OW59641   2.572  12.549   3.741
85956SOL    HW159642   2.524  12.583   3.666
85956SOL    HW259643   2.519  12.477   3.774
85957SOL     OW59644   8.398  10.789  13.002
85957SOL    HW159645   8.328  10.725  12.992
85957SOL    HW259646   8.436  10.770  13.089
85958SOL     OW59647  10.661   1.467  11.571
85958SOL    HW159648  10.594   1.527  11.603
85958SOL    HW259649  10.742   1.494  11.615
85959SOL     OW59650   4.614   1.633  10.108
85959SOL    HW159651   4.549   1.624  10.038
85959SOL    HW259652   4.660   1.714  10.088
85960SOL     OW59653   5.897   5.496   0.885
85960SOL    HW159654   5.952   5.533   0.816
85960SOL    HW259655   5.838   5.436   0.838
85961SOL     OW59656  13.627   3.718   5.621
85961SOL    HW159657  13.651   3.776   5.694
85961SOL    HW259658  13.538   3.745   5.597
85962SOL     OW59659   4.602   2.346  13.897
85962SOL    HW159660   4.570   2.422  13.946
85962SOL    HW259661   4.545   2.342  13.820
85963SOL     OW59662   8.742   4.116   7.146
85963SOL    HW159663   8.732   4.180   7.216
85963SOL    HW259664   8.659   4.069   7.143
85964SOL     OW59665  12.365   6.952  13.915
85964SOL    HW159666  12.412   7.004  13.980
85964SOL    HW259667  12.408   6.866  13.919
85965SOL     OW59668   5.092   2.299   4.260
85965SOL    HW159669   5.075   2.389   4.289
85965SOL    HW259670   5.017   2.276   4.206
85966SOL     OW59671   3.835   7.658  14.658
85966SOL    HW159672   3.836   7.588  14.723
85966SOL    HW259673   3.862   7.736  14.707
85967SOL     OW59674   4.029  12.190   6.587
85967SOL    HW159675   3.982  12.170   6.668
85967SOL    HW259676   3.963  12.180   6.518
85968SOL     OW59677   3.471   0.984   6.830
85968SOL    HW159678   3.565   0.984   6.842
85968SOL    HW259679   3.435   0.970   6.918
85969SOL     OW59680  12.863   5.966   8.957
85969SOL    HW159681  12.948   5.922   8.964
85969SOL    HW259682  12.863   6.003   8.868
85970SOL     OW59683   9.441  11.852  14.161
85970SOL    HW159684   9.503  11.867  14.089
85970SOL    HW259685   9.447  11.758  14.178
85971SOL     OW59686   7.429  14.833   2.483
85971SOL    HW159687   7.474  14.844   2.567
85971SOL    HW259688   7.473   0.012   2.424
85972SOL     OW59689  14.861   7.461   0.940
85972SOL    HW159690  14.795   7.393   0.939
85972SOL    HW259691  14.828   7.529   0.881
85973SOL     OW59692   3.100   9.424   1.057
85973SOL    HW159693   3.098   9.481   0.981
85973SOL    HW259694   3.149   9.347   1.028
85974SOL     OW59695   9.861  10.907   1.303
85974SOL    HW159696   9.881  10.994   1.339
85974SOL    HW259697   9.945  10.875   1.270
85975SOL     OW59698   5.011   9.386   9.496
85975SOL    HW159699   4.945   9.401   9.429
85975SOL    HW259700   4.972   9.420   9.576
85976SOL     OW59701  14.867  13.511  10.630
85976SOL    HW159702  14.799  13.510  10.698
85976SOL    HW259703   0.066  13.534  10.677
85977SOL     OW59704   6.459   9.169   4.096
85977SOL    HW159705   6.474   9.262   4.113
85977SOL    HW259706   6.408   9.139   4.170
85978SOL     OW59707  10.949   1.283   0.235
85978SOL    HW159708  10.967   1.211   0.296
85978SOL    HW259709  11.002   1.262   0.158
85979SOL     OW59710   6.845  11.220   6.224
85979SOL    HW159711   6.923  11.258   6.264
85979SOL    HW259712   6.774  11.239   6.286
85980SOL     OW59713   7.543   3.039   2.438
85980SOL    HW159714   7.519   2.975   2.372
85980SOL    HW259715   7.567   2.987   2.515
85981SOL     OW59716  11.082   4.091   6.905
85981SOL    HW159717  11.080   4.023   6.839
85981SOL    HW259718  11.137   4.056   6.975
85982SOL     OW59719   4.942   1.002  14.243
85982SOL    HW159720   4.881   0.949  14.295
85982SOL    HW259721   4.891   1.030  14.167
85983SOL     OW59722   8.995  14.541  13.579
85983SOL    HW159723   9.066  14.485  13.548
85983SOL    HW259724   8.929  14.537  13.510
85984SOL     OW59725   1.208  14.766   9.800
85984SOL    HW159726   1.142  14.830   9.828
85984SOL    HW259727   1.214  14.705   9.873
85985SOL     OW59728   6.302   6.935   3.303
85985SOL    HW159729   6.278   6.903   3.390
85985SOL    HW259730   6.303   6.856   3.249
85986SOL     OW59731   7.053   6.052  12.501
85986SOL    HW159732   7.052   6.008  12.416
85986SOL    HW259733   7.022   6.141  12.483
85987SOL     OW59734   1.515  13.066   2.526
85987SOL    HW159735   1.585  13.130   2.524
85987SOL    HW259736   1.436  13.117   2.546
85988SOL     OW59737  10.185  14.219  12.486
85988SOL    HW159738  10.231  14.302  12.496
85988SOL    HW259739  10.097  14.236  12.520
85989SOL     OW59740  14.460   3.962   6.072
85989SOL    HW159741  14.429   3.915   5.995
85989SOL    HW259742  14.391   4.024   6.092
85990SOL     OW59743  14.249   7.811   5.976
85990SOL    HW159744  14.233   7.749   6.046
85990SOL    HW259745  14.301   7.763   5.912
85991SOL     OW59746   0.594   9.681   0.657
85991SOL    HW159747   0.677   9.703   0.698
85991SOL    HW259748   0.530   9.737   0.701
85992SOL     OW59749   1.991  12.141  14.232
85992SOL    HW159750   2.003  12.105  14.144
85992SOL    HW259751   2.031  12.228  14.228
85993SOL     OW59752  13.337   7.454   2.419
85993SOL    HW159753  13.274   7.525   2.422
85993SOL    HW259754  13.383   7.467   2.336
85994SOL     OW59755  10.484  13.905   5.470
85994SOL    HW159756  10.512  13.968   5.404
85994SOL    HW259757  10.558  13.845   5.478
85995SOL     OW59758  10.603  12.535  12.298
85995SOL    HW159759  10.615  12.483  12.377
85995SOL    HW259760  10.510  12.531  12.279
85996SOL     OW59761  14.075  11.801   7.378
85996SOL    HW159762  14.138  11.730   7.360
85996SOL    HW259763  14.009  11.790   7.310
85997SOL     OW59764   9.701   6.377   7.515
85997SOL    HW159765   9.625   6.329   7.483
85997SOL    HW259766   9.746   6.316   7.573
85998SOL     OW59767  13.349   0.894  12.629
85998SOL    HW159768  13.428   0.911  12.577
85998SOL    HW259769  13.314   0.981  12.648
85999SOL     OW59770   1.841   5.547  12.464
85999SOL    HW159771   1.832   5.524  12.557
85999SOL    HW259772   1.832   5.642  12.461
86000SOL     OW59773  11.847  12.454  13.223
86000SOL    HW159774  11.840  12.545  13.250
86000SOL    HW259775  11.937  12.446  13.189
86001SOL     OW59776   7.326   6.161   4.189
86001SOL    HW159777   7.377   6.236   4.158
86001SOL    HW259778   7.269   6.138   4.116
86002SOL     OW59779   6.758  13.678   3.534
86002SOL    HW159780   6.743  13.589   3.504
86002SOL    HW259781   6.671  13.714   3.549
86003SOL     OW59782   9.141  12.701   5.108
86003SOL    HW159783   9.201  12.731   5.040
86003SOL    HW259784   9.195  12.649   5.167
86004SOL     OW59785   4.680   6.767   3.798
86004SOL    HW159786   4.677   6.697   3.733
86004SOL    HW259787   4.705   6.723   3.879
86005SOL     OW59788  12.494   8.938   0.271
86005SOL    HW159789  12.575   8.988   0.258
86005SOL    HW259790  12.504   8.898   0.357
86006SOL     OW59791   8.690   9.038   7.650
86006SOL    HW159792   8.606   9.083   7.658
86006SOL    HW259793   8.669   8.955   7.606
86007SOL     OW59794  10.900   1.249  14.129
86007SOL    HW159795  10.933   1.335  14.153
86007SOL    HW259796  10.828   1.267  14.068
86008SOL     OW59797   2.546   0.109   6.549
86008SOL    HW159798   2.525   0.016   6.550
86008SOL    HW259799   2.596   0.122   6.468
86009SOL     OW59800   7.078   6.046   0.080
86009SOL    HW159801   6.984   6.027   0.085
86009SOL    HW259802   7.106   6.053   0.171
86010SOL     OW59803   8.340  10.159   4.080
86010SOL    HW159804   8.412  10.219   4.057
86010SOL    HW259805   8.338  10.160   4.176
86011SOL     OW59806  14.168  10.227   9.551
86011SOL    HW159807  14.078  10.255   9.564
86011SOL    HW259808  14.203  10.287   9.485
86012SOL     OW59809   7.051  11.627   1.685
86012SOL    HW159810   7.097  11.707   1.660
86012SOL    HW259811   6.972  11.626   1.631
86013SOL     OW59812   4.790   1.572  13.206
86013SOL    HW159813   4.748   1.509  13.148
86013SOL    HW259814   4.860   1.611  13.153
86014SOL     OW59815   6.160  11.114   4.799
86014SOL    HW159816   6.065  11.113   4.795
86014SOL    HW259817   6.189  11.077   4.715
86015SOL     OW59818   7.306   0.393   8.803
86015SOL    HW159819   7.302   0.307   8.761
86015SOL    HW259820   7.295   0.374   8.896
86016SOL     OW59821  12.753   1.575  10.109
86016SOL    HW159822  12.766   1.557  10.016
86016SOL    HW259823  12.670   1.531  10.130
86017SOL     OW59824   4.458   9.648   7.781
86017SOL    HW159825   4.540   9.603   7.803
86017SOL    HW259826   4.433   9.693   7.862
86018SOL     OW59827   8.927  13.334   1.923
86018SOL    HW159828   8.949  13.318   2.015
86018SOL    HW259829   9.009  13.321   1.876
86019SOL     OW59830   2.606  12.834   5.041
86019SOL    HW159831   2.655  12.846   4.960
86019SOL    HW259832   2.668  12.792   5.101
86020SOL     OW59833   1.908  11.109  10.552
86020SOL    HW159834   1.977  11.053  10.516
86020SOL    HW259835   1.865  11.146  10.476
86021SOL     OW59836   4.895  13.562   6.495
86021SOL    HW159837   4.959  13.544   6.426
86021SOL    HW259838   4.943  13.551   6.577
86022SOL     OW59839   8.424   3.923  13.457
86022SOL    HW159840   8.422   3.934  13.362
86022SOL    HW259841   8.347   3.970  13.489
86023SOL     OW59842   0.481   2.411  11.829
86023SOL    HW159843   0.401   2.360  11.841
86023SOL    HW259844   0.451   2.501  11.816
86024SOL     OW59845  14.656   6.306   9.669
86024SOL    HW159846  14.708   6.266   9.600
86024SOL    HW259847  14.669   6.400   9.658
86025SOL     OW59848   8.402   6.010  10.696
86025SOL    HW159849   8.370   6.075  10.758
86025SOL    HW259850   8.327   5.952  10.681
86026SOL     OW59851  11.912   6.122   3.771
86026SOL    HW159852  12.004   6.141   3.788
86026SOL    HW259853  11.881   6.197   3.720
86027SOL     OW59854   3.481   2.149   2.948
86027SOL    HW159855   3.556   2.098   2.918
86027SOL    HW259856   3.452   2.196   2.870
86028SOL     OW59857   6.785   2.892   1.539
86028SOL    HW159858   6.816   2.980   1.563
86028SOL    HW259859   6.690   2.899   1.537
86029SOL     OW59860  10.119   7.322  12.703
86029SOL    HW159861  10.145   7.308  12.612
86029SOL    HW259862  10.136   7.415  12.719
86030SOL     OW59863  13.370   9.441   7.982
86030SOL    HW159864  13.336   9.502   8.048
86030SOL    HW259865  13.294   9.392   7.953
86031SOL     OW59866  11.566   9.605  13.756
86031SOL    HW159867  11.531   9.694  13.756
86031SOL    HW259868  11.597   9.591  13.846
86032SOL     OW59869   3.180   3.476   8.694
86032SOL    HW159870   3.118   3.404   8.697
86032SOL    HW259871   3.147   3.539   8.758
86033SOL     OW59872   2.960   7.926   0.991
86033SOL    HW159873   3.024   7.983   0.950
86033SOL    HW259874   2.913   7.983   1.052
86034SOL     OW59875  12.929  14.671   1.314
86034SOL    HW159876  12.844  14.706   1.285
86034SOL    HW259877  12.918  14.657   1.408
86035SOL     OW59878   1.406   4.808   8.562
86035SOL    HW159879   1.328   4.763   8.593
86035SOL    HW259880   1.463   4.813   8.639
86036SOL     OW59881   5.156  13.842  11.105
86036SOL    HW159882   5.071  13.882  11.085
86036SOL    HW259883   5.216  13.879  11.041
86037SOL     OW59884   4.590   7.902  12.297
86037SOL    HW159885   4.574   7.989  12.335
86037SOL    HW259886   4.682   7.902  12.274
86038SOL     OW59887  14.401  10.056   7.481
86038SOL    HW159888  14.439   9.982   7.527
86038SOL    HW259889  14.332  10.088   7.539
86039SOL     OW59890   1.688  10.306   9.784
86039SOL    HW159891   1.690  10.392   9.827
86039SOL    HW259892   1.774  10.268   9.804
86040SOL     OW59893   7.173  14.716   2.748
86040SOL    HW159894   7.174  14.680   2.837
86040SOL    HW259895   7.241  14.667   2.702
86041SOL     OW59896   2.217   2.104   2.325
86041SOL    HW159897   2.267   2.083   2.246
86041SOL    HW259898   2.169   2.184   2.302
86042SOL     OW59899   1.022   2.978  10.870
86042SOL    HW159900   0.935   2.939  10.856
86042SOL    HW259901   1.007   3.072  10.866
86043SOL     OW59902  11.098  11.566   2.670
86043SOL    HW159903  11.146  11.519   2.739
86043SOL    HW259904  11.132  11.528   2.588
86044SOL     OW59905   6.562   8.926   9.604
86044SOL    HW159906   6.585   9.006   9.651
86044SOL    HW259907   6.618   8.859   9.644
86045SOL     OW59908  12.422   9.665   4.927
86045SOL    HW159909  12.503   9.704   4.895
86045SOL    HW259910  12.443   9.636   5.016
86046SOL     OW59911   6.081   7.240   0.203
86046SOL    HW159912   6.140   7.260   0.275
86046SOL    HW259913   5.995   7.232   0.244
86047SOL     OW59914   9.663   8.253   7.465
86047SOL    HW159915   9.570   8.274   7.477
86047SOL    HW259916   9.697   8.324   7.411
86048SOL     OW59917  13.064   7.646  14.837
86048SOL    HW159918  13.058   7.712  14.769
86048SOL    HW259919  12.994   7.583  14.816
86049SOL     OW59920  11.506   7.799   8.877
86049SOL    HW159921  11.534   7.710   8.899
86049SOL    HW259922  11.464   7.791   8.791
86050SOL     OW59923   8.632   4.894   0.576
86050SOL    HW159924   8.673   4.973   0.541
86050SOL    HW259925   8.584   4.924   0.653
86051SOL     OW59926  14.174   6.602   0.618
86051SOL    HW159927  14.106   6.594   0.551
86051SOL    HW259928  14.152   6.681   0.666
86052SOL     OW59929   1.075   2.041   5.335
86052SOL    HW159930   1.055   1.948   5.345
86052SOL    HW259931   1.099   2.070   5.423
86053SOL     OW59932  10.887   1.737  10.161
86053SOL    HW159933  10.832   1.659  10.151
86053SOL    HW259934  10.881   1.781  10.076
86054SOL     OW59935  12.760   2.985   5.974
86054SOL    HW159936  12.839   3.039   5.968
86054SOL    HW259937  12.792   2.899   6.002
86055SOL     OW59938  10.646  11.397  12.340
86055SOL    HW159939  10.736  11.363  12.347
86055SOL    HW259940  10.602  11.336  12.281
86056SOL     OW59941   7.854   5.703  12.812
86056SOL    HW159942   7.881   5.620  12.775
86056SOL    HW259943   7.766   5.686  12.846
86057SOL     OW59944   8.020  13.592   2.678
86057SOL    HW159945   7.967  13.627   2.750
86057SOL    HW259946   8.010  13.497   2.686
86058SOL     OW59947  10.403   0.092  10.314
86058SOL    HW159948  10.469   0.160  10.301
86058SOL    HW259949  10.381   0.098  10.407
86059SOL     OW59950  12.315  12.228   0.176
86059SOL    HW159951  12.340  12.286   0.105
86059SOL    HW259952  12.374  12.251   0.248
86060SOL     OW59953  12.169   3.429   5.131
86060SOL    HW159954  12.233   3.359   5.118
86060SOL    HW259955  12.161   3.470   5.045
86061SOL     OW59956   1.016   5.214   5.585
86061SOL    HW159957   0.936   5.171   5.616
86061SOL    HW259958   0.985   5.293   5.541
86062SOL     OW59959   5.302   8.848   6.312
86062SOL    HW159960   5.308   8.891   6.227
86062SOL    HW259961   5.295   8.755   6.291
86063SOL     OW59962   8.602   0.976  10.103
86063SOL    HW159963   8.607   1.070  10.119
86063SOL    HW259964   8.692   0.950  10.084
86064SOL     OW59965   4.823   1.083  12.984
86064SOL    HW159966   4.822   1.154  12.920
86064SOL    HW259967   4.834   1.128  13.068
86065SOL     OW59968   7.118  11.531   4.509
86065SOL    HW159969   7.166  11.608   4.539
86065SOL    HW259970   7.168  11.501   4.433
86066SOL     OW59971  10.020   8.119  11.465
86066SOL    HW159972  10.020   8.213  11.484
86066SOL    HW259973  10.050   8.112  11.375
86067SOL     OW59974   5.359   9.297   6.912
86067SOL    HW159975   5.281   9.329   6.866
86067SOL    HW259976   5.416   9.266   6.843
86068SOL     OW59977   3.720   1.830  12.762
86068SOL    HW159978   3.642   1.870  12.802
86068SOL    HW259979   3.747   1.893  12.695
86069SOL     OW59980  11.718   0.975  11.674
86069SOL    HW159981  11.799   1.017  11.644
86069SOL    HW259982  11.742   0.931  11.755
86070SOL     OW59983   1.829  13.235  13.746
86070SOL    HW159984   1.906  13.185  13.776
86070SOL    HW259985   1.824  13.309  13.807
86071SOL     OW59986   9.187   2.969   1.033
86071SOL    HW159987   9.138   2.968   0.950
86071SOL    HW259988   9.193   2.877   1.058
86072SOL     OW59989   9.076   9.636  14.439
86072SOL    HW159990   8.991   9.654  14.400
86072SOL    HW259991   9.059   9.566  14.502
86073SOL     OW59992   2.631   2.031   9.978
86073SOL    HW159993   2.688   2.083   9.922
86073SOL    HW259994   2.547   2.076   9.977
86074SOL     OW59995   1.664  13.220   5.567
86074SOL    HW159996   1.581  13.247   5.527
86074SOL    HW259997   1.731  13.254   5.509
86075SOL     OW59998  12.852  12.984   2.110
86075SOL    HW159999  12.941  12.989   2.144
86075SOL    HW260000  12.863  12.961   2.017
86076SOL     OW60001   0.997  12.529  11.391
86076SOL    HW160002   0.904  12.538  11.416
86076SOL    HW260003   0.994  12.493  11.303
86077SOL     OW60004   4.355   6.194  10.384
86077SOL    HW160005   4.273   6.193  10.335
86077SOL    HW260006   4.392   6.106  10.371
86078SOL     OW60007  14.178   7.136  12.242
86078SOL    HW160008  14.125   7.111  12.317
86078SOL    HW260009  14.255   7.080  12.247
86079SOL     OW60010   5.186   6.581  11.951
86079SOL    HW160011   5.243   6.652  11.980
86079SOL    HW260012   5.145   6.548  12.031
86080SOL     OW60013  11.900   6.323   8.509
86080SOL    HW160014  11.887   6.395   8.570
86080SOL    HW260015  11.827   6.330   8.447
86081SOL     OW60016   5.511  11.187  10.870
86081SOL    HW160017   5.537  11.274  10.840
86081SOL    HW260018   5.589  11.151  10.912
86082SOL     OW60019   9.119  11.990  11.305
86082SOL    HW160020   9.030  11.991  11.270
86082SOL    HW260021   9.139  11.897  11.315
86083SOL     OW60022   8.709   0.013   0.693
86083SOL    HW160023   8.799   0.022   0.663
86083SOL    HW260024   8.716  14.867   0.784
86084SOL     OW60025   6.779  12.736   7.384
86084SOL    HW160026   6.850  12.744   7.320
86084SOL    HW260027   6.786  12.647   7.418
86085SOL     OW60028   2.101  14.518   9.166
86085SOL    HW160029   2.074  14.564   9.245
86085SOL    HW260030   2.113  14.427   9.193
86086SOL     OW60031  12.233  10.195   7.819
86086SOL    HW160032  12.176  10.271   7.828
86086SOL    HW260033  12.197  10.147   7.744
86087SOL     OW60034   7.045   9.059   2.594
86087SOL    HW160035   7.138   9.054   2.572
86087SOL    HW260036   7.019   9.147   2.568
86088SOL     OW60037  12.221   3.044   8.672
86088SOL    HW160038  12.197   3.024   8.582
86088SOL    HW260039  12.311   3.013   8.681
86089SOL     OW60040  12.427  10.967   2.018
86089SOL    HW160041  12.368  10.976   1.943
86089SOL    HW260042  12.514  10.956   1.979
86090SOL     OW60043   7.783  14.800   3.435
86090SOL    HW160044   7.864  14.751   3.450
86090SOL    HW260045   7.765  14.844   3.518
86091SOL     OW60046   6.466   7.589   0.652
86091SOL    HW160047   6.471   7.600   0.747
86091SOL    HW260048   6.498   7.672   0.616
86092SOL     OW60049  11.139   7.163   0.236
86092SOL    HW160050  11.212   7.155   0.175
86092SOL    HW260051  11.149   7.089   0.295
86093SOL     OW60052   2.791   6.003  11.081
86093SOL    HW160053   2.737   5.924  11.086
86093SOL    HW260054   2.810   6.014  10.988
86094SOL     OW60055  11.173   8.026   9.222
86094SOL    HW160056  11.224   7.976   9.159
86094SOL    HW260057  11.238   8.075   9.272
86095SOL     OW60058   4.472   6.450   2.521
86095SOL    HW160059   4.538   6.383   2.541
86095SOL    HW260060   4.508   6.530   2.557
86096SOL     OW60061   8.501  13.660  12.908
86096SOL    HW160062   8.433  13.613  12.956
86096SOL    HW260063   8.576  13.662  12.967
86097SOL     OW60064  12.022   7.775   5.034
86097SOL    HW160065  12.081   7.849   5.019
86097SOL    HW260066  12.080   7.702   5.055
86098SOL     OW60067   6.478  10.859  12.464
86098SOL    HW160068   6.507  10.880  12.553
86098SOL    HW260069   6.384  10.846  12.472
86099SOL     OW60070  11.989   8.627   6.649
86099SOL    HW160071  12.072   8.595   6.685
86099SOL    HW260072  12.014   8.699   6.591
86100SOL     OW60073   8.444   6.962   2.548
86100SOL    HW160074   8.527   6.974   2.502
86100SOL    HW260075   8.469   6.953   2.640
86101SOL     OW60076   5.358   3.680   8.896
86101SOL    HW160077   5.287   3.736   8.865
86101SOL    HW260078   5.326   3.644   8.978
86102SOL     OW60079  11.838   6.311  14.376
86102SOL    HW160080  11.798   6.225  14.358
86102SOL    HW260081  11.765   6.366  14.404
86103SOL     OW60082  10.176  12.308   4.940
86103SOL    HW160083  10.219  12.391   4.923
86103SOL    HW260084  10.206  12.250   4.870
86104SOL     OW60085   0.934   8.929  10.614
86104SOL    HW160086   0.993   9.004  10.620
86104SOL    HW260087   0.916   8.920  10.520
86105SOL     OW60088  12.914  13.037  13.557
86105SOL    HW160089  12.942  12.956  13.515
86105SOL    HW260090  12.995  13.076  13.591
86106SOL     OW60091  14.658  10.527   4.763
86106SOL    HW160092  14.626  10.438   4.777
86106SOL    HW260093  14.596  10.583   4.810
86107SOL     OW60094   9.800   1.046   0.005
86107SOL    HW160095   9.712   1.010   0.015
86107SOL    HW260096   9.789   1.140   0.018
86108SOL     OW60097  13.003   6.063   9.354
86108SOL    HW160098  13.004   5.968   9.359
86108SOL    HW260099  12.983   6.092   9.443
86109SOL     OW60100   9.886  14.471   4.830
86109SOL    HW160101   9.855  14.450   4.742
86109SOL    HW260102   9.821  14.432   4.888
86110SOL     OW60103   8.585   9.390   5.730
86110SOL    HW160104   8.653   9.443   5.689
86110SOL    HW260105   8.628   9.308   5.753
86111SOL     OW60106   0.532  14.470   7.391
86111SOL    HW160107   0.613  14.484   7.441
86111SOL    HW260108   0.562  14.446   7.303
86112SOL     OW60109   4.953  14.380   2.608
86112SOL    HW160110   4.894  14.330   2.551
86112SOL    HW260111   4.964  14.464   2.563
86113SOL     OW60112  14.140  12.132  14.848
86113SOL    HW160113  14.105  12.204  14.796
86113SOL    HW260114  14.062  12.086  14.880
86114SOL     OW60115   0.668   5.908   2.453
86114SOL    HW160116   0.731   5.837   2.438
86114SOL    HW260117   0.713   5.987   2.423
86115SOL     OW60118   2.061  13.185   6.318
86115SOL    HW160119   2.010  13.244   6.373
86115SOL    HW260120   2.131  13.241   6.282
86116SOL     OW60121   6.058   8.362  14.115
86116SOL    HW160122   5.983   8.412  14.081
86116SOL    HW260123   6.053   8.278  14.069
86117SOL     OW60124  10.069   9.194   3.192
86117SOL    HW160125   9.989   9.153   3.161
86117SOL    HW260126  10.139   9.136   3.163
86118SOL     OW60127   0.436   3.833   2.220
86118SOL    HW160128   0.419   3.749   2.178
86118SOL    HW260129   0.368   3.840   2.288
86119SOL     OW60130   1.476   4.564  13.544
86119SOL    HW160131   1.444   4.644  13.585
86119SOL    HW260132   1.521   4.594  13.465
86120SOL     OW60133  13.815   3.448  14.559
86120SOL    HW160134  13.777   3.536  14.556
86120SOL    HW260135  13.743   3.391  14.531
86121SOL     OW60136   8.503  13.071   7.343
86121SOL    HW160137   8.573  13.035   7.289
86121SOL    HW260138   8.424  13.063   7.288
86122SOL     OW60139  10.215   8.831  11.895
86122SOL    HW160140  10.136   8.863  11.850
86122SOL    HW260141  10.186   8.816  11.985
86123SOL     OW60142  12.869   6.224   9.571
86123SOL    HW160143  12.785   6.227   9.617
86123SOL    HW260144  12.874   6.308   9.525
86124SOL     OW60145   5.158  12.145  10.382
86124SOL    HW160146   5.148  12.238  10.403
86124SOL    HW260147   5.146  12.100  10.465
86125SOL     OW60148  13.906   4.418  11.230
86125SOL    HW160149  13.956   4.471  11.167
86125SOL    HW260150  13.941   4.330  11.220
86126SOL     OW60151  10.213  14.601   4.070
86126SOL    HW160152  10.254  14.651   4.141
86126SOL    HW260153  10.283  14.544   4.038
86127SOL     OW60154   4.379   6.248   3.123
86127SOL    HW160155   4.292   6.285   3.141
86127SOL    HW260156   4.426   6.255   3.206
86128SOL     OW60157   4.079  11.541  11.353
86128SOL    HW160158   4.173  11.557  11.363
86128SOL    HW260159   4.067  11.449  11.376
86129SOL     OW60160   9.065   9.106  14.189
86129SOL    HW160161   9.030   9.021  14.162
86129SOL    HW260162   9.035   9.116  14.279
86130SOL     OW60163   0.797   8.179  12.228
86130SOL    HW160164   0.783   8.174  12.134
86130SOL    HW260165   0.764   8.096  12.262
86131SOL     OW60166   4.224   2.272   1.857
86131SOL    HW160167   4.216   2.290   1.764
86131SOL    HW260168   4.137   2.242   1.883
86132SOL     OW60169  13.770   5.753  10.568
86132SOL    HW160170  13.834   5.805  10.617
86132SOL    HW260171  13.822   5.684  10.527
86133SOL     OW60172   3.506   5.257   2.475
86133SOL    HW160173   3.517   5.202   2.553
86133SOL    HW260174   3.438   5.212   2.424
86134SOL     OW60175  12.991   9.971  10.640
86134SOL    HW160176  12.953  10.036  10.700
86134SOL    HW260177  13.082   9.997  10.632
86135SOL     OW60178   7.781   6.009   4.970
86135SOL    HW160179   7.863   6.012   5.021
86135SOL    HW260180   7.788   6.083   4.910
86136SOL     OW60181   6.707   8.847   0.569
86136SOL    HW160182   6.732   8.797   0.647
86136SOL    HW260183   6.724   8.787   0.497
86137SOL     OW60184   7.054   2.972   8.019
86137SOL    HW160185   7.041   2.973   8.114
86137SOL    HW260186   7.054   2.879   7.996
86138SOL     OW60187  12.838  10.057   5.028
86138SOL    HW160188  12.768  10.008   5.070
86138SOL    HW260189  12.908   9.993   5.015
86139SOL     OW60190  12.905   8.273   7.830
86139SOL    HW160191  12.898   8.342   7.763
86139SOL    HW260192  12.997   8.275   7.856
86140SOL     OW60193   1.659   3.350  13.345
86140SOL    HW160194   1.707   3.406  13.405
86140SOL    HW260195   1.596   3.303  13.399
86141SOL     OW60196   6.544   7.303   2.114
86141SOL    HW160197   6.467   7.348   2.149
86141SOL    HW260198   6.595   7.372   2.072
86142SOL     OW60199   8.965   4.950   5.751
86142SOL    HW160200   8.888   5.006   5.758
86142SOL    HW260201   9.027   5.000   5.698
86143SOL     OW60202   3.558  13.146  11.855
86143SOL    HW160203   3.644  13.130  11.893
86143SOL    HW260204   3.531  13.062  11.818
86144SOL     OW60205  12.891   6.892   1.073
86144SOL    HW160206  12.799   6.871   1.086
86144SOL    HW260207  12.894   6.988   1.073
86145SOL     OW60208   7.430   6.471  11.499
86145SOL    HW160209   7.493   6.435  11.437
86145SOL    HW260210   7.369   6.521  11.445
86146SOL     OW60211   7.026  13.563   1.850
86146SOL    HW160212   7.051  13.471   1.846
86146SOL    HW260213   6.991  13.574   1.939
86147SOL     OW60214   5.057  13.780   8.828
86147SOL    HW160215   5.026  13.691   8.810
86147SOL    HW260216   5.106  13.804   8.750
86148SOL     OW60217   1.587   3.570  10.566
86148SOL    HW160218   1.496   3.590  10.590
86148SOL    HW260219   1.579   3.507  10.494
86149SOL     OW60220   2.644   0.795   3.787
86149SOL    HW160221   2.708   0.821   3.721
86149SOL    HW260222   2.697   0.773   3.864
86150SOL     OW60223   7.019   3.090   0.336
86150SOL    HW160224   6.978   3.026   0.278
86150SOL    HW260225   6.946   3.142   0.370
86151SOL     OW60226  11.260   6.307  14.224
86151SOL    HW160227  11.299   6.273  14.143
86151SOL    HW260228  11.235   6.230  14.274
86152SOL     OW60229   9.560  13.843   5.463
86152SOL    HW160230   9.610  13.763   5.478
86152SOL    HW260231   9.581  13.899   5.537
86153SOL     OW60232   4.757  12.905   4.454
86153SOL    HW160233   4.819  12.849   4.500
86153SOL    HW260234   4.805  12.985   4.435
86154SOL     OW60235   7.633   6.382   3.525
86154SOL    HW160236   7.725   6.398   3.544
86154SOL    HW260237   7.608   6.452   3.464
86155SOL     OW60238   4.620   8.473  13.902
86155SOL    HW160239   4.654   8.524  13.828
86155SOL    HW260240   4.669   8.391  13.899
86156SOL     OW60241   9.398   4.585   0.321
86156SOL    HW160242   9.331   4.614   0.383
86156SOL    HW260243   9.424   4.499   0.354
86157SOL     OW60244  14.674   1.809   7.623
86157SOL    HW160245  14.582   1.814   7.597
86157SOL    HW260246  14.697   1.717   7.612
86158SOL     OW60247   1.820  14.708  14.455
86158SOL    HW160248   1.794  14.744  14.370
86158SOL    HW260249   1.872  14.631  14.432
86159SOL     OW60250  11.831   5.228   6.795
86159SOL    HW160251  11.792   5.198   6.877
86159SOL    HW260252  11.875   5.310   6.818
86160SOL     OW60253   7.865   2.869   4.169
86160SOL    HW160254   7.775   2.867   4.135
86160SOL    HW260255   7.917   2.825   4.102
86161SOL     OW60256  10.115  10.778  13.675
86161SOL    HW160257  10.043  10.809  13.620
86161SOL    HW260258  10.092  10.688  13.696
86162SOL     OW60259  13.938   8.512  11.946
86162SOL    HW160260  14.032   8.528  11.960
86162SOL    HW260261  13.897   8.596  11.961
86163SOL     OW60262   8.002  14.741   1.517
86163SOL    HW160263   8.073  14.677   1.527
86163SOL    HW260264   7.924  14.688   1.498
86164SOL     OW60265  11.306   5.059   4.059
86164SOL    HW160266  11.237   5.013   4.106
86164SOL    HW260267  11.304   5.021   3.971
86165SOL     OW60268  11.083  10.339   1.551
86165SOL    HW160269  11.056  10.430   1.552
86165SOL    HW260270  11.143  10.332   1.476
86166SOL     OW60271   8.829   4.633   6.076
86166SOL    HW160272   8.825   4.555   6.132
86166SOL    HW260273   8.744   4.676   6.090
86167SOL     OW60274  12.081   1.269   8.646
86167SOL    HW160275  12.044   1.223   8.722
86167SOL    HW260276  12.174   1.245   8.647
86168SOL     OW60277   9.164  10.487   2.171
86168SOL    HW160278   9.071  10.499   2.190
86168SOL    HW260279   9.166  10.462   2.078
86169SOL     OW60280   7.304  11.421  12.325
86169SOL    HW160281   7.326  11.438  12.233
86169SOL    HW260282   7.295  11.508  12.364
86170SOL     OW60283  10.875  13.497  12.545
86170SOL    HW160284  10.900  13.405  12.550
86170SOL    HW260285  10.947  13.545  12.585
86171SOL     OW60286  12.216   7.541  10.154
86171SOL    HW160287  12.288   7.591  10.116
86171SOL    HW260288  12.159   7.607  10.194
86172SOL     OW60289   7.075   1.808  10.589
86172SOL    HW160290   6.983   1.814  10.614
86172SOL    HW260291   7.114   1.890  10.619
86173SOL     OW60292   7.169   2.710   6.096
86173SOL    HW160293   7.119   2.697   6.177
86173SOL    HW260294   7.109   2.684   6.026
86174SOL     OW60295   9.554   6.076  12.904
86174SOL    HW160296   9.628   6.134  12.921
86174SOL    HW260297   9.531   6.093  12.812
86175SOL     OW60298   7.089   5.288  13.851
86175SOL    HW160299   7.179   5.286  13.884
86175SOL    HW260300   7.044   5.220  13.901
86176SOL     OW60301   9.965  12.113  10.089
86176SOL    HW160302   9.994  12.204  10.090
86176SOL    HW260303  10.007  12.074  10.165
86177SOL     OW60304  11.592  14.548   5.680
86177SOL    HW160305  11.587  14.585   5.768
86177SOL    HW260306  11.562  14.458   5.690
86178SOL     OW60307   1.927   8.662  10.233
86178SOL    HW160308   1.853   8.721  10.248
86178SOL    HW260309   1.991   8.687  10.299
86179SOL     OW60310   0.415   3.078   6.653
86179SOL    HW160311   0.498   3.083   6.701
86179SOL    HW260312   0.397   2.984   6.648
86180SOL     OW60313  11.069   3.163  13.882
86180SOL    HW160314  10.981   3.151  13.846
86180SOL    HW260315  11.063   3.134  13.973
86181SOL     OW60316  13.653  14.384   3.762
86181SOL    HW160317  13.740  14.404   3.797
86181SOL    HW260318  13.637  14.293   3.787
86182SOL     OW60319   8.317   8.681   3.655
86182SOL    HW160320   8.313   8.714   3.566
86182SOL    HW260321   8.245   8.724   3.700
86183SOL     OW60322   6.828   0.193  12.171
86183SOL    HW160323   6.736   0.198  12.142
86183SOL    HW260324   6.864   0.279  12.152
86184SOL     OW60325   5.461   3.160  14.306
86184SOL    HW160326   5.460   3.078  14.255
86184SOL    HW260327   5.548   3.196  14.290
86185SOL     OW60328   6.321   9.343   2.045
86185SOL    HW160329   6.358   9.431   2.043
86185SOL    HW260330   6.277   9.336   2.130
86186SOL     OW60331   6.419  14.838   6.993
86186SOL    HW160332   6.336  14.804   7.029
86186SOL    HW260333   6.401  14.849   6.899
86187SOL     OW60334   6.261   9.180   3.240
86187SOL    HW160335   6.182   9.193   3.293
86187SOL    HW260336   6.228   9.145   3.157
86188SOL     OW60337   9.132   1.158   9.367
86188SOL    HW160338   9.090   1.182   9.450
86188SOL    HW260339   9.213   1.115   9.393
86189SOL     OW60340  10.979   0.939  13.935
86189SOL    HW160341  11.038   1.008  13.964
86189SOL    HW260342  10.891   0.972  13.955
86190SOL     OW60343   0.577  12.995   3.441
86190SOL    HW160344   0.524  13.074   3.456
86190SOL    HW260345   0.665  13.029   3.427
86191SOL     OW60346  14.306   9.803  13.627
86191SOL    HW160347  14.354   9.858  13.565
86191SOL    HW260348  14.274   9.865  13.693
86192SOL     OW60349   9.743  11.014   2.121
86192SOL    HW160350   9.831  11.044   2.141
86192SOL    HW260351   9.754  10.950   2.051
86193SOL     OW60352   5.474   6.763  12.964
86193SOL    HW160353   5.568   6.755  12.946
86193SOL    HW260354   5.443   6.828  12.900
86194SOL     OW60355   8.732  14.366  10.847
86194SOL    HW160356   8.726  14.364  10.942
86194SOL    HW260357   8.809  14.312  10.827
86195SOL     OW60358  14.377   8.438   6.280
86195SOL    HW160359  14.386   8.473   6.191
86195SOL    HW260360  14.283   8.423   6.290
86196SOL     OW60361  10.189   9.078   7.370
86196SOL    HW160362  10.246   9.082   7.447
86196SOL    HW260363  10.249   9.062   7.297
86197SOL     OW60364   9.605  14.540   4.657
86197SOL    HW160365   9.618  14.548   4.751
86197SOL    HW260366   9.510  14.527   4.647
86198SOL     OW60367   9.920   1.718   7.668
86198SOL    HW160368   9.899   1.630   7.639
86198SOL    HW260369   9.844   1.771   7.642
86199SOL     OW60370   7.403   0.486   7.500
86199SOL    HW160371   7.359   0.569   7.484
86199SOL    HW260372   7.433   0.492   7.591
86200SOL     OW60373   0.154   7.095   8.216
86200SOL    HW160374   0.177   7.070   8.306
86200SOL    HW260375   0.121   7.184   8.225
86201SOL     OW60376   9.763   6.558   6.471
86201SOL    HW160377   9.748   6.501   6.395
86201SOL    HW260378   9.678   6.600   6.486
86202SOL     OW60379  13.135   2.171   3.988
86202SOL    HW160380  13.142   2.244   3.926
86202SOL    HW260381  13.061   2.194   4.044
86203SOL     OW60382  12.191  11.433   0.920
86203SOL    HW160383  12.130  11.435   0.994
86203SOL    HW260384  12.207  11.525   0.899
86204SOL     OW60385   5.068   9.101   1.387
86204SOL    HW160386   5.109   9.155   1.319
86204SOL    HW260387   5.101   9.013   1.371
86205SOL     OW60388  14.371   5.063  14.356
86205SOL    HW160389  14.415   5.117  14.421
86205SOL    HW260390  14.285   5.105  14.345
86206SOL     OW60391   7.411  12.837  10.683
86206SOL    HW160392   7.410  12.844  10.779
86206SOL    HW260393   7.353  12.763  10.664
86207SOL     OW60394   7.779  10.245   7.530
86207SOL    HW160395   7.724  10.261   7.454
86207SOL    HW260396   7.722  10.265   7.605
86208SOL     OW60397   1.351  11.575   7.426
86208SOL    HW160398   1.324  11.666   7.430
86208SOL    HW260399   1.440  11.577   7.391
86209SOL     OW60400  12.125  11.767   9.969
86209SOL    HW160401  12.058  11.757   9.901
86209SOL    HW260402  12.197  11.812   9.925
86210SOL     OW60403   2.588  12.540  13.997
86210SOL    HW160404   2.559  12.451  14.015
86210SOL    HW260405   2.523  12.596  14.039
86211SOL     OW60406  10.913  13.310  13.350
86211SOL    HW160407  10.992  13.353  13.383
86211SOL    HW260408  10.842  13.368  13.376
86212SOL     OW60409  12.506   1.240  12.286
86212SOL    HW160410  12.443   1.249  12.357
86212SOL    HW260411  12.591   1.232  12.329
86213SOL     OW60412  13.939  13.490   0.809
86213SOL    HW160413  13.886  13.549   0.756
86213SOL    HW260414  13.937  13.406   0.762
86214SOL     OW60415   9.415   9.530   8.185
86214SOL    HW160416   9.456   9.483   8.258
86214SOL    HW260417   9.383   9.461   8.127
86215SOL     OW60418  10.390   4.288  10.358
86215SOL    HW160419  10.332   4.223  10.396
86215SOL    HW260420  10.459   4.299  10.423
86216SOL     OW60421   9.297   0.433   3.790
86216SOL    HW160422   9.271   0.458   3.701
86216SOL    HW260423   9.245   0.489   3.847
86217SOL     OW60424  14.385   0.691  10.089
86217SOL    HW160425  14.417   0.764  10.035
86217SOL    HW260426  14.347   0.733  10.166
86218SOL     OW60427  10.718   7.289   7.751
86218SOL    HW160428  10.640   7.299   7.806
86218SOL    HW260429  10.685   7.293   7.661
86219SOL     OW60430   4.711   6.121   3.658
86219SOL    HW160431   4.744   6.033   3.676
86219SOL    HW260432   4.628   6.107   3.612
86220SOL     OW60433   7.498   3.509   1.475
86220SOL    HW160434   7.513   3.525   1.382
86220SOL    HW260435   7.470   3.594   1.509
86221SOL     OW60436  12.243   5.645   6.544
86221SOL    HW160437  12.238   5.558   6.504
86221SOL    HW260438  12.200   5.635   6.629
86222SOL     OW60439   0.191   9.286   5.486
86222SOL    HW160440   0.216   9.261   5.397
86222SOL    HW260441   0.267   9.333   5.520
86223SOL     OW60442   6.388   2.509   1.894
86223SOL    HW160443   6.373   2.548   1.808
86223SOL    HW260444   6.365   2.578   1.956
86224SOL     OW60445  12.061  13.196   2.996
86224SOL    HW160446  12.011  13.276   3.008
86224SOL    HW260447  11.997  13.126   3.003
86225SOL     OW60448  11.818   3.565  12.123
86225SOL    HW160449  11.774   3.650  12.121
86225SOL    HW260450  11.750   3.504  12.150
86226SOL     OW60451   2.664   7.144   1.773
86226SOL    HW160452   2.722   7.079   1.734
86226SOL    HW260453   2.711   7.175   1.850
86227SOL     OW60454   0.022   6.520   3.395
86227SOL    HW160455   0.109   6.522   3.354
86227SOL    HW260456  14.854   6.589   3.351
86228SOL     OW60457   2.111   9.213   5.539
86228SOL    HW160458   2.206   9.208   5.539
86228SOL    HW260459   2.087   9.220   5.631
86229SOL     OW60460   3.384  10.346   7.528
86229SOL    HW160461   3.340  10.261   7.519
86229SOL    HW260462   3.445  10.333   7.601
86230SOL     OW60463   5.471   1.960   5.356
86230SOL    HW160464   5.532   2.003   5.296
86230SOL    HW260465   5.495   1.994   5.443
86231SOL     OW60466  14.584   1.668  10.606
86231SOL    HW160467  14.617   1.711  10.527
86231SOL    HW260468  14.630   1.712  10.678
86232SOL     OW60469  11.242   5.372   6.060
86232SOL    HW160470  11.293   5.453   6.060
86232SOL    HW260471  11.294   5.311   6.113
86233SOL     OW60472   0.637   6.258  14.818
86233SOL    HW160473   0.585   6.256  14.737
86233SOL    HW260474   0.685   6.175  14.817
86234SOL     OW60475   4.973   2.083   6.769
86234SOL    HW160476   5.010   1.994   6.768
86234SOL    HW260477   4.879   2.070   6.753
86235SOL     OW60478  13.165   8.623   2.065
86235SOL    HW160479  13.210   8.600   2.146
86235SOL    HW260480  13.113   8.700   2.087
86236SOL     OW60481   2.414   6.613   5.423
86236SOL    HW160482   2.445   6.641   5.509
86236SOL    HW260483   2.344   6.551   5.442
86237SOL     OW60484  13.305   8.969   7.465
86237SOL    HW160485  13.381   9.013   7.428
86237SOL    HW260486  13.341   8.896   7.516
86238SOL     OW60487   4.416  10.307  10.909
86238SOL    HW160488   4.453  10.226  10.875
86238SOL    HW260489   4.390  10.286  10.998
86239SOL     OW60490   0.468   3.701  14.301
86239SOL    HW160491   0.402   3.696  14.232
86239SOL    HW260492   0.510   3.615  14.300
86240SOL     OW60493   4.286   5.134   4.916
86240SOL    HW160494   4.282   5.098   5.005
86240SOL    HW260495   4.256   5.225   4.926
86241SOL     OW60496   6.332  10.561   9.807
86241SOL    HW160497   6.311  10.506   9.732
86241SOL    HW260498   6.415  10.525   9.840
86242SOL     OW60499   0.136   8.014   2.733
86242SOL    HW160500   0.111   7.922   2.728
86242SOL    HW260501   0.108   8.051   2.649
86243SOL     OW60502   2.728  12.282   4.044
86243SOL    HW160503   2.646  12.332   4.051
86243SOL    HW260504   2.715  12.225   3.968
86244SOL     OW60505   8.241   0.772   1.233
86244SOL    HW160506   8.276   0.792   1.145
86244SOL    HW260507   8.197   0.853   1.259
86245SOL     OW60508  12.546   4.739   1.142
86245SOL    HW160509  12.633   4.761   1.109
86245SOL    HW260510  12.510   4.822   1.173
86246SOL     OW60511   3.196  10.990   1.393
86246SOL    HW160512   3.156  10.903   1.389
86246SOL    HW260513   3.257  10.992   1.319
86247SOL     OW60514  12.755  12.826   1.087
86247SOL    HW160515  12.714  12.751   1.044
86247SOL    HW260516  12.848  12.819   1.064
86248SOL     OW60517   9.608   0.927   3.042
86248SOL    HW160518   9.675   0.975   2.993
86248SOL    HW260519   9.597   0.976   3.123
86249SOL     OW60520   3.702   6.764   0.575
86249SOL    HW160521   3.773   6.794   0.519
86249SOL    HW260522   3.713   6.669   0.578
86250SOL     OW60523   9.461   2.321   5.300
86250SOL    HW160524   9.458   2.286   5.389
86250SOL    HW260525   9.505   2.253   5.249
86251SOL     OW60526   2.525  11.134  11.694
86251SOL    HW160527   2.555  11.044  11.707
86251SOL    HW260528   2.589  11.173  11.634
86252SOL     OW60529   7.590  10.609   5.394
86252SOL    HW160530   7.510  10.563   5.368
86252SOL    HW260531   7.637  10.546   5.449
86253SOL     OW60532   0.250  13.133   4.779
86253SOL    HW160533   0.316  13.193   4.745
86253SOL    HW260534   0.301  13.058   4.811
86254SOL     OW60535   9.671  12.177   4.553
86254SOL    HW160536   9.728  12.159   4.627
86254SOL    HW260537   9.682  12.271   4.536
86255SOL     OW60538   1.165   1.353   0.196
86255SOL    HW160539   1.223   1.425   0.221
86255SOL    HW260540   1.211   1.309   0.125
86256SOL     OW60541   6.536   5.264   2.841
86256SOL    HW160542   6.476   5.198   2.806
86256SOL    HW260543   6.480   5.339   2.860
86257SOL     OW60544   2.496  10.182   4.342
86257SOL    HW160545   2.528  10.095   4.316
86257SOL    HW260546   2.495  10.232   4.260
86258SOL     OW60547   2.037  11.567  10.125
86258SOL    HW160548   2.062  11.548  10.215
86258SOL    HW260549   2.016  11.660  10.125
86259SOL     OW60550   6.927  13.991   2.247
86259SOL    HW160551   6.840  13.958   2.224
86259SOL    HW260552   6.973  13.914   2.283
86260SOL     OW60553   9.190   1.785   7.262
86260SOL    HW160554   9.133   1.857   7.232
86260SOL    HW260555   9.252   1.827   7.322
86261SOL     OW60556  13.350  10.958   4.490
86261SOL    HW160557  13.347  10.868   4.521
86261SOL    HW260558  13.416  11.001   4.544
86262SOL     OW60559   1.676   1.566   7.385
86262SOL    HW160560   1.702   1.578   7.476
86262SOL    HW260561   1.585   1.537   7.389
86263SOL     OW60562   4.779  13.346   4.391
86263SOL    HW160563   4.794  13.372   4.482
86263SOL    HW260564   4.821  13.415   4.339
86264SOL     OW60565   4.815   8.941   2.948
86264SOL    HW160566   4.838   8.914   2.859
86264SOL    HW260567   4.720   8.932   2.952
86265SOL     OW60568  13.804   8.744  11.028
86265SOL    HW160569  13.780   8.655  11.003
86265SOL    HW260570  13.768   8.799  10.958
86266SOL     OW60571  10.445  12.902   7.522
86266SOL    HW160572  10.489  12.851   7.454
86266SOL    HW260573  10.515  12.933   7.579
86267SOL     OW60574  14.468   4.278   3.866
86267SOL    HW160575  14.394   4.337   3.849
86267SOL    HW260576  14.513   4.317   3.940
86268SOL     OW60577  14.309   4.414   6.421
86268SOL    HW160578  14.397   4.452   6.418
86268SOL    HW260579  14.324   4.320   6.419
86269SOL     OW60580   5.229  10.752   1.822
86269SOL    HW160581   5.229  10.795   1.737
86269SOL    HW260582   5.316  10.712   1.830
86270SOL     OW60583   9.995  12.702  12.482
86270SOL    HW160584  10.032  12.790  12.475
86270SOL    HW260585   9.959  12.697  12.570
86271SOL     OW60586   7.939  14.324   1.317
86271SOL    HW160587   7.927  14.404   1.266
86271SOL    HW260588   7.857  14.276   1.307
86272SOL     OW60589  10.641  13.569   0.503
86272SOL    HW160590  10.567  13.610   0.548
86272SOL    HW260591  10.676  13.638   0.447
86273SOL     OW60592   6.189   9.975   8.448
86273SOL    HW160593   6.147  10.035   8.386
86273SOL    HW260594   6.208  10.029   8.524
86274SOL     OW60595  14.128   7.005   7.647
86274SOL    HW160596  14.118   6.955   7.729
86274SOL    HW260597  14.040   7.037   7.629
86275SOL     OW60598   6.007   5.536   8.542
86275SOL    HW160599   5.950   5.555   8.467
86275SOL    HW260600   6.095   5.555   8.510
86276SOL     OW60601   9.606   4.108   0.779
86276SOL    HW160602   9.527   4.055   0.781
86276SOL    HW260603   9.633   4.115   0.870
86277SOL     OW60604  12.589   1.908  14.395
86277SOL    HW160605  12.676   1.926  14.359
86277SOL    HW260606  12.539   1.873  14.322
86278SOL     OW60607  14.686  13.059   6.729
86278SOL    HW160608  14.781  13.065   6.725
86278SOL    HW260609  14.655  13.141   6.690
86279SOL     OW60610   8.732   7.669   2.611
86279SOL    HW160611   8.799   7.633   2.670
86279SOL    HW260612   8.765   7.651   2.523
86280SOL     OW60613   1.239  13.025   6.713
86280SOL    HW160614   1.235  12.987   6.801
86280SOL    HW260615   1.269  12.953   6.657
86281SOL     OW60616   9.328   7.570   4.377
86281SOL    HW160617   9.264   7.574   4.448
86281SOL    HW260618   9.406   7.532   4.418
86282SOL     OW60619  10.911  10.390   2.475
86282SOL    HW160620  10.855  10.449   2.525
86282SOL    HW260621  10.993  10.439   2.463
86283SOL     OW60622   7.723   8.190  14.172
86283SOL    HW160623   7.689   8.107  14.204
86283SOL    HW260624   7.802   8.167  14.123
86284SOL     OW60625   6.442   4.866  11.515
86284SOL    HW160626   6.347   4.857  11.527
86284SOL    HW260627   6.480   4.829  11.594
86285SOL     OW60628   9.755  10.271   3.150
86285SOL    HW160629   9.676  10.295   3.199
86285SOL    HW260630   9.732  10.286   3.059
86286SOL     OW60631   1.119  12.504   9.239
86286SOL    HW160632   1.044  12.448   9.219
86286SOL    HW260633   1.174  12.499   9.161
86287SOL     OW60634   6.007   9.338   2.908
86287SOL    HW160635   6.079   9.342   2.844
86287SOL    HW260636   6.033   9.399   2.977
86288SOL     OW60637   9.941  10.296  11.855
86288SOL    HW160638   9.910  10.207  11.845
86288SOL    HW260639   9.969  10.302  11.947
86289SOL     OW60640  14.120  12.930   9.120
86289SOL    HW160641  14.194  12.927   9.059
86289SOL    HW260642  14.157  12.968   9.200
86290SOL     OW60643   1.565   5.907   8.845
86290SOL    HW160644   1.561   5.978   8.780
86290SOL    HW260645   1.480   5.910   8.888
86291SOL     OW60646   3.006  11.786   5.067
86291SOL    HW160647   3.061  11.717   5.030
86291SOL    HW260648   2.942  11.805   4.998
86292SOL     OW60649  12.238   1.210   4.084
86292SOL    HW160650  12.260   1.122   4.112
86292SOL    HW260651  12.180   1.244   4.152
86293SOL     OW60652  14.235   1.474  13.032
86293SOL    HW160653  14.203   1.559  13.059
86293SOL    HW260654  14.254   1.484  12.938
86294SOL     OW60655  10.643   0.449  11.963
86294SOL    HW160656  10.576   0.507  11.999
86294SOL    HW260657  10.726   0.491  11.986
86295SOL     OW60658   3.979   7.813  13.456
86295SOL    HW160659   3.919   7.803  13.381
86295SOL    HW260660   3.970   7.904  13.482
86296SOL     OW60661  11.206  13.516   8.919
86296SOL    HW160662  11.262  13.455   8.967
86296SOL    HW260663  11.144  13.548   8.984
86297SOL     OW60664   7.289   6.517   9.948
86297SOL    HW160665   7.331   6.488   9.867
86297SOL    HW260666   7.332   6.600   9.968
86298SOL     OW60667   7.687   0.538   8.041
86298SOL    HW160668   7.775   0.542   8.077
86298SOL    HW260669   7.640   0.611   8.082
86299SOL     OW60670   6.919   5.905  14.433
86299SOL    HW160671   6.856   5.943  14.371
86299SOL    HW260672   6.999   5.955  14.419
86300SOL     OW60673  12.029  14.338   2.433
86300SOL    HW160674  12.099  14.402   2.448
86300SOL    HW260675  11.952  14.392   2.415
86301SOL     OW60676  10.519   6.821   2.523
86301SOL    HW160677  10.575   6.772   2.462
86301SOL    HW260678  10.571   6.898   2.546
86302SOL     OW60679  11.097  12.672  14.750
86302SOL    HW160680  11.163  12.603  14.756
86302SOL    HW260681  11.146  12.753  14.765
86303SOL     OW60682  13.003  11.438  14.152
86303SOL    HW160683  13.064  11.509  14.134
86303SOL    HW260684  13.041  11.391  14.226
86304SOL     OW60685   7.024  12.721  13.053
86304SOL    HW160686   6.972  12.791  13.091
86304SOL    HW260687   7.077  12.688  13.125
86305SOL     OW60688   0.922  12.708   3.029
86305SOL    HW160689   0.959  12.626   2.994
86305SOL    HW260690   0.909  12.690   3.122
86306SOL     OW60691  11.797   1.378  12.981
86306SOL    HW160692  11.846   1.337  13.053
86306SOL    HW260693  11.855   1.447  12.949
86307SOL     OW60694   0.109   9.170   2.426
86307SOL    HW160695   0.028   9.135   2.387
86307SOL    HW260696   0.081   9.206   2.511
86308SOL     OW60697   7.284   0.134   0.484
86308SOL    HW160698   7.231   0.192   0.430
86308SOL    HW260699   7.254   0.046   0.463
86309SOL     OW60700   6.684   9.169  14.271
86309SOL    HW160701   6.648   9.138  14.188
86309SOL    HW260702   6.642   9.254  14.285
86310SOL     OW60703   9.370   4.436  10.070
86310SOL    HW160704   9.455   4.477  10.082
86310SOL    HW260705   9.325   4.450  10.153
86311SOL     OW60706   5.324  13.890   5.012
86311SOL    HW160707   5.347  13.851   4.928
86311SOL    HW260708   5.229  13.905   5.006
86312SOL     OW60709   2.133   5.802   2.641
86312SOL    HW160710   2.123   5.886   2.686
86312SOL    HW260711   2.226   5.781   2.649
86313SOL     OW60712  12.337   1.964   7.956
86313SOL    HW160713  12.382   1.881   7.942
86313SOL    HW260714  12.245   1.940   7.971
86314SOL     OW60715   0.619   4.077  12.002
86314SOL    HW160716   0.660   4.004  12.049
86314SOL    HW260717   0.525   4.063  12.015
86315SOL     OW60718   0.612   9.747   7.711
86315SOL    HW160719   0.697   9.708   7.732
86315SOL    HW260720   0.596   9.721   7.620
86316SOL     OW60721   6.111  13.844  12.287
86316SOL    HW160722   6.156  13.861  12.204
86316SOL    HW260723   6.181  13.815  12.346
86317SOL     OW60724  12.507   5.486   5.316
86317SOL    HW160725  12.565   5.502   5.390
86317SOL    HW260726  12.475   5.573   5.292
86318SOL     OW60727   7.724   4.486   4.928
86318SOL    HW160728   7.644   4.446   4.895
86318SOL    HW260729   7.774   4.413   4.964
86319SOL     OW60730   0.242   9.961  11.536
86319SOL    HW160731   0.278   9.872  11.546
86319SOL    HW260732   0.300  10.003  11.472
86320SOL     OW60733   5.001  11.390  12.018
86320SOL    HW160734   4.924  11.333  12.015
86320SOL    HW260735   4.967  11.477  11.995
86321SOL     OW60736   6.737  13.614   5.089
86321SOL    HW160737   6.756  13.569   5.006
86321SOL    HW260738   6.667  13.676   5.067
86322SOL     OW60739  11.723   5.161   9.069
86322SOL    HW160740  11.704   5.106   9.145
86322SOL    HW260741  11.806   5.127   9.036
86323SOL     OW60742   5.817   4.912   8.510
86323SOL    HW160743   5.810   4.825   8.549
86323SOL    HW260744   5.766   4.968   8.569
86324SOL     OW60745   6.301   9.943   2.199
86324SOL    HW160746   6.220   9.993   2.212
86324SOL    HW260747   6.336   9.977   2.117
86325SOL     OW60748   6.471   7.742   2.140
86325SOL    HW160749   6.522   7.806   2.090
86325SOL    HW260750   6.406   7.709   2.077
86326SOL     OW60751   9.092  13.367  14.473
86326SOL    HW160752   9.033  13.312  14.525
86326SOL    HW260753   9.136  13.306  14.414
86327SOL     OW60754   2.502  13.054  10.852
86327SOL    HW160755   2.470  12.986  10.912
86327SOL    HW260756   2.511  13.132  10.908
86328SOL     OW60757   9.127   1.959   9.151
86328SOL    HW160758   9.071   2.027   9.188
86328SOL    HW260759   9.102   1.879   9.197
86329SOL     OW60760   6.927   8.676  12.485
86329SOL    HW160761   6.940   8.730  12.407
86329SOL    HW260762   6.833   8.655  12.485
86330SOL     OW60763   5.127   7.218   2.623
86330SOL    HW160764   5.092   7.189   2.707
86330SOL    HW260765   5.181   7.295   2.645
86331SOL     OW60766  10.707  14.444   5.201
86331SOL    HW160767  10.674  14.433   5.112
86331SOL    HW260768  10.716  14.539   5.212
86332SOL     OW60769  13.110   0.849   0.428
86332SOL    HW160770  13.143   0.816   0.344
86332SOL    HW260771  13.086   0.940   0.409
86333SOL     OW60772   8.465   6.024  14.771
86333SOL    HW160773   8.386   6.079  14.768
86333SOL    HW260774   8.433   5.936  14.751
86334SOL     OW60775  14.585   1.060   6.014
86334SOL    HW160776  14.631   1.116   6.077
86334SOL    HW260777  14.525   1.119   5.969
86335SOL     OW60778   7.380  14.843   3.600
86335SOL    HW160779   7.440  14.841   3.674
86335SOL    HW260780   7.359  14.751   3.584
86336SOL     OW60781  13.164   0.163   4.127
86336SOL    HW160782  13.107   0.185   4.054
86336SOL    HW260783  13.158   0.068   4.135
86337SOL     OW60784  10.233   4.750   1.818
86337SOL    HW160785  10.257   4.743   1.726
86337SOL    HW260786  10.144   4.785   1.818
86338SOL     OW60787   8.376   6.729   5.314
86338SOL    HW160788   8.361   6.819   5.286
86338SOL    HW260789   8.401   6.682   5.235
86339SOL     OW60790  12.296   4.239   6.639
86339SOL    HW160791  12.385   4.209   6.659
86339SOL    HW260792  12.279   4.206   6.551
86340SOL     OW60793   3.786   7.887  11.973
86340SOL    HW160794   3.790   7.974  11.934
86340SOL    HW260795   3.780   7.903  12.067
86341SOL     OW60796  10.482   7.651   4.532
86341SOL    HW160797  10.396   7.613   4.552
86341SOL    HW260798  10.538   7.621   4.603
86342SOL     OW60799   5.976  14.183  10.548
86342SOL    HW160800   6.019  14.267  10.566
86342SOL    HW260801   5.883  14.201  10.558
86343SOL     OW60802   3.018  11.549  11.378
86343SOL    HW160803   3.032  11.582  11.467
86343SOL    HW260804   2.969  11.467  11.391
86344SOL     OW60805   4.815   9.063   1.722
86344SOL    HW160806   4.725   9.041   1.744
86344SOL    HW260807   4.852   8.983   1.686
86345SOL     OW60808   1.702   1.288   9.139
86345SOL    HW160809   1.790   1.277   9.173
86345SOL    HW260810   1.704   1.248   9.052
86346SOL     OW60811  13.601   5.305   3.398
86346SOL    HW160812  13.618   5.350   3.316
86346SOL    HW260813  13.566   5.220   3.372
86347SOL     OW60814  10.397  12.323   0.733
86347SOL    HW160815  10.331  12.295   0.670
86347SOL    HW260816  10.347  12.349   0.810
86348SOL     OW60817   0.132  12.183  12.892
86348SOL    HW160818   0.117  12.096  12.856
86348SOL    HW260819   0.155  12.167  12.984
86349SOL     OW60820  11.397   7.311   2.873
86349SOL    HW160821  11.347   7.229   2.867
86349SOL    HW260822  11.375   7.358   2.792
86350SOL     OW60823  10.416   3.785   2.388
86350SOL    HW160824  10.484   3.853   2.385
86350SOL    HW260825  10.385   3.778   2.298
86351SOL     OW60826  14.733   3.157  12.280
86351SOL    HW160827  14.660   3.219  12.274
86351SOL    HW260828  14.749   3.130  12.190
86352SOL     OW60829   5.130   9.656   4.171
86352SOL    HW160830   5.220   9.648   4.204
86352SOL    HW260831   5.076   9.658   4.251
86353SOL     OW60832  14.728   2.491   9.493
86353SOL    HW160833  14.822   2.492   9.474
86353SOL    HW260834  14.709   2.399   9.512
86354SOL     OW60835   8.351  13.004  11.204
86354SOL    HW160836   8.414  12.983  11.135
86354SOL    HW260837   8.404  13.039  11.275
86355SOL     OW60838   5.764   0.118   1.214
86355SOL    HW160839   5.743   0.110   1.307
86355SOL    HW260840   5.741   0.209   1.192
86356SOL     OW60841   1.404   0.330   3.414
86356SOL    HW160842   1.345   0.405   3.410
86356SOL    HW260843   1.403   0.293   3.326
86357SOL     OW60844   5.532  13.757   9.152
86357SOL    HW160845   5.476  13.760   9.230
86357SOL    HW260846   5.479  13.711   9.086
86358SOL     OW60847   6.220   3.981   5.328
86358SOL    HW160848   6.289   4.019   5.275
86358SOL    HW260849   6.229   4.023   5.414
86359SOL     OW60850   1.885   9.907   9.143
86359SOL    HW160851   1.803   9.865   9.169
86359SOL    HW260852   1.884   9.993   9.185
86360SOL     OW60853   5.809   6.314  11.685
86360SOL    HW160854   5.727   6.349  11.721
86360SOL    HW260855   5.781   6.252  11.618
86361SOL     OW60856  11.949  14.679  14.173
86361SOL    HW160857  12.030  14.628  14.179
86361SOL    HW260858  11.971  14.754  14.118
86362SOL     OW60859  11.195   4.219   4.071
86362SOL    HW160860  11.145   4.141   4.098
86362SOL    HW260861  11.281   4.207   4.112
86363SOL     OW60862   8.395   6.435   0.451
86363SOL    HW160863   8.415   6.529   0.450
86363SOL    HW260864   8.300   6.431   0.447
86364SOL     OW60865   4.568   1.480  10.805
86364SOL    HW160866   4.650   1.529  10.801
86364SOL    HW260867   4.570   1.423  10.728
86365SOL     OW60868   6.899   0.828   8.508
86365SOL    HW160869   6.872   0.890   8.575
86365SOL    HW260870   6.832   0.836   8.440
86366SOL     OW60871   8.834   5.740  11.647
86366SOL    HW160872   8.853   5.687  11.569
86366SOL    HW260873   8.751   5.783  11.628
86367SOL     OW60874   1.575   3.108   1.798
86367SOL    HW160875   1.503   3.159   1.759
86367SOL    HW260876   1.608   3.056   1.725
86368SOL     OW60877  10.453   7.799   8.822
86368SOL    HW160878  10.404   7.827   8.899
86368SOL    HW260879  10.519   7.739   8.856
86369SOL     OW60880   3.031  11.147   5.878
86369SOL    HW160881   3.040  11.233   5.919
86369SOL    HW260882   3.094  11.149   5.805
86370SOL     OW60883  12.993   0.429   9.379
86370SOL    HW160884  13.045   0.372   9.436
86370SOL    HW260885  12.941   0.482   9.439
86371SOL     OW60886   7.025   3.246  10.042
86371SOL    HW160887   7.079   3.321  10.018
86371SOL    HW260888   7.008   3.200   9.960
86372SOL     OW60889  11.029   8.113   0.688
86372SOL    HW160890  11.012   8.205   0.665
86372SOL    HW260891  11.098   8.118   0.754
86373SOL     OW60892   7.059   7.667   5.411
86373SOL    HW160893   6.972   7.659   5.451
86373SOL    HW260894   7.113   7.604   5.458
86374SOL     OW60895  12.278  10.772  11.339
86374SOL    HW160896  12.244  10.839  11.280
86374SOL    HW260897  12.317  10.821  11.411
86375SOL     OW60898  11.442   9.554  14.455
86375SOL    HW160899  11.526   9.521  14.424
86375SOL    HW260900  11.424   9.503  14.534
86376SOL     OW60901  11.959   7.732   3.493
86376SOL    HW160902  11.951   7.818   3.451
86376SOL    HW260903  11.987   7.674   3.422
86377SOL     OW60904  14.811  12.648   6.980
86377SOL    HW160905  14.786  12.578   6.919
86377SOL    HW260906  14.729  12.688   7.006
86378SOL     OW60907  10.377   8.947   8.628
86378SOL    HW160908  10.282   8.936   8.630
86378SOL    HW260909  10.411   8.860   8.651
86379SOL     OW60910   8.317   1.309   3.194
86379SOL    HW160911   8.340   1.302   3.287
86379SOL    HW260912   8.386   1.363   3.157
86380SOL     OW60913   4.998   5.177  12.306
86380SOL    HW160914   5.018   5.258  12.352
86380SOL    HW260915   4.982   5.204  12.216
86381SOL     OW60916  11.612   2.384   7.385
86381SOL    HW160917  11.624   2.476   7.364
86381SOL    HW260918  11.566   2.384   7.469
86382SOL     OW60919   7.713   2.534   1.685
86382SOL    HW160920   7.626   2.508   1.653
86382SOL    HW260921   7.722   2.625   1.657
86383SOL     OW60922   8.065  13.285  10.643
86383SOL    HW160923   8.034  13.205  10.600
86383SOL    HW260924   8.160  13.278  10.642
86384SOL     OW60925  14.534   8.835   3.295
86384SOL    HW160926  14.450   8.881   3.304
86384SOL    HW260927  14.600   8.904   3.294
86385SOL     OW60928   4.468   5.770   6.244
86385SOL    HW160929   4.490   5.698   6.185
86385SOL    HW260930   4.400   5.735   6.301
86386SOL     OW60931  10.758   8.338   2.971
86386SOL    HW160932  10.729   8.247   2.966
86386SOL    HW260933  10.677   8.389   2.971
86387SOL     OW60934   4.454   7.358   1.351
86387SOL    HW160935   4.484   7.402   1.271
86387SOL    HW260936   4.535   7.337   1.398
86388SOL     OW60937   8.852  12.023   8.163
86388SOL    HW160938   8.758  12.038   8.153
86388SOL    HW260939   8.874  11.957   8.098
86389SOL     OW60940   0.449   4.020  10.996
86389SOL    HW160941   0.376   3.976  11.039
86389SOL    HW260942   0.473   4.091  11.056
86390SOL     OW60943  14.389   1.337   7.911
86390SOL    HW160944  14.442   1.381   7.978
86390SOL    HW260945  14.301   1.370   7.926
86391SOL     OW60946   5.017   2.254   0.517
86391SOL    HW160947   4.941   2.203   0.546
86391SOL    HW260948   5.088   2.226   0.574
86392SOL     OW60949   2.562  10.417  12.764
86392SOL    HW160950   2.539  10.325  12.779
86392SOL    HW260951   2.608  10.443  12.843
86393SOL     OW60952  12.289  11.164   9.332
86393SOL    HW160953  12.316  11.088   9.384
86393SOL    HW260954  12.334  11.154   9.249
86394SOL     OW60955  11.463   7.215   7.720
86394SOL    HW160956  11.400   7.279   7.686
86394SOL    HW260957  11.546   7.241   7.681
86395SOL     OW60958   3.896   6.736  11.047
86395SOL    HW160959   3.978   6.762  11.089
86395SOL    HW260960   3.890   6.642  11.062
86396SOL     OW60961  10.809  14.166  10.749
86396SOL    HW160962  10.879  14.218  10.789
86396SOL    HW260963  10.805  14.197  10.659
86397SOL     OW60964  14.508  13.587   9.330
86397SOL    HW160965  14.521  13.604   9.423
86397SOL    HW260966  14.594  13.597   9.291
86398SOL     OW60967   6.239   2.350   8.740
86398SOL    HW160968   6.239   2.374   8.832
86398SOL    HW260969   6.164   2.291   8.730
86399SOL     OW60970   3.215   9.095   9.467
86399SOL    HW160971   3.273   9.153   9.418
86399SOL    HW260972   3.161   9.154   9.520
86400SOL     OW60973  10.470  14.560  14.881
86400SOL    HW160974  10.518  14.546   0.081
86400SOL    HW260975  10.395  14.501   0.006
86401SOL     OW60976  11.050  11.903  12.950
86401SOL    HW160977  10.972  11.957  12.941
86401SOL    HW260978  11.061  11.862  12.864
86402SOL     OW60979   6.928  11.655   6.501
86402SOL    HW160980   6.850  11.632   6.449
86402SOL    HW260981   6.991  11.688   6.436
86403SOL     OW60982   0.520  14.420  13.220
86403SOL    HW160983   0.469  14.392  13.296
86403SOL    HW260984   0.478  14.376  13.146
86404SOL     OW60985   6.771   1.738   7.726
86404SOL    HW160986   6.742   1.655   7.764
86404SOL    HW260987   6.808   1.787   7.799
86405SOL     OW60988  12.726   8.175   0.217
86405SOL    HW160989  12.704   8.104   0.277
86405SOL    HW260990  12.642   8.202   0.179
86406SOL     OW60991   3.842   5.371   2.449
86406SOL    HW160992   3.908   5.326   2.396
86406SOL    HW260993   3.890   5.406   2.524
86407SOL     OW60994   7.394   7.197   3.323
86407SOL    HW160995   7.337   7.123   3.341
86407SOL    HW260996   7.357   7.269   3.374
86408SOL     OW60997   4.268  13.120   1.745
86408SOL    HW160998   4.196  13.081   1.795
86408SOL    HW260999   4.261  13.214   1.763
86409SOL     OW61000   5.629  14.288   9.552
86409SOL    HW161001   5.565  14.241   9.498
86409SOL    HW261002   5.692  14.221   9.578
86410SOL     OW61003  10.927   0.809   8.636
86410SOL    HW161004  10.892   0.765   8.558
86410SOL    HW261005  10.971   0.886   8.602
86411SOL     OW61006   7.671  14.623   8.611
86411SOL    HW161007   7.712  14.542   8.640
86411SOL    HW261008   7.724  14.692   8.650
86412SOL     OW61009  14.574   5.893   6.099
86412SOL    HW161010  14.527   5.821   6.055
86412SOL    HW261011  14.635   5.925   6.033
86413SOL     OW61012   8.735   8.210  14.448
86413SOL    HW161013   8.805   8.261  14.489
86413SOL    HW261014   8.687   8.274  14.396
86414SOL     OW61015  10.173  11.213   4.116
86414SOL    HW161016  10.118  11.271   4.168
86414SOL    HW261017  10.262  11.246   4.128
86415SOL     OW61018   7.073  13.551   0.237
86415SOL    HW161019   7.149  13.526   0.290
86415SOL    HW261020   7.086  13.645   0.219
86416SOL     OW61021   2.218   8.866  12.218
86416SOL    HW161022   2.300   8.828  12.252
86416SOL    HW261023   2.247   8.938  12.162
86417SOL     OW61024   5.138   7.969   7.833
86417SOL    HW161025   5.217   7.944   7.881
86417SOL    HW261026   5.170   7.985   7.744
86418SOL     OW61027   4.762   7.240   0.899
86418SOL    HW161028   4.806   7.269   0.979
86418SOL    HW261029   4.682   7.292   0.894
86419SOL     OW61030  12.264   6.500  10.993
86419SOL    HW161031  12.238   6.501  10.901
86419SOL    HW261032  12.354   6.467  10.992
86420SOL     OW61033   1.646  12.687   0.421
86420SOL    HW161034   1.634  12.611   0.478
86420SOL    HW261035   1.709  12.742   0.469
86421SOL     OW61036   5.734  11.262  11.196
86421SOL    HW161037   5.777  11.340  11.162
86421SOL    HW261038   5.641  11.277  11.180
86422SOL     OW61039   1.127   7.536   3.548
86422SOL    HW161040   1.037   7.559   3.568
86422SOL    HW261041   1.174   7.620   3.548
86423SOL     OW61042   9.537   9.442   8.432
86423SOL    HW161043   9.453   9.398   8.418
86423SOL    HW261044   9.592   9.376   8.474
86424SOL     OW61045  12.184  11.567  13.918
86424SOL    HW161046  12.236  11.617  13.981
86424SOL    HW261047  12.178  11.479  13.957
86425SOL     OW61048  10.494  10.376   5.216
86425SOL    HW161049  10.503  10.316   5.142
86425SOL    HW261050  10.528  10.460   5.183
86426SOL     OW61051   6.794   4.655  11.010
86426SOL    HW161052   6.774   4.738  10.966
86426SOL    HW261053   6.708   4.614  11.022
86427SOL     OW61054   2.844  13.314   0.822
86427SOL    HW161055   2.863  13.244   0.760
86427SOL    HW261056   2.928  13.333   0.864
86428SOL     OW61057   7.537   1.933   2.951
86428SOL    HW161058   7.456   1.938   2.899
86428SOL    HW261059   7.538   2.014   3.002
86429SOL     OW61060   7.578  12.945   3.334
86429SOL    HW161061   7.557  12.857   3.366
86429SOL    HW261062   7.651  12.931   3.272
86430SOL     OW61063  11.240   9.655   8.124
86430SOL    HW161064  11.305   9.721   8.145
86430SOL    HW261065  11.212   9.676   8.035
86431SOL     OW61066  11.256   0.972   5.832
86431SOL    HW161067  11.284   1.038   5.769
86431SOL    HW261068  11.163   0.991   5.847
86432SOL     OW61069  12.320   8.599  12.814
86432SOL    HW161070  12.350   8.671  12.760
86432SOL    HW261071  12.355   8.618  12.902
86433SOL     OW61072   0.806  11.621  12.965
86433SOL    HW161073   0.753  11.686  13.012
86433SOL    HW261074   0.851  11.672  12.897
86434SOL     OW61075   9.056  12.915  10.376
86434SOL    HW161076   9.109  12.985  10.337
86434SOL    HW261077   9.117  12.870  10.435
86435SOL     OW61078  12.579  12.096  12.327
86435SOL    HW161079  12.493  12.133  12.344
86435SOL    HW261080  12.615  12.078  12.414
86436SOL     OW61081  12.334   5.339   6.591
86436SOL    HW161082  12.422   5.304   6.579
86436SOL    HW261083  12.318   5.333   6.685
86437SOL     OW61084  13.217   4.053  11.051
86437SOL    HW161085  13.206   3.964  11.087
86437SOL    HW261086  13.188   4.110  11.122
86438SOL     OW61087   4.854  14.570   5.981
86438SOL    HW161088   4.818  14.581   5.893
86438SOL    HW261089   4.945  14.597   5.974
86439SOL     OW61090   5.513  11.877   2.465
86439SOL    HW161091   5.571  11.873   2.389
86439SOL    HW261092   5.426  11.892   2.428
86440SOL     OW61093  14.442   8.593   4.710
86440SOL    HW161094  14.361   8.562   4.752
86440SOL    HW261095  14.416   8.611   4.619
86441SOL     OW61096   3.403   5.826  10.652
86441SOL    HW161097   3.379   5.868  10.735
86441SOL    HW261098   3.466   5.759  10.677
86442SOL     OW61099  13.282   0.176  12.684
86442SOL    HW161100  13.361   0.192  12.632
86442SOL    HW261101  13.311   0.184  12.775
86443SOL     OW61102   5.847   1.063   4.960
86443SOL    HW161103   5.911   1.004   4.919
86443SOL    HW261104   5.862   1.054   5.054
86444SOL     OW61105   3.233   6.558   9.679
86444SOL    HW161106   3.138   6.555   9.667
86444SOL    HW261107   3.249   6.639   9.727
86445SOL     OW61108  14.270   7.652  13.140
86445SOL    HW161109  14.335   7.718  13.165
86445SOL    HW261110  14.266   7.657  13.044
86446SOL     OW61111   1.290   6.200  10.982
86446SOL    HW161112   1.346   6.243  10.917
86446SOL    HW261113   1.226   6.150  10.930
86447SOL     OW61114   2.604  14.518   8.688
86447SOL    HW161115   2.656  14.586   8.644
86447SOL    HW261116   2.621  14.439   8.638
86448SOL     OW61117  14.063   0.731   7.918
86448SOL    HW161118  14.108   0.775   7.846
86448SOL    HW261119  13.971   0.729   7.891
86449SOL     OW61120  14.778  10.807   6.694
86449SOL    HW161121  14.851  10.790   6.634
86449SOL    HW261122  14.733  10.883   6.657
86450SOL     OW61123  14.495   1.612  13.644
86450SOL    HW161124  14.432   1.668  13.599
86450SOL    HW261125  14.576   1.622  13.595
86451SOL     OW61126  14.114   3.543  10.158
86451SOL    HW161127  14.072   3.503  10.234
86451SOL    HW261128  14.204   3.513  10.162
86452SOL     OW61129  12.873   6.952  13.036
86452SOL    HW161130  12.784   6.950  13.001
86452SOL    HW261131  12.924   6.996  12.968
86453SOL     OW61132  12.145   7.283   1.057
86453SOL    HW161133  12.142   7.220   1.129
86453SOL    HW261134  12.128   7.231   0.979
86454SOL     OW61135   4.982   4.857   3.806
86454SOL    HW161136   5.034   4.789   3.849
86454SOL    HW261137   5.046   4.906   3.754
86455SOL     OW61138  14.045   4.673  14.701
86455SOL    HW161139  14.012   4.674  14.791
86455SOL    HW261140  14.032   4.762  14.669
86456SOL     OW61141   2.593   7.431   0.165
86456SOL    HW161142   2.652   7.390   0.102
86456SOL    HW261143   2.510   7.441   0.119
86457SOL     OW61144   9.040   1.120   1.111
86457SOL    HW161145   9.007   1.137   1.200
86457SOL    HW261146   8.968   1.073   1.068
86458SOL     OW61147   4.049  14.750   1.720
86458SOL    HW161148   3.962  14.758   1.680
86458SOL    HW261149   4.033  14.719   1.808
86459SOL     OW61150   0.388   4.229  10.508
86459SOL    HW161151   0.313   4.261  10.558
86459SOL    HW261152   0.462   4.236  10.568
86460SOL     OW61153   7.882  12.986   9.094
86460SOL    HW161154   7.860  13.019   9.181
86460SOL    HW261155   7.909  12.896   9.108
86461SOL     OW61156   5.996  11.812   5.159
86461SOL    HW161157   5.951  11.806   5.075
86461SOL    HW261158   5.928  11.795   5.224
86462SOL     OW61159  12.498   3.374  13.700
86462SOL    HW161160  12.574   3.361  13.644
86462SOL    HW261161  12.436   3.306  13.671
86463SOL     OW61162   2.480   5.259   8.209
86463SOL    HW161163   2.464   5.178   8.257
86463SOL    HW261164   2.472   5.234   8.117
86464SOL     OW61165  10.141   4.496   0.657
86464SOL    HW161166  10.145   4.400   0.661
86464SOL    HW261167  10.124   4.523   0.747
86465SOL     OW61168   0.059   7.491  13.819
86465SOL    HW161169   0.008   7.522  13.744
86465SOL    HW261170   0.014   7.527  13.895
86466SOL     OW61171  11.617  11.840  10.500
86466SOL    HW161172  11.612  11.870  10.590
86466SOL    HW261173  11.622  11.744  10.506
86467SOL     OW61174   0.455   1.460  12.777
86467SOL    HW161175   0.457   1.391  12.710
86467SOL    HW261176   0.529   1.516  12.757
86468SOL     OW61177   8.801   5.346   2.630
86468SOL    HW161178   8.869   5.293   2.587
86468SOL    HW261179   8.721   5.296   2.618
86469SOL     OW61180   4.876   8.555  10.337
86469SOL    HW161181   4.951   8.497  10.332
86469SOL    HW261182   4.913   8.643  10.332
86470SOL     OW61183  13.626   7.928   7.879
86470SOL    HW161184  13.691   7.998   7.883
86470SOL    HW261185  13.579   7.943   7.797
86471SOL     OW61186   2.983   6.634   6.748
86471SOL    HW161187   3.078   6.633   6.764
86471SOL    HW261188   2.972   6.582   6.669
86472SOL     OW61189  10.762   0.282   8.051
86472SOL    HW161190  10.817   0.261   7.975
86472SOL    HW261191  10.687   0.224   8.043
86473SOL     OW61192  11.861   0.719  10.055
86473SOL    HW161193  11.928   0.784  10.034
86473SOL    HW261194  11.873   0.650   9.990
86474SOL     OW61195   3.268  14.324   8.969
86474SOL    HW161196   3.185  14.360   8.936
86474SOL    HW261197   3.243  14.246   9.018
86475SOL     OW61198   9.746  14.024  10.689
86475SOL    HW161199   9.783  14.014  10.601
86475SOL    HW261200   9.705  13.940  10.708
86476SOL     OW61201   0.044   4.455  13.612
86476SOL    HW161202   0.040   4.447  13.517
86476SOL    HW261203  14.834   4.456  13.639
86477SOL     OW61204   0.755   7.753   8.988
86477SOL    HW161205   0.848   7.752   9.007
86477SOL    HW261206   0.737   7.845   8.966
86478SOL     OW61207   2.307   8.254   6.519
86478SOL    HW161208   2.329   8.195   6.447
86478SOL    HW261209   2.391   8.281   6.556
86479SOL     OW61210  13.972   1.991  11.435
86479SOL    HW161211  13.982   2.073  11.386
86479SOL    HW261212  14.000   2.013  11.524
86480SOL     OW61213   9.073   0.727   4.688
86480SOL    HW161214   9.062   0.659   4.754
86480SOL    HW261215   9.161   0.713   4.653
86481SOL     OW61216   5.024   9.336   2.239
86481SOL    HW161217   4.950   9.346   2.180
86481SOL    HW261218   5.063   9.423   2.244
86482SOL     OW61219   6.147   1.195   1.996
86482SOL    HW161220   6.120   1.271   2.047
86482SOL    HW261221   6.191   1.232   1.919
86483SOL     OW61222   8.199   2.219   1.225
86483SOL    HW161223   8.281   2.233   1.177
86483SOL    HW261224   8.214   2.258   1.311
86484SOL     OW61225  11.336   3.301  13.441
86484SOL    HW161226  11.407   3.311  13.504
86484SOL    HW261227  11.321   3.206  13.437
86485SOL     OW61228  13.243   2.330   0.142
86485SOL    HW161229  13.333   2.299   0.151
86485SOL    HW261230  13.200   2.304   0.223
86486SOL     OW61231   2.951   7.522   3.013
86486SOL    HW161232   2.942   7.497   3.105
86486SOL    HW261233   3.042   7.503   2.992
86487SOL     OW61234   6.598   5.431   6.913
86487SOL    HW161235   6.644   5.375   6.976
86487SOL    HW261236   6.557   5.369   6.853
86488SOL     OW61237  12.838   6.825   9.179
86488SOL    HW161238  12.809   6.742   9.217
86488SOL    HW261239  12.810   6.820   9.088
86489SOL     OW61240   0.488   1.956   1.539
86489SOL    HW161241   0.523   2.015   1.605
86489SOL    HW261242   0.394   1.955   1.553
86490SOL     OW61243   7.109   3.196   5.786
86490SOL    HW161244   7.088   3.157   5.871
86490SOL    HW261245   7.088   3.127   5.722
86491SOL     OW61246  10.025   3.966  14.604
86491SOL    HW161247  10.069   3.892  14.645
86491SOL    HW261248   9.936   3.964  14.640
86492SOL     OW61249   9.675  10.410   0.562
86492SOL    HW161250   9.681  10.330   0.509
86492SOL    HW261251   9.765  10.433   0.583
86493SOL     OW61252   9.949   3.465   9.580
86493SOL    HW161253   9.924   3.542   9.632
86493SOL    HW261254  10.009   3.417   9.636
86494SOL     OW61255   7.786   5.791   8.235
86494SOL    HW161256   7.703   5.747   8.251
86494SOL    HW261257   7.781   5.818   8.143
86495SOL     OW61258   1.735   2.113   5.293
86495SOL    HW161259   1.707   2.032   5.336
86495SOL    HW261260   1.788   2.158   5.359
86496SOL     OW61261   0.955   8.478  10.991
86496SOL    HW161262   1.015   8.551  11.006
86496SOL    HW261263   0.927   8.487  10.900
86497SOL     OW61264   4.879   8.962   3.586
86497SOL    HW161265   4.922   8.963   3.500
86497SOL    HW261266   4.887   9.052   3.617
86498SOL     OW61267   3.026   2.648   9.802
86498SOL    HW161268   2.962   2.644   9.731
86498SOL    HW261269   3.096   2.589   9.775
86499SOL     OW61270  12.912   6.373   3.763
86499SOL    HW161271  12.901   6.457   3.719
86499SOL    HW261272  12.964   6.393   3.841
86500SOL     OW61273  14.562   5.961  11.789
86500SOL    HW161274  14.595   5.872  11.798
86500SOL    HW261275  14.551   5.974  11.695
86501SOL     OW61276   4.471   9.999   6.930
86501SOL    HW161277   4.507  10.036   6.849
86501SOL    HW261278   4.377  10.015   6.922
86502SOL     OW61279  10.055   1.259   8.489
86502SOL    HW161280  10.045   1.227   8.578
86502SOL    HW261281  10.148   1.253   8.471
86503SOL     OW61282  12.874   5.737   1.733
86503SOL    HW161283  12.937   5.793   1.688
86503SOL    HW261284  12.896   5.745   1.826
86504SOL     OW61285   8.296   8.405   7.537
86504SOL    HW161286   8.219   8.401   7.594
86504SOL    HW261287   8.303   8.318   7.499
86505SOL     OW61288   6.194   7.296  14.605
86505SOL    HW161289   6.170   7.387  14.590
86505SOL    HW261290   6.222   7.293  14.697
86506SOL     OW61291   3.927   2.908  14.529
86506SOL    HW161292   3.943   3.002  14.529
86506SOL    HW261293   4.010   2.869  14.559
86507SOL     OW61294   8.100  10.785   2.845
86507SOL    HW161295   8.123  10.718   2.781
86507SOL    HW261296   8.015  10.817   2.816
86508SOL     OW61297   4.865  14.134  10.194
86508SOL    HW161298   4.897  14.161  10.108
86508SOL    HW261299   4.924  14.063  10.220
86509SOL     OW61300  12.095   7.944  12.329
86509SOL    HW161301  12.164   7.957  12.395
86509SOL    HW261302  12.013   7.959  12.376
86510SOL     OW61303   5.649   0.856   8.860
86510SOL    HW161304   5.588   0.896   8.921
86510SOL    HW261305   5.683   0.779   8.906
86511SOL     OW61306  13.592   5.504   7.150
86511SOL    HW161307  13.545   5.496   7.067
86511SOL    HW261308  13.684   5.500   7.126
86512SOL     OW61309   5.104  10.058   1.002
86512SOL    HW161310   5.043  10.124   1.035
86512SOL    HW261311   5.189  10.084   1.036
86513SOL     OW61312   5.229  12.186   0.311
86513SOL    HW161313   5.253  12.278   0.310
86513SOL    HW261314   5.281  12.149   0.384
86514SOL     OW61315  13.299   5.763   9.342
86514SOL    HW161316  13.306   5.786   9.250
86514SOL    HW261317  13.215   5.716   9.349
86515SOL     OW61318   3.845   1.445  12.039
86515SOL    HW161319   3.826   1.372  12.097
86515SOL    HW261320   3.940   1.444  12.028
86516SOL     OW61321   8.923   1.370  12.144
86516SOL    HW161322   8.911   1.421  12.064
86516SOL    HW261323   8.931   1.279  12.114
86517SOL     OW61324  10.546   1.163   5.421
86517SOL    HW161325  10.616   1.103   5.397
86517SOL    HW261326  10.556   1.237   5.360
86518SOL     OW61327   6.035   5.539  14.470
86518SOL    HW161328   6.039   5.536  14.374
86518SOL    HW261329   6.108   5.484  14.498
86519SOL     OW61330   1.811  14.208  12.400
86519SOL    HW161331   1.804  14.123  12.356
86519SOL    HW261332   1.720  14.231  12.420
86520SOL     OW61333   7.075   1.576   7.630
86520SOL    HW161334   7.133   1.599   7.702
86520SOL    HW261335   7.036   1.659   7.602
86521SOL     OW61336   8.203  11.063   6.921
86521SOL    HW161337   8.234  11.066   6.830
86521SOL    HW261338   8.146  11.139   6.929
86522SOL     OW61339  11.878   5.468   0.510
86522SOL    HW161340  11.865   5.545   0.454
86522SOL    HW261341  11.810   5.407   0.482
86523SOL     OW61342   3.623  14.548   5.149
86523SOL    HW161343   3.711  14.551   5.111
86523SOL    HW261344   3.638  14.536   5.243
86524SOL     OW61345   1.878   9.580  10.080
86524SOL    HW161346   1.972   9.580  10.101
86524SOL    HW261347   1.876   9.590   9.985
86525SOL     OW61348  11.778  14.685   1.525
86525SOL    HW161349  11.828  14.751   1.573
86525SOL    HW261350  11.812  14.601   1.558
86526SOL     OW61351   0.965   7.234   7.480
86526SOL    HW161352   0.891   7.237   7.540
86526SOL    HW261353   0.940   7.292   7.408
86527SOL     OW61354   6.876   7.763  12.860
86527SOL    HW161355   6.796   7.745  12.811
86527SOL    HW261356   6.931   7.687  12.843
86528SOL     OW61357   9.078   6.634  11.666
86528SOL    HW161358   9.006   6.620  11.604
86528SOL    HW261359   9.064   6.569  11.734
86529SOL     OW61360   7.549  12.748   9.898
86529SOL    HW161361   7.503  12.667   9.878
86529SOL    HW261362   7.637  12.721   9.923
86530SOL     OW61363  12.615   1.627   4.514
86530SOL    HW161364  12.697   1.676   4.518
86530SOL    HW261365  12.570   1.662   4.437
86531SOL     OW61366   5.567   8.407   1.144
86531SOL    HW161367   5.587   8.320   1.110
86531SOL    HW261368   5.508   8.391   1.218
86532SOL     OW61369   8.786  10.677  14.665
86532SOL    HW161370   8.738  10.596  14.684
86532SOL    HW261371   8.717  10.742  14.651
86533SOL     OW61372  12.174  12.277   3.460
86533SOL    HW161373  12.149  12.328   3.383
86533SOL    HW261374  12.221  12.202   3.426
86534SOL     OW61375  12.100   1.538   3.020
86534SOL    HW161376  12.180   1.586   2.998
86534SOL    HW261377  12.046   1.603   3.065
86535SOL     OW61378  11.308   4.400   6.712
86535SOL    HW161379  11.275   4.417   6.800
86535SOL    HW261380  11.319   4.305   6.708
86536SOL     OW61381  14.207  12.162   7.545
86536SOL    HW161382  14.246  12.169   7.458
86536SOL    HW261383  14.179  12.071   7.552
86537SOL     OW61384   4.745   2.842   2.880
86537SOL    HW161385   4.726   2.854   2.787
86537SOL    HW261386   4.674   2.787   2.913
86538SOL     OW61387   5.609   2.454  10.540
86538SOL    HW161388   5.672   2.391  10.503
86538SOL    HW261389   5.573   2.499  10.464
86539SOL     OW61390   2.994  10.256   1.746
86539SOL    HW161391   3.070  10.200   1.730
86539SOL    HW261392   2.962  10.279   1.659
86540SOL     OW61393   4.669  10.696   8.249
86540SOL    HW161394   4.674  10.600   8.251
86540SOL    HW261395   4.646  10.721   8.338
86541SOL     OW61396   6.284  11.427   6.846
86541SOL    HW161397   6.365  11.479   6.847
86541SOL    HW261398   6.313  11.336   6.840
86542SOL     OW61399  12.231   7.597   4.315
86542SOL    HW161400  12.295   7.564   4.251
86542SOL    HW261401  12.182   7.519   4.342
86543SOL     OW61402  12.094   9.006   0.860
86543SOL    HW161403  12.137   9.089   0.879
86543SOL    HW261404  12.159   8.939   0.884
86544SOL     OW61405  10.012   7.565  10.864
86544SOL    HW161406  10.043   7.656  10.856
86544SOL    HW261407   9.968   7.563  10.949
86545SOL     OW61408  14.236  14.677  13.185
86545SOL    HW161409  14.176  14.604  13.167
86545SOL    HW261410  14.237  14.727  13.103
86546SOL     OW61411   4.507   0.605   4.471
86546SOL    HW161412   4.440   0.537   4.464
86546SOL    HW261413   4.524   0.612   4.565
86547SOL     OW61414  13.285  13.132   1.313
86547SOL    HW161415  13.336  13.175   1.381
86547SOL    HW261416  13.350  13.102   1.250
86548SOL     OW61417  12.799  12.122  13.013
86548SOL    HW161418  12.804  12.059  13.084
86548SOL    HW261419  12.838  12.078  12.938
86549SOL     OW61420  14.075   8.550   8.793
86549SOL    HW161421  14.075   8.466   8.840
86549SOL    HW261422  14.112   8.612   8.855
86550SOL     OW61423   0.650   3.788  14.028
86550SOL    HW161424   0.672   3.695  14.035
86550SOL    HW261425   0.555   3.790  14.016
86551SOL     OW61426   8.174   2.533  10.292
86551SOL    HW161427   8.223   2.457  10.260
86551SOL    HW261428   8.086   2.499  10.310
86552SOL     OW61429   1.399   3.288   8.463
86552SOL    HW161430   1.330   3.279   8.529
86552SOL    HW261431   1.436   3.375   8.478
86553SOL     OW61432  11.908   8.829  12.868
86553SOL    HW161433  11.952   8.746  12.852
86553SOL    HW261434  11.833   8.806  12.923
86554SOL     OW61435  11.323   0.323  13.221
86554SOL    HW161436  11.399   0.302  13.167
86554SOL    HW261437  11.354   0.392  13.280
86555SOL     OW61438  14.474   1.624   2.674
86555SOL    HW161439  14.523   1.595   2.597
86555SOL    HW261440  14.383   1.627   2.644
86556SOL     OW61441   3.977   2.180   8.123
86556SOL    HW161442   3.986   2.269   8.089
86556SOL    HW261443   3.981   2.124   8.045
86557SOL     OW61444  13.403   4.060   8.103
86557SOL    HW161445  13.370   4.142   8.139
86557SOL    HW261446  13.326   4.004   8.096
86558SOL     OW61447   2.317  14.565   7.019
86558SOL    HW161448   2.357  14.611   6.945
86558SOL    HW261449   2.239  14.616   7.039
86559SOL     OW61450   7.271   9.639  12.352
86559SOL    HW161451   7.314   9.593  12.280
86559SOL    HW261452   7.199   9.687  12.310
86560SOL     OW61453  13.091   3.736   9.584
86560SOL    HW161454  13.082   3.749   9.678
86560SOL    HW261455  13.163   3.674   9.574
86561SOL     OW61456   6.134   1.540   7.499
86561SOL    HW161457   6.163   1.490   7.423
86561SOL    HW261458   6.160   1.630   7.480
86562SOL     OW61459  11.315   4.942  14.496
86562SOL    HW161460  11.355   4.956  14.411
86562SOL    HW261461  11.375   4.881  14.541
86563SOL     OW61462  10.413  12.213   9.747
86563SOL    HW161463  10.492  12.263   9.769
86563SOL    HW261464  10.416  12.205   9.651
86564SOL     OW61465   3.668  12.967  12.748
86564SOL    HW161466   3.735  12.987  12.683
86564SOL    HW261467   3.594  13.024  12.725
86565SOL     OW61468  12.365  14.388   9.490
86565SOL    HW161469  12.372  14.434   9.406
86565SOL    HW261470  12.316  14.448   9.546
86566SOL     OW61471   0.515   4.030   7.878
86566SOL    HW161472   0.474   4.001   7.796
86566SOL    HW261473   0.444   4.025   7.942
86567SOL     OW61474   9.186  14.137   6.050
86567SOL    HW161475   9.159  14.159   5.961
86567SOL    HW261476   9.267  14.086   6.038
86568SOL     OW61477  13.994   8.207  10.530
86568SOL    HW161478  14.021   8.131  10.582
86568SOL    HW261479  14.033   8.282  10.576
86569SOL     OW61480   1.021   5.848   6.564
86569SOL    HW161481   1.054   5.915   6.624
86569SOL    HW261482   1.004   5.772   6.620
86570SOL     OW61483  12.302   9.250  10.449
86570SOL    HW161484  12.296   9.345  10.442
86570SOL    HW261485  12.217   9.218  10.419
86571SOL     OW61486   3.991   3.094   3.726
86571SOL    HW161487   4.068   3.131   3.684
86571SOL    HW261488   4.012   3.096   3.820
86572SOL     OW61489  12.437  13.490   8.723
86572SOL    HW161490  12.352  13.447   8.727
86572SOL    HW261491  12.417  13.583   8.734
86573SOL     OW61492   5.811  11.648   7.815
86573SOL    HW161493   5.901  11.630   7.790
86573SOL    HW261494   5.818  11.689   7.902
86574SOL     OW61495   5.985   8.481   2.663
86574SOL    HW161496   5.986   8.532   2.582
86574SOL    HW261497   6.042   8.531   2.723
86575SOL     OW61498   3.148  13.059  12.408
86575SOL    HW161499   3.237  13.092  12.421
86575SOL    HW261500   3.093  13.121  12.456
86576SOL     OW61501  14.745   5.128   0.978
86576SOL    HW161502  14.727   5.039   1.008
86576SOL    HW261503  14.749   5.180   1.058
86577SOL     OW61504  12.382  14.029  11.946
86577SOL    HW161505  12.312  14.024  11.881
86577SOL    HW261506  12.455  14.071  11.900
86578SOL     OW61507   9.216   1.936   3.494
86578SOL    HW161508   9.206   1.919   3.588
86578SOL    HW261509   9.135   1.982   3.470
86579SOL     OW61510   4.843  11.061  13.864
86579SOL    HW161511   4.900  10.987  13.886
86579SOL    HW261512   4.771  11.055  13.927
86580SOL     OW61513   9.955  12.191   2.816
86580SOL    HW161514   9.951  12.283   2.790
86580SOL    HW261515  10.012  12.150   2.750
86581SOL     OW61516   8.036  11.639   0.971
86581SOL    HW161517   8.130  11.631   0.953
86581SOL    HW261518   8.015  11.730   0.948
86582SOL     OW61519  12.870  10.411   4.097
86582SOL    HW161520  12.777  10.414   4.073
86582SOL    HW261521  12.901  10.328   4.062
86583SOL     OW61522   1.267   6.559   2.682
86583SOL    HW161523   1.249   6.650   2.705
86583SOL    HW261524   1.239   6.551   2.591
86584SOL     OW61525   8.387  11.177  13.382
86584SOL    HW161526   8.293  11.179  13.365
86584SOL    HW261527   8.427  11.149  13.299
86585SOL     OW61528   5.266   5.514   2.551
86585SOL    HW161529   5.231   5.466   2.476
86585SOL    HW261530   5.251   5.457   2.626
86586SOL     OW61531  14.867   0.362   0.295
86586SOL    HW161532  14.871   0.419   0.372
86586SOL    HW261533   0.045   0.403   0.232
86587SOL     OW61534  13.830   5.725  12.244
86587SOL    HW161535  13.808   5.644  12.288
86587SOL    HW261536  13.917   5.748  12.278
86588SOL     OW61537  13.598   3.006  10.248
86588SOL    HW161538  13.673   3.061  10.225
86588SOL    HW261539  13.584   2.951  10.172
86589SOL     OW61540  11.963  12.836   9.635
86589SOL    HW161541  11.950  12.906   9.698
86589SOL    HW261542  11.927  12.870   9.553
86590SOL     OW61543  13.234   5.531   4.958
86590SOL    HW161544  13.216   5.591   4.886
86590SOL    HW261545  13.275   5.586   5.025
86591SOL     OW61546  10.935   6.224   9.936
86591SOL    HW161547  10.996   6.153   9.958
86591SOL    HW261548  10.859   6.209   9.992
86592SOL     OW61549   8.131   2.608   2.358
86592SOL    HW161550   8.159   2.524   2.393
86592SOL    HW261551   8.113   2.591   2.265
86593SOL     OW61552   4.851   5.551  12.409
86593SOL    HW161553   4.813   5.532  12.323
86593SOL    HW261554   4.794   5.618  12.446
86594SOL     OW61555   9.608  13.117  12.459
86594SOL    HW161556   9.638  13.115  12.550
86594SOL    HW261557   9.572  13.029  12.444
86595SOL     OW61558  11.714   8.866   1.479
86595SOL    HW161559  11.634   8.815   1.487
86595SOL    HW261560  11.779   8.804   1.446
86596SOL     OW61561  14.736  10.249  13.150
86596SOL    HW161562  14.716  10.341  13.166
86596SOL    HW261563  14.654  10.210  13.120
86597SOL     OW61564   8.247  10.767   2.375
86597SOL    HW161565   8.291  10.683   2.359
86597SOL    HW261566   8.294  10.805   2.449
86598SOL     OW61567  13.198   8.958  13.669
86598SOL    HW161568  13.109   8.984  13.645
86598SOL    HW261569  13.248   8.965  13.587
86599SOL     OW61570   5.304  12.812   3.207
86599SOL    HW161571   5.278  12.736   3.259
86599SOL    HW261572   5.325  12.879   3.271
86600SOL     OW61573   9.321   2.566   9.094
86600SOL    HW161574   9.401   2.617   9.098
86600SOL    HW261575   9.310   2.531   9.183
86601SOL     OW61576   1.044   7.441  13.677
86601SOL    HW161577   0.990   7.446  13.598
86601SOL    HW261578   1.077   7.351  13.677
86602SOL     OW61579   0.560  13.795  13.232
86602SOL    HW161580   0.646  13.823  13.199
86602SOL    HW261581   0.514  13.767  13.153
86603SOL     OW61582  14.449  12.244   3.853
86603SOL    HW161583  14.435  12.217   3.762
86603SOL    HW261584  14.516  12.183   3.886
86604SOL     OW61585   5.202   5.603   2.081
86604SOL    HW161586   5.292   5.595   2.047
86604SOL    HW261587   5.149   5.617   2.002
86605SOL     OW61588   1.902   1.926   2.058
86605SOL    HW161589   1.842   1.858   2.089
86605SOL    HW261590   1.987   1.883   2.053
86606SOL     OW61591   4.002   6.284  13.427
86606SOL    HW161592   4.000   6.216  13.494
86606SOL    HW261593   3.912   6.287  13.394
86607SOL     OW61594   0.334  14.249  11.990
86607SOL    HW161595   0.405  14.283  11.934
86607SOL    HW261596   0.367  14.260  12.079
86608SOL     OW61597   5.840  14.137   5.883
86608SOL    HW161598   5.912  14.200   5.885
86608SOL    HW261599   5.879  14.055   5.911
86609SOL     OW61600  12.765   0.158  11.427
86609SOL    HW161601  12.822   0.214  11.480
86609SOL    HW261602  12.806   0.158  11.340
86610SOL     OW61603   3.634  14.502  14.638
86610SOL    HW161604   3.604  14.495  14.547
86610SOL    HW261605   3.601  14.422  14.680
86611SOL     OW61606  10.414  10.778  11.175
86611SOL    HW161607  10.436  10.692  11.212
86611SOL    HW261608  10.477  10.838  11.216
86612SOL     OW61609   2.736   2.562   0.544
86612SOL    HW161610   2.730   2.658   0.546
86612SOL    HW261611   2.824   2.543   0.579
86613SOL     OW61612   2.117   5.200  10.502
86613SOL    HW161613   2.082   5.289  10.503
86613SOL    HW261614   2.182   5.199  10.572
86614SOL     OW61615  12.598  11.635  12.862
86614SOL    HW161616  12.628  11.719  12.828
86614SOL    HW261617  12.625  11.572  12.794
86615SOL     OW61618   4.170   7.657   0.717
86615SOL    HW161619   4.246   7.665   0.659
86615SOL    HW261620   4.098   7.699   0.668
86616SOL     OW61621   6.245   5.947   3.339
86616SOL    HW161622   6.288   6.014   3.287
86616SOL    HW261623   6.152   5.953   3.315
86617SOL     OW61624  11.957   4.868   3.030
86617SOL    HW161625  11.912   4.787   3.052
86617SOL    HW261626  11.887   4.930   3.009
86618SOL     OW61627   4.842  14.205   6.631
86618SOL    HW161628   4.804  14.269   6.691
86618SOL    HW261629   4.781  14.201   6.558
86619SOL     OW61630   3.782   8.127  13.080
86619SOL    HW161631   3.839   8.094  13.011
86619SOL    HW261632   3.836   8.123  13.159
86620SOL     OW61633   5.496  10.137   7.181
86620SOL    HW161634   5.495  10.066   7.116
86620SOL    HW261635   5.406  10.142   7.212
86621SOL     OW61636  10.662   4.272  10.709
86621SOL    HW161637  10.567   4.264  10.707
86621SOL    HW261638  10.679   4.358  10.748
86622SOL     OW61639   2.451   5.492   6.397
86622SOL    HW161640   2.545   5.498   6.378
86622SOL    HW261641   2.448   5.461   6.487
86623SOL     OW61642   3.403   2.055   5.896
86623SOL    HW161643   3.479   2.078   5.950
86623SOL    HW261644   3.440   2.036   5.810
86624SOL     OW61645  14.252   9.425   7.418
86624SOL    HW161646  14.177   9.381   7.459
86624SOL    HW261647  14.318   9.356   7.411
86625SOL     OW61648   8.166  14.662  14.536
86625SOL    HW161649   8.235  14.724  14.514
86625SOL    HW261650   8.084  14.711  14.520
86626SOL     OW61651   5.200   3.113   5.473
86626SOL    HW161652   5.117   3.101   5.425
86626SOL    HW261653   5.199   3.205   5.500
86627SOL     OW61654   4.060   7.788  11.434
86627SOL    HW161655   3.989   7.760  11.376
86627SOL    HW261656   4.040   7.879  11.454
86628SOL     OW61657   0.614  13.326   1.263
86628SOL    HW161658   0.600  13.272   1.185
86628SOL    HW261659   0.561  13.284   1.331
86629SOL     OW61660   0.935  10.923   7.345
86629SOL    HW161661   0.915  10.885   7.431
86629SOL    HW261662   0.912  11.016   7.355
86630SOL     OW61663   6.083  13.435  14.623
86630SOL    HW161664   6.159  13.475  14.665
86630SOL    HW261665   6.011  13.449  14.685
86631SOL     OW61666   7.673  12.325   4.069
86631SOL    HW161667   7.759  12.297   4.102
86631SOL    HW261668   7.689  12.413   4.034
86632SOL     OW61669   2.028  11.189   2.386
86632SOL    HW161670   1.959  11.159   2.328
86632SOL    HW261671   1.984  11.200   2.471
86633SOL     OW61672   4.984  14.464   7.570
86633SOL    HW161673   4.987  14.369   7.583
86633SOL    HW261674   5.055  14.498   7.624
86634SOL     OW61675   2.872   4.539  13.252
86634SOL    HW161676   2.824   4.589  13.187
86634SOL    HW261677   2.812   4.468  13.276
86635SOL     OW61678  14.502   4.841  12.094
86635SOL    HW161679  14.485   4.814  12.003
86635SOL    HW261680  14.556   4.770  12.130
86636SOL     OW61681   0.395   7.362   4.530
86636SOL    HW161682   0.353   7.409   4.459
86636SOL    HW261683   0.330   7.297   4.558
86637SOL     OW61684   1.337   1.061  12.773
86637SOL    HW161685   1.360   1.115  12.697
86637SOL    HW261686   1.395   0.985  12.767
86638SOL     OW61687  12.038   7.265   6.448
86638SOL    HW161688  12.014   7.277   6.356
86638SOL    HW261689  12.106   7.330   6.463
86639SOL     OW61690   3.789   1.160   2.911
86639SOL    HW161691   3.720   1.131   2.970
86639SOL    HW261692   3.842   1.220   2.963
86640SOL     OW61693   0.725   1.174  10.149
86640SOL    HW161694   0.779   1.253  10.153
86640SOL    HW261695   0.643   1.199  10.194
86641SOL     OW61696   0.148   1.616   7.204
86641SOL    HW161697   0.073   1.661   7.245
86641SOL    HW261698   0.176   1.552   7.270
86642SOL     OW61699   7.561   0.337   5.238
86642SOL    HW161700   7.489   0.392   5.207
86642SOL    HW261701   7.588   0.286   5.162
86643SOL     OW61702  14.451   2.756   7.902
86643SOL    HW161703  14.382   2.715   7.850
86643SOL    HW261704  14.495   2.683   7.945
86644SOL     OW61705  11.305   0.487   1.825
86644SOL    HW161706  11.310   0.392   1.830
86644SOL    HW261707  11.396   0.516   1.819
86645SOL     OW61708  12.341   1.206  14.408
86645SOL    HW161709  12.353   1.271  14.340
86645SOL    HW261710  12.256   1.228  14.447
86646SOL     OW61711   7.820  12.647   1.808
86646SOL    HW161712   7.900  12.612   1.769
86646SOL    HW261713   7.760  12.572   1.810
86647SOL     OW61714  10.405   9.710   6.562
86647SOL    HW161715  10.485   9.659   6.576
86647SOL    HW261716  10.413   9.742   6.473
86648SOL     OW61717  10.821   4.200   5.638
86648SOL    HW161718  10.900   4.251   5.619
86648SOL    HW261719  10.830   4.174   5.730
86649SOL     OW61720  12.602   8.122   5.840
86649SOL    HW161721  12.696   8.105   5.843
86649SOL    HW261722  12.578   8.141   5.930
86650SOL     OW61723   8.206   5.462  13.823
86650SOL    HW161724   8.142   5.471  13.894
86650SOL    HW261725   8.182   5.532  13.762
86651SOL     OW61726  12.693   3.154   4.508
86651SOL    HW161727  12.659   3.186   4.425
86651SOL    HW261728  12.644   3.073   4.524
86652SOL     OW61729  13.987  13.225   4.007
86652SOL    HW161730  13.970  13.303   3.955
86652SOL    HW261731  13.939  13.155   3.963
86653SOL     OW61732   2.952   4.857   2.297
86653SOL    HW161733   2.944   4.762   2.300
86653SOL    HW261734   3.001   4.879   2.376
86654SOL     OW61735   1.713  14.140   4.608
86654SOL    HW161736   1.649  14.077   4.642
86654SOL    HW261737   1.795  14.118   4.652
86655SOL     OW61738  13.094  13.188   9.206
86655SOL    HW161739  13.086  13.177   9.112
86655SOL    HW261740  13.095  13.282   9.220
86656SOL     OW61741   8.540  14.498   9.554
86656SOL    HW161742   8.577  14.547   9.628
86656SOL    HW261743   8.494  14.563   9.501
86657SOL     OW61744  12.845   6.419  14.297
86657SOL    HW161745  12.918   6.361  14.314
86657SOL    HW261746  12.815   6.447  14.383
86658SOL     OW61747   4.766  14.529   5.626
86658SOL    HW161748   4.765  14.462   5.558
86658SOL    HW261749   4.858  14.536   5.651
86659SOL     OW61750  12.299   4.931   1.079
86659SOL    HW161751  12.270   4.850   1.121
86659SOL    HW261752  12.244   4.939   1.001
86660SOL     OW61753  13.010   9.089   9.265
86660SOL    HW161754  13.078   9.155   9.257
86660SOL    HW261755  12.950   9.108   9.192
86661SOL     OW61756   2.277   6.646   2.475
86661SOL    HW161757   2.240   6.618   2.391
86661SOL    HW261758   2.231   6.592   2.540
86662SOL     OW61759   7.130  12.887   0.756
86662SOL    HW161760   7.045  12.850   0.730
86662SOL    HW261761   7.194  12.829   0.716
86663SOL     OW61762   9.086   0.919   6.163
86663SOL    HW161763   9.083   0.936   6.257
86663SOL    HW261764   9.068   1.004   6.123
86664SOL     OW61765   6.020   3.249   1.981
86664SOL    HW161766   5.995   3.157   1.994
86664SOL    HW261767   6.088   3.264   2.047
86665SOL     OW61768   1.131  12.913  14.080
86665SOL    HW161769   1.092  12.932  14.165
86665SOL    HW261770   1.182  12.991  14.060
86666SOL     OW61771   3.596   9.334  11.525
86666SOL    HW161772   3.510   9.310  11.492
86666SOL    HW261773   3.578   9.388  11.602
86667SOL     OW61774   1.931  13.464   6.170
86667SOL    HW161775   1.863  13.442   6.106
86667SOL    HW261776   1.949  13.557   6.154
86668SOL     OW61777   8.792   8.263  12.304
86668SOL    HW161778   8.825   8.179  12.271
86668SOL    HW261779   8.697   8.251  12.308
86669SOL     OW61780   5.988   4.021   6.674
86669SOL    HW161781   6.079   4.038   6.653
86669SOL    HW261782   5.955   4.104   6.709
86670SOL     OW61783   2.125   9.072  12.499
86670SOL    HW161784   2.078   9.153  12.483
86670SOL    HW261785   2.197   9.097  12.557
86671SOL     OW61786  13.723   2.347  13.950
86671SOL    HW161787  13.716   2.396  14.032
86671SOL    HW261788  13.658   2.278  13.958
86672SOL     OW61789   4.066   3.217   1.716
86672SOL    HW161790   3.985   3.267   1.706
86672SOL    HW261791   4.131   3.281   1.746
86673SOL     OW61792   0.410  11.822   7.445
86673SOL    HW161793   0.404  11.918   7.453
86673SOL    HW261794   0.503  11.806   7.424
86674SOL     OW61795   2.798   7.100   1.340
86674SOL    HW161796   2.786   7.188   1.378
86674SOL    HW261797   2.718   7.053   1.362
86675SOL     OW61798  10.455   8.021  14.346
86675SOL    HW161799  10.439   7.932  14.376
86675SOL    HW261800  10.490   8.066  14.422
86676SOL     OW61801  14.803   3.329   2.581
86676SOL    HW161802  14.795   3.256   2.643
86676SOL    HW261803  14.739   3.393   2.612
86677SOL     OW61804   2.449   8.961   9.354
86677SOL    HW161805   2.420   9.005   9.433
86677SOL    HW261806   2.469   8.871   9.382
86678SOL     OW61807  12.210  11.499  10.899
86678SOL    HW161808  12.130  11.516  10.948
86678SOL    HW261809  12.202  11.553  10.820
86679SOL     OW61810   9.439  11.774  10.426
86679SOL    HW161811   9.488  11.812  10.499
86679SOL    HW261812   9.408  11.849  10.376
86680SOL     OW61813   0.628  14.801  12.079
86680SOL    HW161814   0.722  14.815  12.078
86680SOL    HW261815   0.600  14.833  12.165
86681SOL     OW61816   9.136  10.992  12.145
86681SOL    HW161817   9.215  10.950  12.179
86681SOL    HW261818   9.148  10.991  12.050
86682SOL     OW61819   4.979  12.204   0.176
86682SOL    HW161820   4.946  12.155   0.100
86682SOL    HW261821   5.058  12.157   0.202
86683SOL     OW61822   5.914   4.384   4.746
86683SOL    HW161823   5.938   4.295   4.772
86683SOL    HW261824   5.845   4.409   4.807
86684SOL     OW61825   5.113   9.931   1.594
86684SOL    HW161826   5.166  10.011   1.596
86684SOL    HW261827   5.022   9.962   1.597
86685SOL     OW61828   6.942   0.242   7.181
86685SOL    HW161829   6.888   0.284   7.247
86685SOL    HW261830   7.018   0.299   7.172
86686SOL     OW61831  11.405  11.606   1.457
86686SOL    HW161832  11.432  11.573   1.543
86686SOL    HW261833  11.336  11.670   1.476
86687SOL     OW61834  12.271   3.180   8.258
86687SOL    HW161835  12.226   3.120   8.318
86687SOL    HW261836  12.363   3.154   8.263
86688SOL     OW61837   7.556   6.151  11.485
86688SOL    HW161838   7.625   6.086  11.469
86688SOL    HW261839   7.580   6.226  11.429
86689SOL     OW61840   6.759   0.711   6.883
86689SOL    HW161841   6.707   0.669   6.951
86689SOL    HW261842   6.750   0.805   6.900
86690SOL     OW61843   6.644  13.936   8.475
86690SOL    HW161844   6.691  13.909   8.396
86690SOL    HW261845   6.713  13.965   8.535
86691SOL     OW61846  14.018   1.439   6.307
86691SOL    HW161847  14.065   1.413   6.386
86691SOL    HW261848  13.927   1.450   6.335
86692SOL     OW61849   3.693   5.546   7.340
86692SOL    HW161850   3.609   5.533   7.296
86692SOL    HW261851   3.675   5.529   7.432
86693SOL     OW61852   6.839  11.623   0.303
86693SOL    HW161853   6.906  11.612   0.370
86693SOL    HW261854   6.883  11.604   0.221
86694SOL     OW61855   6.026   0.782   0.885
86694SOL    HW161856   6.008   0.829   0.803
86694SOL    HW261857   5.953   0.720   0.893
86695SOL     OW61858   4.521   8.854  14.337
86695SOL    HW161859   4.537   8.888  14.425
86695SOL    HW261860   4.427   8.832  14.337
86696SOL     OW61861   9.165   1.885   3.767
86696SOL    HW161862   9.070   1.877   3.766
86696SOL    HW261863   9.195   1.817   3.827
86697SOL     OW61864   0.545   6.142   0.438
86697SOL    HW161865   0.529   6.083   0.364
86697SOL    HW261866   0.633   6.176   0.422
86698SOL     OW61867   7.526  14.146   8.032
86698SOL    HW161868   7.575  14.137   8.113
86698SOL    HW261869   7.451  14.087   8.043
86699SOL     OW61870   7.225   4.234   9.762
86699SOL    HW161871   7.233   4.312   9.706
86699SOL    HW261872   7.303   4.183   9.744
86700SOL     OW61873   1.342  10.050   7.923
86700SOL    HW161874   1.306  10.067   8.010
86700SOL    HW261875   1.359  10.137   7.886
86701SOL     OW61876  11.154   4.034   4.305
86701SOL    HW161877  11.129   4.118   4.343
86701SOL    HW261878  11.131   3.970   4.372
86702SOL     OW61879   8.572   5.511  11.604
86702SOL    HW161880   8.514   5.544  11.673
86702SOL    HW261881   8.621   5.441  11.646
86703SOL     OW61882   6.970   0.042  10.149
86703SOL    HW161883   7.030   0.113  10.124
86703SOL    HW261884   7.008  14.845  10.110
86704SOL     OW61885  12.159   4.626   8.792
86704SOL    HW161886  12.168   4.592   8.703
86704SOL    HW261887  12.068   4.657   8.797
86705SOL     OW61888   0.755   2.152   3.135
86705SOL    HW161889   0.665   2.184   3.142
86705SOL    HW261890   0.782   2.137   3.226
86706SOL     OW61891   6.036   8.931  10.727
86706SOL    HW161892   6.108   8.895  10.779
86706SOL    HW261893   5.964   8.941  10.789
86707SOL     OW61894   5.268  10.867  13.906
86707SOL    HW161895   5.275  10.950  13.954
86707SOL    HW261896   5.175  10.860  13.884
86708SOL     OW61897  12.388   7.672   6.139
86708SOL    HW161898  12.300   7.657   6.174
86708SOL    HW261899  12.410   7.590   6.095
86709SOL     OW61900   2.295   9.182   1.786
86709SOL    HW161901   2.272   9.222   1.870
86709SOL    HW261902   2.386   9.207   1.771
86710SOL     OW61903   9.766   1.482  10.838
86710SOL    HW161904   9.825   1.410  10.813
86710SOL    HW261905   9.678   1.449  10.819
86711SOL     OW61906   3.212   9.346  12.160
86711SOL    HW161907   3.214   9.414  12.228
86711SOL    HW261908   3.214   9.264  12.209
86712SOL     OW61909  12.876  13.712  11.186
86712SOL    HW161910  12.956  13.763  11.200
86712SOL    HW261911  12.851  13.683  11.274
86713SOL     OW61912  13.594   6.655   6.074
86713SOL    HW161913  13.524   6.668   6.011
86713SOL    HW261914  13.637   6.575   6.046
86714SOL     OW61915   4.421   2.091   9.866
86714SOL    HW161916   4.510   2.063   9.846
86714SOL    HW261917   4.374   2.011   9.889
86715SOL     OW61918   5.344   7.302   9.614
86715SOL    HW161919   5.342   7.208   9.598
86715SOL    HW261920   5.279   7.316   9.683
86716SOL     OW61921   9.394  11.580  11.017
86716SOL    HW161922   9.403  11.503  10.962
86716SOL    HW261923   9.402  11.654  10.957
86717SOL     OW61924   8.505   2.869  10.279
86717SOL    HW161925   8.546   2.783  10.284
86717SOL    HW261926   8.412   2.851  10.266
86718SOL     OW61927  11.808  12.272   8.092
86718SOL    HW161928  11.868  12.344   8.074
86718SOL    HW261929  11.807  12.264   8.187
86719SOL     OW61930  10.987   5.370   3.066
86719SOL    HW161931  11.016   5.279   3.072
86719SOL    HW261932  10.901   5.364   3.024
86720SOL     OW61933   4.361  11.109   4.113
86720SOL    HW161934   4.388  11.024   4.077
86720SOL    HW261935   4.307  11.148   4.043
86721SOL     OW61936   1.139   6.749   9.011
86721SOL    HW161937   1.175   6.697   9.082
86721SOL    HW261938   1.101   6.826   9.054
86722SOL     OW61939  12.507   2.544   4.115
86722SOL    HW161940  12.465   2.510   4.195
86722SOL    HW261941  12.455   2.507   4.044
86723SOL     OW61942   3.837   7.445   5.361
86723SOL    HW161943   3.897   7.512   5.395
86723SOL    HW261944   3.772   7.434   5.430
86724SOL     OW61945  11.647   1.123   8.644
86724SOL    HW161946  11.608   1.065   8.579
86724SOL    HW261947  11.640   1.211   8.606
86725SOL     OW61948   3.264  12.589   6.921
86725SOL    HW161949   3.276  12.551   6.834
86725SOL    HW261950   3.184  12.549   6.954
86726SOL     OW61951  14.765   4.753  11.279
86726SOL    HW161952  14.711   4.802  11.217
86726SOL    HW261953  14.853   4.754  11.241
86727SOL     OW61954   4.572   8.549   8.511
86727SOL    HW161955   4.645   8.555   8.573
86727SOL    HW261956   4.544   8.458   8.516
86728SOL     OW61957   2.325   4.496   8.111
86728SOL    HW161958   2.368   4.554   8.174
86728SOL    HW261959   2.247   4.544   8.085
86729SOL     OW61960   3.978   6.574  10.664
86729SOL    HW161961   4.061   6.541  10.631
86729SOL    HW261962   3.979   6.667  10.641
86730SOL     OW61963   3.168  14.228  14.132
86730SOL    HW161964   3.251  14.188  14.105
86730SOL    HW261965   3.154  14.298  14.069
86731SOL     OW61966   4.704   3.968   5.465
86731SOL    HW161967   4.654   3.958   5.384
86731SOL    HW261968   4.647   4.019   5.522
86732SOL     OW61969   1.818   8.768   7.875
86732SOL    HW161970   1.766   8.815   7.810
86732SOL    HW261971   1.885   8.723   7.824
86733SOL     OW61972   7.799   3.044   1.106
86733SOL    HW161973   7.772   3.136   1.108
86733SOL    HW261974   7.865   3.040   1.037
86734SOL     OW61975   1.281  10.255   4.549
86734SOL    HW161976   1.355  10.204   4.515
86734SOL    HW261977   1.297  10.258   4.644
86735SOL     OW61978   6.374   6.355  13.491
86735SOL    HW161979   6.405   6.309  13.569
86735SOL    HW261980   6.455   6.384  13.447
86736SOL     OW61981   6.358   2.369   7.252
86736SOL    HW161982   6.304   2.296   7.283
86736SOL    HW261983   6.302   2.446   7.261
86737SOL     OW61984   9.502  10.773   1.488
86737SOL    HW161985   9.572  10.772   1.554
86737SOL    HW261986   9.547  10.767   1.404
86738SOL     OW61987   5.287   1.860   1.003
86738SOL    HW161988   5.320   1.841   0.915
86738SOL    HW261989   5.294   1.776   1.049
86739SOL     OW61990   8.591  11.247   2.372
86739SOL    HW161991   8.548  11.332   2.363
86739SOL    HW261992   8.575  11.202   2.289
86740SOL     OW61993   2.534   9.954   1.740
86740SOL    HW161994   2.500   9.865   1.740
86740SOL    HW261995   2.456  10.009   1.733
86741SOL     OW61996  11.759  14.276   1.791
86741SOL    HW161997  11.707  14.356   1.790
86741SOL    HW261998  11.702  14.209   1.829
86742SOL     OW61999  11.380   1.891   2.405
86742SOL    HW162000  11.429   1.866   2.483
86742SOL    HW262001  11.364   1.985   2.415
86743SOL     OW62002   6.247   6.264   1.559
86743SOL    HW162003   6.195   6.309   1.493
86743SOL    HW262004   6.203   6.180   1.573
86744SOL     OW62005   1.341  13.715   1.397
86744SOL    HW162006   1.336  13.649   1.328
86744SOL    HW262007   1.249  13.734   1.418
86745SOL     OW62008   4.638   4.615   1.191
86745SOL    HW162009   4.554   4.640   1.229
86745SOL    HW262010   4.687   4.576   1.263
86746SOL     OW62011   3.096   6.323  10.268
86746SOL    HW162012   3.099   6.348  10.176
86746SOL    HW262013   3.067   6.403  10.313
86747SOL     OW62014   0.828  10.883  14.537
86747SOL    HW162015   0.748  10.910  14.582
86747SOL    HW262016   0.803  10.804  14.489
86748SOL     OW62017   5.111  14.274   7.334
86748SOL    HW162018   5.151  14.198   7.292
86748SOL    HW262019   5.110  14.253   7.427
86749SOL     OW62020   5.340   7.723   3.327
86749SOL    HW162021   5.361   7.708   3.420
86749SOL    HW262022   5.406   7.784   3.297
86750SOL     OW62023   2.538  11.116   8.088
86750SOL    HW162024   2.482  11.115   8.011
86750SOL    HW262025   2.479  11.133   8.162
86751SOL     OW62026   2.068   9.816   2.617
86751SOL    HW162027   2.091   9.759   2.544
86751SOL    HW262028   2.012   9.762   2.673
86752SOL     OW62029   9.320   2.819   8.132
86752SOL    HW162030   9.300   2.908   8.161
86752SOL    HW262031   9.336   2.828   8.038
86753SOL     OW62032   3.334   5.709  14.130
86753SOL    HW162033   3.274   5.751  14.069
86753SOL    HW262034   3.405   5.772  14.140
86754SOL     OW62035   3.487   9.016  10.186
86754SOL    HW162036   3.501   9.073  10.110
86754SOL    HW262037   3.565   9.026  10.240
86755SOL     OW62038   3.952   4.732   9.631
86755SOL    HW162039   3.942   4.640   9.656
86755SOL    HW262040   4.000   4.772   9.704
86756SOL     OW62041  13.278  14.802   8.172
86756SOL    HW162042  13.191  14.828   8.203
86756SOL    HW262043  13.309  14.739   8.238
86757SOL     OW62044   5.850  11.011   0.755
86757SOL    HW162045   5.892  11.029   0.839
86757SOL    HW262046   5.851  11.095   0.709
86758SOL     OW62047   7.005   6.939  13.984
86758SOL    HW162048   6.993   6.918  13.892
86758SOL    HW262049   7.094   6.909  14.004
86759SOL     OW62050  12.827   0.087   1.732
86759SOL    HW162051  12.918   0.113   1.746
86759SOL    HW262052  12.776   0.140   1.793
86760SOL     OW62053   5.214   9.770   2.458
86760SOL    HW162054   5.201   9.797   2.549
86760SOL    HW262055   5.232   9.852   2.411
86761SOL     OW62056   3.975   5.423   2.691
86761SOL    HW162057   4.024   5.505   2.688
86761SOL    HW262058   4.036   5.360   2.731
86762SOL     OW62059   6.065  12.343   7.535
86762SOL    HW162060   5.999  12.410   7.554
86762SOL    HW262061   6.080  12.351   7.441
86763SOL     OW62062   8.934  14.082   2.335
86763SOL    HW162063   8.929  14.021   2.409
86763SOL    HW262064   8.894  14.162   2.368
86764SOL     OW62065   3.031  11.011   3.457
86764SOL    HW162066   3.116  10.992   3.416
86764SOL    HW262067   3.028  10.955   3.534
86765SOL     OW62068   9.225   5.510  14.454
86765SOL    HW162069   9.210   5.605  14.447
86765SOL    HW262070   9.319   5.499  14.440
86766SOL     OW62071   2.216   0.924   9.601
86766SOL    HW162072   2.302   0.895   9.570
86766SOL    HW262073   2.163   0.928   9.522
86767SOL     OW62074  10.047   4.054   2.438
86767SOL    HW162075  10.097   3.985   2.394
86767SOL    HW262076  10.114   4.116   2.468
86768SOL     OW62077   4.071   3.205   0.624
86768SOL    HW162078   3.988   3.235   0.586
86768SOL    HW262079   4.134   3.273   0.600
86769SOL     OW62080  13.936  11.017   5.967
86769SOL    HW162081  13.890  11.023   5.883
86769SOL    HW262082  13.867  11.030   6.032
86770SOL     OW62083   4.055   2.533  12.475
86770SOL    HW162084   4.096   2.595  12.414
86770SOL    HW262085   4.123   2.514  12.539
86771SOL     OW62086   8.494  11.887  13.631
86771SOL    HW162087   8.401  11.908  13.626
86771SOL    HW262088   8.537  11.970  13.652
86772SOL     OW62089   8.916  13.779   5.440
86772SOL    HW162090   8.867  13.704   5.474
86772SOL    HW262091   8.967  13.744   5.367
86773SOL     OW62092  11.858   8.396   4.903
86773SOL    HW162093  11.868   8.310   4.862
86773SOL    HW262094  11.947   8.422   4.926
86774SOL     OW62095   6.535   3.715  13.140
86774SOL    HW162096   6.466   3.772  13.172
86774SOL    HW262097   6.536   3.641  13.200
86775SOL     OW62098   7.896  12.903   5.148
86775SOL    HW162099   7.932  12.855   5.074
86775SOL    HW262100   7.808  12.928   5.122
86776SOL     OW62101   9.085   2.570   1.443
86776SOL    HW162102   8.990   2.560   1.434
86776SOL    HW262103   9.121   2.528   1.365
86777SOL     OW62104   7.774   0.715  10.445
86777SOL    HW162105   7.750   0.665  10.523
86777SOL    HW262106   7.836   0.660  10.399
86778SOL     OW62107   9.639   2.474   1.067
86778SOL    HW162108   9.675   2.393   1.102
86778SOL    HW262109   9.715   2.529   1.050
86779SOL     OW62110   5.801   0.381   2.975
86779SOL    HW162111   5.774   0.436   2.901
86779SOL    HW262112   5.850   0.440   3.032
86780SOL     OW62113   8.482   2.444   0.613
86780SOL    HW162114   8.466   2.513   0.548
86780SOL    HW262115   8.405   2.447   0.670
86781SOL     OW62116   7.771   2.672  11.102
86781SOL    HW162117   7.855   2.699  11.067
86781SOL    HW262118   7.707   2.719  11.049
86782SOL     OW62119   0.201  13.143   8.961
86782SOL    HW162120   0.240  13.105   8.882
86782SOL    HW262121   0.207  13.238   8.948
86783SOL     OW62122   7.673   2.600   9.868
86783SOL    HW162123   7.687   2.516   9.824
86783SOL    HW262124   7.747   2.608   9.929
86784SOL     OW62125  10.149   4.459   4.032
86784SOL    HW162126  10.202   4.381   4.017
86784SOL    HW262127  10.111   4.480   3.947
86785SOL     OW62128  10.945  14.607   8.773
86785SOL    HW162129  10.985  14.586   8.858
86785SOL    HW262130  10.997  14.680   8.740
86786SOL     OW62131   0.794  13.876   3.887
86786SOL    HW162132   0.866  13.842   3.940
86786SOL    HW262133   0.768  13.803   3.831
86787SOL     OW62134   3.916   2.661   4.990
86787SOL    HW162135   3.949   2.747   4.961
86787SOL    HW262136   3.957   2.599   4.930
86788SOL     OW62137   9.971   2.255  12.413
86788SOL    HW162138   9.964   2.340  12.369
86788SOL    HW262139  10.026   2.203  12.354
86789SOL     OW62140   5.718  14.842  12.131
86789SOL    HW162141   5.734  14.879  12.045
86789SOL    HW262142   5.646  14.780  12.118
86790SOL     OW62143  14.277   2.881  11.472
86790SOL    HW162144  14.282   2.840  11.559
86790SOL    HW262145  14.275   2.975  11.491
86791SOL     OW62146   5.798  13.131   9.372
86791SOL    HW162147   5.709  13.101   9.386
86791SOL    HW262148   5.832  13.076   9.301
86792SOL     OW62149  13.869   9.026  11.726
86792SOL    HW162150  13.841   9.101  11.672
86792SOL    HW262151  13.958   9.048  11.753
86793SOL     OW62152   5.062   5.138   6.317
86793SOL    HW162153   5.113   5.102   6.390
86793SOL    HW262154   5.100   5.099   6.239
86794SOL     OW62155   4.489  10.443  10.250
86794SOL    HW162156   4.543  10.493  10.189
86794SOL    HW262157   4.548  10.418  10.320
86795SOL     OW62158   3.078  14.167  14.383
86795SOL    HW162159   2.985  14.150  14.370
86795SOL    HW262160   3.114  14.171  14.294
86796SOL     OW62161   9.799   5.753   0.347
86796SOL    HW162162   9.811   5.663   0.315
86796SOL    HW262163   9.866   5.804   0.302
86797SOL     OW62164   2.710  11.315   5.437
86797SOL    HW162165   2.763  11.375   5.385
86797SOL    HW262166   2.660  11.372   5.495
86798SOL     OW62167   6.167   2.642   3.789
86798SOL    HW162168   6.245   2.627   3.843
86798SOL    HW262169   6.184   2.595   3.708
86799SOL     OW62170   9.927  10.919  11.806
86799SOL    HW162171   9.861  10.942  11.871
86799SOL    HW262172   9.879  10.910  11.724
86800SOL     OW62173   4.624   1.545   4.378
86800SOL    HW162174   4.571   1.498   4.442
86800SOL    HW262175   4.711   1.551   4.418
86801SOL     OW62176   4.816  11.940   8.851
86801SOL    HW162177   4.814  11.857   8.803
86801SOL    HW262178   4.904  11.975   8.834
86802SOL     OW62179  12.778   1.401  14.232
86802SOL    HW162180  12.706   1.462  14.241
86802SOL    HW262181  12.777   1.375  14.140
86803SOL     OW62182  11.012   4.884  11.926
86803SOL    HW162183  11.024   4.790  11.918
86803SOL    HW262184  11.001   4.916  11.837
86804SOL     OW62185  11.950  11.941   8.479
86804SOL    HW162186  11.919  12.017   8.430
86804SOL    HW262187  12.021  11.905   8.426
86805SOL     OW62188   4.390   1.882  11.114
86805SOL    HW162189   4.467   1.829  11.095
86805SOL    HW262190   4.404   1.914  11.203
86806SOL     OW62191  14.725   9.050  13.490
86806SOL    HW162192  14.652   9.093  13.535
86806SOL    HW262193  14.799   9.058  13.550
86807SOL     OW62194   2.873  10.960  13.690
86807SOL    HW162195   2.922  10.997  13.617
86807SOL    HW262196   2.788  11.003  13.687
86808SOL     OW62197   4.956   8.099   2.429
86808SOL    HW162198   5.009   8.096   2.509
86808SOL    HW262199   4.925   8.189   2.423
86809SOL     OW62200   1.571   0.504  10.854
86809SOL    HW162201   1.509   0.431  10.847
86809SOL    HW262202   1.564   0.550  10.771
86810SOL     OW62203  14.066   1.863  10.353
86810SOL    HW162204  13.979   1.828  10.333
86810SOL    HW262205  14.050   1.929  10.421
86811SOL     OW62206   5.934  11.147  11.660
86811SOL    HW162207   5.883  11.067  11.674
86811SOL    HW262208   5.876  11.204  11.611
86812SOL     OW62209   0.671  13.857   2.214
86812SOL    HW162210   0.722  13.919   2.267
86812SOL    HW262211   0.716  13.774   2.226
86813SOL     OW62212   6.719  14.120  14.663
86813SOL    HW162213   6.673  14.150  14.741
86813SOL    HW262214   6.663  14.050  14.628
86814SOL     OW62215   4.428  10.667  13.626
86814SOL    HW162216   4.511  10.620  13.615
86814SOL    HW262217   4.455  10.757  13.644
86815SOL     OW62218   5.257   0.024   6.861
86815SOL    HW162219   5.231   0.004   6.770
86815SOL    HW262220   5.341  14.862   6.872
86816SOL     OW62221   8.893  12.444   6.026
86816SOL    HW162222   8.933  12.526   5.999
86816SOL    HW262223   8.942  12.417   6.103
86817SOL     OW62224  14.369  14.239   6.801
86817SOL    HW162225  14.340  14.300   6.733
86817SOL    HW262226  14.300  14.173   6.805
86818SOL     OW62227  12.272  13.694   6.196
86818SOL    HW162228  12.214  13.748   6.141
86818SOL    HW262229  12.298  13.622   6.138
86819SOL     OW62230   2.992  14.109   1.035
86819SOL    HW162231   2.901  14.126   1.012
86819SOL    HW262232   2.987  14.061   1.118
86820SOL     OW62233  12.595   0.127  11.823
86820SOL    HW162234  12.626   0.213  11.795
86820SOL    HW262235  12.600   0.129  11.918
86821SOL     OW62236   3.541   9.623   1.293
86821SOL    HW162237   3.539   9.548   1.352
86821SOL    HW262238   3.616   9.606   1.235
86822SOL     OW62239   8.720  13.418  11.121
86822SOL    HW162240   8.722  13.330  11.159
86822SOL    HW262241   8.773  13.471  11.181
86823SOL     OW62242  12.247   9.533   0.283
86823SOL    HW162243  12.208   9.467   0.226
86823SOL    HW262244  12.175   9.564   0.338
86824SOL     OW62245   6.223   9.478   9.725
86824SOL    HW162246   6.132   9.494   9.750
86824SOL    HW262247   6.240   9.388   9.752
86825SOL     OW62248  13.256   6.273   4.547
86825SOL    HW162249  13.230   6.297   4.636
86825SOL    HW262250  13.276   6.357   4.505
86826SOL     OW62251   7.124  14.070   7.792
86826SOL    HW162252   7.047  14.113   7.755
86826SOL    HW262253   7.197  14.127   7.768
86827SOL     OW62254  10.808  11.512   1.307
86827SOL    HW162255  10.893  11.468   1.305
86827SOL    HW262256  10.780  11.507   1.398
86828SOL     OW62257  11.011   5.019   2.273
86828SOL    HW162258  10.979   5.037   2.185
86828SOL    HW262259  11.009   5.104   2.317
86829SOL     OW62260   7.197   5.684   3.245
86829SOL    HW162261   7.162   5.599   3.217
86829SOL    HW262262   7.122   5.744   3.240
86830SOL     OW62263   5.460   7.390   5.202
86830SOL    HW162264   5.452   7.438   5.285
86830SOL    HW262265   5.554   7.372   5.194
86831SOL     OW62266   5.320   1.478   3.521
86831SOL    HW162267   5.266   1.531   3.579
86831SOL    HW262268   5.296   1.387   3.541
86832SOL     OW62269  13.715   0.780  12.598
86832SOL    HW162270  13.748   0.691  12.614
86832SOL    HW262271  13.656   0.770  12.524
86833SOL     OW62272   1.314   0.641  13.829
86833SOL    HW162273   1.285   0.624  13.918
86833SOL    HW262274   1.282   0.729  13.809
86834SOL     OW62275   1.687   6.150  11.790
86834SOL    HW162276   1.599   6.154  11.752
86834SOL    HW262277   1.709   6.057  11.791
86835SOL     OW62278   3.778  13.301  13.560
86835SOL    HW162279   3.729  13.226  13.528
86835SOL    HW262280   3.727  13.377  13.533
86836SOL     OW62281  10.801  14.212  12.901
86836SOL    HW162282  10.840  14.125  12.900
86836SOL    HW262283  10.749  14.214  12.981
86837SOL     OW62284   7.310  13.410  14.457
86837SOL    HW162285   7.331  13.347  14.389
86837SOL    HW262286   7.270  13.358  14.527
86838SOL     OW62287   0.618   5.468   6.143
86838SOL    HW162288   0.553   5.401   6.166
86838SOL    HW262289   0.656   5.436   6.061
86839SOL     OW62290   0.872   8.883  10.327
86839SOL    HW162291   0.865   8.829  10.248
86839SOL    HW262292   0.854   8.972  10.296
86840SOL     OW62293   1.252  11.966   5.640
86840SOL    HW162294   1.167  11.991   5.677
86840SOL    HW262295   1.235  11.956   5.546
86841SOL     OW62296   1.885   8.409   3.958
86841SOL    HW162297   1.954   8.349   3.928
86841SOL    HW262298   1.888   8.402   4.054
86842SOL     OW62299  13.080  12.919   4.744
86842SOL    HW162300  13.154  12.962   4.700
86842SOL    HW262301  13.038  12.868   4.675
86843SOL     OW62302   0.814  10.541   4.244
86843SOL    HW162303   0.837  10.455   4.210
86843SOL    HW262304   0.739  10.525   4.301
86844SOL     OW62305  13.485   0.428  10.340
86844SOL    HW162306  13.483   0.364  10.411
86844SOL    HW262307  13.399   0.470  10.343
86845SOL     OW62308  14.862  13.189   4.886
86845SOL    HW162309  14.840  13.253   4.953
86845SOL    HW262310   0.070  13.212   4.859
86846SOL     OW62311  12.218  11.263   6.748
86846SOL    HW162312  12.211  11.305   6.833
86846SOL    HW262313  12.279  11.191   6.762
86847SOL     OW62314   5.440  13.097   6.766
86847SOL    HW162315   5.531  13.106   6.794
86847SOL    HW262316   5.389  13.141   6.834
86848SOL     OW62317  11.760   5.868  13.616
86848SOL    HW162318  11.800   5.887  13.701
86848SOL    HW262319  11.668   5.849  13.636
86849SOL     OW62320   5.159   1.215   2.960
86849SOL    HW162321   5.249   1.219   2.991
86849SOL    HW262322   5.160   1.148   2.891
86850SOL     OW62323  14.379  11.772   4.369
86850SOL    HW162324  14.432  11.708   4.416
86850SOL    HW262325  14.421  11.856   4.388
86851SOL     OW62326  13.729   7.561   7.655
86851SOL    HW162327  13.634   7.565   7.665
86851SOL    HW262328  13.759   7.507   7.728
86852SOL     OW62329   7.906   0.942  10.557
86852SOL    HW162330   7.875   1.032  10.547
86852SOL    HW262331   7.851   0.891  10.498
86853SOL     OW62332   9.289  11.013  10.366
86853SOL    HW162333   9.257  11.082  10.307
86853SOL    HW262334   9.235  11.021  10.444
86854SOL     OW62335   5.588   6.214   2.314
86854SOL    HW162336   5.669   6.221   2.263
86854SOL    HW262337   5.518   6.226   2.250
86855SOL     OW62338   8.974   2.574  11.294
86855SOL    HW162339   9.025   2.537  11.222
86855SOL    HW262340   8.994   2.518  11.369
86856SOL     OW62341   6.757   7.006   4.400
86856SOL    HW162342   6.679   6.978   4.353
86856SOL    HW262343   6.827   7.003   4.334
86857SOL     OW62344   9.467  12.859   7.763
86857SOL    HW162345   9.450  12.769   7.791
86857SOL    HW262346   9.384  12.904   7.776
86858SOL     OW62347   7.040   1.608   3.984
86858SOL    HW162348   7.006   1.542   3.924
86858SOL    HW262349   7.134   1.609   3.968
86859SOL     OW62350   4.147  12.415   1.779
86859SOL    HW162351   4.194  12.462   1.709
86859SOL    HW262352   4.128  12.329   1.742
86860SOL     OW62353  11.155   8.687  10.567
86860SOL    HW162354  11.171   8.634  10.489
86860SOL    HW262355  11.122   8.625  10.632
86861SOL     OW62356   3.894  10.871  14.070
86861SOL    HW162357   3.942  10.789  14.078
86861SOL    HW262358   3.832  10.869  14.143
86862SOL     OW62359   9.876  11.635   0.864
86862SOL    HW162360   9.932  11.594   0.930
86862SOL    HW262361   9.805  11.572   0.850
86863SOL     OW62362   8.048  13.382  13.236
86863SOL    HW162363   8.112  13.313  13.214
86863SOL    HW262364   8.096  13.442  13.293
86864SOL     OW62365   3.781   9.187   2.404
86864SOL    HW162366   3.758   9.097   2.429
86864SOL    HW262367   3.763   9.191   2.310
86865SOL     OW62368   4.249   1.056  14.813
86865SOL    HW162369   4.218   0.970  14.840
86865SOL    HW262370   4.220   1.065  14.722
86866SOL     OW62371   8.445   9.375   4.121
86866SOL    HW162372   8.477   9.285   4.125
86866SOL    HW262373   8.432   9.400   4.213
86867SOL     OW62374   7.126   4.889  14.017
86867SOL    HW162375   7.192   4.891  14.088
86867SOL    HW262376   7.076   4.970  14.029
86868SOL     OW62377   2.217  14.631   4.154
86868SOL    HW162378   2.304  14.641   4.117
86868SOL    HW262379   2.227  14.657   4.246
86869SOL     OW62380   7.567   0.260   1.522
86869SOL    HW162381   7.588   0.279   1.431
86869SOL    HW262382   7.647   0.221   1.557
86870SOL     OW62383  11.290   2.955   7.090
86870SOL    HW162384  11.378   2.993   7.095
86870SOL    HW262385  11.303   2.871   7.047
86871SOL     OW62386  12.077   2.437   2.858
86871SOL    HW162387  12.169   2.435   2.833
86871SOL    HW262388  12.034   2.483   2.785
86872SOL     OW62389   4.271  11.884  14.821
86872SOL    HW162390   4.223  11.957  14.782
86872SOL    HW262391   4.321  11.847  14.748
86873SOL     OW62392   6.449  13.901   7.872
86873SOL    HW162393   6.367  13.926   7.828
86873SOL    HW262394   6.431  13.915   7.965
86874SOL     OW62395   0.103  10.227   8.648
86874SOL    HW162396   0.075  10.277   8.571
86874SOL    HW262397   0.198  10.236   8.650
86875SOL     OW62398   8.158  10.874   3.709
86875SOL    HW162399   8.069  10.845   3.690
86875SOL    HW262400   8.203  10.793   3.735
86876SOL     OW62401   9.314   8.128  13.924
86876SOL    HW162402   9.264   8.061  13.969
86876SOL    HW262403   9.403   8.118  13.957
86877SOL     OW62404   5.472   2.452  11.926
86877SOL    HW162405   5.377   2.444  11.923
86877SOL    HW262406   5.492   2.469  12.018
86878SOL     OW62407  11.248   1.672  14.462
86878SOL    HW162408  11.268   1.579  14.447
86878SOL    HW262409  11.166   1.686  14.415
86879SOL     OW62410   0.639   1.510  10.501
86879SOL    HW162411   0.648   1.449  10.574
86879SOL    HW262412   0.552   1.547  10.512
86880SOL     OW62413  14.325   7.934   4.929
86880SOL    HW162414  14.278   7.876   4.870
86880SOL    HW262415  14.313   8.022   4.892
86881SOL     OW62416  14.360   5.748   0.341
86881SOL    HW162417  14.284   5.689   0.344
86881SOL    HW262418  14.393   5.740   0.251
86882SOL     OW62419   6.240   9.426   2.775
86882SOL    HW162420   6.263   9.436   2.683
86882SOL    HW262421   6.313   9.375   2.812
86883SOL     OW62422   0.799   7.813   6.966
86883SOL    HW162423   0.851   7.881   7.007
86883SOL    HW262424   0.861   7.761   6.915
86884SOL     OW62425   6.057  12.208   2.171
86884SOL    HW162426   6.057  12.254   2.255
86884SOL    HW262427   6.065  12.116   2.193
86885SOL     OW62428   7.259  10.274  13.750
86885SOL    HW162429   7.186  10.253  13.810
86885SOL    HW262430   7.228  10.246  13.664
86886SOL     OW62431   6.191  12.120   7.913
86886SOL    HW162432   6.106  12.092   7.878
86886SOL    HW262433   6.197  12.213   7.891
86887SOL     OW62434  11.177  10.061   7.281
86887SOL    HW162435  11.202   9.978   7.240
86887SOL    HW262436  11.252  10.085   7.335
86888SOL     OW62437   0.139  12.019   5.007
86888SOL    HW162438   0.045  12.011   5.019
86888SOL    HW262439   0.168  12.072   5.081
86889SOL     OW62440  14.277  14.845   0.965
86889SOL    HW162441  14.221  14.857   0.888
86889SOL    HW262442  14.326   0.045   0.972
86890SOL     OW62443   3.326   3.412   3.019
86890SOL    HW162444   3.274   3.479   3.062
86890SOL    HW262445   3.382   3.460   2.958
86891SOL     OW62446   8.481  12.108   8.446
86891SOL    HW162447   8.438  12.092   8.362
86891SOL    HW262448   8.451  12.194   8.473
86892SOL     OW62449   2.541   0.196   9.968
86892SOL    HW162450   2.589   0.114   9.961
86892SOL    HW262451   2.475   0.191   9.899
86893SOL     OW62452   8.392  13.510   6.043
86893SOL    HW162453   8.367  13.579   5.981
86893SOL    HW262454   8.457  13.458   5.996
86894SOL     OW62455   9.878   8.513   5.972
86894SOL    HW162456   9.967   8.510   5.938
86894SOL    HW262457   9.842   8.596   5.938
86895SOL     OW62458   8.256   4.246   0.716
86895SOL    HW162459   8.349   4.253   0.739
86895SOL    HW262460   8.251   4.277   0.626
86896SOL     OW62461   4.258  12.956   4.868
86896SOL    HW162462   4.255  13.042   4.911
86896SOL    HW262463   4.168  12.923   4.877
86897SOL     OW62464   6.719   6.502  10.416
86897SOL    HW162465   6.638   6.547  10.443
86897SOL    HW262466   6.728   6.523  10.323
86898SOL     OW62467  10.208  11.212   0.329
86898SOL    HW162468  10.146  11.168   0.386
86898SOL    HW262469  10.158  11.233   0.250
86899SOL     OW62470   3.608  14.642   2.627
86899SOL    HW162471   3.587  14.722   2.579
86899SOL    HW262472   3.684  14.606   2.582
86900SOL     OW62473   2.103   3.561   5.472
86900SOL    HW162474   2.083   3.537   5.382
86900SOL    HW262475   2.061   3.493   5.525
86901SOL     OW62476  13.831   6.750   9.028
86901SOL    HW162477  13.908   6.701   9.001
86901SOL    HW262478  13.786   6.692   9.089
86902SOL     OW62479   1.196   1.433   1.308
86902SOL    HW162480   1.279   1.479   1.295
86902SOL    HW262481   1.130   1.502   1.311
86903SOL     OW62482   8.545   8.140   7.301
86903SOL    HW162483   8.541   8.082   7.225
86903SOL    HW262484   8.457   8.137   7.338
86904SOL     OW62485   3.864  13.018  11.918
86904SOL    HW162486   3.938  12.979  11.964
86904SOL    HW262487   3.903  13.078  11.855
86905SOL     OW62488  13.895   0.304   7.663
86905SOL    HW162489  13.952   0.380   7.677
86905SOL    HW262490  13.894   0.259   7.748
86906SOL     OW62491  11.324   0.559   1.234
86906SOL    HW162492  11.271   0.489   1.196
86906SOL    HW262493  11.387   0.582   1.165
86907SOL     OW62494  13.789   1.733  13.320
86907SOL    HW162495  13.791   1.824  13.352
86907SOL    HW262496  13.727   1.736  13.247
86908SOL     OW62497   4.970   0.524  10.923
86908SOL    HW162498   4.884   0.565  10.912
86908SOL    HW262499   4.951   0.430  10.932
86909SOL     OW62500  11.684   1.300  10.631
86909SOL    HW162501  11.623   1.319  10.560
86909SOL    HW262502  11.708   1.386  10.666
86910SOL     OW62503   4.827  12.849  10.430
86910SOL    HW162504   4.777  12.838  10.511
86910SOL    HW262505   4.763  12.836  10.360
86911SOL     OW62506   8.290   4.451   7.735
86911SOL    HW162507   8.283   4.365   7.695
86911SOL    HW262508   8.235   4.508   7.681
86912SOL     OW62509   5.073  14.136   9.029
86912SOL    HW162510   5.075  14.141   8.933
86912SOL    HW262511   5.163  14.113   9.054
86913SOL     OW62512   9.306   6.115   9.726
86913SOL    HW162513   9.312   6.074   9.813
86913SOL    HW262514   9.213   6.114   9.705
86914SOL     OW62515   1.867   0.048   0.199
86914SOL    HW162516   1.791   0.084   0.153
86914SOL    HW262517   1.913  14.879   0.132
86915SOL     OW62518  12.332   1.942   4.339
86915SOL    HW162519  12.260   1.884   4.315
86915SOL    HW262520  12.409   1.902   4.299
86916SOL     OW62521   9.635   7.865   0.103
86916SOL    HW162522   9.667   7.840   0.017
86916SOL    HW262523   9.663   7.795   0.161
86917SOL     OW62524   1.243  10.361   5.904
86917SOL    HW162525   1.331  10.327   5.884
86917SOL    HW262526   1.236  10.440   5.851
86918SOL     OW62527   1.548   5.164   3.759
86918SOL    HW162528   1.532   5.161   3.665
86918SOL    HW262529   1.641   5.188   3.766
86919SOL     OW62530   9.031  11.189   4.972
86919SOL    HW162531   9.086  11.215   5.047
86919SOL    HW262532   9.001  11.101   4.994
86920SOL     OW62533   2.921   8.985  13.796
86920SOL    HW162534   2.915   8.930  13.718
86920SOL    HW262535   3.013   8.984  13.820
86921SOL     OW62536   9.567   4.763  12.609
86921SOL    HW162537   9.594   4.672  12.597
86921SOL    HW262538   9.649   4.812  12.618
86922SOL     OW62539   6.542  11.977   4.539
86922SOL    HW162540   6.634  11.951   4.548
86922SOL    HW262541   6.543  12.072   4.554
86923SOL     OW62542   9.150   3.764   6.563
86923SOL    HW162543   9.119   3.762   6.472
86923SOL    HW262544   9.130   3.677   6.597
86924SOL     OW62545  12.945   7.718   0.892
86924SOL    HW162546  12.975   7.792   0.943
86924SOL    HW262547  13.003   7.716   0.815
86925SOL     OW62548  10.518   3.295   6.245
86925SOL    HW162549  10.557   3.223   6.295
86925SOL    HW262550  10.424   3.276   6.247
86926SOL     OW62551   9.791  14.622   6.237
86926SOL    HW162552   9.719  14.668   6.279
86926SOL    HW262553   9.769  14.621   6.144
86927SOL     OW62554   8.783   2.653   4.914
86927SOL    HW162555   8.796   2.740   4.952
86927SOL    HW262556   8.710   2.615   4.965
86928SOL     OW62557  14.289  11.527   7.949
86928SOL    HW162558  14.331  11.512   8.034
86928SOL    HW262559  14.324  11.457   7.893
86929SOL     OW62560   8.837   0.586   1.590
86929SOL    HW162561   8.768   0.616   1.649
86929SOL    HW262562   8.793   0.525   1.531
86930SOL     OW62563   9.668   5.596   3.012
86930SOL    HW162564   9.681   5.653   3.088
86930SOL    HW262565   9.756   5.575   2.982
86931SOL     OW62566   8.375  13.177   5.799
86931SOL    HW162567   8.439  13.148   5.733
86931SOL    HW262568   8.321  13.240   5.752
86932SOL     OW62569  12.335   8.798   2.919
86932SOL    HW162570  12.313   8.771   3.008
86932SOL    HW262571  12.263   8.856   2.893
86933SOL     OW62572   7.020   6.757   6.485
86933SOL    HW162573   7.003   6.676   6.533
86933SOL    HW262574   7.058   6.728   6.402
86934SOL     OW62575  11.358   0.927   0.746
86934SOL    HW162576  11.334   0.856   0.687
86934SOL    HW262577  11.279   0.944   0.797
86935SOL     OW62578  12.048  14.857   5.061
86935SOL    HW162579  12.044   0.071   5.072
86935SOL    HW262580  11.970  14.824   5.105
86936SOL     OW62581   2.239   7.018   4.522
86936SOL    HW162582   2.238   6.982   4.433
86936SOL    HW262583   2.293   7.097   4.515
86937SOL     OW62584   6.204  13.103   7.712
86937SOL    HW162585   6.275  13.168   7.701
86937SOL    HW262586   6.250  13.020   7.727
86938SOL     OW62587  10.374   2.172  12.109
86938SOL    HW162588  10.397   2.109  12.040
86938SOL    HW262589  10.433   2.152  12.181
86939SOL     OW62590   1.581   1.437   3.923
86939SOL    HW162591   1.489   1.461   3.936
86939SOL    HW262592   1.604   1.389   4.003
86940SOL     OW62593   3.951   6.861   1.707
86940SOL    HW162594   3.899   6.942   1.706
86940SOL    HW262595   4.029   6.883   1.656
86941SOL     OW62596   3.247   8.514   7.485
86941SOL    HW162597   3.212   8.535   7.571
86941SOL    HW262598   3.211   8.428   7.465
86942SOL     OW62599  13.124   9.280   0.560
86942SOL    HW162600  13.186   9.210   0.538
86942SOL    HW262601  13.047   9.234   0.595
86943SOL     OW62602   0.321   7.911  13.660
86943SOL    HW162603   0.250   7.850  13.638
86943SOL    HW262604   0.365   7.870  13.735
86944SOL     OW62605   2.660   6.585   5.299
86944SOL    HW162606   2.587   6.585   5.361
86944SOL    HW262607   2.638   6.654   5.236
86945SOL     OW62608   8.007   3.799  14.727
86945SOL    HW162609   7.926   3.781  14.776
86945SOL    HW262610   8.077   3.775  14.787
86946SOL     OW62611  10.913   3.556   5.258
86946SOL    HW162612  11.004   3.576   5.281
86946SOL    HW262613  10.863   3.581   5.336
86947SOL     OW62614   5.173   7.743  10.543
86947SOL    HW162615   5.083   7.747  10.510
86947SOL    HW262616   5.184   7.651  10.569
86948SOL     OW62617   9.064   4.038   7.949
86948SOL    HW162618   8.985   4.047   8.002
86948SOL    HW262619   9.124   4.105   7.982
86949SOL     OW62620   3.220  10.237   8.962
86949SOL    HW162621   3.215  10.309   9.025
86949SOL    HW262622   3.281  10.268   8.895
86950SOL     OW62623  10.913   6.425  13.850
86950SOL    HW162624  10.855   6.391  13.782
86950SOL    HW262625  10.999   6.388  13.829
86951SOL     OW62626   2.790   6.080   9.510
86951SOL    HW162627   2.884   6.077   9.494
86951SOL    HW262628   2.765   5.989   9.528
86952SOL     OW62629   8.730   5.693   4.613
86952SOL    HW162630   8.691   5.609   4.636
86952SOL    HW262631   8.749   5.687   4.520
86953SOL     OW62632   0.484  11.704   5.644
86953SOL    HW162633   0.417  11.709   5.714
86953SOL    HW262634   0.567  11.703   5.691
86954SOL     OW62635  11.183   8.210   3.192
86954SOL    HW162636  11.216   8.134   3.143
86954SOL    HW262637  11.088   8.197   3.193
86955SOL     OW62638  11.734   0.957  12.538
86955SOL    HW162639  11.697   0.984  12.622
86955SOL    HW262640  11.777   1.036  12.504
86956SOL     OW62641  11.624   7.151   1.903
86956SOL    HW162642  11.608   7.241   1.873
86956SOL    HW262643  11.613   7.156   1.998
86957SOL     OW62644   2.513   8.437   5.744
86957SOL    HW162645   2.485   8.430   5.653
86957SOL    HW262646   2.500   8.349   5.780
86958SOL     OW62647   5.015  13.825  13.845
86958SOL    HW162648   5.038  13.738  13.811
86958SOL    HW262649   5.099  13.865  13.867
86959SOL     OW62650  10.260   7.075   4.480
86959SOL    HW162651  10.297   7.163   4.492
86959SOL    HW262652  10.183   7.073   4.537
86960SOL     OW62653   8.121   7.110   2.170
86960SOL    HW162654   8.094   7.117   2.079
86960SOL    HW262655   8.085   7.189   2.212
86961SOL     OW62656  11.645   1.946   6.386
86961SOL    HW162657  11.613   1.998   6.459
86961SOL    HW262658  11.669   2.010   6.319
86962SOL     OW62659  11.488   6.482   9.089
86962SOL    HW162660  11.489   6.487   8.993
86962SOL    HW262661  11.396   6.477   9.112
86963SOL     OW62662   3.406   7.774   6.827
86963SOL    HW162663   3.481   7.763   6.887
86963SOL    HW262664   3.330   7.752   6.881
86964SOL     OW62665   1.062  10.249  11.469
86964SOL    HW162666   1.016  10.299  11.401
86964SOL    HW262667   1.017  10.273  11.550
86965SOL     OW62668   1.391  10.608  11.501
86965SOL    HW162669   1.354  10.688  11.539
86965SOL    HW262670   1.378  10.541  11.567
86966SOL     OW62671  11.856  12.430  10.689
86966SOL    HW162672  11.877  12.336  10.689
86966SOL    HW262673  11.911  12.466  10.619
86967SOL     OW62674   2.384   2.553   3.229
86967SOL    HW162675   2.391   2.607   3.150
86967SOL    HW262676   2.475   2.536   3.254
86968SOL     OW62677   5.340  11.586   6.456
86968SOL    HW162678   5.435  11.593   6.447
86968SOL    HW262679   5.305  11.654   6.397
86969SOL     OW62680   0.943  13.726  10.504
86969SOL    HW162681   0.851  13.702  10.517
86969SOL    HW262682   0.944  13.821  10.512
86970SOL     OW62683  14.055  14.598  13.552
86970SOL    HW162684  14.105  14.530  13.597
86970SOL    HW262685  14.121  14.653  13.511
86971SOL     OW62686   8.314   3.214   9.750
86971SOL    HW162687   8.379   3.211   9.680
86971SOL    HW262688   8.361   3.247   9.826
86972SOL     OW62689   4.267  10.472   9.933
86972SOL    HW162690   4.353  10.515   9.934
86972SOL    HW262691   4.241  10.469  10.025
86973SOL     OW62692   2.096  14.558  10.755
86973SOL    HW162693   2.045  14.632  10.788
86973SOL    HW262694   2.056  14.482  10.797
86974SOL     OW62695   1.289   1.157   2.176
86974SOL    HW162696   1.359   1.093   2.191
86974SOL    HW262697   1.254   1.134   2.091
86975SOL     OW62698   0.900   3.462   3.555
86975SOL    HW162699   0.959   3.386   3.550
86975SOL    HW262700   0.956   3.534   3.585
86976SOL     OW62701   1.199   3.124   5.712
86976SOL    HW162702   1.128   3.096   5.654
86976SOL    HW262703   1.171   3.209   5.745
86977SOL     OW62704  10.599  13.453   7.855
86977SOL    HW162705  10.686  13.468   7.820
86977SOL    HW262706  10.540  13.490   7.790
86978SOL     OW62707   4.652   5.997   9.714
86978SOL    HW162708   4.730   6.004   9.771
86978SOL    HW262709   4.594   6.065   9.746
86979SOL     OW62710   3.370  12.332   7.723
86979SOL    HW162711   3.372  12.238   7.705
86979SOL    HW262712   3.402  12.372   7.642
86980SOL     OW62713   7.409   3.617  10.434
86980SOL    HW162714   7.359   3.645  10.510
86980SOL    HW262715   7.352   3.557  10.387
86981SOL     OW62716  12.283   9.431   0.698
86981SOL    HW162717  12.238   9.392   0.773
86981SOL    HW262718  12.266   9.525   0.707
86982SOL     OW62719   0.463   7.737  13.377
86982SOL    HW162720   0.388   7.746  13.437
86982SOL    HW262721   0.508   7.821  13.381
86983SOL     OW62722   3.077   6.352   6.188
86983SOL    HW162723   3.078   6.258   6.210
86983SOL    HW262724   3.126   6.394   6.259
86984SOL     OW62725  11.038   6.835  13.791
86984SOL    HW162726  11.073   6.920  13.816
86984SOL    HW262727  10.970   6.855  13.727
86985SOL     OW62728  14.402   1.945  10.530
86985SOL    HW162729  14.307   1.947  10.515
86985SOL    HW262730  14.410   1.942  10.626
86986SOL     OW62731  11.770   1.863   5.499
86986SOL    HW162732  11.767   1.954   5.527
86986SOL    HW262733  11.696   1.855   5.438
86987SOL     OW62734   6.151   6.009   4.538
86987SOL    HW162735   6.168   5.946   4.608
86987SOL    HW262736   6.089   5.965   4.480
86988SOL     OW62737   4.837  13.677   0.914
86988SOL    HW162738   4.852  13.722   0.831
86988SOL    HW262739   4.817  13.747   0.976
86989SOL     OW62740  12.597   5.525  14.507
86989SOL    HW162741  12.517   5.550  14.462
86989SOL    HW262742  12.616   5.598  14.566
86990SOL     OW62743   6.530  14.624  14.088
86990SOL    HW162744   6.585  14.571  14.146
86990SOL    HW262745   6.579  14.705  14.077
86991SOL     OW62746   0.937  14.443   6.210
86991SOL    HW162747   0.968  14.532   6.194
86991SOL    HW262748   0.987  14.412   6.285
86992SOL     OW62749   2.479   9.749   2.495
86992SOL    HW162750   2.549   9.806   2.463
86992SOL    HW262751   2.498   9.663   2.457
86993SOL     OW62752   9.060   9.343   0.862
86993SOL    HW162753   9.015   9.347   0.777
86993SOL    HW262754   9.035   9.424   0.906
86994SOL     OW62755   2.590   2.981   0.764
86994SOL    HW162756   2.666   2.925   0.744
86994SOL    HW262757   2.576   2.969   0.858
86995SOL     OW62758  12.316  11.308   1.882
86995SOL    HW162759  12.227  11.300   1.916
86995SOL    HW262760  12.369  11.254   1.939
86996SOL     OW62761  11.379  11.612  13.915
86996SOL    HW162762  11.435  11.619  13.993
86996SOL    HW262763  11.441  11.616  13.842
86997SOL     OW62764   9.120   8.192   2.969
86997SOL    HW162765   9.150   8.131   2.902
86997SOL    HW262766   9.195   8.249   2.984
86998SOL     OW62767   8.056   9.916  13.742
86998SOL    HW162768   8.082  10.001  13.707
86998SOL    HW262769   7.960   9.919  13.744
86999SOL     OW62770   6.071   9.388  13.563
86999SOL    HW162771   6.047   9.467  13.611
86999SOL    HW262772   5.994   9.331  13.570
87000SOL     OW62773   4.616   3.075   1.969
87000SOL    HW162774   4.659   2.991   1.955
87000SOL    HW262775   4.556   3.060   2.042
87001SOL     OW62776  12.285   9.225  13.081
87001SOL    HW162777  12.320   9.138  13.099
87001SOL    HW262778  12.346   9.285  13.124
87002SOL     OW62779   8.622   4.361   2.948
87002SOL    HW162780   8.656   4.281   2.989
87002SOL    HW262781   8.554   4.391   3.008
87003SOL     OW62782  14.697   6.896   8.443
87003SOL    HW162783  14.756   6.858   8.507
87003SOL    HW262784  14.722   6.989   8.439
87004SOL     OW62785  12.324   3.590   3.112
87004SOL    HW162786  12.234   3.598   3.146
87004SOL    HW262787  12.377   3.641   3.173
87005SOL     OW62788  14.720  13.701   6.866
87005SOL    HW162789  14.702  13.690   6.959
87005SOL    HW262790  14.637  13.729   6.828
87006SOL     OW62791   8.680  11.720   2.447
87006SOL    HW162792   8.769  11.750   2.428
87006SOL    HW262793   8.624  11.775   2.392
87007SOL     OW62794  12.321   9.972  14.586
87007SOL    HW162795  12.396   9.993  14.530
87007SOL    HW262796  12.302  10.053  14.633
87008SOL     OW62797   2.671   8.177   5.333
87008SOL    HW162798   2.659   8.099   5.387
87008SOL    HW262799   2.639   8.150   5.246
87009SOL     OW62800   4.867   7.956   0.326
87009SOL    HW162801   4.944   7.998   0.288
87009SOL    HW262802   4.820   8.028   0.369
87010SOL     OW62803   8.609   1.960  13.786
87010SOL    HW162804   8.593   1.891  13.721
87010SOL    HW262805   8.628   1.912  13.867
87011SOL     OW62806   0.726  11.731   5.784
87011SOL    HW162807   0.806  11.717   5.733
87011SOL    HW262808   0.725  11.825   5.802
87012SOL     OW62809  12.793  14.411   9.675
87012SOL    HW162810  12.887  14.422   9.680
87012SOL    HW262811  12.778  14.366   9.591
87013SOL     OW62812   7.512  13.140  12.375
87013SOL    HW162813   7.509  13.165  12.283
87013SOL    HW262814   7.602  13.110  12.389
87014SOL     OW62815  14.082   5.853   6.903
87014SOL    HW162816  14.122   5.936   6.880
87014SOL    HW262817  14.038   5.869   6.986
87015SOL     OW62818  12.207   7.853   4.497
87015SOL    HW162819  12.208   7.784   4.431
87015SOL    HW262820  12.267   7.920   4.463
87016SOL     OW62821   3.962   5.755   6.488
87016SOL    HW162822   4.010   5.836   6.472
87016SOL    HW262823   3.885   5.783   6.537
87017SOL     OW62824   3.754   2.428  10.419
87017SOL    HW162825   3.790   2.497  10.363
87017SOL    HW262826   3.674   2.466  10.455
87018SOL     OW62827   4.057   4.507   7.273
87018SOL    HW162828   3.967   4.536   7.258
87018SOL    HW262829   4.083   4.552   7.354
87019SOL     OW62830   3.767   3.015   5.683
87019SOL    HW162831   3.742   3.101   5.715
87019SOL    HW262832   3.776   3.027   5.588
87020SOL     OW62833   3.857  13.750   6.406
87020SOL    HW162834   3.843  13.717   6.495
87020SOL    HW262835   3.816  13.836   6.405
87021SOL     OW62836   7.709  11.494   6.900
87021SOL    HW162837   7.788  11.484   6.847
87021SOL    HW262838   7.637  11.480   6.838
87022SOL     OW62839   0.875   6.083   8.364
87022SOL    HW162840   0.887   6.169   8.322
87022SOL    HW262841   0.782   6.063   8.350
87023SOL     OW62842   2.294   9.741  11.440
87023SOL    HW162843   2.355   9.814  11.446
87023SOL    HW262844   2.345   9.670  11.403
87024SOL     OW62845   5.058   5.928  13.191
87024SOL    HW162846   5.123   5.875  13.239
87024SOL    HW262847   5.108   6.004  13.161
87025SOL     OW62848   9.966  10.575   2.318
87025SOL    HW162849   9.899  10.537   2.375
87025SOL    HW262850  10.025  10.502   2.299
87026SOL     OW62851   1.834   8.515  12.664
87026SOL    HW162852   1.828   8.537  12.571
87026SOL    HW262853   1.752   8.545  12.701
87027SOL     OW62854   9.702   7.476   5.195
87027SOL    HW162855   9.702   7.396   5.141
87027SOL    HW262856   9.637   7.532   5.153
87028SOL     OW62857   9.101  10.508   7.036
87028SOL    HW162858   9.042  10.496   7.110
87028SOL    HW262859   9.057  10.574   6.981
87029SOL     OW62860   2.419  11.083  10.425
87029SOL    HW162861   2.506  11.119  10.443
87029SOL    HW262862   2.358  11.141  10.470
87030SOL     OW62863   3.359   0.282   3.183
87030SOL    HW162864   3.405   0.325   3.255
87030SOL    HW262865   3.333   0.354   3.125
87031SOL     OW62866  12.599   1.875   1.524
87031SOL    HW162867  12.621   1.822   1.447
87031SOL    HW262868  12.503   1.884   1.520
87032SOL     OW62869  11.160   2.347   3.311
87032SOL    HW162870  11.252   2.331   3.336
87032SOL    HW262871  11.165   2.393   3.228
87033SOL     OW62872  13.150   2.400   0.812
87033SOL    HW162873  13.113   2.449   0.738
87033SOL    HW262874  13.228   2.451   0.837
87034SOL     OW62875   2.007   4.706   7.876
87034SOL    HW162876   2.065   4.639   7.840
87034SOL    HW262877   1.925   4.660   7.892
87035SOL     OW62878   1.560   3.621   4.328
87035SOL    HW162879   1.632   3.665   4.284
87035SOL    HW262880   1.481   3.654   4.284
87036SOL     OW62881   4.319   3.659  14.610
87036SOL    HW162882   4.287   3.708  14.534
87036SOL    HW262883   4.414   3.658  14.599
87037SOL     OW62884  11.522  11.827  10.998
87037SOL    HW162885  11.445  11.773  11.017
87037SOL    HW262886  11.563  11.784  10.923
87038SOL     OW62887   0.764   5.205  14.570
87038SOL    HW162888   0.812   5.125  14.591
87038SOL    HW262889   0.672   5.183  14.586
87039SOL     OW62890   1.915   4.831  12.354
87039SOL    HW162891   1.953   4.884  12.285
87039SOL    HW262892   1.978   4.834  12.426
87040SOL     OW62893  14.302   9.503   0.887
87040SOL    HW162894  14.395   9.505   0.863
87040SOL    HW262895  14.270   9.590   0.865
87041SOL     OW62896   8.528   7.786  11.428
87041SOL    HW162897   8.551   7.749  11.513
87041SOL    HW262898   8.528   7.711  11.368
87042SOL     OW62899   4.779  12.034  12.069
87042SOL    HW162900   4.771  12.106  12.006
87042SOL    HW262901   4.693  12.028  12.110
87043SOL     OW62902   8.853   4.793   0.451
87043SOL    HW162903   8.914   4.733   0.494
87043SOL    HW262904   8.784   4.808   0.516
87044SOL     OW62905   1.776  12.923   9.642
87044SOL    HW162906   1.768  12.833   9.673
87044SOL    HW262907   1.862  12.927   9.602
87045SOL     OW62908   5.496   1.132   6.005
87045SOL    HW162909   5.493   1.062   5.940
87045SOL    HW262910   5.404   1.153   6.022
87046SOL     OW62911  12.942   7.242   3.817
87046SOL    HW162912  12.977   7.231   3.905
87046SOL    HW262913  13.017   7.270   3.765
87047SOL     OW62914   9.932   8.367  11.440
87047SOL    HW162915   9.919   8.428  11.512
87047SOL    HW262916   9.851   8.372  11.389
87048SOL     OW62917   2.531  14.636   1.461
87048SOL    HW162918   2.575  14.585   1.528
87048SOL    HW262919   2.566  14.725   1.472
87049SOL     OW62920   5.673   7.130   0.678
87049SOL    HW162921   5.745   7.106   0.619
87049SOL    HW262922   5.598   7.143   0.620
87050SOL     OW62923   0.815   6.629   3.684
87050SOL    HW162924   0.875   6.576   3.736
87050SOL    HW262925   0.835   6.719   3.709
87051SOL     OW62926   0.811   3.775   1.652
87051SOL    HW162927   0.870   3.850   1.664
87051SOL    HW262928   0.757   3.800   1.577
87052SOL     OW62929   4.859   7.643   8.873
87052SOL    HW162930   4.906   7.721   8.845
87052SOL    HW262931   4.879   7.577   8.807
87053SOL     OW62932  12.838   0.813  12.138
87053SOL    HW162933  12.853   0.737  12.082
87053SOL    HW262934  12.902   0.878  12.108
87054SOL     OW62935   6.568  10.853  14.021
87054SOL    HW162936   6.655  10.885  13.995
87054SOL    HW262937   6.512  10.870  13.945
87055SOL     OW62938   3.743   9.299   8.562
87055SOL    HW162939   3.781   9.232   8.505
87055SOL    HW262940   3.665   9.259   8.598
87056SOL     OW62941   6.734   1.099   1.993
87056SOL    HW162942   6.759   1.152   2.069
87056SOL    HW262943   6.709   1.014   2.030
87057SOL     OW62944   7.911   5.458  13.309
87057SOL    HW162945   7.963   5.396  13.258
87057SOL    HW262946   7.852   5.499  13.245
87058SOL     OW62947   9.987   3.073   4.580
87058SOL    HW162948   9.961   3.159   4.612
87058SOL    HW262949  10.044   3.038   4.648
87059SOL     OW62950   6.084   6.504  14.684
87059SOL    HW162951   5.998   6.527  14.721
87059SOL    HW262952   6.147   6.556  14.734
87060SOL     OW62953   4.323   9.315   0.355
87060SOL    HW162954   4.230   9.338   0.353
87060SOL    HW262955   4.338   9.282   0.443
87061SOL     OW62956   0.118  14.762  11.756
87061SOL    HW162957   0.033  14.757  11.799
87061SOL    HW262958   0.141  14.855  11.759
87062SOL     OW62959  11.578   2.656   7.459
87062SOL    HW162960  11.652   2.714   7.475
87062SOL    HW262961  11.555   2.621   7.544
87063SOL     OW62962  13.533   8.459  12.435
87063SOL    HW162963  13.486   8.381  12.465
87063SOL    HW262964  13.544   8.447  12.341
87064SOL     OW62965   5.562   2.873   1.913
87064SOL    HW162966   5.592   2.789   1.947
87064SOL    HW262967   5.533   2.854   1.824
87065SOL     OW62968  10.231   6.037  10.075
87065SOL    HW162969  10.225   6.095  10.151
87065SOL    HW262970  10.150   5.987  10.075
87066SOL     OW62971  11.104   5.296  10.758
87066SOL    HW162972  11.156   5.222  10.727
87066SOL    HW262973  11.025   5.257  10.796
87067SOL     OW62974   8.649  10.347  14.814
87067SOL    HW162975   8.660  10.314  14.725
87067SOL    HW262976   8.603  10.430  14.803
87068SOL     OW62977   5.388   8.257   7.452
87068SOL    HW162978   5.406   8.260   7.358
87068SOL    HW262979   5.475   8.248   7.492
87069SOL     OW62980  13.859   8.197   1.744
87069SOL    HW162981  13.837   8.187   1.651
87069SOL    HW262982  13.888   8.287   1.753
87070SOL     OW62983  12.933  11.121   0.275
87070SOL    HW162984  12.918  11.052   0.211
87070SOL    HW262985  12.849  11.132   0.320
87071SOL     OW62986  13.472  13.588   1.600
87071SOL    HW162987  13.391  13.635   1.581
87071SOL    HW262988  13.538  13.657   1.610
87072SOL     OW62989   4.540   4.145   5.912
87072SOL    HW162990   4.516   4.128   5.821
87072SOL    HW262991   4.508   4.234   5.929
87073SOL     OW62992   5.393  14.221   4.406
87073SOL    HW162993   5.341  14.201   4.484
87073SOL    HW262994   5.446  14.297   4.432
87074SOL     OW62995  14.487   2.735   2.301
87074SOL    HW162996  14.454   2.646   2.307
87074SOL    HW262997  14.523   2.742   2.212
87075SOL     OW62998  11.438   9.934   2.544
87075SOL    HW162999  11.381   9.865   2.510
87075SOL    HW263000  11.465   9.903   2.630
87076SOL     OW63001   0.351   7.329   8.386
87076SOL    HW163002   0.377   7.306   8.475
87076SOL    HW263003   0.425   7.302   8.331
87077SOL     OW63004   6.641   7.902  10.181
87077SOL    HW163005   6.565   7.888  10.237
87077SOL    HW263006   6.612   7.877  10.094
87078SOL     OW63007   2.505   6.108   7.635
87078SOL    HW163008   2.568   6.178   7.652
87078SOL    HW263009   2.470   6.129   7.548
87079SOL     OW63010   2.293   8.171   8.070
87079SOL    HW163011   2.300   8.250   8.122
87079SOL    HW263012   2.278   8.202   7.980
87080SOL     OW63013  13.781   3.820   9.548
87080SOL    HW163014  13.737   3.896   9.585
87080SOL    HW263015  13.716   3.749   9.556
87081SOL     OW63016   3.659   9.756  12.601
87081SOL    HW163017   3.577   9.795  12.630
87081SOL    HW263018   3.718   9.767  12.676
87082SOL     OW63019   5.048  11.340   5.608
87082SOL    HW163020   4.994  11.406   5.566
87082SOL    HW263021   5.034  11.353   5.702
87083SOL     OW63022  12.325  13.250  11.759
87083SOL    HW163023  12.329  13.287  11.671
87083SOL    HW263024  12.390  13.180  11.759
87084SOL     OW63025  12.685   5.810   8.685
87084SOL    HW163026  12.646   5.776   8.604
87084SOL    HW263027  12.774   5.776   8.685
87085SOL     OW63028   0.837   8.701  12.546
87085SOL    HW163029   0.873   8.630  12.600
87085SOL    HW263030   0.751   8.719  12.585
87086SOL     OW63031   5.812  14.630   6.408
87086SOL    HW163032   5.870  14.578   6.351
87086SOL    HW263033   5.769  14.565   6.463
87087SOL     OW63034   0.036   5.184   5.992
87087SOL    HW163035   0.075   5.248   5.932
87087SOL    HW263036   0.042   5.225   6.078
87088SOL     OW63037   1.971  12.976   6.477
87088SOL    HW163038   1.945  12.903   6.420
87088SOL    HW263039   1.992  13.047   6.417
87089SOL     OW63040   7.973  11.854   9.018
87089SOL    HW163041   8.034  11.780   9.014
87089SOL    HW263042   7.904  11.825   9.077
87090SOL     OW63043  12.728   5.408   7.393
87090SOL    HW163044  12.751   5.437   7.305
87090SOL    HW263045  12.812   5.394   7.437
87091SOL     OW63046   6.249   4.135   7.322
87091SOL    HW163047   6.278   4.157   7.410
87091SOL    HW263048   6.157   4.112   7.333
87092SOL     OW63049   4.694   2.337   9.019
87092SOL    HW163050   4.695   2.247   9.052
87092SOL    HW263051   4.601   2.358   9.010
87093SOL     OW63052   3.426   3.345   4.108
87093SOL    HW163053   3.334   3.341   4.134
87093SOL    HW263054   3.450   3.255   4.089
87094SOL     OW63055  11.722   8.646  14.020
87094SOL    HW163056  11.647   8.690  13.979
87094SOL    HW263057  11.797   8.700  13.997
87095SOL     OW63058   1.049   2.053   4.327
87095SOL    HW163059   1.010   2.122   4.274
87095SOL    HW263060   1.102   2.100   4.391
87096SOL     OW63061  11.163  10.413   5.144
87096SOL    HW163062  11.122  10.487   5.189
87096SOL    HW263063  11.207  10.364   5.213
87097SOL     OW63064   7.300   1.224  12.189
87097SOL    HW163065   7.208   1.246  12.204
87097SOL    HW263066   7.298   1.152  12.126
87098SOL     OW63067   3.932  14.185   0.425
87098SOL    HW163068   3.967  14.251   0.364
87098SOL    HW263069   3.929  14.230   0.510
87099SOL     OW63070   3.918   5.672  12.607
87099SOL    HW163071   3.902   5.595  12.552
87099SOL    HW263072   3.839   5.726  12.596
87100SOL     OW63073  11.814   2.922  14.184
87100SOL    HW163074  11.801   2.933  14.090
87100SOL    HW263075  11.904   2.893  14.193
87101SOL     OW63076   1.065  14.552   4.504
87101SOL    HW163077   0.994  14.611   4.482
87101SOL    HW263078   1.043  14.470   4.461
87102SOL     OW63079   2.807  10.077   6.501
87102SOL    HW163080   2.868  10.142   6.537
87102SOL    HW263081   2.725  10.126   6.488
87103SOL     OW63082   2.996   4.784   9.926
87103SOL    HW163083   2.978   4.818  10.014
87103SOL    HW263084   2.917   4.804   9.876
87104SOL     OW63085  11.584   1.426   6.767
87104SOL    HW163086  11.498   1.387   6.785
87104SOL    HW263087  11.585   1.438   6.672
87105SOL     OW63088  14.748   8.447  12.063
87105SOL    HW163089  14.739   8.433  11.968
87105SOL    HW263090  14.823   8.394  12.088
87106SOL     OW63091   0.670   1.287   7.988
87106SOL    HW163092   0.638   1.217   8.045
87106SOL    HW263093   0.665   1.366   8.042
87107SOL     OW63094   5.332   3.360  14.021
87107SOL    HW163095   5.291   3.285  14.064
87107SOL    HW263096   5.285   3.368  13.938
87108SOL     OW63097   5.058   3.058   5.826
87108SOL    HW163098   4.987   3.020   5.877
87108SOL    HW263099   5.047   3.021   5.738
87109SOL     OW63100   4.534  10.382   8.666
87109SOL    HW163101   4.477  10.332   8.725
87109SOL    HW263102   4.580  10.443   8.724
87110SOL     OW63103   7.113  12.127  13.957
87110SOL    HW163104   7.108  12.069  13.880
87110SOL    HW263105   7.090  12.070  14.031
87111SOL     OW63106   1.750  11.448   5.281
87111SOL    HW163107   1.722  11.517   5.341
87111SOL    HW263108   1.798  11.495   5.212
87112SOL     OW63109  13.518   3.313   7.094
87112SOL    HW163110  13.531   3.403   7.123
87112SOL    HW263111  13.582   3.301   7.024
87113SOL     OW63112   1.009   6.146  13.269
87113SOL    HW163113   0.952   6.108  13.336
87113SOL    HW263114   1.096   6.149  13.310
87114SOL     OW63115  11.577  10.544   3.512
87114SOL    HW163116  11.574  10.474   3.577
87114SOL    HW263117  11.660  10.588   3.529
87115SOL     OW63118   7.978  14.120   7.919
87115SOL    HW163119   8.011  14.208   7.936
87115SOL    HW263120   7.887  14.133   7.892
87116SOL     OW63121   1.761  11.530   4.450
87116SOL    HW163122   1.743  11.440   4.425
87116SOL    HW263123   1.796  11.523   4.539
87117SOL     OW63124   1.311  12.007   0.291
87117SOL    HW163125   1.394  12.054   0.292
87117SOL    HW263126   1.330  11.925   0.337
87118SOL     OW63127  13.579   4.462   2.512
87118SOL    HW163128  13.666   4.456   2.474
87118SOL    HW263129  13.593   4.497   2.600
87119SOL     OW63130  14.168  10.542   7.808
87119SOL    HW163131  14.245  10.551   7.864
87119SOL    HW263132  14.195  10.482   7.739
87120SOL     OW63133  14.341  11.601   2.218
87120SOL    HW163134  14.274  11.645   2.270
87120SOL    HW263135  14.312  11.510   2.213
87121SOL     OW63136   6.390  14.732   6.330
87121SOL    HW163137   6.437  14.658   6.292
87121SOL    HW263138   6.385  14.712   6.424
87122SOL     OW63139   5.700  12.551   0.867
87122SOL    HW163140   5.624  12.560   0.925
87122SOL    HW263141   5.768  12.514   0.922
87123SOL     OW63142  11.511  13.845  12.326
87123SOL    HW163143  11.520  13.936  12.352
87123SOL    HW263144  11.471  13.848  12.239
87124SOL     OW63145   9.063   2.026   4.698
87124SOL    HW163146   9.068   1.939   4.737
87124SOL    HW263147   9.077   2.011   4.604
87125SOL     OW63148   6.962   7.314   5.711
87125SOL    HW163149   6.884   7.270   5.677
87125SOL    HW263150   7.033   7.282   5.656
87126SOL     OW63151   8.346  12.621   6.196
87126SOL    HW163152   8.400  12.700   6.190
87126SOL    HW263153   8.296  12.619   6.115
87127SOL     OW63154   6.810   8.655   6.793
87127SOL    HW163155   6.756   8.631   6.868
87127SOL    HW263156   6.887   8.600   6.800
87128SOL     OW63157  13.146   5.820   4.848
87128SOL    HW163158  13.226   5.866   4.874
87128SOL    HW263159  13.169   5.776   4.766
87129SOL     OW63160   9.285  12.988   6.398
87129SOL    HW163161   9.206  13.031   6.431
87129SOL    HW263162   9.264  12.894   6.401
87130SOL     OW63163   2.448  13.812   3.946
87130SOL    HW163164   2.460  13.905   3.962
87130SOL    HW263165   2.433  13.775   4.033
87131SOL     OW63166   7.595   8.133   2.131
87131SOL    HW163167   7.533   8.179   2.187
87131SOL    HW263168   7.624   8.200   2.068
87132SOL     OW63169   7.273  11.102   2.168
87132SOL    HW163170   7.239  11.062   2.088
87132SOL    HW263171   7.316  11.030   2.214
87133SOL     OW63172   7.816  12.712  10.147
87133SOL    HW163173   7.869  12.757  10.081
87133SOL    HW263174   7.825  12.619  10.125
87134SOL     OW63175   8.952   9.772   8.710
87134SOL    HW163176   8.956   9.778   8.615
87134SOL    HW263177   9.025   9.715   8.734
87135SOL     OW63178   1.696  14.144   4.348
87135SOL    HW163179   1.604  14.157   4.325
87135SOL    HW263180   1.695  14.136   4.444
87136SOL     OW63181   0.323   8.623  12.306
87136SOL    HW163182   0.393   8.685  12.327
87136SOL    HW263183   0.325   8.559  12.377
87137SOL     OW63184  12.197   9.318   7.577
87137SOL    HW163185  12.211   9.358   7.663
87137SOL    HW263186  12.146   9.383   7.529
87138SOL     OW63187   4.121  12.969  12.020
87138SOL    HW163188   4.085  12.881  12.024
87138SOL    HW263189   4.175  12.976  12.099
87139SOL     OW63190   5.091  13.935   6.756
87139SOL    HW163191   5.140  13.984   6.822
87139SOL    HW263192   4.999  13.952   6.777
87140SOL     OW63193   5.773   9.434  13.265
87140SOL    HW163194   5.821   9.510  13.230
87140SOL    HW263195   5.801   9.361  13.211
87141SOL     OW63196   9.382   9.406  13.658
87141SOL    HW163197   9.470   9.441  13.672
87141SOL    HW263198   9.330   9.482  13.633
87142SOL     OW63199   5.093   2.854   5.208
87142SOL    HW163200   5.130   2.858   5.297
87142SOL    HW263201   5.007   2.813   5.220
87143SOL     OW63202   0.948   5.409   7.848
87143SOL    HW163203   0.934   5.360   7.929
87143SOL    HW263204   0.882   5.376   7.788
87144SOL     OW63205   2.719   9.783  13.875
87144SOL    HW163206   2.805   9.756  13.908
87144SOL    HW263207   2.658   9.719  13.910
87145SOL     OW63208   4.719   7.739   7.111
87145SOL    HW163209   4.813   7.760   7.111
87145SOL    HW263210   4.686   7.776   7.030
87146SOL     OW63211  13.802   8.779  11.622
87146SOL    HW163212  13.830   8.860  11.664
87146SOL    HW263213  13.877   8.750  11.571
87147SOL     OW63214  13.286   1.831  11.907
87147SOL    HW163215  13.220   1.860  11.845
87147SOL    HW263216  13.362   1.807  11.853
87148SOL     OW63217   2.828   9.826   1.913
87148SOL    HW163218   2.778   9.750   1.944
87148SOL    HW263219   2.841   9.809   1.819
87149SOL     OW63220   0.777   0.448  11.358
87149SOL    HW163221   0.684   0.453  11.335
87149SOL    HW263222   0.779   0.396  11.438
87150SOL     OW63223   5.632  10.940   9.569
87150SOL    HW163224   5.564  10.939   9.636
87150SOL    HW263225   5.693  11.007   9.597
87151SOL     OW63226  12.044   3.941  10.109
87151SOL    HW163227  12.055   3.896  10.193
87151SOL    HW263228  12.099   4.019  10.117
87152SOL     OW63229  10.826   2.145   9.632
87152SOL    HW163230  10.752   2.185   9.678
87152SOL    HW263231  10.786   2.082   9.572
87153SOL     OW63232   5.648  12.280   7.422
87153SOL    HW163233   5.583  12.211   7.408
87153SOL    HW263234   5.672  12.309   7.334
87154SOL     OW63235  14.733   9.001   2.376
87154SOL    HW163236  14.785   8.964   2.448
87154SOL    HW263237  14.646   9.013   2.413
87155SOL     OW63238   8.493  13.589   7.501
87155SOL    HW163239   8.480  13.516   7.439
87155SOL    HW263240   8.471  13.667   7.450
87156SOL     OW63241   1.825   6.714   7.483
87156SOL    HW163242   1.863   6.640   7.436
87156SOL    HW263243   1.896   6.778   7.489
87157SOL     OW63244   1.735  14.819   7.529
87157SOL    HW163245   1.810  14.878   7.522
87157SOL    HW263246   1.668  14.870   7.576
87158SOL     OW63247   5.339   3.588   1.223
87158SOL    HW163248   5.270   3.535   1.264
87158SOL    HW263249   5.410   3.525   1.207
87159SOL     OW63250  10.694   6.523   5.241
87159SOL    HW163251  10.789   6.535   5.242
87159SOL    HW263252  10.663   6.575   5.315
87160SOL     OW63253   3.634   0.949  14.545
87160SOL    HW163254   3.665   0.866  14.510
87160SOL    HW263255   3.712   0.991  14.581
87161SOL     OW63256   2.050  14.280  11.156
87161SOL    HW163257   1.986  14.299  11.224
87161SOL    HW263258   2.080  14.192  11.175
87162SOL     OW63259  13.212   4.414   1.174
87162SOL    HW163260  13.142   4.352   1.153
87162SOL    HW263261  13.230   4.460   1.092
87163SOL     OW63262   5.916   9.608  13.673
87163SOL    HW163263   5.963   9.667  13.733
87163SOL    HW263264   5.845   9.573  13.725
87164SOL     OW63265   8.430   2.830  14.348
87164SOL    HW163266   8.428   2.924  14.365
87164SOL    HW263267   8.518   2.803  14.371
87165SOL     OW63268   4.254   0.357   2.582
87165SOL    HW163269   4.184   0.388   2.524
87165SOL    HW263270   4.304   0.436   2.604
87166SOL     OW63271  11.849  12.518   0.382
87166SOL    HW163272  11.858  12.424   0.399
87166SOL    HW263273  11.770  12.544   0.430
87167SOL     OW63274   6.615  11.136   3.766
87167SOL    HW163275   6.651  11.165   3.850
87167SOL    HW263276   6.552  11.204   3.741
87168SOL     OW63277   6.235   5.481   4.630
87168SOL    HW163278   6.258   5.400   4.675
87168SOL    HW263279   6.173   5.454   4.562
87169SOL     OW63280   4.732   4.254   7.743
87169SOL    HW163281   4.752   4.255   7.650
87169SOL    HW263282   4.816   4.272   7.786
87170SOL     OW63283  14.590   3.318   6.935
87170SOL    HW163284  14.606   3.234   6.892
87170SOL    HW263285  14.633   3.382   6.879
87171SOL     OW63286   9.852  14.190   5.400
87171SOL    HW163287   9.870  14.254   5.469
87171SOL    HW263288   9.836  14.108   5.447
87172SOL     OW63289   9.832  13.313  10.535
87172SOL    HW163290   9.769  13.382  10.555
87172SOL    HW263291   9.917  13.354  10.544
87173SOL     OW63292   8.948  12.770   0.296
87173SOL    HW163293   8.986  12.855   0.273
87173SOL    HW263294   9.017  12.726   0.346
87174SOL     OW63295   2.745   9.695  12.699
87174SOL    HW163296   2.839   9.705  12.714
87174SOL    HW263297   2.734   9.602  12.678
87175SOL     OW63298  11.794   2.449   6.314
87175SOL    HW163299  11.883   2.467   6.282
87175SOL    HW263300  11.738   2.466   6.238
87176SOL     OW63301   2.309   2.288  13.814
87176SOL    HW163302   2.321   2.357  13.748
87176SOL    HW263303   2.249   2.327  13.878
87177SOL     OW63304   2.698   1.293   4.134
87177SOL    HW163305   2.688   1.388   4.134
87177SOL    HW263306   2.736   1.273   4.219
87178SOL     OW63307   9.624  13.803  12.916
87178SOL    HW163308   9.533  13.831  12.907
87178SOL    HW263309   9.665  13.831  12.834
87179SOL     OW63310   2.610   4.497  11.135
87179SOL    HW163311   2.618   4.581  11.180
87179SOL    HW263312   2.579   4.520  11.047
87180SOL     OW63313   1.356   1.428   5.482
87180SOL    HW163314   1.437   1.405   5.528
87180SOL    HW263315   1.364   1.386   5.397
87181SOL     OW63316   7.168   2.725   6.874
87181SOL    HW163317   7.131   2.641   6.847
87181SOL    HW263318   7.237   2.702   6.936
87182SOL     OW63319   8.803   3.700  11.410
87182SOL    HW163320   8.737   3.740  11.354
87182SOL    HW263321   8.819   3.614  11.372
87183SOL     OW63322   7.174   7.002   2.562
87183SOL    HW163323   7.258   6.969   2.531
87183SOL    HW263324   7.152   7.073   2.502
87184SOL     OW63325   7.687   9.443  14.583
87184SOL    HW163326   7.742   9.425  14.506
87184SOL    HW263327   7.723   9.387  14.652
87185SOL     OW63328  11.538   9.909   3.590
87185SOL    HW163329  11.479   9.965   3.641
87185SOL    HW263330  11.576   9.849   3.654
87186SOL     OW63331   8.185   1.175  11.233
87186SOL    HW163332   8.184   1.201  11.325
87186SOL    HW263333   8.093   1.156  11.212
87187SOL     OW63334   8.049   5.120  12.648
87187SOL    HW163335   8.037   5.026  12.637
87187SOL    HW263336   8.041   5.156  12.559
87188SOL     OW63337   4.822   1.621   3.037
87188SOL    HW163338   4.746   1.571   3.008
87188SOL    HW263339   4.799   1.652   3.124
87189SOL     OW63340  12.331   6.493  12.851
87189SOL    HW163341  12.297   6.451  12.773
87189SOL    HW263342  12.395   6.431  12.886
87190SOL     OW63343  13.452   2.995  13.467
87190SOL    HW163344  13.479   2.920  13.413
87190SOL    HW263345  13.529   3.051  13.469
87191SOL     OW63346   8.455   5.347  14.461
87191SOL    HW163347   8.392   5.325  14.529
87191SOL    HW263348   8.516   5.274  14.459
87192SOL     OW63349  10.666   7.090   3.392
87192SOL    HW163350  10.590   7.033   3.405
87192SOL    HW263351  10.742   7.032   3.400
87193SOL     OW63352   8.948   8.214  11.283
87193SOL    HW163353   8.932   8.166  11.202
87193SOL    HW263354   8.882   8.284  11.283
87194SOL     OW63355  14.378  12.078   2.742
87194SOL    HW163356  14.343  11.998   2.703
87194SOL    HW263357  14.413  12.050   2.826
87195SOL     OW63358   8.807  14.102   0.691
87195SOL    HW163359   8.765  14.154   0.623
87195SOL    HW263360   8.817  14.163   0.765
87196SOL     OW63361  10.586   2.981   8.404
87196SOL    HW163362  10.654   3.034   8.447
87196SOL    HW263363  10.634   2.906   8.369
87197SOL     OW63364   9.948   0.341   8.626
87197SOL    HW163365   9.889   0.416   8.635
87197SOL    HW263366   9.892   0.271   8.592
87198SOL     OW63367   3.634  13.141   1.589
87198SOL    HW163368   3.605  13.051   1.605
87198SOL    HW263369   3.643  13.179   1.676
87199SOL     OW63370  10.284   0.122  14.807
87199SOL    HW163371  10.223   0.194  14.790
87199SOL    HW263372  10.255   0.083   0.008
87200SOL     OW63373   3.623   8.068   2.936
87200SOL    HW163374   3.582   8.013   2.870
87200SOL    HW263375   3.552   8.090   2.997
87201SOL     OW63376   0.948   5.852  13.033
87201SOL    HW163377   1.034   5.852  13.076
87201SOL    HW263378   0.907   5.771  13.062
87202SOL     OW63379   6.495   4.883   4.414
87202SOL    HW163380   6.447   4.965   4.427
87202SOL    HW263381   6.586   4.905   4.434
87203SOL     OW63382   8.080   5.667   7.912
87203SOL    HW163383   8.095   5.595   7.851
87203SOL    HW263384   8.152   5.728   7.896
87204SOL     OW63385   6.215   1.473   6.954
87204SOL    HW163386   6.225   1.379   6.967
87204SOL    HW263387   6.186   1.506   7.039
87205SOL     OW63388   7.972   8.922   1.112
87205SOL    HW163389   7.952   8.828   1.109
87205SOL    HW263390   8.035   8.930   1.184
87206SOL     OW63391   3.585   7.951  14.313
87206SOL    HW163392   3.493   7.931  14.297
87206SOL    HW263393   3.616   7.994  14.234
87207SOL     OW63394  14.128   3.409   9.909
87207SOL    HW163395  14.194   3.448   9.851
87207SOL    HW263396  14.141   3.453   9.993
87208SOL     OW63397  10.601  11.629  13.728
87208SOL    HW163398  10.569  11.638  13.817
87208SOL    HW263399  10.567  11.545  13.698
87209SOL     OW63400  12.100   7.545   2.837
87209SOL    HW163401  12.123   7.511   2.924
87209SOL    HW263402  12.183   7.580   2.803
87210SOL     OW63403   2.653  11.965   6.604
87210SOL    HW163404   2.715  11.892   6.609
87210SOL    HW263405   2.576  11.927   6.562
87211SOL     OW63406  12.362   3.527   9.057
87211SOL    HW163407  12.362   3.446   9.007
87211SOL    HW263408  12.452   3.538   9.087
87212SOL     OW63409   4.050   5.295  14.219
87212SOL    HW163410   4.008   5.381  14.225
87212SOL    HW263411   4.096   5.298  14.136
87213SOL     OW63412  12.725  14.155   5.596
87213SOL    HW163413  12.755  14.139   5.507
87213SOL    HW263414  12.654  14.218   5.586
87214SOL     OW63415   7.739   6.668  14.405
87214SOL    HW163416   7.719   6.621  14.325
87214SOL    HW263417   7.800   6.737  14.379
87215SOL     OW63418   1.796   2.238  13.778
87215SOL    HW163419   1.733   2.310  13.784
87215SOL    HW263420   1.880   2.280  13.759
87216SOL     OW63421   2.185   1.306   9.602
87216SOL    HW163422   2.091   1.284   9.598
87216SOL    HW263423   2.187   1.401   9.610
87217SOL     OW63424   1.928   7.423   8.961
87217SOL    HW163425   1.978   7.376   8.895
87217SOL    HW263426   1.877   7.487   8.912
87218SOL     OW63427   2.309   2.003  13.853
87218SOL    HW163428   2.393   2.001  13.899
87218SOL    HW263429   2.309   2.088  13.808
87219SOL     OW63430   2.390  13.165  11.883
87219SOL    HW163431   2.483  13.159  11.861
87219SOL    HW263432   2.359  13.243  11.838
87220SOL     OW63433   3.703   2.822   1.862
87220SOL    HW163434   3.780   2.810   1.806
87220SOL    HW263435   3.693   2.917   1.868
87221SOL     OW63436   4.127  10.981   1.959
87221SOL    HW163437   4.033  10.973   1.945
87221SOL    HW263438   4.163  10.897   1.928
87222SOL     OW63439  12.634   3.702  14.655
87222SOL    HW163440  12.582   3.781  14.668
87222SOL    HW263441  12.571   3.635  14.628
87223SOL     OW63442   3.955   3.384  12.489
87223SOL    HW163443   3.881   3.443  12.505
87223SOL    HW263444   3.949   3.363  12.396
87224SOL     OW63445   5.215   8.859   0.185
87224SOL    HW163446   5.154   8.888   0.117
87224SOL    HW263447   5.190   8.910   0.262
87225SOL     OW63448  14.356   1.981  13.276
87225SOL    HW163449  14.387   2.020  13.358
87225SOL    HW263450  14.266   1.956  13.295
87226SOL     OW63451   6.832  11.858   4.878
87226SOL    HW163452   6.869  11.891   4.797
87226SOL    HW263453   6.884  11.780   4.899
87227SOL     OW63454   6.212  11.181   1.652
87227SOL    HW163455   6.215  11.125   1.729
87227SOL    HW263456   6.124  11.218   1.653
87228SOL     OW63457  12.990   7.867   4.387
87228SOL    HW163458  12.929   7.873   4.461
87228SOL    HW263459  12.985   7.952   4.345
87229SOL     OW63460  11.289   0.371  14.176
87229SOL    HW163461  11.379   0.364  14.207
87229SOL    HW263462  11.290   0.326  14.091
87230SOL     OW63463   9.844   9.345  12.322
87230SOL    HW163464   9.828   9.417  12.262
87230SOL    HW263465   9.762   9.336  12.371
87231SOL     OW63466   4.886  14.587   0.188
87231SOL    HW163467   4.883  14.509   0.133
87231SOL    HW263468   4.837  14.563   0.266
87232SOL     OW63469   1.340  10.718   4.017
87232SOL    HW163470   1.276  10.787   4.001
87232SOL    HW263471   1.415  10.741   3.961
87233SOL     OW63472   9.797   2.189  11.544
87233SOL    HW163473   9.854   2.250  11.496
87233SOL    HW263474   9.785   2.230  11.630
87234SOL     OW63475  10.998   4.226   4.435
87234SOL    HW163476  10.920   4.171   4.429
87234SOL    HW263477  11.010   4.240   4.528
87235SOL     OW63478   8.609   1.004  11.254
87235SOL    HW163479   8.615   1.058  11.334
87235SOL    HW263480   8.522   1.025  11.218
87236SOL     OW63481  13.584  13.653   6.912
87236SOL    HW163482  13.533  13.621   6.837
87236SOL    HW263483  13.553  13.742   6.926
87237SOL     OW63484   9.526   7.065   4.850
87237SOL    HW163485   9.553   7.047   4.940
87237SOL    HW263486   9.435   7.093   4.857
87238SOL     OW63487  12.537  11.898  13.093
87238SOL    HW163488  12.631  11.888  13.104
87238SOL    HW263489  12.501  11.873  13.179
87239SOL     OW63490   8.640  10.887   3.156
87239SOL    HW163491   8.727  10.870   3.122
87239SOL    HW263492   8.653  10.950   3.227
87240SOL     OW63493  10.303   0.004  13.822
87240SOL    HW163494  10.269   0.078  13.772
87240SOL    HW263495  10.308  14.813  13.759
87241SOL     OW63496  12.625  12.982   3.445
87241SOL    HW163497  12.551  12.922   3.435
87241SOL    HW263498  12.702  12.926   3.441
87242SOL     OW63499  13.548  12.550  11.536
87242SOL    HW163500  13.490  12.579  11.465
87242SOL    HW263501  13.489  12.511  11.600
87243SOL     OW63502   7.134  10.081   5.191
87243SOL    HW163503   7.203  10.094   5.255
87243SOL    HW263504   7.167  10.123   5.111
87244SOL     OW63505   0.620  13.596   9.210
87244SOL    HW163506   0.553  13.640   9.158
87244SOL    HW263507   0.594  13.504   9.208
87245SOL     OW63508   6.457  10.022   4.545
87245SOL    HW163509   6.546   9.987   4.544
87245SOL    HW263510   6.447  10.064   4.459
87246SOL     OW63511  13.022   8.155  12.425
87246SOL    HW163512  12.969   8.117  12.496
87246SOL    HW263513  13.106   8.110  12.431
87247SOL     OW63514   8.025   9.108   7.035
87247SOL    HW163515   7.940   9.122   6.993
87247SOL    HW263516   8.026   9.169   7.109
87248SOL     OW63517  13.578  11.204  10.064
87248SOL    HW163518  13.599  11.201  10.157
87248SOL    HW263519  13.530  11.286  10.053
87249SOL     OW63520  13.665   3.434   4.815
87249SOL    HW163521  13.589   3.412   4.868
87249SOL    HW263522  13.641   3.516   4.772
87250SOL     OW63523  11.770  12.652   9.688
87250SOL    HW163524  11.817  12.575   9.720
87250SOL    HW263525  11.839  12.714   9.665
87251SOL     OW63526   2.435   5.648   5.835
87251SOL    HW163527   2.415   5.712   5.766
87251SOL    HW263528   2.354   5.599   5.847
87252SOL     OW63529   1.708  10.405   7.207
87252SOL    HW163530   1.651  10.329   7.218
87252SOL    HW263531   1.789  10.370   7.172
87253SOL     OW63532  12.345  10.977   6.636
87253SOL    HW163533  12.333  11.051   6.576
87253SOL    HW263534  12.391  10.911   6.584
87254SOL     OW63535   4.059   9.375  14.769
87254SOL    HW163536   4.039   9.430  14.844
87254SOL    HW263537   4.074   9.288  14.806
87255SOL     OW63538  13.643   5.892  10.370
87255SOL    HW163539  13.559   5.849  10.358
87255SOL    HW263540  13.682   5.850  10.447
87256SOL     OW63541   7.835  10.921   8.987
87256SOL    HW163542   7.860  10.834   8.954
87256SOL    HW263543   7.904  10.979   8.956
87257SOL     OW63544   9.866  13.526   5.223
87257SOL    HW163545   9.783  13.547   5.179
87257SOL    HW263546   9.926  13.503   5.151
87258SOL     OW63547   0.597   9.274  11.057
87258SOL    HW163548   0.684   9.292  11.022
87258SOL    HW263549   0.588   9.179  11.055
87259SOL     OW63550  10.394   8.988   9.496
87259SOL    HW163551  10.367   8.934   9.422
87259SOL    HW263552  10.344   8.954   9.570
87260SOL     OW63553  11.404   1.750   7.263
87260SOL    HW163554  11.431   1.664   7.230
87260SOL    HW263555  11.357   1.731   7.344
87261SOL     OW63556  12.773   2.942   2.167
87261SOL    HW163557  12.794   3.035   2.161
87261SOL    HW263558  12.677   2.939   2.172
87262SOL     OW63559   3.282   0.858   3.063
87262SOL    HW163560   3.294   0.923   3.132
87262SOL    HW263561   3.258   0.909   2.986
87263SOL     OW63562   5.012   0.503   9.967
87263SOL    HW163563   5.084   0.567   9.971
87263SOL    HW263564   5.055   0.419   9.954
87264SOL     OW63565   1.870   0.658   8.685
87264SOL    HW163566   1.798   0.716   8.662
87264SOL    HW263567   1.845   0.573   8.647
87265SOL     OW63568   8.254  13.429  11.632
87265SOL    HW163569   8.180  13.482  11.603
87265SOL    HW263570   8.230  13.401  11.721
87266SOL     OW63571   3.828   4.025   0.209
87266SOL    HW163572   3.770   4.023   0.133
87266SOL    HW263573   3.911   3.989   0.176
87267SOL     OW63574   7.566  11.968   3.673
87267SOL    HW163575   7.650  11.962   3.720
87267SOL    HW263576   7.513  11.898   3.711
87268SOL     OW63577   2.503   9.117   6.510
87268SOL    HW163578   2.476   9.206   6.486
87268SOL    HW263579   2.431   9.061   6.482
87269SOL     OW63580   7.756   5.730   5.795
87269SOL    HW163581   7.670   5.719   5.834
87269SOL    HW263582   7.814   5.674   5.847
87270SOL     OW63583   1.210   7.658  13.032
87270SOL    HW163584   1.210   7.585  13.094
87270SOL    HW263585   1.234   7.620  12.948
87271SOL     OW63586  11.314  12.212  14.233
87271SOL    HW163587  11.371  12.153  14.184
87271SOL    HW263588  11.274  12.268  14.166
87272SOL     OW63589   3.152   7.332   7.345
87272SOL    HW163590   3.237   7.372   7.365
87272SOL    HW263591   3.152   7.251   7.396
87273SOL     OW63592   1.840   7.507   4.461
87273SOL    HW163593   1.784   7.430   4.458
87273SOL    HW263594   1.889   7.498   4.543
87274SOL     OW63595  13.419  13.033  10.668
87274SOL    HW163596  13.349  13.091  10.700
87274SOL    HW263597  13.413  13.038  10.573
87275SOL     OW63598   2.688   8.735  14.314
87275SOL    HW163599   2.608   8.691  14.342
87275SOL    HW263600   2.713   8.691  14.233
87276SOL     OW63601   2.522  11.461  10.121
87276SOL    HW163602   2.580  11.419  10.058
87276SOL    HW263603   2.460  11.393  10.147
87277SOL     OW63604   0.036   4.769  13.229
87277SOL    HW163605   0.077   4.845  13.270
87277SOL    HW263606  14.823   4.783  13.242
87278SOL     OW63607  12.748  13.464  10.703
87278SOL    HW163608  12.786  13.486  10.788
87278SOL    HW263609  12.682  13.398  10.722
87279SOL     OW63610   3.396   4.434  13.119
87279SOL    HW163611   3.307   4.453  13.150
87279SOL    HW263612   3.384   4.363  13.055
87280SOL     OW63613  10.225  14.091   4.163
87280SOL    HW163614  10.184  14.162   4.213
87280SOL    HW263615  10.186  14.011   4.199
87281SOL     OW63616   1.268   2.114   7.783
87281SOL    HW163617   1.289   2.168   7.858
87281SOL    HW263618   1.348   2.115   7.730
87282SOL     OW63619   0.250   6.993  13.226
87282SOL    HW163620   0.264   7.076  13.182
87282SOL    HW263621   0.330   6.944  13.210
87283SOL     OW63622  12.250   1.023   6.579
87283SOL    HW163623  12.275   1.110   6.551
87283SOL    HW263624  12.308   1.003   6.653
87284SOL     OW63625  14.243   9.009   6.646
87284SOL    HW163626  14.235   8.963   6.563
87284SOL    HW263627  14.157   9.050   6.659
87285SOL     OW63628   4.208   4.777   1.449
87285SOL    HW163629   4.144   4.707   1.443
87285SOL    HW263630   4.230   4.781   1.542
87286SOL     OW63631  12.561  11.504   1.862
87286SOL    HW163632  12.534  11.412   1.863
87286SOL    HW263633  12.625  11.511   1.933
87287SOL     OW63634   0.688   3.391   4.372
87287SOL    HW163635   0.704   3.314   4.428
87287SOL    HW263636   0.774   3.416   4.341
87288SOL     OW63637   8.982  14.010   1.378
87288SOL    HW163638   9.053  13.946   1.381
87288SOL    HW263639   8.957  14.013   1.285
87289SOL     OW63640   4.066   6.286   3.139
87289SOL    HW163641   4.058   6.334   3.057
87289SOL    HW263642   4.013   6.207   3.127
87290SOL     OW63643   8.284   3.419   2.827
87290SOL    HW163644   8.258   3.501   2.869
87290SOL    HW263645   8.367   3.439   2.785
87291SOL     OW63646   6.802   1.473   5.092
87291SOL    HW163647   6.707   1.470   5.094
87291SOL    HW263648   6.828   1.478   5.184
87292SOL     OW63649  10.990   1.283   1.948
87292SOL    HW163650  10.978   1.219   2.019
87292SOL    HW263651  11.085   1.287   1.935
87293SOL     OW63652  12.824  14.052  13.992
87293SOL    HW163653  12.850  14.078  14.080
87293SOL    HW263654  12.906  14.036  13.946
87294SOL     OW63655   8.433   1.351   0.813
87294SOL    HW163656   8.523   1.379   0.795
87294SOL    HW263657   8.401   1.415   0.877
87295SOL     OW63658   5.703  12.683   8.579
87295SOL    HW163659   5.757  12.663   8.503
87295SOL    HW263660   5.614  12.690   8.544
87296SOL     OW63661   1.432   7.627   0.074
87296SOL    HW163662   1.481   7.698   0.033
87296SOL    HW263663   1.437   7.555   0.011
87297SOL     OW63664   2.895   3.232   3.482
87297SOL    HW163665   2.855   3.254   3.566
87297SOL    HW263666   2.855   3.148   3.458
87298SOL     OW63667   2.918  10.046   2.890
87298SOL    HW163668   2.978  10.005   2.952
87298SOL    HW263669   2.831  10.032   2.926
87299SOL     OW63670  14.531   4.397   0.142
87299SOL    HW163671  14.460   4.338   0.167
87299SOL    HW263672  14.563   4.433   0.225
87300SOL     OW63673  12.961   2.035   5.385
87300SOL    HW163674  12.946   1.982   5.464
87300SOL    HW263675  12.879   2.081   5.371
87301SOL     OW63676   5.623  13.173   4.514
87301SOL    HW163677   5.600  13.257   4.552
87301SOL    HW263678   5.702  13.146   4.560
87302SOL     OW63679   6.811   0.178   3.745
87302SOL    HW163680   6.863   0.166   3.824
87302SOL    HW263681   6.842   0.110   3.685
87303SOL     OW63682   3.486   0.307  12.759
87303SOL    HW163683   3.487   0.330  12.852
87303SOL    HW263684   3.413   0.359  12.723
87304SOL     OW63685  14.588  10.814  14.588
87304SOL    HW163686  14.537  10.832  14.509
87304SOL    HW263687  14.524  10.783  14.652
87305SOL     OW63688   1.842  10.089  12.728
87305SOL    HW163689   1.829  10.122  12.639
87305SOL    HW263690   1.810   9.999  12.725
87306SOL     OW63691   9.327   3.625   4.254
87306SOL    HW163692   9.257   3.648   4.316
87306SOL    HW263693   9.373   3.553   4.296
87307SOL     OW63694   0.097   7.549   8.082
87307SOL    HW163695   0.026   7.501   8.040
87307SOL    HW263696   0.137   7.599   8.011
87308SOL     OW63697   2.139  10.810   8.396
87308SOL    HW163698   2.197  10.744   8.358
87308SOL    HW263699   2.155  10.805   8.491
87309SOL     OW63700   6.770   0.035   7.068
87309SOL    HW163701   6.820   0.101   7.116
87309SOL    HW263702   6.709   0.084   7.014
87310SOL     OW63703   2.456   9.238   7.031
87310SOL    HW163704   2.437   9.172   7.097
87310SOL    HW263705   2.445   9.192   6.948
87311SOL     OW63706  11.386   0.702  13.909
87311SOL    HW163707  11.293   0.681  13.896
87311SOL    HW263708  11.385   0.790  13.948
87312SOL     OW63709   4.057   9.554  13.763
87312SOL    HW163710   4.118   9.481  13.747
87312SOL    HW263711   4.087   9.623  13.704
87313SOL     OW63712  10.123  12.930   1.764
87313SOL    HW163713  10.076  12.851   1.792
87313SOL    HW263714  10.117  12.989   1.840
87314SOL     OW63715  10.405   6.386  12.871
87314SOL    HW163716  10.320   6.430  12.880
87314SOL    HW263717  10.395   6.330  12.794
87315SOL     OW63718   9.163  14.221  13.053
87315SOL    HW163719   9.108  14.256  13.123
87315SOL    HW263720   9.245  14.198  13.097
87316SOL     OW63721  14.014   5.905   6.584
87316SOL    HW163722  14.043   5.823   6.543
87316SOL    HW263723  13.929   5.884   6.623
87317SOL     OW63724  12.785   5.169  10.007
87317SOL    HW163725  12.876   5.197  10.012
87317SOL    HW263726  12.789   5.083   9.964
87318SOL     OW63727  11.006   0.261   9.663
87318SOL    HW163728  11.032   0.248   9.754
87318SOL    HW263729  11.088   0.255   9.614
87319SOL     OW63730   3.803  11.025   9.359
87319SOL    HW163731   3.747  11.102   9.346
87319SOL    HW263732   3.808  11.014   9.453
87320SOL     OW63733   4.035   3.414   4.047
87320SOL    HW163734   4.011   3.338   3.994
87320SOL    HW263735   3.959   3.429   4.103
87321SOL     OW63736  14.212   2.951   0.408
87321SOL    HW163737  14.146   2.885   0.430
87321SOL    HW263738  14.293   2.917   0.446
87322SOL     OW63739   9.645  13.314   3.195
87322SOL    HW163740   9.694  13.297   3.115
87322SOL    HW263741   9.710  13.353   3.255
87323SOL     OW63742  13.928   1.757   6.996
87323SOL    HW163743  13.912   1.680   6.942
87323SOL    HW263744  13.851   1.764   7.052
87324SOL     OW63745   8.224   9.764   5.037
87324SOL    HW163746   8.161   9.813   4.985
87324SOL    HW263747   8.262   9.701   4.975
87325SOL     OW63748  12.346   2.583   1.637
87325SOL    HW163749  12.305   2.510   1.684
87325SOL    HW263750  12.305   2.582   1.551
87326SOL     OW63751   8.104  11.686  10.300
87326SOL    HW163752   8.183  11.632  10.301
87326SOL    HW263753   8.072  11.682  10.390
87327SOL     OW63754  13.299   0.488  10.697
87327SOL    HW163755  13.287   0.496  10.602
87327SOL    HW263756  13.274   0.573  10.732
87328SOL     OW63757  12.271   4.404   1.352
87328SOL    HW163758  12.244   4.313   1.362
87328SOL    HW263759  12.200   4.445   1.302
87329SOL     OW63760  12.239   8.524   3.521
87329SOL    HW163761  12.147   8.531   3.544
87329SOL    HW263762  12.271   8.614   3.520
87330SOL     OW63763   4.661  14.152   1.818
87330SOL    HW163764   4.721  14.087   1.781
87330SOL    HW263765   4.673  14.229   1.762
87331SOL     OW63766  11.018   3.278   8.447
87331SOL    HW163767  11.080   3.277   8.520
87331SOL    HW263768  11.030   3.363   8.406
87332SOL     OW63769   4.885   2.541   6.357
87332SOL    HW163770   4.980   2.547   6.365
87332SOL    HW263771   4.863   2.456   6.395
87333SOL     OW63772   8.892  10.621   8.114
87333SOL    HW163773   8.814  10.604   8.061
87333SOL    HW263774   8.944  10.541   8.105
87334SOL     OW63775  14.212   0.299   7.419
87334SOL    HW163776  14.154   0.223   7.420
87334SOL    HW263777  14.239   0.309   7.511
87335SOL     OW63778   9.695   3.341  10.235
87335SOL    HW163779   9.768   3.348  10.297
87335SOL    HW263780   9.717   3.402  10.165
87336SOL     OW63781   8.224   9.113   7.858
87336SOL    HW163782   8.166   9.187   7.875
87336SOL    HW263783   8.277   9.106   7.937
87337SOL     OW63784   5.099  14.201   7.613
87337SOL    HW163785   5.179  14.206   7.665
87337SOL    HW263786   5.062  14.115   7.636
87338SOL     OW63787   7.696   8.135   5.124
87338SOL    HW163788   7.766   8.075   5.150
87338SOL    HW263789   7.615   8.086   5.142
87339SOL     OW63790  10.439  13.449  14.035
87339SOL    HW163791  10.522  13.425  13.994
87339SOL    HW263792  10.445  13.414  14.124
87340SOL     OW63793  14.572   2.346  13.949
87340SOL    HW163794  14.509   2.348  14.021
87340SOL    HW263795  14.630   2.273  13.971
87341SOL     OW63796   4.743   8.931  12.470
87341SOL    HW163797   4.651   8.949  12.450
87341SOL    HW263798   4.741   8.887  12.554
87342SOL     OW63799  11.685   7.859   7.519
87342SOL    HW163800  11.620   7.858   7.589
87342SOL    HW263801  11.661   7.785   7.463
87343SOL     OW63802   6.111  12.709   4.675
87343SOL    HW163803   6.140  12.772   4.741
87343SOL    HW263804   6.023  12.684   4.703
87344SOL     OW63805   4.464  14.087   3.246
87344SOL    HW163806   4.476  14.011   3.302
87344SOL    HW263807   4.382  14.126   3.276
87345SOL     OW63808  13.988   4.901   5.347
87345SOL    HW163809  14.028   4.927   5.263
87345SOL    HW263810  13.948   4.816   5.329
87346SOL     OW63811   3.230   0.522   8.230
87346SOL    HW163812   3.184   0.493   8.151
87346SOL    HW263813   3.257   0.441   8.273
87347SOL     OW63814   7.315   9.056   3.170
87347SOL    HW163815   7.380   9.088   3.233
87347SOL    HW263816   7.365   9.043   3.089
87348SOL     OW63817   6.968   8.260   6.280
87348SOL    HW163818   7.044   8.262   6.223
87348SOL    HW263819   6.975   8.177   6.327
87349SOL     OW63820   2.877  12.894   2.602
87349SOL    HW163821   2.803  12.953   2.615
87349SOL    HW263822   2.892  12.855   2.688
87350SOL     OW63823   2.328   4.054   5.705
87350SOL    HW163824   2.408   4.098   5.735
87350SOL    HW263825   2.264   4.069   5.775
87351SOL     OW63826   9.660  13.850   6.293
87351SOL    HW163827   9.698  13.938   6.297
87351SOL    HW263828   9.594  13.849   6.363
87352SOL     OW63829  12.900  11.361   7.616
87352SOL    HW163830  12.893  11.397   7.528
87352SOL    HW263831  12.948  11.427   7.666
87353SOL     OW63832  11.589  13.006   4.573
87353SOL    HW163833  11.505  12.974   4.543
87353SOL    HW263834  11.650  12.987   4.501
87354SOL     OW63835   9.978   5.903   0.246
87354SOL    HW163836  10.024   5.951   0.315
87354SOL    HW263837   9.963   5.967   0.177
87355SOL     OW63838   7.677   9.318   4.311
87355SOL    HW163839   7.607   9.270   4.267
87355SOL    HW263840   7.752   9.313   4.252
87356SOL     OW63841  11.038   1.504  12.055
87356SOL    HW163842  11.103   1.574  12.057
87356SOL    HW263843  11.041   1.470  11.966
87357SOL     OW63844   6.004   6.356   6.861
87357SOL    HW163845   6.087   6.374   6.905
87357SOL    HW263846   5.995   6.426   6.796
87358SOL     OW63847   2.790  10.219   3.232
87358SOL    HW163848   2.800  10.234   3.138
87358SOL    HW263849   2.758  10.129   3.239
87359SOL     OW63850  12.099   6.986  13.971
87359SOL    HW163851  12.193   6.981  13.953
87359SOL    HW263852  12.092   6.987  14.066
87360SOL     OW63853  10.634   0.926   3.041
87360SOL    HW163854  10.560   0.868   3.028
87360SOL    HW263855  10.596   1.014   3.042
87361SOL     OW63856   1.489  11.653   1.776
87361SOL    HW163857   1.494  11.648   1.680
87361SOL    HW263858   1.522  11.741   1.797
87362SOL     OW63859   1.421  11.467   0.957
87362SOL    HW163860   1.375  11.481   1.040
87362SOL    HW263861   1.498  11.414   0.981
87363SOL     OW63862   6.894   5.320   0.777
87363SOL    HW163863   6.984   5.287   0.773
87363SOL    HW263864   6.895   5.383   0.850
87364SOL     OW63865   4.026  12.805   8.666
87364SOL    HW163866   4.095  12.771   8.610
87364SOL    HW263867   4.021  12.743   8.739
87365SOL     OW63868  10.215  10.934  14.868
87365SOL    HW163869  10.206  10.954  14.775
87365SOL    HW263870  10.283  10.867  14.872
87366SOL     OW63871   9.634   1.401   7.928
87366SOL    HW163872   9.579   1.325   7.911
87366SOL    HW263873   9.629   1.413   8.023
87367SOL     OW63874   0.503  14.246   1.729
87367SOL    HW163875   0.554  14.318   1.691
87367SOL    HW263876   0.565  14.198   1.783
87368SOL     OW63877  11.779   3.486  13.451
87368SOL    HW163878  11.788   3.571  13.409
87368SOL    HW263879  11.766   3.424  13.379
87369SOL     OW63880   2.804   2.921   5.919
87369SOL    HW163881   2.713   2.933   5.948
87369SOL    HW263882   2.817   2.827   5.918
87370SOL     OW63883  14.304   4.615   5.471
87370SOL    HW163884  14.256   4.534   5.457
87370SOL    HW263885  14.257   4.659   5.542
87371SOL     OW63886   4.773  14.063  11.470
87371SOL    HW163887   4.833  14.094  11.402
87371SOL    HW263888   4.733  13.984  11.433
87372SOL     OW63889   9.902  12.185  11.173
87372SOL    HW163890   9.886  12.256  11.235
87372SOL    HW263891   9.939  12.114  11.226
87373SOL     OW63892  14.282   2.429  14.602
87373SOL    HW163893  14.241   2.508  14.637
87373SOL    HW263894  14.212   2.363  14.602
87374SOL     OW63895   9.326   4.492   2.210
87374SOL    HW163896   9.376   4.563   2.171
87374SOL    HW263897   9.239   4.500   2.170
87375SOL     OW63898   6.509  11.664  13.464
87375SOL    HW163899   6.459  11.725  13.519
87375SOL    HW263900   6.595  11.706  13.454
87376SOL     OW63901   9.626   5.068   4.964
87376SOL    HW163902   9.658   5.123   5.035
87376SOL    HW263903   9.656   4.980   4.986
87377SOL     OW63904  10.336   6.983   8.514
87377SOL    HW163905  10.338   7.014   8.423
87377SOL    HW263906  10.281   6.905   8.511
87378SOL     OW63907   8.544  11.424   8.330
87378SOL    HW163908   8.557  11.340   8.374
87378SOL    HW263909   8.602  11.485   8.376
87379SOL     OW63910   4.505   9.896   5.260
87379SOL    HW163911   4.498   9.807   5.294
87379SOL    HW263912   4.593   9.900   5.223
87380SOL     OW63913   2.805   4.267   0.600
87380SOL    HW163914   2.818   4.360   0.580
87380SOL    HW263915   2.885   4.225   0.570
87381SOL     OW63916  12.561   5.259  12.632
87381SOL    HW163917  12.634   5.279  12.690
87381SOL    HW263918  12.586   5.179  12.587
87382SOL     OW63919  14.272  10.962   8.446
87382SOL    HW163920  14.208  11.019   8.488
87382SOL    HW263921  14.244  10.957   8.355
87383SOL     OW63922  11.176   9.466   1.142
87383SOL    HW163923  11.091   9.484   1.183
87383SOL    HW263924  11.237   9.460   1.215
87384SOL     OW63925  13.467   4.005   5.112
87384SOL    HW163926  13.449   4.015   5.019
87384SOL    HW263927  13.435   3.918   5.134
87385SOL     OW63928  11.934   0.650   1.014
87385SOL    HW163929  11.966   0.587   1.079
87385SOL    HW263930  11.906   0.596   0.940
87386SOL     OW63931   0.221   1.906  14.008
87386SOL    HW163932   0.161   1.925  14.080
87386SOL    HW263933   0.305   1.943  14.037
87387SOL     OW63934  10.829  14.826   4.960
87387SOL    HW163935  10.735  14.841   4.964
87387SOL    HW263936  10.845  14.799   4.869
87388SOL     OW63937   4.459  12.651   2.445
87388SOL    HW163938   4.513  12.572   2.436
87388SOL    HW263939   4.399  12.647   2.370
87389SOL     OW63940  10.984   9.146   5.751
87389SOL    HW163941  10.991   9.200   5.673
87389SOL    HW263942  10.944   9.065   5.720
87390SOL     OW63943   3.507   9.255   8.302
87390SOL    HW163944   3.533   9.163   8.300
87390SOL    HW263945   3.560   9.296   8.234
87391SOL     OW63946   4.142  13.607   8.819
87391SOL    HW163947   4.085  13.540   8.856
87391SOL    HW263948   4.217  13.559   8.785
87392SOL     OW63949   3.628  11.857   3.402
87392SOL    HW163950   3.714  11.822   3.379
87392SOL    HW263951   3.645  11.914   3.477
87393SOL     OW63952   8.665  14.631   5.058
87393SOL    HW163953   8.648  14.574   4.982
87393SOL    HW263954   8.578  14.662   5.084
87394SOL     OW63955   8.923  14.769  10.088
87394SOL    HW163956   8.933  14.833  10.017
87394SOL    HW263957   8.858  14.807  10.146
87395SOL     OW63958   5.584   8.392   8.455
87395SOL    HW163959   5.518   8.338   8.411
87395SOL    HW263960   5.657   8.396   8.393
87396SOL     OW63961   1.804   2.387   7.063
87396SOL    HW163962   1.720   2.358   7.029
87396SOL    HW263963   1.855   2.307   7.071
87397SOL     OW63964   2.524   8.489   9.649
87397SOL    HW163965   2.564   8.485   9.562
87397SOL    HW263966   2.597   8.496   9.710
87398SOL     OW63967   6.609  14.587   8.022
87398SOL    HW163968   6.517  14.596   7.996
87398SOL    HW263969   6.630  14.495   8.006
87399SOL     OW63970   8.772   6.725  11.027
87399SOL    HW163971   8.854   6.770  11.048
87399SOL    HW263972   8.746   6.761  10.942
87400SOL     OW63973  11.026   0.964   4.474
87400SOL    HW163974  11.016   0.996   4.564
87400SOL    HW263975  11.098   1.016   4.438
87401SOL     OW63976   1.411  13.556   1.191
87401SOL    HW163977   1.502  13.527   1.181
87401SOL    HW263978   1.370  13.535   1.107
87402SOL     OW63979   6.403  13.655   8.440
87402SOL    HW163980   6.393  13.750   8.445
87402SOL    HW263981   6.462  13.640   8.367
87403SOL     OW63982   2.082   4.976   8.725
87403SOL    HW163983   2.103   5.060   8.684
87403SOL    HW263984   2.021   4.934   8.665
87404SOL     OW63985   4.497  10.989   3.388
87404SOL    HW163986   4.469  11.065   3.337
87404SOL    HW263987   4.419  10.963   3.437
87405SOL     OW63988   4.609  12.665   4.712
87405SOL    HW163989   4.659  12.585   4.725
87405SOL    HW263990   4.549  12.667   4.787
87406SOL     OW63991  12.660   0.570   4.056
87406SOL    HW163992  12.670   0.548   4.149
87406SOL    HW263993  12.642   0.486   4.013
87407SOL     OW63994   0.594  11.369   0.394
87407SOL    HW163995   0.552  11.414   0.468
87407SOL    HW263996   0.542  11.289   0.383
87408SOL     OW63997  11.566   0.404   9.343
87408SOL    HW163998  11.595   0.486   9.383
87408SOL    HW263999  11.597   0.408   9.253
87409SOL     OW64000  11.697  12.862   5.917
87409SOL    HW164001  11.690  12.769   5.894
87409SOL    HW264002  11.622  12.903   5.873
87410SOL     OW64003  10.724   9.725  12.839
87410SOL    HW164004  10.783   9.767  12.902
87410SOL    HW264005  10.741   9.771  12.756
87411SOL     OW64006   6.377   6.465   1.310
87411SOL    HW164007   6.443   6.481   1.378
87411SOL    HW264008   6.310   6.531   1.326
87412SOL     OW64009   0.161   8.637   7.111
87412SOL    HW164010   0.151   8.708   7.174
87412SOL    HW264011   0.133   8.674   7.027
87413SOL     OW64012   2.344   6.858   9.927
87413SOL    HW164013   2.273   6.912   9.893
87413SOL    HW264014   2.333   6.860  10.022
87414SOL     OW64015   2.326   9.176  10.948
87414SOL    HW164016   2.319   9.220  10.864
87414SOL    HW264017   2.417   9.147  10.952
87415SOL     OW64018  12.909   8.444   3.067
87415SOL    HW164019  12.953   8.376   3.118
87415SOL    HW264020  12.840   8.398   3.019
87416SOL     OW64021  11.015   4.837   7.280
87416SOL    HW164022  11.049   4.890   7.352
87416SOL    HW264023  10.923   4.862   7.273
87417SOL     OW64024   4.448   0.435   3.500
87417SOL    HW164025   4.452   0.412   3.407
87417SOL    HW264026   4.430   0.528   3.501
87418SOL     OW64027   5.717   3.334  11.441
87418SOL    HW164028   5.699   3.426  11.422
87418SOL    HW264029   5.783   3.337  11.510
87419SOL     OW64030   9.741  11.371  13.227
87419SOL    HW164031   9.678  11.303  13.200
87419SOL    HW264032   9.772  11.342  13.313
87420SOL     OW64033   2.993   5.881   4.305
87420SOL    HW164034   3.020   5.918   4.221
87420SOL    HW264035   2.923   5.820   4.283
87421SOL     OW64036   3.989   9.038   5.527
87421SOL    HW164037   3.929   9.111   5.537
87421SOL    HW264038   3.952   8.985   5.456
87422SOL     OW64039   9.471  11.944  13.350
87422SOL    HW164040   9.523  12.024  13.341
87422SOL    HW264041   9.381  11.970  13.331
87423SOL     OW64042   9.716   3.473  14.521
87423SOL    HW164043   9.731   3.546  14.461
87423SOL    HW264044   9.637   3.498  14.569
87424SOL     OW64045  11.323  14.641   4.245
87424SOL    HW164046  11.278  14.559   4.264
87424SOL    HW264047  11.382  14.619   4.173
87425SOL     OW64048   0.367   7.962   3.371
87425SOL    HW164049   0.360   7.980   3.465
87425SOL    HW264050   0.286   7.915   3.350
87426SOL     OW64051  13.591   7.866  13.766
87426SOL    HW164052  13.587   7.915  13.848
87426SOL    HW264053  13.555   7.925  13.700
87427SOL     OW64054   9.593   2.909   5.675
87427SOL    HW164055   9.527   2.848   5.641
87427SOL    HW264056   9.660   2.852   5.712
87428SOL     OW64057   6.668   8.103   9.034
87428SOL    HW164058   6.604   8.035   9.013
87428SOL    HW264059   6.730   8.100   8.961
87429SOL     OW64060   9.245   2.702   6.284
87429SOL    HW164061   9.208   2.667   6.203
87429SOL    HW264062   9.192   2.664   6.354
87430SOL     OW64063  10.163   5.203  11.156
87430SOL    HW164064  10.109   5.140  11.204
87430SOL    HW264065  10.234   5.225  11.217
87431SOL     OW64066  13.393   0.844  13.726
87431SOL    HW164067  13.484   0.850  13.755
87431SOL    HW264068  13.387   0.759  13.682
87432SOL     OW64069  12.160   5.050   8.016
87432SOL    HW164070  12.079   5.098   8.032
87432SOL    HW264071  12.218   5.074   8.088
87433SOL     OW64072   4.525   9.922   5.746
87433SOL    HW164073   4.436   9.939   5.717
87433SOL    HW264074   4.578   9.930   5.667
87434SOL     OW64075   4.259   0.167  11.827
87434SOL    HW164076   4.175   0.127  11.850
87434SOL    HW264077   4.238   0.259  11.810
87435SOL     OW64078   9.661   6.903   7.093
87435SOL    HW164079   9.586   6.935   7.043
87435SOL    HW264080   9.736   6.945   7.052
87436SOL     OW64081   6.434   9.432   3.187
87436SOL    HW164082   6.369   9.500   3.200
87436SOL    HW264083   6.389   9.351   3.209
87437SOL     OW64084  14.309  10.060   9.374
87437SOL    HW164085  14.262  10.086   9.454
87437SOL    HW264086  14.299  10.135   9.316
87438SOL     OW64087   6.007   7.211   3.182
87438SOL    HW164088   5.914   7.209   3.204
87438SOL    HW264089   6.044   7.281   3.235
87439SOL     OW64090   7.350   3.502   7.892
87439SOL    HW164091   7.358   3.553   7.972
87439SOL    HW264092   7.284   3.549   7.841
87440SOL     OW64093   3.005  11.975   3.671
87440SOL    HW164094   3.035  12.065   3.657
87440SOL    HW264095   2.995  11.967   3.766
87441SOL     OW64096   8.047   5.649   1.929
87441SOL    HW164097   8.099   5.583   1.974
87441SOL    HW264098   8.047   5.724   1.988
87442SOL     OW64099   5.709  14.774  11.812
87442SOL    HW164100   5.687  14.799  11.723
87442SOL    HW264101   5.743  14.854  11.852
87443SOL     OW64102   5.218  12.643  14.301
87443SOL    HW164103   5.126  12.661  14.283
87443SOL    HW264104   5.238  12.566  14.247
87444SOL     OW64105  13.265  10.880   3.249
87444SOL    HW164106  13.322  10.897   3.325
87444SOL    HW264107  13.257  10.785   3.246
87445SOL     OW64108   4.516  13.431  14.469
87445SOL    HW164109   4.597  13.403  14.513
87445SOL    HW264110   4.508  13.373  14.394
87446SOL     OW64111   7.150  14.533  11.809
87446SOL    HW164112   7.131  14.446  11.774
87446SOL    HW264113   7.246  14.539  11.808
87447SOL     OW64114  14.169   4.727   7.889
87447SOL    HW164115  14.257   4.764   7.876
87447SOL    HW264116  14.146   4.751   7.978
87448SOL     OW64117   1.839   0.553  13.010
87448SOL    HW164118   1.926   0.572  13.045
87448SOL    HW264119   1.789   0.633  13.026
87449SOL     OW64120   8.801  13.132  14.148
87449SOL    HW164121   8.768  13.201  14.205
87449SOL    HW264122   8.737  13.061  14.157
87450SOL     OW64123   5.867  11.765   7.349
87450SOL    HW164124   5.946  11.814   7.374
87450SOL    HW264125   5.800  11.833   7.338
87451SOL     OW64126   0.457   8.558   5.829
87451SOL    HW164127   0.426   8.626   5.769
87451SOL    HW264128   0.549   8.579   5.845
87452SOL     OW64129  10.257   0.998   4.590
87452SOL    HW164130  10.342   0.972   4.553
87452SOL    HW264131  10.211   1.040   4.518
87453SOL     OW64132  13.267  13.559  10.049
87453SOL    HW164133  13.329  13.547   9.977
87453SOL    HW264134  13.307  13.628  10.103
87454SOL     OW64135  12.104   3.101   9.914
87454SOL    HW164136  12.112   3.128   9.823
87454SOL    HW264137  12.012   3.117   9.936
87455SOL     OW64138  10.989  13.003   2.370
87455SOL    HW164139  11.067  13.037   2.327
87455SOL    HW264140  10.998  13.031   2.461
87456SOL     OW64141   9.043  14.822  13.577
87456SOL    HW164142   9.134  14.848  13.567
87456SOL    HW264143   9.047  14.726  13.584
87457SOL     OW64144   1.104   4.492  13.574
87457SOL    HW164145   1.178   4.431  13.573
87457SOL    HW264146   1.046   4.457  13.642
87458SOL     OW64147   2.065   0.695   1.361
87458SOL    HW164148   2.155   0.725   1.352
87458SOL    HW264149   2.051   0.639   1.285
87459SOL     OW64150   0.806   1.748   7.879
87459SOL    HW164151   0.786   1.771   7.970
87459SOL    HW264152   0.818   1.653   7.881
87460SOL     OW64153  12.469   9.223   4.172
87460SOL    HW164154  12.548   9.181   4.138
87460SOL    HW264155  12.492   9.247   4.262
87461SOL     OW64156   2.948   1.209   4.590
87461SOL    HW164157   2.977   1.181   4.503
87461SOL    HW264158   2.978   1.299   4.598
87462SOL     OW64159  11.748  13.164   8.104
87462SOL    HW164160  11.751  13.259   8.100
87462SOL    HW264161  11.659  13.144   8.134
87463SOL     OW64162   7.940   5.731  11.353
87463SOL    HW164163   7.993   5.763  11.280
87463SOL    HW264164   7.850   5.739  11.322
87464SOL     OW64165  13.593   6.943  14.379
87464SOL    HW164166  13.499   6.931  14.366
87464SOL    HW264167  13.616   6.880  14.448
87465SOL     OW64168   7.961   0.672   9.865
87465SOL    HW164169   7.904   0.621   9.923
87465SOL    HW264170   8.047   0.633   9.878
87466SOL     OW64171   5.410   9.198   5.974
87466SOL    HW164172   5.503   9.185   5.953
87466SOL    HW264173   5.380   9.112   6.003
87467SOL     OW64174   5.883  13.124   4.617
87467SOL    HW164175   5.918  13.188   4.679
87467SOL    HW264176   5.844  13.056   4.672
87468SOL     OW64177   3.636  11.039   3.931
87468SOL    HW164178   3.696  10.965   3.937
87468SOL    HW264179   3.562  11.015   3.987
87469SOL     OW64180   7.433   5.453   5.993
87469SOL    HW164181   7.443   5.423   6.084
87469SOL    HW264182   7.347   5.422   5.967
87470SOL     OW64183   1.106  12.864  10.084
87470SOL    HW164184   1.146  12.951  10.087
87470SOL    HW264185   1.164  12.810  10.136
87471SOL     OW64186   1.508   3.922   2.412
87471SOL    HW164187   1.486   3.834   2.442
87471SOL    HW264188   1.467   3.930   2.326
87472SOL     OW64189   6.121  13.155  10.570
87472SOL    HW164190   6.043  13.109  10.600
87472SOL    HW264191   6.103  13.248  10.586
87473SOL     OW64192  11.924   9.069   1.559
87473SOL    HW164193  12.004   9.050   1.510
87473SOL    HW264194  11.873   8.988   1.554
87474SOL     OW64195   6.810   9.160   0.035
87474SOL    HW164196   6.769   9.084   0.075
87474SOL    HW264197   6.764   9.171  14.833
87475SOL     OW64198   5.167  13.009  10.495
87475SOL    HW164199   5.165  13.035  10.403
87475SOL    HW264200   5.134  13.085  10.542
87476SOL     OW64201   2.349  13.692  13.076
87476SOL    HW164202   2.440  13.663  13.078
87476SOL    HW264203   2.311  13.645  13.002
87477SOL     OW64204  12.757  14.092   6.974
87477SOL    HW164205  12.757  14.148   6.897
87477SOL    HW264206  12.729  14.149   7.046
87478SOL     OW64207  10.286   4.268   5.854
87478SOL    HW164208  10.338   4.319   5.916
87478SOL    HW264209  10.346   4.250   5.782
87479SOL     OW64210  13.356   7.458   9.380
87479SOL    HW164211  13.336   7.510   9.302
87479SOL    HW264212  13.425   7.507   9.424
87480SOL     OW64213   3.526   9.781   5.610
87480SOL    HW164214   3.527   9.687   5.594
87480SOL    HW264215   3.618   9.805   5.617
87481SOL     OW64216  13.648   7.181   4.047
87481SOL    HW164217  13.720   7.213   4.101
87481SOL    HW264218  13.633   7.251   3.983
87482SOL     OW64219  10.417  14.725   0.626
87482SOL    HW164220  10.404  14.736   0.721
87482SOL    HW264221  10.345  14.773   0.586
87483SOL     OW64222   6.267   3.422  11.011
87483SOL    HW164223   6.199   3.394  11.073
87483SOL    HW264224   6.232   3.501  10.970
87484SOL     OW64225   6.787   4.010   5.950
87484SOL    HW164226   6.856   4.042   6.009
87484SOL    HW264227   6.784   3.916   5.967
87485SOL     OW64228   5.779   1.969  13.820
87485SOL    HW164229   5.690   1.978  13.853
87485SOL    HW264230   5.832   1.951  13.898
87486SOL     OW64231   9.601   3.426   6.916
87486SOL    HW164232   9.594   3.441   7.010
87486SOL    HW264233   9.605   3.330   6.907
87487SOL     OW64234   9.660  12.890  13.437
87487SOL    HW164235   9.663  12.824  13.369
87487SOL    HW264236   9.605  12.851  13.506
87488SOL     OW64237   8.315   0.755  12.374
87488SOL    HW164238   8.280   0.677  12.330
87488SOL    HW264239   8.302   0.825  12.310
87489SOL     OW64240   9.685  14.758   1.331
87489SOL    HW164241   9.643  14.719   1.408
87489SOL    HW264242   9.698  14.850   1.354
87490SOL     OW64243   6.828   0.376   1.696
87490SOL    HW164244   6.815   0.463   1.658
87490SOL    HW264245   6.847   0.320   1.621
87491SOL     OW64246   4.536   9.411   1.193
87491SOL    HW164247   4.543   9.449   1.106
87491SOL    HW264248   4.524   9.486   1.251
87492SOL     OW64249   3.659  12.676  14.483
87492SOL    HW164250   3.731  12.708  14.428
87492SOL    HW264251   3.580  12.712  14.442
87493SOL     OW64252  14.405   6.491   5.865
87493SOL    HW164253  14.489   6.446   5.876
87493SOL    HW264254  14.419   6.552   5.793
87494SOL     OW64255   3.115   6.280  12.868
87494SOL    HW164256   3.098   6.363  12.822
87494SOL    HW264257   3.028   6.243  12.883
87495SOL     OW64258   5.101  11.074  10.127
87495SOL    HW164259   5.168  11.101  10.190
87495SOL    HW264260   5.018  11.088  10.173
87496SOL     OW64261   8.176  12.024  14.767
87496SOL    HW164262   8.229  12.084  14.714
87496SOL    HW264263   8.096  12.073  14.787
87497SOL     OW64264   7.085   8.202   7.796
87497SOL    HW164265   7.136   8.139   7.847
87497SOL    HW264266   7.132   8.285   7.806
87498SOL     OW64267   2.951  10.706   2.623
87498SOL    HW164268   2.955  10.617   2.660
87498SOL    HW264269   2.858  10.729   2.627
87499SOL     OW64270   9.848   2.166   1.794
87499SOL    HW164271   9.764   2.212   1.791
87499SOL    HW264272   9.870   2.163   1.887
87500SOL     OW64273  10.414   7.749   1.384
87500SOL    HW164274  10.403   7.789   1.470
87500SOL    HW264275  10.480   7.803   1.341
87501SOL     OW64276   2.379   0.943  10.194
87501SOL    HW164277   2.402   0.868  10.139
87501SOL    HW264278   2.287   0.929  10.216
87502SOL     OW64279   0.314   7.104  11.338
87502SOL    HW164280   0.226   7.140  11.334
87502SOL    HW264281   0.302   7.013  11.365
87503SOL     OW64282   6.990   5.325   5.744
87503SOL    HW164283   6.918   5.276   5.704
87503SOL    HW264284   7.033   5.368   5.671
87504SOL     OW64285  12.077   6.159  13.737
87504SOL    HW164286  12.056   6.075  13.697
87504SOL    HW264287  12.032   6.223  13.682
87505SOL     OW64288   2.038  13.842   0.846
87505SOL    HW164289   2.117  13.821   0.795
87505SOL    HW264290   2.025  13.766   0.903
87506SOL     OW64291   0.076  12.519   2.550
87506SOL    HW164292   0.134  12.447   2.523
87506SOL    HW264293   0.106  12.594   2.499
87507SOL     OW64294  11.058  14.374  14.222
87507SOL    HW164295  11.153  14.363  14.234
87507SOL    HW264296  11.036  14.451  14.274
87508SOL     OW64297   9.321  14.767  11.717
87508SOL    HW164298   9.367  14.833  11.664
87508SOL    HW264299   9.246  14.814  11.753
87509SOL     OW64300   3.741  13.875   8.383
87509SOL    HW164301   3.732  13.952   8.439
87509SOL    HW264302   3.674  13.814   8.414
87510SOL     OW64303   9.164   6.617   4.681
87510SOL    HW164304   9.164   6.534   4.634
87510SOL    HW264305   9.071   6.640   4.690
87511SOL     OW64306   1.675   3.000  12.006
87511SOL    HW164307   1.681   2.986  11.912
87511SOL    HW264308   1.616   3.075  12.015
87512SOL     OW64309   8.117  12.414  13.578
87512SOL    HW164310   8.121  12.360  13.500
87512SOL    HW264311   8.113  12.504  13.546
87513SOL     OW64312   9.810   8.519   9.051
87513SOL    HW164313   9.868   8.444   9.039
87513SOL    HW264314   9.826   8.575   8.976
87514SOL     OW64315  10.959   6.941   6.721
87514SOL    HW164316  10.964   7.018   6.665
87514SOL    HW264317  10.866   6.919   6.724
87515SOL     OW64318  11.832  13.221  11.758
87515SOL    HW164319  11.811  13.292  11.698
87515SOL    HW264320  11.816  13.257  11.845
87516SOL     OW64321  11.496   5.788   7.305
87516SOL    HW164322  11.493   5.743   7.221
87516SOL    HW264323  11.423   5.851   7.302
87517SOL     OW64324  14.149  14.521   6.453
87517SOL    HW164325  14.125  14.613   6.460
87517SOL    HW264326  14.117  14.494   6.367
87518SOL     OW64327  10.096   1.351  11.048
87518SOL    HW164328  10.080   1.408  11.123
87518SOL    HW264329  10.175   1.302  11.072
87519SOL     OW64330   0.860   6.054  13.509
87519SOL    HW164331   0.897   6.093  13.588
87519SOL    HW264332   0.784   6.109  13.489
87520SOL     OW64333   4.406   6.228   1.757
87520SOL    HW164334   4.430   6.172   1.683
87520SOL    HW264335   4.334   6.282   1.724
87521SOL     OW64336   9.847  12.135   2.020
87521SOL    HW164337   9.762  12.104   2.051
87521SOL    HW264338   9.887  12.059   1.979
87522SOL     OW64339   1.686  13.297   2.721
87522SOL    HW164340   1.753  13.355   2.757
87522SOL    HW264341   1.603  13.343   2.735
87523SOL     OW64342  12.869   2.521   1.321
87523SOL    HW164343  12.793   2.524   1.379
87523SOL    HW264344  12.864   2.602   1.271
87524SOL     OW64345   6.181  13.450   8.181
87524SOL    HW164346   6.191  13.460   8.276
87524SOL    HW264347   6.271  13.453   8.147
87525SOL     OW64348  10.618   9.542   1.785
87525SOL    HW164349  10.597   9.604   1.715
87525SOL    HW264350  10.698   9.576   1.825
87526SOL     OW64351   4.421   1.685   0.776
87526SOL    HW164352   4.332   1.650   0.769
87526SOL    HW264353   4.466   1.623   0.833
87527SOL     OW64354   9.507  12.794   4.448
87527SOL    HW164355   9.425  12.745   4.450
87527SOL    HW264356   9.544  12.775   4.362
87528SOL     OW64357   4.230   9.487   5.644
87528SOL    HW164358   4.190   9.568   5.611
87528SOL    HW264359   4.307   9.517   5.693
87529SOL     OW64360   7.596   4.618   1.254
87529SOL    HW164361   7.580   4.526   1.273
87529SOL    HW264362   7.515   4.649   1.213
87530SOL     OW64363   8.598  14.784   2.862
87530SOL    HW164364   8.535  14.715   2.840
87530SOL    HW264365   8.678  14.760   2.815
87531SOL     OW64366   6.368   6.218   9.315
87531SOL    HW164367   6.394   6.297   9.362
87531SOL    HW264368   6.428   6.213   9.241
87532SOL     OW64369   0.027   0.435   9.693
87532SOL    HW164370   0.049   0.435   9.786
87532SOL    HW264371  14.858   0.515   9.680
87533SOL     OW64372   2.244   3.499  13.141
87533SOL    HW164373   2.167   3.534  13.186
87533SOL    HW264374   2.317   3.517  13.200
87534SOL     OW64375   4.793  10.418   8.817
87534SOL    HW164376   4.863  10.472   8.781
87534SOL    HW264377   4.799  10.432   8.912
87535SOL     OW64378   3.969  14.223  10.634
87535SOL    HW164379   3.925  14.253  10.714
87535SOL    HW264380   3.899  14.207  10.572
87536SOL     OW64381  11.722  11.202   9.922
87536SOL    HW164382  11.649  11.151   9.886
87536SOL    HW264383  11.800  11.165   9.880
87537SOL     OW64384  10.717   1.563  14.237
87537SOL    HW164385  10.715   1.656  14.260
87537SOL    HW264386  10.759   1.561  14.151
87538SOL     OW64387  13.943   5.410   8.756
87538SOL    HW164388  13.886   5.333   8.755
87538SOL    HW264389  13.884   5.483   8.734
87539SOL     OW64390   0.509   2.465   2.991
87539SOL    HW164391   0.565   2.497   3.062
87539SOL    HW264392   0.481   2.545   2.945
87540SOL     OW64393  14.104  14.608  11.213
87540SOL    HW164394  14.154  14.682  11.180
87540SOL    HW264395  14.163  14.533  11.204
87541SOL     OW64396   8.026   3.862   7.278
87541SOL    HW164397   8.000   3.892   7.191
87541SOL    HW264398   7.949   3.816   7.312
87542SOL     OW64399   2.265   3.520   4.757
87542SOL    HW164400   2.185   3.564   4.729
87542SOL    HW264401   2.303   3.579   4.822
87543SOL     OW64402  14.362   7.296   9.582
87543SOL    HW164403  14.446   7.269   9.618
87543SOL    HW264404  14.384   7.364   9.518
87544SOL     OW64405  10.194   9.493  14.031
87544SOL    HW164406  10.223   9.567  13.978
87544SOL    HW264407  10.170   9.426  13.967
87545SOL     OW64408  14.097  13.094   2.495
87545SOL    HW164409  14.087  13.068   2.403
87545SOL    HW264410  14.134  13.183   2.491
87546SOL     OW64411   5.491   9.474   9.169
87546SOL    HW164412   5.544   9.437   9.239
87546SOL    HW264413   5.403   9.441   9.186
87547SOL     OW64414   8.028  13.807  14.310
87547SOL    HW164415   7.955  13.837  14.364
87547SOL    HW264416   8.080  13.753  14.369
87548SOL     OW64417   4.996   2.522   2.478
87548SOL    HW164418   5.046   2.489   2.403
87548SOL    HW264419   4.988   2.447   2.536
87549SOL     OW64420   8.125   9.697   9.934
87549SOL    HW164421   8.060   9.727   9.998
87549SOL    HW264422   8.105   9.604   9.921
87550SOL     OW64423   4.733  12.048  14.046
87550SOL    HW164424   4.798  12.011  14.105
87550SOL    HW264425   4.782  12.114  13.996
87551SOL     OW64426   5.929   8.344  12.362
87551SOL    HW164427   5.840   8.331  12.328
87551SOL    HW264428   5.916   8.381  12.449
87552SOL     OW64429  11.535   1.142  11.928
87552SOL    HW164430  11.455   1.185  11.959
87552SOL    HW264431  11.544   1.171  11.837
87553SOL     OW64432   6.233  11.023   2.120
87553SOL    HW164433   6.188  10.940   2.136
87553SOL    HW264434   6.175  11.090   2.158
87554SOL     OW64435  12.954   6.707   3.418
87554SOL    HW164436  12.986   6.620   3.394
87554SOL    HW264437  13.019   6.767   3.382
87555SOL     OW64438   3.742   9.423  14.807
87555SOL    HW164439   3.836   9.410  14.815
87555SOL    HW264440   3.714   9.357  14.744
87556SOL     OW64441  12.358   7.551  12.930
87556SOL    HW164442  12.361   7.500  12.849
87556SOL    HW264443  12.431   7.614  12.921
87557SOL     OW64444  13.732   3.170   8.215
87557SOL    HW164445  13.707   3.240   8.155
87557SOL    HW264446  13.813   3.135   8.178
87558SOL     OW64447   0.247   6.466   4.280
87558SOL    HW164448   0.254   6.460   4.184
87558SOL    HW264449   0.299   6.543   4.302
87559SOL     OW64450   1.119   5.317   6.697
87559SOL    HW164451   1.061   5.379   6.652
87559SOL    HW264452   1.164   5.270   6.627
87560SOL     OW64453   0.304   8.786  10.918
87560SOL    HW164454   0.260   8.735  10.850
87560SOL    HW264455   0.324   8.721  10.986
87561SOL     OW64456  13.589   2.676  13.950
87561SOL    HW164457  13.539   2.611  13.999
87561SOL    HW264458  13.580   2.649  13.859
87562SOL     OW64459  12.886   1.629   2.826
87562SOL    HW164460  12.872   1.724   2.833
87562SOL    HW264461  12.798   1.593   2.814
87563SOL     OW64462   7.463  13.662   3.700
87563SOL    HW164463   7.488  13.725   3.768
87563SOL    HW264464   7.384  13.621   3.733
87564SOL     OW64465   3.078   4.795  12.433
87564SOL    HW164466   3.099   4.782  12.525
87564SOL    HW264467   3.106   4.884  12.413
87565SOL     OW64468  13.110   6.998  10.817
87565SOL    HW164469  13.200   7.030  10.824
87565SOL    HW264470  13.118   6.902  10.818
87566SOL     OW64471  11.043   1.362  11.467
87566SOL    HW164472  11.129   1.401  11.453
87566SOL    HW264473  11.027   1.309  11.389
87567SOL     OW64474   5.585   6.774  14.083
87567SOL    HW164475   5.619   6.821  14.159
87567SOL    HW264476   5.631   6.812  14.008
87568SOL     OW64477  11.408   4.266   5.479
87568SOL    HW164478  11.411   4.228   5.567
87568SOL    HW264479  11.349   4.341   5.488
87569SOL     OW64480   3.597   4.471  11.854
87569SOL    HW164481   3.636   4.557  11.837
87569SOL    HW264482   3.544   4.453  11.776
87570SOL     OW64483  14.347  11.860  12.973
87570SOL    HW164484  14.439  11.882  12.956
87570SOL    HW264485  14.323  11.799  12.904
87571SOL     OW64486   3.728   5.034   3.495
87571SOL    HW164487   3.814   5.002   3.466
87571SOL    HW264488   3.670   5.018   3.421
87572SOL     OW64489   3.144   0.450   3.305
87572SOL    HW164490   3.129   0.397   3.383
87572SOL    HW264491   3.199   0.522   3.334
87573SOL     OW64492   0.454   8.518  13.688
87573SOL    HW164493   0.500   8.572  13.752
87573SOL    HW264494   0.440   8.577  13.613
87574SOL     OW64495   3.089   9.737   7.001
87574SOL    HW164496   3.069   9.813   6.945
87574SOL    HW264497   3.171   9.759   7.044
87575SOL     OW64498  11.841   5.319  14.030
87575SOL    HW164499  11.802   5.348  13.947
87575SOL    HW264500  11.766   5.307  14.089
87576SOL     OW64501   2.072  12.606  12.602
87576SOL    HW164502   2.142  12.548  12.632
87576SOL    HW264503   2.089  12.616  12.508
87577SOL     OW64504   9.644  12.678  10.039
87577SOL    HW164505   9.657  12.644  10.128
87577SOL    HW264506   9.599  12.762  10.052
87578SOL     OW64507   5.953  12.585  12.106
87578SOL    HW164508   5.981  12.624  12.023
87578SOL    HW264509   5.995  12.639  12.173
87579SOL     OW64510   1.831  13.566   4.855
87579SOL    HW164511   1.869  13.516   4.783
87579SOL    HW264512   1.771  13.628   4.812
87580SOL     OW64513  12.195   8.132  13.041
87580SOL    HW164514  12.219   8.188  12.967
87580SOL    HW264515  12.189   8.044  13.004
87581SOL     OW64516   4.141   8.153  14.435
87581SOL    HW164517   4.132   8.115  14.523
87581SOL    HW264518   4.096   8.237  14.441
87582SOL     OW64519   2.218   3.164   9.988
87582SOL    HW164520   2.280   3.097  10.018
87582SOL    HW264521   2.273   3.231   9.948
87583SOL     OW64522   7.355   2.611   7.073
87583SOL    HW164523   7.337   2.517   7.072
87583SOL    HW264524   7.354   2.634   7.166
87584SOL     OW64525  13.050   7.154   0.791
87584SOL    HW164526  13.018   7.093   0.857
87584SOL    HW264527  13.021   7.118   0.708
87585SOL     OW64528   3.006  10.203   0.214
87585SOL    HW164529   3.058  10.199   0.294
87585SOL    HW264530   3.027  10.122   0.168
87586SOL     OW64531   9.374  11.955  10.881
87586SOL    HW164532   9.427  11.877  10.899
87586SOL    HW264533   9.397  12.016  10.951
87587SOL     OW64534  10.191   2.419   7.217
87587SOL    HW164535  10.127   2.401   7.149
87587SOL    HW264536  10.259   2.470   7.173
87588SOL     OW64537   4.508   0.532   7.151
87588SOL    HW164538   4.547   0.505   7.233
87588SOL    HW264539   4.458   0.456   7.121
87589SOL     OW64540   9.141   6.342   8.076
87589SOL    HW164541   9.134   6.250   8.050
87589SOL    HW264542   9.230   6.367   8.050
87590SOL     OW64543  13.973   2.782   3.275
87590SOL    HW164544  13.972   2.688   3.259
87590SOL    HW264545  13.897   2.798   3.330
87591SOL     OW64546   4.717   7.625  12.168
87591SOL    HW164547   4.810   7.611  12.150
87591SOL    HW264548   4.704   7.595  12.258
87592SOL     OW64549   0.630   6.237  13.501
87592SOL    HW164550   0.567   6.308  13.512
87592SOL    HW264551   0.620   6.183  13.579
87593SOL     OW64552   0.924  13.240   4.942
87593SOL    HW164553   0.870  13.195   4.877
87593SOL    HW264554   0.865  13.255   5.016
87594SOL     OW64555   0.554  14.817   9.741
87594SOL    HW164556   0.623  14.822   9.674
87594SOL    HW264557   0.517   0.024   9.743
87595SOL     OW64558   4.580   5.322   5.696
87595SOL    HW164559   4.590   5.352   5.605
87595SOL    HW264560   4.485   5.322   5.710
87596SOL     OW64561   5.586  10.818  10.004
87596SOL    HW164562   5.642  10.894   9.985
87596SOL    HW264563   5.631  10.773  10.075
87597SOL     OW64564  13.278   1.083   3.505
87597SOL    HW164565  13.222   1.141   3.556
87597SOL    HW264566  13.224   1.055   3.431
87598SOL     OW64567  10.812   2.079   1.668
87598SOL    HW164568  10.795   2.088   1.762
87598SOL    HW264569  10.747   2.015   1.638
87599SOL     OW64570   8.702   2.496   2.509
87599SOL    HW164571   8.687   2.408   2.545
87599SOL    HW264572   8.616   2.538   2.513
87600SOL     OW64573   1.077  10.785  12.864
87600SOL    HW164574   1.145  10.832  12.815
87600SOL    HW264575   1.099  10.693  12.852
87601SOL     OW64576   1.174   7.118   6.091
87601SOL    HW164577   1.217   7.203   6.089
87601SOL    HW264578   1.243   7.056   6.066
87602SOL     OW64579  12.006  10.492   7.335
87602SOL    HW164580  12.016  10.480   7.429
87602SOL    HW264581  11.996  10.587   7.323
87603SOL     OW64582  13.708  12.846   7.713
87603SOL    HW164583  13.652  12.894   7.653
87603SOL    HW264584  13.797  12.866   7.685
87604SOL     OW64585   7.081   1.706   7.142
87604SOL    HW164586   7.141   1.696   7.215
87604SOL    HW264587   7.101   1.633   7.084
87605SOL     OW64588   0.535   8.630   1.926
87605SOL    HW164589   0.461   8.652   1.983
87605SOL    HW264590   0.496   8.613   1.841
87606SOL     OW64591   4.096   1.398   1.578
87606SOL    HW164592   4.189   1.392   1.556
87606SOL    HW264593   4.052   1.406   1.494
87607SOL     OW64594  11.883   1.393   3.962
87607SOL    HW164595  11.921   1.397   4.050
87607SOL    HW264596  11.894   1.302   3.935
87608SOL     OW64597   9.466  10.594   4.722
87608SOL    HW164598   9.447  10.606   4.628
87608SOL    HW264599   9.557  10.622   4.732
87609SOL     OW64600  11.970  12.451  14.015
87609SOL    HW164601  12.005  12.441  13.926
87609SOL    HW264602  11.987  12.367  14.057
87610SOL     OW64603   3.500  13.647   4.228
87610SOL    HW164604   3.516  13.676   4.138
87610SOL    HW264605   3.551  13.707   4.282
87611SOL     OW64606   3.024   5.730  14.494
87611SOL    HW164607   3.016   5.647  14.542
87611SOL    HW264608   2.952   5.784  14.527
87612SOL     OW64609  14.837  12.078   9.332
87612SOL    HW164610  14.861  12.122   9.413
87612SOL    HW264611  14.867  11.988   9.343
87613SOL     OW64612  11.916  14.311  14.608
87613SOL    HW164613  11.840  14.270  14.567
87613SOL    HW264614  11.954  14.243  14.663
87614SOL     OW64615   6.149   6.007   5.187
87614SOL    HW164616   6.097   6.029   5.265
87614SOL    HW264617   6.191   5.924   5.209
87615SOL     OW64618   1.400   2.888   1.505
87615SOL    HW164619   1.468   2.821   1.495
87615SOL    HW264620   1.447   2.965   1.536
87616SOL     OW64621  13.656  10.856  10.227
87616SOL    HW164622  13.745  10.884  10.246
87616SOL    HW264623  13.613  10.851  10.312
87617SOL     OW64624   2.150  12.498   9.207
87617SOL    HW164625   2.185  12.409   9.201
87617SOL    HW264626   2.055  12.487   9.204
87618SOL     OW64627  12.483   0.120  14.582
87618SOL    HW164628  12.390   0.100  14.586
87618SOL    HW264629  12.526   0.035  14.573
87619SOL     OW64630   4.224   2.102   4.153
87619SOL    HW164631   4.147   2.046   4.150
87619SOL    HW264632   4.294   2.050   4.113
87620SOL     OW64633   1.720  10.046   7.064
87620SOL    HW164634   1.788  10.072   7.126
87620SOL    HW264635   1.643  10.029   7.119
87621SOL     OW64636   3.213   4.407  11.620
87621SOL    HW164637   3.179   4.323  11.591
87621SOL    HW264638   3.148   4.439  11.683
87622SOL     OW64639   1.951   4.476   4.143
87622SOL    HW164640   1.985   4.393   4.177
87622SOL    HW264641   1.881   4.450   4.083
87623SOL     OW64642   0.502   8.918   9.755
87623SOL    HW164643   0.422   8.867   9.741
87623SOL    HW264644   0.501   8.984   9.685
87624SOL     OW64645  12.700   0.948  12.449
87624SOL    HW164646  12.734   1.031  12.415
87624SOL    HW264647  12.775   0.906  12.490
87625SOL     OW64648   4.357  11.863   1.135
87625SOL    HW164649   4.383  11.772   1.123
87625SOL    HW264650   4.423  11.913   1.087
87626SOL     OW64651   6.394   7.494  12.977
87626SOL    HW164652   6.456   7.442  12.925
87626SOL    HW264653   6.326   7.432  13.004
87627SOL     OW64654  13.259   9.014  11.382
87627SOL    HW164655  13.201   9.015  11.306
87627SOL    HW264656  13.297   9.102  11.384
87628SOL     OW64657   9.989   6.178   9.396
87628SOL    HW164658  10.040   6.234   9.455
87628SOL    HW264659   9.988   6.092   9.439
87629SOL     OW64660   1.532   2.996   7.439
87629SOL    HW164661   1.477   2.918   7.437
87629SOL    HW264662   1.573   2.994   7.526
87630SOL     OW64663   9.814   1.714  10.743
87630SOL    HW164664   9.794   1.630  10.784
87630SOL    HW264665   9.789   1.703  10.652
87631SOL     OW64666  14.229  11.351  10.892
87631SOL    HW164667  14.196  11.436  10.862
87631SOL    HW264668  14.324  11.361  10.892
87632SOL     OW64669   7.868  10.403   1.076
87632SOL    HW164670   7.932  10.331   1.073
87632SOL    HW264671   7.833  10.401   1.165
87633SOL     OW64672  11.294   5.078   8.019
87633SOL    HW164673  11.216   5.050   8.068
87633SOL    HW264674  11.367   5.056   8.078
87634SOL     OW64675   6.375   0.566  13.966
87634SOL    HW164676   6.392   0.606  14.051
87634SOL    HW264677   6.315   0.494  13.985
87635SOL     OW64678   3.758   2.237  13.305
87635SOL    HW164679   3.752   2.330  13.326
87635SOL    HW264680   3.840   2.208  13.346
87636SOL     OW64681   3.238   4.034   9.279
87636SOL    HW164682   3.177   3.962   9.264
87636SOL    HW264683   3.190   4.113   9.254
87637SOL     OW64684   4.248   6.922   4.393
87637SOL    HW164685   4.306   6.866   4.341
87637SOL    HW264686   4.189   6.862   4.437
87638SOL     OW64687  11.710   4.886   4.104
87638SOL    HW164688  11.643   4.902   4.171
87638SOL    HW264689  11.667   4.827   4.042
87639SOL     OW64690   6.433   7.762   7.354
87639SOL    HW164691   6.409   7.676   7.320
87639SOL    HW264692   6.464   7.745   7.442
87640SOL     OW64693   8.856   2.425  13.614
87640SOL    HW164694   8.763   2.450  13.618
87640SOL    HW264695   8.873   2.384  13.699
87641SOL     OW64696   8.595   6.690  11.221
87641SOL    HW164697   8.558   6.602  11.219
87641SOL    HW264698   8.664   6.688  11.154
87642SOL     OW64699  14.246   8.869   5.228
87642SOL    HW164700  14.288   8.932   5.286
87642SOL    HW264701  14.168   8.913   5.196
87643SOL     OW64702  14.187   2.749   9.171
87643SOL    HW164703  14.232   2.692   9.234
87643SOL    HW264704  14.096   2.719   9.172
87644SOL     OW64705   8.322   9.054   6.684
87644SOL    HW164706   8.333   9.124   6.620
87644SOL    HW264707   8.396   8.995   6.670
87645SOL     OW64708   6.160  11.747   0.623
87645SOL    HW164709   6.130  11.838   0.631
87645SOL    HW264710   6.131  11.720   0.536
87646SOL     OW64711  10.575   3.555   5.513
87646SOL    HW164712  10.664   3.590   5.515
87646SOL    HW264713  10.573   3.492   5.585
87647SOL     OW64714   8.980   2.632  12.146
87647SOL    HW164715   9.048   2.594  12.202
87647SOL    HW264716   8.901   2.630  12.200
87648SOL     OW64717   9.066   3.476   4.496
87648SOL    HW164718   9.091   3.411   4.560
87648SOL    HW264719   9.092   3.560   4.534
87649SOL     OW64720   4.011   1.908   4.119
87649SOL    HW164721   4.009   1.969   4.045
87649SOL    HW264722   4.009   1.821   4.079
87650SOL     OW64723  12.579   8.186   3.736
87650SOL    HW164724  12.548   8.216   3.822
87650SOL    HW264725  12.644   8.252   3.710
87651SOL     OW64726  10.347   6.875   4.911
87651SOL    HW164727  10.419   6.825   4.948
87651SOL    HW264728  10.286   6.809   4.876
87652SOL     OW64729   6.278   9.287  14.350
87652SOL    HW164730   6.312   9.311  14.264
87652SOL    HW264731   6.345   9.228  14.386
87653SOL     OW64732   8.118   6.905  13.418
87653SOL    HW164733   8.109   6.930  13.510
87653SOL    HW264734   8.059   6.831  13.407
87654SOL     OW64735  14.681   3.431  13.249
87654SOL    HW164736  14.731   3.369  13.197
87654SOL    HW264737  14.650   3.381  13.325
87655SOL     OW64738  13.033   4.423   6.175
87655SOL    HW164739  13.065   4.417   6.265
87655SOL    HW264740  12.960   4.484   6.180
87656SOL     OW64741   7.504   9.287   3.694
87656SOL    HW164742   7.576   9.246   3.645
87656SOL    HW264743   7.546   9.325   3.771
87657SOL     OW64744  14.191  12.514  12.653
87657SOL    HW164745  14.196  12.606  12.626
87657SOL    HW264746  14.100  12.490  12.640
87658SOL     OW64747   5.937   1.983   5.205
87658SOL    HW164748   5.979   2.007   5.122
87658SOL    HW264749   5.986   2.032   5.271
87659SOL     OW64750  13.268  11.781  14.398
87659SOL    HW164751  13.355  11.820  14.401
87659SOL    HW264752  13.255  11.743  14.485
87660SOL     OW64753   5.620   9.615   7.991
87660SOL    HW164754   5.584   9.560   8.061
87660SOL    HW264755   5.550   9.678   7.972
87661SOL     OW64756   8.225   3.404   5.172
87661SOL    HW164757   8.310   3.420   5.130
87661SOL    HW264758   8.237   3.321   5.218
87662SOL     OW64759  11.153   1.294   6.117
87662SOL    HW164760  11.142   1.198   6.117
87662SOL    HW264761  11.165   1.316   6.209
87663SOL     OW64762  14.151   5.465   2.511
87663SOL    HW164763  14.208   5.446   2.437
87663SOL    HW264764  14.111   5.549   2.489
87664SOL     OW64765  11.532  12.314  11.644
87664SOL    HW164766  11.558  12.239  11.697
87664SOL    HW264767  11.612  12.339  11.597
87665SOL     OW64768   6.736   9.800  11.141
87665SOL    HW164769   6.759   9.714  11.108
87665SOL    HW264770   6.785   9.809  11.223
87666SOL     OW64771   6.803  14.585   1.884
87666SOL    HW164772   6.890  14.555   1.909
87666SOL    HW264773   6.814  14.616   1.794
87667SOL     OW64774   6.520   5.114   0.741
87667SOL    HW164775   6.598   5.061   0.758
87667SOL    HW264776   6.543   5.201   0.773
87668SOL     OW64777   4.218   9.474   1.194
87668SOL    HW164778   4.266   9.425   1.127
87668SOL    HW264779   4.157   9.410   1.231
87669SOL     OW64780   0.150   4.764  11.170
87669SOL    HW164781   0.193   4.807  11.244
87669SOL    HW264782   0.214   4.699  11.140
87670SOL     OW64783   3.082  10.506   9.371
87670SOL    HW164784   3.086  10.468   9.459
87670SOL    HW264785   3.103  10.599   9.384
87671SOL     OW64786  13.198   4.601   8.802
87671SOL    HW164787  13.138   4.556   8.863
87671SOL    HW264788  13.265   4.535   8.784
87672SOL     OW64789  14.761   9.883   9.181
87672SOL    HW164790  14.675   9.920   9.158
87672SOL    HW264791  14.772   9.904   9.274
87673SOL     OW64792  10.604  10.193   1.809
87673SOL    HW164793  10.567  10.260   1.866
87673SOL    HW264794  10.603  10.233   1.722
87674SOL     OW64795  10.434   0.794   8.017
87674SOL    HW164796  10.509   0.739   7.992
87674SOL    HW264797  10.386   0.807   7.935
87675SOL     OW64798   1.144   5.532  11.798
87675SOL    HW164799   1.120   5.613  11.753
87675SOL    HW264800   1.132   5.463  11.732
87676SOL     OW64801   0.669   7.329   6.126
87676SOL    HW164802   0.645   7.421   6.114
87676SOL    HW264803   0.605   7.281   6.073
87677SOL     OW64804   6.479   9.885  11.458
87677SOL    HW164805   6.441   9.858  11.375
87677SOL    HW264806   6.488   9.803  11.508
87678SOL     OW64807   4.544  10.502   2.436
87678SOL    HW164808   4.456  10.509   2.475
87678SOL    HW264809   4.528  10.463   2.350
87679SOL     OW64810   5.244   2.937  13.937
87679SOL    HW164811   5.189   2.915  13.862
87679SOL    HW264812   5.330   2.955  13.899
87680SOL     OW64813   4.619   8.579  11.290
87680SOL    HW164814   4.703   8.614  11.261
87680SOL    HW264815   4.638   8.488  11.315
87681SOL     OW64816   7.118  12.162  11.615
87681SOL    HW164817   7.174  12.157  11.538
87681SOL    HW264818   7.140  12.246  11.656
87682SOL     OW64819   6.425   9.670   5.453
87682SOL    HW164820   6.513   9.636   5.439
87682SOL    HW264821   6.415   9.739   5.387
87683SOL     OW64822   6.967  11.643   4.978
87683SOL    HW164823   7.050  11.612   4.944
87683SOL    HW264824   6.930  11.567   5.023
87684SOL     OW64825  13.104   7.839   4.825
87684SOL    HW164826  13.171   7.845   4.757
87684SOL    HW264827  13.022   7.833   4.776
87685SOL     OW64828   4.809  14.697  14.446
87685SOL    HW164829   4.778  14.655  14.526
87685SOL    HW264830   4.828  14.787  14.471
87686SOL     OW64831   9.940   9.278   8.649
87686SOL    HW164832   9.941   9.207   8.585
87686SOL    HW264833   9.977   9.353   8.603
87687SOL     OW64834  11.536   6.272  12.543
87687SOL    HW164835  11.492   6.325  12.476
87687SOL    HW264836  11.600   6.331  12.582
87688SOL     OW64837   4.134   0.704  12.114
87688SOL    HW164838   4.174   0.624  12.080
87688SOL    HW264839   4.192   0.732  12.185
87689SOL     OW64840   8.609   9.264  13.861
87689SOL    HW164841   8.664   9.194  13.827
87689SOL    HW264842   8.669   9.321  13.909
87690SOL     OW64843   1.399   0.223   5.908
87690SOL    HW164844   1.323   0.228   5.849
87690SOL    HW264845   1.471   0.195   5.852
87691SOL     OW64846  12.269   6.271  14.461
87691SOL    HW164847  12.359   6.244  14.442
87691SOL    HW264848  12.219   6.241  14.385
87692SOL     OW64849   6.572   7.504  14.800
87692SOL    HW164850   6.625   7.438  14.844
87692SOL    HW264851   6.615   7.517  14.715
87693SOL     OW64852   3.903  11.537   1.968
87693SOL    HW164853   3.955  11.562   1.891
87693SOL    HW264854   3.829  11.599   1.967
87694SOL     OW64855   7.260   8.326   5.253
87694SOL    HW164856   7.207   8.255   5.215
87694SOL    HW264857   7.279   8.297   5.342
87695SOL     OW64858   7.315   0.382  14.099
87695SOL    HW164859   7.341   0.465  14.139
87695SOL    HW264860   7.293   0.326  14.173
87696SOL     OW64861   4.031  14.197  10.961
87696SOL    HW164862   4.116  14.167  10.927
87696SOL    HW264863   3.975  14.119  10.956
87697SOL     OW64864   3.425   0.283  12.085
87697SOL    HW164865   3.493   0.231  12.128
87697SOL    HW264866   3.366   0.219  12.047
87698SOL     OW64867   0.652  10.987  14.744
87698SOL    HW164868   0.702  11.012  14.821
87698SOL    HW264869   0.676  10.896  14.728
87699SOL     OW64870  13.304   1.817   6.746
87699SOL    HW164871  13.342   1.779   6.824
87699SOL    HW264872  13.226   1.863   6.776
87700SOL     OW64873   4.643  14.008  10.704
87700SOL    HW164874   4.601  13.954  10.637
87700SOL    HW264875   4.660  13.948  10.776
87701SOL     OW64876   2.689  11.709   4.480
87701SOL    HW164877   2.684  11.805   4.483
87701SOL    HW264878   2.742  11.690   4.403
87702SOL     OW64879   7.381   8.986  11.850
87702SOL    HW164880   7.464   8.972  11.804
87702SOL    HW264881   7.315   8.950  11.792
87703SOL     OW64882   7.707  12.064  14.256
87703SOL    HW164883   7.637  12.129  14.256
87703SOL    HW264884   7.780  12.108  14.213
87704SOL     OW64885   6.383   9.341   4.724
87704SOL    HW164886   6.363   9.401   4.795
87704SOL    HW264887   6.397   9.397   4.648
87705SOL     OW64888   4.045  13.701  13.266
87705SOL    HW164889   3.981  13.735  13.204
87705SOL    HW264890   4.089  13.779  13.301
87706SOL     OW64891  10.560   4.793   3.116
87706SOL    HW164892  10.603   4.836   3.189
87706SOL    HW264893  10.466   4.798   3.136
87707SOL     OW64894   3.941  13.802   1.554
87707SOL    HW164895   3.872  13.770   1.495
87707SOL    HW264896   3.900  13.874   1.603
87708SOL     OW64897   5.391  11.661   9.974
87708SOL    HW164898   5.366  11.752   9.988
87708SOL    HW264899   5.332  11.611  10.030
87709SOL     OW64900   9.083   1.826   1.593
87709SOL    HW164901   9.099   1.781   1.510
87709SOL    HW264902   9.040   1.761   1.648
87710SOL     OW64903  12.626   6.776   3.176
87710SOL    HW164904  12.656   6.812   3.260
87710SOL    HW264905  12.631   6.850   3.115
87711SOL     OW64906   7.779   7.142   4.945
87711SOL    HW164907   7.849   7.165   4.885
87711SOL    HW264908   7.792   7.049   4.963
87712SOL     OW64909  11.813  12.201  10.347
87712SOL    HW164910  11.903  12.230  10.332
87712SOL    HW264911  11.804  12.122  10.295
87713SOL     OW64912   5.642   6.600   7.132
87713SOL    HW164913   5.718   6.541   7.142
87713SOL    HW264914   5.566   6.543   7.146
87714SOL     OW64915   7.029   2.434  10.403
87714SOL    HW164916   6.941   2.467  10.419
87714SOL    HW264917   7.053   2.388  10.483
87715SOL     OW64918  11.498   3.459  14.096
87715SOL    HW164919  11.445   3.453  14.176
87715SOL    HW264920  11.490   3.551  14.069
87716SOL     OW64921  13.577   9.022  12.361
87716SOL    HW164922  13.643   8.995  12.423
87716SOL    HW264923  13.605   9.109  12.332
87717SOL     OW64924   2.303   9.157   0.522
87717SOL    HW164925   2.337   9.070   0.541
87717SOL    HW264926   2.289   9.156   0.427
87718SOL     OW64927  11.693  11.127   8.530
87718SOL    HW164928  11.646  11.211   8.529
87718SOL    HW264929  11.704  11.106   8.437
87719SOL     OW64930  12.921   4.698   8.113
87719SOL    HW164931  12.830   4.671   8.103
87719SOL    HW264932  12.948   4.659   8.196
87720SOL     OW64933   4.429   1.979   3.500
87720SOL    HW164934   4.477   1.981   3.583
87720SOL    HW264935   4.355   1.921   3.518
87721SOL     OW64936   3.821   3.016   6.474
87721SOL    HW164937   3.789   2.973   6.554
87721SOL    HW264938   3.864   2.946   6.425
87722SOL     OW64939   1.710   9.446  13.372
87722SOL    HW164940   1.718   9.364  13.325
87722SOL    HW264941   1.764   9.435  13.450
87723SOL     OW64942   2.498   0.831   5.454
87723SOL    HW164943   2.436   0.836   5.527
87723SOL    HW264944   2.481   0.909   5.402
87724SOL     OW64945   0.046   5.824  14.704
87724SOL    HW164946  14.840   5.843  14.670
87724SOL    HW264947   0.058   5.883  14.778
87725SOL     OW64948  10.704   9.178  13.917
87725SOL    HW164949  10.624   9.148  13.960
87725SOL    HW264950  10.683   9.175  13.823
87726SOL     OW64951  13.645   5.164  13.614
87726SOL    HW164952  13.589   5.108  13.560
87726SOL    HW264953  13.586   5.200  13.680
87727SOL     OW64954   1.347   8.203   4.242
87727SOL    HW164955   1.278   8.236   4.184
87727SOL    HW264956   1.380   8.125   4.198
87728SOL     OW64957   6.755  10.823  13.118
87728SOL    HW164958   6.712  10.896  13.073
87728SOL    HW264959   6.839  10.814  13.073
87729SOL     OW64960  14.665   5.976   7.553
87729SOL    HW164961  14.714   6.024   7.486
87729SOL    HW264962  14.579   5.961   7.514
87730SOL     OW64963   4.242   5.086  13.703
87730SOL    HW164964   4.165   5.056  13.750
87730SOL    HW264965   4.227   5.179  13.688
87731SOL     OW64966   3.229   0.668  14.544
87731SOL    HW164967   3.267   0.687  14.458
87731SOL    HW264968   3.294   0.615  14.588
87732SOL     OW64969   2.851   8.058   5.044
87732SOL    HW164970   2.908   8.019   5.110
87732SOL    HW264971   2.762   8.036   5.072
87733SOL     OW64972  10.669   9.233  13.605
87733SOL    HW164973  10.718   9.159  13.570
87733SOL    HW264974  10.731   9.305  13.605
87734SOL     OW64975  13.443   1.101  14.078
87734SOL    HW164976  13.449   1.007  14.065
87734SOL    HW264977  13.435   1.138  13.989
87735SOL     OW64978  10.832   5.529   9.109
87735SOL    HW164979  10.865   5.472   9.039
87735SOL    HW264980  10.759   5.576   9.069
87736SOL     OW64981   5.352   8.820   5.380
87736SOL    HW164982   5.326   8.876   5.307
87736SOL    HW264983   5.445   8.802   5.364
87737SOL     OW64984  14.211   4.245   5.970
87737SOL    HW164985  14.132   4.279   6.011
87737SOL    HW264986  14.282   4.268   6.030
87738SOL     OW64987   6.745   2.783  14.784
87738SOL    HW164988   6.674   2.838  14.752
87738SOL    HW264989   6.801   2.843  14.834
87739SOL     OW64990  10.432   2.370   5.469
87739SOL    HW164991  10.397   2.354   5.382
87739SOL    HW264992  10.526   2.358   5.460
87740SOL     OW64993  13.342   8.538   5.772
87740SOL    HW164994  13.328   8.597   5.846
87740SOL    HW264995  13.320   8.451   5.806
87741SOL     OW64996  12.104  10.448   2.942
87741SOL    HW164997  12.056  10.522   2.979
87741SOL    HW264998  12.106  10.465   2.848
87742SOL     OW64999   4.755   0.604  11.342
87742SOL    HW165000   4.670   0.627  11.306
87742SOL    HW265001   4.805   0.686  11.342
87743SOL     OW65002  10.188   0.306  10.372
87743SOL    HW165003  10.275   0.346  10.369
87743SOL    HW265004  10.135   0.368  10.421
87744SOL     OW65005  14.825   3.402   2.916
87744SOL    HW165006  14.737   3.426   2.944
87744SOL    HW265007  14.814   3.319   2.870
87745SOL     OW65008  10.073   2.226  10.567
87745SOL    HW165009  10.147   2.230  10.506
87745SOL    HW265010  10.007   2.283  10.528
87746SOL     OW65011   2.888  14.090  13.504
87746SOL    HW165012   2.843  14.104  13.421
87746SOL    HW265013   2.978  14.121  13.488
87747SOL     OW65014  10.337  12.385  12.037
87747SOL    HW165015  10.249  12.401  12.002
87747SOL    HW265016  10.340  12.437  12.117
87748SOL     OW65017   5.155  10.372   1.281
87748SOL    HW165018   5.124  10.454   1.242
87748SOL    HW265019   5.141  10.383   1.375
87749SOL     OW65020   9.255   9.357  12.488
87749SOL    HW165021   9.292   9.364  12.401
87749SOL    HW265022   9.222   9.267  12.493
87750SOL     OW65023   5.843  13.119   0.242
87750SOL    HW165024   5.886  13.166   0.170
87750SOL    HW265025   5.897  13.137   0.318
87751SOL     OW65026  12.822   5.782   7.848
87751SOL    HW165027  12.841   5.869   7.812
87751SOL    HW265028  12.729   5.769   7.830
87752SOL     OW65029   4.457  13.731  10.367
87752SOL    HW165030   4.512  13.744  10.444
87752SOL    HW265031   4.507  13.771  10.295
87753SOL     OW65032  10.651  13.800  14.065
87753SOL    HW165033  10.602  13.751  14.131
87753SOL    HW265034  10.648  13.744  13.987
87754SOL     OW65035   7.613   5.360  10.510
87754SOL    HW165036   7.698   5.398  10.492
87754SOL    HW265037   7.573   5.420  10.573
87755SOL     OW65038   4.325  13.197   0.459
87755SOL    HW165039   4.362  13.113   0.486
87755SOL    HW265040   4.277  13.228   0.536
87756SOL     OW65041   6.004   1.558   1.002
87756SOL    HW165042   6.060   1.628   1.037
87756SOL    HW265043   5.965   1.596   0.923
87757SOL     OW65044   1.502  11.115  12.088
87757SOL    HW165045   1.531  11.196  12.046
87757SOL    HW265046   1.543  11.117  12.174
87758SOL     OW65047   7.548   0.874  11.632
87758SOL    HW165048   7.627   0.829  11.601
87758SOL    HW265049   7.478   0.839  11.577
87759SOL     OW65050  11.844  13.859   3.258
87759SOL    HW165051  11.785  13.934   3.250
87759SOL    HW265052  11.859  13.830   3.169
87760SOL     OW65053   6.589  13.300   9.271
87760SOL    HW165054   6.505  13.275   9.231
87760SOL    HW265055   6.571  13.384   9.314
87761SOL     OW65056   8.669  11.045   6.540
87761SOL    HW165057   8.597  11.106   6.549
87761SOL    HW265058   8.688  11.016   6.630
87762SOL     OW65059   5.944  10.540  12.272
87762SOL    HW165060   5.967  10.617  12.324
87762SOL    HW265061   5.932  10.470  12.336
87763SOL     OW65062  11.138  14.738   9.767
87763SOL    HW165063  11.153  14.832   9.769
87763SOL    HW265064  11.194  14.703   9.836
87764SOL     OW65065  11.231  10.337  10.568
87764SOL    HW165066  11.140  10.306  10.567
87764SOL    HW265067  11.225  10.428  10.597
87765SOL     OW65068  13.590   7.631  11.573
87765SOL    HW165069  13.685   7.641  11.576
87765SOL    HW265070  13.561   7.645  11.663
87766SOL     OW65071   8.819   2.615   0.186
87766SOL    HW165072   8.819   2.544   0.250
87766SOL    HW265073   8.732   2.610   0.145
87767SOL     OW65074   9.105   1.401   1.295
87767SOL    HW165075   9.108   1.483   1.245
87767SOL    HW265076   9.042   1.417   1.364
87768SOL     OW65077   6.634   2.453   0.708
87768SOL    HW165078   6.729   2.441   0.697
87768SOL    HW265079   6.625   2.495   0.793
87769SOL     OW65080  14.042   1.682   7.485
87769SOL    HW165081  14.082   1.596   7.497
87769SOL    HW265082  14.042   1.695   7.390
87770SOL     OW65083   6.633   4.082   7.908
87770SOL    HW165084   6.557   4.060   7.852
87770SOL    HW265085   6.595   4.127   7.983
87771SOL     OW65086  10.135   8.479   9.193
87771SOL    HW165087  10.112   8.570   9.215
87771SOL    HW265088  10.136   8.477   9.098
87772SOL     OW65089   8.296  13.884   0.861
87772SOL    HW165090   8.355  13.826   0.908
87772SOL    HW265091   8.319  13.972   0.892
87773SOL     OW65092   0.432  11.081   9.193
87773SOL    HW165093   0.521  11.106   9.167
87773SOL    HW265094   0.419  10.995   9.153
87774SOL     OW65095   1.699  12.065   4.887
87774SOL    HW165096   1.661  12.132   4.830
87774SOL    HW265097   1.650  11.986   4.866
87775SOL     OW65098   0.201   1.959  11.464
87775SOL    HW165099   0.266   2.020  11.499
87775SOL    HW265100   0.253   1.887  11.428
87776SOL     OW65101  12.858   7.739  12.215
87776SOL    HW165102  12.839   7.646  12.205
87776SOL    HW265103  12.803   7.767  12.289
87777SOL     OW65104   0.565  13.005   6.933
87777SOL    HW165105   0.482  12.975   6.895
87777SOL    HW265106   0.561  12.976   7.024
87778SOL     OW65107  12.120   8.885   3.351
87778SOL    HW165108  12.076   8.803   3.329
87778SOL    HW265109  12.052   8.951   3.346
87779SOL     OW65110  11.313   2.748  12.737
87779SOL    HW165111  11.374   2.804  12.785
87779SOL    HW265112  11.340   2.755  12.646
87780SOL     OW65113   9.571   8.512  14.327
87780SOL    HW165114   9.555   8.589  14.272
87780SOL    HW265115   9.634   8.460  14.277
87781SOL     OW65116   0.461   3.846   0.917
87781SOL    HW165117   0.544   3.847   0.869
87781SOL    HW265118   0.404   3.790   0.866
87782SOL     OW65119  13.095   2.545  12.741
87782SOL    HW165120  13.177   2.586  12.715
87782SOL    HW265121  13.039   2.552  12.664
87783SOL     OW65122   0.747  12.258   1.019
87783SOL    HW165123   0.727  12.291   0.931
87783SOL    HW265124   0.823  12.309   1.047
87784SOL     OW65125  11.322  11.739   0.048
87784SOL    HW165126  11.285  11.810  14.878
87784SOL    HW265127  11.361  11.782   0.124
87785SOL     OW65128   1.651   9.209   0.080
87785SOL    HW165129   1.667   9.298   0.112
87785SOL    HW265130   1.731   9.187   0.031
87786SOL     OW65131   2.070   1.979   4.464
87786SOL    HW165132   2.040   2.059   4.508
87786SOL    HW265133   2.009   1.912   4.494
87787SOL     OW65134  11.228   6.751  13.404
87787SOL    HW165135  11.319   6.752  13.431
87787SOL    HW265136  11.229   6.711  13.317
87788SOL     OW65137   8.017   2.669   8.177
87788SOL    HW165138   8.106   2.685   8.145
87788SOL    HW265139   7.977   2.614   8.111
87789SOL     OW65140   0.469   4.206  12.901
87789SOL    HW165141   0.405   4.204  12.972
87789SOL    HW265142   0.552   4.227  12.945
87790SOL     OW65143  12.985   8.371   8.443
87790SOL    HW165144  13.065   8.381   8.391
87790SOL    HW265145  12.915   8.366   8.378
87791SOL     OW65146   7.739   0.579   6.463
87791SOL    HW165147   7.752   0.620   6.377
87791SOL    HW265148   7.672   0.512   6.447
87792SOL     OW65149   3.471   4.105  12.458
87792SOL    HW165150   3.502   4.022  12.422
87792SOL    HW265151   3.442   4.084  12.546
87793SOL     OW65152   6.430  11.254  11.508
87793SOL    HW165153   6.464  11.208  11.431
87793SOL    HW265154   6.406  11.183  11.568
87794SOL     OW65155  13.456   8.543   7.932
87794SOL    HW165156  13.422   8.602   7.999
87794SOL    HW265157  13.545   8.523   7.961
87795SOL     OW65158  12.247   2.345   4.504
87795SOL    HW165159  12.176   2.285   4.526
87795SOL    HW265160  12.228   2.425   4.553
87796SOL     OW65161  14.302  13.370   2.270
87796SOL    HW165162  14.259  13.358   2.355
87796SOL    HW265163  14.357  13.293   2.260
87797SOL     OW65164  11.472   3.011   2.325
87797SOL    HW165165  11.541   2.968   2.376
87797SOL    HW265166  11.514   3.089   2.288
87798SOL     OW65167   3.795  11.462   3.807
87798SOL    HW165168   3.711  11.468   3.760
87798SOL    HW265169   3.860  11.496   3.745
87799SOL     OW65170   3.217   0.978   2.823
87799SOL    HW165171   3.181   1.041   2.760
87799SOL    HW265172   3.150   0.910   2.830
87800SOL     OW65173  12.521   7.066   1.366
87800SOL    HW165174  12.514   6.976   1.398
87800SOL    HW265175  12.447   7.111   1.406
87801SOL     OW65176   4.353   7.975  14.692
87801SOL    HW165177   4.398   8.046  14.646
87801SOL    HW265178   4.388   7.979  14.781
87802SOL     OW65179  12.913   9.287  13.899
87802SOL    HW165180  13.001   9.323  13.912
87802SOL    HW265181  12.900   9.229  13.973
87803SOL     OW65182   2.109   1.972   6.834
87803SOL    HW165183   2.163   1.952   6.758
87803SOL    HW265184   2.110   1.892   6.886
87804SOL     OW65185   2.746   2.053  13.024
87804SOL    HW165186   2.831   2.052  13.069
87804SOL    HW265187   2.683   2.032  13.093
87805SOL     OW65188   8.822  12.846  14.367
87805SOL    HW165189   8.886  12.901  14.320
87805SOL    HW265190   8.739  12.864  14.323
87806SOL     OW65191   1.538   0.205  11.648
87806SOL    HW165192   1.504   0.292  11.668
87806SOL    HW265193   1.511   0.151  11.721
87807SOL     OW65194   0.740   7.169   7.011
87807SOL    HW165195   0.824   7.140   7.046
87807SOL    HW265196   0.680   7.097   7.031
87808SOL     OW65197  12.436   9.294  10.034
87808SOL    HW165198  12.395   9.376  10.003
87808SOL    HW265199  12.486   9.320  10.111
87809SOL     OW65200  10.561   1.040   0.401
87809SOL    HW165201  10.614   1.119   0.397
87809SOL    HW265202  10.562   1.015   0.494
87810SOL     OW65203   2.807   9.684   1.645
87810SOL    HW165204   2.797   9.730   1.562
87810SOL    HW265205   2.802   9.591   1.622
87811SOL     OW65206   9.134   2.471  11.099
87811SOL    HW165207   9.196   2.413  11.145
87811SOL    HW265208   9.176   2.490  11.015
87812SOL     OW65209   3.437   1.189   5.666
87812SOL    HW165210   3.502   1.260   5.661
87812SOL    HW265211   3.489   1.109   5.664
87813SOL     OW65212  10.788   8.133   4.650
87813SOL    HW165213  10.753   8.045   4.638
87813SOL    HW265214  10.718   8.181   4.695
87814SOL     OW65215   6.639   6.030  12.267
87814SOL    HW165216   6.662   6.049  12.176
87814SOL    HW265217   6.553   6.069  12.279
87815SOL     OW65218  12.823   8.929   6.732
87815SOL    HW165219  12.760   8.858   6.724
87815SOL    HW265220  12.770   9.006   6.750
87816SOL     OW65221  10.353   4.629   7.634
87816SOL    HW165222  10.409   4.557   7.603
87816SOL    HW265223  10.397   4.663   7.711
87817SOL     OW65224   3.936   8.494   4.748
87817SOL    HW165225   4.024   8.492   4.710
87817SOL    HW265226   3.951   8.494   4.842
87818SOL     OW65227   9.674  14.220   1.076
87818SOL    HW165228   9.672  14.314   1.092
87818SOL    HW265229   9.763  14.194   1.099
87819SOL     OW65230   1.603   8.943  11.672
87819SOL    HW165231   1.642   8.864  11.710
87819SOL    HW265232   1.594   8.923  11.579
87820SOL     OW65233  12.453   5.916   3.479
87820SOL    HW165234  12.386   5.967   3.434
87820SOL    HW265235  12.404   5.853   3.531
87821SOL     OW65236   0.851   8.210   1.441
87821SOL    HW165237   0.762   8.210   1.476
87821SOL    HW265238   0.865   8.120   1.412
87822SOL     OW65239   3.658   1.384   5.872
87822SOL    HW165240   3.571   1.419   5.892
87822SOL    HW265241   3.653   1.359   5.779
87823SOL     OW65242  11.870  14.414  10.160
87823SOL    HW165243  11.861  14.465  10.080
87823SOL    HW265244  11.948  14.360  10.145
87824SOL     OW65245   8.687   8.826   4.696
87824SOL    HW165246   8.612   8.885   4.697
87824SOL    HW265247   8.655   8.747   4.741
87825SOL     OW65248   2.006  12.246   2.505
87825SOL    HW165249   2.032  12.329   2.546
87825SOL    HW265250   2.070  12.233   2.435
87826SOL     OW65251   5.732   7.071  12.278
87826SOL    HW165252   5.795   6.999  12.276
87826SOL    HW265253   5.663   7.044  12.217
87827SOL     OW65254   7.562   0.677  14.537
87827SOL    HW165255   7.471   0.671  14.510
87827SOL    HW265256   7.568   0.758  14.588
87828SOL     OW65257   6.138  14.146  11.101
87828SOL    HW165258   6.105  14.144  11.190
87828SOL    HW265259   6.226  14.109  11.107
87829SOL     OW65260   0.355   6.790   6.302
87829SOL    HW165261   0.281   6.850   6.315
87829SOL    HW265262   0.367   6.750   6.388
87830SOL     OW65263  11.909  10.542   0.771
87830SOL    HW165264  11.994  10.520   0.733
87830SOL    HW265265  11.910  10.500   0.857
87831SOL     OW65266   8.412  11.275   2.162
87831SOL    HW165267   8.319  11.282   2.185
87831SOL    HW265268   8.418  11.193   2.112
87832SOL     OW65269   1.214   9.819   2.254
87832SOL    HW165270   1.213   9.871   2.334
87832SOL    HW265271   1.126   9.830   2.217
87833SOL     OW65272   8.822  13.984   3.475
87833SOL    HW165273   8.750  13.924   3.456
87833SOL    HW265274   8.851  13.959   3.563
87834SOL     OW65275   8.650   2.230   6.213
87834SOL    HW165276   8.598   2.193   6.142
87834SOL    HW265277   8.614   2.191   6.293
87835SOL     OW65278   6.196  10.594   7.607
87835SOL    HW165279   6.236  10.682   7.606
87835SOL    HW265280   6.245  10.547   7.674
87836SOL     OW65281   8.205   6.553   7.460
87836SOL    HW165282   8.240   6.641   7.451
87836SOL    HW265283   8.222   6.512   7.374
87837SOL     OW65284  13.778  13.752   5.797
87837SOL    HW165285  13.826  13.825   5.759
87837SOL    HW265286  13.691  13.756   5.758
87838SOL     OW65287   4.601   7.828  11.415
87838SOL    HW165288   4.520   7.791  11.452
87838SOL    HW265289   4.648   7.862  11.491
87839SOL     OW65290  13.235   7.375   7.520
87839SOL    HW165291  13.203   7.294   7.559
87839SOL    HW265292  13.328   7.358   7.503
87840SOL     OW65293   0.663   7.800  13.022
87840SOL    HW165294   0.581   7.756  12.999
87840SOL    HW265295   0.638   7.863  13.089
87841SOL     OW65296   3.085  11.330   8.862
87841SOL    HW165297   3.169  11.313   8.819
87841SOL    HW265298   3.106  11.393   8.931
87842SOL     OW65299  13.435   5.092   4.705
87842SOL    HW165300  13.431   5.168   4.647
87842SOL    HW265301  13.524   5.060   4.697
87843SOL     OW65302  13.988  14.514  11.666
87843SOL    HW165303  14.066  14.553  11.626
87843SOL    HW265304  13.915  14.557  11.622
87844SOL     OW65305   2.516   3.894   4.459
87844SOL    HW165306   2.594   3.927   4.504
87844SOL    HW265307   2.548   3.863   4.375
87845SOL     OW65308   3.775   2.793   3.822
87845SOL    HW165309   3.757   2.852   3.749
87845SOL    HW265310   3.764   2.705   3.785
87846SOL     OW65311   9.268  14.824   0.598
87846SOL    HW165312   9.221  14.750   0.637
87846SOL    HW265313   9.215  14.849   0.522
87847SOL     OW65314  11.200  12.889   7.692
87847SOL    HW165315  11.256  12.961   7.721
87847SOL    HW265316  11.261  12.819   7.670
87848SOL     OW65317   8.884   5.244   7.238
87848SOL    HW165318   8.977   5.258   7.220
87848SOL    HW265319   8.876   5.149   7.249
87849SOL     OW65320   1.046   4.749   7.510
87849SOL    HW165321   1.136   4.780   7.523
87849SOL    HW265322   1.056   4.657   7.487
87850SOL     OW65323   4.360   4.643  13.422
87850SOL    HW165324   4.334   4.681  13.338
87850SOL    HW265325   4.446   4.681  13.440
87851SOL     OW65326   5.869  12.602  10.243
87851SOL    HW165327   5.883  12.673  10.179
87851SOL    HW265328   5.821  12.535  10.194
87852SOL     OW65329  13.639  12.731   6.750
87852SOL    HW165330  13.588  12.793   6.802
87852SOL    HW265331  13.641  12.651   6.802
87853SOL     OW65332   0.099   1.759   5.499
87853SOL    HW165333   0.088   1.852   5.516
87853SOL    HW265334   0.185   1.751   5.458
87854SOL     OW65335   9.209   1.418   5.178
87854SOL    HW165336   9.204   1.378   5.264
87854SOL    HW265337   9.238   1.348   5.119
87855SOL     OW65338   5.869   5.697  12.499
87855SOL    HW165339   5.873   5.766  12.432
87855SOL    HW265340   5.876   5.745  12.582
87856SOL     OW65341   8.417  10.659   9.277
87856SOL    HW165342   8.498  10.609   9.281
87856SOL    HW265343   8.443  10.749   9.296
87857SOL     OW65344   3.849   7.217   2.238
87857SOL    HW165345   3.920   7.178   2.288
87857SOL    HW265346   3.852   7.310   2.260
87858SOL     OW65347  14.418  13.115   1.410
87858SOL    HW165348  14.380  13.199   1.384
87858SOL    HW265349  14.453  13.078   1.329
87859SOL     OW65350   4.113  10.534   4.252
87859SOL    HW165351   4.197  10.581   4.257
87859SOL    HW265352   4.099  10.522   4.158
87860SOL     OW65353  11.402   0.887  12.029
87860SOL    HW165354  11.454   0.957  11.989
87860SOL    HW265355  11.394   0.912  12.121
87861SOL     OW65356   7.384   0.003   1.861
87861SOL    HW165357   7.344   0.088   1.879
87861SOL    HW265358   7.311  14.829   1.835
87862SOL     OW65359   0.540   7.632   0.698
87862SOL    HW165360   0.485   7.708   0.682
87862SOL    HW265361   0.589   7.654   0.778
87863SOL     OW65362   4.078   2.980   5.435
87863SOL    HW165363   4.051   3.067   5.405
87863SOL    HW265364   4.117   2.995   5.521
87864SOL     OW65365   9.468   2.671   4.212
87864SOL    HW165366   9.564   2.675   4.220
87864SOL    HW265367   9.436   2.708   4.294
87865SOL     OW65368   6.415   4.406  12.697
87865SOL    HW165369   6.345   4.468  12.675
87865SOL    HW265370   6.383   4.359  12.773
87866SOL     OW65371  13.393   1.661   4.549
87866SOL    HW165372  13.349   1.746   4.553
87866SOL    HW265373  13.337   1.608   4.492
87867SOL     OW65374  12.404   8.820  14.292
87867SOL    HW165375  12.443   8.869  14.220
87867SOL    HW265376  12.323   8.785  14.257
87868SOL     OW65377  10.643   3.801   0.612
87868SOL    HW165378  10.652   3.848   0.529
87868SOL    HW265379  10.708   3.732   0.608
87869SOL     OW65380   6.688   0.645   4.367
87869SOL    HW165381   6.687   0.555   4.335
87869SOL    HW265382   6.626   0.691   4.310
87870SOL     OW65383   7.324   6.119  14.868
87870SOL    HW165384   7.353   6.062   0.059
87870SOL    HW265385   7.238   6.085  14.844
87871SOL     OW65386   2.529   8.651   0.427
87871SOL    HW165387   2.522   8.720   0.492
87871SOL    HW265388   2.491   8.689   0.347
87872SOL     OW65389  13.145   5.252   1.794
87872SOL    HW165390  13.231   5.210   1.784
87872SOL    HW265391  13.112   5.219   1.877
87873SOL     OW65392   8.075   6.444  14.647
87873SOL    HW165393   7.992   6.428  14.602
87873SOL    HW265394   8.132   6.374  14.617
87874SOL     OW65395   9.602  14.638   6.452
87874SOL    HW165396   9.599  14.543   6.466
87874SOL    HW265397   9.529  14.672   6.502
87875SOL     OW65398   5.815  12.360  10.106
87875SOL    HW165399   5.892  12.305  10.121
87875SOL    HW265400   5.740  12.302  10.120
87876SOL     OW65401   6.301   7.230   3.598
87876SOL    HW165402   6.228   7.184   3.558
87876SOL    HW265403   6.269   7.257   3.684
87877SOL     OW65404   4.615   8.300  14.820
87877SOL    HW165405   4.680   8.234  14.842
87877SOL    HW265406   4.582   8.274  14.734
87878SOL     OW65407   8.880  10.506   4.046
87878SOL    HW165408   8.963  10.509   3.998
87878SOL    HW265409   8.812  10.515   3.979
87879SOL     OW65410   1.168   1.206   4.657
87879SOL    HW165411   1.223   1.238   4.728
87879SOL    HW265412   1.138   1.285   4.612
87880SOL     OW65413   5.372   9.959   9.385
87880SOL    HW165414   5.375  10.021   9.312
87880SOL    HW265415   5.419  10.004   9.456
87881SOL     OW65416  13.887   6.984  10.898
87881SOL    HW165417  13.859   6.935  10.821
87881SOL    HW265418  13.806   7.019  10.935
87882SOL     OW65419   5.497  10.905   1.971
87882SOL    HW165420   5.496  10.880   1.879
87882SOL    HW265421   5.436  10.845   2.013
87883SOL     OW65422   8.337   5.739  10.320
87883SOL    HW165423   8.428   5.765  10.336
87883SOL    HW265424   8.289   5.821  10.316
87884SOL     OW65425   7.324  13.243   1.005
87884SOL    HW165426   7.301  13.279   0.920
87884SOL    HW265427   7.267  13.166   1.015
87885SOL     OW65428   2.079   7.158   1.952
87885SOL    HW165429   2.132   7.083   1.926
87885SOL    HW265430   2.097   7.225   1.886
87886SOL     OW65431  11.141  12.100  14.431
87886SOL    HW165432  11.224  12.107  14.384
87886SOL    HW265433  11.102  12.187  14.425
87887SOL     OW65434  13.900  12.293  13.517
87887SOL    HW165435  13.902  12.253  13.430
87887SOL    HW265436  13.815  12.266  13.553
87888SOL     OW65437   8.806   3.489   9.912
87888SOL    HW165438   8.764   3.573   9.931
87888SOL    HW265439   8.849   3.465   9.994
87889SOL     OW65440   1.363   8.009   9.462
87889SOL    HW165441   1.312   8.038   9.538
87889SOL    HW265442   1.436   7.960   9.500
87890SOL     OW65443   0.455   7.136  10.318
87890SOL    HW165444   0.496   7.096  10.241
87890SOL    HW265445   0.368   7.096  10.322
87891SOL     OW65446   8.504   4.229   7.433
87891SOL    HW165447   8.503   4.133   7.438
87891SOL    HW265448   8.597   4.251   7.421
87892SOL     OW65449   8.735   8.971   2.084
87892SOL    HW165450   8.827   8.951   2.069
87892SOL    HW265451   8.690   8.938   2.006
87893SOL     OW65452   1.340   2.800   7.439
87893SOL    HW165453   1.265   2.811   7.498
87893SOL    HW265454   1.356   2.706   7.438
87894SOL     OW65455  10.453  11.098   2.536
87894SOL    HW165456  10.369  11.108   2.582
87894SOL    HW265457  10.462  11.003   2.524
87895SOL     OW65458   5.871   2.434   7.543
87895SOL    HW165459   5.931   2.502   7.573
87895SOL    HW265460   5.808   2.424   7.614
87896SOL     OW65461  13.430   5.695   5.041
87896SOL    HW165462  13.493   5.708   5.112
87896SOL    HW265463  13.451   5.608   5.006
87897SOL     OW65464  12.610   9.247   7.569
87897SOL    HW165465  12.612   9.213   7.480
87897SOL    HW265466  12.580   9.173   7.623
87898SOL     OW65467   0.959   3.015   6.366
87898SOL    HW165468   0.993   3.100   6.339
87898SOL    HW265469   0.890   2.995   6.303
87899SOL     OW65470   6.409  13.486   1.953
87899SOL    HW165471   6.460  13.420   2.000
87899SOL    HW265472   6.392  13.553   2.019
87900SOL     OW65473   7.496   2.816  12.923
87900SOL    HW165474   7.533   2.829  13.011
87900SOL    HW265475   7.572   2.823  12.865
87901SOL     OW65476   7.175   0.537   6.282
87901SOL    HW165477   7.203   0.622   6.316
87901SOL    HW265478   7.161   0.552   6.189
87902SOL     OW65479  14.553  14.409   1.522
87902SOL    HW165480  14.543  14.501   1.499
87902SOL    HW265481  14.504  14.362   1.454
87903SOL     OW65482   8.329  11.772  14.846
87903SOL    HW165483   8.318  11.867  14.855
87903SOL    HW265484   8.414  11.754   0.005
87904SOL     OW65485   5.812   5.875   2.575
87904SOL    HW165486   5.888   5.928   2.550
87904SOL    HW265487   5.819   5.796   2.522
87905SOL     OW65488   4.417   5.906  10.749
87905SOL    HW165489   4.336   5.860  10.727
87905SOL    HW265490   4.397   5.998  10.732
87906SOL     OW65491   3.006   0.424   9.945
87906SOL    HW165492   3.071   0.451   9.879
87906SOL    HW265493   3.017   0.488  10.015
87907SOL     OW65494  11.601   2.529   2.743
87907SOL    HW165495  11.639   2.521   2.830
87907SOL    HW265496  11.653   2.470   2.689
87908SOL     OW65497   1.161   2.324  11.659
87908SOL    HW165498   1.249   2.301  11.689
87908SOL    HW265499   1.175   2.384  11.586
87909SOL     OW65500   4.423   9.710   4.167
87909SOL    HW165501   4.388   9.723   4.255
87909SOL    HW265502   4.511   9.748   4.170
87910SOL     OW65503   2.009  11.132   4.672
87910SOL    HW165504   1.949  11.093   4.735
87910SOL    HW265505   1.995  11.226   4.680
87911SOL     OW65506   6.809  13.143  14.750
87911SOL    HW165507   6.829  13.077  14.684
87911SOL    HW265508   6.714  13.142  14.758
87912SOL     OW65509  14.518   6.380  10.702
87912SOL    HW165510  14.550   6.298  10.740
87912SOL    HW265511  14.595   6.419  10.662
87913SOL     OW65512  12.437  11.664  14.695
87913SOL    HW165513  12.396  11.749  14.682
87913SOL    HW265514  12.390  11.605  14.636
87914SOL     OW65515  11.676   3.153   8.041
87914SOL    HW165516  11.615   3.132   7.971
87914SOL    HW265517  11.638   3.114   8.119
87915SOL     OW65518  13.579  10.841  10.512
87915SOL    HW165519  13.578  10.746  10.522
87915SOL    HW265520  13.616  10.873  10.595
87916SOL     OW65521   8.457  14.492   4.889
87916SOL    HW165522   8.457  14.399   4.913
87916SOL    HW265523   8.367  14.521   4.906
87917SOL     OW65524  13.932   4.545   6.776
87917SOL    HW165525  13.993   4.524   6.846
87917SOL    HW265526  13.925   4.464   6.725
87918SOL     OW65527  12.029   0.575   6.115
87918SOL    HW165528  12.018   0.488   6.155
87918SOL    HW265529  12.033   0.557   6.021
87919SOL     OW65530   4.424   7.342   2.622
87919SOL    HW165531   4.359   7.406   2.593
87919SOL    HW265532   4.503   7.393   2.636
87920SOL     OW65533   4.984   8.519   3.863
87920SOL    HW165534   4.923   8.471   3.808
87920SOL    HW265535   4.985   8.472   3.946
87921SOL     OW65536   0.354  13.518  12.318
87921SOL    HW165537   0.423  13.567  12.362
87921SOL    HW265538   0.295  13.586  12.285
87922SOL     OW65539  13.520   0.532   9.255
87922SOL    HW165540  13.522   0.611   9.310
87922SOL    HW265541  13.524   0.460   9.318
87923SOL     OW65542   8.946  11.010   9.618
87923SOL    HW165543   8.857  10.994   9.587
87923SOL    HW265544   9.001  10.998   9.541
87924SOL     OW65545   2.465   9.276   2.309
87924SOL    HW165546   2.522   9.346   2.277
87924SOL    HW265547   2.480   9.203   2.248
87925SOL     OW65548  11.908  10.948   0.894
87925SOL    HW165549  11.883  10.890   0.823
87925SOL    HW265550  11.854  11.027   0.881
87926SOL     OW65551   6.856   7.396   3.440
87926SOL    HW165552   6.842   7.419   3.348
87926SOL    HW265553   6.787   7.333   3.460
87927SOL     OW65554  12.608   9.432   8.425
87927SOL    HW165555  12.549   9.497   8.387
87927SOL    HW265556  12.680   9.483   8.461
87928SOL     OW65557   2.577   2.641   3.940
87928SOL    HW165558   2.620   2.561   3.909
87928SOL    HW265559   2.565   2.693   3.861
87929SOL     OW65560   3.214   3.300   5.557
87929SOL    HW165561   3.258   3.226   5.596
87929SOL    HW265562   3.123   3.271   5.546
87930SOL     OW65563   4.109   1.413  12.062
87930SOL    HW165564   4.176   1.348  12.043
87930SOL    HW265565   4.140   1.457  12.141
87931SOL     OW65566   8.770   8.318  13.565
87931SOL    HW165567   8.801   8.400  13.527
87931SOL    HW265568   8.815   8.250  13.515
87932SOL     OW65569   2.558  13.247   1.800
87932SOL    HW165570   2.496  13.250   1.873
87932SOL    HW265571   2.638  13.210   1.839
87933SOL     OW65572   7.320   9.498   4.274
87933SOL    HW165573   7.361   9.554   4.340
87933SOL    HW265574   7.354   9.531   4.191
87934SOL     OW65575   0.864   0.003  12.475
87934SOL    HW165576   0.808   0.080  12.476
87934SOL    HW265577   0.817  14.820  12.528
87935SOL     OW65578  13.904   2.716   9.182
87935SOL    HW165579  13.811   2.708   9.202
87935SOL    HW265580  13.930   2.628   9.153
87936SOL     OW65581  13.489   8.327   9.246
87936SOL    HW165582  13.518   8.237   9.261
87936SOL    HW265583  13.475   8.362   9.334
87937SOL     OW65584  12.453  10.684   0.419
87937SOL    HW165585  12.440  10.590   0.412
87937SOL    HW265586  12.403  10.721   0.346
87938SOL     OW65587  12.570   3.822   9.464
87938SOL    HW165588  12.622   3.855   9.391
87938SOL    HW265589  12.631   3.769   9.515
87939SOL     OW65590  13.093  12.571   6.264
87939SOL    HW165591  13.049  12.654   6.283
87939SOL    HW265592  13.182  12.597   6.238
87940SOL     OW65593  14.177   4.159  11.648
87940SOL    HW165594  14.145   4.231  11.702
87940SOL    HW265595  14.161   4.080  11.700
87941SOL     OW65596   8.009   6.670  13.674
87941SOL    HW165597   8.087   6.617  13.693
87941SOL    HW265598   8.015   6.689  13.581
87942SOL     OW65599   4.612  14.533  12.470
87942SOL    HW165600   4.548  14.470  12.438
87942SOL    HW265601   4.626  14.508  12.562
87943SOL     OW65602  13.679  12.303  13.012
87943SOL    HW165603  13.618  12.309  12.939
87943SOL    HW265604  13.740  12.234  12.987
87944SOL     OW65605  12.704   2.895   0.581
87944SOL    HW165606  12.796   2.912   0.560
87944SOL    HW265607  12.659   2.978   0.567
87945SOL     OW65608   3.046  11.210   1.029
87945SOL    HW165609   3.083  11.125   1.050
87945SOL    HW265610   3.035  11.209   0.934
87946SOL     OW65611   0.576   5.174   4.541
87946SOL    HW165612   0.580   5.269   4.534
87946SOL    HW265613   0.550   5.144   4.454
87947SOL     OW65614   6.741   7.341   2.754
87947SOL    HW165615   6.732   7.247   2.769
87947SOL    HW265616   6.675   7.362   2.689
87948SOL     OW65617  10.663   2.727   2.197
87948SOL    HW165618  10.753   2.692   2.195
87948SOL    HW265619  10.608   2.653   2.171
87949SOL     OW65620  12.150   3.647   5.328
87949SOL    HW165621  12.155   3.717   5.263
87949SOL    HW265622  12.157   3.567   5.277
87950SOL     OW65623   4.925   2.912   3.407
87950SOL    HW165624   4.969   2.997   3.411
87950SOL    HW265625   4.984   2.857   3.353
87951SOL     OW65626   3.695   7.483   4.842
87951SOL    HW165627   3.743   7.513   4.920
87951SOL    HW265628   3.711   7.389   4.839
87952SOL     OW65629   3.575   3.175   7.421
87952SOL    HW165630   3.485   3.190   7.451
87952SOL    HW265631   3.620   3.137   7.497
87953SOL     OW65632   2.839   3.219   1.141
87953SOL    HW165633   2.924   3.204   1.098
87953SOL    HW265634   2.777   3.226   1.069
87954SOL     OW65635  13.743   4.882   5.715
87954SOL    HW165636  13.647   4.878   5.716
87954SOL    HW265637  13.763   4.971   5.686
87955SOL     OW65638   0.405   2.424  14.396
87955SOL    HW165639   0.327   2.479  14.408
87955SOL    HW265640   0.406   2.367  14.473
87956SOL     OW65641   8.641  13.070   8.079
87956SOL    HW165642   8.719  13.024   8.048
87956SOL    HW265643   8.595  13.094   7.998
87957SOL     OW65644   7.623   2.154  10.515
87957SOL    HW165645   7.554   2.144  10.449
87957SOL    HW265646   7.684   2.082  10.496
87958SOL     OW65647   1.911  10.473   5.910
87958SOL    HW165648   1.881  10.533   5.978
87958SOL    HW265649   1.830  10.441   5.870
87959SOL     OW65650   2.643   3.506   5.927
87959SOL    HW165651   2.596   3.507   6.010
87959SOL    HW265652   2.619   3.423   5.887
87960SOL     OW65653   9.726   9.283   6.920
87960SOL    HW165654   9.732   9.193   6.887
87960SOL    HW265655   9.788   9.287   6.993
87961SOL     OW65656   0.397   6.958  12.835
87961SOL    HW165657   0.488   6.977  12.857
87961SOL    HW265658   0.399   6.869  12.800
87962SOL     OW65659   2.365   2.794  13.926
87962SOL    HW165660   2.323   2.800  13.840
87962SOL    HW265661   2.453   2.829  13.911
87963SOL     OW65662   9.327   8.197  10.773
87963SOL    HW165663   9.248   8.205  10.827
87963SOL    HW265664   9.314   8.115  10.724
87964SOL     OW65665  12.089   0.704   1.579
87964SOL    HW165666  12.034   0.782   1.567
87964SOL    HW265667  12.135   0.694   1.495
87965SOL     OW65668   7.493   3.897  10.886
87965SOL    HW165669   7.532   3.872  10.802
87965SOL    HW265670   7.559   3.875  10.951
87966SOL     OW65671   9.840  13.865  14.356
87966SOL    HW165672   9.792  13.945  14.380
87966SOL    HW265673   9.932  13.886  14.372
87967SOL     OW65674   2.771  10.165   4.973
87967SOL    HW165675   2.860  10.160   4.937
87967SOL    HW265676   2.768  10.250   5.017
87968SOL     OW65677   3.336  11.610   3.893
87968SOL    HW165678   3.344  11.704   3.877
87968SOL    HW265679   3.244  11.597   3.917
87969SOL     OW65680  13.066  14.595  12.300
87969SOL    HW165681  13.056  14.542  12.379
87969SOL    HW265682  13.147  14.563  12.260
87970SOL     OW65683   8.642   2.866   7.959
87970SOL    HW165684   8.566   2.905   8.003
87970SOL    HW265685   8.708   2.936   7.960
87971SOL     OW65686  10.450   4.403   5.996
87971SOL    HW165687  10.433   4.471   6.061
87971SOL    HW265688  10.535   4.426   5.959
87972SOL     OW65689   4.943   5.538  11.611
87972SOL    HW165690   4.901   5.500  11.534
87972SOL    HW265691   5.018   5.586  11.576
87973SOL     OW65692  10.180   8.429   0.506
87973SOL    HW165693  10.100   8.377   0.517
87973SOL    HW265694  10.220   8.395   0.426
87974SOL     OW65695   6.807  14.208  10.312
87974SOL    HW165696   6.861  14.141  10.269
87974SOL    HW265697   6.725  14.163  10.332
87975SOL     OW65698   5.078   2.397   8.377
87975SOL    HW165699   5.073   2.454   8.453
87975SOL    HW265700   5.102   2.311   8.412
87976SOL     OW65701  11.326   1.014   0.069
87976SOL    HW165702  11.326   1.035   0.163
87976SOL    HW265703  11.303   1.096   0.026
87977SOL     OW65704   0.478   5.295  14.574
87977SOL    HW165705   0.405   5.297  14.636
87977SOL    HW265706   0.464   5.216  14.523
87978SOL     OW65707   1.341  12.480   7.891
87978SOL    HW165708   1.435  12.490   7.904
87978SOL    HW265709   1.302  12.548   7.946
87979SOL     OW65710  13.371  10.589   1.485
87979SOL    HW165711  13.390  10.495   1.482
87979SOL    HW265712  13.322  10.607   1.405
87980SOL     OW65713   4.345   3.109   9.222
87980SOL    HW165714   4.434   3.098   9.257
87980SOL    HW265715   4.297   3.034   9.255
87981SOL     OW65716   5.468  14.613   0.731
87981SOL    HW165717   5.520  14.605   0.811
87981SOL    HW265718   5.532  14.604   0.661
87982SOL     OW65719   2.292   7.799   5.432
87982SOL    HW165720   2.226   7.802   5.362
87982SOL    HW265721   2.287   7.886   5.472
87983SOL     OW65722   0.462   7.376   0.694
87983SOL    HW165723   0.527   7.323   0.646
87983SOL    HW265724   0.489   7.466   0.679
87984SOL     OW65725   7.496   4.217   3.439
87984SOL    HW165726   7.482   4.195   3.531
87984SOL    HW265727   7.582   4.180   3.418
87985SOL     OW65728  10.297   9.249   6.618
87985SOL    HW165729  10.252   9.262   6.702
87985SOL    HW265730  10.281   9.158   6.596
87986SOL     OW65731  13.518   7.703   1.167
87986SOL    HW165732  13.468   7.755   1.105
87986SOL    HW265733  13.454   7.676   1.233
87987SOL     OW65734   8.726   7.547   0.968
87987SOL    HW165735   8.770   7.578   0.889
87987SOL    HW265736   8.633   7.564   0.952
87988SOL     OW65737   2.181   4.074   9.074
87988SOL    HW165738   2.121   4.056   9.002
87988SOL    HW265739   2.146   4.153   9.115
87989SOL     OW65740  11.749  10.035   0.245
87989SOL    HW165741  11.746  10.104   0.180
87989SOL    HW265742  11.694  10.066   0.317
87990SOL     OW65743  12.031  10.081   6.018
87990SOL    HW165744  12.084  10.148   6.061
87990SOL    HW265745  12.072  10.069   5.932
87991SOL     OW65746   0.005   6.150   5.749
87991SOL    HW165747   0.071   6.154   5.679
87991SOL    HW265748  14.819   6.212   5.721
87992SOL     OW65749   9.294  12.154   6.289
87992SOL    HW165750   9.308  12.070   6.333
87992SOL    HW265751   9.224  12.196   6.338
87993SOL     OW65752   3.740   5.257   4.904
87993SOL    HW165753   3.711   5.198   4.834
87993SOL    HW265754   3.688   5.336   4.892
87994SOL     OW65755   9.404  12.918   4.706
87994SOL    HW165756   9.458  12.843   4.682
87994SOL    HW265757   9.458  12.967   4.768
87995SOL     OW65758  14.226  12.563   4.441
87995SOL    HW165759  14.265  12.629   4.384
87995SOL    HW265760  14.280  12.563   4.520
87996SOL     OW65761  14.218   4.567  14.098
87996SOL    HW165762  14.261   4.646  14.130
87996SOL    HW265763  14.133   4.598  14.065
87997SOL     OW65764   8.013   1.319   3.407
87997SOL    HW165765   8.102   1.342   3.433
87997SOL    HW265766   8.023   1.247   3.345
87998SOL     OW65767   0.004  10.350  14.510
87998SOL    HW165768  14.832  10.420  14.548
87998SOL    HW265769  14.827  10.306  14.448
87999SOL     OW65770   1.713   9.766   1.206
87999SOL    HW165771   1.676   9.848   1.236
87999SOL    HW265772   1.793   9.791   1.160
88000SOL     OW65773   9.011   3.565  13.359
88000SOL    HW165774   8.933   3.543  13.409
88000SOL    HW265775   9.006   3.659  13.347
88001SOL     OW65776   6.549   1.986   9.299
88001SOL    HW165777   6.533   1.950   9.212
88001SOL    HW265778   6.517   2.076   9.295
88002SOL     OW65779  12.205  11.018   3.468
88002SOL    HW165780  12.254  11.056   3.395
88002SOL    HW265781  12.238  11.064   3.545
88003SOL     OW65782   7.822  14.811  12.414
88003SOL    HW165783   7.881  14.737  12.429
88003SOL    HW265784   7.756  14.777  12.354
88004SOL     OW65785   4.487  13.435   7.820
88004SOL    HW165786   4.545  13.458   7.747
88004SOL    HW265787   4.539  13.453   7.898
88005SOL     OW65788   3.061   0.405   4.150
88005SOL    HW165789   3.139   0.408   4.207
88005SOL    HW265790   3.096   0.386   4.063
88006SOL     OW65791   6.243   1.253  10.092
88006SOL    HW165792   6.165   1.224  10.045
88006SOL    HW265793   6.270   1.333  10.045
88007SOL     OW65794  11.951  13.272   0.242
88007SOL    HW165795  11.888  13.229   0.184
88007SOL    HW265796  12.022  13.208   0.252
88008SOL     OW65797   2.072   9.236  13.425
88008SOL    HW165798   2.030   9.223  13.340
88008SOL    HW265799   1.999   9.254  13.485
88009SOL     OW65800   8.231   1.268   8.209
88009SOL    HW165801   8.231   1.364   8.214
88009SOL    HW265802   8.320   1.246   8.181
88010SOL     OW65803   6.944   8.187   5.925
88010SOL    HW165804   6.928   8.217   5.836
88010SOL    HW265805   6.970   8.266   5.973
88011SOL     OW65806  12.130   8.939  10.282
88011SOL    HW165807  12.099   8.908  10.368
88011SOL    HW265808  12.181   8.866  10.247
88012SOL     OW65809  13.989   6.058   0.263
88012SOL    HW165810  14.033   6.085   0.344
88012SOL    HW265811  14.058   6.018   0.211
88013SOL     OW65812   3.782  14.105  13.970
88013SOL    HW165813   3.767  14.075  13.881
88013SOL    HW265814   3.811  14.028  14.018
88014SOL     OW65815   5.323   5.851   9.097
88014SOL    HW165816   5.293   5.931   9.141
88014SOL    HW265817   5.248   5.792   9.102
88015SOL     OW65818   6.505  13.823   8.747
88015SOL    HW165819   6.510  13.733   8.779
88015SOL    HW265820   6.414  13.834   8.719
88016SOL     OW65821  11.796   9.621   1.396
88016SOL    HW165822  11.846   9.670   1.330
88016SOL    HW265823  11.841   9.538   1.403
88017SOL     OW65824   3.821   1.898   1.630
88017SOL    HW165825   3.902   1.852   1.651
88017SOL    HW265826   3.848   1.967   1.569
88018SOL     OW65827   7.688  14.258   2.630
88018SOL    HW165828   7.637  14.184   2.596
88018SOL    HW265829   7.628  14.303   2.690
88019SOL     OW65830   2.120   5.109   9.867
88019SOL    HW165831   2.111   5.038   9.931
88019SOL    HW265832   2.185   5.167   9.906
88020SOL     OW65833   6.091  12.638  11.796
88020SOL    HW165834   6.114  12.618  11.706
88020SOL    HW265835   5.996  12.625  11.800
88021SOL     OW65836   8.196  14.262   7.447
88021SOL    HW165837   8.220  14.175   7.416
88021SOL    HW265838   8.108  14.251   7.483
88022SOL     OW65839   6.504   7.029   2.455
88022SOL    HW165840   6.497   6.996   2.365
88022SOL    HW265841   6.442   7.102   2.459
88023SOL     OW65842   4.612   5.330   0.366
88023SOL    HW165843   4.529   5.379   0.366
88023SOL    HW265844   4.646   5.341   0.277
88024SOL     OW65845   6.361   5.294  14.115
88024SOL    HW165846   6.378   5.200  14.121
88024SOL    HW265847   6.286   5.300  14.056
88025SOL     OW65848   3.260  11.972   0.445
88025SOL    HW165849   3.189  11.968   0.380
88025SOL    HW265850   3.339  11.979   0.392
88026SOL     OW65851   8.872  12.730  11.158
88026SOL    HW165852   8.919  12.719  11.241
88026SOL    HW265853   8.891  12.820  11.132
88027SOL     OW65854   6.109  14.679   6.154
88027SOL    HW165855   6.163  14.754   6.129
88027SOL    HW265856   6.109  14.680   6.249
88028SOL     OW65857   1.889   2.814   5.087
88028SOL    HW165858   1.971   2.776   5.118
88028SOL    HW265859   1.870   2.884   5.150
88029SOL     OW65860   5.664   3.581   9.710
88029SOL    HW165861   5.646   3.664   9.755
88029SOL    HW265862   5.731   3.539   9.763
88030SOL     OW65863   6.826   5.294   3.563
88030SOL    HW165864   6.901   5.353   3.557
88030SOL    HW265865   6.794   5.304   3.652
88031SOL     OW65866  11.823  12.646  14.222
88031SOL    HW165867  11.747  12.604  14.263
88031SOL    HW265868  11.878  12.573  14.192
88032SOL     OW65869  10.721   2.962   9.465
88032SOL    HW165870  10.763   2.897   9.522
88032SOL    HW265871  10.759   3.046   9.492
88033SOL     OW65872   4.864   4.742   9.279
88033SOL    HW165873   4.944   4.700   9.247
88033SOL    HW265874   4.894   4.823   9.320
88034SOL     OW65875   3.807   9.852   4.176
88034SOL    HW165876   3.825   9.769   4.222
88034SOL    HW265877   3.873   9.855   4.107
88035SOL     OW65878   2.000   1.797   9.828
88035SOL    HW165879   1.988   1.889   9.809
88035SOL    HW265880   2.014   1.793   9.922
88036SOL     OW65881   5.083   1.035   4.195
88036SOL    HW165882   5.064   1.010   4.285
88036SOL    HW265883   5.002   1.017   4.148
88037SOL     OW65884  14.567   2.975  14.462
88037SOL    HW165885  14.542   2.958  14.371
88037SOL    HW265886  14.494   3.026  14.498
88038SOL     OW65887   7.266  14.529   7.074
88038SOL    HW165888   7.187  14.524   7.021
88038SOL    HW265889   7.319  14.454   7.045
88039SOL     OW65890  12.962  14.691   6.685
88039SOL    HW165891  12.919  14.776   6.693
88039SOL    HW265892  13.035  14.695   6.747
88040SOL     OW65893   9.339   4.431  12.706
88040SOL    HW165894   9.326   4.336  12.716
88040SOL    HW265895   9.381   4.458  12.788
88041SOL     OW65896   3.420   0.035   3.132
88041SOL    HW165897   3.412   0.039   3.037
88041SOL    HW265898   3.416   0.127   3.160
88042SOL     OW65899   3.286   5.173   8.341
88042SOL    HW165900   3.373   5.162   8.379
88042SOL    HW265901   3.275   5.096   8.284
88043SOL     OW65902   0.898   5.738   9.202
88043SOL    HW165903   0.821   5.765   9.252
88043SOL    HW265904   0.877   5.760   9.111
88044SOL     OW65905  12.511  10.974  14.813
88044SOL    HW165906  12.486  11.012   0.016
88044SOL    HW265907  12.579  10.910  14.835
88045SOL     OW65908   6.883  14.856   6.210
88045SOL    HW165909   6.954  14.867   6.146
88045SOL    HW265910   6.862   0.064   6.237
88046SOL     OW65911   0.658   9.009   4.562
88046SOL    HW165912   0.671   8.952   4.637
88046SOL    HW265913   0.725   9.077   4.570
88047SOL     OW65914   1.349   9.318   8.290
88047SOL    HW165915   1.309   9.236   8.318
88047SOL    HW265916   1.428   9.326   8.343
88048SOL     OW65917  13.905   0.053   5.937
88048SOL    HW165918  13.968   0.003   5.886
88048SOL    HW265919  13.820   0.032   5.897
88049SOL     OW65920  12.801   7.870   7.521
88049SOL    HW165921  12.762   7.782   7.519
88049SOL    HW265922  12.890   7.856   7.552
88050SOL     OW65923   5.880   3.023   7.300
88050SOL    HW165924   5.825   2.981   7.234
88050SOL    HW265925   5.970   3.008   7.270
88051SOL     OW65926  11.782   1.464  10.330
88051SOL    HW165927  11.817   1.438  10.416
88051SOL    HW265928  11.795   1.387  10.275
88052SOL     OW65929  11.499   7.626   1.608
88052SOL    HW165930  11.410   7.662   1.613
88052SOL    HW265931  11.497   7.570   1.530
88053SOL     OW65932  10.662  13.767  10.936
88053SOL    HW165933  10.571  13.795  10.945
88053SOL    HW265934  10.674  13.755  10.842
88054SOL     OW65935   4.480  12.883  10.016
88054SOL    HW165936   4.433  12.946   9.961
88054SOL    HW265937   4.415  12.816  10.036
88055SOL     OW65938   1.258   5.032   9.519
88055SOL    HW165939   1.230   5.079   9.598
88055SOL    HW265940   1.327   5.087   9.481
88056SOL     OW65941  12.921   7.933   9.875
88056SOL    HW165942  12.849   7.879   9.908
88056SOL    HW265943  12.881   7.988   9.808
88057SOL     OW65944  12.872   2.604   1.738
88057SOL    HW165945  12.869   2.513   1.709
88057SOL    HW265946  12.781   2.634   1.732
88058SOL     OW65947   7.774   1.400  11.990
88058SOL    HW165948   7.799   1.423  11.901
88058SOL    HW265949   7.839   1.335  12.018
88059SOL     OW65950   6.117  10.227   5.674
88059SOL    HW165951   6.093  10.316   5.647
88059SOL    HW265952   6.056  10.206   5.744
88060SOL     OW65953   7.561   7.185   7.430
88060SOL    HW165954   7.582   7.195   7.523
88060SOL    HW265955   7.535   7.272   7.401
88061SOL     OW65956   6.730   0.955   6.240
88061SOL    HW165957   6.741   0.861   6.231
88061SOL    HW265958   6.813   0.986   6.276
88062SOL     OW65959   0.925  13.564   6.191
88062SOL    HW165960   0.946  13.630   6.257
88062SOL    HW265961   0.999  13.503   6.193
88063SOL     OW65962  12.704  12.672  10.820
88063SOL    HW165963  12.790  12.712  10.833
88063SOL    HW265964  12.690  12.620  10.899
88064SOL     OW65965  13.797  13.606  12.224
88064SOL    HW165966  13.707  13.593  12.194
88064SOL    HW265967  13.807  13.543  12.296
88065SOL     OW65968  14.760   5.092   8.069
88065SOL    HW165969  14.749   5.012   8.119
88065SOL    HW265970  14.745   5.163   8.132
88066SOL     OW65971   8.415   3.898   4.583
88066SOL    HW165972   8.463   3.858   4.656
88066SOL    HW265973   8.471   3.971   4.554
88067SOL     OW65974   9.443   9.837  14.549
88067SOL    HW165975   9.494   9.867  14.473
88067SOL    HW265976   9.437   9.742  14.537
88068SOL     OW65977   3.528   5.020   9.468
88068SOL    HW165978   3.447   4.973   9.448
88068SOL    HW265979   3.551   5.063   9.385
88069SOL     OW65980  13.756   1.321   3.633
88069SOL    HW165981  13.743   1.410   3.600
88069SOL    HW265982  13.712   1.265   3.570
88070SOL     OW65983  10.824   0.271   0.408
88070SOL    HW165984  10.810   0.240   0.498
88070SOL    HW265985  10.739   0.306   0.382
88071SOL     OW65986   2.878  13.507  10.185
88071SOL    HW165987   2.894  13.448  10.112
88071SOL    HW265988   2.791  13.483  10.217
88072SOL     OW65989  13.571  11.454   1.690
88072SOL    HW165990  13.542  11.396   1.619
88072SOL    HW265991  13.556  11.542   1.657
88073SOL     OW65992   2.457  12.935   6.410
88073SOL    HW165993   2.416  13.015   6.380
88073SOL    HW265994   2.515  12.909   6.338
88074SOL     OW65995  10.275   1.071  11.852
88074SOL    HW165996  10.326   1.145  11.884
88074SOL    HW265997  10.322   0.994  11.884
88075SOL     OW65998   6.665  12.952   8.047
88075SOL    HW165999   6.633  12.988   7.965
88075SOL    HW266000   6.703  12.868   8.024
88076SOL     OW66001  12.597  12.705  14.618
88076SOL    HW166002  12.607  12.732  14.526
88076SOL    HW266003  12.643  12.621  14.623
88077SOL     OW66004  13.927   6.749   2.957
88077SOL    HW166005  13.901   6.657   2.954
88077SOL    HW266006  13.980   6.762   2.878
88078SOL     OW66007   8.538  12.795   7.495
88078SOL    HW166008   8.623  12.821   7.461
88078SOL    HW266009   8.535  12.832   7.584
88079SOL     OW66010  10.584  13.171  13.812
88079SOL    HW166011  10.632  13.181  13.730
88079SOL    HW266012  10.507  13.227  13.802
88080SOL     OW66013   3.359  10.409   3.782
88080SOL    HW166014   3.399  10.350   3.846
88080SOL    HW266015   3.431  10.463   3.751
88081SOL     OW66016   7.271   9.585   5.555
88081SOL    HW166017   7.219   9.661   5.527
88081SOL    HW266018   7.299   9.544   5.473
88082SOL     OW66019  13.985   8.033   4.926
88082SOL    HW166020  13.949   8.014   4.840
88082SOL    HW266021  13.962   8.125   4.942
88083SOL     OW66022  11.237   1.608   1.192
88083SOL    HW166023  11.185   1.545   1.143
88083SOL    HW266024  11.327   1.590   1.165
88084SOL     OW66025  14.733   5.629   2.659
88084SOL    HW166026  14.823   5.608   2.685
88084SOL    HW266027  14.700   5.684   2.731
88085SOL     OW66028   1.060   5.175   2.224
88085SOL    HW166029   1.010   5.208   2.300
88085SOL    HW266030   1.146   5.216   2.232
88086SOL     OW66031   6.186   2.421   2.252
88086SOL    HW166032   6.160   2.462   2.334
88086SOL    HW266033   6.131   2.464   2.186
88087SOL     OW66034  12.819   8.097   6.194
88087SOL    HW166035  12.910   8.090   6.225
88087SOL    HW266036  12.806   8.018   6.142
88088SOL     OW66037   3.475  12.086   4.340
88088SOL    HW166038   3.514  12.108   4.255
88088SOL    HW266039   3.411  12.018   4.319
88089SOL     OW66040   2.466  13.818   6.967
88089SOL    HW166041   2.432  13.886   6.908
88089SOL    HW266042   2.409  13.823   7.044
88090SOL     OW66043   6.058   9.196   4.405
88090SOL    HW166044   6.000   9.161   4.338
88090SOL    HW266045   5.999   9.219   4.478
88091SOL     OW66046  10.428  13.306   9.429
88091SOL    HW166047  10.521  13.301   9.406
88091SOL    HW266048  10.389  13.360   9.360
88092SOL     OW66049  11.930  11.967  10.846
88092SOL    HW166050  12.019  11.940  10.824
88092SOL    HW266051  11.942  12.034  10.913
88093SOL     OW66052   6.835   7.993   4.030
88093SOL    HW166053   6.925   7.973   4.004
88093SOL    HW266054   6.813   8.072   3.981
88094SOL     OW66055  10.011  14.679   3.109
88094SOL    HW166056  10.029  14.768   3.078
88094SOL    HW266057  10.007  14.627   3.029
88095SOL     OW66058   6.269  14.037   2.547
88095SOL    HW166059   6.192  14.022   2.600
88095SOL    HW266060   6.304  14.120   2.578
88096SOL     OW66061  14.461   3.274  11.874
88096SOL    HW166062  14.471   3.332  11.799
88096SOL    HW266063  14.477   3.330  11.950
88097SOL     OW66064  13.968   4.589   2.271
88097SOL    HW166065  14.026   4.630   2.334
88097SOL    HW266066  13.910   4.534   2.323
88098SOL     OW66067  14.590  12.546  10.018
88098SOL    HW166068  14.592  12.542  10.114
88098SOL    HW266069  14.507  12.506   9.994
88099SOL     OW66070   2.274   5.518  10.543
88099SOL    HW166071   2.357   5.490  10.502
88099SOL    HW266072   2.295   5.525  10.636
88100SOL     OW66073   1.388   6.758   2.100
88100SOL    HW166074   1.363   6.666   2.104
88100SOL    HW266075   1.411   6.780   2.191
88101SOL     OW66076   9.475   1.189   5.772
88101SOL    HW166077   9.513   1.139   5.844
88101SOL    HW266078   9.532   1.266   5.764
88102SOL     OW66079   2.628   5.848  13.496
88102SOL    HW166080   2.587   5.932  13.479
88102SOL    HW266081   2.673   5.859  13.579
88103SOL     OW66082  14.472  10.716   4.874
88103SOL    HW166083  14.392  10.751   4.914
88103SOL    HW266084  14.479  10.761   4.790
88104SOL     OW66085   2.874   3.691   9.467
88104SOL    HW166086   2.947   3.743   9.498
88104SOL    HW266087   2.906   3.649   9.387
88105SOL     OW66088   4.249  10.173   6.753
88105SOL    HW166089   4.201  10.255   6.758
88105SOL    HW266090   4.263  10.147   6.845
88106SOL     OW66091  14.773   7.340   4.223
88106SOL    HW166092  14.700   7.279   4.209
88106SOL    HW266093  14.733   7.415   4.269
88107SOL     OW66094  11.731  11.264   9.490
88107SOL    HW166095  11.635  11.262   9.492
88107SOL    HW266096  11.755  11.342   9.540
88108SOL     OW66097   1.258  12.667   4.303
88108SOL    HW166098   1.286  12.741   4.249
88108SOL    HW266099   1.339  12.633   4.340
88109SOL     OW66100  14.064  13.557  13.530
88109SOL    HW166101  14.130  13.619  13.499
88109SOL    HW266102  14.115  13.480  13.558
88110SOL     OW66103  10.016   1.795   9.222
88110SOL    HW166104   9.937   1.742   9.218
88110SOL    HW266105  10.030   1.811   9.316
88111SOL     OW66106   3.250  13.254   2.844
88111SOL    HW166107   3.340  13.269   2.872
88111SOL    HW266108   3.197  13.295   2.913
88112SOL     OW66109  13.281   1.751   9.066
88112SOL    HW166110  13.329   1.799   9.133
88112SOL    HW266111  13.329   1.768   8.985
88113SOL     OW66112   0.356  12.726   2.232
88113SOL    HW166113   0.374  12.816   2.204
88113SOL    HW266114   0.290  12.695   2.170
88114SOL     OW66115  10.388   2.508   4.100
88114SOL    HW166116  10.350   2.434   4.052
88114SOL    HW266117  10.338   2.512   4.181
88115SOL     OW66118   9.685   5.097   2.858
88115SOL    HW166119   9.780   5.084   2.862
88115SOL    HW266120   9.667   5.123   2.768
88116SOL     OW66121   4.355  13.885  13.349
88116SOL    HW166122   4.418  13.825  13.388
88116SOL    HW266123   4.395  13.911  13.266
88117SOL     OW66124  12.596  12.533   8.374
88117SOL    HW166125  12.640  12.472   8.434
88117SOL    HW266126  12.524  12.482   8.337
88118SOL     OW66127   6.243  10.885   9.107
88118SOL    HW166128   6.176  10.902   9.041
88118SOL    HW266129   6.205  10.819   9.164
88119SOL     OW66130   6.223  11.349  12.728
88119SOL    HW166131   6.223  11.264  12.683
88119SOL    HW266132   6.264  11.332  12.812
88120SOL     OW66133   5.973   1.317  13.547
88120SOL    HW166134   5.980   1.412  13.548
88120SOL    HW266135   6.064   1.286  13.554
88121SOL     OW66136   0.765   5.710   1.815
88121SOL    HW166137   0.858   5.720   1.795
88121SOL    HW266138   0.756   5.620   1.846
88122SOL     OW66139  11.879   4.728   4.551
88122SOL    HW166140  11.935   4.651   4.557
88122SOL    HW266141  11.923   4.786   4.489
88123SOL     OW66142   7.307   0.045  11.659
88123SOL    HW166143   7.286  14.856  11.597
88123SOL    HW266144   7.247   0.116  11.635
88124SOL     OW66145   5.508   6.148  13.902
88124SOL    HW166146   5.504   6.060  13.939
88124SOL    HW266147   5.430   6.154  13.846
88125SOL     OW66148   6.259   0.465   8.252
88125SOL    HW166149   6.222   0.387   8.210
88125SOL    HW266150   6.245   0.450   8.346
88126SOL     OW66151   1.957   9.739  12.041
88126SOL    HW166152   1.901   9.746  12.118
88126SOL    HW266153   1.944   9.649  12.011
88127SOL     OW66154   5.484   5.292   5.725
88127SOL    HW166155   5.498   5.251   5.640
88127SOL    HW266156   5.554   5.358   5.731
88128SOL     OW66157   8.033  10.813   5.248
88128SOL    HW166158   8.014  10.780   5.160
88128SOL    HW266159   8.119  10.855   5.240
88129SOL     OW66160   3.605   2.346   3.882
88129SOL    HW166161   3.569   2.414   3.826
88129SOL    HW266162   3.575   2.368   3.970
88130SOL     OW66163   6.289   7.312  13.346
88130SOL    HW166164   6.259   7.227  13.378
88130SOL    HW266165   6.217   7.345  13.293
88131SOL     OW66166  13.620   2.798   2.511
88131SOL    HW166167  13.625   2.857   2.585
88131SOL    HW266168  13.529   2.806   2.480
88132SOL     OW66169   4.027   1.951  12.711
88132SOL    HW166170   4.038   1.957  12.616
88132SOL    HW266171   3.935   1.970  12.725
88133SOL     OW66172   3.145  11.079   5.438
88133SOL    HW166173   3.193  11.131   5.374
88133SOL    HW266174   3.172  10.989   5.422
88134SOL     OW66175  11.547  12.240   2.085
88134SOL    HW166176  11.564  12.328   2.119
88134SOL    HW266177  11.633  12.199   2.080
88135SOL     OW66178   4.606   1.911  14.640
88135SOL    HW166179   4.573   1.948  14.558
88135SOL    HW266180   4.677   1.852  14.613
88136SOL     OW66181   8.967   5.573   3.836
88136SOL    HW166182   9.058   5.543   3.845
88136SOL    HW266183   8.915   5.507   3.880
88137SOL     OW66184   4.942   3.326  14.352
88137SOL    HW166185   4.996   3.358  14.279
88137SOL    HW266186   4.946   3.231  14.344
88138SOL     OW66187   5.851   8.667   8.906
88138SOL    HW166188   5.797   8.746   8.911
88138SOL    HW266189   5.941   8.700   8.896
88139SOL     OW66190   8.094  10.262   7.897
88139SOL    HW166191   8.011  10.261   7.944
88139SOL    HW266192   8.157  10.296   7.961
88140SOL     OW66193  11.524   4.590  14.125
88140SOL    HW166194  11.434   4.619  14.140
88140SOL    HW266195  11.531   4.581  14.030
88141SOL     OW66196  10.030   6.903   6.985
88141SOL    HW166197  10.070   6.990   6.989
88141SOL    HW266198  10.001   6.894   6.895
88142SOL     OW66199   2.424   4.727   7.606
88142SOL    HW166200   2.433   4.740   7.512
88142SOL    HW266201   2.374   4.646   7.614
88143SOL     OW66202  10.893   2.277   4.246
88143SOL    HW166203  10.963   2.307   4.188
88143SOL    HW266204  10.938   2.253   4.328
88144SOL     OW66205   9.095   7.316   8.540
88144SOL    HW166206   9.087   7.326   8.635
88144SOL    HW266207   9.027   7.373   8.504
88145SOL     OW66208  13.291  14.410   5.364
88145SOL    HW166209  13.261  14.461   5.440
88145SOL    HW266210  13.338  14.474   5.311
88146SOL     OW66211  10.719   8.078   2.667
88146SOL    HW166212  10.812   8.065   2.650
88146SOL    HW266213  10.706   8.172   2.658
88147SOL     OW66214   8.628   5.868  11.957
88147SOL    HW166215   8.544   5.879  11.912
88147SOL    HW266216   8.662   5.957  11.967
88148SOL     OW66217   6.440  13.357   9.714
88148SOL    HW166218   6.398  13.323   9.636
88148SOL    HW266219   6.389  13.434   9.738
88149SOL     OW66220   1.344   4.351   1.910
88149SOL    HW166221   1.384   4.436   1.924
88149SOL    HW266222   1.413   4.288   1.930
88150SOL     OW66223   4.449  12.479  10.159
88150SOL    HW166224   4.407  12.394  10.155
88150SOL    HW266225   4.542  12.461  10.146
88151SOL     OW66226   6.144   3.928  11.008
88151SOL    HW166227   6.200   3.850  11.006
88151SOL    HW266228   6.126   3.943  11.101
88152SOL     OW66229   2.198   8.532   6.629
88152SOL    HW166230   2.173   8.479   6.705
88152SOL    HW266231   2.257   8.598   6.665
88153SOL     OW66232   5.633   0.651   3.901
88153SOL    HW166233   5.553   0.600   3.883
88153SOL    HW266234   5.607   0.710   3.972
88154SOL     OW66235   6.097   8.243   6.018
88154SOL    HW166236   6.167   8.218   5.958
88154SOL    HW266237   6.140   8.293   6.087
88155SOL     OW66238   8.489   4.196  11.390
88155SOL    HW166239   8.409   4.248  11.391
88155SOL    HW266240   8.462   4.111  11.355
88156SOL     OW66241   6.624   9.211  10.028
88156SOL    HW166242   6.555   9.256  10.077
88156SOL    HW266243   6.649   9.138  10.084
88157SOL     OW66244   5.186   2.167   6.426
88157SOL    HW166245   5.256   2.131   6.481
88157SOL    HW266246   5.212   2.142   6.337
88158SOL     OW66247   5.484  10.847   7.385
88158SOL    HW166248   5.516  10.856   7.475
88158SOL    HW266249   5.393  10.821   7.394
88159SOL     OW66250   1.686   6.790  13.254
88159SOL    HW166251   1.758   6.834  13.299
88159SOL    HW266252   1.688   6.825  13.165
88160SOL     OW66253   3.014   3.414   2.497
88160SOL    HW166254   2.977   3.488   2.545
88160SOL    HW266255   3.103   3.442   2.475
88161SOL     OW66256   9.445   3.684   1.102
88161SOL    HW166257   9.498   3.605   1.112
88161SOL    HW266258   9.356   3.658   1.127
88162SOL     OW66259   1.742   3.599   9.243
88162SOL    HW166260   1.822   3.576   9.196
88162SOL    HW266261   1.770   3.613   9.333
88163SOL     OW66262   4.081   9.197  13.312
88163SOL    HW166263   4.145   9.127  13.301
88163SOL    HW266264   4.028   9.194  13.232
88164SOL     OW66265  11.430   6.526   1.475
88164SOL    HW166266  11.406   6.495   1.562
88164SOL    HW266267  11.350   6.568   1.442
88165SOL     OW66268  13.180   1.297  13.376
88165SOL    HW166269  13.173   1.390  13.398
88165SOL    HW266270  13.271   1.275  13.396
88166SOL     OW66271   8.017   8.853   6.197
88166SOL    HW166272   8.097   8.801   6.185
88166SOL    HW266273   7.955   8.815   6.135
88167SOL     OW66274   0.862  12.692   0.503
88167SOL    HW166275   0.956  12.703   0.490
88167SOL    HW266276   0.833  12.774   0.542
88168SOL     OW66277  13.966  12.653  11.719
88168SOL    HW166278  14.016  12.734  11.720
88168SOL    HW266279  13.885  12.674  11.673
88169SOL     OW66280  14.362   5.349   6.142
88169SOL    HW166281  14.289   5.411   6.138
88169SOL    HW266282  14.403   5.367   6.227
88170SOL     OW66283   5.531   7.718  10.882
88170SOL    HW166284   5.575   7.799  10.910
88170SOL    HW266285   5.447   7.720  10.927
88171SOL     OW66286   9.398  10.392   4.072
88171SOL    HW166287   9.309  10.360   4.090
88171SOL    HW266288   9.424  10.346   3.992
88172SOL     OW66289  12.697   8.673  13.684
88172SOL    HW166290  12.607   8.648  13.708
88172SOL    HW266291  12.726   8.729  13.756
88173SOL     OW66292   2.441   9.544   5.955
88173SOL    HW166293   2.472   9.583   5.873
88173SOL    HW266294   2.487   9.594   6.023
88174SOL     OW66295   7.971   4.563  12.613
88174SOL    HW166296   7.960   4.516  12.696
88174SOL    HW266297   8.059   4.600  12.618
88175SOL     OW66298  14.024  13.127   1.998
88175SOL    HW166299  14.010  13.193   1.931
88175SOL    HW266300  13.986  13.164   2.078
88176SOL     OW66301   8.995   9.201   6.803
88176SOL    HW166302   8.990   9.239   6.715
88176SOL    HW266303   8.967   9.272   6.861
88177SOL     OW66304  14.086   1.512  14.384
88177SOL    HW166305  14.101   1.569  14.309
88177SOL    HW266306  13.995   1.530  14.409
88178SOL     OW66307   0.959  12.651   9.699
88178SOL    HW166308   0.914  12.731   9.725
88178SOL    HW266309   0.922  12.629   9.614
88179SOL     OW66310  11.845   0.825  14.197
88179SOL    HW166311  11.877   0.845  14.285
88179SOL    HW266312  11.762   0.872  14.190
88180SOL     OW66313   3.049   4.794   9.234
88180SOL    HW166314   2.966   4.775   9.279
88180SOL    HW266315   3.023   4.844   9.157
88181SOL     OW66316   2.222   7.281  11.855
88181SOL    HW166317   2.280   7.354  11.831
88181SOL    HW266318   2.272   7.203  11.830
88182SOL     OW66319   6.074   6.627   1.307
88182SOL    HW166320   6.062   6.712   1.350
88182SOL    HW266321   6.098   6.650   1.217
88183SOL     OW66322  11.516   3.129   1.880
88183SOL    HW166323  11.570   3.095   1.809
88183SOL    HW266324  11.524   3.064   1.950
88184SOL     OW66325   1.786   0.611   4.750
88184SOL    HW166326   1.716   0.661   4.707
88184SOL    HW266327   1.740   0.545   4.801
88185SOL     OW66328   3.315   6.933  14.697
88185SOL    HW166329   3.362   7.016  14.691
88185SOL    HW266330   3.224   6.956  14.680
88186SOL     OW66331   0.235   3.220  14.167
88186SOL    HW166332   0.288   3.208  14.245
88186SOL    HW266333   0.156   3.264  14.198
88187SOL     OW66334   4.331   6.976  11.105
88187SOL    HW166335   4.376   6.997  11.187
88187SOL    HW266336   4.308   7.062  11.068
88188SOL     OW66337   9.952   8.206   5.457
88188SOL    HW166338  10.019   8.144   5.487
88188SOL    HW266339   9.909   8.161   5.384
88189SOL     OW66340  10.924   0.702   7.399
88189SOL    HW166341  10.852   0.640   7.404
88189SOL    HW266342  10.901   0.771   7.461
88190SOL     OW66343   6.160  10.749  10.547
88190SOL    HW166344   6.181  10.674  10.603
88190SOL    HW266345   6.232  10.810  10.560
88191SOL     OW66346   5.055   1.294   3.902
88191SOL    HW166347   5.138   1.341   3.904
88191SOL    HW266348   5.032   1.281   3.994
88192SOL     OW66349  10.390   0.756  13.304
88192SOL    HW166350  10.478   0.748  13.268
88192SOL    HW266351  10.352   0.832  13.259
88193SOL     OW66352  12.276  12.186   4.602
88193SOL    HW166353  12.265  12.146   4.516
88193SOL    HW266354  12.330  12.264   4.585
88194SOL     OW66355   2.838   8.220   9.864
88194SOL    HW166356   2.931   8.213   9.840
88194SOL    HW266357   2.822   8.145   9.921
88195SOL     OW66358   3.176   7.145   2.205
88195SOL    HW166359   3.242   7.122   2.140
88195SOL    HW266360   3.217   7.127   2.289
88196SOL     OW66361   5.164   8.726  12.597
88196SOL    HW166362   5.173   8.728  12.693
88196SOL    HW266363   5.077   8.690  12.582
88197SOL     OW66364   4.291   2.452   6.895
88197SOL    HW166365   4.232   2.406   6.834
88197SOL    HW266366   4.234   2.485   6.964
88198SOL     OW66367  12.500  11.984   2.252
88198SOL    HW166368  12.410  11.982   2.219
88198SOL    HW266369  12.543  11.910   2.210
88199SOL     OW66370   9.054  10.021   4.040
88199SOL    HW166371   9.075   9.954   4.105
88199SOL    HW266372   9.113  10.002   3.967
88200SOL     OW66373   0.785   6.288   4.102
88200SOL    HW166374   0.780   6.377   4.137
88200SOL    HW266375   0.794   6.232   4.178
88201SOL     OW66376   3.533  14.309   5.823
88201SOL    HW166377   3.473  14.276   5.890
88201SOL    HW266378   3.508  14.261   5.744
88202SOL     OW66379  13.625  14.418  14.705
88202SOL    HW166380  13.609  14.483  14.637
88202SOL    HW266381  13.628  14.469  14.786
88203SOL     OW66382   8.394  14.299   7.827
88203SOL    HW166383   8.308  14.283   7.867
88203SOL    HW266384   8.437  14.359   7.888
88204SOL     OW66385   0.433  10.159   0.941
88204SOL    HW166386   0.407  10.107   1.017
88204SOL    HW266387   0.355  10.162   0.885
88205SOL     OW66388   2.754   0.500  11.682
88205SOL    HW166389   2.848   0.482  11.685
88205SOL    HW266390   2.715   0.417  11.656
88206SOL     OW66391  14.373  12.618   4.700
88206SOL    HW166392  14.459  12.589   4.669
88206SOL    HW266393  14.381  12.618   4.796
88207SOL     OW66394  12.643   2.686  11.168
88207SOL    HW166395  12.707   2.752  11.193
88207SOL    HW266396  12.622   2.640  11.249
88208SOL     OW66397  10.408   6.833   3.384
88208SOL    HW166398  10.342   6.872   3.442
88208SOL    HW266399  10.372   6.844   3.296
88209SOL     OW66400   4.158   2.264   0.939
88209SOL    HW166401   4.171   2.212   0.860
88209SOL    HW266402   4.121   2.202   1.002
88210SOL     OW66403  11.704   8.452   4.400
88210SOL    HW166404  11.628   8.411   4.440
88210SOL    HW266405  11.776   8.432   4.459
88211SOL     OW66406  12.643   5.947   6.517
88211SOL    HW166407  12.685   5.907   6.441
88211SOL    HW266408  12.569   5.996   6.480
88212SOL     OW66409   0.083  13.712   6.699
88212SOL    HW166410   0.013  13.704   6.765
88212SOL    HW266411   0.062  13.645   6.634
88213SOL     OW66412   3.747   2.459  12.766
88213SOL    HW166413   3.736   2.386  12.704
88213SOL    HW266414   3.823   2.434  12.819
88214SOL     OW66415  14.780  11.168   1.653
88214SOL    HW166416  14.813  11.215   1.730
88214SOL    HW266417  14.685  11.174   1.661
88215SOL     OW66418   3.157  14.647   4.398
88215SOL    HW166419   3.242  14.677   4.365
88215SOL    HW266420   3.096  14.665   4.326
88216SOL     OW66421   9.562   5.659   9.074
88216SOL    HW166422   9.598   5.600   9.141
88216SOL    HW266423   9.467   5.652   9.084
88217SOL     OW66424   4.199   6.963  13.430
88217SOL    HW166425   4.110   6.948  13.462
88217SOL    HW266426   4.187   7.017  13.351
88218SOL     OW66427   2.156  13.361   0.846
88218SOL    HW166428   2.101  13.405   0.911
88218SOL    HW266429   2.246  13.381   0.872
88219SOL     OW66430  14.618   9.165   9.080
88219SOL    HW166431  14.565   9.120   9.146
88219SOL    HW266432  14.560   9.235   9.048
88220SOL     OW66433   9.902   7.270   5.739
88220SOL    HW166434   9.872   7.321   5.664
88220SOL    HW266435   9.935   7.188   5.701
88221SOL     OW66436   5.867   1.476   5.752
88221SOL    HW166437   5.815   1.398   5.768
88221SOL    HW266438   5.818   1.547   5.795
88222SOL     OW66439   5.544   2.477   2.560
88222SOL    HW166440   5.502   2.563   2.560
88222SOL    HW266441   5.475   2.417   2.532
88223SOL     OW66442   6.234   2.923   8.549
88223SOL    HW166443   6.269   2.876   8.474
88223SOL    HW266444   6.185   2.857   8.598
88224SOL     OW66445   7.227   7.746   9.037
88224SOL    HW166446   7.169   7.672   9.057
88224SOL    HW266447   7.180   7.823   9.069
88225SOL     OW66448   8.936  13.814  11.184
88225SOL    HW166449   8.852  13.808  11.230
88225SOL    HW266450   8.994  13.858  11.246
88226SOL     OW66451   8.001   3.870  11.619
88226SOL    HW166452   8.047   3.868  11.535
88226SOL    HW266453   8.059   3.919  11.677
88227SOL     OW66454   5.389  12.827   5.639
88227SOL    HW166455   5.421  12.788   5.721
88227SOL    HW266456   5.296  12.807   5.638
88228SOL     OW66457  12.288  11.551  13.177
88228SOL    HW166458  12.331  11.533  13.094
88228SOL    HW266459  12.313  11.641  13.198
88229SOL     OW66460   1.224  14.449   4.922
88229SOL    HW166461   1.318  14.445   4.938
88229SOL    HW266462   1.188  14.490   5.000
88230SOL     OW66463   1.610  12.286  13.041
88230SOL    HW166464   1.673  12.282  12.969
88230SOL    HW266465   1.663  12.295  13.120
88231SOL     OW66466  10.805   0.729  10.206
88231SOL    HW166467  10.752   0.798  10.167
88231SOL    HW266468  10.796   0.743  10.301
88232SOL     OW66469   0.400   3.595   8.110
88232SOL    HW166470   0.306   3.592   8.090
88232SOL    HW266471   0.436   3.654   8.044
88233SOL     OW66472   1.748   9.660  11.138
88233SOL    HW166473   1.810   9.671  11.210
88233SOL    HW266474   1.673   9.713  11.163
88234SOL     OW66475  12.640  13.148   9.294
88234SOL    HW166476  12.700  13.134   9.221
88234SOL    HW266477  12.647  13.242   9.312
88235SOL     OW66478   8.714   9.587   5.956
88235SOL    HW166479   8.687   9.495   5.960
88235SOL    HW266480   8.632   9.635   5.940
88236SOL     OW66481  12.764   5.435   2.679
88236SOL    HW166482  12.856   5.424   2.706
88236SOL    HW266483  12.765   5.513   2.624
88237SOL     OW66484  12.499   3.177  10.005
88237SOL    HW166485  12.589   3.152  10.027
88237SOL    HW266486  12.458   3.194  10.089
88238SOL     OW66487  11.234  11.424  12.445
88238SOL    HW166488  11.179  11.412  12.523
88238SOL    HW266489  11.322  11.403  12.474
88239SOL     OW66490  10.468  10.349   4.625
88239SOL    HW166491  10.429  10.388   4.703
88239SOL    HW266492  10.563  10.356   4.639
88240SOL     OW66493  11.413   7.335  10.492
88240SOL    HW166494  11.416   7.425  10.459
88240SOL    HW266495  11.473   7.334  10.566
88241SOL     OW66496   3.628   9.997   4.463
88241SOL    HW166497   3.545   9.995   4.511
88241SOL    HW266498   3.692  10.025   4.529
88242SOL     OW66499   9.336   2.972  13.039
88242SOL    HW166500   9.383   3.054  13.034
88242SOL    HW266501   9.318   2.960  13.132
88243SOL     OW66502   8.102   0.753   8.693
88243SOL    HW166503   8.189   0.717   8.676
88243SOL    HW266504   8.044   0.704   8.635
88244SOL     OW66505  12.465   3.833  10.962
88244SOL    HW166506  12.487   3.869  10.877
88244SOL    HW266507  12.369   3.825  10.960
88245SOL     OW66508   1.399  13.667  11.029
88245SOL    HW166509   1.310  13.660  11.065
88245SOL    HW266510   1.435  13.746  11.069
88246SOL     OW66511   7.662  12.464   2.609
88246SOL    HW166512   7.736  12.404   2.617
88246SOL    HW266513   7.620  12.439   2.527
88247SOL     OW66514   2.529   1.504  11.549
88247SOL    HW166515   2.546   1.511  11.455
88247SOL    HW266516   2.442   1.542  11.561
88248SOL     OW66517  14.055   6.220   2.215
88248SOL    HW166518  14.144   6.209   2.181
88248SOL    HW266519  14.040   6.314   2.212
88249SOL     OW66520   6.870  11.156  10.070
88249SOL    HW166521   6.945  11.191  10.119
88249SOL    HW266522   6.826  11.233  10.034
88250SOL     OW66523  10.869   9.979   0.382
88250SOL    HW166524  10.900   9.909   0.441
88250SOL    HW266525  10.802  10.025   0.434
88251SOL     OW66526   9.523   1.605   9.937
88251SOL    HW166527   9.552   1.544   9.870
88251SOL    HW266528   9.513   1.552  10.016
88252SOL     OW66529   2.668  11.414   4.789
88252SOL    HW166530   2.723  11.467   4.731
88252SOL    HW266531   2.579  11.428   4.757
88253SOL     OW66532   1.231   7.272   7.638
88253SOL    HW166533   1.175   7.225   7.576
88253SOL    HW266534   1.173   7.339   7.676
88254SOL     OW66535  10.618   2.377  13.504
88254SOL    HW166536  10.637   2.325  13.426
88254SOL    HW266537  10.701   2.417  13.528
88255SOL     OW66538   5.040  13.766   3.856
88255SOL    HW166539   5.071  13.826   3.789
88255SOL    HW266540   5.119  13.740   3.903
88256SOL     OW66541   7.812   2.231   3.262
88256SOL    HW166542   7.846   2.289   3.330
88256SOL    HW266543   7.853   2.146   3.280
88257SOL     OW66544   5.605  13.442   2.706
88257SOL    HW166545   5.514  13.411   2.707
88257SOL    HW266546   5.629  13.443   2.613
88258SOL     OW66547   2.076   3.652   7.013
88258SOL    HW166548   2.025   3.573   7.030
88258SOL    HW266549   2.011   3.722   7.009
88259SOL     OW66550   0.358   7.520  10.516
88259SOL    HW166551   0.263   7.525  10.502
88259SOL    HW266552   0.385   7.610  10.530
88260SOL     OW66553   2.050   6.435  14.250
88260SOL    HW166554   2.043   6.378  14.173
88260SOL    HW266555   2.076   6.376  14.321
88261SOL     OW66556   9.331  13.236  12.367
88261SOL    HW166557   9.326  13.145  12.336
88261SOL    HW266558   9.392  13.233  12.440
88262SOL     OW66559  13.967  12.637   4.323
88262SOL    HW166560  14.040  12.597   4.371
88262SOL    HW266561  13.888  12.605   4.366
88263SOL     OW66562   0.970   0.631  13.534
88263SOL    HW166563   0.980   0.725  13.549
88263SOL    HW266564   0.918   0.624  13.454
88264SOL     OW66565   6.871  12.465  13.225
88264SOL    HW166566   6.948  12.522  13.225
88264SOL    HW266567   6.883  12.409  13.149
88265SOL     OW66568   5.477  12.920   0.620
88265SOL    HW166569   5.531  12.998   0.609
88265SOL    HW266570   5.540  12.848   0.629
88266SOL     OW66571   8.227   9.954   5.229
88266SOL    HW166572   8.232   9.891   5.157
88266SOL    HW266573   8.176   9.908   5.296
88267SOL     OW66574   5.255  14.624  10.424
88267SOL    HW166575   5.241  14.719  10.428
88267SOL    HW266576   5.339  14.615  10.379
88268SOL     OW66577  10.154   2.108  14.631
88268SOL    HW166578  10.091   2.054  14.679
88268SOL    HW266579  10.166   2.185  14.685
88269SOL     OW66580   2.005   8.158  10.222
88269SOL    HW166581   2.030   8.124  10.308
88269SOL    HW266582   2.013   8.253  10.231
88270SOL     OW66583  14.322   0.402  11.159
88270SOL    HW166584  14.252   0.345  11.190
88270SOL    HW266585  14.277   0.470  11.108
88271SOL     OW66586   1.252   0.561  13.123
88271SOL    HW166587   1.262   0.621  13.196
88271SOL    HW266588   1.338   0.561  13.080
88272SOL     OW66589   1.181   8.338   1.918
88272SOL    HW166590   1.215   8.259   1.961
88272SOL    HW266591   1.089   8.318   1.901
88273SOL     OW66592   4.153   3.325   8.374
88273SOL    HW166593   4.084   3.345   8.437
88273SOL    HW266594   4.129   3.240   8.338
88274SOL     OW66595  14.440   7.148   2.974
88274SOL    HW166596  14.493   7.179   3.048
88274SOL    HW266597  14.416   7.058   2.997
88275SOL     OW66598  11.841   4.267   5.484
88275SOL    HW166599  11.774   4.334   5.498
88275SOL    HW266600  11.917   4.315   5.451
88276SOL     OW66601   5.998   7.572   1.964
88276SOL    HW166602   6.066   7.594   2.027
88276SOL    HW266603   5.929   7.636   1.979
88277SOL     OW66604  12.986   6.067  14.109
88277SOL    HW166605  12.974   5.987  14.158
88277SOL    HW266606  12.952   6.048  14.022
88278SOL     OW66607  12.731   3.282   7.440
88278SOL    HW166608  12.814   3.246   7.408
88278SOL    HW266609  12.670   3.209   7.436
88279SOL     OW66610  14.405   2.524  11.595
88279SOL    HW166611  14.316   2.558  11.608
88279SOL    HW266612  14.394   2.452  11.533
88280SOL     OW66613   4.861   3.461   7.776
88280SOL    HW166614   4.887   3.392   7.715
88280SOL    HW266615   4.900   3.541   7.739
88281SOL     OW66616  12.874   1.607   6.027
88281SOL    HW166617  12.944   1.660   5.989
88281SOL    HW266618  12.822   1.579   5.951
88282SOL     OW66619   8.873   2.612  14.350
88282SOL    HW166620   8.855   2.520  14.333
88282SOL    HW266621   8.927   2.640  14.277
88283SOL     OW66622   5.803   7.623  11.056
88283SOL    HW166623   5.819   7.674  10.976
88283SOL    HW266624   5.742   7.676  11.107
88284SOL     OW66625   5.764   7.994   9.405
88284SOL    HW166626   5.829   8.043   9.355
88284SOL    HW266627   5.688   7.986   9.347
88285SOL     OW66628   1.580  12.800   8.956
88285SOL    HW166629   1.537  12.746   8.889
88285SOL    HW266630   1.650  12.744   8.990
88286SOL     OW66631   8.503  10.266   3.750
88286SOL    HW166632   8.579  10.319   3.724
88286SOL    HW266633   8.428  10.319   3.725
88287SOL     OW66634   2.849   5.003   4.284
88287SOL    HW166635   2.808   4.916   4.279
88287SOL    HW266636   2.938   4.986   4.316
88288SOL     OW66637   2.372  12.683  14.137
88288SOL    HW166638   2.392  12.689  14.230
88288SOL    HW266639   2.339  12.769  14.114
88289SOL     OW66640   3.240  11.938   2.954
88289SOL    HW166641   3.187  11.996   3.009
88289SOL    HW266642   3.229  11.852   2.993
88290SOL     OW66643  12.875   7.897  10.893
88290SOL    HW166644  12.849   7.839  10.821
88290SOL    HW266645  12.805   7.889  10.957
88291SOL     OW66646   7.732   3.257   3.277
88291SOL    HW166647   7.636   3.256   3.270
88291SOL    HW266648   7.750   3.211   3.359
88292SOL     OW66649   5.724   3.197  12.590
88292SOL    HW166650   5.714   3.116  12.538
88292SOL    HW266651   5.811   3.229  12.567
88293SOL     OW66652   5.108   2.919  10.025
88293SOL    HW166653   5.073   2.992   9.975
88293SOL    HW266654   5.201   2.918  10.005
88294SOL     OW66655   8.852  11.151  14.050
88294SOL    HW166656   8.814  11.086  13.991
88294SOL    HW266657   8.797  11.147  14.129
88295SOL     OW66658  11.283  11.421   1.868
88295SOL    HW166659  11.362  11.460   1.906
88295SOL    HW266660  11.228  11.496   1.846
88296SOL     OW66661   8.345   2.948  13.475
88296SOL    HW166662   8.305   3.026  13.515
88296SOL    HW266663   8.428   2.939  13.521
88297SOL     OW66664   5.074   8.280  11.799
88297SOL    HW166665   5.018   8.319  11.866
88297SOL    HW266666   5.081   8.347  11.732
88298SOL     OW66667   2.689   7.302   2.675
88298SOL    HW166668   2.628   7.235   2.643
88298SOL    HW266669   2.651   7.331   2.758
88299SOL     OW66670   7.122   0.987   9.094
88299SOL    HW166671   7.035   1.028   9.097
88299SOL    HW266672   7.137   0.956   9.184
88300SOL     OW66673   4.029  12.385  12.620
88300SOL    HW166674   3.971  12.313  12.644
88300SOL    HW266675   4.070  12.356  12.538
88301SOL     OW66676   2.224  14.804  10.742
88301SOL    HW166677   2.193  14.776  10.656
88301SOL    HW266678   2.268  14.727  10.778
88302SOL     OW66679  14.348   6.092   3.554
88302SOL    HW166680  14.430   6.049   3.535
88302SOL    HW266681  14.352   6.174   3.504
88303SOL     OW66682  12.297   6.600   9.575
88303SOL    HW166683  12.217   6.570   9.532
88303SOL    HW266684  12.336   6.521   9.613
88304SOL     OW66685   7.301   5.518   1.938
88304SOL    HW166686   7.386   5.495   1.902
88304SOL    HW266687   7.237   5.487   1.874
88305SOL     OW66688   8.487  10.092   0.103
88305SOL    HW166689   8.582  10.086   0.109
88305SOL    HW266690   8.466  10.061   0.015
88306SOL     OW66691  10.528   2.403   9.166
88306SOL    HW166692  10.535   2.312   9.136
88306SOL    HW266693  10.606   2.446   9.131
88307SOL     OW66694   1.391  12.196  12.886
88307SOL    HW166695   1.422  12.108  12.909
88307SOL    HW266696   1.445  12.255  12.938
88308SOL     OW66697  14.110  12.135   9.373
88308SOL    HW166698  14.201  12.161   9.361
88308SOL    HW266699  14.104  12.048   9.334
88309SOL     OW66700  10.929   2.586  13.362
88309SOL    HW166701  10.839   2.563  13.339
88309SOL    HW266702  10.943   2.547  13.448
88310SOL     OW66703  14.406   5.013   0.646
88310SOL    HW166704  14.480   5.071   0.664
88310SOL    HW266705  14.438   4.925   0.666
88311SOL     OW66706   5.803   5.469   4.228
88311SOL    HW166707   5.824   5.519   4.149
88311SOL    HW266708   5.812   5.378   4.201
88312SOL     OW66709   9.899  12.632   1.389
88312SOL    HW166710   9.929  12.676   1.310
88312SOL    HW266711   9.962  12.658   1.457
88313SOL     OW66712   2.867   7.739   8.299
88313SOL    HW166713   2.897   7.822   8.261
88313SOL    HW266714   2.772   7.743   8.291
88314SOL     OW66715   0.437  13.718  13.013
88314SOL    HW166716   0.344  13.696  13.021
88314SOL    HW266717   0.464  13.681  12.929
88315SOL     OW66718  12.130  14.292   4.083
88315SOL    HW166719  12.054  14.349   4.068
88315SOL    HW266720  12.203  14.340   4.044
88316SOL     OW66721   4.600   6.313   5.555
88316SOL    HW166722   4.516   6.319   5.510
88316SOL    HW266723   4.577   6.285   5.644
88317SOL     OW66724   6.567   9.369  10.440
88317SOL    HW166725   6.585   9.462  10.428
88317SOL    HW266726   6.489   9.367  10.496
88318SOL     OW66727   1.442   7.067  11.875
88318SOL    HW166728   1.467   6.981  11.840
88318SOL    HW266729   1.363   7.090  11.826
88319SOL     OW66730   5.638   9.751   4.908
88319SOL    HW166731   5.549   9.767   4.877
88319SOL    HW266732   5.636   9.774   5.001
88320SOL     OW66733   9.000  13.623   4.932
88320SOL    HW166734   8.999  13.689   4.862
88320SOL    HW266735   8.963  13.668   5.008
88321SOL     OW66736   9.472  13.794   8.699
88321SOL    HW166737   9.517  13.752   8.626
88321SOL    HW266738   9.535  13.857   8.733
88322SOL     OW66739   2.710  14.344   9.851
88322SOL    HW166740   2.760  14.268   9.821
88322SOL    HW266741   2.669  14.379   9.773
88323SOL     OW66742  14.562   7.797  11.473
88323SOL    HW166743  14.633   7.785  11.535
88323SOL    HW266744  14.521   7.880  11.498
88324SOL     OW66745   5.655   2.750  11.053
88324SOL    HW166746   5.598   2.676  11.072
88324SOL    HW266747   5.678   2.740  10.961
88325SOL     OW66748   1.182   1.952  12.418
88325SOL    HW166749   1.174   2.047  12.420
88325SOL    HW266750   1.152   1.927  12.331
88326SOL     OW66751  13.761   9.590   6.489
88326SOL    HW166752  13.707   9.581   6.567
88326SOL    HW266753  13.839   9.636   6.518
88327SOL     OW66754   5.360   3.278   1.691
88327SOL    HW166755   5.395   3.198   1.651
88327SOL    HW266756   5.434   3.313   1.742
88328SOL     OW66757   6.295   3.166   5.783
88328SOL    HW166758   6.234   3.140   5.852
88328SOL    HW266759   6.369   3.105   5.793
88329SOL     OW66760   9.468   8.649   2.766
88329SOL    HW166761   9.509   8.567   2.742
88329SOL    HW266762   9.531   8.692   2.824
88330SOL     OW66763   2.307  10.449  11.809
88330SOL    HW166764   2.359  10.401  11.873
88330SOL    HW266765   2.310  10.540  11.839
88331SOL     OW66766   6.450   0.137  13.025
88331SOL    HW166767   6.520   0.079  13.055
88331SOL    HW266768   6.489   0.183  12.950
88332SOL     OW66769   3.461  11.162  12.258
88332SOL    HW166770   3.499  11.205  12.336
88332SOL    HW266771   3.474  11.069  12.274
88333SOL     OW66772   9.458   5.875   4.893
88333SOL    HW166773   9.532   5.821   4.868
88333SOL    HW266774   9.497   5.954   4.932
88334SOL     OW66775  14.272   7.548   0.205
88334SOL    HW166776  14.283   7.475   0.265
88334SOL    HW266777  14.201   7.521   0.147
88335SOL     OW66778  13.641  12.470   1.360
88335SOL    HW166779  13.609  12.552   1.323
88335SOL    HW266780  13.628  12.406   1.290
88336SOL     OW66781   9.939   2.691   7.873
88336SOL    HW166782  10.027   2.728   7.882
88336SOL    HW266783   9.953   2.596   7.870
88337SOL     OW66784   8.361  12.126   4.586
88337SOL    HW166785   8.278  12.139   4.540
88337SOL    HW266786   8.424  12.106   4.517
88338SOL     OW66787  11.367  11.631  14.639
88338SOL    HW166788  11.343  11.675  14.721
88338SOL    HW266789  11.294  11.572  14.621
88339SOL     OW66790  11.127  13.736  11.186
88339SOL    HW166791  11.125  13.774  11.274
88339SOL    HW266792  11.035  13.724  11.163
88340SOL     OW66793   8.343   6.220   0.944
88340SOL    HW166794   8.400   6.295   0.927
88340SOL    HW266795   8.316   6.230   1.035
88341SOL     OW66796   4.274  12.962  11.006
88341SOL    HW166797   4.285  12.980  10.913
88341SOL    HW266798   4.251  12.869  11.010
88342SOL     OW66799   9.599  12.068   4.988
88342SOL    HW166800   9.594  12.153   4.944
88342SOL    HW266801   9.688  12.039   4.973
88343SOL     OW66802   9.732  11.297   3.266
88343SOL    HW166803   9.668  11.247   3.215
88343SOL    HW266804   9.817  11.262   3.238
88344SOL     OW66805  13.930   6.320   9.381
88344SOL    HW166806  13.848   6.339   9.427
88344SOL    HW266807  13.999   6.342   9.445
88345SOL     OW66808   3.740   1.969   5.385
88345SOL    HW166809   3.757   2.048   5.333
88345SOL    HW266810   3.814   1.964   5.446
88346SOL     OW66811   9.857   1.139  10.788
88346SOL    HW166812   9.819   1.065  10.836
88346SOL    HW266813   9.950   1.138  10.813
88347SOL     OW66814   1.010   9.028   0.014
88347SOL    HW166815   0.929   9.079   0.027
88347SOL    HW266816   1.077   9.094  14.876
88348SOL     OW66817   4.618   9.350   0.854
88348SOL    HW166818   4.666   9.422   0.896
88348SOL    HW266819   4.686   9.287   0.829
88349SOL     OW66820   0.438   9.836  12.121
88349SOL    HW166821   0.374   9.847  12.191
88349SOL    HW266822   0.457   9.742  12.120
88350SOL     OW66823  11.050   5.185   8.560
88350SOL    HW166824  11.040   5.148   8.647
88350SOL    HW266825  11.043   5.280   8.573
88351SOL     OW66826  12.288  13.841  14.359
88351SOL    HW166827  12.273  13.876  14.447
88351SOL    HW266828  12.223  13.771  14.350
88352SOL     OW66829  14.533   7.446   9.833
88352SOL    HW166830  14.473   7.511   9.796
88352SOL    HW266831  14.615   7.492   9.844
88353SOL     OW66832   2.922   9.671  14.456
88353SOL    HW166833   2.946   9.739  14.392
88353SOL    HW266834   3.004   9.652  14.501
88354SOL     OW66835   0.006  14.623   1.610
88354SOL    HW166836   0.052  14.655   1.533
88354SOL    HW266837   0.057  14.546   1.638
88355SOL     OW66838  13.108   1.538   0.113
88355SOL    HW166839  13.036   1.567   0.056
88355SOL    HW266840  13.186   1.580   0.075
88356SOL     OW66841   6.756   4.918   6.756
88356SOL    HW166842   6.786   4.828   6.764
88356SOL    HW266843   6.685   4.925   6.820
88357SOL     OW66844   9.453  12.062   8.911
88357SOL    HW166845   9.430  11.993   8.849
88357SOL    HW266846   9.402  12.137   8.883
88358SOL     OW66847  10.254  10.738   5.825
88358SOL    HW166848  10.187  10.758   5.890
88358SOL    HW266849  10.337  10.759   5.868
88359SOL     OW66850  10.545   8.439   5.848
88359SOL    HW166851  10.513   8.511   5.902
88359SOL    HW266852  10.580   8.375   5.910
88360SOL     OW66853   7.213   5.638   5.948
88360SOL    HW166854   7.130   5.591   5.946
88360SOL    HW266855   7.251   5.623   5.862
88361SOL     OW66856   2.149   7.203   4.834
88361SOL    HW166857   2.153   7.107   4.837
88361SOL    HW266858   2.240   7.231   4.839
88362SOL     OW66859   0.028   2.512  14.160
88362SOL    HW166860   0.026   2.550  14.248
88362SOL    HW266861  14.843   2.561  14.112
88363SOL     OW66862   9.056  12.394   4.970
88363SOL    HW166863   9.056  12.321   4.908
88363SOL    HW266864   9.000  12.364   5.042
88364SOL     OW66865   9.689   1.106   8.464
88364SOL    HW166866   9.664   1.185   8.512
88364SOL    HW266867   9.727   1.138   8.382
88365SOL     OW66868   3.504  14.207   5.244
88365SOL    HW166869   3.567  14.145   5.281
88365SOL    HW266870   3.462  14.247   5.320
88366SOL     OW66871  11.295  13.473  13.382
88366SOL    HW166872  11.317  13.381  13.400
88366SOL    HW266873  11.258  13.505  13.463
88367SOL     OW66874   3.267   7.965   1.141
88367SOL    HW166875   3.202   8.025   1.178
88367SOL    HW266876   3.264   7.982   1.047
88368SOL     OW66877   6.407  14.518   4.147
88368SOL    HW166878   6.460  14.514   4.067
88368SOL    HW266879   6.321  14.546   4.117
88369SOL     OW66880   5.912   4.476   2.721
88369SOL    HW166881   5.932   4.388   2.753
88369SOL    HW266882   5.981   4.532   2.758
88370SOL     OW66883  12.456   0.576  10.483
88370SOL    HW166884  12.461   0.484  10.456
88370SOL    HW266885  12.524   0.620  10.432
88371SOL     OW66886  10.563  12.787  11.224
88371SOL    HW166887  10.548  12.717  11.162
88371SOL    HW266888  10.610  12.745  11.297
88372SOL     OW66889   7.917   6.029   4.378
88372SOL    HW166890   7.848   6.009   4.315
88372SOL    HW266891   7.924   5.950   4.432
88373SOL     OW66892   9.166   9.730  12.740
88373SOL    HW166893   9.090   9.778  12.709
88373SOL    HW266894   9.219   9.795  12.786
88374SOL     OW66895  11.682   4.687   6.517
88374SOL    HW166896  11.611   4.727   6.566
88374SOL    HW266897  11.656   4.595   6.508
88375SOL     OW66898   4.602   8.323   1.736
88375SOL    HW166899   4.654   8.254   1.695
88375SOL    HW266900   4.568   8.283   1.816
88376SOL     OW66901  13.034   2.989   0.396
88376SOL    HW166902  13.040   3.019   0.305
88376SOL    HW266903  12.966   2.922   0.395
88377SOL     OW66904   3.747   4.306   0.002
88377SOL    HW166905   3.693   4.335   0.075
88377SOL    HW266906   3.686   4.259  14.825
88378SOL     OW66907   2.808  12.877   3.682
88378SOL    HW166908   2.865  12.940   3.726
88378SOL    HW266909   2.848  12.792   3.701
88379SOL     OW66910   8.376  13.582  12.226
88379SOL    HW166911   8.373  13.497  12.182
88379SOL    HW266912   8.288  13.592  12.263
88380SOL     OW66913  10.205  14.238   3.943
88380SOL    HW166914  10.166  14.161   3.901
88380SOL    HW266915  10.249  14.204   4.021
88381SOL     OW66916   4.653   6.637   8.848
88381SOL    HW166917   4.559   6.619   8.842
88381SOL    HW266918   4.659   6.718   8.899
88382SOL     OW66919   9.872   2.773  12.241
88382SOL    HW166920   9.864   2.862  12.275
88382SOL    HW266921   9.797   2.727  12.277
88383SOL     OW66922   6.095   5.985   8.091
88383SOL    HW166923   6.153   5.974   8.015
88383SOL    HW266924   6.009   5.957   8.059
88384SOL     OW66925  12.700  10.823   5.995
88384SOL    HW166926  12.625  10.856   5.945
88384SOL    HW266927  12.776  10.844   5.941
88385SOL     OW66928   0.553   3.114  12.526
88385SOL    HW166929   0.552   3.203  12.492
88385SOL    HW266930   0.554   3.124  12.621
88386SOL     OW66931   6.865   7.791  11.926
88386SOL    HW166932   6.867   7.872  11.875
88386SOL    HW266933   6.772   7.767  11.930
88387SOL     OW66934   6.045   2.756  10.449
88387SOL    HW166935   6.029   2.664  10.470
88387SOL    HW266936   6.096   2.789  10.523
88388SOL     OW66937   6.440  13.122   3.042
88388SOL    HW166938   6.405  13.114   3.131
88388SOL    HW266939   6.480  13.209   3.041
88389SOL     OW66940  13.390   3.445   1.557
88389SOL    HW166941  13.478   3.474   1.582
88389SOL    HW266942  13.334   3.473   1.629
88390SOL     OW66943   5.667  10.023  11.930
88390SOL    HW166944   5.701  10.019  12.020
88390SOL    HW266945   5.745  10.014  11.875
88391SOL     OW66946  12.792   9.671   9.507
88391SOL    HW166947  12.886   9.656   9.517
88391SOL    HW266948  12.775   9.751   9.557
88392SOL     OW66949   1.439  14.127   9.967
88392SOL    HW166950   1.384  14.151   9.891
88392SOL    HW266951   1.377  14.093  10.031
88393SOL     OW66952   4.220   1.096   8.159
88393SOL    HW166953   4.201   1.188   8.178
88393SOL    HW266954   4.137   1.061   8.127
88394SOL     OW66955  12.915   3.960  10.207
88394SOL    HW166956  12.976   3.940  10.279
88394SOL    HW266957  12.928   4.054  10.191
88395SOL     OW66958   9.586  10.318   3.367
88395SOL    HW166959   9.568  10.254   3.436
88395SOL    HW266960   9.502  10.364   3.355
88396SOL     OW66961   0.250  11.381  10.609
88396SOL    HW166962   0.283  11.325  10.680
88396SOL    HW266963   0.213  11.319  10.546
88397SOL     OW66964   6.187   7.365   1.433
88397SOL    HW166965   6.092   7.354   1.432
88397SOL    HW266966   6.206   7.419   1.356
88398SOL     OW66967   8.652   6.752  12.158
88398SOL    HW166968   8.596   6.815  12.113
88398SOL    HW266969   8.605   6.669  12.154
88399SOL     OW66970  13.131  12.606   7.695
88399SOL    HW166971  13.045  12.614   7.737
88399SOL    HW266972  13.185  12.560   7.759
88400SOL     OW66973   7.821   1.396   3.120
88400SOL    HW166974   7.777   1.314   3.098
88400SOL    HW266975   7.914   1.372   3.130
88401SOL     OW66976  12.374  10.530   6.504
88401SOL    HW166977  12.409  10.487   6.582
88401SOL    HW266978  12.279  10.520   6.511
88402SOL     OW66979   4.427  12.030  11.660
88402SOL    HW166980   4.502  12.029  11.720
88402SOL    HW266981   4.442  11.954  11.604
88403SOL     OW66982   4.989  12.776   2.490
88403SOL    HW166983   4.923  12.829   2.535
88403SOL    HW266984   5.002  12.700   2.547
88404SOL     OW66985  13.042   3.136   1.635
88404SOL    HW166986  13.025   3.077   1.708
88404SOL    HW266987  12.967   3.123   1.576
88405SOL     OW66988   9.183   1.662   7.621
88405SOL    HW166989   9.191   1.644   7.715
88405SOL    HW266990   9.273   1.670   7.590
88406SOL     OW66991   9.097   2.049  10.531
88406SOL    HW166992   9.021   1.996  10.556
88406SOL    HW266993   9.135   2.004  10.455
88407SOL     OW66994   8.438  12.072   9.261
88407SOL    HW166995   8.468  12.161   9.276
88407SOL    HW266996   8.519  12.021   9.251
88408SOL     OW66997   2.376   3.022   1.923
88408SOL    HW166998   2.335   3.091   1.974
88408SOL    HW266999   2.353   2.941   1.969
88409SOL     OW67000   7.964   4.004   9.967
88409SOL    HW167001   7.910   4.064   9.916
88409SOL    HW267002   7.973   3.927   9.911
88410SOL     OW67003   1.680  14.312   1.067
88410SOL    HW167004   1.757  14.365   1.087
88410SOL    HW267005   1.714  14.236   1.020
88411SOL     OW67006   5.649   9.485  11.629
88411SOL    HW167007   5.592   9.411  11.608
88411SOL    HW267008   5.593   9.546  11.678
88412SOL     OW67009   2.029  11.462   6.970
88412SOL    HW167010   1.973  11.476   7.047
88412SOL    HW267011   1.990  11.388   6.925
88413SOL     OW67012   1.489  13.838  12.528
88413SOL    HW167013   1.447  13.752  12.524
88413SOL    HW267014   1.582  13.818  12.539
88414SOL     OW67015  12.596   3.138   2.026
88414SOL    HW167016  12.662   3.122   1.958
88414SOL    HW267017  12.539   3.061   2.022
88415SOL     OW67018  13.607   9.928   9.293
88415SOL    HW167019  13.570   9.960   9.375
88415SOL    HW267020  13.551   9.855   9.268
88416SOL     OW67021  13.404  12.205   4.460
88416SOL    HW167022  13.495  12.209   4.432
88416SOL    HW267023  13.380  12.113   4.449
88417SOL     OW67024  12.706   1.857  13.368
88417SOL    HW167025  12.799   1.848  13.390
88417SOL    HW267026  12.690   1.951  13.367
88418SOL     OW67027  13.636   6.741  14.572
88418SOL    HW167028  13.594   6.677  14.515
88418SOL    HW267029  13.717   6.698  14.601
88419SOL     OW67030  13.960   7.966   2.695
88419SOL    HW167031  13.865   7.957   2.688
88419SOL    HW267032  13.981   7.927   2.780
88420SOL     OW67033   6.041  10.291  14.147
88420SOL    HW167034   6.060  10.250  14.063
88420SOL    HW267035   6.001  10.221  14.199
88421SOL     OW67036   0.378  13.716   5.867
88421SOL    HW167037   0.470  13.691   5.867
88421SOL    HW267038   0.376  13.801   5.823
88422SOL     OW67039   6.456  13.184  12.268
88422SOL    HW167040   6.413  13.187  12.354
88422SOL    HW267041   6.505  13.102  12.269
88423SOL     OW67042   3.997   8.917   1.395
88423SOL    HW167043   3.950   8.933   1.313
88423SOL    HW267044   4.089   8.910   1.370
88424SOL     OW67045  14.809   8.983   7.811
88424SOL    HW167046  14.797   9.048   7.881
88424SOL    HW267047  14.820   8.900   7.857
88425SOL     OW67048   8.215  13.941   2.786
88425SOL    HW167049   8.276  13.952   2.860
88425SOL    HW267050   8.129  13.959   2.824
88426SOL     OW67051  10.070  10.568  14.858
88426SOL    HW167052  10.068  10.562   0.072
88426SOL    HW267053  10.030  10.653  14.839
88427SOL     OW67054  13.901  13.610   6.358
88427SOL    HW167055  13.983  13.579   6.397
88427SOL    HW267056  13.852  13.647   6.432
88428SOL     OW67057  14.222  14.857  12.430
88428SOL    HW167058  14.300   0.005  12.477
88428SOL    HW267059  14.167   0.054  12.425
88429SOL     OW67060   1.853  14.020  12.645
88429SOL    HW167061   1.800  14.047  12.721
88429SOL    HW267062   1.832  14.085  12.577
88430SOL     OW67063   8.045   6.698   2.324
88430SOL    HW167064   8.090   6.673   2.243
88430SOL    HW267065   7.989   6.624   2.344
88431SOL     OW67066   3.408   6.192   5.513
88431SOL    HW167067   3.406   6.105   5.553
88431SOL    HW267068   3.488   6.193   5.461
88432SOL     OW67069   9.940  10.249   6.472
88432SOL    HW167070   9.886  10.276   6.398
88432SOL    HW267071   9.982  10.168   6.442
88433SOL     OW67072   0.191   2.902  10.309
88433SOL    HW167073   0.204   2.996  10.299
88433SOL    HW267074   0.146   2.876  10.229
88434SOL     OW67075   9.950  13.662   3.380
88434SOL    HW167076   9.945  13.676   3.475
88434SOL    HW267077   9.918  13.573   3.368
88435SOL     OW67078  11.265   9.289  11.409
88435SOL    HW167079  11.358   9.279  11.428
88435SOL    HW267080  11.261   9.290  11.313
88436SOL     OW67081   8.460  14.781   7.920
88436SOL    HW167082   8.528  14.714   7.928
88436SOL    HW267083   8.481  14.828   7.840
88437SOL     OW67084   8.880  14.598   4.413
88437SOL    HW167085   8.787  14.601   4.435
88437SOL    HW267086   8.925  14.596   4.498
88438SOL     OW67087   3.737   1.071   4.655
88438SOL    HW167088   3.737   1.132   4.581
88438SOL    HW267089   3.686   0.997   4.625
88439SOL     OW67090   5.245   4.883   2.456
88439SOL    HW167091   5.299   4.813   2.420
88439SOL    HW267092   5.289   4.909   2.537
88440SOL     OW67093   9.856   2.225  14.298
88440SOL    HW167094   9.793   2.227  14.369
88440SOL    HW267095   9.869   2.318  14.275
88441SOL     OW67096   7.768   5.168  13.191
88441SOL    HW167097   7.795   5.083  13.155
88441SOL    HW267098   7.843   5.225  13.177
88442SOL     OW67099  10.030   2.021   9.890
88442SOL    HW167100  10.072   2.051   9.971
88442SOL    HW267101  10.083   2.059   9.820
88443SOL     OW67102   1.610   9.603   6.664
88443SOL    HW167103   1.537   9.575   6.608
88443SOL    HW267104   1.568   9.633   6.745
88444SOL     OW67105   5.718   4.482   5.144
88444SOL    HW167106   5.650   4.417   5.160
88444SOL    HW267107   5.723   4.490   5.049
88445SOL     OW67108  10.654   1.468   5.474
88445SOL    HW167109  10.605   1.518   5.408
88445SOL    HW267110  10.745   1.472   5.444
88446SOL     OW67111  13.404   7.414   1.000
88446SOL    HW167112  13.467   7.485   1.016
88446SOL    HW267113  13.371   7.431   0.912
88447SOL     OW67114   4.851   5.667   9.244
88447SOL    HW167115   4.834   5.694   9.334
88447SOL    HW267116   4.765   5.670   9.201
88448SOL     OW67117   0.271   5.874   0.409
88448SOL    HW167118   0.282   5.870   0.504
88448SOL    HW267119   0.188   5.920   0.396
88449SOL     OW67120  12.750   1.953   0.714
88449SOL    HW167121  12.762   1.971   0.621
88449SOL    HW267122  12.711   1.866   0.718
88450SOL     OW67123   5.441  12.202  13.213
88450SOL    HW167124   5.389  12.269  13.170
88450SOL    HW267125   5.379  12.155  13.269
88451SOL     OW67126   7.241  14.761   9.344
88451SOL    HW167127   7.172  14.815   9.382
88451SOL    HW267128   7.309  14.759   9.411
88452SOL     OW67129   4.773   0.686   6.565
88452SOL    HW167130   4.707   0.738   6.610
88452SOL    HW267131   4.730   0.657   6.484
88453SOL     OW67132   7.259   7.363   3.683
88453SOL    HW167133   7.176   7.398   3.715
88453SOL    HW267134   7.306   7.440   3.651
88454SOL     OW67135   9.759  13.618   0.775
88454SOL    HW167136   9.712  13.542   0.741
88454SOL    HW267137   9.840  13.622   0.724
88455SOL     OW67138   9.019  13.751  12.341
88455SOL    HW167139   9.066  13.669  12.358
88455SOL    HW267140   8.955  13.757  12.413
88456SOL     OW67141   4.269   3.859   8.341
88456SOL    HW167142   4.176   3.878   8.352
88456SOL    HW267143   4.306   3.941   8.308
88457SOL     OW67144  13.391   4.136  11.756
88457SOL    HW167145  13.357   4.220  11.785
88457SOL    HW267146  13.313   4.082  11.741
88458SOL     OW67147   7.253  14.154  12.680
88458SOL    HW167148   7.333  14.110  12.654
88458SOL    HW267149   7.270  14.247  12.665
88459SOL     OW67150   9.305  12.755  13.186
88459SOL    HW167151   9.290  12.697  13.260
88459SOL    HW267152   9.355  12.703  13.124
88460SOL     OW67153   9.528   8.014  12.485
88460SOL    HW167154   9.533   8.087  12.547
88460SOL    HW267155   9.598   8.032  12.421
88461SOL     OW67156  10.320   9.021   1.550
88461SOL    HW167157  10.250   9.053   1.493
88461SOL    HW267158  10.377   8.970   1.492
88462SOL     OW67159   1.578   5.489   9.868
88462SOL    HW167160   1.574   5.393   9.874
88462SOL    HW267161   1.661   5.512   9.910
88463SOL     OW67162   3.114   4.071   3.465
88463SOL    HW167163   3.061   4.143   3.501
88463SOL    HW267164   3.085   3.994   3.512
88464SOL     OW67165   4.996   9.434   3.093
88464SOL    HW167166   5.055   9.465   3.162
88464SOL    HW267167   4.911   9.429   3.136
88465SOL     OW67168   3.575   7.645  10.267
88465SOL    HW167169   3.510   7.578  10.244
88465SOL    HW267170   3.651   7.624  10.213
88466SOL     OW67171   1.153  10.648   2.777
88466SOL    HW167172   1.207  10.658   2.699
88466SOL    HW267173   1.076  10.598   2.748
88467SOL     OW67174  13.702   7.993  13.433
88467SOL    HW167175  13.624   8.045  13.452
88467SOL    HW267176  13.743   8.038  13.360
88468SOL     OW67177   0.326   2.002  10.828
88468SOL    HW167178   0.337   1.995  10.733
88468SOL    HW267179   0.373   1.925  10.862
88469SOL     OW67180   1.254   7.840   1.239
88469SOL    HW167181   1.193   7.875   1.304
88469SOL    HW267182   1.219   7.754   1.217
88470SOL     OW67183  11.510   0.518  11.656
88470SOL    HW167184  11.457   0.483  11.584
88470SOL    HW267185  11.600   0.495  11.633
88471SOL     OW67186   1.627   6.024   6.513
88471SOL    HW167187   1.607   5.962   6.583
88471SOL    HW267188   1.544   6.069   6.497
88472SOL     OW67189  11.905   1.188   8.878
88472SOL    HW167190  11.945   1.235   8.951
88472SOL    HW267191  11.811   1.196   8.893
88473SOL     OW67192   4.543  13.524   2.679
88473SOL    HW167193   4.507  13.578   2.608
88473SOL    HW267194   4.470  13.509   2.738
88474SOL     OW67195   6.116   7.355  12.749
88474SOL    HW167196   6.070   7.421  12.801
88474SOL    HW267197   6.170   7.405  12.688
88475SOL     OW67198  13.189   7.547   1.298
88475SOL    HW167199  13.264   7.495   1.269
88475SOL    HW267200  13.128   7.545   1.225
88476SOL     OW67201   1.515   3.756   2.124
88476SOL    HW167202   1.604   3.778   2.153
88476SOL    HW267203   1.460   3.824   2.162
88477SOL     OW67204  13.996   4.877  10.099
88477SOL    HW167205  14.019   4.884  10.192
88477SOL    HW267206  13.907   4.841  10.099
88478SOL     OW67207   2.569   4.711   5.223
88478SOL    HW167208   2.639   4.771   5.196
88478SOL    HW267209   2.526   4.756   5.296
88479SOL     OW67210  10.430  14.389  13.743
88479SOL    HW167211  10.357  14.367  13.802
88479SOL    HW267212  10.451  14.306  13.699
88480SOL     OW67213  10.860   5.419   4.956
88480SOL    HW167214  10.901   5.465   5.029
88480SOL    HW267215  10.929   5.364   4.919
88481SOL     OW67216  12.637   8.274   7.658
88481SOL    HW167217  12.608   8.360   7.626
88481SOL    HW267218  12.694   8.295   7.732
88482SOL     OW67219   3.129   3.137   9.293
88482SOL    HW167220   3.078   3.133   9.212
88482SOL    HW267221   3.072   3.101   9.360
88483SOL     OW67222   7.231   9.786  13.285
88483SOL    HW167223   7.234   9.706  13.232
88483SOL    HW267224   7.194   9.758  13.369
88484SOL     OW67225   2.886   9.688   8.998
88484SOL    HW167226   2.917   9.705   9.087
88484SOL    HW267227   2.956   9.721   8.942
88485SOL     OW67228   4.323   5.352  12.210
88485SOL    HW167229   4.331   5.424  12.274
88485SOL    HW267230   4.302   5.395  12.128
88486SOL     OW67231   7.881  13.427   5.270
88486SOL    HW167232   7.856  13.520   5.271
88486SOL    HW267233   7.803  13.381   5.300
88487SOL     OW67234   6.822  14.553   3.055
88487SOL    HW167235   6.826  14.610   2.978
88487SOL    HW267236   6.824  14.613   3.129
88488SOL     OW67237  13.792   8.607   3.582
88488SOL    HW167238  13.849   8.536   3.612
88488SOL    HW267239  13.715   8.563   3.546
88489SOL     OW67240  10.446   2.569   0.866
88489SOL    HW167241  10.424   2.491   0.815
88489SOL    HW267242  10.512   2.614   0.812
88490SOL     OW67243   9.452   1.121   5.136
88490SOL    HW167244   9.509   1.177   5.189
88490SOL    HW267245   9.434   1.045   5.192
88491SOL     OW67246  11.992  13.172   3.608
88491SOL    HW167247  12.047  13.249   3.624
88491SOL    HW267248  11.914  13.207   3.564
88492SOL     OW67249   6.937  10.802   8.314
88492SOL    HW167250   6.877  10.727   8.317
88492SOL    HW267251   6.883  10.873   8.280
88493SOL     OW67252   7.855   0.404  14.266
88493SOL    HW167253   7.950   0.397  14.271
88493SOL    HW267254   7.840   0.466  14.194
88494SOL     OW67255   3.425   9.461  10.449
88494SOL    HW167256   3.506   9.423  10.417
88494SOL    HW267257   3.451   9.512  10.526
88495SOL     OW67258   6.554  10.284   4.900
88495SOL    HW167259   6.606  10.361   4.874
88495SOL    HW267260   6.464  10.308   4.878
88496SOL     OW67261  11.231   5.485   5.727
88496SOL    HW167262  11.157   5.545   5.738
88496SOL    HW267263  11.199   5.402   5.762
88497SOL     OW67264   9.730  11.165   6.110
88497SOL    HW167265   9.668  11.178   6.182
88497SOL    HW267266   9.711  11.236   6.049
88498SOL     OW67267   5.293   1.294  10.476
88498SOL    HW167268   5.293   1.236  10.552
88498SOL    HW267269   5.209   1.338  10.480
88499SOL     OW67270  13.993   0.660   0.416
88499SOL    HW167271  13.977   0.597   0.486
88499SOL    HW267272  13.935   0.632   0.345
88500SOL     OW67273   5.465  12.404  10.200
88500SOL    HW167274   5.480  12.497  10.187
88500SOL    HW267275   5.419  12.398  10.284
88501SOL     OW67276  13.876  12.712  14.245
88501SOL    HW167277  13.939  12.684  14.179
88501SOL    HW267278  13.923  12.778  14.297
88502SOL     OW67279  12.081   8.926  13.096
88502SOL    HW167280  12.003   8.901  13.047
88502SOL    HW267281  12.086   9.021  13.087
88503SOL     OW67282  10.262   9.278  14.198
88503SOL    HW167283  10.212   9.273  14.280
88503SOL    HW267284  10.211   9.338  14.143
88504SOL     OW67285   6.225  13.443  14.110
88504SOL    HW167286   6.179  13.373  14.157
88504SOL    HW267287   6.242  13.509  14.177
88505SOL     OW67288   4.030  14.795   7.566
88505SOL    HW167289   4.045  14.760   7.654
88505SOL    HW267290   4.113  14.780   7.520
88506SOL     OW67291  10.266  10.451   3.821
88506SOL    HW167292  10.342  10.502   3.849
88506SOL    HW267293  10.192  10.509   3.834
88507SOL     OW67294  14.569   8.511   1.896
88507SOL    HW167295  14.582   8.459   1.817
88507SOL    HW267296  14.616   8.464   1.965
88508SOL     OW67297   3.186   2.964   8.354
88508SOL    HW167298   3.243   2.917   8.414
88508SOL    HW267299   3.200   3.057   8.375
88509SOL     OW67300   2.189   4.819   4.256
88509SOL    HW167301   2.100   4.828   4.221
88509SOL    HW267302   2.236   4.894   4.221
88510SOL     OW67303  13.286   2.445  10.697
88510SOL    HW167304  13.202   2.409  10.668
88510SOL    HW267305  13.305   2.400  10.779
88511SOL     OW67306   3.930  14.237  13.018
88511SOL    HW167307   3.859  14.264  13.076
88511SOL    HW267308   3.978  14.317  12.999
88512SOL     OW67309  10.047   6.066   0.466
88512SOL    HW167310  10.133   6.088   0.500
88512SOL    HW267311   9.986   6.123   0.513
88513SOL     OW67312   0.294   0.870   6.035
88513SOL    HW167313   0.282   0.905   5.947
88513SOL    HW267314   0.333   0.784   6.022
88514SOL     OW67315   9.798  11.663   3.092
88514SOL    HW167316   9.885  11.634   3.064
88514SOL    HW267317   9.765  11.714   3.018
88515SOL     OW67318   6.055  12.445  10.772
88515SOL    HW167319   6.033  12.485  10.856
88515SOL    HW267320   6.150  12.454  10.765
88516SOL     OW67321   8.377   4.614   9.473
88516SOL    HW167322   8.369   4.537   9.418
88516SOL    HW267323   8.469   4.614   9.502
88517SOL     OW67324   9.322   8.064   4.069
88517SOL    HW167325   9.290   7.985   4.025
88517SOL    HW267326   9.360   8.031   4.151
88518SOL     OW67327  11.989  13.076  10.195
88518SOL    HW167328  11.917  13.112  10.246
88518SOL    HW267329  12.004  13.140  10.126
88519SOL     OW67330  13.974  13.972  10.234
88519SOL    HW167331  13.991  13.879  10.241
88519SOL    HW267332  13.879  13.979  10.227
88520SOL     OW67333  14.494  11.709   7.050
88520SOL    HW167334  14.533  11.696   7.136
88520SOL    HW267335  14.519  11.798   7.026
88521SOL     OW67336  10.067   4.155   5.706
88521SOL    HW167337  10.114   4.210   5.769
88521SOL    HW267338  10.130   4.137   5.637
88522SOL     OW67339   6.825   7.388   3.171
88522SOL    HW167340   6.757   7.398   3.105
88522SOL    HW267341   6.904   7.365   3.121
88523SOL     OW67342  11.653   0.034  12.514
88523SOL    HW167343  11.618  14.875  12.593
88523SOL    HW267344  11.641  14.850  12.445
88524SOL     OW67345  12.354   3.484  14.245
88524SOL    HW167346  12.349   3.400  14.290
88524SOL    HW267347  12.403   3.466  14.165
88525SOL     OW67348  11.111  11.423   2.428
88525SOL    HW167349  11.163  11.364   2.373
88525SOL    HW267350  11.020  11.400   2.407
88526SOL     OW67351   8.213  11.922   4.289
88526SOL    HW167352   8.202  11.981   4.363
88526SOL    HW267353   8.159  11.959   4.220
88527SOL     OW67354   4.627   8.364   6.894
88527SOL    HW167355   4.677   8.414   6.959
88527SOL    HW267356   4.646   8.408   6.811
88528SOL     OW67357   4.136  11.196  12.076
88528SOL    HW167358   4.135  11.101  12.080
88528SOL    HW267359   4.069  11.224  12.139
88529SOL     OW67360   7.136   5.201  13.572
88529SOL    HW167361   7.120   5.116  13.612
88529SOL    HW267362   7.128   5.264  13.645
88530SOL     OW67363  13.678  12.859  13.821
88530SOL    HW167364  13.770  12.834  13.812
88530SOL    HW267365  13.667  12.934  13.763
88531SOL     OW67366  11.665   1.567   6.180
88531SOL    HW167367  11.736   1.518   6.139
88531SOL    HW267368  11.658   1.647   6.128
88532SOL     OW67369  10.659   9.048   7.364
88532SOL    HW167370  10.623   9.112   7.303
88532SOL    HW267371  10.675   8.970   7.311
88533SOL     OW67372   2.684   1.824  10.604
88533SOL    HW167373   2.741   1.749  10.620
88533SOL    HW267374   2.722   1.867  10.527
88534SOL     OW67375  10.922   9.684   7.446
88534SOL    HW167376  10.943   9.643   7.530
88534SOL    HW267377  10.952   9.622   7.380
88535SOL     OW67378  11.847   6.209   5.844
88535SOL    HW167379  11.879   6.147   5.778
88535SOL    HW267380  11.768   6.169   5.879
88536SOL     OW67381  14.689  12.036   4.919
88536SOL    HW167382  14.637  11.979   4.863
88536SOL    HW267383  14.673  12.004   5.008
88537SOL     OW67384   8.029  10.504   6.645
88537SOL    HW167385   7.978  10.430   6.678
88537SOL    HW267386   8.101  10.463   6.597
88538SOL     OW67387  11.668  10.708  11.472
88538SOL    HW167388  11.727  10.645  11.514
88538SOL    HW267389  11.714  10.733  11.392
88539SOL     OW67390  13.709  11.992   7.422
88539SOL    HW167391  13.766  12.030   7.488
88539SOL    HW267392  13.753  12.008   7.339
88540SOL     OW67393  13.299  13.310   4.167
88540SOL    HW167394  13.355  13.379   4.130
88540SOL    HW267395  13.258  13.269   4.091
88541SOL     OW67396   4.960  12.403   4.963
88541SOL    HW167397   4.887  12.444   5.009
88541SOL    HW267398   5.034  12.462   4.977
88542SOL     OW67399  13.493  11.638  13.768
88542SOL    HW167400  13.398  11.625  13.771
88542SOL    HW267401  13.525  11.604  13.852
88543SOL     OW67402  14.370  14.507   9.520
88543SOL    HW167403  14.385  14.442   9.588
88543SOL    HW267404  14.454  14.516   9.475
88544SOL     OW67405  13.946   2.702   6.200
88544SOL    HW167406  13.951   2.757   6.122
88544SOL    HW267407  13.941   2.763   6.273
88545SOL     OW67408   3.263   1.102   5.380
88545SOL    HW167409   3.334   1.050   5.417
88545SOL    HW267410   3.185   1.048   5.394
88546SOL     OW67411   9.722   6.320   3.751
88546SOL    HW167412   9.814   6.332   3.775
88546SOL    HW267413   9.722   6.243   3.693
88547SOL     OW67414   9.941   5.447  14.607
88547SOL    HW167415   9.986   5.386  14.666
88547SOL    HW267416   9.912   5.392  14.534
88548SOL     OW67417   9.407   7.067   2.204
88548SOL    HW167418   9.384   7.036   2.117
88548SOL    HW267419   9.360   7.149   2.214
88549SOL     OW67420   5.499   6.938   8.895
88549SOL    HW167421   5.450   6.866   8.934
88549SOL    HW267422   5.527   6.904   8.810
88550SOL     OW67423   8.493   4.449   0.336
88550SOL    HW167424   8.470   4.530   0.382
88550SOL    HW267425   8.446   4.455   0.252
88551SOL     OW67426   7.562   7.981   7.496
88551SOL    HW167427   7.576   7.994   7.402
88551SOL    HW267428   7.618   8.047   7.537
88552SOL     OW67429  13.448   3.434   9.935
88552SOL    HW167430  13.438   3.429  10.030
88552SOL    HW267431  13.363   3.467   9.903
88553SOL     OW67432   6.503   9.860   8.509
88553SOL    HW167433   6.531   9.933   8.565
88553SOL    HW267434   6.441   9.899   8.448
88554SOL     OW67435  11.643  11.134   6.998
88554SOL    HW167436  11.618  11.101   7.085
88554SOL    HW267437  11.712  11.197   7.015
88555SOL     OW67438   3.881  13.157   4.759
88555SOL    HW167439   3.949  13.198   4.706
88555SOL    HW267440   3.887  13.064   4.738
88556SOL     OW67441   0.077   0.014   1.355
88556SOL    HW167442   0.110   0.064   1.280
88556SOL    HW267443   0.050   0.080   1.419
88557SOL     OW67444   5.098   6.181  10.710
88557SOL    HW167445   5.058   6.220  10.633
88557SOL    HW267446   5.117   6.256  10.767
88558SOL     OW67447   8.413   1.417   3.945
88558SOL    HW167448   8.361   1.418   4.026
88558SOL    HW267449   8.498   1.453   3.972
88559SOL     OW67450   8.994  11.777   0.407
88559SOL    HW167451   9.069  11.722   0.430
88559SOL    HW267452   8.945  11.786   0.489
88560SOL     OW67453   5.873   2.424   7.148
88560SOL    HW167454   5.850   2.495   7.208
88560SOL    HW267455   5.791   2.376   7.136
88561SOL     OW67456   9.929   4.987   4.350
88561SOL    HW167457   9.994   5.019   4.413
88561SOL    HW267458   9.890   5.067   4.314
88562SOL     OW67459  10.715  14.639  14.824
88562SOL    HW167460  10.623  14.633  14.851
88562SOL    HW267461  10.723  14.727  14.787
88563SOL     OW67462   1.452   2.512   9.463
88563SOL    HW167463   1.483   2.596   9.430
88563SOL    HW267464   1.508   2.447   9.420
88564SOL     OW67465   2.771   2.251   6.561
88564SOL    HW167466   2.719   2.175   6.534
88564SOL    HW267467   2.853   2.243   6.512
88565SOL     OW67468  11.303   6.242   5.236
88565SOL    HW167469  11.348   6.325   5.250
88565SOL    HW267470  11.289   6.238   5.142
88566SOL     OW67471  10.733   1.807   3.418
88566SOL    HW167472  10.739   1.716   3.391
88566SOL    HW267473  10.641   1.821   3.440
88567SOL     OW67474   5.539   7.603  12.381
88567SOL    HW167475   5.522   7.697  12.379
88567SOL    HW267476   5.535   7.576  12.289
88568SOL     OW67477  11.080   8.449   5.121
88568SOL    HW167478  11.167   8.409   5.118
88568SOL    HW267479  11.021   8.376   5.141
88569SOL     OW67480   5.325   7.323   1.866
88569SOL    HW167481   5.384   7.269   1.920
88569SOL    HW267482   5.281   7.260   1.809
88570SOL     OW67483   2.871  13.708  12.310
88570SOL    HW167484   2.866  13.749  12.224
88570SOL    HW267485   2.951  13.744  12.349
88571SOL     OW67486   8.314  13.759  10.662
88571SOL    HW167487   8.247  13.779  10.726
88571SOL    HW267488   8.320  13.837  10.607
88572SOL     OW67489   5.603  11.766   4.308
88572SOL    HW167490   5.639  11.680   4.332
88572SOL    HW267491   5.643  11.785   4.223
88573SOL     OW67492   8.670  14.236  13.018
88573SOL    HW167493   8.732  14.276  12.957
88573SOL    HW267494   8.595  14.296  13.018
88574SOL     OW67495   4.632   8.675  13.324
88574SOL    HW167496   4.609   8.604  13.383
88574SOL    HW267497   4.700   8.724  13.370
88575SOL     OW67498   8.131   7.726   5.025
88575SOL    HW167499   8.115   7.653   5.085
88575SOL    HW267500   8.166   7.684   4.946
88576SOL     OW67501   4.237   1.772   3.587
88576SOL    HW167502   4.241   1.684   3.549
88576SOL    HW267503   4.162   1.813   3.544
88577SOL     OW67504   8.023   4.499   2.760
88577SOL    HW167505   7.995   4.453   2.839
88577SOL    HW267506   8.115   4.520   2.777
88578SOL     OW67507  13.909   9.796   9.351
88578SOL    HW167508  13.947   9.819   9.436
88578SOL    HW267509  13.885   9.704   9.360
88579SOL     OW67510   6.335   0.160   3.791
88579SOL    HW167511   6.330   0.066   3.776
88579SOL    HW267512   6.428   0.176   3.810
88580SOL     OW67513   0.924  11.006  12.298
88580SOL    HW167514   0.887  11.008  12.210
88580SOL    HW267515   0.882  10.930  12.340
88581SOL     OW67516   4.793  13.824   5.396
88581SOL    HW167517   4.803  13.832   5.491
88581SOL    HW267518   4.870  13.868   5.360
88582SOL     OW67519   9.779   5.593  14.285
88582SOL    HW167520   9.808   5.583  14.195
88582SOL    HW267521   9.722   5.518  14.301
88583SOL     OW67522  12.366  10.399   9.588
88583SOL    HW167523  12.394  10.324   9.536
88583SOL    HW267524  12.278  10.419   9.555
88584SOL     OW67525   1.823   1.291  14.625
88584SOL    HW167526   1.866   1.246  14.698
88584SOL    HW267527   1.882   1.279  14.551
88585SOL     OW67528  14.324   0.069  10.716
88585SOL    HW167529  14.405   0.071  10.665
88585SOL    HW267530  14.332   0.143  10.776
88586SOL     OW67531  12.944  10.807   0.717
88586SOL    HW167532  13.004  10.881   0.727
88586SOL    HW267533  12.977  10.742   0.781
88587SOL     OW67534   5.568  11.165   0.567
88587SOL    HW167535   5.663  11.173   0.556
88587SOL    HW267536   5.558  11.112   0.646
88588SOL     OW67537   5.685   0.579   9.810
88588SOL    HW167538   5.773   0.617   9.811
88588SOL    HW267539   5.700   0.484   9.814
88589SOL     OW67540  10.681   2.027   6.770
88589SOL    HW167541  10.653   2.048   6.681
88589SOL    HW267542  10.645   1.940   6.786
88590SOL     OW67543   6.052   0.870  14.599
88590SOL    HW167544   6.054   0.774  14.589
88590SOL    HW267545   6.009   0.901  14.520
88591SOL     OW67546   9.108   1.471   1.796
88591SOL    HW167547   9.048   1.544   1.808
88591SOL    HW267548   9.187   1.510   1.759
88592SOL     OW67549   0.577   0.792   1.039
88592SOL    HW167550   0.525   0.815   0.962
88592SOL    HW267551   0.665   0.778   1.005
88593SOL     OW67552   1.265   4.071   3.481
88593SOL    HW167553   1.257   4.016   3.559
88593SOL    HW267554   1.176   4.076   3.446
88594SOL     OW67555   2.353   6.248  10.962
88594SOL    HW167556   2.440   6.259  10.923
88594SOL    HW267557   2.325   6.161  10.934
88595SOL     OW67558   3.409   8.347  13.896
88595SOL    HW167559   3.448   8.277  13.843
88595SOL    HW267560   3.384   8.304  13.978
88596SOL     OW67561   5.999   1.185   0.756
88596SOL    HW167562   5.981   1.247   0.685
88596SOL    HW267563   5.986   1.099   0.717
88597SOL     OW67564   6.131   5.288  13.953
88597SOL    HW167565   6.062   5.338  13.910
88597SOL    HW267566   6.094   5.201  13.966
88598SOL     OW67567   8.948   1.400   0.036
88598SOL    HW167568   8.893   1.322   0.031
88598SOL    HW267569   8.906   1.456   0.100
88599SOL     OW67570  14.192  12.522  11.562
88599SOL    HW167571  14.208  12.428  11.553
88599SOL    HW267572  14.129  12.529  11.633
88600SOL     OW67573  12.398  12.720   8.201
88600SOL    HW167574  12.415  12.660   8.128
88600SOL    HW267575  12.356  12.796   8.161
88601SOL     OW67576   5.526   6.166   7.841
88601SOL    HW167577   5.442   6.210   7.859
88601SOL    HW267578   5.574   6.228   7.786
88602SOL     OW67579   9.593   5.820  12.147
88602SOL    HW167580   9.627   5.885  12.209
88602SOL    HW267581   9.637   5.739  12.171
88603SOL     OW67582  11.956   7.063   1.915
88603SOL    HW167583  11.947   6.968   1.909
88603SOL    HW267584  11.905   7.097   1.841
88604SOL     OW67585  14.602  13.736   8.360
88604SOL    HW167586  14.633  13.751   8.271
88604SOL    HW267587  14.569  13.647   8.360
88605SOL     OW67588  10.570  11.397   5.797
88605SOL    HW167589  10.565  11.339   5.721
88605SOL    HW267590  10.605  11.479   5.763
88606SOL     OW67591   3.205   8.114   3.055
88606SOL    HW167592   3.145   8.146   3.123
88606SOL    HW267593   3.288   8.099   3.102
88607SOL     OW67594  14.388   0.047  14.186
88607SOL    HW167595  14.397   0.027  14.093
88607SOL    HW267596  14.371  14.844  14.227
88608SOL     OW67597   0.938   7.890  12.311
88608SOL    HW167598   0.974   7.905  12.224
88608SOL    HW267599   1.013   7.901  12.370
88609SOL     OW67600   8.700   2.838  14.347
88609SOL    HW167601   8.753   2.872  14.419
88609SOL    HW267602   8.746   2.759  14.318
88610SOL     OW67603   9.639   2.875  13.493
88610SOL    HW167604   9.733   2.889  13.482
88610SOL    HW267605   9.601   2.963  13.490
88611SOL     OW67606   1.523   3.248   7.278
88611SOL    HW167607   1.547   3.163   7.242
88611SOL    HW267608   1.501   3.301   7.202
88612SOL     OW67609   7.377   8.196   1.167
88612SOL    HW167610   7.470   8.188   1.189
88612SOL    HW267611   7.344   8.106   1.171
88613SOL     OW67612  14.652   9.053   1.613
88613SOL    HW167613  14.736   9.093   1.634
88613SOL    HW267614  14.648   9.054   1.517
88614SOL     OW67615   5.585  12.001  13.327
88614SOL    HW167616   5.573  12.010  13.422
88614SOL    HW267617   5.526  12.067  13.290
88615SOL     OW67618   3.666  12.374   6.941
88615SOL    HW167619   3.684  12.324   6.862
88615SOL    HW267620   3.580  12.346   6.969
88616SOL     OW67621  11.143   5.600  13.501
88616SOL    HW167622  11.145   5.691  13.532
88616SOL    HW267623  11.125   5.608  13.407
88617SOL     OW67624   4.501   2.984   3.724
88617SOL    HW167625   4.561   2.994   3.798
88617SOL    HW267626   4.530   3.049   3.660
88618SOL     OW67627   6.903   2.860  11.906
88618SOL    HW167628   6.835   2.916  11.868
88618SOL    HW267629   6.984   2.910  11.893
88619SOL     OW67630  10.595   8.150  13.421
88619SOL    HW167631  10.602   8.244  13.439
88619SOL    HW267632  10.517   8.122  13.470
88620SOL     OW67633   7.460   2.449   0.624
88620SOL    HW167634   7.551   2.458   0.652
88620SOL    HW267635   7.442   2.355   0.628
88621SOL     OW67636   3.653  13.900   6.995
88621SOL    HW167637   3.622  13.952   7.069
88621SOL    HW267638   3.584  13.836   6.979
88622SOL     OW67639   2.407   4.239   3.784
88622SOL    HW167640   2.318   4.243   3.817
88622SOL    HW267641   2.462   4.263   3.859
88623SOL     OW67642   2.431   8.152  14.400
88623SOL    HW167643   2.405   8.095  14.328
88623SOL    HW267644   2.490   8.217  14.360
88624SOL     OW67645  11.590   1.250   5.163
88624SOL    HW167646  11.639   1.171   5.139
88624SOL    HW267647  11.646   1.322   5.134
88625SOL     OW67648   5.264   8.165  10.087
88625SOL    HW167649   5.323   8.230  10.048
88625SOL    HW267650   5.305   8.081  10.069
88626SOL     OW67651   5.110   2.086   8.158
88626SOL    HW167652   5.045   2.065   8.226
88626SOL    HW267653   5.161   2.006   8.149
88627SOL     OW67654   7.658   5.815  14.865
88627SOL    HW167655   7.717   5.806   0.058
88627SOL    HW267656   7.630   5.725  14.846
88628SOL     OW67657   4.231   2.597   2.247
88628SOL    HW167658   4.267   2.512   2.274
88628SOL    HW267659   4.243   2.599   2.152
88629SOL     OW67660   9.732   1.731   6.136
88629SOL    HW167661   9.751   1.817   6.174
88629SOL    HW267662   9.718   1.749   6.043
88630SOL     OW67663  13.243   9.894   1.137
88630SOL    HW167664  13.187   9.938   1.201
88630SOL    HW267665  13.193   9.897   1.055
88631SOL     OW67666   2.575   9.653   6.350
88631SOL    HW167667   2.566   9.587   6.281
88631SOL    HW267668   2.514   9.722   6.325
88632SOL     OW67669   6.470   9.771  10.922
88632SOL    HW167670   6.469   9.680  10.890
88632SOL    HW267671   6.404   9.815  10.869
88633SOL     OW67672  12.371  10.391   9.233
88633SOL    HW167673  12.465  10.381   9.217
88633SOL    HW267674  12.348  10.314   9.286
88634SOL     OW67675  13.593  13.835  14.262
88634SOL    HW167676  13.609  13.858  14.171
88634SOL    HW267677  13.549  13.750  14.259
88635SOL     OW67678   1.406   8.389   2.882
88635SOL    HW167679   1.406   8.375   2.788
88635SOL    HW267680   1.423   8.302   2.919
88636SOL     OW67681   0.553   8.809   2.862
88636SOL    HW167682   0.595   8.888   2.826
88636SOL    HW267683   0.583   8.738   2.805
88637SOL     OW67684  11.850  13.562   8.379
88637SOL    HW167685  11.849  13.512   8.298
88637SOL    HW267686  11.887  13.647   8.355
88638SOL     OW67687   9.551  13.150  11.560
88638SOL    HW167688   9.642  13.159  11.589
88638SOL    HW267689   9.510  13.098  11.629
88639SOL     OW67690  12.944   1.124   2.681
88639SOL    HW167691  12.939   1.038   2.721
88639SOL    HW267692  13.036   1.151   2.692
88640SOL     OW67693   5.935   5.489   9.466
88640SOL    HW167694   5.996   5.538   9.411
88640SOL    HW267695   5.929   5.541   9.547
88641SOL     OW67696   3.670   6.351   5.760
88641SOL    HW167697   3.712   6.285   5.705
88641SOL    HW267698   3.660   6.308   5.845
88642SOL     OW67699  10.222  11.129   3.151
88642SOL    HW167700  10.250  11.073   3.078
88642SOL    HW267701  10.303  11.147   3.199
88643SOL     OW67702   2.184  14.500  12.115
88643SOL    HW167703   2.122  14.438  12.153
88643SOL    HW267704   2.188  14.571  12.178
88644SOL     OW67705  13.969   1.137   7.617
88644SOL    HW167706  13.933   1.100   7.698
88644SOL    HW267707  13.934   1.081   7.548
88645SOL     OW67708   4.025   1.928  14.038
88645SOL    HW167709   3.946   1.889  14.000
88645SOL    HW267710   4.084   1.854  14.051
88646SOL     OW67711   1.585   2.139  14.688
88646SOL    HW167712   1.662   2.151  14.744
88646SOL    HW267713   1.581   2.045  14.672
88647SOL     OW67714  12.752   2.298   9.267
88647SOL    HW167715  12.742   2.318   9.173
88647SOL    HW267716  12.731   2.381   9.311
88648SOL     OW67717   8.979  13.280   7.895
88648SOL    HW167718   8.995  13.188   7.879
88648SOL    HW267719   9.063  13.323   7.877
88649SOL     OW67720  10.998  14.089   1.112
88649SOL    HW167721  11.065  14.064   1.049
88649SOL    HW267722  10.930  14.022   1.102
88650SOL     OW67723  12.966   7.438  11.689
88650SOL    HW167724  13.004   7.506  11.745
88650SOL    HW267725  12.925   7.377  11.750
88651SOL     OW67726  13.107   8.498   6.327
88651SOL    HW167727  13.180   8.446   6.292
88651SOL    HW267728  13.146   8.547   6.399
88652SOL     OW67729   5.864   5.625   8.913
88652SOL    HW167730   5.805   5.689   8.952
88652SOL    HW267731   5.806   5.558   8.876
88653SOL     OW67732  12.551  14.110   7.606
88653SOL    HW167733  12.584  14.109   7.516
88653SOL    HW267734  12.497  14.031   7.612
88654SOL     OW67735   2.730   7.731  12.246
88654SOL    HW167736   2.659   7.778  12.203
88654SOL    HW267737   2.802   7.794  12.250
88655SOL     OW67738   3.139   1.254   5.622
88655SOL    HW167739   3.164   1.188   5.687
88655SOL    HW267740   3.215   1.261   5.564
88656SOL     OW67741   5.012   0.305   3.339
88656SOL    HW167742   5.078   0.261   3.391
88656SOL    HW267743   5.060   0.370   3.287
88657SOL     OW67744   6.526  12.214   0.878
88657SOL    HW167745   6.612  12.218   0.920
88657SOL    HW267746   6.506  12.120   0.875
88658SOL     OW67747   0.901  10.243   3.246
88658SOL    HW167748   0.945  10.158   3.253
88658SOL    HW267749   0.808  10.221   3.237
88659SOL     OW67750   1.752   1.039   7.901
88659SOL    HW167751   1.806   0.973   7.946
88659SOL    HW267752   1.768   1.120   7.950
88660SOL     OW67753   6.347   3.525  14.142
88660SOL    HW167754   6.316   3.462  14.076
88660SOL    HW267755   6.417   3.573  14.099
88661SOL     OW67756  13.231   9.927   9.351
88661SOL    HW167757  13.281   9.853   9.317
88661SOL    HW267758  13.255  10.001   9.294
88662SOL     OW67759   4.129   7.108   0.586
88662SOL    HW167760   4.098   7.039   0.644
88662SOL    HW267761   4.186   7.162   0.641
88663SOL     OW67762  12.018  13.108   6.733
88663SOL    HW167763  11.971  13.162   6.797
88663SOL    HW267764  11.952  13.088   6.666
88664SOL     OW67765   2.286   0.814  14.223
88664SOL    HW167766   2.270   0.859  14.306
88664SOL    HW267767   2.228   0.857  14.161
88665SOL     OW67768   2.713   9.423  12.646
88665SOL    HW167769   2.649   9.362  12.681
88665SOL    HW267770   2.711   9.408  12.551
88666SOL     OW67771   8.830   5.402   9.489
88666SOL    HW167772   8.865   5.456   9.561
88666SOL    HW267773   8.736   5.397   9.506
88667SOL     OW67774  11.628   2.579   9.448
88667SOL    HW167775  11.685   2.656   9.447
88667SOL    HW267776  11.543   2.613   9.478
88668SOL     OW67777   0.784   0.160  13.460
88668SOL    HW167778   0.750   0.132  13.375
88668SOL    HW267779   0.874   0.188  13.441
88669SOL     OW67780   2.798  11.085   2.392
88669SOL    HW167781   2.769  11.008   2.344
88669SOL    HW267782   2.771  11.159   2.338
88670SOL     OW67783   4.990   3.319   1.230
88670SOL    HW167784   5.035   3.245   1.189
88670SOL    HW267785   4.974   3.291   1.320
88671SOL     OW67786   5.993   0.267   2.751
88671SOL    HW167787   5.901   0.238   2.748
88671SOL    HW267788   6.021   0.248   2.840
88672SOL     OW67789   8.833   7.864   5.921
88672SOL    HW167790   8.790   7.942   5.956
88672SOL    HW267791   8.784   7.841   5.842
88673SOL     OW67792   5.870   2.262  13.749
88673SOL    HW167793   5.802   2.215  13.798
88673SOL    HW267794   5.851   2.354  13.763
88674SOL     OW67795   4.128   0.228   6.191
88674SOL    HW167796   4.068   0.283   6.141
88674SOL    HW267797   4.072   0.165   6.236
88675SOL     OW67798  10.304   6.241   1.514
88675SOL    HW167799  10.236   6.188   1.473
88675SOL    HW267800  10.386   6.206   1.479
88676SOL     OW67801   8.172   3.691  11.014
88676SOL    HW167802   8.161   3.727  10.927
88676SOL    HW267803   8.093   3.639  11.029
88677SOL     OW67804   6.827   4.818   4.147
88677SOL    HW167805   6.765   4.784   4.081
88677SOL    HW267806   6.816   4.913   4.143
88678SOL     OW67807  11.589  11.779  10.036
88678SOL    HW167808  11.626  11.694  10.060
88678SOL    HW267809  11.569  11.771   9.943
88679SOL     OW67810   7.856   0.607   9.424
88679SOL    HW167811   7.789   0.539   9.422
88679SOL    HW267812   7.871   0.629   9.332
88680SOL     OW67813   0.456   8.216   6.038
88680SOL    HW167814   0.373   8.170   6.053
88680SOL    HW267815   0.501   8.164   5.972
88681SOL     OW67816   8.210   5.085  11.311
88681SOL    HW167817   8.191   5.179  11.315
88681SOL    HW267818   8.252   5.072  11.226
88682SOL     OW67819   5.376   0.136   9.878
88682SOL    HW167820   5.419   0.162   9.959
88682SOL    HW267821   5.444   0.089   9.829
88683SOL     OW67822   6.410  11.341   6.404
88683SOL    HW167823   6.431  11.429   6.372
88683SOL    HW267824   6.457  11.333   6.487
88684SOL     OW67825   1.426   6.905   3.586
88684SOL    HW167826   1.340   6.898   3.546
88684SOL    HW267827   1.464   6.985   3.549
88685SOL     OW67828  11.428  14.384   8.324
88685SOL    HW167829  11.431  14.312   8.387
88685SOL    HW267830  11.457  14.345   8.242
88686SOL     OW67831   2.099  11.951  10.303
88686SOL    HW167832   2.065  11.883  10.245
88686SOL    HW267833   2.042  12.026  10.289
88687SOL     OW67834   9.762   1.703   4.011
88687SOL    HW167835   9.723   1.636   4.068
88687SOL    HW267836   9.805   1.654   3.942
88688SOL     OW67837  10.220   3.559   4.286
88688SOL    HW167838  10.305   3.519   4.268
88688SOL    HW267839  10.193   3.521   4.369
88689SOL     OW67840   2.331   3.699  14.799
88689SOL    HW167841   2.314   3.620  14.849
88689SOL    HW267842   2.372   3.669  14.718
88690SOL     OW67843   8.313   8.740  10.266
88690SOL    HW167844   8.349   8.685  10.196
88690SOL    HW267845   8.260   8.806  10.220
88691SOL     OW67846   9.668  13.163  12.192
88691SOL    HW167847   9.636  13.251  12.168
88691SOL    HW267848   9.635  13.149  12.280
88692SOL     OW67849  14.324   2.681   7.463
88692SOL    HW167850  14.302   2.764   7.506
88692SOL    HW267851  14.408   2.698   7.420
88693SOL     OW67852   1.473  13.482   7.567
88693SOL    HW167853   1.499  13.555   7.511
88693SOL    HW267854   1.495  13.511   7.656
88694SOL     OW67855   7.972  12.642  10.592
88694SOL    HW167856   7.924  12.719  10.563
88694SOL    HW267857   8.021  12.613  10.515
88695SOL     OW67858  14.618   1.278   2.201
88695SOL    HW167859  14.540   1.223   2.203
88695SOL    HW267860  14.690   1.219   2.226
88696SOL     OW67861   5.367   0.639  10.247
88696SOL    HW167862   5.440   0.644  10.309
88696SOL    HW267863   5.362   0.547  10.222
88697SOL     OW67864  14.717   4.161   8.840
88697SOL    HW167865  14.782   4.215   8.795
88697SOL    HW267866  14.697   4.091   8.778
88698SOL     OW67867  14.611   6.602   6.602
88698SOL    HW167868  14.620   6.636   6.513
88698SOL    HW267869  14.552   6.664   6.645
88699SOL     OW67870   1.075   9.356   4.584
88699SOL    HW167871   1.001   9.302   4.555
88699SOL    HW267872   1.033   9.430   4.628
88700SOL     OW67873   2.738   6.600   7.962
88700SOL    HW167874   2.730   6.588   8.057
88700SOL    HW267875   2.658   6.646   7.937
88701SOL     OW67876   8.281  10.084  11.175
88701SOL    HW167877   8.347  10.030  11.219
88701SOL    HW267878   8.243  10.025  11.109
88702SOL     OW67879   0.023   3.772   6.882
88702SOL    HW167880   0.109   3.813   6.891
88702SOL    HW267881   0.011   3.723   6.963
88703SOL     OW67882   7.456   4.148  12.698
88703SOL    HW167883   7.468   4.146  12.603
88703SOL    HW267884   7.514   4.217  12.729
88704SOL     OW67885  11.597   0.974   4.471
88704SOL    HW167886  11.563   0.910   4.409
88704SOL    HW267887  11.579   0.937   4.557
88705SOL     OW67888   1.998  14.669  13.580
88705SOL    HW167889   2.039  14.726  13.516
88705SOL    HW267890   1.964  14.595  13.530
88706SOL     OW67891   1.127  12.648   4.747
88706SOL    HW167892   1.061  12.663   4.679
88706SOL    HW267893   1.076  12.641   4.828
88707SOL     OW67894   8.531   7.177   7.910
88707SOL    HW167895   8.616   7.212   7.935
88707SOL    HW267896   8.473   7.198   7.983
88708SOL     OW67897   5.169   9.111   4.195
88708SOL    HW167898   5.126   9.195   4.181
88708SOL    HW267899   5.098   9.047   4.193
88709SOL     OW67900   3.532   0.309   4.627
88709SOL    HW167901   3.499   0.396   4.604
88709SOL    HW267902   3.459   0.250   4.609
88710SOL     OW67903   1.748   5.166  14.582
88710SOL    HW167904   1.759   5.161  14.487
88710SOL    HW267905   1.659   5.134  14.599
88711SOL     OW67906   8.066  14.248   6.969
88711SOL    HW167907   8.160  14.256   6.953
88711SOL    HW267908   8.061  14.210   7.057
88712SOL     OW67909  10.422   1.442   3.711
88712SOL    HW167910  10.514   1.436   3.736
88712SOL    HW267911  10.424   1.491   3.628
88713SOL     OW67912   2.371   1.440   7.230
88713SOL    HW167913   2.357   1.361   7.177
88713SOL    HW267914   2.287   1.457   7.271
88714SOL     OW67915  12.892   1.560   7.166
88714SOL    HW167916  12.831   1.540   7.237
88714SOL    HW267917  12.969   1.597   7.210
88715SOL     OW67918   5.728   8.235   5.483
88715SOL    HW167919   5.700   8.178   5.411
88715SOL    HW267920   5.647   8.255   5.530
88716SOL     OW67921   2.910  11.391   5.695
88716SOL    HW167922   2.863  11.467   5.661
88716SOL    HW267923   2.894  11.321   5.631
88717SOL     OW67924  14.647   9.386   1.556
88717SOL    HW167925  14.567   9.429   1.526
88717SOL    HW267926  14.698   9.370   1.477
88718SOL     OW67927   3.356   1.882  12.036
88718SOL    HW167928   3.381   1.915  11.950
88718SOL    HW267929   3.427   1.908  12.094
88719SOL     OW67930   6.467  12.910  11.973
88719SOL    HW167931   6.455  12.992  11.926
88719SOL    HW267932   6.487  12.846  11.904
88720SOL     OW67933   2.346  11.233   1.843
88720SOL    HW167934   2.250  11.236   1.844
88720SOL    HW267935   2.370  11.228   1.936
88721SOL     OW67936  10.643   6.926   9.501
88721SOL    HW167937  10.601   6.975   9.571
88721SOL    HW267938  10.604   6.839   9.506
88722SOL     OW67939  11.706  14.473   6.685
88722SOL    HW167940  11.738  14.403   6.628
88722SOL    HW267941  11.747  14.552   6.652
88723SOL     OW67942   9.161   0.362   4.101
88723SOL    HW167943   9.256   0.355   4.089
88723SOL    HW267944   9.134   0.274   4.125
88724SOL     OW67945  13.408   9.169  14.368
88724SOL    HW167946  13.422   9.083  14.409
88724SOL    HW267947  13.314   9.183  14.372
88725SOL     OW67948  12.463   2.392   4.343
88725SOL    HW167949  12.391   2.388   4.406
88725SOL    HW267950  12.444   2.322   4.280
88726SOL     OW67951   1.588   4.402   2.962
88726SOL    HW167952   1.577   4.321   2.912
88726SOL    HW267953   1.586   4.374   3.053
88727SOL     OW67954   6.609   2.327   8.414
88727SOL    HW167955   6.617   2.252   8.473
88727SOL    HW267956   6.516   2.347   8.413
88728SOL     OW67957  10.180  13.364   8.066
88728SOL    HW167958  10.217  13.387   8.151
88728SOL    HW267959  10.216  13.428   8.005
88729SOL     OW67960  14.237   4.914  14.594
88729SOL    HW167961  14.292   4.853  14.644
88729SOL    HW267962  14.221   4.869  14.511
88730SOL     OW67963   5.448  10.157   4.883
88730SOL    HW167964   5.529  10.154   4.933
88730SOL    HW267965   5.390  10.095   4.927
88731SOL     OW67966  11.829  13.675   0.791
88731SOL    HW167967  11.834  13.696   0.698
88731SOL    HW267968  11.917  13.693   0.824
88732SOL     OW67969  11.663   8.077   9.454
88732SOL    HW167970  11.726   8.133   9.498
88732SOL    HW267971  11.578   8.112   9.480
88733SOL     OW67972   8.025   7.288   2.869
88733SOL    HW167973   8.082   7.241   2.929
88733SOL    HW267974   8.053   7.260   2.782
88734SOL     OW67975   6.708   0.252   3.342
88734SOL    HW167976   6.745   0.274   3.428
88734SOL    HW267977   6.613   0.254   3.357
88735SOL     OW67978   9.073   8.529   4.013
88735SOL    HW167979   9.161   8.527   3.977
88735SOL    HW267980   9.017   8.506   3.938
88736SOL     OW67981   9.671   3.470   2.214
88736SOL    HW167982   9.626   3.454   2.297
88736SOL    HW267983   9.738   3.536   2.235
88737SOL     OW67984  13.681   4.231  10.911
88737SOL    HW167985  13.741   4.301  10.885
88737SOL    HW267986  13.643   4.261  10.994
88738SOL     OW67987   5.450   1.143   1.013
88738SOL    HW167988   5.473   1.076   1.078
88738SOL    HW267989   5.498   1.117   0.935
88739SOL     OW67990  14.145   6.039   9.760
88739SOL    HW167991  14.221   6.097   9.769
88739SOL    HW267992  14.101   6.069   9.681
88740SOL     OW67993  14.856  13.705   9.879
88740SOL    HW167994  14.810  13.752   9.949
88740SOL    HW267995  14.810  13.621   9.873
88741SOL     OW67996  11.008  12.242  10.832
88741SOL    HW167997  10.962  12.207  10.756
88741SOL    HW267998  11.088  12.190  10.837
88742SOL     OW67999  14.425  12.462   7.259
88742SOL    HW168000  14.405  12.545   7.216
88742SOL    HW268001  14.375  12.397   7.209
88743SOL     OW68002  11.722  10.050   0.962
88743SOL    HW168003  11.758  10.113   1.025
88743SOL    HW268004  11.748  10.084   0.877
88744SOL     OW68005   1.568  13.398  12.669
88744SOL    HW168006   1.494  13.352  12.629
88744SOL    HW268007   1.611  13.332  12.723
88745SOL     OW68008  12.638  11.569   9.989
88745SOL    HW168009  12.662  11.479   9.965
88745SOL    HW268010  12.565  11.591   9.931
88746SOL     OW68011  10.930  12.071  10.619
88746SOL    HW168012  10.838  12.047  10.608
88746SOL    HW268013  10.966  12.070  10.530
88747SOL     OW68014   1.898   8.004   2.232
88747SOL    HW168015   1.839   8.064   2.277
88747SOL    HW268016   1.850   7.921   2.230
88748SOL     OW68017   1.366  13.266  14.193
88748SOL    HW168018   1.421  13.343  14.206
88748SOL    HW268019   1.287  13.283  14.244
88749SOL     OW68020   7.679  11.503  12.433
88749SOL    HW168021   7.759  11.534  12.473
88749SOL    HW268022   7.618  11.577  12.439
88750SOL     OW68023  11.432  14.785   7.095
88750SOL    HW168024  11.496  14.775   7.025
88750SOL    HW268025  11.468  14.737   7.169
88751SOL     OW68026   1.307  10.390  13.379
88751SOL    HW168027   1.398  10.417  13.390
88751SOL    HW268028   1.309  10.295  13.392
88752SOL     OW68029   8.658   1.581   7.484
88752SOL    HW168030   8.705   1.508   7.442
88752SOL    HW268031   8.679   1.657   7.429
88753SOL     OW68032  10.355  12.132   5.901
88753SOL    HW168033  10.361  12.150   5.994
88753SOL    HW268034  10.263  12.148   5.880
88754SOL     OW68035  13.557   1.205  11.283
88754SOL    HW168036  13.478   1.253  11.258
88754SOL    HW268037  13.608   1.269  11.333
88755SOL     OW68038  10.488   5.463   6.916
88755SOL    HW168039  10.410   5.411   6.895
88755SOL    HW268040  10.460   5.554   6.902
88756SOL     OW68041   6.695  10.316   4.312
88756SOL    HW168042   6.765  10.378   4.290
88756SOL    HW268043   6.694  10.255   4.238
88757SOL     OW68044   2.376   2.432   5.424
88757SOL    HW168045   2.340   2.502   5.477
88757SOL    HW268046   2.363   2.353   5.476
88758SOL     OW68047  10.474   6.475  13.535
88758SOL    HW168048  10.462   6.502  13.626
88758SOL    HW268049  10.387   6.444  13.508
88759SOL     OW68050   7.978   2.211  14.454
88759SOL    HW168051   8.052   2.161  14.420
88759SOL    HW268052   7.940   2.254  14.377
88760SOL     OW68053   5.506   1.662   7.137
88760SOL    HW168054   5.510   1.569   7.115
88760SOL    HW268055   5.508   1.707   7.052
88761SOL     OW68056   1.678   7.954   5.668
88761SOL    HW168057   1.627   7.931   5.590
88761SOL    HW268058   1.768   7.961   5.636
88762SOL     OW68059  13.348   2.165  12.860
88762SOL    HW168060  13.269   2.212  12.887
88762SOL    HW268061  13.400   2.159  12.940
88763SOL     OW68062   5.892  13.775   4.506
88763SOL    HW168063   5.816  13.769   4.564
88763SOL    HW268064   5.884  13.699   4.448
88764SOL     OW68065   1.948   0.427  10.095
88764SOL    HW168066   1.986   0.366  10.158
88764SOL    HW268067   2.006   0.503  10.096
88765SOL     OW68068   2.151  10.840   2.615
88765SOL    HW168069   2.173  10.923   2.658
88765SOL    HW268070   2.062  10.852   2.582
88766SOL     OW68071   1.849   3.081   7.845
88766SOL    HW168072   1.916   3.078   7.777
88766SOL    HW268073   1.882   3.144   7.909
88767SOL     OW68074   6.044  14.833  10.354
88767SOL    HW168075   6.118   0.011  10.359
88767SOL    HW268076   6.068  14.759  10.410
88768SOL     OW68077   8.730   5.095  14.134
88768SOL    HW168078   8.698   5.186  14.134
88768SOL    HW268079   8.791   5.092  14.208
88769SOL     OW68080  14.664   4.480   4.003
88769SOL    HW168081  14.757   4.483   3.980
88769SOL    HW268082  14.661   4.431   4.085
88770SOL     OW68083  12.801   8.724   1.675
88770SOL    HW168084  12.881   8.737   1.726
88770SOL    HW268085  12.757   8.809   1.676
88771SOL     OW68086  14.868  12.072   6.676
88771SOL    HW168087  14.867  12.049   6.584
88771SOL    HW268088  14.779  12.105   6.694
88772SOL     OW68089   4.697   3.696   0.296
88772SOL    HW168090   4.732   3.781   0.322
88772SOL    HW268091   4.649   3.714   0.215
88773SOL     OW68092   7.515  11.429   1.392
88773SOL    HW168093   7.489  11.519   1.408
88773SOL    HW268094   7.539  11.426   1.299
88774SOL     OW68095   8.872   1.076   5.803
88774SOL    HW168096   8.869   1.170   5.782
88774SOL    HW268097   8.783   1.055   5.831
88775SOL     OW68098   2.893   2.468   3.256
88775SOL    HW168099   2.935   2.537   3.204
88775SOL    HW268100   2.950   2.457   3.332
88776SOL     OW68101   6.311   1.161  14.440
88776SOL    HW168102   6.245   1.157  14.509
88776SOL    HW268103   6.269   1.123  14.363
88777SOL     OW68104   7.224   1.180   1.592
88777SOL    HW168105   7.311   1.167   1.554
88777SOL    HW268106   7.220   1.118   1.665
88778SOL     OW68107  10.704   1.804   2.683
88778SOL    HW168108  10.720   1.817   2.589
88778SOL    HW268109  10.686   1.710   2.691
88779SOL     OW68110   8.956   1.803   7.819
88779SOL    HW168111   8.982   1.751   7.895
88779SOL    HW268112   8.933   1.738   7.752
88780SOL     OW68113   3.426   7.198  10.295
88780SOL    HW168114   3.412   7.119  10.242
88780SOL    HW268115   3.427   7.166  10.385
88781SOL     OW68116  11.859   3.364   7.947
88781SOL    HW168117  11.788   3.425   7.923
88781SOL    HW268118  11.815   3.292   7.992
88782SOL     OW68119   9.792  11.032   6.413
88782SOL    HW168120   9.824  11.122   6.408
88782SOL    HW268121   9.721  11.035   6.478
88783SOL     OW68122   8.621   5.112  14.387
88783SOL    HW168123   8.703   5.158  14.401
88783SOL    HW268124   8.630   5.072  14.300
88784SOL     OW68125   4.646   5.625   2.097
88784SOL    HW168126   4.624   5.718   2.107
88784SOL    HW268127   4.605   5.583   2.173
88785SOL     OW68128   4.618  10.298   0.090
88785SOL    HW168129   4.661  10.218   0.060
88785SOL    HW268130   4.587  10.341   0.010
88786SOL     OW68131   8.734   0.246   1.887
88786SOL    HW168132   8.646   0.212   1.898
88786SOL    HW268133   8.735   0.328   1.936
88787SOL     OW68134   8.045   8.223   8.682
88787SOL    HW168135   8.008   8.228   8.594
88787SOL    HW268136   8.127   8.271   8.678
88788SOL     OW68137   1.071   3.566   5.326
88788SOL    HW168138   0.987   3.576   5.371
88788SOL    HW268139   1.131   3.625   5.372
88789SOL     OW68140   0.818   2.075   1.060
88789SOL    HW168141   0.801   2.155   1.010
88789SOL    HW268142   0.766   2.085   1.140
88790SOL     OW68143   0.651   4.725   4.679
88790SOL    HW168144   0.579   4.673   4.643
88790SOL    HW268145   0.725   4.665   4.682
88791SOL     OW68146  12.772   9.600   1.037
88791SOL    HW168147  12.776   9.649   1.119
88791SOL    HW268148  12.733   9.515   1.061
88792SOL     OW68149   9.536  12.420  12.842
88792SOL    HW168150   9.604  12.416  12.775
88792SOL    HW268151   9.518  12.329  12.863
88793SOL     OW68152   2.528  14.256  14.146
88793SOL    HW168153   2.498  14.347  14.138
88793SOL    HW268154   2.591  14.246  14.074
88794SOL     OW68155   2.353  10.674   1.479
88794SOL    HW168156   2.291  10.641   1.415
88794SOL    HW268157   2.351  10.769   1.467
88795SOL     OW68158  11.958  14.036   7.447
88795SOL    HW168159  11.867  14.065   7.454
88795SOL    HW268160  11.999  14.064   7.529
88796SOL     OW68161   4.603   5.231  12.184
88796SOL    HW168162   4.621   5.241  12.091
88796SOL    HW268163   4.520   5.278  12.196
88797SOL     OW68164  13.275   4.304   8.153
88797SOL    HW168165  13.208   4.276   8.215
88797SOL    HW268166  13.227   4.349   8.084
88798SOL     OW68167   4.722   8.968   4.424
88798SOL    HW168168   4.720   8.944   4.331
88798SOL    HW268169   4.752   8.889   4.469
88799SOL     OW68170   4.631   2.509   3.144
88799SOL    HW168171   4.537   2.496   3.159
88799SOL    HW268172   4.673   2.448   3.205
88800SOL     OW68173   3.638   6.644  13.139
88800SOL    HW168174   3.722   6.605  13.118
88800SOL    HW268175   3.596   6.581  13.198
88801SOL     OW68176  10.480   9.359   5.656
88801SOL    HW168177  10.537   9.436   5.655
88801SOL    HW268178  10.408   9.384   5.714
88802SOL     OW68179   2.308  11.270  10.576
88802SOL    HW168180   2.346  11.231  10.655
88802SOL    HW268181   2.267  11.351  10.607
88803SOL     OW68182   9.536   7.484   6.583
88803SOL    HW168183   9.502   7.485   6.672
88803SOL    HW268184   9.630   7.502   6.594
88804SOL     OW68185  14.755  11.055   5.236
88804SOL    HW168186  14.833  11.019   5.279
88804SOL    HW268187  14.688  10.988   5.248
88805SOL     OW68188   9.443  12.998  13.718
88805SOL    HW168189   9.460  12.904  13.727
88805SOL    HW268190   9.413  13.009  13.628
88806SOL     OW68191  13.484   3.060  10.795
88806SOL    HW168192  13.481   3.024  10.706
88806SOL    HW268193  13.519   2.988  10.848
88807SOL     OW68194   9.559   8.298   4.356
88807SOL    HW168195   9.490   8.356   4.387
88807SOL    HW268196   9.627   8.357   4.324
88808SOL     OW68197  10.662   6.268   5.963
88808SOL    HW168198  10.684   6.361   5.965
88808SOL    HW268199  10.739   6.226   5.925
88809SOL     OW68200  13.354   4.847   6.936
88809SOL    HW168201  13.421   4.897   6.983
88809SOL    HW268202  13.298   4.811   7.004
88810SOL     OW68203   0.228   4.086   7.533
88810SOL    HW168204   0.182   4.022   7.479
88810SOL    HW268205   0.205   4.170   7.495
88811SOL     OW68206   4.551   4.727   9.617
88811SOL    HW168207   4.463   4.692   9.629
88811SOL    HW268208   4.560   4.736   9.522
88812SOL     OW68209   8.783  10.193   9.623
88812SOL    HW168210   8.744  10.143   9.695
88812SOL    HW268211   8.786  10.130   9.550
88813SOL     OW68212   7.411   5.338  13.764
88813SOL    HW168213   7.381   5.428  13.777
88813SOL    HW268214   7.394   5.294  13.848
88814SOL     OW68215  13.326   7.359   1.914
88814SOL    HW168216  13.312   7.285   1.973
88814SOL    HW268217  13.297   7.327   1.828
88815SOL     OW68218   4.353   2.763   6.150
88815SOL    HW168219   4.326   2.814   6.226
88815SOL    HW268220   4.350   2.672   6.181
88816SOL     OW68221  10.085   9.865  14.827
88816SOL    HW168222  10.075   9.942   0.003
88816SOL    HW268223  10.094   9.902  14.739
88817SOL     OW68224   1.098   6.582   4.266
88817SOL    HW168225   1.154   6.629   4.327
88817SOL    HW268226   1.151   6.574   4.186
88818SOL     OW68227   7.140   7.482  12.805
88818SOL    HW168228   7.068   7.462  12.746
88818SOL    HW268229   7.171   7.569  12.778
88819SOL     OW68230   1.366  13.205   1.190
88819SOL    HW168231   1.320  13.224   1.272
88819SOL    HW268232   1.459  13.212   1.212
88820SOL     OW68233   4.488   0.608   8.779
88820SOL    HW168234   4.464   0.536   8.837
88820SOL    HW268235   4.415   0.669   8.785
88821SOL     OW68236   0.925  14.215  12.956
88821SOL    HW168237   0.852  14.277  12.956
88821SOL    HW268238   0.884  14.129  12.969
88822SOL     OW68239  10.730  13.213   2.316
88822SOL    HW168240  10.778  13.135   2.345
88822SOL    HW268241  10.680  13.184   2.239
88823SOL     OW68242   7.715   8.043  13.166
88823SOL    HW168243   7.788   8.086  13.122
88823SOL    HW268244   7.662   8.006  13.095
88824SOL     OW68245   1.385   6.857   8.825
88824SOL    HW168246   1.387   6.762   8.837
88824SOL    HW268247   1.399   6.870   8.732
88825SOL     OW68248   9.808  14.626  11.803
88825SOL    HW168249   9.852  14.555  11.849
88825SOL    HW268250   9.834  14.615  11.711
88826SOL     OW68251   4.813   2.028   8.438
88826SOL    HW168252   4.774   1.965   8.377
88826SOL    HW268253   4.901   1.994   8.453
88827SOL     OW68254  14.300   7.108  11.047
88827SOL    HW168255  14.389   7.078  11.059
88827SOL    HW268256  14.300   7.152  10.962
88828SOL     OW68257   3.847   3.761   9.480
88828SOL    HW168258   3.755   3.769   9.454
88828SOL    HW268259   3.869   3.846   9.519
88829SOL     OW68260   1.487  12.778  13.730
88829SOL    HW168261   1.453  12.852  13.679
88829SOL    HW268262   1.461  12.798  13.820
88830SOL     OW68263   8.590   9.260  12.105
88830SOL    HW168264   8.584   9.355  12.110
88830SOL    HW268265   8.599   9.232  12.196
88831SOL     OW68266   2.528   6.316   6.568
88831SOL    HW168267   2.612   6.283   6.598
88831SOL    HW268268   2.479   6.239   6.541
88832SOL     OW68269   2.989   7.404  14.311
88832SOL    HW168270   3.057   7.338  14.300
88832SOL    HW268271   3.029   7.472  14.365
88833SOL     OW68272  13.878  11.173   1.065
88833SOL    HW168273  13.956  11.201   1.113
88833SOL    HW268274  13.833  11.254   1.041
88834SOL     OW68275  10.649   4.256   3.152
88834SOL    HW168276  10.701   4.223   3.226
88834SOL    HW268277  10.682   4.206   3.077
88835SOL     OW68278   0.603  14.501   9.299
88835SOL    HW168279   0.648  14.511   9.215
88835SOL    HW268280   0.541  14.574   9.301
88836SOL     OW68281   7.579   9.474  10.874
88836SOL    HW168282   7.612   9.480  10.784
88836SOL    HW268283   7.484   9.483  10.866
88837SOL     OW68284   7.967   0.653  11.935
88837SOL    HW168285   7.940   0.596  11.863
88837SOL    HW268286   7.958   0.741  11.901
88838SOL     OW68287   9.271   5.654  10.154
88838SOL    HW168288   9.297   5.742  10.180
88838SOL    HW268289   9.347   5.600  10.173
88839SOL     OW68290   1.977  13.153   9.122
88839SOL    HW168291   1.992  13.147   9.028
88839SOL    HW268292   2.002  13.067   9.156
88840SOL     OW68293   8.261   6.805   4.072
88840SOL    HW168294   8.344   6.853   4.069
88840SOL    HW268295   8.276   6.726   4.021
88841SOL     OW68296  11.379   3.805   8.504
88841SOL    HW168297  11.405   3.727   8.554
88841SOL    HW268298  11.284   3.797   8.496
88842SOL     OW68299  12.569   8.350   1.884
88842SOL    HW168300  12.503   8.400   1.932
88842SOL    HW268301  12.584   8.400   1.804
88843SOL     OW68302   3.491  14.024  12.291
88843SOL    HW168303   3.433  14.079  12.238
88843SOL    HW268304   3.574  14.025  12.245
88844SOL     OW68305   9.343  11.499   3.072
88844SOL    HW168306   9.313  11.417   3.111
88844SOL    HW268307   9.344  11.562   3.144
88845SOL     OW68308  13.786   0.909   8.546
88845SOL    HW168309  13.869   0.862   8.547
88845SOL    HW268310  13.725   0.851   8.592
88846SOL     OW68311   8.037   9.034  11.714
88846SOL    HW168312   8.118   9.081  11.695
88846SOL    HW268313   8.028   9.039  11.810
88847SOL     OW68314   0.910  12.290   9.201
88847SOL    HW168315   0.852  12.226   9.161
88847SOL    HW268316   0.898  12.370   9.149
88848SOL     OW68317  13.988  10.247   4.210
88848SOL    HW168318  13.895  10.224   4.209
88848SOL    HW268319  13.993  10.329   4.161
88849SOL     OW68320   4.729  12.591   7.967
88849SOL    HW168321   4.691  12.515   8.011
88849SOL    HW268322   4.820  12.593   7.998
88850SOL     OW68323  11.252   0.194   2.186
88850SOL    HW168324  11.172   0.242   2.166
88850SOL    HW268325  11.314   0.261   2.214
88851SOL     OW68326   7.932  11.561  12.881
88851SOL    HW168327   7.922  11.611  12.962
88851SOL    HW268328   7.882  11.610  12.816
88852SOL     OW68329  14.155   1.324   2.535
88852SOL    HW168330  14.244   1.352   2.514
88852SOL    HW268331  14.163   1.229   2.548
88853SOL     OW68332   2.228   1.093   1.811
88853SOL    HW168333   2.216   1.172   1.758
88853SOL    HW268334   2.307   1.111   1.863
88854SOL     OW68335   2.352   5.024  10.486
88854SOL    HW168336   2.313   4.988  10.566
88854SOL    HW268337   2.287   5.085  10.452
88855SOL     OW68338   0.190  14.787  14.205
88855SOL    HW168339   0.247  14.823  14.274
88855SOL    HW268340   0.209  14.693  14.206
88856SOL     OW68341   8.307   1.169   0.965
88856SOL    HW168342   8.219   1.174   0.928
88856SOL    HW268343   8.358   1.232   0.915
88857SOL     OW68344  13.385  12.401   7.908
88857SOL    HW168345  13.355  12.472   7.964
88857SOL    HW268346  13.452  12.357   7.961
88858SOL     OW68347  11.632   0.984  14.197
88858SOL    HW168348  11.576   0.966  14.273
88858SOL    HW268349  11.628   1.079  14.186
88859SOL     OW68350  11.152   5.101   6.982
88859SOL    HW168351  11.208   5.112   6.905
88859SOL    HW268352  11.084   5.168   6.971
88860SOL     OW68353   5.462  13.389   4.091
88860SOL    HW168354   5.491  13.480   4.087
88860SOL    HW268355   5.441  13.366   4.001
88861SOL     OW68356   6.819   7.862  13.373
88861SOL    HW168357   6.798   7.905  13.290
88861SOL    HW268358   6.905   7.822  13.359
88862SOL     OW68359  14.108  14.880   8.837
88862SOL    HW168360  14.115  14.789   8.808
88862SOL    HW268361  14.013   0.014   8.845
88863SOL     OW68362   3.131  12.837   7.299
88863SOL    HW168363   3.126  12.858   7.206
88863SOL    HW268364   3.110  12.744   7.304
88864SOL     OW68365   1.659   1.335  10.711
88864SOL    HW168366   1.594   1.339  10.641
88864SOL    HW268367   1.716   1.410  10.696
88865SOL     OW68368   1.935   0.301   7.332
88865SOL    HW168369   1.995   0.308   7.257
88865SOL    HW268370   1.848   0.316   7.295
88866SOL     OW68371  13.514   2.164   5.928
88866SOL    HW168372  13.542   2.218   5.853
88866SOL    HW268373  13.589   2.108   5.945
88867SOL     OW68374   2.999  10.375   3.488
88867SOL    HW168375   3.030  10.441   3.551
88867SOL    HW268376   2.912  10.406   3.463
88868SOL     OW68377   8.276   9.746  12.853
88868SOL    HW168378   8.277   9.838  12.879
88868SOL    HW268379   8.237   9.746  12.766
88869SOL     OW68380  12.677  10.828   7.201
88869SOL    HW168381  12.728  10.748   7.204
88869SOL    HW268382  12.741  10.898   7.210
88870SOL     OW68383  14.372   3.728  11.559
88870SOL    HW168384  14.393   3.722  11.466
88870SOL    HW268385  14.417   3.807  11.588
88871SOL     OW68386   5.069  14.218   4.333
88871SOL    HW168387   5.130  14.290   4.350
88871SOL    HW268388   5.124  14.141   4.323
88872SOL     OW68389   4.686   4.067   2.935
88872SOL    HW168390   4.690   4.134   2.867
88872SOL    HW268391   4.743   4.099   3.004
88873SOL     OW68392   5.960   0.782   3.786
88873SOL    HW168393   5.920   0.869   3.790
88873SOL    HW268394   6.040   0.794   3.737
88874SOL     OW68395  11.380  10.163   7.412
88874SOL    HW168396  11.448  10.167   7.479
88874SOL    HW268397  11.367  10.253   7.385
88875SOL     OW68398   6.074  14.244   8.685
88875SOL    HW168399   6.144  14.304   8.660
88875SOL    HW268400   6.105  14.203   8.766
88876SOL     OW68401  10.932   8.644   1.913
88876SOL    HW168402  10.858   8.688   1.871
88876SOL    HW268403  10.892   8.585   1.976
88877SOL     OW68404   1.506   0.614  12.425
88877SOL    HW168405   1.575   0.562  12.466
88877SOL    HW268406   1.543   0.642  12.341
88878SOL     OW68407   2.771  14.615  13.062
88878SOL    HW168408   2.797  14.650  12.977
88878SOL    HW268409   2.785  14.520  13.054
88879SOL     OW68410  11.279  12.802   0.298
88879SOL    HW168411  11.191  12.826   0.270
88879SOL    HW268412  11.325  12.780   0.217
88880SOL     OW68413   9.448   0.345   4.010
88880SOL    HW168414   9.454   0.251   3.997
88880SOL    HW268415   9.416   0.379   3.927
88881SOL     OW68416   0.435   3.777  12.862
88881SOL    HW168417   0.485   3.831  12.923
88881SOL    HW268418   0.448   3.820  12.777
88882SOL     OW68419   7.348   2.784   7.485
88882SOL    HW168420   7.416   2.753   7.425
88882SOL    HW268421   7.395   2.812   7.563
88883SOL     OW68422   5.589   0.148   6.803
88883SOL    HW168423   5.596   0.224   6.860
88883SOL    HW268424   5.522   0.172   6.740
88884SOL     OW68425   5.905  11.395  10.262
88884SOL    HW168426   5.810  11.381  10.272
88884SOL    HW268427   5.929  11.338  10.189
88885SOL     OW68428  13.314  14.439  11.964
88885SOL    HW168429  13.358  14.519  11.935
88885SOL    HW268430  13.322  14.441  12.060
88886SOL     OW68431   5.371   3.879   1.145
88886SOL    HW168432   5.344   3.827   1.221
88886SOL    HW268433   5.449   3.926   1.175
88887SOL     OW68434   0.675   0.489   6.109
88887SOL    HW168435   0.603   0.461   6.052
88887SOL    HW268436   0.635   0.554   6.167
88888SOL     OW68437   4.034  14.329   8.413
88888SOL    HW168438   4.041  14.241   8.451
88888SOL    HW268439   3.967  14.373   8.464
88889SOL     OW68440   3.420   0.448   0.023
88889SOL    HW168441   3.443   0.481   0.110
88889SOL    HW268442   3.499   0.402  14.875
88890SOL     OW68443   8.245  13.723  14.499
88890SOL    HW168444   8.296  13.794  14.537
88890SOL    HW268445   8.302  13.686  14.432
88891SOL     OW68446   6.415   6.232   9.974
88891SOL    HW168447   6.419   6.267   9.885
88891SOL    HW268448   6.447   6.142   9.965
88892SOL     OW68449   6.856  13.401   5.229
88892SOL    HW168450   6.784  13.426   5.171
88892SOL    HW268451   6.888  13.318   5.193
88893SOL     OW68452  14.318  10.909   7.046
88893SOL    HW168453  14.294  10.901   7.138
88893SOL    HW268454  14.361  10.827   7.025
88894SOL     OW68455  12.481   1.148   4.309
88894SOL    HW168456  12.504   1.241   4.310
88894SOL    HW268457  12.526   1.110   4.384
88895SOL     OW68458  13.579   1.729  11.792
88895SOL    HW168459  13.512   1.738  11.724
88895SOL    HW268460  13.594   1.818  11.824
88896SOL     OW68461   5.451   1.060   9.022
88896SOL    HW168462   5.363   1.035   9.050
88896SOL    HW268463   5.477   1.129   9.083
88897SOL     OW68464   5.487   5.325   4.357
88897SOL    HW168465   5.482   5.262   4.429
88897SOL    HW268466   5.455   5.277   4.281
88898SOL     OW68467   4.801   0.469   4.909
88898SOL    HW168468   4.709   0.495   4.902
88898SOL    HW268469   4.829   0.457   4.818
88899SOL     OW68470   3.150   6.933   8.613
88899SOL    HW168471   3.087   6.878   8.657
88899SOL    HW268472   3.210   6.872   8.570
88900SOL     OW68473   3.524  13.498   9.982
88900SOL    HW168474   3.510  13.405   9.965
88900SOL    HW268475   3.436  13.533   9.995
88901SOL     OW68476   5.166   6.570   5.882
88901SOL    HW168477   5.136   6.644   5.934
88901SOL    HW268478   5.222   6.520   5.942
88902SOL     OW68479   9.180   2.733   9.373
88902SOL    HW168480   9.214   2.645   9.388
88902SOL    HW268481   9.139   2.728   9.286
88903SOL     OW68482  11.259   2.455   4.548
88903SOL    HW168483  11.279   2.535   4.498
88903SOL    HW268484  11.164   2.443   4.536
88904SOL     OW68485  10.832   3.249   9.479
88904SOL    HW168486  10.907   3.284   9.526
88904SOL    HW268487  10.788   3.325   9.441
88905SOL     OW68488   7.520   5.022   4.056
88905SOL    HW168489   7.480   5.006   4.142
88905SOL    HW268490   7.612   5.000   4.068
88906SOL     OW68491   5.592   3.993  11.128
88906SOL    HW168492   5.588   4.065  11.064
88906SOL    HW268493   5.504   3.956  11.129
88907SOL     OW68494   4.612  11.900  11.180
88907SOL    HW168495   4.525  11.912  11.141
88907SOL    HW268496   4.603  11.821  11.234
88908SOL     OW68497   6.860   6.372   8.900
88908SOL    HW168498   6.891   6.303   8.842
88908SOL    HW268499   6.859   6.451   8.846
88909SOL     OW68500  12.292   6.588   8.412
88909SOL    HW168501  12.350   6.533   8.358
88909SOL    HW268502  12.240   6.525   8.462
88910SOL     OW68503  10.972  11.474   9.345
88910SOL    HW168504  10.979  11.396   9.401
88910SOL    HW268505  10.898  11.456   9.288
88911SOL     OW68506  12.114  10.437   9.460
88911SOL    HW168507  12.097  10.363   9.401
88911SOL    HW268508  12.032  10.450   9.506
88912SOL     OW68509  14.868   8.789  14.398
88912SOL    HW168510   0.048   8.717  14.414
88912SOL    HW268511  14.791   8.767  14.450
88913SOL     OW68512   5.556   7.815  13.106
88913SOL    HW168513   5.462   7.820  13.091
88913SOL    HW268514   5.594   7.812  13.018
88914SOL     OW68515   1.165   3.166   3.845
88914SOL    HW168516   1.249   3.193   3.809
88914SOL    HW268517   1.165   3.070   3.838
88915SOL     OW68518   5.954   6.237   3.614
88915SOL    HW168519   5.887   6.232   3.546
88915SOL    HW268520   5.908   6.268   3.692
88916SOL     OW68521   5.264   2.993   6.530
88916SOL    HW168522   5.215   2.974   6.450
88916SOL    HW268523   5.215   2.948   6.599
88917SOL     OW68524   1.456  13.870   1.019
88917SOL    HW168525   1.523  13.827   0.966
88917SOL    HW268526   1.375  13.824   0.996
88918SOL     OW68527  11.845  11.125   5.419
88918SOL    HW168528  11.888  11.040   5.429
88918SOL    HW268529  11.861  11.149   5.328
88919SOL     OW68530   4.047  13.780   9.853
88919SOL    HW168531   4.059  13.871   9.879
88919SOL    HW268532   4.124  13.760   9.800
88920SOL     OW68533  12.547   4.928   8.791
88920SOL    HW168534  12.635   4.898   8.815
88920SOL    HW268535  12.488   4.863   8.829
88921SOL     OW68536   0.572   2.751   0.533
88921SOL    HW168537   0.589   2.705   0.451
88921SOL    HW268538   0.480   2.733   0.552
88922SOL     OW68539   2.433   9.150  11.445
88922SOL    HW168540   2.463   9.121  11.359
88922SOL    HW268541   2.349   9.192  11.428
88923SOL     OW68542   9.665  13.716   3.931
88923SOL    HW168543   9.664  13.798   3.981
88923SOL    HW268544   9.605  13.732   3.858
88924SOL     OW68545   4.033   1.871   2.663
88924SOL    HW168546   3.964   1.912   2.611
88924SOL    HW268547   3.990   1.843   2.743
88925SOL     OW68548   3.682  11.353  13.662
88925SOL    HW168549   3.623  11.415  13.702
88925SOL    HW268550   3.703  11.290  13.731
88926SOL     OW68551  10.440   5.432   7.275
88926SOL    HW168552  10.443   5.337   7.275
88926SOL    HW268553  10.511   5.458   7.334
88927SOL     OW68554  11.462   3.130   6.717
88927SOL    HW168555  11.381   3.180   6.707
88927SOL    HW268556  11.528   3.182   6.670
88928SOL     OW68557   0.659   7.787  13.845
88928SOL    HW168558   0.672   7.868  13.795
88928SOL    HW268559   0.680   7.717  13.784
88929SOL     OW68560   6.779  13.527   8.309
88929SOL    HW168561   6.833  13.548   8.385
88929SOL    HW268562   6.744  13.440   8.329
88930SOL     OW68563  11.717   5.435   9.043
88930SOL    HW168564  11.640   5.427   9.100
88930SOL    HW268565  11.743   5.345   9.025
88931SOL     OW68566   8.038   6.440   0.582
88931SOL    HW168567   7.943   6.440   0.596
88931SOL    HW268568   8.066   6.354   0.614
88932SOL     OW68569   1.851  11.575   0.989
88932SOL    HW168570   1.764  11.614   0.976
88932SOL    HW268571   1.861  11.515   0.915
88933SOL     OW68572   9.846   2.882   2.279
88933SOL    HW168573   9.922   2.938   2.263
88933SOL    HW268574   9.835   2.884   2.374
88934SOL     OW68575   7.330   6.058   3.488
88934SOL    HW168576   7.340   6.097   3.401
88934SOL    HW268577   7.236   6.051   3.500
88935SOL     OW68578   1.936   8.295  11.198
88935SOL    HW168579   2.009   8.351  11.226
88935SOL    HW268580   1.859   8.350  11.209
88936SOL     OW68581   6.026   6.328  10.820
88936SOL    HW168582   6.120   6.313  10.825
88936SOL    HW268583   6.004   6.370  10.903
88937SOL     OW68584  11.649  10.143   3.470
88937SOL    HW168585  11.722  10.080   3.464
88937SOL    HW268586  11.589  10.103   3.533
88938SOL     OW68587   7.041   5.671   1.451
88938SOL    HW168588   7.089   5.731   1.509
88938SOL    HW268589   6.996   5.611   1.511
88939SOL     OW68590   4.268   9.589   0.552
88939SOL    HW168591   4.258   9.565   0.644
88939SOL    HW268592   4.353   9.553   0.527
88940SOL     OW68593   1.849   1.818   2.418
88940SOL    HW168594   1.899   1.740   2.394
88940SOL    HW268595   1.760   1.800   2.388
88941SOL     OW68596  14.675  13.455  12.725
88941SOL    HW168597  14.663  13.481  12.817
88941SOL    HW268598  14.658  13.360  12.725
88942SOL     OW68599   0.637   3.340   6.453
88942SOL    HW168600   0.721   3.301   6.474
88942SOL    HW268601   0.606   3.291   6.376
88943SOL     OW68602   4.009   7.792  11.770
88943SOL    HW168603   3.920   7.822  11.754
88943SOL    HW268604   4.016   7.710  11.721
88944SOL     OW68605  14.599   9.056   1.339
88944SOL    HW168606  14.612   8.969   1.301
88944SOL    HW268607  14.524   9.092   1.292
88945SOL     OW68608   4.482   5.542  14.826
88945SOL    HW168609   4.516   5.484   0.012
88945SOL    HW268610   4.561   5.576  14.782
88946SOL     OW68611  11.992   9.851  13.768
88946SOL    HW168612  12.058   9.803  13.718
88946SOL    HW268613  11.909   9.812  13.741
88947SOL     OW68614   2.257   9.254   9.844
88947SOL    HW168615   2.235   9.195   9.916
88947SOL    HW268616   2.333   9.213   9.802
88948SOL     OW68617   5.430  10.476   1.478
88948SOL    HW168618   5.426  10.417   1.403
88948SOL    HW268619   5.469  10.424   1.548
88949SOL     OW68620   4.384  14.708   7.920
88949SOL    HW168621   4.426  14.795   7.917
88949SOL    HW268622   4.380  14.686   8.013
88950SOL     OW68623   1.742   1.924   0.163
88950SOL    HW168624   1.816   1.950   0.108
88950SOL    HW268625   1.695   2.006   0.180
88951SOL     OW68626  13.786  13.105  11.996
88951SOL    HW168627  13.692  13.099  12.016
88951SOL    HW268628  13.802  13.034  11.934
88952SOL     OW68629   3.145   1.883   7.908
88952SOL    HW168630   3.213   1.850   7.849
88952SOL    HW268631   3.079   1.919   7.850
88953SOL     OW68632  10.937  12.642  10.277
88953SOL    HW168633  10.891  12.725  10.270
88953SOL    HW268634  11.030  12.664  10.265
88954SOL     OW68635   4.710   0.283   1.432
88954SOL    HW168636   4.801   0.256   1.446
88954SOL    HW268637   4.715   0.348   1.362
88955SOL     OW68638  13.005   6.762   2.047
88955SOL    HW168639  13.005   6.702   2.122
88955SOL    HW268640  13.096   6.766   2.019
88956SOL     OW68641   5.333  14.545   0.045
88956SOL    HW168642   5.304  14.502   0.125
88956SOL    HW268643   5.262  14.606   0.023
88957SOL     OW68644   7.377  12.807   2.283
88957SOL    HW168645   7.467  12.804   2.251
88957SOL    HW268646   7.384  12.821   2.377
88958SOL     OW68647   8.829  13.767  13.678
88958SOL    HW168648   8.890  13.840  13.679
88958SOL    HW268649   8.778  13.780  13.598
88959SOL     OW68650   0.366   5.927   6.392
88959SOL    HW168651   0.406   5.950   6.476
88959SOL    HW268652   0.367   5.831   6.391
88960SOL     OW68653  14.108  14.615   3.488
88960SOL    HW168654  14.019  14.646   3.470
88960SOL    HW268655  14.142  14.587   3.403
88961SOL     OW68656  11.276   2.884   5.619
88961SOL    HW168657  11.343   2.949   5.640
88961SOL    HW268658  11.201   2.935   5.590
88962SOL     OW68659  12.109   6.942   5.832
88962SOL    HW168660  12.047   6.872   5.854
88962SOL    HW268661  12.058   7.023   5.843
88963SOL     OW68662   6.303  14.718   8.577
88963SOL    HW168663   6.352  14.763   8.509
88963SOL    HW268664   6.270  14.788   8.633
88964SOL     OW68665  11.508  13.908  13.052
88964SOL    HW168666  11.483  13.823  13.089
88964SOL    HW268667  11.575  13.941  13.111
88965SOL     OW68668  13.083   3.948  10.436
88965SOL    HW168669  13.031   3.878  10.476
88965SOL    HW268670  13.028   4.026  10.442
88966SOL     OW68671   3.741   8.395   3.983
88966SOL    HW168672   3.684   8.407   4.059
88966SOL    HW268673   3.738   8.301   3.965
88967SOL     OW68674  14.646   7.187   9.315
88967SOL    HW168675  14.579   7.129   9.278
88967SOL    HW268676  14.707   7.203   9.243
88968SOL     OW68677  10.633   3.487   2.894
88968SOL    HW168678  10.541   3.480   2.869
88968SOL    HW268679  10.659   3.397   2.914
88969SOL     OW68680  12.481   7.302  10.980
88969SOL    HW168681  12.477   7.269  11.070
88969SOL    HW268682  12.520   7.230  10.930
88970SOL     OW68683   9.195   7.062   4.436
88970SOL    HW168684   9.134   7.129   4.467
88970SOL    HW268685   9.184   6.989   4.497
88971SOL     OW68686   0.013  13.794  12.733
88971SOL    HW168687  14.807  13.831  12.742
88971SOL    HW268688   0.008  13.742  12.653
88972SOL     OW68689   9.558   2.183   6.856
88972SOL    HW168690   9.503   2.105   6.863
88972SOL    HW268691   9.613   2.180   6.934
88973SOL     OW68692  13.005   7.525   1.124
88973SOL    HW168693  12.969   7.529   1.035
88973SOL    HW268694  12.930   7.503   1.179
88974SOL     OW68695  14.449  11.678   1.403
88974SOL    HW168696  14.467  11.735   1.479
88974SOL    HW268697  14.397  11.733   1.344
88975SOL     OW68698   6.535   4.091   5.910
88975SOL    HW168699   6.509   4.083   6.002
88975SOL    HW268700   6.628   4.068   5.910
88976SOL     OW68701   5.173  11.477   4.407
88976SOL    HW168702   5.248  11.533   4.386
88976SOL    HW268703   5.210  11.388   4.409
88977SOL     OW68704   7.377  13.919  10.123
88977SOL    HW168705   7.352  13.873  10.042
88977SOL    HW268706   7.394  13.848  10.186
88978SOL     OW68707   1.570   5.172   3.499
88978SOL    HW168708   1.609   5.259   3.490
88978SOL    HW268709   1.585   5.130   3.414
88979SOL     OW68710   8.659   2.798   7.282
88979SOL    HW168711   8.727   2.762   7.225
88979SOL    HW268712   8.623   2.872   7.233
88980SOL     OW68713   2.461   4.625   8.297
88980SOL    HW168714   2.414   4.652   8.375
88980SOL    HW268715   2.553   4.644   8.317
88981SOL     OW68716  10.232   1.361  11.374
88981SOL    HW168717  10.293   1.315  11.431
88981SOL    HW268718  10.287   1.426  11.329
88982SOL     OW68719   4.833   9.792   3.000
88982SOL    HW168720   4.886   9.858   3.044
88982SOL    HW268721   4.769   9.765   3.065
88983SOL     OW68722   3.475   3.715   8.699
88983SOL    HW168723   3.421   3.667   8.636
88983SOL    HW268724   3.469   3.664   8.780
88984SOL     OW68725   8.853   7.958  13.614
88984SOL    HW168726   8.870   8.053  13.618
88984SOL    HW268727   8.910   7.921  13.682
88985SOL     OW68728   1.219  13.920  12.499
88985SOL    HW168729   1.315  13.926  12.496
88985SOL    HW268730   1.195  13.957  12.584
88986SOL     OW68731  13.197   1.051  11.140
88986SOL    HW168732  13.213   0.989  11.211
88986SOL    HW268733  13.262   1.120  11.153
88987SOL     OW68734   6.514  13.239   1.436
88987SOL    HW168735   6.444  13.296   1.404
88987SOL    HW268736   6.523  13.261   1.529
88988SOL     OW68737   1.660   5.781   2.149
88988SOL    HW168738   1.671   5.690   2.179
88988SOL    HW268739   1.673   5.833   2.228
88989SOL     OW68740  10.853   1.972   6.033
88989SOL    HW168741  10.916   1.902   6.047
88989SOL    HW268742  10.787   1.933   5.976
88990SOL     OW68743   9.485  11.410   4.646
88990SOL    HW168744   9.440  11.384   4.727
88990SOL    HW268745   9.456  11.346   4.581
88991SOL     OW68746   4.289   3.655   6.190
88991SOL    HW168747   4.342   3.714   6.244
88991SOL    HW268748   4.206   3.701   6.180
88992SOL     OW68749   9.332   7.886  10.854
88992SOL    HW168750   9.315   7.854  10.942
88992SOL    HW268751   9.346   7.807  10.802
88993SOL     OW68752   0.086   1.998  14.207
88993SOL    HW168753   0.033   1.986  14.286
88993SOL    HW268754   0.130   2.082  14.221
88994SOL     OW68755   9.498   3.405  12.457
88994SOL    HW168756   9.416   3.363  12.431
88994SOL    HW268757   9.520   3.364  12.540
88995SOL     OW68758   6.469   0.221   4.231
88995SOL    HW168759   6.394   0.212   4.289
88995SOL    HW268760   6.432   0.245   4.146
88996SOL     OW68761   9.630   3.322   2.741
88996SOL    HW168762   9.590   3.367   2.816
88996SOL    HW268763   9.654   3.236   2.775
88997SOL     OW68764   9.724   8.695   0.590
88997SOL    HW168765   9.697   8.668   0.678
88997SOL    HW268766   9.766   8.780   0.603
88998SOL     OW68767   9.069   3.786   9.952
88998SOL    HW168768   9.043   3.739  10.031
88998SOL    HW268769   9.009   3.861   9.948
88999SOL     OW68770   6.944   3.402   6.787
88999SOL    HW168771   6.900   3.482   6.814
88999SOL    HW268772   6.940   3.345   6.864
89000SOL     OW68773   5.524   7.901   3.243
89000SOL    HW168774   5.582   7.827   3.223
89000SOL    HW268775   5.583   7.977   3.248
89001SOL     OW68776   5.929   4.965  11.022
89001SOL    HW168777   5.873   5.031  10.982
89001SOL    HW268778   5.962   5.005  11.102
89002SOL     OW68779   4.049   9.938   4.335
89002SOL    HW168780   3.977   9.999   4.352
89002SOL    HW268781   4.006   9.856   4.311
89003SOL     OW68782  14.031  13.865   0.811
89003SOL    HW168783  14.023  13.793   0.748
89003SOL    HW268784  13.942  13.900   0.819
89004SOL     OW68785  13.673  10.063   8.616
89004SOL    HW168786  13.623  10.018   8.684
89004SOL    HW268787  13.695  10.148   8.654
89005SOL     OW68788  14.467   4.552  11.311
89005SOL    HW168789  14.470   4.577  11.404
89005SOL    HW268790  14.559   4.545  11.285
89006SOL     OW68791   0.299  12.812   9.706
89006SOL    HW168792   0.279  12.807   9.612
89006SOL    HW268793   0.365  12.744   9.720
89007SOL     OW68794   0.183   5.434   5.466
89007SOL    HW168795   0.184   5.529   5.475
89007SOL    HW268796   0.091   5.412   5.447
89008SOL     OW68797   6.669   9.465   4.959
89008SOL    HW168798   6.740   9.412   4.922
89008SOL    HW268799   6.665   9.542   4.903
89009SOL     OW68800  12.993   2.041   2.383
89009SOL    HW168801  13.008   1.989   2.304
89009SOL    HW268802  12.907   2.081   2.370
89010SOL     OW68803   3.438   8.473  11.758
89010SOL    HW168804   3.531   8.459  11.777
89010SOL    HW268805   3.412   8.543  11.817
89011SOL     OW68806   9.124   4.506   1.441
89011SOL    HW168807   9.108   4.518   1.347
89011SOL    HW268808   9.041   4.472   1.476
89012SOL     OW68809  13.208   0.010   5.275
89012SOL    HW168810  13.140  14.858   5.217
89012SOL    HW268811  13.261  14.815   5.297
89013SOL     OW68812   5.567   9.359   6.460
89013SOL    HW168813   5.545   9.348   6.368
89013SOL    HW268814   5.511   9.431   6.490
89014SOL     OW68815  13.475  10.620   5.821
89014SOL    HW168816  13.429  10.656   5.896
89014SOL    HW268817  13.454  10.526   5.823
89015SOL     OW68818  13.389  13.306   2.309
89015SOL    HW168819  13.312  13.350   2.273
89015SOL    HW268820  13.372  13.213   2.294
89016SOL     OW68821  10.461   5.508   9.427
89016SOL    HW168822  10.390   5.553   9.473
89016SOL    HW268823  10.454   5.539   9.337
89017SOL     OW68824   9.001   4.045  12.835
89017SOL    HW168825   8.958   3.991  12.768
89017SOL    HW268826   9.010   3.986  12.911
89018SOL     OW68827   8.861   9.491   8.724
89018SOL    HW168828   8.910   9.412   8.700
89018SOL    HW268829   8.919   9.563   8.701
89019SOL     OW68830   4.697   1.553   1.943
89019SOL    HW168831   4.711   1.459   1.956
89019SOL    HW268832   4.700   1.590   2.032
89020SOL     OW68833   2.504   0.537   1.816
89020SOL    HW168834   2.478   0.629   1.821
89020SOL    HW268835   2.517   0.520   1.723
89021SOL     OW68836   7.258  10.206   0.408
89021SOL    HW168837   7.249  10.300   0.399
89021SOL    HW268838   7.179  10.170   0.368
89022SOL     OW68839  11.387   0.723  12.860
89022SOL    HW168840  11.350   0.798  12.813
89022SOL    HW268841  11.440   0.678  12.795
89023SOL     OW68842   2.628   5.513  10.884
89023SOL    HW168843   2.629   5.417  10.884
89023SOL    HW268844   2.696   5.539  10.822
89024SOL     OW68845   0.114   3.442  11.485
89024SOL    HW168846   0.095   3.410  11.397
89024SOL    HW268847   0.209   3.434  11.494
89025SOL     OW68848   1.442   2.070   1.101
89025SOL    HW168849   1.417   2.160   1.121
89025SOL    HW268850   1.466   2.072   1.008
89026SOL     OW68851   3.866   3.127   4.259
89026SOL    HW168852   3.829   3.215   4.269
89026SOL    HW268853   3.930   3.136   4.188
89027SOL     OW68854   8.754   0.081   7.651
89027SOL    HW168855   8.750   0.121   7.565
89027SOL    HW268856   8.663   0.072   7.679
89028SOL     OW68857  10.561   9.054   4.776
89028SOL    HW168858  10.634   8.994   4.791
89028SOL    HW268859  10.500   9.036   4.847
89029SOL     OW68860   0.969   7.714   9.182
89029SOL    HW168861   1.058   7.719   9.146
89029SOL    HW268862   0.978   7.747   9.272
89030SOL     OW68863  14.603  11.370   3.963
89030SOL    HW168864  14.599  11.348   3.870
89030SOL    HW268865  14.607  11.466   3.965
89031SOL     OW68866   9.811   2.424  14.587
89031SOL    HW168867   9.812   2.392  14.677
89031SOL    HW268868   9.820   2.346  14.533
89032SOL     OW68869   3.907  14.634  13.422
89032SOL    HW168870   3.907  14.610  13.329
89032SOL    HW268871   3.814  14.647  13.443
89033SOL     OW68872   8.315   4.953   2.991
89033SOL    HW168873   8.279   4.933   2.905
89033SOL    HW268874   8.294   5.045   3.006
89034SOL     OW68875   8.887   4.421   8.914
89034SOL    HW168876   8.915   4.400   8.825
89034SOL    HW268877   8.951   4.377   8.970
89035SOL     OW68878  14.242   8.632   7.942
89035SOL    HW168879  14.213   8.647   8.032
89035SOL    HW268880  14.320   8.577   7.951
89036SOL     OW68881   4.640   0.090   1.277
89036SOL    HW168882   4.625   0.166   1.333
89036SOL    HW268883   4.556   0.043   1.278
89037SOL     OW68884  13.159   9.717  12.406
89037SOL    HW168885  13.176   9.809  12.426
89037SOL    HW268886  13.210   9.700  12.327
89038SOL     OW68887  14.450   1.796  12.314
89038SOL    HW168888  14.395   1.718  12.315
89038SOL    HW268889  14.511   1.784  12.387
89039SOL     OW68890   3.237   0.070  14.007
89039SOL    HW168891   3.316   0.066  13.954
89039SOL    HW268892   3.226  14.863  14.042
89040SOL     OW68893   6.284  14.442   7.593
89040SOL    HW168894   6.191  14.463   7.606
89040SOL    HW268895   6.297  14.451   7.499
89041SOL     OW68896   4.111   7.095  13.968
89041SOL    HW168897   4.157   7.107  13.886
89041SOL    HW268898   4.099   7.183  14.003
89042SOL     OW68899   4.128   1.850  10.287
89042SOL    HW168900   4.068   1.922  10.267
89042SOL    HW268901   4.159   1.869  10.376
89043SOL     OW68902  12.402   1.183   3.854
89043SOL    HW168903  12.337   1.170   3.924
89043SOL    HW268904  12.380   1.117   3.788
89044SOL     OW68905   9.325   3.259   6.418
89044SOL    HW168906   9.395   3.259   6.483
89044SOL    HW268907   9.287   3.171   6.423
89045SOL     OW68908   8.968   6.009  12.553
89045SOL    HW168909   8.911   5.940  12.519
89045SOL    HW268910   8.911   6.063  12.608
89046SOL     OW68911  12.214   0.146  14.437
89046SOL    HW168912  12.283   0.133  14.372
89046SOL    HW268913  12.149   0.200  14.391
89047SOL     OW68914   9.580   2.011   1.045
89047SOL    HW168915   9.489   1.983   1.051
89047SOL    HW268916   9.610   1.978   0.960
89048SOL     OW68917   7.795   5.392   8.120
89048SOL    HW168918   7.765   5.347   8.041
89048SOL    HW268919   7.724   5.453   8.141
89049SOL     OW68920   5.091  11.123  10.758
89049SOL    HW168921   5.171  11.072  10.775
89049SOL    HW268922   5.117  11.214  10.773
89050SOL     OW68923   4.097  12.137   1.700
89050SOL    HW168924   4.110  12.043   1.712
89050SOL    HW268925   4.005  12.146   1.676
89051SOL     OW68926  14.066   2.723   2.495
89051SOL    HW168927  14.086   2.811   2.465
89051SOL    HW268928  13.984   2.700   2.450
89052SOL     OW68929  11.212  13.057  10.736
89052SOL    HW168930  11.235  12.974  10.696
89052SOL    HW268931  11.177  13.033  10.823
89053SOL     OW68932  13.948   7.214   7.140
89053SOL    HW168933  14.007   7.181   7.208
89053SOL    HW268934  13.978   7.303   7.122
89054SOL     OW68935  14.289  14.192   4.516
89054SOL    HW168936  14.198  14.219   4.506
89054SOL    HW268937  14.283  14.101   4.546
89055SOL     OW68938   2.749   2.960  12.873
89055SOL    HW168939   2.744   2.864  12.876
89055SOL    HW268940   2.822   2.982  12.931
89056SOL     OW68941   1.163   5.161  13.447
89056SOL    HW168942   1.219   5.083  13.441
89056SOL    HW268943   1.129   5.173  13.359
89057SOL     OW68944   4.329   9.968   4.088
89057SOL    HW168945   4.351  10.053   4.050
89057SOL    HW268946   4.412   9.922   4.096
89058SOL     OW68947   6.351  11.214   8.876
89058SOL    HW168948   6.304  11.131   8.891
89058SOL    HW268949   6.442  11.194   8.895
89059SOL     OW68950   1.756  12.003   6.284
89059SOL    HW168951   1.786  12.089   6.313
89059SOL    HW268952   1.835  11.949   6.283
89060SOL     OW68953  14.232   3.545  14.853
89060SOL    HW168954  14.272   3.535   0.059
89060SOL    HW268955  14.239   3.458  14.814
89061SOL     OW68956   4.060   0.981   2.006
89061SOL    HW168957   3.998   1.045   2.042
89061SOL    HW268958   4.017   0.949   1.926
89062SOL     OW68959   3.491   8.417  12.079
89062SOL    HW168960   3.465   8.327  12.060
89062SOL    HW268961   3.539   8.410  12.162
89063SOL     OW68962   9.769   4.231   1.861
89063SOL    HW168963   9.764   4.144   1.823
89063SOL    HW268964   9.735   4.221   1.950
89064SOL     OW68965   3.847  13.281   2.136
89064SOL    HW168966   3.779  13.218   2.159
89064SOL    HW268967   3.875  13.317   2.220
89065SOL     OW68968  11.369  13.158   3.282
89065SOL    HW168969  11.429  13.143   3.209
89065SOL    HW268970  11.368  13.075   3.330
89066SOL     OW68971  14.157   2.378  10.574
89066SOL    HW168972  14.201   2.460  10.555
89066SOL    HW268973  14.079   2.379  10.518
89067SOL     OW68974  14.088  11.845   0.766
89067SOL    HW168975  14.098  11.763   0.718
89067SOL    HW268976  14.092  11.819   0.858
89068SOL     OW68977   9.229  10.415  14.370
89068SOL    HW168978   9.152  10.364  14.343
89068SOL    HW268979   9.232  10.488  14.309
89069SOL     OW68980  10.606  12.510   0.601
89069SOL    HW168981  10.654  12.512   0.684
89069SOL    HW268982  10.557  12.427   0.604
89070SOL     OW68983   9.176  12.979   9.735
89070SOL    HW168984   9.187  12.977   9.640
89070SOL    HW268985   9.227  13.055   9.763
89071SOL     OW68986  11.171   3.795  10.299
89071SOL    HW168987  11.211   3.717  10.260
89071SOL    HW268988  11.101   3.819  10.238
89072SOL     OW68989   2.467  10.406   8.004
89072SOL    HW168990   2.489  10.488   7.960
89072SOL    HW268991   2.414  10.358   7.940
89073SOL     OW68992  12.970   1.220   0.692
89073SOL    HW168993  13.009   1.300   0.655
89073SOL    HW268994  12.926   1.179   0.618
89074SOL     OW68995   5.339   0.268   1.891
89074SOL    HW168996   5.299   0.251   1.976
89074SOL    HW268997   5.390   0.189   1.872
89075SOL     OW68998   1.769   3.918   5.108
89075SOL    HW168999   1.730   4.000   5.137
89075SOL    HW269000   1.855   3.943   5.075
89076SOL     OW69001   6.735   5.793   9.340
89076SOL    HW169002   6.750   5.741   9.419
89076SOL    HW269003   6.737   5.884   9.371
89077SOL     OW69004   9.576   7.703   2.309
89077SOL    HW169005   9.647   7.659   2.261
89077SOL    HW269006   9.507   7.716   2.244
89078SOL     OW69007  14.771   9.221   0.102
89078SOL    HW169008  14.692   9.267   0.134
89078SOL    HW269009  14.843   9.276   0.132
89079SOL     OW69010   4.800   0.263   6.165
89079SOL    HW169011   4.743   0.187   6.165
89079SOL    HW269012   4.770   0.316   6.091
89080SOL     OW69013  10.812  11.975   8.636
89080SOL    HW169014  10.736  11.997   8.582
89080SOL    HW269015  10.857  12.059   8.649
89081SOL     OW69016   3.665   1.509  14.184
89081SOL    HW169017   3.578   1.471  14.176
89081SOL    HW269018   3.650   1.596  14.221
89082SOL     OW69019  10.145   1.022   5.832
89082SOL    HW169020  10.074   1.071   5.792
89082SOL    HW269021  10.225   1.060   5.794
89083SOL     OW69022   5.693   4.356  14.307
89083SOL    HW169023   5.639   4.434  14.311
89083SOL    HW269024   5.677   4.310  14.390
89084SOL     OW69025   0.111   0.671  12.497
89084SOL    HW169026   0.115   0.576  12.495
89084SOL    HW269027   0.027   0.691  12.539
89085SOL     OW69028  12.258   3.821   7.052
89085SOL    HW169029  12.184   3.765   7.078
89085SOL    HW269030  12.332   3.761   7.043
89086SOL     OW69031  14.613   0.978   7.603
89086SOL    HW169032  14.539   1.019   7.648
89086SOL    HW269033  14.616   1.020   7.517
89087SOL     OW69034   1.281   2.753  13.167
89087SOL    HW169035   1.368   2.740  13.206
89087SOL    HW269036   1.292   2.831  13.112
89088SOL     OW69037   0.889   0.098   6.287
89088SOL    HW169038   0.849   0.027   6.236
89088SOL    HW269039   0.982   0.091   6.270
89089SOL     OW69040   3.308   6.386  10.487
89089SOL    HW169041   3.255   6.311  10.457
89089SOL    HW269042   3.383   6.387  10.427
89090SOL     OW69043  13.681   8.145  13.808
89090SOL    HW169044  13.746   8.139  13.877
89090SOL    HW269045  13.692   8.233  13.772
89091SOL     OW69046  14.359   4.811  11.180
89091SOL    HW169047  14.350   4.716  11.179
89091SOL    HW269048  14.301   4.842  11.111
89092SOL     OW69049   8.328  13.101  10.032
89092SOL    HW169050   8.385  13.029  10.056
89092SOL    HW269051   8.307  13.086   9.940
89093SOL     OW69052  12.845   6.489   7.721
89093SOL    HW169053  12.783   6.423   7.751
89093SOL    HW269054  12.792   6.554   7.676
89094SOL     OW69055  12.005   8.365   7.542
89094SOL    HW169056  12.068   8.378   7.613
89094SOL    HW269057  11.922   8.347   7.586
89095SOL     OW69058  13.724   6.373   1.160
89095SOL    HW169059  13.735   6.431   1.085
89095SOL    HW269060  13.792   6.306   1.148
89096SOL     OW69061   4.108  14.532   3.555
89096SOL    HW169062   4.185  14.587   3.568
89096SOL    HW269063   4.135  14.467   3.490
89097SOL     OW69064   3.989   2.569   3.538
89097SOL    HW169065   3.906   2.616   3.531
89097SOL    HW269066   3.984   2.500   3.472
89098SOL     OW69067  10.223  14.220   7.499
89098SOL    HW169068  10.315  14.233   7.473
89098SOL    HW269069  10.177  14.296   7.465
89099SOL     OW69070   1.045   9.981   5.939
89099SOL    HW169071   1.041   9.994   5.845
89099SOL    HW269072   1.131  10.014   5.964
89100SOL     OW69073  11.975   9.045  12.732
89100SOL    HW169074  11.954   8.968  12.785
89100SOL    HW269075  11.893   9.066  12.688
89101SOL     OW69076  11.743  13.256   2.964
89101SOL    HW169077  11.753  13.317   3.037
89101SOL    HW269078  11.669  13.290   2.913
89102SOL     OW69079   7.439   0.337  12.359
89102SOL    HW169080   7.471   0.423  12.386
89102SOL    HW269081   7.372   0.355  12.293
89103SOL     OW69082  11.585   8.171  12.264
89103SOL    HW169083  11.544   8.134  12.342
89103SOL    HW269084  11.676   8.142  12.268
89104SOL     OW69085   5.193  10.472  14.586
89104SOL    HW169086   5.201  10.376  14.585
89104SOL    HW269087   5.143  10.492  14.507
89105SOL     OW69088   1.347  13.706  14.078
89105SOL    HW169089   1.420  13.655  14.043
89105SOL    HW269090   1.333  13.672  14.166
89106SOL     OW69091   8.389   3.771  12.253
89106SOL    HW169092   8.403   3.680  12.226
89106SOL    HW269093   8.294   3.783  12.250
89107SOL     OW69094   0.887   3.319  12.553
89107SOL    HW169095   0.806   3.336  12.602
89107SOL    HW269096   0.957   3.344  12.613
89108SOL     OW69097   9.450   1.559   7.608
89108SOL    HW169098   9.511   1.521   7.545
89108SOL    HW269099   9.408   1.483   7.650
89109SOL     OW69100   8.988   4.648   9.065
89109SOL    HW169101   9.050   4.596   9.115
89109SOL    HW269102   8.972   4.597   8.986
89110SOL     OW69103   3.329   7.700  10.618
89110SOL    HW169104   3.417   7.663  10.611
89110SOL    HW269105   3.316   7.712  10.712
89111SOL     OW69106  11.544   2.897  14.206
89111SOL    HW169107  11.638   2.906  14.195
89111SOL    HW269108  11.509   2.893  14.117
89112SOL     OW69109   8.049   0.875  11.172
89112SOL    HW169110   7.960   0.839  11.165
89112SOL    HW269111   8.063   0.920  11.089
89113SOL     OW69112   1.314  10.075  14.613
89113SOL    HW169113   1.231  10.028  14.614
89113SOL    HW269114   1.295  10.158  14.570
89114SOL     OW69115   2.925   7.557  13.628
89114SOL    HW169116   2.879   7.621  13.682
89114SOL    HW269117   2.878   7.557  13.545
89115SOL     OW69118   2.925   4.492  12.503
89115SOL    HW169119   2.932   4.399  12.483
89115SOL    HW269120   3.014   4.519  12.524
89116SOL     OW69121   0.979   0.471  13.183
89116SOL    HW169122   0.944   0.520  13.109
89116SOL    HW269123   1.071   0.497  13.187
89117SOL     OW69124  12.052   3.409  11.626
89117SOL    HW169125  12.088   3.351  11.559
89117SOL    HW269126  11.984   3.357  11.668
89118SOL     OW69127   9.592   4.246  12.891
89118SOL    HW169128   9.518   4.304  12.871
89118SOL    HW269129   9.615   4.267  12.981
89119SOL     OW69130   2.451   6.767   4.630
89119SOL    HW169131   2.366   6.780   4.587
89119SOL    HW269132   2.455   6.836   4.696
89120SOL     OW69133  13.497  12.043   0.360
89120SOL    HW169134  13.553  11.966   0.351
89120SOL    HW269135  13.526  12.084   0.441
89121SOL     OW69136   6.417  10.878  10.575
89121SOL    HW169137   6.479  10.949  10.593
89121SOL    HW269138   6.461  10.799  10.607
89122SOL     OW69139  13.077  10.926   1.602
89122SOL    HW169140  13.090  10.976   1.682
89122SOL    HW269141  13.160  10.933   1.555
89123SOL     OW69142   7.256  12.375   2.848
89123SOL    HW169143   7.259  12.392   2.942
89123SOL    HW269144   7.173  12.329   2.835
89124SOL     OW69145   0.760  11.230   9.850
89124SOL    HW169146   0.757  11.254   9.942
89124SOL    HW269147   0.697  11.290   9.808
89125SOL     OW69148  12.445  13.272   1.542
89125SOL    HW169149  12.483  13.319   1.616
89125SOL    HW269150  12.357  13.309   1.532
89126SOL     OW69151  11.814   8.910   4.099
89126SOL    HW169152  11.820   8.886   4.006
89126SOL    HW269153  11.891   8.870   4.139
89127SOL     OW69154   0.616  11.717   9.153
89127SOL    HW169155   0.645  11.658   9.084
89127SOL    HW269156   0.696  11.765   9.178
89128SOL     OW69157   5.299  10.555  13.754
89128SOL    HW169158   5.373  10.596  13.708
89128SOL    HW269159   5.221  10.593  13.713
89129SOL     OW69160   8.181   1.263   2.260
89129SOL    HW169161   8.117   1.204   2.220
89129SOL    HW269162   8.136   1.347   2.266
89130SOL     OW69163  10.407  12.087   4.432
89130SOL    HW169164  10.366  12.011   4.473
89130SOL    HW269165  10.496  12.058   4.411
89131SOL     OW69166   0.651   1.910   9.480
89131SOL    HW169167   0.618   1.914   9.390
89131SOL    HW269168   0.684   1.821   9.490
89132SOL     OW69169   4.656   4.869  10.258
89132SOL    HW169170   4.642   4.817  10.178
89132SOL    HW269171   4.750   4.888  10.257
89133SOL     OW69172  10.296   5.521   1.262
89133SOL    HW169173  10.387   5.547   1.250
89133SOL    HW269174  10.253   5.546   1.180
89134SOL     OW69175   5.207  14.525   4.752
89134SOL    HW169176   5.145  14.453   4.746
89134SOL    HW269177   5.289  14.484   4.778
89135SOL     OW69178  11.999   8.789   5.548
89135SOL    HW169179  11.934   8.761   5.613
89135SOL    HW269180  12.037   8.707   5.516
89136SOL     OW69181  11.376   8.848  13.492
89136SOL    HW169182  11.325   8.842  13.573
89136SOL    HW269183  11.313   8.878  13.427
89137SOL     OW69184   8.421   9.379  14.347
89137SOL    HW169185   8.403   9.314  14.279
89137SOL    HW269186   8.466   9.330  14.415
89138SOL     OW69187   6.551  12.484   0.924
89138SOL    HW169188   6.627  12.543   0.925
89138SOL    HW269189   6.589  12.396   0.925
89139SOL     OW69190   4.015   9.948   9.470
89139SOL    HW169191   4.002  10.036   9.506
89139SOL    HW269192   4.098   9.954   9.423
89140SOL     OW69193   1.624  14.053   3.375
89140SOL    HW169194   1.618  13.985   3.308
89140SOL    HW269195   1.577  14.018   3.450
89141SOL     OW69196   4.727  11.690  13.455
89141SOL    HW169197   4.768  11.630  13.517
89141SOL    HW269198   4.634  11.666  13.456
89142SOL     OW69199   7.481   9.918   0.026
89142SOL    HW169200   7.483   9.824   0.044
89142SOL    HW269201   7.557   9.933  14.851
89143SOL     OW69202   2.484  12.119   1.322
89143SOL    HW169203   2.424  12.132   1.249
89143SOL    HW269204   2.501  12.025   1.323
89144SOL     OW69205  12.202   0.257   5.367
89144SOL    HW169206  12.123   0.205   5.354
89144SOL    HW269207  12.227   0.286   5.279
89145SOL     OW69208   1.516  11.634   3.267
89145SOL    HW169209   1.488  11.712   3.219
89145SOL    HW269210   1.601  11.611   3.230
89146SOL     OW69211   3.472  12.911   1.615
89146SOL    HW169212   3.463  12.831   1.668
89146SOL    HW269213   3.473  12.879   1.525
89147SOL     OW69214   8.367   7.088   3.005
89147SOL    HW169215   8.310   7.093   3.081
89147SOL    HW269216   8.398   6.998   3.004
89148SOL     OW69217  13.858  10.885   8.601
89148SOL    HW169218  13.852  10.841   8.516
89148SOL    HW269219  13.951  10.881   8.623
89149SOL     OW69220   2.782  13.010   0.437
89149SOL    HW169221   2.751  13.044   0.354
89149SOL    HW269222   2.734  12.928   0.450
89150SOL     OW69223   1.901   4.323   9.723
89150SOL    HW169224   1.927   4.315   9.632
89150SOL    HW269225   1.927   4.412   9.748
89151SOL     OW69226  10.380   5.785   4.971
89151SOL    HW169227  10.374   5.874   4.936
89151SOL    HW269228  10.410   5.732   4.897
89152SOL     OW69229  12.440   8.729   6.434
89152SOL    HW169230  12.386   8.764   6.363
89152SOL    HW269231  12.463   8.641   6.406
89153SOL     OW69232  13.617   6.098   1.079
89153SOL    HW169233  13.651   6.066   0.996
89153SOL    HW269234  13.695   6.110   1.134
89154SOL     OW69235   2.371   3.083   7.378
89154SOL    HW169236   2.412   3.159   7.336
89154SOL    HW269237   2.302   3.120   7.433
89155SOL     OW69238   0.402   5.526   7.269
89155SOL    HW169239   0.474   5.547   7.209
89155SOL    HW269240   0.432   5.556   7.354
89156SOL     OW69241   3.164  13.542   9.383
89156SOL    HW169242   3.150  13.531   9.288
89156SOL    HW269243   3.259  13.550   9.392
89157SOL     OW69244   3.363   8.140  11.754
89157SOL    HW169245   3.342   8.149  11.661
89157SOL    HW269246   3.367   8.230  11.787
89158SOL     OW69247  11.060   9.628  12.861
89158SOL    HW169248  11.123   9.698  12.843
89158SOL    HW269249  11.075   9.564  12.791
89159SOL     OW69250   8.314   1.951   2.846
89159SOL    HW169251   8.235   2.002   2.828
89159SOL    HW269252   8.296   1.864   2.809
89160SOL     OW69253  12.236   1.315   2.418
89160SOL    HW169254  12.230   1.409   2.436
89160SOL    HW269255  12.327   1.301   2.391
89161SOL     OW69256  13.926  10.810   1.215
89161SOL    HW169257  13.950  10.719   1.233
89161SOL    HW269258  14.005  10.850   1.181
89162SOL     OW69259   2.876   6.067   3.865
89162SOL    HW169260   2.873   6.160   3.842
89162SOL    HW269261   2.796   6.052   3.915
89163SOL     OW69262   5.305  13.452   9.177
89163SOL    HW169263   5.370  13.382   9.187
89163SOL    HW269264   5.325  13.491   9.092
89164SOL     OW69265   5.793   4.894  10.378
89164SOL    HW169266   5.823   4.873  10.289
89164SOL    HW269267   5.853   4.964  10.407
89165SOL     OW69268   9.237   4.330   0.687
89165SOL    HW169269   9.157   4.277   0.680
89165SOL    HW269270   9.308   4.271   0.664
89166SOL     OW69271  12.307  11.360   2.325
89166SOL    HW169272  12.388  11.412   2.324
89166SOL    HW269273  12.253  11.399   2.257
89167SOL     OW69274   6.138   7.199   4.457
89167SOL    HW169275   6.107   7.282   4.493
89167SOL    HW269276   6.083   7.133   4.499
89168SOL     OW69277   8.078  12.179  11.966
89168SOL    HW169278   8.039  12.262  11.994
89168SOL    HW269279   8.005  12.130  11.929
89169SOL     OW69280  10.273   9.660   9.307
89169SOL    HW169281  10.235   9.744   9.280
89169SOL    HW269282  10.210   9.594   9.277
89170SOL     OW69283  10.643   9.625  11.002
89170SOL    HW169284  10.665   9.554  11.063
89170SOL    HW269285  10.682   9.598  10.919
89171SOL     OW69286   3.168   6.939   4.436
89171SOL    HW169287   3.123   6.923   4.352
89171SOL    HW269288   3.198   6.853   4.465
89172SOL     OW69289   1.479  11.301   2.198
89172SOL    HW169290   1.448  11.389   2.220
89172SOL    HW269291   1.441  11.284   2.111
89173SOL     OW69292  13.365   7.343   1.299
89173SOL    HW169293  13.340   7.279   1.231
89173SOL    HW269294  13.454   7.368   1.276
89174SOL     OW69295  11.631   7.363   3.272
89174SOL    HW169296  11.620   7.334   3.182
89174SOL    HW269297  11.681   7.293   3.314
89175SOL     OW69298   1.916   1.127   9.723
89175SOL    HW169299   1.880   1.047   9.686
89175SOL    HW269300   1.936   1.182   9.647
89176SOL     OW69301  10.514   9.712   1.596
89176SOL    HW169302  10.511   9.802   1.629
89176SOL    HW269303  10.494   9.721   1.503
89177SOL     OW69304  10.915  12.568   0.109
89177SOL    HW169305  10.835  12.605   0.146
89177SOL    HW269306  10.962  12.643   0.073
89178SOL     OW69307   7.958  10.839  11.744
89178SOL    HW169308   7.867  10.853  11.771
89178SOL    HW269309   8.001  10.922  11.760
89179SOL     OW69310   1.136   3.673   8.329
89179SOL    HW169311   1.072   3.631   8.272
89179SOL    HW269312   1.194   3.721   8.270
89180SOL     OW69313   5.541   8.888   4.866
89180SOL    HW169314   5.482   8.861   4.936
89180SOL    HW269315   5.626   8.853   4.891
89181SOL     OW69316  12.983   2.326  13.932
89181SOL    HW169317  13.017   2.346  14.020
89181SOL    HW269318  12.888   2.321  13.944
89182SOL     OW69319  12.990  13.767   9.854
89182SOL    HW169320  12.962  13.735   9.939
89182SOL    HW269321  12.929  13.727   9.792
89183SOL     OW69322   3.669   6.345   6.838
89183SOL    HW169323   3.705   6.377   6.921
89183SOL    HW269324   3.701   6.407   6.773
89184SOL     OW69325  12.722  11.255   1.338
89184SOL    HW169326  12.776  11.217   1.407
89184SOL    HW269327  12.647  11.293   1.383
89185SOL     OW69328   3.022   5.959   0.856
89185SOL    HW169329   2.966   5.928   0.926
89185SOL    HW269330   2.963   6.007   0.797
89186SOL     OW69331   5.606  10.754  14.404
89186SOL    HW169332   5.633  10.824  14.344
89186SOL    HW269333   5.530  10.715  14.361
89187SOL     OW69334  12.187   0.481  10.564
89187SOL    HW169335  12.206   0.502  10.655
89187SOL    HW269336  12.271   0.492  10.519
89188SOL     OW69337   3.297  13.589  10.536
89188SOL    HW169338   3.276  13.676  10.499
89188SOL    HW269339   3.363  13.554  10.476
89189SOL     OW69340   6.007   0.042   4.989
89189SOL    HW169341   5.967   0.122   5.025
89189SOL    HW269342   6.025  14.869   5.066
89190SOL     OW69343   4.194   1.490   7.181
89190SOL    HW169344   4.277   1.536   7.174
89190SOL    HW269345   4.160   1.488   7.092
89191SOL     OW69346  10.497   3.250   2.088
89191SOL    HW169347  10.534   3.322   2.140
89191SOL    HW269348  10.540   3.258   2.003
89192SOL     OW69349   2.475   2.800  11.653
89192SOL    HW169350   2.407   2.811  11.719
89192SOL    HW269351   2.502   2.708  11.662
89193SOL     OW69352  13.157   4.201   0.273
89193SOL    HW169353  13.154   4.145   0.195
89193SOL    HW269354  13.164   4.139   0.346
89194SOL     OW69355   9.056   8.646   4.253
89194SOL    HW169356   8.986   8.605   4.303
89194SOL    HW269357   9.070   8.586   4.179
89195SOL     OW69358   6.872   6.636  12.663
89195SOL    HW169359   6.855   6.663  12.573
89195SOL    HW269360   6.896   6.543  12.656
89196SOL     OW69361   2.108  11.193  13.288
89196SOL    HW169362   2.065  11.151  13.213
89196SOL    HW269363   2.055  11.272  13.304
89197SOL     OW69364   0.779  12.567  13.751
89197SOL    HW169365   0.757  12.490  13.700
89197SOL    HW269366   0.782  12.639  13.688
89198SOL     OW69367   9.981  13.588   0.966
89198SOL    HW169368   9.955  13.551   1.050
89198SOL    HW269369   9.900  13.598   0.917
89199SOL     OW69370   6.801   5.485   5.169
89199SOL    HW169371   6.770   5.406   5.125
89199SOL    HW269372   6.726   5.514   5.222
89200SOL     OW69373   4.846   9.487   6.680
89200SOL    HW169374   4.762   9.530   6.692
89200SOL    HW269375   4.840   9.442   6.596
89201SOL     OW69376  12.266   0.865   7.358
89201SOL    HW169377  12.272   0.822   7.444
89201SOL    HW269378  12.297   0.800   7.296
89202SOL     OW69379   7.856   4.339  10.264
89202SOL    HW169380   7.771   4.335  10.307
89202SOL    HW269381   7.848   4.411  10.201
89203SOL     OW69382   9.473   1.710  10.858
89203SOL    HW169383   9.510   1.726  10.772
89203SOL    HW269384   9.457   1.797  10.894
89204SOL     OW69385   4.492   8.416   8.052
89204SOL    HW169386   4.491   8.397   7.958
89204SOL    HW269387   4.497   8.512   8.056
89205SOL     OW69388  13.571   0.123  13.867
89205SOL    HW169389  13.595   0.203  13.915
89205SOL    HW269390  13.596   0.141  13.776
89206SOL     OW69391   0.313   0.120  13.745
89206SOL    HW169392   0.336   0.079  13.662
89206SOL    HW269393   0.329   0.052  13.810
89207SOL     OW69394   6.089   9.044   4.145
89207SOL    HW169395   6.112   8.962   4.189
89207SOL    HW269396   6.171   9.076   4.107
89208SOL     OW69397   2.282  14.828   3.159
89208SOL    HW169398   2.280   0.038   3.188
89208SOL    HW269399   2.253  14.778   3.235
89209SOL     OW69400  10.172   8.781  10.864
89209SOL    HW169401  10.168   8.706  10.923
89209SOL    HW269402  10.196   8.855  10.920
89210SOL     OW69403   2.092  12.425   2.081
89210SOL    HW169404   2.027  12.357   2.062
89210SOL    HW269405   2.076  12.493   2.015
89211SOL     OW69406   2.845   7.082   7.605
89211SOL    HW169407   2.781   7.013   7.588
89211SOL    HW269408   2.794   7.164   7.602
89212SOL     OW69409   5.209   2.480   1.683
89212SOL    HW169410   5.129   2.439   1.715
89212SOL    HW269411   5.212   2.565   1.727
89213SOL     OW69412  11.932   6.728   5.670
89213SOL    HW169413  11.859   6.789   5.683
89213SOL    HW269414  11.921   6.697   5.580
89214SOL     OW69415   6.476   7.309   8.843
89214SOL    HW169416   6.551   7.366   8.822
89214SOL    HW269417   6.511   7.246   8.906
89215SOL     OW69418   8.680   2.277   2.997
89215SOL    HW169419   8.683   2.341   2.925
89215SOL    HW269420   8.645   2.197   2.956
89216SOL     OW69421   8.513   5.436   1.479
89216SOL    HW169422   8.453   5.439   1.405
89216SOL    HW269423   8.500   5.519   1.524
89217SOL     OW69424  10.833   0.488  10.062
89217SOL    HW169425  10.803   0.399  10.083
89217SOL    HW269426  10.771   0.545  10.107
89218SOL     OW69427   0.109   1.331   7.276
89218SOL    HW169428   0.146   1.367   7.196
89218SOL    HW269429   0.065   1.250   7.248
89219SOL     OW69430  10.338  10.455   5.580
89219SOL    HW169431  10.250  10.487   5.599
89219SOL    HW269432  10.329  10.402   5.502
89220SOL     OW69433   3.868   8.850   7.412
89220SOL    HW169434   3.841   8.817   7.326
89220SOL    HW269435   3.914   8.932   7.393
89221SOL     OW69436  10.949  14.079  12.417
89221SOL    HW169437  10.968  14.047  12.329
89221SOL    HW269438  10.970  14.005  12.474
89222SOL     OW69439  11.070   6.743   9.624
89222SOL    HW169440  11.120   6.808   9.673
89222SOL    HW269441  10.979   6.757   9.651
89223SOL     OW69442  11.334  12.647   1.217
89223SOL    HW169443  11.382  12.675   1.139
89223SOL    HW269444  11.259  12.706   1.222
89224SOL     OW69445  10.602   1.087   6.807
89224SOL    HW169446  10.687   1.044   6.801
89224SOL    HW269447  10.539   1.019   6.781
89225SOL     OW69448  10.480   5.291   6.441
89225SOL    HW169449  10.422   5.360   6.471
89225SOL    HW269450  10.549   5.287   6.507
89226SOL     OW69451   2.963   0.937  14.384
89226SOL    HW169452   2.952   1.018  14.433
89226SOL    HW269453   2.957   0.963  14.292
89227SOL     OW69454  10.230   7.910   1.017
89227SOL    HW169455  10.297   7.842   1.015
89227SOL    HW269456  10.151   7.867   0.984
89228SOL     OW69457   2.361   1.022  13.957
89228SOL    HW169458   2.324   1.041  13.871
89228SOL    HW269459   2.402   0.936  13.947
89229SOL     OW69460  11.034   0.431   7.495
89229SOL    HW169461  11.117   0.405   7.454
89229SOL    HW269462  11.061   0.475   7.575
89230SOL     OW69463   2.212  11.584  11.601
89230SOL    HW169464   2.177  11.629  11.524
89230SOL    HW269465   2.285  11.638  11.630
89231SOL     OW69466  12.632   8.750  12.257
89231SOL    HW169467  12.706   8.806  12.280
89231SOL    HW269468  12.622   8.691  12.332
89232SOL     OW69469   1.976   9.644   1.103
89232SOL    HW169470   1.934   9.570   1.148
89232SOL    HW269471   1.988   9.614   1.013
89233SOL     OW69472   3.287  12.505   6.657
89233SOL    HW169473   3.317  12.587   6.617
89233SOL    HW269474   3.234  12.464   6.589
89234SOL     OW69475  12.248  10.757   0.190
89234SOL    HW169476  12.156  10.734   0.204
89234SOL    HW269477  12.246  10.849   0.164
89235SOL     OW69478   3.249  12.866   6.895
89235SOL    HW169479   3.173  12.876   6.953
89235SOL    HW269480   3.282  12.778   6.913
89236SOL     OW69481  10.560   0.912  11.153
89236SOL    HW169482  10.475   0.898  11.195
89236SOL    HW269483  10.589   0.824  11.130
89237SOL     OW69484   1.624   9.287   4.632
89237SOL    HW169485   1.603   9.243   4.714
89237SOL    HW269486   1.692   9.349   4.654
89238SOL     OW69487  14.160   8.490  12.149
89238SOL    HW169488  14.228   8.502  12.216
89238SOL    HW269489  14.106   8.420  12.183
89239SOL     OW69490   7.930   0.231   0.244
89239SOL    HW169491   8.026   0.229   0.238
89239SOL    HW269492   7.911   0.222   0.337
89240SOL     OW69493   1.748   3.468   2.178
89240SOL    HW169494   1.714   3.509   2.099
89240SOL    HW269495   1.670   3.448   2.231
89241SOL     OW69496   3.892   1.107  11.192
89241SOL    HW169497   3.827   1.126  11.124
89241SOL    HW269498   3.958   1.176  11.181
89242SOL     OW69499   6.950   0.951  13.432
89242SOL    HW169500   7.023   0.917  13.382
89242SOL    HW269501   6.928   0.881  13.494
89243SOL     OW69502  13.325   7.676   0.005
89243SOL    HW169503  13.245   7.626  14.871
89243SOL    HW269504  13.383   7.650  14.816
89244SOL     OW69505  14.247   4.301   3.271
89244SOL    HW169506  14.265   4.363   3.200
89244SOL    HW269507  14.269   4.349   3.351
89245SOL     OW69508  13.733   9.391  12.037
89245SOL    HW169509  13.746   9.403  11.943
89245SOL    HW269510  13.785   9.461  12.077
89246SOL     OW69511   8.312   6.044  12.410
89246SOL    HW169512   8.370   5.986  12.362
89246SOL    HW269513   8.350   6.048  12.498
89247SOL     OW69514   6.556   2.271   2.829
89247SOL    HW169515   6.564   2.176   2.841
89247SOL    HW269516   6.468   2.292   2.860
89248SOL     OW69517   5.866  10.999  11.248
89248SOL    HW169518   5.866  11.094  11.234
89248SOL    HW269519   5.950  10.981  11.290
89249SOL     OW69520   7.948  13.841   7.162
89249SOL    HW169521   7.875  13.893   7.197
89249SOL    HW269522   7.994  13.901   7.102
89250SOL     OW69523  12.834   7.508   2.938
89250SOL    HW169524  12.757   7.465   2.900
89250SOL    HW269525  12.901   7.440   2.939
89251SOL     OW69526   6.726   9.589   3.776
89251SOL    HW169527   6.685   9.644   3.709
89251SOL    HW269528   6.653   9.557   3.829
89252SOL     OW69529   3.310   3.855  13.583
89252SOL    HW169530   3.366   3.927  13.610
89252SOL    HW269531   3.253   3.892  13.516
89253SOL     OW69532   5.582  13.414  14.734
89253SOL    HW169533   5.609  13.426  14.643
89253SOL    HW269534   5.500  13.463  14.741
89254SOL     OW69535  12.397  14.009   8.891
89254SOL    HW169536  12.490  13.988   8.896
89254SOL    HW269537  12.395  14.096   8.851
89255SOL     OW69538  13.720   4.069   9.041
89255SOL    HW169539  13.669   4.149   9.059
89255SOL    HW269540  13.715   4.019   9.122
89256SOL     OW69541   4.138   8.279   0.516
89256SOL    HW169542   4.157   8.188   0.538
89256SOL    HW269543   4.042   8.283   0.512
89257SOL     OW69544   2.690  11.419  12.659
89257SOL    HW169545   2.599  11.399  12.635
89257SOL    HW269546   2.743  11.361  12.605
89258SOL     OW69547  13.478  13.606   9.876
89258SOL    HW169548  13.517  13.518   9.877
89258SOL    HW269549  13.475  13.630   9.784
89259SOL     OW69550   0.029   5.589  11.774
89259SOL    HW169551   0.040   5.495  11.758
89259SOL    HW269552   0.096   5.630  11.720
89260SOL     OW69553   1.226   7.777  10.814
89260SOL    HW169554   1.289   7.736  10.754
89260SOL    HW269555   1.251   7.869  10.815
89261SOL     OW69556   8.913   3.864  13.036
89261SOL    HW169557   8.830   3.897  13.000
89261SOL    HW269558   8.908   3.884  13.129
89262SOL     OW69559   5.504  10.439   5.904
89262SOL    HW169560   5.424  10.419   5.855
89262SOL    HW269561   5.527  10.357   5.948
89263SOL     OW69562   4.645   7.857  11.976
89263SOL    HW169563   4.672   7.946  12.000
89263SOL    HW269564   4.685   7.801  12.042
89264SOL     OW69565  13.991  10.769   2.188
89264SOL    HW169566  14.056  10.835   2.211
89264SOL    HW269567  13.907  10.815   2.193
89265SOL     OW69568   7.782  11.270   3.724
89265SOL    HW169569   7.784  11.175   3.714
89265SOL    HW269570   7.733  11.301   3.649
89266SOL     OW69571  10.305   9.200  14.574
89266SOL    HW169572  10.223   9.206  14.526
89266SOL    HW269573  10.293   9.258  14.649
89267SOL     OW69574   2.107   3.341   1.095
89267SOL    HW169575   2.028   3.319   1.144
89267SOL    HW269576   2.135   3.258   1.057
89268SOL     OW69577  10.019   1.932  14.803
89268SOL    HW169578   9.944   1.939  14.743
89268SOL    HW269579  10.012   1.843  14.838
89269SOL     OW69580   5.360   9.430   4.415
89269SOL    HW169581   5.402   9.452   4.332
89269SOL    HW269582   5.410   9.356   4.448
89270SOL     OW69583  10.502  10.512  11.891
89270SOL    HW169584  10.544  10.575  11.950
89270SOL    HW269585  10.447  10.565  11.834
89271SOL     OW69586  10.745  12.434   8.909
89271SOL    HW169587  10.665  12.483   8.927
89271SOL    HW269588  10.747  12.366   8.976
89272SOL     OW69589   3.831   5.575   3.037
89272SOL    HW169590   3.793   5.508   3.094
89272SOL    HW269591   3.786   5.655   3.062
89273SOL     OW69592   7.774   2.716   0.480
89273SOL    HW169593   7.861   2.707   0.520
89273SOL    HW269594   7.767   2.810   0.460
89274SOL     OW69595  10.528   5.323   2.669
89274SOL    HW169596  10.513   5.238   2.711
89274SOL    HW269597  10.547   5.383   2.741
89275SOL     OW69598   5.127   4.759  13.302
89275SOL    HW169599   5.102   4.832  13.358
89275SOL    HW269600   5.054   4.698  13.307
89276SOL     OW69601  13.596   1.336  12.627
89276SOL    HW169602  13.591   1.362  12.534
89276SOL    HW269603  13.640   1.252  12.626
89277SOL     OW69604   7.368  10.116   6.724
89277SOL    HW169605   7.412  10.110   6.808
89277SOL    HW269606   7.284  10.072   6.737
89278SOL     OW69607  13.308  11.892   1.711
89278SOL    HW169608  13.342  11.970   1.666
89278SOL    HW269609  13.263  11.926   1.788
89279SOL     OW69610   6.429  13.709  10.383
89279SOL    HW169611   6.493  13.681  10.317
89279SOL    HW269612   6.357  13.646  10.375
89280SOL     OW69613  11.944   2.130   1.406
89280SOL    HW169614  11.986   2.065   1.350
89280SOL    HW269615  11.958   2.213   1.360
89281SOL     OW69616   6.997   5.353   4.894
89281SOL    HW169617   7.060   5.370   4.825
89281SOL    HW269618   6.968   5.439   4.923
89282SOL     OW69619  13.033  10.395   9.098
89282SOL    HW169620  13.061  10.390   9.189
89282SOL    HW269621  13.101  10.447   9.055
89283SOL     OW69622   8.568   1.713  14.863
89283SOL    HW169623   8.472   1.702  14.862
89283SOL    HW269624   8.584   1.784  14.800
89284SOL     OW69625  12.243  14.212   3.567
89284SOL    HW169626  12.231  14.118   3.552
89284SOL    HW269627  12.157  14.249   3.548
89285SOL     OW69628  11.203   8.764   3.919
89285SOL    HW169629  11.225   8.721   4.001
89285SOL    HW269630  11.240   8.852   3.927
89286SOL     OW69631  12.047   5.399   8.381
89286SOL    HW169632  12.111   5.470   8.384
89286SOL    HW269633  12.046   5.373   8.289
89287SOL     OW69634   5.713  12.059   3.697
89287SOL    HW169635   5.720  12.076   3.603
89287SOL    HW269636   5.687  11.968   3.704
89288SOL     OW69637   8.716   3.406   7.838
89288SOL    HW169638   8.627   3.437   7.822
89288SOL    HW269639   8.767   3.486   7.852
89289SOL     OW69640   2.537  13.894   2.834
89289SOL    HW169641   2.574  13.964   2.888
89289SOL    HW269642   2.613  13.852   2.794
89290SOL     OW69643   8.873  14.690   9.653
89290SOL    HW169644   8.885  14.776   9.693
89290SOL    HW269645   8.812  14.706   9.581
89291SOL     OW69646   4.974   5.461  13.263
89291SOL    HW169647   5.061   5.487  13.293
89291SOL    HW269648   4.957   5.516  13.187
89292SOL     OW69649   0.069   8.585   9.681
89292SOL    HW169650   0.081   8.499   9.723
89292SOL    HW269651  14.869   8.618   9.717
89293SOL     OW69652   0.732  12.602   6.832
89293SOL    HW169653   0.644  12.637   6.845
89293SOL    HW269654   0.740  12.589   6.738
89294SOL     OW69655   8.781   2.026   7.914
89294SOL    HW169656   8.817   1.947   7.874
89294SOL    HW269657   8.725   2.064   7.847
89295SOL     OW69658   2.160  12.467   2.368
89295SOL    HW169659   2.132  12.558   2.356
89295SOL    HW269660   2.146  12.426   2.283
89296SOL     OW69661  11.527   4.853  12.374
89296SOL    HW169662  11.577   4.790  12.321
89296SOL    HW269663  11.594   4.908  12.415
89297SOL     OW69664   6.369   1.116   3.959
89297SOL    HW169665   6.366   1.028   3.921
89297SOL    HW269666   6.302   1.165   3.912
89298SOL     OW69667  11.369  12.995  11.261
89298SOL    HW169668  11.306  13.065  11.241
89298SOL    HW269669  11.438  13.039  11.312
89299SOL     OW69670  14.367   3.009   7.976
89299SOL    HW169671  14.325   3.011   7.890
89299SOL    HW269672  14.404   2.921   7.982
89300SOL     OW69673   9.769   4.224  10.579
89300SOL    HW169674   9.811   4.152  10.627
89300SOL    HW269675   9.821   4.301  10.602
89301SOL     OW69676  12.731   3.484   1.262
89301SOL    HW169677  12.781   3.563   1.279
89301SOL    HW269678  12.660   3.487   1.327
89302SOL     OW69679   0.556   5.720   8.889
89302SOL    HW169680   0.470   5.678   8.885
89302SOL    HW269681   0.543   5.806   8.848
89303SOL     OW69682   7.430   1.917  14.563
89303SOL    HW169683   7.445   1.941  14.654
89303SOL    HW269684   7.341   1.882  14.561
89304SOL     OW69685   0.695   5.822   6.904
89304SOL    HW169686   0.714   5.801   6.995
89304SOL    HW269687   0.627   5.760   6.878
89305SOL     OW69688   6.063   8.455   0.305
89305SOL    HW169689   6.106   8.381   0.263
89305SOL    HW269690   6.068   8.526   0.241
89306SOL     OW69691   5.198   4.496  11.034
89306SOL    HW169692   5.169   4.428  10.974
89306SOL    HW269693   5.281   4.527  10.998
89307SOL     OW69694   6.010   4.762   9.392
89307SOL    HW169695   6.027   4.802   9.477
89307SOL    HW269696   6.094   4.767   9.346
89308SOL     OW69697  12.878  12.561  13.956
89308SOL    HW169698  12.929  12.635  13.988
89308SOL    HW269699  12.943  12.500  13.921
89309SOL     OW69700  11.046   7.527   1.544
89309SOL    HW169701  11.133   7.555   1.572
89309SOL    HW269702  11.016   7.468   1.613
89310SOL     OW69703  13.521   1.395   1.954
89310SOL    HW169704  13.590   1.329   1.943
89310SOL    HW269705  13.500   1.393   2.047
89311SOL     OW69706   3.404  12.626   9.436
89311SOL    HW169707   3.427  12.559   9.372
89311SOL    HW269708   3.333  12.675   9.394
89312SOL     OW69709   6.725   0.230   8.701
89312SOL    HW169710   6.774   0.183   8.768
89312SOL    HW269711   6.642   0.183   8.694
89313SOL     OW69712   0.116   2.895  12.576
89313SOL    HW169713   0.034   2.906  12.527
89313SOL    HW269714   0.181   2.945  12.526
89314SOL     OW69715  10.251  14.719   4.311
89314SOL    HW169716  10.244  14.814   4.303
89314SOL    HW269717  10.271  14.704   4.404
89315SOL     OW69718   7.673  12.147   9.673
89315SOL    HW169719   7.588  12.118   9.641
89315SOL    HW269720   7.727  12.067   9.673
89316SOL     OW69721  12.434   5.417   0.939
89316SOL    HW169722  12.453   5.334   0.984
89316SOL    HW269723  12.347   5.405   0.902
89317SOL     OW69724   0.642   7.534  10.804
89317SOL    HW169725   0.697   7.607  10.774
89317SOL    HW269726   0.565   7.577  10.843
89318SOL     OW69727   3.493   3.693   3.766
89318SOL    HW169728   3.478   3.602   3.792
89318SOL    HW269729   3.416   3.716   3.713
89319SOL     OW69730   0.063   6.085  12.294
89319SOL    HW169731   0.157   6.095  12.278
89319SOL    HW269732   0.023   6.103  12.209
89320SOL     OW69733   5.611   7.373   9.531
89320SOL    HW169734   5.520   7.348   9.546
89320SOL    HW269735   5.634   7.429   9.605
89321SOL     OW69736   0.745  10.366  12.256
89321SOL    HW169737   0.719  10.372  12.164
89321SOL    HW269738   0.786  10.280  12.263
89322SOL     OW69739   1.919   0.374  12.005
89322SOL    HW169740   1.864   0.342  11.934
89322SOL    HW269741   1.965   0.296  12.037
89323SOL     OW69742   4.287   2.092   9.096
89323SOL    HW169743   4.373   2.065   9.130
89323SOL    HW269744   4.227   2.024   9.126
89324SOL     OW69745   4.529  13.385   7.255
89324SOL    HW169746   4.484  13.384   7.339
89324SOL    HW269747   4.592  13.313   7.260
89325SOL     OW69748  11.032   4.986  11.664
89325SOL    HW169749  11.100   5.034  11.710
89325SOL    HW269750  11.040   5.014  11.573
89326SOL     OW69751   1.153  11.020   8.962
89326SOL    HW169752   1.128  11.043   9.051
89326SOL    HW269753   1.127  10.928   8.953
89327SOL     OW69754   9.551   3.845   2.284
89327SOL    HW169755   9.635   3.878   2.316
89327SOL    HW269756   9.494   3.922   2.282
89328SOL     OW69757   8.223  12.392   1.183
89328SOL    HW169758   8.198  12.444   1.260
89328SOL    HW269759   8.258  12.455   1.121
89329SOL     OW69760   7.793  10.230  11.269
89329SOL    HW169761   7.818  10.154  11.322
89329SOL    HW269762   7.762  10.192  11.186
89330SOL     OW69763   0.599  12.227   3.527
89330SOL    HW169764   0.653  12.299   3.559
89330SOL    HW269765   0.536  12.269   3.468
89331SOL     OW69766   1.519   7.315  10.470
89331SOL    HW169767   1.450   7.322  10.535
89331SOL    HW269768   1.534   7.405  10.442
89332SOL     OW69769   5.782  12.058   5.796
89332SOL    HW169770   5.756  12.042   5.705
89332SOL    HW269771   5.838  12.136   5.791
89333SOL     OW69772  11.638   2.761  14.429
89333SOL    HW169773  11.729   2.737  14.417
89333SOL    HW269774  11.624   2.834  14.370
89334SOL     OW69775   1.503   4.376  12.185
89334SOL    HW169776   1.546   4.405  12.105
89334SOL    HW269777   1.526   4.284  12.193
89335SOL     OW69778  12.947   2.356   1.013
89335SOL    HW169779  13.033   2.385   0.983
89335SOL    HW269780  12.896   2.343   0.933
89336SOL     OW69781  13.815  10.608   9.982
89336SOL    HW169782  13.745  10.664   9.948
89336SOL    HW269783  13.820  10.536   9.919
89337SOL     OW69784   9.391   2.035   6.214
89337SOL    HW169785   9.413   2.126   6.197
89337SOL    HW269786   9.393   2.027   6.309
89338SOL     OW69787   1.241   6.085   9.716
89338SOL    HW169788   1.149   6.079   9.690
89338SOL    HW269789   1.239   6.089   9.811
89339SOL     OW69790  12.571   8.986   6.394
89339SOL    HW169791  12.533   8.898   6.403
89339SOL    HW269792  12.630   8.980   6.319
89340SOL     OW69793   1.627   1.145   9.632
89340SOL    HW169794   1.682   1.185   9.565
89340SOL    HW269795   1.673   1.065   9.656
89341SOL     OW69796   8.517   6.500   7.259
89341SOL    HW169797   8.565   6.577   7.291
89341SOL    HW269798   8.448   6.486   7.324
89342SOL     OW69799   8.187   6.725   9.930
89342SOL    HW169800   8.231   6.643   9.952
89342SOL    HW269801   8.109   6.698   9.882
89343SOL     OW69802   6.333   7.441   2.225
89343SOL    HW169803   6.335   7.480   2.313
89343SOL    HW269804   6.358   7.512   2.167
89344SOL     OW69805   3.923   6.515   0.792
89344SOL    HW169806   3.933   6.420   0.802
89344SOL    HW269807   3.884   6.525   0.705
89345SOL     OW69808   5.850   3.445   9.866
89345SOL    HW169809   5.847   3.349   9.861
89345SOL    HW269810   5.936   3.465   9.903
89346SOL     OW69811   1.532  13.056   4.462
89346SOL    HW169812   1.487  13.014   4.535
89346SOL    HW269813   1.531  13.150   4.483
89347SOL     OW69814  14.776  11.827   0.536
89347SOL    HW169815  14.833  11.757   0.570
89347SOL    HW269816  14.828  11.907   0.549
89348SOL     OW69817   1.716   4.858   8.712
89348SOL    HW169818   1.725   4.929   8.776
89348SOL    HW269819   1.655   4.797   8.753
89349SOL     OW69820   5.717   4.736   9.361
89349SOL    HW169821   5.810   4.758   9.357
89349SOL    HW269822   5.705   4.666   9.297
89350SOL     OW69823  11.017  13.665   8.281
89350SOL    HW169824  11.029  13.757   8.305
89350SOL    HW269825  11.061  13.616   8.350
89351SOL     OW69826  12.315   1.682  10.591
89351SOL    HW169827  12.282   1.606  10.640
89351SOL    HW269828  12.396   1.650  10.550
89352SOL     OW69829   7.030   9.641   2.704
89352SOL    HW169830   7.088   9.684   2.766
89352SOL    HW269831   6.942   9.657   2.739
89353SOL     OW69832   5.526  13.730  10.068
89353SOL    HW169833   5.556  13.766  10.151
89353SOL    HW269834   5.605  13.723  10.015
89354SOL     OW69835   9.921   7.532   9.762
89354SOL    HW169836   9.885   7.534   9.851
89354SOL    HW269837   9.914   7.440   9.736
89355SOL     OW69838   6.016   7.419   7.279
89355SOL    HW169839   5.984   7.440   7.367
89355SOL    HW269840   5.938   7.392   7.231
89356SOL     OW69841   6.760   3.943  14.546
89356SOL    HW169842   6.827   3.950  14.477
89356SOL    HW269843   6.810   3.925  14.626
89357SOL     OW69844  10.584   0.470   8.878
89357SOL    HW169845  10.587   0.555   8.833
89357SOL    HW269846  10.492   0.459   8.901
89358SOL     OW69847   1.071   3.080   8.433
89358SOL    HW169848   0.978   3.091   8.452
89358SOL    HW269849   1.099   3.165   8.399
89359SOL     OW69850  14.758   9.044   3.218
89359SOL    HW169851  14.719   9.084   3.140
89359SOL    HW269852  14.852   9.061   3.209
89360SOL     OW69853   3.062   0.521   5.865
89360SOL    HW169854   3.019   0.440   5.838
89360SOL    HW269855   3.156   0.501   5.861
89361SOL     OW69856   7.800  13.116   1.936
89361SOL    HW169857   7.750  13.173   1.994
89361SOL    HW269858   7.748  13.036   1.930
89362SOL     OW69859   1.920   2.711  10.864
89362SOL    HW169860   2.002   2.717  10.913
89362SOL    HW269861   1.853   2.694  10.930
89363SOL     OW69862   8.154   2.423   8.973
89363SOL    HW169863   8.187   2.366   9.042
89363SOL    HW269864   8.233   2.460   8.933
89364SOL     OW69865   5.231   6.646   7.309
89364SOL    HW169866   5.135   6.643   7.315
89364SOL    HW269867   5.249   6.649   7.215
89365SOL     OW69868   2.866   0.717   8.561
89365SOL    HW169869   2.931   0.648   8.545
89365SOL    HW269870   2.915   0.786   8.605
89366SOL     OW69871   6.058   2.022   6.247
89366SOL    HW169872   6.126   2.002   6.182
89366SOL    HW269873   6.019   1.937   6.268
89367SOL     OW69874   1.419  14.676   5.729
89367SOL    HW169875   1.457  14.602   5.682
89367SOL    HW269876   1.411  14.646   5.819
89368SOL     OW69877   4.494  10.436   2.155
89368SOL    HW169878   4.419  10.381   2.130
89368SOL    HW269879   4.534  10.461   2.072
89369SOL     OW69880   9.653   1.293   8.659
89369SOL    HW169881   9.711   1.314   8.732
89369SOL    HW269882   9.565   1.296   8.697
89370SOL     OW69883  14.827  11.076  12.058
89370SOL    HW169884  14.743  11.059  12.016
89370SOL    HW269885  14.871  11.138  12.000
89371SOL     OW69886  12.840   0.077   6.413
89371SOL    HW169887  12.755   0.064   6.372
89371SOL    HW269888  12.902   0.071   6.340
89372SOL     OW69889  13.978   2.221  11.049
89372SOL    HW169890  14.032   2.225  10.970
89372SOL    HW269891  13.915   2.151  11.032
89373SOL     OW69892   4.703   8.401  10.225
89373SOL    HW169893   4.744   8.464  10.284
89373SOL    HW269894   4.628   8.368  10.275
89374SOL     OW69895  13.941  11.236   9.634
89374SOL    HW169896  13.895  11.259   9.714
89374SOL    HW269897  13.944  11.141   9.634
89375SOL     OW69898  13.168  12.514   5.437
89375SOL    HW169899  13.083  12.557   5.442
89375SOL    HW269900  13.150  12.433   5.388
89376SOL     OW69901   3.758  13.882   0.760
89376SOL    HW169902   3.727  13.915   0.676
89376SOL    HW269903   3.828  13.943   0.785
89377SOL     OW69904   7.648   7.197  13.703
89377SOL    HW169905   7.605   7.214  13.787
89377SOL    HW269906   7.738   7.227  13.716
89378SOL     OW69907  12.884   9.474   0.292
89378SOL    HW169908  12.822   9.515   0.230
89378SOL    HW269909  12.828   9.436   0.360
89379SOL     OW69910  12.532   8.158   9.444
89379SOL    HW169911  12.454   8.152   9.499
89379SOL    HW269912  12.507   8.117   9.361
89380SOL     OW69913  12.806  11.318  13.496
89380SOL    HW169914  12.768  11.234  13.469
89380SOL    HW269915  12.733  11.365  13.537
89381SOL     OW69916   8.101   8.080   1.533
89381SOL    HW169917   8.073   8.171   1.532
89381SOL    HW269918   8.063   8.042   1.453
89382SOL     OW69919   3.981  13.289   7.743
89382SOL    HW169920   3.913  13.327   7.799
89382SOL    HW269921   4.062  13.306   7.790
89383SOL     OW69922  10.768  11.749   2.909
89383SOL    HW169923  10.727  11.675   2.955
89383SOL    HW269924  10.848  11.714   2.871
89384SOL     OW69925  11.633   4.811   0.961
89384SOL    HW169926  11.550   4.777   0.927
89384SOL    HW269927  11.680   4.843   0.884
89385SOL     OW69928  11.432  11.716   0.692
89385SOL    HW169929  11.419  11.635   0.742
89385SOL    HW269930  11.526  11.732   0.694
89386SOL     OW69931   3.126  12.185  13.266
89386SOL    HW169932   3.089  12.174  13.178
89386SOL    HW269933   3.170  12.270  13.262
89387SOL     OW69934  10.594   9.957   2.118
89387SOL    HW169935  10.627   9.978   2.031
89387SOL    HW269936  10.672   9.955   2.174
89388SOL     OW69937   0.654   7.754   0.912
89388SOL    HW169938   0.570   7.734   0.953
89388SOL    HW269939   0.675   7.843   0.941
89389SOL     OW69940  14.433   5.581   9.585
89389SOL    HW169941  14.518   5.599   9.544
89389SOL    HW269942  14.408   5.664   9.626
89390SOL     OW69943   9.423   5.592   0.201
89390SOL    HW169944   9.511   5.630   0.191
89390SOL    HW269945   9.420   5.563   0.292
89391SOL     OW69946   7.830  10.998   3.725
89391SOL    HW169947   7.872  10.925   3.679
89391SOL    HW269948   7.742  10.966   3.745
89392SOL     OW69949  12.110  12.488   3.291
89392SOL    HW169950  12.045  12.495   3.221
89392SOL    HW269951  12.172  12.558   3.273
89393SOL     OW69952  10.835   3.198  13.710
89393SOL    HW169953  10.778   3.222  13.783
89393SOL    HW269954  10.804   3.250  13.636
89394SOL     OW69955   1.787   5.377   3.160
89394SOL    HW169956   1.783   5.455   3.104
89394SOL    HW269957   1.732   5.313   3.117
89395SOL     OW69958   1.365  10.360   5.605
89395SOL    HW169959   1.382  10.272   5.638
89395SOL    HW269960   1.434  10.375   5.540
89396SOL     OW69961   6.961  14.566   9.197
89396SOL    HW169962   6.981  14.627   9.126
89396SOL    HW269963   6.961  14.619   9.276
89397SOL     OW69964  13.475   3.569  13.318
89397SOL    HW169965  13.504   3.653  13.282
89397SOL    HW269966  13.474   3.583  13.413
89398SOL     OW69967  11.442   3.129  14.441
89398SOL    HW169968  11.410   3.216  14.419
89398SOL    HW269969  11.537   3.134  14.431
89399SOL     OW69970  13.303   0.930   6.876
89399SOL    HW169971  13.243   0.995   6.841
89399SOL    HW269972  13.390   0.965   6.858
89400SOL     OW69973   1.353   1.118   7.304
89400SOL    HW169974   1.427   1.063   7.278
89400SOL    HW269975   1.367   1.201   7.258
89401SOL     OW69976   5.590   0.492  13.133
89401SOL    HW169977   5.556   0.409  13.167
89401SOL    HW269978   5.626   0.470  13.047
89402SOL     OW69979   4.398   6.583   3.484
89402SOL    HW169980   4.334   6.513   3.498
89402SOL    HW269981   4.433   6.600   3.571
89403SOL     OW69982   1.458   5.820   7.266
89403SOL    HW169983   1.522   5.877   7.225
89403SOL    HW269984   1.445   5.749   7.203
89404SOL     OW69985   5.303   1.961   5.905
89404SOL    HW169986   5.330   1.881   5.950
89404SOL    HW269987   5.208   1.951   5.895
89405SOL     OW69988   9.589   0.542   4.922
89405SOL    HW169989   9.497   0.564   4.935
89405SOL    HW269990   9.588   0.473   4.855
89406SOL     OW69991   2.463  11.867   2.310
89406SOL    HW169992   2.467  11.822   2.225
89406SOL    HW269993   2.370  11.873   2.330
89407SOL     OW69994   0.143  13.384  14.510
89407SOL    HW169995   0.099  13.451  14.564
89407SOL    HW269996   0.113  13.301  14.546
89408SOL     OW69997  11.185   8.957   2.317
89408SOL    HW169998  11.139   8.928   2.238
89408SOL    HW269999  11.240   8.883   2.342
89409SOL     OW70000   4.167   9.322   7.273
89409SOL    HW170001   4.101   9.265   7.312
89409SOL    HW270002   4.251   9.286   7.302
89410SOL     OW70003   0.216  12.393   4.432
89410SOL    HW170004   0.145  12.330   4.446
89410SOL    HW270005   0.293  12.338   4.416
89411SOL     OW70006  10.591  13.552   3.135
89411SOL    HW170007  10.517  13.547   3.195
89411SOL    HW270008  10.584  13.638   3.095
89412SOL     OW70009  11.026   9.277   1.338
89412SOL    HW170010  10.993   9.201   1.386
89412SOL    HW270011  11.090   9.316   1.397
89413SOL     OW70012   5.164   6.520   8.484
89413SOL    HW170013   5.092   6.569   8.522
89413SOL    HW270014   5.183   6.565   8.402
89414SOL     OW70015   8.112   2.571   6.000
89414SOL    HW170016   8.110   2.611   6.087
89414SOL    HW270017   8.024   2.535   5.989
89415SOL     OW70018   0.114  11.603  10.649
89415SOL    HW170019   0.161  11.520  10.647
89415SOL    HW270020   0.171  11.665  10.604
89416SOL     OW70021   6.501   3.002  10.424
89416SOL    HW170022   6.509   2.984  10.330
89416SOL    HW270023   6.577   3.056  10.444
89417SOL     OW70024   1.033   9.573  14.476
89417SOL    HW170025   1.052   9.558  14.569
89417SOL    HW270026   1.035   9.486  14.436
89418SOL     OW70027   9.265  11.085   0.192
89418SOL    HW170028   9.294  10.995   0.176
89418SOL    HW270029   9.212  11.080   0.271
89419SOL     OW70030  14.023  13.941   2.617
89419SOL    HW170031  14.030  14.009   2.550
89419SOL    HW270032  13.948  13.888   2.591
89420SOL     OW70033   3.832   4.039  12.617
89420SOL    HW170034   3.897   4.049  12.548
89420SOL    HW270035   3.883   4.036  12.698
89421SOL     OW70036  12.312  13.055   4.089
89421SOL    HW170037  12.285  13.134   4.041
89421SOL    HW270038  12.407  13.053   4.082
89422SOL     OW70039   6.822   3.428  10.147
89422SOL    HW170040   6.853   3.492  10.083
89422SOL    HW270041   6.870   3.348  10.126
89423SOL     OW70042  10.448   5.135   4.998
89423SOL    HW170043  10.527   5.155   5.048
89423SOL    HW270044  10.456   5.042   4.976
89424SOL     OW70045  14.504  10.526   4.149
89424SOL    HW170046  14.523  10.434   4.165
89424SOL    HW270047  14.471  10.529   4.059
89425SOL     OW70048   5.383  14.459  14.478
89425SOL    HW170049   5.388  14.551  14.506
89425SOL    HW270050   5.302  14.427  14.517
89426SOL     OW70051  13.549  12.130  13.164
89426SOL    HW170052  13.597  12.198  13.116
89426SOL    HW270053  13.553  12.053  13.107
89427SOL     OW70054   6.710   5.161  14.838
89427SOL    HW170055   6.698   5.190   0.047
89427SOL    HW270056   6.666   5.228  14.785
89428SOL     OW70057  10.045   6.033   2.746
89428SOL    HW170058   9.996   6.109   2.715
89428SOL    HW270059  10.119   6.025   2.686
89429SOL     OW70060  12.691   2.491   6.122
89429SOL    HW170061  12.779   2.477   6.157
89429SOL    HW270062  12.698   2.466   6.029
89430SOL     OW70063   0.556   8.062   0.943
89430SOL    HW170064   0.506   8.027   0.869
89430SOL    HW270065   0.507   8.036   1.021
89431SOL     OW70066   7.461   1.635   9.238
89431SOL    HW170067   7.556   1.622   9.229
89431SOL    HW270068   7.436   1.681   9.157
89432SOL     OW70069   3.856   8.900  10.745
89432SOL    HW170070   3.818   8.986  10.762
89432SOL    HW270071   3.949   8.917  10.730
89433SOL     OW70072   7.694  12.768  11.432
89433SOL    HW170073   7.783  12.799  11.417
89433SOL    HW270074   7.670  12.804  11.517
89434SOL     OW70075   2.141   8.560   7.121
89434SOL    HW170076   2.202   8.634   7.119
89434SOL    HW270077   2.066   8.593   7.170
89435SOL     OW70078   1.983   1.578   7.668
89435SOL    HW170079   1.973   1.494   7.713
89435SOL    HW270080   1.895   1.616   7.667
89436SOL     OW70081   0.332   7.045  13.520
89436SOL    HW170082   0.298   7.133  13.533
89436SOL    HW270083   0.323   7.029  13.426
89437SOL     OW70084   1.486  11.736  12.551
89437SOL    HW170085   1.393  11.735  12.529
89437SOL    HW270086   1.526  11.792  12.484
89438SOL     OW70087  14.852  14.179   7.943
89438SOL    HW170088   0.044  14.174   7.882
89438SOL    HW270089  14.873  14.114   8.010
89439SOL     OW70090   0.979  13.393   6.772
89439SOL    HW170091   1.006  13.365   6.860
89439SOL    HW270092   0.925  13.471   6.788
89440SOL     OW70093  10.929   0.645  11.453
89440SOL    HW170094  10.869   0.716  11.427
89440SOL    HW270095  10.893   0.567  11.410
89441SOL     OW70096   0.661  12.339  10.176
89441SOL    HW170097   0.630  12.278  10.243
89441SOL    HW270098   0.606  12.416  10.187
89442SOL     OW70099   9.903  11.657   3.404
89442SOL    HW170100   9.891  11.657   3.309
89442SOL    HW270101   9.829  11.709   3.437
89443SOL     OW70102   0.465  14.045   4.719
89443SOL    HW170103   0.424  13.983   4.779
89443SOL    HW270104   0.490  14.119   4.774
89444SOL     OW70105   0.439   1.077  11.768
89444SOL    HW170106   0.445   1.131  11.690
89444SOL    HW270107   0.512   1.016  11.761
89445SOL     OW70108   8.181   3.062   0.158
89445SOL    HW170109   8.195   3.032   0.068
89445SOL    HW270110   8.138   3.147   0.148
89446SOL     OW70111  14.171   2.375   5.557
89446SOL    HW170112  14.084   2.340   5.540
89446SOL    HW270113  14.160   2.470   5.556
89447SOL     OW70114   5.838   9.164   6.490
89447SOL    HW170115   5.883   9.173   6.574
89447SOL    HW270116   5.802   9.252   6.473
89448SOL     OW70117  13.774  12.008  10.940
89448SOL    HW170118  13.798  12.014  11.032
89448SOL    HW270119  13.788  12.096  10.905
89449SOL     OW70120  13.036   1.692   8.112
89449SOL    HW170121  13.088   1.711   8.190
89449SOL    HW270122  13.092   1.718   8.039
89450SOL     OW70123  13.803   7.193   7.909
89450SOL    HW170124  13.835   7.255   7.843
89450SOL    HW270125  13.852   7.112   7.891
89451SOL     OW70126  10.262   4.814   8.850
89451SOL    HW170127  10.325   4.826   8.921
89451SOL    HW270128  10.283   4.883   8.787
89452SOL     OW70129   7.507   8.537  14.499
89452SOL    HW170130   7.466   8.545  14.413
89452SOL    HW270131   7.554   8.454  14.496
89453SOL     OW70132   1.666   4.664  11.607
89453SOL    HW170133   1.622   4.710  11.535
89453SOL    HW270134   1.595   4.632  11.663
89454SOL     OW70135   3.430   3.919   7.579
89454SOL    HW170136   3.346   3.874   7.572
89454SOL    HW270137   3.446   3.954   7.491
89455SOL     OW70138  12.275   9.671   6.896
89455SOL    HW170139  12.330   9.685   6.819
89455SOL    HW270140  12.225   9.593   6.877
89456SOL     OW70141   6.793  12.874   2.158
89456SOL    HW170142   6.767  12.816   2.086
89456SOL    HW270143   6.725  12.941   2.161
89457SOL     OW70144   3.370   4.902   7.331
89457SOL    HW170145   3.415   4.936   7.408
89457SOL    HW270146   3.437   4.851   7.285
89458SOL     OW70147   9.531   1.929   8.115
89458SOL    HW170148   9.531   1.917   8.210
89458SOL    HW270149   9.585   1.857   8.082
89459SOL     OW70150  12.758   1.187   5.234
89459SOL    HW170151  12.818   1.130   5.282
89459SOL    HW270152  12.716   1.130   5.170
89460SOL     OW70153   0.312   7.642   5.550
89460SOL    HW170154   0.260   7.666   5.627
89460SOL    HW270155   0.302   7.547   5.544
89461SOL     OW70156   9.809  11.908   1.052
89461SOL    HW170157   9.825  11.992   1.008
89461SOL    HW270158   9.894  11.863   1.049
89462SOL     OW70159   4.493  13.968  12.960
89462SOL    HW170160   4.503  13.974  12.865
89462SOL    HW270161   4.402  13.939  12.972
89463SOL     OW70162   7.057  12.399   5.455
89463SOL    HW170163   7.082  12.373   5.366
89463SOL    HW270164   7.024  12.318   5.494
89464SOL     OW70165   7.144  13.137   7.883
89464SOL    HW170166   7.070  13.097   7.928
89464SOL    HW270167   7.182  13.197   7.947
89465SOL     OW70168  14.591   8.943  10.148
89465SOL    HW170169  14.635   8.985  10.223
89465SOL    HW270170  14.562   8.858  10.181
89466SOL     OW70171  10.984   6.353   5.066
89466SOL    HW170172  11.078   6.335   5.061
89466SOL    HW270173  10.977   6.438   5.110
89467SOL     OW70174  13.718   6.470   7.302
89467SOL    HW170175  13.707   6.564   7.320
89467SOL    HW270176  13.629   6.434   7.309
89468SOL     OW70177  10.491   2.908   4.093
89468SOL    HW170178  10.397   2.921   4.102
89468SOL    HW270179  10.529   2.950   4.171
89469SOL     OW70180   2.544   0.986   0.016
89469SOL    HW170181   2.628   0.968  14.856
89469SOL    HW270182   2.516   0.902   0.052
89470SOL     OW70183   7.813   4.233   0.541
89470SOL    HW170184   7.892   4.287   0.540
89470SOL    HW270185   7.758   4.268   0.472
89471SOL     OW70186   5.014  10.520  11.527
89471SOL    HW170187   4.922  10.509  11.551
89471SOL    HW270188   5.024  10.615  11.514
89472SOL     OW70189   5.861   9.486   7.380
89472SOL    HW170190   5.895   9.550   7.442
89472SOL    HW270191   5.776   9.520   7.354
89473SOL     OW70192   4.567  13.925   7.797
89473SOL    HW170193   4.602  13.873   7.869
89473SOL    HW270194   4.498  13.978   7.836
89474SOL     OW70195   3.091   7.752  14.241
89474SOL    HW170196   3.178   7.779  14.211
89474SOL    HW270197   3.104   7.720  14.330
89475SOL     OW70198   9.073  13.580  10.782
89475SOL    HW170199   8.990  13.563  10.738
89475SOL    HW270200   9.052  13.575  10.876
89476SOL     OW70201  13.980   2.485   3.230
89476SOL    HW170202  14.057   2.429   3.246
89476SOL    HW270203  13.999   2.527   3.146
89477SOL     OW70204   2.093   8.418  12.613
89477SOL    HW170205   2.002   8.442  12.629
89477SOL    HW270206   2.100   8.328  12.644
89478SOL     OW70207  12.548   2.562  10.455
89478SOL    HW170208  12.478   2.570  10.390
89478SOL    HW270209  12.622   2.527  10.406
89479SOL     OW70210   4.939   9.117  12.472
89479SOL    HW170211   4.874   9.053  12.503
89479SOL    HW270212   4.908   9.143  12.386
89480SOL     OW70213   4.191   2.841   6.629
89480SOL    HW170214   4.271   2.792   6.644
89480SOL    HW270215   4.138   2.826   6.707
89481SOL     OW70216   8.917   0.224   8.148
89481SOL    HW170217   8.948   0.235   8.238
89481SOL    HW270218   8.884   0.311   8.123
89482SOL     OW70219   9.401  13.040  10.858
89482SOL    HW170220   9.347  13.113  10.888
89482SOL    HW270221   9.460  13.078  10.794
89483SOL     OW70222   8.308   8.944  14.487
89483SOL    HW170223   8.341   8.972  14.572
89483SOL    HW270224   8.241   8.879  14.507
89484SOL     OW70225  12.061   2.535   7.404
89484SOL    HW170226  12.058   2.618   7.356
89484SOL    HW270227  12.018   2.472   7.345
89485SOL     OW70228   4.359   8.391  12.127
89485SOL    HW170229   4.280   8.338  12.119
89485SOL    HW270230   4.423   8.334  12.170
89486SOL     OW70231  11.219   7.587   9.294
89486SOL    HW170232  11.202   7.504   9.340
89486SOL    HW270233  11.132   7.620   9.272
89487SOL     OW70234  12.999   3.447  13.829
89487SOL    HW170235  12.976   3.469  13.919
89487SOL    HW270236  13.011   3.352  13.830
89488SOL     OW70237   9.561  10.965   7.782
89488SOL    HW170238   9.525  11.052   7.801
89488SOL    HW270239   9.573  10.965   7.687
89489SOL     OW70240  12.856   4.803  12.344
89489SOL    HW170241  12.912   4.734  12.308
89489SOL    HW270242  12.773   4.793  12.298
89490SOL     OW70243  14.797   1.103  10.302
89490SOL    HW170244  14.870   1.047  10.274
89490SOL    HW270245  14.817   1.189  10.265
89491SOL     OW70246   2.349  12.075   6.681
89491SOL    HW170247   2.348  11.986   6.715
89491SOL    HW270248   2.290  12.073   6.605
89492SOL     OW70249   4.442   8.690   2.641
89492SOL    HW170250   4.434   8.784   2.629
89492SOL    HW270251   4.422   8.676   2.734
89493SOL     OW70252   8.809   1.613   9.824
89493SOL    HW170253   8.879   1.660   9.868
89493SOL    HW270254   8.729   1.652   9.858
89494SOL     OW70255  13.043   3.974  11.452
89494SOL    HW170256  13.112   4.040  11.452
89494SOL    HW270257  13.090   3.890  11.455
89495SOL     OW70258  14.017   4.026   3.162
89495SOL    HW170259  13.922   4.012   3.161
89495SOL    HW270260  14.033   4.074   3.243
89496SOL     OW70261   3.505  11.217   7.209
89496SOL    HW170262   3.488  11.275   7.135
89496SOL    HW270263   3.571  11.156   7.176
89497SOL     OW70264   3.080  12.760  10.377
89497SOL    HW170265   3.058  12.830  10.439
89497SOL    HW270266   3.076  12.680  10.428
89498SOL     OW70267  12.051   4.296   4.098
89498SOL    HW170268  12.039   4.372   4.155
89498SOL    HW270269  12.067   4.224   4.158
89499SOL     OW70270   9.886   0.279   6.389
89499SOL    HW170271   9.825   0.205   6.395
89499SOL    HW270272   9.926   0.284   6.476
89500SOL     OW70273   7.022   8.872   3.517
89500SOL    HW170274   6.936   8.869   3.475
89500SOL    HW270275   7.049   8.963   3.508
89501SOL     OW70276  10.375   5.069  14.543
89501SOL    HW170277  10.322   4.993  14.518
89501SOL    HW270278  10.415   5.098  14.461
89502SOL     OW70279   0.943   3.507   3.907
89502SOL    HW170280   0.941   3.419   3.945
89502SOL    HW270281   0.910   3.497   3.818
89503SOL     OW70282   6.558  12.410   8.771
89503SOL    HW170283   6.617  12.336   8.785
89503SOL    HW270284   6.607  12.486   8.804
89504SOL     OW70285  13.458   5.193   8.312
89504SOL    HW170286  13.501   5.109   8.323
89504SOL    HW270287  13.387   5.176   8.250
89505SOL     OW70288  10.297   1.145   2.249
89505SOL    HW170289  10.236   1.112   2.183
89505SOL    HW270290  10.289   1.240   2.243
89506SOL     OW70291   1.188  11.043   7.798
89506SOL    HW170292   1.273  11.083   7.813
89506SOL    HW270293   1.136  11.068   7.874
89507SOL     OW70294   0.611  10.741  12.801
89507SOL    HW170295   0.569  10.739  12.887
89507SOL    HW270296   0.539  10.729  12.738
89508SOL     OW70297   6.882  11.603   8.259
89508SOL    HW170298   6.789  11.618   8.243
89508SOL    HW270299   6.927  11.666   8.203
89509SOL     OW70300  10.058  14.480  13.505
89509SOL    HW170301  10.022  14.558  13.462
89509SOL    HW270302  10.044  14.496  13.598
89510SOL     OW70303   9.535   4.117  10.537
89510SOL    HW170304   9.517   4.119  10.443
89510SOL    HW270305   9.611   4.173  10.549
89511SOL     OW70306   5.278   4.906  14.281
89511SOL    HW170307   5.262   4.845  14.354
89511SOL    HW270308   5.224   4.982  14.302
89512SOL     OW70309   2.510  11.921   4.754
89512SOL    HW170310   2.426  11.943   4.792
89512SOL    HW270311   2.520  11.981   4.680
89513SOL     OW70312  10.117   2.575   1.225
89513SOL    HW170313  10.081   2.623   1.151
89513SOL    HW270314  10.208   2.557   1.201
89514SOL     OW70315   5.291  13.177   6.308
89514SOL    HW170316   5.302  13.248   6.245
89514SOL    HW270317   5.287  13.221   6.393
89515SOL     OW70318  10.223   3.827  12.511
89515SOL    HW170319  10.265   3.743  12.490
89515SOL    HW270320  10.151   3.833  12.448
89516SOL     OW70321   2.743   9.332   0.841
89516SOL    HW170322   2.723   9.246   0.805
89516SOL    HW270323   2.657   9.369   0.864
89517SOL     OW70324   2.718  11.431   0.449
89517SOL    HW170325   2.693  11.342   0.476
89517SOL    HW270326   2.769  11.419   0.369
89518SOL     OW70327  14.802  13.459  11.868
89518SOL    HW170328  14.832  13.370  11.850
89518SOL    HW270329  14.711  13.448  11.896
89519SOL     OW70330   7.854   6.459  10.276
89519SOL    HW170331   7.788   6.486  10.212
89519SOL    HW270332   7.872   6.540  10.325
89520SOL     OW70333  12.595  14.691   4.022
89520SOL    HW170334  12.636  14.728   4.100
89520SOL    HW270335  12.643  14.730   3.949
89521SOL     OW70336   9.356   6.887   9.321
89521SOL    HW170337   9.374   6.940   9.399
89521SOL    HW270338   9.338   6.800   9.355
89522SOL     OW70339   6.817   0.045  14.469
89522SOL    HW170340   6.746   0.023  14.530
89522SOL    HW270341   6.865  14.844  14.457
89523SOL     OW70342   3.899   7.684   0.874
89523SOL    HW170343   3.809   7.672   0.844
89523SOL    HW270344   3.930   7.595   0.893
89524SOL     OW70345   8.156  10.463   9.501
89524SOL    HW170346   8.219  10.509   9.556
89524SOL    HW270347   8.200  10.381   9.477
89525SOL     OW70348   5.705   3.437   5.471
89525SOL    HW170349   5.710   3.533   5.467
89525SOL    HW270350   5.623   3.416   5.427
89526SOL     OW70351  14.151  12.015  12.777
89526SOL    HW170352  14.118  12.104  12.792
89526SOL    HW270353  14.214  12.025  12.706
89527SOL     OW70354   8.738   0.292   0.960
89527SOL    HW170355   8.824   0.334   0.966
89527SOL    HW270356   8.703   0.322   0.876
89528SOL     OW70357  10.220  12.571   2.293
89528SOL    HW170358  10.246  12.629   2.221
89528SOL    HW270359  10.301  12.554   2.341
89529SOL     OW70360   2.078   7.798   6.849
89529SOL    HW170361   2.057   7.720   6.798
89529SOL    HW270362   2.108   7.861   6.784
89530SOL     OW70363  14.151  14.713   7.756
89530SOL    HW170364  14.234  14.727   7.710
89530SOL    HW270365  14.090  14.682   7.689
89531SOL     OW70366  13.825   3.154  11.450
89531SOL    HW170367  13.879   3.164  11.371
89531SOL    HW270368  13.873   3.091  11.504
89532SOL     OW70369   3.159  11.440   7.114
89532SOL    HW170370   3.107  11.363   7.139
89532SOL    HW270371   3.095  11.510   7.102
89533SOL     OW70372   6.977   0.206   3.966
89533SOL    HW170373   6.969   0.299   3.943
89533SOL    HW270374   7.046   0.203   4.032
89534SOL     OW70375  14.324  10.226   8.497
89534SOL    HW170376  14.307  10.133   8.478
89534SOL    HW270377  14.278  10.273   8.427
89535SOL     OW70378   2.236  13.066   7.088
89535SOL    HW170379   2.212  13.005   7.019
89535SOL    HW270380   2.157  13.074   7.142
89536SOL     OW70381   6.961   1.333   9.415
89536SOL    HW170382   6.939   1.258   9.470
89536SOL    HW270383   7.035   1.304   9.363
89537SOL     OW70384  11.258   6.897   8.843
89537SOL    HW170385  11.298   6.811   8.852
89537SOL    HW270386  11.330   6.959   8.852
89538SOL     OW70387  13.386   8.017   5.427
89538SOL    HW170388  13.328   8.089   5.452
89538SOL    HW270389  13.442   8.003   5.504
89539SOL     OW70390   9.175   3.443   1.717
89539SOL    HW170391   9.175   3.438   1.622
89539SOL    HW270392   9.171   3.351   1.745
89540SOL     OW70393   0.589   2.029   0.280
89540SOL    HW170394   0.649   1.997   0.347
89540SOL    HW270395   0.587   1.959   0.215
89541SOL     OW70396  12.071   1.505   1.447
89541SOL    HW170397  12.135   1.456   1.500
89541SOL    HW270398  11.988   1.492   1.492
89542SOL     OW70399   3.586   7.216   7.752
89542SOL    HW170400   3.554   7.221   7.842
89542SOL    HW270401   3.508   7.227   7.698
89543SOL     OW70402   4.934   2.049   9.056
89543SOL    HW170403   4.970   2.097   9.131
89543SOL    HW270404   4.841   2.068   9.058
89544SOL     OW70405   7.770  12.613   2.360
89544SOL    HW170406   7.833  12.604   2.431
89544SOL    HW270407   7.698  12.556   2.384
89545SOL     OW70408  14.778   5.586   6.645
89545SOL    HW170409  14.761   5.528   6.571
89545SOL    HW270410  14.803   5.529   6.717
89546SOL     OW70411  12.807   6.589   1.412
89546SOL    HW170412  12.878   6.598   1.475
89546SOL    HW270413  12.850   6.590   1.327
89547SOL     OW70414   1.804   4.944   3.349
89547SOL    HW170415   1.898   4.963   3.341
89547SOL    HW270416   1.767   4.977   3.267
89548SOL     OW70417   8.291   1.411   5.428
89548SOL    HW170418   8.252   1.492   5.396
89548SOL    HW270419   8.373   1.402   5.378
89549SOL     OW70420  13.789   4.366   6.617
89549SOL    HW170421  13.715   4.373   6.678
89549SOL    HW270422  13.748   4.347   6.533
89550SOL     OW70423  13.226   7.545   8.369
89550SOL    HW170424  13.239   7.517   8.459
89550SOL    HW270425  13.296   7.501   8.320
89551SOL     OW70426   4.972   7.781  14.043
89551SOL    HW170427   4.961   7.696  14.086
89551SOL    HW270428   4.912   7.839  14.090
89552SOL     OW70429   5.223  11.610   0.256
89552SOL    HW170430   5.158  11.571   0.314
89552SOL    HW270431   5.307  11.588   0.295
89553SOL     OW70432   8.357  13.172   9.005
89553SOL    HW170433   8.421  13.242   9.019
89553SOL    HW270434   8.410  13.093   8.994
89554SOL     OW70435   7.325   9.138   0.676
89554SOL    HW170436   7.237   9.168   0.700
89554SOL    HW270437   7.369   9.124   0.760
89555SOL     OW70438  12.495   2.219  12.455
89555SOL    HW170439  12.581   2.220  12.412
89555SOL    HW270440  12.490   2.303  12.501
89556SOL     OW70441   9.326   4.296   5.812
89556SOL    HW170442   9.401   4.320   5.758
89556SOL    HW270443   9.328   4.200   5.815
89557SOL     OW70444   4.975   4.943  13.455
89557SOL    HW170445   4.898   4.978  13.500
89557SOL    HW270446   5.047   4.997  13.486
89558SOL     OW70447  12.863  11.029   7.434
89558SOL    HW170448  12.798  11.063   7.496
89558SOL    HW270449  12.893  10.947   7.472
89559SOL     OW70450  11.904  10.728  14.875
89559SOL    HW170451  11.915  10.822  14.864
89559SOL    HW270452  11.921  10.691  14.789
89560SOL     OW70453   6.537   0.964   9.601
89560SOL    HW170454   6.456   1.011   9.579
89560SOL    HW270455   6.506   0.884   9.643
89561SOL     OW70456   9.266   4.216   4.633
89561SOL    HW170457   9.361   4.208   4.620
89561SOL    HW270458   9.238   4.281   4.569
89562SOL     OW70459   9.544   3.858  14.040
89562SOL    HW170460   9.534   3.834  14.132
89562SOL    HW270461   9.638   3.847  14.022
89563SOL     OW70462  10.883  11.035   0.335
89563SOL    HW170463  10.941  11.111   0.322
89563SOL    HW270464  10.813  11.048   0.271
89564SOL     OW70465   9.472  10.797   6.472
89564SOL    HW170466   9.461  10.854   6.396
89564SOL    HW270467   9.406  10.827   6.535
89565SOL     OW70468  13.195   2.106  14.733
89565SOL    HW170469  13.152   2.147  14.658
89565SOL    HW270470  13.278   2.152  14.741
89566SOL     OW70471   7.101  12.399   4.129
89566SOL    HW170472   7.129  12.490   4.121
89566SOL    HW270473   7.005  12.404   4.130
89567SOL     OW70474   3.447   3.166   1.700
89567SOL    HW170475   3.404   3.239   1.744
89567SOL    HW270476   3.378   3.101   1.686
89568SOL     OW70477   3.556  11.577   9.109
89568SOL    HW170478   3.496  11.601   9.038
89568SOL    HW270479   3.498  11.555   9.182
89569SOL     OW70480  10.868   3.081  10.103
89569SOL    HW170481  10.875   2.991  10.136
89569SOL    HW270482  10.880   3.135  10.181
89570SOL     OW70483  13.375   6.724   5.922
89570SOL    HW170484  13.324   6.685   5.850
89570SOL    HW270485  13.309   6.756   5.983
89571SOL     OW70486  10.537  10.288   2.939
89571SOL    HW170487  10.529  10.382   2.951
89571SOL    HW270488  10.516  10.250   3.024
89572SOL     OW70489   3.353   4.264   2.181
89572SOL    HW170490   3.401   4.195   2.137
89572SOL    HW270491   3.374   4.253   2.274
89573SOL     OW70492   4.219   1.144  12.870
89573SOL    HW170493   4.217   1.086  12.794
89573SOL    HW270494   4.281   1.103  12.930
89574SOL     OW70495  13.655   1.669   8.495
89574SOL    HW170496  13.681   1.604   8.560
89574SOL    HW270497  13.563   1.688   8.515
89575SOL     OW70498  12.269   3.677   9.667
89575SOL    HW170499  12.317   3.722   9.737
89575SOL    HW270500  12.195   3.636   9.710
89576SOL     OW70501   6.810   1.562   9.573
89576SOL    HW170502   6.840   1.471   9.570
89576SOL    HW270503   6.878   1.610   9.526
89577SOL     OW70504   9.893   5.463   7.312
89577SOL    HW170505   9.964   5.501   7.364
89577SOL    HW270506   9.889   5.372   7.340
89578SOL     OW70507   9.163  11.090  14.435
89578SOL    HW170508   9.092  11.142  14.474
89578SOL    HW270509   9.237  11.101  14.495
89579SOL     OW70510   9.637  12.311   4.853
89579SOL    HW170511   9.730  12.310   4.833
89579SOL    HW270512   9.610  12.402   4.839
89580SOL     OW70513   9.548   7.380   1.830
89580SOL    HW170514   9.597   7.423   1.759
89580SOL    HW270515   9.456   7.402   1.813
89581SOL     OW70516   3.300  12.831  10.629
89581SOL    HW170517   3.205  12.842  10.635
89581SOL    HW270518   3.314  12.738  10.645
89582SOL     OW70519  10.443  11.936   1.638
89582SOL    HW170520  10.529  11.978   1.642
89582SOL    HW270521  10.459  11.846   1.668
89583SOL     OW70522   8.268   0.943   0.040
89583SOL    HW170523   8.249   0.850   0.051
89583SOL    HW270524   8.294   0.951  14.830
89584SOL     OW70525  13.909   3.214  13.782
89584SOL    HW170526  13.954   3.283  13.831
89584SOL    HW270527  13.824   3.205  13.826
89585SOL     OW70528   7.789   8.556   3.296
89585SOL    HW170529   7.784   8.467   3.262
89585SOL    HW270530   7.882   8.578   3.293
89586SOL     OW70531   3.324   2.019   9.246
89586SOL    HW170532   3.322   1.955   9.318
89586SOL    HW270533   3.361   1.971   9.173
89587SOL     OW70534   4.083   3.484  10.048
89587SOL    HW170535   4.020   3.525  10.107
89587SOL    HW270536   4.157   3.461  10.104
89588SOL     OW70537   2.628   5.476   0.086
89588SOL    HW170538   2.696   5.408   0.092
89588SOL    HW270539   2.664   5.539   0.022
89589SOL     OW70540   5.355   0.360   6.971
89589SOL    HW170541   5.278   0.305   6.958
89589SOL    HW270542   5.411   0.310   7.031
89590SOL     OW70543  14.320   7.296   7.395
89590SOL    HW170544  14.349   7.242   7.322
89590SOL    HW270545  14.392   7.293   7.458
89591SOL     OW70546   6.650   4.306   7.107
89591SOL    HW170547   6.618   4.216   7.115
89591SOL    HW270548   6.626   4.348   7.190
89592SOL     OW70549   1.632   0.150  14.702
89592SOL    HW170550   1.570   0.220  14.680
89592SOL    HW270551   1.577   0.080  14.739
89593SOL     OW70552   0.540   0.604  14.810
89593SOL    HW170553   0.545   0.647  14.725
89593SOL    HW270554   0.620   0.630  14.855
89594SOL     OW70555  10.933   9.416   2.963
89594SOL    HW170556  11.012   9.471   2.971
89594SOL    HW270557  10.868   9.474   2.922
89595SOL     OW70558   8.552   5.724   7.032
89595SOL    HW170559   8.556   5.633   7.061
89595SOL    HW270560   8.564   5.776   7.112
89596SOL     OW70561  14.074  12.344  14.697
89596SOL    HW170562  14.135  12.411  14.728
89596SOL    HW270563  14.054  12.370  14.607
89597SOL     OW70564   1.037   3.062   4.615
89597SOL    HW170565   1.061   3.036   4.704
89597SOL    HW270566   1.043   2.982   4.563
89598SOL     OW70567   2.001  10.735  13.066
89598SOL    HW170568   2.073  10.681  13.099
89598SOL    HW270569   1.993  10.806  13.130
89599SOL     OW70570  13.342   9.214   3.708
89599SOL    HW170571  13.280   9.256   3.768
89599SOL    HW270572  13.295   9.210   3.625
89600SOL     OW70573   8.605  11.629   4.092
89600SOL    HW170574   8.580  11.611   4.001
89600SOL    HW270575   8.670  11.562   4.113
89601SOL     OW70576   3.906   6.829   3.533
89601SOL    HW170577   3.843   6.899   3.520
89601SOL    HW270578   3.946   6.815   3.447
89602SOL     OW70579   0.244   8.181   7.049
89602SOL    HW170580   0.288   8.182   6.964
89602SOL    HW270581   0.156   8.215   7.031
89603SOL     OW70582   8.273   3.383   4.229
89603SOL    HW170583   8.204   3.332   4.186
89603SOL    HW270584   8.292   3.454   4.168
89604SOL     OW70585   6.817   6.758   8.310
89604SOL    HW170586   6.900   6.805   8.322
89604SOL    HW270587   6.790   6.779   8.221
89605SOL     OW70588   3.010  14.008   4.795
89605SOL    HW170589   3.005  13.974   4.884
89605SOL    HW270590   2.962  14.091   4.798
89606SOL     OW70591  14.174   2.723   5.583
89606SOL    HW170592  14.252   2.757   5.540
89606SOL    HW270593  14.199   2.714   5.675
89607SOL     OW70594   0.876   5.603  13.105
89607SOL    HW170595   0.940   5.557  13.049
89607SOL    HW270596   0.915   5.600  13.192
89608SOL     OW70597   2.636   4.472   9.053
89608SOL    HW170598   2.641   4.443   9.144
89608SOL    HW270599   2.558   4.527   9.049
89609SOL     OW70600   7.888   2.047   0.436
89609SOL    HW170601   7.958   2.007   0.384
89609SOL    HW270602   7.898   2.010   0.523
89610SOL     OW70603  14.740   8.233   0.082
89610SOL    HW170604  14.829   8.214   0.110
89610SOL    HW270605  14.712   8.155   0.034
89611SOL     OW70606  11.445   8.749  11.695
89611SOL    HW170607  11.429   8.802  11.617
89611SOL    HW270608  11.507   8.800  11.747
89612SOL     OW70609   6.051   5.866  14.575
89612SOL    HW170610   5.991   5.916  14.631
89612SOL    HW270611   5.994   5.807  14.526
89613SOL     OW70612   8.298   3.607   6.804
89613SOL    HW170613   8.363   3.645   6.863
89613SOL    HW270614   8.299   3.664   6.727
89614SOL     OW70615   4.256   8.902   3.723
89614SOL    HW170616   4.263   8.840   3.796
89614SOL    HW270617   4.337   8.891   3.675
89615SOL     OW70618   8.963  14.681   0.072
89615SOL    HW170619   8.919  14.629   0.139
89615SOL    HW270620   8.954  14.629  14.873
89616SOL     OW70621   3.759   2.232   4.961
89616SOL    HW170622   3.687   2.181   4.999
89616SOL    HW270623   3.720   2.276   4.885
89617SOL     OW70624  14.365   7.578  12.425
89617SOL    HW170625  14.309   7.522  12.370
89617SOL    HW270626  14.370   7.531  12.508
89618SOL     OW70627  13.089  11.481   3.819
89618SOL    HW170628  13.063  11.554   3.763
89618SOL    HW270629  13.127  11.417   3.759
89619SOL     OW70630   5.965   4.730  10.626
89619SOL    HW170631   5.922   4.693  10.549
89619SOL    HW270632   6.035   4.667  10.646
89620SOL     OW70633  14.100   2.192   5.249
89620SOL    HW170634  14.097   2.113   5.195
89620SOL    HW270635  14.087   2.264   5.187
89621SOL     OW70636   7.726   4.075   3.403
89621SOL    HW170637   7.744   3.994   3.451
89621SOL    HW270638   7.726   4.048   3.311
89622SOL     OW70639   7.997  12.389   9.516
89622SOL    HW170640   8.079  12.435   9.533
89622SOL    HW270641   8.008  12.351   9.429
89623SOL     OW70642  12.493  10.652  10.393
89623SOL    HW170643  12.584  10.676  10.380
89623SOL    HW270644  12.476  10.585  10.326
89624SOL     OW70645   3.033   5.905   2.633
89624SOL    HW170646   3.005   5.956   2.709
89624SOL    HW270647   3.113   5.949   2.603
89625SOL     OW70648  14.119  12.813   2.876
89625SOL    HW170649  14.082  12.744   2.822
89625SOL    HW270650  14.048  12.838   2.935
89626SOL     OW70651   9.768  10.530   3.386
89626SOL    HW170652   9.705  10.458   3.395
89626SOL    HW270653   9.749  10.568   3.300
89627SOL     OW70654  14.104   9.765   1.079
89627SOL    HW170655  14.151   9.757   1.163
89627SOL    HW270656  14.021   9.720   1.095
89628SOL     OW70657   7.874   9.401   4.154
89628SOL    HW170658   7.952   9.347   4.147
89628SOL    HW270659   7.905   9.490   4.137
89629SOL     OW70660   1.566   1.752  12.169
89629SOL    HW170661   1.659   1.766  12.189
89629SOL    HW270662   1.536   1.693  12.238
89630SOL     OW70663   5.849   4.525   7.252
89630SOL    HW170664   5.919   4.460   7.255
89630SOL    HW270665   5.892   4.605   7.221
89631SOL     OW70666   0.794   4.814   6.503
89631SOL    HW170667   0.794   4.722   6.532
89631SOL    HW270668   0.703   4.841   6.506
89632SOL     OW70669   8.212  11.408   5.643
89632SOL    HW170670   8.196  11.484   5.588
89632SOL    HW270671   8.172  11.430   5.727
89633SOL     OW70672   4.891   2.759   5.859
89633SOL    HW170673   4.968   2.718   5.819
89633SOL    HW270674   4.905   2.750   5.953
89634SOL     OW70675   1.074   5.148  13.175
89634SOL    HW170676   1.065   5.081  13.108
89634SOL    HW270677   1.136   5.212  13.138
89635SOL     OW70678   7.842  14.466   6.900
89635SOL    HW170679   7.884  14.494   6.818
89635SOL    HW270680   7.873  14.376   6.913
89636SOL     OW70681  11.909  11.469   0.431
89636SOL    HW170682  11.838  11.462   0.367
89636SOL    HW270683  11.941  11.559   0.421
89637SOL     OW70684  11.381   2.433  13.731
89637SOL    HW170685  11.368   2.443  13.825
89637SOL    HW270686  11.397   2.339  13.718
89638SOL     OW70687   6.678  14.255   0.027
89638SOL    HW170688   6.662  14.350   0.029
89638SOL    HW270689   6.753  14.243   0.085
89639SOL     OW70690   8.771   2.751   3.595
89639SOL    HW170691   8.736   2.827   3.548
89639SOL    HW270692   8.757   2.678   3.535
89640SOL     OW70693   7.966   9.231  13.534
89640SOL    HW170694   8.044   9.242  13.588
89640SOL    HW270695   7.992   9.263  13.448
89641SOL     OW70696   5.523   0.302  13.320
89641SOL    HW170697   5.574   0.227  13.352
89641SOL    HW270698   5.525   0.364  13.393
89642SOL     OW70699  12.426   1.597   8.149
89642SOL    HW170700  12.511   1.630   8.178
89642SOL    HW270701  12.428   1.503   8.167
89643SOL     OW70702   2.120  10.325   1.826
89643SOL    HW170703   2.078  10.405   1.795
89643SOL    HW270704   2.108  10.327   1.921
89644SOL     OW70705  14.861   7.115   4.405
89644SOL    HW170706  14.789   7.091   4.464
89644SOL    HW270707  14.876   7.208   4.422
89645SOL     OW70708   4.592   0.168   3.363
89645SOL    HW170709   4.684   0.144   3.358
89645SOL    HW270710   4.571   0.165   3.456
89646SOL     OW70711   2.564   6.955   6.503
89646SOL    HW170712   2.481   6.909   6.517
89646SOL    HW270713   2.565   6.972   6.408
89647SOL     OW70714  13.081   8.382   1.135
89647SOL    HW170715  13.144   8.324   1.178
89647SOL    HW270716  13.017   8.323   1.096
89648SOL     OW70717  11.452   3.181   8.285
89648SOL    HW170718  11.365   3.142   8.296
89648SOL    HW270719  11.438   3.253   8.224
89649SOL     OW70720   2.116   0.655   7.351
89649SOL    HW170721   2.136   0.651   7.257
89649SOL    HW270722   2.086   0.744   7.365
89650SOL     OW70723  11.071   6.215   9.428
89650SOL    HW170724  11.024   6.236   9.508
89650SOL    HW270725  11.050   6.286   9.368
89651SOL     OW70726  12.643  13.504   1.588
89651SOL    HW170727  12.676  13.587   1.554
89651SOL    HW270728  12.701  13.438   1.551
89652SOL     OW70729   2.223  11.053  11.486
89652SOL    HW170730   2.277  10.979  11.513
89652SOL    HW270731   2.156  11.016  11.429
89653SOL     OW70732   2.796   7.761  12.695
89653SOL    HW170733   2.884   7.782  12.663
89653SOL    HW270734   2.780   7.824  12.765
89654SOL     OW70735  10.561   3.982  11.195
89654SOL    HW170736  10.558   4.020  11.108
89654SOL    HW270737  10.581   3.889  11.181
89655SOL     OW70738   6.200   8.096   0.382
89655SOL    HW170739   6.109   8.124   0.389
89655SOL    HW270740   6.219   8.095   0.289
89656SOL     OW70741   6.208   7.532  13.528
89656SOL    HW170742   6.201   7.503  13.437
89656SOL    HW270743   6.266   7.608  13.524
89657SOL     OW70744   3.062   5.201   9.280
89657SOL    HW170745   3.155   5.199   9.304
89657SOL    HW270746   3.046   5.291   9.253
89658SOL     OW70747   3.029   3.709   1.053
89658SOL    HW170748   3.020   3.750   1.139
89658SOL    HW270749   3.023   3.782   0.991
89659SOL     OW70750   3.743   5.390   8.595
89659SOL    HW170751   3.661   5.360   8.555
89659SOL    HW270752   3.732   5.485   8.603
89660SOL     OW70753  13.069  14.625   1.663
89660SOL    HW170754  13.039  14.703   1.616
89660SOL    HW270755  13.123  14.578   1.599
89661SOL     OW70756   5.641   7.619   9.374
89661SOL    HW170757   5.562   7.668   9.397
89661SOL    HW270758   5.639   7.543   9.433
89662SOL     OW70759  10.122  12.860  14.358
89662SOL    HW170760  10.190  12.792  14.355
89662SOL    HW270761  10.120  12.888  14.450
89663SOL     OW70762   8.750   8.406   2.207
89663SOL    HW170763   8.700   8.468   2.155
89663SOL    HW270764   8.770   8.334   2.147
89664SOL     OW70765   7.540   0.821   9.344
89664SOL    HW170766   7.636   0.823   9.352
89664SOL    HW270767   7.520   0.732   9.317
89665SOL     OW70768   3.820  12.306  10.413
89665SOL    HW170769   3.895  12.288  10.471
89665SOL    HW270770   3.818  12.401  10.407
89666SOL     OW70771   7.818  10.927  10.785
89666SOL    HW170772   7.882  10.868  10.744
89666SOL    HW270773   7.810  10.894  10.875
89667SOL     OW70774   0.471   0.590   2.069
89667SOL    HW170775   0.422   0.527   2.016
89667SOL    HW270776   0.432   0.583   2.157
89668SOL     OW70777   7.704  13.680  11.787
89668SOL    HW170778   7.761  13.723  11.724
89668SOL    HW270779   7.625  13.659  11.737
89669SOL     OW70780  12.476  12.910   9.230
89669SOL    HW170781  12.506  12.841   9.171
89669SOL    HW270782  12.521  12.989   9.200
89670SOL     OW70783  14.743  14.603   9.767
89670SOL    HW170784  14.748  14.586   9.861
89670SOL    HW270785  14.650  14.609   9.748
89671SOL     OW70786   6.556  10.372  10.811
89671SOL    HW170787   6.541  10.460  10.846
89671SOL    HW270788   6.491  10.317  10.854
89672SOL     OW70789   9.018   1.842  11.062
89672SOL    HW170790   9.024   1.886  10.977
89672SOL    HW270791   9.102   1.858  11.104
89673SOL     OW70792   3.740   4.888   8.962
89673SOL    HW170793   3.655   4.923   8.988
89673SOL    HW270794   3.723   4.840   8.881
89674SOL     OW70795   8.103  10.649   8.052
89674SOL    HW170796   8.056  10.575   8.089
89674SOL    HW270797   8.086  10.721   8.113
89675SOL     OW70798   0.338   9.234  10.202
89675SOL    HW170799   0.328   9.254  10.109
89675SOL    HW270800   0.347   9.139  10.206
89676SOL     OW70801  13.946  11.817  10.851
89676SOL    HW170802  13.939  11.809  10.756
89676SOL    HW270803  13.878  11.880  10.876
89677SOL     OW70804   5.743   7.117   3.315
89677SOL    HW170805   5.694   7.087   3.391
89677SOL    HW270806   5.777   7.036   3.276
89678SOL     OW70807   2.585  11.588   2.221
89678SOL    HW170808   2.517  11.524   2.241
89678SOL    HW270809   2.660  11.536   2.192
89679SOL     OW70810   2.347  11.301   9.620
89679SOL    HW170811   2.414  11.348   9.671
89679SOL    HW270812   2.287  11.370   9.592
89680SOL     OW70813   3.001   8.880  12.511
89680SOL    HW170814   3.049   8.909  12.588
89680SOL    HW270815   2.987   8.961  12.461
89681SOL     OW70816  11.153  13.674   4.669
89681SOL    HW170817  11.132  13.643   4.757
89681SOL    HW270818  11.248  13.680   4.667
89682SOL     OW70819   3.197  12.382  11.370
89682SOL    HW170820   3.127  12.318  11.382
89682SOL    HW270821   3.244  12.382  11.454
89683SOL     OW70822   7.902  11.450  11.954
89683SOL    HW170823   7.827  11.449  12.014
89683SOL    HW270824   7.878  11.513  11.887
89684SOL     OW70825  13.828   8.725   7.464
89684SOL    HW170826  13.921   8.702   7.459
89684SOL    HW270827  13.812   8.776   7.384
89685SOL     OW70828   3.485   3.282  13.940
89685SOL    HW170829   3.435   3.227  14.001
89685SOL    HW270830   3.525   3.348  13.995
89686SOL     OW70831   9.662   1.548   0.621
89686SOL    HW170832   9.698   1.460   0.615
89686SOL    HW270833   9.614   1.548   0.705
89687SOL     OW70834   2.914   5.607   6.690
89687SOL    HW170835   2.949   5.532   6.739
89687SOL    HW270836   2.953   5.599   6.603
89688SOL     OW70837   8.861  14.512   7.753
89688SOL    HW170838   8.893  14.602   7.750
89688SOL    HW270839   8.869  14.486   7.844
89689SOL     OW70840   9.840   4.638   1.470
89689SOL    HW170841   9.879   4.720   1.500
89689SOL    HW270842   9.746   4.651   1.479
89690SOL     OW70843  12.996  13.724  11.779
89690SOL    HW170844  13.040  13.649  11.818
89690SOL    HW270845  13.046  13.800  11.811
89691SOL     OW70846   1.202  11.315   5.600
89691SOL    HW170847   1.116  11.350   5.578
89691SOL    HW270848   1.213  11.334   5.693
89692SOL     OW70849  12.655  14.461   2.401
89692SOL    HW170850  12.671  14.369   2.417
89692SOL    HW270851  12.742  14.499   2.388
89693SOL     OW70852   0.841   4.379  10.517
89693SOL    HW170853   0.888   4.309  10.563
89693SOL    HW270854   0.823   4.444  10.584
89694SOL     OW70855  10.463  10.637  13.815
89694SOL    HW170856  10.514  10.605  13.740
89694SOL    HW270857  10.522  10.625  13.890
89695SOL     OW70858   7.899   1.168  13.697
89695SOL    HW170859   7.866   1.079  13.683
89695SOL    HW270860   7.988   1.156  13.728
89696SOL     OW70861   2.369  10.315   4.871
89696SOL    HW170862   2.431  10.313   4.798
89696SOL    HW270863   2.284  10.300   4.830
89697SOL     OW70864   6.990  13.450  13.472
89697SOL    HW170865   7.011  13.357  13.459
89697SOL    HW270866   7.041  13.475  13.549
89698SOL     OW70867  13.823  13.224  10.505
89698SOL    HW170868  13.827  13.149  10.565
89698SOL    HW270869  13.898  13.213  10.447
89699SOL     OW70870   9.103   8.487   1.041
89699SOL    HW170871   9.179   8.495   0.983
89699SOL    HW270872   9.029   8.471   0.982
89700SOL     OW70873  13.724   5.370  12.535
89700SOL    HW170874  13.755   5.445  12.586
89700SOL    HW270875  13.639   5.348  12.572
89701SOL     OW70876  13.797   5.456  10.325
89701SOL    HW170877  13.710   5.430  10.356
89701SOL    HW270878  13.813   5.400  10.249
89702SOL     OW70879  12.999   6.575   9.435
89702SOL    HW170880  12.965   6.654   9.393
89702SOL    HW270881  12.950   6.568   9.517
89703SOL     OW70882   1.157  12.847   7.620
89703SOL    HW170883   1.155  12.764   7.572
89703SOL    HW270884   1.087  12.898   7.581
89704SOL     OW70885   0.635  14.169  12.942
89704SOL    HW170886   0.634  14.263  12.925
89704SOL    HW270887   0.544  14.147  12.962
89705SOL     OW70888  13.249  14.785   9.032
89705SOL    HW170889  13.255  14.719   9.101
89705SOL    HW270890  13.227  14.736   8.953
89706SOL     OW70891   0.254   9.763   7.667
89706SOL    HW170892   0.227   9.684   7.714
89706SOL    HW270893   0.242   9.742   7.575
89707SOL     OW70894   0.194   6.972   8.455
89707SOL    HW170895   0.152   6.901   8.503
89707SOL    HW270896   0.231   7.029   8.522
89708SOL     OW70897  11.843  12.956   5.493
89708SOL    HW170898  11.850  12.954   5.398
89708SOL    HW270899  11.818  13.047   5.514
89709SOL     OW70900  13.157  13.515  12.362
89709SOL    HW170901  13.077  13.566  12.372
89709SOL    HW270902  13.181  13.489  12.451
89710SOL     OW70903   4.029   0.516   8.414
89710SOL    HW170904   4.003   0.549   8.328
89710SOL    HW270905   4.089   0.583   8.447
89711SOL     OW70906  12.231   6.445   7.239
89711SOL    HW170907  12.148   6.399   7.249
89711SOL    HW270908  12.229   6.513   7.307
89712SOL     OW70909  14.009   1.578  10.663
89712SOL    HW170910  14.085   1.525  10.637
89712SOL    HW270911  13.966   1.526  10.731
89713SOL     OW70912   5.958   8.578   1.307
89713SOL    HW170913   5.882   8.626   1.340
89713SOL    HW270914   5.934   8.554   1.218
89714SOL     OW70915   8.882   8.375   0.906
89714SOL    HW170916   8.904   8.299   0.852
89714SOL    HW270917   8.840   8.437   0.846
89715SOL     OW70918   5.240   2.080   3.887
89715SOL    HW170919   5.154   2.103   3.853
89715SOL    HW270920   5.281   2.164   3.909
89716SOL     OW70921   0.618   4.029   5.977
89716SOL    HW170922   0.702   4.073   5.977
89716SOL    HW270923   0.556   4.094   5.945
89717SOL     OW70924   8.598   5.590  11.962
89717SOL    HW170925   8.529   5.590  11.896
89717SOL    HW270926   8.626   5.682  11.967
89718SOL     OW70927   5.087   3.772   4.539
89718SOL    HW170928   5.076   3.677   4.537
89718SOL    HW270929   5.029   3.804   4.470
89719SOL     OW70930  11.599   6.644   1.283
89719SOL    HW170931  11.542   6.717   1.304
89719SOL    HW270932  11.564   6.570   1.332
89720SOL     OW70933  14.217   1.256   3.532
89720SOL    HW170934  14.251   1.174   3.496
89720SOL    HW270935  14.140   1.275   3.479
89721SOL     OW70936   1.628   5.549   1.762
89721SOL    HW170937   1.680   5.568   1.684
89721SOL    HW270938   1.629   5.454   1.769
89722SOL     OW70939   2.118  14.357   6.318
89722SOL    HW170940   2.127  14.297   6.244
89722SOL    HW270941   2.127  14.301   6.395
89723SOL     OW70942   3.824   5.098  12.661
89723SOL    HW170943   3.902   5.042  12.658
89723SOL    HW270944   3.810   5.124  12.570
89724SOL     OW70945   6.308   9.794  12.722
89724SOL    HW170946   6.296   9.760  12.633
89724SOL    HW270947   6.303   9.889  12.712
89725SOL     OW70948  14.459   8.834  12.889
89725SOL    HW170949  14.364   8.847  12.891
89725SOL    HW270950  14.481   8.831  12.795
89726SOL     OW70951   5.482   5.948   2.461
89726SOL    HW170952   5.554   6.001   2.427
89726SOL    HW270953   5.498   5.945   2.555
89727SOL     OW70954   4.468   6.109   3.530
89727SOL    HW170955   4.509   6.132   3.446
89727SOL    HW270956   4.376   6.095   3.509
89728SOL     OW70957   4.463   4.728  12.153
89728SOL    HW170958   4.444   4.762  12.066
89728SOL    HW270959   4.545   4.769  12.178
89729SOL     OW70960   2.770   8.535  12.758
89729SOL    HW170961   2.688   8.570  12.723
89729SOL    HW270962   2.838   8.570  12.700
89730SOL     OW70963   1.196   6.082  14.541
89730SOL    HW170964   1.275   6.114  14.498
89730SOL    HW270965   1.179   5.997  14.500
89731SOL     OW70966   4.641   3.132   6.609
89731SOL    HW170967   4.618   3.139   6.701
89731SOL    HW270968   4.598   3.051   6.579
89732SOL     OW70969   8.391  11.121   5.451
89732SOL    HW170970   8.338  11.184   5.401
89732SOL    HW270971   8.481  11.154   5.442
89733SOL     OW70972   3.779   7.744   3.245
89733SOL    HW170973   3.828   7.693   3.311
89733SOL    HW270974   3.770   7.684   3.171
89734SOL     OW70975   8.817  10.072   8.494
89734SOL    HW170976   8.871   9.993   8.495
89734SOL    HW270977   8.728  10.040   8.505
89735SOL     OW70978   8.742   9.286   4.497
89735SOL    HW170979   8.757   9.379   4.479
89735SOL    HW270980   8.711   9.250   4.413
89736SOL     OW70981   0.019   0.705  14.140
89736SOL    HW170982  14.854   0.653  14.205
89736SOL    HW270983  14.857   0.684  14.057
89737SOL     OW70984   3.389  11.841  11.151
89737SOL    HW170985   3.335  11.767  11.123
89737SOL    HW270986   3.403  11.892  11.071
89738SOL     OW70987  10.964  12.188   3.476
89738SOL    HW170988  10.899  12.226   3.416
89738SOL    HW270989  10.923  12.192   3.562
89739SOL     OW70990   3.014   2.947   3.560
89739SOL    HW170991   2.956   2.958   3.636
89739SOL    HW270992   3.054   2.861   3.573
89740SOL     OW70993   2.026  11.834   5.346
89740SOL    HW170994   2.061  11.915   5.382
89740SOL    HW270995   2.082  11.765   5.381
89741SOL     OW70996   3.500   1.646  12.954
89741SOL    HW170997   3.571   1.585  12.932
89741SOL    HW270998   3.489   1.636  13.049
89742SOL     OW70999   8.572   4.374  14.871
89742SOL    HW171000   8.581   4.306  14.805
89742SOL    HW271001   8.477   4.383   0.001
89743SOL     OW71002   7.770  12.890  11.743
89743SOL    HW171003   7.782  12.984  11.727
89743SOL    HW271004   7.679  12.882  11.772
89744SOL     OW71005   7.784  11.175   2.410
89744SOL    HW171006   7.771  11.096   2.358
89744SOL    HW271007   7.760  11.247   2.352
89745SOL     OW71008   1.115   5.977   8.314
89745SOL    HW171009   1.033   6.012   8.351
89745SOL    HW271010   1.178   6.048   8.326
89746SOL     OW71011   5.276   5.336   9.692
89746SOL    HW171012   5.310   5.424   9.705
89746SOL    HW271013   5.216   5.323   9.766
89747SOL     OW71014   3.150   2.301   5.688
89747SOL    HW171015   3.070   2.319   5.638
89747SOL    HW271016   3.209   2.372   5.666
89748SOL     OW71017  13.664  14.783  13.536
89748SOL    HW171018  13.645  14.863  13.487
89748SOL    HW271019  13.655  14.713  13.471
89749SOL     OW71020   5.878  14.839   5.281
89749SOL    HW171021   5.842  14.880   5.202
89749SOL    HW271022   5.940  14.774   5.248
89750SOL     OW71023  14.423   5.331  14.555
89750SOL    HW171024  14.368   5.386  14.611
89750SOL    HW271025  14.484   5.290  14.616
89751SOL     OW71026   2.032  11.546   6.539
89751SOL    HW171027   2.018  11.468   6.591
89751SOL    HW271028   2.004  11.522   6.451
89752SOL     OW71029  12.238  10.924   0.649
89752SOL    HW171030  12.191  10.871   0.585
89752SOL    HW271031  12.200  11.011   0.641
89753SOL     OW71032   2.536  10.403   1.833
89753SOL    HW171033   2.523  10.440   1.745
89753SOL    HW271034   2.518  10.476   1.892
89754SOL     OW71035   6.159   3.304   7.779
89754SOL    HW171036   6.173   3.377   7.718
89754SOL    HW271037   6.238   3.303   7.833
89755SOL     OW71038  10.272   1.964   0.918
89755SOL    HW171039  10.209   1.914   0.970
89755SOL    HW271040  10.229   1.977   0.834
89756SOL     OW71041  14.361   7.605  13.454
89756SOL    HW171042  14.303   7.680  13.467
89756SOL    HW271043  14.386   7.610  13.361
89757SOL     OW71044   4.595   2.883  10.551
89757SOL    HW171045   4.512   2.927  10.569
89757SOL    HW271046   4.619   2.912  10.464
89758SOL     OW71047  13.403   1.425   8.973
89758SOL    HW171048  13.453   1.500   9.006
89758SOL    HW271049  13.407   1.434   8.878
89759SOL     OW71050   4.470  10.035   6.605
89759SOL    HW171051   4.558  10.073   6.609
89759SOL    HW271052   4.414  10.099   6.648
89760SOL     OW71053  14.293  10.807  11.335
89760SOL    HW171054  14.313  10.824  11.427
89760SOL    HW271055  14.277  10.893  11.298
89761SOL     OW71056   5.410   4.551   5.318
89761SOL    HW171057   5.458   4.501   5.251
89761SOL    HW271058   5.477   4.600   5.365
89762SOL     OW71059   1.139   7.822   2.234
89762SOL    HW171060   1.196   7.771   2.292
89762SOL    HW271061   1.149   7.782   2.148
89763SOL     OW71062   0.386  11.443   8.154
89763SOL    HW171063   0.305  11.494   8.151
89763SOL    HW271064   0.413  11.446   8.246
89764SOL     OW71065  14.405  10.940   1.042
89764SOL    HW171066  14.411  11.015   0.983
89764SOL    HW271067  14.496  10.916   1.060
89765SOL     OW71068  13.508   0.002  13.092
89765SOL    HW171069  13.466   0.032  13.172
89765SOL    HW271070  13.485  14.791  13.085
89766SOL     OW71071   1.050  10.763   8.980
89766SOL    HW171072   1.048  10.745   8.886
89766SOL    HW271073   1.113  10.700   9.015
89767SOL     OW71074   7.855   7.379   7.583
89767SOL    HW171075   7.770   7.368   7.625
89767SOL    HW271076   7.838   7.364   7.490
89768SOL     OW71077   8.835   2.169   3.677
89768SOL    HW171078   8.928   2.189   3.693
89768SOL    HW271079   8.807   2.122   3.756
89769SOL     OW71080  13.000   4.228   1.094
89769SOL    HW171081  12.997   4.183   1.009
89769SOL    HW271082  12.922   4.283   1.095
89770SOL     OW71083   4.556   5.989   6.356
89770SOL    HW171084   4.546   5.907   6.306
89770SOL    HW271085   4.612   5.966   6.430
89771SOL     OW71086   1.256   0.195  14.238
89771SOL    HW171087   1.332   0.207  14.182
89771SOL    HW271088   1.285   0.135  14.307
89772SOL     OW71089  13.327   3.512  11.325
89772SOL    HW171090  13.380   3.464  11.261
89772SOL    HW271091  13.353   3.476  11.410
89773SOL     OW71092   3.458   0.849   1.239
89773SOL    HW171093   3.513   0.851   1.161
89773SOL    HW271094   3.385   0.907   1.219
89774SOL     OW71095  11.318  14.506  14.863
89774SOL    HW171096  11.229  14.540  14.869
89774SOL    HW271097  11.367  14.557   0.046
89775SOL     OW71098   8.290  11.404  14.718
89775SOL    HW171099   8.251  11.401  14.806
89775SOL    HW271100   8.383  11.420  14.733
89776SOL     OW71101   7.479  14.726   5.372
89776SOL    HW171102   7.403  14.694   5.325
89776SOL    HW271103   7.502  14.655   5.433
89777SOL     OW71104   5.091  13.415   7.836
89777SOL    HW171105   5.097  13.370   7.920
89777SOL    HW271106   5.171  13.390   7.790
89778SOL     OW71107   0.101   3.370   8.115
89778SOL    HW171108   0.084   3.459   8.147
89778SOL    HW271109   0.131   3.322   8.192
89779SOL     OW71110   8.963   8.247   4.065
89779SOL    HW171111   8.966   8.207   4.152
89779SOL    HW271112   8.962   8.342   4.083
89780SOL     OW71113   7.661   6.995   6.753
89780SOL    HW171114   7.607   7.073   6.742
89780SOL    HW271115   7.597   6.924   6.763
89781SOL     OW71116  14.059   4.172   4.185
89781SOL    HW171117  14.086   4.092   4.229
89781SOL    HW271118  14.072   4.154   4.092
89782SOL     OW71119   9.830   3.987  13.830
89782SOL    HW171120   9.829   4.062  13.889
89782SOL    HW271121   9.923   3.963  13.824
89783SOL     OW71122   6.419  14.231   7.716
89783SOL    HW171123   6.378  14.308   7.678
89783SOL    HW271124   6.349  14.167   7.723
89784SOL     OW71125   7.009  10.076  11.564
89784SOL    HW171126   6.939  10.019  11.594
89784SOL    HW271127   7.087  10.019  11.563
89785SOL     OW71128   1.291   5.282  11.936
89785SOL    HW171129   1.382   5.310  11.923
89785SOL    HW271130   1.288   5.252  12.027
89786SOL     OW71131   0.899   5.008   1.608
89786SOL    HW171132   0.977   5.057   1.581
89786SOL    HW271133   0.929   4.954   1.681
89787SOL     OW71134  11.480   8.539   7.040
89787SOL    HW171135  11.505   8.528   6.949
89787SOL    HW271136  11.548   8.494   7.090
89788SOL     OW71137   1.784  13.293  11.359
89788SOL    HW171138   1.817  13.205  11.379
89788SOL    HW271139   1.850  13.352  11.394
89789SOL     OW71140   4.827  14.599  11.079
89789SOL    HW171141   4.747  14.638  11.044
89789SOL    HW271142   4.869  14.559  11.002
89790SOL     OW71143   1.226  10.294   5.215
89790SOL    HW171144   1.149  10.295   5.271
89790SOL    HW271145   1.263  10.207   5.225
89791SOL     OW71146   6.315  11.571   7.150
89791SOL    HW171147   6.257  11.646   7.163
89791SOL    HW271148   6.256  11.496   7.149
89792SOL     OW71149   8.415   3.522  12.093
89792SOL    HW171150   8.414   3.607  12.049
89792SOL    HW271151   8.439   3.460  12.025
89793SOL     OW71152   9.492   5.679   4.183
89793SOL    HW171153   9.443   5.652   4.261
89793SOL    HW271154   9.481   5.607   4.121
89794SOL     OW71155   5.904   9.500   4.326
89794SOL    HW171156   5.833   9.557   4.354
89794SOL    HW271157   5.867   9.412   4.328
89795SOL     OW71158  10.453   6.362   7.912
89795SOL    HW171159  10.482   6.405   7.831
89795SOL    HW271160  10.461   6.268   7.894
89796SOL     OW71161   2.532  12.762  12.004
89796SOL    HW171162   2.540  12.680  12.053
89796SOL    HW271163   2.599  12.820  12.041
89797SOL     OW71164  10.702  10.937  11.969
89797SOL    HW171165  10.656  10.982  11.897
89797SOL    HW271166  10.786  10.981  11.975
89798SOL     OW71167  11.042  14.450  10.657
89798SOL    HW171168  11.095  14.530  10.652
89798SOL    HW271169  11.106  14.379  10.669
89799SOL     OW71170   5.906   9.098  13.209
89799SOL    HW171171   5.993   9.137  13.201
89799SOL    HW271172   5.873   9.129  13.293
89800SOL     OW71173   7.200  11.281   4.936
89800SOL    HW171174   7.125  11.237   4.895
89800SOL    HW271175   7.276  11.231   4.906
89801SOL     OW71176   3.772   5.213   1.153
89801SOL    HW171177   3.812   5.182   1.235
89801SOL    HW271178   3.689   5.166   1.148
89802SOL     OW71179   1.306   1.489   3.983
89802SOL    HW171180   1.217   1.454   3.991
89802SOL    HW271181   1.302   1.575   4.025
89803SOL     OW71182   0.634  11.535  14.278
89803SOL    HW171183   0.558  11.593  14.281
89803SOL    HW271184   0.658  11.533  14.185
89804SOL     OW71185   5.314  14.227  13.965
89804SOL    HW171186   5.235  14.275  13.991
89804SOL    HW271187   5.384  14.267  14.016
89805SOL     OW71188   4.667   4.073   3.733
89805SOL    HW171189   4.673   3.978   3.737
89805SOL    HW271190   4.573   4.091   3.722
89806SOL     OW71191   1.035   6.543   7.128
89806SOL    HW171192   0.991   6.458   7.122
89806SOL    HW271193   0.969   6.606   7.098
89807SOL     OW71194   5.606   1.439   6.570
89807SOL    HW171195   5.608   1.347   6.596
89807SOL    HW271196   5.584   1.437   6.477
89808SOL     OW71197   8.254  14.432   9.639
89808SOL    HW171198   8.344  14.439   9.609
89808SOL    HW271199   8.260  14.440   9.735
89809SOL     OW71200   0.577   8.084  14.665
89809SOL    HW171201   0.488   8.098  14.697
89809SOL    HW271202   0.625   8.162  14.695
89810SOL     OW71203   7.595   1.166  12.389
89810SOL    HW171204   7.673   1.160  12.445
89810SOL    HW271205   7.630   1.181  12.301
89811SOL     OW71206  12.056   4.200  11.302
89811SOL    HW171207  11.983   4.247  11.343
89811SOL    HW271208  12.025   4.110  11.296
89812SOL     OW71209   5.981   7.708   3.578
89812SOL    HW171210   6.071   7.678   3.564
89812SOL    HW271211   5.984   7.753   3.663
89813SOL     OW71212   9.721   1.603   1.135
89813SOL    HW171213   9.667   1.670   1.176
89813SOL    HW271214   9.789   1.652   1.089
89814SOL     OW71215  13.164   5.547  14.527
89814SOL    HW171216  13.161   5.640  14.504
89814SOL    HW271217  13.221   5.508  14.461
89815SOL     OW71218   0.263   5.683   3.440
89815SOL    HW171219   0.285   5.592   3.459
89815SOL    HW271220   0.248   5.684   3.345
89816SOL     OW71221  14.198  10.025   1.199
89816SOL    HW171222  14.134   9.980   1.253
89816SOL    HW271223  14.147  10.061   1.126
89817SOL     OW71224   5.995   7.842   7.267
89817SOL    HW171225   6.039   7.763   7.236
89817SOL    HW271226   5.983   7.828   7.361
89818SOL     OW71227  13.529   3.705   6.798
89818SOL    HW171228  13.515   3.724   6.705
89818SOL    HW271229  13.521   3.610   6.804
89819SOL     OW71230   6.676   4.123   6.509
89819SOL    HW171231   6.583   4.141   6.496
89819SOL    HW271232   6.707   4.090   6.425
89820SOL     OW71233   8.290   3.797   1.446
89820SOL    HW171234   8.297   3.743   1.367
89820SOL    HW271235   8.351   3.758   1.508
89821SOL     OW71236   2.781  11.054   5.003
89821SOL    HW171237   2.853  11.117   5.007
89821SOL    HW271238   2.724  11.087   4.933
89822SOL     OW71239   7.902  10.537  10.147
89822SOL    HW171240   7.948  10.612  10.185
89822SOL    HW271241   7.947  10.461  10.184
89823SOL     OW71242  10.978  12.660   9.270
89823SOL    HW171243  10.935  12.697   9.347
89823SOL    HW271244  10.980  12.566   9.287
89824SOL     OW71245   3.105  13.097   7.365
89824SOL    HW171246   3.133  13.010   7.339
89824SOL    HW271247   3.028  13.083   7.418
89825SOL     OW71248   3.888   3.106  12.090
89825SOL    HW171249   3.847   3.020  12.097
89825SOL    HW271250   3.867   3.149  12.173
89826SOL     OW71251   9.137   8.367   4.981
89826SOL    HW171252   9.101   8.452   5.007
89826SOL    HW271253   9.065   8.305   4.994
89827SOL     OW71254   0.318   1.462   2.671
89827SOL    HW171255   0.323   1.543   2.620
89827SOL    HW271256   0.356   1.485   2.756
89828SOL     OW71257   4.950   7.946   8.817
89828SOL    HW171258   5.026   7.910   8.863
89828SOL    HW271259   4.968   8.039   8.808
89829SOL     OW71260  11.340   0.063   2.521
89829SOL    HW171261  11.343   0.115   2.441
89829SOL    HW271262  11.326  14.854   2.491
89830SOL     OW71263  14.762  13.684   6.295
89830SOL    HW171264  14.706  13.717   6.224
89830SOL    HW271265  14.850  13.683   6.258
89831SOL     OW71266   5.008  11.833  12.019
89831SOL    HW171267   4.946  11.906  12.020
89831SOL    HW271268   4.953  11.754  12.013
89832SOL     OW71269   2.280   4.540   5.529
89832SOL    HW171270   2.237   4.466   5.486
89832SOL    HW271271   2.370   4.509   5.544
89833SOL     OW71272   1.715   1.359   2.624
89833SOL    HW171273   1.631   1.397   2.650
89833SOL    HW271274   1.777   1.431   2.630
89834SOL     OW71275   8.185   4.770   3.553
89834SOL    HW171276   8.098   4.747   3.522
89834SOL    HW271277   8.189   4.734   3.642
89835SOL     OW71278  10.506   4.168   1.355
89835SOL    HW171279  10.414   4.178   1.329
89835SOL    HW271280  10.530   4.080   1.326
89836SOL     OW71281  10.914  12.799   4.297
89836SOL    HW171282  10.873  12.723   4.255
89836SOL    HW271283  10.987  12.822   4.240
89837SOL     OW71284   3.967   3.842   8.134
89837SOL    HW171285   4.006   3.823   8.219
89837SOL    HW271286   4.017   3.917   8.101
89838SOL     OW71287   1.361   3.985   2.186
89838SOL    HW171288   1.408   4.061   2.154
89838SOL    HW271289   1.283   3.980   2.131
89839SOL     OW71290   2.066   2.706  14.149
89839SOL    HW171291   2.153   2.668  14.136
89839SOL    HW271292   2.062   2.726  14.242
89840SOL     OW71293   0.420   8.845   7.402
89840SOL    HW171294   0.465   8.896   7.335
89840SOL    HW271295   0.453   8.756   7.391
89841SOL     OW71296   5.599   8.233   9.132
89841SOL    HW171297   5.614   8.269   9.219
89841SOL    HW271298   5.686   8.233   9.090
89842SOL     OW71299   5.217   1.282  14.059
89842SOL    HW171300   5.260   1.364  14.083
89842SOL    HW271301   5.214   1.232  14.140
89843SOL     OW71302   8.008   3.774   4.019
89843SOL    HW171303   7.941   3.842   4.010
89843SOL    HW271304   8.029   3.748   3.929
89844SOL     OW71305   0.088  14.617   2.997
89844SOL    HW171306   0.152  14.638   2.930
89844SOL    HW271307   0.006  14.605   2.949
89845SOL     OW71308   1.480  14.236   0.420
89845SOL    HW171309   1.439  14.179   0.485
89845SOL    HW271310   1.573  14.232   0.439
89846SOL     OW71311   1.396  10.371   2.348
89846SOL    HW171312   1.466  10.362   2.284
89846SOL    HW271313   1.325  10.316   2.315
89847SOL     OW71314  13.200  13.107   0.281
89847SOL    HW171315  13.207  13.153   0.365
89847SOL    HW271316  13.272  13.141   0.228
89848SOL     OW71317  10.088   5.616   9.052
89848SOL    HW171318  10.178   5.636   9.080
89848SOL    HW271319  10.038   5.694   9.075
89849SOL     OW71320  11.422   1.925  13.299
89849SOL    HW171321  11.476   1.995  13.262
89849SOL    HW271322  11.420   1.857  13.231
89850SOL     OW71323   5.909  12.698  10.689
89850SOL    HW171324   5.871  12.686  10.602
89850SOL    HW271325   5.928  12.609  10.719
89851SOL     OW71326   3.316   4.664  11.446
89851SOL    HW171327   3.344   4.656  11.355
89851SOL    HW271328   3.396   4.655  11.498
89852SOL     OW71329   0.195   0.114   5.831
89852SOL    HW171330   0.282   0.092   5.798
89852SOL    HW271331   0.207   0.197   5.877
89853SOL     OW71332   5.820   3.191   8.686
89853SOL    HW171333   5.871   3.111   8.680
89853SOL    HW271334   5.796   3.212   8.596
89854SOL     OW71335   1.949  11.382   6.268
89854SOL    HW171336   1.856  11.358   6.272
89854SOL    HW271337   1.996  11.301   6.288
89855SOL     OW71338   4.619   1.522   9.612
89855SOL    HW171339   4.699   1.470   9.610
89855SOL    HW271340   4.625   1.578   9.535
89856SOL     OW71341   9.042  12.390   7.440
89856SOL    HW171342   9.020  12.384   7.533
89856SOL    HW271343   9.007  12.309   7.402
89857SOL     OW71344   0.532  10.998   5.353
89857SOL    HW171345   0.496  10.938   5.287
89857SOL    HW271346   0.602  10.949   5.395
89858SOL     OW71347   8.473   4.662   1.556
89858SOL    HW171348   8.506   4.603   1.623
89858SOL    HW271349   8.544   4.669   1.492
89859SOL     OW71350   0.002   5.106   7.531
89859SOL    HW171351  14.821   5.178   7.523
89859SOL    HW271352   0.007   5.089   7.625
89860SOL     OW71353   1.246   0.541  14.113
89860SOL    HW171354   1.198   0.472  14.158
89860SOL    HW271355   1.334   0.506  14.103
89861SOL     OW71356   1.344   4.018   2.747
89861SOL    HW171357   1.284   4.048   2.679
89861SOL    HW271358   1.331   3.924   2.752
89862SOL     OW71359   4.156   2.284   5.750
89862SOL    HW171360   4.120   2.243   5.671
89862SOL    HW271361   4.152   2.216   5.817
89863SOL     OW71362   7.989  10.134  13.911
89863SOL    HW171363   7.948  10.049  13.927
89863SOL    HW271364   8.064  10.114  13.855
89864SOL     OW71365  11.250   1.826   0.622
89864SOL    HW171366  11.262   1.920   0.635
89864SOL    HW271367  11.183   1.802   0.687
89865SOL     OW71368   6.915  11.745   7.718
89865SOL    HW171369   6.933  11.714   7.629
89865SOL    HW271370   6.828  11.784   7.712
89866SOL     OW71371   1.313   4.502   4.224
89866SOL    HW171372   1.392   4.490   4.277
89866SOL    HW271373   1.287   4.592   4.240
89867SOL     OW71374   0.293   0.606  10.284
89867SOL    HW171375   0.374   0.621  10.236
89867SOL    HW271376   0.260   0.523  10.251
89868SOL     OW71377   4.440   1.261   2.325
89868SOL    HW171378   4.445   1.246   2.230
89868SOL    HW271379   4.353   1.298   2.338
89869SOL     OW71380   0.116   3.573   5.275
89869SOL    HW171381   0.050   3.592   5.343
89869SOL    HW271382   0.163   3.496   5.309
89870SOL     OW71383   8.878   5.604  10.855
89870SOL    HW171384   8.852   5.512  10.852
89870SOL    HW271385   8.848   5.635  10.940
89871SOL     OW71386  11.451   8.231   7.070
89871SOL    HW171387  11.524   8.259   7.124
89871SOL    HW271388  11.454   8.288   6.993
89872SOL     OW71389  13.399   1.049  12.205
89872SOL    HW171390  13.386   0.958  12.232
89872SOL    HW271391  13.493   1.057  12.190
89873SOL     OW71392   2.288   5.282   1.722
89873SOL    HW171393   2.351   5.224   1.763
89873SOL    HW271394   2.291   5.363   1.773
89874SOL     OW71395  13.159  14.056   4.213
89874SOL    HW171396  13.117  14.107   4.282
89874SOL    HW271397  13.212  14.120   4.164
89875SOL     OW71398   6.255  14.237  11.543
89875SOL    HW171399   6.302  14.192  11.614
89875SOL    HW271400   6.317  14.303  11.512
89876SOL     OW71401   9.870  12.231  12.618
89876SOL    HW171402   9.817  12.152  12.609
89876SOL    HW271403   9.958  12.204  12.592
89877SOL     OW71404   8.797   4.014  13.280
89877SOL    HW171405   8.760   4.095  13.243
89877SOL    HW271406   8.724   3.952  13.280
89878SOL     OW71407   2.282  10.480  10.413
89878SOL    HW171408   2.369  10.515  10.434
89878SOL    HW271409   2.255  10.528  10.335
89879SOL     OW71410  11.347   6.092   0.299
89879SOL    HW171411  11.312   6.173   0.262
89879SOL    HW271412  11.271   6.034   0.304
89880SOL     OW71413   9.987   5.601   3.566
89880SOL    HW171414   9.945   5.515   3.569
89880SOL    HW271415  10.022   5.607   3.477
89881SOL     OW71416  11.281  11.163   6.734
89881SOL    HW171417  11.340  11.115   6.676
89881SOL    HW271418  11.234  11.224   6.677
89882SOL     OW71419   3.401   3.375   8.297
89882SOL    HW171420   3.412   3.453   8.351
89882SOL    HW271421   3.488   3.336   8.292
89883SOL     OW71422   6.516   4.643  12.005
89883SOL    HW171423   6.498   4.576  11.938
89883SOL    HW271424   6.610   4.659  11.998
89884SOL     OW71425   8.937   5.490   9.031
89884SOL    HW171426   8.957   5.562   8.971
89884SOL    HW271427   8.945   5.411   8.977
89885SOL     OW71428   2.048   9.207   3.698
89885SOL    HW171429   2.051   9.302   3.685
89885SOL    HW271430   2.088   9.193   3.784
89886SOL     OW71431  13.810   2.477   8.565
89886SOL    HW171432  13.817   2.548   8.629
89886SOL    HW271433  13.861   2.509   8.490
89887SOL     OW71434  14.323   8.079   2.544
89887SOL    HW171435  14.350   8.170   2.532
89887SOL    HW271436  14.391   8.028   2.499
89888SOL     OW71437   0.270   7.336  13.591
89888SOL    HW171438   0.190   7.384  13.611
89888SOL    HW271439   0.262   7.313  13.498
89889SOL     OW71440   9.271  13.376   1.368
89889SOL    HW171441   9.217  13.410   1.297
89889SOL    HW271442   9.233  13.290   1.388
89890SOL     OW71443   7.145  12.505   1.042
89890SOL    HW171444   7.127  12.486   1.134
89890SOL    HW271445   7.200  12.583   1.043
89891SOL     OW71446   0.721  11.718   3.279
89891SOL    HW171447   0.705  11.640   3.226
89891SOL    HW271448   0.774  11.687   3.353
89892SOL     OW71449   6.605  10.190  14.621
89892SOL    HW171450   6.676  10.164  14.562
89892SOL    HW271451   6.648  10.236  14.692
89893SOL     OW71452   0.442   8.337   6.603
89893SOL    HW171453   0.403   8.275   6.541
89893SOL    HW271454   0.532   8.348   6.573
89894SOL     OW71455   1.153   6.813  10.825
89894SOL    HW171456   1.077   6.793  10.770
89894SOL    HW271457   1.116   6.846  10.907
89895SOL     OW71458   1.597   3.536  13.153
89895SOL    HW171459   1.591   3.478  13.229
89895SOL    HW271460   1.601   3.624  13.190
89896SOL     OW71461  14.688  11.665   8.409
89896SOL    HW171462  14.719  11.614   8.485
89896SOL    HW271463  14.593  11.654   8.411
89897SOL     OW71464   7.804   8.672   5.757
89897SOL    HW171465   7.747   8.708   5.689
89897SOL    HW271466   7.872   8.625   5.709
89898SOL     OW71467   4.210   0.043   6.725
89898SOL    HW171468   4.228  14.868   6.800
89898SOL    HW271469   4.249   0.127   6.748
89899SOL     OW71470   7.703   4.046  12.572
89899SOL    HW171471   7.662   3.959  12.573
89899SOL    HW271472   7.650   4.096  12.510
89900SOL     OW71473   3.843  14.539   9.352
89900SOL    HW171474   3.932  14.507   9.345
89900SOL    HW271475   3.813  14.511   9.439
89901SOL     OW71476   7.874  10.062   3.431
89901SOL    HW171477   7.847  10.071   3.522
89901SOL    HW271478   7.793  10.070   3.381
89902SOL     OW71479   0.147  10.105   7.437
89902SOL    HW171480   0.159  10.058   7.520
89902SOL    HW271481   0.067  10.067   7.400
89903SOL     OW71482   9.098   0.735  11.899
89903SOL    HW171483   9.166   0.757  11.963
89903SOL    HW271484   9.144   0.689  11.829
89904SOL     OW71485   8.337  10.173   4.360
89904SOL    HW171486   8.385  10.256   4.366
89904SOL    HW271487   8.355  10.129   4.443
89905SOL     OW71488   0.611   0.403   8.072
89905SOL    HW171489   0.702   0.375   8.070
89905SOL    HW271490   0.587   0.413   7.980
89906SOL     OW71491   6.412   4.841   4.676
89906SOL    HW171492   6.450   4.870   4.593
89906SOL    HW271493   6.458   4.759   4.695
89907SOL     OW71494   5.505   2.645  10.346
89907SOL    HW171495   5.539   2.733  10.365
89907SOL    HW271496   5.430   2.661  10.288
89908SOL     OW71497  13.648  14.840   9.081
89908SOL    HW171498  13.694  14.777   9.137
89908SOL    HW271499  13.608   0.021   9.142
89909SOL     OW71500   6.856   2.510   2.106
89909SOL    HW171501   6.840   2.529   2.198
89909SOL    HW271502   6.851   2.415   2.099
89910SOL     OW71503   9.664  10.920  14.594
89910SOL    HW171504   9.714  11.001  14.589
89910SOL    HW271505   9.636  10.915  14.685
89911SOL     OW71506  12.653   0.303   9.270
89911SOL    HW171507  12.566   0.287   9.307
89911SOL    HW271508  12.713   0.256   9.328
89912SOL     OW71509   3.443   5.734   9.173
89912SOL    HW171510   3.378   5.665   9.162
89912SOL    HW271511   3.409   5.788   9.244
89913SOL     OW71512   7.283  14.709  14.672
89913SOL    HW171513   7.214  14.656  14.712
89913SOL    HW271514   7.364  14.679  14.714
89914SOL     OW71515   0.145   2.569  13.187
89914SOL    HW171516   0.168   2.620  13.109
89914SOL    HW271517   0.073   2.513  13.158
89915SOL     OW71518   2.380   1.432  12.901
89915SOL    HW171519   2.423   1.518  12.905
89915SOL    HW271520   2.414   1.391  12.822
89916SOL     OW71521   6.782  10.425  14.162
89916SOL    HW171522   6.757  10.499  14.107
89916SOL    HW271523   6.726  10.431  14.239
89917SOL     OW71524  11.412   8.557   2.613
89917SOL    HW171525  11.463   8.592   2.541
89917SOL    HW271526  11.476   8.510   2.667
89918SOL     OW71527   5.234   6.110   9.186
89918SOL    HW171528   5.161   6.101   9.247
89918SOL    HW271529   5.193   6.135   9.103
89919SOL     OW71530   8.813   8.282   1.679
89919SOL    HW171531   8.835   8.354   1.738
89919SOL    HW271532   8.845   8.310   1.594
89920SOL     OW71533   5.594   2.323   5.551
89920SOL    HW171534   5.672   2.351   5.503
89920SOL    HW271535   5.574   2.396   5.610
89921SOL     OW71536   5.362  13.149   2.844
89921SOL    HW171537   5.379  13.212   2.775
89921SOL    HW271538   5.339  13.068   2.798
89922SOL     OW71539   5.143   5.017   6.553
89922SOL    HW171540   5.162   4.983   6.641
89922SOL    HW271541   5.055   5.054   6.561
89923SOL     OW71542   8.502   0.138   2.280
89923SOL    HW171543   8.587   0.180   2.267
89923SOL    HW271544   8.511   0.090   2.362
89924SOL     OW71545  10.826   9.115  14.843
89924SOL    HW171546  10.918   9.123  14.868
89924SOL    HW271547  10.802   9.202  14.811
89925SOL     OW71548   2.818   2.048   1.210
89925SOL    HW171549   2.846   1.963   1.243
89925SOL    HW271550   2.736   2.067   1.257
89926SOL     OW71551   2.162   8.619   5.186
89926SOL    HW171552   2.192   8.654   5.102
89926SOL    HW271553   2.068   8.609   5.176
89927SOL     OW71554  12.883  13.269   8.716
89927SOL    HW171555  12.930  13.229   8.642
89927SOL    HW271556  12.794  13.279   8.684
89928SOL     OW71557   2.363   6.894  12.358
89928SOL    HW171558   2.278   6.922  12.393
89928SOL    HW271559   2.391   6.966  12.302
89929SOL     OW71560   4.062  12.511  13.971
89929SOL    HW171561   3.999  12.442  13.994
89929SOL    HW271562   4.107  12.477  13.894
89930SOL     OW71563   3.017   9.840  13.319
89930SOL    HW171564   2.964   9.763  13.340
89930SOL    HW271565   2.956   9.901  13.280
89931SOL     OW71566  10.092  10.022   5.413
89931SOL    HW171567  10.128  10.110   5.419
89931SOL    HW271568  10.078  10.007   5.320
89932SOL     OW71569   1.949   7.925   7.510
89932SOL    HW171570   2.034   7.968   7.515
89932SOL    HW271571   1.909   7.960   7.431
89933SOL     OW71572   1.311   6.777   3.927
89933SOL    HW171573   1.375   6.843   3.902
89933SOL    HW271574   1.227   6.822   3.919
89934SOL     OW71575   4.526   1.072  12.964
89934SOL    HW171576   4.600   1.038  13.014
89934SOL    HW271577   4.566   1.114  12.887
89935SOL     OW71578  11.079   6.900   3.657
89935SOL    HW171579  11.119   6.954   3.589
89935SOL    HW271580  11.093   6.950   3.738
89936SOL     OW71581   9.739  11.254  13.752
89936SOL    HW171582   9.742  11.313  13.828
89936SOL    HW271583   9.780  11.173  13.782
89937SOL     OW71584   5.765   1.113   6.094
89937SOL    HW171585   5.682   1.161   6.094
89937SOL    HW271586   5.822   1.164   6.151
89938SOL     OW71587  10.182   6.172   2.953
89938SOL    HW171588  10.121   6.235   2.991
89938SOL    HW271589  10.156   6.167   2.861
89939SOL     OW71590   9.383   0.488   2.756
89939SOL    HW171591   9.306   0.471   2.811
89939SOL    HW271592   9.367   0.575   2.719
89940SOL     OW71593   6.752   4.698   7.551
89940SOL    HW171594   6.807   4.663   7.622
89940SOL    HW271595   6.750   4.792   7.566
89941SOL     OW71596  14.185   0.651   2.464
89941SOL    HW171597  14.216   0.631   2.376
89941SOL    HW271598  14.116   0.587   2.481
89942SOL     OW71599   6.068   5.630   5.092
89942SOL    HW171600   6.000   5.571   5.124
89942SOL    HW271601   6.023   5.713   5.077
89943SOL     OW71602   4.499  10.683   9.587
89943SOL    HW171603   4.493  10.591   9.563
89943SOL    HW271604   4.585  10.693   9.626
89944SOL     OW71605  14.556   1.075  10.115
89944SOL    HW171606  14.564   1.036  10.202
89944SOL    HW271607  14.636   1.128  10.105
89945SOL     OW71608   5.565   6.668   9.514
89945SOL    HW171609   5.578   6.759   9.486
89945SOL    HW271610   5.642   6.622   9.484
89946SOL     OW71611   2.767  12.413  12.480
89946SOL    HW171612   2.808  12.449  12.559
89946SOL    HW271613   2.839  12.406  12.417
89947SOL     OW71614  12.501   7.247  12.295
89947SOL    HW171615  12.489   7.333  12.255
89947SOL    HW271616  12.448   7.188  12.241
89948SOL     OW71617  11.694   4.031   0.678
89948SOL    HW171618  11.751   4.049   0.603
89948SOL    HW271619  11.727   4.089   0.747
89949SOL     OW71620  11.305   2.489   5.205
89949SOL    HW171621  11.228   2.437   5.228
89949SOL    HW271622  11.304   2.562   5.268
89950SOL     OW71623   0.585   2.177  11.167
89950SOL    HW171624   0.660   2.177  11.227
89950SOL    HW271625   0.577   2.086  11.139
89951SOL     OW71626  13.718   7.786   4.839
89951SOL    HW171627  13.668   7.757   4.763
89951SOL    HW271628  13.707   7.881   4.840
89952SOL     OW71629   8.021   7.469   3.268
89952SOL    HW171630   7.968   7.511   3.336
89952SOL    HW271631   7.959   7.418   3.216
89953SOL     OW71632   7.508   9.849  12.126
89953SOL    HW171633   7.418   9.878  12.110
89953SOL    HW271634   7.545   9.838  12.038
89954SOL     OW71635   5.600   5.741  10.730
89954SOL    HW171636   5.674   5.784  10.687
89954SOL    HW271637   5.534   5.735  10.661
89955SOL     OW71638  11.293   8.924  10.568
89955SOL    HW171639  11.233   8.953  10.499
89955SOL    HW271640  11.273   8.830  10.579
89956SOL     OW71641   8.190  12.127  14.041
89956SOL    HW171642   8.143  12.206  14.066
89956SOL    HW271643   8.248  12.109  14.115
89957SOL     OW71644  14.858   9.159   1.367
89957SOL    HW171645   0.041   9.153   1.296
89957SOL    HW271646  14.776   9.131   1.328
89958SOL     OW71647   8.702  11.507   9.819
89958SOL    HW171648   8.712  11.434   9.880
89958SOL    HW271649   8.780  11.561   9.832
89959SOL     OW71650   4.784  13.237   6.325
89959SOL    HW171651   4.752  13.325   6.344
89959SOL    HW271652   4.705  13.183   6.323
89960SOL     OW71653   0.902   2.067  11.032
89960SOL    HW171654   0.917   2.112  11.115
89960SOL    HW271655   0.870   2.136  10.973
89961SOL     OW71656  14.330  13.683   6.215
89961SOL    HW171657  14.261  13.629   6.176
89961SOL    HW271658  14.374  13.624   6.277
89962SOL     OW71659   0.008  10.660  12.912
89962SOL    HW171660  14.802  10.669  12.875
89962SOL    HW271661   0.042  10.579  12.872
89963SOL     OW71662   2.471  12.780  10.195
89963SOL    HW171663   2.561  12.804  10.215
89963SOL    HW271664   2.420  12.858  10.216
89964SOL     OW71665   4.535   4.167   3.301
89964SOL    HW171666   4.609   4.126   3.346
89964SOL    HW271667   4.474   4.190   3.372
89965SOL     OW71668  13.707   4.245   0.221
89965SOL    HW171669  13.635   4.303   0.196
89965SOL    HW271670  13.742   4.213   0.138
89966SOL     OW71671   5.052  11.069   5.578
89966SOL    HW171672   5.069  11.161   5.595
89966SOL    HW271673   5.075  11.025   5.660
89967SOL     OW71674   5.666  10.225  12.898
89967SOL    HW171675   5.736  10.195  12.956
89967SOL    HW271676   5.696  10.200  12.810
89968SOL     OW71677   4.218   2.971   0.599
89968SOL    HW171678   4.307   3.001   0.578
89968SOL    HW271679   4.164   3.049   0.591
89969SOL     OW71680   7.448   5.462   6.790
89969SOL    HW171681   7.453   5.462   6.694
89969SOL    HW271682   7.357   5.484   6.809
89970SOL     OW71683   4.065  14.797  10.646
89970SOL    HW171684   4.096  14.794  10.555
89970SOL    HW271685   3.972  14.775  10.641
89971SOL     OW71686   7.198  12.454   0.253
89971SOL    HW171687   7.168  12.535   0.210
89971SOL    HW271688   7.129  12.391   0.233
89972SOL     OW71689  10.314   0.649   0.968
89972SOL    HW171690  10.256   0.590   0.919
89972SOL    HW271691  10.286   0.641   1.059
89973SOL     OW71692   3.322   5.251   9.005
89973SOL    HW171693   3.366   5.326   8.966
89973SOL    HW271694   3.240   5.243   8.955
89974SOL     OW71695  11.190   6.385   4.712
89974SOL    HW171696  11.168   6.473   4.742
89974SOL    HW271697  11.125   6.366   4.644
89975SOL     OW71698   4.192   4.918   1.184
89975SOL    HW171699   4.190   4.888   1.274
89975SOL    HW271700   4.278   4.894   1.151
89976SOL     OW71701   4.934  10.842   0.226
89976SOL    HW171702   4.875  10.860   0.153
89976SOL    HW271703   4.988  10.921   0.232
89977SOL     OW71704   2.593   7.315   2.955
89977SOL    HW171705   2.625   7.404   2.938
89977SOL    HW271706   2.522   7.327   3.017
89978SOL     OW71707  10.494  12.041  12.136
89978SOL    HW171708  10.567  11.985  12.161
89978SOL    HW271709  10.514  12.069  12.047
89979SOL     OW71710   3.835   0.144   0.081
89979SOL    HW171711   3.812   0.123  14.872
89979SOL    HW271712   3.761   0.195   0.113
89980SOL     OW71713   3.996   8.921  10.232
89980SOL    HW171714   4.079   8.881  10.256
89980SOL    HW271715   3.933   8.887  10.296
89981SOL     OW71716  12.749  12.481  14.615
89981SOL    HW171717  12.812  12.417  14.649
89981SOL    HW271718  12.664  12.439  14.630
89982SOL     OW71719  14.268   6.794   0.004
89982SOL    HW171720  14.209   6.846   0.058
89982SOL    HW271721  14.353   6.839   0.010
89983SOL     OW71722  11.055   2.766   3.935
89983SOL    HW171723  10.995   2.787   4.006
89983SOL    HW271724  11.016   2.808   3.858
89984SOL     OW71725   7.439   6.646   8.288
89984SOL    HW171726   7.496   6.573   8.267
89984SOL    HW271727   7.447   6.656   8.383
89985SOL     OW71728  11.524   8.000   4.573
89985SOL    HW171729  11.455   7.956   4.524
89985SOL    HW271730  11.528   7.953   4.657
89986SOL     OW71731   3.136   2.038   7.448
89986SOL    HW171732   3.203   2.035   7.380
89986SOL    HW271733   3.181   2.006   7.526
89987SOL     OW71734   9.182   8.548  13.593
89987SOL    HW171735   9.175   8.599  13.673
89987SOL    HW271736   9.244   8.596  13.539
89988SOL     OW71737   5.811  11.931   3.272
89988SOL    HW171738   5.850  12.011   3.237
89988SOL    HW271739   5.886  11.878   3.300
89989SOL     OW71740   7.431  14.807  14.207
89989SOL    HW171741   7.412  14.823  14.300
89989SOL    HW271742   7.501  14.868  14.186
89990SOL     OW71743  12.453  11.984  11.641
89990SOL    HW171744  12.406  11.932  11.706
89990SOL    HW271745  12.538  11.941  11.631
89991SOL     OW71746   2.732  12.378   2.580
89991SOL    HW171747   2.795  12.314   2.547
89991SOL    HW271748   2.725  12.443   2.510
89992SOL     OW71749   1.910  12.866  13.512
89992SOL    HW171750   1.883  12.856  13.421
89992SOL    HW271751   2.002  12.893  13.507
89993SOL     OW71752  10.769   9.865  13.412
89993SOL    HW171753  10.832   9.937  13.413
89993SOL    HW271754  10.686   9.906  13.437
89994SOL     OW71755   5.185  11.145   2.516
89994SOL    HW171756   5.170  11.230   2.557
89994SOL    HW271757   5.278  11.128   2.531
89995SOL     OW71758   8.442  10.155  12.024
89995SOL    HW171759   8.401  10.099  11.958
89995SOL    HW271760   8.520  10.190  11.980
89996SOL     OW71761  14.630   2.408   0.606
89996SOL    HW171762  14.547   2.385   0.649
89996SOL    HW271763  14.683   2.329   0.614
89997SOL     OW71764   6.002   1.748   0.019
89997SOL    HW171765   5.955   1.670   0.048
89997SOL    HW271766   6.059   1.771   0.093
89998SOL     OW71767   7.530  12.233  11.032
89998SOL    HW171768   7.458  12.294  11.012
89998SOL    HW271769   7.487  12.159  11.074
89999SOL     OW71770   0.218   9.251   9.884
89999SOL    HW171771   0.193   9.239   9.975
89999SOL    HW271772   0.150   9.204   9.835
90000SOL     OW71773  11.579   4.617  14.830
90000SOL    HW171774  11.513   4.679  14.800
90000SOL    HW271775  11.553   4.533  14.792
90001SOL     OW71776   8.227   4.347  11.656
90001SOL    HW171777   8.200   4.435  11.680
90001SOL    HW271778   8.250   4.352  11.564
90002SOL     OW71779   8.029   2.493   9.387
90002SOL    HW171780   7.987   2.549   9.452
90002SOL    HW271781   7.962   2.480   9.320
90003SOL     OW71782   2.356  10.042  11.830
90003SOL    HW171783   2.360  10.096  11.751
90003SOL    HW271784   2.448  10.032  11.857
90004SOL     OW71785  12.623   9.509  10.365
90004SOL    HW171786  12.685   9.455  10.316
90004SOL    HW271787  12.674   9.584  10.394
90005SOL     OW71788   5.661   2.681  12.045
90005SOL    HW171789   5.680   2.769  12.079
90005SOL    HW271790   5.585   2.693  11.989
90006SOL     OW71791   4.135  12.456  10.266
90006SOL    HW171792   4.170  12.541  10.294
90006SOL    HW271793   4.069  12.479  10.200
90007SOL     OW71794  12.507   4.946   6.028
90007SOL    HW171795  12.543   4.858   6.025
90007SOL    HW271796  12.536   4.987   5.947
90008SOL     OW71797   2.796   1.147   9.735
90008SOL    HW171798   2.789   1.238   9.766
90008SOL    HW271799   2.879   1.116   9.769
90009SOL     OW71800   2.414  10.700  13.681
90009SOL    HW171801   2.429  10.728  13.591
90009SOL    HW271802   2.450  10.611  13.685
90010SOL     OW71803  13.027   1.927  10.319
90010SOL    HW171804  13.106   1.910  10.370
90010SOL    HW271805  12.970   1.852  10.338
90011SOL     OW71806   4.744   2.041   5.285
90011SOL    HW171807   4.815   1.995   5.239
90011SOL    HW271808   4.772   2.133   5.286
90012SOL     OW71809   6.666   3.069  12.247
90012SOL    HW171810   6.647   3.153  12.289
90012SOL    HW271811   6.630   3.078  12.159
90013SOL     OW71812   2.520  10.183  10.082
90013SOL    HW171813   2.562  10.106  10.121
90013SOL    HW271814   2.444  10.200  10.138
90014SOL     OW71815   8.067   9.485   5.092
90014SOL    HW171816   8.105   9.548   5.153
90014SOL    HW271817   8.002   9.536   5.044
90015SOL     OW71818  13.281   3.971   9.594
90015SOL    HW171819  13.216   3.902   9.582
90015SOL    HW271820  13.240   4.049   9.558
90016SOL     OW71821   5.100   7.753   1.150
90016SOL    HW171822   5.182   7.705   1.151
90016SOL    HW271823   5.046   7.709   1.217
90017SOL     OW71824   1.785   3.358   8.382
90017SOL    HW171825   1.724   3.318   8.320
90017SOL    HW271826   1.867   3.364   8.333
90018SOL     OW71827   8.326  11.014   8.570
90018SOL    HW171828   8.238  10.977   8.564
90018SOL    HW271829   8.381  10.953   8.520
90019SOL     OW71830  12.415   7.492   8.960
90019SOL    HW171831  12.391   7.464   9.048
90019SOL    HW271832  12.491   7.549   8.973
90020SOL     OW71833   4.193   6.404   3.497
90020SOL    HW171834   4.206   6.317   3.536
90020SOL    HW271835   4.126   6.444   3.552
90021SOL     OW71836  11.695  13.530  10.058
90021SOL    HW171837  11.786  13.553  10.038
90021SOL    HW271838  11.648  13.614  10.055
90022SOL     OW71839  11.943   4.952   9.979
90022SOL    HW171840  12.023   4.911   9.945
90022SOL    HW271841  11.872   4.895   9.948
90023SOL     OW71842  13.640   9.870   3.083
90023SOL    HW171843  13.592   9.904   3.159
90023SOL    HW271844  13.582   9.888   3.009
90024SOL     OW71845   4.846  11.636  11.673
90024SOL    HW171846   4.837  11.727  11.703
90024SOL    HW271847   4.851  11.643  11.577
90025SOL     OW71848  14.455   5.012   2.489
90025SOL    HW171849  14.377   5.066   2.500
90025SOL    HW271850  14.484   4.994   2.579
90026SOL     OW71851   2.167  10.163   4.329
90026SOL    HW171852   2.145  10.130   4.242
90026SOL    HW271853   2.236  10.105   4.360
90027SOL     OW71854   2.259   9.958   0.571
90027SOL    HW171855   2.220   9.919   0.649
90027SOL    HW271856   2.275   9.884   0.512
90028SOL     OW71857  10.583  12.294  10.029
90028SOL    HW171858  10.593  12.316   9.936
90028SOL    HW271859  10.668  12.315  10.068
90029SOL     OW71860   0.394   4.677   7.773
90029SOL    HW171861   0.438   4.595   7.750
90029SOL    HW271862   0.312   4.650   7.815
90030SOL     OW71863   5.947   0.617  13.993
90030SOL    HW171864   5.882   0.653  13.933
90030SOL    HW271865   6.027   0.610  13.940
90031SOL     OW71866   0.253   0.626   0.252
90031SOL    HW171867   0.246   0.612   0.158
90031SOL    HW271868   0.165   0.650   0.280
90032SOL     OW71869   8.331   3.188   0.626
90032SOL    HW171870   8.406   3.146   0.583
90032SOL    HW271871   8.268   3.202   0.555
90033SOL     OW71872  12.672   0.621   1.030
90033SOL    HW171873  12.701   0.537   1.065
90033SOL    HW271874  12.641   0.601   0.941
90034SOL     OW71875   9.214   4.958  10.278
90034SOL    HW171876   9.187   4.908  10.201
90034SOL    HW271877   9.301   4.924  10.300
90035SOL     OW71878  10.113   3.049  10.486
90035SOL    HW171879  10.071   3.084  10.565
90035SOL    HW271880  10.198   3.018  10.516
90036SOL     OW71881  13.611   8.069   6.521
90036SOL    HW171882  13.653   8.060   6.607
90036SOL    HW271883  13.529   8.020   6.530
90037SOL     OW71884  10.483   2.025   3.038
90037SOL    HW171885  10.409   2.085   3.031
90037SOL    HW271886  10.484   1.978   2.954
90038SOL     OW71887   5.152   9.453   5.040
90038SOL    HW171888   5.058   9.437   5.047
90038SOL    HW271889   5.174   9.431   4.950
90039SOL     OW71890   5.225   0.120   2.542
90039SOL    HW171891   5.200   0.082   2.458
90039SOL    HW271892   5.142   0.141   2.585
90040SOL     OW71893   3.308   7.206   2.482
90040SOL    HW171894   3.261   7.239   2.558
90040SOL    HW271895   3.361   7.279   2.453
90041SOL     OW71896   6.448   9.706   2.555
90041SOL    HW171897   6.438   9.661   2.639
90041SOL    HW271898   6.466   9.635   2.493
90042SOL     OW71899  14.490   0.163   2.598
90042SOL    HW171900  14.522   0.224   2.665
90042SOL    HW271901  14.473   0.218   2.522
90043SOL     OW71902   5.790  11.370   3.584
90043SOL    HW171903   5.727  11.366   3.656
90043SOL    HW271904   5.873  11.343   3.623
90044SOL     OW71905  11.986   2.643   5.017
90044SOL    HW171906  11.987   2.632   4.922
90044SOL    HW271907  11.949   2.729   5.032
90045SOL     OW71908   8.336   0.166  10.243
90045SOL    HW171909   8.320   0.215  10.323
90045SOL    HW271910   8.390   0.224  10.190
90046SOL     OW71911  14.575   1.490  14.845
90046SOL    HW171912  14.574   1.433   0.041
90046SOL    HW271913  14.547   1.575  14.878
90047SOL     OW71914  12.077   0.182   4.516
90047SOL    HW171915  12.103   0.144   4.432
90047SOL    HW271916  11.982   0.176   4.517
90048SOL     OW71917  12.018   6.974   9.140
90048SOL    HW171918  12.055   7.061   9.154
90048SOL    HW271919  12.008   6.938   9.228
90049SOL     OW71920   5.501  12.273   0.816
90049SOL    HW171921   5.577  12.331   0.820
90049SOL    HW271922   5.448  12.298   0.892
90050SOL     OW71923   2.741   4.409   6.739
90050SOL    HW171924   2.749   4.363   6.822
90050SOL    HW271925   2.653   4.385   6.707
90051SOL     OW71926  11.322   0.321  11.523
90051SOL    HW171927  11.264   0.280  11.588
90051SOL    HW271928  11.263   0.352  11.454
90052SOL     OW71929   6.609  10.284   7.901
90052SOL    HW171930   6.649  10.371   7.906
90052SOL    HW271931   6.585  10.274   7.809
90053SOL     OW71932   6.279   5.824   5.945
90053SOL    HW171933   6.275   5.836   6.040
90053SOL    HW271934   6.340   5.751   5.933
90054SOL     OW71935   5.228   9.212   0.139
90054SOL    HW171936   5.212   9.306   0.124
90054SOL    HW271937   5.258   9.207   0.229
90055SOL     OW71938   6.689  12.587   9.338
90055SOL    HW171939   6.725  12.544   9.416
90055SOL    HW271940   6.718  12.532   9.265
90056SOL     OW71941   0.742   1.525   1.405
90056SOL    HW171942   0.684   1.512   1.330
90056SOL    HW271943   0.713   1.607   1.444
90057SOL     OW71944   5.576   9.264   4.902
90057SOL    HW171945   5.524   9.310   4.967
90057SOL    HW271946   5.578   9.322   4.826
90058SOL     OW71947   1.934   2.164   7.098
90058SOL    HW171948   2.029   2.158   7.087
90058SOL    HW271949   1.910   2.084   7.144
90059SOL     OW71950   1.980   4.308  10.324
90059SOL    HW171951   1.896   4.314  10.281
90059SOL    HW271952   1.963   4.253  10.401
90060SOL     OW71953  14.087   4.498  10.345
90060SOL    HW171954  14.164   4.467  10.296
90060SOL    HW271955  14.033   4.541  10.278
90061SOL     OW71956   1.690  12.040   7.558
90061SOL    HW171957   1.709  11.966   7.615
90061SOL    HW271958   1.774  12.065   7.520
90062SOL     OW71959   5.874   1.097   2.902
90062SOL    HW171960   5.920   1.109   2.819
90062SOL    HW271961   5.943   1.068   2.962
90063SOL     OW71962   6.790   5.321   7.625
90063SOL    HW171963   6.874   5.363   7.644
90063SOL    HW271964   6.780   5.327   7.530
90064SOL     OW71965   6.628   2.925   4.779
90064SOL    HW171966   6.640   2.949   4.687
90064SOL    HW271967   6.717   2.927   4.816
90065SOL     OW71968  10.448   2.854   2.103
90065SOL    HW171969  10.525   2.808   2.135
90065SOL    HW271970  10.428   2.918   2.172
90066SOL     OW71971  14.355   3.181  10.731
90066SOL    HW171972  14.300   3.198  10.807
90066SOL    HW271973  14.303   3.210  10.656
90067SOL     OW71974   6.543  10.509   3.952
90067SOL    HW171975   6.569  10.573   3.886
90067SOL    HW271976   6.553  10.556   4.036
90068SOL     OW71977  10.245   9.486   7.620
90068SOL    HW171978  10.220   9.571   7.657
90068SOL    HW271979  10.266   9.504   7.529
90069SOL     OW71980   5.292   5.514  11.022
90069SOL    HW171981   5.287   5.534  11.115
90069SOL    HW271982   5.208   5.546  10.986
90070SOL     OW71983   9.460  11.808  11.756
90070SOL    HW171984   9.501  11.722  11.749
90070SOL    HW271985   9.367  11.789  11.774
90071SOL     OW71986  14.207  14.607   5.777
90071SOL    HW171987  14.171  14.587   5.690
90071SOL    HW271988  14.162  14.548   5.836
90072SOL     OW71989  11.986   0.611  12.857
90072SOL    HW171990  11.904   0.573  12.828
90072SOL    HW271991  12.009   0.674  12.788
90073SOL     OW71992   8.423  12.781   1.683
90073SOL    HW171993   8.426  12.779   1.587
90073SOL    HW271994   8.356  12.846   1.703
90074SOL     OW71995  12.574   0.864   3.563
90074SOL    HW171996  12.551   0.825   3.647
90074SOL    HW271997  12.500   0.847   3.506
90075SOL     OW71998   7.729   5.883  11.977
90075SOL    HW171999   7.798   5.903  11.913
90075SOL    HW272000   7.665   5.953  11.965
90076SOL     OW72001  14.667   5.718   7.254
90076SOL    HW172002  14.650   5.690   7.344
90076SOL    HW272003  14.644   5.641   7.201
90077SOL     OW72004   6.797  14.487  10.233
90077SOL    HW172005   6.719  14.503  10.179
90077SOL    HW272006   6.787  14.397  10.263
90078SOL     OW72007   5.387  14.185   6.570
90078SOL    HW172008   5.445  14.238   6.624
90078SOL    HW272009   5.316  14.245   6.545
90079SOL     OW72010   8.331   3.907   5.320
90079SOL    HW172011   8.344   3.823   5.364
90079SOL    HW272012   8.381   3.899   5.239
90080SOL     OW72013   5.860   4.886   4.775
90080SOL    HW172014   5.952   4.861   4.791
90080SOL    HW272015   5.825   4.814   4.722
90081SOL     OW72016   7.175   6.952   7.052
90081SOL    HW172017   7.086   6.988   7.056
90081SOL    HW272018   7.226   7.008   7.111
90082SOL     OW72019  13.130   3.749   3.313
90082SOL    HW172020  13.071   3.733   3.386
90082SOL    HW272021  13.194   3.813   3.346
90083SOL     OW72022   2.604   2.286   2.206
90083SOL    HW172023   2.693   2.291   2.174
90083SOL    HW272024   2.609   2.321   2.295
90084SOL     OW72025   3.455   3.886   7.268
90084SOL    HW172026   3.425   3.810   7.318
90084SOL    HW272027   3.409   3.878   7.184
90085SOL     OW72028   0.580   3.405  13.873
90085SOL    HW172029   0.641   3.358  13.816
90085SOL    HW272030   0.635   3.443  13.941
90086SOL     OW72031   9.998   8.511  12.158
90086SOL    HW172032  10.093   8.521  12.169
90086SOL    HW272033   9.961   8.550  12.238
90087SOL     OW72034   8.164   6.468   9.817
90087SOL    HW172035   8.105   6.542   9.801
90087SOL    HW272036   8.165   6.458   9.912
90088SOL     OW72037  13.794   0.739   6.497
90088SOL    HW172038  13.719   0.778   6.541
90088SOL    HW272039  13.854   0.812   6.481
90089SOL     OW72040   2.558  14.010   7.590
90089SOL    HW172041   2.647  14.046   7.589
90089SOL    HW272042   2.569  13.919   7.617
90090SOL     OW72043   4.648  14.656  10.270
90090SOL    HW172044   4.656  14.565  10.243
90090SOL    HW272045   4.567  14.659  10.321
90091SOL     OW72046  12.249   0.626   4.828
90091SOL    HW172047  12.255   0.625   4.923
90091SOL    HW272048  12.160   0.655   4.810
90092SOL     OW72049  10.976   9.027   9.770
90092SOL    HW172050  11.017   9.109   9.797
90092SOL    HW272051  10.911   9.009   9.838
90093SOL     OW72052   4.493  14.830   8.385
90093SOL    HW172053   4.577  14.873   8.368
90093SOL    HW272054   4.497  14.806   8.478
90094SOL     OW72055  13.733   4.218  14.284
90094SOL    HW172056  13.754   4.157  14.214
90094SOL    HW272057  13.637   4.215  14.290
90095SOL     OW72058  13.584   5.513  11.439
90095SOL    HW172059  13.639   5.570  11.384
90095SOL    HW272060  13.638   5.495  11.516
90096SOL     OW72061  12.380   4.574   2.904
90096SOL    HW172062  12.364   4.548   2.995
90096SOL    HW272063  12.294   4.574   2.864
90097SOL     OW72064  12.455  11.916   8.065
90097SOL    HW172065  12.415  11.978   8.005
90097SOL    HW272066  12.464  11.836   8.015
90098SOL     OW72067  11.068   3.897   8.023
90098SOL    HW172068  11.028   3.984   8.028
90098SOL    HW272069  11.064   3.865   8.113
90099SOL     OW72070   8.145   4.861  12.984
90099SOL    HW172071   8.218   4.900  12.935
90099SOL    HW272072   8.068   4.910  12.953
90100SOL     OW72073  11.056   6.605  10.033
90100SOL    HW172074  11.088   6.537  10.091
90100SOL    HW272075  10.988   6.563   9.981
90101SOL     OW72076  12.869  14.128  14.615
90101SOL    HW172077  12.812  14.053  14.635
90101SOL    HW272078  12.931  14.094  14.551
90102SOL     OW72079   7.526   4.591   0.433
90102SOL    HW172080   7.438   4.583   0.396
90102SOL    HW272081   7.564   4.666   0.389
90103SOL     OW72082  13.715   5.459   4.784
90103SOL    HW172083  13.734   5.408   4.864
90103SOL    HW272084  13.758   5.543   4.799
90104SOL     OW72085   0.476  14.794   2.758
90104SOL    HW172086   0.530  14.745   2.820
90104SOL    HW272087   0.521  14.785   2.674
90105SOL     OW72088  13.514  12.587   1.980
90105SOL    HW172089  13.456  12.600   1.905
90105SOL    HW272090  13.456  12.593   2.057
90106SOL     OW72091   6.605   8.634   0.915
90106SOL    HW172092   6.654   8.716   0.913
90106SOL    HW272093   6.605   8.605   0.824
90107SOL     OW72094   8.671   2.229   7.244
90107SOL    HW172095   8.747   2.276   7.211
90107SOL    HW272096   8.605   2.297   7.258
90108SOL     OW72097  13.469   0.827  11.640
90108SOL    HW172098  13.519   0.908  11.627
90108SOL    HW272099  13.513   0.762  11.585
90109SOL     OW72100   9.325  13.217   0.564
90109SOL    HW172101   9.298  13.246   0.477
90109SOL    HW272102   9.415  13.185   0.552
90110SOL     OW72103  14.639   3.371  14.535
90110SOL    HW172104  14.733   3.366  14.553
90110SOL    HW272105  14.597   3.346  14.617
90111SOL     OW72106  12.138   9.329   2.410
90111SOL    HW172107  12.107   9.250   2.364
90111SOL    HW272108  12.201   9.296   2.474
90112SOL     OW72109  14.869   1.484   3.417
90112SOL    HW172110   0.003   1.436   3.336
90112SOL    HW272111  14.796   1.542   3.396
90113SOL     OW72112  10.567  13.937   2.157
90113SOL    HW172113  10.563  13.896   2.070
90113SOL    HW272114  10.651  13.907   2.193
90114SOL     OW72115   0.816  13.757   7.660
90114SOL    HW172116   0.903  13.718   7.668
90114SOL    HW272117   0.833  13.852   7.660
90115SOL     OW72118   7.519  10.953   5.748
90115SOL    HW172119   7.450  10.892   5.772
90115SOL    HW272120   7.473  11.035   5.731
90116SOL     OW72121  11.158   6.530   1.352
90116SOL    HW172122  11.151   6.440   1.322
90116SOL    HW272123  11.069   6.554   1.380
90117SOL     OW72124   0.339   4.092   0.569
90117SOL    HW172125   0.267   4.067   0.627
90117SOL    HW272126   0.300   4.157   0.510
90118SOL     OW72127   7.758   4.261   3.624
90118SOL    HW172128   7.794   4.223   3.544
90118SOL    HW272129   7.691   4.200   3.652
90119SOL     OW72130  11.381  14.544  14.500
90119SOL    HW172131  11.453  14.547  14.563
90119SOL    HW272132  11.321  14.613  14.529
90120SOL     OW72133  12.839  11.004   6.223
90120SOL    HW172134  12.854  11.081   6.169
90120SOL    HW272135  12.787  10.946   6.168
90121SOL     OW72136   8.347  10.602   6.296
90121SOL    HW172137   8.350  10.698   6.287
90121SOL    HW272138   8.332  10.571   6.207
90122SOL     OW72139  12.316  12.274   1.297
90122SOL    HW172140  12.342  12.333   1.367
90122SOL    HW272141  12.222  12.291   1.285
90123SOL     OW72142  14.362   4.961   5.741
90123SOL    HW172143  14.282   4.960   5.688
90123SOL    HW272144  14.433   4.965   5.676
90124SOL     OW72145  12.109  11.485   7.923
90124SOL    HW172146  12.182  11.428   7.900
90124SOL    HW272147  12.035  11.425   7.936
90125SOL     OW72148  11.804  10.347   3.594
90125SOL    HW172149  11.767  10.286   3.531
90125SOL    HW272150  11.757  10.329   3.676
90126SOL     OW72151  14.696   3.912  10.034
90126SOL    HW172152  14.616   3.862  10.020
90126SOL    HW272153  14.670   3.985  10.091
90127SOL     OW72154  14.530   5.773   0.597
90127SOL    HW172155  14.533   5.748   0.690
90127SOL    HW272156  14.499   5.694   0.553
90128SOL     OW72157  12.335   3.019   1.228
90128SOL    HW172158  12.314   3.042   1.138
90128SOL    HW272159  12.305   2.928   1.237
90129SOL     OW72160   4.431  12.215  11.111
90129SOL    HW172161   4.495  12.283  11.088
90129SOL    HW272162   4.399  12.183  11.027
90130SOL     OW72163   2.315  13.667   3.763
90130SOL    HW172164   2.372  13.717   3.823
90130SOL    HW272165   2.371  13.597   3.730
90131SOL     OW72166  14.803  14.258   3.690
90131SOL    HW172167  14.854  14.240   3.769
90131SOL    HW272168  14.789  14.353   3.691
90132SOL     OW72169   2.106  14.274   0.194
90132SOL    HW172170   2.096  14.369   0.191
90132SOL    HW272171   2.146  14.251   0.110
90133SOL     OW72172   1.325   6.489   9.441
90133SOL    HW172173   1.230   6.500   9.447
90133SOL    HW272174   1.337   6.395   9.426
90134SOL     OW72175   1.524   7.807  14.767
90134SOL    HW172176   1.519   7.758  14.685
90134SOL    HW272177   1.589   7.875  14.750
90135SOL     OW72178   1.873  14.549  14.100
90135SOL    HW172179   1.861  14.583  14.012
90135SOL    HW272180   1.818  14.471  14.104
90136SOL     OW72181   0.879  10.816   5.712
90136SOL    HW172182   0.801  10.773   5.748
90136SOL    HW272183   0.950  10.786   5.769
90137SOL     OW72184   5.363  14.363   9.717
90137SOL    HW172185   5.408  14.279   9.705
90137SOL    HW272186   5.290  14.361   9.656
90138SOL     OW72187  13.639   8.833   5.487
90138SOL    HW172188  13.589   8.776   5.429
90138SOL    HW272189  13.723   8.845   5.441
90139SOL     OW72190   4.543   5.605   8.967
90139SOL    HW172191   4.573   5.618   8.877
90139SOL    HW272192   4.581   5.678   9.016
90140SOL     OW72193   1.385  10.234   6.609
90140SOL    HW172194   1.324  10.214   6.680
90140SOL    HW272195   1.403  10.150   6.567
90141SOL     OW72196   1.995   6.941   6.223
90141SOL    HW172197   2.041   6.895   6.153
90141SOL    HW272198   1.916   6.974   6.182
90142SOL     OW72199  10.698  12.061   8.149
90142SOL    HW172200  10.653  11.979   8.169
90142SOL    HW272201  10.664  12.087   8.064
90143SOL     OW72202   2.733   3.269  14.833
90143SOL    HW172203   2.681   3.346  14.813
90143SOL    HW272204   2.755   3.278   0.045
90144SOL     OW72205   1.924  10.101   5.498
90144SOL    HW172206   1.946  10.050   5.420
90144SOL    HW272207   1.927  10.037   5.569
90145SOL     OW72208  12.688   6.087   5.655
90145SOL    HW172209  12.735   6.085   5.738
90145SOL    HW272210  12.756   6.081   5.588
90146SOL     OW72211   2.825   3.334   6.995
90146SOL    HW172212   2.894   3.373   6.942
90146SOL    HW272213   2.865   3.322   7.081
90147SOL     OW72214  12.499   2.946   4.444
90147SOL    HW172215  12.496   2.981   4.355
90147SOL    HW272216  12.433   2.997   4.492
90148SOL     OW72217  12.488   3.268  10.830
90148SOL    HW172218  12.407   3.319  10.826
90148SOL    HW272219  12.496   3.244  10.923
90149SOL     OW72220  14.020   5.925  13.541
90149SOL    HW172221  14.064   6.008  13.526
90149SOL    HW272222  14.082   5.859  13.512
90150SOL     OW72223  14.089   7.239   9.619
90150SOL    HW172224  14.065   7.167   9.561
90150SOL    HW272225  14.183   7.251   9.604
90151SOL     OW72226  14.024   5.827  11.410
90151SOL    HW172227  14.099   5.878  11.442
90151SOL    HW272228  14.015   5.855  11.319
90152SOL     OW72229   9.251   7.468   9.144
90152SOL    HW172230   9.279   7.377   9.150
90152SOL    HW272231   9.310   7.515   9.203
90153SOL     OW72232  14.036  12.468   4.970
90153SOL    HW172233  13.973  12.540   4.963
90153SOL    HW272234  14.107  12.492   4.911
90154SOL     OW72235  10.518   8.387   6.920
90154SOL    HW172236  10.432   8.345   6.912
90154SOL    HW272237  10.520   8.452   6.850
90155SOL     OW72238   9.432   5.136   6.994
90155SOL    HW172239   9.393   5.120   7.080
90155SOL    HW272240   9.360   5.168   6.940
90156SOL     OW72241  10.281  14.064  12.689
90156SOL    HW172242  10.300  13.978  12.652
90156SOL    HW272243  10.249  14.116  12.615
90157SOL     OW72244   5.885   6.191   9.737
90157SOL    HW172245   5.809   6.236   9.700
90157SOL    HW272246   5.918   6.137   9.664
90158SOL     OW72247   6.742   9.602   5.832
90158SOL    HW172248   6.685   9.532   5.800
90158SOL    HW272249   6.687   9.651   5.894
90159SOL     OW72250   2.843   9.112   5.189
90159SOL    HW172251   2.868   9.185   5.245
90159SOL    HW272252   2.788   9.057   5.244
90160SOL     OW72253  13.529   9.414   9.388
90160SOL    HW172254  13.504   9.338   9.335
90160SOL    HW272255  13.585   9.466   9.331
90161SOL     OW72256   5.991   1.139   0.156
90161SOL    HW172257   5.918   1.088   0.120
90161SOL    HW272258   6.068   1.085   0.139
90162SOL     OW72259   2.946   1.186   5.424
90162SOL    HW172260   2.997   1.255   5.382
90162SOL    HW272261   2.974   1.188   5.516
90163SOL     OW72262   2.308   9.605   5.574
90163SOL    HW172263   2.318   9.700   5.566
90163SOL    HW272264   2.385   9.576   5.623
90164SOL     OW72265  14.415  10.184   0.658
90164SOL    HW172266  14.496  10.172   0.707
90164SOL    HW272267  14.387  10.274   0.678
90165SOL     OW72268   2.641  14.334   3.054
90165SOL    HW172269   2.590  14.381   2.988
90165SOL    HW272270   2.627  14.383   3.135
90166SOL     OW72271  11.658   8.815   0.013
90166SOL    HW172272  11.574   8.833   0.055
90166SOL    HW272273  11.637   8.808  14.801
90167SOL     OW72274  12.308  10.222  14.205
90167SOL    HW172275  12.269  10.301  14.241
90167SOL    HW272276  12.317  10.240  14.111
90168SOL     OW72277   6.359   2.274  13.696
90168SOL    HW172278   6.272   2.254  13.662
90168SOL    HW272279   6.348   2.278  13.791
90169SOL     OW72280   3.257   3.479   0.303
90169SOL    HW172281   3.177   3.485   0.252
90169SOL    HW272282   3.276   3.385   0.307
90170SOL     OW72283   8.963   2.549   8.454
90170SOL    HW172284   8.873   2.529   8.428
90170SOL    HW272285   9.009   2.465   8.449
90171SOL     OW72286   3.511  12.284   8.815
90171SOL    HW172287   3.585  12.243   8.860
90171SOL    HW272288   3.440  12.222   8.823
90172SOL     OW72289   2.892   4.191   8.979
90172SOL    HW172290   2.885   4.120   8.916
90172SOL    HW272291   2.812   4.185   9.031
90173SOL     OW72292   7.149  13.294  10.895
90173SOL    HW172293   7.109  13.323  10.813
90173SOL    HW272294   7.243  13.300  10.879
90174SOL     OW72295  10.353  12.344  13.286
90174SOL    HW172296  10.369  12.383  13.200
90174SOL    HW272297  10.308  12.262  13.267
90175SOL     OW72298  11.122   5.704   5.855
90175SOL    HW172299  11.210   5.733   5.879
90175SOL    HW272300  11.090   5.656   5.931
90176SOL     OW72301  10.359  10.470   4.856
90176SOL    HW172302  10.298  10.522   4.909
90176SOL    HW272303  10.391  10.402   4.916
90177SOL     OW72304  13.175  11.077  14.879
90177SOL    HW172305  13.211  11.123  14.803
90177SOL    HW272306  13.080  11.086  14.870
90178SOL     OW72307  14.581  14.582  10.822
90178SOL    HW172308  14.504  14.632  10.850
90178SOL    HW272309  14.546  14.519  10.759
90179SOL     OW72310  10.824   4.559   6.158
90179SOL    HW172311  10.813   4.635   6.215
90179SOL    HW272312  10.838   4.486   6.218
90180SOL     OW72313   3.666   1.881   6.296
90180SOL    HW172314   3.719   1.802   6.307
90180SOL    HW272315   3.648   1.911   6.385
90181SOL     OW72316   7.237  11.611  11.099
90181SOL    HW172317   7.172  11.547  11.129
90181SOL    HW272318   7.321  11.565  11.109
90182SOL     OW72319  10.152   6.793  11.247
90182SOL    HW172320  10.197   6.715  11.280
90182SOL    HW272321  10.119   6.766  11.161
90183SOL     OW72322   8.163  12.892   5.244
90183SOL    HW172323   8.070  12.889   5.222
90183SOL    HW272324   8.164  12.889   5.340
90184SOL     OW72325   3.306   1.536   3.937
90184SOL    HW172326   3.367   1.462   3.936
90184SOL    HW272327   3.337   1.594   3.868
90185SOL     OW72328  10.504  11.374  13.719
90185SOL    HW172329  10.449  11.314  13.670
90185SOL    HW272330  10.448  11.406  13.789
90186SOL     OW72331   0.655   6.494   0.793
90186SOL    HW172332   0.704   6.544   0.858
90186SOL    HW272333   0.578   6.547   0.774
90187SOL     OW72334  11.754  14.067   5.834
90187SOL    HW172335  11.736  13.986   5.787
90187SOL    HW272336  11.670  14.113   5.836
90188SOL     OW72337   1.042   9.542   2.235
90188SOL    HW172338   1.120   9.539   2.291
90188SOL    HW272339   0.969   9.546   2.296
90189SOL     OW72340   2.827  12.033  14.784
90189SOL    HW172341   2.866  11.999  14.864
90189SOL    HW272342   2.822  11.958  14.725
90190SOL     OW72343   9.814   0.692  11.056
90190SOL    HW172344   9.857   0.739  10.985
90190SOL    HW272345   9.837   0.741  11.135
90191SOL     OW72346  14.459  10.685  11.129
90191SOL    HW172347  14.478  10.748  11.059
90191SOL    HW272348  14.378  10.717  11.169
90192SOL     OW72349   8.858  14.057   5.264
90192SOL    HW172350   8.783  14.115   5.276
90192SOL    HW272351   8.927  14.095   5.318
90193SOL     OW72352   0.590   3.074   4.892
90193SOL    HW172353   0.538   3.056   4.971
90193SOL    HW272354   0.676   3.099   4.924
90194SOL     OW72355   1.023   6.621  12.199
90194SOL    HW172356   0.999   6.710  12.175
90194SOL    HW272357   1.088   6.631  12.269
90195SOL     OW72358   0.898   1.001  10.436
90195SOL    HW172359   0.934   1.071  10.490
90195SOL    HW272360   0.933   1.017  10.349
90196SOL     OW72361   6.701   9.505  11.373
90196SOL    HW172362   6.622   9.509  11.320
90196SOL    HW272363   6.747   9.427  11.343
90197SOL     OW72364  13.964   9.579   6.883
90197SOL    HW172365  13.990   9.499   6.838
90197SOL    HW272366  13.874   9.562   6.911
90198SOL     OW72367  10.225   8.115   0.140
90198SOL    HW172368  10.141   8.079   0.170
90198SOL    HW272369  10.288   8.046   0.156
90199SOL     OW72370  13.983   2.040   1.456
90199SOL    HW172371  13.914   1.976   1.436
90199SOL    HW272372  13.938   2.125   1.453
90200SOL     OW72373   8.080   5.078   2.263
90200SOL    HW172374   8.014   5.145   2.245
90200SOL    HW272375   8.036   4.995   2.243
90201SOL     OW72376   7.242   3.810   8.743
90201SOL    HW172377   7.278   3.733   8.789
90201SOL    HW272378   7.262   3.794   8.651
90202SOL     OW72379  13.642  11.094  13.032
90202SOL    HW172380  13.719  11.118  12.982
90202SOL    HW272381  13.570  11.096  12.969
90203SOL     OW72382   5.817   0.164   3.456
90203SOL    HW172383   5.815   0.080   3.411
90203SOL    HW272384   5.813   0.143   3.549
90204SOL     OW72385   5.225   6.962  12.675
90204SOL    HW172386   5.170   7.031  12.638
90204SOL    HW272387   5.162   6.897  12.707
90205SOL     OW72388  10.137  14.110   2.525
90205SOL    HW172389  10.155  14.204   2.521
90205SOL    HW272390  10.221  14.068   2.506
90206SOL     OW72391   8.118   0.133   0.502
90206SOL    HW172392   8.161   0.055   0.467
90206SOL    HW272393   8.032   0.102   0.531
90207SOL     OW72394  10.894   1.003   6.400
90207SOL    HW172395  10.929   1.092   6.395
90207SOL    HW272396  10.968   0.947   6.376
90208SOL     OW72397   8.719  11.267   0.337
90208SOL    HW172398   8.773  11.247   0.260
90208SOL    HW272399   8.776  11.322   0.392
90209SOL     OW72400   0.285   8.742   9.746
90209SOL    HW172401   0.321   8.680   9.810
90209SOL    HW272402   0.212   8.696   9.706
90210SOL     OW72403   3.784   7.400   8.943
90210SOL    HW172404   3.803   7.448   8.863
90210SOL    HW272405   3.735   7.462   8.997
90211SOL     OW72406   0.432   0.219   2.915
90211SOL    HW172407   0.419   0.313   2.928
90211SOL    HW272408   0.524   0.211   2.889
90212SOL     OW72409  11.390   5.424   3.402
90212SOL    HW172410  11.303   5.392   3.382
90212SOL    HW272411  11.391   5.514   3.369
90213SOL     OW72412   5.810   8.227   5.177
90213SOL    HW172413   5.757   8.161   5.133
90213SOL    HW272414   5.898   8.188   5.182
90214SOL     OW72415   4.575   1.789   3.186
90214SOL    HW172416   4.633   1.760   3.257
90214SOL    HW272417   4.579   1.885   3.191
90215SOL     OW72418   9.262   6.996  13.424
90215SOL    HW172419   9.326   6.988  13.495
90215SOL    HW272420   9.211   7.073  13.448
90216SOL     OW72421  12.600  10.264   9.183
90216SOL    HW172422  12.585  10.190   9.124
90216SOL    HW272423  12.635  10.333   9.127
90217SOL     OW72424   7.472   2.389  12.209
90217SOL    HW172425   7.553   2.339  12.220
90217SOL    HW272426   7.424   2.342  12.141
90218SOL     OW72427   3.502  11.031   7.592
90218SOL    HW172428   3.547  11.111   7.619
90218SOL    HW272429   3.420  11.060   7.553
90219SOL     OW72430  13.478  10.096   7.807
90219SOL    HW172431  13.402  10.121   7.860
90219SOL    HW272432  13.498  10.175   7.756
90220SOL     OW72433   8.335  10.069   8.279
90220SOL    HW172434   8.419  10.046   8.241
90220SOL    HW272435   8.300   9.986   8.312
90221SOL     OW72436  10.355   6.756   7.201
90221SOL    HW172437  10.303   6.688   7.245
90221SOL    HW272438  10.443   6.746   7.238
90222SOL     OW72439   0.322  12.630   7.842
90222SOL    HW172440   0.283  12.605   7.758
90222SOL    HW272441   0.269  12.586   7.908
90223SOL     OW72442  10.605  12.563   3.435
90223SOL    HW172443  10.577  12.611   3.514
90223SOL    HW272444  10.579  12.620   3.362
90224SOL     OW72445   3.022   4.497   1.673
90224SOL    HW172446   3.074   4.577   1.683
90224SOL    HW272447   3.052   4.440   1.744
90225SOL     OW72448  13.432  11.749   9.192
90225SOL    HW172449  13.428  11.689   9.267
90225SOL    HW272450  13.343  11.787   9.188
90226SOL     OW72451  10.980   5.629   0.167
90226SOL    HW172452  11.013   5.545   0.197
90226SOL    HW272453  10.975   5.683   0.246
90227SOL     OW72454  10.786   4.317   6.693
90227SOL    HW172455  10.859   4.353   6.641
90227SOL    HW272456  10.796   4.358   6.779
90228SOL     OW72457   4.666  10.155   4.967
90228SOL    HW172458   4.742  10.213   4.958
90228SOL    HW272459   4.673  10.121   5.057
90229SOL     OW72460   1.917  12.622  13.846
90229SOL    HW172461   1.880  12.601  13.760
90229SOL    HW272462   1.897  12.545  13.900
90230SOL     OW72463   3.866   6.083   3.133
90230SOL    HW172464   3.796   6.041   3.082
90230SOL    HW272465   3.820   6.146   3.188
90231SOL     OW72466   0.268  11.704  13.284
90231SOL    HW172467   0.297  11.621  13.247
90231SOL    HW272468   0.329  11.769  13.248
90232SOL     OW72469   7.006   6.855  13.113
90232SOL    HW172470   6.914   6.863  13.088
90232SOL    HW272471   7.007   6.872  13.207
90233SOL     OW72472   9.895   9.594   2.724
90233SOL    HW172473   9.833   9.595   2.798
90233SOL    HW272474   9.845   9.631   2.652
90234SOL     OW72475  11.392   1.721  13.086
90234SOL    HW172476  11.427   1.665  13.016
90234SOL    HW272477  11.297   1.713  13.078
90235SOL     OW72478   0.005   0.987   5.116
90235SOL    HW172479   0.070   0.981   5.186
90235SOL    HW272480  14.874   0.897   5.087
90236SOL     OW72481   0.682   0.859  14.744
90236SOL    HW172482   0.777   0.858  14.735
90236SOL    HW272483   0.651   0.804  14.672
90237SOL     OW72484   2.994  12.204   0.466
90237SOL    HW172485   3.033  12.230   0.382
90237SOL    HW272486   3.069  12.194   0.525
90238SOL     OW72487  11.506   7.358   6.911
90238SOL    HW172488  11.503   7.439   6.861
90238SOL    HW272489  11.525   7.387   7.001
90239SOL     OW72490   5.099   8.382  10.772
90239SOL    HW172491   5.013   8.340  10.775
90239SOL    HW272492   5.139   8.361  10.857
90240SOL     OW72493   0.106   5.218   7.067
90240SOL    HW172494   0.141   5.130   7.054
90240SOL    HW272495   0.014   5.212   7.043
90241SOL     OW72496  12.665   6.645   3.940
90241SOL    HW172497  12.629   6.615   3.857
90241SOL    HW272498  12.594   6.695   3.981
90242SOL     OW72499   6.181  12.174   3.759
90242SOL    HW172500   6.184  12.268   3.777
90242SOL    HW272501   6.244  12.136   3.819
90243SOL     OW72502  10.973  10.445   4.919
90243SOL    HW172503  11.043  10.448   4.984
90243SOL    HW272504  10.939  10.356   4.924
90244SOL     OW72505   7.227   4.104   4.245
90244SOL    HW172506   7.227   4.122   4.151
90244SOL    HW272507   7.184   4.180   4.284
90245SOL     OW72508  13.193  12.047   6.400
90245SOL    HW172509  13.129  12.087   6.459
90245SOL    HW272510  13.216  11.964   6.442
90246SOL     OW72511   2.581   7.950  13.142
90246SOL    HW172512   2.653   7.904  13.099
90246SOL    HW272513   2.544   8.005  13.073
90247SOL     OW72514   5.787  10.315   2.613
90247SOL    HW172515   5.809  10.403   2.646
90247SOL    HW272516   5.791  10.324   2.518
90248SOL     OW72517   1.150  13.193  10.197
90248SOL    HW172518   1.152  13.242  10.280
90248SOL    HW272519   1.190  13.252  10.134
90249SOL     OW72520  11.306   4.801  12.186
90249SOL    HW172521  11.373   4.859  12.223
90249SOL    HW272522  11.270   4.850  12.112
90250SOL     OW72523  13.907   4.567   0.780
90250SOL    HW172524  13.976   4.634   0.784
90250SOL    HW272525  13.889   4.547   0.872
90251SOL     OW72526   6.593  10.668  10.633
90251SOL    HW172527   6.601  10.654  10.727
90251SOL    HW272528   6.674  10.630  10.597
90252SOL     OW72529   8.390   6.525   0.799
90252SOL    HW172530   8.329   6.554   0.867
90252SOL    HW272531   8.441   6.604   0.778
90253SOL     OW72532   2.427   7.836   5.806
90253SOL    HW172533   2.450   7.852   5.897
90253SOL    HW272534   2.499   7.874   5.755
90254SOL     OW72535   3.884  10.634   5.566
90254SOL    HW172536   3.874  10.544   5.535
90254SOL    HW272537   3.968  10.634   5.613
90255SOL     OW72538  13.519   4.431   1.034
90255SOL    HW172539  13.537   4.513   0.987
90255SOL    HW272540  13.437   4.448   1.079
90256SOL     OW72541  10.566   5.473  12.114
90256SOL    HW172542  10.512   5.404  12.152
90256SOL    HW272543  10.651   5.464  12.157
90257SOL     OW72544   1.709   3.487   3.224
90257SOL    HW172545   1.741   3.577   3.227
90257SOL    HW272546   1.677   3.470   3.312
90258SOL     OW72547  13.882   9.217   8.944
90258SOL    HW172548  13.805   9.255   8.901
90258SOL    HW272549  13.874   9.244   9.035
90259SOL     OW72550   6.534  13.084  14.733
90259SOL    HW172551   6.475  13.054  14.803
90259SOL    HW272552   6.478  13.091  14.656
90260SOL     OW72553  13.695   7.621  12.324
90260SOL    HW172554  13.689   7.547  12.385
90260SOL    HW272555  13.618   7.675  12.345
90261SOL     OW72556  11.235  10.965   0.880
90261SOL    HW172557  11.251  10.967   0.974
90261SOL    HW272558  11.194  11.049   0.861
90262SOL     OW72559  10.003   8.622   7.825
90262SOL    HW172560   9.951   8.560   7.773
90262SOL    HW272561   9.997   8.588   7.914
90263SOL     OW72562   5.500   7.244   4.567
90263SOL    HW172563   5.509   7.158   4.608
90263SOL    HW272564   5.515   7.307   4.638
90264SOL     OW72565   9.763   6.832   3.048
90264SOL    HW172566   9.792   6.827   3.139
90264SOL    HW272567   9.718   6.917   3.042
90265SOL     OW72568   2.048  11.925   6.395
90265SOL    HW172569   2.087  11.876   6.323
90265SOL    HW272570   2.115  11.989   6.419
90266SOL     OW72571   5.209   6.091   2.309
90266SOL    HW172572   5.205   6.043   2.227
90266SOL    HW272573   5.244   6.028   2.372
90267SOL     OW72574  12.680  14.500   1.488
90267SOL    HW172575  12.704  14.591   1.510
90267SOL    HW272576  12.674  14.500   1.393
90268SOL     OW72577   8.586   3.959   8.599
90268SOL    HW172578   8.497   3.929   8.613
90268SOL    HW272579   8.636   3.879   8.583
90269SOL     OW72580  11.867  12.838   3.398
90269SOL    HW172581  11.959  12.841   3.424
90269SOL    HW272582  11.853  12.747   3.371
90270SOL     OW72583   0.355   3.441  12.015
90270SOL    HW172584   0.371   3.398  12.099
90270SOL    HW272585   0.440   3.442  11.971
90271SOL     OW72586   7.393   1.693   9.908
90271SOL    HW172587   7.450   1.742   9.848
90271SOL    HW272588   7.308   1.690   9.864
90272SOL     OW72589   2.245  10.031  14.477
90272SOL    HW172590   2.150  10.030  14.484
90272SOL    HW272591   2.267  10.123  14.466
90273SOL     OW72592   2.743   8.627  13.032
90273SOL    HW172593   2.780   8.600  12.947
90273SOL    HW272594   2.818   8.622  13.092
90274SOL     OW72595  12.244   6.135   3.492
90274SOL    HW172596  12.187   6.198   3.448
90274SOL    HW272597  12.226   6.052   3.448
90275SOL     OW72598   9.911   6.160   2.301
90275SOL    HW172599   9.907   6.079   2.250
90275SOL    HW272600   9.988   6.206   2.267
90276SOL     OW72601   7.733  14.784  14.370
90276SOL    HW172602   7.703  14.868  14.337
90276SOL    HW272603   7.653  14.739  14.397
90277SOL     OW72604   6.664   9.193   1.774
90277SOL    HW172605   6.594   9.215   1.712
90277SOL    HW272606   6.657   9.099   1.786
90278SOL     OW72607  14.169   9.778   1.909
90278SOL    HW172608  14.165   9.829   1.828
90278SOL    HW272609  14.119   9.829   1.972
90279SOL     OW72610   6.757  12.498  10.079
90279SOL    HW172611   6.842  12.470  10.113
90279SOL    HW272612   6.693  12.460  10.138
90280SOL     OW72613   1.500   0.039   2.347
90280SOL    HW172614   1.434   0.085   2.294
90280SOL    HW272615   1.559   0.108   2.376
90281SOL     OW72616   3.861   9.649   3.425
90281SOL    HW172617   3.813   9.680   3.502
90281SOL    HW272618   3.923   9.720   3.405
90282SOL     OW72619   1.036   9.778  11.443
90282SOL    HW172620   1.020   9.804  11.533
90282SOL    HW272621   0.978   9.834  11.391
90283SOL     OW72622   4.599  10.395   4.358
90283SOL    HW172623   4.605  10.310   4.314
90283SOL    HW272624   4.528  10.384   4.421
90284SOL     OW72625   6.943   1.689   3.157
90284SOL    HW172626   6.914   1.671   3.247
90284SOL    HW272627   7.031   1.725   3.168
90285SOL     OW72628   5.158  14.287   2.141
90285SOL    HW172629   5.072  14.328   2.140
90285SOL    HW272630   5.183  14.285   2.233
90286SOL     OW72631  10.697   3.882   8.453
90286SOL    HW172632  10.698   3.843   8.366
90286SOL    HW272633  10.772   3.842   8.498
90287SOL     OW72634   8.715  12.832   8.607
90287SOL    HW172635   8.666  12.837   8.524
90287SOL    HW272636   8.802  12.867   8.585
90288SOL     OW72637  11.170   8.609   5.507
90288SOL    HW172638  11.159   8.673   5.577
90288SOL    HW272639  11.153   8.659   5.427
90289SOL     OW72640  13.935  13.517   4.173
90289SOL    HW172641  13.913  13.606   4.199
90289SOL    HW272642  14.031  13.516   4.171
90290SOL     OW72643   5.242   7.772   7.634
90290SOL    HW172644   5.281   7.772   7.721
90290SOL    HW272645   5.263   7.858   7.598
90291SOL     OW72646   1.418  11.616  14.091
90291SOL    HW172647   1.340  11.631  14.038
90291SOL    HW272648   1.487  11.600  14.027
90292SOL     OW72649  13.713   4.212   7.340
90292SOL    HW172650  13.786   4.153   7.321
90292SOL    HW272651  13.639   4.174   7.293
90293SOL     OW72652  13.056   6.969  11.541
90293SOL    HW172653  13.147   6.954  11.568
90293SOL    HW272654  13.044   7.064  11.547
90294SOL     OW72655   3.807   3.980  14.054
90294SOL    HW172656   3.860   3.917  14.005
90294SOL    HW272657   3.871   4.039  14.093
90295SOL     OW72658   2.737   3.497   6.293
90295SOL    HW172659   2.716   3.454   6.376
90295SOL    HW272660   2.653   3.506   6.248
90296SOL     OW72661  13.457   4.104  13.622
90296SOL    HW172662  13.512   4.182  13.628
90296SOL    HW272663  13.387   4.129  13.562
90297SOL     OW72664   9.453   7.630   1.972
90297SOL    HW172665   9.369   7.646   2.015
90297SOL    HW272666   9.484   7.548   2.010
90298SOL     OW72667   8.596  11.601   0.802
90298SOL    HW172668   8.576  11.623   0.711
90298SOL    HW272669   8.558  11.513   0.814
90299SOL     OW72670   7.195  13.625   4.218
90299SOL    HW172671   7.186  13.530   4.219
90299SOL    HW272672   7.256  13.643   4.146
90300SOL     OW72673  11.349  12.272   9.558
90300SOL    HW172674  11.333  12.356   9.602
90300SOL    HW272675  11.442  12.253   9.576
90301SOL     OW72676   5.893   1.698   7.874
90301SOL    HW172677   5.823   1.685   7.939
90301SOL    HW272678   5.970   1.720   7.926
90302SOL     OW72679  11.518   3.940   6.968
90302SOL    HW172680  11.602   3.924   6.925
90302SOL    HW272681  11.493   3.856   7.005
90303SOL     OW72682   0.148   3.166   1.253
90303SOL    HW172683   0.122   3.240   1.199
90303SOL    HW272684   0.244   3.166   1.251
90304SOL     OW72685   1.663   5.267   1.709
90304SOL    HW172686   1.618   5.198   1.660
90304SOL    HW272687   1.649   5.243   1.801
90305SOL     OW72688   5.054  11.779  13.459
90305SOL    HW172689   5.136  11.730  13.469
90305SOL    HW272690   5.006  11.760  13.540
90306SOL     OW72691   4.935   8.129   4.159
90306SOL    HW172692   4.989   8.056   4.190
90306SOL    HW272693   4.905   8.172   4.239
90307SOL     OW72694   0.703  13.202   6.587
90307SOL    HW172695   0.691  13.108   6.600
90307SOL    HW272696   0.720  13.236   6.675
90308SOL     OW72697   6.094   2.236   3.167
90308SOL    HW172698   6.074   2.326   3.191
90308SOL    HW272699   6.021   2.185   3.200
90309SOL     OW72700   4.842  14.788   3.567
90309SOL    HW172701   4.864  14.878   3.592
90309SOL    HW272702   4.785  14.756   3.637
90310SOL     OW72703   1.677   4.622   9.321
90310SOL    HW172704   1.585   4.629   9.299
90310SOL    HW272705   1.678   4.592   9.412
90311SOL     OW72706   0.656  12.906   7.477
90311SOL    HW172707   0.633  12.877   7.389
90311SOL    HW272708   0.584  12.873   7.532
90312SOL     OW72709   9.850  11.291   9.788
90312SOL    HW172710   9.825  11.377   9.754
90312SOL    HW272711   9.819  11.229   9.722
90313SOL     OW72712  14.525   6.543   9.070
90313SOL    HW172713  14.441   6.501   9.085
90313SOL    HW272714  14.589   6.483   9.108
90314SOL     OW72715   5.254   2.494  14.837
90314SOL    HW172716   5.307   2.569  14.812
90314SOL    HW272717   5.285   2.422  14.783
90315SOL     OW72718   3.311  14.350  14.863
90315SOL    HW172719   3.377  14.415   0.008
90315SOL    HW272720   3.313  14.284   0.050
90316SOL     OW72721   1.612   6.139   8.368
90316SOL    HW172722   1.518   6.141   8.386
90316SOL    HW272723   1.636   6.046   8.377
90317SOL     OW72724   3.554   2.771   7.311
90317SOL    HW172725   3.466   2.805   7.324
90317SOL    HW272726   3.568   2.712   7.385
90318SOL     OW72727   2.290  13.385  12.635
90318SOL    HW172728   2.218  13.388  12.572
90318SOL    HW272729   2.368  13.407  12.585
90319SOL     OW72730  14.670   1.668  14.518
90319SOL    HW172731  14.655   1.576  14.542
90319SOL    HW272732  14.583   1.708  14.522
90320SOL     OW72733  13.819   0.188  14.632
90320SOL    HW172734  13.763   0.135  14.690
90320SOL    HW272735  13.801   0.278  14.657
90321SOL     OW72736   3.689  12.173   6.729
90321SOL    HW172737   3.606  12.209   6.696
90321SOL    HW272738   3.671  12.080   6.742
90322SOL     OW72739   7.346  11.565   3.240
90322SOL    HW172740   7.380  11.649   3.271
90322SOL    HW272741   7.400  11.499   3.285
90323SOL     OW72742  12.739  10.411   5.194
90323SOL    HW172743  12.694  10.386   5.274
90323SOL    HW272744  12.697  10.359   5.125
90324SOL     OW72745   9.259  10.885  13.537
90324SOL    HW172746   9.268  10.944  13.462
90324SOL    HW272747   9.242  10.799  13.497
90325SOL     OW72748   8.043   2.456   7.801
90325SOL    HW172749   8.107   2.475   7.868
90325SOL    HW272750   8.078   2.379   7.755
90326SOL     OW72751   8.859   4.888  11.362
90326SOL    HW172752   8.916   4.861  11.434
90326SOL    HW272753   8.896   4.845  11.285
90327SOL     OW72754  14.092  12.189   2.617
90327SOL    HW172755  14.121  12.246   2.689
90327SOL    HW272756  14.156  12.204   2.547
90328SOL     OW72757   9.273   9.311   6.068
90328SOL    HW172758   9.350   9.324   6.013
90328SOL    HW272759   9.308   9.303   6.157
90329SOL     OW72760   5.114   4.087   4.011
90329SOL    HW172761   5.019   4.087   4.007
90329SOL    HW272762   5.142   4.053   3.926
90330SOL     OW72763   4.504   7.864  13.102
90330SOL    HW172764   4.454   7.834  13.026
90330SOL    HW272765   4.536   7.950  13.076
90331SOL     OW72766  10.370  11.643   2.380
90331SOL    HW172767  10.370  11.738   2.369
90331SOL    HW272768  10.453  11.624   2.422
90332SOL     OW72769  10.671   7.785   4.395
90332SOL    HW172770  10.595   7.732   4.418
90332SOL    HW272771  10.634   7.868   4.365
90333SOL     OW72772  11.621  11.498  14.176
90333SOL    HW172773  11.683  11.429  14.150
90333SOL    HW272774  11.675  11.577  14.182
90334SOL     OW72775   8.101   7.443   0.144
90334SOL    HW172776   8.111   7.539   0.143
90334SOL    HW272777   8.191   7.411   0.155
90335SOL     OW72778  10.686   3.574  12.445
90335SOL    HW172779  10.682   3.557  12.351
90335SOL    HW272780  10.690   3.669  12.452
90336SOL     OW72781   6.760   5.756   0.380
90336SOL    HW172782   6.822   5.688   0.406
90336SOL    HW272783   6.764   5.756   0.284
90337SOL     OW72784   6.500   6.459  10.800
90337SOL    HW172785   6.460   6.401  10.736
90337SOL    HW272786   6.463   6.545  10.780
90338SOL     OW72787  10.814  14.768  13.663
90338SOL    HW172788  10.903  14.734  13.653
90338SOL    HW272789  10.759  14.690  13.670
90339SOL     OW72790   3.653   0.083   2.947
90339SOL    HW172791   3.606   0.160   2.916
90339SOL    HW272792   3.596   0.009   2.928
90340SOL     OW72793   3.204  14.772   2.490
90340SOL    HW172794   3.248  14.688   2.481
90340SOL    HW272795   3.224  14.818   2.408
90341SOL     OW72796   3.253   9.608   9.186
90341SOL    HW172797   3.316   9.590   9.117
90341SOL    HW272798   3.228   9.522   9.220
90342SOL     OW72799   8.059  13.360  10.929
90342SOL    HW172800   7.985  13.305  10.904
90342SOL    HW272801   8.105  13.378  10.847
90343SOL     OW72802  12.074   4.716  12.327
90343SOL    HW172803  12.094   4.801  12.288
90343SOL    HW272804  12.091   4.653  12.256
90344SOL     OW72805   6.564   5.164   7.665
90344SOL    HW172806   6.493   5.194   7.722
90344SOL    HW272807   6.629   5.234   7.669
90345SOL     OW72808  10.047   4.229   5.147
90345SOL    HW172809  10.004   4.282   5.214
90345SOL    HW272810   9.998   4.248   5.067
90346SOL     OW72811   7.568  14.224  12.679
90346SOL    HW172812   7.554  14.150  12.621
90346SOL    HW272813   7.629  14.281  12.631
90347SOL     OW72814  14.714   5.026  13.283
90347SOL    HW172815  14.722   5.066  13.370
90347SOL    HW272816  14.658   5.086  13.234
90348SOL     OW72817   2.325  10.245  10.564
90348SOL    HW172818   2.315  10.328  10.518
90348SOL    HW272819   2.281  10.258  10.648
90349SOL     OW72820   6.561   2.924   6.890
90349SOL    HW172821   6.544   2.834   6.860
90349SOL    HW272822   6.477   2.968   6.880
90350SOL     OW72823  14.432   5.081  12.933
90350SOL    HW172824  14.401   4.997  12.899
90350SOL    HW272825  14.430   5.140  12.858
90351SOL     OW72826   5.600   3.797   0.301
90351SOL    HW172827   5.514   3.770   0.332
90351SOL    HW272828   5.634   3.722   0.253
90352SOL     OW72829   9.350   8.407   5.281
90352SOL    HW172830   9.434   8.445   5.308
90352SOL    HW272831   9.294   8.414   5.358
90353SOL     OW72832   1.496  12.654   1.754
90353SOL    HW172833   1.410  12.694   1.762
90353SOL    HW272834   1.502  12.629   1.662
90354SOL     OW72835   3.773   5.398   3.287
90354SOL    HW172836   3.853   5.375   3.333
90354SOL    HW272837   3.715   5.432   3.356
90355SOL     OW72838  11.093  11.895   7.488
90355SOL    HW172839  11.003  11.903   7.458
90355SOL    HW272840  11.120  11.985   7.508
90356SOL     OW72841   0.336   4.243  13.152
90356SOL    HW172842   0.324   4.155  13.188
90356SOL    HW272843   0.353   4.297  13.229
90357SOL     OW72844   1.301  12.780   4.922
90357SOL    HW172845   1.374  12.829   4.959
90357SOL    HW272846   1.279  12.827   4.841
90358SOL     OW72847   6.101   7.403   8.553
90358SOL    HW172848   6.010   7.374   8.549
90358SOL    HW272849   6.096   7.497   8.574
90359SOL     OW72850   1.002   6.570   1.170
90359SOL    HW172851   0.997   6.521   1.253
90359SOL    HW272852   1.025   6.659   1.197
90360SOL     OW72853  14.586   0.824   6.426
90360SOL    HW172854  14.620   0.913   6.420
90360SOL    HW272855  14.652   0.770   6.382
90361SOL     OW72856  10.951  14.179   7.320
90361SOL    HW172857  10.994  14.254   7.279
90361SOL    HW272858  10.971  14.105   7.263
90362SOL     OW72859   1.347   5.863   9.016
90362SOL    HW172860   1.283   5.835   8.950
90362SOL    HW272861   1.354   5.789   9.076
90363SOL     OW72862  11.429  12.286   1.795
90363SOL    HW172863  11.415  12.369   1.841
90363SOL    HW272864  11.443  12.311   1.704
90364SOL     OW72865  10.611   3.574   8.524
90364SOL    HW172866  10.552   3.501   8.507
90364SOL    HW272867  10.641   3.602   8.437
90365SOL     OW72868  11.856  10.025   8.660
90365SOL    HW172869  11.852   9.946   8.607
90365SOL    HW272870  11.782  10.018   8.719
90366SOL     OW72871   4.469   0.686   2.018
90366SOL    HW172872   4.422   0.607   2.045
90366SOL    HW272873   4.507   0.663   1.934
90367SOL     OW72874   1.621   9.021   0.287
90367SOL    HW172875   1.647   9.091   0.348
90367SOL    HW272876   1.685   9.027   0.216
90368SOL     OW72877   6.049   4.798   7.991
90368SOL    HW172878   6.003   4.881   7.992
90368SOL    HW272879   6.097   4.798   7.907
90369SOL     OW72880   2.990  11.927  13.720
90369SOL    HW172881   2.960  11.926  13.630
90369SOL    HW272882   3.085  11.941  13.714
90370SOL     OW72883   6.435   0.796   6.121
90370SOL    HW172884   6.398   0.733   6.059
90370SOL    HW272885   6.506   0.838   6.073
90371SOL     OW72886  13.886   6.925   2.485
90371SOL    HW172887  13.808   6.912   2.539
90371SOL    HW272888  13.853   6.970   2.407
90372SOL     OW72889   6.228  12.679   7.630
90372SOL    HW172890   6.285  12.606   7.607
90372SOL    HW272891   6.288  12.750   7.655
90373SOL     OW72892   2.324   5.752   7.482
90373SOL    HW172893   2.390   5.773   7.549
90373SOL    HW272894   2.257   5.703   7.529
90374SOL     OW72895  14.206   1.051   4.419
90374SOL    HW172896  14.158   1.066   4.500
90374SOL    HW272897  14.271   0.984   4.442
90375SOL     OW72898  13.686   0.932   2.211
90375SOL    HW172899  13.716   0.841   2.206
90375SOL    HW272900  13.754   0.977   2.262
90376SOL     OW72901   9.017   2.515  13.258
90376SOL    HW172902   8.961   2.453  13.212
90376SOL    HW272903   9.090   2.462  13.291
90377SOL     OW72904   7.092  11.257   6.917
90377SOL    HW172905   7.146  11.218   6.986
90377SOL    HW272906   7.071  11.344   6.950
90378SOL     OW72907   4.109  11.290   2.942
90378SOL    HW172908   4.198  11.324   2.933
90378SOL    HW272909   4.068  11.307   2.857
90379SOL     OW72910  12.487   8.491  14.177
90379SOL    HW172911  12.521   8.487  14.266
90379SOL    HW272912  12.393   8.509  14.188
90380SOL     OW72913   4.855   1.248  14.649
90380SOL    HW172914   4.950   1.249  14.664
90380SOL    HW272915   4.845   1.276  14.558
90381SOL     OW72916   2.510  14.119  11.591
90381SOL    HW172917   2.593  14.158  11.617
90381SOL    HW272918   2.468  14.186  11.537
90382SOL     OW72919  11.354   0.546   3.029
90382SOL    HW172920  11.316   0.633   3.035
90382SOL    HW272921  11.308   0.495   3.096
90383SOL     OW72922   4.041  10.902   5.039
90383SOL    HW172923   4.110  10.859   4.990
90383SOL    HW272924   4.085  10.944   5.113
90384SOL     OW72925  11.794   2.132   8.671
90384SOL    HW172926  11.752   2.047   8.661
90384SOL    HW272927  11.723   2.192   8.693
90385SOL     OW72928   8.961  12.575  14.301
90385SOL    HW172929   8.884  12.519  14.288
90385SOL    HW272930   8.927  12.651  14.349
90386SOL     OW72931   2.682  11.261   0.706
90386SOL    HW172932   2.643  11.295   0.786
90386SOL    HW272933   2.775  11.253   0.725
90387SOL     OW72934  12.792   7.925   2.637
90387SOL    HW172935  12.773   7.881   2.720
90387SOL    HW272936  12.882   7.899   2.616
90388SOL     OW72937   4.967   1.364   3.549
90388SOL    HW172938   4.964   1.410   3.633
90388SOL    HW272939   4.985   1.433   3.485
90389SOL     OW72940  14.682  10.373   9.243
90389SOL    HW172941  14.650  10.321   9.317
90389SOL    HW272942  14.603  10.404   9.199
90390SOL     OW72943   5.617   6.778   1.929
90390SOL    HW172944   5.653   6.756   1.843
90390SOL    HW272945   5.522   6.784   1.915
90391SOL     OW72946  11.527   9.364  13.603
90391SOL    HW172947  11.552   9.428  13.669
90391SOL    HW272948  11.469   9.303  13.649
90392SOL     OW72949  14.185  11.164   9.988
90392SOL    HW172950  14.124  11.207  10.048
90392SOL    HW272951  14.268  11.211  10.000
90393SOL     OW72952   6.993   9.244  14.129
90393SOL    HW172953   7.067   9.183  14.138
90393SOL    HW272954   6.939   9.205  14.060
90394SOL     OW72955  10.165  10.880  13.902
90394SOL    HW172956  10.154  10.824  13.979
90394SOL    HW272957  10.148  10.822  13.827
90395SOL     OW72958   0.797   8.276  14.430
90395SOL    HW172959   0.862   8.216  14.466
90395SOL    HW272960   0.806   8.356  14.481
90396SOL     OW72961   7.081   8.634   4.451
90396SOL    HW172962   7.152   8.667   4.397
90396SOL    HW272963   7.117   8.557   4.494
90397SOL     OW72964   4.730   2.016  13.638
90397SOL    HW172965   4.815   2.042  13.673
90397SOL    HW272966   4.743   1.926  13.610
90398SOL     OW72967   2.046   9.365  14.802
90398SOL    HW172968   1.961   9.347  14.762
90398SOL    HW272969   2.110   9.347  14.733
90399SOL     OW72970   2.114  13.392   7.481
90399SOL    HW172971   2.126  13.358   7.570
90399SOL    HW272972   2.107  13.314   7.426
90400SOL     OW72973   3.129   1.403   4.637
90400SOL    HW172974   3.207   1.369   4.592
90400SOL    HW272975   3.163   1.468   4.698
90401SOL     OW72976   4.898  10.512   0.139
90401SOL    HW172977   4.868  10.589   0.187
90401SOL    HW272978   4.911  10.543   0.049
90402SOL     OW72979  11.050  14.015   2.148
90402SOL    HW172980  11.017  14.102   2.171
90402SOL    HW272981  11.080  14.024   2.057
90403SOL     OW72982  10.832  13.752   0.695
90403SOL    HW172983  10.904  13.690   0.688
90403SOL    HW272984  10.767  13.708   0.749
90404SOL     OW72985   1.824   4.169   3.781
90404SOL    HW172986   1.852   4.082   3.751
90404SOL    HW272987   1.818   4.221   3.700
90405SOL     OW72988  14.564  11.271   1.913
90405SOL    HW172989  14.657  11.282   1.892
90405SOL    HW272990  14.529  11.221   1.839
90406SOL     OW72991   2.724   8.272   6.102
90406SOL    HW172992   2.755   8.200   6.156
90406SOL    HW272993   2.768   8.349   6.138
90407SOL     OW72994   6.089  13.464   0.210
90407SOL    HW172995   6.073  13.480   0.303
90407SOL    HW272996   6.166  13.518   0.190
90408SOL     OW72997  13.253   3.380   1.337
90408SOL    HW172998  13.175   3.413   1.383
90408SOL    HW272999  13.324   3.389   1.401
90409SOL     OW73000   3.895   0.793  12.296
90409SOL    HW173001   3.943   0.743  12.230
90409SOL    HW273002   3.901   0.884  12.266
90410SOL     OW73003   2.886  13.782  12.846
90410SOL    HW173004   2.873  13.706  12.789
90410SOL    HW273005   2.944  13.750  12.915
90411SOL     OW73006   3.115   7.918   7.674
90411SOL    HW173007   3.176   7.965   7.617
90411SOL    HW273008   3.139   7.944   7.763
90412SOL     OW73009   5.570   9.626  13.830
90412SOL    HW173010   5.580   9.629  13.735
90412SOL    HW273011   5.559   9.533  13.850
90413SOL     OW73012   4.263   7.003   0.394
90413SOL    HW173013   4.319   7.074   0.362
90413SOL    HW273014   4.219   7.041   0.471
90414SOL     OW73015   7.022   3.369   6.388
90414SOL    HW173016   7.053   3.307   6.455
90414SOL    HW273017   6.977   3.314   6.324
90415SOL     OW73018   6.104   1.167   8.048
90415SOL    HW173019   6.015   1.186   8.076
90415SOL    HW273020   6.132   1.095   8.105
90416SOL     OW73021   5.532   5.321   0.419
90416SOL    HW173022   5.541   5.326   0.514
90416SOL    HW273023   5.441   5.343   0.402
90417SOL     OW73024  11.785  10.505  12.035
90417SOL    HW173025  11.747  10.553  11.962
90417SOL    HW273026  11.799  10.416  12.002
90418SOL     OW73027   5.071   0.177  13.195
90418SOL    HW173028   5.094   0.144  13.109
90418SOL    HW273029   5.046   0.268  13.181
90419SOL     OW73030   2.721   4.996   5.325
90419SOL    HW173031   2.649   4.974   5.384
90419SOL    HW273032   2.717   5.091   5.316
90420SOL     OW73033   7.884   5.322   9.289
90420SOL    HW173034   7.977   5.339   9.304
90420SOL    HW273035   7.839   5.374   9.356
90421SOL     OW73036   5.520   4.227  11.744
90421SOL    HW173037   5.425   4.235  11.737
90421SOL    HW273038   5.548   4.310  11.783
90422SOL     OW73039   9.448   7.484  12.984
90422SOL    HW173040   9.429   7.402  13.029
90422SOL    HW273041   9.402   7.551  13.034
90423SOL     OW73042  11.651   6.165  11.296
90423SOL    HW173043  11.635   6.172  11.391
90423SOL    HW273044  11.580   6.215  11.256
90424SOL     OW73045   9.761   4.825   3.081
90424SOL    HW173046   9.844   4.870   3.096
90424SOL    HW273047   9.695   4.887   3.112
90425SOL     OW73048  12.815  10.925   0.125
90425SOL    HW173049  12.802  10.885   0.039
90425SOL    HW273050  12.815  10.851   0.186
90426SOL     OW73051   8.336  14.402   0.646
90426SOL    HW173052   8.287  14.418   0.726
90426SOL    HW273053   8.403  14.338   0.670
90427SOL     OW73054   3.266   4.002  13.346
90427SOL    HW173055   3.342   4.059  13.354
90427SOL    HW273056   3.298   3.926  13.298
90428SOL     OW73057   5.729   2.716   2.710
90428SOL    HW173058   5.676   2.645   2.674
90428SOL    HW273059   5.807   2.674   2.744
90429SOL     OW73060   0.933  14.529   0.559
90429SOL    HW173061   1.013  14.479   0.572
90429SOL    HW273062   0.944  14.571   0.474
90430SOL     OW73063  10.836   8.661   9.493
90430SOL    HW173064  10.743   8.651   9.511
90430SOL    HW273065  10.842   8.662   9.397
90431SOL     OW73066  10.669   7.359   6.637
90431SOL    HW173067  10.727   7.324   6.570
90431SOL    HW273068  10.639   7.282   6.685
90432SOL     OW73069   0.659   2.964  13.717
90432SOL    HW173070   0.727   2.983  13.781
90432SOL    HW273071   0.661   2.868  13.707
90433SOL     OW73072  13.148  14.638   6.504
90433SOL    HW173073  13.075  14.667   6.558
90433SOL    HW273074  13.181  14.718   6.463
90434SOL     OW73075   3.552   3.630   2.573
90434SOL    HW173076   3.460   3.622   2.598
90434SOL    HW273077   3.562   3.722   2.546
90435SOL     OW73078  12.345  10.097  11.901
90435SOL    HW173079  12.335  10.005  11.926
90435SOL    HW273080  12.370  10.141  11.982
90436SOL     OW73081   0.244   9.105  11.217
90436SOL    HW173082   0.239   9.087  11.123
90436SOL    HW273083   0.318   9.052  11.248
90437SOL     OW73084   1.567  10.761   5.872
90437SOL    HW173085   1.512  10.838   5.857
90437SOL    HW273086   1.630  10.762   5.799
90438SOL     OW73087  12.826   6.692  14.700
90438SOL    HW173088  12.743   6.648  14.718
90438SOL    HW273089  12.861   6.714  14.786
90439SOL     OW73090  12.666   4.161  11.806
90439SOL    HW173091  12.690   4.123  11.891
90439SOL    HW273092  12.721   4.116  11.743
90440SOL     OW73093   7.806  10.614  12.801
90440SOL    HW173094   7.734  10.556  12.774
90440SOL    HW273095   7.788  10.697  12.756
90441SOL     OW73096  13.671   9.255  12.267
90441SOL    HW173097  13.737   9.270  12.335
90441SOL    HW273098  13.713   9.282  12.186
90442SOL     OW73099   1.095   5.593   7.456
90442SOL    HW173100   1.077   5.617   7.547
90442SOL    HW273101   1.123   5.501   7.460
90443SOL     OW73102   6.320   3.407   9.170
90443SOL    HW173103   6.237   3.433   9.131
90443SOL    HW273104   6.383   3.472   9.138
90444SOL     OW73105   8.955   2.802   7.060
90444SOL    HW173106   8.997   2.876   7.103
90444SOL    HW273107   8.973   2.815   6.967
90445SOL     OW73108   2.816  13.924  13.871
90445SOL    HW173109   2.820  14.016  13.897
90445SOL    HW273110   2.726  13.898  13.889
90446SOL     OW73111  11.188   2.240   9.803
90446SOL    HW173112  11.147   2.155   9.816
90446SOL    HW273113  11.127   2.288   9.747
90447SOL     OW73114   9.583  10.114   7.655
90447SOL    HW173115   9.550  10.193   7.613
90447SOL    HW273116   9.554  10.122   7.746
90448SOL     OW73117  10.646   9.382  10.387
90448SOL    HW173118  10.621   9.294  10.360
90448SOL    HW273119  10.735   9.372  10.421
90449SOL     OW73120   6.093   5.008   3.435
90449SOL    HW173121   6.050   5.002   3.521
90449SOL    HW273122   6.139   5.091   3.437
90450SOL     OW73123  10.098   9.672   3.592
90450SOL    HW173124  10.155   9.731   3.641
90450SOL    HW273125  10.053   9.621   3.659
90451SOL     OW73126   5.297   8.527   3.016
90451SOL    HW173127   5.295   8.476   3.098
90451SOL    HW273128   5.389   8.553   3.007
90452SOL     OW73129  11.783   2.981   9.714
90452SOL    HW173130  11.763   2.965   9.806
90452SOL    HW273131  11.746   2.906   9.668
90453SOL     OW73132  10.600   9.878   8.875
90453SOL    HW173133  10.509   9.881   8.845
90453SOL    HW273134  10.647   9.831   8.806
90454SOL     OW73135   3.503   0.206   8.859
90454SOL    HW173136   3.417   0.165   8.851
90454SOL    HW273137   3.515   0.252   8.776
90455SOL     OW73138   5.317   2.189   5.539
90455SOL    HW173139   5.299   2.272   5.583
90455SOL    HW273140   5.403   2.163   5.571
90456SOL     OW73141   0.967   8.948   9.229
90456SOL    HW173142   0.935   8.940   9.319
90456SOL    HW273143   0.960   9.041   9.209
90457SOL     OW73144   3.462   9.149   7.577
90457SOL    HW173145   3.430   9.059   7.584
90457SOL    HW273146   3.474   9.178   7.667
90458SOL     OW73147   3.431   5.373   6.906
90458SOL    HW173148   3.510   5.378   6.851
90458SOL    HW273149   3.363   5.339   6.847
90459SOL     OW73150  12.086   9.785   3.198
90459SOL    HW173151  12.074   9.880   3.200
90459SOL    HW273152  12.172   9.772   3.158
90460SOL     OW73153   6.269   1.896   6.130
90460SOL    HW173154   6.351   1.920   6.174
90460SOL    HW273155   6.274   1.801   6.122
90461SOL     OW73156   0.340  10.007  14.658
90461SOL    HW173157   0.428  10.013  14.695
90461SOL    HW273158   0.323  10.095  14.624
90462SOL     OW73159  12.020   4.308   9.231
90462SOL    HW173160  12.061   4.224   9.213
90462SOL    HW273161  12.088   4.359   9.276
90463SOL     OW73162  11.216  12.031   9.810
90463SOL    HW173163  11.215  12.076   9.894
90463SOL    HW273164  11.135  12.058   9.766
90464SOL     OW73165   9.513  14.018   4.545
90464SOL    HW173166   9.597  13.989   4.580
90464SOL    HW273167   9.469  14.060   4.619
90465SOL     OW73168  13.505   7.956   7.643
90465SOL    HW173169  13.430   8.016   7.650
90465SOL    HW273170  13.544   7.977   7.558
90466SOL     OW73171   3.484   3.647   1.373
90466SOL    HW173172   3.400   3.673   1.411
90466SOL    HW273173   3.531   3.729   1.360
90467SOL     OW73174   6.430  14.786   0.122
90467SOL    HW173175   6.503  14.824   0.170
90467SOL    HW273176   6.362  14.771   0.188
90468SOL     OW73177  11.794   2.002   5.152
90468SOL    HW173178  11.873   2.033   5.108
90468SOL    HW273179  11.795   2.046   5.237
90469SOL     OW73180  12.969  13.808  12.793
90469SOL    HW173181  12.968  13.878  12.728
90469SOL    HW273182  12.902  13.747  12.763
90470SOL     OW73183   8.009   1.430   8.365
90470SOL    HW173184   7.940   1.375   8.403
90470SOL    HW273185   8.086   1.413   8.420
90471SOL     OW73186   1.507   5.895   3.451
90471SOL    HW173187   1.515   5.972   3.395
90471SOL    HW273188   1.413   5.886   3.466
90472SOL     OW73189   0.745   2.251   9.812
90472SOL    HW173190   0.686   2.191   9.767
90472SOL    HW273191   0.817   2.266   9.750
90473SOL     OW73192  12.902  14.649  10.916
90473SOL    HW173193  12.852  14.690  10.986
90473SOL    HW273194  12.884  14.555  10.926
90474SOL     OW73195   3.212   1.945   1.461
90474SOL    HW173196   3.255   2.002   1.524
90474SOL    HW273197   3.280   1.928   1.395
90475SOL     OW73198  14.799  14.317   4.000
90475SOL    HW173199  14.791  14.376   4.075
90475SOL    HW273200  14.788  14.373   3.923
90476SOL     OW73201  10.894   2.059   0.037
90476SOL    HW173202  10.902   1.989   0.102
90476SOL    HW273203  10.891   2.013  14.834
90477SOL     OW73204   2.980   7.489  11.179
90477SOL    HW173205   2.980   7.394  11.187
90477SOL    HW273206   2.948   7.521  11.263
90478SOL     OW73207   1.858   1.602   8.910
90478SOL    HW173208   1.786   1.539   8.911
90478SOL    HW273209   1.841   1.657   8.834
90479SOL     OW73210  12.237   1.295   6.499
90479SOL    HW173211  12.185   1.376   6.500
90479SOL    HW273212  12.287   1.301   6.418
90480SOL     OW73213  11.869   9.779   8.550
90480SOL    HW173214  11.863   9.756   8.457
90480SOL    HW273215  11.907   9.702   8.592
90481SOL     OW73216   0.172   4.350  12.189
90481SOL    HW173217   0.129   4.341  12.104
90481SOL    HW273218   0.149   4.439  12.217
90482SOL     OW73219   3.593   3.448   5.976
90482SOL    HW173220   3.514   3.395   5.982
90482SOL    HW273221   3.663   3.390   6.004
90483SOL     OW73222   5.950  13.704   7.268
90483SOL    HW173223   6.038  13.734   7.290
90483SOL    HW273224   5.894  13.740   7.336
90484SOL     OW73225   2.508  12.190   5.648
90484SOL    HW173226   2.435  12.250   5.663
90484SOL    HW273227   2.582  12.247   5.624
90485SOL     OW73228   8.899  13.751   6.552
90485SOL    HW173229   8.816  13.738   6.506
90485SOL    HW273230   8.919  13.843   6.539
90486SOL     OW73231  12.943   6.186   9.109
90486SOL    HW173232  12.873   6.141   9.061
90486SOL    HW273233  12.945   6.142   9.194
90487SOL     OW73234   3.103   3.303  11.944
90487SOL    HW173235   3.118   3.289  11.851
90487SOL    HW273236   3.133   3.392  11.961
90488SOL     OW73237   7.406   2.760  10.260
90488SOL    HW173238   7.436   2.708  10.186
90488SOL    HW273239   7.329   2.714  10.292
90489SOL     OW73240   8.722  12.022  12.860
90489SOL    HW173241   8.691  12.098  12.811
90489SOL    HW273242   8.802  11.995  12.815
90490SOL     OW73243   5.083   5.898  11.785
90490SOL    HW173244   5.061   5.985  11.819
90490SOL    HW273245   5.144   5.862  11.849
90491SOL     OW73246  10.240   8.106  11.280
90491SOL    HW173247  10.254   8.199  11.300
90491SOL    HW273248  10.312   8.083  11.220
90492SOL     OW73249   9.210   8.783   8.471
90492SOL    HW173250   9.238   8.722   8.539
90492SOL    HW273251   9.124   8.750   8.443
90493SOL     OW73252  14.221  12.612   1.954
90493SOL    HW173253  14.134  12.652   1.948
90493SOL    HW273254  14.220  12.543   1.888
90494SOL     OW73255   6.018   4.959   3.953
90494SOL    HW173256   6.043   5.036   4.004
90494SOL    HW273257   6.092   4.900   3.961
90495SOL     OW73258   9.526   4.081   5.257
90495SOL    HW173259   9.578   4.038   5.325
90495SOL    HW273260   9.562   4.049   5.175
90496SOL     OW73261   8.975  11.244  12.946
90496SOL    HW173262   8.982  11.315  13.010
90496SOL    HW273263   8.892  11.201  12.966
90497SOL     OW73264  11.274   8.833  13.736
90497SOL    HW173265  11.206   8.900  13.725
90497SOL    HW273266  11.232   8.765  13.788
90498SOL     OW73267   1.025   4.232   8.567
90498SOL    HW173268   0.971   4.301   8.529
90498SOL    HW273269   1.021   4.160   8.504
90499SOL     OW73270   1.124  11.362  13.634
90499SOL    HW173271   1.116  11.444  13.683
90499SOL    HW273272   1.081  11.297  13.690
90500SOL     OW73273   6.386   4.374   0.827
90500SOL    HW173274   6.326   4.348   0.896
90500SOL    HW273275   6.472   4.374   0.869
90501SOL     OW73276   6.871   7.977   6.232
90501SOL    HW173277   6.802   7.989   6.168
90501SOL    HW273278   6.845   7.900   6.282
90502SOL     OW73279  12.700  10.028   9.049
90502SOL    HW173280  12.767  10.077   9.097
90502SOL    HW273281  12.680   9.953   9.105
90503SOL     OW73282   3.806   6.701   9.504
90503SOL    HW173283   3.856   6.782   9.515
90503SOL    HW273284   3.873   6.632   9.504
90504SOL     OW73285  14.560  11.494  13.344
90504SOL    HW173286  14.606  11.576  13.362
90504SOL    HW273287  14.623  11.443  13.292
90505SOL     OW73288  12.204   8.777   0.974
90505SOL    HW173289  12.188   8.683   0.979
90505SOL    HW273290  12.210   8.806   1.065
90506SOL     OW73291   8.372  12.047  11.794
90506SOL    HW173292   8.358  12.037  11.699
90506SOL    HW273293   8.320  12.124  11.818
90507SOL     OW73294  13.871   1.459  10.858
90507SOL    HW173295  13.803   1.394  10.839
90507SOL    HW273296  13.883   1.455  10.953
90508SOL     OW73297  11.548   7.733  14.668
90508SOL    HW173298  11.516   7.718  14.579
90508SOL    HW273299  11.537   7.649  14.712
90509SOL     OW73300   2.075  12.198  12.379
90509SOL    HW173301   2.166  12.169  12.384
90509SOL    HW273302   2.074  12.258  12.304
90510SOL     OW73303   5.003   0.567   8.681
90510SOL    HW173304   4.907   0.566   8.689
90510SOL    HW273305   5.032   0.620   8.755
90511SOL     OW73306   4.792   1.843   2.036
90511SOL    HW173307   4.760   1.786   2.106
90511SOL    HW273308   4.884   1.859   2.058
90512SOL     OW73309  12.298   6.213   1.267
90512SOL    HW173310  12.252   6.175   1.341
90512SOL    HW273311  12.282   6.153   1.195
90513SOL     OW73312   5.785   0.986   8.531
90513SOL    HW173313   5.851   0.941   8.583
90513SOL    HW273314   5.796   1.079   8.554
90514SOL     OW73315  11.878  12.374   2.315
90514SOL    HW173316  11.788  12.407   2.327
90514SOL    HW273317  11.879  12.340   2.225
90515SOL     OW73318  12.083   3.132   5.836
90515SOL    HW173319  12.036   3.216   5.839
90515SOL    HW273320  12.149   3.144   5.768
90516SOL     OW73321   0.894   3.494   7.094
90516SOL    HW173322   0.897   3.407   7.055
90516SOL    HW273323   0.802   3.521   7.089
90517SOL     OW73324   4.079  14.665   7.804
90517SOL    HW173325   4.127  14.668   7.887
90517SOL    HW273326   3.987  14.654   7.829
90518SOL     OW73327  13.618   0.651   4.960
90518SOL    HW173328  13.537   0.663   4.911
90518SOL    HW273329  13.688   0.659   4.895
90519SOL     OW73330   0.549  11.728   4.569
90519SOL    HW173331   0.592  11.713   4.653
90519SOL    HW273332   0.599  11.797   4.527
90520SOL     OW73333   7.112   2.421   4.229
90520SOL    HW173334   7.117   2.504   4.182
90520SOL    HW273335   7.032   2.427   4.281
90521SOL     OW73336   5.271   8.737   4.712
90521SOL    HW173337   5.346   8.763   4.658
90521SOL    HW273338   5.252   8.647   4.686
90522SOL     OW73339   8.253   1.907   5.148
90522SOL    HW173340   8.291   1.976   5.202
90522SOL    HW273341   8.289   1.922   5.061
90523SOL     OW73342   4.093   6.466   6.708
90523SOL    HW173343   4.096   6.542   6.766
90523SOL    HW273344   4.002   6.436   6.712
90524SOL     OW73345  12.918   7.120  13.613
90524SOL    HW173346  12.983   7.082  13.672
90524SOL    HW273347  12.940   7.084  13.527
90525SOL     OW73348   5.993  14.473  11.967
90525SOL    HW173349   6.061  14.437  11.910
90525SOL    HW273350   6.038  14.494  12.048
90526SOL     OW73351   8.594   9.863  12.815
90526SOL    HW173352   8.592   9.921  12.738
90526SOL    HW273353   8.514   9.885  12.863
90527SOL     OW73354  11.942   5.191   7.204
90527SOL    HW173355  11.961   5.105   7.240
90527SOL    HW273356  11.884   5.232   7.268
90528SOL     OW73357   9.456   9.126   8.077
90528SOL    HW173358   9.389   9.194   8.069
90528SOL    HW273359   9.422   9.065   8.142
90529SOL     OW73360  11.929   4.739   6.887
90529SOL    HW173361  11.897   4.795   6.816
90529SOL    HW273362  11.878   4.659   6.880
90530SOL     OW73363   1.522   3.994  11.786
90530SOL    HW173364   1.435   4.030  11.806
90530SOL    HW273365   1.524   3.986  11.691
90531SOL     OW73366  12.472  10.740   5.491
90531SOL    HW173367  12.384  10.703   5.492
90531SOL    HW273368  12.461  10.829   5.459
90532SOL     OW73369   1.265   0.159  10.535
90532SOL    HW173370   1.227   0.079  10.572
90532SOL    HW273371   1.312   0.200  10.607
90533SOL     OW73372  10.657  13.067  10.052
90533SOL    HW173373  10.682  13.153  10.084
90533SOL    HW273374  10.587  13.083   9.989
90534SOL     OW73375   6.023   2.682   3.520
90534SOL    HW173376   6.019   2.729   3.437
90534SOL    HW273377   5.980   2.740   3.583
90535SOL     OW73378   0.246   8.721   4.322
90535SOL    HW173379   0.271   8.813   4.335
90535SOL    HW273380   0.283   8.698   4.237
90536SOL     OW73381  13.602   6.462   1.697
90536SOL    HW173382  13.665   6.527   1.727
90536SOL    HW273383  13.541   6.511   1.643
90537SOL     OW73384  13.402   5.492  13.877
90537SOL    HW173385  13.451   5.571  13.900
90537SOL    HW273386  13.337   5.482  13.947
90538SOL     OW73387  14.188  14.043   6.938
90538SOL    HW173388  14.259  13.980   6.949
90538SOL    HW273389  14.165  14.069   7.027
90539SOL     OW73390   6.468  13.269  10.742
90539SOL    HW173391   6.561  13.290  10.746
90539SOL    HW273392   6.449  13.259  10.649
90540SOL     OW73393   1.347   6.902   8.543
90540SOL    HW173394   1.259   6.867   8.526
90540SOL    HW273395   1.375   6.937   8.458
90541SOL     OW73396  13.148   3.308   6.473
90541SOL    HW173397  13.074   3.367   6.483
90541SOL    HW273398  13.200   3.321   6.552
90542SOL     OW73399  11.508   0.249  11.934
90542SOL    HW173400  11.589   0.284  11.971
90542SOL    HW273401  11.513   0.155  11.949
90543SOL     OW73402   3.855   8.108  11.802
90543SOL    HW173403   3.945   8.078  11.818
90543SOL    HW273404   3.828   8.063  11.722
90544SOL     OW73405   4.816   6.923  13.745
90544SOL    HW173406   4.810   6.942  13.651
90544SOL    HW273407   4.848   7.005  13.784
90545SOL     OW73408   6.115   4.688  13.109
90545SOL    HW173409   6.165   4.732  13.040
90545SOL    HW273410   6.126   4.743  13.186
90546SOL     OW73411   2.254   5.516   9.150
90546SOL    HW173412   2.256   5.609   9.172
90546SOL    HW273413   2.167   5.487   9.175
90547SOL     OW73414   1.484   4.782   8.841
90547SOL    HW173415   1.414   4.798   8.904
90547SOL    HW273416   1.547   4.727   8.889
90548SOL     OW73417   8.610   2.594   5.110
90548SOL    HW173418   8.576   2.507   5.134
90548SOL    HW273419   8.570   2.654   5.173
90549SOL     OW73420   9.576   8.236  12.624
90549SOL    HW173421   9.643   8.261  12.687
90549SOL    HW273422   9.497   8.282  12.653
90550SOL     OW73423  13.967   2.651   4.275
90550SOL    HW173424  13.961   2.702   4.356
90550SOL    HW273425  13.974   2.560   4.304
90551SOL     OW73426   6.405  11.347   3.625
90551SOL    HW173427   6.343  11.293   3.575
90551SOL    HW273428   6.409  11.430   3.577
90552SOL     OW73429  12.101   0.522   3.729
90552SOL    HW173430  12.032   0.460   3.753
90552SOL    HW273431  12.158   0.526   3.806
90553SOL     OW73432   0.003   5.079  14.045
90553SOL    HW173433   0.050   5.101  14.126
90553SOL    HW273434   0.031   5.145  13.982
90554SOL     OW73435  11.665  12.848  11.216
90554SOL    HW173436  11.602  12.915  11.244
90554SOL    HW273437  11.617  12.798  11.149
90555SOL     OW73438   9.627  10.017   8.233
90555SOL    HW173439   9.688  10.046   8.300
90555SOL    HW273440   9.546   9.997   8.280
90556SOL     OW73441   5.486   5.640  11.254
90556SOL    HW173442   5.466   5.549  11.234
90556SOL    HW273443   5.507   5.679  11.169
90557SOL     OW73444   9.002  12.331  13.324
90557SOL    HW173445   9.015  12.294  13.411
90557SOL    HW273446   8.937  12.274  13.283
90558SOL     OW73447   3.330   2.121  10.455
90558SOL    HW173448   3.347   2.087  10.367
90558SOL    HW273449   3.387   2.069  10.512
90559SOL     OW73450   5.418   9.016   7.335
90559SOL    HW173451   5.488   9.072   7.302
90559SOL    HW273452   5.373   8.985   7.257
90560SOL     OW73453   8.996   9.364   6.137
90560SOL    HW173454   8.931   9.346   6.069
90560SOL    HW273455   9.078   9.376   6.089
90561SOL     OW73456   4.223   7.493  14.469
90561SOL    HW173457   4.194   7.435  14.539
90561SOL    HW273458   4.227   7.580  14.509
90562SOL     OW73459   4.314   4.562   7.831
90562SOL    HW173460   4.392   4.508   7.820
90562SOL    HW273461   4.264   4.548   7.750
90563SOL     OW73462   3.148   5.684   3.954
90563SOL    HW173463   3.111   5.771   3.969
90563SOL    HW273464   3.170   5.652   4.042
90564SOL     OW73465   0.792  13.231   2.864
90564SOL    HW173466   0.834  13.306   2.907
90564SOL    HW273467   0.839  13.221   2.782
90565SOL     OW73468   4.909   2.160   4.090
90565SOL    HW173469   4.930   2.067   4.085
90565SOL    HW273470   4.814   2.164   4.080
90566SOL     OW73471   0.539  12.108   4.248
90566SOL    HW173472   0.570  12.158   4.172
90566SOL    HW273473   0.580  12.022   4.239
90567SOL     OW73474   9.220   4.844   4.104
90567SOL    HW173475   9.155   4.914   4.100
90567SOL    HW273476   9.194   4.782   4.036
90568SOL     OW73477  10.833   0.569   3.940
90568SOL    HW173478  10.869   0.509   3.874
90568SOL    HW273479  10.911   0.601   3.987
90569SOL     OW73480   5.282   7.175   3.285
90569SOL    HW173481   5.232   7.256   3.296
90569SOL    HW273482   5.365   7.191   3.330
90570SOL     OW73483  14.323   9.222  11.626
90570SOL    HW173484  14.252   9.271  11.584
90570SOL    HW273485  14.402   9.273  11.607
90571SOL     OW73486   8.844   8.273   7.147
90571SOL    HW173487   8.784   8.334   7.191
90571SOL    HW273488   8.830   8.290   7.054
90572SOL     OW73489   7.187   0.976   3.548
90572SOL    HW173490   7.151   1.062   3.570
90572SOL    HW273491   7.267   0.994   3.499
90573SOL     OW73492  12.265  14.750   4.360
90573SOL    HW173493  12.348  14.738   4.406
90573SOL    HW273494  12.271  14.691   4.285
90574SOL     OW73495  14.829   8.509  10.535
90574SOL    HW173496  14.780   8.438  10.576
90574SOL    HW273497   0.039   8.480  10.538
90575SOL     OW73498   4.405   0.962  10.661
90575SOL    HW173499   4.325   0.912  10.645
90575SOL    HW273500   4.455   0.910  10.723
90576SOL     OW73501   5.239   4.885   7.395
90576SOL    HW173502   5.242   4.871   7.300
90576SOL    HW273503   5.312   4.834   7.429
90577SOL     OW73504   3.983  10.138   1.952
90577SOL    HW173505   3.934  10.088   2.016
90577SOL    HW273506   4.064  10.087   1.940
90578SOL     OW73507  11.423  13.922   9.117
90578SOL    HW173508  11.470  13.864   9.056
90578SOL    HW273509  11.341  13.876   9.135
90579SOL     OW73510  10.736   9.758  14.531
90579SOL    HW173511  10.821   9.743  14.488
90579SOL    HW273512  10.674   9.769  14.458
90580SOL     OW73513   1.846   2.163  12.899
90580SOL    HW173514   1.858   2.080  12.946
90580SOL    HW273515   1.921   2.170  12.841
90581SOL     OW73516  14.514   4.539   6.339
90581SOL    HW173517  14.592   4.594   6.349
90581SOL    HW273518  14.457   4.589   6.280
90582SOL     OW73519   8.958  11.895  12.781
90582SOL    HW173520   9.034  11.950  12.798
90582SOL    HW273521   8.963  11.876  12.688
90583SOL     OW73522  13.979   4.213  12.838
90583SOL    HW173523  14.067   4.189  12.866
90583SOL    HW273524  13.991   4.291  12.784
90584SOL     OW73525   1.024   0.348   1.207
90584SOL    HW173526   0.947   0.397   1.177
90584SOL    HW273527   1.083   0.349   1.132
90585SOL     OW73528   3.156   7.197   6.802
90585SOL    HW173529   3.191   7.110   6.821
90585SOL    HW273530   3.198   7.223   6.721
90586SOL     OW73531  10.870   2.569  12.352
90586SOL    HW173532  10.947   2.553  12.407
90586SOL    HW273533  10.848   2.483  12.316
90587SOL     OW73534   2.172  11.838   5.622
90587SOL    HW173535   2.134  11.757   5.589
90587SOL    HW273536   2.102  11.903   5.616
90588SOL     OW73537  11.011   2.080  10.187
90588SOL    HW173538  11.052   2.019  10.126
90588SOL    HW273539  10.935   2.113  10.140
90589SOL     OW73540   0.854  11.121  13.034
90589SOL    HW173541   0.835  11.036  12.993
90589SOL    HW273542   0.857  11.102  13.128
90590SOL     OW73543  14.837  14.720   9.536
90590SOL    HW173544  14.812  14.686   9.622
90590SOL    HW273545  14.783  14.798   9.524
90591SOL     OW73546   3.341  13.117   0.880
90591SOL    HW173547   3.283  13.097   0.953
90591SOL    HW273548   3.316  13.205   0.852
90592SOL     OW73549  14.357   9.074   0.210
90592SOL    HW173550  14.323   9.108   0.293
90592SOL    HW273551  14.304   8.997   0.191
90593SOL     OW73552   1.916  11.801   2.923
90593SOL    HW173553   1.836  11.841   2.889
90593SOL    HW273554   1.964  11.875   2.962
90594SOL     OW73555   8.965  11.358   8.682
90594SOL    HW173556   8.979  11.293   8.613
90594SOL    HW273557   8.905  11.316   8.743
90595SOL     OW73558   9.720  12.113   8.493
90595SOL    HW173559   9.699  12.168   8.568
90595SOL    HW273560   9.816  12.106   8.494
90596SOL     OW73561   5.964   1.139   7.779
90596SOL    HW173562   6.018   1.159   7.856
90596SOL    HW273563   5.877   1.120   7.815
90597SOL     OW73564   2.719   7.126   5.655
90597SOL    HW173565   2.638   7.129   5.604
90597SOL    HW273566   2.720   7.039   5.695
90598SOL     OW73567   4.374  12.685   2.936
90598SOL    HW173568   4.405  12.725   2.856
90598SOL    HW273569   4.418  12.733   3.006
90599SOL     OW73570   8.872  13.788   8.503
90599SOL    HW173571   8.879  13.851   8.432
90599SOL    HW273572   8.937  13.721   8.482
90600SOL     OW73573  14.401  14.035   0.414
90600SOL    HW173574  14.456  14.111   0.395
90600SOL    HW273575  14.453  13.960   0.386
90601SOL     OW73576  11.610   5.468   6.564
90601SOL    HW173577  11.683   5.462   6.502
90601SOL    HW273578  11.545   5.407   6.530
90602SOL     OW73579  13.868  13.866   6.203
90602SOL    HW173580  13.944  13.807   6.197
90602SOL    HW273581  13.843  13.863   6.295
90603SOL     OW73582  12.134   2.614   0.664
90603SOL    HW173583  12.225   2.587   0.677
90603SOL    HW273584  12.089   2.584   0.742
90604SOL     OW73585   6.179   4.284   9.630
90604SOL    HW173586   6.247   4.279   9.563
90604SOL    HW273587   6.223   4.259   9.711
90605SOL     OW73588   0.783   0.722  11.335
90605SOL    HW173589   0.868   0.745  11.297
90605SOL    HW273590   0.794   0.632  11.366
90606SOL     OW73591   8.701   7.335  14.268
90606SOL    HW173592   8.728   7.417  14.228
90606SOL    HW273593   8.780   7.303  14.312
90607SOL     OW73594   4.816   2.365   5.887
90607SOL    HW173595   4.777   2.280   5.905
90607SOL    HW273596   4.769   2.425   5.945
90608SOL     OW73597  14.391   0.284  10.334
90608SOL    HW173598  14.402   0.242  10.249
90608SOL    HW273599  14.479   0.310  10.360
90609SOL     OW73600  13.068   2.017   6.498
90609SOL    HW173601  13.120   1.955   6.446
90609SOL    HW273602  13.091   2.103   6.462
90610SOL     OW73603   4.218   8.534  14.446
90610SOL    HW173604   4.268   8.511  14.367
90610SOL    HW273605   4.142   8.477  14.445
90611SOL     OW73606  14.720   4.122   1.618
90611SOL    HW173607  14.701   4.194   1.678
90611SOL    HW273608  14.665   4.139   1.542
90612SOL     OW73609  14.822   1.761   7.295
90612SOL    HW173610  14.853   1.782   7.383
90612SOL    HW273611  14.737   1.805   7.289
90613SOL     OW73612   9.548   2.898  10.054
90613SOL    HW173613   9.562   2.985  10.090
90613SOL    HW273614   9.582   2.902   9.964
90614SOL     OW73615   2.079   4.879   3.577
90614SOL    HW173616   2.014   4.893   3.645
90614SOL    HW273617   2.086   4.963   3.532
90615SOL     OW73618  14.461  11.009  11.946
90615SOL    HW173619  14.450  11.086  11.891
90615SOL    HW273620  14.531  10.959  11.903
90616SOL     OW73621  10.798  13.977   9.751
90616SOL    HW173622  10.830  14.067   9.745
90616SOL    HW273623  10.744  13.976   9.830
90617SOL     OW73624   3.055   0.195   4.965
90617SOL    HW173625   3.096   0.109   4.969
90617SOL    HW273626   2.968   0.183   5.003
90618SOL     OW73627   2.707   4.094   2.684
90618SOL    HW173628   2.745   4.092   2.772
90618SOL    HW273629   2.780   4.113   2.626
90619SOL     OW73630   8.541   8.884  12.629
90619SOL    HW173631   8.620   8.831  12.623
90619SOL    HW273632   8.470   8.821  12.645
90620SOL     OW73633   5.024   3.080  14.733
90620SOL    HW173634   4.940   3.122  14.715
90620SOL    HW273635   5.089   3.136  14.691
90621SOL     OW73636   4.724  10.774  13.787
90621SOL    HW173637   4.654  10.832  13.817
90621SOL    HW273638   4.726  10.786  13.692
90622SOL     OW73639   2.626  10.055   9.469
90622SOL    HW173640   2.579  10.031   9.548
90622SOL    HW273641   2.571  10.120   9.426
90623SOL     OW73642   7.674   8.403   3.611
90623SOL    HW173643   7.694   8.392   3.704
90623SOL    HW273644   7.689   8.495   3.594
90624SOL     OW73645   0.313  12.211  13.556
90624SOL    HW173646   0.317  12.213  13.652
90624SOL    HW273647   0.229  12.169  13.537
90625SOL     OW73648   1.269   5.537   4.130
90625SOL    HW173649   1.241   5.540   4.221
90625SOL    HW273650   1.219   5.465   4.092
90626SOL     OW73651   4.570  11.911   1.376
90626SOL    HW173652   4.491  11.886   1.423
90626SOL    HW273653   4.619  11.966   1.437
90627SOL     OW73654   8.497   4.227   2.447
90627SOL    HW173655   8.494   4.212   2.542
90627SOL    HW273656   8.464   4.316   2.435
90628SOL     OW73657   3.205   6.546   5.718
90628SOL    HW173658   3.160   6.480   5.771
90628SOL    HW273659   3.294   6.512   5.708
90629SOL     OW73660   8.642   2.405   3.546
90629SOL    HW173661   8.693   2.376   3.622
90629SOL    HW273662   8.706   2.448   3.489
90630SOL     OW73663  13.587   1.430  10.666
90630SOL    HW173664  13.565   1.372  10.739
90630SOL    HW273665  13.514   1.418  10.604
90631SOL     OW73666  14.388  14.702   3.374
90631SOL    HW173667  14.330  14.774   3.351
90631SOL    HW273668  14.387  14.701   3.470
90632SOL     OW73669   9.240  14.796   4.759
90632SOL    HW173670   9.146  14.816   4.751
90632SOL    HW273671   9.246  14.704   4.734
90633SOL     OW73672   0.272  14.716  12.860
90633SOL    HW173673   0.294  14.801  12.898
90633SOL    HW273674   0.351  14.663  12.871
90634SOL     OW73675  11.085   9.525  11.109
90634SOL    HW173676  11.101   9.432  11.089
90634SOL    HW273677  11.170   9.567  11.096
90635SOL     OW73678   3.634   9.372   0.177
90635SOL    HW173679   3.649   9.374   0.082
90635SOL    HW273680   3.552   9.323   0.187
90636SOL     OW73681   3.359   6.978   5.583
90636SOL    HW173682   3.374   7.068   5.555
90636SOL    HW273683   3.300   6.942   5.517
90637SOL     OW73684  13.821  13.902  13.521
90637SOL    HW173685  13.908  13.906  13.481
90637SOL    HW273686  13.760  13.905  13.447
90638SOL     OW73687  13.260  14.839  12.896
90638SOL    HW173688  13.323   0.021  12.931
90638SOL    HW273689  13.311  14.785  12.836
90639SOL     OW73690   3.309  14.820   1.211
90639SOL    HW173691   3.282  14.739   1.255
90639SOL    HW273692   3.339  14.876   1.282
90640SOL     OW73693   5.412  13.815   5.249
90640SOL    HW173694   5.380  13.828   5.160
90640SOL    HW273695   5.457  13.897   5.270
90641SOL     OW73696   9.327  11.494   3.848
90641SOL    HW173697   9.378  11.423   3.888
90641SOL    HW273698   9.241  11.455   3.833
90642SOL     OW73699   0.512   4.161  14.750
90642SOL    HW173700   0.495   4.104  14.824
90642SOL    HW273701   0.504   4.250  14.786
90643SOL     OW73702   1.966   7.167  14.729
90643SOL    HW173703   1.969   7.101  14.660
90643SOL    HW273704   1.883   7.213  14.715
90644SOL     OW73705   7.302  12.074   5.605
90644SOL    HW173706   7.313  12.165   5.577
90644SOL    HW273707   7.222  12.075   5.658
90645SOL     OW73708   8.168  14.815   2.394
90645SOL    HW173709   8.225  14.787   2.323
90645SOL    HW273710   8.145   0.024   2.372
90646SOL     OW73711   7.940   4.032  10.929
90646SOL    HW173712   7.926   4.043  10.835
90646SOL    HW273713   7.913   4.115  10.968
90647SOL     OW73714  12.890   2.755   0.361
90647SOL    HW173715  12.931   2.717   0.283
90647SOL    HW273716  12.950   2.734   0.433
90648SOL     OW73717   3.040   1.852   1.935
90648SOL    HW173718   3.006   1.934   1.971
90648SOL    HW273719   3.036   1.864   1.840
90649SOL     OW73720   1.731   7.751   2.241
90649SOL    HW173721   1.654   7.706   2.277
90649SOL    HW273722   1.726   7.735   2.147
90650SOL     OW73723   7.617   5.740  13.675
90650SOL    HW173724   7.611   5.656  13.721
90650SOL    HW273725   7.630   5.717  13.583
90651SOL     OW73726  14.284   3.062   0.893
90651SOL    HW173727  14.271   3.156   0.898
90651SOL    HW273728  14.198   3.025   0.915
90652SOL     OW73729   0.698  13.449   4.609
90652SOL    HW173730   0.657  13.481   4.690
90652SOL    HW273731   0.626  13.442   4.547
90653SOL     OW73732   5.602   0.466   4.211
90653SOL    HW173733   5.523   0.455   4.158
90653SOL    HW273734   5.671   0.482   4.146
90654SOL     OW73735  14.852   3.790  14.876
90654SOL    HW173736   0.013   3.875  14.863
90654SOL    HW273737  14.779   3.809   0.053
90655SOL     OW73738   9.958   9.377   6.191
90655SOL    HW173739  10.024   9.344   6.252
90655SOL    HW273740   9.879   9.386   6.243
90656SOL     OW73741   5.499   0.377   6.141
90656SOL    HW173742   5.435   0.331   6.195
90656SOL    HW273743   5.562   0.414   6.203
90657SOL     OW73744  13.112   5.342  13.466
90657SOL    HW173745  13.123   5.267  13.407
90657SOL    HW273746  13.021   5.367  13.457
90658SOL     OW73747  12.052   0.096  14.024
90658SOL    HW173748  12.145   0.095  14.048
90658SOL    HW273749  12.018   0.175  14.066
90659SOL     OW73750   0.588   3.243   8.647
90659SOL    HW173751   0.679   3.215   8.655
90659SOL    HW273752   0.538   3.161   8.637
90660SOL     OW73753   9.403   5.270   1.475
90660SOL    HW173754   9.472   5.271   1.408
90660SOL    HW273755   9.388   5.362   1.495
90661SOL     OW73756   0.455   0.206   0.408
90661SOL    HW173757   0.494   0.270   0.468
90661SOL    HW273758   0.386   0.254   0.362
90662SOL     OW73759   5.548   4.719   3.028
90662SOL    HW173760   5.510   4.634   3.003
90662SOL    HW273761   5.620   4.731   2.965
90663SOL     OW73762  14.626   7.318  13.571
90663SOL    HW173763  14.638   7.228  13.541
90663SOL    HW273764  14.594   7.310  13.661
90664SOL     OW73765   7.426   0.989  10.089
90664SOL    HW173766   7.449   0.959  10.001
90664SOL    HW273767   7.403   0.910  10.136
90665SOL     OW73768  13.337  10.639  10.140
90665SOL    HW173769  13.393  10.713  10.120
90665SOL    HW273770  13.394  10.562  10.131
90666SOL     OW73771  10.668  12.739  10.636
90666SOL    HW173772  10.711  12.654  10.638
90666SOL    HW273773  10.667  12.763  10.543
90667SOL     OW73774   0.302  13.753  14.592
90667SOL    HW173775   0.316  13.847  14.600
90667SOL    HW273776   0.315  13.718  14.680
90668SOL     OW73777  12.174   4.432  11.175
90668SOL    HW173778  12.104   4.420  11.110
90668SOL    HW273779  12.185   4.346  11.215
90669SOL     OW73780   8.071   3.665   7.499
90669SOL    HW173781   8.103   3.747   7.459
90669SOL    HW273782   8.002   3.693   7.559
90670SOL     OW73783   2.122   4.920   1.217
90670SOL    HW173784   2.146   4.860   1.146
90670SOL    HW273785   2.161   5.004   1.191
90671SOL     OW73786   3.500  10.572   7.943
90671SOL    HW173787   3.429  10.624   7.981
90671SOL    HW273788   3.554  10.636   7.896
90672SOL     OW73789  11.916   6.374   2.063
90672SOL    HW173790  11.821   6.362   2.071
90672SOL    HW273791  11.944   6.303   2.004
90673SOL     OW73792  11.458  14.739  14.317
90673SOL    HW173793  11.517  14.691  14.258
90673SOL    HW273794  11.433  14.674  14.383
90674SOL     OW73795  13.299   1.229   5.332
90674SOL    HW173796  13.325   1.180   5.410
90674SOL    HW273797  13.204   1.235   5.338
90675SOL     OW73798   4.781   4.313  13.357
90675SOL    HW173799   4.734   4.317  13.441
90675SOL    HW273800   4.747   4.236  13.314
90676SOL     OW73801  13.405  12.767   4.621
90676SOL    HW173802  13.401  12.756   4.526
90676SOL    HW273803  13.365  12.852   4.638
90677SOL     OW73804  13.311  10.775  11.826
90677SOL    HW173805  13.399  10.763  11.790
90677SOL    HW273806  13.274  10.847  11.774
90678SOL     OW73807   4.246   9.830   2.945
90678SOL    HW173808   4.305   9.819   2.870
90678SOL    HW273809   4.298   9.802   3.020
90679SOL     OW73810   0.017   8.011   1.956
90679SOL    HW173811  14.880   7.928   2.000
90679SOL    HW273812   0.106   8.001   1.922
90680SOL     OW73813  13.264   4.588   2.500
90680SOL    HW173814  13.210   4.656   2.460
90680SOL    HW273815  13.345   4.632   2.525
90681SOL     OW73816   9.680  11.258  14.194
90681SOL    HW173817   9.588  11.282  14.180
90681SOL    HW273818   9.680  11.163  14.193
90682SOL     OW73819  10.435   3.466   7.458
90682SOL    HW173820  10.400   3.412   7.528
90682SOL    HW273821  10.434   3.555   7.493
90683SOL     OW73822   4.331   2.164   7.876
90683SOL    HW173823   4.287   2.116   7.945
90683SOL    HW273824   4.384   2.229   7.922
90684SOL     OW73825   5.292   2.609   0.482
90684SOL    HW173826   5.235   2.536   0.456
90684SOL    HW273827   5.356   2.570   0.542
90685SOL     OW73828  13.631  12.322   5.734
90685SOL    HW173829  13.688  12.352   5.664
90685SOL    HW273830  13.649  12.228   5.741
90686SOL     OW73831  12.536   7.431   8.414
90686SOL    HW173832  12.610   7.451   8.356
90686SOL    HW273833  12.516   7.339   8.397
90687SOL     OW73834   5.248   5.694   5.942
90687SOL    HW173835   5.219   5.605   5.961
90687SOL    HW273836   5.171   5.736   5.904
90688SOL     OW73837   4.300   8.436   3.086
90688SOL    HW173838   4.263   8.481   3.010
90688SOL    HW273839   4.385   8.405   3.056
90689SOL     OW73840   3.086   5.957  11.062
90689SOL    HW173841   3.115   6.042  11.095
90689SOL    HW273842   2.993   5.954  11.081
90690SOL     OW73843   0.542   5.943   2.987
90690SOL    HW173844   0.522   5.951   3.081
90690SOL    HW273845   0.489   5.869   2.958
90691SOL     OW73846   4.009  14.088   3.886
90691SOL    HW173847   4.057  14.041   3.818
90691SOL    HW273848   4.044  14.177   3.884
90692SOL     OW73849   8.233   2.158   5.337
90692SOL    HW173850   8.278   2.161   5.422
90692SOL    HW273851   8.265   2.236   5.291
90693SOL     OW73852   4.027  13.413   6.592
90693SOL    HW173853   4.031  13.408   6.687
90693SOL    HW273854   3.953  13.357   6.567
90694SOL     OW73855  13.646   0.791  13.270
90694SOL    HW173856  13.611   0.739  13.198
90694SOL    HW273857  13.689   0.727  13.328
90695SOL     OW73858   8.383   7.503  11.330
90695SOL    HW173859   8.476   7.512  11.311
90695SOL    HW273860   8.378   7.438  11.399
90696SOL     OW73861   8.533  10.072   9.115
90696SOL    HW173862   8.625  10.096   9.103
90696SOL    HW273863   8.536   9.984   9.153
90697SOL     OW73864   0.999   6.304   2.917
90697SOL    HW173865   1.011   6.306   3.012
90697SOL    HW273866   0.905   6.297   2.905
90698SOL     OW73867   2.258   0.900  14.481
90698SOL    HW173868   2.298   0.953  14.549
90698SOL    HW273869   2.222   0.824  14.527
90699SOL     OW73870   2.557   7.849   5.315
90699SOL    HW173871   2.597   7.786   5.374
90699SOL    HW273872   2.521   7.917   5.373
90700SOL     OW73873  13.562  12.543   0.374
90700SOL    HW173874  13.543  12.504   0.288
90700SOL    HW273875  13.514  12.489   0.436
90701SOL     OW73876   8.748  13.127   1.814
90701SOL    HW173877   8.668  13.179   1.809
90701SOL    HW273878   8.817  13.190   1.833
90702SOL     OW73879   5.926  11.711   6.601
90702SOL    HW173880   5.871  11.634   6.617
90702SOL    HW273881   6.015  11.680   6.613
90703SOL     OW73882   3.634   3.653   9.201
90703SOL    HW173883   3.611   3.699   9.282
90703SOL    HW273884   3.730   3.654   9.200
90704SOL     OW73885   9.986  11.853   2.626
90704SOL    HW173886  10.032  11.937   2.631
90704SOL    HW273887   9.988  11.820   2.716
90705SOL     OW73888  12.266   4.442  13.019
90705SOL    HW173889  12.214   4.383  13.074
90705SOL    HW273890  12.201   4.500  12.979
90706SOL     OW73891   1.233  11.006   1.773
90706SOL    HW173892   1.267  10.918   1.790
90706SOL    HW273893   1.175  10.995   1.697
90707SOL     OW73894  12.080   8.357   2.357
90707SOL    HW173895  12.099   8.272   2.399
90707SOL    HW273896  12.115   8.422   2.418
90708SOL     OW73897   1.421   8.367   3.271
90708SOL    HW173898   1.410   8.377   3.365
90708SOL    HW273899   1.461   8.450   3.243
90709SOL     OW73900   1.386   2.979  13.569
90709SOL    HW173901   1.472   2.948  13.598
90709SOL    HW273902   1.403   3.024  13.486
90710SOL     OW73903   5.144   1.838   6.675
90710SOL    HW173904   5.221   1.876   6.634
90710SOL    HW273905   5.177   1.763   6.725
90711SOL     OW73906   7.959   2.418   3.123
90711SOL    HW173907   7.907   2.498   3.118
90711SOL    HW273908   7.900   2.354   3.162
90712SOL     OW73909   2.935  11.849   1.494
90712SOL    HW173910   2.862  11.908   1.473
90712SOL    HW273911   3.002  11.871   1.429
90713SOL     OW73912   1.899  11.061  14.837
90713SOL    HW173913   1.885  11.151  14.808
90713SOL    HW273914   1.922  11.013  14.757
90714SOL     OW73915   9.749   0.292   8.263
90714SOL    HW173916   9.672   0.245   8.295
90714SOL    HW273917   9.748   0.278   8.168
90715SOL     OW73918   6.487   1.653   3.615
90715SOL    HW173919   6.487   1.712   3.539
90715SOL    HW273920   6.577   1.623   3.622
90716SOL     OW73921   3.176  14.502   4.972
90716SOL    HW173922   3.115  14.460   4.913
90716SOL    HW273923   3.227  14.561   4.916
90717SOL     OW73924   6.856   5.751  11.915
90717SOL    HW173925   6.926   5.755  11.980
90717SOL    HW273926   6.782   5.711  11.962
90718SOL     OW73927   5.951  11.424   8.072
90718SOL    HW173928   5.980  11.513   8.050
90718SOL    HW273929   6.032  11.376   8.089
90719SOL     OW73930  11.888   1.892   1.146
90719SOL    HW173931  11.848   1.809   1.117
90719SOL    HW273932  11.950   1.866   1.213
90720SOL     OW73933   7.536   3.497  11.813
90720SOL    HW173934   7.572   3.527  11.896
90720SOL    HW273935   7.573   3.409  11.801
90721SOL     OW73936   2.494   4.830   7.874
90721SOL    HW173937   2.450   4.908   7.840
90721SOL    HW273938   2.448   4.756   7.833
90722SOL     OW73939   5.331   0.474   1.455
90722SOL    HW173940   5.424   0.458   1.470
90722SOL    HW273941   5.287   0.437   1.532
90723SOL     OW73942   9.361   5.315   1.176
90723SOL    HW173943   9.451   5.308   1.206
90723SOL    HW273944   9.365   5.289   1.084
90724SOL     OW73945   5.933  12.973  10.662
90724SOL    HW173946   5.841  12.999  10.665
90724SOL    HW273947   5.932  12.878  10.673
90725SOL     OW73948   6.666   7.531   5.613
90725SOL    HW173949   6.634   7.454   5.565
90725SOL    HW273950   6.704   7.587   5.546
90726SOL     OW73951  12.422  12.849   4.792
90726SOL    HW173952  12.358  12.915   4.767
90726SOL    HW273953  12.406  12.776   4.731
90727SOL     OW73954   1.926  13.447  14.865
90727SOL    HW173955   2.001  13.389  14.868
90727SOL    HW273956   1.950  13.522   0.038
90728SOL     OW73957  13.826  12.038   2.595
90728SOL    HW173958  13.907  12.084   2.572
90728SOL    HW273959  13.767  12.107   2.624
90729SOL     OW73960   1.494   5.110   1.536
90729SOL    HW173961   1.445   5.179   1.491
90729SOL    HW273962   1.455   5.028   1.504
90730SOL     OW73963   0.852   9.744   0.734
90730SOL    HW173964   0.940   9.781   0.741
90730SOL    HW273965   0.858   9.659   0.777
90731SOL     OW73966   0.342   6.111   5.888
90731SOL    HW173967   0.262   6.163   5.884
90731SOL    HW273968   0.412   6.176   5.899
90732SOL     OW73969  13.849   0.352  10.683
90732SOL    HW173970  13.871   0.260  10.670
90732SOL    HW273971  13.753   0.353  10.688
90733SOL     OW73972  13.024   1.233  11.045
90733SOL    HW173973  12.959   1.172  11.010
90733SOL    HW273974  13.103   1.181  11.058
90734SOL     OW73975   2.045   6.525   8.847
90734SOL    HW173976   2.013   6.436   8.828
90734SOL    HW273977   2.093   6.516   8.929
90735SOL     OW73978   7.260  14.178   5.004
90735SOL    HW173979   7.319  14.152   4.933
90735SOL    HW273980   7.183  14.215   4.959
90736SOL     OW73981   2.532   1.396   2.357
90736SOL    HW173982   2.453   1.381   2.410
90736SOL    HW273983   2.586   1.454   2.410
90737SOL     OW73984   4.623  12.842  13.656
90737SOL    HW173985   4.696  12.781  13.664
90737SOL    HW273986   4.553  12.792  13.615
90738SOL     OW73987   1.831   8.885   0.947
90738SOL    HW173988   1.855   8.805   0.900
90738SOL    HW273989   1.874   8.877   1.031
90739SOL     OW73990  13.812   6.835   5.513
90739SOL    HW173991  13.750   6.880   5.455
90739SOL    HW273992  13.807   6.743   5.487
90740SOL     OW73993  10.424  12.509   6.131
90740SOL    HW173994  10.418  12.510   6.035
90740SOL    HW273995  10.338  12.539   6.161
90741SOL     OW73996   7.674  12.785   2.601
90741SOL    HW173997   7.721  12.818   2.677
90741SOL    HW273998   7.712  12.698   2.585
90742SOL     OW73999   3.729   6.681   7.859
90742SOL    HW174000   3.665   6.718   7.799
90742SOL    HW274001   3.686   6.682   7.945
90743SOL     OW74002   3.806  11.503  12.978
90743SOL    HW174003   3.833  11.524  12.888
90743SOL    HW274004   3.759  11.420  12.971
90744SOL     OW74005   0.310   2.752   2.381
90744SOL    HW174006   0.225   2.796   2.392
90744SOL    HW274007   0.329   2.761   2.287
90745SOL     OW74008  10.697  11.415   2.679
90745SOL    HW174009  10.667  11.467   2.754
90745SOL    HW274010  10.775  11.461   2.649
90746SOL     OW74011  11.200   5.451   4.955
90746SOL    HW174012  11.217   5.388   4.885
90746SOL    HW274013  11.182   5.397   5.032
90747SOL     OW74014  10.119  11.928   7.876
90747SOL    HW174015  10.118  11.833   7.869
90747SOL    HW274016  10.185  11.957   7.813
90748SOL     OW74017   0.217  10.276   7.234
90748SOL    HW174018   0.293  10.218   7.225
90748SOL    HW274019   0.168  10.240   7.308
90749SOL     OW74020  14.336   3.789   3.481
90749SOL    HW174021  14.326   3.871   3.433
90749SOL    HW274022  14.246   3.762   3.501
90750SOL     OW74023  11.786   7.249  14.353
90750SOL    HW174024  11.830   7.214  14.431
90750SOL    HW274025  11.851   7.308  14.314
90751SOL     OW74026   3.757  10.909   0.100
90751SOL    HW174027   3.834  10.906   0.157
90751SOL    HW274028   3.762  10.828   0.049
90752SOL     OW74029  10.189   5.763   3.082
90752SOL    HW174030  10.264   5.809   3.045
90752SOL    HW274031  10.113   5.810   3.049
90753SOL     OW74032  14.550   4.955   2.746
90753SOL    HW174033  14.608   4.992   2.813
90753SOL    HW274034  14.527   4.868   2.779
90754SOL     OW74035   9.848   7.621  13.363
90754SOL    HW174036   9.859   7.577  13.278
90754SOL    HW274037   9.763   7.665  13.355
90755SOL     OW74038  14.044   4.155   7.555
90755SOL    HW174039  14.012   4.137   7.467
90755SOL    HW274040  14.117   4.094   7.567
90756SOL     OW74041  10.772   4.098   1.377
90756SOL    HW174042  10.825   4.129   1.303
90756SOL    HW274043  10.719   4.173   1.402
90757SOL     OW74044  12.566   2.375   5.475
90757SOL    HW174045  12.645   2.423   5.450
90757SOL    HW274046  12.495   2.427   5.439
90758SOL     OW74047   3.765   6.724   9.060
90758SOL    HW174048   3.701   6.735   9.130
90758SOL    HW274049   3.838   6.781   9.085
90759SOL     OW74050   7.496  11.209   2.331
90759SOL    HW174051   7.542  11.132   2.298
90759SOL    HW274052   7.403  11.191   2.316
90760SOL     OW74053   8.981  14.812   5.740
90760SOL    HW174054   8.968  14.742   5.805
90760SOL    HW274055   8.950   0.010   5.784
90761SOL     OW74056   6.797   7.247   8.737
90761SOL    HW174057   6.760   7.197   8.809
90761SOL    HW274058   6.793   7.188   8.662
90762SOL     OW74059  13.233  12.800   7.542
90762SOL    HW174060  13.280  12.839   7.615
90762SOL    HW274061  13.178  12.732   7.582
90763SOL     OW74062   5.609  13.109   6.323
90763SOL    HW174063   5.517  13.135   6.311
90763SOL    HW274064   5.611  13.064   6.407
90764SOL     OW74065  13.720  12.844   7.991
90764SOL    HW174066  13.804  12.885   8.012
90764SOL    HW274067  13.726  12.823   7.898
90765SOL     OW74068  10.331   0.482   6.303
90765SOL    HW174069  10.305   0.495   6.395
90765SOL    HW274070  10.375   0.564   6.280
90766SOL     OW74071   7.682  12.218   1.949
90766SOL    HW174072   7.707  12.282   1.882
90766SOL    HW274073   7.628  12.268   2.011
90767SOL     OW74074  13.707   6.961   4.598
90767SOL    HW174075  13.788   6.952   4.548
90767SOL    HW274076  13.726   7.027   4.665
90768SOL     OW74077   2.677   1.145   2.663
90768SOL    HW174078   2.625   1.122   2.740
90768SOL    HW274079   2.720   1.227   2.685
90769SOL     OW74080   4.996  14.335   6.896
90769SOL    HW174081   4.920  14.283   6.923
90769SOL    HW274082   4.960  14.401   6.837
90770SOL     OW74083   1.389   7.459   4.001
90770SOL    HW174084   1.338   7.496   4.073
90770SOL    HW274085   1.324   7.429   3.938
90771SOL     OW74086   9.777   4.311   6.842
90771SOL    HW174087   9.689   4.345   6.861
90771SOL    HW274088   9.813   4.371   6.777
90772SOL     OW74089   4.638  10.159   3.820
90772SOL    HW174090   4.601  10.242   3.850
90772SOL    HW274091   4.679  10.121   3.898
90773SOL     OW74092   4.701  14.214  12.568
90773SOL    HW174093   4.648  14.206  12.488
90773SOL    HW274094   4.775  14.155  12.554
90774SOL     OW74095   4.906   6.117  14.383
90774SOL    HW174096   4.995   6.100  14.412
90774SOL    HW274097   4.916   6.185  14.315
90775SOL     OW74098  14.017  11.311   0.634
90775SOL    HW174099  14.061  11.336   0.715
90775SOL    HW274100  13.924  11.323   0.653
90776SOL     OW74101   9.644  10.037   2.858
90776SOL    HW174102   9.593   9.978   2.803
90776SOL    HW274103   9.683   9.981   2.925
90777SOL     OW74104  14.233   2.915   4.042
90777SOL    HW174105  14.141   2.889   4.034
90777SOL    HW274106  14.281   2.854   3.985
90778SOL     OW74107   3.256   9.257   6.684
90778SOL    HW174108   3.299   9.298   6.759
90778SOL    HW274109   3.165   9.247   6.710
90779SOL     OW74110   4.164   3.601  11.896
90779SOL    HW174111   4.075   3.592  11.930
90779SOL    HW274112   4.219   3.558  11.962
90780SOL     OW74113   3.111   5.715   2.075
90780SOL    HW174114   3.157   5.632   2.064
90780SOL    HW274115   3.104   5.726   2.170
90781SOL     OW74116  14.458   3.594   5.984
90781SOL    HW174117  14.412   3.645   5.918
90781SOL    HW274118  14.550   3.619   5.974
90782SOL     OW74119  11.360   9.832  14.797
90782SOL    HW174120  11.320   9.883  14.727
90782SOL    HW274121  11.335   9.877  14.877
90783SOL     OW74122   7.382  10.220   6.016
90783SOL    HW174123   7.306  10.266   5.980
90783SOL    HW274124   7.433  10.289   6.059
90784SOL     OW74125   6.914   1.601   0.285
90784SOL    HW174126   6.851   1.673   0.286
90784SOL    HW274127   6.969   1.617   0.209
90785SOL     OW74128   8.401   4.080   4.886
90785SOL    HW174129   8.347   4.001   4.877
90785SOL    HW274130   8.370   4.137   4.815
90786SOL     OW74131  10.200   8.702   8.582
90786SOL    HW174132  10.280   8.679   8.534
90786SOL    HW274133  10.129   8.673   8.525
90787SOL     OW74134  12.988  10.498   0.750
90787SOL    HW174135  12.928  10.514   0.677
90787SOL    HW274136  12.961  10.413   0.786
90788SOL     OW74137  11.248   2.980   3.022
90788SOL    HW174138  11.250   3.074   3.041
90788SOL    HW274139  11.282   2.973   2.933
90789SOL     OW74140   9.472   2.416  14.031
90789SOL    HW174141   9.429   2.350  14.085
90789SOL    HW274142   9.493   2.371  13.949
90790SOL     OW74143   4.844   9.674   7.511
90790SOL    HW174144   4.773   9.736   7.494
90790SOL    HW274145   4.811   9.619   7.581
90791SOL     OW74146   8.192   3.416   8.977
90791SOL    HW174147   8.251   3.481   9.017
90791SOL    HW274148   8.132   3.468   8.924
90792SOL     OW74149  13.890  14.591   5.900
90792SOL    HW174150  13.936  14.520   5.944
90792SOL    HW274151  13.813  14.550   5.861
90793SOL     OW74152   5.827   5.647   2.463
90793SOL    HW174153   5.746   5.596   2.459
90793SOL    HW274154   5.874   5.613   2.538
90794SOL     OW74155   7.887  12.181  14.086
90794SOL    HW174156   7.955  12.123  14.052
90794SOL    HW274157   7.934  12.255  14.124
90795SOL     OW74158   2.605   2.805   9.627
90795SOL    HW174159   2.584   2.885   9.676
90795SOL    HW274160   2.526   2.752   9.633
90796SOL     OW74161   2.688   8.062   7.287
90796SOL    HW174162   2.680   7.988   7.226
90796SOL    HW274163   2.622   8.124   7.258
90797SOL     OW74164  13.791   0.243   2.285
90797SOL    HW174165  13.824   0.213   2.370
90797SOL    HW274166  13.867   0.285   2.243
90798SOL     OW74167   0.649   1.810  12.822
90798SOL    HW174168   0.597   1.881  12.784
90798SOL    HW274169   0.672   1.754  12.747
90799SOL     OW74170  14.442   7.648   2.984
90799SOL    HW174171  14.460   7.632   2.892
90799SOL    HW274172  14.529   7.657   3.024
90800SOL     OW74173  13.607  11.593   1.237
90800SOL    HW174174  13.678  11.638   1.191
90800SOL    HW274175  13.567  11.537   1.171
90801SOL     OW74176   1.602  13.548   0.511
90801SOL    HW174177   1.530  13.610   0.502
90801SOL    HW274178   1.582  13.480   0.446
90802SOL     OW74179   7.781  11.713  12.714
90802SOL    HW174180   7.841  11.721  12.639
90802SOL    HW274181   7.779  11.800  12.753
90803SOL     OW74182   8.464   3.480   7.778
90803SOL    HW174183   8.435   3.563   7.816
90803SOL    HW274184   8.407   3.467   7.702
90804SOL     OW74185   4.057   6.559   9.601
90804SOL    HW174186   4.052   6.626   9.669
90804SOL    HW274187   4.131   6.504   9.627
90805SOL     OW74188   9.152   0.618  11.629
90805SOL    HW174189   9.173   0.611  11.536
90805SOL    HW274190   9.067   0.577  11.637
90806SOL     OW74191   2.425   3.596  14.587
90806SOL    HW174192   2.506   3.611  14.538
90806SOL    HW274193   2.361   3.569  14.521
90807SOL     OW74194  14.154   3.795   6.949
90807SOL    HW174195  14.105   3.790   6.867
90807SOL    HW274196  14.213   3.869   6.937
90808SOL     OW74197   2.644   7.449   7.740
90808SOL    HW174198   2.733   7.477   7.759
90808SOL    HW274199   2.631   7.371   7.794
90809SOL     OW74200   3.708  11.322   9.680
90809SOL    HW174201   3.638  11.266   9.713
90809SOL    HW274202   3.762  11.341   9.756
90810SOL     OW74203   2.618   9.118   4.989
90810SOL    HW174204   2.688   9.144   5.049
90810SOL    HW274205   2.656   9.047   4.937
90811SOL     OW74206   0.004   5.073   7.821
90811SOL    HW174207  14.839   5.022   7.888
90811SOL    HW274208   0.022   5.157   7.863
90812SOL     OW74209   5.288  10.333   8.902
90812SOL    HW174210   5.305  10.245   8.936
90812SOL    HW274211   5.324  10.331   8.813
90813SOL     OW74212   0.419   4.913   0.052
90813SOL    HW174213   0.421   4.952   0.140
90813SOL    HW274214   0.511   4.913   0.024
90814SOL     OW74215  11.265   4.642   0.141
90814SOL    HW174216  11.275   4.699   0.218
90814SOL    HW274217  11.289   4.698   0.067
90815SOL     OW74218  11.125   6.226   8.750
90815SOL    HW174219  11.055   6.167   8.778
90815SOL    HW274220  11.104   6.309   8.794
90816SOL     OW74221   2.554   6.954   1.947
90816SOL    HW174222   2.567   7.013   1.873
90816SOL    HW274223   2.459   6.951   1.958
90817SOL     OW74224   3.627   6.639  10.387
90817SOL    HW174225   3.545   6.601  10.355
90817SOL    HW274226   3.664   6.572  10.443
90818SOL     OW74227  11.507  11.431   4.373
90818SOL    HW174228  11.536  11.341   4.387
90818SOL    HW274229  11.433  11.424   4.313
90819SOL     OW74230   7.331   5.050  10.512
90819SOL    HW174231   7.351   5.027  10.421
90819SOL    HW274232   7.415   5.045  10.557
90820SOL     OW74233   8.444  12.793   4.502
90820SOL    HW174234   8.420  12.864   4.442
90820SOL    HW274235   8.497  12.835   4.569
90821SOL     OW74236  11.069   7.552  11.790
90821SOL    HW174237  11.117   7.515  11.864
90821SOL    HW274238  11.080   7.488  11.720
90822SOL     OW74239   0.568   1.461   4.566
90822SOL    HW174240   0.623   1.390   4.532
90822SOL    HW274241   0.604   1.479   4.653
90823SOL     OW74242  12.132  11.155   8.256
90823SOL    HW174243  12.186  11.160   8.335
90823SOL    HW274244  12.086  11.239   8.253
90824SOL     OW74245   7.735   5.949   3.133
90824SOL    HW174246   7.652   5.978   3.170
90824SOL    HW274247   7.723   5.956   3.038
90825SOL     OW74248   0.756   8.380   1.218
90825SOL    HW174249   0.691   8.446   1.242
90825SOL    HW274250   0.762   8.323   1.294
90826SOL     OW74251   8.315   2.247  12.128
90826SOL    HW174252   8.356   2.317  12.077
90826SOL    HW274253   8.244   2.291  12.175
90827SOL     OW74254   0.026   9.981   0.334
90827SOL    HW174255   0.116   9.950   0.343
90827SOL    HW274256   0.021  10.014   0.245
90828SOL     OW74257   8.717  14.795   9.427
90828SOL    HW174258   8.710  14.811   9.333
90828SOL    HW274259   8.651  14.853   9.466
90829SOL     OW74260  10.266  10.517   1.130
90829SOL    HW174261  10.277  10.441   1.187
90829SOL    HW274262  10.228  10.482   1.049
90830SOL     OW74263  10.139   7.725   7.343
90830SOL    HW174264  10.225   7.766   7.353
90830SOL    HW274265  10.098   7.773   7.272
90831SOL     OW74266  13.914   8.737  10.772
90831SOL    HW174267  13.919   8.653  10.727
90831SOL    HW274268  13.956   8.799  10.713
90832SOL     OW74269   0.328   4.641  14.545
90832SOL    HW174270   0.288   4.574  14.600
90832SOL    HW274271   0.318   4.722  14.596
90833SOL     OW74272   5.727   7.420  11.431
90833SOL    HW174273   5.819   7.442  11.448
90833SOL    HW274274   5.681   7.448  11.510
90834SOL     OW74275   1.134   7.908   8.526
90834SOL    HW174276   1.151   7.825   8.481
90834SOL    HW274277   1.191   7.972   8.482
90835SOL     OW74278  14.101   9.677  10.016
90835SOL    HW174279  14.015   9.642  10.041
90835SOL    HW274280  14.163   9.624  10.066
90836SOL     OW74281  11.873  11.074  12.401
90836SOL    HW174282  11.859  11.015  12.475
90836SOL    HW274283  11.931  11.026  12.342
90837SOL     OW74284  11.699   5.839  11.770
90837SOL    HW174285  11.643   5.786  11.828
90837SOL    HW274286  11.742   5.774  11.713
90838SOL     OW74287   0.111  11.365  11.131
90838SOL    HW174288   0.115  11.449  11.086
90838SOL    HW274289   0.100  11.301  11.060
90839SOL     OW74290   4.964   4.845  11.461
90839SOL    HW174291   5.046   4.815  11.499
90839SOL    HW274292   4.912   4.766  11.450
90840SOL     OW74293   0.838  10.095   9.181
90840SOL    HW174294   0.801  10.023   9.232
90840SOL    HW274295   0.763  10.136   9.139
90841SOL     OW74296   0.295   0.270   2.287
90841SOL    HW174297   0.262   0.349   2.329
90841SOL    HW274298   0.332   0.218   2.359
90842SOL     OW74299  10.642   7.791   0.633
90842SOL    HW174300  10.735   7.813   0.626
90842SOL    HW274301  10.599   7.851   0.572
90843SOL     OW74302   3.363   7.342   3.457
90843SOL    HW174303   3.287   7.400   3.451
90843SOL    HW274304   3.360   7.307   3.546
90844SOL     OW74305   4.924  11.141   3.149
90844SOL    HW174306   5.014  11.125   3.119
90844SOL    HW274307   4.883  11.187   3.077
90845SOL     OW74308   2.921   0.191  13.007
90845SOL    HW174309   2.861   0.257  13.041
90845SOL    HW274310   2.903   0.188  12.913
90846SOL     OW74311   9.126   5.406   3.473
90846SOL    HW174312   9.094   5.355   3.547
90846SOL    HW274313   9.054   5.407   3.411
90847SOL     OW74314   1.079   6.471  13.870
90847SOL    HW174315   1.122   6.490  13.787
90847SOL    HW274316   1.144   6.495  13.936
90848SOL     OW74317   9.874  10.310  12.370
90848SOL    HW174318   9.813  10.331  12.441
90848SOL    HW274319   9.902  10.220  12.388
90849SOL     OW74320   1.736  12.912   4.953
90849SOL    HW174321   1.786  12.971   4.896
90849SOL    HW274322   1.677  12.970   5.001
90850SOL     OW74323   8.079   8.976   9.817
90850SOL    HW174324   8.147   8.997   9.753
90850SOL    HW274325   7.999   8.966   9.766
90851SOL     OW74326   5.101  11.672   3.045
90851SOL    HW174327   5.134  11.717   2.967
90851SOL    HW274328   5.053  11.597   3.011
90852SOL     OW74329  13.714   6.935   8.820
90852SOL    HW174330  13.633   6.911   8.865
90852SOL    HW274331  13.780   6.876   8.857
90853SOL     OW74332   3.379  14.141  14.632
90853SOL    HW174333   3.325  14.219  14.641
90853SOL    HW274334   3.467  14.169  14.658
90854SOL     OW74335  11.347   6.188  13.992
90854SOL    HW174336  11.312   6.103  13.965
90854SOL    HW274337  11.442   6.177  13.990
90855SOL     OW74338  12.552   1.600  11.193
90855SOL    HW174339  12.498   1.581  11.116
90855SOL    HW274340  12.489   1.624  11.261
90856SOL     OW74341  12.452   7.306   7.938
90856SOL    HW174342  12.417   7.218   7.926
90856SOL    HW274343  12.386   7.364   7.901
90857SOL     OW74344   8.501  12.368   9.898
90857SOL    HW174345   8.504  12.294   9.838
90857SOL    HW274346   8.593  12.391   9.913
90858SOL     OW74347   5.798   3.374   1.209
90858SOL    HW174348   5.836   3.289   1.235
90858SOL    HW274349   5.852   3.403   1.136
90859SOL     OW74350   9.478   6.835   4.426
90859SOL    HW174351   9.509   6.822   4.515
90859SOL    HW274352   9.409   6.769   4.415
90860SOL     OW74353  11.774   9.618   4.865
90860SOL    HW174354  11.835   9.545   4.881
90860SOL    HW274355  11.692   9.575   4.839
90861SOL     OW74356  11.098   9.935  12.571
90861SOL    HW174357  11.050  10.018  12.574
90861SOL    HW274358  11.181   9.956  12.528
90862SOL     OW74359   2.724   9.905   1.317
90862SOL    HW174360   2.665   9.966   1.273
90862SOL    HW274361   2.720   9.931   1.409
90863SOL     OW74362   0.092  10.190  12.053
90863SOL    HW174363   0.056  10.106  12.025
90863SOL    HW274364   0.018  10.236  12.093
90864SOL     OW74365  11.225   7.370   7.004
90864SOL    HW174366  11.307   7.347   6.960
90864SOL    HW274367  11.215   7.464   6.990
90865SOL     OW74368   2.297   1.260   2.830
90865SOL    HW174369   2.340   1.338   2.866
90865SOL    HW274370   2.226   1.242   2.891
90866SOL     OW74371   1.331   6.694   1.189
90866SOL    HW174372   1.357   6.644   1.111
90866SOL    HW274373   1.409   6.743   1.214
90867SOL     OW74374   3.930   0.961   3.332
90867SOL    HW174375   3.851   0.969   3.278
90867SOL    HW274376   3.958   1.051   3.347
90868SOL     OW74377   4.014   5.013   1.896
90868SOL    HW174378   3.943   5.041   1.838
90868SOL    HW274379   4.093   5.047   1.855
90869SOL     OW74380   4.933   1.031   4.825
90869SOL    HW174381   4.928   1.112   4.774
90869SOL    HW274382   4.842   1.013   4.850
90870SOL     OW74383   8.278   0.334  10.470
90870SOL    HW174384   8.205   0.326  10.531
90870SOL    HW274385   8.285   0.429  10.455
90871SOL     OW74386  14.652   5.706   5.131
90871SOL    HW174387  14.644   5.621   5.176
90871SOL    HW274388  14.591   5.763   5.179
90872SOL     OW74389   6.941   7.109  13.546
90872SOL    HW174390   6.988   7.175  13.495
90872SOL    HW274391   6.851   7.141  13.550
90873SOL     OW74392  12.723  12.186  14.871
90873SOL    HW174393  12.660  12.114  14.872
90873SOL    HW274394  12.670  12.265  14.881
90874SOL     OW74395   5.712   6.833   9.991
90874SOL    HW174396   5.679   6.819  10.079
90874SOL    HW274397   5.766   6.912   9.999
90875SOL     OW74398   1.976   0.294   1.542
90875SOL    HW174399   1.990   0.202   1.563
90875SOL    HW274400   1.922   0.293   1.463
90876SOL     OW74401   1.208   3.790   6.560
90876SOL    HW174402   1.227   3.822   6.649
90876SOL    HW274403   1.113   3.782   6.557
90877SOL     OW74404  10.022   7.582   1.724
90877SOL    HW174405  10.084   7.631   1.779
90877SOL    HW274406   9.955   7.645   1.701
90878SOL     OW74407   5.371   8.592   7.295
90878SOL    HW174408   5.374   8.529   7.223
90878SOL    HW274409   5.450   8.645   7.283
90879SOL     OW74410   9.342   3.370   7.093
90879SOL    HW174411   9.318   3.458   7.065
90879SOL    HW274412   9.380   3.382   7.180
90880SOL     OW74413  11.787  10.685   9.489
90880SOL    HW174414  11.798  10.592   9.511
90880SOL    HW274415  11.723  10.717   9.552
90881SOL     OW74416   4.697  12.626   7.712
90881SOL    HW174417   4.734  12.627   7.801
90881SOL    HW274418   4.607  12.597   7.724
90882SOL     OW74419  12.971  11.323  10.560
90882SOL    HW174420  12.986  11.382  10.487
90882SOL    HW274421  12.884  11.346  10.592
90883SOL     OW74422  11.646   5.866  13.281
90883SOL    HW174423  11.712   5.806  13.244
90883SOL    HW274424  11.624   5.827  13.365
90884SOL     OW74425   2.406  11.869   7.077
90884SOL    HW174426   2.358  11.840   7.000
90884SOL    HW274427   2.470  11.931   7.044
90885SOL     OW74428   5.298   8.352   6.080
90885SOL    HW174429   5.231   8.416   6.057
90885SOL    HW274430   5.368   8.365   6.016
90886SOL     OW74431  10.938  13.277  10.627
90886SOL    HW174432  10.846  13.294  10.647
90886SOL    HW274433  10.974  13.363  10.606
90887SOL     OW74434   7.875  13.681   0.646
90887SOL    HW174435   7.892  13.724   0.730
90887SOL    HW274436   7.779  13.681   0.638
90888SOL     OW74437   2.520  14.728   2.001
90888SOL    HW174438   2.449  14.754   1.943
90888SOL    HW274439   2.511  14.784   2.078
90889SOL     OW74440   4.429  11.569   0.939
90889SOL    HW174441   4.352  11.513   0.931
90889SOL    HW274442   4.501  11.508   0.957
90890SOL     OW74443   7.008  12.632   9.948
90890SOL    HW174444   6.912  12.635   9.948
90890SOL    HW274445   7.030  12.551   9.903
90891SOL     OW74446   2.009   5.202   3.132
90891SOL    HW174447   1.982   5.294   3.140
90891SOL    HW274448   1.928   5.152   3.137
90892SOL     OW74449   1.170  10.950   4.022
90892SOL    HW174450   1.149  10.971   3.931
90892SOL    HW274451   1.153  11.031   4.070
90893SOL     OW74452   7.119   5.610   0.720
90893SOL    HW174453   7.030   5.643   0.734
90893SOL    HW274454   7.176   5.683   0.744
90894SOL     OW74455  12.676   9.822   7.890
90894SOL    HW174456  12.676   9.771   7.972
90894SOL    HW274457  12.682   9.913   7.919
90895SOL     OW74458   7.380  14.117  12.171
90895SOL    HW174459   7.442  14.168  12.223
90895SOL    HW274460   7.385  14.029  12.207
90896SOL     OW74461  10.946   7.568   8.603
90896SOL    HW174462  11.036   7.538   8.614
90896SOL    HW274463  10.938   7.643   8.662
90897SOL     OW74464  13.382   1.470   0.515
90897SOL    HW174465  13.405   1.424   0.435
90897SOL    HW274466  13.412   1.413   0.585
90898SOL     OW74467   1.247   2.164  10.532
90898SOL    HW174468   1.228   2.258  10.532
90898SOL    HW274469   1.295   2.150  10.614
90899SOL     OW74470   2.122   9.748   3.118
90899SOL    HW174471   2.125   9.652   3.122
90899SOL    HW274472   2.176   9.770   3.042
90900SOL     OW74473   0.986   4.782   9.145
90900SOL    HW174474   0.920   4.794   9.213
90900SOL    HW274475   1.062   4.831   9.175
90901SOL     OW74476   6.748   7.935   8.277
90901SOL    HW174477   6.715   7.846   8.291
90901SOL    HW274478   6.670   7.990   8.286
90902SOL     OW74479   2.792  14.400   5.801
90902SOL    HW174480   2.712  14.412   5.750
90902SOL    HW274481   2.788  14.468   5.868
90903SOL     OW74482   1.581  10.482   7.626
90903SOL    HW174483   1.625  10.425   7.564
90903SOL    HW274484   1.599  10.443   7.711
90904SOL     OW74485   5.615   8.911   1.542
90904SOL    HW174486   5.550   8.981   1.549
90904SOL    HW274487   5.699   8.958   1.538
90905SOL     OW74488   4.833   6.457   2.976
90905SOL    HW174489   4.904   6.511   3.009
90905SOL    HW274490   4.875   6.395   2.916
90906SOL     OW74491   7.675   6.589   5.055
90906SOL    HW174492   7.767   6.603   5.076
90906SOL    HW274493   7.628   6.650   5.111
90907SOL     OW74494  10.584   0.507  14.045
90907SOL    HW174495  10.518   0.489  13.977
90907SOL    HW274496  10.612   0.420  14.075
90908SOL     OW74497   6.962  12.912   5.078
90908SOL    HW174498   6.872  12.881   5.086
90908SOL    HW274499   7.000  12.856   5.010
90909SOL     OW74500   1.771   3.815   2.063
90909SOL    HW174501   1.809   3.832   1.976
90909SOL    HW274502   1.762   3.901   2.103
90910SOL     OW74503   6.169   0.204  14.775
90910SOL    HW174504   6.103   0.134  14.768
90910SOL    HW274505   6.154   0.242  14.861
90911SOL     OW74506   1.652   6.342   4.185
90911SOL    HW174507   1.661   6.427   4.228
90911SOL    HW274508   1.633   6.363   4.093
90912SOL     OW74509  12.169   3.800  13.271
90912SOL    HW174510  12.218   3.873  13.308
90912SOL    HW274511  12.130   3.756  13.347
90913SOL     OW74512   8.016  12.750   6.134
90913SOL    HW174513   7.969  12.822   6.092
90913SOL    HW274514   7.980  12.671   6.093
90914SOL     OW74515   0.239  12.445   8.334
90914SOL    HW174516   0.173  12.378   8.318
90914SOL    HW274517   0.249  12.489   8.250
90915SOL     OW74518  13.853  13.463  11.303
90915SOL    HW174519  13.849  13.368  11.297
90915SOL    HW274520  13.846  13.481  11.397
90916SOL     OW74521   5.204   7.753   7.340
90916SOL    HW174522   5.217   7.725   7.430
90916SOL    HW274523   5.163   7.677   7.297
90917SOL     OW74524   2.254   9.331   1.013
90917SOL    HW174525   2.205   9.270   0.958
90917SOL    HW274526   2.267   9.284   1.095
90918SOL     OW74527   0.527  12.924  10.033
90918SOL    HW174528   0.485  12.841  10.013
90918SOL    HW274529   0.458  12.989  10.023
90919SOL     OW74530   2.094  13.632   2.096
90919SOL    HW174531   2.013  13.673   2.128
90919SOL    HW274532   2.087  13.540   2.124
90920SOL     OW74533  12.820   7.210   0.465
90920SOL    HW174534  12.800   7.173   0.550
90920SOL    HW274535  12.768   7.290   0.460
90921SOL     OW74536   8.327  13.405   1.536
90921SOL    HW174537   8.316  13.434   1.445
90921SOL    HW274538   8.357  13.314   1.528
90922SOL     OW74539   2.836   8.655   0.184
90922SOL    HW174540   2.757   8.639   0.235
90922SOL    HW274541   2.884   8.722   0.233
90923SOL     OW74542   0.488  13.376   2.897
90923SOL    HW174543   0.576  13.359   2.863
90923SOL    HW274544   0.502  13.435   2.971
90924SOL     OW74545  13.002   5.911  14.841
90924SOL    HW174546  12.928   5.849  14.841
90924SOL    HW274547  13.016   5.932   0.051
90925SOL     OW74548  13.997  10.108   8.190
90925SOL    HW174549  13.913  10.116   8.144
90925SOL    HW274550  13.972  10.095   8.282
90926SOL     OW74551  11.434   1.342   2.171
90926SOL    HW174552  11.438   1.414   2.233
90926SOL    HW274553  11.526   1.319   2.155
90927SOL     OW74554   4.245   0.753   7.596
90927SOL    HW174555   4.170   0.749   7.655
90927SOL    HW274556   4.245   0.667   7.552
90928SOL     OW74557   4.483   8.499  11.608
90928SOL    HW174558   4.454   8.499  11.699
90928SOL    HW274559   4.438   8.573  11.568
90929SOL     OW74560   0.810  10.070   3.756
90929SOL    HW174561   0.892  10.119   3.753
90929SOL    HW274562   0.778  10.081   3.845
90930SOL     OW74563  13.098   2.026   6.770
90930SOL    HW174564  13.075   2.041   6.678
90930SOL    HW274565  13.157   2.098   6.792
90931SOL     OW74566   4.745   9.258   6.201
90931SOL    HW174567   4.736   9.168   6.170
90931SOL    HW274568   4.728   9.312   6.123
90932SOL     OW74569   4.860   0.026  13.090
90932SOL    HW174570   4.893   0.092  13.150
90932SOL    HW274571   4.789  14.864  13.138
90933SOL     OW74572   1.115  14.204  14.807
90933SOL    HW174573   1.136  14.295  14.826
90933SOL    HW274574   1.052  14.179  14.875
90934SOL     OW74575   3.600   3.792  14.161
90934SOL    HW174576   3.652   3.844  14.098
90934SOL    HW274577   3.511   3.798  14.128
90935SOL     OW74578   3.544   2.719   6.880
90935SOL    HW174579   3.626   2.689   6.921
90935SOL    HW274580   3.540   2.673   6.797
90936SOL     OW74581   9.419  10.484   5.131
90936SOL    HW174582   9.437  10.501   5.223
90936SOL    HW274583   9.480  10.540   5.083
90937SOL     OW74584   3.756  14.057  12.239
90937SOL    HW174585   3.838  14.096  12.210
90937SOL    HW274586   3.782  13.973  12.278
90938SOL     OW74587   7.930   5.318   1.685
90938SOL    HW174588   7.995   5.353   1.623
90938SOL    HW274589   7.978   5.251   1.735
90939SOL     OW74590  10.372  14.868   1.674
90939SOL    HW174591  10.324  14.865   1.757
90939SOL    HW274592  10.464  14.853   1.699
90940SOL     OW74593   1.268  13.961   9.725
90940SOL    HW174594   1.195  13.901   9.711
90940SOL    HW274595   1.346  13.909   9.708
90941SOL     OW74596  14.630   1.974   7.229
90941SOL    HW174597  14.537   1.991   7.240
90941SOL    HW274598  14.671   2.014   7.306
90942SOL     OW74599   3.479   9.624   4.877
90942SOL    HW174600   3.399   9.570   4.874
90942SOL    HW274601   3.448   9.713   4.863
90943SOL     OW74602   0.574   1.909  11.067
90943SOL    HW174603   0.603   1.827  11.108
90943SOL    HW274604   0.619   1.911  10.983
90944SOL     OW74605  10.146  10.308  10.621
90944SOL    HW174606  10.136  10.300  10.716
90944SOL    HW274607  10.105  10.229  10.586
90945SOL     OW74608  13.291   1.183   5.046
90945SOL    HW174609  13.374   1.224   5.021
90945SOL    HW274610  13.282   1.203   5.139
90946SOL     OW74611   1.530   7.278   6.200
90946SOL    HW174612   1.450   7.294   6.250
90946SOL    HW274613   1.553   7.363   6.163
90947SOL     OW74614   2.770  11.027   6.295
90947SOL    HW174615   2.734  10.946   6.259
90947SOL    HW274616   2.731  11.096   6.241
90948SOL     OW74617  11.295  13.545  11.048
90948SOL    HW174618  11.246  13.505  10.976
90948SOL    HW274619  11.237  13.613  11.082
90949SOL     OW74620  13.461   7.197   7.912
90949SOL    HW174621  13.488   7.175   8.001
90949SOL    HW274622  13.431   7.114   7.875
90950SOL     OW74623   4.066  12.098   4.713
90950SOL    HW174624   4.002  12.160   4.679
90950SOL    HW274625   4.148  12.147   4.716
90951SOL     OW74626   2.394   2.868   4.955
90951SOL    HW174627   2.428   2.782   4.981
90951SOL    HW274628   2.455   2.898   4.888
90952SOL     OW74629  13.324   3.913   4.152
90952SOL    HW174630  13.244   3.869   4.123
90952SOL    HW274631  13.293   3.990   4.200
90953SOL     OW74632  11.826  11.939   2.393
90953SOL    HW174633  11.738  11.911   2.368
90953SOL    HW274634  11.819  11.960   2.486
90954SOL     OW74635   8.824   8.601  13.021
90954SOL    HW174636   8.775   8.531  13.064
90954SOL    HW274637   8.794   8.600  12.930
90955SOL     OW74638  11.761   3.611   1.693
90955SOL    HW174639  11.715   3.550   1.636
90955SOL    HW274640  11.820   3.556   1.744
90956SOL     OW74641  12.755  11.109  11.578
90956SOL    HW174642  12.787  11.022  11.555
90956SOL    HW274643  12.664  11.095  11.604
90957SOL     OW74644   9.183  11.683   6.769
90957SOL    HW174645   9.131  11.693   6.849
90957SOL    HW274646   9.164  11.593   6.740
90958SOL     OW74647  10.732   1.017   3.647
90958SOL    HW174648  10.804   0.958   3.624
90958SOL    HW274649  10.681   1.025   3.566
90959SOL     OW74650   7.317   0.103  10.987
90959SOL    HW174651   7.338   0.097  10.894
90959SOL    HW274652   7.224   0.081  10.992
90960SOL     OW74653   5.951   9.965   4.993
90960SOL    HW174654   5.997   9.929   5.070
90960SOL    HW274655   5.957  10.060   5.004
90961SOL     OW74656   7.186   1.405  13.463
90961SOL    HW174657   7.207   1.318  13.428
90961SOL    HW274658   7.099   1.424  13.427
90962SOL     OW74659   7.790   8.185  12.496
90962SOL    HW174660   7.868   8.166  12.444
90962SOL    HW274661   7.813   8.262  12.548
90963SOL     OW74662  14.407   7.114   7.186
90963SOL    HW174663  14.486   7.143   7.141
90963SOL    HW274664  14.369   7.048   7.127
90964SOL     OW74665   4.816   5.892   7.593
90964SOL    HW174666   4.753   5.904   7.664
90964SOL    HW274667   4.826   5.979   7.554
90965SOL     OW74668  12.719   3.610   0.528
90965SOL    HW174669  12.765   3.628   0.610
90965SOL    HW274670  12.761   3.531   0.494
90966SOL     OW74671   5.217   0.580   0.765
90966SOL    HW174672   5.143   0.602   0.708
90966SOL    HW274673   5.272   0.522   0.712
90967SOL     OW74674   0.481   8.358   0.997
90967SOL    HW174675   0.533   8.435   1.020
90967SOL    HW274676   0.544   8.285   1.000
90968SOL     OW74677   6.992   9.002  13.529
90968SOL    HW174678   6.980   9.076  13.469
90968SOL    HW274679   7.011   8.928  13.472
90969SOL     OW74680   6.167   8.217   5.596
90969SOL    HW174681   6.226   8.267   5.652
90969SOL    HW274682   6.123   8.282   5.542
90970SOL     OW74683   9.877   2.695  10.101
90970SOL    HW174684   9.897   2.707  10.009
90970SOL    HW274685   9.952   2.734  10.147
90971SOL     OW74686   6.195   6.579  10.208
90971SOL    HW174687   6.170   6.582  10.300
90971SOL    HW274688   6.212   6.487  10.190
90972SOL     OW74689  12.741   8.980   3.806
90972SOL    HW174690  12.666   8.989   3.747
90972SOL    HW274691  12.817   8.992   3.750
90973SOL     OW74692  10.235  11.675   4.331
90973SOL    HW174693  10.201  11.674   4.241
90973SOL    HW274694  10.273  11.588   4.343
90974SOL     OW74695  10.685   1.394   9.453
90974SOL    HW174696  10.721   1.452   9.385
90974SOL    HW274697  10.712   1.435   9.535
90975SOL     OW74698   7.763   7.831   7.659
90975SOL    HW174699   7.760   7.873   7.573
90975SOL    HW274700   7.831   7.764   7.650
90976SOL     OW74701  12.551   5.770   6.162
90976SOL    HW174702  12.483   5.830   6.131
90976SOL    HW274703  12.503   5.689   6.182
90977SOL     OW74704  13.470   8.283  10.882
90977SOL    HW174705  13.413   8.206  10.889
90977SOL    HW274706  13.550   8.251  10.840
90978SOL     OW74707   9.307   6.255   2.284
90978SOL    HW174708   9.255   6.294   2.355
90978SOL    HW274709   9.243   6.206   2.232
90979SOL     OW74710  12.760  10.642  10.384
90979SOL    HW174711  12.824  10.693  10.333
90979SOL    HW274712  12.809  10.564  10.411
90980SOL     OW74713   5.612   5.494   2.850
90980SOL    HW174714   5.674   5.566   2.858
90980SOL    HW274715   5.609   5.474   2.756
90981SOL     OW74716   2.513  14.077   9.807
90981SOL    HW174717   2.521  14.141   9.876
90981SOL    HW274718   2.420  14.052   9.807
90982SOL     OW74719  13.977   4.726  11.364
90982SOL    HW174720  14.046   4.681  11.314
90982SOL    HW274721  13.931   4.656  11.410
90983SOL     OW74722   7.810  10.785  11.063
90983SOL    HW174723   7.895  10.827  11.070
90983SOL    HW274724   7.826  10.694  11.091
90984SOL     OW74725   3.727   7.598   0.399
90984SOL    HW174726   3.761   7.510   0.417
90984SOL    HW274727   3.723   7.603   0.303
90985SOL     OW74728   1.654   2.076  12.165
90985SOL    HW174729   1.588   2.007  12.154
90985SOL    HW274730   1.709   2.044  12.236
90986SOL     OW74731   4.638   7.827   1.660
90986SOL    HW174732   4.551   7.834   1.619
90986SOL    HW274733   4.695   7.797   1.589
90987SOL     OW74734  10.054   0.020   1.002
90987SOL    HW174735   9.997  14.841   1.049
90987SOL    HW274736   9.995   0.073   0.948
90988SOL     OW74737   2.214   8.688  12.637
90988SOL    HW174738   2.134   8.736  12.618
90988SOL    HW274739   2.191   8.596  12.627
90989SOL     OW74740   5.419   9.796   5.738
90989SOL    HW174741   5.386   9.745   5.812
90989SOL    HW274742   5.384   9.884   5.753
90990SOL     OW74743   8.920  12.909   4.014
90990SOL    HW174744   8.982  12.974   4.046
90990SOL    HW274745   8.970  12.828   4.011
90991SOL     OW74746   3.497   6.994   2.436
90991SOL    HW174747   3.441   7.006   2.513
90991SOL    HW274748   3.452   6.926   2.385
90992SOL     OW74749   6.521  13.790   5.056
90992SOL    HW174750   6.487  13.869   5.014
90992SOL    HW274751   6.538  13.817   5.146
90993SOL     OW74752   1.004  14.720  13.806
90993SOL    HW174753   0.954  14.766  13.739
90993SOL    HW274754   0.942  14.657  13.843
90994SOL     OW74755   4.802   2.109   0.650
90994SOL    HW174756   4.749   2.087   0.726
90994SOL    HW274757   4.808   2.028   0.600
90995SOL     OW74758   7.906  10.479  14.014
90995SOL    HW174759   7.928  10.509  13.926
90995SOL    HW274760   7.812  10.462  14.010
90996SOL     OW74761   9.460   1.727   7.815
90996SOL    HW174762   9.466   1.667   7.741
90996SOL    HW274763   9.492   1.677   7.890
90997SOL     OW74764   2.968   7.617   0.747
90997SOL    HW174765   3.005   7.603   0.834
90997SOL    HW274766   2.896   7.678   0.762
90998SOL     OW74767   7.478  13.254   1.595
90998SOL    HW174768   7.453  13.344   1.617
90998SOL    HW274769   7.530  13.263   1.515
90999SOL     OW74770   3.869   7.580  12.828
90999SOL    HW174771   3.779   7.561  12.855
90999SOL    HW274772   3.921   7.510  12.867
91000SOL     OW74773   6.283  11.843   4.386
91000SOL    HW174774   6.353  11.878   4.442
91000SOL    HW274775   6.207  11.898   4.405
91001SOL     OW74776  13.171   3.024  11.528
91001SOL    HW174777  13.222   2.971  11.467
91001SOL    HW274778  13.232   3.091  11.558
91002SOL     OW74779  11.942  11.497  14.446
91002SOL    HW174780  12.036  11.516  14.444
91002SOL    HW274781  11.902  11.571  14.401
91003SOL     OW74782   5.051   7.015   0.006
91003SOL    HW174783   4.992   6.940  14.880
91003SOL    HW274784   5.012   7.069   0.075
91004SOL     OW74785   9.281   6.398   7.512
91004SOL    HW174786   9.208   6.358   7.465
91004SOL    HW274787   9.346   6.328   7.519
91005SOL     OW74788  13.162  14.750   0.172
91005SOL    HW174789  13.080  14.782   0.135
91005SOL    HW274790  13.145  14.657   0.190
91006SOL     OW74791   9.034   8.522   5.663
91006SOL    HW174792   8.992   8.504   5.747
91006SOL    HW274793   8.974   8.581   5.618
91007SOL     OW74794  11.304  13.271  11.251
91007SOL    HW174795  11.369  13.227  11.307
91007SOL    HW274796  11.274  13.346  11.304
91008SOL     OW74797   0.225  13.271   3.361
91008SOL    HW174798   0.185  13.357   3.374
91008SOL    HW274799   0.294  13.266   3.427
91009SOL     OW74800  11.290   4.518   7.782
91009SOL    HW174801  11.300   4.471   7.864
91009SOL    HW274802  11.282   4.449   7.716
91010SOL     OW74803   6.300   7.028  13.411
91010SOL    HW174804   6.313   6.940  13.445
91010SOL    HW274805   6.344   7.027  13.326
91011SOL     OW74806  11.518   8.264   0.853
91011SOL    HW174807  11.595   8.219   0.818
91011SOL    HW274808  11.518   8.243   0.946
91012SOL     OW74809   8.821   2.517   1.004
91012SOL    HW174810   8.777   2.551   1.082
91012SOL    HW274811   8.773   2.438   0.981
91013SOL     OW74812  13.540   0.962   7.951
91013SOL    HW174813  13.568   0.871   7.946
91013SOL    HW274814  13.594   1.000   8.020
91014SOL     OW74815   1.183  10.176   7.697
91014SOL    HW174816   1.088  10.178   7.688
91014SOL    HW274817   1.205  10.083   7.699
91015SOL     OW74818   5.094   5.672  12.712
91015SOL    HW174819   5.161   5.726  12.755
91015SOL    HW274820   5.070   5.721  12.634
91016SOL     OW74821  13.984   8.035  12.445
91016SOL    HW174822  13.989   7.952  12.397
91016SOL    HW274823  13.902   8.030  12.494
91017SOL     OW74824   4.268  10.272  12.567
91017SOL    HW174825   4.222  10.337  12.512
91017SOL    HW274826   4.217  10.269  12.648
91018SOL     OW74827   0.584   2.780  13.302
91018SOL    HW174828   0.638   2.733  13.366
91018SOL    HW274829   0.561   2.714  13.237
91019SOL     OW74830  11.004   9.477   9.595
91019SOL    HW174831  11.028   9.568   9.580
91019SOL    HW274832  10.914   9.470   9.563
91020SOL     OW74833   5.206   9.165   3.209
91020SOL    HW174834   5.133   9.166   3.147
91020SOL    HW274835   5.265   9.233   3.177
91021SOL     OW74836   3.779   5.182  11.898
91021SOL    HW174837   3.739   5.146  11.977
91021SOL    HW274838   3.808   5.106  11.848
91022SOL     OW74839   0.722   0.002   6.516
91022SOL    HW174840   0.805   0.027   6.476
91022SOL    HW274841   0.708   0.065   6.587
91023SOL     OW74842  11.939   5.042   1.044
91023SOL    HW174843  11.908   5.094   0.969
91023SOL    HW274844  11.879   5.066   1.115
91024SOL     OW74845   0.154  13.024   6.449
91024SOL    HW174846   0.089  12.967   6.409
91024SOL    HW274847   0.123  13.037   6.539
91025SOL     OW74848  13.466   5.850   6.871
91025SOL    HW174849  13.524   5.838   6.947
91025SOL    HW274850  13.433   5.762   6.852
91026SOL     OW74851   0.436  12.098   2.726
91026SOL    HW174852   0.492  12.168   2.760
91026SOL    HW274853   0.486  12.061   2.653
91027SOL     OW74854   7.806  12.427   6.660
91027SOL    HW174855   7.729  12.473   6.627
91027SOL    HW274856   7.792  12.422   6.755
91028SOL     OW74857   3.825  10.367  12.042
91028SOL    HW174858   3.890  10.370  12.112
91028SOL    HW274859   3.858  10.302  11.980
91029SOL     OW74860  12.979  14.786  10.048
91029SOL    HW174861  12.911  14.754   9.989
91029SOL    HW274862  12.990  14.878  10.024
91030SOL     OW74863   6.624   4.968  13.079
91030SOL    HW174864   6.623   4.939  12.988
91030SOL    HW274865   6.532   4.974  13.103
91031SOL     OW74866   1.373  13.575   4.833
91031SOL    HW174867   1.349  13.629   4.908
91031SOL    HW274868   1.349  13.628   4.757
91032SOL     OW74869  14.788   3.505  13.742
91032SOL    HW174870  14.850   3.485  13.813
91032SOL    HW274871  14.844   3.518  13.665
91033SOL     OW74872   1.815   4.025  10.274
91033SOL    HW174873   1.824   4.085  10.348
91033SOL    HW274874   1.735   4.053  10.229
91034SOL     OW74875   0.774   1.506   7.664
91034SOL    HW174876   0.758   1.589   7.620
91034SOL    HW274877   0.692   1.457   7.652
91035SOL     OW74878   5.149  10.748   9.367
91035SOL    HW174879   5.188  10.820   9.319
91035SOL    HW274880   5.181  10.669   9.324
91036SOL     OW74881   6.814   0.768  10.184
91036SOL    HW174882   6.813   0.688  10.131
91036SOL    HW274883   6.889   0.756  10.243
91037SOL     OW74884  11.784  10.877   6.147
91037SOL    HW174885  11.689  10.872   6.145
91037SOL    HW274886  11.814  10.796   6.106
91038SOL     OW74887   3.326  12.038   7.158
91038SOL    HW174888   3.251  12.087   7.122
91038SOL    HW274889   3.378  12.104   7.203
91039SOL     OW74890  11.929   1.100   3.861
91039SOL    HW174891  11.877   1.060   3.791
91039SOL    HW274892  11.968   1.027   3.908
91040SOL     OW74893  11.192  12.581  13.214
91040SOL    HW174894  11.204  12.672  13.186
91040SOL    HW274895  11.250  12.570  13.289
91041SOL     OW74896  10.236   0.460  11.998
91041SOL    HW174897  10.224   0.551  11.971
91041SOL    HW274898  10.148   0.427  12.013
91042SOL     OW74899   3.794  11.069   7.014
91042SOL    HW174900   3.705  11.100   6.998
91042SOL    HW274901   3.850  11.142   6.988
91043SOL     OW74902  11.045   4.583   7.189
91043SOL    HW174903  11.049   4.655   7.252
91043SOL    HW274904  11.060   4.505   7.241
91044SOL     OW74905   3.575  11.734  11.773
91044SOL    HW174906   3.496  11.742  11.827
91044SOL    HW274907   3.582  11.640  11.756
91045SOL     OW74908  12.818   3.192  14.592
91045SOL    HW174909  12.808   3.148  14.676
91045SOL    HW274910  12.842   3.282  14.615
91046SOL     OW74911   5.177   0.566   5.868
91046SOL    HW174912   5.259   0.517   5.860
91046SOL    HW274913   5.173   0.591   5.960
91047SOL     OW74914  13.966   3.678   9.826
91047SOL    HW174915  13.880   3.717   9.842
91047SOL    HW274916  13.978   3.616   9.898
91048SOL     OW74917   0.649   8.552   6.439
91048SOL    HW174918   0.616   8.488   6.375
91048SOL    HW274919   0.696   8.616   6.387
91049SOL     OW74920  11.423  11.116   4.862
91049SOL    HW174921  11.435  11.110   4.957
91049SOL    HW274922  11.478  11.046   4.827
91050SOL     OW74923  10.670   4.231   9.651
91050SOL    HW174924  10.594   4.238   9.709
91050SOL    HW274925  10.705   4.320   9.647
91051SOL     OW74926   8.926   7.568  14.555
91051SOL    HW174927   8.950   7.493  14.502
91051SOL    HW274928   8.981   7.639  14.522
91052SOL     OW74929   0.380   5.821   1.489
91052SOL    HW174930   0.379   5.859   1.577
91052SOL    HW274931   0.461   5.770   1.486
91053SOL     OW74932  11.134  12.530   5.946
91053SOL    HW174933  11.074  12.458   5.968
91053SOL    HW274934  11.156  12.570   6.030
91054SOL     OW74935  14.247   2.856   1.964
91054SOL    HW174936  14.306   2.898   2.027
91054SOL    HW274937  14.294   2.779   1.934
91055SOL     OW74938   2.209  13.380  13.044
91055SOL    HW174939   2.198  13.405  13.136
91055SOL    HW274940   2.207  13.284  13.044
91056SOL     OW74941   0.111  12.471   6.543
91056SOL    HW174942   0.060  12.465   6.624
91056SOL    HW274943   0.166  12.549   6.554
91057SOL     OW74944  12.758   6.637  13.234
91057SOL    HW174945  12.741   6.695  13.308
91057SOL    HW274946  12.825   6.577  13.266
91058SOL     OW74947   8.874   6.534   7.100
91058SOL    HW174948   8.789   6.543   7.057
91058SOL    HW274949   8.890   6.620   7.139
91059SOL     OW74950   3.269   9.600   2.097
91059SOL    HW174951   3.249   9.512   2.131
91059SOL    HW274952   3.195   9.654   2.124
91060SOL     OW74953  14.201  10.883   3.747
91060SOL    HW174954  14.269  10.832   3.702
91060SOL    HW274955  14.234  10.973   3.745
91061SOL     OW74956  10.399  13.297   4.472
91061SOL    HW174957  10.452  13.374   4.493
91061SOL    HW274958  10.420  13.278   4.381
91062SOL     OW74959   5.319  12.660   9.109
91062SOL    HW174960   5.355  12.683   9.024
91062SOL    HW274961   5.325  12.564   9.113
91063SOL     OW74962  13.077   2.960   1.080
91063SOL    HW174963  13.075   3.055   1.094
91063SOL    HW274964  13.121   2.926   1.158
91064SOL     OW74965   9.272   2.119   7.107
91064SOL    HW174966   9.332   2.192   7.122
91064SOL    HW274967   9.304   2.051   7.166
91065SOL     OW74968   1.538   5.347   5.315
91065SOL    HW174969   1.615   5.291   5.312
91065SOL    HW274970   1.484   5.319   5.241
91066SOL     OW74971   4.274  13.522  14.505
91066SOL    HW174972   4.296  13.612  14.481
91066SOL    HW274973   4.357  13.482  14.530
91067SOL     OW74974   9.439   3.316   8.061
91067SOL    HW174975   9.524   3.306   8.019
91067SOL    HW274976   9.376   3.318   7.989
91068SOL     OW74977   1.949   1.264   2.408
91068SOL    HW174978   1.986   1.196   2.353
91068SOL    HW274979   1.997   1.257   2.491
91069SOL     OW74980  10.482   3.219   3.260
91069SOL    HW174981  10.504   3.312   3.261
91069SOL    HW274982  10.516   3.185   3.343
91070SOL     OW74983   5.248   3.587  14.117
91070SOL    HW174984   5.239   3.583  14.213
91070SOL    HW274985   5.261   3.496  14.090
91071SOL     OW74986  10.604   0.501  11.640
91071SOL    HW174987  10.530   0.469  11.693
91071SOL    HW274988  10.567   0.519  11.554
91072SOL     OW74989  11.516   9.098  11.763
91072SOL    HW174990  11.513   9.029  11.829
91072SOL    HW274991  11.539   9.177  11.812
91073SOL     OW74992   8.159   4.558   1.280
91073SOL    HW174993   8.069   4.555   1.247
91073SOL    HW274994   8.213   4.578   1.204
91074SOL     OW74995  13.765  14.730  11.185
91074SOL    HW174996  13.696  14.760  11.244
91074SOL    HW274997  13.791  14.645  11.220
91075SOL     OW74998   7.698   9.375   3.070
91075SOL    HW174999   7.681   9.283   3.049
91075SOL    HW275000   7.757   9.406   3.002
91076SOL     OW75001  10.793  11.823  13.389
91076SOL    HW175002  10.868  11.803  13.333
91076SOL    HW275003  10.817  11.789  13.475
91077SOL     OW75004  11.595   9.056   0.878
91077SOL    HW175005  11.627   9.127   0.822
91077SOL    HW275006  11.519   9.022   0.832
91078SOL     OW75007  14.858   9.498   0.743
91078SOL    HW175008  14.783   9.488   0.801
91078SOL    HW275009   0.052   9.507   0.802
91079SOL     OW75010   1.491   7.818   3.075
91079SOL    HW175011   1.535   7.739   3.105
91079SOL    HW275012   1.552   7.858   3.013
91080SOL     OW75013   2.393   2.404  13.268
91080SOL    HW175014   2.411   2.489  13.227
91080SOL    HW275015   2.314   2.373  13.224
91081SOL     OW75016   6.862   7.046  12.243
91081SOL    HW175017   6.815   7.073  12.164
91081SOL    HW275018   6.819   7.093  12.314
91082SOL     OW75019   7.042   5.613   2.072
91082SOL    HW175020   7.117   5.560   2.044
91082SOL    HW275021   7.045   5.610   2.167
91083SOL     OW75022  14.449   9.126   2.373
91083SOL    HW175023  14.375   9.069   2.352
91083SOL    HW275024  14.429   9.160   2.460
91084SOL     OW75025  11.500   1.513   8.320
91084SOL    HW175026  11.492   1.587   8.260
91084SOL    HW275027  11.577   1.466   8.289
91085SOL     OW75028   5.194   7.966   9.199
91085SOL    HW175029   5.192   7.873   9.177
91085SOL    HW275030   5.130   7.976   9.270
91086SOL     OW75031   1.775   2.498  11.800
91086SOL    HW175032   1.775   2.496  11.896
91086SOL    HW275033   1.800   2.409  11.774
91087SOL     OW75034   4.494   5.736  10.458
91087SOL    HW175035   4.428   5.698  10.516
91087SOL    HW275036   4.578   5.710  10.496
91088SOL     OW75037   8.700  14.780   0.385
91088SOL    HW175038   8.696  14.839   0.310
91088SOL    HW275039   8.751  14.828   0.451
91089SOL     OW75040   4.470   2.866   5.435
91089SOL    HW175041   4.513   2.952   5.432
91089SOL    HW275042   4.423   2.860   5.352
91090SOL     OW75043  12.322   2.083   0.033
91090SOL    HW175044  12.325   2.139  14.838
91090SOL    HW275045  12.281   2.002   0.002
91091SOL     OW75046  12.147   6.400   0.946
91091SOL    HW175047  12.112   6.455   0.876
91091SOL    HW275048  12.069   6.357   0.983
91092SOL     OW75049   2.811  13.100  14.086
91092SOL    HW175050   2.813  13.176  14.144
91092SOL    HW275051   2.881  13.043  14.118
91093SOL     OW75052   7.040   8.169  12.856
91093SOL    HW175053   7.029   8.077  12.880
91093SOL    HW275054   7.011   8.174  12.765
91094SOL     OW75055   0.043   1.249   5.043
91094SOL    HW175056   0.048   1.159   5.076
91094SOL    HW275057  14.856   1.246   4.975
91095SOL     OW75058   5.053  14.164  10.415
91095SOL    HW175059   5.125  14.222  10.440
91095SOL    HW275060   4.976  14.220  10.415
91096SOL     OW75061   6.105   9.706  11.190
91096SOL    HW175062   6.040   9.693  11.121
91096SOL    HW275063   6.167   9.634  11.178
91097SOL     OW75064  12.262   7.822   9.865
91097SOL    HW175065  12.312   7.860   9.794
91097SOL    HW275066  12.232   7.896   9.917
91098SOL     OW75067  12.533   8.324   2.431
91098SOL    HW175068  12.472   8.250   2.431
91098SOL    HW275069  12.601   8.298   2.493
91099SOL     OW75070  13.670  10.345   8.658
91099SOL    HW175071  13.585  10.351   8.702
91099SOL    HW275072  13.651  10.310   8.571
91100SOL     OW75073  11.250   5.628   9.196
91100SOL    HW175074  11.297   5.545   9.186
91100SOL    HW275075  11.301   5.690   9.144
91101SOL     OW75076   8.329   6.944  13.910
91101SOL    HW175077   8.398   6.994  13.955
91101SOL    HW275078   8.369   6.859  13.893
91102SOL     OW75079   8.195   4.011   2.071
91102SOL    HW175080   8.182   3.920   2.044
91102SOL    HW275081   8.289   4.017   2.091
91103SOL     OW75082   3.122   2.287   4.348
91103SOL    HW175083   3.105   2.339   4.426
91103SOL    HW275084   3.056   2.315   4.285
91104SOL     OW75085   3.035   7.084   1.537
91104SOL    HW175086   2.979   7.148   1.492
91104SOL    HW275087   3.087   7.137   1.598
91105SOL     OW75088   9.523   8.207   8.235
91105SOL    HW175089   9.457   8.272   8.215
91105SOL    HW275090   9.508   8.185   8.327
91106SOL     OW75091   6.272  13.818   2.405
91106SOL    HW175092   6.364  13.793   2.419
91106SOL    HW275093   6.262  13.901   2.451
91107SOL     OW75094   8.170   6.492   0.303
91107SOL    HW175095   8.085   6.529   0.327
91107SOL    HW275096   8.192   6.534   0.220
91108SOL     OW75097  10.924   2.313   3.462
91108SOL    HW175098  10.899   2.241   3.404
91108SOL    HW275099  11.014   2.333   3.437
91109SOL     OW75100  10.563   5.745  12.759
91109SOL    HW175101  10.550   5.816  12.822
91109SOL    HW275102  10.548   5.665  12.809
91110SOL     OW75103   4.151  11.578   4.193
91110SOL    HW175104   4.203  11.658   4.185
91110SOL    HW275105   4.063  11.605   4.169
91111SOL     OW75106  13.908  11.142   3.822
91111SOL    HW175107  13.947  11.064   3.860
91111SOL    HW275108  13.829  11.157   3.873
91112SOL     OW75109  10.952  12.026   9.093
91112SOL    HW175110  10.987  12.115   9.094
91112SOL    HW275111  10.993  11.984   9.018
91113SOL     OW75112   8.787   4.352   3.615
91113SOL    HW175113   8.717   4.288   3.621
91113SOL    HW275114   8.768   4.401   3.536
91114SOL     OW75115   6.047   8.595   5.566
91114SOL    HW175116   6.125   8.561   5.523
91114SOL    HW275117   5.975   8.574   5.506
91115SOL     OW75118   6.540  12.222   7.167
91115SOL    HW175119   6.614  12.184   7.121
91115SOL    HW275120   6.525  12.306   7.124
91116SOL     OW75121   1.709   3.920  11.232
91116SOL    HW175122   1.622   3.958  11.245
91116SOL    HW275123   1.758   3.945  11.310
91117SOL     OW75124   2.284  12.283  13.339
91117SOL    HW175125   2.243  12.368  13.324
91117SOL    HW275126   2.269  12.234  13.258
91118SOL     OW75127   8.489   4.311   7.028
91118SOL    HW175128   8.448   4.294   6.943
91118SOL    HW275129   8.491   4.226   7.071
91119SOL     OW75130   3.104   5.269   0.508
91119SOL    HW175131   3.117   5.363   0.521
91119SOL    HW275132   3.188   5.230   0.534
91120SOL     OW75133   5.796   0.559   1.246
91120SOL    HW175134   5.860   0.505   1.200
91120SOL    HW275135   5.838   0.645   1.254
91121SOL     OW75136  13.494  13.730   2.920
91121SOL    HW175137  13.400  13.723   2.909
91121SOL    HW275138  13.506  13.785   2.997
91122SOL     OW75139   5.715   2.784  13.707
91122SOL    HW175140   5.787   2.825  13.660
91122SOL    HW275141   5.670   2.732  13.641
91123SOL     OW75142   0.306  11.496  14.739
91123SOL    HW175143   0.282  11.404  14.731
91123SOL    HW275144   0.359  11.500  14.819
91124SOL     OW75145   1.098  14.501  10.764
91124SOL    HW175146   1.100  14.494  10.669
91124SOL    HW275147   1.005  14.512  10.785
91125SOL     OW75148   5.828   5.205   4.068
91125SOL    HW175149   5.880   5.267   4.017
91125SOL    HW275150   5.777   5.158   4.002
91126SOL     OW75151   0.397   8.195  14.286
91126SOL    HW175152   0.378   8.109  14.248
91126SOL    HW275153   0.473   8.227  14.236
91127SOL     OW75154  11.030   2.756  12.189
91127SOL    HW175155  11.008   2.682  12.132
91127SOL    HW275156  11.125   2.765  12.180
91128SOL     OW75157  14.589  12.369   0.729
91128SOL    HW175158  14.683  12.368   0.712
91128SOL    HW275159  14.581  12.358   0.824
91129SOL     OW75160  14.197  10.945   6.515
91129SOL    HW175161  14.187  11.036   6.541
91129SOL    HW275162  14.255  10.907   6.581
91130SOL     OW75163   4.840   0.465   0.371
91130SOL    HW175164   4.753   0.498   0.392
91130SOL    HW275165   4.830   0.426   0.284
91131SOL     OW75166  13.054  14.177   9.009
91131SOL    HW175167  13.133  14.224   9.036
91131SOL    HW275168  13.087  14.102   8.959
91132SOL     OW75169  10.724  14.295   7.106
91132SOL    HW175170  10.809  14.325   7.140
91132SOL    HW275171  10.736  14.202   7.090
91133SOL     OW75172   1.802  12.647   4.713
91133SOL    HW175173   1.854  12.725   4.696
91133SOL    HW275174   1.866  12.576   4.714
91134SOL     OW75175  13.966  13.922   1.448
91134SOL    HW175176  14.032  13.986   1.422
91134SOL    HW275177  13.990  13.842   1.401
91135SOL     OW75178   9.569  10.914   5.505
91135SOL    HW175179   9.573  10.865   5.586
91135SOL    HW275180   9.498  10.977   5.518
91136SOL     OW75181  11.758   0.450   0.069
91136SOL    HW175182  11.740   0.532   0.023
91136SOL    HW275183  11.803   0.396   0.004
91137SOL     OW75184   0.207   7.134   5.282
91137SOL    HW175185   0.208   7.223   5.248
91137SOL    HW275186   0.238   7.080   5.209
91138SOL     OW75187   6.782  13.618   6.258
91138SOL    HW175188   6.705  13.563   6.275
91138SOL    HW275189   6.773  13.645   6.167
91139SOL     OW75190   8.410  11.018   3.046
91139SOL    HW175191   8.408  11.008   2.951
91139SOL    HW275192   8.481  10.961   3.075
91140SOL     OW75193   8.370  11.985   0.158
91140SOL    HW175194   8.451  12.032   0.135
91140SOL    HW275195   8.301  12.050   0.150
91141SOL     OW75196   1.476   8.883   6.413
91141SOL    HW175197   1.478   8.950   6.482
91141SOL    HW275198   1.557   8.897   6.364
91142SOL     OW75199  11.206   1.740   5.217
91142SOL    HW175200  11.216   1.741   5.122
91142SOL    HW275201  11.188   1.831   5.240
91143SOL     OW75202  12.665   5.433  14.149
91143SOL    HW175203  12.749   5.389  14.141
91143SOL    HW275204  12.609   5.369  14.195
91144SOL     OW75205   5.112   2.917   6.306
91144SOL    HW175206   5.052   2.878   6.370
91144SOL    HW275207   5.058   2.933   6.229
91145SOL     OW75208   4.604   4.258   9.679
91145SOL    HW175209   4.662   4.333   9.667
91145SOL    HW275210   4.657   4.182   9.658
91146SOL     OW75211   6.939   3.760  10.286
91146SOL    HW175212   6.931   3.686  10.346
91146SOL    HW275213   6.849   3.789  10.272
91147SOL     OW75214  14.648  12.600  14.762
91147SOL    HW175215  14.666  12.643  14.679
91147SOL    HW275216  14.636  12.507  14.740
91148SOL     OW75217   8.237   5.840   2.428
91148SOL    HW175218   8.283   5.893   2.494
91148SOL    HW275219   8.187   5.777   2.479
91149SOL     OW75220   0.033   3.027   0.830
91149SOL    HW175221  14.881   3.085   0.761
91149SOL    HW275222   0.029   2.939   0.792
91150SOL     OW75223  12.303  12.157   3.986
91150SOL    HW175224  12.270  12.192   3.904
91150SOL    HW275225  12.289  12.062   3.980
91151SOL     OW75226   5.791   3.952   5.981
91151SOL    HW175227   5.732   3.886   6.015
91151SOL    HW275228   5.878   3.911   5.982
91152SOL     OW75229   3.387   0.445   4.909
91152SOL    HW175230   3.301   0.484   4.897
91152SOL    HW275231   3.392   0.428   5.004
91153SOL     OW75232   6.024  13.218   5.390
91153SOL    HW175233   6.044  13.178   5.474
91153SOL    HW275234   5.929  13.221   5.386
91154SOL     OW75235   0.407   5.518   2.848
91154SOL    HW175236   0.399   5.532   2.942
91154SOL    HW275237   0.390   5.604   2.809
91155SOL     OW75238   9.506  13.861  10.782
91155SOL    HW175239   9.483  13.792  10.845
91155SOL    HW275240   9.467  13.940  10.818
91156SOL     OW75241   0.434   6.206   3.001
91156SOL    HW175242   0.422   6.211   3.095
91156SOL    HW275243   0.471   6.119   2.985
91157SOL     OW75244   5.048   3.947   5.991
91157SOL    HW175245   5.111   4.013   6.019
91157SOL    HW275246   4.973   3.996   5.958
91158SOL     OW75247  12.576  12.312   8.134
91158SOL    HW175248  12.626  12.235   8.105
91158SOL    HW275249  12.590  12.377   8.066
91159SOL     OW75250   2.215  10.222   5.870
91159SOL    HW175251   2.296  10.202   5.823
91159SOL    HW275252   2.148  10.225   5.801
91160SOL     OW75253   9.403   8.791  14.508
91160SOL    HW175254   9.424   8.701  14.482
91160SOL    HW275255   9.488   8.835  14.510
91161SOL     OW75256   9.046   0.525   4.873
91161SOL    HW175257   9.093   0.442   4.865
91161SOL    HW275258   8.984   0.511   4.944
91162SOL     OW75259   6.911   3.489   5.257
91162SOL    HW175260   6.936   3.479   5.166
91162SOL    HW275261   6.842   3.555   5.257
91163SOL     OW75262   1.706   2.111  10.487
91163SOL    HW175263   1.801   2.106  10.471
91163SOL    HW275264   1.668   2.127  10.401
91164SOL     OW75265   4.482   7.023   2.444
91164SOL    HW175266   4.488   7.107   2.399
91164SOL    HW275267   4.550   7.027   2.512
91165SOL     OW75268   3.220  13.618   4.370
91165SOL    HW175269   3.240  13.611   4.277
91165SOL    HW275270   3.125  13.621   4.374
91166SOL     OW75271   3.549   5.698  12.331
91166SOL    HW175272   3.484   5.673  12.265
91166SOL    HW275273   3.515   5.662  12.413
91167SOL     OW75274   2.750  10.141   8.006
91167SOL    HW175275   2.821  10.101   8.058
91167SOL    HW275276   2.704  10.066   7.967
91168SOL     OW75277  11.474   0.184   6.662
91168SOL    HW175278  11.492   0.101   6.618
91168SOL    HW275279  11.538   0.245   6.625
91169SOL     OW75280  13.035  12.171   0.652
91169SOL    HW175281  13.121  12.141   0.681
91169SOL    HW275282  13.054  12.234   0.583
91170SOL     OW75283   2.157  11.734   3.448
91170SOL    HW175284   2.165  11.748   3.542
91170SOL    HW275285   2.103  11.806   3.417
91171SOL     OW75286   7.393   7.974  14.036
91171SOL    HW175287   7.381   7.986  13.942
91171SOL    HW275288   7.394   8.062  14.072
91172SOL     OW75289  12.727   4.697   8.892
91172SOL    HW175290  12.674   4.661   8.963
91172SOL    HW275291  12.786   4.760   8.934
91173SOL     OW75292   4.207  14.720  13.515
91173SOL    HW175293   4.239  14.690  13.600
91173SOL    HW275294   4.111  14.717  13.523
91174SOL     OW75295   2.146   4.327   6.718
91174SOL    HW175296   2.122   4.312   6.810
91174SOL    HW275297   2.087   4.270   6.669
91175SOL     OW75298  10.367   6.513   3.802
91175SOL    HW175299  10.320   6.595   3.792
91175SOL    HW275300  10.456   6.533   3.773
91176SOL     OW75301   2.579  11.807  14.563
91176SOL    HW175302   2.664  11.764  14.565
91176SOL    HW275303   2.574  11.847  14.476
91177SOL     OW75304  14.714   4.422  11.242
91177SOL    HW175305  14.725   4.377  11.159
91177SOL    HW275306  14.803   4.437  11.274
91178SOL     OW75307  12.941   2.659   7.756
91178SOL    HW175308  12.892   2.593   7.707
91178SOL    HW275309  13.032   2.631   7.750
91179SOL     OW75310   1.595   4.990   1.780
91179SOL    HW175311   1.539   5.048   1.832
91179SOL    HW275312   1.543   4.910   1.769
91180SOL     OW75313   3.527   1.514   5.371
91180SOL    HW175314   3.585   1.519   5.295
91180SOL    HW275315   3.443   1.485   5.335
91181SOL     OW75316   8.930  11.354   8.019
91181SOL    HW175317   8.839  11.328   8.033
91181SOL    HW275318   8.972  11.278   7.979
91182SOL     OW75319   4.366   9.216  14.685
91182SOL    HW175320   4.330   9.177  14.605
91182SOL    HW275321   4.407   9.297  14.656
91183SOL     OW75322  13.764   2.410   2.341
91183SOL    HW175323  13.721   2.490   2.371
91183SOL    HW275324  13.764   2.353   2.418
91184SOL     OW75325  13.528   8.757   3.896
91184SOL    HW175326  13.510   8.742   3.804
91184SOL    HW275327  13.462   8.821   3.924
91185SOL     OW75328   7.803   9.522   6.191
91185SOL    HW175329   7.824   9.475   6.272
91185SOL    HW275330   7.822   9.460   6.121
91186SOL     OW75331  13.623   4.061  12.345
91186SOL    HW175332  13.635   3.980  12.395
91186SOL    HW275333  13.579   4.121  12.406
91187SOL     OW75334  12.185   7.341   8.471
91187SOL    HW175335  12.125   7.413   8.451
91187SOL    HW275336  12.242   7.375   8.539
91188SOL     OW75337   6.008   3.889  12.903
91188SOL    HW175338   5.972   3.816  12.953
91188SOL    HW275339   5.943   3.907  12.835
91189SOL     OW75340  12.262   1.948   1.111
91189SOL    HW175341  12.325   1.973   1.044
91189SOL    HW275342  12.289   1.996   1.190
91190SOL     OW75343  12.420   2.030   2.507
91190SOL    HW175344  12.396   1.992   2.423
91190SOL    HW275345  12.387   1.967   2.572
91191SOL     OW75346   3.551   1.098   2.424
91191SOL    HW175347   3.509   1.098   2.510
91191SOL    HW275348   3.578   1.189   2.410
91192SOL     OW75349  10.982  12.441   8.253
91192SOL    HW175350  10.975  12.352   8.288
91192SOL    HW275351  10.934  12.438   8.170
91193SOL     OW75352   3.711   1.675   3.542
91193SOL    HW175353   3.702   1.770   3.545
91193SOL    HW275354   3.647   1.647   3.477
91194SOL     OW75355   5.017   3.113   3.972
91194SOL    HW175356   5.038   3.130   3.880
91194SOL    HW275357   5.059   3.185   4.019
91195SOL     OW75358   7.614  10.307   1.550
91195SOL    HW175359   7.544  10.246   1.572
91195SOL    HW275360   7.678  10.298   1.620
91196SOL     OW75361  14.627   7.570   6.589
91196SOL    HW175362  14.707   7.621   6.598
91196SOL    HW275363  14.590   7.598   6.506
91197SOL     OW75364   6.931   8.211   1.833
91197SOL    HW175365   6.885   8.184   1.753
91197SOL    HW275366   6.876   8.279   1.871
91198SOL     OW75367  11.753   2.264   3.552
91198SOL    HW175368  11.773   2.356   3.571
91198SOL    HW275369  11.759   2.258   3.456
91199SOL     OW75370   3.195  14.809   1.730
91199SOL    HW175371   3.106  14.782   1.751
91199SOL    HW275372   3.193  14.830   1.637
91200SOL     OW75373  14.853   3.497  12.443
91200SOL    HW175374  14.783   3.466  12.501
91200SOL    HW275375  14.857   3.592  12.460
91201SOL     OW75376   8.005  12.835   2.677
91201SOL    HW175377   7.960  12.781   2.742
91201SOL    HW275378   8.081  12.871   2.724
91202SOL     OW75379   8.427  10.143  10.148
91202SOL    HW175380   8.413  10.089  10.071
91202SOL    HW275381   8.495  10.097  10.197
91203SOL     OW75382   9.130   9.815  10.801
91203SOL    HW175383   9.128   9.910  10.799
91203SOL    HW275384   9.066   9.791  10.869
91204SOL     OW75385  14.876   0.671   8.134
91204SOL    HW175386  14.847   0.585   8.165
91204SOL    HW275387  14.796   0.725   8.134
91205SOL     OW75388  11.131   2.098  12.349
91205SOL    HW175389  11.054   2.082  12.294
91205SOL    HW275390  11.098   2.098  12.438
91206SOL     OW75391   2.043   7.571   5.178
91206SOL    HW175392   2.090   7.654   5.176
91206SOL    HW275393   1.950   7.597   5.179
91207SOL     OW75394  11.435   7.634   4.049
91207SOL    HW175395  11.486   7.566   4.093
91207SOL    HW275396  11.344   7.607   4.061
91208SOL     OW75397   6.889   5.040   8.413
91208SOL    HW175398   6.919   4.988   8.338
91208SOL    HW275399   6.851   4.976   8.473
91209SOL     OW75400   3.331   6.998   2.707
91209SOL    HW175401   3.302   6.922   2.655
91209SOL    HW275402   3.250   7.043   2.729
91210SOL     OW75403   9.537   2.669  10.818
91210SOL    HW175404   9.528   2.660  10.913
91210SOL    HW275405   9.615   2.619  10.796
91211SOL     OW75406   8.725  14.608   6.228
91211SOL    HW175407   8.734  14.561   6.311
91211SOL    HW275408   8.689  14.693   6.253
91212SOL     OW75409   1.181  12.147   0.086
91212SOL    HW175410   1.239  12.104   0.149
91212SOL    HW275411   1.239  12.204   0.035
91213SOL     OW75412  10.073   1.460   0.165
91213SOL    HW175413  10.133   1.472   0.239
91213SOL    HW275414  10.092   1.372   0.132
91214SOL     OW75415   9.718   7.536   9.980
91214SOL    HW175416   9.646   7.490   9.937
91214SOL    HW275417   9.674   7.597  10.040
91215SOL     OW75418   5.908  13.488   3.118
91215SOL    HW175419   5.887  13.439   3.198
91215SOL    HW275420   5.844  13.458   3.054
91216SOL     OW75421  14.732  10.476   5.509
91216SOL    HW175422  14.692  10.556   5.543
91216SOL    HW275423  14.757  10.498   5.420
91217SOL     OW75424   4.193   7.796   0.010
91217SOL    HW175425   4.235   7.741  14.825
91217SOL    HW275426   4.258   7.863   0.032
91218SOL     OW75427  13.795   9.269   3.955
91218SOL    HW175428  13.772   9.317   4.035
91218SOL    HW275429  13.789   9.177   3.980
91219SOL     OW75430   5.367   5.366  13.853
91219SOL    HW175431   5.303   5.365  13.782
91219SOL    HW275432   5.451   5.377  13.808
91220SOL     OW75433   1.444   9.733  12.046
91220SOL    HW175434   1.437   9.785  11.965
91220SOL    HW275435   1.498   9.787  12.104
91221SOL     OW75436   1.422   1.088  11.345
91221SOL    HW175437   1.473   1.143  11.404
91221SOL    HW275438   1.445   1.119  11.257
91222SOL     OW75439  10.824   4.717   9.121
91222SOL    HW175440  10.907   4.687   9.159
91222SOL    HW275441  10.787   4.775   9.188
91223SOL     OW75442   5.274   1.379   9.945
91223SOL    HW175443   5.198   1.329   9.975
91223SOL    HW275444   5.289   1.444  10.014
91224SOL     OW75445  14.124  10.677   0.769
91224SOL    HW175446  14.046  10.726   0.794
91224SOL    HW275447  14.174  10.669   0.850
91225SOL     OW75448   5.458   0.704   1.807
91225SOL    HW175449   5.483   0.700   1.714
91225SOL    HW275450   5.522   0.648   1.851
91226SOL     OW75451   0.120   4.822   8.307
91226SOL    HW175452   0.167   4.838   8.389
91226SOL    HW275453   0.129   4.904   8.259
91227SOL     OW75454   3.372  14.293  12.513
91227SOL    HW175455   3.337  14.263  12.428
91227SOL    HW275456   3.416  14.216  12.549
91228SOL     OW75457  13.406   5.046   5.760
91228SOL    HW175458  13.388   5.140   5.759
91228SOL    HW275459  13.351   5.010   5.691
91229SOL     OW75460   4.076   9.834  12.371
91229SOL    HW175461   4.125   9.861  12.293
91229SOL    HW275462   4.080   9.909  12.430
91230SOL     OW75463   1.964  10.806   1.806
91230SOL    HW175464   2.046  10.807   1.856
91230SOL    HW275465   1.990  10.835   1.718
91231SOL     OW75466   6.630  14.688   2.112
91231SOL    HW175467   6.605  14.648   2.195
91231SOL    HW275468   6.681  14.621   2.067
91232SOL     OW75469   7.583   3.782   5.296
91232SOL    HW175470   7.668   3.798   5.338
91232SOL    HW275471   7.549   3.703   5.340
91233SOL     OW75472  13.716   7.727   5.540
91233SOL    HW175473  13.712   7.707   5.447
91233SOL    HW275474  13.781   7.797   5.547
91234SOL     OW75475   0.241  11.144   9.545
91234SOL    HW175476   0.171  11.145   9.481
91234SOL    HW275477   0.290  11.063   9.526
91235SOL     OW75478   0.251   1.400  10.826
91235SOL    HW175479   0.340   1.431  10.810
91235SOL    HW275480   0.204   1.479  10.854
91236SOL     OW75481  11.436   3.190   4.070
91236SOL    HW175482  11.401   3.101   4.069
91236SOL    HW275483  11.476   3.201   3.984
91237SOL     OW75484   3.268   5.760   8.294
91237SOL    HW175485   3.347   5.802   8.329
91237SOL    HW275486   3.238   5.704   8.365
91238SOL     OW75487   1.687   6.034   0.885
91238SOL    HW175488   1.637   5.954   0.903
91238SOL    HW275489   1.628   6.105   0.910
91239SOL     OW75490   7.516   6.367   9.433
91239SOL    HW175491   7.500   6.324   9.349
91239SOL    HW275492   7.542   6.457   9.409
91240SOL     OW75493   2.591   4.822   0.714
91240SOL    HW175494   2.666   4.838   0.657
91240SOL    HW275495   2.531   4.894   0.696
91241SOL     OW75496   0.903   4.294   7.408
91241SOL    HW175497   0.809   4.293   7.392
91241SOL    HW275498   0.932   4.205   7.388
91242SOL     OW75499  14.429  12.929  13.646
91242SOL    HW175500  14.351  12.983  13.632
91242SOL    HW275501  14.434  12.873  13.570
91243SOL     OW75502   5.986   2.202   7.389
91243SOL    HW175503   5.973   2.245   7.305
91243SOL    HW275504   5.952   2.264   7.454
91244SOL     OW75505   1.036   0.858  11.962
91244SOL    HW175506   1.034   0.766  11.989
91244SOL    HW275507   1.129   0.881  11.965
91245SOL     OW75508  13.443   8.726   1.988
91245SOL    HW175509  13.443   8.814   2.026
91245SOL    HW275510  13.414   8.739   1.898
91246SOL     OW75511   8.726  12.803  12.018
91246SOL    HW175512   8.730  12.812  12.113
91246SOL    HW275513   8.634  12.783  12.000
91247SOL     OW75514   8.289   2.133   6.519
91247SOL    HW175515   8.264   2.149   6.428
91247SOL    HW275516   8.243   2.201   6.569
91248SOL     OW75517   1.932   9.903   5.995
91248SOL    HW175518   1.879   9.980   6.015
91248SOL    HW275519   2.008   9.910   6.053
91249SOL     OW75520   7.458  14.229   3.347
91249SOL    HW175521   7.505  14.173   3.285
91249SOL    HW275522   7.456  14.178   3.428
91250SOL     OW75523  12.477   7.747   3.084
91250SOL    HW175524  12.431   7.777   3.163
91250SOL    HW275525  12.507   7.827   3.042
91251SOL     OW75526  11.413   8.814   7.807
91251SOL    HW175527  11.491   8.839   7.856
91251SOL    HW275528  11.345   8.806   7.874
91252SOL     OW75529   1.234   3.597   1.849
91252SOL    HW175530   1.279   3.617   1.767
91252SOL    HW275531   1.141   3.602   1.826
91253SOL     OW75532   1.113   9.455  11.485
91253SOL    HW175533   1.048   9.477  11.418
91253SOL    HW275534   1.180   9.407  11.438
91254SOL     OW75535   0.204   4.793   5.388
91254SOL    HW175536   0.220   4.874   5.437
91254SOL    HW275537   0.279   4.785   5.329
91255SOL     OW75538   7.891  12.487   2.130
91255SOL    HW175539   7.873  12.570   2.175
91255SOL    HW275540   7.874  12.420   2.196
91256SOL     OW75541   7.662   5.031   0.867
91256SOL    HW175542   7.583   5.004   0.915
91256SOL    HW275543   7.684   5.117   0.902
91257SOL     OW75544   2.293   3.520  12.867
91257SOL    HW175545   2.268   3.521  12.960
91257SOL    HW275546   2.322   3.430  12.852
91258SOL     OW75547  10.176   5.217   3.518
91258SOL    HW175548  10.265   5.206   3.552
91258SOL    HW275549  10.189   5.242   3.426
91259SOL     OW75550  10.916  11.822   2.364
91259SOL    HW175551  10.878  11.892   2.416
91259SOL    HW275552  10.907  11.852   2.273
91260SOL     OW75553   8.064   1.824   0.451
91260SOL    HW175554   7.992   1.762   0.446
91260SOL    HW275555   8.124   1.787   0.515
91261SOL     OW75556   2.802   0.732  12.241
91261SOL    HW175557   2.837   0.686  12.165
91261SOL    HW275558   2.729   0.784  12.205
91262SOL     OW75559   1.471   1.700   3.454
91262SOL    HW175560   1.425   1.779   3.480
91262SOL    HW275561   1.453   1.637   3.524
91263SOL     OW75562   5.583   2.555   5.672
91263SOL    HW175563   5.534   2.638   5.670
91263SOL    HW275564   5.565   2.519   5.759
91264SOL     OW75565  10.854  12.253  13.940
91264SOL    HW175566  10.901  12.297  14.011
91264SOL    HW275567  10.923  12.217  13.884
91265SOL     OW75568  14.349   8.351  14.659
91265SOL    HW175569  14.272   8.307  14.624
91265SOL    HW275570  14.422   8.294  14.635
91266SOL     OW75571   6.353   8.329  11.660
91266SOL    HW175572   6.289   8.400  11.663
91266SOL    HW275573   6.365   8.304  11.752
91267SOL     OW75574  10.551  13.792  11.686
91267SOL    HW175575  10.482  13.804  11.621
91267SOL    HW275576  10.628  13.764  11.635
91268SOL     OW75577   0.531  11.587  13.680
91268SOL    HW175578   0.518  11.682  13.685
91268SOL    HW275579   0.447  11.550  13.708
91269SOL     OW75580   3.989   1.187   3.940
91269SOL    HW175581   3.941   1.202   3.859
91269SOL    HW275582   3.960   1.257   3.999
91270SOL     OW75583   6.703  13.447   7.557
91270SOL    HW175584   6.788  13.448   7.513
91270SOL    HW275585   6.686  13.354   7.574
91271SOL     OW75586  10.265  14.016   6.179
91271SOL    HW175587  10.348  14.043   6.140
91271SOL    HW275588  10.285  13.934   6.224
91272SOL     OW75589   8.178  11.051   1.122
91272SOL    HW175590   8.137  11.126   1.080
91272SOL    HW275591   8.175  11.073   1.216
91273SOL     OW75592   1.163   5.635   4.783
91273SOL    HW175593   1.089   5.623   4.723
91273SOL    HW275594   1.220   5.560   4.766
91274SOL     OW75595   2.035   4.786  13.517
91274SOL    HW175596   2.043   4.872  13.475
91274SOL    HW275597   2.017   4.806  13.609
91275SOL     OW75598   5.121   7.561   3.532
91275SOL    HW175599   5.105   7.505   3.456
91275SOL    HW275600   5.205   7.531   3.567
91276SOL     OW75601   5.315   9.904  12.665
91276SOL    HW175602   5.354   9.835  12.611
91276SOL    HW275603   5.339   9.880  12.755
91277SOL     OW75604   8.545   4.917  14.566
91277SOL    HW175605   8.548   5.003  14.526
91277SOL    HW275606   8.506   4.932  14.652
91278SOL     OW75607  10.841  11.185   0.815
91278SOL    HW175608  10.845  11.270   0.858
91278SOL    HW275609  10.784  11.199   0.739
91279SOL     OW75610   7.582   8.445   9.154
91279SOL    HW175611   7.536   8.521   9.119
91279SOL    HW275612   7.629   8.478   9.231
91280SOL     OW75613   3.815  13.617   2.006
91280SOL    HW175614   3.832  13.695   2.059
91280SOL    HW275615   3.726  13.591   2.029
91281SOL     OW75616   0.026  13.218  13.752
91281SOL    HW175617  14.865  13.151  13.806
91281SOL    HW275618   0.076  13.271  13.815
91282SOL     OW75619   6.092   4.571   8.395
91282SOL    HW175620   6.136   4.634   8.337
91282SOL    HW275621   6.060   4.625   8.468
91283SOL     OW75622   9.364   5.367  13.172
91283SOL    HW175623   9.388   5.434  13.108
91283SOL    HW275624   9.290   5.404  13.220
91284SOL     OW75625  13.537  12.698   1.224
91284SOL    HW175626  13.519  12.712   1.131
91284SOL    HW275627  13.468  12.745   1.270
91285SOL     OW75628  11.025   7.603   7.390
91285SOL    HW175629  11.081   7.677   7.414
91285SOL    HW275630  11.081   7.547   7.336
91286SOL     OW75631   5.283  12.659  11.643
91286SOL    HW175632   5.341  12.625  11.711
91286SOL    HW275633   5.269  12.751  11.667
91287SOL     OW75634   6.847   0.254   9.817
91287SOL    HW175635   6.768   0.284   9.773
91287SOL    HW275636   6.816   0.223   9.902
91288SOL     OW75637   7.751  11.060   7.746
91288SOL    HW175638   7.738  11.145   7.703
91288SOL    HW275639   7.696  11.000   7.697
91289SOL     OW75640   1.332  10.535   2.572
91289SOL    HW175641   1.410  10.589   2.576
91289SOL    HW275642   1.350  10.471   2.502
91290SOL     OW75643   7.620  12.387  10.151
91290SOL    HW175644   7.527  12.407  10.162
91290SOL    HW275645   7.622  12.318  10.085
91291SOL     OW75646  12.196   3.695   8.912
91291SOL    HW175647  12.236   3.775   8.946
91291SOL    HW275648  12.246   3.624   8.953
91292SOL     OW75649  13.769   8.997   7.515
91292SOL    HW175650  13.707   9.062   7.480
91292SOL    HW275651  13.846   9.005   7.459
91293SOL     OW75652   2.276   4.584  11.182
91293SOL    HW175653   2.214   4.642  11.137
91293SOL    HW275654   2.229   4.558  11.262
91294SOL     OW75655  14.469   7.401  13.111
91294SOL    HW175656  14.533   7.465  13.140
91294SOL    HW275657  14.479   7.397  13.016
91295SOL     OW75658   0.277  10.363  11.478
91295SOL    HW175659   0.211  10.322  11.422
91295SOL    HW275660   0.232  10.376  11.562
91296SOL     OW75661   3.234  13.455  13.103
91296SOL    HW175662   3.174  13.524  13.132
91296SOL    HW275663   3.300  13.451  13.171
91297SOL     OW75664   5.836   8.306   2.827
91297SOL    HW175665   5.890   8.365   2.774
91297SOL    HW275666   5.858   8.328   2.918
91298SOL     OW75667   7.006   5.854   9.878
91298SOL    HW175668   7.016   5.926   9.940
91298SOL    HW275669   7.063   5.785   9.912
91299SOL     OW75670   6.471  10.221   3.123
91299SOL    HW175671   6.410  10.272   3.177
91299SOL    HW275672   6.415  10.159   3.076
91300SOL     OW75673   7.200   4.469   2.732
91300SOL    HW175674   7.264   4.474   2.661
91300SOL    HW275675   7.227   4.536   2.794
91301SOL     OW75676   8.302  12.865   9.533
91301SOL    HW175677   8.397  12.883   9.532
91301SOL    HW275678   8.284  12.834   9.445
91302SOL     OW75679   6.337   4.344  10.403
91302SOL    HW175680   6.334   4.322  10.496
91302SOL    HW275681   6.247   4.371  10.382
91303SOL     OW75682   1.643  12.307   5.444
91303SOL    HW175683   1.695  12.341   5.516
91303SOL    HW275684   1.684  12.224   5.421
91304SOL     OW75685  11.062  13.614  12.130
91304SOL    HW175686  11.053  13.520  12.114
91304SOL    HW275687  10.972  13.647  12.130
91305SOL     OW75688   2.598   7.830   2.050
91305SOL    HW175689   2.651   7.771   2.104
91305SOL    HW275690   2.647   7.837   1.968
91306SOL     OW75691   8.011   2.629   6.473
91306SOL    HW175692   7.951   2.558   6.454
91306SOL    HW275693   7.956   2.708   6.476
91307SOL     OW75694   6.344   3.094   1.889
91307SOL    HW175695   6.305   3.153   1.825
91307SOL    HW275696   6.430   3.073   1.854
91308SOL     OW75697   4.848   2.652   8.189
91308SOL    HW175698   4.846   2.640   8.284
91308SOL    HW275699   4.780   2.593   8.156
91309SOL     OW75700   6.199   1.078  14.681
91309SOL    HW175701   6.278   1.042  14.722
91309SOL    HW275702   6.152   1.001  14.648
91310SOL     OW75703  12.593   8.412   5.227
91310SOL    HW175704  12.548   8.379   5.150
91310SOL    HW275705  12.645   8.485   5.195
91311SOL     OW75706   3.805   4.257  12.168
91311SOL    HW175707   3.818   4.352  12.162
91311SOL    HW275708   3.712   4.247  12.188
91312SOL     OW75709   4.099  12.548   2.282
91312SOL    HW175710   4.153  12.478   2.318
91312SOL    HW275711   4.072  12.516   2.196
91313SOL     OW75712   0.708   4.109   1.329
91313SOL    HW175713   0.709   4.105   1.234
91313SOL    HW275714   0.615   4.114   1.352
91314SOL     OW75715  12.206   8.552  11.640
91314SOL    HW175716  12.137   8.495  11.675
91314SOL    HW275717  12.286   8.500  11.647
91315SOL     OW75718   4.430   6.036   1.572
91315SOL    HW175719   4.356   5.991   1.531
91315SOL    HW275720   4.478   6.074   1.499
91316SOL     OW75721   4.424   4.419   4.647
91316SOL    HW175722   4.400   4.354   4.712
91316SOL    HW275723   4.461   4.368   4.575
91317SOL     OW75724  10.612   7.283  14.139
91317SOL    HW175725  10.669   7.347  14.182
91317SOL    HW275726  10.673   7.222  14.097
91318SOL     OW75727  12.400  10.457   6.849
91318SOL    HW175728  12.398  10.552   6.844
91318SOL    HW275729  12.308  10.431   6.853
91319SOL     OW75730   6.157   3.062   3.117
91319SOL    HW175731   6.208   3.019   3.185
91319SOL    HW275732   6.217   3.067   3.042
91320SOL     OW75733   4.561  14.747   1.741
91320SOL    HW175734   4.502  14.674   1.724
91320SOL    HW275735   4.559  14.757   1.836
91321SOL     OW75736   2.227   0.803  11.076
91321SOL    HW175737   2.251   0.770  10.990
91321SOL    HW275738   2.142   0.845  11.063
91322SOL     OW75739  10.758   8.999  13.530
91322SOL    HW175740  10.786   8.922  13.480
91322SOL    HW275741  10.697   8.963  13.595
91323SOL     OW75742   3.840   2.434   5.632
91323SOL    HW175743   3.878   2.522   5.634
91323SOL    HW275744   3.888   2.386   5.700
91324SOL     OW75745   4.707   9.294   6.875
91324SOL    HW175746   4.681   9.386   6.876
91324SOL    HW275747   4.672   9.259   6.793
91325SOL     OW75748   1.899   2.212  12.221
91325SOL    HW175749   1.804   2.220  12.211
91325SOL    HW275750   1.910   2.145  12.289
91326SOL     OW75751   3.742   1.739   2.554
91326SOL    HW175752   3.778   1.651   2.544
91326SOL    HW275753   3.665   1.728   2.610
91327SOL     OW75754   3.164   0.402  12.049
91327SOL    HW175755   3.078   0.441  12.068
91327SOL    HW275756   3.223   0.444  12.112
91328SOL     OW75757   3.572  12.363   7.527
91328SOL    HW175758   3.655  12.403   7.499
91328SOL    HW275759   3.509  12.434   7.524
91329SOL     OW75760   2.913   2.287   8.156
91329SOL    HW175761   2.881   2.217   8.213
91329SOL    HW275762   2.968   2.242   8.092
91330SOL     OW75763   3.906  13.830   6.997
91330SOL    HW175764   3.963  13.905   7.011
91330SOL    HW275765   3.817  13.865   7.000
91331SOL     OW75766   3.010   7.479   0.473
91331SOL    HW175767   2.938   7.417   0.484
91331SOL    HW275768   3.006   7.534   0.550
91332SOL     OW75769   6.251   7.092  10.539
91332SOL    HW175770   6.204   7.008  10.538
91332SOL    HW275771   6.322   7.078  10.602
91333SOL     OW75772   3.053   0.731   1.585
91333SOL    HW175773   2.961   0.743   1.606
91333SOL    HW275774   3.061   0.761   1.494
91334SOL     OW75775   8.250   7.784  11.959
91334SOL    HW175776   8.200   7.750  12.034
91334SOL    HW275777   8.194   7.766  11.883
91335SOL     OW75778   2.086  14.332  13.903
91335SOL    HW175779   2.079  14.411  13.849
91335SOL    HW275780   2.148  14.355  13.972
91336SOL     OW75781   7.053   6.882  13.371
91336SOL    HW175782   7.051   6.969  13.409
91336SOL    HW275783   7.146   6.857  13.371
91337SOL     OW75784  13.736  10.395  13.912
91337SOL    HW175785  13.789  10.383  13.991
91337SOL    HW275786  13.660  10.339  13.925
91338SOL     OW75787  11.999   4.042  11.067
91338SOL    HW175788  11.904   4.058  11.068
91338SOL    HW275789  12.036   4.118  11.023
91339SOL     OW75790   7.529   2.534   8.470
91339SOL    HW175791   7.596   2.476   8.508
91339SOL    HW275792   7.500   2.488   8.392
91340SOL     OW75793   2.867   0.919   4.504
91340SOL    HW175794   2.775   0.896   4.490
91340SOL    HW275795   2.867   0.969   4.586
91341SOL     OW75796   9.382   7.871   0.611
91341SOL    HW175797   9.359   7.920   0.689
91341SOL    HW275798   9.461   7.823   0.636
91342SOL     OW75799  11.178  13.544  13.631
91342SOL    HW175800  11.118  13.540  13.705
91342SOL    HW275801  11.255  13.496  13.661
91343SOL     OW75802  12.341   7.438   9.207
91343SOL    HW175803  12.382   7.371   9.262
91343SOL    HW275804  12.266   7.468   9.258
91344SOL     OW75805  14.073   4.981   2.366
91344SOL    HW175806  14.042   4.901   2.408
91344SOL    HW275807  14.003   5.005   2.305
91345SOL     OW75808   1.967   0.397  13.660
91345SOL    HW175809   1.917   0.327  13.701
91345SOL    HW275810   1.930   0.405  13.572
91346SOL     OW75811   7.069   5.699   7.141
91346SOL    HW175812   6.980   5.731   7.130
91346SOL    HW275813   7.120   5.745   7.075
91347SOL     OW75814   7.106  12.418  12.988
91347SOL    HW175815   7.089  12.387  12.899
91347SOL    HW275816   7.088  12.512  12.984
91348SOL     OW75817   5.912   1.565  12.316
91348SOL    HW175818   5.870   1.527  12.394
91348SOL    HW275819   5.940   1.652  12.343
91349SOL     OW75820   0.704   5.690   8.562
91349SOL    HW175821   0.792   5.726   8.564
91349SOL    HW275822   0.662   5.732   8.487
91350SOL     OW75823  11.489  12.330   9.845
91350SOL    HW175824  11.500  12.235   9.843
91350SOL    HW275825  11.558  12.361   9.904
91351SOL     OW75826  12.302   9.263   6.315
91351SOL    HW175827  12.232   9.320   6.284
91351SOL    HW275828  12.258   9.180   6.335
91352SOL     OW75829  12.212  11.701  13.605
91352SOL    HW175830  12.206  11.605  13.598
91352SOL    HW275831  12.237  11.717  13.696
91353SOL     OW75832   3.365  11.763   1.475
91353SOL    HW175833   3.358  11.682   1.526
91353SOL    HW275834   3.274  11.789   1.459
91354SOL     OW75835   0.646   6.221   9.986
91354SOL    HW175836   0.554   6.240  10.003
91354SOL    HW275837   0.690   6.237  10.069
91355SOL     OW75838  11.226   3.554   2.963
91355SOL    HW175839  11.216   3.472   2.914
91355SOL    HW275840  11.163   3.613   2.923
91356SOL     OW75841  14.099   9.778   7.639
91356SOL    HW175842  14.118   9.846   7.704
91356SOL    HW275843  14.005   9.787   7.622
91357SOL     OW75844   3.122   9.239  10.992
91357SOL    HW175845   3.113   9.252  10.898
91357SOL    HW275846   3.097   9.323  11.030
91358SOL     OW75847  13.392  11.453   4.753
91358SOL    HW175848  13.453  11.395   4.799
91358SOL    HW275849  13.408  11.435   4.660
91359SOL     OW75850  10.369   8.285   2.751
91359SOL    HW175851  10.385   8.228   2.675
91359SOL    HW275852  10.325   8.228   2.814
91360SOL     OW75853   2.635  13.973   9.596
91360SOL    HW175854   2.585  14.031   9.540
91360SOL    HW275855   2.610  13.998   9.685
91361SOL     OW75856   8.231   2.443   4.521
91361SOL    HW175857   8.280   2.515   4.480
91361SOL    HW275858   8.213   2.474   4.610
91362SOL     OW75859   7.662   1.486  10.217
91362SOL    HW175860   7.584   1.539  10.199
91362SOL    HW275861   7.672   1.490  10.312
91363SOL     OW75862   4.969   5.530   7.818
91363SOL    HW175863   5.042   5.535   7.879
91363SOL    HW275864   5.000   5.571   7.738
91364SOL     OW75865   8.792   6.060   4.745
91364SOL    HW175866   8.852   6.007   4.693
91364SOL    HW275867   8.746   6.115   4.682
91365SOL     OW75868   4.437  13.794   8.496
91365SOL    HW175869   4.440  13.889   8.490
91365SOL    HW275870   4.355  13.769   8.453
91366SOL     OW75871  10.087   8.474  10.716
91366SOL    HW175872  10.021   8.406  10.723
91366SOL    HW275873  10.103   8.502  10.806
91367SOL     OW75874   0.698  14.432  12.156
91367SOL    HW175875   0.734  14.508  12.202
91367SOL    HW275876   0.642  14.389  12.221
91368SOL     OW75877   8.989  12.035   4.615
91368SOL    HW175878   8.900  12.064   4.595
91368SOL    HW275879   8.981  11.941   4.629
91369SOL     OW75880   9.409   5.792   3.011
91369SOL    HW175881   9.386   5.700   3.004
91369SOL    HW275882   9.462   5.798   3.091
91370SOL     OW75883   9.016   2.718   5.547
91370SOL    HW175884   9.030   2.683   5.459
91370SOL    HW275885   9.096   2.768   5.566
91371SOL     OW75886  10.651   1.153   1.364
91371SOL    HW175887  10.659   1.094   1.290
91371SOL    HW275888  10.717   1.124   1.426
91372SOL     OW75889  10.711   3.502   9.433
91372SOL    HW175890  10.629   3.483   9.479
91372SOL    HW275891  10.720   3.597   9.439
91373SOL     OW75892   0.457   2.067   3.906
91373SOL    HW175893   0.383   2.067   3.844
91373SOL    HW275894   0.440   1.992   3.962
91374SOL     OW75895   7.417   9.019   7.847
91374SOL    HW175896   7.394   8.931   7.821
91374SOL    HW275897   7.488   9.008   7.911
91375SOL     OW75898   9.989   5.121   9.129
91375SOL    HW175899   9.938   5.044   9.157
91375SOL    HW275900  10.024   5.156   9.211
91376SOL     OW75901   8.589   2.511   2.879
91376SOL    HW175902   8.519   2.484   2.820
91376SOL    HW275903   8.545   2.570   2.941
91377SOL     OW75904  12.557   1.993  10.771
91377SOL    HW175905  12.565   1.960  10.681
91377SOL    HW275906  12.558   2.088  10.761
91378SOL     OW75907   2.031   6.189   9.124
91378SOL    HW175908   2.076   6.274   9.121
91378SOL    HW275909   1.987   6.181   9.040
91379SOL     OW75910  11.808   9.768  12.984
91379SOL    HW175911  11.779   9.694  13.038
91379SOL    HW275912  11.848   9.727  12.907
91380SOL     OW75913   1.137   8.351   9.589
91380SOL    HW175914   1.108   8.406   9.661
91380SOL    HW275915   1.083   8.377   9.515
91381SOL     OW75916  12.130  13.250   9.423
91381SOL    HW175917  12.208  13.225   9.373
91381SOL    HW275918  12.158  13.326   9.473
91382SOL     OW75919   3.490   7.022  14.165
91382SOL    HW175920   3.533   7.108  14.163
91382SOL    HW275921   3.488   6.994  14.074
91383SOL     OW75922  10.002  12.418   8.557
91383SOL    HW175923   9.962  12.369   8.628
91383SOL    HW275924  10.078  12.365   8.530
91384SOL     OW75925   2.201  10.655   3.838
91384SOL    HW175926   2.272  10.716   3.817
91384SOL    HW275927   2.124  10.711   3.851
91385SOL     OW75928   2.173  14.257   6.003
91385SOL    HW175929   2.246  14.317   5.986
91385SOL    HW275930   2.159  14.213   5.919
91386SOL     OW75931   2.477  12.383  13.525
91386SOL    HW175932   2.425  12.313  13.486
91386SOL    HW275933   2.467  12.457  13.465
91387SOL     OW75934   9.196   1.920   2.138
91387SOL    HW175935   9.240   1.899   2.055
91387SOL    HW275936   9.172   2.012   2.131
91388SOL     OW75937  13.041   2.177   6.074
91388SOL    HW175938  13.057   2.257   6.125
91388SOL    HW275939  12.988   2.123   6.132
91389SOL     OW75940   1.772   6.110  12.211
91389SOL    HW175941   1.867   6.110  12.202
91389SOL    HW275942   1.740   6.078  12.126
91390SOL     OW75943   4.719   6.576   0.286
91390SOL    HW175944   4.669   6.544   0.211
91390SOL    HW275945   4.653   6.590   0.354
91391SOL     OW75946  12.896  13.356  11.432
91391SOL    HW175947  12.818  13.304  11.417
91391SOL    HW275948  12.904  13.361  11.528
91392SOL     OW75949   5.203  13.453  11.443
91392SOL    HW175950   5.151  13.453  11.362
91392SOL    HW275951   5.279  13.508  11.422
91393SOL     OW75952   8.599  10.977   7.646
91393SOL    HW175953   8.582  10.945   7.734
91393SOL    HW275954   8.518  11.018   7.619
91394SOL     OW75955   3.812  11.316   9.928
91394SOL    HW175956   3.729  11.278   9.956
91394SOL    HW275957   3.879  11.259   9.966
91395SOL     OW75958   0.900  12.207  12.572
91395SOL    HW175959   0.871  12.277  12.514
91395SOL    HW275960   0.916  12.251  12.656
91396SOL     OW75961   2.069   5.652  13.049
91396SOL    HW175962   2.126   5.727  13.065
91396SOL    HW275963   2.035   5.666  12.961
91397SOL     OW75964   9.036  11.561   8.500
91397SOL    HW175965   9.089  11.498   8.451
91397SOL    HW275966   9.008  11.514   8.578
91398SOL     OW75967  10.442   2.597  13.596
91398SOL    HW175968  10.506   2.529  13.576
91398SOL    HW275969  10.467   2.629  13.683
91399SOL     OW75970   0.211   2.172   0.619
91399SOL    HW175971   0.226   2.185   0.713
91399SOL    HW275972   0.297   2.147   0.585
91400SOL     OW75973   6.842   3.491   6.549
91400SOL    HW175974   6.913   3.449   6.501
91400SOL    HW275975   6.850   3.458   6.638
91401SOL     OW75976   9.230   5.061  14.171
91401SOL    HW175977   9.205   5.039  14.081
91401SOL    HW275978   9.258   5.152  14.167
91402SOL     OW75979   7.533  12.442   2.365
91402SOL    HW175980   7.523  12.457   2.271
91402SOL    HW275981   7.450  12.401   2.391
91403SOL     OW75982   9.770   8.787   4.053
91403SOL    HW175983   9.792   8.744   3.970
91403SOL    HW275984   9.749   8.877   4.029
91404SOL     OW75985   7.702   9.278  12.076
91404SOL    HW175986   7.665   9.366  12.070
91404SOL    HW275987   7.682   9.238  11.991
91405SOL     OW75988   9.667  12.566   0.561
91405SOL    HW175989   9.629  12.632   0.502
91405SOL    HW275990   9.757  12.556   0.530
91406SOL     OW75991   3.539  11.084  10.678
91406SOL    HW175992   3.618  11.135  10.659
91406SOL    HW275993   3.531  11.086  10.773
91407SOL     OW75994   1.931  12.829   5.830
91407SOL    HW175995   1.973  12.914   5.843
91407SOL    HW275996   1.904  12.829   5.738
91408SOL     OW75997   2.797   3.266   4.334
91408SOL    HW175998   2.849   3.193   4.369
91408SOL    HW275999   2.726   3.224   4.285
91409SOL     OW76000   4.885   2.378   2.033
91409SOL    HW176001   4.879   2.286   2.055
91409SOL    HW276002   4.974   2.404   2.056
91410SOL     OW76003   0.934   7.302   3.062
91410SOL    HW176004   0.850   7.344   3.075
91410SOL    HW276005   0.916   7.228   3.004
91411SOL     OW76006   3.393   5.375   3.492
91411SOL    HW176007   3.412   5.354   3.583
91411SOL    HW276008   3.301   5.403   3.492
91412SOL     OW76009   1.610  12.998  13.034
91412SOL    HW176010   1.692  12.971  12.993
91412SOL    HW276011   1.599  13.090  13.007
91413SOL     OW76012  12.446   9.091   1.868
91413SOL    HW176013  12.362   9.048   1.884
91413SOL    HW276014  12.430   9.183   1.888
91414SOL     OW76015   1.447   0.471  13.424
91414SOL    HW176016   1.418   0.534  13.359
91414SOL    HW276017   1.392   0.488  13.501
91415SOL     OW76018  10.070   7.405  11.573
91415SOL    HW176019  10.022   7.465  11.515
91415SOL    HW276020  10.074   7.323  11.524
91416SOL     OW76021   7.982   2.172   9.571
91416SOL    HW176022   7.910   2.225   9.536
91416SOL    HW276023   8.055   2.232   9.580
91417SOL     OW76024   5.511   8.446  10.965
91417SOL    HW176025   5.572   8.373  10.958
91417SOL    HW276026   5.536   8.490  11.046
91418SOL     OW76027   4.107   6.466  12.629
91418SOL    HW176028   4.019   6.434  12.607
91418SOL    HW276029   4.096   6.509  12.714
91419SOL     OW76030  13.506   0.462   3.943
91419SOL    HW176031  13.452   0.445   3.865
91419SOL    HW276032  13.456   0.528   3.992
91420SOL     OW76033   7.457   9.754  13.710
91420SOL    HW176034   7.413   9.827  13.667
91420SOL    HW276035   7.388   9.689  13.725
91421SOL     OW76036  12.293  12.079  13.655
91421SOL    HW176037  12.221  12.058  13.596
91421SOL    HW276038  12.371  12.077  13.599
91422SOL     OW76039  10.598  13.864  12.350
91422SOL    HW176040  10.627  13.952  12.373
91422SOL    HW276041  10.662  13.835  12.284
91423SOL     OW76042   2.154   9.275   4.414
91423SOL    HW176043   2.077   9.331   4.409
91423SOL    HW276044   2.157   9.231   4.329
91424SOL     OW76045   1.112   3.852  13.536
91424SOL    HW176046   1.031   3.864  13.486
91424SOL    HW276047   1.093   3.778  13.594
91425SOL     OW76048   8.674   8.919  10.903
91425SOL    HW176049   8.719   8.996  10.867
91425SOL    HW276050   8.672   8.856  10.831
91426SOL     OW76051  14.425  13.781   3.697
91426SOL    HW176052  14.398  13.782   3.605
91426SOL    HW276053  14.458  13.692   3.711
91427SOL     OW76054  10.030   9.373  13.613
91427SOL    HW176055  10.120   9.405  13.607
91427SOL    HW276056  10.029   9.295  13.557
91428SOL     OW76057  13.734   3.731   1.130
91428SOL    HW176058  13.753   3.694   1.216
91428SOL    HW276059  13.744   3.658   1.070
91429SOL     OW76060  13.713   1.323   9.063
91429SOL    HW176061  13.730   1.319   8.969
91429SOL    HW276062  13.763   1.251   9.100
91430SOL     OW76063   5.815  10.427  10.163
91430SOL    HW176064   5.809  10.331  10.157
91430SOL    HW276065   5.819  10.444  10.257
91431SOL     OW76066   9.266   2.466   6.694
91431SOL    HW176067   9.271   2.423   6.779
91431SOL    HW276068   9.291   2.398   6.631
91432SOL     OW76069   8.314  11.494   9.481
91432SOL    HW176070   8.283  11.436   9.550
91432SOL    HW276071   8.402  11.519   9.508
91433SOL     OW76072   1.426   7.212   9.259
91433SOL    HW176073   1.505   7.195   9.310
91433SOL    HW276074   1.435   7.156   9.182
91434SOL     OW76075   2.859   1.757   8.923
91434SOL    HW176076   2.835   1.665   8.909
91434SOL    HW276077   2.942   1.767   8.876
91435SOL     OW76078   4.810  14.278  10.518
91435SOL    HW176079   4.782  14.322  10.598
91435SOL    HW276080   4.736  14.223  10.494
91436SOL     OW76081   8.900   4.106  12.052
91436SOL    HW176082   8.839   4.128  11.982
91436SOL    HW276083   8.925   4.191  12.089
91437SOL     OW76084  13.513   3.173   2.944
91437SOL    HW176085  13.462   3.251   2.963
91437SOL    HW276086  13.580   3.170   3.013
91438SOL     OW76087   1.150   0.006   1.123
91438SOL    HW176088   1.149   0.021   1.029
91438SOL    HW276089   1.101   0.079   1.161
91439SOL     OW76090  13.169  13.247   3.216
91439SOL    HW176091  13.086  13.221   3.175
91439SOL    HW276092  13.144  13.314   3.280
91440SOL     OW76093   9.720   9.025   6.833
91440SOL    HW176094   9.777   8.990   6.765
91440SOL    HW276095   9.634   9.032   6.792
91441SOL     OW76096  11.671   2.144  10.018
91441SOL    HW176097  11.613   2.072  10.040
91441SOL    HW276098  11.641   2.175   9.933
91442SOL     OW76099   3.171  12.062   2.714
91442SOL    HW176100   3.224  12.026   2.785
91442SOL    HW276101   3.088  12.015   2.719
91443SOL     OW76102   0.706   1.592   2.627
91443SOL    HW176103   0.798   1.619   2.619
91443SOL    HW276104   0.689   1.594   2.721
91444SOL     OW76105   8.518  10.635   0.159
91444SOL    HW176106   8.590  10.691   0.188
91444SOL    HW276107   8.542  10.547   0.190
91445SOL     OW76108   3.279   9.882   3.422
91445SOL    HW176109   3.262   9.845   3.508
91445SOL    HW276110   3.217   9.954   3.414
91446SOL     OW76111  10.948  10.007   9.620
91446SOL    HW176112  10.980   9.977   9.706
91446SOL    HW276113  10.872  10.060   9.640
91447SOL     OW76114  11.798  13.595  13.572
91447SOL    HW176115  11.744  13.549  13.508
91447SOL    HW276116  11.886  13.596  13.534
91448SOL     OW76117   9.988   3.000  14.285
91448SOL    HW176118   9.905   2.971  14.247
91448SOL    HW276119   9.965   3.023  14.376
91449SOL     OW76120  12.418   3.228   6.828
91449SOL    HW176121  12.512   3.248   6.836
91449SOL    HW276122  12.414   3.133   6.830
91450SOL     OW76123   2.759  10.868   5.231
91450SOL    HW176124   2.762  10.941   5.169
91450SOL    HW276125   2.670  10.833   5.223
91451SOL     OW76126  14.332  12.781   1.477
91451SOL    HW176127  14.405  12.771   1.538
91451SOL    HW276128  14.317  12.875   1.472
91452SOL     OW76129   9.201   5.848  10.510
91452SOL    HW176130   9.262   5.861  10.438
91452SOL    HW276131   9.254   5.818  10.583
91453SOL     OW76132   8.599   7.954  13.333
91453SOL    HW176133   8.570   7.973  13.244
91453SOL    HW276134   8.570   8.029  13.384
91454SOL     OW76135   1.678   8.923   7.703
91454SOL    HW176136   1.729   9.004   7.704
91454SOL    HW276137   1.587   8.952   7.698
91455SOL     OW76138   5.508   9.586   3.046
91455SOL    HW176139   5.502   9.681   3.054
91455SOL    HW276140   5.479   9.552   3.130
91456SOL     OW76141   9.175   8.612   5.126
91456SOL    HW176142   9.114   8.569   5.185
91456SOL    HW276143   9.260   8.573   5.146
91457SOL     OW76144   7.501   5.821   3.601
91457SOL    HW176145   7.589   5.853   3.583
91457SOL    HW276146   7.443   5.883   3.556
91458SOL     OW76147   9.197   7.232   7.514
91458SOL    HW176148   9.276   7.214   7.566
91458SOL    HW276149   9.199   7.326   7.499
91459SOL     OW76150  12.116  14.692   5.720
91459SOL    HW176151  12.028  14.674   5.687
91459SOL    HW276152  12.139  14.776   5.681
91460SOL     OW76153   3.377   0.006   0.511
91460SOL    HW176154   3.465   0.033   0.535
91460SOL    HW276155   3.387  14.844   0.427
91461SOL     OW76156   5.734  14.600   0.328
91461SOL    HW176157   5.709  14.603   0.235
91461SOL    HW276158   5.785  14.519   0.336
91462SOL     OW76159   7.794   2.123  11.662
91462SOL    HW176160   7.779   2.213  11.689
91462SOL    HW276161   7.797   2.074  11.745
91463SOL     OW76162  14.144   7.147   8.254
91463SOL    HW176163  14.070   7.207   8.254
91463SOL    HW276164  14.218   7.199   8.286
91464SOL     OW76165  14.525   6.435   1.086
91464SOL    HW176166  14.498   6.519   1.122
91464SOL    HW276167  14.546   6.382   1.163
91465SOL     OW76168   2.119   0.581   2.511
91465SOL    HW176169   2.070   0.498   2.511
91465SOL    HW276170   2.191   0.566   2.572
91466SOL     OW76171  13.224   8.684   6.513
91466SOL    HW176172  13.299   8.655   6.565
91466SOL    HW276173  13.164   8.722   6.577
91467SOL     OW76174   9.212  13.970   0.123
91467SOL    HW176175   9.243  14.018   0.046
91467SOL    HW276176   9.121  13.996   0.133
91468SOL     OW76177   4.919  13.350  10.853
91468SOL    HW176178   4.917  13.392  10.767
91468SOL    HW276179   4.876  13.413  10.911
91469SOL     OW76180  10.056   9.840  14.549
91469SOL    HW176181   9.964   9.858  14.566
91469SOL    HW276182  10.060   9.745  14.539
91470SOL     OW76183  13.781   5.227   9.856
91470SOL    HW176184  13.737   5.217   9.772
91470SOL    HW276185  13.736   5.299   9.899
91471SOL     OW76186  13.217   2.646   3.827
91471SOL    HW176187  13.199   2.710   3.896
91471SOL    HW276188  13.168   2.678   3.751
91472SOL     OW76189   0.172  13.221   5.773
91472SOL    HW176190   0.240  13.179   5.825
91472SOL    HW276191   0.182  13.314   5.791
91473SOL     OW76192   2.488  13.925   1.456
91473SOL    HW176193   2.403  13.909   1.415
91473SOL    HW276194   2.502  14.019   1.445
91474SOL     OW76195   4.513  10.273  13.238
91474SOL    HW176196   4.546  10.355  13.275
91474SOL    HW276197   4.588  10.213  13.243
91475SOL     OW76198   9.777  14.848  14.557
91475SOL    HW176199   9.835   0.028  14.513
91475SOL    HW276200   9.777  14.771  14.500
91476SOL     OW76201  10.351   0.479  11.023
91476SOL    HW176202  10.344   0.430  10.941
91476SOL    HW276203  10.364   0.412  11.090
91477SOL     OW76204   5.000   3.999  12.108
91477SOL    HW176205   5.089   4.017  12.079
91477SOL    HW276206   4.959   3.952  12.035
91478SOL     OW76207   7.857   9.120   3.802
91478SOL    HW176208   7.823   9.209   3.791
91478SOL    HW276209   7.921   9.110   3.731
91479SOL     OW76210   6.286   2.014   5.215
91479SOL    HW176211   6.233   2.046   5.288
91479SOL    HW276212   6.294   2.088   5.156
91480SOL     OW76213   5.025  13.245   5.999
91480SOL    HW176214   4.953  13.304   6.020
91480SOL    HW276215   5.096  13.303   5.971
91481SOL     OW76216   8.416   5.621   1.660
91481SOL    HW176217   8.345   5.685   1.651
91481SOL    HW276218   8.384   5.559   1.725
91482SOL     OW76219  12.788   4.956   3.489
91482SOL    HW176220  12.832   5.037   3.463
91482SOL    HW276221  12.859   4.893   3.501
91483SOL     OW76222  13.957  10.814   6.557
91483SOL    HW176223  13.954  10.733   6.506
91483SOL    HW276224  14.047  10.845   6.547
91484SOL     OW76225  14.612   3.690  12.733
91484SOL    HW176226  14.583   3.602  12.708
91484SOL    HW276227  14.531   3.740  12.742
91485SOL     OW76228  11.955  14.693  11.038
91485SOL    HW176229  11.955  14.788  11.027
91485SOL    HW276230  11.885  14.662  10.981
91486SOL     OW76231  11.203  13.781   2.209
91486SOL    HW176232  11.261  13.847   2.245
91486SOL    HW276233  11.129  13.830   2.173
91487SOL     OW76234  14.679   5.543   9.437
91487SOL    HW176235  14.688   5.626   9.389
91487SOL    HW276236  14.743   5.549   9.507
91488SOL     OW76237   3.496  14.227   7.726
91488SOL    HW176238   3.519  14.304   7.778
91488SOL    HW276239   3.458  14.167   7.790
91489SOL     OW76240   8.659  10.735   1.091
91489SOL    HW176241   8.591  10.714   1.027
91489SOL    HW276242   8.614  10.737   1.175
91490SOL     OW76243   0.094   5.579   2.743
91490SOL    HW176244   0.103   5.671   2.718
91490SOL    HW276245   0.129   5.574   2.832
91491SOL     OW76246   1.842   6.518  13.069
91491SOL    HW176247   1.828   6.538  13.162
91491SOL    HW276248   1.937   6.516  13.059
91492SOL     OW76249   8.934   5.306   6.618
91492SOL    HW176250   9.003   5.244   6.643
91492SOL    HW276251   8.940   5.311   6.522
91493SOL     OW76252   8.326  14.394   5.211
91493SOL    HW176253   8.337  14.370   5.119
91493SOL    HW276254   8.334  14.489   5.213
91494SOL     OW76255  14.191   6.819  13.293
91494SOL    HW176256  14.171   6.749  13.355
91494SOL    HW276257  14.240   6.883  13.344
91495SOL     OW76258   5.059   1.305  11.443
91495SOL    HW176259   4.982   1.250  11.432
91495SOL    HW276260   5.105   1.268  11.518
91496SOL     OW76261   3.210   2.456   6.958
91496SOL    HW176262   3.238   2.426   6.872
91496SOL    HW276263   3.195   2.550   6.948
91497SOL     OW76264   5.832  10.254   1.065
91497SOL    HW176265   5.879  10.181   1.024
91497SOL    HW276266   5.786  10.297   0.993
91498SOL     OW76267   7.307   2.386  12.000
91498SOL    HW176268   7.345   2.440  12.070
91498SOL    HW276269   7.344   2.422  11.919
91499SOL     OW76270   6.583   1.925   8.013
91499SOL    HW176271   6.566   1.879   7.931
91499SOL    HW276272   6.650   1.872   8.057
91500SOL     OW76273  10.251  10.930  14.345
91500SOL    HW176274  10.310  10.964  14.277
91500SOL    HW276275  10.202  10.861  14.302
91501SOL     OW76276   7.852   4.657  10.733
91501SOL    HW176277   7.912   4.720  10.693
91501SOL    HW276278   7.903   4.577  10.742
91502SOL     OW76279  12.457   6.781   5.705
91502SOL    HW176280  12.520   6.768   5.634
91502SOL    HW276281  12.372   6.763   5.665
91503SOL     OW76282   7.227  10.903   5.143
91503SOL    HW176283   7.248  10.907   5.050
91503SOL    HW276284   7.229  10.995   5.172
91504SOL     OW76285   2.036   5.253   9.006
91504SOL    HW176286   2.118   5.208   8.984
91504SOL    HW276287   2.052   5.292   9.092
91505SOL     OW76288   5.724  10.952   3.291
91505SOL    HW176289   5.798  10.977   3.346
91505SOL    HW276290   5.653  11.009   3.319
91506SOL     OW76291   7.440  11.295   0.822
91506SOL    HW176292   7.453  11.220   0.880
91506SOL    HW276293   7.510  11.288   0.757
91507SOL     OW76294   7.325   6.416   7.426
91507SOL    HW176295   7.310   6.511   7.429
91507SOL    HW276296   7.256   6.383   7.368
91508SOL     OW76297  13.643  11.865   6.773
91508SOL    HW176298  13.563  11.839   6.820
91508SOL    HW276299  13.611  11.900   6.690
91509SOL     OW76300  14.735   2.450   4.336
91509SOL    HW176301  14.660   2.393   4.319
91509SOL    HW276302  14.696   2.531   4.369
91510SOL     OW76303   6.242   6.935   9.365
91510SOL    HW176304   6.167   6.878   9.349
91510SOL    HW276305   6.277   6.905   9.449
91511SOL     OW76306   6.358   5.208   4.437
91511SOL    HW176307   6.430   5.193   4.375
91511SOL    HW276308   6.320   5.291   4.409
91512SOL     OW76309   2.012   3.007   0.282
91512SOL    HW176310   2.022   2.934   0.343
91512SOL    HW276311   2.084   3.067   0.305
91513SOL     OW76312   4.683  13.480   8.033
91513SOL    HW176313   4.697  13.385   8.030
91513SOL    HW276314   4.649  13.497   8.120
91514SOL     OW76315   1.250   8.478   4.530
91514SOL    HW176316   1.278   8.545   4.467
91514SOL    HW276317   1.156   8.491   4.539
91515SOL     OW76318   5.651   5.913   8.582
91515SOL    HW176319   5.596   5.989   8.599
91515SOL    HW276320   5.708   5.940   8.511
91516SOL     OW76321  13.160   6.860   3.307
91516SOL    HW176322  13.103   6.899   3.241
91516SOL    HW276323  13.247   6.863   3.268
91517SOL     OW76324   8.696   5.461  12.760
91517SOL    HW176325   8.747   5.519  12.703
91517SOL    HW276326   8.621   5.514  12.787
91518SOL     OW76327   9.933   2.950   9.299
91518SOL    HW176328   9.967   2.936   9.211
91518SOL    HW276329   9.883   2.871   9.319
91519SOL     OW76330   1.855  13.832   3.313
91519SOL    HW176331   1.761  13.825   3.295
91519SOL    HW276332   1.863  13.811   3.406
91520SOL     OW76333  14.392   6.989  13.797
91520SOL    HW176334  14.439   6.962  13.876
91520SOL    HW276335  14.354   6.909  13.763
91521SOL     OW76336   9.530   7.657   5.954
91521SOL    HW176337   9.449   7.707   5.959
91521SOL    HW276338   9.501   7.566   5.944
91522SOL     OW76339   1.273  11.033   0.720
91522SOL    HW176340   1.269  10.940   0.743
91522SOL    HW276341   1.247  11.079   0.799
91523SOL     OW76342   7.872   8.673   7.760
91523SOL    HW176343   7.779   8.686   7.774
91523SOL    HW276344   7.913   8.751   7.798
91524SOL     OW76345   9.047   3.123   5.583
91524SOL    HW176346   9.007   3.081   5.506
91524SOL    HW276347   9.050   3.216   5.561
91525SOL     OW76348  14.834  12.425   1.861
91525SOL    HW176349  14.739  12.415   1.857
91525SOL    HW276350  14.851  12.460   1.948
91526SOL     OW76351  12.834  11.931   0.249
91526SOL    HW176352  12.805  12.002   0.306
91526SOL    HW276353  12.928  11.925   0.264
91527SOL     OW76354   7.499   1.396   1.917
91527SOL    HW176355   7.483   1.454   1.992
91527SOL    HW276356   7.416   1.351   1.903
91528SOL     OW76357   2.837  13.383   2.629
91528SOL    HW176358   2.871  13.447   2.566
91528SOL    HW276359   2.754  13.355   2.591
91529SOL     OW76360  14.539  14.318   2.566
91529SOL    HW176361  14.628  14.307   2.532
91529SOL    HW276362  14.540  14.273   2.651
91530SOL     OW76363   4.099  10.546  10.679
91530SOL    HW176364   4.112  10.541  10.773
91530SOL    HW276365   4.187  10.545  10.642
91531SOL     OW76366   8.328  14.497  11.392
91531SOL    HW176367   8.350  14.406  11.372
91531SOL    HW276368   8.255  14.517  11.334
91532SOL     OW76369   7.083   8.008   1.626
91532SOL    HW176370   6.988   8.009   1.629
91532SOL    HW276371   7.107   7.916   1.623
91533SOL     OW76372   3.928   8.979  14.415
91533SOL    HW176373   3.964   9.067  14.406
91533SOL    HW276374   3.931   8.942  14.327
91534SOL     OW76375   2.788  12.852  12.844
91534SOL    HW176376   2.881  12.854  12.821
91534SOL    HW276377   2.787  12.840  12.939
91535SOL     OW76378   5.290   3.248   3.386
91535SOL    HW176379   5.264   3.339   3.370
91535SOL    HW276380   5.385   3.249   3.377
91536SOL     OW76381  11.106   8.428   4.433
91536SOL    HW176382  11.054   8.374   4.493
91536SOL    HW276383  11.042   8.466   4.373
91537SOL     OW76384  12.771   9.028   0.265
91537SOL    HW176385  12.837   8.989   0.323
91537SOL    HW276386  12.792   9.122   0.265
91538SOL     OW76387   8.666  13.328   2.899
91538SOL    HW176388   8.695  13.252   2.949
91538SOL    HW276389   8.745  13.381   2.887
91539SOL     OW76390   2.766   2.296   4.488
91539SOL    HW176391   2.848   2.343   4.504
91539SOL    HW276392   2.777   2.260   4.400
91540SOL     OW76393   5.820   6.769   6.944
91540SOL    HW176394   5.760   6.773   7.018
91540SOL    HW276395   5.800   6.686   6.901
91541SOL     OW76396   0.361   0.460  11.251
91541SOL    HW176397   0.270   0.436  11.234
91541SOL    HW276398   0.356   0.541  11.302
91542SOL     OW76399   4.793   3.410   5.524
91542SOL    HW176400   4.779   3.499   5.492
91542SOL    HW276401   4.825   3.421   5.614
91543SOL     OW76402   7.079   2.032   6.197
91543SOL    HW176403   7.113   1.977   6.267
91543SOL    HW276404   6.999   1.988   6.169
91544SOL     OW76405  13.264  13.601   8.507
91544SOL    HW176406  13.254  13.508   8.486
91544SOL    HW276407  13.313  13.636   8.432
91545SOL     OW76408  12.031   3.654  13.476
91545SOL    HW176409  12.106   3.640  13.533
91545SOL    HW276410  11.984   3.570  13.477
91546SOL     OW76411   5.492   0.585   6.913
91546SOL    HW176412   5.578   0.545   6.898
91546SOL    HW276413   5.440   0.515   6.952
91547SOL     OW76414   0.281  10.483   1.693
91547SOL    HW176415   0.348  10.416   1.700
91547SOL    HW276416   0.210  10.451   1.748
91548SOL     OW76417  10.218   8.094  14.228
91548SOL    HW176418  10.185   8.018  14.277
91548SOL    HW276419  10.314   8.088  14.238
91549SOL     OW76420  11.311   7.250   1.296
91549SOL    HW176421  11.251   7.211   1.232
91549SOL    HW276422  11.299   7.197   1.375
91550SOL     OW76423   2.454   6.945   3.348
91550SOL    HW176424   2.511   6.975   3.278
91550SOL    HW276425   2.443   6.851   3.332
91551SOL     OW76426   6.056  12.327   1.147
91551SOL    HW176427   6.039  12.235   1.165
91551SOL    HW276428   6.001  12.375   1.209
91552SOL     OW76429   0.901  10.583   9.202
91552SOL    HW176430   0.813  10.592   9.239
91552SOL    HW276431   0.958  10.577   9.278
91553SOL     OW76432  13.403  11.070  10.477
91553SOL    HW176433  13.425  11.119  10.555
91553SOL    HW276434  13.471  11.002  10.471
91554SOL     OW76435   5.405   3.163   2.777
91554SOL    HW176436   5.498   3.144   2.762
91554SOL    HW276437   5.382   3.225   2.708
91555SOL     OW76438  10.501   7.115   1.427
91555SOL    HW176439  10.497   7.132   1.333
91555SOL    HW276440  10.435   7.174   1.464
91556SOL     OW76441   4.997   5.130   9.902
91556SOL    HW176442   5.042   5.199   9.950
91556SOL    HW276443   4.904   5.153   9.908
91557SOL     OW76444   9.778  11.794  12.842
91557SOL    HW176445   9.777  11.750  12.757
91557SOL    HW276446   9.696  11.844  12.844
91558SOL     OW76447   9.968   5.056   2.243
91558SOL    HW176448   9.967   5.128   2.306
91558SOL    HW276449   9.999   5.096   2.162
91559SOL     OW76450  14.192   6.366   6.542
91559SOL    HW176451  14.138   6.288   6.538
91559SOL    HW276452  14.131   6.437   6.563
91560SOL     OW76453   1.104   4.228   0.715
91560SOL    HW176454   1.011   4.207   0.713
91560SOL    HW276455   1.125   4.254   0.625
91561SOL     OW76456   1.645   3.997   3.501
91561SOL    HW176457   1.680   4.048   3.428
91561SOL    HW276458   1.605   4.061   3.559
91562SOL     OW76459  14.553   7.977   0.889
91562SOL    HW176460  14.630   7.957   0.835
91562SOL    HW276461  14.530   8.067   0.866
91563SOL     OW76462  12.170   9.324   0.067
91563SOL    HW176463  12.135   9.326  14.860
91563SOL    HW276464  12.094   9.336   0.123
91564SOL     OW76465   0.256  12.205   4.791
91564SOL    HW176466   0.255  12.152   4.871
91564SOL    HW276467   0.233  12.293   4.821
91565SOL     OW76468  11.981   4.625   3.751
91565SOL    HW176469  11.940   4.547   3.787
91565SOL    HW276470  11.908   4.683   3.729
91566SOL     OW76471   0.840  10.851   1.185
91566SOL    HW176472   0.829  10.893   1.270
91566SOL    HW276473   0.860  10.924   1.125
91567SOL     OW76474   3.595  10.492   1.192
91567SOL    HW176475   3.517  10.460   1.147
91567SOL    HW276476   3.648  10.414   1.207
91568SOL     OW76477   0.751   6.752   4.039
91568SOL    HW176478   0.790   6.803   3.968
91568SOL    HW276479   0.713   6.817   4.098
91569SOL     OW76480   7.412   8.657  11.808
91569SOL    HW176481   7.496   8.701  11.816
91569SOL    HW276482   7.361   8.713  11.748
91570SOL     OW76483   0.049   8.306  11.826
91570SOL    HW176484  14.845   8.338  11.795
91570SOL    HW276485   0.059   8.220  11.785
91571SOL     OW76486  13.067  10.698  10.949
91571SOL    HW176487  12.998  10.633  10.962
91571SOL    HW276488  13.028  10.780  10.978
91572SOL     OW76489  13.547  11.850   9.902
91572SOL    HW176490  13.471  11.798   9.930
91572SOL    HW276491  13.509  11.923   9.852
91573SOL     OW76492   3.828   4.906   2.650
91573SOL    HW176493   3.771   4.864   2.715
91573SOL    HW276494   3.881   4.834   2.615
91574SOL     OW76495  10.237  10.480  12.119
91574SOL    HW176496  10.242  10.501  12.026
91574SOL    HW276497  10.248  10.385  12.123
91575SOL     OW76498   0.499  12.939   2.163
91575SOL    HW176499   0.583  12.931   2.207
91575SOL    HW276500   0.512  13.007   2.097
91576SOL     OW76501  12.306   4.536   3.548
91576SOL    HW176502  12.310   4.491   3.633
91576SOL    HW276503  12.261   4.619   3.567
91577SOL     OW76504   3.773   4.695  12.882
91577SOL    HW176505   3.716   4.757  12.837
91577SOL    HW276506   3.797   4.631  12.815
91578SOL     OW76507   3.163   3.654   4.193
91578SOL    HW176508   3.159   3.691   4.105
91578SOL    HW276509   3.099   3.583   4.193
91579SOL     OW76510   4.231   0.017   4.496
91579SOL    HW176511   4.150   0.058   4.527
91579SOL    HW276512   4.296   0.086   4.504
91580SOL     OW76513   4.390   3.438  13.913
91580SOL    HW176514   4.385   3.411  13.821
91580SOL    HW276515   4.429   3.525  13.910
91581SOL     OW76516   0.858   1.923   3.325
91581SOL    HW176517   0.841   1.860   3.396
91581SOL    HW276518   0.771   1.946   3.292
91582SOL     OW76519  13.701  10.132  14.582
91582SOL    HW176520  13.780  10.097  14.540
91582SOL    HW276521  13.691  10.079  14.661
91583SOL     OW76522   6.392   2.362   3.364
91583SOL    HW176523   6.310   2.336   3.322
91583SOL    HW276524   6.459   2.348   3.298
91584SOL     OW76525   7.443   4.378   8.888
91584SOL    HW176526   7.399   4.293   8.894
91584SOL    HW276527   7.505   4.378   8.961
91585SOL     OW76528   8.449  11.130   0.411
91585SOL    HW176529   8.530  11.162   0.372
91585SOL    HW276530   8.451  11.161   0.501
91586SOL     OW76531   7.051  12.086   0.724
91586SOL    HW176532   7.000  12.006   0.709
91586SOL    HW276533   7.043  12.101   0.819
91587SOL     OW76534  10.396  13.516   7.645
91587SOL    HW176535  10.420  13.444   7.587
91587SOL    HW276536  10.389  13.592   7.587
91588SOL     OW76537   0.211   1.933   5.909
91588SOL    HW176538   0.123   1.964   5.931
91588SOL    HW276539   0.196   1.846   5.871
91589SOL     OW76540   3.748   2.517  13.656
91589SOL    HW176541   3.669   2.570  13.653
91589SOL    HW276542   3.730   2.449  13.722
91590SOL     OW76543   1.726  14.150   7.374
91590SOL    HW176544   1.652  14.210   7.363
91590SOL    HW276545   1.750  14.158   7.466
91591SOL     OW76546   7.024  10.394   5.075
91591SOL    HW176547   6.941  10.374   5.118
91591SOL    HW276548   7.021  10.489   5.062
91592SOL     OW76549   7.405   4.757   7.496
91592SOL    HW176550   7.427   4.772   7.404
91592SOL    HW276551   7.421   4.664   7.510
91593SOL     OW76552   9.338   0.356   6.134
91593SOL    HW176553   9.293   0.273   6.120
91593SOL    HW276554   9.298   0.415   6.070
91594SOL     OW76555  13.103   9.971   6.393
91594SOL    HW176556  13.113   9.931   6.480
91594SOL    HW276557  13.192   9.969   6.356
91595SOL     OW76558   6.632  11.766  11.972
91595SOL    HW176559   6.626  11.671  11.961
91595SOL    HW276560   6.603  11.782  12.061
91596SOL     OW76561  12.764   2.918  11.301
91596SOL    HW176562  12.842   2.891  11.350
91596SOL    HW276563  12.705   2.953  11.368
91597SOL     OW76564   7.763   9.895   7.784
91597SOL    HW176565   7.811   9.901   7.866
91597SOL    HW276566   7.754   9.800   7.769
91598SOL     OW76567   9.065   8.068   8.808
91598SOL    HW176568   9.121   8.009   8.758
91598SOL    HW276569   9.124   8.111   8.871
91599SOL     OW76570  13.056   5.984   2.325
91599SOL    HW176571  13.028   6.041   2.254
91599SOL    HW276572  13.130   5.935   2.288
91600SOL     OW76573   0.939   9.104  10.057
91600SOL    HW176574   0.990   9.037  10.102
91600SOL    HW276575   0.956   9.089   9.964
91601SOL     OW76576   1.212   2.346  14.407
91601SOL    HW176577   1.272   2.290  14.457
91601SOL    HW276578   1.237   2.333  14.316
91602SOL     OW76579   7.930   2.762   4.673
91602SOL    HW176580   7.935   2.851   4.710
91602SOL    HW276581   7.936   2.776   4.578
91603SOL     OW76582   2.429   9.209  10.557
91603SOL    HW176583   2.450   9.162  10.477
91603SOL    HW276584   2.502   9.190  10.616
91604SOL     OW76585   6.326   8.273   7.351
91604SOL    HW176586   6.301   8.255   7.441
91604SOL    HW276587   6.326   8.188   7.308
91605SOL     OW76588   4.152   3.567   1.002
91605SOL    HW176589   4.166   3.615   0.920
91605SOL    HW276590   4.083   3.505   0.981
91606SOL     OW76591  10.657  13.728   3.963
91606SOL    HW176592  10.609  13.766   4.036
91606SOL    HW276593  10.598  13.661   3.928
91607SOL     OW76594   3.748  14.102   8.131
91607SOL    HW176595   3.655  14.083   8.123
91607SOL    HW276596   3.791  14.026   8.092
91608SOL     OW76597  10.392   9.827   5.246
91608SOL    HW176598  10.341   9.893   5.199
91608SOL    HW276599  10.326   9.765   5.279
91609SOL     OW76600   4.265   5.512  11.229
91609SOL    HW176601   4.211   5.586  11.256
91609SOL    HW276602   4.208   5.461  11.172
91610SOL     OW76603   9.853   0.233  14.344
91610SOL    HW176604   9.930   0.261  14.393
91610SOL    HW276605   9.889   0.188  14.267
91611SOL     OW76606   4.934   8.402   7.986
91611SOL    HW176607   5.013   8.359   7.955
91611SOL    HW276608   4.864   8.339   7.970
91612SOL     OW76609   9.935   1.409   5.231
91612SOL    HW176610   9.887   1.391   5.151
91612SOL    HW276611   9.924   1.504   5.244
91613SOL     OW76612   4.843   8.615   9.344
91613SOL    HW176613   4.810   8.530   9.316
91613SOL    HW276614   4.862   8.604   9.437
91614SOL     OW76615  11.325   5.255   9.381
91614SOL    HW176616  11.345   5.307   9.459
91614SOL    HW276617  11.338   5.315   9.308
91615SOL     OW76618   4.836   6.032   9.929
91615SOL    HW176619   4.904   5.973   9.896
91615SOL    HW276620   4.859   6.118   9.892
91616SOL     OW76621   0.848   3.830   5.373
91616SOL    HW176622   0.903   3.818   5.451
91616SOL    HW276623   0.810   3.917   5.383
91617SOL     OW76624  11.344   2.807  11.174
91617SOL    HW176625  11.352   2.899  11.197
91617SOL    HW276626  11.428   2.769  11.199
91618SOL     OW76627   4.024   7.249   3.860
91618SOL    HW176628   4.091   7.289   3.915
91618SOL    HW276629   4.043   7.155   3.863
91619SOL     OW76630   8.283   4.054  10.319
91619SOL    HW176631   8.194   4.075  10.291
91619SOL    HW276632   8.280   4.057  10.415
91620SOL     OW76633   2.400   2.684   1.188
91620SOL    HW176634   2.468   2.720   1.245
91620SOL    HW276635   2.406   2.589   1.200
91621SOL     OW76636  12.059   3.143   8.855
91621SOL    HW176637  12.127   3.106   8.799
91621SOL    HW276638  11.993   3.074   8.861
91622SOL     OW76639  12.848   4.306   2.846
91622SOL    HW176640  12.832   4.231   2.789
91622SOL    HW276641  12.769   4.359   2.839
91623SOL     OW76642   4.304   9.681   1.033
91623SOL    HW176643   4.326   9.759   1.084
91623SOL    HW276644   4.281   9.615   1.098
91624SOL     OW76645   7.505   8.929   5.374
91624SOL    HW176646   7.508   8.836   5.398
91624SOL    HW276647   7.585   8.966   5.412
91625SOL     OW76648  14.544   5.457   2.689
91625SOL    HW176649  14.615   5.521   2.681
91625SOL    HW276650  14.582   5.375   2.658
91626SOL     OW76651  13.116   1.990  10.671
91626SOL    HW176652  13.030   2.031  10.666
91626SOL    HW276653  13.116   1.923  10.603
91627SOL     OW76654   7.569   7.225  14.877
91627SOL    HW176655   7.475   7.208   0.006
91627SOL    HW276656   7.601   7.238   0.084
91628SOL     OW76657   9.305   0.602   8.576
91628SOL    HW176658   9.285   0.689   8.540
91628SOL    HW276659   9.387   0.577   8.533
91629SOL     OW76660   0.036   9.036  13.675
91629SOL    HW176661   0.104   8.976  13.645
91629SOL    HW276662   0.082   9.102  13.726
91630SOL     OW76663   7.111  10.164   3.197
91630SOL    HW176664   7.146  10.106   3.129
91630SOL    HW276665   7.072  10.105   3.261
91631SOL     OW76666   9.063   0.424  12.901
91631SOL    HW176667   9.060   0.339  12.857
91631SOL    HW276668   8.995   0.475  12.858
91632SOL     OW76669   4.128   6.173  13.181
91632SOL    HW176670   4.116   6.083  13.211
91632SOL    HW276671   4.097   6.227  13.253
91633SOL     OW76672   3.314   6.574  12.932
91633SOL    HW176673   3.331   6.509  12.864
91633SOL    HW276674   3.329   6.658  12.889
91634SOL     OW76675   9.371  11.823   0.953
91634SOL    HW176676   9.302  11.866   1.004
91634SOL    HW276677   9.372  11.733   0.985
91635SOL     OW76678   9.850  12.275   5.367
91635SOL    HW176679   9.812  12.363   5.363
91635SOL    HW276680   9.865  12.251   5.276
91636SOL     OW76681   5.128   1.104   8.310
91636SOL    HW176682   5.115   1.108   8.215
91636SOL    HW276683   5.077   1.178   8.344
91637SOL     OW76684   0.408  14.025  13.003
91637SOL    HW176685   0.453  13.940  12.999
91637SOL    HW276686   0.361  14.031  12.920
91638SOL     OW76687  12.513   5.616   2.543
91638SOL    HW176688  12.604   5.626   2.513
91638SOL    HW276689  12.521   5.566   2.625
91639SOL     OW76690  14.743   9.302   9.541
91639SOL    HW176691  14.701   9.370   9.595
91639SOL    HW276692  14.675   9.274   9.480
91640SOL     OW76693  14.208   5.436  14.127
91640SOL    HW176694  14.262   5.471  14.056
91640SOL    HW276695  14.124   5.480  14.117
91641SOL     OW76696   3.202   4.667   0.996
91641SOL    HW176697   3.279   4.617   1.022
91641SOL    HW276698   3.137   4.648   1.062
91642SOL     OW76699   8.829  11.530   6.899
91642SOL    HW176700   8.797  11.514   6.810
91642SOL    HW276701   8.835  11.443   6.938
91643SOL     OW76702  13.200   0.350   6.179
91643SOL    HW176703  13.118   0.400   6.180
91643SOL    HW276704  13.249   0.385   6.105
91644SOL     OW76705   3.114  14.237  12.666
91644SOL    HW176706   3.201  14.243  12.627
91644SOL    HW276707   3.061  14.194  12.599
91645SOL     OW76708   2.107   3.799   3.653
91645SOL    HW176709   2.179   3.746   3.619
91645SOL    HW276710   2.028   3.758   3.619
91646SOL     OW76711   0.951   8.009   7.068
91646SOL    HW176712   0.894   8.083   7.047
91646SOL    HW276713   1.039   8.038   7.042
91647SOL     OW76714   5.473   6.462  11.232
91647SOL    HW176715   5.403   6.456  11.297
91647SOL    HW276716   5.490   6.556  11.225
91648SOL     OW76717   3.133  11.358  10.034
91648SOL    HW176718   3.099  11.429   9.980
91648SOL    HW276719   3.221  11.387  10.058
91649SOL     OW76720  14.108  13.481   1.021
91649SOL    HW176721  14.073  13.567   1.043
91649SOL    HW276722  14.065  13.457   0.939
91650SOL     OW76723  11.192   9.772   7.876
91650SOL    HW176724  11.139   9.815   7.810
91650SOL    HW276725  11.274   9.822   7.877
91651SOL     OW76726  14.387   7.886   2.186
91651SOL    HW176727  14.450   7.914   2.119
91651SOL    HW276728  14.303   7.885   2.140
91652SOL     OW76729   5.445   9.055   1.238
91652SOL    HW176730   5.448   9.111   1.316
91652SOL    HW276731   5.402   9.108   1.172
91653SOL     OW76732   0.490   7.385   3.916
91653SOL    HW176733   0.489   7.441   3.993
91653SOL    HW276734   0.581   7.353   3.911
91654SOL     OW76735   7.216   4.464   8.407
91654SOL    HW176736   7.276   4.504   8.469
91654SOL    HW276737   7.262   4.469   8.323
91655SOL     OW76738   4.947  12.904   8.565
91655SOL    HW176739   4.954  12.933   8.474
91655SOL    HW276740   5.004  12.963   8.613
91656SOL     OW76741   5.633   7.148   7.213
91656SOL    HW176742   5.705   7.140   7.276
91656SOL    HW276743   5.574   7.076   7.235
91657SOL     OW76744   0.496  13.356   5.046
91657SOL    HW176745   0.461  13.266   5.040
91657SOL    HW276746   0.488  13.378   5.139
91658SOL     OW76747   8.319   4.202   1.751
91658SOL    HW176748   8.352   4.170   1.667
91658SOL    HW276749   8.254   4.136   1.777
91659SOL     OW76750   6.229   9.640  13.670
91659SOL    HW176751   6.236   9.548  13.644
91659SOL    HW276752   6.303   9.655  13.728
91660SOL     OW76753   7.271   5.261  11.792
91660SOL    HW176754   7.265   5.342  11.742
91660SOL    HW276755   7.195   5.210  11.765
91661SOL     OW76756  12.782   7.140   4.879
91661SOL    HW176757  12.799   7.046   4.875
91661SOL    HW276758  12.805   7.172   4.792
91662SOL     OW76759   0.826   0.936   2.115
91662SOL    HW176760   0.846   1.019   2.070
91662SOL    HW276761   0.742   0.909   2.077
91663SOL     OW76762  13.915  10.151   2.200
91663SOL    HW176763  13.854  10.145   2.127
91663SOL    HW276764  13.961  10.233   2.185
91664SOL     OW76765   6.064   4.048   3.690
91664SOL    HW176766   6.023   4.043   3.604
91664SOL    HW276767   6.112   3.966   3.698
91665SOL     OW76768   4.137   7.195  10.635
91665SOL    HW176769   4.142   7.195  10.731
91665SOL    HW276770   4.224   7.223  10.607
91666SOL     OW76771  11.329   8.644  11.372
91666SOL    HW176772  11.345   8.735  11.397
91666SOL    HW276773  11.247   8.621  11.417
91667SOL     OW76774   1.439  11.164  14.715
91667SOL    HW176775   1.347  11.161  14.742
91667SOL    HW276776   1.437  11.203  14.628
91668SOL     OW76777   9.963  12.272  13.196
91668SOL    HW176778  10.049  12.237  13.172
91668SOL    HW276779   9.931  12.313  13.116
91669SOL     OW76780   3.526  11.933   1.622
91669SOL    HW176781   3.616  11.926   1.591
91669SOL    HW276782   3.486  11.849   1.599
91670SOL     OW76783   1.820  12.077   4.353
91670SOL    HW176784   1.869  12.147   4.396
91670SOL    HW276785   1.764  12.042   4.422
91671SOL     OW76786  13.552  14.316   4.693
91671SOL    HW176787  13.484  14.358   4.640
91671SOL    HW276788  13.629  14.372   4.681
91672SOL     OW76789  14.221   7.039  12.975
91672SOL    HW176790  14.219   7.111  13.039
91672SOL    HW276791  14.155   6.977  13.006
91673SOL     OW76792   5.777  11.624  12.499
91673SOL    HW176793   5.753  11.581  12.581
91673SOL    HW276794   5.736  11.710  12.504
91674SOL     OW76795   9.863  11.221   8.761
91674SOL    HW176796   9.938  11.205   8.819
91674SOL    HW276797   9.845  11.136   8.722
91675SOL     OW76798   9.612   0.980   4.689
91675SOL    HW176799   9.531   0.938   4.659
91675SOL    HW276800   9.617   0.958   4.782
91676SOL     OW76801   6.212   7.091  11.453
91676SOL    HW176802   6.247   7.131  11.374
91676SOL    HW276803   6.144   7.031  11.422
91677SOL     OW76804  10.035   4.521   1.634
91677SOL    HW176805   9.958   4.550   1.584
91677SOL    HW276806  10.101   4.589   1.618
91678SOL     OW76807  10.363   1.937  13.511
91678SOL    HW176808  10.328   2.014  13.467
91678SOL    HW276809  10.287   1.883  13.529
91679SOL     OW76810  12.379   8.536   2.000
91679SOL    HW176811  12.399   8.616   2.048
91679SOL    HW276812  12.293   8.508   2.032
91680SOL     OW76813   7.070   1.008   0.501
91680SOL    HW176814   7.127   1.077   0.534
91680SOL    HW276815   6.983   1.048   0.499
91681SOL     OW76816   7.275   2.502   7.318
91681SOL    HW176817   7.328   2.504   7.397
91681SOL    HW276818   7.249   2.410   7.308
91682SOL     OW76819   5.440   0.055   1.166
91682SOL    HW176820   5.455   0.048   1.260
91682SOL    HW276821   5.392   0.137   1.156
91683SOL     OW76822   7.066   0.230   2.266
91683SOL    HW176823   6.979   0.270   2.271
91683SOL    HW276824   7.080   0.191   2.353
91684SOL     OW76825   0.363  10.945  10.654
91684SOL    HW176826   0.403  10.858  10.643
91684SOL    HW276827   0.282  10.941  10.604
91685SOL     OW76828   9.290   9.528   3.067
91685SOL    HW176829   9.226   9.552   3.133
91685SOL    HW276830   9.346   9.605   3.059
91686SOL     OW76831   1.547   4.872   9.515
91686SOL    HW176832   1.511   4.890   9.428
91686SOL    HW276833   1.546   4.777   9.522
91687SOL     OW76834   1.273   3.313  11.285
91687SOL    HW176835   1.333   3.368  11.335
91687SOL    HW276836   1.319   3.229  11.277
91688SOL     OW76837   6.260   6.077  11.764
91688SOL    HW176838   6.259   6.155  11.820
91688SOL    HW276839   6.353   6.057  11.752
91689SOL     OW76840   5.990   4.968   1.098
91689SOL    HW176841   6.076   4.926   1.098
91689SOL    HW276842   6.008   5.060   1.079
91690SOL     OW76843   5.086   8.971   0.398
91690SOL    HW176844   5.105   9.063   0.417
91690SOL    HW276845   5.115   8.924   0.476
91691SOL     OW76846   2.912  10.972  11.386
91691SOL    HW176847   2.894  10.957  11.479
91691SOL    HW276848   2.922  11.067  11.380
91692SOL     OW76849   4.197   2.367  11.618
91692SOL    HW176850   4.192   2.281  11.576
91692SOL    HW276851   4.106   2.396  11.624
91693SOL     OW76852   4.158  12.540   4.106
91693SOL    HW176853   4.177  12.627   4.140
91693SOL    HW276854   4.109  12.497   4.177
91694SOL     OW76855  14.095  10.433   3.391
91694SOL    HW176856  14.123  10.357   3.340
91694SOL    HW276857  14.029  10.476   3.338
91695SOL     OW76858  10.543   8.245   8.893
91695SOL    HW176859  10.454   8.249   8.858
91695SOL    HW276860  10.546   8.314   8.958
91696SOL     OW76861   7.662   5.762   1.692
91696SOL    HW176862   7.567   5.757   1.688
91696SOL    HW276863   7.692   5.671   1.692
91697SOL     OW76864  11.027  10.460  12.094
91697SOL    HW176865  11.079  10.541  12.096
91697SOL    HW276866  10.936  10.489  12.095
91698SOL     OW76867  13.836   8.825   3.782
91698SOL    HW176868  13.815   8.749   3.728
91698SOL    HW276869  13.799   8.805   3.868
91699SOL     OW76870   7.887  11.504  11.186
91699SOL    HW176871   7.939  11.451  11.246
91699SOL    HW276872   7.934  11.587  11.179
91700SOL     OW76873   7.057   9.898  14.079
91700SOL    HW176874   7.001   9.973  14.101
91700SOL    HW276875   7.114   9.888  14.155
91701SOL     OW76876   1.455   5.133   8.617
91701SOL    HW176877   1.431   5.050   8.577
91701SOL    HW276878   1.515   5.174   8.554
91702SOL     OW76879   2.981   9.394  10.272
91702SOL    HW176880   2.916   9.380  10.340
91702SOL    HW276881   2.959   9.480  10.234
91703SOL     OW76882   0.172   7.676   5.791
91703SOL    HW176883   0.140   7.766   5.785
91703SOL    HW276884   0.096   7.625   5.818
91704SOL     OW76885   1.613  13.202   0.545
91704SOL    HW176886   1.550  13.131   0.531
91704SOL    HW276887   1.583  13.272   0.487
91705SOL     OW76888   5.124   1.604  10.968
91705SOL    HW176889   5.152   1.693  10.946
91705SOL    HW276890   5.159   1.549  10.897
91706SOL     OW76891   9.623   9.283   8.697
91706SOL    HW176892   9.716   9.274   8.676
91706SOL    HW276893   9.592   9.193   8.707
91707SOL     OW76894   9.398   0.532   3.228
91707SOL    HW176895   9.404   0.446   3.270
91707SOL    HW276896   9.419   0.514   3.136
91708SOL     OW76897  13.618   0.842   0.132
91708SOL    HW176898  13.711   0.865   0.131
91708SOL    HW276899  13.582   0.894   0.204
91709SOL     OW76900   1.349  13.543  14.805
91709SOL    HW176901   1.381  13.618  14.855
91709SOL    HW276902   1.253  13.550  14.810
91710SOL     OW76903   0.598  13.959  10.106
91710SOL    HW176904   0.581  14.045  10.067
91710SOL    HW276905   0.528  13.903  10.072
91711SOL     OW76906   3.089  11.019  13.894
91711SOL    HW176907   3.027  10.980  13.833
91711SOL    HW276908   3.110  10.949  13.955
91712SOL     OW76909   9.305   2.057  12.068
91712SOL    HW176910   9.274   2.054  12.159
91712SOL    HW276911   9.385   2.109  12.072
91713SOL     OW76912   4.447  11.853   3.765
91713SOL    HW176913   4.518  11.896   3.718
91713SOL    HW276914   4.489  11.782   3.813
91714SOL     OW76915  13.999   1.818   6.367
91714SOL    HW176916  13.968   1.907   6.388
91714SOL    HW276917  14.043   1.828   6.282
91715SOL     OW76918   7.815  11.913  13.786
91715SOL    HW176919   7.769  11.835  13.816
91715SOL    HW276920   7.900  11.910  13.831
91716SOL     OW76921   9.953  13.156   8.649
91716SOL    HW176922   9.960  13.084   8.586
91716SOL    HW276923  10.012  13.223   8.614
91717SOL     OW76924   6.397  13.902  13.218
91717SOL    HW176925   6.459  13.971  13.243
91717SOL    HW276926   6.378  13.856  13.300
91718SOL     OW76927   7.148   1.759   3.568
91718SOL    HW176928   7.146   1.820   3.642
91718SOL    HW276929   7.122   1.675   3.606
91719SOL     OW76930   1.777  14.788   5.541
91719SOL    HW176931   1.810  14.752   5.459
91719SOL    HW276932   1.716  14.858   5.514
91720SOL     OW76933  12.395   3.325   8.527
91720SOL    HW176934  12.309   3.346   8.564
91720SOL    HW276935  12.390   3.357   8.437
91721SOL     OW76936  14.525   7.539   2.360
91721SOL    HW176937  14.490   7.452   2.377
91721SOL    HW276938  14.609   7.541   2.407
91722SOL     OW76939   9.553   4.883  14.340
91722SOL    HW176940   9.527   4.808  14.394
91722SOL    HW276941   9.507   4.958  14.378
91723SOL     OW76942  14.851  11.622   1.356
91723SOL    HW176943  14.855  11.545   1.414
91723SOL    HW276944  14.774  11.606   1.301
91724SOL     OW76945   2.063   1.000   3.425
91724SOL    HW176946   2.092   0.993   3.516
91724SOL    HW276947   2.060   1.094   3.408
91725SOL     OW76948  14.853  10.074   6.914
91725SOL    HW176949  14.831  10.101   7.003
91725SOL    HW276950  14.844  10.154   6.862
91726SOL     OW76951   8.348   5.480  12.493
91726SOL    HW176952   8.360   5.447  12.582
91726SOL    HW276953   8.436   5.505  12.465
91727SOL     OW76954   8.347  11.643  14.467
91727SOL    HW176955   8.372  11.603  14.551
91727SOL    HW276956   8.319  11.569  14.413
91728SOL     OW76957   3.753   2.509  13.380
91728SOL    HW176958   3.685   2.571  13.355
91728SOL    HW276959   3.759   2.517  13.475
91729SOL     OW76960   8.599   0.599   0.402
91729SOL    HW176961   8.554   0.678   0.431
91729SOL    HW276962   8.691   0.625   0.394
91730SOL     OW76963  11.625   6.496  12.346
91730SOL    HW176964  11.710   6.517  12.306
91730SOL    HW276965  11.572   6.463  12.274
91731SOL     OW76966  11.694   1.896  13.141
91731SOL    HW176967  11.693   1.935  13.229
91731SOL    HW276968  11.627   1.827  13.145
91732SOL     OW76969   2.910   5.134   3.316
91732SOL    HW176970   2.954   5.051   3.295
91732SOL    HW276971   2.950   5.197   3.256
91733SOL     OW76972   4.809   9.418   2.052
91733SOL    HW176973   4.826   9.511   2.040
91733SOL    HW276974   4.791   9.385   1.964
91734SOL     OW76975  13.879   4.917  14.649
91734SOL    HW176976  13.821   4.981  14.691
91734SOL    HW276977  13.856   4.921  14.556
91735SOL     OW76978  14.379   6.876   2.974
91735SOL    HW176979  14.294   6.865   3.016
91735SOL    HW276980  14.395   6.792   2.931
91736SOL     OW76981   5.038   5.809  10.713
91736SOL    HW176982   4.983   5.874  10.757
91736SOL    HW276983   5.118   5.857  10.690
91737SOL     OW76984  11.900   2.754   6.814
91737SOL    HW176985  11.874   2.764   6.722
91737SOL    HW276986  11.977   2.698   6.811
91738SOL     OW76987   1.034   0.734   5.498
91738SOL    HW176988   1.125   0.740   5.469
91738SOL    HW276989   1.039   0.699   5.587
91739SOL     OW76990   2.221   3.321  13.997
91739SOL    HW176991   2.167   3.273  14.060
91739SOL    HW276992   2.239   3.258  13.927
91740SOL     OW76993  10.280   9.183   6.929
91740SOL    HW176994  10.293   9.135   7.011
91740SOL    HW276995  10.368   9.188   6.890
91741SOL     OW76996  11.961  14.500   7.339
91741SOL    HW176997  11.899  14.446   7.290
91741SOL    HW276998  11.963  14.461   7.426
91742SOL     OW76999  11.832   0.864   7.512
91742SOL    HW177000  11.910   0.839   7.561
91742SOL    HW277001  11.759   0.839   7.569
91743SOL     OW77002  12.091   9.692  14.059
91743SOL    HW177003  12.159   9.713  14.123
91743SOL    HW277004  12.105   9.754  13.987
91744SOL     OW77005   5.052  11.492   0.405
91744SOL    HW177006   4.972  11.452   0.372
91744SOL    HW277007   5.023  11.574   0.446
91745SOL     OW77008   6.235   4.310   9.941
91745SOL    HW177009   6.271   4.258  10.013
91745SOL    HW277010   6.141   4.293   9.943
91746SOL     OW77011   1.481  10.990   0.944
91746SOL    HW177012   1.551  11.006   1.008
91746SOL    HW277013   1.527  10.971   0.862
91747SOL     OW77014   7.321  11.171   1.251
91747SOL    HW177015   7.262  11.162   1.176
91747SOL    HW277016   7.368  11.253   1.236
91748SOL     OW77017   8.044   3.121   4.083
91748SOL    HW177018   7.993   3.094   4.160
91748SOL    HW277019   8.113   3.055   4.077
91749SOL     OW77020   2.995   0.786   2.812
91749SOL    HW177021   2.980   0.709   2.758
91749SOL    HW277022   2.911   0.833   2.810
91750SOL     OW77023   1.435   2.880   5.473
91750SOL    HW177024   1.378   2.945   5.431
91750SOL    HW277025   1.377   2.833   5.534
91751SOL     OW77026  12.522   5.173  14.132
91751SOL    HW177027  12.490   5.243  14.075
91751SOL    HW277028  12.472   5.096  14.107
91752SOL     OW77029   6.758   5.155   9.705
91752SOL    HW177030   6.835   5.176   9.759
91752SOL    HW277031   6.747   5.231   9.648
91753SOL     OW77032  14.178  10.488  12.551
91753SOL    HW177033  14.182  10.498  12.646
91753SOL    HW277034  14.085  10.494  12.530
91754SOL     OW77035   4.715  14.850   7.395
91754SOL    HW177036   4.769  14.786   7.349
91754SOL    HW277037   4.632  14.805   7.410
91755SOL     OW77038   3.437  10.290  10.027
91755SOL    HW177039   3.409  10.209  10.070
91755SOL    HW277040   3.363  10.316   9.973
91756SOL     OW77041   5.082  14.164   1.866
91756SOL    HW177042   5.069  14.212   1.947
91756SOL    HW277043   5.173  14.133   1.870
91757SOL     OW77044  11.904   0.542   0.738
91757SOL    HW177045  11.899   0.463   0.685
91757SOL    HW277046  11.997   0.567   0.735
91758SOL     OW77047  14.453  11.312  14.729
91758SOL    HW177048  14.535  11.273  14.701
91758SOL    HW277049  14.475  11.403  14.749
91759SOL     OW77050   1.395   0.259  12.337
91759SOL    HW177051   1.370   0.167  12.324
91759SOL    HW277052   1.390   0.272  12.432
91760SOL     OW77053  14.451   3.858  12.103
91760SOL    HW177054  14.495   3.793  12.047
91760SOL    HW277055  14.470   3.942  12.062
91761SOL     OW77056   9.884  10.322   8.596
91761SOL    HW177057   9.833  10.401   8.613
91761SOL    HW277058   9.933  10.343   8.516
91762SOL     OW77059   4.089  14.052   8.454
91762SOL    HW177060   4.066  13.995   8.381
91762SOL    HW277061   4.184  14.047   8.460
91763SOL     OW77062   7.067   5.992   7.266
91763SOL    HW177063   7.085   5.960   7.354
91763SOL    HW277064   7.011   5.925   7.227
91764SOL     OW77065   8.213   9.738   8.493
91764SOL    HW177066   8.156   9.673   8.533
91764SOL    HW277067   8.300   9.698   8.492
91765SOL     OW77068  10.870  10.895  12.936
91765SOL    HW177069  10.855  10.957  13.007
91765SOL    HW277070  10.794  10.906  12.878
91766SOL     OW77071   1.172   2.075   4.588
91766SOL    HW177072   1.218   2.158   4.588
91766SOL    HW277073   1.148   2.060   4.680
91767SOL     OW77074   5.361  13.807  10.506
91767SOL    HW177075   5.317  13.887  10.476
91767SOL    HW277076   5.450  13.835  10.528
91768SOL     OW77077   5.718  12.413  13.438
91768SOL    HW177078   5.715  12.465  13.358
91768SOL    HW277079   5.802  12.367  13.434
91769SOL     OW77080   0.259   9.849  14.443
91769SOL    HW177081   0.278   9.880  14.532
91769SOL    HW277082   0.163   9.852  14.437
91770SOL     OW77083  12.116  14.084   9.683
91770SOL    HW177084  12.057  14.159   9.669
91770SOL    HW277085  12.088  14.046   9.766
91771SOL     OW77086  11.800   6.618   4.094
91771SOL    HW177087  11.869   6.616   4.027
91771SOL    HW277088  11.823   6.548   4.155
91772SOL     OW77089  12.886  11.943   4.384
91772SOL    HW177090  12.935  11.937   4.301
91772SOL    HW277091  12.839  11.860   4.390
91773SOL     OW77092  13.016  10.388   4.416
91773SOL    HW177093  13.009  10.304   4.462
91773SOL    HW277094  12.926  10.409   4.390
91774SOL     OW77095   5.090  14.792   4.725
91774SOL    HW177096   5.001  14.759   4.738
91774SOL    HW277097   5.144  14.713   4.724
91775SOL     OW77098   1.290  12.713  10.246
91775SOL    HW177099   1.329  12.646  10.302
91775SOL    HW277100   1.348  12.717  10.170
91776SOL     OW77101   0.991   3.199   5.545
91776SOL    HW177102   0.904   3.169   5.569
91776SOL    HW277103   0.991   3.292   5.566
91777SOL     OW77104   9.222   5.604   1.039
91777SOL    HW177105   9.171   5.674   0.997
91777SOL    HW277106   9.165   5.572   1.109
91778SOL     OW77107   2.952  11.887  13.452
91778SOL    HW177108   3.036  11.923  13.423
91778SOL    HW277109   2.931  11.820  13.387
91779SOL     OW77110   5.880   1.993  11.794
91779SOL    HW177111   5.873   2.083  11.827
91779SOL    HW277112   5.973   1.973  11.799
91780SOL     OW77113  12.044   7.476   3.313
91780SOL    HW177114  12.110   7.480   3.244
91780SOL    HW277115  12.051   7.387   3.348
91781SOL     OW77116  11.284   2.987   1.392
91781SOL    HW177117  11.192   2.972   1.413
91781SOL    HW277118  11.329   2.983   1.477
91782SOL     OW77119   8.844  13.190   4.869
91782SOL    HW177120   8.825  13.153   4.782
91782SOL    HW277121   8.931  13.158   4.890
91783SOL     OW77122  10.745   0.626   2.774
91783SOL    HW177123  10.720   0.712   2.740
91783SOL    HW277124  10.838   0.635   2.796
91784SOL     OW77125   5.692   5.012  14.665
91784SOL    HW177126   5.663   5.038  14.578
91784SOL    HW277127   5.624   5.046  14.724
91785SOL     OW77128   6.518   4.362   5.835
91785SOL    HW177129   6.507   4.401   5.922
91785SOL    HW277130   6.518   4.268   5.851
91786SOL     OW77131  11.772   1.091  13.312
91786SOL    HW177132  11.709   1.164  13.309
91786SOL    HW277133  11.718   1.013  13.317
91787SOL     OW77134   2.293   4.534  10.227
91787SOL    HW177135   2.342   4.481  10.290
91787SOL    HW277136   2.296   4.623  10.263
91788SOL     OW77137   9.470   8.342   6.862
91788SOL    HW177138   9.538   8.362   6.926
91788SOL    HW277139   9.393   8.388   6.893
91789SOL     OW77140   1.008   9.021   7.571
91789SOL    HW177141   1.045   9.066   7.496
91789SOL    HW277142   0.990   9.090   7.634
91790SOL     OW77143   3.749  11.108   4.339
91790SOL    HW177144   3.829  11.159   4.332
91790SOL    HW277145   3.684  11.169   4.374
91791SOL     OW77146  10.366  13.566  10.557
91791SOL    HW177147  10.388  13.638  10.498
91791SOL    HW277148  10.315  13.505  10.504
91792SOL     OW77149   5.538  13.897  10.983
91792SOL    HW177150   5.532  13.932  11.072
91792SOL    HW277151   5.622  13.851  10.981
91793SOL     OW77152   9.511  14.452  12.908
91793SOL    HW177153   9.462  14.468  12.989
91793SOL    HW277154   9.497  14.359  12.889
91794SOL     OW77155  10.901   9.115  14.212
91794SOL    HW177156  10.836   9.185  14.206
91794SOL    HW277157  10.925   9.097  14.121
91795SOL     OW77158  14.720  10.007   5.643
91795SOL    HW177159  14.668   9.977   5.717
91795SOL    HW277160  14.728   9.930   5.586
91796SOL     OW77161  10.320   9.228  12.108
91796SOL    HW177162  10.285   9.317  12.110
91796SOL    HW277163  10.309   9.195  12.197
91797SOL     OW77164   6.650   5.055   9.010
91797SOL    HW177165   6.666   5.115   8.937
91797SOL    HW277166   6.666   4.968   8.973
91798SOL     OW77167  11.540   4.776   1.584
91798SOL    HW177168  11.452   4.809   1.595
91798SOL    HW277169  11.535   4.685   1.614
91799SOL     OW77170   5.519  12.685   7.337
91799SOL    HW177171   5.476  12.681   7.251
91799SOL    HW277172   5.449  12.708   7.398
91800SOL     OW77173  11.168   1.521   1.547
91800SOL    HW177174  11.226   1.593   1.522
91800SOL    HW277175  11.146   1.477   1.465
91801SOL     OW77176   0.059   0.361  13.282
91801SOL    HW177177   0.003   0.322  13.350
91801SOL    HW277178   0.084   0.446  13.317
91802SOL     OW77179   3.249   2.377   6.705
91802SOL    HW177180   3.286   2.309   6.649
91802SOL    HW277181   3.183   2.419   6.650
91803SOL     OW77182   2.572   0.119  14.235
91803SOL    HW177183   2.477   0.111  14.244
91803SOL    HW277184   2.602   0.143  14.322
91804SOL     OW77185  14.191   9.012   8.636
91804SOL    HW177186  14.188   8.940   8.573
91804SOL    HW277187  14.123   8.990   8.700
91805SOL     OW77188   1.996  13.294  14.480
91805SOL    HW177189   2.051  13.287  14.403
91805SOL    HW277190   1.908  13.272  14.450
91806SOL     OW77191   8.112   3.957  11.338
91806SOL    HW177192   8.018   3.943  11.331
91806SOL    HW277193   8.141   3.965  11.247
91807SOL     OW77194   1.602   2.138   1.674
91807SOL    HW177195   1.544   2.182   1.612
91807SOL    HW277196   1.544   2.084   1.728
91808SOL     OW77197   9.360   0.458   1.721
91808SOL    HW177198   9.406   0.507   1.790
91808SOL    HW277199   9.290   0.412   1.766
91809SOL     OW77200   6.579   5.076   5.907
91809SOL    HW177201   6.487   5.073   5.932
91809SOL    HW277202   6.581   5.033   5.821
91810SOL     OW77203   4.580   4.652  14.555
91810SOL    HW177204   4.666   4.638  14.514
91810SOL    HW277205   4.561   4.568  14.598
91811SOL     OW77206   4.277   7.758   1.273
91811SOL    HW177207   4.219   7.826   1.308
91811SOL    HW277208   4.303   7.791   1.187
91812SOL     OW77209   7.854   7.932   5.517
91812SOL    HW177210   7.844   8.022   5.487
91812SOL    HW277211   7.897   7.939   5.602
91813SOL     OW77212  10.816   7.745  12.958
91813SOL    HW177213  10.796   7.673  12.899
91813SOL    HW277214  10.912   7.743  12.967
91814SOL     OW77215   7.952   3.407   0.228
91814SOL    HW177216   7.941   3.436   0.137
91814SOL    HW277217   7.962   3.488   0.278
91815SOL     OW77218   6.415   1.677   6.944
91815SOL    HW177219   6.477   1.634   7.002
91815SOL    HW277220   6.332   1.632   6.959
91816SOL     OW77221   9.720   3.606  13.366
91816SOL    HW177222   9.712   3.679  13.304
91816SOL    HW277223   9.640   3.610  13.418
91817SOL     OW77224   7.741   6.161   1.644
91817SOL    HW177225   7.709   6.101   1.711
91817SOL    HW277226   7.821   6.119   1.611
91818SOL     OW77227   7.603   9.542   2.306
91818SOL    HW177228   7.641   9.587   2.231
91818SOL    HW277229   7.640   9.454   2.303
91819SOL     OW77230   3.227   5.066  10.741
91819SOL    HW177231   3.322   5.072  10.744
91819SOL    HW277232   3.200   5.059  10.832
91820SOL     OW77233  13.391   9.702   9.330
91820SOL    HW177234  13.409   9.649   9.407
91820SOL    HW277235  13.391   9.640   9.257
91821SOL     OW77236   9.282   2.189   9.225
91821SOL    HW177237   9.322   2.110   9.187
91821SOL    HW277238   9.255   2.241   9.149
91822SOL     OW77239  14.363   2.626   4.378
91822SOL    HW177240  14.303   2.620   4.304
91822SOL    HW277241  14.306   2.638   4.455
91823SOL     OW77242   9.328   4.622   7.587
91823SOL    HW177243   9.276   4.636   7.666
91823SOL    HW277244   9.418   4.617   7.618
91824SOL     OW77245   7.914   6.520   4.085
91824SOL    HW177246   7.862   6.600   4.094
91824SOL    HW277247   7.962   6.513   4.167
91825SOL     OW77248  10.486   4.835  10.180
91825SOL    HW177249  10.405   4.866  10.140
91825SOL    HW277250  10.461   4.753  10.223
91826SOL     OW77251  13.411  13.469  10.339
91826SOL    HW177252  13.360  13.469  10.258
91826SOL    HW277253  13.488  13.415  10.319
91827SOL     OW77254  14.849   8.877   2.847
91827SOL    HW177255  14.835   8.867   2.941
91827SOL    HW277256   0.024   8.954   2.839
91828SOL     OW77257  11.836   2.005  14.522
91828SOL    HW177258  11.865   1.916  14.545
91828SOL    HW277259  11.884   2.062  14.582
91829SOL     OW77260  13.622   9.350   6.523
91829SOL    HW177261  13.561   9.347   6.448
91829SOL    HW277262  13.708   9.362   6.483
91830SOL     OW77263  10.376  11.828  10.181
91830SOL    HW177264  10.303  11.819  10.243
91830SOL    HW277265  10.437  11.759  10.206
91831SOL     OW77266   6.735   8.652   1.641
91831SOL    HW177267   6.662   8.596   1.667
91831SOL    HW277268   6.813   8.596   1.649
91832SOL     OW77269  12.850   3.246  12.837
91832SOL    HW177270  12.793   3.191  12.891
91832SOL    HW277271  12.820   3.231  12.747
91833SOL     OW77272  13.594  11.515   5.747
91833SOL    HW177273  13.686  11.541   5.757
91833SOL    HW277274  13.579  11.516   5.653
91834SOL     OW77275   6.873   6.618  13.933
91834SOL    HW177276   6.819   6.692  13.904
91834SOL    HW277277   6.822   6.578  14.003
91835SOL     OW77278   5.872   4.121   2.071
91835SOL    HW177279   5.910   4.095   2.155
91835SOL    HW277280   5.938   4.180   2.033
91836SOL     OW77281   1.974   8.793  12.286
91836SOL    HW177282   2.068   8.791  12.266
91836SOL    HW277283   1.938   8.860  12.228
91837SOL     OW77284  14.056   1.495   6.038
91837SOL    HW177285  13.980   1.541   6.002
91837SOL    HW277286  14.028   1.467   6.125
91838SOL     OW77287   5.642   9.247   8.186
91838SOL    HW177288   5.713   9.229   8.125
91838SOL    HW277289   5.620   9.161   8.223
91839SOL     OW77290   2.515  10.308   4.621
91839SOL    HW177291   2.599  10.347   4.645
91839SOL    HW277292   2.523  10.288   4.528
91840SOL     OW77293   5.087   3.822   2.365
91840SOL    HW177294   5.069   3.916   2.357
91840SOL    HW277295   5.156   3.816   2.431
91841SOL     OW77296  13.344  10.864   0.100
91841SOL    HW177297  13.299  10.949   0.099
91841SOL    HW277298  13.288  10.807   0.048
91842SOL     OW77299  11.901  10.349   1.452
91842SOL    HW177300  11.902  10.272   1.510
91842SOL    HW277301  11.879  10.422   1.510
91843SOL     OW77302  12.904   8.253  11.059
91843SOL    HW177303  12.821   8.300  11.054
91843SOL    HW277304  12.915   8.216  10.971
91844SOL     OW77305  14.171  13.560   6.449
91844SOL    HW177306  14.155  13.580   6.542
91844SOL    HW277307  14.266  13.558   6.441
91845SOL     OW77308   7.023   8.705   1.887
91845SOL    HW177309   6.989   8.641   1.824
91845SOL    HW277310   7.052   8.652   1.962
91846SOL     OW77311  14.622   2.251   1.928
91846SOL    HW177312  14.591   2.259   1.838
91846SOL    HW277313  14.625   2.157   1.945
91847SOL     OW77314   1.470   4.967   2.155
91847SOL    HW177315   1.448   5.018   2.077
91847SOL    HW277316   1.386   4.938   2.190
91848SOL     OW77317   4.382   8.553   0.813
91848SOL    HW177318   4.322   8.499   0.864
91848SOL    HW277319   4.408   8.498   0.739
91849SOL     OW77320   7.345  13.606   4.891
91849SOL    HW177321   7.307  13.537   4.945
91849SOL    HW277322   7.274  13.670   4.880
91850SOL     OW77323   8.136  14.144   6.535
91850SOL    HW177324   8.120  14.049   6.537
91850SOL    HW277325   8.109  14.171   6.447
91851SOL     OW77326   7.521  12.571   5.608
91851SOL    HW177327   7.601  12.584   5.558
91851SOL    HW277328   7.489  12.660   5.626
91852SOL     OW77329   7.983   0.640   9.030
91852SOL    HW177330   8.038   0.592   8.967
91852SOL    HW277331   7.949   0.572   9.088
91853SOL     OW77332  12.439  14.748  11.066
91853SOL    HW177333  12.406  14.702  11.143
91853SOL    HW277334  12.398  14.703  10.992
91854SOL     OW77335  10.012  12.850   3.505
91854SOL    HW177336   9.929  12.850   3.553
91854SOL    HW277337   9.995  12.796   3.428
91855SOL     OW77338   5.391   6.522  12.987
91855SOL    HW177339   5.429   6.609  12.994
91855SOL    HW277340   5.444   6.477  12.920
91856SOL     OW77341   6.339  11.790   7.460
91856SOL    HW177342   6.273  11.720   7.458
91856SOL    HW277343   6.412  11.756   7.409
91857SOL     OW77344   9.974   3.234   9.115
91857SOL    HW177345   9.899   3.293   9.101
91857SOL    HW277346  10.036   3.256   9.046
91858SOL     OW77347   4.443   3.603   5.067
91858SOL    HW177348   4.415   3.523   5.024
91858SOL    HW277349   4.367   3.631   5.118
91859SOL     OW77350   0.649   3.398   1.470
91859SOL    HW177351   0.590   3.345   1.416
91859SOL    HW277352   0.731   3.400   1.422
91860SOL     OW77353   3.953  11.538  14.087
91860SOL    HW177354   3.921  11.448  14.093
91860SOL    HW277355   3.875  11.590  14.068
91861SOL     OW77356   2.714   0.191   0.521
91861SOL    HW177357   2.631   0.231   0.550
91861SOL    HW277358   2.772   0.202   0.596
91862SOL     OW77359   3.931   6.910   0.444
91862SOL    HW177360   3.956   7.003   0.437
91862SOL    HW277361   4.014   6.864   0.455
91863SOL     OW77362  14.221   3.106   2.696
91863SOL    HW177363  14.168   3.031   2.724
91863SOL    HW277364  14.300   3.067   2.659
91864SOL     OW77365  10.375   3.551  12.623
91864SOL    HW177366  10.466   3.560  12.595
91864SOL    HW277367  10.380   3.530  12.716
91865SOL     OW77368   0.062   5.980  10.942
91865SOL    HW177369   0.097   5.908  10.994
91865SOL    HW277370   0.032   6.044  11.006
91866SOL     OW77371   7.635  13.743   0.339
91866SOL    HW177372   7.731  13.749   0.341
91866SOL    HW277373   7.607  13.815   0.282
91867SOL     OW77374   3.274   3.832   5.047
91867SOL    HW177375   3.289   3.813   5.140
91867SOL    HW277376   3.195   3.783   5.025
91868SOL     OW77377   4.975   4.540   7.325
91868SOL    HW177378   4.911   4.587   7.272
91868SOL    HW277379   4.977   4.586   7.408
91869SOL     OW77380  12.564   0.874   7.813
91869SOL    HW177381  12.595   0.785   7.832
91869SOL    HW277382  12.554   0.876   7.718
91870SOL     OW77383  11.175  10.793   8.555
91870SOL    HW177384  11.082  10.805   8.538
91870SOL    HW277385  11.197  10.861   8.618
91871SOL     OW77386  12.707   0.277   0.871
91871SOL    HW177387  12.783   0.224   0.847
91871SOL    HW277388  12.730   0.314   0.956
91872SOL     OW77389  11.410   9.915  10.914
91872SOL    HW177390  11.354   9.970  10.968
91872SOL    HW277391  11.493   9.963  10.909
91873SOL     OW77392   0.705  10.005   6.226
91873SOL    HW177393   0.724  10.048   6.309
91873SOL    HW277394   0.785   9.959   6.203
91874SOL     OW77395   0.368  13.053  14.028
91874SOL    HW177396   0.419  12.980  14.065
91874SOL    HW277397   0.421  13.084  13.954
91875SOL     OW77398   7.980   5.519  10.959
91875SOL    HW177399   8.064   5.479  10.939
91875SOL    HW277400   7.953   5.561  10.877
91876SOL     OW77401   1.074   2.432   9.890
91876SOL    HW177402   1.134   2.470   9.954
91876SOL    HW277403   1.131   2.407   9.817
91877SOL     OW77404   0.331   9.649   4.642
91877SOL    HW177405   0.286   9.604   4.714
91877SOL    HW277406   0.323   9.589   4.568
91878SOL     OW77407   9.399   1.927  12.811
91878SOL    HW177408   9.433   2.017  12.814
91878SOL    HW277409   9.317   1.931  12.859
91879SOL     OW77410   6.018  14.763   1.262
91879SOL    HW177411   5.955  14.694   1.242
91879SOL    HW277412   6.090  14.749   1.201
91880SOL     OW77413   3.794   4.201  14.347
91880SOL    HW177414   3.878   4.238  14.377
91880SOL    HW277415   3.794   4.112  14.380
91881SOL     OW77416   9.017   6.701   2.687
91881SOL    HW177417   8.989   6.776   2.739
91881SOL    HW277418   8.992   6.723   2.597
91882SOL     OW77419   1.158   5.367   0.461
91882SOL    HW177420   1.126   5.354   0.371
91882SOL    HW277421   1.083   5.347   0.516
91883SOL     OW77422   4.025   6.435  14.680
91883SOL    HW177423   4.016   6.370  14.610
91883SOL    HW277424   4.086   6.500  14.645
91884SOL     OW77425   0.267   4.928  11.679
91884SOL    HW177426   0.257   4.921  11.774
91884SOL    HW277427   0.355   4.965  11.667
91885SOL     OW77428   8.876   8.046  11.682
91885SOL    HW177429   8.833   7.980  11.628
91885SOL    HW277430   8.923   7.996  11.749
91886SOL     OW77431  11.353   3.971   1.604
91886SOL    HW177432  11.321   3.882   1.617
91886SOL    HW277433  11.444   3.960   1.575
91887SOL     OW77434  12.425   7.484   4.160
91887SOL    HW177435  12.520   7.490   4.167
91887SOL    HW277436  12.409   7.448   4.073
91888SOL     OW77437  12.255  11.782  10.228
91888SOL    HW177438  12.312  11.713  10.260
91888SOL    HW277439  12.202  11.741  10.160
91889SOL     OW77440  12.222   5.622  12.570
91889SOL    HW177441  12.304   5.581  12.595
91889SOL    HW277442  12.194   5.670  12.648
91890SOL     OW77443  11.152  10.214   2.724
91890SOL    HW177444  11.157  10.145   2.791
91890SOL    HW277445  11.230  10.268   2.740
91891SOL     OW77446   6.452   4.803  10.578
91891SOL    HW177447   6.472   4.806  10.672
91891SOL    HW277448   6.525   4.753  10.540
91892SOL     OW77449  13.889   7.289  12.664
91892SOL    HW177450  13.851   7.202  12.675
91892SOL    HW277451  13.979   7.280  12.694
91893SOL     OW77452   1.627   7.709   9.420
91893SOL    HW177453   1.684   7.766   9.368
91893SOL    HW277454   1.596   7.643   9.357
91894SOL     OW77455  11.513   8.892  11.155
91894SOL    HW177456  11.537   8.980  11.127
91894SOL    HW277457  11.467   8.904  11.238
91895SOL     OW77458   0.142   5.610   5.958
91895SOL    HW177459   0.131   5.611   5.863
91895SOL    HW277460   0.132   5.701   5.984
91896SOL     OW77461   2.513  14.460   8.090
91896SOL    HW177462   2.540  14.373   8.061
91896SOL    HW277463   2.579  14.485   8.154
91897SOL     OW77464  14.077  10.356  10.402
91897SOL    HW177465  14.172  10.359  10.405
91897SOL    HW277466  14.054  10.278  10.452
91898SOL     OW77467  10.304   4.368   9.474
91898SOL    HW177468  10.247   4.329   9.408
91898SOL    HW277469  10.310   4.460   9.450
91899SOL     OW77470  14.245   6.523   3.980
91899SOL    HW177471  14.165   6.556   3.939
91899SOL    HW277472  14.306   6.596   3.977
91900SOL     OW77473   0.242   1.280   2.518
91900SOL    HW177474   0.323   1.236   2.493
91900SOL    HW277475   0.270   1.346   2.582
91901SOL     OW77476   4.039  13.828   8.760
91901SOL    HW177477   4.088  13.751   8.788
91901SOL    HW277478   4.088  13.902   8.797
91902SOL     OW77479   8.098  14.735   2.650
91902SOL    HW177480   8.121  14.825   2.674
91902SOL    HW277481   8.125  14.727   2.558
91903SOL     OW77482  10.979   8.962   0.235
91903SOL    HW177483  11.046   9.021   0.269
91903SOL    HW277484  10.935   8.928   0.313
91904SOL     OW77485   5.845  12.343   7.136
91904SOL    HW177486   5.805  12.428   7.156
91904SOL    HW277487   5.771  12.284   7.122
91905SOL     OW77488   3.691   0.070  14.198
91905SOL    HW177489   3.688   0.108  14.286
91905SOL    HW277490   3.661   0.141  14.141
91906SOL     OW77491   0.637   5.985  12.738
91906SOL    HW177492   0.688   5.906  12.720
91906SOL    HW277493   0.670   6.049  12.676
91907SOL     OW77494  14.676   1.374   2.936
91907SOL    HW177495  14.619   1.379   2.859
91907SOL    HW277496  14.737   1.304   2.917
91908SOL     OW77497  11.240   2.601   6.772
91908SOL    HW177498  11.333   2.612   6.753
91908SOL    HW277499  11.234   2.604   6.868
91909SOL     OW77500  14.153   1.999   3.267
91909SOL    HW177501  14.139   1.905   3.278
91909SOL    HW277502  14.070   2.032   3.231
91910SOL     OW77503   5.375   0.647   5.178
91910SOL    HW177504   5.282   0.643   5.197
91910SOL    HW277505   5.411   0.708   5.242
91911SOL     OW77506  10.303  14.755   5.411
91911SOL    HW177507  10.217  14.715   5.404
91911SOL    HW277508  10.286  14.849   5.416
91912SOL     OW77509  10.963   3.766  12.394
91912SOL    HW177510  11.043   3.783  12.344
91912SOL    HW277511  10.895   3.815  12.347
91913SOL     OW77512   5.854   6.221   0.311
91913SOL    HW177513   5.944   6.229   0.281
91913SOL    HW277514   5.861   6.185   0.400
91914SOL     OW77515   9.337  14.360   6.695
91914SOL    HW177516   9.319  14.355   6.789
91914SOL    HW277517   9.256  14.395   6.658
91915SOL     OW77518   4.391   2.876   3.947
91915SOL    HW177519   4.399   2.925   3.865
91915SOL    HW277520   4.331   2.805   3.927
91916SOL     OW77521  14.091  10.067  10.301
91916SOL    HW177522  14.009  10.023  10.281
91916SOL    HW277523  14.072  10.160  10.291
91917SOL     OW77524   7.735   0.158   9.569
91917SOL    HW177525   7.715   0.138   9.477
91917SOL    HW277526   7.820   0.202   9.566
91918SOL     OW77527  11.216  14.335  11.882
91918SOL    HW177528  11.126  14.326  11.850
91918SOL    HW277529  11.224  14.427  11.905
91919SOL     OW77530   7.964  13.685  13.367
91919SOL    HW177531   7.952  13.625  13.293
91919SOL    HW277532   7.986  13.769  13.327
91920SOL     OW77533   5.985   3.926   0.581
91920SOL    HW177534   6.034   3.852   0.616
91920SOL    HW277535   5.894   3.897   0.580
91921SOL     OW77536   9.881  12.447   4.082
91921SOL    HW177537   9.916  12.377   4.137
91921SOL    HW277538   9.850  12.402   4.003
91922SOL     OW77539  13.241  13.816   9.760
91922SOL    HW177540  13.269  13.741   9.707
91922SOL    HW277541  13.157  13.789   9.797
91923SOL     OW77542   3.170  11.537   0.154
91923SOL    HW177543   3.233  11.483   0.106
91923SOL    HW277544   3.187  11.626   0.122
91924SOL     OW77545   7.850   6.121   1.325
91924SOL    HW177546   7.848   6.074   1.241
91924SOL    HW277547   7.816   6.059   1.389
91925SOL     OW77548   0.667   2.918   2.272
91925SOL    HW177549   0.611   2.957   2.340
91925SOL    HW277550   0.634   2.828   2.264
91926SOL     OW77551   1.683   2.958   4.442
91926SOL    HW177552   1.648   2.919   4.362
91926SOL    HW277553   1.611   2.956   4.504
91927SOL     OW77554  12.276   8.873   6.236
91927SOL    HW177555  12.264   8.944   6.299
91927SOL    HW277556  12.304   8.918   6.156
91928SOL     OW77557   2.791   2.791   0.795
91928SOL    HW177558   2.877   2.790   0.751
91928SOL    HW277559   2.810   2.759   0.884
91929SOL     OW77560   2.822   3.168  11.553
91929SOL    HW177561   2.777   3.105  11.609
91929SOL    HW277562   2.754   3.201  11.494
91930SOL     OW77563  12.925  13.658  14.398
91930SOL    HW177564  12.997  13.599  14.423
91930SOL    HW277565  12.846  13.604  14.405
91931SOL     OW77566   4.048   3.506  10.344
91931SOL    HW177567   4.131   3.473  10.379
91931SOL    HW277568   4.059   3.601  10.342
91932SOL     OW77569   3.798  14.742   6.145
91932SOL    HW177570   3.803  14.710   6.235
91932SOL    HW277571   3.760  14.669   6.096
91933SOL     OW77572  12.335   2.268   1.600
91933SOL    HW177573  12.288   2.196   1.558
91933SOL    HW277574  12.424   2.264   1.563
91934SOL     OW77575   8.627  11.139  11.633
91934SOL    HW177576   8.641  11.154  11.726
91934SOL    HW277577   8.712  11.154  11.592
91935SOL     OW77578   1.583   7.936  11.258
91935SOL    HW177579   1.570   8.009  11.319
91935SOL    HW277580   1.494   7.909  11.234
91936SOL     OW77581   8.758   2.685   1.205
91936SOL    HW177582   8.787   2.627   1.275
91936SOL    HW277583   8.822   2.757   1.206
91937SOL     OW77584   7.221   7.728  10.383
91937SOL    HW177585   7.286   7.772  10.328
91937SOL    HW277586   7.271   7.662  10.430
91938SOL     OW77587   1.536   9.317   1.484
91938SOL    HW177588   1.446   9.295   1.507
91938SOL    HW277589   1.528   9.375   1.409
91939SOL     OW77590  10.410   3.247   6.628
91939SOL    HW177591  10.349   3.196   6.574
91939SOL    HW277592  10.380   3.337   6.619
91940SOL     OW77593   2.393  13.320   4.564
91940SOL    HW177594   2.361  13.291   4.478
91940SOL    HW277595   2.469  13.265   4.582
91941SOL     OW77596  13.432   5.774  10.945
91941SOL    HW177597  13.347   5.804  10.912
91941SOL    HW277598  13.472   5.728  10.871
91942SOL     OW77599  14.284  14.049   8.592
91942SOL    HW177600  14.376  14.045   8.565
91942SOL    HW277601  14.246  14.117   8.536
91943SOL     OW77602  13.576   5.067  12.752
91943SOL    HW177603  13.559   4.975  12.735
91943SOL    HW277604  13.555   5.111  12.669
91944SOL     OW77605   9.798  14.059   6.761
91944SOL    HW177606   9.801  14.017   6.846
91944SOL    HW277607   9.874  14.024   6.714
91945SOL     OW77608   9.638   3.556   6.415
91945SOL    HW177609   9.647   3.498   6.340
91945SOL    HW277610   9.725   3.595   6.427
91946SOL     OW77611   7.018   6.527   4.476
91946SOL    HW177612   7.051   6.439   4.458
91946SOL    HW277613   6.923   6.519   4.465
91947SOL     OW77614  14.617  12.460   5.273
91947SOL    HW177615  14.656  12.400   5.210
91947SOL    HW277616  14.688  12.481   5.334
91948SOL     OW77617   6.488   6.443   0.294
91948SOL    HW177618   6.413   6.441   0.233
91948SOL    HW277619   6.564   6.426   0.239
91949SOL     OW77620   8.552  12.047   1.150
91949SOL    HW177621   8.461  12.076   1.146
91949SOL    HW277622   8.561  12.013   1.239
91950SOL     OW77623   6.560  14.670  10.185
91950SOL    HW177624   6.549  14.606  10.115
91950SOL    HW277625   6.473  14.677  10.225
91951SOL     OW77626  12.818   1.442   9.251
91951SOL    HW177627  12.864   1.427   9.168
91951SOL    HW277628  12.821   1.358   9.296
91952SOL     OW77629   8.024   6.733   0.586
91952SOL    HW177630   8.058   6.747   0.674
91952SOL    HW277631   8.042   6.640   0.568
91953SOL     OW77632   0.339  10.632  10.848
91953SOL    HW177633   0.394  10.591  10.781
91953SOL    HW277634   0.379  10.717  10.862
91954SOL     OW77635  13.611   0.144   7.745
91954SOL    HW177636  13.583   0.227   7.785
91954SOL    HW277637  13.533   0.088   7.749
91955SOL     OW77638   2.085  10.570  11.074
91955SOL    HW177639   2.156  10.591  11.013
91955SOL    HW277640   2.061  10.480  11.054
91956SOL     OW77641   0.368   8.586   8.769
91956SOL    HW177642   0.392   8.658   8.827
91956SOL    HW277643   0.314   8.529   8.823
91957SOL     OW77644  11.439   9.744   7.529
91957SOL    HW177645  11.431   9.651   7.509
91957SOL    HW277646  11.349   9.773   7.546
91958SOL     OW77647   8.442   8.310  10.335
91958SOL    HW177648   8.404   8.348  10.256
91958SOL    HW277649   8.494   8.381  10.372
91959SOL     OW77650   1.533   6.520   6.873
91959SOL    HW177651   1.490   6.587   6.819
91959SOL    HW277652   1.552   6.565   6.955
91960SOL     OW77653  12.416   4.083   5.115
91960SOL    HW177654  12.471   4.099   5.192
91960SOL    HW277655  12.457   4.008   5.072
91961SOL     OW77656   0.169   2.867  14.588
91961SOL    HW177657   0.076   2.882  14.601
91961SOL    HW277658   0.208   2.883  14.674
91962SOL     OW77659   7.792   4.896   7.243
91962SOL    HW177660   7.863   4.938   7.292
91962SOL    HW277661   7.836   4.850   7.172
91963SOL     OW77662   6.447   4.927   9.210
91963SOL    HW177663   6.480   4.960   9.293
91963SOL    HW277664   6.502   4.970   9.144
91964SOL     OW77665  13.836   4.469   8.178
91964SOL    HW177666  13.784   4.403   8.222
91964SOL    HW277667  13.915   4.423   8.149
91965SOL     OW77668   3.177   7.612   6.177
91965SOL    HW177669   3.150   7.521   6.186
91965SOL    HW277670   3.149   7.654   6.258
91966SOL     OW77671   4.946   3.158  10.213
91966SOL    HW177672   4.926   3.230  10.153
91966SOL    HW277673   5.032   3.126  10.185
91967SOL     OW77674   1.295   1.802   0.818
91967SOL    HW177675   1.226   1.805   0.884
91967SOL    HW277676   1.320   1.710   0.812
91968SOL     OW77677  11.717   6.829  14.352
91968SOL    HW177678  11.743   6.762  14.414
91968SOL    HW277679  11.738   6.792  14.266
91969SOL     OW77680  10.035   8.434   1.631
91969SOL    HW177681  10.089   8.510   1.611
91969SOL    HW277682  10.091   8.377   1.684
91970SOL     OW77683   0.166  11.460   8.695
91970SOL    HW177684   0.250  11.442   8.737
91970SOL    HW277685   0.188  11.515   8.620
91971SOL     OW77686   4.636   9.788   0.677
91971SOL    HW177687   4.648   9.826   0.590
91971SOL    HW277688   4.710   9.822   0.728
91972SOL     OW77689   5.433   9.420   4.724
91972SOL    HW177690   5.338   9.432   4.726
91972SOL    HW277691   5.466   9.500   4.684
91973SOL     OW77692   0.993  14.023   1.379
91973SOL    HW177693   1.055  14.046   1.311
91973SOL    HW277694   0.936  14.100   1.387
91974SOL     OW77695   8.545  10.939  14.156
91974SOL    HW177696   8.468  10.917  14.208
91974SOL    HW277697   8.576  11.022  14.191
91975SOL     OW77698   0.309   0.348  10.713
91975SOL    HW177699   0.297   0.362  10.807
91975SOL    HW277700   0.338   0.433  10.679
91976SOL     OW77701   7.652   1.045   1.229
91976SOL    HW177702   7.657   0.998   1.313
91976SOL    HW277703   7.559   1.046   1.208
91977SOL     OW77704  14.618   7.778   9.429
91977SOL    HW177705  14.651   7.743   9.347
91977SOL    HW277706  14.682   7.844   9.455
91978SOL     OW77707   2.594  12.704   3.065
91978SOL    HW177708   2.673  12.660   3.034
91978SOL    HW277709   2.537  12.707   2.988
91979SOL     OW77710   9.855   9.883   1.044
91979SOL    HW177711   9.806   9.821   0.990
91979SOL    HW277712   9.804   9.891   1.124
91980SOL     OW77713  14.722  12.029   3.764
91980SOL    HW177714  14.664  11.978   3.707
91980SOL    HW277715  14.733  12.113   3.719
91981SOL     OW77716   6.395   3.569   0.447
91981SOL    HW177717   6.444   3.529   0.375
91981SOL    HW277718   6.303   3.556   0.424
91982SOL     OW77719   0.972   1.298   2.504
91982SOL    HW177720   0.968   1.394   2.500
91982SOL    HW277721   0.997   1.279   2.595
91983SOL     OW77722  12.962   8.122   9.257
91983SOL    HW177723  12.888   8.079   9.215
91983SOL    HW277724  12.927   8.154   9.340
91984SOL     OW77725   9.887   4.655   1.917
91984SOL    HW177726   9.909   4.722   1.982
91984SOL    HW277727   9.890   4.701   1.833
91985SOL     OW77728   7.242  10.427   8.138
91985SOL    HW177729   7.294  10.382   8.071
91985SOL    HW277730   7.275  10.517   8.137
91986SOL     OW77731  13.597   8.746   2.311
91986SOL    HW177732  13.643   8.771   2.392
91986SOL    HW277733  13.591   8.650   2.317
91987SOL     OW77734   1.711   4.080  14.219
91987SOL    HW177735   1.679   4.120  14.301
91987SOL    HW277736   1.779   4.019  14.247
91988SOL     OW77737  10.420   8.033  13.092
91988SOL    HW177738  10.394   8.010  13.003
91988SOL    HW277739  10.351   7.998  13.147
91989SOL     OW77740  14.865  13.963   5.952
91989SOL    HW177741   0.063  13.935   5.998
91989SOL    HW277742  14.843  13.890   5.894
91990SOL     OW77743   9.499  14.169  12.239
91990SOL    HW177744   9.570  14.109  12.262
91990SOL    HW277745   9.527  14.208  12.156
91991SOL     OW77746  12.297  14.704  13.735
91991SOL    HW177747  12.314  14.610  13.735
91991SOL    HW277748  12.360  14.740  13.671
91992SOL     OW77749   1.519   2.360   0.565
91992SOL    HW177750   1.492   2.369   0.474
91992SOL    HW277751   1.570   2.439   0.584
91993SOL     OW77752  11.335   7.365   3.930
91993SOL    HW177753  11.417   7.322   3.906
91993SOL    HW277754  11.338   7.371   4.026
91994SOL     OW77755   2.366   9.685  11.150
91994SOL    HW177756   2.358   9.589  11.152
91994SOL    HW277757   2.451   9.702  11.190
91995SOL     OW77758   0.444  13.803  14.873
91995SOL    HW177759   0.362  13.783   0.037
91995SOL    HW277760   0.505  13.737   0.023
91996SOL     OW77761  12.142   5.367   0.037
91996SOL    HW177762  12.188   5.344   0.119
91996SOL    HW277763  12.179   5.451   0.012
91997SOL     OW77764   5.633   4.073   8.287
91997SOL    HW177765   5.721   4.093   8.252
91997SOL    HW277766   5.574   4.126   8.233
91998SOL     OW77767  11.642   0.626   0.460
91998SOL    HW177768  11.574   0.660   0.401
91998SOL    HW277769  11.660   0.538   0.426
91999SOL     OW77770  12.287   0.020   5.268
91999SOL    HW177771  12.297   0.105   5.312
91999SOL    HW277772  12.315   0.036   5.178
92000SOL     OW77773  11.565   9.351   0.739
92000SOL    HW177774  11.528   9.394   0.816
92000SOL    HW277775  11.626   9.415   0.703
92001SOL     OW77776   1.506   0.324   8.955
92001SOL    HW177777   1.411   0.333   8.961
92001SOL    HW277778   1.525   0.241   8.999
92002SOL     OW77779  14.836   6.892   9.064
92002SOL    HW177780  14.843   6.923   9.154
92002SOL    HW277781   0.040   6.910   9.025
92003SOL     OW77782   0.036   8.649   0.794
92003SOL    HW177783   0.058   8.578   0.854
92003SOL    HW277784   0.061   8.617   0.708
92004SOL     OW77785  11.879  10.211   2.935
92004SOL    HW177786  11.927  10.274   2.988
92004SOL    HW277787  11.938  10.136   2.927
92005SOL     OW77788   4.646   5.818  13.352
92005SOL    HW177789   4.566   5.860  13.385
92005SOL    HW277790   4.683   5.774  13.429
92006SOL     OW77791  10.905  11.777   0.354
92006SOL    HW177792  10.920  11.871   0.355
92006SOL    HW277793  10.932  11.749   0.266
92007SOL     OW77794  12.691  11.305   9.060
92007SOL    HW177795  12.771  11.307   9.008
92007SOL    HW277796  12.694  11.220   9.105
92008SOL     OW77797  10.038   9.488  11.764
92008SOL    HW177798  10.006   9.490  11.674
92008SOL    HW277799  10.102   9.417  11.766
92009SOL     OW77800   8.325  14.203   6.869
92009SOL    HW177801   8.386  14.276   6.883
92009SOL    HW277802   8.382  14.129   6.845
92010SOL     OW77803   8.477   6.698  13.878
92010SOL    HW177804   8.549   6.722  13.821
92010SOL    HW277805   8.461   6.605  13.859
92011SOL     OW77806   3.716  13.983  10.312
92011SOL    HW177807   3.708  13.925  10.388
92011SOL    HW277808   3.716  13.925  10.236
92012SOL     OW77809   9.133   6.471   9.077
92012SOL    HW177810   9.177   6.512   9.002
92012SOL    HW277811   9.134   6.539   9.145
92013SOL     OW77812   3.852  13.427   9.402
92013SOL    HW177813   3.910  13.482   9.349
92013SOL    HW277814   3.795  13.384   9.338
92014SOL     OW77815  13.876   8.290  10.791
92014SOL    HW177816  13.820   8.212  10.788
92014SOL    HW277817  13.946   8.267  10.852
92015SOL     OW77818   1.912   7.996   5.498
92015SOL    HW177819   1.874   7.993   5.410
92015SOL    HW277820   1.954   8.082   5.502
92016SOL     OW77821  10.797   4.884  11.734
92016SOL    HW177822  10.741   4.960  11.717
92016SOL    HW277823  10.886   4.914  11.713
92017SOL     OW77824   2.923   1.984  13.234
92017SOL    HW177825   2.936   1.891  13.249
92017SOL    HW277826   2.873   2.014  13.310
92018SOL     OW77827   1.091  12.656   6.720
92018SOL    HW177828   1.077  12.620   6.632
92018SOL    HW277829   1.180  12.629   6.743
92019SOL     OW77830  13.774  14.244   1.728
92019SOL    HW177831  13.757  14.222   1.637
92019SOL    HW277832  13.864  14.276   1.729
92020SOL     OW77833   9.363   3.674   7.322
92020SOL    HW177834   9.347   3.724   7.402
92020SOL    HW277835   9.283   3.623   7.309
92021SOL     OW77836   6.429  10.087   0.467
92021SOL    HW177837   6.367  10.047   0.406
92021SOL    HW277838   6.405  10.052   0.553
92022SOL     OW77839  11.897   7.283  10.769
92022SOL    HW177840  11.897   7.378  10.777
92022SOL    HW277841  11.943   7.252  10.847
92023SOL     OW77842  11.867  12.141  14.712
92023SOL    HW177843  11.868  12.063  14.767
92023SOL    HW277844  11.793  12.193  14.744
92024SOL     OW77845   5.972   4.117  14.347
92024SOL    HW177846   5.998   4.037  14.302
92024SOL    HW277847   6.044   4.135  14.407
92025SOL     OW77848   1.713   9.605  10.860
92025SOL    HW177849   1.696   9.660  10.937
92025SOL    HW277850   1.641   9.625  10.801
92026SOL     OW77851  12.496  11.872   5.164
92026SOL    HW177852  12.410  11.829   5.164
92026SOL    HW277853  12.486  11.944   5.102
92027SOL     OW77854   0.232   4.755  10.839
92027SOL    HW177855   0.308   4.763  10.896
92027SOL    HW277856   0.193   4.670  10.862
92028SOL     OW77857   0.658   2.417  11.004
92028SOL    HW177858   0.579   2.471  10.997
92028SOL    HW277859   0.629   2.338  11.050
92029SOL     OW77860   9.847   1.364   8.823
92029SOL    HW177861   9.891   1.396   8.901
92029SOL    HW277862   9.894   1.406   8.750
92030SOL     OW77863  14.476   8.941  11.249
92030SOL    HW177864  14.425   8.942  11.168
92030SOL    HW277865  14.441   8.866  11.297
92031SOL     OW77866   6.374  12.679   2.306
92031SOL    HW177867   6.455  12.678   2.356
92031SOL    HW277868   6.318  12.743   2.351
92032SOL     OW77869   0.899  14.045   6.329
92032SOL    HW177870   0.865  14.069   6.415
92032SOL    HW277871   0.994  14.043   6.340
92033SOL     OW77872  12.803   6.763  12.159
92033SOL    HW177873  12.736   6.793  12.221
92033SOL    HW277874  12.864   6.713  12.212
92034SOL     OW77875   4.645  13.260  11.153
92034SOL    HW177876   4.683  13.193  11.095
92034SOL    HW277877   4.551  13.259  11.132
92035SOL     OW77878   5.166   5.930  13.777
92035SOL    HW177879   5.204   5.962  13.695
92035SOL    HW277880   5.241   5.908  13.832
92036SOL     OW77881   8.129  13.230   3.017
92036SOL    HW177882   8.215  13.198   2.990
92036SOL    HW277883   8.141  13.257   3.109
92037SOL     OW77884   1.611   4.740   2.182
92037SOL    HW177885   1.563   4.819   2.157
92037SOL    HW277886   1.699   4.753   2.147
92038SOL     OW77887   4.533   9.172   3.737
92038SOL    HW177888   4.466   9.143   3.799
92038SOL    HW277889   4.609   9.192   3.792
92039SOL     OW77890   4.483   5.707   1.543
92039SOL    HW177891   4.391   5.689   1.525
92039SOL    HW277892   4.503   5.784   1.489
92040SOL     OW77893   2.691  13.662   2.545
92040SOL    HW177894   2.694  13.739   2.488
92040SOL    HW277895   2.738  13.688   2.624
92041SOL     OW77896   6.218   7.908   4.617
92041SOL    HW177897   6.306   7.945   4.620
92041SOL    HW277898   6.216   7.861   4.534
92042SOL     OW77899   1.908   9.123  14.288
92042SOL    HW177900   1.993   9.111  14.330
92042SOL    HW277901   1.850   9.148  14.360
92043SOL     OW77902   9.229   1.978   5.711
92043SOL    HW177903   9.212   1.888   5.683
92043SOL    HW277904   9.264   1.970   5.800
92044SOL     OW77905   4.444  12.292   8.896
92044SOL    HW177906   4.351  12.279   8.877
92044SOL    HW277907   4.486  12.212   8.864
92045SOL     OW77908  14.638   6.193   0.400
92045SOL    HW177909  14.665   6.220   0.312
92045SOL    HW277910  14.556   6.239   0.415
92046SOL     OW77911   9.680  13.362   7.885
92046SOL    HW177912   9.723  13.417   7.951
92046SOL    HW277913   9.687  13.412   7.803
92047SOL     OW77914   6.514  13.623   3.056
92047SOL    HW177915   6.578  13.648   3.122
92047SOL    HW277916   6.431  13.620   3.102
92048SOL     OW77917  12.586   4.463   7.104
92048SOL    HW177918  12.543   4.464   7.189
92048SOL    HW277919  12.536   4.526   7.051
92049SOL     OW77920  12.368   5.168  11.328
92049SOL    HW177921  12.276   5.188  11.347
92049SOL    HW277922  12.367   5.133  11.239
92050SOL     OW77923   2.774   4.174  10.152
92050SOL    HW177924   2.720   4.228  10.210
92050SOL    HW277925   2.738   4.086  10.160
92051SOL     OW77926  11.317  11.084   9.013
92051SOL    HW177927  11.277  11.131   9.086
92051SOL    HW277928  11.410  11.105   9.020
92052SOL     OW77929  10.983   1.562   0.240
92052SOL    HW177930  10.950   1.475   0.263
92052SOL    HW277931  10.974   1.613   0.321
92053SOL     OW77932  12.949  12.891  10.355
92053SOL    HW177933  13.005  12.814  10.366
92053SOL    HW277934  12.945  12.903  10.260
92054SOL     OW77935  11.230  14.144  13.261
92054SOL    HW177936  11.263  14.187  13.340
92054SOL    HW277937  11.143  14.183  13.248
92055SOL     OW77938  12.081   3.663  11.573
92055SOL    HW177939  12.004   3.718  11.556
92055SOL    HW277940  12.045   3.575  11.584
92056SOL     OW77941  12.082   3.605   0.038
92056SOL    HW177942  12.121   3.616  14.832
92056SOL    HW277943  11.992   3.635   0.027
92057SOL     OW77944   3.102   8.041   9.388
92057SOL    HW177945   3.020   8.010   9.349
92057SOL    HW277946   3.090   8.028   9.482
92058SOL     OW77947  10.035  10.685   3.303
92058SOL    HW177948  10.088  10.646   3.233
92058SOL    HW277949   9.978  10.614   3.332
92059SOL     OW77950   1.146   0.164   6.187
92059SOL    HW177951   1.073   0.166   6.126
92059SOL    HW277952   1.176   0.255   6.192
92060SOL     OW77953   1.401  12.384   4.912
92060SOL    HW177954   1.417  12.381   5.006
92060SOL    HW277955   1.462  12.450   4.879
92061SOL     OW77956   1.157  13.905   6.325
92061SOL    HW177957   1.092  13.840   6.353
92061SOL    HW277958   1.241  13.860   6.334
92062SOL     OW77959   6.668  14.174  11.445
92062SOL    HW177960   6.592  14.115  11.446
92062SOL    HW277961   6.660  14.224  11.526
92063SOL     OW77962   7.085   9.041  12.910
92063SOL    HW177963   7.117   9.131  12.900
92063SOL    HW277964   7.137   8.991  12.847
92064SOL     OW77965  11.805   8.518   0.277
92064SOL    HW177966  11.786   8.609   0.257
92064SOL    HW277967  11.859   8.520   0.356
92065SOL     OW77968  11.228  14.416   7.959
92065SOL    HW177969  11.172  14.408   8.037
92065SOL    HW277970  11.281  14.494   7.976
92066SOL     OW77971   0.911   4.203   4.154
92066SOL    HW177972   0.985   4.162   4.199
92066SOL    HW277973   0.849   4.223   4.224
92067SOL     OW77974   2.964   2.858   2.241
92067SOL    HW177975   3.034   2.861   2.176
92067SOL    HW277976   3.002   2.897   2.320
92068SOL     OW77977  13.749  14.119   3.534
92068SOL    HW177978  13.673  14.133   3.590
92068SOL    HW277979  13.791  14.205   3.527
92069SOL     OW77980  14.059   7.347   6.242
92069SOL    HW177981  13.967   7.369   6.259
92069SOL    HW277982  14.058   7.254   6.220
92070SOL     OW77983  14.126   6.581  11.924
92070SOL    HW177984  14.191   6.651  11.917
92070SOL    HW277985  14.117   6.565  12.018
92071SOL     OW77986   8.511  12.261   6.500
92071SOL    HW177987   8.595  12.257   6.455
92071SOL    HW277988   8.448  12.285   6.432
92072SOL     OW77989   1.413   8.393  13.473
92072SOL    HW177990   1.374   8.316  13.432
92072SOL    HW277991   1.362   8.406  13.553
92073SOL     OW77992   5.509  13.453   1.119
92073SOL    HW177993   5.469  13.369   1.138
92073SOL    HW277994   5.593  13.431   1.078
92074SOL     OW77995  12.488  13.279   5.809
92074SOL    HW177996  12.407  13.227   5.804
92074SOL    HW277997  12.473  13.352   5.749
92075SOL     OW77998   2.100  10.756   7.672
92075SOL    HW177999   2.033  10.806   7.717
92075SOL    HW278000   2.062  10.669   7.659
92076SOL     OW78001   5.791   5.867   3.101
92076SOL    HW178002   5.854   5.931   3.067
92076SOL    HW278003   5.755   5.824   3.023
92077SOL     OW78004   0.039  13.787   9.598
92077SOL    HW178005   0.022  13.774   9.692
92077SOL    HW278006   0.098  13.715   9.574
92078SOL     OW78007  12.532   4.546   9.472
92078SOL    HW178008  12.574   4.462   9.455
92078SOL    HW278009  12.446   4.523   9.508
92079SOL     OW78010  14.428   1.498  10.759
92079SOL    HW178011  14.479   1.557  10.704
92079SOL    HW278012  14.357   1.467  10.702
92080SOL     OW78013  11.326   7.012   6.482
92080SOL    HW178014  11.332   6.918   6.502
92080SOL    HW278015  11.414   7.046   6.498
92081SOL     OW78016   7.032   8.122  13.295
92081SOL    HW178017   7.034   8.208  13.254
92081SOL    HW278018   7.037   8.060  13.222
92082SOL     OW78019   5.457  13.959  13.400
92082SOL    HW178020   5.471  14.047  13.434
92082SOL    HW278021   5.466  13.968  13.305
92083SOL     OW78022   0.843   2.746   2.638
92083SOL    HW178023   0.756   2.769   2.670
92083SOL    HW278024   0.898   2.822   2.657
92084SOL     OW78025   4.745  14.694   6.547
92084SOL    HW178026   4.766  14.601   6.557
92084SOL    HW278027   4.703  14.718   6.630
92085SOL     OW78028  13.212   9.309   4.526
92085SOL    HW178029  13.285   9.317   4.587
92085SOL    HW278030  13.140   9.273   4.578
92086SOL     OW78031   1.297  12.040   6.935
92086SOL    HW178032   1.292  12.119   6.988
92086SOL    HW278033   1.207  12.027   6.903
92087SOL     OW78034   3.007  12.882   0.768
92087SOL    HW178035   3.098  12.857   0.785
92087SOL    HW278036   2.956  12.832   0.833
92088SOL     OW78037  14.585  11.150   7.562
92088SOL    HW178038  14.664  11.105   7.591
92088SOL    HW278039  14.534  11.083   7.516
92089SOL     OW78040   9.882  11.678   8.848
92089SOL    HW178041   9.799  11.638   8.875
92089SOL    HW278042   9.937  11.605   8.822
92090SOL     OW78043  11.109   7.098   3.128
92090SOL    HW178044  11.062   7.099   3.045
92090SOL    HW278045  11.180   7.162   3.117
92091SOL     OW78046  12.696   1.839   9.871
92091SOL    HW178047  12.693   1.903   9.799
92091SOL    HW278048  12.765   1.778   9.846
92092SOL     OW78049  14.003   1.606   3.658
92092SOL    HW178050  13.982   1.617   3.565
92092SOL    HW278051  14.015   1.512   3.669
92093SOL     OW78052   3.158  10.690   4.547
92093SOL    HW178053   3.133  10.778   4.575
92093SOL    HW278054   3.237  10.670   4.597
92094SOL     OW78055  11.833  11.383   1.597
92094SOL    HW178056  11.912  11.384   1.545
92094SOL    HW278057  11.787  11.303   1.570
92095SOL     OW78058  11.507   5.848  13.731
92095SOL    HW178059  11.480   5.889  13.813
92095SOL    HW278060  11.450   5.771  13.723
92096SOL     OW78061  12.748   3.069   3.858
92096SOL    HW178062  12.658   3.048   3.836
92096SOL    HW278063  12.776   3.132   3.792
92097SOL     OW78064  13.897   5.005  11.928
92097SOL    HW178065  13.992   4.999  11.921
92097SOL    HW278066  13.881   5.071  11.995
92098SOL     OW78067   6.962  12.535   1.696
92098SOL    HW178068   6.896  12.474   1.664
92098SOL    HW278069   6.912  12.607   1.735
92099SOL     OW78070   1.935   6.252   6.443
92099SOL    HW178071   1.918   6.214   6.357
92099SOL    HW278072   1.916   6.181   6.505
92100SOL     OW78073   2.947  14.317  13.239
92100SOL    HW178074   2.859  14.320  13.277
92100SOL    HW278075   2.938  14.363  13.155
92101SOL     OW78076   1.486  12.852   5.602
92101SOL    HW178077   1.410  12.906   5.578
92101SOL    HW278078   1.489  12.857   5.698
92102SOL     OW78079   5.826   6.873  11.027
92102SOL    HW178080   5.779   6.955  11.010
92102SOL    HW278081   5.870   6.888  11.111
92103SOL     OW78082   8.069   4.414   0.105
92103SOL    HW178083   8.012   4.338   0.098
92103SOL    HW278084   8.092   4.419   0.197
92104SOL     OW78085   8.261   5.550   3.151
92104SOL    HW178086   8.321   5.620   3.127
92104SOL    HW278087   8.179   5.595   3.173
92105SOL     OW78088   7.788   2.774   1.015
92105SOL    HW178089   7.775   2.868   1.002
92105SOL    HW278090   7.761   2.758   1.105
92106SOL     OW78091   8.372   4.586   8.176
92106SOL    HW178092   8.287   4.612   8.212
92106SOL    HW278093   8.392   4.503   8.217
92107SOL     OW78094  10.624   1.749  13.066
92107SOL    HW178095  10.532   1.750  13.091
92107SOL    HW278096  10.660   1.670  13.106
92108SOL     OW78097   0.334  10.467   5.769
92108SOL    HW178098   0.252  10.451   5.816
92108SOL    HW278099   0.388  10.391   5.789
92109SOL     OW78100   3.596   7.097  11.288
92109SOL    HW178101   3.617   7.173  11.342
92109SOL    HW278102   3.502   7.085  11.300
92110SOL     OW78103   4.943  14.039   5.294
92110SOL    HW178104   5.015  14.001   5.345
92110SOL    HW278105   4.986  14.097   5.231
92111SOL     OW78106   2.968   0.063   5.445
92111SOL    HW178107   2.949   0.151   5.477
92111SOL    HW278108   3.057   0.068   5.411
92112SOL     OW78109   0.708   3.489  14.107
92112SOL    HW178110   0.665   3.482  14.192
92112SOL    HW278111   0.772   3.418  14.106
92113SOL     OW78112  14.718   8.907   6.169
92113SOL    HW178113  14.681   8.993   6.146
92113SOL    HW278114  14.750   8.918   6.259
92114SOL     OW78115   0.370   9.724   5.019
92114SOL    HW178116   0.385   9.769   4.936
92114SOL    HW278117   0.304   9.777   5.063
92115SOL     OW78118  10.339  14.622  14.372
92115SOL    HW178119  10.312  14.612  14.281
92115SOL    HW278120  10.377  14.537  14.395
92116SOL     OW78121   7.357  11.151  14.500
92116SOL    HW178122   7.310  11.174  14.420
92116SOL    HW278123   7.337  11.058  14.514
92117SOL     OW78124  13.096   1.251   6.947
92117SOL    HW178125  13.099   1.180   7.011
92117SOL    HW278126  13.013   1.295   6.964
92118SOL     OW78127   6.399   2.060   4.791
92118SOL    HW178128   6.459   2.095   4.856
92118SOL    HW278129   6.430   1.971   4.775
92119SOL     OW78130   4.075   7.154   5.519
92119SOL    HW178131   4.022   7.087   5.563
92119SOL    HW278132   4.015   7.196   5.458
92120SOL     OW78133  14.091  12.409   0.981
92120SOL    HW178134  14.180  12.444   0.979
92120SOL    HW278135  14.091  12.339   0.917
92121SOL     OW78136  11.429   4.479   1.939
92121SOL    HW178137  11.347   4.512   1.975
92121SOL    HW278138  11.484   4.461   2.016
92122SOL     OW78139   7.374   5.516   9.907
92122SOL    HW178140   7.425   5.595   9.890
92122SOL    HW278141   7.410   5.450   9.847
92123SOL     OW78142   9.245   1.435  14.517
92123SOL    HW178143   9.278   1.345  14.507
92123SOL    HW278144   9.318   1.482  14.557
92124SOL     OW78145  10.551   7.519   7.842
92124SOL    HW178146  10.574   7.606   7.875
92124SOL    HW278147  10.626   7.464   7.867
92125SOL     OW78148   3.850   9.697  10.681
92125SOL    HW178149   3.934   9.696  10.635
92125SOL    HW278150   3.836   9.789  10.705
92126SOL     OW78151   9.609  14.605  12.595
92126SOL    HW178152   9.518  14.605  12.626
92126SOL    HW278153   9.633  14.698  12.591
92127SOL     OW78154   8.132   0.991   1.351
92127SOL    HW178155   8.200   1.044   1.308
92127SOL    HW278156   8.119   1.034   1.436
92128SOL     OW78157  14.568   8.820   5.571
92128SOL    HW178158  14.508   8.765   5.520
92128SOL    HW278159  14.601   8.763   5.640
92129SOL     OW78160  11.127   2.961   4.849
92129SOL    HW178161  11.210   2.983   4.808
92129SOL    HW278162  11.098   2.881   4.805
92130SOL     OW78163  13.597   1.000  11.926
92130SOL    HW178164  13.521   1.054  11.902
92130SOL    HW278165  13.640   0.981  11.843
92131SOL     OW78166   4.217  12.816   4.555
92131SOL    HW178167   4.188  12.792   4.643
92131SOL    HW278168   4.312  12.812   4.559
92132SOL     OW78169   5.430  14.039   0.141
92132SOL    HW178170   5.524  14.030   0.149
92132SOL    HW278171   5.414  14.037   0.046
92133SOL     OW78172   4.262   2.799   1.168
92133SOL    HW178173   4.253   2.769   1.259
92133SOL    HW278174   4.192   2.864   1.158
92134SOL     OW78175  13.506   2.141  13.875
92134SOL    HW178176  13.447   2.082  13.922
92134SOL    HW278177  13.457   2.223  13.869
92135SOL     OW78178   2.425   0.223  12.089
92135SOL    HW178179   2.453   0.268  12.169
92135SOL    HW278180   2.506   0.192  12.049
92136SOL     OW78181  10.519  14.239   3.466
92136SOL    HW178182  10.462  14.278   3.399
92136SOL    HW278183  10.598  14.293   3.465
92137SOL     OW78184   9.176   6.524   1.439
92137SOL    HW178185   9.179   6.563   1.351
92137SOL    HW278186   9.260   6.479   1.447
92138SOL     OW78187  14.705  10.993   0.481
92138SOL    HW178188  14.778  10.943   0.517
92138SOL    HW278189  14.648  11.010   0.557
92139SOL     OW78190   2.057   4.376   1.599
92139SOL    HW178191   2.070   4.469   1.619
92139SOL    HW278192   2.073   4.331   1.682
92140SOL     OW78193   0.521   2.242  12.853
92140SOL    HW178194   0.568   2.192  12.786
92140SOL    HW278195   0.585   2.255  12.923
92141SOL     OW78196  11.818  10.657  13.427
92141SOL    HW178197  11.744  10.599  13.447
92141SOL    HW278198  11.788  10.744  13.454
92142SOL     OW78199   5.880   5.221  11.520
92142SOL    HW178200   5.891   5.207  11.614
92142SOL    HW278201   5.789   5.198  11.503
92143SOL     OW78202   5.858  10.124  14.276
92143SOL    HW178203   5.866  10.034  14.245
92143SOL    HW278204   5.781  10.159  14.230
92144SOL     OW78205  13.244   6.655   3.052
92144SOL    HW178206  13.166   6.693   3.013
92144SOL    HW278207  13.230   6.560   3.047
92145SOL     OW78208  10.792  14.286  13.803
92145SOL    HW178209  10.808  14.239  13.721
92145SOL    HW278210  10.788  14.217  13.869
92146SOL     OW78211  10.627   4.803   5.391
92146SOL    HW178212  10.629   4.881   5.446
92146SOL    HW278213  10.539   4.767   5.405
92147SOL     OW78214   7.997  13.281  12.922
92147SOL    HW178215   8.091  13.293  12.907
92147SOL    HW278216   7.979  13.191  12.896
92148SOL     OW78217  12.978   7.586   9.784
92148SOL    HW178218  13.069   7.561   9.801
92148SOL    HW278219  12.975   7.605   9.691
92149SOL     OW78220   4.702  11.222  13.700
92149SOL    HW178221   4.743  11.170  13.769
92149SOL    HW278222   4.688  11.160  13.628
92150SOL     OW78223   2.361  14.343   1.096
92150SOL    HW178224   2.375  14.258   1.138
92150SOL    HW278225   2.440  14.358   1.045
92151SOL     OW78226   9.296  10.371   9.263
92151SOL    HW178227   9.299  10.397   9.355
92151SOL    HW278228   9.384  10.388   9.230
92152SOL     OW78229  12.145  13.281   6.978
92152SOL    HW178230  12.211  13.220   7.012
92152SOL    HW278231  12.193  13.335   6.915
92153SOL     OW78232   4.476  14.414   8.713
92153SOL    HW178233   4.549  14.357   8.688
92153SOL    HW278234   4.398  14.359   8.703
92154SOL     OW78235   2.038   3.838   7.842
92154SOL    HW178236   1.974   3.892   7.889
92154SOL    HW278237   2.000   3.830   7.754
92155SOL     OW78238   7.052  14.127   8.053
92155SOL    HW178239   7.088  14.089   7.972
92155SOL    HW278240   6.970  14.081   8.066
92156SOL     OW78241   9.385  10.066  12.563
92156SOL    HW178242   9.307  10.075  12.508
92156SOL    HW278243   9.371  10.128  12.634
92157SOL     OW78244   8.060  10.145  14.720
92157SOL    HW178245   8.099  10.058  14.731
92157SOL    HW278246   8.130  10.198  14.682
92158SOL     OW78247  13.839   3.434   6.557
92158SOL    HW178248  13.922   3.436   6.605
92158SOL    HW278249  13.864   3.419   6.466
92159SOL     OW78250   7.427   7.727   2.335
92159SOL    HW178251   7.380   7.782   2.272
92159SOL    HW278252   7.479   7.667   2.281
92160SOL     OW78253   8.805   6.326  12.173
92160SOL    HW178254   8.892   6.325  12.213
92160SOL    HW278255   8.763   6.246  12.203
92161SOL     OW78256   3.208   6.186   5.200
92161SOL    HW178257   3.209   6.152   5.290
92161SOL    HW278258   3.157   6.267   5.206
92162SOL     OW78259   5.426   4.239  14.753
92162SOL    HW178260   5.497   4.247  14.690
92162SOL    HW278261   5.369   4.170  14.718
92163SOL     OW78262   7.457   5.353  11.177
92163SOL    HW178263   7.461   5.354  11.082
92163SOL    HW278264   7.524   5.290  11.204
92164SOL     OW78265   0.997   2.233   4.141
92164SOL    HW178266   0.956   2.215   4.056
92164SOL    HW278267   0.932   2.284   4.189
92165SOL     OW78268  13.823  14.859   4.064
92165SOL    HW178269  13.889   0.036   4.100
92165SOL    HW278270  13.767   0.035   4.010
92166SOL     OW78271  12.325   0.868  11.344
92166SOL    HW178272  12.352   0.889  11.254
92166SOL    HW278273  12.406   0.844  11.388
92167SOL     OW78274   4.484   0.896  11.536
92167SOL    HW178275   4.400   0.861  11.564
92167SOL    HW278276   4.515   0.947  11.611
92168SOL     OW78277   9.093  10.517   2.644
92168SOL    HW178278   9.145  10.595   2.623
92168SOL    HW278279   9.110  10.457   2.572
92169SOL     OW78280   8.340   1.541  13.712
92169SOL    HW178281   8.301   1.502  13.790
92169SOL    HW278282   8.435   1.530  13.724
92170SOL     OW78283   2.807   1.710   5.766
92170SOL    HW178284   2.898   1.683   5.775
92170SOL    HW278285   2.785   1.748   5.852
92171SOL     OW78286  12.483   1.441   7.871
92171SOL    HW178287  12.563   1.427   7.921
92171SOL    HW278288  12.513   1.452   7.780
92172SOL     OW78289   6.430   8.264   1.509
92172SOL    HW178290   6.509   8.211   1.494
92172SOL    HW278291   6.462   8.341   1.556
92173SOL     OW78292   3.274  11.926   8.345
92173SOL    HW178293   3.318  11.943   8.261
92173SOL    HW278294   3.329  11.970   8.410
92174SOL     OW78295   8.472  13.874   4.426
92174SOL    HW178296   8.490  13.907   4.338
92174SOL    HW278297   8.466  13.779   4.416
92175SOL     OW78298   2.340   7.170   8.624
92175SOL    HW178299   2.302   7.248   8.663
92175SOL    HW278300   2.284   7.151   8.548
92176SOL     OW78301  14.619  10.258   8.271
92176SOL    HW178302  14.622  10.215   8.356
92176SOL    HW278303  14.706  10.298   8.261
92177SOL     OW78304   2.449  11.252   9.290
92177SOL    HW178305   2.531  11.214   9.259
92177SOL    HW278306   2.454  11.246   9.386
92178SOL     OW78307   5.652   7.038   3.572
92178SOL    HW178308   5.592   6.992   3.631
92178SOL    HW278309   5.722   7.070   3.630
92179SOL     OW78310  10.894   9.734  12.500
92179SOL    HW178311  10.930   9.655  12.460
92179SOL    HW278312  10.971   9.787  12.520
92180SOL     OW78313   2.796  10.330   1.936
92180SOL    HW178314   2.862  10.302   1.873
92180SOL    HW278315   2.748  10.400   1.891
92181SOL     OW78316   7.610   3.243   0.866
92181SOL    HW178317   7.573   3.325   0.833
92181SOL    HW278318   7.678   3.271   0.927
92182SOL     OW78319  14.471  14.136  12.090
92182SOL    HW178320  14.396  14.120  12.033
92182SOL    HW278321  14.473  14.231  12.101
92183SOL     OW78322   1.067   4.213   2.308
92183SOL    HW178323   1.107   4.192   2.224
92183SOL    HW278324   1.006   4.285   2.288
92184SOL     OW78325   7.843   9.384   0.921
92184SOL    HW178326   7.806   9.471   0.905
92184SOL    HW278327   7.811   9.331   0.847
92185SOL     OW78328   0.401   8.809   5.720
92185SOL    HW178329   0.426   8.842   5.633
92185SOL    HW278330   0.308   8.828   5.727
92186SOL     OW78331  10.114  14.819   4.970
92186SOL    HW178332  10.177  14.769   5.021
92186SOL    HW278333  10.138   0.029   4.986
92187SOL     OW78334   3.944   5.159   8.349
92187SOL    HW178335   3.962   5.144   8.256
92187SOL    HW278336   3.859   5.205   8.349
92188SOL     OW78337   6.551  14.391   8.569
92188SOL    HW178338   6.523  14.310   8.612
92188SOL    HW278339   6.636  14.368   8.530
92189SOL     OW78340  11.786   8.002   2.909
92189SOL    HW178341  11.731   7.963   2.841
92189SOL    HW278342  11.777   7.943   2.984
92190SOL     OW78343  14.485  11.958   2.965
92190SOL    HW178344  14.565  11.907   2.949
92190SOL    HW278345  14.446  11.917   3.042
92191SOL     OW78346   9.352   0.435  13.644
92191SOL    HW178347   9.439   0.467  13.620
92191SOL    HW278348   9.333   0.367  13.580
92192SOL     OW78349  14.685   3.698   1.812
92192SOL    HW178350  14.600   3.688   1.769
92192SOL    HW278351  14.687   3.628   1.877
92193SOL     OW78352  11.431   7.395   3.460
92193SOL    HW178353  11.486   7.407   3.383
92193SOL    HW278354  11.372   7.470   3.459
92194SOL     OW78355   0.460   8.262  13.778
92194SOL    HW178356   0.440   8.355  13.762
92194SOL    HW278357   0.542   8.263  13.827
92195SOL     OW78358   6.017  11.213   4.258
92195SOL    HW178359   5.986  11.133   4.215
92195SOL    HW278360   5.985  11.207   4.348
92196SOL     OW78361  10.757   0.415   7.469
92196SOL    HW178362  10.716   0.397   7.554
92196SOL    HW278363  10.851   0.409   7.486
92197SOL     OW78364  14.728   0.392  12.193
92197SOL    HW178365  14.663   0.462  12.201
92197SOL    HW278366  14.700   0.326  12.256
92198SOL     OW78367   7.386   4.439   7.497
92198SOL    HW178368   7.324   4.417   7.566
92198SOL    HW278369   7.471   4.442   7.541
92199SOL     OW78370   6.347   7.055   2.050
92199SOL    HW178371   6.274   7.100   2.008
92199SOL    HW278372   6.365   7.106   2.129
92200SOL     OW78373   1.508  14.292   1.886
92200SOL    HW178374   1.575  14.248   1.938
92200SOL    HW278375   1.427  14.245   1.907
92201SOL     OW78376  10.634   2.913  14.460
92201SOL    HW178377  10.708   2.853  14.455
92201SOL    HW278378  10.669   2.997  14.429
92202SOL     OW78379  10.871  12.970   6.262
92202SOL    HW178380  10.830  13.045   6.218
92202SOL    HW278381  10.953  13.005   6.296
92203SOL     OW78382  13.845   2.821   2.850
92203SOL    HW178383  13.760   2.864   2.845
92203SOL    HW278384  13.824   2.729   2.866
92204SOL     OW78385   2.592   6.283  10.842
92204SOL    HW178386   2.643   6.302  10.921
92204SOL    HW278387   2.658   6.266  10.774
92205SOL     OW78388  13.921   5.402   9.268
92205SOL    HW178389  13.969   5.449   9.200
92205SOL    HW278390  13.829   5.415   9.245
92206SOL     OW78391   9.857  10.227   2.007
92206SOL    HW178392   9.904  10.150   1.975
92206SOL    HW278393   9.810  10.259   1.930
92207SOL     OW78394   4.052   1.443   8.800
92207SOL    HW178395   3.977   1.496   8.827
92207SOL    HW278396   4.097   1.424   8.882
92208SOL     OW78397   9.679  11.485   3.441
92208SOL    HW178398   9.768  11.518   3.457
92208SOL    HW278399   9.692  11.405   3.391
92209SOL     OW78400   0.504  14.296  10.403
92209SOL    HW178401   0.426  14.275  10.352
92209SOL    HW278402   0.575  14.298  10.338
92210SOL     OW78403  13.303   3.766   1.154
92210SOL    HW178404  13.359   3.844   1.154
92210SOL    HW278405  13.308   3.732   1.243
92211SOL     OW78406   9.417  11.402  11.868
92211SOL    HW178407   9.330  11.433  11.894
92211SOL    HW278408   9.408  11.307  11.861
92212SOL     OW78409  10.693   8.582   3.813
92212SOL    HW178410  10.654   8.668   3.829
92212SOL    HW278411  10.776   8.585   3.859
92213SOL     OW78412  11.864  13.842   2.431
92213SOL    HW178413  11.786  13.819   2.382
92213SOL    HW278414  11.937  13.825   2.371
92214SOL     OW78415   6.743   3.615   4.485
92214SOL    HW178416   6.807   3.686   4.487
92214SOL    HW278417   6.681   3.640   4.417
92215SOL     OW78418   3.874  14.083   7.196
92215SOL    HW178419   3.818  14.076   7.273
92215SOL    HW278420   3.960  14.053   7.225
92216SOL     OW78421   8.795  14.478  14.537
92216SOL    HW178422   8.756  14.565  14.534
92216SOL    HW278423   8.811  14.456  14.445
92217SOL     OW78424   4.245   4.254   0.140
92217SOL    HW178425   4.274   4.297   0.221
92217SOL    HW278426   4.322   4.256   0.083
92218SOL     OW78427   0.921  11.107   0.678
92218SOL    HW178428   0.885  11.145   0.598
92218SOL    HW278429   0.945  11.018   0.654
92219SOL     OW78430   8.864   0.333   2.538
92219SOL    HW178431   8.952   0.367   2.519
92219SOL    HW278432   8.824   0.399   2.594
92220SOL     OW78433   7.256  11.383   2.863
92220SOL    HW178434   7.169  11.408   2.893
92220SOL    HW278435   7.294  11.335   2.936
92221SOL     OW78436   9.058   7.081  12.389
92221SOL    HW178437   9.116   7.157  12.397
92221SOL    HW278438   9.050   7.068  12.295
92222SOL     OW78439  13.773   3.067   8.921
92222SOL    HW178440  13.833   2.993   8.937
92222SOL    HW278441  13.686   3.029   8.928
92223SOL     OW78442   6.854  12.586   8.240
92223SOL    HW178443   6.904  12.666   8.254
92223SOL    HW278444   6.861  12.570   8.146
92224SOL     OW78445  11.406   7.630  10.455
92224SOL    HW178446  11.356   7.704  10.489
92224SOL    HW278447  11.359   7.604  10.375
92225SOL     OW78448   1.653   3.698   3.933
92225SOL    HW178449   1.570   3.690   3.980
92225SOL    HW278450   1.629   3.709   3.841
92226SOL     OW78451   3.545   9.342   3.764
92226SOL    HW178452   3.581   9.274   3.706
92226SOL    HW278453   3.544   9.421   3.710
92227SOL     OW78454  12.704   6.871  13.663
92227SOL    HW178455  12.697   6.788  13.616
92227SOL    HW278456  12.793   6.902  13.644
92228SOL     OW78457   5.394  13.281  10.370
92228SOL    HW178458   5.412  13.333  10.448
92228SOL    HW278459   5.332  13.333  10.320
92229SOL     OW78460   2.970   2.761   7.433
92229SOL    HW178461   3.057   2.755   7.471
92229SOL    HW278462   2.979   2.725   7.345
92230SOL     OW78463  13.675   5.361  14.686
92230SOL    HW178464  13.700   5.427  14.751
92230SOL    HW278465  13.702   5.398  14.602
92231SOL     OW78466   2.424   6.627   8.929
92231SOL    HW178467   2.407   6.572   8.853
92231SOL    HW278468   2.373   6.587   9.000
92232SOL     OW78469   7.451  12.170  11.746
92232SOL    HW178470   7.370  12.206  11.711
92232SOL    HW278471   7.466  12.220  11.827
92233SOL     OW78472  12.790   1.955   0.437
92233SOL    HW178473  12.806   2.018   0.367
92233SOL    HW278474  12.812   1.870   0.399
92234SOL     OW78475   0.518   6.500   1.293
92234SOL    HW178476   0.511   6.584   1.248
92234SOL    HW278477   0.441   6.497   1.350
92235SOL     OW78478   0.948  10.747   0.685
92235SOL    HW178479   0.928  10.654   0.696
92235SOL    HW278480   0.891  10.776   0.614
92236SOL     OW78481   0.521  11.112   3.914
92236SOL    HW178482   0.605  11.105   3.960
92236SOL    HW278483   0.494  11.203   3.926
92237SOL     OW78484  12.366   5.019  12.977
92237SOL    HW178485  12.279   5.028  12.937
92237SOL    HW278486  12.349   4.995  13.068
92238SOL     OW78487  12.409  12.318   6.491
92238SOL    HW178488  12.391  12.258   6.564
92238SOL    HW278489  12.502  12.339   6.500
92239SOL     OW78490   0.205  13.825   1.387
92239SOL    HW178491   0.276  13.822   1.323
92239SOL    HW278492   0.247  13.803   1.471
92240SOL     OW78493   0.223  13.545   4.682
92240SOL    HW178494   0.133  13.531   4.710
92240SOL    HW278495   0.215  13.578   4.592
92241SOL     OW78496  11.468   4.130   2.141
92241SOL    HW178497  11.492   4.221   2.124
92241SOL    HW278498  11.378   4.123   2.109
92242SOL     OW78499   8.143   4.457  14.184
92242SOL    HW178500   8.188   4.377  14.209
92242SOL    HW278501   8.211   4.524  14.185
92243SOL     OW78502   5.345   2.249   0.902
92243SOL    HW178503   5.318   2.245   0.994
92243SOL    HW278504   5.264   2.249   0.852
92244SOL     OW78505   6.442   8.320   5.389
92244SOL    HW178506   6.472   8.274   5.468
92244SOL    HW278507   6.396   8.397   5.422
92245SOL     OW78508   7.783   3.164   0.297
92245SOL    HW178509   7.751   3.085   0.253
92245SOL    HW278510   7.830   3.212   0.229
92246SOL     OW78511   7.710  13.390   0.685
92246SOL    HW178512   7.618  13.370   0.666
92246SOL    HW278513   7.743  13.430   0.605
92247SOL     OW78514  14.259   0.348   6.373
92247SOL    HW178515  14.314   0.380   6.444
92247SOL    HW278516  14.290   0.395   6.295
92248SOL     OW78517  12.662  13.812   7.536
92248SOL    HW178518  12.579  13.857   7.553
92248SOL    HW278519  12.640  13.741   7.476
92249SOL     OW78520   3.704  12.053   7.166
92249SOL    HW178521   3.791  12.063   7.205
92249SOL    HW278522   3.648  12.110   7.218
92250SOL     OW78523   4.182   3.222   4.944
92250SOL    HW178524   4.099   3.268   4.933
92250SOL    HW278525   4.158   3.129   4.940
92251SOL     OW78526   9.595   5.958   9.294
92251SOL    HW178527   9.670   5.899   9.288
92251SOL    HW278528   9.609   6.008   9.374
92252SOL     OW78529   0.128  10.034   7.691
92252SOL    HW178530   0.178  10.079   7.759
92252SOL    HW278531   0.131   9.942   7.717
92253SOL     OW78532  11.544   1.240  11.671
92253SOL    HW178533  11.568   1.164  11.618
92253SOL    HW278534  11.448   1.242  11.666
92254SOL     OW78535   2.397   7.587   6.286
92254SOL    HW178536   2.357   7.500   6.294
92254SOL    HW278537   2.355   7.625   6.208
92255SOL     OW78538   3.561   9.485   6.136
92255SOL    HW178539   3.504   9.526   6.071
92255SOL    HW278540   3.560   9.544   6.211
92256SOL     OW78541   3.254  10.192  14.768
92256SOL    HW178542   3.222  10.268  14.815
92256SOL    HW278543   3.216  10.117  14.815
92257SOL     OW78544   2.947   7.807   2.264
92257SOL    HW178545   2.955   7.737   2.329
92257SOL    HW278546   2.908   7.764   2.188
92258SOL     OW78547   3.530   5.783  13.003
92258SOL    HW178548   3.463   5.824  13.058
92258SOL    HW278549   3.575   5.857  12.962
92259SOL     OW78550   8.623   0.708  13.146
92259SOL    HW178551   8.567   0.694  13.222
92259SOL    HW278552   8.702   0.656  13.165
92260SOL     OW78553  10.357   6.067   4.922
92260SOL    HW178554  10.379   6.091   4.833
92260SOL    HW278555  10.439   6.075   4.971
92261SOL     OW78556   0.802   6.021   7.347
92261SOL    HW178557   0.792   6.086   7.278
92261SOL    HW278558   0.713   5.991   7.365
92262SOL     OW78559   2.902   3.263   7.247
92262SOL    HW178560   2.870   3.176   7.224
92262SOL    HW278561   2.911   3.261   7.343
92263SOL     OW78562  12.966  13.711   7.003
92263SOL    HW178563  12.896  13.732   7.064
92263SOL    HW278564  13.047  13.726   7.054
92264SOL     OW78565  14.399   7.539  14.130
92264SOL    HW178566  14.326   7.572  14.182
92264SOL    HW278567  14.426   7.614  14.077
92265SOL     OW78568   2.100   4.556  13.823
92265SOL    HW178569   2.012   4.525  13.844
92265SOL    HW278570   2.131   4.496  13.755
92266SOL     OW78571  12.094   9.878   1.403
92266SOL    HW178572  12.041   9.885   1.482
92266SOL    HW278573  12.115   9.785   1.396
92267SOL     OW78574   0.383   1.727   2.546
92267SOL    HW178575   0.365   1.773   2.628
92267SOL    HW278576   0.472   1.752   2.523
92268SOL     OW78577  10.425   4.729   2.528
92268SOL    HW178578  10.335   4.724   2.558
92268SOL    HW278579  10.478   4.709   2.605
92269SOL     OW78580  12.892   0.269   4.821
92269SOL    HW178581  12.827   0.204   4.848
92269SOL    HW278582  12.913   0.317   4.901
92270SOL     OW78583   9.888   6.699  13.824
92270SOL    HW178584   9.797   6.674  13.808
92270SOL    HW278585   9.922   6.629  13.881
92271SOL     OW78586   1.667   1.985  13.302
92271SOL    HW178587   1.689   1.987  13.395
92271SOL    HW278588   1.693   1.898  13.273
92272SOL     OW78589   9.534   8.964   1.983
92272SOL    HW178590   9.526   8.920   2.067
92272SOL    HW278591   9.471   9.035   1.987
92273SOL     OW78592  13.541  13.648   0.662
92273SOL    HW178593  13.505  13.722   0.710
92273SOL    HW278594  13.635  13.665   0.659
92274SOL     OW78595   7.427   7.649  13.188
92274SOL    HW178596   7.428   7.739  13.155
92274SOL    HW278597   7.512   7.614  13.165
92275SOL     OW78598   8.863  13.008   5.894
92275SOL    HW178599   8.772  13.037   5.902
92275SOL    HW278600   8.902  13.032   5.979
92276SOL     OW78601   9.705   0.766   4.199
92276SOL    HW178602   9.761   0.790   4.273
92276SOL    HW278603   9.627   0.821   4.209
92277SOL     OW78604   8.166   3.047   5.593
92277SOL    HW178605   8.156   3.132   5.550
92277SOL    HW278606   8.087   2.998   5.570
92278SOL     OW78607  11.469   2.285   6.321
92278SOL    HW178608  11.386   2.238   6.313
92278SOL    HW278609  11.476   2.305   6.414
92279SOL     OW78610   8.694  14.603  13.056
92279SOL    HW178611   8.761  14.548  13.097
92279SOL    HW278612   8.700  14.686  13.103
92280SOL     OW78613   4.290   8.962   1.659
92280SOL    HW178614   4.310   8.906   1.584
92280SOL    HW278615   4.277   9.049   1.621
92281SOL     OW78616  12.577  11.748   3.610
92281SOL    HW178617  12.546  11.665   3.647
92281SOL    HW278618  12.522  11.762   3.533
92282SOL     OW78619   6.486   7.213   1.252
92282SOL    HW178620   6.432   7.267   1.194
92282SOL    HW278621   6.447   7.126   1.247
92283SOL     OW78622   5.338   4.937  12.025
92283SOL    HW178623   5.358   4.977  12.110
92283SOL    HW278624   5.350   5.008  11.962
92284SOL     OW78625   6.947   0.385  10.211
92284SOL    HW178626   7.017   0.357  10.152
92284SOL    HW278627   6.992   0.402  10.294
92285SOL     OW78628   4.459   5.079  13.876
92285SOL    HW178629   4.474   4.995  13.832
92285SOL    HW278630   4.386   5.118  13.828
92286SOL     OW78631   3.087   3.962   9.757
92286SOL    HW178632   3.119   3.931   9.841
92286SOL    HW278633   3.158   4.017   9.723
92287SOL     OW78634  12.200  10.863   4.825
92287SOL    HW178635  12.248  10.806   4.764
92287SOL    HW278636  12.267  10.921   4.860
92288SOL     OW78637   3.155  11.461   6.334
92288SOL    HW178638   3.246  11.482   6.356
92288SOL    HW278639   3.159  11.427   6.245
92289SOL     OW78640   3.886  11.261  11.427
92289SOL    HW178641   3.875  11.168  11.449
92289SOL    HW278642   3.980  11.271  11.415
92290SOL     OW78643   1.962  14.119   6.689
92290SOL    HW178644   1.936  14.095   6.778
92290SOL    HW278645   1.880  14.139   6.644
92291SOL     OW78646  14.416   4.153   4.204
92291SOL    HW178647  14.327   4.119   4.200
92291SOL    HW278648  14.446   4.132   4.293
92292SOL     OW78649  14.732  12.012   8.646
92292SOL    HW178650  14.766  12.094   8.680
92292SOL    HW278651  14.769  11.945   8.702
92293SOL     OW78652   5.558  13.095   7.926
92293SOL    HW178653   5.591  13.019   7.878
92293SOL    HW278654   5.627  13.161   7.919
92294SOL     OW78655   9.833   6.715  10.438
92294SOL    HW178656   9.876   6.670  10.365
92294SOL    HW278657   9.880   6.799  10.445
92295SOL     OW78658  14.195   0.189   8.107
92295SOL    HW178659  14.202   0.163   8.016
92295SOL    HW278660  14.255   0.131   8.153
92296SOL     OW78661   8.564  13.005  10.150
92296SOL    HW178662   8.657  13.021  10.134
92296SOL    HW278663   8.555  13.006  10.246
92297SOL     OW78664   5.363  12.654   3.659
92297SOL    HW178665   5.443  12.678   3.704
92297SOL    HW278666   5.370  12.560   3.646
92298SOL     OW78667  11.192  14.399   4.355
92298SOL    HW178668  11.104  14.434   4.365
92298SOL    HW278669  11.182  14.325   4.295
92299SOL     OW78670   4.275   0.839   4.691
92299SOL    HW178671   4.230   0.767   4.735
92299SOL    HW278672   4.354   0.853   4.743
92300SOL     OW78673   0.422   7.539  12.601
92300SOL    HW178674   0.466   7.481  12.664
92300SOL    HW278675   0.440   7.500  12.516
92301SOL     OW78676  11.117   5.872  13.604
92301SOL    HW178677  11.071   5.956  13.599
92301SOL    HW278678  11.134   5.860  13.698
92302SOL     OW78679   9.676   3.763   7.410
92302SOL    HW178680   9.634   3.802   7.333
92302SOL    HW278681   9.671   3.830   7.477
92303SOL     OW78682   3.438   7.220   3.228
92303SOL    HW178683   3.517   7.271   3.211
92303SOL    HW278684   3.407   7.251   3.313
92304SOL     OW78685   7.898   1.438   1.610
92304SOL    HW178686   7.984   1.458   1.646
92304SOL    HW278687   7.850   1.398   1.682
92305SOL     OW78688  14.870   1.061   5.533
92305SOL    HW178689  14.873   1.084   5.626
92305SOL    HW278690   0.037   0.979   5.527
92306SOL     OW78691   4.482  12.629   4.047
92306SOL    HW178692   4.489  12.722   4.066
92306SOL    HW278693   4.500  12.586   4.131
92307SOL     OW78694  14.498   9.921   9.558
92307SOL    HW178695  14.441   9.988   9.520
92307SOL    HW278696  14.469   9.839   9.517
92308SOL     OW78697   3.669   5.443  11.549
92308SOL    HW178698   3.748   5.430  11.602
92308SOL    HW278699   3.599   5.456  11.614
92309SOL     OW78700  10.495   4.091   3.965
92309SOL    HW178701  10.471   4.001   3.942
92309SOL    HW278702  10.507   4.134   3.880
92310SOL     OW78703  11.926   7.046   6.755
92310SOL    HW178704  12.011   7.005   6.739
92310SOL    HW278705  11.864   6.973   6.760
92311SOL     OW78706   0.760   0.665   0.644
92311SOL    HW178707   0.697   0.734   0.623
92311SOL    HW278708   0.840   0.712   0.668
92312SOL     OW78709  10.397   3.041   5.644
92312SOL    HW178710  10.340   3.096   5.698
92312SOL    HW278711  10.339   2.974   5.609
92313SOL     OW78712  13.132  10.996   0.474
92313SOL    HW178713  13.046  11.017   0.437
92313SOL    HW278714  13.139  11.053   0.551
92314SOL     OW78715   2.735   8.931  14.019
92314SOL    HW178716   2.783   8.864  14.067
92314SOL    HW278717   2.786   8.944  13.939
92315SOL     OW78718   9.559   4.188   7.497
92315SOL    HW178719   9.601   4.227   7.574
92315SOL    HW278720   9.626   4.191   7.429
92316SOL     OW78721   3.866   6.584   7.494
92316SOL    HW178722   3.828   6.668   7.469
92316SOL    HW278723   3.799   6.543   7.549
92317SOL     OW78724   9.263   3.872  12.126
92317SOL    HW178725   9.351   3.873  12.087
92317SOL    HW278726   9.204   3.883  12.051
92318SOL     OW78727   7.941  11.867   8.029
92318SOL    HW178728   7.906  11.877   7.941
92318SOL    HW278729   7.920  11.949   8.073
92319SOL     OW78730   8.565   0.610  10.198
92319SOL    HW178731   8.584   0.658  10.279
92319SOL    HW278732   8.633   0.543  10.193
92320SOL     OW78733   5.521   9.952  10.878
92320SOL    HW178734   5.491   9.969  10.967
92320SOL    HW278735   5.615   9.936  10.887
92321SOL     OW78736   3.448   3.759   4.059
92321SOL    HW178737   3.493   3.813   3.994
92321SOL    HW278738   3.382   3.817   4.097
92322SOL     OW78739  14.751   5.202  12.734
92322SOL    HW178740  14.799   5.260  12.794
92322SOL    HW278741  14.753   5.117  12.777
92323SOL     OW78742  14.167   9.693  13.393
92323SOL    HW178743  14.200   9.726  13.477
92323SOL    HW278744  14.204   9.606  13.386
92324SOL     OW78745   2.998   4.814  11.104
92324SOL    HW178746   3.027   4.758  11.032
92324SOL    HW278747   2.904   4.800  11.108
92325SOL     OW78748  10.781  13.594   4.302
92325SOL    HW178749  10.723  13.662   4.337
92325SOL    HW278750  10.850  13.585   4.367
92326SOL     OW78751   4.345  13.287   3.692
92326SOL    HW178752   4.415  13.228   3.721
92326SOL    HW278753   4.381  13.375   3.703
92327SOL     OW78754   9.207  11.250  10.959
92327SOL    HW178755   9.234  11.304  11.033
92327SOL    HW278756   9.181  11.312  10.892
92328SOL     OW78757   1.906   6.440   7.476
92328SOL    HW178758   1.854   6.397   7.544
92328SOL    HW278759   1.993   6.449   7.515
92329SOL     OW78760   8.825   9.619  13.183
92329SOL    HW178761   8.909   9.637  13.140
92329SOL    HW278762   8.771   9.695  13.162
92330SOL     OW78763   1.935   7.808  14.508
92330SOL    HW178764   1.957   7.790  14.416
92330SOL    HW278765   1.905   7.899  14.507
92331SOL     OW78766  10.382   0.035   9.192
92331SOL    HW178767  10.340  14.852   9.249
92331SOL    HW278768  10.464  14.875   9.165
92332SOL     OW78769   4.541   4.519   9.106
92332SOL    HW178770   4.532   4.503   9.200
92332SOL    HW278771   4.603   4.591   9.099
92333SOL     OW78772   1.161   2.669  11.057
92333SOL    HW178773   1.107   2.592  11.038
92333SOL    HW278774   1.103   2.727  11.105
92334SOL     OW78775   4.878   3.327  13.004
92334SOL    HW178776   4.802   3.371  12.967
92334SOL    HW278777   4.949   3.345  12.942
92335SOL     OW78778   2.308   4.722   8.497
92335SOL    HW178779   2.231   4.777   8.482
92335SOL    HW278780   2.277   4.651   8.553
92336SOL     OW78781   4.487  12.494  11.781
92336SOL    HW178782   4.473  12.488  11.686
92336SOL    HW278783   4.576  12.528  11.790
92337SOL     OW78784   7.130  13.876  10.425
92337SOL    HW178785   7.123  13.783  10.404
92337SOL    HW278786   7.081  13.920  10.356
92338SOL     OW78787   6.436   4.662   6.656
92338SOL    HW178788   6.450   4.631   6.745
92338SOL    HW278789   6.521   4.653   6.613
92339SOL     OW78790  11.142   6.337   5.696
92339SOL    HW178791  11.211   6.312   5.635
92339SOL    HW278792  11.188   6.368   5.773
92340SOL     OW78793   7.488  14.799   7.243
92340SOL    HW178794   7.499  14.862   7.172
92340SOL    HW278795   7.482  14.852   7.322
92341SOL     OW78796   4.344   1.940   5.642
92341SOL    HW178797   4.299   2.019   5.612
92341SOL    HW278798   4.388   1.906   5.563
92342SOL     OW78799   7.851  11.501  14.439
92342SOL    HW178800   7.899  11.492  14.521
92342SOL    HW278801   7.872  11.590  14.409
92343SOL     OW78802   2.426  10.532   8.901
92343SOL    HW178803   2.441  10.621   8.930
92343SOL    HW278804   2.512  10.501   8.871
92344SOL     OW78805   6.157   0.953  12.200
92344SOL    HW178806   6.184   0.983  12.287
92344SOL    HW278807   6.085   1.011  12.176
92345SOL     OW78808   7.934  13.388   3.663
92345SOL    HW178809   7.875  13.459   3.687
92345SOL    HW278810   7.883  13.308   3.675
92346SOL     OW78811   8.009   6.636  12.584
92346SOL    HW178812   7.948   6.589  12.641
92346SOL    HW278813   8.069   6.680  12.645
92347SOL     OW78814  12.581   1.833   1.079
92347SOL    HW178815  12.577   1.860   0.988
92347SOL    HW278816  12.536   1.749   1.082
92348SOL     OW78817  11.263   3.646   3.229
92348SOL    HW178818  11.351   3.683   3.239
92348SOL    HW278819  11.247   3.650   3.134
92349SOL     OW78820   8.854   5.454   1.075
92349SOL    HW178821   8.773   5.505   1.083
92349SOL    HW278822   8.900   5.471   1.158
92350SOL     OW78823   1.966  13.695   9.256
92350SOL    HW178824   1.956  13.600   9.269
92350SOL    HW278825   2.018  13.703   9.176
92351SOL     OW78826   5.155  12.537   4.014
92351SOL    HW178827   5.165  12.628   4.043
92351SOL    HW278828   5.167  12.540   3.919
92352SOL     OW78829   3.894  10.320  13.993
92352SOL    HW178830   3.906  10.262  14.068
92352SOL    HW278831   3.836  10.389  14.025
92353SOL     OW78832   3.806   3.417   3.318
92353SOL    HW178833   3.784   3.330   3.286
92353SOL    HW278834   3.739   3.437   3.383
92354SOL     OW78835   5.611   7.688  10.545
92354SOL    HW178836   5.659   7.759  10.502
92354SOL    HW278837   5.520   7.703  10.520
92355SOL     OW78838   5.938   4.487  12.145
92355SOL    HW178839   5.915   4.549  12.076
92355SOL    HW278840   5.977   4.540  12.213
92356SOL     OW78841  11.193   7.123   8.177
92356SOL    HW178842  11.191   7.036   8.215
92356SOL    HW278843  11.277   7.128   8.132
92357SOL     OW78844  11.180   1.412  14.411
92357SOL    HW178845  11.109   1.393  14.473
92357SOL    HW278846  11.240   1.338  14.420
92358SOL     OW78847   1.060  14.693  12.653
92358SOL    HW178848   1.142  14.646  12.640
92358SOL    HW278849   1.085  14.785  12.659
92359SOL     OW78850   3.397   1.575  14.443
92359SOL    HW178851   3.429   1.631  14.514
92359SOL    HW278852   3.377   1.492  14.486
92360SOL     OW78853   6.688   3.610  12.072
92360SOL    HW178854   6.784   3.605  12.073
92360SOL    HW278855   6.662   3.557  11.998
92361SOL     OW78856  11.697  13.165   4.820
92361SOL    HW178857  11.643  13.105   4.769
92361SOL    HW278858  11.707  13.242   4.764
92362SOL     OW78859   8.519   3.249   8.639
92362SOL    HW178860   8.596   3.215   8.685
92362SOL    HW278861   8.513   3.340   8.667
92363SOL     OW78862   2.487  12.747   9.926
92363SOL    HW178863   2.479  12.657   9.894
92363SOL    HW278864   2.471  12.740  10.020
92364SOL     OW78865  11.758   0.511  11.328
92364SOL    HW178866  11.741   0.590  11.379
92364SOL    HW278867  11.740   0.536  11.237
92365SOL     OW78868   5.555   8.011   2.942
92365SOL    HW178869   5.477   7.984   2.991
92365SOL    HW278870   5.600   7.929   2.923
92366SOL     OW78871  13.262   7.646   3.190
92366SOL    HW178872  13.277   7.607   3.104
92366SOL    HW278873  13.222   7.575   3.241
92367SOL     OW78874   2.762   0.522   1.977
92367SOL    HW178875   2.752   0.608   1.935
92367SOL    HW278876   2.732   0.535   2.067
92368SOL     OW78877  12.224   3.887   6.250
92368SOL    HW178878  12.298   3.922   6.200
92368SOL    HW278879  12.183   3.824   6.191
92369SOL     OW78880  11.527   6.771  11.919
92369SOL    HW178881  11.565   6.838  11.861
92369SOL    HW278882  11.466   6.819  11.974
92370SOL     OW78883   7.142  12.432  10.720
92370SOL    HW178884   7.061  12.401  10.761
92370SOL    HW278885   7.185  12.351  10.690
92371SOL     OW78886   3.916   0.846  10.532
92371SOL    HW178887   3.886   0.758  10.508
92371SOL    HW278888   3.975   0.872  10.462
92372SOL     OW78889   0.795   9.330  12.910
92372SOL    HW178890   0.784   9.333  12.815
92372SOL    HW278891   0.831   9.416  12.933
92373SOL     OW78892   1.732   6.269   3.222
92373SOL    HW178893   1.685   6.351   3.234
92373SOL    HW278894   1.736   6.230   3.309
92374SOL     OW78895   0.358   8.743   2.236
92374SOL    HW178896   0.339   8.796   2.159
92374SOL    HW278897   0.279   8.747   2.289
92375SOL     OW78898   0.860  14.635   5.905
92375SOL    HW178899   0.822  14.653   5.991
92375SOL    HW278900   0.892  14.720   5.874
92376SOL     OW78901   9.761  14.876  11.162
92376SOL    HW178902   9.787   0.078  11.123
92376SOL    HW278903   9.786  14.811  11.097
92377SOL     OW78904   0.528  13.018  14.559
92377SOL    HW178905   0.514  13.082  14.490
92377SOL    HW278906   0.485  12.938  14.527
92378SOL     OW78907   9.957   9.643   4.850
92378SOL    HW178908  10.018   9.613   4.917
92378SOL    HW278909   9.922   9.563   4.811
92379SOL     OW78910   4.275  10.516  14.654
92379SOL    HW178911   4.196  10.542  14.703
92379SOL    HW278912   4.273  10.571  14.575
92380SOL     OW78913   3.613   8.147   3.366
92380SOL    HW178914   3.620   8.053   3.382
92380SOL    HW278915   3.703   8.180   3.375
92381SOL     OW78916   6.824   6.824   5.978
92381SOL    HW178917   6.859   6.739   5.953
92381SOL    HW278918   6.800   6.866   5.895
92382SOL     OW78919   9.470   8.709  12.598
92382SOL    HW178920   9.563   8.715  12.574
92382SOL    HW278921   9.428   8.673  12.519
92383SOL     OW78922   5.220   3.897  10.062
92383SOL    HW178923   5.259   3.859  10.140
92383SOL    HW278924   5.146   3.840  10.041
92384SOL     OW78925   6.696   5.472  10.862
92384SOL    HW178926   6.677   5.521  10.782
92384SOL    HW278927   6.716   5.383  10.831
92385SOL     OW78928  14.197  10.952   0.467
92385SOL    HW178929  14.147  10.980   0.390
92385SOL    HW278930  14.141  10.974   0.542
92386SOL     OW78931   5.252   5.568   5.003
92386SOL    HW178932   5.291   5.556   4.917
92386SOL    HW278933   5.305   5.635   5.045
92387SOL     OW78934  14.631   5.214   1.991
92387SOL    HW178935  14.696   5.238   2.056
92387SOL    HW278936  14.548   5.241   2.029
92388SOL     OW78937   9.284   9.043  11.084
92388SOL    HW178938   9.266   9.066  10.993
92388SOL    HW278939   9.224   8.971  11.103
92389SOL     OW78940   5.699  12.173  12.760
92389SOL    HW178941   5.646  12.225  12.700
92389SOL    HW278942   5.734  12.103  12.706
92390SOL     OW78943  10.039   0.862  10.651
92390SOL    HW178944   9.962   0.814  10.622
92390SOL    HW278945  10.035   0.859  10.747
92391SOL     OW78946   4.170  10.103   1.024
92391SOL    HW178947   4.206  10.086   0.937
92391SOL    HW278948   4.079  10.075   1.018
92392SOL     OW78949   7.974   2.904  10.489
92392SOL    HW178950   8.047   2.844  10.474
92392SOL    HW278951   7.896   2.850  10.475
92393SOL     OW78952   4.233   5.427   4.936
92393SOL    HW178953   4.183   5.495   4.980
92393SOL    HW278954   4.318   5.468   4.917
92394SOL     OW78955   6.815   2.555   1.148
92394SOL    HW178956   6.911   2.563   1.145
92394SOL    HW278957   6.793   2.570   1.240
92395SOL     OW78958  13.319  13.686  11.050
92395SOL    HW178959  13.329  13.693  11.145
92395SOL    HW278960  13.310  13.592  11.034
92396SOL     OW78961   3.406  13.130   3.555
92396SOL    HW178962   3.456  13.129   3.473
92396SOL    HW278963   3.472  13.137   3.624
92397SOL     OW78964   0.056   9.021   3.882
92397SOL    HW178965  14.855   9.011   3.928
92397SOL    HW278966   0.056   9.112   3.852
92398SOL     OW78967   9.603  13.049   5.783
92398SOL    HW178968   9.608  12.953   5.781
92398SOL    HW278969   9.514  13.069   5.756
92399SOL     OW78970  10.502   1.800   0.885
92399SOL    HW178971  10.464   1.772   0.802
92399SOL    HW278972  10.427   1.827   0.938
92400SOL     OW78973   5.216   8.078  13.694
92400SOL    HW178974   5.160   8.036  13.629
92400SOL    HW278975   5.255   8.005  13.743
92401SOL     OW78976   5.657   5.992   3.884
92401SOL    HW178977   5.575   5.960   3.922
92401SOL    HW278978   5.635   6.077   3.848
92402SOL     OW78979   0.771   4.197  13.772
92402SOL    HW178980   0.782   4.108  13.738
92402SOL    HW278981   0.715   4.188  13.849
92403SOL     OW78982   3.361   5.156   4.231
92403SOL    HW178983   3.352   5.239   4.279
92403SOL    HW278984   3.328   5.176   4.144
92404SOL     OW78985  12.280   9.094   3.870
92404SOL    HW178986  12.228   9.063   3.944
92404SOL    HW278987  12.301   9.185   3.892
92405SOL     OW78988   5.483  13.586  10.873
92405SOL    HW178989   5.482  13.680  10.854
92405SOL    HW278990   5.558  13.553  10.822
92406SOL     OW78991  11.654   8.679   9.503
92406SOL    HW178992  11.642   8.587   9.478
92406SOL    HW278993  11.565   8.711   9.519
92407SOL     OW78994  10.279  12.602   8.111
92407SOL    HW178995  10.342  12.672   8.128
92407SOL    HW278996  10.286  12.585   8.017
92408SOL     OW78997   0.327  14.666  10.002
92408SOL    HW178998   0.321  14.684   9.909
92408SOL    HW278999   0.254  14.714  10.041
92409SOL     OW79000  12.769  11.699   4.385
92409SOL    HW179001  12.784  11.605   4.377
92409SOL    HW279002  12.782  11.718   4.477
92410SOL     OW79003  11.496  12.682  14.423
92410SOL    HW179004  11.483  12.755  14.362
92410SOL    HW279005  11.542  12.616  14.372
92411SOL     OW79006  13.828   9.875   8.058
92411SOL    HW179007  13.864   9.786   8.064
92411SOL    HW279008  13.811   9.888   7.965
92412SOL     OW79009   2.241   6.485  10.432
92412SOL    HW179010   2.216   6.394  10.415
92412SOL    HW279011   2.161   6.526  10.465
92413SOL     OW79012  11.164   8.855   3.492
92413SOL    HW179013  11.259   8.845   3.488
92413SOL    HW279014  11.141   8.903   3.412
92414SOL     OW79015   3.985  13.569  11.562
92414SOL    HW179016   3.904  13.536  11.602
92414SOL    HW279017   4.030  13.490  11.532
92415SOL     OW79018   8.025   1.441   7.308
92415SOL    HW179019   8.042   1.376   7.375
92415SOL    HW279020   7.953   1.405   7.256
92416SOL     OW79021   2.284   8.927   5.497
92416SOL    HW179022   2.369   8.891   5.523
92416SOL    HW279023   2.305   9.002   5.441
92417SOL     OW79024   0.066   3.447  13.960
92417SOL    HW179025   0.138   3.405  14.007
92417SOL    HW279026   0.013   3.488  14.028
92418SOL     OW79027  11.759   3.574  10.298
92418SOL    HW179028  11.668   3.564  10.325
92418SOL    HW279029  11.787   3.657  10.338
92419SOL     OW79030   9.395   9.406  14.463
92419SOL    HW179031   9.369   9.474  14.401
92419SOL    HW279032   9.429   9.335  14.408
92420SOL     OW79033  13.457  10.170   0.538
92420SOL    HW179034  13.466  10.204   0.449
92420SOL    HW279035  13.517  10.223   0.591
92421SOL     OW79036  13.469  13.204  14.374
92421SOL    HW179037  13.462  13.240  14.286
92421SOL    HW279038  13.390  13.151  14.385
92422SOL     OW79039   7.988   2.565   3.724
92422SOL    HW179040   8.003   2.483   3.771
92422SOL    HW279041   7.941   2.540   3.645
92423SOL     OW79042   0.672   6.943   9.726
92423SOL    HW179043   0.602   6.990   9.681
92423SOL    HW279044   0.627   6.895   9.797
92424SOL     OW79045  10.387  13.388   2.430
92424SOL    HW179046  10.357  13.300   2.409
92424SOL    HW279047  10.405  13.428   2.344
92425SOL     OW79048  10.783   7.706   3.555
92425SOL    HW179049  10.736   7.644   3.611
92425SOL    HW279050  10.874   7.697   3.582
92426SOL     OW79051   8.884   3.378  12.610
92426SOL    HW179052   8.879   3.321  12.686
92426SOL    HW279053   8.898   3.466  12.646
92427SOL     OW79054  12.822   0.305   3.541
92427SOL    HW179055  12.861   0.391   3.530
92427SOL    HW279056  12.866   0.250   3.476
92428SOL     OW79057  14.817   2.284  10.699
92428SOL    HW179058  14.779   2.264  10.785
92428SOL    HW279059  14.818   2.380  10.695
92429SOL     OW79060   4.071   1.328  10.797
92429SOL    HW179061   4.080   1.248  10.744
92429SOL    HW279062   4.041   1.297  10.882
92430SOL     OW79063   1.308  14.342   2.382
92430SOL    HW179064   1.343  14.427   2.408
92430SOL    HW279065   1.214  14.357   2.371
92431SOL     OW79066  10.592   3.425  12.214
92431SOL    HW179067  10.594   3.409  12.119
92431SOL    HW279068  10.500   3.412  12.238
92432SOL     OW79069   1.504  14.323   2.957
92432SOL    HW179070   1.492  14.344   3.049
92432SOL    HW279071   1.439  14.256   2.938
92433SOL     OW79072   2.320   6.427  11.846
92433SOL    HW179073   2.310   6.393  11.757
92433SOL    HW279074   2.281   6.514  11.843
92434SOL     OW79075   1.521   8.115   9.995
92434SOL    HW179076   1.489   8.029  10.022
92434SOL    HW279077   1.575   8.144  10.069
92435SOL     OW79078  10.266   2.793   3.344
92435SOL    HW179079  10.287   2.886   3.358
92435SOL    HW279080  10.202   2.793   3.273
92436SOL     OW79081   3.161   0.505  10.631
92436SOL    HW179082   3.239   0.455  10.607
92436SOL    HW279083   3.185   0.596  10.610
92437SOL     OW79084  10.687   2.831   6.791
92437SOL    HW179085  10.756   2.765   6.803
92437SOL    HW279086  10.646   2.839   6.877
92438SOL     OW79087  13.712   9.499   8.754
92438SOL    HW179088  13.729   9.447   8.675
92438SOL    HW279089  13.633   9.549   8.732
92439SOL     OW79090   3.883   0.952   9.701
92439SOL    HW179091   3.920   0.913   9.781
92439SOL    HW279092   3.802   0.903   9.686
92440SOL     OW79093   3.868  10.983  14.623
92440SOL    HW179094   3.944  11.032  14.655
92440SOL    HW279095   3.833  10.940  14.701
92441SOL     OW79096   1.869  14.317  12.683
92441SOL    HW179097   1.943  14.328  12.743
92441SOL    HW279098   1.893  14.369  12.606
92442SOL     OW79099   8.019  10.816  11.490
92442SOL    HW179100   7.996  10.845  11.578
92442SOL    HW279101   7.937  10.824  11.440
92443SOL     OW79102  11.465   2.614   8.090
92443SOL    HW179103  11.535   2.575   8.142
92443SOL    HW279104  11.501   2.621   8.002
92444SOL     OW79105  12.331   2.025  12.326
92444SOL    HW179106  12.372   2.108  12.349
92444SOL    HW279107  12.344   2.016  12.232
92445SOL     OW79108   3.277   3.589   9.501
92445SOL    HW179109   3.239   3.511   9.462
92445SOL    HW279110   3.370   3.583   9.481
92446SOL     OW79111  13.341   5.853  12.938
92446SOL    HW179112  13.303   5.928  12.984
92446SOL    HW279113  13.319   5.868  12.846
92447SOL     OW79114   0.011   9.082   5.194
92447SOL    HW179115  14.852   9.138   5.261
92447SOL    HW279116   0.023   9.140   5.119
92448SOL     OW79117   8.084   2.637   0.336
92448SOL    HW179118   8.063   2.619   0.428
92448SOL    HW279119   8.055   2.559   0.289
92449SOL     OW79120   1.810   2.835  11.171
92449SOL    HW179121   1.810   2.873  11.259
92449SOL    HW279122   1.854   2.901  11.117
92450SOL     OW79123  11.242   2.875   8.878
92450SOL    HW179124  11.258   2.872   8.972
92450SOL    HW279125  11.167   2.934   8.868
92451SOL     OW79126   7.240  11.083  12.500
92451SOL    HW179127   7.227  11.070  12.406
92451SOL    HW279128   7.194  11.010  12.541
92452SOL     OW79129  14.431   7.989   7.727
92452SOL    HW179130  14.347   8.027   7.753
92452SOL    HW279131  14.447   8.025   7.639
92453SOL     OW79132   4.916   0.586   7.983
92453SOL    HW179133   4.825   0.560   7.971
92453SOL    HW279134   4.938   0.557   8.072
92454SOL     OW79135   6.165   7.057   2.629
92454SOL    HW179136   6.106   7.031   2.559
92454SOL    HW279137   6.228   7.116   2.586
92455SOL     OW79138  11.211   9.693   1.932
92455SOL    HW179139  11.297   9.685   1.974
92455SOL    HW279140  11.150   9.655   1.995
92456SOL     OW79141  10.438   7.130  12.389
92456SOL    HW179142  10.529   7.142  12.361
92456SOL    HW279143  10.419   7.038  12.371
92457SOL     OW79144   1.764   2.672   2.818
92457SOL    HW179145   1.806   2.656   2.734
92457SOL    HW279146   1.796   2.602   2.875
92458SOL     OW79147  12.553   6.164  14.426
92458SOL    HW179148  12.578   6.079  14.390
92458SOL    HW279149  12.632   6.197  14.469
92459SOL     OW79150  11.540  14.761   6.828
92459SOL    HW179151  11.452  14.770   6.790
92459SOL    HW279152  11.594  14.731   6.755
92460SOL     OW79153  11.366  13.037  10.423
92460SOL    HW179154  11.459  13.049  10.405
92460SOL    HW279155  11.333  13.125  10.441
92461SOL     OW79156   2.376  14.586   9.161
92461SOL    HW179157   2.286  14.564   9.140
92461SOL    HW279158   2.425  14.566   9.081
92462SOL     OW79159   8.817   9.543   4.413
92462SOL    HW179160   8.765   9.572   4.338
92462SOL    HW279161   8.856   9.624   4.448
92463SOL     OW79162  12.272   6.829   9.249
92463SOL    HW179163  12.339   6.788   9.303
92463SOL    HW279164  12.265   6.918   9.282
92464SOL     OW79165   6.676  14.498   5.464
92464SOL    HW179166   6.706  14.581   5.425
92464SOL    HW279167   6.701  14.505   5.556
92465SOL     OW79168  10.585  11.316  10.521
92465SOL    HW179169  10.519  11.247  10.509
92465SOL    HW279170  10.636  11.314  10.441
92466SOL     OW79171  13.207   7.869   4.565
92466SOL    HW179172  13.232   7.960   4.546
92466SOL    HW279173  13.141   7.848   4.500
92467SOL     OW79174   4.673  14.487   0.375
92467SOL    HW179175   4.711  14.487   0.463
92467SOL    HW279176   4.616  14.410   0.373
92468SOL     OW79177   5.723   7.079  13.860
92468SOL    HW179178   5.758   6.992  13.879
92468SOL    HW279179   5.719   7.122  13.945
92469SOL     OW79180  13.861  10.838   3.308
92469SOL    HW179181  13.850  10.858   3.401
92469SOL    HW279182  13.929  10.899   3.279
92470SOL     OW79183  10.988   3.731   4.222
92470SOL    HW179184  11.003   3.803   4.161
92470SOL    HW279185  10.920   3.762   4.281
92471SOL     OW79186   1.318   5.561   2.063
92471SOL    HW179187   1.399   5.583   2.109
92471SOL    HW279188   1.327   5.603   1.978
92472SOL     OW79189   5.502   1.523  12.701
92472SOL    HW179190   5.422   1.494  12.746
92472SOL    HW279191   5.515   1.458  12.632
92473SOL     OW79192   9.026  13.559  11.071
92473SOL    HW179193   9.054  13.642  11.111
92473SOL    HW279194   8.933  13.570  11.056
92474SOL     OW79195  10.973   1.078   2.152
92474SOL    HW179196  11.022   1.038   2.081
92474SOL    HW279197  10.893   1.026   2.159
92475SOL     OW79198   1.666   1.473   5.179
92475SOL    HW179199   1.690   1.561   5.151
92475SOL    HW279200   1.725   1.416   5.131
92476SOL     OW79201   9.287   0.096   7.089
92476SOL    HW179202   9.265   0.179   7.048
92476SOL    HW279203   9.254   0.103   7.178
92477SOL     OW79204   5.330  10.121   7.802
92477SOL    HW179205   5.397  10.054   7.814
92477SOL    HW279206   5.356  10.192   7.861
92478SOL     OW79207   7.661   7.839   1.173
92478SOL    HW179208   7.744   7.828   1.126
92478SOL    HW279209   7.621   7.752   1.171
92479SOL     OW79210  11.876   0.229   5.676
92479SOL    HW179211  11.854   0.147   5.720
92479SOL    HW279212  11.839   0.220   5.588
92480SOL     OW79213   8.411   6.475  13.176
92480SOL    HW179214   8.443   6.554  13.219
92480SOL    HW279215   8.379   6.505  13.091
92481SOL     OW79216   6.613   6.787   6.168
92481SOL    HW179217   6.646   6.807   6.256
92481SOL    HW279218   6.691   6.768   6.116
92482SOL     OW79219  11.061   7.078   3.386
92482SOL    HW179220  11.004   7.001   3.380
92482SOL    HW279221  11.093   7.090   3.296
92483SOL     OW79222   5.164   4.435  12.224
92483SOL    HW179223   5.106   4.449  12.149
92483SOL    HW279224   5.105   4.434  12.299
92484SOL     OW79225   9.653  11.797   9.471
92484SOL    HW179226   9.744  11.802   9.500
92484SOL    HW279227   9.642  11.706   9.442
92485SOL     OW79228   2.332  13.162   5.991
92485SOL    HW179229   2.272  13.216   6.042
92485SOL    HW279230   2.406  13.219   5.971
92486SOL     OW79231   1.060   5.622   3.615
92486SOL    HW179232   1.043   5.716   3.609
92486SOL    HW279233   1.155   5.614   3.605
92487SOL     OW79234   9.647   2.182  14.471
92487SOL    HW179235   9.608   2.103  14.509
92487SOL    HW279236   9.592   2.253  14.504
92488SOL     OW79237   6.363  14.370   9.950
92488SOL    HW179238   6.413  14.450   9.933
92488SOL    HW279239   6.421  14.316  10.004
92489SOL     OW79240  13.182  14.421  14.018
92489SOL    HW179241  13.269  14.407  13.980
92489SOL    HW279242  13.157  14.508  13.988
92490SOL     OW79243  12.280  11.180   8.552
92490SOL    HW179244  12.294  11.222   8.637
92490SOL    HW279245  12.292  11.086   8.570
92491SOL     OW79246   8.570   6.115  14.333
92491SOL    HW179247   8.479   6.097  14.358
92491SOL    HW279248   8.622   6.087  14.409
92492SOL     OW79249   8.697   8.773   2.289
92492SOL    HW179250   8.713   8.825   2.211
92492SOL    HW279251   8.778   8.723   2.301
92493SOL     OW79252   7.744   1.998   3.842
92493SOL    HW179253   7.667   1.972   3.893
92493SOL    HW279254   7.710   2.020   3.755
92494SOL     OW79255  10.602   7.635  11.496
92494SOL    HW179256  10.559   7.654  11.412
92494SOL    HW279257  10.645   7.717  11.520
92495SOL     OW79258   9.047  10.856  12.838
92495SOL    HW179259   8.952  10.856  12.853
92495SOL    HW279260   9.077  10.937  12.879
92496SOL     OW79261   2.249   1.335   8.219
92496SOL    HW179262   2.201   1.318   8.300
92496SOL    HW279263   2.246   1.431   8.209
92497SOL     OW79264   6.654   2.919   6.487
92497SOL    HW179265   6.659   2.992   6.549
92497SOL    HW279266   6.654   2.841   6.542
92498SOL     OW79267   4.451  12.330  14.625
92498SOL    HW179268   4.524  12.389  14.611
92498SOL    HW279269   4.389  12.352  14.556
92499SOL     OW79270  12.993  14.313   4.069
92499SOL    HW179271  13.027  14.367   4.140
92499SOL    HW279272  13.071  14.279   4.025
92500SOL     OW79273   8.334   5.485   1.269
92500SOL    HW179274   8.301   5.399   1.244
92500SOL    HW279275   8.270   5.547   1.233
92501SOL     OW79276   2.211   9.468   0.212
92501SOL    HW179277   2.281   9.531   0.196
92501SOL    HW279278   2.132   9.522   0.222
92502SOL     OW79279   0.759   8.654   3.698
92502SOL    HW179280   0.836   8.696   3.662
92502SOL    HW279281   0.736   8.707   3.775
92503SOL     OW79282   4.031  12.808  13.183
92503SOL    HW179283   4.027  12.900  13.156
92503SOL    HW279284   4.078  12.809  13.266
92504SOL     OW79285  12.272  14.070   4.182
92504SOL    HW179286  12.206  14.135   4.157
92504SOL    HW279287  12.281  14.081   4.277
92505SOL     OW79288   3.401   4.293  12.887
92505SOL    HW179289   3.494   4.305  12.869
92505SOL    HW279290   3.388   4.198  12.880
92506SOL     OW79291  12.583   9.563  12.051
92506SOL    HW179292  12.642   9.490  12.031
92506SOL    HW279293  12.496   9.522  12.056
92507SOL     OW79294   6.819  10.780   4.753
92507SOL    HW179295   6.777  10.866   4.747
92507SOL    HW279296   6.762  10.728   4.810
92508SOL     OW79297   3.229  14.338   6.564
92508SOL    HW179298   3.277  14.328   6.481
92508SOL    HW279299   3.193  14.251   6.581
92509SOL     OW79300   0.776  12.177   2.470
92509SOL    HW179301   0.814  12.189   2.383
92509SOL    HW279302   0.813  12.248   2.522
92510SOL     OW79303   6.377  14.419  11.040
92510SOL    HW179304   6.355  14.406  10.947
92510SOL    HW279305   6.303  14.469  11.075
92511SOL     OW79306   4.654  14.686  11.299
92511SOL    HW179307   4.591  14.622  11.333
92511SOL    HW279308   4.710  14.636  11.240
92512SOL     OW79309   0.974   6.834   1.771
92512SOL    HW179310   1.044   6.869   1.825
92512SOL    HW279311   0.970   6.892   1.695
92513SOL     OW79312  12.117   1.362  11.140
92513SOL    HW179313  12.159   1.285  11.180
92513SOL    HW279314  12.061   1.397  11.209
92514SOL     OW79315  11.345  13.096   4.882
92514SOL    HW179316  11.343  13.113   4.788
92514SOL    HW279317  11.272  13.036   4.897
92515SOL     OW79318   9.220   7.769  11.286
92515SOL    HW179319   9.235   7.751  11.379
92515SOL    HW279320   9.305   7.751  11.245
92516SOL     OW79321   4.995   5.003   7.128
92516SOL    HW179322   5.003   5.091   7.167
92516SOL    HW279323   5.082   4.982   7.097
92517SOL     OW79324   0.562   8.238   8.242
92517SOL    HW179325   0.601   8.175   8.303
92517SOL    HW279326   0.471   8.209   8.233
92518SOL     OW79327   3.428   2.176   8.446
92518SOL    HW179328   3.411   2.270   8.451
92518SOL    HW279329   3.431   2.157   8.352
92519SOL     OW79330   0.367   1.040  13.003
92519SOL    HW179331   0.333   1.124  13.034
92519SOL    HW279332   0.406   1.000  13.081
92520SOL     OW79333  13.316   5.764   6.183
92520SOL    HW179334  13.295   5.852   6.214
92520SOL    HW279335  13.238   5.712   6.202
92521SOL     OW79336  13.879   4.032   5.884
92521SOL    HW179337  13.856   4.116   5.922
92521SOL    HW279338  13.798   3.981   5.887
92522SOL     OW79339   2.137  11.076   1.279
92522SOL    HW179340   2.108  10.996   1.236
92522SOL    HW279341   2.141  11.054   1.372
92523SOL     OW79342   3.685   5.607   5.878
92523SOL    HW179343   3.608   5.577   5.829
92523SOL    HW279344   3.656   5.689   5.919
92524SOL     OW79345  10.287   0.538  13.550
92524SOL    HW179346  10.376   0.551  13.517
92524SOL    HW279347  10.238   0.505  13.475
92525SOL     OW79348   3.918   8.513   9.784
92525SOL    HW179349   3.918   8.600   9.824
92525SOL    HW279350   3.846   8.515   9.721
92526SOL     OW79351   7.687   9.518   8.459
92526SOL    HW179352   7.594   9.538   8.448
92526SOL    HW279353   7.722   9.516   8.370
92527SOL     OW79354   7.159  10.620  11.785
92527SOL    HW179355   7.165  10.549  11.849
92527SOL    HW279356   7.065  10.631  11.769
92528SOL     OW79357   5.509   0.911  11.138
92528SOL    HW179358   5.544   0.947  11.056
92528SOL    HW279359   5.583   0.865  11.178
92529SOL     OW79360   7.977  11.383  10.234
92529SOL    HW179361   8.038  11.390  10.161
92529SOL    HW279362   8.013  11.313  10.288
92530SOL     OW79363  11.253   0.129   3.783
92530SOL    HW179364  11.204   0.058   3.741
92530SOL    HW279365  11.189   0.199   3.794
92531SOL     OW79366   9.808   8.546  11.183
92531SOL    HW179367   9.849   8.494  11.114
92531SOL    HW279368   9.746   8.486  11.224
92532SOL     OW79369  11.752  10.996   6.553
92532SOL    HW179370  11.698  10.977   6.630
92532SOL    HW279371  11.832  11.035   6.590
92533SOL     OW79372   4.089  11.789   0.173
92533SOL    HW179373   4.168  11.790   0.118
92533SOL    HW279374   4.112  11.846   0.247
92534SOL     OW79375   8.185   0.361   0.277
92534SOL    HW179376   8.214   0.327   0.361
92534SOL    HW279377   8.263   0.404   0.240
92535SOL     OW79378   5.747  10.965  11.714
92535SOL    HW179379   5.666  10.943  11.760
92535SOL    HW279380   5.730  10.939  11.624
92536SOL     OW79381   1.036   4.973  12.977
92536SOL    HW179382   1.107   4.917  12.946
92536SOL    HW279383   0.975   4.913  13.020
92537SOL     OW79384   4.860   6.672  13.812
92537SOL    HW179385   4.945   6.666  13.768
92537SOL    HW279386   4.833   6.763  13.797
92538SOL     OW79387  10.925  10.239   4.119
92538SOL    HW179388  10.885  10.209   4.038
92538SOL    HW279389  11.019  10.239   4.102
92539SOL     OW79390   2.434  10.164   8.626
92539SOL    HW179391   2.523  10.139   8.650
92539SOL    HW279392   2.378  10.106   8.678
92540SOL     OW79393   0.512   4.718   7.267
92540SOL    HW179394   0.553   4.785   7.322
92540SOL    HW279395   0.585   4.668   7.232
92541SOL     OW79396  11.509   5.958  11.619
92541SOL    HW179397  11.554   5.963  11.535
92541SOL    HW279398  11.571   5.914  11.677
92542SOL     OW79399   2.536   6.706  12.788
92542SOL    HW179400   2.481   6.776  12.752
92542SOL    HW279401   2.501   6.690  12.876
92543SOL     OW79402   6.277  14.869   0.882
92543SOL    HW179403   6.313  14.829   0.803
92543SOL    HW279404   6.185   0.005   0.861
92544SOL     OW79405  11.979   1.451   6.048
92544SOL    HW179406  12.074   1.462   6.055
92544SOL    HW279407  11.960   1.373   6.100
92545SOL     OW79408   5.978   5.134   4.287
92545SOL    HW179409   5.920   5.139   4.211
92545SOL    HW279410   6.066   5.145   4.250
92546SOL     OW79411   7.371  10.886   1.265
92546SOL    HW179412   7.351  10.975   1.235
92546SOL    HW279413   7.381  10.836   1.184
92547SOL     OW79414   1.691   2.086   3.982
92547SOL    HW179415   1.731   2.173   3.986
92547SOL    HW279416   1.627   2.086   4.053
92548SOL     OW79417   3.673   7.756   7.543
92548SOL    HW179418   3.705   7.685   7.488
92548SOL    HW279419   3.696   7.730   7.632
92549SOL     OW79420   2.174   0.237  11.489
92549SOL    HW179421   2.133   0.321  11.467
92549SOL    HW279422   2.133   0.174  11.431
92550SOL     OW79423   2.658   7.621   6.434
92550SOL    HW179424   2.638   7.533   6.465
92550SOL    HW279425   2.579   7.648   6.387
92551SOL     OW79426  10.213   7.733   5.084
92551SOL    HW179427  10.302   7.700   5.086
92551SOL    HW279428  10.183   7.718   4.994
92552SOL     OW79429   3.662   5.738   8.932
92552SOL    HW179430   3.620   5.689   9.003
92552SOL    HW279431   3.755   5.738   8.955
92553SOL     OW79432  12.089   5.624   3.123
92553SOL    HW179433  12.016   5.616   3.184
92553SOL    HW279434  12.050   5.658   3.043
92554SOL     OW79435   9.698   0.325  13.757
92554SOL    HW179436   9.628   0.281  13.806
92554SOL    HW279437   9.669   0.416  13.752
92555SOL     OW79438  11.737   2.449  11.258
92555SOL    HW179439  11.775   2.464  11.171
92555SOL    HW279440  11.813   2.436  11.315
92556SOL     OW79441  13.939   2.681   0.148
92556SOL    HW179442  13.849   2.662   0.174
92556SOL    HW279443  13.947   2.776   0.155
92557SOL     OW79444   2.613  14.627  10.360
92557SOL    HW179445   2.561  14.674  10.425
92557SOL    HW279446   2.637  14.545  10.404
92558SOL     OW79447   1.327   1.838   4.920
92558SOL    HW179448   1.295   1.764   4.868
92558SOL    HW279449   1.405   1.867   4.874
92559SOL     OW79450   1.668   9.138   4.911
92559SOL    HW179451   1.599   9.135   4.977
92559SOL    HW279452   1.741   9.181   4.955
92560SOL     OW79453   7.472   9.730  11.855
92560SOL    HW179454   7.388   9.689  11.836
92560SOL    HW279455   7.481   9.799  11.788
92561SOL     OW79456   3.023   4.384   4.555
92561SOL    HW179457   3.055   4.295   4.543
92561SOL    HW279458   2.931   4.381   4.527
92562SOL     OW79459  11.872  10.021   0.584
92562SOL    HW179460  11.842   9.959   0.518
92562SOL    HW279461  11.894  10.100   0.535
92563SOL     OW79462  11.652   7.152   4.522
92563SOL    HW179463  11.644   7.157   4.617
92563SOL    HW279464  11.693   7.068   4.505
92564SOL     OW79465  13.229  11.359  14.329
92564SOL    HW179466  13.205  11.397  14.413
92564SOL    HW279467  13.261  11.433  14.277
92565SOL     OW79468   3.172   9.619  11.425
92565SOL    HW179469   3.233   9.562  11.378
92565SOL    HW279470   3.155   9.691  11.365
92566SOL     OW79471   6.994   7.680  14.041
92566SOL    HW179472   7.081   7.694  14.078
92566SOL    HW279473   6.937   7.670  14.118
92567SOL     OW79474   2.365  10.138   9.083
92567SOL    HW179475   2.291  10.078   9.098
92567SOL    HW279476   2.439  10.080   9.065
92568SOL     OW79477   3.820   4.336   2.738
92568SOL    HW179478   3.827   4.291   2.822
92568SOL    HW279479   3.807   4.266   2.674
92569SOL     OW79480   1.439   1.385  12.187
92569SOL    HW179481   1.402   1.418  12.269
92569SOL    HW279482   1.395   1.301  12.173
92570SOL     OW79483   9.371   7.495   0.720
92570SOL    HW179484   9.441   7.553   0.751
92570SOL    HW279485   9.417   7.415   0.694
92571SOL     OW79486  13.458   5.345   5.848
92571SOL    HW179487  13.533   5.359   5.907
92571SOL    HW279488  13.497   5.342   5.761
92572SOL     OW79489   3.856  10.166  12.337
92572SOL    HW179490   3.909  10.232  12.294
92572SOL    HW279491   3.845  10.197  12.426
92573SOL     OW79492  12.647  11.828  11.215
92573SOL    HW179493  12.684  11.858  11.298
92573SOL    HW279494  12.568  11.780  11.240
92574SOL     OW79495  11.754   9.600   3.954
92574SOL    HW179496  11.790   9.541   4.021
92574SOL    HW279497  11.808   9.679   3.960
92575SOL     OW79498  11.762   4.778  12.741
92575SOL    HW179499  11.782   4.733  12.659
92575SOL    HW279500  11.777   4.870  12.722
92576SOL     OW79501   2.058   2.522   0.008
92576SOL    HW179502   2.127   2.588   0.020
92576SOL    HW279503   2.089   2.469  14.816
92577SOL     OW79504   3.441   5.767   3.540
92577SOL    HW179505   3.496   5.759   3.618
92577SOL    HW279506   3.359   5.805   3.573
92578SOL     OW79507   8.269  12.698   3.021
92578SOL    HW179508   8.336  12.682   2.954
92578SOL    HW279509   8.222  12.775   2.989
92579SOL     OW79510   2.799  14.230   3.771
92579SOL    HW179511   2.855  14.193   3.839
92579SOL    HW279512   2.845  14.212   3.689
92580SOL     OW79513  10.230  13.129   9.786
92580SOL    HW179514  10.135  13.116   9.789
92580SOL    HW279515  10.267  13.041   9.787
92581SOL     OW79516   1.695   8.848   0.503
92581SOL    HW179517   1.760   8.784   0.476
92581SOL    HW279518   1.665   8.888   0.421
92582SOL     OW79519   5.200   1.991   5.323
92582SOL    HW179520   5.287   1.951   5.319
92582SOL    HW279521   5.210   2.064   5.384
92583SOL     OW79522  14.774   9.949   7.539
92583SOL    HW179523  14.714   9.876   7.557
92583SOL    HW279524  14.838   9.945   7.610
92584SOL     OW79525   4.839   1.001  10.681
92584SOL    HW179526   4.846   1.059  10.757
92584SOL    HW279527   4.750   1.015  10.649
92585SOL     OW79528   1.760   7.171   4.859
92585SOL    HW179529   1.807   7.252   4.838
92585SOL    HW279530   1.670   7.188   4.831
92586SOL     OW79531   9.240  11.913  12.244
92586SOL    HW179532   9.325  11.956  12.228
92586SOL    HW279533   9.175  11.980  12.221
92587SOL     OW79534   6.987  11.816  12.439
92587SOL    HW179535   6.980  11.829  12.533
92587SOL    HW279536   6.912  11.863  12.402
92588SOL     OW79537   2.160   7.023   3.243
92588SOL    HW179538   2.066   7.038   3.249
92588SOL    HW279539   2.190   7.018   3.334
92589SOL     OW79540   6.656   5.302  13.631
92589SOL    HW179541   6.665   5.310  13.726
92589SOL    HW279542   6.741   5.329  13.597
92590SOL     OW79543   6.539   2.476  12.785
92590SOL    HW179544   6.607   2.428  12.737
92590SOL    HW279545   6.581   2.559  12.809
92591SOL     OW79546  14.720   2.901   5.296
92591SOL    HW179547  14.814   2.906   5.279
92591SOL    HW279548  14.710   2.934   5.385
92592SOL     OW79549   2.760   7.458   3.888
92592SOL    HW179550   2.772   7.546   3.853
92592SOL    HW279551   2.819   7.453   3.963
92593SOL     OW79552   3.627  12.803   9.351
92593SOL    HW179553   3.559  12.744   9.383
92593SOL    HW279554   3.649  12.771   9.264
92594SOL     OW79555   7.795   6.898   8.974
92594SOL    HW179556   7.746   6.906   8.892
92594SOL    HW279557   7.760   6.967   9.031
92595SOL     OW79558   9.851   0.922  12.271
92595SOL    HW179559   9.784   0.951  12.208
92595SOL    HW279560   9.933   0.928  12.222
92596SOL     OW79561  11.307  12.545   3.869
92596SOL    HW179562  11.211  12.540   3.868
92596SOL    HW279563  11.332  12.542   3.777
92597SOL     OW79564   1.951   0.153   1.906
92597SOL    HW179565   1.936   0.074   1.958
92597SOL    HW279566   1.876   0.157   1.847
92598SOL     OW79567   0.983   6.964   2.618
92598SOL    HW179568   0.945   6.883   2.652
92598SOL    HW279569   0.997   6.948   2.525
92599SOL     OW79570   4.704  13.661   1.587
92599SOL    HW179571   4.647  13.684   1.514
92599SOL    HW279572   4.730  13.571   1.571
92600SOL     OW79573   4.282   6.851  10.647
92600SOL    HW179574   4.197   6.876  10.683
92600SOL    HW279575   4.344   6.874  10.717
92601SOL     OW79576   5.745  13.245   3.874
92601SOL    HW179577   5.670  13.297   3.902
92601SOL    HW279578   5.821  13.292   3.908
92602SOL     OW79579  11.352   3.823   1.966
92602SOL    HW179580  11.294   3.790   1.897
92602SOL    HW279581  11.434   3.845   1.921
92603SOL     OW79582   3.437  14.812   4.399
92603SOL    HW179583   3.467  14.758   4.472
92603SOL    HW279584   3.404   0.010   4.441
92604SOL     OW79585   8.955   2.126   9.251
92604SOL    HW179586   8.968   2.220   9.239
92604SOL    HW279587   8.937   2.117   9.345
92605SOL     OW79588   1.833   6.909  11.741
92605SOL    HW179589   1.832   6.852  11.665
92605SOL    HW279590   1.763   6.973  11.724
92606SOL     OW79591   1.081   3.474   8.692
92606SOL    HW179592   1.173   3.495   8.675
92606SOL    HW279593   1.070   3.494   8.785
92607SOL     OW79594   8.499   4.600  12.831
92607SOL    HW179595   8.585   4.632  12.805
92607SOL    HW279596   8.475   4.654  12.907
92608SOL     OW79597   1.437   9.123   3.288
92608SOL    HW179598   1.437   9.041   3.239
92608SOL    HW279599   1.395   9.186   3.229
92609SOL     OW79600  10.994   0.196   1.456
92609SOL    HW179601  10.945   0.277   1.442
92609SOL    HW279602  10.949   0.153   1.528
92610SOL     OW79603   6.103   7.235  12.075
92610SOL    HW179604   6.109   7.152  12.121
92610SOL    HW279605   6.088   7.300  12.144
92611SOL     OW79606   4.959  12.845  13.732
92611SOL    HW179607   4.884  12.786  13.731
92611SOL    HW279608   4.970  12.868  13.824
92612SOL     OW79609  12.627   2.205  10.533
92612SOL    HW179610  12.671   2.253  10.463
92612SOL    HW279611  12.544   2.251  10.545
92613SOL     OW79612   8.038  14.357   8.103
92613SOL    HW179613   8.095  14.292   8.144
92613SOL    HW279614   7.960  14.359   8.158
92614SOL     OW79615  11.070   2.366   2.384
92614SOL    HW179616  10.998   2.343   2.324
92614SOL    HW279617  11.091   2.283   2.427
92615SOL     OW79618   4.719  10.146  14.420
92615SOL    HW179619   4.707  10.175  14.511
92615SOL    HW279620   4.783  10.076  14.426
92616SOL     OW79621   2.487   1.245  11.184
92616SOL    HW179622   2.419   1.178  11.194
92616SOL    HW279623   2.544   1.210  11.116
92617SOL     OW79624   7.069   5.377  12.441
92617SOL    HW179625   7.036   5.341  12.523
92617SOL    HW279626   7.103   5.302  12.393
92618SOL     OW79627   6.917   0.662   5.912
92618SOL    HW179628   6.946   0.722   5.844
92618SOL    HW279629   6.832   0.696   5.940
92619SOL     OW79630  10.828  13.461   7.706
92619SOL    HW179631  10.921  13.440   7.702
92619SOL    HW279632  10.816  13.529   7.639
92620SOL     OW79633   4.374   4.490  12.777
92620SOL    HW179634   4.397   4.581  12.795
92620SOL    HW279635   4.279   4.488  12.783
92621SOL     OW79636   3.852   3.148   2.293
92621SOL    HW179637   3.834   3.242   2.289
92621SOL    HW279638   3.875   3.125   2.203
92622SOL     OW79639  14.121   8.865  11.967
92622SOL    HW179640  14.114   8.942  12.023
92622SOL    HW279641  14.051   8.877  11.902
92623SOL     OW79642  10.847  10.677  14.119
92623SOL    HW179643  10.826  10.600  14.067
92623SOL    HW279644  10.791  10.669  14.197
92624SOL     OW79645  11.644   0.321   2.021
92624SOL    HW179646  11.592   0.245   1.994
92624SOL    HW279647  11.580   0.385   2.052
92625SOL     OW79648  13.872   0.562   1.980
92625SOL    HW179649  13.883   0.603   1.894
92625SOL    HW279650  13.810   0.490   1.964
92626SOL     OW79651   7.239   5.858   9.512
92626SOL    HW179652   7.169   5.918   9.536
92626SOL    HW279653   7.282   5.898   9.437
92627SOL     OW79654  12.555   9.172  14.334
92627SOL    HW179655  12.632   9.114  14.342
92627SOL    HW279656  12.484   9.123  14.376
92628SOL     OW79657   1.780   3.597   9.523
92628SOL    HW179658   1.701   3.551   9.552
92628SOL    HW279659   1.848   3.530   9.520
92629SOL     OW79660   2.545   3.600   5.116
92629SOL    HW179661   2.602   3.617   5.192
92629SOL    HW279662   2.462   3.572   5.154
92630SOL     OW79663   1.326   3.561   2.120
92630SOL    HW179664   1.399   3.622   2.124
92630SOL    HW279665   1.300   3.559   2.028
92631SOL     OW79666  11.139   6.406  10.970
92631SOL    HW179667  11.116   6.315  10.989
92631SOL    HW279668  11.092   6.457  11.037
92632SOL     OW79669  10.128   9.578  14.451
92632SOL    HW179670  10.074   9.601  14.376
92632SOL    HW279671  10.140   9.483  14.444
92633SOL     OW79672   2.068   6.778   5.606
92633SOL    HW179673   2.125   6.732   5.668
92633SOL    HW279674   2.126   6.833   5.555
92634SOL     OW79675  10.695  13.108   0.967
92634SOL    HW179676  10.625  13.171   0.952
92634SOL    HW279677  10.740  13.139   1.045
92635SOL     OW79678   9.618   7.112  14.523
92635SOL    HW179679   9.600   7.087  14.433
92635SOL    HW279680   9.665   7.195  14.516
92636SOL     OW79681   3.777   8.321   2.175
92636SOL    HW179682   3.820   8.405   2.156
92636SOL    HW279683   3.733   8.297   2.094
92637SOL     OW79684   6.106   1.790   6.666
92637SOL    HW179685   6.177   1.841   6.706
92637SOL    HW279686   6.131   1.699   6.682
92638SOL     OW79687  10.778  12.874  10.250
92638SOL    HW179688  10.749  12.933  10.180
92638SOL    HW279689  10.796  12.932  10.324
92639SOL     OW79690   6.384  14.193   5.688
92639SOL    HW179691   6.388  14.233   5.774
92639SOL    HW279692   6.290  14.190   5.667
92640SOL     OW79693   7.349   9.343  10.004
92640SOL    HW179694   7.283   9.295  10.054
92640SOL    HW279695   7.416   9.277   9.984
92641SOL     OW79696   0.559  12.712   7.989
92641SOL    HW179697   0.488  12.691   7.928
92641SOL    HW279698   0.515  12.727   8.073
92642SOL     OW79699  14.720   9.295   9.891
92642SOL    HW179700  14.773   9.243   9.830
92642SOL    HW279701  14.647   9.238   9.915
92643SOL     OW79702  12.048  13.747   3.386
92643SOL    HW179703  12.061  13.814   3.454
92643SOL    HW279704  11.956  13.756   3.361
92644SOL     OW79705   0.166   2.802   8.684
92644SOL    HW179706   0.087   2.854   8.692
92644SOL    HW279707   0.192   2.811   8.592
92645SOL     OW79708  10.672   0.958  13.967
92645SOL    HW179709  10.590   1.005  13.980
92645SOL    HW279710  10.678   0.946  13.872
92646SOL     OW79711   1.524   2.515   3.544
92646SOL    HW179712   1.505   2.456   3.471
92646SOL    HW279713   1.438   2.538   3.579
92647SOL     OW79714  14.548  14.224   0.277
92647SOL    HW179715  14.604  14.173   0.219
92647SOL    HW279716  14.476  14.253   0.220
92648SOL     OW79717  13.261   9.679   0.247
92648SOL    HW179718  13.216   9.626   0.313
92648SOL    HW279719  13.202   9.678   0.171
92649SOL     OW79720   4.193   7.529  13.112
92649SOL    HW179721   4.161   7.553  13.026
92649SOL    HW279722   4.190   7.610  13.163
92650SOL     OW79723   3.326   8.461   7.947
92650SOL    HW179724   3.341   8.554   7.961
92650SOL    HW279725   3.315   8.425   8.035
92651SOL     OW79726   0.549   7.591  11.797
92651SOL    HW179727   0.621   7.539  11.833
92651SOL    HW279728   0.591   7.647  11.732
92652SOL     OW79729   3.006   0.021   7.858
92652SOL    HW179730   2.954   0.095   7.824
92652SOL    HW279731   2.951  14.863   7.925
92653SOL     OW79732   9.854  11.000   5.719
92653SOL    HW179733   9.896  11.039   5.796
92653SOL    HW279734   9.893  11.045   5.645
92654SOL     OW79735   2.848  12.496   0.137
92654SOL    HW179736   2.785  12.434   0.102
92654SOL    HW279737   2.817  12.515   0.225
92655SOL     OW79738  12.168   6.780  13.150
92655SOL    HW179739  12.136   6.796  13.061
92655SOL    HW279740  12.198   6.689  13.149
92656SOL     OW79741   2.700   9.381  12.377
92656SOL    HW179742   2.609   9.370  12.403
92656SOL    HW279743   2.697   9.449  12.309
92657SOL     OW79744  14.204   5.255   1.770
92657SOL    HW179745  14.211   5.243   1.676
92657SOL    HW279746  14.179   5.348   1.780
92658SOL     OW79747   2.639   7.236   7.989
92658SOL    HW179748   2.708   7.239   8.056
92658SOL    HW279749   2.630   7.143   7.968
92659SOL     OW79750   8.792   1.546   4.714
92659SOL    HW179751   8.811   1.486   4.642
92659SOL    HW279752   8.815   1.633   4.679
92660SOL     OW79753   4.454   0.056  14.509
92660SOL    HW179754   4.500   0.038  14.591
92660SOL    HW279755   4.377   0.105  14.535
92661SOL     OW79756   5.625   1.233  13.875
92661SOL    HW179757   5.666   1.157  13.916
92661SOL    HW279758   5.692   1.301  13.879
92662SOL     OW79759  12.248   7.594  13.417
92662SOL    HW179760  12.276   7.505  13.398
92662SOL    HW279761  12.296   7.618  13.497
92663SOL     OW79762   5.824   6.927  12.023
92663SOL    HW179763   5.767   6.980  11.968
92663SOL    HW279764   5.911   6.937  11.984
92664SOL     OW79765  10.013   9.677  13.152
92664SOL    HW179766  10.036   9.765  13.122
92664SOL    HW279767  10.040   9.619  13.080
92665SOL     OW79768   4.879   9.830   5.377
92665SOL    HW179769   4.917   9.742   5.375
92665SOL    HW279770   4.951   9.886   5.405
92666SOL     OW79771  10.041  12.694   8.259
92666SOL    HW179772  10.087  12.702   8.343
92666SOL    HW279773  10.104  12.652   8.201
92667SOL     OW79774   4.564   9.499   2.171
92667SOL    HW179775   4.574   9.478   2.078
92667SOL    HW279776   4.604   9.586   2.181
92668SOL     OW79777  14.695   0.636  13.932
92668SOL    HW179778  14.646   0.639  13.850
92668SOL    HW279779  14.638   0.588  13.992
92669SOL     OW79780  14.051  13.402  12.641
92669SOL    HW179781  14.060  13.384  12.735
92669SOL    HW279782  14.009  13.488  12.638
92670SOL     OW79783  13.552  12.522   0.938
92670SOL    HW179784  13.619  12.471   0.894
92670SOL    HW279785  13.524  12.467   1.011
92671SOL     OW79786   8.638   1.565   0.710
92671SOL    HW179787   8.594   1.594   0.630
92671SOL    HW279788   8.613   1.629   0.776
92672SOL     OW79789   4.400  11.443  10.499
92672SOL    HW179790   4.413  11.406  10.412
92672SOL    HW279791   4.475  11.502  10.511
92673SOL     OW79792   7.928   8.504   9.317
92673SOL    HW179793   7.946   8.436   9.253
92673SOL    HW279794   7.995   8.493   9.384
92674SOL     OW79795  10.181   8.043   6.599
92674SOL    HW179796  10.164   7.954   6.632
92674SOL    HW279797  10.109   8.095   6.633
92675SOL     OW79798  11.448   8.373  13.982
92675SOL    HW179799  11.543   8.382  13.981
92675SOL    HW279800  11.419   8.432  14.052
92676SOL     OW79801   0.651   3.688  10.581
92676SOL    HW179802   0.706   3.723  10.651
92676SOL    HW279803   0.673   3.741  10.505
92677SOL     OW79804   2.118  10.899  14.345
92677SOL    HW179805   2.187  10.966  14.340
92677SOL    HW279806   2.089  10.889  14.254
92678SOL     OW79807   9.096   5.324  11.037
92678SOL    HW179808   9.133   5.242  11.005
92678SOL    HW279809   9.010   5.299  11.072
92679SOL     OW79810   7.683  13.767   4.269
92679SOL    HW179811   7.623  13.824   4.318
92679SOL    HW279812   7.644  13.680   4.275
92680SOL     OW79813   0.824   7.595   3.857
92680SOL    HW179814   0.798   7.685   3.872
92680SOL    HW279815   0.883   7.575   3.931
92681SOL     OW79816   8.791  11.355  14.345
92681SOL    HW179817   8.830  11.440  14.324
92681SOL    HW279818   8.849  11.317  14.411
92682SOL     OW79819   2.064   3.382   8.616
92682SOL    HW179820   2.157   3.368   8.597
92682SOL    HW279821   2.037   3.303   8.663
92683SOL     OW79822   6.524  14.165  12.848
92683SOL    HW179823   6.510  14.153  12.754
92683SOL    HW279824   6.489  14.086  12.888
92684SOL     OW79825   3.685   2.193   7.892
92684SOL    HW179826   3.715   2.275   7.855
92684SOL    HW279827   3.763   2.138   7.896
92685SOL     OW79828   8.235   6.109   8.505
92685SOL    HW179829   8.238   6.204   8.509
92685SOL    HW279830   8.221   6.081   8.596
92686SOL     OW79831   8.562   6.488   2.713
92686SOL    HW179832   8.629   6.445   2.659
92686SOL    HW279833   8.495   6.515   2.651
92687SOL     OW79834  12.040   5.973   7.965
92687SOL    HW179835  11.958   6.023   7.963
92687SOL    HW279836  12.097   6.018   7.903
92688SOL     OW79837   3.887   1.744  13.820
92688SOL    HW179838   3.892   1.649  13.819
92688SOL    HW279839   3.822   1.764  13.887
92689SOL     OW79840   4.164   6.810   1.015
92689SOL    HW179841   4.187   6.860   1.093
92689SOL    HW279842   4.129   6.875   0.954
92690SOL     OW79843   2.424  12.004   7.336
92690SOL    HW179844   2.439  11.911   7.352
92690SOL    HW279845   2.412  12.010   7.241
92691SOL     OW79846  12.430   7.848   4.870
92691SOL    HW179847  12.504   7.878   4.923
92691SOL    HW279848  12.448   7.882   4.782
92692SOL     OW79849  14.160   7.822  13.414
92692SOL    HW179850  14.127   7.904  13.378
92692SOL    HW279851  14.093   7.757  13.390
92693SOL     OW79852   1.170   9.156   7.339
92693SOL    HW179853   1.259   9.129   7.318
92693SOL    HW279854   1.122   9.145   7.256
92694SOL     OW79855   2.230  10.188   5.210
92694SOL    HW179856   2.144  10.181   5.167
92694SOL    HW279857   2.281  10.245   5.152
92695SOL     OW79858   7.388  11.802   3.416
92695SOL    HW179859   7.356  11.854   3.490
92695SOL    HW279860   7.326  11.818   3.346
92696SOL     OW79861   3.055   4.014  11.931
92696SOL    HW179862   3.113   4.015  12.008
92696SOL    HW279863   3.044   4.106  11.908
92697SOL     OW79864  14.457   8.352   0.077
92697SOL    HW179865  14.548   8.325   0.087
92697SOL    HW279866  14.446   8.363  14.864
92698SOL     OW79867   5.183   6.901   4.341
92698SOL    HW179868   5.165   6.890   4.434
92698SOL    HW279869   5.171   6.995   4.325
92699SOL     OW79870   7.736   9.538  12.423
92699SOL    HW179871   7.686   9.578  12.494
92699SOL    HW279872   7.672   9.525  12.353
92700SOL     OW79873   3.060   3.520   0.823
92700SOL    HW179874   2.996   3.534   0.752
92700SOL    HW279875   3.032   3.580   0.892
92701SOL     OW79876  12.918   5.338   7.769
92701SOL    HW179877  12.904   5.413   7.826
92701SOL    HW279878  12.962   5.273   7.824
92702SOL     OW79879  12.813   7.367  10.881
92702SOL    HW179880  12.865   7.383  10.803
92702SOL    HW279881  12.757   7.444  10.889
92703SOL     OW79882   3.779  11.661  11.239
92703SOL    HW179883   3.859  11.651  11.291
92703SOL    HW279884   3.805  11.638  11.150
92704SOL     OW79885   6.732  12.310   4.831
92704SOL    HW179886   6.703  12.228   4.870
92704SOL    HW279887   6.817  12.289   4.792
92705SOL     OW79888  11.446  10.320   9.904
92705SOL    HW179889  11.357  10.349   9.922
92705SOL    HW279890  11.498  10.361   9.973
92706SOL     OW79891   4.188   7.667  12.162
92706SOL    HW179892   4.210   7.585  12.118
92706SOL    HW279893   4.244   7.732  12.120
92707SOL     OW79894   2.974   5.275   0.281
92707SOL    HW179895   2.899   5.215   0.276
92707SOL    HW279896   3.004   5.268   0.372
92708SOL     OW79897   6.202   9.054   8.331
92708SOL    HW179898   6.290   9.049   8.294
92708SOL    HW279899   6.161   8.971   8.307
92709SOL     OW79900   0.806   5.043   5.625
92709SOL    HW179901   0.805   4.982   5.551
92709SOL    HW279902   0.717   5.078   5.629
92710SOL     OW79903  11.429   7.454   0.207
92710SOL    HW179904  11.339   7.482   0.190
92710SOL    HW279905  11.458   7.411   0.127
92711SOL     OW79906  11.528   1.652  11.398
92711SOL    HW179907  11.551   1.690  11.483
92711SOL    HW279908  11.562   1.714  11.334
92712SOL     OW79909  12.604   6.774   8.559
92712SOL    HW179910  12.579   6.830   8.632
92712SOL    HW279911  12.536   6.706   8.556
92713SOL     OW79912  11.714  12.789   4.946
92713SOL    HW179913  11.765  12.842   5.008
92713SOL    HW279914  11.738  12.825   4.860
92714SOL     OW79915  11.944  13.032   9.413
92714SOL    HW179916  11.999  13.110   9.428
92714SOL    HW279917  12.003  12.969   9.372
92715SOL     OW79918  14.515   0.414  14.652
92715SOL    HW179919  14.419   0.413  14.659
92715SOL    HW279920  14.538   0.322  14.637
92716SOL     OW79921  14.301   2.474   9.886
92716SOL    HW179922  14.218   2.475   9.838
92716SOL    HW279923  14.351   2.547   9.850
92717SOL     OW79924  11.260   7.985   6.759
92717SOL    HW179925  11.343   7.983   6.806
92717SOL    HW279926  11.199   8.029   6.819
92718SOL     OW79927   9.513   7.851   6.801
92718SOL    HW179928   9.602   7.847   6.837
92718SOL    HW279929   9.515   7.928   6.744
92719SOL     OW79930  14.615  10.690   5.626
92719SOL    HW179931  14.594  10.681   5.719
92719SOL    HW279932  14.674  10.765   5.622
92720SOL     OW79933   4.511  12.425   1.818
92720SOL    HW179934   4.513  12.490   1.888
92720SOL    HW279935   4.437  12.451   1.764
92721SOL     OW79936   4.036   1.944   9.345
92721SOL    HW179937   4.030   1.916   9.254
92721SOL    HW279938   4.018   1.865   9.396
92722SOL     OW79939   4.284  13.068   6.107
92722SOL    HW179940   4.297  13.037   6.196
92722SOL    HW279941   4.202  13.118   6.110
92723SOL     OW79942   2.221   8.737   4.924
92723SOL    HW179943   2.294   8.722   4.864
92723SOL    HW279944   2.151   8.679   4.891
92724SOL     OW79945  13.034  12.906   5.984
92724SOL    HW179946  13.019  12.892   6.077
92724SOL    HW279947  13.116  12.861   5.965
92725SOL     OW79948   3.981   3.053   4.655
92725SOL    HW179949   3.886   3.056   4.651
92725SOL    HW279950   4.001   3.060   4.749
92726SOL     OW79951   5.086  10.668   4.674
92726SOL    HW179952   5.001  10.624   4.665
92726SOL    HW279953   5.085  10.734   4.605
92727SOL     OW79954   7.529   0.856  10.431
92727SOL    HW179955   7.562   0.935  10.390
92727SOL    HW279956   7.597   0.790  10.416
92728SOL     OW79957  13.174   8.434   5.012
92728SOL    HW179958  13.230   8.382   5.070
92728SOL    HW279959  13.107   8.373   4.983
92729SOL     OW79960   9.610   9.468   9.998
92729SOL    HW179961   9.514   9.462   9.996
92729SOL    HW279962   9.630   9.546   9.947
92730SOL     OW79963   4.144   4.203   4.531
92730SOL    HW179964   4.071   4.263   4.512
92730SOL    HW279965   4.118   4.158   4.612
92731SOL     OW79966   4.209   8.161   2.861
92731SOL    HW179967   4.263   8.184   2.785
92731SOL    HW279968   4.130   8.215   2.852
92732SOL     OW79969   1.317  10.900  13.307
92732SOL    HW179970   1.300  10.970  13.371
92732SOL    HW279971   1.230  10.877  13.273
92733SOL     OW79972  13.813   0.120   6.507
92733SOL    HW179973  13.903   0.149   6.492
92733SOL    HW279974  13.759   0.195   6.484
92734SOL     OW79975   7.915   7.543   2.868
92734SOL    HW179976   7.921   7.447   2.869
92734SOL    HW279977   7.921   7.568   2.961
92735SOL     OW79978   2.659   9.344   0.178
92735SOL    HW179979   2.648   9.337   0.273
92735SOL    HW279980   2.664   9.439   0.162
92736SOL     OW79981   8.955   0.588  12.306
92736SOL    HW179982   8.870   0.597  12.350
92736SOL    HW279983   9.017   0.628  12.366
92737SOL     OW79984  13.736  14.647   4.252
92737SOL    HW179985  13.762  14.725   4.203
92737SOL    HW279986  13.641  14.644   4.243
92738SOL     OW79987   9.683   0.374   5.217
92738SOL    HW179988   9.714   0.459   5.250
92738SOL    HW279989   9.650   0.393   5.129
92739SOL     OW79990   3.232   0.582   4.388
92739SOL    HW179991   3.190   0.668   4.393
92739SOL    HW279992   3.205   0.537   4.468
92740SOL     OW79993  10.860   7.268  12.686
92740SOL    HW179994  10.897   7.180  12.693
92740SOL    HW279995  10.769   7.254  12.662
92741SOL     OW79996   7.696  14.045   6.063
92741SOL    HW179997   7.730  13.986   5.995
92741SOL    HW279998   7.602  14.030   6.064
92742SOL     OW79999   6.652  13.794   6.428
92742SOL    HW180000   6.693  13.751   6.354
92742SOL    HW280001   6.695  13.880   6.432
92743SOL     OW80002   8.456  14.544  11.086
92743SOL    HW180003   8.531  14.529  11.144
92743SOL    HW280004   8.460  14.638  11.067
92744SOL     OW80005   4.472   6.848   0.919
92744SOL    HW180006   4.454   6.755   0.902
92744SOL    HW280007   4.563   6.849   0.949
92745SOL     OW80008   0.625   7.713  14.376
92745SOL    HW180009   0.695   7.709  14.442
92745SOL    HW280010   0.553   7.664  14.415
92746SOL     OW80011   3.344  13.342  13.758
92746SOL    HW180012   3.302  13.324  13.674
92746SOL    HW280013   3.412  13.407  13.738
92747SOL     OW80014   9.686   5.888  12.420
92747SOL    HW180015   9.701   5.804  12.464
92747SOL    HW280016   9.626   5.935  12.478
92748SOL     OW80017   2.037  14.628   3.950
92748SOL    HW180018   2.111  14.616   4.008
92748SOL    HW280019   1.983  14.694   3.993
92749SOL     OW80020  10.983  10.745  12.540
92749SOL    HW180021  10.999  10.824  12.592
92749SOL    HW280022  10.926  10.691  12.594
92750SOL     OW80023   7.322   7.527   6.069
92750SOL    HW180024   7.403   7.476   6.056
92750SOL    HW280025   7.274   7.478   6.136
92751SOL     OW80026   1.201  10.054   0.697
92751SOL    HW180027   1.281  10.103   0.680
92751SOL    HW280028   1.138  10.087   0.632
92752SOL     OW80029   3.179   9.940  14.556
92752SOL    HW180030   3.192   9.982  14.471
92752SOL    HW280031   3.100   9.981  14.592
92753SOL     OW80032  11.571   0.636  12.578
92753SOL    HW180033  11.629   0.661  12.649
92753SOL    HW280034  11.583   0.703  12.511
92754SOL     OW80035  11.975   6.304   0.287
92754SOL    HW180036  11.901   6.245   0.277
92754SOL    HW280037  12.019   6.302   0.201
92755SOL     OW80038   0.406   5.843  14.873
92755SOL    HW180039   0.419   5.766  14.818
92755SOL    HW280040   0.347   5.899  14.822
92756SOL     OW80041   9.657  10.756   9.130
92756SOL    HW180042   9.689  10.823   9.190
92756SOL    HW280043   9.571  10.731   9.164
92757SOL     OW80044  11.891   2.465   7.190
92757SOL    HW180045  11.849   2.550   7.176
92757SOL    HW280046  11.915   2.436   7.102
92758SOL     OW80047  11.043  12.632  13.693
92758SOL    HW180048  10.965  12.579  13.679
92758SOL    HW280049  11.011  12.722  13.696
92759SOL     OW80050  13.886   2.136   4.527
92759SOL    HW180051  13.812   2.185   4.563
92759SOL    HW280052  13.963   2.188   4.550
92760SOL     OW80053   2.893   2.215   7.507
92760SOL    HW180054   2.917   2.123   7.519
92760SOL    HW280055   2.937   2.261   7.578
92761SOL     OW80056  13.412  11.501   2.598
92761SOL    HW180057  13.430  11.410   2.624
92761SOL    HW280058  13.327  11.520   2.637
92762SOL     OW80059   2.200  14.144   1.525
92762SOL    HW180060   2.154  14.211   1.474
92762SOL    HW280061   2.288  14.180   1.538
92763SOL     OW80062   7.617   4.794  10.358
92763SOL    HW180063   7.575   4.872  10.321
92763SOL    HW280064   7.705   4.823  10.383
92764SOL     OW80065   4.206  10.440   8.963
92764SOL    HW180066   4.169  10.528   8.965
92764SOL    HW280067   4.151  10.390   9.024
92765SOL     OW80068   8.913   1.230   3.016
92765SOL    HW180069   8.901   1.318   3.051
92765SOL    HW280070   8.868   1.231   2.931
92766SOL     OW80071   8.455  14.734  12.691
92766SOL    HW180072   8.517  14.796  12.653
92766SOL    HW280073   8.508  14.676  12.745
92767SOL     OW80074  14.303   6.661   7.505
92767SOL    HW180075  14.377   6.640   7.562
92767SOL    HW280076  14.227   6.654   7.562
92768SOL     OW80077   2.519  12.464   4.058
92768SOL    HW180078   2.535  12.500   4.145
92768SOL    HW280079   2.423  12.464   4.050
92769SOL     OW80080   3.647   2.196  10.754
92769SOL    HW180081   3.661   2.145  10.834
92769SOL    HW280082   3.726   2.182  10.703
92770SOL     OW80083   0.620   7.806   5.279
92770SOL    HW180084   0.646   7.848   5.361
92770SOL    HW280085   0.663   7.858   5.211
92771SOL     OW80086  13.495   7.163  12.528
92771SOL    HW180087  13.407   7.167  12.565
92771SOL    HW280088  13.553   7.163  12.604
92772SOL     OW80089  11.392   1.029  12.400
92772SOL    HW180090  11.360   1.029  12.490
92772SOL    HW280091  11.407   0.936  12.380
92773SOL     OW80092  11.957   9.285   7.741
92773SOL    HW180093  11.924   9.217   7.799
92773SOL    HW280094  12.052   9.280   7.749
92774SOL     OW80095  11.960   9.662   7.625
92774SOL    HW180096  12.038   9.709   7.655
92774SOL    HW280097  11.990   9.613   7.548
92775SOL     OW80098  11.728  10.246  12.657
92775SOL    HW180099  11.736  10.334  12.620
92775SOL    HW280100  11.811  10.203  12.636
92776SOL     OW80101   9.120   3.304   5.221
92776SOL    HW180102   9.089   3.230   5.274
92776SOL    HW280103   9.155   3.264   5.142
92777SOL     OW80104   0.332   6.346   4.682
92777SOL    HW180105   0.281   6.419   4.716
92777SOL    HW280106   0.266   6.288   4.643
92778SOL     OW80107  14.776  11.088  14.140
92778SOL    HW180108  14.805  11.164  14.090
92778SOL    HW280109  14.765  11.121  14.229
92779SOL     OW80110  11.505  11.186   0.851
92779SOL    HW180111  11.476  11.153   0.936
92779SOL    HW280112  11.467  11.126   0.787
92780SOL     OW80113   9.550   1.117   6.488
92780SOL    HW180114   9.512   1.056   6.552
92780SOL    HW280115   9.625   1.155   6.533
92781SOL     OW80116   9.623  13.616   5.124
92781SOL    HW180117   9.583  13.631   5.039
92781SOL    HW280118   9.550  13.593   5.181
92782SOL     OW80119   2.699  12.717   1.723
92782SOL    HW180120   2.775  12.662   1.705
92782SOL    HW280121   2.637  12.697   1.653
92783SOL     OW80122  10.769   6.761   6.969
92783SOL    HW180123  10.772   6.757   6.873
92783SOL    HW280124  10.720   6.683   6.995
92784SOL     OW80125  14.724   6.926   6.508
92784SOL    HW180126  14.795   6.965   6.559
92784SOL    HW280127  14.656   6.906   6.573
92785SOL     OW80128   7.604   3.715   8.143
92785SOL    HW180129   7.551   3.636   8.139
92785SOL    HW280130   7.685   3.692   8.098
92786SOL     OW80131  11.100  10.377   4.400
92786SOL    HW180132  11.173  10.320   4.426
92786SOL    HW280133  11.023  10.322   4.406
92787SOL     OW80134   0.933   2.233   9.236
92787SOL    HW180135   0.887   2.176   9.174
92787SOL    HW280136   0.918   2.194   9.322
92788SOL     OW80137   5.493   8.406   0.817
92788SOL    HW180138   5.406   8.388   0.781
92788SOL    HW280139   5.508   8.498   0.799
92789SOL     OW80140   2.251   6.853  13.210
92789SOL    HW180141   2.276   6.764  13.183
92789SOL    HW280142   2.302   6.870  13.289
92790SOL     OW80143   4.863   5.501   0.506
92790SOL    HW180144   4.781   5.512   0.555
92790SOL    HW280145   4.914   5.439   0.558
92791SOL     OW80146   6.853  13.381   0.349
92791SOL    HW180147   6.900  13.386   0.266
92791SOL    HW280148   6.889  13.453   0.402
92792SOL     OW80149   8.195   1.014   8.718
92792SOL    HW180150   8.286   0.989   8.735
92792SOL    HW280151   8.153   0.933   8.689
92793SOL     OW80152   7.515   5.562  10.708
92793SOL    HW180153   7.422   5.575  10.723
92793SOL    HW280154   7.546   5.648  10.678
92794SOL     OW80155   7.836   1.698   5.320
92794SOL    HW180156   7.807   1.629   5.380
92794SOL    HW280157   7.770   1.767   5.329
92795SOL     OW80158  12.574   6.367  12.477
92795SOL    HW180159  12.657   6.342  12.436
92795SOL    HW280160  12.581   6.462  12.488
92796SOL     OW80161   8.149   2.181   4.627
92796SOL    HW180162   8.138   2.265   4.582
92796SOL    HW280163   8.097   2.119   4.575
92797SOL     OW80164   0.456   0.890   5.698
92797SOL    HW180165   0.408   0.951   5.642
92797SOL    HW280166   0.388   0.834   5.736
92798SOL     OW80167  13.418   7.219  10.942
92798SOL    HW180168  13.475   7.294  10.960
92798SOL    HW280169  13.457   7.178  10.864
92799SOL     OW80170  14.103  11.870   9.282
92799SOL    HW180171  14.116  11.814   9.205
92799SOL    HW280172  14.093  11.808   9.355
92800SOL     OW80173   9.419   3.549   9.926
92800SOL    HW180174   9.430   3.571  10.019
92800SOL    HW280175   9.331   3.511   9.921
92801SOL     OW80176   7.790   8.969   4.312
92801SOL    HW180177   7.717   9.012   4.267
92801SOL    HW280178   7.809   9.025   4.387
92802SOL     OW80179  11.490  10.807   8.147
92802SOL    HW180180  11.417  10.862   8.118
92802SOL    HW280181  11.488  10.813   8.242
92803SOL     OW80182   2.101   0.913  14.064
92803SOL    HW180183   2.081   1.001  14.033
92803SOL    HW280184   2.122   0.864  13.985
92804SOL     OW80185   6.774   7.789   3.328
92804SOL    HW180186   6.779   7.755   3.239
92804SOL    HW280187   6.858   7.766   3.367
92805SOL     OW80188   8.633  12.051  10.037
92805SOL    HW180189   8.633  12.093   9.951
92805SOL    HW280190   8.689  12.108  10.091
92806SOL     OW80191  11.804  11.435  14.686
92806SOL    HW180192  11.862  11.437  14.610
92806SOL    HW280193  11.725  11.480  14.656
92807SOL     OW80194   2.264   2.526   7.182
92807SOL    HW180195   2.171   2.547   7.171
92807SOL    HW280196   2.306   2.561   7.103
92808SOL     OW80197   0.435  14.729   9.379
92808SOL    HW180198   0.353  14.771   9.406
92808SOL    HW280199   0.504  14.788   9.410
92809SOL     OW80200   9.161  12.785   8.659
92809SOL    HW180201   9.233  12.746   8.608
92809SOL    HW280202   9.168  12.745   8.745
92810SOL     OW80203   8.538   4.470   2.185
92810SOL    HW180204   8.633   4.457   2.176
92810SOL    HW280205   8.500   4.388   2.155
92811SOL     OW80206   7.773   5.308   2.696
92811SOL    HW180207   7.684   5.310   2.731
92811SOL    HW280208   7.777   5.228   2.644
92812SOL     OW80209   7.287  13.002  12.504
92812SOL    HW180210   7.369  13.028  12.462
92812SOL    HW280211   7.231  12.972  12.431
92813SOL     OW80212   2.638  12.714   7.915
92813SOL    HW180213   2.560  12.658   7.918
92813SOL    HW280214   2.623  12.780   7.982
92814SOL     OW80215   7.979   4.777   9.760
92814SOL    HW180216   7.996   4.684   9.771
92814SOL    HW280217   8.032   4.803   9.684
92815SOL     OW80218  12.854  11.798  14.217
92815SOL    HW180219  12.818  11.848  14.144
92815SOL    HW280220  12.817  11.710  14.207
92816SOL     OW80221  13.809   3.779  11.093
92816SOL    HW180222  13.785   3.689  11.073
92816SOL    HW280223  13.853   3.774  11.178
92817SOL     OW80224   8.837   6.177   7.125
92817SOL    HW180225   8.873   6.092   7.098
92817SOL    HW280226   8.913   6.234   7.132
92818SOL     OW80227   3.245  10.681   0.697
92818SOL    HW180228   3.249  10.769   0.658
92818SOL    HW280229   3.332  10.644   0.680
92819SOL     OW80230   2.019   2.348   7.441
92819SOL    HW180231   2.114   2.337   7.449
92819SOL    HW280232   2.008   2.404   7.364
92820SOL     OW80233   9.068   8.254   2.505
92820SOL    HW180234   9.144   8.225   2.556
92820SOL    HW280235   9.095   8.245   2.414
92821SOL     OW80236   2.455   8.414  13.594
92821SOL    HW180237   2.540   8.387  13.558
92821SOL    HW280238   2.431   8.345  13.655
92822SOL     OW80239   6.899  10.086   8.840
92822SOL    HW180240   6.890  10.153   8.908
92822SOL    HW280241   6.815  10.040   8.841
92823SOL     OW80242  14.788   7.930   2.330
92823SOL    HW180243  14.867   7.938   2.384
92823SOL    HW280244  14.814   7.875   2.257
92824SOL     OW80245  10.889   5.288  13.312
92824SOL    HW180246  10.959   5.224  13.297
92824SOL    HW280247  10.903   5.317  13.402
92825SOL     OW80248  12.514   8.059   2.157
92825SOL    HW180249  12.539   8.092   2.071
92825SOL    HW280250  12.428   8.096   2.174
92826SOL     OW80251   9.197   0.212  14.486
92826SOL    HW180252   9.193   0.185  14.395
92826SOL    HW280253   9.284   0.185  14.515
92827SOL     OW80254  10.015  14.556  12.447
92827SOL    HW180255  10.089  14.540  12.388
92827SOL    HW280256   9.950  14.489  12.423
92828SOL     OW80257   0.502   8.446   3.511
92828SOL    HW180258   0.596   8.437   3.529
92828SOL    HW280259   0.489   8.539   3.496
92829SOL     OW80260   7.435  13.623   0.103
92829SOL    HW180261   7.459  13.712   0.131
92829SOL    HW280262   7.453  13.568   0.179
92830SOL     OW80263   8.291   3.462   9.567
92830SOL    HW180264   8.268   3.380   9.522
92830SOL    HW280265   8.343   3.434   9.642
92831SOL     OW80266   3.102   4.899  10.372
92831SOL    HW180267   3.032   4.922  10.310
92831SOL    HW280268   3.100   4.804  10.377
92832SOL     OW80269   5.993   5.524   4.434
92832SOL    HW180270   5.984   5.599   4.493
92832SOL    HW280271   5.910   5.519   4.388
92833SOL     OW80272  12.407   0.182   2.590
92833SOL    HW180273  12.415   0.214   2.500
92833SOL    HW280274  12.490   0.138   2.608
92834SOL     OW80275  11.047   7.993   2.399
92834SOL    HW180276  11.141   8.001   2.407
92834SOL    HW280277  11.013   8.081   2.414
92835SOL     OW80278   9.957   4.392   3.038
92835SOL    HW180279   9.876   4.411   3.085
92835SOL    HW280280   9.944   4.430   2.951
92836SOL     OW80281   0.585   9.650   8.118
92836SOL    HW180282   0.605   9.631   8.027
92836SOL    HW280283   0.671   9.654   8.161
92837SOL     OW80284  13.770   0.748   2.474
92837SOL    HW180285  13.736   0.682   2.534
92837SOL    HW280286  13.756   0.710   2.387
92838SOL     OW80287  12.530   7.698   8.124
92838SOL    HW180288  12.489   7.779   8.156
92838SOL    HW280289  12.461   7.632   8.132
92839SOL     OW80290   8.492   2.636  12.513
92839SOL    HW180291   8.440   2.713  12.490
92839SOL    HW280292   8.576   2.671  12.540
92840SOL     OW80293   7.132  11.754  11.351
92840SOL    HW180294   7.179  11.700  11.415
92840SOL    HW280295   7.150  11.713  11.267
92841SOL     OW80296   1.246   3.431   1.101
92841SOL    HW180297   1.277   3.498   1.161
92841SOL    HW280298   1.250   3.350   1.151
92842SOL     OW80299   4.880   8.910   8.502
92842SOL    HW180300   4.877   8.827   8.550
92842SOL    HW280301   4.834   8.892   8.420
92843SOL     OW80302   6.683   2.537   6.253
92843SOL    HW180303   6.733   2.574   6.181
92843SOL    HW280304   6.626   2.472   6.212
92844SOL     OW80305   4.447  10.521   8.887
92844SOL    HW180306   4.503  10.518   8.965
92844SOL    HW280307   4.359  10.504   8.921
92845SOL     OW80308   9.100   3.498   0.935
92845SOL    HW180309   9.006   3.491   0.949
92845SOL    HW280310   9.112   3.474   0.843
92846SOL     OW80311   9.486  12.197   4.338
92846SOL    HW180312   9.546  12.176   4.409
92846SOL    HW280313   9.399  12.181   4.374
92847SOL     OW80314   9.164   5.284   8.527
92847SOL    HW180315   9.082   5.236   8.535
92847SOL    HW280316   9.174   5.330   8.610
92848SOL     OW80317   2.804  13.148   8.898
92848SOL    HW180318   2.833  13.083   8.834
92848SOL    HW280319   2.876  13.152   8.962
92849SOL     OW80320  13.210   4.595   1.894
92849SOL    HW180321  13.209   4.572   1.987
92849SOL    HW280322  13.121   4.628   1.877
92850SOL     OW80323   6.707   8.104  12.167
92850SOL    HW180324   6.656   8.044  12.113
92850SOL    HW280325   6.764   8.150  12.105
92851SOL     OW80326   1.569   2.927  10.292
92851SOL    HW180327   1.587   2.984  10.367
92851SOL    HW280328   1.479   2.896  10.306
92852SOL     OW80329  12.793   1.199   9.362
92852SOL    HW180330  12.780   1.225   9.453
92852SOL    HW280331  12.745   1.117   9.354
92853SOL     OW80332  12.576  14.859   9.316
92853SOL    HW180333  12.508   0.035   9.351
92853SOL    HW280334  12.580  14.881   9.223
92854SOL     OW80335   9.612  11.906   9.192
92854SOL    HW180336   9.596  11.960   9.114
92854SOL    HW280337   9.705  11.917   9.210
92855SOL     OW80338  12.284   8.595   6.760
92855SOL    HW180339  12.375   8.589   6.730
92855SOL    HW280340  12.260   8.505   6.781
92856SOL     OW80341   7.173   7.177   8.780
92856SOL    HW180342   7.098   7.128   8.814
92856SOL    HW280343   7.249   7.133   8.815
92857SOL     OW80344  14.770   9.681   7.291
92857SOL    HW180345  14.706   9.752   7.301
92857SOL    HW280346  14.853   9.726   7.272
92858SOL     OW80347  13.043   0.187   5.481
92858SOL    HW180348  12.974   0.122   5.465
92858SOL    HW280349  13.117   0.157   5.429
92859SOL     OW80350   7.894  12.520   7.331
92859SOL    HW180351   7.902  12.615   7.344
92859SOL    HW280352   7.968  12.497   7.274
92860SOL     OW80353   7.698  12.248   0.984
92860SOL    HW180354   7.616  12.276   1.025
92860SOL    HW280355   7.722  12.321   0.927
92861SOL     OW80356   0.389  10.807  14.423
92861SOL    HW180357   0.456  10.863  14.383
92861SOL    HW280358   0.361  10.749  14.352
92862SOL     OW80359   5.657  14.275   5.018
92862SOL    HW180360   5.679  14.199   4.965
92862SOL    HW280361   5.706  14.347   4.978
92863SOL     OW80362  11.904   0.447   7.040
92863SOL    HW180363  11.827   0.405   7.000
92863SOL    HW280364  11.977   0.418   6.985
92864SOL     OW80365   8.503   6.298  14.164
92864SOL    HW180366   8.542   6.237  14.226
92864SOL    HW280367   8.540   6.383  14.187
92865SOL     OW80368   0.256   6.424   2.640
92865SOL    HW180369   0.210   6.436   2.557
92865SOL    HW280370   0.349   6.432   2.618
92866SOL     OW80371   9.254  13.743  13.071
92866SOL    HW180372   9.258  13.776  13.161
92866SOL    HW280373   9.318  13.796  13.023
92867SOL     OW80374  12.711   4.534   2.475
92867SOL    HW180375  12.770   4.583   2.532
92867SOL    HW280376  12.639   4.595   2.457
92868SOL     OW80377  13.672   1.211   1.003
92868SOL    HW180378  13.663   1.279   0.936
92868SOL    HW280379  13.587   1.167   1.004
92869SOL     OW80380  11.202   4.398   6.456
92869SOL    HW180381  11.171   4.308   6.459
92869SOL    HW280382  11.231   4.417   6.545
92870SOL     OW80383  12.207  12.266  14.559
92870SOL    HW180384  12.160  12.305  14.634
92870SOL    HW280385  12.287  12.231  14.597
92871SOL     OW80386   9.688   1.779   1.544
92871SOL    HW180387   9.732   1.824   1.473
92871SOL    HW280388   9.733   1.809   1.623
92872SOL     OW80389   2.628  10.889  11.739
92872SOL    HW180390   2.660  10.904  11.828
92872SOL    HW280391   2.654  10.799  11.719
92873SOL     OW80392   0.957   6.458   6.765
92873SOL    HW180393   0.979   6.546   6.737
92873SOL    HW280394   1.039   6.421   6.798
92874SOL     OW80395   0.431   9.888   0.766
92874SOL    HW180396   0.438   9.936   0.683
92874SOL    HW280397   0.346   9.914   0.802
92875SOL     OW80398   2.865  12.097  12.257
92875SOL    HW180399   2.866  12.007  12.224
92875SOL    HW280400   2.802  12.095  12.329
92876SOL     OW80401  12.758   1.516   1.647
92876SOL    HW180402  12.723   1.522   1.558
92876SOL    HW280403  12.709   1.581   1.697
92877SOL     OW80404  12.170   4.591   0.564
92877SOL    HW180405  12.229   4.533   0.612
92877SOL    HW280406  12.190   4.576   0.472
92878SOL     OW80407  13.513  13.046   3.913
92878SOL    HW180408  13.463  13.118   3.875
92878SOL    HW280409  13.513  13.064   4.007
92879SOL     OW80410   3.952   1.456  11.364
92879SOL    HW180411   4.041   1.420  11.364
92879SOL    HW280412   3.896   1.384  11.392
92880SOL     OW80413  10.634  12.760   9.041
92880SOL    HW180414  10.612  12.670   9.064
92880SOL    HW280415  10.551  12.799   9.015
92881SOL     OW80416   5.570  12.157   5.058
92881SOL    HW180417   5.501  12.194   5.003
92881SOL    HW280418   5.638  12.225   5.059
92882SOL     OW80419   2.613   1.822  11.873
92882SOL    HW180420   2.629   1.823  11.779
92882SOL    HW280421   2.696   1.794  11.911
92883SOL     OW80422   0.410   1.381   5.120
92883SOL    HW180423   0.365   1.367   5.036
92883SOL    HW280424   0.450   1.296   5.139
92884SOL     OW80425   0.118  13.075   6.706
92884SOL    HW180426   0.153  13.164   6.708
92884SOL    HW280427   0.163  13.029   6.777
92885SOL     OW80428  14.413   7.654  14.585
92885SOL    HW180429  14.373   7.656  14.672
92885SOL    HW280430  14.342   7.679  14.526
92886SOL     OW80431   2.435   2.521  12.843
92886SOL    HW180432   2.372   2.451  12.859
92886SOL    HW280433   2.514   2.475  12.813
92887SOL     OW80434   3.361   4.854   6.886
92887SOL    HW180435   3.365   4.762   6.913
92887SOL    HW280436   3.274   4.883   6.913
92888SOL     OW80437   4.638   7.019   8.780
92888SOL    HW180438   4.699   6.975   8.838
92888SOL    HW280439   4.602   7.090   8.832
92889SOL     OW80440   2.199   8.154   4.231
92889SOL    HW180441   2.243   8.137   4.147
92889SOL    HW280442   2.105   8.151   4.210
92890SOL     OW80443   8.044   2.882  13.017
92890SOL    HW180444   8.055   2.798  12.972
92890SOL    HW280445   8.097   2.943  12.966
92891SOL     OW80446   8.915   3.215  11.016
92891SOL    HW180447   8.849   3.284  11.021
92891SOL    HW280448   8.891   3.165  10.938
92892SOL     OW80449   6.252  11.946   9.164
92892SOL    HW180450   6.339  11.928   9.198
92892SOL    HW280451   6.207  11.990   9.237
92893SOL     OW80452  11.997  13.065   8.160
92893SOL    HW180453  11.905  13.077   8.138
92893SOL    HW280454  12.017  13.137   8.220
92894SOL     OW80455  11.010  14.716  14.620
92894SOL    HW180456  10.961  14.649  14.668
92894SOL    HW280457  11.073  14.749  14.684
92895SOL     OW80458   3.072   5.978  10.577
92895SOL    HW180459   3.162   5.997  10.552
92895SOL    HW280460   3.019   6.037  10.522
92896SOL     OW80461   2.873   1.374   1.527
92896SOL    HW180462   2.958   1.335   1.508
92896SOL    HW280463   2.836   1.394   1.441
92897SOL     OW80464   4.299   0.823  12.289
92897SOL    HW180465   4.352   0.850  12.215
92897SOL    HW280466   4.360   0.780  12.348
92898SOL     OW80467   2.569   0.371   7.169
92898SOL    HW180468   2.548   0.318   7.092
92898SOL    HW280469   2.621   0.313   7.225
92899SOL     OW80470   9.880   8.666   8.853
92899SOL    HW180471   9.882   8.758   8.879
92899SOL    HW280472   9.832   8.666   8.770
92900SOL     OW80473  10.245  12.429   9.752
92900SOL    HW180474  10.294  12.347   9.751
92900SOL    HW280475  10.153  12.402   9.758
92901SOL     OW80476   2.814  14.386  10.715
92901SOL    HW180477   2.802  14.480  10.730
92901SOL    HW280478   2.793  14.346  10.799
92902SOL     OW80479   3.227   7.421  11.818
92902SOL    HW180480   3.206   7.375  11.899
92902SOL    HW280481   3.274   7.356  11.765
92903SOL     OW80482   6.389   5.244   7.052
92903SOL    HW180483   6.364   5.171   6.995
92903SOL    HW280484   6.481   5.227   7.072
92904SOL     OW80485  13.369   4.560   0.714
92904SOL    HW180486  13.354   4.611   0.634
92904SOL    HW280487  13.364   4.469   0.686
92905SOL     OW80488   1.952  14.631  12.526
92905SOL    HW180489   1.906  14.619  12.443
92905SOL    HW280490   1.927  14.719  12.555
92906SOL     OW80491  12.399   2.093  13.222
92906SOL    HW180492  12.423   2.005  13.248
92906SOL    HW280493  12.303   2.095  13.228
92907SOL     OW80494   0.450   1.667   7.700
92907SOL    HW180495   0.414   1.602   7.640
92907SOL    HW280496   0.473   1.618   7.778
92908SOL     OW80497   0.187   0.766   2.629
92908SOL    HW180498   0.092   0.756   2.624
92908SOL    HW280499   0.202   0.860   2.617
92909SOL     OW80500  12.278   3.228   0.332
92909SOL    HW180501  12.330   3.148   0.319
92909SOL    HW280502  12.282   3.274   0.248
92910SOL     OW80503   6.050  14.480   4.479
92910SOL    HW180504   6.067  14.444   4.392
92910SOL    HW280505   6.122  14.447   4.533
92911SOL     OW80506  11.088  13.033   0.699
92911SOL    HW180507  11.078  12.951   0.651
92911SOL    HW280508  11.129  13.092   0.635
92912SOL     OW80509   7.071   1.162   9.919
92912SOL    HW180510   7.082   1.255   9.900
92912SOL    HW280511   6.981   1.154   9.950
92913SOL     OW80512  10.637   8.681  14.324
92913SOL    HW180513  10.719   8.712  14.285
92913SOL    HW280514  10.650   8.690  14.418
92914SOL     OW80515   2.291   8.441  12.422
92914SOL    HW180516   2.268   8.527  12.386
92914SOL    HW280517   2.225   8.424  12.490
92915SOL     OW80518  12.621  13.584  11.382
92915SOL    HW180519  12.565  13.518  11.421
92915SOL    HW280520  12.564  13.635  11.325
92916SOL     OW80521   9.076  11.625  10.754
92916SOL    HW180522   9.087  11.705  10.806
92916SOL    HW280523   9.016  11.650  10.684
92917SOL     OW80524   6.949   0.847   9.355
92917SOL    HW180525   6.913   0.895   9.280
92917SOL    HW280526   6.944   0.909   9.428
92918SOL     OW80527   9.118   7.107   9.608
92918SOL    HW180528   9.072   7.025   9.628
92918SOL    HW280529   9.060   7.153   9.548
92919SOL     OW80530   1.780   5.993   0.612
92919SOL    HW180531   1.793   6.012   0.705
92919SOL    HW280532   1.784   5.897   0.606
92920SOL     OW80533  10.419  12.163   8.759
92920SOL    HW180534  10.406  12.081   8.807
92920SOL    HW280535  10.366  12.228   8.806
92921SOL     OW80536  11.923  13.252   8.391
92921SOL    HW180537  11.851  13.286   8.444
92921SOL    HW280538  11.940  13.320   8.325
92922SOL     OW80539  11.908   4.477  13.595
92922SOL    HW180540  11.822   4.485  13.636
92922SOL    HW280541  11.890   4.450  13.505
92923SOL     OW80542   9.235   4.283   7.895
92923SOL    HW180543   9.315   4.303   7.942
92923SOL    HW280544   9.265   4.254   7.808
92924SOL     OW80545   8.165   4.497  10.010
92924SOL    HW180546   8.116   4.438   9.953
92924SOL    HW280547   8.233   4.534   9.953
92925SOL     OW80548  10.064   3.577  12.309
92925SOL    HW180549  10.023   3.500  12.268
92925SOL    HW280550  10.153   3.548  12.329
92926SOL     OW80551   7.384  12.444   5.846
92926SOL    HW180552   7.398  12.361   5.892
92926SOL    HW280553   7.394  12.423   5.754
92927SOL     OW80554   0.930   4.573   9.938
92927SOL    HW180555   0.994   4.526   9.991
92927SOL    HW280556   0.896   4.508   9.877
92928SOL     OW80557   6.306   7.985  12.342
92928SOL    HW180558   6.367   7.966  12.271
92928SOL    HW280559   6.361   8.017  12.413
92929SOL     OW80560  11.356   3.604  14.660
92929SOL    HW180561  11.317   3.535  14.713
92929SOL    HW280562  11.350   3.571  14.570
92930SOL     OW80563   0.867  11.641   6.022
92930SOL    HW180564   0.942  11.582   6.020
92930SOL    HW280565   0.845  11.656   5.931
92931SOL     OW80566  11.438  10.715  10.426
92931SOL    HW180567  11.442  10.802  10.385
92931SOL    HW280568  11.529  10.685  10.429
92932SOL     OW80569  14.542  12.933   8.802
92932SOL    HW180570  14.587  12.958   8.720
92932SOL    HW280571  14.570  12.843   8.817
92933SOL     OW80572  13.952   3.636   0.903
92933SOL    HW180573  13.867   3.595   0.915
92933SOL    HW280574  13.994   3.585   0.833
92934SOL     OW80575   0.740   1.176   3.250
92934SOL    HW180576   0.780   1.090   3.239
92934SOL    HW280577   0.756   1.199   3.341
92935SOL     OW80578  11.730  12.568   7.855
92935SOL    HW180579  11.785  12.548   7.931
92935SOL    HW280580  11.721  12.664   7.857
92936SOL     OW80581   7.844  11.487   4.609
92936SOL    HW180582   7.938  11.492   4.588
92936SOL    HW280583   7.842  11.454   4.699
92937SOL     OW80584   3.683   8.833   3.437
92937SOL    HW180585   3.749   8.901   3.450
92937SOL    HW280586   3.733   8.751   3.434
92938SOL     OW80587  14.666  10.603   2.927
92938SOL    HW180588  14.668  10.672   2.993
92938SOL    HW280589  14.616  10.532   2.968
92939SOL     OW80590   4.361  14.380   9.428
92939SOL    HW180591   4.366  14.371   9.523
92939SOL    HW280592   4.424  14.449   9.406
92940SOL     OW80593  10.786   6.484   7.706
92940SOL    HW180594  10.815   6.542   7.636
92940SOL    HW280595  10.867   6.461   7.752
92941SOL     OW80596  13.857   3.357  12.619
92941SOL    HW180597  13.870   3.287  12.683
92941SOL    HW280598  13.946   3.383  12.594
92942SOL     OW80599   7.019   9.753   8.457
92942SOL    HW180600   6.991   9.776   8.368
92942SOL    HW280601   7.110   9.726   8.447
92943SOL     OW80602  12.063   2.715   8.647
92943SOL    HW180603  12.051   2.717   8.742
92943SOL    HW280604  11.996   2.774   8.613
92944SOL     OW80605   1.709   6.749  14.220
92944SOL    HW180606   1.672   6.821  14.271
92944SOL    HW280607   1.705   6.781  14.129
92945SOL     OW80608  14.726   2.330  12.456
92945SOL    HW180609  14.715   2.424  12.467
92945SOL    HW280610  14.783   2.321  12.380
92946SOL     OW80611   6.782   8.977   6.779
92946SOL    HW180612   6.826   8.892   6.783
92946SOL    HW280613   6.750   8.993   6.867
92947SOL     OW80614   6.673   6.263  11.606
92947SOL    HW180615   6.669   6.357  11.626
92947SOL    HW280616   6.636   6.255  11.518
92948SOL     OW80617  11.850   3.404   4.887
92948SOL    HW180618  11.755   3.409   4.878
92948SOL    HW280619  11.865   3.320   4.930
92949SOL     OW80620   6.237   1.303   0.832
92949SOL    HW180621   6.302   1.237   0.808
92949SOL    HW280622   6.153   1.261   0.815
92950SOL     OW80623  11.440  10.344   3.102
92950SOL    HW180624  11.361  10.364   3.052
92950SOL    HW280625  11.457  10.252   3.084
92951SOL     OW80626   4.370   5.584  13.879
92951SOL    HW180627   4.430   5.634  13.823
92951SOL    HW280628   4.366   5.635  13.960
92952SOL     OW80629  11.250   6.257  13.560
92952SOL    HW180630  11.330   6.242  13.510
92952SOL    HW280631  11.211   6.335  13.519
92953SOL     OW80632   3.794  13.187  12.109
92953SOL    HW180633   3.798  13.125  12.037
92953SOL    HW280634   3.786  13.273  12.066
92954SOL     OW80635  11.641   8.508   5.027
92954SOL    HW180636  11.687   8.577   4.979
92954SOL    HW280637  11.689   8.428   5.006
92955SOL     OW80638  10.713   2.666  14.225
92955SOL    HW180639  10.617   2.667  14.223
92955SOL    HW280640  10.738   2.628  14.141
92956SOL     OW80641   9.464   0.780   9.498
92956SOL    HW180642   9.422   0.743   9.576
92956SOL    HW280643   9.551   0.739   9.497
92957SOL     OW80644  11.984  14.152  10.939
92957SOL    HW180645  12.001  14.174  10.847
92957SOL    HW280646  11.983  14.237  10.983
92958SOL     OW80647   2.045  11.193  13.636
92958SOL    HW180648   2.068  11.284  13.618
92958SOL    HW280649   2.119  11.159  13.686
92959SOL     OW80650   9.796   1.692   3.258
92959SOL    HW180651   9.816   1.619   3.316
92959SOL    HW280652   9.703   1.710   3.273
92960SOL     OW80653   2.202   6.952  11.389
92960SOL    HW180654   2.126   6.996  11.351
92960SOL    HW280655   2.234   7.015  11.454
92961SOL     OW80656  10.485   8.685   2.579
92961SOL    HW180657  10.545   8.736   2.634
92961SOL    HW280658  10.532   8.604   2.560
92962SOL     OW80659  13.494   3.060  14.402
92962SOL    HW180660  13.573   3.038  14.353
92962SOL    HW280661  13.437   3.103  14.337
92963SOL     OW80662  13.626  14.670  13.288
92963SOL    HW180663  13.669  14.602  13.235
92963SOL    HW280664  13.533  14.647  13.285
92964SOL     OW80665   2.618   5.368   8.671
92964SOL    HW180666   2.615   5.451   8.718
92964SOL    HW280667   2.585   5.387   8.584
92965SOL     OW80668   8.240  11.403   4.268
92965SOL    HW180669   8.265  11.494   4.281
92965SOL    HW280670   8.320  11.353   4.284
92966SOL     OW80671  12.439   4.145   8.635
92966SOL    HW180672  12.503   4.138   8.564
92966SOL    HW280673  12.405   4.057   8.647
92967SOL     OW80674   0.535  12.609   1.602
92967SOL    HW180675   0.503  12.585   1.515
92967SOL    HW280676   0.599  12.541   1.623
92968SOL     OW80677  14.414  11.115   8.059
92968SOL    HW180678  14.486  11.176   8.077
92968SOL    HW280679  14.458  11.031   8.043
92969SOL     OW80680   7.477   5.742   8.259
92969SOL    HW180681   7.410   5.801   8.293
92969SOL    HW280682   7.457   5.657   8.299
92970SOL     OW80683   2.889  12.506  14.282
92970SOL    HW180684   2.929  12.447  14.347
92970SOL    HW280685   2.903  12.463  14.198
92971SOL     OW80686   8.011   8.433   9.718
92971SOL    HW180687   7.977   8.413   9.805
92971SOL    HW280688   8.025   8.528   9.718
92972SOL     OW80689  13.043   9.072   8.721
92972SOL    HW180690  13.067   9.003   8.783
92972SOL    HW280691  12.999   9.139   8.774
92973SOL     OW80692   2.043  11.703   5.823
92973SOL    HW180693   2.121  11.741   5.782
92973SOL    HW280694   1.994  11.665   5.751
92974SOL     OW80695  10.771  13.734   3.328
92974SOL    HW180696  10.724  13.679   3.390
92974SOL    HW280697  10.703  13.792   3.293
92975SOL     OW80698   1.210   4.514   8.395
92975SOL    HW180699   1.172   4.569   8.463
92975SOL    HW280700   1.135   4.477   8.350
92976SOL     OW80701  11.826   0.043   3.431
92976SOL    HW180702  11.741   0.088   3.436
92976SOL    HW280703  11.827  14.865   3.506
92977SOL     OW80704   2.577  11.154  11.113
92977SOL    HW180705   2.496  11.200  11.090
92977SOL    HW280706   2.559  11.062  11.093
92978SOL     OW80707   5.081  14.718   8.189
92978SOL    HW180708   5.135  14.648   8.226
92978SOL    HW280709   5.124  14.739   8.105
92979SOL     OW80710  12.663   3.689   2.869
92979SOL    HW180711  12.569   3.677   2.881
92979SOL    HW280712  12.702   3.612   2.911
92980SOL     OW80713   3.917   1.913   5.595
92980SOL    HW180714   3.940   1.953   5.679
92980SOL    HW280715   3.834   1.868   5.612
92981SOL     OW80716   1.856   1.047   0.998
92981SOL    HW180717   1.911   1.109   1.045
92981SOL    HW280718   1.890   1.047   0.909
92982SOL     OW80719  14.332   7.760   5.683
92982SOL    HW180720  14.349   7.676   5.641
92982SOL    HW280721  14.401   7.767   5.750
92983SOL     OW80722   6.727   9.326   2.510
92983SOL    HW180723   6.821   9.340   2.513
92983SOL    HW280724   6.715   9.233   2.528
92984SOL     OW80725   1.388   1.445   9.490
92984SOL    HW180726   1.470   1.403   9.462
92984SOL    HW280727   1.405   1.473   9.580
92985SOL     OW80728  14.567   5.600   1.277
92985SOL    HW180729  14.504   5.626   1.345
92985SOL    HW280730  14.631   5.672   1.275
92986SOL     OW80731  12.712   0.688   5.220
92986SOL    HW180732  12.681   0.741   5.147
92986SOL    HW280733  12.664   0.720   5.296
92987SOL     OW80734   3.176   9.593   4.355
92987SOL    HW180735   3.204   9.600   4.264
92987SOL    HW280736   3.256   9.604   4.406
92988SOL     OW80737  12.539  14.279  12.319
92988SOL    HW180738  12.594  14.297  12.242
92988SOL    HW280739  12.502  14.193  12.302
92989SOL     OW80740  12.663  12.611   5.304
92989SOL    HW180741  12.626  12.699   5.308
92989SOL    HW280742  12.721  12.613   5.228
92990SOL     OW80743   1.977   4.156   6.305
92990SOL    HW180744   2.026   4.079   6.335
92990SOL    HW280745   1.885   4.133   6.320
92991SOL     OW80746  12.674  10.505   6.985
92991SOL    HW180747  12.705  10.555   6.909
92991SOL    HW280748  12.589  10.470   6.957
92992SOL     OW80749   6.143  12.644   5.650
92992SOL    HW180750   6.186  12.666   5.568
92992SOL    HW280751   6.207  12.589   5.697
92993SOL     OW80752   0.103   0.897   6.236
92993SOL    HW180753   0.133   0.865   6.322
92993SOL    HW280754   0.169   0.867   6.175
92994SOL     OW80755   4.283   0.479  12.044
92994SOL    HW180756   4.290   0.384  12.055
92994SOL    HW280757   4.363   0.513  12.083
92995SOL     OW80758  11.243   1.467   4.673
92995SOL    HW180759  11.235   1.558   4.644
92995SOL    HW280760  11.157   1.447   4.711
92996SOL     OW80761   3.996   1.114   7.929
92996SOL    HW180762   4.090   1.129   7.919
92996SOL    HW280763   3.980   1.033   7.880
92997SOL     OW80764   0.446   9.409   2.045
92997SOL    HW180765   0.359   9.384   2.077
92997SOL    HW280766   0.444   9.504   2.044
92998SOL     OW80767   3.845  14.225   6.775
92998SOL    HW180768   3.823  14.243   6.684
92998SOL    HW280769   3.770  14.176   6.809
92999SOL     OW80770   1.776  14.864   5.076
92999SOL    HW180771   1.790  14.815   5.157
92999SOL    HW280772   1.838  14.825   5.014
93000SOL     OW80773   9.955  10.803  14.777
93000SOL    HW180774   9.886  10.866  14.800
93000SOL    HW280775   9.977  10.824  14.686
93001SOL     OW80776   7.355   1.737   6.432
93001SOL    HW180777   7.309   1.656   6.410
93001SOL    HW280778   7.446   1.710   6.446
93002SOL     OW80779  10.599   1.706   8.150
93002SOL    HW180780  10.610   1.796   8.181
93002SOL    HW280781  10.624   1.651   8.225
93003SOL     OW80782   9.768   4.221  10.305
93003SOL    HW180783   9.761   4.213  10.400
93003SOL    HW280784   9.703   4.159  10.271
93004SOL     OW80785   5.198   3.531  10.732
93004SOL    HW180786   5.146   3.469  10.682
93004SOL    HW280787   5.288   3.512  10.707
93005SOL     OW80788  13.233   5.330  10.991
93005SOL    HW180789  13.305   5.348  10.930
93005SOL    HW280790  13.270   5.351  11.077
93006SOL     OW80791   5.765   5.336   0.709
93006SOL    HW180792   5.824   5.261   0.697
93006SOL    HW280793   5.678   5.300   0.694
93007SOL     OW80794  14.062   0.470   7.089
93007SOL    HW180795  14.057   0.561   7.119
93007SOL    HW280796  14.148   0.439   7.117
93008SOL     OW80797   8.134  10.297   9.869
93008SOL    HW180798   8.192  10.240   9.819
93008SOL    HW280799   8.175  10.305   9.955
93009SOL     OW80800   1.511   7.168   4.579
93009SOL    HW180801   1.504   7.073   4.565
93009SOL    HW280802   1.504   7.179   4.673
93010SOL     OW80803   1.228   6.354   4.552
93010SOL    HW180804   1.302   6.294   4.567
93010SOL    HW280805   1.195   6.373   4.639
93011SOL     OW80806  11.241   5.367   0.388
93011SOL    HW180807  11.318   5.346   0.336
93011SOL    HW280808  11.170   5.375   0.325
93012SOL     OW80809   7.080  10.830   6.314
93012SOL    HW180810   7.041  10.916   6.297
93012SOL    HW280811   7.008  10.769   6.298
93013SOL     OW80812   4.029   0.995  10.792
93013SOL    HW180813   4.050   0.999  10.886
93013SOL    HW280814   4.079   0.920  10.759
93014SOL     OW80815  14.364   5.589  12.898
93014SOL    HW180816  14.306   5.661  12.923
93014SOL    HW280817  14.380   5.541  12.979
93015SOL     OW80818   8.253   5.791  14.422
93015SOL    HW180819   8.224   5.754  14.338
93015SOL    HW280820   8.338   5.750  14.438
93016SOL     OW80821  12.417  11.316  13.892
93016SOL    HW180822  12.356  11.242  13.894
93016SOL    HW280823  12.385  11.372  13.821
93017SOL     OW80824  11.127   3.251  10.389
93017SOL    HW180825  11.154   3.245  10.298
93017SOL    HW280826  11.166   3.174  10.431
93018SOL     OW80827  13.836  11.582   6.615
93018SOL    HW180828  13.769  11.570   6.683
93018SOL    HW280829  13.809  11.524   6.544
93019SOL     OW80830   3.660   2.042  10.394
93019SOL    HW180831   3.656   1.951  10.423
93019SOL    HW280832   3.689   2.036  10.303
93020SOL     OW80833  11.403   5.871   3.934
93020SOL    HW180834  11.489   5.838   3.959
93020SOL    HW280835  11.383   5.938   3.999
93021SOL     OW80836   7.547   9.142  14.035
93021SOL    HW180837   7.601   9.063  14.024
93021SOL    HW280838   7.514   9.136  14.124
93022SOL     OW80839  13.811   3.540  12.997
93022SOL    HW180840  13.797   3.629  12.966
93022SOL    HW280841  13.826   3.548  13.091
93023SOL     OW80842   1.659  10.332  14.694
93023SOL    HW180843   1.689  10.414  14.654
93023SOL    HW280844   1.626  10.358  14.780
93024SOL     OW80845  12.190   4.256  10.214
93024SOL    HW180846  12.116   4.223  10.265
93024SOL    HW280847  12.267   4.237  10.267
93025SOL     OW80848  12.887   3.501   5.946
93025SOL    HW180849  12.857   3.434   6.007
93025SOL    HW280850  12.879   3.583   5.994
93026SOL     OW80851  14.239  12.293   2.361
93026SOL    HW180852  14.286  12.286   2.278
93026SOL    HW280853  14.244  12.385   2.385
93027SOL     OW80854   2.914  14.150  13.769
93027SOL    HW180855   2.899  14.083  13.703
93027SOL    HW280856   3.008  14.168  13.765
93028SOL     OW80857   6.444   3.589   4.086
93028SOL    HW180858   6.414   3.570   3.997
93028SOL    HW280859   6.364   3.583   4.139
93029SOL     OW80860   9.148   3.490   8.557
93029SOL    HW180861   9.137   3.551   8.484
93029SOL    HW280862   9.243   3.480   8.566
93030SOL     OW80863   7.520  11.892  13.166
93030SOL    HW180864   7.486  11.808  13.137
93030SOL    HW280865   7.573  11.872  13.243
93031SOL     OW80866   6.180  14.579  14.141
93031SOL    HW180867   6.108  14.613  14.089
93031SOL    HW280868   6.144  14.503  14.187
93032SOL     OW80869   2.406   3.260   3.863
93032SOL    HW180870   2.332   3.296   3.814
93032SOL    HW280871   2.431   3.330   3.923
93033SOL     OW80872   0.643  10.679   6.105
93033SOL    HW180873   0.614  10.647   6.191
93033SOL    HW280874   0.709  10.745   6.126
93034SOL     OW80875   5.371   2.421   7.427
93034SOL    HW180876   5.296   2.457   7.475
93034SOL    HW280877   5.332   2.366   7.359
93035SOL     OW80878  13.384  13.906   3.472
93035SOL    HW180879  13.408  13.856   3.550
93035SOL    HW280880  13.359  13.992   3.506
93036SOL     OW80881  13.339   5.167   6.084
93036SOL    HW180882  13.395   5.158   6.162
93036SOL    HW280883  13.383   5.234   6.031
93037SOL     OW80884   8.333   9.062  10.373
93037SOL    HW180885   8.328   8.995  10.440
93037SOL    HW280886   8.245   9.065  10.335
93038SOL     OW80887  14.473   6.869   1.831
93038SOL    HW180888  14.427   6.808   1.773
93038SOL    HW280889  14.452   6.839   1.919
93039SOL     OW80890   2.088  13.024   2.255
93039SOL    HW180891   2.140  13.036   2.176
93039SOL    HW280892   2.142  12.967   2.310
93040SOL     OW80893  13.981  11.804  10.311
93040SOL    HW180894  13.987  11.725  10.256
93040SOL    HW280895  14.042  11.866  10.270
93041SOL     OW80896   5.470  13.393   4.979
93041SOL    HW180897   5.528  13.396   5.054
93041SOL    HW280898   5.382  13.386   5.017
93042SOL     OW80899   9.402   1.928   2.771
93042SOL    HW180900   9.398   2.000   2.835
93042SOL    HW280901   9.356   1.962   2.694
93043SOL     OW80902  12.423   8.659  13.763
93043SOL    HW180903  12.430   8.705  13.846
93043SOL    HW280904  12.353   8.595  13.777
93044SOL     OW80905   9.209   6.675   7.568
93044SOL    HW180906   9.139   6.616   7.596
93044SOL    HW280907   9.256   6.627   7.500
93045SOL     OW80908   7.598   3.863  11.949
93045SOL    HW180909   7.654   3.907  11.885
93045SOL    HW280910   7.658   3.809  12.000
93046SOL     OW80911  11.905  11.871   4.455
93046SOL    HW180912  11.881  11.947   4.402
93046SOL    HW280913  11.895  11.797   4.396
93047SOL     OW80914  14.014   6.915  14.500
93047SOL    HW180915  14.090   6.858  14.511
93047SOL    HW280916  13.996   6.913  14.406
93048SOL     OW80917   2.798   9.838   0.920
93048SOL    HW180918   2.798   9.928   0.953
93048SOL    HW280919   2.801   9.784   1.000
93049SOL     OW80920   7.301   9.042  12.406
93049SOL    HW180921   7.364   9.002  12.466
93049SOL    HW280922   7.217   9.003  12.429
93050SOL     OW80923   8.705  10.313   5.434
93050SOL    HW180924   8.747  10.285   5.352
93050SOL    HW280925   8.653  10.237   5.460
93051SOL     OW80926   7.408  12.223   7.223
93051SOL    HW180927   7.418  12.150   7.284
93051SOL    HW280928   7.480  12.283   7.246
93052SOL     OW80929  14.212   9.329   8.243
93052SOL    HW180930  14.306   9.344   8.254
93052SOL    HW280931  14.172   9.376   8.316
93053SOL     OW80932   5.182   9.297   1.210
93053SOL    HW180933   5.229   9.368   1.254
93053SOL    HW280934   5.248   9.253   1.157
93054SOL     OW80935  10.248  12.620  10.661
93054SOL    HW180936  10.307  12.695  10.654
93054SOL    HW280937  10.220  12.602  10.571
93055SOL     OW80938   3.272   6.900  13.167
93055SOL    HW180939   3.299   6.875  13.079
93055SOL    HW280940   3.197   6.843  13.186
93056SOL     OW80941   7.967   7.186   4.775
93056SOL    HW180942   8.031   7.255   4.793
93056SOL    HW280943   8.011   7.128   4.713
93057SOL     OW80944   3.761   7.300   3.888
93057SOL    HW180945   3.784   7.392   3.899
93057SOL    HW280946   3.846   7.255   3.886
93058SOL     OW80947  12.728  10.296   8.144
93058SOL    HW180948  12.814  10.340   8.142
93058SOL    HW280949  12.676  10.348   8.204
93059SOL     OW80950   3.826   3.254  11.846
93059SOL    HW180951   3.818   3.217  11.934
93059SOL    HW280952   3.781   3.191  11.790
93060SOL     OW80953   3.006   9.343  14.809
93060SOL    HW180954   2.983   9.342   0.021
93060SOL    HW280955   3.088   9.392  14.806
93061SOL     OW80956   1.233   5.966   8.060
93061SOL    HW180957   1.210   5.881   8.024
93061SOL    HW280958   1.180   5.975   8.139
93062SOL     OW80959   1.773   6.000   9.095
93062SOL    HW180960   1.762   5.983   9.002
93062SOL    HW280961   1.791   5.915   9.134
93063SOL     OW80962   2.266   8.902  14.451
93063SOL    HW180963   2.212   8.823  14.451
93063SOL    HW280964   2.335   8.884  14.516
93064SOL     OW80965  14.038   2.244  11.716
93064SOL    HW180966  14.091   2.165  11.720
93064SOL    HW280967  14.011   2.260  11.806
93065SOL     OW80968   6.124   7.116   5.177
93065SOL    HW180969   6.179   7.057   5.126
93065SOL    HW280970   6.060   7.058   5.220
93066SOL     OW80971   1.345   3.240   2.618
93066SOL    HW180972   1.321   3.228   2.527
93066SOL    HW280973   1.431   3.201   2.626
93067SOL     OW80974  12.249  12.864  12.537
93067SOL    HW180975  12.272  12.781  12.495
93067SOL    HW280976  12.153  12.868  12.532
93068SOL     OW80977   7.237   4.919   5.400
93068SOL    HW180978   7.197   4.852   5.455
93068SOL    HW280979   7.191   5.000   5.421
93069SOL     OW80980   2.543   8.318   4.976
93069SOL    HW180981   2.627   8.297   4.936
93069SOL    HW280982   2.554   8.408   5.009
93070SOL     OW80983  11.564   9.884  14.020
93070SOL    HW180984  11.565   9.792  14.047
93070SOL    HW280985  11.642   9.922  14.060
93071SOL     OW80986   7.925   7.004   9.460
93071SOL    HW180987   7.879   7.082   9.492
93071SOL    HW280988   7.893   6.933   9.516
93072SOL     OW80989  11.056   7.977   4.183
93072SOL    HW180990  11.132   7.990   4.126
93072SOL    HW280991  10.983   7.960   4.124
93073SOL     OW80992  11.169   7.741   8.872
93073SOL    HW180993  11.074   7.733   8.869
93073SOL    HW280994  11.191   7.790   8.792
93074SOL     OW80995   6.986   2.034   8.855
93074SOL    HW180996   7.079   2.028   8.833
93074SOL    HW280997   6.952   2.103   8.798
93075SOL     OW80998   0.244   0.917   3.908
93075SOL    HW180999   0.213   0.919   3.817
93075SOL    HW281000   0.216   1.001   3.944
93076SOL     OW81001   0.891   2.148   0.693
93076SOL    HW181002   0.977   2.126   0.657
93076SOL    HW281003   0.834   2.076   0.665
93077SOL     OW81004   1.821   8.834   4.962
93077SOL    HW181005   1.730   8.808   4.977
93077SOL    HW281006   1.862   8.832   5.048
93078SOL     OW81007  10.672   4.276  13.307
93078SOL    HW181008  10.696   4.188  13.337
93078SOL    HW281009  10.578   4.271  13.288
93079SOL     OW81010  11.559   4.348   9.357
93079SOL    HW181011  11.640   4.302   9.380
93079SOL    HW281012  11.492   4.308   9.412
93080SOL     OW81013   6.431   0.331  11.279
93080SOL    HW181014   6.458   0.299  11.365
93080SOL    HW281015   6.355   0.278  11.256
93081SOL     OW81016  14.007   3.686  14.266
93081SOL    HW181017  14.062   3.684  14.344
93081SOL    HW281018  13.920   3.709  14.299
93082SOL     OW81019   5.623   2.645   7.365
93082SOL    HW181020   5.542   2.637   7.314
93082SOL    HW281021   5.600   2.609   7.451
93083SOL     OW81022  11.999   7.663   7.127
93083SOL    HW181023  11.917   7.711   7.110
93083SOL    HW281024  11.985   7.577   7.088
93084SOL     OW81025   5.914  14.825   0.340
93084SOL    HW181026   5.900  14.871   0.257
93084SOL    HW281027   5.850  14.754   0.340
93085SOL     OW81028  13.420  12.107  14.707
93085SOL    HW181029  13.376  12.071  14.630
93085SOL    HW281030  13.349  12.139  14.762
93086SOL     OW81031   7.433   4.394  13.674
93086SOL    HW181032   7.385   4.453  13.616
93086SOL    HW281033   7.521   4.432  13.679
93087SOL     OW81034  14.664   3.320  11.357
93087SOL    HW181035  14.572   3.342  11.376
93087SOL    HW281036  14.694   3.276  11.437
93088SOL     OW81037   6.384  10.269  12.071
93088SOL    HW181038   6.353  10.339  12.014
93088SOL    HW281039   6.314  10.259  12.136
93089SOL     OW81040   7.721   0.586  12.462
93089SOL    HW181041   7.640   0.553  12.499
93089SOL    HW281042   7.789   0.528  12.497
93090SOL     OW81043  11.406   4.219   6.286
93090SOL    HW181044  11.486   4.267   6.268
93090SOL    HW281045  11.336   4.281   6.266
93091SOL     OW81046   1.287   5.019   9.135
93091SOL    HW181047   1.369   5.068   9.126
93091SOL    HW281048   1.284   4.963   9.057
93092SOL     OW81049  12.593   6.433  10.950
93092SOL    HW181050  12.645   6.364  10.990
93092SOL    HW281051  12.602   6.419  10.856
93093SOL     OW81052   1.060   5.782   5.649
93093SOL    HW181053   1.104   5.828   5.720
93093SOL    HW281054   0.999   5.846   5.613
93094SOL     OW81055   9.949   4.081   4.416
93094SOL    HW181056   9.860   4.060   4.443
93094SOL    HW281057   9.938   4.123   4.330
93095SOL     OW81058   9.739  10.369   9.650
93095SOL    HW181059   9.762  10.439   9.711
93095SOL    HW281060   9.823  10.343   9.611
93096SOL     OW81061  10.724  12.518  13.970
93096SOL    HW181062  10.727  12.424  13.991
93096SOL    HW281063  10.783  12.559  14.033
93097SOL     OW81064   7.776  11.354   4.850
93097SOL    HW181065   7.762  11.264   4.819
93097SOL    HW281066   7.790  11.345   4.944
93098SOL     OW81067  11.844  13.952   2.163
93098SOL    HW181068  11.821  14.032   2.210
93098SOL    HW281069  11.761  13.905   2.155
93099SOL     OW81070   6.405   8.936  13.582
93099SOL    HW181071   6.430   8.992  13.509
93099SOL    HW281072   6.369   8.857  13.540
93100SOL     OW81073  14.021   1.793   9.801
93100SOL    HW181074  13.997   1.786   9.893
93100SOL    HW281075  13.992   1.710   9.763
93101SOL     OW81076  12.704   8.725   5.968
93101SOL    HW181077  12.715   8.762   6.055
93101SOL    HW281078  12.738   8.636   5.975
93102SOL     OW81079   8.305   8.976   4.203
93102SOL    HW181080   8.275   8.898   4.156
93102SOL    HW281081   8.366   9.018   4.143
93103SOL     OW81082  11.362   2.368   0.800
93103SOL    HW181083  11.401   2.368   0.712
93103SOL    HW281084  11.269   2.384   0.785
93104SOL     OW81085  13.492   8.460  11.790
93104SOL    HW181086  13.568   8.479  11.736
93104SOL    HW281087  13.508   8.373  11.826
93105SOL     OW81088  11.912   6.744   9.446
93105SOL    HW181089  11.844   6.689   9.483
93105SOL    HW281090  11.936   6.700   9.364
93106SOL     OW81091  10.771  11.727  14.356
93106SOL    HW181092  10.828  11.804  14.359
93106SOL    HW281093  10.832  11.653  14.347
93107SOL     OW81094   5.584  11.193   7.235
93107SOL    HW181095   5.530  11.204   7.313
93107SOL    HW281096   5.641  11.118   7.255
93108SOL     OW81097  14.386   7.501   5.598
93108SOL    HW181098  14.403   7.434   5.665
93108SOL    HW281099  14.300   7.479   5.563
93109SOL     OW81100   0.787   6.420   8.369
93109SOL    HW181101   0.796   6.420   8.274
93109SOL    HW281102   0.866   6.462   8.401
93110SOL     OW81103  11.003  14.389   0.381
93110SOL    HW181104  10.933  14.352   0.327
93110SOL    HW281105  11.016  14.325   0.451
93111SOL     OW81106  12.197   9.234   6.734
93111SOL    HW181107  12.123   9.200   6.785
93111SOL    HW281108  12.224   9.160   6.679
93112SOL     OW81109   7.204   5.811  12.949
93112SOL    HW181110   7.197   5.878  12.882
93112SOL    HW281111   7.291   5.823  12.987
93113SOL     OW81112   0.182   9.412   4.120
93113SOL    HW181113   0.151   9.330   4.159
93113SOL    HW281114   0.172   9.477   4.189
93114SOL     OW81115  11.230  13.921  10.994
93114SOL    HW181116  11.224  13.862  11.069
93114SOL    HW281117  11.293  13.988  11.021
93115SOL     OW81118   6.488   0.252   6.971
93115SOL    HW181119   6.463   0.255   6.879
93115SOL    HW281120   6.468   0.163   6.999
93116SOL     OW81121   4.782   7.739   4.001
93116SOL    HW181122   4.877   7.747   4.012
93116SOL    HW281123   4.772   7.698   3.915
93117SOL     OW81124  12.687  14.627  12.706
93117SOL    HW181125  12.779  14.604  12.693
93117SOL    HW281126  12.651  14.632  12.618
93118SOL     OW81127   0.045   8.205  10.116
93118SOL    HW181128   0.067   8.153  10.193
93118SOL    HW281129  14.851   8.257  10.142
93119SOL     OW81130   5.718  11.215   1.659
93119SOL    HW181131   5.633  11.223   1.615
93119SOL    HW281132   5.699  11.226   1.752
93120SOL     OW81133   1.644   7.900   2.831
93120SOL    HW181134   1.642   7.812   2.792
93120SOL    HW281135   1.735   7.910   2.860
93121SOL     OW81136  13.190  12.654  13.982
93121SOL    HW181137  13.268  12.675  13.931
93121SOL    HW281138  13.173  12.562  13.963
93122SOL     OW81139  12.102  12.189   9.461
93122SOL    HW181140  12.163  12.128   9.420
93122SOL    HW281141  12.157  12.256   9.501
93123SOL     OW81142   7.669   3.923  13.873
93123SOL    HW181143   7.602   3.971  13.923
93123SOL    HW281144   7.708   3.863  13.937
93124SOL     OW81145  10.221   4.483   4.540
93124SOL    HW181146  10.274   4.563   4.529
93124SOL    HW281147  10.197   4.459   4.451
93125SOL     OW81148  11.911   1.960   4.103
93125SOL    HW181149  11.977   2.020   4.069
93125SOL    HW281150  11.856   1.939   4.027
93126SOL     OW81151  12.923   1.669  12.316
93126SOL    HW181152  12.993   1.603  12.307
93126SOL    HW281153  12.965   1.741  12.364
93127SOL     OW81154  11.995   1.782   2.845
93127SOL    HW181155  11.919   1.725   2.855
93127SOL    HW281156  12.017   1.809   2.935
93128SOL     OW81157   5.042   2.940  10.655
93128SOL    HW181158   5.108   2.937  10.724
93128SOL    HW281159   5.071   2.876  10.591
93129SOL     OW81160   6.086   9.370   3.813
93129SOL    HW181161   6.028   9.322   3.871
93129SOL    HW281162   6.164   9.316   3.805
93130SOL     OW81163   1.970  10.884   0.476
93130SOL    HW181164   1.884  10.903   0.437
93130SOL    HW281165   2.000  10.806   0.429
93131SOL     OW81166   0.783  10.225  13.819
93131SOL    HW181167   0.863  10.271  13.844
93131SOL    HW281168   0.796  10.204  13.726
93132SOL     OW81169   1.735   2.249   3.487
93132SOL    HW181170   1.652   2.282   3.522
93132SOL    HW281171   1.796   2.322   3.496
93133SOL     OW81172   3.373   7.456  10.296
93133SOL    HW181173   3.405   7.365  10.292
93133SOL    HW281174   3.285   7.448  10.333
93134SOL     OW81175   7.454  11.654   2.729
93134SOL    HW181176   7.399  11.660   2.807
93134SOL    HW281177   7.412  11.713   2.666
93135SOL     OW81178   6.245   2.048   5.702
93135SOL    HW181179   6.212   2.112   5.765
93135SOL    HW281180   6.215   1.964   5.736
93136SOL     OW81181  12.215  12.540   5.382
93136SOL    HW181182  12.256  12.536   5.468
93136SOL    HW281183  12.288  12.534   5.320
93137SOL     OW81184  12.250   8.082   4.378
93137SOL    HW181185  12.161   8.047   4.381
93137SOL    HW281186  12.238   8.177   4.374
93138SOL     OW81187  11.242   6.132   4.060
93138SOL    HW181188  11.270   6.064   4.122
93138SOL    HW281189  11.151   6.112   4.041
93139SOL     OW81190   7.679   5.535  12.252
93139SOL    HW181191   7.647   5.624  12.238
93139SOL    HW281192   7.760   5.546  12.301
93140SOL     OW81193  14.615   6.098   3.921
93140SOL    HW181194  14.568   6.181   3.924
93140SOL    HW281195  14.705   6.121   3.946
93141SOL     OW81196  11.307   1.108   0.339
93141SOL    HW181197  11.374   1.110   0.407
93141SOL    HW281198  11.230   1.072   0.382
93142SOL     OW81199   3.304  12.446   5.956
93142SOL    HW181200   3.235  12.512   5.951
93142SOL    HW281201   3.305  12.406   5.869
93143SOL     OW81202   4.970   1.070   0.373
93143SOL    HW181203   4.921   1.081   0.292
93143SOL    HW281204   5.046   1.128   0.364
93144SOL     OW81205   2.028  12.990  11.218
93144SOL    HW181206   1.978  12.982  11.300
93144SOL    HW281207   1.966  12.966  11.149
93145SOL     OW81208   3.189   6.195   2.905
93145SOL    HW181209   3.261   6.184   2.842
93145SOL    HW281210   3.223   6.257   2.969
93146SOL     OW81211  13.613   4.487  12.864
93146SOL    HW181212  13.651   4.557  12.917
93146SOL    HW281213  13.661   4.491  12.781
93147SOL     OW81214  14.253   5.099   0.062
93147SOL    HW181215  14.242   5.183   0.106
93147SOL    HW281216  14.209   5.109  14.859
93148SOL     OW81217   8.739   9.187  10.808
93148SOL    HW181218   8.666   9.247  10.797
93148SOL    HW281219   8.815   9.243  10.819
93149SOL     OW81220   8.192   5.802   4.134
93149SOL    HW181221   8.174   5.799   4.228
93149SOL    HW281222   8.237   5.720   4.115
93150SOL     OW81223   8.185   0.814   9.277
93150SOL    HW181224   8.188   0.854   9.191
93150SOL    HW281225   8.277   0.804   9.302
93151SOL     OW81226   8.439  12.537   7.560
93151SOL    HW181227   8.405  12.572   7.642
93151SOL    HW281228   8.478  12.612   7.515
93152SOL     OW81229   5.894  14.237   9.141
93152SOL    HW181230   5.821  14.246   9.203
93152SOL    HW281231   5.969  14.213   9.196
93153SOL     OW81232  13.259   6.673   8.086
93153SOL    HW181233  13.193   6.741   8.080
93153SOL    HW281234  13.295   6.665   7.998
93154SOL     OW81235   8.881   0.465  14.685
93154SOL    HW181236   8.927   0.403  14.629
93154SOL    HW281237   8.794   0.427  14.697
93155SOL     OW81238  12.421  11.826   1.103
93155SOL    HW181239  12.328  11.803   1.101
93155SOL    HW281240  12.456  11.783   1.180
93156SOL     OW81241   6.519  12.299   3.905
93156SOL    HW181242   6.462  12.222   3.904
93156SOL    HW281243   6.503  12.340   3.990
93157SOL     OW81244   2.028   5.571   7.525
93157SOL    HW181245   2.020   5.480   7.552
93157SOL    HW281246   2.001   5.571   7.433
93158SOL     OW81247   0.923   5.604   4.639
93158SOL    HW181248   0.918   5.548   4.561
93158SOL    HW281249   0.873   5.682   4.616
93159SOL     OW81250   4.466   5.168   4.422
93159SOL    HW181251   4.495   5.182   4.513
93159SOL    HW281252   4.500   5.082   4.399
93160SOL     OW81253  13.842   1.074  11.451
93160SOL    HW181254  13.873   0.992  11.413
93160SOL    HW281255  13.833   1.133  11.376
93161SOL     OW81256   3.511   9.118   5.586
93161SOL    HW181257   3.564   9.039   5.575
93161SOL    HW281258   3.566   9.176   5.639
93162SOL     OW81259   7.276   5.901   7.584
93162SOL    HW181260   7.341   5.843   7.544
93162SOL    HW281261   7.192   5.860   7.565
93163SOL     OW81262   1.086  11.534   7.464
93163SOL    HW181263   1.050  11.606   7.412
93163SOL    HW281264   1.180  11.551   7.467
93164SOL     OW81265   2.473  12.544   9.583
93164SOL    HW181266   2.427  12.574   9.661
93164SOL    HW281267   2.426  12.586   9.511
93165SOL     OW81268   7.770  11.115  13.219
93165SOL    HW181269   7.774  11.039  13.278
93165SOL    HW281270   7.693  11.099  13.165
93166SOL     OW81271  14.016   7.243  10.911
93166SOL    HW181272  13.943   7.298  10.938
93166SOL    HW281273  13.977   7.156  10.898
93167SOL     OW81274  11.341   1.453   8.661
93167SOL    HW181275  11.344   1.547   8.677
93167SOL    HW281276  11.432   1.428   8.646
93168SOL     OW81277  14.748  14.756   4.962
93168SOL    HW181278  14.757  14.760   5.057
93168SOL    HW281279  14.655  14.769   4.946
93169SOL     OW81280   7.625  13.842   6.496
93169SOL    HW181281   7.646  13.930   6.465
93169SOL    HW281282   7.701  13.789   6.472
93170SOL     OW81283   0.390  13.758   9.581
93170SOL    HW181284   0.330  13.828   9.552
93170SOL    HW281285   0.434  13.794   9.658
93171SOL     OW81286   8.893  11.741   3.425
93171SOL    HW181287   8.896  11.828   3.386
93171SOL    HW281288   8.969  11.738   3.483
93172SOL     OW81289   9.854   5.889   3.482
93172SOL    HW181290   9.814   5.804   3.503
93172SOL    HW281291   9.794   5.954   3.519
93173SOL     OW81292  11.824  11.181   1.918
93173SOL    HW181293  11.838  11.090   1.895
93173SOL    HW281294  11.751  11.209   1.863
93174SOL     OW81295   5.924  10.658   7.646
93174SOL    HW181296   5.918  10.653   7.741
93174SOL    HW281297   6.017  10.647   7.627
93175SOL     OW81298  11.465   2.493   9.220
93175SOL    HW181299  11.540   2.497   9.278
93175SOL    HW281300  11.441   2.585   9.206
93176SOL     OW81301  10.283   2.836   9.605
93176SOL    HW181302  10.318   2.823   9.694
93176SOL    HW281303  10.307   2.757   9.558
93177SOL     OW81304   8.849  12.990   0.851
93177SOL    HW181305   8.841  12.981   0.946
93177SOL    HW281306   8.943  12.980   0.834
93178SOL     OW81307  12.892   9.060   9.753
93178SOL    HW181308  12.981   9.027   9.744
93178SOL    HW281309  12.836   8.984   9.734
93179SOL     OW81310   3.953   4.470   2.103
93179SOL    HW181311   4.030   4.526   2.091
93179SOL    HW281312   3.900   4.517   2.168
93180SOL     OW81313  14.747   0.457   4.367
93180SOL    HW181314  14.699   0.398   4.309
93180SOL    HW281315  14.773   0.401   4.441
93181SOL     OW81316  14.315   1.737   3.369
93181SOL    HW181317  14.321   1.799   3.442
93181SOL    HW281318  14.315   1.651   3.410
93182SOL     OW81319   2.384  11.917   7.868
93182SOL    HW181320   2.300  11.876   7.845
93182SOL    HW281321   2.394  11.900   7.961
93183SOL     OW81322   0.912   1.080  12.094
93183SOL    HW181323   0.927   1.051  12.184
93183SOL    HW281324   0.951   1.011  12.040
93184SOL     OW81325   2.773  10.762   5.517
93184SOL    HW181326   2.698  10.820   5.524
93184SOL    HW281327   2.790  10.755   5.423
93185SOL     OW81328   5.669   1.013  10.931
93185SOL    HW181329   5.709   1.097  10.911
93185SOL    HW281330   5.741   0.950  10.928
93186SOL     OW81331  12.342   2.593  10.248
93186SOL    HW181332  12.333   2.577  10.154
93186SOL    HW281333  12.348   2.688  10.256
93187SOL     OW81334   8.826   1.806   2.270
93187SOL    HW181335   8.768   1.741   2.232
93187SOL    HW281336   8.771   1.854   2.331
93188SOL     OW81337  14.005   4.608   5.931
93188SOL    HW181338  13.956   4.648   6.002
93188SOL    HW281339  13.987   4.514   5.938
93189SOL     OW81340  13.377   3.267  11.966
93189SOL    HW181341  13.427   3.340  11.930
93189SOL    HW281342  13.419   3.249  12.050
93190SOL     OW81343   1.932  11.276   3.825
93190SOL    HW181344   1.880  11.327   3.763
93190SOL    HW281345   1.960  11.198   3.776
93191SOL     OW81346  12.700   4.363   4.025
93191SOL    HW181347  12.725   4.424   3.955
93191SOL    HW281348  12.780   4.347   4.074
93192SOL     OW81349  13.021  12.081   2.531
93192SOL    HW181350  12.954  12.050   2.471
93192SOL    HW281351  13.104  12.064   2.486
93193SOL     OW81352  10.276   7.735  13.936
93193SOL    HW181353  10.188   7.712  13.965
93193SOL    HW281354  10.323   7.759  14.016
93194SOL     OW81355   0.407   0.075  12.912
93194SOL    HW181356   0.385   0.152  12.964
93194SOL    HW281357   0.489   0.043  12.949
93195SOL     OW81358   1.600   5.256   7.318
93195SOL    HW181359   1.543   5.186   7.350
93195SOL    HW281360   1.539   5.323   7.287
93196SOL     OW81361   5.676   7.383   2.386
93196SOL    HW181362   5.660   7.466   2.431
93196SOL    HW281363   5.632   7.392   2.301
93197SOL     OW81364   9.797   8.262   3.139
93197SOL    HW181365   9.878   8.275   3.190
93197SOL    HW281366   9.745   8.203   3.193
93198SOL     OW81367  13.487  12.155   8.192
93198SOL    HW181368  13.531  12.239   8.181
93198SOL    HW281369  13.399  12.169   8.157
93199SOL     OW81370   3.238   1.669   5.174
93199SOL    HW181371   3.257   1.601   5.238
93199SOL    HW281372   3.142   1.670   5.167
93200SOL     OW81373  11.340   3.510  12.471
93200SOL    HW181374  11.371   3.427  12.508
93200SOL    HW281375  11.253   3.491  12.438
93201SOL     OW81376   6.717   8.450   9.775
93201SOL    HW181377   6.808   8.432   9.750
93201SOL    HW281378   6.717   8.541   9.803
93202SOL     OW81379   0.193   0.572   6.165
93202SOL    HW181380   0.192   0.640   6.232
93202SOL    HW281381   0.148   0.611   6.090
93203SOL     OW81382   5.220  13.985   4.345
93203SOL    HW181383   5.229  13.915   4.280
93203SOL    HW281384   5.303  13.983   4.393
93204SOL     OW81385   1.603   1.869  14.638
93204SOL    HW181386   1.666   1.804  14.666
93204SOL    HW281387   1.605   1.864  14.542
93205SOL     OW81388   1.389   1.227  14.275
93205SOL    HW181389   1.361   1.315  14.251
93205SOL    HW281390   1.326   1.198  14.341
93206SOL     OW81391   2.803   9.740  11.778
93206SOL    HW181392   2.870   9.795  11.818
93206SOL    HW281393   2.850   9.684  11.717
93207SOL     OW81394  14.373  11.607  14.580
93207SOL    HW181395  14.300  11.639  14.526
93207SOL    HW281396  14.333  11.587  14.665
93208SOL     OW81397   8.998   3.245  12.396
93208SOL    HW181398   8.974   3.297  12.320
93208SOL    HW281399   8.992   3.306  12.470
93209SOL     OW81400   5.032   3.559   4.349
93209SOL    HW181401   5.100   3.492   4.352
93209SOL    HW281402   4.954   3.515   4.384
93210SOL     OW81403   1.268   6.826  11.282
93210SOL    HW181404   1.348   6.800  11.327
93210SOL    HW281405   1.199   6.821  11.349
93211SOL     OW81406  12.437  14.275   9.978
93211SOL    HW181407  12.481  14.288  10.062
93211SOL    HW281408  12.509  14.259   9.916
93212SOL     OW81409  11.959   6.699   8.253
93212SOL    HW181410  11.917   6.631   8.305
93212SOL    HW281411  11.984   6.766   8.317
93213SOL     OW81412  13.893   1.779   5.926
93213SOL    HW181413  13.897   1.758   5.833
93213SOL    HW281414  13.977   1.820   5.945
93214SOL     OW81415  10.769   5.378   1.190
93214SOL    HW181416  10.757   5.449   1.252
93214SOL    HW281417  10.796   5.303   1.243
93215SOL     OW81418   6.727   2.253   0.062
93215SOL    HW181419   6.731   2.283  14.853
93215SOL    HW281420   6.654   2.302   0.101
93216SOL     OW81421   7.106   8.247   2.153
93216SOL    HW181422   7.073   8.255   2.064
93216SOL    HW281423   7.110   8.152   2.169
93217SOL     OW81424   2.942   5.391   8.888
93217SOL    HW181425   2.855   5.373   8.924
93217SOL    HW281426   2.942   5.347   8.803
93218SOL     OW81427   6.619   0.703  14.792
93218SOL    HW181428   6.636   0.609  14.790
93218SOL    HW281429   6.630   0.727   0.003
93219SOL     OW81430   3.082   9.690   1.717
93219SOL    HW181431   3.127   9.632   1.656
93219SOL    HW281432   2.997   9.706   1.677
93220SOL     OW81433   7.795   8.297   3.191
93220SOL    HW181434   7.738   8.315   3.116
93220SOL    HW281435   7.846   8.221   3.165
93221SOL     OW81436  11.142   0.127  14.701
93221SOL    HW181437  11.211   0.092  14.757
93221SOL    HW281438  11.149   0.077  14.619
93222SOL     OW81439   4.946   9.258   8.899
93222SOL    HW181440   5.017   9.253   8.836
93222SOL    HW281441   4.912   9.168   8.904
93223SOL     OW81442   8.316   7.574   3.226
93223SOL    HW181443   8.239   7.529   3.191
93223SOL    HW281444   8.287   7.607   3.311
93224SOL     OW81445  14.718   6.129   2.359
93224SOL    HW181446  14.645   6.154   2.417
93224SOL    HW281447  14.775   6.206   2.359
93225SOL     OW81448   4.856   6.780   5.496
93225SOL    HW181449   4.870   6.789   5.401
93225SOL    HW281450   4.915   6.709   5.521
93226SOL     OW81451  14.404   0.868   2.442
93226SOL    HW181452  14.431   0.888   2.532
93226SOL    HW281453  14.327   0.812   2.452
93227SOL     OW81454   9.571   2.540   3.147
93227SOL    HW181455   9.638   2.540   3.216
93227SOL    HW281456   9.529   2.455   3.154
93228SOL     OW81457  11.898   7.265   2.098
93228SOL    HW181458  11.914   7.192   2.039
93228SOL    HW281459  11.961   7.332   2.070
93229SOL     OW81460   0.032   2.015   5.244
93229SOL    HW181461  14.880   1.926   5.254
93229SOL    HW281462   0.024   2.054   5.331
93230SOL     OW81463   5.565   0.859   6.930
93230SOL    HW181464   5.517   0.777   6.923
93230SOL    HW281465   5.651   0.840   6.892
93231SOL     OW81466   7.442   7.545  14.503
93231SOL    HW181467   7.505   7.488  14.458
93231SOL    HW281468   7.446   7.517  14.594
93232SOL     OW81469   9.688   0.989   1.098
93232SOL    HW181470   9.648   0.938   1.028
93232SOL    HW281471   9.619   1.003   1.162
93233SOL     OW81472  12.310   7.994   3.293
93233SOL    HW181473  12.404   8.010   3.303
93233SOL    HW281474  12.275   8.006   3.381
93234SOL     OW81475   0.530   3.702   9.748
93234SOL    HW181476   0.531   3.668   9.838
93234SOL    HW281477   0.476   3.781   9.753
93235SOL     OW81478   7.814   1.195  12.572
93235SOL    HW181479   7.818   1.161  12.662
93235SOL    HW281480   7.882   1.147  12.525
93236SOL     OW81481   4.206  11.558  13.664
93236SOL    HW181482   4.278  11.599  13.617
93236SOL    HW281483   4.138  11.545  13.597
93237SOL     OW81484   1.696   0.547   6.978
93237SOL    HW181485   1.771   0.542   7.037
93237SOL    HW281486   1.728   0.596   6.902
93238SOL     OW81487   3.528   8.536   5.431
93238SOL    HW181488   3.464   8.516   5.362
93238SOL    HW281489   3.476   8.539   5.511
93239SOL     OW81490   4.191  10.231   1.749
93239SOL    HW181491   4.183  10.151   1.801
93239SOL    HW281492   4.126  10.291   1.786
93240SOL     OW81493  10.075   3.916  13.770
93240SOL    HW181494  10.132   3.895  13.696
93240SOL    HW281495  10.135   3.933  13.843
93241SOL     OW81496   1.947  11.297   3.197
93241SOL    HW181497   1.866  11.347   3.190
93241SOL    HW281498   2.007  11.356   3.242
93242SOL     OW81499   9.658   7.085   3.991
93242SOL    HW181500   9.594   7.150   3.961
93242SOL    HW281501   9.606   7.016   4.032
93243SOL     OW81502   8.935   9.831  12.665
93243SOL    HW181503   8.862   9.777  12.636
93243SOL    HW281504   8.896   9.914  12.692
93244SOL     OW81505  14.396   7.580   3.299
93244SOL    HW181506  14.464   7.515   3.318
93244SOL    HW281507  14.431   7.629   3.224
93245SOL     OW81508   7.198   4.453   5.792
93245SOL    HW181509   7.284   4.413   5.778
93245SOL    HW281510   7.155   4.396   5.856
93246SOL     OW81511   7.441   2.388   7.522
93246SOL    HW181512   7.486   2.375   7.439
93246SOL    HW281513   7.367   2.328   7.519
93247SOL     OW81514  11.985   1.392  11.363
93247SOL    HW181515  12.018   1.379  11.451
93247SOL    HW281516  11.908   1.447  11.374
93248SOL     OW81517  11.803   9.429   5.303
93248SOL    HW181518  11.813   9.523   5.319
93248SOL    HW281519  11.738   9.424   5.233
93249SOL     OW81520  12.450  11.175   1.685
93249SOL    HW181521  12.379  11.113   1.700
93249SOL    HW281522  12.426  11.252   1.736
93250SOL     OW81523   2.684   0.773   2.589
93250SOL    HW181524   2.737   0.831   2.534
93250SOL    HW281525   2.607   0.754   2.536
93251SOL     OW81526   6.722  14.799   9.749
93251SOL    HW181527   6.680  14.833   9.827
93251SOL    HW281528   6.653  14.798   9.683
93252SOL     OW81529   4.934   3.098   9.056
93252SOL    HW181530   4.950   3.007   9.034
93252SOL    HW281531   4.895   3.136   8.977
93253SOL     OW81532   0.213  14.819   9.486
93253SOL    HW181533   0.210   0.032   9.469
93253SOL    HW281534   0.121  14.793   9.490
93254SOL     OW81535   0.035   8.317   9.480
93254SOL    HW181536  14.861   8.312   9.403
93254SOL    HW281537  14.856   8.334   9.552
93255SOL     OW81538   4.972   2.734   9.081
93255SOL    HW181539   4.986   2.726   8.987
93255SOL    HW281540   4.879   2.755   9.090
93256SOL     OW81541   1.101  14.742   2.664
93256SOL    HW181542   1.134  14.807   2.601
93256SOL    HW281543   1.138  14.659   2.634
93257SOL     OW81544   4.563  11.438  11.818
93257SOL    HW181545   4.489  11.409  11.871
93257SOL    HW281546   4.590  11.521  11.857
93258SOL     OW81547  12.800  10.132  11.248
93258SOL    HW181548  12.775  10.125  11.340
93258SOL    HW281549  12.751  10.208  11.215
93259SOL     OW81550   8.309   0.129   6.188
93259SOL    HW181551   8.345   0.055   6.139
93259SOL    HW281552   8.378   0.196   6.183
93260SOL     OW81553   5.326   8.682   2.456
93260SOL    HW181554   5.263   8.678   2.528
93260SOL    HW281555   5.294   8.754   2.401
93261SOL     OW81556   2.822  14.099   7.591
93261SOL    HW181557   2.834  14.169   7.527
93261SOL    HW281558   2.831  14.142   7.676
93262SOL     OW81559   4.848   1.580  11.100
93262SOL    HW181560   4.847   1.495  11.145
93262SOL    HW281561   4.937   1.613  11.113
93263SOL     OW81562   6.802  13.259  12.713
93263SOL    HW181563   6.772  13.339  12.669
93263SOL    HW281564   6.878  13.231  12.661
93264SOL     OW81565  14.252  11.437   6.599
93264SOL    HW181566  14.270  11.502   6.666
93264SOL    HW281567  14.327  11.443   6.540
93265SOL     OW81568  10.265   5.573  11.152
93265SOL    HW181569  10.238   5.645  11.095
93265SOL    HW281570  10.184   5.546  11.196
93266SOL     OW81571   7.319   9.593   9.148
93266SOL    HW181572   7.358   9.507   9.158
93266SOL    HW281573   7.313   9.627   9.238
93267SOL     OW81574   8.434  12.466   6.993
93267SOL    HW181575   8.510  12.439   7.045
93267SOL    HW281576   8.378  12.389   6.989
93268SOL     OW81577   3.242   7.137   3.059
93268SOL    HW181578   3.316   7.156   3.117
93268SOL    HW281579   3.249   7.044   3.040
93269SOL     OW81580   1.647   7.262   0.077
93269SOL    HW181581   1.613   7.268  14.869
93269SOL    HW281582   1.698   7.343   0.089
93270SOL     OW81583   0.704   5.516   8.126
93270SOL    HW181584   0.699   5.485   8.217
93270SOL    HW281585   0.661   5.447   8.075
93271SOL     OW81586   3.586   5.254   3.074
93271SOL    HW181587   3.668   5.272   3.029
93271SOL    HW281588   3.559   5.339   3.109
93272SOL     OW81589   5.330   8.460  12.783
93272SOL    HW181590   5.386   8.490  12.855
93272SOL    HW281591   5.392   8.440  12.712
93273SOL     OW81592   9.195   6.129   0.147
93273SOL    HW181593   9.279   6.169   0.170
93273SOL    HW281594   9.159   6.097   0.230
93274SOL     OW81595   6.396  14.593   1.473
93274SOL    HW181596   6.488  14.582   1.497
93274SOL    HW281597   6.367  14.669   1.524
93275SOL     OW81598  13.021   3.644  13.303
93275SOL    HW181599  12.961   3.716  13.283
93275SOL    HW281600  12.975   3.565  13.273
93276SOL     OW81601  14.781  12.370   7.695
93276SOL    HW181602  14.861  12.321   7.675
93276SOL    HW281603  14.715  12.332   7.637
93277SOL     OW81604   9.730  11.008  11.295
93277SOL    HW181605   9.800  10.957  11.253
93277SOL    HW281606   9.771  11.093  11.315
93278SOL     OW81607   0.891   2.034   8.719
93278SOL    HW181608   0.951   2.029   8.645
93278SOL    HW281609   0.819   1.976   8.695
93279SOL     OW81610  14.401  12.169   0.642
93279SOL    HW181611  14.377  12.121   0.722
93279SOL    HW281612  14.445  12.248   0.673
93280SOL     OW81613  10.851   0.819   4.964
93280SOL    HW181614  10.904   0.848   5.039
93280SOL    HW281615  10.789   0.890   4.949
93281SOL     OW81616  12.825  13.634  12.625
93281SOL    HW181617  12.868  13.628  12.540
93281SOL    HW281618  12.815  13.543  12.653
93282SOL     OW81619   8.541  13.251  14.735
93282SOL    HW181620   8.467  13.229  14.792
93282SOL    HW281621   8.537  13.347  14.729
93283SOL     OW81622  14.035  12.909   4.412
93283SOL    HW181623  14.020  12.817   4.392
93283SOL    HW281624  14.130  12.917   4.421
93284SOL     OW81625  13.732  12.749  11.543
93284SOL    HW181626  13.725  12.795  11.459
93284SOL    HW281627  13.666  12.679  11.537
93285SOL     OW81628   7.544  12.467  10.619
93285SOL    HW181629   7.601  12.532  10.662
93285SOL    HW281630   7.605  12.406  10.577
93286SOL     OW81631  11.993   2.101  10.955
93286SOL    HW181632  12.025   2.180  10.911
93286SOL    HW281633  11.966   2.130  11.042
93287SOL     OW81634   4.112  11.428  10.051
93287SOL    HW181635   4.094  11.349  10.101
93287SOL    HW281636   4.147  11.397   9.968
93288SOL     OW81637   2.709   2.652  10.737
93288SOL    HW181638   2.784   2.630  10.681
93288SOL    HW281639   2.633   2.638  10.681
93289SOL     OW81640   4.213   7.839   2.922
93289SOL    HW181641   4.302   7.808   2.937
93289SOL    HW281642   4.162   7.759   2.909
93290SOL     OW81643   3.564   8.994   3.737
93290SOL    HW181644   3.554   9.044   3.656
93290SOL    HW281645   3.584   8.905   3.708
93291SOL     OW81646   0.954   9.880   9.807
93291SOL    HW181647   1.039   9.856   9.845
93291SOL    HW281648   0.907   9.924   9.878
93292SOL     OW81649  11.254  11.427   4.141
93292SOL    HW181650  11.342  11.438   4.104
93292SOL    HW281651  11.249  11.333   4.161
93293SOL     OW81652   1.203  14.804  10.699
93293SOL    HW181653   1.257  14.725  10.691
93293SOL    HW281654   1.244  14.854  10.769
93294SOL     OW81655   7.588   8.442   5.847
93294SOL    HW181656   7.582   8.379   5.776
93294SOL    HW281657   7.533   8.515   5.820
93295SOL     OW81658   4.530  13.965   5.530
93295SOL    HW181659   4.606  14.022   5.522
93295SOL    HW281660   4.482  13.999   5.606
93296SOL     OW81661   9.284  12.750  12.409
93296SOL    HW181662   9.242  12.680  12.358
93296SOL    HW281663   9.225  12.765  12.483
93297SOL     OW81664  11.031  14.408   6.538
93297SOL    HW181665  11.064  14.429   6.450
93297SOL    HW281666  11.054  14.317   6.552
93298SOL     OW81667   3.933   1.663  11.098
93298SOL    HW181668   3.882   1.582  11.100
93298SOL    HW281669   4.024   1.633  11.106
93299SOL     OW81670  11.127   3.156   3.486
93299SOL    HW181671  11.138   3.231   3.544
93299SOL    HW281672  11.058   3.183   3.425
93300SOL     OW81673   8.317   2.237  14.272
93300SOL    HW181674   8.245   2.173  14.268
93300SOL    HW281675   8.396   2.184  14.259
93301SOL     OW81676   5.976   8.498   4.038
93301SOL    HW181677   6.071   8.489   4.041
93301SOL    HW281678   5.950   8.443   3.964
93302SOL     OW81679  12.116   5.349   0.732
93302SOL    HW181680  12.055   5.421   0.748
93302SOL    HW281681  12.191   5.389   0.690
93303SOL     OW81682   0.631   2.400  14.664
93303SOL    HW181683   0.564   2.337  14.638
93303SOL    HW281684   0.633   2.396  14.759
93304SOL     OW81685  11.930   1.066  12.986
93304SOL    HW181686  11.974   1.150  13.003
93304SOL    HW281687  11.928   1.060  12.891
93305SOL     OW81688   2.173  10.822   5.475
93305SOL    HW181689   2.151  10.817   5.383
93305SOL    HW281690   2.252  10.769   5.484
93306SOL     OW81691   9.809   0.709  14.692
93306SOL    HW181692   9.903   0.692  14.682
93306SOL    HW281693   9.784   0.753  14.610
93307SOL     OW81694   9.549   0.947   1.963
93307SOL    HW181695   9.602   0.918   1.889
93307SOL    HW281696   9.463   0.908   1.948
93308SOL     OW81697  12.083   5.989   0.752
93308SOL    HW181698  12.079   5.894   0.762
93308SOL    HW281699  12.015   6.009   0.687
93309SOL     OW81700  11.883   8.368  10.248
93309SOL    HW181701  11.909   8.373  10.340
93309SOL    HW281702  11.867   8.275  10.233
93310SOL     OW81703   5.737   1.092   2.476
93310SOL    HW181704   5.787   1.158   2.525
93310SOL    HW281705   5.704   1.032   2.544
93311SOL     OW81706   0.207   9.010  12.477
93311SOL    HW181707   0.193   9.089  12.424
93311SOL    HW281708   0.299   9.015  12.502
93312SOL     OW81709  13.168  14.304   2.990
93312SOL    HW181710  13.134  14.393   3.000
93312SOL    HW281711  13.182  14.294   2.896
93313SOL     OW81712   4.016   4.224   7.354
93313SOL    HW181713   4.010   4.242   7.448
93313SOL    HW281714   4.019   4.311   7.313
93314SOL     OW81715   4.902   9.338  14.269
93314SOL    HW181716   4.870   9.422  14.302
93314SOL    HW281717   4.979   9.318  14.324
93315SOL     OW81718   5.571   1.629   7.746
93315SOL    HW181719   5.548   1.683   7.822
93315SOL    HW281720   5.489   1.624   7.696
93316SOL     OW81721  11.473   2.810   9.247
93316SOL    HW181722  11.521   2.795   9.166
93316SOL    HW281723  11.508   2.892   9.281
93317SOL     OW81724   5.655   2.583   9.513
93317SOL    HW181725   5.643   2.536   9.430
93317SOL    HW281726   5.567   2.604   9.542
93318SOL     OW81727  14.484   1.122   7.798
93318SOL    HW181728  14.411   1.114   7.736
93318SOL    HW281729  14.463   1.199   7.851
93319SOL     OW81730   3.628  14.228  14.681
93319SOL    HW181731   3.667  14.150  14.720
93319SOL    HW281732   3.669  14.236  14.595
93320SOL     OW81733  11.700  13.811  10.495
93320SOL    HW181734  11.635  13.837  10.560
93320SOL    HW281735  11.717  13.719  10.514
93321SOL     OW81736   0.548   1.155   3.674
93321SOL    HW181737   0.607   1.120   3.607
93321SOL    HW281738   0.569   1.104   3.753
93322SOL     OW81739   6.691   3.539   6.326
93322SOL    HW181740   6.661   3.454   6.294
93322SOL    HW281741   6.749   3.518   6.399
93323SOL     OW81742  13.728  12.245   9.407
93323SOL    HW181743  13.784  12.189   9.461
93323SOL    HW281744  13.729  12.204   9.321
93324SOL     OW81745   1.635   1.101   7.577
93324SOL    HW181746   1.708   1.043   7.599
93324SOL    HW281747   1.595   1.122   7.661
93325SOL     OW81748   6.370  14.578   0.581
93325SOL    HW181749   6.275  14.588   0.587
93325SOL    HW281750   6.385  14.545   0.493
93326SOL     OW81751   3.781   6.478  10.809
93326SOL    HW181752   3.853   6.522  10.763
93326SOL    HW281753   3.820   6.397  10.843
93327SOL     OW81754   0.713   4.053   0.125
93327SOL    HW181755   0.746   4.132   0.168
93327SOL    HW281756   0.618   4.055   0.140
93328SOL     OW81757   9.569   7.731  12.506
93328SOL    HW181758   9.504   7.686  12.559
93328SOL    HW281759   9.562   7.823  12.532
93329SOL     OW81760   8.965   4.700   9.534
93329SOL    HW181761   8.931   4.669   9.618
93329SOL    HW281762   9.035   4.761   9.557
93330SOL     OW81763   6.483   5.658  10.134
93330SOL    HW181764   6.515   5.591  10.074
93330SOL    HW281765   6.561   5.704  10.163
93331SOL     OW81766  10.433   2.653  11.364
93331SOL    HW181767  10.340   2.659  11.339
93331SOL    HW281768  10.433   2.660  11.459
93332SOL     OW81769   2.782  12.891  13.467
93332SOL    HW181770   2.740  12.897  13.382
93332SOL    HW281771   2.738  12.819  13.511
93333SOL     OW81772   8.934   5.794  14.303
93333SOL    HW181773   8.970   5.728  14.244
93333SOL    HW281774   9.010   5.842  14.335
93334SOL     OW81775   7.605   1.104   6.615
93334SOL    HW181776   7.576   1.069   6.700
93334SOL    HW281777   7.681   1.051   6.592
93335SOL     OW81778   0.100  12.738   0.888
93335SOL    HW181779   0.105  12.702   0.977
93335SOL    HW281780   0.010  12.769   0.880
93336SOL     OW81781   3.317   9.532   7.253
93336SOL    HW181782   3.315   9.624   7.226
93336SOL    HW281783   3.322   9.535   7.348
93337SOL     OW81784   4.291   3.520   4.245
93337SOL    HW181785   4.293   3.466   4.166
93337SOL    HW281786   4.239   3.469   4.307
93338SOL     OW81787  13.269  13.806   2.463
93338SOL    HW181788  13.302  13.716   2.456
93338SOL    HW281789  13.191  13.806   2.406
93339SOL     OW81790  12.083   4.053   4.896
93339SOL    HW181791  12.170   4.016   4.913
93339SOL    HW281792  12.081   4.133   4.948
93340SOL     OW81793   1.199   8.754   8.237
93340SOL    HW181794   1.211   8.683   8.300
93340SOL    HW281795   1.151   8.714   8.165
93341SOL     OW81796   9.696  14.363   4.018
93341SOL    HW181797   9.788  14.370   4.045
93341SOL    HW281798   9.698  14.371   3.923
93342SOL     OW81799  12.666   6.937  12.670
93342SOL    HW181800  12.656   6.956  12.577
93342SOL    HW281801  12.577   6.940  12.705
93343SOL     OW81802   7.086   1.410   1.581
93343SOL    HW181803   6.999   1.384   1.553
93343SOL    HW281804   7.135   1.328   1.586
93344SOL     OW81805   3.192   1.698   9.124
93344SOL    HW181806   3.174   1.615   9.167
93344SOL    HW281807   3.127   1.759   9.158
93345SOL     OW81808   3.138   9.977  14.073
93345SOL    HW181809   3.161   9.986  13.981
93345SOL    HW281810   3.155   9.886  14.094
93346SOL     OW81811  12.431  11.906   9.464
93346SOL    HW181812  12.377  11.948   9.398
93346SOL    HW281813  12.453  11.976   9.526
93347SOL     OW81814   4.790  11.989   5.255
93347SOL    HW181815   4.802  12.022   5.166
93347SOL    HW281816   4.712  11.932   5.248
93348SOL     OW81817  14.816   2.037   3.779
93348SOL    HW181818  14.784   1.998   3.860
93348SOL    HW281819  14.814   1.966   3.715
93349SOL     OW81820   2.117  11.472   3.344
93349SOL    HW181821   2.099  11.419   3.423
93349SOL    HW281822   2.131  11.560   3.377
93350SOL     OW81823   8.797   2.139  13.885
93350SOL    HW181824   8.867   2.106  13.940
93350SOL    HW281825   8.749   2.060  13.857
93351SOL     OW81826  13.714   1.873  11.425
93351SOL    HW181827  13.801   1.909  11.406
93351SOL    HW281828  13.672   1.940  11.479
93352SOL     OW81829   6.569   4.708   2.281
93352SOL    HW181830   6.620   4.639   2.323
93352SOL    HW281831   6.635   4.771   2.250
93353SOL     OW81832  11.096   3.352   6.438
93353SOL    HW181833  11.029   3.394   6.383
93353SOL    HW281834  11.046   3.309   6.507
93354SOL     OW81835   2.370   2.449  14.578
93354SOL    HW181836   2.449   2.482  14.535
93354SOL    HW281837   2.313   2.423  14.506
93355SOL     OW81838  10.221   9.363  10.118
93355SOL    HW181839  10.310   9.335  10.095
93355SOL    HW281840  10.212   9.449  10.076
93356SOL     OW81841   1.299   7.728   0.274
93356SOL    HW181842   1.336   7.677   0.202
93356SOL    HW281843   1.238   7.788   0.233
93357SOL     OW81844  11.237  10.219  13.868
93357SOL    HW181845  11.204  10.234  13.956
93357SOL    HW281846  11.202  10.292  13.816
93358SOL     OW81847   4.008   5.220   4.353
93358SOL    HW181848   4.017   5.197   4.260
93358SOL    HW281849   4.077   5.283   4.370
93359SOL     OW81850   3.951  11.559   2.274
93359SOL    HW181851   3.926  11.550   2.182
93359SOL    HW281852   3.889  11.504   2.322
93360SOL     OW81853   9.523   9.306   1.302
93360SOL    HW181854   9.569   9.367   1.359
93360SOL    HW281855   9.430   9.327   1.315
93361SOL     OW81856  12.470   0.933  14.047
93361SOL    HW181857  12.481   0.838  14.045
93361SOL    HW281858  12.547   0.965  14.094
93362SOL     OW81859   9.037  14.288   0.512
93362SOL    HW181860   9.117  14.335   0.487
93362SOL    HW281861   9.051  14.199   0.481
93363SOL     OW81862   9.949   0.955  11.148
93363SOL    HW181863   9.958   0.960  11.243
93363SOL    HW281864   9.944   1.046  11.119
93364SOL     OW81865   9.049   9.243  13.945
93364SOL    HW181866   9.026   9.330  13.979
93364SOL    HW281867   9.036   9.184  14.019
93365SOL     OW81868   7.548   7.112   7.919
93365SOL    HW181869   7.622   7.091   7.975
93365SOL    HW281870   7.482   7.147   7.979
93366SOL     OW81871   3.677   0.983   5.129
93366SOL    HW181872   3.649   0.953   5.042
93366SOL    HW281873   3.712   1.070   5.114
93367SOL     OW81874   7.079  11.349   5.716
93367SOL    HW181875   7.164  11.369   5.754
93367SOL    HW281876   7.033  11.301   5.785
93368SOL     OW81877   2.617  10.768   7.224
93368SOL    HW181878   2.673  10.796   7.152
93368SOL    HW281879   2.528  10.783   7.193
93369SOL     OW81880  10.417  10.910  14.583
93369SOL    HW181881  10.435  11.004  14.595
93369SOL    HW281882  10.369  10.905  14.501
93370SOL     OW81883   0.121   5.249   1.656
93370SOL    HW181884   0.054   5.293   1.708
93370SOL    HW281885   0.204   5.281   1.691
93371SOL     OW81886   1.554   6.488   6.445
93371SOL    HW181887   1.463   6.456   6.444
93371SOL    HW281888   1.546   6.581   6.467
93372SOL     OW81889   7.030  10.153   5.535
93372SOL    HW181890   6.987  10.079   5.578
93372SOL    HW281891   6.968  10.180   5.467
93373SOL     OW81892   1.278   1.173  11.006
93373SOL    HW181893   1.339   1.105  11.032
93373SOL    HW281894   1.275   1.233  11.081
93374SOL     OW81895  14.138   6.891  11.656
93374SOL    HW181896  14.115   6.951  11.585
93374SOL    HW281897  14.228   6.864  11.636
93375SOL     OW81898  12.383   7.613  10.506
93375SOL    HW181899  12.416   7.696  10.540
93375SOL    HW281900  12.291   7.629  10.488
93376SOL     OW81901   3.601   3.982   4.542
93376SOL    HW181902   3.656   4.041   4.490
93376SOL    HW281903   3.608   3.897   4.498
93377SOL     OW81904   1.814  13.875   2.561
93377SOL    HW181905   1.845  13.914   2.643
93377SOL    HW281906   1.724  13.907   2.552
93378SOL     OW81907   4.630  11.612   3.013
93378SOL    HW181908   4.706  11.608   3.071
93378SOL    HW281909   4.624  11.704   2.987
93379SOL     OW81910   4.652   8.765   6.533
93379SOL    HW181911   4.718   8.708   6.571
93379SOL    HW281912   4.634   8.728   6.447
93380SOL     OW81913  12.619   4.082   4.096
93380SOL    HW181914  12.652   4.015   4.037
93380SOL    HW281915  12.649   4.165   4.057
93381SOL     OW81916   8.547  11.795   7.644
93381SOL    HW181917   8.532  11.766   7.554
93381SOL    HW281918   8.490  11.871   7.655
93382SOL     OW81919   3.112   3.137   6.452
93382SOL    HW181920   3.141   3.171   6.537
93382SOL    HW281921   3.192   3.128   6.401
93383SOL     OW81922  11.338   6.297   9.435
93383SOL    HW181923  11.391   6.232   9.388
93383SOL    HW281924  11.248   6.264   9.427
93384SOL     OW81925  14.517   4.692   8.675
93384SOL    HW181926  14.545   4.762   8.615
93384SOL    HW281927  14.593   4.634   8.680
93385SOL     OW81928   2.566  13.809  11.728
93385SOL    HW181929   2.531  13.724  11.755
93385SOL    HW281930   2.541  13.817  11.636
93386SOL     OW81931  13.957   9.024   7.083
93386SOL    HW181932  13.978   8.933   7.064
93386SOL    HW281933  13.977   9.034   7.176
93387SOL     OW81934   9.804   1.611  12.157
93387SOL    HW181935   9.832   1.693  12.197
93387SOL    HW281936   9.729   1.635  12.102
93388SOL     OW81937   0.259   4.828   2.444
93388SOL    HW181938   0.277   4.919   2.469
93388SOL    HW281939   0.292   4.776   2.517
93389SOL     OW81940   9.531   0.406  12.672
93389SOL    HW181941   9.484   0.435  12.751
93389SOL    HW281942   9.498   0.318  12.656
93390SOL     OW81943   2.081   8.213   6.677
93390SOL    HW181944   2.034   8.147   6.626
93390SOL    HW281945   2.155   8.238   6.622
93391SOL     OW81946  13.576   9.769   6.322
93391SOL    HW181947  13.632   9.700   6.285
93391SOL    HW281948  13.550   9.735   6.407
93392SOL     OW81949   4.558   0.851   3.295
93392SOL    HW181950   4.607   0.780   3.254
93392SOL    HW281951   4.613   0.877   3.370
93393SOL     OW81952  14.176   9.522  14.316
93393SOL    HW181953  14.100   9.502  14.370
93393SOL    HW281954  14.140   9.566  14.238
93394SOL     OW81955  11.291  13.936   8.563
93394SOL    HW181956  11.317  14.019   8.523
93394SOL    HW281957  11.373  13.898   8.596
93395SOL     OW81958  14.492  14.372   0.670
93395SOL    HW181959  14.539  14.434   0.727
93395SOL    HW281960  14.560  14.312   0.639
93396SOL     OW81961   6.857  11.306  12.572
93396SOL    HW181962   6.851  11.387  12.521
93396SOL    HW281963   6.951  11.294  12.587
93397SOL     OW81964   2.042   9.218   9.665
93397SOL    HW181965   1.994   9.141   9.696
93397SOL    HW281966   2.088   9.250   9.743
93398SOL     OW81967   9.101   1.249  11.692
93398SOL    HW181968   9.193   1.230  11.713
93398SOL    HW281969   9.052   1.206  11.762
93399SOL     OW81970  11.373   2.321  13.381
93399SOL    HW181971  11.333   2.276  13.456
93399SOL    HW281972  11.312   2.305  13.309
93400SOL     OW81973   2.228   7.339   7.348
93400SOL    HW181974   2.209   7.428   7.318
93400SOL    HW281975   2.236   7.288   7.267
93401SOL     OW81976   6.065  13.663  14.422
93401SOL    HW181977   6.019  13.580  14.413
93401SOL    HW281978   6.156  13.639  14.436
93402SOL     OW81979   8.422   6.950  11.218
93402SOL    HW181980   8.355   6.944  11.287
93402SOL    HW281981   8.374   6.932  11.137
93403SOL     OW81982   2.692  13.714   4.822
93403SOL    HW181983   2.723  13.694   4.733
93403SOL    HW281984   2.664  13.629   4.857
93404SOL     OW81985  11.554   3.416   1.886
93404SOL    HW181986  11.573   3.368   1.806
93404SOL    HW281987  11.470   3.381   1.915
93405SOL     OW81988   0.094   7.201  13.882
93405SOL    HW181989   0.123   7.290  13.865
93405SOL    HW281990   0.087   7.196  13.978
93406SOL     OW81991   3.328  14.289   9.889
93406SOL    HW181992   3.350  14.320   9.801
93406SOL    HW281993   3.411  14.257   9.925
93407SOL     OW81994  11.143   8.894  14.843
93407SOL    HW181995  11.172   8.956   0.028
93407SOL    HW281996  11.055   8.868  14.871
93408SOL     OW81997   7.290  13.524  10.735
93408SOL    HW181998   7.241  13.467  10.676
93408SOL    HW281999   7.288  13.610  10.693
93409SOL     OW82000   8.285  14.852   8.608
93409SOL    HW182001   8.348  14.788   8.575
93409SOL    HW282002   8.277   0.035   8.537
93410SOL     OW82003   0.800  12.152  10.619
93410SOL    HW182004   0.836  12.063  10.631
93410SOL    HW282005   0.772  12.155  10.528
93411SOL     OW82006  14.636  10.601   6.828
93411SOL    HW182007  14.675  10.659   6.762
93411SOL    HW282008  14.544  10.627   6.830
93412SOL     OW82009   5.030   7.106   3.913
93412SOL    HW182010   5.054   7.174   3.850
93412SOL    HW282011   4.964   7.054   3.868
93413SOL     OW82012   7.260   7.310   3.939
93413SOL    HW182013   7.186   7.364   3.966
93413SOL    HW282014   7.270   7.327   3.846
93414SOL     OW82015   9.381  13.398   2.900
93414SOL    HW182016   9.374  13.445   2.982
93414SOL    HW282017   9.427  13.458   2.841
93415SOL     OW82018  14.443   3.176   3.465
93415SOL    HW182019  14.432   3.259   3.511
93415SOL    HW282020  14.538   3.169   3.450
93416SOL     OW82021   6.907  11.809  12.116
93416SOL    HW182022   6.830  11.796  12.171
93416SOL    HW282023   6.873  11.847  12.035
93417SOL     OW82024  12.674   9.733  10.665
93417SOL    HW182025  12.765   9.744  10.695
93417SOL    HW282026  12.681   9.732  10.570
93418SOL     OW82027   5.146  13.469  13.937
93418SOL    HW182028   5.237  13.478  13.964
93418SOL    HW282029   5.140  13.518  13.855
93419SOL     OW82030   3.555   3.314   4.358
93419SOL    HW182031   3.632   3.364   4.331
93419SOL    HW282032   3.481   3.371   4.337
93420SOL     OW82033   1.100   3.318  12.055
93420SOL    HW182034   1.112   3.246  12.117
93420SOL    HW282035   1.049   3.279  11.983
93421SOL     OW82036   5.565   7.428   0.675
93421SOL    HW182037   5.534   7.347   0.715
93421SOL    HW282038   5.650   7.406   0.638
93422SOL     OW82039  12.034  10.608  14.599
93422SOL    HW182040  12.055  10.683  14.543
93422SOL    HW282041  11.953  10.573  14.562
93423SOL     OW82042   0.165   3.625   7.357
93423SOL    HW182043   0.178   3.533   7.379
93423SOL    HW282044   0.126   3.663   7.435
93424SOL     OW82045  14.353  12.390   8.170
93424SOL    HW182046  14.366  12.484   8.159
93424SOL    HW282047  14.336  12.358   8.081
93425SOL     OW82048   1.393   0.993  13.532
93425SOL    HW182049   1.391   1.017  13.625
93425SOL    HW282050   1.466   1.043  13.496
93426SOL     OW82051  10.455   4.912   7.733
93426SOL    HW182052  10.465   5.001   7.700
93426SOL    HW282053  10.446   4.921   7.827
93427SOL     OW82054   6.417  13.928   4.702
93427SOL    HW182055   6.337  13.879   4.683
93427SOL    HW282056   6.472  13.915   4.625
93428SOL     OW82057   4.078  10.464  11.167
93428SOL    HW182058   4.128  10.389  11.197
93428SOL    HW282059   4.126  10.540  11.200
93429SOL     OW82060  13.946   3.751   4.192
93429SOL    HW182061  13.878   3.726   4.254
93429SOL    HW282062  13.934   3.691   4.118
93430SOL     OW82063   7.213   8.755   6.103
93430SOL    HW182064   7.284   8.772   6.041
93430SOL    HW282065   7.183   8.842   6.130
93431SOL     OW82066   7.838   9.724   9.210
93431SOL    HW182067   7.790   9.801   9.179
93431SOL    HW282068   7.775   9.652   9.205
93432SOL     OW82069   3.228   8.023   0.039
93432SOL    HW182070   3.209   7.962  14.849
93432SOL    HW282071   3.167   7.998   0.108
93433SOL     OW82072   3.385   8.585   1.996
93433SOL    HW182073   3.312   8.523   1.997
93433SOL    HW282074   3.455   8.540   2.043
93434SOL     OW82075  13.532   4.522  11.400
93434SOL    HW182076  13.498   4.534  11.312
93434SOL    HW282077  13.458   4.490  11.451
93435SOL     OW82078  12.081  10.214  10.274
93435SOL    HW182079  12.153  10.198  10.334
93435SOL    HW282080  12.057  10.127  10.242
93436SOL     OW82081   8.910   3.951   0.836
93436SOL    HW182082   8.924   3.863   0.801
93436SOL    HW282083   8.909   3.940   0.931
93437SOL     OW82084   8.856   4.573   9.760
93437SOL    HW182085   8.808   4.519   9.823
93437SOL    HW282086   8.948   4.561   9.784
93438SOL     OW82087   4.326  12.362   7.274
93438SOL    HW182088   4.277  12.281   7.260
93438SOL    HW282089   4.381  12.344   7.351
93439SOL     OW82090   2.608   3.825   6.638
93439SOL    HW182091   2.608   3.872   6.554
93439SOL    HW282092   2.574   3.888   6.701
93440SOL     OW82093   8.665   2.675   3.284
93440SOL    HW182094   8.574   2.664   3.313
93440SOL    HW282095   8.658   2.729   3.205
93441SOL     OW82096   0.684   3.607   3.812
93441SOL    HW182097   0.656   3.626   3.723
93441SOL    HW282098   0.622   3.656   3.867
93442SOL     OW82099   2.188   0.166   3.297
93442SOL    HW182100   2.113   0.176   3.238
93442SOL    HW282101   2.190   0.248   3.347
93443SOL     OW82102   8.578   2.913   8.435
93443SOL    HW182103   8.647   2.931   8.372
93443SOL    HW282104   8.520   2.989   8.430
93444SOL     OW82105   0.291   2.281  12.340
93444SOL    HW182106   0.276   2.346  12.408
93444SOL    HW282107   0.280   2.197  12.384
93445SOL     OW82108   0.918   3.675  11.166
93445SOL    HW182109   0.823   3.675  11.154
93445SOL    HW282110   0.942   3.583  11.170
93446SOL     OW82111   9.621   5.952   7.099
93446SOL    HW182112   9.649   6.034   7.057
93446SOL    HW282113   9.626   5.887   7.029
93447SOL     OW82114  13.807   7.739   6.665
93447SOL    HW182115  13.866   7.794   6.613
93447SOL    HW282116  13.864   7.671   6.701
93448SOL     OW82117  10.506  14.753  13.457
93448SOL    HW182118  10.533  14.755  13.549
93448SOL    HW282119  10.561  14.685  13.418
93449SOL     OW82120  14.171   8.790   0.762
93449SOL    HW182121  14.153   8.878   0.729
93449SOL    HW282122  14.096   8.738   0.731
93450SOL     OW82123   4.755   6.481   3.942
93450SOL    HW182124   4.744   6.481   3.847
93450SOL    HW282125   4.778   6.390   3.963
93451SOL     OW82126  13.954  10.398   7.737
93451SOL    HW182127  13.860  10.410   7.725
93451SOL    HW282128  13.988  10.487   7.748
93452SOL     OW82129   3.232  10.756   2.930
93452SOL    HW182130   3.157  10.810   2.907
93452SOL    HW282131   3.224  10.743   3.024
93453SOL     OW82132   3.714  14.042  11.652
93453SOL    HW182133   3.777  14.040  11.579
93453SOL    HW282134   3.756  14.099  11.717
93454SOL     OW82135   0.298   8.508   3.163
93454SOL    HW182136   0.206   8.529   3.146
93454SOL    HW282137   0.313   8.538   3.252
93455SOL     OW82138   8.839  13.656   0.800
93455SOL    HW182139   8.895  13.612   0.736
93455SOL    HW282140   8.869  13.747   0.800
93456SOL     OW82141   6.119   7.291  10.166
93456SOL    HW182142   6.195   7.259  10.215
93456SOL    HW282143   6.151   7.300  10.076
93457SOL     OW82144   4.607   6.287   4.650
93457SOL    HW182145   4.667   6.238   4.593
93457SOL    HW282146   4.522   6.278   4.608
93458SOL     OW82147   4.756  12.654   3.907
93458SOL    HW182148   4.843  12.695   3.911
93458SOL    HW282149   4.718  12.669   3.994
93459SOL     OW82150   6.789   9.489  10.032
93459SOL    HW182151   6.702   9.507  10.066
93459SOL    HW282152   6.773   9.447   9.947
93460SOL     OW82153   0.508   5.461   8.665
93460SOL    HW182154   0.551   5.532   8.617
93460SOL    HW282155   0.440   5.505   8.716
93461SOL     OW82156  11.879   0.317   9.415
93461SOL    HW182157  11.804   0.361   9.454
93461SOL    HW282158  11.946   0.317   9.483
93462SOL     OW82159  12.520   1.200   8.951
93462SOL    HW182160  12.526   1.240   9.038
93462SOL    HW282161  12.602   1.153   8.940
93463SOL     OW82162   4.217   1.804  13.148
93463SOL    HW182163   4.165   1.790  13.070
93463SOL    HW282164   4.282   1.734  13.147
93464SOL     OW82165   0.224   3.710   1.117
93464SOL    HW182166   0.157   3.690   1.052
93464SOL    HW282167   0.301   3.660   1.089
93465SOL     OW82168   1.615   9.739   1.468
93465SOL    HW182169   1.687   9.721   1.408
93465SOL    HW282170   1.607   9.834   1.468
93466SOL     OW82171   4.018   4.329   0.286
93466SOL    HW182172   4.075   4.281   0.226
93466SOL    HW282173   4.058   4.316   0.372
93467SOL     OW82174   2.805   1.191  12.341
93467SOL    HW182175   2.794   1.168  12.248
93467SOL    HW282176   2.715   1.201  12.374
93468SOL     OW82177   6.419  10.867  14.555
93468SOL    HW182178   6.465  10.794  14.514
93468SOL    HW282179   6.327  10.846  14.544
93469SOL     OW82180  12.641  11.894  12.148
93469SOL    HW182181  12.704  11.845  12.202
93469SOL    HW282182  12.632  11.978  12.193
93470SOL     OW82183   1.097   4.585  10.331
93470SOL    HW182184   1.115   4.491  10.333
93470SOL    HW282185   1.158   4.620  10.267
93471SOL     OW82186  12.998  10.944   3.170
93471SOL    HW182187  13.085  10.910   3.189
93471SOL    HW282188  13.010  11.039   3.167
93472SOL     OW82189   3.519   6.817   7.733
93472SOL    HW182190   3.441   6.863   7.763
93472SOL    HW282191   3.511   6.816   7.638
93473SOL     OW82192  12.585   6.490   0.213
93473SOL    HW182193  12.580   6.553   0.141
93473SOL    HW282194  12.669   6.447   0.202
93474SOL     OW82195   7.663  12.268   6.194
93474SOL    HW182196   7.695  12.331   6.130
93474SOL    HW282197   7.735  12.258   6.257
93475SOL     OW82198  12.438   6.014  10.993
93475SOL    HW182199  12.449   6.008  11.088
93475SOL    HW282200  12.352   6.055  10.982
93476SOL     OW82201   5.973   7.241  11.227
93476SOL    HW182202   5.899   7.294  11.255
93476SOL    HW282203   6.049   7.300  11.236
93477SOL     OW82204   8.078   8.264   2.474
93477SOL    HW182205   8.039   8.276   2.387
93477SOL    HW282206   8.156   8.212   2.458
93478SOL     OW82207   1.576   3.718   0.386
93478SOL    HW182208   1.620   3.710   0.471
93478SOL    HW282209   1.647   3.739   0.324
93479SOL     OW82210   9.259  11.647  11.560
93479SOL    HW182211   9.310  11.570  11.535
93479SOL    HW282212   9.178  11.611  11.597
93480SOL     OW82213  10.668   7.130   6.209
93480SOL    HW182214  10.663   7.036   6.229
93480SOL    HW282215  10.679   7.134   6.114
93481SOL     OW82216   7.030   4.747  12.026
93481SOL    HW182217   7.024   4.661  12.067
93481SOL    HW282218   7.068   4.730  11.940
93482SOL     OW82219   6.195   6.970   1.741
93482SOL    HW182220   6.239   7.041   1.695
93482SOL    HW282221   6.135   7.015   1.801
93483SOL     OW82222   2.717  10.973   6.568
93483SOL    HW182223   2.760  10.983   6.483
93483SOL    HW282224   2.693  11.062   6.593
93484SOL     OW82225   5.761   0.129   2.746
93484SOL    HW182226   5.726   0.143   2.834
93484SOL    HW282227   5.688   0.150   2.688
93485SOL     OW82228  10.306   4.847   9.251
93485SOL    HW182229  10.296   4.924   9.195
93485SOL    HW282230  10.231   4.852   9.311
93486SOL     OW82231  14.787   1.813   3.610
93486SOL    HW182232  14.751   1.738   3.657
93486SOL    HW282233  14.738   1.815   3.528
93487SOL     OW82234   4.875   3.954   4.438
93487SOL    HW182235   4.827   3.913   4.366
93487SOL    HW282236   4.839   3.915   4.517
93488SOL     OW82237   5.154   5.083  11.009
93488SOL    HW182238   5.147   5.059  11.101
93488SOL    HW282239   5.179   5.001  10.965
93489SOL     OW82240   3.181   2.439   8.274
93489SOL    HW182241   3.177   2.520   8.222
93489SOL    HW282242   3.091   2.405   8.271
93490SOL     OW82243   9.187   6.882   4.081
93490SOL    HW182244   9.213   6.799   4.041
93490SOL    HW282245   9.092   6.876   4.089
93491SOL     OW82246  12.652   8.629   7.653
93491SOL    HW182247  12.601   8.597   7.727
93491SOL    HW282248  12.735   8.658   7.691
93492SOL     OW82249  14.097   4.983   4.523
93492SOL    HW182250  14.058   4.982   4.610
93492SOL    HW282251  14.071   5.067   4.486
93493SOL     OW82252   3.574   7.500   6.391
93493SOL    HW182253   3.508   7.503   6.460
93493SOL    HW282254   3.647   7.551   6.427
93494SOL     OW82255   8.562   0.641   8.498
93494SOL    HW182256   8.514   0.560   8.482
93494SOL    HW282257   8.650   0.625   8.463
93495SOL     OW82258  10.920   4.884   6.791
93495SOL    HW182259  10.964   4.952   6.843
93495SOL    HW282260  10.954   4.802   6.825
93496SOL     OW82261   5.096  14.705   5.905
93496SOL    HW182262   5.111  14.788   5.950
93496SOL    HW282263   5.178  14.657   5.916
93497SOL     OW82264   6.412  11.121   7.167
93497SOL    HW182265   6.326  11.110   7.127
93497SOL    HW282266   6.448  11.200   7.127
93498SOL     OW82267   5.001  10.001   2.038
93498SOL    HW182268   4.966  10.047   2.114
93498SOL    HW282269   4.936  10.016   1.969
93499SOL     OW82270   1.421   0.577   6.945
93499SOL    HW182271   1.417   0.668   6.974
93499SOL    HW282272   1.512   0.552   6.959
93500SOL     OW82273   6.968   8.726  14.276
93500SOL    HW182274   6.885   8.686  14.300
93500SOL    HW282275   6.976   8.710  14.182
93501SOL     OW82276   8.684   5.266   9.061
93501SOL    HW182277   8.647   5.354   9.053
93501SOL    HW282278   8.709   5.259   9.153
93502SOL     OW82279   0.894  14.085  12.670
93502SOL    HW182280   0.895  13.990  12.678
93502SOL    HW282281   0.980  14.108  12.636
93503SOL     OW82282   8.668   7.471  10.833
93503SOL    HW182283   8.733   7.453  10.764
93503SOL    HW282284   8.718   7.466  10.914
93504SOL     OW82285   8.599   7.773   8.684
93504SOL    HW182286   8.601   7.681   8.709
93504SOL    HW282287   8.535   7.813   8.743
93505SOL     OW82288  13.625   7.422  10.408
93505SOL    HW182289  13.614   7.427  10.313
93505SOL    HW282290  13.720   7.433  10.422
93506SOL     OW82291   5.485  14.372  14.760
93506SOL    HW182292   5.416  14.429  14.793
93506SOL    HW282293   5.537  14.427  14.702
93507SOL     OW82294   4.927  13.720   1.233
93507SOL    HW182295   4.865  13.792   1.247
93507SOL    HW282296   4.871  13.643   1.219
93508SOL     OW82297   9.534   4.453   4.163
93508SOL    HW182298   9.504   4.427   4.076
93508SOL    HW282299   9.507   4.544   4.171
93509SOL     OW82300   8.859   6.739   7.712
93509SOL    HW182301   8.894   6.752   7.623
93509SOL    HW282302   8.936   6.738   7.768
93510SOL     OW82303  10.421  13.654   0.654
93510SOL    HW182304  10.368  13.597   0.599
93510SOL    HW282305  10.374  13.657   0.737
93511SOL     OW82306   4.060   7.909   4.198
93511SOL    HW182307   4.128   7.897   4.264
93511SOL    HW282308   4.012   7.827   4.197
93512SOL     OW82309   9.300   3.947  13.054
93512SOL    HW182310   9.299   4.042  13.059
93512SOL    HW282311   9.302   3.918  13.145
93513SOL     OW82312  12.066   6.900   2.693
93513SOL    HW182313  12.159   6.882   2.702
93513SOL    HW282314  12.045   6.874   2.603
93514SOL     OW82315  10.406   3.481  11.036
93514SOL    HW182316  10.319   3.453  11.063
93514SOL    HW282317  10.438   3.410  10.981
93515SOL     OW82318   8.920  14.853   8.073
93515SOL    HW182319   8.922   0.058   8.115
93515SOL    HW282320   8.849  14.859   8.009
93516SOL     OW82321   0.699   2.113  12.619
93516SOL    HW182322   0.748   2.182  12.574
93516SOL    HW282323   0.719   2.033  12.571
93517SOL     OW82324  12.022   8.609   8.353
93517SOL    HW182325  12.065   8.557   8.422
93517SOL    HW282326  11.929   8.599   8.371
93518SOL     OW82327   4.434  11.135   9.307
93518SOL    HW182328   4.483  11.181   9.238
93518SOL    HW282329   4.418  11.202   9.373
93519SOL     OW82330   1.804   1.580   3.769
93519SOL    HW182331   1.746   1.538   3.832
93519SOL    HW282332   1.862   1.634   3.823
93520SOL     OW82333   0.673   6.682   6.526
93520SOL    HW182334   0.588   6.646   6.552
93520SOL    HW282335   0.667   6.690   6.431
93521SOL     OW82336   8.368  12.142   1.399
93521SOL    HW182337   8.330  12.224   1.430
93521SOL    HW282338   8.427  12.115   1.469
93522SOL     OW82339   9.574   4.476   1.241
93522SOL    HW182340   9.508   4.537   1.208
93522SOL    HW282341   9.531   4.432   1.314
93523SOL     OW82342   3.674   0.246   9.871
93523SOL    HW182343   3.655   0.336   9.899
93523SOL    HW282344   3.767   0.234   9.888
93524SOL     OW82345  10.870  13.720   9.822
93524SOL    HW182346  10.954  13.702   9.779
93524SOL    HW282347  10.854  13.813   9.806
93525SOL     OW82348  14.248  13.701  12.060
93525SOL    HW182349  14.319  13.673  12.003
93525SOL    HW282350  14.212  13.779  12.018
93526SOL     OW82351   4.464   0.606   1.159
93526SOL    HW182352   4.518   0.598   1.080
93526SOL    HW282353   4.403   0.677   1.139
93527SOL     OW82354   7.847   1.095  12.822
93527SOL    HW182355   7.853   1.011  12.867
93527SOL    HW282356   7.932   1.137  12.838
93528SOL     OW82357   0.067   2.540  11.956
93528SOL    HW182358   0.135   2.608  11.966
93528SOL    HW282359   0.111   2.459  11.981
93529SOL     OW82360   4.860   1.207   5.212
93529SOL    HW182361   4.953   1.196   5.195
93529SOL    HW282362   4.820   1.217   5.125
93530SOL     OW82363   6.806  10.586  13.672
93530SOL    HW182364   6.804  10.514  13.735
93530SOL    HW282365   6.780  10.663  13.723
93531SOL     OW82366   1.771  12.294  14.549
93531SOL    HW182367   1.677  12.310  14.552
93531SOL    HW282368   1.792  12.256  14.635
93532SOL     OW82369  12.728   9.550   2.832
93532SOL    HW182370  12.645   9.530   2.875
93532SOL    HW282371  12.777   9.601   2.896
93533SOL     OW82372   9.943   0.020  11.585
93533SOL    HW182373   9.994   0.007  11.665
93533SOL    HW282374   9.955   0.112  11.563
93534SOL     OW82375   2.489   0.625  14.332
93534SOL    HW182376   2.435   0.548  14.352
93534SOL    HW282377   2.427   0.693  14.307
93535SOL     OW82378   9.573   3.738  10.663
93535SOL    HW182379   9.568   3.719  10.570
93535SOL    HW282380   9.500   3.690  10.702
93536SOL     OW82381   7.675   3.019   9.568
93536SOL    HW182382   7.664   2.943   9.625
93536SOL    HW282383   7.735   2.989   9.499
93537SOL     OW82384   3.313   9.151   3.366
93537SOL    HW182385   3.346   9.233   3.331
93537SOL    HW282386   3.378   9.086   3.338
93538SOL     OW82387   5.749   0.140   8.920
93538SOL    HW182388   5.680   0.102   8.864
93538SOL    HW282389   5.706   0.211   8.966
93539SOL     OW82390   4.051  12.224  13.094
93539SOL    HW182391   3.999  12.182  13.025
93539SOL    HW282392   4.017  12.187  13.175
93540SOL     OW82393   0.146  13.054   3.037
93540SOL    HW182394   0.200  13.001   2.978
93540SOL    HW282395   0.177  13.144   3.023
93541SOL     OW82396   8.442  11.351   4.499
93541SOL    HW182397   8.404  11.295   4.566
93541SOL    HW282398   8.508  11.297   4.456
93542SOL     OW82399  10.724   6.303  13.682
93542SOL    HW182400  10.685   6.224  13.644
93542SOL    HW282401  10.655   6.339  13.738
93543SOL     OW82402   0.118   7.393  12.579
93543SOL    HW182403   0.059   7.404  12.504
93543SOL    HW282404   0.164   7.476  12.586
93544SOL     OW82405  11.436  13.354  11.540
93544SOL    HW182406  11.422  13.263  11.563
93544SOL    HW282407  11.350  13.386  11.513
93545SOL     OW82408  13.821  11.719   9.239
93545SOL    HW182409  13.913  11.733   9.257
93545SOL    HW282410  13.780  11.713   9.326
93546SOL     OW82411   6.857   4.140   8.940
93546SOL    HW182412   6.833   4.139   8.848
93546SOL    HW282413   6.849   4.231   8.967
93547SOL     OW82414   7.334   7.707   8.260
93547SOL    HW182415   7.357   7.699   8.168
93547SOL    HW282416   7.380   7.636   8.303
93548SOL     OW82417   4.964  11.958   5.459
93548SOL    HW182418   4.911  11.946   5.380
93548SOL    HW282419   4.918  11.907   5.526
93549SOL     OW82420   4.999   4.040  11.546
93549SOL    HW182421   4.907   4.035  11.572
93549SOL    HW282422   5.036   3.955  11.572
93550SOL     OW82423   6.833   1.668   3.426
93550SOL    HW182424   6.755   1.614   3.423
93550SOL    HW282425   6.811   1.738   3.488
93551SOL     OW82426   7.887   2.718  14.216
93551SOL    HW182427   7.797   2.712  14.246
93551SOL    HW282428   7.887   2.674  14.131
93552SOL     OW82429   0.610   4.263   8.979
93552SOL    HW182430   0.671   4.308   9.037
93552SOL    HW282431   0.534   4.321   8.974
93553SOL     OW82432   8.875  10.777  10.372
93553SOL    HW182433   8.963  10.786  10.336
93553SOL    HW282434   8.847  10.689  10.345
93554SOL     OW82435   0.774   8.765  12.002
93554SOL    HW182436   0.808   8.758  12.091
93554SOL    HW282437   0.725   8.684  11.988
93555SOL     OW82438   8.359   9.120   9.864
93555SOL    HW182439   8.303   9.100   9.789
93555SOL    HW282440   8.303   9.170   9.924
93556SOL     OW82441   8.442  14.688   4.695
93556SOL    HW182442   8.443  14.609   4.750
93556SOL    HW282443   8.452  14.760   4.757
93557SOL     OW82444   7.173   2.992   4.169
93557SOL    HW182445   7.256   2.962   4.205
93557SOL    HW282446   7.166   3.083   4.197
93558SOL     OW82447   6.093  13.805   7.728
93558SOL    HW182448   6.136  13.777   7.809
93558SOL    HW282449   6.008  13.838   7.757
93559SOL     OW82450   2.868  12.334   5.961
93559SOL    HW182451   2.909  12.252   5.988
93559SOL    HW282452   2.815  12.360   6.037
93560SOL     OW82453  14.200   6.877   6.707
93560SOL    HW182454  14.180   6.823   6.784
93560SOL    HW282455  14.138   6.848   6.640
93561SOL     OW82456   1.027   6.806   4.662
93561SOL    HW182457   1.113   6.818   4.701
93561SOL    HW282458   1.045   6.796   4.568
93562SOL     OW82459  12.219   2.444   9.387
93562SOL    HW182460  12.226   2.359   9.431
93562SOL    HW282461  12.280   2.438   9.313
93563SOL     OW82462   2.899   2.345  14.244
93563SOL    HW182463   2.880   2.433  14.212
93563SOL    HW282464   2.963   2.310  14.182
93564SOL     OW82465   8.789   0.375  11.896
93564SOL    HW182466   8.702   0.414  11.891
93564SOL    HW282467   8.841   0.436  11.949
93565SOL     OW82468  11.133   3.903   4.055
93565SOL    HW182469  11.222   3.886   4.024
93565SOL    HW282470  11.144   3.943   4.141
93566SOL     OW82471   2.857  10.042  13.536
93566SOL    HW182472   2.871  10.108  13.604
93566SOL    HW282473   2.903  10.076  13.460
93567SOL     OW82474   0.404   6.310   0.125
93567SOL    HW182475   0.372   6.386   0.078
93567SOL    HW282476   0.486   6.287   0.081
93568SOL     OW82477  11.092   5.314  12.700
93568SOL    HW182478  11.102   5.403  12.733
93568SOL    HW282479  11.165   5.266  12.738
93569SOL     OW82480  13.323  11.853   0.144
93569SOL    HW182481  13.273  11.874   0.065
93569SOL    HW282482  13.410  11.888   0.128
93570SOL     OW82483   0.858   3.125   4.887
93570SOL    HW182484   0.908   3.160   4.814
93570SOL    HW282485   0.914   3.058   4.926
93571SOL     OW82486   7.043   0.043   9.432
93571SOL    HW182487   7.047   0.128   9.389
93571SOL    HW282488   7.050   0.062   9.526
93572SOL     OW82489   6.213  13.511   5.862
93572SOL    HW182490   6.180  13.445   5.924
93572SOL    HW282491   6.150  13.583   5.867
93573SOL     OW82492  10.057   8.518   1.212
93573SOL    HW182493  10.023   8.449   1.155
93573SOL    HW282494  10.120   8.566   1.157
93574SOL     OW82495   3.602   9.985   9.736
93574SOL    HW182496   3.600  10.077   9.711
93574SOL    HW282497   3.625   9.939   9.655
93575SOL     OW82498   7.683  10.551   1.432
93575SOL    HW182499   7.657  10.474   1.483
93575SOL    HW282500   7.600  10.593   1.407
93576SOL     OW82501   9.878   3.482  12.514
93576SOL    HW182502   9.919   3.555  12.468
93576SOL    HW282503   9.797   3.518  12.548
93577SOL     OW82504   2.944   9.789   3.293
93577SOL    HW182505   2.967   9.847   3.221
93577SOL    HW282506   2.977   9.703   3.265
93578SOL     OW82507   2.512  10.401  13.440
93578SOL    HW182508   2.550  10.392  13.353
93578SOL    HW282509   2.433  10.454  13.427
93579SOL     OW82510   1.000   5.712   6.776
93579SOL    HW182511   0.908   5.718   6.801
93579SOL    HW282512   1.046   5.695   6.858
93580SOL     OW82513   1.429   6.488  14.635
93580SOL    HW182514   1.512   6.487  14.684
93580SOL    HW282515   1.381   6.413  14.668
93581SOL     OW82516   4.251   6.983   6.286
93581SOL    HW182517   4.322   6.992   6.223
93581SOL    HW282518   4.292   6.995   6.371
93582SOL     OW82519  12.638   8.272   1.127
93582SOL    HW182520  12.608   8.320   1.050
93582SOL    HW282521  12.677   8.192   1.092
93583SOL     OW82522   2.728   6.822   0.400
93583SOL    HW182523   2.700   6.856   0.485
93583SOL    HW282524   2.658   6.763   0.373
93584SOL     OW82525  10.092  12.804   5.703
93584SOL    HW182526  10.070  12.895   5.718
93584SOL    HW282527  10.123  12.772   5.788
93585SOL     OW82528  14.682   1.093   6.413
93585SOL    HW182529  14.760   1.137   6.448
93585SOL    HW282530  14.673   1.126   6.323
93586SOL     OW82531  14.738   8.744   3.705
93586SOL    HW182532  14.652   8.713   3.676
93586SOL    HW282533  14.732   8.746   3.800
93587SOL     OW82534   6.954  13.300   0.100
93587SOL    HW182535   6.904  13.236   0.049
93587SOL    HW282536   6.943  13.382   0.053
93588SOL     OW82537   1.302  11.322   5.245
93588SOL    HW182538   1.285  11.286   5.332
93588SOL    HW282539   1.232  11.285   5.190
93589SOL     OW82540   7.598  13.622   4.986
93589SOL    HW182541   7.517  13.616   4.935
93589SOL    HW282542   7.569  13.627   5.077
93590SOL     OW82543   0.996  10.983   4.732
93590SOL    HW182544   0.958  11.016   4.814
93590SOL    HW282545   0.957  11.038   4.664
93591SOL     OW82546   1.953   7.659  11.076
93591SOL    HW182547   1.980   7.728  11.016
93591SOL    HW282548   2.035   7.616  11.101
93592SOL     OW82549   4.962   3.663   3.423
93592SOL    HW182550   4.953   3.671   3.518
93592SOL    HW282551   4.880   3.624   3.394
93593SOL     OW82552   0.397   6.222   3.961
93593SOL    HW182553   0.317   6.261   3.925
93593SOL    HW282554   0.378   6.208   4.054
93594SOL     OW82555   1.761  13.188   7.533
93594SOL    HW182556   1.788  13.116   7.475
93594SOL    HW282557   1.665  13.180   7.538
93595SOL     OW82558   8.344   5.716   8.502
93595SOL    HW182559   8.371   5.789   8.446
93595SOL    HW282560   8.249   5.717   8.498
93596SOL     OW82561   9.460   3.410  10.713
93596SOL    HW182562   9.408   3.330  10.703
93596SOL    HW282563   9.398   3.481  10.703
93597SOL     OW82564  10.434  12.466   2.960
93597SOL    HW182565  10.449  12.554   2.995
93597SOL    HW282566  10.342  12.448   2.981
93598SOL     OW82567   4.109   7.208   1.868
93598SOL    HW182568   4.090   7.115   1.858
93598SOL    HW282569   4.127   7.219   1.961
93599SOL     OW82570   5.221   7.372   7.403
93599SOL    HW182571   5.142   7.347   7.354
93599SOL    HW282572   5.292   7.367   7.340
93600SOL     OW82573   3.455   2.067   1.611
93600SOL    HW182574   3.465   1.972   1.602
93600SOL    HW282575   3.496   2.088   1.694
93601SOL     OW82576   5.318  13.278  11.147
93601SOL    HW182577   5.325  13.352  11.088
93601SOL    HW282578   5.388  13.290  11.211
93602SOL     OW82579  10.566  13.699   9.485
93602SOL    HW182580  10.479  13.692   9.526
93602SOL    HW282581  10.605  13.613   9.498
93603SOL     OW82582  13.546   5.786   5.300
93603SOL    HW182583  13.564   5.871   5.341
93603SOL    HW282584  13.632   5.746   5.288
93604SOL     OW82585   5.691   5.326   6.823
93604SOL    HW182586   5.645   5.405   6.794
93604SOL    HW282587   5.784   5.348   6.816
93605SOL     OW82588  14.136  12.785   3.522
93605SOL    HW182589  14.060  12.735   3.490
93605SOL    HW282590  14.177  12.726   3.585
93606SOL     OW82591   9.364   4.979   9.467
93606SOL    HW182592   9.402   4.896   9.493
93606SOL    HW282593   9.397   4.994   9.378
93607SOL     OW82594   2.345   0.693   4.343
93607SOL    HW182595   2.255   0.676   4.315
93607SOL    HW282596   2.337   0.733   4.429
93608SOL     OW82597  10.716  14.563   2.956
93608SOL    HW182598  10.796  14.578   3.006
93608SOL    HW282599  10.706  14.468   2.954
93609SOL     OW82600   2.185   7.809   3.093
93609SOL    HW182601   2.219   7.868   3.161
93609SOL    HW282602   2.216   7.722   3.120
93610SOL     OW82603   3.140  10.347  14.317
93610SOL    HW182604   3.079  10.404  14.271
93610SOL    HW282605   3.219  10.401  14.329
93611SOL     OW82606   9.788   7.915  10.767
93611SOL    HW182607   9.867   7.863  10.782
93611SOL    HW282608   9.819   7.995  10.724
93612SOL     OW82609   3.356   8.233  14.771
93612SOL    HW182610   3.319   8.164  14.826
93612SOL    HW282611   3.432   8.192  14.729
93613SOL     OW82612   4.286  14.159   6.147
93613SOL    HW182613   4.353  14.092   6.145
93613SOL    HW282614   4.333  14.240   6.169
93614SOL     OW82615  14.429   5.249   1.276
93614SOL    HW182616  14.466   5.176   1.226
93614SOL    HW282617  14.335   5.232   1.278
93615SOL     OW82618   4.023   4.582   4.779
93615SOL    HW182619   4.004   4.626   4.862
93615SOL    HW282620   3.961   4.621   4.717
93616SOL     OW82621   9.458   5.474  10.261
93616SOL    HW182622   9.414   5.394  10.233
93616SOL    HW282623   9.435   5.483  10.354
93617SOL     OW82624   6.281   2.371   4.319
93617SOL    HW182625   6.255   2.303   4.380
93617SOL    HW282626   6.207   2.432   4.318
93618SOL     OW82627  13.922   0.243   8.068
93618SOL    HW182628  13.884   0.155   8.066
93618SOL    HW282629  14.016   0.228   8.077
93619SOL     OW82630  13.508  14.814  10.816
93619SOL    HW182631  13.431  14.820  10.759
93619SOL    HW282632  13.583  14.823  10.758
93620SOL     OW82633   5.413   7.763   1.848
93620SOL    HW182634   5.418   7.845   1.898
93620SOL    HW282635   5.323   7.763   1.813
93621SOL     OW82636   0.768   9.154   7.290
93621SOL    HW182637   0.766   9.136   7.384
93621SOL    HW282638   0.826   9.229   7.281
93622SOL     OW82639   1.619   7.265   3.061
93622SOL    HW182640   1.602   7.312   2.979
93622SOL    HW282641   1.674   7.325   3.111
93623SOL     OW82642  13.494   9.704   1.575
93623SOL    HW182643  13.410   9.722   1.533
93623SOL    HW282644  13.544   9.784   1.564
93624SOL     OW82645   4.902   6.669   9.149
93624SOL    HW182646   4.837   6.736   9.171
93624SOL    HW282647   4.850   6.591   9.128
93625SOL     OW82648   5.531   5.021  14.452
93625SOL    HW182649   5.485   4.991  14.531
93625SOL    HW282650   5.473   5.086  14.414
93626SOL     OW82651   4.980   1.929   0.515
93626SOL    HW182652   4.970   1.983   0.437
93626SOL    HW282653   4.955   1.841   0.488
93627SOL     OW82654  13.980   3.607  14.776
93627SOL    HW182655  14.071   3.577  14.780
93627SOL    HW282656  13.942   3.557  14.704
93628SOL     OW82657   0.141  12.718   1.999
93628SOL    HW182658   0.122  12.812   1.998
93628SOL    HW282659   0.198  12.704   1.923
93629SOL     OW82660   6.276   8.446   8.974
93629SOL    HW182661   6.356   8.485   8.938
93629SOL    HW282662   6.267   8.487   9.060
93630SOL     OW82663  13.972   8.090  12.837
93630SOL    HW182664  14.048   8.148  12.830
93630SOL    HW282665  13.898   8.146  12.812
93631SOL     OW82666   6.404   4.757  10.851
93631SOL    HW182667   6.379   4.665  10.851
93631SOL    HW282668   6.333   4.801  10.899
93632SOL     OW82669   1.107   5.107  10.441
93632SOL    HW182670   1.062   5.028  10.470
93632SOL    HW282671   1.125   5.092  10.348
93633SOL     OW82672   5.138  13.259   8.073
93633SOL    HW182673   5.221  13.260   8.024
93633SOL    HW282674   5.133  13.172   8.111
93634SOL     OW82675   8.083   7.977  14.351
93634SOL    HW182676   8.056   7.952  14.440
93634SOL    HW282677   8.131   7.901  14.319
93635SOL     OW82678  13.838   8.567  14.485
93635SOL    HW182679  13.836   8.646  14.430
93635SOL    HW282680  13.874   8.597  14.568
93636SOL     OW82681   7.298   6.188   8.998
93636SOL    HW182682   7.246   6.126   8.947
93636SOL    HW282683   7.245   6.205   9.077
93637SOL     OW82684  12.579  13.521   6.487
93637SOL    HW182685  12.608  13.519   6.396
93637SOL    HW282686  12.498  13.572   6.485
93638SOL     OW82687  12.948   1.746  10.799
93638SOL    HW182688  13.024   1.799  10.820
93638SOL    HW282689  12.968   1.660  10.837
93639SOL     OW82690  12.130   4.051   7.436
93639SOL    HW182691  12.166   4.043   7.347
93639SOL    HW282692  12.118   3.961   7.465
93640SOL     OW82693   1.768  10.438   0.733
93640SOL    HW182694   1.787  10.378   0.805
93640SOL    HW282695   1.683  10.407   0.699
93641SOL     OW82696   5.023   2.287   4.717
93641SOL    HW182697   5.047   2.344   4.644
93641SOL    HW282698   4.981   2.346   4.780
93642SOL     OW82699   0.864  12.724  10.089
93642SOL    HW182700   0.853  12.655  10.154
93642SOL    HW282701   0.943  12.770  10.117
93643SOL     OW82702  12.289   7.912   1.021
93643SOL    HW182703  12.275   7.820   1.043
93643SOL    HW282704  12.341   7.947   1.094
93644SOL     OW82705  12.377   1.460   4.961
93644SOL    HW182706  12.425   1.536   4.930
93644SOL    HW282707  12.409   1.388   4.907
93645SOL     OW82708   0.218   9.021   8.444
93645SOL    HW182709   0.309   9.052   8.441
93645SOL    HW282710   0.223   8.937   8.488
93646SOL     OW82711  10.368   6.838   9.044
93646SOL    HW182712  10.314   6.776   9.094
93646SOL    HW282713  10.400   6.900   9.110
93647SOL     OW82714   0.451   2.544   4.917
93647SOL    HW182715   0.359   2.521   4.902
93647SOL    HW282716   0.475   2.493   4.995
93648SOL     OW82717   5.858   7.725   9.821
93648SOL    HW182718   5.804   7.789   9.868
93648SOL    HW282719   5.940   7.723   9.869
93649SOL     OW82720   8.381   6.792   7.494
93649SOL    HW182721   8.355   6.849   7.421
93649SOL    HW282722   8.394   6.851   7.568
93650SOL     OW82723   4.372  14.819   2.778
93650SOL    HW182724   4.396   0.005   2.714
93650SOL    HW282725   4.376  14.863   2.863
93651SOL     OW82726   8.582  11.431  10.576
93651SOL    HW182727   8.561  11.512  10.529
93651SOL    HW282728   8.532  11.437  10.657
93652SOL     OW82729   2.607  13.145   5.091
93652SOL    HW182730   2.579  13.221   5.143
93652SOL    HW282731   2.617  13.075   5.156
93653SOL     OW82732   1.701  14.307   3.920
93653SOL    HW182733   1.741  14.221   3.903
93653SOL    HW282734   1.767  14.354   3.971
93654SOL     OW82735   8.977  12.505   7.739
93654SOL    HW182736   8.902  12.541   7.691
93654SOL    HW282737   8.961  12.531   7.830
93655SOL     OW82738   7.189   1.139   0.030
93655SOL    HW182739   7.129   1.167   0.100
93655SOL    HW282740   7.263   1.199   0.037
93656SOL     OW82741   8.063  14.569  12.170
93656SOL    HW182742   8.082  14.661  12.147
93656SOL    HW282743   7.996  14.543  12.107
93657SOL     OW82744   2.629  11.161  13.200
93657SOL    HW182745   2.635  11.241  13.149
93657SOL    HW282746   2.614  11.092  13.136
93658SOL     OW82747   2.865  11.391  12.862
93658SOL    HW182748   2.952  11.430  12.863
93658SOL    HW282749   2.825  11.423  12.781
93659SOL     OW82750   8.612   2.126   3.491
93659SOL    HW182751   8.517   2.125   3.500
93659SOL    HW282752   8.640   2.204   3.538
93660SOL     OW82753  12.595   7.558   3.806
93660SOL    HW182754  12.664   7.622   3.789
93660SOL    HW282755  12.590   7.506   3.725
93661SOL     OW82756  14.248  10.560   2.037
93661SOL    HW182757  14.335  10.597   2.022
93661SOL    HW282758  14.217  10.604   2.116
93662SOL     OW82759   0.160   1.973  11.801
93662SOL    HW182760   0.193   1.901  11.747
93662SOL    HW282761   0.070   1.946  11.823
93663SOL     OW82762   0.020  14.061   5.402
93663SOL    HW182763   0.080  14.135   5.409
93663SOL    HW282764  14.832  14.081   5.465
93664SOL     OW82765  10.079   5.579  13.236
93664SOL    HW182766  10.015   5.650  13.232
93664SOL    HW282767  10.113   5.572  13.147
93665SOL     OW82768   2.504  13.447  14.572
93665SOL    HW182769   2.481  13.355  14.556
93665SOL    HW282770   2.470  13.465  14.659
93666SOL     OW82771  14.687  10.435  11.283
93666SOL    HW182772  14.698  10.527  11.309
93666SOL    HW282773  14.673  10.438  11.189
93667SOL     OW82774   4.534   8.318   9.090
93667SOL    HW182775   4.538   8.308   8.995
93667SOL    HW282776   4.448   8.284   9.113
93668SOL     OW82777  13.146   3.380  14.431
93668SOL    HW182778  13.204   3.452  14.404
93668SOL    HW282779  13.152   3.317  14.359
93669SOL     OW82780   5.653   4.448   6.035
93669SOL    HW182781   5.740   4.488   6.031
93669SOL    HW282782   5.612   4.471   5.951
93670SOL     OW82783   3.162   1.443   7.186
93670SOL    HW182784   3.186   1.410   7.100
93670SOL    HW282785   3.161   1.538   7.176
93671SOL     OW82786   1.704   8.037   8.141
93671SOL    HW182787   1.781   7.996   8.181
93671SOL    HW282788   1.661   7.967   8.093
93672SOL     OW82789   2.830   6.051  11.440
93672SOL    HW182790   2.741   6.071  11.411
93672SOL    HW282791   2.866   6.134  11.468
93673SOL     OW82792   3.565   1.299   0.805
93673SOL    HW182793   3.600   1.383   0.775
93673SOL    HW282794   3.477   1.294   0.768
93674SOL     OW82795   5.824  13.367   5.704
93674SOL    HW182796   5.870  13.284   5.700
93674SOL    HW282797   5.826  13.400   5.614
93675SOL     OW82798   6.007   9.664   5.334
93675SOL    HW182799   5.956   9.745   5.325
93675SOL    HW282800   6.055   9.657   5.251
93676SOL     OW82801  10.947   2.388  13.173
93676SOL    HW182802  10.884   2.399  13.102
93676SOL    HW282803  10.918   2.450  13.240
93677SOL     OW82804  10.869   6.433   4.074
93677SOL    HW182805  10.806   6.481   4.021
93677SOL    HW282806  10.867   6.476   4.160
93678SOL     OW82807  12.789   1.539   0.692
93678SOL    HW182808  12.713   1.592   0.667
93678SOL    HW282809  12.838   1.527   0.611
93679SOL     OW82810   9.094   6.769  12.679
93679SOL    HW182811   9.064   6.705  12.615
93679SOL    HW282812   9.179   6.736  12.707
93680SOL     OW82813   9.811  13.181  13.138
93680SOL    HW182814   9.767  13.120  13.079
93680SOL    HW282815   9.779  13.158  13.225
93681SOL     OW82816  10.599   8.566   7.307
93681SOL    HW182817  10.511   8.535   7.287
93681SOL    HW282818  10.629   8.510   7.379
93682SOL     OW82819   6.440   3.117   8.231
93682SOL    HW182820   6.382   3.045   8.255
93682SOL    HW282821   6.449   3.109   8.136
93683SOL     OW82822   0.275   0.886   7.173
93683SOL    HW182823   0.279   0.858   7.082
93683SOL    HW282824   0.364   0.914   7.194
93684SOL     OW82825   2.616  14.254   3.530
93684SOL    HW182826   2.626  14.337   3.577
93684SOL    HW282827   2.580  14.279   3.445
93685SOL     OW82828   7.898   6.086   7.637
93685SOL    HW182829   7.907   6.117   7.727
93685SOL    HW282830   7.881   5.992   7.646
93686SOL     OW82831   6.120  10.659   8.404
93686SOL    HW182832   6.148  10.751   8.403
93686SOL    HW282833   6.046  10.657   8.464
93687SOL     OW82834   0.900  11.099   1.071
93687SOL    HW182835   0.830  11.145   1.118
93687SOL    HW282836   0.980  11.121   1.118
93688SOL     OW82837   6.834  10.855   1.760
93688SOL    HW182838   6.901  10.924   1.766
93688SOL    HW282839   6.873  10.780   1.805
93689SOL     OW82840   7.812   7.394   4.304
93689SOL    HW182841   7.832   7.453   4.376
93689SOL    HW282842   7.818   7.449   4.225
93690SOL     OW82843   2.815   0.264   5.079
93690SOL    HW182844   2.801   0.307   5.163
93690SOL    HW282845   2.782   0.326   5.014
93691SOL     OW82846   6.948  12.382   5.166
93691SOL    HW182847   7.030  12.430   5.156
93691SOL    HW282848   6.881  12.449   5.168
93692SOL     OW82849   5.844   0.072   9.857
93692SOL    HW182850   5.929   0.091   9.895
93692SOL    HW282851   5.863   0.016   9.782
93693SOL     OW82852   5.280   5.036  13.836
93693SOL    HW182853   5.245   5.102  13.776
93693SOL    HW282854   5.260   4.953  13.793
93694SOL     OW82855   2.133   4.039   2.661
93694SOL    HW182856   2.218   3.994   2.669
93694SOL    HW282857   2.069   3.974   2.688
93695SOL     OW82858   9.232   5.752  14.633
93695SOL    HW182859   9.260   5.681  14.691
93695SOL    HW282860   9.290   5.825  14.655
93696SOL     OW82861   3.742   8.309   2.437
93696SOL    HW182862   3.827   8.268   2.453
93696SOL    HW282863   3.741   8.326   2.343
93697SOL     OW82864   2.439   1.170   9.610
93697SOL    HW182865   2.349   1.193   9.636
93697SOL    HW282866   2.434   1.079   9.581
93698SOL     OW82867  10.827   9.255   4.358
93698SOL    HW182868  10.898   9.218   4.410
93698SOL    HW282869  10.848   9.231   4.268
93699SOL     OW82870   4.620  13.264   9.812
93699SOL    HW182871   4.564  13.262   9.889
93699SOL    HW282872   4.578  13.204   9.750
93700SOL     OW82873  10.266   3.864   8.086
93700SOL    HW182874  10.298   3.844   7.998
93700SOL    HW282875  10.340   3.907   8.129
93701SOL     OW82876   6.713   8.289  14.745
93701SOL    HW182877   6.675   8.252  14.666
93701SOL    HW282878   6.639   8.329  14.791
93702SOL     OW82879   4.200   9.085   7.518
93702SOL    HW182880   4.205   9.003   7.469
93702SOL    HW282881   4.119   9.126   7.488
93703SOL     OW82882  11.350   5.391   7.956
93703SOL    HW182883  11.428   5.391   8.012
93703SOL    HW282884  11.306   5.308   7.976
93704SOL     OW82885   2.413   5.431   5.520
93704SOL    HW182886   2.410   5.465   5.610
93704SOL    HW282887   2.386   5.505   5.466
93705SOL     OW82888   2.257   3.863  11.731
93705SOL    HW182889   2.275   3.785  11.784
93705SOL    HW282890   2.258   3.832  11.641
93706SOL     OW82891   8.492   7.488   7.494
93706SOL    HW182892   8.562   7.425   7.473
93706SOL    HW282893   8.514   7.519   7.582
93707SOL     OW82894   4.549   2.192   0.220
93707SOL    HW182895   4.572   2.121   0.160
93707SOL    HW282896   4.602   2.176   0.298
93708SOL     OW82897  12.397  13.816  14.795
93708SOL    HW182898  12.407  13.751  14.865
93708SOL    HW282899  12.318  13.788  14.748
93709SOL     OW82900  10.683  11.035   4.277
93709SOL    HW182901  10.661  10.944   4.298
93709SOL    HW282902  10.604  11.069   4.234
93710SOL     OW82903   9.181   5.813  14.385
93710SOL    HW182904   9.212   5.785  14.471
93710SOL    HW282905   9.256   5.797  14.327
93711SOL     OW82906   0.724   0.529   3.300
93711SOL    HW182907   0.692   0.613   3.269
93711SOL    HW282908   0.810   0.549   3.339
93712SOL     OW82909   1.605   9.548  12.510
93712SOL    HW182910   1.531   9.497  12.542
93712SOL    HW282911   1.681   9.492  12.525
93713SOL     OW82912   1.205  12.284   0.890
93713SOL    HW182913   1.166  12.256   0.973
93713SOL    HW282914   1.185  12.213   0.830
93714SOL     OW82915  10.825   8.971   2.092
93714SOL    HW182916  10.796   8.904   2.155
93714SOL    HW282917  10.817   9.054   2.140
93715SOL     OW82918   5.523   3.864   1.862
93715SOL    HW182919   5.595   3.817   1.905
93715SOL    HW282920   5.560   3.948   1.838
93716SOL     OW82921   5.409   6.955  12.170
93716SOL    HW182922   5.420   6.889  12.101
93716SOL    HW282923   5.314   6.963  12.181
93717SOL     OW82924   1.490   9.206  12.115
93717SOL    HW182925   1.489   9.301  12.099
93717SOL    HW282926   1.582   9.185  12.128
93718SOL     OW82927  14.146   2.042  12.029
93718SOL    HW182928  14.241   2.051  12.038
93718SOL    HW282929  14.116   2.013  12.115
93719SOL     OW82930   3.278   6.881   5.839
93719SOL    HW182931   3.324   6.889   5.755
93719SOL    HW282932   3.274   6.971   5.871
93720SOL     OW82933  13.392  12.444   3.380
93720SOL    HW182934  13.381  12.512   3.313
93720SOL    HW282935  13.323  12.462   3.443
93721SOL     OW82936  13.747  11.409   1.051
93721SOL    HW182937  13.796  11.489   1.033
93721SOL    HW282938  13.655  11.436   1.048
93722SOL     OW82939   4.498   2.100  13.344
93722SOL    HW182940   4.545   2.017  13.350
93722SOL    HW282941   4.414   2.077  13.305
93723SOL     OW82942  10.375   3.815   0.597
93723SOL    HW182943  10.464   3.790   0.620
93723SOL    HW282944  10.384   3.866   0.516
93724SOL     OW82945   2.919   3.570   9.213
93724SOL    HW182946   2.972   3.588   9.136
93724SOL    HW282947   2.923   3.475   9.224
93725SOL     OW82948   1.647  11.979  11.815
93725SOL    HW182949   1.724  11.958  11.868
93725SOL    HW282950   1.586  12.022  11.875
93726SOL     OW82951  14.249   5.649   2.163
93726SOL    HW182952  14.338   5.650   2.128
93726SOL    HW282953  14.194   5.675   2.089
93727SOL     OW82954   8.772  12.945   9.296
93727SOL    HW182955   8.694  12.891   9.278
93727SOL    HW282956   8.845  12.891   9.266
93728SOL     OW82957   6.070   1.487   2.027
93728SOL    HW182958   6.004   1.478   1.959
93728SOL    HW282959   6.105   1.575   2.015
93729SOL     OW82960   0.729   3.551   9.109
93729SOL    HW182961   0.648   3.501   9.115
93729SOL    HW282962   0.798   3.488   9.131
93730SOL     OW82963  14.646  12.068   4.023
93730SOL    HW182964  14.691  12.128   4.082
93730SOL    HW282965  14.698  12.069   3.943
93731SOL     OW82966  12.545   1.963  12.086
93731SOL    HW182967  12.613   1.911  12.129
93731SOL    HW282968  12.466   1.910  12.094
93732SOL     OW82969   8.332  12.030  13.819
93732SOL    HW182970   8.301  12.075  13.741
93732SOL    HW282971   8.280  12.067  13.891
93733SOL     OW82972   3.023  12.787   7.016
93733SOL    HW182973   2.931  12.794   6.989
93733SOL    HW282974   3.022  12.719   7.084
93734SOL     OW82975   0.555   7.335   7.309
93734SOL    HW182976   0.467   7.326   7.346
93734SOL    HW282977   0.603   7.259   7.341
93735SOL     OW82978   8.969   4.094   2.011
93735SOL    HW182979   9.050   4.050   1.986
93735SOL    HW282980   8.998   4.174   2.055
93736SOL     OW82981   8.663   8.950   4.333
93736SOL    HW182982   8.616   8.868   4.316
93736SOL    HW282983   8.747   8.922   4.369
93737SOL     OW82984   0.353  13.068  11.772
93737SOL    HW182985   0.423  13.044  11.832
93737SOL    HW282986   0.368  13.161  11.754
93738SOL     OW82987  13.074   7.667   0.455
93738SOL    HW182988  13.070   7.754   0.415
93738SOL    HW282989  13.084   7.608   0.380
93739SOL     OW82990   2.911   4.696   1.442
93739SOL    HW182991   2.920   4.790   1.461
93739SOL    HW282992   2.887   4.657   1.526
93740SOL     OW82993  13.444   2.788   1.935
93740SOL    HW182994  13.529   2.803   1.894
93740SOL    HW282995  13.380   2.804   1.866
93741SOL     OW82996   7.381  11.010  11.832
93741SOL    HW182997   7.351  11.057  11.910
93741SOL    HW282998   7.326  11.044  11.762
93742SOL     OW82999   9.779   8.678  10.112
93742SOL    HW183000   9.724   8.755  10.099
93742SOL    HW283001   9.751   8.618  10.042
93743SOL     OW83002   1.090   8.065   5.236
93743SOL    HW183003   1.084   7.998   5.305
93743SOL    HW283004   1.009   8.115   5.244
93744SOL     OW83005  13.755  14.868   5.038
93744SOL    HW183006  13.828   0.029   5.084
93744SOL    HW283007  13.756  14.778   5.071
93745SOL     OW83008   9.049  13.660  12.911
93745SOL    HW183009   9.118  13.689  12.971
93745SOL    HW283010   9.056  13.720  12.837
93746SOL     OW83011  10.044  14.535   9.539
93746SOL    HW183012  10.040  14.607   9.602
93746SOL    HW283013  10.095  14.467   9.584
93747SOL     OW83014  14.741   0.145  10.018
93747SOL    HW183015  14.829   0.161   9.984
93747SOL    HW283016  14.691   0.222   9.992
93748SOL     OW83017   6.637  12.901   3.501
93748SOL    HW183018   6.554  12.856   3.484
93748SOL    HW283019   6.642  12.908   3.596
93749SOL     OW83020   2.117   7.157   4.280
93749SOL    HW183021   2.088   7.143   4.370
93749SOL    HW283022   2.043   7.201   4.238
93750SOL     OW83023   4.777   5.344   3.620
93750SOL    HW183024   4.763   5.286   3.696
93750SOL    HW283025   4.846   5.404   3.648
93751SOL     OW83026   6.188   7.424   4.296
93751SOL    HW183027   6.149   7.411   4.210
93751SOL    HW283028   6.167   7.345   4.345
93752SOL     OW83029   4.107   2.945   4.889
93752SOL    HW183030   4.122   2.940   4.984
93752SOL    HW283031   4.187   2.910   4.851
93753SOL     OW83032  10.232  10.073   9.608
93753SOL    HW183033  10.137  10.077   9.600
93753SOL    HW283034  10.261  10.030   9.527
93754SOL     OW83035   6.572   9.723   1.782
93754SOL    HW183036   6.560   9.793   1.717
93754SOL    HW283037   6.612   9.766   1.857
93755SOL     OW83038  11.775  12.723   4.047
93755SOL    HW183039  11.841  12.684   4.105
93755SOL    HW283040  11.694  12.722   4.098
93756SOL     OW83041  14.171   8.164   1.517
93756SOL    HW183042  14.216   8.229   1.463
93756SOL    HW283043  14.112   8.119   1.456
93757SOL     OW83044   8.614  10.552   7.099
93757SOL    HW183045   8.600  10.459   7.080
93757SOL    HW283046   8.663  10.553   7.181
93758SOL     OW83047   1.254   2.024   8.136
93758SOL    HW183048   1.344   1.993   8.147
93758SOL    HW283049   1.263   2.112   8.101
93759SOL     OW83050  14.572   6.138  10.282
93759SOL    HW183051  14.593   6.155  10.191
93759SOL    HW283052  14.651   6.161  10.330
93760SOL     OW83053  11.706   1.888  12.679
93760SOL    HW183054  11.677   1.975  12.707
93760SOL    HW283055  11.682   1.883  12.587
93761SOL     OW83056  14.308   1.601   9.902
93761SOL    HW183057  14.275   1.511   9.903
93761SOL    HW283058  14.238   1.652   9.942
93762SOL     OW83059  10.501  10.462   0.003
93762SOL    HW183060  10.523  10.415  14.804
93762SOL    HW283061  10.584  10.499   0.033
93763SOL     OW83062   2.476  10.564   9.979
93763SOL    HW183063   2.427  10.484   9.960
93763SOL    HW283064   2.535  10.574   9.904
93764SOL     OW83065   2.224  12.386   8.279
93764SOL    HW183066   2.205  12.292   8.288
93764SOL    HW283067   2.228  12.418   8.369
93765SOL     OW83068  14.127   9.972   8.613
93765SOL    HW183069  14.211   9.930   8.593
93765SOL    HW283070  14.129   9.985   8.708
93766SOL     OW83071  11.925  11.627   9.493
93766SOL    HW183072  11.868  11.666   9.428
93766SOL    HW283073  12.009  11.616   9.448
93767SOL     OW83074   8.698   1.326   8.087
93767SOL    HW183075   8.786   1.294   8.104
93767SOL    HW283076   8.681   1.390   8.157
93768SOL     OW83077   5.418   9.770  10.482
93768SOL    HW183078   5.484   9.701  10.480
93768SOL    HW283079   5.410   9.794  10.574
93769SOL     OW83080  11.434   5.763   0.704
93769SOL    HW183081  11.405   5.707   0.776
93769SOL    HW283082  11.419   5.710   0.625
93770SOL     OW83083  14.350   2.397   9.263
93770SOL    HW183084  14.342   2.489   9.288
93770SOL    HW283085  14.445   2.381   9.261
93771SOL     OW83086   2.886  10.981   4.416
93771SOL    HW183087   2.973  11.021   4.411
93771SOL    HW283088   2.848  10.996   4.329
93772SOL     OW83089  11.669   3.970   4.276
93772SOL    HW183090  11.672   3.875   4.260
93772SOL    HW283091  11.581   3.986   4.310
93773SOL     OW83092   1.694   1.202   0.305
93773SOL    HW183093   1.610   1.240   0.331
93773SOL    HW283094   1.721   1.253   0.229
93774SOL     OW83095   2.452   2.921  13.244
93774SOL    HW183096   2.428   3.012  13.225
93774SOL    HW283097   2.546   2.925  13.265
93775SOL     OW83098   9.905   7.606   7.472
93775SOL    HW183099   9.866   7.567   7.394
93775SOL    HW283100   9.992   7.634   7.444
93776SOL     OW83101   3.069   5.666  12.884
93776SOL    HW183102   3.078   5.760  12.897
93776SOL    HW283103   3.157   5.631  12.897
93777SOL     OW83104   1.832   3.523   0.163
93777SOL    HW183105   1.784   3.596   0.124
93777SOL    HW283106   1.925   3.547   0.152
93778SOL     OW83107   8.952  13.895   3.178
93778SOL    HW183108   8.909  13.967   3.132
93778SOL    HW283109   9.026  13.936   3.223
93779SOL     OW83110   5.860   2.237   4.365
93779SOL    HW183111   5.901   2.246   4.279
93779SOL    HW283112   5.914   2.171   4.409
93780SOL     OW83113   9.624  11.501  12.032
93780SOL    HW183114   9.708  11.456  12.028
93780SOL    HW283115   9.566  11.448  11.978
93781SOL     OW83116   9.728  11.143   9.603
93781SOL    HW183117   9.682  11.068   9.567
93781SOL    HW283118   9.667  11.216   9.591
93782SOL     OW83119   4.922   0.935   8.400
93782SOL    HW183120   4.985   0.863   8.402
93782SOL    HW283121   4.957   0.997   8.337
93783SOL     OW83122   0.862  10.523   1.752
93783SOL    HW183123   0.947  10.566   1.744
93783SOL    HW283124   0.883  10.433   1.777
93784SOL     OW83125   2.035  11.247   0.234
93784SOL    HW183126   2.112  11.205   0.196
93784SOL    HW283127   2.016  11.321   0.177
93785SOL     OW83128  14.069   1.194  13.071
93785SOL    HW183129  14.104   1.283  13.069
93785SOL    HW283130  14.041   1.181  13.161
93786SOL     OW83131   0.238   0.901   9.799
93786SOL    HW183132   0.255   0.993   9.779
93786SOL    HW283133   0.267   0.854   9.721
93787SOL     OW83134   0.962   2.391   9.505
93787SOL    HW183135   1.045   2.388   9.458
93787SOL    HW283136   0.920   2.307   9.486
93788SOL     OW83137  12.298  12.141  12.376
93788SOL    HW183138  12.248  12.129  12.458
93788SOL    HW283139  12.277  12.230  12.349
93789SOL     OW83140   0.256  14.644  11.525
93789SOL    HW183141   0.187  14.671  11.587
93789SOL    HW283142   0.318  14.716  11.526
93790SOL     OW83143   3.435   4.856   1.160
93790SOL    HW183144   3.380   4.854   1.237
93790SOL    HW283145   3.452   4.764   1.140
93791SOL     OW83146   8.055   6.453   9.136
93791SOL    HW183147   8.055   6.397   9.059
93791SOL    HW283148   8.011   6.533   9.108
93792SOL     OW83149   4.205   9.834  11.842
93792SOL    HW183150   4.136   9.795  11.895
93792SOL    HW283151   4.274   9.768  11.840
93793SOL     OW83152   4.827   9.375  10.405
93793SOL    HW183153   4.813   9.419  10.321
93793SOL    HW283154   4.830   9.446  10.469
93794SOL     OW83155   0.953  11.448   8.266
93794SOL    HW183156   0.994  11.367   8.296
93794SOL    HW283157   1.006  11.475   8.191
93795SOL     OW83158  11.868   6.921   1.278
93795SOL    HW183159  11.807   6.969   1.222
93795SOL    HW283160  11.866   6.831   1.244
93796SOL     OW83161   6.873   6.617  11.094
93796SOL    HW183162   6.788   6.656  11.117
93796SOL    HW283163   6.898   6.568  11.172
93797SOL     OW83164   0.607   4.150   5.082
93797SOL    HW183165   0.525   4.099   5.081
93797SOL    HW283166   0.669   4.094   5.035
93798SOL     OW83167   4.317   0.430   8.584
93798SOL    HW183168   4.367   0.507   8.613
93798SOL    HW283169   4.294   0.450   8.493
93799SOL     OW83170   8.858   2.822   3.121
93799SOL    HW183171   8.919   2.775   3.065
93799SOL    HW283172   8.914   2.874   3.178
93800SOL     OW83173   2.418   6.351   4.530
93800SOL    HW183174   2.499   6.307   4.505
93800SOL    HW283175   2.360   6.280   4.557
93801SOL     OW83176   6.010   9.444   0.334
93801SOL    HW183177   6.029   9.437   0.240
93801SOL    HW283178   6.037   9.533   0.358
93802SOL     OW83179   3.131  12.286   9.423
93802SOL    HW183180   3.048  12.265   9.380
93802SOL    HW283181   3.107  12.310   9.513
93803SOL     OW83182   8.539   0.781   1.577
93803SOL    HW183183   8.571   0.823   1.657
93803SOL    HW283184   8.507   0.853   1.523
93804SOL     OW83185   0.830   3.179   6.589
93804SOL    HW183186   0.861   3.114   6.526
93804SOL    HW283187   0.909   3.204   6.638
93805SOL     OW83188  10.746   7.681   2.718
93805SOL    HW183189  10.819   7.648   2.770
93805SOL    HW283190  10.785   7.706   2.635
93806SOL     OW83191   0.277  10.654   6.835
93806SOL    HW183192   0.304  10.583   6.893
93806SOL    HW283193   0.253  10.611   6.753
93807SOL     OW83194  14.327   7.174   5.717
93807SOL    HW183195  14.332   7.190   5.623
93807SOL    HW283196  14.243   7.211   5.744
93808SOL     OW83197  14.410   0.558  10.795
93808SOL    HW183198  14.333   0.616  10.792
93808SOL    HW283199  14.452   0.578  10.878
93809SOL     OW83200   9.977  13.615   0.638
93809SOL    HW183201  10.039  13.545   0.655
93809SOL    HW283202  10.031  13.694   0.632
93810SOL     OW83203   8.983  10.786  14.251
93810SOL    HW183204   9.014  10.839  14.178
93810SOL    HW283205   9.044  10.712  14.256
93811SOL     OW83206   5.747   8.710   4.951
93811SOL    HW183207   5.701   8.643   5.001
93811SOL    HW283208   5.787   8.663   4.878
93812SOL     OW83209   0.219   3.161   6.103
93812SOL    HW183210   0.129   3.184   6.128
93812SOL    HW283211   0.264   3.147   6.186
93813SOL     OW83212   2.338   1.283  13.123
93813SOL    HW183213   2.314   1.208  13.068
93813SOL    HW283214   2.348   1.356  13.062
93814SOL     OW83215  14.042   8.538  14.162
93814SOL    HW183216  13.991   8.476  14.111
93814SOL    HW283217  13.986   8.559  14.237
93815SOL     OW83218   3.095   9.698   8.048
93815SOL    HW183219   3.183   9.734   8.040
93815SOL    HW283220   3.046   9.740   7.977
93816SOL     OW83221   3.542   3.086  14.806
93816SOL    HW183222   3.582   3.094   0.011
93816SOL    HW283223   3.610   3.045  14.752
93817SOL     OW83224  11.031  10.307   8.140
93817SOL    HW183225  11.007  10.227   8.094
93817SOL    HW283226  11.127  10.304   8.146
93818SOL     OW83227  12.522   9.972  10.651
93818SOL    HW183228  12.451   9.955  10.589
93818SOL    HW283229  12.565   9.888  10.663
93819SOL     OW83230   1.670  10.167  13.778
93819SOL    HW183231   1.719  10.099  13.732
93819SOL    HW283232   1.726  10.191  13.853
93820SOL     OW83233   0.045   1.637   0.486
93820SOL    HW183234   0.069   1.729   0.486
93820SOL    HW283235   0.062   1.607   0.575
93821SOL     OW83236   0.670   0.912  11.822
93821SOL    HW183237   0.731   0.976  11.785
93821SOL    HW283238   0.723   0.833  11.835
93822SOL     OW83239   8.151   8.703   2.784
93822SOL    HW183240   8.145   8.646   2.708
93822SOL    HW283241   8.110   8.785   2.756
93823SOL     OW83242   4.787   8.000  13.451
93823SOL    HW183243   4.717   7.935  13.456
93823SOL    HW283244   4.803   8.010  13.357
93824SOL     OW83245   4.343  11.457  13.040
93824SOL    HW183246   4.273  11.411  12.993
93824SOL    HW283247   4.304  11.478  13.125
93825SOL     OW83248  12.060  12.993  12.315
93825SOL    HW183249  12.020  12.951  12.392
93825SOL    HW283250  12.002  13.067  12.296
93826SOL     OW83251  12.633  10.233   1.358
93826SOL    HW183252  12.656  10.267   1.444
93826SOL    HW283253  12.544  10.265   1.342
93827SOL     OW83254  12.986  12.128  11.237
93827SOL    HW183255  13.000  12.128  11.143
93827SOL    HW283256  12.986  12.035  11.261
93828SOL     OW83257   7.311   9.141  10.703
93828SOL    HW183258   7.318   9.052  10.736
93828SOL    HW283259   7.393   9.157  10.656
93829SOL     OW83260  11.542  12.205   6.406
93829SOL    HW183261  11.550  12.111   6.388
93829SOL    HW283262  11.454  12.228   6.377
93830SOL     OW83263  13.161   3.738  11.433
93830SOL    HW183264  13.238   3.683  11.420
93830SOL    HW283265  13.091   3.693  11.386
93831SOL     OW83266   4.697  11.404   1.639
93831SOL    HW183267   4.618  11.458   1.643
93831SOL    HW283268   4.714  11.379   1.730
93832SOL     OW83269   3.516   2.851   2.695
93832SOL    HW183270   3.607   2.827   2.712
93832SOL    HW283271   3.481   2.877   2.780
93833SOL     OW83272   8.124   8.973   1.338
93833SOL    HW183273   8.084   8.984   1.425
93833SOL    HW283274   8.139   9.063   1.308
93834SOL     OW83275   8.751   3.442   8.316
93834SOL    HW183276   8.823   3.466   8.257
93834SOL    HW283277   8.772   3.353   8.344
93835SOL     OW83278  11.357  13.370  12.906
93835SOL    HW183279  11.357  13.359  12.811
93835SOL    HW283280  11.302  13.298  12.938
93836SOL     OW83281   2.144  13.488  13.522
93836SOL    HW183282   2.118  13.476  13.613
93836SOL    HW283283   2.216  13.426  13.508
93837SOL     OW83284   6.346  14.337   9.439
93837SOL    HW183285   6.399  14.269   9.399
93837SOL    HW283286   6.375  14.339   9.531
93838SOL     OW83287  10.526   1.325  11.125
93838SOL    HW183288  10.454   1.375  11.165
93838SOL    HW283289  10.567   1.387  11.065
93839SOL     OW83290   9.046  13.078   5.466
93839SOL    HW183291   9.063  13.107   5.376
93839SOL    HW283292   9.033  12.984   5.459
93840SOL     OW83293   0.337   0.503   9.829
93840SOL    HW183294   0.359   0.534   9.741
93840SOL    HW283295   0.364   0.574   9.887
93841SOL     OW83296  12.908   3.801   5.306
93841SOL    HW183297  12.906   3.749   5.225
93841SOL    HW283298  12.883   3.889   5.278
93842SOL     OW83299   4.477   3.705  13.952
93842SOL    HW183300   4.431   3.720  13.870
93842SOL    HW283301   4.552   3.765  13.950
93843SOL     OW83302   8.526  11.936   8.779
93843SOL    HW183303   8.573  11.890   8.710
93843SOL    HW283304   8.518  11.872   8.850
93844SOL     OW83305  11.488   6.377  12.148
93844SOL    HW183306  11.531   6.292  12.144
93844SOL    HW283307  11.395   6.357  12.157
93845SOL     OW83308   3.907  12.280   4.622
93845SOL    HW183309   3.825  12.285   4.572
93845SOL    HW283310   3.897  12.344   4.692
93846SOL     OW83311   9.817   4.779   3.730
93846SOL    HW183312   9.796   4.689   3.706
93846SOL    HW283313   9.815   4.827   3.647
93847SOL     OW83314  13.510  11.842  12.774
93847SOL    HW183315  13.492  11.925  12.728
93847SOL    HW283316  13.530  11.869  12.864
93848SOL     OW83317   2.008   6.907   4.065
93848SOL    HW183318   1.958   6.989   4.061
93848SOL    HW283319   2.055   6.903   3.982
93849SOL     OW83320   0.211  13.339   1.991
93849SOL    HW183321   0.179  13.337   1.901
93849SOL    HW283322   0.132  13.334   2.045
93850SOL     OW83323   2.527  11.739   0.909
93850SOL    HW183324   2.551  11.715   0.820
93850SOL    HW283325   2.580  11.683   0.965
93851SOL     OW83326   1.574  12.569   4.808
93851SOL    HW183327   1.503  12.620   4.768
93851SOL    HW283328   1.649  12.584   4.751
93852SOL     OW83329   9.056   2.657   9.135
93852SOL    HW183330   8.992   2.685   9.069
93852SOL    HW283331   9.139   2.653   9.087
93853SOL     OW83332   9.053   9.347  13.139
93853SOL    HW183333   9.148   9.356  13.144
93853SOL    HW283334   9.031   9.287  13.210
93854SOL     OW83335   6.912  14.215   0.156
93854SOL    HW183336   6.960  14.294   0.181
93854SOL    HW283337   6.957  14.144   0.202
93855SOL     OW83338  10.669   9.388   8.256
93855SOL    HW183339  10.584   9.347   8.272
93855SOL    HW283340  10.732   9.320   8.277
93856SOL     OW83341   2.860   1.693  11.949
93856SOL    HW183342   2.792   1.627  11.945
93856SOL    HW283343   2.897   1.695  11.861
93857SOL     OW83344   4.042   7.270   2.538
93857SOL    HW183345   4.063   7.182   2.571
93857SOL    HW283346   4.044   7.326   2.616
93858SOL     OW83347   6.978   9.721   9.444
93858SOL    HW183348   6.936   9.641   9.412
93858SOL    HW283349   6.920   9.753   9.513
93859SOL     OW83350   2.041   9.556   2.149
93859SOL    HW183351   2.025   9.642   2.110
93859SOL    HW283352   2.029   9.494   2.077
93860SOL     OW83353   7.077   8.706   3.717
93860SOL    HW183354   6.983   8.694   3.727
93860SOL    HW283355   7.085   8.768   3.644
93861SOL     OW83356   5.715  11.627  13.942
93861SOL    HW183357   5.726  11.541  13.901
93861SOL    HW283358   5.752  11.689  13.878
93862SOL     OW83359   1.475  14.315  11.390
93862SOL    HW183360   1.385  14.299  11.360
93862SOL    HW283361   1.469  14.319  11.485
93863SOL     OW83362   4.454   8.021  13.553
93863SOL    HW183363   4.504   7.967  13.492
93863SOL    HW283364   4.473   7.985  13.639
93864SOL     OW83365  14.373  11.196   0.879
93864SOL    HW183366  14.440  11.234   0.936
93864SOL    HW283367  14.309  11.265   0.866
93865SOL     OW83368   6.177   4.124   0.647
93865SOL    HW183369   6.097   4.079   0.618
93865SOL    HW283370   6.184   4.101   0.740
93866SOL     OW83371   9.666   4.603  13.147
93866SOL    HW183372   9.603   4.675  13.148
93866SOL    HW283373   9.696   4.598  13.056
93867SOL     OW83374  11.197   1.870  13.468
93867SOL    HW183375  11.282   1.830  13.488
93867SOL    HW283376  11.141   1.796  13.442
93868SOL     OW83377  10.921   7.545   9.570
93868SOL    HW183378  10.858   7.549   9.498
93868SOL    HW283379  10.953   7.455   9.569
93869SOL     OW83380   7.340  11.365   5.784
93869SOL    HW183381   7.409  11.377   5.849
93869SOL    HW283382   7.363  11.284   5.738
93870SOL     OW83383  10.872   1.376  12.411
93870SOL    HW183384  10.842   1.293  12.450
93870SOL    HW283385  10.861   1.440  12.481
93871SOL     OW83386  10.165  10.548   2.906
93871SOL    HW183387  10.142  10.573   2.816
93871SOL    HW283388  10.125  10.462   2.918
93872SOL     OW83389  12.530   9.486   2.415
93872SOL    HW183390  12.537   9.391   2.429
93872SOL    HW283391  12.568   9.524   2.494
93873SOL     OW83392  11.618  10.329   9.681
93873SOL    HW183393  11.562  10.287   9.616
93873SOL    HW283394  11.585  10.298   9.765
93874SOL     OW83395   9.557  14.288   5.935
93874SOL    HW183396   9.520  14.305   5.848
93874SOL    HW283397   9.503  14.341   5.994
93875SOL     OW83398   0.546  11.497   7.415
93875SOL    HW183399   0.463  11.521   7.455
93875SOL    HW283400   0.603  11.572   7.430
93876SOL     OW83401  11.276   6.613  14.692
93876SOL    HW183402  11.211   6.578  14.753
93876SOL    HW283403  11.267   6.559  14.614
93877SOL     OW83404   4.568   8.539  14.409
93877SOL    HW183405   4.629   8.543  14.336
93877SOL    HW283406   4.484   8.566  14.372
93878SOL     OW83407   1.193   6.369   6.887
93878SOL    HW183408   1.146   6.319   6.954
93878SOL    HW283409   1.284   6.339   6.893
93879SOL     OW83410  11.281   2.189   5.574
93879SOL    HW183411  11.319   2.197   5.662
93879SOL    HW283412  11.323   2.258   5.523
93880SOL     OW83413   7.998  10.866   0.185
93880SOL    HW183414   7.980  10.954   0.152
93880SOL    HW283415   7.922  10.845   0.239
93881SOL     OW83416   5.977   8.071   2.964
93881SOL    HW183417   5.939   8.069   2.876
93881SOL    HW283418   6.034   8.148   2.963
93882SOL     OW83419   4.129   0.823   1.271
93882SOL    HW183420   4.199   0.830   1.205
93882SOL    HW283421   4.137   0.904   1.321
93883SOL     OW83422  11.344   0.756  14.464
93883SOL    HW183423  11.352   0.761  14.559
93883SOL    HW283424  11.277   0.690  14.449
93884SOL     OW83425  11.985   1.579   8.291
93884SOL    HW183426  11.940   1.583   8.207
93884SOL    HW283427  12.074   1.551   8.270
93885SOL     OW83428   9.495   7.335  14.666
93885SOL    HW183429   9.572   7.299  14.621
93885SOL    HW283430   9.519   7.337  14.758
93886SOL     OW83431   0.182  12.855   3.858
93886SOL    HW183432   0.238  12.778   3.873
93886SOL    HW283433   0.205  12.884   3.770
93887SOL     OW83434   8.281   6.209  10.860
93887SOL    HW183435   8.317   6.202  10.948
93887SOL    HW283436   8.196   6.164  10.864
93888SOL     OW83437   9.284  13.530   2.422
93888SOL    HW183438   9.264  13.446   2.463
93888SOL    HW283439   9.218  13.590   2.455
93889SOL     OW83440  14.685  12.536   3.348
93889SOL    HW183441  14.732  12.453   3.338
93889SOL    HW283442  14.753  12.599   3.372
93890SOL     OW83443   6.127  12.340   1.569
93890SOL    HW183444   6.114  12.254   1.530
93890SOL    HW283445   6.041  12.365   1.602
93891SOL     OW83446  13.690   0.381   0.605
93891SOL    HW183447  13.627   0.328   0.654
93891SOL    HW283448  13.710   0.455   0.662
93892SOL     OW83449   9.703  13.855  11.069
93892SOL    HW183450   9.658  13.939  11.061
93892SOL    HW283451   9.647  13.794  11.021
93893SOL     OW83452   2.687   8.983   6.933
93893SOL    HW183453   2.782   8.971   6.927
93893SOL    HW283454   2.669   8.983   7.027
93894SOL     OW83455   8.209  13.322   3.620
93894SOL    HW183456   8.115  13.332   3.603
93894SOL    HW283457   8.249  13.400   3.583
93895SOL     OW83458   8.537   5.694   9.765
93895SOL    HW183459   8.546   5.758   9.835
93895SOL    HW283460   8.558   5.743   9.685
93896SOL     OW83461   4.105   2.978   9.347
93896SOL    HW183462   4.021   3.004   9.385
93896SOL    HW283463   4.146   2.925   9.415
93897SOL     OW83464  12.974  10.300   0.963
93897SOL    HW183465  12.966  10.342   1.048
93897SOL    HW283466  13.064  10.268   0.960
93898SOL     OW83467   7.406   5.457   8.785
93898SOL    HW183468   7.481   5.476   8.842
93898SOL    HW283469   7.397   5.361   8.787
93899SOL     OW83470   8.321  13.742   3.695
93899SOL    HW183471   8.339  13.673   3.631
93899SOL    HW283472   8.247  13.790   3.658
93900SOL     OW83473   3.616  12.266   4.540
93900SOL    HW183474   3.555  12.206   4.497
93900SOL    HW283475   3.660  12.311   4.468
93901SOL     OW83476   4.424  12.838   7.391
93901SOL    HW183477   4.365  12.793   7.330
93901SOL    HW283478   4.377  12.918   7.415
93902SOL     OW83479  14.542  10.635   5.879
93902SOL    HW183480  14.494  10.697   5.933
93902SOL    HW283481  14.605  10.595   5.939
93903SOL     OW83482  11.215   8.214   1.128
93903SOL    HW183483  11.207   8.230   1.034
93903SOL    HW283484  11.184   8.295   1.168
93904SOL     OW83485   0.246   5.446   6.576
93904SOL    HW183486   0.245   5.508   6.649
93904SOL    HW283487   0.266   5.500   6.499
93905SOL     OW83488   0.394   5.562   0.246
93905SOL    HW183489   0.328   5.628   0.225
93905SOL    HW283490   0.411   5.573   0.339
93906SOL     OW83491  14.697   4.585  13.711
93906SOL    HW183492  14.647   4.505  13.726
93906SOL    HW283493  14.740   4.602  13.795
93907SOL     OW83494   0.698   7.263   0.561
93907SOL    HW183495   0.791   7.240   0.550
93907SOL    HW283496   0.663   7.264   0.472
93908SOL     OW83497   2.086   2.247   3.394
93908SOL    HW183498   2.084   2.309   3.467
93908SOL    HW283499   2.174   2.256   3.357
93909SOL     OW83500   7.405  10.124  14.515
93909SOL    HW183501   7.365  10.122  14.428
93909SOL    HW283502   7.458  10.203  14.516
93910SOL     OW83503   1.981   3.462   4.830
93910SOL    HW183504   2.032   3.391   4.791
93910SOL    HW283505   1.945   3.509   4.756
93911SOL     OW83506   6.542   0.957   5.321
93911SOL    HW183507   6.569   1.049   5.326
93911SOL    HW283508   6.447   0.959   5.335
93912SOL     OW83509  12.009   8.325   4.175
93912SOL    HW183510  11.956   8.255   4.137
93912SOL    HW283511  12.040   8.376   4.100
93913SOL     OW83512   4.133  13.254  11.932
93913SOL    HW183513   4.121  13.160  11.942
93913SOL    HW283514   4.211  13.262  11.876
93914SOL     OW83515   6.272  11.211  13.855
93914SOL    HW183516   6.315  11.209  13.770
93914SOL    HW283517   6.224  11.294  13.857
93915SOL     OW83518   2.697   6.811   4.469
93915SOL    HW183519   2.625   6.776   4.522
93915SOL    HW283520   2.678   6.782   4.380
93916SOL     OW83521   6.273  14.814   8.008
93916SOL    HW183522   6.315  14.740   7.964
93916SOL    HW283523   6.189  14.823   7.962
93917SOL     OW83524   3.419   6.319   3.107
93917SOL    HW183525   3.349   6.384   3.114
93917SOL    HW283526   3.435   6.291   3.198
93918SOL     OW83527   4.016   7.778   9.241
93918SOL    HW183528   4.056   7.790   9.155
93918SOL    HW283529   3.981   7.865   9.263
93919SOL     OW83530   0.430   3.786   4.070
93919SOL    HW183531   0.384   3.729   4.131
93919SOL    HW283532   0.516   3.799   4.110
93920SOL     OW83533   6.794  12.687  13.541
93920SOL    HW183534   6.869  12.634  13.569
93920SOL    HW283535   6.730  12.622  13.510
93921SOL     OW83536   3.946  14.747   4.917
93921SOL    HW183537   4.000  14.824   4.904
93921SOL    HW283538   4.004  14.684   4.961
93922SOL     OW83539  11.228  11.204  13.632
93922SOL    HW183540  11.235  11.212  13.537
93922SOL    HW283541  11.311  11.239  13.665
93923SOL     OW83542   8.432   2.987   4.654
93923SOL    HW183543   8.348   3.034   4.650
93923SOL    HW283544   8.430   2.941   4.738
93924SOL     OW83545   9.318   1.087   0.048
93924SOL    HW183546   9.332   1.071  14.836
93924SOL    HW283547   9.389   1.038   0.091
93925SOL     OW83548   8.026   3.077  13.518
93925SOL    HW183549   7.969   3.021  13.570
93925SOL    HW283550   8.052   3.022  13.443
93926SOL     OW83551  12.543   0.805   2.599
93926SOL    HW183552  12.629   0.789   2.559
93926SOL    HW283553  12.563   0.833   2.688
93927SOL     OW83554  10.956   1.263   6.414
93927SOL    HW183555  10.924   1.303   6.333
93927SOL    HW283556  10.936   1.328   6.482
93928SOL     OW83557   8.416  14.569   5.416
93928SOL    HW183558   8.392  14.484   5.451
93928SOL    HW283559   8.496  14.593   5.463
93929SOL     OW83560   5.602   6.769   6.583
93929SOL    HW183561   5.683   6.797   6.541
93929SOL    HW283562   5.533   6.802   6.526
93930SOL     OW83563   9.167   2.462   1.233
93930SOL    HW183564   9.216   2.440   1.154
93930SOL    HW283565   9.108   2.387   1.247
93931SOL     OW83566   1.137  14.639   3.466
93931SOL    HW183567   1.162  14.615   3.376
93931SOL    HW283568   1.201  14.705   3.491
93932SOL     OW83569   2.107  12.055   7.159
93932SOL    HW183570   2.106  12.041   7.065
93932SOL    HW283571   2.034  12.003   7.192
93933SOL     OW83572  13.399   0.856   4.630
93933SOL    HW183573  13.461   0.880   4.562
93933SOL    HW283574  13.366   0.940   4.663
93934SOL     OW83575   5.551  10.149   5.794
93934SOL    HW183576   5.571  10.057   5.780
93934SOL    HW283577   5.546  10.159   5.889
93935SOL     OW83578   9.907   8.409  11.930
93935SOL    HW183579   9.929   8.445  12.016
93935SOL    HW283580   9.976   8.345  11.913
93936SOL     OW83581  12.397  13.144   7.072
93936SOL    HW183582  12.392  13.070   7.011
93936SOL    HW283583  12.462  13.117   7.138
93937SOL     OW83584   9.858   7.375   6.365
93937SOL    HW183585   9.834   7.318   6.438
93937SOL    HW283586   9.808   7.455   6.380
93938SOL     OW83587   3.290  10.988   1.763
93938SOL    HW183588   3.337  10.981   1.846
93938SOL    HW283589   3.356  11.021   1.701
93939SOL     OW83590   0.044   6.295  10.134
93939SOL    HW183591   0.005   6.345  10.062
93939SOL    HW283592   0.081   6.217  10.092
93940SOL     OW83593   9.043  13.366  11.241
93940SOL    HW183594   9.094  13.287  11.229
93940SOL    HW283595   9.070  13.424  11.169
93941SOL     OW83596  12.785   1.752   7.769
93941SOL    HW183597  12.696   1.733   7.739
93941SOL    HW283598  12.823   1.805   7.700
93942SOL     OW83599  10.012   7.479   4.183
93942SOL    HW183600   9.934   7.528   4.158
93942SOL    HW283601  10.075   7.498   4.112
93943SOL     OW83602  10.299   6.762   0.550
93943SOL    HW183603  10.206   6.784   0.546
93943SOL    HW283604  10.328   6.765   0.458
93944SOL     OW83605   8.573   8.842  11.137
93944SOL    HW183606   8.533   8.766  11.095
93944SOL    HW283607   8.623   8.885  11.067
93945SOL     OW83608  11.749   3.738   7.618
93945SOL    HW183609  11.679   3.803   7.624
93945SOL    HW283610  11.814   3.767   7.682
93946SOL     OW83611  12.816  14.568   5.230
93946SOL    HW183612  12.816  14.546   5.137
93946SOL    HW283613  12.825  14.484   5.275
93947SOL     OW83614  11.507   7.244   0.695
93947SOL    HW183615  11.540   7.256   0.606
93947SOL    HW283616  11.417   7.212   0.683
93948SOL     OW83617  14.269  14.524  12.732
93948SOL    HW183618  14.364  14.518  12.719
93948SOL    HW283619  14.232  14.514  12.644
93949SOL     OW83620   8.651   6.683   7.381
93949SOL    HW183621   8.742   6.707   7.401
93949SOL    HW283622   8.616   6.652   7.464
93950SOL     OW83623   4.443  12.560  10.542
93950SOL    HW183624   4.431  12.470  10.571
93950SOL    HW283625   4.523  12.557  10.488
93951SOL     OW83626   1.016   9.643  12.942
93951SOL    HW183627   0.929   9.623  12.976
93951SOL    HW283628   1.009   9.733  12.909
93952SOL     OW83629  12.356   5.918   5.023
93952SOL    HW183630  12.318   5.855   4.961
93952SOL    HW283631  12.301   5.912   5.101
93953SOL     OW83632  14.343   5.283   2.052
93953SOL    HW183633  14.318   5.207   2.104
93953SOL    HW283634  14.282   5.282   1.978
93954SOL     OW83635   9.208  14.599   0.176
93954SOL    HW183636   9.148  14.653   0.124
93954SOL    HW283637   9.294  14.618   0.139
93955SOL     OW83638   0.943  10.512   2.644
93955SOL    HW183639   0.901  10.474   2.721
93955SOL    HW283640   0.887  10.488   2.571
93956SOL     OW83641   2.832   1.598   9.234
93956SOL    HW183642   2.775   1.636   9.167
93956SOL    HW283643   2.884   1.672   9.266
93957SOL     OW83644  10.738   5.807   6.334
93957SOL    HW183645  10.650   5.779   6.360
93957SOL    HW283646  10.781   5.726   6.305
93958SOL     OW83647   9.942   3.355  12.212
93958SOL    HW183648   9.904   3.273  12.181
93958SOL    HW283649   9.972   3.336  12.300
93959SOL     OW83650   9.137   7.812  12.400
93959SOL    HW183651   9.155   7.859  12.482
93959SOL    HW283652   9.189   7.858  12.334
93960SOL     OW83653   9.366   6.780  14.787
93960SOL    HW183654   9.302   6.827  14.841
93960SOL    HW283655   9.382   6.838  14.712
93961SOL     OW83656  12.562   3.700   1.985
93961SOL    HW183657  12.588   3.624   1.933
93961SOL    HW283658  12.533   3.765   1.921
93962SOL     OW83659   9.719   1.457  14.377
93962SOL    HW183660   9.662   1.438  14.302
93962SOL    HW283661   9.808   1.453  14.342
93963SOL     OW83662   3.303   1.192   4.113
93963SOL    HW183663   3.309   1.167   4.021
93963SOL    HW283664   3.278   1.111   4.158
93964SOL     OW83665   6.175  10.606   4.763
93964SOL    HW183666   6.109  10.539   4.780
93964SOL    HW283667   6.157  10.674   4.828
93965SOL     OW83668   3.132   6.843   3.753
93965SOL    HW183669   3.206   6.797   3.793
93965SOL    HW283670   3.172   6.917   3.707
93966SOL     OW83671   4.288   0.333   7.178
93966SOL    HW183672   4.267   0.247   7.142
93966SOL    HW283673   4.302   0.317   7.272
93967SOL     OW83674   3.805   3.412  10.445
93967SOL    HW183675   3.773   3.339  10.392
93967SOL    HW283676   3.889   3.436  10.404
93968SOL     OW83677  10.748   0.980   4.305
93968SOL    HW183678  10.795   0.943   4.231
93968SOL    HW283679  10.817   1.003   4.368
93969SOL     OW83680   4.295   4.586   8.112
93969SOL    HW183681   4.383   4.604   8.146
93969SOL    HW283682   4.309   4.570   8.018
93970SOL     OW83683  11.565   4.429   2.164
93970SOL    HW183684  11.644   4.460   2.120
93970SOL    HW283685  11.594   4.409   2.253
93971SOL     OW83686   7.451  12.483   9.828
93971SOL    HW183687   7.499  12.414   9.874
93971SOL    HW283688   7.385  12.437   9.777
93972SOL     OW83689   6.931   3.370   2.267
93972SOL    HW183690   6.999   3.376   2.199
93972SOL    HW283691   6.979   3.344   2.346
93973SOL     OW83692   3.947   5.494   9.252
93973SOL    HW183693   4.020   5.443   9.219
93973SOL    HW283694   3.871   5.462   9.204
93974SOL     OW83695   0.138   6.564   7.469
93974SOL    HW183696   0.162   6.566   7.376
93974SOL    HW283697   0.101   6.477   7.482
93975SOL     OW83698   3.359   9.939   8.165
93975SOL    HW183699   3.361   9.862   8.221
93975SOL    HW283700   3.451   9.957   8.145
93976SOL     OW83701   4.739   5.803   3.532
93976SOL    HW183702   4.746   5.813   3.627
93976SOL    HW283703   4.655   5.844   3.510
93977SOL     OW83704   5.101   4.705  11.201
93977SOL    HW183705   5.107   4.639  11.132
93977SOL    HW283706   5.086   4.655  11.281
93978SOL     OW83707   6.314  14.227   1.049
93978SOL    HW183708   6.240  14.182   1.009
93978SOL    HW283709   6.357  14.159   1.102
93979SOL     OW83710   7.073   5.669   9.635
93979SOL    HW183711   7.109   5.656   9.723
93979SOL    HW283712   7.130   5.734   9.595
93980SOL     OW83713   2.576   6.513   9.302
93980SOL    HW183714   2.530   6.438   9.339
93980SOL    HW283715   2.593   6.570   9.377
93981SOL     OW83716   9.474   8.926   5.034
93981SOL    HW183717   9.432   8.916   5.119
93981SOL    HW283718   9.455   8.843   4.988
93982SOL     OW83719  11.632   2.022   6.844
93982SOL    HW183720  11.711   2.049   6.890
93982SOL    HW283721  11.598   1.949   6.896
93983SOL     OW83722   3.871   2.681   5.944
93983SOL    HW183723   3.941   2.627   5.981
93983SOL    HW283724   3.794   2.624   5.946
93984SOL     OW83725  10.866  10.992   7.096
93984SOL    HW183726  10.944  10.944   7.070
93984SOL    HW283727  10.818  11.007   7.014
93985SOL     OW83728   6.987   4.661   9.154
93985SOL    HW183729   6.923   4.692   9.218
93985SOL    HW283730   6.948   4.583   9.116
93986SOL     OW83731   8.314   1.438   7.261
93986SOL    HW183732   8.225   1.454   7.291
93986SOL    HW283733   8.369   1.472   7.332
93987SOL     OW83734   1.368   3.073   0.271
93987SOL    HW183735   1.448   3.072   0.323
93987SOL    HW283736   1.298   3.072   0.337
93988SOL     OW83737   2.963   1.390  13.366
93988SOL    HW183738   2.934   1.402  13.456
93988SOL    HW283739   2.891   1.423  13.313
93989SOL     OW83740   4.957   0.561   3.955
93989SOL    HW183741   4.882   0.602   3.912
93989SOL    HW283742   4.923   0.532   4.040
93990SOL     OW83743   4.568   8.547   5.936
93990SOL    HW183744   4.513   8.624   5.944
93990SOL    HW283745   4.625   8.566   5.861
93991SOL     OW83746   8.262   6.768   1.508
93991SOL    HW183747   8.289   6.729   1.591
93991SOL    HW283748   8.282   6.861   1.517
93992SOL     OW83749  12.373   9.651   7.494
93992SOL    HW183750  12.385   9.557   7.479
93992SOL    HW283751  12.353   9.686   7.407
93993SOL     OW83752  11.356   7.446   2.643
93993SOL    HW183753  11.295   7.493   2.586
93993SOL    HW283754  11.419   7.406   2.583
93994SOL     OW83755   7.250  10.699   8.141
93994SOL    HW183756   7.173  10.746   8.110
93994SOL    HW283757   7.309  10.768   8.173
93995SOL     OW83758   9.890   5.401   9.069
93995SOL    HW183759   9.963   5.462   9.059
93995SOL    HW283760   9.930   5.314   9.073
93996SOL     OW83761  12.935   5.303   8.450
93996SOL    HW183762  12.854   5.284   8.499
93996SOL    HW283763  12.926   5.251   8.370
93997SOL     OW83764   6.173  13.012   3.152
93997SOL    HW183765   6.216  13.058   3.080
93997SOL    HW283766   6.165  12.922   3.120
93998SOL     OW83767   8.269  11.158   3.365
93998SOL    HW183768   8.294  11.200   3.447
93998SOL    HW283769   8.176  11.139   3.374
93999SOL     OW83770   2.925   6.837   7.294
93999SOL    HW183771   2.965   6.793   7.219
93999SOL    HW283772   2.864   6.773   7.331
94000SOL     OW83773   5.921  13.714   6.529
94000SOL    HW183774   6.013  13.736   6.546
94000SOL    HW283775   5.874  13.753   6.603
94001SOL     OW83776   8.991  10.823   8.725
94001SOL    HW183777   9.065  10.874   8.694
94001SOL    HW283778   9.016  10.732   8.710
94002SOL     OW83779   3.686   0.562  12.778
94002SOL    HW183780   3.766   0.615  12.767
94002SOL    HW283781   3.617   0.627  12.793
94003SOL     OW83782   8.016   8.117  10.075
94003SOL    HW183783   8.026   8.084  10.164
94003SOL    HW283784   8.104   8.143  10.048
94004SOL     OW83785  12.056   0.349  13.345
94004SOL    HW183786  12.044   0.357  13.251
94004SOL    HW283787  12.021   0.431  13.381
94005SOL     OW83788   9.171  11.924   1.208
94005SOL    HW183789   9.163  11.894   1.299
94005SOL    HW283790   9.121  11.861   1.157
94006SOL     OW83791  13.658  10.917   4.964
94006SOL    HW183792  13.607  10.872   4.897
94006SOL    HW283793  13.736  10.862   4.975
94007SOL     OW83794   2.565   6.397   4.984
94007SOL    HW183795   2.553   6.450   4.906
94007SOL    HW283796   2.639   6.436   5.029
94008SOL     OW83797   8.821   5.967   5.210
94008SOL    HW183798   8.732   5.933   5.207
94008SOL    HW283799   8.830   6.020   5.131
94009SOL     OW83800   5.796   8.350   8.894
94009SOL    HW183801   5.840   8.432   8.916
94009SOL    HW283802   5.736   8.373   8.823
94010SOL     OW83803  13.048   8.687   7.525
94010SOL    HW183804  12.972   8.740   7.501
94010SOL    HW283805  13.107   8.748   7.569
94011SOL     OW83806   1.376   8.176   7.274
94011SOL    HW183807   1.321   8.120   7.328
94011SOL    HW283808   1.454   8.123   7.256
94012SOL     OW83809   3.752   5.944   7.055
94012SOL    HW183810   3.729   6.028   7.095
94012SOL    HW283811   3.804   5.899   7.122
94013SOL     OW83812  10.617   6.453  14.623
94013SOL    HW183813  10.587   6.525  14.678
94013SOL    HW283814  10.691   6.415  14.671
94014SOL     OW83815   2.320   8.027   4.010
94014SOL    HW183816   2.307   8.032   3.915
94014SOL    HW283817   2.297   7.937   4.032
94015SOL     OW83818  10.468  13.744   5.985
94015SOL    HW183819  10.472  13.834   6.016
94015SOL    HW283820  10.392  13.742   5.927
94016SOL     OW83821  10.339   2.445  13.975
94016SOL    HW183822  10.264   2.462  14.032
94016SOL    HW283823  10.358   2.530  13.935
94017SOL     OW83824   0.892   2.128   8.379
94017SOL    HW183825   0.939   2.046   8.370
94017SOL    HW283826   0.933   2.187   8.316
94018SOL     OW83827   4.634   9.215  14.268
94018SOL    HW183828   4.632   9.208  14.363
94018SOL    HW283829   4.717   9.260  14.249
94019SOL     OW83830  13.900  11.072   2.953
94019SOL    HW183831  13.862  11.133   3.017
94019SOL    HW283832  13.824  11.034   2.909
94020SOL     OW83833  14.735  12.729   5.213
94020SOL    HW183834  14.640  12.731   5.201
94020SOL    HW283835  14.765  12.812   5.176
94021SOL     OW83836  13.842  11.009  14.118
94021SOL    HW183837  13.889  10.975  14.195
94021SOL    HW283838  13.754  11.026  14.151
94022SOL     OW83839  11.864   3.550   4.513
94022SOL    HW183840  11.887   3.619   4.452
94022SOL    HW283841  11.781   3.579   4.552
94023SOL     OW83842   4.534   4.072   7.346
94023SOL    HW183843   4.526   4.000   7.409
94023SOL    HW283844   4.536   4.151   7.400
94024SOL     OW83845   5.513   1.577   2.437
94024SOL    HW183846   5.492   1.634   2.511
94024SOL    HW283847   5.607   1.588   2.424
94025SOL     OW83848   8.922  10.740   5.516
94025SOL    HW183849   8.906  10.718   5.608
94025SOL    HW283850   8.835  10.746   5.477
94026SOL     OW83851  14.134  12.865   0.972
94026SOL    HW183852  14.117  12.959   0.982
94026SOL    HW283853  14.088  12.824   1.046
94027SOL     OW83854   4.093   6.683  10.200
94027SOL    HW183855   4.121   6.751  10.261
94027SOL    HW283856   3.998   6.694  10.193
94028SOL     OW83857  11.588   1.508   8.584
94028SOL    HW183858  11.682   1.491   8.589
94028SOL    HW283859  11.572   1.528   8.491
94029SOL     OW83860   3.837  13.581   6.889
94029SOL    HW183861   3.880  13.666   6.896
94029SOL    HW283862   3.770  13.592   6.822
94030SOL     OW83863  14.010   0.738  12.498
94030SOL    HW183864  13.953   0.815  12.493
94030SOL    HW283865  14.053   0.747  12.583
94031SOL     OW83866   2.291   2.635   2.667
94031SOL    HW183867   2.372   2.584   2.662
94031SOL    HW283868   2.316   2.715   2.713
94032SOL     OW83869   5.173  10.411   5.834
94032SOL    HW183870   5.169  10.330   5.783
94032SOL    HW283871   5.097  10.406   5.892
94033SOL     OW83872   5.876   7.620   9.066
94033SOL    HW183873   5.966   7.623   9.033
94033SOL    HW283874   5.880   7.668   9.149
94034SOL     OW83875  10.361  14.779  10.627
94034SOL    HW183876  10.360  14.874  10.615
94034SOL    HW283877  10.269  14.756  10.640
94035SOL     OW83878  10.395   7.591   1.704
94035SOL    HW183879  10.333   7.566   1.636
94035SOL    HW283880  10.343   7.643   1.766
94036SOL     OW83881  11.534   0.906   8.377
94036SOL    HW183882  11.596   0.920   8.305
94036SOL    HW283883  11.484   0.829   8.351
94037SOL     OW83884   3.453  14.258   3.717
94037SOL    HW183885   3.539  14.235   3.752
94037SOL    HW283886   3.469  14.284   3.627
94038SOL     OW83887   9.195  10.138   3.503
94038SOL    HW183888   9.249  10.171   3.575
94038SOL    HW283889   9.244  10.063   3.468
94039SOL     OW83890  11.855   7.131  14.604
94039SOL    HW183891  11.884   7.131  14.695
94039SOL    HW283892  11.891   7.050  14.567
94040SOL     OW83893   2.190   8.262   2.876
94040SOL    HW183894   2.232   8.197   2.821
94040SOL    HW283895   2.262   8.306   2.921
94041SOL     OW83896   0.677  12.549   9.903
94041SOL    HW183897   0.753  12.601   9.929
94041SOL    HW283898   0.648  12.507   9.984
94042SOL     OW83899   4.473   3.685   9.845
94042SOL    HW183900   4.526   3.700   9.923
94042SOL    HW283901   4.490   3.762   9.790
94043SOL     OW83902  11.296   1.323  14.843
94043SOL    HW183903  11.336   1.335   0.048
94043SOL    HW283904  11.205   1.348  14.855
94044SOL     OW83905  11.221   4.580   8.893
94044SOL    HW183906  11.232   4.601   8.986
94044SOL    HW283907  11.310   4.562   8.861
94045SOL     OW83908  13.083   7.269   5.209
94045SOL    HW183909  13.142   7.202   5.242
94045SOL    HW283910  13.003   7.222   5.186
94046SOL     OW83911   8.799   3.553  11.978
94046SOL    HW183912   8.739   3.602  12.034
94046SOL    HW283913   8.848   3.620  11.929
94047SOL     OW83914  10.728   5.719   0.524
94047SOL    HW183915  10.717   5.811   0.501
94047SOL    HW283916  10.653   5.698   0.580
94048SOL     OW83917  14.150  13.663   3.397
94048SOL    HW183918  14.145  13.639   3.489
94048SOL    HW283919  14.092  13.739   3.389
94049SOL     OW83920   3.545   5.718   0.082
94049SOL    HW183921   3.569   5.626   0.077
94049SOL    HW283922   3.616   5.759   0.131
94050SOL     OW83923   2.978   9.271  12.020
94050SOL    HW183924   2.907   9.327  11.987
94050SOL    HW283925   3.046   9.333  12.048
94051SOL     OW83926  13.569   2.160   6.377
94051SOL    HW183927  13.594   2.089   6.317
94051SOL    HW283928  13.623   2.234   6.351
94052SOL     OW83929   1.729  12.500   5.035
94052SOL    HW183930   1.659  12.537   4.982
94052SOL    HW283931   1.684  12.454   5.106
94053SOL     OW83932   6.334  13.957  13.988
94053SOL    HW183933   6.401  14.003  14.040
94053SOL    HW283934   6.263  14.020  13.981
94054SOL     OW83935  11.005   7.983  11.460
94054SOL    HW183936  11.049   7.924  11.521
94054SOL    HW283937  11.027   7.949  11.373
94055SOL     OW83938   0.546  14.337   3.059
94055SOL    HW183939   0.484  14.407   3.076
94055SOL    HW283940   0.513  14.263   3.110
94056SOL     OW83941   8.198  10.377  11.861
94056SOL    HW183942   8.123  10.436  11.860
94056SOL    HW283943   8.163  10.293  11.831
94057SOL     OW83944  13.017   1.014  12.065
94057SOL    HW183945  13.089   0.970  12.021
94057SOL    HW283946  13.008   1.097  12.018
94058SOL     OW83947  12.760   0.852  10.794
94058SOL    HW183948  12.764   0.947  10.796
94058SOL    HW283949  12.804   0.824  10.874
94059SOL     OW83950   3.461   5.908   5.329
94059SOL    HW183951   3.445   5.923   5.423
94059SOL    HW283952   3.399   5.840   5.305
94060SOL     OW83953  10.890   3.608   0.258
94060SOL    HW183954  10.880   3.607   0.353
94060SOL    HW283955  10.984   3.597   0.243
94061SOL     OW83956  12.611   5.186   6.134
94061SOL    HW183957  12.591   5.095   6.154
94061SOL    HW283958  12.529   5.233   6.149
94062SOL     OW83959   8.381   8.805  14.253
94062SOL    HW183960   8.476   8.801  14.252
94062SOL    HW283961   8.360   8.862  14.328
94063SOL     OW83962   8.236   4.943   4.940
94063SOL    HW183963   8.249   5.035   4.918
94063SOL    HW283964   8.262   4.936   5.032
94064SOL     OW83965   3.723  14.085   5.355
94064SOL    HW183966   3.692  13.995   5.353
94064SOL    HW283967   3.773  14.092   5.436
94065SOL     OW83968  11.753   3.227   0.261
94065SOL    HW183969  11.775   3.312   0.222
94065SOL    HW283970  11.822   3.168   0.231
94066SOL     OW83971   5.852   0.081   3.721
94066SOL    HW183972   5.863   0.132   3.801
94066SOL    HW283973   5.940   0.047   3.702
94067SOL     OW83974  11.686   4.937   1.215
94067SOL    HW183975  11.746   4.893   1.275
94067SOL    HW283976  11.700   4.895   1.130
94068SOL     OW83977   6.340   1.780   5.085
94068SOL    HW183978   6.309   1.863   5.118
94068SOL    HW283979   6.267   1.745   5.033
94069SOL     OW83980  12.383  14.657  11.312
94069SOL    HW183981  12.340  14.580  11.349
94069SOL    HW283982  12.359  14.728  11.371
94070SOL     OW83983   2.386  13.105   3.133
94070SOL    HW183984   2.435  13.037   3.180
94070SOL    HW283985   2.323  13.057   3.079
94071SOL     OW83986  14.672   9.214   5.017
94071SOL    HW183987  14.686   9.119   5.011
94071SOL    HW283988  14.624   9.226   5.099
94072SOL     OW83989   5.834   4.977  11.671
94072SOL    HW183990   5.859   4.925  11.594
94072SOL    HW283991   5.751   4.939  11.699
94073SOL     OW83992   9.507  10.576   1.969
94073SOL    HW183993   9.554  10.551   2.049
94073SOL    HW283994   9.449  10.502   1.951
94074SOL     OW83995  12.090   6.164   2.471
94074SOL    HW183996  12.047   6.079   2.467
94074SOL    HW283997  12.103   6.189   2.379
94075SOL     OW83998   1.587   0.976   7.191
94075SOL    HW183999   1.655   1.043   7.194
94075SOL    HW284000   1.631   0.895   7.215
94076SOL     OW84001   2.684   5.319  13.655
94076SOL    HW184002   2.772   5.304  13.620
94076SOL    HW284003   2.687   5.406  13.694
94077SOL     OW84004   6.365   9.139   7.889
94077SOL    HW184005   6.307   9.116   7.962
94077SOL    HW284006   6.402   9.224   7.914
94078SOL     OW84007  11.310  13.169   6.166
94078SOL    HW184008  11.295  13.074   6.157
94078SOL    HW284009  11.346  13.179   6.254
94079SOL     OW84010  10.367   1.943  14.123
94079SOL    HW184011  10.415   1.998  14.186
94079SOL    HW284012  10.348   2.002  14.050
94080SOL     OW84013   1.993  11.871   6.867
94080SOL    HW184014   1.967  11.833   6.783
94080SOL    HW284015   2.030  11.797   6.916
94081SOL     OW84016   2.649   3.453  13.409
94081SOL    HW184017   2.604   3.467  13.492
94081SOL    HW284018   2.620   3.526  13.354
94082SOL     OW84019  14.000   2.505   6.392
94082SOL    HW184020  13.985   2.565   6.318
94082SOL    HW284021  13.927   2.521   6.452
94083SOL     OW84022  11.640   3.593  11.605
94083SOL    HW184023  11.677   3.605  11.693
94083SOL    HW284024  11.699   3.642  11.548
94084SOL     OW84025  11.185   6.578   7.987
94084SOL    HW184026  11.116   6.600   8.050
94084SOL    HW284027  11.224   6.498   8.022
94085SOL     OW84028  13.232   7.585   8.877
94085SOL    HW184029  13.295   7.518   8.903
94085SOL    HW284030  13.156   7.535   8.847
94086SOL     OW84031   4.082  11.897   8.919
94086SOL    HW184032   4.034  11.817   8.943
94086SOL    HW284033   4.127  11.923   8.999
94087SOL     OW84034   7.722   3.327   9.509
94087SOL    HW184035   7.733   3.233   9.523
94087SOL    HW284036   7.665   3.356   9.580
94088SOL     OW84037  10.451   7.943   1.957
94088SOL    HW184038  10.466   7.870   2.017
94088SOL    HW284039  10.508   8.012   1.990
94089SOL     OW84040  13.607   9.336   5.625
94089SOL    HW184041  13.552   9.413   5.641
94089SOL    HW284042  13.660   9.327   5.705
94090SOL     OW84043  11.714  12.312   1.419
94090SOL    HW184044  11.731  12.406   1.416
94090SOL    HW284045  11.700  12.287   1.328
94091SOL     OW84046   1.337   1.084   6.045
94091SOL    HW184047   1.266   1.035   6.086
94091SOL    HW284048   1.392   1.114   6.118
94092SOL     OW84049  14.093   1.020   1.313
94092SOL    HW184050  14.144   1.002   1.235
94092SOL    HW284051  14.055   1.106   1.298
94093SOL     OW84052   2.202  14.302   7.959
94093SOL    HW184053   2.251  14.383   7.948
94093SOL    HW284054   2.121  14.328   8.002
94094SOL     OW84055   4.250  10.843  12.928
94094SOL    HW184056   4.221  10.887  13.008
94094SOL    HW284057   4.330  10.890  12.902
94095SOL     OW84058   5.841   3.608   1.356
94095SOL    HW184059   5.838   3.515   1.334
94095SOL    HW284060   5.831   3.653   1.272
94096SOL     OW84061   0.713   9.742   4.635
94096SOL    HW184062   0.629   9.722   4.594
94096SOL    HW284063   0.767   9.775   4.564
94097SOL     OW84064  13.054   1.773  13.209
94097SOL    HW184065  13.132   1.789  13.155
94097SOL    HW284066  13.004   1.854  13.202
94098SOL     OW84067   1.740   3.569   6.963
94098SOL    HW184068   1.670   3.606   6.910
94098SOL    HW284069   1.724   3.603   7.051
94099SOL     OW84070   9.386   0.520  14.471
94099SOL    HW184071   9.415   0.430  14.484
94099SOL    HW284072   9.381   0.557  14.560
94100SOL     OW84073   9.179   3.969   4.101
94100SOL    HW184074   9.161   3.877   4.082
94100SOL    HW284075   9.132   3.986   4.183
94101SOL     OW84076  14.035   3.534   7.882
94101SOL    HW184077  14.114   3.572   7.921
94101SOL    HW284078  13.977   3.609   7.868
94102SOL     OW84079   7.877  13.470  11.142
94102SOL    HW184080   7.906  13.434  11.058
94102SOL    HW284081   7.930  13.549  11.153
94103SOL     OW84082   9.803   4.471   9.936
94103SOL    HW184083   9.816   4.469  10.031
94103SOL    HW284084   9.888   4.447   9.899
94104SOL     OW84085  13.687   8.406  12.882
94104SOL    HW184086  13.753   8.360  12.830
94104SOL    HW284087  13.645   8.338  12.934
94105SOL     OW84088   7.667   5.454   6.309
94105SOL    HW184089   7.585   5.409   6.325
94105SOL    HW284090   7.734   5.388   6.324
94106SOL     OW84091  13.327   9.693  13.011
94106SOL    HW184092  13.293   9.621  12.958
94106SOL    HW284093  13.421   9.675  13.018
94107SOL     OW84094   8.225   8.542   8.267
94107SOL    HW184095   8.158   8.500   8.213
94107SOL    HW284096   8.187   8.548   8.354
94108SOL     OW84097   8.432  11.678   8.585
94108SOL    HW184098   8.515  11.631   8.588
94108SOL    HW284099   8.370  11.624   8.633
94109SOL     OW84100   0.699   0.891   6.709
94109SOL    HW184101   0.622   0.915   6.762
94109SOL    HW284102   0.769   0.947   6.743
94110SOL     OW84103   9.019  12.949  14.228
94110SOL    HW184104   9.086  12.950  14.160
94110SOL    HW284105   8.987  13.039  14.233
94111SOL     OW84106   7.872   5.464   3.352
94111SOL    HW184107   7.871   5.382   3.303
94111SOL    HW284108   7.924   5.445   3.431
94112SOL     OW84109   6.060   7.157   1.866
94112SOL    HW184110   6.045   7.227   1.804
94112SOL    HW284111   5.983   7.158   1.923
94113SOL     OW84112  13.999   9.299  11.883
94113SOL    HW184113  14.041   9.213  11.891
94113SOL    HW284114  14.000   9.334  11.973
94114SOL     OW84115   9.056   3.229   9.611
94114SOL    HW184116   9.142   3.200   9.580
94114SOL    HW284117   9.060   3.217   9.706
94115SOL     OW84118   3.370  13.522   4.782
94115SOL    HW184119   3.367  13.430   4.757
94115SOL    HW284120   3.391  13.568   4.701
94116SOL     OW84121   4.726   5.642   3.250
94116SOL    HW184122   4.709   5.638   3.156
94116SOL    HW284123   4.683   5.564   3.285
94117SOL     OW84124   5.661   3.456   6.928
94117SOL    HW184125   5.720   3.382   6.943
94117SOL    HW284126   5.719   3.530   6.908
94118SOL     OW84127   0.973   5.754   8.568
94118SOL    HW184128   0.993   5.662   8.587
94118SOL    HW284129   1.043   5.803   8.609
94119SOL     OW84130  14.365   5.199  11.746
94119SOL    HW184131  14.421   5.184  11.670
94119SOL    HW284132  14.421   5.245  11.809
94120SOL     OW84133  12.813   3.892  14.549
94120SOL    HW184134  12.879   3.894  14.619
94120SOL    HW284135  12.773   3.806  14.556
94121SOL     OW84136   2.244   9.745   5.181
94121SOL    HW184137   2.164   9.719   5.135
94121SOL    HW284138   2.314   9.702   5.132
94122SOL     OW84139  13.357   0.695   4.844
94122SOL    HW184140  13.274   0.649   4.840
94122SOL    HW284141  13.369   0.731   4.756
94123SOL     OW84142  13.344   1.106   2.307
94123SOL    HW184143  13.253   1.080   2.289
94123SOL    HW284144  13.397   1.034   2.272
94124SOL     OW84145   5.864  10.268   5.889
94124SOL    HW184146   5.882  10.304   5.976
94124SOL    HW284147   5.771  10.284   5.875
94125SOL     OW84148   6.574   5.077   9.427
94125SOL    HW184149   6.548   5.042   9.512
94125SOL    HW284150   6.552   5.170   9.432
94126SOL     OW84151   4.863  13.681  10.437
94126SOL    HW184152   4.906  13.752  10.484
94126SOL    HW284153   4.924  13.657  10.367
94127SOL     OW84154  12.375   4.724   4.096
94127SOL    HW184155  12.397   4.779   4.171
94127SOL    HW284156  12.368   4.784   4.023
94128SOL     OW84157  12.315  13.890  11.408
94128SOL    HW184158  12.383  13.873  11.473
94128SOL    HW284159  12.286  13.979  11.427
94129SOL     OW84160   5.024   1.809   5.810
94129SOL    HW184161   4.934   1.778   5.804
94129SOL    HW284162   5.059   1.798   5.722
94130SOL     OW84163   2.521  11.907   1.691
94130SOL    HW184164   2.521  11.815   1.717
94130SOL    HW284165   2.490  11.953   1.769
94131SOL     OW84166  10.152   2.709   5.715
94131SOL    HW184167  10.152   2.743   5.805
94131SOL    HW284168  10.150   2.787   5.660
94132SOL     OW84169  11.299  11.326   7.577
94132SOL    HW184170  11.217  11.285   7.553
94132SOL    HW284171  11.273  11.401   7.631
94133SOL     OW84172  12.279   8.260   0.866
94133SOL    HW184173  12.348   8.195   0.851
94133SOL    HW284174  12.273   8.309   0.784
94134SOL     OW84175   3.211   0.432  11.635
94134SOL    HW184176   3.133   0.393  11.596
94134SOL    HW284177   3.273   0.439  11.562
94135SOL     OW84178  11.971   3.783   9.184
94135SOL    HW184179  11.939   3.747   9.101
94135SOL    HW284180  12.038   3.722   9.213
94136SOL     OW84181  12.564   0.763   5.463
94136SOL    HW184182  12.517   0.680   5.468
94136SOL    HW284183  12.543   0.809   5.544
94137SOL     OW84184   6.820   4.477  12.574
94137SOL    HW184185   6.759   4.466  12.501
94137SOL    HW284186   6.874   4.397  12.573
94138SOL     OW84187  12.076   7.769  10.236
94138SOL    HW184188  12.036   7.800  10.318
94138SOL    HW284189  12.018   7.699  10.207
94139SOL     OW84190   6.839   7.090   0.273
94139SOL    HW184191   6.828   7.094   0.368
94139SOL    HW284192   6.774   7.027   0.244
94140SOL     OW84193   6.404   7.375   0.254
94140SOL    HW184194   6.395   7.285   0.284
94140SOL    HW284195   6.320   7.416   0.274
94141SOL     OW84196   6.338   2.695   0.192
94141SOL    HW184197   6.284   2.768   0.160
94141SOL    HW284198   6.281   2.649   0.253
94142SOL     OW84199   9.038   8.555   0.029
94142SOL    HW184200   9.028   8.485  14.847
94142SOL    HW284201   8.984   8.626  14.878
94143SOL     OW84202   6.579   4.681  12.280
94143SOL    HW184203   6.550   4.677  12.189
94143SOL    HW284204   6.651   4.744  12.280
94144SOL     OW84205   5.027  13.791   5.823
94144SOL    HW184206   5.034  13.704   5.782
94144SOL    HW284207   5.105  13.838   5.793
94145SOL     OW84208   0.405   6.125   9.435
94145SOL    HW184209   0.323   6.115   9.386
94145SOL    HW284210   0.396   6.064   9.508
94146SOL     OW84211  13.261  14.468   3.645
94146SOL    HW184212  13.313  14.511   3.713
94146SOL    HW284213  13.319  14.401   3.610
94147SOL     OW84214  14.446  11.440   1.596
94147SOL    HW184215  14.435  11.513   1.536
94147SOL    HW284216  14.532  11.454   1.636
94148SOL     OW84217  12.099   4.292   9.889
94148SOL    HW184218  12.012   4.255   9.906
94148SOL    HW284219  12.121   4.340   9.968
94149SOL     OW84220   8.597  10.418  10.771
94149SOL    HW184221   8.527  10.473  10.805
94149SOL    HW284222   8.581  10.332  10.812
94150SOL     OW84223   1.970  13.043   3.555
94150SOL    HW184224   2.052  13.050   3.506
94150SOL    HW284225   1.960  13.129   3.597
94151SOL     OW84226   1.166  11.509  12.469
94151SOL    HW184227   1.139  11.421  12.444
94151SOL    HW284228   1.146  11.515  12.563
94152SOL     OW84229   4.611   0.646  13.162
94152SOL    HW184230   4.644   0.736  13.172
94152SOL    HW284231   4.645   0.600  13.238
94153SOL     OW84232  11.703   9.999   6.394
94153SOL    HW184233  11.727   9.942   6.467
94153SOL    HW284234  11.774  10.063   6.388
94154SOL     OW84235   5.471  13.320  12.059
94154SOL    HW184236   5.448  13.281  11.975
94154SOL    HW284237   5.390  13.363  12.088
94155SOL     OW84238   8.291   1.828  13.138
94155SOL    HW184239   8.315   1.812  13.047
94155SOL    HW284240   8.248   1.914  13.137
94156SOL     OW84241  13.816  10.982   0.467
94156SOL    HW184242  13.774  11.067   0.454
94156SOL    HW284243  13.884  10.999   0.532
94157SOL     OW84244  10.326   2.956   6.335
94157SOL    HW184245  10.348   2.885   6.396
94157SOL    HW284246  10.245   2.993   6.370
94158SOL     OW84247  14.061   1.652   2.747
94158SOL    HW184248  14.135   1.651   2.686
94158SOL    HW284249  14.042   1.559   2.763
94159SOL     OW84250  12.916   3.456   2.750
94159SOL    HW184251  12.867   3.466   2.832
94159SOL    HW284252  12.863   3.396   2.697
94160SOL     OW84253   3.136   7.470   5.681
94160SOL    HW184254   3.171   7.545   5.632
94160SOL    HW284255   3.140   7.498   5.772
94161SOL     OW84256   8.555   9.690  11.155
94161SOL    HW184257   8.594   9.756  11.212
94161SOL    HW284258   8.618   9.617  11.158
94162SOL     OW84259   2.190   9.385   3.501
94162SOL    HW184260   2.272   9.364   3.457
94162SOL    HW284261   2.211   9.458   3.559
94163SOL     OW84262   5.206   6.062  13.537
94163SOL    HW184263   5.271   6.080  13.470
94163SOL    HW284264   5.125   6.045  13.488
94164SOL     OW84265   0.946   6.068   3.204
94164SOL    HW184266   1.035   6.102   3.218
94164SOL    HW284267   0.891   6.146   3.205
94165SOL     OW84268   6.678   4.698   6.487
94165SOL    HW184269   6.701   4.660   6.403
94165SOL    HW284270   6.610   4.762   6.466
94166SOL     OW84271   8.892  12.074   4.161
94166SOL    HW184272   8.850  12.002   4.114
94166SOL    HW284273   8.821  12.136   4.178
94167SOL     OW84274   7.348   6.509   0.473
94167SOL    HW184275   7.404   6.572   0.518
94167SOL    HW284276   7.316   6.556   0.396
94168SOL     OW84277   3.708   5.473   1.218
94168SOL    HW184278   3.755   5.548   1.181
94168SOL    HW284279   3.740   5.398   1.169
94169SOL     OW84280   9.858  12.453  14.535
94169SOL    HW184281   9.884  12.539  14.501
94169SOL    HW284282   9.777  12.432  14.488
94170SOL     OW84283   7.798   3.426   6.930
94170SOL    HW184284   7.777   3.518   6.912
94170SOL    HW284285   7.889   3.416   6.903
94171SOL     OW84286   7.912  11.586   0.166
94171SOL    HW184287   7.969  11.594   0.089
94171SOL    HW284288   7.902  11.492   0.178
94172SOL     OW84289   9.570   6.336   1.314
94172SOL    HW184290   9.583   6.326   1.220
94172SOL    HW284291   9.566   6.431   1.328
94173SOL     OW84292   3.785   0.060  14.697
94173SOL    HW184293   3.750   0.093  14.614
94173SOL    HW284294   3.828  14.859  14.674
94174SOL     OW84295   2.189   1.464  14.565
94174SOL    HW184296   2.223   1.439  14.479
94174SOL    HW284297   2.107   1.416  14.573
94175SOL     OW84298   8.524   7.028   6.773
94175SOL    HW184299   8.453   7.044   6.711
94175SOL    HW284300   8.500   7.078   6.851
94176SOL     OW84301  10.982   5.568   5.631
94176SOL    HW184302  10.980   5.639   5.566
94176SOL    HW284303  10.948   5.609   5.711
94177SOL     OW84304  10.060   8.162  13.064
94177SOL    HW184305  10.035   8.235  13.120
94177SOL    HW284306  10.137   8.193  13.017
94178SOL     OW84307   6.558   7.739  14.106
94178SOL    HW184308   6.505   7.668  14.067
94178SOL    HW284309   6.499   7.780  14.169
94179SOL     OW84310  11.210   7.686   5.160
94179SOL    HW184311  11.176   7.650   5.078
94179SOL    HW284312  11.263   7.761   5.133
94180SOL     OW84313   2.817  14.341   4.282
94180SOL    HW184314   2.855  14.256   4.303
94180SOL    HW284315   2.892  14.396   4.259
94181SOL     OW84316  11.158  10.037  11.295
94181SOL    HW184317  11.183  10.073  11.380
94181SOL    HW284318  11.124   9.950  11.314
94182SOL     OW84319   6.597   6.564   8.155
94182SOL    HW184320   6.648   6.547   8.234
94182SOL    HW284321   6.506   6.552   8.182
94183SOL     OW84322  11.570  13.132  11.370
94183SOL    HW184323  11.608  13.084  11.443
94183SOL    HW284324  11.633  13.201  11.350
94184SOL     OW84325   4.902  14.285   4.537
94184SOL    HW184326   4.824  14.232   4.517
94184SOL    HW284327   4.967  14.257   4.473
94185SOL     OW84328  10.127   5.361   0.794
94185SOL    HW184329  10.167   5.275   0.810
94185SOL    HW284330  10.141   5.377   0.700
94186SOL     OW84331   4.964   7.738   7.679
94186SOL    HW184332   4.957   7.811   7.740
94186SOL    HW284333   5.058   7.720   7.674
94187SOL     OW84334   5.528   1.160   1.740
94187SOL    HW184335   5.505   1.068   1.738
94187SOL    HW284336   5.460   1.202   1.792
94188SOL     OW84337   4.700   8.832   9.142
94188SOL    HW184338   4.615   8.847   9.184
94188SOL    HW284339   4.702   8.737   9.126
94189SOL     OW84340   2.469   5.536   0.418
94189SOL    HW184341   2.563   5.547   0.403
94189SOL    HW284342   2.442   5.615   0.465
94190SOL     OW84343   4.170   2.377   7.749
94190SOL    HW184344   4.101   2.371   7.683
94190SOL    HW284345   4.196   2.286   7.764
94191SOL     OW84346   8.531  10.792   0.665
94191SOL    HW184347   8.582  10.786   0.584
94191SOL    HW284348   8.451  10.744   0.646
94192SOL     OW84349  14.802   2.479   5.761
94192SOL    HW184350   0.003   2.446   5.796
94192SOL    HW284351  14.825   2.563   5.720
94193SOL     OW84352  10.316   0.817  11.227
94193SOL    HW184353  10.279   0.893  11.272
94193SOL    HW284354  10.254   0.746  11.244
94194SOL     OW84355   5.242   6.706   2.643
94194SOL    HW184356   5.270   6.640   2.579
94194SOL    HW284357   5.162   6.669   2.682
94195SOL     OW84358   5.283   7.652   7.013
94195SOL    HW184359   5.252   7.577   7.065
94195SOL    HW284360   5.376   7.634   6.998
94196SOL     OW84361   9.884  11.867   9.057
94196SOL    HW184362   9.900  11.811   8.981
94196SOL    HW284363   9.811  11.923   9.030
94197SOL     OW84364   3.973   9.450   3.708
94197SOL    HW184365   3.914   9.422   3.778
94197SOL    HW284366   3.967   9.381   3.643
94198SOL     OW84367   3.273   7.855   3.492
94198SOL    HW184368   3.340   7.787   3.496
94198SOL    HW284369   3.218   7.839   3.568
94199SOL     OW84370  10.278   7.266   6.936
94199SOL    HW184371  10.199   7.313   6.908
94199SOL    HW284372  10.247   7.206   7.004
94200SOL     OW84373   6.392  12.051   3.903
94200SOL    HW184374   6.478  12.018   3.876
94200SOL    HW284375   6.386  12.029   3.996
94201SOL     OW84376   6.480   7.923   2.692
94201SOL    HW184377   6.410   7.917   2.627
94201SOL    HW284378   6.484   8.016   2.714
94202SOL     OW84379   1.066   0.160   6.604
94202SOL    HW184380   1.047   0.241   6.556
94202SOL    HW284381   1.128   0.114   6.548
94203SOL     OW84382   3.489  12.065  11.490
94203SOL    HW184383   3.426  12.036  11.557
94203SOL    HW284384   3.546  12.127  11.536
94204SOL     OW84385  14.438   7.692   0.735
94204SOL    HW184386  14.391   7.724   0.658
94204SOL    HW284387  14.396   7.736   0.809
94205SOL     OW84388  13.624   5.413   9.991
94205SOL    HW184389  13.557   5.427   9.925
94205SOL    HW284390  13.634   5.497  10.034
94206SOL     OW84391   0.342   2.525  11.347
94206SOL    HW184392   0.352   2.439  11.308
94206SOL    HW284393   0.422   2.539  11.397
94207SOL     OW84394  14.109   9.676   6.683
94207SOL    HW184395  14.192   9.630   6.670
94207SOL    HW284396  14.069   9.633   6.757
94208SOL     OW84397  11.957   9.054  14.862
94208SOL    HW184398  11.907   9.125  14.820
94208SOL    HW284399  11.894   8.983  14.872
94209SOL     OW84400   1.444  11.269   2.524
94209SOL    HW184401   1.441  11.181   2.485
94209SOL    HW284402   1.385  11.321   2.469
94210SOL     OW84403   7.213   2.161   8.031
94210SOL    HW184404   7.254   2.079   8.058
94210SOL    HW284405   7.120   2.148   8.047
94211SOL     OW84406   0.596   3.607   4.564
94211SOL    HW184407   0.629   3.578   4.479
94211SOL    HW284408   0.615   3.535   4.624
94212SOL     OW84409  10.841   1.279   3.558
94212SOL    HW184410  10.771   1.219   3.584
94212SOL    HW284411  10.903   1.277   3.631
94213SOL     OW84412   6.200   7.096   7.450
94213SOL    HW184413   6.279   7.137   7.484
94213SOL    HW284414   6.132   7.163   7.462
94214SOL     OW84415   5.588  13.225  12.644
94214SOL    HW184416   5.521  13.270  12.695
94214SOL    HW284417   5.580  13.133  12.669
94215SOL     OW84418   9.399   1.823   1.581
94215SOL    HW184419   9.481   1.869   1.560
94215SOL    HW284420   9.340   1.893   1.610
94216SOL     OW84421   2.743   4.065  12.900
94216SOL    HW184422   2.801   4.139  12.920
94216SOL    HW284423   2.673   4.103  12.847
94217SOL     OW84424   9.663  14.517   9.112
94217SOL    HW184425   9.757  14.526   9.095
94217SOL    HW284426   9.635  14.604   9.141
94218SOL     OW84427   6.439   6.458   6.769
94218SOL    HW184428   6.382   6.393   6.810
94218SOL    HW284429   6.439   6.533   6.828
94219SOL     OW84430   5.061  14.011   4.964
94219SOL    HW184431   4.970  14.006   4.935
94219SOL    HW284432   5.085  14.103   4.952
94220SOL     OW84433   9.509   8.121   5.253
94220SOL    HW184434   9.434   8.180   5.247
94220SOL    HW284435   9.518   8.085   5.165
94221SOL     OW84436   9.720  12.371  10.120
94221SOL    HW184437   9.746  12.402  10.207
94221SOL    HW284438   9.803  12.348  10.078
94222SOL     OW84439   0.870   0.484   0.323
94222SOL    HW184440   0.779   0.490   0.353
94222SOL    HW284441   0.897   0.575   0.312
94223SOL     OW84442   3.359  14.788  13.310
94223SOL    HW184443   3.328  14.877  13.290
94223SOL    HW284444   3.383  14.751  13.225
94224SOL     OW84445   1.021  11.035   6.836
94224SOL    HW184446   0.995  11.038   6.928
94224SOL    HW284447   1.108  10.994   6.838
94225SOL     OW84448   1.935   0.535   2.809
94225SOL    HW184449   1.997   0.608   2.815
94225SOL    HW284450   1.983   0.460   2.843
94226SOL     OW84451   3.330   1.182   4.903
94226SOL    HW184452   3.334   1.254   4.840
94226SOL    HW284453   3.342   1.103   4.849
94227SOL     OW84454  11.288  12.223   7.181
94227SOL    HW184455  11.276  12.217   7.086
94227SOL    HW284456  11.208  12.265   7.212
94228SOL     OW84457   9.024   5.736   0.773
94228SOL    HW184458   9.023   5.788   0.854
94228SOL    HW284459   8.992   5.796   0.706
94229SOL     OW84460  11.039  13.688   2.915
94229SOL    HW184461  11.014  13.731   2.997
94229SOL    HW284462  10.962  13.638   2.889
94230SOL     OW84463  12.303   1.249   9.291
94230SOL    HW184464  12.258   1.327   9.259
94230SOL    HW284465  12.396   1.269   9.280
94231SOL     OW84466  11.101   1.622   1.798
94231SOL    HW184467  11.119   1.566   1.722
94231SOL    HW284468  11.178   1.611   1.854
94232SOL     OW84469  10.148   6.672   4.813
94232SOL    HW184470  10.178   6.586   4.786
94232SOL    HW284471  10.098   6.705   4.738
94233SOL     OW84472  10.843   2.574   1.784
94233SOL    HW184473  10.759   2.588   1.740
94233SOL    HW284474  10.902   2.637   1.744
94234SOL     OW84475   0.696   4.857   5.219
94234SOL    HW184476   0.756   4.845   5.293
94234SOL    HW284477   0.749   4.836   5.142
94235SOL     OW84478  14.810   1.897   8.787
94235SOL    HW184479  14.730   1.948   8.798
94235SOL    HW284480  14.807   1.867   8.696
94236SOL     OW84481   4.124   9.169   6.946
94236SOL    HW184482   4.190   9.128   7.002
94236SOL    HW284483   4.073   9.225   7.005
94237SOL     OW84484  12.763   1.326  10.722
94237SOL    HW184485  12.802   1.317  10.635
94237SOL    HW284486  12.688   1.384  10.709
94238SOL     OW84487   5.186  13.091   6.604
94238SOL    HW184488   5.244  13.134   6.667
94238SOL    HW284489   5.122  13.158   6.580
94239SOL     OW84490  13.894  11.064   1.431
94239SOL    HW184491  13.803  11.067   1.401
94239SOL    HW284492  13.892  11.097   1.521
94240SOL     OW84493   6.098  14.469   5.785
94240SOL    HW184494   6.111  14.435   5.697
94240SOL    HW284495   6.186  14.476   5.822
94241SOL     OW84496   6.799  12.576  11.863
94241SOL    HW184497   6.831  12.662  11.836
94241SOL    HW284498   6.844  12.514  11.806
94242SOL     OW84499   3.570   6.132  12.584
94242SOL    HW184500   3.602   6.071  12.517
94242SOL    HW284501   3.638   6.200  12.589
94243SOL     OW84502   0.986   8.572  10.714
94243SOL    HW184503   0.916   8.550  10.653
94243SOL    HW284504   1.065   8.577  10.659
94244SOL     OW84505   7.998  10.412   5.441
94244SOL    HW184506   8.076  10.365   5.470
94244SOL    HW284507   8.009  10.501   5.474
94245SOL     OW84508  11.321   6.113  11.030
94245SOL    HW184509  11.243   6.152  10.991
94245SOL    HW284510  11.333   6.031  10.982
94246SOL     OW84511   9.699   6.967   2.110
94246SOL    HW184512   9.767   7.029   2.086
94246SOL    HW284513   9.620   7.020   2.122
94247SOL     OW84514  11.612  12.175   2.404
94247SOL    HW184515  11.603  12.109   2.335
94247SOL    HW284516  11.682  12.142   2.460
94248SOL     OW84517   5.704   1.408   1.456
94248SOL    HW184518   5.783   1.361   1.428
94248SOL    HW284519   5.690   1.473   1.387
94249SOL     OW84520   5.453   9.608  11.803
94249SOL    HW184521   5.437   9.685  11.858
94249SOL    HW284522   5.442   9.534  11.862
94250SOL     OW84523  11.483   1.539   2.342
94250SOL    HW184524  11.446   1.540   2.430
94250SOL    HW284525  11.536   1.618   2.337
94251SOL     OW84526   7.470   9.288   5.674
94251SOL    HW184527   7.447   9.380   5.690
94251SOL    HW284528   7.440   9.242   5.753
94252SOL     OW84529   3.557   2.718  11.029
94252SOL    HW184530   3.614   2.728  10.953
94252SOL    HW284531   3.468   2.722  10.992
94253SOL     OW84532  13.795  12.061  12.066
94253SOL    HW184533  13.765  12.003  11.996
94253SOL    HW284534  13.833  12.136  12.020
94254SOL     OW84535   5.655   5.930   0.461
94254SOL    HW184536   5.640   5.923   0.367
94254SOL    HW284537   5.740   5.888   0.474
94255SOL     OW84538   4.862  10.919   4.351
94255SOL    HW184539   4.868  10.974   4.273
94255SOL    HW284540   4.807  10.846   4.324
94256SOL     OW84541  12.330  11.419   7.441
94256SOL    HW184542  12.245  11.440   7.402
94256SOL    HW284543  12.369  11.355   7.382
94257SOL     OW84544   7.780   6.595   1.140
94257SOL    HW184545   7.799   6.647   1.061
94257SOL    HW284546   7.772   6.505   1.108
94258SOL     OW84547   2.473   9.659   4.260
94258SOL    HW184548   2.540   9.592   4.244
94258SOL    HW284549   2.521   9.742   4.259
94259SOL     OW84550   1.238  10.010   6.968
94259SOL    HW184551   1.240  10.092   6.919
94259SOL    HW284552   1.180  10.028   7.042
94260SOL     OW84553   9.546   3.722   3.754
94260SOL    HW184554   9.548   3.812   3.787
94260SOL    HW284555   9.495   3.673   3.818
94261SOL     OW84556  10.276  10.170   3.873
94261SOL    HW184557  10.304  10.261   3.860
94261SOL    HW284558  10.310  10.124   3.797
94262SOL     OW84559   0.246   0.748   7.991
94262SOL    HW184560   0.162   0.728   8.031
94262SOL    HW284561   0.244   0.707   7.905
94263SOL     OW84562   6.082   4.115  12.986
94263SOL    HW184563   6.063   4.030  12.946
94263SOL    HW284564   6.038   4.113  13.070
94264SOL     OW84565   4.805  12.487   4.353
94264SOL    HW184566   4.772  12.413   4.403
94264SOL    HW284567   4.873  12.450   4.296
94265SOL     OW84568   1.856   8.676  12.064
94265SOL    HW184569   1.807   8.756  12.046
94265SOL    HW284570   1.918   8.701  12.133
94266SOL     OW84571  12.106   3.792   0.439
94266SOL    HW184572  12.175   3.726   0.451
94266SOL    HW284573  12.072   3.806   0.527
94267SOL     OW84574   5.677   7.851   4.412
94267SOL    HW184575   5.648   7.800   4.488
94267SOL    HW284576   5.746   7.798   4.372
94268SOL     OW84577   3.788   1.949   3.412
94268SOL    HW184578   3.700   1.954   3.376
94268SOL    HW284579   3.814   2.040   3.427
94269SOL     OW84580  10.835   0.902   7.565
94269SOL    HW184581  10.774   0.970   7.536
94269SOL    HW284582  10.803   0.876   7.651
94270SOL     OW84583  12.134   9.762  10.766
94270SOL    HW184584  12.132   9.716  10.682
94270SOL    HW284585  12.115   9.694  10.831
94271SOL     OW84586   3.970   0.146   1.527
94271SOL    HW184587   4.008   0.125   1.612
94271SOL    HW284588   3.939   0.062   1.493
94272SOL     OW84589   4.291  13.382  10.696
94272SOL    HW184590   4.284  13.437  10.619
94272SOL    HW284591   4.378  13.343  10.691
94273SOL     OW84592  13.415   6.619   6.825
94273SOL    HW184593  13.440   6.620   6.917
94273SOL    HW284594  13.381   6.531   6.809
94274SOL     OW84595   0.549   8.591  14.419
94274SOL    HW184596   0.459   8.586  14.451
94274SOL    HW284597   0.595   8.521  14.465
94275SOL     OW84598   2.330   3.350  12.155
94275SOL    HW184599   2.362   3.276  12.207
94275SOL    HW284600   2.246   3.319  12.120
94276SOL     OW84601  13.465  11.227  14.384
94276SOL    HW184602  13.384  11.260  14.345
94276SOL    HW284603  13.437  11.186  14.466
94277SOL     OW84604   2.797   8.017   8.577
94277SOL    HW184605   2.889   8.026   8.603
94277SOL    HW284606   2.784   7.923   8.568
94278SOL     OW84607  11.478  11.234   3.936
94278SOL    HW184608  11.471  11.314   3.988
94278SOL    HW284609  11.389  11.199   3.934
94279SOL     OW84610   4.240  10.644  11.284
94279SOL    HW184611   4.215  10.736  11.281
94279SOL    HW284612   4.305  10.639  11.355
94280SOL     OW84613  10.839   2.180   6.273
94280SOL    HW184614  10.758   2.215   6.237
94280SOL    HW284615  10.842   2.090   6.242
94281SOL     OW84616  13.564  12.452   5.111
94281SOL    HW184617  13.543  12.364   5.142
94281SOL    HW284618  13.601  12.439   5.024
94282SOL     OW84619   7.097   3.007   6.028
94282SOL    HW184620   7.142   3.019   6.111
94282SOL    HW284621   7.015   2.964   6.051
94283SOL     OW84622   7.412   2.920   5.143
94283SOL    HW184623   7.489   2.866   5.159
94283SOL    HW284624   7.340   2.857   5.131
94284SOL     OW84625   6.113  11.226  12.148
94284SOL    HW184626   6.056  11.154  12.174
94284SOL    HW284627   6.113  11.221  12.052
94285SOL     OW84628   2.688   4.676   6.705
94285SOL    HW184629   2.610   4.649   6.656
94285SOL    HW284630   2.736   4.595   6.720
94286SOL     OW84631  14.339   7.696   9.146
94286SOL    HW184632  14.258   7.721   9.101
94286SOL    HW284633  14.314   7.684   9.237
94287SOL     OW84634  10.633   5.920   5.461
94287SOL    HW184635  10.588   5.901   5.543
94287SOL    HW284636  10.707   5.975   5.485
94288SOL     OW84637   0.856  12.765  13.602
94288SOL    HW184638   0.904  12.839  13.565
94288SOL    HW284639   0.765  12.795  13.606
94289SOL     OW84640   2.655  13.199  12.770
94289SOL    HW184641   2.580  13.236  12.816
94289SOL    HW284642   2.714  13.273  12.756
94290SOL     OW84643   3.829  13.507   0.404
94290SOL    HW184644   3.839  13.424   0.449
94290SOL    HW284645   3.918  13.534   0.383
94291SOL     OW84646  11.279  13.334   2.059
94291SOL    HW184647  11.345  13.373   2.002
94291SOL    HW284648  11.196  13.344   2.011
94292SOL     OW84649  12.753   3.023  13.807
94292SOL    HW184650  12.822   3.059  13.752
94292SOL    HW284651  12.726   3.096  13.863
94293SOL     OW84652   0.906  14.548   6.928
94293SOL    HW184653   0.885  14.463   6.891
94293SOL    HW284654   0.956  14.592   6.860
94294SOL     OW84655   8.104   5.471   3.828
94294SOL    HW184656   8.089   5.548   3.773
94294SOL    HW284657   8.016   5.444   3.856
94295SOL     OW84658   9.993  11.176   8.032
94295SOL    HW184659  10.054  11.238   8.072
94295SOL    HW284660   9.906  11.207   8.057
94296SOL     OW84661   8.801   3.371   4.891
94296SOL    HW184662   8.728   3.321   4.856
94296SOL    HW284663   8.762   3.453   4.922
94297SOL     OW84664   8.076   1.330   1.160
94297SOL    HW184665   8.089   1.235   1.164
94297SOL    HW284666   7.982   1.341   1.170
94298SOL     OW84667   5.993   5.322   0.305
94298SOL    HW184668   6.026   5.408   0.328
94298SOL    HW284669   5.972   5.328   0.212
94299SOL     OW84670  14.277   8.535   1.869
94299SOL    HW184671  14.339   8.465   1.890
94299SOL    HW284672  14.284   8.545   1.774
94300SOL     OW84673   7.051  12.170   1.840
94300SOL    HW184674   7.035  12.084   1.877
94300SOL    HW284675   7.037  12.159   1.746
94301SOL     OW84676  14.655  12.453   7.382
94301SOL    HW184677  14.579  12.437   7.325
94301SOL    HW284678  14.661  12.374   7.436
94302SOL     OW84679  11.354   9.287   5.781
94302SOL    HW184680  11.361   9.342   5.703
94302SOL    HW284681  11.445   9.273   5.809
94303SOL     OW84682   9.038   8.251   2.008
94303SOL    HW184683   8.945   8.233   2.024
94303SOL    HW284684   9.041   8.344   1.985
94304SOL     OW84685   4.488   2.218  11.883
94304SOL    HW184686   4.560   2.272  11.916
94304SOL    HW284687   4.412   2.276  11.883
94305SOL     OW84688  10.559  13.387   8.115
94305SOL    HW184689  10.535  13.419   8.028
94305SOL    HW284690  10.592  13.465   8.161
94306SOL     OW84691   7.149  14.472  14.863
94306SOL    HW184692   7.222  14.458   0.041
94306SOL    HW284693   7.074  14.489   0.039
94307SOL     OW84694   3.581  10.969   0.691
94307SOL    HW184695   3.662  11.020   0.694
94307SOL    HW284696   3.549  10.980   0.602
94308SOL     OW84697   0.926   7.742  12.927
94308SOL    HW184698   0.990   7.733  12.997
94308SOL    HW284699   0.842   7.754  12.972
94309SOL     OW84700   9.510  12.006   5.231
94309SOL    HW184701   9.579  12.003   5.297
94309SOL    HW284702   9.557  12.008   5.147
94310SOL     OW84703   6.186  12.139   0.578
94310SOL    HW184704   6.266  12.162   0.530
94310SOL    HW284705   6.183  12.201   0.651
94311SOL     OW84706   3.664  14.362   4.493
94311SOL    HW184707   3.698  14.368   4.582
94311SOL    HW284708   3.740  14.379   4.437
94312SOL     OW84709  10.952   5.397  13.553
94312SOL    HW184710  10.871   5.444  13.572
94312SOL    HW284711  11.018   5.465  13.547
94313SOL     OW84712  13.544   4.948   7.120
94313SOL    HW184713  13.515   5.038   7.106
94313SOL    HW284714  13.596   4.952   7.201
94314SOL     OW84715  13.277  11.981   3.270
94314SOL    HW184716  13.335  11.909   3.246
94314SOL    HW284717  13.257  11.967   3.363
94315SOL     OW84718   7.997   8.143   6.666
94315SOL    HW184719   7.951   8.059   6.661
94315SOL    HW284720   7.958   8.196   6.596
94316SOL     OW84721   3.577   0.254  11.619
94316SOL    HW184722   3.540   0.317  11.681
94316SOL    HW284723   3.633   0.306  11.562
94317SOL     OW84724  10.217  14.600   5.979
94317SOL    HW184725  10.142  14.658   5.988
94317SOL    HW284726  10.179  14.515   5.957
94318SOL     OW84727  12.921  10.894  13.585
94318SOL    HW184728  12.996  10.861  13.536
94318SOL    HW284729  12.958  10.959  13.644
94319SOL     OW84730  11.682   4.932   8.259
94319SOL    HW184731  11.636   4.921   8.176
94319SOL    HW284732  11.720   4.847   8.277
94320SOL     OW84733   5.359   5.029   6.381
94320SOL    HW184734   5.408   5.102   6.418
94320SOL    HW284735   5.285   5.017   6.440
94321SOL     OW84736   2.199  11.519  14.221
94321SOL    HW184737   2.189  11.530  14.127
94321SOL    HW284738   2.294  11.519  14.235
94322SOL     OW84739   1.308  10.046   6.027
94322SOL    HW184740   1.387  10.099   6.017
94322SOL    HW284741   1.340   9.957   6.036
94323SOL     OW84742  14.418   6.177   5.658
94323SOL    HW184743  14.395   6.205   5.747
94323SOL    HW284744  14.433   6.083   5.666
94324SOL     OW84745  10.814   3.526   8.271
94324SOL    HW184746  10.895   3.496   8.231
94324SOL    HW284747  10.764   3.446   8.288
94325SOL     OW84748   4.014  10.807  14.427
94325SOL    HW184749   3.977  10.719  14.435
94325SOL    HW284750   3.953  10.863  14.475
94326SOL     OW84751   0.825   9.047  12.865
94326SOL    HW184752   0.766   9.017  12.795
94326SOL    HW284753   0.793   9.135  12.886
94327SOL     OW84754   0.095   8.725   1.258
94327SOL    HW184755   0.110   8.776   1.338
94327SOL    HW284756   0.100   8.789   1.187
94328SOL     OW84757  11.141   5.019  12.140
94328SOL    HW184758  11.105   4.998  12.054
94328SOL    HW284759  11.073   4.994  12.202
94329SOL     OW84760   1.849   9.823   6.816
94329SOL    HW184761   1.820   9.885   6.748
94329SOL    HW284762   1.865   9.742   6.769
94330SOL     OW84763   8.690   9.974   0.657
94330SOL    HW184764   8.755  10.025   0.608
94330SOL    HW284765   8.711   9.992   0.749
94331SOL     OW84766   0.700   9.294  12.382
94331SOL    HW184767   0.667   9.205  12.369
94331SOL    HW284768   0.725   9.324  12.295
94332SOL     OW84769   4.047   5.058   8.766
94332SOL    HW184770   4.067   5.014   8.683
94332SOL    HW284771   4.109   5.131   8.770
94333SOL     OW84772  13.961   7.589   6.952
94333SOL    HW184773  14.051   7.602   6.983
94333SOL    HW284774  13.924   7.677   6.946
94334SOL     OW84775   1.238  13.957   1.677
94334SOL    HW184776   1.292  13.999   1.609
94334SOL    HW284777   1.197  13.883   1.632
94335SOL     OW84778  12.007   2.429   0.507
94335SOL    HW184779  12.020   2.516   0.545
94335SOL    HW284780  11.941   2.388   0.562
94336SOL     OW84781  10.734   3.412   4.604
94336SOL    HW184782  10.697   3.453   4.683
94336SOL    HW284783  10.711   3.472   4.533
94337SOL     OW84784   1.261   7.128   8.846
94337SOL    HW184785   1.254   7.182   8.767
94337SOL    HW284786   1.300   7.046   8.816
94338SOL     OW84787   2.568   2.700  11.994
94338SOL    HW184788   2.543   2.609  11.977
94338SOL    HW284789   2.653   2.710  11.951
94339SOL     OW84790  11.477  10.087   6.937
94339SOL    HW184791  11.453   9.995   6.927
94339SOL    HW284792  11.536  10.088   7.013
94340SOL     OW84793   3.863  13.063  12.620
94340SOL    HW184794   3.943  13.024  12.585
94340SOL    HW284795   3.858  13.149  12.579
94341SOL     OW84796  13.086   6.700   8.563
94341SOL    HW184797  13.129   6.622   8.598
94341SOL    HW284798  13.121   6.708   8.474
94342SOL     OW84799  10.470   7.592  10.522
94342SOL    HW184800  10.378   7.571  10.506
94342SOL    HW284801  10.484   7.568  10.614
94343SOL     OW84802   4.388   0.459   5.819
94343SOL    HW184803   4.304   0.426   5.787
94343SOL    HW284804   4.443   0.462   5.741
94344SOL     OW84805  11.466   3.749  14.024
94344SOL    HW184806  11.372   3.737  14.009
94344SOL    HW284807  11.472   3.822  14.086
94345SOL     OW84808   9.014   2.763   0.308
94345SOL    HW184809   8.959   2.752   0.385
94345SOL    HW284810   8.965   2.721   0.237
94346SOL     OW84811   7.960   8.089  14.105
94346SOL    HW184812   8.041   8.133  14.078
94346SOL    HW284813   7.981   8.051  14.190
94347SOL     OW84814   6.247   1.092   5.574
94347SOL    HW184815   6.197   1.024   5.530
94347SOL    HW284816   6.182   1.142   5.623
94348SOL     OW84817  12.370  12.833   3.630
94348SOL    HW184818  12.379  12.743   3.596
94348SOL    HW284819  12.299  12.827   3.694
94349SOL     OW84820  13.007   7.719   5.280
94349SOL    HW184821  12.973   7.808   5.287
94349SOL    HW284822  13.100   7.726   5.302
94350SOL     OW84823   3.047  12.254   6.267
94350SOL    HW184824   3.015  12.204   6.342
94350SOL    HW284825   3.025  12.200   6.190
94351SOL     OW84826   4.507   7.519  12.699
94351SOL    HW184827   4.536   7.545  12.612
94351SOL    HW284828   4.414   7.499  12.689
94352SOL     OW84829  11.060   6.030   7.805
94352SOL    HW184830  11.029   5.946   7.838
94352SOL    HW284831  11.155   6.022   7.803
94353SOL     OW84832   1.571  12.432   8.911
94353SOL    HW184833   1.663  12.415   8.930
94353SOL    HW284834   1.532  12.451   8.996
94354SOL     OW84835   9.483   1.064   9.457
94354SOL    HW184836   9.461   0.975   9.485
94354SOL    HW284837   9.578   1.068   9.459
94355SOL     OW84838  10.578  10.781  10.785
94355SOL    HW184839  10.538  10.745  10.863
94355SOL    HW284840  10.655  10.828  10.816
94356SOL     OW84841  14.206  13.898   5.877
94356SOL    HW184842  14.143  13.826   5.876
94356SOL    HW284843  14.188  13.944   5.959
94357SOL     OW84844  12.668  11.816  11.871
94357SOL    HW184845  12.665  11.721  11.858
94357SOL    HW284846  12.664  11.827  11.966
94358SOL     OW84847   3.163  11.955  10.981
94358SOL    HW184848   3.253  11.984  10.968
94358SOL    HW284849   3.112  12.036  10.978
94359SOL     OW84850   9.957  10.084  14.325
94359SOL    HW184851   9.994  10.149  14.265
94359SOL    HW284852  10.034  10.036  14.357
94360SOL     OW84853  12.176  11.724   1.127
94360SOL    HW184854  12.120  11.652   1.100
94360SOL    HW284855  12.161  11.733   1.221
94361SOL     OW84856   2.649  14.312   1.167
94361SOL    HW184857   2.716  14.296   1.233
94361SOL    HW284858   2.659  14.240   1.104
94362SOL     OW84859  14.567   5.581   8.482
94362SOL    HW184860  14.558   5.486   8.472
94362SOL    HW284861  14.478   5.615   8.478
94363SOL     OW84862   3.305   1.667   8.686
94363SOL    HW184863   3.243   1.634   8.621
94363SOL    HW284864   3.389   1.627   8.662
94364SOL     OW84865   9.336   7.616  12.634
94364SOL    HW184866   9.286   7.562  12.695
94364SOL    HW284867   9.270   7.666  12.587
94365SOL     OW84868   1.708   1.875   9.141
94365SOL    HW184869   1.720   1.831   9.225
94365SOL    HW284870   1.760   1.955   9.149
94366SOL     OW84871   3.422   2.509   1.829
94366SOL    HW184872   3.503   2.464   1.851
94366SOL    HW284873   3.435   2.599   1.860
94367SOL     OW84874  10.116  14.250   2.902
94367SOL    HW184875  10.072  14.336   2.900
94367SOL    HW284876  10.096  14.216   2.989
94368SOL     OW84877   5.193  11.972   0.101
94368SOL    HW184878   5.222  12.039   0.163
94368SOL    HW284879   5.186  11.892   0.152
94369SOL     OW84880  14.451  14.496  10.053
94369SOL    HW184881  14.369  14.532  10.020
94369SOL    HW284882  14.497  14.570  10.091
94370SOL     OW84883   9.403  11.741   3.803
94370SOL    HW184884   9.419  11.740   3.708
94370SOL    HW284885   9.394  11.648   3.826
94371SOL     OW84886   4.456   1.475  11.064
94371SOL    HW184887   4.496   1.442  10.984
94371SOL    HW284888   4.483   1.567  11.069
94372SOL     OW84889   3.907   7.321   1.525
94372SOL    HW184890   3.944   7.374   1.455
94372SOL    HW284891   3.876   7.242   1.482
94373SOL     OW84892   1.866   1.946   2.948
94373SOL    HW184893   1.794   2.007   2.929
94373SOL    HW284894   1.906   1.981   3.027
94374SOL     OW84895   0.415   4.876   3.805
94374SOL    HW184896   0.510   4.889   3.810
94374SOL    HW284897   0.378   4.964   3.810
94375SOL     OW84898   2.962   8.932   4.536
94375SOL    HW184899   3.047   8.975   4.543
94375SOL    HW284900   2.962   8.867   4.606
94376SOL     OW84901   5.485   1.259  12.600
94376SOL    HW184902   5.530   1.244  12.683
94376SOL    HW284903   5.529   1.202  12.537
94377SOL     OW84904  11.645   4.951  10.260
94377SOL    HW184905  11.630   5.040  10.228
94377SOL    HW284906  11.739   4.937  10.249
94378SOL     OW84907  13.105   9.122   7.384
94378SOL    HW184908  13.031   9.090   7.435
94378SOL    HW284909  13.169   9.051   7.387
94379SOL     OW84910  11.155   8.938  13.365
94379SOL    HW184911  11.109   8.967  13.286
94379SOL    HW284912  11.133   8.846  13.374
94380SOL     OW84913   0.455   2.588   4.245
94380SOL    HW184914   0.419   2.574   4.157
94380SOL    HW284915   0.535   2.639   4.230
94381SOL     OW84916   4.665  12.832   8.459
94381SOL    HW184917   4.720  12.755   8.446
94381SOL    HW284918   4.704  12.878   8.534
94382SOL     OW84919   4.857   8.878   5.629
94382SOL    HW184920   4.901   8.902   5.711
94382SOL    HW284921   4.890   8.791   5.608
94383SOL     OW84922   3.412  11.634   4.241
94383SOL    HW184923   3.352  11.563   4.219
94383SOL    HW284924   3.488  11.590   4.280
94384SOL     OW84925   3.780  14.167  13.643
94384SOL    HW184926   3.860  14.146  13.691
94384SOL    HW284927   3.808  14.228  13.574
94385SOL     OW84928   2.839   0.610  10.973
94385SOL    HW184929   2.869   0.519  10.965
94385SOL    HW284930   2.920   0.661  10.972
94386SOL     OW84931   7.686   3.572  10.383
94386SOL    HW184932   7.610   3.595  10.435
94386SOL    HW284933   7.667   3.484  10.350
94387SOL     OW84934   3.862   6.119   5.011
94387SOL    HW184935   3.815   6.046   4.970
94387SOL    HW284936   3.924   6.077   5.071
94388SOL     OW84937   3.009   7.536  11.514
94388SOL    HW184938   3.045   7.621  11.540
94388SOL    HW284939   2.920   7.536  11.549
94389SOL     OW84940   0.907   0.619   5.267
94389SOL    HW184941   0.957   0.670   5.203
94389SOL    HW284942   0.909   0.671   5.347
94390SOL     OW84943  13.184  14.418   0.674
94390SOL    HW184944  13.092  14.420   0.649
94390SOL    HW284945  13.221  14.497   0.634
94391SOL     OW84946   0.111  12.571   1.094
94391SOL    HW184947   0.137  12.533   1.179
94391SOL    HW284948   0.141  12.506   1.030
94392SOL     OW84949   3.125   2.308  14.104
94392SOL    HW184950   3.118   2.291  14.010
94392SOL    HW284951   3.219   2.323  14.119
94393SOL     OW84952  10.418  11.457   0.799
94393SOL    HW184953  10.496  11.508   0.779
94393SOL    HW284954  10.373  11.448   0.715
94394SOL     OW84955   1.862  14.422  13.100
94394SOL    HW184956   1.895  14.455  13.016
94394SOL    HW284957   1.875  14.327  13.095
94395SOL     OW84958  11.432   1.628   2.604
94395SOL    HW184959  11.339   1.635   2.625
94395SOL    HW284960  11.466   1.563   2.666
94396SOL     OW84961   1.393   4.576  11.204
94396SOL    HW184962   1.485   4.574  11.180
94396SOL    HW284963   1.379   4.494  11.251
94397SOL     OW84964   0.252   6.975  10.328
94397SOL    HW184965   0.167   6.945  10.359
94397SOL    HW284966   0.307   6.897  10.329
94398SOL     OW84967   8.677  10.677  11.209
94398SOL    HW184968   8.662  10.756  11.156
94398SOL    HW284969   8.620  10.689  11.285
94399SOL     OW84970  13.121   3.815  14.396
94399SOL    HW184971  13.100   3.760  14.471
94399SOL    HW284972  13.134   3.902  14.433
94400SOL     OW84973   7.881   6.732  13.400
94400SOL    HW184974   7.823   6.797  13.362
94400SOL    HW284975   7.827   6.654  13.410
94401SOL     OW84976   3.966  12.309   9.256
94401SOL    HW184977   3.923  12.224   9.246
94401SOL    HW284978   4.045  12.291   9.307
94402SOL     OW84979   1.042  10.074  14.569
94402SOL    HW184980   1.079   9.999  14.524
94402SOL    HW284981   1.012  10.040  14.653
94403SOL     OW84982   6.990   5.467   5.970
94403SOL    HW184983   6.895   5.480   5.969
94403SOL    HW284984   7.008   5.411   5.894
94404SOL     OW84985   5.365  10.056   3.833
94404SOL    HW184986   5.371  10.138   3.783
94404SOL    HW284987   5.351  10.084   3.923
94405SOL     OW84988   9.023   0.830   2.615
94405SOL    HW184989   9.063   0.893   2.555
94405SOL    HW284990   9.008   0.880   2.696
94406SOL     OW84991   8.213   6.927   7.273
94406SOL    HW184992   8.238   6.885   7.191
94406SOL    HW284993   8.261   7.010   7.272
94407SOL     OW84994   0.027   5.987   0.337
94407SOL    HW184995  14.829   5.934   0.344
94407SOL    HW284996  14.880   6.067   0.293
94408SOL     OW84997   9.536   2.963  11.299
94408SOL    HW184998   9.524   3.057  11.308
94408SOL    HW284999   9.593   2.938  11.371
94409SOL     OW85000  13.635  10.864  13.946
94409SOL    HW185001  13.698  10.877  14.017
94409SOL    HW285002  13.669  10.789  13.896
94410SOL     OW85003   4.957   4.515   8.885
94410SOL    HW185004   4.899   4.589   8.865
94410SOL    HW285005   4.915   4.440   8.844
94411SOL     OW85006   4.911  11.797   9.997
94411SOL    HW185007   4.837  11.836  10.043
94411SOL    HW285008   4.988  11.831  10.042
94412SOL     OW85009   0.163  14.335   1.310
94412SOL    HW185010   0.132  14.419   1.345
94412SOL    HW285011   0.143  14.272   1.378
94413SOL     OW85012   4.100  11.977   3.371
94413SOL    HW185013   4.138  12.054   3.413
94413SOL    HW285014   4.147  11.903   3.410
94414SOL     OW85015  10.759   7.870  11.552
94414SOL    HW185016  10.833   7.908  11.505
94414SOL    HW285017  10.759   7.914  11.637
94415SOL     OW85018   4.501   6.445  10.393
94415SOL    HW185019   4.435   6.506  10.361
94415SOL    HW285020   4.452   6.364  10.411
94416SOL     OW85021  13.155   4.965   7.139
94416SOL    HW185022  13.181   5.018   7.064
94416SOL    HW285023  13.113   5.027   7.199
94417SOL     OW85024  14.238   7.344   4.224
94417SOL    HW185025  14.229   7.254   4.256
94417SOL    HW285026  14.306   7.383   4.280
94418SOL     OW85027  10.536   0.760   0.400
94418SOL    HW185028  10.574   0.745   0.487
94418SOL    HW285029  10.573   0.845   0.373
94419SOL     OW85030   8.726   9.671   6.473
94419SOL    HW185031   8.757   9.589   6.435
94419SOL    HW285032   8.722   9.732   6.399
94420SOL     OW85033  12.368   9.756   2.491
94420SOL    HW185034  12.434   9.696   2.456
94420SOL    HW285035  12.419   9.818   2.544
94421SOL     OW85036  11.216   5.845   3.759
94421SOL    HW185037  11.293   5.870   3.809
94421SOL    HW285038  11.162   5.924   3.759
94422SOL     OW85039   5.978   9.276   8.316
94422SOL    HW185040   6.057   9.325   8.335
94422SOL    HW285041   6.009   9.187   8.300
94423SOL     OW85042   5.027   5.363   4.707
94423SOL    HW185043   4.975   5.288   4.678
94423SOL    HW285044   5.112   5.326   4.729
94424SOL     OW85045  14.464   6.740   9.972
94424SOL    HW185046  14.478   6.766  10.064
94424SOL    HW285047  14.386   6.789   9.946
94425SOL     OW85048   6.872  13.670   1.229
94425SOL    HW185049   6.947  13.667   1.170
94425SOL    HW285050   6.799  13.639   1.176
94426SOL     OW85051  12.873   5.320   6.459
94426SOL    HW185052  12.876   5.303   6.365
94426SOL    HW285053  12.964   5.312   6.488
94427SOL     OW85054   0.222   0.782   6.932
94427SOL    HW185055   0.172   0.725   6.991
94427SOL    HW285056   0.156   0.842   6.896
94428SOL     OW85057   7.111   8.978   7.042
94428SOL    HW185058   7.038   8.936   7.086
94428SOL    HW285059   7.112   9.068   7.077
94429SOL     OW85060  12.459   1.114   0.432
94429SOL    HW185061  12.434   1.032   0.476
94429SOL    HW285062  12.382   1.170   0.442
94430SOL     OW85063   8.206   6.145   7.191
94430SOL    HW185064   8.181   6.058   7.160
94430SOL    HW285065   8.299   6.153   7.171
94431SOL     OW85066   7.415   0.100   0.851
94431SOL    HW185067   7.378   0.031   0.796
94431SOL    HW285068   7.390   0.181   0.808
94432SOL     OW85069   4.259  11.782   4.548
94432SOL    HW185070   4.251  11.761   4.641
94432SOL    HW285071   4.331  11.727   4.517
94433SOL     OW85072   1.744   8.828   4.024
94433SOL    HW185073   1.746   8.742   3.982
94433SOL    HW285074   1.735   8.809   4.117
94434SOL     OW85075  12.208   9.447   8.452
94434SOL    HW185076  12.213   9.520   8.514
94434SOL    HW285077  12.192   9.371   8.507
94435SOL     OW85078   9.419   4.589   9.464
94435SOL    HW185079   9.411   4.633   9.549
94435SOL    HW285080   9.358   4.516   9.469
94436SOL     OW85081  11.196  13.907  14.619
94436SOL    HW185082  11.188  13.928  14.712
94436SOL    HW285083  11.135  13.835  14.605
94437SOL     OW85084   8.278  13.846   0.261
94437SOL    HW185085   8.212  13.883   0.203
94437SOL    HW285086   8.243  13.761   0.287
94438SOL     OW85087   7.086   4.027   9.883
94438SOL    HW185088   7.167   3.988   9.917
94438SOL    HW285089   7.115   4.106   9.838
94439SOL     OW85090   5.602   3.855   8.480
94439SOL    HW185091   5.521   3.842   8.529
94439SOL    HW285092   5.597   3.945   8.447
94440SOL     OW85093  12.492   2.753   2.889
94440SOL    HW185094  12.574   2.704   2.896
94440SOL    HW285095  12.429   2.701   2.939
94441SOL     OW85096   2.923   6.241   3.181
94441SOL    HW185097   2.973   6.287   3.249
94441SOL    HW285098   2.986   6.230   3.109
94442SOL     OW85099   3.754   7.254   3.270
94442SOL    HW185100   3.824   7.318   3.255
94442SOL    HW285101   3.769   7.186   3.204
94443SOL     OW85102   0.556   4.713   1.388
94443SOL    HW185103   0.592   4.796   1.420
94443SOL    HW285104   0.507   4.678   1.462
94444SOL     OW85105   3.366   6.108   2.690
94444SOL    HW185106   3.401   6.018   2.684
94444SOL    HW285107   3.310   6.116   2.614
94445SOL     OW85108   9.478   1.437   2.057
94445SOL    HW185109   9.538   1.388   2.112
94445SOL    HW285110   9.417   1.371   2.024
94446SOL     OW85111   6.061  12.770  13.409
94446SOL    HW185112   6.087  12.789  13.499
94446SOL    HW285113   6.089  12.680  13.395
94447SOL     OW85114   9.096  13.187   5.222
94447SOL    HW185115   9.036  13.233   5.163
94447SOL    HW285116   9.163  13.152   5.164
94448SOL     OW85117   5.023   7.524   5.135
94448SOL    HW185118   5.031   7.430   5.152
94448SOL    HW285119   4.931   7.544   5.152
94449SOL     OW85120   9.569   1.431  14.136
94449SOL    HW185121   9.475   1.420  14.155
94449SOL    HW285122   9.574   1.515  14.091
94450SOL     OW85123   9.929   5.449   4.465
94450SOL    HW185124   9.981   5.436   4.386
94450SOL    HW285125   9.992   5.442   4.537
94451SOL     OW85126   6.729   2.604   0.127
94451SOL    HW185127   6.731   2.655   0.046
94451SOL    HW285128   6.792   2.648   0.184
94452SOL     OW85129  14.578  12.566   2.492
94452SOL    HW185130  14.621  12.512   2.425
94452SOL    HW285131  14.596  12.520   2.574
94453SOL     OW85132  10.819   0.575   5.055
94453SOL    HW185133  10.837   0.664   5.025
94453SOL    HW285134  10.846   0.574   5.146
94454SOL     OW85135   0.923   7.376   1.467
94454SOL    HW185136   0.831   7.366   1.445
94454SOL    HW285137   0.962   7.291   1.446
94455SOL     OW85138  14.287   4.252  11.947
94455SOL    HW185139  14.233   4.328  11.926
94455SOL    HW285140  14.236   4.203  12.012
94456SOL     OW85141   7.175   9.234   6.063
94456SOL    HW185142   7.269   9.245   6.080
94456SOL    HW285143   7.149   9.160   6.117
94457SOL     OW85144  12.271   8.899   7.837
94457SOL    HW185145  12.310   8.918   7.923
94457SOL    HW285146  12.282   8.980   7.787
94458SOL     OW85147   3.365   6.424   2.207
94458SOL    HW185148   3.418   6.470   2.141
94458SOL    HW285149   3.282   6.472   2.208
94459SOL     OW85150   3.566   3.996  11.301
94459SOL    HW185151   3.546   4.009  11.394
94459SOL    HW285152   3.607   3.909  11.297
94460SOL     OW85153  12.818   8.193   9.482
94460SOL    HW185154  12.821   8.285   9.509
94460SOL    HW285155  12.729   8.182   9.448
94461SOL     OW85156  12.415   3.072   2.630
94461SOL    HW185157  12.334   3.094   2.676
94461SOL    HW285158  12.457   3.156   2.613
94462SOL     OW85159   2.634   4.155   0.949
94462SOL    HW185160   2.616   4.154   0.855
94462SOL    HW285161   2.598   4.073   0.981
94463SOL     OW85162   7.120   8.665   7.171
94463SOL    HW185163   7.068   8.742   7.150
94463SOL    HW285164   7.144   8.677   7.263
94464SOL     OW85165  10.408  11.173   6.541
94464SOL    HW185166  10.354  11.096   6.527
94464SOL    HW285167  10.364  11.243   6.492
94465SOL     OW85168   8.637   8.913   5.245
94465SOL    HW185169   8.707   8.941   5.304
94465SOL    HW285170   8.573   8.985   5.248
94466SOL     OW85171   8.662  12.146  13.321
94466SOL    HW185172   8.591  12.193  13.277
94466SOL    HW285173   8.741  12.170  13.272
94467SOL     OW85174  12.060   0.800  11.402
94467SOL    HW185175  12.027   0.834  11.318
94467SOL    HW285176  12.156   0.804  11.393
94468SOL     OW85177  10.954   6.520   9.467
94468SOL    HW185178  10.949   6.601   9.516
94468SOL    HW285179  10.936   6.451   9.532
94469SOL     OW85180   4.424   5.802   4.058
94469SOL    HW185181   4.448   5.742   3.988
94469SOL    HW285182   4.372   5.870   4.015
94470SOL     OW85183   9.730   3.076   2.840
94470SOL    HW185184   9.660   3.020   2.874
94470SOL    HW285185   9.807   3.020   2.841
94471SOL     OW85186  12.845   6.217   4.916
94471SOL    HW185187  12.770   6.242   4.863
94471SOL    HW285188  12.887   6.147   4.867
94472SOL     OW85189  14.136  13.080   0.739
94472SOL    HW185190  14.108  13.113   0.824
94472SOL    HW285191  14.231  13.090   0.740
94473SOL     OW85192   2.221  13.004   2.933
94473SOL    HW185193   2.221  13.099   2.916
94473SOL    HW285194   2.130  12.978   2.921
94474SOL     OW85195  13.158  13.393   5.882
94474SOL    HW185196  13.119  13.405   5.969
94474SOL    HW285197  13.200  13.307   5.886
94475SOL     OW85198   0.155   7.427   3.581
94475SOL    HW185199   0.099   7.365   3.533
94475SOL    HW285200   0.101   7.505   3.590
94476SOL     OW85201   0.767   8.516   8.227
94476SOL    HW185202   0.840   8.473   8.272
94476SOL    HW285203   0.726   8.571   8.294
94477SOL     OW85204   9.695   0.450  14.703
94477SOL    HW185205   9.693   0.545  14.698
94477SOL    HW285206   9.653   0.420  14.622
94478SOL     OW85207   0.593   7.202   2.541
94478SOL    HW185208   0.568   7.128   2.596
94478SOL    HW285209   0.688   7.204   2.544
94479SOL     OW85210  14.644   3.001   1.098
94479SOL    HW185211  14.624   2.948   1.020
94479SOL    HW285212  14.726   2.964   1.131
94480SOL     OW85213   7.079   9.789   2.928
94480SOL    HW185214   7.166   9.759   2.952
94480SOL    HW285215   7.020   9.733   2.978
94481SOL     OW85216  13.545   1.191  10.817
94481SOL    HW185217  13.564   1.148  10.734
94481SOL    HW285218  13.603   1.147  10.880
94482SOL     OW85219   8.537  13.406   8.133
94482SOL    HW185220   8.560  13.470   8.066
94482SOL    HW285221   8.620  13.365   8.157
94483SOL     OW85222   1.021   2.693   1.800
94483SOL    HW185223   1.058   2.730   1.881
94483SOL    HW285224   1.053   2.751   1.731
94484SOL     OW85225  13.402  10.251  10.364
94484SOL    HW185226  13.383  10.342  10.389
94484SOL    HW285227  13.330  10.226  10.307
94485SOL     OW85228   2.288   2.080   9.014
94485SOL    HW185229   2.254   2.161   9.052
94485SOL    HW285230   2.368   2.106   8.968
94486SOL     OW85231   5.782   3.007   2.568
94486SOL    HW185232   5.726   3.020   2.645
94486SOL    HW285233   5.725   2.966   2.503
94487SOL     OW85234  12.956   8.910   0.449
94487SOL    HW185235  13.024   8.977   0.455
94487SOL    HW285236  12.970   8.854   0.525
94488SOL     OW85237   2.836   7.144  13.642
94488SOL    HW185238   2.876   7.065  13.678
94488SOL    HW285239   2.910   7.200  13.618
94489SOL     OW85240   2.779  12.842   2.253
94489SOL    HW185241   2.819  12.914   2.302
94489SOL    HW285242   2.756  12.777   2.320
94490SOL     OW85243   8.193   8.059   0.768
94490SOL    HW185244   8.257   8.123   0.737
94490SOL    HW285245   8.115   8.075   0.716
94491SOL     OW85246   6.416  10.104  13.453
94491SOL    HW185247   6.484  10.096  13.520
94491SOL    HW285248   6.456  10.068  13.374
94492SOL     OW85249   2.160  14.106   6.931
94492SOL    HW185250   2.103  14.167   6.883
94492SOL    HW285251   2.104  14.070   6.999
94493SOL     OW85252  13.928  14.591  11.975
94493SOL    HW185253  13.884  14.593  11.890
94493SOL    HW285254  14.008  14.641  11.961
94494SOL     OW85255   3.951  11.914  12.805
94494SOL    HW185256   3.915  11.997  12.834
94494SOL    HW285257   4.029  11.901  12.859
94495SOL     OW85258   3.618  10.325   2.189
94495SOL    HW185259   3.584  10.412   2.208
94495SOL    HW285260   3.610  10.316   2.094
94496SOL     OW85261   5.907   3.614   1.053
94496SOL    HW185262   5.980   3.611   1.114
94496SOL    HW285263   5.947   3.600   0.967
94497SOL     OW85264  13.825   5.284   4.982
94497SOL    HW185265  13.831   5.198   5.022
94497SOL    HW285266  13.917   5.310   4.968
94498SOL     OW85267  13.110   5.593  14.866
94498SOL    HW185268  13.122   5.673   0.036
94498SOL    HW285269  13.184   5.592  14.805
94499SOL     OW85270  12.271  14.686   3.376
94499SOL    HW185271  12.182  14.722   3.368
94499SOL    HW285272  12.277  14.622   3.305
94500SOL     OW85273   4.564  10.546  14.712
94500SOL    HW185274   4.540  10.498  14.633
94500SOL    HW285275   4.657  10.566  14.700
94501SOL     OW85276   9.176   0.286  13.968
94501SOL    HW185277   9.102   0.294  14.028
94501SOL    HW285278   9.149   0.219  13.905
94502SOL     OW85279  13.570  14.210  14.220
94502SOL    HW185280  13.649  14.182  14.174
94502SOL    HW285281  13.587  14.191  14.312
94503SOL     OW85282   6.450   6.388   1.720
94503SOL    HW185283   6.473   6.311   1.772
94503SOL    HW285284   6.364   6.368   1.684
94504SOL     OW85285  12.465   3.586   4.291
94504SOL    HW185286  12.386   3.598   4.344
94504SOL    HW285287  12.536   3.588   4.354
94505SOL     OW85288   6.342   6.854   6.412
94505SOL    HW185289   6.363   6.914   6.484
94505SOL    HW285290   6.411   6.788   6.416
94506SOL     OW85291   4.064  13.770  12.484
94506SOL    HW185292   4.089  13.727  12.566
94506SOL    HW285293   4.073  13.701  12.418
94507SOL     OW85294  12.803  14.653   3.467
94507SOL    HW185295  12.816  14.593   3.394
94507SOL    HW285296  12.789  14.738   3.426
94508SOL     OW85297   5.335   6.426   5.669
94508SOL    HW185298   5.298   6.488   5.606
94508SOL    HW285299   5.377   6.481   5.735
94509SOL     OW85300   3.909  12.492   7.825
94509SOL    HW185301   3.979  12.447   7.778
94509SOL    HW285302   3.953  12.564   7.871
94510SOL     OW85303   1.168   7.265   2.340
94510SOL    HW185304   1.141   7.232   2.426
94510SOL    HW285305   1.092   7.312   2.308
94511SOL     OW85306  10.484   4.488   7.053
94511SOL    HW185307  10.444   4.544   6.987
94511SOL    HW285308  10.445   4.517   7.136
94512SOL     OW85309   0.607  12.697   2.371
94512SOL    HW185310   0.636  12.611   2.341
94512SOL    HW285311   0.517  12.705   2.338
94513SOL     OW85312  11.724   6.748  12.461
94513SOL    HW185313  11.746   6.807  12.389
94513SOL    HW285314  11.697   6.667  12.418
94514SOL     OW85315   9.783  13.096   8.859
94514SOL    HW185316   9.853  13.111   8.796
94514SOL    HW285317   9.720  13.165   8.842
94515SOL     OW85318   5.696   7.391   5.480
94515SOL    HW185319   5.753   7.381   5.556
94515SOL    HW285320   5.668   7.483   5.483
94516SOL     OW85321   6.800   0.022   1.737
94516SOL    HW185322   6.742   0.074   1.681
94516SOL    HW285323   6.779   0.051   1.826
94517SOL     OW85324   2.743  10.687   1.734
94517SOL    HW185325   2.677  10.621   1.713
94517SOL    HW285326   2.818  10.635   1.764
94518SOL     OW85327   9.692   2.383   0.763
94518SOL    HW185328   9.696   2.389   0.858
94518SOL    HW285329   9.701   2.474   0.733
94519SOL     OW85330  14.283  13.408   8.729
94519SOL    HW185331  14.285  13.444   8.817
94519SOL    HW285332  14.234  13.473   8.678
94520SOL     OW85333   9.965   8.454  12.606
94520SOL    HW185334  10.054   8.421  12.610
94520SOL    HW285335   9.926   8.409  12.531
94521SOL     OW85336   3.474   7.432  14.245
94521SOL    HW185337   3.532   7.439  14.169
94521SOL    HW285338   3.386   7.427  14.208
94522SOL     OW85339   6.330   6.447  10.433
94522SOL    HW185340   6.338   6.364  10.481
94522SOL    HW285341   6.254   6.490  10.472
94523SOL     OW85342   2.955   7.079  11.909
94523SOL    HW185343   3.046   7.054  11.919
94523SOL    HW285344   2.906   7.009  11.953
94524SOL     OW85345  11.608   5.693   9.067
94524SOL    HW185346  11.648   5.612   9.098
94524SOL    HW285347  11.597   5.680   8.973
94525SOL     OW85348   4.654   7.497   2.640
94525SOL    HW185349   4.726   7.441   2.610
94525SOL    HW285350   4.697   7.580   2.663
94526SOL     OW85351  11.262  13.728  12.382
94526SOL    HW185352  11.273  13.663  12.312
94526SOL    HW285353  11.345  13.775  12.384
94527SOL     OW85354   1.300  10.605   5.726
94527SOL    HW185355   1.385  10.640   5.751
94527SOL    HW285356   1.320  10.540   5.658
94528SOL     OW85357  14.580  14.115   4.404
94528SOL    HW185358  14.519  14.079   4.468
94528SOL    HW285359  14.657  14.059   4.411
94529SOL     OW85360   6.967   7.264   3.696
94529SOL    HW185361   6.980   7.170   3.693
94529SOL    HW285362   6.955   7.290   3.605
94530SOL     OW85363   7.131  12.078   8.364
94530SOL    HW185364   7.035  12.076   8.361
94530SOL    HW285365   7.153  12.036   8.447
94531SOL     OW85366   1.506   7.316   4.345
94531SOL    HW185367   1.509   7.272   4.430
94531SOL    HW285368   1.542   7.252   4.284
94532SOL     OW85369   7.102  13.232   7.596
94532SOL    HW185370   7.087  13.230   7.690
94532SOL    HW285371   7.084  13.143   7.566
94533SOL     OW85372   7.631  11.342   8.891
94533SOL    HW185373   7.560  11.286   8.924
94533SOL    HW285374   7.668  11.293   8.818
94534SOL     OW85375   8.854   3.406   0.913
94534SOL    HW185376   8.781   3.462   0.940
94534SOL    HW285377   8.817   3.317   0.916
94535SOL     OW85378   2.047   6.093   1.809
94535SOL    HW185379   2.051   6.097   1.714
94535SOL    HW285380   1.969   6.143   1.832
94536SOL     OW85381  12.282   2.559   2.622
94536SOL    HW185382  12.367   2.547   2.580
94536SOL    HW285383  12.278   2.653   2.641
94537SOL     OW85384  12.488   3.451  11.476
94537SOL    HW185385  12.522   3.464  11.564
94537SOL    HW285386  12.544   3.506  11.421
94538SOL     OW85387   1.058   5.178   4.784
94538SOL    HW185388   1.104   5.094   4.788
94538SOL    HW285389   0.980   5.160   4.731
94539SOL     OW85390   9.813  13.839   9.333
94539SOL    HW185391   9.724  13.810   9.311
94539SOL    HW285392   9.801  13.899   9.406
94540SOL     OW85393  13.728  12.283   5.315
94540SOL    HW185394  13.702  12.314   5.228
94540SOL    HW285395  13.661  12.218   5.337
94541SOL     OW85396   9.111   6.370   1.159
94541SOL    HW185397   9.142   6.397   1.072
94541SOL    HW285398   9.027   6.415   1.168
94542SOL     OW85399   6.307   9.033   7.130
94542SOL    HW185400   6.357   9.086   7.068
94542SOL    HW285401   6.358   9.037   7.211
94543SOL     OW85402   7.334   3.051   8.236
94543SOL    HW185403   7.381   3.076   8.157
94543SOL    HW285404   7.297   2.964   8.216
94544SOL     OW85405   8.203  11.967   1.103
94544SOL    HW185406   8.278  11.949   1.046
94544SOL    HW285407   8.216  11.909   1.178
94545SOL     OW85408   5.511  12.130  11.699
94545SOL    HW185409   5.527  12.214  11.742
94545SOL    HW285410   5.568  12.069  11.746
94546SOL     OW85411   3.482   9.482   9.284
94546SOL    HW185412   3.467   9.576   9.288
94546SOL    HW285413   3.566   9.472   9.239
94547SOL     OW85414   8.297   8.343  12.546
94547SOL    HW185415   8.315   8.360  12.454
94547SOL    HW285416   8.349   8.265  12.566
94548SOL     OW85417  11.025   4.358  12.054
94548SOL    HW185418  11.108   4.404  12.045
94548SOL    HW285419  10.995   4.380  12.142
94549SOL     OW85420  12.587   8.909  12.809
94549SOL    HW185421  12.599   8.842  12.742
94549SOL    HW285422  12.659   8.895  12.870
94550SOL     OW85423   4.013  11.853  13.175
94550SOL    HW185424   3.929  11.830  13.135
94550SOL    HW285425   4.068  11.878  13.101
94551SOL     OW85426   9.507   6.658   5.951
94551SOL    HW185427   9.575   6.678   5.887
94551SOL    HW285428   9.548   6.595   6.010
94552SOL     OW85429  11.070   3.932   8.304
94552SOL    HW185430  10.990   3.940   8.356
94552SOL    HW285431  11.107   3.848   8.330
94553SOL     OW85432   2.572   5.842   4.658
94553SOL    HW185433   2.485   5.875   4.637
94553SOL    HW285434   2.620   5.850   4.576
94554SOL     OW85435  10.180   3.585   6.042
94554SOL    HW185436  10.233   3.505   6.033
94554SOL    HW285437  10.100   3.556   6.084
94555SOL     OW85438  13.050   6.103   7.343
94555SOL    HW185439  13.056   6.170   7.274
94555SOL    HW285440  12.957   6.080   7.345
94556SOL     OW85441   9.140   3.008   4.818
94556SOL    HW185442   9.087   2.966   4.750
94556SOL    HW285443   9.219   2.954   4.822
94557SOL     OW85444   2.758  12.392   6.226
94557SOL    HW185445   2.815  12.366   6.297
94557SOL    HW285446   2.742  12.486   6.241
94558SOL     OW85447   4.302  14.422   1.154
94558SOL    HW185448   4.232  14.358   1.138
94558SOL    HW285449   4.379  14.370   1.174
94559SOL     OW85450   6.960  12.348   8.801
94559SOL    HW185451   7.047  12.386   8.796
94559SOL    HW285452   6.900  12.420   8.782
94560SOL     OW85453  11.004  11.754  10.855
94560SOL    HW185454  10.923  11.709  10.877
94560SOL    HW285455  11.004  11.757  10.759
94561SOL     OW85456  13.994   3.277   2.630
94561SOL    HW185457  13.956   3.279   2.542
94561SOL    HW285458  14.076   3.230   2.619
94562SOL     OW85459   9.504  11.209   5.145
94562SOL    HW185460   9.540  11.211   5.057
94562SOL    HW285461   9.578  11.182   5.200
94563SOL     OW85462   0.348   9.712  11.037
94563SOL    HW185463   0.361   9.640  11.099
94563SOL    HW285464   0.350   9.791  11.092
94564SOL     OW85465  12.542   4.477   3.425
94564SOL    HW185466  12.484   4.552   3.431
94564SOL    HW285467  12.485   4.401   3.436
94565SOL     OW85468   9.859  12.441   7.138
94565SOL    HW185469   9.921  12.385   7.184
94565SOL    HW285470   9.913  12.498   7.084
94566SOL     OW85471   0.675   1.109  14.342
94566SOL    HW185472   0.633   1.131  14.259
94566SOL    HW285473   0.760   1.151  14.339
94567SOL     OW85474   4.081   1.704   2.374
94567SOL    HW185475   4.110   1.662   2.294
94567SOL    HW285476   4.009   1.650   2.406
94568SOL     OW85477  10.007   6.624   1.534
94568SOL    HW185478   9.921   6.585   1.550
94568SOL    HW285479   9.993   6.718   1.547
94569SOL     OW85480   8.626   5.919   7.187
94569SOL    HW185481   8.659   5.887   7.271
94569SOL    HW285482   8.682   5.993   7.165
94570SOL     OW85483   1.278  12.559   7.211
94570SOL    HW185484   1.275  12.500   7.136
94570SOL    HW285485   1.279  12.501   7.288
94571SOL     OW85486  11.099   2.623  13.977
94571SOL    HW185487  11.168   2.557  13.976
94571SOL    HW285488  11.143   2.705  13.952
94572SOL     OW85489  13.418   5.614   3.004
94572SOL    HW185490  13.436   5.559   2.928
94572SOL    HW285491  13.326   5.640   2.993
94573SOL     OW85492   4.582   6.819  13.857
94573SOL    HW185493   4.584   6.746  13.795
94573SOL    HW285494   4.666   6.863  13.844
94574SOL     OW85495   9.498   3.979  10.795
94574SOL    HW185496   9.534   3.890  10.789
94574SOL    HW285497   9.521   4.020  10.711
94575SOL     OW85498   2.629   8.598   1.636
94575SOL    HW185499   2.589   8.620   1.551
94575SOL    HW285500   2.721   8.621   1.625
94576SOL     OW85501  10.792  10.041  11.801
94576SOL    HW185502  10.863   9.978  11.784
94576SOL    HW285503  10.823  10.092  11.876
94577SOL     OW85504   7.778   6.000  12.832
94577SOL    HW185505   7.842   6.072  12.839
94577SOL    HW285506   7.824   5.924  12.866
94578SOL     OW85507   7.502   0.934   3.187
94578SOL    HW185508   7.581   0.920   3.239
94578SOL    HW285509   7.498   0.857   3.130
94579SOL     OW85510   9.505   5.833   2.480
94579SOL    HW185511   9.518   5.822   2.574
94579SOL    HW285512   9.567   5.901   2.455
94580SOL     OW85513   8.875  13.591  10.432
94580SOL    HW185514   8.825  13.510  10.439
94580SOL    HW285515   8.841  13.647  10.502
94581SOL     OW85516  10.490   0.119  11.553
94581SOL    HW185517  10.519   0.060  11.484
94581SOL    HW285518  10.395   0.109  11.555
94582SOL     OW85519   3.544  13.412  11.767
94582SOL    HW185520   3.455  13.439  11.744
94582SOL    HW285521   3.535  13.321  11.794
94583SOL     OW85522   0.422   3.031  11.691
94583SOL    HW185523   0.498   3.006  11.638
94583SOL    HW285524   0.349   2.983  11.652
94584SOL     OW85525  12.498   8.840   4.718
94584SOL    HW185526  12.500   8.745   4.728
94584SOL    HW285527  12.453   8.855   4.634
94585SOL     OW85528   4.155  14.350  14.759
94585SOL    HW185529   4.251  14.343  14.753
94585SOL    HW285530   4.140  14.433  14.804
94586SOL     OW85531   6.192   6.109   4.917
94586SOL    HW185532   6.171   6.064   4.999
94586SOL    HW285533   6.255   6.177   4.942
94587SOL     OW85534   3.225   1.485  11.079
94587SOL    HW185535   3.176   1.411  11.114
94587SOL    HW285536   3.185   1.501  10.993
94588SOL     OW85537   5.143   3.461  10.991
94588SOL    HW185538   5.203   3.490  10.923
94588SOL    HW285539   5.070   3.420  10.944
94589SOL     OW85540   4.816   2.887  12.879
94589SOL    HW185541   4.814   2.812  12.939
94589SOL    HW285542   4.732   2.931  12.895
94590SOL     OW85543  10.143  11.394   1.944
94590SOL    HW185544  10.180  11.312   1.913
94590SOL    HW285545  10.201  11.420   2.016
94591SOL     OW85546   5.960  12.823   7.687
94591SOL    HW185547   5.963  12.911   7.650
94591SOL    HW285548   6.035  12.778   7.648
94592SOL     OW85549   2.924   9.190   0.425
94592SOL    HW185550   2.953   9.179   0.515
94592SOL    HW285551   2.878   9.108   0.404
94593SOL     OW85552   1.977  13.640   1.053
94593SOL    HW185553   2.058  13.678   1.088
94593SOL    HW285554   1.944  13.586   1.124
94594SOL     OW85555   2.546   7.618   8.041
94594SOL    HW185556   2.639   7.595   8.042
94594SOL    HW285557   2.538   7.682   7.970
94595SOL     OW85558   9.857  10.682   3.673
94595SOL    HW185559   9.822  10.747   3.612
94595SOL    HW285560   9.790  10.674   3.741
94596SOL     OW85561   0.865  13.461   5.535
94596SOL    HW185562   0.948  13.447   5.579
94596SOL    HW285563   0.799  13.436   5.600
94597SOL     OW85564   7.582   3.775   4.968
94597SOL    HW185565   7.589   3.821   5.051
94597SOL    HW285566   7.645   3.818   4.911
94598SOL     OW85567   7.709   3.047   4.417
94598SOL    HW185568   7.779   3.063   4.480
94598SOL    HW285569   7.697   2.952   4.416
94599SOL     OW85570   1.935  11.352   8.763
94599SOL    HW185571   1.950  11.378   8.854
94599SOL    HW285572   1.938  11.434   8.714
94600SOL     OW85573   6.922   9.701   8.708
94600SOL    HW185574   6.951   9.724   8.620
94600SOL    HW285575   6.840   9.748   8.719
94601SOL     OW85576   0.695   8.304   3.275
94601SOL    HW185577   0.641   8.227   3.262
94601SOL    HW285578   0.731   8.294   3.364
94602SOL     OW85579  13.772   3.802  14.405
94602SOL    HW185580  13.703   3.845  14.354
94602SOL    HW285581  13.802   3.870  14.466
94603SOL     OW85582  11.271   1.182  11.621
94603SOL    HW185583  11.246   1.223  11.538
94603SOL    HW285584  11.187   1.160  11.663
94604SOL     OW85585   5.564   1.874  13.506
94604SOL    HW185586   5.635   1.830  13.553
94604SOL    HW285587   5.594   1.965  13.499
94605SOL     OW85588   9.543   0.600   8.397
94605SOL    HW185589   9.591   0.679   8.372
94605SOL    HW285590   9.523   0.557   8.314
94606SOL     OW85591   1.425  14.664   2.526
94606SOL    HW185592   1.475  14.605   2.584
94606SOL    HW285593   1.476  14.745   2.525
94607SOL     OW85594  14.313  14.565   7.963
94607SOL    HW185595  14.239  14.608   7.920
94607SOL    HW285596  14.390  14.613   7.932
94608SOL     OW85597  14.641   1.637   3.044
94608SOL    HW185598  14.631   1.694   2.968
94608SOL    HW285599  14.663   1.551   3.007
94609SOL     OW85600   8.165  12.901  10.442
94609SOL    HW185601   8.170  12.900  10.347
94609SOL    HW285602   8.074  12.924  10.461
94610SOL     OW85603   2.582  13.556   3.866
94610SOL    HW185604   2.639  13.631   3.852
94610SOL    HW285605   2.571  13.518   3.778
94611SOL     OW85606   7.283   8.671  13.511
94611SOL    HW185607   7.366   8.688  13.466
94611SOL    HW285608   7.218   8.666  13.442
94612SOL     OW85609   9.838   1.218   1.201
94612SOL    HW185610   9.807   1.235   1.290
94612SOL    HW285611   9.794   1.137   1.175
94613SOL     OW85612   8.692  10.123  14.394
94613SOL    HW185613   8.626  10.056  14.412
94613SOL    HW285614   8.745  10.086  14.324
94614SOL     OW85615   6.927   8.053   6.881
94614SOL    HW185616   6.912   8.019   6.793
94614SOL    HW285617   6.922   8.149   6.871
94615SOL     OW85618   2.266   5.209   8.579
94615SOL    HW185619   2.318   5.282   8.545
94615SOL    HW285620   2.214   5.180   8.504
94616SOL     OW85621   4.815   8.228   4.412
94616SOL    HW185622   4.802   8.134   4.422
94616SOL    HW285623   4.791   8.265   4.497
94617SOL     OW85624  14.589   3.318   7.383
94617SOL    HW185625  14.565   3.234   7.422
94617SOL    HW285626  14.507   3.366   7.375
94618SOL     OW85627  10.987   7.236   0.486
94618SOL    HW185628  10.999   7.331   0.486
94618SOL    HW285629  11.052   7.204   0.424
94619SOL     OW85630  10.307   5.600   2.909
94619SOL    HW185631  10.253   5.528   2.875
94619SOL    HW285632  10.265   5.623   2.992
94620SOL     OW85633   1.056   6.043   8.679
94620SOL    HW185634   1.000   6.001   8.614
94620SOL    HW285635   1.145   6.026   8.650
94621SOL     OW85636   8.048   6.676  14.771
94621SOL    HW185637   7.961   6.660  14.809
94621SOL    HW285638   8.077   6.590  14.741
94622SOL     OW85639   1.863   9.451   1.684
94622SOL    HW185640   1.783   9.502   1.694
94622SOL    HW285641   1.846   9.393   1.610
94623SOL     OW85642   1.583   0.918   6.862
94623SOL    HW185643   1.544   1.001   6.836
94623SOL    HW285644   1.539   0.894   6.943
94624SOL     OW85645  11.156   8.059   8.739
94624SOL    HW185646  11.116   8.113   8.807
94624SOL    HW285647  11.248   8.053   8.765
94625SOL     OW85648  13.656   2.689   9.282
94625SOL    HW185649  13.584   2.719   9.226
94625SOL    HW285650  13.628   2.603   9.313
94626SOL     OW85651  14.035   6.778   0.783
94626SOL    HW185652  14.043   6.767   0.878
94626SOL    HW285653  13.940   6.774   0.767
94627SOL     OW85654   1.847   6.782  11.498
94627SOL    HW185655   1.793   6.793  11.419
94627SOL    HW285656   1.916   6.721  11.472
94628SOL     OW85657   1.879  13.861   3.573
94628SOL    HW185658   1.970  13.885   3.588
94628SOL    HW285659   1.844  13.844   3.660
94629SOL     OW85660  10.586   6.798   5.134
94629SOL    HW185661  10.644   6.794   5.211
94629SOL    HW285662  10.598   6.713   5.091
94630SOL     OW85663   5.266  11.749  10.817
94630SOL    HW185664   5.273  11.842  10.839
94630SOL    HW285665   5.202  11.714  10.879
94631SOL     OW85666   3.220   8.241   2.527
94631SOL    HW185667   3.302   8.256   2.573
94631SOL    HW285668   3.237   8.164   2.472
94632SOL     OW85669   2.499  11.590   0.262
94632SOL    HW185670   2.484  11.521   0.326
94632SOL    HW285671   2.485  11.672   0.311
94633SOL     OW85672   6.352   3.409   9.930
94633SOL    HW185673   6.427   3.469   9.921
94633SOL    HW285674   6.375   3.353  10.003
94634SOL     OW85675   8.079   6.925  12.980
94634SOL    HW185676   7.987   6.903  12.976
94634SOL    HW285677   8.080   7.019  12.998
94635SOL     OW85678   1.728  10.985   5.234
94635SOL    HW185679   1.667  11.041   5.187
94635SOL    HW285680   1.798  11.043   5.262
94636SOL     OW85681  14.845   1.565  11.168
94636SOL    HW185682  14.837   1.579  11.263
94636SOL    HW285683  14.769   1.610  11.131
94637SOL     OW85684  11.282  11.963   4.313
94637SOL    HW185685  11.316  11.874   4.328
94637SOL    HW285686  11.188  11.950   4.299
94638SOL     OW85687   5.164   4.684   5.721
94638SOL    HW185688   5.174   4.629   5.798
94638SOL    HW285689   5.231   4.652   5.660
94639SOL     OW85690   4.249  12.859  14.068
94639SOL    HW185691   4.213  12.867  13.979
94639SOL    HW285692   4.254  12.765  14.083
94640SOL     OW85693   9.266   5.793   5.145
94640SOL    HW185694   9.257   5.771   5.238
94640SOL    HW285695   9.359   5.812   5.134
94641SOL     OW85696   3.573  13.005   2.001
94641SOL    HW185697   3.623  13.029   2.079
94641SOL    HW285698   3.544  12.916   2.017
94642SOL     OW85699   6.923   7.794   6.451
94642SOL    HW185700   6.962   7.764   6.533
94642SOL    HW285701   6.902   7.713   6.404
94643SOL     OW85702   8.121  12.983   6.231
94643SOL    HW185703   8.189  12.983   6.164
94643SOL    HW285704   8.088  12.893   6.231
94644SOL     OW85705   0.403   5.801   7.410
94644SOL    HW185706   0.312   5.787   7.435
94644SOL    HW285707   0.447   5.828   7.490
94645SOL     OW85708   2.817   4.267  11.618
94645SOL    HW185709   2.789   4.356  11.638
94645SOL    HW285710   2.760   4.212  11.671
94646SOL     OW85711   5.192   5.818   7.152
94646SOL    HW185712   5.112   5.869   7.137
94646SOL    HW285713   5.182   5.782   7.240
94647SOL     OW85714  11.201   6.948   0.381
94647SOL    HW185715  11.222   6.875   0.440
94647SOL    HW285716  11.272   6.948   0.317
94648SOL     OW85717   2.864  14.366   0.859
94648SOL    HW185718   2.866  14.448   0.809
94648SOL    HW285719   2.843  14.393   0.949
94649SOL     OW85720   9.331   7.623  10.951
94649SOL    HW185721   9.373   7.540  10.930
94649SOL    HW285722   9.367   7.648  11.036
94650SOL     OW85723  10.928  13.914  13.381
94650SOL    HW185724  10.951  14.005  13.396
94650SOL    HW285725  10.951  13.898  13.289
94651SOL     OW85726   4.316  14.144  11.679
94651SOL    HW185727   4.410  14.152  11.665
94651SOL    HW285728   4.307  14.127  11.773
94652SOL     OW85729   7.657   3.297  12.054
94652SOL    HW185730   7.746   3.268  12.038
94652SOL    HW285731   7.650   3.381  12.008
94653SOL     OW85732   9.425   6.994   8.010
94653SOL    HW185733   9.424   7.070   7.951
94653SOL    HW285734   9.371   6.929   7.965
94654SOL     OW85735   6.074  10.690   5.487
94654SOL    HW185736   6.168  10.704   5.496
94654SOL    HW285737   6.039  10.775   5.459
94655SOL     OW85738  13.448   1.278  13.864
94655SOL    HW185739  13.517   1.244  13.807
94655SOL    HW285740  13.463   1.373  13.865
94656SOL     OW85741  10.601  14.776   9.117
94656SOL    HW185742  10.626  14.742   9.031
94656SOL    HW285743  10.575  14.698   9.166
94657SOL     OW85744   6.009  13.767   9.041
94657SOL    HW185745   5.942  13.732   9.099
94657SOL    HW285746   6.082  13.706   9.048
94658SOL     OW85747  12.999   6.810   2.678
94658SOL    HW185748  13.001   6.721   2.643
94658SOL    HW285749  12.958   6.861   2.608
94659SOL     OW85750   1.837  11.328   7.445
94659SOL    HW185751   1.809  11.236   7.444
94659SOL    HW285752   1.819  11.357   7.535
94660SOL     OW85753  13.057   9.830   7.154
94660SOL    HW185754  12.973   9.810   7.193
94660SOL    HW285755  13.116   9.762   7.187
94661SOL     OW85756   0.506  14.427  10.040
94661SOL    HW185757   0.549  14.411   9.956
94661SOL    HW285758   0.456  14.507  10.027
94662SOL     OW85759  11.941  13.232  14.143
94662SOL    HW185760  11.921  13.311  14.091
94662SOL    HW285761  11.896  13.248  14.226
94663SOL     OW85762   4.835   2.697   9.536
94663SOL    HW185763   4.757   2.644   9.552
94663SOL    HW285764   4.802   2.787   9.536
94664SOL     OW85765  13.319   1.160  14.563
94664SOL    HW185766  13.224   1.157  14.553
94664SOL    HW285767  13.336   1.123  14.649
94665SOL     OW85768   2.407  12.715   1.841
94665SOL    HW185769   2.446  12.674   1.764
94665SOL    HW285770   2.473  12.704   1.910
94666SOL     OW85771   2.669   1.889   4.869
94666SOL    HW185772   2.747   1.870   4.815
94666SOL    HW285773   2.618   1.808   4.866
94667SOL     OW85774   0.689   1.204  12.205
94667SOL    HW185775   0.774   1.164  12.187
94667SOL    HW285776   0.626   1.140  12.170
94668SOL     OW85777  11.583  12.384  14.022
94668SOL    HW185778  11.570  12.460  13.965
94668SOL    HW285779  11.586  12.309  13.962
94669SOL     OW85780   9.686  13.912   3.548
94669SOL    HW185781   9.654  13.846   3.486
94669SOL    HW285782   9.767  13.876   3.583
94670SOL     OW85783   6.556   3.635  14.819
94670SOL    HW185784   6.484   3.683  14.861
94670SOL    HW285785   6.554   3.664  14.728
94671SOL     OW85786   4.691   7.487   8.189
94671SOL    HW185787   4.622   7.461   8.128
94671SOL    HW285788   4.726   7.568   8.153
94672SOL     OW85789   8.388   2.979  11.439
94672SOL    HW185790   8.423   2.893  11.419
94672SOL    HW285791   8.349   2.970  11.526
94673SOL     OW85792   8.944  11.472   3.013
94673SOL    HW185793   8.961  11.566   3.004
94673SOL    HW285794   8.945  11.456   3.108
94674SOL     OW85795   7.075   6.829   3.180
94674SOL    HW185796   7.046   6.818   3.270
94674SOL    HW285797   7.061   6.922   3.162
94675SOL     OW85798   6.199  12.582   1.680
94675SOL    HW185799   6.174  12.507   1.626
94675SOL    HW285800   6.284  12.558   1.717
94676SOL     OW85801   9.803   4.343   3.910
94676SOL    HW185802   9.727   4.337   3.853
94676SOL    HW285803   9.850   4.260   3.898
94677SOL     OW85804   6.351  10.277   8.273
94677SOL    HW185805   6.396  10.208   8.225
94677SOL    HW285806   6.292  10.316   8.209
94678SOL     OW85807  10.147  12.979  10.780
94678SOL    HW185808  10.194  12.897  10.790
94678SOL    HW285809  10.210  13.047  10.806
94679SOL     OW85810   0.308   1.011   2.609
94679SOL    HW185811   0.365   0.950   2.655
94679SOL    HW285812   0.332   1.097   2.643
94680SOL     OW85813  14.476   3.148   9.468
94680SOL    HW185814  14.509   3.068   9.509
94680SOL    HW285815  14.469   3.127   9.375
94681SOL     OW85816  12.493   6.945   6.824
94681SOL    HW185817  12.567   6.981   6.873
94681SOL    HW285818  12.489   6.854   6.852
94682SOL     OW85819   2.946   8.886   9.745
94682SOL    HW185820   3.041   8.899   9.744
94682SOL    HW285821   2.933   8.809   9.801
94683SOL     OW85822   5.552  13.076   3.268
94683SOL    HW185823   5.598  12.996   3.291
94683SOL    HW285824   5.477  13.079   3.328
94684SOL     OW85825  11.631   7.111   5.285
94684SOL    HW185826  11.669   7.197   5.304
94684SOL    HW285827  11.705   7.057   5.261
94685SOL     OW85828  14.742   6.651   8.780
94685SOL    HW185829  14.681   6.696   8.839
94685SOL    HW285830  14.752   6.564   8.818
94686SOL     OW85831   9.095  10.089  11.951
94686SOL    HW185832   9.026  10.032  11.985
94686SOL    HW285833   9.048  10.166  11.919
94687SOL     OW85834  12.352   8.924   8.100
94687SOL    HW185835  12.327   8.970   8.180
94687SOL    HW285836  12.446   8.942   8.091
94688SOL     OW85837   2.896   5.854  13.684
94688SOL    HW185838   2.833   5.883  13.750
94688SOL    HW285839   2.920   5.934  13.637
94689SOL     OW85840   8.879  10.935  12.109
94689SOL    HW185841   8.875  10.842  12.087
94689SOL    HW285842   8.965  10.947  12.149
94690SOL     OW85843   0.408   0.439   4.483
94690SOL    HW185844   0.483   0.489   4.515
94690SOL    HW285845   0.445   0.375   4.424
94691SOL     OW85846  11.657   8.065   9.955
94691SOL    HW185847  11.684   7.994  10.013
94691SOL    HW285848  11.564   8.049   9.939
94692SOL     OW85849   2.052   5.482   3.264
94692SOL    HW185850   2.058   5.577   3.271
94692SOL    HW285851   1.969   5.466   3.218
94693SOL     OW85852  11.687   7.394   0.070
94693SOL    HW185853  11.703   7.488   0.057
94693SOL    HW285854  11.670   7.360  14.864
94694SOL     OW85855   0.275  14.607   9.157
94694SOL    HW185856   0.207  14.675   9.155
94694SOL    HW285857   0.314  14.615   9.244
94695SOL     OW85858   1.095   1.987   0.974
94695SOL    HW185859   1.015   2.037   0.988
94695SOL    HW285860   1.151   2.045   0.922
94696SOL     OW85861   3.599   0.520   3.661
94696SOL    HW185862   3.549   0.594   3.695
94696SOL    HW285863   3.653   0.491   3.735
94697SOL     OW85864   5.140  11.701   9.192
94697SOL    HW185865   5.123  11.622   9.141
94697SOL    HW285866   5.085  11.692   9.269
94698SOL     OW85867  12.509   6.068   2.521
94698SOL    HW185868  12.585   6.066   2.461
94698SOL    HW285869  12.537   6.016   2.596
94699SOL     OW85870   1.225  12.979   2.616
94699SOL    HW185871   1.195  12.938   2.535
94699SOL    HW285872   1.201  13.071   2.606
94700SOL     OW85873   2.063   9.621   1.372
94700SOL    HW185874   2.053   9.638   1.278
94700SOL    HW285875   2.028   9.532   1.384
94701SOL     OW85876   8.953   2.162  12.850
94701SOL    HW185877   9.006   2.238  12.824
94701SOL    HW285878   8.865   2.184  12.822
94702SOL     OW85879  10.302   6.134   0.585
94702SOL    HW185880  10.366   6.073   0.622
94702SOL    HW285881  10.352   6.214   0.567
94703SOL     OW85882   2.776   3.970  13.218
94703SOL    HW185883   2.841   4.033  13.189
94703SOL    HW285884   2.695   4.021  13.225
94704SOL     OW85885   3.561  10.494   6.463
94704SOL    HW185886   3.520  10.486   6.549
94704SOL    HW285887   3.634  10.554   6.477
94705SOL     OW85888   7.706   7.780  14.411
94705SOL    HW185889   7.796   7.753  14.393
94705SOL    HW285890   7.659   7.698  14.429
94706SOL     OW85891   1.252  11.856   6.679
94706SOL    HW185892   1.331  11.909   6.683
94706SOL    HW285893   1.283  11.766   6.693
94707SOL     OW85894   2.755   1.822   6.336
94707SOL    HW185895   2.758   1.911   6.302
94707SOL    HW285896   2.665   1.792   6.318
94708SOL     OW85897   6.839  14.199  10.817
94708SOL    HW185898   6.789  14.278  10.839
94708SOL    HW285899   6.930  14.223  10.834
94709SOL     OW85900  13.425   4.923   6.011
94709SOL    HW185901  13.388   5.011   6.023
94709SOL    HW285902  13.397   4.897   5.923
94710SOL     OW85903   8.567   8.736   9.217
94710SOL    HW185904   8.569   8.673   9.289
94710SOL    HW285905   8.647   8.788   9.227
94711SOL     OW85906  14.561   4.470   9.576
94711SOL    HW185907  14.548   4.500   9.486
94711SOL    HW285908  14.611   4.389   9.568
94712SOL     OW85909  14.118   9.717  11.906
94712SOL    HW185910  14.096   9.635  11.863
94712SOL    HW285911  14.154   9.691  11.991
94713SOL     OW85912   8.303   4.796   4.712
94713SOL    HW185913   8.286   4.854   4.786
94713SOL    HW285914   8.303   4.708   4.750
94714SOL     OW85915   6.456   5.787   1.279
94714SOL    HW185916   6.373   5.745   1.258
94714SOL    HW285917   6.434   5.879   1.292
94715SOL     OW85918   2.406  11.126   9.035
94715SOL    HW185919   2.461  11.134   9.113
94715SOL    HW285920   2.461  11.154   8.963
94716SOL     OW85921   0.884   0.291   6.986
94716SOL    HW185922   0.960   0.342   7.014
94716SOL    HW285923   0.922   0.212   6.946
94717SOL     OW85924   7.050  12.442   9.772
94717SOL    HW185925   7.070  12.500   9.699
94717SOL    HW285926   7.040  12.356   9.731
94718SOL     OW85927   0.401  14.787   6.143
94718SOL    HW185928   0.445  14.757   6.223
94718SOL    HW285929   0.333  14.846   6.175
94719SOL     OW85930   7.674  12.926   8.855
94719SOL    HW185931   7.669  13.022   8.864
94719SOL    HW285932   7.645  12.892   8.939
94720SOL     OW85933   5.585   5.477   1.674
94720SOL    HW185934   5.629   5.558   1.700
94720SOL    HW285935   5.492   5.494   1.694
94721SOL     OW85936   3.499   5.867   2.657
94721SOL    HW185937   3.541   5.813   2.590
94721SOL    HW285938   3.437   5.809   2.700
94722SOL     OW85939  11.222  14.698  10.687
94722SOL    HW185940  11.155  14.764  10.703
94722SOL    HW285941  11.268  14.727  10.608
94723SOL     OW85942   7.843   1.400   4.349
94723SOL    HW185943   7.932   1.423   4.376
94723SOL    HW285944   7.790   1.475   4.376
94724SOL     OW85945  10.028   8.534   0.752
94724SOL    HW185946  10.065   8.512   0.838
94724SOL    HW285947  10.102   8.526   0.692
94725SOL     OW85948   5.201  11.352   1.336
94725SOL    HW185949   5.246  11.278   1.376
94725SOL    HW285950   5.269  11.419   1.328
94726SOL     OW85951   8.573  14.314  14.127
94726SOL    HW185952   8.497  14.266  14.094
94726SOL    HW285953   8.571  14.397  14.079
94727SOL     OW85954  13.727   6.781  10.242
94727SOL    HW185955  13.718   6.853  10.305
94727SOL    HW285956  13.702   6.819  10.158
94728SOL     OW85957  13.874   6.400   1.945
94728SOL    HW185958  13.968   6.399   1.928
94728SOL    HW285959  13.862   6.465   2.014
94729SOL     OW85960  12.054   5.176  13.977
94729SOL    HW185961  12.094   5.144  14.057
94729SOL    HW285962  11.976   5.223  14.007
94730SOL     OW85963  11.506  13.091   6.550
94730SOL    HW185964  11.599  13.110   6.536
94730SOL    HW285965  11.495  13.098   6.645
94731SOL     OW85966  10.129  10.075  13.540
94731SOL    HW185967  10.144  10.106  13.450
94731SOL    HW285968  10.166  10.144  13.595
94732SOL     OW85969  13.607   1.835  10.943
94732SOL    HW185970  13.566   1.853  11.028
94732SOL    HW285971  13.561   1.758  10.910
94733SOL     OW85972  12.844  14.830   0.105
94733SOL    HW185973  12.833  14.878   0.187
94733SOL    HW285974  12.767  14.773   0.099
94734SOL     OW85975   5.429   2.674   9.659
94734SOL    HW185976   5.354   2.693   9.714
94734SOL    HW285977   5.493   2.742   9.680
94735SOL     OW85978   0.353   6.996   1.814
94735SOL    HW185979   0.302   7.007   1.733
94735SOL    HW285980   0.408   7.073   1.819
94736SOL     OW85981   0.175   0.283   4.375
94736SOL    HW185982   0.136   0.366   4.348
94736SOL    HW285983   0.269   0.300   4.375
94737SOL     OW85984  10.795  14.825   7.063
94737SOL    HW185985  10.858  14.845   6.994
94737SOL    HW285986  10.772  14.733   7.049
94738SOL     OW85987   6.318   6.424   8.933
94738SOL    HW185988   6.259   6.354   8.906
94738SOL    HW285989   6.404   6.397   8.900
94739SOL     OW85990  11.582  14.378   6.265
94739SOL    HW185991  11.531  14.387   6.184
94739SOL    HW285992  11.672  14.399   6.239
94740SOL     OW85993  12.438   9.892   8.702
94740SOL    HW185994  12.395   9.954   8.760
94740SOL    HW285995  12.530   9.897   8.725
94741SOL     OW85996  12.233  10.805  14.750
94741SOL    HW185997  12.319  10.798  14.707
94741SOL    HW285998  12.221  10.720  14.793
94742SOL     OW85999   8.129   9.111   2.470
94742SOL    HW186000   8.210   9.155   2.443
94742SOL    HW286001   8.135   9.024   2.432
94743SOL     OW86002   1.904   8.941   1.289
94743SOL    HW186003   1.931   8.953   1.380
94743SOL    HW286004   1.841   9.012   1.273
94744SOL     OW86005   8.050   9.531   8.533
94744SOL    HW186006   7.987   9.486   8.590
94744SOL    HW286007   8.004   9.542   8.450
94745SOL     OW86008  13.401   1.585   9.325
94745SOL    HW186009  13.480   1.567   9.274
94745SOL    HW286010  13.337   1.522   9.293
94746SOL     OW86011   0.069  10.930  10.136
94746SOL    HW186012  14.870  10.893  10.173
94746SOL    HW286013   0.139  10.897  10.192
94747SOL     OW86014   1.638   7.477   8.401
94747SOL    HW186015   1.724   7.491   8.360
94747SOL    HW286016   1.658   7.463   8.494
94748SOL     OW86017   4.849   0.862  11.143
94748SOL    HW186018   4.827   0.892  11.231
94748SOL    HW286019   4.944   0.868  11.139
94749SOL     OW86020   8.054   3.282   6.636
94749SOL    HW186021   8.144   3.256   6.657
94749SOL    HW286022   8.053   3.290   6.541
94750SOL     OW86023   2.041   8.795   9.762
94750SOL    HW186024   1.977   8.740   9.717
94750SOL    HW286025   2.095   8.832   9.692
94751SOL     OW86026  10.682  11.640   5.717
94751SOL    HW186027  10.663  11.674   5.805
94751SOL    HW286028  10.681  11.718   5.661
94752SOL     OW86029   4.849   5.771  11.892
94752SOL    HW186030   4.804   5.687  11.887
94752SOL    HW286031   4.897   5.778  11.810
94753SOL     OW86032   6.779  10.565  10.292
94753SOL    HW186033   6.840  10.516  10.237
94753SOL    HW286034   6.711  10.594  10.232
94754SOL     OW86035  12.963  12.687  11.316
94754SOL    HW186036  12.934  12.647  11.399
94754SOL    HW286037  12.883  12.717  11.274
94755SOL     OW86038  12.742  10.168   9.483
94755SOL    HW186039  12.786  10.245   9.446
94755SOL    HW286040  12.670  10.150   9.422
94756SOL     OW86041   5.465  11.850  13.149
94756SOL    HW186042   5.515  11.879  13.226
94756SOL    HW286043   5.499  11.903  13.077
94757SOL     OW86044   6.609  13.513  12.042
94757SOL    HW186045   6.542  13.447  12.059
94757SOL    HW286046   6.622  13.511  11.948
94758SOL     OW86047   9.010  13.953   2.108
94758SOL    HW186048   8.995  14.008   2.031
94758SOL    HW286049   8.982  14.008   2.182
94759SOL     OW86050   2.256   1.643   6.657
94759SOL    HW186051   2.224   1.597   6.734
94759SOL    HW286052   2.316   1.709   6.692
94760SOL     OW86053   4.013   3.768   4.386
94760SOL    HW186054   4.002   3.825   4.309
94760SOL    HW286055   3.928   3.725   4.396
94761SOL     OW86056   0.910   3.044   8.048
94761SOL    HW186057   0.876   2.998   8.125
94761SOL    HW286058   0.833   3.080   8.005
94762SOL     OW86059   0.841  14.437  14.474
94762SOL    HW186060   0.916  14.466  14.526
94762SOL    HW286061   0.765  14.452  14.531
94763SOL     OW86062   5.720   3.690  12.862
94763SOL    HW186063   5.804   3.668  12.902
94763SOL    HW286064   5.708   3.625  12.793
94764SOL     OW86065   7.205   3.459   0.591
94764SOL    HW186066   7.301   3.462   0.588
94764SOL    HW286067   7.185   3.398   0.663
94765SOL     OW86068   5.986   6.326   4.028
94765SOL    HW186069   5.937   6.373   4.095
94765SOL    HW286070   6.043   6.267   4.077
94766SOL     OW86071   7.125   3.596   8.994
94766SOL    HW186072   7.066   3.533   8.953
94766SOL    HW286073   7.204   3.594   8.939
94767SOL     OW86074   3.584   3.603  13.625
94767SOL    HW186075   3.590   3.673  13.560
94767SOL    HW286076   3.596   3.522  13.576
94768SOL     OW86077  14.040   0.684   6.805
94768SOL    HW186078  13.981   0.626   6.853
94768SOL    HW286079  14.065   0.634   6.728
94769SOL     OW86080   2.016  13.859  13.146
94769SOL    HW186081   2.014  13.775  13.192
94769SOL    HW286082   2.108  13.883  13.143
94770SOL     OW86083  13.591   9.652  12.465
94770SOL    HW186084  13.559   9.613  12.384
94770SOL    HW286085  13.615   9.742  12.441
94771SOL     OW86086  12.630  13.685  13.027
94771SOL    HW186087  12.552  13.705  13.078
94771SOL    HW286088  12.600  13.685  12.936
94772SOL     OW86089   8.101   8.154   6.245
94772SOL    HW186090   8.015   8.166   6.285
94772SOL    HW286091   8.163   8.168   6.317
94773SOL     OW86092   6.739  11.075   9.539
94773SOL    HW186093   6.727  10.996   9.592
94773SOL    HW286094   6.660  11.080   9.484
94774SOL     OW86095   7.134   9.926   8.908
94774SOL    HW186096   7.051   9.952   8.867
94774SOL    HW286097   7.116   9.928   9.002
94775SOL     OW86098  11.930   7.798   5.345
94775SOL    HW186099  12.010   7.836   5.381
94775SOL    HW286100  11.907   7.728   5.406
94776SOL     OW86101  14.573   1.549   9.827
94776SOL    HW186102  14.601   1.489   9.896
94776SOL    HW286103  14.483   1.572   9.852
94777SOL     OW86104   8.333   4.535   4.817
94777SOL    HW186105   8.271   4.496   4.879
94777SOL    HW286106   8.406   4.563   4.872
94778SOL     OW86107  10.701  14.302   4.588
94778SOL    HW186108  10.617  14.261   4.569
94778SOL    HW286109  10.690  14.394   4.562
94779SOL     OW86110   0.532   2.176   2.410
94779SOL    HW186111   0.605   2.176   2.349
94779SOL    HW286112   0.570   2.151   2.494
94780SOL     OW86113  11.496   7.342   2.411
94780SOL    HW186114  11.492   7.398   2.334
94780SOL    HW286115  11.578   7.295   2.402
94781SOL     OW86116   7.973   8.174   7.731
94781SOL    HW186117   7.984   8.269   7.733
94781SOL    HW286118   8.059   8.139   7.754
94782SOL     OW86119  11.107   2.022   5.808
94782SOL    HW186120  11.167   2.015   5.882
94782SOL    HW286121  11.163   2.051   5.736
94783SOL     OW86122   0.829   3.643   0.418
94783SOL    HW186123   0.888   3.605   0.483
94783SOL    HW286124   0.762   3.577   0.405
94784SOL     OW86125   6.954  12.728  14.016
94784SOL    HW186126   7.021  12.702  14.079
94784SOL    HW286127   6.877  12.749  14.069
94785SOL     OW86128   6.829  13.987   5.484
94785SOL    HW186129   6.854  14.077   5.501
94785SOL    HW286130   6.734  13.986   5.495
94786SOL     OW86131   8.089   3.292  11.148
94786SOL    HW186132   8.075   3.216  11.091
94786SOL    HW286133   8.184   3.296  11.160
94787SOL     OW86134   9.138   9.382  11.891
94787SOL    HW186135   9.224   9.347  11.914
94787SOL    HW286136   9.158   9.463  11.844
94788SOL     OW86137   4.994   6.722   8.153
94788SOL    HW186138   4.924   6.755   8.097
94788SOL    HW286139   5.075   6.753   8.111
94789SOL     OW86140  14.482   9.061  13.640
94789SOL    HW186141  14.414   9.012  13.594
94789SOL    HW286142  14.490   9.018  13.725
94790SOL     OW86143  14.445  11.557   8.166
94790SOL    HW186144  14.437  11.652   8.152
94790SOL    HW286145  14.428  11.545   8.260
94791SOL     OW86146  11.196   0.053   3.039
94791SOL    HW186147  11.197   0.078   2.946
94791SOL    HW286148  11.279   0.005   3.052
94792SOL     OW86149   9.238   3.408  14.628
94792SOL    HW186150   9.253   3.338  14.692
94792SOL    HW286151   9.143   3.412  14.619
94793SOL     OW86152   6.425  12.554  13.251
94793SOL    HW186153   6.341  12.530  13.289
94793SOL    HW286154   6.429  12.649  13.258
94794SOL     OW86155  13.944   4.440  10.543
94794SOL    HW186156  14.014   4.394  10.589
94794SOL    HW286157  13.985   4.470  10.462
94795SOL     OW86158  12.139   6.818  10.836
94795SOL    HW186159  12.217   6.792  10.886
94795SOL    HW286160  12.159   6.907  10.805
94796SOL     OW86161   3.829   3.074   9.242
94796SOL    HW186162   3.829   3.054   9.335
94796SOL    HW286163   3.757   3.136   9.231
94797SOL     OW86164   7.690  11.944   1.474
94797SOL    HW186165   7.775  11.956   1.431
94797SOL    HW286166   7.626  11.970   1.409
94798SOL     OW86167   6.211   5.848   9.735
94798SOL    HW186168   6.224   5.832   9.828
94798SOL    HW286169   6.122   5.816   9.717
94799SOL     OW86170   9.827  13.283   2.230
94799SOL    HW186171   9.801  13.375   2.227
94799SOL    HW286172   9.882  13.271   2.153
94800SOL     OW86173   2.765   2.519   3.737
94800SOL    HW186174   2.855   2.552   3.742
94800SOL    HW286175   2.732   2.553   3.654
94801SOL     OW86176   6.276   8.830   5.559
94801SOL    HW186177   6.220   8.907   5.545
94801SOL    HW286178   6.237   8.762   5.503
94802SOL     OW86179   3.921  13.617   7.588
94802SOL    HW186180   3.937  13.622   7.494
94802SOL    HW286181   3.978  13.684   7.625
94803SOL     OW86182   8.464   2.511   6.442
94803SOL    HW186183   8.452   2.603   6.416
94803SOL    HW286184   8.412   2.462   6.378
94804SOL     OW86185   0.722  13.630   4.238
94804SOL    HW186186   0.665  13.682   4.294
94804SOL    HW286187   0.696  13.539   4.254
94805SOL     OW86188   6.287  11.314  10.213
94805SOL    HW186189   6.330  11.396  10.238
94805SOL    HW286190   6.198  11.322  10.246
94806SOL     OW86191   1.383   4.165   6.514
94806SOL    HW186192   1.304   4.158   6.460
94806SOL    HW286193   1.389   4.259   6.535
94807SOL     OW86194   9.345   1.494   9.236
94807SOL    HW186195   9.418   1.547   9.202
94807SOL    HW286196   9.274   1.509   9.174
94808SOL     OW86197   3.640   6.441   7.620
94808SOL    HW186198   3.664   6.370   7.679
94808SOL    HW286199   3.610   6.397   7.541
94809SOL     OW86200  11.659   7.013   0.408
94809SOL    HW186201  11.682   7.093   0.361
94809SOL    HW286202  11.739   6.961   0.408
94810SOL     OW86203  13.776   3.827  13.238
94810SOL    HW186204  13.684   3.811  13.216
94810SOL    HW286205  13.778   3.918  13.269
94811SOL     OW86206   9.304   2.590   7.880
94811SOL    HW186207   9.303   2.528   7.952
94811SOL    HW286208   9.394   2.587   7.846
94812SOL     OW86209  10.439   1.617   0.660
94812SOL    HW186210  10.387   1.549   0.617
94812SOL    HW286211  10.508   1.571   0.706
94813SOL     OW86212   2.551   5.856   4.358
94813SOL    HW186213   2.614   5.802   4.311
94813SOL    HW286214   2.564   5.944   4.323
94814SOL     OW86215   4.551  12.830   5.499
94814SOL    HW186216   4.521  12.879   5.576
94814SOL    HW286217   4.471  12.806   5.453
94815SOL     OW86218   6.645   0.343   9.227
94815SOL    HW186219   6.703   0.400   9.178
94815SOL    HW286220   6.576   0.319   9.165
94816SOL     OW86221  14.605  12.126   1.149
94816SOL    HW186222  14.642  12.039   1.162
94816SOL    HW286223  14.549  12.141   1.226
94817SOL     OW86224   5.515   6.554  11.559
94817SOL    HW186225   5.581   6.609  11.517
94817SOL    HW286226   5.507   6.589  11.648
94818SOL     OW86227   7.735   7.756   5.073
94818SOL    HW186228   7.760   7.740   5.164
94818SOL    HW286229   7.792   7.826   5.044
94819SOL     OW86230   2.795   1.656   8.151
94819SOL    HW186231   2.759   1.740   8.180
94819SOL    HW286232   2.760   1.592   8.212
94820SOL     OW86233   4.307   4.323  11.979
94820SOL    HW186234   4.262   4.265  12.041
94820SOL    HW286235   4.237   4.369  11.933
94821SOL     OW86236   2.199  13.272   7.714
94821SOL    HW186237   2.126  13.293   7.771
94821SOL    HW286238   2.277  13.283   7.769
94822SOL     OW86239  10.529   0.225   0.631
94822SOL    HW186240  10.457   0.283   0.606
94822SOL    HW286241  10.543   0.169   0.555
94823SOL     OW86242  11.662   6.320   8.783
94823SOL    HW186243  11.710   6.402   8.769
94823SOL    HW286244  11.570   6.344   8.770
94824SOL     OW86245   5.209   1.937   3.478
94824SOL    HW186246   5.139   1.973   3.424
94824SOL    HW286247   5.172   1.930   3.565
94825SOL     OW86248  14.159  14.505  10.234
94825SOL    HW186249  14.253  14.503  10.249
94825SOL    HW286250  14.121  14.478  10.318
94826SOL     OW86251   2.108   9.309   8.071
94826SOL    HW186252   2.165   9.262   8.132
94826SOL    HW286253   2.028   9.326   8.121
94827SOL     OW86254  10.489   3.292   8.929
94827SOL    HW186255  10.514   3.282   9.021
94827SOL    HW286256  10.450   3.208   8.906
94828SOL     OW86257   2.134   8.811  12.938
94828SOL    HW186258   2.050   8.856  12.942
94828SOL    HW286259   2.132   8.765  12.855
94829SOL     OW86260   3.975   4.533  10.358
94829SOL    HW186261   4.048   4.550  10.417
94829SOL    HW286262   4.012   4.543  10.271
94830SOL     OW86263  12.639   7.087   7.840
94830SOL    HW186264  12.556   7.044   7.856
94830SOL    HW286265  12.647   7.151   7.911
94831SOL     OW86266   2.655   0.799  14.595
94831SOL    HW186267   2.714   0.826  14.665
94831SOL    HW286268   2.708   0.740  14.541
94832SOL     OW86269   6.267   6.520  13.111
94832SOL    HW186270   6.231   6.499  13.025
94832SOL    HW286271   6.279   6.435  13.153
94833SOL     OW86272  11.930   2.823   3.777
94833SOL    HW186273  11.890   2.903   3.743
94833SOL    HW286274  11.896   2.753   3.721
94834SOL     OW86275  14.577   9.104   7.650
94834SOL    HW186276  14.512   9.052   7.697
94834SOL    HW286277  14.661   9.079   7.689
94835SOL     OW86278   2.443   9.422   8.118
94835SOL    HW186279   2.368   9.443   8.174
94835SOL    HW286280   2.404   9.403   8.032
94836SOL     OW86281  10.719   9.746   7.882
94836SOL    HW186282  10.743   9.687   7.953
94836SOL    HW286283  10.665   9.693   7.823
94837SOL     OW86284   1.898   3.584   3.921
94837SOL    HW186285   1.811   3.624   3.922
94837SOL    HW286286   1.889   3.506   3.976
94838SOL     OW86287  13.414  12.742  12.430
94838SOL    HW186288  13.402  12.829  12.393
94838SOL    HW286289  13.334  12.725  12.479
94839SOL     OW86290  12.417   4.994   5.379
94839SOL    HW186291  12.502   5.032   5.400
94839SOL    HW286292  12.361   5.070   5.363
94840SOL     OW86293   0.003   8.298  10.961
94840SOL    HW186294  14.791   8.307  10.944
94840SOL    HW286295   0.035   8.389  10.966
94841SOL     OW86296   8.836  11.650  12.841
94841SOL    HW186297   8.882  11.733  12.833
94841SOL    HW286298   8.755  11.662  12.790
94842SOL     OW86299   9.564  14.621   8.660
94842SOL    HW186300   9.593  14.530   8.653
94842SOL    HW286301   9.532  14.630   8.750
94843SOL     OW86302   3.189   2.086   8.517
94843SOL    HW186303   3.270   2.138   8.514
94843SOL    HW286304   3.195   2.029   8.440
94844SOL     OW86305   2.306   9.134   7.505
94844SOL    HW186306   2.225   9.091   7.534
94844SOL    HW286307   2.286   9.227   7.504
94845SOL     OW86308  12.520   6.773  12.851
94845SOL    HW186309  12.466   6.772  12.772
94845SOL    HW286310  12.460   6.748  12.921
94846SOL     OW86311   3.669  10.022   9.998
94846SOL    HW186312   3.608   9.968  10.048
94846SOL    HW286313   3.656   9.995   9.907
94847SOL     OW86314   2.779  14.233   2.190
94847SOL    HW186315   2.817  14.300   2.133
94847SOL    HW286316   2.767  14.157   2.132
94848SOL     OW86317   4.615  13.477   9.499
94848SOL    HW186318   4.676  13.409   9.528
94848SOL    HW286319   4.666  13.533   9.441
94849SOL     OW86320   2.673   2.380   6.188
94849SOL    HW186321   2.673   2.458   6.132
94849SOL    HW286322   2.672   2.414   6.277
94850SOL     OW86323   8.318   7.469   2.467
94850SOL    HW186324   8.293   7.414   2.541
94850SOL    HW286325   8.384   7.528   2.502
94851SOL     OW86326   1.208  11.029   9.888
94851SOL    HW186327   1.152  10.984   9.825
94851SOL    HW286328   1.175  11.119   9.889
94852SOL     OW86329  14.723   0.822  10.946
94852SOL    HW186330  14.790   0.870  10.896
94852SOL    HW286331  14.679   0.889  10.997
94853SOL     OW86332  12.765  11.558   5.335
94853SOL    HW186333  12.820  11.579   5.411
94853SOL    HW286334  12.776  11.464   5.323
94854SOL     OW86335   2.154   7.302   0.452
94854SOL    HW186336   2.169   7.387   0.410
94854SOL    HW286337   2.215   7.242   0.408
94855SOL     OW86338   7.626  12.941  13.899
94855SOL    HW186339   7.661  13.012  13.845
94855SOL    HW286340   7.533  12.963  13.909
94856SOL     OW86341  11.893   5.609  14.234
94856SOL    HW186342  11.941   5.531  14.263
94856SOL    HW286343  11.959   5.661  14.187
94857SOL     OW86344  12.365  12.760   7.264
94857SOL    HW186345  12.339  12.731   7.177
94857SOL    HW286346  12.434  12.699   7.291
94858SOL     OW86347  11.021   2.776   1.501
94858SOL    HW186348  11.028   2.827   1.582
94858SOL    HW286349  10.979   2.836   1.439
94859SOL     OW86350   5.723   1.409   7.473
94859SOL    HW186351   5.677   1.483   7.433
94859SOL    HW286352   5.767   1.446   7.549
94860SOL     OW86353  11.811   5.215   9.944
94860SOL    HW186354  11.718   5.199   9.928
94860SOL    HW286355  11.841   5.137   9.990
94861SOL     OW86356   5.857  12.299  13.899
94861SOL    HW186357   5.851  12.203  13.897
94861SOL    HW286358   5.942  12.316  13.940
94862SOL     OW86359   4.285   5.496   9.445
94862SOL    HW186360   4.212   5.558   9.435
94862SOL    HW286361   4.250   5.412   9.414
94863SOL     OW86362  13.342   1.602   5.679
94863SOL    HW186363  13.318   1.691   5.704
94863SOL    HW286364  13.435   1.608   5.656
94864SOL     OW86365   5.175   9.895  11.425
94864SOL    HW186366   5.254   9.850  11.455
94864SOL    HW286367   5.207   9.975  11.383
94865SOL     OW86368   8.789   9.027   9.898
94865SOL    HW186369   8.732   9.100   9.874
94865SOL    HW286370   8.804   8.980   9.816
94866SOL     OW86371  11.138   9.262   9.434
94866SOL    HW186372  11.101   9.346   9.461
94866SOL    HW286373  11.143   9.268   9.338
94867SOL     OW86374   0.088  10.923   0.100
94867SOL    HW186375   0.173  10.884   0.077
94867SOL    HW286376   0.037  10.919   0.020
94868SOL     OW86377  10.076   1.022  13.829
94868SOL    HW186378  10.068   0.970  13.749
94868SOL    HW286379  10.158   1.070  13.819
94869SOL     OW86380  14.147   6.433   5.803
94869SOL    HW186381  14.243   6.434   5.801
94869SOL    HW286382  14.125   6.406   5.892
94870SOL     OW86383  13.762  11.058   4.382
94870SOL    HW186384  13.737  10.967   4.366
94870SOL    HW286385  13.794  11.058   4.472
94871SOL     OW86386  11.284   7.358  13.734
94871SOL    HW186387  11.311   7.268  13.716
94871SOL    HW286388  11.242   7.387  13.653
94872SOL     OW86389  14.315  10.121  10.650
94872SOL    HW186390  14.323  10.027  10.635
94872SOL    HW286391  14.386  10.140  10.711
94873SOL     OW86392  10.994   5.365  12.050
94873SOL    HW186393  11.049   5.321  12.115
94873SOL    HW286394  10.957   5.294  11.998
94874SOL     OW86395  11.727   1.803   9.135
94874SOL    HW186396  11.823   1.802   9.134
94874SOL    HW286397  11.705   1.893   9.160
94875SOL     OW86398   9.444  10.332  11.147
94875SOL    HW186399   9.392  10.268  11.197
94875SOL    HW286400   9.438  10.413  11.198
94876SOL     OW86401   3.452   5.697   6.820
94876SOL    HW186402   3.454   5.658   6.732
94876SOL    HW286403   3.360   5.719   6.834
94877SOL     OW86404   2.470  12.752  12.331
94877SOL    HW186405   2.471  12.815  12.403
94877SOL    HW286406   2.561  12.745  12.304
94878SOL     OW86407  14.298   5.512   2.753
94878SOL    HW186408  14.389   5.492   2.729
94878SOL    HW286409  14.246   5.482   2.679
94879SOL     OW86410   5.302  11.414   3.136
94879SOL    HW186411   5.301  11.371   3.221
94879SOL    HW286412   5.217  11.458   3.130
94880SOL     OW86413   7.086   4.186  13.987
94880SOL    HW186414   7.004   4.235  13.983
94880SOL    HW286415   7.068   4.103  13.943
94881SOL     OW86416   1.169   7.350   6.519
94881SOL    HW186417   1.245   7.369   6.575
94881SOL    HW286418   1.140   7.435   6.487
94882SOL     OW86419   2.719   3.648  12.402
94882SOL    HW186420   2.685   3.724  12.355
94882SOL    HW286421   2.706   3.575  12.342
94883SOL     OW86422  13.235  13.678  12.137
94883SOL    HW186423  13.202  13.751  12.189
94883SOL    HW286424  13.224  13.602  12.193
94884SOL     OW86425  10.277   2.040   7.573
94884SOL    HW186426  10.216   1.983   7.619
94884SOL    HW286427  10.363   2.013   7.604
94885SOL     OW86428   0.909  12.366   2.603
94885SOL    HW186429   1.004  12.354   2.609
94885SOL    HW286430   0.898  12.461   2.599
94886SOL     OW86431   4.255   0.313  10.789
94886SOL    HW186432   4.275   0.314  10.883
94886SOL    HW286433   4.341   0.313  10.746
94887SOL     OW86434   7.073  10.935  14.338
94887SOL    HW186435   7.017  10.860  14.321
94887SOL    HW286436   7.047  10.966  14.425
94888SOL     OW86437   3.808  12.101   6.427
94888SOL    HW186438   3.729  12.095   6.374
94888SOL    HW286439   3.810  12.019   6.477
94889SOL     OW86440  12.979   9.283   9.020
94889SOL    HW186441  12.920   9.280   8.945
94889SOL    HW286442  12.928   9.324   9.090
94890SOL     OW86443   5.342   4.081   9.046
94890SOL    HW186444   5.351   4.176   9.040
94890SOL    HW286445   5.371   4.060   9.135
94891SOL     OW86446   2.482   5.103   4.795
94891SOL    HW186447   2.526   5.164   4.855
94891SOL    HW286448   2.488   5.018   4.838
94892SOL     OW86449   9.567  14.380   5.344
94892SOL    HW186450   9.576  14.401   5.437
94892SOL    HW286451   9.529  14.292   5.343
94893SOL     OW86452   9.976  13.330   7.042
94893SOL    HW186453   9.982  13.268   7.114
94893SOL    HW286454  10.033  13.403   7.068
94894SOL     OW86455   2.381   2.780   3.012
94894SOL    HW186456   2.376   2.823   2.926
94894SOL    HW286457   2.468   2.739   3.013
94895SOL     OW86458   9.236   0.155   5.359
94895SOL    HW186459   9.182   0.093   5.310
94895SOL    HW286460   9.316   0.107   5.380
94896SOL     OW86461   0.630  13.377   3.181
94896SOL    HW186462   0.575  13.299   3.181
94896SOL    HW286463   0.614  13.418   3.266
94897SOL     OW86464   7.041   2.205   4.549
94897SOL    HW186465   7.124   2.189   4.594
94897SOL    HW286466   7.040   2.142   4.477
94898SOL     OW86467   5.759   7.410   6.391
94898SOL    HW186468   5.732   7.448   6.474
94898SOL    HW286469   5.676   7.392   6.345
94899SOL     OW86470  10.340   9.206   0.499
94899SOL    HW186471  10.424   9.250   0.513
94899SOL    HW286472  10.360   9.133   0.441
94900SOL     OW86473  14.742  11.747   9.085
94900SOL    HW186474  14.691  11.824   9.061
94900SOL    HW286475  14.702  11.717   9.167
94901SOL     OW86476   2.785  12.550  13.806
94901SOL    HW186477   2.722  12.537  13.877
94901SOL    HW286478   2.853  12.605  13.843
94902SOL     OW86479   7.582   8.688   2.321
94902SOL    HW186480   7.579   8.593   2.333
94902SOL    HW286481   7.588   8.723   2.410
94903SOL     OW86482   5.456   5.536   7.355
94903SOL    HW186483   5.492   5.471   7.415
94903SOL    HW286484   5.512   5.613   7.366
94904SOL     OW86485  14.359   5.812   9.717
94904SOL    HW186486  14.422   5.871   9.757
94904SOL    HW286487  14.284   5.868   9.695
94905SOL     OW86488   1.373   5.867   2.468
94905SOL    HW186489   1.380   5.784   2.516
94905SOL    HW286490   1.378   5.934   2.536
94906SOL     OW86491   4.755  10.230   7.158
94906SOL    HW186492   4.742  10.323   7.178
94906SOL    HW286493   4.713  10.185   7.231
94907SOL     OW86494   0.332   2.359   6.467
94907SOL    HW186495   0.387   2.331   6.393
94907SOL    HW286496   0.281   2.282   6.489
94908SOL     OW86497   9.362   4.772  11.686
94908SOL    HW186498   9.421   4.700  11.663
94908SOL    HW286499   9.315   4.791  11.605
94909SOL     OW86500   3.033  13.139   4.634
94909SOL    HW186501   2.976  13.068   4.663
94909SOL    HW286502   3.075  13.105   4.555
94910SOL     OW86503  14.350   0.676  12.675
94910SOL    HW186504  14.365   0.585  12.651
94910SOL    HW286505  14.334   0.721  12.592
94911SOL     OW86506  14.021  11.438   8.095
94911SOL    HW186507  14.099  11.383   8.085
94911SOL    HW286508  14.055  11.527   8.101
94912SOL     OW86509  10.965  10.122   2.574
94912SOL    HW186510  11.036  10.148   2.632
94912SOL    HW286511  10.940  10.203   2.528
94913SOL     OW86512   5.194   8.934   9.903
94913SOL    HW186513   5.144   8.858   9.933
94913SOL    HW286514   5.210   8.985   9.982
94914SOL     OW86515  11.340   8.560   8.501
94914SOL    HW186516  11.277   8.624   8.535
94914SOL    HW286517  11.347   8.494   8.570
94915SOL     OW86518   9.343   3.793  13.863
94915SOL    HW186519   9.272   3.841  13.905
94915SOL    HW286520   9.413   3.791  13.928
94916SOL     OW86521  14.810  14.831  11.384
94916SOL    HW186522  14.856   0.022  11.426
94916SOL    HW286523  14.756  14.794  11.453
94917SOL     OW86524   1.696   3.091   4.166
94917SOL    HW186525   1.603   3.080   4.186
94917SOL    HW286526   1.710   3.186   4.169
94918SOL     OW86527   0.981  14.650   5.641
94918SOL    HW186528   1.022  14.594   5.707
94918SOL    HW286529   1.042  14.649   5.567
94919SOL     OW86530   9.022  14.140   1.615
94919SOL    HW186531   9.004  14.091   1.535
94919SOL    HW286532   9.051  14.226   1.584
94920SOL     OW86533   0.771   8.955   8.988
94920SOL    HW186534   0.835   8.931   9.055
94920SOL    HW286535   0.723   9.028   9.025
94921SOL     OW86536   4.581   0.032  10.656
94921SOL    HW186537   4.635   0.006  10.582
94921SOL    HW286538   4.643   0.062  10.722
94922SOL     OW86539  14.826   0.364   9.294
94922SOL    HW186540  14.787   0.343   9.378
94922SOL    HW286541   0.035   0.388   9.315
94923SOL     OW86542   0.539  14.878  12.319
94923SOL    HW186543   0.549   0.064  12.386
94923SOL    HW286544   0.445  14.862  12.316
94924SOL     OW86545   1.998   2.103   7.712
94924SOL    HW186546   2.072   2.047   7.688
94924SOL    HW286547   1.981   2.155   7.634
94925SOL     OW86548   6.154  10.496  10.716
94925SOL    HW186549   6.059  10.494  10.708
94925SOL    HW286550   6.184  10.421  10.665
94926SOL     OW86551  12.033   4.636  12.937
94926SOL    HW186552  11.950   4.618  12.982
94926SOL    HW286553  12.009   4.633  12.844
94927SOL     OW86554   9.065   4.317   9.114
94927SOL    HW186555   9.102   4.374   9.181
94927SOL    HW286556   9.112   4.234   9.124
94928SOL     OW86557  14.426   9.311  13.212
94928SOL    HW186558  14.515   9.278  13.225
94928SOL    HW286559  14.373   9.232  13.200
94929SOL     OW86560   2.180   5.194  14.714
94929SOL    HW186561   2.250   5.228  14.770
94929SOL    HW286562   2.132   5.272  14.687
94930SOL     OW86563   9.423   3.609   6.179
94930SOL    HW186564   9.435   3.698   6.211
94930SOL    HW286565   9.497   3.595   6.119
94931SOL     OW86566   0.465   4.251  10.782
94931SOL    HW186567   0.370   4.255  10.785
94931SOL    HW286568   0.488   4.187  10.849
94932SOL     OW86569   3.744   1.472  12.983
94932SOL    HW186570   3.702   1.451  13.067
94932SOL    HW286571   3.701   1.415  12.920
94933SOL     OW86572   9.369   8.105   6.728
94933SOL    HW186573   9.317   8.083   6.806
94933SOL    HW286574   9.415   8.185   6.752
94934SOL     OW86575   4.212   1.426   9.016
94934SOL    HW186576   4.267   1.369   9.070
94934SOL    HW286577   4.141   1.453   9.073
94935SOL     OW86578   7.835  10.235   9.266
94935SOL    HW186579   7.898  10.164   9.253
94935SOL    HW286580   7.834  10.282   9.182
94936SOL     OW86581   2.967   9.174   6.027
94936SOL    HW186582   3.042   9.148   6.081
94936SOL    HW286583   2.913   9.095   6.022
94937SOL     OW86584   5.208   6.902   4.046
94937SOL    HW186585   5.146   6.959   4.000
94937SOL    HW286586   5.223   6.945   4.130
94938SOL     OW86587   1.627   5.382   4.750
94938SOL    HW186588   1.603   5.291   4.769
94938SOL    HW286589   1.571   5.407   4.677
94939SOL     OW86590   5.566  13.338   9.584
94939SOL    HW186591   5.508  13.283   9.636
94939SOL    HW286592   5.653  13.328   9.625
94940SOL     OW86593  13.850   7.965   7.540
94940SOL    HW186594  13.872   7.880   7.578
94940SOL    HW286595  13.809   7.943   7.455
94941SOL     OW86596   9.054   5.123   2.052
94941SOL    HW186597   9.122   5.066   2.088
94941SOL    HW286598   9.098   5.206   2.036
94942SOL     OW86599  14.199   4.849   6.918
94942SOL    HW186600  14.172   4.934   6.884
94942SOL    HW286601  14.278   4.867   6.969
94943SOL     OW86602   2.655  11.960   1.034
94943SOL    HW186603   2.735  11.946   0.983
94943SOL    HW286604   2.599  11.886   1.012
94944SOL     OW86605   9.581  13.348   8.855
94944SOL    HW186606   9.608  13.390   8.773
94944SOL    HW286607   9.498  13.305   8.833
94945SOL     OW86608   7.978   9.944   7.636
94945SOL    HW186609   7.888   9.952   7.667
94945SOL    HW286610   8.015  10.032   7.645
94946SOL     OW86611   2.307   9.077   1.523
94946SOL    HW186612   2.309   8.982   1.528
94946SOL    HW286613   2.286   9.106   1.612
94947SOL     OW86614  10.954  12.303  14.418
94947SOL    HW186615  10.878  12.259  14.380
94947SOL    HW286616  10.921  12.339  14.501
94948SOL     OW86617  10.691   1.246   2.346
94948SOL    HW186618  10.724   1.295   2.271
94948SOL    HW286619  10.726   1.158   2.335
94949SOL     OW86620  10.641   9.341  12.347
94949SOL    HW186621  10.657   9.278  12.276
94949SOL    HW286622  10.579   9.404  12.310
94950SOL     OW86623  12.563   7.100   7.057
94950SOL    HW186624  12.474   7.065   7.066
94950SOL    HW286625  12.550   7.188   7.021
94951SOL     OW86626   5.185   0.921  10.433
94951SOL    HW186627   5.188   0.829  10.460
94951SOL    HW286628   5.091   0.939  10.420
94952SOL     OW86629   3.202   8.687  12.282
94952SOL    HW186630   3.226   8.595  12.265
94952SOL    HW286631   3.286   8.730  12.299
94953SOL     OW86632   3.663   5.220   0.238
94953SOL    HW186633   3.731   5.166   0.198
94953SOL    HW286634   3.705   5.261   0.313
94954SOL     OW86635   8.971   3.027  11.213
94954SOL    HW186636   9.039   2.972  11.176
94954SOL    HW286637   8.954   3.093  11.146
94955SOL     OW86638   0.630   5.300   1.053
94955SOL    HW186639   0.602   5.379   1.100
94955SOL    HW286640   0.584   5.304   0.970
94956SOL     OW86641   1.459   9.272   7.992
94956SOL    HW186642   1.435   9.310   8.077
94956SOL    HW286643   1.514   9.339   7.951
94957SOL     OW86644  13.601  12.175   7.717
94957SOL    HW186645  13.604  12.111   7.788
94957SOL    HW286646  13.685  12.164   7.672
94958SOL     OW86647   8.227   4.818  13.280
94958SOL    HW186648   8.305   4.872  13.289
94958SOL    HW286649   8.193   4.838  13.192
94959SOL     OW86650  10.263   2.954  14.086
94959SOL    HW186651  10.213   2.896  14.143
94959SOL    HW286652  10.310   3.012  14.146
94960SOL     OW86653  13.221  10.645   1.268
94960SOL    HW186654  13.139  10.674   1.229
94960SOL    HW286655  13.279  10.630   1.193
94961SOL     OW86656   9.257   6.632   8.483
94961SOL    HW186657   9.319   6.670   8.546
94961SOL    HW286658   9.171   6.656   8.516
94962SOL     OW86659   0.644   9.512  14.387
94962SOL    HW186660   0.651   9.557  14.471
94962SOL    HW286661   0.594   9.571  14.331
94963SOL     OW86662   0.071   8.448   1.003
94963SOL    HW186663   0.139   8.386   0.978
94963SOL    HW286664   0.046   8.423   1.091
94964SOL     OW86665   2.022   7.164  12.736
94964SOL    HW186666   1.948   7.177  12.795
94964SOL    HW286667   2.029   7.246  12.687
94965SOL     OW86668   4.850   1.355  11.255
94965SOL    HW186669   4.945   1.348  11.244
94965SOL    HW286670   4.823   1.266  11.279
94966SOL     OW86671   0.415   0.921   8.134
94966SOL    HW186672   0.333   0.880   8.105
94966SOL    HW286673   0.483   0.865   8.097
94967SOL     OW86674   7.044   6.048  10.051
94967SOL    HW186675   6.962   6.054  10.100
94967SOL    HW286676   7.069   6.138  10.035
94968SOL     OW86677   6.838   1.529   5.635
94968SOL    HW186678   6.804   1.516   5.724
94968SOL    HW286679   6.799   1.612   5.606
94969SOL     OW86680  13.519   6.690   7.091
94969SOL    HW186681  13.480   6.722   7.173
94969SOL    HW286682  13.614   6.700   7.105
94970SOL     OW86683   1.199   1.149   3.964
94970SOL    HW186684   1.161   1.190   4.042
94970SOL    HW286685   1.274   1.099   3.998
94971SOL     OW86686   7.422   5.979  13.011
94971SOL    HW186687   7.451   6.050  12.953
94971SOL    HW286688   7.376   6.023  13.083
94972SOL     OW86689   9.326   2.677   1.721
94972SOL    HW186690   9.312   2.592   1.761
94972SOL    HW286691   9.408   2.668   1.672
94973SOL     OW86692  14.816   4.266  13.915
94973SOL    HW186693  14.781   4.339  13.967
94973SOL    HW286694  14.777   4.278  13.829
94974SOL     OW86695   9.339   4.682  11.408
94974SOL    HW186696   9.285   4.606  11.386
94974SOL    HW286697   9.313   4.749  11.345
94975SOL     OW86698  12.949   1.310   7.457
94975SOL    HW186699  12.957   1.230   7.508
94975SOL    HW286700  13.035   1.324   7.418
94976SOL     OW86701   1.064   8.899   1.485
94976SOL    HW186702   1.039   8.986   1.455
94976SOL    HW286703   1.035   8.896   1.576
94977SOL     OW86704   6.823   2.658   7.828
94977SOL    HW186705   6.743   2.707   7.810
94977SOL    HW286706   6.867   2.709   7.896
94978SOL     OW86707   0.550   8.299  12.528
94978SOL    HW186708   0.539   8.206  12.508
94978SOL    HW286709   0.644   8.315  12.514
94979SOL     OW86710   7.229   9.216   7.580
94979SOL    HW186711   7.228   9.248   7.671
94979SOL    HW286712   7.318   9.185   7.567
94980SOL     OW86713   0.118   7.857   7.371
94980SOL    HW186714   0.155   7.891   7.452
94980SOL    HW286715   0.024   7.871   7.380
94981SOL     OW86716   2.464  12.324  14.273
94981SOL    HW186717   2.493  12.288  14.189
94981SOL    HW286718   2.474  12.252  14.335
94982SOL     OW86719   6.780  11.213  12.303
94982SOL    HW186720   6.779  11.246  12.393
94982SOL    HW286721   6.691  11.179  12.289
94983SOL     OW86722   8.235   7.438   0.930
94983SOL    HW186723   8.226   7.355   0.883
94983SOL    HW286724   8.233   7.414   1.022
94984SOL     OW86725  12.279  13.172  13.120
94984SOL    HW186726  12.274  13.186  13.026
94984SOL    HW286727  12.370  13.193  13.143
94985SOL     OW86728   0.015  13.463  14.738
94985SOL    HW186729  14.804  13.446  14.754
94985SOL    HW286730   0.061  13.399  14.793
94986SOL     OW86731   3.557   3.364   2.237
94986SOL    HW186732   3.635   3.419   2.238
94986SOL    HW286733   3.589   3.276   2.256
94987SOL     OW86734   7.561   8.795   3.705
94987SOL    HW186735   7.518   8.742   3.771
94987SOL    HW286736   7.604   8.732   3.647
94988SOL     OW86737   2.398   3.357  11.791
94988SOL    HW186738   2.492   3.345  11.798
94988SOL    HW286739   2.361   3.269  11.800
94989SOL     OW86740   4.644   0.699   8.109
94989SOL    HW186741   4.587   0.761   8.065
94989SOL    HW286742   4.709   0.754   8.153
94990SOL     OW86743  10.882   2.505  14.715
94990SOL    HW186744  10.976   2.519  14.725
94990SOL    HW286745  10.842   2.568  14.777
94991SOL     OW86746  10.926   5.857   9.465
94991SOL    HW186747  10.883   5.792   9.520
94991SOL    HW286748  10.932   5.815   9.379
94992SOL     OW86749   8.342   3.542   1.323
94992SOL    HW186750   8.394   3.570   1.247
94992SOL    HW286751   8.402   3.489   1.375
94993SOL     OW86752   8.077  10.620  10.490
94993SOL    HW186753   7.990  10.659  10.492
94993SOL    HW286754   8.067  10.537  10.537
94994SOL     OW86755   2.542   5.811  11.450
94994SOL    HW186756   2.608   5.775  11.391
94994SOL    HW286757   2.527   5.743  11.515
94995SOL     OW86758   1.323   7.046  11.132
94995SOL    HW186759   1.345   7.129  11.175
94995SOL    HW286760   1.297   6.988  11.203
94996SOL     OW86761  10.359   6.386   0.944
94996SOL    HW186762  10.379   6.429   0.861
94996SOL    HW286763  10.273   6.419   0.969
94997SOL     OW86764   3.466  11.802   2.250
94997SOL    HW186765   3.558  11.827   2.255
94997SOL    HW286766   3.420  11.869   2.300
94998SOL     OW86767  11.887   3.633   2.049
94998SOL    HW186768  11.925   3.716   2.020
94998SOL    HW286769  11.925   3.617   2.135
94999SOL     OW86770   8.775  13.770   1.054
94999SOL    HW186771   8.683  13.750   1.074
94999SOL    HW286772   8.790  13.728   0.969
95000SOL     OW86773   6.511   6.469   8.764
95000SOL    HW186774   6.504   6.555   8.722
95000SOL    HW286775   6.477   6.408   8.698
95001SOL     OW86776   7.553   0.233   3.597
95001SOL    HW186777   7.478   0.177   3.615
95001SOL    HW286778   7.554   0.243   3.502
95002SOL     OW86779   5.710  11.505   2.593
95002SOL    HW186780   5.736  11.554   2.515
95002SOL    HW286781   5.667  11.570   2.648
95003SOL     OW86782   0.003   3.743  10.084
95003SOL    HW186783   0.084   3.780  10.121
95003SOL    HW286784  14.825   3.818  10.079
95004SOL     OW86785   4.474   1.266   8.020
95004SOL    HW186786   4.398   1.321   8.002
95004SOL    HW286787   4.449   1.217   8.098
95005SOL     OW86788   9.218   9.416   9.717
95005SOL    HW186789   9.276   9.490   9.699
95005SOL    HW286790   9.130   9.451   9.706
95006SOL     OW86791   5.172  13.686   8.589
95006SOL    HW186792   5.205  13.725   8.508
95006SOL    HW286793   5.240  13.625   8.616
95007SOL     OW86794  10.627   9.949   3.545
95007SOL    HW186795  10.653   9.863   3.575
95007SOL    HW286796  10.617   9.940   3.450
95008SOL     OW86797  13.556   6.584   7.942
95008SOL    HW186798  13.479   6.572   7.886
95008SOL    HW286799  13.522   6.578   8.031
95009SOL     OW86800   8.919  14.171  10.000
95009SOL    HW186801   8.989  14.235  10.012
95009SOL    HW286802   8.880  14.163  10.087
95010SOL     OW86803   7.950  10.553  13.738
95010SOL    HW186804   8.039  10.532  13.709
95010SOL    HW286805   7.895  10.484  13.700
95011SOL     OW86806   1.183  11.347   8.033
95011SOL    HW186807   1.237  11.376   8.107
95011SOL    HW286808   1.233  11.374   7.956
95012SOL     OW86809  12.456   0.164  12.620
95012SOL    HW186810  12.421   0.080  12.650
95012SOL    HW286811  12.547   0.164  12.650
95013SOL     OW86812  11.128  14.813   3.659
95013SOL    HW186813  11.049  14.784   3.703
95013SOL    HW286814  11.138  14.752   3.585
95014SOL     OW86815   9.498  13.063  14.554
95014SOL    HW186816   9.500  13.144  14.504
95014SOL    HW286817   9.588  13.031  14.552
95015SOL     OW86818   5.409   7.196   8.842
95015SOL    HW186819   5.435   7.108   8.870
95015SOL    HW286820   5.441   7.253   8.911
95016SOL     OW86821   3.294   7.055  11.298
95016SOL    HW186822   3.202   7.026  11.303
95016SOL    HW286823   3.289   7.143  11.259
95017SOL     OW86824   8.304   3.162   4.397
95017SOL    HW186825   8.386   3.135   4.357
95017SOL    HW286826   8.278   3.240   4.348
95018SOL     OW86827  11.039   2.925   8.545
95018SOL    HW186828  10.957   2.960   8.510
95018SOL    HW286829  11.071   2.866   8.476
95019SOL     OW86830   2.906   6.334   8.989
95019SOL    HW186831   2.861   6.408   9.029
95019SOL    HW286832   2.941   6.369   8.906
95020SOL     OW86833   5.192   8.583  10.202
95020SOL    HW186834   5.152   8.506  10.243
95020SOL    HW286835   5.267   8.603  10.257
95021SOL     OW86836   1.388   3.043  11.268
95021SOL    HW186837   1.297   3.018  11.257
95021SOL    HW286838   1.414   3.004  11.352
95022SOL     OW86839   6.730   2.883   9.945
95022SOL    HW186840   6.736   2.928   9.861
95022SOL    HW286841   6.819   2.852   9.962
95023SOL     OW86842  12.873   2.798   7.231
95023SOL    HW186843  12.886   2.703   7.231
95023SOL    HW286844  12.917   2.827   7.151
95024SOL     OW86845   5.568   9.358   9.420
95024SOL    HW186846   5.613   9.426   9.470
95024SOL    HW286847   5.481   9.353   9.459
95025SOL     OW86848   0.878  13.360   7.152
95025SOL    HW186849   0.963  13.342   7.113
95025SOL    HW286850   0.817  13.360   7.077
95026SOL     OW86851  13.062   8.456  10.826
95026SOL    HW186852  13.013   8.374  10.831
95026SOL    HW286853  13.004   8.521  10.867
95027SOL     OW86854  10.901  10.078  12.287
95027SOL    HW186855  10.818  10.034  12.309
95027SOL    HW286856  10.939  10.100  12.372
95028SOL     OW86857   4.476   6.316   3.745
95028SOL    HW186858   4.450   6.264   3.821
95028SOL    HW286859   4.456   6.261   3.670
95029SOL     OW86860   5.484   1.514   9.017
95029SOL    HW186861   5.477   1.561   8.934
95029SOL    HW286862   5.428   1.563   9.077
95030SOL     OW86863   2.508   6.421   2.380
95030SOL    HW186864   2.417   6.445   2.399
95030SOL    HW286865   2.559   6.465   2.448
95031SOL     OW86866  10.200   4.619   6.573
95031SOL    HW186867  10.164   4.621   6.485
95031SOL    HW286868  10.267   4.688   6.574
95032SOL     OW86869   5.856   0.283  11.090
95032SOL    HW186870   5.763   0.260  11.091
95032SOL    HW286871   5.901   0.200  11.069
95033SOL     OW86872   7.941   9.497  10.495
95033SOL    HW186873   7.956   9.404  10.478
95033SOL    HW286874   7.922   9.534  10.408
95034SOL     OW86875  12.063  10.134   4.413
95034SOL    HW186876  12.019  10.192   4.350
95034SOL    HW286877  12.033  10.046   4.389
95035SOL     OW86878  10.459   1.775  12.601
95035SOL    HW186879  10.441   1.681  12.608
95035SOL    HW286880  10.453   1.808  12.691
95036SOL     OW86881   2.974  10.219  13.335
95036SOL    HW186882   3.034  10.289  13.361
95036SOL    HW286883   2.954  10.237  13.244
95037SOL     OW86884  14.171   6.288   6.032
95037SOL    HW186885  14.131   6.211   6.072
95037SOL    HW286886  14.265   6.278   6.047
95038SOL     OW86887   6.996  10.151   8.537
95038SOL    HW186888   7.021  10.094   8.611
95038SOL    HW286889   6.928  10.208   8.573
95039SOL     OW86890   5.608   4.506   7.098
95039SOL    HW186891   5.600   4.580   7.039
95039SOL    HW286892   5.694   4.517   7.139
95040SOL     OW86893   7.600   7.312   9.368
95040SOL    HW186894   7.685   7.295   9.407
95040SOL    HW286895   7.618   7.326   9.275
95041SOL     OW86896   9.262   6.271   6.963
95041SOL    HW186897   9.233   6.238   6.878
95041SOL    HW286898   9.182   6.304   7.005
95042SOL     OW86899   8.853  10.358  12.133
95042SOL    HW186900   8.771  10.404  12.149
95042SOL    HW286901   8.879  10.324  12.219
95043SOL     OW86902  14.434  14.379   1.000
95043SOL    HW186903  14.473  14.454   0.955
95043SOL    HW286904  14.416  14.411   1.089
95044SOL     OW86905   8.093   9.664  13.670
95044SOL    HW186906   8.108   9.758  13.684
95044SOL    HW286907   8.067   9.658  13.578
95045SOL     OW86908   2.448  10.123   9.818
95045SOL    HW186909   2.509  10.184   9.777
95045SOL    HW286910   2.481  10.112   9.907
95046SOL     OW86911  10.511  14.616   6.857
95046SOL    HW186912  10.430  14.667   6.850
95046SOL    HW286913  10.505  14.551   6.787
95047SOL     OW86914   3.482  11.290   0.280
95047SOL    HW186915   3.405  11.304   0.225
95047SOL    HW286916   3.464  11.339   0.360
95048SOL     OW86917  11.288   2.929  10.819
95048SOL    HW186918  11.231   2.976  10.757
95048SOL    HW286919  11.239   2.850  10.841
95049SOL     OW86920  11.838   5.482   3.770
95049SOL    HW186921  11.790   5.405   3.740
95049SOL    HW286922  11.869   5.459   3.857
95050SOL     OW86923  10.409  14.178   8.610
95050SOL    HW186924  10.433  14.270   8.601
95050SOL    HW286925  10.425  14.157   8.702
95051SOL     OW86926   0.149  12.703   3.082
95051SOL    HW186927   0.201  12.638   3.128
95051SOL    HW286928   0.211  12.749   3.025
95052SOL     OW86929   2.191   7.559  12.854
95052SOL    HW186930   2.199   7.464  12.843
95052SOL    HW286931   2.097   7.574  12.863
95053SOL     OW86932  11.717  12.792   0.244
95053SOL    HW186933  11.689  12.701   0.244
95053SOL    HW286934  11.636  12.842   0.257
95054SOL     OW86935   6.915   5.450   1.573
95054SOL    HW186936   6.923   5.478   1.664
95054SOL    HW286937   6.967   5.369   1.568
95055SOL     OW86938  13.384  12.830   3.421
95055SOL    HW186939  13.389  12.887   3.344
95055SOL    HW286940  13.474  12.801   3.434
95056SOL     OW86941   5.658  14.138   8.073
95056SOL    HW186942   5.736  14.181   8.110
95056SOL    HW286943   5.625  14.083   8.144
95057SOL     OW86944   1.434   4.434  12.671
95057SOL    HW186945   1.433   4.339  12.683
95057SOL    HW286946   1.472   4.446  12.584
95058SOL     OW86947  10.538   0.761   6.999
95058SOL    HW186948  10.483   0.826   7.043
95058SOL    HW286949  10.531   0.783   6.906
95059SOL     OW86950   1.296   9.684  11.311
95059SOL    HW186951   1.225   9.734  11.352
95059SOL    HW286952   1.251   9.619  11.258
95060SOL     OW86953   6.540   9.926  12.204
95060SOL    HW186954   6.477   9.968  12.146
95060SOL    HW286955   6.488   9.892  12.277
95061SOL     OW86956   1.577   0.618   2.152
95061SOL    HW186957   1.607   0.611   2.242
95061SOL    HW286958   1.652   0.655   2.105
95062SOL     OW86959  12.776   8.212  14.521
95062SOL    HW186960  12.710   8.158  14.563
95062SOL    HW286961  12.757   8.301  14.551
95063SOL     OW86962   8.233   7.985   8.569
95063SOL    HW186963   8.197   8.056   8.516
95063SOL    HW286964   8.325   7.978   8.542
95064SOL     OW86965   6.301  13.795   3.677
95064SOL    HW186966   6.279  13.705   3.651
95064SOL    HW286967   6.220  13.844   3.666
95065SOL     OW86968   2.929   4.587  14.773
95065SOL    HW186969   2.947   4.582  14.679
95065SOL    HW286970   2.920   4.681  14.790
95066SOL     OW86971  10.287   0.853   7.504
95066SOL    HW186972  10.331   0.898   7.577
95066SOL    HW286973  10.247   0.776   7.545
95067SOL     OW86974   0.293   5.907   2.333
95067SOL    HW186975   0.239   5.949   2.265
95067SOL    HW286976   0.378   5.893   2.291
95068SOL     OW86977  10.410   4.191  13.910
95068SOL    HW186978  10.347   4.261  13.925
95068SOL    HW286979  10.431   4.197  13.816
95069SOL     OW86980   8.416  12.536  13.450
95069SOL    HW186981   8.426  12.627  13.478
95069SOL    HW286982   8.502  12.497  13.464
95070SOL     OW86983  12.689   3.784   5.483
95070SOL    HW186984  12.599   3.779   5.449
95070SOL    HW286985  12.744   3.762   5.408
95071SOL     OW86986  13.039   4.490  11.718
95071SOL    HW186987  12.982   4.461  11.647
95071SOL    HW286988  13.104   4.546  11.676
95072SOL     OW86989  12.367  10.609   2.691
95072SOL    HW186990  12.414  10.527   2.685
95072SOL    HW286991  12.387  10.655   2.609
95073SOL     OW86992  11.058   7.937  14.399
95073SOL    HW186993  11.104   7.912  14.319
95073SOL    HW286994  10.965   7.939  14.374
95074SOL     OW86995   4.596   1.457   2.967
95074SOL    HW186996   4.531   1.525   2.984
95074SOL    HW286997   4.601   1.452   2.871
95075SOL     OW86998   1.657   7.481   4.123
95075SOL    HW186999   1.657   7.435   4.207
95075SOL    HW287000   1.580   7.447   4.077
95076SOL     OW87001   1.350  11.421   8.225
95076SOL    HW187002   1.443  11.398   8.231
95076SOL    HW287003   1.316  11.405   8.313
95077SOL     OW87004   0.714   2.520  11.904
95077SOL    HW187005   0.782   2.504  11.839
95077SOL    HW287006   0.637   2.475  11.870
95078SOL     OW87007  10.255   8.219   2.372
95078SOL    HW187008  10.301   8.298   2.344
95078SOL    HW287009  10.319   8.173   2.427
95079SOL     OW87010  13.903  11.774  10.597
95079SOL    HW187011  13.901  11.844  10.532
95079SOL    HW287012  13.857  11.701  10.556
95080SOL     OW87013   6.890   1.285   4.415
95080SOL    HW187014   6.934   1.315   4.495
95080SOL    HW287015   6.886   1.364   4.360
95081SOL     OW87016  13.919   4.709  10.947
95081SOL    HW187017  13.991   4.759  10.985
95081SOL    HW287018  13.961   4.634  10.905
95082SOL     OW87019   9.638  14.185  13.548
95082SOL    HW187020   9.731  14.177  13.568
95082SOL    HW287021   9.597  14.110  13.590
95083SOL     OW87022  13.647   6.092   6.370
95083SOL    HW187023  13.561   6.120   6.403
95083SOL    HW287024  13.655   6.001   6.399
95084SOL     OW87025   8.468   9.294  13.103
95084SOL    HW187026   8.405   9.283  13.031
95084SOL    HW287027   8.480   9.206  13.138
95085SOL     OW87028   9.147  12.155   8.046
95085SOL    HW187029   9.194  12.089   7.994
95085SOL    HW287030   9.056  12.126   8.046
95086SOL     OW87031   0.652  10.649   5.806
95086SOL    HW187032   0.580  10.596   5.772
95086SOL    HW287033   0.648  10.637   5.901
95087SOL     OW87034   1.707   2.612  11.062
95087SOL    HW187035   1.617   2.643  11.072
95087SOL    HW287036   1.759   2.668  11.119
95088SOL     OW87037  12.156   3.238   0.700
95088SOL    HW187038  12.115   3.280   0.624
95088SOL    HW287039  12.137   3.297   0.773
95089SOL     OW87040  11.309   0.714  12.311
95089SOL    HW187041  11.243   0.659  12.268
95089SOL    HW287042  11.393   0.674  12.287
95090SOL     OW87043  11.016   3.670   5.699
95090SOL    HW187044  11.085   3.730   5.672
95090SOL    HW287045  11.009   3.683   5.794
95091SOL     OW87046   8.627   5.859   1.608
95091SOL    HW187047   8.716   5.874   1.638
95091SOL    HW287048   8.599   5.780   1.653
95092SOL     OW87049   1.969   8.181   2.699
95092SOL    HW187050   2.049   8.230   2.679
95092SOL    HW287051   1.992   8.129   2.776
95093SOL     OW87052  11.610   3.133   2.686
95093SOL    HW187053  11.517   3.137   2.662
95093SOL    HW287054  11.654   3.101   2.607
95094SOL     OW87055   4.364   4.302   7.665
95094SOL    HW187056   4.375   4.309   7.571
95094SOL    HW287057   4.411   4.222   7.689
95095SOL     OW87058   2.388   7.979   6.200
95095SOL    HW187059   2.447   8.042   6.241
95095SOL    HW287060   2.439   7.943   6.127
95096SOL     OW87061  10.511   3.168   3.535
95096SOL    HW187062  10.503   3.234   3.604
95096SOL    HW287063  10.489   3.085   3.579
95097SOL     OW87064   3.854   8.268   4.370
95097SOL    HW187065   3.848   8.360   4.344
95097SOL    HW287066   3.777   8.227   4.331
95098SOL     OW87067   7.506   9.651  14.679
95098SOL    HW187068   7.576   9.593  14.650
95098SOL    HW287069   7.514   9.653  14.775
95099SOL     OW87070   5.859  13.754   3.017
95099SOL    HW187071   5.900  13.742   2.932
95099SOL    HW287072   5.873  13.671   3.063
95100SOL     OW87073   9.849   3.629  10.529
95100SOL    HW187074   9.783   3.634  10.461
95100SOL    HW287075   9.803   3.591  10.604
95101SOL     OW87076   9.087   3.333  10.792
95101SOL    HW187077   9.103   3.425  10.815
95101SOL    HW287078   9.105   3.285  10.873
95102SOL     OW87079   7.760   4.205   0.809
95102SOL    HW187080   7.770   4.202   0.713
95102SOL    HW287081   7.847   4.188   0.843
95103SOL     OW87082   4.531   0.196   1.036
95103SOL    HW187083   4.574   0.181   1.120
95103SOL    HW287084   4.450   0.243   1.059
95104SOL     OW87085   0.613   3.399   8.017
95104SOL    HW187086   0.535   3.436   8.058
95104SOL    HW287087   0.645   3.467   7.959
95105SOL     OW87088   1.594   8.755   9.424
95105SOL    HW187089   1.651   8.745   9.347
95105SOL    HW287090   1.561   8.666   9.440
95106SOL     OW87091   1.579  14.815  10.031
95106SOL    HW187092   1.618  14.825  10.117
95106SOL    HW287093   1.542  14.726  10.031
95107SOL     OW87094   6.342   1.728  13.230
95107SOL    HW187095   6.420   1.775  13.198
95107SOL    HW287096   6.272   1.755  13.171
95108SOL     OW87097   6.658  12.334   9.028
95108SOL    HW187098   6.658  12.278   8.950
95108SOL    HW287099   6.609  12.284   9.093
95109SOL     OW87100   9.940   1.213  11.976
95109SOL    HW187101   9.862   1.202  12.031
95109SOL    HW287102   9.978   1.296  12.005
95110SOL     OW87103  14.710   0.598  13.528
95110SOL    HW187104  14.762   0.676  13.549
95110SOL    HW287105  14.631   0.607  13.581
95111SOL     OW87106   1.944   6.591   0.830
95111SOL    HW187107   1.953   6.673   0.879
95111SOL    HW287108   1.929   6.618   0.739
95112SOL     OW87109   1.951   9.303   4.117
95112SOL    HW187110   1.868   9.270   4.083
95112SOL    HW287111   1.928   9.352   4.195
95113SOL     OW87112   8.490   5.351  10.119
95113SOL    HW187113   8.506   5.334  10.212
95113SOL    HW287114   8.512   5.443  10.108
95114SOL     OW87115  11.601   1.819   6.096
95114SOL    HW187116  11.600   1.915   6.088
95114SOL    HW287117  11.571   1.788   6.010
95115SOL     OW87118   2.312   2.915   5.608
95115SOL    HW187119   2.259   2.844   5.643
95115SOL    HW287120   2.288   2.919   5.515
95116SOL     OW87121   6.780   9.549   1.723
95116SOL    HW187122   6.782   9.481   1.656
95116SOL    HW287123   6.697   9.595   1.707
95117SOL     OW87124   0.144   8.426   8.619
95117SOL    HW187125   0.233   8.460   8.618
95117SOL    HW287126   0.091   8.496   8.657
95118SOL     OW87127  10.468   2.147   3.528
95118SOL    HW187128  10.549   2.198   3.531
95118SOL    HW287129  10.495   2.058   3.550
95119SOL     OW87130  11.783   8.323   1.677
95119SOL    HW187131  11.768   8.230   1.697
95119SOL    HW287132  11.872   8.325   1.641
95120SOL     OW87133   9.266   0.611   4.433
95120SOL    HW187134   9.352   0.598   4.473
95120SOL    HW287135   9.282   0.604   4.339
95121SOL     OW87136  13.625  12.963  14.054
95121SOL    HW187137  13.641  12.915  13.973
95121SOL    HW287138  13.543  12.927  14.088
95122SOL     OW87139   0.129   0.567   0.718
95122SOL    HW187140   0.079   0.604   0.790
95122SOL    HW287141   0.189   0.505   0.759
95123SOL     OW87142   9.312  12.186   9.345
95123SOL    HW187143   9.355  12.190   9.260
95123SOL    HW287144   9.366  12.126   9.397
95124SOL     OW87145   1.097   9.680   7.274
95124SOL    HW187146   1.118   9.589   7.297
95124SOL    HW287147   1.104   9.683   7.179
95125SOL     OW87148   9.111   5.431  12.970
95125SOL    HW187149   9.184   5.494  12.970
95125SOL    HW287150   9.086   5.424  12.878
95126SOL     OW87151   2.619   9.891   0.366
95126SOL    HW187152   2.595   9.813   0.415
95126SOL    HW287153   2.624   9.862   0.275
95127SOL     OW87154   8.831   5.182   1.194
95127SOL    HW187155   8.858   5.173   1.103
95127SOL    HW287156   8.911   5.210   1.240
95128SOL     OW87157   9.288   0.335   0.905
95128SOL    HW187158   9.300   0.241   0.918
95128SOL    HW287159   9.321   0.375   0.986
95129SOL     OW87160  10.434   7.726   8.193
95129SOL    HW187161  10.441   7.640   8.151
95129SOL    HW287162  10.491   7.720   8.269
95130SOL     OW87163  13.373   1.668   4.188
95130SOL    HW187164  13.311   1.624   4.246
95130SOL    HW287165  13.360   1.762   4.205
95131SOL     OW87166   9.580   1.320  11.888
95131SOL    HW187167   9.566   1.246  11.829
95131SOL    HW287168   9.637   1.286  11.956
95132SOL     OW87169   1.315  14.249  14.318
95132SOL    HW187170   1.266  14.324  14.284
95132SOL    HW287171   1.251  14.200  14.369
95133SOL     OW87172   6.463   9.586   2.806
95133SOL    HW187173   6.378   9.543   2.816
95133SOL    HW287174   6.509   9.567   2.888
95134SOL     OW87175   3.010   6.624   5.560
95134SOL    HW187176   3.085   6.607   5.616
95134SOL    HW287177   2.976   6.709   5.590
95135SOL     OW87178  13.358   6.396   9.010
95135SOL    HW187179  13.370   6.371   8.919
95135SOL    HW287180  13.276   6.354   9.036
95136SOL     OW87181   5.726   0.027   4.502
95136SOL    HW187182   5.800  14.847   4.493
95136SOL    HW287183   5.670   0.007   4.427
95137SOL     OW87184  13.540  13.335   9.531
95137SOL    HW187185  13.541  13.245   9.499
95137SOL    HW287186  13.471  13.378   9.480
95138SOL     OW87187   8.749  11.547   1.097
95138SOL    HW187188   8.689  11.607   1.053
95138SOL    HW287189   8.697  11.468   1.111
95139SOL     OW87190   5.917   8.151   8.233
95139SOL    HW187191   6.007   8.116   8.240
95139SOL    HW287192   5.861   8.073   8.236
95140SOL     OW87193   2.096  13.421   8.818
95140SOL    HW187194   2.061  13.509   8.803
95140SOL    HW287195   2.018  13.366   8.826
95141SOL     OW87196  10.172   7.836  12.921
95141SOL    HW187197  10.220   7.911  12.884
95141SOL    HW287198  10.096   7.826  12.864
95142SOL     OW87199   9.358  10.186   0.720
95142SOL    HW187200   9.289  10.176   0.654
95142SOL    HW287201   9.416  10.253   0.684
95143SOL     OW87202   3.256   8.726   8.865
95143SOL    HW187203   3.213   8.746   8.782
95143SOL    HW287204   3.347   8.751   8.850
95144SOL     OW87205   0.078   0.437   4.719
95144SOL    HW187206   0.076   0.367   4.653
95144SOL    HW287207   0.050   0.515   4.672
95145SOL     OW87208   9.692   8.227  10.076
95145SOL    HW187209   9.606   8.252  10.110
95145SOL    HW287210   9.739   8.192  10.152
95146SOL     OW87211  10.428   4.240   4.725
95146SOL    HW187212  10.414   4.326   4.766
95146SOL    HW287213  10.347   4.223   4.677
95147SOL     OW87214  11.064   7.110  13.781
95147SOL    HW187215  11.153   7.117  13.745
95147SOL    HW287216  11.014   7.177  13.734
95148SOL     OW87217   9.022  11.400   2.356
95148SOL    HW187218   8.959  11.377   2.288
95148SOL    HW287219   8.993  11.352   2.433
95149SOL     OW87220  11.053   3.955   0.602
95149SOL    HW187221  11.093   3.967   0.516
95149SOL    HW287222  10.987   4.024   0.608
95150SOL     OW87223   6.579   7.192   9.871
95150SOL    HW187224   6.642   7.124   9.892
95150SOL    HW287225   6.609   7.269   9.920
95151SOL     OW87226  11.888   3.207   2.594
95151SOL    HW187227  11.874   3.266   2.520
95151SOL    HW287228  11.872   3.260   2.671
95152SOL     OW87229  12.851  14.626   8.455
95152SOL    HW187230  12.789  14.562   8.420
95152SOL    HW287231  12.841  14.619   8.550
95153SOL     OW87232   3.817   8.180  14.702
95153SOL    HW187233   3.747   8.119  14.723
95153SOL    HW287234   3.882   8.167  14.772
95154SOL     OW87235  14.662   5.248  14.196
95154SOL    HW187236  14.577   5.280  14.228
95154SOL    HW287237  14.688   5.182  14.261
95155SOL     OW87238   4.623   2.041   3.280
95155SOL    HW187239   4.589   2.033   3.369
95155SOL    HW287240   4.692   2.107   3.286
95156SOL     OW87241   3.331   0.616   3.457
95156SOL    HW187242   3.306   0.624   3.549
95156SOL    HW287243   3.328   0.705   3.423
95157SOL     OW87244   7.047   6.028  11.105
95157SOL    HW187245   7.014   5.978  11.030
95157SOL    HW287246   7.040   6.119  11.078
95158SOL     OW87247   3.314   1.852   9.456
95158SOL    HW187248   3.265   1.791   9.511
95158SOL    HW287249   3.404   1.819   9.458
95159SOL     OW87250   4.294   1.325  11.892
95159SOL    HW187251   4.360   1.318  11.961
95159SOL    HW287252   4.276   1.234  11.867
95160SOL     OW87253  12.677  11.730   3.282
95160SOL    HW187254  12.713  11.729   3.193
95160SOL    HW287255  12.751  11.753   3.337
95161SOL     OW87256   5.781   8.447   9.439
95161SOL    HW187257   5.831   8.492   9.508
95161SOL    HW287258   5.822   8.476   9.358
95162SOL     OW87259   8.855   0.263   4.032
95162SOL    HW187260   8.793   0.261   4.105
95162SOL    HW287261   8.867   0.171   4.007
95163SOL     OW87262   8.140  13.745  13.102
95163SOL    HW187263   8.104  13.823  13.146
95163SOL    HW287264   8.128  13.763  13.009
95164SOL     OW87265   6.430   5.617   1.755
95164SOL    HW187266   6.522   5.602   1.730
95164SOL    HW287267   6.419   5.712   1.749
95165SOL     OW87268  13.457  13.897   6.936
95165SOL    HW187269  13.551  13.904   6.918
95165SOL    HW287270  13.429  13.986   6.955
95166SOL     OW87271   7.553   8.722   9.500
95166SOL    HW187272   7.552   8.686   9.589
95166SOL    HW287273   7.598   8.656   9.448
95167SOL     OW87274  13.544   6.989   0.525
95167SOL    HW187275  13.449   6.997   0.537
95167SOL    HW287276  13.577   6.958   0.609
95168SOL     OW87277  12.595  13.645  10.599
95168SOL    HW187278  12.661  13.582  10.629
95168SOL    HW287279  12.558  13.682  10.680
95169SOL     OW87280   4.596  11.193   0.727
95169SOL    HW187281   4.603  11.232   0.640
95169SOL    HW287282   4.642  11.109   0.719
95170SOL     OW87283  10.215  10.987   6.845
95170SOL    HW187284  10.181  11.075   6.826
95170SOL    HW287285  10.169  10.930   6.784
95171SOL     OW87286   1.345   2.001   6.748
95171SOL    HW187287   1.423   2.056   6.751
95171SOL    HW287288   1.344   1.966   6.659
95172SOL     OW87289  12.160  13.485   1.183
95172SOL    HW187290  12.244  13.530   1.187
95172SOL    HW287291  12.161  13.440   1.098
95173SOL     OW87292   8.132  12.891  10.179
95173SOL    HW187293   8.219  12.893  10.140
95173SOL    HW287294   8.075  12.856  10.110
95174SOL     OW87295  10.472  14.054   6.860
95174SOL    HW187296  10.537  14.018   6.921
95174SOL    HW287297  10.407  14.097   6.915
95175SOL     OW87298   0.652   7.871   6.619
95175SOL    HW187299   0.566   7.851   6.659
95175SOL    HW287300   0.694   7.785   6.611
95176SOL     OW87301  13.864  12.295  11.942
95176SOL    HW187302  13.805  12.309  11.867
95176SOL    HW287303  13.846  12.369  12.000
95177SOL     OW87304   6.985  11.880   8.624
95177SOL    HW187305   6.948  11.795   8.599
95177SOL    HW287306   6.948  11.897   8.710
95178SOL     OW87307   9.495  11.402   0.545
95178SOL    HW187308   9.563  11.366   0.488
95178SOL    HW287309   9.514  11.495   0.550
95179SOL     OW87310   8.084   9.645   2.938
95179SOL    HW187311   8.018   9.575   2.931
95179SOL    HW287312   8.064   9.704   2.865
95180SOL     OW87313   1.500  10.097   0.597
95180SOL    HW187314   1.502  10.188   0.626
95180SOL    HW287315   1.588  10.080   0.564
95181SOL     OW87316  10.936  10.670   6.556
95181SOL    HW187317  11.031  10.678   6.546
95181SOL    HW287318  10.925  10.642   6.647
95182SOL     OW87319  11.677  13.468  10.913
95182SOL    HW187320  11.755  13.484  10.861
95182SOL    HW287321  11.669  13.373  10.917
95183SOL     OW87322  11.127   8.348   4.068
95183SOL    HW187323  11.048   8.331   4.119
95183SOL    HW287324  11.116   8.299   3.987
95184SOL     OW87325   8.473   3.708   6.981
95184SOL    HW187326   8.485   3.687   7.074
95184SOL    HW287327   8.528   3.785   6.966
95185SOL     OW87328  12.268   1.178   1.823
95185SOL    HW187329  12.273   1.092   1.782
95185SOL    HW287330  12.278   1.240   1.751
95186SOL     OW87331   4.252  12.663   8.388
95186SOL    HW187332   4.172  12.616   8.363
95186SOL    HW287333   4.317  12.635   8.325
95187SOL     OW87334   6.912   8.117   3.757
95187SOL    HW187335   6.822   8.148   3.747
95187SOL    HW287336   6.966   8.191   3.730
95188SOL     OW87337   9.957   6.254   2.575
95188SOL    HW187338   9.908   6.332   2.549
95188SOL    HW287339   9.938   6.190   2.507
95189SOL     OW87340  14.221   9.251   4.968
95189SOL    HW187341  14.266   9.266   4.885
95189SOL    HW287342  14.234   9.158   4.987
95190SOL     OW87343   3.658  14.051   0.278
95190SOL    HW187344   3.594  13.981   0.262
95190SOL    HW287345   3.652  14.068   0.372
95191SOL     OW87346   6.780   6.718  11.440
95191SOL    HW187347   6.709   6.775  11.409
95191SOL    HW287348   6.838   6.777  11.488
95192SOL     OW87349  11.795   3.115  11.026
95192SOL    HW187350  11.765   3.181  11.088
95192SOL    HW287351  11.822   3.041  11.082
95193SOL     OW87352  11.220   5.695   9.490
95193SOL    HW187353  11.233   5.695   9.395
95193SOL    HW287354  11.271   5.770   9.521
95194SOL     OW87355   0.061   0.781   4.161
95194SOL    HW187356   0.119   0.807   4.089
95194SOL    HW287357   0.069   0.852   4.224
95195SOL     OW87358   1.110   3.357   2.030
95195SOL    HW187359   1.078   3.439   2.067
95195SOL    HW287360   1.194   3.379   1.991
95196SOL     OW87361  11.036   2.755   0.611
95196SOL    HW187362  10.964   2.816   0.597
95196SOL    HW287363  11.110   2.811   0.637
95197SOL     OW87364   0.102   8.105  10.782
95197SOL    HW187365   0.034   8.048  10.746
95197SOL    HW287366   0.054   8.165  10.840
95198SOL     OW87367   4.226   7.727  13.346
95198SOL    HW187368   4.148   7.767  13.384
95198SOL    HW287369   4.277   7.697  13.421
95199SOL     OW87370   4.846   5.150  10.595
95199SOL    HW187371   4.780   5.147  10.526
95199SOL    HW287372   4.883   5.062  10.597
95200SOL     OW87373   9.840   0.527   1.125
95200SOL    HW187374   9.763   0.547   1.178
95200SOL    HW287375   9.908   0.587   1.157
95201SOL     OW87376   3.005   6.405   6.952
95201SOL    HW187377   2.935   6.339   6.946
95201SOL    HW287378   2.982   6.470   6.885
95202SOL     OW87379   8.492   1.707   9.266
95202SOL    HW187380   8.406   1.707   9.225
95202SOL    HW287381   8.521   1.615   9.262
95203SOL     OW87382   1.781   1.882   1.636
95203SOL    HW187383   1.744   1.797   1.614
95203SOL    HW287384   1.711   1.945   1.616
95204SOL     OW87385   6.468   5.719   7.838
95204SOL    HW187386   6.457   5.644   7.896
95204SOL    HW287387   6.546   5.763   7.871
95205SOL     OW87388   9.588   6.863   1.030
95205SOL    HW187389   9.575   6.788   1.087
95205SOL    HW287390   9.557   6.834   0.944
95206SOL     OW87391   1.317  13.106  13.952
95206SOL    HW187392   1.341  13.163  14.026
95206SOL    HW287393   1.389  13.044  13.945
95207SOL     OW87394  11.387  10.288   5.941
95207SOL    HW187395  11.335  10.242   5.876
95207SOL    HW287396  11.331  10.291   6.019
95208SOL     OW87397  14.210  10.968   2.457
95208SOL    HW187398  14.187  10.969   2.364
95208SOL    HW287399  14.147  11.028   2.497
95209SOL     OW87400   1.565   2.522   8.881
95209SOL    HW187401   1.536   2.613   8.889
95209SOL    HW287402   1.607   2.518   8.795
95210SOL     OW87403   9.816  12.068   9.695
95210SOL    HW187404   9.866  12.121   9.756
95210SOL    HW287405   9.862  11.983   9.694
95211SOL     OW87406   2.338   1.142  11.505
95211SOL    HW187407   2.336   1.234  11.477
95211SOL    HW287408   2.299   1.094  11.432
95212SOL     OW87409   6.254  12.071  10.332
95212SOL    HW187410   6.337  12.022  10.331
95212SOL    HW287411   6.212  12.046  10.249
95213SOL     OW87412   9.667   9.051   4.037
95213SOL    HW187413   9.572   9.043   4.032
95213SOL    HW287414   9.685   9.142   4.016
95214SOL     OW87415  12.864  10.598   9.014
95214SOL    HW187416  12.778  10.563   9.033
95214SOL    HW287417  12.925  10.534   9.051
95215SOL     OW87418  12.267  10.213   4.120
95215SOL    HW187419  12.262  10.304   4.149
95215SOL    HW287420  12.357  10.203   4.088
95216SOL     OW87421  11.026   9.006  13.726
95216SOL    HW187422  11.048   9.056  13.647
95216SOL    HW287423  10.978   8.930  13.694
95217SOL     OW87424   9.308   8.167   0.202
95217SOL    HW187425   9.357   8.117   0.268
95217SOL    HW287426   9.346   8.255   0.206
95218SOL     OW87427   4.326   3.206   8.723
95218SOL    HW187428   4.243   3.207   8.771
95218SOL    HW287429   4.302   3.182   8.634
95219SOL     OW87430   9.202   3.214  11.021
95219SOL    HW187431   9.111   3.219  11.048
95219SOL    HW287432   9.212   3.126  10.984
95220SOL     OW87433   6.140  12.044   8.390
95220SOL    HW187434   6.143  12.033   8.485
95220SOL    HW287435   6.065  11.993   8.362
95221SOL     OW87436   0.609  11.848  10.884
95221SOL    HW187437   0.598  11.755  10.903
95221SOL    HW287438   0.567  11.893  10.957
95222SOL     OW87439   6.340   9.104   5.954
95222SOL    HW187440   6.399   9.155   6.011
95222SOL    HW287441   6.398   9.055   5.897
95223SOL     OW87442  12.989  13.417  12.799
95223SOL    HW187443  12.906  13.463  12.808
95223SOL    HW287444  12.994  13.360  12.876
95224SOL     OW87445   3.395   8.221   6.637
95224SOL    HW187446   3.424   8.305   6.601
95224SOL    HW287447   3.447   8.155   6.590
95225SOL     OW87448  12.696   5.129   7.468
95225SOL    HW187449  12.675   5.218   7.440
95225SOL    HW287450  12.654   5.072   7.404
95226SOL     OW87451   1.972  10.082   3.363
95226SOL    HW187452   2.039  10.055   3.426
95226SOL    HW287453   1.889  10.059   3.406
95227SOL     OW87454   8.919   9.064  12.983
95227SOL    HW187455   8.903   9.156  12.964
95227SOL    HW287456   8.905   9.056  13.078
95228SOL     OW87457  11.027   5.482   4.319
95228SOL    HW187458  11.098   5.430   4.281
95228SOL    HW287459  10.950   5.459   4.267
95229SOL     OW87460   8.666   1.631   6.491
95229SOL    HW187461   8.736   1.568   6.507
95229SOL    HW287462   8.709   1.702   6.444
95230SOL     OW87463  14.405  13.436   6.781
95230SOL    HW187464  14.338  13.372   6.755
95230SOL    HW287465  14.375  13.468   6.866
95231SOL     OW87466   1.989   3.693   4.300
95231SOL    HW187467   1.908   3.701   4.250
95231SOL    HW287468   2.055   3.669   4.235
95232SOL     OW87469  10.379   4.466   2.361
95232SOL    HW187470  10.388   4.526   2.287
95232SOL    HW287471  10.398   4.519   2.438
95233SOL     OW87472  13.717   6.923  14.789
95233SOL    HW187473  13.812   6.920  14.777
95233SOL    HW287474  13.682   6.870  14.718
95234SOL     OW87475   7.118  10.181   2.778
95234SOL    HW187476   7.022  10.176   2.785
95234SOL    HW287477   7.134  10.252   2.715
95235SOL     OW87478   2.390   6.077   1.699
95235SOL    HW187479   2.301   6.104   1.721
95235SOL    HW287480   2.419   6.140   1.634
95236SOL     OW87481  12.336   9.293   4.810
95236SOL    HW187482  12.293   9.277   4.894
95236SOL    HW287483  12.265   9.325   4.753
95237SOL     OW87484   4.498   4.940  13.624
95237SOL    HW187485   4.485   4.863  13.679
95237SOL    HW287486   4.409   4.972  13.606
95238SOL     OW87487  12.587   4.738  13.721
95238SOL    HW187488  12.525   4.788  13.668
95238SOL    HW287489  12.583   4.649  13.686
95239SOL     OW87490   3.647   3.757   7.639
95239SOL    HW187491   3.719   3.819   7.626
95239SOL    HW287492   3.571   3.802   7.601
95240SOL     OW87493   4.117   2.263  13.747
95240SOL    HW187494   4.149   2.248  13.836
95240SOL    HW287495   4.088   2.354  13.746
95241SOL     OW87496  13.816   2.739  10.723
95241SOL    HW187497  13.738   2.688  10.702
95241SOL    HW287498  13.870   2.735  10.644
95242SOL     OW87499  13.589   8.784   9.268
95242SOL    HW187500  13.526   8.783   9.197
95242SOL    HW287501  13.649   8.855   9.246
95243SOL     OW87502   9.077   5.803   9.002
95243SOL    HW187503   9.059   5.894   9.027
95243SOL    HW287504   9.166   5.804   8.968
95244SOL     OW87505  11.863   6.684  11.713
95244SOL    HW187506  11.883   6.729  11.630
95244SOL    HW287507  11.949   6.662  11.749
95245SOL     OW87508   2.441   0.418   5.489
95245SOL    HW187509   2.451   0.506   5.526
95245SOL    HW287510   2.347   0.412   5.469
95246SOL     OW87511   5.825  14.168   2.817
95246SOL    HW187512   5.760  14.102   2.840
95246SOL    HW287513   5.776  14.236   2.771
95247SOL     OW87514  12.580   4.075  14.739
95247SOL    HW187515  12.548   4.004  14.795
95247SOL    HW287516  12.675   4.063  14.736
95248SOL     OW87517  10.527  13.095   1.538
95248SOL    HW187518  10.557  13.046   1.614
95248SOL    HW287519  10.533  13.187   1.564
95249SOL     OW87520   6.371   2.085   6.711
95249SOL    HW187521   6.381   2.041   6.795
95249SOL    HW287522   6.407   2.173   6.726
95250SOL     OW87523   0.662   0.733   7.128
95250SOL    HW187524   0.686   0.755   7.218
95250SOL    HW287525   0.623   0.646   7.134
95251SOL     OW87526   5.201  12.045   0.887
95251SOL    HW187527   5.147  12.076   0.815
95251SOL    HW287528   5.146  11.981   0.933
95252SOL     OW87529  13.094  11.154  11.847
95252SOL    HW187530  13.090  11.148  11.943
95252SOL    HW287531  13.097  11.248  11.829
95253SOL     OW87532   7.806   3.719   7.346
95253SOL    HW187533   7.724   3.685   7.310
95253SOL    HW287534   7.843   3.646   7.395
95254SOL     OW87535  10.171   0.430  13.324
95254SOL    HW187536  10.183   0.335  13.318
95254SOL    HW287537  10.174   0.460  13.234
95255SOL     OW87538   2.544   2.615   9.184
95255SOL    HW187539   2.594   2.565   9.250
95255SOL    HW287540   2.499   2.548   9.133
95256SOL     OW87541   4.856  14.249   5.929
95256SOL    HW187542   4.934  14.268   5.981
95256SOL    HW287543   4.788  14.306   5.966
95257SOL     OW87544   6.835   0.684   7.629
95257SOL    HW187545   6.871   0.656   7.713
95257SOL    HW287546   6.881   0.631   7.564
95258SOL     OW87547   8.229   2.225   0.553
95258SOL    HW187548   8.247   2.144   0.600
95258SOL    HW287549   8.215   2.198   0.463
95259SOL     OW87550   4.888   5.233   6.505
95259SOL    HW187551   4.910   5.325   6.523
95259SOL    HW287552   4.951   5.206   6.439
95260SOL     OW87553   8.995   2.099   7.121
95260SOL    HW187554   9.087   2.123   7.112
95260SOL    HW287555   8.953   2.179   7.151
95261SOL     OW87556   0.397  13.589   1.094
95261SOL    HW187557   0.432  13.583   1.183
95261SOL    HW287558   0.323  13.528   1.093
95262SOL     OW87559  12.162   6.332   4.492
95262SOL    HW187560  12.166   6.242   4.460
95262SOL    HW287561  12.152   6.385   4.412
95263SOL     OW87562   7.125   2.327   5.128
95263SOL    HW187563   7.118   2.260   5.059
95263SOL    HW287564   7.109   2.280   5.209
95264SOL     OW87565  12.701   1.435   3.238
95264SOL    HW187566  12.658   1.386   3.167
95264SOL    HW287567  12.737   1.513   3.195
95265SOL     OW87568  14.758  14.248   1.071
95265SOL    HW187569  14.733  14.336   1.098
95265SOL    HW287570  14.685  14.218   1.015
95266SOL     OW87571   2.612   8.184   6.769
95266SOL    HW187572   2.613   8.272   6.730
95266SOL    HW287573   2.685   8.184   6.830
95267SOL     OW87574   9.985   6.326  11.602
95267SOL    HW187575  10.001   6.385  11.528
95267SOL    HW287576   9.891   6.306  11.597
95268SOL     OW87577  13.939   3.154   4.795
95268SOL    HW187578  13.974   3.135   4.882
95268SOL    HW287579  13.950   3.248   4.784
95269SOL     OW87580   9.498   9.395   5.924
95269SOL    HW187581   9.570   9.459   5.916
95269SOL    HW287582   9.538   9.312   5.898
95270SOL     OW87583   0.884   7.156   0.259
95270SOL    HW187584   0.824   7.136   0.187
95270SOL    HW287585   0.860   7.095   0.328
95271SOL     OW87586  12.896   7.794  14.676
95271SOL    HW187587  12.852   7.754  14.601
95271SOL    HW287588  12.829   7.847  14.719
95272SOL     OW87589  13.098   0.577   4.790
95272SOL    HW187590  13.028   0.593   4.853
95272SOL    HW287591  13.058   0.595   4.704
95273SOL     OW87592   5.158   7.229   3.697
95273SOL    HW187593   5.089   7.233   3.630
95273SOL    HW287594   5.210   7.152   3.673
95274SOL     OW87595  11.577   0.972   1.140
95274SOL    HW187596  11.668   0.988   1.166
95274SOL    HW287597  11.582   0.948   1.048
95275SOL     OW87598   6.050   4.311  14.641
95275SOL    HW187599   6.135   4.294  14.601
95275SOL    HW287600   6.040   4.243  14.707
95276SOL     OW87601   2.766  11.880  10.735
95276SOL    HW187602   2.760  11.831  10.817
95276SOL    HW287603   2.766  11.813  10.667
95277SOL     OW87604   6.254   2.053  10.331
95277SOL    HW187605   6.282   2.075  10.420
95277SOL    HW287606   6.175   2.000  10.343
95278SOL     OW87607   2.400   5.848  10.032
95278SOL    HW187608   2.427   5.774   9.978
95278SOL    HW287609   2.477   5.870  10.084
95279SOL     OW87610   4.952   6.592  14.577
95279SOL    HW187611   4.886   6.524  14.564
95279SOL    HW287612   4.977   6.618  14.488
95280SOL     OW87613   5.229   2.361  13.992
95280SOL    HW187614   5.269   2.410  14.064
95280SOL    HW287615   5.283   2.383  13.916
95281SOL     OW87616   1.075   1.332   5.567
95281SOL    HW187617   1.133   1.406   5.552
95281SOL    HW287618   1.132   1.262   5.599
95282SOL     OW87619  12.963   9.777  11.579
95282SOL    HW187620  13.050   9.740  11.596
95282SOL    HW287621  12.944   9.752  11.489
95283SOL     OW87622   9.553  10.687  14.499
95283SOL    HW187623   9.469  10.705  14.541
95283SOL    HW287624   9.617  10.730  14.555
95284SOL     OW87625   9.015   6.404  14.680
95284SOL    HW187626   9.097   6.361  14.657
95284SOL    HW287627   9.019   6.489  14.636
95285SOL     OW87628   0.613   3.787   5.848
95285SOL    HW187629   0.646   3.719   5.907
95285SOL    HW287630   0.614   3.867   5.900
95286SOL     OW87631   7.994   1.989   4.461
95286SOL    HW187632   7.947   1.999   4.378
95286SOL    HW287633   8.042   1.907   4.452
95287SOL     OW87634   8.310   5.404   6.671
95287SOL    HW187635   8.343   5.481   6.624
95287SOL    HW287636   8.220   5.427   6.693
95288SOL     OW87637   5.344   5.311  13.525
95288SOL    HW187638   5.351   5.233  13.469
95288SOL    HW287639   5.357   5.385  13.465
95289SOL     OW87640   4.378   0.116   5.293
95289SOL    HW187641   4.366   0.055   5.221
95289SOL    HW287642   4.364   0.202   5.255
95290SOL     OW87643   8.662  13.477   2.639
95290SOL    HW187644   8.612  13.433   2.708
95290SOL    HW287645   8.650  13.571   2.658
95291SOL     OW87646   5.142   0.565  14.118
95291SOL    HW187647   5.147   0.482  14.070
95291SOL    HW287648   5.067   0.610  14.080
95292SOL     OW87649   0.536  11.101  11.099
95292SOL    HW187650   0.468  11.143  11.152
95292SOL    HW287651   0.592  11.174  11.070
95293SOL     OW87652   1.799  11.967   9.051
95293SOL    HW187653   1.762  11.905   9.114
95293SOL    HW287654   1.736  11.969   8.979
95294SOL     OW87655  11.597   3.621   2.075
95294SOL    HW187656  11.564   3.539   2.039
95294SOL    HW287657  11.692   3.613   2.074
95295SOL     OW87658  14.341   4.410   3.539
95295SOL    HW187659  14.315   4.447   3.624
95295SOL    HW287660  14.365   4.319   3.558
95296SOL     OW87661   5.592   3.622   5.691
95296SOL    HW187662   5.590   3.530   5.665
95296SOL    HW287663   5.685   3.644   5.699
95297SOL     OW87664   5.883   0.136   8.016
95297SOL    HW187665   5.943   0.075   7.974
95297SOL    HW287666   5.821   0.081   8.064
95298SOL     OW87667   0.392  11.829   1.501
95298SOL    HW187668   0.445  11.750   1.487
95298SOL    HW287669   0.306  11.796   1.527
95299SOL     OW87670   3.008   0.026   8.176
95299SOL    HW187671   2.914   0.041   8.185
95299SOL    HW287672   3.017  14.812   8.171
95300SOL     OW87673  11.287   1.211   1.912
95300SOL    HW187674  11.348   1.229   1.984
95300SOL    HW287675  11.298   1.284   1.852
95301SOL     OW87676   9.571   4.384   3.674
95301SOL    HW187677   9.510   4.313   3.690
95301SOL    HW287678   9.591   4.379   3.581
95302SOL     OW87679   2.355   4.111   7.299
95302SOL    HW187680   2.385   4.149   7.382
95302SOL    HW287681   2.271   4.154   7.282
95303SOL     OW87682   2.008   5.082   5.171
95303SOL    HW187683   1.965   4.999   5.151
95303SOL    HW287684   2.048   5.069   5.257
95304SOL     OW87685  12.242   0.742   8.409
95304SOL    HW187686  12.204   0.714   8.493
95304SOL    HW287687  12.223   0.835   8.404
95305SOL     OW87688   7.960   5.045  12.894
95305SOL    HW187689   7.988   5.062  12.804
95305SOL    HW287690   7.867   5.022  12.886
95306SOL     OW87691   2.443  12.079   1.877
95306SOL    HW187692   2.445  12.166   1.837
95306SOL    HW287693   2.352  12.067   1.905
95307SOL     OW87694   1.466  10.131   5.785
95307SOL    HW187695   1.496  10.106   5.873
95307SOL    HW287696   1.541  10.114   5.728
95308SOL     OW87697  12.065   0.532   9.956
95308SOL    HW187698  12.119   0.596  10.003
95308SOL    HW287699  12.079   0.450  10.003
95309SOL     OW87700   4.791  14.294   2.382
95309SOL    HW187701   4.731  14.262   2.315
95309SOL    HW287702   4.801  14.388   2.364
95310SOL     OW87703   4.326  14.798   4.269
95310SOL    HW187704   4.280  14.814   4.351
95310SOL    HW287705   4.305  14.873   4.214
95311SOL     OW87706  13.904   2.449  10.483
95311SOL    HW187707  13.823   2.448  10.432
95311SOL    HW287708  13.876   2.434  10.574
95312SOL     OW87709   1.043   6.313   4.357
95312SOL    HW187710   1.025   6.407   4.356
95312SOL    HW287711   1.109   6.301   4.425
95313SOL     OW87712  14.417   2.698   8.585
95313SOL    HW187713  14.390   2.789   8.589
95313SOL    HW287714  14.340   2.652   8.550
95314SOL     OW87715   3.486   9.863  14.672
95314SOL    HW187716   3.438   9.939  14.642
95314SOL    HW287717   3.478   9.800  14.600
95315SOL     OW87718  14.716   8.817  14.054
95315SOL    HW187719  14.689   8.860  14.135
95315SOL    HW287720  14.771   8.743  14.083
95316SOL     OW87721  11.456  13.634   4.285
95316SOL    HW187722  11.370  13.674   4.273
95316SOL    HW287723  11.462  13.568   4.215
95317SOL     OW87724  10.462   3.851   5.243
95317SOL    HW187725  10.447   3.793   5.317
95317SOL    HW287726  10.377   3.892   5.227
95318SOL     OW87727   0.382   9.433   8.463
95318SOL    HW187728   0.308   9.373   8.454
95318SOL    HW287729   0.380   9.460   8.555
95319SOL     OW87730   5.704  10.686   6.438
95319SOL    HW187731   5.718  10.611   6.380
95319SOL    HW287732   5.622  10.726   6.408
95320SOL     OW87733   2.998   1.529   6.440
95320SOL    HW187734   2.998   1.616   6.480
95320SOL    HW287735   3.051   1.539   6.361
95321SOL     OW87736  11.666   3.600   8.385
95321SOL    HW187737  11.714   3.529   8.344
95321SOL    HW287738  11.588   3.559   8.422
95322SOL     OW87739   7.473  14.320   5.936
95322SOL    HW187740   7.430  14.385   5.991
95322SOL    HW287741   7.441  14.339   5.848
95323SOL     OW87742  11.946   3.944  13.008
95323SOL    HW187743  12.014   3.882  12.983
95323SOL    HW287744  11.923   3.989  12.927
95324SOL     OW87745   6.554   8.988  14.677
95324SOL    HW187746   6.498   8.915  14.650
95324SOL    HW287747   6.636   8.947  14.705
95325SOL     OW87748  12.909  13.471   2.900
95325SOL    HW187749  12.930  13.377   2.900
95325SOL    HW287750  12.886  13.490   2.991
95326SOL     OW87751  11.171   9.011   7.409
95326SOL    HW187752  11.197   8.945   7.473
95326SOL    HW287753  11.094   8.974   7.367
95327SOL     OW87754  14.706   0.810  10.270
95327SOL    HW187755  14.756   0.781  10.346
95327SOL    HW287756  14.771   0.848  10.211
95328SOL     OW87757  10.368   8.476   5.576
95328SOL    HW187758  10.459   8.485   5.605
95328SOL    HW287759  10.366   8.521   5.492
95329SOL     OW87760   1.318   5.120   3.952
95329SOL    HW187761   1.398   5.144   3.906
95329SOL    HW287762   1.285   5.043   3.905
95330SOL     OW87763   0.690  10.543   6.743
95330SOL    HW187764   0.600  10.563   6.717
95330SOL    HW287765   0.691  10.448   6.755
95331SOL     OW87766   5.576   8.061   5.230
95331SOL    HW187767   5.520   8.026   5.161
95331SOL    HW287768   5.539   8.147   5.250
95332SOL     OW87769   8.538   3.453   2.572
95332SOL    HW187770   8.521   3.360   2.585
95332SOL    HW287771   8.520   3.467   2.479
95333SOL     OW87772   7.682   8.716   1.577
95333SOL    HW187773   7.693   8.716   1.672
95333SOL    HW287774   7.627   8.793   1.559
95334SOL     OW87775   6.599   2.414   2.542
95334SOL    HW187776   6.559   2.349   2.599
95334SOL    HW287777   6.551   2.408   2.459
95335SOL     OW87778  11.585   2.249  14.836
95335SOL    HW187779  11.606   2.164  14.799
95335SOL    HW287780  11.510   2.280  14.785
95336SOL     OW87781  11.013  10.622   4.284
95336SOL    HW187782  10.929  10.632   4.329
95336SOL    HW287783  11.048  10.539   4.317
95337SOL     OW87784   6.322   4.633   9.511
95337SOL    HW187785   6.269   4.560   9.544
95337SOL    HW287786   6.303   4.705   9.571
95338SOL     OW87787   8.152   5.282  10.811
95338SOL    HW187788   8.214   5.219  10.849
95338SOL    HW287789   8.108   5.232  10.741
95339SOL     OW87790   0.080   5.345  10.980
95339SOL    HW187791  14.870   5.360  10.957
95339SOL    HW287792   0.110   5.279  10.917
95340SOL     OW87793   0.970   4.571   0.350
95340SOL    HW187794   0.899   4.634   0.348
95340SOL    HW287795   1.041   4.616   0.395
95341SOL     OW87796   9.985   6.355  12.406
95341SOL    HW187797  10.010   6.340  12.496
95341SOL    HW287798   9.998   6.449  12.393
95342SOL     OW87799  14.115   5.776  13.009
95342SOL    HW187800  14.047   5.713  13.034
95342SOL    HW287801  14.087   5.859  13.050
95343SOL     OW87802   6.465  11.668   5.374
95343SOL    HW187803   6.520  11.677   5.451
95343SOL    HW287804   6.506  11.598   5.323
95344SOL     OW87805   0.797  10.585  13.711
95344SOL    HW187806   0.785  10.679  13.727
95344SOL    HW287807   0.720  10.559  13.661
95345SOL     OW87808  12.051   4.736   2.576
95345SOL    HW187809  12.141   4.737   2.542
95345SOL    HW287810  12.061   4.757   2.669
95346SOL     OW87811   2.305  13.720   5.246
95346SOL    HW187812   2.346  13.663   5.180
95346SOL    HW287813   2.348  13.697   5.328
95347SOL     OW87814   1.625   9.906   9.218
95347SOL    HW187815   1.570   9.940   9.288
95347SOL    HW287816   1.563   9.876   9.151
95348SOL     OW87817   8.939   2.647  10.301
95348SOL    HW187818   8.948   2.740  10.323
95348SOL    HW287819   8.923   2.646  10.206
95349SOL     OW87820   0.395  12.994  12.157
95349SOL    HW187821   0.317  12.938  12.152
95349SOL    HW287822   0.361  13.083  12.151
95350SOL     OW87823  11.843   2.886   6.240
95350SOL    HW187824  11.751   2.861   6.228
95350SOL    HW287825  11.869   2.922   6.156
95351SOL     OW87826   7.928   8.034   5.249
95351SOL    HW187827   7.992   8.104   5.261
95351SOL    HW287828   7.941   7.976   5.324
95352SOL     OW87829   8.917   4.967  10.913
95352SOL    HW187830   8.824   4.958  10.934
95352SOL    HW287831   8.938   4.890  10.861
95353SOL     OW87832  13.683  14.490   1.787
95353SOL    HW187833  13.741  14.541   1.844
95353SOL    HW287834  13.737  14.416   1.760
95354SOL     OW87835  10.492   0.291   1.513
95354SOL    HW187836  10.558   0.234   1.473
95354SOL    HW287837  10.416   0.235   1.525
95355SOL     OW87838   9.108  12.114  12.856
95355SOL    HW187839   9.112  12.208  12.839
95355SOL    HW287840   9.179  12.097  12.918
95356SOL     OW87841   4.233  13.681  12.696
95356SOL    HW187842   4.311  13.670  12.749
95356SOL    HW287843   4.234  13.774  12.672
95357SOL     OW87844   1.826   1.379   1.164
95357SOL    HW187845   1.761   1.340   1.223
95357SOL    HW287846   1.790   1.364   1.077
95358SOL     OW87847   8.263  12.780   7.428
95358SOL    HW187848   8.236  12.870   7.410
95358SOL    HW287849   8.358  12.782   7.422
95359SOL     OW87850   5.680   7.271  14.089
95359SOL    HW187851   5.655   7.329  14.018
95359SOL    HW287852   5.600   7.258  14.140
95360SOL     OW87853   1.867  11.372   1.637
95360SOL    HW187854   1.875  11.333   1.549
95360SOL    HW287855   1.947  11.423   1.648
95361SOL     OW87856  14.700  11.417   5.698
95361SOL    HW187857  14.704  11.425   5.793
95361SOL    HW287858  14.745  11.495   5.666
95362SOL     OW87859  13.411   2.725   4.467
95362SOL    HW187860  13.433   2.638   4.501
95362SOL    HW287861  13.494   2.772   4.466
95363SOL     OW87862  14.568   9.855   7.264
95363SOL    HW187863  14.533   9.933   7.308
95363SOL    HW287864  14.499   9.789   7.274
95364SOL     OW87865   8.564   4.980  10.699
95364SOL    HW187866   8.605   4.930  10.629
95364SOL    HW287867   8.577   5.072  10.674
95365SOL     OW87868   2.204   0.220   2.479
95365SOL    HW187869   2.223   0.127   2.464
95365SOL    HW287870   2.287   0.256   2.511
95366SOL     OW87871  11.973  12.287   2.779
95366SOL    HW187872  11.917  12.316   2.708
95366SOL    HW287873  11.935  12.326   2.858
95367SOL     OW87874   9.759   5.196   4.311
95367SOL    HW187875   9.745   5.240   4.394
95367SOL    HW287876   9.706   5.245   4.248
95368SOL     OW87877   5.357  10.294   3.747
95368SOL    HW187878   5.413  10.371   3.742
95368SOL    HW287879   5.274  10.327   3.780
95369SOL     OW87880   5.263   0.166   0.814
95369SOL    HW187881   5.199   0.148   0.882
95369SOL    HW287882   5.212   0.172   0.733
95370SOL     OW87883  13.787   1.685   4.070
95370SOL    HW187884  13.845   1.733   4.011
95370SOL    HW287885  13.762   1.607   4.020
95371SOL     OW87886   8.900  13.394   2.502
95371SOL    HW187887   8.813  13.409   2.539
95371SOL    HW287888   8.960  13.417   2.573
95372SOL     OW87889   9.866  11.097   0.974
95372SOL    HW187890   9.788  11.079   1.026
95372SOL    HW287891   9.936  11.109   1.039
95373SOL     OW87892  14.137   1.212   0.877
95373SOL    HW187893  14.215   1.189   0.928
95373SOL    HW287894  14.065   1.204   0.938
95374SOL     OW87895   7.767  13.552   0.904
95374SOL    HW187896   7.718  13.505   0.836
95374SOL    HW287897   7.811  13.484   0.954
95375SOL     OW87898   4.668   5.171   7.826
95375SOL    HW187899   4.739   5.125   7.870
95375SOL    HW287900   4.676   5.262   7.856
95376SOL     OW87901   5.717   7.244  13.632
95376SOL    HW187902   5.722   7.166  13.687
95376SOL    HW287903   5.629   7.240  13.593
95377SOL     OW87904   3.948   8.298   7.573
95377SOL    HW187905   3.874   8.267   7.521
95377SOL    HW287906   3.913   8.311   7.661
95378SOL     OW87907   3.348   8.023   7.884
95378SOL    HW187908   3.399   8.025   7.965
95378SOL    HW287909   3.384   8.096   7.832
95379SOL     OW87910   8.622   9.559   3.935
95379SOL    HW187911   8.569   9.537   3.859
95379SOL    HW287912   8.688   9.489   3.939
95380SOL     OW87913   9.155  10.293   4.162
95380SOL    HW187914   9.139  10.215   4.110
95380SOL    HW287915   9.158  10.262   4.253
95381SOL     OW87916   0.955   2.193  10.346
95381SOL    HW187917   0.872   2.148  10.365
95381SOL    HW287918   0.998   2.200  10.431
95382SOL     OW87919   2.527   6.528   4.739
95382SOL    HW187920   2.486   6.613   4.722
95382SOL    HW287921   2.491   6.470   4.673
95383SOL     OW87922  14.474   9.499   9.262
95383SOL    HW187923  14.499   9.462   9.178
95383SOL    HW287924  14.439   9.586   9.241
95384SOL     OW87925   8.096  10.324  14.122
95384SOL    HW187926   8.027  10.382  14.094
95384SOL    HW287927   8.080  10.242  14.075
95385SOL     OW87928  12.519  14.594   8.421
95385SOL    HW187929  12.451  14.639   8.371
95385SOL    HW287930  12.575  14.553   8.355
95386SOL     OW87931   6.287   0.605   7.019
95386SOL    HW187932   6.256   0.525   7.062
95386SOL    HW287933   6.209   0.659   7.009
95387SOL     OW87934   7.958   2.760   2.211
95387SOL    HW187935   7.976   2.686   2.154
95387SOL    HW287936   8.007   2.742   2.291
95388SOL     OW87937   0.523   8.147   9.600
95388SOL    HW187938   0.481   8.221   9.556
95388SOL    HW287939   0.575   8.105   9.531
95389SOL     OW87940   2.463   8.340   4.082
95389SOL    HW187941   2.523   8.398   4.128
95389SOL    HW287942   2.518   8.270   4.047
95390SOL     OW87943   7.794   8.120  14.604
95390SOL    HW187944   7.856   8.170  14.658
95390SOL    HW287945   7.788   8.035  14.646
95391SOL     OW87946  14.645   7.081  11.662
95391SOL    HW187947  14.614   7.166  11.694
95391SOL    HW287948  14.586   7.060  11.589
95392SOL     OW87949  11.746   0.204  10.491
95392SOL    HW187950  11.697   0.137  10.538
95392SOL    HW287951  11.838   0.183  10.509
95393SOL     OW87952   0.363  14.038  14.738
95393SOL    HW187953   0.436  14.098  14.721
95393SOL    HW287954   0.400  13.971  14.796
95394SOL     OW87955  12.101   3.695   8.603
95394SOL    HW187956  12.016   3.738   8.618
95394SOL    HW287957  12.145   3.701   8.687
95395SOL     OW87958   7.616   1.102   3.491
95395SOL    HW187959   7.680   1.038   3.459
95395SOL    HW287960   7.669   1.178   3.515
95396SOL     OW87961   6.368  13.930   8.473
95396SOL    HW187962   6.460  13.922   8.499
95396SOL    HW287963   6.363  14.013   8.426
95397SOL     OW87964   2.048   7.585  14.698
95397SOL    HW187965   2.120   7.583  14.635
95397SOL    HW287966   2.011   7.673  14.690
95398SOL     OW87967  11.133   1.599   6.881
95398SOL    HW187968  11.160   1.539   6.950
95398SOL    HW287969  11.205   1.661   6.873
95399SOL     OW87970   8.832  12.835  12.593
95399SOL    HW187971   8.869  12.867  12.675
95399SOL    HW287972   8.742  12.868  12.593
95400SOL     OW87973   6.541   9.274   2.227
95400SOL    HW187974   6.452   9.259   2.197
95400SOL    HW287975   6.576   9.186   2.245
95401SOL     OW87976   0.872   1.820  10.539
95401SOL    HW187977   0.857   1.804  10.446
95401SOL    HW287978   0.809   1.888  10.562
95402SOL     OW87979  10.580   3.910  12.688
95402SOL    HW187980  10.501   3.964  12.690
95402SOL    HW287981  10.589   3.886  12.595
95403SOL     OW87982   1.061   8.133   9.902
95403SOL    HW187983   0.983   8.172   9.941
95403SOL    HW287984   1.128   8.139   9.971
95404SOL     OW87985   2.136  13.611   7.790
95404SOL    HW187986   2.203  13.591   7.725
95404SOL    HW287987   2.173  13.581   7.873
95405SOL     OW87988  12.820  10.916  12.948
95405SOL    HW187989  12.870  10.954  12.875
95405SOL    HW287990  12.862  10.952  13.027
95406SOL     OW87991   9.102   0.968   5.729
95406SOL    HW187992   9.075   0.945   5.640
95406SOL    HW287993   9.025   1.010   5.767
95407SOL     OW87994   9.523  11.655   6.787
95407SOL    HW187995   9.528  11.742   6.747
95407SOL    HW287996   9.521  11.594   6.713
95408SOL     OW87997   3.033   4.561  11.792
95408SOL    HW187998   2.957   4.579  11.848
95408SOL    HW287999   3.065   4.647  11.767
95409SOL     OW88000   4.449   9.636   5.745
95409SOL    HW188001   4.516   9.705   5.740
95409SOL    HW288002   4.492   9.565   5.793
95410SOL     OW88003  10.925   6.250  12.593
95410SOL    HW188004  10.915   6.158  12.615
95410SOL    HW288005  11.017   6.270  12.613
95411SOL     OW88006   3.209  14.251  13.202
95411SOL    HW188007   3.114  14.261  13.196
95411SOL    HW288008   3.240  14.263  13.112
95412SOL     OW88009  10.310   2.097  14.378
95412SOL    HW188010  10.262   2.131  14.453
95412SOL    HW288011  10.263   2.133  14.302
95413SOL     OW88012   2.413  13.959   7.913
95413SOL    HW188013   2.324  13.968   7.879
95413SOL    HW288014   2.463  13.923   7.840
95414SOL     OW88015   4.704  11.616  14.543
95414SOL    HW188016   4.657  11.533  14.549
95414SOL    HW288017   4.761  11.618  14.621
95415SOL     OW88018  14.769   6.011  12.527
95415SOL    HW188019  14.692   5.967  12.490
95415SOL    HW288020  14.807   6.058  12.453
95416SOL     OW88021  14.803   2.711   3.303
95416SOL    HW188022  14.877   2.722   3.243
95416SOL    HW288023  14.759   2.796   3.302
95417SOL     OW88024   2.953   9.006   1.244
95417SOL    HW188025   2.978   9.096   1.263
95417SOL    HW288026   3.034   8.955   1.253
95418SOL     OW88027   2.370   2.685   8.051
95418SOL    HW188028   2.358   2.649   7.964
95418SOL    HW288029   2.282   2.710   8.080
95419SOL     OW88030   0.488   7.425   9.217
95419SOL    HW188031   0.534   7.405   9.135
95419SOL    HW288032   0.492   7.521   9.223
95420SOL     OW88033  12.409   2.585   9.533
95420SOL    HW188034  12.415   2.552   9.622
95420SOL    HW288035  12.326   2.551   9.500
95421SOL     OW88036   9.815   2.840   7.569
95421SOL    HW188037   9.850   2.862   7.482
95421SOL    HW288038   9.884   2.866   7.630
95422SOL     OW88039   5.725   7.910  13.377
95422SOL    HW188040   5.646   7.856  13.369
95422SOL    HW288041   5.786   7.857  13.427
95423SOL     OW88042   8.390   8.944   9.303
95423SOL    HW188043   8.456   8.884   9.268
95423SOL    HW288044   8.316   8.887   9.324
95424SOL     OW88045   6.317   4.647   8.635
95424SOL    HW188046   6.245   4.710   8.634
95424SOL    HW288047   6.285   4.573   8.584
95425SOL     OW88048   3.765   9.039   0.030
95425SOL    HW188049   3.770   9.021   0.124
95425SOL    HW288050   3.773   8.952  14.871
95426SOL     OW88051  11.112   7.832   7.136
95426SOL    HW188052  11.108   7.835   7.232
95426SOL    HW288053  11.079   7.745   7.114
95427SOL     OW88054   0.900  13.951   3.113
95427SOL    HW188055   0.893  13.958   3.208
95427SOL    HW288056   0.811  13.963   3.081
95428SOL     OW88057   7.352  12.114   5.087
95428SOL    HW188058   7.324  12.037   5.038
95428SOL    HW288059   7.419  12.081   5.147
95429SOL     OW88060   5.074   1.948   8.456
95429SOL    HW188061   5.102   2.039   8.466
95429SOL    HW288062   5.154   1.901   8.429
95430SOL     OW88063  13.690   8.223   4.013
95430SOL    HW188064  13.737   8.250   4.092
95430SOL    HW288065  13.730   8.140   3.988
95431SOL     OW88066   0.457   1.948  13.435
95431SOL    HW188067   0.422   2.015  13.494
95431SOL    HW288068   0.485   1.878  13.493
95432SOL     OW88069  12.937   2.433   6.220
95432SOL    HW188070  12.974   2.379   6.290
95432SOL    HW288071  13.006   2.497   6.201
95433SOL     OW88072  14.689   0.480   6.132
95433SOL    HW188073  14.748   0.552   6.154
95433SOL    HW288074  14.740   0.424   6.073
95434SOL     OW88075   2.543   3.548  13.005
95434SOL    HW188076   2.558   3.505  12.921
95434SOL    HW288077   2.448   3.561  13.009
95435SOL     OW88078   6.579   1.586  14.871
95435SOL    HW188079   6.556   1.507  14.823
95435SOL    HW288080   6.494   1.625   0.013
95436SOL     OW88081   0.810   7.129   5.128
95436SOL    HW188082   0.816   7.036   5.151
95436SOL    HW288083   0.895   7.165   5.154
95437SOL     OW88084   4.653  14.228   2.155
95437SOL    HW188085   4.574  14.241   2.207
95437SOL    HW288086   4.647  14.137   2.125
95438SOL     OW88087  13.441  10.172   9.664
95438SOL    HW188088  13.462  10.079   9.663
95438SOL    HW288089  13.509  10.212   9.609
95439SOL     OW88090  10.999  11.124  13.118
95439SOL    HW188091  11.036  11.184  13.052
95439SOL    HW288092  10.905  11.130  13.104
95440SOL     OW88093  11.574   4.053  10.699
95440SOL    HW188094  11.648   4.086  10.750
95440SOL    HW288095  11.564   3.962  10.726
95441SOL     OW88096   0.369   5.819   1.913
95441SOL    HW188097   0.450   5.839   1.866
95441SOL    HW288098   0.390   5.740   1.963
95442SOL     OW88099  11.991  13.373  13.817
95442SOL    HW188100  12.001  13.311  13.745
95442SOL    HW288101  12.066  13.356  13.874
95443SOL     OW88102   1.454   3.405  11.475
95443SOL    HW188103   1.396   3.377  11.546
95443SOL    HW288104   1.480   3.494  11.499
95444SOL     OW88105   6.094  10.099   2.219
95444SOL    HW188106   6.003  10.070   2.223
95444SOL    HW288107   6.089  10.194   2.231
95445SOL     OW88108  11.895   8.202  11.954
95445SOL    HW188109  11.963   8.267  11.972
95445SOL    HW288110  11.918   8.127  12.010
95446SOL     OW88111   0.846   6.887  14.154
95446SOL    HW188112   0.784   6.840  14.099
95446SOL    HW288113   0.876   6.960  14.100
95447SOL     OW88114   8.115   0.045   1.699
95447SOL    HW188115   8.196   0.023   1.653
95447SOL    HW288116   8.048  14.872   1.658
95448SOL     OW88117   0.737   5.119   3.464
95448SOL    HW188118   0.825   5.093   3.437
95448SOL    HW288119   0.747   5.149   3.555
95449SOL     OW88120  14.209  11.911   2.061
95449SOL    HW188121  14.176  11.822   2.073
95449SOL    HW288122  14.130  11.966   2.058
95450SOL     OW88123  10.342   1.786   2.361
95450SOL    HW188124  10.352   1.692   2.377
95450SOL    HW288125  10.416   1.807   2.303
95451SOL     OW88126   6.571   3.434   2.610
95451SOL    HW188127   6.651   3.386   2.631
95451SOL    HW288128   6.591   3.525   2.631
95452SOL     OW88129   5.150   5.025   6.050
95452SOL    HW188130   5.084   5.002   5.985
95452SOL    HW288131   5.199   5.096   6.010
95453SOL     OW88132   7.360   3.695  12.127
95453SOL    HW188133   7.445   3.699  12.171
95453SOL    HW288134   7.355   3.776  12.077
95454SOL     OW88135  12.628  13.722   9.258
95454SOL    HW188136  12.572  13.791   9.293
95454SOL    HW288137  12.643  13.747   9.167
95455SOL     OW88138  12.595   5.317   9.845
95455SOL    HW188139  12.670   5.279   9.892
95455SOL    HW288140  12.551   5.371   9.910
95456SOL     OW88141  12.221  13.210   5.794
95456SOL    HW188142  12.183  13.142   5.850
95456SOL    HW288143  12.161  13.217   5.720
95457SOL     OW88144   1.182  14.679   1.269
95457SOL    HW188145   1.151  14.747   1.210
95457SOL    HW288146   1.172  14.716   1.356
95458SOL     OW88147   6.288  11.565   4.311
95458SOL    HW188148   6.286  11.660   4.322
95458SOL    HW288149   6.321  11.532   4.394
95459SOL     OW88150  14.177  12.820   4.679
95459SOL    HW188151  14.240  12.748   4.685
95459SOL    HW288152  14.092  12.777   4.680
95460SOL     OW88153  12.678   9.390   3.552
95460SOL    HW188154  12.594   9.379   3.597
95460SOL    HW288155  12.743   9.358   3.615
95461SOL     OW88156   3.445   3.641   6.089
95461SOL    HW188157   3.373   3.579   6.085
95461SOL    HW288158   3.520   3.594   6.053
95462SOL     OW88159  12.405   8.470  10.389
95462SOL    HW188160  12.376   8.445  10.302
95462SOL    HW288161  12.477   8.411  10.409
95463SOL     OW88162   1.982   3.095  13.571
95463SOL    HW188163   2.059   3.045  13.544
95463SOL    HW288164   1.921   3.088  13.498
95464SOL     OW88165   5.926  12.891   7.027
95464SOL    HW188166   5.850  12.848   6.987
95464SOL    HW288167   5.897  12.913   7.115
95465SOL     OW88168   4.552   1.226   1.537
95465SOL    HW188169   4.629   1.250   1.485
95465SOL    HW288170   4.578   1.146   1.583
95466SOL     OW88171  12.049  12.683  14.490
95466SOL    HW188172  12.130  12.717  14.528
95466SOL    HW288173  12.078  12.626  14.419
95467SOL     OW88174  11.444   7.137  12.348
95467SOL    HW188175  11.539   7.127  12.342
95467SOL    HW288176  11.428   7.160  12.440
95468SOL     OW88177   8.373   8.809  13.139
95468SOL    HW188178   8.286   8.792  13.174
95468SOL    HW288179   8.378   8.755  13.059
95469SOL     OW88180  14.741   2.127  14.027
95469SOL    HW188181  14.810   2.070  14.060
95469SOL    HW288182  14.701   2.164  14.106
95470SOL     OW88183   0.762  10.867   5.459
95470SOL    HW188184   0.809  10.827   5.531
95470SOL    HW288185   0.697  10.801   5.432
95471SOL     OW88186   6.819  10.353  12.727
95471SOL    HW188187   6.867  10.353  12.643
95471SOL    HW288188   6.791  10.444  12.738
95472SOL     OW88189   5.676   2.567   0.977
95472SOL    HW188190   5.610   2.582   1.044
95472SOL    HW288191   5.655   2.481   0.940
95473SOL     OW88192   7.102   6.350   3.466
95473SOL    HW188193   7.139   6.434   3.440
95473SOL    HW288194   7.121   6.344   3.560
95474SOL     OW88195   1.117  13.185  12.886
95474SOL    HW188196   1.182  13.132  12.933
95474SOL    HW288197   1.152  13.274  12.887
95475SOL     OW88198   2.059   5.902  12.163
95475SOL    HW188199   2.140   5.863  12.194
95475SOL    HW288200   2.067   5.995  12.184
95476SOL     OW88201  11.493  12.667   4.477
95476SOL    HW188202  11.452  12.582   4.464
95476SOL    HW288203  11.564  12.651   4.539
95477SOL     OW88204   9.679   0.808   6.738
95477SOL    HW188205   9.599   0.861   6.736
95477SOL    HW288206   9.689   0.783   6.830
95478SOL     OW88207   1.345  14.292  11.649
95478SOL    HW188208   1.280  14.267  11.583
95478SOL    HW288209   1.305  14.367  11.694
95479SOL     OW88210   9.859   3.959   0.696
95479SOL    HW188211   9.767   3.982   0.709
95479SOL    HW288212   9.871   3.959   0.601
95480SOL     OW88213  13.805   4.062  10.325
95480SOL    HW188214  13.725   4.071  10.377
95480SOL    HW288215  13.863   4.009  10.380
95481SOL     OW88216   0.261  10.197  12.273
95481SOL    HW188217   0.303  10.279  12.299
95481SOL    HW288218   0.220  10.217  12.189
95482SOL     OW88219   1.462   8.690   4.311
95482SOL    HW188220   1.462   8.770   4.258
95482SOL    HW288221   1.543   8.645   4.287
95483SOL     OW88222   0.920   1.305  11.765
95483SOL    HW188223   0.872   1.387  11.751
95483SOL    HW288224   0.983   1.301  11.694
95484SOL     OW88225  12.256  11.685   0.847
95484SOL    HW188226  12.251  11.780   0.859
95484SOL    HW288227  12.350  11.666   0.847
95485SOL     OW88228   0.431   0.127   4.042
95485SOL    HW188229   0.509   0.138   3.987
95485SOL    HW288230   0.433   0.035   4.069
95486SOL     OW88231   9.175  14.101   5.147
95486SOL    HW188232   9.133  14.120   5.230
95486SOL    HW288233   9.116  14.138   5.081
95487SOL     OW88234   4.181  13.070  11.470
95487SOL    HW188235   4.218  13.054  11.382
95487SOL    HW288236   4.233  13.014  11.527
95488SOL     OW88237   5.772  10.322   7.894
95488SOL    HW188238   5.830  10.285   7.828
95488SOL    HW288239   5.748  10.248   7.949
95489SOL     OW88240   7.433  11.999   8.914
95489SOL    HW188241   7.419  12.093   8.907
95489SOL    HW288242   7.527  11.988   8.903
95490SOL     OW88243   9.515  14.452  10.527
95490SOL    HW188244   9.429  14.437  10.488
95490SOL    HW288245   9.501  14.440  10.621
95491SOL     OW88246  11.651   2.841   6.490
95491SOL    HW188247  11.719   2.904   6.464
95491SOL    HW288248  11.599   2.827   6.411
95492SOL     OW88249   1.097  10.456   3.632
95492SOL    HW188250   1.163  10.499   3.577
95492SOL    HW288251   1.079  10.518   3.702
95493SOL     OW88252  13.139   3.957   5.140
95493SOL    HW188253  13.087   4.017   5.193
95493SOL    HW288254  13.126   3.987   5.050
95494SOL     OW88255   7.670   6.446   0.364
95494SOL    HW188256   7.687   6.493   0.446
95494SOL    HW288257   7.662   6.354   0.392
95495SOL     OW88258  11.134   7.316   2.425
95495SOL    HW188259  11.154   7.410   2.424
95495SOL    HW288260  11.044   7.310   2.391
95496SOL     OW88261  10.803   0.615   6.870
95496SOL    HW188262  10.710   0.606   6.849
95496SOL    HW288263  10.848   0.555   6.810
95497SOL     OW88264   8.425   4.691   6.383
95497SOL    HW188265   8.449   4.645   6.464
95497SOL    HW288266   8.502   4.680   6.327
95498SOL     OW88267   4.911  11.679   7.476
95498SOL    HW188268   4.894  11.766   7.513
95498SOL    HW288269   4.835  11.627   7.503
95499SOL     OW88270   2.840  12.460   8.196
95499SOL    HW188271   2.777  12.475   8.126
95499SOL    HW288272   2.889  12.383   8.168
95500SOL     OW88273   8.045  13.356   5.926
95500SOL    HW188274   7.952  13.364   5.905
95500SOL    HW288275   8.061  13.423   5.992
95501SOL     OW88276   1.535  11.888   7.370
95501SOL    HW188277   1.603  11.930   7.422
95501SOL    HW288278   1.454  11.906   7.418
95502SOL     OW88279  14.406   7.805   6.568
95502SOL    HW188280  14.388   7.762   6.652
95502SOL    HW288281  14.435   7.893   6.591
95503SOL     OW88282  14.498   4.066   9.511
95503SOL    HW188283  14.502   4.003   9.583
95503SOL    HW288284  14.556   4.137   9.538
95504SOL     OW88285   0.875   1.664  13.665
95504SOL    HW188286   0.911   1.593  13.718
95504SOL    HW288287   0.931   1.667  13.587
95505SOL     OW88288   6.780   0.843   5.324
95505SOL    HW188289   6.769   0.808   5.236
95505SOL    HW288290   6.694   0.879   5.347
95506SOL     OW88291   3.034   4.167   1.516
95506SOL    HW188292   3.083   4.199   1.592
95506SOL    HW288293   3.011   4.246   1.468
95507SOL     OW88294   7.592   2.061   0.416
95507SOL    HW188295   7.684   2.050   0.440
95507SOL    HW288296   7.579   1.999   0.344
95508SOL     OW88297  10.606  10.632   8.895
95508SOL    HW188298  10.639  10.651   8.983
95508SOL    HW288299  10.682  10.641   8.839
95509SOL     OW88300   3.819   3.493   0.155
95509SOL    HW188301   3.828   3.548   0.077
95509SOL    HW288302   3.788   3.409   0.122
95510SOL     OW88303   9.015   9.496  14.728
95510SOL    HW188304   9.009   9.464  14.818
95510SOL    HW288305   9.108   9.519  14.718
95511SOL     OW88306  14.855   9.007  10.297
95511SOL    HW188307  14.781   8.996  10.357
95511SOL    HW288308   0.047   8.964  10.341
95512SOL     OW88309   4.094  12.806   9.829
95512SOL    HW188310   4.040  12.860   9.771
95512SOL    HW288311   4.144  12.749   9.770
95513SOL     OW88312  14.390   6.839   7.842
95513SOL    HW188313  14.410   6.758   7.889
95513SOL    HW288314  14.299   6.858   7.865
95514SOL     OW88315   2.805   7.979   1.395
95514SOL    HW188316   2.762   8.065   1.401
95514SOL    HW288317   2.852   7.982   1.312
95515SOL     OW88318   9.632  12.426   4.433
95515SOL    HW188319   9.568  12.379   4.378
95515SOL    HW288320   9.680  12.481   4.371
95516SOL     OW88321  10.982   6.128   0.130
95516SOL    HW188322  11.027   6.051   0.165
95516SOL    HW288323  10.999   6.126   0.036
95517SOL     OW88324   2.078  14.340   7.217
95517SOL    HW188325   2.157  14.329   7.164
95517SOL    HW288326   2.026  14.262   7.199
95518SOL     OW88327   4.353  13.033  10.391
95518SOL    HW188328   4.271  12.988  10.371
95518SOL    HW288329   4.353  13.111  10.336
95519SOL     OW88330   9.221   9.009   8.759
95519SOL    HW188331   9.198   9.012   8.666
95519SOL    HW288332   9.233   9.100   8.784
95520SOL     OW88333   1.337   0.799  10.903
95520SOL    HW188334   1.402   0.783  10.972
95520SOL    HW288335   1.389   0.812  10.824
95521SOL     OW88336   0.753   7.432  11.499
95521SOL    HW188337   0.680   7.387  11.542
95521SOL    HW288338   0.728   7.436  11.407
95522SOL     OW88339  12.789   7.814   9.289
95522SOL    HW188340  12.787   7.899   9.244
95522SOL    HW288341  12.698   7.784   9.288
95523SOL     OW88342  11.105   9.601  13.667
95523SOL    HW188343  11.058   9.673  13.628
95523SOL    HW288344  11.192   9.603  13.626
95524SOL     OW88345  12.588   1.157  11.022
95524SOL    HW188346  12.589   1.157  11.118
95524SOL    HW288347  12.498   1.180  10.999
95525SOL     OW88348   0.521   6.248   1.528
95525SOL    HW188349   0.519   6.196   1.447
95525SOL    HW288350   0.602   6.222   1.571
95526SOL     OW88351   3.535  14.310   2.864
95526SOL    HW188352   3.580  14.363   2.798
95526SOL    HW288353   3.454  14.281   2.820
95527SOL     OW88354  14.403  14.572   2.547
95527SOL    HW188355  14.499  14.573   2.553
95527SOL    HW288356  14.379  14.480   2.552
95528SOL     OW88357   2.613   4.608   3.946
95528SOL    HW188358   2.667   4.646   4.016
95528SOL    HW288359   2.592   4.520   3.978
95529SOL     OW88360   3.042   8.466   4.945
95529SOL    HW188361   3.131   8.453   4.975
95529SOL    HW288362   3.031   8.561   4.941
95530SOL     OW88363  12.009  14.760  13.225
95530SOL    HW188364  12.071  14.699  13.266
95530SOL    HW288365  11.923  14.718  13.237
95531SOL     OW88366   4.051  13.799  11.435
95531SOL    HW188367   4.031  13.792  11.342
95531SOL    HW288368   4.011  13.721  11.474
95532SOL     OW88369   8.070   2.857  12.134
95532SOL    HW188370   8.018   2.903  12.199
95532SOL    HW288371   8.007   2.834  12.065
95533SOL     OW88372   0.436   2.400   6.926
95533SOL    HW188373   0.472   2.313   6.943
95533SOL    HW288374   0.446   2.412   6.831
95534SOL     OW88375   4.852  10.056   1.629
95534SOL    HW188376   4.842  10.126   1.693
95534SOL    HW288377   4.765  10.044   1.592
95535SOL     OW88378   0.247   3.608   3.211
95535SOL    HW188379   0.337   3.616   3.179
95535SOL    HW288380   0.213   3.529   3.170
95536SOL     OW88381  12.804  12.363   3.670
95536SOL    HW188382  12.716  12.366   3.631
95536SOL    HW288383  12.838  12.277   3.645
95537SOL     OW88384  12.595   4.775   2.367
95537SOL    HW188385  12.546   4.842   2.415
95537SOL    HW288386  12.684   4.810   2.363
95538SOL     OW88387  11.051   5.909   1.495
95538SOL    HW188388  11.121   5.927   1.558
95538SOL    HW288389  10.973   5.895   1.548
95539SOL     OW88390   6.918  11.023   3.724
95539SOL    HW188391   6.861  11.028   3.801
95539SOL    HW288392   6.961  10.938   3.732
95540SOL     OW88393   9.330   9.495  12.705
95540SOL    HW188394   9.319   9.589  12.694
95540SOL    HW288395   9.293   9.457  12.625
95541SOL     OW88396   9.583   2.196   5.792
95541SOL    HW188397   9.520   2.246   5.845
95541SOL    HW288398   9.668   2.237   5.811
95542SOL     OW88399   3.774  13.969   1.947
95542SOL    HW188400   3.811  13.977   1.859
95542SOL    HW288401   3.835  14.018   2.002
95543SOL     OW88402   6.466   0.667   2.949
95543SOL    HW188403   6.510   0.582   2.954
95543SOL    HW288404   6.385   0.649   2.902
95544SOL     OW88405   3.128   1.901  12.730
95544SOL    HW188406   3.088   1.854  12.803
95544SOL    HW288407   3.209   1.853  12.712
95545SOL     OW88408   0.739   4.539  14.772
95545SOL    HW188409   0.720   4.493  14.691
95545SOL    HW288410   0.798   4.610  14.746
95546SOL     OW88411   3.441  12.214  13.850
95546SOL    HW188412   3.502  12.206  13.776
95546SOL    HW288413   3.481  12.280  13.906
95547SOL     OW88414  13.959   8.587   4.330
95547SOL    HW188415  13.901   8.635   4.389
95547SOL    HW288416  13.988   8.511   4.381
95548SOL     OW88417  12.437   9.115   7.789
95548SOL    HW188418  12.400   9.203   7.800
95548SOL    HW288419  12.501   9.107   7.861
95549SOL     OW88420   0.968   4.423  11.872
95549SOL    HW188421   1.045   4.419  11.929
95549SOL    HW288422   0.902   4.372  11.918
95550SOL     OW88423   5.630   7.743   6.713
95550SOL    HW188424   5.725   7.743   6.708
95550SOL    HW288425   5.610   7.811   6.778
95551SOL     OW88426   2.809   7.551   9.776
95551SOL    HW188427   2.878   7.584   9.833
95551SOL    HW288428   2.854   7.492   9.715
95552SOL     OW88429  14.053   6.530   7.317
95552SOL    HW188430  14.083   6.619   7.335
95552SOL    HW288431  14.087   6.479   7.390
95553SOL     OW88432  12.082   4.981   3.302
95553SOL    HW188433  11.994   4.948   3.321
95553SOL    HW288434  12.132   4.904   3.276
95554SOL     OW88435   4.848  13.580   7.846
95554SOL    HW188436   4.924  13.534   7.883
95554SOL    HW288437   4.774  13.549   7.898
95555SOL     OW88438   1.078  13.713   7.649
95555SOL    HW188439   1.124  13.735   7.730
95555SOL    HW288440   1.147  13.678   7.591
95556SOL     OW88441   7.501   3.976  12.898
95556SOL    HW188442   7.466   4.036  12.963
95556SOL    HW288443   7.486   4.020  12.814
95557SOL     OW88444   2.057  12.220   1.466
95557SOL    HW188445   2.003  12.288   1.506
95557SOL    HW288446   2.096  12.261   1.389
95558SOL     OW88447   8.477  13.150  13.335
95558SOL    HW188448   8.515  13.222  13.385
95558SOL    HW288449   8.430  13.098  13.400
95559SOL     OW88450   1.490   2.450   7.845
95559SOL    HW188451   1.491   2.441   7.750
95559SOL    HW288452   1.500   2.544   7.861
95560SOL     OW88453   6.038  10.688  12.817
95560SOL    HW188454   6.081  10.605  12.837
95560SOL    HW288455   5.945  10.671  12.830
95561SOL     OW88456   9.756   4.278   8.637
95561SOL    HW188457   9.766   4.234   8.722
95561SOL    HW288458   9.804   4.222   8.576
95562SOL     OW88459   8.324   0.642  14.318
95562SOL    HW188460   8.337   0.736  14.311
95562SOL    HW288461   8.412   0.607  14.334
95563SOL     OW88462  13.200   2.398   5.878
95563SOL    HW188463  13.171   2.312   5.849
95563SOL    HW288464  13.119   2.447   5.892
95564SOL     OW88465   6.230  11.427   8.021
95564SOL    HW188466   6.214  11.410   7.928
95564SOL    HW288467   6.311  11.476   8.024
95565SOL     OW88468   1.551  11.920   1.842
95565SOL    HW188469   1.623  11.950   1.786
95565SOL    HW288470   1.525  11.997   1.892
95566SOL     OW88471   8.846   4.982   7.304
95566SOL    HW188472   8.755   4.987   7.274
95566SOL    HW288473   8.839   4.951   7.394
95567SOL     OW88474   3.138   6.762   3.138
95567SOL    HW188475   3.080   6.830   3.171
95567SOL    HW288476   3.179   6.800   3.061
95568SOL     OW88477   8.251   0.773   8.024
95568SOL    HW188478   8.237   0.867   8.020
95568SOL    HW288479   8.315   0.755   7.955
95569SOL     OW88480  13.199   2.000  11.369
95569SOL    HW188481  13.137   2.069  11.343
95569SOL    HW288482  13.260   2.044  11.428
95570SOL     OW88483  11.289   5.745   4.472
95570SOL    HW188484  11.286   5.679   4.542
95570SOL    HW288485  11.208   5.794   4.482
95571SOL     OW88486   1.429  11.562   9.845
95571SOL    HW188487   1.513  11.583   9.804
95571SOL    HW288488   1.449  11.492   9.907
95572SOL     OW88489   4.306   0.819   1.052
95572SOL    HW188490   4.286   0.833   0.959
95572SOL    HW288491   4.400   0.839   1.059
95573SOL     OW88492   5.932   5.953   3.592
95573SOL    HW188493   5.945   6.032   3.645
95573SOL    HW288494   5.966   5.976   3.506
95574SOL     OW88495   8.703   0.810  10.410
95574SOL    HW188496   8.608   0.802  10.423
95574SOL    HW288497   8.723   0.900  10.437
95575SOL     OW88498   3.149   1.830   0.948
95575SOL    HW188499   3.206   1.902   0.922
95575SOL    HW288500   3.194   1.751   0.918
95576SOL     OW88501  12.209  13.821   3.171
95576SOL    HW188502  12.170  13.803   3.086
95576SOL    HW288503  12.143  13.794   3.234
95577SOL     OW88504   4.139   9.770   4.627
95577SOL    HW188505   4.122   9.727   4.711
95577SOL    HW288506   4.143   9.863   4.649
95578SOL     OW88507  12.567  13.519   3.388
95578SOL    HW188508  12.596  13.517   3.479
95578SOL    HW288509  12.610  13.444   3.348
95579SOL     OW88510   9.816  11.564   9.721
95579SOL    HW188511   9.849  11.642   9.677
95579SOL    HW288512   9.778  11.597   9.802
95580SOL     OW88513  13.614  13.839   1.351
95580SOL    HW188514  13.627  13.765   1.291
95580SOL    HW288515  13.661  13.911   1.309
95581SOL     OW88516  11.175   6.669   4.842
95581SOL    HW188517  11.231   6.736   4.883
95581SOL    HW288518  11.092   6.676   4.888
95582SOL     OW88519   3.472   3.282  12.013
95582SOL    HW188520   3.422   3.349  12.059
95582SOL    HW288521   3.532   3.330  11.957
95583SOL     OW88522   9.611   9.991  13.353
95583SOL    HW188523   9.568   9.971  13.437
95583SOL    HW288524   9.675   9.921  13.342
95584SOL     OW88525  11.865  13.726  12.094
95584SOL    HW188526  11.831  13.650  12.141
95584SOL    HW288527  11.836  13.714  12.003
95585SOL     OW88528   2.017   5.471  10.471
95585SOL    HW188529   2.010   5.513  10.385
95585SOL    HW288530   2.108   5.484  10.497
95586SOL     OW88531  10.080  14.490   1.042
95586SOL    HW188532  10.002  14.538   1.070
95586SOL    HW288533  10.080  14.411   1.097
95587SOL     OW88534  13.323   1.382   6.921
95587SOL    HW188535  13.244   1.328   6.931
95587SOL    HW288536  13.348   1.372   6.829
95588SOL     OW88537  13.843   6.821   1.209
95588SOL    HW188538  13.794   6.902   1.223
95588SOL    HW288539  13.783   6.752   1.235
95589SOL     OW88540  14.466  14.418   4.392
95589SOL    HW188541  14.386  14.460   4.359
95589SOL    HW288542  14.443  14.326   4.399
95590SOL     OW88543   3.585  10.349  11.941
95590SOL    HW188544   3.506  10.383  11.983
95590SOL    HW288545   3.653  10.361  12.007
95591SOL     OW88546   1.903   0.406   3.818
95591SOL    HW188547   1.992   0.436   3.840
95591SOL    HW288548   1.864   0.386   3.903
95592SOL     OW88549  10.591  10.376   7.658
95592SOL    HW188550  10.633  10.342   7.736
95592SOL    HW288551  10.660  10.374   7.591
95593SOL     OW88552   6.834   3.466  13.225
95593SOL    HW188553   6.835   3.561  13.214
95593SOL    HW288554   6.862   3.432  13.140
95594SOL     OW88555  14.760  11.030  13.590
95594SOL    HW188556  14.851  11.031  13.619
95594SOL    HW288557  14.726  10.946  13.621
95595SOL     OW88558   0.174  12.787   5.190
95595SOL    HW188559   0.256  12.818   5.230
95595SOL    HW288560   0.128  12.866   5.165
95596SOL     OW88561   3.071  13.668   0.375
95596SOL    HW188562   3.033  13.725   0.441
95596SOL    HW288563   3.008  13.597   0.364
95597SOL     OW88564   5.957  12.306  14.806
95597SOL    HW188565   6.044  12.266  14.797
95597SOL    HW288566   5.916  12.258  14.877
95598SOL     OW88567   1.230   4.116   3.810
95598SOL    HW188568   1.167   4.074   3.868
95598SOL    HW288569   1.177   4.148   3.737
95599SOL     OW88570   1.040   0.120   1.350
95599SOL    HW188571   1.058   0.212   1.333
95599SOL    HW288572   0.952   0.105   1.314
95600SOL     OW88573   1.276   3.401   9.612
95600SOL    HW188574   1.344   3.468   9.622
95600SOL    HW288575   1.197   3.441   9.650
95601SOL     OW88576   0.087  12.493  13.451
95601SOL    HW188577   0.036  12.413  13.436
95601SOL    HW288578   0.155  12.490  13.384
95602SOL     OW88579  12.380  10.781   4.619
95602SOL    HW188580  12.454  10.819   4.667
95602SOL    HW288581  12.386  10.821   4.532
95603SOL     OW88582   5.850   4.094   9.892
95603SOL    HW188583   5.825   4.123   9.805
95603SOL    HW288584   5.934   4.050   9.879
95604SOL     OW88585  13.299   3.842  10.543
95604SOL    HW188586  13.210   3.871  10.526
95604SOL    HW288587  13.298   3.813  10.634
95605SOL     OW88588   6.448   6.595   2.242
95605SOL    HW188589   6.497   6.588   2.160
95605SOL    HW288590   6.386   6.522   2.239
95606SOL     OW88591   4.928  10.505  10.627
95606SOL    HW188592   4.856  10.560  10.594
95606SOL    HW288593   4.996  10.513  10.561
95607SOL     OW88594   3.754   3.082   2.600
95607SOL    HW188595   3.835   3.031   2.597
95607SOL    HW288596   3.751   3.128   2.516
95608SOL     OW88597   3.424   6.396   8.040
95608SOL    HW188598   3.431   6.430   7.951
95608SOL    HW288599   3.337   6.422   8.069
95609SOL     OW88600   3.422   9.639  13.968
95609SOL    HW188601   3.434   9.729  13.998
95609SOL    HW288602   3.492   9.626  13.904
95610SOL     OW88603  11.020   8.228  11.139
95610SOL    HW188604  11.088   8.276  11.186
95610SOL    HW288605  11.063   8.149  11.107
95611SOL     OW88606   9.887  11.573   7.657
95611SOL    HW188607   9.961  11.604   7.603
95611SOL    HW288608   9.827  11.532   7.594
95612SOL     OW88609  13.981  12.519  13.057
95612SOL    HW188610  14.012  12.474  12.979
95612SOL    HW288611  13.979  12.451  13.124
95613SOL     OW88612   6.287  13.501   4.719
95613SOL    HW188613   6.260  13.417   4.756
95613SOL    HW288614   6.346  13.538   4.784
95614SOL     OW88615   0.556   2.621   2.226
95614SOL    HW188616   0.485   2.557   2.219
95614SOL    HW288617   0.578   2.643   2.136
95615SOL     OW88618   1.319   2.312  14.145
95615SOL    HW188619   1.285   2.339  14.060
95615SOL    HW288620   1.288   2.222  14.156
95616SOL     OW88621   8.387   5.176   1.474
95616SOL    HW188622   8.439   5.232   1.533
95616SOL    HW288623   8.442   5.165   1.397
95617SOL     OW88624   0.954   1.204  14.267
95617SOL    HW188625   1.022   1.158  14.315
95617SOL    HW288626   0.952   1.162  14.181
95618SOL     OW88627  13.987   3.254   3.870
95618SOL    HW188628  14.080   3.268   3.853
95618SOL    HW288629  13.962   3.184   3.809
95619SOL     OW88630   8.501  11.698   1.032
95619SOL    HW188631   8.412  11.665   1.044
95619SOL    HW288632   8.523  11.675   0.942
95620SOL     OW88633   3.424   9.142   4.719
95620SOL    HW188634   3.471   9.202   4.660
95620SOL    HW288635   3.336   9.136   4.681
95621SOL     OW88636   1.372   4.114  10.877
95621SOL    HW188637   1.311   4.095  10.948
95621SOL    HW288638   1.415   4.195  10.904
95622SOL     OW88639   7.961  13.709   5.233
95622SOL    HW188640   7.942  13.708   5.139
95622SOL    HW288641   7.888  13.757   5.272
95623SOL     OW88642  10.832   8.630   2.848
95623SOL    HW188643  10.851   8.653   2.939
95623SOL    HW288644  10.737   8.616   2.846
95624SOL     OW88645   8.730   7.101  12.184
95624SOL    HW188646   8.673   7.087  12.260
95624SOL    HW288647   8.679   7.159  12.127
95625SOL     OW88648  13.410   4.781  13.829
95625SOL    HW188649  13.441   4.705  13.878
95625SOL    HW288650  13.392   4.747  13.741
95626SOL     OW88651  10.288  12.828   5.307
95626SOL    HW188652  10.207  12.860   5.268
95626SOL    HW288653  10.262  12.789   5.390
95627SOL     OW88654   5.813   4.130  10.623
95627SOL    HW188655   5.860   4.212  10.635
95627SOL    HW288656   5.853   4.071  10.687
95628SOL     OW88657  10.732   5.779   4.984
95628SOL    HW188658  10.773   5.717   4.923
95628SOL    HW288659  10.685   5.841   4.928
95629SOL     OW88660   7.854   7.243  13.169
95629SOL    HW188661   7.939   7.232  13.212
95629SOL    HW288662   7.809   7.160  13.182
95630SOL     OW88663  10.846   4.743  13.373
95630SOL    HW188664  10.795   4.737  13.292
95630SOL    HW288665  10.806   4.680  13.432
95631SOL     OW88666   7.385  13.555   0.724
95631SOL    HW188667   7.405  13.629   0.666
95631SOL    HW288668   7.338  13.595   0.797
95632SOL     OW88669   0.763  10.380   2.399
95632SOL    HW188670   0.671  10.361   2.379
95632SOL    HW288671   0.797  10.297   2.433
95633SOL     OW88672   9.441   5.600  11.770
95633SOL    HW188673   9.392   5.673  11.808
95633SOL    HW288674   9.438   5.615  11.676
95634SOL     OW88675   1.800  10.888   6.004
95634SOL    HW188676   1.718  10.862   6.046
95634SOL    HW288677   1.786  10.979   5.979
95635SOL     OW88678  13.538   0.334   8.205
95635SOL    HW188679  13.511   0.384   8.282
95635SOL    HW288680  13.480   0.257   8.205
95636SOL     OW88681   9.460   6.592   0.606
95636SOL    HW188682   9.414   6.585   0.523
95636SOL    HW288683   9.552   6.578   0.585
95637SOL     OW88684  11.153  14.569   0.760
95637SOL    HW188685  11.108  14.580   0.844
95637SOL    HW288686  11.165  14.474   0.752
95638SOL     OW88687   6.714   0.430   5.097
95638SOL    HW188688   6.785   0.377   5.063
95638SOL    HW288689   6.634   0.393   5.058
95639SOL     OW88690   9.047   4.233   3.677
95639SOL    HW188691   9.007   4.303   3.624
95639SOL    HW288692   9.137   4.262   3.690
95640SOL     OW88693   3.868   7.472   2.324
95640SOL    HW188694   3.948   7.464   2.377
95640SOL    HW288695   3.894   7.525   2.249
95641SOL     OW88696   4.257   7.090  12.009
95641SOL    HW188697   4.266   7.022  11.941
95641SOL    HW288698   4.173   7.069  12.051
95642SOL     OW88699   0.238  10.161  10.212
95642SOL    HW188700   0.272  10.251  10.209
95642SOL    HW288701   0.183  10.153  10.134
95643SOL     OW88702   2.428   5.276   3.193
95643SOL    HW188703   2.416   5.342   3.262
95643SOL    HW288704   2.477   5.206   3.236
95644SOL     OW88705  13.104   1.222   1.634
95644SOL    HW188706  13.034   1.211   1.570
95644SOL    HW288707  13.098   1.314   1.660
95645SOL     OW88708  13.771   4.110  11.992
95645SOL    HW188709  13.821   4.130  12.071
95645SOL    HW288710  13.825   4.046  11.945
95646SOL     OW88711   6.935   2.828   3.543
95646SOL    HW188712   6.858   2.884   3.551
95646SOL    HW288713   6.900   2.739   3.535
95647SOL     OW88714   5.913   1.727   7.179
95647SOL    HW188715   5.959   1.764   7.103
95647SOL    HW288716   5.891   1.802   7.233
95648SOL     OW88717   9.308   5.976   9.953
95648SOL    HW188718   9.219   5.944   9.969
95648SOL    HW288719   9.314   6.057  10.003
95649SOL     OW88720   5.418   4.143   7.785
95649SOL    HW188721   5.501   4.154   7.739
95649SOL    HW288722   5.435   4.074   7.849
95650SOL     OW88723   4.632   7.991   2.480
95650SOL    HW188724   4.700   7.962   2.541
95650SOL    HW288725   4.560   7.929   2.492
95651SOL     OW88726   5.258  12.021  13.482
95651SOL    HW188727   5.163  12.027  13.470
95651SOL    HW288728   5.269  12.007  13.576
95652SOL     OW88729  11.205   6.091   3.262
95652SOL    HW188730  11.186   6.164   3.321
95652SOL    HW288731  11.169   6.117   3.178
95653SOL     OW88732   8.747  10.560   3.119
95653SOL    HW188733   8.842  10.564   3.123
95653SOL    HW288734   8.723  10.490   3.180
95654SOL     OW88735   2.070  13.048  14.710
95654SOL    HW188736   1.999  13.022  14.769
95654SOL    HW288737   2.126  12.971  14.704
95655SOL     OW88738   9.947  11.402  14.839
95655SOL    HW188739  10.013  11.464  14.868
95655SOL    HW288740   9.866  11.433  14.879
95656SOL     OW88741  13.830   9.592  12.194
95656SOL    HW188742  13.901   9.571  12.255
95656SOL    HW288743  13.827   9.688  12.193
95657SOL     OW88744  10.395   3.748  12.845
95657SOL    HW188745  10.434   3.698  12.917
95657SOL    HW288746  10.470   3.790  12.803
95658SOL     OW88747   2.059  13.712   4.593
95658SOL    HW188748   2.076  13.703   4.687
95658SOL    HW288749   2.128  13.660   4.551
95659SOL     OW88750  11.109   4.082   5.440
95659SOL    HW188751  11.102   4.077   5.345
95659SOL    HW288752  11.107   3.991   5.468
95660SOL     OW88753   8.219   9.765   3.818
95660SOL    HW188754   8.255   9.695   3.763
95660SOL    HW288755   8.268   9.843   3.793
95661SOL     OW88756  10.850   7.071   0.772
95661SOL    HW188757  10.919   7.057   0.707
95661SOL    HW288758  10.855   6.994   0.829
95662SOL     OW88759  12.439  10.206  11.661
95662SOL    HW188760  12.417  10.173  11.749
95662SOL    HW288761  12.387  10.151  11.602
95663SOL     OW88762   6.258  14.560   1.926
95663SOL    HW188763   6.338  14.507   1.932
95663SOL    HW288764   6.285  14.641   1.882
95664SOL     OW88765   0.309   1.390   7.075
95664SOL    HW188766   0.316   1.485   7.083
95664SOL    HW288767   0.396   1.357   7.098
95665SOL     OW88768   9.072   3.827  10.613
95665SOL    HW188769   9.130   3.897  10.584
95665SOL    HW288770   9.100   3.751  10.562
95666SOL     OW88771  11.669   7.615   3.493
95666SOL    HW188772  11.658   7.554   3.420
95666SOL    HW288773  11.763   7.616   3.509
95667SOL     OW88774   9.984   6.405   4.977
95667SOL    HW188775   9.994   6.463   5.052
95667SOL    HW288776  10.017   6.320   5.007
95668SOL     OW88777   2.998   7.575   2.455
95668SOL    HW188778   3.066   7.560   2.520
95668SOL    HW288779   2.917   7.547   2.499
95669SOL     OW88780  14.022   0.542  12.873
95669SOL    HW188781  14.067   0.555  12.956
95669SOL    HW288782  14.035   0.625  12.826
95670SOL     OW88783   2.086  13.671  14.194
95670SOL    HW188784   2.037  13.742  14.153
95670SOL    HW288785   2.130  13.712  14.269
95671SOL     OW88786   5.813  10.593   4.024
95671SOL    HW188787   5.832  10.501   4.004
95671SOL    HW288788   5.862  10.610   4.104
95672SOL     OW88789  14.098  13.765   7.511
95672SOL    HW188790  14.028  13.713   7.552
95672SOL    HW288791  14.179  13.723   7.541
95673SOL     OW88792  14.012  13.216  13.163
95673SOL    HW188793  13.994  13.135  13.116
95673SOL    HW288794  13.939  13.225  13.224
95674SOL     OW88795  10.110  14.210  13.445
95674SOL    HW188796  10.122  14.305  13.457
95674SOL    HW288797  10.046  14.203  13.375
95675SOL     OW88798  11.908   2.211   2.825
95675SOL    HW188799  11.947   2.179   2.744
95675SOL    HW288800  11.956   2.292   2.844
95676SOL     OW88801   4.729   8.790   6.843
95676SOL    HW188802   4.780   8.734   6.785
95676SOL    HW288803   4.786   8.865   6.861
95677SOL     OW88804   6.613   7.111  12.016
95677SOL    HW188805   6.581   7.201  12.011
95677SOL    HW288806   6.687   7.109  11.955
95678SOL     OW88807   8.085  14.039   3.303
95678SOL    HW188808   8.173  14.002   3.300
95678SOL    HW288809   8.029  13.970   3.269
95679SOL     OW88810   5.809   3.333   4.650
95679SOL    HW188811   5.792   3.415   4.605
95679SOL    HW288812   5.862   3.357   4.726
95680SOL     OW88813  11.192   4.550   4.985
95680SOL    HW188814  11.187   4.525   4.893
95680SOL    HW288815  11.108   4.593   5.002
95681SOL     OW88816  11.844  14.361   8.098
95681SOL    HW188817  11.922  14.321   8.059
95681SOL    HW288818  11.795  14.288   8.134
95682SOL     OW88819   0.259  13.823   2.067
95682SOL    HW188820   0.329  13.772   2.027
95682SOL    HW288821   0.224  13.766   2.136
95683SOL     OW88822   9.818   1.979   6.270
95683SOL    HW188823   9.905   2.002   6.238
95683SOL    HW288824   9.808   2.028   6.351
95684SOL     OW88825   3.542  13.558  13.746
95684SOL    HW188826   3.589  13.550  13.829
95684SOL    HW288827   3.586  13.629  13.701
95685SOL     OW88828  11.755   8.235  13.620
95685SOL    HW188829  11.799   8.237  13.535
95685SOL    HW288830  11.713   8.321  13.627
95686SOL     OW88831   1.822   4.200  12.133
95686SOL    HW188832   1.787   4.248  12.058
95686SOL    HW288833   1.749   4.146  12.163
95687SOL     OW88834  10.909  11.487  14.350
95687SOL    HW188835  10.909  11.391  14.346
95687SOL    HW288836  10.971  11.514  14.282
95688SOL     OW88837   0.932   3.296   2.883
95688SOL    HW188838   0.875   3.371   2.866
95688SOL    HW288839   0.963   3.270   2.797
95689SOL     OW88840   8.599   5.870   9.947
95689SOL    HW188841   8.671   5.919   9.908
95689SOL    HW288842   8.542   5.936   9.986
95690SOL     OW88843  14.577   3.831  13.771
95690SOL    HW188844  14.664   3.861  13.799
95690SOL    HW288845  14.549   3.770  13.839
95691SOL     OW88846  13.936   7.735   7.689
95691SOL    HW188847  13.978   7.683   7.758
95691SOL    HW288848  13.848   7.698   7.682
95692SOL     OW88849   4.515   9.020   7.434
95692SOL    HW188850   4.598   8.998   7.392
95692SOL    HW288851   4.505   8.954   7.502
95693SOL     OW88852  11.562   6.881  10.440
95693SOL    HW188853  11.535   6.879  10.348
95693SOL    HW288854  11.509   6.950  10.479
95694SOL     OW88855   3.087   7.596  14.478
95694SOL    HW188856   3.164   7.581  14.533
95694SOL    HW288857   3.014   7.602  14.539
95695SOL     OW88858  12.240   0.146   4.736
95695SOL    HW188859  12.184   0.209   4.781
95695SOL    HW288860  12.201   0.137   4.649
95696SOL     OW88861   0.743   4.359   4.954
95696SOL    HW188862   0.742   4.303   5.032
95696SOL    HW288863   0.664   4.335   4.906
95697SOL     OW88864   4.214  14.600   8.810
95697SOL    HW188865   4.266  14.527   8.777
95697SOL    HW288866   4.223  14.595   8.905
95698SOL     OW88867  11.939   1.961   9.526
95698SOL    HW188868  12.025   1.960   9.482
95698SOL    HW288869  11.926   2.053   9.550
95699SOL     OW88870   1.141  10.026   1.844
95699SOL    HW188871   1.087   9.947   1.843
95699SOL    HW288872   1.206  10.011   1.776
95700SOL     OW88873  14.473   5.375   9.767
95700SOL    HW188874  14.476   5.450   9.708
95700SOL    HW288875  14.388   5.382   9.810
95701SOL     OW88876   6.478   3.351   5.044
95701SOL    HW188877   6.471   3.265   5.002
95701SOL    HW288878   6.435   3.410   4.983
95702SOL     OW88879  12.015  10.258   0.185
95702SOL    HW188880  12.110  10.264   0.171
95702SOL    HW288881  12.006  10.199   0.260
95703SOL     OW88882   6.403   0.670   7.459
95703SOL    HW188883   6.463   0.633   7.523
95703SOL    HW288884   6.336   0.602   7.447
95704SOL     OW88885  14.696   8.866   0.854
95704SOL    HW188886  14.739   8.782   0.866
95704SOL    HW288887  14.763   8.921   0.812
95705SOL     OW88888   9.724  11.957   7.245
95705SOL    HW188889   9.662  11.935   7.175
95705SOL    HW288890   9.713  12.052   7.257
95706SOL     OW88891  14.117   8.165  14.707
95706SOL    HW188892  14.031   8.126  14.694
95706SOL    HW288893  14.178   8.103  14.667
95707SOL     OW88894   3.966   1.143  12.909
95707SOL    HW188895   3.971   1.207  12.980
95707SOL    HW288896   4.054   1.141  12.872
95708SOL     OW88897   6.336  14.054   9.698
95708SOL    HW188898   6.255  14.040   9.649
95708SOL    HW288899   6.406  14.029   9.638
95709SOL     OW88900  14.372  12.949   6.133
95709SOL    HW188901  14.453  12.964   6.084
95709SOL    HW288902  14.393  12.973   6.223
95710SOL     OW88903   8.940   0.405   5.900
95710SOL    HW188904   8.936   0.472   5.833
95710SOL    HW288905   9.006   0.437   5.962
95711SOL     OW88906   0.772   3.340  10.338
95711SOL    HW188907   0.750   3.289  10.416
95711SOL    HW288908   0.779   3.275  10.268
95712SOL     OW88909   7.354  10.842   2.248
95712SOL    HW188910   7.283  10.789   2.284
95712SOL    HW288911   7.394  10.786   2.182
95713SOL     OW88912   2.430   9.830   8.721
95713SOL    HW188913   2.353   9.882   8.744
95713SOL    HW288914   2.409   9.742   8.752
95714SOL     OW88915  11.146   1.355   0.700
95714SOL    HW188916  11.161   1.367   0.606
95714SOL    HW288917  11.051   1.363   0.710
95715SOL     OW88918  12.695  13.849   0.069
95715SOL    HW188919  12.672  13.936   0.102
95715SOL    HW288920  12.725  13.865  14.861
95716SOL     OW88921   9.120   5.790   4.006
95716SOL    HW188922   9.068   5.722   3.963
95716SOL    HW288923   9.094   5.786   4.098
95717SOL     OW88924  10.944   6.045  10.439
95717SOL    HW188925  10.973   6.043  10.530
95717SOL    HW288926  10.943   6.138  10.416
95718SOL     OW88927  10.005  14.453  11.061
95718SOL    HW188928  10.022  14.452  10.967
95718SOL    HW288929   9.932  14.391  11.073
95719SOL     OW88930   4.988   0.696   1.758
95719SOL    HW188931   5.051   0.640   1.804
95719SOL    HW288932   5.037   0.729   1.682
95720SOL     OW88933   8.357   3.092  12.232
95720SOL    HW188934   8.317   3.178  12.243
95720SOL    HW288935   8.421   3.103  12.162
95721SOL     OW88936   3.575   8.866   5.254
95721SOL    HW188937   3.485   8.838   5.270
95721SOL    HW288938   3.583   8.949   5.301
95722SOL     OW88939   8.070   6.235  14.448
95722SOL    HW188940   8.008   6.300  14.414
95722SOL    HW288941   8.023   6.151  14.440
95723SOL     OW88942  13.130   6.131   4.897
95723SOL    HW188943  13.209   6.086   4.869
95723SOL    HW288944  13.098   6.080   4.971
95724SOL     OW88945   0.236  12.706   6.590
95724SOL    HW188946   0.294  12.783   6.596
95724SOL    HW288947   0.151  12.738   6.620
95725SOL     OW88948   5.294   4.110   5.606
95725SOL    HW188949   5.316   4.019   5.626
95725SOL    HW288950   5.208   4.123   5.645
95726SOL     OW88951   3.085   8.919   6.255
95726SOL    HW188952   3.047   8.872   6.330
95726SOL    HW288953   3.052   8.873   6.178
95727SOL     OW88954   4.523   4.277   2.644
95727SOL    HW188955   4.615   4.255   2.633
95727SOL    HW288956   4.476   4.211   2.592
95728SOL     OW88957   3.194   1.497   2.856
95728SOL    HW188958   3.192   1.459   2.768
95728SOL    HW288959   3.110   1.541   2.865
95729SOL     OW88960   8.635   7.622  11.227
95729SOL    HW188961   8.688   7.609  11.306
95729SOL    HW288962   8.677   7.568  11.161
95730SOL     OW88963  14.822  11.519   3.056
95730SOL    HW188964  14.816  11.555   3.145
95730SOL    HW288965  14.739  11.544   3.015
95731SOL     OW88966   4.843  11.022  12.484
95731SOL    HW188967   4.819  11.112  12.463
95731SOL    HW288968   4.760  10.975  12.487
95732SOL     OW88969  12.360  14.051  13.791
95732SOL    HW188970  12.448  14.016  13.777
95732SOL    HW288971  12.368  14.106  13.869
95733SOL     OW88972  12.595   2.278  10.838
95733SOL    HW188973  12.631   2.359  10.874
95733SOL    HW288974  12.567   2.301  10.750
95734SOL     OW88975  11.070   0.942  11.430
95734SOL    HW188976  10.994   0.968  11.482
95734SOL    HW288977  11.063   0.994  11.350
95735SOL     OW88978  12.760  10.334   2.831
95735SOL    HW188979  12.828  10.369   2.773
95735SOL    HW288980  12.764  10.391   2.908
95736SOL     OW88981   5.012   8.104   1.760
95736SOL    HW188982   4.937   8.163   1.753
95736SOL    HW288983   5.040   8.091   1.670
95737SOL     OW88984   8.338  14.744   2.062
95737SOL    HW188985   8.352  14.837   2.046
95737SOL    HW288986   8.245  14.730   2.042
95738SOL     OW88987   2.532   8.092   8.219
95738SOL    HW188988   2.463   8.074   8.283
95738SOL    HW288989   2.485   8.110   8.138
95739SOL     OW88990   6.393  14.447   6.775
95739SOL    HW188991   6.438  14.401   6.846
95739SOL    HW288992   6.301  14.422   6.784
95740SOL     OW88993  12.131  12.687   2.807
95740SOL    HW188994  12.193  12.759   2.796
95740SOL    HW288995  12.082  12.685   2.725
95741SOL     OW88996   7.919   0.358   1.472
95741SOL    HW188997   7.863   0.280   1.477
95741SOL    HW288998   7.858   0.430   1.457
95742SOL     OW88999  10.127  11.363   3.045
95742SOL    HW189000  10.134  11.279   3.090
95742SOL    HW289001  10.034  11.371   3.025
95743SOL     OW89002   5.590   9.522  10.431
95743SOL    HW189003   5.621   9.490  10.516
95743SOL    HW289004   5.608   9.450  10.370
95744SOL     OW89005   1.107   5.496  14.380
95744SOL    HW189006   1.134   5.421  14.327
95744SOL    HW289007   1.093   5.460  14.467
95745SOL     OW89008  12.257  11.773   7.771
95745SOL    HW189009  12.188  11.719   7.734
95745SOL    HW289010  12.322  11.710   7.803
95746SOL     OW89011   3.763  12.472   1.058
95746SOL    HW189012   3.679  12.516   1.074
95746SOL    HW289013   3.762  12.453   0.964
95747SOL     OW89014   6.509   2.884   4.511
95747SOL    HW189015   6.443   2.954   4.518
95747SOL    HW289016   6.592   2.930   4.499
95748SOL     OW89017   6.567   1.671   5.018
95748SOL    HW189018   6.583   1.599   5.079
95748SOL    HW289019   6.477   1.698   5.037
95749SOL     OW89020  11.656   3.275   8.839
95749SOL    HW189021  11.609   3.250   8.759
95749SOL    HW289022  11.589   3.278   8.907
95750SOL     OW89023   9.226   6.029   4.459
95750SOL    HW189024   9.159   6.037   4.526
95750SOL    HW289025   9.288   5.965   4.496
95751SOL     OW89026  13.361   2.345   8.848
95751SOL    HW189027  13.312   2.297   8.914
95751SOL    HW289028  13.316   2.429   8.841
95752SOL     OW89029   0.782  14.575   5.202
95752SOL    HW189030   0.780  14.536   5.115
95752SOL    HW289031   0.812  14.504   5.259
95753SOL     OW89032   1.366   1.621   1.207
95753SOL    HW189033   1.437   1.684   1.222
95753SOL    HW289034   1.286   1.671   1.221
95754SOL     OW89035   7.588  14.235  10.271
95754SOL    HW189036   7.648  14.176  10.225
95754SOL    HW289037   7.617  14.322  10.245
95755SOL     OW89038  14.831  14.662   5.871
95755SOL    HW189039  14.829  14.736   5.810
95755SOL    HW289040   0.021  14.683   5.932
95756SOL     OW89041   7.644   6.224  14.444
95756SOL    HW189042   7.608   6.263  14.364
95756SOL    HW289043   7.654   6.131  14.423
95757SOL     OW89044  12.337  13.750   8.773
95757SOL    HW189045  12.243  13.760   8.790
95757SOL    HW289046  12.372  13.839   8.781
95758SOL     OW89047   2.763   1.302   6.421
95758SOL    HW189048   2.836   1.268   6.473
95758SOL    HW289049   2.796   1.301   6.331
95759SOL     OW89050   3.946  14.756  12.134
95759SOL    HW189051   3.872  14.806  12.169
95759SOL    HW289052   4.015  14.766  12.200
95760SOL     OW89053   6.776  14.815   4.322
95760SOL    HW189054   6.703  14.756   4.341
95760SOL    HW289055   6.854  14.760   4.333
95761SOL     OW89056  10.903   9.224  12.653
95761SOL    HW189057  10.808   9.229  12.665
95761SOL    HW289058  10.939   9.245  12.739
95762SOL     OW89059   9.423  12.188   3.198
95762SOL    HW189060   9.427  12.233   3.113
95762SOL    HW289061   9.330  12.185   3.219
95763SOL     OW89062   2.877  13.592  11.703
95763SOL    HW189063   2.910  13.580  11.792
95763SOL    HW289064   2.795  13.640  11.715
95764SOL     OW89065   4.360   1.239   5.074
95764SOL    HW189066   4.400   1.194   5.149
95764SOL    HW289067   4.278   1.192   5.059
95765SOL     OW89068  10.813   4.481   4.628
95765SOL    HW189069  10.798   4.458   4.720
95765SOL    HW289070  10.828   4.397   4.585
95766SOL     OW89071  14.860  12.416   6.300
95766SOL    HW189072  14.854  12.454   6.388
95766SOL    HW289073  14.859  12.491   6.241
95767SOL     OW89074   1.679  12.426  10.454
95767SOL    HW189075   1.715  12.388  10.534
95767SOL    HW289076   1.643  12.351  10.407
95768SOL     OW89077  14.287   9.920  13.075
95768SOL    HW189078  14.213   9.901  13.132
95768SOL    HW289079  14.272  10.009  13.044
95769SOL     OW89080   8.539  14.446   6.702
95769SOL    HW189081   8.542  14.427   6.796
95769SOL    HW289082   8.450  14.425   6.676
95770SOL     OW89083  12.557   4.421   6.705
95770SOL    HW189084  12.644   4.389   6.679
95770SOL    HW289085  12.500   4.398   6.632
95771SOL     OW89086   6.136   1.579  11.280
95771SOL    HW189087   6.127   1.620  11.366
95771SOL    HW289088   6.180   1.645  11.226
95772SOL     OW89089   3.167   6.633  11.439
95772SOL    HW189090   3.081   6.609  11.403
95772SOL    HW289091   3.212   6.677  11.366
95773SOL     OW89092   7.385   0.249  13.584
95773SOL    HW189093   7.454   0.239  13.649
95773SOL    HW289094   7.361   0.342  13.589
95774SOL     OW89095   0.106   5.865   9.469
95774SOL    HW189096   0.080   5.947   9.429
95774SOL    HW289097   0.202   5.871   9.476
95775SOL     OW89098   9.625   8.815   9.719
95775SOL    HW189099   9.552   8.754   9.727
95775SOL    HW289100   9.598   8.891   9.770
95776SOL     OW89101   7.086   3.416  14.453
95776SOL    HW189102   7.142   3.376  14.387
95776SOL    HW289103   7.052   3.342  14.504
95777SOL     OW89104   2.125   3.900   7.506
95777SOL    HW189105   2.220   3.906   7.496
95777SOL    HW289106   2.095   3.857   7.425
95778SOL     OW89107   7.425   4.006  10.484
95778SOL    HW189108   7.348   3.949  10.480
95778SOL    HW289109   7.487   3.968  10.422
95779SOL     OW89110   9.460   4.335   4.830
95779SOL    HW189111   9.413   4.293   4.903
95779SOL    HW289112   9.400   4.402   4.799
95780SOL     OW89113  13.374   0.681  11.054
95780SOL    HW189114  13.287   0.709  11.083
95780SOL    HW289115  13.435   0.735  11.104
95781SOL     OW89116   1.522  12.705   3.207
95781SOL    HW189117   1.531  12.627   3.153
95781SOL    HW289118   1.515  12.777   3.145
95782SOL     OW89119  10.359   4.690   0.598
95782SOL    HW189120  10.428   4.627   0.617
95782SOL    HW289121  10.278   4.639   0.602
95783SOL     OW89122   5.688   5.919  11.870
95783SOL    HW189123   5.597   5.948  11.869
95783SOL    HW289124   5.712   5.907  11.778
95784SOL     OW89125   5.856  11.809   0.853
95784SOL    HW189126   5.846  11.724   0.810
95784SOL    HW289127   5.802  11.869   0.801
95785SOL     OW89128   7.683   3.592  12.018
95785SOL    HW189129   7.682   3.612  12.112
95785SOL    HW289130   7.775   3.595  11.994
95786SOL     OW89131   1.588  12.876   9.327
95786SOL    HW189132   1.504  12.869   9.282
95786SOL    HW289133   1.579  12.952   9.384
95787SOL     OW89134   6.522   1.192  13.443
95787SOL    HW189135   6.565   1.206  13.527
95787SOL    HW289136   6.590   1.206  13.377
95788SOL     OW89137   1.347   0.488   1.134
95788SOL    HW189138   1.371   0.579   1.114
95788SOL    HW289139   1.295   0.460   1.059
95789SOL     OW89140   9.474   3.024   0.543
95789SOL    HW189141   9.472   3.112   0.581
95789SOL    HW289142   9.547   2.981   0.587
95790SOL     OW89143  13.024   1.932   0.732
95790SOL    HW189144  13.047   1.843   0.758
95790SOL    HW289145  12.928   1.934   0.734
95791SOL     OW89146  14.806   8.164   1.724
95791SOL    HW189147  14.851   8.147   1.807
95791SOL    HW289148  14.783   8.077   1.691
95792SOL     OW89149  12.950   4.965  10.611
95792SOL    HW189150  12.922   4.917  10.533
95792SOL    HW289151  12.984   4.897  10.669
95793SOL     OW89152   8.906   3.463  11.292
95793SOL    HW189153   8.881   3.460  11.199
95793SOL    HW289154   8.847   3.403  11.335
95794SOL     OW89155  14.881  10.483   1.054
95794SOL    HW189156   0.055  10.406   1.039
95794SOL    HW289157  14.800  10.447   1.091
95795SOL     OW89158   6.501   4.345   6.738
95795SOL    HW189159   6.500   4.258   6.778
95795SOL    HW289160   6.578   4.388   6.774
95796SOL     OW89161   3.908   1.815   6.063
95796SOL    HW189162   3.813   1.819   6.052
95796SOL    HW289163   3.935   1.737   6.014
95797SOL     OW89164  13.168   4.199   8.708
95797SOL    HW189165  13.134   4.173   8.793
95797SOL    HW289166  13.093   4.236   8.662
95798SOL     OW89167  13.894   4.662   8.877
95798SOL    HW189168  13.953   4.586   8.876
95798SOL    HW289169  13.950   4.736   8.852
95799SOL     OW89170   1.332  10.885   1.415
95799SOL    HW189171   1.337  10.914   1.323
95799SOL    HW289172   1.423  10.865   1.439
95800SOL     OW89173  13.094   5.493   1.305
95800SOL    HW189174  13.083   5.401   1.280
95800SOL    HW289175  13.050   5.542   1.235
95801SOL     OW89176   9.493  14.184   7.671
95801SOL    HW189177   9.585  14.177   7.697
95801SOL    HW289178   9.485  14.271   7.633
95802SOL     OW89179  10.534   7.103   8.184
95802SOL    HW189180  10.440   7.102   8.203
95802SOL    HW289181  10.573   7.057   8.258
95803SOL     OW89182  10.789  12.586   9.757
95803SOL    HW189183  10.879  12.584   9.726
95803SOL    HW289184  10.776  12.675   9.789
95804SOL     OW89185   8.226  11.892  11.568
95804SOL    HW189186   8.172  11.971  11.576
95804SOL    HW289187   8.219  11.850  11.654
95805SOL     OW89188   7.692   3.313  13.729
95805SOL    HW189189   7.686   3.343  13.638
95805SOL    HW289190   7.779   3.339  13.757
95806SOL     OW89191   3.442  12.694  13.368
95806SOL    HW189192   3.483  12.641  13.436
95806SOL    HW289193   3.373  12.742  13.413
95807SOL     OW89194   8.934   5.261  11.999
95807SOL    HW189195   8.986   5.310  11.936
95807SOL    HW289196   8.994   5.198  12.037
95808SOL     OW89197   4.541   7.756   8.303
95808SOL    HW189198   4.493   7.833   8.272
95808SOL    HW289199   4.621   7.755   8.250
95809SOL     OW89200   8.312   2.463   8.307
95809SOL    HW189201   8.302   2.456   8.402
95809SOL    HW289202   8.380   2.531   8.296
95810SOL     OW89203   9.080   2.886   5.970
95810SOL    HW189204   9.125   2.952   6.021
95810SOL    HW289205   8.998   2.928   5.944
95811SOL     OW89206  10.241   7.198   0.927
95811SOL    HW189207  10.154   7.235   0.917
95811SOL    HW289208  10.293   7.240   0.858
95812SOL     OW89209   8.272   6.513   5.482
95812SOL    HW189210   8.274   6.577   5.411
95812SOL    HW289211   8.255   6.565   5.561
95813SOL     OW89212   4.360   4.035   0.536
95813SOL    HW189213   4.352   3.949   0.579
95813SOL    HW289214   4.348   4.016   0.443
95814SOL     OW89215   2.574   9.655   0.508
95814SOL    HW189216   2.549   9.563   0.513
95814SOL    HW289217   2.653   9.662   0.562
95815SOL     OW89218  10.483   8.501   6.174
95815SOL    HW189219  10.513   8.449   6.248
95815SOL    HW289220  10.404   8.456   6.144
95816SOL     OW89221  13.786  13.161   1.625
95816SOL    HW189222  13.865  13.165   1.571
95816SOL    HW289223  13.748  13.248   1.619
95817SOL     OW89224   0.796  13.546  13.220
95817SOL    HW189225   0.791  13.639  13.198
95817SOL    HW289226   0.889  13.525  13.217
95818SOL     OW89227  12.806  14.834   7.993
95818SOL    HW189228  12.747  14.867   8.061
95818SOL    HW289229  12.781  14.742   7.981
95819SOL     OW89230  12.230   7.710   9.531
95819SOL    HW189231  12.186   7.753   9.457
95819SOL    HW289232  12.266   7.782   9.583
95820SOL     OW89233  12.690   5.818   7.594
95820SOL    HW189234  12.597   5.835   7.608
95820SOL    HW289235  12.698   5.723   7.598
95821SOL     OW89236   4.910  14.632  14.050
95821SOL    HW189237   4.996  14.647  14.089
95821SOL    HW289238   4.900  14.537  14.049
95822SOL     OW89239  12.963  14.769   4.571
95822SOL    HW189240  13.039  14.713   4.556
95822SOL    HW289241  13.001  14.852   4.602
95823SOL     OW89242   9.049   8.884   7.622
95823SOL    HW189243   9.026   8.863   7.532
95823SOL    HW289244   9.026   8.806   7.672
95824SOL     OW89245   8.200   6.397   6.788
95824SOL    HW189246   8.287   6.436   6.779
95824SOL    HW289247   8.209   6.309   6.753
95825SOL     OW89248   1.571  10.783  12.655
95825SOL    HW189249   1.614  10.727  12.720
95825SOL    HW289250   1.557  10.725  12.580
95826SOL     OW89251   1.541   7.780   0.415
95826SOL    HW189252   1.477   7.766   0.345
95826SOL    HW289253   1.622   7.802   0.370
95827SOL     OW89254  14.081  10.880   4.457
95827SOL    HW189255  14.149  10.945   4.438
95827SOL    HW289256  14.057  10.896   4.548
95828SOL     OW89257   3.164   4.342   0.884
95828SOL    HW189258   3.075   4.306   0.876
95828SOL    HW289259   3.164   4.387   0.968
95829SOL     OW89260  11.432   6.742   5.068
95829SOL    HW189261  11.352   6.733   5.120
95829SOL    HW289262  11.498   6.771   5.131
95830SOL     OW89263  12.165  11.605  11.707
95830SOL    HW189264  12.133  11.522  11.670
95830SOL    HW289265  12.220  11.642  11.638
95831SOL     OW89266   8.689  11.510  13.259
95831SOL    HW189267   8.684  11.417  13.280
95831SOL    HW289268   8.678  11.555  13.343
95832SOL     OW89269   6.755  13.580   7.773
95832SOL    HW189270   6.779  13.494   7.807
95832SOL    HW289271   6.734  13.565   7.681
95833SOL     OW89272   2.901  11.704   0.919
95833SOL    HW189273   2.897  11.639   0.990
95833SOL    HW289274   2.909  11.652   0.839
95834SOL     OW89275  14.092   8.412  10.690
95834SOL    HW189276  14.007   8.392  10.730
95834SOL    HW289277  14.072   8.477  10.623
95835SOL     OW89278  12.775   0.694   2.015
95835SOL    HW189279  12.862   0.682   1.976
95835SOL    HW289280  12.788   0.677   2.108
95836SOL     OW89281  10.867   5.205  10.288
95836SOL    HW189282  10.864   5.291  10.246
95836SOL    HW289283  10.780   5.168  10.272
95837SOL     OW89284  14.123   5.020   7.463
95837SOL    HW189285  14.113   4.946   7.522
95837SOL    HW289286  14.084   5.094   7.509
95838SOL     OW89287   8.971   2.997  11.644
95838SOL    HW189288   9.009   2.929  11.700
95838SOL    HW289289   9.030   3.001  11.568
95839SOL     OW89290  10.453  13.925   9.673
95839SOL    HW189291  10.512  13.866   9.625
95839SOL    HW289292  10.490  13.928   9.762
95840SOL     OW89293  12.604   7.556  10.918
95840SOL    HW189294  12.611   7.552  10.823
95840SOL    HW289295  12.550   7.480  10.941
95841SOL     OW89296   4.147  13.675   6.908
95841SOL    HW189297   4.089  13.736   6.955
95841SOL    HW289298   4.233  13.717   6.913
95842SOL     OW89299  14.199   9.455   2.227
95842SOL    HW189300  14.159   9.377   2.267
95842SOL    HW289301  14.277   9.421   2.184
95843SOL     OW89302   8.890  14.828  12.703
95843SOL    HW189303   8.935   0.030  12.715
95843SOL    HW289304   8.961  14.763  12.698
95844SOL     OW89305   9.377   2.125  11.106
95844SOL    HW189306   9.387   2.186  11.034
95844SOL    HW289307   9.321   2.172  11.169
95845SOL     OW89308   1.315  11.188   2.844
95845SOL    HW189309   1.396  11.140   2.858
95845SOL    HW289310   1.257  11.126   2.801
95846SOL     OW89311   1.661   5.046  10.504
95846SOL    HW189312   1.572   5.081  10.492
95846SOL    HW289313   1.709   5.079  10.428
95847SOL     OW89314  10.244   3.994   5.543
95847SOL    HW189315  10.326   4.033   5.572
95847SOL    HW289316  10.263   3.900   5.537
95848SOL     OW89317  13.147   8.055   3.239
95848SOL    HW189318  13.073   8.023   3.292
95848SOL    HW289319  13.208   7.982   3.237
95849SOL     OW89320   7.567   0.992   2.089
95849SOL    HW189321   7.645   1.028   2.130
95849SOL    HW289322   7.557   0.905   2.128
95850SOL     OW89323  10.544  12.719  13.847
95850SOL    HW189324  10.587  12.650  13.898
95850SOL    HW289325  10.587  12.715  13.762
95851SOL     OW89326  13.203   2.347   1.731
95851SOL    HW189327  13.158   2.330   1.814
95851SOL    HW289328  13.177   2.274   1.675
95852SOL     OW89329   5.198   6.183   6.075
95852SOL    HW189330   5.241   6.107   6.037
95852SOL    HW289331   5.246   6.258   6.039
95853SOL     OW89332   1.549   8.771   5.017
95853SOL    HW189333   1.528   8.855   5.059
95853SOL    HW289334   1.501   8.773   4.935
95854SOL     OW89335   5.931   5.502   2.657
95854SOL    HW189336   6.010   5.473   2.703
95854SOL    HW289337   5.871   5.428   2.662
95855SOL     OW89338  11.896  11.873   7.251
95855SOL    HW189339  11.854  11.907   7.330
95855SOL    HW289340  11.841  11.902   7.179
95856SOL     OW89341   7.984   1.473  14.392
95856SOL    HW189342   7.920   1.416  14.349
95856SOL    HW289343   8.055   1.414  14.418
95857SOL     OW89344  12.814   6.875   6.566
95857SOL    HW189345  12.858   6.839   6.488
95857SOL    HW289346  12.760   6.802   6.597
95858SOL     OW89347  10.080   4.811   2.471
95858SOL    HW189348  10.089   4.781   2.562
95858SOL    HW289349  10.032   4.740   2.427
95859SOL     OW89350  11.940   9.676   7.142
95859SOL    HW189351  11.867   9.720   7.186
95859SOL    HW289352  11.900   9.602   7.096
95860SOL     OW89353  13.479   7.945  14.041
95860SOL    HW189354  13.525   8.018  14.082
95860SOL    HW289355  13.396   7.982  14.010
95861SOL     OW89356  10.344  10.023   7.812
95861SOL    HW189357  10.425  10.018   7.762
95861SOL    HW289358  10.307  10.108   7.789
95862SOL     OW89359   6.867  13.930   8.277
95862SOL    HW189360   6.845  13.887   8.194
95862SOL    HW289361   6.909  13.861   8.329
95863SOL     OW89362   5.521   6.291  14.200
95863SOL    HW189363   5.529   6.323  14.110
95863SOL    HW289364   5.609   6.301  14.237
95864SOL     OW89365   0.391  13.096   7.901
95864SOL    HW189366   0.349  13.133   7.823
95864SOL    HW289367   0.458  13.038   7.868
95865SOL     OW89368  12.893   4.251   8.665
95865SOL    HW189369  12.919   4.172   8.712
95865SOL    HW289370  12.853   4.306   8.733
95866SOL     OW89371   9.524   3.027   2.228
95866SOL    HW189372   9.532   2.951   2.285
95866SOL    HW289373   9.536   2.993   2.140
95867SOL     OW89374  13.567   3.234   1.431
95867SOL    HW189375  13.493   3.257   1.487
95867SOL    HW289376  13.562   3.139   1.420
95868SOL     OW89377   5.854  13.019   7.292
95868SOL    HW189378   5.866  13.061   7.377
95868SOL    HW289379   5.813  12.934   7.312
95869SOL     OW89380   0.843  12.760   0.218
95869SOL    HW189381   0.846  12.716   0.303
95869SOL    HW289382   0.768  12.819   0.223
95870SOL     OW89383   2.658   6.256   8.314
95870SOL    HW189384   2.630   6.239   8.224
95870SOL    HW289385   2.742   6.212   8.322
95871SOL     OW89386   4.119  13.777   2.380
95871SOL    HW189387   4.195  13.736   2.337
95871SOL    HW289388   4.053  13.782   2.311
95872SOL     OW89389   4.330   2.080  12.194
95872SOL    HW189390   4.414   2.042  12.167
95872SOL    HW289391   4.312   2.041  12.279
95873SOL     OW89392  11.493   5.532  13.878
95873SOL    HW189393  11.537   5.571  13.953
95873SOL    HW289394  11.556   5.469  13.843
95874SOL     OW89395   8.143  12.820   1.144
95874SOL    HW189396   8.175  12.821   1.054
95874SOL    HW289397   8.048  12.828   1.136
95875SOL     OW89398   4.297   4.447   9.464
95875SOL    HW189399   4.283   4.518   9.527
95875SOL    HW289400   4.210   4.420   9.438
95876SOL     OW89401   3.183  14.486   4.123
95876SOL    HW189402   3.196  14.448   4.036
95876SOL    HW289403   3.253  14.447   4.176
95877SOL     OW89404  13.229   0.220  10.802
95877SOL    HW189405  13.135   0.238  10.793
95877SOL    HW289406  13.272   0.298  10.768
95878SOL     OW89407   1.820   0.257  11.154
95878SOL    HW189408   1.795   0.336  11.202
95878SOL    HW289409   1.736   0.215  11.133
95879SOL     OW89410   6.034   0.125  12.894
95879SOL    HW189411   6.064   0.119  12.985
95879SOL    HW289412   6.097   0.072  12.845
95880SOL     OW89413  13.046  14.225   0.862
95880SOL    HW189414  13.091  14.156   0.912
95880SOL    HW289415  13.116  14.269   0.814
95881SOL     OW89416   6.050  13.994   2.699
95881SOL    HW189417   5.970  14.030   2.660
95881SOL    HW289418   6.030  13.902   2.714
95882SOL     OW89419   6.422   6.751   5.941
95882SOL    HW189420   6.346   6.773   5.995
95882SOL    HW289421   6.492   6.732   6.004
95883SOL     OW89422   5.453   8.154   4.295
95883SOL    HW189423   5.532   8.138   4.243
95883SOL    HW289424   5.481   8.140   4.386
95884SOL     OW89425  10.169  12.943   9.337
95884SOL    HW189426  10.168  13.005   9.410
95884SOL    HW289427  10.254  12.900   9.342
95885SOL     OW89428   6.273   1.642   7.822
95885SOL    HW189429   6.270   1.583   7.897
95885SOL    HW289430   6.193   1.694   7.829
95886SOL     OW89431   9.878   7.133   7.219
95886SOL    HW189432   9.942   7.184   7.169
95886SOL    HW289433   9.913   7.044   7.219
95887SOL     OW89434   9.330  12.304   8.827
95887SOL    HW189435   9.340  12.377   8.888
95887SOL    HW289436   9.310  12.345   8.743
95888SOL     OW89437  11.670   3.501  12.743
95888SOL    HW189438  11.679   3.406  12.748
95888SOL    HW289439  11.589   3.520  12.790
95889SOL     OW89440   1.972   1.276   9.222
95889SOL    HW189441   2.044   1.257   9.162
95889SOL    HW289442   2.006   1.345   9.279
95890SOL     OW89443   9.028   4.785   4.929
95890SOL    HW189444   9.080   4.820   4.857
95890SOL    HW289445   8.963   4.729   4.887
95891SOL     OW89446   9.509   0.072  11.215
95891SOL    HW189447   9.603   0.051  11.211
95891SOL    HW289448   9.503   0.159  11.176
95892SOL     OW89449   4.469  14.284  10.187
95892SOL    HW189450   4.407  14.322  10.249
95892SOL    HW289451   4.527  14.230  10.240
95893SOL     OW89452  11.769   5.233   0.355
95893SOL    HW189453  11.831   5.160   0.354
95893SOL    HW289454  11.684   5.192   0.336
95894SOL     OW89455   3.854   2.956  13.057
95894SOL    HW189456   3.909   2.880  13.037
95894SOL    HW289457   3.903   3.031  13.023
95895SOL     OW89458   3.656   8.647   5.784
95895SOL    HW189459   3.593   8.684   5.722
95895SOL    HW289460   3.742   8.674   5.751
95896SOL     OW89461   6.643   3.254   4.374
95896SOL    HW189462   6.627   3.348   4.381
95896SOL    HW289463   6.590   3.225   4.300
95897SOL     OW89464   7.727   0.511   8.728
95897SOL    HW189465   7.662   0.449   8.696
95897SOL    HW289466   7.687   0.549   8.807
95898SOL     OW89467  10.787  14.477  10.542
95898SOL    HW189468  10.820  14.552  10.493
95898SOL    HW289469  10.863  14.444  10.589
95899SOL     OW89470   6.202  13.064  11.366
95899SOL    HW189471   6.199  13.008  11.444
95899SOL    HW289472   6.290  13.049  11.330
95900SOL     OW89473  10.475  14.818   1.958
95900SOL    HW189474  10.389  14.775   1.952
95900SOL    HW289475  10.535  14.757   1.915
95901SOL     OW89476  14.497   0.180  13.433
95901SOL    HW189477  14.469   0.249  13.493
95901SOL    HW289478  14.524   0.108  13.491
95902SOL     OW89479   4.263  14.225   8.692
95902SOL    HW189480   4.169  14.236   8.706
95902SOL    HW289481   4.295  14.183   8.771
95903SOL     OW89482  12.180   9.800   1.781
95903SOL    HW189483  12.203   9.754   1.700
95903SOL    HW289484  12.125   9.739   1.829
95904SOL     OW89485   2.091  12.529   3.981
95904SOL    HW189486   2.008  12.505   3.938
95904SOL    HW289487   2.084  12.623   3.995
95905SOL     OW89488   1.380   8.908   9.325
95905SOL    HW189489   1.345   8.998   9.326
95905SOL    HW289490   1.467   8.916   9.364
95906SOL     OW89491   4.240   5.897   1.440
95906SOL    HW189492   4.230   5.804   1.460
95906SOL    HW289493   4.193   5.910   1.358
95907SOL     OW89494   6.869   3.928  11.957
95907SOL    HW189495   6.878   3.834  11.939
95907SOL    HW289496   6.824   3.963  11.881
95908SOL     OW89497   2.125  12.064  13.711
95908SOL    HW189498   2.156  12.155  13.706
95908SOL    HW289499   2.204  12.011  13.696
95909SOL     OW89500   8.986   7.107   9.107
95909SOL    HW189501   9.036   7.039   9.063
95909SOL    HW289502   9.041   7.185   9.101
95910SOL     OW89503   8.137   3.359   1.256
95910SOL    HW189504   8.209   3.410   1.294
95910SOL    HW289505   8.062   3.418   1.258
95911SOL     OW89506   1.310   4.420  12.973
95911SOL    HW189507   1.332   4.492  13.032
95911SOL    HW289508   1.313   4.460  12.886
95912SOL     OW89509   5.403  10.851  13.013
95912SOL    HW189510   5.461  10.899  12.954
95912SOL    HW289511   5.371  10.777  12.961
95913SOL     OW89512   4.835   7.586   0.259
95913SOL    HW189513   4.900   7.606   0.326
95913SOL    HW289514   4.882   7.593   0.176
95914SOL     OW89515  10.028  14.682   5.431
95914SOL    HW189516   9.971  14.685   5.507
95914SOL    HW289517  10.004  14.760   5.380
95915SOL     OW89518   0.740   9.018  14.096
95915SOL    HW189519   0.806   9.083  14.073
95915SOL    HW289520   0.699   8.996  14.012
95916SOL     OW89521   7.161   9.645   3.385
95916SOL    HW189522   7.203   9.586   3.448
95916SOL    HW289523   7.157   9.729   3.430
95917SOL     OW89524  12.033   5.922  13.620
95917SOL    HW189525  12.090   5.877  13.557
95917SOL    HW289526  11.945   5.906  13.587
95918SOL     OW89527   3.238   0.009   0.981
95918SOL    HW189528   3.290  14.838   0.919
95918SOL    HW289529   3.255  14.850   1.066
95919SOL     OW89530   4.458   3.281  14.331
95919SOL    HW189531   4.532   3.321  14.286
95919SOL    HW289532   4.476   3.187  14.329
95920SOL     OW89533   5.941  13.737  10.761
95920SOL    HW189534   5.986  13.715  10.842
95920SOL    HW289535   5.978  13.822  10.735
95921SOL     OW89536   0.045   2.001   2.358
95921SOL    HW189537   0.104   2.000   2.283
95921SOL    HW289538   0.091   2.053   2.424
95922SOL     OW89539   5.493  14.191  12.860
95922SOL    HW189540   5.417  14.246  12.881
95922SOL    HW289541   5.562  14.254  12.838
95923SOL     OW89542   9.116   8.168   8.214
95923SOL    HW189543   9.049   8.139   8.275
95923SOL    HW289544   9.118   8.100   8.146
95924SOL     OW89545   2.644   2.749   3.056
95924SOL    HW189546   2.694   2.811   3.110
95924SOL    HW289547   2.642   2.790   2.969
95925SOL     OW89548   3.213   3.179   7.910
95925SOL    HW189549   3.181   3.192   7.999
95925SOL    HW289550   3.257   3.261   7.888
95926SOL     OW89551  14.052  12.569   6.946
95926SOL    HW189552  14.023  12.514   6.873
95926SOL    HW289553  14.089  12.646   6.903
95927SOL     OW89554   5.820   2.115  13.150
95927SOL    HW189555   5.772   2.059  13.211
95927SOL    HW289556   5.770   2.110  13.069
95928SOL     OW89557   4.214   8.351   7.598
95928SOL    HW189558   4.119   8.353   7.582
95928SOL    HW289559   4.252   8.389   7.519
95929SOL     OW89560   1.281  12.172   2.065
95929SOL    HW189561   1.216  12.235   2.033
95929SOL    HW289562   1.231  12.113   2.121
95930SOL     OW89563   1.455  11.016   2.417
95930SOL    HW189564   1.413  11.026   2.332
95930SOL    HW289565   1.542  10.980   2.397
95931SOL     OW89566   3.349   3.231   0.171
95931SOL    HW189567   3.346   3.283   0.091
95931SOL    HW289568   3.289   3.159   0.156
95932SOL     OW89569   9.503   1.912  14.553
95932SOL    HW189570   9.484   1.927  14.645
95932SOL    HW289571   9.430   1.951  14.506
95933SOL     OW89572   6.039   3.603   8.435
95933SOL    HW189573   6.102   3.596   8.507
95933SOL    HW289574   5.965   3.651   8.473
95934SOL     OW89575  13.843   8.134   7.960
95934SOL    HW189576  13.922   8.186   7.976
95934SOL    HW289577  13.809   8.168   7.877
95935SOL     OW89578   5.563   1.733   9.707
95935SOL    HW189579   5.522   1.652   9.677
95935SOL    HW289580   5.544   1.796   9.637
95936SOL     OW89581   9.490   3.445   7.693
95936SOL    HW189582   9.485   3.540   7.702
95936SOL    HW289583   9.406   3.413   7.728
95937SOL     OW89584   9.923   7.463   2.849
95937SOL    HW189585   9.987   7.431   2.913
95937SOL    HW289586   9.914   7.391   2.787
95938SOL     OW89587   0.113   6.644  14.382
95938SOL    HW189588   0.029   6.599  14.389
95938SOL    HW289589   0.178   6.575  14.401
95939SOL     OW89590  11.953   8.178  11.483
95939SOL    HW189591  11.988   8.162  11.571
95939SOL    HW289592  11.903   8.099  11.463
95940SOL     OW89593  14.334  12.020   1.596
95940SOL    HW189594  14.308  12.084   1.663
95940SOL    HW289595  14.385  11.955   1.645
95941SOL     OW89596  10.242   9.182  12.376
95941SOL    HW189597  10.190   9.102  12.382
95941SOL    HW289598  10.319   9.164  12.430
95942SOL     OW89599   6.980   1.803   6.904
95942SOL    HW189600   7.020   1.792   6.990
95942SOL    HW289601   6.984   1.898   6.888
95943SOL     OW89602   3.789  10.440   1.515
95943SOL    HW189603   3.774  10.447   1.609
95943SOL    HW289604   3.730  10.370   1.486
95944SOL     OW89605   6.904   2.051   0.618
95944SOL    HW189606   6.903   1.972   0.564
95944SOL    HW289607   6.931   2.121   0.559
95945SOL     OW89608   0.284  11.194  14.467
95945SOL    HW189609   0.264  11.100  14.460
95945SOL    HW289610   0.281  11.211  14.561
95946SOL     OW89611   0.643  14.443   6.222
95946SOL    HW189612   0.624  14.503   6.294
95946SOL    HW289613   0.738  14.444   6.215
95947SOL     OW89614  11.905   0.615  11.690
95947SOL    HW189615  11.857   0.533  11.700
95947SOL    HW289616  11.847   0.681  11.730
95948SOL     OW89617  14.739   2.766  10.338
95948SOL    HW189618  14.832   2.754  10.355
95948SOL    HW289619  14.732   2.854  10.302
95949SOL     OW89620   0.172   4.295  11.121
95949SOL    HW189621   0.099   4.343  11.161
95949SOL    HW289622   0.151   4.203  11.137
95950SOL     OW89623   5.939  13.292  12.430
95950SOL    HW189624   5.988  13.220  12.470
95950SOL    HW289625   5.913  13.258  12.344
95951SOL     OW89626  12.418   3.199   0.712
95951SOL    HW189627  12.438   3.240   0.796
95951SOL    HW289628  12.323   3.186   0.714
95952SOL     OW89629   1.509  10.633  14.450
95952SOL    HW189630   1.589  10.619  14.502
95952SOL    HW289631   1.515  10.724  14.422
95953SOL     OW89632  11.615   3.655   7.175
95953SOL    HW189633  11.654   3.589   7.118
95953SOL    HW289634  11.684   3.719   7.188
95954SOL     OW89635   5.304   7.977  13.333
95954SOL    HW189636   5.229   7.919  13.318
95954SOL    HW289637   5.380   7.919  13.329
95955SOL     OW89638  13.202   6.361   3.003
95955SOL    HW189639  13.297   6.358   3.012
95955SOL    HW289640  13.169   6.316   3.081
95956SOL     OW89641   7.402   7.989   8.870
95956SOL    HW189642   7.389   8.074   8.827
95956SOL    HW289643   7.314   7.956   8.885
95957SOL     OW89644  10.275   3.155  12.843
95957SOL    HW189645  10.253   3.141  12.935
95957SOL    HW289646  10.301   3.247  12.839
95958SOL     OW89647   0.481   8.520  12.676
95958SOL    HW189648   0.472   8.440  12.624
95958SOL    HW289649   0.506   8.489  12.763
95959SOL     OW89650   7.632   2.607  11.421
95959SOL    HW189651   7.704   2.599  11.483
95959SOL    HW289652   7.672   2.595  11.335
95960SOL     OW89653   4.643   6.811   6.546
95960SOL    HW189654   4.674   6.752   6.478
95960SOL    HW289655   4.667   6.898   6.515
95961SOL     OW89656   4.335   2.475   3.168
95961SOL    HW189657   4.295   2.396   3.131
95961SOL    HW289658   4.330   2.463   3.262
95962SOL     OW89659   7.068  11.101  11.742
95962SOL    HW189660   7.084  11.195  11.753
95962SOL    HW289661   6.977  11.089  11.767
95963SOL     OW89662  11.220   4.119  12.880
95963SOL    HW189663  11.158   4.046  12.878
95963SOL    HW289664  11.172   4.189  12.925
95964SOL     OW89665   5.209  12.504   5.075
95964SOL    HW189666   5.233  12.513   4.982
95964SOL    HW289667   5.277  12.448   5.112
95965SOL     OW89668   9.171   2.204   6.601
95965SOL    HW189669   9.082   2.217   6.632
95965SOL    HW289670   9.162   2.188   6.507
95966SOL     OW89671   9.295  11.496   3.484
95966SOL    HW189672   9.344  11.546   3.549
95966SOL    HW289673   9.277  11.559   3.414
95967SOL     OW89674   9.107   4.548  12.717
95967SOL    HW189675   9.096   4.562  12.811
95967SOL    HW289676   9.196   4.513  12.708
95968SOL     OW89677   0.482   1.797  14.176
95968SOL    HW189678   0.566   1.753  14.189
95968SOL    HW289679   0.419   1.741  14.222
95969SOL     OW89680  11.711   8.955   6.009
95969SOL    HW189681  11.672   8.886   6.062
95969SOL    HW289682  11.788   8.914   5.968
95970SOL     OW89683  10.657   7.962   0.391
95970SOL    HW189684  10.749   7.986   0.377
95970SOL    HW289685  10.609   8.044   0.380
95971SOL     OW89686   5.152   8.061   0.505
95971SOL    HW189687   5.144   8.047   0.411
95971SOL    HW289688   5.142   7.974   0.544
95972SOL     OW89689   4.122   2.348   4.103
95972SOL    HW189690   4.155   2.265   4.137
95972SOL    HW289691   4.161   2.356   4.016
95973SOL     OW89692   6.620   8.649   0.123
95973SOL    HW189693   6.562   8.597   0.066
95973SOL    HW289694   6.703   8.601   0.122
95974SOL     OW89695   4.247  10.079   9.436
95974SOL    HW189696   4.228  10.109   9.525
95974SOL    HW289697   4.341  10.060   9.437
95975SOL     OW89698  13.869   2.830   7.994
95975SOL    HW189699  13.892   2.919   8.021
95975SOL    HW289700  13.944   2.777   8.021
95976SOL     OW89701   5.661   5.007   7.615
95976SOL    HW189702   5.729   5.054   7.567
95976SOL    HW289703   5.632   5.069   7.682
95977SOL     OW89704  14.324   8.304   1.353
95977SOL    HW189705  14.405   8.257   1.334
95977SOL    HW289706  14.347   8.397   1.346
95978SOL     OW89707   1.750   3.736   8.161
95978SOL    HW189708   1.836   3.753   8.124
95978SOL    HW289709   1.763   3.741   8.256
95979SOL     OW89710   3.237   3.468   6.029
95979SOL    HW189711   3.217   3.542   5.972
95979SOL    HW289712   3.154   3.421   6.036
95980SOL     OW89713  12.612   6.735   5.206
95980SOL    HW189714  12.635   6.642   5.199
95980SOL    HW289715  12.613   6.767   5.116
95981SOL     OW89716   4.649  12.499  12.911
95981SOL    HW189717   4.619  12.434  12.975
95981SOL    HW289718   4.694  12.565  12.962
95982SOL     OW89719   1.461  11.967   9.054
95982SOL    HW189720   1.520  12.043   9.058
95982SOL    HW289721   1.456  11.936   9.144
95983SOL     OW89722   0.103   3.493   4.805
95983SOL    HW189723   0.190   3.517   4.772
95983SOL    HW289724   0.117   3.474   4.898
95984SOL     OW89725  13.362   8.566   4.685
95984SOL    HW189726  13.402   8.623   4.751
95984SOL    HW289727  13.387   8.603   4.601
95985SOL     OW89728   6.773   9.842   9.115
95985SOL    HW189729   6.862   9.870   9.092
95985SOL    HW289730   6.733   9.920   9.155
95986SOL     OW89731  10.943   2.022   0.704
95986SOL    HW189732  10.950   2.038   0.798
95986SOL    HW289733  10.882   2.088   0.673
95987SOL     OW89734  13.961   9.166  10.787
95987SOL    HW189735  14.024   9.173  10.859
95987SOL    HW289736  13.925   9.254  10.778
95988SOL     OW89737  10.718   9.693   3.638
95988SOL    HW189738  10.682   9.617   3.591
95988SOL    HW289739  10.812   9.691   3.618
95989SOL     OW89740   3.387   3.035   3.700
95989SOL    HW189741   3.359   2.991   3.780
95989SOL    HW289742   3.314   3.023   3.639
95990SOL     OW89743   3.577   5.130   2.731
95990SOL    HW189744   3.630   5.200   2.770
95990SOL    HW289745   3.636   5.054   2.728
95991SOL     OW89746  10.607   7.290   2.770
95991SOL    HW189747  10.667   7.317   2.840
95991SOL    HW289748  10.558   7.217   2.807
95992SOL     OW89749  10.216   3.695  14.274
95992SOL    HW189750  10.256   3.724  14.192
95992SOL    HW289751  10.268   3.619  14.301
95993SOL     OW89752   5.851   7.345  13.385
95993SOL    HW189753   5.859   7.307  13.472
95993SOL    HW289754   5.923   7.408  13.379
95994SOL     OW89755   6.570  12.032  12.947
95994SOL    HW189756   6.501  12.090  12.979
95994SOL    HW289757   6.527  11.946  12.939
95995SOL     OW89758  10.359  13.146   6.460
95995SOL    HW189759  10.401  13.082   6.401
95995SOL    HW289760  10.297  13.192   6.404
95996SOL     OW89761   1.790   2.428  12.544
95996SOL    HW189762   1.844   2.458  12.471
95996SOL    HW289763   1.700   2.438  12.513
95997SOL     OW89764   3.701   4.259   7.951
95997SOL    HW189765   3.768   4.193   7.968
95997SOL    HW289766   3.745   4.342   7.966
95998SOL     OW89767   3.030   7.200   5.633
95998SOL    HW189768   2.958   7.225   5.574
95998SOL    HW289769   3.080   7.281   5.644
95999SOL     OW89770  10.935  13.662   2.513
95999SOL    HW189771  10.974  13.750   2.517
95999SOL    HW289772  10.964  13.620   2.594
96000SOL     OW89773   4.201   2.724   0.417
96000SOL    HW189774   4.168   2.786   0.481
96000SOL    HW289775   4.134   2.722   0.349
96001SOL     OW89776  14.393   8.436   2.233
96001SOL    HW189777  14.349   8.516   2.206
96001SOL    HW289778  14.481   8.443   2.197
96002SOL     OW89779   2.531   2.498  11.584
96002SOL    HW189780   2.461   2.461  11.530
96002SOL    HW289781   2.513   2.465  11.672
96003SOL     OW89782  10.865  12.567   4.196
96003SOL    HW189783  10.932  12.516   4.151
96003SOL    HW289784  10.804  12.594   4.127
96004SOL     OW89785   9.345   9.492   6.745
96004SOL    HW189786   9.333   9.397   6.741
96004SOL    HW289787   9.425   9.504   6.796
96005SOL     OW89788  10.743   9.671   1.041
96005SOL    HW189789  10.808   9.601   1.047
96005SOL    HW289790  10.788   9.748   1.074
96006SOL     OW89791   1.602   8.626   8.047
96006SOL    HW189792   1.530   8.564   8.042
96006SOL    HW289793   1.614   8.655   7.956
96007SOL     OW89794   2.345   4.837  14.579
96007SOL    HW189795   2.437   4.833  14.554
96007SOL    HW289796   2.298   4.810  14.500
96008SOL     OW89797  14.666   8.439  11.780
96008SOL    HW189798  14.621   8.360  11.751
96008SOL    HW289799  14.690   8.485  11.700
96009SOL     OW89800  13.816   7.533   4.440
96009SOL    HW189801  13.765   7.594   4.493
96009SOL    HW289802  13.903   7.572   4.433
96010SOL     OW89803  10.890  10.050   3.050
96010SOL    HW189804  10.869  10.137   3.085
96010SOL    HW289805  10.868  10.056   2.957
96011SOL     OW89806   2.239  14.784   7.621
96011SOL    HW189807   2.207  14.818   7.705
96011SOL    HW289808   2.204  14.696   7.616
96012SOL     OW89809   8.108   1.129  12.333
96012SOL    HW189810   8.200   1.153  12.335
96012SOL    HW289811   8.066   1.200  12.285
96013SOL     OW89812   6.479  11.732   5.839
96013SOL    HW189813   6.558  11.769   5.879
96013SOL    HW289814   6.415  11.803   5.844
96014SOL     OW89815  10.810   9.998  13.721
96014SOL    HW189816  10.733   9.991  13.778
96014SOL    HW289817  10.788  10.067  13.659
96015SOL     OW89818   0.517   8.230   8.535
96015SOL    HW189819   0.547   8.161   8.475
96015SOL    HW289820   0.423   8.213   8.547
96016SOL     OW89821   4.712  14.171   5.402
96016SOL    HW189822   4.778  14.233   5.434
96016SOL    HW289823   4.760  14.113   5.343
96017SOL     OW89824   5.599   8.916   7.963
96017SOL    HW189825   5.610   8.852   8.033
96017SOL    HW289826   5.605   8.865   7.882
96018SOL     OW89827   1.457   3.007   6.098
96018SOL    HW189828   1.525   2.956   6.142
96018SOL    HW289829   1.473   2.993   6.004
96019SOL     OW89830   7.002   0.384   0.563
96019SOL    HW189831   7.043   0.347   0.485
96019SOL    HW289832   6.996   0.478   0.544
96020SOL     OW89833   7.589   0.965   4.953
96020SOL    HW189834   7.575   0.874   4.979
96020SOL    HW289835   7.669   0.991   4.997
96021SOL     OW89836   9.073  12.736   9.460
96021SOL    HW189837   9.020  12.722   9.538
96021SOL    HW289838   9.081  12.831   9.452
96022SOL     OW89839   1.553   2.834   0.647
96022SOL    HW189840   1.598   2.889   0.712
96022SOL    HW289841   1.460   2.857   0.657
96023SOL     OW89842  10.059   1.523  11.746
96023SOL    HW189843   9.996   1.548  11.813
96023SOL    HW289844  10.018   1.450  11.700
96024SOL     OW89845   3.581   8.144  10.592
96024SOL    HW189846   3.553   8.065  10.547
96024SOL    HW289847   3.568   8.214  10.527
96025SOL     OW89848   4.485   5.894   0.745
96025SOL    HW189849   4.472   5.808   0.704
96025SOL    HW289850   4.409   5.945   0.717
96026SOL     OW89851  14.737   3.613  12.148
96026SOL    HW189852  14.749   3.695  12.196
96026SOL    HW289853  14.809   3.557  12.178
96027SOL     OW89854   9.534   1.447   8.202
96027SOL    HW189855   9.478   1.518   8.233
96027SOL    HW289856   9.488   1.367   8.228
96028SOL     OW89857   5.183   6.209   3.091
96028SOL    HW189858   5.198   6.116   3.103
96028SOL    HW289859   5.127   6.215   3.014
96029SOL     OW89860  14.297   1.652   0.993
96029SOL    HW189861  14.389   1.660   1.017
96029SOL    HW289862  14.297   1.656   0.897
96030SOL     OW89863   7.846  11.590   4.287
96030SOL    HW189864   7.884  11.508   4.318
96030SOL    HW289865   7.912  11.656   4.308
96031SOL     OW89866   2.192   7.103  13.167
96031SOL    HW189867   2.242   7.021  13.167
96031SOL    HW289868   2.203   7.138  13.079
96032SOL     OW89869   5.195   9.741  14.222
96032SOL    HW189870   5.144   9.705  14.149
96032SOL    HW289871   5.130   9.773  14.284
96033SOL     OW89872   1.435   3.411   7.078
96033SOL    HW189873   1.356   3.359   7.060
96033SOL    HW289874   1.482   3.412   6.995
96034SOL     OW89875   3.732  12.862   6.081
96034SOL    HW189876   3.755  12.933   6.021
96034SOL    HW289877   3.811  12.807   6.083
96035SOL     OW89878   0.900  12.662   5.517
96035SOL    HW189879   0.952  12.585   5.542
96035SOL    HW289880   0.889  12.653   5.423
96036SOL     OW89881   9.337   4.154   6.518
96036SOL    HW189882   9.429   4.144   6.544
96036SOL    HW289883   9.297   4.203   6.589
96037SOL     OW89884   9.311   4.765   6.473
96037SOL    HW189885   9.243   4.698   6.461
96037SOL    HW289886   9.356   4.769   6.388
96038SOL     OW89887   0.141   0.334   7.599
96038SOL    HW189888   0.138   0.293   7.685
96038SOL    HW289889   0.203   0.281   7.549
96039SOL     OW89890   0.101  11.589  10.911
96039SOL    HW189891   0.110  11.572  10.818
96039SOL    HW289892   0.082  11.682  10.917
96040SOL     OW89893   3.674   1.604   5.151
96040SOL    HW189894   3.652   1.621   5.059
96040SOL    HW289895   3.770   1.596   5.151
96041SOL     OW89896   3.533   6.781   1.354
96041SOL    HW189897   3.615   6.736   1.332
96041SOL    HW289898   3.511   6.830   1.275
96042SOL     OW89899  11.715  11.807   1.206
96042SOL    HW189900  11.626  11.822   1.175
96042SOL    HW289901  11.770  11.815   1.128
96043SOL     OW89902   9.099   9.048   6.511
96043SOL    HW189903   9.075   8.980   6.574
96043SOL    HW289904   9.029   9.047   6.447
96044SOL     OW89905   0.283   0.817   8.457
96044SOL    HW189906   0.247   0.854   8.377
96044SOL    HW289907   0.375   0.801   8.438
96045SOL     OW89908   5.180   5.183   0.405
96045SOL    HW189909   5.178   5.106   0.462
96045SOL    HW289910   5.124   5.159   0.331
96046SOL     OW89911   1.009  14.320   5.556
96046SOL    HW189912   0.967  14.369   5.626
96046SOL    HW289913   1.022  14.232   5.592
96047SOL     OW89914  11.529   9.004   4.707
96047SOL    HW189915  11.539   8.909   4.712
96047SOL    HW289916  11.497   9.020   4.619
96048SOL     OW89917   3.081   2.658   3.588
96048SOL    HW189918   3.065   2.568   3.558
96048SOL    HW289919   3.137   2.696   3.521
96049SOL     OW89920  11.825  10.878  12.909
96049SOL    HW189921  11.856  10.837  12.990
96049SOL    HW289922  11.767  10.948  12.939
96050SOL     OW89923  11.515  11.820   5.297
96050SOL    HW189924  11.530  11.896   5.354
96050SOL    HW289925  11.451  11.851   5.232
96051SOL     OW89926  12.839   1.311  13.037
96051SOL    HW189927  12.755   1.321  12.992
96051SOL    HW289928  12.834   1.372  13.110
96052SOL     OW89929  10.696   7.031  13.722
96052SOL    HW189930  10.712   7.034  13.627
96052SOL    HW289931  10.704   6.938  13.745
96053SOL     OW89932   9.353  13.473   5.245
96053SOL    HW189933   9.328  13.528   5.171
96053SOL    HW289934   9.277  13.418   5.261
96054SOL     OW89935   0.145  11.507   6.451
96054SOL    HW189936   0.160  11.597   6.479
96054SOL    HW289937   0.180  11.454   6.522
96055SOL     OW89938   5.141  11.361   4.719
96055SOL    HW189939   5.136  11.451   4.686
96055SOL    HW289940   5.187  11.369   4.802
96056SOL     OW89941  12.632  12.433   0.021
96056SOL    HW189942  12.716  12.474   0.000
96056SOL    HW289943  12.580  12.505   0.059
96057SOL     OW89944   0.409   9.854  10.090
96057SOL    HW189945   0.345   9.788  10.115
96057SOL    HW289946   0.418   9.910  10.167
96058SOL     OW89947   8.588   9.950   2.779
96058SOL    HW189948   8.503   9.959   2.822
96058SOL    HW289949   8.620   9.864   2.806
96059SOL     OW89950   1.139  10.333   9.640
96059SOL    HW189951   1.087  10.303   9.565
96059SOL    HW289952   1.096  10.415   9.667
96060SOL     OW89953   8.919   5.912   7.036
96060SOL    HW189954   8.905   5.818   7.033
96060SOL    HW289955   8.988   5.924   7.101
96061SOL     OW89956  11.015   9.376   3.351
96061SOL    HW189957  10.928   9.339   3.365
96061SOL    HW289958  11.067   9.303   3.317
96062SOL     OW89959   3.207   5.873   3.657
96062SOL    HW189960   3.258   5.824   3.722
96062SOL    HW289961   3.167   5.944   3.708
96063SOL     OW89962   5.161   9.329   9.207
96063SOL    HW189963   5.204   9.244   9.206
96063SOL    HW289964   5.171   9.360   9.297
96064SOL     OW89965  10.335  12.284   4.237
96064SOL    HW189966  10.356  12.204   4.284
96064SOL    HW289967  10.346  12.261   4.144
96065SOL     OW89968  13.869   1.916   2.668
96065SOL    HW189969  13.873   1.996   2.720
96065SOL    HW289970  13.929   1.931   2.596
96066SOL     OW89971   2.509   0.648   8.866
96066SOL    HW189972   2.478   0.577   8.809
96066SOL    HW289973   2.485   0.620   8.954
96067SOL     OW89974   9.691  14.189   2.226
96067SOL    HW189975   9.665  14.099   2.246
96067SOL    HW289976   9.767  14.205   2.282
96068SOL     OW89977  13.846  13.475  13.387
96068SOL    HW189978  13.910  13.475  13.458
96068SOL    HW289979  13.828  13.383  13.370
96069SOL     OW89980   2.171  11.242  14.306
96069SOL    HW189981   2.217  11.196  14.236
96069SOL    HW289982   2.183  11.335  14.286
96070SOL     OW89983   3.577   2.638   7.546
96070SOL    HW189984   3.496   2.587   7.552
96070SOL    HW289985   3.593   2.668   7.635
96071SOL     OW89986  13.576   9.120   1.418
96071SOL    HW189987  13.623   9.195   1.456
96071SOL    HW289988  13.610   9.114   1.328
96072SOL     OW89989   7.182  10.326   8.705
96072SOL    HW189990   7.136  10.343   8.786
96072SOL    HW289991   7.167  10.234   8.686
96073SOL     OW89992  10.524   1.716   5.023
96073SOL    HW189993  10.460   1.781   4.993
96073SOL    HW289994  10.600   1.728   4.966
96074SOL     OW89995   1.380   3.783  10.590
96074SOL    HW189996   1.372   3.706  10.647
96074SOL    HW289997   1.422   3.849  10.645
96075SOL     OW89998   7.798   4.361  11.576
96075SOL    HW189999   7.874   4.413  11.550
96075SOL    HW290000   7.779   4.307  11.500
96076SOL     OW90001   0.041   8.472   9.149
96076SOL    HW190002   0.046   8.495   9.241
96076SOL    HW290003  14.874   8.390   9.147
96077SOL     OW90004  12.730  11.534   2.084
96077SOL    HW190005  12.823  11.512   2.085
96077SOL    HW290006  12.696  11.497   2.165
96078SOL     OW90007   4.459   9.450  14.588
96078SOL    HW190008   4.401   9.488  14.654
96078SOL    HW290009   4.480   9.523  14.530
96079SOL     OW90010  12.403   7.486   3.351
96079SOL    HW190011  12.371   7.397   3.364
96079SOL    HW290012  12.376   7.533   3.430
96080SOL     OW90013  12.536  11.875   6.211
96080SOL    HW190014  12.596  11.855   6.139
96080SOL    HW290015  12.528  11.793   6.259
96081SOL     OW90016   4.931  13.099   4.348
96081SOL    HW190017   4.888  13.180   4.324
96081SOL    HW290018   5.001  13.088   4.283
96082SOL     OW90019  13.473  14.626   5.304
96082SOL    HW190020  13.549  14.606   5.359
96082SOL    HW290021  13.490  14.713   5.270
96083SOL     OW90022   2.110  12.408  10.289
96083SOL    HW190023   2.192  12.450  10.264
96083SOL    HW290024   2.045  12.478  10.286
96084SOL     OW90025   3.879   4.255  10.112
96084SOL    HW190026   3.880   4.261  10.207
96084SOL    HW290027   3.965   4.288  10.085
96085SOL     OW90028   4.084   9.607  14.026
96085SOL    HW190029   3.998   9.571  14.046
96085SOL    HW290030   4.088   9.606  13.930
96086SOL     OW90031   2.976   9.459  13.833
96086SOL    HW190032   2.982   9.527  13.900
96086SOL    HW290033   3.042   9.484  13.768
96087SOL     OW90034  14.563   5.185   2.323
96087SOL    HW190035  14.490   5.222   2.274
96087SOL    HW290036  14.523   5.116   2.377
96088SOL     OW90037   8.718  10.910   4.137
96088SOL    HW190038   8.638  10.879   4.179
96088SOL    HW290039   8.705  10.891   4.044
96089SOL     OW90040   6.821   0.229   6.295
96089SOL    HW190041   6.760   0.208   6.365
96089SOL    HW290042   6.846   0.320   6.310
96090SOL     OW90043   7.581   0.756   8.185
96090SOL    HW190044   7.513   0.712   8.236
96090SOL    HW290045   7.645   0.784   8.250
96091SOL     OW90046   3.659   5.942   7.350
96091SOL    HW190047   3.621   5.920   7.435
96091SOL    HW290048   3.748   5.971   7.370
96092SOL     OW90049  12.146   5.570   6.808
96092SOL    HW190050  12.097   5.615   6.877
96092SOL    HW290051  12.205   5.511   6.855
96093SOL     OW90052   3.843   9.417   1.054
96093SOL    HW190053   3.891   9.389   0.977
96093SOL    HW290054   3.783   9.345   1.074
96094SOL     OW90055   0.642   7.106   2.107
96094SOL    HW190056   0.554   7.125   2.139
96094SOL    HW290057   0.640   7.013   2.085
96095SOL     OW90058  11.948  10.259   0.498
96095SOL    HW190059  12.033  10.301   0.505
96095SOL    HW290060  11.887  10.331   0.479
96096SOL     OW90061   1.220   4.264  13.490
96096SOL    HW190062   1.298   4.225  13.450
96096SOL    HW290063   1.152   4.256  13.422
96097SOL     OW90064   4.513   9.879   1.693
96097SOL    HW190065   4.529   9.929   1.613
96097SOL    HW290066   4.547   9.792   1.674
96098SOL     OW90067   0.585  10.736   6.394
96098SOL    HW190068   0.598  10.831   6.385
96098SOL    HW290069   0.508  10.728   6.451
96099SOL     OW90070   7.940   1.408  10.439
96099SOL    HW190071   7.883   1.331  10.450
96099SOL    HW290072   7.989   1.413  10.521
96100SOL     OW90073  11.094   8.650  11.754
96100SOL    HW190074  11.108   8.736  11.714
96100SOL    HW290075  11.052   8.598  11.685
96101SOL     OW90076   6.135  10.120   2.633
96101SOL    HW190077   6.120  10.026   2.634
96101SOL    HW290078   6.061  10.157   2.682
96102SOL     OW90079   6.268   6.676  14.840
96102SOL    HW190080   6.334   6.641  14.780
96102SOL    HW290081   6.222   6.742  14.788
96103SOL     OW90082   9.072   5.793  12.832
96103SOL    HW190083   9.064   5.887  12.817
96103SOL    HW290084   9.018   5.776  12.909
96104SOL     OW90085   1.754   2.210   8.421
96104SOL    HW190086   1.669   2.218   8.467
96104SOL    HW290087   1.744   2.134   8.365
96105SOL     OW90088  14.120   8.030  11.293
96105SOL    HW190089  14.142   7.938  11.284
96105SOL    HW290090  14.030   8.037  11.259
96106SOL     OW90091   9.278  13.777   9.666
96106SOL    HW190092   9.226  13.854   9.688
96106SOL    HW290093   9.221  13.702   9.686
96107SOL     OW90094  10.676  12.334   7.312
96107SOL    HW190095  10.627  12.253   7.329
96107SOL    HW290096  10.713  12.357   7.397
96108SOL     OW90097  11.820   2.674   5.431
96108SOL    HW190098  11.897   2.730   5.438
96108SOL    HW290099  11.842   2.596   5.482
96109SOL     OW90100  12.997  11.001  10.862
96109SOL    HW190101  12.974  11.092  10.846
96109SOL    HW290102  13.052  11.004  10.941
96110SOL     OW90103   9.653   2.065  12.646
96110SOL    HW190104   9.606   2.093  12.725
96110SOL    HW290105   9.687   2.146  12.608
96111SOL     OW90106   3.858   2.765   1.338
96111SOL    HW190107   3.816   2.817   1.406
96111SOL    HW290108   3.873   2.826   1.266
96112SOL     OW90109  14.079   9.610  14.070
96112SOL    HW190110  14.102   9.622  13.978
96112SOL    HW290111  13.986   9.635  14.075
96113SOL     OW90112   4.698   7.723   8.040
96113SOL    HW190113   4.609   7.745   8.012
96113SOL    HW290114   4.753   7.789   7.998
96114SOL     OW90115   1.040   5.064   6.800
96114SOL    HW190116   0.944   5.065   6.802
96114SOL    HW290117   1.064   5.146   6.757
96115SOL     OW90118   4.743  12.795  10.688
96115SOL    HW190119   4.651  12.802  10.711
96115SOL    HW290120   4.771  12.710  10.724
96116SOL     OW90121   2.256  10.784  10.785
96116SOL    HW190122   2.313  10.818  10.715
96116SOL    HW290123   2.307  10.794  10.865
96117SOL     OW90124   5.665  14.305   9.832
96117SOL    HW190125   5.645  14.308   9.738
96117SOL    HW290126   5.735  14.370   9.843
96118SOL     OW90127   0.606  13.027   2.978
96118SOL    HW190128   0.534  13.065   3.028
96118SOL    HW290129   0.672  13.096   2.975
96119SOL     OW90130  10.383  10.033  12.440
96119SOL    HW190131  10.468  10.055  12.403
96119SOL    HW290132  10.334  10.115  12.438
96120SOL     OW90133   0.002  10.161   8.336
96120SOL    HW190134  14.819  10.117   8.281
96120SOL    HW290135   0.046  10.090   8.382
96121SOL     OW90136  10.072  10.242   1.590
96121SOL    HW190137  10.142  10.219   1.529
96121SOL    HW290138  10.110  10.225   1.677
96122SOL     OW90139  10.224   0.430  12.705
96122SOL    HW190140  10.255   0.419  12.795
96122SOL    HW290141  10.208   0.524  12.697
96123SOL     OW90142   5.333   9.834  13.548
96123SOL    HW190143   5.310   9.850  13.640
96123SOL    HW290144   5.277   9.894  13.499
96124SOL     OW90145   0.795   4.993   9.730
96124SOL    HW190146   0.836   5.056   9.789
96124SOL    HW290147   0.727   5.043   9.685
96125SOL     OW90148   3.200   2.625   1.531
96125SOL    HW190149   3.174   2.699   1.587
96125SOL    HW290150   3.128   2.616   1.469
96126SOL     OW90151   1.591  12.378   3.772
96126SOL    HW190152   1.639  12.353   3.851
96126SOL    HW290153   1.566  12.294   3.732
96127SOL     OW90154   3.370  10.111  10.500
96127SOL    HW190155   3.448  10.162  10.476
96127SOL    HW290156   3.390  10.077  10.588
96128SOL     OW90157   7.437   8.913   5.941
96128SOL    HW190158   7.397   8.996   5.915
96128SOL    HW290159   7.482   8.933   6.023
96129SOL     OW90160   9.065  11.891   4.285
96129SOL    HW190161   9.010  11.956   4.242
96129SOL    HW290162   9.081  11.926   4.372
96130SOL     OW90163   0.294  10.734   6.033
96130SOL    HW190164   0.298  10.698   5.944
96130SOL    HW290165   0.205  10.715   6.062
96131SOL     OW90166  13.772   5.686   8.945
96131SOL    HW190167  13.705   5.619   8.958
96131SOL    HW290168  13.767   5.740   9.024
96132SOL     OW90169   7.354   8.566  12.342
96132SOL    HW190170   7.322   8.643  12.295
96132SOL    HW290171   7.276   8.516  12.363
96133SOL     OW90172  13.475   8.962   0.490
96133SOL    HW190173  13.430   9.047   0.494
96133SOL    HW290174  13.566   8.984   0.469
96134SOL     OW90175   4.149   4.954  14.068
96134SOL    HW190176   4.196   4.949  14.151
96134SOL    HW290177   4.075   5.012  14.086
96135SOL     OW90178  10.526   4.538  13.738
96135SOL    HW190179  10.477   4.478  13.795
96135SOL    HW290180  10.549   4.611  13.795
96136SOL     OW90181   3.094  14.252   6.902
96136SOL    HW190182   3.090  14.176   6.845
96136SOL    HW290183   3.113  14.216   6.989
96137SOL     OW90184   8.542   1.471   4.843
96137SOL    HW190185   8.542   1.542   4.907
96137SOL    HW290186   8.623   1.483   4.794
96138SOL     OW90187  14.678   7.655  14.426
96138SOL    HW190188  14.600   7.694  14.465
96138SOL    HW290189  14.663   7.561  14.430
96139SOL     OW90190   7.339   4.657   6.252
96139SOL    HW190191   7.352   4.686   6.342
96139SOL    HW290192   7.250   4.622   6.250
96140SOL     OW90193   3.684   1.245  13.983
96140SOL    HW190194   3.734   1.190  13.922
96140SOL    HW290195   3.688   1.333  13.945
96141SOL     OW90196   3.786   2.156   0.654
96141SOL    HW190197   3.786   2.137   0.560
96141SOL    HW290198   3.804   2.071   0.696
96142SOL     OW90199   7.965   3.730   0.319
96142SOL    HW190200   8.021   3.668   0.364
96142SOL    HW290201   7.902   3.758   0.385
96143SOL     OW90202  14.826   3.218   0.679
96143SOL    HW190203   0.004   3.284   0.645
96143SOL    HW290204  14.786   3.179   0.601
96144SOL     OW90205   0.720  10.291  13.248
96144SOL    HW190206   0.789  10.312  13.185
96144SOL    HW290207   0.731  10.356  13.317
96145SOL     OW90208   2.539   1.546   7.840
96145SOL    HW190209   2.506   1.463   7.874
96145SOL    HW290210   2.470   1.610   7.861
96146SOL     OW90211   0.927   2.048  13.094
96146SOL    HW190212   0.910   1.955  13.081
96146SOL    HW290213   0.841   2.087  13.108
96147SOL     OW90214  10.258   3.908   8.411
96147SOL    HW190215  10.321   3.898   8.340
96147SOL    HW290216  10.310   3.913   8.490
96148SOL     OW90217   3.996  13.855   8.285
96148SOL    HW190218   3.907  13.860   8.322
96148SOL    HW290219   4.039  13.787   8.337
96149SOL     OW90220   6.821   9.748  11.396
96149SOL    HW190221   6.783   9.660  11.403
96149SOL    HW290222   6.908   9.734  11.360
96150SOL     OW90223   9.174   8.715  13.302
96150SOL    HW190224   9.153   8.808  13.312
96150SOL    HW290225   9.108   8.682  13.241
96151SOL     OW90226   3.884   2.834   4.282
96151SOL    HW190227   3.873   2.794   4.196
96151SOL    HW290228   3.871   2.928   4.266
96152SOL     OW90229   6.572   3.578  13.379
96152SOL    HW190230   6.628   3.512  13.337
96152SOL    HW290231   6.485   3.537  13.380
96153SOL     OW90232   6.754   9.162   8.843
96153SOL    HW190233   6.717   9.144   8.757
96153SOL    HW290234   6.684   9.139   8.905
96154SOL     OW90235  14.496   5.898   7.950
96154SOL    HW190236  14.436   5.909   7.877
96154SOL    HW290237  14.441   5.875   8.025
96155SOL     OW90238   6.067  12.872   2.892
96155SOL    HW190239   6.018  12.793   2.868
96155SOL    HW290240   6.034  12.939   2.832
96156SOL     OW90241   0.102   7.407   8.312
96156SOL    HW190242   0.197   7.403   8.325
96156SOL    HW290243   0.091   7.454   8.229
96157SOL     OW90244   9.479   7.690   2.820
96157SOL    HW190245   9.495   7.703   2.727
96157SOL    HW290246   9.546   7.742   2.864
96158SOL     OW90247  10.085   3.213  10.255
96158SOL    HW190248  10.177   3.229  10.234
96158SOL    HW290249  10.087   3.161  10.335
96159SOL     OW90250  11.230   0.937   9.914
96159SOL    HW190251  11.235   1.002   9.845
96159SOL    HW290252  11.195   0.985   9.990
96160SOL     OW90253  14.860   6.877  13.281
96160SOL    HW190254   0.019   6.804  13.329
96160SOL    HW290255   0.050   6.941  13.272
96161SOL     OW90256   5.718   2.363   7.799
96161SOL    HW190257   5.737   2.271   7.816
96161SOL    HW290258   5.643   2.383   7.855
96162SOL     OW90259  12.825  11.693   2.624
96162SOL    HW190260  12.763  11.732   2.563
96162SOL    HW290261  12.804  11.600   2.626
96163SOL     OW90262  13.607   4.602   3.425
96163SOL    HW190263  13.575   4.563   3.344
96163SOL    HW290264  13.590   4.695   3.416
96164SOL     OW90265  13.052   3.460   3.979
96164SOL    HW190266  13.007   3.496   3.903
96164SOL    HW290267  13.133   3.510   3.985
96165SOL     OW90268   7.784  12.834   3.686
96165SOL    HW190269   7.776  12.744   3.654
96165SOL    HW290270   7.694  12.859   3.709
96166SOL     OW90271  10.893   7.516   8.044
96166SOL    HW190272  10.809   7.537   8.085
96166SOL    HW290273  10.911   7.426   8.071
96167SOL     OW90274   9.997   4.478   1.301
96167SOL    HW190275   9.947   4.542   1.351
96167SOL    HW290276  10.073   4.528   1.268
96168SOL     OW90277   4.002  11.672  14.818
96168SOL    HW190278   4.033  11.730   0.005
96168SOL    HW290279   3.978  11.591  14.864
96169SOL     OW90280   5.551   4.101  13.291
96169SOL    HW190281   5.477   4.158  13.271
96169SOL    HW290282   5.533   4.020  13.242
96170SOL     OW90283   9.404   5.953  12.507
96170SOL    HW190284   9.323   5.951  12.456
96170SOL    HW290285   9.417   5.863  12.536
96171SOL     OW90286   4.670   0.367   1.695
96171SOL    HW190287   4.612   0.297   1.727
96171SOL    HW290288   4.683   0.346   1.602
96172SOL     OW90289   0.693  13.919  13.996
96172SOL    HW190290   0.756  13.928  13.925
96172SOL    HW290291   0.682  13.825  14.006
96173SOL     OW90292  14.256   9.378   3.665
96173SOL    HW190293  14.249   9.288   3.695
96173SOL    HW290294  14.341   9.408   3.697
96174SOL     OW90295  12.056   8.598  12.939
96174SOL    HW190296  12.065   8.596  13.034
96174SOL    HW290297  12.141   8.626  12.907
96175SOL     OW90298   0.120   8.850   3.152
96175SOL    HW190299   0.189   8.833   3.088
96175SOL    HW290300   0.123   8.944   3.167
96176SOL     OW90301   5.080   7.778   4.955
96176SOL    HW190302   5.087   7.736   4.870
96176SOL    HW290303   5.084   7.706   5.018
96177SOL     OW90304   8.063   2.950  14.260
96177SOL    HW190305   8.042   2.857  14.248
96177SOL    HW290306   8.003   2.996  14.202
96178SOL     OW90307  13.376  10.346   5.161
96178SOL    HW190308  13.462  10.311   5.185
96178SOL    HW290309  13.363  10.318   5.071
96179SOL     OW90310   4.978   4.268   4.809
96179SOL    HW190311   4.925   4.258   4.887
96179SOL    HW290312   4.977   4.182   4.768
96180SOL     OW90313   2.795   2.270   9.153
96180SOL    HW190314   2.862   2.211   9.119
96180SOL    HW290315   2.720   2.258   9.094
96181SOL     OW90316  13.101   4.368  12.537
96181SOL    HW190317  13.081   4.433  12.605
96181SOL    HW290318  13.168   4.410  12.483
96182SOL     OW90319  12.492   2.390  13.735
96182SOL    HW190320  12.478   2.464  13.676
96182SOL    HW290321  12.417   2.333  13.721
96183SOL     OW90322   9.722   4.593   0.043
96183SOL    HW190323   9.752   4.549   0.123
96183SOL    HW290324   9.803   4.625   0.002
96184SOL     OW90325   9.244   1.028   0.472
96184SOL    HW190326   9.230   1.122   0.461
96184SOL    HW290327   9.201   0.988   0.397
96185SOL     OW90328   1.625   9.013   5.776
96185SOL    HW190329   1.683   9.088   5.786
96185SOL    HW290330   1.680   8.945   5.738
96186SOL     OW90331   5.873   8.123   1.404
96186SOL    HW190332   5.939   8.191   1.393
96186SOL    HW290333   5.903   8.072   1.479
96187SOL     OW90334   7.171  13.785   7.816
96187SOL    HW190335   7.138  13.862   7.771
96187SOL    HW290336   7.108  13.768   7.886
96188SOL     OW90337   6.701  11.391  14.707
96188SOL    HW190338   6.671  11.427  14.623
96188SOL    HW290339   6.687  11.297  14.698
96189SOL     OW90340   5.702  11.394   6.295
96189SOL    HW190341   5.685  11.460   6.227
96189SOL    HW290342   5.654  11.316   6.265
96190SOL     OW90343  10.684   0.431   3.657
96190SOL    HW190344  10.701   0.350   3.609
96190SOL    HW290345  10.767   0.452   3.699
96191SOL     OW90346   4.152  13.564  12.338
96191SOL    HW190347   4.192  13.608  12.263
96191SOL    HW290348   4.154  13.471  12.316
96192SOL     OW90349  11.230   6.983   4.724
96192SOL    HW190350  11.279   6.938   4.792
96192SOL    HW290351  11.259   7.074   4.730
96193SOL     OW90352   3.367  12.573   9.705
96193SOL    HW190353   3.369  12.593   9.611
96193SOL    HW290354   3.453  12.536   9.724
96194SOL     OW90355  13.439  12.722  11.770
96194SOL    HW190356  13.476  12.772  11.696
96194SOL    HW290357  13.377  12.783  11.811
96195SOL     OW90358  14.563   4.238   1.433
96195SOL    HW190359  14.531   4.287   1.357
96195SOL    HW290360  14.535   4.289   1.509
96196SOL     OW90361   8.126   3.209   8.334
96196SOL    HW190362   8.145   3.120   8.306
96196SOL    HW290363   8.143   3.209   8.429
96197SOL     OW90364  11.623   6.166   8.998
96197SOL    HW190365  11.624   6.251   8.953
96197SOL    HW290366  11.680   6.110   8.945
96198SOL     OW90367   4.105   9.512  12.553
96198SOL    HW190368   4.150   9.594  12.574
96198SOL    HW290369   4.071   9.482  12.637
96199SOL     OW90370   3.113   8.120   4.907
96199SOL    HW190371   3.026   8.133   4.945
96199SOL    HW290372   3.173   8.153   4.973
96200SOL     OW90373   4.015   0.049  11.924
96200SOL    HW190374   3.956   0.109  11.969
96200SOL    HW290375   4.017  14.852  11.979
96201SOL     OW90376   4.551   5.084   0.063
96201SOL    HW190377   4.527   5.100  14.854
96201SOL    HW290378   4.595   4.999   0.062
96202SOL     OW90379  14.550   3.204   8.384
96202SOL    HW190380  14.518   3.294   8.398
96202SOL    HW290381  14.616   3.212   8.315
96203SOL     OW90382   8.557   5.845   6.464
96203SOL    HW190383   8.484   5.905   6.450
96203SOL    HW290384   8.626   5.876   6.405
96204SOL     OW90385   0.151   0.203   3.350
96204SOL    HW190386   0.105   0.166   3.275
96204SOL    HW290387   0.185   0.286   3.319
96205SOL     OW90388   0.754   9.761  14.867
96205SOL    HW190389   0.744   9.671  14.837
96205SOL    HW290390   0.665   9.796  14.867
96206SOL     OW90391   7.636   8.783   4.911
96206SOL    HW190392   7.626   8.820   4.824
96206SOL    HW290393   7.682   8.850   4.962
96207SOL     OW90394  13.825  10.478   8.876
96207SOL    HW190395  13.899  10.419   8.863
96207SOL    HW290396  13.754  10.439   8.826
96208SOL     OW90397   6.095   2.594   0.826
96208SOL    HW190398   6.054   2.581   0.911
96208SOL    HW290399   6.024   2.582   0.763
96209SOL     OW90400   1.295   5.605   8.556
96209SOL    HW190401   1.257   5.522   8.585
96209SOL    HW290402   1.269   5.612   8.464
96210SOL     OW90403   9.571  11.334  12.729
96210SOL    HW190404   9.563  11.259  12.787
96210SOL    HW290405   9.525  11.308  12.649
96211SOL     OW90406  12.017  12.284   1.761
96211SOL    HW190407  11.977  12.208   1.718
96211SOL    HW290408  12.111  12.274   1.746
96212SOL     OW90409   3.609   6.979   0.365
96212SOL    HW190410   3.559   6.942   0.438
96212SOL    HW290411   3.609   6.910   0.299
96213SOL     OW90412   5.683  11.278  12.258
96213SOL    HW190413   5.682  11.191  12.218
96213SOL    HW290414   5.772  11.287  12.294
96214SOL     OW90415  10.702  11.142   0.577
96214SOL    HW190416  10.647  11.209   0.537
96214SOL    HW290417  10.711  11.075   0.510
96215SOL     OW90418   4.038   8.969  12.947
96215SOL    HW190419   4.013   9.048  12.995
96215SOL    HW290420   4.125   8.988  12.912
96216SOL     OW90421   2.339  13.825   0.901
96216SOL    HW190422   2.331  13.917   0.876
96216SOL    HW290423   2.348  13.779   0.818
96217SOL     OW90424   1.389   3.188   3.651
96217SOL    HW190425   1.364   3.187   3.558
96217SOL    HW290426   1.485   3.177   3.650
96218SOL     OW90427  14.507   7.244  13.811
96218SOL    HW190428  14.438   7.288  13.860
96218SOL    HW290429  14.475   7.155  13.798
96219SOL     OW90430  13.066  10.596   4.020
96219SOL    HW190431  12.992  10.542   4.047
96219SOL    HW290432  13.094  10.558   3.936
96220SOL     OW90433   1.791  13.774   7.612
96220SOL    HW190434   1.845  13.826   7.552
96220SOL    HW290435   1.854  13.739   7.675
96221SOL     OW90436  10.605  11.720  10.521
96221SOL    HW190437  10.575  11.667  10.595
96221SOL    HW290438  10.535  11.784  10.508
96222SOL     OW90439  13.808  12.648  14.550
96222SOL    HW190440  13.840  12.738  14.559
96222SOL    HW290441  13.734  12.642  14.611
96223SOL     OW90442   6.130   2.841   1.134
96223SOL    HW190443   6.072   2.766   1.144
96223SOL    HW290444   6.138   2.877   1.222
96224SOL     OW90445   8.193   9.761  11.125
96224SOL    HW190446   8.140   9.752  11.046
96224SOL    HW290447   8.136   9.731  11.196
96225SOL     OW90448  14.770  13.419   5.037
96225SOL    HW190449  14.787  13.470   5.117
96225SOL    HW290450  14.701  13.358   5.061
96226SOL     OW90451   9.600  10.669   5.964
96226SOL    HW190452   9.630  10.723   6.037
96226SOL    HW290453   9.658  10.593   5.965
96227SOL     OW90454   2.691   9.904   2.667
96227SOL    HW190455   2.774   9.865   2.696
96227SOL    HW290456   2.717   9.976   2.609
96228SOL     OW90457  11.662   6.423   4.656
96228SOL    HW190458  11.675   6.491   4.722
96228SOL    HW290459  11.749   6.384   4.646
96229SOL     OW90460  10.586   8.932  10.526
96229SOL    HW190461  10.558   8.868  10.460
96229SOL    HW290462  10.576   8.887  10.609
96230SOL     OW90463   3.803   0.070   1.965
96230SOL    HW190464   3.788   0.144   2.024
96230SOL    HW290465   3.735   0.078   1.898
96231SOL     OW90466   9.064   8.489  10.720
96231SOL    HW190467   8.988   8.523  10.671
96231SOL    HW290468   9.137   8.498  10.659
96232SOL     OW90469   7.647   5.426   8.960
96232SOL    HW190470   7.675   5.506   9.005
96232SOL    HW290471   7.720   5.404   8.902
96233SOL     OW90472  11.124  14.822   7.097
96233SOL    HW190473  11.095  14.747   7.044
96233SOL    HW290474  11.215  14.835   7.071
96234SOL     OW90475   1.395   6.455   8.023
96234SOL    HW190476   1.456   6.428   8.092
96234SOL    HW290477   1.409   6.549   8.015
96235SOL     OW90478  14.368   0.294  10.876
96235SOL    HW190479  14.390   0.325  10.964
96235SOL    HW290480  14.383   0.370  10.820
96236SOL     OW90481  10.887   6.928   4.137
96236SOL    HW190482  10.803   6.971   4.149
96236SOL    HW290483  10.878   6.879   4.055
96237SOL     OW90484  13.465  13.951  11.274
96237SOL    HW190485  13.514  13.869  11.266
96237SOL    HW290486  13.532  14.020  11.274
96238SOL     OW90487   4.618   2.435  13.527
96238SOL    HW190488   4.591   2.346  13.550
96238SOL    HW290489   4.682   2.423  13.457
96239SOL     OW90490   1.531  10.137   9.927
96239SOL    HW190491   1.583  10.192   9.868
96239SOL    HW290492   1.441  10.153   9.899
96240SOL     OW90493  14.147   7.738   6.640
96240SOL    HW190494  14.163   7.798   6.713
96240SOL    HW290495  14.212   7.763   6.574
96241SOL     OW90496   4.171   9.011   7.816
96241SOL    HW190497   4.222   8.988   7.739
96241SOL    HW290498   4.186   9.105   7.828
96242SOL     OW90499  13.761   5.689   6.656
96242SOL    HW190500  13.712   5.765   6.689
96242SOL    HW290501  13.782   5.711   6.565
96243SOL     OW90502  12.570   0.157  10.498
96243SOL    HW190503  12.487   0.127  10.535
96243SOL    HW290504  12.621   0.077  10.484
96244SOL     OW90505   7.762   4.590   5.892
96244SOL    HW190506   7.701   4.604   5.964
96244SOL    HW290507   7.738   4.658   5.828
96245SOL     OW90508   9.274   1.200   2.727
96245SOL    HW190509   9.343   1.135   2.718
96245SOL    HW290510   9.247   1.219   2.637
96246SOL     OW90511   7.990   8.697   9.738
96246SOL    HW190512   7.918   8.712   9.798
96246SOL    HW290513   8.067   8.735   9.782
96247SOL     OW90514   5.794  11.282  11.479
96247SOL    HW190515   5.761  11.263  11.391
96247SOL    HW290516   5.814  11.376  11.478
96248SOL     OW90517  11.592   8.211  12.775
96248SOL    HW190518  11.575   8.157  12.852
96248SOL    HW290519  11.610   8.298  12.810
96249SOL     OW90520   4.144  13.280   0.644
96249SOL    HW190521   4.147  13.316   0.732
96249SOL    HW290522   4.122  13.188   0.657
96250SOL     OW90523  13.040  10.956   9.599
96250SOL    HW190524  13.128  10.995   9.598
96250SOL    HW290525  13.022  10.935   9.508
96251SOL     OW90526   6.754   8.296  13.158
96251SOL    HW190527   6.712   8.380  13.137
96251SOL    HW290528   6.848   8.316  13.158
96252SOL     OW90529   8.525   8.984  13.573
96252SOL    HW190530   8.621   8.990  13.565
96252SOL    HW290531   8.502   8.904  13.526
96253SOL     OW90532   9.145   9.314   1.895
96253SOL    HW190533   9.076   9.248   1.897
96253SOL    HW290534   9.109   9.388   1.945
96254SOL     OW90535   3.994   7.107  10.899
96254SOL    HW190536   4.079   7.139  10.931
96254SOL    HW290537   3.929   7.156  10.949
96255SOL     OW90538   5.568  12.056   0.289
96255SOL    HW190539   5.583  12.088   0.378
96255SOL    HW290540   5.496  11.994   0.298
96256SOL     OW90541   6.012   9.797   0.472
96256SOL    HW190542   6.048   9.767   0.556
96256SOL    HW290543   5.991   9.889   0.486
96257SOL     OW90544  10.331   4.024  12.667
96257SOL    HW190545  10.260   4.089  12.670
96257SOL    HW290546  10.311   3.970  12.590
96258SOL     OW90547   6.517   8.924   7.888
96258SOL    HW190548   6.472   9.008   7.897
96258SOL    HW290549   6.573   8.935   7.810
96259SOL     OW90550  11.681   7.358  11.850
96259SOL    HW190551  11.684   7.369  11.754
96259SOL    HW290552  11.625   7.282  11.864
96260SOL     OW90553   4.053   7.110   7.870
96260SOL    HW190554   4.137   7.068   7.886
96260SOL    HW290555   4.021   7.070   7.789
96261SOL     OW90556   6.702   3.968  13.475
96261SOL    HW190557   6.719   3.985  13.383
96261SOL    HW290558   6.746   4.040  13.521
96262SOL     OW90559  12.184   9.474   9.439
96262SOL    HW190560  12.154   9.387   9.412
96262SOL    HW290561  12.160   9.479   9.532
96263SOL     OW90562   5.826   5.607   0.626
96263SOL    HW190563   5.759   5.629   0.690
96263SOL    HW290564   5.793   5.528   0.583
96264SOL     OW90565   1.987   3.365  13.649
96264SOL    HW190566   1.991   3.281  13.604
96264SOL    HW290567   2.057   3.417  13.610
96265SOL     OW90568  13.139   3.282   8.958
96265SOL    HW190569  13.183   3.345   8.901
96265SOL    HW290570  13.055   3.322   8.978
96266SOL     OW90571   6.334   5.001   7.780
96266SOL    HW190572   6.356   5.071   7.842
96266SOL    HW290573   6.374   4.922   7.819
96267SOL     OW90574   9.878   4.357   5.601
96267SOL    HW190575   9.913   4.274   5.634
96267SOL    HW290576   9.824   4.390   5.672
96268SOL     OW90577   8.376   2.380   1.478
96268SOL    HW190578   8.454   2.346   1.521
96268SOL    HW290579   8.309   2.383   1.547
96269SOL     OW90580   5.171   4.087   7.467
96269SOL    HW190581   5.245   4.147   7.464
96269SOL    HW290582   5.096   4.140   7.441
96270SOL     OW90583   2.118   2.837   1.757
96270SOL    HW190584   2.157   2.834   1.844
96270SOL    HW290585   2.048   2.902   1.764
96271SOL     OW90586   8.951  10.940   6.611
96271SOL    HW190587   8.900  10.865   6.580
96271SOL    HW290588   8.894  11.016   6.593
96272SOL     OW90589   4.737   2.973   9.997
96272SOL    HW190590   4.748   3.066  10.017
96272SOL    HW290591   4.789   2.928  10.063
96273SOL     OW90592   8.430   2.718   5.335
96273SOL    HW190593   8.384   2.777   5.276
96273SOL    HW290594   8.361   2.677   5.388
96274SOL     OW90595   4.693   6.388  12.004
96274SOL    HW190596   4.647   6.317  11.958
96274SOL    HW290597   4.678   6.370  12.096
96275SOL     OW90598   7.530  10.531   6.901
96275SOL    HW190599   7.440  10.513   6.873
96275SOL    HW290600   7.537  10.627   6.897
96276SOL     OW90601  11.442   8.394   6.490
96276SOL    HW190602  11.367   8.389   6.431
96276SOL    HW290603  11.510   8.343   6.446
96277SOL     OW90604   4.510  13.423   5.666
96277SOL    HW190605   4.501  13.389   5.577
96277SOL    HW290606   4.603  13.444   5.674
96278SOL     OW90607   9.279  11.510   4.285
96278SOL    HW190608   9.195  11.491   4.244
96278SOL    HW290609   9.278  11.461   4.367
96279SOL     OW90610  14.150  13.382   2.508
96279SOL    HW190611  14.141  13.451   2.573
96279SOL    HW290612  14.061  13.368   2.475
96280SOL     OW90613   2.181   0.938   8.277
96280SOL    HW190614   2.254   0.998   8.290
96280SOL    HW290615   2.208   0.884   8.202
96281SOL     OW90616   5.475   3.726   4.676
96281SOL    HW190617   5.432   3.760   4.755
96281SOL    HW290618   5.525   3.800   4.642
96282SOL     OW90619  14.142  13.612   8.567
96282SOL    HW190620  14.081  13.683   8.586
96282SOL    HW290621  14.114  13.579   8.482
96283SOL     OW90622  13.998  11.049   6.764
96283SOL    HW190623  14.075  11.098   6.735
96283SOL    HW290624  13.986  10.981   6.698
96284SOL     OW90625   5.053  13.233  13.786
96284SOL    HW190626   4.964  13.197  13.793
96284SOL    HW290627   5.053  13.309  13.844
96285SOL     OW90628   1.155  13.829   1.021
96285SOL    HW190629   1.132  13.782   1.101
96285SOL    HW290630   1.124  13.919   1.036
96286SOL     OW90631   1.086  11.538  13.954
96286SOL    HW190632   1.001  11.543  13.998
96286SOL    HW290633   1.082  11.604  13.886
96287SOL     OW90634   0.978   8.825   2.397
96287SOL    HW190635   0.926   8.760   2.350
96287SOL    HW290636   0.934   8.908   2.380
96288SOL     OW90637   6.604  12.700   5.754
96288SOL    HW190638   6.662  12.632   5.787
96288SOL    HW290639   6.595  12.762   5.826
96289SOL     OW90640  12.133   9.106  11.684
96289SOL    HW190641  12.143   9.113  11.779
96289SOL    HW290642  12.214   9.065  11.654
96290SOL     OW90643   2.972   9.770   4.497
96290SOL    HW190644   3.028   9.708   4.451
96290SOL    HW290645   2.978   9.743   4.589
96291SOL     OW90646   0.015   7.601   6.494
96291SOL    HW190647   0.006   7.551   6.414
96291SOL    HW290648   0.043   7.537   6.560
96292SOL     OW90649   2.828   1.342   5.815
96292SOL    HW190650   2.897   1.401   5.783
96292SOL    HW290651   2.869   1.256   5.816
96293SOL     OW90652  14.538   8.888  12.044
96293SOL    HW190653  14.575   8.973  12.021
96293SOL    HW290654  14.612   8.827  12.036
96294SOL     OW90655   9.168   8.387   9.435
96294SOL    HW190656   9.125   8.410   9.352
96294SOL    HW290657   9.259   8.369   9.411
96295SOL     OW90658   5.368   9.542  13.141
96295SOL    HW190659   5.443   9.502  13.097
96295SOL    HW290660   5.292   9.497  13.105
96296SOL     OW90661   9.483  10.491  10.417
96296SOL    HW190662   9.560  10.435  10.428
96296SOL    HW290663   9.452  10.507  10.506
96297SOL     OW90664  12.114  10.031   8.612
96297SOL    HW190665  12.148   9.941   8.613
96297SOL    HW290666  12.019  10.021   8.610
96298SOL     OW90667  11.509  13.755  10.112
96298SOL    HW190668  11.438  13.749  10.175
96298SOL    HW290669  11.565  13.826  10.144
96299SOL     OW90670  13.546  14.673   6.001
96299SOL    HW190671  13.571  14.758   5.965
96299SOL    HW290672  13.545  14.686   6.096
96300SOL     OW90673   0.910   3.708   8.560
96300SOL    HW190674   0.998   3.682   8.533
96300SOL    HW290675   0.910   3.699   8.656
96301SOL     OW90676   7.459   6.301  12.355
96301SOL    HW190677   7.454   6.218  12.308
96301SOL    HW290678   7.386   6.353  12.321
96302SOL     OW90679   3.650   7.067   9.546
96302SOL    HW190680   3.736   7.027   9.560
96302SOL    HW290681   3.635   7.057   9.452
96303SOL     OW90682   1.195   3.882   4.834
96303SOL    HW190683   1.203   3.798   4.790
96303SOL    HW290684   1.197   3.861   4.927
96304SOL     OW90685  14.185  12.333   0.184
96304SOL    HW190686  14.152  12.245   0.162
96304SOL    HW290687  14.135  12.392   0.127
96305SOL     OW90688   2.182   7.507   4.940
96305SOL    HW190689   2.270   7.491   4.973
96305SOL    HW290690   2.142   7.563   5.007
96306SOL     OW90691   5.175   4.996   8.073
96306SOL    HW190692   5.198   4.967   8.161
96306SOL    HW290693   5.158   4.915   8.025
96307SOL     OW90694   6.374   4.431   3.852
96307SOL    HW190695   6.429   4.469   3.784
96307SOL    HW290696   6.285   4.439   3.818
96308SOL     OW90697  14.180   4.601   2.947
96308SOL    HW190698  14.170   4.678   2.892
96308SOL    HW290699  14.093   4.585   2.984
96309SOL     OW90700  10.283   8.276   8.832
96309SOL    HW190701  10.263   8.220   8.757
96309SOL    HW290702  10.213   8.341   8.833
96310SOL     OW90703  12.207   4.502   1.636
96310SOL    HW190704  12.255   4.584   1.626
96310SOL    HW290705  12.179   4.480   1.547
96311SOL     OW90706   2.768  11.649   1.675
96311SOL    HW190707   2.805  11.722   1.626
96311SOL    HW290708   2.827  11.576   1.656
96312SOL     OW90709  10.317   4.430   9.987
96312SOL    HW190710  10.290   4.429  10.079
96312SOL    HW290711  10.305   4.521   9.961
96313SOL     OW90712   8.378   3.154   5.784
96313SOL    HW190713   8.320   3.102   5.729
96313SOL    HW290714   8.398   3.232   5.732
96314SOL     OW90715   1.258   2.294   4.408
96314SOL    HW190716   1.258   2.309   4.314
96314SOL    HW290717   1.181   2.342   4.440
96315SOL     OW90718  13.227   4.299   9.935
96315SOL    HW190719  13.162   4.363   9.906
96315SOL    HW290720  13.182   4.246  10.001
96316SOL     OW90721   2.504   1.327   8.454
96316SOL    HW190722   2.423   1.285   8.427
96316SOL    HW290723   2.489   1.355   8.544
96317SOL     OW90724   0.870  12.108   4.286
96317SOL    HW190725   0.853  12.133   4.376
96317SOL    HW290726   0.857  12.188   4.236
96318SOL     OW90727  10.967   8.857   7.321
96318SOL    HW190728  10.889   8.838   7.270
96318SOL    HW290729  10.989   8.774   7.363
96319SOL     OW90730   2.393   3.397  12.558
96319SOL    HW190731   2.444   3.379  12.637
96319SOL    HW290732   2.409   3.490  12.540
96320SOL     OW90733   6.323  10.902  10.292
96320SOL    HW190734   6.343  10.860  10.376
96320SOL    HW290735   6.383  10.976  10.287
96321SOL     OW90736  11.260   8.666   2.843
96321SOL    HW190737  11.355   8.660   2.834
96321SOL    HW290738  11.237   8.744   2.792
96322SOL     OW90739   7.180  12.717   8.986
96322SOL    HW190740   7.220  12.785   8.933
96322SOL    HW290741   7.100  12.757   9.020
96323SOL     OW90742   4.488   1.418   8.854
96323SOL    HW190743   4.554   1.459   8.910
96323SOL    HW290744   4.448   1.351   8.910
96324SOL     OW90745   2.276   0.142   0.906
96324SOL    HW190746   2.246   0.083   0.975
96324SOL    HW290747   2.196   0.180   0.870
96325SOL     OW90748   6.580   7.358   4.184
96325SOL    HW190749   6.667   7.394   4.202
96325SOL    HW290750   6.597   7.272   4.145
96326SOL     OW90751   9.583  14.079  10.244
96326SOL    HW190752   9.658  14.065  10.186
96326SOL    HW290753   9.618  14.129  10.317
96327SOL     OW90754  12.991   6.830  13.956
96327SOL    HW190755  12.907   6.846  13.914
96327SOL    HW290756  12.981   6.745  13.999
96328SOL     OW90757   4.959  13.650  11.675
96328SOL    HW190758   4.924  13.636  11.588
96328SOL    HW290759   4.897  13.606  11.734
96329SOL     OW90760   5.590  12.704   1.854
96329SOL    HW190761   5.580  12.620   1.899
96329SOL    HW290762   5.501  12.731   1.832
96330SOL     OW90763  13.764   2.023  14.739
96330SOL    HW190764  13.806   1.969  14.807
96330SOL    HW290765  13.796   1.987  14.657
96331SOL     OW90766   4.875   9.841   8.547
96331SOL    HW190767   4.918   9.785   8.612
96331SOL    HW290768   4.872   9.928   8.588
96332SOL     OW90769   5.041   5.785   5.315
96332SOL    HW190770   5.058   5.742   5.398
96332SOL    HW290771   5.035   5.878   5.337
96333SOL     OW90772   0.243  11.335  11.656
96333SOL    HW190773   0.309  11.402  11.641
96333SOL    HW290774   0.292  11.263  11.696
96334SOL     OW90775  10.191   8.657   8.185
96334SOL    HW190776  10.261   8.625   8.242
96334SOL    HW290777  10.233   8.724   8.131
96335SOL     OW90778  11.101   9.774  13.887
96335SOL    HW190779  11.115   9.704  13.823
96335SOL    HW290780  11.166   9.840  13.865
96336SOL     OW90781  11.561  14.491   1.259
96336SOL    HW190782  11.655  14.475   1.272
96336SOL    HW290783  11.540  14.445   1.178
96337SOL     OW90784   8.903   2.083  13.112
96337SOL    HW190785   8.847   2.156  13.139
96337SOL    HW290786   8.930   2.105  13.023
96338SOL     OW90787  10.395   2.353   2.618
96338SOL    HW190788  10.324   2.318   2.673
96338SOL    HW290789  10.441   2.415   2.675
96339SOL     OW90790  11.422  13.806  14.154
96339SOL    HW190791  11.349  13.837  14.207
96339SOL    HW290792  11.388  13.805  14.065
96340SOL     OW90793   6.583   4.445   4.149
96340SOL    HW190794   6.528   4.368   4.132
96340SOL    HW290795   6.521   4.514   4.174
96341SOL     OW90796   5.800   6.377   3.789
96341SOL    HW190797   5.722   6.423   3.818
96341SOL    HW290798   5.868   6.401   3.852
96342SOL     OW90799  10.960  11.374   6.996
96342SOL    HW190800  10.917  11.347   7.077
96342SOL    HW290801  10.891  11.415   6.944
96343SOL     OW90802  10.086  14.466   3.777
96343SOL    HW190803  10.134  14.399   3.826
96343SOL    HW290804  10.120  14.460   3.688
96344SOL     OW90805   5.444   5.950   6.292
96344SOL    HW190806   5.395   5.912   6.365
96344SOL    HW290807   5.535   5.925   6.308
96345SOL     OW90808  11.536  14.219   8.761
96345SOL    HW190809  11.476  14.194   8.832
96345SOL    HW290810  11.622  14.223   8.803
96346SOL     OW90811   6.997  10.615   3.043
96346SOL    HW190812   7.034  10.606   3.131
96346SOL    HW290813   6.943  10.536   3.032
96347SOL     OW90814  12.523   4.069   5.367
96347SOL    HW190815  12.586   4.003   5.396
96347SOL    HW290816  12.437   4.034   5.391
96348SOL     OW90817  13.142   2.506   1.166
96348SOL    HW190818  13.213   2.442   1.154
96348SOL    HW290819  13.062   2.455   1.155
96349SOL     OW90820  12.100   5.996   8.832
96349SOL    HW190821  12.010   5.966   8.850
96349SOL    HW290822  12.091   6.050   8.753
96350SOL     OW90823   3.116   7.417  10.351
96350SOL    HW190824   3.140   7.346  10.411
96350SOL    HW290825   3.047   7.464  10.397
96351SOL     OW90826   2.338   6.297  12.676
96351SOL    HW190827   2.361   6.217  12.629
96351SOL    HW290828   2.331   6.364  12.607
96352SOL     OW90829  13.595   4.311   4.468
96352SOL    HW190830  13.556   4.234   4.511
96352SOL    HW290831  13.523   4.350   4.418
96353SOL     OW90832   0.979   2.877  13.594
96353SOL    HW190833   1.070   2.858  13.574
96353SOL    HW290834   0.940   2.792  13.612
96354SOL     OW90835  11.058   0.813  14.419
96354SOL    HW190836  11.105   0.779  14.343
96354SOL    HW290837  11.036   0.903  14.395
96355SOL     OW90838   5.589   5.534  13.748
96355SOL    HW190839   5.654   5.528  13.679
96355SOL    HW290840   5.618   5.608  13.802
96356SOL     OW90841  11.649  11.505   9.993
96356SOL    HW190842  11.673  11.423   9.950
96356SOL    HW290843  11.557  11.518   9.973
96357SOL     OW90844  14.190   2.695  12.966
96357SOL    HW190845  14.144   2.668  13.046
96357SOL    HW290846  14.135   2.764  12.929
96358SOL     OW90847   1.735   2.755   7.595
96358SOL    HW190848   1.728   2.703   7.514
96358SOL    HW290849   1.774   2.695   7.658
96359SOL     OW90850   3.127  14.502  11.195
96359SOL    HW190851   3.214  14.540  11.201
96359SOL    HW290852   3.140  14.417  11.154
96360SOL     OW90853  11.219  12.520   2.895
96360SOL    HW190854  11.144  12.580   2.894
96360SOL    HW290855  11.191  12.445   2.843
96361SOL     OW90856  12.997   4.230   3.079
96361SOL    HW190857  12.926   4.272   3.031
96361SOL    HW290858  13.033   4.166   3.017
96362SOL     OW90859   0.566   9.954   3.416
96362SOL    HW190860   0.572  10.039   3.459
96362SOL    HW290861   0.606   9.893   3.478
96363SOL     OW90862   2.855  14.488   5.039
96363SOL    HW190863   2.862  14.413   5.097
96363SOL    HW290864   2.887  14.456   4.954
96364SOL     OW90865  11.185  12.117  10.073
96364SOL    HW190866  11.134  12.197  10.060
96364SOL    HW290867  11.254  12.144  10.135
96365SOL     OW90868  14.880   2.607   1.704
96365SOL    HW190869   0.087   2.596   1.737
96365SOL    HW290870  14.823   2.590   1.779
96366SOL     OW90871  10.025   4.923   8.509
96366SOL    HW190872  10.087   4.851   8.497
96366SOL    HW290873  10.027   4.971   8.426
96367SOL     OW90874   2.109   3.648   9.243
96367SOL    HW190875   2.176   3.586   9.212
96367SOL    HW290876   2.087   3.700   9.166
96368SOL     OW90877  10.933  10.999   0.996
96368SOL    HW190878  11.018  11.024   1.032
96368SOL    HW290879  10.922  11.053   0.918
96369SOL     OW90880   3.305  12.840   8.724
96369SOL    HW190881   3.290  12.892   8.645
96369SOL    HW290882   3.249  12.763   8.715
96370SOL     OW90883   8.596   7.286  13.548
96370SOL    HW190884   8.554   7.346  13.486
96370SOL    HW290885   8.552   7.303  13.631
96371SOL     OW90886   6.990   9.926  10.727
96371SOL    HW190887   6.986   9.973  10.810
96371SOL    HW290888   6.911   9.872  10.726
96372SOL     OW90889   5.924  14.190   2.228
96372SOL    HW190890   6.013  14.199   2.196
96372SOL    HW290891   5.878  14.142   2.159
96373SOL     OW90892   3.122   2.489   0.912
96373SOL    HW190893   3.121   2.409   0.860
96373SOL    HW290894   3.208   2.490   0.953
96374SOL     OW90895  12.093   8.819  10.526
96374SOL    HW190896  12.079   8.735  10.484
96374SOL    HW290897  12.114   8.798  10.617
96375SOL     OW90898   1.395   6.230  11.996
96375SOL    HW190899   1.449   6.305  11.972
96375SOL    HW290900   1.455   6.155  11.990
96376SOL     OW90901   1.940   2.568  10.399
96376SOL    HW190902   1.902   2.538  10.481
96376SOL    HW290903   1.958   2.487  10.351
96377SOL     OW90904   3.410  10.995   5.786
96377SOL    HW190905   3.496  11.022   5.756
96377SOL    HW290906   3.419  10.901   5.804
96378SOL     OW90907   5.638  10.842   8.985
96378SOL    HW190908   5.594  10.914   9.031
96378SOL    HW290909   5.645  10.872   8.894
96379SOL     OW90910   1.295  12.372   6.544
96379SOL    HW190911   1.374  12.402   6.500
96379SOL    HW290912   1.321  12.361   6.636
96380SOL     OW90913   2.850   8.257   3.073
96380SOL    HW190914   2.800   8.307   3.138
96380SOL    HW290915   2.828   8.297   2.989
96381SOL     OW90916   8.753   6.153   3.547
96381SOL    HW190917   8.807   6.130   3.623
96381SOL    HW290918   8.810   6.140   3.472
96382SOL     OW90919   3.830  13.447  12.566
96382SOL    HW190920   3.773  13.501  12.511
96382SOL    HW290921   3.864  13.380  12.506
96383SOL     OW90922  11.561   4.896   4.871
96383SOL    HW190923  11.566   4.830   4.801
96383SOL    HW290924  11.587   4.848   4.949
96384SOL     OW90925   9.802  13.025   3.252
96384SOL    HW190926   9.782  12.943   3.298
96384SOL    HW290927   9.792  13.092   3.319
96385SOL     OW90928   7.480   2.765   6.885
96385SOL    HW190929   7.460   2.683   6.931
96385SOL    HW290930   7.519   2.821   6.952
96386SOL     OW90931  10.460   7.205   1.153
96386SOL    HW190932  10.387   7.184   1.094
96386SOL    HW290933  10.452   7.299   1.168
96387SOL     OW90934  10.091  12.151   2.218
96387SOL    HW190935   9.998  12.165   2.235
96387SOL    HW290936  10.136  12.203   2.285
96388SOL     OW90937   1.254  14.218   7.059
96388SOL    HW190938   1.246  14.189   6.968
96388SOL    HW290939   1.307  14.151   7.101
96389SOL     OW90940  10.654   6.756   3.486
96389SOL    HW190941  10.563   6.772   3.459
96389SOL    HW290942  10.705   6.771   3.406
96390SOL     OW90943   3.432  12.854   3.797
96390SOL    HW190944   3.470  12.941   3.810
96390SOL    HW290945   3.497  12.806   3.746
96391SOL     OW90946   8.069   9.360   2.279
96391SOL    HW190947   8.032   9.386   2.364
96391SOL    HW290948   8.160   9.337   2.299
96392SOL     OW90949   2.793  13.645   1.353
96392SOL    HW190950   2.859  13.700   1.394
96392SOL    HW290951   2.843  13.585   1.297
96393SOL     OW90952  14.346  14.435   8.828
96393SOL    HW190953  14.404  14.494   8.876
96393SOL    HW290954  14.356  14.351   8.872
96394SOL     OW90955  12.368   8.854   3.984
96394SOL    HW190956  12.406   8.766   3.981
96394SOL    HW290957  12.443   8.913   3.988
96395SOL     OW90958  12.881   3.883   8.681
96395SOL    HW190959  12.792   3.885   8.715
96395SOL    HW290960  12.934   3.924   8.750
96396SOL     OW90961   9.492   6.309   6.053
96396SOL    HW190962   9.544   6.289   5.976
96396SOL    HW290963   9.406   6.270   6.035
96397SOL     OW90964   5.028   0.782   6.444
96397SOL    HW190965   4.962   0.807   6.509
96397SOL    HW290966   4.993   0.701   6.405
96398SOL     OW90967   4.945   8.756   7.783
96398SOL    HW190968   4.955   8.784   7.692
96398SOL    HW290969   4.926   8.837   7.831
96399SOL     OW90970   8.838   9.729   1.929
96399SOL    HW190971   8.752   9.709   1.891
96399SOL    HW290972   8.897   9.665   1.889
96400SOL     OW90973   1.185  13.083   8.826
96400SOL    HW190974   1.202  13.176   8.841
96400SOL    HW290975   1.113  13.062   8.884
96401SOL     OW90976   0.291   3.051  12.430
96401SOL    HW190977   0.233   3.126  12.412
96401SOL    HW290978   0.374   3.091  12.455
96402SOL     OW90979   1.980  13.719  12.854
96402SOL    HW190980   1.929  13.641  12.831
96402SOL    HW290981   1.915  13.783  12.884
96403SOL     OW90982   7.470   4.243  11.976
96403SOL    HW190983   7.503   4.226  11.887
96403SOL    HW290984   7.546   4.276  12.024
96404SOL     OW90985  13.189  12.430   4.986
96404SOL    HW190986  13.173  12.489   4.912
96404SOL    HW290987  13.243  12.360   4.950
96405SOL     OW90988  12.089   9.054   1.798
96405SOL    HW190989  12.054   9.066   1.710
96405SOL    HW290990  12.094   9.143   1.834
96406SOL     OW90991  11.992  13.365   8.177
96406SOL    HW190992  12.053  13.429   8.139
96406SOL    HW290993  11.914  13.371   8.121
96407SOL     OW90994   6.580   7.514  13.593
96407SOL    HW190995   6.520   7.565  13.648
96407SOL    HW290996   6.667   7.540  13.622
96408SOL     OW90997  14.802  14.439   3.361
96408SOL    HW190998  14.763  14.509   3.308
96408SOL    HW290999  14.747  14.435   3.440
96409SOL     OW91000   0.572   7.963  13.471
96409SOL    HW191001   0.496   7.956  13.529
96409SOL    HW291002   0.626   8.031  13.512
96410SOL     OW91003   0.336   4.224  14.561
96410SOL    HW191004   0.385   4.278  14.499
96410SOL    HW291005   0.403   4.180  14.614
96411SOL     OW91006  11.163  13.589  13.141
96411SOL    HW191007  11.215  13.539  13.204
96411SOL    HW291008  11.181  13.681  13.163
96412SOL     OW91009  13.479  12.243  14.442
96412SOL    HW191010  13.541  12.287  14.384
96412SOL    HW291011  13.507  12.268  14.530
96413SOL     OW91012  13.984   9.333   2.410
96413SOL    HW191013  13.964   9.371   2.324
96413SOL    HW291014  13.953   9.397   2.473
96414SOL     OW91015   4.439   9.242   0.604
96414SOL    HW191016   4.466   9.331   0.582
96414SOL    HW291017   4.455   9.235   0.698
96415SOL     OW91018  14.199   8.904  13.420
96415SOL    HW191019  14.120   8.958  13.416
96415SOL    HW291020  14.177   8.834  13.481
96416SOL     OW91021  13.537   0.347   2.271
96416SOL    HW191022  13.619   0.299   2.264
96416SOL    HW291023  13.525   0.386   2.184
96417SOL     OW91024   7.810  12.781  12.102
96417SOL    HW191025   7.814  12.847  12.171
96417SOL    HW291026   7.800  12.831  12.021
96418SOL     OW91027   2.016   0.538   8.426
96418SOL    HW191028   2.103   0.558   8.460
96418SOL    HW291029   2.029   0.461   8.372
96419SOL     OW91030   9.229  13.121   8.135
96419SOL    HW191031   9.234  13.197   8.077
96419SOL    HW291032   9.318  13.109   8.167
96420SOL     OW91033   0.323   3.202   5.533
96420SOL    HW191034   0.343   3.111   5.554
96420SOL    HW291035   0.228   3.205   5.527
96421SOL     OW91036   4.365   0.312   2.206
96421SOL    HW191037   4.292   0.251   2.199
96421SOL    HW291038   4.370   0.354   2.120
96422SOL     OW91039   7.316  14.333   7.930
96422SOL    HW191040   7.322  14.252   7.879
96422SOL    HW291041   7.406  14.353   7.955
96423SOL     OW91042   6.043   4.454   9.477
96423SOL    HW191043   6.076   4.400   9.550
96423SOL    HW291044   5.987   4.519   9.519
96424SOL     OW91045   4.020   8.574  10.669
96424SOL    HW191046   4.029   8.482  10.693
96424SOL    HW291047   3.945   8.605  10.720
96425SOL     OW91048  14.654  14.558   8.040
96425SOL    HW191049  14.611  14.475   8.019
96425SOL    HW291050  14.712  14.537   8.113
96426SOL     OW91051   6.059   8.469  13.537
96426SOL    HW191052   6.097   8.459  13.624
96426SOL    HW291053   6.037   8.380  13.510
96427SOL     OW91054  11.863  13.493   0.025
96427SOL    HW191055  11.852  13.486   0.120
96427SOL    HW291056  11.781  13.458  14.870
96428SOL     OW91057   7.345   8.472   9.641
96428SOL    HW191058   7.436   8.479   9.671
96428SOL    HW291059   7.318   8.383   9.666
96429SOL     OW91060  13.998  10.808  11.438
96429SOL    HW191061  14.091  10.832  11.439
96429SOL    HW291062  13.995  10.720  11.475
96430SOL     OW91063   5.229  11.111  12.368
96430SOL    HW191064   5.285  11.188  12.381
96430SOL    HW291065   5.181  11.103  12.450
96431SOL     OW91066   4.695   3.772   8.993
96431SOL    HW191067   4.748   3.775   8.914
96431SOL    HW291068   4.655   3.859   8.998
96432SOL     OW91069  11.519  12.258   3.996
96432SOL    HW191070  11.513  12.337   4.050
96432SOL    HW291071  11.429  12.226   3.992
96433SOL     OW91072  12.876   3.079   2.670
96433SOL    HW191073  12.808   3.143   2.650
96433SOL    HW291074  12.871   3.068   2.765
96434SOL     OW91075   2.296   4.621   4.416
96434SOL    HW191076   2.243   4.689   4.372
96434SOL    HW291077   2.337   4.667   4.489
96435SOL     OW91078   2.080   4.262   1.321
96435SOL    HW191079   2.074   4.295   1.410
96435SOL    HW291080   2.126   4.178   1.329
96436SOL     OW91081   8.044   3.257   7.833
96436SOL    HW191082   7.989   3.202   7.890
96436SOL    HW291083   8.019   3.347   7.856
96437SOL     OW91084   5.019   1.910  11.718
96437SOL    HW191085   5.086   1.845  11.694
96437SOL    HW291086   4.964   1.916  11.640
96438SOL     OW91087   1.825  13.420  13.945
96438SOL    HW191088   1.918  13.436  13.960
96438SOL    HW291089   1.794  13.382  14.028
96439SOL     OW91090   0.801   6.128   1.041
96439SOL    HW191091   0.742   6.071   0.991
96439SOL    HW291092   0.745   6.200   1.071
96440SOL     OW91093   0.893   1.700   4.946
96440SOL    HW191094   0.804   1.733   4.954
96440SOL    HW291095   0.945   1.759   5.002
96441SOL     OW91096   3.115  13.274   5.501
96441SOL    HW191097   3.208  13.261   5.521
96441SOL    HW291098   3.087  13.190   5.465
96442SOL     OW91099  14.327   9.649   7.535
96442SOL    HW191100  14.272   9.716   7.574
96442SOL    HW291101  14.270   9.572   7.527
96443SOL     OW91102   2.278  13.621  10.249
96443SOL    HW191103   2.344  13.558  10.278
96443SOL    HW291104   2.258  13.594  10.159
96444SOL     OW91105   9.541   3.970  11.794
96444SOL    HW191106   9.484   3.912  11.743
96444SOL    HW291107   9.530   3.941  11.884
96445SOL     OW91108   8.621   3.071   7.442
96445SOL    HW191109   8.705   3.114   7.454
96445SOL    HW291110   8.643   2.981   7.418
96446SOL     OW91111   7.134   8.961   5.310
96446SOL    HW191112   7.173   8.931   5.392
96446SOL    HW291113   7.206   8.999   5.261
96447SOL     OW91114  12.318   4.374   4.878
96447SOL    HW191115  12.342   4.431   4.951
96447SOL    HW291116  12.258   4.309   4.916
96448SOL     OW91117  12.314   1.487   4.489
96448SOL    HW191118  12.349   1.402   4.515
96448SOL    HW291119  12.356   1.505   4.405
96449SOL     OW91120   5.604  13.445  12.870
96449SOL    HW191121   5.592  13.504  12.795
96449SOL    HW291122   5.520  13.447  12.916
96450SOL     OW91123   8.324   3.960  11.515
96450SOL    HW191124   8.386   3.891  11.491
96450SOL    HW291125   8.264   3.966  11.441
96451SOL     OW91126   9.875  10.129   8.801
96451SOL    HW191127   9.867  10.181   8.722
96451SOL    HW291128   9.944  10.171   8.852
96452SOL     OW91129  14.263  11.418   6.027
96452SOL    HW191130  14.177  11.422   5.985
96452SOL    HW291131  14.247  11.435   6.119
96453SOL     OW91132   0.478   1.431   3.626
96453SOL    HW191133   0.444   1.344   3.648
96453SOL    HW291134   0.565   1.414   3.589
96454SOL     OW91135   8.202   7.715  11.261
96454SOL    HW191136   8.152   7.639  11.232
96454SOL    HW291137   8.285   7.679  11.292
96455SOL     OW91138   7.720  11.305  11.020
96455SOL    HW191139   7.766  11.387  11.040
96455SOL    HW291140   7.790  11.240  11.012
96456SOL     OW91141   7.829   6.940   3.697
96456SOL    HW191142   7.803   6.848   3.692
96456SOL    HW291143   7.868   6.959   3.612
96457SOL     OW91144   5.891   4.092   3.910
96457SOL    HW191145   5.929   4.090   3.822
96457SOL    HW291146   5.926   4.014   3.953
96458SOL     OW91147   7.127   7.010   1.708
96458SOL    HW191148   7.144   6.940   1.771
96458SOL    HW291149   7.034   7.000   1.685
96459SOL     OW91150   1.445   5.779   5.494
96459SOL    HW191151   1.519   5.788   5.554
96459SOL    HW291152   1.395   5.704   5.528
96460SOL     OW91153   0.097   1.256   1.564
96460SOL    HW191154   0.066   1.308   1.490
96460SOL    HW291155   0.079   1.311   1.641
96461SOL     OW91156   9.803   9.086  13.885
96461SOL    HW191157   9.761   9.172  13.882
96461SOL    HW291158   9.761   9.037  13.815
96462SOL     OW91159   1.924  11.569   0.342
96462SOL    HW191160   1.959  11.514   0.272
96462SOL    HW291161   1.993  11.568   0.409
96463SOL     OW91162   3.817   3.033  10.022
96463SOL    HW191163   3.727   3.066  10.017
96463SOL    HW291164   3.856   3.081  10.095
96464SOL     OW91165   3.213  14.621   8.482
96464SOL    HW191166   3.261  14.611   8.400
96464SOL    HW291167   3.260  14.564   8.544
96465SOL     OW91168   9.014   4.038   5.743
96465SOL    HW191169   8.934   4.021   5.693
96465SOL    HW291170   9.073   4.079   5.680
96466SOL     OW91171   8.334   8.269   7.925
96466SOL    HW191172   8.258   8.327   7.917
96466SOL    HW291173   8.397   8.319   7.976
96467SOL     OW91174   9.237   3.675  11.186
96467SOL    HW191175   9.229   3.622  11.264
96467SOL    HW291176   9.208   3.763  11.213
96468SOL     OW91177   9.364  10.308  14.575
96468SOL    HW191178   9.317  10.326  14.493
96468SOL    HW291179   9.425  10.237  14.553
96469SOL     OW91180   9.991  11.969   5.113
96469SOL    HW191181  10.078  11.931   5.101
96469SOL    HW291182   9.951  11.916   5.182
96470SOL     OW91183   2.432   1.861  12.553
96470SOL    HW191184   2.343   1.842  12.581
96470SOL    HW291185   2.433   1.956  12.538
96471SOL     OW91186   5.403  13.650   7.421
96471SOL    HW191187   5.448  13.568   7.441
96471SOL    HW291188   5.449  13.685   7.344
96472SOL     OW91189  11.544  14.356  11.412
96472SOL    HW191190  11.535  14.282  11.472
96472SOL    HW291191  11.614  14.330  11.352
96473SOL     OW91192  10.532   1.560   2.741
96473SOL    HW191193  10.575   1.492   2.792
96473SOL    HW291194  10.453   1.581   2.791
96474SOL     OW91195   7.505   6.925   6.101
96474SOL    HW191196   7.503   6.925   6.196
96474SOL    HW291197   7.594   6.901   6.078
96475SOL     OW91198  13.725   9.659  10.339
96475SOL    HW191199  13.693   9.593  10.400
96475SOL    HW291200  13.662   9.659  10.267
96476SOL     OW91201   0.899   9.373   4.918
96476SOL    HW191202   0.912   9.453   4.866
96476SOL    HW291203   0.987   9.344   4.940
96477SOL     OW91204   9.817   0.318   6.876
96477SOL    HW191205   9.728   0.298   6.904
96477SOL    HW291206   9.808   0.345   6.784
96478SOL     OW91207  10.650   3.096   0.030
96478SOL    HW191208  10.678   3.030   0.094
96478SOL    HW291209  10.732   3.124  14.869
96479SOL     OW91210   0.019   3.678   3.665
96479SOL    HW191211   0.018   3.675   3.760
96479SOL    HW291212   0.036   3.770   3.643
96480SOL     OW91213   9.636  12.674   1.175
96480SOL    HW191214   9.694  12.667   1.099
96480SOL    HW291215   9.618  12.583   1.200
96481SOL     OW91216   8.526   8.489   4.415
96481SOL    HW191217   8.519   8.525   4.504
96481SOL    HW291218   8.466   8.415   4.414
96482SOL     OW91219  10.783   1.822   5.388
96482SOL    HW191220  10.761   1.879   5.461
96482SOL    HW291221  10.877   1.835   5.374
96483SOL     OW91222   2.723   9.310  13.158
96483SOL    HW191223   2.789   9.241  13.153
96483SOL    HW291224   2.640   9.265  13.137
96484SOL     OW91225   6.385  11.667  14.832
96484SOL    HW191226   6.470  11.623  14.833
96484SOL    HW291227   6.404  11.755  14.800
96485SOL     OW91228   4.075   9.096  13.586
96485SOL    HW191229   4.065   9.139  13.501
96485SOL    HW291230   4.118   9.013  13.566
96486SOL     OW91231  11.740   4.638   7.796
96486SOL    HW191232  11.746   4.560   7.851
96486SOL    HW291233  11.647   4.660   7.796
96487SOL     OW91234   7.807   4.448   7.226
96487SOL    HW191235   7.865   4.456   7.151
96487SOL    HW291236   7.762   4.365   7.213
96488SOL     OW91237   0.755   1.129   4.092
96488SOL    HW191238   0.702   1.146   4.170
96488SOL    HW291239   0.815   1.059   4.118
96489SOL     OW91240   6.093  13.802   1.854
96489SOL    HW191241   6.122  13.780   1.942
96489SOL    HW291242   6.022  13.741   1.836
96490SOL     OW91243  10.509   7.991  11.144
96490SOL    HW191244  10.552   8.028  11.221
96490SOL    HW291245  10.560   7.912  11.123
96491SOL     OW91246  10.718   9.649   6.163
96491SOL    HW191247  10.803   9.633   6.204
96491SOL    HW291248  10.737   9.653   6.070
96492SOL     OW91249  11.775   5.393  13.066
96492SOL    HW191250  11.696   5.381  13.013
96492SOL    HW291251  11.847   5.370  13.007
96493SOL     OW91252   4.351   8.900   8.518
96493SOL    HW191253   4.395   8.894   8.603
96493SOL    HW291254   4.417   8.873   8.455
96494SOL     OW91255   9.695  12.765   8.542
96494SOL    HW191256   9.687  12.681   8.497
96494SOL    HW291257   9.636  12.757   8.617
96495SOL     OW91258   8.072  10.691   8.609
96495SOL    HW191259   8.040  10.701   8.699
96495SOL    HW291260   8.133  10.617   8.613
96496SOL     OW91261   6.857   5.377   9.263
96496SOL    HW191262   6.790   5.422   9.211
96496SOL    HW291263   6.930   5.440   9.268
96497SOL     OW91264   2.649   2.100   9.382
96497SOL    HW191265   2.723   2.129   9.329
96497SOL    HW291266   2.630   2.011   9.352
96498SOL     OW91267   9.519  11.167   0.883
96498SOL    HW191268   9.439  11.114   0.881
96498SOL    HW291269   9.574  11.129   0.814
96499SOL     OW91270   6.737   2.538   4.375
96499SOL    HW191271   6.787   2.475   4.428
96499SOL    HW291272   6.665   2.564   4.432
96500SOL     OW91273  10.094   4.700  12.558
96500SOL    HW191274  10.041   4.649  12.619
96500SOL    HW291275  10.173   4.648  12.544
96501SOL     OW91276  12.086  10.706  12.827
96501SOL    HW191277  12.120  10.652  12.899
96501SOL    HW291278  12.132  10.789  12.835
96502SOL     OW91279  11.792   7.255  13.160
96502SOL    HW191280  11.782   7.326  13.096
96502SOL    HW291281  11.850   7.292  13.227
96503SOL     OW91282   9.918   3.208  11.823
96503SOL    HW191283   9.839   3.180  11.870
96503SOL    HW291284   9.935   3.297  11.855
96504SOL     OW91285  13.209  11.081   8.226
96504SOL    HW191286  13.163  11.019   8.169
96504SOL    HW291287  13.297  11.087   8.190
96505SOL     OW91288   0.611  12.681  14.695
96505SOL    HW191289   0.520  12.668  14.670
96505SOL    HW291290   0.610  12.755  14.755
96506SOL     OW91291  13.605   4.723   3.886
96506SOL    HW191292  13.648   4.679   3.813
96506SOL    HW291293  13.671   4.722   3.956
96507SOL     OW91294  13.554   3.743   0.264
96507SOL    HW191295  13.621   3.740   0.195
96507SOL    HW291296  13.595   3.791   0.336
96508SOL     OW91297  13.920  10.492  12.428
96508SOL    HW191298  13.840  10.506  12.479
96508SOL    HW291299  13.894  10.427  12.362
96509SOL     OW91300  10.561   8.811   3.898
96509SOL    HW191301  10.539   8.851   3.814
96509SOL    HW291302  10.504   8.854   3.962
96510SOL     OW91303  11.805  12.419   6.807
96510SOL    HW191304  11.768  12.425   6.719
96510SOL    HW291305  11.833  12.508   6.828
96511SOL     OW91306   6.761  14.187  14.059
96511SOL    HW191307   6.789  14.262  14.006
96511SOL    HW291308   6.842  14.140  14.079
96512SOL     OW91309  14.539  13.680  13.439
96512SOL    HW191310  14.615  13.669  13.497
96512SOL    HW291311  14.564  13.634  13.359
96513SOL     OW91312   7.966   2.674   5.748
96513SOL    HW191313   7.878   2.701   5.774
96513SOL    HW291314   8.018   2.685   5.828
96514SOL     OW91315   3.601  10.105   2.367
96514SOL    HW191316   3.511  10.076   2.355
96514SOL    HW291317   3.614  10.172   2.299
96515SOL     OW91318  11.173   0.012   1.061
96515SOL    HW191319  11.087   0.038   1.095
96515SOL    HW291320  11.235   0.058   1.118
96516SOL     OW91321   2.396   3.812  12.312
96516SOL    HW191322   2.331   3.876  12.341
96516SOL    HW291323   2.466   3.817  12.377
96517SOL     OW91324   9.747   1.022   9.478
96517SOL    HW191325   9.794   0.954   9.525
96517SOL    HW291326   9.771   1.009   9.386
96518SOL     OW91327   8.037   1.024  13.223
96518SOL    HW191328   8.034   1.118  13.244
96518SOL    HW291329   8.129   1.000  13.238
96519SOL     OW91330  10.646   7.241   0.722
96519SOL    HW191331  10.725   7.191   0.741
96519SOL    HW291332  10.671   7.302   0.654
96520SOL     OW91333   4.702  13.644  11.148
96520SOL    HW191334   4.741  13.586  11.213
96520SOL    HW291335   4.615  13.608  11.132
96521SOL     OW91336   3.828  12.980   1.879
96521SOL    HW191337   3.830  12.885   1.893
96521SOL    HW291338   3.739  13.005   1.904
96522SOL     OW91339   2.572  13.510   2.108
96522SOL    HW191340   2.477  13.512   2.091
96522SOL    HW291341   2.578  13.510   2.204
96523SOL     OW91342  12.067   1.860   4.781
96523SOL    HW191343  12.102   1.779   4.745
96523SOL    HW291344  12.005   1.832   4.848
96524SOL     OW91345   9.254   8.829   9.707
96524SOL    HW191346   9.296   8.905   9.667
96524SOL    HW291347   9.313   8.756   9.687
96525SOL     OW91348   2.562  11.552   5.971
96525SOL    HW191349   2.620  11.613   5.925
96525SOL    HW291350   2.602  11.466   5.957
96526SOL     OW91351   0.073  11.273   1.229
96526SOL    HW191352   0.063  11.279   1.134
96526SOL    HW291353   0.116  11.189   1.244
96527SOL     OW91354  12.974   3.215  11.080
96527SOL    HW191355  12.886   3.237  11.049
96527SOL    HW291356  12.970   3.228  11.175
96528SOL     OW91357   3.974   0.748   3.666
96528SOL    HW191358   3.985   0.714   3.577
96528SOL    HW291359   4.024   0.829   3.667
96529SOL     OW91360   8.821   3.849  10.752
96529SOL    HW191361   8.907   3.841  10.710
96529SOL    HW291362   8.841   3.871  10.843
96530SOL     OW91363   8.391   1.384  14.780
96530SOL    HW191364   8.402   1.461  14.724
96530SOL    HW291365   8.412   1.414  14.868
96531SOL     OW91366   0.197   2.892   8.411
96531SOL    HW191367   0.210   2.827   8.342
96531SOL    HW291368   0.121   2.943   8.384
96532SOL     OW91369  11.951  12.187  12.201
96532SOL    HW191370  11.964  12.092  12.198
96532SOL    HW291371  11.876  12.199  12.258
96533SOL     OW91372   1.097  13.814   5.700
96533SOL    HW191373   1.138  13.808   5.787
96533SOL    HW291374   1.168  13.842   5.643
96534SOL     OW91375  11.095  10.514   9.523
96534SOL    HW191376  11.048  10.534   9.442
96534SOL    HW291377  11.145  10.435   9.503
96535SOL     OW91378  12.618   5.948  10.802
96535SOL    HW191379  12.551   5.931  10.869
96535SOL    HW291380  12.696   5.905  10.836
96536SOL     OW91381  14.593  11.691  11.657
96536SOL    HW191382  14.538  11.643  11.720
96536SOL    HW291383  14.643  11.624  11.612
96537SOL     OW91384   4.946   9.902  11.596
96537SOL    HW191385   4.943   9.974  11.659
96537SOL    HW291386   5.019   9.923  11.538
96538SOL     OW91387   2.342   2.209   7.975
96538SOL    HW191388   2.432   2.228   8.000
96538SOL    HW291389   2.346   2.188   7.882
96539SOL     OW91390   5.060   9.243   1.646
96539SOL    HW191391   5.008   9.180   1.697
96539SOL    HW291392   5.074   9.199   1.562
96540SOL     OW91393   8.193  10.930   6.484
96540SOL    HW191394   8.125  10.862   6.480
96540SOL    HW291395   8.249  10.912   6.408
96541SOL     OW91396  11.447   7.325   7.405
96541SOL    HW191397  11.519   7.350   7.463
96541SOL    HW291398  11.458   7.231   7.393
96542SOL     OW91399   9.371  11.077   6.786
96542SOL    HW191400   9.414  11.016   6.846
96542SOL    HW291401   9.320  11.022   6.727
96543SOL     OW91402  11.349  14.112  14.068
96543SOL    HW191403  11.405  14.190  14.074
96543SOL    HW291404  11.396  14.045  14.117
96544SOL     OW91405   4.854   9.952   1.206
96544SOL    HW191406   4.868  10.045   1.193
96544SOL    HW291407   4.928   9.923   1.260
96545SOL     OW91408   9.614  14.316  14.344
96545SOL    HW191409   9.586  14.375  14.274
96545SOL    HW291410   9.589  14.361  14.424
96546SOL     OW91411   5.742   6.162   2.866
96546SOL    HW191412   5.720   6.252   2.891
96546SOL    HW291413   5.815   6.171   2.805
96547SOL     OW91414   3.525  11.478   0.647
96547SOL    HW191415   3.438  11.438   0.647
96547SOL    HW291416   3.561  11.456   0.733
96548SOL     OW91417   3.113  10.316   4.741
96548SOL    HW191418   3.076  10.257   4.676
96548SOL    HW291419   3.157  10.384   4.689
96549SOL     OW91420  12.336   1.454   5.659
96549SOL    HW191421  12.357   1.361   5.650
96549SOL    HW291422  12.360   1.492   5.575
96550SOL     OW91423   7.687   8.238  11.862
96550SOL    HW191424   7.768   8.257  11.814
96550SOL    HW291425   7.617   8.264  11.801
96551SOL     OW91426   3.344  13.916   6.171
96551SOL    HW191427   3.299  13.843   6.213
96551SOL    HW291428   3.435  13.886   6.162
96552SOL     OW91429   2.400   4.642   9.507
96552SOL    HW191430   2.378   4.732   9.532
96552SOL    HW291431   2.429   4.602   9.589
96553SOL     OW91432  13.502   1.171  11.583
96553SOL    HW191433  13.543   1.255  11.603
96553SOL    HW291434  13.458   1.186  11.499
96554SOL     OW91435  12.998  14.808  14.751
96554SOL    HW191436  12.944  14.732  14.729
96554SOL    HW291437  12.959  14.843  14.831
96555SOL     OW91438   8.915  12.702  14.033
96555SOL    HW191439   8.956  12.746  14.108
96555SOL    HW291440   8.915  12.609  14.057
96556SOL     OW91441   5.185   3.267   3.105
96556SOL    HW191442   5.255   3.205   3.128
96556SOL    HW291443   5.231   3.343   3.070
96557SOL     OW91444   2.689   6.297  14.559
96557SOL    HW191445   2.633   6.359  14.512
96557SOL    HW291446   2.664   6.306  14.651
96558SOL     OW91447  14.803   1.291   5.750
96558SOL    HW191448  14.742   1.331   5.689
96558SOL    HW291449  14.817   1.358   5.817
96559SOL     OW91450   8.064  13.166  11.414
96559SOL    HW191451   8.033  13.077  11.397
96559SOL    HW291452   8.118  13.187  11.337
96560SOL     OW91453   2.959   7.696   5.285
96560SOL    HW191454   3.015   7.631   5.242
96560SOL    HW291455   2.987   7.780   5.249
96561SOL     OW91456   2.490   3.856   3.157
96561SOL    HW191457   2.446   3.941   3.165
96561SOL    HW291458   2.523   3.855   3.067
96562SOL     OW91459   1.221   5.548   6.435
96562SOL    HW191460   1.246   5.536   6.344
96562SOL    HW291461   1.267   5.628   6.462
96563SOL     OW91462   2.812  12.107  11.852
96563SOL    HW191463   2.829  12.187  11.903
96563SOL    HW291464   2.892  12.094  11.802
96564SOL     OW91465   2.659   4.156   9.479
96564SOL    HW191466   2.600   4.095   9.434
96564SOL    HW291467   2.746   4.119   9.466
96565SOL     OW91468   8.835   4.210   9.388
96565SOL    HW191469   8.879   4.285   9.349
96565SOL    HW291470   8.846   4.140   9.323
96566SOL     OW91471  13.562   0.524  14.424
96566SOL    HW191472  13.522   0.556  14.342
96566SOL    HW291473  13.651   0.559  14.422
96567SOL     OW91474  10.734   5.342   7.046
96567SOL    HW191475  10.645   5.341   7.011
96567SOL    HW291476  10.746   5.255   7.084
96568SOL     OW91477   0.099  10.159   6.179
96568SOL    HW191478   0.154  10.203   6.114
96568SOL    HW291479   0.125  10.197   6.263
96569SOL     OW91480   7.290   9.944  13.584
96569SOL    HW191481   7.277  10.028  13.540
96569SOL    HW291482   7.248   9.955  13.670
96570SOL     OW91483   0.775  13.051   0.045
96570SOL    HW191484   0.778  13.131   0.098
96570SOL    HW291485   0.824  12.986   0.097
96571SOL     OW91486   3.865  13.453   0.004
96571SOL    HW191487   3.855  13.366   0.043
96571SOL    HW291488   3.949  13.485   0.038
96572SOL     OW91489   1.359  11.329   7.291
96572SOL    HW191490   1.321  11.379   7.363
96572SOL    HW291491   1.285  11.306   7.235
96573SOL     OW91492  10.165   1.738  11.067
96573SOL    HW191493  10.112   1.660  11.083
96573SOL    HW291494  10.120   1.783  10.996
96574SOL     OW91495   1.312   1.498  14.187
96574SOL    HW191496   1.265   1.558  14.244
96574SOL    HW291497   1.246   1.465  14.127
96575SOL     OW91498   2.570   9.551  13.971
96575SOL    HW191499   2.645   9.513  14.016
96575SOL    HW291500   2.516   9.588  14.041
96576SOL     OW91501   1.613   2.588   6.066
96576SOL    HW191502   1.519   2.603   6.051
96576SOL    HW291503   1.637   2.523   6.000
96577SOL     OW91504   6.818  12.903   6.840
96577SOL    HW191505   6.772  12.920   6.922
96577SOL    HW291506   6.784  12.968   6.779
96578SOL     OW91507  14.006   6.668   1.042
96578SOL    HW191508  14.027   6.587   1.088
96578SOL    HW291509  13.954   6.718   1.104
96579SOL     OW91510  10.105   5.578   5.310
96579SOL    HW191511  10.146   5.645   5.365
96579SOL    HW291512  10.110   5.614   5.222
96580SOL     OW91513  12.960   5.400  12.942
96580SOL    HW191514  12.988   5.437  13.026
96580SOL    HW291515  12.993   5.461  12.876
96581SOL     OW91516   3.267  12.666   1.615
96581SOL    HW191517   3.223  12.588   1.648
96581SOL    HW291518   3.360  12.647   1.625
96582SOL     OW91519  11.124   5.854   0.972
96582SOL    HW191520  11.073   5.784   1.013
96582SOL    HW291521  11.083   5.867   0.887
96583SOL     OW91522   8.539   1.108  12.070
96583SOL    HW191523   8.622   1.069  12.045
96583SOL    HW291524   8.483   1.033  12.092
96584SOL     OW91525  11.632   0.990   9.130
96584SOL    HW191526  11.566   0.923   9.114
96584SOL    HW291527  11.628   1.048   9.055
96585SOL     OW91528   2.363  11.742   6.139
96585SOL    HW191529   2.416  11.809   6.181
96585SOL    HW291530   2.421  11.700   6.077
96586SOL     OW91531  14.466   4.477   0.702
96586SOL    HW191532  14.404   4.412   0.736
96586SOL    HW291533  14.551   4.448   0.735
96587SOL     OW91534  13.467   6.918   5.431
96587SOL    HW191535  13.516   6.987   5.475
96587SOL    HW291536  13.489   6.838   5.479
96588SOL     OW91537  12.101   0.883   4.611
96588SOL    HW191538  12.023   0.932   4.586
96588SOL    HW291539  12.082   0.793   4.588
96589SOL     OW91540  11.901   9.582   4.497
96589SOL    HW191541  11.810   9.609   4.512
96589SOL    HW291542  11.923   9.529   4.574
96590SOL     OW91543   2.789  10.973   7.848
96590SOL    HW191544   2.840  10.979   7.928
96590SOL    HW291545   2.845  11.012   7.781
96591SOL     OW91546   9.781   3.926   3.760
96591SOL    HW191547   9.807   3.872   3.835
96591SOL    HW291548   9.861   3.933   3.707
96592SOL     OW91549   2.437   8.402   3.373
96592SOL    HW191550   2.429   8.488   3.331
96592SOL    HW291551   2.527   8.400   3.405
96593SOL     OW91552   7.332   9.165   2.710
96593SOL    HW191553   7.286   9.088   2.742
96593SOL    HW291554   7.278   9.239   2.739
96594SOL     OW91555   1.509  14.595  14.089
96594SOL    HW191556   1.418  14.586  14.062
96594SOL    HW291557   1.550  14.647  14.020
96595SOL     OW91558   0.641  10.563   3.596
96595SOL    HW191559   0.680  10.476   3.596
96595SOL    HW291560   0.715  10.623   3.602
96596SOL     OW91561   2.778  14.862   7.120
96596SOL    HW191562   2.819   0.038   7.055
96596SOL    HW291563   2.852  14.828   7.171
96597SOL     OW91564   0.604  13.706   7.961
96597SOL    HW191565   0.627  13.789   7.919
96597SOL    HW291566   0.585  13.729   8.051
96598SOL     OW91567   4.368  11.556   8.345
96598SOL    HW191568   4.400  11.630   8.294
96598SOL    HW291569   4.363  11.484   8.281
96599SOL     OW91570  10.224  14.744  13.366
96599SOL    HW191571  10.210  14.678  13.298
96599SOL    HW291572  10.317  14.765  13.362
96600SOL     OW91573   8.146   0.225   1.025
96600SOL    HW191574   8.208   0.251   0.957
96600SOL    HW291575   8.201   0.183   1.092
96601SOL     OW91576  10.894   6.771  13.198
96601SOL    HW191577  10.856   6.859  13.199
96601SOL    HW291578  10.942   6.765  13.281
96602SOL     OW91579  10.281  13.913   5.276
96602SOL    HW191580  10.319  13.906   5.363
96602SOL    HW291581  10.289  14.006   5.254
96603SOL     OW91582   9.351   7.094   0.846
96603SOL    HW191583   9.371   7.145   0.767
96603SOL    HW291584   9.435   7.083   0.889
96604SOL     OW91585   8.077   7.883   0.432
96604SOL    HW191586   8.152   7.941   0.444
96604SOL    HW291587   8.087   7.849   0.343
96605SOL     OW91588   0.373   3.754   6.263
96605SOL    HW191589   0.416   3.829   6.222
96605SOL    HW291590   0.394   3.680   6.206
96606SOL     OW91591   5.218  10.195  14.543
96606SOL    HW191592   5.217  10.145  14.462
96606SOL    HW291593   5.308  10.190  14.574
96607SOL     OW91594  10.448   4.243   2.234
96607SOL    HW191595  10.418   4.334   2.233
96607SOL    HW291596  10.483   4.230   2.322
96608SOL     OW91597   6.903   6.214   7.291
96608SOL    HW191598   6.980   6.255   7.330
96608SOL    HW291599   6.929   6.123   7.275
96609SOL     OW91600   5.059   6.147  11.904
96609SOL    HW191601   5.061   6.137  11.999
96609SOL    HW291602   4.966   6.147  11.882
96610SOL     OW91603   1.078  13.705  12.219
96610SOL    HW191604   1.155  13.680  12.169
96610SOL    HW291605   1.009  13.647  12.186
96611SOL     OW91606   4.937  11.158   4.228
96611SOL    HW191607   5.012  11.218   4.221
96611SOL    HW291608   4.861  11.214   4.216
96612SOL     OW91609  12.896  13.625  14.813
96612SOL    HW191610  12.941  13.709  14.805
96612SOL    HW291611  12.924  13.590   0.016
96613SOL     OW91612   2.368   5.049   7.782
96613SOL    HW191613   2.422   5.082   7.710
96613SOL    HW291614   2.353   5.126   7.837
96614SOL     OW91615   7.948  13.006   9.707
96614SOL    HW191616   7.855  12.984   9.714
96614SOL    HW291617   7.969  12.991   9.615
96615SOL     OW91618   3.521  10.992   6.481
96615SOL    HW191619   3.543  11.073   6.435
96615SOL    HW291620   3.599  10.974   6.534
96616SOL     OW91621  13.219   8.337   4.534
96616SOL    HW191622  13.277   8.283   4.587
96616SOL    HW291623  13.195   8.410   4.591
96617SOL     OW91624   0.875  12.977   2.729
96617SOL    HW191625   0.954  13.009   2.771
96617SOL    HW291626   0.804  13.004   2.787
96618SOL     OW91627   0.952  13.621  11.762
96618SOL    HW191628   0.949  13.546  11.703
96618SOL    HW291629   0.867  13.663  11.753
96619SOL     OW91630   3.426  14.361  14.253
96619SOL    HW191631   3.424  14.319  14.167
96619SOL    HW291632   3.345  14.412  14.257
96620SOL     OW91633   0.786   5.594   4.172
96620SOL    HW191634   0.725   5.657   4.132
96620SOL    HW291635   0.861   5.592   4.112
96621SOL     OW91636   0.781   3.015   7.026
96621SOL    HW191637   0.738   3.044   7.106
96621SOL    HW291638   0.832   2.938   7.053
96622SOL     OW91639   0.222   8.250   2.919
96622SOL    HW191640   0.200   8.169   2.873
96622SOL    HW291641   0.270   8.221   2.996
96623SOL     OW91642   5.170   4.901   1.547
96623SOL    HW191643   5.194   4.851   1.469
96623SOL    HW291644   5.110   4.968   1.515
96624SOL     OW91645   0.119   4.997   1.736
96624SOL    HW191646   0.131   5.090   1.715
96624SOL    HW291647   0.103   4.995   1.830
96625SOL     OW91648   6.937   4.275   7.073
96625SOL    HW191649   6.842   4.280   7.076
96625SOL    HW291650   6.966   4.311   7.157
96626SOL     OW91651   0.376  13.355  11.484
96626SOL    HW191652   0.332  13.439  11.494
96626SOL    HW291653   0.357  13.308  11.566
96627SOL     OW91654   8.706  12.025   2.464
96627SOL    HW191655   8.754  11.957   2.417
96627SOL    HW291656   8.675  12.084   2.395
96628SOL     OW91657   0.035  10.755   9.228
96628SOL    HW191658   0.099  10.700   9.183
96628SOL    HW291659   0.070  10.844   9.220
96629SOL     OW91660   1.128   3.883   7.843
96629SOL    HW191661   1.066   3.919   7.907
96629SOL    HW291662   1.073   3.859   7.769
96630SOL     OW91663   6.106  12.540  13.711
96630SOL    HW191664   6.014  12.562  13.728
96630SOL    HW291665   6.139  12.506  13.794
96631SOL     OW91666  10.383   8.929   8.286
96631SOL    HW191667  10.392   8.892   8.199
96631SOL    HW291668  10.452   8.888   8.338
96632SOL     OW91669  13.523   9.159  13.540
96632SOL    HW191670  13.477   9.104  13.476
96632SOL    HW291671  13.554   9.096  13.606
96633SOL     OW91672  12.297   1.765   2.040
96633SOL    HW191673  12.229   1.710   2.078
96633SOL    HW291674  12.340   1.709   1.976
96634SOL     OW91675   7.608   9.021   9.521
96634SOL    HW191676   7.582   9.046   9.433
96634SOL    HW291677   7.636   8.930   9.513
96635SOL     OW91678   6.661   7.178  13.218
96635SOL    HW191679   6.617   7.241  13.275
96635SOL    HW291680   6.753   7.204  13.219
96636SOL     OW91681   3.772  11.898  10.526
96636SOL    HW191682   3.866  11.910  10.512
96636SOL    HW291683   3.737  11.880  10.439
96637SOL     OW91684   6.173   8.049   9.411
96637SOL    HW191685   6.198   8.119   9.471
96637SOL    HW291686   6.229   8.062   9.334
96638SOL     OW91687   3.240   6.582   6.754
96638SOL    HW191688   3.277   6.494   6.757
96638SOL    HW291689   3.294   6.632   6.815
96639SOL     OW91690   0.494  13.356   7.225
96639SOL    HW191691   0.571  13.389   7.271
96639SOL    HW291692   0.491  13.263   7.248
96640SOL     OW91693   3.409  11.423   7.804
96640SOL    HW191694   3.448  11.346   7.845
96640SOL    HW291695   3.331  11.390   7.760
96641SOL     OW91696   7.771   5.212   4.607
96641SOL    HW191697   7.710   5.278   4.640
96641SOL    HW291698   7.738   5.129   4.641
96642SOL     OW91699   1.903   4.873  11.423
96642SOL    HW191700   1.898   4.859  11.329
96642SOL    HW291701   1.855   4.955  11.437
96643SOL     OW91702  10.931   4.439   3.795
96643SOL    HW191703  10.920   4.348   3.766
96643SOL    HW291704  10.929   4.491   3.715
96644SOL     OW91705   8.383   1.570  10.350
96644SOL    HW191706   8.297   1.598  10.383
96644SOL    HW291707   8.362   1.498  10.290
96645SOL     OW91708  12.506   0.594   7.481
96645SOL    HW191709  12.531   0.686   7.488
96645SOL    HW291710  12.437   0.592   7.416
96646SOL     OW91711   6.909  13.464   7.219
96646SOL    HW191712   6.941  13.555   7.219
96646SOL    HW291713   6.929  13.432   7.307
96647SOL     OW91714  11.271   3.316   5.110
96647SOL    HW191715  11.314   3.239   5.073
96647SOL    HW291716  11.182   3.313   5.075
96648SOL     OW91717   2.543  12.857   2.658
96648SOL    HW191718   2.492  12.831   2.735
96648SOL    HW291719   2.585  12.939   2.684
96649SOL     OW91720   9.056  12.403   6.270
96649SOL    HW191721   9.077  12.456   6.347
96649SOL    HW291722   9.038  12.316   6.304
96650SOL     OW91723   0.774   3.580  12.133
96650SOL    HW191724   0.766   3.601  12.040
96650SOL    HW291725   0.869   3.574  12.148
96651SOL     OW91726   2.615   6.931  10.445
96651SOL    HW191727   2.563   6.995  10.395
96651SOL    HW291728   2.630   6.859  10.383
96652SOL     OW91729   5.231   1.431   6.271
96652SOL    HW191730   5.198   1.505   6.321
96652SOL    HW291731   5.156   1.401   6.219
96653SOL     OW91732  12.227   3.391   5.498
96653SOL    HW191733  12.139   3.409   5.532
96653SOL    HW291734  12.259   3.477   5.470
96654SOL     OW91735   0.202   5.156   6.694
96654SOL    HW191736   0.267   5.208   6.647
96654SOL    HW291737   0.252   5.110   6.761
96655SOL     OW91738  10.049   2.047  11.302
96655SOL    HW191739   9.960   2.063  11.332
96655SOL    HW291740  10.096   2.015  11.379
96656SOL     OW91741  13.562   0.748   1.156
96656SOL    HW191742  13.650   0.716   1.176
96656SOL    HW291743  13.524   0.682   1.098
96657SOL     OW91744  12.099  12.781   4.838
96657SOL    HW191745  12.044  12.860   4.838
96657SOL    HW291746  12.168  12.799   4.901
96658SOL     OW91747   6.878  12.050  10.111
96658SOL    HW191748   6.869  12.095  10.027
96658SOL    HW291749   6.810  11.982  10.109
96659SOL     OW91750   5.243   7.230   9.308
96659SOL    HW191751   5.291   7.165   9.359
96659SOL    HW291752   5.199   7.179   9.240
96660SOL     OW91753   2.529   8.535  14.476
96660SOL    HW191754   2.565   8.450  14.449
96660SOL    HW291755   2.555   8.544  14.568
96661SOL     OW91756   5.012   0.636   3.672
96661SOL    HW191757   4.932   0.585   3.683
96661SOL    HW291758   4.983   0.728   3.673
96662SOL     OW91759   2.275   6.153   4.636
96662SOL    HW191760   2.315   6.067   4.622
96662SOL    HW291761   2.223   6.142   4.716
96663SOL     OW91762   6.331  14.847   1.263
96663SOL    HW191763   6.347  14.770   1.317
96663SOL    HW291764   6.305  14.811   1.178
96664SOL     OW91765   3.388  12.873  10.325
96664SOL    HW191766   3.322  12.849  10.259
96664SOL    HW291767   3.337  12.903  10.400
96665SOL     OW91768   0.398   6.808  12.075
96665SOL    HW191769   0.402   6.719  12.040
96665SOL    HW291770   0.362   6.861  12.003
96666SOL     OW91771   0.097  14.661   7.831
96666SOL    HW191772   0.059  14.731   7.778
96666SOL    HW291773   0.168  14.626   7.778
96667SOL     OW91774   6.839   2.707   8.683
96667SOL    HW191775   6.887   2.789   8.689
96667SOL    HW291776   6.763   2.728   8.627
96668SOL     OW91777   4.343  13.619   5.129
96668SOL    HW191778   4.268  13.579   5.174
96668SOL    HW291779   4.390  13.666   5.198
96669SOL     OW91780   1.357   5.194   0.100
96669SOL    HW191781   1.449   5.168   0.107
96669SOL    HW291782   1.360   5.282   0.063
96670SOL     OW91783  12.331   3.321   3.483
96670SOL    HW191784  12.370   3.409   3.478
96670SOL    HW291785  12.237   3.337   3.481
96671SOL     OW91786  11.080  14.420   3.537
96671SOL    HW191787  11.014  14.402   3.604
96671SOL    HW291788  11.059  14.361   3.465
96672SOL     OW91789   1.251   8.929   5.318
96672SOL    HW191790   1.214   8.995   5.260
96672SOL    HW291791   1.174   8.887   5.357
96673SOL     OW91792  11.821   9.484   7.363
96673SOL    HW191793  11.810   9.578   7.380
96673SOL    HW291794  11.739   9.457   7.323
96674SOL     OW91795   3.945  12.089  13.318
96674SOL    HW191796   4.025  12.081  13.370
96674SOL    HW291797   3.930  12.000  13.284
96675SOL     OW91798  12.035   7.398  13.593
96675SOL    HW191799  12.073   7.473  13.639
96675SOL    HW291800  12.042   7.326  13.656
96676SOL     OW91801   3.015   0.376   0.134
96676SOL    HW191802   2.968   0.460   0.137
96676SOL    HW291803   2.997   0.335   0.218
96677SOL     OW91804  14.226   2.693  10.712
96677SOL    HW191805  14.271   2.654  10.787
96677SOL    HW291806  14.208   2.783  10.738
96678SOL     OW91807   9.792  14.287  11.112
96678SOL    HW191808   9.765  14.257  11.198
96678SOL    HW291809   9.785  14.210  11.056
96679SOL     OW91810   2.074  12.376   6.658
96679SOL    HW191811   2.040  12.300   6.705
96679SOL    HW291812   2.111  12.340   6.578
96680SOL     OW91813   6.450  12.026   7.790
96680SOL    HW191814   6.465  12.050   7.699
96680SOL    HW291815   6.370  11.973   7.788
96681SOL     OW91816   6.308  12.108   9.897
96681SOL    HW191817   6.256  12.159   9.835
96681SOL    HW291818   6.251  12.098   9.974
96682SOL     OW91819  14.506   7.517   1.682
96682SOL    HW191820  14.509   7.540   1.589
96682SOL    HW291821  14.597   7.524   1.712
96683SOL     OW91822  13.236   0.732   0.220
96683SOL    HW191823  13.238   0.748   0.125
96683SOL    HW291824  13.164   0.671   0.232
96684SOL     OW91825   2.591   5.403   3.613
96684SOL    HW191826   2.657   5.473   3.612
96684SOL    HW291827   2.625   5.338   3.552
96685SOL     OW91828  14.550  13.350   1.723
96685SOL    HW191829  14.577  13.435   1.688
96685SOL    HW291830  14.455  13.352   1.721
96686SOL     OW91831   6.349   4.687   0.017
96686SOL    HW191832   6.379   4.650   0.100
96686SOL    HW291833   6.265   4.644   0.001
96687SOL     OW91834  10.511  10.759   0.540
96687SOL    HW191835  10.478  10.761   0.630
96687SOL    HW291836  10.465  10.831   0.496
96688SOL     OW91837   6.637  13.789   9.686
96688SOL    HW191838   6.731  13.788   9.666
96688SOL    HW291839   6.632  13.767   9.779
96689SOL     OW91840  13.522   0.667   6.894
96689SOL    HW191841  13.444   0.713   6.861
96689SOL    HW291842  13.486   0.592   6.942
96690SOL     OW91843   6.833   3.261   0.437
96690SOL    HW191844   6.757   3.251   0.380
96690SOL    HW291845   6.871   3.345   0.413
96691SOL     OW91846  12.515   3.448  11.774
96691SOL    HW191847  12.449   3.517  11.783
96691SOL    HW291848  12.466   3.367  11.786
96692SOL     OW91849   3.999  12.116  11.946
96692SOL    HW191850   3.912  12.151  11.964
96692SOL    HW291851   4.018  12.058  12.019
96693SOL     OW91852  11.821  14.482   8.570
96693SOL    HW191853  11.824  14.387   8.564
96693SOL    HW291854  11.872  14.513   8.495
96694SOL     OW91855   9.066  12.474  12.908
96694SOL    HW191856   9.139  12.454  12.850
96694SOL    HW291857   8.990  12.433  12.867
96695SOL     OW91858   2.138   1.515  13.032
96695SOL    HW191859   2.196   1.444  13.003
96695SOL    HW291860   2.197   1.575  13.078
96696SOL     OW91861   8.326  11.738  13.097
96696SOL    HW191862   8.371  11.661  13.132
96696SOL    HW291863   8.326  11.801  13.170
96697SOL     OW91864  13.273   1.036  12.982
96697SOL    HW191865  13.327   1.011  13.057
96697SOL    HW291866  13.336   1.047  12.910
96698SOL     OW91867  11.150   1.164  12.803
96698SOL    HW191868  11.162   1.231  12.735
96698SOL    HW291869  11.060   1.176  12.833
96699SOL     OW91870  13.384   2.612   5.537
96699SOL    HW191871  13.299   2.620   5.493
96699SOL    HW291872  13.435   2.553   5.482
96700SOL     OW91873  14.859   4.903  14.612
96700SOL    HW191874  14.764   4.889  14.605
96700SOL    HW291875   0.015   4.834  14.557
96701SOL     OW91876   2.841   9.460  14.610
96701SOL    HW191877   2.894   9.515  14.552
96701SOL    HW291878   2.897   9.445  14.686
96702SOL     OW91879   8.327   7.658   4.779
96702SOL    HW191880   8.295   7.572   4.752
96702SOL    HW291881   8.422   7.653   4.768
96703SOL     OW91882   8.192   2.638   7.560
96703SOL    HW191883   8.193   2.554   7.514
96703SOL    HW291884   8.279   2.675   7.543
96704SOL     OW91885  13.910   4.247  14.713
96704SOL    HW191886  14.001   4.253  14.741
96704SOL    HW291887  13.877   4.167  14.756
96705SOL     OW91888  10.848  13.677  11.117
96705SOL    HW191889  10.810  13.591  11.101
96705SOL    HW291890  10.814  13.732  11.047
96706SOL     OW91891   5.309   2.502   9.486
96706SOL    HW191892   5.360   2.553   9.550
96706SOL    HW291893   5.304   2.559   9.409
96707SOL     OW91894   2.666  11.376   3.705
96707SOL    HW191895   2.603  11.309   3.679
96707SOL    HW291896   2.613  11.454   3.718
96708SOL     OW91897  12.793   0.741  10.548
96708SOL    HW191898  12.721   0.739  10.485
96708SOL    HW291899  12.754   0.776  10.628
96709SOL     OW91900   3.373  12.701  14.421
96709SOL    HW191901   3.310  12.700  14.494
96709SOL    HW291902   3.331  12.756  14.355
96710SOL     OW91903  10.672   3.346   7.565
96710SOL    HW191904  10.601   3.405   7.538
96710SOL    HW291905  10.626   3.271   7.603
96711SOL     OW91906   2.048  14.785  13.334
96711SOL    HW191907   2.124  14.728  13.319
96711SOL    HW291908   2.013  14.802  13.247
96712SOL     OW91909   2.223  11.141  11.219
96712SOL    HW191910   2.278  11.177  11.289
96712SOL    HW291911   2.156  11.090  11.264
96713SOL     OW91912   7.325  11.473  12.027
96713SOL    HW191913   7.284  11.552  12.061
96713SOL    HW291914   7.325  11.484  11.932
96714SOL     OW91915   1.373  12.836   0.802
96714SOL    HW191916   1.378  12.748   0.838
96714SOL    HW291917   1.413  12.891   0.869
96715SOL     OW91918  12.984   7.425   4.112
96715SOL    HW191919  12.923   7.466   4.051
96715SOL    HW291920  12.972   7.331   4.099
96716SOL     OW91921   1.360  11.170   4.363
96716SOL    HW191922   1.295  11.110   4.400
96716SOL    HW291923   1.440  11.118   4.358
96717SOL     OW91924   2.278   8.599  13.172
96717SOL    HW191925   2.281   8.560  13.259
96717SOL    HW291926   2.325   8.682  13.181
96718SOL     OW91927   7.665   0.797   0.943
96718SOL    HW191928   7.706   0.884   0.946
96718SOL    HW291929   7.731   0.738   0.980
96719SOL     OW91930   0.196   2.670  10.452
96719SOL    HW191931   0.203   2.750  10.399
96719SOL    HW291932   0.136   2.693  10.522
96720SOL     OW91933   4.101   2.187   7.201
96720SOL    HW191934   4.177   2.189   7.260
96720SOL    HW291935   4.128   2.128   7.131
96721SOL     OW91936   0.551  13.786  11.479
96721SOL    HW191937   0.486  13.761  11.544
96721SOL    HW291938   0.552  13.713  11.417
96722SOL     OW91939   4.259   0.037   0.671
96722SOL    HW191940   4.173   0.008   0.641
96722SOL    HW291941   4.244   0.068   0.761
96723SOL     OW91942   9.452  13.830   5.215
96723SOL    HW191943   9.491  13.841   5.302
96723SOL    HW291944   9.490  13.901   5.163
96724SOL     OW91945   2.009  10.729  10.673
96724SOL    HW191946   2.086  10.770  10.711
96724SOL    HW291947   1.962  10.691  10.748
96725SOL     OW91948  10.399  13.128  14.227
96725SOL    HW191949  10.407  13.061  14.294
96725SOL    HW291950  10.486  13.134  14.187
96726SOL     OW91951  11.397  14.122  11.049
96726SOL    HW191952  11.467  14.182  11.025
96726SOL    HW291953  11.410  14.105  11.142
96727SOL     OW91954   1.755   0.415   3.043
96727SOL    HW191955   1.701   0.372   2.976
96727SOL    HW291956   1.694   0.473   3.089
96728SOL     OW91957   0.116   3.212   4.291
96728SOL    HW191958   0.102   3.257   4.374
96728SOL    HW291959   0.197   3.163   4.304
96729SOL     OW91960   2.867   7.354   6.999
96729SOL    HW191961   2.799   7.331   6.935
96729SOL    HW291962   2.949   7.334   6.956
96730SOL     OW91963  12.308   0.936  12.963
96730SOL    HW191964  12.358   1.017  12.961
96730SOL    HW291965  12.217   0.963  12.976
96731SOL     OW91966   5.014   9.289  14.689
96731SOL    HW191967   4.976   9.220  14.743
96731SOL    HW291968   4.973   9.369  14.721
96732SOL     OW91969   3.733   3.655   4.271
96732SOL    HW191970   3.712   3.712   4.197
96732SOL    HW291971   3.670   3.680   4.338
96733SOL     OW91972   2.379   1.214  13.402
96733SOL    HW191973   2.354   1.261  13.322
96733SOL    HW291974   2.298   1.211  13.454
96734SOL     OW91975   2.982  14.854  12.440
96734SOL    HW191976   2.926   0.030  12.491
96734SOL    HW291977   3.029   0.031  12.380
96735SOL     OW91978   2.201  10.843  12.755
96735SOL    HW191979   2.153  10.827  12.837
96735SOL    HW291980   2.148  10.908  12.709
96736SOL     OW91981   0.864  14.011   6.924
96736SOL    HW191982   0.778  13.978   6.901
96736SOL    HW291983   0.924  13.971   6.860
96737SOL     OW91984   2.502   4.545  11.865
96737SOL    HW191985   2.498   4.639  11.849
96737SOL    HW291986   2.547   4.510  11.788
96738SOL     OW91987   2.616   0.874   4.370
96738SOL    HW191988   2.584   0.785   4.389
96738SOL    HW291989   2.660   0.865   4.285
96739SOL     OW91990  10.249  14.758  12.723
96739SOL    HW191991  10.271  14.778  12.632
96739SOL    HW291992  10.167  14.709  12.718
96740SOL     OW91993  13.473   3.048   4.316
96740SOL    HW191994  13.539   2.984   4.288
96740SOL    HW291995  13.497   3.129   4.272
96741SOL     OW91996   9.116   2.467  12.308
96741SOL    HW191997   9.054   2.421  12.365
96741SOL    HW291998   9.166   2.523  12.368
96742SOL     OW91999   2.723   5.034   1.361
96742SOL    HW192000   2.752   5.101   1.423
96742SOL    HW292001   2.775   5.051   1.283
96743SOL     OW92002   8.989   4.124   6.378
96743SOL    HW192003   9.025   4.036   6.363
96743SOL    HW292004   8.912   4.127   6.321
96744SOL     OW92005   8.470   7.144   1.681
96744SOL    HW192006   8.507   7.222   1.642
96744SOL    HW292007   8.375   7.160   1.681
96745SOL     OW92008   5.640   8.880   1.157
96745SOL    HW192009   5.586   8.815   1.112
96745SOL    HW292010   5.577   8.944   1.190
96746SOL     OW92011   4.226   4.991  14.689
96746SOL    HW192012   4.246   5.067  14.744
96746SOL    HW292013   4.312   4.958  14.662
96747SOL     OW92014   0.457  13.820  14.327
96747SOL    HW192015   0.506  13.738  14.323
96747SOL    HW292016   0.365  13.794  14.316
96748SOL     OW92017  10.813  12.711   1.370
96748SOL    HW192018  10.865  12.667   1.303
96748SOL    HW292019  10.809  12.649   1.443
96749SOL     OW92020   6.993   6.569  10.831
96749SOL    HW192021   6.967   6.477  10.825
96749SOL    HW292022   6.973   6.594  10.921
96750SOL     OW92023  13.187   4.388   6.402
96750SOL    HW192024  13.219   4.469   6.443
96750SOL    HW292025  13.267   4.342   6.375
96751SOL     OW92026   3.672   5.261   0.589
96751SOL    HW192027   3.599   5.316   0.561
96751SOL    HW292028   3.750   5.309   0.560
96752SOL     OW92029  12.271   9.487   2.208
96752SOL    HW192030  12.308   9.569   2.240
96752SOL    HW292031  12.270   9.429   2.285
96753SOL     OW92032   5.031  14.669  10.071
96753SOL    HW192033   5.114  14.702  10.105
96753SOL    HW292034   5.051  14.642   9.982
96754SOL     OW92035   2.141   1.757   7.553
96754SOL    HW192036   2.102   1.709   7.626
96754SOL    HW292037   2.173   1.838   7.592
96755SOL     OW92038   0.623  14.498   9.786
96755SOL    HW192039   0.581  14.581   9.765
96755SOL    HW292040   0.714  14.509   9.758
96756SOL     OW92041   9.926   3.381  14.675
96756SOL    HW192042   9.882   3.347  14.752
96756SOL    HW292043   9.857   3.421  14.623
96757SOL     OW92044   5.819  10.070   4.282
96757SOL    HW192045   5.852  10.138   4.223
96757SOL    HW292046   5.888  10.060   4.347
96758SOL     OW92047   6.807  10.447   0.230
96758SOL    HW192048   6.818  10.399   0.148
96758SOL    HW292049   6.713  10.449   0.244
96759SOL     OW92050   7.494   9.309   4.754
96759SOL    HW192051   7.481   9.392   4.799
96759SOL    HW292052   7.542   9.255   4.817
96760SOL     OW92053   2.437   5.411   9.313
96760SOL    HW192054   2.363   5.428   9.256
96760SOL    HW292055   2.434   5.481   9.378
96761SOL     OW92056   5.207   3.615   6.933
96761SOL    HW192057   5.291   3.611   6.979
96761SOL    HW292058   5.227   3.660   6.851
96762SOL     OW92059   8.552   8.802   5.507
96762SOL    HW192060   8.582   8.848   5.428
96762SOL    HW292061   8.473   8.755   5.479
96763SOL     OW92062   1.425   9.739   2.869
96763SOL    HW192063   1.458   9.666   2.817
96763SOL    HW292064   1.473   9.732   2.952
96764SOL     OW92065   3.366  14.014  13.570
96764SOL    HW192066   3.369  13.942  13.633
96764SOL    HW292067   3.448  14.008  13.522
96765SOL     OW92068   2.664  14.610  13.620
96765SOL    HW192069   2.634  14.521  13.604
96765SOL    HW292070   2.733  14.624  13.555
96766SOL     OW92071   9.046   5.881   6.184
96766SOL    HW192072   9.134   5.908   6.160
96766SOL    HW292073   9.046   5.785   6.174
96767SOL     OW92074  14.282   0.762   7.373
96767SOL    HW192075  14.192   0.787   7.352
96767SOL    HW292076  14.331   0.777   7.291
96768SOL     OW92077   2.126   0.014   4.067
96768SOL    HW192078   2.163  14.809   4.088
96768SOL    HW292079   2.203   0.071   4.058
96769SOL     OW92080   1.138  12.897   2.374
96769SOL    HW192081   1.188  12.896   2.292
96769SOL    HW292082   1.047  12.884   2.347
96770SOL     OW92083   9.269  14.334   4.871
96770SOL    HW192084   9.185  14.313   4.911
96770SOL    HW292085   9.291  14.420   4.907
96771SOL     OW92086   3.296   8.227  13.625
96771SOL    HW192087   3.358   8.300  13.620
96771SOL    HW292088   3.316   8.173  13.549
96772SOL     OW92089   8.393   0.798  10.034
96772SOL    HW192090   8.433   0.716  10.064
96772SOL    HW292091   8.450   0.867  10.070
96773SOL     OW92092   8.978   0.722   9.386
96773SOL    HW192093   8.889   0.731   9.354
96773SOL    HW292094   9.001   0.630   9.368
96774SOL     OW92095   1.662   0.161   3.401
96774SOL    HW192096   1.604   0.223   3.446
96774SOL    HW292097   1.749   0.181   3.436
96775SOL     OW92098  14.850   7.169   7.492
96775SOL    HW192099  14.830   7.242   7.551
96775SOL    HW292100  14.766   7.125   7.478
96776SOL     OW92101   8.570   4.848  13.791
96776SOL    HW192102   8.588   4.754  13.791
96776SOL    HW292103   8.654   4.888  13.814
96777SOL     OW92104   0.103   4.623  12.267
96777SOL    HW192105   0.102   4.649  12.175
96777SOL    HW292106   0.179   4.668  12.303
96778SOL     OW92107  14.377  14.315   1.714
96778SOL    HW192108  14.451  14.331   1.655
96778SOL    HW292109  14.415  14.322   1.801
96779SOL     OW92110   6.772  10.972   2.798
96779SOL    HW192111   6.853  10.936   2.832
96779SOL    HW292112   6.749  10.915   2.725
96780SOL     OW92113   3.944   8.069   8.845
96780SOL    HW192114   3.923   8.001   8.781
96780SOL    HW292115   4.008   8.028   8.904
96781SOL     OW92116   4.357  11.141   4.672
96781SOL    HW192117   4.369  11.233   4.694
96781SOL    HW292118   4.397  11.132   4.585
96782SOL     OW92119   8.309  10.477  14.067
96782SOL    HW192120   8.237  10.417  14.086
96782SOL    HW292121   8.289  10.556  14.116
96783SOL     OW92122  10.676  11.881   5.577
96783SOL    HW192123  10.583  11.868   5.597
96783SOL    HW292124  10.678  11.961   5.525
96784SOL     OW92125   4.221   8.339   5.728
96784SOL    HW192126   4.156   8.325   5.659
96784SOL    HW292127   4.293   8.279   5.706
96785SOL     OW92128  13.755   1.517  13.479
96785SOL    HW192129  13.729   1.570  13.555
96785SOL    HW292130  13.763   1.580  13.408
96786SOL     OW92131   7.642   0.182   5.042
96786SOL    HW192132   7.556   0.152   5.012
96786SOL    HW292133   7.705   0.134   4.987
96787SOL     OW92134  11.758   5.512   6.295
96787SOL    HW192135  11.852   5.530   6.283
96787SOL    HW292136  11.719   5.599   6.306
96788SOL     OW92137   6.343   5.313   8.481
96788SOL    HW192138   6.266   5.261   8.461
96788SOL    HW292139   6.411   5.278   8.424
96789SOL     OW92140  13.335  11.146   3.773
96789SOL    HW192141  13.351  11.202   3.850
96789SOL    HW292142  13.358  11.202   3.698
96790SOL     OW92143  10.365  14.035   1.278
96790SOL    HW192144  10.313  14.088   1.339
96790SOL    HW292145  10.416  14.098   1.228
96791SOL     OW92146  10.668   8.569  10.448
96791SOL    HW192147  10.622   8.487  10.430
96791SOL    HW292148  10.612   8.637  10.410
96792SOL     OW92149  13.560  11.212  11.270
96792SOL    HW192150  13.537  11.304  11.257
96792SOL    HW292151  13.627  11.214  11.338
96793SOL     OW92152   7.530  10.407   6.156
96793SOL    HW192153   7.622  10.390   6.178
96793SOL    HW292154   7.505  10.480   6.213
96794SOL     OW92155   7.117   9.810  14.796
96794SOL    HW192156   7.050   9.761  14.844
96794SOL    HW292157   7.200   9.777  14.831
96795SOL     OW92158  14.424   1.985  11.429
96795SOL    HW192159  14.507   1.960  11.390
96795SOL    HW292160  14.370   2.014  11.356
96796SOL     OW92161   8.185   0.325   1.422
96796SOL    HW192162   8.181   0.405   1.371
96796SOL    HW292163   8.094   0.307   1.447
96797SOL     OW92164   3.024   5.662  13.552
96797SOL    HW192165   3.106   5.669  13.602
96797SOL    HW292166   2.966   5.726  13.593
96798SOL     OW92167  10.711   2.202   4.650
96798SOL    HW192168  10.751   2.288   4.646
96798SOL    HW292169  10.623   2.215   4.614
96799SOL     OW92170   1.637   4.901  13.212
96799SOL    HW192171   1.553   4.940  13.187
96799SOL    HW292172   1.696   4.923  13.140
96800SOL     OW92173  14.623  10.233   0.087
96800SOL    HW192174  14.667  10.309   0.050
96800SOL    HW292175  14.686  10.162   0.079
96801SOL     OW92176   6.540   2.694   1.296
96801SOL    HW192177   6.569   2.746   1.221
96801SOL    HW292178   6.621   2.656   1.331
96802SOL     OW92179  12.524  13.091  12.262
96802SOL    HW192180  12.486  13.164  12.212
96802SOL    HW292181  12.532  13.020  12.198
96803SOL     OW92182  12.948   2.094  14.052
96803SOL    HW192183  13.035   2.086  14.092
96803SOL    HW292184  12.962   2.147  13.974
96804SOL     OW92185   4.132   6.066   6.145
96804SOL    HW192186   4.036   6.076   6.144
96804SOL    HW292187   4.148   5.986   6.095
96805SOL     OW92188   1.350  12.497   5.538
96805SOL    HW192189   1.267  12.502   5.586
96805SOL    HW292190   1.377  12.406   5.547
96806SOL     OW92191   3.779   4.519   8.038
96806SOL    HW192192   3.763   4.564   8.121
96806SOL    HW292193   3.705   4.542   7.983
96807SOL     OW92194  12.237   7.662   4.829
96807SOL    HW192195  12.264   7.628   4.914
96807SOL    HW292196  12.304   7.727   4.806
96808SOL     OW92197  14.710   8.480  14.278
96808SOL    HW192198  14.642   8.413  14.287
96808SOL    HW292199  14.678   8.552  14.332
96809SOL     OW92200   3.608  10.145   1.873
96809SOL    HW192201   3.536  10.205   1.857
96809SOL    HW292202   3.593  10.072   1.813
96810SOL     OW92203   3.951   5.918   1.516
96810SOL    HW192204   4.031   5.865   1.524
96810SOL    HW292205   3.949   5.970   1.597
96811SOL     OW92206   8.985   9.714   9.453
96811SOL    HW192207   8.949   9.645   9.510
96811SOL    HW292208   8.952   9.795   9.491
96812SOL     OW92209   7.560   3.943   1.834
96812SOL    HW192210   7.622   4.015   1.846
96812SOL    HW292211   7.579   3.882   1.906
96813SOL     OW92212   3.106   9.252   2.768
96813SOL    HW192213   3.034   9.255   2.704
96813SOL    HW292214   3.117   9.343   2.795
96814SOL     OW92215  10.181   9.622   2.358
96814SOL    HW192216  10.222   9.570   2.427
96814SOL    HW292217  10.252   9.644   2.298
96815SOL     OW92218  14.174   8.651   0.991
96815SOL    HW192219  14.078   8.653   0.988
96815SOL    HW292220  14.201   8.699   0.913
96816SOL     OW92221  11.678   2.347   2.558
96816SOL    HW192222  11.654   2.348   2.466
96816SOL    HW292223  11.675   2.254   2.583
96817SOL     OW92224   7.103  14.394   9.502
96817SOL    HW192225   7.099  14.299   9.493
96817SOL    HW292226   7.121  14.426   9.414
96818SOL     OW92227   9.548  14.378   8.914
96818SOL    HW192228   9.599  14.448   8.955
96818SOL    HW292229   9.585  14.371   8.825
96819SOL     OW92230   1.537   3.017   3.259
96819SOL    HW192231   1.550   3.047   3.349
96819SOL    HW292232   1.528   2.922   3.267
96820SOL     OW92233  12.351   6.434   4.648
96820SOL    HW192234  12.299   6.369   4.601
96820SOL    HW292235  12.397   6.483   4.580
96821SOL     OW92236   8.585   0.233  11.426
96821SOL    HW192237   8.580   0.283  11.345
96821SOL    HW292238   8.521   0.274  11.484
96822SOL     OW92239  12.837   0.492  13.832
96822SOL    HW192240  12.751   0.508  13.792
96822SOL    HW292241  12.838   0.398  13.851
96823SOL     OW92242  14.102   9.404   1.451
96823SOL    HW192243  14.152   9.382   1.529
96823SOL    HW292244  14.106   9.500   1.446
96824SOL     OW92245   3.040   2.771   1.696
96824SOL    HW192246   2.993   2.853   1.714
96824SOL    HW292247   2.973   2.703   1.704
96825SOL     OW92248  14.258   3.816  10.654
96825SOL    HW192249  14.219   3.779  10.733
96825SOL    HW292250  14.205   3.893  10.633
96826SOL     OW92251  12.424   5.986   7.008
96826SOL    HW192252  12.452   5.907   7.053
96826SOL    HW292253  12.494   6.004   6.945
96827SOL     OW92254   3.925   0.172  11.507
96827SOL    HW192255   4.012   0.200  11.534
96827SOL    HW292256   3.866   0.222  11.564
96828SOL     OW92257   9.460  10.080   4.725
96828SOL    HW192258   9.429  10.166   4.752
96828SOL    HW292259   9.493  10.040   4.805
96829SOL     OW92260  14.063   8.447   2.772
96829SOL    HW192261  14.050   8.464   2.865
96829SOL    HW292262  14.020   8.363   2.757
96830SOL     OW92263   0.603   6.022  10.520
96830SOL    HW192264   0.668   5.953  10.507
96830SOL    HW292265   0.547   5.990  10.591
96831SOL     OW92266   7.810  12.510   3.518
96831SOL    HW192267   7.829  12.429   3.472
96831SOL    HW292268   7.895  12.553   3.528
96832SOL     OW92269   7.910  13.676  10.878
96832SOL    HW192270   7.939  13.682  10.969
96832SOL    HW292271   7.964  13.739  10.831
96833SOL     OW92272   9.057   0.658   3.685
96833SOL    HW192273   9.007   0.727   3.640
96833SOL    HW292274   9.138   0.652   3.635
96834SOL     OW92275   0.566   5.409   4.246
96834SOL    HW192276   0.511   5.488   4.252
96834SOL    HW292277   0.654   5.440   4.264
96835SOL     OW92278   9.991  10.929   9.145
96835SOL    HW192279  10.073  10.880   9.143
96835SOL    HW292280   9.964  10.933   9.053
96836SOL     OW92281   6.384   3.784   0.162
96836SOL    HW192282   6.400   3.828   0.078
96836SOL    HW292283   6.300   3.820   0.192
96837SOL     OW92284  14.225   7.111   4.548
96837SOL    HW192285  14.315   7.140   4.558
96837SOL    HW292286  14.227   7.049   4.475
96838SOL     OW92287  12.408   5.790  10.647
96838SOL    HW192288  12.456   5.872  10.661
96838SOL    HW292289  12.339   5.792  10.714
96839SOL     OW92290   1.434   6.471  11.836
96839SOL    HW192291   1.522   6.496  11.863
96839SOL    HW292292   1.376   6.516  11.897
96840SOL     OW92293   1.985   8.682   0.564
96840SOL    HW192294   1.978   8.751   0.629
96840SOL    HW292295   2.070   8.697   0.522
96841SOL     OW92296  10.623   7.091  11.833
96841SOL    HW192297  10.655   7.024  11.774
96841SOL    HW292298  10.553   7.047  11.883
96842SOL     OW92299   7.462  12.371   0.083
96842SOL    HW192300   7.549  12.335   0.063
96842SOL    HW292301   7.422  12.305   0.140
96843SOL     OW92302   5.629   9.633   0.264
96843SOL    HW192303   5.593   9.548   0.237
96843SOL    HW292304   5.670   9.668   0.185
96844SOL     OW92305   1.080   0.677   5.765
96844SOL    HW192306   1.033   0.730   5.830
96844SOL    HW292307   1.101   0.596   5.812
96845SOL     OW92308   8.591   2.495  13.805
96845SOL    HW192309   8.570   2.401  13.803
96845SOL    HW292310   8.577   2.524  13.715
96846SOL     OW92311   5.974  13.310  13.951
96846SOL    HW192312   6.011  13.238  14.003
96846SOL    HW292313   6.049  13.365  13.929
96847SOL     OW92314   0.784   5.418   2.587
96847SOL    HW192315   0.729   5.493   2.562
96847SOL    HW292316   0.861   5.457   2.627
96848SOL     OW92317   0.868   9.833   0.289
96848SOL    HW192318   0.844   9.895   0.220
96848SOL    HW292319   0.898   9.755   0.241
96849SOL     OW92320  10.040   5.785  13.863
96849SOL    HW192321  10.077   5.772  13.950
96849SOL    HW292322  10.036   5.880  13.853
96850SOL     OW92323   5.389   1.901   0.195
96850SOL    HW192324   5.312   1.886   0.140
96850SOL    HW292325   5.454   1.839   0.163
96851SOL     OW92326   9.187  14.227   0.024
96851SOL    HW192327   9.092  14.235   0.031
96851SOL    HW292328   9.218  14.229   0.115
96852SOL     OW92329   0.537   0.918   2.746
96852SOL    HW192330   0.577   1.000   2.776
96852SOL    HW292331   0.595   0.888   2.676
96853SOL     OW92332   5.919  14.809   2.815
96853SOL    HW192333   5.852  14.747   2.786
96853SOL    HW292334   5.890   0.012   2.779
96854SOL     OW92335  12.554   4.310  12.335
96854SOL    HW192336  12.477   4.266  12.370
96854SOL    HW292337  12.566   4.387  12.391
96855SOL     OW92338   2.814   0.526  12.048
96855SOL    HW192339   2.780   0.441  12.074
96855SOL    HW292340   2.753   0.559  11.983
96856SOL     OW92341   0.884   9.064   3.054
96856SOL    HW192342   0.969   9.024   3.037
96856SOL    HW292343   0.903   9.158   3.059
96857SOL     OW92344   8.945   0.767   7.085
96857SOL    HW192345   9.025   0.730   7.048
96857SOL    HW292346   8.875   0.709   7.054
96858SOL     OW92347  11.694  10.281   3.853
96858SOL    HW192348  11.642  10.353   3.889
96858SOL    HW292349  11.783  10.299   3.883
96859SOL     OW92350   6.577  11.763   9.602
96859SOL    HW192351   6.519  11.688   9.594
96859SOL    HW292352   6.641  11.752   9.532
96860SOL     OW92353   5.469   2.097  14.425
96860SOL    HW192354   5.542   2.082  14.485
96860SOL    HW292355   5.392   2.064  14.472
96861SOL     OW92356   4.495   5.924  14.076
96861SOL    HW192357   4.481   5.879  14.159
96861SOL    HW292358   4.407   5.942  14.043
96862SOL     OW92359   8.495  11.521   2.400
96862SOL    HW192360   8.576  11.562   2.427
96862SOL    HW292361   8.465  11.574   2.326
96863SOL     OW92362  13.331   8.561  10.872
96863SOL    HW192363  13.379   8.496  10.923
96863SOL    HW292364  13.239   8.534  10.878
96864SOL     OW92365   8.434   4.742  13.049
96864SOL    HW192366   8.404   4.832  13.039
96864SOL    HW292367   8.518   4.749  13.093
96865SOL     OW92368   9.600   4.610   1.943
96865SOL    HW192369   9.571   4.539   1.886
96865SOL    HW292370   9.691   4.588   1.963
96866SOL     OW92371   9.015   5.590  14.131
96866SOL    HW192372   9.020   5.495  14.129
96866SOL    HW292373   9.057   5.618  14.049
96867SOL     OW92374   6.726   8.651   6.512
96867SOL    HW192375   6.770   8.671   6.594
96867SOL    HW292376   6.759   8.564   6.488
96868SOL     OW92377   1.742   1.047   9.945
96868SOL    HW192378   1.789   0.964   9.933
96868SOL    HW292379   1.789   1.110   9.890
96869SOL     OW92380   7.701   8.285   2.823
96869SOL    HW192381   7.750   8.203   2.833
96869SOL    HW292382   7.743   8.330   2.750
96870SOL     OW92383   8.800   2.358   5.657
96870SOL    HW192384   8.770   2.268   5.643
96870SOL    HW292385   8.855   2.377   5.581
96871SOL     OW92386   8.249   7.470  10.985
96871SOL    HW192387   8.165   7.470  11.032
96871SOL    HW292388   8.303   7.407  11.032
96872SOL     OW92389  10.539  14.386   1.854
96872SOL    HW192390  10.576  14.339   1.780
96872SOL    HW292391  10.553  14.478   1.833
96873SOL     OW92392  11.194   8.786   2.593
96873SOL    HW192393  11.132   8.752   2.529
96873SOL    HW292394  11.268   8.725   2.589
96874SOL     OW92395   5.932  11.994  10.729
96874SOL    HW192396   5.856  12.044  10.701
96874SOL    HW292397   5.994  12.002  10.657
96875SOL     OW92398  14.647  11.477   5.251
96875SOL    HW192399  14.615  11.409   5.311
96875SOL    HW292400  14.717  11.435   5.201
96876SOL     OW92401  10.831   4.751  13.802
96876SOL    HW192402  10.773   4.821  13.833
96876SOL    HW292403  10.884   4.729  13.879
96877SOL     OW92404   9.345   4.153   3.958
96877SOL    HW192405   9.265   4.150   4.011
96877SOL    HW292406   9.377   4.063   3.957
96878SOL     OW92407   3.754   5.241   7.380
96878SOL    HW192408   3.735   5.334   7.377
96878SOL    HW292409   3.824   5.233   7.445
96879SOL     OW92410   8.782   9.239  11.778
96879SOL    HW192411   8.821   9.261  11.693
96879SOL    HW292412   8.688   9.240  11.762
96880SOL     OW92413   7.037  12.205   4.919
96880SOL    HW192414   7.126  12.239   4.928
96880SOL    HW292415   6.984  12.261   4.975
96881SOL     OW92416  13.186   0.204  11.963
96881SOL    HW192417  13.184   0.108  11.967
96881SOL    HW292418  13.134   0.225  11.886
96882SOL     OW92419   8.018   6.087  12.334
96882SOL    HW192420   8.105   6.053  12.353
96882SOL    HW292421   8.024   6.116  12.243
96883SOL     OW92422  12.600   4.465   0.617
96883SOL    HW192423  12.640   4.500   0.537
96883SOL    HW292424  12.562   4.541   0.660
96884SOL     OW92425   6.368  12.987   5.479
96884SOL    HW192426   6.452  12.958   5.516
96884SOL    HW292427   6.318  13.018   5.554
96885SOL     OW92428  14.740   4.177   0.227
96885SOL    HW192429  14.768   4.243   0.163
96885SOL    HW292430  14.794   4.194   0.304
96886SOL     OW92431  11.200   7.899   1.588
96886SOL    HW192432  11.215   7.919   1.495
96886SOL    HW292433  11.217   7.983   1.632
96887SOL     OW92434  14.596   9.352   0.255
96887SOL    HW192435  14.630   9.434   0.291
96887SOL    HW292436  14.504   9.350   0.283
96888SOL     OW92437   8.381   2.674   0.889
96888SOL    HW192438   8.389   2.737   0.960
96888SOL    HW292439   8.337   2.598   0.928
96889SOL     OW92440   7.206   4.939   1.635
96889SOL    HW192441   7.259   4.883   1.692
96889SOL    HW292442   7.171   4.881   1.569
96890SOL     OW92443   8.235   8.806  11.788
96890SOL    HW192444   8.308   8.829  11.731
96890SOL    HW292445   8.165   8.865  11.762
96891SOL     OW92446  13.878   5.938   3.099
96891SOL    HW192447  13.854   5.860   3.049
96891SOL    HW292448  13.815   5.942   3.170
96892SOL     OW92449  11.796   3.486   7.109
96892SOL    HW192450  11.868   3.438   7.070
96892SOL    HW292451  11.743   3.420   7.154
96893SOL     OW92452   8.068  11.076   9.339
96893SOL    HW192453   7.988  11.091   9.290
96893SOL    HW292454   8.054  10.992   9.383
96894SOL     OW92455   7.546   6.047   7.357
96894SOL    HW192456   7.491   6.090   7.423
96894SOL    HW292457   7.634   6.079   7.374
96895SOL     OW92458   2.439  11.363  11.436
96895SOL    HW192459   2.512  11.309  11.467
96895SOL    HW292460   2.479  11.425  11.376
96896SOL     OW92461   2.356   3.717   7.012
96896SOL    HW192462   2.353   3.721   6.916
96896SOL    HW292463   2.286   3.657   7.036
96897SOL     OW92464  10.636  13.483   3.739
96897SOL    HW192465  10.713  13.471   3.794
96897SOL    HW292466  10.576  13.414   3.768
96898SOL     OW92467   0.553   2.624   9.083
96898SOL    HW192468   0.496   2.699   9.066
96898SOL    HW292469   0.525   2.557   9.021
96899SOL     OW92470   4.060  10.054   2.961
96899SOL    HW192471   4.103  10.120   2.907
96899SOL    HW292472   4.116   9.977   2.955
96900SOL     OW92473   3.423  12.707  11.242
96900SOL    HW192474   3.441  12.796  11.271
96900SOL    HW292475   3.442  12.707  11.148
96901SOL     OW92476   1.955   6.052   7.021
96901SOL    HW192477   1.941   6.090   7.107
96901SOL    HW292478   1.899   5.975   7.019
96902SOL     OW92479  13.716   6.736   4.236
96902SOL    HW192480  13.650   6.802   4.213
96902SOL    HW292481  13.731   6.688   4.155
96903SOL     OW92482   3.011   4.335  10.958
96903SOL    HW192483   2.944   4.309  10.895
96903SOL    HW292484   2.994   4.282  11.036
96904SOL     OW92485  12.591   2.435   0.107
96904SOL    HW192486  12.628   2.355   0.069
96904SOL    HW292487  12.503   2.410   0.133
96905SOL     OW92488   2.771   7.364  10.287
96905SOL    HW192489   2.790   7.356  10.194
96905SOL    HW292490   2.799   7.280  10.325
96906SOL     OW92491   7.110   9.774   5.453
96906SOL    HW192492   7.130   9.798   5.363
96906SOL    HW292493   7.043   9.706   5.445
96907SOL     OW92494   5.370   0.878   1.618
96907SOL    HW192495   5.445   0.909   1.568
96907SOL    HW292496   5.408   0.831   1.692
96908SOL     OW92497  13.121  14.650   2.771
96908SOL    HW192498  13.199  14.659   2.825
96908SOL    HW292499  13.048  14.651   2.834
96909SOL     OW92500  14.803  10.961   2.195
96909SOL    HW192501  14.877  10.901   2.181
96909SOL    HW292502  14.828  11.040   2.147
96910SOL     OW92503   7.059  14.875  14.267
96910SOL    HW192504   7.027   0.079  14.239
96910SOL    HW292505   7.110  14.842  14.192
96911SOL     OW92506   5.451  13.324   5.481
96911SOL    HW192507   5.535  13.349   5.442
96911SOL    HW292508   5.467  13.238   5.518
96912SOL     OW92509   6.872   1.808   0.508
96912SOL    HW192510   6.967   1.803   0.510
96912SOL    HW292511   6.843   1.717   0.501
96913SOL     OW92512  11.896   1.359  14.252
96913SOL    HW192513  11.922   1.270  14.279
96913SOL    HW292514  11.881   1.352  14.158
96914SOL     OW92515   4.420  14.486  11.106
96914SOL    HW192516   4.383  14.570  11.081
96914SOL    HW292517   4.346  14.437  11.143
96915SOL     OW92518  10.011   7.872   8.767
96915SOL    HW192519  10.028   7.965   8.750
96915SOL    HW292520   9.933   7.852   8.715
96916SOL     OW92521  12.588   5.991   9.263
96916SOL    HW192522  12.631   6.076   9.255
96916SOL    HW292523  12.523   6.003   9.332
96917SOL     OW92524   5.399   5.466   4.671
96917SOL    HW192525   5.405   5.447   4.578
96917SOL    HW292526   5.425   5.558   4.679
96918SOL     OW92527   2.910   7.942  12.249
96918SOL    HW192528   2.944   7.942  12.159
96918SOL    HW292529   2.986   7.968  12.302
96919SOL     OW92530   6.294  10.479  11.905
96919SOL    HW192531   6.316  10.438  11.821
96919SOL    HW292532   6.202  10.503  11.897
96920SOL     OW92533   6.649   7.671  12.706
96920SOL    HW192534   6.661   7.590  12.754
96920SOL    HW292535   6.554   7.687  12.708
96921SOL     OW92536   1.626   2.915   0.972
96921SOL    HW192537   1.573   2.850   1.018
96921SOL    HW292538   1.573   2.995   0.974
96922SOL     OW92539   0.679   7.017   7.413
96922SOL    HW192540   0.682   6.973   7.498
96922SOL    HW292541   0.610   6.971   7.365
96923SOL     OW92542   5.939   2.544  10.554
96923SOL    HW192543   5.892   2.485  10.495
96923SOL    HW292544   5.890   2.539  10.636
96924SOL     OW92545   2.013   1.597  11.233
96924SOL    HW192546   2.071   1.521  11.222
96924SOL    HW292547   2.060   1.655  11.293
96925SOL     OW92548   5.605   2.717   8.018
96925SOL    HW192549   5.663   2.726   7.943
96925SOL    HW292550   5.630   2.789   8.076
96926SOL     OW92551   6.352  14.358  12.961
96926SOL    HW192552   6.428  14.310  12.926
96926SOL    HW292553   6.349  14.335  13.053
96927SOL     OW92554  12.912   0.492   7.767
96927SOL    HW192555  12.971   0.430   7.723
96927SOL    HW292556  12.831   0.442   7.780
96928SOL     OW92557   6.641   6.196  14.680
96928SOL    HW192558   6.610   6.191  14.589
96928SOL    HW292559   6.736   6.197  14.672
96929SOL     OW92560   1.502   2.326   4.184
96929SOL    HW192561   1.553   2.363   4.111
96929SOL    HW292562   1.412   2.326   4.152
96930SOL     OW92563  11.826   5.250  12.359
96930SOL    HW192564  11.756   5.287  12.413
96930SOL    HW292565  11.867   5.326  12.318
96931SOL     OW92566   2.623  14.538   5.233
96931SOL    HW192567   2.679  14.522   5.157
96931SOL    HW292568   2.565  14.609   5.205
96932SOL     OW92569   4.033   6.312   1.053
96932SOL    HW192570   4.116   6.357   1.037
96932SOL    HW292571   4.047   6.263   1.134
96933SOL     OW92572   6.556  12.700  11.822
96933SOL    HW192573   6.629  12.642  11.844
96933SOL    HW292574   6.522  12.665  11.740
96934SOL     OW92575   8.752  10.928   4.453
96934SOL    HW192576   8.752  10.846   4.503
96934SOL    HW292577   8.786  10.904   4.367
96935SOL     OW92578   4.685  11.599  12.985
96935SOL    HW192579   4.684  11.508  12.956
96935SOL    HW292580   4.634  11.600  13.066
96936SOL     OW92581   7.530   7.337   6.059
96936SOL    HW192582   7.591   7.302   5.994
96936SOL    HW292583   7.470   7.265   6.078
96937SOL     OW92584  13.907   2.389  12.239
96937SOL    HW192585  13.960   2.375  12.318
96937SOL    HW292586  13.858   2.469  12.257
96938SOL     OW92587   7.019  10.522   8.282
96938SOL    HW192588   7.044  10.466   8.208
96938SOL    HW292589   7.099  10.572   8.302
96939SOL     OW92590   0.584  10.689   5.365
96939SOL    HW192591   0.511  10.668   5.423
96939SOL    HW292592   0.542  10.713   5.282
96940SOL     OW92593   0.555  14.685   6.351
96940SOL    HW192594   0.471  14.722   6.378
96940SOL    HW292595   0.620  14.731   6.404
96941SOL     OW92596   3.735   2.843  12.059
96941SOL    HW192597   3.743   2.751  12.084
96941SOL    HW292598   3.646   2.868  12.085
96942SOL     OW92599  13.389   1.842  11.606
96942SOL    HW192600  13.407   1.933  11.583
96942SOL    HW292601  13.297   1.841  11.632
96943SOL     OW92602  13.415   9.807  10.405
96943SOL    HW192603  13.336   9.829  10.355
96943SOL    HW292604  13.482   9.868  10.373
96944SOL     OW92605  10.289  11.244  11.084
96944SOL    HW192606  10.197  11.268  11.094
96944SOL    HW292607  10.287  11.149  11.070
96945SOL     OW92608   7.037   0.285  13.855
96945SOL    HW192609   6.975   0.220  13.822
96945SOL    HW292610   7.123   0.244  13.844
96946SOL     OW92611   0.340  14.020  13.700
96946SOL    HW192612   0.417  14.072  13.679
96946SOL    HW292613   0.344  14.009  13.795
96947SOL     OW92614   0.447   4.961   0.344
96947SOL    HW192615   0.435   4.900   0.416
96947SOL    HW292616   0.358   4.979   0.312
96948SOL     OW92617   3.900   4.961  11.767
96948SOL    HW192618   3.979   5.013  11.752
96948SOL    HW292619   3.865   4.943  11.680
96949SOL     OW92620   5.918   3.254   2.553
96949SOL    HW192621   5.844   3.196   2.536
96949SOL    HW292622   5.983   3.230   2.488
96950SOL     OW92623  13.937   5.456   3.586
96950SOL    HW192624  14.017   5.447   3.637
96950SOL    HW292625  13.962   5.431   3.497
96951SOL     OW92626  14.196   7.411  12.310
96951SOL    HW192627  14.216   7.319  12.291
96951SOL    HW292628  14.110   7.407  12.354
96952SOL     OW92629   9.426  12.351   2.982
96952SOL    HW192630   9.511  12.347   2.937
96952SOL    HW292631   9.424  12.438   3.022
96953SOL     OW92632  12.896  10.031   8.634
96953SOL    HW192633  12.960  10.089   8.593
96953SOL    HW292634  12.889   9.957   8.574
96954SOL     OW92635  12.400  12.540  10.156
96954SOL    HW192636  12.475  12.499  10.112
96954SOL    HW292637  12.400  12.500  10.244
96955SOL     OW92638   2.346  10.375  11.139
96955SOL    HW192639   2.428  10.326  11.133
96955SOL    HW292640   2.365  10.459  11.098
96956SOL     OW92641   6.032  10.568   6.073
96956SOL    HW192642   6.011  10.491   6.126
96956SOL    HW292643   5.955  10.623   6.079
96957SOL     OW92644   4.938   0.039  10.748
96957SOL    HW192645   4.871   0.019  10.813
96957SOL    HW292646   4.935  14.847  10.687
96958SOL     OW92647   5.061   5.288   7.206
96958SOL    HW192648   5.028   5.300   7.117
96958SOL    HW292649   5.154   5.270   7.194
96959SOL     OW92650  14.631   8.969   5.240
96959SOL    HW192651  14.571   9.001   5.173
96959SOL    HW292652  14.715   8.959   5.195
96960SOL     OW92653   4.738  13.342  13.501
96960SOL    HW192654   4.825  13.364  13.466
96960SOL    HW292655   4.726  13.250  13.479
96961SOL     OW92656  14.276  12.363  12.916
96961SOL    HW192657  14.231  12.279  12.931
96961SOL    HW292658  14.272  12.407  13.001
96962SOL     OW92659   4.667  12.651   1.114
96962SOL    HW192660   4.714  12.583   1.164
96962SOL    HW292661   4.667  12.619   1.024
96963SOL     OW92662   9.280   9.219   4.686
96963SOL    HW192663   9.329   9.222   4.604
96963SOL    HW292664   9.188   9.219   4.659
96964SOL     OW92665   3.059   6.238   4.098
96964SOL    HW192666   3.122   6.222   4.168
96964SOL    HW292667   3.113   6.262   4.022
96965SOL     OW92668   0.935  12.969   0.553
96965SOL    HW192669   0.992  12.990   0.479
96965SOL    HW292670   0.989  12.989   0.631
96966SOL     OW92671   0.995   0.430  10.977
96966SOL    HW192672   0.908   0.423  10.938
96966SOL    HW292673   1.050   0.371  10.926
96967SOL     OW92674   0.905  11.011  10.689
96967SOL    HW192675   0.895  11.106  10.700
96967SOL    HW292676   0.823  10.974  10.720
96968SOL     OW92677  12.049   2.548   6.686
96968SOL    HW192678  11.988   2.476   6.671
96968SOL    HW292679  12.053   2.594   6.602
96969SOL     OW92680   8.182   3.970  13.575
96969SOL    HW192681   8.156   3.881  13.551
96969SOL    HW292682   8.116   3.998  13.640
96970SOL     OW92683   0.549  13.146  13.839
96970SOL    HW192684   0.535  13.147  13.745
96970SOL    HW292685   0.634  13.188  13.851
96971SOL     OW92686   3.764   5.037   7.182
96971SOL    HW192687   3.783   5.079   7.266
96971SOL    HW292688   3.711   5.101   7.135
96972SOL     OW92689   1.925   6.555   2.464
96972SOL    HW192690   1.831   6.571   2.473
96972SOL    HW292691   1.966   6.633   2.502
96973SOL     OW92692   7.762  12.636   3.192
96973SOL    HW192693   7.770  12.724   3.154
96973SOL    HW292694   7.848  12.597   3.179
96974SOL     OW92695   8.885   5.589   7.669
96974SOL    HW192696   8.791   5.588   7.653
96974SOL    HW292697   8.906   5.680   7.687
96975SOL     OW92698   8.655   4.939  10.950
96975SOL    HW192699   8.598   4.888  11.008
96975SOL    HW292700   8.611   4.935  10.864
96976SOL     OW92701   7.286   0.994  14.011
96976SOL    HW192702   7.211   0.991  14.071
96976SOL    HW292703   7.331   1.075  14.033
96977SOL     OW92704   0.797   4.709   8.942
96977SOL    HW192705   0.874   4.739   8.990
96977SOL    HW292706   0.815   4.618   8.921
96978SOL     OW92707  12.632   5.003   1.006
96978SOL    HW192708  12.700   5.070   1.012
96978SOL    HW292709  12.554   5.050   0.977
96979SOL     OW92710   3.674  10.840   6.697
96979SOL    HW192711   3.692  10.847   6.791
96979SOL    HW292712   3.602  10.777   6.691
96980SOL     OW92713   1.773   1.030   5.874
96980SOL    HW192714   1.701   1.014   5.936
96980SOL    HW292715   1.773   0.953   5.817
96981SOL     OW92716  13.271   5.199   2.066
96981SOL    HW192717  13.186   5.159   2.086
96981SOL    HW292718  13.327   5.125   2.043
96982SOL     OW92719   1.244  13.792   3.674
96982SOL    HW192720   1.311  13.761   3.735
96982SOL    HW292721   1.289  13.858   3.621
96983SOL     OW92722  12.264  11.445   4.034
96983SOL    HW192723  12.298  11.513   4.093
96983SOL    HW292724  12.314  11.457   3.953
96984SOL     OW92725   7.956  10.391   9.067
96984SOL    HW192726   7.929  10.396   8.975
96984SOL    HW292727   8.051  10.397   9.064
96985SOL     OW92728  10.056   4.165   6.764
96985SOL    HW192729  10.015   4.121   6.689
96985SOL    HW292730  10.093   4.245   6.727
96986SOL     OW92731   5.125   9.451   5.626
96986SOL    HW192732   5.200   9.480   5.574
96986SOL    HW292733   5.164   9.419   5.708
96987SOL     OW92734  10.462   4.153   2.582
96987SOL    HW192735  10.529   4.221   2.589
96987SOL    HW292736  10.479   4.095   2.656
96988SOL     OW92737   3.235   4.331   9.580
96988SOL    HW192738   3.142   4.314   9.562
96988SOL    HW292739   3.239   4.425   9.599
96989SOL     OW92740  11.734   5.731   1.242
96989SOL    HW192741  11.783   5.735   1.324
96989SOL    HW292742  11.642   5.742   1.269
96990SOL     OW92743  13.466   6.530  14.471
96990SOL    HW192744  13.390   6.556  14.522
96990SOL    HW292745  13.495   6.448  14.510
96991SOL     OW92746   3.175   8.270   8.742
96991SOL    HW192747   3.256   8.256   8.791
96991SOL    HW292748   3.137   8.183   8.733
96992SOL     OW92749   2.945   3.448  10.236
96992SOL    HW192750   3.000   3.370  10.233
96992SOL    HW292751   2.980   3.505  10.167
96993SOL     OW92752   8.185   4.161   2.815
96993SOL    HW192753   8.178   4.256   2.801
96993SOL    HW292754   8.142   4.146   2.899
96994SOL     OW92755  12.353  12.216   9.984
96994SOL    HW192756  12.431  12.272   9.979
96994SOL    HW292757  12.367  12.163  10.062
96995SOL     OW92758  10.991   8.089   9.935
96995SOL    HW192759  10.900   8.112   9.951
96995SOL    HW292760  11.003   8.005   9.979
96996SOL     OW92761   2.219   7.167  13.557
96996SOL    HW192762   2.237   7.191  13.647
96996SOL    HW292763   2.137   7.211  13.535
96997SOL     OW92764   1.546   9.413  14.234
96997SOL    HW192765   1.487   9.474  14.190
96997SOL    HW292766   1.624   9.464  14.253
96998SOL     OW92767   8.568   4.795   9.323
96998SOL    HW192768   8.659   4.822   9.335
96998SOL    HW292769   8.541   4.762   9.408
96999SOL     OW92770   8.679   3.095  13.007
96999SOL    HW192771   8.686   3.009  12.967
96999SOL    HW292772   8.596   3.130  12.975
97000SOL     OW92773   8.721   4.293   5.499
97000SOL    HW192774   8.721   4.387   5.480
97000SOL    HW292775   8.696   4.252   5.416
97001SOL     OW92776  11.094   4.190   2.887
97001SOL    HW192777  11.075   4.164   2.797
97001SOL    HW292778  11.108   4.108   2.934
97002SOL     OW92779   4.175   2.982  13.375
97002SOL    HW192780   4.090   2.941  13.365
97002SOL    HW292781   4.207   2.951  13.460
97003SOL     OW92782  11.282   5.525   5.449
97003SOL    HW192783  11.220   5.542   5.521
97003SOL    HW292784  11.301   5.432   5.456
97004SOL     OW92785   3.048  12.399   6.894
97004SOL    HW192786   3.038  12.395   6.798
97004SOL    HW292787   2.974  12.453   6.923
97005SOL     OW92788   0.665  12.627  13.264
97005SOL    HW192789   0.744  12.674  13.239
97005SOL    HW292790   0.687  12.589  13.349
97006SOL     OW92791  14.227   6.293   4.290
97006SOL    HW192792  14.307   6.297   4.238
97006SOL    HW292793  14.204   6.200   4.292
97007SOL     OW92794   6.161   2.041  12.434
97007SOL    HW192795   6.254   2.051  12.456
97007SOL    HW292796   6.131   2.130  12.416
97008SOL     OW92797  11.001  13.208   5.025
97008SOL    HW192798  11.030  13.180   4.939
97008SOL    HW292799  11.009  13.131   5.080
97009SOL     OW92800   2.467  13.720  11.213
97009SOL    HW192801   2.430  13.638  11.181
97009SOL    HW292802   2.559  13.700  11.230
97010SOL     OW92803   0.757   9.606  11.506
97010SOL    HW192804   0.782   9.694  11.534
97010SOL    HW292805   0.817   9.548  11.554
97011SOL     OW92806  12.627  11.228   2.888
97011SOL    HW192807  12.544  11.265   2.917
97011SOL    HW292808  12.686  11.303   2.883
97012SOL     OW92809   1.686   9.043  13.341
97012SOL    HW192810   1.689   8.953  13.308
97012SOL    HW292811   1.760   9.086  13.298
97013SOL     OW92812   0.393   8.489   5.470
97013SOL    HW192813   0.380   8.403   5.428
97013SOL    HW292814   0.305   8.522   5.485
97014SOL     OW92815   7.943   7.803  12.532
97014SOL    HW192816   7.911   7.822  12.621
97014SOL    HW292817   7.877   7.842  12.474
97015SOL     OW92818  14.719  14.757   4.335
97015SOL    HW192819  14.799  14.774   4.384
97015SOL    HW292820  14.649  14.789   4.391
97016SOL     OW92821   4.143   2.357   6.479
97016SOL    HW192822   4.128   2.328   6.570
97016SOL    HW292823   4.105   2.445   6.475
97017SOL     OW92824   3.119   7.232  13.385
97017SOL    HW192825   3.044   7.173  13.373
97017SOL    HW292826   3.097   7.309  13.332
97018SOL     OW92827   4.039   4.091  14.148
97018SOL    HW192828   4.117   4.043  14.120
97018SOL    HW292829   4.069   4.182  14.155
97019SOL     OW92830  13.804   7.673   5.265
97019SOL    HW192831  13.785   7.701   5.176
97019SOL    HW292832  13.877   7.727   5.293
97020SOL     OW92833   7.608   5.022  10.563
97020SOL    HW192834   7.650   4.971  10.632
97020SOL    HW292835   7.656   5.105  10.561
97021SOL     OW92836   0.296  14.427   2.351
97021SOL    HW192837   0.311  14.333   2.342
97021SOL    HW292838   0.368  14.467   2.303
97022SOL     OW92839   8.513   1.956  11.914
97022SOL    HW192840   8.562   1.974  11.995
97022SOL    HW292841   8.576   1.972  11.844
97023SOL     OW92842   0.815  13.844   1.176
97023SOL    HW192843   0.744  13.837   1.241
97023SOL    HW292844   0.859  13.926   1.199
97024SOL     OW92845  10.105   5.159  12.515
97024SOL    HW192846  10.069   5.091  12.571
97024SOL    HW292847  10.082   5.131  12.426
97025SOL     OW92848   8.433   5.787   1.281
97025SOL    HW192849   8.506   5.833   1.241
97025SOL    HW292850   8.465   5.699   1.296
97026SOL     OW92851   9.197  11.039   5.656
97026SOL    HW192852   9.125  11.010   5.711
97026SOL    HW292853   9.208  10.968   5.592
97027SOL     OW92854   7.245   3.180   4.849
97027SOL    HW192855   7.333   3.148   4.868
97027SOL    HW292856   7.216   3.126   4.775
97028SOL     OW92857  14.448   6.391   0.404
97028SOL    HW192858  14.488   6.479   0.408
97028SOL    HW292859  14.412   6.378   0.492
97029SOL     OW92860  14.310   2.504   1.637
97029SOL    HW192861  14.315   2.503   1.542
97029SOL    HW292862  14.223   2.469   1.657
97030SOL     OW92863   0.294  11.786   5.897
97030SOL    HW192864   0.206  11.770   5.863
97030SOL    HW292865   0.289  11.875   5.933
97031SOL     OW92866   2.570   9.450   4.545
97031SOL    HW192867   2.509   9.523   4.533
97031SOL    HW292868   2.603   9.432   4.457
97032SOL     OW92869   4.457   5.534   6.128
97032SOL    HW192870   4.507   5.515   6.048
97032SOL    HW292871   4.425   5.448   6.156
97033SOL     OW92872   8.709   2.310  12.921
97033SOL    HW192873   8.703   2.309  13.016
97033SOL    HW292874   8.619   2.296  12.891
97034SOL     OW92875  13.901  11.651  13.652
97034SOL    HW192876  13.873  11.562  13.671
97034SOL    HW292877  13.988  11.641  13.613
97035SOL     OW92878   0.920  11.074  13.303
97035SOL    HW192879   0.963  11.022  13.371
97035SOL    HW292880   0.961  11.160  13.308
97036SOL     OW92881  12.947   1.892   3.151
97036SOL    HW192882  12.985   1.961   3.096
97036SOL    HW292883  12.896   1.938   3.217
97037SOL     OW92884  13.530  14.842  10.136
97037SOL    HW192885  13.476  14.812  10.209
97037SOL    HW292886  13.528   0.056  10.143
97038SOL     OW92887  12.854  13.965   3.932
97038SOL    HW192888  12.929  13.942   3.988
97038SOL    HW292889  12.783  13.910   3.964
97039SOL     OW92890   7.386  14.487   3.258
97039SOL    HW192891   7.474  14.496   3.295
97039SOL    HW292892   7.379  14.394   3.235
97040SOL     OW92893   5.236   8.422   2.327
97040SOL    HW192894   5.307   8.478   2.295
97040SOL    HW292895   5.266   8.392   2.413
97041SOL     OW92896   0.872  12.422  14.429
97041SOL    HW192897   0.915  12.506  14.413
97041SOL    HW292898   0.801  12.418  14.365
97042SOL     OW92899  12.287   6.919  12.813
97042SOL    HW192900  12.229   6.984  12.853
97042SOL    HW292901  12.238   6.837  12.818
97043SOL     OW92902  14.846  12.588   6.020
97043SOL    HW192903   0.020  12.509   6.016
97043SOL    HW292904   0.018  12.657   5.981
97044SOL     OW92905   0.079   4.302  11.918
97044SOL    HW192906   0.044   4.292  11.830
97044SOL    HW292907   0.163   4.257  11.916
97045SOL     OW92908  13.405   9.366   5.899
97045SOL    HW192909  13.323   9.386   5.853
97045SOL    HW292910  13.433   9.450   5.935
97046SOL     OW92911  14.813   1.285  10.655
97046SOL    HW192912  14.770   1.330  10.583
97046SOL    HW292913   0.024   1.306  10.644
97047SOL     OW92914   3.372  11.502   2.232
97047SOL    HW192915   3.400  11.592   2.244
97047SOL    HW292916   3.451  11.454   2.210
97048SOL     OW92917   5.005   7.341   3.052
97048SOL    HW192918   4.934   7.333   2.988
97048SOL    HW292919   5.045   7.425   3.033
97049SOL     OW92920   4.815   4.022   8.220
97049SOL    HW192921   4.781   4.041   8.132
97049SOL    HW292922   4.742   3.978   8.264
97050SOL     OW92923   0.240   3.084  12.030
97050SOL    HW192924   0.149   3.092  12.000
97050SOL    HW292925   0.245   3.140  12.107
97051SOL     OW92926  13.195   2.540   8.786
97051SOL    HW192927  13.114   2.536   8.837
97051SOL    HW292928  13.166   2.539   8.695
97052SOL     OW92929   3.578   9.796   7.170
97052SOL    HW192930   3.631   9.737   7.224
97052SOL    HW292931   3.638   9.867   7.146
97053SOL     OW92932  14.148   9.071   2.008
97053SOL    HW192933  14.101   9.125   1.944
97053SOL    HW292934  14.219   9.032   1.958
97054SOL     OW92935  11.640   2.509   4.106
97054SOL    HW192936  11.622   2.415   4.105
97054SOL    HW292937  11.557   2.549   4.134
97055SOL     OW92938   0.795  12.851   3.712
97055SOL    HW192939   0.768  12.941   3.731
97055SOL    HW292940   0.717  12.811   3.674
97056SOL     OW92941   7.544   1.547   4.445
97056SOL    HW192942   7.519   1.631   4.483
97056SOL    HW292943   7.607   1.510   4.508
97057SOL     OW92944   1.570   5.708  10.823
97057SOL    HW192945   1.624   5.729  10.748
97057SOL    HW292946   1.499   5.773  10.821
97058SOL     OW92947   3.255   8.075   2.762
97058SOL    HW192948   3.238   8.066   2.856
97058SOL    HW292949   3.235   8.166   2.742
97059SOL     OW92950  10.319  10.377  12.930
97059SOL    HW192951  10.300  10.461  12.889
97059SOL    HW292952  10.242  10.358  12.983
97060SOL     OW92953   9.293  12.385  12.748
97060SOL    HW192954   9.383  12.415  12.752
97060SOL    HW292955   9.287  12.338  12.664
97061SOL     OW92956   9.021   0.226   3.785
97061SOL    HW192957   8.932   0.242   3.817
97061SOL    HW292958   9.067   0.308   3.800
97062SOL     OW92959  10.835   6.077   3.596
97062SOL    HW192960  10.751   6.043   3.566
97062SOL    HW292961  10.823   6.172   3.599
97063SOL     OW92962  12.270   4.652  10.556
97063SOL    HW192963  12.192   4.690  10.514
97063SOL    HW292964  12.295   4.716  10.621
97064SOL     OW92965  11.622  10.803   2.667
97064SOL    HW192966  11.683  10.761   2.727
97064SOL    HW292967  11.539  10.806   2.715
97065SOL     OW92968  13.329   3.759  10.800
97065SOL    HW192969  13.248   3.728  10.840
97065SOL    HW292970  13.395   3.694  10.827
97066SOL     OW92971  11.394   2.382   9.917
97066SOL    HW192972  11.310   2.339   9.899
97066SOL    HW292973  11.439   2.384   9.833
97067SOL     OW92974  14.855   5.481   0.889
97067SOL    HW192975  14.795   5.498   0.962
97067SOL    HW292976   0.025   5.406   0.917
97068SOL     OW92977  14.254   5.466   1.260
97068SOL    HW192978  14.266   5.535   1.325
97068SOL    HW292979  14.335   5.414   1.266
97069SOL     OW92980   3.955   2.769   2.967
97069SOL    HW192981   4.028   2.710   2.952
97069SOL    HW292982   3.956   2.784   3.062
97070SOL     OW92983   6.537  11.813   8.268
97070SOL    HW192984   6.471  11.883   8.274
97070SOL    HW292985   6.566  11.816   8.177
97071SOL     OW92986   0.364   7.867   6.335
97071SOL    HW192987   0.454   7.875   6.304
97071SOL    HW292988   0.312   7.851   6.256
97072SOL     OW92989   6.200   1.846   0.223
97072SOL    HW192990   6.236   1.884   0.142
97072SOL    HW292991   6.276   1.837   0.281
97073SOL     OW92992   5.076  12.338  10.556
97073SOL    HW192993   5.017  12.386  10.497
97073SOL    HW292994   5.093  12.398  10.628
97074SOL     OW92995   6.729   3.864  14.189
97074SOL    HW192996   6.656   3.855  14.250
97074SOL    HW292997   6.792   3.920  14.235
97075SOL     OW92998   1.383   7.719   2.789
97075SOL    HW192999   1.471   7.688   2.768
97075SOL    HW293000   1.325   7.667   2.733
97076SOL     OW93001   2.392   9.368  12.977
97076SOL    HW193002   2.334   9.383  12.902
97076SOL    HW293003   2.333   9.346  13.049
97077SOL     OW93004   2.715   4.232   5.363
97077SOL    HW193005   2.692   4.271   5.279
97077SOL    HW293006   2.804   4.200   5.351
97078SOL     OW93007   8.570  12.954  14.858
97078SOL    HW193008   8.625  12.936  14.782
97078SOL    HW293009   8.517  13.029  14.833
97079SOL     OW93010  14.848  10.781   4.026
97079SOL    HW193011  14.821  10.860   3.979
97079SOL    HW293012  14.772  10.757   4.079
97080SOL     OW93013   4.439   9.780   2.775
97080SOL    HW193014   4.533   9.765   2.765
97080SOL    HW293015   4.411   9.812   2.689
97081SOL     OW93016  12.266   0.344  12.702
97081SOL    HW193017  12.227   0.407  12.642
97081SOL    HW293018  12.333   0.299  12.651
97082SOL     OW93019  13.064  13.063   0.933
97082SOL    HW193020  12.980  13.083   0.890
97082SOL    HW293021  13.059  13.107   1.018
97083SOL     OW93022   6.770  10.026   1.754
97083SOL    HW193023   6.802   9.937   1.764
97083SOL    HW293024   6.848  10.081   1.751
97084SOL     OW93025   7.640   8.995   0.198
97084SOL    HW193026   7.615   9.050   0.124
97084SOL    HW293027   7.562   8.992   0.253
97085SOL     OW93028   2.182   8.508   6.345
97085SOL    HW193029   2.205   8.487   6.436
97085SOL    HW293030   2.240   8.453   6.293
97086SOL     OW93031  14.445   6.212   6.040
97086SOL    HW193032  14.536   6.239   6.030
97086SOL    HW293033  14.430   6.209   6.134
97087SOL     OW93034  11.622  12.513  13.707
97087SOL    HW193035  11.642  12.425  13.739
97087SOL    HW293036  11.659  12.572  13.773
97088SOL     OW93037   3.328  12.728   2.291
97088SOL    HW193038   3.361  12.774   2.368
97088SOL    HW293039   3.233  12.728   2.303
97089SOL     OW93040   7.209  12.283  11.335
97089SOL    HW193041   7.228  12.376  11.324
97089SOL    HW293042   7.256  12.240  11.264
97090SOL     OW93043   7.760   2.365  13.337
97090SOL    HW193044   7.841   2.396  13.296
97090SOL    HW293045   7.709   2.330  13.264
97091SOL     OW93046   9.224  10.638  14.199
97091SOL    HW193047   9.246  10.688  14.120
97091SOL    HW293048   9.239  10.699  14.270
97092SOL     OW93049   7.531   0.200   4.386
97092SOL    HW193050   7.541   0.283   4.340
97092SOL    HW293051   7.595   0.142   4.345
97093SOL     OW93052  12.437  11.402   3.815
97093SOL    HW193053  12.420  11.465   3.744
97093SOL    HW293054  12.486  11.452   3.880
97094SOL     OW93055   5.367   2.326   3.813
97094SOL    HW193056   5.277   2.357   3.823
97094SOL    HW293057   5.419   2.391   3.860
97095SOL     OW93058   1.104  11.458   6.492
97095SOL    HW193059   1.136  11.396   6.426
97095SOL    HW293060   1.113  11.411   6.575
97096SOL     OW93061   8.161   7.196   8.981
97096SOL    HW193062   8.239   7.251   8.985
97096SOL    HW293063   8.152   7.162   9.070
97097SOL     OW93064  13.431   4.712  12.393
97097SOL    HW193065  13.514   4.743  12.357
97097SOL    HW293066  13.395   4.788  12.438
97098SOL     OW93067   7.642   6.684   2.939
97098SOL    HW193068   7.612   6.609   2.992
97098SOL    HW293069   7.711   6.724   2.991
97099SOL     OW93070   1.840   1.394   6.516
97099SOL    HW193071   1.932   1.378   6.496
97099SOL    HW293072   1.828   1.361   6.605
97100SOL     OW93073   4.415   8.322   5.049
97100SOL    HW193074   4.476   8.251   5.030
97100SOL    HW293075   4.328   8.281   5.045
97101SOL     OW93076   7.840   2.139   7.872
97101SOL    HW193077   7.875   2.050   7.878
97101SOL    HW293078   7.804   2.146   7.784
97102SOL     OW93079   7.106  14.462  13.838
97102SOL    HW193080   7.063  14.379  13.860
97102SOL    HW293081   7.033  14.521  13.818
97103SOL     OW93082   6.381   6.205   3.281
97103SOL    HW193083   6.424   6.168   3.204
97103SOL    HW293084   6.422   6.160   3.355
97104SOL     OW93085   6.610   9.006   4.481
97104SOL    HW193086   6.619   9.080   4.542
97104SOL    HW293087   6.644   9.040   4.398
97105SOL     OW93088   3.824   6.309   1.474
97105SOL    HW193089   3.829   6.377   1.407
97105SOL    HW293090   3.782   6.235   1.430
97106SOL     OW93091  13.119   7.807  10.082
97106SOL    HW193092  13.068   7.828  10.004
97106SOL    HW293093  13.067   7.843  10.154
97107SOL     OW93094   1.910   8.073   9.305
97107SOL    HW193095   1.817   8.093   9.319
97107SOL    HW293096   1.945   8.061   9.393
97108SOL     OW93097  10.209   4.918   3.461
97108SOL    HW193098  10.274   4.904   3.392
97108SOL    HW293099  10.236   4.859   3.532
97109SOL     OW93100  10.179  10.360   6.931
97109SOL    HW193101  10.089  10.329   6.917
97109SOL    HW293102  10.184  10.375   7.025
97110SOL     OW93103  14.708   4.930   9.192
97110SOL    HW193104  14.644   4.963   9.129
97110SOL    HW293105  14.687   4.974   9.274
97111SOL     OW93106   0.441   4.267   3.911
97111SOL    HW193107   0.530   4.249   3.941
97111SOL    HW293108   0.387   4.205   3.959
97112SOL     OW93109   5.173   5.022   9.285
97112SOL    HW193110   5.174   5.069   9.369
97112SOL    HW293111   5.080   5.005   9.269
97113SOL     OW93112  11.959   3.325   7.653
97113SOL    HW193113  11.910   3.402   7.624
97113SOL    HW293114  11.931   3.311   7.743
97114SOL     OW93115   1.882   3.295  14.172
97114SOL    HW193116   1.923   3.363  14.118
97114SOL    HW293117   1.955   3.239  14.199
97115SOL     OW93118  10.592   0.360   0.316
97115SOL    HW193119  10.502   0.330   0.326
97115SOL    HW293120  10.585   0.441   0.267
97116SOL     OW93121  13.120   7.121   7.565
97116SOL    HW193122  13.124   7.026   7.578
97116SOL    HW293123  13.036   7.147   7.602
97117SOL     OW93124  12.482   6.666  11.406
97117SOL    HW193125  12.426   6.641  11.332
97117SOL    HW293126  12.571   6.650  11.376
97118SOL     OW93127  13.018   0.714  13.035
97118SOL    HW193128  13.018   0.794  12.982
97118SOL    HW293129  12.978   0.741  13.118
97119SOL     OW93130   5.697   0.617   6.098
97119SOL    HW193131   5.609   0.655   6.100
97119SOL    HW293132   5.738   0.648   6.179
97120SOL     OW93133   9.095  10.173  12.689
97120SOL    HW193134   9.034  10.127  12.747
97120SOL    HW293135   9.065  10.153  12.601
97121SOL     OW93136  13.589   7.292  10.077
97121SOL    HW193137  13.498   7.262  10.078
97121SOL    HW293138  13.583   7.385  10.052
97122SOL     OW93139  14.046   6.370  14.087
97122SOL    HW193140  14.133   6.364  14.126
97122SOL    HW293141  14.055   6.325  14.002
97123SOL     OW93142   4.299   1.645   4.817
97123SOL    HW193143   4.353   1.577   4.857
97123SOL    HW293144   4.209   1.613   4.827
97124SOL     OW93145   0.127  11.233   5.687
97124SOL    HW193146   0.178  11.304   5.727
97124SOL    HW293147   0.102  11.268   5.601
97125SOL     OW93148   5.252  12.676   0.568
97125SOL    HW193149   5.281  12.762   0.597
97125SOL    HW293150   5.330  12.621   0.573
97126SOL     OW93151   7.653  10.623   7.651
97126SOL    HW193152   7.656  10.567   7.728
97126SOL    HW293153   7.595  10.695   7.675
97127SOL     OW93154  14.040   8.751  13.976
97127SOL    HW193155  14.068   8.742  14.067
97127SOL    HW293156  14.018   8.662  13.949
97128SOL     OW93157   8.895  13.440  13.520
97128SOL    HW193158   8.880  13.426  13.613
97128SOL    HW293159   8.966  13.505  13.516
97129SOL     OW93160  14.611  13.996   6.879
97129SOL    HW193161  14.695  13.993   6.924
97129SOL    HW293162  14.587  13.904   6.867
97130SOL     OW93163  10.057  10.662  12.206
97130SOL    HW193164  10.122  10.597  12.179
97130SOL    HW293165  10.085  10.743  12.163
97131SOL     OW93166  10.367   9.328   2.101
97131SOL    HW193167  10.354   9.354   2.192
97131SOL    HW293168  10.281   9.299   2.071
97132SOL     OW93169   5.903   4.093   4.439
97132SOL    HW193170   5.967   4.063   4.504
97132SOL    HW293171   5.946   4.077   4.355
97133SOL     OW93172   2.324   7.442  13.979
97133SOL    HW193173   2.363   7.523  14.011
97133SOL    HW293174   2.235   7.467  13.952
97134SOL     OW93175   9.714  13.375   0.639
97134SOL    HW193176   9.791  13.341   0.685
97134SOL    HW293177   9.647  13.307   0.650
97135SOL     OW93178   1.435  10.937   4.683
97135SOL    HW193179   1.516  10.904   4.721
97135SOL    HW293180   1.368  10.876   4.713
97136SOL     OW93181   3.046  11.098   9.032
97136SOL    HW193182   3.136  11.128   9.047
97136SOL    HW293183   3.014  11.152   8.961
97137SOL     OW93184   5.977  11.481   5.165
97137SOL    HW193185   5.953  11.451   5.253
97137SOL    HW293186   5.903  11.533   5.136
97138SOL     OW93187  11.509  12.574   7.269
97138SOL    HW193188  11.413  12.575   7.262
97138SOL    HW293189  11.526  12.614   7.355
97139SOL     OW93190   7.053  10.914  11.534
97139SOL    HW193191   7.002  10.876  11.606
97139SOL    HW293192   7.100  10.987  11.575
97140SOL     OW93193   3.163   8.310   0.334
97140SOL    HW193194   3.227   8.370   0.295
97140SOL    HW293195   3.133   8.257   0.261
97141SOL     OW93196   3.103  12.152   7.012
97141SOL    HW193197   3.030  12.094   6.991
97141SOL    HW293198   3.099  12.220   6.944
97142SOL     OW93199   2.809  10.094  11.738
97142SOL    HW193200   2.888  10.055  11.777
97142SOL    HW293201   2.838  10.178  11.703
97143SOL     OW93202  13.723   7.053   5.279
97143SOL    HW193203  13.697   7.096   5.361
97143SOL    HW293204  13.653   7.073   5.218
97144SOL     OW93205   7.485   8.678   3.157
97144SOL    HW193206   7.543   8.603   3.146
97144SOL    HW293207   7.433   8.656   3.235
97145SOL     OW93208   4.206  10.370  14.282
97145SOL    HW193209   4.184  10.312  14.209
97145SOL    HW293210   4.278  10.424  14.250
97146SOL     OW93211  14.591   0.999  11.139
97146SOL    HW193212  14.622   0.949  11.214
97146SOL    HW293213  14.509   1.040  11.170
97147SOL     OW93214  13.069  10.046   2.459
97147SOL    HW193215  13.082  10.124   2.514
97147SOL    HW293216  13.091  10.076   2.370
97148SOL     OW93217  13.081   4.473  10.503
97148SOL    HW193218  13.167   4.451  10.467
97148SOL    HW293219  13.096   4.486  10.597
97149SOL     OW93220   5.795   3.017  14.366
97149SOL    HW193221   5.792   3.072  14.288
97149SOL    HW293222   5.860   3.060  14.423
97150SOL     OW93223   0.325   1.069   5.515
97150SOL    HW193224   0.270   1.052   5.438
97150SOL    HW293225   0.285   1.145   5.556
97151SOL     OW93226  13.333   7.348   9.963
97151SOL    HW193227  13.386   7.427   9.967
97151SOL    HW293228  13.244   7.378   9.980
97152SOL     OW93229  10.979   5.844   9.871
97152SOL    HW193230  11.064   5.801   9.881
97152SOL    HW293231  10.990   5.902   9.796
97153SOL     OW93232  12.487   5.154   9.609
97153SOL    HW193233  12.420   5.187   9.669
97153SOL    HW293234  12.569   5.190   9.644
97154SOL     OW93235   8.501   7.600   4.013
97154SOL    HW193236   8.595   7.581   4.009
97154SOL    HW293237   8.495   7.677   4.070
97155SOL     OW93238   8.447   8.599  10.023
97155SOL    HW193239   8.480   8.689  10.016
97155SOL    HW293240   8.503   8.548   9.965
97156SOL     OW93241  14.649  13.628  14.576
97156SOL    HW193242  14.627  13.651  14.666
97156SOL    HW293243  14.734  13.668  14.561
97157SOL     OW93244   9.829   1.715   2.563
97157SOL    HW193245   9.879   1.785   2.606
97157SOL    HW293246   9.862   1.714   2.473
97158SOL     OW93247   8.927  11.293   9.001
97158SOL    HW193248   8.960  11.214   9.042
97158SOL    HW293249   8.995  11.359   9.016
97159SOL     OW93250  13.370   7.169   0.720
97159SOL    HW193251  13.317   7.240   0.757
97159SOL    HW293252  13.323   7.143   0.641
97160SOL     OW93253  11.687   2.249  10.876
97160SOL    HW193254  11.751   2.235  10.806
97160SOL    HW293255  11.625   2.177  10.867
97161SOL     OW93256  10.446   7.474   1.256
97161SOL    HW193257  10.540   7.462   1.267
97161SOL    HW293258  10.431   7.567   1.274
97162SOL     OW93259   0.152   6.311   8.186
97162SOL    HW193260   0.218   6.248   8.156
97162SOL    HW293261   0.102   6.331   8.107
97163SOL     OW93262  14.394   9.600   8.367
97163SOL    HW193263  14.392   9.598   8.462
97163SOL    HW293264  14.479   9.561   8.344
97164SOL     OW93265   1.268   8.215  10.084
97164SOL    HW193266   1.273   8.303  10.121
97164SOL    HW293267   1.345   8.207  10.029
97165SOL     OW93268   8.495  13.491   2.338
97165SOL    HW193269   8.401  13.507   2.332
97165SOL    HW293270   8.528  13.558   2.397
97166SOL     OW93271   4.836   1.702   1.315
97166SOL    HW193272   4.923   1.688   1.277
97166SOL    HW293273   4.847   1.778   1.372
97167SOL     OW93274  12.517   6.769  14.076
97167SOL    HW193275  12.590   6.708  14.082
97167SOL    HW293276  12.531   6.831  14.147
97168SOL     OW93277   4.843   8.998   8.955
97168SOL    HW193278   4.788   8.937   9.005
97168SOL    HW293279   4.847   8.960   8.868
97169SOL     OW93280  12.184   3.194   9.660
97169SOL    HW193281  12.213   3.261   9.721
97169SOL    HW293282  12.263   3.144   9.639
97170SOL     OW93283   1.926  11.956   2.555
97170SOL    HW193284   1.965  12.036   2.519
97170SOL    HW293285   1.973  11.941   2.637
97171SOL     OW93286  12.118   6.626   3.275
97171SOL    HW193287  12.067   6.685   3.219
97171SOL    HW293288  12.063   6.548   3.284
97172SOL     OW93289   5.518  14.297   6.236
97172SOL    HW193290   5.553  14.243   6.307
97172SOL    HW293291   5.594  14.320   6.184
97173SOL     OW93292  11.236  14.307   7.713
97173SOL    HW193293  11.238  14.328   7.807
97173SOL    HW293294  11.214  14.389   7.671
97174SOL     OW93295  11.127  14.656  12.463
97174SOL    HW193296  11.120  14.641  12.369
97174SOL    HW293297  11.100  14.747  12.475
97175SOL     OW93298  14.456  14.635   8.981
97175SOL    HW193299  14.438  14.727   8.963
97175SOL    HW293300  14.415  14.619   9.066
97176SOL     OW93301   9.729   4.677  10.718
97176SOL    HW193302   9.765   4.729  10.789
97176SOL    HW293303   9.773   4.709  10.639
97177SOL     OW93304   0.152   7.362   5.982
97177SOL    HW193305   0.188   7.451   5.980
97177SOL    HW293306   0.057   7.375   5.990
97178SOL     OW93307   7.741   8.445  13.030
97178SOL    HW193308   7.740   8.539  13.011
97178SOL    HW293309   7.700   8.437  13.116
97179SOL     OW93310  12.373   6.146   5.915
97179SOL    HW193311  12.278   6.156   5.910
97179SOL    HW293312  12.406   6.193   5.838
97180SOL     OW93313   0.604   6.252   6.202
97180SOL    HW193314   0.597   6.275   6.109
97180SOL    HW293315   0.627   6.160   6.202
97181SOL     OW93316  13.503   6.059   0.092
97181SOL    HW193317  13.455   5.986   0.054
97181SOL    HW293318  13.488   6.052   0.186
97182SOL     OW93319   3.016   0.844   1.037
97182SOL    HW193320   2.999   0.909   0.970
97182SOL    HW293321   2.947   0.778   1.025
97183SOL     OW93322   6.188   4.161   7.663
97183SOL    HW193323   6.142   4.239   7.633
97183SOL    HW293324   6.132   4.088   7.635
97184SOL     OW93325  14.448   5.077   7.399
97184SOL    HW193326  14.426   5.004   7.457
97184SOL    HW293327  14.364   5.103   7.360
97185SOL     OW93328  11.065   6.526   1.757
97185SOL    HW193329  11.001   6.461   1.730
97185SOL    HW293330  11.036   6.607   1.715
97186SOL     OW93331   3.212  12.795   8.348
97186SOL    HW193332   3.129  12.782   8.302
97186SOL    HW293333   3.277  12.754   8.292
97187SOL     OW93334   9.261   9.821   0.023
97187SOL    HW193335   9.298   9.744  14.861
97187SOL    HW293336   9.211   9.866  14.837
97188SOL     OW93337  11.450  10.018   0.164
97188SOL    HW193338  11.514  10.073   0.118
97188SOL    HW293339  11.419  10.073   0.235
97189SOL     OW93340  10.764   7.498   5.955
97189SOL    HW193341  10.728   7.455   5.878
97189SOL    HW293342  10.689   7.513   6.012
97190SOL     OW93343  13.179   7.377  14.575
97190SOL    HW193344  13.191   7.470  14.555
97190SOL    HW293345  13.103   7.375  14.634
97191SOL     OW93346   0.661  11.405   1.448
97191SOL    HW193347   0.755  11.400   1.468
97191SOL    HW293348   0.627  11.317   1.467
97192SOL     OW93349   4.997   3.489   4.716
97192SOL    HW193350   4.964   3.517   4.802
97192SOL    HW293351   5.035   3.403   4.732
97193SOL     OW93352  11.535   2.968  10.921
97193SOL    HW193353  11.447   2.961  10.883
97193SOL    HW293354  11.549   3.063  10.929
97194SOL     OW93355  12.518   3.438  13.957
97194SOL    HW193356  12.491   3.426  13.866
97194SOL    HW293357  12.497   3.530  13.976
97195SOL     OW93358  12.199  12.806   7.502
97195SOL    HW193359  12.104  12.806   7.491
97195SOL    HW293360  12.233  12.785   7.415
97196SOL     OW93361   6.959   3.184   9.200
97196SOL    HW193362   7.022   3.204   9.131
97196SOL    HW293363   6.924   3.098   9.176
97197SOL     OW93364  11.771   6.442  11.656
97197SOL    HW193365  11.839   6.388  11.696
97197SOL    HW293366  11.805   6.532  11.663
97198SOL     OW93367  11.239  14.253  10.722
97198SOL    HW193368  11.323  14.240  10.765
97198SOL    HW293369  11.253  14.226  10.632
97199SOL     OW93370   0.426  13.561   8.978
97199SOL    HW193371   0.390  13.486   8.930
97199SOL    HW293372   0.379  13.560   9.062
97200SOL     OW93373   2.047   1.981   1.470
97200SOL    HW193374   1.980   1.942   1.526
97200SOL    HW293375   2.098   1.906   1.439
97201SOL     OW93376  13.853   5.887  12.567
97201SOL    HW193377  13.767   5.845  12.568
97201SOL    HW293378  13.852   5.941  12.488
97202SOL     OW93379  10.369  12.859  10.598
97202SOL    HW193380  10.364  12.898  10.510
97202SOL    HW293381  10.463  12.856  10.617
97203SOL     OW93382  14.824  11.465   9.336
97203SOL    HW193383  14.877  11.474   9.257
97203SOL    HW293384  14.740  11.431   9.305
97204SOL     OW93385   6.257   5.610   2.622
97204SOL    HW193386   6.219   5.527   2.653
97204SOL    HW293387   6.221   5.622   2.534
97205SOL     OW93388   3.875  12.821  13.782
97205SOL    HW193389   3.824  12.746  13.813
97205SOL    HW293390   3.818  12.866  13.720
97206SOL     OW93391  10.707   0.389  12.524
97206SOL    HW193392  10.719   0.348  12.439
97206SOL    HW293393  10.795   0.411  12.554
97207SOL     OW93394  10.513  13.339  12.602
97207SOL    HW193395  10.566  13.306  12.675
97207SOL    HW293396  10.535  13.432  12.596
97208SOL     OW93397   4.267   5.051   9.873
97208SOL    HW193398   4.283   5.142   9.850
97208SOL    HW293399   4.181   5.051   9.915
97209SOL     OW93400   1.849   1.333   5.972
97209SOL    HW193401   1.756   1.353   5.967
97209SOL    HW293402   1.892   1.415   5.947
97210SOL     OW93403   3.617  11.350   8.636
97210SOL    HW193404   3.550  11.306   8.688
97210SOL    HW293405   3.673  11.279   8.606
97211SOL     OW93406   0.191   6.992   5.549
97211SOL    HW193407   0.179   7.029   5.462
97211SOL    HW293408   0.175   7.064   5.609
97212SOL     OW93409   3.194   8.116   0.907
97212SOL    HW193410   3.203   8.192   0.964
97212SOL    HW293411   3.263   8.127   0.841
97213SOL     OW93412   3.646   6.868   1.597
97213SOL    HW193413   3.615   6.814   1.524
97213SOL    HW293414   3.575   6.932   1.611
97214SOL     OW93415   0.662   3.967   9.243
97214SOL    HW193416   0.577   4.010   9.230
97214SOL    HW293417   0.724   4.020   9.192
97215SOL     OW93418   2.997   3.222  10.866
97215SOL    HW193419   2.954   3.141  10.894
97215SOL    HW293420   2.947   3.292  10.908
97216SOL     OW93421  13.600   5.465   9.567
97216SOL    HW193422  13.614   5.547   9.615
97216SOL    HW293423  13.513   5.475   9.528
97217SOL     OW93424   0.367   2.381   8.642
97217SOL    HW193425   0.331   2.360   8.555
97217SOL    HW293426   0.430   2.312   8.659
97218SOL     OW93427  10.317  12.104   6.314
97218SOL    HW193428  10.286  12.091   6.224
97218SOL    HW293429  10.244  12.075   6.369
97219SOL     OW93430   0.749  13.786  11.986
97219SOL    HW193431   0.687  13.774  11.913
97219SOL    HW293432   0.770  13.879  11.984
97220SOL     OW93433   3.245  11.092  12.081
97220SOL    HW193434   3.304  11.111  12.154
97220SOL    HW293435   3.275  11.149  12.010
97221SOL     OW93436  11.501  14.548  11.834
97221SOL    HW193437  11.467  14.518  11.918
97221SOL    HW293438  11.587  14.506  11.826
97222SOL     OW93439   3.180   1.866   0.421
97222SOL    HW193440   3.109   1.915   0.379
97222SOL    HW293441   3.155   1.864   0.514
97223SOL     OW93442   5.481  11.114   8.258
97223SOL    HW193443   5.512  11.072   8.338
97223SOL    HW293444   5.518  11.061   8.187
97224SOL     OW93445   3.629   8.475  10.103
97224SOL    HW193446   3.603   8.423  10.179
97224SOL    HW293447   3.706   8.525  10.132
97225SOL     OW93448  11.051  12.482   1.527
97225SOL    HW193449  11.097  12.411   1.481
97225SOL    HW293450  11.112  12.555   1.525
97226SOL     OW93451   4.479   5.626   3.799
97226SOL    HW193452   4.492   5.680   3.721
97226SOL    HW293453   4.565   5.624   3.841
97227SOL     OW93454   6.161   5.140   6.222
97227SOL    HW193455   6.072   5.170   6.239
97227SOL    HW293456   6.213   5.180   6.291
97228SOL     OW93457   4.686   3.533  12.142
97228SOL    HW193458   4.605   3.579  12.163
97228SOL    HW293459   4.689   3.532  12.047
97229SOL     OW93460   4.642   9.268  14.548
97229SOL    HW193461   4.612   9.359  14.555
97229SOL    HW293462   4.720   9.264  14.604
97230SOL     OW93463   4.393   3.437   4.843
97230SOL    HW193464   4.356   3.509   4.792
97230SOL    HW293465   4.335   3.363   4.824
97231SOL     OW93466  13.215  11.879  13.530
97231SOL    HW193467  13.292  11.931  13.552
97231SOL    HW293468  13.248  11.806  13.478
97232SOL     OW93469  11.199   8.872   9.851
97232SOL    HW193470  11.252   8.948   9.869
97232SOL    HW293471  11.127   8.905   9.797
97233SOL     OW93472  12.959   9.637   8.832
97233SOL    HW193473  12.884   9.602   8.879
97233SOL    HW293474  13.007   9.688   8.897
97234SOL     OW93475  11.197  14.081  12.023
97234SOL    HW193476  11.183  14.057  11.931
97234SOL    HW293477  11.189  14.176  12.024
97235SOL     OW93478   6.540   1.134   7.355
97235SOL    HW193479   6.521   1.153   7.264
97235SOL    HW293480   6.493   1.053   7.373
97236SOL     OW93481  12.961   6.523   2.993
97236SOL    HW193482  12.865   6.518   2.999
97236SOL    HW293483  12.989   6.431   2.991
97237SOL     OW93484   9.025   5.329   9.809
97237SOL    HW193485   9.048   5.372   9.892
97237SOL    HW293486   8.986   5.398   9.756
97238SOL     OW93487   8.318   1.309   7.877
97238SOL    HW193488   8.365   1.281   7.955
97238SOL    HW293489   8.375   1.372   7.835
97239SOL     OW93490   0.839  12.529   9.041
97239SOL    HW193491   0.889  12.590   8.987
97239SOL    HW293492   0.757  12.516   8.993
97240SOL     OW93493   2.131   1.357   0.243
97240SOL    HW193494   2.139   1.450   0.262
97240SOL    HW293495   2.077   1.323   0.314
97241SOL     OW93496   2.164  12.187   4.850
97241SOL    HW193497   2.237  12.131   4.877
97241SOL    HW293498   2.122  12.212   4.933
97242SOL     OW93499  10.796  12.998  12.189
97242SOL    HW193500  10.759  12.943  12.258
97242SOL    HW293501  10.833  12.936  12.126
97243SOL     OW93502   5.834   1.638  11.713
97243SOL    HW193503   5.904   1.659  11.774
97243SOL    HW293504   5.805   1.723  11.679
97244SOL     OW93505   2.136  11.840   8.087
97244SOL    HW193506   2.147  11.802   8.000
97244SOL    HW293507   2.073  11.911   8.075
97245SOL     OW93508   9.527   1.055   2.656
97245SOL    HW193509   9.488   0.967   2.661
97245SOL    HW293510   9.600   1.053   2.718
97246SOL     OW93511   4.264   8.416   4.475
97246SOL    HW193512   4.314   8.477   4.421
97246SOL    HW293513   4.324   8.344   4.493
97247SOL     OW93514   7.562   2.488  11.105
97247SOL    HW193515   7.653   2.515  11.091
97247SOL    HW293516   7.518   2.508  11.023
97248SOL     OW93517   9.979   7.179   6.791
97248SOL    HW193518   9.902   7.205   6.741
97248SOL    HW293519   9.997   7.089   6.761
97249SOL     OW93520   5.597   7.760   4.142
97249SOL    HW193521   5.509   7.722   4.142
97249SOL    HW293522   5.598   7.817   4.219
97250SOL     OW93523   3.878   1.090  10.195
97250SOL    HW193524   3.905   1.180  10.179
97250SOL    HW293525   3.806   1.075  10.133
97251SOL     OW93526  10.337  12.239  10.852
97251SOL    HW193527  10.312  12.281  10.770
97251SOL    HW293528  10.253  12.219  10.896
97252SOL     OW93529   3.154   6.096   8.419
97252SOL    HW193530   3.228   6.062   8.469
97252SOL    HW293531   3.109   6.018   8.387
97253SOL     OW93532   8.542  13.849   4.168
97253SOL    HW193533   8.605  13.793   4.214
97253SOL    HW293534   8.493  13.789   4.112
97254SOL     OW93535  14.698   9.534   6.125
97254SOL    HW193536  14.656   9.483   6.055
97254SOL    HW293537  14.791   9.513   6.116
97255SOL     OW93538   2.902   9.527   2.545
97255SOL    HW193539   2.832   9.564   2.599
97255SOL    HW293540   2.944   9.603   2.505
97256SOL     OW93541  11.151  10.452  13.753
97256SOL    HW193542  11.078  10.395  13.728
97256SOL    HW293543  11.185  10.485  13.670
97257SOL     OW93544   1.179   2.774   9.824
97257SOL    HW193545   1.172   2.705   9.890
97257SOL    HW293546   1.199   2.727   9.743
97258SOL     OW93547   7.669   5.403   5.864
97258SOL    HW193548   7.592   5.412   5.920
97258SOL    HW293549   7.701   5.314   5.882
97259SOL     OW93550   9.552   9.392   0.580
97259SOL    HW193551   9.463   9.372   0.609
97259SOL    HW293552   9.558   9.487   0.583
97260SOL     OW93553   0.969   0.094   2.032
97260SOL    HW193554   0.981   0.007   2.071
97260SOL    HW293555   0.885   0.125   2.067
97261SOL     OW93556   1.721   2.220   9.829
97261SOL    HW193557   1.674   2.206   9.912
97261SOL    HW293558   1.654   2.209   9.762
97262SOL     OW93559  11.605   4.773   9.681
97262SOL    HW193560  11.552   4.696   9.663
97262SOL    HW293561  11.543   4.846   9.678
97263SOL     OW93562   5.890   5.115   2.399
97263SOL    HW193563   5.970   5.126   2.347
97263SOL    HW293564   5.911   5.044   2.459
97264SOL     OW93565  10.413   1.627   1.464
97264SOL    HW193566  10.392   1.652   1.374
97264SOL    HW293567  10.376   1.697   1.518
97265SOL     OW93568   7.871   8.849  11.574
97265SOL    HW193569   7.921   8.867  11.494
97265SOL    HW293570   7.927   8.881  11.645
97266SOL     OW93571  13.262  13.204  14.835
97266SOL    HW193572  13.319  13.238  14.766
97266SOL    HW293573  13.306  13.126  14.867
97267SOL     OW93574   4.120   7.806   6.806
97267SOL    HW193575   4.106   7.865   6.880
97267SOL    HW293576   4.212   7.780   6.813
97268SOL     OW93577  13.409  10.507  14.503
97268SOL    HW193578  13.391  10.420  14.538
97268SOL    HW293579  13.344  10.563  14.546
97269SOL     OW93580   9.464   3.101  13.479
97269SOL    HW193581   9.494   3.101  13.570
97269SOL    HW293582   9.457   3.194  13.456
97270SOL     OW93583   7.437  10.197   8.551
97270SOL    HW193584   7.364  10.164   8.602
97270SOL    HW293585   7.403  10.274   8.507
97271SOL     OW93586  11.842   5.365  10.765
97271SOL    HW193587  11.909   5.423  10.730
97271SOL    HW293588  11.760   5.397  10.726
97272SOL     OW93589  11.235   1.557  13.770
97272SOL    HW193590  11.228   1.490  13.703
97272SOL    HW293591  11.274   1.632  13.725
97273SOL     OW93592   3.285  13.609  12.543
97273SOL    HW193593   3.310  13.663  12.468
97273SOL    HW293594   3.369  13.582  12.581
97274SOL     OW93595  11.307   7.464  12.454
97274SOL    HW193596  11.398   7.445  12.432
97274SOL    HW293597  11.313   7.534  12.520
97275SOL     OW93598  10.189   7.401   2.186
97275SOL    HW193599  10.174   7.440   2.271
97275SOL    HW293600  10.102   7.389   2.149
97276SOL     OW93601   8.601   0.983   1.780
97276SOL    HW193602   8.527   0.985   1.840
97276SOL    HW293603   8.673   1.023   1.829
97277SOL     OW93604   1.945  13.182   9.659
97277SOL    HW193605   1.860  13.170   9.618
97277SOL    HW293606   2.007  13.185   9.586
97278SOL     OW93607   4.608   1.638   0.554
97278SOL    HW193608   4.552   1.690   0.612
97278SOL    HW293609   4.548   1.597   0.492
97279SOL     OW93610   6.326   1.380   8.366
97279SOL    HW193611   6.322   1.307   8.305
97279SOL    HW293612   6.242   1.425   8.355
97280SOL     OW93613   9.463  10.783  12.609
97280SOL    HW193614   9.475  10.717  12.541
97280SOL    HW293615   9.404  10.847  12.570
97281SOL     OW93616   5.751   1.615   5.282
97281SOL    HW193617   5.800   1.633   5.363
97281SOL    HW293618   5.756   1.521   5.271
97282SOL     OW93619  10.180   0.893   4.034
97282SOL    HW193620  10.185   0.800   4.057
97282SOL    HW293621  10.116   0.897   3.964
97283SOL     OW93622  12.216   7.372  13.057
97283SOL    HW193623  12.143   7.421  13.095
97283SOL    HW293624  12.266   7.437  13.007
97284SOL     OW93625   0.109   4.071  11.273
97284SOL    HW193626   0.021   4.063  11.309
97284SOL    HW293627   0.116   3.998  11.211
97285SOL     OW93628   6.858   1.496  13.007
97285SOL    HW193629   6.850   1.408  12.969
97285SOL    HW293630   6.952   1.512  13.011
97286SOL     OW93631  10.170   7.726   4.085
97286SOL    HW193632  10.162   7.748   4.178
97286SOL    HW293633  10.250   7.674   4.078
97287SOL     OW93634   9.404   6.282   8.957
97287SOL    HW193635   9.386   6.306   9.048
97287SOL    HW293636   9.487   6.236   8.960
97288SOL     OW93637  14.772  12.488  10.871
97288SOL    HW193638  14.831  12.414  10.855
97288SOL    HW293639  14.699  12.474  10.810
97289SOL     OW93640  10.277   9.230   9.192
97289SOL    HW193641  10.299   9.269   9.276
97289SOL    HW293642  10.360   9.226   9.145
97290SOL     OW93643   9.185   7.169  11.752
97290SOL    HW193644   9.200   7.077  11.733
97290SOL    HW293645   9.184   7.174  11.848
97291SOL     OW93646   8.262   9.824   1.143
97291SOL    HW193647   8.329   9.757   1.129
97291SOL    HW293648   8.188   9.777   1.182
97292SOL     OW93649   3.638   6.883  13.682
97292SOL    HW193650   3.720   6.923  13.710
97292SOL    HW293651   3.630   6.804  13.737
97293SOL     OW93652  14.275   6.153  11.496
97293SOL    HW193653  14.371   6.145  11.502
97293SOL    HW293654  14.244   6.064  11.480
97294SOL     OW93655   2.044   6.902   5.104
97294SOL    HW193656   1.979   6.933   5.168
97294SOL    HW293657   2.011   6.817   5.075
97295SOL     OW93658  13.617   0.179   3.906
97295SOL    HW193659  13.545   0.213   3.853
97295SOL    HW293660  13.692   0.232   3.881
97296SOL     OW93661   1.291   9.540  10.704
97296SOL    HW193662   1.320   9.626  10.734
97296SOL    HW293663   1.274   9.490  10.784
97297SOL     OW93664   5.968   8.102   0.683
97297SOL    HW193665   5.954   8.177   0.626
97297SOL    HW293666   6.063   8.095   0.690
97298SOL     OW93667  13.480  10.524   3.017
97298SOL    HW193668  13.532  10.506   2.938
97298SOL    HW293669  13.429  10.444   3.031
97299SOL     OW93670   5.770  13.597   1.004
97299SOL    HW193671   5.797  13.676   1.051
97299SOL    HW293672   5.849  13.568   0.957
97300SOL     OW93673   8.145  12.324   0.603
97300SOL    HW193674   8.222  12.360   0.560
97300SOL    HW293675   8.165  12.230   0.613
97301SOL     OW93676   9.875  11.392   2.913
97301SOL    HW193677   9.816  11.324   2.881
97301SOL    HW293678   9.823  11.472   2.909
97302SOL     OW93679  13.132   0.977  10.838
97302SOL    HW193680  13.069   1.049  10.827
97302SOL    HW293681  13.153   0.977  10.931
97303SOL     OW93682   6.850   9.292   8.025
97303SOL    HW193683   6.797   9.370   8.010
97303SOL    HW293684   6.917   9.321   8.087
97304SOL     OW93685   2.241  10.044   3.466
97304SOL    HW193686   2.279  10.021   3.381
97304SOL    HW293687   2.300  10.110   3.502
97305SOL     OW93688  13.468   3.404  11.110
97305SOL    HW193689  13.563   3.416  11.105
97305SOL    HW293690  13.434   3.458  11.038
97306SOL     OW93691   8.746  10.021  12.257
97306SOL    HW193692   8.675   9.976  12.212
97306SOL    HW293693   8.712  10.109  12.274
97307SOL     OW93694   0.236   6.461   1.194
97307SOL    HW193695   0.245   6.383   1.248
97307SOL    HW293696   0.155   6.502   1.224
97308SOL     OW93697   1.722   9.490   0.153
97308SOL    HW193698   1.721   9.554   0.223
97308SOL    HW293699   1.660   9.523   0.088
97309SOL     OW93700   4.374  13.190  13.743
97309SOL    HW193701   4.290  13.232  13.761
97309SOL    HW293702   4.431  13.261  13.714
97310SOL     OW93703   4.220   7.409  12.057
97310SOL    HW193704   4.293   7.350  12.079
97310SOL    HW293705   4.174   7.365  11.986
97311SOL     OW93706   4.907   6.744   8.403
97311SOL    HW193707   4.926   6.726   8.311
97311SOL    HW293708   4.825   6.697   8.420
97312SOL     OW93709   4.475   5.374  14.087
97312SOL    HW193710   4.419   5.451  14.073
97312SOL    HW293711   4.417   5.299  14.074
97313SOL     OW93712  11.182  11.531   7.726
97313SOL    HW193713  11.091  11.516   7.752
97313SOL    HW293714  11.178  11.609   7.670
97314SOL     OW93715   3.781   0.345   6.719
97314SOL    HW193716   3.712   0.351   6.785
97314SOL    HW293717   3.862   0.347   6.770
97315SOL     OW93718   3.122  13.999   0.805
97315SOL    HW193719   3.062  13.997   0.880
97315SOL    HW293720   3.084  14.064   0.746
97316SOL     OW93721   1.450  11.401   5.530
97316SOL    HW193722   1.534  11.358   5.548
97316SOL    HW293723   1.386  11.346   5.576
97317SOL     OW93724  10.763  11.033   4.857
97317SOL    HW193725  10.812  10.980   4.794
97317SOL    HW293726  10.741  11.114   4.810
97318SOL     OW93727  11.579   9.437   4.566
97318SOL    HW193728  11.499   9.384   4.566
97318SOL    HW293729  11.645   9.380   4.606
97319SOL     OW93730  11.643   3.361  12.149
97319SOL    HW193731  11.568   3.414  12.124
97319SOL    HW293732  11.617   3.318  12.230
97320SOL     OW93733   8.378  12.722   6.482
97320SOL    HW193734   8.438  12.648   6.491
97320SOL    HW293735   8.305  12.688   6.432
97321SOL     OW93736  11.423  10.359   6.912
97321SOL    HW193737  11.418  10.264   6.924
97321SOL    HW293738  11.353  10.393   6.967
97322SOL     OW93739  14.765  11.106  14.405
97322SOL    HW193740  14.804  11.021  14.423
97322SOL    HW293741  14.723  11.131  14.487
97323SOL     OW93742  11.188   8.416   6.208
97323SOL    HW193743  11.284   8.417   6.199
97323SOL    HW293744  11.156   8.413   6.118
97324SOL     OW93745  13.893   1.525  13.033
97324SOL    HW193746  13.838   1.522  13.111
97324SOL    HW293747  13.835   1.501  12.962
97325SOL     OW93748  12.590   0.822  12.001
97325SOL    HW193749  12.580   0.806  12.095
97325SOL    HW293750  12.679   0.855  11.992
97326SOL     OW93751  11.752   6.852   4.223
97326SOL    HW193752  11.776   6.765   4.190
97326SOL    HW293753  11.713   6.897   4.147
97327SOL     OW93754  14.147   1.531  14.026
97327SOL    HW193755  14.229   1.536  14.075
97327SOL    HW293756  14.112   1.620  14.029
97328SOL     OW93757   7.087   8.546   8.009
97328SOL    HW193758   7.028   8.472   8.019
97328SOL    HW293759   7.128   8.557   8.095
97329SOL     OW93760   8.490   1.866   2.352
97329SOL    HW193761   8.431   1.892   2.423
97329SOL    HW293762   8.438   1.808   2.297
97330SOL     OW93763   3.647   8.142   1.553
97330SOL    HW193764   3.711   8.079   1.518
97330SOL    HW293765   3.667   8.147   1.646
97331SOL     OW93766   7.145  12.057   6.906
97331SOL    HW193767   7.088  11.990   6.945
97331SOL    HW293768   7.125  12.052   6.812
97332SOL     OW93769   0.935   2.535   3.464
97332SOL    HW193770   0.868   2.467   3.460
97332SOL    HW293771   1.018   2.488   3.462
97333SOL     OW93772  12.827   1.640   3.131
97333SOL    HW193773  12.847   1.729   3.103
97333SOL    HW293774  12.885   1.585   3.079
97334SOL     OW93775  13.456   5.743   0.591
97334SOL    HW193776  13.462   5.799   0.668
97334SOL    HW293777  13.521   5.778   0.530
97335SOL     OW93778  10.095  13.708   2.481
97335SOL    HW193779  10.019  13.753   2.516
97335SOL    HW293780  10.060  13.628   2.442
97336SOL     OW93781   1.763   5.547   2.938
97336SOL    HW193782   1.712   5.565   2.859
97336SOL    HW293783   1.812   5.628   2.955
97337SOL     OW93784   1.241  10.288   6.190
97337SOL    HW193785   1.253  10.286   6.095
97337SOL    HW293786   1.151  10.259   6.204
97338SOL     OW93787   6.689   6.372  12.299
97338SOL    HW193788   6.755   6.329  12.245
97338SOL    HW293789   6.607   6.326  12.277
97339SOL     OW93790   0.916   1.003  11.740
97339SOL    HW193791   0.899   1.097  11.750
97339SOL    HW293792   0.969   0.979  11.815
97340SOL     OW93793   3.070   6.791  10.964
97340SOL    HW193794   3.145   6.774  11.020
97340SOL    HW293795   2.995   6.786  11.024
97341SOL     OW93796   4.170  10.912   1.204
97341SOL    HW193797   4.221  10.850   1.153
97341SOL    HW293798   4.082  10.875   1.206
97342SOL     OW93799  13.545   9.283   3.358
97342SOL    HW193800  13.544   9.285   3.263
97342SOL    HW293801  13.469   9.335   3.384
97343SOL     OW93802  10.202   6.629  13.642
97343SOL    HW193803  10.188   6.556  13.582
97343SOL    HW293804  10.174   6.595  13.727
97344SOL     OW93805  12.910   1.529  12.766
97344SOL    HW193806  12.850   1.550  12.695
97344SOL    HW293807  12.860   1.545  12.846
97345SOL     OW93808   3.095   0.373   0.767
97345SOL    HW193809   3.117   0.368   0.860
97345SOL    HW293810   3.081   0.282   0.740
97346SOL     OW93811   2.056   4.487  10.076
97346SOL    HW193812   2.032   4.395  10.068
97346SOL    HW293813   2.149   4.486  10.098
97347SOL     OW93814   1.610   3.384  12.311
97347SOL    HW193815   1.620   3.479  12.305
97347SOL    HW293816   1.518   3.368  12.290
97348SOL     OW93817   1.919   6.048   1.045
97348SOL    HW193818   1.840   6.021   0.998
97348SOL    HW293819   1.892   6.127   1.093
97349SOL     OW93820   3.849   1.086  13.469
97349SOL    HW193821   3.765   1.108  13.510
97349SOL    HW293822   3.868   0.997  13.501
97350SOL     OW93823  11.110  13.003   5.354
97350SOL    HW193824  11.086  12.953   5.276
97350SOL    HW293825  11.029  13.049   5.379
97351SOL     OW93826   7.003   1.247   8.393
97351SOL    HW193827   6.980   1.340   8.392
97351SOL    HW293828   6.985   1.219   8.483
97352SOL     OW93829   8.974  14.132   7.311
97352SOL    HW193830   9.066  14.120   7.333
97352SOL    HW293831   8.975  14.170   7.223
97353SOL     OW93832   7.214  13.305  14.708
97353SOL    HW193833   7.205  13.267  14.796
97353SOL    HW293834   7.278  13.249  14.665
97354SOL     OW93835   2.398   7.083  12.177
97354SOL    HW193836   2.383   7.042  12.092
97354SOL    HW293837   2.425   7.172  12.156
97355SOL     OW93838   1.727   3.742  13.639
97355SOL    HW193839   1.704   3.821  13.590
97355SOL    HW293840   1.803   3.768  13.692
97356SOL     OW93841   9.121   3.660  14.607
97356SOL    HW193842   9.027   3.672  14.621
97356SOL    HW293843   9.139   3.573  14.644
97357SOL     OW93844   3.314   0.100   8.550
97357SOL    HW193845   3.388   0.061   8.503
97357SOL    HW293846   3.295   0.038   8.620
97358SOL     OW93847  12.010   1.517   3.610
97358SOL    HW193848  12.078   1.561   3.559
97358SOL    HW293849  12.058   1.456   3.666
97359SOL     OW93850   7.368   3.886   3.033
97359SOL    HW193851   7.340   3.948   3.101
97359SOL    HW293852   7.371   3.939   2.953
97360SOL     OW93853  13.298   5.265  11.614
97360SOL    HW193854  13.327   5.286  11.703
97360SOL    HW293855  13.357   5.195  11.586
97361SOL     OW93856   2.926   5.103   0.615
97361SOL    HW193857   2.986   5.117   0.689
97361SOL    HW293858   2.957   5.163   0.548
97362SOL     OW93859   8.226  10.853  12.039
97362SOL    HW193860   8.220  10.779  11.978
97362SOL    HW293861   8.293  10.910  12.000
97363SOL     OW93862   5.801  11.094   2.577
97363SOL    HW193863   5.849  11.031   2.632
97363SOL    HW293864   5.775  11.164   2.638
97364SOL     OW93865  10.308  10.288   9.011
97364SOL    HW193866  10.271  10.210   9.052
97364SOL    HW293867  10.244  10.313   8.944
97365SOL     OW93868  10.963   8.738   1.041
97365SOL    HW193869  11.043   8.762   0.994
97365SOL    HW293870  10.947   8.811   1.100
97366SOL     OW93871   3.050   8.568   0.067
97366SOL    HW193872   2.961   8.601   0.083
97366SOL    HW293873   3.107   8.640   0.094
97367SOL     OW93874  10.013   9.084   5.313
97367SOL    HW193875   9.984   9.174   5.331
97367SOL    HW293876  10.053   9.055   5.394
97368SOL     OW93877  14.263   7.054   9.250
97368SOL    HW193878  14.350   7.045   9.211
97368SOL    HW293879  14.245   7.148   9.248
97369SOL     OW93880  12.123  13.797   6.585
97369SOL    HW193881  12.199  13.831   6.633
97369SOL    HW293882  12.058  13.780   6.654
97370SOL     OW93883   7.819   0.654   7.521
97370SOL    HW193884   7.796   0.607   7.601
97370SOL    HW293885   7.794   0.594   7.450
97371SOL     OW93886   0.069   4.756   7.892
97371SOL    HW193887   0.123   4.720   7.962
97371SOL    HW293888  14.860   4.743   7.921
97372SOL     OW93889   6.014   9.506   8.979
97372SOL    HW193890   5.966   9.588   8.969
97372SOL    HW293891   5.947   9.438   8.975
97373SOL     OW93892   8.066   1.161   5.768
97373SOL    HW193893   8.128   1.205   5.710
97373SOL    HW293894   8.042   1.081   5.721
97374SOL     OW93895   1.044   1.528   7.747
97374SOL    HW193896   0.953   1.553   7.729
97374SOL    HW293897   1.085   1.609   7.780
97375SOL     OW93898  12.156   6.718   4.946
97375SOL    HW193899  12.124   6.678   4.864
97375SOL    HW293900  12.209   6.650   4.987
97376SOL     OW93901   0.714   1.870  11.371
97376SOL    HW193902   0.629   1.868  11.417
97376SOL    HW293903   0.710   1.949  11.318
97377SOL     OW93904   9.863   5.826   3.188
97377SOL    HW193905   9.855   5.897   3.252
97377SOL    HW293906   9.909   5.866   3.114
97378SOL     OW93907  14.450  10.714   8.395
97378SOL    HW193908  14.381  10.721   8.329
97378SOL    HW293909  14.479  10.804   8.408
97379SOL     OW93910  14.301   2.940  11.750
97379SOL    HW193911  14.268   3.010  11.807
97379SOL    HW293912  14.235   2.870  11.758
97380SOL     OW93913  12.644   2.523  13.429
97380SOL    HW193914  12.720   2.472  13.400
97380SOL    HW293915  12.590   2.533  13.350
97381SOL     OW93916   8.322   9.266   5.722
97381SOL    HW193917   8.415   9.290   5.719
97381SOL    HW293918   8.278   9.345   5.754
97382SOL     OW93919   5.237  10.723   7.948
97382SOL    HW193920   5.234  10.814   7.976
97382SOL    HW293921   5.296  10.680   8.010
97383SOL     OW93922   8.572   7.506   8.722
97383SOL    HW193923   8.529   7.474   8.801
97383SOL    HW293924   8.590   7.427   8.670
97384SOL     OW93925   2.989  11.944   0.982
97384SOL    HW193926   2.995  12.000   0.905
97384SOL    HW293927   2.967  11.858   0.948
97385SOL     OW93928   8.529  12.653   3.404
97385SOL    HW193929   8.590  12.651   3.331
97385SOL    HW293930   8.528  12.745   3.432
97386SOL     OW93931  11.020   1.861  11.413
97386SOL    HW193932  11.022   1.823  11.500
97386SOL    HW293933  10.998   1.953  11.426
97387SOL     OW93934   3.448   2.791   1.276
97387SOL    HW193935   3.475   2.870   1.325
97387SOL    HW293936   3.510   2.785   1.204
97388SOL     OW93937  13.154   3.995   7.476
97388SOL    HW193938  13.109   3.998   7.391
97388SOL    HW293939  13.179   3.903   7.487
97389SOL     OW93940   9.635   4.973   0.684
97389SOL    HW193941   9.568   4.906   0.697
97389SOL    HW293942   9.674   4.952   0.599
97390SOL     OW93943   3.044   9.397   7.483
97390SOL    HW193944   3.140   9.404   7.480
97390SOL    HW293945   3.025   9.367   7.572
97391SOL     OW93946  12.809  14.014  14.343
97391SOL    HW193947  12.736  13.954  14.331
97391SOL    HW293948  12.887  13.961  14.325
97392SOL     OW93949   7.405   0.969  13.552
97392SOL    HW193950   7.364   0.917  13.622
97392SOL    HW293951   7.358   0.944  13.473
97393SOL     OW93952   8.204   7.186   2.657
97393SOL    HW193953   8.261   7.110   2.654
97393SOL    HW293954   8.124   7.158   2.611
97394SOL     OW93955   2.754   1.322  12.854
97394SOL    HW193956   2.729   1.403  12.809
97394SOL    HW293957   2.781   1.263  12.783
97395SOL     OW93958   4.068   9.394   4.235
97395SOL    HW193959   4.098   9.345   4.158
97395SOL    HW293960   3.976   9.370   4.246
97396SOL     OW93961   4.929  14.081  10.729
97396SOL    HW193962   4.855  14.130  10.764
97396SOL    HW293963   4.987  14.147  10.691
97397SOL     OW93964   6.367   1.936  11.602
97397SOL    HW193965   6.408   1.973  11.680
97397SOL    HW293966   6.416   1.972  11.529
97398SOL     OW93967  11.174   2.561   1.477
97398SOL    HW193968  11.249   2.596   1.526
97398SOL    HW293969  11.121   2.638   1.457
97399SOL     OW93970  14.226   3.115   8.660
97399SOL    HW193971  14.254   3.072   8.741
97399SOL    HW293972  14.257   3.058   8.590
97400SOL     OW93973   9.298   5.052   7.231
97400SOL    HW193974   9.245   5.039   7.309
97400SOL    HW293975   9.350   4.972   7.223
97401SOL     OW93976   7.484   4.765  11.591
97401SOL    HW193977   7.555   4.790  11.532
97401SOL    HW293978   7.438   4.847  11.609
97402SOL     OW93979  13.031  11.509   2.085
97402SOL    HW193980  13.101  11.470   2.033
97402SOL    HW293981  12.972  11.436   2.104
97403SOL     OW93982   5.408  13.827   3.600
97403SOL    HW193983   5.421  13.869   3.685
97403SOL    HW293984   5.485  13.852   3.549
97404SOL     OW93985   3.345   8.240   1.965
97404SOL    HW193986   3.280   8.175   1.940
97404SOL    HW293987   3.387   8.204   2.043
97405SOL     OW93988   9.028   3.337   1.328
97405SOL    HW193989   8.975   3.417   1.329
97405SOL    HW293990   9.114   3.364   1.359
97406SOL     OW93991   6.384   2.009  11.018
97406SOL    HW193992   6.327   1.966  10.955
97406SOL    HW293993   6.384   2.101  10.992
97407SOL     OW93994  12.417  10.003   9.105
97407SOL    HW193995  12.394  10.021   9.014
97407SOL    HW293996  12.402   9.909   9.115
97408SOL     OW93997   1.931   4.827   6.103
97408SOL    HW193998   2.009   4.849   6.051
97408SOL    HW293999   1.938   4.732   6.116
97409SOL     OW94000  12.803   7.858   0.646
97409SOL    HW194001  12.884   7.836   0.692
97409SOL    HW294002  12.831   7.879   0.557
97410SOL     OW94003   3.717  14.879   7.356
97410SOL    HW194004   3.723  14.880   7.452
97410SOL    HW294005   3.694   0.087   7.333
97411SOL     OW94006   5.570  11.224   2.453
97411SOL    HW194007   5.550  11.257   2.365
97411SOL    HW294008   5.642  11.279   2.483
97412SOL     OW94009   0.710  11.716  14.695
97412SOL    HW194010   0.724  11.675  14.609
97412SOL    HW294011   0.786  11.774  14.706
97413SOL     OW94012  12.338   7.964   8.555
97413SOL    HW194013  12.266   7.968   8.619
97413SOL    HW294014  12.296   7.932   8.475
97414SOL     OW94015   4.474  12.071  14.078
97414SOL    HW194016   4.463  12.015  14.154
97414SOL    HW294017   4.560  12.049  14.043
97415SOL     OW94018  11.056  14.342  12.909
97415SOL    HW194019  10.977  14.301  12.874
97415SOL    HW294020  11.067  14.422  12.859
97416SOL     OW94021   2.541   1.152   6.279
97416SOL    HW194022   2.609   1.166   6.344
97416SOL    HW294023   2.587   1.125   6.200
97417SOL     OW94024   9.930   3.509   4.648
97417SOL    HW194025  10.011   3.517   4.599
97417SOL    HW294026   9.954   3.531   4.738
97418SOL     OW94027   2.640   8.976  11.505
97418SOL    HW194028   2.681   9.016  11.581
97418SOL    HW294029   2.565   9.032  11.486
97419SOL     OW94030  14.602  13.638  13.168
97419SOL    HW194031  14.536  13.626  13.099
97419SOL    HW294032  14.642  13.552  13.178
97420SOL     OW94033  13.842   2.633   0.650
97420SOL    HW194034  13.864   2.601   0.737
97420SOL    HW294035  13.926   2.653   0.609
97421SOL     OW94036   1.754   4.341   9.149
97421SOL    HW194037   1.738   4.262   9.097
97421SOL    HW294038   1.671   4.357   9.194
97422SOL     OW94039  12.467   7.583  13.643
97422SOL    HW194040  12.476   7.495  13.681
97422SOL    HW294041  12.513   7.578  13.559
97423SOL     OW94042  10.603  13.414   5.292
97423SOL    HW194043  10.586  13.329   5.332
97423SOL    HW294044  10.697  13.417   5.279
97424SOL     OW94045  11.886   0.564   6.436
97424SOL    HW194046  11.866   0.647   6.391
97424SOL    HW294047  11.891   0.588   6.529
97425SOL     OW94048   1.829  14.846   4.742
97425SOL    HW194049   1.836   0.058   4.721
97425SOL    HW294050   1.903  14.829   4.800
97426SOL     OW94051   8.677  11.401   8.908
97426SOL    HW194052   8.652  11.364   8.824
97426SOL    HW294053   8.749  11.345   8.938
97427SOL     OW94054  12.103   6.788   5.333
97427SOL    HW194055  12.128   6.826   5.249
97427SOL    HW294056  12.048   6.713   5.311
97428SOL     OW94057   2.591   7.569   9.936
97428SOL    HW194058   2.550   7.488   9.964
97428SOL    HW294059   2.676   7.542   9.899
97429SOL     OW94060  14.774  14.769   6.140
97429SOL    HW194061  14.706  14.795   6.078
97429SOL    HW294062  14.856  14.784   6.093
97430SOL     OW94063  10.954   8.924   3.870
97430SOL    HW194064  11.007   8.991   3.827
97430SOL    HW294065  10.980   8.928   3.962
97431SOL     OW94066   4.847  14.257   7.291
97431SOL    HW194067   4.940  14.253   7.313
97431SOL    HW294068   4.802  14.224   7.369
97432SOL     OW94069   4.162   2.116   0.158
97432SOL    HW194070   4.182   2.190   0.100
97432SOL    HW294071   4.216   2.045   0.125
97433SOL     OW94072   2.180   9.897   6.969
97433SOL    HW194073   2.244   9.898   7.040
97433SOL    HW294074   2.229   9.867   6.892
97434SOL     OW94075  14.098   0.826   8.463
97434SOL    HW194076  14.056   0.744   8.491
97434SOL    HW294077  14.100   0.820   8.367
97435SOL     OW94078   8.750  14.002  12.781
97435SOL    HW194079   8.667  14.045  12.763
97435SOL    HW294080   8.811  14.074  12.798
97436SOL     OW94081   8.469  14.493   5.882
97436SOL    HW194082   8.429  14.440   5.814
97436SOL    HW294083   8.396  14.517   5.940
97437SOL     OW94084   1.281   9.163  14.547
97437SOL    HW194085   1.205   9.215  14.575
97437SOL    HW294086   1.299   9.106  14.621
97438SOL     OW94087   3.315   1.682  11.425
97438SOL    HW194088   3.286   1.753  11.481
97438SOL    HW294089   3.368   1.626  11.482
97439SOL     OW94090   3.631   0.315   1.737
97439SOL    HW194091   3.597   0.265   1.811
97439SOL    HW294092   3.578   0.287   1.662
97440SOL     OW94093   8.446   5.170   1.808
97440SOL    HW194094   8.376   5.164   1.743
97440SOL    HW294095   8.438   5.258   1.844
97441SOL     OW94096   6.885  13.929   3.232
97441SOL    HW194097   6.837  14.012   3.238
97441SOL    HW294098   6.928  13.919   3.317
97442SOL     OW94099  10.027   4.488   3.766
97442SOL    HW194100   9.935   4.471   3.787
97442SOL    HW294101  10.026   4.522   3.677
97443SOL     OW94102  10.578   6.090  14.603
97443SOL    HW194103  10.499   6.136  14.575
97443SOL    HW294104  10.548   6.032  14.673
97444SOL     OW94105  12.148  11.373  12.368
97444SOL    HW194106  12.175  11.459  12.399
97444SOL    HW294107  12.103  11.389  12.285
97445SOL     OW94108  14.454  14.714   6.812
97445SOL    HW194109  14.489  14.625   6.809
97445SOL    HW294110  14.515  14.762   6.868
97446SOL     OW94111   4.061  12.952  10.440
97446SOL    HW194112   4.079  12.916  10.526
97446SOL    HW294113   4.033  12.877  10.387
97447SOL     OW94114   7.657  12.470  11.133
97447SOL    HW194115   7.730  12.423  11.172
97447SOL    HW294116   7.595  12.401  11.109
97448SOL     OW94117  10.162  14.862   5.785
97448SOL    HW194118  10.113  14.864   5.867
97448SOL    HW294119  10.097   0.004   5.718
97449SOL     OW94120   2.385   6.149   7.394
97449SOL    HW194121   2.292   6.127   7.395
97449SOL    HW294122   2.397   6.203   7.316
97450SOL     OW94123   5.956   4.868   9.949
97450SOL    HW194124   5.876   4.835   9.990
97450SOL    HW294125   5.979   4.801   9.885
97451SOL     OW94126  10.047   1.799   6.415
97451SOL    HW194127  10.045   1.710   6.379
97451SOL    HW294128  10.023   1.855   6.341
97452SOL     OW94129   2.314   6.208  10.663
97452SOL    HW194130   2.241   6.159  10.627
97452SOL    HW294131   2.275   6.264  10.730
97453SOL     OW94132   2.030  13.752   6.161
97453SOL    HW194133   2.098  13.768   6.228
97453SOL    HW294134   1.951  13.793   6.197
97454SOL     OW94135   2.673  14.043  10.084
97454SOL    HW194136   2.742  14.000  10.034
97454SOL    HW294137   2.719  14.111  10.134
97455SOL     OW94138  13.741   3.296  10.461
97455SOL    HW194139  13.681   3.294  10.536
97455SOL    HW294140  13.797   3.219  10.473
97456SOL     OW94141   2.799  14.255   4.608
97456SOL    HW194142   2.770  14.199   4.679
97456SOL    HW294143   2.720  14.303   4.582
97457SOL     OW94144  14.336   4.088   3.112
97457SOL    HW194145  14.265   4.032   3.081
97457SOL    HW294146  14.293   4.152   3.169
97458SOL     OW94147   2.893   2.606  10.988
97458SOL    HW194148   2.851   2.609  11.074
97458SOL    HW294149   2.821   2.591  10.927
97459SOL     OW94150   4.057  12.041   7.664
97459SOL    HW194151   4.029  11.952   7.646
97459SOL    HW294152   3.995  12.096   7.617
97460SOL     OW94153  10.132   7.282   6.584
97460SOL    HW194154  10.070   7.327   6.527
97460SOL    HW294155  10.081   7.256   6.660
97461SOL     OW94156  10.816  14.779  11.666
97461SOL    HW194157  10.841  14.863  11.628
97461SOL    HW294158  10.895  14.725  11.660
97462SOL     OW94159   7.507   6.843   3.712
97462SOL    HW194160   7.588   6.802   3.679
97462SOL    HW294161   7.535   6.929   3.744
97463SOL     OW94162   6.269   6.030  11.320
97463SOL    HW194163   6.352   5.984  11.327
97463SOL    HW294164   6.203   5.960  11.316
97464SOL     OW94165   5.490   7.304  14.496
97464SOL    HW194166   5.509   7.397  14.506
97464SOL    HW294167   5.526   7.282  14.410
97465SOL     OW94168   7.965   7.973   4.751
97465SOL    HW194169   7.982   8.066   4.758
97465SOL    HW294170   7.965   7.941   4.841
97466SOL     OW94171  12.578   4.856  10.310
97466SOL    HW194172  12.553   4.937  10.353
97466SOL    HW294173  12.512   4.844  10.241
97467SOL     OW94174  11.006  11.915   6.648
97467SOL    HW194175  10.964  11.921   6.734
97467SOL    HW294176  10.936  11.889   6.589
97468SOL     OW94177  13.516   1.498   8.150
97468SOL    HW194178  13.586   1.439   8.121
97468SOL    HW294179  13.563   1.577   8.179
97469SOL     OW94180  10.486   3.088   2.769
97469SOL    HW194181  10.464   3.051   2.854
97469SOL    HW294182  10.463   3.181   2.776
97470SOL     OW94183   2.443   6.634  14.094
97470SOL    HW194184   2.445   6.571  14.167
97470SOL    HW294185   2.353   6.630  14.061
97471SOL     OW94186   3.372  13.512   0.922
97471SOL    HW194187   3.460  13.475   0.920
97471SOL    HW294188   3.386  13.607   0.925
97472SOL     OW94189   8.903  11.589  14.555
97472SOL    HW194190   8.819  11.605  14.512
97472SOL    HW294191   8.883  11.589  14.648
97473SOL     OW94192   8.661  10.187  11.651
97473SOL    HW194193   8.582  10.132  11.653
97473SOL    HW294194   8.665  10.225  11.739
97474SOL     OW94195   5.181   4.302   4.566
97474SOL    HW194196   5.227   4.346   4.494
97474SOL    HW294197   5.186   4.363   4.639
97475SOL     OW94198   1.565  11.632   5.667
97475SOL    HW194199   1.503  11.652   5.738
97475SOL    HW294200   1.527  11.556   5.624
97476SOL     OW94201   8.022   3.898   6.723
97476SOL    HW194202   8.006   3.812   6.684
97476SOL    HW294203   7.978   3.959   6.665
97477SOL     OW94204   9.179  10.974   4.705
97477SOL    HW194205   9.089  11.006   4.713
97477SOL    HW294206   9.231  11.036   4.755
97478SOL     OW94207   6.187  11.878  14.277
97478SOL    HW194208   6.205  11.854  14.368
97478SOL    HW294209   6.264  11.848  14.229
97479SOL     OW94210   6.063  14.263  13.153
97479SOL    HW194211   5.974  14.288  13.178
97479SOL    HW294212   6.119  14.332  13.190
97480SOL     OW94213   2.956   6.328   4.947
97480SOL    HW194214   2.915   6.334   5.033
97480SOL    HW294215   2.900   6.379   4.889
97481SOL     OW94216  14.597   9.392   5.900
97481SOL    HW194217  14.534   9.424   5.836
97481SOL    HW294218  14.608   9.299   5.879
97482SOL     OW94219   6.050  14.407   7.207
97482SOL    HW194220   6.083  14.324   7.241
97482SOL    HW294221   6.005  14.384   7.126
97483SOL     OW94222   4.096  11.805   6.471
97483SOL    HW194223   4.018  11.749   6.470
97483SOL    HW294224   4.070  11.881   6.522
97484SOL     OW94225   8.170  12.609   5.930
97484SOL    HW194226   8.255  12.590   5.889
97484SOL    HW294227   8.151  12.699   5.906
97485SOL     OW94228   0.022   9.378   9.236
97485SOL    HW194229  14.860   9.454   9.196
97485SOL    HW294230   0.029   9.401   9.328
97486SOL     OW94231   2.351  14.242   0.541
97486SOL    HW194232   2.441  14.255   0.571
97486SOL    HW294233   2.358  14.175   0.473
97487SOL     OW94234   1.240  10.328   8.654
97487SOL    HW194235   1.324  10.372   8.645
97487SOL    HW294236   1.179  10.382   8.604
97488SOL     OW94237   4.650   6.283   4.309
97488SOL    HW194238   4.728   6.283   4.254
97488SOL    HW294239   4.646   6.371   4.346
97489SOL     OW94240   3.017  12.132   1.609
97489SOL    HW194241   2.950  12.067   1.588
97489SOL    HW294242   2.996  12.160   1.698
97490SOL     OW94243   3.278   1.398   5.326
97490SOL    HW194244   3.319   1.320   5.288
97490SOL    HW294245   3.185   1.376   5.331
97491SOL     OW94246   7.540   6.488   2.591
97491SOL    HW194247   7.580   6.556   2.537
97491SOL    HW294248   7.465   6.457   2.539
97492SOL     OW94249   1.816  12.458  10.902
97492SOL    HW194250   1.739  12.508  10.928
97492SOL    HW294251   1.829  12.395  10.973
97493SOL     OW94252   4.560   1.486   5.990
97493SOL    HW194253   4.510   1.563   6.018
97493SOL    HW294254   4.646   1.520   5.968
97494SOL     OW94255   1.029   0.934   9.409
97494SOL    HW194256   1.083   0.978   9.344
97494SOL    HW294257   0.939   0.943   9.377
97495SOL     OW94258   0.374  12.781   0.217
97495SOL    HW194259   0.349  12.698   0.257
97495SOL    HW294260   0.290  12.824   0.198
97496SOL     OW94261   0.917   3.134  11.134
97496SOL    HW194262   0.882   3.215  11.172
97496SOL    HW294263   0.933   3.156  11.042
97497SOL     OW94264   6.980  13.277  12.527
97497SOL    HW194265   7.071  13.249  12.533
97497SOL    HW294266   6.984  13.372  12.525
97498SOL     OW94267   8.402  13.250  14.476
97498SOL    HW194268   8.338  13.209  14.535
97498SOL    HW294269   8.480  13.261  14.529
97499SOL     OW94270  10.388   6.126   4.658
97499SOL    HW194271  10.355   6.158   4.574
97499SOL    HW294272  10.472   6.169   4.669
97500SOL     OW94273  12.502   8.372  11.249
97500SOL    HW194274  12.564   8.443  11.265
97500SOL    HW294275  12.479   8.380  11.157
97501SOL     OW94276   6.252   1.692   1.989
97501SOL    HW194277   6.322   1.638   1.952
97501SOL    HW294278   6.296   1.749   2.052
97502SOL     OW94279   0.914  12.033   3.292
97502SOL    HW194280   0.823  12.040   3.318
97502SOL    HW294281   0.960  12.009   3.372
97503SOL     OW94282   9.840   5.793   7.473
97503SOL    HW194283   9.760   5.740   7.466
97503SOL    HW294284   9.874   5.774   7.560
97504SOL     OW94285   7.876  10.485  14.715
97504SOL    HW194286   7.941  10.447  14.774
97504SOL    HW294287   7.925  10.508  14.636
97505SOL     OW94288   5.849  12.416   8.207
97505SOL    HW194289   5.924  12.364   8.233
97505SOL    HW294290   5.785  12.353   8.174
97506SOL     OW94291   6.521   0.665   0.910
97506SOL    HW194292   6.528   0.693   1.001
97506SOL    HW294293   6.473   0.582   0.914
97507SOL     OW94294   0.707   2.147   5.609
97507SOL    HW194295   0.668   2.065   5.580
97507SOL    HW294296   0.766   2.172   5.537
97508SOL     OW94297  10.061   7.555   6.207
97508SOL    HW194298  10.003   7.509   6.267
97508SOL    HW294299  10.077   7.492   6.137
97509SOL     OW94300   1.673  13.294   7.966
97509SOL    HW194301   1.767  13.283   7.982
97509SOL    HW294302   1.666  13.379   7.923
97510SOL     OW94303   7.374   6.233   0.489
97510SOL    HW194304   7.292   6.220   0.538
97510SOL    HW294305   7.382   6.328   0.480
97511SOL     OW94306   7.700   0.301   7.024
97511SOL    HW194307   7.685   0.370   7.088
97511SOL    HW294308   7.777   0.255   7.055
97512SOL     OW94309  13.433   2.071   0.747
97512SOL    HW194310  13.356   2.071   0.804
97512SOL    HW294311  13.498   2.123   0.794
97513SOL     OW94312   4.106   1.633   6.370
97513SOL    HW194313   4.117   1.582   6.451
97513SOL    HW294314   4.155   1.585   6.304
97514SOL     OW94315   3.797   0.404   0.945
97514SOL    HW194316   3.766   0.474   1.001
97514SOL    HW294317   3.883   0.432   0.916
97515SOL     OW94318   4.783   0.461   1.223
97515SOL    HW194319   4.741   0.539   1.186
97515SOL    HW294320   4.871   0.491   1.248
97516SOL     OW94321   1.692   9.246   1.764
97516SOL    HW194322   1.647   9.295   1.696
97516SOL    HW294323   1.779   9.287   1.769
97517SOL     OW94324   7.674   4.842   8.752
97517SOL    HW194325   7.712   4.794   8.678
97517SOL    HW294326   7.709   4.930   8.743
97518SOL     OW94327   7.102  13.207   0.513
97518SOL    HW194328   7.161  13.133   0.503
97518SOL    HW294329   7.098  13.248   0.427
97519SOL     OW94330   6.802  13.323   3.588
97519SOL    HW194331   6.864  13.265   3.633
97519SOL    HW294332   6.839  13.334   3.500
97520SOL     OW94333   6.140   1.150   8.511
97520SOL    HW194334   6.110   1.112   8.593
97520SOL    HW294335   6.204   1.216   8.538
97521SOL     OW94336  10.393   0.891   6.755
97521SOL    HW194337  10.308   0.869   6.793
97521SOL    HW294338  10.406   0.826   6.686
97522SOL     OW94339   5.205  12.238  11.016
97522SOL    HW194340   5.286  12.234  11.067
97522SOL    HW294341   5.216  12.315  10.960
97523SOL     OW94342   7.029   2.575  13.532
97523SOL    HW194343   6.954   2.520  13.555
97523SOL    HW294344   7.106   2.520  13.550
97524SOL     OW94345  10.678  12.619   3.998
97524SOL    HW194346  10.705  12.652   3.912
97524SOL    HW294347  10.587  12.594   3.986
97525SOL     OW94348   5.111   4.198   1.107
97525SOL    HW194349   5.046   4.181   1.176
97525SOL    HW294350   5.194   4.169   1.146
97526SOL     OW94351   9.636   7.561  11.382
97526SOL    HW194352   9.614   7.530  11.294
97526SOL    HW294353   9.604   7.651  11.385
97527SOL     OW94354  12.128   9.614   1.973
97527SOL    HW194355  12.183   9.591   2.047
97527SOL    HW294356  12.071   9.538   1.960
97528SOL     OW94357   8.419  11.000  13.657
97528SOL    HW194358   8.398  11.055  13.582
97528SOL    HW294359   8.400  11.054  13.733
97529SOL     OW94360  11.379  11.205  13.093
97529SOL    HW194361  11.307  11.143  13.082
97529SOL    HW294362  11.371  11.237  13.182
97530SOL     OW94363   2.559   9.965  10.448
97530SOL    HW194364   2.515   9.885  10.474
97530SOL    HW294365   2.491  10.032  10.448
97531SOL     OW94366   4.194   8.310   1.026
97531SOL    HW194367   4.195   8.252   0.950
97531SOL    HW294368   4.134   8.267   1.087
97532SOL     OW94369   7.760   0.639   3.169
97532SOL    HW194370   7.768   0.557   3.219
97532SOL    HW294371   7.800   0.619   3.085
97533SOL     OW94372   2.125   7.052   1.273
97533SOL    HW194373   2.159   6.966   1.295
97533SOL    HW294374   2.098   7.045   1.181
97534SOL     OW94375  10.139   3.673   5.450
97534SOL    HW194376  10.049   3.682   5.418
97534SOL    HW294377  10.154   3.578   5.451
97535SOL     OW94378  12.779   8.499  11.828
97535SOL    HW194379  12.738   8.584  11.810
97535SOL    HW294380  12.839   8.516  11.900
97536SOL     OW94381   7.151   4.707  11.755
97536SOL    HW194382   7.237   4.720  11.795
97536SOL    HW294383   7.138   4.613  11.755
97537SOL     OW94384  10.189  12.450   6.257
97537SOL    HW194385  10.155  12.361   6.251
97537SOL    HW294386  10.119  12.499   6.300
97538SOL     OW94387  12.831  10.532   0.526
97538SOL    HW194388  12.747  10.500   0.560
97538SOL    HW294389  12.807  10.594   0.458
97539SOL     OW94390   0.136  14.214   9.452
97539SOL    HW194391   0.191  14.292   9.460
97539SOL    HW294392   0.051  14.246   9.424
97540SOL     OW94393  10.469  14.140   3.087
97540SOL    HW194394  10.547  14.130   3.141
97540SOL    HW294395  10.417  14.208   3.131
97541SOL     OW94396   4.918   9.533  11.285
97541SOL    HW194397   4.844   9.588  11.309
97541SOL    HW294398   4.949   9.498  11.369
97542SOL     OW94399  10.568   9.740  14.322
97542SOL    HW194400  10.629   9.728  14.249
97542SOL    HW294401  10.487   9.699  14.292
97543SOL     OW94402   1.265  10.262   3.341
97543SOL    HW194403   1.213  10.217   3.274
97543SOL    HW294404   1.232  10.352   3.340
97544SOL     OW94405  14.787   9.318  11.926
97544SOL    HW194406  14.796   9.413  11.917
97544SOL    HW294407  14.808   9.284  11.839
97545SOL     OW94408   9.218   2.830  11.676
97545SOL    HW194409   9.220   2.812  11.582
97545SOL    HW294410   9.263   2.755  11.716
97546SOL     OW94411  13.048   2.420   4.316
97546SOL    HW194412  13.071   2.487   4.252
97546SOL    HW294413  13.064   2.462   4.401
97547SOL     OW94414   5.345   8.257  13.270
97547SOL    HW194415   5.440   8.253  13.257
97547SOL    HW294416   5.312   8.178  13.227
97548SOL     OW94417  11.379  12.538   1.908
97548SOL    HW194418  11.327  12.473   1.955
97548SOL    HW294419  11.466  12.533   1.948
97549SOL     OW94420  11.609  14.611   7.779
97549SOL    HW194421  11.671  14.627   7.851
97549SOL    HW294422  11.658  14.632   7.700
97550SOL     OW94423   3.367   5.636   9.787
97550SOL    HW194424   3.457   5.609   9.769
97550SOL    HW294425   3.332   5.660   9.701
97551SOL     OW94426  11.647   6.060  13.972
97551SOL    HW194427  11.682   6.144  14.002
97551SOL    HW294428  11.608   6.021  14.050
97552SOL     OW94429   3.708  14.401   9.574
97552SOL    HW194430   3.613  14.407   9.583
97552SOL    HW294431   3.725  14.308   9.561
97553SOL     OW94432   6.682   0.758  12.647
97553SOL    HW194433   6.652   0.701  12.718
97553SOL    HW294434   6.734   0.701  12.590
97554SOL     OW94435   5.907   8.088   9.700
97554SOL    HW194436   5.971   8.099   9.771
97554SOL    HW294437   5.822   8.104   9.741
97555SOL     OW94438   1.451   1.413   8.449
97555SOL    HW194439   1.519   1.467   8.408
97555SOL    HW294440   1.379   1.474   8.464
97556SOL     OW94441   6.470   2.456  14.189
97556SOL    HW194442   6.485   2.499  14.274
97556SOL    HW294443   6.379   2.428  14.193
97557SOL     OW94444  12.276  11.674   3.173
97557SOL    HW194445  12.367  11.662   3.147
97557SOL    HW294446  12.242  11.740   3.113
97558SOL     OW94447   8.551   6.410   4.879
97558SOL    HW194448   8.585   6.413   4.969
97558SOL    HW294449   8.471   6.463   4.882
97559SOL     OW94450  14.657  14.688   2.481
97559SOL    HW194451  14.651  14.712   2.388
97559SOL    HW294452  14.667  14.772   2.526
97560SOL     OW94453  10.559   2.061   0.519
97560SOL    HW194454  10.621   1.989   0.526
97560SOL    HW294455  10.544   2.070   0.425
97561SOL     OW94456   3.237   5.663  13.715
97561SOL    HW194457   3.331   5.679  13.706
97561SOL    HW294458   3.229   5.609  13.793
97562SOL     OW94459   6.251   2.905   0.461
97562SOL    HW194460   6.332   2.947   0.430
97562SOL    HW294461   6.219   2.963   0.530
97563SOL     OW94462   0.092   8.130  10.407
97563SOL    HW194463   0.050   8.044  10.409
97563SOL    HW294464   0.186   8.112  10.413
97564SOL     OW94465   9.015   5.348   1.509
97564SOL    HW194466   8.937   5.402   1.500
97564SOL    HW294467   9.060   5.356   1.425
97565SOL     OW94468  14.315  11.958   8.535
97565SOL    HW194469  14.320  11.924   8.624
97565SOL    HW294470  14.400  12.000   8.521
97566SOL     OW94471  14.834   6.201  12.075
97566SOL    HW194472  14.742   6.227  12.081
97566SOL    HW294473  14.867   6.249  11.999
97567SOL     OW94474   6.273   2.921   3.310
97567SOL    HW194475   6.222   2.942   3.388
97567SOL    HW294476   6.275   2.825   3.308
97568SOL     OW94477  10.529   1.791   4.443
97568SOL    HW194478  10.608   1.845   4.441
97568SOL    HW294479  10.542   1.733   4.518
97569SOL     OW94480   1.531   2.800   4.269
97569SOL    HW194481   1.483   2.875   4.235
97569SOL    HW294482   1.501   2.726   4.216
97570SOL     OW94483  11.746   3.857   0.885
97570SOL    HW194484  11.692   3.930   0.853
97570SOL    HW294485  11.699   3.778   0.857
97571SOL     OW94486   3.537   3.919   5.495
97571SOL    HW194487   3.461   3.893   5.443
97571SOL    HW294488   3.552   3.844   5.553
97572SOL     OW94489   2.202  11.537   9.542
97572SOL    HW194490   2.239  11.605   9.598
97572SOL    HW294491   2.191  11.578   9.457
97573SOL     OW94492   6.757  12.489   1.970
97573SOL    HW194493   6.840  12.442   1.970
97573SOL    HW294494   6.690  12.422   1.985
97574SOL     OW94495   3.782  12.203  10.148
97574SOL    HW194496   3.695  12.164  10.135
97574SOL    HW294497   3.796  12.200  10.242
97575SOL     OW94498   8.922   1.643  11.436
97575SOL    HW194499   9.016   1.657  11.426
97575SOL    HW294500   8.888   1.644  11.347
97576SOL     OW94501  12.846   7.822   6.956
97576SOL    HW194502  12.816   7.733   6.937
97576SOL    HW294503  12.778   7.858   7.013
97577SOL     OW94504   2.238  10.136   7.302
97577SOL    HW194505   2.235  10.049   7.341
97577SOL    HW294506   2.290  10.125   7.222
97578SOL     OW94507  14.593  14.442   6.778
97578SOL    HW194508  14.680  14.402   6.773
97578SOL    HW294509  14.533  14.368   6.790
97579SOL     OW94510  14.708   5.626   8.052
97579SOL    HW194511  14.776   5.674   8.003
97579SOL    HW294512  14.733   5.636   8.143
97580SOL     OW94513  14.724   6.305   1.445
97580SOL    HW194514  14.730   6.350   1.529
97580SOL    HW294515  14.748   6.215   1.465
97581SOL     OW94516  12.948   0.384   1.320
97581SOL    HW194517  12.931   0.389   1.414
97581SOL    HW294518  13.033   0.427   1.308
97582SOL     OW94519  14.116   5.096   8.301
97582SOL    HW194520  14.113   5.069   8.393
97582SOL    HW294521  14.209   5.090   8.278
97583SOL     OW94522  10.293   7.750   2.518
97583SOL    HW194523  10.321   7.659   2.517
97583SOL    HW294524  10.373   7.799   2.537
97584SOL     OW94525  13.680   5.162   1.436
97584SOL    HW194526  13.647   5.134   1.350
97584SOL    HW294527  13.643   5.099   1.498
97585SOL     OW94528   4.172  13.288   5.773
97585SOL    HW194529   4.184  13.373   5.732
97585SOL    HW294530   4.166  13.308   5.867
97586SOL     OW94531  10.010   0.260  12.679
97586SOL    HW194532  10.093   0.308  12.671
97586SOL    HW294533   9.947   0.315  12.633
97587SOL     OW94534   8.415   1.902   2.001
97587SOL    HW194535   8.407   1.832   2.067
97587SOL    HW294536   8.412   1.856   1.917
97588SOL     OW94537   4.188   8.578   1.082
97588SOL    HW194538   4.209   8.484   1.089
97588SOL    HW294539   4.096   8.581   1.058
97589SOL     OW94540   3.978   8.574   3.403
97589SOL    HW194541   4.035   8.505   3.369
97589SOL    HW294542   3.968   8.635   3.330
97590SOL     OW94543  12.554   7.847   1.954
97590SOL    HW194544  12.645   7.877   1.960
97590SOL    HW294545  12.514   7.877   2.036
97591SOL     OW94546   2.464   5.625   9.484
97591SOL    HW194547   2.553   5.638   9.516
97591SOL    HW294548   2.464   5.666   9.397
97592SOL     OW94549  14.422  13.563   6.548
97592SOL    HW194550  14.431  13.531   6.637
97592SOL    HW294551  14.480  13.639   6.544
97593SOL     OW94552  14.804  10.031   7.196
97593SOL    HW194553  14.877   9.974   7.217
97593SOL    HW294554  14.727   9.975   7.201
97594SOL     OW94555  14.497   5.634   5.435
97594SOL    HW194556  14.523   5.725   5.449
97594SOL    HW294557  14.562   5.583   5.483
97595SOL     OW94558  11.482   4.674  13.844
97595SOL    HW194559  11.426   4.621  13.787
97595SOL    HW294560  11.421   4.721  13.901
97596SOL     OW94561  14.478   3.367  10.426
97596SOL    HW194562  14.533   3.407  10.494
97596SOL    HW294563  14.530   3.294  10.393
97597SOL     OW94564   5.598  14.492   1.975
97597SOL    HW194565   5.541  14.416   1.969
97597SOL    HW294566   5.687  14.456   1.972
97598SOL     OW94567  11.049   6.553   2.898
97598SOL    HW194568  10.997   6.557   2.818
97598SOL    HW294569  10.991   6.511   2.962
97599SOL     OW94570  12.834   1.096  13.688
97599SOL    HW194571  12.762   1.036  13.667
97599SOL    HW294572  12.913   1.043  13.681
97600SOL     OW94573   1.612   9.423  11.169
97600SOL    HW194574   1.606   9.441  11.263
97600SOL    HW294575   1.680   9.482  11.138
97601SOL     OW94576   6.609   2.195  12.203
97601SOL    HW194577   6.621   2.204  12.298
97601SOL    HW294578   6.564   2.112  12.193
97602SOL     OW94579  11.317  10.015  12.444
97602SOL    HW194580  11.404  10.004  12.483
97602SOL    HW294581  11.309  10.110  12.431
97603SOL     OW94582   5.881  10.886  13.337
97603SOL    HW194583   5.940  10.814  13.312
97603SOL    HW294584   5.859  10.928  13.254
97604SOL     OW94585   8.708   7.478  12.893
97604SOL    HW194586   8.618   7.445  12.899
97604SOL    HW294587   8.757   7.404  12.857
97605SOL     OW94588   1.145   8.011   6.754
97605SOL    HW194589   1.227   8.051   6.727
97605SOL    HW294590   1.080   8.080   6.744
97606SOL     OW94591   4.068   1.865  12.044
97606SOL    HW194592   4.067   1.773  12.017
97606SOL    HW294593   4.161   1.887  12.051
97607SOL     OW94594   2.216  10.911  13.370
97607SOL    HW194595   2.300  10.877  13.400
97607SOL    HW294596   2.231  11.005  13.360
97608SOL     OW94597   9.279   4.743  14.269
97608SOL    HW194598   9.279   4.774  14.359
97608SOL    HW294599   9.329   4.661  14.272
97609SOL     OW94600   4.432   6.419   5.887
97609SOL    HW194601   4.387   6.464   5.959
97609SOL    HW294602   4.487   6.487   5.847
97610SOL     OW94603   8.074   1.701  14.120
97610SOL    HW194604   8.046   1.767  14.056
97610SOL    HW294605   8.137   1.647  14.072
97611SOL     OW94606  12.077  10.107  11.104
97611SOL    HW194607  12.050  10.078  11.017
97611SOL    HW294608  12.145  10.172  11.087
97612SOL     OW94609  10.467   3.567   9.194
97612SOL    HW194610  10.482   3.530   9.281
97612SOL    HW294611  10.555   3.586   9.161
97613SOL     OW94612  13.785   8.178   9.042
97613SOL    HW194613  13.776   8.272   9.062
97613SOL    HW294614  13.740   8.134   9.114
97614SOL     OW94615   9.935   9.122   7.931
97614SOL    HW194616   9.854   9.087   7.966
97614SOL    HW294617   9.919   9.132   7.837
97615SOL     OW94618   1.481   1.336   0.376
97615SOL    HW194619   1.434   1.388   0.310
97615SOL    HW294620   1.444   1.364   0.459
97616SOL     OW94621  13.633  14.071  13.073
97616SOL    HW194622  13.559  14.020  13.041
97616SOL    HW294623  13.638  14.146  13.015
97617SOL     OW94624  11.035   4.033  11.178
97617SOL    HW194625  10.969   4.099  11.197
97617SOL    HW294626  11.024   3.967  11.246
97618SOL     OW94627   5.327   8.398   9.699
97618SOL    HW194628   5.286   8.393   9.786
97618SOL    HW294629   5.408   8.447   9.712
97619SOL     OW94630  11.580   5.297  14.151
97619SOL    HW194631  11.499   5.323  14.107
97619SOL    HW294632  11.575   5.338  14.237
97620SOL     OW94633   8.722   4.895   8.257
97620SOL    HW194634   8.660   4.904   8.184
97620SOL    HW294635   8.808   4.891   8.214
97621SOL     OW94636  10.786   2.349  12.213
97621SOL    HW194637  10.820   2.266  12.179
97621SOL    HW294638  10.721   2.376  12.148
97622SOL     OW94639   3.782   1.758  12.280
97622SOL    HW194640   3.821   1.684  12.328
97622SOL    HW294641   3.827   1.758  12.196
97623SOL     OW94642   9.436   0.688  12.278
97623SOL    HW194643   9.392   0.697  12.362
97623SOL    HW294644   9.477   0.601  12.282
97624SOL     OW94645  11.227   7.010  10.957
97624SOL    HW194646  11.260   6.957  10.885
97624SOL    HW294647  11.305   7.040  11.004
97625SOL     OW94648   5.123  10.019  10.600
97625SOL    HW194649   5.152  10.039  10.511
97625SOL    HW294650   5.078   9.935  10.592
97626SOL     OW94651   5.644   6.630  14.679
97626SOL    HW194652   5.597   6.566  14.625
97626SOL    HW294653   5.576   6.685  14.717
97627SOL     OW94654  12.917  12.705   7.452
97627SOL    HW194655  12.976  12.660   7.393
97627SOL    HW294656  12.961  12.701   7.537
97628SOL     OW94657  11.266  11.938   5.803
97628SOL    HW194658  11.174  11.928   5.778
97628SOL    HW294659  11.310  11.862   5.767
97629SOL     OW94660  13.908   4.969   9.633
97629SOL    HW194661  13.862   4.965   9.717
97629SOL    HW294662  13.967   4.894   9.635
97630SOL     OW94663  13.931  10.078   2.464
97630SOL    HW194664  13.896  10.089   2.376
97630SOL    HW294665  14.019  10.116   2.460
97631SOL     OW94666   8.148  13.494  12.722
97631SOL    HW194667   8.132  13.542  12.804
97631SOL    HW294668   8.095  13.540  12.657
97632SOL     OW94669  12.587  12.322   2.193
97632SOL    HW194670  12.673  12.351   2.224
97632SOL    HW294671  12.572  12.239   2.238
97633SOL     OW94672  13.632   5.328   2.967
97633SOL    HW194673  13.641   5.385   3.043
97633SOL    HW294674  13.650   5.385   2.892
97634SOL     OW94675   6.739   2.124   7.019
97634SOL    HW194676   6.682   2.085   6.952
97634SOL    HW294677   6.692   2.111   7.101
97635SOL     OW94678  11.720  11.730   0.481
97635SOL    HW194679  11.813  11.739   0.458
97635SOL    HW294680  11.694  11.647   0.441
97636SOL     OW94681   1.577  14.262   2.434
97636SOL    HW194682   1.623  14.293   2.355
97636SOL    HW294683   1.485  14.278   2.416
97637SOL     OW94684   1.589   6.258   7.269
97637SOL    HW194685   1.552   6.339   7.304
97637SOL    HW294686   1.586   6.197   7.343
97638SOL     OW94687  14.738  10.553   8.907
97638SOL    HW194688  14.810  10.605   8.872
97638SOL    HW294689  14.777  10.468   8.928
97639SOL     OW94690   6.008  11.617   2.303
97639SOL    HW194691   6.054  11.642   2.223
97639SOL    HW294692   5.989  11.524   2.293
97640SOL     OW94693   6.176   3.958   1.871
97640SOL    HW194694   6.106   4.012   1.908
97640SOL    HW294695   6.255   3.989   1.915
97641SOL     OW94696  10.515   9.951   1.185
97641SOL    HW194697  10.464   9.911   1.114
97641SOL    HW294698  10.473   9.920   1.265
97642SOL     OW94699   1.390   3.042  14.045
97642SOL    HW194700   1.425   2.954  14.028
97642SOL    HW294701   1.443   3.100  13.990
97643SOL     OW94702  13.281  14.348   2.165
97643SOL    HW194703  13.362  14.325   2.211
97643SOL    HW294704  13.246  14.264   2.135
97644SOL     OW94705  10.805  14.500   9.293
97644SOL    HW194706  10.801  14.429   9.357
97644SOL    HW294707  10.714  14.511   9.264
97645SOL     OW94708   8.985   0.709  10.675
97645SOL    HW194709   9.061   0.764  10.697
97645SOL    HW294710   8.943   0.691  10.759
97646SOL     OW94711  12.375   6.218   0.565
97646SOL    HW194712  12.345   6.191   0.652
97646SOL    HW294713  12.375   6.314   0.568
97647SOL     OW94714  11.312  14.747  11.821
97647SOL    HW194715  11.350  14.827  11.783
97647SOL    HW294716  11.386  14.687  11.827
97648SOL     OW94717   1.636  10.014   1.278
97648SOL    HW194718   1.566  10.078   1.289
97648SOL    HW294719   1.712  10.054   1.319
97649SOL     OW94720  13.866  11.815   6.185
97649SOL    HW194721  13.948  11.863   6.201
97649SOL    HW294722  13.827  11.806   6.272
97650SOL     OW94723   3.333  13.430   1.485
97650SOL    HW194724   3.395  13.362   1.460
97650SOL    HW294725   3.325  13.485   1.407
97651SOL     OW94726  13.971  11.862  14.786
97651SOL    HW194727  14.013  11.819  14.859
97651SOL    HW294728  13.928  11.792  14.737
97652SOL     OW94729   5.217   1.146   5.763
97652SOL    HW194730   5.272   1.100   5.699
97652SOL    HW294731   5.249   1.237   5.762
97653SOL     OW94732   3.589   3.629   5.070
97653SOL    HW194733   3.509   3.576   5.063
97653SOL    HW294734   3.650   3.574   5.120
97654SOL     OW94735   1.216  11.293  12.238
97654SOL    HW194736   1.260  11.207  12.243
97654SOL    HW294737   1.139  11.283  12.294
97655SOL     OW94738   0.815   6.994   1.914
97655SOL    HW194739   0.881   7.059   1.942
97655SOL    HW294740   0.865   6.930   1.864
97656SOL     OW94741   1.169   4.460   0.868
97656SOL    HW194742   1.150   4.489   0.957
97656SOL    HW294743   1.132   4.372   0.863
97657SOL     OW94744  12.404   2.790  14.308
97657SOL    HW194745  12.360   2.861  14.260
97657SOL    HW294746  12.345   2.770  14.380
97658SOL     OW94747   3.487  13.275   7.007
97658SOL    HW194748   3.494  13.195   7.060
97658SOL    HW294749   3.568  13.322   7.024
97659SOL     OW94750   5.322  14.715   3.932
97659SOL    HW194751   5.257  14.650   3.960
97659SOL    HW294752   5.322  14.781   4.002
97660SOL     OW94753   2.166  10.661   6.366
97660SOL    HW194754   2.173  10.739   6.311
97660SOL    HW294755   2.076  10.630   6.352
97661SOL     OW94756  11.896   8.605   4.256
97661SOL    HW194757  11.954   8.530   4.254
97661SOL    HW294758  11.831   8.584   4.323
97662SOL     OW94759  11.590  10.349   1.131
97662SOL    HW194760  11.612  10.411   1.062
97662SOL    HW294761  11.497  10.328   1.116
97663SOL     OW94762  13.252  13.434   5.242
97663SOL    HW194763  13.180  13.497   5.245
97663SOL    HW294764  13.239  13.385   5.161
97664SOL     OW94765   4.916   6.939  12.353
97664SOL    HW194766   4.931   6.860  12.406
97664SOL    HW294767   4.860   6.994  12.407
97665SOL     OW94768   3.958   6.485  13.777
97665SOL    HW194769   4.043   6.441  13.785
97665SOL    HW294770   3.897   6.416  13.751
97666SOL     OW94771   0.299  12.513   5.551
97666SOL    HW194772   0.233  12.571   5.514
97666SOL    HW294773   0.355  12.491   5.476
97667SOL     OW94774   6.196  13.009  10.350
97667SOL    HW194775   6.291  13.016  10.356
97667SOL    HW294776   6.163  13.068  10.417
97668SOL     OW94777   0.896   0.975  11.441
97668SOL    HW194778   0.808   0.961  11.475
97668SOL    HW294779   0.953   0.959  11.515
97669SOL     OW94780   8.589   6.197  13.749
97669SOL    HW194781   8.499   6.163  13.755
97669SOL    HW294782   8.606   6.200  13.655
97670SOL     OW94783  14.672   6.624   8.373
97670SOL    HW194784  14.667   6.603   8.280
97670SOL    HW294785  14.685   6.719   8.376
97671SOL     OW94786   4.333   3.820  11.873
97671SOL    HW194787   4.280   3.741  11.872
97671SOL    HW294788   4.318   3.861  11.788
97672SOL     OW94789  12.223  11.680   4.530
97672SOL    HW194790  12.135  11.652   4.556
97672SOL    HW294791  12.278  11.603   4.546
97673SOL     OW94792   1.015   4.172  10.649
97673SOL    HW194793   1.011   4.103  10.715
97673SOL    HW294794   1.031   4.126  10.567
97674SOL     OW94795   3.531   2.128  11.558
97674SOL    HW194796   3.560   2.220  11.563
97674SOL    HW294797   3.579   2.093  11.483
97675SOL     OW94798   7.198  14.681   7.269
97675SOL    HW194799   7.208  14.635   7.185
97675SOL    HW294800   7.278  14.732   7.278
97676SOL     OW94801   4.697  11.344   0.494
97676SOL    HW194802   4.740  11.421   0.457
97676SOL    HW294803   4.707  11.276   0.428
97677SOL     OW94804   2.649  14.877   6.006
97677SOL    HW194805   2.735   0.029   6.031
97677SOL    HW294806   2.616   0.060   5.942
97678SOL     OW94807   1.581  10.679   6.129
97678SOL    HW194808   1.556  10.706   6.041
97678SOL    HW294809   1.498  10.663   6.174
97679SOL     OW94810   4.047   6.200   8.541
97679SOL    HW194811   4.025   6.110   8.562
97679SOL    HW294812   4.137   6.211   8.572
97680SOL     OW94813  11.978  12.716   2.243
97680SOL    HW194814  11.937  12.803   2.236
97680SOL    HW294815  11.936  12.665   2.174
97681SOL     OW94816   8.349   9.083  12.678
97681SOL    HW194817   8.348   9.104  12.585
97681SOL    HW294818   8.415   9.015  12.687
97682SOL     OW94819  14.753  11.717  11.264
97682SOL    HW194820  14.775  11.628  11.290
97682SOL    HW294821  14.708  11.708  11.180
97683SOL     OW94822   8.164   1.480   2.603
97683SOL    HW194823   8.136   1.425   2.676
97683SOL    HW294824   8.132   1.568   2.626
97684SOL     OW94825   2.653   8.575   8.108
97684SOL    HW194826   2.654   8.491   8.154
97684SOL    HW294827   2.735   8.617   8.134
97685SOL     OW94828   0.209   6.173  13.037
97685SOL    HW194829   0.297   6.211  13.030
97685SOL    HW294830   0.158   6.238  13.085
97686SOL     OW94831   6.113  11.080   0.009
97686SOL    HW194832   6.134  11.030  14.811
97686SOL    HW294833   6.132  11.020   0.081
97687SOL     OW94834   4.306   2.503   2.574
97687SOL    HW194835   4.362   2.581   2.568
97687SOL    HW294836   4.218   2.537   2.590
97688SOL     OW94837  13.681  11.105  13.811
97688SOL    HW194838  13.668  11.029  13.868
97688SOL    HW294839  13.763  11.144  13.841
97689SOL     OW94840   4.784  11.932   7.239
97689SOL    HW194841   4.763  11.913   7.148
97689SOL    HW294842   4.876  11.907   7.249
97690SOL     OW94843   0.657   0.029   0.457
97690SOL    HW194844   0.626  14.866   0.535
97690SOL    HW294845   0.580   0.074   0.423
97691SOL     OW94846  13.976  11.173  10.855
97691SOL    HW194847  13.981  11.259  10.813
97691SOL    HW294848  13.979  11.111  10.782
97692SOL     OW94849   4.656  14.739   6.810
97692SOL    HW194850   4.714  14.816   6.817
97692SOL    HW294851   4.600  14.745   6.887
97693SOL     OW94852   1.197  10.125   8.143
97693SOL    HW194853   1.193  10.130   8.238
97693SOL    HW294854   1.135  10.191   8.112
97694SOL     OW94855   5.320  11.889   2.262
97694SOL    HW194856   5.342  11.914   2.172
97694SOL    HW294857   5.298  11.796   2.256
97695SOL     OW94858   9.456   2.336   7.170
97695SOL    HW194859   9.433   2.428   7.155
97695SOL    HW294860   9.476   2.331   7.263
97696SOL     OW94861   3.533   2.653   0.795
97696SOL    HW194862   3.613   2.706   0.791
97696SOL    HW294863   3.549   2.581   0.733
97697SOL     OW94864  14.519   4.228   0.969
97697SOL    HW194865  14.487   4.200   0.883
97697SOL    HW294866  14.593   4.286   0.949
97698SOL     OW94867   8.858  11.701  13.172
97698SOL    HW194868   8.800  11.772  13.144
97698SOL    HW294869   8.799  11.626  13.185
97699SOL     OW94870   4.589  10.070   2.816
97699SOL    HW194871   4.668  10.113   2.849
97699SOL    HW294872   4.620   9.987   2.780
97700SOL     OW94873  12.494  14.725  13.541
97700SOL    HW194874  12.564  14.659  13.549
97700SOL    HW294875  12.481  14.734  13.447
97701SOL     OW94876  13.705   3.483   0.892
97701SOL    HW194877  13.618   3.509   0.921
97701SOL    HW294878  13.712   3.391   0.917
97702SOL     OW94879   9.687   3.621   0.848
97702SOL    HW194880   9.648   3.692   0.796
97702SOL    HW294881   9.685   3.654   0.938
97703SOL     OW94882   2.380   1.850   0.685
97703SOL    HW194883   2.410   1.902   0.611
97703SOL    HW294884   2.303   1.897   0.718
97704SOL     OW94885   2.651  14.821   4.214
97704SOL    HW194886   2.560  14.814   4.245
97704SOL    HW294887   2.647  14.791   4.123
97705SOL     OW94888  10.961   3.350   3.161
97705SOL    HW194889  11.055   3.358   3.178
97705SOL    HW294890  10.927   3.439   3.172
97706SOL     OW94891  10.427   2.171   8.782
97706SOL    HW194892  10.460   2.252   8.744
97706SOL    HW294893  10.498   2.108   8.771
97707SOL     OW94894   1.279   3.467   0.085
97707SOL    HW194895   1.212   3.474   0.153
97707SOL    HW294896   1.305   3.374   0.086
97708SOL     OW94897  12.993   3.949   0.606
97708SOL    HW194898  12.911   3.940   0.558
97708SOL    HW294899  12.967   3.985   0.691
97709SOL     OW94900   3.122  14.487   1.927
97709SOL    HW194901   3.216  14.476   1.938
97709SOL    HW294902   3.101  14.562   1.983
97710SOL     OW94903   3.398   6.951   0.546
97710SOL    HW194904   3.342   6.974   0.472
97710SOL    HW294905   3.337   6.941   0.619
97711SOL     OW94906   4.521   7.608  14.558
97711SOL    HW194907   4.565   7.653  14.630
97711SOL    HW294908   4.453   7.669  14.530
97712SOL     OW94909   6.456   2.603   8.877
97712SOL    HW194910   6.530   2.630   8.931
97712SOL    HW294911   6.495   2.546   8.810
97713SOL     OW94912   3.069   8.180  14.035
97713SOL    HW194913   3.107   8.240  14.099
97713SOL    HW294914   3.003   8.131  14.083
97714SOL     OW94915   2.657   5.686   0.247
97714SOL    HW194916   2.749   5.708   0.231
97714SOL    HW294917   2.639   5.613   0.187
97715SOL     OW94918  10.961   6.717   1.603
97715SOL    HW194919  10.883   6.673   1.569
97715SOL    HW294920  10.927   6.780   1.667
97716SOL     OW94921  12.663   4.854  11.764
97716SOL    HW194922  12.582   4.904  11.762
97716SOL    HW294923  12.707   4.883  11.844
97717SOL     OW94924  13.359   5.550  14.332
97717SOL    HW194925  13.452   5.551  14.356
97717SOL    HW294926  13.344   5.635  14.291
97718SOL     OW94927  13.548   3.273   8.922
97718SOL    HW194928  13.515   3.340   8.862
97718SOL    HW294929  13.598   3.214   8.866
97719SOL     OW94930   9.164   4.991   1.384
97719SOL    HW194931   9.147   5.074   1.341
97719SOL    HW294932   9.258   4.992   1.402
97720SOL     OW94933  13.346   7.968  11.245
97720SOL    HW194934  13.336   7.872  11.244
97720SOL    HW294935  13.266   8.000  11.203
97721SOL     OW94936  10.323  14.381   1.656
97721SOL    HW194937  10.348  14.469   1.628
97721SOL    HW294938  10.243  14.394   1.707
97722SOL     OW94939  12.736   5.207   5.137
97722SOL    HW194940  12.768   5.214   5.047
97722SOL    HW294941  12.727   5.297   5.167
97723SOL     OW94942   1.508   8.655   4.760
97723SOL    HW194943   1.601   8.631   4.751
97723SOL    HW294944   1.480   8.676   4.671
97724SOL     OW94945   1.624  11.767   6.682
97724SOL    HW194946   1.719  11.769   6.677
97724SOL    HW294947   1.600  11.856   6.708
97725SOL     OW94948   2.800   0.487  14.659
97725SOL    HW194949   2.836   0.565  14.702
97725SOL    HW294950   2.810   0.504  14.566
97726SOL     OW94951   2.639  11.142   7.540
97726SOL    HW194952   2.583  11.153   7.463
97726SOL    HW294953   2.649  11.047   7.549
97727SOL     OW94954   5.169   6.758   0.489
97727SOL    HW194955   5.240   6.800   0.538
97727SOL    HW294956   5.213   6.708   0.421
97728SOL     OW94957   2.527   1.744  12.293
97728SOL    HW194958   2.476   1.811  12.338
97728SOL    HW294959   2.494   1.745  12.204
97729SOL     OW94960  12.952   9.311   5.028
97729SOL    HW194961  12.974   9.342   4.940
97729SOL    HW294962  12.857   9.311   5.031
97730SOL     OW94963  10.580   5.157   9.198
97730SOL    HW194964  10.632   5.225   9.242
97730SOL    HW294965  10.502   5.204   9.167
97731SOL     OW94966   3.724   0.833   6.725
97731SOL    HW194967   3.804   0.787   6.698
97731SOL    HW294968   3.706   0.894   6.653
97732SOL     OW94969   9.498  13.744   3.733
97732SOL    HW194970   9.521  13.787   3.651
97732SOL    HW294971   9.438  13.804   3.777
97733SOL     OW94972  10.918  11.476   5.980
97733SOL    HW194973  10.970  11.465   6.060
97733SOL    HW294974  10.973  11.441   5.910
97734SOL     OW94975   8.704   6.943  11.469
97734SOL    HW194976   8.776   6.965  11.528
97734SOL    HW294977   8.625   6.955  11.521
97735SOL     OW94978   5.592  11.543   1.886
97735SOL    HW194979   5.591  11.475   1.819
97735SOL    HW294980   5.513  11.595   1.868
97736SOL     OW94981   8.264   9.092  13.178
97736SOL    HW194982   8.265   9.115  13.085
97736SOL    HW294983   8.211   9.013  13.182
97737SOL     OW94984  14.011  12.647  12.066
97737SOL    HW194985  13.920  12.619  12.072
97737SOL    HW294986  14.025  12.667  11.973
97738SOL     OW94987   1.125   1.414   7.085
97738SOL    HW194988   1.121   1.508   7.101
97738SOL    HW294989   1.035   1.383   7.095
97739SOL     OW94990  11.292   9.223   5.039
97739SOL    HW194991  11.259   9.265   4.960
97739SOL    HW294992  11.350   9.154   5.007
97740SOL     OW94993   8.219   9.121   2.057
97740SOL    HW194994   8.270   9.194   2.023
97740SOL    HW294995   8.283   9.067   2.104
97741SOL     OW94996  11.939   3.331   4.650
97741SOL    HW194997  11.912   3.407   4.599
97741SOL    HW294998  11.913   3.352   4.740
97742SOL     OW94999  11.217  11.492  12.185
97742SOL    HW195000  11.213  11.452  12.272
97742SOL    HW295001  11.274  11.434  12.134
97743SOL     OW95002   1.864   6.659   6.201
97743SOL    HW195003   1.873   6.603   6.278
97743SOL    HW295004   1.770   6.673   6.192
97744SOL     OW95005   0.125   5.656   2.398
97744SOL    HW195006   0.044   5.698   2.426
97744SOL    HW295007   0.169   5.722   2.344
97745SOL     OW95008  14.746  14.428  12.771
97745SOL    HW195009  14.768  14.373  12.696
97745SOL    HW295010  14.692  14.498  12.734
97746SOL     OW95011   2.463   6.699   3.178
97746SOL    HW195012   2.529   6.664   3.238
97746SOL    HW295013   2.488   6.665   3.092
97747SOL     OW95014  13.406  11.749  14.633
97747SOL    HW195015  13.443  11.661  14.645
97747SOL    HW295016  13.482  11.805  14.619
97748SOL     OW95017  14.163   5.831   0.612
97748SOL    HW195018  14.193   5.880   0.535
97748SOL    HW295019  14.204   5.875   0.686
97749SOL     OW95020   8.556   9.033  13.216
97749SOL    HW195021   8.521   8.981  13.288
97749SOL    HW295022   8.519   8.993  13.137
97750SOL     OW95023  14.775   9.099  14.001
97750SOL    HW195024  14.860   9.106  13.957
97750SOL    HW295025  14.763   9.006  14.016
97751SOL     OW95026   8.196  11.492   3.970
97751SOL    HW195027   8.199  11.562   4.035
97751SOL    HW295028   8.277  11.503   3.920
97752SOL     OW95029   9.647   3.947   9.306
97752SOL    HW195030   9.618   3.982   9.390
97752SOL    HW295031   9.741   3.931   9.318
97753SOL     OW95032   8.777  10.642   8.368
97753SOL    HW195033   8.821  10.634   8.284
97753SOL    HW295034   8.770  10.736   8.383
97754SOL     OW95035   0.513   0.273   8.739
97754SOL    HW195036   0.578   0.264   8.669
97754SOL    HW295037   0.535   0.204   8.801
97755SOL     OW95038   0.837   9.238   4.520
97755SOL    HW195039   0.841   9.215   4.427
97755SOL    HW295040   0.783   9.317   4.523
97756SOL     OW95041  10.978   3.514   4.555
97756SOL    HW195042  10.907   3.477   4.503
97756SOL    HW295043  10.939   3.531   4.641
97757SOL     OW95044   7.273  13.506   3.883
97757SOL    HW195045   7.310  13.474   3.964
97757SOL    HW295046   7.206  13.569   3.910
97758SOL     OW95047   6.769   4.473   3.956
97758SOL    HW195048   6.765   4.399   3.896
97758SOL    HW295049   6.694   4.461   4.015
97759SOL     OW95050   8.911   3.176  10.085
97759SOL    HW195051   8.856   3.114  10.133
97759SOL    HW295052   8.925   3.248  10.146
97760SOL     OW95053   3.672   4.471   6.076
97760SOL    HW195054   3.702   4.426   5.997
97760SOL    HW295055   3.619   4.407   6.122
97761SOL     OW95056   3.700   0.217   5.436
97761SOL    HW195057   3.643   0.192   5.510
97761SOL    HW295058   3.751   0.138   5.418
97762SOL     OW95059   0.194   4.237  13.991
97762SOL    HW195060   0.218   4.241  13.899
97762SOL    HW295061   0.099   4.249  13.992
97763SOL     OW95062  12.376   0.434   5.889
97763SOL    HW195063  12.403   0.357   5.840
97763SOL    HW295064  12.281   0.427   5.895
97764SOL     OW95065   0.863  12.122   8.018
97764SOL    HW195066   0.866  12.211   7.983
97764SOL    HW295067   0.898  12.067   7.948
97765SOL     OW95068   1.886   5.841   1.459
97765SOL    HW195069   1.940   5.895   1.516
97765SOL    HW295070   1.922   5.856   1.371
97766SOL     OW95071  12.390   6.953   6.582
97766SOL    HW195072  12.440   6.959   6.663
97766SOL    HW295073  12.314   7.009   6.597
97767SOL     OW95074   9.702   6.579   5.781
97767SOL    HW195075   9.767   6.567   5.850
97767SOL    HW295076   9.748   6.555   5.701
97768SOL     OW95077   6.573   0.210   9.732
97768SOL    HW195078   6.533   0.142   9.787
97768SOL    HW295079   6.535   0.195   9.645
97769SOL     OW95080   7.038   8.775   9.896
97769SOL    HW195081   7.107   8.762   9.832
97769SOL    HW295082   7.070   8.844   9.954
97770SOL     OW95083   7.043   4.283   0.856
97770SOL    HW195084   7.051   4.221   0.783
97770SOL    HW295085   7.125   4.273   0.905
97771SOL     OW95086  12.992   8.918  10.386
97771SOL    HW195087  12.908   8.909  10.430
97771SOL    HW295088  13.033   8.832  10.396
97772SOL     OW95089   8.368   8.016   6.735
97772SOL    HW195090   8.307   7.961   6.687
97772SOL    HW295091   8.328   8.103   6.734
97773SOL     OW95092   1.173   2.004   0.648
97773SOL    HW195093   1.207   2.089   0.677
97773SOL    HW295094   1.204   1.942   0.715
97774SOL     OW95095   0.335   4.206   5.273
97774SOL    HW195096   0.361   4.117   5.252
97774SOL    HW295097   0.296   4.239   5.191
97775SOL     OW95098  10.905   0.066  14.133
97775SOL    HW195099  10.854   0.043  14.210
97775SOL    HW295100  10.996   0.049  14.159
97776SOL     OW95101   3.199   4.753   7.860
97776SOL    HW195102   3.143   4.723   7.932
97776SOL    HW295103   3.211   4.846   7.876
97777SOL     OW95104   7.865   7.441   5.836
97777SOL    HW195105   7.816   7.373   5.882
97777SOL    HW295106   7.952   7.403   5.824
97778SOL     OW95107   1.464   5.452   4.507
97778SOL    HW195108   1.388   5.503   4.477
97778SOL    HW295109   1.524   5.453   4.433
97779SOL     OW95110   3.873   7.808   4.563
97779SOL    HW195111   3.798   7.749   4.567
97779SOL    HW295112   3.925   7.777   4.489
97780SOL     OW95113  11.345  10.772   9.206
97780SOL    HW195114  11.353  10.720   9.127
97780SOL    HW295115  11.256  10.807   9.204
97781SOL     OW95116  11.625  11.892   1.934
97781SOL    HW195117  11.668  11.975   1.912
97781SOL    HW295118  11.551  11.917   1.989
97782SOL     OW95119   2.285   6.838   2.006
97782SOL    HW195120   2.317   6.755   2.041
97782SOL    HW295121   2.197   6.847   2.042
97783SOL     OW95122  13.296   5.517   4.065
97783SOL    HW195123  13.257   5.603   4.052
97783SOL    HW295124  13.270   5.491   4.153
97784SOL     OW95125   0.891  13.783   8.719
97784SOL    HW195126   0.796  13.775   8.731
97784SOL    HW295127   0.906  13.876   8.705
97785SOL     OW95128   8.030   3.374   4.040
97785SOL    HW195129   8.097   3.387   3.973
97785SOL    HW295130   8.014   3.280   4.040
97786SOL     OW95131  13.881   4.335   3.089
97786SOL    HW195132  13.793   4.333   3.051
97786SOL    HW295133  13.906   4.427   3.087
97787SOL     OW95134   1.297  11.842   7.480
97787SOL    HW195135   1.273  11.915   7.422
97787SOL    HW295136   1.214  11.816   7.522
97788SOL     OW95137  11.598  13.710  12.809
97788SOL    HW195138  11.666  13.747  12.752
97788SOL    HW295139  11.518  13.758  12.786
97789SOL     OW95140   9.740   8.351   4.076
97789SOL    HW195141   9.752   8.405   4.153
97789SOL    HW295142   9.706   8.410   4.009
97790SOL     OW95143   8.169   1.453   6.578
97790SOL    HW195144   8.229   1.523   6.603
97790SOL    HW295145   8.131   1.422   6.660
97791SOL     OW95146  11.490   9.325  12.627
97791SOL    HW195147  11.433   9.296  12.555
97791SOL    HW295148  11.430   9.358  12.693
97792SOL     OW95149   1.764   4.059   2.167
97792SOL    HW195150   1.838   4.120   2.158
97792SOL    HW295151   1.753   4.048   2.262
97793SOL     OW95152   7.547   1.236   7.794
97793SOL    HW195153   7.546   1.178   7.718
97793SOL    HW295154   7.633   1.279   7.790
97794SOL     OW95155  11.819   1.987  10.302
97794SOL    HW195156  11.807   1.899  10.336
97794SOL    HW295157  11.732   2.026  10.305
97795SOL     OW95158   4.737   8.560   3.175
97795SOL    HW195159   4.778   8.489   3.127
97795SOL    HW295160   4.805   8.627   3.182
97796SOL     OW95161   4.107  14.601  10.006
97796SOL    HW195162   4.113  14.583  10.099
97796SOL    HW295163   4.031  14.551   9.976
97797SOL     OW95164  12.443   4.296   7.382
97797SOL    HW195165  12.402   4.220   7.423
97797SOL    HW295166  12.381   4.367   7.396
97798SOL     OW95167   1.292   5.735   3.185
97798SOL    HW195168   1.307   5.796   3.112
97798SOL    HW295169   1.269   5.792   3.259
97799SOL     OW95170   7.951   1.074   9.022
97799SOL    HW195171   8.024   1.013   9.026
97799SOL    HW295172   7.886   1.036   9.082
97800SOL     OW95173  12.227  14.607  14.703
97800SOL    HW195174  12.192  14.545  14.768
97800SOL    HW295175  12.149  14.649  14.666
97801SOL     OW95176  10.541   7.870  10.417
97801SOL    HW195177  10.519   7.782  10.446
97801SOL    HW295178  10.579   7.858  10.330
97802SOL     OW95179   6.430  14.405  11.405
97802SOL    HW195180   6.451  14.367  11.319
97802SOL    HW295181   6.514  14.414  11.449
97803SOL     OW95182   6.333   7.408  12.576
97803SOL    HW195183   6.417   7.402  12.622
97803SOL    HW295184   6.343   7.482  12.517
97804SOL     OW95185  13.342  14.703   2.930
97804SOL    HW195186  13.401  14.744   2.866
97804SOL    HW295187  13.395  14.634   2.970
97805SOL     OW95188  13.481  11.577   4.311
97805SOL    HW195189  13.425  11.500   4.308
97805SOL    HW295190  13.567  11.545   4.284
97806SOL     OW95191  10.829  12.979  10.976
97806SOL    HW195192  10.834  12.924  10.898
97806SOL    HW295193  10.746  13.026  10.967
97807SOL     OW95194   3.920  13.406   4.185
97807SOL    HW195195   3.951  13.424   4.097
97807SOL    HW295196   3.827  13.386   4.175
97808SOL     OW95197   6.653   6.438   5.778
97808SOL    HW195198   6.578   6.396   5.819
97808SOL    HW295199   6.616   6.490   5.707
97809SOL     OW95200  12.126   8.792  11.524
97809SOL    HW195201  12.160   8.704  11.542
97809SOL    HW295202  12.113   8.830  11.611
97810SOL     OW95203   3.251  12.790   0.839
97810SOL    HW195204   3.322  12.726   0.838
97810SOL    HW295205   3.224  12.793   0.931
97811SOL     OW95206   5.273   3.683   3.722
97811SOL    HW195207   5.365   3.711   3.725
97811SOL    HW295208   5.241   3.715   3.638
97812SOL     OW95209   1.161   0.779   0.928
97812SOL    HW195210   1.125   0.710   0.872
97812SOL    HW295211   1.231   0.818   0.875
97813SOL     OW95212  14.769  14.464  11.663
97813SOL    HW195213  14.783  14.477  11.757
97813SOL    HW295214  14.856  14.446  11.628
97814SOL     OW95215   2.591   2.504  11.005
97814SOL    HW195216   2.519   2.454  10.968
97814SOL    HW295217   2.655   2.438  11.031
97815SOL     OW95218  12.741   4.793  13.916
97815SOL    HW195219  12.683   4.858  13.956
97815SOL    HW295220  12.698   4.769  13.834
97816SOL     OW95221  14.028  10.693   7.516
97816SOL    HW195222  13.932  10.689   7.511
97816SOL    HW295223  14.058  10.651   7.435
97817SOL     OW95224  12.762   9.737  14.611
97817SOL    HW195225  12.684   9.685  14.592
97817SOL    HW295226  12.728   9.824  14.630
97818SOL     OW95227   0.634  13.975   0.241
97818SOL    HW195228   0.565  14.020   0.193
97818SOL    HW295229   0.588  13.925   0.309
97819SOL     OW95230   0.536   6.968   6.675
97819SOL    HW195231   0.491   7.052   6.669
97819SOL    HW295232   0.566   6.949   6.586
97820SOL     OW95233   8.826   6.016   9.882
97820SOL    HW195234   8.917   5.995   9.861
97820SOL    HW295235   8.784   6.025   9.796
97821SOL     OW95236   6.768  12.117   7.059
97821SOL    HW195237   6.842  12.058   7.045
97821SOL    HW295238   6.759  12.164   6.976
97822SOL     OW95239   6.244  11.773  11.288
97822SOL    HW195240   6.181  11.770  11.359
97822SOL    HW295241   6.282  11.685  11.286
97823SOL     OW95242   7.893   4.928   4.332
97823SOL    HW195243   7.855   5.016   4.337
97823SOL    HW295244   7.956   4.933   4.260
97824SOL     OW95245  10.319   1.210  10.580
97824SOL    HW195246  10.387   1.214  10.512
97824SOL    HW295247  10.364   1.176  10.657
97825SOL     OW95248   7.021   3.667  14.667
97825SOL    HW195249   7.046   3.591  14.720
97825SOL    HW295250   6.960   3.632  14.602
97826SOL     OW95251   2.859   0.819   8.279
97826SOL    HW195252   2.789   0.885   8.282
97826SOL    HW295253   2.859   0.781   8.367
97827SOL     OW95254  14.583   4.939   5.587
97827SOL    HW195255  14.672   4.913   5.611
97827SOL    HW295256  14.579   4.925   5.493
97828SOL     OW95257   1.906   2.192  14.339
97828SOL    HW195258   1.908   2.098  14.355
97828SOL    HW295259   1.933   2.201  14.247
97829SOL     OW95260   6.231   1.558  12.749
97829SOL    HW195261   6.153   1.539  12.802
97829SOL    HW295262   6.289   1.605  12.809
97830SOL     OW95263  14.746   7.987  11.239
97830SOL    HW195264  14.730   8.082  11.243
97830SOL    HW295265  14.828   7.974  11.286
97831SOL     OW95266  10.171  11.101   9.301
97831SOL    HW195267  10.128  11.077   9.219
97831SOL    HW295268  10.100  11.111   9.364
97832SOL     OW95269   9.906   8.702  11.412
97832SOL    HW195270   9.878   8.621  11.369
97832SOL    HW295271   9.919   8.764  11.341
97833SOL     OW95272   6.080   3.172   2.807
97833SOL    HW195273   6.143   3.128   2.751
97833SOL    HW295274   6.021   3.217   2.746
97834SOL     OW95275   8.134   4.413   9.434
97834SOL    HW195276   8.148   4.457   9.351
97834SOL    HW295277   8.210   4.356   9.444
97835SOL     OW95278   0.425   5.832  13.099
97835SOL    HW195279   0.388   5.831  13.010
97835SOL    HW295280   0.519   5.843  13.085
97836SOL     OW95281  11.182   7.662  14.315
97836SOL    HW195282  11.250   7.600  14.292
97836SOL    HW295283  11.195   7.736  14.255
97837SOL     OW95284   4.206   5.141   6.618
97837SOL    HW195285   4.201   5.049   6.593
97837SOL    HW295286   4.188   5.142   6.712
97838SOL     OW95287   0.032   7.600  14.635
97838SOL    HW195288   0.008   7.661  14.566
97838SOL    HW295289   0.038   7.515  14.591
97839SOL     OW95290   5.627   6.347   4.880
97839SOL    HW195291   5.696   6.373   4.942
97839SOL    HW295292   5.674   6.300   4.811
97840SOL     OW95293   5.163   6.466  10.528
97840SOL    HW195294   5.071   6.489  10.546
97840SOL    HW295295   5.204   6.461  10.614
97841SOL     OW95296   8.451  10.120   5.873
97841SOL    HW195297   8.379  10.181   5.859
97841SOL    HW295298   8.498  10.156   5.949
97842SOL     OW95299  11.180  11.258  11.786
97842SOL    HW195300  11.173  11.165  11.807
97842SOL    HW295301  11.266  11.284  11.819
97843SOL     OW95302   6.025  10.191   9.613
97843SOL    HW195303   5.940  10.168   9.652
97843SOL    HW295304   6.002  10.243   9.535
97844SOL     OW95305  12.030   8.612   9.932
97844SOL    HW195306  11.953   8.649   9.975
97844SOL    HW295307  12.008   8.614   9.838
97845SOL     OW95308   9.444   7.118   6.108
97845SOL    HW195309   9.467   7.108   6.201
97845SOL    HW295310   9.471   7.207   6.087
97846SOL     OW95311   2.636   0.474  12.665
97846SOL    HW195312   2.648   0.505  12.576
97846SOL    HW295313   2.649   0.552  12.720
97847SOL     OW95314   2.646  11.509   9.096
97847SOL    HW195315   2.575  11.529   9.035
97847SOL    HW295316   2.696  11.591   9.102
97848SOL     OW95317   2.532   3.775   0.123
97848SOL    HW195318   2.595   3.818   0.065
97848SOL    HW295319   2.456   3.758   0.067
97849SOL     OW95320   1.282  14.522   0.047
97849SOL    HW195321   1.263  14.595   0.106
97849SOL    HW295322   1.260  14.555  14.841
97850SOL     OW95323   6.791   8.823   0.836
97850SOL    HW195324   6.800   8.847   0.928
97850SOL    HW295325   6.856   8.876   0.790
97851SOL     OW95326  11.372  13.209   9.507
97851SOL    HW195327  11.279  13.210   9.531
97851SOL    HW295328  11.371  13.212   9.411
97852SOL     OW95329   4.160  13.428   8.481
97852SOL    HW195330   4.159  13.356   8.544
97852SOL    HW295331   4.076  13.422   8.435
97853SOL     OW95332   9.555  11.113  12.898
97853SOL    HW195333   9.541  11.022  12.926
97853SOL    HW295334   9.650  11.124  12.899
97854SOL     OW95335  13.959  11.842   3.992
97854SOL    HW195336  13.925  11.760   3.956
97854SOL    HW295337  14.046  11.852   3.953
97855SOL     OW95338   0.226   0.182  14.625
97855SOL    HW195339   0.276   0.213  14.550
97855SOL    HW295340   0.169   0.256  14.647
97856SOL     OW95341   8.914   8.229   5.066
97856SOL    HW195342   8.927   8.137   5.088
97856SOL    HW295343   8.837   8.256   5.117
97857SOL     OW95344   4.444  11.189   3.230
97857SOL    HW195345   4.433  11.154   3.141
97857SOL    HW295346   4.515  11.253   3.221
97858SOL     OW95347  13.338  12.651   1.755
97858SOL    HW195348  13.351  12.746   1.750
97858SOL    HW295349  13.291  12.629   1.674
97859SOL     OW95350   9.584   4.986   3.913
97859SOL    HW195351   9.660   5.040   3.893
97859SOL    HW295352   9.596   4.962   4.006
97860SOL     OW95353  10.844   2.343   3.096
97860SOL    HW195354  10.761   2.296   3.106
97860SOL    HW295355  10.910   2.274   3.094
97861SOL     OW95356   4.637  12.078   4.074
97861SOL    HW195357   4.690  12.097   4.152
97861SOL    HW295358   4.697  12.095   4.001
97862SOL     OW95359  14.360   6.801   0.539
97862SOL    HW195360  14.270   6.808   0.507
97862SOL    HW295361  14.357   6.840   0.626
97863SOL     OW95362  13.290   7.194  11.417
97863SOL    HW195363  13.243   7.223  11.495
97863SOL    HW295364  13.377   7.231  11.427
97864SOL     OW95365  11.677   9.437  10.245
97864SOL    HW195366  11.634   9.517  10.215
97864SOL    HW295367  11.628   9.411  10.323
97865SOL     OW95368   2.368   3.439   3.155
97865SOL    HW195369   2.309   3.364   3.142
97865SOL    HW295370   2.347   3.472   3.242
97866SOL     OW95371   4.973   7.379   0.743
97866SOL    HW195372   4.911   7.333   0.800
97866SOL    HW295373   4.930   7.462   0.723
97867SOL     OW95374   6.038   7.840  11.696
97867SOL    HW195375   6.013   7.920  11.650
97867SOL    HW295376   6.035   7.864  11.789
97868SOL     OW95377   0.525  14.188   4.391
97868SOL    HW195378   0.554  14.273   4.423
97868SOL    HW295379   0.562  14.125   4.453
97869SOL     OW95380   9.522   5.774   1.908
97869SOL    HW195381   9.533   5.835   1.835
97869SOL    HW295382   9.434   5.740   1.898
97870SOL     OW95383   4.462   7.623   8.671
97870SOL    HW195384   4.445   7.671   8.751
97870SOL    HW295385   4.465   7.690   8.602
97871SOL     OW95386   0.817   6.560   9.579
97871SOL    HW195387   0.732   6.530   9.610
97871SOL    HW295388   0.880   6.501   9.621
97872SOL     OW95389   8.585   0.632   1.215
97872SOL    HW195390   8.681   0.624   1.217
97872SOL    HW295391   8.568   0.702   1.151
97873SOL     OW95392  14.223   6.781  13.977
97873SOL    HW195393  14.149   6.721  13.981
97873SOL    HW295394  14.249   6.780  13.885
97874SOL     OW95395  11.893   4.653   1.832
97874SOL    HW195396  11.895   4.640   1.737
97874SOL    HW295397  11.983   4.679   1.854
97875SOL     OW95398   1.808   5.058  13.045
97875SOL    HW195399   1.808   5.147  13.082
97875SOL    HW295400   1.900   5.041  13.024
97876SOL     OW95401   6.178   5.072   8.585
97876SOL    HW195402   6.096   5.099   8.544
97876SOL    HW295403   6.192   5.135   8.656
97877SOL     OW95404   2.638   3.537  14.825
97877SOL    HW195405   2.646   3.572   0.032
97877SOL    HW295406   2.544   3.518  14.815
97878SOL     OW95407   6.998   3.128   9.795
97878SOL    HW195408   6.909   3.095   9.788
97878SOL    HW295409   7.040   3.099   9.714
97879SOL     OW95410  10.866   9.072  11.622
97879SOL    HW195411  10.817   9.006  11.670
97879SOL    HW295412  10.950   9.032  11.603
97880SOL     OW95413   9.462   6.411   3.651
97880SOL    HW195414   9.476   6.421   3.557
97880SOL    HW295415   9.545   6.378   3.685
97881SOL     OW95416   4.645   9.507   9.750
97881SOL    HW195417   4.709   9.439   9.772
97881SOL    HW295418   4.648   9.511   9.654
97882SOL     OW95419  12.316  10.508  11.699
97882SOL    HW195420  12.313  10.495  11.793
97882SOL    HW295421  12.409  10.521  11.680
97883SOL     OW95422   2.727  12.633   7.182
97883SOL    HW195423   2.748  12.712   7.232
97883SOL    HW295424   2.653  12.594   7.228
97884SOL     OW95425  11.301   4.584  11.058
97884SOL    HW195426  11.249   4.660  11.031
97884SOL    HW295427  11.241   4.533  11.112
97885SOL     OW95428   3.623   7.576   9.092
97885SOL    HW195429   3.616   7.655   9.039
97885SOL    HW295430   3.674   7.603   9.169
97886SOL     OW95431   6.860   6.844   2.269
97886SOL    HW195432   6.809   6.914   2.229
97886SOL    HW295433   6.864   6.776   2.201
97887SOL     OW95434   8.943  13.546  14.325
97887SOL    HW195435   8.974  13.630  14.358
97887SOL    HW295436   8.985  13.481  14.383
97888SOL     OW95437   9.343  13.540   8.043
97888SOL    HW195438   9.384  13.622   8.015
97888SOL    HW295439   9.295  13.564   8.122
97889SOL     OW95440   5.640   0.990  13.515
97889SOL    HW195441   5.583   0.963  13.587
97889SOL    HW295442   5.639   1.086  13.518
97890SOL     OW95443  13.998   6.044   7.539
97890SOL    HW195444  13.923   5.987   7.520
97890SOL    HW295445  14.053   6.038   7.460
97891SOL     OW95446  11.489   6.826   2.658
97891SOL    HW195447  11.488   6.826   2.753
97891SOL    HW295448  11.556   6.762   2.635
97892SOL     OW95449   3.943   2.535   1.467
97892SOL    HW195450   3.867   2.527   1.525
97892SOL    HW295451   3.933   2.621   1.426
97893SOL     OW95452  13.570  10.774   3.976
97893SOL    HW195453  13.590  10.835   4.046
97893SOL    HW295454  13.493  10.726   4.007
97894SOL     OW95455   4.926   3.206   6.408
97894SOL    HW195456   4.904   3.113   6.400
97894SOL    HW295457   4.848   3.245   6.446
97895SOL     OW95458   9.021   6.701   0.727
97895SOL    HW195459   8.968   6.629   0.693
97895SOL    HW295460   9.002   6.702   0.821
97896SOL     OW95461   9.612   0.848   9.811
97896SOL    HW195462   9.704   0.821   9.820
97896SOL    HW295463   9.607   0.932   9.856
97897SOL     OW95464   2.041  12.417  13.293
97897SOL    HW195465   1.993  12.496  13.268
97897SOL    HW295466   1.997  12.346  13.246
97898SOL     OW95467  13.987  10.819   5.172
97898SOL    HW195468  14.011  10.904   5.134
97898SOL    HW295469  13.939  10.841   5.252
97899SOL     OW95470   3.382   6.699   0.458
97899SOL    HW195471   3.347   6.727   0.373
97899SOL    HW295472   3.392   6.779   0.508
97900SOL     OW95473   0.043   6.635   9.733
97900SOL    HW195474  14.863   6.709   9.736
97900SOL    HW295475   0.011   6.580   9.662
97901SOL     OW95476   7.234   7.391   6.304
97901SOL    HW195477   7.190   7.347   6.377
97901SOL    HW295478   7.319   7.418   6.340
97902SOL     OW95479   4.353   9.517   1.413
97902SOL    HW195480   4.302   9.496   1.335
97902SOL    HW295481   4.397   9.436   1.437
97903SOL     OW95482   1.945   9.250   7.247
97903SOL    HW195483   1.973   9.332   7.207
97903SOL    HW295484   1.921   9.194   7.173
97904SOL     OW95485  13.272   7.457  10.807
97904SOL    HW195486  13.187   7.467  10.849
97904SOL    HW295487  13.322   7.401  10.866
97905SOL     OW95488  10.568   2.207   8.440
97905SOL    HW195489  10.513   2.131   8.458
97905SOL    HW295490  10.569   2.256   8.522
97906SOL     OW95491   1.290  13.641   4.363
97906SOL    HW195492   1.275  13.554   4.402
97906SOL    HW295493   1.385  13.647   4.355
97907SOL     OW95494  14.305   8.947  10.327
97907SOL    HW195495  14.283   8.971  10.237
97907SOL    HW295496  14.386   8.896  10.318
97908SOL     OW95497   8.851  13.535  11.321
97908SOL    HW195498   8.883  13.619  11.354
97908SOL    HW295499   8.929  13.481  11.313
97909SOL     OW95500   3.149   3.332  14.186
97909SOL    HW195501   3.191   3.342  14.271
97909SOL    HW295502   3.151   3.420  14.148
97910SOL     OW95503   3.655  14.364   9.242
97910SOL    HW195504   3.620  14.339   9.328
97910SOL    HW295505   3.708  14.441   9.259
97911SOL     OW95506  12.411   6.405   2.373
97911SOL    HW195507  12.393   6.361   2.290
97911SOL    HW295508  12.475   6.348   2.417
97912SOL     OW95509   2.017   5.927  10.311
97912SOL    HW195510   1.978   5.869  10.245
97912SOL    HW295511   1.944   5.980  10.343
97913SOL     OW95512   9.950  12.245   9.038
97913SOL    HW195513   9.957  12.250   8.942
97913SOL    HW295514   9.899  12.322   9.063
97914SOL     OW95515   0.472  10.085   9.061
97914SOL    HW195516   0.523  10.010   9.033
97914SOL    HW295517   0.532  10.159   9.055
97915SOL     OW95518   1.671   3.956   6.594
97915SOL    HW195519   1.578   3.951   6.616
97915SOL    HW295520   1.716   3.918   6.670
97916SOL     OW95521   4.034   0.400   6.023
97916SOL    HW195522   4.021   0.367   5.934
97916SOL    HW295523   3.948   0.433   6.049
97917SOL     OW95524  13.266  14.147   8.318
97917SOL    HW195525  13.340  14.182   8.368
97917SOL    HW295526  13.196  14.211   8.329
97918SOL     OW95527   3.868   8.624  14.266
97918SOL    HW195528   3.818   8.686  14.213
97918SOL    HW295529   3.958   8.632  14.233
97919SOL     OW95530   7.268   6.576   2.016
97919SOL    HW195531   7.254   6.508   1.950
97919SOL    HW295532   7.359   6.565   2.042
97920SOL     OW95533   7.927  13.069  14.806
97920SOL    HW195534   7.888  13.040  14.724
97920SOL    HW295535   8.008  13.114  14.780
97921SOL     OW95536  13.653   4.647  10.868
97921SOL    HW195537  13.714   4.704  10.914
97921SOL    HW295538  13.707   4.578  10.831
97922SOL     OW95539  14.565   9.736   3.955
97922SOL    HW195540  14.550   9.806   3.892
97922SOL    HW295541  14.652   9.702   3.933
97923SOL     OW95542   8.902   2.411  10.569
97923SOL    HW195543   8.851   2.489  10.588
97923SOL    HW295544   8.846   2.358  10.512
97924SOL     OW95545   7.581   5.898   2.716
97924SOL    HW195546   7.569   5.983   2.674
97924SOL    HW295547   7.511   5.893   2.781
97925SOL     OW95548   3.127  14.462   9.832
97925SOL    HW195549   3.195  14.395   9.839
97925SOL    HW295550   3.139  14.499   9.744
97926SOL     OW95551   4.733   3.068  13.630
97926SOL    HW195552   4.688   3.020  13.561
97926SOL    HW295553   4.826   3.060  13.608
97927SOL     OW95554   3.489   3.278   0.602
97927SOL    HW195555   3.505   3.330   0.522
97927SOL    HW295556   3.433   3.333   0.656
97928SOL     OW95557   5.300  10.055  13.030
97928SOL    HW195558   5.380  10.054  12.978
97928SOL    HW295559   5.309  10.131  13.087
97929SOL     OW95560   5.142   6.032  14.520
97929SOL    HW195561   5.200   5.956  14.526
97929SOL    HW295562   5.196   6.106  14.548
97930SOL     OW95563  13.426  13.839   9.452
97930SOL    HW195564  13.466  13.899   9.516
97930SOL    HW295565  13.415  13.757   9.499
97931SOL     OW95566  14.754   1.549   0.326
97931SOL    HW195567  14.803   1.521   0.249
97931SOL    HW295568  14.822   1.564   0.392
97932SOL     OW95569   4.777  12.139   0.656
97932SOL    HW195570   4.862  12.097   0.648
97932SOL    HW295571   4.765  12.185   0.573
97933SOL     OW95572  11.334   0.836   2.755
97933SOL    HW195573  11.347   0.930   2.762
97933SOL    HW295574  11.311   0.808   2.844
97934SOL     OW95575  11.989   5.273   6.006
97934SOL    HW195576  12.027   5.185   6.012
97934SOL    HW295577  11.970   5.285   5.913
97935SOL     OW95578  14.743  11.667   9.640
97935SOL    HW195579  14.821  11.691   9.590
97935SOL    HW295580  14.733  11.736   9.705
97936SOL     OW95581   5.461   2.031   2.647
97936SOL    HW195582   5.392   2.047   2.711
97936SOL    HW295583   5.523   2.102   2.661
97937SOL     OW95584  12.714   0.245  13.836
97937SOL    HW195585  12.700   0.165  13.785
97937SOL    HW295586  12.691   0.222  13.926
97938SOL     OW95587  14.514   7.364   6.156
97938SOL    HW195588  14.430   7.381   6.113
97938SOL    HW295589  14.522   7.269   6.158
97939SOL     OW95590   7.404   3.711  14.058
97939SOL    HW195591   7.463   3.777  14.093
97939SOL    HW295592   7.459   3.633  14.047
97940SOL     OW95593  12.199   4.657   2.222
97940SOL    HW195594  12.145   4.622   2.151
97940SOL    HW295595  12.205   4.586   2.286
97941SOL     OW95596  10.081   1.121  10.059
97941SOL    HW195597  10.125   1.157   9.982
97941SOL    HW295598   9.993   1.158  10.056
97942SOL     OW95599   5.957  13.287  10.968
97942SOL    HW195600   5.879  13.279  11.023
97942SOL    HW295601   5.924  13.298  10.879
97943SOL     OW95602  12.420  10.646   2.961
97943SOL    HW195603  12.413  10.655   2.866
97943SOL    HW295604  12.507  10.680   2.982
97944SOL     OW95605   5.934   5.053   6.490
97944SOL    HW195606   5.850   5.097   6.504
97944SOL    HW295607   5.950   5.006   6.572
97945SOL     OW95608   1.317   2.032  14.337
97945SOL    HW195609   1.235   2.060  14.297
97945SOL    HW295610   1.293   2.009  14.427
97946SOL     OW95611   5.282   0.512   0.443
97946SOL    HW195612   5.220   0.479   0.378
97946SOL    HW295613   5.341   0.568   0.392
97947SOL     OW95614   8.911   2.723   2.288
97947SOL    HW195615   8.911   2.719   2.193
97947SOL    HW295616   8.943   2.638   2.316
97948SOL     OW95617  11.550   7.132   2.151
97948SOL    HW195618  11.621   7.162   2.208
97948SOL    HW295619  11.470   7.156   2.196
97949SOL     OW95620   3.189   4.601   2.463
97949SOL    HW195621   3.139   4.619   2.542
97949SOL    HW295622   3.280   4.594   2.493
97950SOL     OW95623   1.553  13.962   8.739
97950SOL    HW195624   1.479  13.963   8.801
97950SOL    HW295625   1.530  14.028   8.673
97951SOL     OW95626   6.196   9.917   5.449
97951SOL    HW195627   6.266   9.971   5.485
97951SOL    HW295628   6.199   9.933   5.355
97952SOL     OW95629   0.936  11.457   9.245
97952SOL    HW195630   0.963  11.479   9.334
97952SOL    HW295631   0.975  11.371   9.228
97953SOL     OW95632  10.471   2.639  12.963
97953SOL    HW195633  10.384   2.646  12.924
97953SOL    HW295634  10.526   2.603  12.894
97954SOL     OW95635   4.985   4.767   6.411
97954SOL    HW195636   5.045   4.788   6.482
97954SOL    HW295637   4.903   4.810   6.434
97955SOL     OW95638  11.167  13.775   9.748
97955SOL    HW195639  11.174  13.870   9.743
97955SOL    HW295640  11.248  13.746   9.790
97956SOL     OW95641   7.773   0.129  12.155
97956SOL    HW195642   7.828   0.108  12.230
97956SOL    HW295643   7.793   0.062  12.090
97957SOL     OW95644  13.408  14.584   5.009
97957SOL    HW195645  13.423  14.676   5.032
97957SOL    HW295646  13.462  14.535   5.071
97958SOL     OW95647   8.385   3.336   1.602
97958SOL    HW195648   8.405   3.336   1.695
97958SOL    HW295649   8.289   3.336   1.598
97959SOL     OW95650  14.369   7.006  13.449
97959SOL    HW195651  14.437   6.989  13.515
97959SOL    HW295652  14.418   7.040  13.374
97960SOL     OW95653   1.750  14.850  14.234
97960SOL    HW195654   1.782  14.776  14.183
97960SOL    HW295655   1.810   0.040  14.213
97961SOL     OW95656  12.750  14.824   3.804
97961SOL    HW195657  12.677  14.871   3.764
97961SOL    HW295658  12.752  14.740   3.758
97962SOL     OW95659   1.083   6.139   1.367
97962SOL    HW195660   1.178   6.138   1.359
97962SOL    HW295661   1.062   6.061   1.418
97963SOL     OW95662   7.753  10.211  14.082
97963SOL    HW195663   7.714  10.135  14.126
97963SOL    HW295664   7.832  10.176  14.041
97964SOL     OW95665   5.016   5.587  13.889
97964SOL    HW195666   5.072   5.649  13.936
97964SOL    HW295667   4.937   5.580  13.944
97965SOL     OW95668  14.711   0.521   3.130
97965SOL    HW195669  14.706   0.514   3.034
97965SOL    HW295670  14.737   0.611   3.146
97966SOL     OW95671   1.890  12.172  12.588
97966SOL    HW195672   1.962  12.165  12.525
97966SOL    HW295673   1.817  12.208  12.537
97967SOL     OW95674   9.720   3.623   5.632
97967SOL    HW195675   9.736   3.545   5.580
97967SOL    HW295676   9.807   3.654   5.657
97968SOL     OW95677  14.097  12.958  10.284
97968SOL    HW195678  14.134  12.968  10.197
97968SOL    HW295679  14.095  13.046  10.321
97969SOL     OW95680  12.863   0.958  10.273
97969SOL    HW195681  12.841   0.932  10.363
97969SOL    HW295682  12.858   1.053  10.274
97970SOL     OW95683   3.463  10.717   4.292
97970SOL    HW195684   3.532  10.695   4.354
97970SOL    HW295685   3.454  10.639   4.237
97971SOL     OW95686   5.624   2.898  14.583
97971SOL    HW195687   5.679   2.912  14.506
97971SOL    HW295688   5.681   2.854  14.646
97972SOL     OW95689   9.615   3.417   9.812
97972SOL    HW195690   9.681   3.439   9.878
97972SOL    HW295691   9.537   3.465   9.839
97973SOL     OW95692  14.745   3.998  11.343
97973SOL    HW195693  14.680   3.967  11.281
97973SOL    HW295694  14.786   3.919  11.377
97974SOL     OW95695  12.558   2.269  14.480
97974SOL    HW195696  12.488   2.308  14.428
97974SOL    HW295697  12.630   2.257  14.418
97975SOL     OW95698   3.833   9.828   2.372
97975SOL    HW195699   3.748   9.835   2.416
97975SOL    HW295700   3.855   9.735   2.376
97976SOL     OW95701   9.927   9.396   2.353
97976SOL    HW195702   9.874   9.320   2.329
97976SOL    HW295703   9.913   9.406   2.447
97977SOL     OW95704   3.070   3.531  12.787
97977SOL    HW195705   3.148   3.586  12.772
97977SOL    HW295706   2.999   3.578  12.743
97978SOL     OW95707  12.821   9.707   6.724
97978SOL    HW195708  12.898   9.752   6.760
97978SOL    HW295709  12.753   9.720   6.790
97979SOL     OW95710   8.568   1.991   8.804
97979SOL    HW195711   8.645   1.963   8.754
97979SOL    HW295712   8.593   1.981   8.895
97980SOL     OW95713   7.194  12.031   8.124
97980SOL    HW195714   7.163  12.100   8.066
97980SOL    HW295715   7.172  12.062   8.212
97981SOL     OW95716   1.170   1.896   2.872
97981SOL    HW195717   1.169   1.984   2.834
97981SOL    HW295718   1.119   1.904   2.953
97982SOL     OW95719   1.365   9.575   8.914
97982SOL    HW195720   1.362   9.526   8.996
97982SOL    HW295721   1.288   9.546   8.866
97983SOL     OW95722  14.232   1.030   5.627
97983SOL    HW195723  14.255   0.942   5.659
97983SOL    HW295724  14.188   1.014   5.544
97984SOL     OW95725  13.543  10.773   9.262
97984SOL    HW195726  13.530  10.686   9.223
97984SOL    HW295727  13.621  10.807   9.218
97985SOL     OW95728   7.895   1.314   5.936
97985SOL    HW195729   7.957   1.355   5.997
97985SOL    HW295730   7.946   1.247   5.891
97986SOL     OW95731   3.858   3.821   4.084
97986SOL    HW195732   3.818   3.764   4.018
97986SOL    HW295733   3.828   3.909   4.062
97987SOL     OW95734  12.021   9.338   8.891
97987SOL    HW195735  12.117   9.332   8.897
97987SOL    HW295736  12.006   9.404   8.823
97988SOL     OW95737   8.535  14.425  13.400
97988SOL    HW195738   8.519  14.502  13.455
97988SOL    HW295739   8.487  14.355  13.442
97989SOL     OW95740   6.142   0.264   2.983
97989SOL    HW195741   6.080   0.241   3.052
97989SOL    HW295742   6.164   0.356   3.000
97990SOL     OW95743   0.795   7.722  10.651
97990SOL    HW195744   0.875   7.691  10.693
97990SOL    HW295745   0.825   7.764  10.571
97991SOL     OW95746   5.250  12.390   1.392
97991SOL    HW195747   5.305  12.467   1.381
97991SOL    HW295748   5.186  12.395   1.321
97992SOL     OW95749   4.023   3.704  14.098
97992SOL    HW195750   4.076   3.645  14.044
97992SOL    HW295751   3.980   3.646  14.161
97993SOL     OW95752   6.137   4.800   4.818
97993SOL    HW195753   6.166   4.831   4.904
97993SOL    HW295754   6.201   4.836   4.757
97994SOL     OW95755   5.679   8.881   3.161
97994SOL    HW195756   5.692   8.866   3.067
97994SOL    HW295757   5.642   8.969   3.166
97995SOL     OW95758   6.433   7.477   7.353
97995SOL    HW195759   6.448   7.397   7.403
97995SOL    HW295760   6.348   7.509   7.383
97996SOL     OW95761  14.339   1.671   3.090
97996SOL    HW195762  14.319   1.691   3.182
97996SOL    HW295763  14.434   1.670   3.086
97997SOL     OW95764  10.743   6.886   1.196
97997SOL    HW195765  10.724   6.946   1.124
97997SOL    HW295766  10.658   6.863   1.233
97998SOL     OW95767  12.074   2.984  12.704
97998SOL    HW195768  12.152   2.945  12.744
97998SOL    HW295769  12.009   2.985  12.775
97999SOL     OW95770   1.969   4.552   4.754
97999SOL    HW195771   1.911   4.609   4.806
97999SOL    HW295772   2.049   4.602   4.744
98000SOL     OW95773  11.105   9.537   4.103
98000SOL    HW195774  11.088   9.498   4.189
98000SOL    HW295775  11.018   9.552   4.066
98001SOL     OW95776  13.081  11.883   0.327
98001SOL    HW195777  13.149  11.946   0.305
98001SOL    HW295778  13.128  11.803   0.350
98002SOL     OW95779   6.142   0.253   3.970
98002SOL    HW195780   6.203   0.314   4.013
98002SOL    HW295781   6.194   0.212   3.901
98003SOL     OW95782   4.652   3.792   5.065
98003SOL    HW195783   4.563   3.818   5.089
98003SOL    HW295784   4.640   3.717   5.006
98004SOL     OW95785  12.284  12.601   5.062
98004SOL    HW195786  12.301  12.689   5.097
98004SOL    HW295787  12.345  12.544   5.108
98005SOL     OW95788   7.057   1.712   1.005
98005SOL    HW195789   7.141   1.726   1.048
98005SOL    HW295790   7.048   1.785   0.945
98006SOL     OW95791   0.891   3.364   5.925
98006SOL    HW195792   0.839   3.303   5.978
98006SOL    HW295793   0.975   3.370   5.971
98007SOL     OW95794   4.523   0.105  11.691
98007SOL    HW195795   4.445   0.132  11.739
98007SOL    HW295796   4.490   0.066  11.610
98008SOL     OW95797   1.559   5.488   6.886
98008SOL    HW195798   1.558   5.505   6.792
98008SOL    HW295799   1.645   5.447   6.901
98009SOL     OW95800   9.067   7.764   0.271
98009SOL    HW195801   9.105   7.851   0.272
98009SOL    HW295802   9.082   7.730   0.359
98010SOL     OW95803   3.073  12.930  13.208
98010SOL    HW195804   3.066  13.010  13.259
98010SOL    HW295805   3.164  12.930  13.176
98011SOL     OW95806   5.819  12.699   4.654
98011SOL    HW195807   5.826  12.791   4.679
98011SOL    HW295808   5.818  12.651   4.737
98012SOL     OW95809  13.167  10.713   2.884
98012SOL    HW195810  13.213  10.671   2.811
98012SOL    HW295811  13.233  10.772   2.923
98013SOL     OW95812   2.398   2.631   5.227
98013SOL    HW195813   2.406   2.545   5.267
98013SOL    HW295814   2.448   2.624   5.145
98014SOL     OW95815   7.255  13.114  14.399
98014SOL    HW195816   7.198  13.136  14.325
98014SOL    HW295817   7.342  13.105  14.360
98015SOL     OW95818  11.413  14.729   5.564
98015SOL    HW195819  11.448  14.805   5.610
98015SOL    HW295820  11.477  14.660   5.580
98016SOL     OW95821  11.461  12.904   6.352
98016SOL    HW195822  11.487  12.833   6.410
98016SOL    HW295823  11.448  12.979   6.411
98017SOL     OW95824  13.542  14.707   1.269
98017SOL    HW195825  13.597  14.709   1.348
98017SOL    HW295826  13.566  14.625   1.225
98018SOL     OW95827  14.531   7.086   6.110
98018SOL    HW195828  14.524   7.049   6.022
98018SOL    HW295829  14.461   7.043   6.160
98019SOL     OW95830   6.214  11.358   7.756
98019SOL    HW195831   6.152  11.331   7.688
98019SOL    HW295832   6.299  11.330   7.723
98020SOL     OW95833   4.224   1.702   1.378
98020SOL    HW195834   4.202   1.610   1.364
98020SOL    HW295835   4.172   1.749   1.312
98021SOL     OW95836   8.347   4.806   7.523
98021SOL    HW195837   8.382   4.799   7.435
98021SOL    HW295838   8.409   4.756   7.577
98022SOL     OW95839  13.171   2.926   5.037
98022SOL    HW195840  13.262   2.901   5.026
98022SOL    HW295841  13.139   2.940   4.948
98023SOL     OW95842   3.161   0.100  11.088
98023SOL    HW195843   3.173   0.192  11.111
98023SOL    HW295844   3.140   0.057  11.171
98024SOL     OW95845   1.180  10.248  11.120
98024SOL    HW195846   1.142  10.161  11.109
98024SOL    HW295847   1.225  10.245  11.205
98025SOL     OW95848   0.278   1.186  11.443
98025SOL    HW195849   0.185   1.165  11.452
98025SOL    HW295850   0.319   1.102  11.422
98026SOL     OW95851   4.477   2.553  10.730
98026SOL    HW195852   4.509   2.619  10.792
98026SOL    HW295853   4.410   2.505  10.779
98027SOL     OW95854  14.714   4.677  13.463
98027SOL    HW195855  14.686   4.661  13.553
98027SOL    HW295856  14.806   4.699  13.470
98028SOL     OW95857   3.464  12.956   8.429
98028SOL    HW195858   3.379  12.940   8.388
98028SOL    HW295859   3.444  13.008   8.507
98029SOL     OW95860   4.964   0.598  14.495
98029SOL    HW195861   4.994   0.566  14.581
98029SOL    HW295862   5.045   0.623  14.449
98030SOL     OW95863  12.663   3.834   9.861
98030SOL    HW195864  12.715   3.913   9.843
98030SOL    HW295865  12.720   3.780   9.916
98031SOL     OW95866   4.294   9.354  10.784
98031SOL    HW195867   4.340   9.321  10.706
98031SOL    HW295868   4.293   9.279  10.844
98032SOL     OW95869   7.145   4.158   7.941
98032SOL    HW195870   7.088   4.122   8.009
98032SOL    HW295871   7.233   4.147   7.976
98033SOL     OW95872   0.251  12.414   8.947
98033SOL    HW195873   0.224  12.325   8.926
98033SOL    HW295874   0.277  12.452   8.863
98034SOL     OW95875   7.234   8.787   2.839
98034SOL    HW195876   7.174   8.733   2.892
98034SOL    HW295877   7.192   8.791   2.753
98035SOL     OW95878   4.421   3.380   8.355
98035SOL    HW195879   4.335   3.338   8.349
98035SOL    HW295880   4.422   3.420   8.442
98036SOL     OW95881  14.078   0.487   3.968
98036SOL    HW195882  14.071   0.412   3.909
98036SOL    HW295883  14.172   0.496   3.985
98037SOL     OW95884   3.612   9.815   6.708
98037SOL    HW195885   3.650   9.727   6.716
98037SOL    HW295886   3.518   9.799   6.701
98038SOL     OW95887   6.760  12.167   3.171
98038SOL    HW195888   6.713  12.173   3.254
98038SOL    HW295889   6.756  12.075   3.147
98039SOL     OW95890  13.034  12.450   4.158
98039SOL    HW195891  13.095  12.387   4.197
98039SOL    HW295892  13.027  12.424   4.066
98040SOL     OW95893   4.719  14.493  12.160
98040SOL    HW195894   4.742  14.404  12.189
98040SOL    HW295895   4.667  14.529  12.232
98041SOL     OW95896   2.545  14.216   7.960
98041SOL    HW195897   2.490  14.138   7.946
98041SOL    HW295898   2.630  14.191   7.925
98042SOL     OW95899  10.162  12.428   1.898
98042SOL    HW195900  10.105  12.419   1.974
98042SOL    HW295901  10.101  12.426   1.823
98043SOL     OW95902   6.134   8.376   8.568
98043SOL    HW195903   6.082   8.296   8.563
98043SOL    HW295904   6.134   8.398   8.661
98044SOL     OW95905  14.087   9.812  12.517
98044SOL    HW195906  14.117   9.895  12.480
98044SOL    HW295907  13.998   9.829  12.547
98045SOL     OW95908   6.029   4.051  12.025
98045SOL    HW195909   6.108   3.996  12.025
98045SOL    HW295910   5.969   4.006  11.965
98046SOL     OW95911   3.116   0.810   4.487
98046SOL    HW195912   3.034   0.859   4.496
98046SOL    HW295913   3.145   0.795   4.577
98047SOL     OW95914  12.150   3.598  10.410
98047SOL    HW195915  12.107   3.542  10.475
98047SOL    HW295916  12.229   3.550  10.385
98048SOL     OW95917   9.243   1.388   6.161
98048SOL    HW195918   9.328   1.388   6.117
98048SOL    HW295919   9.238   1.474   6.203
98049SOL     OW95920   4.715   8.135   3.270
98049SOL    HW195921   4.750   8.204   3.327
98049SOL    HW295922   4.759   8.150   3.186
98050SOL     OW95923   5.946   5.260  14.653
98050SOL    HW195924   5.965   5.286  14.562
98050SOL    HW295925   5.859   5.219  14.648
98051SOL     OW95926  14.761   6.548   7.956
98051SOL    HW195927  14.745   6.459   7.985
98051SOL    HW295928  14.811   6.539   7.875
98052SOL     OW95929   0.783   1.871  10.870
98052SOL    HW195930   0.840   1.910  10.936
98052SOL    HW295931   0.801   1.777  10.875
98053SOL     OW95932  13.804   0.627   1.215
98053SOL    HW195933  13.753   0.579   1.280
98053SOL    HW295934  13.837   0.703   1.262
98054SOL     OW95935  14.867  10.530   7.616
98054SOL    HW195936   0.054  10.463   7.620
98054SOL    HW295937  14.838  10.540   7.707
98055SOL     OW95938  10.746   6.566   0.802
98055SOL    HW195939  10.667   6.607   0.766
98055SOL    HW295940  10.754   6.483   0.755
98056SOL     OW95941   0.623  13.533   1.599
98056SOL    HW195942   0.651  13.445   1.573
98056SOL    HW295943   0.569  13.520   1.676
98057SOL     OW95944  10.860   0.365  11.720
98057SOL    HW195945  10.777   0.405  11.696
98057SOL    HW295946  10.907   0.433  11.769
98058SOL     OW95947   8.363  14.250   9.108
98058SOL    HW195948   8.451  14.289   9.110
98058SOL    HW295949   8.372  14.169   9.158
98059SOL     OW95950  14.279  13.827  10.374
98059SOL    HW195951  14.209  13.785  10.425
98059SOL    HW295952  14.358  13.812  10.426
98060SOL     OW95953  12.070   7.233   9.165
98060SOL    HW195954  12.076   7.292   9.240
98060SOL    HW295955  12.130   7.270   9.100
98061SOL     OW95956   0.575  13.992  11.819
98061SOL    HW195957   0.505  14.047  11.784
98061SOL    HW295958   0.616  13.953  11.742
98062SOL     OW95959   0.395   0.063   4.432
98062SOL    HW195960   0.322   0.000   4.428
98062SOL    HW295961   0.445   0.037   4.509
98063SOL     OW95962   7.673  13.642   1.227
98063SOL    HW195963   7.652  13.703   1.157
98063SOL    HW295964   7.638  13.558   1.197
98064SOL     OW95965   6.267   2.619   7.779
98064SOL    HW195966   6.281   2.553   7.847
98064SOL    HW295967   6.353   2.660   7.768
98065SOL     OW95968   6.308   5.090   5.762
98065SOL    HW195969   6.298   5.095   5.857
98065SOL    HW295970   6.219   5.075   5.730
98066SOL     OW95971   5.214   1.084  14.616
98066SOL    HW195972   5.222   1.062  14.523
98066SOL    HW295973   5.141   1.031  14.647
98067SOL     OW95974  10.810   6.280  14.750
98067SOL    HW195975  10.746   6.216  14.717
98067SOL    HW295976  10.884   6.274  14.688
98068SOL     OW95977   1.237   2.944   1.287
98068SOL    HW195978   1.237   2.866   1.231
98068SOL    HW295979   1.304   2.926   1.352
98069SOL     OW95980  11.224  11.500   9.436
98069SOL    HW195981  11.137  11.508   9.398
98069SOL    HW295982  11.279  11.467   9.364
98070SOL     OW95983   9.647  11.724   1.705
98070SOL    HW195984   9.588  11.723   1.630
98070SOL    HW295985   9.650  11.816   1.731
98071SOL     OW95986  10.481  12.964  13.301
98071SOL    HW195987  10.430  12.884  13.313
98071SOL    HW295988  10.434  13.012  13.233
98072SOL     OW95989   4.448   5.767   3.565
98072SOL    HW195990   4.420   5.727   3.482
98072SOL    HW295991   4.373   5.822   3.591
98073SOL     OW95992   7.923   4.432  11.847
98073SOL    HW195993   7.879   4.382  11.778
98073SOL    HW295994   7.952   4.512  11.803
98074SOL     OW95995   8.215  13.192   4.835
98074SOL    HW195996   8.232  13.275   4.791
98074SOL    HW295997   8.195  13.216   4.925
98075SOL     OW95998   4.112  10.366   2.597
98075SOL    HW195999   4.176  10.389   2.530
98075SOL    HW296000   4.078  10.450   2.628
98076SOL     OW96001   1.152   3.746  12.051
98076SOL    HW196002   1.143   3.841  12.038
98076SOL    HW296003   1.245   3.729  12.035
98077SOL     OW96004   4.833   0.917   8.725
98077SOL    HW196005   4.862   0.876   8.643
98077SOL    HW296006   4.758   0.971   8.700
98078SOL     OW96007   4.811   8.786   5.167
98078SOL    HW196008   4.728   8.741   5.150
98078SOL    HW296009   4.793   8.843   5.241
98079SOL     OW96010   1.429   0.787  11.251
98079SOL    HW196011   1.504   0.815  11.304
98079SOL    HW296012   1.468   0.739  11.178
98080SOL     OW96013   5.448  12.948   4.480
98080SOL    HW196014   5.482  13.037   4.470
98080SOL    HW296015   5.394  12.951   4.559
98081SOL     OW96016  10.998   6.982  12.540
98081SOL    HW196017  10.931   6.937  12.591
98081SOL    HW296018  11.068   6.999  12.602
98082SOL     OW96019   1.773  14.477   9.019
98082SOL    HW196020   1.720  14.474   8.940
98082SOL    HW296021   1.711  14.492   9.090
98083SOL     OW96022  11.510   5.736   8.727
98083SOL    HW196023  11.580   5.715   8.666
98083SOL    HW296024  11.509   5.832   8.731
98084SOL     OW96025   9.978   7.717   3.824
98084SOL    HW196026   9.935   7.764   3.896
98084SOL    HW296027  10.048   7.776   3.796
98085SOL     OW96028  13.834   3.490   5.425
98085SOL    HW196029  13.751   3.516   5.464
98085SOL    HW296030  13.812   3.417   5.368
98086SOL     OW96031   5.153   7.050   1.764
98086SOL    HW196032   5.083   7.090   1.816
98086SOL    HW296033   5.119   7.050   1.675
98087SOL     OW96034  10.581   8.161   1.238
98087SOL    HW196035  10.601   8.084   1.292
98087SOL    HW296036  10.664   8.206   1.228
98088SOL     OW96037  11.481   5.890   5.563
98088SOL    HW196038  11.489   5.795   5.575
98088SOL    HW296039  11.428   5.900   5.483
98089SOL     OW96040   0.835   2.696   5.985
98089SOL    HW196041   0.883   2.730   5.909
98089SOL    HW296042   0.750   2.669   5.950
98090SOL     OW96043   3.747  10.191   6.090
98090SOL    HW196044   3.781  10.239   6.015
98090SOL    HW296045   3.662  10.157   6.060
98091SOL     OW96046   9.584   1.932   4.639
98091SOL    HW196047   9.510   1.968   4.688
98091SOL    HW296048   9.544   1.891   4.562
98092SOL     OW96049   3.655  13.505  13.419
98092SOL    HW196050   3.720  13.553  13.470
98092SOL    HW296051   3.574  13.554  13.431
98093SOL     OW96052  10.821  13.544   2.873
98093SOL    HW196053  10.758  13.585   2.814
98093SOL    HW296054  10.792  13.567   2.961
98094SOL     OW96055   2.869   2.238   2.112
98094SOL    HW196056   2.948   2.292   2.107
98094SOL    HW296057   2.881   2.172   2.044
98095SOL     OW96058   2.415   8.423   2.960
98095SOL    HW196059   2.453   8.359   3.019
98095SOL    HW296060   2.458   8.505   2.982
98096SOL     OW96061   0.379   7.991   5.276
98096SOL    HW196062   0.412   7.905   5.247
98096SOL    HW296063   0.381   8.045   5.198
98097SOL     OW96064   9.261   1.958  14.190
98097SOL    HW196065   9.194   1.932  14.127
98097SOL    HW296066   9.314   1.879  14.202
98098SOL     OW96067   3.520   7.784   1.386
98098SOL    HW196068   3.469   7.745   1.315
98098SOL    HW296069   3.597   7.727   1.394
98099SOL     OW96070   9.263   3.364  13.869
98099SOL    HW196071   9.286   3.298  13.803
98099SOL    HW296072   9.347   3.405  13.891
98100SOL     OW96073   7.074   8.019   2.376
98100SOL    HW196074   7.038   8.054   2.457
98100SOL    HW296075   7.168   8.034   2.383
98101SOL     OW96076   7.311   2.013   8.341
98101SOL    HW196077   7.370   2.057   8.402
98101SOL    HW296078   7.369   1.976   8.274
98102SOL     OW96079  11.675   7.549   0.591
98102SOL    HW196080  11.595   7.510   0.556
98102SOL    HW296081  11.673   7.528   0.684
98103SOL     OW96082   3.718   5.465   2.224
98103SOL    HW196083   3.707   5.446   2.317
98103SOL    HW296084   3.808   5.497   2.217
98104SOL     OW96085  12.876   9.691  13.362
98104SOL    HW196086  12.911   9.648  13.440
98104SOL    HW296087  12.948   9.688  13.299
98105SOL     OW96088   3.844   9.324  11.362
98105SOL    HW196089   3.781   9.332  11.434
98105SOL    HW296090   3.924   9.293  11.403
98106SOL     OW96091  13.192   9.052   0.386
98106SOL    HW196092  13.230   9.117   0.327
98106SOL    HW296093  13.151   8.988   0.327
98107SOL     OW96094  12.138   9.321  12.185
98107SOL    HW196095  12.113   9.258  12.253
98107SOL    HW296096  12.077   9.394  12.196
98108SOL     OW96097  14.469  10.021   1.129
98108SOL    HW196098  14.496   9.976   1.210
98108SOL    HW296099  14.374  10.022   1.133
98109SOL     OW96100   4.091  13.194   8.901
98109SOL    HW196101   4.076  13.192   8.995
98109SOL    HW296102   4.036  13.124   8.866
98110SOL     OW96103   1.876  10.942   2.874
98110SOL    HW196104   1.856  11.034   2.893
98110SOL    HW296105   1.956  10.925   2.925
98111SOL     OW96106   4.809   2.401   3.850
98111SOL    HW196107   4.738   2.450   3.892
98111SOL    HW296108   4.889   2.444   3.879
98112SOL     OW96109  10.226   1.214   9.446
98112SOL    HW196110  10.283   1.213   9.522
98112SOL    HW296111  10.202   1.306   9.435
98113SOL     OW96112  14.132   9.936   7.839
98113SOL    HW196113  14.164   9.888   7.915
98113SOL    HW296114  14.136  10.028   7.865
98114SOL     OW96115  12.824   3.780   7.437
98114SOL    HW196116  12.781   3.780   7.352
98114SOL    HW296117  12.918   3.780   7.417
98115SOL     OW96118   9.223   6.972  11.018
98115SOL    HW196119   9.313   6.973  11.049
98115SOL    HW296120   9.186   7.054  11.051
98116SOL     OW96121  10.711   3.058  10.496
98116SOL    HW196122  10.803   3.077  10.512
98116SOL    HW296123  10.707   3.035  10.403
98117SOL     OW96124   9.624  10.841  13.289
98117SOL    HW196125   9.681  10.786  13.235
98117SOL    HW296126   9.672  10.852  13.370
98118SOL     OW96127   3.677  11.933   9.492
98118SOL    HW196128   3.617  11.922   9.566
98118SOL    HW296129   3.619  11.941   9.416
98119SOL     OW96130   9.756   7.026   7.651
98119SOL    HW196131   9.768   7.030   7.746
98119SOL    HW296132   9.817   6.958   7.622
98120SOL     OW96133  10.702   2.659  14.864
98120SOL    HW196134  10.652   2.581  14.845
98120SOL    HW296135  10.649   2.731  14.830
98121SOL     OW96136   0.230  13.311   3.001
98121SOL    HW196137   0.227  13.383   3.064
98121SOL    HW296138   0.312  13.323   2.953
98122SOL     OW96139  14.211  14.458   5.107
98122SOL    HW196140  14.203  14.473   5.201
98122SOL    HW296141  14.303  14.474   5.088
98123SOL     OW96142   8.508   4.143  14.651
98123SOL    HW196143   8.515   4.184  14.564
98123SOL    HW296144   8.415   4.122  14.660
98124SOL     OW96145   6.590   3.908   9.849
98124SOL    HW196146   6.652   3.931   9.918
98124SOL    HW296147   6.560   3.820   9.872
98125SOL     OW96148   6.032   9.543   6.275
98125SOL    HW196149   5.998   9.465   6.317
98125SOL    HW296150   6.042   9.518   6.183
98126SOL     OW96151   7.561   7.500   8.065
98126SOL    HW196152   7.577   7.594   8.066
98126SOL    HW296153   7.518   7.482   8.148
98127SOL     OW96154   0.315   3.753   8.893
98127SOL    HW196155   0.330   3.847   8.883
98127SOL    HW296156   0.340   3.734   8.983
98128SOL     OW96157   5.818   9.915   4.752
98128SOL    HW196158   5.786   9.839   4.801
98128SOL    HW296159   5.850   9.975   4.819
98129SOL     OW96160  12.437  13.162   4.899
98129SOL    HW196161  12.505  13.119   4.950
98129SOL    HW296162  12.482  13.233   4.852
98130SOL     OW96163   9.038  12.391   3.366
98130SOL    HW196164   9.036  12.328   3.294
98130SOL    HW296165   8.946  12.416   3.378
98131SOL     OW96166   7.168   0.087   0.090
98131SOL    HW196167   7.184   0.134   0.008
98131SOL    HW296168   7.252   0.090   0.136
98132SOL     OW96169   5.075   4.896   6.790
98132SOL    HW196170   5.001   4.957   6.781
98132SOL    HW296171   5.034   4.812   6.813
98133SOL     OW96172   0.473   7.020   5.564
98133SOL    HW196173   0.464   7.014   5.469
98133SOL    HW296174   0.389   6.990   5.599
98134SOL     OW96175   2.413   0.783   1.791
98134SOL    HW196176   2.330   0.767   1.746
98134SOL    HW296177   2.457   0.848   1.737
98135SOL     OW96178  14.752   4.884   4.297
98135SOL    HW196179  14.770   4.853   4.386
98135SOL    HW296180  14.657   4.881   4.289
98136SOL     OW96181   5.131   3.613   6.185
98136SOL    HW196182   5.059   3.551   6.193
98136SOL    HW296183   5.189   3.592   6.259
98137SOL     OW96184  12.781   7.241   8.839
98137SOL    HW196185  12.732   7.181   8.896
98137SOL    HW296186  12.870   7.205   8.839
98138SOL     OW96187   8.394   5.422  12.877
98138SOL    HW196188   8.332   5.368  12.828
98138SOL    HW296189   8.429   5.484  12.813
98139SOL     OW96190   6.346   0.841   8.611
98139SOL    HW196191   6.410   0.771   8.623
98139SOL    HW296192   6.343   0.855   8.517
98140SOL     OW96193  10.303   8.578   4.367
98140SOL    HW196194  10.208   8.575   4.379
98140SOL    HW296195  10.320   8.517   4.294
98141SOL     OW96196   1.204   6.921   4.372
98141SOL    HW196197   1.251   6.845   4.407
98141SOL    HW296198   1.118   6.887   4.348
98142SOL     OW96199   8.806   9.742   9.837
98142SOL    HW196200   8.741   9.813   9.837
98142SOL    HW296201   8.783   9.689   9.914
98143SOL     OW96202   6.674   4.013   0.028
98143SOL    HW196203   6.760   3.980   0.004
98143SOL    HW296204   6.613   3.972  14.848
98144SOL     OW96205   4.667   5.734  12.505
98144SOL    HW196206   4.690   5.818  12.544
98144SOL    HW296207   4.649   5.754  12.413
98145SOL     OW96208   5.272  13.771   9.005
98145SOL    HW196209   5.189  13.782   8.958
98145SOL    HW296210   5.314  13.696   8.962
98146SOL     OW96211   7.524  14.338  10.957
98146SOL    HW196212   7.473  14.322  11.036
98146SOL    HW296213   7.480  14.411  10.914
98147SOL     OW96214  12.764  11.428   2.584
98147SOL    HW196215  12.779  11.363   2.515
98147SOL    HW296216  12.672  11.418   2.607
98148SOL     OW96217  11.368  10.290   8.957
98148SOL    HW196218  11.426  10.296   8.881
98148SOL    HW296219  11.282  10.272   8.919
98149SOL     OW96220   0.883   5.847  13.815
98149SOL    HW196221   0.857   5.804  13.896
98149SOL    HW296222   0.802   5.878  13.777
98150SOL     OW96223  11.033   7.441   2.731
98150SOL    HW196224  11.078   7.486   2.660
98150SOL    HW296225  10.964   7.391   2.688
98151SOL     OW96226   7.185  14.874   8.313
98151SOL    HW196227   7.161  14.784   8.291
98151SOL    HW296228   7.102   0.034   8.335
98152SOL     OW96229   1.563   4.843   4.917
98152SOL    HW196230   1.586   4.906   4.985
98152SOL    HW296231   1.467   4.846   4.914
98153SOL     OW96232   4.499   1.719  12.655
98153SOL    HW196233   4.574   1.729  12.713
98153SOL    HW296234   4.433   1.676  12.709
98154SOL     OW96235   5.795   5.523  12.071
98154SOL    HW196236   5.886   5.521  12.099
98154SOL    HW296237   5.746   5.487  12.144
98155SOL     OW96238  13.421   4.410   1.335
98155SOL    HW196239  13.425   4.504   1.316
98155SOL    HW296240  13.339   4.380   1.294
98156SOL     OW96241   5.918   8.555  14.510
98156SOL    HW196242   5.913   8.566  14.415
98156SOL    HW296243   5.834   8.515  14.534
98157SOL     OW96244   6.187   3.564   4.233
98157SOL    HW196245   6.208   3.602   4.318
98157SOL    HW296246   6.188   3.469   4.248
98158SOL     OW96247   6.696   4.228   3.783
98158SOL    HW196248   6.622   4.270   3.738
98158SOL    HW296249   6.656   4.154   3.830
98159SOL     OW96250   0.676   8.501   9.891
98159SOL    HW196251   0.584   8.472   9.886
98159SOL    HW296252   0.671   8.596   9.894
98160SOL     OW96253  14.616   0.358   4.757
98160SOL    HW196254  14.673   0.336   4.831
98160SOL    HW296255  14.667   0.334   4.680
98161SOL     OW96256   8.100  10.543   7.038
98161SOL    HW196257   8.172  10.491   7.001
98161SOL    HW296258   8.033  10.544   6.970
98162SOL     OW96259  11.220   9.534   6.267
98162SOL    HW196260  11.232   9.564   6.177
98162SOL    HW296261  11.239   9.441   6.264
98163SOL     OW96262   3.609   0.459  14.175
98163SOL    HW196263   3.569   0.433  14.258
98163SOL    HW296264   3.592   0.385  14.116
98164SOL     OW96265   2.569   4.724   5.663
98164SOL    HW196266   2.649   4.764   5.698
98164SOL    HW296267   2.554   4.648   5.720
98165SOL     OW96268   7.501   1.917   2.073
98165SOL    HW196269   7.575   1.957   2.028
98165SOL    HW296270   7.461   1.989   2.123
98166SOL     OW96271   7.302  11.714   8.421
98166SOL    HW196272   7.313  11.636   8.476
98166SOL    HW296273   7.305  11.787   8.483
98167SOL     OW96274   1.907   4.688   5.819
98167SOL    HW196275   1.913   4.682   5.914
98167SOL    HW296276   1.861   4.770   5.803
98168SOL     OW96277   1.829  12.889   9.163
98168SOL    HW196278   1.749  12.867   9.210
98168SOL    HW296279   1.836  12.823   9.094
98169SOL     OW96280   9.018  10.151  13.971
98169SOL    HW196281   8.959  10.182  13.902
98169SOL    HW296282   9.069  10.228  13.996
98170SOL     OW96283   7.924  14.244   9.229
98170SOL    HW196284   7.903  14.175   9.292
98170SOL    HW296285   7.976  14.307   9.279
98171SOL     OW96286   1.997   4.162  13.268
98171SOL    HW196287   1.945   4.240  13.249
98171SOL    HW296288   1.961   4.129  13.350
98172SOL     OW96289   7.003  12.254   0.141
98172SOL    HW196290   7.091  12.218   0.150
98172SOL    HW296291   6.955  12.222   0.217
98173SOL     OW96292  12.694   0.698   2.336
98173SOL    HW196293  12.696   0.607   2.365
98173SOL    HW296294  12.763   0.741   2.387
98174SOL     OW96295  13.433   5.153   3.957
98174SOL    HW196296  13.353   5.206   3.953
98174SOL    HW296297  13.412   5.075   3.906
98175SOL     OW96298   8.817   1.112   6.264
98175SOL    HW196299   8.884   1.084   6.327
98175SOL    HW296300   8.868   1.139   6.187
98176SOL     OW96301   6.954   4.345   1.750
98176SOL    HW196302   6.888   4.356   1.818
98176SOL    HW296303   7.038   4.359   1.794
98177SOL     OW96304  11.629  12.334   3.760
98177SOL    HW196305  11.723  12.346   3.777
98177SOL    HW296306  11.599  12.281   3.834
98178SOL     OW96307   2.535   2.652   7.071
98178SOL    HW196308   2.554   2.745   7.082
98178SOL    HW296309   2.548   2.614   7.158
98179SOL     OW96310   0.058  10.350   6.838
98179SOL    HW196311  14.854  10.353   6.882
98179SOL    HW296312   0.068  10.435   6.796
98180SOL     OW96313   6.681   8.679   7.060
98180SOL    HW196314   6.660   8.607   7.120
98180SOL    HW296315   6.601   8.688   7.007
98181SOL     OW96316   2.937  12.742   5.622
98181SOL    HW196317   2.921  12.653   5.651
98181SOL    HW296318   3.005  12.775   5.681
98182SOL     OW96319   9.180   6.342   4.584
98182SOL    HW196320   9.203   6.299   4.666
98182SOL    HW296321   9.098   6.301   4.558
98183SOL     OW96322  11.736   3.451  12.483
98183SOL    HW196323  11.677   3.384  12.450
98183SOL    HW296324  11.694   3.484  12.562
98184SOL     OW96325  13.309   9.778   8.442
98184SOL    HW196326  13.398   9.813   8.438
98184SOL    HW296327  13.320   9.683   8.441
98185SOL     OW96328  12.702   0.393  11.781
98185SOL    HW196329  12.658   0.475  11.804
98185SOL    HW296330  12.742   0.364  11.863
98186SOL     OW96331   7.214  12.826   9.375
98186SOL    HW196332   7.192  12.886   9.304
98186SOL    HW296333   7.244  12.883   9.446
98187SOL     OW96334   3.922  14.782  11.022
98187SOL    HW196335   3.932  14.861  10.968
98187SOL    HW296336   3.954  14.808  11.108
98188SOL     OW96337   9.829   4.414  14.025
98188SOL    HW196338   9.786   4.347  13.972
98188SOL    HW296339   9.897   4.450  13.968
98189SOL     OW96340  14.750   0.856   8.901
98189SOL    HW196341  14.685   0.821   8.962
98189SOL    HW296342  14.773   0.781   8.846
98190SOL     OW96343   3.244   8.769   7.394
98190SOL    HW196344   3.301   8.819   7.452
98190SOL    HW296345   3.237   8.683   7.436
98191SOL     OW96346  14.762   2.140   1.661
98191SOL    HW196347  14.763   2.061   1.608
98191SOL    HW296348  14.669   2.156   1.678
98192SOL     OW96349   2.605  13.779   7.735
98192SOL    HW196350   2.696  13.810   7.744
98192SOL    HW296351   2.614  13.690   7.702
98193SOL     OW96352   3.151   9.534  13.640
98193SOL    HW196353   3.243   9.556  13.656
98193SOL    HW296354   3.153   9.485  13.558
98194SOL     OW96355   7.655  13.921   1.879
98194SOL    HW196356   7.564  13.891   1.879
98194SOL    HW296357   7.656  13.996   1.821
98195SOL     OW96358   6.998   9.495   5.105
98195SOL    HW196359   7.020   9.578   5.148
98195SOL    HW296360   6.916   9.469   5.147
98196SOL     OW96361   9.284   1.360  13.586
98196SOL    HW196362   9.330   1.340  13.668
98196SOL    HW296363   9.344   1.329  13.518
98197SOL     OW96364   5.068  11.923   3.187
98197SOL    HW196365   5.090  11.847   3.133
98197SOL    HW296366   5.039  11.990   3.125
98198SOL     OW96367   2.148   9.188  11.417
98198SOL    HW196368   2.144   9.184  11.321
98198SOL    HW296369   2.111   9.104  11.446
98199SOL     OW96370   6.840  10.045   2.079
98199SOL    HW196371   6.803  10.129   2.052
98199SOL    HW296372   6.922  10.037   2.030
98200SOL     OW96373  10.860   0.800   3.174
98200SOL    HW196374  10.899   0.759   3.097
98200SOL    HW296375  10.789   0.853   3.139
98201SOL     OW96376  13.280   5.571   6.492
98201SOL    HW196377  13.232   5.637   6.542
98201SOL    HW296378  13.249   5.582   6.402
98202SOL     OW96379  11.973   0.817  14.742
98202SOL    HW196380  12.010   0.886  14.797
98202SOL    HW296381  12.036   0.805  14.671
98203SOL     OW96382   2.087  12.804  14.490
98203SOL    HW196383   2.176  12.783  14.519
98203SOL    HW296384   2.052  12.721  14.458
98204SOL     OW96385  11.321   1.561  10.558
98204SOL    HW196386  11.325   1.578  10.652
98204SOL    HW296387  11.227   1.568  10.537
98205SOL     OW96388   1.220  10.810   6.583
98205SOL    HW196389   1.275  10.732   6.579
98205SOL    HW296390   1.154  10.788   6.649
98206SOL     OW96391  12.223  10.291   6.104
98206SOL    HW196392  12.295  10.229   6.112
98206SOL    HW296393  12.249  10.365   6.159
98207SOL     OW96394  13.656  10.329   4.851
98207SOL    HW196395  13.649  10.275   4.930
98207SOL    HW296396  13.585  10.299   4.795
98208SOL     OW96397   1.433   9.865   2.554
98208SOL    HW196398   1.415   9.776   2.584
98208SOL    HW296399   1.484   9.854   2.474
98209SOL     OW96400   6.964  13.459   4.296
98209SOL    HW196401   6.995  13.408   4.222
98209SOL    HW296402   6.959  13.397   4.368
98210SOL     OW96403  11.642   0.222   4.413
98210SOL    HW196404  11.642   0.157   4.483
98210SOL    HW296405  11.672   0.175   4.336
98211SOL     OW96406   1.276   7.385   9.056
98211SOL    HW196407   1.186   7.363   9.032
98211SOL    HW296408   1.302   7.316   9.117
98212SOL     OW96409   3.782   0.652   1.934
98212SOL    HW196410   3.739   0.738   1.927
98212SOL    HW296411   3.875   0.672   1.936
98213SOL     OW96412  11.436  12.001  10.324
98213SOL    HW196413  11.449  12.081  10.273
98213SOL    HW296414  11.524  11.963  10.333
98214SOL     OW96415  14.414   8.482   2.850
98214SOL    HW196416  14.352   8.485   2.777
98214SOL    HW296417  14.496   8.453   2.811
98215SOL     OW96418   7.785  11.939   0.765
98215SOL    HW196419   7.744  11.860   0.729
98215SOL    HW296420   7.851  11.906   0.826
98216SOL     OW96421  10.279   6.683  13.028
98216SOL    HW196422  10.331   6.656  13.103
98216SOL    HW296423  10.288   6.779  13.026
98217SOL     OW96424   8.529   7.838  10.522
98217SOL    HW196425   8.502   7.798  10.605
98217SOL    HW296426   8.615   7.799  10.504
98218SOL     OW96427   9.156   6.015  12.346
98218SOL    HW196428   9.173   6.097  12.300
98218SOL    HW296429   9.123   6.043  12.432
98219SOL     OW96430   5.246  10.695  11.334
98219SOL    HW196431   5.182  10.712  11.403
98219SOL    HW296432   5.193  10.676  11.257
98220SOL     OW96433   5.972   0.281   9.077
98220SOL    HW196434   5.912   0.346   9.040
98220SOL    HW296435   5.917   0.229   9.137
98221SOL     OW96436  11.171   7.378   8.327
98221SOL    HW196437  11.107   7.336   8.384
98221SOL    HW296438  11.236   7.310   8.308
98222SOL     OW96439   9.861   2.269   5.772
98222SOL    HW196440   9.942   2.319   5.782
98222SOL    HW296441   9.890   2.179   5.756
98223SOL     OW96442   7.075   4.219   6.508
98223SOL    HW196443   7.089   4.137   6.460
98223SOL    HW296444   7.091   4.197   6.599
98224SOL     OW96445   0.985  12.417  11.136
98224SOL    HW196446   1.032  12.334  11.141
98224SOL    HW296447   0.953  12.421  11.046
98225SOL     OW96448  10.585   4.252   1.619
98225SOL    HW196449  10.548   4.331   1.658
98225SOL    HW296450  10.537   4.241   1.537
98226SOL     OW96451  10.909   1.110   9.371
98226SOL    HW196452  10.934   1.018   9.381
98226SOL    HW296453  10.991   1.158   9.379
98227SOL     OW96454   8.026   8.030  11.964
98227SOL    HW196455   7.951   7.969  11.961
98227SOL    HW296456   8.097   7.982  11.923
98228SOL     OW96457   5.835   7.391   7.874
98228SOL    HW196458   5.769   7.457   7.856
98228SOL    HW296459   5.914   7.423   7.830
98229SOL     OW96460   3.156  14.210   1.849
98229SOL    HW196461   3.137  14.304   1.858
98229SOL    HW296462   3.227  14.206   1.785
98230SOL     OW96463  13.493   4.802  12.763
98230SOL    HW196464  13.555   4.729  12.772
98230SOL    HW296465  13.474   4.828  12.853
98231SOL     OW96466  11.912  13.234   1.841
98231SOL    HW196467  11.830  13.216   1.796
98231SOL    HW296468  11.919  13.330   1.841
98232SOL     OW96469   6.859  10.099  14.523
98232SOL    HW196470   6.924  10.157  14.562
98232SOL    HW296471   6.850  10.028  14.586
98233SOL     OW96472  13.042   0.726   2.260
98233SOL    HW196473  12.983   0.651   2.251
98233SOL    HW296474  13.083   0.735   2.173
98234SOL     OW96475  12.511  14.660   2.266
98234SOL    HW196476  12.477  14.703   2.345
98234SOL    HW296477  12.531  14.570   2.295
98235SOL     OW96478   9.599   1.894   3.355
98235SOL    HW196479   9.610   1.919   3.263
98235SOL    HW296480   9.583   1.976   3.401
98236SOL     OW96481   0.369   0.780  10.712
98236SOL    HW196482   0.375   0.873  10.732
98236SOL    HW296483   0.439   0.739  10.764
98237SOL     OW96484  13.196   6.196   1.991
98237SOL    HW196485  13.235   6.209   1.905
98237SOL    HW296486  13.269   6.168   2.046
98238SOL     OW96487   1.726   9.340  11.615
98238SOL    HW196488   1.804   9.322  11.667
98238SOL    HW296489   1.657   9.356  11.679
98239SOL     OW96490   6.869   9.045   2.849
98239SOL    HW196491   6.939   9.060   2.913
98239SOL    HW296492   6.913   9.001   2.776
98240SOL     OW96493  11.485   8.094  12.492
98240SOL    HW196494  11.392   8.084  12.475
98240SOL    HW296495  11.491   8.168  12.553
98241SOL     OW96496   9.233   8.279  14.190
98241SOL    HW196497   9.225   8.226  14.111
98241SOL    HW296498   9.233   8.369  14.159
98242SOL     OW96499  11.312   0.175  10.597
98242SOL    HW196500  11.323   0.098  10.540
98242SOL    HW296501  11.287   0.245  10.537
98243SOL     OW96502   2.850   6.664   9.893
98243SOL    HW196503   2.842   6.721   9.816
98243SOL    HW296504   2.795   6.588   9.872
98244SOL     OW96505   1.717  10.034   8.341
98244SOL    HW196506   1.689  10.092   8.271
98244SOL    HW296507   1.639  10.024   8.397
98245SOL     OW96508   0.110   9.442   6.763
98245SOL    HW196509   0.106   9.423   6.669
98245SOL    HW296510   0.148   9.363   6.801
98246SOL     OW96511   1.997   7.783  13.932
98246SOL    HW196512   2.053   7.854  13.901
98246SOL    HW296513   1.909   7.821  13.931
98247SOL     OW96514  13.472  14.473  14.177
98247SOL    HW196515  13.452  14.451  14.086
98247SOL    HW296516  13.492  14.389  14.218
98248SOL     OW96517   6.960   8.011   0.218
98248SOL    HW196518   7.023   7.942   0.199
98248SOL    HW296519   6.963   8.069   0.142
98249SOL     OW96520   1.062   3.673  12.438
98249SOL    HW196521   1.056   3.594  12.385
98249SOL    HW296522   1.146   3.665  12.484
98250SOL     OW96523  13.913  13.236   7.828
98250SOL    HW196524  13.987  13.281   7.789
98250SOL    HW296525  13.863  13.202   7.754
98251SOL     OW96526   8.388   0.170  14.046
98251SOL    HW196527   8.370   0.218  14.128
98251SOL    HW296528   8.332   0.093  14.051
98252SOL     OW96529   2.017   3.461   6.117
98252SOL    HW196530   2.009   3.518   6.041
98252SOL    HW296531   1.960   3.387   6.097
98253SOL     OW96532   0.360  11.472  13.140
98253SOL    HW196533   0.418  11.413  13.188
98253SOL    HW296534   0.390  11.468  13.049
98254SOL     OW96535   6.826   1.305   6.215
98254SOL    HW196536   6.919   1.307   6.240
98254SOL    HW296537   6.779   1.329   6.295
98255SOL     OW96538   0.333   4.801   7.041
98255SOL    HW196539   0.390   4.787   7.116
98255SOL    HW296540   0.325   4.715   7.000
98256SOL     OW96541  14.285   1.320   2.022
98256SOL    HW196542  14.362   1.266   2.038
98256SOL    HW296543  14.292   1.346   1.931
98257SOL     OW96544   7.548  13.742   8.824
98257SOL    HW196545   7.520  13.829   8.851
98257SOL    HW296546   7.597  13.708   8.899
98258SOL     OW96547  12.035  10.933   2.168
98258SOL    HW196548  12.002  10.843   2.159
98258SOL    HW296549  12.076  10.934   2.255
98259SOL     OW96550  13.425  13.551   3.624
98259SOL    HW196551  13.450  13.641   3.644
98259SOL    HW296552  13.368  13.525   3.696
98260SOL     OW96553   2.803   7.983  10.196
98260SOL    HW196554   2.788   7.905  10.143
98260SOL    HW296555   2.896   8.000  10.187
98261SOL     OW96556  13.664   3.785  12.373
98261SOL    HW196557  13.652   3.748  12.460
98261SOL    HW296558  13.758   3.774  12.356
98262SOL     OW96559  11.300   6.351   7.731
98262SOL    HW196560  11.327   6.289   7.798
98262SOL    HW296561  11.275   6.297   7.656
98263SOL     OW96562  12.765   4.713   5.306
98263SOL    HW196563  12.713   4.786   5.275
98263SOL    HW296564  12.748   4.643   5.243
98264SOL     OW96565  11.722   0.486   2.812
98264SOL    HW196566  11.661   0.547   2.770
98264SOL    HW296567  11.710   0.501   2.906
98265SOL     OW96568   3.483   6.500   9.806
98265SOL    HW196569   3.414   6.522   9.744
98265SOL    HW296570   3.535   6.581   9.813
98266SOL     OW96571   0.585   6.032   3.980
98266SOL    HW196572   0.553   6.012   4.068
98266SOL    HW296573   0.517   6.088   3.942
98267SOL     OW96574   9.707   3.198   2.337
98267SOL    HW196575   9.652   3.128   2.301
98267SOL    HW296576   9.650   3.244   2.398
98268SOL     OW96577   4.448   5.839  11.021
98268SOL    HW196578   4.441   5.864  10.929
98268SOL    HW296579   4.529   5.879  11.051
98269SOL     OW96580  13.229   2.670   8.359
98269SOL    HW196581  13.163   2.659   8.428
98269SOL    HW296582  13.240   2.583   8.322
98270SOL     OW96583   6.554   6.190  14.351
98270SOL    HW196584   6.507   6.216  14.272
98270SOL    HW296585   6.487   6.186  14.419
98271SOL     OW96586   9.406   9.007   9.521
98271SOL    HW196587   9.499   9.031   9.521
98271SOL    HW296588   9.392   8.963   9.437
98272SOL     OW96589  11.497   9.241   1.074
98272SOL    HW196590  11.436   9.190   1.127
98272SOL    HW296591  11.518   9.184   1.000
98273SOL     OW96592   5.109   3.290   8.115
98273SOL    HW196593   5.123   3.274   8.022
98273SOL    HW296594   5.017   3.317   8.121
98274SOL     OW96595   3.901   1.964   1.970
98274SOL    HW196596   3.867   1.877   1.950
98274SOL    HW296597   3.984   1.948   2.015
98275SOL     OW96598   9.893   3.207   6.977
98275SOL    HW196599   9.915   3.293   6.941
98275SOL    HW296600   9.976   3.171   7.007
98276SOL     OW96601   8.131   6.124   2.651
98276SOL    HW196602   8.189   6.147   2.723
98276SOL    HW296603   8.187   6.123   2.574
98277SOL     OW96604   8.232   9.548   2.112
98277SOL    HW196605   8.157   9.497   2.143
98277SOL    HW296606   8.196   9.635   2.096
98278SOL     OW96607   3.096  13.268  13.861
98278SOL    HW196608   3.098  13.178  13.895
98278SOL    HW296609   3.187  13.285  13.835
98279SOL     OW96610   2.043   4.588   9.813
98279SOL    HW196611   2.048   4.575   9.908
98279SOL    HW296612   2.131   4.617   9.788
98280SOL     OW96613  10.782   1.673   7.021
98280SOL    HW196614  10.804   1.631   7.105
98280SOL    HW296615  10.711   1.619   6.986
98281SOL     OW96616   5.600   4.637   3.925
98281SOL    HW196617   5.519   4.619   3.974
98281SOL    HW296618   5.664   4.658   3.993
98282SOL     OW96619  13.730  12.703  12.554
98282SOL    HW196620  13.775  12.753  12.623
98282SOL    HW296621  13.639  12.732  12.559
98283SOL     OW96622   3.821  10.994   8.078
98283SOL    HW196623   3.891  10.929   8.070
98283SOL    HW296624   3.741  10.941   8.084
98284SOL     OW96625  13.663   9.741   7.181
98284SOL    HW196626  13.692   9.799   7.252
98284SOL    HW296627  13.586   9.785   7.145
98285SOL     OW96628  13.300   6.074  14.392
98285SOL    HW196629  13.333   6.061  14.481
98285SOL    HW296630  13.349   6.149  14.359
98286SOL     OW96631   3.350  11.580   8.904
98286SOL    HW196632   3.257  11.589   8.928
98286SOL    HW296633   3.350  11.580   8.809
98287SOL     OW96634   0.151   7.716   7.147
98287SOL    HW196635   0.142   7.746   7.237
98287SOL    HW296636   0.227   7.658   7.149
98288SOL     OW96637   1.785  13.226  14.827
98288SOL    HW196638   1.708  13.256  14.779
98288SOL    HW296639   1.835  13.305  14.846
98289SOL     OW96640  12.401   6.911  11.571
98289SOL    HW196641  12.341   6.897  11.644
98289SOL    HW296642  12.397   6.831  11.520
98290SOL     OW96643  11.432   3.441   6.199
98290SOL    HW196644  11.379   3.392   6.136
98290SOL    HW296645  11.493   3.491   6.145
98291SOL     OW96646   2.032   1.523   4.366
98291SOL    HW196647   1.965   1.521   4.298
98291SOL    HW296648   2.064   1.613   4.366
98292SOL     OW96649   2.754   6.046  13.063
98292SOL    HW196650   2.792   6.061  13.149
98292SOL    HW296651   2.660   6.046  13.078
98293SOL     OW96652   8.634   4.150   3.529
98293SOL    HW196653   8.651   4.165   3.436
98293SOL    HW296654   8.541   4.126   3.532
98294SOL     OW96655   3.844   7.763   6.838
98294SOL    HW196656   3.863   7.669   6.832
98294SOL    HW296657   3.930   7.804   6.849
98295SOL     OW96658  12.665   7.459   0.449
98295SOL    HW196659  12.685   7.499   0.364
98295SOL    HW296660  12.571   7.472   0.460
98296SOL     OW96661  14.174  14.405   2.028
98296SOL    HW196662  14.115  14.335   2.056
98296SOL    HW296663  14.247  14.402   2.090
98297SOL     OW96664   8.897   6.907   0.509
98297SOL    HW196665   8.942   6.856   0.577
98297SOL    HW296666   8.965   6.929   0.446
98298SOL     OW96667   8.413   7.006   5.376
98298SOL    HW196668   8.500   7.044   5.389
98298SOL    HW296669   8.353   7.071   5.412
98299SOL     OW96670   9.236   0.209   0.631
98299SOL    HW196671   9.295   0.246   0.696
98299SOL    HW296672   9.271   0.122   0.614
98300SOL     OW96673   0.999  14.846   4.975
98300SOL    HW196674   1.001  14.808   5.063
98300SOL    HW296675   1.010  14.772   4.916
98301SOL     OW96676  13.576  14.548   7.349
98301SOL    HW196677  13.481  14.544   7.338
98301SOL    HW296678  13.597  14.641   7.347
98302SOL     OW96679   7.527   2.812   3.349
98302SOL    HW196680   7.456   2.791   3.289
98302SOL    HW296681   7.493   2.884   3.403
98303SOL     OW96682   9.875   9.796   4.121
98303SOL    HW196683   9.815   9.853   4.171
98303SOL    HW296684   9.855   9.814   4.030
98304SOL     OW96685  11.195   2.432  11.937
98304SOL    HW196686  11.119   2.481  11.966
98304SOL    HW296687  11.196   2.354  11.993
98305SOL     OW96688   6.283  11.947   1.850
98305SOL    HW196689   6.335  11.874   1.817
98305SOL    HW296690   6.271  11.927   1.943
98306SOL     OW96691   9.959   4.273   0.963
98306SOL    HW196692   9.889   4.321   1.007
98306SOL    HW296693   9.977   4.198   1.021
98307SOL     OW96694   0.886  12.429   8.238
98307SOL    HW196695   0.792  12.414   8.247
98307SOL    HW296696   0.915  12.363   8.174
98308SOL     OW96697   2.751   1.011   2.436
98308SOL    HW196698   2.696   1.055   2.370
98308SOL    HW296699   2.724   1.050   2.519
98309SOL     OW96700   1.846   7.240   8.478
98309SOL    HW196701   1.909   7.309   8.501
98309SOL    HW296702   1.818   7.204   8.562
98310SOL     OW96703   3.553  11.169  11.463
98310SOL    HW196704   3.573  11.237  11.399
98310SOL    HW296705   3.639  11.136  11.490
98311SOL     OW96706   1.254   8.325  12.611
98311SOL    HW196707   1.321   8.345  12.676
98311SOL    HW296708   1.266   8.233  12.591
98312SOL     OW96709   1.463   0.671  14.834
98312SOL    HW196710   1.543   0.689   0.002
98312SOL    HW296711   1.408   0.748  14.848
98313SOL     OW96712   4.967   3.189   0.482
98313SOL    HW196713   4.999   3.108   0.441
98313SOL    HW296714   4.909   3.159   0.552
98314SOL     OW96715  11.753   4.118  11.235
98314SOL    HW196716  11.748   4.096  11.328
98314SOL    HW296717  11.662   4.113  11.205
98315SOL     OW96718   2.884   3.019   2.929
98315SOL    HW196719   2.894   2.927   2.902
98315SOL    HW296720   2.831   3.014   3.009
98316SOL     OW96721  10.761   4.965  13.996
98316SOL    HW196722  10.740   4.941  14.086
98316SOL    HW296723  10.776   5.060  13.999
98317SOL     OW96724   2.466   4.832   0.956
98317SOL    HW196725   2.514   4.883   1.022
98317SOL    HW296726   2.523   4.833   0.879
98318SOL     OW96727   3.294  13.256  14.812
98318SOL    HW196728   3.306  13.341  14.853
98318SOL    HW296729   3.239  13.273  14.735
98319SOL     OW96730  12.051   2.729   9.632
98319SOL    HW196731  12.093   2.643   9.630
98319SOL    HW296732  12.123   2.791   9.645
98320SOL     OW96733   5.763   8.751   1.376
98320SOL    HW196734   5.729   8.789   1.294
98320SOL    HW296735   5.704   8.783   1.444
98321SOL     OW96736   4.258   5.316   0.942
98321SOL    HW196737   4.222   5.268   1.017
98321SOL    HW296738   4.303   5.391   0.981
98322SOL     OW96739  10.566   3.510   7.875
98322SOL    HW196740  10.485   3.472   7.841
98322SOL    HW296741  10.538   3.579   7.934
98323SOL     OW96742  11.411  12.234   3.128
98323SOL    HW196743  11.495  12.267   3.097
98323SOL    HW296744  11.400  12.273   3.215
98324SOL     OW96745   3.730  12.970   7.854
98324SOL    HW196746   3.656  13.026   7.829
98324SOL    HW296747   3.794  12.982   7.784
98325SOL     OW96748  14.384   3.035   6.197
98325SOL    HW196749  14.441   2.963   6.171
98325SOL    HW296750  14.354   3.074   6.115
98326SOL     OW96751  11.305   6.346   6.795
98326SOL    HW196752  11.277   6.255   6.790
98326SOL    HW296753  11.225   6.396   6.777
98327SOL     OW96754   8.832  13.206   8.334
98327SOL    HW196755   8.879  13.124   8.321
98327SOL    HW296756   8.762  13.204   8.269
98328SOL     OW96757   8.976   3.736   7.322
98328SOL    HW196758   9.040   3.665   7.317
98328SOL    HW296759   8.965   3.752   7.415
98329SOL     OW96760  11.352   3.392  14.422
98329SOL    HW196761  11.287   3.371  14.355
98329SOL    HW296762  11.387   3.477  14.396
98330SOL     OW96763   9.570  12.174  12.091
98330SOL    HW196764   9.500  12.146  12.033
98330SOL    HW296765   9.582  12.101  12.151
98331SOL     OW96766   2.098  13.878  14.760
98331SOL    HW196767   2.076  13.958  14.807
98331SOL    HW296768   2.171  13.840  14.809
98332SOL     OW96769   5.566   7.854   6.974
98332SOL    HW196770   5.640   7.911   6.992
98332SOL    HW296771   5.521   7.846   7.058
98333SOL     OW96772  12.207   9.969   9.563
98333SOL    HW196773  12.233   9.925   9.644
98333SOL    HW296774  12.157   9.904   9.514
98334SOL     OW96775  12.295   2.249  11.762
98334SOL    HW196776  12.361   2.317  11.753
98334SOL    HW296777  12.343   2.167  11.749
98335SOL     OW96778   5.077   2.503   4.564
98335SOL    HW196779   5.149   2.565   4.553
98335SOL    HW296780   5.029   2.508   4.482
98336SOL     OW96781  14.754   6.680   1.125
98336SOL    HW196782  14.777   6.748   1.188
98336SOL    HW296783  14.801   6.705   1.045
98337SOL     OW96784   0.609   4.911   7.414
98337SOL    HW196785   0.539   4.917   7.480
98337SOL    HW296786   0.608   4.997   7.372
98338SOL     OW96787   3.564   9.251  12.468
98338SOL    HW196788   3.494   9.308  12.434
98338SOL    HW296789   3.570   9.180  12.404
98339SOL     OW96790  11.827  12.625  10.856
98339SOL    HW196791  11.835  12.544  10.807
98339SOL    HW296792  11.744  12.663  10.828
98340SOL     OW96793  14.647   6.658  12.567
98340SOL    HW196794  14.649   6.712  12.488
98340SOL    HW296795  14.709   6.700  12.626
98341SOL     OW96796  10.001   0.322   9.750
98341SOL    HW196797  10.037   0.303   9.837
98341SOL    HW296798  10.067   0.289   9.689
98342SOL     OW96799   4.507   0.168  14.102
98342SOL    HW196800   4.477   0.159  14.011
98342SOL    HW296801   4.499   0.080  14.138
98343SOL     OW96802   8.400  10.564  10.869
98343SOL    HW196803   8.312  10.556  10.908
98343SOL    HW296804   8.419  10.657  10.871
98344SOL     OW96805   1.063  12.492  10.022
98344SOL    HW196806   1.153  12.462  10.013
98344SOL    HW296807   1.058  12.571   9.968
98345SOL     OW96808  14.617   2.257   4.746
98345SOL    HW196809  14.619   2.164   4.768
98345SOL    HW296810  14.632   2.260   4.652
98346SOL     OW96811   9.300  10.643  13.415
98346SOL    HW196812   9.301  10.591  13.334
98346SOL    HW296813   9.342  10.588  13.480
98347SOL     OW96814   8.159   5.654   5.130
98347SOL    HW196815   8.244   5.612   5.146
98347SOL    HW296816   8.157   5.669   5.035
98348SOL     OW96817   4.843   2.654   4.966
98348SOL    HW196818   4.779   2.583   4.970
98348SOL    HW296819   4.836   2.698   5.050
98349SOL     OW96820  12.943  14.233  11.346
98349SOL    HW196821  12.938  14.313  11.398
98349SOL    HW296822  13.016  14.184  11.384
98350SOL     OW96823  14.021   3.382   0.530
98350SOL    HW196824  13.979   3.466   0.513
98350SOL    HW296825  14.113   3.395   0.506
98351SOL     OW96826  13.338   9.572  13.676
98351SOL    HW196827  13.385   9.646  13.639
98351SOL    HW296828  13.309   9.602  13.762
98352SOL     OW96829   7.057   6.033   0.944
98352SOL    HW196830   7.127   6.094   0.968
98352SOL    HW296831   7.001   6.083   0.884
98353SOL     OW96832  10.283   5.504   6.470
98353SOL    HW196833  10.231   5.491   6.391
98353SOL    HW296834  10.234   5.568   6.521
98354SOL     OW96835   2.411  13.452   0.899
98354SOL    HW196836   2.438  13.541   0.920
98354SOL    HW296837   2.481  13.418   0.844
98355SOL     OW96838  11.920   9.687   1.107
98355SOL    HW196839  11.825   9.696   1.101
98355SOL    HW296840  11.953   9.777   1.103
98356SOL     OW96841   6.734  10.500   6.032
98356SOL    HW196842   6.642  10.481   6.011
98356SOL    HW296843   6.730  10.572   6.095
98357SOL     OW96844  10.772  10.613  13.833
98357SOL    HW196845  10.864  10.632  13.848
98357SOL    HW296846  10.757  10.640  13.742
98358SOL     OW96847   0.795   3.317  14.527
98358SOL    HW196848   0.881   3.277  14.540
98358SOL    HW296849   0.740   3.246  14.494
98359SOL     OW96850  10.380  10.795   5.503
98359SOL    HW196851  10.433  10.758   5.432
98359SOL    HW296852  10.313  10.728   5.519
98360SOL     OW96853   6.442  14.848  12.694
98360SOL    HW196854   6.417  14.822  12.605
98360SOL    HW296855   6.474  14.768  12.734
98361SOL     OW96856  13.394   8.480   6.302
98361SOL    HW196857  13.421   8.560   6.256
98361SOL    HW296858  13.444   8.480   6.383
98362SOL     OW96859   7.264  13.918   1.413
98362SOL    HW196860   7.261  13.998   1.465
98362SOL    HW296861   7.223  13.851   1.469
98363SOL     OW96862   2.464  12.871   8.375
98363SOL    HW196863   2.507  12.954   8.393
98363SOL    HW296864   2.370  12.892   8.374
98364SOL     OW96865  11.056   0.537   7.031
98364SOL    HW196866  11.013   0.541   7.116
98364SOL    HW296867  11.149   0.524   7.052
98365SOL     OW96868   0.583   9.295   9.755
98365SOL    HW196869   0.526   9.244   9.698
98365SOL    HW296870   0.561   9.386   9.736
98366SOL     OW96871   1.695   7.276   5.774
98366SOL    HW196872   1.764   7.224   5.817
98366SOL    HW296873   1.742   7.347   5.730
98367SOL     OW96874   2.613   2.342  12.998
98367SOL    HW196875   2.601   2.428  13.037
98367SOL    HW296876   2.706   2.325  13.005
98368SOL     OW96877  13.472   3.496   1.962
98368SOL    HW196878  13.452   3.519   2.053
98368SOL    HW296879  13.447   3.404   1.954
98369SOL     OW96880  14.082   2.390   1.762
98369SOL    HW196881  13.992   2.415   1.783
98369SOL    HW296882  14.135   2.430   1.831
98370SOL     OW96883  14.578   4.161   7.795
98370SOL    HW196884  14.643   4.231   7.799
98370SOL    HW296885  14.513   4.184   7.862
98371SOL     OW96886  10.449  11.241   4.167
98371SOL    HW196887  10.522  11.303   4.163
98371SOL    HW296888  10.457  11.189   4.088
98372SOL     OW96889   5.210   7.365   0.113
98372SOL    HW196890   5.160   7.356   0.194
98372SOL    HW296891   5.294   7.324   0.132
98373SOL     OW96892   3.417   6.944  10.141
98373SOL    HW196893   3.421   6.849  10.156
98373SOL    HW296894   3.444   6.956  10.050
98374SOL     OW96895   6.574   7.338   8.450
98374SOL    HW196896   6.580   7.395   8.527
98374SOL    HW296897   6.494   7.368   8.406
98375SOL     OW96898  11.900  14.244  13.633
98375SOL    HW196899  11.811  14.241  13.670
98375SOL    HW296900  11.955  14.269  13.707
98376SOL     OW96901  12.746   1.517   4.973
98376SOL    HW196902  12.678   1.549   4.913
98376SOL    HW296903  12.789   1.447   4.924
98377SOL     OW96904   4.576  11.824   5.276
98377SOL    HW196905   4.490  11.836   5.236
98377SOL    HW296906   4.558  11.802   5.367
98378SOL     OW96907   8.930  12.135   0.533
98378SOL    HW196908   8.843  12.136   0.572
98378SOL    HW296909   8.925  12.068   0.464
98379SOL     OW96910   1.283   7.234   0.517
98379SOL    HW196911   1.303   7.320   0.554
98379SOL    HW296912   1.322   7.235   0.430
98380SOL     OW96913   5.677   4.080   2.434
98380SOL    HW196914   5.688   4.083   2.529
98380SOL    HW296915   5.621   4.156   2.414
98381SOL     OW96916   5.888   7.410   5.731
98381SOL    HW196917   5.835   7.490   5.729
98381SOL    HW296918   5.950   7.424   5.803
98382SOL     OW96919   3.042  13.537  14.260
98382SOL    HW196920   3.137  13.543  14.255
98382SOL    HW296921   3.024  13.515  14.352
98383SOL     OW96922   4.514  13.526   3.622
98383SOL    HW196923   4.533  13.563   3.535
98383SOL    HW296924   4.419  13.539   3.632
98384SOL     OW96925  12.911   2.889   0.883
98384SOL    HW196926  12.874   2.805   0.910
98384SOL    HW296927  12.973   2.912   0.952
98385SOL     OW96928   4.652   0.875  12.372
98385SOL    HW196929   4.712   0.837  12.436
98385SOL    HW296930   4.688   0.961  12.353
98386SOL     OW96931   8.658   3.893   7.994
98386SOL    HW196932   8.645   3.950   7.918
98386SOL    HW296933   8.639   3.950   8.069
98387SOL     OW96934   1.220  11.022  13.556
98387SOL    HW196935   1.227  11.022  13.652
98387SOL    HW296936   1.273  11.097  13.529
98388SOL     OW96937   6.990   7.084   3.221
98388SOL    HW196938   6.998   7.166   3.173
98388SOL    HW296939   6.896   7.075   3.238
98389SOL     OW96940  11.676   4.418   0.672
98389SOL    HW196941  11.606   4.481   0.693
98389SOL    HW296942  11.741   4.470   0.625
98390SOL     OW96943  11.721   7.596  12.557
98390SOL    HW196944  11.814   7.583  12.577
98390SOL    HW296945  11.690   7.655  12.626
98391SOL     OW96946  14.688   2.616   0.815
98391SOL    HW196947  14.673   2.575   0.730
98391SOL    HW296948  14.710   2.544   0.873
98392SOL     OW96949  13.059   9.956   1.326
98392SOL    HW196950  12.976  10.002   1.313
98392SOL    HW296951  13.106  10.008   1.390
98393SOL     OW96952   1.162   1.899   1.918
98393SOL    HW196953   1.097   1.969   1.907
98393SOL    HW296954   1.147   1.840   1.844
98394SOL     OW96955   5.521   3.393  12.013
98394SOL    HW196956   5.535   3.480  12.051
98394SOL    HW296957   5.430   3.372  12.034
98395SOL     OW96958   8.561  11.879  11.082
98395SOL    HW196959   8.614  11.845  11.155
98395SOL    HW296960   8.596  11.835  11.005
98396SOL     OW96961   3.520  11.673   5.303
98396SOL    HW196962   3.598  11.702   5.350
98396SOL    HW296963   3.500  11.744   5.242
98397SOL     OW96964   7.379   1.774  10.387
98397SOL    HW196965   7.403   1.716  10.459
98397SOL    HW296966   7.385   1.719  10.309
98398SOL     OW96967   7.785   7.239   2.956
98398SOL    HW196968   7.769   7.146   2.938
98398SOL    HW296969   7.875   7.253   2.928
98399SOL     OW96970  11.611  10.223   8.471
98399SOL    HW196971  11.573  10.296   8.423
98399SOL    HW296972  11.649  10.166   8.403
98400SOL     OW96973  10.373   0.954   1.215
98400SOL    HW196974  10.293   0.912   1.184
98400SOL    HW296975  10.343   1.029   1.266
98401SOL     OW96976   7.123   9.835  11.323
98401SOL    HW196977   7.110   9.742  11.342
98401SOL    HW296978   7.136   9.875  11.409
98402SOL     OW96979   6.126   0.819   1.999
98402SOL    HW196980   6.077   0.898   2.024
98402SOL    HW296981   6.216   0.849   1.989
98403SOL     OW96982   0.778  14.622  11.544
98403SOL    HW196983   0.753  14.550  11.486
98403SOL    HW296984   0.705  14.683  11.539
98404SOL     OW96985   3.735   3.929   6.581
98404SOL    HW196986   3.776   3.905   6.498
98404SOL    HW296987   3.783   3.879   6.647
98405SOL     OW96988   9.348  13.068   5.704
98405SOL    HW196989   9.285  13.006   5.669
98405SOL    HW296990   9.321  13.153   5.669
98406SOL     OW96991  12.337  14.347   5.919
98406SOL    HW196992  12.388  14.271   5.943
98406SOL    HW296993  12.342  14.406   5.994
98407SOL     OW96994   6.311   6.293   0.541
98407SOL    HW196995   6.234   6.348   0.532
98407SOL    HW296996   6.381   6.341   0.497
98408SOL     OW96997   6.736   6.541  14.142
98408SOL    HW196998   6.794   6.496  14.203
98408SOL    HW296999   6.662   6.569  14.196
98409SOL     OW97000  12.085   4.504  11.585
98409SOL    HW197001  12.113   4.475  11.671
98409SOL    HW297002  11.991   4.488  11.583
98410SOL     OW97003   8.013  13.217  12.081
98410SOL    HW197004   7.961  13.253  12.008
98410SOL    HW297005   8.104  13.228  12.053
98411SOL     OW97006   0.009   9.534  14.671
98411SOL    HW197007   0.054   9.568  14.594
98411SOL    HW297008  14.799   9.559  14.659
98412SOL     OW97009   2.532   3.814   3.986
98412SOL    HW197010   2.532   3.724   3.952
98412SOL    HW297011   2.519   3.869   3.909
98413SOL     OW97012   2.775   0.902  11.976
98413SOL    HW197013   2.716   0.827  11.962
98413SOL    HW297014   2.838   0.896  11.905
98414SOL     OW97015  10.502   8.029   9.281
98414SOL    HW197016  10.542   8.068   9.358
98414SOL    HW297017  10.446   8.098   9.245
98415SOL     OW97018   6.941  13.347   6.300
98415SOL    HW197019   6.948  13.375   6.209
98415SOL    HW297020   6.848  13.359   6.322
98416SOL     OW97021  13.653  10.878   0.783
98416SOL    HW197022  13.627  10.835   0.701
98416SOL    HW297023  13.571  10.885   0.833
98417SOL     OW97024   6.006   1.929   1.516
98417SOL    HW197025   5.954   1.940   1.595
98417SOL    HW297026   6.058   2.010   1.510
98418SOL     OW97027   6.193   2.369   2.674
98418SOL    HW197028   6.247   2.372   2.753
98418SOL    HW297029   6.175   2.276   2.660
98419SOL     OW97030  14.571  11.601   4.149
98419SOL    HW197031  14.571  11.523   4.204
98419SOL    HW297032  14.582  11.673   4.211
98420SOL     OW97033  11.332  13.117  13.821
98420SOL    HW197034  11.340  13.057  13.747
98420SOL    HW297035  11.242  13.107  13.851
98421SOL     OW97036  10.444   6.721  12.395
98421SOL    HW197037  10.532   6.693  12.419
98421SOL    HW297038  10.446   6.728  12.299
98422SOL     OW97039   6.231   1.200   6.885
98422SOL    HW197040   6.306   1.152   6.920
98422SOL    HW297041   6.240   1.191   6.790
98423SOL     OW97042   9.143   0.569   9.650
98423SOL    HW197043   9.233   0.574   9.682
98423SOL    HW297044   9.122   0.658   9.623
98424SOL     OW97045  10.997   0.680   2.987
98424SOL    HW197046  10.992   0.610   3.052
98424SOL    HW297047  11.054   0.645   2.919
98425SOL     OW97048  11.773   0.057   0.671
98425SOL    HW197049  11.818  14.869   0.720
98425SOL    HW297050  11.681   0.032   0.675
98426SOL     OW97051   5.886   2.343   9.341
98426SOL    HW197052   5.955   2.409   9.329
98426SOL    HW297053   5.819   2.366   9.276
98427SOL     OW97054   8.851   6.580  14.420
98427SOL    HW197055   8.910   6.647  14.385
98427SOL    HW297056   8.904   6.532  14.484
98428SOL     OW97057  10.911   3.336   7.420
98428SOL    HW197058  10.826   3.332   7.463
98428SOL    HW297059  10.960   3.262   7.456
98429SOL     OW97060   0.180   8.905  10.425
98429SOL    HW197061   0.250   8.945  10.478
98429SOL    HW297062   0.205   8.813  10.418
98430SOL     OW97063   3.759   8.402  11.494
98430SOL    HW197064   3.829   8.438  11.439
98430SOL    HW297065   3.744   8.314  11.459
98431SOL     OW97066   3.876  12.028   9.745
98431SOL    HW197067   3.878  11.932   9.742
98431SOL    HW297068   3.952  12.055   9.693
98432SOL     OW97069  13.606   9.053   4.065
98432SOL    HW197070  13.621   9.032   3.973
98432SOL    HW297071  13.679   9.010   4.111
98433SOL     OW97072   8.831   8.805   5.782
98433SOL    HW197073   8.926   8.805   5.775
98433SOL    HW297074   8.813   8.829   5.873
98434SOL     OW97075  11.976   2.479   1.940
98434SOL    HW197076  12.005   2.388   1.953
98434SOL    HW297077  11.991   2.496   1.847
98435SOL     OW97078   2.011   8.372  13.971
98435SOL    HW197079   1.940   8.355  13.909
98435SOL    HW297080   2.058   8.447  13.935
98436SOL     OW97081   2.207  11.411   9.242
98436SOL    HW197082   2.286  11.358   9.252
98436SOL    HW297083   2.137  11.359   9.282
98437SOL     OW97084  14.716   5.177   7.036
98437SOL    HW197085  14.727   5.082   7.041
98437SOL    HW297086  14.644   5.196   7.097
98438SOL     OW97087   2.284   0.629   4.636
98438SOL    HW197088   2.325   0.685   4.702
98438SOL    HW297089   2.354   0.569   4.609
98439SOL     OW97090   1.057   4.002   3.981
98439SOL    HW197091   0.979   4.053   4.006
98439SOL    HW297092   1.022   3.914   3.963
98440SOL     OW97093   5.811   7.421   0.549
98440SOL    HW197094   5.895   7.407   0.593
98440SOL    HW297095   5.825   7.497   0.494
98441SOL     OW97096   7.006  11.157   4.816
98441SOL    HW197097   7.003  11.080   4.760
98441SOL    HW297098   6.985  11.125   4.903
98442SOL     OW97099  10.377  11.517   5.022
98442SOL    HW197100  10.418  11.556   5.099
98442SOL    HW297101  10.444  11.460   4.986
98443SOL     OW97102  11.617   2.825  13.551
98443SOL    HW197103  11.581   2.896  13.605
98443SOL    HW297104  11.544   2.763  13.541
98444SOL     OW97105   6.015  11.078   2.338
98444SOL    HW197106   5.948  11.070   2.406
98444SOL    HW297107   6.017  10.991   2.297
98445SOL     OW97108   6.900  10.646  12.619
98445SOL    HW197109   6.847  10.610  12.549
98445SOL    HW297110   6.853  10.724  12.648
98446SOL     OW97111  14.172  11.515   6.271
98446SOL    HW197112  14.181  11.584   6.338
98446SOL    HW297113  14.079  11.518   6.246
98447SOL     OW97114  10.150   5.226   6.009
98447SOL    HW197115  10.061   5.205   6.034
98447SOL    HW297116  10.205   5.189   6.078
98448SOL     OW97117  14.518   4.638   6.015
98448SOL    HW197118  14.572   4.559   6.026
98448SOL    HW297119  14.490   4.635   5.923
98449SOL     OW97120   0.431   5.681   3.104
98449SOL    HW197121   0.381   5.717   3.030
98449SOL    HW297122   0.450   5.758   3.159
98450SOL     OW97123   8.725  14.042   1.473
98450SOL    HW197124   8.693  14.091   1.397
98450SOL    HW297125   8.812  14.011   1.447
98451SOL     OW97126  14.257   6.263  10.029
98451SOL    HW197127  14.226   6.181  10.067
98451SOL    HW297128  14.319   6.297  10.094
98452SOL     OW97129  13.671   2.081  10.152
98452SOL    HW197130  13.603   2.015  10.136
98452SOL    HW297131  13.689   2.117  10.065
98453SOL     OW97132  13.926   7.006   0.966
98453SOL    HW197133  13.893   7.092   0.992
98453SOL    HW297134  13.852   6.947   0.979
98454SOL     OW97135   2.724  10.083  12.203
98454SOL    HW197136   2.803  10.034  12.181
98454SOL    HW297137   2.712  10.069  12.296
98455SOL     OW97138  11.078   3.847  10.738
98455SOL    HW197139  11.007   3.867  10.798
98455SOL    HW297140  11.091   3.928  10.689
98456SOL     OW97141  10.574   9.263   2.957
98456SOL    HW197142  10.536   9.341   2.916
98456SOL    HW297143  10.505   9.197   2.951
98457SOL     OW97144   8.450   4.039   7.149
98457SOL    HW197145   8.379   3.976   7.134
98457SOL    HW297146   8.457   4.045   7.245
98458SOL     OW97147   8.521  10.521   5.381
98458SOL    HW197148   8.476  10.556   5.457
98458SOL    HW297149   8.582  10.456   5.417
98459SOL     OW97150  11.522   3.160   8.637
98459SOL    HW197151  11.436   3.118   8.631
98459SOL    HW297152  11.552   3.166   8.546
98460SOL     OW97153   4.301   3.379   1.766
98460SOL    HW197154   4.235   3.449   1.770
98460SOL    HW297155   4.361   3.399   1.838
98461SOL     OW97156  11.585   0.379   0.736
98461SOL    HW197157  11.672   0.414   0.716
98461SOL    HW297158  11.578   0.386   0.831
98462SOL     OW97159   5.060   4.545   1.474
98462SOL    HW197160   5.026   4.486   1.542
98462SOL    HW297161   5.137   4.500   1.440
98463SOL     OW97162   2.577  11.702   5.513
98463SOL    HW197163   2.513  11.773   5.501
98463SOL    HW297164   2.595  11.671   5.424
98464SOL     OW97165   0.902   0.446  14.408
98464SOL    HW197166   0.971   0.413  14.351
98464SOL    HW297167   0.905   0.390  14.485
98465SOL     OW97168   8.421   1.132   2.187
98465SOL    HW197169   8.341   1.175   2.217
98465SOL    HW297170   8.484   1.147   2.257
98466SOL     OW97171   4.862   9.057   2.655
98466SOL    HW197172   4.950   9.093   2.644
98466SOL    HW297173   4.814   9.085   2.578
98467SOL     OW97174   4.364   0.408   3.002
98467SOL    HW197175   4.276   0.444   2.996
98467SOL    HW297176   4.361   0.348   3.077
98468SOL     OW97177  14.595   2.797   4.089
98468SOL    HW197178  14.680   2.819   4.050
98468SOL    HW297179  14.531   2.831   4.027
98469SOL     OW97180   6.504  10.851   0.207
98469SOL    HW197181   6.496  10.790   0.280
98469SOL    HW297182   6.503  10.795   0.129
98470SOL     OW97183  12.432  12.896   6.288
98470SOL    HW197184  12.483  12.938   6.218
98470SOL    HW297185  12.348  12.943   6.288
98471SOL     OW97186  14.724   7.921   0.668
98471SOL    HW197187  14.685   7.843   0.627
98471SOL    HW297188  14.657   7.989   0.658
98472SOL     OW97189   8.261   8.678   7.742
98472SOL    HW197190   8.224   8.656   7.827
98472SOL    HW297191   8.341   8.726   7.761
98473SOL     OW97192  13.547   7.754   8.665
98473SOL    HW197193  13.636   7.723   8.652
98473SOL    HW297194  13.494   7.699   8.607
98474SOL     OW97195  10.003  10.479   3.502
98474SOL    HW197196   9.927  10.479   3.444
98474SOL    HW297197   9.995  10.560   3.552
98475SOL     OW97198  11.464   4.850   3.661
98475SOL    HW197199  11.416   4.894   3.731
98475SOL    HW297200  11.421   4.879   3.581
98476SOL     OW97201  14.469  12.678   9.214
98476SOL    HW197202  14.554  12.656   9.175
98476SOL    HW297203  14.428  12.736   9.151
98477SOL     OW97204   2.541   7.327   8.535
98477SOL    HW197205   2.453   7.290   8.536
98477SOL    HW297206   2.539   7.390   8.463
98478SOL     OW97207   0.110   3.233  11.278
98478SOL    HW197208   0.116   3.165  11.345
98478SOL    HW297209   0.031   3.211  11.229
98479SOL     OW97210   2.106   0.605   3.987
98479SOL    HW197211   2.053   0.684   4.005
98479SOL    HW297212   2.124   0.569   4.074
98480SOL     OW97213  10.327   7.139  14.156
98480SOL    HW197214  10.371   7.220  14.129
98480SOL    HW297215  10.259   7.126  14.090
98481SOL     OW97216   6.622   5.392  14.716
98481SOL    HW197217   6.704   5.428  14.748
98481SOL    HW297218   6.579   5.465  14.670
98482SOL     OW97219   0.809  13.264   5.920
98482SOL    HW197220   0.811  13.183   5.871
98482SOL    HW297221   0.900  13.280   5.946
98483SOL     OW97222  14.250  12.484   0.685
98483SOL    HW197223  14.327  12.508   0.633
98483SOL    HW297224  14.273  12.507   0.775
98484SOL     OW97225   8.917   6.107   6.761
98484SOL    HW197226   8.918   6.065   6.847
98484SOL    HW297227   8.829   6.091   6.727
98485SOL     OW97228  13.129   6.887  12.299
98485SOL    HW197229  13.149   6.927  12.215
98485SOL    HW297230  13.104   6.797  12.278
98486SOL     OW97231  14.042   6.850   2.718
98486SOL    HW197232  14.136   6.833   2.711
98486SOL    HW297233  14.017   6.882   2.631
98487SOL     OW97234   4.845  10.716   6.641
98487SOL    HW197235   4.850  10.621   6.647
98487SOL    HW297236   4.823  10.733   6.550
98488SOL     OW97237   8.082  14.670   3.910
98488SOL    HW197238   7.998  14.661   3.864
98488SOL    HW297239   8.128  14.588   3.891
98489SOL     OW97240  12.427   5.739   5.259
98489SOL    HW197241  12.489   5.811   5.247
98489SOL    HW297242  12.355   5.778   5.309
98490SOL     OW97243   9.033  14.451  12.468
98490SOL    HW197244   8.956  14.504  12.446
98490SOL    HW297245   9.032  14.379  12.405
98491SOL     OW97246   2.495   0.513  13.029
98491SOL    HW197247   2.525   0.468  12.950
98491SOL    HW297248   2.515   0.452  13.101
98492SOL     OW97249   6.628   0.629   1.648
98492SOL    HW197250   6.563   0.698   1.662
98492SOL    HW297251   6.615   0.601   1.558
98493SOL     OW97252  12.636   2.323   7.341
98493SOL    HW197253  12.731   2.313   7.330
98493SOL    HW297254  12.618   2.289   7.428
98494SOL     OW97255   1.293  12.070   7.328
98494SOL    HW197256   1.332  12.099   7.411
98494SOL    HW297257   1.328  12.130   7.262
98495SOL     OW97258  12.425   0.523  13.109
98495SOL    HW197259  12.347   0.555  13.063
98495SOL    HW297260  12.396   0.443  13.152
98496SOL     OW97261   6.817   6.053  12.044
98496SOL    HW197262   6.755   5.980  12.032
98496SOL    HW297263   6.769   6.130  12.015
98497SOL     OW97264  12.881   2.191  11.533
98497SOL    HW197265  12.843   2.210  11.447
98497SOL    HW297266  12.890   2.096  11.535
98498SOL     OW97267   8.934  11.053   1.386
98498SOL    HW197268   8.928  10.981   1.323
98498SOL    HW297269   9.012  11.034   1.438
98499SOL     OW97270  10.785   1.672   7.915
98499SOL    HW197271  10.723   1.675   7.988
98499SOL    HW297272  10.841   1.749   7.928
98500SOL     OW97273  14.553  13.021   8.335
98500SOL    HW197274  14.473  13.014   8.388
98500SOL    HW297275  14.559  12.936   8.291
98501SOL     OW97276   8.054   3.447  10.168
98501SOL    HW197277   8.035   3.540  10.158
98501SOL    HW297278   8.072   3.436  10.261
98502SOL     OW97279   2.716   7.254   7.272
98502SOL    HW197280   2.718   7.202   7.192
98502SOL    HW297281   2.807   7.276   7.289
98503SOL     OW97282   8.805  10.356   4.763
98503SOL    HW197283   8.873  10.408   4.719
98503SOL    HW297284   8.755  10.419   4.814
98504SOL     OW97285  11.998  10.298   3.903
98504SOL    HW197286  12.090  10.316   3.887
98504SOL    HW297287  11.958  10.384   3.916
98505SOL     OW97288  12.948  11.653   5.014
98505SOL    HW197289  12.886  11.595   4.969
98505SOL    HW297290  12.984  11.707   4.944
98506SOL     OW97291   1.743   1.298  10.359
98506SOL    HW197292   1.710   1.236  10.294
98506SOL    HW297293   1.723   1.257  10.443
98507SOL     OW97294   9.530   8.100  14.067
98507SOL    HW197295   9.621   8.075  14.053
98507SOL    HW297296   9.499   8.041  14.135
98508SOL     OW97297  13.010   9.288   2.069
98508SOL    HW197298  13.009   9.380   2.040
98508SOL    HW297299  13.005   9.293   2.164
98509SOL     OW97300   7.009  14.377  12.047
98509SOL    HW197301   7.011  14.470  12.023
98509SOL    HW297302   6.932  14.342  12.003
98510SOL     OW97303   1.194   0.244   1.974
98510SOL    HW197304   1.114   0.191   1.974
98510SOL    HW297305   1.169   0.325   2.018
98511SOL     OW97306  14.191   1.257  13.547
98511SOL    HW197307  14.212   1.310  13.624
98511SOL    HW297308  14.116   1.301  13.507
98512SOL     OW97309   5.778   3.500  10.126
98512SOL    HW197310   5.771   3.508  10.031
98512SOL    HW297311   5.687   3.505  10.157
98513SOL     OW97312   8.461   9.225   2.860
98513SOL    HW197313   8.451   9.182   2.775
98513SOL    HW297314   8.390   9.289   2.863
98514SOL     OW97315  14.713   4.834   1.033
98514SOL    HW197316  14.656   4.806   0.961
98514SOL    HW297317  14.762   4.755   1.058
98515SOL     OW97318  10.031  10.164   4.451
98515SOL    HW197319  10.077  10.235   4.497
98515SOL    HW297320  10.018  10.198   4.362
98516SOL     OW97321  14.408  14.107   8.100
98516SOL    HW197322  14.342  14.144   8.040
98516SOL    HW297323  14.376  14.019   8.120
98517SOL     OW97324   4.624  13.055  13.034
98517SOL    HW197325   4.702  13.105  13.056
98517SOL    HW297326   4.638  13.026  12.944
98518SOL     OW97327   7.612   3.232  13.352
98518SOL    HW197328   7.649   3.311  13.390
98518SOL    HW297329   7.545   3.205  13.414
98519SOL     OW97330   1.962   6.273   5.226
98519SOL    HW197331   1.965   6.239   5.137
98519SOL    HW297332   2.029   6.224   5.273
98520SOL     OW97333  12.435  11.991   5.811
98520SOL    HW197334  12.491  12.043   5.752
98520SOL    HW297335  12.351  12.037   5.810
98521SOL     OW97336   4.335   5.102  11.848
98521SOL    HW197337   4.262   5.154  11.883
98521SOL    HW297338   4.297   5.055  11.774
98522SOL     OW97339   7.708   6.442  14.234
98522SOL    HW197340   7.700   6.424  14.140
98522SOL    HW297341   7.800   6.424  14.254
98523SOL     OW97342  12.960   1.612  11.444
98523SOL    HW197343  12.983   1.536  11.390
98523SOL    HW297344  13.001   1.686  11.400
98524SOL     OW97345  13.402   1.966   9.620
98524SOL    HW197346  13.491   1.961   9.585
98524SOL    HW297347  13.385   1.879   9.655
98525SOL     OW97348   8.815   7.943   9.915
98525SOL    HW197349   8.741   7.884   9.928
98525SOL    HW297350   8.891   7.895   9.948
98526SOL     OW97351   6.418   9.004   3.876
98526SOL    HW197352   6.374   8.934   3.925
98526SOL    HW297353   6.438   9.071   3.942
98527SOL     OW97354   5.360  11.879   0.322
98527SOL    HW197355   5.380  11.808   0.261
98527SOL    HW297356   5.359  11.837   0.408
98528SOL     OW97357   3.876   3.906  10.644
98528SOL    HW197358   3.847   3.923  10.734
98528SOL    HW297359   3.862   3.812  10.632
98529SOL     OW97360   2.524   6.691   0.298
98529SOL    HW197361   2.488   6.731   0.220
98529SOL    HW297362   2.465   6.617   0.317
98530SOL     OW97363  10.879  10.369   6.711
98530SOL    HW197364  10.908  10.435   6.774
98530SOL    HW297365  10.784  10.377   6.709
98531SOL     OW97366   0.120   6.161   9.730
98531SOL    HW197367   0.041   6.211   9.748
98531SOL    HW297368   0.191   6.225   9.735
98532SOL     OW97369   1.123   1.933  13.951
98532SOL    HW197370   1.110   1.921  13.857
98532SOL    HW297371   1.087   1.854  13.991
98533SOL     OW97372   1.622   3.024   0.429
98533SOL    HW197373   1.696   3.053   0.482
98533SOL    HW297374   1.583   2.952   0.479
98534SOL     OW97375  13.844  12.119   9.203
98534SOL    HW197376  13.923  12.114   9.256
98534SOL    HW297377  13.863  12.066   9.126
98535SOL     OW97378   8.030   2.980  14.552
98535SOL    HW197379   8.076   3.032  14.486
98535SOL    HW297380   8.005   2.900  14.506
98536SOL     OW97381   6.562  13.941  13.834
98536SOL    HW197382   6.470  13.950  13.859
98536SOL    HW297383   6.607  13.919  13.915
98537SOL     OW97384  10.968   7.416   3.691
98537SOL    HW197385  10.994   7.430   3.782
98537SOL    HW297386  10.891   7.360   3.696
98538SOL     OW97387  11.220   7.228   0.753
98538SOL    HW197388  11.210   7.275   0.670
98538SOL    HW297389  11.184   7.289   0.818
98539SOL     OW97390   5.178  12.970  12.535
98539SOL    HW197391   5.194  13.064  12.542
98539SOL    HW297392   5.165  12.941  12.625
98540SOL     OW97393  12.736   0.140   9.447
98540SOL    HW197394  12.786   0.094   9.515
98540SOL    HW297395  12.687   0.070   9.403
98541SOL     OW97396  14.017   6.629  12.843
98541SOL    HW197397  14.014   6.538  12.873
98541SOL    HW297398  14.017   6.681  12.924
98542SOL     OW97399   7.705   5.080  12.605
98542SOL    HW197400   7.756   5.152  12.566
98542SOL    HW297401   7.705   5.012  12.537
98543SOL     OW97402   0.927   5.753  14.490
98543SOL    HW197403   1.019   5.736  14.468
98543SOL    HW297404   0.878   5.704  14.424
98544SOL     OW97405  14.398   0.789  12.418
98544SOL    HW197406  14.362   0.878  12.414
98544SOL    HW297407  14.375   0.751  12.333
98545SOL     OW97408   9.070  13.890  11.444
98545SOL    HW197409   9.141  13.857  11.499
98545SOL    HW297410   8.995  13.898  11.503
98546SOL     OW97411   3.640  13.274   5.860
98546SOL    HW197412   3.720  13.222   5.873
98546SOL    HW297413   3.601  13.238   5.781
98547SOL     OW97414  11.105   2.030   4.905
98547SOL    HW197415  11.111   2.092   4.832
98547SOL    HW297416  11.059   1.954   4.868
98548SOL     OW97417   7.171   5.087   4.275
98548SOL    HW197418   7.220   5.163   4.306
98548SOL    HW297419   7.228   5.013   4.294
98549SOL     OW97420   9.125   3.286   8.110
98549SOL    HW197421   9.063   3.223   8.146
98549SOL    HW297422   9.199   3.285   8.172
98550SOL     OW97423   2.204   2.623   8.370
98550SOL    HW197424   2.208   2.551   8.307
98550SOL    HW297425   2.213   2.579   8.455
98551SOL     OW97426   8.418  12.541   1.959
98551SOL    HW197427   8.391  12.450   1.971
98551SOL    HW297428   8.335  12.588   1.946
98552SOL     OW97429   0.338   2.219   5.252
98552SOL    HW197430   0.316   2.310   5.230
98552SOL    HW297431   0.291   2.167   5.187
98553SOL     OW97432   6.433   0.512   0.097
98553SOL    HW197433   6.511   0.566   0.112
98553SOL    HW297434   6.468   0.427   0.070
98554SOL     OW97435   3.742   4.670  11.766
98554SOL    HW197436   3.721   4.737  11.831
98554SOL    HW297437   3.833   4.688  11.741
98555SOL     OW97438   6.460  13.931   1.488
98555SOL    HW197439   6.392  13.878   1.529
98555SOL    HW297440   6.538  13.875   1.491
98556SOL     OW97441  10.953   2.101  12.562
98556SOL    HW197442  10.956   2.089  12.657
98556SOL    HW297443  10.943   2.196  12.551
98557SOL     OW97444   8.749  11.134  11.302
98557SOL    HW197445   8.765  11.045  11.271
98557SOL    HW297446   8.717  11.181  11.224
98558SOL     OW97447   5.631   7.404   4.773
98558SOL    HW197448   5.566   7.474   4.770
98558SOL    HW297449   5.714   7.448   4.789
98559SOL     OW97450   1.438  10.200  10.606
98559SOL    HW197451   1.514  10.248  10.572
98559SOL    HW297452   1.393  10.263  10.662
98560SOL     OW97453   1.768   7.470   0.966
98560SOL    HW197454   1.683   7.428   0.973
98560SOL    HW297455   1.809   7.430   0.889
98561SOL     OW97456   4.957   4.953   4.159
98561SOL    HW197457   5.049   4.927   4.166
98561SOL    HW297458   4.959   5.032   4.104
98562SOL     OW97459   9.184   4.671   0.971
98562SOL    HW197460   9.171   4.658   0.877
98562SOL    HW297461   9.095   4.682   1.006
98563SOL     OW97462   7.322   0.812   6.688
98563SOL    HW197463   7.345   0.720   6.701
98563SOL    HW297464   7.406   0.859   6.691
98564SOL     OW97465  12.367  13.284  14.206
98564SOL    HW197466  12.437  13.332  14.251
98564SOL    HW297467  12.292  13.290  14.264
98565SOL     OW97468  11.964   7.608  10.791
98565SOL    HW197469  11.995   7.697  10.811
98565SOL    HW297470  11.913   7.583  10.868
98566SOL     OW97471  13.614   2.031  11.614
98566SOL    HW197472  13.542   2.093  11.620
98566SOL    HW297473  13.638   2.013  11.705
98567SOL     OW97474  13.169   1.771   0.540
98567SOL    HW197475  13.110   1.817   0.599
98567SOL    HW297476  13.113   1.709   0.493
98568SOL     OW97477   6.505   1.921  12.226
98568SOL    HW197478   6.465   1.871  12.297
98568SOL    HW297479   6.595   1.887  12.221
98569SOL     OW97480  12.944   8.158  10.824
98569SOL    HW197481  12.910   8.072  10.848
98569SOL    HW297482  12.942   8.159  10.728
98570SOL     OW97483   0.324  14.820   0.179
98570SOL    HW197484   0.290  14.836   0.267
98570SOL    HW297485   0.259  14.764   0.137
98571SOL     OW97486  10.381   0.400   2.207
98571SOL    HW197487  10.320   0.336   2.244
98571SOL    HW297488  10.410   0.452   2.283
98572SOL     OW97489   6.569  13.645   8.235
98572SOL    HW197490   6.653  13.609   8.262
98572SOL    HW297491   6.576  13.654   8.140
98573SOL     OW97492   0.437  12.751   1.220
98573SOL    HW197493   0.444  12.680   1.155
98573SOL    HW297494   0.515  12.804   1.205
98574SOL     OW97495  13.324  13.869   4.372
98574SOL    HW197496  13.303  13.873   4.278
98574SOL    HW297497  13.381  13.792   4.380
98575SOL     OW97498   1.577  12.682   3.485
98575SOL    HW197499   1.662  12.638   3.480
98575SOL    HW297500   1.556  12.705   3.395
98576SOL     OW97501   5.371   8.552   5.725
98576SOL    HW197502   5.353   8.476   5.670
98576SOL    HW297503   5.401   8.515   5.808
98577SOL     OW97504   1.078  12.997   3.510
98577SOL    HW197505   1.064  13.083   3.550
98577SOL    HW297506   1.133  13.015   3.433
98578SOL     OW97507  12.811   2.948  11.717
98578SOL    HW197508  12.728   2.901  11.704
98578SOL    HW297509  12.823   2.950  11.812
98579SOL     OW97510   7.034   4.180   0.594
98579SOL    HW197511   6.994   4.176   0.507
98579SOL    HW297512   6.978   4.125   0.649
98580SOL     OW97513   4.431  11.193   2.668
98580SOL    HW197514   4.511  11.152   2.699
98580SOL    HW297515   4.364  11.125   2.675
98581SOL     OW97516   0.955   7.409   6.138
98581SOL    HW197517   0.896   7.471   6.181
98581SOL    HW297518   0.983   7.350   6.208
98582SOL     OW97519   1.024   6.428   1.417
98582SOL    HW197520   1.019   6.333   1.403
98582SOL    HW297521   1.096   6.440   1.478
98583SOL     OW97522   0.927  10.164   0.031
98583SOL    HW197523   0.866  10.156  14.839
98583SOL    HW297524   1.011  10.134  14.876
98584SOL     OW97525  11.197   6.264  14.671
98584SOL    HW197526  11.167   6.188  14.719
98584SOL    HW297527  11.152   6.338  14.712
98585SOL     OW97528   6.340   6.668  12.468
98585SOL    HW197529   6.296   6.584  12.451
98585SOL    HW297530   6.268   6.730  12.483
98586SOL     OW97531  10.412   3.818   9.739
98586SOL    HW197532  10.323   3.836   9.768
98586SOL    HW297533  10.407   3.734   9.694
98587SOL     OW97534   8.229   5.716   3.484
98587SOL    HW197535   8.235   5.773   3.560
98587SOL    HW297536   8.136   5.716   3.461
98588SOL     OW97537  12.555   2.777  12.369
98588SOL    HW197538  12.650   2.778  12.370
98588SOL    HW297539  12.530   2.856  12.320
98589SOL     OW97540   7.515   3.845  11.496
98589SOL    HW197541   7.606   3.818  11.487
98589SOL    HW297542   7.519   3.935  11.529
98590SOL     OW97543  10.275   5.622   3.462
98590SOL    HW197544  10.358   5.578   3.442
98590SOL    HW297545  10.275   5.630   3.558
98591SOL     OW97546   7.595  10.941  13.402
98591SOL    HW197547   7.657  10.870  13.391
98591SOL    HW297548   7.520  10.918  13.347
98592SOL     OW97549   0.392  14.242   7.687
98592SOL    HW197550   0.483  14.261   7.663
98592SOL    HW297551   0.368  14.314   7.746
98593SOL     OW97552   2.757  11.240   6.148
98593SOL    HW197553   2.816  11.268   6.078
98593SOL    HW297554   2.691  11.310   6.152
98594SOL     OW97555  10.313   6.643   9.244
98594SOL    HW197556  10.373   6.669   9.313
98594SOL    HW297557  10.250   6.585   9.287
98595SOL     OW97558   4.465  13.021   5.286
98595SOL    HW197559   4.467  12.986   5.197
98595SOL    HW297560   4.548  12.992   5.324
98596SOL     OW97561   8.705   0.553  10.627
98596SOL    HW197562   8.639   0.609  10.586
98596SOL    HW297563   8.789   0.595  10.605
98597SOL     OW97564   2.269   0.646   9.814
98597SOL    HW197565   2.213   0.570   9.831
98597SOL    HW297566   2.333   0.615   9.751
98598SOL     OW97567   1.650   9.280   3.559
98598SOL    HW197568   1.725   9.251   3.508
98598SOL    HW297569   1.640   9.373   3.536
98599SOL     OW97570   3.743   0.113   4.990
98599SOL    HW197571   3.752   0.037   4.933
98599SOL    HW297572   3.717   0.077   5.075
98600SOL     OW97573   6.219   3.232   6.307
98600SOL    HW197574   6.139   3.263   6.263
98600SOL    HW297575   6.210   3.137   6.308
98601SOL     OW97576   2.155   6.695   1.484
98601SOL    HW197577   2.228   6.729   1.536
98601SOL    HW297578   2.140   6.607   1.518
98602SOL     OW97579   6.830   4.647   6.693
98602SOL    HW197580   6.791   4.677   6.611
98602SOL    HW297581   6.816   4.552   6.692
98603SOL     OW97582   8.795  13.523   3.740
98603SOL    HW197583   8.807  13.560   3.827
98603SOL    HW297584   8.872  13.552   3.690
98604SOL     OW97585   2.080  11.843  12.026
98604SOL    HW197586   1.984  11.842  12.026
98604SOL    HW297587   2.104  11.762  11.980
98605SOL     OW97588   6.532  11.398   8.153
98605SOL    HW197589   6.528  11.421   8.245
98605SOL    HW297590   6.515  11.304   8.151
98606SOL     OW97591   3.990   1.192   9.826
98606SOL    HW197592   3.954   1.104   9.834
98606SOL    HW297593   3.918   1.250   9.850
98607SOL     OW97594  11.496   9.257  13.343
98607SOL    HW197595  11.510   9.300  13.427
98607SOL    HW297596  11.403   9.271  13.324
98608SOL     OW97597   3.827  11.436   8.780
98608SOL    HW197598   3.752  11.427   8.722
98608SOL    HW297599   3.789  11.434   8.868
98609SOL     OW97600   1.079   9.459   2.526
98609SOL    HW197601   0.996   9.503   2.507
98609SOL    HW297602   1.057   9.392   2.590
98610SOL     OW97603  11.643  12.289  12.052
98610SOL    HW197604  11.672  12.361  11.997
98610SOL    HW297605  11.555  12.314  12.081
98611SOL     OW97606   7.686   1.139   0.749
98611SOL    HW197607   7.631   1.103   0.679
98611SOL    HW297608   7.755   1.074   0.760
98612SOL     OW97609   1.632   6.008  14.533
98612SOL    HW197610   1.604   5.975  14.448
98612SOL    HW297611   1.662   5.931  14.580
98613SOL     OW97612  10.207   7.483   0.894
98613SOL    HW197613  10.155   7.528   0.961
98613SOL    HW297614  10.295   7.479   0.931
98614SOL     OW97615   4.205  12.256   9.384
98614SOL    HW197616   4.278  12.227   9.329
98614SOL    HW297617   4.240  12.253   9.473
98615SOL     OW97618   2.102   7.755   8.382
98615SOL    HW197619   2.170   7.782   8.320
98615SOL    HW297620   2.054   7.835   8.400
98616SOL     OW97621   9.874   8.411   2.317
98616SOL    HW197622   9.780   8.418   2.305
98616SOL    HW297623   9.912   8.475   2.257
98617SOL     OW97624   8.243  10.700  14.220
98617SOL    HW197625   8.172  10.754  14.183
98617SOL    HW297626   8.272  10.749  14.297
98618SOL     OW97627  10.607  13.765   2.527
98618SOL    HW197628  10.645  13.685   2.490
98618SOL    HW297629  10.518  13.768   2.490
98619SOL     OW97630  13.140  13.177   1.757
98619SOL    HW197631  13.114  13.092   1.792
98619SOL    HW297632  13.124  13.170   1.663
98620SOL     OW97633   2.445   2.987   0.309
98620SOL    HW197634   2.404   2.993   0.396
98620SOL    HW297635   2.536   2.965   0.327
98621SOL     OW97636   8.034   9.508   4.666
98621SOL    HW197637   7.993   9.426   4.695
98621SOL    HW297638   7.960   9.565   4.645
98622SOL     OW97639   4.371  11.706  11.866
98622SOL    HW197640   4.345  11.664  11.784
98622SOL    HW297641   4.288  11.726  11.909
98623SOL     OW97642  11.380  11.529  11.094
98623SOL    HW197643  11.306  11.483  11.133
98623SOL    HW297644  11.340  11.592  11.034
98624SOL     OW97645   6.475   9.064   0.430
98624SOL    HW197646   6.472   8.979   0.386
98624SOL    HW297647   6.385   9.079   0.458
98625SOL     OW97648   9.473  12.551   7.276
98625SOL    HW197649   9.435  12.545   7.364
98625SOL    HW297650   9.407  12.510   7.219
98626SOL     OW97651  10.467   7.116   0.418
98626SOL    HW197652  10.561   7.132   0.421
98626SOL    HW297653  10.459   7.035   0.366
98627SOL     OW97654   9.756   4.005   6.401
98627SOL    HW197655   9.729   4.077   6.345
98627SOL    HW297656   9.803   3.945   6.342
98628SOL     OW97657   6.973   1.712   1.335
98628SOL    HW197658   6.988   1.708   1.241
98628SOL    HW297659   6.885   1.750   1.344
98629SOL     OW97660   4.749   5.166  14.035
98629SOL    HW197661   4.688   5.170  14.109
98629SOL    HW297662   4.724   5.087  13.987
98630SOL     OW97663  10.235   9.324   7.845
98630SOL    HW197664  10.297   9.360   7.907
98630SOL    HW297665  10.247   9.376   7.765
98631SOL     OW97666   3.876   8.817   2.532
98631SOL    HW197667   3.818   8.812   2.456
98631SOL    HW297668   3.952   8.867   2.501
98632SOL     OW97669  10.818  14.010   3.991
98632SOL    HW197670  10.846  13.982   4.079
98632SOL    HW297671  10.895  14.053   3.955
98633SOL     OW97672   6.483   2.617   0.892
98633SOL    HW197673   6.419   2.571   0.837
98633SOL    HW297674   6.461   2.710   0.881
98634SOL     OW97675  14.032  11.219  13.209
98634SOL    HW197676  14.099  11.167  13.254
98634SOL    HW297677  13.954  11.208  13.262
98635SOL     OW97678   1.697  12.404   7.610
98635SOL    HW197679   1.771  12.373   7.557
98635SOL    HW297680   1.685  12.336   7.676
98636SOL     OW97681   4.029   9.697   9.627
98636SOL    HW197682   4.058   9.758   9.694
98636SOL    HW297683   3.990   9.752   9.559
98637SOL     OW97684  12.396  10.840  13.231
98637SOL    HW197685  12.399  10.933  13.211
98637SOL    HW297686  12.334  10.833  13.304
98638SOL     OW97687  12.345  12.610  12.377
98638SOL    HW197688  12.339  12.526  12.423
98638SOL    HW297689  12.325  12.589  12.286
98639SOL     OW97690   7.460   3.520  13.720
98639SOL    HW197691   7.478   3.540  13.628
98639SOL    HW297692   7.365   3.528  13.728
98640SOL     OW97693   1.622   9.577   1.676
98640SOL    HW197694   1.609   9.623   1.593
98640SOL    HW297695   1.533   9.554   1.704
98641SOL     OW97696  10.407  10.056   7.459
98641SOL    HW197697  10.362   9.972   7.450
98641SOL    HW297698  10.495  10.040   7.426
98642SOL     OW97699   0.027   6.843   2.795
98642SOL    HW197700   0.110   6.804   2.820
98642SOL    HW297701  14.877   6.789   2.723
98643SOL     OW97702   0.122   7.942   0.745
98643SOL    HW197703   0.030   7.953   0.722
98643SOL    HW297704   0.157   7.884   0.677
98644SOL     OW97705   2.308   9.778   4.005
98644SOL    HW197706   2.309   9.740   4.093
98644SOL    HW297707   2.364   9.856   4.013
98645SOL     OW97708   9.652  10.620   8.334
98645SOL    HW197709   9.643  10.615   8.430
98645SOL    HW297710   9.564  10.608   8.301
98646SOL     OW97711   1.479  11.217   0.174
98646SOL    HW197712   1.574  11.202   0.174
98646SOL    HW297713   1.441  11.131   0.160
98647SOL     OW97714   6.694   5.580  14.452
98647SOL    HW197715   6.654   5.664  14.428
98647SOL    HW297716   6.637   5.514  14.411
98648SOL     OW97717   1.136   8.497   3.450
98648SOL    HW197718   1.202   8.435   3.481
98648SOL    HW297719   1.180   8.582   3.455
98649SOL     OW97720  11.457   6.821  12.215
98649SOL    HW197721  11.450   6.787  12.304
98649SOL    HW297722  11.373   6.865  12.200
98650SOL     OW97723  13.662  10.870  13.221
98650SOL    HW197724  13.678  10.929  13.147
98650SOL    HW297725  13.584  10.821  13.196
98651SOL     OW97726  12.224   0.443   4.484
98651SOL    HW197727  12.167   0.382   4.531
98651SOL    HW297728  12.263   0.390   4.414
98652SOL     OW97729   4.163   5.424   5.458
98652SOL    HW197730   4.187   5.353   5.399
98652SOL    HW297731   4.226   5.418   5.530
98653SOL     OW97732   6.426  11.098  12.034
98653SOL    HW197733   6.488  11.069  11.968
98653SOL    HW297734   6.340  11.076  11.998
98654SOL     OW97735   2.670   3.848   4.215
98654SOL    HW197736   2.624   3.849   4.131
98654SOL    HW297737   2.755   3.888   4.197
98655SOL     OW97738   3.473  14.562  12.047
98655SOL    HW197739   3.525  14.613  11.986
98655SOL    HW297740   3.386  14.560  12.008
98656SOL     OW97741  13.373   1.859  11.143
98656SOL    HW197742  13.281   1.862  11.167
98656SOL    HW297743  13.393   1.766  11.134
98657SOL     OW97744   2.067  14.549   3.379
98657SOL    HW197745   2.017  14.580   3.303
98657SOL    HW297746   2.092  14.629   3.425
98658SOL     OW97747   2.877  13.787   7.439
98658SOL    HW197748   2.790  13.813   7.410
98658SOL    HW297749   2.885  13.826   7.527
98659SOL     OW97750  11.160   1.765  14.858
98659SOL    HW197751  11.250   1.747  14.828
98659SOL    HW297752  11.105   1.741  14.783
98660SOL     OW97753   8.036   9.240   6.715
98660SOL    HW197754   8.058   9.187   6.638
98660SOL    HW297755   8.101   9.311   6.714
98661SOL     OW97756  14.744   8.250   8.758
98661SOL    HW197757  14.777   8.189   8.693
98661SOL    HW297758  14.823   8.293   8.792
98662SOL     OW97759   8.371   0.477  13.150
98662SOL    HW197760   8.356   0.527  13.070
98662SOL    HW297761   8.377   0.542  13.219
98663SOL     OW97762   4.311  10.722   4.170
98663SOL    HW197763   4.275  10.782   4.235
98663SOL    HW297764   4.274  10.751   4.087
98664SOL     OW97765   7.485  11.783  11.161
98664SOL    HW197766   7.423  11.715  11.133
98664SOL    HW297767   7.454  11.863  11.119
98665SOL     OW97768   7.970  10.696   8.893
98665SOL    HW197769   7.934  10.619   8.848
98665SOL    HW297770   8.041  10.662   8.947
98666SOL     OW97771   6.623   6.428  13.396
98666SOL    HW197772   6.613   6.523  13.403
98666SOL    HW297773   6.647   6.413  13.305
98667SOL     OW97774  10.380   0.544   9.325
98667SOL    HW197775  10.291   0.579   9.326
98667SOL    HW297776  10.435   0.618   9.298
98668SOL     OW97777   5.822   5.900  12.972
98668SOL    HW197778   5.853   5.896  12.882
98668SOL    HW297779   5.780   5.815  12.987
98669SOL     OW97780   5.019   4.235   7.056
98669SOL    HW197781   5.074   4.161   7.033
98669SOL    HW297782   4.991   4.271   6.971
98670SOL     OW97783   5.876   3.862  10.220
98670SOL    HW197784   5.936   3.935  10.214
98670SOL    HW297785   5.897   3.820  10.303
98671SOL     OW97786   8.447  12.663  13.753
98671SOL    HW197787   8.386  12.733  13.776
98671SOL    HW297788   8.490  12.694  13.673
98672SOL     OW97789   9.674  14.253  10.448
98672SOL    HW197790   9.641  14.340  10.470
98672SOL    HW297791   9.646  14.197  10.520
98673SOL     OW97792  14.164   2.346   8.391
98673SOL    HW197793  14.243   2.304   8.359
98673SOL    HW297794  14.104   2.344   8.316
98674SOL     OW97795  13.337  13.966   4.979
98674SOL    HW197796  13.287  13.919   5.046
98674SOL    HW297797  13.367  13.899   4.918
98675SOL     OW97798   5.747   7.750  11.716
98675SOL    HW197799   5.706   7.831  11.686
98675SOL    HW297800   5.839   7.774  11.730
98676SOL     OW97801  10.418  10.276   9.310
98676SOL    HW197802  10.488  10.228   9.266
98676SOL    HW297803  10.337  10.237   9.276
98677SOL     OW97804   4.290   7.634  11.373
98677SOL    HW197805   4.330   7.687  11.304
98677SOL    HW297806   4.209   7.679  11.395
98678SOL     OW97807  12.709  11.068   9.187
98678SOL    HW197808  12.633  11.016   9.212
98678SOL    HW297809  12.776  11.004   9.164
98679SOL     OW97810   0.133   4.302   7.423
98679SOL    HW197811   0.173   4.307   7.336
98679SOL    HW297812   0.090   4.387   7.434
98680SOL     OW97813   1.118   1.385   8.843
98680SOL    HW197814   1.081   1.407   8.928
98680SOL    HW297815   1.191   1.446   8.831
98681SOL     OW97816   6.865  13.451   2.584
98681SOL    HW197817   6.894  13.404   2.662
98681SOL    HW297818   6.944  13.455   2.529
98682SOL     OW97819  12.195   8.945  12.498
98682SOL    HW197820  12.237   8.865  12.530
98682SOL    HW297821  12.158   8.985  12.576
98683SOL     OW97822   5.957  10.433   7.025
98683SOL    HW197823   6.016  10.456   6.952
98683SOL    HW297824   5.870  10.429   6.985
98684SOL     OW97825   6.559   4.766   3.619
98684SOL    HW197826   6.643   4.804   3.642
98684SOL    HW297827   6.495   4.821   3.664
98685SOL     OW97828   2.871  10.283  12.821
98685SOL    HW197829   2.963  10.304  12.805
98685SOL    HW297830   2.835  10.265  12.734
98686SOL     OW97831   2.793   3.766  14.319
98686SOL    HW197832   2.862   3.824  14.351
98686SOL    HW297833   2.832   3.679  14.321
98687SOL     OW97834  13.504  10.943   3.738
98687SOL    HW197835  13.433  11.001   3.767
98687SOL    HW297836  13.528  10.894   3.817
98688SOL     OW97837   2.314   4.438   7.531
98688SOL    HW197838   2.377   4.462   7.463
98688SOL    HW297839   2.321   4.343   7.538
98689SOL     OW97840  10.603   1.818   9.027
98689SOL    HW197841  10.514   1.852   9.029
98689SOL    HW297842  10.628   1.820   8.934
98690SOL     OW97843  13.426   8.372  13.916
98690SOL    HW197844  13.340   8.389  13.954
98690SOL    HW297845  13.421   8.411  13.829
98691SOL     OW97846  13.112   1.366  12.982
98691SOL    HW197847  13.042   1.301  12.992
98691SOL    HW297848  13.067   1.450  12.995
98692SOL     OW97849   0.629  14.345   2.797
98692SOL    HW197850   0.599  14.336   2.887
98692SOL    HW297851   0.568  14.290   2.746
98693SOL     OW97852   3.120  11.020   4.052
98693SOL    HW197853   3.142  10.944   4.106
98693SOL    HW297854   3.124  10.987   3.962
98694SOL     OW97855   5.727  14.729   4.935
98694SOL    HW197856   5.639  14.761   4.953
98694SOL    HW297857   5.776  14.806   4.909
98695SOL     OW97858  10.645   8.520   9.821
98695SOL    HW197859  10.640   8.526   9.916
98695SOL    HW297860  10.728   8.563   9.799
98696SOL     OW97861   7.501  10.534   0.570
98696SOL    HW197862   7.460  10.544   0.484
98696SOL    HW297863   7.470  10.449   0.601
98697SOL     OW97864   1.500   8.989   0.982
98697SOL    HW197865   1.480   8.970   0.891
98697SOL    HW297866   1.591   9.020   0.981
98698SOL     OW97867  12.538   2.689   6.243
98698SOL    HW197868  12.591   2.613   6.219
98698SOL    HW297869  12.600   2.751   6.280
98699SOL     OW97870   2.638   9.247  14.618
98699SOL    HW197871   2.687   9.327  14.640
98699SOL    HW297872   2.682   9.178  14.668
98700SOL     OW97873   6.984  13.295   3.991
98700SOL    HW197874   6.999  13.390   3.996
98700SOL    HW297875   7.010  13.271   3.902
98701SOL     OW97876  11.489   1.607   0.010
98701SOL    HW197877  11.554   1.562   0.063
98701SOL    HW297878  11.405   1.577   0.044
98702SOL     OW97879   9.250   0.893   3.610
98702SOL    HW197880   9.322   0.863   3.554
98702SOL    HW297881   9.218   0.972   3.566
98703SOL     OW97882  14.296   3.609   8.726
98703SOL    HW197883  14.250   3.646   8.801
98703SOL    HW297884  14.255   3.649   8.650
98704SOL     OW97885   8.892   9.322  12.025
98704SOL    HW197886   8.847   9.289  11.947
98704SOL    HW297887   8.976   9.355  11.992
98705SOL     OW97888   6.498   3.340   6.607
98705SOL    HW197889   6.487   3.434   6.595
98705SOL    HW297890   6.410   3.304   6.594
98706SOL     OW97891  13.727   2.060   7.024
98706SOL    HW197892  13.650   2.072   6.967
98706SOL    HW297893  13.746   1.967   7.019
98707SOL     OW97894   5.026   3.309   9.210
98707SOL    HW197895   5.014   3.223   9.170
98707SOL    HW297896   4.981   3.369   9.150
98708SOL     OW97897   1.556   6.580   7.175
98708SOL    HW197898   1.461   6.575   7.180
98708SOL    HW297899   1.579   6.653   7.232
98709SOL     OW97900   6.440  12.754   3.400
98709SOL    HW197901   6.352  12.769   3.368
98709SOL    HW297902   6.442  12.661   3.424
98710SOL     OW97903  10.854   4.688   1.624
98710SOL    HW197904  10.808   4.666   1.705
98710SOL    HW297905  10.947   4.681   1.647
98711SOL     OW97906   7.991  13.678   2.954
98711SOL    HW197907   7.989  13.770   2.928
98711SOL    HW297908   8.083  13.652   2.946
98712SOL     OW97909   6.740   8.673   8.021
98712SOL    HW197910   6.818   8.645   7.974
98712SOL    HW297911   6.707   8.748   7.971
98713SOL     OW97912   4.601   5.558  13.165
98713SOL    HW197913   4.617   5.642  13.208
98713SOL    HW297914   4.684   5.511  13.173
98714SOL     OW97915  13.334  14.323  10.584
98714SOL    HW197916  13.415  14.359  10.618
98714SOL    HW297917  13.265  14.381  10.617
98715SOL     OW97918  13.819  13.063   3.833
98715SOL    HW197919  13.728  13.054   3.861
98715SOL    HW297920  13.847  12.974   3.813
98716SOL     OW97921   6.398  12.084  12.286
98716SOL    HW197922   6.441  12.159  12.246
98716SOL    HW297923   6.470  12.031  12.321
98717SOL     OW97924   7.018   2.831   9.029
98717SOL    HW197925   6.938   2.871   9.062
98717SOL    HW297926   7.086   2.860   9.090
98718SOL     OW97927   9.891   0.648   8.429
98718SOL    HW197928   9.832   0.720   8.410
98718SOL    HW297929   9.927   0.669   8.516
98719SOL     OW97930   5.101  14.805  12.322
98719SOL    HW197931   5.196  14.805  12.333
98719SOL    HW297932   5.079  14.714  12.300
98720SOL     OW97933   0.290   5.459  11.721
98720SOL    HW197934   0.378   5.463  11.758
98720SOL    HW297935   0.237   5.418  11.789
98721SOL     OW97936   1.113  10.433  10.563
98721SOL    HW197937   1.130  10.409  10.654
98721SOL    HW297938   1.097  10.349  10.519
98722SOL     OW97939   4.856  13.761  14.113
98722SOL    HW197940   4.900  13.681  14.139
98722SOL    HW297941   4.920  13.806  14.057
98723SOL     OW97942   3.187  14.586   1.394
98723SOL    HW197943   3.166  14.664   1.445
98723SOL    HW297944   3.256  14.543   1.444
98724SOL     OW97945   3.259  10.134   1.762
98724SOL    HW197946   3.231  10.056   1.811
98724SOL    HW297947   3.289  10.101   1.678
98725SOL     OW97948   4.954   9.670   1.831
98725SOL    HW197949   4.876   9.699   1.783
98725SOL    HW297950   4.988   9.597   1.779
98726SOL     OW97951   4.687   0.753   2.481
98726SOL    HW197952   4.757   0.810   2.513
98726SOL    HW297953   4.661   0.791   2.398
98727SOL     OW97954  10.524   4.814  13.538
98727SOL    HW197955  10.531   4.831  13.632
98727SOL    HW297956  10.554   4.724  13.527
98728SOL     OW97957   7.189  13.689   1.552
98728SOL    HW197958   7.211  13.683   1.645
98728SOL    HW297959   7.094  13.699   1.550
98729SOL     OW97960  14.651   3.497  10.593
98729SOL    HW197961  14.609   3.580  10.616
98729SOL    HW297962  14.676   3.459  10.677
98730SOL     OW97963   9.113   5.193   2.848
98730SOL    HW197964   9.158   5.126   2.900
98730SOL    HW297965   9.171   5.207   2.773
98731SOL     OW97966   9.268   6.749   8.217
98731SOL    HW197967   9.331   6.816   8.242
98731SOL    HW297968   9.245   6.706   8.299
98732SOL     OW97969   5.992   7.915   4.306
98732SOL    HW197970   5.957   7.828   4.325
98732SOL    HW297971   6.084   7.900   4.286
98733SOL     OW97972   9.095  13.469   1.023
98733SOL    HW197973   9.053  13.475   0.937
98733SOL    HW297974   9.060  13.544   1.071
98734SOL     OW97975   7.210   3.046   8.481
98734SOL    HW197976   7.262   3.024   8.559
98734SOL    HW297977   7.275   3.069   8.415
98735SOL     OW97978   0.328   3.480  13.770
98735SOL    HW197979   0.303   3.491  13.861
98735SOL    HW297980   0.420   3.453  13.774
98736SOL     OW97981   0.483   6.212   2.156
98736SOL    HW197982   0.451   6.273   2.090
98736SOL    HW297983   0.561   6.172   2.116
98737SOL     OW97984  11.510  13.099   0.143
98737SOL    HW197985  11.523  13.088   0.237
98737SOL    HW297986  11.416  13.094   0.130
98738SOL     OW97987  12.528   2.053   2.940
98738SOL    HW197988  12.484   2.104   3.007
98738SOL    HW297989  12.555   2.117   2.874
98739SOL     OW97990   4.436  12.148   3.367
98739SOL    HW197991   4.383  12.185   3.438
98739SOL    HW297992   4.488  12.222   3.335
98740SOL     OW97993   4.010   0.624  14.435
98740SOL    HW197994   3.993   0.615  14.341
98740SOL    HW297995   3.993   0.716  14.454
98741SOL     OW97996   2.000  12.129   3.192
98741SOL    HW197997   2.081  12.080   3.204
98741SOL    HW297998   2.023  12.196   3.127
98742SOL     OW97999   7.129   0.483   5.634
98742SOL    HW198000   7.113   0.476   5.540
98742SOL    HW298001   7.043   0.467   5.673
98743SOL     OW98002   7.850   1.310  14.700
98743SOL    HW198003   7.824   1.251  14.771
98743SOL    HW298004   7.945   1.299  14.694
98744SOL     OW98005  10.309   3.767   7.364
98744SOL    HW198006  10.238   3.706   7.386
98744SOL    HW298007  10.272   3.854   7.382
98745SOL     OW98008   7.898   0.647   4.026
98745SOL    HW198009   7.825   0.661   3.965
98745SOL    HW298010   7.954   0.723   4.014
98746SOL     OW98011  12.482   4.992   9.167
98746SOL    HW198012  12.556   5.046   9.140
98746SOL    HW298013  12.518   4.934   9.234
98747SOL     OW98014   7.062   3.887  13.665
98747SOL    HW198015   7.054   3.934  13.582
98747SOL    HW298016   7.148   3.912  13.699
98748SOL     OW98017   8.270   6.395   2.312
98748SOL    HW198018   8.193   6.374   2.259
98748SOL    HW298019   8.339   6.412   2.248
98749SOL     OW98020  13.209  12.242   3.242
98749SOL    HW198021  13.249  12.155   3.249
98749SOL    HW298022  13.284  12.302   3.243
98750SOL     OW98023   3.830   5.402  11.760
98750SOL    HW198024   3.800   5.321  11.801
98750SOL    HW298025   3.859   5.457  11.832
98751SOL     OW98026  12.138   5.760   0.512
98751SOL    HW198027  12.043   5.754   0.511
98751SOL    HW298028  12.161   5.762   0.604
98752SOL     OW98029   2.822   3.588   7.531
98752SOL    HW198030   2.849   3.515   7.586
98752SOL    HW298031   2.792   3.548   7.450
98753SOL     OW98032   3.341   7.168   0.928
98753SOL    HW198033   3.253   7.130   0.927
98753SOL    HW298034   3.329   7.257   0.894
98754SOL     OW98035   7.608   8.520  13.521
98754SOL    HW198036   7.549   8.453  13.486
98754SOL    HW298037   7.571   8.602  13.488
98755SOL     OW98038  14.669   0.502   7.066
98755SOL    HW198039  14.608   0.561   7.022
98755SOL    HW298040  14.617   0.423   7.083
98756SOL     OW98041  13.575   9.354   0.229
98756SOL    HW198042  13.544   9.437   0.192
98756SOL    HW298043  13.669   9.365   0.236
98757SOL     OW98044   5.372   9.615   5.949
98757SOL    HW198045   5.326   9.545   5.903
98757SOL    HW298046   5.461   9.583   5.959
98758SOL     OW98047   6.502   9.348   7.413
98758SOL    HW198048   6.481   9.402   7.337
98758SOL    HW298049   6.417   9.331   7.455
98759SOL     OW98050   0.309   4.993   7.500
98759SOL    HW198051   0.320   5.086   7.483
98759SOL    HW298052   0.280   4.989   7.591
98760SOL     OW98053   5.352   0.346   4.708
98760SOL    HW198054   5.325   0.271   4.760
98760SOL    HW298055   5.395   0.309   4.632
98761SOL     OW98056   1.990  13.333  12.167
98761SOL    HW198057   1.970  13.393  12.095
98761SOL    HW298058   1.920  13.268  12.164
98762SOL     OW98059   7.566   8.970  12.091
98762SOL    HW198060   7.596   8.880  12.081
98762SOL    HW298061   7.511   8.986  12.014
98763SOL     OW98062  12.832   7.552   6.857
98763SOL    HW198063  12.853   7.510   6.940
98763SOL    HW298064  12.752   7.508   6.827
98764SOL     OW98065   7.712   5.044   5.069
98764SOL    HW198066   7.617   5.029   5.064
98764SOL    HW298067   7.750   4.958   5.050
98765SOL     OW98068   3.613  11.000   8.701
98765SOL    HW198069   3.601  10.978   8.793
98765SOL    HW298070   3.707  11.010   8.690
98766SOL     OW98071  11.810  14.133   1.086
98766SOL    HW198072  11.777  14.151   1.174
98766SOL    HW298073  11.802  14.038   1.077
98767SOL     OW98074   9.769  14.170   3.219
98767SOL    HW198075   9.861  14.176   3.195
98767SOL    HW298076   9.768  14.113   3.296
98768SOL     OW98077   4.653   0.370   8.019
98768SOL    HW198078   4.669   0.462   8.039
98768SOL    HW298079   4.557   0.362   8.018
98769SOL     OW98080  11.492   1.610   1.128
98769SOL    HW198081  11.492   1.579   1.038
98769SOL    HW298082  11.518   1.702   1.122
98770SOL     OW98083  13.896   5.741  11.897
98770SOL    HW198084  13.802   5.727  11.892
98770SOL    HW298085  13.934   5.655  11.884
98771SOL     OW98086   8.845   4.536   4.731
98771SOL    HW198087   8.793   4.539   4.812
98771SOL    HW298088   8.811   4.608   4.678
98772SOL     OW98089   9.839   1.933   8.774
98772SOL    HW198090   9.925   1.973   8.785
98772SOL    HW298091   9.778   1.999   8.805
98773SOL     OW98092  11.210   1.318  13.038
98773SOL    HW198093  11.303   1.298  13.031
98773SOL    HW298094  11.169   1.266  12.970
98774SOL     OW98095  10.853   6.764   0.183
98774SOL    HW198096  10.777   6.816   0.155
98774SOL    HW298097  10.862   6.783   0.276
98775SOL     OW98098   8.410  11.263  11.575
98775SOL    HW198099   8.495  11.221  11.564
98775SOL    HW298100   8.419  11.315  11.655
98776SOL     OW98101  11.243   6.805   2.536
98776SOL    HW198102  11.334   6.809   2.564
98776SOL    HW298103  11.247   6.818   2.441
98777SOL     OW98104  13.854   5.212  13.806
98777SOL    HW198105  13.768   5.198  13.766
98777SOL    HW298106  13.847   5.169  13.892
98778SOL     OW98107  11.781  11.726   2.797
98778SOL    HW198108  11.718  11.663   2.761
98778SOL    HW298109  11.750  11.742   2.886
98779SOL     OW98110   1.206   8.174   7.031
98779SOL    HW198111   1.279   8.195   7.089
98779SOL    HW298112   1.226   8.220   6.949
98780SOL     OW98113  11.171   2.508  14.790
98780SOL    HW198114  11.210   2.586  14.829
98780SOL    HW298115  11.242   2.444  14.788
98781SOL     OW98116   1.447   1.228   8.683
98781SOL    HW198117   1.359   1.202   8.710
98781SOL    HW298118   1.434   1.284   8.607
98782SOL     OW98119   2.377  14.011   8.530
98782SOL    HW198120   2.390  13.918   8.546
98782SOL    HW298121   2.346  14.016   8.440
98783SOL     OW98122   2.558   2.249  10.884
98783SOL    HW198123   2.626   2.201  10.931
98783SOL    HW298124   2.483   2.189  10.882
98784SOL     OW98125   9.784   8.616   4.728
98784SOL    HW198126   9.807   8.661   4.646
98784SOL    HW298127   9.825   8.668   4.796
98785SOL     OW98128   5.112   9.866   2.732
98785SOL    HW198129   5.058   9.937   2.767
98785SOL    HW298130   5.201   9.887   2.759
98786SOL     OW98131   6.677  10.723   1.565
98786SOL    HW198132   6.713  10.738   1.652
98786SOL    HW298133   6.752  10.734   1.506
98787SOL     OW98134   3.420   9.399   1.072
98787SOL    HW198135   3.381   9.477   1.033
98787SOL    HW298136   3.486   9.371   1.009
98788SOL     OW98137  10.163   1.270   0.552
98788SOL    HW198138  10.068   1.274   0.560
98788SOL    HW298139  10.194   1.265   0.642
98789SOL     OW98140   6.779   6.222   5.389
98789SOL    HW198141   6.828   6.265   5.459
98789SOL    HW298142   6.837   6.153   5.358
98790SOL     OW98143   7.663  12.599   8.276
98790SOL    HW198144   7.697  12.687   8.287
98790SOL    HW298145   7.602  12.588   8.349
98791SOL     OW98146   7.548   3.974  13.381
98791SOL    HW198147   7.575   4.027  13.305
98791SOL    HW298148   7.519   4.039  13.446
98792SOL     OW98149  13.547   3.815   4.271
98792SOL    HW198150  13.541   3.743   4.209
98792SOL    HW298151  13.462   3.859   4.265
98793SOL     OW98152  10.842  11.376   7.271
98793SOL    HW198153  10.908  11.358   7.338
98793SOL    HW298154  10.759  11.367   7.317
98794SOL     OW98155   0.061   3.307   6.693
98794SOL    HW198156   0.024   3.393   6.716
98794SOL    HW298157   0.155   3.321   6.697
98795SOL     OW98158   7.534   6.952   3.225
98795SOL    HW198159   7.495   7.032   3.258
98795SOL    HW298160   7.461   6.902   3.188
98796SOL     OW98161   2.705  12.953   9.262
98796SOL    HW198162   2.745  12.903   9.192
98796SOL    HW298163   2.700  12.892   9.336
98797SOL     OW98164  11.341   9.308   3.500
98797SOL    HW198165  11.299   9.347   3.577
98797SOL    HW298166  11.417   9.363   3.483
98798SOL     OW98167  13.520   5.942   9.273
98798SOL    HW198168  13.451   6.004   9.250
98798SOL    HW298169  13.473   5.864   9.301
98799SOL     OW98170   1.966   5.416   6.844
98799SOL    HW198171   1.906   5.390   6.774
98799SOL    HW298172   1.917   5.404   6.924
98800SOL     OW98173  11.160   7.865   4.618
98800SOL    HW198174  11.092   7.817   4.571
98800SOL    HW298175  11.229   7.879   4.554
98801SOL     OW98176   9.448  12.843  14.360
98801SOL    HW198177   9.362  12.802  14.369
98801SOL    HW298178   9.469  12.874  14.448
98802SOL     OW98179   0.394   4.445   4.337
98802SOL    HW198180   0.317   4.479   4.290
98802SOL    HW298181   0.371   4.355   4.356
98803SOL     OW98182  12.543  12.384   5.671
98803SOL    HW198183  12.530  12.450   5.738
98803SOL    HW298184  12.636  12.360   5.678
98804SOL     OW98185  12.672  14.440   0.958
98804SOL    HW198186  12.725  14.508   0.919
98804SOL    HW298187  12.714  14.358   0.932
98805SOL     OW98188   6.659   5.234   4.725
98805SOL    HW198189   6.586   5.290   4.753
98805SOL    HW298190   6.683   5.186   4.804
98806SOL     OW98191  13.327   4.708   3.934
98806SOL    HW198192  13.313   4.742   4.022
98806SOL    HW298193  13.421   4.717   3.919
98807SOL     OW98194  14.028  13.055   5.325
98807SOL    HW198195  14.113  13.071   5.285
98807SOL    HW298196  13.966  13.102   5.269
98808SOL     OW98197   7.969   8.741   0.692
98808SOL    HW198198   7.943   8.830   0.665
98808SOL    HW298199   7.896   8.686   0.664
98809SOL     OW98200   3.837   7.093  10.420
98809SOL    HW198201   3.848   7.016  10.477
98809SOL    HW298202   3.861   7.167  10.476
98810SOL     OW98203  14.084   5.879   8.165
98810SOL    HW198204  14.075   5.785   8.149
98810SOL    HW298205  14.033   5.920   8.095
98811SOL     OW98206  11.989   3.101  12.477
98811SOL    HW198207  11.960   3.189  12.500
98811SOL    HW298208  12.007   3.059  12.561
98812SOL     OW98209   8.694  14.200   2.513
98812SOL    HW198210   8.747  14.278   2.495
98812SOL    HW298211   8.632  14.195   2.441
98813SOL     OW98212   3.393   8.443   0.229
98813SOL    HW198213   3.430   8.507   0.290
98813SOL    HW298214   3.428   8.469   0.143
98814SOL     OW98215   8.102  11.511  13.218
98814SOL    HW198216   8.195  11.503  13.241
98814SOL    HW298217   8.056  11.505  13.302
98815SOL     OW98218   0.585   4.234  11.142
98815SOL    HW198219   0.611   4.307  11.085
98815SOL    HW298220   0.529   4.274  11.208
98816SOL     OW98221   9.771  13.138   6.344
98816SOL    HW198222   9.744  13.112   6.433
98816SOL    HW298223   9.692  13.176   6.306
98817SOL     OW98224   9.205  11.656  12.164
98817SOL    HW198225   9.249  11.729  12.208
98817SOL    HW298226   9.122  11.646  12.211
98818SOL     OW98227  10.105   1.647   1.969
98818SOL    HW198228  10.118   1.691   2.053
98818SOL    HW298229  10.024   1.598   1.979
98819SOL     OW98230  13.737   2.074  13.131
98819SOL    HW198231  13.782   2.141  13.078
98819SOL    HW298232  13.645   2.101  13.128
98820SOL     OW98233  14.514   1.318   3.715
98820SOL    HW198234  14.423   1.329   3.743
98820SOL    HW298235  14.510   1.251   3.646
98821SOL     OW98236   5.630   9.564   6.149
98821SOL    HW198237   5.587   9.479   6.142
98821SOL    HW298238   5.680   9.572   6.068
98822SOL     OW98239   1.387  10.563  10.353
98822SOL    HW198240   1.375  10.654  10.327
98822SOL    HW298241   1.388  10.566  10.449
98823SOL     OW98242  11.039  12.409   4.980
98823SOL    HW198243  11.069  12.386   4.892
98823SOL    HW298244  11.113  12.455   5.019
98824SOL     OW98245   9.263   7.968   4.511
98824SOL    HW198246   9.169   7.982   4.504
98824SOL    HW298247   9.297   8.051   4.542
98825SOL     OW98248   3.262   7.967   5.483
98825SOL    HW198249   3.190   8.029   5.471
98825SOL    HW298250   3.327   8.015   5.534
98826SOL     OW98251   7.047   3.577   6.213
98826SOL    HW198252   7.021   3.530   6.133
98826SOL    HW298253   7.050   3.509   6.281
98827SOL     OW98254   7.428   1.498  12.293
98827SOL    HW198255   7.363   1.567  12.283
98827SOL    HW298256   7.383   1.418  12.264
98828SOL     OW98257   7.208   1.270   7.263
98828SOL    HW198258   7.207   1.181   7.298
98828SOL    HW298259   7.251   1.322   7.330
98829SOL     OW98260   9.575   9.844   9.308
98829SOL    HW198261   9.607   9.772   9.253
98829SOL    HW298262   9.518   9.802   9.372
98830SOL     OW98263   4.412   2.972  10.817
98830SOL    HW198264   4.466   2.905  10.859
98830SOL    HW298265   4.354   3.003  10.886
98831SOL     OW98266  12.793   6.626  10.266
98831SOL    HW198267  12.888   6.616  10.268
98831SOL    HW298268  12.779   6.717  10.239
98832SOL     OW98269  13.487   4.204   8.925
98832SOL    HW198270  13.513   4.243   8.842
98832SOL    HW298271  13.453   4.117   8.901
98833SOL     OW98272  12.260   6.564  13.909
98833SOL    HW198273  12.302   6.599  13.988
98833SOL    HW298274  12.255   6.469  13.925
98834SOL     OW98275   5.791  11.604   0.708
98834SOL    HW198276   5.782  11.584   0.615
98834SOL    HW298277   5.721  11.554   0.750
98835SOL     OW98278  10.061   9.310   7.444
98835SOL    HW198279  10.112   9.234   7.417
98835SOL    HW298280  10.118   9.357   7.505
98836SOL     OW98281   0.254  12.548   0.325
98836SOL    HW198282   0.296  12.521   0.243
98836SOL    HW298283   0.174  12.496   0.329
98837SOL     OW98284   7.441   3.679   7.577
98837SOL    HW198285   7.438   3.754   7.518
98837SOL    HW298286   7.349   3.658   7.593
98838SOL     OW98287   7.396   0.733   1.775
98838SOL    HW198288   7.387   0.705   1.866
98838SOL    HW298289   7.327   0.799   1.763
98839SOL     OW98290   6.284  10.561   3.201
98839SOL    HW198291   6.213  10.498   3.210
98839SOL    HW298292   6.327  10.537   3.119
98840SOL     OW98293   7.471   4.561   9.678
98840SOL    HW198294   7.393   4.608   9.709
98840SOL    HW298295   7.466   4.567   9.582
98841SOL     OW98296   4.737   8.556  11.855
98841SOL    HW198297   4.648   8.560  11.818
98841SOL    HW298298   4.749   8.642  11.896
98842SOL     OW98299   6.798   2.272  13.631
98842SOL    HW198300   6.748   2.353  13.637
98842SOL    HW298301   6.732   2.203  13.634
98843SOL     OW98302   9.958   2.184   4.625
98843SOL    HW198303   9.885   2.223   4.577
98843SOL    HW298304  10.006   2.133   4.559
98844SOL     OW98305   6.626   9.655   9.431
98844SOL    HW198306   6.610   9.697   9.346
98844SOL    HW298307   6.698   9.594   9.414
98845SOL     OW98308  11.566   4.415  13.118
98845SOL    HW198309  11.504   4.460  13.176
98845SOL    HW298310  11.615   4.357  13.176
98846SOL     OW98311   3.450   0.664   7.019
98846SOL    HW198312   3.443   0.738   7.079
98846SOL    HW298313   3.361   0.650   6.988
98847SOL     OW98314   2.860   9.778   5.262
98847SOL    HW198315   2.929   9.728   5.306
98847SOL    HW298316   2.852   9.858   5.314
98848SOL     OW98317   2.029  10.891   8.841
98848SOL    HW198318   2.043  10.922   8.931
98848SOL    HW298319   2.073  10.806   8.838
98849SOL     OW98320   4.050   0.409   2.434
98849SOL    HW198321   3.962   0.393   2.469
98849SOL    HW298322   4.048   0.375   2.345
98850SOL     OW98323   2.386   4.979  11.018
98850SOL    HW198324   2.431   4.925  10.953
98850SOL    HW298325   2.420   4.950  11.102
98851SOL     OW98326   0.019  12.416  12.124
98851SOL    HW198327   0.074  12.348  12.084
98851SOL    HW298328   0.046  12.419  12.215
98852SOL     OW98329   9.524   6.010   3.821
98852SOL    HW198330   9.617   6.008   3.843
98852SOL    HW298331   9.482   5.960   3.891
98853SOL     OW98332   4.154   0.289  11.557
98853SOL    HW198333   4.201   0.322  11.480
98853SOL    HW298334   4.176   0.352  11.627
98854SOL     OW98335   4.623  11.660   9.666
98854SOL    HW198336   4.709  11.672   9.705
98854SOL    HW298337   4.623  11.570   9.634
98855SOL     OW98338  10.984   8.231   2.469
98855SOL    HW198339  10.975   8.294   2.398
98855SOL    HW298340  11.020   8.281   2.541
98856SOL     OW98341   4.661  11.731   9.361
98856SOL    HW198342   4.745  11.687   9.374
98856SOL    HW298343   4.684  11.823   9.346
98857SOL     OW98344  14.679   4.305  13.688
98857SOL    HW198345  14.596   4.271  13.720
98857SOL    HW298346  14.673   4.297  13.593
98858SOL     OW98347  13.796   8.061   6.313
98858SOL    HW198348  13.764   8.074   6.224
98858SOL    HW298349  13.720   8.076   6.369
98859SOL     OW98350   7.056  12.192   2.750
98859SOL    HW198351   6.974  12.150   2.774
98859SOL    HW298352   7.031  12.257   2.684
98860SOL     OW98353   7.906  13.778   8.348
98860SOL    HW198354   7.887  13.723   8.272
98860SOL    HW298355   7.914  13.867   8.312
98861SOL     OW98356   4.509   0.137   5.654
98861SOL    HW198357   4.420   0.137   5.619
98861SOL    HW298358   4.560   0.088   5.590
98862SOL     OW98359   2.295  14.723   1.327
98862SOL    HW198360   2.247  14.766   1.398
98862SOL    HW298361   2.381  14.703   1.365
98863SOL     OW98362   5.880  14.023   4.362
98863SOL    HW198363   5.918  13.960   4.424
98863SOL    HW298364   5.787  14.001   4.360
98864SOL     OW98365   0.398  14.142   3.192
98864SOL    HW198366   0.366  14.193   3.266
98864SOL    HW298367   0.354  14.057   3.201
98865SOL     OW98368   2.335  10.193   1.330
98865SOL    HW198369   2.334  10.266   1.268
98865SOL    HW298370   2.425  10.189   1.361
98866SOL     OW98371  12.891   3.156   0.825
98866SOL    HW198372  12.913   3.066   0.848
98866SOL    HW298373  12.965   3.208   0.857
98867SOL     OW98374  14.786  11.457   8.610
98867SOL    HW198375  14.771  11.420   8.697
98867SOL    HW298376  14.879  11.481   8.610
98868SOL     OW98377   9.457   1.122   3.535
98868SOL    HW198378   9.529   1.094   3.591
98868SOL    HW298379   9.389   1.150   3.595
98869SOL     OW98380   2.153  10.344   9.570
98869SOL    HW198381   2.115  10.423   9.531
98869SOL    HW298382   2.126  10.273   9.512
98870SOL     OW98383  14.566   8.046  10.892
98870SOL    HW198384  14.510   8.018  10.820
98870SOL    HW298385  14.616   7.968  10.916
98871SOL     OW98386   0.562  13.298   9.166
98871SOL    HW198387   0.551  13.244   9.088
98871SOL    HW298388   0.641  13.264   9.208
98872SOL     OW98389   5.872   0.530   7.616
98872SOL    HW198390   5.891   0.620   7.643
98872SOL    HW298391   5.896   0.477   7.691
98873SOL     OW98392   6.734   8.091  13.826
98873SOL    HW198393   6.686   8.139  13.893
98873SOL    HW298394   6.684   8.108  13.745
98874SOL     OW98395  14.289   2.212   9.481
98874SOL    HW198396  14.310   2.191   9.572
98874SOL    HW298397  14.346   2.286   9.459
98875SOL     OW98398   7.284  14.415  10.071
98875SOL    HW198399   7.324  14.336  10.110
98875SOL    HW298400   7.191  14.394  10.066
98876SOL     OW98401   7.368   5.665   6.201
98876SOL    HW198402   7.334   5.583   6.237
98876SOL    HW298403   7.332   5.669   6.112
98877SOL     OW98404  11.520  10.856  13.263
98877SOL    HW198405  11.433  10.896  13.264
98877SOL    HW298406  11.574  10.917  13.211
98878SOL     OW98407  12.412   0.114   1.868
98878SOL    HW198408  12.364   0.071   1.797
98878SOL    HW298409  12.376   0.075   1.948
98879SOL     OW98410   0.823   5.586   6.278
98879SOL    HW198411   0.866   5.535   6.347
98879SOL    HW298412   0.756   5.528   6.242
98880SOL     OW98413  10.175   5.009  10.703
98880SOL    HW198414  10.171   5.087  10.647
98880SOL    HW298415  10.198   5.043  10.789
98881SOL     OW98416   1.381  12.617   0.387
98881SOL    HW198417   1.464  12.662   0.370
98881SOL    HW298418   1.393  12.530   0.349
98882SOL     OW98419  14.091   3.995   6.083
98882SOL    HW198420  14.125   4.070   6.034
98882SOL    HW298421  14.006   3.976   6.043
98883SOL     OW98422   9.475  12.016   9.459
98883SOL    HW198423   9.527  11.945   9.422
98883SOL    HW298424   9.420  11.973   9.524
98884SOL     OW98425   2.168   6.227   4.875
98884SOL    HW198426   2.124   6.312   4.881
98884SOL    HW298427   2.110   6.166   4.919
98885SOL     OW98428   2.951   1.632   0.550
98885SOL    HW198429   3.014   1.704   0.557
98885SOL    HW298430   2.885   1.650   0.616
98886SOL     OW98431  13.814   3.269   5.262
98886SOL    HW198432  13.788   3.256   5.171
98886SOL    HW298433  13.804   3.182   5.302
98887SOL     OW98434  14.447  14.230  14.693
98887SOL    HW198435  14.366  14.278  14.679
98887SOL    HW298436  14.498  14.245  14.613
98888SOL     OW98437   9.688   3.634   4.926
98888SOL    HW198438   9.670   3.566   4.862
98888SOL    HW298439   9.604   3.651   4.968
98889SOL     OW98440   6.525  12.257  13.532
98889SOL    HW198441   6.543  12.247  13.438
98889SOL    HW298442   6.563  12.342  13.554
98890SOL     OW98443   9.301   4.028   7.369
98890SOL    HW198444   9.277   4.021   7.277
98890SOL    HW298445   9.392   4.056   7.368
98891SOL     OW98446  12.216   1.468   1.206
98891SOL    HW198447  12.150   1.416   1.159
98891SOL    HW298448  12.166   1.514   1.274
98892SOL     OW98449  10.456   5.213  11.591
98892SOL    HW198450  10.453   5.265  11.672
98892SOL    HW298451  10.411   5.268  11.526
98893SOL     OW98452   3.394   0.988   0.522
98893SOL    HW198453   3.319   1.024   0.474
98893SOL    HW298454   3.412   0.904   0.479
98894SOL     OW98455  10.108  11.666  13.465
98894SOL    HW198456  10.180  11.607  13.442
98894SOL    HW298457  10.107  11.732  13.396
98895SOL     OW98458  12.674  10.073   2.913
98895SOL    HW198459  12.668  10.013   2.838
98895SOL    HW298460  12.695  10.158   2.874
98896SOL     OW98461   5.953  10.549  13.369
98896SOL    HW198462   5.887  10.604  13.412
98896SOL    HW298463   5.961  10.473  13.426
98897SOL     OW98464  10.669   7.591   3.761
98897SOL    HW198465  10.645   7.504   3.792
98897SOL    HW298466  10.696   7.638   3.841
98898SOL     OW98467   3.035   8.858  11.069
98898SOL    HW198468   2.942   8.865  11.045
98898SOL    HW298469   3.081   8.856  10.985
98899SOL     OW98470   8.436   1.560  11.120
98899SOL    HW198471   8.462   1.601  11.037
98899SOL    HW298472   8.412   1.633  11.177
98900SOL     OW98473   3.724  14.078   3.886
98900SOL    HW198474   3.742  13.984   3.891
98900SOL    HW298475   3.810  14.118   3.876
98901SOL     OW98476  10.978  12.850   0.197
98901SOL    HW198477  10.929  12.890   0.126
98901SOL    HW298478  10.933  12.878   0.277
98902SOL     OW98479   9.445   0.676   7.602
98902SOL    HW198480   9.467   0.594   7.559
98902SOL    HW298481   9.449   0.742   7.533
98903SOL     OW98482   3.358   0.170   1.757
98903SOL    HW198483   3.286   0.113   1.783
98903SOL    HW298484   3.411   0.117   1.698
98904SOL     OW98485   0.452  11.556   1.528
98904SOL    HW198486   0.516  11.503   1.481
98904SOL    HW298487   0.466  11.533   1.620
98905SOL     OW98488   4.386   2.194   7.359
98905SOL    HW198489   4.419   2.164   7.444
98905SOL    HW298490   4.371   2.287   7.371
98906SOL     OW98491   5.752   4.930   9.098
98906SOL    HW198492   5.813   4.869   9.056
98906SOL    HW298493   5.765   4.915   9.192
98907SOL     OW98494  13.356  10.375   7.422
98907SOL    HW198495  13.372  10.411   7.335
98907SOL    HW298496  13.415  10.300   7.429
98908SOL     OW98497   6.367   4.014   9.742
98908SOL    HW198498   6.375   4.031   9.648
98908SOL    HW298499   6.457   3.998   9.771
98909SOL     OW98500   6.364   4.436  14.288
98909SOL    HW198501   6.429   4.370  14.263
98909SOL    HW298502   6.288   4.386  14.317
98910SOL     OW98503  12.073   5.035   6.086
98910SOL    HW198504  12.161   5.048   6.121
98910SOL    HW298505  12.019   5.014   6.162
98911SOL     OW98506   7.273  13.227  13.212
98911SOL    HW198507   7.366  13.205  13.204
98911SOL    HW298508   7.244  13.242  13.121
98912SOL     OW98509  11.417  10.112   1.943
98912SOL    HW198510  11.397  10.082   2.032
98912SOL    HW298511  11.342  10.165   1.918
98913SOL     OW98512   5.177   4.939   5.115
98913SOL    HW198513   5.181   5.018   5.061
98913SOL    HW298514   5.170   4.867   5.052
98914SOL     OW98515  12.203   7.812   8.355
98914SOL    HW198516  12.270   7.841   8.293
98914SOL    HW298517  12.244   7.741   8.404
98915SOL     OW98518  12.567  13.003   3.050
98915SOL    HW198519  12.506  12.930   3.064
98915SOL    HW298520  12.530  13.074   3.102
98916SOL     OW98521  13.261  10.160  11.451
98916SOL    HW198522  13.202  10.150  11.376
98916SOL    HW298523  13.326  10.224  11.421
98917SOL     OW98524   2.259  12.312  13.777
98917SOL    HW198525   2.350  12.325  13.751
98917SOL    HW298526   2.238  12.388  13.831
98918SOL     OW98527  10.670   5.303   2.276
98918SOL    HW198528  10.603   5.279   2.212
98918SOL    HW298529  10.731   5.359   2.228
98919SOL     OW98530  14.223   3.769   2.987
98919SOL    HW198531  14.208   3.847   2.932
98919SOL    HW298532  14.137   3.752   3.026
98920SOL     OW98533   0.217   1.074   8.528
98920SOL    HW198534   0.153   1.025   8.476
98920SOL    HW298535   0.287   1.011   8.545
98921SOL     OW98536   4.697  13.889   0.707
98921SOL    HW198537   4.791  13.885   0.691
98921SOL    HW298538   4.671  13.976   0.676
98922SOL     OW98539   1.723   4.623   2.991
98922SOL    HW198540   1.660   4.558   2.961
98922SOL    HW298541   1.735   4.681   2.917
98923SOL     OW98542  13.168  13.260   6.211
98923SOL    HW198543  13.220  13.212   6.146
98923SOL    HW298544  13.225  13.265   6.288
98924SOL     OW98545   8.664  11.895  13.105
98924SOL    HW198546   8.690  11.935  13.021
98924SOL    HW298547   8.656  11.969  13.165
98925SOL     OW98548   0.709   8.102   9.022
98925SOL    HW198549   0.625   8.149   9.026
98925SOL    HW298550   0.768   8.154   9.076
98926SOL     OW98551  10.410   6.536   5.005
98926SOL    HW198552  10.468   6.572   4.938
98926SOL    HW298553  10.337   6.498   4.956
98927SOL     OW98554  11.055   5.689  13.229
98927SOL    HW198555  11.143   5.718  13.205
98927SOL    HW298556  10.999   5.718  13.157
98928SOL     OW98557   8.741  11.462  13.665
98928SOL    HW198558   8.773  11.546  13.632
98928SOL    HW298559   8.787  11.397  13.612
98929SOL     OW98560  14.689   5.594  13.712
98929SOL    HW198561  14.669   5.663  13.649
98929SOL    HW298562  14.612   5.537  13.710
98930SOL     OW98563   9.612  12.619  10.318
98930SOL    HW198564   9.578  12.648  10.402
98930SOL    HW298565   9.688  12.565  10.340
98931SOL     OW98566   7.901   7.256  12.031
98931SOL    HW198567   7.954   7.272  12.109
98931SOL    HW298568   7.870   7.166  12.041
98932SOL     OW98569   6.565   7.053   3.304
98932SOL    HW198570   6.614   7.010   3.233
98932SOL    HW298571   6.486   7.000   3.314
98933SOL     OW98572  14.810   6.521  10.798
98933SOL    HW198573  14.843   6.605  10.829
98933SOL    HW298574  14.735   6.544  10.743
98934SOL     OW98575  12.644   9.666   8.113
98934SOL    HW198576  12.550   9.661   8.134
98934SOL    HW298577  12.683   9.713   8.187
98935SOL     OW98578   8.512   1.605   4.522
98935SOL    HW198579   8.543   1.644   4.440
98935SOL    HW298580   8.575   1.535   4.541
98936SOL     OW98581   6.756   8.132   0.717
98936SOL    HW198582   6.784   8.084   0.640
98936SOL    HW298583   6.685   8.080   0.754
98937SOL     OW98584  13.569  14.095   1.135
98937SOL    HW198585  13.642  14.147   1.170
98937SOL    HW298586  13.587  14.091   1.041
98938SOL     OW98587   2.962  13.182   9.624
98938SOL    HW198588   3.029  13.114   9.621
98938SOL    HW298589   2.885  13.138   9.660
98939SOL     OW98590  13.789   7.492   5.718
98939SOL    HW198591  13.789   7.561   5.652
98939SOL    HW298592  13.727   7.522   5.784
98940SOL     OW98593  14.848  13.929   0.565
98940SOL    HW198594  14.830  13.897   0.477
98940SOL    HW298595  14.804  14.014   0.570
98941SOL     OW98596  11.646   1.789  14.737
98941SOL    HW198597  11.580   1.750  14.794
98941SOL    HW298598  11.604   1.866  14.700
98942SOL     OW98599   1.940   4.950   3.823
98942SOL    HW198600   1.890   5.019   3.780
98942SOL    HW298601   1.881   4.875   3.827
98943SOL     OW98602  10.408  11.810   5.680
98943SOL    HW198603  10.352  11.887   5.690
98943SOL    HW298604  10.406  11.767   5.765
98944SOL     OW98605   3.566  10.586  11.188
98944SOL    HW198606   3.590  10.546  11.272
98944SOL    HW298607   3.621  10.664  11.182
98945SOL     OW98608   2.389  11.771  11.733
98945SOL    HW198609   2.390  11.794  11.826
98945SOL    HW298610   2.467  11.814  11.697
98946SOL     OW98611   5.802   5.320   1.890
98946SOL    HW198612   5.799   5.233   1.930
98946SOL    HW298613   5.849   5.307   1.808
98947SOL     OW98614   4.285   5.996   3.034
98947SOL    HW198615   4.225   5.967   3.103
98947SOL    HW298616   4.301   6.088   3.053
98948SOL     OW98617   0.201  10.395   7.899
98948SOL    HW198618   0.240  10.401   7.812
98948SOL    HW298619   0.240  10.316   7.937
98949SOL     OW98620  11.669   3.520   9.833
98949SOL    HW198621  11.633   3.542   9.747
98949SOL    HW298622  11.720   3.441   9.817
98950SOL     OW98623   3.515  10.129  14.384
98950SOL    HW198624   3.492  10.208  14.432
98950SOL    HW298625   3.433  10.081  14.375
98951SOL     OW98626  11.492   8.013   0.162
98951SOL    HW198627  11.492   8.108   0.161
98951SOL    HW298628  11.567   7.989   0.215
98952SOL     OW98629  12.337   8.422   3.798
98952SOL    HW198630  12.290   8.437   3.715
98952SOL    HW298631  12.401   8.493   3.801
98953SOL     OW98632   5.412  13.677   0.189
98953SOL    HW198633   5.391  13.735   0.116
98953SOL    HW298634   5.505  13.657   0.178
98954SOL     OW98635   1.946   4.876   5.451
98954SOL    HW198636   1.955   4.782   5.464
98954SOL    HW298637   1.859   4.887   5.411
98955SOL     OW98638  14.253  12.555   9.560
98955SOL    HW198639  14.268  12.533   9.467
98955SOL    HW298640  14.331  12.602   9.586
98956SOL     OW98641   2.222   7.548   3.229
98956SOL    HW198642   2.176   7.477   3.183
98956SOL    HW298643   2.154   7.592   3.280
98957SOL     OW98644   7.788   9.717   9.570
98957SOL    HW198645   7.832   9.742   9.488
98957SOL    HW298646   7.695   9.728   9.551
98958SOL     OW98647   4.662   9.891   7.464
98958SOL    HW198648   4.677   9.934   7.380
98958SOL    HW298649   4.681   9.957   7.529
98959SOL     OW98650   9.035   1.700   8.082
98959SOL    HW198651   8.992   1.721   8.165
98959SOL    HW298652   9.121   1.743   8.087
98960SOL     OW98653   8.115  11.950   2.397
98960SOL    HW198654   8.029  11.946   2.440
98960SOL    HW298655   8.154  11.865   2.414
98961SOL     OW98656  14.133   2.436   9.644
98961SOL    HW198657  14.105   2.382   9.718
98961SOL    HW298658  14.088   2.519   9.655
98962SOL     OW98659  13.890   2.947  10.912
98962SOL    HW198660  13.856   2.890  10.842
98962SOL    HW298661  13.914   2.887  10.982
98963SOL     OW98662  12.222   5.517   4.903
98963SOL    HW198663  12.223   5.480   4.991
98963SOL    HW298664  12.156   5.466   4.856
98964SOL     OW98665  10.953   0.379   3.741
98964SOL    HW198666  11.031   0.387   3.797
98964SOL    HW298667  10.986   0.394   3.653
98965SOL     OW98668   9.560   1.933  10.996
98965SOL    HW198669   9.651   1.951  11.018
98965SOL    HW298670   9.513   2.014  11.018
98966SOL     OW98671  12.939   3.614   5.089
98966SOL    HW198672  12.974   3.695   5.050
98966SOL    HW298673  12.934   3.553   5.016
98967SOL     OW98674   8.766  14.517   8.316
98967SOL    HW198675   8.689  14.570   8.339
98967SOL    HW298676   8.730  14.434   8.286
98968SOL     OW98677  10.212   7.040  14.398
98968SOL    HW198678  10.272   7.076  14.333
98968SOL    HW298679  10.149   6.988  14.347
98969SOL     OW98680   7.362   8.633   5.827
98969SOL    HW198681   7.362   8.707   5.887
98969SOL    HW298682   7.393   8.669   5.744
98970SOL     OW98683   0.839   7.491  11.063
98970SOL    HW198684   0.925   7.450  11.070
98970SOL    HW298685   0.813   7.476  10.972
98971SOL     OW98686  14.071   7.850   2.461
98971SOL    HW198687  14.050   7.911   2.531
98971SOL    HW298688  14.165   7.860   2.447
98972SOL     OW98689   7.194   3.446  13.747
98972SOL    HW198690   7.139   3.506  13.696
98972SOL    HW298691   7.166   3.359  13.718
98973SOL     OW98692   6.287   0.558   4.822
98973SOL    HW198693   6.213   0.602   4.781
98973SOL    HW298694   6.361   0.578   4.763
98974SOL     OW98695  13.221   6.673  12.963
98974SOL    HW198696  13.170   6.593  12.968
98974SOL    HW298697  13.312   6.645  12.967
98975SOL     OW98698  10.984   7.612   7.046
98975SOL    HW198699  10.895   7.633   7.019
98975SOL    HW298700  10.983   7.517   7.059
98976SOL     OW98701  12.873  14.336  10.740
98976SOL    HW198702  12.915  14.251  10.753
98976SOL    HW298703  12.788  14.329  10.783
98977SOL     OW98704  12.945   6.946   9.633
98977SOL    HW198705  12.879   6.911   9.693
98977SOL    HW298706  13.011   6.877   9.626
98978SOL     OW98707   7.506   0.528  13.400
98978SOL    HW198708   7.497   0.441  13.360
98978SOL    HW298709   7.483   0.514  13.492
98979SOL     OW98710   6.260   0.247   2.643
98979SOL    HW198711   6.175   0.248   2.688
98979SOL    HW298712   6.281   0.154   2.635
98980SOL     OW98713   4.870   9.960  14.555
98980SOL    HW198714   4.926  10.007  14.617
98980SOL    HW298715   4.795   9.932  14.606
98981SOL     OW98716   3.815  10.952   9.622
98981SOL    HW198717   3.813  11.004   9.702
98981SOL    HW298718   3.895  10.900   9.628
98982SOL     OW98719  13.820   0.319  11.468
98982SOL    HW198720  13.826   0.234  11.425
98982SOL    HW298721  13.899   0.324  11.522
98983SOL     OW98722   7.458   7.254   2.295
98983SOL    HW198723   7.476   7.250   2.389
98983SOL    HW298724   7.461   7.347   2.274
98984SOL     OW98725   7.617   6.020  10.721
98984SOL    HW198726   7.562   6.098  10.727
98984SOL    HW298727   7.700   6.052  10.684
98985SOL     OW98728   7.698   9.776   5.066
98985SOL    HW198729   7.613   9.789   5.109
98985SOL    HW298730   7.697   9.838   4.993
98986SOL     OW98731  11.752   6.611   3.358
98986SOL    HW198732  11.732   6.543   3.294
98986SOL    HW298733  11.688   6.598   3.427
98987SOL     OW98734   6.729   7.028  14.048
98987SOL    HW198735   6.708   7.119  14.026
98987SOL    HW298736   6.824   7.026  14.057
98988SOL     OW98737   3.514  10.483   0.847
98988SOL    HW198738   3.524  10.570   0.809
98988SOL    HW298739   3.470  10.498   0.931
98989SOL     OW98740  14.840  13.265  14.216
98989SOL    HW198741  14.806  13.305  14.296
98989SOL    HW298742  14.832  13.171  14.231
98990SOL     OW98743   2.109   0.849   5.869
98990SOL    HW198744   2.156   0.928   5.893
98990SOL    HW298745   2.110   0.795   5.948
98991SOL     OW98746   7.579   2.406   8.837
98991SOL    HW198747   7.628   2.339   8.884
98991SOL    HW298748   7.646   2.456   8.790
98992SOL     OW98749  13.281  10.546   6.785
98992SOL    HW198750  13.323  10.630   6.804
98992SOL    HW298751  13.193  10.568   6.755
98993SOL     OW98752   2.783  13.408   4.184
98993SOL    HW198753   2.695  13.391   4.150
98993SOL    HW298754   2.792  13.503   4.183
98994SOL     OW98755  12.346   6.841   2.693
98994SOL    HW198756  12.396   6.812   2.617
98994SOL    HW298757  12.346   6.765   2.752
98995SOL     OW98758   3.383  11.130   0.791
98995SOL    HW198759   3.348  11.099   0.874
98995SOL    HW298760   3.465  11.082   0.779
98996SOL     OW98761   8.610  11.502   7.927
98996SOL    HW198762   8.652  11.417   7.933
98996SOL    HW298763   8.519  11.482   7.905
98997SOL     OW98764   8.194   3.382  14.423
98997SOL    HW198765   8.162   3.472  14.424
98997SOL    HW298766   8.155   3.342  14.345
98998SOL     OW98767  14.438   7.741   4.503
98998SOL    HW198768  14.490   7.751   4.424
98998SOL    HW298769  14.384   7.820   4.508
98999SOL     OW98770   3.798  11.383   7.087
98999SOL    HW198771   3.865  11.359   7.150
98999SOL    HW298772   3.741  11.444   7.134
99000SOL     OW98773   9.433   8.397  10.121
99000SOL    HW198774   9.418   8.341  10.198
99000SOL    HW298775   9.363   8.374  10.060
99001SOL     OW98776  13.560   7.756  11.841
99001SOL    HW198777  13.562   7.694  11.913
99001SOL    HW298778  13.471   7.793  11.843
99002SOL     OW98779   0.696  10.339  14.441
99002SOL    HW198780   0.684  10.417  14.386
99002SOL    HW298781   0.662  10.267  14.389
99003SOL     OW98782   5.423  12.766   9.332
99003SOL    HW198783   5.378  12.735   9.254
99003SOL    HW298784   5.456  12.687   9.374
99004SOL     OW98785   6.243  11.807  14.554
99004SOL    HW198786   6.314  11.845  14.606
99004SOL    HW298787   6.220  11.727  14.600
99005SOL     OW98788   5.543   7.400  13.083
99005SOL    HW198789   5.459   7.414  13.126
99005SOL    HW298790   5.541   7.458  13.007
99006SOL     OW98791   1.678   7.577   9.117
99006SOL    HW198792   1.696   7.484   9.132
99006SOL    HW298793   1.763   7.620   9.129
99007SOL     OW98794   2.646  10.681  12.524
99007SOL    HW198795   2.703  10.661  12.598
99007SOL    HW298796   2.682  10.762  12.488
99008SOL     OW98797   0.881  11.904   3.061
99008SOL    HW198798   0.795  11.867   3.076
99008SOL    HW298799   0.903  11.947   3.143
99009SOL     OW98800  11.653   5.780  10.846
99009SOL    HW198801  11.692   5.729  10.775
99009SOL    HW298802  11.688   5.740  10.926
99010SOL     OW98803   9.917   3.155   1.855
99010SOL    HW198804   9.939   3.065   1.877
99010SOL    HW298805   9.843   3.176   1.911
99011SOL     OW98806   0.885   7.073   8.907
99011SOL    HW198807   0.794   7.047   8.916
99011SOL    HW298808   0.887   7.127   8.827
99012SOL     OW98809   8.727   1.421   6.908
99012SOL    HW198810   8.673   1.469   6.845
99012SOL    HW298811   8.810   1.407   6.862
99013SOL     OW98812  12.104  10.509  12.249
99013SOL    HW198813  12.178  10.569  12.252
99013SOL    HW298814  12.068  10.511  12.338
99014SOL     OW98815   1.749  14.121   7.686
99014SOL    HW198816   1.731  14.037   7.644
99014SOL    HW298817   1.741  14.104   7.780
99015SOL     OW98818  11.746   8.807  10.748
99015SOL    HW198819  11.681   8.792  10.680
99015SOL    HW298820  11.721   8.747  10.819
99016SOL     OW98821  10.326   8.480   1.268
99016SOL    HW198822  10.379   8.425   1.325
99016SOL    HW298823  10.237   8.446   1.279
99017SOL     OW98824   5.984   0.557   5.761
99017SOL    HW198825   6.041   0.632   5.775
99017SOL    HW298826   5.992   0.537   5.667
99018SOL     OW98827   2.096   3.351  11.350
99018SOL    HW198828   2.103   3.304  11.268
99018SOL    HW298829   2.019   3.408  11.340
99019SOL     OW98830   5.652   8.899   0.659
99019SOL    HW198831   5.739   8.859   0.665
99019SOL    HW298832   5.666   8.991   0.681
99020SOL     OW98833  11.857  11.399   4.022
99020SOL    HW198834  11.926  11.422   4.084
99020SOL    HW298835  11.792  11.353   4.074
99021SOL     OW98836  12.236   8.693  10.150
99021SOL    HW198837  12.245   8.732  10.062
99021SOL    HW298838  12.304   8.626  10.154
99022SOL     OW98839   9.577  10.502   6.973
99022SOL    HW198840   9.500  10.507   7.030
99022SOL    HW298841   9.622  10.422   7.000
99023SOL     OW98842  13.314  14.864  11.256
99023SOL    HW198843  13.371  14.875  11.332
99023SOL    HW298844  13.359  14.801  11.200
99024SOL     OW98845   3.555   4.655  13.034
99024SOL    HW198846   3.529   4.563  13.041
99024SOL    HW298847   3.625   4.655  12.968
99025SOL     OW98848  12.167   9.325   1.794
99025SOL    HW198849  12.080   9.354   1.766
99025SOL    HW298850  12.228   9.370   1.735
99026SOL     OW98851  11.139  10.894   3.660
99026SOL    HW198852  11.053  10.857   3.641
99026SOL    HW298853  11.190  10.820   3.693
99027SOL     OW98854  13.533  11.187  14.862
99027SOL    HW198855  13.515  11.183  14.768
99027SOL    HW298856  13.477  11.257   0.013
99028SOL     OW98857   8.233  10.188  14.321
99028SOL    HW198858   8.166  10.133  14.361
99028SOL    HW298859   8.186  10.237  14.253
99029SOL     OW98860  14.069  12.181   3.048
99029SOL    HW198861  14.023  12.172   3.131
99029SOL    HW298862  14.073  12.091   3.014
99030SOL     OW98863   2.435   1.758  10.449
99030SOL    HW198864   2.462   1.805  10.370
99030SOL    HW298865   2.493   1.792  10.517
99031SOL     OW98866   9.087   1.548   8.428
99031SOL    HW198867   9.072   1.632   8.470
99031SOL    HW298868   9.017   1.491   8.462
99032SOL     OW98869   8.631   1.670   8.051
99032SOL    HW198870   8.611   1.759   8.081
99032SOL    HW298871   8.680   1.631   8.123
99033SOL     OW98872   1.327   3.324   9.283
99033SOL    HW198873   1.392   3.258   9.309
99033SOL    HW298874   1.290   3.355   9.366
99034SOL     OW98875   4.076   0.876   9.922
99034SOL    HW198876   4.102   0.833  10.003
99034SOL    HW298877   4.156   0.919   9.891
99035SOL     OW98878   0.716  10.707   0.208
99035SOL    HW198879   0.731  10.677   0.119
99035SOL    HW298880   0.667  10.637   0.250
99036SOL     OW98881  14.045  14.152  13.987
99036SOL    HW198882  13.961  14.118  14.019
99036SOL    HW298883  14.024  14.240  13.955
99037SOL     OW98884  13.418   7.028   7.075
99037SOL    HW198885  13.464   6.959   7.124
99037SOL    HW298886  13.326   7.002   7.078
99038SOL     OW98887   7.108   4.799   0.205
99038SOL    HW198888   7.048   4.750   0.148
99038SOL    HW298889   7.052   4.864   0.248
99039SOL     OW98890   7.957  13.469   9.963
99039SOL    HW198891   8.052  13.477   9.964
99039SOL    HW298892   7.937  13.424   9.881
99040SOL     OW98893   7.447   5.495   6.524
99040SOL    HW198894   7.401   5.576   6.503
99040SOL    HW298895   7.385   5.426   6.501
99041SOL     OW98896  12.592   2.517   1.891
99041SOL    HW198897  12.513   2.462   1.889
99041SOL    HW298898  12.656   2.469   1.840
99042SOL     OW98899  13.919  13.424   8.085
99042SOL    HW198900  13.861  13.386   8.151
99042SOL    HW298901  13.896  13.378   8.004
99043SOL     OW98902   4.058   2.010   9.864
99043SOL    HW198903   4.139   1.998   9.913
99043SOL    HW298904   4.024   2.094   9.893
99044SOL     OW98905  11.086   4.105   1.113
99044SOL    HW198906  11.105   4.052   1.036
99044SOL    HW298907  11.136   4.186   1.099
99045SOL     OW98908   2.391   6.316   7.969
99045SOL    HW198909   2.301   6.286   7.955
99045SOL    HW298910   2.425   6.332   7.881
99046SOL     OW98911   7.208  13.255   4.539
99046SOL    HW198912   7.262  13.334   4.541
99046SOL    HW298913   7.234  13.205   4.617
99047SOL     OW98914   1.181   5.035   8.099
99047SOL    HW198915   1.233   4.961   8.068
99047SOL    HW298916   1.098   4.996   8.128
99048SOL     OW98917   7.945   7.220   5.202
99048SOL    HW198918   7.857   7.185   5.187
99048SOL    HW298919   7.935   7.281   5.274
99049SOL     OW98920  13.100  11.715   3.336
99049SOL    HW198921  13.013  11.740   3.369
99049SOL    HW298922  13.161  11.765   3.390
99050SOL     OW98923  10.252  10.293   1.333
99050SOL    HW198924  10.175  10.336   1.369
99050SOL    HW298925  10.216  10.225   1.275
99051SOL     OW98926   5.811   1.787   2.916
99051SOL    HW198927   5.728   1.749   2.947
99051SOL    HW298928   5.784   1.856   2.855
99052SOL     OW98929  11.118   1.550   9.340
99052SOL    HW198930  11.146   1.515   9.256
99052SOL    HW298931  11.175   1.625   9.356
99053SOL     OW98932  14.626   7.427   3.358
99053SOL    HW198933  14.697   7.441   3.420
99053SOL    HW298934  14.659   7.358   3.299
99054SOL     OW98935  14.694  10.374   6.951
99054SOL    HW198936  14.616  10.348   7.000
99054SOL    HW298937  14.667  10.452   6.903
99055SOL     OW98938  11.214   5.282   1.364
99055SOL    HW198939  11.232   5.202   1.414
99055SOL    HW298940  11.274   5.278   1.290
99056SOL     OW98941  11.655   4.764  11.860
99056SOL    HW198942  11.583   4.703  11.873
99056SOL    HW298943  11.667   4.767  11.765
99057SOL     OW98944  13.088   3.714   0.655
99057SOL    HW198945  13.172   3.711   0.701
99057SOL    HW298946  13.059   3.805   0.666
99058SOL     OW98947   0.735   9.633   9.788
99058SOL    HW198948   0.820   9.590   9.786
99058SOL    HW298949   0.755   9.727   9.789
99059SOL     OW98950   6.115   3.405  13.963
99059SOL    HW198951   6.146   3.487  13.924
99059SOL    HW298952   6.151   3.337  13.906
99060SOL     OW98953   5.684   7.901   5.462
99060SOL    HW198954   5.773   7.911   5.495
99060SOL    HW298955   5.684   7.947   5.378
99061SOL     OW98956  11.806   7.985  13.542
99061SOL    HW198957  11.898   7.984  13.516
99061SOL    HW298958  11.789   8.076  13.564
99062SOL     OW98959  13.701   1.390   3.073
99062SOL    HW198960  13.687   1.378   3.167
99062SOL    HW298961  13.626   1.347   3.032
99063SOL     OW98962   2.697   1.729   2.905
99063SOL    HW198963   2.641   1.705   2.980
99063SOL    HW298964   2.748   1.803   2.937
99064SOL     OW98965  11.521   0.174  10.077
99064SOL    HW198966  11.551   0.140   9.993
99064SOL    HW298967  11.569   0.256  10.087
99065SOL     OW98968  10.512  13.448   6.347
99065SOL    HW198969  10.525  13.357   6.374
99065SOL    HW298970  10.524  13.498   6.428
99066SOL     OW98971  13.301  10.449   7.853
99066SOL    HW198972  13.295  10.509   7.779
99066SOL    HW298973  13.393  10.423   7.855
99067SOL     OW98974   4.124   0.124   7.855
99067SOL    HW198975   4.115   0.214   7.886
99067SOL    HW298976   4.169   0.079   7.927
99068SOL     OW98977  14.089   4.169  13.787
99068SOL    HW198978  14.064   4.148  13.877
99068SOL    HW298979  14.090   4.085  13.741
99069SOL     OW98980   9.759  13.503   3.797
99069SOL    HW198981   9.716  13.582   3.830
99069SOL    HW298982   9.734  13.434   3.858
99070SOL     OW98983   6.838   7.328   1.849
99070SOL    HW198984   6.876   7.410   1.820
99070SOL    HW298985   6.868   7.317   1.939
99071SOL     OW98986   7.766   1.322   3.552
99071SOL    HW198987   7.845   1.332   3.498
99071SOL    HW298988   7.800   1.318   3.642
99072SOL     OW98989   3.435   5.611  12.077
99072SOL    HW198990   3.366   5.560  12.035
99072SOL    HW298991   3.390   5.685  12.118
99073SOL     OW98992   6.532   6.589   1.516
99073SOL    HW198993   6.509   6.542   1.597
99073SOL    HW298994   6.624   6.610   1.526
99074SOL     OW98995   5.798   7.199   4.674
99074SOL    HW198996   5.707   7.230   4.671
99074SOL    HW298997   5.851   7.278   4.663
99075SOL     OW98998   7.169   2.676   2.416
99075SOL    HW198999   7.085   2.646   2.452
99075SOL    HW299000   7.229   2.673   2.490
99076SOL     OW99001  14.127  11.604   9.728
99076SOL    HW199002  14.159  11.519   9.698
99076SOL    HW299003  14.199  11.664   9.711
99077SOL     OW99004   4.110  12.792  12.571
99077SOL    HW199005   4.098  12.697  12.581
99077SOL    HW299006   4.188  12.811  12.623
99078SOL     OW99007  11.310   0.239   3.222
99078SOL    HW199008  11.315   0.245   3.126
99078SOL    HW299009  11.248   0.168   3.238
99079SOL     OW99010   5.385  13.281   0.147
99079SOL    HW199011   5.439  13.212   0.186
99079SOL    HW299012   5.441  13.359   0.147
99080SOL     OW99013   6.784  11.233   0.449
99080SOL    HW199014   6.722  11.291   0.493
99080SOL    HW299015   6.775  11.150   0.495
99081SOL     OW99016   2.289  12.074   8.097
99081SOL    HW199017   2.241  11.992   8.106
99081SOL    HW299018   2.234  12.129   8.042
99082SOL     OW99019   5.214   7.684   1.465
99082SOL    HW199020   5.253   7.614   1.517
99082SOL    HW299021   5.288   7.733   1.430
99083SOL     OW99022   4.426  12.510   0.547
99083SOL    HW199023   4.460  12.596   0.573
99083SOL    HW299024   4.378  12.528   0.466
99084SOL     OW99025   4.034   5.972   5.194
99084SOL    HW199026   4.120   5.929   5.194
99084SOL    HW299027   3.974   5.905   5.227
99085SOL     OW99028  12.221   6.759   4.470
99085SOL    HW199029  12.302   6.708   4.472
99085SOL    HW299030  12.212   6.788   4.379
99086SOL     OW99031   5.980  14.822   7.163
99086SOL    HW199032   5.932  14.822   7.080
99086SOL    HW299033   5.930  14.763   7.219
99087SOL     OW99034  14.268   8.807   2.516
99087SOL    HW199035  14.224   8.855   2.446
99087SOL    HW299036  14.244   8.855   2.596
99088SOL     OW99037   2.528   3.195   7.181
99088SOL    HW199038   2.587   3.121   7.166
99088SOL    HW299039   2.451   3.175   7.128
99089SOL     OW99040   0.332  13.907   4.937
99089SOL    HW199041   0.335  13.940   5.027
99089SOL    HW299042   0.309  13.815   4.946
99090SOL     OW99043  13.243   3.541  13.150
99090SOL    HW199044  13.184   3.578  13.216
99090SOL    HW299045  13.328   3.537  13.194
99091SOL     OW99046  14.165  12.642   0.390
99091SOL    HW199047  14.095  12.581   0.413
99091SOL    HW299048  14.218  12.648   0.469
99092SOL     OW99049   2.528   5.632   1.200
99092SOL    HW199050   2.590   5.676   1.143
99092SOL    HW299051   2.582   5.585   1.263
99093SOL     OW99052   6.477   9.262   6.995
99093SOL    HW199053   6.515   9.257   6.907
99093SOL    HW299054   6.548   9.239   7.054
99094SOL     OW99055   2.486   8.122  11.449
99094SOL    HW199056   2.487   8.076  11.365
99094SOL    HW299057   2.542   8.069  11.506
99095SOL     OW99058  13.672   2.465  10.332
99095SOL    HW199059  13.581   2.493  10.346
99095SOL    HW299060  13.722   2.546  10.327
99096SOL     OW99061   3.620  11.378   2.222
99096SOL    HW199062   3.699  11.365   2.169
99096SOL    HW299063   3.629  11.315   2.294
99097SOL     OW99064  14.852   2.323   8.058
99097SOL    HW199065  14.860   2.340   7.964
99097SOL    HW299066  14.789   2.251   8.064
99098SOL     OW99067   9.169   9.174  10.350
99098SOL    HW199068   9.104   9.159  10.419
99098SOL    HW299069   9.117   9.181  10.270
99099SOL     OW99070   3.854   1.503   9.557
99099SOL    HW199071   3.772   1.507   9.606
99099SOL    HW299072   3.857   1.415   9.521
99100SOL     OW99073   1.831   2.630  11.573
99100SOL    HW199074   1.841   2.551  11.625
99100SOL    HW299075   1.774   2.603  11.501
99101SOL     OW99076   9.517   2.148  11.440
99101SOL    HW199077   9.567   2.090  11.498
99101SOL    HW299078   9.584   2.199  11.394
99102SOL     OW99079   3.301   1.627  11.918
99102SOL    HW199080   3.394   1.609  11.935
99102SOL    HW299081   3.283   1.707  11.968
99103SOL     OW99082   7.771   7.610   4.122
99103SOL    HW199083   7.724   7.692   4.104
99103SOL    HW299084   7.703   7.544   4.127
99104SOL     OW99085   6.708  12.128   1.490
99104SOL    HW199086   6.787  12.123   1.436
99104SOL    HW299087   6.648  12.183   1.440
99105SOL     OW99088  11.550  10.675   1.120
99105SOL    HW199089  11.595  10.701   1.039
99105SOL    HW299090  11.459  10.662   1.094
99106SOL     OW99091  11.713   1.699  10.143
99106SOL    HW199092  11.649   1.759  10.182
99106SOL    HW299093  11.704   1.619  10.195
99107SOL     OW99094   4.931   1.221   0.768
99107SOL    HW199095   4.874   1.237   0.844
99107SOL    HW299096   4.956   1.129   0.776
99108SOL     OW99097   0.309  14.706   9.726
99108SOL    HW199098   0.285  14.734   9.638
99108SOL    HW299099   0.400  14.734   9.736
99109SOL     OW99100   8.758   6.279   4.046
99109SOL    HW199101   8.744   6.299   3.953
99109SOL    HW299102   8.833   6.219   4.047
99110SOL     OW99103  11.606  13.479   7.316
99110SOL    HW199104  11.616  13.552   7.255
99110SOL    HW299105  11.592  13.521   7.401
99111SOL     OW99106   4.255   9.913   8.327
99111SOL    HW199107   4.273   9.879   8.415
99111SOL    HW299108   4.308   9.992   8.321
99112SOL     OW99109   6.662  14.375   2.124
99112SOL    HW199110   6.756  14.383   2.144
99112SOL    HW299111   6.658  14.367   2.029
99113SOL     OW99112  11.790   3.125  12.790
99113SOL    HW199113  11.857   3.194  12.784
99113SOL    HW299114  11.822   3.067  12.859
99114SOL     OW99115  10.138   6.523  12.852
99114SOL    HW199116  10.192   6.578  12.908
99114SOL    HW299117  10.150   6.559  12.764
99115SOL     OW99118   8.654  13.426   2.006
99115SOL    HW199119   8.617  13.378   1.932
99115SOL    HW299120   8.747  13.437   1.984
99116SOL     OW99121   2.179   2.423   8.148
99116SOL    HW199122   2.227   2.389   8.073
99116SOL    HW299123   2.087   2.424   8.119
99117SOL     OW99124  12.391   8.927   4.496
99117SOL    HW199125  12.296   8.920   4.502
99117SOL    HW299126  12.408   9.021   4.491
99118SOL     OW99127  13.356   9.547   3.046
99118SOL    HW199128  13.356   9.464   2.998
99118SOL    HW299129  13.448   9.563   3.065
99119SOL     OW99130   2.551   3.808   1.313
99119SOL    HW199131   2.464   3.802   1.274
99119SOL    HW299132   2.597   3.731   1.279
99120SOL     OW99133   6.228  13.698   5.405
99120SOL    HW199134   6.189  13.610   5.405
99120SOL    HW299135   6.168  13.751   5.354
99121SOL     OW99136   2.544  10.211   6.206
99121SOL    HW199137   2.530  10.123   6.172
99121SOL    HW299138   2.488  10.267   6.152
99122SOL     OW99139   7.466   6.878  11.914
99122SOL    HW199140   7.490   6.785  11.916
99122SOL    HW299141   7.456   6.898  11.821
99123SOL     OW99142   6.257   1.202   0.358
99123SOL    HW199143   6.277   1.222   0.449
99123SOL    HW299144   6.255   1.287   0.314
99124SOL     OW99145  14.422  11.203   3.305
99124SOL    HW199146  14.456  11.292   3.291
99124SOL    HW299147  14.498  11.147   3.300
99125SOL     OW99148   2.520   7.875  12.164
99125SOL    HW199149   2.506   7.907  12.253
99125SOL    HW299150   2.531   7.955  12.112
99126SOL     OW99151   3.979   4.657   6.863
99126SOL    HW199152   3.908   4.681   6.803
99126SOL    HW299153   3.966   4.564   6.880
99127SOL     OW99154   6.931  13.091   1.154
99127SOL    HW199155   6.947  13.180   1.183
99127SOL    HW299156   6.871  13.054   1.219
99128SOL     OW99157   4.972   0.367   5.920
99128SOL    HW199158   4.910   0.430   5.955
99128SOL    HW299159   5.033   0.420   5.868
99129SOL     OW99160   0.129   9.701   9.741
99129SOL    HW199161   0.046   9.663   9.768
99129SOL    HW299162   0.195   9.642   9.778
99130SOL     OW99163   0.932   9.396   7.382
99130SOL    HW199164   1.027   9.383   7.375
99130SOL    HW299165   0.919   9.428   7.472
99131SOL     OW99166   1.877   7.963   2.562
99131SOL    HW199167   1.914   8.044   2.598
99131SOL    HW299168   1.798   7.991   2.516
99132SOL     OW99169  10.558   6.281   9.723
99132SOL    HW199170  10.471   6.319   9.730
99132SOL    HW299171  10.592   6.280   9.813
99133SOL     OW99172  11.845   2.530   1.411
99133SOL    HW199173  11.755   2.518   1.383
99133SOL    HW299174  11.896   2.471   1.355
99134SOL     OW99175   8.443   4.286   5.851
99134SOL    HW199176   8.465   4.378   5.845
99134SOL    HW299177   8.519   4.239   5.816
99135SOL     OW99178   1.355  14.458   9.827
99135SOL    HW199179   1.332  14.485   9.738
99135SOL    HW299180   1.287  14.396   9.852
99136SOL     OW99181   1.008   7.861   9.459
99136SOL    HW199182   0.947   7.915   9.510
99136SOL    HW299183   1.057   7.925   9.406
99137SOL     OW99184  14.806   8.409   7.723
99137SOL    HW199185  14.738   8.457   7.770
99137SOL    HW299186  14.871   8.388   7.791
99138SOL     OW99187   6.714   7.734  12.344
99138SOL    HW199188   6.781   7.793  12.311
99138SOL    HW299189   6.653   7.791  12.391
99139SOL     OW99190  12.162  10.171  10.651
99139SOL    HW199191  12.073  10.206  10.653
99139SOL    HW299192  12.150  10.076  10.647
99140SOL     OW99193  13.875  12.093  10.517
99140SOL    HW199194  13.805  12.107  10.580
99140SOL    HW299195  13.846  12.138  10.438
99141SOL     OW99196   6.290  13.161   6.035
99141SOL    HW199197   6.225  13.104   6.075
99141SOL    HW299198   6.248  13.247   6.031
99142SOL     OW99199   2.986   8.765   4.914
99142SOL    HW199200   3.032   8.849   4.914
99142SOL    HW299201   2.933   8.767   4.994
99143SOL     OW99202  13.884  11.330   9.349
99143SOL    HW199203  13.880  11.319   9.444
99143SOL    HW299204  13.800  11.298   9.317
99144SOL     OW99205   9.823  11.556  14.635
99144SOL    HW199206   9.886  11.494  14.673
99144SOL    HW299207   9.770  11.583  14.710
99145SOL     OW99208   6.125   2.585  11.698
99145SOL    HW199209   6.047   2.597  11.644
99145SOL    HW299210   6.155   2.674  11.717
99146SOL     OW99211  14.291  13.520   8.946
99146SOL    HW199212  14.254  13.605   8.973
99146SOL    HW299213  14.323  13.481   9.027
99147SOL     OW99214   4.558   4.255  11.923
99147SOL    HW199215   4.464   4.241  11.925
99147SOL    HW299216   4.596   4.175  11.960
99148SOL     OW99217   6.341   6.251  13.213
99148SOL    HW199218   6.345   6.291  13.300
99148SOL    HW299219   6.425   6.206  13.204
99149SOL     OW99220   8.936   9.077   3.082
99149SOL    HW199221   9.002   9.010   3.066
99149SOL    HW299222   8.867   9.033   3.130
99150SOL     OW99223  10.761   5.317  13.940
99150SOL    HW199224  10.738   5.354  14.025
99150SOL    HW299225  10.761   5.392  13.880
99151SOL     OW99226   1.993  14.738   7.258
99151SOL    HW199227   2.050  14.772   7.189
99151SOL    HW299228   2.044  14.669   7.299
99152SOL     OW99229   4.536  11.982  12.200
99152SOL    HW199230   4.550  11.921  12.273
99152SOL    HW299231   4.451  12.022  12.219
99153SOL     OW99232   9.411  12.100  13.722
99153SOL    HW199233   9.478  12.129  13.661
99153SOL    HW299234   9.434  12.009  13.743
99154SOL     OW99235  14.074   0.147   1.829
99154SOL    HW199236  14.112   0.117   1.912
99154SOL    HW299237  13.980   0.156   1.848
99155SOL     OW99238  11.286  14.579  10.327
99155SOL    HW199239  11.206  14.539  10.292
99155SOL    HW299240  11.354  14.513  10.312
99156SOL     OW99241   9.880   4.948  13.002
99156SOL    HW199242   9.938   4.886  12.956
99156SOL    HW299243   9.898   4.933  13.095
99157SOL     OW99244   5.906   5.984  10.986
99157SOL    HW199245   5.891   6.077  11.003
99157SOL    HW299246   5.834   5.940  11.031
99158SOL     OW99247  12.451   5.143  10.139
99158SOL    HW199248  12.374   5.154  10.083
99158SOL    HW299249  12.445   5.216  10.201
99159SOL     OW99250  13.034   1.252   5.252
99159SOL    HW199251  13.061   1.324   5.196
99159SOL    HW299252  12.958   1.286   5.300
99160SOL     OW99253   3.895   6.207   4.326
99160SOL    HW199254   3.832   6.204   4.398
99160SOL    HW299255   3.849   6.253   4.256
99161SOL     OW99256  13.313   3.308   6.694
99161SOL    HW199257  13.393   3.352   6.724
99161SOL    HW299258  13.280   3.263   6.772
99162SOL     OW99259   0.047   0.775   9.369
99162SOL    HW199260   0.116   0.807   9.310
99162SOL    HW299261  14.866   0.732   9.311
99163SOL     OW99262  12.272  13.642   3.666
99163SOL    HW199263  12.350  13.669   3.715
99163SOL    HW299264  12.296  13.654   3.574
99164SOL     OW99265   9.349   0.642   4.937
99164SOL    HW199266   9.335   0.727   4.978
99164SOL    HW299267   9.276   0.588   4.968
99165SOL     OW99268  12.582  11.487   7.648
99165SOL    HW199269  12.497  11.488   7.692
99165SOL    HW299270  12.594  11.397   7.619
99166SOL     OW99271   7.334   6.928   2.807
99166SOL    HW199272   7.358   6.836   2.798
99166SOL    HW299273   7.256   6.938   2.753
99167SOL     OW99274  11.880   7.669   3.744
99167SOL    HW199275  11.950   7.687   3.806
99167SOL    HW299276  11.907   7.712   3.663
99168SOL     OW99277   0.674  12.209  13.298
99168SOL    HW199278   0.761  12.177  13.320
99168SOL    HW299279   0.615  12.157  13.353
99169SOL     OW99280  14.842   4.012   8.539
99169SOL    HW199281  14.817   3.958   8.615
99169SOL    HW299282  14.867   4.096   8.577
99170SOL     OW99283  12.675  12.352   1.388
99170SOL    HW199284  12.623  12.280   1.424
99170SOL    HW299285  12.663  12.424   1.449
99171SOL     OW99286  11.213   0.326   9.344
99171SOL    HW199287  11.185   0.389   9.411
99171SOL    HW299288  11.137   0.269   9.332
99172SOL     OW99289   3.494  11.702   6.976
99172SOL    HW199290   3.438  11.740   7.044
99172SOL    HW299291   3.461  11.613   6.966
99173SOL     OW99292   7.526   6.466   6.905
99173SOL    HW199293   7.460   6.503   6.964
99173SOL    HW299294   7.593   6.431   6.963
99174SOL     OW99295   3.301   1.133  12.503
99174SOL    HW199296   3.239   1.192  12.546
99174SOL    HW299297   3.270   1.127  12.412
99175SOL     OW99298  12.258   8.517   5.395
99175SOL    HW199299  12.266   8.523   5.490
99175SOL    HW299300  12.208   8.437   5.380
99176SOL     OW99301   0.166  11.860   3.189
99176SOL    HW199302   0.153  11.875   3.096
99176SOL    HW299303   0.079  11.873   3.228
99177SOL     OW99304   1.854   7.235   8.112
99177SOL    HW199305   1.831   7.182   8.036
99177SOL    HW299306   1.895   7.314   8.076
99178SOL     OW99307   0.260   4.082   2.927
99178SOL    HW199308   0.265   4.026   3.004
99178SOL    HW299309   0.329   4.147   2.939
99179SOL     OW99310   3.611   4.832  11.932
99179SOL    HW199311   3.554   4.793  11.998
99179SOL    HW299312   3.556   4.837  11.854
99180SOL     OW99313   1.726   5.315   7.786
99180SOL    HW199314   1.764   5.255   7.722
99180SOL    HW299315   1.751   5.402   7.754
99181SOL     OW99316   1.505   2.280   2.427
99181SOL    HW199317   1.436   2.344   2.442
99181SOL    HW299318   1.537   2.299   2.338
99182SOL     OW99319  11.118   1.083   0.803
99182SOL    HW199320  11.115   1.169   0.760
99182SOL    HW299321  11.078   1.098   0.888
99183SOL     OW99322   8.046   0.238  13.998
99183SOL    HW199323   7.976   0.174  14.014
99183SOL    HW299324   8.107   0.193  13.940
99184SOL     OW99325   5.994   9.553   4.640
99184SOL    HW199326   6.020   9.546   4.732
99184SOL    HW299327   5.970   9.464   4.616
99185SOL     OW99328  10.738   4.720   4.825
99185SOL    HW199329  10.800   4.673   4.770
99185SOL    HW299330  10.693   4.780   4.765
99186SOL     OW99331   9.567   7.726  12.052
99186SOL    HW199332   9.585   7.652  12.110
99186SOL    HW299333   9.477   7.711  12.022
99187SOL     OW99334  13.801   6.155  10.780
99187SOL    HW199335  13.719   6.156  10.731
99187SOL    HW299336  13.857   6.218  10.734
99188SOL     OW99337   6.462   4.167   3.417
99188SOL    HW199338   6.462   4.262   3.422
99188SOL    HW299339   6.528   4.147   3.350
99189SOL     OW99340  10.279  10.420   5.905
99189SOL    HW199341  10.264  10.450   5.995
99189SOL    HW299342  10.258  10.497   5.851
99190SOL     OW99343  12.169  11.113   2.913
99190SOL    HW199344  12.200  11.023   2.924
99190SOL    HW299345  12.074  11.107   2.920
99191SOL     OW99346   9.812   9.867   2.616
99191SOL    HW199347   9.879   9.904   2.673
99191SOL    HW299348   9.859   9.841   2.537
99192SOL     OW99349   7.040  11.308   2.075
99192SOL    HW199350   7.110  11.244   2.090
99192SOL    HW299351   6.985  11.269   2.008
99193SOL     OW99352  12.038   2.835  13.877
99193SOL    HW199353  12.065   2.835  13.969
99193SOL    HW299354  12.075   2.916  13.842
99194SOL     OW99355   0.025  12.802  13.474
99194SOL    HW199356   0.009  12.713  13.441
99194SOL    HW299357  14.854  12.808  13.554
99195SOL     OW99358   8.152   9.195   6.413
99195SOL    HW199359   8.246   9.215   6.415
99195SOL    HW299360   8.115   9.262   6.356
99196SOL     OW99361   0.666   0.194   6.004
99196SOL    HW199362   0.643   0.228   5.918
99196SOL    HW299363   0.602   0.233   6.064
99197SOL     OW99364  13.621  13.691   4.706
99197SOL    HW199365  13.666  13.608   4.722
99197SOL    HW299366  13.667  13.754   4.762
99198SOL     OW99367  11.454   8.080  11.510
99198SOL    HW199368  11.515   8.146  11.476
99198SOL    HW299369  11.390   8.130  11.560
99199SOL     OW99370   7.419   6.610  13.206
99199SOL    HW199371   7.383   6.531  13.246
99199SOL    HW299372   7.345   6.649  13.159
99200SOL     OW99373   5.859   2.280   8.062
99200SOL    HW199374   5.928   2.223   8.096
99200SOL    HW299375   5.906   2.345   8.009
99201SOL     OW99376   6.690  14.788  13.768
99201SOL    HW199377   6.655  14.755  13.685
99201SOL    HW299378   6.650  14.731  13.834
99202SOL     OW99379   2.722  11.454   2.835
99202SOL    HW199380   2.652  11.392   2.855
99202SOL    HW299381   2.691  11.502   2.758
99203SOL     OW99382   4.475   4.332  11.276
99203SOL    HW199383   4.566   4.304  11.279
99203SOL    HW299384   4.469   4.390  11.200
99204SOL     OW99385  14.775   7.767   6.308
99204SOL    HW199386  14.825   7.719   6.375
99204SOL    HW299387  14.686   7.731   6.314
99205SOL     OW99388  11.589   5.033   0.327
99205SOL    HW199389  11.562   4.984   0.250
99205SOL    HW299390  11.585   4.970   0.399
99206SOL     OW99391   3.683  14.391   7.885
99206SOL    HW199392   3.740  14.462   7.915
99206SOL    HW299393   3.658  14.345   7.965
99207SOL     OW99394   9.071  14.709   9.431
99207SOL    HW199395   9.006  14.639   9.431
99207SOL    HW299396   9.140  14.677   9.374
99208SOL     OW99397   9.317   7.749  11.989
99208SOL    HW199398   9.289   7.759  12.080
99208SOL    HW299399   9.237   7.723  11.943
99209SOL     OW99400   4.500  10.488  11.540
99209SOL    HW199401   4.466  10.570  11.503
99209SOL    HW299402   4.426  10.428  11.536
99210SOL     OW99403  13.492   0.260   3.034
99210SOL    HW199404  13.522   0.285   2.946
99210SOL    HW299405  13.564   0.208   3.069
99211SOL     OW99406  10.383   4.088   2.934
99211SOL    HW199407  10.334   4.008   2.914
99211SOL    HW299408  10.471   4.057   2.955
99212SOL     OW99409   8.653   0.688  13.497
99212SOL    HW199410   8.687   0.778  13.507
99212SOL    HW299411   8.710   0.649  13.431
99213SOL     OW99412   8.883   5.918   1.308
99213SOL    HW199413   8.944   5.943   1.377
99213SOL    HW299414   8.894   5.985   1.241
99214SOL     OW99415  14.442   6.712  12.354
99214SOL    HW199416  14.452   6.728  12.448
99214SOL    HW299417  14.530   6.729  12.318
99215SOL     OW99418  10.594   6.921   1.861
99215SOL    HW199419  10.572   6.917   1.954
99215SOL    HW299420  10.519   6.965   1.820
99216SOL     OW99421   5.156   4.990   3.088
99216SOL    HW199422   5.220   5.043   3.136
99216SOL    HW299423   5.081   4.982   3.147
99217SOL     OW99424   6.529   6.155   4.955
99217SOL    HW199425   6.518   6.066   4.987
99217SOL    HW299426   6.591   6.147   4.882
99218SOL     OW99427   4.745   2.228   7.382
99218SOL    HW199428   4.758   2.205   7.474
99218SOL    HW299429   4.737   2.143   7.338
99219SOL     OW99430   1.572   1.991   8.425
99219SOL    HW199431   1.576   1.918   8.487
99219SOL    HW299432   1.527   2.060   8.474
99220SOL     OW99433   5.788   1.261   3.209
99220SOL    HW199434   5.695   1.270   3.226
99220SOL    HW299435   5.831   1.303   3.284
99221SOL     OW99436   8.121   8.858   5.314
99221SOL    HW199437   8.027   8.861   5.328
99221SOL    HW299438   8.136   8.910   5.235
99222SOL     OW99439   1.603   7.234  13.831
99222SOL    HW199440   1.532   7.283  13.790
99222SOL    HW299441   1.625   7.167  13.766
99223SOL     OW99442   7.415   6.258   2.789
99223SOL    HW199443   7.371   6.307   2.858
99223SOL    HW299444   7.509   6.273   2.804
99224SOL     OW99445  12.996   1.690   0.791
99224SOL    HW199446  12.924   1.634   0.762
99224SOL    HW299447  13.034   1.643   0.865
99225SOL     OW99448   2.200  12.947  10.932
99225SOL    HW199449   2.152  13.030  10.934
99225SOL    HW299450   2.150  12.891  10.873
99226SOL     OW99451   4.722   3.852   7.705
99226SOL    HW199452   4.693   3.763   7.724
99226SOL    HW299453   4.799   3.841   7.649
99227SOL     OW99454  11.449   3.494  11.229
99227SOL    HW199455  11.390   3.430  11.189
99227SOL    HW299456  11.415   3.579  11.202
99228SOL     OW99457  14.304   4.457  10.190
99228SOL    HW199458  14.323   4.531  10.133
99228SOL    HW299459  14.320   4.380  10.136
99229SOL     OW99460   9.885   8.526  13.067
99229SOL    HW199461   9.933   8.461  13.119
99229SOL    HW299462   9.916   8.512  12.977
99230SOL     OW99463   9.866   2.052   5.533
99230SOL    HW199464   9.937   2.044   5.470
99230SOL    HW299465   9.906   2.030   5.617
99231SOL     OW99466  11.992   0.095  13.050
99231SOL    HW199467  11.977   0.076  12.958
99231SOL    HW299468  12.010   0.010  13.089
99232SOL     OW99469  10.959  13.458   5.884
99232SOL    HW199470  11.002  13.413   5.957
99232SOL    HW299471  10.871  13.422   5.882
99233SOL     OW99472  10.834  13.259   2.838
99233SOL    HW199473  10.748  13.217   2.827
99233SOL    HW299474  10.814  13.349   2.864
99234SOL     OW99475  12.829   1.219   4.072
99234SOL    HW199476  12.734   1.222   4.085
99234SOL    HW299477  12.849   1.298   4.022
99235SOL     OW99478   0.674   4.943   1.458
99235SOL    HW199479   0.680   5.013   1.393
99235SOL    HW299480   0.749   4.958   1.516
99236SOL     OW99481  11.770   9.139   7.197
99236SOL    HW199482  11.707   9.186   7.251
99236SOL    HW299483  11.753   9.171   7.108
99237SOL     OW99484   6.244  13.617   9.091
99237SOL    HW199485   6.287  13.547   9.043
99237SOL    HW299486   6.305  13.690   9.087
99238SOL     OW99487  11.722  10.154   9.980
99238SOL    HW199488  11.765  10.236   9.956
99238SOL    HW299489  11.709  10.161  10.075
99239SOL     OW99490   8.540  10.260   0.483
99239SOL    HW199491   8.510  10.192   0.422
99239SOL    HW299492   8.507  10.341   0.446
99240SOL     OW99493   4.716   5.726   5.248
99240SOL    HW199494   4.757   5.800   5.293
99240SOL    HW299495   4.749   5.731   5.159
99241SOL     OW99496   8.214   7.420   1.794
99241SOL    HW199497   8.130   7.414   1.841
99241SOL    HW299498   8.224   7.513   1.775
99242SOL     OW99499  13.211  12.188   2.898
99242SOL    HW199500  13.208  12.119   2.832
99242SOL    HW299501  13.155  12.156   2.969
99243SOL     OW99502   4.106   0.848  11.874
99243SOL    HW199503   4.023   0.801  11.867
99243SOL    HW299504   4.130   0.841  11.967
99244SOL     OW99505  14.096  12.355   4.117
99244SOL    HW199506  14.108  12.262   4.138
99244SOL    HW299507  14.068  12.395   4.199
99245SOL     OW99508  12.990  14.450   7.004
99245SOL    HW199509  13.032  14.378   6.957
99245SOL    HW299510  13.006  14.432   7.096
99246SOL     OW99511   4.614   6.648  12.783
99246SOL    HW199512   4.563   6.710  12.731
99246SOL    HW299513   4.560   6.569  12.785
99247SOL     OW99514  10.925   1.393   5.429
99247SOL    HW199515  11.010   1.415   5.468
99247SOL    HW299516  10.948   1.340   5.352
99248SOL     OW99517  11.546  11.242   1.158
99248SOL    HW199518  11.515  11.155   1.131
99248SOL    HW299519  11.586  11.227   1.244
99249SOL     OW99520   1.621  13.325  11.161
99249SOL    HW199521   1.667  13.322  11.245
99249SOL    HW299522   1.534  13.360  11.181
99250SOL     OW99523   0.467   1.871   5.842
99250SOL    HW199524   0.385   1.911   5.871
99250SOL    HW299525   0.454   1.856   5.748
99251SOL     OW99526   5.829   9.622   6.817
99251SOL    HW199527   5.823   9.611   6.722
99251SOL    HW299528   5.922   9.610   6.836
99252SOL     OW99529  12.029  12.869   4.496
99252SOL    HW199530  12.086  12.932   4.451
99252SOL    HW299531  12.036  12.789   4.444
99253SOL     OW99532  11.206  13.314   9.775
99253SOL    HW199533  11.278  13.251   9.771
99253SOL    HW299534  11.212  13.363   9.693
99254SOL     OW99535   6.879   3.264  12.029
99254SOL    HW199536   6.966   3.304  12.030
99254SOL    HW299537   6.895   3.175  11.998
99255SOL     OW99538   8.181   2.746   4.213
99255SOL    HW199539   8.200   2.820   4.155
99255SOL    HW299540   8.152   2.677   4.154
99256SOL     OW99541   9.056   8.042  12.097
99256SOL    HW199542   9.107   7.996  12.163
99256SOL    HW299543   9.067   8.135  12.117
99257SOL     OW99544   4.392  12.467   3.848
99257SOL    HW199545   4.421  12.531   3.913
99257SOL    HW299546   4.381  12.386   3.896
99258SOL     OW99547  14.731  11.542   1.669
99258SOL    HW199548  14.724  11.636   1.689
99258SOL    HW299549  14.817  11.533   1.629
99259SOL     OW99550   5.830   6.161  13.905
99259SOL    HW199551   5.840   6.253  13.928
99259SOL    HW299552   5.739   6.140  13.929
99260SOL     OW99553  13.204  13.800  13.684
99260SOL    HW199554  13.119  13.812  13.642
99260SOL    HW299555  13.185  13.744  13.760
99261SOL     OW99556   4.247   0.151   5.524
99261SOL    HW199557   4.155   0.153   5.500
99261SOL    HW299558   4.294   0.159   5.442
99262SOL     OW99559   5.874   6.662   9.508
99262SOL    HW199560   5.904   6.594   9.568
99262SOL    HW299561   5.953   6.691   9.463
99263SOL     OW99562   5.557   7.052   5.507
99263SOL    HW199563   5.592   7.077   5.422
99263SOL    HW299564   5.629   7.005   5.550
99264SOL     OW99565   5.797   4.773  12.350
99264SOL    HW199566   5.816   4.865  12.335
99264SOL    HW299567   5.712   4.772  12.395
99265SOL     OW99568  11.015  11.405  13.267
99265SOL    HW199569  11.011  11.381  13.175
99265SOL    HW299570  10.959  11.342  13.311
99266SOL     OW99571   3.765  13.073  11.540
99266SOL    HW199572   3.750  13.159  11.499
99266SOL    HW299573   3.830  13.090  11.608
99267SOL     OW99574   5.920   7.311   3.645
99267SOL    HW199575   5.946   7.222   3.619
99267SOL    HW299576   6.002   7.353   3.670
99268SOL     OW99577   1.897   3.144   5.301
99268SOL    HW199578   1.824   3.159   5.362
99268SOL    HW299579   1.942   3.068   5.337
99269SOL     OW99580  14.460   2.266  14.832
99269SOL    HW199581  14.382   2.272   0.007
99269SOL    HW299582  14.443   2.328  14.761
99270SOL     OW99583  10.316  12.791  13.602
99270SOL    HW199584  10.292  12.740  13.525
99270SOL    HW299585  10.387  12.740  13.643
99271SOL     OW99586   8.853  12.732  10.314
99271SOL    HW199587   8.941  12.767  10.300
99271SOL    HW299588   8.856  12.644  10.277
99272SOL     OW99589   1.216   9.362  14.286
99272SOL    HW199590   1.269   9.416  14.345
99272SOL    HW299591   1.279   9.323  14.226
99273SOL     OW99592  11.811  14.070  11.777
99273SOL    HW199593  11.822  14.064  11.682
99273SOL    HW299594  11.899  14.087  11.810
99274SOL     OW99595   9.942   4.188   4.162
99274SOL    HW199596   9.948   4.159   4.071
99274SOL    HW299597   9.898   4.274   4.157
99275SOL     OW99598   3.170   4.376   0.291
99275SOL    HW199599   3.139   4.288   0.316
99275SOL    HW299600   3.238   4.360   0.226
99276SOL     OW99601  11.116   8.314  12.582
99276SOL    HW199602  11.153   8.247  12.525
99276SOL    HW299603  11.189   8.339  12.639
99277SOL     OW99604   3.488  12.021   1.950
99277SOL    HW199605   3.407  12.072   1.945
99277SOL    HW299606   3.474  11.949   1.889
99278SOL     OW99607  11.291  12.881   8.846
99278SOL    HW199608  11.247  12.885   8.930
99278SOL    HW299609  11.365  12.941   8.854
99279SOL     OW99610  14.276   7.708   7.694
99279SOL    HW199611  14.271   7.692   7.600
99279SOL    HW299612  14.307   7.798   7.701
99280SOL     OW99613   6.905  10.386  11.677
99280SOL    HW199614   6.853  10.317  11.719
99280SOL    HW299615   6.919  10.451  11.746
99281SOL     OW99616  13.341   9.763  11.375
99281SOL    HW199617  13.265   9.813  11.345
99281SOL    HW299618  13.378   9.725  11.295
99282SOL     OW99619   1.698   6.677   1.487
99282SOL    HW199620   1.698   6.607   1.553
99282SOL    HW299621   1.770   6.734   1.513
99283SOL     OW99622   1.683   9.590   7.122
99283SOL    HW199623   1.761   9.641   7.101
99283SOL    HW299624   1.693   9.509   7.072
99284SOL     OW99625   8.559   9.915   5.159
99284SOL    HW199626   8.487   9.852   5.166
99284SOL    HW299627   8.612   9.883   5.086
99285SOL     OW99628  10.462  10.528  14.464
99285SOL    HW199629  10.492  10.440  14.490
99285SOL    HW299630  10.374  10.535  14.501
99286SOL     OW99631   7.290   5.995   2.828
99286SOL    HW199632   7.208   6.013   2.873
99286SOL    HW299633   7.333   6.081   2.822
99287SOL     OW99634  13.065  12.214   9.189
99287SOL    HW199635  13.139  12.216   9.128
99287SOL    HW299636  13.083  12.285   9.251
99288SOL     OW99637   1.187  11.457   1.441
99288SOL    HW199638   1.158  11.529   1.497
99288SOL    HW299639   1.228  11.395   1.502
99289SOL     OW99640   9.948   9.012  10.238
99289SOL    HW199641   9.876   9.034  10.297
99289SOL    HW299642   9.983   8.930  10.272
99290SOL     OW99643   6.686   8.452   4.521
99290SOL    HW199644   6.698   8.484   4.611
99290SOL    HW299645   6.736   8.513   4.468
99291SOL     OW99646   3.425   9.054   0.846
99291SOL    HW199647   3.486   9.128   0.849
99291SOL    HW299648   3.476   8.980   0.878
99292SOL     OW99649   3.477   3.686   0.645
99292SOL    HW199650   3.449   3.749   0.579
99292SOL    HW299651   3.551   3.641   0.605
99293SOL     OW99652  13.660  10.127  13.786
99293SOL    HW199653  13.652  10.039  13.748
99293SOL    HW299654  13.722  10.116  13.858
99294SOL     OW99655   8.140  10.105  11.420
99294SOL    HW199656   8.064  10.059  11.384
99294SOL    HW299657   8.205  10.100  11.350
99295SOL     OW99658  12.459  14.238   2.862
99295SOL    HW199659  12.441  14.218   2.954
99295SOL    HW299660  12.438  14.158   2.815
99296SOL     OW99661  10.846  11.778   4.893
99296SOL    HW199662  10.808  11.839   4.830
99296SOL    HW299663  10.805  11.694   4.872
99297SOL     OW99664   4.935  13.131  10.164
99297SOL    HW199665   4.935  13.175  10.080
99297SOL    HW299666   4.855  13.079  10.164
99298SOL     OW99667   9.065   0.473   7.200
99298SOL    HW199668   9.099   0.455   7.112
99298SOL    HW299669   8.995   0.409   7.212
99299SOL     OW99670  13.689   6.032   4.950
99299SOL    HW199671  13.783   6.037   4.967
99299SOL    HW299672  13.673   6.099   4.883
99300SOL     OW99673   9.313  12.453  11.374
99300SOL    HW199674   9.406  12.478  11.381
99300SOL    HW299675   9.271  12.495  11.450
99301SOL     OW99676  12.451   5.956   8.744
99301SOL    HW199677  12.543   5.947   8.715
99301SOL    HW299678  12.452   5.928   8.836
99302SOL     OW99679   0.888   1.082  14.782
99302SOL    HW199680   0.821   1.145  14.754
99302SOL    HW299681   0.916   1.114  14.868
99303SOL     OW99682  11.775   4.749   2.556
99303SOL    HW199683  11.868   4.771   2.552
99303SOL    HW299684  11.773   4.657   2.580
99304SOL     OW99685   6.295   8.614   1.614
99304SOL    HW199686   6.380   8.658   1.615
99304SOL    HW299687   6.231   8.686   1.620
99305SOL     OW99688   4.357   7.697   7.440
99305SOL    HW199689   4.452   7.693   7.440
99305SOL    HW299690   4.336   7.789   7.428
99306SOL     OW99691   2.452   4.999   3.043
99306SOL    HW199692   2.377   5.056   3.059
99306SOL    HW299693   2.438   4.966   2.954
99307SOL     OW99694   2.532   6.651   2.009
99307SOL    HW199695   2.551   6.744   2.000
99307SOL    HW299696   2.593   6.621   2.077
99308SOL     OW99697   5.706   6.232   6.002
99308SOL    HW199698   5.662   6.198   6.080
99308SOL    HW299699   5.798   6.240   6.028
99309SOL     OW99700   5.195   8.812   4.134
99309SOL    HW199701   5.174   8.776   4.047
99309SOL    HW299702   5.110   8.824   4.176
99310SOL     OW99703   0.742   1.819   1.844
99310SOL    HW199704   0.816   1.839   1.901
99310SOL    HW299705   0.671   1.796   1.904
99311SOL     OW99706   0.779  11.982  12.695
99311SOL    HW199707   0.831  12.049  12.649
99311SOL    HW299708   0.786  11.904  12.640
99312SOL     OW99709  11.240   4.486   4.167
99312SOL    HW199710  11.209   4.532   4.089
99312SOL    HW299711  11.248   4.395   4.138
99313SOL     OW99712   9.127   4.918   0.115
99313SOL    HW199713   9.203   4.966   0.147
99313SOL    HW299714   9.087   4.978   0.051
99314SOL     OW99715   6.318   3.137   5.281
99314SOL    HW199716   6.310   3.197   5.356
99314SOL    HW299717   6.232   3.138   5.240
99315SOL     OW99718   3.926  10.526   2.305
99315SOL    HW199719   4.009  10.527   2.258
99315SOL    HW299720   3.916  10.616   2.337
99316SOL     OW99721  11.338  12.349   3.358
99316SOL    HW199722  11.384  12.424   3.396
99316SOL    HW299723  11.259  12.387   3.320
99317SOL     OW99724  11.196   4.341   1.011
99317SOL    HW199725  11.276   4.323   0.963
99317SOL    HW299726  11.226   4.390   1.088
99318SOL     OW99727   5.742   0.420   6.871
99318SOL    HW199728   5.739   0.400   6.965
99318SOL    HW299729   5.834   0.443   6.855
99319SOL     OW99730  14.495   8.999   4.447
99319SOL    HW199731  14.454   9.086   4.445
99319SOL    HW299732  14.588   9.016   4.464
99320SOL     OW99733  14.165  14.629  13.909
99320SOL    HW199734  14.101  14.623  13.981
99320SOL    HW299735  14.151  14.550  13.858
99321SOL     OW99736   7.639  10.856   8.369
99321SOL    HW199737   7.629  10.870   8.463
99321SOL    HW299738   7.718  10.802   8.361
99322SOL     OW99739   0.997  10.634  13.911
99322SOL    HW199740   0.923  10.594  13.865
99322SOL    HW299741   0.970  10.636  14.003
99323SOL     OW99742   6.663   5.908   2.451
99323SOL    HW199743   6.631   5.854   2.379
99323SOL    HW299744   6.752   5.932   2.426
99324SOL     OW99745  12.225  13.499   0.732
99324SOL    HW199746  12.285  13.549   0.676
99324SOL    HW299747  12.187  13.434   0.673
99325SOL     OW99748   8.864  12.764   7.171
99325SOL    HW199749   8.833  12.678   7.144
99325SOL    HW299750   8.937  12.745   7.231
99326SOL     OW99751   3.309   8.083   4.703
99326SOL    HW199752   3.226   8.086   4.752
99326SOL    HW299753   3.335   8.175   4.696
99327SOL     OW99754  11.207   1.795   0.935
99327SOL    HW199755  11.245   1.870   0.981
99327SOL    HW299756  11.182   1.734   1.005
99328SOL     OW99757   8.331  14.518  11.681
99328SOL    HW199758   8.420  14.548  11.696
99328SOL    HW299759   8.331  14.488  11.590
99329SOL     OW99760   0.186  12.529  13.814
99329SOL    HW199761   0.195  12.488  13.900
99329SOL    HW299762   0.114  12.481  13.772
99330SOL     OW99763   9.399  13.934   7.741
99330SOL    HW199764   9.439  14.015   7.707
99330SOL    HW299765   9.431  13.928   7.831
99331SOL     OW99766  12.403   8.341   3.019
99331SOL    HW199767  12.376   8.404   3.087
99331SOL    HW299768  12.361   8.259   3.045
99332SOL     OW99769   3.730   2.084  14.515
99332SOL    HW199770   3.667   2.142  14.559
99332SOL    HW299771   3.811   2.094  14.565
99333SOL     OW99772  10.264   7.254  13.605
99333SOL    HW199773  10.291   7.180  13.659
99333SOL    HW299774  10.252   7.326  13.667
99334SOL     OW99775   1.700   9.676   9.359
99334SOL    HW199776   1.651   9.747   9.401
99334SOL    HW299777   1.790   9.689   9.387
99335SOL     OW99778  10.844   8.584  11.276
99335SOL    HW199779  10.749   8.594  11.286
99335SOL    HW299780  10.856   8.565  11.183
99336SOL     OW99781   8.649   3.331  10.962
99336SOL    HW199782   8.620   3.279  10.887
99336SOL    HW299783   8.596   3.299  11.035
99337SOL     OW99784  10.156  13.101   6.876
99337SOL    HW199785  10.121  13.043   6.944
99337SOL    HW299786  10.080  13.127   6.825
99338SOL     OW99787   5.281   8.261   1.281
99338SOL    HW199788   5.325   8.341   1.309
99338SOL    HW299789   5.192   8.288   1.260
99339SOL     OW99790   2.150   9.833  11.199
99339SOL    HW199791   2.193   9.768  11.142
99339SOL    HW299792   2.205   9.836  11.277
99340SOL     OW99793   0.400   9.279   7.669
99340SOL    HW199794   0.325   9.228   7.700
99340SOL    HW299795   0.391   9.364   7.712
99341SOL     OW99796   3.490   6.419   1.852
99341SOL    HW199797   3.572   6.461   1.828
99341SOL    HW299798   3.471   6.360   1.779
99342SOL     OW99799  13.968   7.446  14.680
99342SOL    HW199800  14.006   7.497  14.609
99342SOL    HW299801  13.873   7.448  14.663
99343SOL     OW99802   7.897   0.396  12.505
99343SOL    HW199803   7.856   0.309  12.512
99343SOL    HW299804   7.990   0.378  12.493
99344SOL     OW99805   4.968   5.887  11.106
99344SOL    HW199806   4.983   5.816  11.042
99344SOL    HW299807   5.055   5.923  11.122
99345SOL     OW99808   4.979  10.421   3.015
99345SOL    HW199809   4.942  10.419   3.103
99345SOL    HW299810   4.903  10.415   2.957
99346SOL     OW99811   7.040  11.501   9.225
99346SOL    HW199812   7.118  11.553   9.240
99346SOL    HW299813   7.043  11.433   9.293
99347SOL     OW99814  12.852   9.978   6.984
99347SOL    HW199815  12.869  10.073   6.980
99347SOL    HW299816  12.927   9.943   7.032
99348SOL     OW99817   6.903  14.305  11.385
99348SOL    HW199818   6.921  14.220  11.346
99348SOL    HW299819   6.809  14.306  11.401
99349SOL     OW99820  11.266   2.120  13.525
99349SOL    HW199821  11.237   2.031  13.502
99349SOL    HW299822  11.321   2.108  13.602
99350SOL     OW99823   9.216   0.327   4.902
99350SOL    HW199824   9.276   0.285   4.840
99350SOL    HW299825   9.156   0.257   4.928
99351SOL     OW99826   3.579   7.606   2.608
99351SOL    HW199827   3.643   7.536   2.590
99351SOL    HW299828   3.629   7.671   2.658
99352SOL     OW99829  12.355   4.135   0.726
99352SOL    HW199830  12.281   4.076   0.716
99352SOL    HW299831  12.366   4.144   0.821
99353SOL     OW99832   2.653  12.881   7.674
99353SOL    HW199833   2.609  12.819   7.733
99353SOL    HW299834   2.716  12.828   7.626
99354SOL     OW99835   8.148   4.607   7.574
99354SOL    HW199836   8.182   4.681   7.524
99354SOL    HW299837   8.132   4.539   7.509
99355SOL     OW99838   6.140  10.628  10.024
99355SOL    HW199839   6.170  10.544   9.989
99355SOL    HW299840   6.104  10.606  10.110
99356SOL     OW99841  13.417  12.418  11.944
99356SOL    HW199842  13.381  12.423  11.855
99356SOL    HW299843  13.414  12.325  11.966
99357SOL     OW99844  14.766   1.091  14.035
99357SOL    HW199845  14.836   1.145  14.071
99357SOL    HW299846  14.731   1.042  14.110
99358SOL     OW99847   7.831   9.673   0.316
99358SOL    HW199848   7.796   9.744   0.370
99358SOL    HW299849   7.926   9.679   0.329
99359SOL     OW99850   6.404  13.851   9.174
99359SOL    HW199851   6.472  13.794   9.208
99359SOL    HW299852   6.449  13.905   9.109
99360SOL     OW99853   1.080  10.430   3.189
99360SOL    HW199854   1.047  10.512   3.153
99360SOL    HW299855   1.002  10.375   3.198
99361SOL     OW99856   7.403   6.159   7.556
99361SOL    HW199857   7.356   6.238   7.531
99361SOL    HW299858   7.337   6.089   7.552
99362SOL     OW99859  13.509  12.630   4.813
99362SOL    HW199860  13.466  12.698   4.763
99362SOL    HW299861  13.576  12.596   4.755
99363SOL     OW99862   7.472  10.554  11.906
99363SOL    HW199863   7.513  10.581  11.824
99363SOL    HW299864   7.471  10.633  11.959
99364SOL     OW99865   1.508   2.694   2.010
99364SOL    HW199866   1.499   2.787   2.032
99364SOL    HW299867   1.419   2.659   2.022
99365SOL     OW99868   0.262   2.815   1.466
99365SOL    HW199869   0.321   2.859   1.405
99365SOL    HW299870   0.303   2.730   1.481
99366SOL     OW99871   3.557   3.293  13.173
99366SOL    HW199872   3.506   3.222  13.211
99366SOL    HW299873   3.577   3.351  13.246
99367SOL     OW99874  12.819   5.345   3.246
99367SOL    HW199875  12.734   5.388   3.239
99367SOL    HW299876  12.821   5.284   3.173
99368SOL     OW99877  14.271   9.038   9.761
99368SOL    HW199878  14.223   8.960   9.735
99368SOL    HW299879  14.229   9.109   9.712
99369SOL     OW99880   1.540   4.781  11.396
99369SOL    HW199881   1.586   4.799  11.314
99369SOL    HW299882   1.471   4.848  11.400
99370SOL     OW99883  14.700   6.770  12.317
99370SOL    HW199884  14.778   6.825  12.319
99370SOL    HW299885  14.670   6.773  12.226
99371SOL     OW99886   0.655   1.345   1.597
99371SOL    HW199887   0.690   1.266   1.556
99371SOL    HW299888   0.654   1.410   1.527
99372SOL     OW99889  14.109   3.567   1.895
99372SOL    HW199890  14.095   3.473   1.894
99372SOL    HW299891  14.087   3.595   1.806
99373SOL     OW99892  12.006  12.180  14.108
99373SOL    HW199893  11.996  12.233  14.187
99373SOL    HW299894  12.097  12.151  14.111
99374SOL     OW99895   7.088   0.841   3.778
99374SOL    HW199896   7.117   0.909   3.838
99374SOL    HW299897   7.082   0.885   3.693
99375SOL     OW99898   2.689  11.046  13.454
99375SOL    HW199899   2.666  11.111  13.520
99375SOL    HW299900   2.682  11.093  13.370
99376SOL     OW99901   1.152   7.455   5.774
99376SOL    HW199902   1.084   7.395   5.802
99376SOL    HW299903   1.109   7.513   5.711
99377SOL     OW99904   3.527   8.697  10.391
99377SOL    HW199905   3.571   8.629  10.442
99377SOL    HW299906   3.442   8.658  10.367
99378SOL     OW99907   2.730  11.704  12.624
99378SOL    HW199908   2.772  11.683  12.541
99378SOL    HW299909   2.687  11.622  12.650
99379SOL     OW99910   5.821  10.307  12.078
99379SOL    HW199911   5.746  10.298  12.020
99379SOL    HW299912   5.822  10.401  12.100
99380SOL     OW99913   0.226   0.804   0.626
99380SOL    HW199914   0.189   0.723   0.661
99380SOL    HW299915   0.304   0.776   0.579
99381SOL     OW99916   1.378  14.642   9.353
99381SOL    HW199917   1.422  14.723   9.376
99381SOL    HW299918   1.427  14.609   9.277
99382SOL     OW99919   7.979   6.367   8.498
99382SOL    HW199920   7.944   6.342   8.413
99382SOL    HW299921   7.933   6.311   8.561
99383SOL     OW99922   8.876   3.007   6.191
99383SOL    HW199923   8.952   3.039   6.142
99383SOL    HW299924   8.892   3.035   6.281
99384SOL     OW99925   9.259   3.647   8.004
99384SOL    HW199926   9.347   3.609   7.997
99384SOL    HW299927   9.272   3.740   7.989
99385SOL     OW99928  14.824  13.179   1.806
99385SOL    HW199929  14.792  13.256   1.854
99385SOL    HW299930  14.859  13.215   1.724
99386SOL     OW99931   4.371   6.419   2.282
99386SOL    HW199932   4.410   6.436   2.367
99386SOL    HW299933   4.283   6.387   2.301
99387SOL     OW99934   0.234   5.824   9.067
99387SOL    HW199935   0.201   5.735   9.082
99387SOL    HW299936   0.283   5.845   9.146
99388SOL     OW99937   8.806   1.657   8.623
99388SOL    HW199938   8.861   1.620   8.693
99388SOL    HW299939   8.734   1.595   8.614
99389SOL     OW99940  10.600   4.740  12.779
99389SOL    HW199941  10.617   4.803  12.709
99389SOL    HW299942  10.675   4.680  12.776
99390SOL     OW99943  13.372   1.860   8.210
99390SOL    HW199944  13.349   1.942   8.165
99390SOL    HW299945  13.343   1.791   8.150
99391SOL     OW99946   1.595   8.100  10.998
99391SOL    HW199947   1.583   8.033  11.065
99391SOL    HW299948   1.690   8.109  10.989
99392SOL     OW99949   6.266   7.948   5.591
99392SOL    HW199950   6.316   7.978   5.516
99392SOL    HW299951   6.217   8.024   5.621
99393SOL     OW99952   6.481   0.227   8.488
99393SOL    HW199953   6.494   0.143   8.533
99393SOL    HW299954   6.389   0.225   8.461
99394SOL     OW99955   6.656  13.706   1.054
99394SOL    HW199956   6.583  13.737   1.109
99394SOL    HW299957   6.617  13.697   0.967
99395SOL     OW99958  10.435   7.446  11.832
99395SOL    HW199959  10.351   7.490  11.820
99395SOL    HW299960  10.493   7.514  11.866
99396SOL     OW99961  11.434  14.167  11.823
99396SOL    HW199962  11.477  14.169  11.909
99396SOL    HW299963  11.352  14.215  11.836
99397SOL     OW99964   8.773   8.125   4.389
99397SOL    HW199965   8.723   8.051   4.355
99397SOL    HW299966   8.761   8.194   4.325
99398SOL     OW99967   6.520   5.051   1.841
99398SOL    HW199968   6.471   5.034   1.760
99398SOL    HW299969   6.525   5.146   1.846
99399SOL     OW99970   7.434   7.619   1.950
99399SOL    HW199971   7.355   7.647   1.904
99399SOL    HW299972   7.505   7.634   1.887
99400SOL     OW99973   3.428  14.557  12.472
99400SOL    HW199974   3.345  14.602  12.483
99400SOL    HW299975   3.413  14.469  12.505
99401SOL     OW99976  11.377  14.876   6.000
99401SOL    HW199977  11.313   0.043   5.947
99401SOL    HW299978  11.334  14.865   6.085
99402SOL     OW99979   0.200   7.625   2.793
99402SOL    HW199980   0.107   7.604   2.786
99402SOL    HW299981   0.222   7.665   2.709
99403SOL     OW99982   8.474   0.099   7.683
99403SOL    HW199983   8.444   0.120   7.594
99403SOL    HW299984   8.474   0.183   7.728
99404SOL     OW99985   3.950   8.396   3.096
99404SOL    HW199986   4.044   8.413   3.107
99404SOL    HW299987   3.947   8.318   3.040
99405SOL     OW99988   5.535   1.574   4.297
99405SOL    HW199989   5.556   1.656   4.342
99405SOL    HW299990   5.481   1.526   4.360
99406SOL     OW99991   9.758  13.079  10.017
99406SOL    HW199992   9.747  13.023  10.093
99406SOL    HW299993   9.680  13.134  10.016
99407SOL     OW99994   4.309   9.587   8.197
99407SOL    HW199995   4.326   9.679   8.217
99407SOL    HW299996   4.223   9.570   8.235
99408SOL     OW99997   9.816   4.255   7.342
99408SOL    HW199998   9.763   4.318   7.292
99408SOL    HW299999   9.829   4.181   7.282
99409SOL     OW    0  14.105  13.968   0.276
99409SOL    HW1    1  14.055  13.939   0.352
99409SOL    HW2    2  14.180  14.015   0.314
99410SOL     OW    3   0.365   2.746   6.236
99410SOL    HW1    4   0.352   2.696   6.317
99410SOL    HW2    5   0.337   2.686   6.167
99411SOL     OW    6  14.217  10.578  11.823
99411SOL    HW1    7  14.168  10.659  11.826
99411SOL    HW2    8  14.151  10.509  11.827
99412SOL     OW    9   6.835   9.283   5.787
99412SOL    HW1   10   6.841   9.222   5.861
99412SOL    HW2   11   6.910   9.341   5.798
99413SOL     OW   12   6.149  14.120  11.921
99413SOL    HW1   13   6.103  14.184  11.976
99413SOL    HW2   14   6.085  14.095  11.855
99414SOL     OW   15  13.601   6.186   2.912
99414SOL    HW1   16  13.696   6.183   2.897
99414SOL    HW2   17  13.585   6.119   2.978
99415SOL     OW   18   7.416   5.284   3.259
99415SOL    HW1   19   7.405   5.360   3.201
99415SOL    HW2   20   7.362   5.304   3.336
99416SOL     OW   21   6.723   4.824   7.982
99416SOL    HW1   22   6.742   4.910   8.019
99416SOL    HW2   23   6.662   4.785   8.045
99417SOL     OW   24   5.257  10.867   6.122
99417SOL    HW1   25   5.294  10.935   6.066
99417SOL    HW2   26   5.272  10.786   6.073
99418SOL     OW   27   5.031   6.392   1.432
99418SOL    HW1   28   5.090   6.340   1.486
99418SOL    HW2   29   5.073   6.395   1.346
99419SOL     OW   30   2.306   0.381  14.744
99419SOL    HW1   31   2.261   0.402  14.825
99419SOL    HW2   32   2.372   0.316  14.769
99420SOL     OW   33   7.540  11.737  12.040
99420SOL    HW1   34   7.540  11.830  12.062
99420SOL    HW2   35   7.459  11.723  11.991
99421SOL     OW   36   4.890   4.617   0.505
99421SOL    HW1   37   4.826   4.655   0.445
99421SOL    HW2   38   4.960   4.683   0.510
99422SOL     OW   39   7.545   7.322  13.988
99422SOL    HW1   40   7.543   7.408  13.945
99422SOL    HW2   41   7.454   7.294  13.992
99423SOL     OW   42   4.210   9.559   5.262
99423SOL    HW1   43   4.265   9.592   5.334
99423SOL    HW2   44   4.159   9.635   5.234
99424SOL     OW   45  11.936   2.182   6.136
99424SOL    HW1   46  11.999   2.110   6.126
99424SOL    HW2   47  11.877   2.152   6.205
99425SOL     OW   48  12.485   5.606  13.898
99425SOL    HW1   49  12.512   5.682  13.951
99425SOL    HW2   50  12.521   5.625  13.811
99426SOL     OW   51  10.315  11.243   9.082
99426SOL    HW1   52  10.391  11.202   9.040
99426SOL    HW2   53  10.308  11.199   9.166
99427SOL     OW   54   1.581  10.140   6.016
99427SOL    HW1   55   1.582  10.096   6.101
99427SOL    HW2   56   1.674  10.148   5.993
99428SOL     OW   57   5.686   5.226   2.258
99428SOL    HW1   58   5.751   5.213   2.327
99428SOL    HW2   59   5.654   5.316   2.272
99429SOL     OW   60   5.670   7.060   7.873
99429SOL    HW1   61   5.674   7.144   7.919
99429SOL    HW2   62   5.746   7.011   7.905
99430SOL     OW   63  11.696   5.551   3.280
99430SOL    HW1   64  11.745   5.470   3.295
99430SOL    HW2   65  11.727   5.582   3.195
99431SOL     OW   66  10.964   2.064   0.969
99431SOL    HW1   67  11.046   2.086   1.013
99431SOL    HW2   68  10.908   2.029   1.038
99432SOL     OW   69  14.019  12.132   2.047
99432SOL    HW1   70  13.989  12.176   2.127
99432SOL    HW2   71  13.941  12.129   1.991
99433SOL     OW   72  14.104   6.067   3.705
99433SOL    HW1   73  14.109   6.144   3.763
99433SOL    HW2   74  14.191   6.059   3.668
99434SOL     OW   75   0.474  12.911  10.618
99434SOL    HW1   76   0.441  12.925  10.707
99434SOL    HW2   77   0.569  12.900  10.629
99435SOL     OW   78   2.589   7.948   8.713
99435SOL    HW1   79   2.645   8.000   8.655
99435SOL    HW2   80   2.588   7.861   8.672
99436SOL     OW   81  14.225   7.805   3.100
99436SOL    HW1   82  14.183   7.853   3.028
99436SOL    HW2   83  14.316   7.796   3.072
99437SOL     OW   84   0.998  11.321  13.354
99437SOL    HW1   85   0.906  11.340  13.337
99437SOL    HW2   86   1.020  11.372  13.432
99438SOL     OW   87  13.336  13.179   6.953
99438SOL    HW1   88  13.379  13.190   7.039
99438SOL    HW2   89  13.317  13.268   6.924
99439SOL     OW   90   1.351  14.548  14.550
99439SOL    HW1   91   1.429  14.603  14.559
99439SOL    HW2   92   1.313  14.574  14.466
99440SOL     OW   93  13.060   1.593   4.696
99440SOL    HW1   94  13.035   1.679   4.728
99440SOL    HW2   95  13.121   1.559   4.762
99441SOL     OW   96   3.586  11.456   0.946
99441SOL    HW1   97   3.519  11.409   0.995
99441SOL    HW2   98   3.669  11.422   0.979
99442SOL     OW   99  12.366   6.631   7.079
99442SOL    HW1  100  12.306   6.666   7.013
99442SOL    HW2  101  12.314   6.568   7.129
99443SOL     OW  102   6.949   6.784   3.463
99443SOL    HW1  103   6.865   6.791   3.417
99443SOL    HW2  104   6.927   6.742   3.546
99444SOL     OW  105   5.452   7.167  14.231
99444SOL    HW1  106   5.449   7.085  14.182
99444SOL    HW2  107   5.373   7.166  14.286
99445SOL     OW  108  11.670   4.686   1.351
99445SOL    HW1  109  11.609   4.656   1.283
99445SOL    HW2  110  11.614   4.732   1.414
99446SOL     OW  111  13.750   5.186   2.649
99446SOL    HW1  112  13.727   5.140   2.568
99446SOL    HW2  113  13.690   5.261   2.651
99447SOL     OW  114   0.273   6.408  14.578
99447SOL    HW1  115   0.243   6.346  14.512
99447SOL    HW2  116   0.340   6.460  14.534
99448SOL     OW  117   0.756   4.538   1.433
99448SOL    HW1  118   0.827   4.601   1.418
99448SOL    HW2  119   0.676   4.589   1.419
99449SOL     OW  120   8.258   7.619  13.312
99449SOL    HW1  121   8.260   7.714  13.297
99449SOL    HW2  122   8.197   7.586  13.246
99450SOL     OW  123   9.066   1.673   0.607
99450SOL    HW1  124   9.152   1.639   0.631
99450SOL    HW2  125   9.084   1.759   0.570
99451SOL     OW  126   9.774  12.647  13.728
99451SOL    HW1  127   9.795  12.642  13.821
99451SOL    HW2  128   9.783  12.740  13.706
99452SOL     OW  129   6.494   5.881   4.564
99452SOL    HW1  130   6.435   5.930   4.506
99452SOL    HW2  131   6.552   5.947   4.601
99453SOL     OW  132   0.115   3.670   9.374
99453SOL    HW1  133   0.155   3.616   9.305
99453SOL    HW2  134   0.035   3.623   9.398
99454SOL     OW  135   8.510   2.605   7.890
99454SOL    HW1  136   8.582   2.668   7.889
99454SOL    HW2  137   8.431   2.657   7.876
99455SOL     OW  138  10.541   5.613   6.500
99455SOL    HW1  139  10.447   5.598   6.507
99455SOL    HW2  140  10.557   5.695   6.546
99456SOL     OW  141   6.000   8.440   3.002
99456SOL    HW1  142   6.058   8.478   2.936
99456SOL    HW2  143   6.006   8.499   3.077
99457SOL     OW  144   4.085   1.753   1.626
99457SOL    HW1  145   4.147   1.740   1.698
99457SOL    HW2  146   4.134   1.729   1.547
99458SOL     OW  147  13.230   8.260   6.675
99458SOL    HW1  148  13.154   8.288   6.624
99458SOL    HW2  149  13.229   8.165   6.670
99459SOL     OW  150   5.836   7.797   7.496
99459SOL    HW1  151   5.758   7.798   7.551
99459SOL    HW2  152   5.864   7.888   7.491
99460SOL     OW  153   8.831   8.490   1.842
99460SOL    HW1  154   8.860   8.568   1.795
99460SOL    HW2  155   8.743   8.511   1.872
99461SOL     OW  156   5.775   2.635   9.184
99461SOL    HW1  157   5.720   2.644   9.262
99461SOL    HW2  158   5.859   2.673   9.209
99462SOL     OW  159   6.523   1.817  13.901
99462SOL    HW1  160   6.447   1.772  13.863
99462SOL    HW2  161   6.489   1.902  13.928
99463SOL     OW  162   2.382   6.607   2.859
99463SOL    HW1  163   2.320   6.551   2.905
99463SOL    HW2  164   2.443   6.546   2.817
99464SOL     OW  165   3.705   3.818   8.460
99464SOL    HW1  166   3.617   3.833   8.425
99464SOL    HW2  167   3.694   3.824   8.555
99465SOL     OW  168  14.880   8.182  14.305
99465SOL    HW1  169   0.047   8.235  14.242
99465SOL    HW2  170  14.819   8.131  14.252
99466SOL     OW  171  12.815  11.712   7.102
99466SOL    HW1  172  12.907  11.738   7.095
99466SOL    HW2  173  12.767  11.795   7.103
99467SOL     OW  174   4.911   9.282   5.643
99467SOL    HW1  175   4.973   9.341   5.601
99467SOL    HW2  176   4.828   9.300   5.599
99468SOL     OW  177   0.375   1.903   4.752
99468SOL    HW1  178   0.384   1.975   4.690
99468SOL    HW2  179   0.465   1.870   4.763
99469SOL     OW  180  10.866   7.151   6.488
99469SOL    HW1  181  10.888   7.139   6.395
99469SOL    HW2  182  10.780   7.111   6.497
99470SOL     OW  183   9.305  11.717   9.477
99470SOL    HW1  184   9.284  11.809   9.462
99470SOL    HW2  185   9.336  11.714   9.567
99471SOL     OW  186  13.965  11.296  11.591
99471SOL    HW1  187  14.034  11.347  11.633
99471SOL    HW2  188  14.006  11.213  11.570
99472SOL     OW  189   8.179   7.072   1.645
99472SOL    HW1  190   8.205   7.147   1.592
99472SOL    HW2  191   8.105   7.034   1.597
99473SOL     OW  192   0.916   3.625   3.045
99473SOL    HW1  193   0.957   3.660   2.966
99473SOL    HW2  194   0.822   3.636   3.030
99474SOL     OW  195  14.311   1.946   0.068
99474SOL    HW1  196  14.262   1.887   0.010
99474SOL    HW2  197  14.393   1.962   0.023
99475SOL     OW  198   3.616   1.376  10.474
99475SOL    HW1  199   3.565   1.395  10.395
99475SOL    HW2  200   3.550   1.358  10.541
99476SOL     OW  201  12.506   3.455   1.393
99476SOL    HW1  202  12.522   3.365   1.364
99476SOL    HW2  203  12.413   3.470   1.375
99477SOL     OW  204  13.737  11.507   7.606
99477SOL    HW1  205  13.765  11.504   7.697
99477SOL    HW2  206  13.705  11.596   7.593
99478SOL     OW  207  11.795   4.112   4.017
99478SOL    HW1  208  11.756   4.094   4.103
99478SOL    HW2  209  11.807   4.026   3.978
99479SOL     OW  210  14.435   6.992   9.729
99479SOL    HW1  211  14.423   7.054   9.800
99479SOL    HW2  212  14.358   6.935   9.733
99480SOL     OW  213  14.332   2.225   7.461
99480SOL    HW1  214  14.345   2.176   7.380
99480SOL    HW2  215  14.244   2.201   7.490
99481SOL     OW  216   6.019   8.948   0.073
99481SOL    HW1  217   5.959   8.946  14.880
99481SOL    HW2  218   5.969   8.911   0.145
99482SOL     OW  219  12.655   1.761   1.756
99482SOL    HW1  220  12.710   1.826   1.800
99482SOL    HW2  221  12.635   1.800   1.671
99483SOL     OW  222   7.628   4.280  10.878
99483SOL    HW1  223   7.619   4.240  10.792
99483SOL    HW2  224   7.559   4.347  10.881
99484SOL     OW  225   8.953   1.295   3.794
99484SOL    HW1  226   8.866   1.262   3.816
99484SOL    HW2  227   8.993   1.316   3.878
99485SOL     OW  228  14.275   2.049   7.006
99485SOL    HW1  229  14.180   2.059   7.018
99485SOL    HW2  230  14.301   2.130   6.961
99486SOL     OW  231  11.471   9.489   8.165
99486SOL    HW1  232  11.389   9.519   8.126
99486SOL    HW2  233  11.471   9.395   8.152
99487SOL     OW  234  10.393  14.422   3.916
99487SOL    HW1  235  10.319  14.364   3.936
99487SOL    HW2  236  10.448  14.370   3.857
99488SOL     OW  237  12.664   9.477   3.302
99488SOL    HW1  238  12.663   9.465   3.397
99488SOL    HW2  239  12.610   9.405   3.269
99489SOL     OW  240   5.204   0.327   6.113
99489SOL    HW1  241   5.113   0.334   6.083
99489SOL    HW2  242   5.237   0.417   6.111
99490SOL     OW  243   9.693   6.503   7.803
99490SOL    HW1  244   9.719   6.468   7.889
99490SOL    HW2  245   9.675   6.596   7.820
99491SOL     OW  246   6.768   1.527  14.606
99491SOL    HW1  247   6.731   1.439  14.610
99491SOL    HW2  248   6.699   1.580  14.564
99492SOL     OW  249   7.941  13.795   4.990
99492SOL    HW1  250   7.938  13.883   5.027
99492SOL    HW2  251   7.870  13.794   4.926
99493SOL     OW  252   1.959   3.566   4.585
99493SOL    HW1  253   1.885   3.621   4.559
99493SOL    HW2  254   2.003   3.545   4.503
99494SOL     OW  255   6.725   2.269   9.549
99494SOL    HW1  256   6.747   2.177   9.558
99494SOL    HW2  257   6.808   2.312   9.530
99495SOL     OW  258   8.850   5.568  13.771
99495SOL    HW1  259   8.779   5.508  13.748
99495SOL    HW2  260   8.814   5.622  13.841
99496SOL     OW  261   6.668   4.129   0.969
99496SOL    HW1  262   6.647   4.165   0.882
99496SOL    HW2  263   6.684   4.207   1.023
99497SOL     OW  264  10.316   1.111   3.154
99497SOL    HW1  265  10.390   1.133   3.097
99497SOL    HW2  266  10.251   1.072   3.096
99498SOL     OW  267   7.361   8.483   9.370
99498SOL    HW1  268   7.451   8.486   9.336
99498SOL    HW2  269   7.371   8.466   9.464
99499SOL     OW  270   5.551  13.009   9.460
99499SOL    HW1  271   5.555  12.930   9.406
99499SOL    HW2  272   5.474  12.996   9.515
99500SOL     OW  273   8.866  14.350  12.849
99500SOL    HW1  274   8.811  14.389  12.781
99500SOL    HW2  275   8.902  14.425  12.897
99501SOL     OW  276  10.781   1.103   8.380
99501SOL    HW1  277  10.729   1.182   8.391
99501SOL    HW2  278  10.723   1.041   8.335
99502SOL     OW  279   2.887   4.002  11.369
99502SOL    HW1  280   2.920   4.089  11.348
99502SOL    HW2  281   2.906   3.992  11.462
99503SOL     OW  282   6.866   9.263  13.412
99503SOL    HW1  283   6.830   9.196  13.354
99503SOL    HW2  284   6.798   9.276  13.478
99504SOL     OW  285   9.842  12.803  11.623
99504SOL    HW1  286   9.883  12.864  11.684
99504SOL    HW2  287   9.776  12.757  11.675
99505SOL     OW  288   0.255  10.033   2.066
99505SOL    HW1  289   0.319  10.033   2.137
99505SOL    HW2  290   0.307  10.026   1.986
99506SOL     OW  291   5.881  14.296   3.120
99506SOL    HW1  292   5.918  14.227   3.066
99506SOL    HW2  293   5.817  14.251   3.176
99507SOL     OW  294  10.926  13.759   1.106
99507SOL    HW1  295  10.866  13.689   1.133
99507SOL    HW2  296  10.879  13.806   1.037
99508SOL     OW  297   0.083   8.579   0.534
99508SOL    HW1  298   0.159   8.547   0.486
99508SOL    HW2  299   0.096   8.674   0.538
99509SOL     OW  300   4.383   6.484  14.364
99509SOL    HW1  301   4.448   6.482  14.294
99509SOL    HW2  302   4.299   6.491  14.318
99510SOL     OW  303  11.488   3.035   7.903
99510SOL    HW1  304  11.459   2.978   7.974
99510SOL    HW2  305  11.415   3.097   7.891
99511SOL     OW  306   7.890   6.850   2.668
99511SOL    HW1  307   7.874   6.756   2.673
99511SOL    HW2  308   7.946   6.869   2.743
99512SOL     OW  309   5.625   5.698   9.587
99512SOL    HW1  310   5.542   5.695   9.634
99512SOL    HW2  311   5.689   5.662   9.649
99513SOL     OW  312   1.433   8.304  11.091
99513SOL    HW1  313   1.392   8.355  11.021
99513SOL    HW2  314   1.462   8.223  11.049
99514SOL     OW  315   4.106   5.199   4.094
99514SOL    HW1  316   4.202   5.197   4.092
99514SOL    HW2  317   4.081   5.208   4.002
99515SOL     OW  318  10.109   3.750   3.600
99515SOL    HW1  319  10.022   3.713   3.611
99515SOL    HW2  320  10.155   3.689   3.542
99516SOL     OW  321   0.091   0.629   5.936
99516SOL    HW1  322   0.017   0.611   5.878
99516SOL    HW2  323   0.150   0.682   5.882
99517SOL     OW  324   3.372   4.435   3.265
99517SOL    HW1  325   3.439   4.428   3.197
99517SOL    HW2  326   3.319   4.356   3.255
99518SOL     OW  327  12.670   4.302   9.465
99518SOL    HW1  328  12.657   4.255   9.382
99518SOL    HW2  329  12.679   4.232   9.530
99519SOL     OW  330   5.098  14.699  11.454
99519SOL    HW1  331   5.066  14.788  11.442
99519SOL    HW2  332   5.173  14.709  11.514
99520SOL     OW  333   9.948   9.045   7.186
99520SOL    HW1  334   9.895   9.053   7.265
99520SOL    HW2  335   9.992   8.961   7.195
99521SOL     OW  336   0.728  14.724   7.788
99521SOL    HW1  337   0.790  14.796   7.799
99521SOL    HW2  338   0.643  14.761   7.813
99522SOL     OW  339   7.757   7.161   3.860
99522SOL    HW1  340   7.765   7.162   3.955
99522SOL    HW2  341   7.784   7.073   3.834
99523SOL     OW  342  12.220   1.480  13.852
99523SOL    HW1  343  12.144   1.427  13.828
99523SOL    HW2  344  12.213   1.557  13.796
99524SOL     OW  345   3.660   0.499   4.795
99524SOL    HW1  346   3.599   0.440   4.750
99524SOL    HW2  347   3.604   0.556   4.848
99525SOL     OW  348   9.996   0.249   7.412
99525SOL    HW1  349  10.005   0.327   7.357
99525SOL    HW2  350   9.985   0.177   7.351
99526SOL     OW  351   5.901   9.043   3.232
99526SOL    HW1  352   5.954   9.000   3.299
99526SOL    HW2  353   5.820   8.992   3.229
99527SOL     OW  354  13.547   6.350   1.934
99527SOL    HW1  355  13.637   6.323   1.955
99527SOL    HW2  356  13.556   6.399   1.852
99528SOL     OW  357   0.908   3.925   2.625
99528SOL    HW1  358   0.863   4.004   2.594
99528SOL    HW2  359   0.848   3.854   2.604
99529SOL     OW  360   3.111   3.073   6.048
99529SOL    HW1  361   3.193   3.120   6.033
99529SOL    HW2  362   3.080   3.051   5.960
99530SOL     OW  363   4.586   2.396   7.652
99530SOL    HW1  364   4.555   2.434   7.570
99530SOL    HW2  365   4.640   2.321   7.626
99531SOL     OW  366   5.527  11.083   9.077
99531SOL    HW1  367   5.569  11.166   9.054
99531SOL    HW2  368   5.563  11.060   9.163
99532SOL     OW  369   8.161   3.676  11.740
99532SOL    HW1  370   8.074   3.717  11.746
99532SOL    HW2  371   8.214   3.723  11.804
99533SOL     OW  372   7.390   6.520  11.793
99533SOL    HW1  373   7.418   6.515  11.702
99533SOL    HW2  374   7.465   6.559  11.839
99534SOL     OW  375   9.943   7.242   5.142
99534SOL    HW1  376  10.026   7.196   5.130
99534SOL    HW2  377   9.880   7.192   5.089
99535SOL     OW  378  11.798   7.389   3.688
99535SOL    HW1  379  11.834   7.476   3.701
99535SOL    HW2  380  11.707   7.403   3.661
99536SOL     OW  381   6.254  12.970   1.435
99536SOL    HW1  382   6.311  12.920   1.376
99536SOL    HW2  383   6.174  12.984   1.384
99537SOL     OW  384  13.230  10.724   9.080
99537SOL    HW1  385  13.222  10.725   8.985
99537SOL    HW2  386  13.203  10.812   9.108
99538SOL     OW  387  11.302  10.590  13.526
99538SOL    HW1  388  11.385  10.570  13.483
99538SOL    HW2  389  11.323  10.655  13.592
99539SOL     OW  390   6.003   4.539  11.098
99539SOL    HW1  391   5.926   4.553  11.153
99539SOL    HW2  392   5.984   4.587  11.018
99540SOL     OW  393   9.413   7.974   0.360
99540SOL    HW1  394   9.374   7.938   0.439
99540SOL    HW2  395   9.493   8.017   0.390
99541SOL     OW  396   8.532  12.930  12.566
99541SOL    HW1  397   8.579  13.007  12.533
99541SOL    HW2  398   8.440  12.956  12.565
99542SOL     OW  399   6.718   5.384   0.271
99542SOL    HW1  400   6.794   5.443   0.270
99542SOL    HW2  401   6.730   5.331   0.350
99543SOL     OW  402   7.162  14.005  13.120
99543SOL    HW1  403   7.202  13.976  13.038
99543SOL    HW2  404   7.189  13.939  13.184
99544SOL     OW  405  13.788   0.696  14.090
99544SOL    HW1  406  13.865   0.654  14.051
99544SOL    HW2  407  13.821   0.778  14.127
99545SOL     OW  408   5.620   0.238   7.427
99545SOL    HW1  409   5.612   0.331   7.452
99545SOL    HW2  410   5.622   0.191   7.510
99546SOL     OW  411   3.840   7.836  14.425
99546SOL    HW1  412   3.843   7.758  14.481
99546SOL    HW2  413   3.750   7.838  14.392
99547SOL     OW  414   0.114   5.204  10.752
99547SOL    HW1  415   0.064   5.257  10.690
99547SOL    HW2  416   0.116   5.117  10.713
99548SOL     OW  417   1.176   9.424   7.199
99548SOL    HW1  418   1.226   9.420   7.117
99548SOL    HW2  419   1.175   9.334   7.231
99549SOL     OW  420   7.687  13.167   3.626
99549SOL    HW1  421   7.624  13.145   3.694
99549SOL    HW2  422   7.710  13.084   3.586
99550SOL     OW  423  12.002   8.333  10.853
99550SOL    HW1  424  11.956   8.372  10.778
99550SOL    HW2  425  11.936   8.279  10.896
99551SOL     OW  426  11.614  14.554   5.012
99551SOL    HW1  427  11.552  14.590   4.948
99551SOL    HW2  428  11.579  14.581   5.097
99552SOL     OW  429   3.069  14.764   6.450
99552SOL    HW1  430   3.163  14.785   6.446
99552SOL    HW2  431   3.065  14.687   6.508
99553SOL     OW  432   3.345   4.288  11.252
99553SOL    HW1  433   3.316   4.242  11.173
99553SOL    HW2  434   3.310   4.376  11.242
99554SOL     OW  435   5.531  12.665  13.198
99554SOL    HW1  436   5.517  12.760  13.200
99554SOL    HW2  437   5.525  12.641  13.106
99555SOL     OW  438   6.848   6.018   0.374
99555SOL    HW1  439   6.943   6.012   0.365
99555SOL    HW2  440   6.817   5.928   0.360
99556SOL     OW  441  13.305   3.546   5.361
99556SOL    HW1  442  13.363   3.472   5.344
99556SOL    HW2  443  13.323   3.570   5.452
99557SOL     OW  444   3.332   6.301  13.279
99557SOL    HW1  445   3.321   6.388  13.241
99557SOL    HW2  446   3.350   6.244  13.204
99558SOL     OW  447   1.623  12.224   4.252
99558SOL    HW1  448   1.634  12.301   4.308
99558SOL    HW2  449   1.691  12.163   4.282
99559SOL     OW  450  13.144   1.431  12.634
99559SOL    HW1  451  13.193   1.511  12.613
99559SOL    HW2  452  13.068   1.462  12.683
99560SOL     OW  453   8.329  12.985   1.317
99560SOL    HW1  454   8.258  12.939   1.272
99560SOL    HW2  455   8.400  12.921   1.321
99561SOL     OW  456  13.551  12.750  12.105
99561SOL    HW1  457  13.548  12.719  12.195
99561SOL    HW2  458  13.614  12.692  12.062
99562SOL     OW  459  12.682   1.131  14.641
99562SOL    HW1  460  12.643   1.087  14.566
99562SOL    HW2  461  12.765   1.085  14.655
99563SOL     OW  462   7.901   7.830   5.795
99563SOL    HW1  463   7.905   7.904   5.856
99563SOL    HW2  464   7.970   7.771   5.825
99564SOL     OW  465   0.040   0.457  10.444
99564SOL    HW1  466   0.072   0.547  10.452
99564SOL    HW2  467   0.063   0.432  10.354
99565SOL     OW  468  13.082   5.511  11.157
99565SOL    HW1  469  13.104   5.486  11.247
99565SOL    HW2  470  13.166   5.536  11.119
99566SOL     OW  471   7.400  12.777  13.590
99566SOL    HW1  472   7.415  12.749  13.500
99566SOL    HW2  473   7.437  12.707  13.644
99567SOL     OW  474  10.383   0.984   8.550
99567SOL    HW1  475  10.337   0.917   8.600
99567SOL    HW2  476  10.443   0.936   8.494
99568SOL     OW  477  13.768   5.164  10.841
99568SOL    HW1  478  13.832   5.166  10.913
99568SOL    HW2  479  13.773   5.074  10.807
99569SOL     OW  480  12.870  12.091   4.792
99569SOL    HW1  481  12.851  12.058   4.879
99569SOL    HW2  482  12.795  12.064   4.739
99570SOL     OW  483   3.196  10.770  10.025
99570SOL    HW1  484   3.169  10.835  10.090
99570SOL    HW2  485   3.223  10.694  10.077
99571SOL     OW  486   1.096  14.529  10.483
99571SOL    HW1  487   1.144  14.612  10.488
99571SOL    HW2  488   1.053  14.531  10.398
99572SOL     OW  489   2.172   7.834   8.946
99572SOL    HW1  490   2.139   7.849   9.034
99572SOL    HW2  491   2.260   7.799   8.958
99573SOL     OW  492  14.458  11.827   5.011
99573SOL    HW1  493  14.480  11.858   4.923
99573SOL    HW2  494  14.498  11.740   5.017
99574SOL     OW  495  14.091   4.227   4.780
99574SOL    HW1  496  14.076   4.186   4.695
99574SOL    HW2  497  14.142   4.162   4.829
99575SOL     OW  498  10.416   7.958  12.776
99575SOL    HW1  499  10.393   7.895  12.707
99575SOL    HW2  500  10.507   7.980  12.758
99576SOL     OW  501   3.641  13.514  13.149
99576SOL    HW1  502   3.622  13.420  13.158
99576SOL    HW2  503   3.622  13.550  13.235
99577SOL     OW  504  14.601  13.858   2.957
99577SOL    HW1  505  14.628  13.787   2.899
99577SOL    HW2  506  14.528  13.822   3.007
99578SOL     OW  507  13.178  10.991  11.098
99578SOL    HW1  508  13.255  10.976  11.044
99578SOL    HW2  509  13.184  10.926  11.169
99579SOL     OW  510   8.217   9.965  10.004
99579SOL    HW1  511   8.190   9.981  10.094
99579SOL    HW2  512   8.176   9.882   9.980
99580SOL     OW  513   0.689   7.966   0.179
99580SOL    HW1  514   0.735   7.882   0.174
99580SOL    HW2  515   0.734   8.023   0.117
99581SOL     OW  516  11.280   3.515   2.554
99581SOL    HW1  517  11.263   3.607   2.574
99581SOL    HW2  518  11.199   3.485   2.512
99582SOL     OW  519   2.394  10.597   5.440
99582SOL    HW1  520   2.395  10.545   5.521
99582SOL    HW2  521   2.403  10.533   5.370
99583SOL     OW  522   6.654  13.767   9.229
99583SOL    HW1  523   6.730  13.823   9.246
99583SOL    HW2  524   6.691  13.684   9.199
99584SOL     OW  525   2.113   1.941  14.056
99584SOL    HW1  526   2.167   1.949  13.977
99584SOL    HW2  527   2.105   2.031  14.088
99585SOL     OW  528   1.209   8.564   8.418
99585SOL    HW1  529   1.247   8.608   8.494
99585SOL    HW2  530   1.240   8.474   8.424
99586SOL     OW  531   0.794  13.217  12.020
99586SOL    HW1  532   0.768  13.278  11.951
99586SOL    HW2  533   0.766  13.259  12.102
99587SOL     OW  534   3.250  12.646   5.251
99587SOL    HW1  535   3.306  12.606   5.185
99587SOL    HW2  536   3.162  12.639   5.215
99588SOL     OW  537   7.594  12.105   8.165
99588SOL    HW1  538   7.577  12.161   8.240
99588SOL    HW2  539   7.563  12.019   8.191
99589SOL     OW  540  13.532   5.176   6.277
99589SOL    HW1  541  13.609   5.231   6.287
99589SOL    HW2  542  13.562   5.088   6.298
99590SOL     OW  543   9.556  12.920   1.805
99590SOL    HW1  544   9.552  12.991   1.741
99590SOL    HW2  545   9.509  12.848   1.764
99591SOL     OW  546   4.756  11.858   0.138
99591SOL    HW1  547   4.747  11.845   0.233
99591SOL    HW2  548   4.683  11.915   0.115
99592SOL     OW  549   6.425   2.760  13.451
99592SOL    HW1  550   6.372   2.807  13.516
99592SOL    HW2  551   6.427   2.670  13.483
99593SOL     OW  552   0.427  11.375   8.439
99593SOL    HW1  553   0.500  11.315   8.424
99593SOL    HW2  554   0.354  11.319   8.466
99594SOL     OW  555   8.651   6.786   8.152
99594SOL    HW1  556   8.736   6.745   8.165
99594SOL    HW2  557   8.610   6.786   8.238
99595SOL     OW  558  14.134   0.867   3.838
99595SOL    HW1  559  14.046   0.902   3.824
99595SOL    HW2  560  14.168   0.916   3.912
99596SOL     OW  561   8.707  10.011   0.973
99596SOL    HW1  562   8.616  10.006   1.002
99596SOL    HW2  563   8.737  10.096   1.006
99597SOL     OW  564  14.476   5.254  12.722
99597SOL    HW1  565  14.568   5.240  12.699
99597SOL    HW2  566  14.468   5.348  12.733
99598SOL     OW  567   0.736   4.927  12.268
99598SOL    HW1  568   0.737   4.846  12.318
99598SOL    HW2  569   0.770   4.902  12.182
99599SOL     OW  570   6.198  12.893  12.120
99599SOL    HW1  571   6.210  12.804  12.087
99599SOL    HW2  572   6.260  12.946  12.070
99600SOL     OW  573   5.905   9.942  11.266
99600SOL    HW1  574   5.859   9.886  11.204
99600SOL    HW2  575   5.996   9.940  11.236
99601SOL     OW  576   1.621   5.067  12.832
99601SOL    HW1  577   1.620   4.971  12.843
99601SOL    HW2  578   1.688   5.097  12.894
99602SOL     OW  579   1.967  12.223   6.244
99602SOL    HW1  580   1.978  12.315   6.221
99602SOL    HW2  581   2.008  12.215   6.330
99603SOL     OW  582   0.156   4.614  13.950
99603SOL    HW1  583   0.137   4.580  14.037
99603SOL    HW2  584   0.135   4.541  13.891
99604SOL     OW  585   3.769   1.178   7.426
99604SOL    HW1  586   3.806   1.173   7.514
99604SOL    HW2  587   3.793   1.094   7.385
99605SOL     OW  588   0.183  10.288  14.873
99605SOL    HW1  589   0.238  10.305  14.797
99605SOL    HW2  590   0.148  10.374   0.016
99606SOL     OW  591  14.143   4.599   9.880
99606SOL    HW1  592  14.169   4.591   9.971
99606SOL    HW2  593  14.062   4.548   9.873
99607SOL     OW  594   1.969   7.641   0.599
99607SOL    HW1  595   1.900   7.707   0.609
99607SOL    HW2  596   1.958   7.607   0.510
99608SOL     OW  597   9.212  14.062  12.221
99608SOL    HW1  598   9.294  14.106  12.240
99608SOL    HW2  599   9.181  14.031  12.306
99609SOL     OW  600   0.079   2.264   8.757
99609SOL    HW1  601   0.134   2.200   8.804
99609SOL    HW2  602   0.129   2.346   8.762
99610SOL     OW  603   8.606   5.349   3.767
99610SOL    HW1  604   8.530   5.307   3.807
99610SOL    HW2  605   8.574   5.382   3.683
99611SOL     OW  606   9.294  10.126  14.260
99611SOL    HW1  607   9.337  10.196  14.209
99611SOL    HW2  608   9.243  10.173  14.326
99612SOL     OW  609   4.356   1.714   6.031
99612SOL    HW1  610   4.286   1.659   6.066
99612SOL    HW2  611   4.314   1.765   5.961
99613SOL     OW  612   4.364  12.675   2.205
99613SOL    HW1  613   4.270  12.656   2.204
99613SOL    HW2  614   4.395  12.641   2.121
99614SOL     OW  615   2.880   0.287   5.616
99614SOL    HW1  616   2.940   0.247   5.679
99614SOL    HW2  617   2.793   0.256   5.643
99615SOL     OW  618  13.483  13.085   4.870
99615SOL    HW1  619  13.485  13.180   4.862
99615SOL    HW2  620  13.573  13.060   4.889
99616SOL     OW  621   1.394   5.448   7.318
99616SOL    HW1  622   1.300   5.431   7.320
99616SOL    HW2  623   1.411   5.502   7.395
99617SOL     OW  624   4.830   2.643   7.326
99617SOL    HW1  625   4.801   2.625   7.415
99617SOL    HW2  626   4.881   2.566   7.300
99618SOL     OW  627  10.354   0.415   4.955
99618SOL    HW1  628  10.308   0.451   4.880
99618SOL    HW2  629  10.308   0.450   5.031
99619SOL     OW  630   9.733   2.724   4.294
99619SOL    HW1  631   9.736   2.798   4.354
99619SOL    HW2  632   9.819   2.683   4.302
99620SOL     OW  633  14.713   1.896   4.581
99620SOL    HW1  634  14.800   1.936   4.584
99620SOL    HW2  635  14.680   1.904   4.671
99621SOL     OW  636   5.404  11.529  14.018
99621SOL    HW1  637   5.497  11.547  14.016
99621SOL    HW2  638   5.384  11.516  14.111
99622SOL     OW  639   4.125   6.673   8.157
99622SOL    HW1  640   4.064   6.601   8.171
99622SOL    HW2  641   4.070   6.752   8.161
99623SOL     OW  642  13.295   3.459   3.604
99623SOL    HW1  643  13.270   3.541   3.647
99623SOL    HW2  644  13.320   3.401   3.677
99624SOL     OW  645   4.187   8.551   4.689
99624SOL    HW1  646   4.263   8.608   4.701
99624SOL    HW2  647   4.205   8.503   4.608
99625SOL     OW  648   7.664  11.041   5.089
99625SOL    HW1  649   7.702  10.958   5.059
99625SOL    HW2  650   7.679  11.041   5.183
99626SOL     OW  651   5.337   0.747  14.683
99626SOL    HW1  652   5.373   0.739  14.771
99626SOL    HW2  653   5.246   0.718  14.691
99627SOL     OW  654   7.656   5.335   0.282
99627SOL    HW1  655   7.587   5.375   0.229
99627SOL    HW2  656   7.629   5.243   0.291
99628SOL     OW  657   0.794  13.997   6.581
99628SOL    HW1  658   0.869  13.987   6.639
99628SOL    HW2  659   0.771  14.090   6.586
99629SOL     OW  660   0.385   1.019  14.390
99629SOL    HW1  661   0.459   0.981  14.341
99629SOL    HW2  662   0.307   0.989  14.344
99630SOL     OW  663   4.569   5.903   2.049
99630SOL    HW1  664   4.554   5.988   2.089
99630SOL    HW2  665   4.616   5.923   1.968
99631SOL     OW  666   3.542   4.716   5.059
99631SOL    HW1  667   3.491   4.662   5.119
99631SOL    HW2  668   3.616   4.747   5.112
99632SOL     OW  669  11.255  12.319   2.054
99632SOL    HW1  670  11.330  12.274   2.092
99632SOL    HW2  671  11.199  12.339   2.128
99633SOL     OW  672   6.695   9.393  13.188
99633SOL    HW1  673   6.784   9.377  13.220
99633SOL    HW2  674   6.697   9.367  13.096
99634SOL     OW  675  12.076   0.462   9.617
99634SOL    HW1  676  12.140   0.522   9.579
99634SOL    HW2  677  12.021   0.519   9.671
99635SOL     OW  678   3.248   4.667   7.405
99635SOL    HW1  679   3.204   4.648   7.323
99635SOL    HW2  680   3.275   4.759   7.397
99636SOL     OW  681   4.923  13.853   2.287
99636SOL    HW1  682   4.833  13.882   2.299
99636SOL    HW2  683   4.946  13.881   2.199
99637SOL     OW  684   9.726   4.303   9.144
99637SOL    HW1  685   9.709   4.393   9.117
99637SOL    HW2  686   9.736   4.307   9.239
99638SOL     OW  687   4.472   7.400   7.143
99638SOL    HW1  688   4.559   7.438   7.133
99638SOL    HW2  689   4.421   7.467   7.188
99639SOL     OW  690   6.858  12.918   3.743
99639SOL    HW1  691   6.871  12.846   3.681
99639SOL    HW2  692   6.775  12.898   3.786
99640SOL     OW  693   2.735  13.664  10.594
99640SOL    HW1  694   2.692  13.589  10.634
99640SOL    HW2  695   2.828  13.642  10.594
99641SOL     OW  696   9.661  11.681   7.015
99641SOL    HW1  697   9.629  11.605   7.064
99641SOL    HW2  698   9.625  11.670   6.927
99642SOL     OW  699  12.960   5.160   3.783
99642SOL    HW1  700  13.017   5.219   3.833
99642SOL    HW2  701  12.965   5.192   3.693
99643SOL     OW  702   1.912  11.183   8.565
99643SOL    HW1  703   1.850  11.112   8.583
99643SOL    HW2  704   1.924  11.226   8.649
99644SOL     OW  705   9.011   2.034   4.059
99644SOL    HW1  706   8.980   1.984   3.983
99644SOL    HW2  707   8.982   2.124   4.042
99645SOL     OW  708   6.575   5.431  13.193
99645SOL    HW1  709   6.516   5.499  13.225
99645SOL    HW2  710   6.519   5.354  13.181
99646SOL     OW  711   8.604  10.188   8.069
99646SOL    HW1  712   8.682  10.159   8.116
99646SOL    HW2  713   8.541  10.211   8.138
99647SOL     OW  714  12.735   6.260  13.681
99647SOL    HW1  715  12.805   6.313  13.719
99647SOL    HW2  716  12.780   6.195  13.628
99648SOL     OW  717   7.639   4.188  10.126
99648SOL    HW1  718   7.598   4.248  10.064
99648SOL    HW2  719   7.587   4.198  10.206
99649SOL     OW  720   6.908   4.950   2.388
99649SOL    HW1  721   6.874   4.943   2.478
99649SOL    HW2  722   6.908   5.044   2.371
99650SOL     OW  723   1.394   2.584  14.177
99650SOL    HW1  724   1.305   2.617  14.186
99650SOL    HW2  725   1.384   2.489  14.168
99651SOL     OW  726   8.713   1.436   9.556
99651SOL    HW1  727   8.675   1.422   9.643
99651SOL    HW2  728   8.646   1.486   9.509
99652SOL     OW  729   9.557  14.422   2.818
99652SOL    HW1  730   9.474  14.437   2.773
99652SOL    HW2  731   9.560  14.490   2.886
99653SOL     OW  732  14.133   5.364   8.354
99653SOL    HW1  733  14.168   5.278   8.333
99653SOL    HW2  734  14.069   5.381   8.285
99654SOL     OW  735  11.040  12.317   5.416
99654SOL    HW1  736  11.078  12.361   5.340
99654SOL    HW2  737  10.952  12.292   5.389
99655SOL     OW  738   5.522   2.256  14.194
99655SOL    HW1  739   5.457   2.323  14.174
99655SOL    HW2  740   5.485   2.208  14.268
99656SOL     OW  741   1.717   1.419  11.009
99656SOL    HW1  742   1.679   1.380  10.930
99656SOL    HW2  743   1.647   1.414  11.074
99657SOL     OW  744   5.989   4.439   7.498
99657SOL    HW1  745   6.016   4.452   7.589
99657SOL    HW2  746   5.897   4.465   7.496
99658SOL     OW  747   0.754   8.438   1.816
99658SOL    HW1  748   0.793   8.355   1.845
99658SOL    HW2  749   0.695   8.462   1.887
99659SOL     OW  750  10.162   6.471   1.694
99659SOL    HW1  751  10.116   6.528   1.633
99659SOL    HW2  752  10.186   6.394   1.642
99660SOL     OW  753   6.467  12.669  11.068
99660SOL    HW1  754   6.414  12.746  11.089
99660SOL    HW2  755   6.404  12.597  11.067
99661SOL     OW  756  10.905  14.592   6.697
99661SOL    HW1  757  10.820  14.574   6.656
99661SOL    HW2  758  10.969  14.552   6.638
99662SOL     OW  759   3.988  13.823   3.649
99662SOL    HW1  760   3.917  13.834   3.712
99662SOL    HW2  761   4.068  13.832   3.701
99663SOL     OW  762   2.292   7.185   2.576
99663SOL    HW1  763   2.275   7.092   2.557
99663SOL    HW2  764   2.337   7.217   2.498
99664SOL     OW  765   1.043   0.988   4.299
99664SOL    HW1  766   1.095   0.908   4.299
99664SOL    HW2  767   0.956   0.961   4.328
99665SOL     OW  768  14.649   8.421   2.739
99665SOL    HW1  769  14.678   8.364   2.667
99665SOL    HW2  770  14.722   8.419   2.801
99666SOL     OW  771  13.555   3.265   7.403
99666SOL    HW1  772  13.564   3.286   7.310
99666SOL    HW2  773  13.536   3.350   7.445
99667SOL     OW  774   1.082   6.991  12.008
99667SOL    HW1  775   1.018   6.965  12.074
99667SOL    HW2  776   1.049   7.074  11.974
99668SOL     OW  777   0.507  11.627   8.577
99668SOL    HW1  778   0.515  11.712   8.533
99668SOL    HW2  779   0.484  11.566   8.506
99669SOL     OW  780   3.770  14.271   3.492
99669SOL    HW1  781   3.836  14.328   3.532
99669SOL    HW2  782   3.792  14.271   3.398
99670SOL     OW  783   6.028   8.879   8.192
99670SOL    HW1  784   5.984   8.799   8.161
99670SOL    HW2  785   5.986   8.898   8.276
99671SOL     OW  786  10.769   8.045  10.491
99671SOL    HW1  787  10.804   8.070  10.405
99671SOL    HW2  788  10.690   7.995  10.471
99672SOL     OW  789  14.701   8.022  11.734
99672SOL    HW1  790  14.619   8.009  11.781
99672SOL    HW2  791  14.687   8.102  11.683
99673SOL     OW  792  12.582  12.210  11.528
99673SOL    HW1  793  12.535  12.131  11.555
99673SOL    HW2  794  12.653  12.219  11.592
99674SOL     OW  795   4.361   9.709   5.420
99674SOL    HW1  796   4.447   9.700   5.462
99674SOL    HW2  797   4.305   9.746   5.488
99675SOL     OW  798   5.963   4.327   0.194
99675SOL    HW1  799   5.990   4.414   0.224
99675SOL    HW2  800   5.902   4.344   0.122
99676SOL     OW  801   2.772  12.520   0.407
99676SOL    HW1  802   2.747  12.430   0.425
99676SOL    HW2  803   2.856  12.532   0.451
99677SOL     OW  804   6.191   1.905  10.838
99677SOL    HW1  805   6.219   1.915  10.747
99677SOL    HW2  806   6.202   1.812  10.856
99678SOL     OW  807   3.936  10.172   2.552
99678SOL    HW1  808   3.900  10.196   2.467
99678SOL    HW2  809   3.999  10.241   2.571
99679SOL     OW  810  13.125   8.564   2.719
99679SOL    HW1  811  13.197   8.569   2.657
99679SOL    HW2  812  13.165   8.533   2.800
99680SOL     OW  813   1.006  13.498  10.167
99680SOL    HW1  814   0.924  13.536  10.199
99680SOL    HW2  815   1.049  13.464  10.245
99681SOL     OW  816   8.930   9.989   9.280
99681SOL    HW1  817   8.962  10.060   9.336
99681SOL    HW2  818   8.999   9.976   9.216
99682SOL     OW  819   2.959   2.811   0.482
99682SOL    HW1  820   3.039   2.759   0.471
99682SOL    HW2  821   2.988   2.890   0.528
99683SOL     OW  822   8.882   0.628   5.749
99683SOL    HW1  823   8.800   0.676   5.760
99683SOL    HW2  824   8.949   0.697   5.749
99684SOL     OW  825   0.493   3.462   9.266
99684SOL    HW1  826   0.499   3.502   9.353
99684SOL    HW2  827   0.405   3.423   9.265
99685SOL     OW  828   4.843  12.929  12.642
99685SOL    HW1  829   4.851  12.839  12.610
99685SOL    HW2  830   4.795  12.975  12.573
99686SOL     OW  831   6.430   4.958   2.337
99686SOL    HW1  832   6.486   4.988   2.266
99686SOL    HW2  833   6.452   4.865   2.348
99687SOL     OW  834  14.001  12.240   4.662
99687SOL    HW1  835  13.952  12.173   4.710
99687SOL    HW2  836  14.052  12.285   4.730
99688SOL     OW  837   7.450   6.628   1.535
99688SOL    HW1  838   7.442   6.696   1.601
99688SOL    HW2  839   7.363   6.587   1.532
99689SOL     OW  840   5.170   2.192   1.106
99689SOL    HW1  841   5.097   2.230   1.157
99689SOL    HW2  842   5.130   2.119   1.058
99690SOL     OW  843  10.271   6.225   8.718
99690SOL    HW1  844  10.184   6.190   8.737
99690SOL    HW2  845  10.308   6.165   8.653
99691SOL     OW  846   7.108  14.388   5.826
99691SOL    HW1  847   7.069  14.465   5.783
99691SOL    HW2  848   7.137  14.420   5.911
99692SOL     OW  849  14.797  14.287  10.777
99692SOL    HW1  850  14.741  14.214  10.803
99692SOL    HW2  851   0.000  14.267  10.818
99693SOL     OW  852   5.962  14.841   1.983
99693SOL    HW1  853   6.057  14.848   1.972
99693SOL    HW2  854   5.927   0.038   1.940
99694SOL     OW  855  13.631   9.602   3.117
99694SOL    HW1  856  13.650   9.694   3.101
99694SOL    HW2  857  13.602   9.599   3.209
99695SOL     OW  858   9.168   2.768   3.559
99695SOL    HW1  859   9.223   2.838   3.594
99695SOL    HW2  860   9.115   2.811   3.492
99696SOL     OW  861  14.253   6.234   8.707
99696SOL    HW1  862  14.177   6.288   8.730
99696SOL    HW2  863  14.216   6.162   8.656
99697SOL     OW  864  11.928  11.976   0.055
99697SOL    HW1  865  11.886  11.928   0.127
99697SOL    HW2  866  11.985  12.039   0.098
99698SOL     OW  867   8.850   8.361  13.918
99698SOL    HW1  868   8.930   8.310  13.908
99698SOL    HW2  869   8.864   8.439  13.864
99699SOL     OW  870   7.851  13.294   8.215
99699SOL    HW1  871   7.932  13.339   8.240
99699SOL    HW2  872   7.838  13.229   8.284
99700SOL     OW  873   7.305  14.135   9.101
99700SOL    HW1  874   7.354  14.124   9.182
99700SOL    HW2  875   7.326  14.223   9.071
99701SOL     OW  876  12.891  10.968   3.626
99701SOL    HW1  877  12.939  10.885   3.619
99701SOL    HW2  878  12.945  11.032   3.580
99702SOL     OW  879   6.667   9.052   7.656
99702SOL    HW1  880   6.692   9.075   7.566
99702SOL    HW2  881   6.643   9.135   7.696
99703SOL     OW  882   6.944  12.888   5.572
99703SOL    HW1  883   6.988  12.921   5.493
99703SOL    HW2  884   6.938  12.794   5.558
99704SOL     OW  885   2.966   0.343  11.512
99704SOL    HW1  886   2.954   0.272  11.575
99704SOL    HW2  887   2.934   0.307  11.429
99705SOL     OW  888  10.905  12.756   6.053
99705SOL    HW1  889  10.867  12.668   6.056
99705SOL    HW2  890  10.970  12.756   6.123
99706SOL     OW  891   0.200   3.234   8.321
99706SOL    HW1  892   0.291   3.253   8.300
99706SOL    HW2  893   0.186   3.273   8.407
99707SOL     OW  894   5.679  13.413   4.656
99707SOL    HW1  895   5.724  13.405   4.740
99707SOL    HW2  896   5.617  13.484   4.668
99708SOL     OW  897  11.574   8.921   9.860
99708SOL    HW1  898  11.523   8.994   9.823
99708SOL    HW2  899  11.625   8.960   9.931
99709SOL     OW  900   8.885   0.798   9.662
99709SOL    HW1  901   8.798   0.759   9.672
99709SOL    HW2  902   8.918   0.764   9.579
99710SOL     OW  903   9.974  13.118  14.193
99710SOL    HW1  904  10.042  13.142  14.130
99710SOL    HW2  905  10.022  13.098  14.273
99711SOL     OW  906   5.737   8.831  10.301
99711SOL    HW1  907   5.729   8.773  10.225
99711SOL    HW2  908   5.769   8.914  10.264
99712SOL     OW  909  14.064   7.004   2.110
99712SOL    HW1  910  14.010   7.072   2.151
99712SOL    HW2  911  14.055   7.019   2.016
99713SOL     OW  912   2.725   5.664   4.209
99713SOL    HW1  913   2.741   5.598   4.277
99713SOL    HW2  914   2.741   5.617   4.127
99714SOL     OW  915   6.139   3.207   2.402
99714SOL    HW1  916   6.200   3.257   2.347
99714SOL    HW2  917   6.115   3.132   2.349
99715SOL     OW  918  14.108   6.846  10.995
99715SOL    HW1  919  14.017   6.870  10.979
99715SOL    HW2  920  14.147   6.924  11.034
99716SOL     OW  921  12.988   5.777  10.115
99716SOL    HW1  922  12.960   5.709  10.176
99716SOL    HW2  923  12.983   5.858  10.165
99717SOL     OW  924   9.811  11.741   6.243
99717SOL    HW1  925   9.879  11.787   6.292
99717SOL    HW2  926   9.730  11.782   6.270
99718SOL     OW  927   4.589   4.498  11.876
99718SOL    HW1  928   4.580   4.404  11.891
99718SOL    HW2  929   4.643   4.528  11.949
99719SOL     OW  930   7.885   7.856   2.484
99719SOL    HW1  931   7.893   7.922   2.416
99719SOL    HW2  932   7.811   7.885   2.538
99720SOL     OW  933   9.862  11.728   4.774
99720SOL    HW1  934   9.893  11.718   4.864
99720SOL    HW2  935   9.886  11.646   4.730
99721SOL     OW  936  10.853   6.582   2.170
99721SOL    HW1  937  10.944   6.580   2.141
99721SOL    HW2  938  10.802   6.578   2.089
99722SOL     OW  939   7.286  11.718   0.291
99722SOL    HW1  940   7.343  11.766   0.230
99722SOL    HW2  941   7.246  11.649   0.238
99723SOL     OW  942   0.230   2.550  14.588
99723SOL    HW1  943   0.281   2.619  14.630
99723SOL    HW2  944   0.209   2.585  14.501
99724SOL     OW  945   2.058   9.623   5.437
99724SOL    HW1  946   2.136   9.594   5.486
99724SOL    HW2  947   2.043   9.554   5.373
99725SOL     OW  948  14.508   7.196   4.464
99725SOL    HW1  949  14.575   7.154   4.518
99725SOL    HW2  950  14.529   7.168   4.375
99726SOL     OW  951  12.989   5.543   7.102
99726SOL    HW1  952  13.028   5.580   7.181
99726SOL    HW2  953  12.916   5.490   7.134
99727SOL     OW  954   7.694   3.051   3.781
99727SOL    HW1  955   7.704   2.993   3.706
99727SOL    HW2  956   7.782   3.058   3.817
99728SOL     OW  957  12.117  11.448  13.690
99728SOL    HW1  958  12.052  11.385  13.722
99728SOL    HW2  959  12.140  11.501  13.766
99729SOL     OW  960  11.986   4.516   5.707
99729SOL    HW1  961  11.941   4.566   5.775
99729SOL    HW2  962  11.958   4.557   5.625
99730SOL     OW  963   9.577   8.525   7.809
99730SOL    HW1  964   9.540   8.573   7.735
99730SOL    HW2  965   9.507   8.524   7.875
99731SOL     OW  966  10.580   2.645  13.879
99731SOL    HW1  967  10.573   2.722  13.935
99731SOL    HW2  968  10.672   2.642  13.853
99732SOL     OW  969   5.109   8.670   2.640
99732SOL    HW1  970   5.076   8.580   2.638
99732SOL    HW2  971   5.120   8.689   2.733
99733SOL     OW  972   7.290   4.598  13.542
99733SOL    HW1  973   7.360   4.653  13.508
99733SOL    HW2  974   7.209   4.639  13.510
99734SOL     OW  975   1.524  12.981   4.180
99734SOL    HW1  976   1.548  12.888   4.182
99734SOL    HW2  977   1.552  13.015   4.264
99735SOL     OW  978   5.210  13.938  11.435
99735SOL    HW1  979   5.128  13.889  11.442
99735SOL    HW2  980   5.186  14.017  11.387
99736SOL     OW  981   7.087   2.959   2.377
99736SOL    HW1  982   7.146   3.000   2.440
99736SOL    HW2  983   7.100   2.865   2.387
99737SOL     OW  984   0.393   1.804   1.818
99737SOL    HW1  985   0.452   1.776   1.888
99737SOL    HW2  986   0.373   1.724   1.770
99738SOL     OW  987   6.421  11.255   0.037
99738SOL    HW1  988   6.415  11.165   0.005
99738SOL    HW2  989   6.515  11.271   0.045
99739SOL     OW  990  14.088  10.472  14.582
99739SOL    HW1  991  14.090  10.394  14.638
99739SOL    HW2  992  14.081  10.546  14.643
99740SOL     OW  993   4.218   8.470  13.445
99740SOL    HW1  994   4.236   8.548  13.498
99740SOL    HW2  995   4.283   8.406  13.474
99741SOL     OW  996   5.869  12.455   8.526
99741SOL    HW1  997   5.957  12.462   8.561
99741SOL    HW2  998   5.881  12.457   8.431
99742SOL     OW  999   9.569  13.526  13.794
99742SOL    HW1 1000   9.606  13.526  13.882
99742SOL    HW2 1001   9.559  13.434  13.771
99743SOL     OW 1002   0.823   8.004   3.447
99743SOL    HW1 1003   0.910   8.037   3.428
99743SOL    HW2 1004   0.817   7.921   3.400
99744SOL     OW 1005   2.034   6.784  14.238
99744SOL    HW1 1006   1.947   6.814  14.210
99744SOL    HW2 1007   2.076   6.863  14.272
99745SOL     OW 1008   8.764  12.410   0.311
99745SOL    HW1 1009   8.726  12.348   0.373
99745SOL    HW2 1010   8.859  12.399   0.322
99746SOL     OW 1011   2.551  13.513  12.583
99746SOL    HW1 1012   2.551  13.582  12.516
99746SOL    HW2 1013   2.608  13.445  12.547
99747SOL     OW 1014   3.315  13.929   1.862
99747SOL    HW1 1015   3.258  13.982   1.917
99747SOL    HW2 1016   3.383  13.897   1.921
99748SOL     OW 1017  14.854   9.962  12.682
99748SOL    HW1 1018  14.821  10.048  12.710
99748SOL    HW2 1019   0.005   9.977  12.593
99749SOL     OW 1020   8.334   2.039   8.413
99749SOL    HW1 1021   8.332   2.099   8.338
99749SOL    HW2 1022   8.244   2.008   8.421
99750SOL     OW 1023   1.668   6.791   8.215
99750SOL    HW1 1024   1.636   6.750   8.295
99750SOL    HW2 1025   1.743   6.843   8.243
99751SOL     OW 1026   9.770  10.311   0.045
99751SOL    HW1 1027   9.840  10.246   0.048
99751SOL    HW2 1028   9.805  10.386   0.093
99752SOL     OW 1029   9.432   4.821   3.444
99752SOL    HW1 1030   9.414   4.864   3.528
99752SOL    HW2 1031   9.487   4.746   3.466
99753SOL     OW 1032  13.304   0.180  13.809
99753SOL    HW1 1033  13.391   0.141  13.808
99753SOL    HW2 1034  13.250   0.118  13.858
99754SOL     OW 1035   9.724   3.587   0.288
99754SOL    HW1 1036   9.643   3.639   0.295
99754SOL    HW2 1037   9.696   3.506   0.246
99755SOL     OW 1038   8.393   9.025   4.459
99755SOL    HW1 1039   8.481   9.006   4.428
99755SOL    HW2 1040   8.339   9.021   4.380
99756SOL     OW 1041   0.928   0.946  14.541
99756SOL    HW1 1042   0.924   0.994  14.623
99756SOL    HW2 1043   0.839   0.950  14.506
99757SOL     OW 1044   8.893  11.444   1.676
99757SOL    HW1 1045   8.936  11.523   1.643
99757SOL    HW2 1046   8.946  11.418   1.752
99758SOL     OW 1047   6.881  14.198  12.369
99758SOL    HW1 1048   6.807  14.229  12.421
99758SOL    HW2 1049   6.935  14.147  12.430
99759SOL     OW 1050  12.473  14.790  11.744
99759SOL    HW1 1051  12.520  14.872  11.762
99759SOL    HW2 1052  12.531  14.742  11.685
99760SOL     OW 1053   0.550   7.212  11.427
99760SOL    HW1 1054   0.477   7.166  11.385
99760SOL    HW2 1055   0.589   7.264  11.357
99761SOL     OW 1056  12.582  12.609  13.140
99761SOL    HW1 1057  12.631  12.646  13.066
99761SOL    HW2 1058  12.628  12.640  13.217
99762SOL     OW 1059   5.613   2.335   0.813
99762SOL    HW1 1060   5.526   2.303   0.836
99762SOL    HW2 1061   5.671   2.295   0.878
99763SOL     OW 1062   0.870   9.068   2.338
99763SOL    HW1 1063   0.798   9.040   2.281
99763SOL    HW2 1064   0.910   9.142   2.290
99764SOL     OW 1065  13.312  13.174  14.082
99764SOL    HW1 1066  13.242  13.177  14.017
99764SOL    HW2 1067  13.329  13.080  14.093
99765SOL     OW 1068   6.790   0.574  10.988
99765SOL    HW1 1069   6.872   0.623  10.997
99765SOL    HW2 1070   6.756   0.567  11.078
99766SOL     OW 1071   1.014   9.855   8.387
99766SOL    HW1 1072   1.089   9.805   8.420
99766SOL    HW2 1073   0.996   9.920   8.456
99767SOL     OW 1074  13.103   2.005   8.322
99767SOL    HW1 1075  13.163   1.931   8.321
99767SOL    HW2 1076  13.062   2.002   8.409
99768SOL     OW 1077   2.260  12.107  12.883
99768SOL    HW1 1078   2.196  12.176  12.903
99768SOL    HW2 1079   2.305  12.091  12.965
99769SOL     OW 1080  13.571   0.209  14.276
99769SOL    HW1 1081  13.536   0.218  14.187
99769SOL    HW2 1082  13.585   0.299  14.305
99770SOL     OW 1083  11.431  11.951   8.236
99770SOL    HW1 1084  11.338  11.969   8.223
99770SOL    HW2 1085  11.471  11.965   8.150
99771SOL     OW 1086   5.189  13.275  14.650
99771SOL    HW1 1087   5.124  13.313  14.590
99771SOL    HW2 1088   5.238  13.350  14.682
99772SOL     OW 1089  10.767   0.129   0.154
99772SOL    HW1 1090  10.759   0.214   0.110
99772SOL    HW2 1091  10.771   0.151   0.247
99773SOL     OW 1092   4.303   3.608   3.352
99773SOL    HW1 1093   4.340   3.690   3.384
99773SOL    HW2 1094   4.243   3.635   3.282
99774SOL     OW 1095  10.853  11.360  13.604
99774SOL    HW1 1096  10.906  11.436  13.624
99774SOL    HW2 1097  10.910  11.305  13.550
99775SOL     OW 1098   0.255  13.405   8.844
99775SOL    HW1 1099   0.164  13.427   8.824
99775SOL    HW2 1100   0.297  13.393   8.759
99776SOL     OW 1101   0.900   9.155   6.554
99776SOL    HW1 1102   0.898   9.065   6.524
99776SOL    HW2 1103   0.810   9.174   6.580
99777SOL     OW 1104   9.765  13.561   9.805
99777SOL    HW1 1105   9.780  13.492   9.870
99777SOL    HW2 1106   9.677  13.542   9.772
99778SOL     OW 1107   8.391  10.042  11.699
99778SOL    HW1 1108   8.371   9.962  11.747
99778SOL    HW2 1109   8.313  10.096  11.708
99779SOL     OW 1110   4.802  14.730   8.577
99779SOL    HW1 1111   4.821  14.663   8.512
99779SOL    HW2 1112   4.712  14.713   8.604
99780SOL     OW 1113   6.835  14.344   0.763
99780SOL    HW1 1114   6.882  14.265   0.788
99780SOL    HW2 1115   6.752  14.339   0.812
99781SOL     OW 1116   6.910   4.735  13.715
99781SOL    HW1 1117   6.933   4.644  13.733
99781SOL    HW2 1118   6.832   4.729  13.659
99782SOL     OW 1119  12.317  12.096  10.666
99782SOL    HW1 1120  12.357  12.045  10.595
99782SOL    HW2 1121  12.231  12.121  10.631
99783SOL     OW 1122   3.638   3.775   0.335
99783SOL    HW1 1123   3.594   3.846   0.381
99783SOL    HW2 1124   3.724   3.810   0.312
99784SOL     OW 1125   2.822   9.147   0.020
99784SOL    HW1 1126   2.790   9.221   0.072
99784SOL    HW2 1127   2.912   9.171  14.880
99785SOL     OW 1128   6.436   4.265   2.657
99785SOL    HW1 1129   6.475   4.339   2.704
99785SOL    HW2 1130   6.509   4.204   2.643
99786SOL     OW 1131   2.026  11.968   0.009
99786SOL    HW1 1132   2.023  11.968   0.104
99786SOL    HW2 1133   2.110  12.008  14.869
99787SOL     OW 1134   4.939   1.448   6.864
99787SOL    HW1 1135   4.984   1.427   6.945
99787SOL    HW2 1136   4.846   1.441   6.886
99788SOL     OW 1137   1.516   8.334   5.643
99788SOL    HW1 1138   1.537   8.380   5.724
99788SOL    HW2 1139   1.423   8.312   5.651
99789SOL     OW 1140   5.909  12.165   0.861
99789SOL    HW1 1141   5.888  12.146   0.953
99789SOL    HW2 1142   5.840  12.122   0.811
99790SOL     OW 1143  11.028   9.843   0.864
99790SOL    HW1 1144  11.066   9.871   0.947
99790SOL    HW2 1145  10.938   9.874   0.867
99791SOL     OW 1146  10.375  13.268   5.172
99791SOL    HW1 1147  10.427  13.328   5.226
99791SOL    HW2 1148  10.384  13.183   5.214
99792SOL     OW 1149   1.183   9.923   0.256
99792SOL    HW1 1150   1.146   9.887   0.336
99792SOL    HW2 1151   1.258   9.974   0.286
99793SOL     OW 1152   7.989   7.761   0.641
99793SOL    HW1 1153   7.986   7.669   0.614
99793SOL    HW2 1154   8.021   7.808   0.564
99794SOL     OW 1155   1.490  10.807   9.006
99794SOL    HW1 1156   1.581  10.780   8.991
99794SOL    HW2 1157   1.440  10.759   8.939
99795SOL     OW 1158   0.665   9.651   3.674
99795SOL    HW1 1159   0.663   9.653   3.769
99795SOL    HW2 1160   0.684   9.741   3.648
99796SOL     OW 1161   8.861   1.201   0.831
99796SOL    HW1 1162   8.921   1.127   0.825
99796SOL    HW2 1163   8.825   1.209   0.743
99797SOL     OW 1164   0.805   1.149   1.490
99797SOL    HW1 1165   0.855   1.149   1.409
99797SOL    HW2 1166   0.739   1.081   1.477
99798SOL     OW 1167   6.110   0.651   1.743
99798SOL    HW1 1168   6.083   0.705   1.817
99798SOL    HW2 1169   6.101   0.709   1.667
99799SOL     OW 1170   6.746   1.376   9.178
99799SOL    HW1 1171   6.824   1.357   9.126
99799SOL    HW2 1172   6.780   1.396   9.265
99800SOL     OW 1173   0.393  10.456   8.886
99800SOL    HW1 1174   0.469  10.498   8.846
99800SOL    HW2 1175   0.321  10.474   8.825
99801SOL     OW 1176   0.888   9.111  14.593
99801SOL    HW1 1177   0.850   9.169  14.527
99801SOL    HW2 1178   0.925   9.039  14.543
99802SOL     OW 1179  10.906   0.341   6.942
99802SOL    HW1 1180  10.943   0.425   6.970
99802SOL    HW2 1181  10.930   0.280   7.012
99803SOL     OW 1182  10.297   0.177   8.982
99803SOL    HW1 1183  10.330   0.112   9.044
99803SOL    HW2 1184  10.202   0.165   8.983
99804SOL     OW 1185   7.827   4.383   8.063
99804SOL    HW1 1186   7.833   4.335   8.145
99804SOL    HW2 1187   7.918   4.394   8.035
99805SOL     OW 1188   6.893   6.692   7.096
99805SOL    HW1 1189   6.902   6.720   7.005
99805SOL    HW2 1190   6.967   6.633   7.110
99806SOL     OW 1191   1.672   5.523   2.241
99806SOL    HW1 1192   1.722   5.450   2.205
99806SOL    HW2 1193   1.622   5.484   2.313
99807SOL     OW 1194  11.783   0.756  10.821
99807SOL    HW1 1195  11.700   0.802  10.833
99807SOL    HW2 1196  11.780   0.724  10.731
99808SOL     OW 1197   9.768  11.616  11.509
99808SOL    HW1 1198   9.753  11.550  11.441
99808SOL    HW2 1199   9.717  11.585  11.584
99809SOL     OW 1200   6.963   1.678   1.649
99809SOL    HW1 1201   6.961   1.660   1.555
99809SOL    HW2 1202   6.873   1.702   1.672
99810SOL     OW 1203   3.190   9.541   9.742
99810SOL    HW1 1204   3.278   9.536   9.703
99810SOL    HW2 1205   3.206   9.564   9.834
99811SOL     OW 1206  12.288  13.097   6.691
99811SOL    HW1 1207  12.289  13.174   6.635
99811SOL    HW2 1208  12.198  13.091   6.723
99812SOL     OW 1209   9.181   0.524  10.049
99812SOL    HW1 1210   9.141   0.593   9.996
99812SOL    HW2 1211   9.252   0.568  10.096
99813SOL     OW 1212   5.600  11.280   6.702
99813SOL    HW1 1213   5.585  11.224   6.626
99813SOL    HW2 1214   5.513  11.299   6.736
99814SOL     OW 1215   2.776  10.387   4.702
99814SOL    HW1 1216   2.833  10.463   4.713
99814SOL    HW2 1217   2.835  10.312   4.706
99815SOL     OW 1218   2.087  11.434  14.698
99815SOL    HW1 1219   2.090  11.485  14.617
99815SOL    HW2 1220   2.095  11.343  14.669
99816SOL     OW 1221   2.481   4.397   7.906
99816SOL    HW1 1222   2.418   4.435   7.967
99816SOL    HW2 1223   2.539   4.344   7.961
99817SOL     OW 1224  10.922  10.366   6.434
99817SOL    HW1 1225  10.923  10.459   6.456
99817SOL    HW2 1226  10.910  10.322   6.517
99818SOL     OW 1227   4.742   8.249   0.944
99818SOL    HW1 1228   4.772   8.194   1.016
99818SOL    HW2 1229   4.646   8.243   0.948
99819SOL     OW 1230  11.486  12.829  11.546
99819SOL    HW1 1231  11.567  12.784  11.524
99819SOL    HW2 1232  11.417  12.764  11.530
99820SOL     OW 1233   3.585  14.570   7.627
99820SOL    HW1 1234   3.497  14.574   7.665
99820SOL    HW2 1235   3.611  14.478   7.637
99821SOL     OW 1236   3.592  11.962   8.474
99821SOL    HW1 1237   3.618  11.874   8.500
99821SOL    HW2 1238   3.661  11.991   8.415
99822SOL     OW 1239   1.193   6.759  14.814
99822SOL    HW1 1240   1.230   6.788  14.730
99822SOL    HW2 1241   1.193   6.837  14.868
99823SOL     OW 1242   0.203   4.715   2.208
99823SOL    HW1 1243   0.124   4.673   2.241
99823SOL    HW2 1244   0.243   4.755   2.285
99824SOL     OW 1245  11.646   8.227   3.301
99824SOL    HW1 1246  11.565   8.247   3.349
99824SOL    HW2 1247  11.692   8.164   3.357
99825SOL     OW 1248  12.117   7.531   9.338
99825SOL    HW1 1249  12.120   7.542   9.433
99825SOL    HW2 1250  12.047   7.590   9.309
99826SOL     OW 1251   4.018   7.121  14.570
99826SOL    HW1 1252   4.001   7.084  14.484
99826SOL    HW2 1253   4.007   7.047  14.630
99827SOL     OW 1254   5.783   0.827   2.912
99827SOL    HW1 1255   5.728   0.792   2.982
99827SOL    HW2 1256   5.829   0.901   2.952
99828SOL     OW 1257  12.422   0.373   8.469
99828SOL    HW1 1258  12.476   0.452   8.482
99828SOL    HW2 1259  12.339   0.394   8.511
99829SOL     OW 1260   6.748   3.254  11.504
99829SOL    HW1 1261   6.726   3.160  11.505
99829SOL    HW2 1262   6.712   3.286  11.421
99830SOL     OW 1263   1.388   1.996  13.193
99830SOL    HW1 1264   1.480   1.975  13.210
99830SOL    HW2 1265   1.385   2.022  13.101
99831SOL     OW 1266   9.392   2.174   5.564
99831SOL    HW1 1267   9.468   2.160   5.621
99831SOL    HW2 1268   9.318   2.141   5.615
99832SOL     OW 1269  11.237   3.901  12.569
99832SOL    HW1 1270  11.269   3.990  12.583
99832SOL    HW2 1271  11.182   3.883  12.646
99833SOL     OW 1272   8.289   2.268   8.685
99833SOL    HW1 1273   8.380   2.238   8.679
99833SOL    HW2 1274   8.293   2.362   8.671
99834SOL     OW 1275  11.998  14.528   9.448
99834SOL    HW1 1276  11.924  14.587   9.431
99834SOL    HW2 1277  12.024  14.496   9.362
99835SOL     OW 1278   5.429   8.856   8.687
99835SOL    HW1 1279   5.403   8.930   8.632
99835SOL    HW2 1280   5.521   8.873   8.707
99836SOL     OW 1281   9.097  13.616   5.688
99836SOL    HW1 1282   9.010  13.643   5.659
99836SOL    HW2 1283   9.106  13.525   5.657
99837SOL     OW 1284   0.598   0.844   0.139
99837SOL    HW1 1285   0.565   0.931   0.164
99837SOL    HW2 1286   0.617   0.853   0.045
99838SOL     OW 1287  13.212   1.085   9.730
99838SOL    HW1 1288  13.278   1.016   9.738
99838SOL    HW2 1289  13.225   1.141   9.806
99839SOL     OW 1290   1.478   6.268   9.801
99839SOL    HW1 1291   1.505   6.199   9.740
99839SOL    HW2 1292   1.403   6.230   9.848
99840SOL     OW 1293   0.423   6.064   5.396
99840SOL    HW1 1294   0.479   6.087   5.470
99840SOL    HW2 1295   0.464   6.107   5.321
99841SOL     OW 1296   9.842   9.848   8.193
99841SOL    HW1 1297   9.853   9.835   8.099
99841SOL    HW2 1298   9.764   9.903   8.201
99842SOL     OW 1299   7.539   0.011   2.946
99842SOL    HW1 1300   7.605   0.006   3.015
99842SOL    HW2 1301   7.544  14.807   2.902
99843SOL     OW 1302   8.570   1.851   8.326
99843SOL    HW1 1303   8.511   1.868   8.400
99843SOL    HW2 1304   8.602   1.937   8.301
99844SOL     OW 1305   1.884   2.826  12.259
99844SOL    HW1 1306   1.941   2.890  12.216
99844SOL    HW2 1307   1.928   2.805  12.341
99845SOL     OW 1308   5.247   0.102   9.648
99845SOL    HW1 1309   5.211   0.014   9.648
99845SOL    HW2 1310   5.283   0.114   9.736
99846SOL     OW 1311   5.960   7.837   0.212
99846SOL    HW1 1312   5.942   7.753   0.168
99846SOL    HW2 1313   6.045   7.863   0.178
99847SOL     OW 1314   4.217  13.440   7.889
99847SOL    HW1 1315   4.222  13.380   7.964
99847SOL    HW2 1316   4.307  13.443   7.855
99848SOL     OW 1317   5.360   7.814  14.881
99848SOL    HW1 1318   5.394   7.806   0.089
99848SOL    HW2 1319   5.270   7.782   0.005
99849SOL     OW 1320   0.965  11.049   1.945
99849SOL    HW1 1321   1.011  10.976   1.986
99849SOL    HW2 1322   0.872  11.031   1.961
99850SOL     OW 1323   8.266   3.942  14.584
99850SOL    HW1 1324   8.181   3.935  14.540
99850SOL    HW2 1325   8.245   3.964  14.675
99851SOL     OW 1326   1.130  11.667   8.953
99851SOL    HW1 1327   1.048  11.631   8.988
99851SOL    HW2 1328   1.198  11.609   8.987
99852SOL     OW 1329   1.482   4.464  10.163
99852SOL    HW1 1330   1.543   4.538  10.165
99852SOL    HW2 1331   1.443   4.463  10.251
99853SOL     OW 1332   4.963   7.851  14.637
99853SOL    HW1 1333   5.024   7.897  14.579
99853SOL    HW2 1334   4.878   7.864  14.596
99854SOL     OW 1335   7.747  13.905   8.673
99854SOL    HW1 1336   7.718  13.814   8.675
99854SOL    HW2 1337   7.804  13.914   8.750
99855SOL     OW 1338  14.666   0.097   9.758
99855SOL    HW1 1339  14.607   0.024   9.741
99855SOL    HW2 1340  14.696   0.083   9.848
99856SOL     OW 1341   3.810  12.370   6.423
99856SOL    HW1 1342   3.800  12.275   6.434
99856SOL    HW2 1343   3.720  12.404   6.427
99857SOL     OW 1344   0.457   8.392   7.833
99857SOL    HW1 1345   0.533   8.389   7.891
99857SOL    HW2 1346   0.456   8.306   7.790
99858SOL     OW 1347   1.273   3.284  10.997
99858SOL    HW1 1348   1.248   3.335  11.074
99858SOL    HW2 1349   1.353   3.325  10.965
99859SOL     OW 1350   7.675   5.081   0.352
99859SOL    HW1 1351   7.689   5.043   0.439
99859SOL    HW2 1352   7.660   5.005   0.295
99860SOL     OW 1353  11.368  10.485   2.649
99860SOL    HW1 1354  11.397  10.474   2.559
99860SOL    HW2 1355  11.399  10.405   2.694
99861SOL     OW 1356   3.689   5.880   9.914
99861SOL    HW1 1357   3.636   5.841   9.845
99861SOL    HW2 1358   3.626   5.914   9.977
99862SOL     OW 1359   3.958   7.913   8.619
99862SOL    HW1 1360   3.882   7.936   8.565
99862SOL    HW2 1361   4.026   7.975   8.591
99863SOL     OW 1362   1.053   9.648   6.037
99863SOL    HW1 1363   1.049   9.719   6.101
99863SOL    HW2 1364   1.045   9.568   6.090
99864SOL     OW 1365   0.722  11.000   3.101
99864SOL    HW1 1366   0.758  11.058   3.168
99864SOL    HW2 1367   0.688  10.925   3.149
99865SOL     OW 1368   0.821   2.415   8.955
99865SOL    HW1 1369   0.860   2.494   8.917
99865SOL    HW2 1370   0.759   2.448   9.020
99866SOL     OW 1371   1.087   4.355  10.034
99866SOL    HW1 1372   1.103   4.317  10.120
99866SOL    HW2 1373   1.057   4.282   9.980
99867SOL     OW 1374   1.689   0.415   4.946
99867SOL    HW1 1375   1.671   0.489   5.004
99867SOL    HW2 1376   1.605   0.398   4.903
99868SOL     OW 1377   3.471  11.311   3.282
99868SOL    HW1 1378   3.430  11.391   3.248
99868SOL    HW2 1379   3.540  11.292   3.219
99869SOL     OW 1380   7.137   5.895   5.972
99869SOL    HW1 1381   7.106   5.921   5.886
99869SOL    HW2 1382   7.187   5.814   5.956
99870SOL     OW 1383   1.577   7.003  12.098
99870SOL    HW1 1384   1.515   7.019  12.027
99870SOL    HW2 1385   1.659   7.042  12.067
99871SOL     OW 1386   5.976   5.679   1.476
99871SOL    HW1 1387   6.055   5.659   1.426
99871SOL    HW2 1388   6.006   5.686   1.566
99872SOL     OW 1389   5.426   2.069   4.810
99872SOL    HW1 1390   5.471   2.122   4.875
99872SOL    HW2 1391   5.392   2.132   4.746
99873SOL     OW 1392  10.005  13.010   3.049
99873SOL    HW1 1393   9.948  12.992   3.124
99873SOL    HW2 1394  10.094  13.000   3.083
99874SOL     OW 1395  14.731   2.919  12.807
99874SOL    HW1 1396  14.685   2.963  12.879
99874SOL    HW2 1397  14.824   2.935  12.826
99875SOL     OW 1398   5.828   7.914   8.562
99875SOL    HW1 1399   5.782   7.902   8.479
99875SOL    HW2 1400   5.767   7.964   8.616
99876SOL     OW 1401   6.475   0.217  13.898
99876SOL    HW1 1402   6.413   0.253  13.834
99876SOL    HW2 1403   6.553   0.271  13.888
99877SOL     OW 1404  13.823  14.705  10.918
99877SOL    HW1 1405  13.833  14.739  11.007
99877SOL    HW2 1406  13.789  14.616  10.930
99878SOL     OW 1407  12.536   4.999   5.776
99878SOL    HW1 1408  12.625   5.009   5.743
99878SOL    HW2 1409  12.481   5.043   5.712
99879SOL     OW 1410   8.432   9.701  13.864
99879SOL    HW1 1411   8.355   9.739  13.905
99879SOL    HW2 1412   8.431   9.609  13.892
99880SOL     OW 1413   0.021   9.005   0.023
99880SOL    HW1 1414  14.856   9.086   0.043
99880SOL    HW2 1415   0.107   9.033  14.873
99881SOL     OW 1416  11.256  10.545   7.936
99881SOL    HW1 1417  11.262  10.593   7.853
99881SOL    HW2 1418  11.174  10.496   7.929
99882SOL     OW 1419   2.899  10.626   7.084
99882SOL    HW1 1420   2.833  10.692   7.062
99882SOL    HW2 1421   2.923  10.587   7.000
99883SOL     OW 1422   1.460  10.695  13.411
99883SOL    HW1 1423   1.413  10.771  13.377
99883SOL    HW2 1424   1.454  10.630  13.340
99884SOL     OW 1425   7.646   9.324  11.263
99884SOL    HW1 1426   7.709   9.395  11.255
99884SOL    HW2 1427   7.646   9.283  11.177
99885SOL     OW 1428   2.117  10.054  13.450
99885SOL    HW1 1429   2.052  10.112  13.490
99885SOL    HW2 1430   2.180  10.038  13.519
99886SOL     OW 1431   4.904   9.233   1.182
99886SOL    HW1 1432   4.989   9.271   1.204
99886SOL    HW2 1433   4.921   9.139   1.177
99887SOL     OW 1434  13.708   3.424   9.332
99887SOL    HW1 1435  13.801   3.401   9.334
99887SOL    HW2 1436  13.666   3.349   9.291
99888SOL     OW 1437   5.370   5.178   3.199
99888SOL    HW1 1438   5.393   5.205   3.288
99888SOL    HW2 1439   5.390   5.254   3.145
99889SOL     OW 1440   7.210  11.840   1.617
99889SOL    HW1 1441   7.208  11.901   1.691
99889SOL    HW2 1442   7.298  11.848   1.582
99890SOL     OW 1443  11.380   5.710   0.227
99890SOL    HW1 1444  11.346   5.633   0.181
99890SOL    HW2 1445  11.408   5.768   0.157
99891SOL     OW 1446   4.838  10.148  14.016
99891SOL    HW1 1447   4.872  10.220  14.070
99891SOL    HW2 1448   4.761  10.184  13.974
99892SOL     OW 1449   5.475   6.295   7.107
99892SOL    HW1 1450   5.528   6.221   7.079
99892SOL    HW2 1451   5.385   6.267   7.095
99893SOL     OW 1452   6.727   2.295  14.664
99893SOL    HW1 1453   6.787   2.266  14.595
99893SOL    HW2 1454   6.641   2.296  14.622
99894SOL     OW 1455   4.680  10.262   0.552
99894SOL    HW1 1456   4.747  10.281   0.487
99894SOL    HW2 1457   4.628  10.191   0.512
99895SOL     OW 1458  13.448   0.424   7.071
99895SOL    HW1 1459  13.521   0.450   7.127
99895SOL    HW2 1460  13.370   0.457   7.116
99896SOL     OW 1461   6.956   4.034   3.152
99896SOL    HW1 1462   6.968   3.996   3.065
99896SOL    HW2 1463   7.000   4.119   3.147
99897SOL     OW 1464  11.846   3.430   2.394
99897SOL    HW1 1465  11.930   3.392   2.369
99897SOL    HW2 1466  11.854   3.523   2.372
99898SOL     OW 1467   8.846   3.554   3.017
99898SOL    HW1 1468   8.909   3.584   3.082
99898SOL    HW2 1469   8.775   3.515   3.068
99899SOL     OW 1470   7.822  12.148   1.670
99899SOL    HW1 1471   7.841  12.075   1.729
99899SOL    HW2 1472   7.880  12.134   1.595
99900SOL     OW 1473   7.935   4.349  13.691
99900SOL    HW1 1474   7.913   4.285  13.623
99900SOL    HW2 1475   7.956   4.297  13.768
99901SOL     OW 1476   5.561   5.470  10.458
99901SOL    HW1 1477   5.644   5.425  10.441
99901SOL    HW2 1478   5.495   5.400  10.456
99902SOL     OW 1479  12.076   0.813  10.373
99902SOL    HW1 1480  12.102   0.748  10.439
99902SOL    HW2 1481  12.074   0.896  10.420
99903SOL     OW 1482   0.756   8.407   5.451
99903SOL    HW1 1483   0.680   8.460   5.426
99903SOL    HW2 1484   0.820   8.470   5.484
99904SOL     OW 1485   4.294  13.963   2.852
99904SOL    HW1 1486   4.250  13.982   2.769
99904SOL    HW2 1487   4.384  13.993   2.839
99905SOL     OW 1488   7.586  14.347   1.791
99905SOL    HW1 1489   7.566  14.254   1.801
99905SOL    HW2 1490   7.523  14.379   1.727
99906SOL     OW 1491   7.138   3.371  11.978
99906SOL    HW1 1492   7.159   3.394  11.888
99906SOL    HW2 1493   7.214   3.321  12.009
99907SOL     OW 1494   9.891  13.937  10.442
99907SOL    HW1 1495   9.897  14.030  10.420
99907SOL    HW2 1496   9.976  13.900  10.415
99908SOL     OW 1497   5.610   5.531   7.731
99908SOL    HW1 1498   5.665   5.548   7.654
99908SOL    HW2 1499   5.666   5.482   7.790
99909SOL     OW 1500   3.666   9.627   8.725
99909SOL    HW1 1501   3.646   9.590   8.811
99909SOL    HW2 1502   3.687   9.719   8.743
99910SOL     OW 1503   5.065  14.859   6.664
99910SOL    HW1 1504   5.066  14.815   6.579
99910SOL    HW2 1505   5.068  14.788   6.728
99911SOL     OW 1506   9.084   8.520   1.956
99911SOL    HW1 1507   9.152   8.502   1.891
99911SOL    HW2 1508   9.017   8.569   1.908
99912SOL     OW 1509   5.758  11.798  12.188
99912SOL    HW1 1510   5.769  11.789  12.094
99912SOL    HW2 1511   5.741  11.708  12.219
99913SOL     OW 1512  10.012   7.626  14.003
99913SOL    HW1 1513   9.917   7.627  14.002
99913SOL    HW2 1514  10.036   7.544  14.045
99914SOL     OW 1515   1.129   2.157   3.039
99914SOL    HW1 1516   1.092   2.200   3.116
99914SOL    HW2 1517   1.096   2.209   2.965
99915SOL     OW 1518   8.313   1.694   7.874
99915SOL    HW1 1519   8.335   1.696   7.967
99915SOL    HW2 1520   8.398   1.694   7.829
99916SOL     OW 1521   4.037   6.573   0.339
99916SOL    HW1 1522   4.124   6.537   0.324
99916SOL    HW2 1523   3.992   6.563   0.255
99917SOL     OW 1524   1.091   6.951   9.562
99917SOL    HW1 1525   1.048   7.022   9.610
99917SOL    HW2 1526   1.019   6.897   9.529
99918SOL     OW 1527   7.367   7.108   9.523
99918SOL    HW1 1528   7.340   7.114   9.431
99918SOL    HW2 1529   7.415   7.189   9.539
99919SOL     OW 1530  11.883  13.477   5.047
99919SOL    HW1 1531  11.975  13.453   5.057
99919SOL    HW2 1532  11.879  13.570   5.069
99920SOL     OW 1533  14.205   7.202  10.082
99920SOL    HW1 1534  14.135   7.238  10.028
99920SOL    HW2 1535  14.274   7.179  10.019
99921SOL     OW 1536   2.255   0.793   0.989
99921SOL    HW1 1537   2.201   0.796   1.068
99921SOL    HW2 1538   2.193   0.810   0.918
99922SOL     OW 1539   3.398   6.079  11.199
99922SOL    HW1 1540   3.315   6.123  11.178
99922SOL    HW2 1541   3.437   6.134  11.266
99923SOL     OW 1542   6.318   2.723  11.266
99923SOL    HW1 1543   6.245   2.676  11.224
99923SOL    HW2 1544   6.312   2.699  11.358
99924SOL     OW 1545   9.785   7.815  13.056
99924SOL    HW1 1546   9.819   7.817  12.967
99924SOL    HW2 1547   9.752   7.726  13.067
99925SOL     OW 1548  13.180   3.789  11.093
99925SOL    HW1 1549  13.271   3.760  11.084
99925SOL    HW2 1550  13.136   3.716  11.137
99926SOL     OW 1551   8.469   7.359   9.473
99926SOL    HW1 1552   8.421   7.285   9.510
99926SOL    HW2 1553   8.403   7.427   9.461
99927SOL     OW 1554  10.536  14.022   4.196
99927SOL    HW1 1555  10.545  14.100   4.141
99927SOL    HW2 1556  10.444  14.021   4.221
99928SOL     OW 1557   3.977  11.652   0.876
99928SOL    HW1 1558   4.011  11.641   0.964
99928SOL    HW2 1559   4.015  11.579   0.826
99929SOL     OW 1560   5.652   3.964   6.258
99929SOL    HW1 1561   5.579   3.906   6.283
99929SOL    HW2 1562   5.609   4.046   6.235
99930SOL     OW 1563  13.527   2.221   3.873
99930SOL    HW1 1564  13.500   2.301   3.827
99930SOL    HW2 1565  13.550   2.160   3.803
99931SOL     OW 1566   4.768   1.179   5.459
99931SOL    HW1 1567   4.685   1.218   5.485
99931SOL    HW2 1568   4.772   1.191   5.364
99932SOL     OW 1569  10.323   4.040   6.855
99932SOL    HW1 1570  10.378   4.109   6.890
99932SOL    HW2 1571  10.243   4.085   6.827
99933SOL     OW 1572  13.052   5.551  10.799
99933SOL    HW1 1573  13.065   5.456  10.801
99933SOL    HW2 1574  12.964   5.562  10.763
99934SOL     OW 1575  13.219  11.865   3.508
99934SOL    HW1 1576  13.286  11.807   3.544
99934SOL    HW2 1577  13.211  11.936   3.572
99935SOL     OW 1578   2.883   5.300  14.306
99935SOL    HW1 1579   2.931   5.221  14.335
99935SOL    HW2 1580   2.845   5.335  14.386
99936SOL     OW 1581   4.729   0.273   6.629
99936SOL    HW1 1582   4.750   0.365   6.647
99936SOL    HW2 1583   4.698   0.238   6.712
99937SOL     OW 1584  13.723   2.749  10.255
99937SOL    HW1 1585  13.744   2.808  10.328
99937SOL    HW2 1586  13.771   2.786  10.180
99938SOL     OW 1587  12.421   5.251  11.789
99938SOL    HW1 1588  12.504   5.206  11.802
99938SOL    HW2 1589  12.379   5.249  11.875
99939SOL     OW 1590   0.628   8.660  10.860
99939SOL    HW1 1591   0.584   8.727  10.806
99939SOL    HW2 1592   0.672   8.710  10.929
99940SOL     OW 1593  10.407   9.971   4.534
99940SOL    HW1 1594  10.436   9.880   4.549
99940SOL    HW2 1595  10.336   9.984   4.596
99941SOL     OW 1596  10.047   3.148   6.693
99941SOL    HW1 1597  10.077   3.238   6.681
99941SOL    HW2 1598  10.045   3.135   6.788
99942SOL     OW 1599  14.644   0.321   8.529
99942SOL    HW1 1600  14.651   0.336   8.623
99942SOL    HW2 1601  14.550   0.305   8.515
99943SOL     OW 1602  10.153   7.247  14.562
99943SOL    HW1 1603  10.156   7.287  14.475
99943SOL    HW2 1604  10.220   7.179  14.560
99944SOL     OW 1605   5.550   3.649   3.375
99944SOL    HW1 1606   5.568   3.555   3.373
99944SOL    HW2 1607   5.615   3.688   3.318
99945SOL     OW 1608  13.244   0.792  14.832
99945SOL    HW1 1609  13.195   0.739  14.770
99945SOL    HW2 1610  13.333   0.794  14.797
99946SOL     OW 1611   3.056  13.000   7.731
99946SOL    HW1 1612   2.964  13.001   7.758
99946SOL    HW2 1613   3.100  12.943   7.794
99947SOL     OW 1614  12.202  11.913  11.287
99947SOL    HW1 1615  12.107  11.905  11.299
99947SOL    HW2 1616  12.227  11.832  11.243
99948SOL     OW 1617  12.071  11.835   4.689
99948SOL    HW1 1618  12.005  11.863   4.626
99948SOL    HW2 1619  12.139  11.794   4.636
99949SOL     OW 1620   9.663  12.268   7.189
99949SOL    HW1 1621   9.722  12.338   7.161
99949SOL    HW2 1622   9.630  12.297   7.274
99950SOL     OW 1623   8.357   9.384   2.310
99950SOL    HW1 1624   8.426   9.417   2.368
99950SOL    HW2 1625   8.352   9.449   2.240
99951SOL     OW 1626   5.648   1.810  12.242
99951SOL    HW1 1627   5.694   1.885  12.279
99951SOL    HW2 1628   5.671   1.811  12.149
99952SOL     OW 1629   0.720  12.408  11.311
99952SOL    HW1 1630   0.693  12.332  11.363
99952SOL    HW2 1631   0.816  12.401  11.306
99953SOL     OW 1632   6.825   2.062  14.469
99953SOL    HW1 1633   6.843   1.975  14.435
99953SOL    HW2 1634   6.733   2.077  14.449
99954SOL     OW 1635  13.729   9.802  11.809
99954SOL    HW1 1636  13.693   9.850  11.734
99954SOL    HW2 1637  13.724   9.865  11.881
99955SOL     OW 1638   0.983   8.194   5.653
99955SOL    HW1 1639   0.932   8.181   5.733
99955SOL    HW2 1640   0.919   8.185   5.582
99956SOL     OW 1641   0.162  14.552   4.536
99956SOL    HW1 1642   0.207  14.622   4.489
99956SOL    HW2 1643   0.144  14.486   4.469
99957SOL     OW 1644  13.991   6.636   6.174
99957SOL    HW1 1645  14.080   6.602   6.168
99957SOL    HW2 1646  14.002   6.727   6.201
99958SOL     OW 1647  14.543   4.804  11.831
99958SOL    HW1 1648  14.550   4.845  11.745
99958SOL    HW2 1649  14.607   4.733  11.828
99959SOL     OW 1650   7.757   8.702   0.256
99959SOL    HW1 1651   7.691   8.646   0.297
99959SOL    HW2 1652   7.707   8.772   0.216
99960SOL     OW 1653   8.077   4.382   1.555
99960SOL    HW1 1654   8.158   4.403   1.601
99960SOL    HW2 1655   8.105   4.357   1.467
99961SOL     OW 1656   1.392   2.338  13.206
99961SOL    HW1 1657   1.363   2.271  13.144
99961SOL    HW2 1658   1.488   2.330  13.207
99962SOL     OW 1659  11.960   8.182  14.670
99962SOL    HW1 1660  11.912   8.162  14.750
99962SOL    HW2 1661  11.926   8.120  14.606
99963SOL     OW 1662  12.537   1.279   3.076
99963SOL    HW1 1663  12.456   1.286   3.126
99963SOL    HW2 1664  12.514   1.229   2.998
99964SOL     OW 1665  10.777   7.555   1.477
99964SOL    HW1 1666  10.765   7.544   1.383
99964SOL    HW2 1667  10.871   7.562   1.489
99965SOL     OW 1668   4.158  13.780   4.133
99965SOL    HW1 1669   4.243  13.765   4.173
99965SOL    HW2 1670   4.095  13.758   4.201
99966SOL     OW 1671  14.080  12.705   2.505
99966SOL    HW1 1672  14.145  12.635   2.508
99966SOL    HW2 1673  14.026  12.692   2.583
99967SOL     OW 1674   9.292   4.539  12.382
99967SOL    HW1 1675   9.291   4.495  12.467
99967SOL    HW2 1676   9.314   4.630  12.401
99968SOL     OW 1677  14.118   7.612  12.135
99968SOL    HW1 1678  14.110   7.533  12.189
99968SOL    HW2 1679  14.094   7.683  12.195
99969SOL     OW 1680   9.494  14.388  10.821
99969SOL    HW1 1681   9.579  14.423  10.847
99969SOL    HW2 1682   9.432  14.427  10.882
99970SOL     OW 1683   7.511   1.143  11.270
99970SOL    HW1 1684   7.477   1.056  11.250
99970SOL    HW2 1685   7.519   1.186  11.184
99971SOL     OW 1686  14.408   5.351   4.412
99971SOL    HW1 1687  14.351   5.320   4.483
99971SOL    HW2 1688  14.349   5.391   4.349
99972SOL     OW 1689  14.116   3.608  12.473
99972SOL    HW1 1690  14.080   3.639  12.556
99972SOL    HW2 1691  14.152   3.686  12.432
99973SOL     OW 1692   6.086   7.455   9.299
99973SOL    HW1 1693   6.035   7.532   9.274
99973SOL    HW2 1694   6.141   7.485   9.372
99974SOL     OW 1695   3.624   0.492  11.287
99974SOL    HW1 1696   3.635   0.411  11.238
99974SOL    HW2 1697   3.635   0.561  11.222
99975SOL     OW 1698   9.892   3.465  11.968
99975SOL    HW1 1699   9.909   3.432  12.056
99975SOL    HW2 1700   9.798   3.448  11.954
99976SOL     OW 1701   0.570  11.099  13.606
99976SOL    HW1 1702   0.549  11.086  13.698
99976SOL    HW2 1703   0.663  11.122  13.606
99977SOL     OW 1704   4.057   1.288  11.072
99977SOL    HW1 1705   4.071   1.383  11.076
99977SOL    HW2 1706   4.142   1.250  11.092
99978SOL     OW 1707   9.913   0.332   3.443
99978SOL    HW1 1708  10.005   0.325   3.417
99978SOL    HW2 1709   9.911   0.405   3.505
99979SOL     OW 1710   0.537   1.284   2.977
99979SOL    HW1 1711   0.519   1.373   2.946
99979SOL    HW2 1712   0.497   1.281   3.064
99980SOL     OW 1713   9.558   3.215   3.193
99980SOL    HW1 1714   9.506   3.275   3.247
99980SOL    HW2 1715   9.493   3.162   3.147
99981SOL     OW 1716   3.868   7.507   6.105
99981SOL    HW1 1717   3.903   7.558   6.033
99981SOL    HW2 1718   3.865   7.568   6.179
99982SOL     OW 1719   8.023   3.038  11.697
99982SOL    HW1 1720   8.106   3.071  11.731
99982SOL    HW2 1721   7.970   3.023  11.775
99983SOL     OW 1722   4.084   6.170  14.265
99983SOL    HW1 1723   4.016   6.184  14.331
99983SOL    HW2 1724   4.163   6.209  14.304
99984SOL     OW 1725  11.349  14.810  10.448
99984SOL    HW1 1726  11.316  14.733  10.401
99984SOL    HW2 1727  11.325   0.002  10.393
99985SOL     OW 1728  14.572   3.483   4.287
99985SOL    HW1 1729  14.625   3.436   4.351
99985SOL    HW2 1730  14.636   3.525   4.229
99986SOL     OW 1731  14.190  11.421   8.450
99986SOL    HW1 1732  14.193  11.394   8.359
99986SOL    HW2 1733  14.259  11.488   8.457
99987SOL     OW 1734  12.004  12.790   8.228
99987SOL    HW1 1735  11.992  12.876   8.190
99987SOL    HW2 1736  12.026  12.807   8.320
99988SOL     OW 1737   2.188   2.890   1.263
99988SOL    HW1 1738   2.237   2.823   1.215
99988SOL    HW2 1739   2.202   2.869   1.355
99989SOL     OW 1740   6.033  13.915   0.673
99989SOL    HW1 1741   6.046  13.821   0.681
99989SOL    HW2 1742   5.948  13.931   0.715
99990SOL     OW 1743  14.745  14.599  12.109
99990SOL    HW1 1744  14.841  14.606  12.113
99990SOL    HW2 1745  14.726  14.574  12.019
99991SOL     OW 1746   4.146  12.137  10.736
99991SOL    HW1 1747   4.074  12.196  10.760
99991SOL    HW2 1748   4.132  12.118  10.643
99992SOL     OW 1749   8.299   6.005  13.435
99992SOL    HW1 1750   8.235   6.069  13.404
99992SOL    HW2 1751   8.295   5.934  13.371
99993SOL     OW 1752   8.727   2.087   5.564
99993SOL    HW1 1753   8.748   2.087   5.471
99993SOL    HW2 1754   8.782   2.018   5.601
99994SOL     OW 1755   3.468   2.191  13.107
99994SOL    HW1 1756   3.530   2.148  13.048
99994SOL    HW2 1757   3.495   2.164  13.194
99995SOL     OW 1758  10.392   6.217   2.649
99995SOL    HW1 1759  10.407   6.311   2.660
99995SOL    HW2 1760  10.304   6.212   2.611
99996SOL     OW 1761   7.686   7.068  12.885
99996SOL    HW1 1762   7.712   7.145  12.834
99996SOL    HW2 1763   7.619   7.101  12.945
99997SOL     OW 1764   8.348  10.428   4.702
99997SOL    HW1 1765   8.333  10.462   4.790
99997SOL    HW2 1766   8.434  10.387   4.707
99998SOL     OW 1767  12.558   9.922  14.222
99998SOL    HW1 1768  12.616   9.846  14.222
99998SOL    HW2 1769  12.616   9.996  14.239
99999SOL     OW 1770  10.718  10.631   2.853
99999SOL    HW1 1771  10.630  10.639   2.889
99999SOL    HW2 1772  10.776  10.637   2.929
    0SOL     OW 1773   2.697  13.871  14.305
    0SOL    HW1 1774   2.612  13.877  14.260
    0SOL    HW2 1775   2.720  13.778  14.301
    1SOL     OW 1776  10.970  11.928   8.072
    1SOL    HW1 1777  11.021  11.847   8.064
    1SOL    HW2 1778  10.887  11.901   8.111
    2SOL     OW 1779   5.754   4.102  12.618
    2SOL    HW1 1780   5.820   4.035  12.599
    2SOL    HW2 1781   5.712   4.119  12.534
    3SOL     OW 1782   3.495  11.419  10.531
    3SOL    HW1 1783   3.481  11.435  10.625
    3SOL    HW2 1784   3.411  11.383  10.501
    4SOL     OW 1785   8.917  12.714   4.952
    4SOL    HW1 1786   9.002  12.689   4.987
    4SOL    HW2 1787   8.936  12.787   4.893
    5SOL     OW 1788  10.626   4.953   4.038
    5SOL    HW1 1789  10.534   4.980   4.042
    5SOL    HW2 1790  10.623   4.857   4.037
    6SOL     OW 1791  12.408   0.784   1.496
    6SOL    HW1 1792  12.352   0.820   1.564
    6SOL    HW2 1793  12.461   0.858   1.466
    7SOL     OW 1794  11.758   5.853  12.130
    7SOL    HW1 1795  11.668   5.868  12.101
    7SOL    HW2 1796  11.782   5.770  12.089
    8SOL     OW 1797  12.156   7.678  12.604
    8SOL    HW1 1798  12.220   7.736  12.645
    8SOL    HW2 1799  12.193   7.659  12.517
    9SOL     OW 1800   0.607  13.247  12.425
    9SOL    HW1 1801   0.626  13.155  12.447
    9SOL    HW2 1802   0.692  13.291  12.430
   10SOL     OW 1803   3.772   6.296   3.309
   10SOL    HW1 1804   3.683   6.285   3.344
   10SOL    HW2 1805   3.775   6.386   3.278
   11SOL     OW 1806   5.707  12.030   2.303
   11SOL    HW1 1807   5.802  12.032   2.313
   11SOL    HW2 1808   5.675  12.102   2.357
   12SOL     OW 1809   9.164   2.735   1.185
   12SOL    HW1 1810   9.260   2.735   1.189
   12SOL    HW2 1811   9.139   2.647   1.215
   13SOL     OW 1812   1.444   8.755  14.673
   13SOL    HW1 1813   1.532   8.767  14.709
   13SOL    HW2 1814   1.396   8.834  14.700
   14SOL     OW 1815   7.141  12.111   0.346
   14SOL    HW1 1816   7.190  12.074   0.419
   14SOL    HW2 1817   7.053  12.124   0.380
   15SOL     OW 1818   5.724  11.973  14.827
   15SOL    HW1 1819   5.747  12.010  14.741
   15SOL    HW2 1820   5.760  12.036   0.008
   16SOL     OW 1821  12.415  13.335   8.365
   16SOL    HW1 1822  12.428  13.299   8.277
   16SOL    HW2 1823  12.500  13.372   8.388
   17SOL     OW 1824  13.656  11.953   7.867
   17SOL    HW1 1825  13.714  11.883   7.837
   17SOL    HW2 1826  13.688  11.976   7.954
   18SOL     OW 1827   4.741   4.719   5.723
   18SOL    HW1 1828   4.651   4.721   5.754
   18SOL    HW2 1829   4.739   4.661   5.646
   19SOL     OW 1830   7.921   3.040   2.242
   19SOL    HW1 1831   7.837   3.084   2.241
   19SOL    HW2 1832   7.906   2.958   2.195
   20SOL     OW 1833  12.727   1.100   6.664
   20SOL    HW1 1834  12.675   1.024   6.638
   20SOL    HW2 1835  12.703   1.116   6.755
   21SOL     OW 1836  10.491   4.279   9.846
   21SOL    HW1 1837  10.424   4.345   9.865
   21SOL    HW2 1838  10.516   4.245   9.932
   22SOL     OW 1839   5.393  14.401   4.956
   22SOL    HW1 1840   5.453  14.342   5.000
   22SOL    HW2 1841   5.448  14.452   4.896
   23SOL     OW 1842  11.424  12.818   1.009
   23SOL    HW1 1843  11.369  12.870   0.951
   23SOL    HW2 1844  11.514  12.840   0.984
   24SOL     OW 1845  11.570   0.659  14.713
   24SOL    HW1 1846  11.510   0.721  14.671
   24SOL    HW2 1847  11.635   0.715  14.756
   25SOL     OW 1848   1.465   0.843  10.683
   25SOL    HW1 1849   1.512   0.783  10.625
   25SOL    HW2 1850   1.450   0.921  10.629
   26SOL     OW 1851  10.529   3.577   6.214
   26SOL    HW1 1852  10.473   3.623   6.277
   26SOL    HW2 1853  10.518   3.484   6.236
   27SOL     OW 1854   6.822   1.651   8.887
   27SOL    HW1 1855   6.755   1.635   8.954
   27SOL    HW2 1856   6.902   1.615   8.925
   28SOL     OW 1857  14.291   9.204  12.828
   28SOL    HW1 1858  14.254   9.154  12.755
   28SOL    HW2 1859  14.386   9.199  12.815
   29SOL     OW 1860   3.294   9.587  14.322
   29SOL    HW1 1861   3.302   9.491  14.320
   29SOL    HW2 1862   3.383   9.618  14.339
   30SOL     OW 1863   2.156   5.513  13.845
   30SOL    HW1 1864   2.200   5.434  13.814
   30SOL    HW2 1865   2.197   5.533  13.929
   31SOL     OW 1866   3.955  13.284   9.875
   31SOL    HW1 1867   3.887  13.221   9.853
   31SOL    HW2 1868   3.946  13.298   9.969
   32SOL     OW 1869  12.612   5.643   8.894
   32SOL    HW1 1870  12.633   5.688   8.812
   32SOL    HW2 1871  12.596   5.714   8.957
   33SOL     OW 1872   1.826   2.732   4.211
   33SOL    HW1 1873   1.875   2.771   4.283
   33SOL    HW2 1874   1.755   2.683   4.254
   34SOL     OW 1875   6.972   9.809   1.373
   34SOL    HW1 1876   6.889   9.837   1.335
   34SOL    HW2 1877   7.012   9.889   1.407
   35SOL     OW 1878   0.491  13.562   0.753
   35SOL    HW1 1879   0.416  13.565   0.812
   35SOL    HW2 1880   0.534  13.479   0.772
   36SOL     OW 1881  13.272   8.431   8.551
   36SOL    HW1 1882  13.342   8.467   8.606
   36SOL    HW2 1883  13.317   8.404   8.471
   37SOL     OW 1884   0.853   1.973  11.740
   37SOL    HW1 1885   0.835   2.064  11.716
   37SOL    HW2 1886   0.791   1.954  11.810
   38SOL     OW 1887  12.955  13.535   5.535
   38SOL    HW1 1888  12.985  13.444   5.524
   38SOL    HW2 1889  12.884  13.529   5.599
   39SOL     OW 1890  13.080  13.462  14.065
   39SOL    HW1 1891  13.119  13.453  14.153
   39SOL    HW2 1892  13.019  13.388  14.058
   40SOL     OW 1893   6.811   1.791  10.034
   40SOL    HW1 1894   6.802   1.842   9.954
   40SOL    HW2 1895   6.747   1.830  10.094
   41SOL     OW 1896  12.780   9.579  12.955
   41SOL    HW1 1897  12.742   9.506  13.004
   41SOL    HW2 1898  12.762   9.558  12.863
   42SOL     OW 1899  10.046   1.301   7.938
   42SOL    HW1 1900   9.976   1.362   7.915
   42SOL    HW2 1901  10.058   1.312   8.032
   43SOL     OW 1902   6.012  10.528   4.217
   43SOL    HW1 1903   6.065  10.572   4.151
   43SOL    HW2 1904   6.042  10.437   4.215
   44SOL     OW 1905   2.454   1.790   5.195
   44SOL    HW1 1906   2.456   1.810   5.289
   44SOL    HW2 1907   2.459   1.875   5.152
   45SOL     OW 1908   3.169   3.493   3.773
   45SOL    HW1 1909   3.215   3.448   3.702
   45SOL    HW2 1910   3.237   3.507   3.840
   46SOL     OW 1911   1.897   7.108   3.194
   46SOL    HW1 1912   1.954   7.072   3.127
   46SOL    HW2 1913   1.810   7.106   3.155
   47SOL     OW 1914   6.110   6.893   5.518
   47SOL    HW1 1915   6.189   6.905   5.465
   47SOL    HW2 1916   6.135   6.924   5.605
   48SOL     OW 1917  13.647  14.104   8.720
   48SOL    HW1 1918  13.672  14.020   8.757
   48SOL    HW2 1919  13.552  14.098   8.708
   49SOL     OW 1920  14.815  12.261   8.731
   49SOL    HW1 1921   0.017  12.228   8.764
   49SOL    HW2 1922  14.775  12.303   8.806
   50SOL     OW 1923   7.934   1.795   1.467
   50SOL    HW1 1924   7.940   1.853   1.391
   50SOL    HW2 1925   7.840   1.781   1.479
   51SOL     OW 1926   1.335   0.503   0.331
   51SOL    HW1 1927   1.430   0.502   0.326
   51SOL    HW2 1928   1.313   0.428   0.386
   52SOL     OW 1929   9.771   2.877  14.181
   52SOL    HW1 1930   9.732   2.810  14.237
   52SOL    HW2 1931   9.702   2.898  14.118
   53SOL     OW 1932  13.986   9.744  10.315
   53SOL    HW1 1933  13.960   9.803  10.244
   53SOL    HW2 1934  13.906   9.696  10.337
   54SOL     OW 1935   6.848  10.871  13.386
   54SOL    HW1 1936   6.824  10.803  13.323
   54SOL    HW2 1937   6.766  10.917  13.403
   55SOL     OW 1938   4.618  12.284  12.738
   55SOL    HW1 1939   4.576  12.281  12.652
   55SOL    HW2 1940   4.611  12.375  12.764
   56SOL     OW 1941   2.080  11.012   5.074
   56SOL    HW1 1942   2.004  11.026   5.017
   56SOL    HW2 1943   2.089  11.094   5.122
   57SOL     OW 1944   8.212  14.321   2.163
   57SOL    HW1 1945   8.129  14.314   2.116
   57SOL    HW2 1946   8.261  14.243   2.136
   58SOL     OW 1947   9.663   6.446   2.274
   58SOL    HW1 1948   9.603   6.376   2.249
   58SOL    HW2 1949   9.614   6.526   2.258
   59SOL     OW 1950   0.377   3.987  13.804
   59SOL    HW1 1951   0.394   4.072  13.845
   59SOL    HW2 1952   0.373   3.925  13.877
   60SOL     OW 1953  11.088   7.115  13.438
   60SOL    HW1 1954  11.058   7.147  13.352
   60SOL    HW2 1955  11.179   7.089  13.423
   61SOL     OW 1956  11.432   0.769  10.061
   61SOL    HW1 1957  11.402   0.845  10.011
   61SOL    HW2 1958  11.434   0.697   9.997
   62SOL     OW 1959  11.557   1.028  14.524
   62SOL    HW1 1960  11.493   0.968  14.563
   62SOL    HW2 1961  11.639   0.980  14.525
   63SOL     OW 1962   9.650   2.443  13.388
   63SOL    HW1 1963   9.568   2.491  13.401
   63SOL    HW2 1964   9.707   2.476  13.458
   64SOL     OW 1965   9.879  12.340  10.367
   64SOL    HW1 1966   9.857  12.402  10.436
   64SOL    HW2 1967   9.973  12.327  10.375
   65SOL     OW 1968   9.153   5.380   2.013
   65SOL    HW1 1969   9.094   5.410   1.944
   65SOL    HW2 1970   9.132   5.435   2.088
   66SOL     OW 1971  12.914   5.845   9.790
   66SOL    HW1 1972  12.943   5.756   9.813
   66SOL    HW2 1973  12.942   5.899   9.864
   67SOL     OW 1974   4.788   0.499   4.160
   67SOL    HW1 1975   4.795   0.563   4.231
   67SOL    HW2 1976   4.705   0.454   4.176
   68SOL     OW 1977   1.791   0.036   9.816
   68SOL    HW1 1978   1.721  14.852   9.814
   68SOL    HW2 1979   1.772   0.093   9.742
   69SOL     OW 1980  10.369  10.469  10.639
   69SOL    HW1 1981  10.381  10.485  10.733
   69SOL    HW2 1982  10.303  10.400  10.634
   70SOL     OW 1983   6.121   4.463   3.490
   70SOL    HW1 1984   6.135   4.556   3.509
   70SOL    HW2 1985   6.113   4.422   3.576
   71SOL     OW 1986  12.236  13.161  12.841
   71SOL    HW1 1987  12.279  13.127  12.762
   71SOL    HW2 1988  12.177  13.228  12.809
   72SOL     OW 1989  11.477  10.618  14.682
   72SOL    HW1 1990  11.461  10.614  14.587
   72SOL    HW2 1991  11.544  10.685  14.692
   73SOL     OW 1992   8.555   4.271  12.215
   73SOL    HW1 1993   8.509   4.302  12.293
   73SOL    HW2 1994   8.519   4.323  12.143
   74SOL     OW 1995  14.352   4.520   2.482
   74SOL    HW1 1996  14.442   4.521   2.449
   74SOL    HW2 1997  14.360   4.537   2.575
   75SOL     OW 1998  10.818  13.760  12.208
   75SOL    HW1 1999  10.910  13.787  12.213
   75SOL    HW2 2000  10.818  13.672  12.246
   76SOL     OW 2001   5.176   8.948   4.570
   76SOL    HW1 2002   5.188   8.862   4.609
   76SOL    HW2 2003   5.146   8.930   4.481
   77SOL     OW 2004   0.170   9.291   8.383
   77SOL    HW1 2005   0.158   9.197   8.380
   77SOL    HW2 2006   0.105   9.321   8.447
   78SOL     OW 2007   4.302   8.429  13.168
   78SOL    HW1 2008   4.270   8.469  13.249
   78SOL    HW2 2009   4.357   8.357  13.196
   79SOL     OW 2010  11.891   5.624   4.723
   79SOL    HW1 2011  11.898   5.539   4.679
   79SOL    HW2 2012  11.969   5.672   4.694
   80SOL     OW 2013   0.866   9.741   4.214
   80SOL    HW1 2014   0.880   9.657   4.170
   80SOL    HW2 2015   0.850   9.803   4.143
   81SOL     OW 2016   3.955  12.317  10.824
   81SOL    HW1 2017   3.950  12.300  10.918
   81SOL    HW2 2018   3.907  12.398  10.810
   82SOL     OW 2019  11.804   8.717   1.134
   82SOL    HW1 2020  11.813   8.800   1.086
   82SOL    HW2 2021  11.712   8.714   1.159
   83SOL     OW 2022  12.565  10.521   1.530
   83SOL    HW1 2023  12.552  10.604   1.483
   83SOL    HW2 2024  12.656  10.497   1.510
   84SOL     OW 2025   3.423  12.838  11.737
   84SOL    HW1 2026   3.349  12.837  11.798
   84SOL    HW2 2027   3.498  12.811  11.790
   85SOL     OW 2028   4.760   6.303   6.687
   85SOL    HW1 2029   4.807   6.382   6.713
   85SOL    HW2 2030   4.799   6.279   6.603
   86SOL     OW 2031  11.878   4.063   0.466
   86SOL    HW1 2032  11.833   4.006   0.403
   86SOL    HW2 2033  11.953   4.098   0.418
   87SOL     OW 2034   9.525   9.020   3.498
   87SOL    HW1 2035   9.447   8.964   3.505
   87SOL    HW2 2036   9.527   9.069   3.580
   88SOL     OW 2037   6.151  10.818   0.787
   88SOL    HW1 2038   6.100  10.738   0.775
   88SOL    HW2 2039   6.241  10.787   0.795
   89SOL     OW 2040  14.082   7.037   9.441
   89SOL    HW1 2041  14.162   7.036   9.390
   89SOL    HW2 2042  14.013   7.012   9.379
   90SOL     OW 2043   7.138   5.400   7.061
   90SOL    HW1 2044   7.153   5.436   6.973
   90SOL    HW2 2045   7.118   5.475   7.115
   91SOL     OW 2046  14.195  12.690   3.255
   91SOL    HW1 2047  14.239  12.749   3.317
   91SOL    HW2 2048  14.175  12.612   3.306
   92SOL     OW 2049   2.517   3.922   2.865
   92SOL    HW1 2050   2.500   3.981   2.792
   92SOL    HW2 2051   2.607   3.893   2.852
   93SOL     OW 2052   5.405   4.461   8.537
   93SOL    HW1 2053   5.389   4.406   8.613
   93SOL    HW2 2054   5.370   4.411   8.463
   94SOL     OW 2055   8.128   9.976  10.266
   94SOL    HW1 2056   8.215   9.963  10.303
   94SOL    HW2 2057   8.078  10.017  10.337
   95SOL     OW 2058  12.441   4.573   0.975
   95SOL    HW1 2059  12.350   4.602   0.971
   95SOL    HW2 2060  12.482   4.632   1.038
   96SOL     OW 2061   6.896   6.492  11.354
   96SOL    HW1 2062   6.972   6.459  11.402
   96SOL    HW2 2063   6.870   6.570  11.401
   97SOL     OW 2064  14.586   6.197   3.193
   97SOL    HW1 2065  14.607   6.277   3.241
   97SOL    HW2 2066  14.491   6.203   3.178
   98SOL     OW 2067   7.639   9.559  11.980
   98SOL    HW1 2068   7.572   9.613  11.939
   98SOL    HW2 2069   7.705   9.547  11.913
   99SOL     OW 2070   2.769   2.947   3.458
   99SOL    HW1 2071   2.713   2.914   3.529
   99SOL    HW2 2072   2.858   2.927   3.487
  100SOL     OW 2073  14.193   9.610   5.194
  100SOL    HW1 2074  14.128   9.549   5.159
  100SOL    HW2 2075  14.271   9.597   5.138
  101SOL     OW 2076  11.988   8.038   5.154
  101SOL    HW1 2077  11.979   7.997   5.240
  101SOL    HW2 2078  12.065   7.997   5.115
  102SOL     OW 2079   1.268   0.569   3.482
  102SOL    HW1 2080   1.230   0.573   3.569
  102SOL    HW2 2081   1.361   0.586   3.495
  103SOL     OW 2082   3.679  11.962  11.165
  103SOL    HW1 2083   3.681  12.015  11.085
  103SOL    HW2 2084   3.771  11.952  11.190
  104SOL     OW 2085  10.012   6.384  10.922
  104SOL    HW1 2086  10.015   6.399  10.827
  104SOL    HW2 2087   9.925   6.348  10.938
  105SOL     OW 2088   1.783  12.789  10.059
  105SOL    HW1 2089   1.789  12.854   9.989
  105SOL    HW2 2090   1.829  12.713  10.025
  106SOL     OW 2091  13.506   6.536   0.853
  106SOL    HW1 2092  13.461   6.490   0.923
  106SOL    HW2 2093  13.599   6.521   0.870
  107SOL     OW 2094   0.869   7.523   5.672
  107SOL    HW1 2095   0.876   7.484   5.759
  107SOL    HW2 2096   0.778   7.509   5.646
  108SOL     OW 2097   3.950   6.962   2.357
  108SOL    HW1 2098   3.864   6.965   2.400
  108SOL    HW2 2099   3.996   6.889   2.401
  109SOL     OW 2100   5.600   3.489  13.229
  109SOL    HW1 2101   5.504   3.496  13.230
  109SOL    HW2 2102   5.616   3.395  13.216
  110SOL     OW 2103   4.012   1.084  12.578
  110SOL    HW1 2104   4.034   0.992  12.595
  110SOL    HW2 2105   3.944   1.105  12.642
  111SOL     OW 2106   8.971   8.022   3.472
  111SOL    HW1 2107   9.014   7.960   3.413
  111SOL    HW2 2108   8.879   7.996   3.472
  112SOL     OW 2109   7.785   9.923  13.703
  112SOL    HW1 2110   7.773   9.909  13.609
  112SOL    HW2 2111   7.699   9.951  13.734
  113SOL     OW 2112   3.453   2.826  12.239
  113SOL    HW1 2113   3.418   2.913  12.258
  113SOL    HW2 2114   3.433   2.812  12.147
  114SOL     OW 2115   6.836  10.775  11.698
  114SOL    HW1 2116   6.862  10.705  11.758
  114SOL    HW2 2117   6.786  10.731  11.630
  115SOL     OW 2118   9.026  14.276   4.979
  115SOL    HW1 2119   8.974  14.285   4.900
  115SOL    HW2 2120   8.975  14.321   5.047
  116SOL     OW 2121  12.273  14.753   3.695
  116SOL    HW1 2122  12.334  14.789   3.631
  116SOL    HW2 2123  12.251  14.666   3.660
  117SOL     OW 2124   8.412   5.448   1.881
  117SOL    HW1 2125   8.328   5.434   1.924
  117SOL    HW2 2126   8.456   5.516   1.932
  118SOL     OW 2127   6.001   3.025   8.462
  118SOL    HW1 2128   5.991   2.967   8.386
  118SOL    HW2 2129   6.090   3.011   8.492
  119SOL     OW 2130  11.377   8.605   6.679
  119SOL    HW1 2131  11.417   8.525   6.648
  119SOL    HW2 2132  11.283   8.586   6.683
  120SOL     OW 2133   1.276   6.448   0.662
  120SOL    HW1 2134   1.224   6.460   0.583
  120SOL    HW2 2135   1.350   6.395   0.634
  121SOL     OW 2136   9.234   4.910   0.752
  121SOL    HW1 2137   9.303   4.944   0.810
  121SOL    HW2 2138   9.262   4.821   0.732
  122SOL     OW 2139  10.667   4.183  14.329
  122SOL    HW1 2140  10.613   4.105  14.340
  122SOL    HW2 2141  10.677   4.193  14.235
  123SOL     OW 2142   1.830  12.240   8.279
  123SOL    HW1 2143   1.799  12.186   8.352
  123SOL    HW2 2144   1.774  12.216   8.205
  124SOL     OW 2145  14.854  12.389   8.995
  124SOL    HW1 2146   0.061  12.380   8.960
  124SOL    HW2 2147  14.863  12.375   9.089
  125SOL     OW 2148  10.853   9.184   0.623
  125SOL    HW1 2149  10.850   9.280   0.624
  125SOL    HW2 2150  10.920   9.163   0.558
  126SOL     OW 2151  10.392   0.390   6.883
  126SOL    HW1 2152  10.474   0.340   6.879
  126SOL    HW2 2153  10.324   0.324   6.898
  127SOL     OW 2154   8.913  14.371   2.416
  127SOL    HW1 2155   8.976  14.396   2.349
  127SOL    HW2 2156   8.966  14.345   2.491
  128SOL     OW 2157   0.735   4.361  12.317
  128SOL    HW1 2158   0.779   4.346  12.233
  128SOL    HW2 2159   0.807   4.363  12.380
  129SOL     OW 2160   7.710   6.005   1.867
  129SOL    HW1 2161   7.737   6.002   1.958
  129SOL    HW2 2162   7.687   5.915   1.845
  130SOL     OW 2163  13.822   4.578   6.133
  130SOL    HW1 2164  13.773   4.658   6.120
  130SOL    HW2 2165  13.844   4.577   6.226
  131SOL     OW 2166   0.447  14.573   1.427
  131SOL    HW1 2167   0.356  14.547   1.416
  131SOL    HW2 2168   0.493  14.533   1.353
  132SOL     OW 2169  10.480   3.136   0.688
  132SOL    HW1 2170  10.571   3.121   0.715
  132SOL    HW2 2171  10.472   3.231   0.683
  133SOL     OW 2172   5.643   1.360   0.069
  133SOL    HW1 2173   5.661   1.267   0.058
  133SOL    HW2 2174   5.557   1.363   0.111
  134SOL     OW 2175   5.435   1.714   1.350
  134SOL    HW1 2176   5.447   1.780   1.418
  134SOL    HW2 2177   5.524   1.684   1.329
  135SOL     OW 2178   2.660  10.205   7.360
  135SOL    HW1 2179   2.575  10.163   7.370
  135SOL    HW2 2180   2.641  10.287   7.314
  136SOL     OW 2181   4.025   1.411   0.476
  136SOL    HW1 2182   4.004   1.328   0.433
  136SOL    HW2 2183   4.041   1.472   0.404
  137SOL     OW 2184   2.681   2.615   4.756
  137SOL    HW1 2185   2.735   2.536   4.762
  137SOL    HW2 2186   2.741   2.682   4.724
  138SOL     OW 2187  12.112   6.511   9.879
  138SOL    HW1 2188  12.203   6.542   9.882
  138SOL    HW2 2189  12.097   6.492   9.786
  139SOL     OW 2190  13.099   0.641  11.768
  139SOL    HW1 2191  13.189   0.608  11.773
  139SOL    HW2 2192  13.103   0.713  11.705
  140SOL     OW 2193  10.564   4.596  11.427
  140SOL    HW1 2194  10.532   4.672  11.379
  140SOL    HW2 2195  10.608   4.542  11.361
  141SOL     OW 2196   4.621   1.650   1.534
  141SOL    HW1 2197   4.701   1.636   1.482
  141SOL    HW2 2198   4.558   1.685   1.472
  142SOL     OW 2199   5.691  14.411   4.337
  142SOL    HW1 2200   5.739  14.332   4.364
  142SOL    HW2 2201   5.758  14.469   4.303
  143SOL     OW 2202  14.251   8.420   0.894
  143SOL    HW1 2203  14.203   8.484   0.945
  143SOL    HW2 2204  14.306   8.472   0.835
  144SOL     OW 2205   5.858   6.507   3.534
  144SOL    HW1 2206   5.816   6.436   3.487
  144SOL    HW2 2207   5.871   6.473   3.623
  145SOL     OW 2208   4.100   6.273   5.272
  145SOL    HW1 2209   4.066   6.185   5.259
  145SOL    HW2 2210   4.132   6.274   5.362
  146SOL     OW 2211   1.706  14.631  10.690
  146SOL    HW1 2212   1.768  14.572  10.648
  146SOL    HW2 2213   1.752  14.663  10.768
  147SOL     OW 2214   5.160   5.627   3.771
  147SOL    HW1 2215   5.074   5.629   3.728
  147SOL    HW2 2216   5.223   5.626   3.698
  148SOL     OW 2217   3.572   9.210  12.774
  148SOL    HW1 2218   3.580   9.303  12.753
  148SOL    HW2 2219   3.635   9.167  12.715
  149SOL     OW 2220  12.768   7.776  13.494
  149SOL    HW1 2221  12.798   7.712  13.559
  149SOL    HW2 2222  12.731   7.724  13.424
  150SOL     OW 2223   6.418  14.123  12.620
  150SOL    HW1 2224   6.375  14.039  12.601
  150SOL    HW2 2225   6.428  14.164  12.534
  151SOL     OW 2226   0.208   9.658   5.364
  151SOL    HW1 2227   0.298   9.656   5.397
  151SOL    HW2 2228   0.212   9.717   5.289
  152SOL     OW 2229   9.760   1.901   9.763
  152SOL    HW1 2230   9.723   1.856   9.839
  152SOL    HW2 2231   9.848   1.928   9.791
  153SOL     OW 2232   2.907  14.003   5.833
  153SOL    HW1 2233   2.815  14.008   5.858
  153SOL    HW2 2234   2.918  14.074   5.769
  154SOL     OW 2235   1.200   6.225   4.135
  154SOL    HW1 2236   1.127   6.250   4.191
  154SOL    HW2 2237   1.211   6.131   4.148
  155SOL     OW 2238   3.765   3.920   9.050
  155SOL    HW1 2239   3.820   3.915   8.971
  155SOL    HW2 2240   3.791   3.844   9.102
  156SOL     OW 2241   1.507  10.038   8.850
  156SOL    HW1 2242   1.459  10.015   8.771
  156SOL    HW2 2243   1.499   9.960   8.906
  157SOL     OW 2244   3.809   4.502  11.323
  157SOL    HW1 2245   3.892   4.501  11.369
  157SOL    HW2 2246   3.764   4.423  11.351
  158SOL     OW 2247   0.145  12.628  14.571
  158SOL    HW1 2248   0.092  12.703  14.596
  158SOL    HW2 2249   0.085  12.553  14.577
  159SOL     OW 2250   0.373  10.213  14.004
  159SOL    HW1 2251   0.390  10.139  14.063
  159SOL    HW2 2252   0.299  10.185  13.951
  160SOL     OW 2253  14.676   5.637  10.429
  160SOL    HW1 2254  14.721   5.714  10.395
  160SOL    HW2 2255  14.742   5.592  10.482
  161SOL     OW 2256  14.828   2.559   2.867
  161SOL    HW1 2257  14.736   2.583   2.863
  161SOL    HW2 2258  14.835   2.503   2.944
  162SOL     OW 2259   1.924   0.349   6.658
  162SOL    HW1 2260   1.884   0.429   6.692
  162SOL    HW2 2261   1.967   0.376   6.577
  163SOL     OW 2262   3.164   9.563   5.766
  163SOL    HW1 2263   3.095   9.498   5.778
  163SOL    HW2 2264   3.205   9.540   5.682
  164SOL     OW 2265  14.038  10.087  11.661
  164SOL    HW1 2266  13.945  10.065  11.655
  164SOL    HW2 2267  14.082  10.003  11.674
  165SOL     OW 2268   0.507   9.083   3.896
  165SOL    HW1 2269   0.598   9.057   3.882
  165SOL    HW2 2270   0.483   9.131   3.817
  166SOL     OW 2271  12.268   0.452   9.065
  166SOL    HW1 2272  12.200   0.438   9.130
  166SOL    HW2 2273  12.285   0.547   9.067
  167SOL     OW 2274   3.799   1.596   4.676
  167SOL    HW1 2275   3.804   1.523   4.737
  167SOL    HW2 2276   3.771   1.557   4.593
  168SOL     OW 2277   7.513  14.799   8.120
  168SOL    HW1 2278   7.545  14.849   8.195
  168SOL    HW2 2279   7.438  14.850   8.088
  169SOL     OW 2280  13.091  14.449   4.290
  169SOL    HW1 2281  13.049  14.533   4.274
  169SOL    HW2 2282  13.185  14.467   4.286
  170SOL     OW 2283   9.007   9.834   8.454
  170SOL    HW1 2284   8.991   9.803   8.365
  170SOL    HW2 2285   9.100   9.857   8.455
  171SOL     OW 2286   5.674   7.825   6.188
  171SOL    HW1 2287   5.705   7.904   6.231
  171SOL    HW2 2288   5.709   7.831   6.099
  172SOL     OW 2289   1.336  14.743   2.912
  172SOL    HW1 2290   1.426  14.762   2.938
  172SOL    HW2 2291   1.313  14.814   2.852
  173SOL     OW 2292  11.634  14.797   5.254
  173SOL    HW1 2293  11.629  14.728   5.321
  173SOL    HW2 2294  11.603  14.875   5.298
  174SOL     OW 2295  14.519   8.275   7.631
  174SOL    HW1 2296  14.613   8.280   7.616
  174SOL    HW2 2297  14.481   8.256   7.545
  175SOL     OW 2298   9.025   0.119   6.982
  175SOL    HW1 2299   9.087   0.084   7.046
  175SOL    HW2 2300   8.964   0.171   7.035
  176SOL     OW 2301   9.315  11.338  14.529
  176SOL    HW1 2302   9.354  11.377  14.608
  176SOL    HW2 2303   9.278  11.413  14.481
  177SOL     OW 2304   8.855   1.069  10.169
  177SOL    HW1 2305   8.934   1.016  10.186
  177SOL    HW2 2306   8.849   1.127  10.244
  178SOL     OW 2307  13.376   5.174   2.497
  178SOL    HW1 2308  13.323   5.251   2.477
  178SOL    HW2 2309  13.317   5.117   2.547
  179SOL     OW 2310  10.585  10.724   3.997
  179SOL    HW1 2311  10.645  10.737   4.070
  179SOL    HW2 2312  10.511  10.676   4.034
  180SOL     OW 2313   5.593   2.033   5.598
  180SOL    HW1 2314   5.624   2.122   5.579
  180SOL    HW2 2315   5.670   1.988   5.633
  181SOL     OW 2316   7.391   2.060   3.819
  181SOL    HW1 2317   7.410   2.124   3.751
  181SOL    HW2 2318   7.381   2.112   3.899
  182SOL     OW 2319   4.490  12.516  12.346
  182SOL    HW1 2320   4.515  12.491  12.257
  182SOL    HW2 2321   4.461  12.607  12.338
  183SOL     OW 2322  11.548   6.768   5.319
  183SOL    HW1 2323  11.642   6.773   5.338
  183SOL    HW2 2324  11.523   6.858   5.298
  184SOL     OW 2325   6.814   0.162  13.741
  184SOL    HW1 2326   6.850   0.138  13.656
  184SOL    HW2 2327   6.763   0.086  13.768
  185SOL     OW 2328   1.870   8.058   3.213
  185SOL    HW1 2329   1.936   8.127   3.205
  185SOL    HW2 2330   1.787   8.104   3.200
  186SOL     OW 2331   8.249  10.926   8.981
  186SOL    HW1 2332   8.209  10.853   9.028
  186SOL    HW2 2333   8.200  11.003   9.010
  187SOL     OW 2334   5.379   7.530   8.398
  187SOL    HW1 2335   5.469   7.506   8.375
  187SOL    HW2 2336   5.389   7.609   8.451
  188SOL     OW 2337  11.200   7.104   8.674
  188SOL    HW1 2338  11.207   7.021   8.721
  188SOL    HW2 2339  11.241   7.088   8.589
  189SOL     OW 2340   6.387   8.768   6.713
  189SOL    HW1 2341   6.308   8.820   6.696
  189SOL    HW2 2342   6.455   8.810   6.660
  190SOL     OW 2343  13.610  10.022   8.140
  190SOL    HW1 2344  13.701  10.022   8.111
  190SOL    HW2 2345  13.581   9.931   8.130
  191SOL     OW 2346   4.864   8.558   8.192
  191SOL    HW1 2347   4.769   8.548   8.181
  191SOL    HW2 2348   4.901   8.516   8.114
  192SOL     OW 2349  10.079   9.289   8.148
  192SOL    HW1 2350  10.160   9.323   8.112
  192SOL    HW2 2351  10.038   9.242   8.075
  193SOL     OW 2352  13.902   8.543   2.547
  193SOL    HW1 2353  13.927   8.626   2.507
  193SOL    HW2 2354  13.984   8.494   2.555
  194SOL     OW 2355  14.272   9.726   3.128
  194SOL    HW1 2356  14.278   9.706   3.221
  194SOL    HW2 2357  14.284   9.642   3.084
  195SOL     OW 2358  12.100   9.808   2.456
  195SOL    HW1 2359  12.064   9.733   2.407
  195SOL    HW2 2360  12.195   9.796   2.451
  196SOL     OW 2361   2.753  10.531   0.116
  196SOL    HW1 2362   2.700  10.555   0.191
  196SOL    HW2 2363   2.730  10.440   0.097
  197SOL     OW 2364   6.011   7.966   1.927
  197SOL    HW1 2365   6.029   7.999   2.015
  197SOL    HW2 2366   6.015   8.044   1.871
  198SOL     OW 2367  11.969   5.125   1.442
  198SOL    HW1 2368  11.965   5.029   1.445
  198SOL    HW2 2369  11.877   5.152   1.435
  199SOL     OW 2370  14.229   7.642   1.431
  199SOL    HW1 2371  14.201   7.682   1.513
  199SOL    HW2 2372  14.240   7.716   1.371
  200SOL     OW 2373   2.124   8.483  11.292
  200SOL    HW1 2374   2.087   8.571  11.292
  200SOL    HW2 2375   2.215   8.495  11.318
  201SOL     OW 2376  13.614  14.300  13.378
  201SOL    HW1 2377  13.630  14.322  13.286
  201SOL    HW2 2378  13.697  14.261  13.407
  202SOL     OW 2379   6.169  11.808   9.684
  202SOL    HW1 2380   6.144  11.892   9.721
  202SOL    HW2 2381   6.090  11.774   9.643
  203SOL     OW 2382   1.256   2.738  11.755
  203SOL    HW1 2383   1.197   2.797  11.802
  203SOL    HW2 2384   1.264   2.662  11.813
  204SOL     OW 2385   4.918   3.742   4.182
  204SOL    HW1 2386   4.966   3.690   4.247
  204SOL    HW2 2387   4.978   3.747   4.107
  205SOL     OW 2388   6.844  10.229   0.021
  205SOL    HW1 2389   6.895  10.177  14.840
  205SOL    HW2 2390   6.769  10.174   0.043
  206SOL     OW 2391   9.689  13.275   0.208
  206SOL    HW1 2392   9.744  13.351   0.226
  206SOL    HW2 2393   9.718  13.210   0.272
  207SOL     OW 2394  13.890  14.705  14.783
  207SOL    HW1 2395  13.879  14.698  14.689
  207SOL    HW2 2396  13.805  14.735  14.815
  208SOL     OW 2397   7.138   5.004   7.131
  208SOL    HW1 2398   7.142   5.063   7.055
  208SOL    HW2 2399   7.189   4.928   7.103
  209SOL     OW 2400   1.870   5.003  10.261
  209SOL    HW1 2401   1.915   4.954  10.330
  209SOL    HW2 2402   1.916   5.087  10.257
  210SOL     OW 2403   7.145  11.125   9.192
  210SOL    HW1 2404   7.176  11.177   9.266
  210SOL    HW2 2405   7.061  11.165   9.169
  211SOL     OW 2406   1.818  10.482   9.206
  211SOL    HW1 2407   1.727  10.494   9.232
  211SOL    HW2 2408   1.824  10.391   9.179
  212SOL     OW 2409  13.044   9.916  13.262
  212SOL    HW1 2410  13.035  10.004  13.223
  212SOL    HW2 2411  13.057   9.858  13.187
  213SOL     OW 2412   1.491   1.859   8.212
  213SOL    HW1 2413   1.517   1.919   8.282
  213SOL    HW2 2414   1.569   1.852   8.156
  214SOL     OW 2415   6.198  13.093  13.461
  214SOL    HW1 2416   6.158  13.122  13.379
  214SOL    HW2 2417   6.292  13.085  13.441
  215SOL     OW 2418   2.556   4.328   4.021
  215SOL    HW1 2419   2.557   4.294   4.111
  215SOL    HW2 2420   2.467   4.360   4.009
  216SOL     OW 2421   5.386   9.926  10.235
  216SOL    HW1 2422   5.389   9.848  10.179
  216SOL    HW2 2423   5.402   9.893  10.323
  217SOL     OW 2424  10.966   9.635   1.581
  217SOL    HW1 2425  11.036   9.691   1.550
  217SOL    HW2 2426  10.998   9.546   1.566
  218SOL     OW 2427   5.864  11.520  11.228
  218SOL    HW1 2428   5.901  11.468  11.157
  218SOL    HW2 2429   5.860  11.609  11.193
  219SOL     OW 2430   7.138   9.217   6.819
  219SOL    HW1 2431   7.203   9.262   6.873
  219SOL    HW2 2432   7.172   9.128   6.810
  220SOL     OW 2433   1.480   3.194   5.680
  220SOL    HW1 2434   1.425   3.127   5.720
  220SOL    HW2 2435   1.421   3.241   5.621
  221SOL     OW 2436   7.314   6.570   6.050
  221SOL    HW1 2437   7.260   6.492   6.055
  221SOL    HW2 2438   7.337   6.590   6.140
  222SOL     OW 2439   0.005  10.757   5.835
  222SOL    HW1 2440   0.086  10.758   5.784
  222SOL    HW2 2441  14.856  10.666   5.831
  223SOL     OW 2442  10.355   1.469   7.701
  223SOL    HW1 2443  10.321   1.384   7.673
  223SOL    HW2 2444  10.428   1.447   7.759
  224SOL     OW 2445   4.143   8.392   9.487
  224SOL    HW1 2446   4.180   8.372   9.573
  224SOL    HW2 2447   4.220   8.395   9.429
  225SOL     OW 2448   1.523   2.317  11.210
  225SOL    HW1 2449   1.525   2.241  11.269
  225SOL    HW2 2450   1.605   2.310  11.160
  226SOL     OW 2451   5.333   7.860   4.767
  226SOL    HW1 2452   5.244   7.893   4.752
  226SOL    HW2 2453   5.389   7.937   4.757
  227SOL     OW 2454   7.446   3.151   5.880
  227SOL    HW1 2455   7.506   3.076   5.878
  227SOL    HW2 2456   7.378   3.130   5.816
  228SOL     OW 2457  14.517   2.523   4.112
  228SOL    HW1 2458  14.427   2.556   4.109
  228SOL    HW2 2459  14.572   2.602   4.113
  229SOL     OW 2460  10.235  13.239  14.633
  229SOL    HW1 2461  10.270  13.153  14.657
  229SOL    HW2 2462  10.143  13.235  14.660
  230SOL     OW 2463   9.392   3.851   9.281
  230SOL    HW1 2464   9.356   3.807   9.358
  230SOL    HW2 2465   9.486   3.858   9.299
  231SOL     OW 2466   8.346  11.919   9.647
  231SOL    HW1 2467   8.307  11.851   9.702
  231SOL    HW2 2468   8.293  11.920   9.568
  232SOL     OW 2469  10.676  11.664   4.353
  232SOL    HW1 2470  10.669  11.591   4.292
  232SOL    HW2 2471  10.634  11.737   4.308
  233SOL     OW 2472   2.911  14.847  13.188
  233SOL    HW1 2473   2.870  14.773  13.143
  233SOL    HW2 2474   2.923   0.031  13.120
  234SOL     OW 2475   4.812   1.804   4.546
  234SOL    HW1 2476   4.869   1.833   4.617
  234SOL    HW2 2477   4.733   1.858   4.556
  235SOL     OW 2478   9.954   2.659   3.492
  235SOL    HW1 2479   9.957   2.710   3.573
  235SOL    HW2 2480  10.041   2.619   3.487
  236SOL     OW 2481   2.529   2.208   6.019
  236SOL    HW1 2482   2.488   2.141   6.074
  236SOL    HW2 2483   2.562   2.273   6.082
  237SOL     OW 2484   2.424   8.738   8.026
  237SOL    HW1 2485   2.493   8.683   8.063
  237SOL    HW2 2486   2.413   8.808   8.090
  238SOL     OW 2487   7.510   9.311   0.547
  238SOL    HW1 2488   7.445   9.247   0.576
  238SOL    HW2 2489   7.591   9.284   0.590
  239SOL     OW 2490  13.986   2.060   3.950
  239SOL    HW1 2491  14.010   1.996   3.883
  239SOL    HW2 2492  13.911   2.021   3.995
  240SOL     OW 2493  11.362   5.624  12.983
  240SOL    HW1 2494  11.324   5.702  13.022
  240SOL    HW2 2495  11.299   5.597  12.916
  241SOL     OW 2496  14.365   2.974   1.364
  241SOL    HW1 2497  14.298   2.963   1.432
  241SOL    HW2 2498  14.414   2.892   1.367
  242SOL     OW 2499   2.001   0.650   5.718
  242SOL    HW1 2500   2.019   0.709   5.791
  242SOL    HW2 2501   2.069   0.584   5.723
  243SOL     OW 2502   1.527  10.475  11.120
  243SOL    HW1 2503   1.527  10.379  11.115
  243SOL    HW2 2504   1.577  10.495  11.199
  244SOL     OW 2505   0.422   2.744  11.727
  244SOL    HW1 2506   0.352   2.802  11.696
  244SOL    HW2 2507   0.383   2.656  11.725
  245SOL     OW 2508  12.120   7.664   6.229
  245SOL    HW1 2509  12.036   7.648   6.184
  245SOL    HW2 2510  12.095   7.692   6.317
  246SOL     OW 2511   7.766   8.554   4.507
  246SOL    HW1 2512   7.820   8.585   4.434
  246SOL    HW2 2513   7.676   8.567   4.478
  247SOL     OW 2514   6.683   2.377   4.146
  247SOL    HW1 2515   6.594   2.389   4.112
  247SOL    HW2 2516   6.694   2.449   4.209
  248SOL     OW 2517   3.128   4.380   7.659
  248SOL    HW1 2518   3.137   4.292   7.623
  248SOL    HW2 2519   3.217   4.415   7.657
  249SOL     OW 2520   7.932   9.028   6.387
  249SOL    HW1 2521   7.998   9.094   6.405
  249SOL    HW2 2522   7.979   8.958   6.341
  250SOL     OW 2523   0.384   0.961   1.917
  250SOL    HW1 2524   0.305   0.927   1.874
  250SOL    HW2 2525   0.429   1.011   1.849
  251SOL     OW 2526   2.732   6.384  12.629
  251SOL    HW1 2527   2.782   6.415  12.553
  251SOL    HW2 2528   2.661   6.447  12.639
  252SOL     OW 2529   7.634  14.021   5.051
  252SOL    HW1 2530   7.555  13.976   5.081
  252SOL    HW2 2531   7.609  14.114   5.051
  253SOL     OW 2532   6.712   0.617   4.022
  253SOL    HW1 2533   6.648   0.557   3.983
  253SOL    HW2 2534   6.708   0.694   3.965
  254SOL     OW 2535   2.618   0.224   3.616
  254SOL    HW1 2536   2.662   0.302   3.652
  254SOL    HW2 2537   2.668   0.204   3.537
  255SOL     OW 2538   0.980   9.630   5.194
  255SOL    HW1 2539   0.983   9.566   5.123
  255SOL    HW2 2540   0.887   9.649   5.205
  256SOL     OW 2541  11.729  12.328   4.271
  256SOL    HW1 2542  11.800  12.353   4.212
  256SOL    HW2 2543  11.651  12.370   4.235
  257SOL     OW 2544  14.515   7.838  12.797
  257SOL    HW1 2545  14.606   7.841  12.768
  257SOL    HW2 2546  14.482   7.927  12.785
  258SOL     OW 2547   8.739   7.681  13.384
  258SOL    HW1 2548   8.715   7.768  13.352
  258SOL    HW2 2549   8.672   7.623  13.349
  259SOL     OW 2550   0.748  12.076  12.138
  259SOL    HW1 2551   0.713  11.995  12.175
  259SOL    HW2 2552   0.829  12.092  12.187
  260SOL     OW 2553   5.405   1.499   3.239
  260SOL    HW1 2554   5.403   1.495   3.335
  260SOL    HW2 2555   5.496   1.520   3.218
  261SOL     OW 2556   0.364   7.469   2.114
  261SOL    HW1 2557   0.320   7.388   2.136
  261SOL    HW2 2558   0.295   7.526   2.079
  262SOL     OW 2559  13.337   5.943  12.685
  262SOL    HW1 2560  13.325   5.888  12.608
  262SOL    HW2 2561  13.261   6.000  12.687
  263SOL     OW 2562  12.755   5.609  10.787
  263SOL    HW1 2563  12.714   5.566  10.711
  263SOL    HW2 2564  12.685   5.611  10.853
  264SOL     OW 2565  12.642  10.985   1.462
  264SOL    HW1 2566  12.625  10.892   1.448
  264SOL    HW2 2567  12.573  11.030   1.412
  265SOL     OW 2568  10.547   5.637   0.699
  265SOL    HW1 2569  10.535   5.544   0.717
  265SOL    HW2 2570  10.486   5.681   0.758
  266SOL     OW 2571   7.813  13.068  12.145
  266SOL    HW1 2572   7.742  13.132  12.138
  266SOL    HW2 2573   7.892  13.116  12.123
  267SOL     OW 2574   6.429  11.935   3.156
  267SOL    HW1 2575   6.477  12.015   3.135
  267SOL    HW2 2576   6.339  11.953   3.128
  268SOL     OW 2577   9.328   9.907   6.693
  268SOL    HW1 2578   9.276   9.845   6.744
  268SOL    HW2 2579   9.273   9.928   6.617
  269SOL     OW 2580   0.738  14.359  14.227
  269SOL    HW1 2581   0.753  14.363  14.321
  269SOL    HW2 2582   0.699  14.272  14.213
  270SOL     OW 2583   2.654   4.357   9.674
  270SOL    HW1 2584   2.657   4.304   9.595
  270SOL    HW2 2585   2.688   4.300   9.743
  271SOL     OW 2586   4.927   8.724   1.813
  271SOL    HW1 2587   4.927   8.630   1.832
  271SOL    HW2 2588   5.016   8.752   1.832
  272SOL     OW 2589   9.534   2.135   2.921
  272SOL    HW1 2590   9.565   2.197   2.856
  272SOL    HW2 2591   9.558   2.173   3.005
  273SOL     OW 2592  12.730   3.328   2.578
  273SOL    HW1 2593  12.635   3.340   2.584
  273SOL    HW2 2594  12.743   3.278   2.498
  274SOL     OW 2595   7.037   3.517   5.018
  274SOL    HW1 2596   6.998   3.604   5.003
  274SOL    HW2 2597   7.115   3.535   5.071
  275SOL     OW 2598  10.136   0.861   6.837
  275SOL    HW1 2599  10.153   0.940   6.888
  275SOL    HW2 2600  10.071   0.812   6.887
  276SOL     OW 2601   0.531  10.756   1.443
  276SOL    HW1 2602   0.610  10.717   1.480
  276SOL    HW2 2603   0.467  10.753   1.515
  277SOL     OW 2604  14.585  14.830   8.030
  277SOL    HW1 2605  14.671  14.862   8.001
  277SOL    HW2 2606  14.599  14.737   8.046
  278SOL     OW 2607   7.170   6.199   0.676
  278SOL    HW1 2608   7.156   6.251   0.755
  278SOL    HW2 2609   7.110   6.125   0.686
  279SOL     OW 2610   5.867   3.282   7.304
  279SOL    HW1 2611   5.848   3.303   7.395
  279SOL    HW2 2612   5.858   3.187   7.298
  280SOL     OW 2613   3.105   6.768  10.273
  280SOL    HW1 2614   3.117   6.767  10.178
  280SOL    HW2 2615   3.067   6.854  10.291
  281SOL     OW 2616   8.870   9.406   6.916
  281SOL    HW1 2617   8.881   9.494   6.880
  281SOL    HW2 2618   8.795   9.370   6.869
  282SOL     OW 2619   3.753  12.857  12.442
  282SOL    HW1 2620   3.733  12.765  12.461
  282SOL    HW2 2621   3.819  12.881  12.506
  283SOL     OW 2622   6.914  10.647   5.896
  283SOL    HW1 2623   6.845  10.585   5.921
  283SOL    HW2 2624   6.952  10.610   5.817
  284SOL     OW 2625   2.197  13.132  10.451
  284SOL    HW1 2626   2.252  13.071  10.500
  284SOL    HW2 2627   2.120  13.145  10.506
  285SOL     OW 2628  13.390   4.091   2.321
  285SOL    HW1 2629  13.368   4.165   2.378
  285SOL    HW2 2630  13.310   4.038   2.319
  286SOL     OW 2631   0.431   6.334   3.330
  286SOL    HW1 2632   0.425   6.298   3.419
  286SOL    HW2 2633   0.379   6.415   3.334
  287SOL     OW 2634   8.070   3.778   8.528
  287SOL    HW1 2635   8.073   3.804   8.436
  287SOL    HW2 2636   8.045   3.686   8.526
  288SOL     OW 2637   3.616   4.381  14.525
  288SOL    HW1 2638   3.659   4.313  14.473
  288SOL    HW2 2639   3.641   4.463  14.482
  289SOL     OW 2640   1.680  11.019  12.606
  289SOL    HW1 2641   1.685  11.048  12.697
  289SOL    HW2 2642   1.659  10.926  12.611
  290SOL     OW 2643  11.035   6.443   7.780
  290SOL    HW1 2644  11.077   6.508   7.837
  290SOL    HW2 2645  11.106   6.388   7.749
  291SOL     OW 2646   8.094   5.732   4.409
  291SOL    HW1 2647   8.037   5.775   4.472
  291SOL    HW2 2648   8.053   5.648   4.391
  292SOL     OW 2649   6.204  12.323  13.929
  292SOL    HW1 2650   6.203  12.228  13.913
  292SOL    HW2 2651   6.150  12.334  14.008
  293SOL     OW 2652   3.658   2.522  12.071
  293SOL    HW1 2653   3.646   2.442  12.018
  293SOL    HW2 2654   3.572   2.537  12.111
  294SOL     OW 2655   9.322   7.859   7.005
  294SOL    HW1 2656   9.361   7.913   7.074
  294SOL    HW2 2657   9.392   7.850   6.940
  295SOL     OW 2658  14.073   1.144   4.637
  295SOL    HW1 2659  14.140   1.195   4.682
  295SOL    HW2 2660  14.028   1.207   4.581
  296SOL     OW 2661   8.584   1.996   1.335
  296SOL    HW1 2662   8.659   1.946   1.367
  296SOL    HW2 2663   8.511   1.934   1.340
  297SOL     OW 2664   3.849   7.972   3.381
  297SOL    HW1 2665   3.818   7.892   3.339
  297SOL    HW2 2666   3.872   7.944   3.470
  298SOL     OW 2667   6.179   5.738  13.101
  298SOL    HW1 2668   6.128   5.762  13.179
  298SOL    HW2 2669   6.161   5.809  13.039
  299SOL     OW 2670   4.478  13.622  13.769
  299SOL    HW1 2671   4.514  13.571  13.842
  299SOL    HW2 2672   4.386  13.595  13.764
  300SOL     OW 2673   9.275   3.428   3.913
  300SOL    HW1 2674   9.262   3.476   3.831
  300SOL    HW2 2675   9.363   3.390   3.905
  301SOL     OW 2676   3.349   5.803   0.256
  301SOL    HW1 2677   3.282   5.746   0.293
  301SOL    HW2 2678   3.411   5.742   0.215
  302SOL     OW 2679   1.792  14.646   1.482
  302SOL    HW1 2680   1.844  14.720   1.451
  302SOL    HW2 2681   1.701  14.673   1.468
  303SOL     OW 2682   5.043   0.038   6.117
  303SOL    HW1 2683   4.972   0.102   6.116
  303SOL    HW2 2684   5.008  14.845   6.166
  304SOL     OW 2685   6.431   4.016   1.969
  304SOL    HW1 2686   6.493   4.080   1.935
  304SOL    HW2 2687   6.485   3.956   2.021
  305SOL     OW 2688   6.188  11.874  13.073
  305SOL    HW1 2689   6.105  11.827  13.068
  305SOL    HW2 2690   6.163  11.966  13.063
  306SOL     OW 2691   3.090  11.620  14.362
  306SOL    HW1 2692   3.077  11.631  14.456
  306SOL    HW2 2693   3.184  11.630  14.349
  307SOL     OW 2694   2.231  12.721   7.899
  307SOL    HW1 2695   2.162  12.776   7.938
  307SOL    HW2 2696   2.210  12.633   7.930
  308SOL     OW 2697   9.839   9.239   0.175
  308SOL    HW1 2698   9.923   9.232   0.219
  308SOL    HW2 2699   9.781   9.280   0.239
  309SOL     OW 2700  12.888   2.011   6.225
  309SOL    HW1 2701  12.877   2.016   6.320
  309SOL    HW2 2702  12.927   1.925   6.210
  310SOL     OW 2703  10.380  10.157   0.829
  310SOL    HW1 2704  10.335  10.212   0.764
  310SOL    HW2 2705  10.423  10.089   0.777
  311SOL     OW 2706  13.879   0.456   4.919
  311SOL    HW1 2707  13.828   0.377   4.899
  311SOL    HW2 2708  13.888   0.455   5.014
  312SOL     OW 2709   9.496  14.566  12.112
  312SOL    HW1 2710   9.580  14.553  12.155
  312SOL    HW2 2711   9.517  14.605  12.028
  313SOL     OW 2712  14.300   6.054   6.859
  313SOL    HW1 2713  14.340   6.122   6.913
  313SOL    HW2 2714  14.309   6.086   6.770
  314SOL     OW 2715   2.694   9.956  10.197
  314SOL    HW1 2716   2.660   9.920  10.279
  314SOL    HW2 2717   2.695   9.882  10.136
  315SOL     OW 2718   1.666  10.531   4.754
  315SOL    HW1 2719   1.689  10.498   4.841
  315SOL    HW2 2720   1.745  10.518   4.702
  316SOL     OW 2721   1.667  14.102   1.989
  316SOL    HW1 2722   1.598  14.038   1.974
  316SOL    HW2 2723   1.743  14.050   2.014
  317SOL     OW 2724   8.359   0.225   0.030
  317SOL    HW1 2725   8.345   0.319   0.017
  317SOL    HW2 2726   8.357   0.214   0.126
  318SOL     OW 2727  10.596   5.011   2.345
  318SOL    HW1 2728  10.564   5.027   2.433
  318SOL    HW2 2729  10.624   5.097   2.313
  319SOL     OW 2730   5.659  11.509   9.500
  319SOL    HW1 2731   5.614  11.542   9.577
  319SOL    HW2 2732   5.734  11.461   9.535
  320SOL     OW 2733   4.057   7.723   7.760
  320SOL    HW1 2734   4.104   7.800   7.791
  320SOL    HW2 2735   4.119   7.677   7.705
  321SOL     OW 2736   0.069  10.315   9.605
  321SOL    HW1 2737   0.084  10.393   9.552
  321SOL    HW2 2738   0.029  10.348   9.685
  322SOL     OW 2739   0.678  10.535   1.998
  322SOL    HW1 2740   0.742  10.540   2.069
  322SOL    HW2 2741   0.731  10.523   1.919
  323SOL     OW 2742   0.394   3.862   2.664
  323SOL    HW1 2743   0.448   3.916   2.607
  323SOL    HW2 2744   0.439   3.865   2.749
  324SOL     OW 2745   7.740   8.983  11.248
  324SOL    HW1 2746   7.730   9.018  11.336
  324SOL    HW2 2747   7.651   8.962  11.220
  325SOL     OW 2748  11.556  14.674   9.517
  325SOL    HW1 2749  11.505  14.598   9.490
  325SOL    HW2 2750  11.508  14.749   9.483
  326SOL     OW 2751  11.140   3.203  10.109
  326SOL    HW1 2752  11.184   3.222  10.026
  326SOL    HW2 2753  11.091   3.122  10.092
  327SOL     OW 2754  14.415  11.558  11.872
  327SOL    HW1 2755  14.508  11.534  11.869
  327SOL    HW2 2756  14.377  11.495  11.934
  328SOL     OW 2757  14.792   2.008  10.280
  328SOL    HW1 2758  14.762   2.098  10.270
  328SOL    HW2 2759  14.835   1.988  10.197
  329SOL     OW 2760  12.448  14.201  11.308
  329SOL    HW1 2761  12.399  14.209  11.389
  329SOL    HW2 2762  12.522  14.144  11.330
  330SOL     OW 2763   5.511   8.990   1.874
  330SOL    HW1 2764   5.452   8.962   1.944
  330SOL    HW2 2765   5.599   8.976   1.911
  331SOL     OW 2766  14.768   7.826   7.141
  331SOL    HW1 2767  14.846   7.775   7.121
  331SOL    HW2 2768  14.800   7.914   7.158
  332SOL     OW 2769   3.860   3.361  14.786
  332SOL    HW1 2770   3.944   3.401  14.809
  332SOL    HW2 2771   3.871   3.269  14.807
  333SOL     OW 2772   3.006  13.803   9.271
  333SOL    HW1 2773   2.990  13.892   9.301
  333SOL    HW2 2774   2.991  13.749   9.349
  334SOL     OW 2775   5.905   9.714   2.427
  334SOL    HW1 2776   5.868   9.775   2.490
  334SOL    HW2 2777   5.832   9.693   2.368
  335SOL     OW 2778   2.294  11.566   8.118
  335SOL    HW1 2779   2.314  11.545   8.027
  335SOL    HW2 2780   2.303  11.661   8.123
  336SOL     OW 2781   6.575  10.947   8.362
  336SOL    HW1 2782   6.486  10.953   8.396
  336SOL    HW2 2783   6.564  10.944   8.267
  337SOL     OW 2784   2.777  13.753   0.265
  337SOL    HW1 2785   2.777  13.835   0.313
  337SOL    HW2 2786   2.827  13.771   0.185
  338SOL     OW 2787   2.980   1.620   5.173
  338SOL    HW1 2788   2.903   1.652   5.221
  338SOL    HW2 2789   2.947   1.602   5.085
  339SOL     OW 2790   8.900   1.510   0.435
  339SOL    HW1 2791   8.966   1.544   0.495
  339SOL    HW2 2792   8.841   1.583   0.419
  340SOL     OW 2793   9.230   2.324   8.977
  340SOL    HW1 2794   9.264   2.410   9.000
  340SOL    HW2 2795   9.139   2.339   8.952
  341SOL     OW 2796   9.998   5.477   8.375
  341SOL    HW1 2797   9.967   5.565   8.397
  341SOL    HW2 2798  10.003   5.432   8.459
  342SOL     OW 2799  12.129  13.175   5.362
  342SOL    HW1 2800  12.068  13.136   5.298
  342SOL    HW2 2801  12.212  13.130   5.345
  343SOL     OW 2802  13.580   0.377   9.485
  343SOL    HW1 2803  13.655   0.341   9.533
  343SOL    HW2 2804  13.511   0.385   9.551
  344SOL     OW 2805   4.178  13.186  12.655
  344SOL    HW1 2806   4.134  13.144  12.581
  344SOL    HW2 2807   4.177  13.280  12.633
  345SOL     OW 2808  14.076   1.741   7.227
  345SOL    HW1 2809  14.156   1.688   7.224
  345SOL    HW2 2810  14.053   1.755   7.135
  346SOL     OW 2811   4.391   8.632  13.991
  346SOL    HW1 2812   4.425   8.712  13.951
  346SOL    HW2 2813   4.453   8.564  13.966
  347SOL     OW 2814   8.840  10.512  14.447
  347SOL    HW1 2815   8.808  10.570  14.517
  347SOL    HW2 2816   8.840  10.425  14.487
  348SOL     OW 2817   3.335  11.279   2.566
  348SOL    HW1 2818   3.388  11.358   2.571
  348SOL    HW2 2819   3.348  11.236   2.651
  349SOL     OW 2820  13.817   8.338   9.755
  349SOL    HW1 2821  13.884   8.359   9.690
  349SOL    HW2 2822  13.830   8.403   9.824
  350SOL     OW 2823   4.828   7.097   8.594
  350SOL    HW1 2824   4.760   7.077   8.658
  350SOL    HW2 2825   4.906   7.052   8.628
  351SOL     OW 2826   4.661   9.896   2.419
  351SOL    HW1 2827   4.722   9.825   2.439
  351SOL    HW2 2828   4.579   9.868   2.458
  352SOL     OW 2829   0.766   4.858  11.173
  352SOL    HW1 2830   0.801   4.772  11.195
  352SOL    HW2 2831   0.684   4.840  11.128
  353SOL     OW 2832   8.965   2.623  12.830
  353SOL    HW1 2833   9.025   2.630  12.904
  353SOL    HW2 2834   8.878   2.636  12.868
  354SOL     OW 2835   3.976  14.295   5.316
  354SOL    HW1 2836   4.051  14.340   5.354
  354SOL    HW2 2837   4.000  14.203   5.316
  355SOL     OW 2838   5.702   1.053   8.265
  355SOL    HW1 2839   5.621   1.003   8.253
  355SOL    HW2 2840   5.735   1.026   8.350
  356SOL     OW 2841  12.452   5.520  10.646
  356SOL    HW1 2842  12.377   5.472  10.680
  356SOL    HW2 2843  12.421   5.610  10.637
  357SOL     OW 2844   3.430   7.950  10.979
  357SOL    HW1 2845   3.393   7.964  11.066
  357SOL    HW2 2846   3.383   7.873  10.945
  358SOL     OW 2847   6.847   6.716   3.704
  358SOL    HW1 2848   6.765   6.763   3.723
  358SOL    HW2 2849   6.891   6.708   3.788
  359SOL     OW 2850  14.456   8.615   8.422
  359SOL    HW1 2851  14.525   8.622   8.488
  359SOL    HW2 2852  14.392   8.556   8.461
  360SOL     OW 2853   5.540   4.429   5.605
  360SOL    HW1 2854   5.582   4.508   5.638
  360SOL    HW2 2855   5.485   4.399   5.678
  361SOL     OW 2856   7.303   1.294   3.832
  361SOL    HW1 2857   7.366   1.308   3.762
  361SOL    HW2 2858   7.275   1.382   3.857
  362SOL     OW 2859  14.545   7.169   4.195
  362SOL    HW1 2860  14.584   7.082   4.179
  362SOL    HW2 2861  14.546   7.211   4.109
  363SOL     OW 2862   2.351   4.232   9.351
  363SOL    HW1 2863   2.265   4.272   9.359
  363SOL    HW2 2864   2.333   4.139   9.335
  364SOL     OW 2865  10.399  11.230  11.374
  364SOL    HW1 2866  10.342  11.234  11.297
  364SOL    HW2 2867  10.340  11.249  11.447
  365SOL     OW 2868   0.007   7.805  13.838
  365SOL    HW1 2869   0.011   7.881  13.781
  365SOL    HW2 2870  14.795   7.792  13.854
  366SOL     OW 2871   5.412  14.024  14.273
  366SOL    HW1 2872   5.392  14.053  14.362
  366SOL    HW2 2873   5.336  13.973  14.246
  367SOL     OW 2874   9.930   1.756  13.342
  367SOL    HW1 2875   9.932   1.850  13.322
  367SOL    HW2 2876   9.914   1.752  13.436
  368SOL     OW 2877  14.552   5.869  13.290
  368SOL    HW1 2878  14.575   5.949  13.242
  368SOL    HW2 2879  14.465   5.845  13.257
  369SOL     OW 2880   3.704  12.717   5.246
  369SOL    HW1 2881   3.781  12.764   5.279
  369SOL    HW2 2882   3.682  12.655   5.315
  370SOL     OW 2883   4.838   4.617   4.933
  370SOL    HW1 2884   4.809   4.695   4.980
  370SOL    HW2 2885   4.876   4.651   4.852
  371SOL     OW 2886  10.417   8.430   2.280
  371SOL    HW1 2887  10.407   8.522   2.303
  371SOL    HW2 2888  10.510   8.411   2.294
  372SOL     OW 2889   7.907   3.941   0.992
  372SOL    HW1 2890   7.988   3.892   0.978
  372SOL    HW2 2891   7.898   3.994   0.913
  373SOL     OW 2892  12.435   2.128   9.999
  373SOL    HW1 2893  12.520   2.087  10.017
  373SOL    HW2 2894  12.387   2.122  10.082
  374SOL     OW 2895  14.416   2.411  11.234
  374SOL    HW1 2896  14.508   2.433  11.221
  374SOL    HW2 2897  14.416   2.356  11.313
  375SOL     OW 2898   2.668   6.407  12.118
  375SOL    HW1 2899   2.574   6.407  12.098
  375SOL    HW2 2900   2.687   6.316  12.142
  376SOL     OW 2901  12.953   1.420  11.238
  376SOL    HW1 2902  12.993   1.356  11.178
  376SOL    HW2 2903  12.902   1.477  11.180
  377SOL     OW 2904  11.247   7.857  10.565
  377SOL    HW1 2905  11.215   7.897  10.484
  377SOL    HW2 2906  11.172   7.859  10.625
  378SOL     OW 2907   2.466  14.021   3.194
  378SOL    HW1 2908   2.439  14.090   3.134
  378SOL    HW2 2909   2.423  14.042   3.277
  379SOL     OW 2910   4.986   4.340  11.568
  379SOL    HW1 2911   4.920   4.360  11.634
  379SOL    HW2 2912   4.983   4.245  11.558
  380SOL     OW 2913  14.130   1.400   5.336
  380SOL    HW1 2914  14.133   1.433   5.246
  380SOL    HW2 2915  14.216   1.419   5.371
  381SOL     OW 2916   8.082  12.891  13.327
  381SOL    HW1 2917   8.023  12.964  13.307
  381SOL    HW2 2918   8.119  12.867  13.242
  382SOL     OW 2919   8.923   9.443   9.118
  382SOL    HW1 2920   8.950   9.534   9.133
  382SOL    HW2 2921   8.854   9.448   9.053
  383SOL     OW 2922   8.787  12.382  14.263
  383SOL    HW1 2923   8.830  12.298  14.246
  383SOL    HW2 2924   8.719  12.388  14.196
  384SOL     OW 2925   5.896   5.873  13.889
  384SOL    HW1 2926   5.913   5.967  13.887
  384SOL    HW2 2927   5.930   5.841  13.805
  385SOL     OW 2928   3.133   2.648   1.993
  385SOL    HW1 2929   3.162   2.696   2.071
  385SOL    HW2 2930   3.160   2.703   1.920
  386SOL     OW 2931   4.271   1.043   2.309
  386SOL    HW1 2932   4.302   0.980   2.244
  386SOL    HW2 2933   4.342   1.106   2.317
  387SOL     OW 2934  10.620  14.484  13.405
  387SOL    HW1 2935  10.703  14.511  13.443
  387SOL    HW2 2936  10.583  14.423  13.469
  388SOL     OW 2937  11.561  12.248  14.716
  388SOL    HW1 2938  11.471  12.217  14.730
  388SOL    HW2 2939  11.575  12.238  14.621
  389SOL     OW 2940  13.142   8.963   9.726
  389SOL    HW1 2941  13.228   8.966   9.685
  389SOL    HW2 2942  13.103   8.881   9.695
  390SOL     OW 2943   8.438  13.452   3.820
  390SOL    HW1 2944   8.366  13.432   3.761
  390SOL    HW2 2945   8.516  13.418   3.774
  391SOL     OW 2946   5.119   2.481   6.673
  391SOL    HW1 2947   5.032   2.517   6.660
  391SOL    HW2 2948   5.163   2.544   6.731
  392SOL     OW 2949  13.323  14.670  13.367
  392SOL    HW1 2950  13.264  14.609  13.411
  392SOL    HW2 2951  13.286  14.757  13.385
  393SOL     OW 2952  13.781   3.917   7.718
  393SOL    HW1 2953  13.765   3.914   7.624
  393SOL    HW2 2954  13.792   4.010   7.737
  394SOL     OW 2955   7.239  13.618  14.116
  394SOL    HW1 2956   7.216  13.680  14.184
  394SOL    HW2 2957   7.215  13.662  14.034
  395SOL     OW 2958   8.092   5.766  14.798
  395SOL    HW1 2959   8.026   5.790  14.863
  395SOL    HW2 2960   8.067   5.816  14.720
  396SOL     OW 2961   3.553  14.523   3.030
  396SOL    HW1 2962   3.522  14.434   3.014
  396SOL    HW2 2963   3.580  14.523   3.122
  397SOL     OW 2964   6.871  14.816  12.646
  397SOL    HW1 2965   6.945  14.834  12.705
  397SOL    HW2 2966   6.907  14.755  12.581
  398SOL     OW 2967   6.434   3.884  13.558
  398SOL    HW1 2968   6.518   3.881  13.513
  398SOL    HW2 2969   6.377   3.934  13.501
  399SOL     OW 2970  12.262   4.914  11.940
  399SOL    HW1 2971  12.258   4.949  12.029
  399SOL    HW2 2972  12.223   4.826  11.947
  400SOL     OW 2973   4.139   1.143   1.237
  400SOL    HW1 2974   4.213   1.164   1.181
  400SOL    HW2 2975   4.177   1.133   1.324
  401SOL     OW 2976   7.726   1.936   5.959
  401SOL    HW1 2977   7.666   1.861   5.954
  401SOL    HW2 2978   7.688   2.001   5.900
  402SOL     OW 2979   6.260   1.076   0.115
  402SOL    HW1 2980   6.257   1.111   0.204
  402SOL    HW2 2981   6.347   1.100   0.084
  403SOL     OW 2982   2.089  13.912   3.174
  403SOL    HW1 2983   2.150  13.874   3.237
  403SOL    HW2 2984   2.003  13.881   3.203
  404SOL     OW 2985   9.081   7.379   7.747
  404SOL    HW1 2986   9.054   7.437   7.676
  404SOL    HW2 2987   9.098   7.295   7.705
  405SOL     OW 2988   2.626  13.823   5.593
  405SOL    HW1 2989   2.662  13.735   5.601
  405SOL    HW2 2990   2.695  13.872   5.547
  406SOL     OW 2991   9.742   0.659   2.701
  406SOL    HW1 2992   9.699   0.664   2.787
  406SOL    HW2 2993   9.763   0.567   2.690
  407SOL     OW 2994   7.428  10.320   1.055
  407SOL    HW1 2995   7.503  10.351   1.105
  407SOL    HW2 2996   7.388  10.252   1.110
  408SOL     OW 2997   7.629   4.409  12.723
  408SOL    HW1 2998   7.570   4.450  12.787
  408SOL    HW2 2999   7.592   4.432  12.638
  409SOL     OW 3000  14.395   8.599   5.457
  409SOL    HW1 3001  14.309   8.579   5.418
  409SOL    HW2 3002  14.444   8.517   5.450
  410SOL     OW 3003   5.007   5.827   0.092
  410SOL    HW1 3004   4.936   5.845   0.153
  410SOL    HW2 3005   4.977   5.751   0.042
  411SOL     OW 3006   0.940   9.315   3.117
  411SOL    HW1 3007   1.011   9.368   3.082
  411SOL    HW2 3008   0.944   9.328   3.211
  412SOL     OW 3009   2.708  14.610   1.879
  412SOL    HW1 3010   2.622  14.643   1.907
  412SOL    HW2 3011   2.688  14.553   1.805
  413SOL     OW 3012  13.536  10.766   1.069
  413SOL    HW1 3013  13.458  10.810   1.036
  413SOL    HW2 3014  13.591  10.837   1.102
  414SOL     OW 3015   4.398   8.247   2.654
  414SOL    HW1 3016   4.425   8.270   2.564
  414SOL    HW2 3017   4.428   8.157   2.666
  415SOL     OW 3018   8.084   7.003  13.735
  415SOL    HW1 3019   8.012   6.982  13.795
  415SOL    HW2 3020   8.163   6.973  13.779
  416SOL     OW 3021   7.264   7.711  11.783
  416SOL    HW1 3022   7.238   7.795  11.820
  416SOL    HW2 3023   7.199   7.649  11.815
  417SOL     OW 3024   5.853  14.359   1.922
  417SOL    HW1 3025   5.917  14.418   1.961
  417SOL    HW2 3026   5.905  14.300   1.867
  418SOL     OW 3027   1.962   6.970   7.935
  418SOL    HW1 3028   2.004   6.893   7.896
  418SOL    HW2 3029   1.986   7.042   7.877
  419SOL     OW 3030  13.305  12.265   7.105
  419SOL    HW1 3031  13.271  12.313   7.181
  419SOL    HW2 3032  13.395  12.296   7.095
  420SOL     OW 3033   0.050   4.248   8.659
  420SOL    HW1 3034   0.048   4.340   8.635
  420SOL    HW2 3035   0.095   4.246   8.744
  421SOL     OW 3036   1.136  11.406   2.639
  421SOL    HW1 3037   1.147  11.314   2.662
  421SOL    HW2 3038   1.163  11.411   2.547
  422SOL     OW 3039   4.480  13.728   1.350
  422SOL    HW1 3040   4.510  13.665   1.284
  422SOL    HW2 3041   4.395  13.694   1.378
  423SOL     OW 3042  11.427  11.176   2.563
  423SOL    HW1 3043  11.365  11.111   2.529
  423SOL    HW2 3044  11.398  11.191   2.653
  424SOL     OW 3045   9.214  12.904   1.749
  424SOL    HW1 3046   9.182  12.846   1.818
  424SOL    HW2 3047   9.196  12.858   1.667
  425SOL     OW 3048  12.832   7.369   0.866
  425SOL    HW1 3049  12.854   7.412   0.784
  425SOL    HW2 3050  12.739   7.389   0.879
  426SOL     OW 3051  10.327   2.665   1.607
  426SOL    HW1 3052  10.235   2.663   1.580
  426SOL    HW2 3053  10.351   2.758   1.604
  427SOL     OW 3054  14.180  10.473  11.240
  427SOL    HW1 3055  14.181  10.549  11.181
  427SOL    HW2 3056  14.260  10.482  11.292
  428SOL     OW 3057  14.253  14.148   1.486
  428SOL    HW1 3058  14.178  14.173   1.431
  428SOL    HW2 3059  14.259  14.217   1.552
  429SOL     OW 3060   4.081   8.894  14.686
  429SOL    HW1 3061   4.111   8.807  14.712
  429SOL    HW2 3062   4.040   8.881  14.600
  430SOL     OW 3063   7.577   0.736   2.212
  430SOL    HW1 3064   7.662   0.697   2.193
  430SOL    HW2 3065   7.514   0.675   2.174
  431SOL     OW 3066   2.243   8.910   3.785
  431SOL    HW1 3067   2.285   8.920   3.871
  431SOL    HW2 3068   2.282   8.978   3.731
  432SOL     OW 3069   2.176  12.498   8.023
  432SOL    HW1 3070   2.092  12.463   7.993
  432SOL    HW2 3071   2.185  12.463   8.112
  433SOL     OW 3072   1.646  11.039  10.848
  433SOL    HW1 3073   1.619  10.948  10.856
  433SOL    HW2 3074   1.659  11.052  10.754
  434SOL     OW 3075   2.920   7.534  12.315
  434SOL    HW1 3076   2.868   7.613  12.329
  434SOL    HW2 3077   2.873   7.466  12.363
  435SOL     OW 3078  14.217   1.117  10.796
  435SOL    HW1 3079  14.289   1.148  10.851
  435SOL    HW2 3080  14.189   1.195  10.748
  436SOL     OW 3081   0.101   7.937   9.999
  436SOL    HW1 3082   0.070   7.858   9.956
  436SOL    HW2 3083   0.186   7.914  10.036
  437SOL     OW 3084   4.813  14.246  12.256
  437SOL    HW1 3085   4.768  14.162  12.255
  437SOL    HW2 3086   4.846  14.254  12.345
  438SOL     OW 3087   1.356  10.689  13.654
  438SOL    HW1 3088   1.391  10.693  13.565
  438SOL    HW2 3089   1.430  10.712  13.710
  439SOL     OW 3090   9.012   4.558  14.367
  439SOL    HW1 3091   8.963   4.475  14.370
  439SOL    HW2 3092   9.023   4.575  14.273
  440SOL     OW 3093   2.234   7.867   7.759
  440SOL    HW1 3094   2.235   7.821   7.675
  440SOL    HW2 3095   2.250   7.959   7.735
  441SOL     OW 3096   9.935   2.553   0.478
  441SOL    HW1 3097   9.963   2.508   0.399
  441SOL    HW2 3098  10.002   2.532   0.543
  442SOL     OW 3099  11.744   8.574  10.945
  442SOL    HW1 3100  11.773   8.551  11.034
  442SOL    HW2 3101  11.659   8.616  10.958
  443SOL     OW 3102  10.655  14.731   2.474
  443SOL    HW1 3103  10.572  14.694   2.503
  443SOL    HW2 3104  10.722  14.671   2.507
  444SOL     OW 3105   4.710   2.945  14.773
  444SOL    HW1 3106   4.788   2.890  14.765
  444SOL    HW2 3107   4.725   3.017  14.712
  445SOL     OW 3108   2.016   1.541   0.007
  445SOL    HW1 3109   2.044   1.591   0.084
  445SOL    HW2 3110   2.091   1.485  14.868
  446SOL     OW 3111   3.639   2.589  13.980
  446SOL    HW1 3112   3.722   2.625  14.011
  446SOL    HW2 3113   3.652   2.494  13.982
  447SOL     OW 3114   0.235   2.798  11.047
  447SOL    HW1 3115   0.157   2.816  11.099
  447SOL    HW2 3116   0.230   2.859  10.974
  448SOL     OW 3117  11.933   9.357   3.664
  448SOL    HW1 3118  11.933   9.275   3.714
  448SOL    HW2 3119  11.961   9.331   3.576
  449SOL     OW 3120   3.971   3.380   0.897
  449SOL    HW1 3121   3.935   3.291   0.893
  449SOL    HW2 3122   3.929   3.426   0.824
  450SOL     OW 3123  10.016   5.766   7.682
  450SOL    HW1 3124  10.082   5.836   7.684
  450SOL    HW2 3125   9.967   5.777   7.764
  451SOL     OW 3126   2.882   7.143  12.721
  451SOL    HW1 3127   2.921   7.136  12.808
  451SOL    HW2 3128   2.787   7.137  12.736
  452SOL     OW 3129  14.119  11.698   1.004
  452SOL    HW1 3130  14.124  11.607   1.032
  452SOL    HW2 3131  14.204  11.735   1.025
  453SOL     OW 3132  12.235   6.695   6.267
  453SOL    HW1 3133  12.242   6.671   6.175
  453SOL    HW2 3134  12.229   6.791   6.267
  454SOL     OW 3135   0.336   2.869   2.106
  454SOL    HW1 3136   0.343   2.862   2.011
  454SOL    HW2 3137   0.363   2.958   2.126
  455SOL     OW 3138   3.622  14.680   0.766
  455SOL    HW1 3139   3.645  14.753   0.708
  455SOL    HW2 3140   3.702  14.661   0.814
  456SOL     OW 3141   7.492   7.783   2.634
  456SOL    HW1 3142   7.570   7.726   2.640
  456SOL    HW2 3143   7.460   7.769   2.545
  457SOL     OW 3144   7.746   9.601  11.243
  457SOL    HW1 3145   7.683   9.594  11.314
  457SOL    HW2 3146   7.828   9.624  11.285
  458SOL     OW 3147   6.989   5.088  10.493
  458SOL    HW1 3148   7.074   5.058  10.461
  458SOL    HW2 3149   6.950   5.010  10.533
  459SOL     OW 3150   3.558  12.471   6.378
  459SOL    HW1 3151   3.489  12.495   6.317
  459SOL    HW2 3152   3.596  12.555   6.406
  460SOL     OW 3153   6.889   0.333  10.924
  460SOL    HW1 3154   6.861   0.421  10.950
  460SOL    HW2 3155   6.857   0.277  10.995
  461SOL     OW 3156   6.833  10.329   9.750
  461SOL    HW1 3157   6.884  10.338   9.669
  461SOL    HW2 3158   6.895  10.294   9.814
  462SOL     OW 3159   8.641   5.733   5.630
  462SOL    HW1 3160   8.668   5.784   5.707
  462SOL    HW2 3161   8.585   5.792   5.580
  463SOL     OW 3162   1.591   8.803   3.688
  463SOL    HW1 3163   1.643   8.881   3.705
  463SOL    HW2 3164   1.653   8.731   3.696
  464SOL     OW 3165  11.199   2.092   2.870
  464SOL    HW1 3166  11.257   2.122   2.940
  464SOL    HW2 3167  11.127   2.049   2.916
  465SOL     OW 3168  13.941   7.079   1.866
  465SOL    HW1 3169  13.885   7.091   1.789
  465SOL    HW2 3170  14.010   7.145   1.855
  466SOL     OW 3171   0.816   7.571  10.218
  466SOL    HW1 3172   0.845   7.521  10.142
  466SOL    HW2 3173   0.740   7.523  10.251
  467SOL     OW 3174   3.771   0.490   5.985
  467SOL    HW1 3175   3.721   0.571   5.979
  467SOL    HW2 3176   3.729   0.431   5.922
  468SOL     OW 3177   1.555   6.631   0.740
  468SOL    HW1 3178   1.607   6.620   0.820
  468SOL    HW2 3179   1.469   6.659   0.771
  469SOL     OW 3180  10.357  11.218  13.570
  469SOL    HW1 3181  10.277  11.248  13.613
  469SOL    HW2 3182  10.327  11.179  13.488
  470SOL     OW 3183  14.710   9.295   3.052
  470SOL    HW1 3184  14.683   9.267   2.965
  470SOL    HW2 3185  14.795   9.337   3.038
  471SOL     OW 3186  10.276   8.917   0.168
  471SOL    HW1 3187  10.214   8.947   0.102
  471SOL    HW2 3188  10.293   8.825   0.146
  472SOL     OW 3189  14.727   8.782  11.751
  472SOL    HW1 3190  14.716   8.752  11.842
  472SOL    HW2 3191  14.640   8.772  11.712
  473SOL     OW 3192   5.272   9.014   2.786
  473SOL    HW1 3193   5.289   8.963   2.865
  473SOL    HW2 3194   5.323   8.972   2.718
  474SOL     OW 3195   8.918   3.585   1.364
  474SOL    HW1 3196   8.866   3.550   1.436
  474SOL    HW2 3197   8.938   3.675   1.389
  475SOL     OW 3198   2.681  11.641   7.753
  475SOL    HW1 3199   2.745  11.594   7.700
  475SOL    HW2 3200   2.722  11.725   7.773
  476SOL     OW 3201   9.196  12.240   2.930
  476SOL    HW1 3202   9.269  12.299   2.949
  476SOL    HW2 3203   9.205  12.219   2.837
  477SOL     OW 3204   2.975   3.841   5.574
  477SOL    HW1 3205   2.980   3.747   5.557
  477SOL    HW2 3206   2.915   3.874   5.507
  478SOL     OW 3207  13.465  12.813  14.527
  478SOL    HW1 3208  13.426  12.900  14.512
  478SOL    HW2 3209  13.391  12.753  14.522
  479SOL     OW 3210  10.202   5.109  12.913
  479SOL    HW1 3211  10.152   5.191  12.917
  479SOL    HW2 3212  10.227   5.092  13.004
  480SOL     OW 3213  14.801   3.019   9.967
  480SOL    HW1 3214   0.014   3.014   9.976
  480SOL    HW2 3215  14.782   2.975   9.884
  481SOL     OW 3216   2.269   4.449  13.266
  481SOL    HW1 3217   2.362   4.471  13.269
  481SOL    HW2 3218   2.265   4.357  13.293
  482SOL     OW 3219  11.184   4.275  13.753
  482SOL    HW1 3220  11.106   4.238  13.713
  482SOL    HW2 3221  11.236   4.199  13.779
  483SOL     OW 3222   4.569   6.847  11.748
  483SOL    HW1 3223   4.578   6.801  11.831
  483SOL    HW2 3224   4.620   6.928  11.760
  484SOL     OW 3225   4.575   8.012   7.685
  484SOL    HW1 3226   4.485   8.034   7.708
  484SOL    HW2 3227   4.629   8.066   7.742
  485SOL     OW 3228  11.790   3.578  14.007
  485SOL    HW1 3229  11.852   3.529  13.953
  485SOL    HW2 3230  11.710   3.526  14.005
  486SOL     OW 3231   8.924  10.839   7.138
  486SOL    HW1 3232   8.969  10.778   7.080
  486SOL    HW2 3233   8.924  10.922   7.090
  487SOL     OW 3234   3.082   3.820   2.876
  487SOL    HW1 3235   3.169   3.826   2.836
  487SOL    HW2 3236   3.076   3.899   2.931
  488SOL     OW 3237   3.980   8.108   6.785
  488SOL    HW1 3238   4.072   8.084   6.794
  488SOL    HW2 3239   3.965   8.172   6.854
  489SOL     OW 3240  10.144   7.950  11.654
  489SOL    HW1 3241  10.223   7.956  11.600
  489SOL    HW2 3242  10.079   8.001  11.605
  490SOL     OW 3243   9.159   5.106   3.234
  490SOL    HW1 3244   9.092   5.046   3.268
  490SOL    HW2 3245   9.230   5.102   3.298
  491SOL     OW 3246   4.207   3.253  13.318
  491SOL    HW1 3247   4.168   3.167  13.305
  491SOL    HW2 3248   4.264   3.266  13.242
  492SOL     OW 3249   7.268  12.155   2.054
  492SOL    HW1 3250   7.240  12.243   2.078
  492SOL    HW2 3251   7.193  12.099   2.074
  493SOL     OW 3252   0.989   2.380   4.435
  493SOL    HW1 3253   1.003   2.370   4.529
  493SOL    HW2 3254   0.909   2.331   4.417
  494SOL     OW 3255   3.501  14.839   8.416
  494SOL    HW1 3256   3.582  14.808   8.455
  494SOL    HW2 3257   3.525  14.862   8.326
  495SOL     OW 3258   6.617  11.564  11.738
  495SOL    HW1 3259   6.579  11.533  11.820
  495SOL    HW2 3260   6.551  11.621  11.700
  496SOL     OW 3261   5.090   6.294   6.632
  496SOL    HW1 3262   5.043   6.375   6.614
  496SOL    HW2 3263   5.021   6.227   6.633
  497SOL     OW 3264  14.548  12.583   3.999
  497SOL    HW1 3265  14.461  12.543   3.996
  497SOL    HW2 3266  14.609  12.510   4.005
  498SOL     OW 3267  14.246   6.617  10.485
  498SOL    HW1 3268  14.243   6.677  10.559
  498SOL    HW2 3269  14.167   6.636  10.435
  499SOL     OW 3270   1.932  13.548  11.936
  499SOL    HW1 3271   1.977  13.576  12.016
  499SOL    HW2 3272   1.986  13.583  11.865
  500SOL     OW 3273   3.537  13.601   6.478
  500SOL    HW1 3274   3.595  13.629   6.549
  500SOL    HW2 3275   3.496  13.683   6.448
  501SOL     OW 3276  14.350   6.704  14.200
  501SOL    HW1 3277  14.371   6.752  14.280
  501SOL    HW2 3278  14.332   6.772  14.135
  502SOL     OW 3279   6.599   8.382  12.728
  502SOL    HW1 3280   6.625   8.474  12.722
  502SOL    HW2 3281   6.526   8.374  12.666
  503SOL     OW 3282   5.099   1.202   6.812
  503SOL    HW1 3283   5.047   1.281   6.807
  503SOL    HW2 3284   5.035   1.131   6.821
  504SOL     OW 3285  14.531   0.825   6.107
  504SOL    HW1 3286  14.564   0.906   6.069
  504SOL    HW2 3287  14.436   0.829   6.096
  505SOL     OW 3288  12.691  12.678   7.035
  505SOL    HW1 3289  12.640  12.631   6.968
  505SOL    HW2 3290  12.643  12.663   7.116
  506SOL     OW 3291   0.275   0.624   1.608
  506SOL    HW1 3292   0.360   0.597   1.572
  506SOL    HW2 3293   0.253   0.555   1.671
  507SOL     OW 3294   5.198   7.626   2.504
  507SOL    HW1 3295   5.227   7.589   2.421
  507SOL    HW2 3296   5.177   7.717   2.484
  508SOL     OW 3297  10.720   4.689   1.385
  508SOL    HW1 3298  10.777   4.686   1.308
  508SOL    HW2 3299  10.780   4.680   1.460
  509SOL     OW 3300   6.920   2.596   2.487
  509SOL    HW1 3301   6.857   2.610   2.416
  509SOL    HW2 3302   6.894   2.513   2.526
  510SOL     OW 3303   1.267   8.352   0.390
  510SOL    HW1 3304   1.264   8.407   0.468
  510SOL    HW2 3305   1.283   8.264   0.424
  511SOL     OW 3306   9.188  14.246  12.611
  511SOL    HW1 3307   9.138  14.312  12.563
  511SOL    HW2 3308   9.278  14.258  12.583
  512SOL     OW 3309  11.218   1.517   5.367
  512SOL    HW1 3310  11.306   1.481   5.369
  512SOL    HW2 3311  11.221   1.582   5.297
  513SOL     OW 3312  11.813  11.257  14.416
  513SOL    HW1 3313  11.829  11.351  14.413
  513SOL    HW2 3314  11.884  11.222  14.470
  514SOL     OW 3315   6.496   2.708  11.057
  514SOL    HW1 3316   6.506   2.789  11.006
  514SOL    HW2 3317   6.451   2.736  11.137
  515SOL     OW 3318   2.629   1.622   3.169
  515SOL    HW1 3319   2.684   1.605   3.245
  515SOL    HW2 3320   2.546   1.654   3.205
  516SOL     OW 3321  10.586   7.892   9.924
  516SOL    HW1 3322  10.508   7.945   9.908
  516SOL    HW2 3323  10.609   7.857   9.838
  517SOL     OW 3324   7.533   2.136   6.513
  517SOL    HW1 3325   7.522   2.079   6.437
  517SOL    HW2 3326   7.482   2.214   6.492
  518SOL     OW 3327   9.248  12.612   3.330
  518SOL    HW1 3328   9.300  12.644   3.403
  518SOL    HW2 3329   9.189  12.548   3.369
  519SOL     OW 3330  12.853   0.760  13.266
  519SOL    HW1 3331  12.844   0.671  13.300
  519SOL    HW2 3332  12.768   0.777  13.224
  520SOL     OW 3333   7.662   1.086   9.448
  520SOL    HW1 3334   7.681   0.998   9.481
  520SOL    HW2 3335   7.648   1.139   9.527
  521SOL     OW 3336   5.329   2.412   8.653
  521SOL    HW1 3337   5.365   2.416   8.564
  521SOL    HW2 3338   5.323   2.503   8.680
  522SOL     OW 3339   9.490  14.108   5.347
  522SOL    HW1 3340   9.403  14.070   5.335
  522SOL    HW2 3341   9.543  14.036   5.380
  523SOL     OW 3342   4.554  14.089   2.940
  523SOL    HW1 3343   4.594  14.168   2.976
  523SOL    HW2 3344   4.527  14.038   3.016
  524SOL     OW 3345  13.883  13.679   2.551
  524SOL    HW1 3346  13.826  13.717   2.619
  524SOL    HW2 3347  13.954  13.637   2.600
  525SOL     OW 3348   1.317   6.229   3.242
  525SOL    HW1 3349   1.254   6.294   3.213
  525SOL    HW2 3350   1.402   6.266   3.219
  526SOL     OW 3351   6.917  11.451   0.761
  526SOL    HW1 3352   6.858  11.488   0.695
  526SOL    HW2 3353   6.996  11.428   0.712
  527SOL     OW 3354  13.221  12.731   8.591
  527SOL    HW1 3355  13.253  12.818   8.616
  527SOL    HW2 3356  13.234  12.677   8.669
  528SOL     OW 3357  13.984  10.201   1.305
  528SOL    HW1 3358  13.969  10.197   1.210
  528SOL    HW2 3359  13.988  10.109   1.333
  529SOL     OW 3360   2.905   4.855  14.362
  529SOL    HW1 3361   2.980   4.813  14.319
  529SOL    HW2 3362   2.846   4.878  14.290
  530SOL     OW 3363  12.297  13.143   9.700
  530SOL    HW1 3364  12.223  13.204   9.704
  530SOL    HW2 3365  12.363  13.189   9.649
  531SOL     OW 3366   9.651   0.070   1.097
  531SOL    HW1 3367   9.586   0.138   1.118
  531SOL    HW2 3368   9.607  14.869   1.119
  532SOL     OW 3369   0.482  13.197   4.462
  532SOL    HW1 3370   0.403  13.191   4.409
  532SOL    HW2 3371   0.451  13.217   4.550
  533SOL     OW 3372  10.233   8.512   7.516
  533SOL    HW1 3373  10.154   8.545   7.473
  533SOL    HW2 3374  10.283   8.471   7.446
  534SOL     OW 3375  13.137   9.780   9.004
  534SOL    HW1 3376  13.142   9.862   9.052
  534SOL    HW2 3377  13.190   9.795   8.925
  535SOL     OW 3378   0.923   9.356   5.881
  535SOL    HW1 3379   0.872   9.281   5.912
  535SOL    HW2 3380   0.963   9.392   5.961
  536SOL     OW 3381   1.275   9.541   9.961
  536SOL    HW1 3382   1.257   9.459   9.915
  536SOL    HW2 3383   1.269   9.518  10.054
  537SOL     OW 3384   9.982   3.623  14.379
  537SOL    HW1 3385  10.003   3.582  14.463
  537SOL    HW2 3386  10.067   3.649  14.343
  538SOL     OW 3387  12.865  13.557  10.922
  538SOL    HW1 3388  12.915  13.522  10.996
  538SOL    HW2 3389  12.829  13.639  10.954
  539SOL     OW 3390   2.837   1.929  14.156
  539SOL    HW1 3391   2.810   1.904  14.244
  539SOL    HW2 3392   2.827   1.848  14.105
  540SOL     OW 3393   1.888   9.368   8.226
  540SOL    HW1 3394   1.904   9.389   8.318
  540SOL    HW2 3395   1.822   9.431   8.198
  541SOL     OW 3396   8.278   5.073   2.073
  541SOL    HW1 3397   8.218   5.067   2.147
  541SOL    HW2 3398   8.350   5.128   2.105
  542SOL     OW 3399   6.275   6.732   9.972
  542SOL    HW1 3400   6.354   6.785   9.984
  542SOL    HW2 3401   6.273   6.676  10.050
  543SOL     OW 3402   3.983   1.772   7.898
  543SOL    HW1 3403   3.888   1.776   7.891
  543SOL    HW2 3404   4.009   1.706   7.834
  544SOL     OW 3405  12.896  13.029  11.384
  544SOL    HW1 3406  12.817  13.071  11.417
  544SOL    HW2 3407  12.887  13.031  11.288
  545SOL     OW 3408   9.825   3.149  13.523
  545SOL    HW1 3409   9.777   3.179  13.446
  545SOL    HW2 3410   9.873   3.072  13.493
  546SOL     OW 3411  13.095   8.038  14.678
  546SOL    HW1 3412  13.040   7.962  14.698
  546SOL    HW2 3413  13.046   8.113  14.712
  547SOL     OW 3414   2.769   5.122   9.365
  547SOL    HW1 3415   2.768   5.102   9.458
  547SOL    HW2 3416   2.861   5.111   9.339
  548SOL     OW 3417   9.772  13.127   8.308
  548SOL    HW1 3418   9.840  13.075   8.350
  548SOL    HW2 3419   9.813  13.159   8.227
  549SOL     OW 3420   3.137   2.682  10.370
  549SOL    HW1 3421   3.127   2.594  10.407
  549SOL    HW2 3422   3.224   2.682  10.329
  550SOL     OW 3423  11.173  10.297   6.136
  550SOL    HW1 3424  11.195  10.323   6.226
  550SOL    HW2 3425  11.128  10.374   6.100
  551SOL     OW 3426   2.527   2.767   0.524
  551SOL    HW1 3427   2.553   2.730   0.439
  551SOL    HW2 3428   2.512   2.690   0.579
  552SOL     OW 3429  13.705   7.928   2.743
  552SOL    HW1 3430  13.635   7.962   2.686
  552SOL    HW2 3431  13.668   7.932   2.831
  553SOL     OW 3432  12.104   1.545   2.148
  553SOL    HW1 3433  12.167   1.510   2.085
  553SOL    HW2 3434  12.025   1.493   2.134
  554SOL     OW 3435  12.071   7.214   7.680
  554SOL    HW1 3436  12.101   7.208   7.589
  554SOL    HW2 3437  12.020   7.295   7.683
  555SOL     OW 3438  12.973   0.231  12.831
  555SOL    HW1 3439  13.004   0.147  12.864
  555SOL    HW2 3440  12.883   0.238  12.863
  556SOL     OW 3441   8.093   6.783   0.866
  556SOL    HW1 3442   8.125   6.708   0.916
  556SOL    HW2 3443   8.006   6.801   0.902
  557SOL     OW 3444   4.230   7.476   8.641
  557SOL    HW1 3445   4.317   7.502   8.612
  557SOL    HW2 3446   4.189   7.557   8.672
  558SOL     OW 3447  11.347   3.589   4.644
  558SOL    HW1 3448  11.328   3.629   4.729
  558SOL    HW2 3449  11.265   3.548   4.618
  559SOL     OW 3450   8.430   8.910  11.508
  559SOL    HW1 3451   8.521   8.895  11.483
  559SOL    HW2 3452   8.379   8.877  11.434
  560SOL     OW 3453   5.505  10.969  12.462
  560SOL    HW1 3454   5.453  11.039  12.422
  560SOL    HW2 3455   5.578  11.014  12.503
  561SOL     OW 3456   3.124  14.552  12.824
  561SOL    HW1 3457   3.054  14.618  12.822
  561SOL    HW2 3458   3.179  14.573  12.748
  562SOL     OW 3459   2.998  13.669   9.777
  562SOL    HW1 3460   2.964  13.621   9.701
  562SOL    HW2 3461   2.959  13.756   9.770
  563SOL     OW 3462   4.350  12.507   1.609
  563SOL    HW1 3463   4.370  12.585   1.557
  563SOL    HW2 3464   4.389  12.435   1.558
  564SOL     OW 3465  10.836  10.547  13.446
  564SOL    HW1 3466  10.848  10.457  13.414
  564SOL    HW2 3467  10.851  10.602  13.369
  565SOL     OW 3468  13.641  12.857   5.615
  565SOL    HW1 3469  13.629  12.788   5.549
  565SOL    HW2 3470  13.680  12.812   5.690
  566SOL     OW 3471  12.702   9.563   5.609
  566SOL    HW1 3472  12.783   9.613   5.609
  566SOL    HW2 3473  12.638   9.620   5.651
  567SOL     OW 3474  11.608   7.470   4.186
  567SOL    HW1 3475  11.557   7.392   4.209
  567SOL    HW2 3476  11.694   7.437   4.163
  568SOL     OW 3477   4.860   7.359   0.495
  568SOL    HW1 3478   4.871   7.328   0.584
  568SOL    HW2 3479   4.949   7.364   0.460
  569SOL     OW 3480   5.448   4.287   4.795
  569SOL    HW1 3481   5.389   4.211   4.798
  569SOL    HW2 3482   5.446   4.323   4.883
  570SOL     OW 3483  13.438  14.619   8.696
  570SOL    HW1 3484  13.423  14.713   8.698
  570SOL    HW2 3485  13.439  14.597   8.603
  571SOL     OW 3486  14.322   6.178  13.208
  571SOL    HW1 3487  14.403   6.141  13.172
  571SOL    HW2 3488  14.257   6.165  13.139
  572SOL     OW 3489   8.924   1.471  12.922
  572SOL    HW1 3490   8.975   1.441  12.847
  572SOL    HW2 3491   8.982   1.460  12.997
  573SOL     OW 3492  14.412  11.998   9.613
  573SOL    HW1 3493  14.457  12.081   9.630
  573SOL    HW2 3494  14.457  11.961   9.537
  574SOL     OW 3495   9.623   4.589  11.088
  574SOL    HW1 3496   9.690   4.529  11.057
  574SOL    HW2 3497   9.664   4.635  11.161
  575SOL     OW 3498   1.394  13.981   7.931
  575SOL    HW1 3499   1.399  14.076   7.937
  575SOL    HW2 3500   1.458  13.957   7.864
  576SOL     OW 3501   1.316  10.371  14.053
  576SOL    HW1 3502   1.314  10.465  14.073
  576SOL    HW2 3503   1.331  10.367  13.958
  577SOL     OW 3504   5.598   4.097  10.462
  577SOL    HW1 3505   5.643   4.107  10.379
  577SOL    HW2 3506   5.665   4.114  10.528
  578SOL     OW 3507   7.195  13.120   4.314
  578SOL    HW1 3508   7.200  13.180   4.389
  578SOL    HW2 3509   7.264  13.055   4.331
  579SOL     OW 3510   1.154  11.663   4.176
  579SOL    HW1 3511   1.222  11.669   4.243
  579SOL    HW2 3512   1.098  11.739   4.191
  580SOL     OW 3513   0.098   8.083   2.476
  580SOL    HW1 3514   0.038   8.154   2.497
  580SOL    HW2 3515   0.176   8.126   2.441
  581SOL     OW 3516  11.134   3.847   4.781
  581SOL    HW1 3517  11.190   3.797   4.840
  581SOL    HW2 3518  11.082   3.903   4.839
  582SOL     OW 3519   7.998   0.210  10.820
  582SOL    HW1 3520   7.921   0.154  10.813
  582SOL    HW2 3521   8.069   0.151  10.845
  583SOL     OW 3522   0.779  12.204   8.800
  583SOL    HW1 3523   0.819  12.211   8.887
  583SOL    HW2 3524   0.849  12.230   8.740
  584SOL     OW 3525   4.896   6.847   9.923
  584SOL    HW1 3526   4.874   6.939   9.911
  584SOL    HW2 3527   4.989   6.847   9.948
  585SOL     OW 3528   4.530  12.227  14.870
  585SOL    HW1 3529   4.477  12.249  14.793
  585SOL    HW2 3530   4.620  12.248  14.844
  586SOL     OW 3531   9.923   6.319   5.820
  586SOL    HW1 3532   9.991   6.252   5.827
  586SOL    HW2 3533   9.959   6.394   5.866
  587SOL     OW 3534   5.807   2.473   3.812
  587SOL    HW1 3535   5.828   2.516   3.729
  587SOL    HW2 3536   5.890   2.471   3.860
  588SOL     OW 3537   5.793  12.650  13.315
  588SOL    HW1 3538   5.714  12.673  13.266
  588SOL    HW2 3539   5.862  12.703  13.277
  589SOL     OW 3540   3.435   7.373   2.103
  589SOL    HW1 3541   3.449   7.464   2.132
  589SOL    HW2 3542   3.494   7.321   2.158
  590SOL     OW 3543  11.747   8.903   2.833
  590SOL    HW1 3544  11.731   8.996   2.849
  590SOL    HW2 3545  11.820   8.901   2.772
  591SOL     OW 3546   2.413  14.334   4.140
  591SOL    HW1 3547   2.413  14.428   4.161
  591SOL    HW2 3548   2.340  14.298   4.190
  592SOL     OW 3549   9.120   6.320  10.764
  592SOL    HW1 3550   9.099   6.252  10.700
  592SOL    HW2 3551   9.166   6.387  10.712
  593SOL     OW 3552  10.328   5.910  11.362
  593SOL    HW1 3553  10.293   5.996  11.387
  593SOL    HW2 3554  10.271   5.847  11.407
  594SOL     OW 3555   9.176  10.419   5.485
  594SOL    HW1 3556   9.191  10.447   5.576
  594SOL    HW2 3557   9.085  10.389   5.484
  595SOL     OW 3558   7.264  12.984   1.438
  595SOL    HW1 3559   7.275  13.022   1.525
  595SOL    HW2 3560   7.312  13.042   1.380
  596SOL     OW 3561   5.430   8.654   0.131
  596SOL    HW1 3562   5.462   8.680   0.218
  596SOL    HW2 3563   5.437   8.733   0.078
  597SOL     OW 3564   2.305  10.273  14.177
  597SOL    HW1 3565   2.366  10.200  14.181
  597SOL    HW2 3566   2.340  10.338  14.237
  598SOL     OW 3567   4.082   7.383  12.289
  598SOL    HW1 3568   4.137   7.399  12.213
  598SOL    HW2 3569   4.005   7.339  12.254
  599SOL     OW 3570  13.837   9.351   0.332
  599SOL    HW1 3571  13.781   9.311   0.399
  599SOL    HW2 3572  13.854   9.279   0.270
  600SOL     OW 3573  13.041   0.180  13.560
  600SOL    HW1 3574  13.009   0.106  13.612
  600SOL    HW2 3575  12.961   0.216  13.520
  601SOL     OW 3576  14.333  14.794   0.067
  601SOL    HW1 3577  14.387  14.733   0.118
  601SOL    HW2 3578  14.244  14.761   0.078
  602SOL     OW 3579  12.448   3.754   8.667
  602SOL    HW1 3580  12.439   3.665   8.701
  602SOL    HW2 3581  12.445   3.744   8.572
  603SOL     OW 3582   6.138   2.568   9.864
  603SOL    HW1 3583   6.135   2.622   9.785
  603SOL    HW2 3584   6.190   2.491   9.838
  604SOL     OW 3585   5.423   3.157   6.718
  604SOL    HW1 3586   5.431   3.090   6.785
  604SOL    HW2 3587   5.380   3.113   6.645
  605SOL     OW 3588   2.027  14.869  14.593
  605SOL    HW1 3589   2.053   0.067  14.546
  605SOL    HW2 3590   1.956  14.833  14.539
  606SOL     OW 3591  11.058   3.739   5.974
  606SOL    HW1 3592  11.004   3.708   6.046
  606SOL    HW2 3593  11.148   3.720   6.000
  607SOL     OW 3594  14.662   5.425   3.867
  607SOL    HW1 3595  14.666   5.469   3.952
  607SOL    HW2 3596  14.659   5.496   3.803
  608SOL     OW 3597  11.605   3.638   2.339
  608SOL    HW1 3598  11.557   3.557   2.355
  608SOL    HW2 3599  11.600   3.651   2.245
  609SOL     OW 3600   9.826   0.306   6.034
  609SOL    HW1 3601   9.764   0.233   6.031
  609SOL    HW2 3602   9.911   0.266   6.048
  610SOL     OW 3603   5.464   9.024  13.430
  610SOL    HW1 3604   5.374   8.997  13.451
  610SOL    HW2 3605   5.498   9.060  13.512
  611SOL     OW 3606   3.861   5.029   2.393
  611SOL    HW1 3607   3.850   4.979   2.474
  611SOL    HW2 3608   3.811   5.110   2.408
  612SOL     OW 3609  14.797   7.545  14.045
  612SOL    HW1 3610  14.836   7.500  14.121
  612SOL    HW2 3611  14.766   7.628  14.081
  613SOL     OW 3612   0.197   0.884  11.510
  613SOL    HW1 3613   0.104   0.880  11.529
  613SOL    HW2 3614   0.207   0.960  11.453
  614SOL     OW 3615   5.348  10.648  10.294
  614SOL    HW1 3616   5.390  10.715  10.348
  614SOL    HW2 3617   5.385  10.566  10.325
  615SOL     OW 3618   2.736  13.766   2.087
  615SOL    HW1 3619   2.647  13.782   2.117
  615SOL    HW2 3620   2.737  13.673   2.063
  616SOL     OW 3621  11.122   2.548  12.665
  616SOL    HW1 3622  11.145   2.614  12.599
  616SOL    HW2 3623  11.137   2.592  12.749
  617SOL     OW 3624  12.855  12.717   8.905
  617SOL    HW1 3625  12.851  12.674   8.820
  617SOL    HW2 3626  12.806  12.798   8.892
  618SOL     OW 3627  13.121   7.850   6.877
  618SOL    HW1 3628  13.162   7.869   6.962
  618SOL    HW2 3629  13.032   7.825   6.899
  619SOL     OW 3630   2.958  10.483   3.015
  619SOL    HW1 3631   3.021  10.543   3.055
  619SOL    HW2 3632   2.887  10.539   2.985
  620SOL     OW 3633   1.008  14.843  14.410
  620SOL    HW1 3634   1.055   0.026  14.358
  620SOL    HW2 3635   1.068  14.768  14.415
  621SOL     OW 3636  11.315   5.856  12.622
  621SOL    HW1 3637  11.317   5.945  12.657
  621SOL    HW2 3638  11.397   5.817  12.653
  622SOL     OW 3639  12.384   4.247   4.475
  622SOL    HW1 3640  12.368   4.153   4.465
  622SOL    HW2 3641  12.373   4.282   4.386
  623SOL     OW 3642   7.281   7.081  10.897
  623SOL    HW1 3643   7.245   7.136  10.967
  623SOL    HW2 3644   7.325   7.143  10.839
  624SOL     OW 3645   6.216  13.695   2.082
  624SOL    HW1 3646   6.242  13.630   2.147
  624SOL    HW2 3647   6.157  13.754   2.130
  625SOL     OW 3648   7.766   8.267   4.555
  625SOL    HW1 3649   7.840   8.258   4.615
  625SOL    HW2 3650   7.775   8.355   4.518
  626SOL     OW 3651   3.775  13.312  11.375
  626SOL    HW1 3652   3.820  13.267  11.304
  626SOL    HW2 3653   3.781  13.405  11.353
  627SOL     OW 3654   1.593   3.051   8.085
  627SOL    HW1 3655   1.612   3.013   7.999
  627SOL    HW2 3656   1.650   3.128   8.089
  628SOL     OW 3657  13.274   6.655   1.216
  628SOL    HW1 3658  13.353   6.631   1.264
  628SOL    HW2 3659  13.271   6.593   1.143
  629SOL     OW 3660   1.318   3.350   5.536
  629SOL    HW1 3661   1.300   3.377   5.446
  629SOL    HW2 3662   1.232   3.338   5.576
  630SOL     OW 3663   6.734   0.541   8.738
  630SOL    HW1 3664   6.748   0.460   8.688
  630SOL    HW2 3665   6.810   0.595   8.717
  631SOL     OW 3666   8.329   3.159   4.864
  631SOL    HW1 3667   8.420   3.172   4.888
  631SOL    HW2 3668   8.280   3.178   4.944
  632SOL     OW 3669   7.978   3.499  10.986
  632SOL    HW1 3670   7.979   3.475  10.893
  632SOL    HW2 3671   8.007   3.420  11.031
  633SOL     OW 3672  12.770   9.765  10.353
  633SOL    HW1 3673  12.809   9.778  10.266
  633SOL    HW2 3674  12.840   9.728  10.406
  634SOL     OW 3675  11.358   1.391   3.498
  634SOL    HW1 3676  11.305   1.470   3.510
  634SOL    HW2 3677  11.310   1.323   3.546
  635SOL     OW 3678   5.471   0.056   7.877
  635SOL    HW1 3679   5.500  14.855   7.838
  635SOL    HW2 3680   5.398   0.084   7.822
  636SOL     OW 3681   1.617   6.617  12.945
  636SOL    HW1 3682   1.566   6.541  12.918
  636SOL    HW2 3683   1.692   6.580  12.991
  637SOL     OW 3684  13.954   1.843   0.003
  637SOL    HW1 3685  14.046   1.816  14.875
  637SOL    HW2 3686  13.907   1.761   0.017
  638SOL     OW 3687   0.196   0.361   5.962
  638SOL    HW1 3688   0.185   0.437   6.020
  638SOL    HW2 3689   0.108   0.344   5.929
  639SOL     OW 3690   9.996  11.262   3.888
  639SOL    HW1 3691   9.951  11.212   3.820
  639SOL    HW2 3692  10.058  11.199   3.926
  640SOL     OW 3693   9.503   5.596   5.609
  640SOL    HW1 3694   9.482   5.676   5.560
  640SOL    HW2 3695   9.539   5.628   5.692
  641SOL     OW 3696   7.560  14.788  12.649
  641SOL    HW1 3697   7.549  14.860  12.587
  641SOL    HW2 3698   7.514  14.818  12.728
  642SOL     OW 3699  11.854   1.452   6.895
  642SOL    HW1 3700  11.766   1.434   6.863
  642SOL    HW2 3701  11.850   1.435   6.989
  643SOL     OW 3702   6.094  10.055   8.975
  643SOL    HW1 3703   6.037   9.987   8.941
  643SOL    HW2 3704   6.181  10.015   8.977
  644SOL     OW 3705   4.558   9.691   1.493
  644SOL    HW1 3706   4.491   9.626   1.473
  644SOL    HW2 3707   4.589   9.721   1.408
  645SOL     OW 3708   8.348  12.488  11.549
  645SOL    HW1 3709   8.306  12.513  11.467
  645SOL    HW2 3710   8.295  12.416  11.583
  646SOL     OW 3711   9.646   5.632   1.573
  646SOL    HW1 3712   9.582   5.586   1.628
  646SOL    HW2 3713   9.603   5.715   1.552
  647SOL     OW 3714   5.687  13.090   7.562
  647SOL    HW1 3715   5.625  13.142   7.511
  647SOL    HW2 3716   5.770  13.136   7.553
  648SOL     OW 3717  13.333   2.780   0.230
  648SOL    HW1 3718  13.414   2.831   0.230
  648SOL    HW2 3719  13.300   2.787   0.140
  649SOL     OW 3720  14.469   0.397  12.114
  649SOL    HW1 3721  14.479   0.484  12.077
  649SOL    HW2 3722  14.451   0.341  12.039
  650SOL     OW 3723   1.190   9.472   2.959
  650SOL    HW1 3724   1.189   9.400   2.896
  650SOL    HW2 3725   1.182   9.551   2.906
  651SOL     OW 3726   4.663  10.066   4.723
  651SOL    HW1 3727   4.648  10.093   4.814
  651SOL    HW2 3728   4.580  10.027   4.695
  652SOL     OW 3729   8.899   9.347  11.566
  652SOL    HW1 3730   8.855   9.333  11.482
  652SOL    HW2 3731   8.986   9.379  11.542
  653SOL     OW 3732   1.679   8.174   5.458
  653SOL    HW1 3733   1.603   8.187   5.401
  653SOL    HW2 3734   1.641   8.163   5.545
  654SOL     OW 3735   8.460   1.002   8.768
  654SOL    HW1 3736   8.518   1.078   8.776
  654SOL    HW2 3737   8.511   0.929   8.804
  655SOL     OW 3738   2.727   5.070   2.400
  655SOL    HW1 3739   2.690   5.126   2.469
  655SOL    HW2 3740   2.821   5.084   2.406
  656SOL     OW 3741   1.482  10.223  11.967
  656SOL    HW1 3742   1.576  10.237  11.961
  656SOL    HW2 3743   1.443  10.301  11.926
  657SOL     OW 3744   6.024   4.354   4.079
  657SOL    HW1 3745   6.076   4.279   4.051
  657SOL    HW2 3746   5.935   4.319   4.088
  658SOL     OW 3747  12.690   5.988   1.209
  658SOL    HW1 3748  12.673   6.082   1.209
  658SOL    HW2 3749  12.714   5.968   1.119
  659SOL     OW 3750  13.886  14.400   9.278
  659SOL    HW1 3751  13.958  14.393   9.341
  659SOL    HW2 3752  13.815  14.350   9.317
  660SOL     OW 3753  14.735   5.373   1.138
  660SOL    HW1 3754  14.700   5.421   1.213
  660SOL    HW2 3755  14.830   5.375   1.151
  661SOL     OW 3756  10.944   3.795   3.035
  661SOL    HW1 3757  11.017   3.841   3.078
  661SOL    HW2 3758  10.979   3.771   2.948
  662SOL     OW 3759  13.508   6.857   1.976
  662SOL    HW1 3760  13.588   6.822   2.016
  662SOL    HW2 3761  13.538   6.932   1.926
  663SOL     OW 3762   3.272  12.906   0.280
  663SOL    HW1 3763   3.272  12.868   0.368
  663SOL    HW2 3764   3.179  12.913   0.258
  664SOL     OW 3765   4.429  13.079  14.718
  664SOL    HW1 3766   4.462  13.050  14.633
  664SOL    HW2 3767   4.485  13.036  14.782
  665SOL     OW 3768   8.987   3.201   7.784
  665SOL    HW1 3769   8.912   3.143   7.791
  665SOL    HW2 3770   8.976   3.264   7.855
  666SOL     OW 3771  11.806   0.121  10.192
  666SOL    HW1 3772  11.738   0.167  10.241
  666SOL    HW2 3773  11.837   0.053  10.253
  667SOL     OW 3774   3.348   4.802  13.084
  667SOL    HW1 3775   3.401   4.742  13.032
  667SOL    HW2 3776   3.394   4.886  13.079
  668SOL     OW 3777   3.260  12.347  14.321
  668SOL    HW1 3778   3.245  12.369  14.413
  668SOL    HW2 3779   3.254  12.431  14.275
  669SOL     OW 3780   6.816   8.112   8.802
  669SOL    HW1 3781   6.888   8.049   8.799
  669SOL    HW2 3782   6.860   8.197   8.814
  670SOL     OW 3783  13.351   3.828   1.675
  670SOL    HW1 3784  13.323   3.905   1.626
  670SOL    HW2 3785  13.432   3.855   1.718
  671SOL     OW 3786  13.915  14.649   3.888
  671SOL    HW1 3787  13.898  14.716   3.822
  671SOL    HW2 3788  13.884  14.687   3.970
  672SOL     OW 3789   8.427  12.363  12.937
  672SOL    HW1 3790   8.404  12.358  12.844
  672SOL    HW2 3791   8.350  12.330  12.983
  673SOL     OW 3792  12.176   4.746   5.275
  673SOL    HW1 3793  12.267   4.737   5.247
  673SOL    HW2 3794  12.141   4.816   5.220
  674SOL     OW 3795   1.504   8.465   0.827
  674SOL    HW1 3796   1.519   8.447   0.734
  674SOL    HW2 3797   1.592   8.474   0.864
  675SOL     OW 3798   6.452   1.608  12.922
  675SOL    HW1 3799   6.509   1.663  12.868
  675SOL    HW2 3800   6.439   1.658  13.003
  676SOL     OW 3801   4.702   3.874  12.225
  676SOL    HW1 3802   4.768   3.828  12.277
  676SOL    HW2 3803   4.622   3.823  12.239
  677SOL     OW 3804   9.868   0.338   9.217
  677SOL    HW1 3805   9.955   0.343   9.256
  677SOL    HW2 3806   9.872   0.401   9.144
  678SOL     OW 3807   4.672   5.992   8.636
  678SOL    HW1 3808   4.685   5.910   8.589
  678SOL    HW2 3809   4.614   6.043   8.579
  679SOL     OW 3810  12.180   4.193  14.377
  679SOL    HW1 3811  12.186   4.116  14.321
  679SOL    HW2 3812  12.266   4.235  14.370
  680SOL     OW 3813   9.435   2.748  12.256
  680SOL    HW1 3814   9.359   2.739  12.315
  680SOL    HW2 3815   9.511   2.737  12.313
  681SOL     OW 3816  13.206  13.004  12.105
  681SOL    HW1 3817  13.130  12.967  12.151
  681SOL    HW2 3818  13.213  12.953  12.025
  682SOL     OW 3819  11.298   8.805  10.865
  682SOL    HW1 3820  11.210   8.795  10.901
  682SOL    HW2 3821  11.303   8.898  10.841
  683SOL     OW 3822   7.269   7.945   7.505
  683SOL    HW1 3823   7.363   7.955   7.520
  683SOL    HW2 3824   7.260   7.948   7.410
  684SOL     OW 3825  13.477   3.213   0.674
  684SOL    HW1 3826  13.476   3.152   0.749
  684SOL    HW2 3827  13.443   3.161   0.601
  685SOL     OW 3828  13.565   9.461   1.706
  685SOL    HW1 3829  13.636   9.430   1.649
  685SOL    HW2 3830  13.531   9.539   1.661
  686SOL     OW 3831   6.280   0.588  12.812
  686SOL    HW1 3832   6.326   0.588  12.728
  686SOL    HW2 3833   6.341   0.631  12.872
  687SOL     OW 3834   6.735   3.423   8.799
  687SOL    HW1 3835   6.689   3.487   8.745
  687SOL    HW2 3836   6.729   3.458   8.888
  688SOL     OW 3837   5.206  13.480   5.494
  688SOL    HW1 3838   5.288  13.436   5.473
  688SOL    HW2 3839   5.152  13.470   5.415
  689SOL     OW 3840  13.620   2.636   1.697
  689SOL    HW1 3841  13.687   2.584   1.742
  689SOL    HW2 3842  13.546   2.577   1.687
  690SOL     OW 3843  13.409  14.807  10.408
  690SOL    HW1 3844  13.352  14.822  10.483
  690SOL    HW2 3845  13.385  14.719  10.377
  691SOL     OW 3846  11.070  11.732   0.799
  691SOL    HW1 3847  11.141  11.782   0.840
  691SOL    HW2 3848  10.990  11.769   0.837
  692SOL     OW 3849  11.144   1.463   5.622
  692SOL    HW1 3850  11.167   1.537   5.679
  692SOL    HW2 3851  11.176   1.489   5.535
  693SOL     OW 3852   8.048  13.468   8.303
  693SOL    HW1 3853   7.995  13.515   8.238
  693SOL    HW2 3854   8.119  13.428   8.251
  694SOL     OW 3855   2.493   3.544   2.946
  694SOL    HW1 3856   2.429   3.530   3.016
  694SOL    HW2 3857   2.443   3.538   2.865
  695SOL     OW 3858   4.790   3.061   5.011
  695SOL    HW1 3859   4.738   3.141   5.024
  695SOL    HW2 3860   4.783   3.014   5.093
  696SOL     OW 3861   5.645   6.161  10.535
  696SOL    HW1 3862   5.680   6.250  10.532
  696SOL    HW2 3863   5.606   6.154  10.622
  697SOL     OW 3864   3.334   6.422  13.718
  697SOL    HW1 3865   3.397   6.401  13.649
  697SOL    HW2 3866   3.294   6.337  13.741
  698SOL     OW 3867  13.970   9.051  13.413
  698SOL    HW1 3868  13.913   8.997  13.469
  698SOL    HW2 3869  13.940   9.140  13.427
  699SOL     OW 3870  10.936   0.598   0.336
  699SOL    HW1 3871  10.945   0.508   0.304
  699SOL    HW2 3872  10.926   0.650   0.256
  700SOL     OW 3873  14.099   1.395   0.285
  700SOL    HW1 3874  14.133   1.457   0.351
  700SOL    HW2 3875  14.072   1.451   0.212
  701SOL     OW 3876   7.407   2.219   8.709
  701SOL    HW1 3877   7.455   2.261   8.781
  701SOL    HW2 3878   7.476   2.179   8.655
  702SOL     OW 3879   7.810   6.874   5.016
  702SOL    HW1 3880   7.716   6.863   5.030
  702SOL    HW2 3881   7.826   6.838   4.929
  703SOL     OW 3882   7.175   1.826   5.534
  703SOL    HW1 3883   7.265   1.855   5.549
  703SOL    HW2 3884   7.145   1.796   5.620
  704SOL     OW 3885   7.759   8.890   5.569
  704SOL    HW1 3886   7.850   8.894   5.599
  704SOL    HW2 3887   7.726   8.979   5.581
  705SOL     OW 3888   1.870  10.565   8.609
  705SOL    HW1 3889   1.847  10.551   8.701
  705SOL    HW2 3890   1.951  10.515   8.597
  706SOL     OW 3891   2.622   0.180   8.372
  706SOL    HW1 3892   2.630   0.266   8.412
  706SOL    HW2 3893   2.598   0.121   8.443
  707SOL     OW 3894   4.726   6.307   8.475
  707SOL    HW1 3895   4.666   6.237   8.501
  707SOL    HW2 3896   4.735   6.362   8.553
  708SOL     OW 3897   0.648   5.536   2.088
  708SOL    HW1 3898   0.663   5.466   2.152
  708SOL    HW2 3899   0.693   5.612   2.125
  709SOL     OW 3900   1.198  14.102   4.387
  709SOL    HW1 3901   1.186  14.047   4.465
  709SOL    HW2 3902   1.170  14.046   4.314
  710SOL     OW 3903   8.387   4.278   6.237
  710SOL    HW1 3904   8.455   4.227   6.281
  710SOL    HW2 3905   8.432   4.318   6.163
  711SOL     OW 3906  11.438   0.590   5.401
  711SOL    HW1 3907  11.352   0.550   5.415
  711SOL    HW2 3908  11.497   0.543   5.461
  712SOL     OW 3909   7.213   6.260   7.772
  712SOL    HW1 3910   7.189   6.313   7.848
  712SOL    HW2 3911   7.194   6.170   7.798
  713SOL     OW 3912   9.195  12.765   8.308
  713SOL    HW1 3913   9.156  12.851   8.291
  713SOL    HW2 3914   9.285  12.773   8.277
  714SOL     OW 3915   7.740  11.891   9.710
  714SOL    HW1 3916   7.832  11.912   9.724
  714SOL    HW2 3917   7.740  11.837   9.631
  715SOL     OW 3918  11.684   4.253   2.777
  715SOL    HW1 3919  11.732   4.180   2.817
  715SOL    HW2 3920  11.605   4.213   2.741
  716SOL     OW 3921   9.941   2.582  10.576
  716SOL    HW1 3922  10.015   2.636  10.548
  716SOL    HW2 3923   9.937   2.511  10.512
  717SOL     OW 3924   0.463   4.469   1.907
  717SOL    HW1 3925   0.427   4.551   1.875
  717SOL    HW2 3926   0.435   4.404   1.842
  718SOL     OW 3927  12.848   9.645   3.488
  718SOL    HW1 3928  12.773   9.700   3.512
  718SOL    HW2 3929  12.809   9.562   3.462
  719SOL     OW 3930  11.417   7.332   1.847
  719SOL    HW1 3931  11.421   7.284   1.765
  719SOL    HW2 3932  11.324   7.347   1.862
  720SOL     OW 3933  13.308   6.365   3.721
  720SOL    HW1 3934  13.250   6.441   3.716
  720SOL    HW2 3935  13.249   6.290   3.713
  721SOL     OW 3936   1.167   7.536   6.931
  721SOL    HW1 3937   1.230   7.592   6.886
  721SOL    HW2 3938   1.221   7.474   6.980
  722SOL     OW 3939   4.192  12.311   5.201
  722SOL    HW1 3940   4.272  12.333   5.249
  722SOL    HW2 3941   4.121  12.332   5.262
  723SOL     OW 3942   8.969  11.236  14.569
  723SOL    HW1 3943   8.914  11.196  14.637
  723SOL    HW2 3944   9.043  11.272  14.618
  724SOL     OW 3945  13.236  11.838  10.435
  724SOL    HW1 3946  13.201  11.854  10.522
  724SOL    HW2 3947  13.255  11.926  10.401
  725SOL     OW 3948  12.115   8.893   2.502
  725SOL    HW1 3949  12.027   8.895   2.464
  725SOL    HW2 3950  12.169   8.853   2.434
  726SOL     OW 3951   5.513   3.708  11.099
  726SOL    HW1 3952   5.608   3.723  11.092
  726SOL    HW2 3953   5.484   3.700  11.008
  727SOL     OW 3954  14.656   2.960  11.444
  727SOL    HW1 3955  14.645   2.887  11.504
  727SOL    HW2 3956  14.595   3.026  11.474
  728SOL     OW 3957   0.683   2.989  11.552
  728SOL    HW1 3958   0.670   2.991  11.458
  728SOL    HW2 3959   0.742   3.062  11.570
  729SOL     OW 3960  13.793   0.537  13.385
  729SOL    HW1 3961  13.763   0.451  13.414
  729SOL    HW2 3962  13.806   0.528  13.291
  730SOL     OW 3963  11.038   9.518  13.125
  730SOL    HW1 3964  10.959   9.565  13.152
  730SOL    HW2 3965  11.038   9.525  13.030
  731SOL     OW 3966   9.806  11.668  12.288
  731SOL    HW1 3967   9.757  11.721  12.226
  731SOL    HW2 3968   9.897  11.696  12.278
  732SOL     OW 3969   5.668  11.415   1.373
  732SOL    HW1 3970   5.723  11.450   1.443
  732SOL    HW2 3971   5.653  11.324   1.398
  733SOL     OW 3972   9.986  12.518   4.555
  733SOL    HW1 3973  10.003  12.430   4.522
  733SOL    HW2 3974   9.953  12.504   4.644
  734SOL     OW 3975   2.960  12.687   9.949
  734SOL    HW1 3976   2.902  12.762   9.957
  734SOL    HW2 3977   2.902  12.614   9.926
  735SOL     OW 3978   0.100   6.570   6.922
  735SOL    HW1 3979   0.169   6.528   6.871
  735SOL    HW2 3980   0.018   6.538   6.884
  736SOL     OW 3981   4.116   3.530   8.202
  736SOL    HW1 3982   4.185   3.581   8.159
  736SOL    HW2 3983   4.163   3.473   8.263
  737SOL     OW 3984   7.815  13.741   5.596
  737SOL    HW1 3985   7.799  13.784   5.512
  737SOL    HW2 3986   7.728  13.728   5.633
  738SOL     OW 3987   2.185   0.884  14.869
  738SOL    HW1 3988   2.239   0.952  14.828
  738SOL    HW2 3989   2.178   0.816  14.802
  739SOL     OW 3990   8.163  13.941   1.304
  739SOL    HW1 3991   8.105  13.908   1.373
  739SOL    HW2 3992   8.236  13.980   1.352
  740SOL     OW 3993  13.491  11.147   3.420
  740SOL    HW1 3994  13.560  11.082   3.408
  740SOL    HW2 3995  13.511  11.189   3.503
  741SOL     OW 3996  12.448   3.773   5.378
  741SOL    HW1 3997  12.427   3.705   5.315
  741SOL    HW2 3998  12.369   3.781   5.431
  742SOL     OW 3999   7.787  13.295   6.461
  742SOL    HW1 4000   7.697  13.262   6.459
  742SOL    HW2 4001   7.841  13.220   6.436
  743SOL     OW 4002   1.915  12.281   3.687
  743SOL    HW1 4003   1.927  12.218   3.616
  743SOL    HW2 4004   1.899  12.227   3.764
  744SOL     OW 4005  10.801   4.025   9.389
  744SOL    HW1 4006  10.796   4.066   9.303
  744SOL    HW2 4007  10.744   4.079   9.445
  745SOL     OW 4008  12.897   5.216   8.947
  745SOL    HW1 4009  12.889   5.308   8.921
  745SOL    HW2 4010  12.807   5.189   8.967
  746SOL     OW 4011   2.776   7.780   0.837
  746SOL    HW1 4012   2.844   7.839   0.870
  746SOL    HW2 4013   2.738   7.740   0.915
  747SOL     OW 4014   1.883  11.390   0.706
  747SOL    HW1 4015   1.964  11.406   0.754
  747SOL    HW2 4016   1.898  11.308   0.660
  748SOL     OW 4017   0.931   4.080   5.142
  748SOL    HW1 4018   0.965   3.999   5.180
  748SOL    HW2 4019   0.977   4.087   5.058
  749SOL     OW 4020   5.268   6.186  11.744
  749SOL    HW1 4021   5.296   6.277  11.741
  749SOL    HW2 4022   5.187   6.187  11.794
  750SOL     OW 4023   8.889   6.114   4.997
  750SOL    HW1 4024   8.863   6.099   4.906
  750SOL    HW2 4025   8.925   6.203   4.997
  751SOL     OW 4026   9.664  10.043   6.089
  751SOL    HW1 4027   9.577  10.048   6.048
  751SOL    HW2 4028   9.721  10.008   6.020
  752SOL     OW 4029   9.799  13.702  10.695
  752SOL    HW1 4030   9.883  13.674  10.659
  752SOL    HW2 4031   9.736  13.682  10.626
  753SOL     OW 4032  13.689  11.723   8.810
  753SOL    HW1 4033  13.669  11.794   8.749
  753SOL    HW2 4034  13.663  11.643   8.763
  754SOL     OW 4035   0.534   8.398  10.846
  754SOL    HW1 4036   0.441   8.415  10.831
  754SOL    HW2 4037   0.573   8.485  10.858
  755SOL     OW 4038  13.993  13.649  10.546
  755SOL    HW1 4039  13.937  13.574  10.565
  755SOL    HW2 4040  14.078  13.626  10.583
  756SOL     OW 4041   9.696   6.066   2.662
  756SOL    HW1 4042   9.689   6.139   2.725
  756SOL    HW2 4043   9.728   5.993   2.715
  757SOL     OW 4044   2.835   7.480   6.130
  757SOL    HW1 4045   2.827   7.414   6.199
  757SOL    HW2 4046   2.904   7.446   6.073
  758SOL     OW 4047  10.110   5.116   0.392
  758SOL    HW1 4048  10.162   5.190   0.361
  758SOL    HW2 4049  10.026   5.125   0.346
  759SOL     OW 4050  12.442   4.431   4.012
  759SOL    HW1 4051  12.535   4.409   4.020
  759SOL    HW2 4052  12.440   4.526   4.019
  760SOL     OW 4053   0.439   9.202   5.331
  760SOL    HW1 4054   0.479   9.206   5.417
  760SOL    HW2 4055   0.493   9.140   5.282
  761SOL     OW 4056   8.686   9.316  10.386
  761SOL    HW1 4057   8.688   9.401  10.429
  761SOL    HW2 4058   8.593   9.301  10.367
  762SOL     OW 4059   3.777   4.324   1.138
  762SOL    HW1 4060   3.795   4.403   1.189
  762SOL    HW2 4061   3.840   4.328   1.065
  763SOL     OW 4062  10.512  12.786   3.246
  763SOL    HW1 4063  10.520  12.799   3.152
  763SOL    HW2 4064  10.419  12.767   3.260
  764SOL     OW 4065   3.837   3.032   9.531
  764SOL    HW1 4066   3.774   3.010   9.600
  764SOL    HW2 4067   3.921   3.002   9.565
  765SOL     OW 4068   2.856   5.834  11.623
  765SOL    HW1 4069   2.860   5.923  11.587
  765SOL    HW2 4070   2.878   5.777  11.550
  766SOL     OW 4071   3.207   3.621   3.152
  766SOL    HW1 4072   3.170   3.596   3.236
  766SOL    HW2 4073   3.201   3.717   3.150
  767SOL     OW 4074   0.385   4.380  10.278
  767SOL    HW1 4075   0.377   4.325  10.356
  767SOL    HW2 4076   0.298   4.376  10.237
  768SOL     OW 4077   4.506   3.495   2.689
  768SOL    HW1 4078   4.412   3.482   2.698
  768SOL    HW2 4079   4.543   3.454   2.767
  769SOL     OW 4080   4.765   5.121   5.719
  769SOL    HW1 4081   4.713   5.200   5.726
  769SOL    HW2 4082   4.790   5.115   5.627
  770SOL     OW 4083   2.008   7.501  11.398
  770SOL    HW1 4084   2.044   7.570  11.455
  770SOL    HW2 4085   2.060   7.507  11.318
  771SOL     OW 4086   5.434  10.551   8.093
  771SOL    HW1 4087   5.492  10.610   8.045
  771SOL    HW2 4088   5.491  10.501   8.150
  772SOL     OW 4089  12.258   2.906  13.427
  772SOL    HW1 4090  12.177   2.933  13.469
  772SOL    HW2 4091  12.232   2.831  13.372
  773SOL     OW 4092   5.125   2.507   5.452
  773SOL    HW1 4093   5.122   2.480   5.544
  773SOL    HW2 4094   5.165   2.594   5.454
  774SOL     OW 4095   2.347  12.490   9.906
  774SOL    HW1 4096   2.275  12.501   9.844
  774SOL    HW2 4097   2.360  12.396   9.911
  775SOL     OW 4098   7.890   9.618  12.756
  775SOL    HW1 4099   7.931   9.701  12.731
  775SOL    HW2 4100   7.809   9.615  12.705
  776SOL     OW 4101  14.182  12.263   6.669
  776SOL    HW1 4102  14.101  12.239   6.624
  776SOL    HW2 4103  14.209  12.345   6.628
  777SOL     OW 4104   7.381   1.014  12.809
  777SOL    HW1 4105   7.423   0.970  12.734
  777SOL    HW2 4106   7.454   1.042  12.864
  778SOL     OW 4107   9.785  13.643  12.322
  778SOL    HW1 4108   9.879  13.623  12.322
  778SOL    HW2 4109   9.756  13.621  12.410
  779SOL     OW 4110   7.828   7.522   0.610
  779SOL    HW1 4111   7.873   7.515   0.695
  779SOL    HW2 4112   7.899   7.516   0.546
  780SOL     OW 4113   9.051   3.449  14.010
  780SOL    HW1 4114   9.127   3.418  13.961
  780SOL    HW2 4115   9.082   3.527  14.056
  781SOL     OW 4116   9.243   3.508   2.125
  781SOL    HW1 4117   9.263   3.419   2.097
  781SOL    HW2 4118   9.293   3.563   2.066
  782SOL     OW 4119   6.834   1.648   5.989
  782SOL    HW1 4120   6.743   1.627   5.966
  782SOL    HW2 4121   6.882   1.567   5.972
  783SOL     OW 4122   6.663  12.223   2.680
  783SOL    HW1 4123   6.710  12.184   2.754
  783SOL    HW2 4124   6.677  12.317   2.690
  784SOL     OW 4125  11.927   7.500  11.921
  784SOL    HW1 4126  11.853   7.439  11.917
  784SOL    HW2 4127  11.987   7.469  11.853
  785SOL     OW 4128  11.335   5.321   7.095
  785SOL    HW1 4129  11.291   5.326   7.011
  785SOL    HW2 4130  11.319   5.232   7.126
  786SOL     OW 4131   9.928   7.800   5.032
  786SOL    HW1 4132   9.987   7.758   5.096
  786SOL    HW2 4133   9.901   7.729   4.974
  787SOL     OW 4134   5.904   5.126   1.437
  787SOL    HW1 4135   5.839   5.081   1.383
  787SOL    HW2 4136   5.852   5.185   1.492
  788SOL     OW 4137  10.267   3.311   1.526
  788SOL    HW1 4138  10.320   3.345   1.454
  788SOL    HW2 4139  10.215   3.242   1.487
  789SOL     OW 4140   9.645   9.607   2.552
  789SOL    HW1 4141   9.665   9.618   2.459
  789SOL    HW2 4142   9.643   9.696   2.587
  790SOL     OW 4143  13.613   5.141  11.154
  790SOL    HW1 4144  13.684   5.175  11.100
  790SOL    HW2 4145  13.581   5.065  11.107
  791SOL     OW 4146   4.165   9.610   8.603
  791SOL    HW1 4147   4.080   9.650   8.586
  791SOL    HW2 4148   4.178   9.549   8.530
  792SOL     OW 4149  12.508  13.652   0.695
  792SOL    HW1 4150  12.456  13.733   0.701
  792SOL    HW2 4151  12.599  13.682   0.700
  793SOL     OW 4152   6.544   8.740   4.469
  793SOL    HW1 4153   6.552   8.834   4.487
  793SOL    HW2 4154   6.634   8.709   4.461
  794SOL     OW 4155   4.946  13.180   2.803
  794SOL    HW1 4156   5.021  13.134   2.763
  794SOL    HW2 4157   4.909  13.230   2.731
  795SOL     OW 4158   0.967   9.778   7.566
  795SOL    HW1 4159   1.015   9.837   7.508
  795SOL    HW2 4160   0.882   9.768   7.524
  796SOL     OW 4161   9.742   1.243   6.637
  796SOL    HW1 4162   9.762   1.271   6.727
  796SOL    HW2 4163   9.811   1.282   6.584
  797SOL     OW 4164   8.544  13.642   5.241
  797SOL    HW1 4165   8.458  13.676   5.216
  797SOL    HW2 4166   8.600  13.719   5.243
  798SOL     OW 4167  11.202  11.545  11.499
  798SOL    HW1 4168  11.270  11.482  11.523
  798SOL    HW2 4169  11.130  11.526  11.558
  799SOL     OW 4170   7.264  12.381  11.722
  799SOL    HW1 4171   7.351  12.416  11.701
  799SOL    HW2 4172   7.222  12.451  11.772
  800SOL     OW 4173   8.411  13.851   6.661
  800SOL    HW1 4174   8.443  13.935   6.628
  800SOL    HW2 4175   8.400  13.797   6.583
  801SOL     OW 4176   0.073   9.709   0.067
  801SOL    HW1 4177   0.109   9.797   0.074
  801SOL    HW2 4178   0.023   9.710  14.867
  802SOL     OW 4179   6.217   7.691  13.060
  802SOL    HW1 4180   6.280   7.753  13.098
  802SOL    HW2 4181   6.269   7.641  12.997
  803SOL     OW 4182   5.398  11.837   1.171
  803SOL    HW1 4183   5.341  11.786   1.113
  803SOL    HW2 4184   5.422  11.913   1.119
  804SOL     OW 4185   8.198   8.907   0.735
  804SOL    HW1 4186   8.133   8.844   0.765
  804SOL    HW2 4187   8.159   8.947   0.657
  805SOL     OW 4188   5.263   5.800  11.969
  805SOL    HW1 4189   5.310   5.717  11.964
  805SOL    HW2 4190   5.234   5.806  12.060
  806SOL     OW 4191  13.231  14.334   7.766
  806SOL    HW1 4192  13.300  14.277   7.733
  806SOL    HW2 4193  13.262  14.423   7.746
  807SOL     OW 4194   3.111   7.837   0.525
  807SOL    HW1 4195   3.026   7.882   0.527
  807SOL    HW2 4196   3.113   7.787   0.607
  808SOL     OW 4197   1.440   7.190   3.755
  808SOL    HW1 4198   1.493   7.185   3.676
  808SOL    HW2 4199   1.447   7.280   3.784
  809SOL     OW 4200   4.112   1.577  10.696
  809SOL    HW1 4201   4.163   1.625  10.761
  809SOL    HW2 4202   4.097   1.491  10.735
  810SOL     OW 4203   5.792   6.324   7.605
  810SOL    HW1 4204   5.778   6.378   7.682
  810SOL    HW2 4205   5.887   6.316   7.597
  811SOL     OW 4206  13.985  10.634   5.629
  811SOL    HW1 4207  14.030  10.718   5.636
  811SOL    HW2 4208  13.892  10.654   5.639
  812SOL     OW 4209   6.659   0.718   9.862
  812SOL    HW1 4210   6.730   0.680   9.915
  812SOL    HW2 4211   6.622   0.644   9.815
  813SOL     OW 4212  13.654   5.188   9.599
  813SOL    HW1 4213  13.611   5.273   9.592
  813SOL    HW2 4214  13.730   5.195   9.541
  814SOL     OW 4215   3.920  10.776   2.410
  814SOL    HW1 4216   3.934  10.836   2.337
  814SOL    HW2 4217   3.827  10.786   2.432
  815SOL     OW 4218  10.951   4.737   1.228
  815SOL    HW1 4219  10.981   4.703   1.312
  815SOL    HW2 4220  11.031   4.770   1.186
  816SOL     OW 4221   6.724  12.460   1.196
  816SOL    HW1 4222   6.666  12.471   1.271
  816SOL    HW2 4223   6.780  12.537   1.197
  817SOL     OW 4224   2.279  11.743   9.351
  817SOL    HW1 4225   2.235  11.825   9.373
  817SOL    HW2 4226   2.260  11.729   9.258
  818SOL     OW 4227  13.324   5.053   9.201
  818SOL    HW1 4228  13.297   4.963   9.188
  818SOL    HW2 4229  13.266   5.104   9.145
  819SOL     OW 4230   9.865   5.222   0.299
  819SOL    HW1 4231   9.821   5.173   0.230
  819SOL    HW2 4232   9.820   5.197   0.379
  820SOL     OW 4233   4.766   5.511  11.406
  820SOL    HW1 4234   4.677   5.482  11.425
  820SOL    HW2 4235   4.769   5.519  11.311
  821SOL     OW 4236   6.906   6.425   5.578
  821SOL    HW1 4237   6.944   6.511   5.596
  821SOL    HW2 4238   6.915   6.378   5.661
  822SOL     OW 4239   6.313   9.873  14.482
  822SOL    HW1 4240   6.385   9.897  14.540
  822SOL    HW2 4241   6.235   9.906  14.526
  823SOL     OW 4242   6.594   3.133  12.595
  823SOL    HW1 4243   6.661   3.197  12.569
  823SOL    HW2 4244   6.514   3.184  12.606
  824SOL     OW 4245   0.130   7.525  14.870
  824SOL    HW1 4246   0.079   7.550  14.793
  824SOL    HW2 4247   0.152   7.608   0.030
  825SOL     OW 4248  11.476   6.254   1.428
  825SOL    HW1 4249  11.523   6.235   1.509
  825SOL    HW2 4250  11.433   6.338   1.445
  826SOL     OW 4251   4.426   8.715   6.771
  826SOL    HW1 4252   4.505   8.700   6.720
  826SOL    HW2 4253   4.381   8.631   6.772
  827SOL     OW 4254  12.531   1.312   2.356
  827SOL    HW1 4255  12.610   1.364   2.368
  827SOL    HW2 4256  12.510   1.320   2.263
  828SOL     OW 4257   0.240   6.909   7.873
  828SOL    HW1 4258   0.327   6.941   7.849
  828SOL    HW2 4259   0.212   6.857   7.797
  829SOL     OW 4260   2.656   1.280   9.100
  829SOL    HW1 4261   2.600   1.355   9.114
  829SOL    HW2 4262   2.602   1.218   9.051
  830SOL     OW 4263  11.338   6.124  12.717
  830SOL    HW1 4264  11.258   6.149  12.671
  830SOL    HW2 4265  11.407   6.176  12.676
  831SOL     OW 4266  12.626  10.022   2.073
  831SOL    HW1 4267  12.534  10.047   2.064
  831SOL    HW2 4268  12.653  10.060   2.156
  832SOL     OW 4269   0.229   4.959  10.650
  832SOL    HW1 4270   0.211   4.885  10.710
  832SOL    HW2 4271   0.249   4.917  10.567
  833SOL     OW 4272  10.014  11.768   3.839
  833SOL    HW1 4273   9.927  11.807   3.847
  833SOL    HW2 4274   9.997  11.675   3.822
  834SOL     OW 4275  11.133  11.787  12.693
  834SOL    HW1 4276  11.220  11.773  12.656
  834SOL    HW2 4277  11.072  11.765  12.622
  835SOL     OW 4278   2.540  14.245   9.511
  835SOL    HW1 4279   2.516  14.266   9.420
  835SOL    HW2 4280   2.468  14.281   9.563
  836SOL     OW 4281  12.506  10.298  13.595
  836SOL    HW1 4282  12.470  10.243  13.525
  836SOL    HW2 4283  12.531  10.379  13.551
  837SOL     OW 4284   9.929   4.788   3.981
  837SOL    HW1 4285   9.877   4.818   3.907
  837SOL    HW2 4286   9.924   4.693   3.977
  838SOL     OW 4287   2.372   1.962  13.104
  838SOL    HW1 4288   2.375   1.866  13.110
  838SOL    HW2 4289   2.360   1.979  13.010
  839SOL     OW 4290   2.624  13.060  14.684
  839SOL    HW1 4291   2.685  13.077  14.756
  839SOL    HW2 4292   2.556  13.005  14.723
  840SOL     OW 4293  12.019  12.721   3.618
  840SOL    HW1 4294  11.986  12.786   3.680
  840SOL    HW2 4295  12.072  12.771   3.556
  841SOL     OW 4296  11.165   4.066   9.158
  841SOL    HW1 4297  11.128   4.100   9.076
  841SOL    HW2 4298  11.258   4.050   9.138
  842SOL     OW 4299   7.564   7.958   3.052
  842SOL    HW1 4300   7.619   7.942   2.976
  842SOL    HW2 4301   7.543   8.052   3.047
  843SOL     OW 4302   1.651  13.515  12.239
  843SOL    HW1 4303   1.659  13.609  12.225
  843SOL    HW2 4304   1.720  13.494  12.302
  844SOL     OW 4305  11.110  12.061   7.872
  844SOL    HW1 4306  11.172  11.992   7.850
  844SOL    HW2 4307  11.046  12.018   7.929
  845SOL     OW 4308   9.228   0.769  10.504
  845SOL    HW1 4309   9.300   0.735  10.451
  845SOL    HW2 4310   9.159   0.789  10.440
  846SOL     OW 4311  13.978   5.743   8.777
  846SOL    HW1 4312  13.929   5.706   8.704
  846SOL    HW2 4313  13.927   5.719   8.855
  847SOL     OW 4314  11.866  13.495   7.546
  847SOL    HW1 4315  11.790  13.551   7.564
  847SOL    HW2 4316  11.921  13.548   7.488
  848SOL     OW 4317  13.221   0.450   7.729
  848SOL    HW1 4318  13.207   0.382   7.795
  848SOL    HW2 4319  13.200   0.407   7.646
  849SOL     OW 4320   4.359   9.008  13.644
  849SOL    HW1 4321   4.407   9.026  13.562
  849SOL    HW2 4322   4.411   8.941  13.687
  850SOL     OW 4323  14.809   8.512   6.028
  850SOL    HW1 4324  14.860   8.441   5.991
  850SOL    HW2 4325  14.719   8.493   6.002
  851SOL     OW 4326   9.898   4.475   6.449
  851SOL    HW1 4327   9.899   4.381   6.468
  851SOL    HW2 4328   9.805   4.498   6.449
  852SOL     OW 4329   5.627  12.364   9.091
  852SOL    HW1 4330   5.670  12.279   9.095
  852SOL    HW2 4331   5.610  12.378   8.998
  853SOL     OW 4332   9.889   8.270   6.969
  853SOL    HW1 4333   9.936   8.272   7.053
  853SOL    HW2 4334   9.885   8.361   6.941
  854SOL     OW 4335  12.382  14.687   5.738
  854SOL    HW1 4336  12.287  14.693   5.750
  854SOL    HW2 4337  12.397  14.595   5.717
  855SOL     OW 4338   7.145   4.861   3.788
  855SOL    HW1 4339   7.101   4.778   3.806
  855SOL    HW2 4340   7.233   4.850   3.826
  856SOL     OW 4341  10.339   1.914  11.200
  856SOL    HW1 4342  10.294   1.847  11.149
  856SOL    HW2 4343  10.335   1.992  11.146
  857SOL     OW 4344   2.562   4.704   4.310
  857SOL    HW1 4345   2.555   4.776   4.372
  857SOL    HW2 4346   2.472   4.682   4.287
  858SOL     OW 4347   8.232  10.503   8.667
  858SOL    HW1 4348   8.322  10.506   8.636
  858SOL    HW2 4349   8.206  10.411   8.657
  859SOL     OW 4350  14.150  12.216  12.172
  859SOL    HW1 4351  14.141  12.231  12.078
  859SOL    HW2 4352  14.240  12.241  12.192
  860SOL     OW 4353   9.471  14.697   2.629
  860SOL    HW1 4354   9.532  14.759   2.669
  860SOL    HW2 4355   9.525  14.647   2.567
  861SOL     OW 4356  10.461  10.562  12.282
  861SOL    HW1 4357  10.415  10.614  12.216
  861SOL    HW2 4358  10.541  10.612  12.301
  862SOL     OW 4359  13.585   8.027   0.793
  862SOL    HW1 4360  13.558   7.994   0.879
  862SOL    HW2 4361  13.675   7.998   0.783
  863SOL     OW 4362   5.654  14.526  14.305
  863SOL    HW1 4363   5.687  14.481  14.382
  863SOL    HW2 4364   5.596  14.462  14.262
  864SOL     OW 4365  14.290  13.845   5.184
  864SOL    HW1 4366  14.382  13.867   5.167
  864SOL    HW2 4367  14.293  13.767   5.240
  865SOL     OW 4368   5.603   6.548   3.921
  865SOL    HW1 4369   5.617   6.619   3.984
  865SOL    HW2 4370   5.535   6.494   3.961
  866SOL     OW 4371   2.809  12.514   6.945
  866SOL    HW1 4372   2.788  12.598   6.905
  866SOL    HW2 4373   2.795  12.528   7.039
  867SOL     OW 4374  14.809   8.883   2.130
  867SOL    HW1 4375  14.763   8.908   2.210
  867SOL    HW2 4376  14.740   8.854   2.070
  868SOL     OW 4377   8.297   2.948   2.776
  868SOL    HW1 4378   8.372   2.894   2.801
  868SOL    HW2 4379   8.263   2.906   2.696
  869SOL     OW 4380   9.467   7.715  14.617
  869SOL    HW1 4381   9.440   7.666  14.539
  869SOL    HW2 4382   9.562   7.702  14.622
  870SOL     OW 4383   7.119  12.484   6.139
  870SOL    HW1 4384   7.110  12.408   6.082
  870SOL    HW2 4385   7.153  12.553   6.082
  871SOL     OW 4386   0.330   5.806   2.880
  871SOL    HW1 4387   0.257   5.866   2.892
  871SOL    HW2 4388   0.348   5.808   2.786
  872SOL     OW 4389   4.919   3.522   1.702
  872SOL    HW1 4390   4.903   3.562   1.787
  872SOL    HW2 4391   5.014   3.513   1.697
  873SOL     OW 4392  11.159  14.001   0.419
  873SOL    HW1 4393  11.242  13.995   0.371
  873SOL    HW2 4394  11.099  14.044   0.359
  874SOL     OW 4395   9.550   5.348   7.619
  874SOL    HW1 4396   9.596   5.424   7.654
  874SOL    HW2 4397   9.554   5.359   7.524
  875SOL     OW 4398   9.224  14.164  11.018
  875SOL    HW1 4399   9.137  14.157  11.059
  875SOL    HW2 4400   9.253  14.253  11.041
  876SOL     OW 4401  12.669   8.027   5.544
  876SOL    HW1 4402  12.689   8.119   5.529
  876SOL    HW2 4403  12.579   8.027   5.579
  877SOL     OW 4404   2.666   9.151   1.857
  877SOL    HW1 4405   2.622   9.066   1.855
  877SOL    HW2 4406   2.739   9.143   1.796
  878SOL     OW 4407   5.637   3.870   6.906
  878SOL    HW1 4408   5.711   3.889   6.964
  878SOL    HW2 4409   5.606   3.956   6.878
  879SOL     OW 4410  13.401  12.406   6.466
  879SOL    HW1 4411  13.410  12.432   6.558
  879SOL    HW2 4412  13.314  12.368   6.461
  880SOL     OW 4413  10.925  11.207   2.064
  880SOL    HW1 4414  10.940  11.224   2.157
  880SOL    HW2 4415  11.010  11.180   2.030
  881SOL     OW 4416  13.390   4.094  13.208
  881SOL    HW1 4417  13.402   4.139  13.125
  881SOL    HW2 4418  13.383   4.164  13.273
  882SOL     OW 4419   3.307  10.907   3.536
  882SOL    HW1 4420   3.338  10.996   3.518
  882SOL    HW2 4421   3.388  10.855   3.543
  883SOL     OW 4422   3.603  13.921  11.353
  883SOL    HW1 4423   3.598  13.828  11.375
  883SOL    HW2 4424   3.676  13.954  11.405
  884SOL     OW 4425  13.910   1.000   6.556
  884SOL    HW1 4426  13.930   1.050   6.634
  884SOL    HW2 4427  13.982   1.019   6.496
  885SOL     OW 4428  11.347   5.352  14.552
  885SOL    HW1 4429  11.394   5.272  14.575
  885SOL    HW2 4430  11.259   5.338  14.586
  886SOL     OW 4431  13.286   5.678   8.544
  886SOL    HW1 4432  13.245   5.752   8.589
  886SOL    HW2 4433  13.216   5.612   8.539
  887SOL     OW 4434   7.773   2.131  12.830
  887SOL    HW1 4435   7.802   2.148  12.740
  887SOL    HW2 4436   7.688   2.089  12.820
  888SOL     OW 4437   7.354   9.913   0.970
  888SOL    HW1 4438   7.280   9.972   0.983
  888SOL    HW2 4439   7.354   9.894   0.876
  889SOL     OW 4440   4.539   3.190   0.822
  889SOL    HW1 4441   4.519   3.103   0.855
  889SOL    HW2 4442   4.454   3.232   0.809
  890SOL     OW 4443  14.847   3.641  14.604
  890SOL    HW1 4444  14.821   3.662  14.694
  890SOL    HW2 4445  14.865   3.547  14.605
  891SOL     OW 4446   8.547   4.925   3.119
  891SOL    HW1 4447   8.536   4.999   3.178
  891SOL    HW2 4448   8.478   4.934   3.054
  892SOL     OW 4449   9.867   8.888   2.263
  892SOL    HW1 4450   9.786   8.912   2.308
  892SOL    HW2 4451   9.842   8.878   2.172
  893SOL     OW 4452   6.870   3.541   7.741
  893SOL    HW1 4453   6.797   3.564   7.797
  893SOL    HW2 4454   6.839   3.558   7.652
  894SOL     OW 4455   7.363   2.186   1.946
  894SOL    HW1 4456   7.315   2.127   1.887
  894SOL    HW2 4457   7.455   2.171   1.925
  895SOL     OW 4458   6.706   3.280   3.928
  895SOL    HW1 4459   6.722   3.365   3.968
  895SOL    HW2 4460   6.781   3.227   3.952
  896SOL     OW 4461   9.856   9.767  11.249
  896SOL    HW1 4462   9.766   9.761  11.279
  896SOL    HW2 4463   9.857   9.723  11.165
  897SOL     OW 4464   0.789  11.468  13.737
  897SOL    HW1 4465   0.694  11.456  13.733
  897SOL    HW2 4466   0.804  11.511  13.821
  898SOL     OW 4467   6.116  14.223  13.918
  898SOL    HW1 4468   6.094  14.139  13.877
  898SOL    HW2 4469   6.206  14.240  13.891
  899SOL     OW 4470   0.684  12.248   5.562
  899SOL    HW1 4471   0.747  12.315   5.589
  899SOL    HW2 4472   0.732  12.165   5.572
  900SOL     OW 4473   9.425   4.003  11.411
  900SOL    HW1 4474   9.403   4.096  11.419
  900SOL    HW2 4475   9.437   3.990  11.317
  901SOL     OW 4476   7.306  10.904   3.456
  901SOL    HW1 4477   7.357  10.899   3.375
  901SOL    HW2 4478   7.231  10.847   3.441
  902SOL     OW 4479  13.576  11.755   7.493
  902SOL    HW1 4480  13.501  11.792   7.540
  902SOL    HW2 4481  13.624  11.831   7.460
  903SOL     OW 4482  14.541  14.655   8.429
  903SOL    HW1 4483  14.569  14.593   8.496
  903SOL    HW2 4484  14.622  14.690   8.393
  904SOL     OW 4485   0.907   8.160  11.675
  904SOL    HW1 4486   0.878   8.125  11.591
  904SOL    HW2 4487   0.903   8.255  11.664
  905SOL     OW 4488  10.522  14.093  14.370
  905SOL    HW1 4489  10.604  14.044  14.376
  905SOL    HW2 4490  10.454  14.026  14.380
  906SOL     OW 4491   3.542   2.318   6.822
  906SOL    HW1 4492   3.494   2.260   6.763
  906SOL    HW2 4493   3.627   2.331   6.778
  907SOL     OW 4494   5.165  10.920   0.821
  907SOL    HW1 4495   5.166  10.924   0.725
  907SOL    HW2 4496   5.244  10.871   0.843
  908SOL     OW 4497   8.981  12.031  13.820
  908SOL    HW1 4498   8.936  12.009  13.901
  908SOL    HW2 4499   9.031  12.110  13.840
  909SOL     OW 4500   5.991  10.025  14.018
  909SOL    HW1 4501   6.016   9.935  13.996
  909SOL    HW2 4502   5.899  10.018  14.045
  910SOL     OW 4503   2.817   7.398  10.967
  910SOL    HW1 4504   2.891   7.458  10.959
  910SOL    HW2 4505   2.838   7.344  11.044
  911SOL     OW 4506   3.839   4.378  13.023
  911SOL    HW1 4507   3.883   4.446  12.973
  911SOL    HW2 4508   3.846   4.406  13.114
  912SOL     OW 4509   8.841   6.713  14.775
  912SOL    HW1 4510   8.886   6.696  14.858
  912SOL    HW2 4511   8.750   6.689  14.792
  913SOL     OW 4512   1.027   1.960  12.764
  913SOL    HW1 4513   0.990   1.931  12.848
  913SOL    HW2 4514   1.008   1.889  12.703
  914SOL     OW 4515   0.532  11.270  13.213
  914SOL    HW1 4516   0.494  11.182  13.217
  914SOL    HW2 4517   0.586  11.269  13.135
  915SOL     OW 4518  10.597   6.676  13.875
  915SOL    HW1 4519  10.591   6.739  13.803
  915SOL    HW2 4520  10.675   6.703  13.924
  916SOL     OW 4521   1.031   2.549   6.698
  916SOL    HW1 4522   0.952   2.525   6.747
  916SOL    HW2 4523   1.013   2.637   6.664
  917SOL     OW 4524   1.837  10.750   3.602
  917SOL    HW1 4525   1.919  10.709   3.573
  917SOL    HW2 4526   1.832  10.729   3.695
  918SOL     OW 4527  13.616  12.393   4.596
  918SOL    HW1 4528  13.562  12.394   4.518
  918SOL    HW2 4529  13.700  12.429   4.568
  919SOL     OW 4530   6.012   4.043  14.782
  919SOL    HW1 4531   5.936   4.097  14.759
  919SOL    HW2 4532   5.976   3.972  14.835
  920SOL     OW 4533   9.746  10.748   9.527
  920SOL    HW1 4534   9.802  10.720   9.455
  920SOL    HW2 4535   9.732  10.669   9.579
  921SOL     OW 4536  10.065   8.143  13.591
  921SOL    HW1 4537   9.994   8.089  13.558
  921SOL    HW2 4538  10.091   8.101  13.673
  922SOL     OW 4539   9.205   9.672   3.372
  922SOL    HW1 4540   9.122   9.635   3.342
  922SOL    HW2 4541   9.251   9.599   3.413
  923SOL     OW 4542  14.118  13.805   5.513
  923SOL    HW1 4543  14.203  13.836   5.482
  923SOL    HW2 4544  14.138  13.733   5.572
  924SOL     OW 4545   6.212   3.794   3.661
  924SOL    HW1 4546   6.193   3.700   3.659
  924SOL    HW2 4547   6.211   3.821   3.569
  925SOL     OW 4548  11.235   9.174   4.755
  925SOL    HW1 4549  11.145   9.141   4.750
  925SOL    HW2 4550  11.284   9.119   4.694
  926SOL     OW 4551  11.684   4.225  13.823
  926SOL    HW1 4552  11.748   4.238  13.893
  926SOL    HW2 4553  11.609   4.184  13.867
  927SOL     OW 4554  10.153  13.050   1.276
  927SOL    HW1 4555  10.062  13.077   1.277
  927SOL    HW2 4556  10.175  13.037   1.368
  928SOL     OW 4557  12.694   7.149   2.032
  928SOL    HW1 4558  12.744   7.138   1.951
  928SOL    HW2 4559  12.754   7.193   2.091
  929SOL     OW 4560   1.758  10.271  12.544
  929SOL    HW1 4561   1.769  10.343  12.606
  929SOL    HW2 4562   1.781  10.309  12.459
  930SOL     OW 4563   7.196  13.298   3.065
  930SOL    HW1 4564   7.126  13.238   3.039
  930SOL    HW2 4565   7.212  13.350   2.987
  931SOL     OW 4566   4.057   1.587  10.257
  931SOL    HW1 4567   4.069   1.681  10.262
  931SOL    HW2 4568   4.110   1.552  10.329
  932SOL     OW 4569  12.363   9.403   7.168
  932SOL    HW1 4570  12.282   9.419   7.119
  932SOL    HW2 4571  12.404   9.329   7.123
  933SOL     OW 4572  12.483   4.158   2.830
  933SOL    HW1 4573  12.471   4.136   2.738
  933SOL    HW2 4574  12.506   4.250   2.830
  934SOL     OW 4575   7.619  10.136   9.424
  934SOL    HW1 4576   7.679  10.189   9.370
  934SOL    HW2 4577   7.582  10.073   9.363
  935SOL     OW 4578  10.003   9.580  14.198
  935SOL    HW1 4579  10.076   9.552  14.142
  935SOL    HW2 4580   9.995   9.674  14.183
  936SOL     OW 4581   1.908   6.753   4.565
  936SOL    HW1 4582   1.900   6.814   4.639
  936SOL    HW2 4583   1.998   6.721   4.569
  937SOL     OW 4584   9.346   9.087  13.853
  937SOL    HW1 4585   9.426   9.041  13.879
  937SOL    HW2 4586   9.354   9.173  13.895
  938SOL     OW 4587   6.660  13.219   4.689
  938SOL    HW1 4588   6.603  13.249   4.759
  938SOL    HW2 4589   6.601  13.200   4.616
  939SOL     OW 4590   7.694   8.167   8.144
  939SOL    HW1 4591   7.612   8.152   8.096
  939SOL    HW2 4592   7.669   8.163   8.236
  940SOL     OW 4593   7.222  10.527   4.466
  940SOL    HW1 4594   7.254  10.588   4.533
  940SOL    HW2 4595   7.260  10.559   4.384
  941SOL     OW 4596  11.841  10.427   9.547
  941SOL    HW1 4597  11.765  10.418   9.604
  941SOL    HW2 4598  11.833  10.355   9.484
  942SOL     OW 4599  14.010   8.707   3.406
  942SOL    HW1 4600  14.037   8.677   3.493
  942SOL    HW2 4601  13.957   8.785   3.422
  943SOL     OW 4602   5.781   5.133   4.703
  943SOL    HW1 4603   5.846   5.182   4.652
  943SOL    HW2 4604   5.818   5.046   4.713
  944SOL     OW 4605   2.809   9.132  13.406
  944SOL    HW1 4606   2.716   9.141  13.385
  944SOL    HW2 4607   2.812   9.138  13.501
  945SOL     OW 4608  14.083   0.289   5.397
  945SOL    HW1 4609  14.095   0.203   5.437
  945SOL    HW2 4610  14.169   0.310   5.358
  946SOL     OW 4611   5.057   1.332   7.089
  946SOL    HW1 4612   5.042   1.352   7.182
  946SOL    HW2 4613   5.048   1.237   7.084
  947SOL     OW 4614   6.479   1.133  11.306
  947SOL    HW1 4615   6.422   1.172  11.372
  947SOL    HW2 4616   6.533   1.205  11.275
  948SOL     OW 4617   3.817   5.691   1.431
  948SOL    HW1 4618   3.835   5.691   1.337
  948SOL    HW2 4619   3.864   5.767   1.465
  949SOL     OW 4620   0.637  14.081   9.069
  949SOL    HW1 4621   0.703  14.100   9.001
  949SOL    HW2 4622   0.683  14.024   9.130
  950SOL     OW 4623   5.562   2.093   3.178
  950SOL    HW1 4624   5.620   2.168   3.183
  950SOL    HW2 4625   5.537   2.076   3.269
  951SOL     OW 4626  12.112   3.787  12.521
  951SOL    HW1 4627  12.200   3.751  12.526
  951SOL    HW2 4628  12.058   3.715  12.489
  952SOL     OW 4629   9.159   6.575   6.537
  952SOL    HW1 4630   9.154   6.632   6.461
  952SOL    HW2 4631   9.148   6.633   6.612
  953SOL     OW 4632   2.810   9.006  10.006
  953SOL    HW1 4633   2.849   8.937   9.953
  953SOL    HW2 4634   2.885   9.049  10.048
  954SOL     OW 4635   6.404  10.947   2.847
  954SOL    HW1 4636   6.475  10.973   2.906
  954SOL    HW2 4637   6.346  11.022   2.844
  955SOL     OW 4638  14.108   2.914  14.736
  955SOL    HW1 4639  14.036   2.956  14.688
  955SOL    HW2 4640  14.090   2.932  14.828
  956SOL     OW 4641  11.671   4.446   9.745
  956SOL    HW1 4642  11.579   4.468   9.757
  956SOL    HW2 4643  11.712   4.468   9.828
  957SOL     OW 4644   9.396   4.965   0.957
  957SOL    HW1 4645   9.468   5.012   0.999
  957SOL    HW2 4646   9.401   4.877   0.995
  958SOL     OW 4647   4.640   3.220   6.911
  958SOL    HW1 4648   4.617   3.313   6.916
  958SOL    HW2 4649   4.683   3.202   6.994
  959SOL     OW 4650   2.575  12.912   0.920
  959SOL    HW1 4651   2.562  12.960   0.838
  959SOL    HW2 4652   2.639  12.963   0.968
  960SOL     OW 4653  10.779   2.440   9.556
  960SOL    HW1 4654  10.701   2.409   9.510
  960SOL    HW2 4655  10.745   2.487   9.633
  961SOL     OW 4656   9.279  14.147  13.792
  961SOL    HW1 4657   9.333  14.070  13.774
  961SOL    HW2 4658   9.205  14.114  13.843
  962SOL     OW 4659  11.398   3.649  11.902
  962SOL    HW1 4660  11.406   3.647  11.998
  962SOL    HW2 4661  11.404   3.557  11.877
  963SOL     OW 4662   6.021  10.458  11.923
  963SOL    HW1 4663   5.963  10.395  11.880
  963SOL    HW2 4664   5.967  10.536  11.936
  964SOL     OW 4665   3.525   5.048  13.062
  964SOL    HW1 4666   3.584   5.113  13.100
  964SOL    HW2 4667   3.467   5.098  13.004
  965SOL     OW 4668   9.152   7.296   3.338
  965SOL    HW1 4669   9.172   7.221   3.395
  965SOL    HW2 4670   9.075   7.268   3.289
  966SOL     OW 4671   2.782   9.337   3.837
  966SOL    HW1 4672   2.716   9.271   3.815
  966SOL    HW2 4673   2.805   9.377   3.753
  967SOL     OW 4674   4.024   0.894   6.443
  967SOL    HW1 4675   4.104   0.881   6.392
  967SOL    HW2 4676   3.953   0.885   6.379
  968SOL     OW 4677  10.463  14.362   7.135
  968SOL    HW1 4678  10.557  14.360   7.117
  968SOL    HW2 4679  10.457  14.354   7.231
  969SOL     OW 4680   6.946   6.675  11.743
  969SOL    HW1 4681   6.916   6.746  11.687
  969SOL    HW2 4682   7.011   6.716  11.800
  970SOL     OW 4683   8.289   4.439   2.836
  970SOL    HW1 4684   8.314   4.506   2.899
  970SOL    HW2 4685   8.355   4.371   2.846
  971SOL     OW 4686  12.721  11.864   5.346
  971SOL    HW1 4687  12.634  11.854   5.307
  971SOL    HW2 4688  12.777  11.892   5.273
  972SOL     OW 4689   4.993   1.825  13.867
  972SOL    HW1 4690   5.011   1.859  13.955
  972SOL    HW2 4691   4.996   1.730  13.877
  973SOL     OW 4692   2.754   6.856   5.680
  973SOL    HW1 4693   2.737   6.769   5.718
  973SOL    HW2 4694   2.844   6.875   5.705
  974SOL     OW 4695   7.599   7.461   5.453
  974SOL    HW1 4696   7.647   7.424   5.527
  974SOL    HW2 4697   7.510   7.474   5.485
  975SOL     OW 4698  11.543   6.250  11.027
  975SOL    HW1 4699  11.512   6.341  11.032
  975SOL    HW2 4700  11.463   6.198  11.033
  976SOL     OW 4701  12.228   6.412   9.215
  976SOL    HW1 4702  12.303   6.402   9.156
  976SOL    HW2 4703  12.183   6.328   9.211
  977SOL     OW 4704   3.012   2.299  11.388
  977SOL    HW1 4705   3.066   2.291  11.309
  977SOL    HW2 4706   3.002   2.393  11.401
  978SOL     OW 4707   7.375  11.871   7.137
  978SOL    HW1 4708   7.400  11.951   7.091
  978SOL    HW2 4709   7.393  11.801   7.074
  979SOL     OW 4710   6.296   3.715   1.981
  979SOL    HW1 4711   6.358   3.787   1.971
  979SOL    HW2 4712   6.217   3.744   1.937
  980SOL     OW 4713   6.348   3.575  12.239
  980SOL    HW1 4714   6.375   3.566  12.148
  980SOL    HW2 4715   6.425   3.612  12.283
  981SOL     OW 4716   3.952   0.732  11.542
  981SOL    HW1 4717   3.880   0.743  11.481
  981SOL    HW2 4718   3.915   0.756  11.627
  982SOL     OW 4719  11.272  10.388   0.120
  982SOL    HW1 4720  11.187  10.355   0.147
  982SOL    HW2 4721  11.254  10.446   0.047
  983SOL     OW 4722  13.682   4.270   6.390
  983SOL    HW1 4723  13.706   4.314   6.308
  983SOL    HW2 4724  13.755   4.210   6.407
  984SOL     OW 4725  13.121   4.433   0.387
  984SOL    HW1 4726  13.139   4.346   0.351
  984SOL    HW2 4727  13.194   4.486   0.357
  985SOL     OW 4728  14.603   2.128   7.002
  985SOL    HW1 4729  14.693   2.157   6.986
  985SOL    HW2 4730  14.603   2.099   7.093
  986SOL     OW 4731  11.102   0.562  11.110
  986SOL    HW1 4732  11.097   0.529  11.199
  986SOL    HW2 4733  11.172   0.627  11.112
  987SOL     OW 4734   1.283   4.621   5.506
  987SOL    HW1 4735   1.292   4.706   5.549
  987SOL    HW2 4736   1.326   4.560   5.565
  988SOL     OW 4737   8.576   3.138   5.951
  988SOL    HW1 4738   8.516   3.140   5.876
  988SOL    HW2 4739   8.643   3.074   5.927
  989SOL     OW 4740   9.656   4.967   6.837
  989SOL    HW1 4741   9.614   5.016   6.907
  989SOL    HW2 4742   9.585   4.949   6.775
  990SOL     OW 4743  12.961   2.886  11.501
  990SOL    HW1 4744  13.044   2.933  11.504
  990SOL    HW2 4745  12.919   2.904  11.585
  991SOL     OW 4746   5.755   6.159  12.938
  991SOL    HW1 4747   5.660   6.157  12.952
  991SOL    HW2 4748   5.783   6.069  12.956
  992SOL     OW 4749   9.624   9.103   7.657
  992SOL    HW1 4750   9.693   9.163   7.627
  992SOL    HW2 4751   9.544   9.155   7.656
  993SOL     OW 4752   7.310  12.599  10.587
  993SOL    HW1 4753   7.257  12.532  10.630
  993SOL    HW2 4754   7.395  12.557  10.574
  994SOL     OW 4755   1.864   4.532  11.865
  994SOL    HW1 4756   1.895   4.455  11.913
  994SOL    HW2 4757   1.943   4.566  11.823
  995SOL     OW 4758   2.798  12.217   1.258
  995SOL    HW1 4759   2.727  12.237   1.319
  995SOL    HW2 4760   2.780  12.128   1.228
  996SOL     OW 4761   2.357  14.189   3.018
  996SOL    HW1 4762   2.306  14.270   3.025
  996SOL    HW2 4763   2.398  14.195   2.931
  997SOL     OW 4764   5.565  11.531  12.248
  997SOL    HW1 4765   5.531  11.529  12.158
  997SOL    HW2 4766   5.618  11.452  12.255
  998SOL     OW 4767   4.629   4.853   2.657
  998SOL    HW1 4768   4.661   4.847   2.567
  998SOL    HW2 4769   4.660   4.938   2.688
  999SOL     OW 4770   1.908   1.262   3.733
  999SOL    HW1 4771   1.948   1.334   3.686
  999SOL    HW2 4772   1.826   1.245   3.686
 1000SOL     OW 4773   1.200   4.801   8.941
 1000SOL    HW1 4774   1.156   4.723   8.908
 1000SOL    HW2 4775   1.147   4.874   8.907
 1001SOL     OW 4776   4.915   5.823  11.393
 1001SOL    HW1 4777   4.995   5.862  11.429
 1001SOL    HW2 4778   4.919   5.841  11.299
 1002SOL     OW 4779   3.922   6.025   8.046
 1002SOL    HW1 4780   3.971   6.088   8.099
 1002SOL    HW2 4781   3.989   5.981   7.993
 1003SOL     OW 4782   6.775  11.833   8.407
 1003SOL    HW1 4783   6.692  11.834   8.359
 1003SOL    HW2 4784   6.812  11.921   8.392
 1004SOL     OW 4785   9.328   4.664  11.987
 1004SOL    HW1 4786   9.287   4.609  11.921
 1004SOL    HW2 4787   9.394   4.714  11.939
 1005SOL     OW 4788  13.612   9.054   7.096
 1005SOL    HW1 4789  13.581   9.144   7.082
 1005SOL    HW2 4790  13.622   9.047   7.191
 1006SOL     OW 4791  14.295  10.725   5.105
 1006SOL    HW1 4792  14.201  10.705   5.102
 1006SOL    HW2 4793  14.307  10.770   5.189
 1007SOL     OW 4794   9.185   8.100   5.807
 1007SOL    HW1 4795   9.246   8.139   5.744
 1007SOL    HW2 4796   9.134   8.037   5.756
 1008SOL     OW 4797  12.129   8.802  11.852
 1008SOL    HW1 4798  12.149   8.893  11.871
 1008SOL    HW2 4799  12.035   8.799  11.839
 1009SOL     OW 4800   1.521   8.419   4.958
 1009SOL    HW1 4801   1.477   8.419   4.873
 1009SOL    HW2 4802   1.535   8.511   4.977
 1010SOL     OW 4803   9.681   8.375  10.765
 1010SOL    HW1 4804   9.664   8.434  10.692
 1010SOL    HW2 4805   9.616   8.398  10.831
 1011SOL     OW 4806   4.572   3.154   3.486
 1011SOL    HW1 4807   4.529   3.229   3.445
 1011SOL    HW2 4808   4.589   3.094   3.413
 1012SOL     OW 4809   6.634  14.330  10.948
 1012SOL    HW1 4810   6.549  14.345  10.988
 1012SOL    HW2 4811   6.676  14.264  11.003
 1013SOL     OW 4812   3.244   7.680   5.451
 1013SOL    HW1 4813   3.327   7.662   5.495
 1013SOL    HW2 4814   3.224   7.770   5.474
 1014SOL     OW 4815   7.324   3.404   5.007
 1014SOL    HW1 4816   7.304   3.326   5.059
 1014SOL    HW2 4817   7.325   3.372   4.916
 1015SOL     OW 4818   0.302   6.571  11.948
 1015SOL    HW1 4819   0.322   6.507  11.879
 1015SOL    HW2 4820   0.209   6.592  11.936
 1016SOL     OW 4821  13.353   3.363   8.245
 1016SOL    HW1 4822  13.301   3.300   8.295
 1016SOL    HW2 4823  13.379   3.429   8.309
 1017SOL     OW 4824  13.277   3.650   7.947
 1017SOL    HW1 4825  13.268   3.566   7.903
 1017SOL    HW2 4826  13.369   3.674   7.937
 1018SOL     OW 4827  14.646   9.152   2.822
 1018SOL    HW1 4828  14.622   9.148   2.730
 1018SOL    HW2 4829  14.603   9.076   2.862
 1019SOL     OW 4830  12.951   6.476  13.362
 1019SOL    HW1 4831  13.027   6.488  13.419
 1019SOL    HW2 4832  12.970   6.396  13.313
 1020SOL     OW 4833  11.577   2.248   4.191
 1020SOL    HW1 4834  11.646   2.184   4.206
 1020SOL    HW2 4835  11.495   2.199   4.207
 1021SOL     OW 4836  12.668   0.190  10.052
 1021SOL    HW1 4837  12.593   0.249  10.039
 1021SOL    HW2 4838  12.633   0.117  10.103
 1022SOL     OW 4839   4.931  11.295   3.701
 1022SOL    HW1 4840   4.887  11.338   3.627
 1022SOL    HW2 4841   4.925  11.358   3.772
 1023SOL     OW 4842   1.363   8.276  12.069
 1023SOL    HW1 4843   1.268   8.269  12.066
 1023SOL    HW2 4844   1.390   8.282  11.978
 1024SOL     OW 4845   8.445   0.790   4.754
 1024SOL    HW1 4846   8.523   0.807   4.700
 1024SOL    HW2 4847   8.372   0.810   4.696
 1025SOL     OW 4848   6.855   0.052   8.864
 1025SOL    HW1 4849   6.935   0.045   8.812
 1025SOL    HW2 4850   6.868  14.873   8.936
 1026SOL     OW 4851   0.804   7.909   1.557
 1026SOL    HW1 4852   0.769   7.832   1.513
 1026SOL    HW2 4853   0.726   7.952   1.594
 1027SOL     OW 4854  12.304  13.813  10.731
 1027SOL    HW1 4855  12.321  13.833  10.823
 1027SOL    HW2 4856  12.385  13.835  10.686
 1028SOL     OW 4857   6.345   6.698   4.664
 1028SOL    HW1 4858   6.344   6.792   4.645
 1028SOL    HW2 4859   6.434   6.679   4.691
 1029SOL     OW 4860  12.666   4.217  10.910
 1029SOL    HW1 4861  12.727   4.150  10.941
 1029SOL    HW2 4862  12.597   4.219  10.976
 1030SOL     OW 4863  10.947   0.202   2.046
 1030SOL    HW1 4864  10.910   0.208   2.134
 1030SOL    HW2 4865  10.877   0.234   1.988
 1031SOL     OW 4866   8.339  10.070  13.183
 1031SOL    HW1 4867   8.339  10.152  13.232
 1031SOL    HW2 4868   8.308  10.005  13.246
 1032SOL     OW 4869   4.556   8.048  11.202
 1032SOL    HW1 4870   4.621   8.003  11.256
 1032SOL    HW2 4871   4.587   8.139  11.200
 1033SOL     OW 4872   5.517   5.654   9.348
 1033SOL    HW1 4873   5.513   5.558   9.351
 1033SOL    HW2 4874   5.577   5.677   9.419
 1034SOL     OW 4875   4.262   5.315   9.814
 1034SOL    HW1 4876   4.268   5.352   9.902
 1034SOL    HW2 4877   4.314   5.373   9.760
 1035SOL     OW 4878   1.696   1.404   1.952
 1035SOL    HW1 4879   1.729   1.399   2.042
 1035SOL    HW2 4880   1.730   1.325   1.910
 1036SOL     OW 4881   0.450   0.353   6.044
 1036SOL    HW1 4882   0.422   0.344   6.135
 1036SOL    HW2 4883   0.374   0.326   5.992
 1037SOL     OW 4884   9.183   3.909   3.556
 1037SOL    HW1 4885   9.222   3.949   3.479
 1037SOL    HW2 4886   9.089   3.916   3.542
 1038SOL     OW 4887   0.093  11.493   6.795
 1038SOL    HW1 4888   0.144  11.435   6.739
 1038SOL    HW2 4889   0.158  11.545   6.842
 1039SOL     OW 4890  10.811  12.956   4.919
 1039SOL    HW1 4891  10.770  13.042   4.924
 1039SOL    HW2 4892  10.749  12.902   4.870
 1040SOL     OW 4893   1.116  12.051   8.190
 1040SOL    HW1 4894   1.204  12.078   8.217
 1040SOL    HW2 4895   1.088  12.118   8.128
 1041SOL     OW 4896  11.573   1.292   1.042
 1041SOL    HW1 4897  11.658   1.297   0.997
 1041SOL    HW2 4898  11.572   1.205   1.082
 1042SOL     OW 4899   7.737  13.678   6.254
 1042SOL    HW1 4900   7.758  13.639   6.339
 1042SOL    HW2 4901   7.667  13.623   6.219
 1043SOL     OW 4902   9.651   7.806   6.173
 1043SOL    HW1 4903   9.597   7.749   6.118
 1043SOL    HW2 4904   9.614   7.893   6.160
 1044SOL     OW 4905   4.387  14.049   5.123
 1044SOL    HW1 4906   4.317  14.004   5.076
 1044SOL    HW2 4907   4.423  13.982   5.182
 1045SOL     OW 4908   7.311   0.319  14.812
 1045SOL    HW1 4909   7.288   0.371   0.007
 1045SOL    HW2 4910   7.229   0.276  14.787
 1046SOL     OW 4911  10.923   4.492   2.572
 1046SOL    HW1 4912  10.993   4.538   2.618
 1046SOL    HW2 4913  10.879   4.560   2.522
 1047SOL     OW 4914   2.050   4.803   6.891
 1047SOL    HW1 4915   2.069   4.740   6.960
 1047SOL    HW2 4916   2.132   4.850   6.877
 1048SOL     OW 4917   1.790   3.006   3.076
 1048SOL    HW1 4918   1.769   2.993   2.984
 1048SOL    HW2 4919   1.704   3.012   3.119
 1049SOL     OW 4920   1.325  14.854   5.492
 1049SOL    HW1 4921   1.344  14.809   5.574
 1049SOL    HW2 4922   1.411  14.871   5.454
 1050SOL     OW 4923  13.082   6.802   5.385
 1050SOL    HW1 4924  13.008   6.858   5.361
 1050SOL    HW2 4925  13.077   6.728   5.324
 1051SOL     OW 4926   1.364  11.000  12.394
 1051SOL    HW1 4927   1.352  11.087  12.432
 1051SOL    HW2 4928   1.434  10.961  12.446
 1052SOL     OW 4929   7.251   6.233  11.655
 1052SOL    HW1 4930   7.259   6.265  11.565
 1052SOL    HW2 4931   7.310   6.290  11.706
 1053SOL     OW 4932   6.899   1.759  11.779
 1053SOL    HW1 4933   6.848   1.774  11.699
 1053SOL    HW2 4934   6.911   1.846  11.817
 1054SOL     OW 4935  11.299   8.074   5.419
 1054SOL    HW1 4936  11.319   8.168   5.417
 1054SOL    HW2 4937  11.223   8.067   5.477
 1055SOL     OW 4938   8.899   8.411   7.930
 1055SOL    HW1 4939   8.822   8.354   7.940
 1055SOL    HW2 4940   8.909   8.420   7.836
 1056SOL     OW 4941  13.787  11.078   8.933
 1056SOL    HW1 4942  13.725  11.138   8.892
 1056SOL    HW2 4943  13.734  11.002   8.956
 1057SOL     OW 4944   4.543   0.058   4.924
 1057SOL    HW1 4945   4.587   0.020   5.001
 1057SOL    HW2 4946   4.589   0.020   4.849
 1058SOL     OW 4947   7.953  11.120   0.080
 1058SOL    HW1 4948   8.017  11.182   0.045
 1058SOL    HW2 4949   7.871  11.170   0.082
 1059SOL     OW 4950  12.407   9.606   3.155
 1059SOL    HW1 4951  12.447   9.677   3.203
 1059SOL    HW2 4952  12.344   9.648   3.096
 1060SOL     OW 4953   5.746   4.373   3.607
 1060SOL    HW1 4954   5.722   4.465   3.600
 1060SOL    HW2 4955   5.812   4.371   3.677
 1061SOL     OW 4956  13.042   9.721   0.075
 1061SOL    HW1 4957  13.050   9.625   0.072
 1061SOL    HW2 4958  13.048   9.748  14.865
 1062SOL     OW 4959  12.203   4.677  11.052
 1062SOL    HW1 4960  12.116   4.715  11.063
 1062SOL    HW2 4961  12.194   4.586  11.082
 1063SOL     OW 4962   8.619   6.644   6.039
 1063SOL    HW1 4963   8.523   6.648   6.037
 1063SOL    HW2 4964   8.644   6.615   5.952
 1064SOL     OW 4965   5.359  10.822   2.864
 1064SOL    HW1 4966   5.344  10.729   2.849
 1064SOL    HW2 4967   5.414  10.826   2.942
 1065SOL     OW 4968   5.366   9.042  12.855
 1065SOL    HW1 4969   5.350   9.062  12.762
 1065SOL    HW2 4970   5.340   9.122  12.901
 1066SOL     OW 4971  12.599  11.565   8.918
 1066SOL    HW1 4972  12.627  11.511   8.993
 1066SOL    HW2 4973  12.550  11.637   8.956
 1067SOL     OW 4974  12.672   6.269   2.281
 1067SOL    HW1 4975  12.695   6.334   2.215
 1067SOL    HW2 4976  12.586   6.237   2.255
 1068SOL     OW 4977   2.758  12.896   5.473
 1068SOL    HW1 4978   2.777  12.849   5.392
 1068SOL    HW2 4979   2.841  12.897   5.521
 1069SOL     OW 4980  12.755   8.598  12.866
 1069SOL    HW1 4981  12.778   8.613  12.957
 1069SOL    HW2 4982  12.704   8.516  12.868
 1070SOL     OW 4983  14.880   6.811   8.610
 1070SOL    HW1 4984   0.063   6.744   8.587
 1070SOL    HW2 4985  14.812   6.763   8.657
 1071SOL     OW 4986   6.052  10.242   3.553
 1071SOL    HW1 4987   6.008  10.320   3.586
 1071SOL    HW2 4988   6.009  10.169   3.597
 1072SOL     OW 4989  10.757   2.784   7.336
 1072SOL    HW1 4990  10.805   2.761   7.256
 1072SOL    HW2 4991  10.758   2.879   7.338
 1073SOL     OW 4992  10.367   0.152   2.833
 1073SOL    HW1 4993  10.323   0.229   2.797
 1073SOL    HW2 4994  10.458   0.180   2.845
 1074SOL     OW 4995   7.016   7.366   2.751
 1074SOL    HW1 4996   7.045   7.318   2.674
 1074SOL    HW2 4997   6.921   7.368   2.744
 1075SOL     OW 4998   9.310   3.710   0.026
 1075SOL    HW1 4999   9.296   3.802  14.881
 1075SOL    HW2 5000   9.394   3.711   0.071
 1076SOL     OW 5001   1.396   7.878  12.791
 1076SOL    HW1 5002   1.337   7.946  12.826
 1076SOL    HW2 5003   1.355   7.852  12.708
 1077SOL     OW 5004   2.059   9.460  11.100
 1077SOL    HW1 5005   2.037   9.370  11.123
 1077SOL    HW2 5006   1.978   9.509  11.114
 1078SOL     OW 5007   3.761   9.689   0.408
 1078SOL    HW1 5008   3.777   9.687   0.314
 1078SOL    HW2 5009   3.821   9.624   0.444
 1079SOL     OW 5010  14.122   0.633  10.839
 1079SOL    HW1 5011  14.055   0.606  10.776
 1079SOL    HW2 5012  14.124   0.729  10.832
 1080SOL     OW 5013  10.168   8.033   7.603
 1080SOL    HW1 5014  10.127   8.025   7.689
 1080SOL    HW2 5015  10.096   8.056   7.544
 1081SOL     OW 5016   1.140   4.294   9.255
 1081SOL    HW1 5017   1.150   4.340   9.339
 1081SOL    HW2 5018   1.162   4.359   9.189
 1082SOL     OW 5019   9.832   9.635   6.097
 1082SOL    HW1 5020   9.805   9.608   6.009
 1082SOL    HW2 5021   9.902   9.573   6.121
 1083SOL     OW 5022   1.704  12.150   3.107
 1083SOL    HW1 5023   1.707  12.217   3.175
 1083SOL    HW2 5024   1.795  12.122   3.098
 1084SOL     OW 5025   4.718   8.791   1.977
 1084SOL    HW1 5026   4.790   8.762   1.922
 1084SOL    HW2 5027   4.760   8.824   2.056
 1085SOL     OW 5028   3.223   8.863   4.092
 1085SOL    HW1 5029   3.310   8.827   4.109
 1085SOL    HW2 5030   3.183   8.870   4.179
 1086SOL     OW 5031  14.410   4.283  11.615
 1086SOL    HW1 5032  14.442   4.325  11.694
 1086SOL    HW2 5033  14.316   4.271  11.630
 1087SOL     OW 5034   9.005   9.720   1.428
 1087SOL    HW1 5035   8.995   9.780   1.501
 1087SOL    HW2 5036   8.956   9.761   1.356
 1088SOL     OW 5037   3.731  14.850  11.518
 1088SOL    HW1 5038   3.791   0.038  11.490
 1088SOL    HW2 5039   3.783  14.794  11.575
 1089SOL     OW 5040   2.474   5.930  10.908
 1089SOL    HW1 5041   2.508   5.888  10.987
 1089SOL    HW2 5042   2.535   6.001  10.890
 1090SOL     OW 5043  14.295   4.165   0.212
 1090SOL    HW1 5044  14.323   4.130   0.128
 1090SOL    HW2 5045  14.206   4.130   0.224
 1091SOL     OW 5046   9.774   2.043   9.338
 1091SOL    HW1 5047   9.810   1.956   9.355
 1091SOL    HW2 5048   9.847   2.092   9.302
 1092SOL     OW 5049   4.564   4.119   1.619
 1092SOL    HW1 5050   4.486   4.109   1.564
 1092SOL    HW2 5051   4.636   4.083   1.566
 1093SOL     OW 5052   6.062  12.111  13.071
 1093SOL    HW1 5053   6.059  12.121  13.167
 1093SOL    HW2 5054   5.982  12.155  13.040
 1094SOL     OW 5055  14.342   2.130   3.100
 1094SOL    HW1 5056  14.348   2.225   3.114
 1094SOL    HW2 5057  14.275   2.101   3.161
 1095SOL     OW 5058   1.735  11.810  12.868
 1095SOL    HW1 5059   1.704  11.724  12.838
 1095SOL    HW2 5060   1.673  11.872  12.830
 1096SOL     OW 5061  10.838   3.292  11.461
 1096SOL    HW1 5062  10.783   3.370  11.462
 1096SOL    HW2 5063  10.811   3.246  11.381
 1097SOL     OW 5064   4.253   7.244  14.634
 1097SOL    HW1 5065   4.167   7.207  14.616
 1097SOL    HW2 5066   4.262   7.241  14.729
 1098SOL     OW 5067  13.576   3.489  12.534
 1098SOL    HW1 5068  13.620   3.412  12.569
 1098SOL    HW2 5069  13.586   3.556  12.602
 1099SOL     OW 5070  13.722   2.261  14.538
 1099SOL    HW1 5071  13.739   2.171  14.565
 1099SOL    HW2 5072  13.767   2.315  14.604
 1100SOL     OW 5073  11.031   7.034   8.964
 1100SOL    HW1 5074  11.114   6.989   8.948
 1100SOL    HW2 5075  11.009   7.074   8.880
 1101SOL     OW 5076  11.197   1.207   3.631
 1101SOL    HW1 5077  11.150   1.232   3.710
 1101SOL    HW2 5078  11.265   1.146   3.661
 1102SOL     OW 5079   4.522   7.133   0.661
 1102SOL    HW1 5080   4.448   7.076   0.680
 1102SOL    HW2 5081   4.525   7.193   0.736
 1103SOL     OW 5082   2.266  14.058  13.620
 1103SOL    HW1 5083   2.332  14.077  13.687
 1103SOL    HW2 5084   2.261  13.963  13.618
 1104SOL     OW 5085  13.194  11.352  13.894
 1104SOL    HW1 5086  13.202  11.446  13.875
 1104SOL    HW2 5087  13.101  11.333  13.880
 1105SOL     OW 5088   2.262   8.056   3.244
 1105SOL    HW1 5089   2.279   8.077   3.336
 1105SOL    HW2 5090   2.185   8.108   3.222
 1106SOL     OW 5091  13.119  12.935   4.281
 1106SOL    HW1 5092  13.128  12.841   4.268
 1106SOL    HW2 5093  13.182  12.974   4.221
 1107SOL     OW 5094   1.576   6.190   9.329
 1107SOL    HW1 5095   1.572   6.095   9.337
 1107SOL    HW2 5096   1.499   6.221   9.376
 1108SOL     OW 5097   5.787   0.640  13.250
 1108SOL    HW1 5098   5.709   0.616  13.199
 1108SOL    HW2 5099   5.753   0.665  13.335
 1109SOL     OW 5100   6.215  11.888   5.812
 1109SOL    HW1 5101   6.195  11.948   5.884
 1109SOL    HW2 5102   6.188  11.935   5.733
 1110SOL     OW 5103   9.953  14.327  13.993
 1110SOL    HW1 5104   9.939  14.394  14.059
 1110SOL    HW2 5105   9.884  14.341  13.929
 1111SOL     OW 5106  10.245   5.149   2.673
 1111SOL    HW1 5107  10.337   5.142   2.697
 1111SOL    HW2 5108  10.242   5.123   2.581
 1112SOL     OW 5109  13.687   1.057   8.204
 1112SOL    HW1 5110  13.642   1.106   8.272
 1112SOL    HW2 5111  13.736   1.123   8.155
 1113SOL     OW 5112  10.877  11.457   7.962
 1113SOL    HW1 5113  10.955  11.421   7.920
 1113SOL    HW2 5114  10.909  11.496   8.044
 1114SOL     OW 5115  12.464  13.466  12.842
 1114SOL    HW1 5116  12.412  13.492  12.917
 1114SOL    HW2 5117  12.419  13.503  12.767
 1115SOL     OW 5118   4.992  13.092   5.233
 1115SOL    HW1 5119   4.907  13.062   5.266
 1115SOL    HW2 5120   5.053  13.075   5.304
 1116SOL     OW 5121  11.276   8.110   4.764
 1116SOL    HW1 5122  11.370   8.095   4.755
 1116SOL    HW2 5123  11.235   8.036   4.721
 1117SOL     OW 5124   1.583  14.502   3.513
 1117SOL    HW1 5125   1.671  14.537   3.498
 1117SOL    HW2 5126   1.524  14.570   3.481
 1118SOL     OW 5127   3.256   4.866   9.402
 1118SOL    HW1 5128   3.239   4.869   9.496
 1118SOL    HW2 5129   3.172   4.839   9.364
 1119SOL     OW 5130   9.383   5.588   2.634
 1119SOL    HW1 5131   9.447   5.552   2.572
 1119SOL    HW2 5132   9.407   5.681   2.641
 1120SOL     OW 5133  12.730   8.014  10.509
 1120SOL    HW1 5134  12.741   7.919  10.505
 1120SOL    HW2 5135  12.819   8.049  10.511
 1121SOL     OW 5136   6.675   4.487   6.880
 1121SOL    HW1 5137   6.658   4.414   6.940
 1121SOL    HW2 5138   6.763   4.517   6.903
 1122SOL     OW 5139  13.363   5.157   6.482
 1122SOL    HW1 5140  13.400   5.090   6.539
 1122SOL    HW2 5141  13.433   5.175   6.419
 1123SOL     OW 5142   0.343   3.271   4.075
 1123SOL    HW1 5143   0.383   3.188   4.102
 1123SOL    HW2 5144   0.376   3.335   4.137
 1124SOL     OW 5145  11.758  11.914  12.696
 1124SOL    HW1 5146  11.825  11.925  12.764
 1124SOL    HW2 5147  11.690  11.977  12.720
 1125SOL     OW 5148  12.267   1.545   9.918
 1125SOL    HW1 5149  12.188   1.498   9.892
 1125SOL    HW2 5150  12.286   1.603   9.845
 1126SOL     OW 5151   8.372   6.728   6.057
 1126SOL    HW1 5152   8.345   6.816   6.084
 1126SOL    HW2 5153   8.291   6.676   6.063
 1127SOL     OW 5154   5.615   6.230   1.564
 1127SOL    HW1 5155   5.621   6.212   1.470
 1127SOL    HW2 5156   5.685   6.293   1.581
 1128SOL     OW 5157  14.179  12.388  10.722
 1128SOL    HW1 5158  14.251  12.351  10.670
 1128SOL    HW2 5159  14.199  12.362  10.812
 1129SOL     OW 5160  11.554   4.942   6.870
 1129SOL    HW1 5161  11.508   4.877   6.817
 1129SOL    HW2 5162  11.584   4.893   6.946
 1130SOL     OW 5163  14.726   8.646   6.290
 1130SOL    HW1 5164  14.707   8.733   6.255
 1130SOL    HW2 5165  14.742   8.592   6.213
 1131SOL     OW 5166  13.088   9.293   3.817
 1131SOL    HW1 5167  13.009   9.267   3.769
 1131SOL    HW2 5168  13.077   9.252   3.903
 1132SOL     OW 5169  11.003   2.307   0.521
 1132SOL    HW1 5170  10.960   2.312   0.435
 1132SOL    HW2 5171  11.076   2.246   0.509
 1133SOL     OW 5172   6.506  11.407  10.037
 1133SOL    HW1 5173   6.572  11.459  10.082
 1133SOL    HW2 5174   6.466  11.355  10.106
 1134SOL     OW 5175   9.492  13.745  11.469
 1134SOL    HW1 5176   9.457  13.782  11.551
 1134SOL    HW2 5177   9.586  13.758  11.475
 1135SOL     OW 5178   7.579   2.516   2.686
 1135SOL    HW1 5179   7.621   2.519   2.601
 1135SOL    HW2 5180   7.649   2.490   2.747
 1136SOL     OW 5181  14.591   4.133   3.386
 1136SOL    HW1 5182  14.511   4.148   3.437
 1136SOL    HW2 5183  14.616   4.219   3.354
 1137SOL     OW 5184   3.222   2.827   5.200
 1137SOL    HW1 5185   3.239   2.745   5.154
 1137SOL    HW2 5186   3.145   2.864   5.156
 1138SOL     OW 5187  12.530   7.795   0.421
 1138SOL    HW1 5188  12.609   7.843   0.395
 1138SOL    HW2 5189  12.518   7.817   0.513
 1139SOL     OW 5190   9.879   1.822   3.506
 1139SOL    HW1 5191   9.883   1.917   3.502
 1139SOL    HW2 5192   9.803   1.799   3.454
 1140SOL     OW 5193   3.277  11.925   4.185
 1140SOL    HW1 5194   3.323  11.949   4.105
 1140SOL    HW2 5195   3.210  11.863   4.156
 1141SOL     OW 5196  11.442  14.501  12.682
 1141SOL    HW1 5197  11.379  14.487  12.752
 1141SOL    HW2 5198  11.397  14.469  12.603
 1142SOL     OW 5199  11.137   3.490   1.698
 1142SOL    HW1 5200  11.087   3.410   1.708
 1142SOL    HW2 5201  11.161   3.493   1.605
 1143SOL     OW 5202   0.668  11.613  10.318
 1143SOL    HW1 5203   0.706  11.687  10.367
 1143SOL    HW2 5204   0.740  11.550  10.311
 1144SOL     OW 5205  12.355  14.597  12.616
 1144SOL    HW1 5206  12.430  14.545  12.648
 1144SOL    HW2 5207  12.296  14.532  12.579
 1145SOL     OW 5208   3.895   7.556   7.462
 1145SOL    HW1 5209   3.845   7.518   7.534
 1145SOL    HW2 5210   3.983   7.522   7.472
 1146SOL     OW 5211  10.974   1.554   2.039
 1146SOL    HW1 5212  10.971   1.459   2.030
 1146SOL    HW2 5213  11.000   1.585   1.952
 1147SOL     OW 5214   1.451   9.696   0.761
 1147SOL    HW1 5215   1.459   9.721   0.853
 1147SOL    HW2 5216   1.481   9.605   0.758
 1148SOL     OW 5217  12.984   1.561   9.839
 1148SOL    HW1 5218  12.930   1.623   9.790
 1148SOL    HW2 5219  13.062   1.611   9.863
 1149SOL     OW 5220   9.498   3.884   6.266
 1149SOL    HW1 5221   9.526   3.904   6.355
 1149SOL    HW2 5222   9.450   3.962   6.238
 1150SOL     OW 5223   9.657   7.481  12.757
 1150SOL    HW1 5224   9.579   7.485  12.812
 1150SOL    HW2 5225   9.725   7.447  12.815
 1151SOL     OW 5226   9.870  10.969   2.971
 1151SOL    HW1 5227   9.904  10.918   2.897
 1151SOL    HW2 5228   9.834  11.048   2.931
 1152SOL     OW 5229   9.807   1.173   5.589
 1152SOL    HW1 5230   9.760   1.090   5.597
 1152SOL    HW2 5231   9.765   1.231   5.653
 1153SOL     OW 5232   6.514   8.005   1.816
 1153SOL    HW1 5233   6.575   8.070   1.851
 1153SOL    HW2 5234   6.555   7.921   1.835
 1154SOL     OW 5235  12.696   7.596   1.025
 1154SOL    HW1 5236  12.629   7.654   1.062
 1154SOL    HW2 5237  12.760   7.656   0.986
 1155SOL     OW 5238   2.920  11.100   1.346
 1155SOL    HW1 5239   3.006  11.060   1.358
 1155SOL    HW2 5240   2.882  11.102   1.434
 1156SOL     OW 5241   2.309  14.549   7.963
 1156SOL    HW1 5242   2.376  14.533   8.030
 1156SOL    HW2 5243   2.282  14.639   7.979
 1157SOL     OW 5244  10.739  13.666  13.712
 1157SOL    HW1 5245  10.647  13.656  13.736
 1157SOL    HW2 5246  10.739  13.670  13.617
 1158SOL     OW 5247   6.209   6.799   1.134
 1158SOL    HW1 5248   6.263   6.778   1.058
 1158SOL    HW2 5249   6.269   6.842   1.195
 1159SOL     OW 5250   3.591   3.832   9.442
 1159SOL    HW1 5251   3.573   3.913   9.394
 1159SOL    HW2 5252   3.513   3.817   9.494
 1160SOL     OW 5253  13.652  12.928   9.253
 1160SOL    HW1 5254  13.675  12.848   9.300
 1160SOL    HW2 5255  13.732  12.953   9.208
 1161SOL     OW 5256   1.335   8.916   1.404
 1161SOL    HW1 5257   1.247   8.922   1.439
 1161SOL    HW2 5258   1.349   8.999   1.359
 1162SOL     OW 5259  11.688   2.867   8.225
 1162SOL    HW1 5260  11.593   2.853   8.222
 1162SOL    HW2 5261  11.723   2.809   8.157
 1163SOL     OW 5262   8.797  11.381   5.066
 1163SOL    HW1 5263   8.800  11.326   4.988
 1163SOL    HW2 5264   8.812  11.321   5.139
 1164SOL     OW 5265   4.995   7.512  10.296
 1164SOL    HW1 5266   4.948   7.445  10.345
 1164SOL    HW2 5267   4.960   7.595  10.328
 1165SOL     OW 5268   8.876   4.073   5.506
 1165SOL    HW1 5269   8.892   4.062   5.412
 1165SOL    HW2 5270   8.831   4.157   5.513
 1166SOL     OW 5271  12.726   3.222   2.343
 1166SOL    HW1 5272  12.637   3.228   2.310
 1166SOL    HW2 5273  12.781   3.223   2.264
 1167SOL     OW 5274   0.396   6.616   9.244
 1167SOL    HW1 5275   0.413   6.525   9.267
 1167SOL    HW2 5276   0.415   6.665   9.324
 1168SOL     OW 5277  14.003   9.945   1.375
 1168SOL    HW1 5278  13.929   9.910   1.326
 1168SOL    HW2 5279  13.990   9.915   1.465
 1169SOL     OW 5280   2.757  11.897   3.082
 1169SOL    HW1 5281   2.751  11.831   3.152
 1169SOL    HW2 5282   2.730  11.979   3.124
 1170SOL     OW 5283   7.665   1.073  10.290
 1170SOL    HW1 5284   7.644   1.151  10.239
 1170SOL    HW2 5285   7.750   1.045  10.257
 1171SOL     OW 5286   4.108  14.262   1.076
 1171SOL    HW1 5287   4.107  14.167   1.087
 1171SOL    HW2 5288   4.078  14.277   0.987
 1172SOL     OW 5289   9.008   8.720   1.216
 1172SOL    HW1 5290   9.051   8.689   1.136
 1172SOL    HW2 5291   8.962   8.799   1.190
 1173SOL     OW 5292   7.213  10.492   1.280
 1173SOL    HW1 5293   7.246  10.542   1.205
 1173SOL    HW2 5294   7.235  10.401   1.261
 1174SOL     OW 5295   7.475  11.583   8.615
 1174SOL    HW1 5296   7.570  11.592   8.605
 1174SOL    HW2 5297   7.456  11.496   8.580
 1175SOL     OW 5298  11.750  10.035  12.019
 1175SOL    HW1 5299  11.728  10.079  11.937
 1175SOL    HW2 5300  11.844  10.016  12.011
 1176SOL     OW 5301  13.435  12.714  13.093
 1176SOL    HW1 5302  13.455  12.807  13.101
 1176SOL    HW2 5303  13.519  12.672  13.078
 1177SOL     OW 5304   2.858   6.982   8.353
 1177SOL    HW1 5305   2.813   7.036   8.288
 1177SOL    HW2 5306   2.806   6.991   8.432
 1178SOL     OW 5307  13.082   3.586   9.200
 1178SOL    HW1 5308  13.006   3.537   9.232
 1178SOL    HW2 5309  13.157   3.538   9.235
 1179SOL     OW 5310   0.037   9.043   0.800
 1179SOL    HW1 5311  14.862   9.106   0.755
 1179SOL    HW2 5312   0.114   9.034   0.744
 1180SOL     OW 5313   0.545  10.901   7.615
 1180SOL    HW1 5314   0.560  10.958   7.539
 1180SOL    HW2 5315   0.607  10.932   7.681
 1181SOL     OW 5316  11.963   7.160   5.810
 1181SOL    HW1 5317  11.877   7.155   5.852
 1181SOL    HW2 5318  11.944   7.178   5.718
 1182SOL     OW 5319   6.441   5.328   8.722
 1182SOL    HW1 5320   6.432   5.327   8.626
 1182SOL    HW2 5321   6.360   5.289   8.754
 1183SOL     OW 5322   4.396   5.176   0.736
 1183SOL    HW1 5323   4.334   5.110   0.768
 1183SOL    HW2 5324   4.388   5.248   0.798
 1184SOL     OW 5325   0.592   3.868   6.464
 1184SOL    HW1 5326   0.512   3.815   6.463
 1184SOL    HW2 5327   0.659   3.811   6.425
 1185SOL     OW 5328   9.557  11.559  10.261
 1185SOL    HW1 5329   9.526  11.489  10.318
 1185SOL    HW2 5330   9.509  11.637  10.290
 1186SOL     OW 5331   2.718  12.665   8.776
 1186SOL    HW1 5332   2.669  12.657   8.858
 1186SOL    HW2 5333   2.658  12.633   8.709
 1187SOL     OW 5334   0.176   6.546   4.788
 1187SOL    HW1 5335   0.170   6.501   4.872
 1187SOL    HW2 5336   0.089   6.535   4.748
 1188SOL     OW 5337   4.292  10.575   4.998
 1188SOL    HW1 5338   4.253  10.613   4.920
 1188SOL    HW2 5339   4.352  10.508   4.966
 1189SOL     OW 5340  13.585  10.082   4.987
 1189SOL    HW1 5341  13.668  10.034   4.987
 1189SOL    HW2 5342  13.547  10.064   5.073
 1190SOL     OW 5343   2.198   5.947  10.808
 1190SOL    HW1 5344   2.292   5.934  10.817
 1190SOL    HW2 5345   2.178   5.917  10.719
 1191SOL     OW 5346  14.849   5.540   7.010
 1191SOL    HW1 5347  14.754   5.552   7.003
 1191SOL    HW2 5348  14.862   5.500   7.096
 1192SOL     OW 5349  14.020   3.787   7.623
 1192SOL    HW1 5350  13.942   3.839   7.643
 1192SOL    HW2 5351  14.089   3.822   7.679
 1193SOL     OW 5352   0.905   7.356   2.305
 1193SOL    HW1 5353   0.925   7.402   2.387
 1193SOL    HW2 5354   0.846   7.415   2.259
 1194SOL     OW 5355  12.340  13.830  11.006
 1194SOL    HW1 5356  12.255  13.865  11.033
 1194SOL    HW2 5357  12.369  13.779  11.082
 1195SOL     OW 5358   8.727   3.363  12.373
 1195SOL    HW1 5359   8.775   3.391  12.295
 1195SOL    HW2 5360   8.794   3.352  12.440
 1196SOL     OW 5361   1.931   3.197   4.999
 1196SOL    HW1 5362   1.897   3.145   5.072
 1196SOL    HW2 5363   2.011   3.238   5.033
 1197SOL     OW 5364   5.188  14.463   4.442
 1197SOL    HW1 5365   5.182  14.427   4.530
 1197SOL    HW2 5366   5.268  14.517   4.443
 1198SOL     OW 5367   1.589   5.692   7.468
 1198SOL    HW1 5368   1.526   5.629   7.503
 1198SOL    HW2 5369   1.535   5.756   7.421
 1199SOL     OW 5370   9.036   1.613   3.168
 1199SOL    HW1 5371   9.080   1.690   3.132
 1199SOL    HW2 5372   8.996   1.644   3.249
 1200SOL     OW 5373   0.019   3.362  14.639
 1200SOL    HW1 5374   0.095   3.316  14.602
 1200SOL    HW2 5375   0.032   3.356  14.734
 1201SOL     OW 5376   0.075   7.976   3.129
 1201SOL    HW1 5377   0.166   7.960   3.104
 1201SOL    HW2 5378   0.047   7.895   3.170
 1202SOL     OW 5379   9.781   7.334  14.519
 1202SOL    HW1 5380   9.800   7.360  14.609
 1202SOL    HW2 5381   9.855   7.281  14.493
 1203SOL     OW 5382   7.826   0.969   5.112
 1203SOL    HW1 5383   7.903   1.004   5.157
 1203SOL    HW2 5384   7.858   0.895   5.062
 1204SOL     OW 5385  10.895  10.139   6.865
 1204SOL    HW1 5386  10.824  10.160   6.926
 1204SOL    HW2 5387  10.896  10.211   6.803
 1205SOL     OW 5388   3.883   1.335  10.481
 1205SOL    HW1 5389   3.789   1.348  10.491
 1205SOL    HW2 5390   3.919   1.358  10.567
 1206SOL     OW 5391   1.301   0.482   0.039
 1206SOL    HW1 5392   1.288   0.504   0.131
 1206SOL    HW2 5393   1.370   0.540   0.009
 1207SOL     OW 5394  11.349   9.316   7.093
 1207SOL    HW1 5395  11.310   9.289   7.176
 1207SOL    HW2 5396  11.353   9.236   7.041
 1208SOL     OW 5397   7.570  10.041   5.933
 1208SOL    HW1 5398   7.515  10.117   5.955
 1208SOL    HW2 5399   7.604  10.011   6.018
 1209SOL     OW 5400  13.311   8.152   0.340
 1209SOL    HW1 5401  13.283   8.167   0.249
 1209SOL    HW2 5402  13.245   8.197   0.393
 1210SOL     OW 5403   1.010  11.257  14.564
 1210SOL    HW1 5404   0.918  11.237  14.550
 1210SOL    HW2 5405   1.032  11.322  14.498
 1211SOL     OW 5406   7.040   3.705   9.240
 1211SOL    HW1 5407   7.085   3.789   9.234
 1211SOL    HW2 5408   7.067   3.657   9.162
 1212SOL     OW 5409   2.048   5.108  11.251
 1212SOL    HW1 5410   1.986   5.170  11.290
 1212SOL    HW2 5411   1.994   5.053  11.194
 1213SOL     OW 5412  11.136   9.421   7.350
 1213SOL    HW1 5413  11.090   9.437   7.269
 1213SOL    HW2 5414  11.090   9.348   7.390
 1214SOL     OW 5415   3.579   4.681  11.539
 1214SOL    HW1 5416   3.631   4.696  11.618
 1214SOL    HW2 5417   3.634   4.713  11.468
 1215SOL     OW 5418   4.536  14.688  11.749
 1215SOL    HW1 5419   4.575  14.710  11.833
 1215SOL    HW2 5420   4.554  14.764  11.694
 1216SOL     OW 5421   1.621   4.457   8.268
 1216SOL    HW1 5422   1.569   4.536   8.252
 1216SOL    HW2 5423   1.707   4.489   8.293
 1217SOL     OW 5424   4.055   7.372   6.682
 1217SOL    HW1 5425   4.006   7.431   6.740
 1217SOL    HW2 5426   4.127   7.340   6.736
 1218SOL     OW 5427  13.616  12.204   2.647
 1218SOL    HW1 5428  13.571  12.134   2.695
 1218SOL    HW2 5429  13.552  12.235   2.583
 1219SOL     OW 5430  11.280  11.780   3.719
 1219SOL    HW1 5431  11.302  11.873   3.711
 1219SOL    HW2 5432  11.345  11.735   3.665
 1220SOL     OW 5433   1.508  11.186   3.765
 1220SOL    HW1 5434   1.510  11.263   3.708
 1220SOL    HW2 5435   1.577  11.129   3.730
 1221SOL     OW 5436   2.165   2.052  12.338
 1221SOL    HW1 5437   2.129   2.130  12.380
 1221SOL    HW2 5438   2.260   2.064  12.343
 1222SOL     OW 5439   7.718  14.196   7.814
 1222SOL    HW1 5440   7.701  14.289   7.799
 1222SOL    HW2 5441   7.651  14.169   7.878
 1223SOL     OW 5442   4.887   9.035   3.311
 1223SOL    HW1 5443   4.938   9.096   3.258
 1223SOL    HW2 5444   4.796   9.049   3.284
 1224SOL     OW 5445  13.221   5.256  14.809
 1224SOL    HW1 5446  13.268   5.188  14.761
 1224SOL    HW2 5447  13.171   5.302  14.742
 1225SOL     OW 5448   1.738  10.440   5.652
 1225SOL    HW1 5449   1.763  10.532   5.643
 1225SOL    HW2 5450   1.787  10.395   5.584
 1226SOL     OW 5451   0.013   4.158   2.613
 1226SOL    HW1 5452   0.002   4.217   2.687
 1226SOL    HW2 5453   0.012   4.070   2.651
 1227SOL     OW 5454   7.378   7.087   8.494
 1227SOL    HW1 5455   7.289   7.105   8.523
 1227SOL    HW2 5456   7.379   7.114   8.402
 1228SOL     OW 5457   1.514   2.442   0.208
 1228SOL    HW1 5458   1.468   2.439   0.124
 1228SOL    HW2 5459   1.594   2.491   0.191
 1229SOL     OW 5460   6.423   2.497   1.567
 1229SOL    HW1 5461   6.491   2.555   1.601
 1229SOL    HW2 5462   6.460   2.461   1.487
 1230SOL     OW 5463   0.824  11.664   7.765
 1230SOL    HW1 5464   0.809  11.688   7.856
 1230SOL    HW2 5465   0.910  11.621   7.765
 1231SOL     OW 5466   9.971   7.264   5.411
 1231SOL    HW1 5467   9.955   7.241   5.319
 1231SOL    HW2 5468   9.976   7.359   5.412
 1232SOL     OW 5469   0.683   3.065   7.260
 1232SOL    HW1 5470   0.700   3.014   7.339
 1232SOL    HW2 5471   0.594   3.100   7.272
 1233SOL     OW 5472   5.049   1.627   1.151
 1233SOL    HW1 5473   5.025   1.596   1.064
 1233SOL    HW2 5474   5.143   1.644   1.146
 1234SOL     OW 5475  14.468   2.663   1.829
 1234SOL    HW1 5476  14.414   2.607   1.773
 1234SOL    HW2 5477  14.493   2.736   1.772
 1235SOL     OW 5478   1.716   6.815   4.184
 1235SOL    HW1 5479   1.758   6.818   4.098
 1235SOL    HW2 5480   1.748   6.734   4.224
 1236SOL     OW 5481   0.135  11.736   3.965
 1236SOL    HW1 5482   0.123  11.804   3.898
 1236SOL    HW2 5483   0.112  11.654   3.921
 1237SOL     OW 5484   6.926   1.778   7.505
 1237SOL    HW1 5485   6.938   1.873   7.511
 1237SOL    HW2 5486   6.867   1.757   7.578
 1238SOL     OW 5487   3.955   4.771   3.605
 1238SOL    HW1 5488   3.951   4.818   3.522
 1238SOL    HW2 5489   3.959   4.840   3.671
 1239SOL     OW 5490   7.266   7.426   4.672
 1239SOL    HW1 5491   7.271   7.385   4.759
 1239SOL    HW2 5492   7.298   7.359   4.612
 1240SOL     OW 5493   1.371   7.146   6.473
 1240SOL    HW1 5494   1.315   7.221   6.454
 1240SOL    HW2 5495   1.450   7.183   6.513
 1241SOL     OW 5496   8.749   4.642  13.069
 1241SOL    HW1 5497   8.777   4.697  12.996
 1241SOL    HW2 5498   8.765   4.695  13.147
 1242SOL     OW 5499   8.083  13.539   1.028
 1242SOL    HW1 5500   8.073  13.502   0.940
 1242SOL    HW2 5501   8.014  13.605   1.034
 1243SOL     OW 5502  10.660   1.889  11.522
 1243SOL    HW1 5503  10.588   1.847  11.475
 1243SOL    HW2 5504  10.738   1.863  11.474
 1244SOL     OW 5505   2.746   9.328   9.035
 1244SOL    HW1 5506   2.682   9.267   8.998
 1244SOL    HW2 5507   2.806   9.273   9.086
 1245SOL     OW 5508   3.290  13.910   7.524
 1245SOL    HW1 5509   3.225  13.920   7.455
 1245SOL    HW2 5510   3.245  13.862   7.593
 1246SOL     OW 5511  10.927   5.560   4.011
 1246SOL    HW1 5512  10.923   5.633   3.949
 1246SOL    HW2 5513  11.013   5.567   4.050
 1247SOL     OW 5514  12.794  14.553   7.961
 1247SOL    HW1 5515  12.873  14.505   7.936
 1247SOL    HW2 5516  12.721  14.496   7.934
 1248SOL     OW 5517  10.196  14.607  13.132
 1248SOL    HW1 5518  10.267  14.616  13.068
 1248SOL    HW2 5519  10.151  14.691  13.130
 1249SOL     OW 5520   3.834   7.669   8.470
 1249SOL    HW1 5521   3.888   7.735   8.427
 1249SOL    HW2 5522   3.777   7.719   8.528
 1250SOL     OW 5523  10.354   4.145   7.786
 1250SOL    HW1 5524  10.280   4.203   7.773
 1250SOL    HW2 5525  10.387   4.167   7.873
 1251SOL     OW 5526   2.164   7.132  10.486
 1251SOL    HW1 5527   2.084   7.106  10.531
 1251SOL    HW2 5528   2.134   7.157  10.398
 1252SOL     OW 5529  10.253   2.844   0.033
 1252SOL    HW1 5530  10.180   2.895  14.879
 1252SOL    HW2 5531  10.267   2.775  14.850
 1253SOL     OW 5532   2.782  11.234   8.018
 1253SOL    HW1 5533   2.853  11.173   8.035
 1253SOL    HW2 5534   2.703  11.185   8.040
 1254SOL     OW 5535   1.765   8.046  13.686
 1254SOL    HW1 5536   1.692   8.018  13.742
 1254SOL    HW2 5537   1.798   8.126  13.727
 1255SOL     OW 5538   2.854  14.289   6.360
 1255SOL    HW1 5539   2.822  14.224   6.423
 1255SOL    HW2 5540   2.882  14.236   6.285
 1256SOL     OW 5541  14.419  10.553   5.461
 1256SOL    HW1 5542  14.502  10.547   5.508
 1256SOL    HW2 5543  14.403  10.646   5.451
 1257SOL     OW 5544   7.087   9.343  13.293
 1257SOL    HW1 5545   7.131   9.279  13.236
 1257SOL    HW2 5546   7.010   9.296  13.326
 1258SOL     OW 5547  13.484   1.038   3.974
 1258SOL    HW1 5548  13.557   1.034   4.035
 1258SOL    HW2 5549  13.510   0.982   3.901
 1259SOL     OW 5550   0.555   4.170   6.443
 1259SOL    HW1 5551   0.523   4.082   6.460
 1259SOL    HW2 5552   0.483   4.213   6.395
 1260SOL     OW 5553   0.016   7.146   1.223
 1260SOL    HW1 5554  14.874   7.170   1.133
 1260SOL    HW2 5555  14.851   7.210   1.278
 1261SOL     OW 5556  10.463   9.140  11.179
 1261SOL    HW1 5557  10.493   9.186  11.257
 1261SOL    HW2 5558  10.533   9.078  11.159
 1262SOL     OW 5559   5.878  11.547   1.595
 1262SOL    HW1 5560   5.932  11.617   1.557
 1262SOL    HW2 5561   5.806  11.594   1.637
 1263SOL     OW 5562  13.225  11.988  12.427
 1263SOL    HW1 5563  13.181  11.906  12.405
 1263SOL    HW2 5564  13.264  11.971  12.513
 1264SOL     OW 5565   4.201  11.747   5.852
 1264SOL    HW1 5566   4.204  11.793   5.768
 1264SOL    HW2 5567   4.149  11.669   5.835
 1265SOL     OW 5568   7.434   0.832   4.240
 1265SOL    HW1 5569   7.423   0.875   4.325
 1265SOL    HW2 5570   7.454   0.903   4.180
 1266SOL     OW 5571   2.258  13.678   0.643
 1266SOL    HW1 5572   2.235  13.755   0.590
 1266SOL    HW2 5573   2.267  13.607   0.580
 1267SOL     OW 5574   8.919   8.532   3.792
 1267SOL    HW1 5575   8.901   8.466   3.725
 1267SOL    HW2 5576   8.944   8.610   3.743
 1268SOL     OW 5577   8.288   9.099  13.477
 1268SOL    HW1 5578   8.314   9.084  13.386
 1268SOL    HW2 5579   8.371   9.108  13.525
 1269SOL     OW 5580   6.220   6.562   4.163
 1269SOL    HW1 5581   6.194   6.654   4.172
 1269SOL    HW2 5582   6.139   6.517   4.140
 1270SOL     OW 5583   9.027   1.553   4.375
 1270SOL    HW1 5584   9.071   1.626   4.332
 1270SOL    HW2 5585   8.999   1.588   4.459
 1271SOL     OW 5586  13.862   0.938   3.930
 1271SOL    HW1 5587  13.798   1.001   3.964
 1271SOL    HW2 5588  13.845   0.933   3.837
 1272SOL     OW 5589  10.563  14.629  11.638
 1272SOL    HW1 5590  10.482  14.657  11.596
 1272SOL    HW2 5591  10.627  14.695  11.613
 1273SOL     OW 5592   0.685  11.331   8.351
 1273SOL    HW1 5593   0.651  11.317   8.262
 1273SOL    HW2 5594   0.739  11.410   8.343
 1274SOL     OW 5595   2.829  14.700   8.359
 1274SOL    HW1 5596   2.778  14.621   8.376
 1274SOL    HW2 5597   2.765  14.762   8.324
 1275SOL     OW 5598  11.228  11.318   4.815
 1275SOL    HW1 5599  11.274  11.364   4.745
 1275SOL    HW2 5600  11.282  11.241   4.833
 1276SOL     OW 5601   4.173  14.079   9.217
 1276SOL    HW1 5602   4.146  13.999   9.173
 1276SOL    HW2 5603   4.268  14.084   9.204
 1277SOL     OW 5604   0.309   8.087  14.753
 1277SOL    HW1 5605   0.313   7.996  14.723
 1277SOL    HW2 5606   0.314   8.139  14.673
 1278SOL     OW 5607   3.489   5.898   7.554
 1278SOL    HW1 5608   3.501   5.869   7.644
 1278SOL    HW2 5609   3.415   5.958   7.557
 1279SOL     OW 5610   9.443   5.815  13.823
 1279SOL    HW1 5611   9.518   5.834  13.766
 1279SOL    HW2 5612   9.454   5.874  13.897
 1280SOL     OW 5613   6.272   8.848   9.570
 1280SOL    HW1 5614   6.228   8.907   9.631
 1280SOL    HW2 5615   6.359   8.887   9.557
 1281SOL     OW 5616   9.887   5.668   9.715
 1281SOL    HW1 5617   9.800   5.690   9.683
 1281SOL    HW2 5618   9.873   5.637   9.804
 1282SOL     OW 5619  13.093  10.463  11.707
 1282SOL    HW1 5620  13.002  10.482  11.680
 1282SOL    HW2 5621  13.101  10.368  11.700
 1283SOL     OW 5622   6.020   3.011   9.568
 1283SOL    HW1 5623   5.964   3.088   9.563
 1283SOL    HW2 5624   6.071   3.023   9.648
 1284SOL     OW 5625  12.192  10.078   1.756
 1284SOL    HW1 5626  12.183   9.984   1.771
 1284SOL    HW2 5627  12.223  10.086   1.666
 1285SOL     OW 5628   6.264   2.050   7.700
 1285SOL    HW1 5629   6.318   1.979   7.664
 1285SOL    HW2 5630   6.277   2.043   7.795
 1286SOL     OW 5631   7.983   0.767  14.414
 1286SOL    HW1 5632   8.038   0.702  14.372
 1286SOL    HW2 5633   7.944   0.817  14.342
 1287SOL     OW 5634   3.889   2.283   2.337
 1287SOL    HW1 5635   3.880   2.188   2.330
 1287SOL    HW2 5636   3.971   2.295   2.385
 1288SOL     OW 5637   3.577   0.087  10.472
 1288SOL    HW1 5638   3.667   0.118  10.470
 1288SOL    HW2 5639   3.578   0.005  10.423
 1289SOL     OW 5640   0.264   0.927  13.557
 1289SOL    HW1 5641   0.357   0.919  13.536
 1289SOL    HW2 5642   0.241   0.843  13.598
 1290SOL     OW 5643   3.230   2.378   6.438
 1290SOL    HW1 5644   3.299   2.385   6.372
 1290SOL    HW2 5645   3.195   2.467   6.446
 1291SOL     OW 5646   2.619  11.082   2.164
 1291SOL    HW1 5647   2.564  11.160   2.169
 1291SOL    HW2 5648   2.557  11.009   2.166
 1292SOL     OW 5649   3.150   4.778  12.701
 1292SOL    HW1 5650   3.203   4.706  12.735
 1292SOL    HW2 5651   3.066   4.770  12.747
 1293SOL     OW 5652   3.381   6.007   8.572
 1293SOL    HW1 5653   3.430   5.992   8.652
 1293SOL    HW2 5654   3.446   5.997   8.502
 1294SOL     OW 5655  12.283   1.872  12.057
 1294SOL    HW1 5656  12.259   1.881  11.965
 1294SOL    HW2 5657  12.255   1.784  12.080
 1295SOL     OW 5658   1.961   3.214   3.662
 1295SOL    HW1 5659   1.989   3.157   3.590
 1295SOL    HW2 5660   1.919   3.154   3.725
 1296SOL     OW 5661   4.678   7.432   6.299
 1296SOL    HW1 5662   4.642   7.467   6.380
 1296SOL    HW2 5663   4.637   7.346   6.290
 1297SOL     OW 5664  11.496  14.774  12.744
 1297SOL    HW1 5665  11.506  14.764  12.839
 1297SOL    HW2 5666  11.493  14.684  12.712
 1298SOL     OW 5667  13.694   9.559   3.417
 1298SOL    HW1 5668  13.654   9.472   3.420
 1298SOL    HW2 5669  13.654   9.606   3.490
 1299SOL     OW 5670   0.646  12.923   1.862
 1299SOL    HW1 5671   0.663  12.849   1.921
 1299SOL    HW2 5672   0.712  12.988   1.886
 1300SOL     OW 5673   7.461  10.930  10.422
 1300SOL    HW1 5674   7.370  10.952  10.406
 1300SOL    HW2 5675   7.511  10.996  10.374
 1301SOL     OW 5676  14.249   1.049  13.890
 1301SOL    HW1 5677  14.271   1.044  13.983
 1301SOL    HW2 5678  14.219   1.138  13.876
 1302SOL     OW 5679  12.261  11.724   0.284
 1302SOL    HW1 5680  12.311  11.644   0.298
 1302SOL    HW2 5681  12.302  11.765   0.208
 1303SOL     OW 5682  13.613   8.241   8.559
 1303SOL    HW1 5683  13.566   8.187   8.622
 1303SOL    HW2 5684  13.694   8.266   8.605
 1304SOL     OW 5685   8.399   5.062   9.757
 1304SOL    HW1 5686   8.467   5.126   9.777
 1304SOL    HW2 5687   8.357   5.044   9.842
 1305SOL     OW 5688   2.153  14.847   2.111
 1305SOL    HW1 5689   2.196  14.763   2.094
 1305SOL    HW2 5690   2.060  14.828   2.104
 1306SOL     OW 5691   6.097   4.479   4.308
 1306SOL    HW1 5692   6.026   4.465   4.370
 1306SOL    HW2 5693   6.084   4.412   4.241
 1307SOL     OW 5694   5.933   5.945   2.192
 1307SOL    HW1 5695   5.963   5.975   2.278
 1307SOL    HW2 5696   5.882   5.866   2.211
 1308SOL     OW 5697   1.341   9.318   4.049
 1308SOL    HW1 5698   1.338   9.255   3.977
 1308SOL    HW2 5699   1.404   9.280   4.111
 1309SOL     OW 5700  14.436  11.411  11.533
 1309SOL    HW1 5701  14.528  11.433  11.524
 1309SOL    HW2 5702  14.412  11.373  11.448
 1310SOL     OW 5703   7.874   7.482   9.147
 1310SOL    HW1 5704   7.809   7.542   9.109
 1310SOL    HW2 5705   7.957   7.529   9.140
 1311SOL     OW 5706   6.409  13.212  12.529
 1311SOL    HW1 5707   6.338  13.148  12.541
 1311SOL    HW2 5708   6.485  13.171  12.570
 1312SOL     OW 5709   6.439   8.377   6.611
 1312SOL    HW1 5710   6.410   8.342   6.695
 1312SOL    HW2 5711   6.392   8.460   6.602
 1313SOL     OW 5712  10.232   2.565   9.498
 1313SOL    HW1 5713  10.198   2.478   9.520
 1313SOL    HW2 5714  10.156   2.613   9.465
 1314SOL     OW 5715   2.806   2.799   5.029
 1314SOL    HW1 5716   2.864   2.816   5.103
 1314SOL    HW2 5717   2.805   2.881   4.980
 1315SOL     OW 5718   4.845   6.961   7.334
 1315SOL    HW1 5719   4.905   6.996   7.401
 1315SOL    HW2 5720   4.879   6.993   7.251
 1316SOL     OW 5721   8.481   3.609   1.921
 1316SOL    HW1 5722   8.411   3.578   1.979
 1316SOL    HW2 5723   8.510   3.691   1.960
 1317SOL     OW 5724   4.927   4.191  13.085
 1317SOL    HW1 5725   4.906   4.264  13.026
 1317SOL    HW2 5726   4.958   4.234  13.165
 1318SOL     OW 5727   0.140   8.903   6.023
 1318SOL    HW1 5728   0.063   8.875   5.973
 1318SOL    HW2 5729   0.201   8.830   6.017
 1319SOL     OW 5730  11.576   3.117   6.040
 1319SOL    HW1 5731  11.488   3.139   6.070
 1319SOL    HW2 5732  11.571   3.024   6.016
 1320SOL     OW 5733   3.121   0.142   3.257
 1320SOL    HW1 5734   3.080   0.200   3.321
 1320SOL    HW2 5735   3.207   0.181   3.240
 1321SOL     OW 5736   3.287   3.531  12.494
 1321SOL    HW1 5737   3.272   3.613  12.540
 1321SOL    HW2 5738   3.201   3.505  12.461
 1322SOL     OW 5739   2.307   2.094  10.878
 1322SOL    HW1 5740   2.318   2.029  10.809
 1322SOL    HW2 5741   2.246   2.054  10.939
 1323SOL     OW 5742   7.090   2.711   7.946
 1323SOL    HW1 5743   7.184   2.694   7.937
 1323SOL    HW2 5744   7.066   2.674   8.031
 1324SOL     OW 5745   1.515  14.638   4.432
 1324SOL    HW1 5746   1.511  14.554   4.479
 1324SOL    HW2 5747   1.495  14.703   4.500
 1325SOL     OW 5748  13.607   8.097   6.927
 1325SOL    HW1 5749  13.584   8.019   6.877
 1325SOL    HW2 5750  13.699   8.114   6.904
 1326SOL     OW 5751   0.802   7.808  12.705
 1326SOL    HW1 5752   0.841   7.778  12.787
 1326SOL    HW2 5753   0.845   7.892  12.687
 1327SOL     OW 5754   2.735   0.136   4.609
 1327SOL    HW1 5755   2.753   0.046   4.583
 1327SOL    HW2 5756   2.639   0.143   4.604
 1328SOL     OW 5757   8.258  11.741   9.819
 1328SOL    HW1 5758   8.328  11.703   9.872
 1328SOL    HW2 5759   8.178  11.717   9.865
 1329SOL     OW 5760  13.585   5.844   5.617
 1329SOL    HW1 5761  13.628   5.903   5.555
 1329SOL    HW2 5762  13.640   5.765   5.618
 1330SOL     OW 5763  10.691   3.269   6.504
 1330SOL    HW1 5764  10.600   3.283   6.532
 1330SOL    HW2 5765  10.700   3.174   6.499
 1331SOL     OW 5766   4.894   2.004  12.139
 1331SOL    HW1 5767   4.876   2.029  12.230
 1331SOL    HW2 5768   4.990   2.012  12.131
 1332SOL     OW 5769   0.432   0.465  13.811
 1332SOL    HW1 5770   0.496   0.530  13.840
 1332SOL    HW2 5771   0.479   0.412  13.748
 1333SOL     OW 5772   0.683   3.140   7.934
 1333SOL    HW1 5773   0.639   3.222   7.956
 1333SOL    HW2 5774   0.634   3.104   7.860
 1334SOL     OW 5775   7.566   3.771   6.954
 1334SOL    HW1 5776   7.564   3.858   6.914
 1334SOL    HW2 5777   7.649   3.733   6.925
 1335SOL     OW 5778   4.089  11.441   0.729
 1335SOL    HW1 5779   4.065  11.351   0.706
 1335SOL    HW2 5780   4.123  11.435   0.818
 1336SOL     OW 5781   6.067   6.943   2.181
 1336SOL    HW1 5782   6.000   6.966   2.246
 1336SOL    HW2 5783   6.120   7.022   2.171
 1337SOL     OW 5784   8.070   8.953   6.772
 1337SOL    HW1 5785   8.147   8.993   6.733
 1337SOL    HW2 5786   8.049   9.008   6.847
 1338SOL     OW 5787  13.148   7.575   1.871
 1338SOL    HW1 5788  13.201   7.652   1.849
 1338SOL    HW2 5789  13.212   7.511   1.904
 1339SOL     OW 5790   9.433  12.133   7.101
 1339SOL    HW1 5791   9.513  12.179   7.127
 1339SOL    HW2 5792   9.464  12.054   7.058
 1340SOL     OW 5793   2.726   8.562  11.400
 1340SOL    HW1 5794   2.675   8.494  11.445
 1340SOL    HW2 5795   2.790   8.514  11.347
 1341SOL     OW 5796   5.446   7.913   5.015
 1341SOL    HW1 5797   5.371   7.971   5.008
 1341SOL    HW2 5798   5.430   7.845   4.949
 1342SOL     OW 5799  12.769   1.429   5.868
 1342SOL    HW1 5800  12.769   1.333   5.869
 1342SOL    HW2 5801  12.780   1.452   5.776
 1343SOL     OW 5802  12.094  14.061   2.853
 1343SOL    HW1 5803  12.158  14.021   2.794
 1343SOL    HW2 5804  12.137  14.061   2.938
 1344SOL     OW 5805  11.441   4.766   1.970
 1344SOL    HW1 5806  11.532   4.790   1.957
 1344SOL    HW2 5807  11.435   4.676   1.939
 1345SOL     OW 5808   7.213   9.797  10.832
 1345SOL    HW1 5809   7.142   9.843  10.787
 1345SOL    HW2 5810   7.226   9.848  10.913
 1346SOL     OW 5811   8.276   7.396   1.184
 1346SOL    HW1 5812   8.353   7.396   1.242
 1346SOL    HW2 5813   8.216   7.334   1.226
 1347SOL     OW 5814   2.062   5.046  13.286
 1347SOL    HW1 5815   2.017   5.108  13.230
 1347SOL    HW2 5816   2.154   5.071  13.280
 1348SOL     OW 5817  12.596   2.900   5.296
 1348SOL    HW1 5818  12.519   2.938   5.254
 1348SOL    HW2 5819  12.594   2.935   5.385
 1349SOL     OW 5820  10.853  14.782   4.444
 1349SOL    HW1 5821  10.772  14.825   4.415
 1349SOL    HW2 5822  10.922  14.841   4.414
 1350SOL     OW 5823   1.958   5.658   3.728
 1350SOL    HW1 5824   2.038   5.650   3.676
 1350SOL    HW2 5825   1.987   5.694   3.812
 1351SOL     OW 5826  13.914   6.543   5.736
 1351SOL    HW1 5827  13.895   6.626   5.780
 1351SOL    HW2 5828  13.985   6.505   5.788
 1352SOL     OW 5829  14.247   1.786   2.117
 1352SOL    HW1 5830  14.298   1.867   2.120
 1352SOL    HW2 5831  14.159   1.813   2.090
 1353SOL     OW 5832   9.448   3.013   7.217
 1353SOL    HW1 5833   9.499   2.940   7.183
 1353SOL    HW2 5834   9.485   3.031   7.304
 1354SOL     OW 5835   3.714  13.613  12.375
 1354SOL    HW1 5836   3.785  13.591  12.315
 1354SOL    HW2 5837   3.666  13.683  12.330
 1355SOL     OW 5838   0.825  12.708   6.029
 1355SOL    HW1 5839   0.771  12.648   6.080
 1355SOL    HW2 5840   0.899  12.728   6.087
 1356SOL     OW 5841  14.227   2.489   0.703
 1356SOL    HW1 5842  14.265   2.529   0.782
 1356SOL    HW2 5843  14.288   2.418   0.681
 1357SOL     OW 5844  10.843   6.416  12.826
 1357SOL    HW1 5845  10.863   6.373  12.743
 1357SOL    HW2 5846  10.747   6.423  12.827
 1358SOL     OW 5847   7.517   3.157   6.341
 1358SOL    HW1 5848   7.583   3.170   6.409
 1358SOL    HW2 5849   7.538   3.224   6.275
 1359SOL     OW 5850  12.910   3.712   7.059
 1359SOL    HW1 5851  12.922   3.802   7.029
 1359SOL    HW2 5852  12.840   3.717   7.125
 1360SOL     OW 5853  12.609   1.126  12.710
 1360SOL    HW1 5854  12.674   1.121  12.640
 1360SOL    HW2 5855  12.527   1.096  12.670
 1361SOL     OW 5856   3.077   0.923   5.480
 1361SOL    HW1 5857   3.117   0.838   5.496
 1361SOL    HW2 5858   2.983   0.906   5.486
 1362SOL     OW 5859  10.164   3.134  13.087
 1362SOL    HW1 5860  10.170   3.062  13.150
 1362SOL    HW2 5861  10.074   3.166  13.096
 1363SOL     OW 5862   4.091   5.267   9.148
 1363SOL    HW1 5863   4.130   5.315   9.075
 1363SOL    HW2 5864   4.058   5.186   9.108
 1364SOL     OW 5865   8.499   7.437  13.343
 1364SOL    HW1 5866   8.562   7.447  13.272
 1364SOL    HW2 5867   8.430   7.500  13.324
 1365SOL     OW 5868   6.473   1.212  13.906
 1365SOL    HW1 5869   6.425   1.131  13.888
 1365SOL    HW2 5870   6.529   1.224  13.828
 1366SOL     OW 5871  14.814   7.064   6.768
 1366SOL    HW1 5872  14.808   7.076   6.863
 1366SOL    HW2 5873  14.741   7.115   6.732
 1367SOL     OW 5874   1.550   9.958  12.821
 1367SOL    HW1 5875   1.595   9.993  12.897
 1367SOL    HW2 5876   1.473   9.914  12.857
 1368SOL     OW 5877   4.774   6.080   0.092
 1368SOL    HW1 5878   4.801   6.123   0.173
 1368SOL    HW2 5879   4.781   5.986   0.111
 1369SOL     OW 5880   6.614   9.818   0.285
 1369SOL    HW1 5881   6.696   9.772   0.304
 1369SOL    HW2 5882   6.573   9.767   0.215
 1370SOL     OW 5883   9.516   0.537   1.929
 1370SOL    HW1 5884   9.564   0.618   1.943
 1370SOL    HW2 5885   9.538   0.482   2.004
 1371SOL     OW 5886   1.505   7.422   0.302
 1371SOL    HW1 5887   1.427   7.435   0.356
 1371SOL    HW2 5888   1.516   7.505   0.255
 1372SOL     OW 5889  12.136   6.176   3.913
 1372SOL    HW1 5890  12.136   6.208   4.003
 1372SOL    HW2 5891  12.204   6.110   3.911
 1373SOL     OW 5892  11.362  11.176   0.507
 1373SOL    HW1 5893  11.361  11.260   0.552
 1373SOL    HW2 5894  11.375  11.198   0.414
 1374SOL     OW 5895  11.207   2.222   5.064
 1374SOL    HW1 5896  11.246   2.158   5.123
 1374SOL    HW2 5897  11.142   2.173   5.014
 1375SOL     OW 5898  11.784  12.101   5.910
 1375SOL    HW1 5899  11.854  12.098   5.845
 1375SOL    HW2 5900  11.729  12.026   5.889
 1376SOL     OW 5901   1.421  14.104  13.639
 1376SOL    HW1 5902   1.333  14.141  13.641
 1376SOL    HW2 5903   1.452  14.112  13.729
 1377SOL     OW 5904   7.174   6.636  13.081
 1377SOL    HW1 5905   7.114   6.561  13.072
 1377SOL    HW2 5906   7.115   6.711  13.091
 1378SOL     OW 5907  14.191   9.937   7.059
 1378SOL    HW1 5908  14.172   9.848   7.087
 1378SOL    HW2 5909  14.107   9.983   7.065
 1379SOL     OW 5910  10.920   7.242   0.995
 1379SOL    HW1 5911  10.971   7.310   0.949
 1379SOL    HW2 5912  10.882   7.190   0.924
 1380SOL     OW 5913   1.183   0.500   7.797
 1380SOL    HW1 5914   1.169   0.419   7.748
 1380SOL    HW2 5915   1.111   0.557   7.769
 1381SOL     OW 5916  13.691   9.522   7.009
 1381SOL    HW1 5917  13.694   9.607   7.053
 1381SOL    HW2 5918  13.637   9.467   7.067
 1382SOL     OW 5919   5.163   1.647   2.471
 1382SOL    HW1 5920   5.122   1.615   2.552
 1382SOL    HW2 5921   5.252   1.614   2.475
 1383SOL     OW 5922   0.648   9.602   9.014
 1383SOL    HW1 5923   0.566   9.570   8.978
 1383SOL    HW2 5924   0.628   9.691   9.043
 1384SOL     OW 5925   8.971   9.488  14.024
 1384SOL    HW1 5926   9.018   9.571  14.021
 1384SOL    HW2 5927   8.899   9.498  13.962
 1385SOL     OW 5928  12.469   2.983   9.119
 1385SOL    HW1 5929  12.376   2.990   9.141
 1385SOL    HW2 5930  12.514   3.034   9.186
 1386SOL     OW 5931  11.049   5.616  10.281
 1386SOL    HW1 5932  10.990   5.624  10.356
 1386SOL    HW2 5933  11.094   5.700  10.277
 1387SOL     OW 5934   3.800  10.585   4.166
 1387SOL    HW1 5935   3.875  10.533   4.138
 1387SOL    HW2 5936   3.836  10.645   4.232
 1388SOL     OW 5937   7.999  11.734   0.410
 1388SOL    HW1 5938   8.026  11.651   0.372
 1388SOL    HW2 5939   7.987  11.792   0.335
 1389SOL     OW 5940  13.996   3.513   4.038
 1389SOL    HW1 5941  14.058   3.449   4.071
 1389SOL    HW2 5942  13.979   3.486   3.947
 1390SOL     OW 5943  11.685   1.907   4.865
 1390SOL    HW1 5944  11.707   1.997   4.842
 1390SOL    HW2 5945  11.741   1.887   4.940
 1391SOL     OW 5946   6.886   0.364   5.736
 1391SOL    HW1 5947   6.872   0.354   5.830
 1391SOL    HW2 5948   6.819   0.308   5.696
 1392SOL     OW 5949   1.883   1.109   7.190
 1392SOL    HW1 5950   1.854   1.106   7.099
 1392SOL    HW2 5951   1.832   1.181   7.229
 1393SOL     OW 5952   7.752  10.355  14.493
 1393SOL    HW1 5953   7.816  10.285  14.479
 1393SOL    HW2 5954   7.791  10.411  14.560
 1394SOL     OW 5955   2.309   4.766   9.829
 1394SOL    HW1 5956   2.371   4.798   9.764
 1394SOL    HW2 5957   2.351   4.687   9.864
 1395SOL     OW 5958  13.085  12.670  10.303
 1395SOL    HW1 5959  13.132  12.679  10.220
 1395SOL    HW2 5960  13.145  12.621  10.359
 1396SOL     OW 5961   1.979  13.692   8.844
 1396SOL    HW1 5962   2.033  13.677   8.922
 1396SOL    HW2 5963   2.035  13.741   8.784
 1397SOL     OW 5964  10.189  13.082   6.066
 1397SOL    HW1 5965  10.115  13.078   6.127
 1397SOL    HW2 5966  10.232  13.166   6.086
 1398SOL     OW 5967   4.917   4.882   4.451
 1398SOL    HW1 5968   4.827   4.914   4.438
 1398SOL    HW2 5969   4.937   4.834   4.371
 1399SOL     OW 5970   1.827   6.914   4.797
 1399SOL    HW1 5971   1.917   6.946   4.785
 1399SOL    HW2 5972   1.780   6.990   4.832
 1400SOL     OW 5973   8.733   0.079   7.276
 1400SOL    HW1 5974   8.771   0.165   7.257
 1400SOL    HW2 5975   8.776   0.019   7.214
 1401SOL     OW 5976  13.893  12.147  12.464
 1401SOL    HW1 5977  13.982  12.171  12.437
 1401SOL    HW2 5978  13.837  12.184  12.396
 1402SOL     OW 5979   6.654   5.677   2.270
 1402SOL    HW1 5980   6.570   5.633   2.256
 1402SOL    HW2 5981   6.669   5.725   2.188
 1403SOL     OW 5982   9.609   8.451   2.623
 1403SOL    HW1 5983   9.688   8.413   2.662
 1403SOL    HW2 5984   9.639   8.534   2.585
 1404SOL     OW 5985   7.828   9.259  13.093
 1404SOL    HW1 5986   7.752   9.313  13.114
 1404SOL    HW2 5987   7.819   9.241  12.999
 1405SOL     OW 5988   5.729   1.688   6.408
 1405SOL    HW1 5989   5.712   1.703   6.501
 1405SOL    HW2 5990   5.668   1.620   6.382
 1406SOL     OW 5991   7.143   7.900   8.179
 1406SOL    HW1 5992   7.161   7.900   8.085
 1406SOL    HW2 5993   7.196   7.828   8.213
 1407SOL     OW 5994  12.032   4.254   0.340
 1407SOL    HW1 5995  12.058   4.232   0.250
 1407SOL    HW2 5996  12.111   4.292   0.379
 1408SOL     OW 5997   0.929   1.186   2.018
 1408SOL    HW1 5998   1.023   1.193   2.002
 1408SOL    HW2 5999   0.893   1.148   1.938
 1409SOL     OW 6000   7.198   7.891   4.586
 1409SOL    HW1 6001   7.149   7.895   4.503
 1409SOL    HW2 6002   7.264   7.823   4.572
 1410SOL     OW 6003  12.004   1.876  14.153
 1410SOL    HW1 6004  12.082   1.928  14.176
 1410SOL    HW2 6005  12.017   1.792  14.197
 1411SOL     OW 6006   2.881   0.358   4.669
 1411SOL    HW1 6007   2.863   0.409   4.748
 1411SOL    HW2 6008   2.811   0.292   4.667
 1412SOL     OW 6009  13.549   9.995   5.423
 1412SOL    HW1 6010  13.527  10.041   5.504
 1412SOL    HW2 6011  13.645   9.992   5.422
 1413SOL     OW 6012  12.267  10.818   9.010
 1413SOL    HW1 6013  12.306  10.842   8.926
 1413SOL    HW2 6014  12.253  10.723   9.005
 1414SOL     OW 6015   6.052   7.794  12.811
 1414SOL    HW1 6016   6.055   7.698  12.812
 1414SOL    HW2 6017   6.082   7.818  12.723
 1415SOL     OW 6018  11.450  10.725   0.087
 1415SOL    HW1 6019  11.438  10.705  14.876
 1415SOL    HW2 6020  11.469  10.819   0.089
 1416SOL     OW 6021  10.971   0.868   3.652
 1416SOL    HW1 6022  10.990   0.869   3.558
 1416SOL    HW2 6023  11.045   0.823   3.691
 1417SOL     OW 6024  13.732   4.777   3.127
 1417SOL    HW1 6025  13.773   4.854   3.087
 1417SOL    HW2 6026  13.736   4.795   3.221
 1418SOL     OW 6027   1.435   3.663   1.651
 1418SOL    HW1 6028   1.516   3.629   1.614
 1418SOL    HW2 6029   1.433   3.755   1.624
 1419SOL     OW 6030   9.141  10.120   0.492
 1419SOL    HW1 6031   9.205  10.188   0.472
 1419SOL    HW2 6032   9.164  10.047   0.433
 1420SOL     OW 6033   0.922  10.174   2.127
 1420SOL    HW1 6034   0.951  10.083   2.134
 1420SOL    HW2 6035   0.833  10.174   2.160
 1421SOL     OW 6036   2.633   2.414   0.344
 1421SOL    HW1 6037   2.648   2.483   0.280
 1421SOL    HW2 6038   2.680   2.444   0.422
 1422SOL     OW 6039   3.743  12.335  14.826
 1422SOL    HW1 6040   3.767  12.415  14.872
 1422SOL    HW2 6041   3.739  12.361  14.734
 1423SOL     OW 6042   4.691   2.484   0.480
 1423SOL    HW1 6043   4.714   2.481   0.387
 1423SOL    HW2 6044   4.605   2.442   0.486
 1424SOL     OW 6045   4.196   7.292   7.318
 1424SOL    HW1 6046   4.269   7.274   7.377
 1424SOL    HW2 6047   4.172   7.206   7.282
 1425SOL     OW 6048  10.890  13.204   1.503
 1425SOL    HW1 6049  10.957  13.208   1.435
 1425SOL    HW2 6050  10.844  13.122   1.487
 1426SOL     OW 6051   4.218  11.567   3.746
 1426SOL    HW1 6052   4.248  11.649   3.786
 1426SOL    HW2 6053   4.219  11.504   3.818
 1427SOL     OW 6054  12.590  11.324  10.261
 1427SOL    HW1 6055  12.664  11.285  10.215
 1427SOL    HW2 6056  12.513  11.300  10.209
 1428SOL     OW 6057   1.929   1.929  13.036
 1428SOL    HW1 6058   1.834   1.917  13.031
 1428SOL    HW2 6059   1.946   1.944  13.129
 1429SOL     OW 6060  11.335   3.303   7.156
 1429SOL    HW1 6061  11.373   3.230   7.106
 1429SOL    HW2 6062  11.282   3.351   7.093
 1430SOL     OW 6063   6.241   5.965  14.382
 1430SOL    HW1 6064   6.319   6.011  14.414
 1430SOL    HW2 6065   6.191   5.947  14.461
 1431SOL     OW 6066   0.560  13.866   3.293
 1431SOL    HW1 6067   0.648  13.862   3.330
 1431SOL    HW2 6068   0.572  13.902   3.205
 1432SOL     OW 6069  11.628  11.721   6.441
 1432SOL    HW1 6070  11.711  11.684   6.471
 1432SOL    HW2 6071  11.567  11.703   6.512
 1433SOL     OW 6072   7.311   3.964  13.732
 1433SOL    HW1 6073   7.336   4.030  13.668
 1433SOL    HW2 6074   7.386   3.957  13.791
 1434SOL     OW 6075  12.155   8.801   7.397
 1434SOL    HW1 6076  12.104   8.882   7.392
 1434SOL    HW2 6077  12.236   8.821   7.350
 1435SOL     OW 6078   6.227   0.011   1.917
 1435SOL    HW1 6079   6.230   0.102   1.947
 1435SOL    HW2 6080   6.319  14.869   1.904
 1436SOL     OW 6081   5.080   1.088   2.001
 1436SOL    HW1 6082   5.095   0.995   2.018
 1436SOL    HW2 6083   5.027   1.089   1.921
 1437SOL     OW 6084  13.599   3.273  13.075
 1437SOL    HW1 6085  13.682   3.227  13.064
 1437SOL    HW2 6086  13.533   3.207  13.056
 1438SOL     OW 6087  13.268  12.814   5.897
 1438SOL    HW1 6088  13.217  12.784   5.822
 1438SOL    HW2 6089  13.352  12.840   5.860
 1439SOL     OW 6090   7.966   4.251  13.959
 1439SOL    HW1 6091   7.904   4.209  14.018
 1439SOL    HW2 6092   7.960   4.345  13.980
 1440SOL     OW 6093   9.219   6.587   0.109
 1440SOL    HW1 6094   9.238   6.673   0.071
 1440SOL    HW2 6095   9.217   6.528   0.034
 1441SOL     OW 6096   0.968  14.828  10.268
 1441SOL    HW1 6097   1.053  14.870  10.274
 1441SOL    HW2 6098   0.931  14.860  10.185
 1442SOL     OW 6099  10.909   1.312   1.217
 1442SOL    HW1 6100  10.911   1.246   1.287
 1442SOL    HW2 6101  10.825   1.356   1.228
 1443SOL     OW 6102   0.923   0.915   5.363
 1443SOL    HW1 6103   0.955   0.850   5.426
 1443SOL    HW2 6104   1.000   0.965   5.339
 1444SOL     OW 6105   3.297  13.659  13.976
 1444SOL    HW1 6106   3.201  13.655  13.977
 1444SOL    HW2 6107   3.318  13.737  14.026
 1445SOL     OW 6108  11.420   6.275   6.528
 1445SOL    HW1 6109  11.339   6.228   6.546
 1445SOL    HW2 6110  11.476   6.256   6.604
 1446SOL     OW 6111   4.578  11.239   9.051
 1446SOL    HW1 6112   4.672  11.227   9.065
 1446SOL    HW2 6113   4.547  11.153   9.022
 1447SOL     OW 6114   1.815   7.905   8.919
 1447SOL    HW1 6115   1.889   7.950   8.877
 1447SOL    HW2 6116   1.845   7.814   8.926
 1448SOL     OW 6117   4.416   5.122  13.332
 1448SOL    HW1 6118   4.343   5.072  13.369
 1448SOL    HW2 6119   4.457   5.164  13.408
 1449SOL     OW 6120   6.059   5.193  13.632
 1449SOL    HW1 6121   5.967   5.168  13.622
 1449SOL    HW2 6122   6.102   5.112  13.660
 1450SOL     OW 6123   0.579   2.745   2.779
 1450SOL    HW1 6124   0.535   2.691   2.714
 1450SOL    HW2 6125   0.510   2.803   2.812
 1451SOL     OW 6126   7.917  14.521   0.680
 1451SOL    HW1 6127   7.997  14.472   0.663
 1451SOL    HW2 6128   7.947  14.611   0.696
 1452SOL     OW 6129   3.536  13.870   5.812
 1452SOL    HW1 6130   3.505  13.782   5.834
 1452SOL    HW2 6131   3.627  13.872   5.840
 1453SOL     OW 6132  12.094   2.211   8.163
 1453SOL    HW1 6133  12.067   2.264   8.237
 1453SOL    HW2 6134  12.117   2.126   8.201
 1454SOL     OW 6135  13.023  11.315   8.482
 1454SOL    HW1 6136  12.972  11.327   8.562
 1454SOL    HW2 6137  12.956  11.305   8.413
 1455SOL     OW 6138   5.697   4.169   1.744
 1455SOL    HW1 6139   5.607   4.201   1.750
 1455SOL    HW2 6140   5.695   4.107   1.671
 1456SOL     OW 6141  13.135  10.460  12.432
 1456SOL    HW1 6142  13.108  10.384  12.381
 1456SOL    HW2 6143  13.178  10.517  12.368
 1457SOL     OW 6144   6.663  11.123   8.872
 1457SOL    HW1 6145   6.726  11.072   8.924
 1457SOL    HW2 6146   6.673  11.089   8.783
 1458SOL     OW 6147   1.528  14.672  12.435
 1458SOL    HW1 6148   1.600  14.735  12.435
 1458SOL    HW2 6149   1.565  14.592  12.398
 1459SOL     OW 6150  13.172   4.077   1.257
 1459SOL    HW1 6151  13.104   4.112   1.199
 1459SOL    HW2 6152  13.254   4.106   1.219
 1460SOL     OW 6153  12.762   7.927  11.150
 1460SOL    HW1 6154  12.780   8.007  11.199
 1460SOL    HW2 6155  12.717   7.870  11.212
 1461SOL     OW 6156  12.358  11.371  13.629
 1461SOL    HW1 6157  12.263  11.378  13.642
 1461SOL    HW2 6158  12.369  11.291  13.578
 1462SOL     OW 6159   4.879  12.694  14.614
 1462SOL    HW1 6160   4.951  12.673  14.672
 1462SOL    HW2 6161   4.918  12.752  14.548
 1463SOL     OW 6162   5.236   5.068   4.505
 1463SOL    HW1 6163   5.176   5.120   4.452
 1463SOL    HW2 6164   5.261   4.995   4.449
 1464SOL     OW 6165   1.622  11.613   6.050
 1464SOL    HW1 6166   1.716  11.604   6.065
 1464SOL    HW2 6167   1.603  11.705   6.068
 1465SOL     OW 6168   0.414   8.384  13.450
 1465SOL    HW1 6169   0.404   8.289  13.441
 1465SOL    HW2 6170   0.421   8.399  13.544
 1466SOL     OW 6171   0.731   3.648   7.361
 1466SOL    HW1 6172   0.717   3.721   7.421
 1466SOL    HW2 6173   0.662   3.585   7.384
 1467SOL     OW 6174   1.253   0.769   7.964
 1467SOL    HW1 6175   1.326   0.781   7.904
 1467SOL    HW2 6176   1.180   0.743   7.908
 1468SOL     OW 6177   2.893   8.832  11.716
 1468SOL    HW1 6178   2.974   8.789  11.743
 1468SOL    HW2 6179   2.919   8.922  11.695
 1469SOL     OW 6180   3.483   8.042   8.460
 1469SOL    HW1 6181   3.484   8.118   8.518
 1469SOL    HW2 6182   3.391   8.017   8.455
 1470SOL     OW 6183  11.303  11.394   3.537
 1470SOL    HW1 6184  11.393  11.427   3.540
 1470SOL    HW2 6185  11.312  11.300   3.522
 1471SOL     OW 6186  13.511   1.709  12.432
 1471SOL    HW1 6187  13.539   1.799  12.448
 1471SOL    HW2 6188  13.577   1.673  12.373
 1472SOL     OW 6189   2.951   8.281  10.195
 1472SOL    HW1 6190   2.920   8.297  10.106
 1472SOL    HW2 6191   3.008   8.355  10.214
 1473SOL     OW 6192  10.967   4.644  13.593
 1473SOL    HW1 6193  10.903   4.674  13.658
 1473SOL    HW2 6194  10.982   4.721  13.538
 1474SOL     OW 6195  11.739   2.474  12.963
 1474SOL    HW1 6196  11.746   2.567  12.984
 1474SOL    HW2 6197  11.716   2.432  13.046
 1475SOL     OW 6198   6.899   8.587  10.357
 1475SOL    HW1 6199   6.850   8.618  10.433
 1475SOL    HW2 6200   6.966   8.529  10.394
 1476SOL     OW 6201   2.678   1.566   6.451
 1476SOL    HW1 6202   2.746   1.625   6.417
 1476SOL    HW2 6203   2.718   1.479   6.447
 1477SOL     OW 6204   4.254   0.509   7.487
 1477SOL    HW1 6205   4.335   0.459   7.478
 1477SOL    HW2 6206   4.200   0.458   7.547
 1478SOL     OW 6207   1.658   4.674  10.143
 1478SOL    HW1 6208   1.645   4.734  10.069
 1478SOL    HW2 6209   1.733   4.710  10.190
 1479SOL     OW 6210   0.474   4.504  14.101
 1479SOL    HW1 6211   0.426   4.458  14.170
 1479SOL    HW2 6212   0.566   4.496  14.127
 1480SOL     OW 6213  14.514   3.667   8.994
 1480SOL    HW1 6214  14.479   3.739   9.047
 1480SOL    HW2 6215  14.479   3.588   9.035
 1481SOL     OW 6216  12.334   3.745   9.405
 1481SOL    HW1 6217  12.279   3.741   9.483
 1481SOL    HW2 6218  12.422   3.764   9.437
 1482SOL     OW 6219   0.201  14.155   8.288
 1482SOL    HW1 6220   0.109  14.129   8.287
 1482SOL    HW2 6221   0.223  14.172   8.196
 1483SOL     OW 6222   4.297   1.436   2.601
 1483SOL    HW1 6223   4.283   1.382   2.678
 1483SOL    HW2 6224   4.281   1.525   2.630
 1484SOL     OW 6225   0.795  14.864  10.040
 1484SOL    HW1 6226   0.724  14.815  10.082
 1484SOL    HW2 6227   0.750   0.053   9.993
 1485SOL     OW 6228  13.470  12.981  11.251
 1485SOL    HW1 6229  13.556  12.988  11.291
 1485SOL    HW2 6230  13.486  12.946  11.163
 1486SOL     OW 6231   7.328   8.299  13.789
 1486SOL    HW1 6232   7.398   8.361  13.804
 1486SOL    HW2 6233   7.254   8.352  13.760
 1487SOL     OW 6234   9.404   7.451   2.530
 1487SOL    HW1 6235   9.316   7.486   2.541
 1487SOL    HW2 6236   9.452   7.480   2.608
 1488SOL     OW 6237  13.664   4.295   1.348
 1488SOL    HW1 6238  13.671   4.209   1.389
 1488SOL    HW2 6239  13.573   4.320   1.360
 1489SOL     OW 6240  10.270  13.964   7.351
 1489SOL    HW1 6241  10.222  14.038   7.312
 1489SOL    HW2 6242  10.253  13.891   7.292
 1490SOL     OW 6243   2.237   9.338  10.675
 1490SOL    HW1 6244   2.187   9.377  10.603
 1490SOL    HW2 6245   2.309   9.292  10.632
 1491SOL     OW 6246   2.611   5.715   3.755
 1491SOL    HW1 6247   2.645   5.784   3.812
 1491SOL    HW2 6248   2.519   5.737   3.743
 1492SOL     OW 6249   7.575   0.291   1.924
 1492SOL    HW1 6250   7.513   0.252   1.862
 1492SOL    HW2 6251   7.660   0.278   1.884
 1493SOL     OW 6252   2.192   7.601   7.811
 1493SOL    HW1 6253   2.218   7.693   7.813
 1493SOL    HW2 6254   2.239   7.563   7.736
 1494SOL     OW 6255   8.424  13.054   2.064
 1494SOL    HW1 6256   8.338  13.097   2.064
 1494SOL    HW2 6257   8.481  13.115   2.111
 1495SOL     OW 6258  12.122   0.078  11.794
 1495SOL    HW1 6259  12.040   0.095  11.841
 1495SOL    HW2 6260  12.099   0.088  11.702
 1496SOL     OW 6261   3.724  11.216   5.562
 1496SOL    HW1 6262   3.673  11.200   5.482
 1496SOL    HW2 6263   3.814  11.198   5.537
 1497SOL     OW 6264   2.733  13.851   6.988
 1497SOL    HW1 6265   2.670  13.826   6.921
 1497SOL    HW2 6266   2.684  13.910   7.046
 1498SOL     OW 6267   4.776   0.744   8.931
 1498SOL    HW1 6268   4.816   0.791   8.857
 1498SOL    HW2 6269   4.713   0.685   8.890
 1499SOL     OW 6270   2.718  12.118   1.956
 1499SOL    HW1 6271   2.724  12.032   1.997
 1499SOL    HW2 6272   2.628  12.146   1.972
 1500SOL     OW 6273   1.067  10.788   9.422
 1500SOL    HW1 6274   1.018  10.806   9.342
 1500SOL    HW2 6275   1.034  10.851   9.486
 1501SOL     OW 6276   1.202   4.751  11.723
 1501SOL    HW1 6277   1.220   4.827  11.779
 1501SOL    HW2 6278   1.108   4.757  11.705
 1502SOL     OW 6279  14.530   8.532   0.834
 1502SOL    HW1 6280  14.617   8.491   0.826
 1502SOL    HW2 6281  14.493   8.527   0.746
 1503SOL     OW 6282  11.449   1.498   7.142
 1503SOL    HW1 6283  11.515   1.471   7.204
 1503SOL    HW2 6284  11.472   1.453   7.061
 1504SOL     OW 6285   4.205   6.289   5.989
 1504SOL    HW1 6286   4.216   6.212   6.046
 1504SOL    HW2 6287   4.290   6.299   5.946
 1505SOL     OW 6288   8.871  11.580  11.134
 1505SOL    HW1 6289   8.891  11.534  11.053
 1505SOL    HW2 6290   8.895  11.671  11.116
 1506SOL     OW 6291  12.385  12.561   2.334
 1506SOL    HW1 6292  12.469  12.538   2.374
 1506SOL    HW2 6293  12.338  12.610   2.401
 1507SOL     OW 6294   5.685   9.800   3.083
 1507SOL    HW1 6295   5.759   9.855   3.108
 1507SOL    HW2 6296   5.724   9.715   3.064
 1508SOL     OW 6297   3.402  10.476   3.311
 1508SOL    HW1 6298   3.412  10.409   3.243
 1508SOL    HW2 6299   3.366  10.428   3.386
 1509SOL     OW 6300   5.965   3.820   5.442
 1509SOL    HW1 6301   5.919   3.770   5.510
 1509SOL    HW2 6302   6.057   3.815   5.467
 1510SOL     OW 6303   4.048   7.276   8.125
 1510SOL    HW1 6304   4.030   7.238   8.040
 1510SOL    HW2 6305   3.976   7.337   8.141
 1511SOL     OW 6306  14.201  11.342  14.722
 1511SOL    HW1 6307  14.292  11.312  14.715
 1511SOL    HW2 6308  14.164  11.289  14.792
 1512SOL     OW 6309   1.897   8.404   1.766
 1512SOL    HW1 6310   1.987   8.382   1.787
 1512SOL    HW2 6311   1.864   8.329   1.717
 1513SOL     OW 6312   2.396   3.204  14.505
 1513SOL    HW1 6313   2.438   3.154  14.435
 1513SOL    HW2 6314   2.420   3.158  14.586
 1514SOL     OW 6315  12.921  10.849   2.230
 1514SOL    HW1 6316  12.878  10.763   2.237
 1514SOL    HW2 6317  12.903  10.877   2.140
 1515SOL     OW 6318   9.076  14.127   4.125
 1515SOL    HW1 6319   9.118  14.155   4.045
 1515SOL    HW2 6320   9.088  14.200   4.186
 1516SOL     OW 6321   7.716  12.048   0.083
 1516SOL    HW1 6322   7.635  12.048   0.135
 1516SOL    HW2 6323   7.728  11.957   0.057
 1517SOL     OW 6324  13.255   7.060   0.484
 1517SOL    HW1 6325  13.183   6.999   0.466
 1517SOL    HW2 6326  13.306   7.060   0.403
 1518SOL     OW 6327   4.996   4.532  12.033
 1518SOL    HW1 6328   4.999   4.627  12.045
 1518SOL    HW2 6329   4.904   4.509  12.041
 1519SOL     OW 6330   6.283  10.691   9.450
 1519SOL    HW1 6331   6.216  10.697   9.382
 1519SOL    HW2 6332   6.260  10.613   9.500
 1520SOL     OW 6333  12.887   9.941  11.070
 1520SOL    HW1 6334  12.888  10.002  10.997
 1520SOL    HW2 6335  12.857   9.993  11.145
 1521SOL     OW 6336   4.737  12.150   6.249
 1521SOL    HW1 6337   4.771  12.229   6.291
 1521SOL    HW2 6338   4.731  12.173   6.157
 1522SOL     OW 6339  11.586   3.616   6.048
 1522SOL    HW1 6340  11.516   3.670   6.011
 1522SOL    HW2 6341  11.666   3.667   6.032
 1523SOL     OW 6342  10.497  10.631   7.954
 1523SOL    HW1 6343  10.419  10.685   7.947
 1523SOL    HW2 6344  10.463  10.542   7.969
 1524SOL     OW 6345   9.941   5.341   7.625
 1524SOL    HW1 6346   9.964   5.253   7.596
 1524SOL    HW2 6347  10.025   5.381   7.650
 1525SOL     OW 6348   5.999   1.875  14.427
 1525SOL    HW1 6349   5.963   1.810  14.487
 1525SOL    HW2 6350   6.087   1.893  14.461
 1526SOL     OW 6351  13.162  10.484   4.749
 1526SOL    HW1 6352  13.246  10.482   4.795
 1526SOL    HW2 6353  13.146  10.576   4.732
 1527SOL     OW 6354   0.284   5.290   5.672
 1527SOL    HW1 6355   0.259   5.331   5.590
 1527SOL    HW2 6356   0.220   5.321   5.736
 1528SOL     OW 6357   2.197  10.556  12.392
 1528SOL    HW1 6358   2.255  10.614  12.343
 1528SOL    HW2 6359   2.225  10.468  12.367
 1529SOL     OW 6360   1.860   8.504   1.461
 1529SOL    HW1 6361   1.800   8.436   1.430
 1529SOL    HW2 6362   1.819   8.538   1.540
 1530SOL     OW 6363   7.728   3.107  12.980
 1530SOL    HW1 6364   7.638   3.119  13.012
 1530SOL    HW2 6365   7.770   3.055  13.049
 1531SOL     OW 6366   3.747  10.516   9.185
 1531SOL    HW1 6367   3.783  10.428   9.183
 1531SOL    HW2 6368   3.713  10.527   9.274
 1532SOL     OW 6369   3.066  13.920   7.319
 1532SOL    HW1 6370   3.037  14.011   7.319
 1532SOL    HW2 6371   2.992  13.871   7.354
 1533SOL     OW 6372  10.432   7.477   2.401
 1533SOL    HW1 6373  10.343   7.442   2.397
 1533SOL    HW2 6374  10.453   7.502   2.311
 1534SOL     OW 6375  10.559   8.967  12.419
 1534SOL    HW1 6376  10.553   8.903  12.490
 1534SOL    HW2 6377  10.647   8.956  12.384
 1535SOL     OW 6378   6.830  13.925   1.424
 1535SOL    HW1 6379   6.844  13.876   1.343
 1535SOL    HW2 6380   6.754  13.980   1.405
 1536SOL     OW 6381   5.844  10.049   2.300
 1536SOL    HW1 6382   5.757  10.031   2.264
 1536SOL    HW2 6383   5.838  10.021   2.392
 1537SOL     OW 6384   7.000   3.328   3.181
 1537SOL    HW1 6385   7.018   3.261   3.246
 1537SOL    HW2 6386   7.086   3.357   3.151
 1538SOL     OW 6387  10.638   4.554  13.494
 1538SOL    HW1 6388  10.595   4.528  13.575
 1538SOL    HW2 6389  10.633   4.477  13.438
 1539SOL     OW 6390   5.359   7.162  13.906
 1539SOL    HW1 6391   5.352   7.120  13.992
 1539SOL    HW2 6392   5.273   7.199  13.890
 1540SOL     OW 6393  14.590  14.567  13.726
 1540SOL    HW1 6394  14.678  14.567  13.689
 1540SOL    HW2 6395  14.557  14.479  13.707
 1541SOL     OW 6396  13.389  12.927   7.165
 1541SOL    HW1 6397  13.401  12.839   7.200
 1541SOL    HW2 6398  13.310  12.960   7.207
 1542SOL     OW 6399   1.457   9.987  13.832
 1542SOL    HW1 6400   1.489   9.898  13.849
 1542SOL    HW2 6401   1.536  10.038  13.816
 1543SOL     OW 6402   6.423   4.514   0.219
 1543SOL    HW1 6403   6.414   4.545   0.310
 1543SOL    HW2 6404   6.356   4.446   0.210
 1544SOL     OW 6405  13.447   5.824  11.214
 1544SOL    HW1 6406  13.443   5.808  11.119
 1544SOL    HW2 6407  13.538   5.803  11.238
 1545SOL     OW 6408  13.275  11.380   9.587
 1545SOL    HW1 6409  13.312  11.292   9.593
 1545SOL    HW2 6410  13.181  11.368   9.601
 1546SOL     OW 6411  12.872   4.562   5.494
 1546SOL    HW1 6412  12.897   4.619   5.566
 1546SOL    HW2 6413  12.821   4.617   5.435
 1547SOL     OW 6414   4.321  14.686  12.206
 1547SOL    HW1 6415   4.236  14.683  12.249
 1547SOL    HW2 6416   4.377  14.736  12.265
 1548SOL     OW 6417   1.714   7.800  12.165
 1548SOL    HW1 6418   1.804   7.791  12.134
 1548SOL    HW2 6419   1.721   7.847  12.248
 1549SOL     OW 6420   5.594   1.086  13.147
 1549SOL    HW1 6421   5.547   1.149  13.202
 1549SOL    HW2 6422   5.569   1.000  13.181
 1550SOL     OW 6423   9.708  12.684   9.590
 1550SOL    HW1 6424   9.745  12.744   9.655
 1550SOL    HW2 6425   9.642  12.736   9.545
 1551SOL     OW 6426   2.744  14.295   7.402
 1551SOL    HW1 6427   2.663  14.254   7.373
 1551SOL    HW2 6428   2.716  14.365   7.461
 1552SOL     OW 6429  12.622   9.833   3.282
 1552SOL    HW1 6430  12.621   9.783   3.364
 1552SOL    HW2 6431  12.593   9.921   3.307
 1553SOL     OW 6432   1.980   6.051   5.613
 1553SOL    HW1 6433   1.959   6.145   5.610
 1553SOL    HW2 6434   1.949   6.017   5.529
 1554SOL     OW 6435   2.420  13.710   4.199
 1554SOL    HW1 6436   2.329  13.706   4.229
 1554SOL    HW2 6437   2.455  13.623   4.217
 1555SOL     OW 6438   3.442   7.319   1.814
 1555SOL    HW1 6439   3.516   7.366   1.775
 1555SOL    HW2 6440   3.443   7.344   1.906
 1556SOL     OW 6441  13.083   7.854   6.011
 1556SOL    HW1 6442  12.988   7.862   6.012
 1556SOL    HW2 6443  13.104   7.830   5.921
 1557SOL     OW 6444   8.469   4.150   3.775
 1557SOL    HW1 6445   8.447   4.185   3.688
 1557SOL    HW2 6446   8.472   4.055   3.762
 1558SOL     OW 6447  12.974   9.484   6.895
 1558SOL    HW1 6448  12.886   9.505   6.864
 1558SOL    HW2 6449  13.000   9.409   6.842
 1559SOL     OW 6450   6.180   6.025  12.033
 1559SOL    HW1 6451   6.086   6.041  12.042
 1559SOL    HW2 6452   6.192   6.010  11.939
 1560SOL     OW 6453   6.741   0.600  13.183
 1560SOL    HW1 6454   6.817   0.649  13.153
 1560SOL    HW2 6455   6.674   0.667  13.200
 1561SOL     OW 6456   7.083   4.313  14.379
 1561SOL    HW1 6457   7.092   4.406  14.401
 1561SOL    HW2 6458   7.019   4.280  14.442
 1562SOL     OW 6459  12.500   7.102   5.205
 1562SOL    HW1 6460  12.575   7.088   5.262
 1562SOL    HW2 6461  12.455   7.017   5.204
 1563SOL     OW 6462   6.101  14.484   0.947
 1563SOL    HW1 6463   6.021  14.444   0.915
 1563SOL    HW2 6464   6.167  14.415   0.939
 1564SOL     OW 6465   5.943   2.114   6.812
 1564SOL    HW1 6466   5.977   2.111   6.723
 1564SOL    HW2 6467   5.882   2.188   6.813
 1565SOL     OW 6468   4.503  10.978   6.172
 1565SOL    HW1 6469   4.539  10.912   6.232
 1565SOL    HW2 6470   4.542  11.060   6.201
 1566SOL     OW 6471  13.422   5.425  10.794
 1566SOL    HW1 6472  13.455   5.497  10.740
 1566SOL    HW2 6473  13.371   5.371  10.734
 1567SOL     OW 6474   5.935   7.896  13.768
 1567SOL    HW1 6475   6.021   7.894  13.725
 1567SOL    HW2 6476   5.928   7.809  13.808
 1568SOL     OW 6477   0.099   0.733  13.302
 1568SOL    HW1 6478   0.007   0.707  13.309
 1568SOL    HW2 6479   0.120   0.769  13.388
 1569SOL     OW 6480   7.279   3.162   0.375
 1569SOL    HW1 6481   7.191   3.126   0.384
 1569SOL    HW2 6482   7.264   3.253   0.349
 1570SOL     OW 6483  10.303  14.226   5.770
 1570SOL    HW1 6484  10.371  14.159   5.778
 1570SOL    HW2 6485  10.352  14.307   5.755
 1571SOL     OW 6486  14.731   4.238   9.563
 1571SOL    HW1 6487  14.771   4.168   9.613
 1571SOL    HW2 6488  14.796   4.262   9.497
 1572SOL     OW 6489   5.164  14.550   4.121
 1572SOL    HW1 6490   5.076  14.513   4.125
 1572SOL    HW2 6491   5.221  14.476   4.143
 1573SOL     OW 6492   2.387  10.801  11.004
 1573SOL    HW1 6493   2.327  10.862  11.047
 1573SOL    HW2 6494   2.471  10.817  11.047
 1574SOL     OW 6495   0.673  10.610   4.793
 1574SOL    HW1 6496   0.675  10.658   4.876
 1574SOL    HW2 6497   0.755  10.634   4.749
 1575SOL     OW 6498   7.026   1.619   6.217
 1575SOL    HW1 6499   7.058   1.709   6.228
 1575SOL    HW2 6500   6.954   1.626   6.155
 1576SOL     OW 6501  13.839   7.974   3.633
 1576SOL    HW1 6502  13.828   7.892   3.584
 1576SOL    HW2 6503  13.775   8.033   3.593
 1577SOL     OW 6504   2.803   3.750   3.413
 1577SOL    HW1 6505   2.852   3.679   3.372
 1577SOL    HW2 6506   2.799   3.818   3.346
 1578SOL     OW 6507   4.507   6.759  14.497
 1578SOL    HW1 6508   4.429   6.730  14.450
 1578SOL    HW2 6509   4.479   6.840  14.541
 1579SOL     OW 6510   4.762  10.671  10.460
 1579SOL    HW1 6511   4.678  10.704  10.430
 1579SOL    HW2 6512   4.827  10.728  10.420
 1580SOL     OW 6513  13.709   9.135   6.836
 1580SOL    HW1 6514  13.628   9.179   6.860
 1580SOL    HW2 6515  13.778   9.189   6.873
 1581SOL     OW 6516   9.071   6.318   7.152
 1581SOL    HW1 6517   9.076   6.299   7.246
 1581SOL    HW2 6518   9.040   6.408   7.148
 1582SOL     OW 6519   6.445  10.119   5.116
 1582SOL    HW1 6520   6.451  10.215   5.122
 1582SOL    HW2 6521   6.512  10.095   5.052
 1583SOL     OW 6522  11.631  10.173   0.003
 1583SOL    HW1 6523  11.681  10.096  14.856
 1583SOL    HW2 6524  11.569  10.189  14.813
 1584SOL     OW 6525   8.959  14.056   0.207
 1584SOL    HW1 6526   8.879  14.007   0.227
 1584SOL    HW2 6527   8.927  14.140   0.172
 1585SOL     OW 6528   2.910   4.704   8.790
 1585SOL    HW1 6529   2.882   4.623   8.833
 1585SOL    HW2 6530   2.918   4.681   8.697
 1586SOL     OW 6531   4.262   2.405   9.882
 1586SOL    HW1 6532   4.264   2.375   9.973
 1586SOL    HW2 6533   4.195   2.350   9.840
 1587SOL     OW 6534   9.340  13.559   3.140
 1587SOL    HW1 6535   9.376  13.519   3.219
 1587SOL    HW2 6536   9.249  13.530   3.138
 1588SOL     OW 6537  13.961   6.399   9.105
 1588SOL    HW1 6538  13.983   6.359   9.189
 1588SOL    HW2 6539  13.937   6.326   9.049
 1589SOL     OW 6540   6.796  13.787   5.676
 1589SOL    HW1 6541   6.749  13.725   5.620
 1589SOL    HW2 6542   6.832  13.851   5.616
 1590SOL     OW 6543   1.864   3.717   3.519
 1590SOL    HW1 6544   1.882   3.785   3.453
 1590SOL    HW2 6545   1.793   3.754   3.572
 1591SOL     OW 6546   8.612   9.380  12.750
 1591SOL    HW1 6547   8.644   9.306  12.700
 1591SOL    HW2 6548   8.669   9.453  12.725
 1592SOL     OW 6549  14.329   7.738   3.741
 1592SOL    HW1 6550  14.386   7.804   3.700
 1592SOL    HW2 6551  14.387   7.688   3.798
 1593SOL     OW 6552   2.640   4.220  11.220
 1593SOL    HW1 6553   2.720   4.228  11.273
 1593SOL    HW2 6554   2.629   4.307  11.181
 1594SOL     OW 6555   3.996  10.697  13.351
 1594SOL    HW1 6556   4.002  10.636  13.424
 1594SOL    HW2 6557   3.942  10.652  13.286
 1595SOL     OW 6558   6.276   5.613   2.056
 1595SOL    HW1 6559   6.187   5.584   2.076
 1595SOL    HW2 6560   6.298   5.567   1.975
 1596SOL     OW 6561   9.007   6.114   7.907
 1596SOL    HW1 6562   8.978   6.085   7.993
 1596SOL    HW2 6563   8.931   6.158   7.869
 1597SOL     OW 6564   2.397   2.919   7.792
 1597SOL    HW1 6565   2.327   2.962   7.842
 1597SOL    HW2 6566   2.472   2.921   7.851
 1598SOL     OW 6567   7.979  11.699   4.935
 1598SOL    HW1 6568   7.932  11.724   5.014
 1598SOL    HW2 6569   7.921  11.723   4.863
 1599SOL     OW 6570   9.127  14.278   0.829
 1599SOL    HW1 6571   9.114  14.309   0.739
 1599SOL    HW2 6572   9.219  14.297   0.848
 1600SOL     OW 6573   8.711  12.747   8.157
 1600SOL    HW1 6574   8.779  12.711   8.213
 1600SOL    HW2 6575   8.759  12.798   8.091
 1601SOL     OW 6576  14.209   3.735  13.429
 1601SOL    HW1 6577  14.177   3.676  13.498
 1601SOL    HW2 6578  14.210   3.681  13.350
 1602SOL     OW 6579  11.045   7.198  12.226
 1602SOL    HW1 6580  11.091   7.278  12.201
 1602SOL    HW2 6581  10.980   7.185  12.157
 1603SOL     OW 6582   1.164   8.191   0.728
 1603SOL    HW1 6583   1.203   8.277   0.742
 1603SOL    HW2 6584   1.144   8.159   0.816
 1604SOL     OW 6585   8.767   8.519  12.756
 1604SOL    HW1 6586   8.856   8.543  12.730
 1604SOL    HW2 6587   8.774   8.428  12.785
 1605SOL     OW 6588   2.067  10.226   9.287
 1605SOL    HW1 6589   1.978  10.192   9.289
 1605SOL    HW2 6590   2.082  10.248   9.195
 1606SOL     OW 6591   8.586  12.014   8.100
 1606SOL    HW1 6592   8.500  11.987   8.131
 1606SOL    HW2 6593   8.583  12.000   8.005
 1607SOL     OW 6594  14.828   6.733   7.134
 1607SOL    HW1 6595   0.002   6.672   7.084
 1607SOL    HW2 6596   0.008   6.799   7.166
 1608SOL     OW 6597   1.359   5.661   9.897
 1608SOL    HW1 6598   1.418   5.597   9.856
 1608SOL    HW2 6599   1.334   5.719   9.825
 1609SOL     OW 6600  11.545   0.165   9.782
 1609SOL    HW1 6601  11.633   0.193   9.756
 1609SOL    HW2 6602  11.487   0.206   9.718
 1610SOL     OW 6603   8.315   8.009   0.383
 1610SOL    HW1 6604   8.376   7.971   0.446
 1610SOL    HW2 6605   8.338   8.102   0.380
 1611SOL     OW 6606   7.762   4.620  13.694
 1611SOL    HW1 6607   7.837   4.562  13.701
 1611SOL    HW2 6608   7.787   4.685  13.628
 1612SOL     OW 6609  11.402   0.113  11.716
 1612SOL    HW1 6610  11.450   0.192  11.742
 1612SOL    HW2 6611  11.311   0.141  11.707
 1613SOL     OW 6612   7.184   8.628   8.955
 1613SOL    HW1 6613   7.133   8.708   8.965
 1613SOL    HW2 6614   7.241   8.646   8.881
 1614SOL     OW 6615   9.804   0.028   9.969
 1614SOL    HW1 6616   9.735   0.018  10.034
 1614SOL    HW2 6617   9.846  14.824   9.965
 1615SOL     OW 6618  11.465  13.033  10.989
 1615SOL    HW1 6619  11.392  13.010  11.046
 1615SOL    HW2 6620  11.504  12.949  10.964
 1616SOL     OW 6621   2.003  10.863   4.174
 1616SOL    HW1 6622   2.039  10.895   4.092
 1616SOL    HW2 6623   1.996  10.768   4.163
 1617SOL     OW 6624   5.546   1.031   5.294
 1617SOL    HW1 6625   5.503   1.079   5.224
 1617SOL    HW2 6626   5.579   0.952   5.252
 1618SOL     OW 6627   2.956   3.739   1.655
 1618SOL    HW1 6628   2.899   3.768   1.583
 1618SOL    HW2 6629   2.895   3.711   1.724
 1619SOL     OW 6630  14.876   5.408  12.893
 1619SOL    HW1 6631   0.025   5.497  12.877
 1619SOL    HW2 6632  14.801   5.418  12.952
 1620SOL     OW 6633  13.792  11.746   9.933
 1620SOL    HW1 6634  13.863  11.779   9.878
 1620SOL    HW2 6635  13.713  11.784   9.896
 1621SOL     OW 6636   3.215  13.613   7.286
 1621SOL    HW1 6637   3.276  13.573   7.348
 1621SOL    HW2 6638   3.160  13.669   7.339
 1622SOL     OW 6639  13.686   6.811   5.163
 1622SOL    HW1 6640  13.708   6.896   5.200
 1622SOL    HW2 6641  13.678   6.827   5.069
 1623SOL     OW 6642  10.498  11.596  12.112
 1623SOL    HW1 6643  10.506  11.504  12.087
 1623SOL    HW2 6644  10.521  11.645  12.033
 1624SOL     OW 6645   1.694   7.475  13.430
 1624SOL    HW1 6646   1.642   7.417  13.486
 1624SOL    HW2 6647   1.637   7.550  13.415
 1625SOL     OW 6648  13.749  13.699   3.566
 1625SOL    HW1 6649  13.772  13.784   3.529
 1625SOL    HW2 6650  13.827  13.645   3.550
 1626SOL     OW 6651  14.182   8.658  13.735
 1626SOL    HW1 6652  14.160   8.688  13.823
 1626SOL    HW2 6653  14.120   8.705  13.678
 1627SOL     OW 6654   3.632  11.469  14.879
 1627SOL    HW1 6655   3.651  11.532  14.809
 1627SOL    HW2 6656   3.691  11.396  14.861
 1628SOL     OW 6657  13.384   6.393  10.688
 1628SOL    HW1 6658  13.291   6.391  10.667
 1628SOL    HW2 6659  13.387   6.388  10.784
 1629SOL     OW 6660  14.606  13.153   4.754
 1629SOL    HW1 6661  14.687  13.198   4.778
 1629SOL    HW2 6662  14.625  13.060   4.766
 1630SOL     OW 6663   4.351   0.787   6.600
 1630SOL    HW1 6664   4.315   0.821   6.518
 1630SOL    HW2 6665   4.308   0.702   6.612
 1631SOL     OW 6666   6.514   3.371  10.562
 1631SOL    HW1 6667   6.568   3.320  10.622
 1631SOL    HW2 6668   6.497   3.312  10.489
 1632SOL     OW 6669  10.739   7.853  12.443
 1632SOL    HW1 6670  10.684   7.780  12.416
 1632SOL    HW2 6671  10.698   7.886  12.523
 1633SOL     OW 6672  11.141   7.226   6.511
 1633SOL    HW1 6673  11.202   7.160   6.478
 1633SOL    HW2 6674  11.057   7.181   6.514
 1634SOL     OW 6675   1.847   8.423  12.961
 1634SOL    HW1 6676   1.817   8.432  12.871
 1634SOL    HW2 6677   1.925   8.367  12.956
 1635SOL     OW 6678   0.597  14.812  11.499
 1635SOL    HW1 6679   0.505  14.825  11.524
 1635SOL    HW2 6680   0.598  14.816  11.404
 1636SOL     OW 6681  10.184   2.381  13.067
 1636SOL    HW1 6682  10.144   2.467  13.059
 1636SOL    HW2 6683  10.235   2.371  12.987
 1637SOL     OW 6684  10.485   9.654   9.974
 1637SOL    HW1 6685  10.530   9.737   9.989
 1637SOL    HW2 6686  10.518   9.596  10.042
 1638SOL     OW 6687   2.268  11.377   6.250
 1638SOL    HW1 6688   2.175  11.392   6.230
 1638SOL    HW2 6689   2.274  11.382   6.345
 1639SOL     OW 6690  12.400   8.702  13.347
 1639SOL    HW1 6691  12.363   8.721  13.260
 1639SOL    HW2 6692  12.356   8.621  13.374
 1640SOL     OW 6693   9.558   4.886  11.851
 1640SOL    HW1 6694   9.544   4.978  11.872
 1640SOL    HW2 6695   9.478   4.858  11.807
 1641SOL     OW 6696  14.411  12.361   2.702
 1641SOL    HW1 6697  14.426  12.267   2.696
 1641SOL    HW2 6698  14.483  12.394   2.755
 1642SOL     OW 6699   5.761   6.378  10.012
 1642SOL    HW1 6700   5.798   6.317   9.947
 1642SOL    HW2 6701   5.791   6.464   9.983
 1643SOL     OW 6702  10.485   2.819   2.655
 1643SOL    HW1 6703  10.411   2.818   2.595
 1643SOL    HW2 6704  10.489   2.910   2.686
 1644SOL     OW 6705   0.899   9.382  11.008
 1644SOL    HW1 6706   0.920   9.429  10.928
 1644SOL    HW2 6707   0.891   9.450  11.075
 1645SOL     OW 6708   0.252  11.447  12.642
 1645SOL    HW1 6709   0.304  11.457  12.562
 1645SOL    HW2 6710   0.263  11.530  12.688
 1646SOL     OW 6711   6.260  10.965  14.236
 1646SOL    HW1 6712   6.266  10.978  14.141
 1646SOL    HW2 6713   6.250  11.054  14.272
 1647SOL     OW 6714  14.293   5.286   3.321
 1647SOL    HW1 6715  14.367   5.346   3.337
 1647SOL    HW2 6716  14.334   5.201   3.309
 1648SOL     OW 6717   2.195   8.910  10.414
 1648SOL    HW1 6718   2.219   8.852  10.341
 1648SOL    HW2 6719   2.123   8.962  10.380
 1649SOL     OW 6720   1.601   9.992   2.762
 1649SOL    HW1 6721   1.538  10.035   2.820
 1649SOL    HW2 6722   1.548   9.960   2.689
 1650SOL     OW 6723   8.411   0.021   3.256
 1650SOL    HW1 6724   8.332  14.879   3.304
 1650SOL    HW2 6725   8.469  14.826   3.264
 1651SOL     OW 6726  13.651   6.597  13.346
 1651SOL    HW1 6727  13.627   6.673  13.294
 1651SOL    HW2 6728  13.609   6.523  13.302
 1652SOL     OW 6729   7.535   3.000  12.523
 1652SOL    HW1 6730   7.583   3.002  12.606
 1652SOL    HW2 6731   7.474   2.927  12.533
 1653SOL     OW 6732   9.285   2.488   9.338
 1653SOL    HW1 6733   9.367   2.449   9.369
 1653SOL    HW2 6734   9.230   2.413   9.316
 1654SOL     OW 6735  12.213  14.041   5.212
 1654SOL    HW1 6736  12.193  14.053   5.120
 1654SOL    HW2 6737  12.247  13.952   5.218
 1655SOL     OW 6738  14.442   5.702   3.244
 1655SOL    HW1 6739  14.416   5.793   3.254
 1655SOL    HW2 6740  14.399   5.673   3.164
 1656SOL     OW 6741   1.397   2.458  10.351
 1656SOL    HW1 6742   1.323   2.457  10.412
 1656SOL    HW2 6743   1.474   2.468  10.406
 1657SOL     OW 6744   7.828   0.633  14.109
 1657SOL    HW1 6745   7.919   0.645  14.136
 1657SOL    HW2 6746   7.781   0.706  14.148
 1658SOL     OW 6747   4.124   4.702  13.930
 1658SOL    HW1 6748   4.033   4.671  13.934
 1658SOL    HW2 6749   4.119   4.795  13.953
 1659SOL     OW 6750  13.375  10.990   9.342
 1659SOL    HW1 6751  13.417  10.911   9.306
 1659SOL    HW2 6752  13.349  11.041   9.265
 1660SOL     OW 6753   4.301   3.312   0.862
 1660SOL    HW1 6754   4.279   3.336   0.773
 1660SOL    HW2 6755   4.247   3.368   0.917
 1661SOL     OW 6756   6.523   1.911   6.232
 1661SOL    HW1 6757   6.554   1.997   6.205
 1661SOL    HW2 6758   6.552   1.852   6.163
 1662SOL     OW 6759   4.951   3.146   9.647
 1662SOL    HW1 6760   4.971   3.237   9.670
 1662SOL    HW2 6761   4.995   3.131   9.564
 1663SOL     OW 6762   7.022  10.734   3.830
 1663SOL    HW1 6763   7.068  10.662   3.787
 1663SOL    HW2 6764   6.960  10.692   3.889
 1664SOL     OW 6765   4.291   2.193   8.748
 1664SOL    HW1 6766   4.252   2.177   8.663
 1664SOL    HW2 6767   4.273   2.286   8.766
 1665SOL     OW 6768   0.568  11.204   1.930
 1665SOL    HW1 6769   0.620  11.124   1.936
 1665SOL    HW2 6770   0.506  11.186   1.859
 1666SOL     OW 6771   6.743  12.632  12.458
 1666SOL    HW1 6772   6.748  12.577  12.379
 1666SOL    HW2 6773   6.681  12.586  12.514
 1667SOL     OW 6774   3.517  13.331   2.872
 1667SOL    HW1 6775   3.577  13.287   2.932
 1667SOL    HW2 6776   3.574  13.376   2.810
 1668SOL     OW 6777   7.102  13.223   5.785
 1668SOL    HW1 6778   7.166  13.294   5.775
 1668SOL    HW2 6779   7.022  13.256   5.744
 1669SOL     OW 6780   4.489  10.982   4.862
 1669SOL    HW1 6781   4.408  11.015   4.824
 1669SOL    HW2 6782   4.559  11.015   4.805
 1670SOL     OW 6783   3.137   9.915   1.878
 1670SOL    HW1 6784   3.112   9.833   1.835
 1670SOL    HW2 6785   3.123   9.898   1.971
 1671SOL     OW 6786  10.560   8.678   9.561
 1671SOL    HW1 6787  10.484   8.686   9.503
 1671SOL    HW2 6788  10.547   8.594   9.606
 1672SOL     OW 6789   7.580   1.176   9.757
 1672SOL    HW1 6790   7.588   1.263   9.797
 1672SOL    HW2 6791   7.632   1.119   9.813
 1673SOL     OW 6792   0.628  13.251   9.773
 1673SOL    HW1 6793   0.633  13.257   9.678
 1673SOL    HW2 6794   0.561  13.185   9.790
 1674SOL     OW 6795  14.482   7.996   7.258
 1674SOL    HW1 6796  14.493   8.021   7.166
 1674SOL    HW2 6797  14.482   7.900   7.257
 1675SOL     OW 6798  11.996   7.763   5.904
 1675SOL    HW1 6799  12.058   7.709   5.856
 1675SOL    HW2 6800  11.912   7.747   5.862
 1676SOL     OW 6801   1.900   1.585  10.412
 1676SOL    HW1 6802   1.985   1.601  10.452
 1676SOL    HW2 6803   1.914   1.598  10.318
 1677SOL     OW 6804  12.504  12.355  13.567
 1677SOL    HW1 6805  12.423  12.406  13.558
 1677SOL    HW2 6806  12.546  12.390  13.645
 1678SOL     OW 6807   2.306   2.586  14.122
 1678SOL    HW1 6808   2.336   2.526  14.191
 1678SOL    HW2 6809   2.387   2.620  14.084
 1679SOL     OW 6810  10.154  11.323  13.757
 1679SOL    HW1 6811  10.085  11.305  13.821
 1679SOL    HW2 6812  10.155  11.418  13.749
 1680SOL     OW 6813   0.890  10.248   0.839
 1680SOL    HW1 6814   0.820  10.183   0.825
 1680SOL    HW2 6815   0.943  10.211   0.910
 1681SOL     OW 6816   3.344   3.067   2.187
 1681SOL    HW1 6817   3.377   3.061   2.276
 1681SOL    HW2 6818   3.422   3.082   2.133
 1682SOL     OW 6819  11.835   8.421   6.595
 1682SOL    HW1 6820  11.881   8.504   6.606
 1682SOL    HW2 6821  11.869   8.386   6.513
 1683SOL     OW 6822   3.453  13.333   2.443
 1683SOL    HW1 6823   3.438  13.361   2.353
 1683SOL    HW2 6824   3.428  13.408   2.497
 1684SOL     OW 6825   5.660   5.638   3.714
 1684SOL    HW1 6826   5.606   5.629   3.635
 1684SOL    HW2 6827   5.599   5.622   3.786
 1685SOL     OW 6828  11.299  13.034   4.133
 1685SOL    HW1 6829  11.273  13.125   4.147
 1685SOL    HW2 6830  11.305  13.025   4.038
 1686SOL     OW 6831  13.329   3.295   4.407
 1686SOL    HW1 6832  13.347   3.278   4.315
 1686SOL    HW2 6833  13.415   3.287   4.450
 1687SOL     OW 6834  10.431  12.384   7.925
 1687SOL    HW1 6835  10.406  12.466   7.882
 1687SOL    HW2 6836  10.361  12.323   7.904
 1688SOL     OW 6837   5.878   2.867   8.937
 1688SOL    HW1 6838   5.932   2.908   9.004
 1688SOL    HW2 6839   5.927   2.880   8.855
 1689SOL     OW 6840  14.850   4.155   0.537
 1689SOL    HW1 6841   0.018   4.228   0.501
 1689SOL    HW2 6842  14.870   4.156   0.630
 1690SOL     OW 6843   8.332  10.686  13.863
 1690SOL    HW1 6844   8.284  10.615  13.906
 1690SOL    HW2 6845   8.416  10.689  13.908
 1691SOL     OW 6846   8.902  10.258  14.583
 1691SOL    HW1 6847   8.942  10.289  14.664
 1691SOL    HW2 6848   8.864  10.173  14.605
 1692SOL     OW 6849  11.883   4.503   6.049
 1692SOL    HW1 6850  11.900   4.416   6.013
 1692SOL    HW2 6851  11.968   4.532   6.082
 1693SOL     OW 6852   7.708  12.994  13.014
 1693SOL    HW1 6853   7.790  13.001  12.964
 1693SOL    HW2 6854   7.730  12.936  13.087
 1694SOL     OW 6855   7.901  14.363   7.238
 1694SOL    HW1 6856   7.918  14.457   7.245
 1694SOL    HW2 6857   7.916  14.330   7.327
 1695SOL     OW 6858   4.885   1.629  11.762
 1695SOL    HW1 6859   4.918   1.704  11.813
 1695SOL    HW2 6860   4.865   1.665  11.676
 1696SOL     OW 6861   4.237  10.415   8.122
 1696SOL    HW1 6862   4.204  10.440   8.036
 1696SOL    HW2 6863   4.249  10.498   8.169
 1697SOL     OW 6864   6.528   4.488  11.163
 1697SOL    HW1 6865   6.522   4.583  11.153
 1697SOL    HW2 6866   6.618   4.473  11.191
 1698SOL     OW 6867   6.525  14.699   8.298
 1698SOL    HW1 6868   6.442  14.745   8.289
 1698SOL    HW2 6869   6.578  14.756   8.353
 1699SOL     OW 6870   0.436   8.624  11.387
 1699SOL    HW1 6871   0.402   8.540  11.419
 1699SOL    HW2 6872   0.490   8.656  11.459
 1700SOL     OW 6873  10.155   5.846  12.907
 1700SOL    HW1 6874  10.149   5.841  12.811
 1700SOL    HW2 6875  10.069   5.878  12.935
 1701SOL     OW 6876   3.036   0.185  13.805
 1701SOL    HW1 6877   3.082   0.158  13.726
 1701SOL    HW2 6878   3.076   0.132  13.875
 1702SOL     OW 6879  13.288  10.699   2.131
 1702SOL    HW1 6880  13.196  10.686   2.156
 1702SOL    HW2 6881  13.326  10.611   2.134
 1703SOL     OW 6882   9.196   9.175   2.885
 1703SOL    HW1 6883   9.153   9.092   2.863
 1703SOL    HW2 6884   9.168   9.236   2.817
 1704SOL     OW 6885   3.708   6.027   5.351
 1704SOL    HW1 6886   3.622   5.985   5.341
 1704SOL    HW2 6887   3.769   5.966   5.310
 1705SOL     OW 6888  11.246   8.084   7.832
 1705SOL    HW1 6889  11.234   8.108   7.924
 1705SOL    HW2 6890  11.246   7.989   7.831
 1706SOL     OW 6891  14.032  11.241   6.476
 1706SOL    HW1 6892  13.947  11.250   6.519
 1706SOL    HW2 6893  14.093  11.285   6.535
 1707SOL     OW 6894   8.392   6.710   0.451
 1707SOL    HW1 6895   8.307   6.745   0.424
 1707SOL    HW2 6896   8.456   6.768   0.412
 1708SOL     OW 6897  14.266  14.515   1.513
 1708SOL    HW1 6898  14.327  14.482   1.579
 1708SOL    HW2 6899  14.217  14.584   1.558
 1709SOL     OW 6900   5.004  12.247   5.301
 1709SOL    HW1 6901   4.958  12.181   5.249
 1709SOL    HW2 6902   5.097  12.227   5.288
 1710SOL     OW 6903   6.241   3.072  12.171
 1710SOL    HW1 6904   6.154   3.038  12.152
 1710SOL    HW2 6905   6.237   3.164  12.143
 1711SOL     OW 6906   3.124  11.085   2.191
 1711SOL    HW1 6907   3.163  11.169   2.218
 1711SOL    HW2 6908   3.032  11.093   2.216
 1712SOL     OW 6909  13.972  12.283   9.611
 1712SOL    HW1 6910  14.014  12.197   9.616
 1712SOL    HW2 6911  14.009  12.323   9.532
 1713SOL     OW 6912  12.031   3.910  11.289
 1713SOL    HW1 6913  12.125   3.901  11.306
 1713SOL    HW2 6914  12.026   3.952  11.203
 1714SOL     OW 6915   7.016  14.275   4.890
 1714SOL    HW1 6916   7.006  14.348   4.830
 1714SOL    HW2 6917   6.966  14.204   4.849
 1715SOL     OW 6918   5.706   8.385  12.827
 1715SOL    HW1 6919   5.642   8.436  12.876
 1715SOL    HW2 6920   5.746   8.328  12.893
 1716SOL     OW 6921  13.792  12.957  11.730
 1716SOL    HW1 6922  13.802  12.902  11.653
 1716SOL    HW2 6923  13.715  13.011  11.711
 1717SOL     OW 6924   1.599  13.958   6.780
 1717SOL    HW1 6925   1.555  13.939   6.697
 1717SOL    HW2 6926   1.646  13.878   6.802
 1718SOL     OW 6927   5.662   5.487   8.588
 1718SOL    HW1 6928   5.583   5.435   8.572
 1718SOL    HW2 6929   5.704   5.494   8.502
 1719SOL     OW 6930  12.271   4.671  13.932
 1719SOL    HW1 6931  12.323   4.621  13.868
 1719SOL    HW2 6932  12.266   4.614  14.009
 1720SOL     OW 6933   9.320   7.743   1.600
 1720SOL    HW1 6934   9.250   7.777   1.544
 1720SOL    HW2 6935   9.326   7.650   1.578
 1721SOL     OW 6936   9.609   9.713   4.442
 1721SOL    HW1 6937   9.540   9.749   4.498
 1721SOL    HW2 6938   9.583   9.736   4.353
 1722SOL     OW 6939   9.589   7.272   4.215
 1722SOL    HW1 6940   9.585   7.188   4.169
 1722SOL    HW2 6941   9.590   7.338   4.145
 1723SOL     OW 6942   9.552   9.998   0.656
 1723SOL    HW1 6943   9.494  10.068   0.687
 1723SOL    HW2 6944   9.493   9.934   0.617
 1724SOL     OW 6945   0.131  14.838   7.372
 1724SOL    HW1 6946   0.206   0.010   7.401
 1724SOL    HW2 6947   0.129  14.764   7.432
 1725SOL     OW 6948   1.630  12.871   1.366
 1725SOL    HW1 6949   1.608  12.784   1.400
 1725SOL    HW2 6950   1.700  12.902   1.423
 1726SOL     OW 6951   0.019  11.645  13.389
 1726SOL    HW1 6952   0.004  11.551  13.379
 1726SOL    HW2 6953   0.109  11.658  13.359
 1727SOL     OW 6954   2.110  14.171  11.883
 1727SOL    HW1 6955   2.113  14.090  11.832
 1727SOL    HW2 6956   2.020  14.175  11.916
 1728SOL     OW 6957   4.528   2.777   8.987
 1728SOL    HW1 6958   4.447   2.828   8.989
 1728SOL    HW2 6959   4.508   2.701   8.931
 1729SOL     OW 6960  12.228   8.811   1.508
 1729SOL    HW1 6961  12.183   8.876   1.454
 1729SOL    HW2 6962  12.295   8.775   1.450
 1730SOL     OW 6963   1.372   7.111  10.858
 1730SOL    HW1 6964   1.283   7.115  10.825
 1730SOL    HW2 6965   1.362   7.094  10.952
 1731SOL     OW 6966   0.135   2.034   8.937
 1731SOL    HW1 6967   0.044   2.015   8.912
 1731SOL    HW2 6968   0.136   2.026   9.032
 1732SOL     OW 6969   7.680   1.252   2.146
 1732SOL    HW1 6970   7.658   1.337   2.109
 1732SOL    HW2 6971   7.627   1.245   2.225
 1733SOL     OW 6972   6.857   3.009   8.344
 1733SOL    HW1 6973   6.768   2.992   8.375
 1733SOL    HW2 6974   6.880   3.093   8.383
 1734SOL     OW 6975   1.864   4.912   2.555
 1734SOL    HW1 6976   1.898   4.994   2.520
 1734SOL    HW2 6977   1.879   4.848   2.485
 1735SOL     OW 6978  11.907   0.163   1.136
 1735SOL    HW1 6979  11.886   0.087   1.191
 1735SOL    HW2 6980  11.846   0.231   1.165
 1736SOL     OW 6981   5.078   1.983  10.681
 1736SOL    HW1 6982   5.058   2.029  10.762
 1736SOL    HW2 6983   5.007   1.919  10.671
 1737SOL     OW 6984   2.063   9.622   6.658
 1737SOL    HW1 6985   2.123   9.623   6.733
 1737SOL    HW2 6986   2.058   9.713   6.630
 1738SOL     OW 6987   7.999   8.652   1.153
 1738SOL    HW1 6988   8.075   8.684   1.201
 1738SOL    HW2 6989   7.939   8.621   1.221
 1739SOL     OW 6990   1.846   4.408   8.060
 1739SOL    HW1 6991   1.808   4.356   8.131
 1739SOL    HW2 6992   1.773   4.459   8.027
 1740SOL     OW 6993   5.118   3.569   9.449
 1740SOL    HW1 6994   5.203   3.599   9.480
 1740SOL    HW2 6995   5.138   3.487   9.403
 1741SOL     OW 6996   9.981   1.647   5.616
 1741SOL    HW1 6997  10.022   1.627   5.532
 1741SOL    HW2 6998   9.887   1.641   5.599
 1742SOL     OW 6999  13.132   7.125  12.970
 1742SOL    HW1 7000  13.173   7.047  12.934
 1742SOL    HW2 7001  13.150   7.121  13.064
 1743SOL     OW 7002   1.596   9.454   3.880
 1743SOL    HW1 7003   1.553   9.535   3.853
 1743SOL    HW2 7004   1.688   9.467   3.858
 1744SOL     OW 7005   3.850   7.492   8.224
 1744SOL    HW1 7006   3.927   7.516   8.173
 1744SOL    HW2 7007   3.869   7.523   8.312
 1745SOL     OW 7008   2.356   4.260  10.791
 1745SOL    HW1 7009   2.358   4.274  10.885
 1745SOL    HW2 7010   2.405   4.179  10.777
 1746SOL     OW 7011  11.413   4.514  10.123
 1746SOL    HW1 7012  11.362   4.518  10.042
 1746SOL    HW2 7013  11.347   4.501  10.192
 1747SOL     OW 7014  10.296   4.927   6.196
 1747SOL    HW1 7015  10.340   5.011   6.214
 1747SOL    HW2 7016  10.340   4.864   6.253
 1748SOL     OW 7017   5.277   9.575   7.224
 1748SOL    HW1 7018   5.350   9.521   7.193
 1748SOL    HW2 7019   5.261   9.544   7.313
 1749SOL     OW 7020   1.072  11.408  10.543
 1749SOL    HW1 7021   1.104  11.335  10.490
 1749SOL    HW2 7022   1.143  11.424  10.606
 1750SOL     OW 7023  12.295  12.582  10.491
 1750SOL    HW1 7024  12.300  12.677  10.483
 1750SOL    HW2 7025  12.301  12.565  10.585
 1751SOL     OW 7026  10.028  13.563   3.060
 1751SOL    HW1 7027   9.994  13.511   3.133
 1751SOL    HW2 7028   9.963  13.551   2.990
 1752SOL     OW 7029   9.961   7.061   0.017
 1752SOL    HW1 7030   9.946   7.012  14.818
 1752SOL    HW2 7031  10.016   7.135  14.872
 1753SOL     OW 7032  10.120   3.974   2.047
 1753SOL    HW1 7033  10.174   3.914   2.097
 1753SOL    HW2 7034  10.133   4.059   2.089
 1754SOL     OW 7035   1.144   6.151  11.913
 1754SOL    HW1 7036   1.101   6.229  11.951
 1754SOL    HW2 7037   1.236   6.161  11.936
 1755SOL     OW 7038   7.221   1.616   1.715
 1755SOL    HW1 7039   7.197   1.530   1.681
 1755SOL    HW2 7040   7.138   1.663   1.721
 1756SOL     OW 7041   7.316   7.461   2.742
 1756SOL    HW1 7042   7.258   7.468   2.818
 1756SOL    HW2 7043   7.393   7.512   2.766
 1757SOL     OW 7044   7.143   8.900   6.522
 1757SOL    HW1 7045   7.231   8.933   6.535
 1757SOL    HW2 7046   7.154   8.805   6.510
 1758SOL     OW 7047   9.554   4.106   1.067
 1758SOL    HW1 7048   9.543   4.110   1.162
 1758SOL    HW2 7049   9.522   4.190   1.036
 1759SOL     OW 7050   2.135   6.329   3.903
 1759SOL    HW1 7051   2.102   6.241   3.880
 1759SOL    HW2 7052   2.057   6.381   3.917
 1760SOL     OW 7053   2.070   3.971   4.391
 1760SOL    HW1 7054   2.041   3.879   4.388
 1760SOL    HW2 7055   2.154   3.970   4.345
 1761SOL     OW 7056  13.057   3.070   6.407
 1761SOL    HW1 7057  13.092   3.157   6.427
 1761SOL    HW2 7058  13.064   3.022   6.489
 1762SOL     OW 7059   2.447   2.623  10.591
 1762SOL    HW1 7060   2.359   2.621  10.553
 1762SOL    HW2 7061   2.501   2.575  10.529
 1763SOL     OW 7062  12.139   9.830   7.070
 1763SOL    HW1 7063  12.058   9.784   7.091
 1763SOL    HW2 7064  12.195   9.763   7.030
 1764SOL     OW 7065   6.484  12.191   1.273
 1764SOL    HW1 7066   6.448  12.111   1.310
 1764SOL    HW2 7067   6.419  12.218   1.208
 1765SOL     OW 7068  13.576  14.418   9.306
 1765SOL    HW1 7069  13.521  14.485   9.346
 1765SOL    HW2 7070  13.527  14.337   9.317
 1766SOL     OW 7071   2.154   5.872  10.570
 1766SOL    HW1 7072   2.099   5.796  10.590
 1766SOL    HW2 7073   2.149   5.881  10.475
 1767SOL     OW 7074   9.603  12.463   5.400
 1767SOL    HW1 7075   9.588  12.527   5.330
 1767SOL    HW2 7076   9.537  12.395   5.385
 1768SOL     OW 7077   8.062  11.129   8.960
 1768SOL    HW1 7078   8.076  11.196   9.027
 1768SOL    HW2 7079   8.100  11.166   8.881
 1769SOL     OW 7080  11.480  13.994   6.155
 1769SOL    HW1 7081  11.423  14.064   6.187
 1769SOL    HW2 7082  11.434  13.958   6.080
 1770SOL     OW 7083   7.254   2.990   7.301
 1770SOL    HW1 7084   7.337   3.037   7.307
 1770SOL    HW2 7085   7.268   2.910   7.351
 1771SOL     OW 7086  10.813  10.639  13.140
 1771SOL    HW1 7087  10.872  10.692  13.085
 1771SOL    HW2 7088  10.728  10.644  13.095
 1772SOL     OW 7089   0.518   6.835   9.073
 1772SOL    HW1 7090   0.582   6.770   9.047
 1772SOL    HW2 7091   0.443   6.784   9.106
 1773SOL     OW 7092  13.947   0.787   1.369
 1773SOL    HW1 7093  14.023   0.729   1.378
 1773SOL    HW2 7094  13.985   0.875   1.363
 1774SOL     OW 7095   0.852  13.087   1.983
 1774SOL    HW1 7096   0.874  13.160   1.926
 1774SOL    HW2 7097   0.865  13.121   2.072
 1775SOL     OW 7098   5.114   6.982   9.758
 1775SOL    HW1 7099   5.128   7.077   9.756
 1775SOL    HW2 7100   5.114   6.956   9.666
 1776SOL     OW 7101  11.608  10.620  11.104
 1776SOL    HW1 7102  11.535  10.658  11.152
 1776SOL    HW2 7103  11.567  10.572  11.031
 1777SOL     OW 7104  13.110   6.750   6.009
 1777SOL    HW1 7105  13.159   6.738   6.090
 1777SOL    HW2 7106  13.053   6.673   6.003
 1778SOL     OW 7107  13.892   5.376   4.228
 1778SOL    HW1 7108  13.824   5.438   4.200
 1778SOL    HW2 7109  13.901   5.316   4.154
 1779SOL     OW 7110   3.094   6.702   0.035
 1779SOL    HW1 7111   3.109   6.623  14.863
 1779SOL    HW2 7112   3.101   6.774  14.854
 1780SOL     OW 7113   2.608   9.961  11.622
 1780SOL    HW1 7114   2.558   9.946  11.702
 1780SOL    HW2 7115   2.677  10.022  11.648
 1781SOL     OW 7116   0.783   5.287   7.655
 1781SOL    HW1 7117   0.801   5.292   7.561
 1781SOL    HW2 7118   0.695   5.250   7.660
 1782SOL     OW 7119   6.743  13.468   2.293
 1782SOL    HW1 7120   6.782  13.505   2.214
 1782SOL    HW2 7121   6.807  13.486   2.362
 1783SOL     OW 7122  13.790  10.519  11.662
 1783SOL    HW1 7123  13.740  10.568  11.597
 1783SOL    HW2 7124  13.879  10.516  11.627
 1784SOL     OW 7125  12.965  12.713   0.222
 1784SOL    HW1 7126  12.931  12.789   0.174
 1784SOL    HW2 7127  13.008  12.660   0.156
 1785SOL     OW 7128   2.085   5.174   0.436
 1785SOL    HW1 7129   2.160   5.233   0.444
 1785SOL    HW2 7130   2.010   5.233   0.429
 1786SOL     OW 7131   1.715  14.612  14.869
 1786SOL    HW1 7132   1.776  14.554   0.034
 1786SOL    HW2 7133   1.666  14.656   0.058
 1787SOL     OW 7134  12.839  11.428   2.860
 1787SOL    HW1 7135  12.827  11.428   2.765
 1787SOL    HW2 7136  12.932  11.409   2.872
 1788SOL     OW 7137   5.788   4.825  14.312
 1788SOL    HW1 7138   5.723   4.880  14.355
 1788SOL    HW2 7139   5.824   4.880  14.243
 1789SOL     OW 7140   5.517   0.127   0.925
 1789SOL    HW1 7141   5.509   0.103   1.018
 1789SOL    HW2 7142   5.433   0.104   0.887
 1790SOL     OW 7143  14.257   1.010  12.402
 1790SOL    HW1 7144  14.163   1.018  12.421
 1790SOL    HW2 7145  14.271   1.069  12.328
 1791SOL     OW 7146   5.064   0.538   0.268
 1791SOL    HW1 7147   4.989   0.505   0.316
 1791SOL    HW2 7148   5.088   0.620   0.312
 1792SOL     OW 7149  14.782   2.924   1.888
 1792SOL    HW1 7150  14.842   2.905   1.959
 1792SOL    HW2 7151  14.819   2.879   1.812
 1793SOL     OW 7152   8.784  12.192  10.241
 1793SOL    HW1 7153   8.879  12.184  10.248
 1793SOL    HW2 7154   8.761  12.259  10.306
 1794SOL     OW 7155   2.811  10.827   9.211
 1794SOL    HW1 7156   2.868  10.861   9.280
 1794SOL    HW2 7157   2.747  10.773   9.256
 1795SOL     OW 7158   7.099  10.942   5.397
 1795SOL    HW1 7159   7.158  10.941   5.321
 1795SOL    HW2 7160   7.102  11.032   5.428
 1796SOL     OW 7161  10.989  13.903   4.592
 1796SOL    HW1 7162  11.045  13.826   4.605
 1796SOL    HW2 7163  10.906  13.879   4.634
 1797SOL     OW 7164   3.494   6.120   4.446
 1797SOL    HW1 7165   3.557   6.049   4.431
 1797SOL    HW2 7166   3.452   6.097   4.529
 1798SOL     OW 7167  13.214   8.250   0.124
 1798SOL    HW1 7168  13.191   8.230   0.033
 1798SOL    HW2 7169  13.135   8.287   0.162
 1799SOL     OW 7170   7.740  12.900   7.486
 1799SOL    HW1 7171   7.657  12.919   7.442
 1799SOL    HW2 7172   7.791  12.851   7.421
 1800SOL     OW 7173  14.459  13.539  12.915
 1800SOL    HW1 7174  14.434  13.534  12.823
 1800SOL    HW2 7175  14.376  13.533  12.963
 1801SOL     OW 7176  13.752   4.540   1.568
 1801SOL    HW1 7177  13.844   4.515   1.568
 1801SOL    HW2 7178  13.715   4.499   1.647
 1802SOL     OW 7179  13.348   0.406  11.129
 1802SOL    HW1 7180  13.362   0.497  11.103
 1802SOL    HW2 7181  13.400   0.356  11.066
 1803SOL     OW 7182  12.360  10.114   2.466
 1803SOL    HW1 7183  12.400  10.054   2.403
 1803SOL    HW2 7184  12.389  10.082   2.552
 1804SOL     OW 7185   1.483  11.671   8.490
 1804SOL    HW1 7186   1.428  11.643   8.563
 1804SOL    HW2 7187   1.558  11.613   8.492
 1805SOL     OW 7188  10.074   8.136  12.433
 1805SOL    HW1 7189  10.121   8.212  12.466
 1805SOL    HW2 7190  10.091   8.068  12.498
 1806SOL     OW 7191  10.861   8.599   5.253
 1806SOL    HW1 7192  10.921   8.539   5.208
 1806SOL    HW2 7193  10.919   8.662   5.296
 1807SOL     OW 7194  11.163  13.681   5.544
 1807SOL    HW1 7195  11.079  13.660   5.585
 1807SOL    HW2 7196  11.139  13.713   5.457
 1808SOL     OW 7197   8.613   2.649   6.983
 1808SOL    HW1 7198   8.706   2.627   6.982
 1808SOL    HW2 7199   8.609   2.743   6.966
 1809SOL     OW 7200   0.256   5.559   1.504
 1809SOL    HW1 7201   0.331   5.509   1.472
 1809SOL    HW2 7202   0.261   5.643   1.458
 1810SOL     OW 7203   8.556  10.081  13.571
 1810SOL    HW1 7204   8.531   9.990  13.586
 1810SOL    HW2 7205   8.474  10.130  13.576
 1811SOL     OW 7206   9.234  10.083  13.435
 1811SOL    HW1 7207   9.327  10.078  13.454
 1811SOL    HW2 7208   9.226  10.056  13.344
 1812SOL     OW 7209  13.187  10.350   4.210
 1812SOL    HW1 7210  13.130  10.320   4.139
 1812SOL    HW2 7211  13.131  10.354   4.287
 1813SOL     OW 7212   4.959   3.458   0.538
 1813SOL    HW1 7213   4.868   3.428   0.540
 1813SOL    HW2 7214   5.009   3.380   0.516
 1814SOL     OW 7215   4.355   4.858   7.095
 1814SOL    HW1 7216   4.281   4.805   7.065
 1814SOL    HW2 7217   4.433   4.809   7.067
 1815SOL     OW 7218   6.014   8.556   5.144
 1815SOL    HW1 7219   6.037   8.496   5.073
 1815SOL    HW2 7220   6.071   8.632   5.131
 1816SOL     OW 7221  12.073  13.228  11.386
 1816SOL    HW1 7222  12.044  13.240  11.295
 1816SOL    HW2 7223  12.007  13.172  11.425
 1817SOL     OW 7224   9.608   2.832  14.844
 1817SOL    HW1 7225   9.558   2.914  14.846
 1817SOL    HW2 7226   9.547   2.768  14.808
 1818SOL     OW 7227  10.152   2.805   4.248
 1818SOL    HW1 7228  10.096   2.883   4.246
 1818SOL    HW2 7229  10.200   2.812   4.330
 1819SOL     OW 7230   6.784   6.367   1.848
 1819SOL    HW1 7231   6.702   6.347   1.803
 1819SOL    HW2 7232   6.761   6.438   1.908
 1820SOL     OW 7233   1.932  10.215   7.170
 1820SOL    HW1 7234   1.947  10.196   7.077
 1820SOL    HW2 7235   2.019  10.206   7.210
 1821SOL     OW 7236   2.333   9.640   7.889
 1821SOL    HW1 7237   2.398   9.678   7.830
 1821SOL    HW2 7238   2.369   9.653   7.977
 1822SOL     OW 7239   3.715   1.408   3.984
 1822SOL    HW1 7240   3.736   1.320   3.952
 1822SOL    HW2 7241   3.643   1.395   4.045
 1823SOL     OW 7242   1.313   5.660  10.640
 1823SOL    HW1 7243   1.278   5.572  10.652
 1823SOL    HW2 7244   1.382   5.649  10.575
 1824SOL     OW 7245   0.406   6.385   1.967
 1824SOL    HW1 7246   0.387   6.319   1.900
 1824SOL    HW2 7247   0.408   6.467   1.919
 1825SOL     OW 7248   1.539   9.561   8.681
 1825SOL    HW1 7249   1.513   9.634   8.625
 1825SOL    HW2 7250   1.498   9.579   8.765
 1826SOL     OW 7251   5.640   4.616   5.801
 1826SOL    HW1 7252   5.594   4.680   5.854
 1826SOL    HW2 7253   5.729   4.652   5.791
 1827SOL     OW 7254   6.833   6.743   2.926
 1827SOL    HW1 7255   6.886   6.724   2.848
 1827SOL    HW2 7256   6.766   6.674   2.926
 1828SOL     OW 7257   6.890   0.740  10.520
 1828SOL    HW1 7258   6.831   0.671  10.490
 1828SOL    HW2 7259   6.926   0.707  10.602
 1829SOL     OW 7260   5.634  12.161   2.060
 1829SOL    HW1 7261   5.635  12.113   2.143
 1829SOL    HW2 7262   5.560  12.221   2.068
 1830SOL     OW 7263   6.001   4.541  10.077
 1830SOL    HW1 7264   6.003   4.445  10.076
 1830SOL    HW2 7265   5.909   4.564  10.065
 1831SOL     OW 7266  11.644   9.612   9.728
 1831SOL    HW1 7267  11.700   9.679   9.767
 1831SOL    HW2 7268  11.645   9.633   9.634
 1832SOL     OW 7269  12.728   6.524  14.070
 1832SOL    HW1 7270  12.798   6.513  14.134
 1832SOL    HW2 7271  12.764   6.485  13.989
 1833SOL     OW 7272   2.269   0.816   3.039
 1833SOL    HW1 7273   2.221   0.762   3.102
 1833SOL    HW2 7274   2.325   0.871   3.094
 1834SOL     OW 7275  12.707   4.485  11.065
 1834SOL    HW1 7276  12.632   4.432  11.090
 1834SOL    HW2 7277  12.675   4.575  11.072
 1835SOL     OW 7278   9.279   5.120  11.337
 1835SOL    HW1 7279   9.297   5.199  11.286
 1835SOL    HW2 7280   9.249   5.055  11.274
 1836SOL     OW 7281  10.894   2.823   5.462
 1836SOL    HW1 7282  10.907   2.881   5.536
 1836SOL    HW2 7283  10.965   2.845   5.402
 1837SOL     OW 7284   0.902  11.425   5.631
 1837SOL    HW1 7285   0.946  11.510   5.634
 1837SOL    HW2 7286   0.834  11.430   5.698
 1838SOL     OW 7287   6.233   4.492   7.978
 1838SOL    HW1 7288   6.222   4.582   7.949
 1838SOL    HW2 7289   6.290   4.452   7.913
 1839SOL     OW 7290  14.076   4.432   9.415
 1839SOL    HW1 7291  14.022   4.357   9.440
 1839SOL    HW2 7292  14.113   4.409   9.330
 1840SOL     OW 7293  13.369  10.345  11.112
 1840SOL    HW1 7294  13.444  10.317  11.060
 1840SOL    HW2 7295  13.399  10.335  11.203
 1841SOL     OW 7296   7.127   6.289   9.189
 1841SOL    HW1 7297   7.041   6.327   9.169
 1841SOL    HW2 7298   7.137   6.303   9.283
 1842SOL     OW 7299  10.279   4.024   1.598
 1842SOL    HW1 7300  10.213   4.023   1.666
 1842SOL    HW2 7301  10.285   4.116   1.572
 1843SOL     OW 7302   9.739   4.561  12.884
 1843SOL    HW1 7303   9.819   4.513  12.908
 1843SOL    HW2 7304   9.734   4.552  12.789
 1844SOL     OW 7305  12.732   1.064  13.304
 1844SOL    HW1 7306  12.732   0.972  13.332
 1844SOL    HW2 7307  12.824   1.090  13.307
 1845SOL     OW 7308   5.131   0.941  14.014
 1845SOL    HW1 7309   5.082   0.965  14.093
 1845SOL    HW2 7310   5.104   1.006  13.949
 1846SOL     OW 7311  14.264   6.508  14.858
 1846SOL    HW1 7312  14.292   6.455   0.051
 1846SOL    HW2 7313  14.256   6.597   0.011
 1847SOL     OW 7314  12.997   9.629   4.831
 1847SOL    HW1 7315  13.065   9.563   4.825
 1847SOL    HW2 7316  13.037   9.701   4.880
 1848SOL     OW 7317   5.835   6.585   0.405
 1848SOL    HW1 7318   5.753   6.539   0.420
 1848SOL    HW2 7319   5.821   6.633   0.323
 1849SOL     OW 7320  14.434  14.315   6.508
 1849SOL    HW1 7321  14.480  14.237   6.539
 1849SOL    HW2 7322  14.344  14.286   6.494
 1850SOL     OW 7323  14.527   1.794   1.514
 1850SOL    HW1 7324  14.543   1.713   1.465
 1850SOL    HW2 7325  14.450   1.775   1.567
 1851SOL     OW 7326  12.909   8.365   0.195
 1851SOL    HW1 7327  12.837   8.306   0.217
 1851SOL    HW2 7328  12.867   8.438   0.149
 1852SOL     OW 7329  14.692   0.238   2.216
 1852SOL    HW1 7330  14.632   0.310   2.200
 1852SOL    HW2 7331  14.692   0.187   2.134
 1853SOL     OW 7332   1.585   6.788   5.757
 1853SOL    HW1 7333   1.512   6.848   5.743
 1853SOL    HW2 7334   1.555   6.704   5.722
 1854SOL     OW 7335   3.033   2.459   2.183
 1854SOL    HW1 7336   2.964   2.511   2.224
 1854SOL    HW2 7337   3.068   2.515   2.114
 1855SOL     OW 7338   8.239   1.810   6.352
 1855SOL    HW1 7339   8.218   1.811   6.445
 1855SOL    HW2 7340   8.320   1.758   6.346
 1856SOL     OW 7341   0.714   7.570  12.484
 1856SOL    HW1 7342   0.730   7.591  12.576
 1856SOL    HW2 7343   0.669   7.486  12.486
 1857SOL     OW 7344   9.675   3.263   4.053
 1857SOL    HW1 7345   9.730   3.328   4.096
 1857SOL    HW2 7346   9.727   3.183   4.053
 1858SOL     OW 7347   8.581   3.375   1.256
 1858SOL    HW1 7348   8.581   3.384   1.351
 1858SOL    HW2 7349   8.600   3.283   1.240
 1859SOL     OW 7350   7.756   3.610  10.910
 1859SOL    HW1 7351   7.682   3.590  10.968
 1859SOL    HW2 7352   7.832   3.575  10.955
 1860SOL     OW 7353  13.940   8.092  14.400
 1860SOL    HW1 7354  13.882   8.103  14.475
 1860SOL    HW2 7355  13.924   8.169  14.346
 1861SOL     OW 7356  14.338   2.982  12.858
 1861SOL    HW1 7357  14.384   2.913  12.905
 1861SOL    HW2 7358  14.245   2.963  12.872
 1862SOL     OW 7359   6.293  13.061   1.694
 1862SOL    HW1 7360   6.302  13.050   1.600
 1862SOL    HW2 7361   6.343  12.989   1.732
 1863SOL     OW 7362   8.065   6.887  12.341
 1863SOL    HW1 7363   8.130   6.822  12.366
 1863SOL    HW2 7364   8.096   6.923  12.258
 1864SOL     OW 7365   8.420   3.018   8.759
 1864SOL    HW1 7366   8.462   3.094   8.720
 1864SOL    HW2 7367   8.339   3.007   8.709
 1865SOL     OW 7368   4.067   5.554   1.252
 1865SOL    HW1 7369   4.012   5.569   1.175
 1865SOL    HW2 7370   4.155   5.543   1.216
 1866SOL     OW 7371   4.276   0.753   9.336
 1866SOL    HW1 7372   4.198   0.797   9.304
 1866SOL    HW2 7373   4.267   0.753   9.431
 1867SOL     OW 7374   5.552   8.714   3.328
 1867SOL    HW1 7375   5.567   8.635   3.276
 1867SOL    HW2 7376   5.604   8.781   3.285
 1868SOL     OW 7377   1.741   0.982  12.809
 1868SOL    HW1 7378   1.672   0.958  12.746
 1868SOL    HW2 7379   1.794   1.047  12.763
 1869SOL     OW 7380  10.072  14.580  13.759
 1869SOL    HW1 7381  10.159  14.620  13.757
 1869SOL    HW2 7382  10.072  14.528  13.839
 1870SOL     OW 7383  12.044  12.764   5.257
 1870SOL    HW1 7384  12.126  12.791   5.217
 1870SOL    HW2 7385  12.069  12.694   5.318
 1871SOL     OW 7386  14.679   1.996   9.420
 1871SOL    HW1 7387  14.710   1.993   9.329
 1871SOL    HW2 7388  14.633   1.913   9.432
 1872SOL     OW 7389   3.241  13.222   3.824
 1872SOL    HW1 7390   3.198  13.288   3.769
 1872SOL    HW2 7391   3.321  13.200   3.778
 1873SOL     OW 7392  10.669  11.003   9.976
 1873SOL    HW1 7393  10.620  10.933   9.932
 1873SOL    HW2 7394  10.635  11.084   9.938
 1874SOL     OW 7395   7.184   3.444   8.603
 1874SOL    HW1 7396   7.212   3.517   8.549
 1874SOL    HW2 7397   7.263   3.390   8.613
 1875SOL     OW 7398   4.306   1.892   7.814
 1875SOL    HW1 7399   4.264   1.854   7.890
 1875SOL    HW2 7400   4.387   1.931   7.847
 1876SOL     OW 7401   1.425   6.537  13.651
 1876SOL    HW1 7402   1.385   6.569  13.570
 1876SOL    HW2 7403   1.365   6.471  13.683
 1877SOL     OW 7404   2.254   8.112  10.108
 1877SOL    HW1 7405   2.232   8.051  10.038
 1877SOL    HW2 7406   2.319   8.171  10.070
 1878SOL     OW 7407  10.059  10.352   0.670
 1878SOL    HW1 7408  10.034  10.267   0.635
 1878SOL    HW2 7409  10.023  10.415   0.607
 1879SOL     OW 7410  11.976   4.943  11.151
 1879SOL    HW1 7411  12.017   5.028  11.139
 1879SOL    HW2 7412  12.024   4.902  11.223
 1880SOL     OW 7413   8.798   1.916   8.672
 1880SOL    HW1 7414   8.820   1.824   8.656
 1880SOL    HW2 7415   8.822   1.961   8.591
 1881SOL     OW 7416   7.154   5.293   2.296
 1881SOL    HW1 7417   7.203   5.372   2.320
 1881SOL    HW2 7418   7.073   5.298   2.347
 1882SOL     OW 7419  11.967   7.574   9.818
 1882SOL    HW1 7420  12.019   7.510   9.866
 1882SOL    HW2 7421  12.025   7.649   9.807
 1883SOL     OW 7422   4.177   7.972  10.238
 1883SOL    HW1 7423   4.116   7.901  10.259
 1883SOL    HW2 7424   4.162   8.038  10.306
 1884SOL     OW 7425   4.304   7.627  10.984
 1884SOL    HW1 7426   4.322   7.620  10.891
 1884SOL    HW2 7427   4.365   7.692  11.016
 1885SOL     OW 7428  13.750  14.088   1.468
 1885SOL    HW1 7429  13.825  14.029   1.474
 1885SOL    HW2 7430  13.677  14.038   1.506
 1886SOL     OW 7431   5.448   7.874   8.730
 1886SOL    HW1 7432   5.407   7.887   8.816
 1886SOL    HW2 7433   5.521   7.936   8.729
 1887SOL     OW 7434  11.851   2.161   9.307
 1887SOL    HW1 7435  11.864   2.256   9.307
 1887SOL    HW2 7436  11.935   2.125   9.280
 1888SOL     OW 7437   9.749   5.222   7.332
 1888SOL    HW1 7438   9.666   5.267   7.319
 1888SOL    HW2 7439   9.724   5.138   7.370
 1889SOL     OW 7440  14.513   0.244  11.864
 1889SOL    HW1 7441  14.600   0.274  11.891
 1889SOL    HW2 7442  14.504   0.158  11.904
 1890SOL     OW 7443  14.616   8.359   1.683
 1890SOL    HW1 7444  14.533   8.315   1.666
 1890SOL    HW2 7445  14.683   8.292   1.668
 1891SOL     OW 7446  13.386   6.156   2.182
 1891SOL    HW1 7447  13.374   6.226   2.246
 1891SOL    HW2 7448  13.480   6.138   2.183
 1892SOL     OW 7449  14.559   5.650   7.493
 1892SOL    HW1 7450  14.484   5.707   7.474
 1892SOL    HW2 7451  14.583   5.671   7.584
 1893SOL     OW 7452   1.045  11.136   2.745
 1893SOL    HW1 7453   0.980  11.203   2.727
 1893SOL    HW2 7454   0.994  11.060   2.774
 1894SOL     OW 7455   8.904   1.195   8.938
 1894SOL    HW1 7456   8.860   1.219   9.020
 1894SOL    HW2 7457   8.833   1.168   8.880
 1895SOL     OW 7458   7.946   8.645   4.738
 1895SOL    HW1 7459   7.892   8.622   4.662
 1895SOL    HW2 7460   7.909   8.595   4.810
 1896SOL     OW 7461   3.728   0.096   6.628
 1896SOL    HW1 7462   3.806   0.042   6.618
 1896SOL    HW2 7463   3.757   0.172   6.679
 1897SOL     OW 7464   3.184  10.789   4.180
 1897SOL    HW1 7465   3.264  10.783   4.232
 1897SOL    HW2 7466   3.135  10.709   4.201
 1898SOL     OW 7467   2.184   6.048  12.364
 1898SOL    HW1 7468   2.163   6.105  12.291
 1898SOL    HW2 7469   2.103   6.043  12.415
 1899SOL     OW 7470  11.324   6.221   1.836
 1899SOL    HW1 7471  11.297   6.247   1.748
 1899SOL    HW2 7472  11.282   6.285   1.894
 1900SOL     OW 7473   7.010   9.549  10.647
 1900SOL    HW1 7474   7.050   9.477  10.696
 1900SOL    HW2 7475   6.937   9.509  10.601
 1901SOL     OW 7476  12.796   8.649   5.448
 1901SOL    HW1 7477  12.830   8.729   5.487
 1901SOL    HW2 7478  12.711   8.636   5.489
 1902SOL     OW 7479   9.546   2.278   4.850
 1902SOL    HW1 7480   9.481   2.220   4.811
 1902SOL    HW2 7481   9.511   2.366   4.836
 1903SOL     OW 7482  10.345   8.193  10.628
 1903SOL    HW1 7483  10.346   8.150  10.714
 1903SOL    HW2 7484  10.301   8.130  10.571
 1904SOL     OW 7485   5.107  10.791   6.936
 1904SOL    HW1 7486   5.096  10.816   7.028
 1904SOL    HW2 7487   5.200  10.806   6.918
 1905SOL     OW 7488  11.884  14.609   8.332
 1905SOL    HW1 7489  11.915  14.677   8.273
 1905SOL    HW2 7490  11.793  14.594   8.306
 1906SOL     OW 7491  11.334   7.889   4.421
 1906SOL    HW1 7492  11.398   7.818   4.419
 1906SOL    HW2 7493  11.322   7.914   4.330
 1907SOL     OW 7494  11.714  11.743  11.168
 1907SOL    HW1 7495  11.644  11.775  11.112
 1907SOL    HW2 7496  11.782  11.810  11.162
 1908SOL     OW 7497   5.131   0.368   4.104
 1908SOL    HW1 7498   5.095   0.427   4.038
 1908SOL    HW2 7499   5.152   0.425   4.178
 1909SOL     OW 7500   3.953  12.672   0.892
 1909SOL    HW1 7501   3.869  12.715   0.875
 1909SOL    HW2 7502   4.018  12.729   0.851
 1910SOL     OW 7503   3.574   2.520   2.270
 1910SOL    HW1 7504   3.648   2.478   2.313
 1910SOL    HW2 7505   3.586   2.613   2.288
 1911SOL     OW 7506   3.533   8.089  10.228
 1911SOL    HW1 7507   3.461   8.150  10.214
 1911SOL    HW2 7508   3.610   8.145  10.236
 1912SOL     OW 7509  10.807   6.178   2.044
 1912SOL    HW1 7510  10.722   6.215   2.022
 1912SOL    HW2 7511  10.813   6.099   1.990
 1913SOL     OW 7512   8.224  11.926   8.704
 1913SOL    HW1 7513   8.209  11.857   8.639
 1913SOL    HW2 7514   8.310  11.904   8.742
 1914SOL     OW 7515   4.030   4.414   5.124
 1914SOL    HW1 7516   4.002   4.495   5.080
 1914SOL    HW2 7517   4.125   4.413   5.113
 1915SOL     OW 7518   8.877  12.753   2.430
 1915SOL    HW1 7519   8.864  12.729   2.338
 1915SOL    HW2 7520   8.971  12.743   2.445
 1916SOL     OW 7521  13.314  10.470   4.485
 1916SOL    HW1 7522  13.222  10.463   4.461
 1916SOL    HW2 7523  13.358  10.492   4.403
 1917SOL     OW 7524   9.790   6.238  12.939
 1917SOL    HW1 7525   9.848   6.261  13.012
 1917SOL    HW2 7526   9.797   6.312  12.879
 1918SOL     OW 7527   6.967   5.448  12.855
 1918SOL    HW1 7528   6.967   5.380  12.788
 1918SOL    HW2 7529   6.889   5.430  12.908
 1919SOL     OW 7530   1.533  11.420   7.597
 1919SOL    HW1 7531   1.536  11.326   7.583
 1919SOL    HW2 7532   1.506  11.456   7.513
 1920SOL     OW 7533   9.994  13.432   2.415
 1920SOL    HW1 7534   9.956  13.380   2.486
 1920SOL    HW2 7535   9.971  13.384   2.335
 1921SOL     OW 7536  12.798   0.373  12.053
 1921SOL    HW1 7537  12.732   0.419  12.104
 1921SOL    HW2 7538  12.813   0.291  12.100
 1922SOL     OW 7539   6.992  12.279   4.573
 1922SOL    HW1 7540   7.068  12.287   4.516
 1922SOL    HW2 7541   6.917  12.287   4.515
 1923SOL     OW 7542   2.691  12.602   0.730
 1923SOL    HW1 7543   2.770  12.656   0.727
 1923SOL    HW2 7544   2.694  12.561   0.816
 1924SOL     OW 7545  12.760  13.306   0.373
 1924SOL    HW1 7546  12.742  13.250   0.449
 1924SOL    HW2 7547  12.746  13.395   0.405
 1925SOL     OW 7548  13.427   1.818   6.523
 1925SOL    HW1 7549  13.412   1.729   6.492
 1925SOL    HW2 7550  13.368   1.827   6.598
 1926SOL     OW 7551   3.833  14.700  14.009
 1926SOL    HW1 7552   3.888  14.685  14.087
 1926SOL    HW2 7553   3.745  14.712  14.044
 1927SOL     OW 7554   8.720   7.591   4.358
 1927SOL    HW1 7555   8.627   7.574   4.375
 1927SOL    HW2 7556   8.747   7.519   4.300
 1928SOL     OW 7557  14.332   6.799   9.308
 1928SOL    HW1 7558  14.307   6.889   9.286
 1928SOL    HW2 7559  14.395   6.809   9.379
 1929SOL     OW 7560   2.262   1.697  13.702
 1929SOL    HW1 7561   2.325   1.761  13.668
 1929SOL    HW2 7562   2.176   1.733  13.680
 1930SOL     OW 7563   5.973   7.329   6.560
 1930SOL    HW1 7564   6.049   7.314   6.503
 1930SOL    HW2 7565   5.909   7.372   6.504
 1931SOL     OW 7566   0.778   9.904  12.078
 1931SOL    HW1 7567   0.706   9.924  12.137
 1931SOL    HW2 7568   0.802   9.989  12.040
 1932SOL     OW 7569   1.598  11.944   2.296
 1932SOL    HW1 7570   1.629  11.902   2.376
 1932SOL    HW2 7571   1.526  12.000   2.325
 1933SOL     OW 7572   0.390   5.367  14.179
 1933SOL    HW1 7573   0.356   5.421  14.108
 1933SOL    HW2 7574   0.370   5.415  14.259
 1934SOL     OW 7575   1.701   5.694   3.408
 1934SOL    HW1 7576   1.631   5.748   3.446
 1934SOL    HW2 7577   1.684   5.606   3.441
 1935SOL     OW 7578  11.673   7.043   0.776
 1935SOL    HW1 7579  11.752   7.084   0.811
 1935SOL    HW2 7580  11.622   7.116   0.740
 1936SOL     OW 7581   5.761  10.835  12.356
 1936SOL    HW1 7582   5.712  10.819  12.276
 1936SOL    HW2 7583   5.694  10.839  12.424
 1937SOL     OW 7584  11.562   7.356  14.490
 1937SOL    HW1 7585  11.638   7.310  14.456
 1937SOL    HW2 7586  11.524   7.296  14.554
 1938SOL     OW 7587   5.162   5.494   8.158
 1938SOL    HW1 7588   5.143   5.476   8.250
 1938SOL    HW2 7589   5.084   5.538   8.126
 1939SOL     OW 7590   8.791   6.695  11.411
 1939SOL    HW1 7591   8.773   6.784  11.439
 1939SOL    HW2 7592   8.717   6.673  11.353
 1940SOL     OW 7593   2.340   1.035  14.712
 1940SOL    HW1 7594   2.377   1.114  14.671
 1940SOL    HW2 7595   2.398   1.018  14.786
 1941SOL     OW 7596   8.676   4.673  11.130
 1941SOL    HW1 7597   8.767   4.648  11.146
 1941SOL    HW2 7598   8.647   4.617  11.058
 1942SOL     OW 7599  10.054   5.696   0.563
 1942SOL    HW1 7600  10.065   5.679   0.469
 1942SOL    HW2 7601  10.099   5.623   0.606
 1943SOL     OW 7602  14.511  12.227   8.357
 1943SOL    HW1 7603  14.432  12.223   8.411
 1943SOL    HW2 7604  14.483  12.273   8.278
 1944SOL     OW 7605  13.122   5.479   1.632
 1944SOL    HW1 7606  13.105   5.392   1.668
 1944SOL    HW2 7607  13.110   5.470   1.538
 1945SOL     OW 7608  10.367   3.702  12.037
 1945SOL    HW1 7609  10.341   3.611  12.050
 1945SOL    HW2 7610  10.384   3.709  11.943
 1946SOL     OW 7611   2.051   0.755  14.639
 1946SOL    HW1 7612   1.972   0.764  14.691
 1946SOL    HW2 7613   2.072   0.661  14.643
 1947SOL     OW 7614   1.329  10.919   5.109
 1947SOL    HW1 7615   1.307  10.918   5.016
 1947SOL    HW2 7616   1.244  10.925   5.153
 1948SOL     OW 7617  12.824   6.257  12.368
 1948SOL    HW1 7618  12.872   6.280  12.288
 1948SOL    HW2 7619  12.818   6.162  12.365
 1949SOL     OW 7620  12.102   1.184   2.949
 1949SOL    HW1 7621  12.065   1.122   3.013
 1949SOL    HW2 7622  12.079   1.147   2.864
 1950SOL     OW 7623   3.219   0.179   8.068
 1950SOL    HW1 7624   3.216   0.246   8.000
 1950SOL    HW2 7625   3.148   0.119   8.047
 1951SOL     OW 7626   4.834   3.666   1.281
 1951SOL    HW1 7627   4.811   3.696   1.193
 1951SOL    HW2 7628   4.782   3.588   1.294
 1952SOL     OW 7629  10.407  13.154  11.031
 1952SOL    HW1 7630  10.410  13.095  11.106
 1952SOL    HW2 7631  10.477  13.123  10.973
 1953SOL     OW 7632   3.273   6.761   0.218
 1953SOL    HW1 7633   3.195   6.716   0.187
 1953SOL    HW2 7634   3.339   6.744   0.150
 1954SOL     OW 7635   0.294   4.383   9.528
 1954SOL    HW1 7636   0.332   4.471   9.532
 1954SOL    HW2 7637   0.217   4.387   9.584
 1955SOL     OW 7638   1.510  13.068  11.950
 1955SOL    HW1 7639   1.512  12.980  11.913
 1955SOL    HW2 7640   1.567  13.120  11.893
 1956SOL     OW 7641   9.783  10.464   2.495
 1956SOL    HW1 7642   9.778  10.374   2.527
 1956SOL    HW2 7643   9.694  10.485   2.467
 1957SOL     OW 7644  11.180  10.069   5.830
 1957SOL    HW1 7645  11.148   9.996   5.883
 1957SOL    HW2 7646  11.101  10.113   5.800
 1958SOL     OW 7647   7.210  12.570   7.891
 1958SOL    HW1 7648   7.262  12.568   7.810
 1958SOL    HW2 7649   7.185  12.662   7.901
 1959SOL     OW 7650   3.106   3.151   6.922
 1959SOL    HW1 7651   3.085   3.080   6.982
 1959SOL    HW2 7652   3.166   3.207   6.971
 1960SOL     OW 7653   9.337   0.851   3.859
 1960SOL    HW1 7654   9.308   0.860   3.768
 1960SOL    HW2 7655   9.310   0.933   3.901
 1961SOL     OW 7656   5.112   2.152   1.620
 1961SOL    HW1 7657   5.068   2.234   1.644
 1961SOL    HW2 7658   5.083   2.135   1.530
 1962SOL     OW 7659   1.791   4.886   7.776
 1962SOL    HW1 7660   1.730   4.853   7.842
 1962SOL    HW2 7661   1.874   4.845   7.798
 1963SOL     OW 7662  10.805   8.115   4.369
 1963SOL    HW1 7663  10.839   8.026   4.380
 1963SOL    HW2 7664  10.795   8.148   4.459
 1964SOL     OW 7665  14.439   8.689   7.333
 1964SOL    HW1 7666  14.397   8.648   7.409
 1964SOL    HW2 7667  14.507   8.745   7.371
 1965SOL     OW 7668  13.892   6.566   2.166
 1965SOL    HW1 7669  13.973   6.534   2.206
 1965SOL    HW2 7670  13.830   6.573   2.239
 1966SOL     OW 7671   0.508  11.836   7.780
 1966SOL    HW1 7672   0.418  11.817   7.806
 1966SOL    HW2 7673   0.516  11.931   7.788
 1967SOL     OW 7674   6.208  14.684   1.090
 1967SOL    HW1 7675   6.173  14.613   1.037
 1967SOL    HW2 7676   6.235  14.750   1.027
 1968SOL     OW 7677  10.846  12.125   4.089
 1968SOL    HW1 7678  10.886  12.058   4.034
 1968SOL    HW2 7679  10.840  12.202   4.033
 1969SOL     OW 7680   1.963  13.976  11.615
 1969SOL    HW1 7681   1.982  13.964  11.522
 1969SOL    HW2 7682   2.037  13.937  11.661
 1970SOL     OW 7683   6.163  10.456  12.845
 1970SOL    HW1 7684   6.178  10.403  12.923
 1970SOL    HW2 7685   6.133  10.394  12.779
 1971SOL     OW 7686   1.324   2.490   2.488
 1971SOL    HW1 7687   1.245   2.544   2.482
 1971SOL    HW2 7688   1.366   2.520   2.569
 1972SOL     OW 7689   8.150   2.508   0.945
 1972SOL    HW1 7690   8.137   2.525   1.038
 1972SOL    HW2 7691   8.084   2.562   0.901
 1973SOL     OW 7692   4.626   5.315  13.805
 1973SOL    HW1 7693   4.546   5.313  13.858
 1973SOL    HW2 7694   4.674   5.237  13.833
 1974SOL     OW 7695  11.908   0.659   6.687
 1974SOL    HW1 7696  11.975   0.728   6.690
 1974SOL    HW2 7697  11.946   0.586   6.735
 1975SOL     OW 7698   9.341   0.991   7.715
 1975SOL    HW1 7699   9.345   1.040   7.633
 1975SOL    HW2 7700   9.252   1.005   7.747
 1976SOL     OW 7701   7.114   5.089   2.674
 1976SOL    HW1 7702   7.107   4.994   2.663
 1976SOL    HW2 7703   7.207   5.108   2.668
 1977SOL     OW 7704   5.271   6.075   7.109
 1977SOL    HW1 7705   5.243   5.984   7.116
 1977SOL    HW2 7706   5.297   6.085   7.017
 1978SOL     OW 7707   9.776  14.222   1.679
 1978SOL    HW1 7708   9.681  14.215   1.670
 1978SOL    HW2 7709   9.793  14.205   1.772
 1979SOL     OW 7710   2.229   6.174   5.325
 1979SOL    HW1 7711   2.199   6.089   5.291
 1979SOL    HW2 7712   2.304   6.197   5.271
 1980SOL     OW 7713   6.355  12.509   7.950
 1980SOL    HW1 7714   6.324  12.592   7.986
 1980SOL    HW2 7715   6.276  12.466   7.918
 1981SOL     OW 7716   8.748   9.712   0.613
 1981SOL    HW1 7717   8.741   9.684   0.522
 1981SOL    HW2 7718   8.714   9.802   0.612
 1982SOL     OW 7719  12.781   5.542   6.616
 1982SOL    HW1 7720  12.690   5.565   6.599
 1982SOL    HW2 7721  12.805   5.483   6.544
 1983SOL     OW 7722  10.147   2.787  14.278
 1983SOL    HW1 7723  10.083   2.718  14.295
 1983SOL    HW2 7724  10.095   2.866  14.267
 1984SOL     OW 7725   1.652   7.503   7.945
 1984SOL    HW1 7726   1.688   7.536   8.027
 1984SOL    HW2 7727   1.711   7.432   7.920
 1985SOL     OW 7728   8.267  13.172   4.196
 1985SOL    HW1 7729   8.187  13.160   4.248
 1985SOL    HW2 7730   8.237  13.214   4.115
 1986SOL     OW 7731  12.919  10.403  11.462
 1986SOL    HW1 7732  12.996  10.348  11.476
 1986SOL    HW2 7733  12.846  10.351  11.494
 1987SOL     OW 7734  12.070   4.038  12.607
 1987SOL    HW1 7735  12.074   3.950  12.571
 1987SOL    HW2 7736  12.150   4.046  12.659
 1988SOL     OW 7737  14.414  10.913  13.901
 1988SOL    HW1 7738  14.390  10.936  13.812
 1988SOL    HW2 7739  14.416  10.997  13.948
 1989SOL     OW 7740   0.929   5.530   3.927
 1989SOL    HW1 7741   1.002   5.472   3.902
 1989SOL    HW2 7742   0.952   5.615   3.889
 1990SOL     OW 7743  10.444   8.803   0.455
 1990SOL    HW1 7744  10.363   8.752   0.444
 1990SOL    HW2 7745  10.474   8.819   0.366
 1991SOL     OW 7746   9.581   5.362   6.955
 1991SOL    HW1 7747   9.540   5.281   6.985
 1991SOL    HW2 7748   9.660   5.370   7.009
 1992SOL     OW 7749   2.684   8.161   0.673
 1992SOL    HW1 7750   2.599   8.147   0.715
 1992SOL    HW2 7751   2.663   8.212   0.594
 1993SOL     OW 7752  12.876  12.617   0.666
 1993SOL    HW1 7753  12.790  12.658   0.668
 1993SOL    HW2 7754  12.871  12.556   0.592
 1994SOL     OW 7755   5.169  11.707  11.606
 1994SOL    HW1 7756   5.142  11.616  11.618
 1994SOL    HW2 7757   5.178  11.742  11.695
 1995SOL     OW 7758  13.003   7.968   1.217
 1995SOL    HW1 7759  12.966   7.930   1.297
 1995SOL    HW2 7760  12.978   8.060   1.220
 1996SOL     OW 7761  14.596   4.276   2.375
 1996SOL    HW1 7762  14.628   4.187   2.362
 1996SOL    HW2 7763  14.533   4.289   2.304
 1997SOL     OW 7764   5.220  11.047   8.567
 1997SOL    HW1 7765   5.256  11.120   8.516
 1997SOL    HW2 7766   5.269  11.049   8.649
 1998SOL     OW 7767   2.610   4.716   2.615
 1998SOL    HW1 7768   2.565   4.643   2.657
 1998SOL    HW2 7769   2.679   4.741   2.677
 1999SOL     OW 7770   7.336   3.900  11.952
 1999SOL    HW1 7771   7.429   3.893  11.971
 1999SOL    HW2 7772   7.327   3.985  11.907
 2000SOL     OW 7773   2.348   2.382  12.064
 2000SOL    HW1 7774   2.286   2.310  12.072
 2000SOL    HW2 7775   2.371   2.404  12.155
 2001SOL     OW 7776   0.267   0.848  12.195
 2001SOL    HW1 7777   0.305   0.852  12.282
 2001SOL    HW2 7778   0.180   0.887  12.204
 2002SOL     OW 7779  14.713  10.071  11.785
 2002SOL    HW1 7780  14.666  10.090  11.704
 2002SOL    HW2 7781  14.804  10.094  11.766
 2003SOL     OW 7782   7.842   1.858  11.249
 2003SOL    HW1 7783   7.782   1.902  11.308
 2003SOL    HW2 7784   7.887   1.794  11.304
 2004SOL     OW 7785  12.645  12.172  10.347
 2004SOL    HW1 7786  12.685  12.188  10.261
 2004SOL    HW2 7787  12.610  12.258  10.372
 2005SOL     OW 7788  12.816   9.168  10.545
 2005SOL    HW1 7789  12.773   9.223  10.610
 2005SOL    HW2 7790  12.903   9.151  10.581
 2006SOL     OW 7791  11.091   5.013   7.502
 2006SOL    HW1 7792  11.010   5.053   7.535
 2006SOL    HW2 7793  11.155   5.029   7.571
 2007SOL     OW 7794   1.255   5.947  12.194
 2007SOL    HW1 7795   1.310   5.969  12.119
 2007SOL    HW2 7796   1.279   5.858  12.218
 2008SOL     OW 7797   3.865   0.306   5.203
 2008SOL    HW1 7798   3.856   0.263   5.118
 2008SOL    HW2 7799   3.803   0.261   5.260
 2009SOL     OW 7800   1.607  12.143   0.271
 2009SOL    HW1 7801   1.671  12.154   0.201
 2009SOL    HW2 7802   1.646  12.079   0.331
 2010SOL     OW 7803   2.677   3.952   4.696
 2010SOL    HW1 7804   2.716   4.038   4.707
 2010SOL    HW2 7805   2.587   3.962   4.728
 2011SOL     OW 7806   3.386   2.791   8.490
 2011SOL    HW1 7807   3.392   2.729   8.418
 2011SOL    HW2 7808   3.465   2.776   8.542
 2012SOL     OW 7809   1.259   6.014  10.183
 2012SOL    HW1 7810   1.189   5.966  10.139
 2012SOL    HW2 7811   1.328   5.948  10.196
 2013SOL     OW 7812   8.715   1.405   4.454
 2013SOL    HW1 7813   8.767   1.326   4.470
 2013SOL    HW2 7814   8.635   1.373   4.412
 2014SOL     OW 7815   4.488  14.486   1.699
 2014SOL    HW1 7816   4.571  14.472   1.654
 2014SOL    HW2 7817   4.482  14.415   1.763
 2015SOL     OW 7818   4.265   4.173   6.549
 2015SOL    HW1 7819   4.193   4.112   6.564
 2015SOL    HW2 7820   4.319   4.131   6.483
 2016SOL     OW 7821   5.099   3.575   8.691
 2016SOL    HW1 7822   5.132   3.613   8.610
 2016SOL    HW2 7823   5.123   3.482   8.685
 2017SOL     OW 7824   1.006  12.173   2.937
 2017SOL    HW1 7825   1.029  12.211   3.022
 2017SOL    HW2 7826   0.925  12.124   2.954
 2018SOL     OW 7827   4.926  12.853   6.419
 2018SOL    HW1 7828   4.999  12.905   6.387
 2018SOL    HW2 7829   4.904  12.892   6.503
 2019SOL     OW 7830  12.602   8.375  12.837
 2019SOL    HW1 7831  12.643   8.301  12.883
 2019SOL    HW2 7832  12.570   8.338  12.755
 2020SOL     OW 7833  11.819  12.582   2.075
 2020SOL    HW1 7834  11.796  12.616   1.989
 2020SOL    HW2 7835  11.851  12.493   2.059
 2021SOL     OW 7836  13.137   1.102  14.023
 2021SOL    HW1 7837  13.110   1.174  14.080
 2021SOL    HW2 7838  13.189   1.143  13.954
 2022SOL     OW 7839   0.919   3.602   1.445
 2022SOL    HW1 7840   0.860   3.637   1.512
 2022SOL    HW2 7841   0.904   3.656   1.368
 2023SOL     OW 7842   5.826  10.936   0.142
 2023SOL    HW1 7843   5.860  10.853   0.176
 2023SOL    HW2 7844   5.904  10.989   0.126
 2024SOL     OW 7845   1.054   4.771  13.634
 2024SOL    HW1 7846   1.057   4.754  13.540
 2024SOL    HW2 7847   1.081   4.689  13.675
 2025SOL     OW 7848   8.311  13.666   8.692
 2025SOL    HW1 7849   8.237  13.710   8.649
 2025SOL    HW2 7850   8.290  13.573   8.686
 2026SOL     OW 7851   3.584  13.984   6.643
 2026SOL    HW1 7852   3.598  14.075   6.668
 2026SOL    HW2 7853   3.492  13.980   6.617
 2027SOL     OW 7854   3.021   4.574   0.381
 2027SOL    HW1 7855   3.081   4.648   0.375
 2027SOL    HW2 7856   3.073   4.498   0.356
 2028SOL     OW 7857  11.780   8.633  11.212
 2028SOL    HW1 7858  11.729   8.712  11.193
 2028SOL    HW2 7859  11.820   8.651  11.297
 2029SOL     OW 7860  11.001   5.729   9.199
 2029SOL    HW1 7861  11.089   5.692   9.192
 2029SOL    HW2 7862  10.945   5.665   9.154
 2030SOL     OW 7863   4.980   5.908  14.081
 2030SOL    HW1 7864   4.994   5.988  14.031
 2030SOL    HW2 7865   5.050   5.849  14.052
 2031SOL     OW 7866   6.249   0.723   0.488
 2031SOL    HW1 7867   6.206   0.694   0.569
 2031SOL    HW2 7868   6.201   0.802   0.463
 2032SOL     OW 7869  11.619  11.033   5.083
 2032SOL    HW1 7870  11.624  11.126   5.108
 2032SOL    HW2 7871  11.534  11.004   5.117
 2033SOL     OW 7872  14.221   5.863  14.548
 2033SOL    HW1 7873  14.276   5.940  14.560
 2033SOL    HW2 7874  14.179   5.876  14.463
 2034SOL     OW 7875  12.027   1.918   7.719
 2034SOL    HW1 7876  12.042   2.006   7.685
 2034SOL    HW2 7877  11.968   1.878   7.656
 2035SOL     OW 7878  11.760   2.444   0.304
 2035SOL    HW1 7879  11.743   2.459   0.211
 2035SOL    HW2 7880  11.778   2.350   0.310
 2036SOL     OW 7881  11.080   8.027   7.389
 2036SOL    HW1 7882  11.132   8.071   7.321
 2036SOL    HW2 7883  10.990   8.034   7.359
 2037SOL     OW 7884   1.703  12.317   3.992
 2037SOL    HW1 7885   1.771  12.252   3.977
 2037SOL    HW2 7886   1.666  12.295   4.077
 2038SOL     OW 7887   5.545  12.964   6.529
 2038SOL    HW1 7888   5.494  13.018   6.590
 2038SOL    HW2 7889   5.548  12.878   6.571
 2039SOL     OW 7890   9.089  11.748   4.595
 2039SOL    HW1 7891   9.181  11.743   4.567
 2039SOL    HW2 7892   9.093  11.734   4.689
 2040SOL     OW 7893  10.855  13.551   9.300
 2040SOL    HW1 7894  10.774  13.562   9.250
 2040SOL    HW2 7895  10.834  13.580   9.388
 2041SOL     OW 7896   3.208  10.146  12.809
 2041SOL    HW1 7897   3.262  10.165  12.886
 2041SOL    HW2 7898   3.217  10.225  12.754
 2042SOL     OW 7899  13.265  12.043  10.177
 2042SOL    HW1 7900  13.218  12.127  10.175
 2042SOL    HW2 7901  13.198  11.978  10.159
 2043SOL     OW 7902  13.806   9.340   5.801
 2043SOL    HW1 7903  13.847   9.388   5.729
 2043SOL    HW2 7904  13.824   9.393   5.879
 2044SOL     OW 7905   4.474   9.978  11.193
 2044SOL    HW1 7906   4.497   9.965  11.101
 2044SOL    HW2 7907   4.420   9.903  11.216
 2045SOL     OW 7908   4.262  13.040   7.466
 2045SOL    HW1 7909   4.222  13.121   7.434
 2045SOL    HW2 7910   4.289  13.061   7.556
 2046SOL     OW 7911   7.536   9.641   0.070
 2046SOL    HW1 7912   7.459   9.654   0.126
 2046SOL    HW2 7913   7.584   9.569   0.111
 2047SOL     OW 7914   5.506   4.204   5.471
 2047SOL    HW1 7915   5.517   4.280   5.528
 2047SOL    HW2 7916   5.421   4.167   5.496
 2048SOL     OW 7917   7.972   4.171   5.384
 2048SOL    HW1 7918   8.043   4.227   5.353
 2048SOL    HW2 7919   7.946   4.121   5.306
 2049SOL     OW 7920   4.670   6.862  10.429
 2049SOL    HW1 7921   4.582   6.891  10.405
 2049SOL    HW2 7922   4.716   6.853  10.346
 2050SOL     OW 7923   0.080  14.450  14.482
 2050SOL    HW1 7924   0.146  14.387  14.508
 2050SOL    HW2 7925   0.008  14.438  14.545
 2051SOL     OW 7926  14.250  12.058   0.450
 2051SOL    HW1 7927  14.282  12.071   0.361
 2051SOL    HW2 7928  14.321  12.090   0.506
 2052SOL     OW 7929   0.711   7.268  12.188
 2052SOL    HW1 7930   0.682   7.357  12.208
 2052SOL    HW2 7931   0.679   7.252  12.099
 2053SOL     OW 7932   2.041   6.844  13.051
 2053SOL    HW1 7933   2.016   6.913  13.112
 2053SOL    HW2 7934   2.135   6.833  13.063
 2054SOL     OW 7935   0.294   9.019   9.325
 2054SOL    HW1 7936   0.239   9.002   9.402
 2054SOL    HW2 7937   0.370   8.962   9.338
 2055SOL     OW 7938   2.693  12.569   2.793
 2055SOL    HW1 7939   2.734  12.492   2.754
 2055SOL    HW2 7940   2.660  12.619   2.718
 2056SOL     OW 7941  13.474  11.672   3.540
 2056SOL    HW1 7942  13.420  11.617   3.484
 2056SOL    HW2 7943  13.485  11.620   3.620
 2057SOL     OW 7944   9.260   5.704   1.500
 2057SOL    HW1 7945   9.179   5.705   1.450
 2057SOL    HW2 7946   9.327   5.734   1.439
 2058SOL     OW 7947   9.690   3.139   7.705
 2058SOL    HW1 7948   9.689   3.220   7.654
 2058SOL    HW2 7949   9.775   3.139   7.748
 2059SOL     OW 7950   9.384   9.095  10.806
 2059SOL    HW1 7951   9.472   9.122  10.834
 2059SOL    HW2 7952   9.394   9.074  10.713
 2060SOL     OW 7953  11.999   4.442   6.512
 2060SOL    HW1 7954  12.082   4.440   6.559
 2060SOL    HW2 7955  12.023   4.465   6.422
 2061SOL     OW 7956   5.642  11.071   5.999
 2061SOL    HW1 7957   5.693  11.115   5.931
 2061SOL    HW2 7958   5.575  11.022   5.952
 2062SOL     OW 7959  12.498  10.165   7.719
 2062SOL    HW1 7960  12.492  10.084   7.669
 2062SOL    HW2 7961  12.408  10.197   7.725
 2063SOL     OW 7962   8.257  13.460  14.856
 2063SOL    HW1 7963   8.346  13.493  14.845
 2063SOL    HW2 7964   8.216  13.522   0.035
 2064SOL     OW 7965   0.481   6.506   7.406
 2064SOL    HW1 7966   0.429   6.577   7.444
 2064SOL    HW2 7967   0.435   6.426   7.431
 2065SOL     OW 7968   7.489   8.531  13.826
 2065SOL    HW1 7969   7.548   8.525  13.751
 2065SOL    HW2 7970   7.442   8.614  13.813
 2066SOL     OW 7971  11.332   1.938   9.707
 2066SOL    HW1 7972  11.418   1.901   9.725
 2066SOL    HW2 7973  11.337   2.028   9.740
 2067SOL     OW 7974  10.175  11.659   8.518
 2067SOL    HW1 7975  10.088  11.637   8.553
 2067SOL    HW2 7976  10.230  11.584   8.540
 2068SOL     OW 7977   5.507   2.250   5.030
 2068SOL    HW1 7978   5.496   2.276   5.121
 2068SOL    HW2 7979   5.583   2.300   5.000
 2069SOL     OW 7980   7.887  12.337   2.925
 2069SOL    HW1 7981   7.909  12.257   2.973
 2069SOL    HW2 7982   7.794  12.351   2.942
 2070SOL     OW 7983  12.934   2.667   8.157
 2070SOL    HW1 7984  12.994   2.594   8.177
 2070SOL    HW2 7985  12.854   2.624   8.127
 2071SOL     OW 7986   2.395   0.553   5.772
 2071SOL    HW1 7987   2.478   0.505   5.774
 2071SOL    HW2 7988   2.418   0.643   5.794
 2072SOL     OW 7989   0.715   4.612  13.570
 2072SOL    HW1 7990   0.742   4.639  13.658
 2072SOL    HW2 7991   0.678   4.691  13.531
 2073SOL     OW 7992  14.822  10.471   5.773
 2073SOL    HW1 7993  14.828  10.379   5.796
 2073SOL    HW2 7994  14.774  10.472   5.690
 2074SOL     OW 7995   2.655   9.448   2.264
 2074SOL    HW1 7996   2.700   9.494   2.334
 2074SOL    HW2 7997   2.712   9.458   2.188
 2075SOL     OW 7998   6.831  10.927   8.992
 2075SOL    HW1 7999   6.838  10.956   9.083
 2075SOL    HW2 8000   6.846  10.832   8.997
 2076SOL     OW 8001  10.196   4.718   7.019
 2076SOL    HW1 8002  10.221   4.753   7.105
 2076SOL    HW2 8003  10.162   4.794   6.971
 2077SOL     OW 8004   1.144   7.328  12.171
 2077SOL    HW1 8005   1.219   7.270  12.153
 2077SOL    HW2 8006   1.146   7.391  12.099
 2078SOL     OW 8007  10.284   9.249   2.888
 2078SOL    HW1 8008  10.202   9.200   2.884
 2078SOL    HW2 8009  10.259   9.340   2.878
 2079SOL     OW 8010  12.142   9.723  14.441
 2079SOL    HW1 8011  12.228   9.696  14.472
 2079SOL    HW2 8012  12.089   9.730  14.521
 2080SOL     OW 8013   7.596   0.876   2.870
 2080SOL    HW1 8014   7.626   0.848   2.784
 2080SOL    HW2 8015   7.502   0.889   2.859
 2081SOL     OW 8016   9.318   1.140  13.134
 2081SOL    HW1 8017   9.285   1.182  13.055
 2081SOL    HW2 8018   9.409   1.119  13.114
 2082SOL     OW 8019  11.778   7.299   6.503
 2082SOL    HW1 8020  11.726   7.274   6.426
 2082SOL    HW2 8021  11.869   7.293   6.473
 2083SOL     OW 8022   9.722   2.243  11.265
 2083SOL    HW1 8023   9.803   2.291  11.254
 2083SOL    HW2 8024   9.677   2.251  11.180
 2084SOL     OW 8025  12.711   8.839  14.026
 2084SOL    HW1 8026  12.759   8.909  14.071
 2084SOL    HW2 8027  12.775   8.802  13.965
 2085SOL     OW 8028  12.783   9.811   2.266
 2085SOL    HW1 8029  12.787   9.907   2.265
 2085SOL    HW2 8030  12.865   9.785   2.309
 2086SOL     OW 8031   1.199   9.036  14.327
 2086SOL    HW1 8032   1.219   9.075  14.412
 2086SOL    HW2 8033   1.252   9.087  14.265
 2087SOL     OW 8034   8.587   0.858   0.167
 2087SOL    HW1 8035   8.573   0.795   0.097
 2087SOL    HW2 8036   8.676   0.840   0.198
 2088SOL     OW 8037   6.852   6.265   4.686
 2088SOL    HW1 8038   6.800   6.322   4.631
 2088SOL    HW2 8039   6.893   6.203   4.626
 2089SOL     OW 8040   3.722  13.427   1.526
 2089SOL    HW1 8041   3.761  13.479   1.596
 2089SOL    HW2 8042   3.656  13.374   1.570
 2090SOL     OW 8043  10.826   2.904   1.011
 2090SOL    HW1 8044  10.825   2.825   1.065
 2090SOL    HW2 8045  10.756   2.892   0.947
 2091SOL     OW 8046   3.519   8.360  10.392
 2091SOL    HW1 8047   3.429   8.379  10.419
 2091SOL    HW2 8048   3.573   8.402  10.460
 2092SOL     OW 8049   5.348   4.093   3.765
 2092SOL    HW1 8050   5.344   4.008   3.808
 2092SOL    HW2 8051   5.441   4.107   3.747
 2093SOL     OW 8052  10.248  11.734  13.946
 2093SOL    HW1 8053  10.242  11.829  13.946
 2093SOL    HW2 8054  10.203  11.707  13.867
 2094SOL     OW 8055   0.089   0.185   8.757
 2094SOL    HW1 8056   0.059   0.143   8.676
 2094SOL    HW2 8057   0.009   0.215   8.800
 2095SOL     OW 8058   4.240   6.857   9.544
 2095SOL    HW1 8059   4.226   6.790   9.611
 2095SOL    HW2 8060   4.312   6.910   9.578
 2096SOL     OW 8061   7.810   8.000   4.371
 2096SOL    HW1 8062   7.729   7.964   4.407
 2096SOL    HW2 8063   7.834   8.069   4.433
 2097SOL     OW 8064  12.279  10.932  11.113
 2097SOL    HW1 8065  12.272  10.859  11.051
 2097SOL    HW2 8066  12.204  10.988  11.094
 2098SOL     OW 8067   8.937   6.931   1.998
 2098SOL    HW1 8068   8.852   6.889   2.011
 2098SOL    HW2 8069   8.923   7.023   2.023
 2099SOL     OW 8070  13.471   9.263   6.307
 2099SOL    HW1 8071  13.399   9.296   6.253
 2099SOL    HW2 8072  13.442   9.176   6.334
 2100SOL     OW 8073   0.410   5.467   0.545
 2100SOL    HW1 8074   0.453   5.389   0.510
 2100SOL    HW2 8075   0.317   5.444   0.548
 2101SOL     OW 8076   4.430   9.417   3.216
 2101SOL    HW1 8077   4.436   9.412   3.121
 2101SOL    HW2 8078   4.512   9.379   3.247
 2102SOL     OW 8079  11.820  12.861   0.480
 2102SOL    HW1 8080  11.903  12.822   0.452
 2102SOL    HW2 8081  11.766  12.862   0.400
 2103SOL     OW 8082   4.527  11.083  12.003
 2103SOL    HW1 8083   4.541  11.119  12.091
 2103SOL    HW2 8084   4.574  11.000  12.003
 2104SOL     OW 8085   5.383   9.677   7.658
 2104SOL    HW1 8086   5.462   9.624   7.672
 2104SOL    HW2 8087   5.314   9.629   7.704
 2105SOL     OW 8088  13.253   2.147   0.942
 2105SOL    HW1 8089  13.199   2.216   0.904
 2105SOL    HW2 8090  13.252   2.164   1.036
 2106SOL     OW 8091   1.817  12.457  12.036
 2106SOL    HW1 8092   1.853  12.373  12.065
 2106SOL    HW2 8093   1.833  12.516  12.109
 2107SOL     OW 8094  14.250   5.770  13.457
 2107SOL    HW1 8095  14.294   5.763  13.373
 2107SOL    HW2 8096  14.310   5.819  13.513
 2108SOL     OW 8097   1.287   6.682   4.456
 2108SOL    HW1 8098   1.366   6.667   4.405
 2108SOL    HW2 8099   1.282   6.607   4.515
 2109SOL     OW 8100   9.334   0.382  12.877
 2109SOL    HW1 8101   9.248   0.400  12.915
 2109SOL    HW2 8102   9.373   0.317  12.935
 2110SOL     OW 8103   9.712   2.149   8.869
 2110SOL    HW1 8104   9.718   2.243   8.850
 2110SOL    HW2 8105   9.631   2.140   8.919
 2111SOL     OW 8106  11.538   2.605   0.308
 2111SOL    HW1 8107  11.613   2.552   0.279
 2111SOL    HW2 8108  11.569   2.648   0.388
 2112SOL     OW 8109   3.667   9.606   9.013
 2112SOL    HW1 8110   3.689   9.518   9.043
 2112SOL    HW2 8111   3.741   9.660   9.040
 2113SOL     OW 8112   8.833   2.114  10.866
 2113SOL    HW1 8113   8.815   2.178  10.798
 2113SOL    HW2 8114   8.811   2.158  10.948
 2114SOL     OW 8115   4.046  13.533  14.369
 2114SOL    HW1 8116   4.118  13.514  14.429
 2114SOL    HW2 8117   4.004  13.448  14.354
 2115SOL     OW 8118  11.115   3.810   6.822
 2115SOL    HW1 8119  11.199   3.840   6.789
 2115SOL    HW2 8120  11.124   3.812   6.917
 2116SOL     OW 8121   0.328   5.593   8.827
 2116SOL    HW1 8122   0.284   5.516   8.861
 2116SOL    HW2 8123   0.259   5.659   8.820
 2117SOL     OW 8124  11.459   6.534  13.617
 2117SOL    HW1 8125  11.468   6.496  13.704
 2117SOL    HW2 8126  11.375   6.580  13.619
 2118SOL     OW 8127   9.509   7.862   8.185
 2118SOL    HW1 8128   9.498   7.951   8.219
 2118SOL    HW2 8129   9.491   7.805   8.260
 2119SOL     OW 8130   4.848   3.643   8.790
 2119SOL    HW1 8131   4.810   3.611   8.708
 2119SOL    HW2 8132   4.942   3.642   8.775
 2120SOL     OW 8133  12.820   4.630   9.521
 2120SOL    HW1 8134  12.801   4.557   9.581
 2120SOL    HW2 8135  12.742   4.637   9.466
 2121SOL     OW 8136   8.623   3.258   6.705
 2121SOL    HW1 8137   8.597   3.170   6.681
 2121SOL    HW2 8138   8.546   3.312   6.686
 2122SOL     OW 8139  11.509   1.228   4.340
 2122SOL    HW1 8140  11.556   1.153   4.377
 2122SOL    HW2 8141  11.498   1.287   4.414
 2123SOL     OW 8142   2.489   5.228   6.623
 2123SOL    HW1 8143   2.477   5.319   6.650
 2123SOL    HW2 8144   2.425   5.179   6.675
 2124SOL     OW 8145   6.628   3.434  12.613
 2124SOL    HW1 8146   6.663   3.445  12.524
 2124SOL    HW2 8147   6.626   3.522  12.649
 2125SOL     OW 8148   5.390   7.042   9.527
 2125SOL    HW1 8149   5.411   7.046   9.620
 2125SOL    HW2 8150   5.464   6.996   9.487
 2126SOL     OW 8151  10.356   1.289   4.953
 2126SOL    HW1 8152  10.313   1.356   4.900
 2126SOL    HW2 8153  10.304   1.210   4.940
 2127SOL     OW 8154   4.823  12.453   4.722
 2127SOL    HW1 8155   4.822  12.367   4.680
 2127SOL    HW2 8156   4.874  12.441   4.802
 2128SOL     OW 8157  12.180   5.144  10.014
 2128SOL    HW1 8158  12.171   5.226  10.063
 2128SOL    HW2 8159  12.107   5.090  10.044
 2129SOL     OW 8160  13.007  14.812  12.847
 2129SOL    HW1 8161  13.094  14.814  12.885
 2129SOL    HW2 8162  13.021  14.821  12.753
 2130SOL     OW 8163   4.778   7.785  11.177
 2130SOL    HW1 8164   4.834   7.860  11.156
 2130SOL    HW2 8165   4.752   7.799  11.268
 2131SOL     OW 8166   1.659  10.405   3.454
 2131SOL    HW1 8167   1.689  10.323   3.415
 2131SOL    HW2 8168   1.592  10.437   3.393
 2132SOL     OW 8169   7.234  10.312   3.389
 2132SOL    HW1 8170   7.192  10.272   3.313
 2132SOL    HW2 8171   7.317  10.346   3.355
 2133SOL     OW 8172   8.506   2.575   9.480
 2133SOL    HW1 8173   8.580   2.544   9.531
 2133SOL    HW2 8174   8.491   2.506   9.415
 2134SOL     OW 8175  14.224  11.035  12.917
 2134SOL    HW1 8176  14.280  11.063  12.989
 2134SOL    HW2 8177  14.283  11.032  12.841
 2135SOL     OW 8178  13.534  12.208   0.158
 2135SOL    HW1 8179  13.516  12.167   0.073
 2135SOL    HW2 8180  13.514  12.139   0.222
 2136SOL     OW 8181   7.673   5.607  10.976
 2136SOL    HW1 8182   7.764   5.578  10.985
 2136SOL    HW2 8183   7.628   5.531  10.940
 2137SOL     OW 8184   7.971   5.693  12.109
 2137SOL    HW1 8185   7.929   5.711  12.193
 2137SOL    HW2 8186   8.050   5.644  12.133
 2138SOL     OW 8187   9.295   6.522  13.869
 2138SOL    HW1 8188   9.254   6.498  13.786
 2138SOL    HW2 8189   9.226   6.566  13.918
 2139SOL     OW 8190  13.525  10.207  10.884
 2139SOL    HW1 8191  13.480  10.240  10.806
 2139SOL    HW2 8192  13.572  10.129  10.853
 2140SOL     OW 8193   0.712   1.976   3.798
 2140SOL    HW1 8194   0.774   1.906   3.821
 2140SOL    HW2 8195   0.634   1.956   3.849
 2141SOL     OW 8196   7.490   9.404  13.110
 2141SOL    HW1 8197   7.560   9.436  13.053
 2141SOL    HW2 8198   7.410   9.417  13.058
 2142SOL     OW 8199   2.866   1.050  12.700
 2142SOL    HW1 8200   2.864   1.011  12.613
 2142SOL    HW2 8201   2.959   1.071  12.714
 2143SOL     OW 8202   8.168   5.924   3.648
 2143SOL    HW1 8203   8.077   5.938   3.624
 2143SOL    HW2 8204   8.196   6.006   3.688
 2144SOL     OW 8205   9.530  11.778   5.491
 2144SOL    HW1 8206   9.566  11.791   5.578
 2144SOL    HW2 8207   9.532  11.865   5.451
 2145SOL     OW 8208   5.085   0.298   8.231
 2145SOL    HW1 8209   5.031   0.377   8.235
 2145SOL    HW2 8210   5.040   0.235   8.287
 2146SOL     OW 8211  10.308  11.140  13.921
 2146SOL    HW1 8212  10.270  11.054  13.904
 2146SOL    HW2 8213  10.279  11.194  13.847
 2147SOL     OW 8214  13.983  13.614   4.483
 2147SOL    HW1 8215  14.074  13.641   4.492
 2147SOL    HW2 8216  13.987  13.526   4.444
 2148SOL     OW 8217  11.365   6.393  10.283
 2148SOL    HW1 8218  11.274   6.396  10.254
 2148SOL    HW2 8219  11.366   6.442  10.365
 2149SOL     OW 8220  10.706   5.398   6.730
 2149SOL    HW1 8221  10.660   5.319   6.758
 2149SOL    HW2 8222  10.665   5.469   6.780
 2150SOL     OW 8223  12.682   4.508   5.158
 2150SOL    HW1 8224  12.747   4.440   5.143
 2150SOL    HW2 8225  12.653   4.495   5.248
 2151SOL     OW 8226   6.062   6.331   4.445
 2151SOL    HW1 8227   5.991   6.361   4.388
 2151SOL    HW2 8228   6.086   6.409   4.495
 2152SOL     OW 8229  11.524   1.708  13.926
 2152SOL    HW1 8230  11.588   1.755  13.980
 2152SOL    HW2 8231  11.574   1.635  13.888
 2153SOL     OW 8232  13.307   8.086  11.508
 2153SOL    HW1 8233  13.369   8.158  11.494
 2153SOL    HW2 8234  13.307   8.037  11.426
 2154SOL     OW 8235   6.795  12.983   8.494
 2154SOL    HW1 8236   6.838  12.945   8.571
 2154SOL    HW2 8237   6.772  12.907   8.440
 2155SOL     OW 8238   4.353   7.774   2.221
 2155SOL    HW1 8239   4.395   7.700   2.265
 2155SOL    HW2 8240   4.383   7.767   2.130
 2156SOL     OW 8241  11.686   2.674   9.697
 2156SOL    HW1 8242  11.748   2.630   9.755
 2156SOL    HW2 8243  11.668   2.609   9.629
 2157SOL     OW 8244   9.189  10.639  12.053
 2157SOL    HW1 8245   9.220  10.681  12.133
 2157SOL    HW2 8246   9.243  10.560  12.045
 2158SOL     OW 8247  12.337   2.452   2.140
 2158SOL    HW1 8248  12.256   2.502   2.136
 2158SOL    HW2 8249  12.342   2.408   2.056
 2159SOL     OW 8250   1.594   0.803   8.019
 2159SOL    HW1 8251   1.561   0.775   7.933
 2159SOL    HW2 8252   1.595   0.899   8.014
 2160SOL     OW 8253   6.088   1.264  11.930
 2160SOL    HW1 8254   6.183   1.263  11.924
 2160SOL    HW2 8255   6.070   1.269  12.024
 2161SOL     OW 8256   4.159   1.334   2.321
 2161SOL    HW1 8257   4.103   1.256   2.321
 2161SOL    HW2 8258   4.154   1.368   2.410
 2162SOL     OW 8259  13.036  12.321   3.449
 2162SOL    HW1 8260  13.085  12.304   3.368
 2162SOL    HW2 8261  13.006  12.412   3.440
 2163SOL     OW 8262   2.431  12.660   7.100
 2163SOL    HW1 8263   2.390  12.593   7.045
 2163SOL    HW2 8264   2.465  12.725   7.039
 2164SOL     OW 8265  11.789   5.843  12.403
 2164SOL    HW1 8266  11.877   5.856  12.439
 2164SOL    HW2 8267  11.797   5.869  12.311
 2165SOL     OW 8268  11.048  13.381   3.303
 2165SOL    HW1 8269  11.097  13.354   3.225
 2165SOL    HW2 8270  10.957  13.385   3.274
 2166SOL     OW 8271   1.005  11.659   0.952
 2166SOL    HW1 8272   1.021  11.571   0.916
 2166SOL    HW2 8273   0.965  11.642   1.037
 2167SOL     OW 8274  10.233   3.598   5.726
 2167SOL    HW1 8275  10.327   3.593   5.743
 2167SOL    HW2 8276  10.193   3.602   5.813
 2168SOL     OW 8277   2.954   0.626   6.333
 2168SOL    HW1 8278   2.876   0.673   6.305
 2168SOL    HW2 8279   3.013   0.631   6.259
 2169SOL     OW 8280   2.588   9.997   9.022
 2169SOL    HW1 8281   2.616  10.019   8.933
 2169SOL    HW2 8282   2.648   9.928   9.050
 2170SOL     OW 8283   4.780   4.468   9.640
 2170SOL    HW1 8284   4.745   4.522   9.712
 2170SOL    HW2 8285   4.846   4.523   9.599
 2171SOL     OW 8286   2.914  13.482   5.881
 2171SOL    HW1 8287   3.001  13.447   5.864
 2171SOL    HW2 8288   2.889  13.524   5.798
 2172SOL     OW 8289   1.698  10.447  13.431
 2172SOL    HW1 8290   1.695  10.433  13.337
 2172SOL    HW2 8291   1.634  10.386  13.467
 2173SOL     OW 8292   0.099   9.468   5.911
 2173SOL    HW1 8293   0.005   9.451   5.923
 2173SOL    HW2 8294   0.107   9.488   5.818
 2174SOL     OW 8295  14.446   4.094   2.843
 2174SOL    HW1 8296  14.514   4.145   2.800
 2174SOL    HW2 8297  14.439   4.133   2.931
 2175SOL     OW 8298   0.943   0.419   1.617
 2175SOL    HW1 8299   0.964   0.439   1.709
 2175SOL    HW2 8300   1.026   0.429   1.571
 2176SOL     OW 8301  14.364   0.520   6.564
 2176SOL    HW1 8302  14.435   0.567   6.521
 2176SOL    HW2 8303  14.402   0.488   6.646
 2177SOL     OW 8304  13.356   3.160   5.251
 2177SOL    HW1 8305  13.415   3.222   5.293
 2177SOL    HW2 8306  13.392   3.074   5.272
 2178SOL     OW 8307  12.297   7.501   6.811
 2178SOL    HW1 8308  12.267   7.550   6.734
 2178SOL    HW2 8309  12.365   7.556   6.849
 2179SOL     OW 8310   0.716  14.059  12.043
 2179SOL    HW1 8311   0.768  14.134  12.014
 2179SOL    HW2 8312   0.648  14.050  11.976
 2180SOL     OW 8313  10.282  14.427  10.561
 2180SOL    HW1 8314  10.271  14.501  10.502
 2180SOL    HW2 8315  10.360  14.449  10.613
 2181SOL     OW 8316   7.118  10.383   2.599
 2181SOL    HW1 8317   7.032  10.427   2.600
 2181SOL    HW2 8318   7.181  10.455   2.606
 2182SOL     OW 8319   1.247   8.668  13.788
 2182SOL    HW1 8320   1.236   8.719  13.868
 2182SOL    HW2 8321   1.286   8.729  13.726
 2183SOL     OW 8322  11.872  11.281   3.738
 2183SOL    HW1 8323  11.896  11.285   3.831
 2183SOL    HW2 8324  11.857  11.188   3.721
 2184SOL     OW 8325   5.656  12.506   7.556
 2184SOL    HW1 8326   5.610  12.562   7.494
 2184SOL    HW2 8327   5.661  12.421   7.512
 2185SOL     OW 8328  13.299   4.667   6.723
 2185SOL    HW1 8329  13.343   4.707   6.797
 2185SOL    HW2 8330  13.208   4.696   6.730
 2186SOL     OW 8331   8.171  10.903  13.796
 2186SOL    HW1 8332   8.240  10.940  13.741
 2186SOL    HW2 8333   8.212  10.828  13.840
 2187SOL     OW 8334  14.297   2.167  14.456
 2187SOL    HW1 8335  14.330   2.209  14.536
 2187SOL    HW2 8336  14.254   2.238  14.408
 2188SOL     OW 8337   3.349   9.652   4.592
 2188SOL    HW1 8338   3.262   9.632   4.625
 2188SOL    HW2 8339   3.347   9.747   4.576
 2189SOL     OW 8340  12.750   7.667   2.245
 2189SOL    HW1 8341  12.839   7.636   2.224
 2189SOL    HW2 8342  12.699   7.647   2.167
 2190SOL     OW 8343  14.790   6.305  11.614
 2190SOL    HW1 8344  14.701   6.318  11.582
 2190SOL    HW2 8345  14.844   6.306  11.535
 2191SOL     OW 8346   3.521   3.184   9.436
 2191SOL    HW1 8347   3.576   3.146   9.368
 2191SOL    HW2 8348   3.551   3.144   9.517
 2192SOL     OW 8349   2.268   1.904   2.562
 2192SOL    HW1 8350   2.201   1.955   2.609
 2192SOL    HW2 8351   2.349   1.924   2.607
 2193SOL     OW 8352   3.456  11.869  10.563
 2193SOL    HW1 8353   3.535  11.853  10.510
 2193SOL    HW2 8354   3.406  11.788  10.556
 2194SOL     OW 8355  12.633  11.064   1.145
 2194SOL    HW1 8356  12.648  11.142   1.197
 2194SOL    HW2 8357  12.621  11.096   1.055
 2195SOL     OW 8358   6.049  11.833  12.338
 2195SOL    HW1 8359   5.991  11.794  12.273
 2195SOL    HW2 8360   6.011  11.919  12.357
 2196SOL     OW 8361   1.914  10.463   5.183
 2196SOL    HW1 8362   2.003  10.446   5.150
 2196SOL    HW2 8363   1.927  10.527   5.253
 2197SOL     OW 8364   6.005   7.886   2.378
 2197SOL    HW1 8365   5.922   7.906   2.422
 2197SOL    HW2 8366   6.065   7.864   2.449
 2198SOL     OW 8367   6.344   6.853   0.679
 2198SOL    HW1 8368   6.376   6.797   0.608
 2198SOL    HW2 8369   6.278   6.909   0.637
 2199SOL     OW 8370   9.127   3.955   8.982
 2199SOL    HW1 8371   9.105   3.871   9.023
 2199SOL    HW2 8372   9.189   3.995   9.043
 2200SOL     OW 8373  11.333  11.589  12.859
 2200SOL    HW1 8374  11.311  11.679  12.884
 2200SOL    HW2 8375  11.390  11.558  12.930
 2201SOL     OW 8376   3.529   6.406   9.365
 2201SOL    HW1 8377   3.622   6.429   9.362
 2201SOL    HW2 8378   3.520   6.350   9.442
 2202SOL     OW 8379  14.391   9.321   2.031
 2202SOL    HW1 8380  14.313   9.266   2.036
 2202SOL    HW2 8381  14.420   9.312   1.940
 2203SOL     OW 8382   6.293   4.075  13.411
 2203SOL    HW1 8383   6.217   4.123  13.377
 2203SOL    HW2 8384   6.341   4.139  13.463
 2204SOL     OW 8385   9.146   0.697  12.513
 2204SOL    HW1 8386   9.227   0.692  12.563
 2204SOL    HW2 8387   9.089   0.630  12.552
 2205SOL     OW 8388  10.994   7.184   2.863
 2205SOL    HW1 8389  10.916   7.222   2.905
 2205SOL    HW2 8390  11.042   7.260   2.829
 2206SOL     OW 8391  13.808   9.742   5.778
 2206SOL    HW1 8392  13.814   9.835   5.757
 2206SOL    HW2 8393  13.798   9.700   5.693
 2207SOL     OW 8394   6.105   7.344   9.041
 2207SOL    HW1 8395   6.011   7.333   9.024
 2207SOL    HW2 8396   6.112   7.345   9.136
 2208SOL     OW 8397  14.811  13.606  12.532
 2208SOL    HW1 8398  14.798  13.553  12.453
 2208SOL    HW2 8399  14.793  13.545  12.604
 2209SOL     OW 8400   2.570  11.030   4.574
 2209SOL    HW1 8401   2.516  11.024   4.653
 2209SOL    HW2 8402   2.657  11.001   4.603
 2210SOL     OW 8403  10.723  10.505  10.978
 2210SOL    HW1 8404  10.639  10.460  10.978
 2210SOL    HW2 8405  10.757  10.492  11.067
 2211SOL     OW 8406  12.940  12.775   4.545
 2211SOL    HW1 8407  12.970  12.754   4.457
 2211SOL    HW2 8408  12.847  12.794   4.534
 2212SOL     OW 8409   5.699  12.287   2.421
 2212SOL    HW1 8410   5.659  12.320   2.502
 2212SOL    HW2 8411   5.763  12.353   2.397
 2213SOL     OW 8412  12.497   6.697  13.131
 2213SOL    HW1 8413  12.468   6.778  13.172
 2213SOL    HW2 8414  12.586   6.685  13.164
 2214SOL     OW 8415  13.215   6.627   9.233
 2214SOL    HW1 8416  13.165   6.631   9.314
 2214SOL    HW2 8417  13.213   6.535   9.208
 2215SOL     OW 8418   4.965  14.796  11.869
 2215SOL    HW1 8419   5.029  14.831  11.930
 2215SOL    HW2 8420   4.969  14.854  11.794
 2216SOL     OW 8421   8.847   1.208  13.815
 2216SOL    HW1 8422   8.830   1.118  13.788
 2216SOL    HW2 8423   8.821   1.261  13.739
 2217SOL     OW 8424   1.272   3.504   6.821
 2217SOL    HW1 8425   1.295   3.411   6.831
 2217SOL    HW2 8426   1.353   3.545   6.792
 2218SOL     OW 8427   6.206   7.582   7.119
 2218SOL    HW1 8428   6.254   7.535   7.051
 2218SOL    HW2 8429   6.147   7.516   7.156
 2219SOL     OW 8430  10.494   5.747  10.946
 2219SOL    HW1 8431  10.473   5.654  10.942
 2219SOL    HW2 8432  10.471   5.781  10.859
 2220SOL     OW 8433  11.165  13.567  12.605
 2220SOL    HW1 8434  11.219  13.489  12.618
 2220SOL    HW2 8435  11.187  13.597  12.517
 2221SOL     OW 8436   5.730  11.036   6.877
 2221SOL    HW1 8437   5.667  11.054   6.948
 2221SOL    HW2 8438   5.680  11.053   6.797
 2222SOL     OW 8439   3.101   8.514  13.485
 2222SOL    HW1 8440   3.077   8.429  13.448
 2222SOL    HW2 8441   3.151   8.492  13.564
 2223SOL     OW 8442   9.420   4.804   3.169
 2223SOL    HW1 8443   9.445   4.881   3.118
 2223SOL    HW2 8444   9.425   4.833   3.260
 2224SOL     OW 8445   2.530   3.989   9.743
 2224SOL    HW1 8446   2.622   3.985   9.770
 2224SOL    HW2 8447   2.521   3.916   9.682
 2225SOL     OW 8448  12.634  12.810   4.172
 2225SOL    HW1 8449  12.728  12.828   4.173
 2225SOL    HW2 8450  12.628  12.720   4.140
 2226SOL     OW 8451   4.893   5.089   6.794
 2226SOL    HW1 8452   4.943   5.156   6.840
 2226SOL    HW2 8453   4.813   5.134   6.766
 2227SOL     OW 8454  14.526  14.171   3.575
 2227SOL    HW1 8455  14.525  14.102   3.509
 2227SOL    HW2 8456  14.615  14.169   3.611
 2228SOL     OW 8457  14.151   8.379  13.512
 2228SOL    HW1 8458  14.213   8.445  13.482
 2228SOL    HW2 8459  14.154   8.310  13.446
 2229SOL     OW 8460   4.974  14.308   5.131
 2229SOL    HW1 8461   5.055  14.307   5.180
 2229SOL    HW2 8462   4.914  14.362   5.183
 2230SOL     OW 8463  11.963   0.161   5.413
 2230SOL    HW1 8464  11.930   0.076   5.382
 2230SOL    HW2 8465  11.933   0.223   5.347
 2231SOL     OW 8466   8.188   3.958  11.076
 2231SOL    HW1 8467   8.168   3.980  10.984
 2231SOL    HW2 8468   8.170   3.864  11.082
 2232SOL     OW 8469   6.593  11.362   6.609
 2232SOL    HW1 8470   6.573  11.271   6.630
 2232SOL    HW2 8471   6.689  11.367   6.609
 2233SOL     OW 8472  10.602   8.716   1.583
 2233SOL    HW1 8473  10.513   8.686   1.562
 2233SOL    HW2 8474  10.656   8.683   1.512
 2234SOL     OW 8475  12.712   1.114  14.184
 2234SOL    HW1 8476  12.674   1.112  14.272
 2234SOL    HW2 8477  12.739   1.205  14.171
 2235SOL     OW 8478  10.546   4.977   0.094
 2235SOL    HW1 8479  10.518   4.890   0.123
 2235SOL    HW2 8480  10.466   5.018   0.062
 2236SOL     OW 8481  13.545   2.219   2.911
 2236SOL    HW1 8482  13.514   2.160   2.980
 2236SOL    HW2 8483  13.637   2.236   2.935
 2237SOL     OW 8484  12.754  13.293  12.522
 2237SOL    HW1 8485  12.684  13.250  12.473
 2237SOL    HW2 8486  12.732  13.275  12.614
 2238SOL     OW 8487  12.840  11.265   6.785
 2238SOL    HW1 8488  12.755  11.309   6.785
 2238SOL    HW2 8489  12.904  11.334   6.803
 2239SOL     OW 8490   5.356  12.152   0.552
 2239SOL    HW1 8491   5.399  12.125   0.633
 2239SOL    HW2 8492   5.373  12.246   0.546
 2240SOL     OW 8493   2.136   2.985  12.394
 2240SOL    HW1 8494   2.223   3.004  12.359
 2240SOL    HW2 8495   2.107   3.067  12.434
 2241SOL     OW 8496   3.253   0.919  11.600
 2241SOL    HW1 8497   3.218   0.889  11.516
 2241SOL    HW2 8498   3.233   1.012  11.603
 2242SOL     OW 8499   9.290  11.529  10.422
 2242SOL    HW1 8500   9.325  11.617  10.429
 2242SOL    HW2 8501   9.367  11.472  10.423
 2243SOL     OW 8502  12.207  14.123  13.578
 2243SOL    HW1 8503  12.242  14.121  13.667
 2243SOL    HW2 8504  12.237  14.041  13.538
 2244SOL     OW 8505   4.458  11.616   4.448
 2244SOL    HW1 8506   4.538  11.668   4.456
 2244SOL    HW2 8507   4.470  11.565   4.368
 2245SOL     OW 8508   4.820  10.246   1.818
 2245SOL    HW1 8509   4.740  10.266   1.770
 2245SOL    HW2 8510   4.808  10.288   1.903
 2246SOL     OW 8511  14.330   4.019   9.967
 2246SOL    HW1 8512  14.247   4.024  10.016
 2246SOL    HW2 8513  14.366   3.934   9.991
 2247SOL     OW 8514   0.228   5.837   3.949
 2247SOL    HW1 8515   0.302   5.836   3.889
 2247SOL    HW2 8516   0.171   5.766   3.918
 2248SOL     OW 8517   9.721   4.972   7.417
 2248SOL    HW1 8518   9.704   4.899   7.476
 2248SOL    HW2 8519   9.809   4.956   7.384
 2249SOL     OW 8520  12.284   6.827   1.144
 2249SOL    HW1 8521  12.279   6.793   1.055
 2249SOL    HW2 8522  12.348   6.771   1.187
 2250SOL     OW 8523   9.117  10.756   4.081
 2250SOL    HW1 8524   9.166  10.837   4.097
 2250SOL    HW2 8525   9.076  10.769   3.995
 2251SOL     OW 8526  10.824  11.332   4.390
 2251SOL    HW1 8527  10.867  11.364   4.469
 2251SOL    HW2 8528  10.882  11.263   4.357
 2252SOL     OW 8529   8.315   1.607  12.889
 2252SOL    HW1 8530   8.267   1.658  12.823
 2252SOL    HW2 8531   8.319   1.518  12.852
 2253SOL     OW 8532  10.902   4.834   8.589
 2253SOL    HW1 8533  10.995   4.821   8.607
 2253SOL    HW2 8534  10.861   4.836   8.675
 2254SOL     OW 8535   0.450  14.458  11.574
 2254SOL    HW1 8536   0.376  14.486  11.521
 2254SOL    HW2 8537   0.489  14.539  11.605
 2255SOL     OW 8538  14.552   6.567   7.639
 2255SOL    HW1 8539  14.562   6.481   7.680
 2255SOL    HW2 8540  14.639   6.585   7.602
 2256SOL     OW 8541   1.243   3.612   6.339
 2256SOL    HW1 8542   1.230   3.676   6.409
 2256SOL    HW2 8543   1.220   3.528   6.378
 2257SOL     OW 8544  10.211  10.490   2.031
 2257SOL    HW1 8545  10.197  10.567   2.086
 2257SOL    HW2 8546  10.306  10.480   2.028
 2258SOL     OW 8547   8.059   8.200   1.901
 2258SOL    HW1 8548   8.007   8.267   1.856
 2258SOL    HW2 8549   8.137   8.191   1.847
 2259SOL     OW 8550   8.396   9.997  14.740
 2259SOL    HW1 8551   8.307   9.961  14.743
 2259SOL    HW2 8552   8.402  10.038  14.654
 2260SOL     OW 8553   5.115   2.008  13.682
 2260SOL    HW1 8554   5.102   1.967  13.597
 2260SOL    HW2 8555   5.091   1.941  13.745
 2261SOL     OW 8556  10.556   0.360   1.050
 2261SOL    HW1 8557  10.466   0.329   1.059
 2261SOL    HW2 8558  10.568   0.371   0.956
 2262SOL     OW 8559   6.624   4.193  10.032
 2262SOL    HW1 8560   6.677   4.165  10.107
 2262SOL    HW2 8561   6.688   4.221   9.967
 2263SOL     OW 8562   7.015   4.618   6.443
 2263SOL    HW1 8563   6.941   4.576   6.488
 2263SOL    HW2 8564   7.058   4.547   6.397
 2264SOL     OW 8565   9.892  11.335   6.654
 2264SOL    HW1 8566   9.889  11.330   6.559
 2264SOL    HW2 8567   9.805  11.363   6.680
 2265SOL     OW 8568  11.468  12.268  11.362
 2265SOL    HW1 8569  11.461  12.306  11.449
 2265SOL    HW2 8570  11.379  12.242  11.339
 2266SOL     OW 8571   3.658   2.695   9.071
 2266SOL    HW1 8572   3.679   2.704   9.163
 2266SOL    HW2 8573   3.633   2.783   9.043
 2267SOL     OW 8574  14.374   4.043   2.099
 2267SOL    HW1 8575  14.407   3.979   2.036
 2267SOL    HW2 8576  14.437   4.115   2.094
 2268SOL     OW 8577   1.302  10.209   7.454
 2268SOL    HW1 8578   1.269  10.223   7.542
 2268SOL    HW2 8579   1.226  10.220   7.397
 2269SOL     OW 8580   2.293  14.461   5.788
 2269SOL    HW1 8581   2.252  14.546   5.799
 2269SOL    HW2 8582   2.246  14.421   5.715
 2270SOL     OW 8583   1.536   6.428   6.121
 2270SOL    HW1 8584   1.522   6.522   6.132
 2270SOL    HW2 8585   1.558   6.396   6.209
 2271SOL     OW 8586  11.622   8.761  14.649
 2271SOL    HW1 8587  11.684   8.809  14.594
 2271SOL    HW2 8588  11.636   8.669  14.627
 2272SOL     OW 8589   2.730   6.513  10.596
 2272SOL    HW1 8590   2.657   6.564  10.561
 2272SOL    HW2 8591   2.699   6.422  10.592
 2273SOL     OW 8592  10.471  11.237   6.897
 2273SOL    HW1 8593  10.474  11.181   6.975
 2273SOL    HW2 8594  10.520  11.189   6.831
 2274SOL     OW 8595  14.035   2.691   1.725
 2274SOL    HW1 8596  13.968   2.631   1.756
 2274SOL    HW2 8597  14.118   2.649   1.748
 2275SOL     OW 8598  11.277  10.042  14.615
 2275SOL    HW1 8599  11.257  10.037  14.521
 2275SOL    HW2 8600  11.219  10.111  14.648
 2276SOL     OW 8601  14.809   1.855   1.171
 2276SOL    HW1 8602  14.773   1.768   1.186
 2276SOL    HW2 8603  14.822   1.861   1.076
 2277SOL     OW 8604   0.808   3.900   0.888
 2277SOL    HW1 8605   0.891   3.860   0.910
 2277SOL    HW2 8606   0.763   3.834   0.835
 2278SOL     OW 8607   3.747   0.382  10.598
 2278SOL    HW1 8608   3.785   0.317  10.538
 2278SOL    HW2 8609   3.671   0.416  10.550
 2279SOL     OW 8610   5.194   4.483   5.901
 2279SOL    HW1 8611   5.235   4.486   5.987
 2279SOL    HW2 8612   5.257   4.439   5.845
 2280SOL     OW 8613  10.468   4.233   5.007
 2280SOL    HW1 8614  10.403   4.301   4.987
 2280SOL    HW2 8615  10.459   4.170   4.935
 2281SOL     OW 8616   8.332   1.389  10.123
 2281SOL    HW1 8617   8.382   1.429  10.052
 2281SOL    HW2 8618   8.240   1.396  10.095
 2282SOL     OW 8619   2.334   6.935  11.953
 2282SOL    HW1 8620   2.275   6.918  11.880
 2282SOL    HW2 8621   2.418   6.897  11.926
 2283SOL     OW 8622   5.319  13.233   7.860
 2283SOL    HW1 8623   5.312  13.186   7.778
 2283SOL    HW2 8624   5.393  13.192   7.905
 2284SOL     OW 8625   8.794  14.489   1.086
 2284SOL    HW1 8626   8.783  14.583   1.097
 2284SOL    HW2 8627   8.711  14.451   1.117
 2285SOL     OW 8628  11.892   6.633   5.928
 2285SOL    HW1 8629  11.878   6.724   5.956
 2285SOL    HW2 8630  11.910   6.639   5.834
 2286SOL     OW 8631   9.955   9.990   9.643
 2286SOL    HW1 8632   9.906   9.980   9.561
 2286SOL    HW2 8633   9.909  10.059   9.690
 2287SOL     OW 8634   4.537   1.002  13.880
 2287SOL    HW1 8635   4.581   0.942  13.941
 2287SOL    HW2 8636   4.460   0.954  13.850
 2288SOL     OW 8637   2.520  11.938   3.498
 2288SOL    HW1 8638   2.603  11.911   3.537
 2288SOL    HW2 8639   2.479  11.856   3.471
 2289SOL     OW 8640   9.124   2.862   4.253
 2289SOL    HW1 8641   9.099   2.790   4.312
 2289SOL    HW2 8642   9.146   2.819   4.171
 2290SOL     OW 8643   8.092   0.173   1.936
 2290SOL    HW1 8644   8.107   0.119   1.858
 2290SOL    HW2 8645   8.145   0.132   2.004
 2291SOL     OW 8646   6.079  11.313   0.959
 2291SOL    HW1 8647   6.037  11.237   0.920
 2291SOL    HW2 8648   6.008  11.376   0.971
 2292SOL     OW 8649  14.475   5.745   8.684
 2292SOL    HW1 8650  14.554   5.694   8.666
 2292SOL    HW2 8651  14.454   5.787   8.600
 2293SOL     OW 8652   8.470  10.778   8.524
 2293SOL    HW1 8653   8.475  10.793   8.430
 2293SOL    HW2 8654   8.551  10.816   8.559
 2294SOL     OW 8655   9.711   4.122   2.112
 2294SOL    HW1 8656   9.763   4.064   2.168
 2294SOL    HW2 8657   9.669   4.063   2.050
 2295SOL     OW 8658   8.014   3.423  12.600
 2295SOL    HW1 8659   8.010   3.333  12.632
 2295SOL    HW2 8660   7.956   3.472  12.657
 2296SOL     OW 8661   1.079   7.108  13.181
 2296SOL    HW1 8662   1.037   7.190  13.154
 2296SOL    HW2 8663   1.088   7.058  13.100
 2297SOL     OW 8664   8.358   4.321   8.292
 2297SOL    HW1 8665   8.386   4.375   8.365
 2297SOL    HW2 8666   8.357   4.232   8.327
 2298SOL     OW 8667   7.014   8.428   2.370
 2298SOL    HW1 8668   7.020   8.379   2.288
 2298SOL    HW2 8669   7.104   8.436   2.400
 2299SOL     OW 8670   6.788   1.517   8.664
 2299SOL    HW1 8671   6.789   1.588   8.728
 2299SOL    HW2 8672   6.696   1.508   8.640
 2300SOL     OW 8673   8.603  10.119   3.022
 2300SOL    HW1 8674   8.598  10.148   3.113
 2300SOL    HW2 8675   8.692  10.143   2.995
 2301SOL     OW 8676   7.501   4.131   0.031
 2301SOL    HW1 8677   7.509   4.223   0.007
 2301SOL    HW2 8678   7.418   4.125   0.077
 2302SOL     OW 8679  13.108   8.321   3.217
 2302SOL    HW1 8680  13.134   8.229   3.229
 2302SOL    HW2 8681  13.137   8.365   3.297
 2303SOL     OW 8682   4.291   4.661   3.021
 2303SOL    HW1 8683   4.349   4.607   2.967
 2303SOL    HW2 8684   4.251   4.722   2.958
 2304SOL     OW 8685   2.569  12.214   6.512
 2304SOL    HW1 8686   2.582  12.125   6.546
 2304SOL    HW2 8687   2.531  12.201   6.426
 2305SOL     OW 8688  10.177   5.428   1.655
 2305SOL    HW1 8689  10.111   5.368   1.621
 2305SOL    HW2 8690  10.260   5.393   1.624
 2306SOL     OW 8691   0.931   6.852  12.846
 2306SOL    HW1 8692   0.984   6.801  12.785
 2306SOL    HW2 8693   0.905   6.790  12.913
 2307SOL     OW 8694   0.616   5.198  14.824
 2307SOL    HW1 8695   0.603   5.282  14.869
 2307SOL    HW2 8696   0.574   5.210  14.739
 2308SOL     OW 8697   9.996   0.314  13.094
 2308SOL    HW1 8698  10.071   0.350  13.047
 2308SOL    HW2 8699   9.925   0.313  13.029
 2309SOL     OW 8700   4.582  10.942   3.732
 2309SOL    HW1 8701   4.576  11.025   3.686
 2309SOL    HW2 8702   4.670  10.943   3.771
 2310SOL     OW 8703  12.827  12.606   4.296
 2310SOL    HW1 8704  12.756  12.585   4.235
 2310SOL    HW2 8705  12.906  12.569   4.255
 2311SOL     OW 8706   4.868   6.207  13.847
 2311SOL    HW1 8707   4.952   6.209  13.893
 2311SOL    HW2 8708   4.875   6.135  13.785
 2312SOL     OW 8709  12.692  14.121   3.617
 2312SOL    HW1 8710  12.624  14.157   3.559
 2312SOL    HW2 8711  12.691  14.179   3.693
 2313SOL     OW 8712   2.202   4.988   8.994
 2313SOL    HW1 8713   2.292   5.018   8.999
 2313SOL    HW2 8714   2.166   5.032   8.916
 2314SOL     OW 8715   5.213  12.177   3.962
 2314SOL    HW1 8716   5.216  12.093   3.916
 2314SOL    HW2 8717   5.130  12.216   3.935
 2315SOL     OW 8718  14.453  11.235  10.064
 2315SOL    HW1 8719  14.435  11.276   9.979
 2315SOL    HW2 8720  14.548  11.240  10.074
 2316SOL     OW 8721  12.988  13.142   3.835
 2316SOL    HW1 8722  12.991  13.182   3.922
 2316SOL    HW2 8723  12.895  13.133   3.816
 2317SOL     OW 8724  10.525   8.821   9.985
 2317SOL    HW1 8725  10.574   8.744  10.012
 2317SOL    HW2 8726  10.566   8.849   9.903
 2318SOL     OW 8727  12.717   6.616   9.316
 2318SOL    HW1 8728  12.690   6.573   9.398
 2318SOL    HW2 8729  12.701   6.550   9.249
 2319SOL     OW 8730   5.878   4.171   6.143
 2319SOL    HW1 8731   5.861   4.122   6.224
 2319SOL    HW2 8732   5.835   4.121   6.075
 2320SOL     OW 8733   9.701  13.988   1.968
 2320SOL    HW1 8734   9.635  14.052   1.941
 2320SOL    HW2 8735   9.683  13.972   2.061
 2321SOL     OW 8736  10.072   8.201   2.826
 2321SOL    HW1 8737  10.100   8.127   2.772
 2321SOL    HW2 8738  10.071   8.167   2.915
 2322SOL     OW 8739   4.204   7.146   4.067
 2322SOL    HW1 8740   4.150   7.069   4.081
 2322SOL    HW2 8741   4.283   7.113   4.024
 2323SOL     OW 8742   7.127   2.298   5.846
 2323SOL    HW1 8743   7.154   2.304   5.937
 2323SOL    HW2 8744   7.175   2.369   5.802
 2324SOL     OW 8745   3.764  13.448  11.628
 2324SOL    HW1 8746   3.675  13.446  11.663
 2324SOL    HW2 8747   3.753  13.433  11.534
 2325SOL     OW 8748  12.519   7.228   5.890
 2325SOL    HW1 8749  12.455   7.233   5.819
 2325SOL    HW2 8750  12.550   7.137   5.888
 2326SOL     OW 8751   2.429  14.264   2.515
 2326SOL    HW1 8752   2.468  14.347   2.545
 2326SOL    HW2 8753   2.465  14.251   2.428
 2327SOL     OW 8754   1.287   1.598   6.611
 2327SOL    HW1 8755   1.303   1.505   6.629
 2327SOL    HW2 8756   1.217   1.597   6.545
 2328SOL     OW 8757   2.201   1.785   1.298
 2328SOL    HW1 8758   2.125   1.729   1.284
 2328SOL    HW2 8759   2.194   1.852   1.230
 2329SOL     OW 8760   3.623   5.174   7.002
 2329SOL    HW1 8761   3.673   5.171   6.921
 2329SOL    HW2 8762   3.577   5.258   7.000
 2330SOL     OW 8763   3.452   5.475   6.160
 2330SOL    HW1 8764   3.463   5.559   6.116
 2330SOL    HW2 8765   3.358   5.455   6.151
 2331SOL     OW 8766  13.237  14.683   9.850
 2331SOL    HW1 8767  13.188  14.717   9.925
 2331SOL    HW2 8768  13.316  14.645   9.888
 2332SOL     OW 8769  11.429   2.216   9.268
 2332SOL    HW1 8770  11.426   2.291   9.208
 2332SOL    HW2 8771  11.353   2.227   9.325
 2333SOL     OW 8772   5.632   7.386   1.406
 2333SOL    HW1 8773   5.676   7.471   1.407
 2333SOL    HW2 8774   5.539   7.408   1.407
 2334SOL     OW 8775   3.224   2.763  12.022
 2334SOL    HW1 8776   3.253   2.778  11.932
 2334SOL    HW2 8777   3.193   2.849  12.052
 2335SOL     OW 8778   1.877   0.884   5.073
 2335SOL    HW1 8779   1.962   0.926   5.085
 2335SOL    HW2 8780   1.855   0.900   4.982
 2336SOL     OW 8781   6.005  11.649  10.276
 2336SOL    HW1 8782   5.963  11.566  10.296
 2336SOL    HW2 8783   5.964  11.712  10.335
 2337SOL     OW 8784  12.557   9.260   3.194
 2337SOL    HW1 8785  12.565   9.218   3.108
 2337SOL    HW2 8786  12.488   9.210   3.238
 2338SOL     OW 8787  10.848   0.422  12.234
 2338SOL    HW1 8788  10.818   0.342  12.190
 2338SOL    HW2 8789  10.770   0.477  12.240
 2339SOL     OW 8790   5.884  11.390   9.012
 2339SOL    HW1 8791   5.853  11.440   9.088
 2339SOL    HW2 8792   5.964  11.347   9.042
 2340SOL     OW 8793   0.077  11.053   9.119
 2340SOL    HW1 8794   0.124  11.116   9.064
 2340SOL    HW2 8795   0.087  11.086   9.208
 2341SOL     OW 8796   8.877   5.308   0.006
 2341SOL    HW1 8797   8.814   5.252   0.050
 2341SOL    HW2 8798   8.825   5.379  14.851
 2342SOL     OW 8799   8.271   9.711   7.014
 2342SOL    HW1 8800   8.310   9.635   6.971
 2342SOL    HW2 8801   8.185   9.721   6.971
 2343SOL     OW 8802  10.471  12.973  12.200
 2343SOL    HW1 8803  10.447  12.884  12.223
 2343SOL    HW2 8804  10.528  12.963  12.123
 2344SOL     OW 8805   2.793  11.321  11.945
 2344SOL    HW1 8806   2.854  11.259  11.905
 2344SOL    HW2 8807   2.793  11.298  12.038
 2345SOL     OW 8808   4.607  13.940   6.090
 2345SOL    HW1 8809   4.695  13.906   6.077
 2345SOL    HW2 8810   4.551  13.884   6.037
 2346SOL     OW 8811  10.596   5.149   8.665
 2346SOL    HW1 8812  10.647   5.134   8.745
 2346SOL    HW2 8813  10.518   5.196   8.694
 2347SOL     OW 8814  12.573   8.702  14.792
 2347SOL    HW1 8815  12.522   8.648  14.731
 2347SOL    HW2 8816  12.515   8.775  14.813
 2348SOL     OW 8817  11.287   2.755  12.137
 2348SOL    HW1 8818  11.320   2.687  12.078
 2348SOL    HW2 8819  11.287   2.835  12.085
 2349SOL     OW 8820   1.326   2.950  12.983
 2349SOL    HW1 8821   1.235   2.979  12.987
 2349SOL    HW2 8822   1.376   3.029  12.966
 2350SOL     OW 8823  14.545  12.416   8.782
 2350SOL    HW1 8824  14.476  12.477   8.758
 2350SOL    HW2 8825  14.594  12.402   8.702
 2351SOL     OW 8826   0.518   1.139   5.157
 2351SOL    HW1 8827   0.593   1.107   5.208
 2351SOL    HW2 8828   0.522   1.087   5.076
 2352SOL     OW 8829  14.524   0.991   8.069
 2352SOL    HW1 8830  14.456   0.938   8.028
 2352SOL    HW2 8831  14.564   1.039   7.995
 2353SOL     OW 8832  11.654   3.300   0.859
 2353SOL    HW1 8833  11.670   3.226   0.801
 2353SOL    HW2 8834  11.648   3.262   0.946
 2354SOL     OW 8835  11.230   0.048  12.450
 2354SOL    HW1 8836  11.196   0.131  12.416
 2354SOL    HW2 8837  11.324   0.050  12.429
 2355SOL     OW 8838  11.876   6.877   7.414
 2355SOL    HW1 8839  11.937   6.870   7.340
 2355SOL    HW2 8840  11.836   6.964   7.404
 2356SOL     OW 8841  13.724   0.573   5.692
 2356SOL    HW1 8842  13.748   0.656   5.733
 2356SOL    HW2 8843  13.669   0.529   5.758
 2357SOL     OW 8844   8.587   1.099  13.331
 2357SOL    HW1 8845   8.499   1.111  13.368
 2357SOL    HW2 8846   8.571   1.071  13.241
 2358SOL     OW 8847  14.613  13.258   2.168
 2358SOL    HW1 8848  14.597  13.239   2.260
 2358SOL    HW2 8849  14.597  13.176   2.123
 2359SOL     OW 8850   0.718   7.381   6.508
 2359SOL    HW1 8851   0.753   7.433   6.581
 2359SOL    HW2 8852   0.678   7.305   6.550
 2360SOL     OW 8853   5.898   6.022  12.015
 2360SOL    HW1 8854   5.860   6.107  12.037
 2360SOL    HW2 8855   5.838   5.986  11.950
 2361SOL     OW 8856   4.599   7.850  12.719
 2361SOL    HW1 8857   4.553   7.792  12.780
 2361SOL    HW2 8858   4.533   7.876  12.656
 2362SOL     OW 8859   1.021  11.969   5.100
 2362SOL    HW1 8860   1.011  11.876   5.121
 2362SOL    HW2 8861   1.017  11.973   5.005
 2363SOL     OW 8862  11.859   3.198  10.025
 2363SOL    HW1 8863  11.820   3.275  10.067
 2363SOL    HW2 8864  11.879   3.139  10.098
 2364SOL     OW 8865   5.906   8.803   2.162
 2364SOL    HW1 8866   5.961   8.737   2.121
 2364SOL    HW2 8867   5.828   8.808   2.107
 2365SOL     OW 8868   4.515  11.597   1.653
 2365SOL    HW1 8869   4.459  11.593   1.575
 2365SOL    HW2 8870   4.494  11.682   1.693
 2366SOL     OW 8871   0.813   9.999   4.060
 2366SOL    HW1 8872   0.878  10.043   4.115
 2366SOL    HW2 8873   0.745  10.065   4.047
 2367SOL     OW 8874   0.114  10.764   9.540
 2367SOL    HW1 8875   0.109  10.775   9.635
 2367SOL    HW2 8876   0.032  10.721   9.517
 2368SOL     OW 8877   9.627   2.946  13.959
 2368SOL    HW1 8878   9.683   2.997  13.901
 2368SOL    HW2 8879   9.567   2.900  13.900
 2369SOL     OW 8880  10.187  10.314  13.641
 2369SOL    HW1 8881  10.129  10.377  13.685
 2369SOL    HW2 8882  10.245  10.368  13.588
 2370SOL     OW 8883   5.719   4.181   7.119
 2370SOL    HW1 8884   5.761   4.098   7.142
 2370SOL    HW2 8885   5.675   4.208   7.199
 2371SOL     OW 8886   2.386  10.703   1.121
 2371SOL    HW1 8887   2.351  10.761   1.053
 2371SOL    HW2 8888   2.308  10.674   1.169
 2372SOL     OW 8889   3.857  10.926   4.844
 2372SOL    HW1 8890   3.909  10.887   4.773
 2372SOL    HW2 8891   3.907  10.906   4.923
 2373SOL     OW 8892   4.537   5.548   4.703
 2373SOL    HW1 8893   4.581   5.506   4.777
 2373SOL    HW2 8894   4.605   5.601   4.662
 2374SOL     OW 8895   0.926  12.209   6.029
 2374SOL    HW1 8896   0.928  12.293   5.984
 2374SOL    HW2 8897   0.982  12.220   6.105
 2375SOL     OW 8898   2.713   5.180  13.333
 2375SOL    HW1 8899   2.806   5.167  13.318
 2375SOL    HW2 8900   2.697   5.272  13.308
 2376SOL     OW 8901  13.543   3.513   8.796
 2376SOL    HW1 8902  13.569   3.500   8.705
 2376SOL    HW2 8903  13.552   3.607   8.811
 2377SOL     OW 8904  10.901   2.735   2.629
 2377SOL    HW1 8905  10.860   2.745   2.716
 2377SOL    HW2 8906  10.828   2.711   2.572
 2378SOL     OW 8907   2.544  11.397   6.191
 2378SOL    HW1 8908   2.453  11.369   6.186
 2378SOL    HW2 8909   2.551  11.468   6.127
 2379SOL     OW 8910   5.789  10.123   9.327
 2379SOL    HW1 8911   5.849  10.197   9.316
 2379SOL    HW2 8912   5.714  10.159   9.373
 2380SOL     OW 8913   9.101   8.891   2.200
 2380SOL    HW1 8914   9.086   8.834   2.276
 2380SOL    HW2 8915   9.052   8.971   2.220
 2381SOL     OW 8916   4.654  13.555  10.045
 2381SOL    HW1 8917   4.681  13.508  10.124
 2381SOL    HW2 8918   4.732  13.557   9.990
 2382SOL     OW 8919  13.592   3.174   1.965
 2382SOL    HW1 8920  13.511   3.169   2.015
 2382SOL    HW2 8921  13.564   3.190   1.875
 2383SOL     OW 8922  10.183   4.318   3.458
 2383SOL    HW1 8923  10.215   4.228   3.461
 2383SOL    HW2 8924  10.088   4.311   3.467
 2384SOL     OW 8925   2.716   2.698  13.449
 2384SOL    HW1 8926   2.734   2.607  13.472
 2384SOL    HW2 8927   2.801   2.735  13.425
 2385SOL     OW 8928  11.690  12.121  11.317
 2385SOL    HW1 8929  11.635  12.194  11.346
 2385SOL    HW2 8930  11.653  12.096  11.233
 2386SOL     OW 8931  14.881   2.950   1.258
 2386SOL    HW1 8932   0.046   3.031   1.280
 2386SOL    HW2 8933  14.815   2.941   1.326
 2387SOL     OW 8934   4.147   0.113   1.750
 2387SOL    HW1 8935   4.149   0.019   1.765
 2387SOL    HW2 8936   4.227   0.131   1.701
 2388SOL     OW 8937   3.293  10.997   7.948
 2388SOL    HW1 8938   3.292  10.910   7.908
 2388SOL    HW2 8939   3.319  10.981   8.039
 2389SOL     OW 8940  11.980   5.624   5.215
 2389SOL    HW1 8941  11.902   5.669   5.246
 2389SOL    HW2 8942  11.976   5.631   5.120
 2390SOL     OW 8943  14.203   2.717   6.875
 2390SOL    HW1 8944  14.115   2.679   6.880
 2390SOL    HW2 8945  14.218   2.730   6.781
 2391SOL     OW 8946   5.032   7.714   6.328
 2391SOL    HW1 8947   5.000   7.633   6.366
 2391SOL    HW2 8948   5.037   7.696   6.234
 2392SOL     OW 8949   0.964  12.566   7.225
 2392SOL    HW1 8950   0.967  12.506   7.151
 2392SOL    HW2 8951   0.948  12.652   7.186
 2393SOL     OW 8952   0.053   9.992   1.487
 2393SOL    HW1 8953   0.134  10.041   1.497
 2393SOL    HW2 8954   0.013  10.028   1.408
 2394SOL     OW 8955   8.850   4.535  10.670
 2394SOL    HW1 8956   8.842   4.452  10.624
 2394SOL    HW2 8957   8.784   4.531  10.739
 2395SOL     OW 8958   0.191   9.033   2.842
 2395SOL    HW1 8959   0.255   9.076   2.899
 2395SOL    HW2 8960   0.221   9.052   2.754
 2396SOL     OW 8961  10.642   2.656   7.527
 2396SOL    HW1 8962  10.557   2.644   7.486
 2396SOL    HW2 8963  10.694   2.705   7.463
 2397SOL     OW 8964   1.537   4.573   1.306
 2397SOL    HW1 8965   1.539   4.661   1.270
 2397SOL    HW2 8966   1.500   4.519   1.236
 2398SOL     OW 8967   8.086   8.935  12.928
 2398SOL    HW1 8968   8.037   8.922  12.847
 2398SOL    HW2 8969   8.137   8.854  12.939
 2399SOL     OW 8970   8.105  11.642   0.655
 2399SOL    HW1 8971   8.113  11.547   0.648
 2399SOL    HW2 8972   8.055  11.669   0.578
 2400SOL     OW 8973   3.873   7.518   1.325
 2400SOL    HW1 8974   3.896   7.609   1.304
 2400SOL    HW2 8975   3.827   7.487   1.247
 2401SOL     OW 8976   1.048   5.191   8.343
 2401SOL    HW1 8977   1.059   5.107   8.387
 2401SOL    HW2 8978   1.001   5.170   8.263
 2402SOL     OW 8979   5.458  12.788   8.876
 2402SOL    HW1 8980   5.506  12.860   8.915
 2402SOL    HW2 8981   5.521  12.718   8.867
 2403SOL     OW 8982  13.962  10.909  14.333
 2403SOL    HW1 8983  13.948  10.974  14.401
 2403SOL    HW2 8984  13.946  10.825  14.376
 2404SOL     OW 8985  13.021   0.047   7.843
 2404SOL    HW1 8986  12.953   0.100   7.801
 2404SOL    HW2 8987  12.973  14.872   7.904
 2405SOL     OW 8988   9.608  13.753   0.120
 2405SOL    HW1 8989   9.700  13.777   0.107
 2405SOL    HW2 8990   9.593  13.767   0.214
 2406SOL     OW 8991   2.099   6.093   2.522
 2406SOL    HW1 8992   2.193   6.091   2.503
 2406SOL    HW2 8993   2.094   6.080   2.617
 2407SOL     OW 8994   7.270  10.034  13.188
 2407SOL    HW1 8995   7.248   9.947  13.220
 2407SOL    HW2 8996   7.346  10.061  13.241
 2408SOL     OW 8997  13.648  11.228   7.332
 2408SOL    HW1 8998  13.729  11.186   7.360
 2408SOL    HW2 8999  13.608  11.166   7.271
 2409SOL     OW 9000   0.897   5.002  13.375
 2409SOL    HW1 9001   0.990   5.012  13.353
 2409SOL    HW2 9002   0.860   5.090  13.362
 2410SOL     OW 9003   3.361  11.395   0.032
 2410SOL    HW1 9004   3.341  11.331  14.846
 2410SOL    HW2 9005   3.452  11.419   0.016
 2411SOL     OW 9006   9.067   2.467   3.202
 2411SOL    HW1 9007   9.046   2.391   3.147
 2411SOL    HW2 9008   9.096   2.534   3.140
 2412SOL     OW 9009   0.851   3.782   9.234
 2412SOL    HW1 9010   0.779   3.844   9.243
 2412SOL    HW2 9011   0.809   3.699   9.212
 2413SOL     OW 9012   5.586   4.038   9.844
 2413SOL    HW1 9013   5.596   4.005   9.755
 2413SOL    HW2 9014   5.671   4.076   9.865
 2414SOL     OW 9015   2.383  13.506   7.674
 2414SOL    HW1 9016   2.440  13.431   7.656
 2414SOL    HW2 9017   2.408  13.571   7.609
 2415SOL     OW 9018   2.501  13.574   8.879
 2415SOL    HW1 9019   2.432  13.529   8.929
 2415SOL    HW2 9020   2.581  13.526   8.901
 2416SOL     OW 9021  10.124  12.926   6.487
 2416SOL    HW1 9022  10.067  12.849   6.480
 2416SOL    HW2 9023  10.212  12.889   6.497
 2417SOL     OW 9024  11.679   4.866   9.300
 2417SOL    HW1 9025  11.632   4.797   9.254
 2417SOL    HW2 9026  11.610   4.914   9.347
 2418SOL     OW 9027   7.662   9.256  10.982
 2418SOL    HW1 9028   7.589   9.195  10.970
 2418SOL    HW2 9029   7.629   9.339  10.948
 2419SOL     OW 9030   7.356  13.413   6.592
 2419SOL    HW1 9031   7.351  13.470   6.669
 2419SOL    HW2 9032   7.271  13.423   6.549
 2420SOL     OW 9033  14.331   2.002   7.267
 2420SOL    HW1 9034  14.308   2.013   7.174
 2420SOL    HW2 9035  14.259   1.950   7.303
 2421SOL     OW 9036   0.098  10.881   0.374
 2421SOL    HW1 9037   0.054  10.902   0.291
 2421SOL    HW2 9038   0.147  10.961   0.396
 2422SOL     OW 9039   9.890   9.701   3.416
 2422SOL    HW1 9040   9.931   9.773   3.368
 2422SOL    HW2 9041   9.945   9.689   3.493
 2423SOL     OW 9042   3.486   2.067  14.093
 2423SOL    HW1 9043   3.404   2.038  14.133
 2423SOL    HW2 9044   3.554   2.024  14.146
 2424SOL     OW 9045   0.268   5.129   0.611
 2424SOL    HW1 9046   0.263   5.224   0.601
 2424SOL    HW2 9047   0.178   5.102   0.625
 2425SOL     OW 9048   3.348   3.236  14.644
 2425SOL    HW1 9049   3.410   3.188  14.700
 2425SOL    HW2 9050   3.301   3.293  14.704
 2426SOL     OW 9051   7.216   8.787   8.029
 2426SOL    HW1 9052   7.285   8.772   7.965
 2426SOL    HW2 9053   7.135   8.781   7.979
 2427SOL     OW 9054   4.701   2.085  10.493
 2427SOL    HW1 9055   4.619   2.048  10.459
 2427SOL    HW2 9056   4.688   2.179  10.488
 2428SOL     OW 9057   9.166   9.238   2.500
 2428SOL    HW1 9058   9.226   9.247   2.574
 2428SOL    HW2 9059   9.087   9.200   2.538
 2429SOL     OW 9060  12.917   0.376   9.689
 2429SOL    HW1 9061  12.935   0.390   9.782
 2429SOL    HW2 9062  12.985   0.316   9.660
 2430SOL     OW 9063   6.699  14.876   8.451
 2430SOL    HW1 9064   6.653  14.877   8.535
 2430SOL    HW2 9065   6.781  14.832   8.469
 2431SOL     OW 9066   3.284   3.464   2.406
 2431SOL    HW1 9067   3.357   3.402   2.412
 2431SOL    HW2 9068   3.327   3.550   2.404
 2432SOL     OW 9069  14.439  14.134   2.358
 2432SOL    HW1 9070  14.489  14.210   2.385
 2432SOL    HW2 9071  14.433  14.079   2.436
 2433SOL     OW 9072   4.779   6.525  10.084
 2433SOL    HW1 9073   4.825   6.450  10.045
 2433SOL    HW2 9074   4.774   6.504  10.177
 2434SOL     OW 9075  13.936  11.297   9.932
 2434SOL    HW1 9076  13.859  11.354   9.926
 2434SOL    HW2 9077  13.953  11.290  10.026
 2435SOL     OW 9078  13.614   5.843   7.102
 2435SOL    HW1 9079  13.576   5.820   7.187
 2435SOL    HW2 9080  13.706   5.859   7.120
 2436SOL     OW 9081   5.453   5.639   3.226
 2436SOL    HW1 9082   5.366   5.670   3.252
 2436SOL    HW2 9083   5.513   5.703   3.263
 2437SOL     OW 9084   9.045   4.311   9.881
 2437SOL    HW1 9085   8.973   4.288   9.822
 2437SOL    HW2 9086   9.098   4.374   9.832
 2438SOL     OW 9087  10.699  11.976  11.310
 2438SOL    HW1 9088  10.749  11.915  11.364
 2438SOL    HW2 9089  10.619  11.928  11.289
 2439SOL     OW 9090   3.003   5.722   5.221
 2439SOL    HW1 9091   2.996   5.808   5.263
 2439SOL    HW2 9092   3.095   5.713   5.199
 2440SOL     OW 9093   9.884   6.551   0.271
 2440SOL    HW1 9094   9.924   6.634   0.245
 2440SOL    HW2 9095   9.911   6.538   0.362
 2441SOL     OW 9096   0.324   4.365  12.539
 2441SOL    HW1 9097   0.340   4.404  12.625
 2441SOL    HW2 9098   0.382   4.412  12.479
 2442SOL     OW 9099  14.168   4.701   5.698
 2442SOL    HW1 9100  14.101   4.645   5.739
 2442SOL    HW2 9101  14.136   4.790   5.711
 2443SOL     OW 9102   4.366  11.163   0.874
 2443SOL    HW1 9103   4.435  11.190   0.812
 2443SOL    HW2 9104   4.399  11.082   0.912
 2444SOL     OW 9105   6.217  12.828   4.930
 2444SOL    HW1 9106   6.252  12.855   5.015
 2444SOL    HW2 9107   6.292  12.825   4.872
 2445SOL     OW 9108  11.501   5.285   3.101
 2445SOL    HW1 9109  11.454   5.306   3.181
 2445SOL    HW2 9110  11.521   5.192   3.109
 2446SOL     OW 9111   8.616   6.462   5.139
 2446SOL    HW1 9112   8.675   6.529   5.175
 2446SOL    HW2 9113   8.569   6.429   5.215
 2447SOL     OW 9114  12.988  14.223   5.666
 2447SOL    HW1 9115  12.900  14.235   5.630
 2447SOL    HW2 9116  12.982  14.255   5.756
 2448SOL     OW 9117   8.944   8.612   9.350
 2448SOL    HW1 9118   8.885   8.682   9.378
 2448SOL    HW2 9119   8.890   8.554   9.298
 2449SOL     OW 9120   8.463  10.576   5.991
 2449SOL    HW1 9121   8.395  10.636   5.961
 2449SOL    HW2 9122   8.543  10.627   5.989
 2450SOL     OW 9123   3.746   9.176   3.114
 2450SOL    HW1 9124   3.833   9.199   3.148
 2450SOL    HW2 9125   3.716   9.254   3.069
 2451SOL     OW 9126   9.170   2.918  11.082
 2451SOL    HW1 9127   9.218   2.886  11.158
 2451SOL    HW2 9128   9.214   2.880  11.007
 2452SOL     OW 9129  10.976   7.980   0.365
 2452SOL    HW1 9130  11.001   8.054   0.309
 2452SOL    HW2 9131  10.947   7.913   0.303
 2453SOL     OW 9132  11.879  13.295  14.422
 2453SOL    HW1 9133  11.863  13.376  14.471
 2453SOL    HW2 9134  11.811  13.235  14.452
 2454SOL     OW 9135   1.747  14.286  13.584
 2454SOL    HW1 9136   1.798  14.206  13.573
 2454SOL    HW2 9137   1.794  14.351  13.532
 2455SOL     OW 9138   7.562   3.034  12.243
 2455SOL    HW1 9139   7.545   3.017  12.335
 2455SOL    HW2 9140   7.492   2.987  12.197
 2456SOL     OW 9141   2.501  11.744  10.062
 2456SOL    HW1 9142   2.559  11.681  10.105
 2456SOL    HW2 9143   2.445  11.690  10.005
 2457SOL     OW 9144   5.844   4.261  11.166
 2457SOL    HW1 9145   5.863   4.294  11.253
 2457SOL    HW2 9146   5.898   4.182  11.158
 2458SOL     OW 9147   5.613   9.419   0.613
 2458SOL    HW1 9148   5.540   9.464   0.656
 2458SOL    HW2 9149   5.680   9.486   0.604
 2459SOL     OW 9150  10.911  11.732  11.684
 2459SOL    HW1 9151  10.948  11.799  11.741
 2459SOL    HW2 9152  10.959  11.652  11.705
 2460SOL     OW 9153  13.044   7.463   0.211
 2460SOL    HW1 9154  13.111   7.453   0.143
 2460SOL    HW2 9155  13.047   7.382   0.261
 2461SOL     OW 9156   8.789   4.975  13.886
 2461SOL    HW1 9157   8.754   5.012  13.967
 2461SOL    HW2 9158   8.866   4.926  13.914
 2462SOL     OW 9159  12.450   3.234   6.478
 2462SOL    HW1 9160  12.481   3.253   6.390
 2462SOL    HW2 9161  12.530   3.229   6.531
 2463SOL     OW 9162   6.235  12.147  11.270
 2463SOL    HW1 9163   6.146  12.120  11.296
 2463SOL    HW2 9164   6.269  12.073  11.221
 2464SOL     OW 9165   5.773  10.334   2.341
 2464SOL    HW1 9166   5.819  10.405   2.296
 2464SOL    HW2 9167   5.825  10.256   2.320
 2465SOL     OW 9168   8.399   7.348  13.746
 2465SOL    HW1 9169   8.416   7.441  13.734
 2465SOL    HW2 9170   8.305   7.339  13.731
 2466SOL     OW 9171  13.362   7.849   0.386
 2466SOL    HW1 9172  13.332   7.851   0.477
 2466SOL    HW2 9173  13.356   7.940   0.357
 2467SOL     OW 9174   3.728  14.019  13.049
 2467SOL    HW1 9175   3.772  13.976  13.122
 2467SOL    HW2 9176   3.729  14.112  13.072
 2468SOL     OW 9177   6.100   3.887   4.264
 2468SOL    HW1 9178   6.030   3.842   4.312
 2468SOL    HW2 9179   6.176   3.828   4.272
 2469SOL     OW 9180   1.855  14.161  11.961
 2469SOL    HW1 9181   1.792  14.223  11.924
 2469SOL    HW2 9182   1.826  14.076  11.928
 2470SOL     OW 9183   0.856  13.939  10.809
 2470SOL    HW1 9184   0.849  14.012  10.748
 2470SOL    HW2 9185   0.770  13.897  10.805
 2471SOL     OW 9186  13.683   8.484  10.963
 2471SOL    HW1 9187  13.602   8.434  10.974
 2471SOL    HW2 9188  13.730   8.437  10.894
 2472SOL     OW 9189  10.916   2.374   9.990
 2472SOL    HW1 9190  10.998   2.353   9.946
 2472SOL    HW2 9191  10.942   2.423  10.068
 2473SOL     OW 9192  13.690   7.681   9.429
 2473SOL    HW1 9193  13.684   7.762   9.377
 2473SOL    HW2 9194  13.782   7.658   9.427
 2474SOL     OW 9195   6.901   1.273   7.210
 2474SOL    HW1 9196   6.912   1.239   7.299
 2474SOL    HW2 9197   6.984   1.316   7.190
 2475SOL     OW 9198   4.569   0.639   1.768
 2475SOL    HW1 9199   4.508   0.684   1.709
 2475SOL    HW2 9200   4.572   0.549   1.735
 2476SOL     OW 9201  12.906   4.292   5.180
 2476SOL    HW1 9202  12.899   4.232   5.253
 2476SOL    HW2 9203  12.964   4.362   5.211
 2477SOL     OW 9204   0.622   3.898   4.780
 2477SOL    HW1 9205   0.678   3.873   4.707
 2477SOL    HW2 9206   0.669   3.970   4.823
 2478SOL     OW 9207  10.516  10.325  10.973
 2478SOL    HW1 9208  10.551  10.251  10.924
 2478SOL    HW2 9209  10.441  10.288  11.021
 2479SOL     OW 9210   1.592   0.149  13.165
 2479SOL    HW1 9211   1.546   0.198  13.233
 2479SOL    HW2 9212   1.606   0.212  13.095
 2480SOL     OW 9213   3.956  10.952   5.666
 2480SOL    HW1 9214   4.028  11.012   5.683
 2480SOL    HW2 9215   3.928  10.923   5.753
 2481SOL     OW 9216   4.567  12.063   8.803
 2481SOL    HW1 9217   4.515  11.982   8.804
 2481SOL    HW2 9218   4.657  12.034   8.819
 2482SOL     OW 9219   4.754   1.477  13.453
 2482SOL    HW1 9220   4.763   1.509  13.364
 2482SOL    HW2 9221   4.721   1.387  13.443
 2483SOL     OW 9222  11.868   1.611   3.823
 2483SOL    HW1 9223  11.919   1.572   3.752
 2483SOL    HW2 9224  11.858   1.540   3.887
 2484SOL     OW 9225   7.130   4.935  10.039
 2484SOL    HW1 9226   7.155   5.025  10.020
 2484SOL    HW2 9227   7.162   4.919  10.127
 2485SOL     OW 9228   9.732  13.383   7.580
 2485SOL    HW1 9229   9.742  13.289   7.592
 2485SOL    HW2 9230   9.822  13.416   7.571
 2486SOL     OW 9231   6.831   8.383   6.504
 2486SOL    HW1 9232   6.885   8.365   6.581
 2486SOL    HW2 9233   6.882   8.349   6.431
 2487SOL     OW 9234  11.735  13.322  12.024
 2487SOL    HW1 9235  11.725  13.395  12.085
 2487SOL    HW2 9236  11.646  13.307  11.991
 2488SOL     OW 9237   2.825   7.147  14.740
 2488SOL    HW1 9238   2.818   7.159  14.645
 2488SOL    HW2 9239   2.736   7.158  14.773
 2489SOL     OW 9240  13.844   6.294  13.556
 2489SOL    HW1 9241  13.815   6.207  13.584
 2489SOL    HW2 9242  13.786   6.355  13.601
 2490SOL     OW 9243   6.284   6.855  11.544
 2490SOL    HW1 9244   6.211   6.796  11.562
 2490SOL    HW2 9245   6.262   6.936  11.589
 2491SOL     OW 9246   3.792   4.551  12.667
 2491SOL    HW1 9247   3.758   4.627  12.620
 2491SOL    HW2 9248   3.861   4.517  12.611
 2492SOL     OW 9249   8.374   9.655  10.370
 2492SOL    HW1 9250   8.368   9.653  10.275
 2492SOL    HW2 9251   8.450   9.601  10.391
 2493SOL     OW 9252   2.337   7.757   1.980
 2493SOL    HW1 9253   2.421   7.789   2.015
 2493SOL    HW2 9254   2.300   7.833   1.935
 2494SOL     OW 9255   0.325   0.606  12.676
 2494SOL    HW1 9256   0.310   0.528  12.623
 2494SOL    HW2 9257   0.260   0.669  12.645
 2495SOL     OW 9258   6.225  11.077  10.735
 2495SOL    HW1 9259   6.273  11.072  10.653
 2495SOL    HW2 9260   6.271  11.018  10.794
 2496SOL     OW 9261  10.322   0.416   9.708
 2496SOL    HW1 9262  10.259   0.365   9.657
 2496SOL    HW2 9263  10.394   0.432   9.648
 2497SOL     OW 9264   5.504   2.332   7.939
 2497SOL    HW1 9265   5.476   2.379   8.017
 2497SOL    HW2 9266   5.423   2.294   7.904
 2498SOL     OW 9267   5.499   3.129   5.389
 2498SOL    HW1 9268   5.530   3.156   5.476
 2498SOL    HW2 9269   5.405   3.117   5.401
 2499SOL     OW 9270  11.534   1.762   7.727
 2499SOL    HW1 9271  11.497   1.694   7.671
 2499SOL    HW2 9272  11.525   1.843   7.675
 2500SOL     OW 9273  11.224   4.324   9.892
 2500SOL    HW1 9274  11.285   4.252   9.879
 2500SOL    HW2 9275  11.137   4.285   9.883
 2501SOL     OW 9276  13.187   1.181   1.930
 2501SOL    HW1 9277  13.139   1.215   1.854
 2501SOL    HW2 9278  13.144   1.221   2.006
 2502SOL     OW 9279   7.528  14.057   3.161
 2502SOL    HW1 9280   7.434  14.048   3.145
 2502SOL    HW2 9281   7.562  13.968   3.147
 2503SOL     OW 9282  14.437   7.761   1.037
 2503SOL    HW1 9283  14.480   7.832   0.990
 2503SOL    HW2 9284  14.345   7.788   1.042
 2504SOL     OW 9285   7.929   1.640   0.764
 2504SOL    HW1 9286   7.867   1.621   0.834
 2504SOL    HW2 9287   7.950   1.554   0.727
 2505SOL     OW 9288   6.718   4.359   3.427
 2505SOL    HW1 9289   6.791   4.324   3.478
 2505SOL    HW2 9290   6.657   4.393   3.493
 2506SOL     OW 9291   5.198   2.195   8.524
 2506SOL    HW1 9292   5.232   2.264   8.581
 2506SOL    HW2 9293   5.275   2.145   8.497
 2507SOL     OW 9294   1.289  14.215   8.212
 2507SOL    HW1 9295   1.243  14.297   8.195
 2507SOL    HW2 9296   1.222  14.156   8.246
 2508SOL     OW 9297   8.050   4.622  13.081
 2508SOL    HW1 9298   8.114   4.601  13.150
 2508SOL    HW2 9299   8.091   4.694  13.033
 2509SOL     OW 9300  10.276   4.729  12.172
 2509SOL    HW1 9301  10.296   4.821  12.191
 2509SOL    HW2 9302  10.181   4.728  12.155
 2510SOL     OW 9303   3.660   3.685  14.644
 2510SOL    HW1 9304   3.720   3.612  14.640
 2510SOL    HW2 9305   3.699   3.752  14.587
 2511SOL     OW 9306   5.824  11.492  10.906
 2511SOL    HW1 9307   5.907  11.459  10.940
 2511SOL    HW2 9308   5.847  11.571  10.858
 2512SOL     OW 9309   8.775   9.658   7.180
 2512SOL    HW1 9310   8.822   9.575   7.182
 2512SOL    HW2 9311   8.684   9.634   7.162
 2513SOL     OW 9312   3.659  10.433  10.080
 2513SOL    HW1 9313   3.733  10.373  10.093
 2513SOL    HW2 9314   3.583  10.376  10.067
 2514SOL     OW 9315   6.862   5.804  13.794
 2514SOL    HW1 9316   6.853   5.899  13.783
 2514SOL    HW2 9317   6.956   5.790  13.802
 2515SOL     OW 9318  13.628  13.612  13.534
 2515SOL    HW1 9319  13.633  13.619  13.629
 2515SOL    HW2 9320  13.713  13.578  13.507
 2516SOL     OW 9321   5.077   7.944   5.335
 2516SOL    HW1 9322   5.166   7.958   5.368
 2516SOL    HW2 9323   5.061   7.850   5.347
 2517SOL     OW 9324   8.555  11.710  11.688
 2517SOL    HW1 9325   8.595  11.659  11.618
 2517SOL    HW2 9326   8.556  11.800  11.656
 2518SOL     OW 9327  11.427   9.825   6.372
 2518SOL    HW1 9328  11.402   9.882   6.299
 2518SOL    HW2 9329  11.479   9.880   6.430
 2519SOL     OW 9330   8.485   1.653  12.453
 2519SOL    HW1 9331   8.518   1.738  12.481
 2519SOL    HW2 9332   8.546   1.626  12.383
 2520SOL     OW 9333  14.392   9.310  13.664
 2520SOL    HW1 9334  14.429   9.222  13.673
 2520SOL    HW2 9335  14.461   9.368  13.695
 2521SOL     OW 9336   3.138  14.150   0.335
 2521SOL    HW1 9337   3.119  14.069   0.383
 2521SOL    HW2 9338   3.213  14.127   0.279
 2522SOL     OW 9339   7.951   9.607   2.190
 2522SOL    HW1 9340   7.866   9.646   2.171
 2522SOL    HW2 9341   7.935   9.550   2.265
 2523SOL     OW 9342  13.398  12.095   5.976
 2523SOL    HW1 9343  13.308  12.123   5.995
 2523SOL    HW2 9344  13.393  11.999   5.978
 2524SOL     OW 9345   7.180   0.518   2.360
 2524SOL    HW1 9346   7.243   0.447   2.372
 2524SOL    HW2 9347   7.164   0.520   2.265
 2525SOL     OW 9348   9.702  12.969   0.738
 2525SOL    HW1 9349   9.755  12.983   0.817
 2525SOL    HW2 9350   9.648  12.893   0.759
 2526SOL     OW 9351   6.452   6.275   7.022
 2526SOL    HW1 9352   6.415   6.213   7.085
 2526SOL    HW2 9353   6.538   6.238   7.000
 2527SOL     OW 9354   6.275   2.288   0.484
 2527SOL    HW1 9355   6.320   2.207   0.459
 2527SOL    HW2 9356   6.189   2.260   0.516
 2528SOL     OW 9357   1.867   3.179  13.860
 2528SOL    HW1 9358   1.937   3.120  13.887
 2528SOL    HW2 9359   1.874   3.182  13.764
 2529SOL     OW 9360   3.248  13.071   4.437
 2529SOL    HW1 9361   3.315  13.007   4.460
 2529SOL    HW2 9362   3.297  13.146   4.403
 2530SOL     OW 9363  12.596  12.735   3.769
 2530SOL    HW1 9364  12.551  12.813   3.737
 2530SOL    HW2 9365  12.532  12.691   3.825
 2531SOL     OW 9366   0.795   2.226  13.681
 2531SOL    HW1 9367   0.818   2.268  13.598
 2531SOL    HW2 9368   0.746   2.294  13.729
 2532SOL     OW 9369   2.635  12.275   3.062
 2532SOL    HW1 9370   2.612  12.205   3.123
 2532SOL    HW2 9371   2.559  12.283   3.004
 2533SOL     OW 9372   3.399   2.474  14.401
 2533SOL    HW1 9373   3.398   2.490  14.307
 2533SOL    HW2 9374   3.381   2.380  14.410
 2534SOL     OW 9375   8.160   0.379   5.558
 2534SOL    HW1 9376   8.097   0.426   5.504
 2534SOL    HW2 9377   8.217   0.448   5.594
 2535SOL     OW 9378  11.864   0.130  11.863
 2535SOL    HW1 9379  11.822   0.076  11.796
 2535SOL    HW2 9380  11.796   0.193  11.889
 2536SOL     OW 9381   0.897   4.594   3.961
 2536SOL    HW1 9382   0.867   4.633   4.043
 2536SOL    HW2 9383   0.956   4.523   3.988
 2537SOL     OW 9384   8.905   6.874   4.128
 2537SOL    HW1 9385   8.860   6.793   4.104
 2537SOL    HW2 9386   8.894   6.931   4.052
 2538SOL     OW 9387  13.074  11.210   3.174
 2538SOL    HW1 9388  13.034  11.296   3.183
 2538SOL    HW2 9389  13.164  11.222   3.206
 2539SOL     OW 9390  12.484   2.381   6.295
 2539SOL    HW1 9391  12.545   2.397   6.222
 2539SOL    HW2 9392  12.490   2.460   6.348
 2540SOL     OW 9393   8.038   7.797   8.357
 2540SOL    HW1 9394   8.124   7.839   8.360
 2540SOL    HW2 9395   8.057   7.704   8.374
 2541SOL     OW 9396  11.176  14.667   0.520
 2541SOL    HW1 9397  11.251  14.614   0.493
 2541SOL    HW2 9398  11.158  14.638   0.610
 2542SOL     OW 9399   9.504  11.828  13.761
 2542SOL    HW1 9400   9.550  11.790  13.687
 2542SOL    HW2 9401   9.465  11.753  13.807
 2543SOL     OW 9402  11.866   0.341   1.862
 2543SOL    HW1 9403  11.789   0.338   1.918
 2543SOL    HW2 9404  11.868   0.431   1.828
 2544SOL     OW 9405   5.864   5.357   7.405
 2544SOL    HW1 9406   5.928   5.325   7.468
 2544SOL    HW2 9407   5.794   5.396   7.458
 2545SOL     OW 9408  14.416  13.522   1.016
 2545SOL    HW1 9409  14.321  13.517   1.023
 2545SOL    HW2 9410  14.434  13.613   0.991
 2546SOL     OW 9411   3.698   3.210   0.724
 2546SOL    HW1 9412   3.616   3.235   0.682
 2546SOL    HW2 9413   3.748   3.292   0.731
 2547SOL     OW 9414   4.509   0.014  10.259
 2547SOL    HW1 9415   4.578  14.829  10.255
 2547SOL    HW2 9416   4.495   0.040  10.168
 2548SOL     OW 9417   4.801   7.965  10.924
 2548SOL    HW1 9418   4.738   8.025  10.964
 2548SOL    HW2 9419   4.771   7.956  10.834
 2549SOL     OW 9420   2.867   6.808  11.208
 2549SOL    HW1 9421   2.866   6.714  11.225
 2549SOL    HW2 9422   2.777   6.828  11.182
 2550SOL     OW 9423   1.863   1.176  12.588
 2550SOL    HW1 9424   1.881   1.082  12.579
 2550SOL    HW2 9425   1.928   1.218  12.531
 2551SOL     OW 9426   8.130   6.929  14.767
 2551SOL    HW1 9427   8.095   6.842  14.750
 2551SOL    HW2 9428   8.170   6.922  14.854
 2552SOL     OW 9429  13.995  14.702  10.726
 2552SOL    HW1 9430  14.062  14.636  10.744
 2552SOL    HW2 9431  13.933  14.694  10.798
 2553SOL     OW 9432   0.930   4.336   9.483
 2553SOL    HW1 9433   0.884   4.387   9.550
 2553SOL    HW2 9434   0.862   4.282   9.443
 2554SOL     OW 9435  10.341  10.617   4.073
 2554SOL    HW1 9436  10.257  10.571   4.082
 2554SOL    HW2 9437  10.318  10.710   4.078
 2555SOL     OW 9438  11.282   2.607   4.933
 2555SOL    HW1 9439  11.263   2.694   4.967
 2555SOL    HW2 9440  11.284   2.551   5.010
 2556SOL     OW 9441   5.552   3.902   3.094
 2556SOL    HW1 9442   5.608   3.824   3.094
 2556SOL    HW2 9443   5.482   3.881   3.032
 2557SOL     OW 9444   6.596   5.490  11.120
 2557SOL    HW1 9445   6.592   5.572  11.169
 2557SOL    HW2 9446   6.656   5.508  11.048
 2558SOL     OW 9447   4.207  10.742   8.975
 2558SOL    HW1 9448   4.265  10.794   8.920
 2558SOL    HW2 9449   4.262  10.712   9.047
 2559SOL     OW 9450  12.700  12.730   5.994
 2559SOL    HW1 9451  12.762  12.734   5.921
 2559SOL    HW2 9452  12.719  12.646   6.037
 2560SOL     OW 9453   5.557  13.005   1.776
 2560SOL    HW1 9454   5.520  12.997   1.688
 2560SOL    HW2 9455   5.637  13.056   1.763
 2561SOL     OW 9456  10.936   2.838   7.117
 2561SOL    HW1 9457  10.978   2.912   7.161
 2561SOL    HW2 9458  10.962   2.847   7.025
 2562SOL     OW 9459   0.553   8.912   6.187
 2562SOL    HW1 9460   0.504   8.856   6.126
 2562SOL    HW2 9461   0.493   8.984   6.206
 2563SOL     OW 9462   0.574   6.638  14.247
 2563SOL    HW1 9463   0.655   6.635  14.299
 2563SOL    HW2 9464   0.506   6.656  14.311
 2564SOL     OW 9465   7.986   5.644   3.603
 2564SOL    HW1 9466   7.901   5.621   3.641
 2564SOL    HW2 9467   7.991   5.739   3.613
 2565SOL     OW 9468  10.606   4.460  10.152
 2565SOL    HW1 9469  10.579   4.383  10.102
 2565SOL    HW2 9470  10.546   4.461  10.227
 2566SOL     OW 9471   3.774   0.383  13.838
 2566SOL    HW1 9472   3.807   0.425  13.918
 2566SOL    HW2 9473   3.795   0.291  13.850
 2567SOL     OW 9474   9.602  14.675  13.160
 2567SOL    HW1 9475   9.563  14.719  13.085
 2567SOL    HW2 9476   9.560  14.717  13.236
 2568SOL     OW 9477   8.524   2.866   4.877
 2568SOL    HW1 9478   8.524   2.922   4.955
 2568SOL    HW2 9479   8.617   2.851   4.859
 2569SOL     OW 9480  12.334  14.227  10.345
 2569SOL    HW1 9481  12.322  14.132  10.355
 2569SOL    HW2 9482  12.321  14.262  10.433
 2570SOL     OW 9483   7.515  12.798   0.418
 2570SOL    HW1 9484   7.481  12.810   0.330
 2570SOL    HW2 9485   7.538  12.886   0.448
 2571SOL     OW 9486   4.631   4.554  10.719
 2571SOL    HW1 9487   4.544   4.552  10.758
 2571SOL    HW2 9488   4.679   4.485  10.764
 2572SOL     OW 9489   4.526  10.867   0.399
 2572SOL    HW1 9490   4.458  10.815   0.356
 2572SOL    HW2 9491   4.522  10.952   0.356
 2573SOL     OW 9492   6.389   2.355   1.219
 2573SOL    HW1 9493   6.327   2.408   1.269
 2573SOL    HW2 9494   6.432   2.417   1.161
 2574SOL     OW 9495   6.116   3.044   7.153
 2574SOL    HW1 9496   6.170   3.018   7.078
 2574SOL    HW2 9497   6.177   3.088   7.212
 2575SOL     OW 9498   9.921  13.462   1.553
 2575SOL    HW1 9499   9.900  13.543   1.507
 2575SOL    HW2 9500   9.853  13.454   1.620
 2576SOL     OW 9501  14.130   9.041   4.469
 2576SOL    HW1 9502  14.115   9.086   4.386
 2576SOL    HW2 9503  14.125   8.948   4.448
 2577SOL     OW 9504  11.816  11.028   3.638
 2577SOL    HW1 9505  11.889  10.967   3.626
 2577SOL    HW2 9506  11.746  10.992   3.583
 2578SOL     OW 9507  12.400   2.709   5.697
 2578SOL    HW1 9508  12.372   2.753   5.617
 2578SOL    HW2 9509  12.446   2.776   5.747
 2579SOL     OW 9510  10.695   8.233  13.974
 2579SOL    HW1 9511  10.636   8.241  14.049
 2579SOL    HW2 9512  10.683   8.314  13.925
 2580SOL     OW 9513   9.996   9.734   0.824
 2580SOL    HW1 9514  10.057   9.764   0.757
 2580SOL    HW2 9515   9.937   9.808   0.838
 2581SOL     OW 9516  10.172  12.478   3.079
 2581SOL    HW1 9517  10.100  12.527   3.040
 2581SOL    HW2 9518  10.136  12.390   3.093
 2582SOL     OW 9519  14.747   9.141   3.460
 2582SOL    HW1 9520  14.727   9.121   3.369
 2582SOL    HW2 9521  14.823   9.088   3.480
 2583SOL     OW 9522  10.221   1.322   7.129
 2583SOL    HW1 9523  10.193   1.413   7.137
 2583SOL    HW2 9524  10.293   1.313   7.191
 2584SOL     OW 9525  11.659   1.008  11.054
 2584SOL    HW1 9526  11.682   1.097  11.079
 2584SOL    HW2 9527  11.669   1.006  10.958
 2585SOL     OW 9528  13.003  13.844   6.063
 2585SOL    HW1 9529  13.052  13.857   5.982
 2585SOL    HW2 9530  13.022  13.921   6.116
 2586SOL     OW 9531   2.891   6.356   3.751
 2586SOL    HW1 9532   2.830   6.430   3.746
 2586SOL    HW2 9533   2.970   6.387   3.706
 2587SOL     OW 9534   6.173  13.571   8.719
 2587SOL    HW1 9535   6.113  13.617   8.660
 2587SOL    HW2 9536   6.211  13.641   8.773
 2588SOL     OW 9537  12.227  13.141   3.220
 2588SOL    HW1 9538  12.245  13.074   3.153
 2588SOL    HW2 9539  12.155  13.192   3.183
 2589SOL     OW 9540   1.318   2.509   0.919
 2589SOL    HW1 9541   1.255   2.525   0.850
 2589SOL    HW2 9542   1.383   2.578   0.909
 2590SOL     OW 9543  13.753  10.653   7.479
 2590SOL    HW1 9544  13.752  10.656   7.384
 2590SOL    HW2 9545  13.736  10.743   7.506
 2591SOL     OW 9546   5.307   8.802  12.927
 2591SOL    HW1 9547   5.335   8.893  12.914
 2591SOL    HW2 9548   5.388   8.751  12.922
 2592SOL     OW 9549  11.945   8.066   8.959
 2592SOL    HW1 9550  11.883   8.027   8.897
 2592SOL    HW2 9551  11.909   8.047   9.045
 2593SOL     OW 9552   1.841   8.349   5.716
 2593SOL    HW1 9553   1.883   8.318   5.796
 2593SOL    HW2 9554   1.777   8.281   5.695
 2594SOL     OW 9555  11.934   9.941  14.550
 2594SOL    HW1 9556  12.027   9.948  14.531
 2594SOL    HW2 9557  11.891   9.976  14.472
 2595SOL     OW 9558   0.672   0.259   6.325
 2595SOL    HW1 9559   0.702   0.320   6.258
 2595SOL    HW2 9560   0.743   0.195   6.333
 2596SOL     OW 9561   2.580  13.634  12.261
 2596SOL    HW1 9562   2.656  13.678  12.299
 2596SOL    HW2 9563   2.616  13.582  12.189
 2597SOL     OW 9564   9.848   3.747  11.836
 2597SOL    HW1 9565   9.921   3.807  11.852
 2597SOL    HW2 9566   9.875   3.665  11.878
 2598SOL     OW 9567   3.949   3.986   3.228
 2598SOL    HW1 9568   3.919   3.913   3.283
 2598SOL    HW2 9569   3.887   4.057   3.248
 2599SOL     OW 9570   6.962  10.209   7.327
 2599SOL    HW1 9571   6.903  10.161   7.269
 2599SOL    HW2 9572   7.050  10.190   7.294
 2600SOL     OW 9573   4.686   8.181   8.469
 2600SOL    HW1 9574   4.716   8.093   8.490
 2600SOL    HW2 9575   4.760   8.238   8.492
 2601SOL     OW 9576   2.128   2.644   0.716
 2601SOL    HW1 9577   2.083   2.650   0.800
 2601SOL    HW2 9578   2.213   2.685   0.731
 2602SOL     OW 9579   9.436  12.840   8.149
 2602SOL    HW1 9580   9.522  12.801   8.166
 2602SOL    HW2 9581   9.453  12.934   8.142
 2603SOL     OW 9582   5.375  14.818  10.994
 2603SOL    HW1 9583   5.328  14.787  10.916
 2603SOL    HW2 9584   5.393   0.028  10.975
 2604SOL     OW 9585  10.977   6.166  13.697
 2604SOL    HW1 9586  11.064   6.207  13.698
 2604SOL    HW2 9587  10.936   6.198  13.617
 2605SOL     OW 9588  14.064  13.967  13.467
 2605SOL    HW1 9589  14.126  14.039  13.476
 2605SOL    HW2 9590  14.117  13.888  13.476
 2606SOL     OW 9591   4.087   3.047  11.565
 2606SOL    HW1 9592   4.031   2.980  11.605
 2606SOL    HW2 9593   4.115   3.102  11.637
 2607SOL     OW 9594   2.132   6.526   9.120
 2607SOL    HW1 9595   2.070   6.560   9.184
 2607SOL    HW2 9596   2.207   6.497   9.172
 2608SOL     OW 9597   5.882   7.398   2.687
 2608SOL    HW1 9598   5.814   7.405   2.619
 2608SOL    HW2 9599   5.838   7.352   2.759
 2609SOL     OW 9600   8.887   9.921   3.863
 2609SOL    HW1 9601   8.918   9.966   3.941
 2609SOL    HW2 9602   8.794   9.939   3.860
 2610SOL     OW 9603   8.901   5.092   1.577
 2610SOL    HW1 9604   8.954   5.029   1.527
 2610SOL    HW2 9605   8.895   5.169   1.520
 2611SOL     OW 9606   0.689   0.389  12.961
 2611SOL    HW1 9607   0.711   0.364  13.051
 2611SOL    HW2 9608   0.747   0.335  12.906
 2612SOL     OW 9609  10.099   0.767   5.717
 2612SOL    HW1 9610  10.132   0.785   5.629
 2612SOL    HW2 9611  10.130   0.840   5.770
 2613SOL     OW 9612   7.294   4.520   8.131
 2613SOL    HW1 9613   7.351   4.597   8.121
 2613SOL    HW2 9614   7.332   4.455   8.071
 2614SOL     OW 9615  14.441   8.112  12.781
 2614SOL    HW1 9616  14.382   8.159  12.722
 2614SOL    HW2 9617  14.472   8.179  12.843
 2615SOL     OW 9618  13.304   0.474  14.330
 2615SOL    HW1 9619  13.323   0.456  14.238
 2615SOL    HW2 9620  13.341   0.399  14.377
 2616SOL     OW 9621  10.413   6.052  12.530
 2616SOL    HW1 9622  10.495   6.003  12.542
 2616SOL    HW2 9623  10.414   6.079  12.438
 2617SOL     OW 9624  11.878   0.285   7.776
 2617SOL    HW1 9625  11.947   0.274   7.711
 2617SOL    HW2 9626  11.882   0.377   7.801
 2618SOL     OW 9627   6.374  11.888   8.644
 2618SOL    HW1 9628   6.338  11.976   8.633
 2618SOL    HW2 9629   6.388  11.879   8.738
 2619SOL     OW 9630   0.248  11.904   6.743
 2619SOL    HW1 9631   0.152  11.905   6.747
 2619SOL    HW2 9632   0.268  11.906   6.650
 2620SOL     OW 9633   6.911  13.160   8.937
 2620SOL    HW1 9634   6.887  13.075   8.899
 2620SOL    HW2 9635   6.875  13.158   9.026
 2621SOL     OW 9636   0.211  10.838   2.211
 2621SOL    HW1 9637   0.225  10.847   2.117
 2621SOL    HW2 9638   0.238  10.923   2.247
 2622SOL     OW 9639   1.005  10.120   4.196
 2622SOL    HW1 9640   1.091  10.098   4.159
 2622SOL    HW2 9641   1.022  10.136   4.289
 2623SOL     OW 9642  12.076   0.863   6.749
 2623SOL    HW1 9643  12.094   0.909   6.831
 2623SOL    HW2 9644  12.083   0.932   6.682
 2624SOL     OW 9645   8.060   5.876  11.542
 2624SOL    HW1 9646   7.992   5.835  11.488
 2624SOL    HW2 9647   8.019   5.957  11.574
 2625SOL     OW 9648  12.984   0.468   3.086
 2625SOL    HW1 9649  13.076   0.484   3.065
 2625SOL    HW2 9650  12.952   0.413   3.014
 2626SOL     OW 9651   2.306   3.754   2.560
 2626SOL    HW1 9652   2.210   3.753   2.566
 2626SOL    HW2 9653   2.335   3.704   2.637
 2627SOL     OW 9654   9.810   7.616   9.129
 2627SOL    HW1 9655   9.780   7.637   9.040
 2627SOL    HW2 9656   9.731   7.587   9.174
 2628SOL     OW 9657   2.723   1.459  11.051
 2628SOL    HW1 9658   2.691   1.473  10.962
 2628SOL    HW2 9659   2.768   1.540  11.074
 2629SOL     OW 9660   6.085   9.812  11.444
 2629SOL    HW1 9661   6.001   9.855  11.432
 2629SOL    HW2 9662   6.099   9.762  11.363
 2630SOL     OW 9663   8.188   0.944  11.445
 2630SOL    HW1 9664   8.152   0.956  11.357
 2630SOL    HW2 9665   8.189   1.032  11.483
 2631SOL     OW 9666   2.750  11.808   3.837
 2631SOL    HW1 9667   2.707  11.840   3.916
 2631SOL    HW2 9668   2.760  11.714   3.852
 2632SOL     OW 9669  12.085  11.523   7.372
 2632SOL    HW1 9670  12.037  11.540   7.291
 2632SOL    HW2 9671  12.027  11.464   7.421
 2633SOL     OW 9672  10.017  14.102  10.768
 2633SOL    HW1 9673   9.921  14.108  10.773
 2633SOL    HW2 9674  10.036  14.100  10.675
 2634SOL     OW 9675   0.459  13.651   1.351
 2634SOL    HW1 9676   0.497  13.588   1.412
 2634SOL    HW2 9677   0.530  13.711   1.330
 2635SOL     OW 9678   6.122  13.637  10.318
 2635SOL    HW1 9679   6.122  13.712  10.378
 2635SOL    HW2 9680   6.030  13.614  10.308
 2636SOL     OW 9681   3.770   8.403  11.755
 2636SOL    HW1 9682   3.773   8.310  11.777
 2636SOL    HW2 9683   3.754   8.405  11.660
 2637SOL     OW 9684  14.062  13.617  11.211
 2637SOL    HW1 9685  13.985  13.568  11.242
 2637SOL    HW2 9686  14.131  13.551  11.205
 2638SOL     OW 9687  10.427  10.195   5.822
 2638SOL    HW1 9688  10.358  10.209   5.757
 2638SOL    HW2 9689  10.471  10.280   5.829
 2639SOL     OW 9690  11.605   9.208  13.985
 2639SOL    HW1 9691  11.612   9.263  14.063
 2639SOL    HW2 9692  11.511   9.199  13.970
 2640SOL     OW 9693   3.839   8.069  10.617
 2640SOL    HW1 9694   3.806   7.999  10.562
 2640SOL    HW2 9695   3.768   8.134  10.620
 2641SOL     OW 9696   6.506  10.088   0.942
 2641SOL    HW1 9697   6.554  10.065   1.021
 2641SOL    HW2 9698   6.509  10.184   0.939
 2642SOL     OW 9699   5.815  13.559  14.211
 2642SOL    HW1 9700   5.842  13.573  14.120
 2642SOL    HW2 9701   5.870  13.487  14.241
 2643SOL     OW 9702  14.253   8.902   9.330
 2643SOL    HW1 9703  14.252   8.835   9.398
 2643SOL    HW2 9704  14.161   8.926   9.319
 2644SOL     OW 9705   7.096   2.545  14.724
 2644SOL    HW1 9706   7.017   2.505  14.689
 2644SOL    HW2 9707   7.080   2.554  14.818
 2645SOL     OW 9708   7.947   2.550  13.210
 2645SOL    HW1 9709   7.857   2.583  13.207
 2645SOL    HW2 9710   7.965   2.523  13.120
 2646SOL     OW 9711   5.892   7.683   9.328
 2646SOL    HW1 9712   5.802   7.655   9.343
 2646SOL    HW2 9713   5.918   7.726   9.409
 2647SOL     OW 9714   8.729  10.440   7.350
 2647SOL    HW1 9715   8.774  10.356   7.349
 2647SOL    HW2 9716   8.636  10.417   7.350
 2648SOL     OW 9717  11.494   3.428   3.843
 2648SOL    HW1 9718  11.481   3.485   3.767
 2648SOL    HW2 9719  11.413   3.436   3.893
 2649SOL     OW 9720   4.638   8.175   2.939
 2649SOL    HW1 9721   4.591   8.134   3.012
 2649SOL    HW2 9722   4.725   8.135   2.942
 2650SOL     OW 9723   5.967  11.110   6.023
 2650SOL    HW1 9724   5.971  11.175   5.952
 2650SOL    HW2 9725   6.015  11.149   6.095
 2651SOL     OW 9726   4.853   4.552  10.507
 2651SOL    HW1 9727   4.881   4.582  10.593
 2651SOL    HW2 9728   4.769   4.509  10.522
 2652SOL     OW 9729   8.741   4.379  10.303
 2652SOL    HW1 9730   8.674   4.362  10.237
 2652SOL    HW2 9731   8.819   4.334  10.270
 2653SOL     OW 9732   1.164  14.161  14.542
 2653SOL    HW1 9733   1.176  14.158  14.637
 2653SOL    HW2 9734   1.070  14.149  14.528
 2654SOL     OW 9735  10.820   7.289   5.558
 2654SOL    HW1 9736  10.876   7.242   5.620
 2654SOL    HW2 9737  10.774   7.220   5.510
 2655SOL     OW 9738   9.931  12.839   8.694
 2655SOL    HW1 9739   9.947  12.802   8.607
 2655SOL    HW2 9740   9.837  12.830   8.707
 2656SOL     OW 9741   1.343   3.832  13.117
 2656SOL    HW1 9742   1.274   3.767  13.107
 2656SOL    HW2 9743   1.375   3.819  13.207
 2657SOL     OW 9744  14.132  12.398   1.832
 2657SOL    HW1 9745  14.075  12.395   1.755
 2657SOL    HW2 9746  14.075  12.433   1.901
 2658SOL     OW 9747   9.418   3.726  10.976
 2658SOL    HW1 9748   9.345   3.697  11.030
 2658SOL    HW2 9749   9.496   3.693  11.020
 2659SOL     OW 9750   3.618  12.980   1.272
 2659SOL    HW1 9751   3.707  12.956   1.299
 2659SOL    HW2 9752   3.609  13.072   1.298
 2660SOL     OW 9753  12.969   9.232   2.389
 2660SOL    HW1 9754  13.043   9.212   2.446
 2660SOL    HW2 9755  12.927   9.148   2.373
 2661SOL     OW 9756   0.532   5.012   5.962
 2661SOL    HW1 9757   0.485   4.930   5.950
 2661SOL    HW2 9758   0.625   4.987   5.964
 2662SOL     OW 9759   8.946   4.503   0.748
 2662SOL    HW1 9760   9.031   4.541   0.727
 2662SOL    HW2 9761   8.954   4.476   0.840
 2663SOL     OW 9762   5.446  12.814   0.880
 2663SOL    HW1 9763   5.475  12.802   0.790
 2663SOL    HW2 9764   5.489  12.894   0.910
 2664SOL     OW 9765   5.761  10.118   1.776
 2664SOL    HW1 9766   5.748  10.027   1.804
 2664SOL    HW2 9767   5.769  10.113   1.681
 2665SOL     OW 9768   2.324   2.154   7.059
 2665SOL    HW1 9769   2.269   2.207   7.002
 2665SOL    HW2 9770   2.389   2.115   7.000
 2666SOL     OW 9771  14.823  13.279   1.124
 2666SOL    HW1 9772  14.847  13.187   1.129
 2666SOL    HW2 9773  14.753  13.290   1.188
 2667SOL     OW 9774   2.799  14.609   8.036
 2667SOL    HW1 9775   2.835  14.530   8.077
 2667SOL    HW2 9776   2.780  14.668   8.108
 2668SOL     OW 9777   6.283   0.576  11.249
 2668SOL    HW1 9778   6.352   0.641  11.237
 2668SOL    HW2 9779   6.326   0.492  11.236
 2669SOL     OW 9780   5.617  11.718   2.074
 2669SOL    HW1 9781   5.539  11.772   2.059
 2669SOL    HW2 9782   5.606  11.643   2.015
 2670SOL     OW 9783  13.954   3.275   4.500
 2670SOL    HW1 9784  14.033   3.318   4.466
 2670SOL    HW2 9785  13.935   3.321   4.582
 2671SOL     OW 9786   5.454  14.467   0.443
 2671SOL    HW1 9787   5.537  14.467   0.395
 2671SOL    HW2 9788   5.395  14.414   0.389
 2672SOL     OW 9789   6.258   4.923   1.350
 2672SOL    HW1 9790   6.259   4.905   1.256
 2672SOL    HW2 9791   6.240   4.838   1.390
 2673SOL     OW 9792   9.427  13.165   7.533
 2673SOL    HW1 9793   9.366  13.230   7.569
 2673SOL    HW2 9794   9.503  13.170   7.591
 2674SOL     OW 9795  14.225   5.028   0.936
 2674SOL    HW1 9796  14.248   4.937   0.914
 2674SOL    HW2 9797  14.287   5.081   0.885
 2675SOL     OW 9798  14.685  14.794   6.429
 2675SOL    HW1 9799  14.725  14.810   6.343
 2675SOL    HW2 9800  14.708  14.703   6.450
 2676SOL     OW 9801   9.536   9.982  12.034
 2676SOL    HW1 9802   9.584  10.023  12.106
 2676SOL    HW2 9803   9.482  10.053  11.998
 2677SOL     OW 9804  13.561   7.617   2.617
 2677SOL    HW1 9805  13.613   7.554   2.567
 2677SOL    HW2 9806  13.597   7.703   2.592
 2678SOL     OW 9807  13.520   8.684   3.019
 2678SOL    HW1 9808  13.590   8.748   3.007
 2678SOL    HW2 9809  13.460   8.725   3.082
 2679SOL     OW 9810   6.524   0.997   2.590
 2679SOL    HW1 9811   6.493   0.921   2.639
 2679SOL    HW2 9812   6.445   1.041   2.560
 2680SOL     OW 9813   0.650   1.552  13.210
 2680SOL    HW1 9814   0.622   1.539  13.300
 2680SOL    HW2 9815   0.630   1.469  13.166
 2681SOL     OW 9816   2.476   9.189  11.712
 2681SOL    HW1 9817   2.460   9.159  11.622
 2681SOL    HW2 9818   2.564   9.157  11.732
 2682SOL     OW 9819   5.075  11.993  13.075
 2682SOL    HW1 9820   5.049  12.085  13.070
 2682SOL    HW2 9821   5.012  11.947  13.019
 2683SOL     OW 9822   2.264  10.810   0.884
 2683SOL    HW1 9823   2.331  10.877   0.868
 2683SOL    HW2 9824   2.245  10.775   0.797
 2684SOL     OW 9825   6.490  13.710   4.308
 2684SOL    HW1 9826   6.396  13.697   4.294
 2684SOL    HW2 9827   6.532  13.655   4.242
 2685SOL     OW 9828  12.031   3.025  10.190
 2685SOL    HW1 9829  12.047   3.086  10.261
 2685SOL    HW2 9830  12.108   3.032  10.134
 2686SOL     OW 9831   7.724   3.801   8.986
 2686SOL    HW1 9832   7.687   3.713   8.989
 2686SOL    HW2 9833   7.760   3.809   8.898
 2687SOL     OW 9834   4.322  11.778  13.525
 2687SOL    HW1 9835   4.332  11.873  13.524
 2687SOL    HW2 9836   4.240  11.762  13.478
 2688SOL     OW 9837   6.408   7.644  11.168
 2688SOL    HW1 9838   6.476   7.647  11.235
 2688SOL    HW2 9839   6.348   7.715  11.190
 2689SOL     OW 9840   0.126  11.426  10.153
 2689SOL    HW1 9841   0.209  11.400  10.112
 2689SOL    HW2 9842   0.129  11.521  10.155
 2690SOL     OW 9843  11.786   5.268   2.749
 2690SOL    HW1 9844  11.854   5.268   2.816
 2690SOL    HW2 9845  11.756   5.178   2.744
 2691SOL     OW 9846  14.575   2.814  14.774
 2691SOL    HW1 9847  14.664   2.802  14.743
 2691SOL    HW2 9848  14.543   2.892  14.728
 2692SOL     OW 9849  13.268   2.966   7.784
 2692SOL    HW1 9850  13.323   2.887   7.783
 2692SOL    HW2 9851  13.326   3.035   7.751
 2693SOL     OW 9852  10.193   8.119   9.072
 2693SOL    HW1 9853  10.200   8.182   9.000
 2693SOL    HW2 9854  10.099   8.109   9.085
 2694SOL     OW 9855   8.572   8.707   4.227
 2694SOL    HW1 9856   8.542   8.642   4.290
 2694SOL    HW2 9857   8.607   8.656   4.154
 2695SOL     OW 9858  12.549   6.034  13.034
 2695SOL    HW1 9859  12.603   6.100  12.990
 2695SOL    HW2 9860  12.476   6.083  13.071
 2696SOL     OW 9861   6.969   4.067   5.402
 2696SOL    HW1 9862   6.993   3.978   5.379
 2696SOL    HW2 9863   6.897   4.089   5.342
 2697SOL     OW 9864   1.990  11.022  12.712
 2697SOL    HW1 9865   1.941  10.947  12.678
 2697SOL    HW2 9866   1.934  11.058  12.781
 2698SOL     OW 9867  11.819  13.761   7.641
 2698SOL    HW1 9868  11.847  13.817   7.713
 2698SOL    HW2 9869  11.900  13.734   7.598
 2699SOL     OW 9870   9.651  10.428   8.078
 2699SOL    HW1 9871   9.715  10.385   8.022
 2699SOL    HW2 9872   9.702  10.458   8.154
 2700SOL     OW 9873   8.310  13.876   7.073
 2700SOL    HW1 9874   8.353  13.829   7.001
 2700SOL    HW2 9875   8.375  13.940   7.102
 2701SOL     OW 9876   7.320   0.510   9.668
 2701SOL    HW1 9877   7.253   0.442   9.668
 2701SOL    HW2 9878   7.349   0.516   9.759
 2702SOL     OW 9879   8.498   9.554  12.095
 2702SOL    HW1 9880   8.416   9.531  12.050
 2702SOL    HW2 9881   8.559   9.576  12.025
 2703SOL     OW 9882   3.973   8.140   4.845
 2703SOL    HW1 9883   4.000   8.138   4.753
 2703SOL    HW2 9884   3.984   8.050   4.874
 2704SOL     OW 9885   2.050   1.018   4.347
 2704SOL    HW1 9886   1.990   1.053   4.281
 2704SOL    HW2 9887   2.111   0.963   4.298
 2705SOL     OW 9888  13.803   4.900  14.319
 2705SOL    HW1 9889  13.772   4.844  14.247
 2705SOL    HW2 9890  13.892   4.925  14.293
 2706SOL     OW 9891   8.555   1.551   6.740
 2706SOL    HW1 9892   8.523   1.625   6.791
 2706SOL    HW2 9893   8.567   1.586   6.651
 2707SOL     OW 9894   2.788   4.679  11.883
 2707SOL    HW1 9895   2.837   4.748  11.840
 2707SOL    HW2 9896   2.755   4.719  11.964
 2708SOL     OW 9897  10.395  10.493  11.581
 2708SOL    HW1 9898  10.462  10.517  11.645
 2708SOL    HW2 9899  10.354  10.576  11.556
 2709SOL     OW 9900   5.422  13.321   3.823
 2709SOL    HW1 9901   5.431  13.355   3.734
 2709SOL    HW2 9902   5.375  13.238   3.812
 2710SOL     OW 9903   6.264   5.894   2.573
 2710SOL    HW1 9904   6.311   5.945   2.639
 2710SOL    HW2 9905   6.249   5.809   2.615
 2711SOL     OW 9906   7.256   6.417  13.324
 2711SOL    HW1 9907   7.243   6.435  13.417
 2711SOL    HW2 9908   7.167   6.404  13.289
 2712SOL     OW 9909   3.439   5.783   6.024
 2712SOL    HW1 9910   3.402   5.795   6.111
 2712SOL    HW2 9911   3.455   5.871   5.992
 2713SOL     OW 9912   6.141   5.851   8.544
 2713SOL    HW1 9913   6.133   5.866   8.450
 2713SOL    HW2 9914   6.172   5.760   8.552
 2714SOL     OW 9915   5.434  10.183  11.048
 2714SOL    HW1 9916   5.438  10.228  10.963
 2714SOL    HW2 9917   5.517  10.205  11.091
 2715SOL     OW 9918   2.502   4.588   6.548
 2715SOL    HW1 9919   2.407   4.594   6.538
 2715SOL    HW2 9920   2.530   4.530   6.477
 2716SOL     OW 9921   3.335   6.594   9.304
 2716SOL    HW1 9922   3.367   6.541   9.377
 2716SOL    HW2 9923   3.393   6.671   9.304
 2717SOL     OW 9924  10.494  10.184   8.595
 2717SOL    HW1 9925  10.537  10.113   8.548
 2717SOL    HW2 9926  10.439  10.140   8.660
 2718SOL     OW 9927   1.138   4.702   4.700
 2718SOL    HW1 9928   1.194   4.643   4.750
 2718SOL    HW2 9929   1.053   4.658   4.696
 2719SOL     OW 9930   8.658  13.338  13.423
 2719SOL    HW1 9931   8.668  13.350  13.329
 2719SOL    HW2 9932   8.736  13.380  13.461
 2720SOL     OW 9933   7.618   5.820  12.208
 2720SOL    HW1 9934   7.651   5.827  12.118
 2720SOL    HW2 9935   7.644   5.902  12.250
 2721SOL     OW 9936   6.779   8.706   2.501
 2721SOL    HW1 9937   6.819   8.744   2.423
 2721SOL    HW2 9938   6.729   8.631   2.469
 2722SOL     OW 9939   8.866  12.617   1.863
 2722SOL    HW1 9940   8.828  12.555   1.801
 2722SOL    HW2 9941   8.811  12.695   1.854
 2723SOL     OW 9942   0.138   3.466   2.535
 2723SOL    HW1 9943   0.053   3.426   2.552
 2723SOL    HW2 9944   0.147   3.463   2.439
 2724SOL     OW 9945  14.809   5.963   5.374
 2724SOL    HW1 9946   0.000   5.922   5.421
 2724SOL    HW2 9947  14.836   6.055   5.365
 2725SOL     OW 9948  14.168  11.625   1.324
 2725SOL    HW1 9949  14.232  11.694   1.341
 2725SOL    HW2 9950  14.111  11.626   1.401
 2726SOL     OW 9951   6.378  10.876   6.594
 2726SOL    HW1 9952   6.325  10.870   6.674
 2726SOL    HW2 9953   6.468  10.876   6.625
 2727SOL     OW 9954   1.085   7.101   6.782
 2727SOL    HW1 9955   1.056   7.026   6.730
 2727SOL    HW2 9956   1.105   7.168   6.718
 2728SOL     OW 9957  11.842   3.539  10.047
 2728SOL    HW1 9958  11.793   3.558  10.126
 2728SOL    HW2 9959  11.777   3.542   9.977
 2729SOL     OW 9960   3.435   0.423   5.198
 2729SOL    HW1 9961   3.486   0.503   5.191
 2729SOL    HW2 9962   3.380   0.436   5.275
 2730SOL     OW 9963   2.005   7.311   3.648
 2730SOL    HW1 9964   2.046   7.394   3.670
 2730SOL    HW2 9965   2.067   7.244   3.678
 2731SOL     OW 9966  11.539  13.089   5.073
 2731SOL    HW1 9967  11.569  13.175   5.043
 2731SOL    HW2 9968  11.476  13.062   5.006
 2732SOL     OW 9969   8.039   1.391  12.236
 2732SOL    HW1 9970   8.051   1.369  12.143
 2732SOL    HW2 9971   8.098   1.465  12.250
 2733SOL     OW 9972  12.615   3.433  10.092
 2733SOL    HW1 9973  12.537   3.483  10.115
 2733SOL    HW2 9974  12.647   3.397  10.175
 2734SOL     OW 9975  13.252  12.455  13.579
 2734SOL    HW1 9976  13.233  12.376  13.630
 2734SOL    HW2 9977  13.215  12.436  13.492
 2735SOL     OW 9978  14.130  10.303  10.763
 2735SOL    HW1 9979  14.176  10.266  10.688
 2735SOL    HW2 9980  14.151  10.244  10.835
 2736SOL     OW 9981  13.565   1.606   5.517
 2736SOL    HW1 9982  13.597   1.679   5.464
 2736SOL    HW2 9983  13.599   1.528   5.473
 2737SOL     OW 9984  14.057   6.914   0.157
 2737SOL    HW1 9985  13.991   6.932   0.090
 2737SOL    HW2 9986  14.037   6.975   0.228
 2738SOL     OW 9987  12.787  13.864   3.676
 2738SOL    HW1 9988  12.746  13.941   3.637
 2738SOL    HW2 9989  12.833  13.898   3.753
 2739SOL     OW 9990   0.300   5.035   8.670
 2739SOL    HW1 9991   0.206   5.045   8.688
 2739SOL    HW2 9992   0.325   5.117   8.627
 2740SOL     OW 9993   5.364   6.724   3.931
 2740SOL    HW1 9994   5.310   6.800   3.951
 2740SOL    HW2 9995   5.443   6.736   3.983
 2741SOL     OW 9996   7.631   7.659   1.750
 2741SOL    HW1 9997   7.697   7.591   1.765
 2741SOL    HW2 9998   7.677   7.727   1.701
 2742SOL     OW 9999   3.536  11.024  11.188
 2742SOL    HW110000   3.531  11.061  11.276
 2742SOL    HW210001   3.457  10.972  11.178
 2743SOL     OW10002   6.352   6.483  11.449
 2743SOL    HW110003   6.342   6.397  11.489
 2743SOL    HW210004   6.441   6.482  11.413
 2744SOL     OW10005   3.640   6.436  10.602
 2744SOL    HW110006   3.563   6.492  10.609
 2744SOL    HW210007   3.698   6.467  10.672
 2745SOL     OW10008  12.662   2.541   9.384
 2745SOL    HW110009  12.682   2.613   9.323
 2745SOL    HW210010  12.574   2.560   9.415
 2746SOL     OW10011  12.867   3.219   2.111
 2746SOL    HW110012  12.852   3.165   2.034
 2746SOL    HW210013  12.955   3.255   2.099
 2747SOL     OW10014  12.434   3.729   2.536
 2747SOL    HW110015  12.509   3.670   2.543
 2747SOL    HW210016  12.456   3.788   2.465
 2748SOL     OW10017   8.636   2.800   9.075
 2748SOL    HW110018   8.583   2.769   9.002
 2748SOL    HW210019   8.631   2.895   9.069
 2749SOL     OW10020   9.569   1.791   1.265
 2749SOL    HW110021   9.518   1.770   1.343
 2749SOL    HW210022   9.564   1.886   1.258
 2750SOL     OW10023   1.470  13.257   3.726
 2750SOL    HW110024   1.498  13.184   3.781
 2750SOL    HW210025   1.481  13.226   3.636
 2751SOL     OW10026  13.541   8.734   6.167
 2751SOL    HW110027  13.455   8.771   6.188
 2751SOL    HW210028  13.591   8.807   6.130
 2752SOL     OW10029   2.778   7.212   2.414
 2752SOL    HW110030   2.855   7.256   2.378
 2752SOL    HW210031   2.745   7.272   2.481
 2753SOL     OW10032   8.754   4.442   4.997
 2753SOL    HW110033   8.700   4.450   5.076
 2753SOL    HW210034   8.698   4.397   4.934
 2754SOL     OW10035   1.734   2.880   4.002
 2754SOL    HW110036   1.773   2.837   4.078
 2754SOL    HW210037   1.696   2.961   4.036
 2755SOL     OW10038   3.614  14.497   3.287
 2755SOL    HW110039   3.589  14.498   3.379
 2755SOL    HW210040   3.673  14.422   3.279
 2756SOL     OW10041   8.660  13.706  13.195
 2756SOL    HW110042   8.565  13.717  13.190
 2756SOL    HW210043   8.695  13.763  13.126
 2757SOL     OW10044   2.566   2.662   5.010
 2757SOL    HW110045   2.606   2.635   4.927
 2757SOL    HW210046   2.639   2.689   5.065
 2758SOL     OW10047   6.528   0.212   6.387
 2758SOL    HW110048   6.528   0.306   6.402
 2758SOL    HW210049   6.453   0.197   6.329
 2759SOL     OW10050   0.239   2.049   3.737
 2759SOL    HW110051   0.151   2.014   3.742
 2759SOL    HW210052   0.283   1.996   3.670
 2760SOL     OW10053  13.893   5.670   4.265
 2760SOL    HW110054  13.981   5.694   4.234
 2760SOL    HW210055  13.834   5.708   4.200
 2761SOL     OW10056   1.589   4.105  13.298
 2761SOL    HW110057   1.494   4.098  13.292
 2761SOL    HW210058   1.605   4.193  13.331
 2762SOL     OW10059  14.395  11.759   9.716
 2762SOL    HW110060  14.412  11.700   9.642
 2762SOL    HW210061  14.417  11.846   9.682
 2763SOL     OW10062   9.664   3.974   5.836
 2763SOL    HW110063   9.688   4.045   5.896
 2763SOL    HW210064   9.569   3.980   5.827
 2764SOL     OW10065   1.465   8.071   9.170
 2764SOL    HW110066   1.378   8.036   9.189
 2764SOL    HW210067   1.499   8.101   9.255
 2765SOL     OW10068   2.810  10.260   6.079
 2765SOL    HW110069   2.732  10.234   6.129
 2765SOL    HW210070   2.854  10.323   6.136
 2766SOL     OW10071   0.622   9.666   3.972
 2766SOL    HW110072   0.566   9.593   3.997
 2766SOL    HW210073   0.570   9.744   3.992
 2767SOL     OW10074   1.308   6.189   9.431
 2767SOL    HW110075   1.279   6.174   9.521
 2767SOL    HW210076   1.254   6.129   9.379
 2768SOL     OW10077  10.209   0.819   8.326
 2768SOL    HW110078  10.201   0.750   8.261
 2768SOL    HW210079  10.302   0.824   8.345
 2769SOL     OW10080   1.321   4.171  11.851
 2769SOL    HW110081   1.287   4.241  11.907
 2769SOL    HW210082   1.356   4.216  11.774
 2770SOL     OW10083   6.606   9.850   6.616
 2770SOL    HW110084   6.686   9.895   6.586
 2770SOL    HW210085   6.618   9.760   6.588
 2771SOL     OW10086   8.825   1.173   5.273
 2771SOL    HW110087   8.742   1.126   5.287
 2771SOL    HW210088   8.800   1.253   5.227
 2772SOL     OW10089   4.787   9.112   9.435
 2772SOL    HW110090   4.828   9.089   9.352
 2772SOL    HW210091   4.754   9.028   9.469
 2773SOL     OW10092   0.725   4.620  10.421
 2773SOL    HW110093   0.788   4.683  10.384
 2773SOL    HW210094   0.769   4.536  10.414
 2774SOL     OW10095  11.827  11.398  12.235
 2774SOL    HW110096  11.881  11.474  12.214
 2774SOL    HW210097  11.856  11.330  12.174
 2775SOL     OW10098   9.953  14.018   9.101
 2775SOL    HW110099   9.912  14.103   9.114
 2775SOL    HW210100   9.911  13.961   9.166
 2776SOL     OW10101   1.440  12.517  13.630
 2776SOL    HW110102   1.466  12.597  13.676
 2776SOL    HW210103   1.346  12.509  13.647
 2777SOL     OW10104   2.111  14.558   9.677
 2777SOL    HW110105   2.183  14.498   9.697
 2777SOL    HW210106   2.086  14.594   9.762
 2778SOL     OW10107  10.447  13.816   8.272
 2778SOL    HW110108  10.439  13.867   8.353
 2778SOL    HW210109  10.509  13.746   8.294
 2779SOL     OW10110   0.960   4.029  12.720
 2779SOL    HW110111   0.919   3.947  12.748
 2779SOL    HW210112   0.897   4.097  12.746
 2780SOL     OW10113   8.105   5.747   7.266
 2780SOL    HW110114   8.024   5.730   7.219
 2780SOL    HW210115   8.173   5.746   7.198
 2781SOL     OW10116   1.843   3.540   7.915
 2781SOL    HW110117   1.873   3.625   7.885
 2781SOL    HW210118   1.786   3.508   7.845
 2782SOL     OW10119   4.770  11.842   2.508
 2782SOL    HW110120   4.776  11.749   2.486
 2782SOL    HW210121   4.676  11.859   2.514
 2783SOL     OW10122  14.576   0.109   5.567
 2783SOL    HW110123  14.669   0.118   5.586
 2783SOL    HW210124  14.567   0.146   5.479
 2784SOL     OW10125   7.697   1.918  14.163
 2784SOL    HW110126   7.700   1.922  14.258
 2784SOL    HW210127   7.746   1.838  14.141
 2785SOL     OW10128   9.148   5.143   6.689
 2785SOL    HW110129   9.149   5.055   6.727
 2785SOL    HW210130   9.171   5.201   6.761
 2786SOL     OW10131  12.146  12.990  13.541
 2786SOL    HW110132  12.112  12.988  13.451
 2786SOL    HW210133  12.206  12.916  13.546
 2787SOL     OW10134  11.115   8.371   0.582
 2787SOL    HW110135  11.076   8.414   0.506
 2787SOL    HW210136  11.209   8.375   0.567
 2788SOL     OW10137   9.129  11.311   9.658
 2788SOL    HW110138   9.075  11.388   9.645
 2788SOL    HW210139   9.122  11.292   9.752
 2789SOL     OW10140   9.056   0.565   5.435
 2789SOL    HW110141   8.986   0.598   5.491
 2789SOL    HW210142   9.094   0.492   5.485
 2790SOL     OW10143  12.730   7.735   9.672
 2790SOL    HW110144  12.758   7.825   9.653
 2790SOL    HW210145  12.803   7.698   9.723
 2791SOL     OW10146   6.112  12.376   0.274
 2791SOL    HW110147   6.105  12.280   0.275
 2791SOL    HW210148   6.187  12.394   0.218
 2792SOL     OW10149   6.378   8.094   9.980
 2792SOL    HW110150   6.452   8.153   9.995
 2792SOL    HW210151   6.308   8.129  10.035
 2793SOL     OW10152  13.068   8.720  11.817
 2793SOL    HW110153  13.064   8.813  11.840
 2793SOL    HW210154  13.036   8.717  11.727
 2794SOL     OW10155   9.642   8.888  11.423
 2794SOL    HW110156   9.657   8.933  11.340
 2794SOL    HW210157   9.556   8.846  11.414
 2795SOL     OW10158   4.971   6.614  13.327
 2795SOL    HW110159   4.996   6.687  13.385
 2795SOL    HW210160   4.897   6.573  13.372
 2796SOL     OW10161   0.968   3.894  11.416
 2796SOL    HW110162   1.041   3.939  11.457
 2796SOL    HW210163   1.009   3.821  11.369
 2797SOL     OW10164   3.430   1.594   9.902
 2797SOL    HW110165   3.420   1.620   9.810
 2797SOL    HW210166   3.520   1.617   9.924
 2798SOL     OW10167   6.248  13.066   2.744
 2798SOL    HW110168   6.215  13.156   2.745
 2798SOL    HW210169   6.336  13.073   2.781
 2799SOL     OW10170   8.539   8.584   3.775
 2799SOL    HW110171   8.531   8.489   3.780
 2799SOL    HW210172   8.450   8.614   3.753
 2800SOL     OW10173   7.080   0.957   5.981
 2800SOL    HW110174   7.035   0.916   6.055
 2800SOL    HW210175   7.087   1.049   6.006
 2801SOL     OW10176   0.999  13.306  11.778
 2801SOL    HW110177   0.904  13.312  11.787
 2801SOL    HW210178   1.013  13.291  11.684
 2802SOL     OW10179   5.685   1.394   8.767
 2802SOL    HW110180   5.601   1.360   8.797
 2802SOL    HW210181   5.688   1.484   8.800
 2803SOL     OW10182   0.497  11.332   3.525
 2803SOL    HW110183   0.506  11.351   3.432
 2803SOL    HW210184   0.585  11.347   3.561
 2804SOL     OW10185   0.533   8.743  10.140
 2804SOL    HW110186   0.625   8.732  10.115
 2804SOL    HW210187   0.511   8.662  10.187
 2805SOL     OW10188  13.739   2.977   4.668
 2805SOL    HW110189  13.796   3.046   4.704
 2805SOL    HW210190  13.650   3.010   4.680
 2806SOL     OW10191   2.668   8.494   9.409
 2806SOL    HW110192   2.744   8.539   9.372
 2806SOL    HW210193   2.690   8.401   9.403
 2807SOL     OW10194  13.284   0.207   9.075
 2807SOL    HW110195  13.204   0.175   9.034
 2807SOL    HW210196  13.255   0.275   9.135
 2808SOL     OW10197   9.650   5.127   6.063
 2808SOL    HW110198   9.611   5.189   6.124
 2808SOL    HW210199   9.619   5.154   5.977
 2809SOL     OW10200   8.785  13.792   4.301
 2809SOL    HW110201   8.880  13.786   4.305
 2809SOL    HW210202   8.756  13.782   4.391
 2810SOL     OW10203   2.659  10.517   0.856
 2810SOL    HW110204   2.636  10.494   0.946
 2810SOL    HW210205   2.667  10.613   0.857
 2811SOL     OW10206  10.446  10.558  13.180
 2811SOL    HW110207  10.371  10.614  13.160
 2811SOL    HW210208  10.473  10.524  13.095
 2812SOL     OW10209   8.170   1.424   1.688
 2812SOL    HW110210   8.183   1.518   1.699
 2812SOL    HW210211   8.177   1.410   1.594
 2813SOL     OW10212   8.251  13.468  11.245
 2813SOL    HW110213   8.205  13.393  11.208
 2813SOL    HW210214   8.317  13.430  11.303
 2814SOL     OW10215   6.542   5.898   0.573
 2814SOL    HW110216   6.583   5.984   0.579
 2814SOL    HW210217   6.592   5.853   0.505
 2815SOL     OW10218   3.672  11.184  14.292
 2815SOL    HW110219   3.616  11.200  14.216
 2815SOL    HW210220   3.644  11.250  14.357
 2816SOL     OW10221   2.822   2.365   4.802
 2816SOL    HW110222   2.890   2.299   4.818
 2816SOL    HW210223   2.745   2.315   4.777
 2817SOL     OW10224   5.379   4.891   3.469
 2817SOL    HW110225   5.425   4.893   3.385
 2817SOL    HW210226   5.371   4.798   3.489
 2818SOL     OW10227  11.906   6.460   9.418
 2818SOL    HW110228  11.912   6.407   9.339
 2818SOL    HW210229  11.814   6.486   9.423
 2819SOL     OW10230   1.754   3.237  10.035
 2819SOL    HW110231   1.765   3.326  10.001
 2819SOL    HW210232   1.840   3.214  10.070
 2820SOL     OW10233   9.459  12.111  14.881
 2820SOL    HW110234   9.417  12.097   0.085
 2820SOL    HW210235   9.546  12.072   0.010
 2821SOL     OW10236   1.776   7.539   5.630
 2821SOL    HW110237   1.808   7.587   5.554
 2821SOL    HW210238   1.846   7.546   5.695
 2822SOL     OW10239   5.956   6.452   8.319
 2822SOL    HW110240   5.924   6.526   8.268
 2822SOL    HW210241   5.971   6.487   8.406
 2823SOL     OW10242   6.589   1.756   9.451
 2823SOL    HW110243   6.588   1.836   9.398
 2823SOL    HW210244   6.546   1.781   9.533
 2824SOL     OW10245   4.878  13.609   2.374
 2824SOL    HW110246   4.846  13.620   2.463
 2824SOL    HW210247   4.896  13.698   2.343
 2825SOL     OW10248  11.613   8.457   6.090
 2825SOL    HW110249  11.705   8.431   6.079
 2825SOL    HW210250  11.574   8.387   6.141
 2826SOL     OW10251   7.532   4.370   4.276
 2826SOL    HW110252   7.466   4.411   4.220
 2826SOL    HW210253   7.616   4.394   4.236
 2827SOL     OW10254   1.546   2.055  13.670
 2827SOL    HW110255   1.587   2.112  13.735
 2827SOL    HW210256   1.483   2.111  13.625
 2828SOL     OW10257  11.075  13.054   3.164
 2828SOL    HW110258  11.170  13.070   3.168
 2828SOL    HW210259  11.041  13.125   3.111
 2829SOL     OW10260   8.280  12.973   5.979
 2829SOL    HW110261   8.355  12.940   5.930
 2829SOL    HW210262   8.288  13.068   5.973
 2830SOL     OW10263   5.563  13.780   2.083
 2830SOL    HW110264   5.647  13.735   2.090
 2830SOL    HW210265   5.520  13.737   2.009
 2831SOL     OW10266   4.769   3.833  10.917
 2831SOL    HW110267   4.800   3.744  10.906
 2831SOL    HW210268   4.741   3.860  10.830
 2832SOL     OW10269  10.355   9.631  14.212
 2832SOL    HW110270  10.353   9.715  14.166
 2832SOL    HW210271  10.294   9.576  14.163
 2833SOL     OW10272   5.287   3.534  10.091
 2833SOL    HW110273   5.321   3.486  10.166
 2833SOL    HW210274   5.195   3.548  10.110
 2834SOL     OW10275   8.441   0.375   2.664
 2834SOL    HW110276   8.498   0.299   2.662
 2834SOL    HW210277   8.441   0.403   2.756
 2835SOL     OW10278   7.694   4.816  11.416
 2835SOL    HW110279   7.685   4.741  11.356
 2835SOL    HW210280   7.775   4.798  11.464
 2836SOL     OW10281   8.447   8.367  13.013
 2836SOL    HW110282   8.424   8.401  12.927
 2836SOL    HW210283   8.365   8.372  13.063
 2837SOL     OW10284   7.185  11.877   8.927
 2837SOL    HW110285   7.270  11.918   8.936
 2837SOL    HW210286   7.204  11.786   8.903
 2838SOL     OW10287  12.756   7.713   6.527
 2838SOL    HW110288  12.703   7.705   6.448
 2838SOL    HW210289  12.803   7.630   6.533
 2839SOL     OW10290   9.502   3.528  13.907
 2839SOL    HW110291   9.556   3.512  13.829
 2839SOL    HW210292   9.549   3.596  13.954
 2840SOL     OW10293  12.581   6.401  10.678
 2840SOL    HW110294  12.514   6.444  10.625
 2840SOL    HW210295  12.589   6.313  10.640
 2841SOL     OW10296   2.861   6.649   8.427
 2841SOL    HW110297   2.872   6.745   8.427
 2841SOL    HW210298   2.838   6.628   8.517
 2842SOL     OW10299  11.541  11.425  10.356
 2842SOL    HW110300  11.459  11.475  10.351
 2842SOL    HW210301  11.525  11.359  10.423
 2843SOL     OW10302   5.525  13.621   4.790
 2843SOL    HW110303   5.437  13.651   4.767
 2843SOL    HW210304   5.511  13.561   4.864
 2844SOL     OW10305   8.967   9.911   5.118
 2844SOL    HW110306   9.050   9.911   5.165
 2844SOL    HW210307   8.930   9.824   5.135
 2845SOL     OW10308   1.010   3.947  10.833
 2845SOL    HW110309   1.024   4.004  10.909
 2845SOL    HW210310   0.942   3.886  10.861
 2846SOL     OW10311   4.130   3.431   9.083
 2846SOL    HW110312   4.080   3.355   9.055
 2846SOL    HW210313   4.105   3.444   9.174
 2847SOL     OW10314   5.903   2.260   1.983
 2847SOL    HW110315   5.917   2.330   1.919
 2847SOL    HW210316   5.818   2.222   1.959
 2848SOL     OW10317   9.688   4.822   4.126
 2848SOL    HW110318   9.774   4.843   4.087
 2848SOL    HW210319   9.709   4.777   4.208
 2849SOL     OW10320   3.803   9.494  14.047
 2849SOL    HW110321   3.772   9.545  14.122
 2849SOL    HW210322   3.758   9.409  14.056
 2850SOL     OW10323   6.020   2.076  10.996
 2850SOL    HW110324   5.997   2.033  11.078
 2850SOL    HW210325   6.047   2.004  10.938
 2851SOL     OW10326  13.281   6.579   3.374
 2851SOL    HW110327  13.266   6.645   3.307
 2851SOL    HW210328  13.376   6.578   3.387
 2852SOL     OW10329  11.069   8.520   2.718
 2852SOL    HW110330  11.146   8.562   2.758
 2852SOL    HW210331  10.994   8.564   2.758
 2853SOL     OW10332   1.562   3.986   6.013
 2853SOL    HW110333   1.517   3.931   5.949
 2853SOL    HW210334   1.502   3.992   6.087
 2854SOL     OW10335   1.633  11.613   4.858
 2854SOL    HW110336   1.595  11.696   4.829
 2854SOL    HW210337   1.592  11.596   4.942
 2855SOL     OW10338   5.292  14.151   2.996
 2855SOL    HW110339   5.316  14.119   2.908
 2855SOL    HW210340   5.197  14.147   2.997
 2856SOL     OW10341  12.104  12.593   1.532
 2856SOL    HW110342  12.136  12.503   1.535
 2856SOL    HW210343  12.052  12.598   1.452
 2857SOL     OW10344   0.961  13.602  11.217
 2857SOL    HW110345   0.874  13.576  11.185
 2857SOL    HW210346   0.992  13.664  11.152
 2858SOL     OW10347   2.431  13.647  13.343
 2858SOL    HW110348   2.426  13.666  13.249
 2858SOL    HW210349   2.482  13.720  13.380
 2859SOL     OW10350   5.294   7.940  12.246
 2859SOL    HW110351   5.234   8.007  12.214
 2859SOL    HW210352   5.375   7.988  12.265
 2860SOL     OW10353   3.067   9.835   0.286
 2860SOL    HW110354   2.988   9.827   0.339
 2860SOL    HW210355   3.132   9.873   0.345
 2861SOL     OW10356   6.864   8.776   4.044
 2861SOL    HW110357   6.784   8.828   4.052
 2861SOL    HW210358   6.926   8.834   3.998
 2862SOL     OW10359   6.079   8.507   9.204
 2862SOL    HW110360   6.004   8.566   9.209
 2862SOL    HW210361   6.041   8.419   9.206
 2863SOL     OW10362   6.651   7.771   9.726
 2863SOL    HW110363   6.629   7.841   9.665
 2863SOL    HW210364   6.633   7.807   9.813
 2864SOL     OW10365   0.467   7.580   4.144
 2864SOL    HW110366   0.457   7.673   4.124
 2864SOL    HW210367   0.385   7.556   4.186
 2865SOL     OW10368   1.680   8.229  11.730
 2865SOL    HW110369   1.734   8.308  11.735
 2865SOL    HW210370   1.723   8.166  11.788
 2866SOL     OW10371   7.123   2.792   7.659
 2866SOL    HW110372   7.194   2.763   7.601
 2866SOL    HW210373   7.112   2.721   7.722
 2867SOL     OW10374  10.644   2.171   1.918
 2867SOL    HW110375  10.688   2.247   1.957
 2867SOL    HW210376  10.650   2.103   1.985
 2868SOL     OW10377  14.165   7.470  10.940
 2868SOL    HW110378  14.111   7.517  11.004
 2868SOL    HW210379  14.115   7.392  10.919
 2869SOL     OW10380   8.928  12.004   9.147
 2869SOL    HW110381   9.002  12.038   9.097
 2869SOL    HW210382   8.940  12.040   9.235
 2870SOL     OW10383   8.246  13.539   9.877
 2870SOL    HW110384   8.216  13.537   9.786
 2870SOL    HW210385   8.288  13.455   9.891
 2871SOL     OW10386  14.826   7.135   9.887
 2871SOL    HW110387   0.023   7.100   9.929
 2871SOL    HW210388  14.815   7.222   9.925
 2872SOL     OW10389   2.956   3.274   5.609
 2872SOL    HW110390   2.895   3.204   5.634
 2872SOL    HW210391   2.973   3.321   5.690
 2873SOL     OW10392  13.234   8.552   0.284
 2873SOL    HW110393  13.256   8.627   0.339
 2873SOL    HW210394  13.268   8.574   0.198
 2874SOL     OW10395   6.155  10.560   5.828
 2874SOL    HW110396   6.128  10.648   5.805
 2874SOL    HW210397   6.126  10.549   5.919
 2875SOL     OW10398  11.058  11.590   1.604
 2875SOL    HW110399  11.065  11.541   1.522
 2875SOL    HW210400  11.117  11.664   1.594
 2876SOL     OW10401   9.933   3.611   6.161
 2876SOL    HW110402   9.899   3.523   6.145
 2876SOL    HW210403   9.857   3.669   6.152
 2877SOL     OW10404   3.459   7.135   6.875
 2877SOL    HW110405   3.506   7.195   6.817
 2877SOL    HW210406   3.399   7.191   6.925
 2878SOL     OW10407   0.902   0.647   6.451
 2878SOL    HW110408   0.903   0.712   6.381
 2878SOL    HW210409   0.921   0.564   6.407
 2879SOL     OW10410   8.209   7.510   7.943
 2879SOL    HW110411   8.251   7.485   8.025
 2879SOL    HW210412   8.207   7.606   7.946
 2880SOL     OW10413   0.394   1.751  10.831
 2880SOL    HW110414   0.307   1.720  10.858
 2880SOL    HW210415   0.449   1.673  10.834
 2881SOL     OW10416   2.961   6.961   3.221
 2881SOL    HW110417   2.962   7.015   3.142
 2881SOL    HW210418   2.894   6.895   3.204
 2882SOL     OW10419  10.692   5.481  14.166
 2882SOL    HW110420  10.604   5.465  14.132
 2882SOL    HW210421  10.679   5.540  14.240
 2883SOL     OW10422   2.236   3.799   2.900
 2883SOL    HW110423   2.278   3.714   2.903
 2883SOL    HW210424   2.306   3.860   2.878
 2884SOL     OW10425   5.946  14.635   8.329
 2884SOL    HW110426   5.858  14.596   8.333
 2884SOL    HW210427   5.986  14.593   8.253
 2885SOL     OW10428  11.702   0.130   9.005
 2885SOL    HW110429  11.641   0.124   8.932
 2885SOL    HW210430  11.712   0.040   9.035
 2886SOL     OW10431  10.343   3.821   2.131
 2886SOL    HW110432  10.345   3.732   2.096
 2886SOL    HW210433  10.427   3.859   2.104
 2887SOL     OW10434   5.345  12.813   6.352
 2887SOL    HW110435   5.341  12.836   6.259
 2887SOL    HW210436   5.427  12.851   6.383
 2888SOL     OW10437   3.426  10.353   1.815
 2888SOL    HW110438   3.364  10.282   1.830
 2888SOL    HW210439   3.381  10.412   1.755
 2889SOL     OW10440   3.994  14.349  10.186
 2889SOL    HW110441   4.063  14.283  10.184
 2889SOL    HW210442   3.945  14.335  10.106
 2890SOL     OW10443  10.332   6.420   2.401
 2890SOL    HW110444  10.314   6.446   2.491
 2890SOL    HW210445  10.324   6.500   2.350
 2891SOL     OW10446   5.302   6.975   6.522
 2891SOL    HW110447   5.349   7.027   6.457
 2891SOL    HW210448   5.321   7.018   6.605
 2892SOL     OW10449   3.209   9.089   9.129
 2892SOL    HW110450   3.118   9.058   9.130
 2892SOL    HW210451   3.262   9.010   9.134
 2893SOL     OW10452  12.078  14.132   3.858
 2893SOL    HW110453  12.101  14.042   3.881
 2893SOL    HW210454  12.122  14.186   3.923
 2894SOL     OW10455   2.103   0.326   7.110
 2894SOL    HW110456   2.179   0.273   7.136
 2894SOL    HW210457   2.043   0.263   7.070
 2895SOL     OW10458  11.163  10.464  13.331
 2895SOL    HW110459  11.247  10.428  13.304
 2895SOL    HW210460  11.184  10.524  13.403
 2896SOL     OW10461   7.667   1.158   3.054
 2896SOL    HW110462   7.579   1.177   3.085
 2896SOL    HW210463   7.658   1.077   3.003
 2897SOL     OW10464   0.574   3.987   2.517
 2897SOL    HW110465   0.578   3.974   2.422
 2897SOL    HW210466   0.629   4.064   2.533
 2898SOL     OW10467  11.709   7.871   9.643
 2898SOL    HW110468  11.737   7.944   9.698
 2898SOL    HW210469  11.673   7.912   9.564
 2899SOL     OW10470   2.852   3.552   5.764
 2899SOL    HW110471   2.806   3.634   5.751
 2899SOL    HW210472   2.809   3.512   5.839
 2900SOL     OW10473  10.224   3.172   1.300
 2900SOL    HW110474  10.228   3.080   1.325
 2900SOL    HW210475  10.250   3.173   1.208
 2901SOL     OW10476  11.892  13.900  10.877
 2901SOL    HW110477  11.961  13.961  10.855
 2901SOL    HW210478  11.886  13.841  10.802
 2902SOL     OW10479  13.545  13.510   3.354
 2902SOL    HW110480  13.493  13.536   3.430
 2902SOL    HW210481  13.612  13.578   3.346
 2903SOL     OW10482   2.220  10.108   7.912
 2903SOL    HW110483   2.253  10.189   7.874
 2903SOL    HW210484   2.197  10.053   7.837
 2904SOL     OW10485   1.134  10.096   3.142
 2904SOL    HW110486   1.097  10.121   3.057
 2904SOL    HW210487   1.168  10.008   3.128
 2905SOL     OW10488  10.497   0.712   8.660
 2905SOL    HW110489  10.405   0.693   8.678
 2905SOL    HW210490  10.517   0.659   8.583
 2906SOL     OW10491   1.702   6.539   7.965
 2906SOL    HW110492   1.655   6.616   7.998
 2906SOL    HW210493   1.687   6.541   7.870
 2907SOL     OW10494  12.000  12.189   6.610
 2907SOL    HW110495  12.062  12.257   6.636
 2907SOL    HW210496  11.916  12.218   6.646
 2908SOL     OW10497  13.167   6.636   4.783
 2908SOL    HW110498  13.172   6.540   4.781
 2908SOL    HW210499  13.126   6.660   4.700
 2909SOL     OW10500   2.354  11.396   1.505
 2909SOL    HW110501   2.445  11.403   1.535
 2909SOL    HW210502   2.360  11.400   1.409
 2910SOL     OW10503  12.183  13.617  14.753
 2910SOL    HW110504  12.205  13.561  14.827
 2910SOL    HW210505  12.095  13.649  14.772
 2911SOL     OW10506   8.038   7.381  14.574
 2911SOL    HW110507   7.962   7.333  14.541
 2911SOL    HW210508   8.044   7.356  14.666
 2912SOL     OW10509   8.640   8.404   7.335
 2912SOL    HW110510   8.586   8.463   7.282
 2912SOL    HW210511   8.611   8.316   7.311
 2913SOL     OW10512   4.066  12.468   8.422
 2913SOL    HW110513   4.090  12.461   8.514
 2913SOL    HW210514   3.997  12.403   8.410
 2914SOL     OW10515  14.869   7.444   9.199
 2914SOL    HW110516  14.821   7.390   9.136
 2914SOL    HW210517   0.070   7.397   9.213
 2915SOL     OW10518  12.740  11.479   9.619
 2915SOL    HW110519  12.700  11.566   9.611
 2915SOL    HW210520  12.706  11.430   9.544
 2916SOL     OW10521   3.552   6.591  11.702
 2916SOL    HW110522   3.538   6.536  11.625
 2916SOL    HW210523   3.646   6.609  11.703
 2917SOL     OW10524  11.558   2.466   1.318
 2917SOL    HW110525  11.517   2.552   1.307
 2917SOL    HW210526  11.544   2.423   1.233
 2918SOL     OW10527   4.941   7.324  12.210
 2918SOL    HW110528   4.973   7.403  12.166
 2918SOL    HW210529   4.964   7.337  12.302
 2919SOL     OW10530   2.359  10.766   7.647
 2919SOL    HW110531   2.413  10.795   7.720
 2919SOL    HW210532   2.269  10.782   7.677
 2920SOL     OW10533   0.950  11.318   1.359
 2920SOL    HW110534   0.979  11.230   1.382
 2920SOL    HW210535   1.031  11.367   1.346
 2921SOL     OW10536   9.956  10.862   6.263
 2921SOL    HW110537   9.955  10.775   6.304
 2921SOL    HW210538   9.914  10.919   6.327
 2922SOL     OW10539   4.796   8.175   7.813
 2922SOL    HW110540   4.754   8.256   7.787
 2922SOL    HW210541   4.857   8.156   7.741
 2923SOL     OW10542   4.105   2.325   6.734
 2923SOL    HW110543   4.151   2.241   6.737
 2923SOL    HW210544   4.013   2.302   6.743
 2924SOL     OW10545   6.838  14.657   8.211
 2924SOL    HW110546   6.798  14.728   8.262
 2924SOL    HW210547   6.766  14.621   8.160
 2925SOL     OW10548   1.252   9.969   5.037
 2925SOL    HW110549   1.230   9.897   5.096
 2925SOL    HW210550   1.167  10.006   5.012
 2926SOL     OW10551   3.707  10.630   8.736
 2926SOL    HW110552   3.619  10.618   8.702
 2926SOL    HW210553   3.741  10.706   8.689
 2927SOL     OW10554   0.857  11.704   1.627
 2927SOL    HW110555   0.892  11.784   1.668
 2927SOL    HW210556   0.803  11.665   1.695
 2928SOL     OW10557   5.633   2.628   1.433
 2928SOL    HW110558   5.631   2.675   1.517
 2928SOL    HW210559   5.556   2.571   1.436
 2929SOL     OW10560  13.966  11.816   3.525
 2929SOL    HW110561  13.945  11.867   3.604
 2929SOL    HW210562  14.007  11.736   3.558
 2930SOL     OW10563  10.961   6.039  13.953
 2930SOL    HW110564  11.053   6.016  13.968
 2930SOL    HW210565  10.961   6.080  13.866
 2931SOL     OW10566  13.594   0.579   8.068
 2931SOL    HW110567  13.595   0.497   8.117
 2931SOL    HW210568  13.648   0.639   8.119
 2932SOL     OW10569   8.101   2.172  12.418
 2932SOL    HW110570   8.100   2.259  12.378
 2932SOL    HW210571   8.177   2.129  12.379
 2933SOL     OW10572  14.459  12.740   3.387
 2933SOL    HW110573  14.504  12.657   3.371
 2933SOL    HW210574  14.436  12.737   3.480
 2934SOL     OW10575   5.535   7.569   0.170
 2934SOL    HW110576   5.567   7.531   0.252
 2934SOL    HW210577   5.459   7.621   0.195
 2935SOL     OW10578   5.137   0.053   0.580
 2935SOL    HW110579   5.058   0.077   0.534
 2935SOL    HW210580   5.164  14.851   0.541
 2936SOL     OW10581   2.947   7.878   4.059
 2936SOL    HW110582   3.026   7.929   4.077
 2936SOL    HW210583   2.921   7.844   4.145
 2937SOL     OW10584   5.232   0.751   4.182
 2937SOL    HW110585   5.235   0.766   4.087
 2937SOL    HW210586   5.193   0.831   4.217
 2938SOL     OW10587  13.814   9.649   5.089
 2938SOL    HW110588  13.885   9.689   5.039
 2938SOL    HW210589  13.833   9.555   5.087
 2939SOL     OW10590   4.364   1.733  14.604
 2939SOL    HW110591   4.428   1.662  14.602
 2939SOL    HW210592   4.415   1.810  14.631
 2940SOL     OW10593   5.353   1.451  13.110
 2940SOL    HW110594   5.410   1.419  13.180
 2940SOL    HW210595   5.358   1.546  13.116
 2941SOL     OW10596   7.868   4.853   2.418
 2941SOL    HW110597   7.929   4.815   2.481
 2941SOL    HW210598   7.913   4.845   2.334
 2942SOL     OW10599  13.315  11.826   6.507
 2942SOL    HW110600  13.353  11.771   6.439
 2942SOL    HW210601  13.315  11.771   6.586
 2943SOL     OW10602  11.737   4.598  11.252
 2943SOL    HW110603  11.647   4.598  11.220
 2943SOL    HW210604  11.787   4.640  11.181
 2944SOL     OW10605  10.615   6.787   3.737
 2944SOL    HW110606  10.638   6.792   3.644
 2944SOL    HW210607  10.521   6.806   3.739
 2945SOL     OW10608   9.153  13.907   9.000
 2945SOL    HW110609   9.194  13.843   9.060
 2945SOL    HW210610   9.093  13.956   9.056
 2946SOL     OW10611   8.601   3.768  10.193
 2946SOL    HW110612   8.535   3.821  10.148
 2946SOL    HW210613   8.574   3.677  10.176
 2947SOL     OW10614   5.432   7.256  13.505
 2947SOL    HW110615   5.445   7.187  13.440
 2947SOL    HW210616   5.359   7.308  13.471
 2948SOL     OW10617   9.499   9.335   1.040
 2948SOL    HW110618   9.585   9.328   0.999
 2948SOL    HW210619   9.516   9.318   1.133
 2949SOL     OW10620  11.001   4.746   3.137
 2949SOL    HW110621  11.096   4.732   3.134
 2949SOL    HW210622  10.972   4.699   3.215
 2950SOL     OW10623   0.731   9.204  11.588
 2950SOL    HW110624   0.789   9.152  11.643
 2950SOL    HW210625   0.761   9.294  11.601
 2951SOL     OW10626   7.534   6.878  10.836
 2951SOL    HW110627   7.619   6.870  10.881
 2951SOL    HW210628   7.523   6.972  10.822
 2952SOL     OW10629   4.705   8.161  11.726
 2952SOL    HW110630   4.692   8.255  11.711
 2952SOL    HW210631   4.681   8.148  11.817
 2953SOL     OW10632   9.610   6.712   2.477
 2953SOL    HW110633   9.573   6.712   2.389
 2953SOL    HW210634   9.651   6.798   2.486
 2954SOL     OW10635   9.794   4.543   8.376
 2954SOL    HW110636   9.753   4.557   8.461
 2954SOL    HW210637   9.746   4.470   8.338
 2955SOL     OW10638  10.193   5.552  12.596
 2955SOL    HW110639  10.246   5.630  12.580
 2955SOL    HW210640  10.143   5.572  12.675
 2956SOL     OW10641   0.187  10.206   9.088
 2956SOL    HW110642   0.197  10.112   9.100
 2956SOL    HW210643   0.269  10.243   9.121
 2957SOL     OW10644   0.312  13.737   1.634
 2957SOL    HW110645   0.319  13.691   1.719
 2957SOL    HW210646   0.400  13.769   1.617
 2958SOL     OW10647   0.682   5.205   1.903
 2958SOL    HW110648   0.751   5.269   1.887
 2958SOL    HW210649   0.721   5.121   1.878
 2959SOL     OW10650   4.611   8.433   9.962
 2959SOL    HW110651   4.660   8.508   9.929
 2959SOL    HW210652   4.668   8.394  10.029
 2960SOL     OW10653   2.491   3.915  13.869
 2960SOL    HW110654   2.571   3.905  13.921
 2960SOL    HW210655   2.522   3.957  13.788
 2961SOL     OW10656  12.701   3.756  10.739
 2961SOL    HW110657  12.642   3.691  10.703
 2961SOL    HW210658  12.644   3.830  10.762
 2962SOL     OW10659   4.164   3.568   5.718
 2962SOL    HW110660   4.148   3.656   5.752
 2962SOL    HW210661   4.208   3.523   5.791
 2963SOL     OW10662  11.670   0.710   8.947
 2963SOL    HW110663  11.597   0.749   8.994
 2963SOL    HW210664  11.748   0.740   8.994
 2964SOL     OW10665   1.394   1.250   9.103
 2964SOL    HW110666   1.478   1.259   9.147
 2964SOL    HW210667   1.353   1.336   9.110
 2965SOL     OW10668  12.889  13.031  12.708
 2965SOL    HW110669  12.935  12.985  12.778
 2965SOL    HW210670  12.797  13.022  12.730
 2966SOL     OW10671   1.147   0.598   8.561
 2966SOL    HW110672   1.134   0.670   8.623
 2966SOL    HW210673   1.231   0.616   8.520
 2967SOL     OW10674   6.287   6.222  10.582
 2967SOL    HW110675   6.262   6.142  10.534
 2967SOL    HW210676   6.274   6.199  10.674
 2968SOL     OW10677   4.941  10.594  14.752
 2968SOL    HW110678   4.887  10.668  14.726
 2968SOL    HW210679   5.030  10.629  14.760
 2969SOL     OW10680   0.096  10.495   5.004
 2969SOL    HW110681   0.176  10.443   5.014
 2969SOL    HW210682   0.066  10.475   4.915
 2970SOL     OW10683  14.132   6.918   1.684
 2970SOL    HW110684  14.120   6.985   1.617
 2970SOL    HW210685  14.214   6.876   1.662
 2971SOL     OW10686   2.886   3.347   2.811
 2971SOL    HW110687   2.949   3.280   2.787
 2971SOL    HW210688   2.936   3.408   2.866
 2972SOL     OW10689  11.794  12.460   1.760
 2972SOL    HW110690  11.879  12.418   1.764
 2972SOL    HW210691  11.767  12.452   1.669
 2973SOL     OW10692  11.564   7.831  11.392
 2973SOL    HW110693  11.540   7.910  11.441
 2973SOL    HW210694  11.513   7.761  11.433
 2974SOL     OW10695   2.570  10.681  10.202
 2974SOL    HW110696   2.518  10.761  10.195
 2974SOL    HW210697   2.544  10.629  10.126
 2975SOL     OW10698   4.584  10.753   1.879
 2975SOL    HW110699   4.577  10.843   1.846
 2975SOL    HW210700   4.534  10.701   1.816
 2976SOL     OW10701  12.208   7.295   8.944
 2976SOL    HW110702  12.212   7.386   8.914
 2976SOL    HW210703  12.209   7.243   8.863
 2977SOL     OW10704   6.834   6.049   4.073
 2977SOL    HW110705   6.769   6.068   4.005
 2977SOL    HW210706   6.880   6.132   4.087
 2978SOL     OW10707   1.993   1.756   0.798
 2978SOL    HW110708   2.038   1.681   0.836
 2978SOL    HW210709   1.992   1.821   0.869
 2979SOL     OW10710   5.407   5.689   2.368
 2979SOL    HW110711   5.336   5.657   2.423
 2979SOL    HW210712   5.433   5.772   2.409
 2980SOL     OW10713  14.881  12.380  14.126
 2980SOL    HW110714   0.087  12.418  14.122
 2980SOL    HW210715   0.002  12.310  14.060
 2981SOL     OW10716  12.646  11.900   9.919
 2981SOL    HW110717  12.645  11.862  10.007
 2981SOL    HW210718  12.737  11.895   9.891
 2982SOL     OW10719   8.455   2.261  12.863
 2982SOL    HW110720   8.392   2.329  12.837
 2982SOL    HW210721   8.449   2.259  12.959
 2983SOL     OW10722   0.122  11.617   8.026
 2983SOL    HW110723   0.179  11.669   8.083
 2983SOL    HW210724   0.036  11.620   8.070
 2984SOL     OW10725   8.778  14.220   6.980
 2984SOL    HW110726   8.799  14.212   6.887
 2984SOL    HW210727   8.862  14.239   7.022
 2985SOL     OW10728   3.344  13.997   0.652
 2985SOL    HW110729   3.392  13.915   0.640
 2985SOL    HW210730   3.263  13.971   0.695
 2986SOL     OW10731  12.317   0.494  14.671
 2986SOL    HW110732  12.265   0.414  14.679
 2986SOL    HW210733  12.402   0.464  14.639
 2987SOL     OW10734  10.007   0.954  13.513
 2987SOL    HW110735   9.959   0.878  13.544
 2987SOL    HW210736  10.099   0.927  13.517
 2988SOL     OW10737  12.023   0.878   9.838
 2988SOL    HW110738  12.082   0.889   9.912
 2988SOL    HW210739  12.080   0.878   9.761
 2989SOL     OW10740   8.479   4.858  11.171
 2989SOL    HW110741   8.412   4.843  11.237
 2989SOL    HW210742   8.552   4.803  11.198
 2990SOL     OW10743   7.207   5.340   1.271
 2990SOL    HW110744   7.118   5.304   1.272
 2990SOL    HW210745   7.208   5.399   1.195
 2991SOL     OW10746   4.478  10.633   1.355
 2991SOL    HW110747   4.492  10.601   1.266
 2991SOL    HW210748   4.409  10.576   1.390
 2992SOL     OW10749   5.384   5.929   6.025
 2992SOL    HW110750   5.355   5.839   6.013
 2992SOL    HW210751   5.422   5.930   6.113
 2993SOL     OW10752  12.287  14.368   3.280
 2993SOL    HW110753  12.201  14.326   3.279
 2993SOL    HW210754  12.279  14.440   3.218
 2994SOL     OW10755   8.920   1.326   9.229
 2994SOL    HW110756   9.007   1.310   9.264
 2994SOL    HW210757   8.867   1.253   9.262
 2995SOL     OW10758   0.312   5.484   3.709
 2995SOL    HW110759   0.384   5.427   3.735
 2995SOL    HW210760   0.342   5.572   3.731
 2996SOL     OW10761  11.056   1.015   7.259
 2996SOL    HW110762  11.114   0.971   7.197
 2996SOL    HW210763  11.024   1.091   7.211
 2997SOL     OW10764   6.319   7.996  11.826
 2997SOL    HW110765   6.370   8.013  11.747
 2997SOL    HW210766   6.322   7.900  11.836
 2998SOL     OW10767   6.266   2.886  12.722
 2998SOL    HW110768   6.250   2.951  12.791
 2998SOL    HW210769   6.299   2.809  12.769
 2999SOL     OW10770  10.372  14.530   6.492
 2999SOL    HW110771  10.317  14.462   6.454
 2999SOL    HW210772  10.461  14.496   6.485
 3000SOL     OW10773   1.880   6.966   1.963
 3000SOL    HW110774   1.812   6.997   2.023
 3000SOL    HW210775   1.944   7.037   1.960
 3001SOL     OW10776  11.034   9.813  11.392
 3001SOL    HW110777  10.995   9.761  11.321
 3001SOL    HW210778  11.082   9.749  11.445
 3002SOL     OW10779  11.758   2.402   6.748
 3002SOL    HW110780  11.752   2.488   6.708
 3002SOL    HW210781  11.668   2.382   6.776
 3003SOL     OW10782   1.900   3.871  14.090
 3003SOL    HW110783   1.813   3.843  14.120
 3003SOL    HW210784   1.947   3.790  14.072
 3004SOL     OW10785  13.425   8.459   3.298
 3004SOL    HW110786  13.415   8.383   3.240
 3004SOL    HW210787  13.394   8.533   3.245
 3005SOL     OW10788  10.962  13.053  12.413
 3005SOL    HW110789  10.924  12.968  12.434
 3005SOL    HW210790  10.925  13.076  12.328
 3006SOL     OW10791  12.546   1.399  11.403
 3006SOL    HW110792  12.641   1.387  11.404
 3006SOL    HW210793  12.532   1.478  11.351
 3007SOL     OW10794   2.975  11.049  12.202
 3007SOL    HW110795   2.975  11.145  12.207
 3007SOL    HW210796   2.889  11.024  12.238
 3008SOL     OW10797   1.093   7.920   6.397
 3008SOL    HW110798   1.032   7.908   6.324
 3008SOL    HW210799   1.037   7.945   6.471
 3009SOL     OW10800   0.242   0.912   1.645
 3009SOL    HW110801   0.224   0.819   1.654
 3009SOL    HW210802   0.167   0.955   1.684
 3010SOL     OW10803   4.870   7.118   2.294
 3010SOL    HW110804   4.826   7.092   2.213
 3010SOL    HW210805   4.813   7.184   2.332
 3011SOL     OW10806   0.989   1.152  10.943
 3011SOL    HW110807   1.083   1.163  10.956
 3011SOL    HW210808   0.965   1.221  10.882
 3012SOL     OW10809   8.768  12.688   7.745
 3012SOL    HW110810   8.799  12.759   7.688
 3012SOL    HW210811   8.687  12.722   7.783
 3013SOL     OW10812   0.015   3.964   4.644
 3013SOL    HW110813  14.812   3.999   4.674
 3013SOL    HW210814   0.022   3.879   4.687
 3014SOL     OW10815   6.446   9.503  13.802
 3014SOL    HW110816   6.499   9.442  13.854
 3014SOL    HW210817   6.463   9.479  13.711
 3015SOL     OW10818   3.297   1.919  14.227
 3015SOL    HW110819   3.225   1.955  14.175
 3015SOL    HW210820   3.271   1.829  14.245
 3016SOL     OW10821   7.949   4.776   5.677
 3016SOL    HW110822   7.931   4.753   5.586
 3016SOL    HW210823   7.864   4.801   5.713
 3017SOL     OW10824  14.068   8.200   0.339
 3017SOL    HW110825  14.068   8.286   0.297
 3017SOL    HW210826  14.161   8.177   0.345
 3018SOL     OW10827  11.454   1.982  14.198
 3018SOL    HW110828  11.423   1.922  14.266
 3018SOL    HW210829  11.542   1.952  14.178
 3019SOL     OW10830  14.815   8.471   4.892
 3019SOL    HW110831  14.780   8.457   4.804
 3019SOL    HW210832  14.750   8.527   4.934
 3020SOL     OW10833  14.595   2.120   5.304
 3020SOL    HW110834  14.619   2.211   5.322
 3020SOL    HW210835  14.521   2.103   5.362
 3021SOL     OW10836  14.287   7.651   4.950
 3021SOL    HW110837  14.353   7.672   5.016
 3021SOL    HW210838  14.240   7.576   4.986
 3022SOL     OW10839  12.054  13.695   7.450
 3022SOL    HW110840  12.078  13.787   7.441
 3022SOL    HW210841  12.054  13.662   7.360
 3023SOL     OW10842   6.297   4.431   8.274
 3023SOL    HW110843   6.247   4.484   8.212
 3023SOL    HW210844   6.231   4.398   8.336
 3024SOL     OW10845  12.904   0.966  14.579
 3024SOL    HW110846  12.931   0.879  14.547
 3024SOL    HW210847  12.967   1.026  14.539
 3025SOL     OW10848   0.356   4.378   0.323
 3025SOL    HW110849   0.429   4.318   0.307
 3025SOL    HW210850   0.369   4.449   0.259
 3026SOL     OW10851   9.482  12.750  13.636
 3026SOL    HW110852   9.394  12.770  13.605
 3026SOL    HW210853   9.477  12.659  13.666
 3027SOL     OW10854  11.348   4.906   0.031
 3027SOL    HW110855  11.294   4.958   0.090
 3027SOL    HW210856  11.293   4.892  14.835
 3028SOL     OW10857  10.111   6.159  11.162
 3028SOL    HW110858  10.021   6.128  11.175
 3028SOL    HW210859  10.111   6.247  11.201
 3029SOL     OW10860  10.208  10.376   8.716
 3029SOL    HW110861  10.192  10.423   8.634
 3029SOL    HW210862  10.266  10.434   8.766
 3030SOL     OW10863   8.533   4.973   5.373
 3030SOL    HW110864   8.561   5.063   5.391
 3030SOL    HW210865   8.604   4.936   5.321
 3031SOL     OW10866  11.711  11.430   1.927
 3031SOL    HW110867  11.768  11.422   1.851
 3031SOL    HW210868  11.766  11.473   1.993
 3032SOL     OW10869   0.286   6.436   6.632
 3032SOL    HW110870   0.359   6.374   6.628
 3032SOL    HW210871   0.207   6.382   6.630
 3033SOL     OW10872   3.545   1.062   1.449
 3033SOL    HW110873   3.516   0.995   1.387
 3033SOL    HW210874   3.620   1.104   1.407
 3034SOL     OW10875   6.723   4.801   8.982
 3034SOL    HW110876   6.791   4.763   8.927
 3034SOL    HW210877   6.767   4.822   9.065
 3035SOL     OW10878   1.093   3.006   1.701
 3035SOL    HW110879   1.136   3.006   1.786
 3035SOL    HW210880   1.127   2.930   1.656
 3036SOL     OW10881   3.642  13.230   5.273
 3036SOL    HW110882   3.683  13.252   5.189
 3036SOL    HW210883   3.587  13.154   5.253
 3037SOL     OW10884   4.767   1.852   1.086
 3037SOL    HW110885   4.798   1.789   1.151
 3037SOL    HW210886   4.688   1.889   1.125
 3038SOL     OW10887  10.506   5.178  14.301
 3038SOL    HW110888  10.521   5.270  14.278
 3038SOL    HW210889  10.453   5.143  14.229
 3039SOL     OW10890   5.670  11.619   5.473
 3039SOL    HW110891   5.669  11.670   5.392
 3039SOL    HW210892   5.731  11.666   5.530
 3040SOL     OW10893   3.750   8.109   0.126
 3040SOL    HW110894   3.690   8.148   0.189
 3040SOL    HW210895   3.728   8.016   0.126
 3041SOL     OW10896   4.109   6.561  12.898
 3041SOL    HW110897   4.131   6.469  12.912
 3041SOL    HW210898   4.176   6.610  12.946
 3042SOL     OW10899   0.334   9.576   1.641
 3042SOL    HW110900   0.395   9.623   1.697
 3042SOL    HW210901   0.371   9.582   1.553
 3043SOL     OW10902   0.806   1.807   1.159
 3043SOL    HW110903   0.825   1.893   1.120
 3043SOL    HW210904   0.739   1.825   1.226
 3044SOL     OW10905   1.811   1.992   5.052
 3044SOL    HW110906   1.770   2.029   5.130
 3044SOL    HW210907   1.821   2.067   4.993
 3045SOL     OW10908   7.227   1.637  10.926
 3045SOL    HW110909   7.271   1.662  11.007
 3045SOL    HW210910   7.221   1.718  10.876
 3046SOL     OW10911  12.664   5.071  10.935
 3046SOL    HW110912  12.752   5.093  10.965
 3046SOL    HW210913  12.607   5.103  11.004
 3047SOL     OW10914   5.791  14.280  13.232
 3047SOL    HW110915   5.760  14.364  13.197
 3047SOL    HW210916   5.806  14.297  13.325
 3048SOL     OW10917   3.857  13.239   0.402
 3048SOL    HW110918   3.899  13.256   0.317
 3048SOL    HW210919   3.774  13.198   0.380
 3049SOL     OW10920   4.316   5.542   1.121
 3049SOL    HW110921   4.380   5.610   1.100
 3049SOL    HW210922   4.355   5.494   1.194
 3050SOL     OW10923   5.510   8.578   9.776
 3050SOL    HW110924   5.570   8.612   9.710
 3050SOL    HW210925   5.563   8.568   9.855
 3051SOL     OW10926  12.313   9.793  14.202
 3051SOL    HW110927  12.399   9.834  14.209
 3051SOL    HW210928  12.318   9.717  14.260
 3052SOL     OW10929   2.417   8.418   6.198
 3052SOL    HW110930   2.438   8.325   6.201
 3052SOL    HW210931   2.500   8.462   6.217
 3053SOL     OW10932   7.765   0.245   3.192
 3053SOL    HW110933   7.687   0.282   3.234
 3053SOL    HW210934   7.750   0.150   3.194
 3054SOL     OW10935   6.237   7.276   9.534
 3054SOL    HW110936   6.327   7.259   9.562
 3054SOL    HW210937   6.185   7.265   9.614
 3055SOL     OW10938   4.566   3.040   1.254
 3055SOL    HW110939   4.551   3.027   1.348
 3055SOL    HW210940   4.483   3.074   1.221
 3056SOL     OW10941   3.096   4.288  11.893
 3056SOL    HW110942   3.065   4.374  11.863
 3056SOL    HW210943   3.153   4.308  11.967
 3057SOL     OW10944  14.030   0.035  14.561
 3057SOL    HW110945  14.038   0.050  14.467
 3057SOL    HW210946  13.952   0.085  14.586
 3058SOL     OW10947  12.050   5.556  11.082
 3058SOL    HW110948  12.034   5.650  11.080
 3058SOL    HW210949  12.037   5.532  11.174
 3059SOL     OW10950   3.104  10.806   1.086
 3059SOL    HW110951   3.078  10.756   1.008
 3059SOL    HW210952   3.022  10.839   1.122
 3060SOL     OW10953   6.999   7.019   6.554
 3060SOL    HW110954   6.929   7.025   6.619
 3060SOL    HW210955   7.011   6.925   6.540
 3061SOL     OW10956   2.172   0.717  12.262
 3061SOL    HW110957   2.094   0.757  12.299
 3061SOL    HW210958   2.142   0.676  12.180
 3062SOL     OW10959   2.782  11.698   8.156
 3062SOL    HW110960   2.702  11.668   8.114
 3062SOL    HW210961   2.852  11.650   8.113
 3063SOL     OW10962   7.401  13.833  12.215
 3063SOL    HW110963   7.435  13.763  12.271
 3063SOL    HW210964   7.319  13.798  12.180
 3064SOL     OW10965   0.431   7.341  10.992
 3064SOL    HW110966   0.399   7.404  11.057
 3064SOL    HW210967   0.372   7.352  10.918
 3065SOL     OW10968  11.032  11.809   2.775
 3065SOL    HW110969  11.047  11.734   2.717
 3065SOL    HW210970  11.107  11.809   2.834
 3066SOL     OW10971   8.043  12.643  12.032
 3066SOL    HW110972   7.971  12.679  12.084
 3066SOL    HW210973   8.042  12.549  12.049
 3067SOL     OW10974  10.995  12.703   2.974
 3067SOL    HW110975  11.028  12.744   3.054
 3067SOL    HW210976  10.918  12.653   3.003
 3068SOL     OW10977  14.841  11.984   0.845
 3068SOL    HW110978  14.770  11.945   0.896
 3068SOL    HW210979   0.025  12.010   0.911
 3069SOL     OW10980   4.739   5.915   3.203
 3069SOL    HW110981   4.737   5.832   3.250
 3069SOL    HW210982   4.808   5.904   3.137
 3070SOL     OW10983   8.313   6.116  14.098
 3070SOL    HW110984   8.387   6.176  14.090
 3070SOL    HW210985   8.328   6.069  14.180
 3071SOL     OW10986   8.413  10.133   7.523
 3071SOL    HW110987   8.341  10.100   7.469
 3071SOL    HW210988   8.371  10.177   7.596
 3072SOL     OW10989   5.930   0.648   2.089
 3072SOL    HW110990   6.011   0.698   2.076
 3072SOL    HW210991   5.875   0.671   2.014
 3073SOL     OW10992   4.616   3.950  14.341
 3073SOL    HW110993   4.670   3.933  14.264
 3073SOL    HW210994   4.631   4.042  14.361
 3074SOL     OW10995   2.984  13.797   1.900
 3074SOL    HW110996   3.038  13.725   1.932
 3074SOL    HW210997   2.966  13.776   1.808
 3075SOL     OW10998   4.996  10.553   3.432
 3075SOL    HW110999   4.946  10.499   3.369
 3075SOL    HW211000   4.934  10.621   3.458
 3076SOL     OW11001  11.602   8.866   7.560
 3076SOL    HW111002  11.623   8.787   7.609
 3076SOL    HW211003  11.526   8.903   7.604
 3077SOL     OW11004   7.523   1.354   6.483
 3077SOL    HW111005   7.432   1.375   6.503
 3077SOL    HW211006   7.539   1.271   6.526
 3078SOL     OW11007  10.650  11.498  11.196
 3078SOL    HW111008  10.576  11.556  11.215
 3078SOL    HW211009  10.627  11.415  11.238
 3079SOL     OW11010   3.621   2.302   9.913
 3079SOL    HW111011   3.648   2.386   9.949
 3079SOL    HW211012   3.683   2.239   9.950
 3080SOL     OW11013  10.219   2.148   9.747
 3080SOL    HW111014  10.294   2.174   9.801
 3080SOL    HW211015  10.259   2.113   9.667
 3081SOL     OW11016  10.743   1.536  11.273
 3081SOL    HW111017  10.718   1.515  11.362
 3081SOL    HW211018  10.837   1.553  11.278
 3082SOL     OW11019   5.057   9.542   1.317
 3082SOL    HW111020   5.080   9.579   1.402
 3082SOL    HW211021   5.054   9.618   1.258
 3083SOL     OW11022   1.227   8.879  12.252
 3083SOL    HW111023   1.295   8.914  12.310
 3083SOL    HW211024   1.264   8.886  12.164
 3084SOL     OW11025   7.854   9.197   9.465
 3084SOL    HW111026   7.814   9.132   9.407
 3084SOL    HW211027   7.789   9.266   9.474
 3085SOL     OW11028   9.831   5.159  12.115
 3085SOL    HW111029   9.864   5.212  12.042
 3085SOL    HW211030   9.736   5.166  12.110
 3086SOL     OW11031  11.541   9.892   2.809
 3086SOL    HW111032  11.612   9.949   2.779
 3086SOL    HW211033  11.578   9.803   2.805
 3087SOL     OW11034  10.574   6.175   7.709
 3087SOL    HW111035  10.666   6.201   7.701
 3087SOL    HW211036  10.562   6.107   7.643
 3088SOL     OW11037   5.698  12.636   8.838
 3088SOL    HW111038   5.663  12.550   8.861
 3088SOL    HW211039   5.706  12.634   8.742
 3089SOL     OW11040   7.648   8.092   1.787
 3089SOL    HW111041   7.682   8.160   1.846
 3089SOL    HW211042   7.636   8.138   1.703
 3090SOL     OW11043   3.849   8.659   0.650
 3090SOL    HW111044   3.908   8.712   0.596
 3090SOL    HW211045   3.868   8.569   0.624
 3091SOL     OW11046   0.439   8.300   0.111
 3091SOL    HW111047   0.362   8.267   0.158
 3091SOL    HW211048   0.402   8.344   0.034
 3092SOL     OW11049  12.866   0.721   3.809
 3092SOL    HW111050  12.785   0.772   3.814
 3092SOL    HW211051  12.873   0.679   3.895
 3093SOL     OW11052   4.635   4.978  10.869
 3093SOL    HW111053   4.676   4.934  10.794
 3093SOL    HW211054   4.624   4.909  10.934
 3094SOL     OW11055  10.342   8.003   9.553
 3094SOL    HW111056  10.409   8.070   9.537
 3094SOL    HW211057  10.323   7.968   9.466
 3095SOL     OW11058   8.034   7.809   3.502
 3095SOL    HW111059   7.963   7.753   3.473
 3095SOL    HW211060   7.999   7.898   3.494
 3096SOL     OW11061   3.051   6.881   5.138
 3096SOL    HW111062   3.129   6.839   5.100
 3096SOL    HW211063   2.978   6.830   5.104
 3097SOL     OW11064   6.493   8.799   0.340
 3097SOL    HW111065   6.438   8.732   0.379
 3097SOL    HW211066   6.513   8.766   0.253
 3098SOL     OW11067   2.570   3.159  13.520
 3098SOL    HW111068   2.537   3.185  13.434
 3098SOL    HW211069   2.665   3.158  13.510
 3099SOL     OW11070   8.688   9.205   8.557
 3099SOL    HW111071   8.738   9.277   8.517
 3099SOL    HW211072   8.677   9.232   8.648
 3100SOL     OW11073  11.474  14.107   1.651
 3100SOL    HW111074  11.509  14.085   1.738
 3100SOL    HW211075  11.444  14.023   1.615
 3101SOL     OW11076   5.934   9.633   1.070
 3101SOL    HW111077   5.964   9.554   1.114
 3101SOL    HW211078   5.932   9.609   0.977
 3102SOL     OW11079  14.455  10.684  14.801
 3102SOL    HW111080  14.522  10.656  14.864
 3102SOL    HW211081  14.410  10.757  14.844
 3103SOL     OW11082   4.734   7.146   3.190
 3103SOL    HW111083   4.755   7.221   3.246
 3103SOL    HW211084   4.770   7.170   3.105
 3104SOL     OW11085  10.793  14.011   2.818
 3104SOL    HW111086  10.881  14.028   2.852
 3104SOL    HW211087  10.775  14.083   2.757
 3105SOL     OW11088  13.932   0.037  11.290
 3105SOL    HW111089  13.863  14.859  11.262
 3105SOL    HW211090  13.899   0.124  11.268
 3106SOL     OW11091  10.816   6.612  14.255
 3106SOL    HW111092  10.851   6.656  14.178
 3106SOL    HW211093  10.760   6.677  14.297
 3107SOL     OW11094  10.035   0.602  13.870
 3107SOL    HW111095  10.085   0.667  13.920
 3107SOL    HW211096  10.065   0.518  13.904
 3108SOL     OW11097   4.466  14.299   7.348
 3108SOL    HW111098   4.399  14.328   7.409
 3108SOL    HW211099   4.528  14.249   7.401
 3109SOL     OW11100   1.387   2.720  12.082
 3109SOL    HW111101   1.383   2.689  11.991
 3109SOL    HW211102   1.480   2.720  12.103
 3110SOL     OW11103  12.188   7.574  14.344
 3110SOL    HW111104  12.278   7.573  14.311
 3110SOL    HW211105  12.139   7.624  14.278
 3111SOL     OW11106  12.694  14.232   8.206
 3111SOL    HW111107  12.642  14.175   8.149
 3111SOL    HW211108  12.781  14.232   8.167
 3112SOL     OW11109   1.798  14.462   5.957
 3112SOL    HW111110   1.872  14.494   6.008
 3112SOL    HW211111   1.801  14.513   5.876
 3113SOL     OW11112  13.218   6.406   9.668
 3113SOL    HW111113  13.143   6.463   9.685
 3113SOL    HW211114  13.224   6.351   9.746
 3114SOL     OW11115   7.674   4.574   1.634
 3114SOL    HW111116   7.589   4.542   1.606
 3114SOL    HW211117   7.734   4.501   1.617
 3115SOL     OW11118  12.905  14.864  14.092
 3115SOL    HW111119  12.941  14.778  14.113
 3115SOL    HW211120  12.979   0.042  14.105
 3116SOL     OW11121  11.137   7.218  10.576
 3116SOL    HW111122  11.169   7.293  10.526
 3116SOL    HW211123  11.056   7.193  10.532
 3117SOL     OW11124   2.073   3.847  14.410
 3117SOL    HW111125   2.168   3.838  14.415
 3117SOL    HW211126   2.045   3.778  14.350
 3118SOL     OW11127   9.081   4.753   4.348
 3118SOL    HW111128   9.119   4.812   4.283
 3118SOL    HW211129   9.094   4.666   4.312
 3119SOL     OW11130   0.614   8.749  12.675
 3119SOL    HW111131   0.568   8.799  12.743
 3119SOL    HW211132   0.566   8.666  12.671
 3120SOL     OW11133   7.105   9.158   0.087
 3120SOL    HW111134   7.014   9.183   0.068
 3120SOL    HW211135   7.099   9.104   0.166
 3121SOL     OW11136   8.798   9.103  13.740
 3121SOL    HW111137   8.814   9.009  13.750
 3121SOL    HW211138   8.881   9.144  13.764
 3122SOL     OW11139   4.135   3.709   9.593
 3122SOL    HW111140   4.087   3.683   9.672
 3122SOL    HW211141   4.220   3.667   9.600
 3123SOL     OW11142  14.819   5.524   7.722
 3123SOL    HW111143  14.749   5.553   7.780
 3123SOL    HW211144  14.784   5.537   7.634
 3124SOL     OW11145  11.411   2.062  12.323
 3124SOL    HW111146  11.407   2.137  12.263
 3124SOL    HW211147  11.340   2.078  12.385
 3125SOL     OW11148   6.625  14.751  13.333
 3125SOL    HW111149   6.625  14.713  13.245
 3125SOL    HW211150   6.651  14.842  13.320
 3126SOL     OW11151   9.727  11.847   3.896
 3126SOL    HW111152   9.751  11.896   3.974
 3126SOL    HW211153   9.651  11.893   3.860
 3127SOL     OW11154   7.548  14.505  13.319
 3127SOL    HW111155   7.585  14.553  13.245
 3127SOL    HW211156   7.499  14.433  13.279
 3128SOL     OW11157   4.840  11.443  10.553
 3128SOL    HW111158   4.921  11.492  10.560
 3128SOL    HW211159   4.861  11.357  10.590
 3129SOL     OW11160   1.223   7.152   2.832
 3129SOL    HW111161   1.244   7.174   2.923
 3129SOL    HW211162   1.135   7.113   2.837
 3130SOL     OW11163   0.188   1.333   5.305
 3130SOL    HW111164   0.150   1.314   5.219
 3130SOL    HW211165   0.269   1.380   5.285
 3131SOL     OW11166  10.665  11.083   1.969
 3131SOL    HW111167  10.726  11.150   2.000
 3131SOL    HW211168  10.589  11.132   1.937
 3132SOL     OW11169  14.601   0.927  14.606
 3132SOL    HW111170  14.661   0.972  14.666
 3132SOL    HW211171  14.514   0.956  14.633
 3133SOL     OW11172   0.880   6.144  12.649
 3133SOL    HW111173   0.868   6.238  12.658
 3133SOL    HW211174   0.925   6.118  12.729
 3134SOL     OW11175   9.083   8.241  14.748
 3134SOL    HW111176   9.077   8.151  14.716
 3134SOL    HW211177   9.000   8.281  14.723
 3135SOL     OW11178   1.956   2.317   0.394
 3135SOL    HW111179   1.963   2.350   0.305
 3135SOL    HW211180   1.923   2.391   0.445
 3136SOL     OW11181   4.348   2.844   7.909
 3136SOL    HW111182   4.424   2.802   7.951
 3136SOL    HW211183   4.315   2.778   7.848
 3137SOL     OW11184   7.909   5.186  13.934
 3137SOL    HW111185   7.929   5.211  14.025
 3137SOL    HW211186   7.927   5.092  13.931
 3138SOL     OW11187  13.644   1.232   0.235
 3138SOL    HW111188  13.648   1.138   0.253
 3138SOL    HW211189  13.711   1.270   0.292
 3139SOL     OW11190   6.970  10.585  11.193
 3139SOL    HW111191   6.934  10.561  11.107
 3139SOL    HW211192   6.996  10.677  11.183
 3140SOL     OW11193   1.585   4.809   1.116
 3140SOL    HW111194   1.591   4.746   1.045
 3140SOL    HW211195   1.676   4.827   1.140
 3141SOL     OW11196  10.005   3.201   5.466
 3141SOL    HW111197  10.066   3.131   5.444
 3141SOL    HW211198   9.921   3.156   5.477
 3142SOL     OW11199   7.877  11.536   6.125
 3142SOL    HW111200   7.805  11.509   6.182
 3142SOL    HW211201   7.944  11.469   6.136
 3143SOL     OW11202   1.260   9.546   4.475
 3143SOL    HW111203   1.180   9.519   4.521
 3143SOL    HW211204   1.317   9.469   4.479
 3144SOL     OW11205   6.697  10.108  11.384
 3144SOL    HW111206   6.761  10.099  11.455
 3144SOL    HW211207   6.638  10.034  11.396
 3145SOL     OW11208   4.644   6.163   0.436
 3145SOL    HW111209   4.684   6.175   0.350
 3145SOL    HW211210   4.679   6.235   0.489
 3146SOL     OW11211   2.602   1.891   3.908
 3146SOL    HW111212   2.514   1.927   3.914
 3146SOL    HW211213   2.623   1.862   3.996
 3147SOL     OW11214   3.796  12.855   2.168
 3147SOL    HW111215   3.776  12.762   2.179
 3147SOL    HW211216   3.890  12.862   2.181
 3148SOL     OW11217   2.936   0.578   3.779
 3148SOL    HW111218   2.877   0.507   3.804
 3148SOL    HW211219   2.912   0.599   3.689
 3149SOL     OW11220   9.036   9.378   0.323
 3149SOL    HW111221   9.127   9.360   0.346
 3149SOL    HW211222   9.040   9.458   0.271
 3150SOL     OW11223   7.185   8.397   0.928
 3150SOL    HW111224   7.221   8.453   0.860
 3150SOL    HW211225   7.096   8.377   0.898
 3151SOL     OW11226   1.113  10.685   8.729
 3151SOL    HW111227   1.100  10.750   8.660
 3151SOL    HW211228   1.208  10.677   8.737
 3152SOL     OW11229   0.361  10.199   8.831
 3152SOL    HW111230   0.343  10.145   8.908
 3152SOL    HW211231   0.375  10.287   8.866
 3153SOL     OW11232   9.796  13.694   7.617
 3153SOL    HW111233   9.706  13.665   7.628
 3153SOL    HW211234   9.798  13.782   7.654
 3154SOL     OW11235  13.246   2.707  12.101
 3154SOL    HW111236  13.308   2.766  12.059
 3154SOL    HW211237  13.237   2.741  12.190
 3155SOL     OW11238  13.646  10.333   9.467
 3155SOL    HW111239  13.738  10.308   9.479
 3155SOL    HW211240  13.637  10.416   9.514
 3156SOL     OW11241   3.910   7.852  14.832
 3156SOL    HW111242   3.995   7.829  14.869
 3156SOL    HW211243   3.851   7.853   0.026
 3157SOL     OW11244  11.927   3.641   8.948
 3157SOL    HW111245  11.897   3.562   8.903
 3157SOL    HW211246  12.019   3.649   8.923
 3158SOL     OW11247   0.958   7.387  11.678
 3158SOL    HW111248   1.017   7.462  11.669
 3158SOL    HW211249   0.884   7.409  11.621
 3159SOL     OW11250   4.745   9.131   2.436
 3159SOL    HW111251   4.681   9.195   2.402
 3159SOL    HW211252   4.779   9.088   2.358
 3160SOL     OW11253  10.387  10.000  11.224
 3160SOL    HW111254  10.378   9.969  11.314
 3160SOL    HW211255  10.434   9.929  11.179
 3161SOL     OW11256   6.644  14.500   9.705
 3161SOL    HW111257   6.730  14.487   9.665
 3161SOL    HW211258   6.588  14.527   9.633
 3162SOL     OW11259   5.248   4.280  11.670
 3162SOL    HW111260   5.216   4.210  11.613
 3162SOL    HW211261   5.178   4.291  11.735
 3163SOL     OW11262   1.066   7.994   0.356
 3163SOL    HW111263   1.005   8.067   0.349
 3163SOL    HW211264   1.074   7.961   0.266
 3164SOL     OW11265  11.143   9.279   2.186
 3164SOL    HW111266  11.074   9.217   2.208
 3164SOL    HW211267  11.224   9.229   2.197
 3165SOL     OW11268   3.336   7.429  12.968
 3165SOL    HW111269   3.370   7.477  13.045
 3165SOL    HW211270   3.304   7.498  12.910
 3166SOL     OW11271  10.604  11.621  11.647
 3166SOL    HW111272  10.693  11.633  11.613
 3166SOL    HW211273  10.547  11.647  11.576
 3167SOL     OW11274   0.597   9.042   5.179
 3167SOL    HW111275   0.653   8.965   5.171
 3167SOL    HW211276   0.629   9.102   5.111
 3168SOL     OW11277  14.057  14.304   6.215
 3168SOL    HW111278  13.970  14.327   6.246
 3168SOL    HW211279  14.099  14.260   6.289
 3169SOL     OW11280   3.854  10.633  10.253
 3169SOL    HW111281   3.877  10.576  10.326
 3169SOL    HW211282   3.806  10.577  10.192
 3170SOL     OW11283   7.495   0.887   7.622
 3170SOL    HW111284   7.581   0.929   7.614
 3170SOL    HW211285   7.490   0.859   7.713
 3171SOL     OW11286   9.343   7.305   0.360
 3171SOL    HW111287   9.289   7.292   0.438
 3171SOL    HW211288   9.421   7.252   0.376
 3172SOL     OW11289   5.993   7.386   1.753
 3172SOL    HW111290   5.902   7.366   1.777
 3172SOL    HW211291   6.021   7.451   1.818
 3173SOL     OW11292   2.393   2.085   4.022
 3173SOL    HW111293   2.298   2.074   4.026
 3173SOL    HW211294   2.425   2.047   4.104
 3174SOL     OW11295   4.059  10.637  14.745
 3174SOL    HW111296   4.089  10.617  14.834
 3174SOL    HW211297   3.965  10.655  14.755
 3175SOL     OW11298  11.060   0.096   6.140
 3175SOL    HW111299  11.010   0.038   6.082
 3175SOL    HW211300  11.000   0.112   6.213
 3176SOL     OW11301   8.022   6.895   5.590
 3176SOL    HW111302   7.961   6.885   5.663
 3176SOL    HW211303   8.038   6.989   5.584
 3177SOL     OW11304   6.134   2.816   2.381
 3177SOL    HW111305   6.226   2.820   2.407
 3177SOL    HW211306   6.118   2.723   2.364
 3178SOL     OW11307   1.068  10.514   0.278
 3178SOL    HW111308   1.081  10.420   0.267
 3178SOL    HW211309   1.119  10.537   0.356
 3179SOL     OW11310  12.456   9.047   0.999
 3179SOL    HW111311  12.470   8.958   0.967
 3179SOL    HW211312  12.539   9.092   0.982
 3180SOL     OW11313  13.471  10.252   8.174
 3180SOL    HW111314  13.491  10.175   8.120
 3180SOL    HW211315  13.492  10.327   8.119
 3181SOL     OW11316   1.824  11.725  14.720
 3181SOL    HW111317   1.831  11.723  14.816
 3181SOL    HW211318   1.782  11.809  14.701
 3182SOL     OW11319   2.488   7.195  11.398
 3182SOL    HW111320   2.426   7.257  11.437
 3182SOL    HW211321   2.573   7.238  11.407
 3183SOL     OW11322   1.418   6.574   3.303
 3183SOL    HW111323   1.453   6.568   3.392
 3183SOL    HW211324   1.404   6.668   3.289
 3184SOL     OW11325  10.205   7.507   7.616
 3184SOL    HW111326  10.206   7.560   7.536
 3184SOL    HW211327  10.138   7.441   7.601
 3185SOL     OW11328   6.088   2.096   2.098
 3185SOL    HW111329   6.006   2.142   2.080
 3185SOL    HW211330   6.156   2.155   2.065
 3186SOL     OW11331   8.720  12.599   6.793
 3186SOL    HW111332   8.649  12.650   6.832
 3186SOL    HW211333   8.738  12.531   6.858
 3187SOL     OW11334   4.269   7.969   4.389
 3187SOL    HW111335   4.325   7.894   4.413
 3187SOL    HW211336   4.207   7.976   4.461
 3188SOL     OW11337   9.698   6.572  11.700
 3188SOL    HW111338   9.711   6.485  11.661
 3188SOL    HW211339   9.605   6.591  11.685
 3189SOL     OW11340   8.044   8.151  12.374
 3189SOL    HW111341   8.088   8.085  12.428
 3189SOL    HW211342   8.109   8.175  12.309
 3190SOL     OW11343   1.094  13.119   2.877
 3190SOL    HW111344   1.103  13.038   2.927
 3190SOL    HW211345   1.100  13.188   2.943
 3191SOL     OW11346   9.963  11.749   6.681
 3191SOL    HW111347   9.977  11.658   6.709
 3191SOL    HW211348  10.012  11.801   6.745
 3192SOL     OW11349  10.202   2.677  10.535
 3192SOL    HW111350  10.223   2.657  10.444
 3192SOL    HW211351  10.249   2.758  10.554
 3193SOL     OW11352   9.177   5.995  14.137
 3193SOL    HW111353   9.198   6.044  14.058
 3193SOL    HW211354   9.176   5.903  14.108
 3194SOL     OW11355  13.838   6.021  12.172
 3194SOL    HW111356  13.839   6.094  12.109
 3194SOL    HW211357  13.923   5.979  12.161
 3195SOL     OW11358  11.542  14.090   9.622
 3195SOL    HW111359  11.578  14.173   9.592
 3195SOL    HW211360  11.518  14.044   9.541
 3196SOL     OW11361   7.341   6.156  13.667
 3196SOL    HW111362   7.290   6.076  13.654
 3196SOL    HW211363   7.284   6.226  13.635
 3197SOL     OW11364  11.666  11.449   0.306
 3197SOL    HW111365  11.641  11.441   0.213
 3197SOL    HW211366  11.585  11.474   0.350
 3198SOL     OW11367   4.678  14.688  14.192
 3198SOL    HW111368   4.705  14.687  14.284
 3198SOL    HW211369   4.760  14.692  14.143
 3199SOL     OW11370   8.745   8.081   6.064
 3199SOL    HW111371   8.821   8.103   6.117
 3199SOL    HW211372   8.690   8.159   6.067
 3200SOL     OW11373  13.109   4.296   4.433
 3200SOL    HW111374  13.065   4.354   4.371
 3200SOL    HW211375  13.059   4.214   4.430
 3201SOL     OW11376   0.314   1.163   9.226
 3201SOL    HW111377   0.361   1.146   9.308
 3201SOL    HW211378   0.292   1.076   9.193
 3202SOL     OW11379   6.768   4.717   1.021
 3202SOL    HW111380   6.722   4.634   1.007
 3202SOL    HW211381   6.843   4.714   0.962
 3203SOL     OW11382  13.101  12.480   3.709
 3203SOL    HW111383  13.133  12.543   3.644
 3203SOL    HW211384  13.018  12.448   3.672
 3204SOL     OW11385  11.171   9.959   0.205
 3204SOL    HW111386  11.262   9.986   0.197
 3204SOL    HW211387  11.145   9.989   0.292
 3205SOL     OW11388   5.583   8.299  13.997
 3205SOL    HW111389   5.652   8.365  13.990
 3205SOL    HW211390   5.548   8.291  13.908
 3206SOL     OW11391   2.370   6.250   4.091
 3206SOL    HW111392   2.325   6.303   4.026
 3206SOL    HW211393   2.302   6.194   4.128
 3207SOL     OW11394   4.572   4.933  13.207
 3207SOL    HW111395   4.522   4.986  13.270
 3207SOL    HW211396   4.506   4.887  13.156
 3208SOL     OW11397   6.880   0.189   1.156
 3208SOL    HW111398   6.799   0.230   1.125
 3208SOL    HW211399   6.939   0.191   1.081
 3209SOL     OW11400   3.144  13.551  12.810
 3209SOL    HW111401   3.188  13.569  12.727
 3209SOL    HW211402   3.185  13.611  12.872
 3210SOL     OW11403   9.774  11.907   2.980
 3210SOL    HW111404   9.725  11.968   2.925
 3210SOL    HW211405   9.866  11.925   2.959
 3211SOL     OW11406   0.776   1.808   7.580
 3211SOL    HW111407   0.798   1.781   7.669
 3211SOL    HW211408   0.809   1.897   7.572
 3212SOL     OW11409   7.679   1.435   8.161
 3212SOL    HW111410   7.735   1.360   8.145
 3212SOL    HW211411   7.602   1.399   8.206
 3213SOL     OW11412   6.463   9.456  13.547
 3213SOL    HW111413   6.448   9.415  13.461
 3213SOL    HW211414   6.503   9.541  13.526
 3214SOL     OW11415   2.827   7.493   2.093
 3214SOL    HW111416   2.796   7.562   2.151
 3214SOL    HW211417   2.872   7.431   2.150
 3215SOL     OW11418  10.020   5.442   9.607
 3215SOL    HW111419   9.957   5.376   9.635
 3215SOL    HW211420   9.979   5.525   9.629
 3216SOL     OW11421   2.180  10.539   5.847
 3216SOL    HW111422   2.154  10.596   5.774
 3216SOL    HW211423   2.100  10.492   5.869
 3217SOL     OW11424   5.960  12.266  12.773
 3217SOL    HW111425   6.011  12.185  12.782
 3217SOL    HW211426   5.875  12.237  12.740
 3218SOL     OW11427   1.775   8.008   3.743
 3218SOL    HW111428   1.749   8.099   3.732
 3218SOL    HW211429   1.730   7.961   3.672
 3219SOL     OW11430   9.034   6.796   6.663
 3219SOL    HW111431   8.959   6.737   6.667
 3219SOL    HW211432   9.007   6.874   6.710
 3220SOL     OW11433  12.546   2.129   8.110
 3220SOL    HW111434  12.498   2.076   8.046
 3220SOL    HW211435  12.515   2.218   8.096
 3221SOL     OW11436   7.666  12.554  14.738
 3221SOL    HW111437   7.700  12.482  14.791
 3221SOL    HW211438   7.608  12.511  14.674
 3222SOL     OW11439   9.692   3.610  12.677
 3222SOL    HW111440   9.603   3.645  12.670
 3222SOL    HW211441   9.749   3.688  12.674
 3223SOL     OW11442  12.677   5.907   0.953
 3223SOL    HW111443  12.742   5.855   0.905
 3223SOL    HW211444  12.615   5.843   0.987
 3224SOL     OW11445   7.288   3.550   5.962
 3224SOL    HW111446   7.250   3.473   6.005
 3224SOL    HW211447   7.358   3.515   5.908
 3225SOL     OW11448  13.411   7.629   0.256
 3225SOL    HW111449  13.387   7.662   0.170
 3225SOL    HW211450  13.381   7.697   0.317
 3226SOL     OW11451  11.990   9.225   5.312
 3226SOL    HW111452  11.908   9.274   5.316
 3226SOL    HW211453  11.963   9.133   5.308
 3227SOL     OW11454  10.058   9.148   4.478
 3227SOL    HW111455  10.144   9.163   4.517
 3227SOL    HW211456  10.003   9.219   4.511
 3228SOL     OW11457  11.727   4.003  10.299
 3228SOL    HW111458  11.631   4.008  10.302
 3228SOL    HW211459  11.748   4.003  10.206
 3229SOL     OW11460  12.346   1.349  13.305
 3229SOL    HW111461  12.347   1.282  13.237
 3229SOL    HW211462  12.286   1.416  13.273
 3230SOL     OW11463  11.992   2.338   8.635
 3230SOL    HW111464  11.957   2.388   8.561
 3230SOL    HW211465  11.934   2.263   8.643
 3231SOL     OW11466   3.305   6.376   1.118
 3231SOL    HW111467   3.312   6.417   1.032
 3231SOL    HW211468   3.217   6.337   1.119
 3232SOL     OW11469   6.782  13.317  12.244
 3232SOL    HW111470   6.719  13.269  12.190
 3232SOL    HW211471   6.731  13.387  12.284
 3233SOL     OW11472   9.616  11.628  10.006
 3233SOL    HW111473   9.621  11.595  10.095
 3233SOL    HW211474   9.666  11.710  10.008
 3234SOL     OW11475  10.388  11.294   2.308
 3234SOL    HW111476  10.374  11.313   2.400
 3234SOL    HW211477  10.477  11.257   2.305
 3235SOL     OW11478   1.355  13.899   8.188
 3235SOL    HW111479   1.379  13.807   8.193
 3235SOL    HW211480   1.367  13.922   8.096
 3236SOL     OW11481   9.106   8.976  13.401
 3236SOL    HW111482   9.026   9.024  13.378
 3236SOL    HW211483   9.169   9.044  13.425
 3237SOL     OW11484   7.983   1.132  10.812
 3237SOL    HW111485   7.934   1.156  10.891
 3237SOL    HW211486   7.933   1.060  10.774
 3238SOL     OW11487   5.476   0.978   7.901
 3238SOL    HW111488   5.457   1.071   7.914
 3238SOL    HW211489   5.397   0.934   7.931
 3239SOL     OW11490  13.812   7.403   5.326
 3239SOL    HW111491  13.718   7.397   5.342
 3239SOL    HW211492  13.828   7.495   5.306
 3240SOL     OW11493   8.901  10.147   2.261
 3240SOL    HW111494   8.842  10.115   2.192
 3240SOL    HW211495   8.987  10.112   2.238
 3241SOL     OW11496   8.438   9.838   1.623
 3241SOL    HW111497   8.516   9.890   1.601
 3241SOL    HW211498   8.379   9.901   1.665
 3242SOL     OW11499   9.566   0.959  14.523
 3242SOL    HW111500   9.592   1.007  14.444
 3242SOL    HW211501   9.576   0.867  14.499
 3243SOL     OW11502   0.535  11.741   1.009
 3243SOL    HW111503   0.560  11.790   0.930
 3243SOL    HW211504   0.603  11.675   1.019
 3244SOL     OW11505   5.018   9.643   4.420
 3244SOL    HW111506   4.924   9.647   4.404
 3244SOL    HW211507   5.032   9.696   4.498
 3245SOL     OW11508   4.057   7.437   1.750
 3245SOL    HW111509   4.013   7.429   1.666
 3245SOL    HW211510   4.047   7.351   1.791
 3246SOL     OW11511  14.157   4.317  13.246
 3246SOL    HW111512  14.137   4.404  13.211
 3246SOL    HW211513  14.129   4.322  13.338
 3247SOL     OW11514  14.347   5.994  11.208
 3247SOL    HW111515  14.323   6.011  11.299
 3247SOL    HW211516  14.263   5.975  11.165
 3248SOL     OW11517   9.155   8.199   3.873
 3248SOL    HW111518   9.076   8.236   3.912
 3248SOL    HW211519   9.198   8.154   3.945
 3249SOL     OW11520  13.614   0.193  13.613
 3249SOL    HW111521  13.663   0.191  13.531
 3249SOL    HW211522  13.574   0.280  13.615
 3250SOL     OW11523   7.566   1.360   0.372
 3250SOL    HW111524   7.616   1.411   0.308
 3250SOL    HW211525   7.495   1.418   0.399
 3251SOL     OW11526   5.795   6.259  12.077
 3251SOL    HW111527   5.824   6.349  12.059
 3251SOL    HW211528   5.700   6.261  12.062
 3252SOL     OW11529   4.850   3.255  12.646
 3252SOL    HW111530   4.910   3.325  12.673
 3252SOL    HW211531   4.881   3.229  12.559
 3253SOL     OW11532   9.895   5.577   1.042
 3253SOL    HW111533   9.829   5.534   1.097
 3253SOL    HW211534   9.873   5.670   1.046
 3254SOL     OW11535  12.453  11.090  13.163
 3254SOL    HW111536  12.452  11.183  13.183
 3254SOL    HW211537  12.530  11.078  13.107
 3255SOL     OW11538   9.239   5.666  13.948
 3255SOL    HW111539   9.311   5.714  13.908
 3255SOL    HW211540   9.160   5.705  13.912
 3256SOL     OW11541   4.206   8.572  11.218
 3256SOL    HW111542   4.177   8.571  11.127
 3256SOL    HW211543   4.291   8.617  11.215
 3257SOL     OW11544  12.829  11.734  10.108
 3257SOL    HW111545  12.775  11.693  10.041
 3257SOL    HW211546  12.767  11.781  10.164
 3258SOL     OW11547  10.104  12.265   6.024
 3258SOL    HW111548  10.109  12.318   5.945
 3258SOL    HW211549  10.042  12.311   6.080
 3259SOL     OW11550   6.811   2.011  11.836
 3259SOL    HW111551   6.742   2.066  11.872
 3259SOL    HW211552   6.868   2.072  11.789
 3260SOL     OW11553  11.382   8.468  11.795
 3260SOL    HW111554  11.394   8.553  11.753
 3260SOL    HW211555  11.289   8.466  11.818
 3261SOL     OW11556   3.328   8.975   9.819
 3261SOL    HW111557   3.371   9.003   9.738
 3261SOL    HW211558   3.342   9.046   9.881
 3262SOL     OW11559   9.550  14.710  14.646
 3262SOL    HW111560   9.578  14.619  14.640
 3262SOL    HW211561   9.630  14.761  14.632
 3263SOL     OW11562  12.670   8.474  10.131
 3263SOL    HW111563  12.586   8.454  10.090
 3263SOL    HW211564  12.673   8.570  10.133
 3264SOL     OW11565  14.734  10.010  10.100
 3264SOL    HW111566  14.661   9.949  10.086
 3264SOL    HW211567  14.701  10.094  10.069
 3265SOL     OW11568  10.516   3.135  14.200
 3265SOL    HW111569  10.435   3.186  14.193
 3265SOL    HW211570  10.544   3.148  14.291
 3266SOL     OW11571   1.509  10.811   9.307
 3266SOL    HW111572   1.533  10.766   9.226
 3266SOL    HW211573   1.537  10.901   9.294
 3267SOL     OW11574   9.117   1.196  10.256
 3267SOL    HW111575   9.065   1.248  10.195
 3267SOL    HW211576   9.081   1.218  10.342
 3268SOL     OW11577   0.131   6.018  10.044
 3268SOL    HW111578   0.139   6.019   9.948
 3268SOL    HW211579   0.040   5.992  10.060
 3269SOL     OW11580   5.646   5.427  12.528
 3269SOL    HW111581   5.619   5.428  12.436
 3269SOL    HW211582   5.690   5.343  12.540
 3270SOL     OW11583  13.147   2.262   9.686
 3270SOL    HW111584  13.213   2.219   9.739
 3270SOL    HW211585  13.155   2.222   9.599
 3271SOL     OW11586   8.043   6.278  11.505
 3271SOL    HW111587   7.963   6.329  11.493
 3271SOL    HW211588   8.021   6.190  11.474
 3272SOL     OW11589   6.630  13.571  13.005
 3272SOL    HW111590   6.554  13.595  12.951
 3272SOL    HW211591   6.625  13.475  13.012
 3273SOL     OW11592  11.140  12.791   3.215
 3273SOL    HW111593  11.209  12.805   3.280
 3273SOL    HW211594  11.112  12.879   3.191
 3274SOL     OW11595  14.486   9.630   2.267
 3274SOL    HW111596  14.514   9.585   2.187
 3274SOL    HW211597  14.491   9.723   2.245
 3275SOL     OW11598  10.576   6.761   7.356
 3275SOL    HW111599  10.618   6.683   7.393
 3275SOL    HW211600  10.648   6.808   7.314
 3276SOL     OW11601  14.826   7.672  12.099
 3276SOL    HW111602  14.767   7.696  12.170
 3276SOL    HW211603   0.029   7.709  12.124
 3277SOL     OW11604   4.844   0.988  11.722
 3277SOL    HW111605   4.875   0.970  11.811
 3277SOL    HW211606   4.874   0.913  11.670
 3278SOL     OW11607   8.003  11.268  10.517
 3278SOL    HW111608   8.082  11.307  10.555
 3278SOL    HW211609   7.933  11.328  10.542
 3279SOL     OW11610   3.478   3.843  12.589
 3279SOL    HW111611   3.552   3.809  12.640
 3279SOL    HW211612   3.497   3.819  12.499
 3280SOL     OW11613  10.044  13.715   0.160
 3280SOL    HW111614  10.105  13.718   0.234
 3280SOL    HW211615  10.098  13.694   0.084
 3281SOL     OW11616   6.907   4.072   1.846
 3281SOL    HW111617   6.987   4.096   1.892
 3281SOL    HW211618   6.888   4.147   1.790
 3282SOL     OW11619   1.647  10.176   2.189
 3282SOL    HW111620   1.642  10.231   2.111
 3282SOL    HW211621   1.627  10.088   2.156
 3283SOL     OW11622   9.554   9.501  14.648
 3283SOL    HW111623   9.506   9.473  14.570
 3283SOL    HW211624   9.632   9.544  14.613
 3284SOL     OW11625   0.710   8.012  13.235
 3284SOL    HW111626   0.662   7.988  13.314
 3284SOL    HW211627   0.658   8.081  13.195
 3285SOL     OW11628   4.629   1.122   9.886
 3285SOL    HW111629   4.599   1.198   9.835
 3285SOL    HW211630   4.706   1.154   9.933
 3286SOL     OW11631   7.418  13.312   0.595
 3286SOL    HW111632   7.379  13.247   0.655
 3286SOL    HW211633   7.415  13.394   0.644
 3287SOL     OW11634  14.867  11.092   9.403
 3287SOL    HW111635  14.832  11.008   9.434
 3287SOL    HW211636  14.822  11.158   9.456
 3288SOL     OW11637   2.820   8.048   9.302
 3288SOL    HW111638   2.824   7.953   9.291
 3288SOL    HW211639   2.729   8.071   9.279
 3289SOL     OW11640  12.012  11.198   9.299
 3289SOL    HW111641  12.011  11.290   9.325
 3289SOL    HW211642  12.105  11.175   9.298
 3290SOL     OW11643   1.503   6.294   0.219
 3290SOL    HW111644   1.566   6.361   0.192
 3290SOL    HW211645   1.528   6.216   0.169
 3291SOL     OW11646  11.197  14.504   9.023
 3291SOL    HW111647  11.102  14.493   9.028
 3291SOL    HW211648  11.222  14.456   8.944
 3292SOL     OW11649   0.323   3.624   3.857
 3292SOL    HW111650   0.336   3.686   3.785
 3292SOL    HW211651   0.350   3.671   3.935
 3293SOL     OW11652  11.831  10.559   9.980
 3293SOL    HW111653  11.814  10.633   9.922
 3293SOL    HW211654  11.892  10.504   9.932
 3294SOL     OW11655   4.015  13.259  10.469
 3294SOL    HW111656   4.109  13.251  10.450
 3294SOL    HW211657   3.980  13.172  10.453
 3295SOL     OW11658  12.939  14.018   1.919
 3295SOL    HW111659  12.975  13.942   1.965
 3295SOL    HW211660  12.985  14.093   1.957
 3296SOL     OW11661   9.389   2.562   5.696
 3296SOL    HW111662   9.380   2.603   5.782
 3296SOL    HW211663   9.483   2.550   5.685
 3297SOL     OW11664  10.043  10.045   5.124
 3297SOL    HW111665  10.045  10.002   5.039
 3297SOL    HW211666  10.058  10.138   5.104
 3298SOL     OW11667   8.872   6.222   0.088
 3298SOL    HW111668   8.804   6.290   0.086
 3298SOL    HW211669   8.949   6.266   0.122
 3299SOL     OW11670   9.439  12.186  10.289
 3299SOL    HW111671   9.524  12.173  10.332
 3299SOL    HW211672   9.459  12.236  10.210
 3300SOL     OW11673  10.595  12.123   7.907
 3300SOL    HW111674  10.548  12.204   7.890
 3300SOL    HW211675  10.548  12.056   7.857
 3301SOL     OW11676   8.171   1.041   0.286
 3301SOL    HW111677   8.247   1.033   0.344
 3301SOL    HW211678   8.201   1.005   0.203
 3302SOL     OW11679  10.854   6.843   1.819
 3302SOL    HW111680  10.758   6.847   1.814
 3302SOL    HW211681  10.876   6.877   1.906
 3303SOL     OW11682   4.289   3.559   7.254
 3303SOL    HW111683   4.206   3.604   7.241
 3303SOL    HW211684   4.285   3.524   7.343
 3304SOL     OW11685   7.235   5.967   7.862
 3304SOL    HW111686   7.270   5.968   7.773
 3304SOL    HW211687   7.206   5.876   7.875
 3305SOL     OW11688   2.962  14.740   5.168
 3305SOL    HW111689   2.952  14.716   5.260
 3305SOL    HW211690   2.966  14.656   5.122
 3306SOL     OW11691   0.988   3.056   0.899
 3306SOL    HW111692   0.940   3.128   0.940
 3306SOL    HW211693   0.950   3.049   0.811
 3307SOL     OW11694   7.896   4.702   9.439
 3307SOL    HW111695   7.886   4.754   9.359
 3307SOL    HW211696   7.978   4.732   9.477
 3308SOL     OW11697   3.156  12.466   9.200
 3308SOL    HW111698   3.169  12.422   9.284
 3308SOL    HW211699   3.130  12.396   9.140
 3309SOL     OW11700   8.672  14.855   6.330
 3309SOL    HW111701   8.649   0.047   6.386
 3309SOL    HW211702   8.747   0.005   6.279
 3310SOL     OW11703  13.035   4.686   0.856
 3310SOL    HW111704  13.049   4.684   0.762
 3310SOL    HW211705  12.950   4.729   0.867
 3311SOL     OW11706  13.457   7.301   7.154
 3311SOL    HW111707  13.523   7.273   7.218
 3311SOL    HW211708  13.431   7.220   7.110
 3312SOL     OW11709   1.703   8.360  13.227
 3312SOL    HW111710   1.782   8.406  13.197
 3312SOL    HW211711   1.697   8.284  13.170
 3313SOL     OW11712   4.879  11.558  11.405
 3313SOL    HW111713   4.847  11.470  11.428
 3313SOL    HW211714   4.959  11.542  11.355
 3314SOL     OW11715   4.844   5.043   9.205
 3314SOL    HW111716   4.893   5.125   9.207
 3314SOL    HW211717   4.792   5.048   9.125
 3315SOL     OW11718  14.401   6.424   2.512
 3315SOL    HW111719  14.461   6.466   2.573
 3315SOL    HW211720  14.439   6.337   2.496
 3316SOL     OW11721  13.884   7.754   9.732
 3316SOL    HW111722  13.792   7.728   9.729
 3316SOL    HW211723  13.891   7.806   9.812
 3317SOL     OW11724  10.652  13.084   2.100
 3317SOL    HW111725  10.726  13.041   2.058
 3317SOL    HW211726  10.580  13.076   2.038
 3318SOL     OW11727   0.028   9.738   1.950
 3318SOL    HW111728  14.866   9.802   1.895
 3318SOL    HW211729  14.861   9.657   1.936
 3319SOL     OW11730  13.357   8.831   6.818
 3319SOL    HW111731  13.320   8.879   6.744
 3319SOL    HW211732  13.398   8.754   6.779
 3320SOL     OW11733   8.759   7.928  14.330
 3320SOL    HW111734   8.822   8.000  14.335
 3320SOL    HW211735   8.676   7.971  14.311
 3321SOL     OW11736   6.671   3.148   8.726
 3321SOL    HW111737   6.723   3.154   8.646
 3321SOL    HW211738   6.676   3.236   8.764
 3322SOL     OW11739   3.550   6.475  12.248
 3322SOL    HW111740   3.532   6.567  12.267
 3322SOL    HW211741   3.557   6.471  12.153
 3323SOL     OW11742  11.401   2.800   0.674
 3323SOL    HW111743  11.387   2.709   0.649
 3323SOL    HW211744  11.418   2.797   0.768
 3324SOL     OW11745  12.648   5.508   7.982
 3324SOL    HW111746  12.627   5.417   8.004
 3324SOL    HW211747  12.744   5.510   7.979
 3325SOL     OW11748  10.128   3.815   9.770
 3325SOL    HW111749  10.034   3.812   9.788
 3325SOL    HW211750  10.168   3.777   9.849
 3326SOL     OW11751   7.484   1.200   5.496
 3326SOL    HW111752   7.438   1.117   5.509
 3326SOL    HW211753   7.415   1.265   5.489
 3327SOL     OW11754   9.983   4.337   2.294
 3327SOL    HW111755   9.977   4.260   2.351
 3327SOL    HW211756   9.985   4.301   2.206
 3328SOL     OW11757  11.806   8.154   4.149
 3328SOL    HW111758  11.738   8.218   4.172
 3328SOL    HW211759  11.758   8.076   4.122
 3329SOL     OW11760   6.947   8.579   7.745
 3329SOL    HW111761   6.992   8.538   7.818
 3329SOL    HW211762   6.960   8.673   7.758
 3330SOL     OW11763   5.126   6.211  12.207
 3330SOL    HW111764   5.219   6.233  12.209
 3330SOL    HW211765   5.083   6.292  12.182
 3331SOL     OW11766  11.414   0.941   4.697
 3331SOL    HW111767  11.359   0.999   4.750
 3331SOL    HW211768  11.445   0.874   4.758
 3332SOL     OW11769   8.300   4.563   6.090
 3332SOL    HW111770   8.302   4.602   6.178
 3332SOL    HW211771   8.207   4.561   6.067
 3333SOL     OW11772  11.914  11.648  10.140
 3333SOL    HW111773  11.967  11.682  10.068
 3333SOL    HW211774  11.849  11.593  10.098
 3334SOL     OW11775  13.958   4.472   3.910
 3334SOL    HW111776  14.015   4.470   3.987
 3334SOL    HW211777  13.990   4.546   3.858
 3335SOL     OW11778   1.361   1.901  11.284
 3335SOL    HW111779   1.318   1.952  11.216
 3335SOL    HW211780   1.386   1.819  11.241
 3336SOL     OW11781   0.925   5.099   1.159
 3336SOL    HW111782   0.832   5.076   1.154
 3336SOL    HW211783   0.944   5.136   1.073
 3337SOL     OW11784   4.222  10.184   0.389
 3337SOL    HW111785   4.304  10.234   0.396
 3337SOL    HW211786   4.198  10.164   0.479
 3338SOL     OW11787   0.596  12.951   4.444
 3338SOL    HW111788   0.575  13.044   4.445
 3338SOL    HW211789   0.538  12.913   4.510
 3339SOL     OW11790   6.339  12.632   6.278
 3339SOL    HW111791   6.416  12.590   6.240
 3339SOL    HW211792   6.365  12.656   6.367
 3340SOL     OW11793  14.319   6.452   4.874
 3340SOL    HW111794  14.304   6.485   4.962
 3340SOL    HW211795  14.333   6.358   4.885
 3341SOL     OW11796   3.918   7.845  13.031
 3341SOL    HW111797   3.982   7.884  13.091
 3341SOL    HW211798   3.923   7.898  12.952
 3342SOL     OW11799   6.582   5.516   4.869
 3342SOL    HW111800   6.517   5.570   4.824
 3342SOL    HW211801   6.663   5.530   4.820
 3343SOL     OW11802  14.593   8.355   3.200
 3343SOL    HW111803  14.621   8.437   3.241
 3343SOL    HW211804  14.670   8.322   3.155
 3344SOL     OW11805  13.805   8.746   6.322
 3344SOL    HW111806  13.877   8.800   6.290
 3344SOL    HW211807  13.726   8.799   6.307
 3345SOL     OW11808   5.865  12.567  14.058
 3345SOL    HW111809   5.855  12.579  13.963
 3345SOL    HW211810   5.942  12.512  14.067
 3346SOL     OW11811   8.947  13.186   7.198
 3346SOL    HW111812   8.905  13.256   7.149
 3346SOL    HW211813   8.876  13.125   7.218
 3347SOL     OW11814   5.895  13.166   2.973
 3347SOL    HW111815   5.928  13.119   3.049
 3347SOL    HW211816   5.801  13.152   2.975
 3348SOL     OW11817   2.010  10.834   6.181
 3348SOL    HW111818   1.962  10.873   6.254
 3348SOL    HW211819   1.943  10.820   6.114
 3349SOL     OW11820   1.042   9.176   7.798
 3349SOL    HW111821   1.127   9.150   7.763
 3349SOL    HW211822   1.050   9.162   7.893
 3350SOL     OW11823   2.126  14.367   6.617
 3350SOL    HW111824   2.146  14.282   6.579
 3350SOL    HW211825   2.206  14.391   6.664
 3351SOL     OW11826  10.973  12.138  13.291
 3351SOL    HW111827  11.031  12.062  13.286
 3351SOL    HW211828  10.889  12.106  13.258
 3352SOL     OW11829  11.232   6.617   9.109
 3352SOL    HW111830  11.189   6.695   9.143
 3352SOL    HW211831  11.290   6.649   9.041
 3353SOL     OW11832  10.539  13.191   4.119
 3353SOL    HW111833  10.452  13.154   4.131
 3353SOL    HW211834  10.596  13.116   4.103
 3354SOL     OW11835  12.182   5.489   9.763
 3354SOL    HW111836  12.271   5.522   9.750
 3354SOL    HW211837  12.152   5.532   9.843
 3355SOL     OW11838   0.194   3.602  11.138
 3355SOL    HW111839   0.121   3.560  11.092
 3355SOL    HW211840   0.252   3.529  11.161
 3356SOL     OW11841   7.171   8.733  14.456
 3356SOL    HW111842   7.091   8.739  14.403
 3356SOL    HW211843   7.220   8.661  14.416
 3357SOL     OW11844   4.780   8.309   4.676
 3357SOL    HW111845   4.790   8.391   4.723
 3357SOL    HW211846   4.827   8.244   4.728
 3358SOL     OW11847   3.323   6.198   9.869
 3358SOL    HW111848   3.345   6.251   9.793
 3358SOL    HW211849   3.301   6.112   9.832
 3359SOL     OW11850  13.148  13.265  12.039
 3359SOL    HW111851  13.172  13.183  12.083
 3359SOL    HW211852  13.122  13.238  11.950
 3360SOL     OW11853   1.058  14.271   6.545
 3360SOL    HW111854   1.132  14.316   6.586
 3360SOL    HW211855   0.981  14.304   6.592
 3361SOL     OW11856  11.878   2.990   5.086
 3361SOL    HW111857  11.860   3.024   4.998
 3361SOL    HW211858  11.800   2.940   5.109
 3362SOL     OW11859   6.071   8.594   3.228
 3362SOL    HW111860   6.152   8.640   3.209
 3362SOL    HW211861   6.072   8.582   3.323
 3363SOL     OW11862   9.487   7.273  14.007
 3363SOL    HW111863   9.546   7.310  13.941
 3363SOL    HW211864   9.498   7.179  13.999
 3364SOL     OW11865  11.597   5.451   8.665
 3364SOL    HW111866  11.674   5.422   8.714
 3364SOL    HW211867  11.533   5.475   8.733
 3365SOL     OW11868   1.487  12.926   9.658
 3365SOL    HW111869   1.429  12.852   9.637
 3365SOL    HW211870   1.573  12.887   9.670
 3366SOL     OW11871   7.167  12.261   4.389
 3366SOL    HW111872   7.206  12.173   4.385
 3366SOL    HW211873   7.193  12.303   4.307
 3367SOL     OW11874   1.010   5.141  11.841
 3367SOL    HW111875   1.015   5.046  11.827
 3367SOL    HW211876   1.094   5.163  11.882
 3368SOL     OW11877  10.635   1.044   3.402
 3368SOL    HW111878  10.662   1.084   3.320
 3368SOL    HW211879  10.551   1.003   3.383
 3369SOL     OW11880  14.700   5.276   7.414
 3369SOL    HW111881  14.628   5.310   7.466
 3369SOL    HW211882  14.664   5.199   7.370
 3370SOL     OW11883   9.580   9.275   3.353
 3370SOL    HW111884   9.577   9.206   3.419
 3370SOL    HW211885   9.575   9.228   3.269
 3371SOL     OW11886  13.617   2.576   5.077
 3371SOL    HW111887  13.688   2.620   5.032
 3371SOL    HW211888  13.544   2.577   5.015
 3372SOL     OW11889  10.658  11.597   0.720
 3372SOL    HW111890  10.706  11.638   0.648
 3372SOL    HW211891  10.624  11.671   0.772
 3373SOL     OW11892   8.987   7.947  10.143
 3373SOL    HW111893   9.071   7.903  10.131
 3373SOL    HW211894   9.006   8.019  10.203
 3374SOL     OW11895  10.814  12.457  13.721
 3374SOL    HW111896  10.820  12.369  13.684
 3374SOL    HW211897  10.804  12.444  13.815
 3375SOL     OW11898   5.210   8.851   2.281
 3375SOL    HW111899   5.144   8.817   2.220
 3375SOL    HW211900   5.177   8.937   2.307
 3376SOL     OW11901  13.440  10.274   4.677
 3376SOL    HW111902  13.376  10.269   4.749
 3376SOL    HW211903  13.394  10.322   4.608
 3377SOL     OW11904   4.795  12.540  11.137
 3377SOL    HW111905   4.817  12.508  11.224
 3377SOL    HW211906   4.771  12.632  11.151
 3378SOL     OW11907  12.111   0.955   0.491
 3378SOL    HW111908  12.019   0.928   0.487
 3378SOL    HW211909  12.158   0.874   0.509
 3379SOL     OW11910   0.820   4.140   0.727
 3379SOL    HW111911   0.816   4.058   0.775
 3379SOL    HW211912   0.729   4.167   0.718
 3380SOL     OW11913   1.110  10.481   8.463
 3380SOL    HW111914   1.023  10.517   8.442
 3380SOL    HW211915   1.171  10.542   8.421
 3381SOL     OW11916  12.144  10.216   2.589
 3381SOL    HW111917  12.126  10.306   2.561
 3381SOL    HW211918  12.223  10.191   2.540
 3382SOL     OW11919   4.007  12.120  10.000
 3382SOL    HW111920   3.944  12.164  10.056
 3382SOL    HW211921   3.961  12.107   9.917
 3383SOL     OW11922   7.248  11.372   9.733
 3383SOL    HW111923   7.282  11.290   9.769
 3383SOL    HW211924   7.321  11.434   9.742
 3384SOL     OW11925   8.228  14.388   3.312
 3384SOL    HW111926   8.198  14.452   3.247
 3384SOL    HW211927   8.152  14.333   3.328
 3385SOL     OW11928   2.192   9.030  10.658
 3385SOL    HW111929   2.199   9.003  10.566
 3385SOL    HW211930   2.249   9.107  10.665
 3386SOL     OW11931   8.081   1.934   3.099
 3386SOL    HW111932   8.162   1.903   3.057
 3386SOL    HW211933   8.030   1.855   3.114
 3387SOL     OW11934   5.955  13.168  11.275
 3387SOL    HW111935   6.035  13.119  11.294
 3387SOL    HW211936   5.982  13.260  11.279
 3388SOL     OW11937  12.117  11.849   4.178
 3388SOL    HW111938  12.166  11.913   4.127
 3388SOL    HW211939  12.185  11.793   4.217
 3389SOL     OW11940   0.265  13.249   7.687
 3389SOL    HW111941   0.175  13.226   7.665
 3389SOL    HW211942   0.258  13.335   7.729
 3390SOL     OW11943   1.290  10.049   1.373
 3390SOL    HW111944   1.297  10.047   1.468
 3390SOL    HW211945   1.319  10.137   1.348
 3391SOL     OW11946   5.352   9.169   1.027
 3391SOL    HW111947   5.304   9.130   0.954
 3391SOL    HW211948   5.436   9.196   0.989
 3392SOL     OW11949   1.402  10.971   6.705
 3392SOL    HW111950   1.340  10.899   6.692
 3392SOL    HW211951   1.408  10.980   6.800
 3393SOL     OW11952   2.043   7.382   9.757
 3393SOL    HW111953   2.005   7.430   9.684
 3393SOL    HW211954   2.126   7.427   9.774
 3394SOL     OW11955   9.922   3.318   2.177
 3394SOL    HW111956   9.850   3.267   2.215
 3394SOL    HW211957   9.878   3.388   2.129
 3395SOL     OW11958   0.996  13.251   4.265
 3395SOL    HW111959   0.914  13.209   4.240
 3395SOL    HW211960   0.973  13.305   4.341
 3396SOL     OW11961   5.002   3.863  11.031
 3396SOL    HW111962   4.917   3.879  10.990
 3396SOL    HW211963   5.013   3.934  11.094
 3397SOL     OW11964  13.593  13.442  11.823
 3397SOL    HW111965  13.609  13.532  11.794
 3397SOL    HW211966  13.680  13.403  11.830
 3398SOL     OW11967   5.327   0.892   9.965
 3398SOL    HW111968   5.376   0.931   9.892
 3398SOL    HW211969   5.372   0.810   9.984
 3399SOL     OW11970   5.865  11.048   6.422
 3399SOL    HW111971   5.926  11.094   6.480
 3399SOL    HW211972   5.921  10.987   6.374
 3400SOL     OW11973   2.810   5.222   1.554
 3400SOL    HW111974   2.835   5.277   1.480
 3400SOL    HW211975   2.893   5.199   1.597
 3401SOL     OW11976   1.132   3.532  13.081
 3401SOL    HW111977   1.105   3.580  13.159
 3401SOL    HW211978   1.059   3.473  13.063
 3402SOL     OW11979  12.574   8.999   8.583
 3402SOL    HW111980  12.668   8.994   8.564
 3402SOL    HW211981  12.560   9.091   8.605
 3403SOL     OW11982   9.597  13.534  12.988
 3403SOL    HW111983   9.674  13.533  13.044
 3403SOL    HW211984   9.599  13.619  12.944
 3404SOL     OW11985  11.314   8.871   7.133
 3404SOL    HW111986  11.408   8.874   7.120
 3404SOL    HW211987  11.302   8.826   7.217
 3405SOL     OW11988   1.354   7.371  11.035
 3405SOL    HW111989   1.383   7.460  11.015
 3405SOL    HW211990   1.435   7.321  11.046
 3406SOL     OW11991  10.488  14.365  14.457
 3406SOL    HW111992  10.491  14.270  14.448
 3406SOL    HW211993  10.523  14.382  14.544
 3407SOL     OW11994   9.862   1.941  13.831
 3407SOL    HW111995   9.869   1.851  13.863
 3407SOL    HW211996   9.777   1.971  13.862
 3408SOL     OW11997   9.776   2.203   7.563
 3408SOL    HW111998   9.825   2.130   7.524
 3408SOL    HW211999   9.751   2.173   7.650
 3409SOL     OW12000  10.097   4.512   0.924
 3409SOL    HW112001  10.108   4.417   0.920
 3409SOL    HW212002  10.165   4.542   0.984
 3410SOL     OW12003   6.175  14.372   5.370
 3410SOL    HW112004   6.191  14.453   5.419
 3410SOL    HW212005   6.254  14.320   5.382
 3411SOL     OW12006   3.752   7.582  10.083
 3411SOL    HW112007   3.811   7.512  10.110
 3411SOL    HW212008   3.688   7.539  10.025
 3412SOL     OW12009   5.488  12.701   4.608
 3412SOL    HW112010   5.488  12.795   4.590
 3412SOL    HW212011   5.554  12.665   4.548
 3413SOL     OW12012   3.557   1.188   3.219
 3413SOL    HW112013   3.583   1.275   3.187
 3413SOL    HW212014   3.463   1.185   3.204
 3414SOL     OW12015  10.898   4.699   4.041
 3414SOL    HW112016  10.893   4.749   4.123
 3414SOL    HW212017  10.808   4.671   4.025
 3415SOL     OW12018   2.509   4.237  12.532
 3415SOL    HW112019   2.476   4.215  12.445
 3415SOL    HW212020   2.470   4.172  12.590
 3416SOL     OW12021  11.042  12.437  12.783
 3416SOL    HW112022  11.077  12.456  12.871
 3416SOL    HW212023  10.979  12.367  12.797
 3417SOL     OW12024  13.961  12.969   0.560
 3417SOL    HW112025  13.934  13.031   0.492
 3417SOL    HW212026  14.024  13.018   0.613
 3418SOL     OW12027   6.574   7.532   9.146
 3418SOL    HW112028   6.558   7.494   9.232
 3418SOL    HW212029   6.490   7.525   9.101
 3419SOL     OW12030   8.961   8.195   0.702
 3419SOL    HW112031   8.894   8.131   0.677
 3419SOL    HW212032   8.949   8.267   0.641
 3420SOL     OW12033   5.813  12.843  14.831
 3420SOL    HW112034   5.717  12.838  14.834
 3420SOL    HW212035   5.841  12.824   0.039
 3421SOL     OW12036   5.645  14.181   4.653
 3421SOL    HW112037   5.739  14.199   4.644
 3421SOL    HW212038   5.604  14.267   4.644
 3422SOL     OW12039   7.170   7.636   3.146
 3422SOL    HW112040   7.121   7.660   3.225
 3422SOL    HW212041   7.251   7.686   3.152
 3423SOL     OW12042   5.439  14.751  14.737
 3423SOL    HW112043   5.439  14.835  14.783
 3423SOL    HW212044   5.365  14.703  14.774
 3424SOL     OW12045   0.594   2.152   9.580
 3424SOL    HW112046   0.622   2.191   9.497
 3424SOL    HW212047   0.621   2.060   9.573
 3425SOL     OW12048   0.593  13.330   0.842
 3425SOL    HW112049   0.660  13.267   0.868
 3425SOL    HW212050   0.522  13.316   0.904
 3426SOL     OW12051  10.882   7.156   4.787
 3426SOL    HW112052  10.833   7.204   4.721
 3426SOL    HW212053  10.865   7.202   4.869
 3427SOL     OW12054  14.856   3.960   2.148
 3427SOL    HW112055   0.013   3.873   2.141
 3427SOL    HW212056  14.762   3.946   2.136
 3428SOL     OW12057  10.711   6.628   1.094
 3428SOL    HW112058  10.736   6.621   1.002
 3428SOL    HW212059  10.756   6.707   1.125
 3429SOL     OW12060   4.289   2.999  10.581
 3429SOL    HW112061   4.328   3.003  10.669
 3429SOL    HW212062   4.231   2.923  10.584
 3430SOL     OW12063   0.473  13.670   4.681
 3430SOL    HW112064   0.383  13.643   4.698
 3430SOL    HW212065   0.520  13.651   4.762
 3431SOL     OW12066   3.442   6.612   4.650
 3431SOL    HW112067   3.478   6.652   4.729
 3431SOL    HW212068   3.412   6.526   4.679
 3432SOL     OW12069   1.903   5.293   1.019
 3432SOL    HW112070   1.910   5.197   1.012
 3432SOL    HW212071   1.875   5.309   1.109
 3433SOL     OW12072   6.928  11.507   4.073
 3433SOL    HW112073   6.911  11.415   4.088
 3433SOL    HW212074   6.915  11.519   3.979
 3434SOL     OW12075   2.877   0.734   9.953
 3434SOL    HW112076   2.916   0.746   9.866
 3434SOL    HW212077   2.789   0.769   9.945
 3435SOL     OW12078   5.312  11.235   6.762
 3435SOL    HW112079   5.298  11.182   6.684
 3435SOL    HW212080   5.226  11.269   6.785
 3436SOL     OW12081  12.208  11.577  14.332
 3436SOL    HW112082  12.280  11.617  14.283
 3436SOL    HW212083  12.251  11.521  14.397
 3437SOL     OW12084  14.553  11.538   5.000
 3437SOL    HW112085  14.471  11.491   4.983
 3437SOL    HW212086  14.595  11.488   5.071
 3438SOL     OW12087   9.496   0.353   9.690
 3438SOL    HW112088   9.471   0.261   9.692
 3438SOL    HW212089   9.591   0.353   9.686
 3439SOL     OW12090   9.487  10.747  12.884
 3439SOL    HW112091   9.485  10.745  12.789
 3439SOL    HW212092   9.404  10.707  12.911
 3440SOL     OW12093   1.319  13.036  12.997
 3440SOL    HW112094   1.406  13.075  12.992
 3440SOL    HW212095   1.334  12.941  12.992
 3441SOL     OW12096   8.646   1.518   5.540
 3441SOL    HW112097   8.710   1.548   5.605
 3441SOL    HW212098   8.611   1.437   5.577
 3442SOL     OW12099   4.597  10.507   3.246
 3442SOL    HW112100   4.548  10.589   3.235
 3442SOL    HW212101   4.617  10.504   3.339
 3443SOL     OW12102  11.648  12.393  11.138
 3443SOL    HW112103  11.601  12.361  11.062
 3443SOL    HW212104  11.605  12.351  11.213
 3444SOL     OW12105   0.151   3.334  10.005
 3444SOL    HW112106   0.138   3.275   9.931
 3444SOL    HW212107   0.090   3.407   9.988
 3445SOL     OW12108   4.165   4.292   5.840
 3445SOL    HW112109   4.155   4.359   5.773
 3445SOL    HW212110   4.238   4.323   5.894
 3446SOL     OW12111   3.176   0.178   4.289
 3446SOL    HW112112   3.088   0.196   4.321
 3446SOL    HW212113   3.233   0.193   4.365
 3447SOL     OW12114   9.364   8.543   2.376
 3447SOL    HW112115   9.296   8.543   2.308
 3447SOL    HW212116   9.343   8.619   2.431
 3448SOL     OW12117   0.802  11.323   2.701
 3448SOL    HW112118   0.772  11.400   2.654
 3448SOL    HW212119   0.752  11.324   2.783
 3449SOL     OW12120   5.092  14.878  14.415
 3449SOL    HW112121   5.029   0.031  14.479
 3449SOL    HW212122   5.065   0.035  14.332
 3450SOL     OW12123   7.969   3.207   7.539
 3450SOL    HW112124   8.042   3.213   7.477
 3450SOL    HW212125   8.009   3.220   7.625
 3451SOL     OW12126   5.164  12.894  12.784
 3451SOL    HW112127   5.238  12.841  12.815
 3451SOL    HW212128   5.090  12.833  12.785
 3452SOL     OW12129  12.607  10.620  13.269
 3452SOL    HW112130  12.562  10.704  13.281
 3452SOL    HW212131  12.697  10.637  13.296
 3453SOL     OW12132  12.787  11.406  12.776
 3453SOL    HW112133  12.825  11.429  12.860
 3453SOL    HW212134  12.863  11.392  12.718
 3454SOL     OW12135   7.609   4.989   2.807
 3454SOL    HW112136   7.561   4.913   2.775
 3454SOL    HW212137   7.576   5.003   2.896
 3455SOL     OW12138   2.755   3.062   5.595
 3455SOL    HW112139   2.673   3.019   5.571
 3455SOL    HW212140   2.787   3.012   5.670
 3456SOL     OW12141   9.057   2.977  14.826
 3456SOL    HW112142   8.977   3.013  14.786
 3456SOL    HW212143   9.074   2.897  14.777
 3457SOL     OW12144  13.984   6.960   4.497
 3457SOL    HW112145  14.013   7.029   4.556
 3457SOL    HW212146  14.038   6.970   4.419
 3458SOL     OW12147   9.878   7.144   2.031
 3458SOL    HW112148   9.892   7.238   2.044
 3458SOL    HW212149   9.963   7.109   2.007
 3459SOL     OW12150  14.003   5.298   2.663
 3459SOL    HW112151  13.928   5.265   2.613
 3459SOL    HW212152  14.055   5.347   2.599
 3460SOL     OW12153  12.336   5.913   6.044
 3460SOL    HW112154  12.280   5.958   6.107
 3460SOL    HW212155  12.360   5.979   5.980
 3461SOL     OW12156   6.679   3.802   9.556
 3461SOL    HW112157   6.723   3.751   9.489
 3461SOL    HW212158   6.719   3.889   9.550
 3462SOL     OW12159   3.601   1.452   3.711
 3462SOL    HW112160   3.631   1.540   3.686
 3462SOL    HW212161   3.638   1.438   3.798
 3463SOL     OW12162   2.107   2.087   4.064
 3463SOL    HW112163   2.093   2.057   3.974
 3463SOL    HW212164   2.064   2.022   4.119
 3464SOL     OW12165   1.121   2.102   5.583
 3464SOL    HW112166   1.091   2.013   5.603
 3464SOL    HW212167   1.103   2.151   5.663
 3465SOL     OW12168   4.060   0.564  10.488
 3465SOL    HW112169   4.129   0.498  10.485
 3465SOL    HW212170   4.028   0.561  10.578
 3466SOL     OW12171   9.891   7.792  12.742
 3466SOL    HW112172   9.936   7.707  12.740
 3466SOL    HW212173   9.807   7.776  12.700
 3467SOL     OW12174   9.515  14.254   9.554
 3467SOL    HW112175   9.561  14.337   9.542
 3467SOL    HW212176   9.423  14.278   9.557
 3468SOL     OW12177   7.702   9.058   5.858
 3468SOL    HW112178   7.767   9.053   5.788
 3468SOL    HW212179   7.746   9.019   5.934
 3469SOL     OW12180   8.562   0.359  11.189
 3469SOL    HW112181   8.485   0.326  11.143
 3469SOL    HW212182   8.588   0.437  11.140
 3470SOL     OW12183   1.595  14.280  12.626
 3470SOL    HW112184   1.676  14.320  12.657
 3470SOL    HW212185   1.569  14.220  12.695
 3471SOL     OW12186   6.465   2.038   9.822
 3471SOL    HW112187   6.419   2.111   9.781
 3471SOL    HW212188   6.449   2.050   9.916
 3472SOL     OW12189   9.869   0.004   4.597
 3472SOL    HW112190   9.885   0.095   4.621
 3472SOL    HW212191   9.886  14.836   4.678
 3473SOL     OW12192  14.708   0.045   0.248
 3473SOL    HW112193  14.759   0.106   0.195
 3473SOL    HW212194  14.734  14.840   0.215
 3474SOL     OW12195   9.351   0.880   1.661
 3474SOL    HW112196   9.268   0.840   1.687
 3474SOL    HW212197   9.418   0.823   1.699
 3475SOL     OW12198  13.295  11.283   3.280
 3475SOL    HW112199  13.346  11.215   3.323
 3475SOL    HW212200  13.360  11.348   3.253
 3476SOL     OW12201   0.847   2.087  14.219
 3476SOL    HW112202   0.770   2.059  14.169
 3476SOL    HW212203   0.811   2.114  14.304
 3477SOL     OW12204   4.470   7.100  12.414
 3477SOL    HW112205   4.472   7.014  12.373
 3477SOL    HW212206   4.516   7.157  12.352
 3478SOL     OW12207   1.355   6.888  10.690
 3478SOL    HW112208   1.373   6.969  10.737
 3478SOL    HW212209   1.306   6.834  10.752
 3479SOL     OW12210  13.716  13.464   6.543
 3479SOL    HW112211  13.702  13.452   6.449
 3479SOL    HW212212  13.655  13.533   6.568
 3480SOL     OW12213  14.594   7.994  10.412
 3480SOL    HW112214  14.566   7.949  10.332
 3480SOL    HW212215  14.539   7.957  10.481
 3481SOL     OW12216  11.341   7.427   6.456
 3481SOL    HW112217  11.288   7.348   6.461
 3481SOL    HW212218  11.299   7.478   6.386
 3482SOL     OW12219   2.677   7.094   4.453
 3482SOL    HW112220   2.590   7.117   4.420
 3482SOL    HW212221   2.671   7.002   4.479
 3483SOL     OW12222  11.170   8.430   9.162
 3483SOL    HW112223  11.162   8.495   9.091
 3483SOL    HW212224  11.154   8.480   9.242
 3484SOL     OW12225   0.215  14.329   8.729
 3484SOL    HW112226   0.186  14.329   8.821
 3484SOL    HW212227   0.213  14.237   8.703
 3485SOL     OW12228  12.586  12.800   1.330
 3485SOL    HW112229  12.630  12.817   1.247
 3485SOL    HW212230  12.569  12.887   1.366
 3486SOL     OW12231   7.233   5.410   0.412
 3486SOL    HW112232   7.263   5.447   0.495
 3486SOL    HW212233   7.269   5.322   0.411
 3487SOL     OW12234  12.588  10.545   4.795
 3487SOL    HW112235  12.534  10.586   4.862
 3487SOL    HW212236  12.541  10.465   4.771
 3488SOL     OW12237  13.514  10.877   8.862
 3488SOL    HW112238  13.510  10.783   8.882
 3488SOL    HW212239  13.440  10.892   8.803
 3489SOL     OW12240   2.937   9.549   7.098
 3489SOL    HW112241   2.871   9.526   7.032
 3489SOL    HW212242   2.990   9.617   7.056
 3490SOL     OW12243  11.983   1.770   7.431
 3490SOL    HW112244  11.892   1.780   7.402
 3490SOL    HW212245  12.003   1.678   7.411
 3491SOL     OW12246   9.401  10.571   1.276
 3491SOL    HW112247   9.469  10.634   1.300
 3491SOL    HW212248   9.450  10.491   1.253
 3492SOL     OW12249   9.039  12.220   3.978
 3492SOL    HW112250   9.007  12.162   4.047
 3492SOL    HW212251   9.129  12.241   4.003
 3493SOL     OW12252  10.713   4.443   5.946
 3493SOL    HW112253  10.737   4.352   5.959
 3493SOL    HW212254  10.768   4.492   6.008
 3494SOL     OW12255   9.869   6.423  12.765
 3494SOL    HW112256   9.941   6.483  12.786
 3494SOL    HW212257   9.818   6.469  12.698
 3495SOL     OW12258  13.982   5.887   7.138
 3495SOL    HW112259  13.907   5.928   7.181
 3495SOL    HW212260  14.017   5.826   7.204
 3496SOL     OW12261   0.120  13.935   5.682
 3496SOL    HW112262   0.207  13.971   5.667
 3496SOL    HW212263   0.085  13.988   5.754
 3497SOL     OW12264   0.150  12.860  14.038
 3497SOL    HW112265   0.243  12.882  14.037
 3497SOL    HW212266   0.118  12.887  13.952
 3498SOL     OW12267   6.784   2.092   4.263
 3498SOL    HW112268   6.751   2.052   4.343
 3498SOL    HW212269   6.739   2.175   4.256
 3499SOL     OW12270   8.548   3.725  11.665
 3499SOL    HW112271   8.525   3.640  11.628
 3499SOL    HW212272   8.642   3.733  11.650
 3500SOL     OW12273  14.644  12.089  13.913
 3500SOL    HW112274  14.654  12.018  13.850
 3500SOL    HW212275  14.616  12.164  13.860
 3501SOL     OW12276  14.138   9.083  11.746
 3501SOL    HW112277  14.186   9.164  11.733
 3501SOL    HW212278  14.205   9.015  11.747
 3502SOL     OW12279   8.748   9.872  10.970
 3502SOL    HW112280   8.780   9.948  11.019
 3502SOL    HW212281   8.824   9.815  10.962
 3503SOL     OW12282  10.263   0.785  11.956
 3503SOL    HW112283  10.248   0.774  11.862
 3503SOL    HW212284  10.340   0.732  11.975
 3504SOL     OW12285  12.572   3.705  10.309
 3504SOL    HW112286  12.483   3.678  10.288
 3504SOL    HW212287  12.599   3.759  10.235
 3505SOL     OW12288  14.403   0.297   7.072
 3505SOL    HW112289  14.369   0.373   7.120
 3505SOL    HW212290  14.328   0.237   7.065
 3506SOL     OW12291   2.314   7.822   9.201
 3506SOL    HW112292   2.363   7.768   9.139
 3506SOL    HW212293   2.304   7.766   9.279
 3507SOL     OW12294   8.009  12.574  11.201
 3507SOL    HW112295   7.955  12.516  11.147
 3507SOL    HW212296   7.989  12.662  11.168
 3508SOL     OW12297  13.974   3.783  11.302
 3508SOL    HW112298  14.054   3.822  11.266
 3508SOL    HW212299  13.965   3.824  11.388
 3509SOL     OW12300   7.779   2.295   9.439
 3509SOL    HW112301   7.702   2.313   9.384
 3509SOL    HW212302   7.845   2.261   9.378
 3510SOL     OW12303   8.813  12.998  11.373
 3510SOL    HW112304   8.742  13.008  11.436
 3510SOL    HW212305   8.788  13.052  11.299
 3511SOL     OW12306   5.138  11.165   4.535
 3511SOL    HW112307   5.214  11.167   4.478
 3511SOL    HW212308   5.142  11.246   4.585
 3512SOL     OW12309   5.481   1.292   0.331
 3512SOL    HW112310   5.387   1.288   0.346
 3512SOL    HW212311   5.517   1.328   0.412
 3513SOL     OW12312  10.206   8.824   4.885
 3513SOL    HW112313  10.236   8.768   4.956
 3513SOL    HW212314  10.131   8.871   4.921
 3514SOL     OW12315   0.134  10.644  13.670
 3514SOL    HW112316   0.169  10.569  13.718
 3514SOL    HW212317   0.043  10.621  13.652
 3515SOL     OW12318   0.998   9.435   9.287
 3515SOL    HW112319   1.086   9.473   9.284
 3515SOL    HW212320   0.984   9.417   9.379
 3516SOL     OW12321   9.172   4.427   5.377
 3516SOL    HW112322   9.151   4.441   5.470
 3516SOL    HW212323   9.176   4.515   5.340
 3517SOL     OW12324  14.049  14.486  13.104
 3517SOL    HW112325  14.047  14.434  13.024
 3517SOL    HW212326  14.079  14.425  13.172
 3518SOL     OW12327  13.055  10.322  10.998
 3518SOL    HW112328  12.985  10.388  10.995
 3518SOL    HW212329  13.115  10.348  10.929
 3519SOL     OW12330   5.249   6.762   3.129
 3519SOL    HW112331   5.208   6.845   3.104
 3519SOL    HW212332   5.323   6.753   3.069
 3520SOL     OW12333   1.411   0.168   0.763
 3520SOL    HW112334   1.425   0.245   0.708
 3520SOL    HW212335   1.497   0.150   0.801
 3521SOL     OW12336  11.006  13.347  13.092
 3521SOL    HW112337  11.026  13.441  13.095
 3521SOL    HW212338  10.928  13.338  13.146
 3522SOL     OW12339   7.330  10.938  11.338
 3522SOL    HW112340   7.347  11.028  11.309
 3522SOL    HW212341   7.362  10.884  11.266
 3523SOL     OW12342  10.273   3.826   1.387
 3523SOL    HW112343  10.267   3.907   1.437
 3523SOL    HW212344  10.183   3.809   1.359
 3524SOL     OW12345  10.481  14.183   9.560
 3524SOL    HW112346  10.455  14.098   9.598
 3524SOL    HW212347  10.487  14.242   9.635
 3525SOL     OW12348  13.125  14.796   7.245
 3525SOL    HW112349  13.076  14.834   7.317
 3525SOL    HW212350  13.059  14.767   7.183
 3526SOL     OW12351   2.728  14.880   5.026
 3526SOL    HW112352   2.806  14.841   5.066
 3526SOL    HW212353   2.742   0.093   5.034
 3527SOL     OW12354   1.808   8.860  13.159
 3527SOL    HW112355   1.835   8.910  13.082
 3527SOL    HW212356   1.866   8.784  13.160
 3528SOL     OW12357   6.786  10.434   7.083
 3528SOL    HW112358   6.710  10.376   7.080
 3528SOL    HW212359   6.804  10.445   7.177
 3529SOL     OW12360   1.045  10.450   4.692
 3529SOL    HW112361   1.132  10.434   4.656
 3529SOL    HW212362   1.052  10.425   4.784
 3530SOL     OW12363   2.806   4.569   8.010
 3530SOL    HW112364   2.748   4.493   8.014
 3530SOL    HW212365   2.831   4.576   7.918
 3531SOL     OW12366  13.058   5.788   4.428
 3531SOL    HW112367  13.059   5.882   4.447
 3531SOL    HW212368  13.069   5.746   4.513
 3532SOL     OW12369  11.270  13.495   2.982
 3532SOL    HW112370  11.271  13.536   3.068
 3532SOL    HW212371  11.217  13.553   2.928
 3533SOL     OW12372   6.149  12.684   8.043
 3533SOL    HW112373   6.065  12.710   8.082
 3533SOL    HW212374   6.125  12.638   7.963
 3534SOL     OW12375   7.744   6.105   0.395
 3534SOL    HW112376   7.722   6.123   0.304
 3534SOL    HW212377   7.690   6.029   0.418
 3535SOL     OW12378  11.805  11.649   3.879
 3535SOL    HW112379  11.809  11.557   3.905
 3535SOL    HW212380  11.837  11.649   3.789
 3536SOL     OW12381  10.410  12.227  12.331
 3536SOL    HW112382  10.406  12.176  12.250
 3536SOL    HW212383  10.319  12.249  12.349
 3537SOL     OW12384  11.625  14.518   2.052
 3537SOL    HW112385  11.709  14.563   2.057
 3537SOL    HW212386  11.578  14.562   1.981
 3538SOL     OW12387   7.001  10.199   1.800
 3538SOL    HW112388   7.077  10.251   1.774
 3538SOL    HW212389   6.974  10.236   1.884
 3539SOL     OW12390   7.217   9.937  13.837
 3539SOL    HW112391   7.185   9.885  13.911
 3539SOL    HW212392   7.300   9.974  13.868
 3540SOL     OW12393  10.352   1.527  11.228
 3540SOL    HW112394  10.330   1.585  11.154
 3540SOL    HW212395  10.414   1.578  11.280
 3541SOL     OW12396   0.223   6.137   5.586
 3541SOL    HW112397   0.225   6.233   5.591
 3541SOL    HW212398   0.301   6.115   5.535
 3542SOL     OW12399  13.445   2.152  11.991
 3542SOL    HW112400  13.434   2.233  12.041
 3542SOL    HW212401  13.396   2.086  12.041
 3543SOL     OW12402  12.811   0.633  13.596
 3543SOL    HW112403  12.889   0.583  13.615
 3543SOL    HW212404  12.820   0.657  13.503
 3544SOL     OW12405   4.716   8.727   8.797
 3544SOL    HW112406   4.705   8.673   8.875
 3544SOL    HW212407   4.804   8.706   8.765
 3545SOL     OW12408  12.004  14.434   7.606
 3545SOL    HW112409  11.948  14.410   7.680
 3545SOL    HW212410  12.028  14.525   7.623
 3546SOL     OW12411   2.495   8.832   3.953
 3546SOL    HW112412   2.495   8.849   4.047
 3546SOL    HW212413   2.443   8.753   3.942
 3547SOL     OW12414   2.598   5.487  10.510
 3547SOL    HW112415   2.658   5.487  10.585
 3547SOL    HW212416   2.613   5.572  10.468
 3548SOL     OW12417  11.109  14.470  11.327
 3548SOL    HW112418  11.188  14.476  11.381
 3548SOL    HW212419  11.141  14.465  11.237
 3549SOL     OW12420   0.251  10.641   1.253
 3549SOL    HW112421   0.252  10.572   1.319
 3549SOL    HW212422   0.327  10.623   1.198
 3550SOL     OW12423  14.231  11.884   2.581
 3550SOL    HW112424  14.176  11.956   2.550
 3550SOL    HW212425  14.170  11.812   2.595
 3551SOL     OW12426  12.321   7.963  10.263
 3551SOL    HW112427  12.273   8.013  10.329
 3551SOL    HW212428  12.270   7.882  10.252
 3552SOL     OW12429  11.932   2.216   9.635
 3552SOL    HW112430  12.026   2.209   9.648
 3552SOL    HW212431  11.921   2.290   9.574
 3553SOL     OW12432   7.648   2.593  10.703
 3553SOL    HW112433   7.576   2.618  10.761
 3553SOL    HW212434   7.607   2.537  10.637
 3554SOL     OW12435   4.388   4.153  11.526
 3554SOL    HW112436   4.309   4.206  11.515
 3554SOL    HW212437   4.435   4.163  11.442
 3555SOL     OW12438   0.649  13.711   2.918
 3555SOL    HW112439   0.677  13.623   2.893
 3555SOL    HW212440   0.630  13.756   2.836
 3556SOL     OW12441   1.814   2.029   0.461
 3556SOL    HW112442   1.726   2.059   0.486
 3556SOL    HW212443   1.862   2.109   0.441
 3557SOL     OW12444   7.822  13.923   5.854
 3557SOL    HW112445   7.801  13.939   5.762
 3557SOL    HW212446   7.912  13.955   5.863
 3558SOL     OW12447   1.057   7.172   8.430
 3558SOL    HW112448   1.040   7.204   8.342
 3558SOL    HW212449   0.988   7.107   8.445
 3559SOL     OW12450  13.186   4.211  14.208
 3559SOL    HW112451  13.096   4.244  14.200
 3559SOL    HW212452  13.224   4.223  14.121
 3560SOL     OW12453   6.850   3.648   9.968
 3560SOL    HW112454   6.783   3.639   9.901
 3560SOL    HW212455   6.848   3.741   9.991
 3561SOL     OW12456   9.166   7.208   0.534
 3561SOL    HW112457   9.090   7.211   0.476
 3561SOL    HW212458   9.157   7.126   0.582
 3562SOL     OW12459   7.076   0.330   4.846
 3562SOL    HW112460   7.029   0.406   4.811
 3562SOL    HW212461   7.154   0.322   4.790
 3563SOL     OW12462   7.889  10.901   2.718
 3563SOL    HW112463   7.823  10.870   2.657
 3563SOL    HW212464   7.954  10.945   2.663
 3564SOL     OW12465  12.834  11.710   4.640
 3564SOL    HW112466  12.894  11.759   4.696
 3564SOL    HW212467  12.748  11.726   4.679
 3565SOL     OW12468   6.168   5.229  12.593
 3565SOL    HW112469   6.092   5.240  12.650
 3565SOL    HW212470   6.240   5.268  12.642
 3566SOL     OW12471   5.947   4.901   2.559
 3566SOL    HW112472   5.992   4.907   2.644
 3566SOL    HW212473   5.981   4.821   2.519
 3567SOL     OW12474   9.677  14.107  10.939
 3567SOL    HW112475   9.710  14.067  10.859
 3567SOL    HW212476   9.593  14.145  10.914
 3568SOL     OW12477   0.096   5.903   7.781
 3568SOL    HW112478   0.009   5.942   7.793
 3568SOL    HW212479   0.092   5.862   7.695
 3569SOL     OW12480  12.529  14.880   0.914
 3569SOL    HW112481  12.539   0.031   0.825
 3569SOL    HW212482  12.582   0.058   0.968
 3570SOL     OW12483   5.808  12.839   2.000
 3570SOL    HW112484   5.738  12.824   1.937
 3570SOL    HW212485   5.860  12.758   1.998
 3571SOL     OW12486   7.652   6.947   2.463
 3571SOL    HW112487   7.702   7.019   2.425
 3571SOL    HW212488   7.696   6.928   2.546
 3572SOL     OW12489   0.490  12.763   3.319
 3572SOL    HW112490   0.537  12.825   3.375
 3572SOL    HW212491   0.545  12.754   3.242
 3573SOL     OW12492  12.921   7.449  10.654
 3573SOL    HW112493  12.983   7.377  10.643
 3573SOL    HW212494  12.864   7.443  10.578
 3574SOL     OW12495   5.048  13.402   3.857
 3574SOL    HW112496   5.104  13.355   3.919
 3574SOL    HW212497   5.077  13.493   3.863
 3575SOL     OW12498   0.811   6.129   8.807
 3575SOL    HW112499   0.753   6.196   8.770
 3575SOL    HW212500   0.876   6.114   8.738
 3576SOL     OW12501   1.978   0.863   6.569
 3576SOL    HW112502   1.911   0.906   6.623
 3576SOL    HW212503   1.931   0.791   6.527
 3577SOL     OW12504   1.077   9.000   6.743
 3577SOL    HW112505   1.057   9.083   6.698
 3577SOL    HW212506   0.993   8.970   6.776
 3578SOL     OW12507   9.208   3.708  12.964
 3578SOL    HW112508   9.197   3.801  12.982
 3578SOL    HW212509   9.302   3.693  12.968
 3579SOL     OW12510   6.198  11.933   3.053
 3579SOL    HW112511   6.177  11.880   2.976
 3579SOL    HW212512   6.122  11.990   3.065
 3580SOL     OW12513   2.628   7.240   7.543
 3580SOL    HW112514   2.625   7.329   7.577
 3580SOL    HW212515   2.633   7.250   7.448
 3581SOL     OW12516   6.450   0.829   3.261
 3581SOL    HW112517   6.364   0.820   3.220
 3581SOL    HW212518   6.498   0.886   3.201
 3582SOL     OW12519   9.043   2.967   0.810
 3582SOL    HW112520   9.099   2.962   0.732
 3582SOL    HW212521   8.987   2.890   0.805
 3583SOL     OW12522   6.716   8.420   7.728
 3583SOL    HW112523   6.756   8.340   7.763
 3583SOL    HW212524   6.786   8.485   7.732
 3584SOL     OW12525  14.479  14.210   1.336
 3584SOL    HW112526  14.455  14.158   1.259
 3584SOL    HW212527  14.425  14.174   1.407
 3585SOL     OW12528   8.682   2.465  10.061
 3585SOL    HW112529   8.746   2.526  10.024
 3585SOL    HW212530   8.724   2.429  10.139
 3586SOL     OW12531  12.518  14.409   4.729
 3586SOL    HW112532  12.515  14.320   4.695
 3586SOL    HW212533  12.527  14.464   4.651
 3587SOL     OW12534  14.022  11.329   1.859
 3587SOL    HW112535  13.945  11.372   1.822
 3587SOL    HW212536  14.097  11.379   1.825
 3588SOL     OW12537   7.256   7.388  13.107
 3588SOL    HW112538   7.198   7.357  13.176
 3588SOL    HW212539   7.328   7.432  13.153
 3589SOL     OW12540  12.069   1.533  14.169
 3589SOL    HW112541  12.158   1.527  14.204
 3589SOL    HW212542  12.018   1.472  14.223
 3590SOL     OW12543  14.768  13.459   9.932
 3590SOL    HW112544  14.761  13.438   9.839
 3590SOL    HW212545  14.720  13.389   9.976
 3591SOL     OW12546   5.028   0.400   5.090
 3591SOL    HW112547   4.982   0.331   5.137
 3591SOL    HW212548   4.967   0.427   5.021
 3592SOL     OW12549   1.829   8.614   8.343
 3592SOL    HW112550   1.773   8.600   8.420
 3592SOL    HW212551   1.820   8.533   8.292
 3593SOL     OW12552  13.341  13.346  13.621
 3593SOL    HW112553  13.428  13.331  13.659
 3593SOL    HW212554  13.341  13.438  13.595
 3594SOL     OW12555   9.796  12.074   7.703
 3594SOL    HW112556   9.746  11.995   7.684
 3594SOL    HW212557   9.799  12.121   7.620
 3595SOL     OW12558   0.989   9.776  12.165
 3595SOL    HW112559   1.061   9.828  12.130
 3595SOL    HW212560   0.910   9.820  12.135
 3596SOL     OW12561  13.078   1.740  10.557
 3596SOL    HW112562  13.010   1.699  10.504
 3596SOL    HW212563  13.054   1.718  10.648
 3597SOL     OW12564   9.861   1.921  11.636
 3597SOL    HW112565   9.824   1.991  11.691
 3597SOL    HW212566   9.851   1.954  11.546
 3598SOL     OW12567  10.386   2.581   2.362
 3598SOL    HW112568  10.424   2.522   2.426
 3598SOL    HW212569  10.409   2.544   2.277
 3599SOL     OW12570   7.164  10.461   9.474
 3599SOL    HW112571   7.209  10.376   9.471
 3599SOL    HW212572   7.221  10.517   9.527
 3600SOL     OW12573  11.472   2.853   6.701
 3600SOL    HW112574  11.537   2.833   6.634
 3600SOL    HW212575  11.466   2.949   6.700
 3601SOL     OW12576  11.776  12.064  14.259
 3601SOL    HW112577  11.830  12.074  14.181
 3601SOL    HW212578  11.837  12.063  14.332
 3602SOL     OW12579   0.772   8.255   4.488
 3602SOL    HW112580   0.851   8.276   4.439
 3602SOL    HW212581   0.745   8.169   4.454
 3603SOL     OW12582   4.761   4.597   8.453
 3603SOL    HW112583   4.834   4.542   8.484
 3603SOL    HW212584   4.697   4.534   8.419
 3604SOL     OW12585   6.030   9.694   9.944
 3604SOL    HW112586   6.088   9.667  10.016
 3604SOL    HW212587   6.036   9.624   9.880
 3605SOL     OW12588   1.033   4.796   2.646
 3605SOL    HW112589   0.992   4.711   2.630
 3605SOL    HW212590   0.965   4.848   2.689
 3606SOL     OW12591  11.741  11.582  10.468
 3606SOL    HW112592  11.798  11.511  10.498
 3606SOL    HW212593  11.691  11.544  10.397
 3607SOL     OW12594   8.731  14.091   4.417
 3607SOL    HW112595   8.809  14.037   4.401
 3607SOL    HW212596   8.724  14.094   4.513
 3608SOL     OW12597   6.289   2.361   5.519
 3608SOL    HW112598   6.206   2.342   5.561
 3608SOL    HW212599   6.343   2.400   5.588
 3609SOL     OW12600   4.305   3.522   2.382
 3609SOL    HW112601   4.264   3.557   2.461
 3609SOL    HW212602   4.380   3.579   2.367
 3610SOL     OW12603   8.060   3.669   6.374
 3610SOL    HW112604   8.027   3.745   6.327
 3610SOL    HW212605   8.090   3.609   6.305
 3611SOL     OW12606   0.454   1.825   8.014
 3611SOL    HW112607   0.478   1.828   8.107
 3611SOL    HW212608   0.361   1.850   8.012
 3612SOL     OW12609   2.070   5.370   9.572
 3612SOL    HW112610   2.097   5.292   9.523
 3612SOL    HW212611   2.034   5.336   9.654
 3613SOL     OW12612  13.431  10.093   7.376
 3613SOL    HW112613  13.347  10.070   7.414
 3613SOL    HW212614  13.419  10.079   7.282
 3614SOL     OW12615   3.144   6.110  14.571
 3614SOL    HW112616   3.138   6.195  14.616
 3614SOL    HW212617   3.067   6.109  14.514
 3615SOL     OW12618   3.364   0.435   2.452
 3615SOL    HW112619   3.348   0.398   2.365
 3615SOL    HW212620   3.434   0.500   2.438
 3616SOL     OW12621  12.044   3.627   7.051
 3616SOL    HW112622  11.949   3.618   7.040
 3616SOL    HW212623  12.063   3.579   7.132
 3617SOL     OW12624  13.442  14.440   9.669
 3617SOL    HW112625  13.491  14.382   9.612
 3617SOL    HW212626  13.502  14.511   9.690
 3618SOL     OW12627  10.091  11.040   5.350
 3618SOL    HW112628  10.138  11.111   5.307
 3618SOL    HW212629  10.151  11.009   5.418
 3619SOL     OW12630   7.606   6.543  13.463
 3619SOL    HW112631   7.587   6.458  13.502
 3619SOL    HW212632   7.574   6.607  13.527
 3620SOL     OW12633   2.418   0.014   8.702
 3620SOL    HW112634   2.449   0.035   8.790
 3620SOL    HW212635   2.337   0.065   8.693
 3621SOL     OW12636   4.994   4.832   5.568
 3621SOL    HW112637   4.917   4.789   5.605
 3621SOL    HW212638   5.068   4.793   5.616
 3622SOL     OW12639  14.096   3.866   5.781
 3622SOL    HW112640  14.042   3.944   5.764
 3622SOL    HW212641  14.038   3.792   5.762
 3623SOL     OW12642   7.433   0.181   6.247
 3623SOL    HW112643   7.497   0.163   6.317
 3623SOL    HW212644   7.458   0.121   6.177
 3624SOL     OW12645  11.000   7.241   8.003
 3624SOL    HW112646  10.929   7.185   8.035
 3624SOL    HW212647  11.069   7.231   8.069
 3625SOL     OW12648   2.579  12.100  11.463
 3625SOL    HW112649   2.580  12.133  11.373
 3625SOL    HW212650   2.496  12.133  11.499
 3626SOL     OW12651  13.187  14.366  11.672
 3626SOL    HW112652  13.100  14.337  11.699
 3626SOL    HW212653  13.246  14.299  11.705
 3627SOL     OW12654   9.210   3.922   3.273
 3627SOL    HW112655   9.134   3.962   3.231
 3627SOL    HW212656   9.213   3.832   3.240
 3628SOL     OW12657   3.718  14.665   8.226
 3628SOL    HW112658   3.805  14.688   8.256
 3628SOL    HW212659   3.666  14.744   8.238
 3629SOL     OW12660   4.575   5.448   1.558
 3629SOL    HW112661   4.530   5.531   1.569
 3629SOL    HW212662   4.546   5.395   1.633
 3630SOL     OW12663   4.242   7.856   6.156
 3630SOL    HW112664   4.243   7.852   6.251
 3630SOL    HW212665   4.264   7.767   6.128
 3631SOL     OW12666   6.392   1.842   2.510
 3631SOL    HW112667   6.482   1.807   2.508
 3631SOL    HW212668   6.337   1.767   2.487
 3632SOL     OW12669  11.000   9.904  14.129
 3632SOL    HW112670  10.910   9.916  14.100
 3632SOL    HW212671  11.048   9.877  14.051
 3633SOL     OW12672   6.212  10.767   6.058
 3633SOL    HW112673   6.162  10.689   6.081
 3633SOL    HW212674   6.294  10.758   6.107
 3634SOL     OW12675   1.573   9.775   2.326
 3634SOL    HW112676   1.499   9.732   2.283
 3634SOL    HW212677   1.637   9.705   2.341
 3635SOL     OW12678   3.092  11.225   2.930
 3635SOL    HW112679   3.054  11.300   2.884
 3635SOL    HW212680   3.185  11.227   2.905
 3636SOL     OW12681  10.962  13.720  14.619
 3636SOL    HW112682  10.963  13.715  14.715
 3636SOL    HW212683  11.003  13.638  14.591
 3637SOL     OW12684   7.628  10.642   3.051
 3637SOL    HW112685   7.720  10.615   3.042
 3637SOL    HW212686   7.599  10.661   2.962
 3638SOL     OW12687   7.749   5.888  10.927
 3638SOL    HW112688   7.739   5.927  10.840
 3638SOL    HW212689   7.734   5.794  10.913
 3639SOL     OW12690  12.706   3.417  12.005
 3639SOL    HW112691  12.631   3.441  11.951
 3639SOL    HW212692  12.781   3.457  11.963
 3640SOL     OW12693   9.239  10.152  11.231
 3640SOL    HW112694   9.176  10.088  11.198
 3640SOL    HW212695   9.245  10.133  11.324
 3641SOL     OW12696   5.126   7.186  11.375
 3641SOL    HW112697   5.092   7.196  11.464
 3641SOL    HW212698   5.199   7.248  11.369
 3642SOL     OW12699   7.367   9.349  10.328
 3642SOL    HW112700   7.305   9.295  10.280
 3642SOL    HW212701   7.320   9.376  10.407
 3643SOL     OW12702   7.826  12.801   4.317
 3643SOL    HW112703   7.743  12.761   4.292
 3643SOL    HW212704   7.892  12.735   4.295
 3644SOL     OW12705  11.394   0.366   0.296
 3644SOL    HW112706  11.415   0.459   0.284
 3644SOL    HW212707  11.298   0.364   0.303
 3645SOL     OW12708   5.107   9.404   2.591
 3645SOL    HW112709   5.054   9.428   2.515
 3645SOL    HW212710   5.058   9.437   2.666
 3646SOL     OW12711   1.302   3.454   3.779
 3646SOL    HW112712   1.343   3.508   3.712
 3646SOL    HW212713   1.275   3.375   3.732
 3647SOL     OW12714   4.652   1.324  11.711
 3647SOL    HW112715   4.631   1.413  11.685
 3647SOL    HW212716   4.574   1.273  11.686
 3648SOL     OW12717  14.859   9.591  11.819
 3648SOL    HW112718   0.029   9.562  11.744
 3648SOL    HW212719  14.783   9.635  11.782
 3649SOL     OW12720   6.218   0.685  14.779
 3649SOL    HW112721   6.286   0.690  14.712
 3649SOL    HW212722   6.258   0.636  14.851
 3650SOL     OW12723   0.453   9.887   3.976
 3650SOL    HW112724   0.394   9.892   4.051
 3650SOL    HW212725   0.422   9.956   3.917
 3651SOL     OW12726  11.298   5.483   0.099
 3651SOL    HW112727  11.248   5.412   0.140
 3651SOL    HW212728  11.368   5.438   0.051
 3652SOL     OW12729   8.935   0.265  14.511
 3652SOL    HW112730   9.028   0.244  14.517
 3652SOL    HW212731   8.895   0.187  14.471
 3653SOL     OW12732   4.386   0.848   8.054
 3653SOL    HW112733   4.404   0.921   8.114
 3653SOL    HW212734   4.387   0.888   7.967
 3654SOL     OW12735  14.552   3.028   4.320
 3654SOL    HW112736  14.480   2.970   4.295
 3654SOL    HW212737  14.623   3.006   4.260
 3655SOL     OW12738  12.326  13.798  12.836
 3655SOL    HW112739  12.354  13.827  12.922
 3655SOL    HW212740  12.303  13.878  12.789
 3656SOL     OW12741  12.687  11.014   8.633
 3656SOL    HW112742  12.642  11.044   8.554
 3656SOL    HW212743  12.686  11.090   8.691
 3657SOL     OW12744   1.019   1.708   4.688
 3657SOL    HW112745   0.967   1.686   4.766
 3657SOL    HW212746   0.955   1.740   4.625
 3658SOL     OW12747  13.124   3.085   2.506
 3658SOL    HW112748  13.147   3.177   2.511
 3658SOL    HW212749  13.038   3.079   2.549
 3659SOL     OW12750   2.392   4.412   0.785
 3659SOL    HW112751   2.408   4.472   0.712
 3659SOL    HW212752   2.450   4.442   0.854
 3660SOL     OW12753  12.112  10.425   1.224
 3660SOL    HW112754  12.133  10.426   1.318
 3660SOL    HW212755  12.020  10.398   1.221
 3661SOL     OW12756  10.686   1.519  11.007
 3661SOL    HW112757  10.704   1.514  11.101
 3661SOL    HW212758  10.744   1.589  10.975
 3662SOL     OW12759   7.294   6.818  13.463
 3662SOL    HW112760   7.349   6.836  13.387
 3662SOL    HW212761   7.341   6.857  13.537
 3663SOL     OW12762   6.615   2.134  10.359
 3663SOL    HW112763   6.631   2.044  10.386
 3663SOL    HW212764   6.589   2.180  10.439
 3664SOL     OW12765   4.114   9.050  10.770
 3664SOL    HW112766   4.196   9.063  10.723
 3664SOL    HW212767   4.120   9.109  10.845
 3665SOL     OW12768   8.849  14.725   1.358
 3665SOL    HW112769   8.841  14.795   1.423
 3665SOL    HW212770   8.867  14.770   1.275
 3666SOL     OW12771   9.189   2.075   4.438
 3666SOL    HW112772   9.110   2.119   4.406
 3666SOL    HW212773   9.257   2.096   4.374
 3667SOL     OW12774   2.033   5.209  10.239
 3667SOL    HW112775   2.065   5.200  10.329
 3667SOL    HW212776   2.101   5.257  10.193
 3668SOL     OW12777   0.225  13.650   2.249
 3668SOL    HW112778   0.230  13.554   2.250
 3668SOL    HW212779   0.166  13.671   2.322
 3669SOL     OW12780   6.168   5.352  13.114
 3669SOL    HW112781   6.074   5.340  13.104
 3669SOL    HW212782   6.179   5.389  13.202
 3670SOL     OW12783   6.990   6.064  13.405
 3670SOL    HW112784   6.931   6.116  13.458
 3670SOL    HW212785   6.936   5.992  13.372
 3671SOL     OW12786   2.042   9.474   7.106
 3671SOL    HW112787   2.134   9.482   7.081
 3671SOL    HW212788   2.011   9.564   7.117
 3672SOL     OW12789  14.207  13.552   4.055
 3672SOL    HW112790  14.138  13.600   4.011
 3672SOL    HW212791  14.272  13.618   4.078
 3673SOL     OW12792   4.024  13.210   6.092
 3673SOL    HW112793   4.033  13.299   6.125
 3673SOL    HW212794   3.939  13.181   6.124
 3674SOL     OW12795   2.139   0.215  13.325
 3674SOL    HW112796   2.044   0.211  13.338
 3674SOL    HW212797   2.172   0.136  13.367
 3675SOL     OW12798   2.296   1.393  11.365
 3675SOL    HW112799   2.266   1.391  11.274
 3675SOL    HW212800   2.383   1.433  11.361
 3676SOL     OW12801   1.278   3.895   3.063
 3676SOL    HW112802   1.359   3.930   3.100
 3676SOL    HW212803   1.307   3.829   3.000
 3677SOL     OW12804  11.041  10.925   5.152
 3677SOL    HW112805  11.022  10.881   5.069
 3677SOL    HW212806  10.996  11.009   5.146
 3678SOL     OW12807   5.227  14.225  11.270
 3678SOL    HW112808   5.259  14.295  11.212
 3678SOL    HW212809   5.154  14.265  11.316
 3679SOL     OW12810  12.313  11.071   3.178
 3679SOL    HW112811  12.248  11.004   3.154
 3679SOL    HW212812  12.397  11.026   3.171
 3680SOL     OW12813   3.934   6.222   0.808
 3680SOL    HW112814   3.863   6.158   0.814
 3680SOL    HW212815   3.947   6.253   0.897
 3681SOL     OW12816  12.249  10.906   8.624
 3681SOL    HW112817  12.220  10.880   8.536
 3681SOL    HW212818  12.178  10.879   8.682
 3682SOL     OW12819   6.783  14.230   9.571
 3682SOL    HW112820   6.818  14.211   9.659
 3682SOL    HW212821   6.689  14.219   9.580
 3683SOL     OW12822   8.383   9.536  12.354
 3683SOL    HW112823   8.430   9.536  12.270
 3683SOL    HW212824   8.329   9.457  12.351
 3684SOL     OW12825   7.670   1.617   4.135
 3684SOL    HW112826   7.648   1.702   4.099
 3684SOL    HW212827   7.609   1.604   4.207
 3685SOL     OW12828   9.913  12.286   8.085
 3685SOL    HW112829   9.956  12.370   8.068
 3685SOL    HW212830   9.917  12.240   8.002
 3686SOL     OW12831   8.566  14.407   1.192
 3686SOL    HW112832   8.570  14.413   1.288
 3686SOL    HW212833   8.489  14.458   1.168
 3687SOL     OW12834   6.735  12.240   7.367
 3687SOL    HW112835   6.734  12.158   7.416
 3687SOL    HW212836   6.676  12.225   7.293
 3688SOL     OW12837  12.481  11.129   2.241
 3688SOL    HW112838  12.394  11.153   2.274
 3688SOL    HW212839  12.464  11.074   2.165
 3689SOL     OW12840   9.171   0.046   0.361
 3689SOL    HW112841   9.220   0.085   0.289
 3689SOL    HW212842   9.091   0.011   0.321
 3690SOL     OW12843   9.284  14.555   4.601
 3690SOL    HW112844   9.196  14.519   4.613
 3690SOL    HW212845   9.321  14.504   4.529
 3691SOL     OW12846  13.032   4.219   6.511
 3691SOL    HW112847  13.095   4.278   6.470
 3691SOL    HW212848  13.032   4.142   6.454
 3692SOL     OW12849  10.962  12.221   8.674
 3692SOL    HW112850  11.048  12.260   8.690
 3692SOL    HW212851  10.917  12.228   8.758
 3693SOL     OW12852  13.961   2.984  11.605
 3693SOL    HW112853  13.971   2.972  11.699
 3693SOL    HW212854  13.947   2.895  11.571
 3694SOL     OW12855  12.930  10.318  14.656
 3694SOL    HW112856  12.838  10.338  14.638
 3694SOL    HW212857  12.978  10.391  14.617
 3695SOL     OW12858   3.171  11.700   1.716
 3695SOL    HW112859   3.123  11.776   1.751
 3695SOL    HW212860   3.103  11.643   1.681
 3696SOL     OW12861   1.174   5.251   9.224
 3696SOL    HW112862   1.234   5.324   9.209
 3696SOL    HW212863   1.223   5.173   9.196
 3697SOL     OW12864   1.662   9.900   3.752
 3697SOL    HW112865   1.595   9.935   3.810
 3697SOL    HW212866   1.629   9.814   3.726
 3698SOL     OW12867   3.351   2.865  14.844
 3698SOL    HW112868   3.428   2.916  14.819
 3698SOL    HW212869   3.302   2.855  14.762
 3699SOL     OW12870   8.338   3.836   8.580
 3699SOL    HW112871   8.336   3.774   8.507
 3699SOL    HW212872   8.246   3.862   8.591
 3700SOL     OW12873   0.474   8.268   1.978
 3700SOL    HW112874   0.439   8.325   2.046
 3700SOL    HW212875   0.545   8.220   2.022
 3701SOL     OW12876   3.916   1.821  10.025
 3701SOL    HW112877   3.950   1.817  10.115
 3701SOL    HW212878   3.980   1.872   9.977
 3702SOL     OW12879   9.312   7.136  14.305
 3702SOL    HW112880   9.350   7.050  14.325
 3702SOL    HW212881   9.248   7.150  14.375
 3703SOL     OW12882   5.393  12.005   4.408
 3703SOL    HW112883   5.463  11.986   4.345
 3703SOL    HW212884   5.365  12.094   4.387
 3704SOL     OW12885   9.927   8.257   9.260
 3704SOL    HW112886   9.943   8.201   9.184
 3704SOL    HW212887   9.999   8.319   9.261
 3705SOL     OW12888  11.796   5.034  12.690
 3705SOL    HW112889  11.839   5.112  12.725
 3705SOL    HW212890  11.845   5.014  12.610
 3706SOL     OW12891   5.131   3.472  14.587
 3706SOL    HW112892   5.154   3.443  14.675
 3706SOL    HW212893   5.045   3.433  14.570
 3707SOL     OW12894   2.918   6.284   5.678
 3707SOL    HW112895   2.915   6.302   5.772
 3707SOL    HW212896   2.887   6.365   5.637
 3708SOL     OW12897  13.854   0.560   0.202
 3708SOL    HW112898  13.902   0.543   0.121
 3708SOL    HW212899  13.763   0.570   0.175
 3709SOL     OW12900   7.792  14.551   1.146
 3709SOL    HW112901   7.745  14.611   1.089
 3709SOL    HW212902   7.723  14.509   1.199
 3710SOL     OW12903   9.854  10.842   7.608
 3710SOL    HW112904   9.856  10.900   7.684
 3710SOL    HW212905   9.946  10.823   7.590
 3711SOL     OW12906   1.634   3.344   5.141
 3711SOL    HW112907   1.652   3.432   5.108
 3711SOL    HW212908   1.642   3.288   5.064
 3712SOL     OW12909   4.121   2.131  10.591
 3712SOL    HW112910   4.151   2.043  10.570
 3712SOL    HW212911   4.028   2.131  10.567
 3713SOL     OW12912   6.633   2.886   3.452
 3713SOL    HW112913   6.583   2.846   3.523
 3713SOL    HW212914   6.610   2.834   3.374
 3714SOL     OW12915   3.733   1.113  13.230
 3714SOL    HW112916   3.786   1.083  13.156
 3714SOL    HW212917   3.790   1.106  13.306
 3715SOL     OW12918   1.834  11.209  11.219
 3715SOL    HW112919   1.864  11.268  11.150
 3715SOL    HW212920   1.889  11.229  11.295
 3716SOL     OW12921   0.543  10.249   2.036
 3716SOL    HW112922   0.520  10.338   2.063
 3716SOL    HW212923   0.611  10.222   2.097
 3717SOL     OW12924   1.238  13.686   1.841
 3717SOL    HW112925   1.290  13.760   1.872
 3717SOL    HW212926   1.154  13.724   1.815
 3718SOL     OW12927   0.921   9.189  13.149
 3718SOL    HW112928   0.863   9.130  13.197
 3718SOL    HW212929   0.874   9.208  13.068
 3719SOL     OW12930   1.760   3.640   1.709
 3719SOL    HW112931   1.801   3.562   1.672
 3719SOL    HW212932   1.786   3.711   1.649
 3720SOL     OW12933   9.559   2.265  13.060
 3720SOL    HW112934   9.644   2.283  13.101
 3720SOL    HW212935   9.512   2.347  13.067
 3721SOL     OW12936   0.830   5.788  13.460
 3721SOL    HW112937   0.851   5.881  13.472
 3721SOL    HW212938   0.749   5.789  13.409
 3722SOL     OW12939   0.582  11.373   5.908
 3722SOL    HW112940   0.610  11.312   5.839
 3722SOL    HW212941   0.625  11.341   5.987
 3723SOL     OW12942   5.929  12.537  12.717
 3723SOL    HW112943   5.940  12.456  12.768
 3723SOL    HW212944   5.844  12.527  12.675
 3724SOL     OW12945   1.120   5.364   6.181
 3724SOL    HW112946   1.080   5.309   6.249
 3724SOL    HW212947   1.061   5.356   6.106
 3725SOL     OW12948   2.297   3.843   6.501
 3725SOL    HW112949   2.364   3.886   6.554
 3725SOL    HW212950   2.214   3.863   6.545
 3726SOL     OW12951   3.786  12.709   9.545
 3726SOL    HW112952   3.729  12.744   9.476
 3726SOL    HW212953   3.823  12.629   9.507
 3727SOL     OW12954   2.596   8.048   5.107
 3727SOL    HW112955   2.511   8.005   5.119
 3727SOL    HW212956   2.580   8.114   5.040
 3728SOL     OW12957  11.136   5.091  11.397
 3728SOL    HW112958  11.077   5.165  11.383
 3728SOL    HW212959  11.136   5.043  11.314
 3729SOL     OW12960  13.763  10.877  13.467
 3729SOL    HW112961  13.697  10.929  13.514
 3729SOL    HW212962  13.727  10.868  13.379
 3730SOL     OW12963  11.793  11.195  13.421
 3730SOL    HW112964  11.856  11.127  13.396
 3730SOL    HW212965  11.738  11.205  13.344
 3731SOL     OW12966   3.671   6.026   7.958
 3731SOL    HW112967   3.621   6.074   8.024
 3731SOL    HW212968   3.758   6.014   7.998
 3732SOL     OW12969   2.649   2.279   5.149
 3732SOL    HW112970   2.720   2.325   5.196
 3732SOL    HW212971   2.693   2.206   5.106
 3733SOL     OW12972  12.917   0.152  10.753
 3733SOL    HW112973  12.835   0.125  10.794
 3733SOL    HW212974  12.911   0.248  10.748
 3734SOL     OW12975   9.666  11.955   0.127
 3734SOL    HW112976   9.715  11.999   0.197
 3734SOL    HW212977   9.732  11.905   0.079
 3735SOL     OW12978   8.697   4.815   3.925
 3735SOL    HW112979   8.742   4.843   3.845
 3735SOL    HW212980   8.655   4.732   3.901
 3736SOL     OW12981   6.473   0.311  10.178
 3736SOL    HW112982   6.441   0.325  10.267
 3736SOL    HW212983   6.474   0.399  10.139
 3737SOL     OW12984   6.247   3.284  13.589
 3737SOL    HW112985   6.183   3.251  13.653
 3737SOL    HW212986   6.332   3.274  13.633
 3738SOL     OW12987   6.896  11.719  12.940
 3738SOL    HW112988   6.858  11.771  12.868
 3738SOL    HW212989   6.822  11.701  12.998
 3739SOL     OW12990  12.001  11.247  12.880
 3739SOL    HW112991  12.040  11.290  12.804
 3739SOL    HW212992  12.076  11.226  12.936
 3740SOL     OW12993  14.765   7.768  12.731
 3740SOL    HW112994  14.766   7.674  12.747
 3740SOL    HW212995  14.855   7.788  12.703
 3741SOL     OW12996  10.213   2.891   5.520
 3741SOL    HW112997  10.175   2.928   5.440
 3741SOL    HW212998  10.265   2.817   5.489
 3742SOL     OW12999   5.042  13.071   3.116
 3742SOL    HW113000   5.061  13.071   3.023
 3742SOL    HW213001   5.104  13.133   3.154
 3743SOL     OW13002   8.473   8.255   3.622
 3743SOL    HW113003   8.403   8.307   3.580
 3743SOL    HW213004   8.427   8.203   3.688
 3744SOL     OW13005   5.842  13.455   7.856
 3744SOL    HW113006   5.887  13.371   7.851
 3744SOL    HW213007   5.849  13.481   7.948
 3745SOL     OW13008   0.027  13.607   7.545
 3745SOL    HW113009  14.857  13.633   7.621
 3745SOL    HW213010   0.102  13.559   7.581
 3746SOL     OW13011   5.614   2.403   5.922
 3746SOL    HW113012   5.604   2.309   5.939
 3746SOL    HW213013   5.569   2.445   5.995
 3747SOL     OW13014   1.466  12.352  11.402
 3747SOL    HW113015   1.502  12.294  11.335
 3747SOL    HW213016   1.397  12.401  11.357
 3748SOL     OW13017   7.031   9.455   5.952
 3748SOL    HW113018   7.050   9.368   5.986
 3748SOL    HW213019   6.993   9.502   6.026
 3749SOL     OW13020   0.003   7.426  13.060
 3749SOL    HW113021  14.803   7.467  13.091
 3749SOL    HW213022  14.875   7.334  13.082
 3750SOL     OW13023   4.921   1.820   8.893
 3750SOL    HW113024   4.909   1.858   8.980
 3750SOL    HW213025   4.841   1.843   8.846
 3751SOL     OW13026   5.723   0.855   1.003
 3751SOL    HW113027   5.672   0.786   0.959
 3751SOL    HW213028   5.756   0.909   0.931
 3752SOL     OW13029   7.465  11.019   9.305
 3752SOL    HW113030   7.450  11.110   9.278
 3752SOL    HW213031   7.526  11.025   9.378
 3753SOL     OW13032   7.271  12.919   3.784
 3753SOL    HW113033   7.199  12.927   3.722
 3753SOL    HW213034   7.230  12.897   3.868
 3754SOL     OW13035   6.072  13.183   0.412
 3754SOL    HW113036   6.066  13.263   0.464
 3754SOL    HW213037   6.156  13.191   0.366
 3755SOL     OW13038   1.980   1.650   2.937
 3755SOL    HW113039   2.009   1.648   2.846
 3755SOL    HW213040   1.907   1.711   2.938
 3756SOL     OW13041   5.119   2.817   2.311
 3756SOL    HW113042   5.033   2.859   2.316
 3756SOL    HW213043   5.159   2.853   2.232
 3757SOL     OW13044   1.049   8.974  13.363
 3757SOL    HW113045   1.104   9.052  13.368
 3757SOL    HW213046   1.083   8.926  13.287
 3758SOL     OW13047   7.168   4.073   7.519
 3758SOL    HW113048   7.245   4.032   7.479
 3758SOL    HW213049   7.200   4.109   7.602
 3759SOL     OW13050   6.886  14.706  14.742
 3759SOL    HW113051   6.836  14.625  14.738
 3759SOL    HW213052   6.910  14.723  14.651
 3760SOL     OW13053   8.995   8.479   4.709
 3760SOL    HW113054   8.927   8.455   4.771
 3760SOL    HW213055   9.055   8.405   4.707
 3761SOL     OW13056  12.307  12.756   1.310
 3761SOL    HW113057  12.402  12.754   1.321
 3761SOL    HW213058  12.284  12.667   1.283
 3762SOL     OW13059   9.933  12.236   5.122
 3762SOL    HW113060   9.947  12.142   5.130
 3762SOL    HW213061   9.974  12.260   5.038
 3763SOL     OW13062  11.840   7.241  11.234
 3763SOL    HW113063  11.818   7.222  11.326
 3763SOL    HW213064  11.915   7.301  11.240
 3764SOL     OW13065  10.585   6.991   0.985
 3764SOL    HW113066  10.595   7.084   1.001
 3764SOL    HW213067  10.529   6.985   0.908
 3765SOL     OW13068   3.396   9.256   0.449
 3765SOL    HW113069   3.329   9.204   0.404
 3765SOL    HW213070   3.474   9.201   0.447
 3766SOL     OW13071   5.121   3.318   7.859
 3766SOL    HW113072   5.048   3.269   7.822
 3766SOL    HW213073   5.175   3.342   7.784
 3767SOL     OW13074  10.036   8.193   0.776
 3767SOL    HW113075  10.029   8.220   0.684
 3767SOL    HW213076  10.117   8.233   0.806
 3768SOL     OW13077  13.405   7.366   0.262
 3768SOL    HW113078  13.353   7.384   0.341
 3768SOL    HW213079  13.428   7.453   0.229
 3769SOL     OW13080   3.931   1.784  14.314
 3769SOL    HW113081   3.981   1.750  14.388
 3769SOL    HW213082   3.851   1.819  14.353
 3770SOL     OW13083   1.504   7.816   8.053
 3770SOL    HW113084   1.541   7.859   7.976
 3770SOL    HW213085   1.410   7.834   8.047
 3771SOL     OW13086  11.949  14.140  12.429
 3771SOL    HW113087  11.889  14.121  12.356
 3771SOL    HW213088  11.994  14.220  12.403
 3772SOL     OW13089  14.853   6.262  14.384
 3772SOL    HW113090   0.066   6.261  14.368
 3772SOL    HW213091  14.828   6.354  14.372
 3773SOL     OW13092   0.567   1.039   3.903
 3773SOL    HW113093   0.646   1.067   3.951
 3773SOL    HW213094   0.499   1.035   3.970
 3774SOL     OW13095   2.874  13.304   5.315
 3774SOL    HW113096   2.925  13.372   5.271
 3774SOL    HW213097   2.939  13.237   5.338
 3775SOL     OW13098   9.666   6.063   9.537
 3775SOL    HW113099   9.607   6.138   9.534
 3775SOL    HW213100   9.740   6.094   9.589
 3776SOL     OW13101   6.669  11.994  11.819
 3776SOL    HW113102   6.666  11.922  11.882
 3776SOL    HW213103   6.664  12.073  11.873
 3777SOL     OW13104  11.294   3.645   2.170
 3777SOL    HW113105  11.308   3.706   2.099
 3777SOL    HW213106  11.212   3.673   2.211
 3778SOL     OW13107  14.574   8.429   5.927
 3778SOL    HW113108  14.497   8.455   5.977
 3778SOL    HW213109  14.542   8.364   5.865
 3779SOL     OW13110  10.197  13.075  14.026
 3779SOL    HW113111  10.245  13.129  14.089
 3779SOL    HW213112  10.265  13.040  13.968
 3780SOL     OW13113   2.449   8.084  12.937
 3780SOL    HW113114   2.390   8.015  12.907
 3780SOL    HW213115   2.445   8.151  12.869
 3781SOL     OW13116  12.322   4.795   5.861
 3781SOL    HW113117  12.320   4.849   5.782
 3781SOL    HW213118  12.371   4.847   5.925
 3782SOL     OW13119   3.086  11.376   0.566
 3782SOL    HW113120   3.107  11.334   0.482
 3782SOL    HW213121   3.095  11.470   0.549
 3783SOL     OW13122  11.734   2.112  13.961
 3783SOL    HW113123  11.797   2.142  13.896
 3783SOL    HW213124  11.708   2.025  13.931
 3784SOL     OW13125   8.047   5.609  14.528
 3784SOL    HW113126   8.109   5.673  14.493
 3784SOL    HW213127   8.049   5.622  14.623
 3785SOL     OW13128   5.798   7.761  14.235
 3785SOL    HW113129   5.746   7.755  14.155
 3785SOL    HW213130   5.792   7.853  14.261
 3786SOL     OW13131  13.184  14.563   5.596
 3786SOL    HW113132  13.091  14.572   5.575
 3786SOL    HW213133  13.214  14.653   5.607
 3787SOL     OW13134   2.261   4.910   9.335
 3787SOL    HW113135   2.336   4.856   9.308
 3787SOL    HW213136   2.299   4.994   9.359
 3788SOL     OW13137  13.607   5.504   3.182
 3788SOL    HW113138  13.627   5.575   3.242
 3788SOL    HW213139  13.544   5.541   3.121
 3789SOL     OW13140   5.413   5.220  12.872
 3789SOL    HW113141   5.507   5.240  12.874
 3789SOL    HW213142   5.391   5.221  12.779
 3790SOL     OW13143   8.290  12.933   0.161
 3790SOL    HW113144   8.204  12.947   0.200
 3790SOL    HW213145   8.349  12.926   0.237
 3791SOL     OW13146  11.055   4.912   0.489
 3791SOL    HW113147  11.079   4.885   0.401
 3791SOL    HW213148  11.036   5.005   0.482
 3792SOL     OW13149   5.045   6.375  13.399
 3792SOL    HW113150   4.992   6.317  13.346
 3792SOL    HW213151   5.039   6.460  13.356
 3793SOL     OW13152  14.456   5.211   3.656
 3793SOL    HW113153  14.485   5.156   3.729
 3793SOL    HW213154  14.435   5.296   3.696
 3794SOL     OW13155  11.198   5.731   1.815
 3794SOL    HW113156  11.239   5.742   1.901
 3794SOL    HW213157  11.125   5.671   1.831
 3795SOL     OW13158  10.334  12.517   6.967
 3795SOL    HW113159  10.336  12.612   6.982
 3795SOL    HW213160  10.415  12.485   7.009
 3796SOL     OW13161   4.093   4.526  12.194
 3796SOL    HW113162   4.013   4.578  12.203
 3796SOL    HW213163   4.125   4.546  12.106
 3797SOL     OW13164   9.410   3.153   1.974
 3797SOL    HW113165   9.354   3.159   2.051
 3797SOL    HW213166   9.351   3.164   1.900
 3798SOL     OW13167  13.796   6.446  12.452
 3798SOL    HW113168  13.791   6.360  12.493
 3798SOL    HW213169  13.886   6.475  12.468
 3799SOL     OW13170   2.136   4.350  13.607
 3799SOL    HW113171   2.190   4.271  13.615
 3799SOL    HW213172   2.200   4.421  13.594
 3800SOL     OW13173   6.597  12.569   5.429
 3800SOL    HW113174   6.515  12.582   5.382
 3800SOL    HW213175   6.573  12.517   5.506
 3801SOL     OW13176   0.150   8.635   5.221
 3801SOL    HW113177   0.149   8.671   5.132
 3801SOL    HW213178   0.235   8.664   5.257
 3802SOL     OW13179  12.212   3.753   7.907
 3802SOL    HW113180  12.261   3.671   7.907
 3802SOL    HW213181  12.231   3.793   7.992
 3803SOL     OW13182   6.865   8.253  10.446
 3803SOL    HW113183   6.951   8.289  10.428
 3803SOL    HW213184   6.855   8.180  10.385
 3804SOL     OW13185   0.899   8.155   9.198
 3804SOL    HW113186   0.893   8.196   9.284
 3804SOL    HW213187   0.974   8.097   9.203
 3805SOL     OW13188   9.983   7.438  13.546
 3805SOL    HW113189   9.925   7.447  13.471
 3805SOL    HW213190   9.966   7.350  13.579
 3806SOL     OW13191   3.362   4.095   3.678
 3806SOL    HW113192   3.363   4.191   3.681
 3806SOL    HW213193   3.353   4.074   3.585
 3807SOL     OW13194   3.810  13.879  12.465
 3807SOL    HW113195   3.893  13.838  12.488
 3807SOL    HW213196   3.744  13.811  12.481
 3808SOL     OW13197  10.155   3.300   0.934
 3808SOL    HW113198  10.228   3.337   0.982
 3808SOL    HW213199  10.104   3.376   0.906
 3809SOL     OW13200   7.803  14.868   4.596
 3809SOL    HW113201   7.894  14.873   4.565
 3809SOL    HW213202   7.753  14.849   4.517
 3810SOL     OW13203   5.712   6.752   8.784
 3810SOL    HW113204   5.753   6.838   8.775
 3810SOL    HW213205   5.776   6.700   8.832
 3811SOL     OW13206  14.095  11.941   4.896
 3811SOL    HW113207  14.120  11.908   4.982
 3811SOL    HW213208  14.040  12.018   4.915
 3812SOL     OW13209   3.527   4.395   2.001
 3812SOL    HW113210   3.462   4.434   1.942
 3812SOL    HW213211   3.476   4.347   2.066
 3813SOL     OW13212   4.959   2.257   6.536
 3813SOL    HW113213   5.045   2.221   6.516
 3813SOL    HW213214   4.897   2.199   6.490
 3814SOL     OW13215   5.667  11.940  11.850
 3814SOL    HW113216   5.585  11.910  11.890
 3814SOL    HW213217   5.735  11.906  11.908
 3815SOL     OW13218  12.537  11.843   8.790
 3815SOL    HW113219  12.526  11.938   8.798
 3815SOL    HW213220  12.526  11.825   8.697
 3816SOL     OW13221  13.302  13.146  10.074
 3816SOL    HW113222  13.299  13.084  10.001
 3816SOL    HW213223  13.392  13.141  10.106
 3817SOL     OW13224   9.339   3.052  12.194
 3817SOL    HW113225   9.380   2.974  12.232
 3817SOL    HW213226   9.329   3.111  12.269
 3818SOL     OW13227   7.853  11.470  10.665
 3818SOL    HW113228   7.884  11.463  10.756
 3818SOL    HW213229   7.758  11.464  10.672
 3819SOL     OW13230   8.576  13.455   9.628
 3819SOL    HW113231   8.539  13.406   9.700
 3819SOL    HW213232   8.519  13.436   9.553
 3820SOL     OW13233   6.786   0.352  11.874
 3820SOL    HW113234   6.721   0.287  11.845
 3820SOL    HW213235   6.859   0.342  11.814
 3821SOL     OW13236   2.545   6.787   5.156
 3821SOL    HW113237   2.578   6.855   5.215
 3821SOL    HW213238   2.467   6.827   5.115
 3822SOL     OW13239  13.448   2.364   0.466
 3822SOL    HW113240  13.514   2.305   0.502
 3822SOL    HW213241  13.484   2.452   0.480
 3823SOL     OW13242   9.016  13.495  10.190
 3823SOL    HW113243   8.963  13.505  10.268
 3823SOL    HW213244   9.065  13.577  10.184
 3824SOL     OW13245  12.087   7.355   1.532
 3824SOL    HW113246  12.036   7.420   1.485
 3824SOL    HW213247  12.026   7.283   1.549
 3825SOL     OW13248   3.734  10.586  10.791
 3825SOL    HW113249   3.782  10.620  10.867
 3825SOL    HW213250   3.699  10.664  10.747
 3826SOL     OW13251  12.070   1.855   7.999
 3826SOL    HW113252  12.095   1.764   7.985
 3826SOL    HW213253  12.054   1.889   7.911
 3827SOL     OW13254   7.345   5.056   8.095
 3827SOL    HW113255   7.372   5.032   8.184
 3827SOL    HW213256   7.249   5.056   8.098
 3828SOL     OW13257  12.628   1.447  12.111
 3828SOL    HW113258  12.706   1.392  12.099
 3828SOL    HW213259  12.555   1.391  12.087
 3829SOL     OW13260   5.167   5.047   5.598
 3829SOL    HW113261   5.098   4.985   5.573
 3829SOL    HW213262   5.206   5.074   5.515
 3830SOL     OW13263   0.428   9.795  10.803
 3830SOL    HW113264   0.412   9.703  10.781
 3830SOL    HW213265   0.380   9.809  10.884
 3831SOL     OW13266   6.071   4.759   7.533
 3831SOL    HW113267   6.113   4.843   7.548
 3831SOL    HW213268   5.977   4.778   7.533
 3832SOL     OW13269   5.717   3.243   0.285
 3832SOL    HW113270   5.762   3.327   0.274
 3832SOL    HW213271   5.663   3.255   0.363
 3833SOL     OW13272   4.969  13.551  13.407
 3833SOL    HW113273   5.017  13.608  13.347
 3833SOL    HW213274   4.878  13.580  13.401
 3834SOL     OW13275  14.424   2.259   8.320
 3834SOL    HW113276  14.427   2.215   8.405
 3834SOL    HW213277  14.437   2.188   8.257
 3835SOL     OW13278   0.410  10.735   9.165
 3835SOL    HW113279   0.323  10.718   9.200
 3835SOL    HW213280   0.462  10.658   9.187
 3836SOL     OW13281   3.518   8.898  11.271
 3836SOL    HW113282   3.535   8.865  11.182
 3836SOL    HW213283   3.556   8.986  11.272
 3837SOL     OW13284   9.419   7.418   6.079
 3837SOL    HW113285   9.325   7.405   6.092
 3837SOL    HW213286   9.459   7.390   6.162
 3838SOL     OW13287   0.110   1.885  10.717
 3838SOL    HW113288   0.172   1.939  10.765
 3838SOL    HW213289   0.075   1.943  10.649
 3839SOL     OW13290   8.877  14.720  14.076
 3839SOL    HW113291   8.897  14.663  14.002
 3839SOL    HW213292   8.931  14.688  14.148
 3840SOL     OW13293   6.565   5.961  12.011
 3840SOL    HW113294   6.531   5.968  11.921
 3840SOL    HW213295   6.558   5.868  12.032
 3841SOL     OW13296  12.114  14.548  10.275
 3841SOL    HW113297  12.106  14.470  10.219
 3841SOL    HW213298  12.206  14.550  10.300
 3842SOL     OW13299   8.929   7.350  10.785
 3842SOL    HW113300   9.018   7.386  10.793
 3842SOL    HW213301   8.912   7.349  10.691
 3843SOL     OW13302  11.754   0.521  11.062
 3843SOL    HW113303  11.823   0.535  10.998
 3843SOL    HW213304  11.696   0.596  11.052
 3844SOL     OW13305   2.000   6.151   1.570
 3844SOL    HW113306   1.916   6.187   1.599
 3844SOL    HW213307   2.020   6.201   1.490
 3845SOL     OW13308   8.097   0.978   1.965
 3845SOL    HW113309   8.050   0.897   1.943
 3845SOL    HW213310   8.032   1.032   2.010
 3846SOL     OW13311   3.490  12.686   0.956
 3846SOL    HW113312   3.459  12.723   1.038
 3846SOL    HW213313   3.459  12.595   0.958
 3847SOL     OW13314   7.385   4.524   9.375
 3847SOL    HW113315   7.322   4.588   9.343
 3847SOL    HW213316   7.469   4.569   9.370
 3848SOL     OW13317   2.833  10.980   8.359
 3848SOL    HW113318   2.780  10.965   8.282
 3848SOL    HW213319   2.868  11.068   8.348
 3849SOL     OW13320   5.055  13.658   3.518
 3849SOL    HW113321   5.082  13.733   3.465
 3849SOL    HW213322   5.128  13.643   3.577
 3850SOL     OW13323   1.459   1.124  10.604
 3850SOL    HW113324   1.436   1.173  10.525
 3850SOL    HW213325   1.550   1.098  10.591
 3851SOL     OW13326   1.903   1.207  10.740
 3851SOL    HW113327   1.811   1.232  10.733
 3851SOL    HW213328   1.909   1.124  10.692
 3852SOL     OW13329   6.072   1.423   9.571
 3852SOL    HW113330   6.140   1.481   9.538
 3852SOL    HW213331   6.007   1.481   9.610
 3853SOL     OW13332   4.853  13.298   9.918
 3853SOL    HW113333   4.873  13.385   9.885
 3853SOL    HW213334   4.763  13.282   9.891
 3854SOL     OW13335   8.356   2.544   1.257
 3854SOL    HW113336   8.354   2.480   1.328
 3854SOL    HW213337   8.268   2.581   1.256
 3855SOL     OW13338  14.043  10.363  11.800
 3855SOL    HW113339  14.063  10.318  11.881
 3855SOL    HW213340  13.949  10.347  11.786
 3856SOL     OW13341   5.781   9.146   1.451
 3856SOL    HW113342   5.866   9.160   1.493
 3856SOL    HW213343   5.796   9.168   1.359
 3857SOL     OW13344   8.161   8.694  10.468
 3857SOL    HW113345   8.227   8.693  10.399
 3857SOL    HW213346   8.077   8.695  10.422
 3858SOL     OW13347  11.847   2.046  12.282
 3858SOL    HW113348  11.799   1.964  12.288
 3858SOL    HW213349  11.933   2.026  12.321
 3859SOL     OW13350   5.517  13.077   3.609
 3859SOL    HW113351   5.606  13.061   3.642
 3859SOL    HW213352   5.464  13.089   3.688
 3860SOL     OW13353  10.137   6.057  12.410
 3860SOL    HW113354  10.086   6.115  12.466
 3860SOL    HW213355  10.150   6.107  12.329
 3861SOL     OW13356  14.736   8.055   5.906
 3861SOL    HW113357  14.651   8.086   5.938
 3861SOL    HW213358  14.779   8.017   5.983
 3862SOL     OW13359  11.904  12.428   4.101
 3862SOL    HW113360  11.966  12.356   4.099
 3862SOL    HW213361  11.948  12.499   4.055
 3863SOL     OW13362   7.516   7.440   7.345
 3863SOL    HW113363   7.457   7.515   7.357
 3863SOL    HW213364   7.558   7.457   7.260
 3864SOL     OW13365   3.386   5.544   8.695
 3864SOL    HW113366   3.421   5.576   8.612
 3864SOL    HW213367   3.332   5.469   8.671
 3865SOL     OW13368   6.644   5.646  12.021
 3865SOL    HW113369   6.618   5.577  11.961
 3865SOL    HW213370   6.624   5.611  12.108
 3866SOL     OW13371   3.858   9.542   0.191
 3866SOL    HW113372   3.940   9.496   0.211
 3866SOL    HW213373   3.791   9.474   0.195
 3867SOL     OW13374   4.340  13.692   0.363
 3867SOL    HW113375   4.364  13.607   0.399
 3867SOL    HW213376   4.255  13.712   0.401
 3868SOL     OW13377   3.330   1.211   7.732
 3868SOL    HW113378   3.237   1.199   7.712
 3868SOL    HW213379   3.362   1.270   7.664
 3869SOL     OW13380   3.343   2.022   1.140
 3869SOL    HW113381   3.249   2.037   1.150
 3869SOL    HW213382   3.371   1.991   1.226
 3870SOL     OW13383   4.013   9.657  10.089
 3870SOL    HW113384   3.921   9.679  10.081
 3870SOL    HW213385   4.043   9.707  10.165
 3871SOL     OW13386   1.231   5.913   2.921
 3871SOL    HW113387   1.136   5.905   2.916
 3871SOL    HW213388   1.247   6.005   2.940
 3872SOL     OW13389  11.561  14.148  11.588
 3872SOL    HW113390  11.516  14.123  11.669
 3872SOL    HW213391  11.606  14.067  11.561
 3873SOL     OW13392  13.847   4.346   2.315
 3873SOL    HW113393  13.929   4.298   2.323
 3873SOL    HW213394  13.783   4.294   2.363
 3874SOL     OW13395  11.087   1.701  10.351
 3874SOL    HW113396  11.025   1.711  10.279
 3874SOL    HW213397  11.037   1.659  10.421
 3875SOL     OW13398  12.031  14.372   8.797
 3875SOL    HW113399  11.986  14.448   8.835
 3875SOL    HW213400  12.106  14.409   8.751
 3876SOL     OW13401   5.309   0.528   4.317
 3876SOL    HW113402   5.364   0.561   4.388
 3876SOL    HW213403   5.290   0.606   4.264
 3877SOL     OW13404   7.242   7.046  12.030
 3877SOL    HW113405   7.314   6.994  11.994
 3877SOL    HW213406   7.182   6.981  12.067
 3878SOL     OW13407  11.583   6.132   2.566
 3878SOL    HW113408  11.590   6.228   2.568
 3878SOL    HW213409  11.512   6.115   2.503
 3879SOL     OW13410   2.728   0.128  13.851
 3879SOL    HW113411   2.739   0.056  13.913
 3879SOL    HW213412   2.817   0.148  13.821
 3880SOL     OW13413  13.799  11.310  12.626
 3880SOL    HW113414  13.786  11.273  12.538
 3880SOL    HW213415  13.874  11.262  12.661
 3881SOL     OW13416  12.102  10.370   1.686
 3881SOL    HW113417  12.068  10.323   1.609
 3881SOL    HW213418  12.116  10.302   1.751
 3882SOL     OW13419  13.181   7.986  10.667
 3882SOL    HW113420  13.224   8.029  10.740
 3882SOL    HW213421  13.164   7.897  10.699
 3883SOL     OW13422  11.311  10.236   1.040
 3883SOL    HW113423  11.254  10.309   1.018
 3883SOL    HW213424  11.268  10.193   1.114
 3884SOL     OW13425  14.575   6.686  10.998
 3884SOL    HW113426  14.497   6.709  10.948
 3884SOL    HW213427  14.568   6.591  11.010
 3885SOL     OW13428  11.456   5.793   2.252
 3885SOL    HW113429  11.541   5.797   2.295
 3885SOL    HW213430  11.428   5.702   2.261
 3886SOL     OW13431  12.024   1.138  12.335
 3886SOL    HW113432  12.113   1.124  12.365
 3886SOL    HW213433  11.974   1.156  12.414
 3887SOL     OW13434   2.999   0.519  11.788
 3887SOL    HW113435   3.020   0.564  11.870
 3887SOL    HW213436   3.083   0.513  11.742
 3888SOL     OW13437  10.447   9.488   0.577
 3888SOL    HW113438  10.477   9.556   0.517
 3888SOL    HW213439  10.499   9.411   0.554
 3889SOL     OW13440   7.962   6.819   1.276
 3889SOL    HW113441   7.900   6.767   1.327
 3889SOL    HW213442   8.038   6.761   1.264
 3890SOL     OW13443  10.698  11.437   9.508
 3890SOL    HW113444  10.631  11.389   9.557
 3890SOL    HW213445  10.654  11.517   9.479
 3891SOL     OW13446   3.118   6.450  10.006
 3891SOL    HW113447   3.084   6.418   9.923
 3891SOL    HW213448   3.118   6.546   9.997
 3892SOL     OW13449  10.862   1.548   2.542
 3892SOL    HW113450  10.889   1.489   2.472
 3892SOL    HW213451  10.808   1.494   2.599
 3893SOL     OW13452   5.364   4.796   7.913
 3893SOL    HW113453   5.446   4.815   7.958
 3893SOL    HW213454   5.350   4.702   7.929
 3894SOL     OW13455  14.409  12.899   3.033
 3894SOL    HW113456  14.328  12.911   2.983
 3894SOL    HW213457  14.380  12.898   3.124
 3895SOL     OW13458   1.081   9.997   6.528
 3895SOL    HW113459   1.046   9.923   6.480
 3895SOL    HW213460   1.165   9.967   6.562
 3896SOL     OW13461   2.669   4.754  10.094
 3896SOL    HW113462   2.694   4.789  10.008
 3896SOL    HW213463   2.583   4.793  10.112
 3897SOL     OW13464   1.411   9.336   7.463
 3897SOL    HW113465   1.412   9.276   7.537
 3897SOL    HW213466   1.394   9.279   7.387
 3898SOL     OW13467   8.062   4.102  13.108
 3898SOL    HW113468   8.069   4.183  13.159
 3898SOL    HW213469   8.144   4.097  13.060
 3899SOL     OW13470  12.411   1.361   7.112
 3899SOL    HW113471  12.440   1.441   7.069
 3899SOL    HW213472  12.316   1.359   7.098
 3900SOL     OW13473   8.149   9.953   5.644
 3900SOL    HW113474   8.075   9.924   5.698
 3900SOL    HW213475   8.141   9.903   5.563
 3901SOL     OW13476   8.190   2.010   8.020
 3901SOL    HW113477   8.198   2.093   8.067
 3901SOL    HW213478   8.230   1.945   8.079
 3902SOL     OW13479  14.309   6.038   1.549
 3902SOL    HW113480  14.286   5.955   1.591
 3902SOL    HW213481  14.404   6.042   1.555
 3903SOL     OW13482   9.795  12.192   6.160
 3903SOL    HW113483   9.804  12.270   6.104
 3903SOL    HW213484   9.763  12.124   6.101
 3904SOL     OW13485   6.444   9.242   1.613
 3904SOL    HW113486   6.458   9.320   1.560
 3904SOL    HW213487   6.364   9.203   1.577
 3905SOL     OW13488   8.346  11.009   7.530
 3905SOL    HW113489   8.253  10.998   7.512
 3905SOL    HW213490   8.385  10.924   7.509
 3906SOL     OW13491   3.262   1.397   8.498
 3906SOL    HW113492   3.167   1.404   8.505
 3906SOL    HW213493   3.282   1.420   8.407
 3907SOL     OW13494   0.479   7.815   8.306
 3907SOL    HW113495   0.496   7.862   8.225
 3907SOL    HW213496   0.391   7.778   8.294
 3908SOL     OW13497   0.972   3.412   9.037
 3908SOL    HW113498   1.048   3.376   9.083
 3908SOL    HW213499   1.005   3.489   8.992
 3909SOL     OW13500  10.711   2.717  12.691
 3909SOL    HW113501  10.769   2.731  12.616
 3909SOL    HW213502  10.638   2.665  12.655
 3910SOL     OW13503   4.490   5.500   6.817
 3910SOL    HW113504   4.446   5.566   6.870
 3910SOL    HW213505   4.520   5.435   6.880
 3911SOL     OW13506  14.855   0.609   1.023
 3911SOL    HW113507  14.865   0.523   1.062
 3911SOL    HW213508   0.054   0.656   1.046
 3912SOL     OW13509   1.532   1.884  14.373
 3912SOL    HW113510   1.550   1.839  14.291
 3912SOL    HW213511   1.444   1.919  14.363
 3913SOL     OW13512   5.585  12.150   8.688
 3913SOL    HW113513   5.672  12.142   8.727
 3913SOL    HW213514   5.598  12.207   8.612
 3914SOL     OW13515  13.151   6.966   5.594
 3914SOL    HW113516  13.150   6.925   5.507
 3914SOL    HW213517  13.072   6.931   5.637
 3915SOL     OW13518   4.836   8.693   7.297
 3915SOL    HW113519   4.749   8.673   7.332
 3915SOL    HW213520   4.873   8.608   7.275
 3916SOL     OW13521   8.874   1.254   9.894
 3916SOL    HW113522   8.881   1.187   9.961
 3916SOL    HW213523   8.927   1.327   9.927
 3917SOL     OW13524   1.263   9.601   9.558
 3917SOL    HW113525   1.197   9.533   9.567
 3917SOL    HW213526   1.308   9.602   9.642
 3918SOL     OW13527   8.603   7.801   3.807
 3918SOL    HW113528   8.602   7.748   3.728
 3918SOL    HW213529   8.686   7.849   3.804
 3919SOL     OW13530   8.093  14.102   4.022
 3919SOL    HW113531   8.051  14.032   4.072
 3919SOL    HW213532   8.181  14.069   4.003
 3920SOL     OW13533   0.075   4.714   0.739
 3920SOL    HW113534   0.099   4.703   0.831
 3920SOL    HW213535   0.050   4.806   0.732
 3921SOL     OW13536   4.562   1.194   6.153
 3921SOL    HW113537   4.624   1.262   6.177
 3921SOL    HW213538   4.583   1.174   6.062
 3922SOL     OW13539  11.494   5.250   6.457
 3922SOL    HW113540  11.439   5.267   6.381
 3922SOL    HW213541  11.467   5.164   6.488
 3923SOL     OW13542   0.534   5.645   9.768
 3923SOL    HW113543   0.455   5.592   9.758
 3923SOL    HW213544   0.540   5.660   9.862
 3924SOL     OW13545  11.810   4.896   0.735
 3924SOL    HW113546  11.888   4.879   0.683
 3924SOL    HW213547  11.812   4.991   0.752
 3925SOL     OW13548   7.136   2.881   1.698
 3925SOL    HW113549   7.121   2.939   1.624
 3925SOL    HW213550   7.071   2.811   1.689
 3926SOL     OW13551   6.241   3.316   5.570
 3926SOL    HW113552   6.147   3.331   5.574
 3926SOL    HW213553   6.259   3.255   5.642
 3927SOL     OW13554   0.131  10.922  13.701
 3927SOL    HW113555   0.145  10.831  13.729
 3927SOL    HW213556   0.121  10.971  13.783
 3928SOL     OW13557  11.149   2.294   4.762
 3928SOL    HW113558  11.234   2.339   4.758
 3928SOL    HW213559  11.102   2.337   4.833
 3929SOL     OW13560   8.621  10.343  14.534
 3929SOL    HW113561   8.588  10.386  14.455
 3929SOL    HW213562   8.656  10.260  14.503
 3930SOL     OW13563   4.756   8.069  14.654
 3930SOL    HW113564   4.750   8.008  14.728
 3930SOL    HW213565   4.845   8.105  14.661
 3931SOL     OW13566   2.142   9.925  12.062
 3931SOL    HW113567   2.202   9.942  11.990
 3931SOL    HW213568   2.072   9.872  12.023
 3932SOL     OW13569  11.578   7.973   1.299
 3932SOL    HW113570  11.534   8.049   1.261
 3932SOL    HW213571  11.667   8.003   1.316
 3933SOL     OW13572  12.453  13.229  11.026
 3933SOL    HW113573  12.440  13.312  10.979
 3933SOL    HW213574  12.419  13.162  10.966
 3934SOL     OW13575   8.434   7.822   0.571
 3934SOL    HW113576   8.409   7.841   0.662
 3934SOL    HW213577   8.526   7.847   0.566
 3935SOL     OW13578   4.486   2.021   5.167
 3935SOL    HW113579   4.574   2.021   5.204
 3935SOL    HW213580   4.473   2.110   5.135
 3936SOL     OW13581  12.594   2.166   7.560
 3936SOL    HW113582  12.594   2.078   7.523
 3936SOL    HW213583  12.514   2.170   7.613
 3937SOL     OW13584   8.925   6.339  11.205
 3937SOL    HW113585   8.856   6.380  11.153
 3937SOL    HW213586   8.961   6.410  11.259
 3938SOL     OW13587   1.702   2.143   9.439
 3938SOL    HW113588   1.666   2.216   9.388
 3938SOL    HW213589   1.797   2.153   9.429
 3939SOL     OW13590   5.365   5.005   1.188
 3939SOL    HW113591   5.330   4.919   1.213
 3939SOL    HW213592   5.424   4.987   1.115
 3940SOL     OW13593   0.946  14.115   8.312
 3940SOL    HW113594   0.866  14.069   8.336
 3940SOL    HW213595   0.927  14.154   8.227
 3941SOL     OW13596   0.923   4.352   5.418
 3941SOL    HW113597   0.946   4.359   5.325
 3941SOL    HW213598   0.835   4.390   5.424
 3942SOL     OW13599   3.748   2.471   2.473
 3942SOL    HW113600   3.803   2.404   2.432
 3942SOL    HW213601   3.730   2.436   2.561
 3943SOL     OW13602   6.966  11.286   1.048
 3943SOL    HW113603   7.033  11.354   1.063
 3943SOL    HW213604   6.886  11.335   1.033
 3944SOL     OW13605  12.567   1.720   0.662
 3944SOL    HW113606  12.494   1.679   0.708
 3944SOL    HW213607  12.529   1.749   0.579
 3945SOL     OW13608  10.977   7.357   3.402
 3945SOL    HW113609  10.932   7.379   3.483
 3945SOL    HW213610  10.984   7.262   3.403
 3946SOL     OW13611   6.462  11.462   5.772
 3946SOL    HW113612   6.462  11.430   5.862
 3946SOL    HW213613   6.466  11.557   5.780
 3947SOL     OW13614   5.742   1.325  14.108
 3947SOL    HW113615   5.714   1.413  14.080
 3947SOL    HW213616   5.806   1.298  14.042
 3948SOL     OW13617  13.032   2.927   9.111
 3948SOL    HW113618  13.059   2.902   9.022
 3948SOL    HW213619  12.955   2.983   9.099
 3949SOL     OW13620   7.024   9.195   7.189
 3949SOL    HW113621   6.941   9.240   7.178
 3949SOL    HW213622   7.042   9.200   7.283
 3950SOL     OW13623   0.934   6.140  12.390
 3950SOL    HW113624   0.910   6.109  12.478
 3950SOL    HW213625   1.015   6.190  12.404
 3951SOL     OW13626  13.553   4.379   6.756
 3951SOL    HW113627  13.563   4.441   6.829
 3951SOL    HW213628  13.463   4.347   6.764
 3952SOL     OW13629   0.200   4.950   1.477
 3952SOL    HW113630   0.170   4.969   1.566
 3952SOL    HW213631   0.132   4.894   1.440
 3953SOL     OW13632   8.925   4.480   9.360
 3953SOL    HW113633   8.904   4.542   9.430
 3953SOL    HW213634   8.998   4.520   9.314
 3954SOL     OW13635  11.080   9.378  14.309
 3954SOL    HW113636  11.001   9.331  14.282
 3954SOL    HW213637  11.079   9.457  14.254
 3955SOL     OW13638  11.408   6.802  13.913
 3955SOL    HW113639  11.368   6.728  13.867
 3955SOL    HW213640  11.464   6.761  13.979
 3956SOL     OW13641   2.319   0.447  14.169
 3956SOL    HW113642   2.389   0.410  14.114
 3956SOL    HW213643   2.326   0.541  14.156
 3957SOL     OW13644   9.203  12.078  14.702
 3957SOL    HW113645   9.133  12.131  14.663
 3957SOL    HW213646   9.274  12.141  14.718
 3958SOL     OW13647   5.552   8.573   8.878
 3958SOL    HW113648   5.527   8.573   8.971
 3958SOL    HW213649   5.512   8.652   8.842
 3959SOL     OW13650   6.834   3.009   7.852
 3959SOL    HW113651   6.811   3.102   7.849
 3959SOL    HW213652   6.896   3.002   7.924
 3960SOL     OW13653  14.248   6.499   7.127
 3960SOL    HW113654  14.173   6.483   7.184
 3960SOL    HW213655  14.217   6.476   7.039
 3961SOL     OW13656  13.191   1.131   9.067
 3961SOL    HW113657  13.214   1.160   8.979
 3961SOL    HW213658  13.271   1.089   9.100
 3962SOL     OW13659   1.220   2.182  10.128
 3962SOL    HW113660   1.189   2.272  10.122
 3962SOL    HW213661   1.141   2.131  10.147
 3963SOL     OW13662  10.467  11.403  14.794
 3963SOL    HW113663  10.426  11.386  14.879
 3963SOL    HW213664  10.438  11.492  14.771
 3964SOL     OW13665   2.186   8.277   3.922
 3964SOL    HW113666   2.212   8.206   3.862
 3964SOL    HW213667   2.266   8.295   3.972
 3965SOL     OW13668   4.716   4.073   2.565
 3965SOL    HW113669   4.671   4.019   2.501
 3965SOL    HW213670   4.780   4.014   2.606
 3966SOL     OW13671   5.297  10.154   1.627
 3966SOL    HW113672   5.368  10.135   1.565
 3966SOL    HW213673   5.340  10.162   1.712
 3967SOL     OW13674   0.317   0.278  14.212
 3967SOL    HW113675   0.225   0.300  14.203
 3967SOL    HW213676   0.318   0.201  14.269
 3968SOL     OW13677   1.902   3.022   7.376
 3968SOL    HW113678   1.951   2.945   7.406
 3968SOL    HW213679   1.810   2.997   7.387
 3969SOL     OW13680  14.177  11.370   9.571
 3969SOL    HW113681  14.210  11.335   9.488
 3969SOL    HW213682  14.091  11.330   9.581
 3970SOL     OW13683  10.797   6.255   2.601
 3970SOL    HW113684  10.812   6.221   2.513
 3970SOL    HW213685  10.702   6.269   2.606
 3971SOL     OW13686   6.235   5.587   6.311
 3971SOL    HW113687   6.141   5.572   6.306
 3971SOL    HW213688   6.268   5.558   6.225
 3972SOL     OW13689  10.242   0.870   0.709
 3972SOL    HW113690  10.181   0.940   0.733
 3972SOL    HW213691  10.194   0.789   0.729
 3973SOL     OW13692  13.765   2.265   1.729
 3973SOL    HW113693  13.782   2.223   1.645
 3973SOL    HW213694  13.676   2.299   1.722
 3974SOL     OW13695  11.120   4.487   7.471
 3974SOL    HW113696  11.152   4.406   7.509
 3974SOL    HW213697  11.033   4.500   7.510
 3975SOL     OW13698   3.599   0.917   4.856
 3975SOL    HW113699   3.611   1.004   4.820
 3975SOL    HW213700   3.661   0.862   4.808
 3976SOL     OW13701   5.303  12.643   8.016
 3976SOL    HW113702   5.389  12.660   7.976
 3976SOL    HW213703   5.315  12.665   8.108
 3977SOL     OW13704   1.659   3.625   2.969
 3977SOL    HW113705   1.704   3.680   3.033
 3977SOL    HW213706   1.726   3.603   2.905
 3978SOL     OW13707   7.031  12.642  10.225
 3978SOL    HW113708   7.024  12.631  10.131
 3978SOL    HW213709   6.975  12.717  10.245
 3979SOL     OW13710  11.494   3.577  10.370
 3979SOL    HW113711  11.492   3.542  10.281
 3979SOL    HW213712  11.453   3.663  10.363
 3980SOL     OW13713   3.200   3.753  12.617
 3980SOL    HW113714   3.274   3.805  12.647
 3980SOL    HW213715   3.176   3.791  12.532
 3981SOL     OW13716   2.827   1.466   5.471
 3981SOL    HW113717   2.842   1.537   5.409
 3981SOL    HW213718   2.892   1.481   5.541
 3982SOL     OW13719   5.168  14.324   9.369
 3982SOL    HW113720   5.166  14.228   9.372
 3982SOL    HW213721   5.097  14.348   9.310
 3983SOL     OW13722   4.639  14.784   4.454
 3983SOL    HW113723   4.717  14.807   4.403
 3983SOL    HW213724   4.649  14.831   4.536
 3984SOL     OW13725   6.235   8.973  13.809
 3984SOL    HW113726   6.265   8.987  13.719
 3984SOL    HW213727   6.189   9.054  13.831
 3985SOL     OW13728   4.177   5.016  10.331
 3985SOL    HW113729   4.149   5.072  10.403
 3985SOL    HW213730   4.272   5.029  10.327
 3986SOL     OW13731   2.894   6.123   7.833
 3986SOL    HW113732   2.828   6.192   7.825
 3986SOL    HW213733   2.936   6.119   7.747
 3987SOL     OW13734  11.199   9.904  13.338
 3987SOL    HW113735  11.216   9.825  13.286
 3987SOL    HW213736  11.201   9.975  13.274
 3988SOL     OW13737  11.336  10.572  10.027
 3988SOL    HW113738  11.427  10.543  10.034
 3988SOL    HW213739  11.305  10.574  10.117
 3989SOL     OW13740  10.192   8.001  10.506
 3989SOL    HW113741  10.102   8.021  10.532
 3989SOL    HW213742  10.191   7.906  10.490
 3990SOL     OW13743  10.260   5.851   8.971
 3990SOL    HW113744  10.259   5.928   9.028
 3990SOL    HW213745  10.346   5.854   8.929
 3991SOL     OW13746   5.746   5.238   6.508
 3991SOL    HW113747   5.766   5.331   6.517
 3991SOL    HW213748   5.651   5.232   6.517
 3992SOL     OW13749   5.716   1.522   3.913
 3992SOL    HW113750   5.704   1.541   3.820
 3992SOL    HW213751   5.811   1.517   3.924
 3993SOL     OW13752   4.469  10.723   7.773
 3993SOL    HW113753   4.560  10.730   7.803
 3993SOL    HW213754   4.475  10.680   7.687
 3994SOL     OW13755   5.893  11.155  10.148
 3994SOL    HW113756   5.964  11.093  10.167
 3994SOL    HW213757   5.819  11.124  10.201
 3995SOL     OW13758   9.169   2.817   7.841
 3995SOL    HW113759   9.242   2.878   7.840
 3995SOL    HW213760   9.209   2.731   7.856
 3996SOL     OW13761   0.924   2.663   8.108
 3996SOL    HW113762   0.972   2.585   8.080
 3996SOL    HW213763   0.986   2.735   8.100
 3997SOL     OW13764  10.996   1.221  11.241
 3997SOL    HW113765  11.001   1.278  11.164
 3997SOL    HW213766  10.902   1.205  11.252
 3998SOL     OW13767   6.367   0.787   1.338
 3998SOL    HW113768   6.280   0.763   1.308
 3998SOL    HW213769   6.426   0.732   1.286
 3999SOL     OW13770   1.536  10.660  12.392
 3999SOL    HW113771   1.621  10.681  12.354
 3999SOL    HW213772   1.501  10.589  12.338
 4000SOL     OW13773   1.897  10.881  11.744
 4000SOL    HW113774   1.819  10.881  11.689
 4000SOL    HW213775   1.957  10.821  11.699
 4001SOL     OW13776  11.820  13.178  13.092
 4001SOL    HW113777  11.889  13.125  13.051
 4001SOL    HW213778  11.748  13.177  13.029
 4002SOL     OW13779   0.028   7.748   3.620
 4002SOL    HW113780   0.043   7.793   3.703
 4002SOL    HW213781  14.863   7.668   3.644
 4003SOL     OW13782  12.835   1.009   1.984
 4003SOL    HW113783  12.830   0.942   2.053
 4003SOL    HW213784  12.914   0.987   1.935
 4004SOL     OW13785   9.623  14.783   8.315
 4004SOL    HW113786   9.562  14.775   8.389
 4004SOL    HW213787   9.707  14.753   8.350
 4005SOL     OW13788   7.967   6.875   7.717
 4005SOL    HW113789   7.936   6.963   7.738
 4005SOL    HW213790   7.990   6.836   7.802
 4006SOL     OW13791  13.435  12.316   2.468
 4006SOL    HW113792  13.354  12.354   2.501
 4006SOL    HW213793  13.407  12.241   2.416
 4007SOL     OW13794   9.811  13.598   2.623
 4007SOL    HW113795   9.816  13.694   2.629
 4007SOL    HW213796   9.738  13.583   2.562
 4008SOL     OW13797   5.763   2.638  12.412
 4008SOL    HW113798   5.726   2.570  12.355
 4008SOL    HW213799   5.817   2.589  12.475
 4009SOL     OW13800   5.869  14.284  13.814
 4009SOL    HW113801   5.823  14.200  13.813
 4009SOL    HW213802   5.955  14.263  13.850
 4010SOL     OW13803  12.387   6.635   6.507
 4010SOL    HW113804  12.335   6.688   6.446
 4010SOL    HW213805  12.424   6.699   6.568
 4011SOL     OW13806   2.187   6.515  13.730
 4011SOL    HW113807   2.102   6.557  13.720
 4011SOL    HW213808   2.249   6.588  13.738
 4012SOL     OW13809   8.545  13.427   1.200
 4012SOL    HW113810   8.580  13.492   1.261
 4012SOL    HW213811   8.592  13.346   1.222
 4013SOL     OW13812   4.386  12.186   4.002
 4013SOL    HW113813   4.457  12.175   4.065
 4013SOL    HW213814   4.375  12.099   3.964
 4014SOL     OW13815  12.929  10.334   6.248
 4014SOL    HW113816  13.019  10.360   6.265
 4014SOL    HW213817  12.881  10.362   6.327
 4015SOL     OW13818   2.522  11.645   4.682
 4015SOL    HW113819   2.552  11.666   4.594
 4015SOL    HW213820   2.508  11.730   4.724
 4016SOL     OW13821   3.131   1.855   5.818
 4016SOL    HW113822   3.055   1.908   5.841
 4016SOL    HW213823   3.167   1.897   5.740
 4017SOL     OW13824   4.935  13.772   9.549
 4017SOL    HW113825   5.009  13.812   9.504
 4017SOL    HW213826   4.909  13.699   9.493
 4018SOL     OW13827   2.550  10.737   6.923
 4018SOL    HW113828   2.559  10.642   6.924
 4018SOL    HW213829   2.456  10.752   6.916
 4019SOL     OW13830   9.416  14.244   9.099
 4019SOL    HW113831   9.479  14.213   9.165
 4019SOL    HW213832   9.470  14.284   9.031
 4020SOL     OW13833   5.042  10.088  13.821
 4020SOL    HW113834   5.071  10.177  13.839
 4020SOL    HW213835   4.950  10.087  13.847
 4021SOL     OW13836   6.860   2.257   8.713
 4021SOL    HW113837   6.912   2.337   8.711
 4021SOL    HW213838   6.819   2.257   8.799
 4022SOL     OW13839   0.345   8.455   7.046
 4022SOL    HW113840   0.310   8.369   7.066
 4022SOL    HW213841   0.282   8.516   7.082
 4023SOL     OW13842   9.947   5.165   9.631
 4023SOL    HW113843   9.910   5.136   9.714
 4023SOL    HW213844   9.875   5.156   9.568
 4024SOL     OW13845   9.690   1.883   7.546
 4024SOL    HW113846   9.696   1.871   7.451
 4024SOL    HW213847   9.602   1.916   7.561
 4025SOL     OW13848   3.359   7.643   2.763
 4025SOL    HW113849   3.436   7.633   2.707
 4025SOL    HW213850   3.384   7.711   2.826
 4026SOL     OW13851   9.271   4.347   2.808
 4026SOL    HW113852   9.311   4.435   2.804
 4026SOL    HW213853   9.326   4.299   2.870
 4027SOL     OW13854   4.980  11.534  13.907
 4027SOL    HW113855   5.023  11.452  13.932
 4027SOL    HW213856   4.902  11.539  13.962
 4028SOL     OW13857   7.687   4.270   6.395
 4028SOL    HW113858   7.621   4.244   6.459
 4028SOL    HW213859   7.747   4.327   6.443
 4029SOL     OW13860   2.651  14.361  12.492
 4029SOL    HW113861   2.588  14.362  12.564
 4029SOL    HW213862   2.608  14.308  12.424
 4030SOL     OW13863   1.104   4.520  14.004
 4030SOL    HW113864   1.096   4.487  14.094
 4030SOL    HW213865   1.046   4.465  13.952
 4031SOL     OW13866  11.225   8.590   4.153
 4031SOL    HW113867  11.197   8.506   4.118
 4031SOL    HW213868  11.313   8.574   4.188
 4032SOL     OW13869   8.984  13.815   5.145
 4032SOL    HW113870   8.952  13.902   5.168
 4032SOL    HW213871   9.063  13.804   5.198
 4033SOL     OW13872  12.473   6.662   2.520
 4033SOL    HW113873  12.458   6.567   2.516
 4033SOL    HW213874  12.496   6.686   2.430
 4034SOL     OW13875   0.532   7.586   5.390
 4034SOL    HW113876   0.557   7.664   5.341
 4034SOL    HW213877   0.447   7.607   5.429
 4035SOL     OW13878   2.077   6.602  12.872
 4035SOL    HW113879   2.104   6.613  12.781
 4035SOL    HW213880   2.013   6.672  12.886
 4036SOL     OW13881   2.417   2.592   4.739
 4036SOL    HW113882   2.361   2.666   4.761
 4036SOL    HW213883   2.505   2.629   4.734
 4037SOL     OW13884   7.805   5.430  12.899
 4037SOL    HW113885   7.808   5.476  12.982
 4037SOL    HW213886   7.716   5.394  12.895
 4038SOL     OW13887  11.654   2.224   4.522
 4038SOL    HW113888  11.665   2.171   4.442
 4038SOL    HW213889  11.559   2.234   4.531
 4039SOL     OW13890   0.529  11.030   6.918
 4039SOL    HW113891   0.601  11.071   6.967
 4039SOL    HW213892   0.452  11.079   6.946
 4040SOL     OW13893   1.555  11.994   5.453
 4040SOL    HW113894   1.623  11.973   5.517
 4040SOL    HW213895   1.601  11.996   5.369
 4041SOL     OW13896  14.379   8.012   8.632
 4041SOL    HW113897  14.326   7.941   8.596
 4041SOL    HW213898  14.467   7.975   8.642
 4042SOL     OW13899   9.651   7.332   9.571
 4042SOL    HW113900   9.623   7.412   9.616
 4042SOL    HW213901   9.721   7.296   9.625
 4043SOL     OW13902   7.721   3.735   0.482
 4043SOL    HW113903   7.701   3.657   0.431
 4043SOL    HW213904   7.646   3.793   0.468
 4044SOL     OW13905   0.550   2.285   1.606
 4044SOL    HW113906   0.475   2.326   1.650
 4044SOL    HW213907   0.560   2.201   1.650
 4045SOL     OW13908   6.963  14.239   4.101
 4045SOL    HW113909   6.903  14.272   4.167
 4045SOL    HW213910   7.040  14.211   4.150
 4046SOL     OW13911  14.518  11.832  14.647
 4046SOL    HW113912  14.508  11.885  14.568
 4046SOL    HW213913  14.486  11.745  14.621
 4047SOL     OW13914  12.559   7.541   5.268
 4047SOL    HW113915  12.649   7.508   5.276
 4047SOL    HW213916  12.505   7.465   5.288
 4048SOL     OW13917   3.870  13.770  13.075
 4048SOL    HW113918   3.889  13.826  12.999
 4048SOL    HW213919   3.859  13.683  13.037
 4049SOL     OW13920  13.687   1.136  13.755
 4049SOL    HW113921  13.670   1.043  13.773
 4049SOL    HW213922  13.748   1.163  13.824
 4050SOL     OW13923  11.237   3.907   9.825
 4050SOL    HW113924  11.282   3.845   9.883
 4050SOL    HW213925  11.145   3.899   9.849
 4051SOL     OW13926   5.691   0.322   8.305
 4051SOL    HW113927   5.710   0.255   8.371
 4051SOL    HW213928   5.603   0.354   8.328
 4052SOL     OW13929  11.474   5.808   4.830
 4052SOL    HW113930  11.454   5.766   4.746
 4052SOL    HW213931  11.568   5.828   4.825
 4053SOL     OW13932   8.457  14.621   7.585
 4053SOL    HW113933   8.383  14.588   7.534
 4053SOL    HW213934   8.505  14.678   7.525
 4054SOL     OW13935   3.687   8.554   0.235
 4054SOL    HW113936   3.623   8.544   0.165
 4054SOL    HW213937   3.758   8.493   0.211
 4055SOL     OW13938   3.795  10.160   3.986
 4055SOL    HW113939   3.859  10.108   3.938
 4055SOL    HW213940   3.802  10.130   4.076
 4056SOL     OW13941   5.051  11.395  14.832
 4056SOL    HW113942   5.124  11.356  14.880
 4056SOL    HW213943   5.052  11.487  14.858
 4057SOL     OW13944   8.668  14.058   0.311
 4057SOL    HW113945   8.645  13.996   0.380
 4057SOL    HW213946   8.590  14.061   0.255
 4058SOL     OW13947   0.090  11.392  13.145
 4058SOL    HW113948   0.115  11.342  13.222
 4058SOL    HW213949   0.168  11.442  13.122
 4059SOL     OW13950   6.343   5.349  14.857
 4059SOL    HW113951   6.291   5.275   0.006
 4059SOL    HW213952   6.371   5.394   0.055
 4060SOL     OW13953  12.915  10.947   7.822
 4060SOL    HW113954  12.926  10.877   7.758
 4060SOL    HW213955  12.855  11.009   7.780
 4061SOL     OW13956   8.484  12.598   3.939
 4061SOL    HW113957   8.536  12.633   3.866
 4061SOL    HW213958   8.529  12.629   4.018
 4062SOL     OW13959  13.728  13.161   1.062
 4062SOL    HW113960  13.650  13.178   1.115
 4062SOL    HW213961  13.750  13.070   1.081
 4063SOL     OW13962   3.480   5.323   0.858
 4063SOL    HW113963   3.485   5.243   0.909
 4063SOL    HW213964   3.393   5.320   0.817
 4064SOL     OW13965  11.659   3.721   9.293
 4064SOL    HW113966  11.565   3.718   9.313
 4064SOL    HW213967  11.674   3.809   9.259
 4065SOL     OW13968  14.377  13.781  14.322
 4065SOL    HW113969  14.417  13.850  14.269
 4065SOL    HW213970  14.284  13.804  14.325
 4066SOL     OW13971  12.184  10.031   4.828
 4066SOL    HW113972  12.186   9.972   4.752
 4066SOL    HW213973  12.159   9.976   4.901
 4067SOL     OW13974   1.215   7.668   9.048
 4067SOL    HW113975   1.305   7.694   9.029
 4067SOL    HW213976   1.222   7.583   9.091
 4068SOL     OW13977  12.282   1.944  10.688
 4068SOL    HW113978  12.282   1.852  10.660
 4068SOL    HW213979  12.372   1.961  10.713
 4069SOL     OW13980   8.298  10.476   6.538
 4069SOL    HW113981   8.328  10.546   6.596
 4069SOL    HW213982   8.303  10.515   6.450
 4070SOL     OW13983  11.619   4.613   4.421
 4070SOL    HW113984  11.699   4.644   4.379
 4070SOL    HW213985  11.636   4.522   4.442
 4071SOL     OW13986   6.414  11.662   3.206
 4071SOL    HW113987   6.498  11.620   3.187
 4071SOL    HW213988   6.426  11.754   3.181
 4072SOL     OW13989  13.479   9.226   7.655
 4072SOL    HW113990  13.426   9.186   7.725
 4072SOL    HW213991  13.434   9.308   7.635
 4073SOL     OW13992   7.428   3.381   4.435
 4073SOL    HW113993   7.514   3.387   4.394
 4073SOL    HW213994   7.367   3.418   4.371
 4074SOL     OW13995  14.407  14.591   0.518
 4074SOL    HW113996  14.496  14.604   0.482
 4074SOL    HW213997  14.416  14.518   0.578
 4075SOL     OW13998   2.185   5.550   5.912
 4075SOL    HW113999   2.131   5.480   5.873
 4075SOL    HW214000   2.238   5.506   5.978
 4076SOL     OW14001  11.344   8.775   8.242
 4076SOL    HW114002  11.306   8.750   8.157
 4076SOL    HW214003  11.405   8.705   8.262
 4077SOL     OW14004  13.760   4.807  11.162
 4077SOL    HW114005  13.800   4.800  11.249
 4077SOL    HW214006  13.814   4.750  11.107
 4078SOL     OW14007   6.071   8.646  13.812
 4078SOL    HW114008   6.119   8.563  13.812
 4078SOL    HW214009   5.987   8.625  13.772
 4079SOL     OW14010  10.037   4.639   3.379
 4079SOL    HW114011  10.037   4.720   3.329
 4079SOL    HW214012  10.090   4.579   3.326
 4080SOL     OW14013  11.972   0.285   8.294
 4080SOL    HW114014  12.027   0.239   8.357
 4080SOL    HW214015  12.014   0.268   8.209
 4081SOL     OW14016   3.016   0.894   3.890
 4081SOL    HW114017   3.009   0.813   3.940
 4081SOL    HW214018   2.954   0.882   3.818
 4082SOL     OW14019  10.236  13.427  12.352
 4082SOL    HW114020  10.175  13.402  12.421
 4082SOL    HW214021  10.312  13.463  12.398
 4083SOL     OW14022   3.533   1.243   0.019
 4083SOL    HW114023   3.473   1.205   0.082
 4083SOL    HW214024   3.617   1.248   0.065
 4084SOL     OW14025  11.867   3.530   6.740
 4084SOL    HW114026  11.907   3.461   6.793
 4084SOL    HW214027  11.790   3.490   6.701
 4085SOL     OW14028   1.404   1.812   7.419
 4085SOL    HW114029   1.359   1.854   7.345
 4085SOL    HW214030   1.400   1.719   7.400
 4086SOL     OW14031   2.925  14.371  12.958
 4086SOL    HW114032   2.981  14.430  12.907
 4086SOL    HW214033   2.864  14.335  12.894
 4087SOL     OW14034   0.001  10.454   3.091
 4087SOL    HW114035  14.833  10.413   3.020
 4087SOL    HW214036   0.060  10.385   3.122
 4088SOL     OW14037   1.115  14.238   8.477
 4088SOL    HW114038   1.039  14.246   8.420
 4088SOL    HW214039   1.168  14.315   8.458
 4089SOL     OW14040  13.928   2.987  12.077
 4089SOL    HW114041  13.872   3.065  12.082
 4089SOL    HW214042  13.898   2.931  12.148
 4090SOL     OW14043   6.854  13.713   9.451
 4090SOL    HW114044   6.902  13.722   9.369
 4090SOL    HW214045   6.888  13.782   9.507
 4091SOL     OW14046  14.569   9.305   1.793
 4091SOL    HW114047  14.604   9.297   1.704
 4091SOL    HW214048  14.637   9.269   1.849
 4092SOL     OW14049   0.073   8.527  13.658
 4092SOL    HW114050   0.113   8.441  13.665
 4092SOL    HW214051  14.880   8.515  13.599
 4093SOL     OW14052   0.258  12.472  10.435
 4093SOL    HW114053   0.229  12.449  10.523
 4093SOL    HW214054   0.279  12.565  10.440
 4094SOL     OW14055  11.642   1.925  12.420
 4094SOL    HW114056  11.600   2.011  12.422
 4094SOL    HW214057  11.572   1.866  12.392
 4095SOL     OW14058   4.425   8.154   8.490
 4095SOL    HW114059   4.519   8.160   8.507
 4095SOL    HW214060   4.413   8.191   8.403
 4096SOL     OW14061   0.798   5.745   2.175
 4096SOL    HW114062   0.826   5.730   2.265
 4096SOL    HW214063   0.874   5.722   2.122
 4097SOL     OW14064  12.105  14.541   0.059
 4097SOL    HW114065  12.107  14.623   0.109
 4097SOL    HW214066  12.047  14.484   0.108
 4098SOL     OW14067   8.602   6.780  14.201
 4098SOL    HW114068   8.593   6.814  14.112
 4098SOL    HW214069   8.535   6.826  14.252
 4099SOL     OW14070   6.141  10.218  11.370
 4099SOL    HW114071   6.153  10.172  11.453
 4099SOL    HW214072   6.116  10.150  11.308
 4100SOL     OW14073  11.840   6.718  12.977
 4100SOL    HW114074  11.879   6.723  12.890
 4100SOL    HW214075  11.785   6.796  12.984
 4101SOL     OW14076  11.392   3.729  11.439
 4101SOL    HW114077  11.405   3.635  11.445
 4101SOL    HW214078  11.347   3.752  11.520
 4102SOL     OW14079   5.981   2.325  14.328
 4102SOL    HW114080   5.921   2.253  14.308
 4102SOL    HW214081   5.924   2.400  14.344
 4103SOL     OW14082  12.956   3.135  13.666
 4103SOL    HW114083  12.948   3.211  13.609
 4103SOL    HW214084  13.048   3.110  13.661
 4104SOL     OW14085  11.040   3.937   1.348
 4104SOL    HW114086  11.041   3.986   1.266
 4104SOL    HW214087  11.049   4.003   1.416
 4105SOL     OW14088   7.505  14.563  12.108
 4105SOL    HW114089   7.418  14.598  12.128
 4105SOL    HW214090   7.488  14.472  12.083
 4106SOL     OW14091   4.596   5.442   7.347
 4106SOL    HW114092   4.633   5.517   7.394
 4106SOL    HW214093   4.670   5.385   7.330
 4107SOL     OW14094   1.387   6.106  14.238
 4107SOL    HW114095   1.292   6.118  14.229
 4107SOL    HW214096   1.423   6.194  14.224
 4108SOL     OW14097  14.515   9.083   5.627
 4108SOL    HW114098  14.426   9.096   5.661
 4108SOL    HW214099  14.530   8.989   5.635
 4109SOL     OW14100   5.967   4.651   9.766
 4109SOL    HW114101   6.050   4.615   9.797
 4109SOL    HW214102   5.913   4.575   9.745
 4110SOL     OW14103  14.207  10.042  10.944
 4110SOL    HW114104  14.216   9.973  11.009
 4110SOL    HW214105  14.286  10.033  10.889
 4111SOL     OW14106   6.457  10.493  14.679
 4111SOL    HW114107   6.402  10.425  14.718
 4111SOL    HW214108   6.416  10.511  14.594
 4112SOL     OW14109   0.279  10.126   7.935
 4112SOL    HW114110   0.208  10.069   7.964
 4112SOL    HW214111   0.356  10.096   7.984
 4113SOL     OW14112   5.940   2.244   4.125
 4113SOL    HW114113   5.957   2.189   4.049
 4113SOL    HW214114   5.860   2.291   4.103
 4114SOL     OW14115  11.526   5.068   5.952
 4114SOL    HW114116  11.430   5.068   5.962
 4114SOL    HW214117  11.555   5.141   6.007
 4115SOL     OW14118  11.215  10.844   7.184
 4115SOL    HW114119  11.274  10.917   7.199
 4115SOL    HW214120  11.225  10.789   7.262
 4116SOL     OW14121   9.834   1.770   4.421
 4116SOL    HW114122   9.860   1.711   4.350
 4116SOL    HW214123   9.893   1.748   4.493
 4117SOL     OW14124   2.190   3.725   2.201
 4117SOL    HW114125   2.177   3.697   2.110
 4117SOL    HW214126   2.182   3.644   2.252
 4118SOL     OW14127   7.148  13.383  13.678
 4118SOL    HW114128   7.234  13.425  13.671
 4118SOL    HW214129   7.158  13.301  13.630
 4119SOL     OW14130  11.169   1.292   8.524
 4119SOL    HW114131  11.207   1.373   8.560
 4119SOL    HW214132  11.243   1.231   8.519
 4120SOL     OW14133   6.120   6.805   4.156
 4120SOL    HW114134   6.133   6.826   4.063
 4120SOL    HW214135   6.027   6.821   4.171
 4121SOL     OW14136   1.760   0.885   4.819
 4121SOL    HW114137   1.792   0.798   4.841
 4121SOL    HW214138   1.813   0.912   4.744
 4122SOL     OW14139   0.213  12.464   4.902
 4122SOL    HW114140   0.224  12.539   4.843
 4122SOL    HW214141   0.172  12.502   4.980
 4123SOL     OW14142  11.794   7.565   6.863
 4123SOL    HW114143  11.776   7.617   6.941
 4123SOL    HW214144  11.862   7.503   6.890
 4124SOL     OW14145  11.556   6.510   5.756
 4124SOL    HW114146  11.587   6.465   5.677
 4124SOL    HW214147  11.600   6.595   5.755
 4125SOL     OW14148   7.083   1.317   2.180
 4125SOL    HW114149   7.109   1.366   2.102
 4125SOL    HW214150   7.144   1.346   2.248
 4126SOL     OW14151  12.807   9.801   0.218
 4126SOL    HW114152  12.900   9.789   0.196
 4126SOL    HW214153  12.806   9.803   0.314
 4127SOL     OW14154   1.491  11.441   0.333
 4127SOL    HW114155   1.448  11.505   0.277
 4127SOL    HW214156   1.487  11.359   0.284
 4128SOL     OW14157  11.585  14.388   2.943
 4128SOL    HW114158  11.566  14.422   3.031
 4128SOL    HW214159  11.641  14.455   2.904
 4129SOL     OW14160   8.981   5.854  11.300
 4129SOL    HW114161   8.952   5.941  11.326
 4129SOL    HW214162   8.930   5.833  11.222
 4130SOL     OW14163   3.877   2.549  10.831
 4130SOL    HW114164   3.898   2.584  10.918
 4130SOL    HW214165   3.815   2.612  10.794
 4131SOL     OW14166   9.781   8.232   5.719
 4131SOL    HW114167   9.786   8.214   5.625
 4131SOL    HW214168   9.699   8.280   5.730
 4132SOL     OW14169   8.231   2.546   0.068
 4132SOL    HW114170   8.218   2.487   0.142
 4132SOL    HW214171   8.169   2.618   0.083
 4133SOL     OW14172  12.303   0.065  10.910
 4133SOL    HW114173  12.377   0.023  10.955
 4133SOL    HW214174  12.297   0.152  10.950
 4134SOL     OW14175   5.062   1.885  14.221
 4134SOL    HW114176   5.082   1.975  14.247
 4134SOL    HW214177   5.114   1.831  14.280
 4135SOL     OW14178  11.464  13.204   1.544
 4135SOL    HW114179  11.462  13.149   1.466
 4135SOL    HW214180  11.518  13.279   1.520
 4136SOL     OW14181   9.503   1.229   9.218
 4136SOL    HW114182   9.413   1.256   9.200
 4136SOL    HW214183   9.495   1.161   9.285
 4137SOL     OW14184   6.551   3.686   5.470
 4137SOL    HW114185   6.482   3.625   5.444
 4137SOL    HW214186   6.538   3.762   5.414
 4138SOL     OW14187   2.764   7.240  12.156
 4138SOL    HW114188   2.852   7.209  12.133
 4138SOL    HW214189   2.771   7.262  12.249
 4139SOL     OW14190   4.076  13.171   8.542
 4139SOL    HW114191   4.015  13.107   8.505
 4139SOL    HW214192   4.117  13.126   8.616
 4140SOL     OW14193   7.665  14.376   6.176
 4140SOL    HW114194   7.620  14.358   6.093
 4140SOL    HW214195   7.609  14.339   6.243
 4141SOL     OW14196   1.162  11.943  10.434
 4141SOL    HW114197   1.121  12.026  10.411
 4141SOL    HW214198   1.190  11.906  10.350
 4142SOL     OW14199   5.206   4.635  14.146
 4142SOL    HW114200   5.288   4.603  14.184
 4142SOL    HW214201   5.227   4.723  14.115
 4143SOL     OW14202   5.962  12.842  11.430
 4143SOL    HW114203   6.009  12.759  11.420
 4143SOL    HW214204   5.912  12.833  11.510
 4144SOL     OW14205   9.523  14.289   3.196
 4144SOL    HW114206   9.603  14.236   3.194
 4144SOL    HW214207   9.532  14.342   3.275
 4145SOL     OW14208   4.540   6.668   3.244
 4145SOL    HW114209   4.551   6.763   3.233
 4145SOL    HW214210   4.473   6.659   3.312
 4146SOL     OW14211   2.685   8.355   8.283
 4146SOL    HW114212   2.686   8.355   8.379
 4146SOL    HW214213   2.654   8.268   8.259
 4147SOL     OW14214   2.303   4.143  13.593
 4147SOL    HW114215   2.306   4.165  13.500
 4147SOL    HW214216   2.336   4.053  13.598
 4148SOL     OW14217   6.869  14.210   9.823
 4148SOL    HW114218   6.909  14.288   9.860
 4148SOL    HW214219   6.920  14.137   9.860
 4149SOL     OW14220  13.587  12.808   0.346
 4149SOL    HW114221  13.576  12.713   0.337
 4149SOL    HW214222  13.661  12.818   0.405
 4150SOL     OW14223   9.303   9.340  10.152
 4150SOL    HW114224   9.275   9.417  10.104
 4150SOL    HW214225   9.303   9.367  10.243
 4151SOL     OW14226   0.899   7.954   3.055
 4151SOL    HW114227   0.990   7.956   3.027
 4151SOL    HW214228   0.901   7.910   3.140
 4152SOL     OW14229   0.803   6.238  10.619
 4152SOL    HW114230   0.744   6.313  10.624
 4152SOL    HW214231   0.750   6.168  10.581
 4153SOL     OW14232   3.635   3.329  11.537
 4153SOL    HW114233   3.572   3.302  11.470
 4153SOL    HW214234   3.659   3.418  11.512
 4154SOL     OW14235  10.078  11.126  10.207
 4154SOL    HW114236  10.032  11.090  10.283
 4154SOL    HW214237  10.009  11.159  10.150
 4155SOL     OW14238   3.872  11.558   1.438
 4155SOL    HW114239   3.904  11.558   1.348
 4155SOL    HW214240   3.923  11.489   1.481
 4156SOL     OW14241  10.505   7.953   3.151
 4156SOL    HW114242  10.549   7.869   3.138
 4156SOL    HW214243  10.556   8.016   3.099
 4157SOL     OW14244   0.219   8.180   8.556
 4157SOL    HW114245   0.168   8.158   8.478
 4157SOL    HW214246   0.185   8.265   8.584
 4158SOL     OW14247  14.445  14.787   4.407
 4158SOL    HW114248  14.366  14.776   4.353
 4158SOL    HW214249  14.419  14.757   4.494
 4159SOL     OW14250   4.223  13.769   3.037
 4159SOL    HW114251   4.172  13.695   3.003
 4159SOL    HW214252   4.218  13.835   2.968
 4160SOL     OW14253   7.608  14.826   2.025
 4160SOL    HW114254   7.607  14.876   2.107
 4160SOL    HW214255   7.524  14.846   1.984
 4161SOL     OW14256   7.277   6.121   2.257
 4161SOL    HW114257   7.213   6.131   2.328
 4161SOL    HW214258   7.281   6.027   2.240
 4162SOL     OW14259   3.329   7.263   9.978
 4162SOL    HW114260   3.357   7.354   9.987
 4162SOL    HW214261   3.408   7.216   9.951
 4163SOL     OW14262  10.160   7.029   2.765
 4163SOL    HW114263  10.125   6.941   2.752
 4163SOL    HW214264  10.106   7.067   2.834
 4164SOL     OW14265  10.942   2.985  11.995
 4164SOL    HW114266  10.870   2.939  12.038
 4164SOL    HW214267  10.927   2.972  11.902
 4165SOL     OW14268   8.189  10.079   2.102
 4165SOL    HW114269   8.227  10.149   2.154
 4165SOL    HW214270   8.264  10.027   2.072
 4166SOL     OW14271   8.522   4.366   0.848
 4166SOL    HW114272   8.578   4.347   0.773
 4166SOL    HW214273   8.523   4.285   0.900
 4167SOL     OW14274   9.334   5.305   8.220
 4167SOL    HW114275   9.272   5.370   8.255
 4167SOL    HW214276   9.384   5.353   8.154
 4168SOL     OW14277   2.580  13.163  11.489
 4168SOL    HW114278   2.570  13.074  11.523
 4168SOL    HW214279   2.619  13.151  11.402
 4169SOL     OW14280   1.991  12.084  13.961
 4169SOL    HW114281   1.931  12.158  13.948
 4169SOL    HW214282   2.026  12.067  13.874
 4170SOL     OW14283   5.882  10.553  10.810
 4170SOL    HW114284   5.796  10.518  10.785
 4170SOL    HW214285   5.885  10.639  10.768
 4171SOL     OW14286   4.977  10.670   2.899
 4171SOL    HW114287   4.928  10.751   2.912
 4171SOL    HW214288   4.956  10.617   2.976
 4172SOL     OW14289   5.410   2.200  11.103
 4172SOL    HW114290   5.458   2.269  11.148
 4172SOL    HW214291   5.442   2.119  11.142
 4173SOL     OW14292   1.301   7.375   4.964
 4173SOL    HW114293   1.299   7.426   5.044
 4173SOL    HW214294   1.211   7.379   4.931
 4174SOL     OW14295   7.780  11.875  14.084
 4174SOL    HW114296   7.715  11.830  14.028
 4174SOL    HW214297   7.728  11.936  14.136
 4175SOL     OW14298   1.051   7.335   4.440
 4175SOL    HW114299   1.088   7.275   4.375
 4175SOL    HW214300   1.073   7.422   4.407
 4176SOL     OW14301   5.102  12.910   5.054
 4176SOL    HW114302   5.047  12.840   5.090
 4176SOL    HW214303   5.079  12.988   5.106
 4177SOL     OW14304   3.435   5.773   4.209
 4177SOL    HW114305   3.386   5.691   4.201
 4177SOL    HW214306   3.525   5.748   4.189
 4178SOL     OW14307   4.431  10.067  11.687
 4178SOL    HW114308   4.416  10.002  11.756
 4178SOL    HW214309   4.526  10.067  11.675
 4179SOL     OW14310   0.103   7.914   6.891
 4179SOL    HW114311   0.185   7.938   6.848
 4179SOL    HW214312   0.130   7.879   6.976
 4180SOL     OW14313   6.058  10.993   9.912
 4180SOL    HW114314   6.102  10.928   9.857
 4180SOL    HW214315   6.090  11.078   9.880
 4181SOL     OW14316  11.422   9.300   1.938
 4181SOL    HW114317  11.463   9.215   1.951
 4181SOL    HW214318  11.397   9.328   2.027
 4182SOL     OW14319   6.815   2.076   7.363
 4182SOL    HW114320   6.750   2.026   7.412
 4182SOL    HW214321   6.769   2.156   7.336
 4183SOL     OW14322   5.151  11.092   2.981
 4183SOL    HW114323   5.158  11.181   2.946
 4183SOL    HW214324   5.137  11.037   2.904
 4184SOL     OW14325   6.679  12.036   1.734
 4184SOL    HW114326   6.644  11.948   1.750
 4184SOL    HW214327   6.685  12.042   1.639
 4185SOL     OW14328   6.312   5.186  10.517
 4185SOL    HW114329   6.289   5.275  10.542
 4185SOL    HW214330   6.374   5.157  10.584
 4186SOL     OW14331  14.565   1.240  13.461
 4186SOL    HW114332  14.509   1.279  13.393
 4186SOL    HW214333  14.505   1.220  13.533
 4187SOL     OW14334   4.962   2.305   7.655
 4187SOL    HW114335   5.040   2.300   7.600
 4187SOL    HW214336   4.957   2.397   7.682
 4188SOL     OW14337   2.071   5.147   1.629
 4188SOL    HW114338   2.011   5.217   1.653
 4188SOL    HW214339   2.158   5.183   1.646
 4189SOL     OW14340  14.462  12.331   3.201
 4189SOL    HW114341  14.403  12.383   3.147
 4189SOL    HW214342  14.525  12.395   3.235
 4190SOL     OW14343   1.432   1.768   9.099
 4190SOL    HW114344   1.510   1.811   9.134
 4190SOL    HW214345   1.376   1.840   9.069
 4191SOL     OW14346   2.394  12.607   2.389
 4191SOL    HW114347   2.325  12.541   2.389
 4191SOL    HW214348   2.362  12.675   2.330
 4192SOL     OW14349   6.121   4.418   1.643
 4192SOL    HW114350   6.025   4.412   1.636
 4192SOL    HW214351   6.139   4.403   1.735
 4193SOL     OW14352   6.405  14.164   7.167
 4193SOL    HW114353   6.351  14.149   7.244
 4193SOL    HW214354   6.378  14.096   7.105
 4194SOL     OW14355   5.819  12.037  13.853
 4194SOL    HW114356   5.891  11.976  13.868
 4194SOL    HW214357   5.747  12.004  13.907
 4195SOL     OW14358   7.973   4.857  10.629
 4195SOL    HW114359   7.971   4.842  10.534
 4195SOL    HW214360   8.037   4.927  10.640
 4196SOL     OW14361   3.177  14.254   7.195
 4196SOL    HW114362   3.140  14.257   7.284
 4196SOL    HW214363   3.172  14.345   7.164
 4197SOL     OW14364   0.575   0.090   3.323
 4197SOL    HW114365   0.585   0.180   3.354
 4197SOL    HW214366   0.618   0.088   3.238
 4198SOL     OW14367   2.563  14.388   4.429
 4198SOL    HW114368   2.544  14.296   4.447
 4198SOL    HW214369   2.644  14.387   4.378
 4199SOL     OW14370   1.297  10.728  12.021
 4199SOL    HW114371   1.372  10.788  12.023
 4199SOL    HW214372   1.226  10.779  12.059
 4200SOL     OW14373   6.961  12.223   9.618
 4200SOL    HW114374   6.942  12.134   9.591
 4200SOL    HW214375   6.926  12.230   9.707
 4201SOL     OW14376  11.404   2.662  10.971
 4201SOL    HW114377  11.432   2.622  11.053
 4201SOL    HW214378  11.362   2.744  10.997
 4202SOL     OW14379   4.580  12.746  11.447
 4202SOL    HW114380   4.545  12.665  11.484
 4202SOL    HW214381   4.627  12.787  11.519
 4203SOL     OW14382  14.422  12.757   3.644
 4203SOL    HW114383  14.507  12.765   3.688
 4203SOL    HW214384  14.384  12.677   3.681
 4204SOL     OW14385   9.797   7.313  11.225
 4204SOL    HW114386   9.883   7.281  11.198
 4204SOL    HW214387   9.800   7.407  11.206
 4205SOL     OW14388   3.555  10.567   0.457
 4205SOL    HW114389   3.642  10.584   0.493
 4205SOL    HW214390   3.544  10.632   0.388
 4206SOL     OW14391   0.804  14.573   1.206
 4206SOL    HW114392   0.857  14.576   1.127
 4206SOL    HW214393   0.723  14.619   1.183
 4207SOL     OW14394   4.729   7.170  12.173
 4207SOL    HW114395   4.808   7.224  12.175
 4207SOL    HW214396   4.752   7.092  12.224
 4208SOL     OW14397  14.357  10.969  12.703
 4208SOL    HW114398  14.358  11.025  12.625
 4208SOL    HW214399  14.356  10.880  12.668
 4209SOL     OW14400   3.164  11.608   5.490
 4209SOL    HW114401   3.205  11.640   5.570
 4209SOL    HW214402   3.144  11.687   5.440
 4210SOL     OW14403   1.738   0.443   1.961
 4210SOL    HW114404   1.666   0.466   2.019
 4210SOL    HW214405   1.705   0.370   1.908
 4211SOL     OW14406  10.582   9.676   2.469
 4211SOL    HW114407  10.542   9.724   2.396
 4211SOL    HW214408  10.516   9.679   2.538
 4212SOL     OW14409  10.233   8.947   2.598
 4212SOL    HW114410  10.198   8.911   2.517
 4212SOL    HW214411  10.291   9.019   2.571
 4213SOL     OW14412   5.408   5.831   2.132
 4213SOL    HW114413   5.323   5.870   2.112
 4213SOL    HW214414   5.396   5.789   2.217
 4214SOL     OW14415   2.602   8.940   9.766
 4214SOL    HW114416   2.608   9.030   9.733
 4214SOL    HW214417   2.666   8.936   9.837
 4215SOL     OW14418  12.350   2.940  13.887
 4215SOL    HW114419  12.317   2.885  13.959
 4215SOL    HW214420  12.289   3.014  13.885
 4216SOL     OW14421   5.480  12.532  12.946
 4216SOL    HW114422   5.399  12.489  12.920
 4216SOL    HW214423   5.549  12.476  12.909
 4217SOL     OW14424   6.863   5.855   7.066
 4217SOL    HW114425   6.811   5.930   7.093
 4217SOL    HW214426   6.801   5.800   7.017
 4218SOL     OW14427   4.697  13.056   1.967
 4218SOL    HW114428   4.611  13.076   2.007
 4218SOL    HW214429   4.749  13.023   2.040
 4219SOL     OW14430   7.996   7.507   6.432
 4219SOL    HW114431   8.016   7.601   6.435
 4219SOL    HW214432   7.931   7.498   6.363
 4220SOL     OW14433   1.005  14.712   2.936
 4220SOL    HW114434   0.965  14.626   2.928
 4220SOL    HW214435   1.052  14.725   2.854
 4221SOL     OW14436  14.083   2.272  10.819
 4221SOL    HW114437  14.074   2.343  10.756
 4221SOL    HW214438  14.176   2.252  10.822
 4222SOL     OW14439   4.345   1.262   8.515
 4222SOL    HW114440   4.342   1.202   8.590
 4222SOL    HW214441   4.404   1.333   8.544
 4223SOL     OW14442  14.159  13.283  11.804
 4223SOL    HW114443  14.193  13.308  11.890
 4223SOL    HW214444  14.139  13.190  11.813
 4224SOL     OW14445  13.386   5.691   0.323
 4224SOL    HW114446  13.400   5.597   0.313
 4224SOL    HW214447  13.391   5.707   0.417
 4225SOL     OW14448  12.824   8.136  11.308
 4225SOL    HW114449  12.863   8.170  11.227
 4225SOL    HW214450  12.871   8.180  11.378
 4226SOL     OW14451  10.683  10.959   0.009
 4226SOL    HW114452  10.653  10.984  14.803
 4226SOL    HW214453  10.778  10.947  14.880
 4227SOL     OW14454   9.256   4.517   6.396
 4227SOL    HW114455   9.187   4.476   6.449
 4227SOL    HW214456   9.316   4.446   6.376
 4228SOL     OW14457  12.774  11.211   4.868
 4228SOL    HW114458  12.807  11.300   4.864
 4228SOL    HW214459  12.818  11.172   4.944
 4229SOL     OW14460   1.503   4.335   3.940
 4229SOL    HW114461   1.451   4.366   3.866
 4229SOL    HW214462   1.460   4.373   4.017
 4230SOL     OW14463  14.041   6.627   3.851
 4230SOL    HW114464  13.949   6.643   3.829
 4230SOL    HW214465  14.087   6.634   3.767
 4231SOL     OW14466   2.062   3.113  14.458
 4231SOL    HW114467   1.998   3.136  14.525
 4231SOL    HW214468   2.134   3.073  14.507
 4232SOL     OW14469   5.727   3.978   4.167
 4232SOL    HW114470   5.727   3.883   4.168
 4232SOL    HW214471   5.746   4.001   4.076
 4233SOL     OW14472   0.722   8.212   3.754
 4233SOL    HW114473   0.667   8.168   3.690
 4233SOL    HW214474   0.766   8.282   3.706
 4234SOL     OW14475   6.674  10.652  12.433
 4234SOL    HW114476   6.600  10.711  12.446
 4234SOL    HW214477   6.745  10.710  12.405
 4235SOL     OW14478  12.163   7.097   6.607
 4235SOL    HW114479  12.117   7.157   6.548
 4235SOL    HW214480  12.223   7.153   6.656
 4236SOL     OW14481  12.658   2.372   0.971
 4236SOL    HW114482  12.680   2.413   0.887
 4236SOL    HW214483  12.677   2.279   0.958
 4237SOL     OW14484  13.721   4.922   2.747
 4237SOL    HW114485  13.777   5.000   2.749
 4237SOL    HW214486  13.767   4.861   2.690
 4238SOL     OW14487  14.165   9.576   0.507
 4238SOL    HW114488  14.114   9.552   0.585
 4238SOL    HW214489  14.184   9.669   0.519
 4239SOL     OW14490   5.396   2.478   9.131
 4239SOL    HW114491   5.388   2.559   9.182
 4239SOL    HW214492   5.308   2.440   9.132
 4240SOL     OW14493  11.426   6.696   9.615
 4240SOL    HW114494  11.408   6.621   9.671
 4240SOL    HW214495  11.379   6.678   9.534
 4241SOL     OW14496   6.290  14.180   6.232
 4241SOL    HW114497   6.286  14.197   6.326
 4241SOL    HW214498   6.202  14.201   6.201
 4242SOL     OW14499   7.524   7.110   7.093
 4242SOL    HW114500   7.591   7.057   7.049
 4242SOL    HW214501   7.550   7.109   7.185
 4243SOL     OW14502   0.615   0.681  14.565
 4243SOL    HW114503   0.680   0.714  14.504
 4243SOL    HW214504   0.606   0.588  14.543
 4244SOL     OW14505   2.850   5.806  10.537
 4244SOL    HW114506   2.941   5.835  10.544
 4244SOL    HW214507   2.801   5.885  10.518
 4245SOL     OW14508   0.525   0.244  13.179
 4245SOL    HW114509   0.458   0.291  13.131
 4245SOL    HW214510   0.515   0.273  13.270
 4246SOL     OW14511   1.283   2.901   5.861
 4246SOL    HW114512   1.209   2.854   5.899
 4246SOL    HW214513   1.244   2.967   5.804
 4247SOL     OW14514  11.774   2.691   3.004
 4247SOL    HW114515  11.696   2.729   3.045
 4247SOL    HW214516  11.806   2.759   2.945
 4248SOL     OW14517  12.013   9.951   6.857
 4248SOL    HW114518  11.996   9.872   6.805
 4248SOL    HW214519  12.062   9.920   6.933
 4249SOL     OW14520   3.254   1.398   6.448
 4249SOL    HW114521   3.172   1.360   6.479
 4249SOL    HW214522   3.276   1.347   6.370
 4250SOL     OW14523  10.788  12.094   1.480
 4250SOL    HW114524  10.749  12.111   1.566
 4250SOL    HW214525  10.882  12.087   1.497
 4251SOL     OW14526   6.371   9.928   8.961
 4251SOL    HW114527   6.383   9.861   9.028
 4251SOL    HW214528   6.423   9.897   8.887
 4252SOL     OW14529  10.340   0.447   6.022
 4252SOL    HW114530  10.274   0.404   5.967
 4252SOL    HW214531  10.306   0.438   6.111
 4253SOL     OW14532   3.003   6.545  10.361
 4253SOL    HW114533   2.931   6.577  10.416
 4253SOL    HW214534   3.050   6.624  10.335
 4254SOL     OW14535  11.360  10.761  12.524
 4254SOL    HW114536  11.295  10.811  12.475
 4254SOL    HW214537  11.420  10.828  12.559
 4255SOL     OW14538  13.591   1.181  14.546
 4255SOL    HW114539  13.611   1.162  14.638
 4255SOL    HW214540  13.496   1.192  14.544
 4256SOL     OW14541   4.809  10.234   6.090
 4256SOL    HW114542   4.754  10.182   6.031
 4256SOL    HW214543   4.883  10.261   6.036
 4257SOL     OW14544   8.818   4.878   9.386
 4257SOL    HW114545   8.893   4.834   9.427
 4257SOL    HW214546   8.849   4.966   9.366
 4258SOL     OW14547  10.452  12.902  12.668
 4258SOL    HW114548  10.544  12.929  12.676
 4258SOL    HW214549  10.430  12.921  12.576
 4259SOL     OW14550   8.483   3.598   7.219
 4259SOL    HW114551   8.547   3.621   7.287
 4259SOL    HW214552   8.456   3.509   7.240
 4260SOL     OW14553  12.508  10.237   7.288
 4260SOL    HW114554  12.475  10.151   7.313
 4260SOL    HW214555  12.488  10.243   7.194
 4261SOL     OW14556   9.914   5.154   6.152
 4261SOL    HW114557   9.836   5.168   6.097
 4261SOL    HW214558   9.913   5.060   6.170
 4262SOL     OW14559   2.547   8.380   1.099
 4262SOL    HW114560   2.470   8.389   1.044
 4262SOL    HW214561   2.512   8.380   1.189
 4263SOL     OW14562   4.205   5.083  11.389
 4263SOL    HW114563   4.240   5.136  11.317
 4263SOL    HW214564   4.262   5.006  11.392
 4264SOL     OW14565   4.887  11.431   0.956
 4264SOL    HW114566   4.897  11.423   1.051
 4264SOL    HW214567   4.976  11.417   0.922
 4265SOL     OW14568   2.705   4.030   1.248
 4265SOL    HW114569   2.659   3.961   1.296
 4265SOL    HW214570   2.791   4.035   1.291
 4266SOL     OW14571   1.531   5.482   2.486
 4266SOL    HW114572   1.452   5.520   2.525
 4266SOL    HW214573   1.603   5.533   2.523
 4267SOL     OW14574  11.458   4.507   8.700
 4267SOL    HW114575  11.491   4.504   8.610
 4267SOL    HW214576  11.442   4.415   8.722
 4268SOL     OW14577   0.180   5.907   8.569
 4268SOL    HW114578   0.102   5.928   8.518
 4268SOL    HW214579   0.147   5.860   8.646
 4269SOL     OW14580   1.410   7.120   9.625
 4269SOL    HW114581   1.364   7.038   9.607
 4269SOL    HW214582   1.489   7.115   9.571
 4270SOL     OW14583   9.032   7.270   0.822
 4270SOL    HW114584   9.091   7.248   0.750
 4270SOL    HW214585   9.044   7.364   0.835
 4271SOL     OW14586  12.775   5.772   3.028
 4271SOL    HW114587  12.866   5.799   3.017
 4271SOL    HW214588  12.773   5.730   3.114
 4272SOL     OW14589   4.463   2.469   1.568
 4272SOL    HW114590   4.531   2.443   1.505
 4272SOL    HW214591   4.384   2.481   1.515
 4273SOL     OW14592  10.593   5.818  13.055
 4273SOL    HW114593  10.523   5.794  13.116
 4273SOL    HW214594  10.595   5.914  13.058
 4274SOL     OW14595   3.007  12.659   9.557
 4274SOL    HW114596   3.060  12.596   9.606
 4274SOL    HW214597   2.917  12.637   9.580
 4275SOL     OW14598  11.794   5.912   8.470
 4275SOL    HW114599  11.777   5.841   8.532
 4275SOL    HW214600  11.804   5.869   8.386
 4276SOL     OW14601   3.880  11.242   5.055
 4276SOL    HW114602   3.861  11.336   5.053
 4276SOL    HW214603   3.807  11.205   5.105
 4277SOL     OW14604   0.843   3.312  11.485
 4277SOL    HW114605   0.761   3.345  11.449
 4277SOL    HW214606   0.858   3.365  11.564
 4278SOL     OW14607   3.388   9.991   3.108
 4278SOL    HW114608   3.401  10.081   3.137
 4278SOL    HW214609   3.449   9.979   3.035
 4279SOL     OW14610   1.036   0.938   7.296
 4279SOL    HW114611   1.101   0.997   7.335
 4279SOL    HW214612   0.999   0.988   7.223
 4280SOL     OW14613  11.768  14.777  10.004
 4280SOL    HW114614  11.757  14.844  10.071
 4280SOL    HW214615  11.680  14.762   9.970
 4281SOL     OW14616   6.125  14.294  14.193
 4281SOL    HW114617   6.047  14.263  14.238
 4281SOL    HW214618   6.107  14.280  14.100
 4282SOL     OW14619  11.175  14.614   5.508
 4282SOL    HW114620  11.263  14.650   5.522
 4282SOL    HW214621  11.190  14.529   5.467
 4283SOL     OW14622  13.273   1.941   4.547
 4283SOL    HW114623  13.308   2.030   4.548
 4283SOL    HW214624  13.214   1.939   4.472
 4284SOL     OW14625   6.742   7.687   5.826
 4284SOL    HW114626   6.685   7.671   5.752
 4284SOL    HW214627   6.827   7.651   5.799
 4285SOL     OW14628   4.465   6.936   2.192
 4285SOL    HW114629   4.484   6.842   2.192
 4285SOL    HW214630   4.459   6.960   2.284
 4286SOL     OW14631   5.105  12.072  12.606
 4286SOL    HW114632   5.065  12.134  12.667
 4286SOL    HW214633   5.072  11.986  12.634
 4287SOL     OW14634  11.326  10.003   5.292
 4287SOL    HW114635  11.236  10.034   5.283
 4287SOL    HW214636  11.322   9.911   5.266
 4288SOL     OW14637  12.176   0.044   6.947
 4288SOL    HW114638  12.084   0.060   6.968
 4288SOL    HW214639  12.223   0.068   7.027
 4289SOL     OW14640   2.768  12.815   0.066
 4289SOL    HW114641   2.823  12.868   0.008
 4289SOL    HW214642   2.824  12.797   0.141
 4290SOL     OW14643  14.316   2.998   3.639
 4290SOL    HW114644  14.355   3.047   3.567
 4290SOL    HW214645  14.227   2.980   3.612
 4291SOL     OW14646   3.078   4.267   5.755
 4291SOL    HW114647   3.003   4.301   5.707
 4291SOL    HW214648   3.101   4.186   5.710
 4292SOL     OW14649   6.879   6.418  14.326
 4292SOL    HW114650   6.832   6.357  14.383
 4292SOL    HW214651   6.970   6.411  14.354
 4293SOL     OW14652  11.969  12.538   8.124
 4293SOL    HW114653  12.060  12.531   8.095
 4293SOL    HW214654  11.967  12.616   8.179
 4294SOL     OW14655  12.325   7.492   1.439
 4294SOL    HW114656  12.353   7.462   1.353
 4294SOL    HW214657  12.236   7.457   1.448
 4295SOL     OW14658   8.111  12.244  10.693
 4295SOL    HW114659   8.192  12.195  10.707
 4295SOL    HW214660   8.129  12.300  10.617
 4296SOL     OW14661  12.901   6.734   4.036
 4296SOL    HW114662  12.828   6.700   3.984
 4296SOL    HW214663  12.945   6.797   3.978
 4297SOL     OW14664   9.830  12.221   6.561
 4297SOL    HW114665   9.827  12.159   6.634
 4297SOL    HW214666   9.756  12.279   6.576
 4298SOL     OW14667  11.465   3.238   9.049
 4298SOL    HW114668  11.459   3.322   9.095
 4298SOL    HW214669  11.419   3.176   9.105
 4299SOL     OW14670   2.719  11.728   3.315
 4299SOL    HW114671   2.750  11.745   3.404
 4299SOL    HW214672   2.624  11.732   3.322
 4300SOL     OW14673  14.648   8.249  11.574
 4300SOL    HW114674  14.564   8.213  11.549
 4300SOL    HW214675  14.688   8.279  11.492
 4301SOL     OW14676   1.536   0.676   3.464
 4301SOL    HW114677   1.605   0.691   3.529
 4301SOL    HW214678   1.543   0.750   3.404
 4302SOL     OW14679   7.207   3.942   8.427
 4302SOL    HW114680   7.185   4.005   8.358
 4302SOL    HW214681   7.280   3.891   8.391
 4303SOL     OW14682   6.631   0.459   8.457
 4303SOL    HW114683   6.714   0.424   8.489
 4303SOL    HW214684   6.572   0.383   8.458
 4304SOL     OW14685   1.671  10.245   8.931
 4304SOL    HW114686   1.730  10.247   8.856
 4304SOL    HW214687   1.612  10.172   8.914
 4305SOL     OW14688   4.246   9.496   7.642
 4305SOL    HW114689   4.301   9.420   7.625
 4305SOL    HW214690   4.302   9.555   7.693
 4306SOL     OW14691  14.338   7.198   8.941
 4306SOL    HW114692  14.244   7.180   8.949
 4306SOL    HW214693  14.343   7.272   8.880
 4307SOL     OW14694  11.635   5.694   6.790
 4307SOL    HW114695  11.728   5.708   6.774
 4307SOL    HW214696  11.610   5.625   6.728
 4308SOL     OW14697   8.674   8.050  14.665
 4308SOL    HW114698   8.701   8.097  14.586
 4308SOL    HW214699   8.580   8.036  14.655
 4309SOL     OW14700   9.907  12.384   9.336
 4309SOL    HW114701   9.996  12.353   9.320
 4309SOL    HW214702   9.906  12.407   9.429
 4310SOL     OW14703  10.037   7.315   7.548
 4310SOL    HW114704  10.099   7.294   7.479
 4310SOL    HW214705   9.958   7.266   7.526
 4311SOL     OW14706   9.206  10.463   0.224
 4311SOL    HW114707   9.265  10.520   0.175
 4311SOL    HW214708   9.121  10.474   0.180
 4312SOL     OW14709   8.406  13.793  13.171
 4312SOL    HW114710   8.434  13.881  13.145
 4312SOL    HW214711   8.311  13.794  13.159
 4313SOL     OW14712   6.240  10.429   0.291
 4313SOL    HW114713   6.193  10.507   0.261
 4313SOL    HW214714   6.178  10.357   0.277
 4314SOL     OW14715   7.020   4.221   7.348
 4314SOL    HW114716   7.057   4.149   7.400
 4314SOL    HW214717   7.068   4.299   7.378
 4315SOL     OW14718  11.103   5.690   3.567
 4315SOL    HW114719  11.111   5.736   3.650
 4315SOL    HW214720  11.168   5.731   3.510
 4316SOL     OW14721   9.628   6.685  14.647
 4316SOL    HW114722   9.586   6.622  14.705
 4316SOL    HW214723   9.722   6.671  14.660
 4317SOL     OW14724  12.524   7.936   4.635
 4317SOL    HW114725  12.540   8.020   4.593
 4317SOL    HW214726  12.489   7.881   4.566
 4318SOL     OW14727  12.940   6.461   1.698
 4318SOL    HW114728  12.960   6.554   1.686
 4318SOL    HW214729  12.845   6.455   1.691
 4319SOL     OW14730   7.120   5.353  11.156
 4319SOL    HW114731   7.179   5.335  11.083
 4319SOL    HW214732   7.046   5.293  11.143
 4320SOL     OW14733   3.135   9.053   1.569
 4320SOL    HW114734   3.129   9.145   1.595
 4320SOL    HW214735   3.171   9.056   1.480
 4321SOL     OW14736   1.891   8.561   2.078
 4321SOL    HW114737   1.861   8.650   2.097
 4321SOL    HW214738   1.824   8.526   2.019
 4322SOL     OW14739  11.727   2.177   0.403
 4322SOL    HW114740  11.728   2.109   0.470
 4322SOL    HW214741  11.645   2.164   0.356
 4323SOL     OW14742   5.920   4.693  10.884
 4323SOL    HW114743   5.921   4.704  10.789
 4323SOL    HW214744   5.910   4.782  10.918
 4324SOL     OW14745  13.303   0.747  12.350
 4324SOL    HW114746  13.312   0.738  12.445
 4324SOL    HW214747  13.210   0.768  12.337
 4325SOL     OW14748  10.695   2.335   1.550
 4325SOL    HW114749  10.608   2.296   1.539
 4325SOL    HW214750  10.740   2.276   1.611
 4326SOL     OW14751   3.809  14.388  13.500
 4326SOL    HW114752   3.786  14.450  13.569
 4326SOL    HW214753   3.894  14.419  13.467
 4327SOL     OW14754   3.635   0.111  12.955
 4327SOL    HW114755   3.652   0.020  12.929
 4327SOL    HW214756   3.544   0.110  12.985
 4328SOL     OW14757   0.770  10.738   5.055
 4328SOL    HW114758   0.807  10.814   5.100
 4328SOL    HW214759   0.832  10.667   5.074
 4329SOL     OW14760   1.716   8.265   2.661
 4329SOL    HW114761   1.805   8.245   2.692
 4329SOL    HW214762   1.726   8.345   2.610
 4330SOL     OW14763   4.070   1.490   0.202
 4330SOL    HW114764   4.119   1.558   0.155
 4330SOL    HW214765   4.121   1.410   0.189
 4331SOL     OW14766   5.228   8.289   2.002
 4331SOL    HW114767   5.138   8.308   2.026
 4331SOL    HW214768   5.233   8.305   1.908
 4332SOL     OW14769   3.772   3.527   6.587
 4332SOL    HW114770   3.724   3.556   6.510
 4332SOL    HW214771   3.766   3.432   6.585
 4333SOL     OW14772   4.097   0.378   7.658
 4333SOL    HW114773   4.154   0.334   7.722
 4333SOL    HW214774   4.052   0.306   7.613
 4334SOL     OW14775   6.159  11.989  10.904
 4334SOL    HW114776   6.076  11.983  10.858
 4334SOL    HW214777   6.221  12.019  10.838
 4335SOL     OW14778   8.267   4.368  11.394
 4335SOL    HW114779   8.285   4.430  11.323
 4335SOL    HW214780   8.184   4.328  11.371
 4336SOL     OW14781  10.469   0.939   2.296
 4336SOL    HW114782  10.435   0.884   2.366
 4336SOL    HW214783  10.421   1.021   2.303
 4337SOL     OW14784   1.738   3.697  14.812
 4337SOL    HW114785   1.790   3.765  14.770
 4337SOL    HW214786   1.656   3.742  14.837
 4338SOL     OW14787   9.596   9.179   9.036
 4338SOL    HW114788   9.649   9.102   9.020
 4338SOL    HW214789   9.632   9.217   9.116
 4339SOL     OW14790   2.444  10.815  12.988
 4339SOL    HW114791   2.433  10.748  12.921
 4339SOL    HW214792   2.381  10.791  13.056
 4340SOL     OW14793   3.485   5.992   3.125
 4340SOL    HW114794   3.471   6.001   3.219
 4340SOL    HW214795   3.487   6.082   3.093
 4341SOL     OW14796  11.867   9.043   4.568
 4341SOL    HW114797  11.837   9.067   4.481
 4341SOL    HW214798  11.819   8.963   4.589
 4342SOL     OW14799  12.098   3.487   7.275
 4342SOL    HW114800  12.034   3.527   7.335
 4342SOL    HW214801  12.093   3.394   7.294
 4343SOL     OW14802   7.212   4.219   5.260
 4343SOL    HW114803   7.165   4.240   5.341
 4343SOL    HW214804   7.191   4.127   5.244
 4344SOL     OW14805  10.630  12.078  13.322
 4344SOL    HW114806  10.613  12.143  13.390
 4344SOL    HW214807  10.671  12.005  13.368
 4345SOL     OW14808   5.292  14.870   4.534
 4345SOL    HW114809   5.238  14.840   4.461
 4345SOL    HW214810   5.229   0.017   4.601
 4346SOL     OW14811   6.323   3.194   7.317
 4346SOL    HW114812   6.368   3.174   7.399
 4346SOL    HW214813   6.389   3.180   7.249
 4347SOL     OW14814   5.479  13.922   8.688
 4347SOL    HW114815   5.563  13.968   8.692
 4347SOL    HW214816   5.501  13.829   8.697
 4348SOL     OW14817   7.801   7.640  13.573
 4348SOL    HW114818   7.801   7.693  13.494
 4348SOL    HW214819   7.721   7.588  13.567
 4349SOL     OW14820  11.760   9.537  13.330
 4349SOL    HW114821  11.854   9.531  13.312
 4349SOL    HW214822  11.719   9.545  13.244
 4350SOL     OW14823   8.642   7.412   0.158
 4350SOL    HW114824   8.560   7.452   0.186
 4350SOL    HW214825   8.650   7.436   0.066
 4351SOL     OW14826   7.410   0.374   0.766
 4351SOL    HW114827   7.398   0.426   0.846
 4351SOL    HW214828   7.415   0.439   0.696
 4352SOL     OW14829   8.968   2.096   9.536
 4352SOL    HW114830   8.925   2.016   9.568
 4352SOL    HW214831   8.979   2.150   9.614
 4353SOL     OW14832   3.539  12.933   0.556
 4353SOL    HW114833   3.586  12.851   0.542
 4353SOL    HW214834   3.577  12.969   0.636
 4354SOL     OW14835   2.526   6.362   9.084
 4354SOL    HW114836   2.586   6.302   9.130
 4354SOL    HW214837   2.534   6.445   9.131
 4355SOL     OW14838   1.033  10.256   6.585
 4355SOL    HW114839   1.042  10.169   6.548
 4355SOL    HW214840   0.986  10.306   6.519
 4356SOL     OW14841   5.297  12.233   4.298
 4356SOL    HW114842   5.372  12.288   4.273
 4356SOL    HW214843   5.223  12.270   4.249
 4357SOL     OW14844  13.355   2.992   3.631
 4357SOL    HW114845  13.325   2.937   3.560
 4357SOL    HW214846  13.276   3.033   3.666
 4358SOL     OW14847  13.380   8.623   7.644
 4358SOL    HW114848  13.411   8.711   7.620
 4358SOL    HW214849  13.422   8.605   7.728
 4359SOL     OW14850   0.637  14.525   2.544
 4359SOL    HW114851   0.590  14.508   2.462
 4359SOL    HW214852   0.673  14.440   2.569
 4360SOL     OW14853  10.941  10.855   8.161
 4360SOL    HW114854  10.902  10.925   8.110
 4360SOL    HW214855  10.873  10.787   8.164
 4361SOL     OW14856  14.229   5.266   4.670
 4361SOL    HW114857  14.206   5.337   4.730
 4361SOL    HW214858  14.157   5.204   4.678
 4362SOL     OW14859   5.221   2.484   7.719
 4362SOL    HW114860   5.194   2.547   7.652
 4362SOL    HW214861   5.195   2.525   7.802
 4363SOL     OW14862  14.573  13.227   6.990
 4363SOL    HW114863  14.545  13.267   6.907
 4363SOL    HW214864  14.653  13.274   7.014
 4364SOL     OW14865   4.545   4.907   6.502
 4364SOL    HW114866   4.565   4.992   6.464
 4364SOL    HW214867   4.454   4.914   6.531
 4365SOL     OW14868   4.785  12.327  14.804
 4365SOL    HW114869   4.799  12.413  14.843
 4365SOL    HW214870   4.768  12.346  14.711
 4366SOL     OW14871   1.175  11.951  10.165
 4366SOL    HW114872   1.191  11.895  10.089
 4366SOL    HW214873   1.230  12.028  10.151
 4367SOL     OW14874   3.051  12.932   3.783
 4367SOL    HW114875   3.092  13.018   3.791
 4367SOL    HW214876   3.107  12.883   3.723
 4368SOL     OW14877   2.165   1.705   5.153
 4368SOL    HW114878   2.151   1.799   5.141
 4368SOL    HW214879   2.247   1.699   5.202
 4369SOL     OW14880   4.394  11.141   5.062
 4369SOL    HW114881   4.423  11.071   5.004
 4369SOL    HW214882   4.436  11.121   5.146
 4370SOL     OW14883   4.740   3.908   6.325
 4370SOL    HW114884   4.682   3.867   6.260
 4370SOL    HW214885   4.828   3.885   6.296
 4371SOL     OW14886   5.065   5.719  12.421
 4371SOL    HW114887   5.036   5.634  12.454
 4371SOL    HW214888   4.986   5.758  12.383
 4372SOL     OW14889  14.313   6.062   2.417
 4372SOL    HW114890  14.225   6.086   2.446
 4372SOL    HW214891  14.312   5.966   2.415
 4373SOL     OW14892   7.428   8.999   0.427
 4373SOL    HW114893   7.497   9.056   0.460
 4373SOL    HW214894   7.359   9.002   0.493
 4374SOL     OW14895  13.733   0.858   0.601
 4374SOL    HW114896  13.794   0.786   0.617
 4374SOL    HW214897  13.748   0.919   0.673
 4375SOL     OW14898   1.424   8.224  14.645
 4375SOL    HW114899   1.351   8.194  14.699
 4375SOL    HW214900   1.408   8.318  14.634
 4376SOL     OW14901  10.073   8.559   5.721
 4376SOL    HW114902   9.992   8.592   5.684
 4376SOL    HW214903  10.109   8.502   5.654
 4377SOL     OW14904   8.085  10.513   2.471
 4377SOL    HW114905   8.136  10.566   2.531
 4377SOL    HW214906   8.090  10.424   2.506
 4378SOL     OW14907  13.028  11.322  12.161
 4378SOL    HW114908  12.967  11.290  12.094
 4378SOL    HW214909  12.986  11.402  12.194
 4379SOL     OW14910   2.318  13.284   4.280
 4379SOL    HW114911   2.371  13.337   4.221
 4379SOL    HW214912   2.323  13.195   4.244
 4380SOL     OW14913   8.632   7.960   6.645
 4380SOL    HW114914   8.540   7.973   6.667
 4380SOL    HW214915   8.634   7.874   6.603
 4381SOL     OW14916   5.789   7.482   1.106
 4381SOL    HW114917   5.720   7.536   1.070
 4381SOL    HW214918   5.754   7.393   1.104
 4382SOL     OW14919   6.075  10.994   2.661
 4382SOL    HW114920   6.070  11.062   2.593
 4382SOL    HW214921   6.145  11.025   2.720
 4383SOL     OW14922   3.108  11.249   3.670
 4383SOL    HW114923   3.180  11.220   3.614
 4383SOL    HW214924   3.061  11.313   3.617
 4384SOL     OW14925   8.603   4.678  12.362
 4384SOL    HW114926   8.668   4.722  12.416
 4384SOL    HW214927   8.649   4.602  12.326
 4385SOL     OW14928  11.919   6.972  10.142
 4385SOL    HW114929  11.936   6.900  10.082
 4385SOL    HW214930  12.005   7.015  10.153
 4386SOL     OW14931  14.448   0.577   2.971
 4386SOL    HW114932  14.540   0.552   2.964
 4386SOL    HW214933  14.449   0.666   3.007
 4387SOL     OW14934   2.816   5.500   7.009
 4387SOL    HW114935   2.872   5.447   6.953
 4387SOL    HW214936   2.749   5.536   6.950
 4388SOL     OW14937  14.188   1.018   0.545
 4388SOL    HW114938  14.107   1.064   0.527
 4388SOL    HW214939  14.192   1.013   0.641
 4389SOL     OW14940  14.360   1.712   7.294
 4389SOL    HW114941  14.403   1.627   7.301
 4389SOL    HW214942  14.378   1.740   7.204
 4390SOL     OW14943   7.330  14.054   7.114
 4390SOL    HW114944   7.324  13.961   7.135
 4390SOL    HW214945   7.240  14.084   7.107
 4391SOL     OW14946  12.496   7.101  14.166
 4391SOL    HW114947  12.557   7.037  14.204
 4391SOL    HW214948  12.491   7.170  14.232
 4392SOL     OW14949   1.261  11.026   7.004
 4392SOL    HW114950   1.267  10.978   7.087
 4392SOL    HW214951   1.246  11.117   7.031
 4393SOL     OW14952  11.110   0.294  12.355
 4393SOL    HW114953  11.043   0.361  12.343
 4393SOL    HW214954  11.140   0.273  12.266
 4394SOL     OW14955   8.258   2.322  13.652
 4394SOL    HW114956   8.235   2.413  13.669
 4394SOL    HW214957   8.295   2.322  13.563
 4395SOL     OW14958  11.704  11.381   4.787
 4395SOL    HW114959  11.627  11.351   4.740
 4395SOL    HW214960  11.674  11.456   4.838
 4396SOL     OW14961  11.685  10.214   1.885
 4396SOL    HW114962  11.631  10.286   1.853
 4396SOL    HW214963  11.622  10.149   1.916
 4397SOL     OW14964  12.392   3.953   3.301
 4397SOL    HW114965  12.421   3.868   3.334
 4397SOL    HW214966  12.409   3.949   3.207
 4398SOL     OW14967   8.076  13.990  13.246
 4398SOL    HW114968   8.165  14.019  13.270
 4398SOL    HW214969   8.031  14.071  13.222
 4399SOL     OW14970   7.795  11.291   9.809
 4399SOL    HW114971   7.845  11.244   9.877
 4399SOL    HW214972   7.822  11.383   9.819
 4400SOL     OW14973   2.879   9.898   0.481
 4400SOL    HW114974   2.793   9.919   0.446
 4400SOL    HW214975   2.914   9.983   0.509
 4401SOL     OW14976   5.004   2.732   8.802
 4401SOL    HW114977   5.076   2.791   8.781
 4401SOL    HW214978   4.929   2.768   8.753
 4402SOL     OW14979  12.208   0.405   0.599
 4402SOL    HW114980  12.221   0.470   0.530
 4402SOL    HW214981  12.211   0.455   0.681
 4403SOL     OW14982  10.734   7.593  10.395
 4403SOL    HW114983  10.770   7.680  10.378
 4403SOL    HW214984  10.645   7.609  10.427
 4404SOL     OW14985   2.079   9.447  11.459
 4404SOL    HW114986   2.078   9.352  11.454
 4404SOL    HW214987   2.171   9.469  11.474
 4405SOL     OW14988  10.146   0.944  11.428
 4405SOL    HW114989  10.077   0.922  11.492
 4405SOL    HW214990  10.223   0.962  11.482
 4406SOL     OW14991  13.239  11.419   7.581
 4406SOL    HW114992  13.195  11.385   7.504
 4406SOL    HW214993  13.327  11.382   7.577
 4407SOL     OW14994  13.554  12.855   6.159
 4407SOL    HW114995  13.613  12.853   6.235
 4407SOL    HW214996  13.471  12.821   6.192
 4408SOL     OW14997   8.922  13.581   7.418
 4408SOL    HW114998   8.906  13.639   7.343
 4408SOL    HW214999   8.849  13.600   7.478
 4409SOL     OW15000   0.513   7.800   7.394
 4409SOL    HW115001   0.584   7.785   7.457
 4409SOL    HW215002   0.551   7.777   7.309
 4410SOL     OW15003  10.163   3.409   6.740
 4410SOL    HW115004  10.211   3.422   6.821
 4410SOL    HW215005  10.144   3.497   6.708
 4411SOL     OW15006   1.642  14.588   6.133
 4411SOL    HW115007   1.668  14.535   6.057
 4411SOL    HW215008   1.725  14.608   6.177
 4412SOL     OW15009   7.208   2.342   8.589
 4412SOL    HW115010   7.275   2.302   8.644
 4412SOL    HW215011   7.151   2.388   8.650
 4413SOL     OW15012   5.872   3.889  11.852
 4413SOL    HW115013   5.785   3.929  11.853
 4413SOL    HW215014   5.861   3.804  11.894
 4414SOL     OW15015   5.819  10.261  11.445
 4414SOL    HW115016   5.783  10.321  11.380
 4414SOL    HW215017   5.745  10.209  11.474
 4415SOL     OW15018  12.805   0.083  13.241
 4415SOL    HW115019  12.821   0.130  13.323
 4415SOL    HW215020  12.744   0.013  13.264
 4416SOL     OW15021  11.052  13.822   8.739
 4416SOL    HW115022  11.052  13.880   8.815
 4416SOL    HW215023  11.105  13.868   8.674
 4417SOL     OW15024   7.060   1.447   4.987
 4417SOL    HW115025   6.965   1.448   5.002
 4417SOL    HW215026   7.091   1.530   5.025
 4418SOL     OW15027   7.231   5.478   2.516
 4418SOL    HW115028   7.158   5.435   2.560
 4418SOL    HW215029   7.308   5.428   2.543
 4419SOL     OW15030   6.963   6.522   7.766
 4419SOL    HW115031   6.943   6.597   7.823
 4419SOL    HW215032   7.011   6.462   7.823
 4420SOL     OW15033  11.123  12.862   9.150
 4420SOL    HW115034  11.077  12.829   9.073
 4420SOL    HW215035  11.077  12.822   9.224
 4421SOL     OW15036   1.324  14.855  12.344
 4421SOL    HW115037   1.301  14.799  12.270
 4421SOL    HW215038   1.403  14.815  12.381
 4422SOL     OW15039   9.244   7.972   9.726
 4422SOL    HW115040   9.181   8.039   9.702
 4422SOL    HW215041   9.319   8.020   9.760
 4423SOL     OW15042  11.970  13.923   4.352
 4423SOL    HW115043  11.884  13.891   4.327
 4423SOL    HW215044  11.973  14.013   4.317
 4424SOL     OW15045  14.407   8.974   7.171
 4424SOL    HW115046  14.345   8.940   7.107
 4424SOL    HW215047  14.479   8.911   7.171
 4425SOL     OW15048   6.642   3.632  10.444
 4425SOL    HW115049   6.608   3.620  10.355
 4425SOL    HW215050   6.603   3.560  10.494
 4426SOL     OW15051   3.777  13.812   7.931
 4426SOL    HW115052   3.724  13.797   8.009
 4426SOL    HW215053   3.852  13.755   7.941
 4427SOL     OW15054   4.276   2.909   0.058
 4427SOL    HW115055   4.309   2.822   0.078
 4427SOL    HW215056   4.198   2.919   0.112
 4428SOL     OW15057  13.727   8.066  12.564
 4428SOL    HW115058  13.746   7.981  12.603
 4428SOL    HW215059  13.670   8.046  12.489
 4429SOL     OW15060   6.550   5.880  13.005
 4429SOL    HW115061   6.526   5.891  13.097
 4429SOL    HW215062   6.646   5.884  13.005
 4430SOL     OW15063   8.237   0.686   4.597
 4430SOL    HW115064   8.265   0.687   4.505
 4430SOL    HW215065   8.141   0.684   4.592
 4431SOL     OW15066   3.271  10.890   5.310
 4431SOL    HW115067   3.225  10.811   5.339
 4431SOL    HW215068   3.352  10.858   5.271
 4432SOL     OW15069   9.667   9.000   8.649
 4432SOL    HW115070   9.738   8.964   8.703
 4432SOL    HW215071   9.606   8.928   8.639
 4433SOL     OW15072   3.492   6.870   6.610
 4433SOL    HW115073   3.505   6.816   6.688
 4433SOL    HW215074   3.539   6.823   6.541
 4434SOL     OW15075   2.699   7.954  14.417
 4434SOL    HW115076   2.703   7.940  14.323
 4434SOL    HW215077   2.622   8.010  14.430
 4435SOL     OW15078   9.342  11.731   6.103
 4435SOL    HW115079   9.401  11.734   6.179
 4435SOL    HW215080   9.384  11.788   6.039
 4436SOL     OW15081  10.463  10.570   2.944
 4436SOL    HW115082  10.385  10.590   2.892
 4436SOL    HW215083  10.440  10.598   3.033
 4437SOL     OW15084   0.724  14.189   5.166
 4437SOL    HW115085   0.761  14.257   5.110
 4437SOL    HW215086   0.782  14.113   5.153
 4438SOL     OW15087  12.477  12.941   6.542
 4438SOL    HW115088  12.431  13.019   6.573
 4438SOL    HW215089  12.451  12.933   6.450
 4439SOL     OW15090   6.974   1.686  14.668
 4439SOL    HW115091   6.907   1.622  14.644
 4439SOL    HW215092   6.924   1.763  14.697
 4440SOL     OW15093   6.433  10.952   0.480
 4440SOL    HW115094   6.346  10.913   0.487
 4440SOL    HW215095   6.417  11.041   0.448
 4441SOL     OW15096   2.730   0.984   8.849
 4441SOL    HW115097   2.732   0.921   8.921
 4441SOL    HW215098   2.808   0.965   8.798
 4442SOL     OW15099   4.342  13.753   2.651
 4442SOL    HW115100   4.289  13.832   2.638
 4442SOL    HW215101   4.278  13.685   2.673
 4443SOL     OW15102  12.765  11.592   7.816
 4443SOL    HW115103  12.846  11.609   7.769
 4443SOL    HW215104  12.704  11.564   7.748
 4444SOL     OW15105   4.680   7.510   4.875
 4444SOL    HW115106   4.609   7.453   4.843
 4444SOL    HW215107   4.723   7.541   4.795
 4445SOL     OW15108   5.223   0.733   3.276
 4445SOL    HW115109   5.268   0.816   3.259
 4445SOL    HW215110   5.267   0.697   3.353
 4446SOL     OW15111   0.578   8.340  12.851
 4446SOL    HW115112   0.659   8.294  12.873
 4446SOL    HW215113   0.535   8.285  12.786
 4447SOL     OW15114   5.854   9.847   8.500
 4447SOL    HW115115   5.781   9.905   8.521
 4447SOL    HW215116   5.838   9.819   8.409
 4448SOL     OW15117   2.858   3.647   5.200
 4448SOL    HW115118   2.948   3.634   5.229
 4448SOL    HW215119   2.804   3.623   5.276
 4449SOL     OW15120  10.722  10.695   3.745
 4449SOL    HW115121  10.695  10.704   3.836
 4449SOL    HW215122  10.687  10.610   3.718
 4450SOL     OW15123   8.745   4.746   6.759
 4450SOL    HW115124   8.745   4.673   6.698
 4450SOL    HW215125   8.783   4.819   6.710
 4451SOL     OW15126   9.975   3.938   5.820
 4451SOL    HW115127  10.019   4.006   5.771
 4451SOL    HW215128   9.886   3.971   5.833
 4452SOL     OW15129  13.333   9.702  11.079
 4452SOL    HW115130  13.398   9.769  11.060
 4452SOL    HW215131  13.255   9.730  11.031
 4453SOL     OW15132   8.713   8.139   2.874
 4453SOL    HW115133   8.744   8.062   2.827
 4453SOL    HW215134   8.688   8.106   2.960
 4454SOL     OW15135   9.208  12.692   2.344
 4454SOL    HW115136   9.232  12.721   2.256
 4454SOL    HW215137   9.142  12.624   2.330
 4455SOL     OW15138   1.922   4.426   8.758
 4455SOL    HW115139   1.950   4.452   8.670
 4455SOL    HW215140   1.973   4.481   8.816
 4456SOL     OW15141   8.425  14.081   9.381
 4456SOL    HW115142   8.424  14.051   9.472
 4456SOL    HW215143   8.501  14.139   9.375
 4457SOL     OW15144  10.616   4.000   6.479
 4457SOL    HW115145  10.646   4.079   6.435
 4457SOL    HW215146  10.678   3.932   6.451
 4458SOL     OW15147  12.696  13.658   3.202
 4458SOL    HW115148  12.650  13.600   3.264
 4458SOL    HW215149  12.627  13.686   3.142
 4459SOL     OW15150   7.562   1.514   2.191
 4459SOL    HW115151   7.508   1.571   2.138
 4459SOL    HW215152   7.652   1.542   2.173
 4460SOL     OW15153  13.395   6.836  10.311
 4460SOL    HW115154  13.363   6.922  10.286
 4460SOL    HW215155  13.419   6.845  10.404
 4461SOL     OW15156   9.359   5.475   4.853
 4461SOL    HW115157   9.436   5.489   4.909
 4461SOL    HW215158   9.288   5.520   4.898
 4462SOL     OW15159   4.621  11.072   5.213
 4462SOL    HW115160   4.648  10.980   5.223
 4462SOL    HW215161   4.692  11.122   5.253
 4463SOL     OW15162   9.538  10.298   3.877
 4463SOL    HW115163   9.601  10.233   3.907
 4463SOL    HW215164   9.585  10.348   3.809
 4464SOL     OW15165   9.884   4.402   2.731
 4464SOL    HW115166   9.863   4.321   2.683
 4464SOL    HW215167   9.977   4.416   2.715
 4465SOL     OW15168  11.330   1.136   5.633
 4465SOL    HW115169  11.370   1.109   5.550
 4465SOL    HW215170  11.394   1.196   5.672
 4466SOL     OW15171   1.610   7.040   6.103
 4466SOL    HW115172   1.578   7.111   6.159
 4466SOL    HW215173   1.688   7.076   6.060
 4467SOL     OW15174   7.850   5.306  11.505
 4467SOL    HW115175   7.794   5.238  11.469
 4467SOL    HW215176   7.840   5.298  11.600
 4468SOL     OW15177   8.457   7.969   9.875
 4468SOL    HW115178   8.513   7.892   9.865
 4468SOL    HW215179   8.369   7.937   9.853
 4469SOL     OW15180   4.618   8.080   6.744
 4469SOL    HW115181   4.530   8.051   6.721
 4469SOL    HW215182   4.629   8.163   6.698
 4470SOL     OW15183  12.512  14.495   2.064
 4470SOL    HW115184  12.519  14.575   2.116
 4470SOL    HW215185  12.601  14.480   2.032
 4471SOL     OW15186   6.303  13.011  10.721
 4471SOL    HW115187   6.240  13.045  10.658
 4471SOL    HW215188   6.309  13.079  10.788
 4472SOL     OW15189   3.961  10.973   6.771
 4472SOL    HW115190   4.014  10.896   6.754
 4472SOL    HW215191   3.892  10.942   6.829
 4473SOL     OW15192   3.956  10.420   1.898
 4473SOL    HW115193   3.863  10.431   1.880
 4473SOL    HW215194   3.964  10.330   1.930
 4474SOL     OW15195  10.911  14.062   6.275
 4474SOL    HW115196  10.893  13.972   6.246
 4474SOL    HW215197  11.005  14.073   6.263
 4475SOL     OW15198  14.181   9.430   4.365
 4475SOL    HW115199  14.264   9.477   4.358
 4475SOL    HW215200  14.127   9.485   4.422
 4476SOL     OW15201  10.530   1.828   6.067
 4476SOL    HW115202  10.565   1.771   6.136
 4476SOL    HW215203  10.596   1.826   5.998
 4477SOL     OW15204   3.022   0.922  13.624
 4477SOL    HW115205   3.024   0.971  13.707
 4477SOL    HW215206   3.114   0.899  13.608
 4478SOL     OW15207   8.095   7.891  13.015
 4478SOL    HW115208   8.103   7.939  13.097
 4478SOL    HW215209   8.136   7.947  12.949
 4479SOL     OW15210   1.657   1.279   8.856
 4479SOL    HW115211   1.705   1.328   8.790
 4479SOL    HW215212   1.574   1.256   8.814
 4480SOL     OW15213   0.067   2.255   1.104
 4480SOL    HW115214   0.013   2.246   1.182
 4480SOL    HW215215   0.008   2.237   1.031
 4481SOL     OW15216  10.378  14.863   3.060
 4481SOL    HW115217  10.455  14.850   3.003
 4481SOL    HW215218  10.335   0.059   3.023
 4482SOL     OW15219  10.861  14.135  13.595
 4482SOL    HW115220  10.942  14.136  13.646
 4482SOL    HW215221  10.812  14.060  13.629
 4483SOL     OW15222  14.788   5.173   4.300
 4483SOL    HW115223  14.734   5.150   4.376
 4483SOL    HW215224  14.783   5.096   4.243
 4484SOL     OW15225   7.920  11.683   3.835
 4484SOL    HW115226   7.996  11.731   3.801
 4484SOL    HW215227   7.907  11.718   3.923
 4485SOL     OW15228   7.654   4.813   1.463
 4485SOL    HW115229   7.731   4.815   1.406
 4485SOL    HW215230   7.623   4.723   1.459
 4486SOL     OW15231   1.825   8.438  10.438
 4486SOL    HW115232   1.791   8.361  10.484
 4486SOL    HW215233   1.900   8.406  10.388
 4487SOL     OW15234  10.710   5.494   4.509
 4487SOL    HW115235  10.771   5.450   4.569
 4487SOL    HW215236  10.755   5.576   4.486
 4488SOL     OW15237   1.912  13.406   4.552
 4488SOL    HW115238   1.986  13.371   4.603
 4488SOL    HW215239   1.952  13.453   4.479
 4489SOL     OW15240   3.867  10.169   6.712
 4489SOL    HW115241   3.849  10.107   6.641
 4489SOL    HW215242   3.917  10.240   6.671
 4490SOL     OW15243   4.193  13.663   1.360
 4490SOL    HW115244   4.148  13.745   1.338
 4490SOL    HW215245   4.123  13.606   1.392
 4491SOL     OW15246   8.470   7.192   6.203
 4491SOL    HW115247   8.405   7.135   6.245
 4491SOL    HW215248   8.421   7.271   6.181
 4492SOL     OW15249  14.273  13.936   3.850
 4492SOL    HW115250  14.304  13.951   3.939
 4492SOL    HW215251  14.335  13.873   3.813
 4493SOL     OW15252  12.325   1.433   0.492
 4493SOL    HW115253  12.383   1.502   0.460
 4493SOL    HW215254  12.361   1.410   0.578
 4494SOL     OW15255  10.950  13.879  13.112
 4494SOL    HW115256  11.037  13.846  13.134
 4494SOL    HW215257  10.959  13.913  13.023
 4495SOL     OW15258  10.517   7.240   7.946
 4495SOL    HW115259  10.496   7.191   7.867
 4495SOL    HW215260  10.507   7.177   8.017
 4496SOL     OW15261   9.668  14.810  11.642
 4496SOL    HW115262   9.721  14.790  11.720
 4496SOL    HW215263   9.726  14.862  11.586
 4497SOL     OW15264   8.151  12.138   9.706
 4497SOL    HW115265   8.143  12.176   9.794
 4497SOL    HW215266   8.240  12.104   9.703
 4498SOL     OW15267   2.035   4.615   1.988
 4498SOL    HW115268   2.085   4.587   1.911
 4498SOL    HW215269   2.084   4.580   2.062
 4499SOL     OW15270  14.683  13.387  13.289
 4499SOL    HW115271  14.654  13.299  13.267
 4499SOL    HW215272  14.742  13.375  13.363
 4500SOL     OW15273   4.662   5.752   5.917
 4500SOL    HW115274   4.688   5.781   6.004
 4500SOL    HW215275   4.688   5.660   5.914
 4501SOL     OW15276  12.139   0.232   8.771
 4501SOL    HW115277  12.154   0.307   8.830
 4501SOL    HW215278  12.157   0.267   8.684
 4502SOL     OW15279   5.669  12.907   7.743
 4502SOL    HW115280   5.685  12.970   7.674
 4502SOL    HW215281   5.757  12.878   7.770
 4503SOL     OW15282   8.267   8.575   1.583
 4503SOL    HW115283   8.213   8.504   1.549
 4503SOL    HW215284   8.330   8.593   1.513
 4504SOL     OW15285   5.679   7.358  11.167
 4504SOL    HW115286   5.679   7.396  11.255
 4504SOL    HW215287   5.749   7.404  11.120
 4505SOL     OW15288   8.514  13.163   0.598
 4505SOL    HW115289   8.583  13.194   0.656
 4505SOL    HW215290   8.559  13.133   0.519
 4506SOL     OW15291   5.067  11.447  11.642
 4506SOL    HW115292   5.051  11.355  11.662
 4506SOL    HW215293   4.979  11.486  11.638
 4507SOL     OW15294   3.574  14.368   3.979
 4507SOL    HW115295   3.593  14.342   4.069
 4507SOL    HW215296   3.653  14.413   3.949
 4508SOL     OW15297  14.591  13.433  13.777
 4508SOL    HW115298  14.631  13.433  13.864
 4508SOL    HW215299  14.582  13.340  13.755
 4509SOL     OW15300  12.407   9.725  10.511
 4509SOL    HW115301  12.462   9.654  10.542
 4509SOL    HW215302  12.318   9.690  10.513
 4510SOL     OW15303   8.521  13.380   0.293
 4510SOL    HW115304   8.563  13.435   0.227
 4510SOL    HW215305   8.506  13.439   0.367
 4511SOL     OW15306   4.676  10.813   4.152
 4511SOL    HW115307   4.614  10.745   4.125
 4511SOL    HW215308   4.727  10.830   4.073
 4512SOL     OW15309  11.677   3.862   5.460
 4512SOL    HW115310  11.722   3.778   5.467
 4512SOL    HW215311  11.743   3.926   5.488
 4513SOL     OW15312   8.806  12.757   2.713
 4513SOL    HW115313   8.807  12.664   2.733
 4513SOL    HW215314   8.788  12.762   2.619
 4514SOL     OW15315  13.899   0.445   8.258
 4514SOL    HW115316  13.862   0.410   8.339
 4514SOL    HW215317  13.879   0.378   8.192
 4515SOL     OW15318   6.484   0.878   8.145
 4515SOL    HW115319   6.478   0.784   8.133
 4515SOL    HW215320   6.519   0.911   8.063
 4516SOL     OW15321   2.485  14.425   2.827
 4516SOL    HW115322   2.500  14.479   2.750
 4516SOL    HW215323   2.418  14.362   2.800
 4517SOL     OW15324   0.944  14.613   0.980
 4517SOL    HW115325   0.997  14.683   0.941
 4517SOL    HW215326   0.990  14.532   0.957
 4518SOL     OW15327   4.566   3.153   4.717
 4518SOL    HW115328   4.572   3.086   4.785
 4518SOL    HW215329   4.473   3.176   4.714
 4519SOL     OW15330   2.805   6.570   4.769
 4519SOL    HW115331   2.713   6.575   4.744
 4519SOL    HW215332   2.848   6.637   4.716
 4520SOL     OW15333   6.858   3.237  12.562
 4520SOL    HW115334   6.830   3.268  12.476
 4520SOL    HW215335   6.916   3.163  12.544
 4521SOL     OW15336   9.259   6.226  13.923
 4521SOL    HW115337   9.258   6.280  14.002
 4521SOL    HW215338   9.281   6.287  13.853
 4522SOL     OW15339   1.487   1.681  11.176
 4522SOL    HW115340   1.582   1.686  11.166
 4522SOL    HW215341   1.458   1.624  11.104
 4523SOL     OW15342  11.289   5.978   7.334
 4523SOL    HW115343  11.313   6.039   7.264
 4523SOL    HW215344  11.196   5.993   7.348
 4524SOL     OW15345   3.178   1.865   8.254
 4524SOL    HW115346   3.265   1.864   8.295
 4524SOL    HW215347   3.161   1.773   8.233
 4525SOL     OW15348   6.959   6.934   5.041
 4525SOL    HW115349   7.003   6.975   5.116
 4525SOL    HW215350   6.901   7.002   5.008
 4526SOL     OW15351  11.922   3.030   0.141
 4526SOL    HW115352  11.843   2.976   0.138
 4526SOL    HW215353  11.978   2.986   0.205
 4527SOL     OW15354  10.283   4.711  14.749
 4527SOL    HW115355  10.372   4.745  14.759
 4527SOL    HW215356  10.237   4.742  14.826
 4528SOL     OW15357   0.220   9.255  14.411
 4528SOL    HW115358   0.171   9.336  14.397
 4528SOL    HW215359   0.299   9.265  14.357
 4529SOL     OW15360   8.108   6.211  11.816
 4529SOL    HW115361   8.195   6.252  11.815
 4529SOL    HW215362   8.066   6.246  11.894
 4530SOL     OW15363  13.564   8.633   0.282
 4530SOL    HW115364  13.581   8.607   0.373
 4530SOL    HW215365  13.475   8.669   0.284
 4531SOL     OW15366  12.962   2.384   2.501
 4531SOL    HW115367  12.973   2.430   2.584
 4531SOL    HW215368  12.941   2.452   2.438
 4532SOL     OW15369  10.508   3.204   7.954
 4532SOL    HW115370  10.504   3.293   7.918
 4532SOL    HW215371  10.416   3.178   7.963
 4533SOL     OW15372   0.290  11.379   3.675
 4533SOL    HW115373   0.372  11.375   3.626
 4533SOL    HW215374   0.318  11.369   3.767
 4534SOL     OW15375  11.938   5.126   4.829
 4534SOL    HW115376  11.931   5.033   4.807
 4534SOL    HW215377  11.926   5.129   4.924
 4535SOL     OW15378   0.981   8.219   2.493
 4535SOL    HW115379   1.062   8.177   2.521
 4535SOL    HW215380   0.985   8.306   2.532
 4536SOL     OW15381  12.945  11.956  11.838
 4536SOL    HW115382  12.862  11.917  11.808
 4536SOL    HW215383  12.971  12.015  11.768
 4537SOL     OW15384   6.079  12.175   5.066
 4537SOL    HW115385   6.052  12.170   4.974
 4537SOL    HW215386   6.112  12.264   5.076
 4538SOL     OW15387  11.505   6.222   1.128
 4538SOL    HW115388  11.511   6.305   1.081
 4538SOL    HW215389  11.477   6.246   1.217
 4539SOL     OW15390   2.374  13.387   1.571
 4539SOL    HW115391   2.318  13.464   1.581
 4539SOL    HW215392   2.434  13.391   1.646
 4540SOL     OW15393   9.630   5.118   2.562
 4540SOL    HW115394   9.616   5.027   2.535
 4540SOL    HW215395   9.654   5.163   2.481
 4541SOL     OW15396   0.022  13.009   8.123
 4541SOL    HW115397  14.827  13.055   8.156
 4541SOL    HW215398  14.871  12.959   8.047
 4542SOL     OW15399   6.087   6.900  11.937
 4542SOL    HW115400   6.169   6.908  11.889
 4542SOL    HW215401   6.102   6.947  12.019
 4543SOL     OW15402  10.460  14.674  10.355
 4543SOL    HW115403  10.461  14.661  10.450
 4543SOL    HW215404  10.454  14.769  10.344
 4544SOL     OW15405   8.011  10.347   4.957
 4544SOL    HW115406   7.917  10.348   4.977
 4544SOL    HW215407   8.046  10.274   5.009
 4545SOL     OW15408   5.073   1.567   7.884
 4545SOL    HW115409   4.985   1.557   7.847
 4545SOL    HW215410   5.116   1.483   7.869
 4546SOL     OW15411  11.542   8.410   3.939
 4546SOL    HW115412  11.490   8.355   3.881
 4546SOL    HW215413  11.543   8.363   4.023
 4547SOL     OW15414   7.209   7.422   1.721
 4547SOL    HW115415   7.189   7.419   1.628
 4547SOL    HW215416   7.180   7.508   1.750
 4548SOL     OW15417   1.713   4.151   4.374
 4548SOL    HW115418   1.804   4.181   4.364
 4548SOL    HW215419   1.694   4.163   4.467
 4549SOL     OW15420  11.691  12.376   0.030
 4549SOL    HW115421  11.637  12.354  14.836
 4549SOL    HW215422  11.677  12.305   0.092
 4550SOL     OW15423  11.287  13.818   5.093
 4550SOL    HW115424  11.300  13.852   5.005
 4550SOL    HW215425  11.308  13.724   5.086
 4551SOL     OW15426   5.723   0.644   6.619
 4551SOL    HW115427   5.791   0.699   6.658
 4551SOL    HW215428   5.734   0.559   6.661
 4552SOL     OW15429  11.066   4.286  10.995
 4552SOL    HW115430  11.108   4.370  10.976
 4552SOL    HW215431  11.030   4.259  10.910
 4553SOL     OW15432   8.043   0.378  10.603
 4553SOL    HW115433   8.035   0.459  10.653
 4553SOL    HW215434   8.030   0.309  10.667
 4554SOL     OW15435  13.290  14.856  10.667
 4554SOL    HW115436  13.202  14.819  10.662
 4554SOL    HW215437  13.279   0.057  10.714
 4555SOL     OW15438  13.124   2.758  13.493
 4555SOL    HW115439  13.072   2.688  13.532
 4555SOL    HW215440  13.175   2.715  13.425
 4556SOL     OW15441  10.259   2.895  13.757
 4556SOL    HW115442  10.199   2.828  13.725
 4556SOL    HW215443  10.263   2.881  13.851
 4557SOL     OW15444  12.138   9.286   1.487
 4557SOL    HW115445  12.228   9.313   1.506
 4557SOL    HW215446  12.087   9.367   1.494
 4558SOL     OW15447   2.783   7.272   3.153
 4558SOL    HW115448   2.706   7.300   3.103
 4558SOL    HW215449   2.851   7.258   3.087
 4559SOL     OW15450   2.905   0.186  10.229
 4559SOL    HW115451   2.999   0.202  10.219
 4559SOL    HW215452   2.872   0.267  10.267
 4560SOL     OW15453  13.689   5.964  14.248
 4560SOL    HW115454  13.715   5.895  14.310
 4560SOL    HW215455  13.704   6.046  14.295
 4561SOL     OW15456   8.225   2.856   5.797
 4561SOL    HW115457   8.189   2.919   5.735
 4561SOL    HW215458   8.181   2.876   5.880
 4562SOL     OW15459   0.847  10.602  14.498
 4562SOL    HW115460   0.885  10.521  14.530
 4562SOL    HW215461   0.752  10.587  14.500
 4563SOL     OW15462   6.052  13.791  12.741
 4563SOL    HW115463   5.994  13.716  12.753
 4563SOL    HW215464   6.011  13.842  12.670
 4564SOL     OW15465  10.500   6.914   0.247
 4564SOL    HW115466  10.508   6.819   0.245
 4564SOL    HW215467  10.534   6.943   0.163
 4565SOL     OW15468   6.885  13.238   5.607
 4565SOL    HW115469   6.894  13.220   5.514
 4565SOL    HW215470   6.861  13.154   5.646
 4566SOL     OW15471   1.832   9.292   1.457
 4566SOL    HW115472   1.880   9.212   1.480
 4566SOL    HW215473   1.741   9.272   1.478
 4567SOL     OW15474   3.345   0.655  10.875
 4567SOL    HW115475   3.321   0.668  10.783
 4567SOL    HW215476   3.424   0.601  10.872
 4568SOL     OW15477   9.981  12.731   2.736
 4568SOL    HW115478  10.018  12.722   2.648
 4568SOL    HW215479   9.970  12.825   2.748
 4569SOL     OW15480   4.482   5.229  13.092
 4569SOL    HW115481   4.435   5.310  13.110
 4569SOL    HW215482   4.462   5.172  13.165
 4570SOL     OW15483   7.989   4.084  11.945
 4570SOL    HW115484   8.031   4.133  12.016
 4570SOL    HW215485   8.043   4.102  11.868
 4571SOL     OW15486   4.657   9.255  10.850
 4571SOL    HW115487   4.667   9.302  10.767
 4571SOL    HW215488   4.705   9.172  10.837
 4572SOL     OW15489   7.793   0.104   1.518
 4572SOL    HW115490   7.754   0.039   1.577
 4572SOL    HW215491   7.827   0.052   1.445
 4573SOL     OW15492  13.100  12.391   2.374
 4573SOL    HW115493  13.116  12.302   2.342
 4573SOL    HW215494  13.078  12.380   2.467
 4574SOL     OW15495   1.855   8.981   3.081
 4574SOL    HW115496   1.929   9.040   3.071
 4574SOL    HW215497   1.825   8.963   2.992
 4575SOL     OW15498   4.360   7.026   6.533
 4575SOL    HW115499   4.324   7.053   6.617
 4575SOL    HW215500   4.418   6.952   6.554
 4576SOL     OW15501   2.082  10.580   9.203
 4576SOL    HW115502   2.138  10.512   9.164
 4576SOL    HW215503   1.996  10.540   9.208
 4577SOL     OW15504   4.209   4.015  12.834
 4577SOL    HW115505   4.288   4.065  12.854
 4577SOL    HW215506   4.235   3.956  12.763
 4578SOL     OW15507  12.065  10.019   3.728
 4578SOL    HW115508  12.158  10.022   3.704
 4578SOL    HW215509  12.047  10.107   3.764
 4579SOL     OW15510   2.130   9.476   3.095
 4579SOL    HW115511   2.117   9.381   3.094
 4579SOL    HW215512   2.214   9.488   3.050
 4580SOL     OW15513   6.583  12.482  10.687
 4580SOL    HW115514   6.662  12.535  10.678
 4580SOL    HW215515   6.613  12.392  10.679
 4581SOL     OW15516  11.439  14.729  12.343
 4581SOL    HW115517  11.345  14.722  12.358
 4581SOL    HW215518  11.452  14.819  12.312
 4582SOL     OW15519   5.915   5.888  12.296
 4582SOL    HW115520   5.998   5.854  12.328
 4582SOL    HW215521   5.923   5.886  12.201
 4583SOL     OW15522   3.725   7.270   6.109
 4583SOL    HW115523   3.745   7.364   6.116
 4583SOL    HW215524   3.737   7.250   6.016
 4584SOL     OW15525   9.474  10.044   5.585
 4584SOL    HW115526   9.437  10.111   5.528
 4584SOL    HW215527   9.435   9.962   5.555
 4585SOL     OW15528  10.416   8.792  14.648
 4585SOL    HW115529  10.365   8.775  14.569
 4585SOL    HW215530  10.350   8.812  14.715
 4586SOL     OW15531   7.442   5.781   7.427
 4586SOL    HW115532   7.475   5.733   7.351
 4586SOL    HW215533   7.491   5.863   7.427
 4587SOL     OW15534   4.844   3.382  11.206
 4587SOL    HW115535   4.897   3.453  11.241
 4587SOL    HW215536   4.779   3.364  11.274
 4588SOL     OW15537   7.830   9.152   9.763
 4588SOL    HW115538   7.797   9.168   9.675
 4588SOL    HW215539   7.914   9.197   9.766
 4589SOL     OW15540   6.640  13.921  11.896
 4589SOL    HW115541   6.626  13.970  11.814
 4589SOL    HW215542   6.626  13.830  11.872
 4590SOL     OW15543   0.628   1.308  10.684
 4590SOL    HW115544   0.657   1.220  10.660
 4590SOL    HW215545   0.636   1.312  10.779
 4591SOL     OW15546   5.567   1.169  12.857
 4591SOL    HW115547   5.473   1.149  12.852
 4591SOL    HW215548   5.596   1.128  12.938
 4592SOL     OW15549   4.754   2.229  14.096
 4592SOL    HW115550   4.721   2.248  14.008
 4592SOL    HW215551   4.726   2.304  14.149
 4593SOL     OW15552   1.500   0.560   4.750
 4593SOL    HW115553   1.461   0.474   4.766
 4593SOL    HW215554   1.480   0.578   4.658
 4594SOL     OW15555   2.199   6.638   6.630
 4594SOL    HW115556   2.220   6.545   6.643
 4594SOL    HW215557   2.104   6.639   6.621
 4595SOL     OW15558   5.559   1.786  13.003
 4595SOL    HW115559   5.532   1.732  13.078
 4595SOL    HW215560   5.572   1.874  13.040
 4596SOL     OW15561  12.046   3.070   6.986
 4596SOL    HW115562  12.103   3.014   6.933
 4596SOL    HW215563  11.958   3.039   6.966
 4597SOL     OW15564  12.771   8.926   1.404
 4597SOL    HW115565  12.679   8.942   1.421
 4597SOL    HW215566  12.779   8.830   1.404
 4598SOL     OW15567  11.608   0.196   7.314
 4598SOL    HW115568  11.686   0.244   7.341
 4598SOL    HW215569  11.614   0.191   7.219
 4599SOL     OW15570   4.725  12.276   1.744
 4599SOL    HW115571   4.662  12.338   1.781
 4599SOL    HW215572   4.739  12.212   1.814
 4600SOL     OW15573  11.615   0.045   4.607
 4600SOL    HW115574  11.540   0.001   4.648
 4600SOL    HW215575  11.690  14.871   4.629
 4601SOL     OW15576  10.939   8.901  14.593
 4601SOL    HW115577  10.973   8.987  14.618
 4601SOL    HW215578  11.004   8.866  14.532
 4602SOL     OW15579  11.812  10.678   4.139
 4602SOL    HW115580  11.891  10.727   4.117
 4602SOL    HW215581  11.810  10.677   4.235
 4603SOL     OW15582   2.397   0.174  10.180
 4603SOL    HW115583   2.448   0.187  10.100
 4603SOL    HW215584   2.411   0.082  10.202
 4604SOL     OW15585  12.196   2.134   5.959
 4604SOL    HW115586  12.283   2.100   5.943
 4604SOL    HW215587  12.209   2.227   5.976
 4605SOL     OW15588   6.749   5.916  13.353
 4605SOL    HW115589   6.744   5.846  13.287
 4605SOL    HW215590   6.687   5.888  13.421
 4606SOL     OW15591   8.620   6.543   6.994
 4606SOL    HW115592   8.587   6.621   6.950
 4606SOL    HW215593   8.555   6.523   7.061
 4607SOL     OW15594   7.799   5.914   1.500
 4607SOL    HW115595   7.869   5.849   1.490
 4607SOL    HW215596   7.742   5.877   1.568
 4608SOL     OW15597   4.958   5.203  14.376
 4608SOL    HW115598   5.020   5.138  14.408
 4608SOL    HW215599   4.873   5.159  14.379
 4609SOL     OW15600   2.371   7.913   4.343
 4609SOL    HW115601   2.354   8.007   4.338
 4609SOL    HW215602   2.321   7.883   4.418
 4610SOL     OW15603   2.382   4.208   9.643
 4610SOL    HW115604   2.435   4.238   9.569
 4610SOL    HW215605   2.415   4.120   9.662
 4611SOL     OW15606   0.157   7.773   0.118
 4611SOL    HW115607   0.145   7.862   0.151
 4611SOL    HW215608   0.245   7.774   0.080
 4612SOL     OW15609  13.551  11.703   4.779
 4612SOL    HW115610  13.639  11.702   4.741
 4612SOL    HW215611  13.537  11.614   4.810
 4613SOL     OW15612   9.231   4.076   9.221
 4613SOL    HW115613   9.311   4.025   9.232
 4613SOL    HW215614   9.187   4.069   9.306
 4614SOL     OW15615  14.463   1.132   2.660
 4614SOL    HW115616  14.412   1.068   2.611
 4614SOL    HW215617  14.401   1.170   2.721
 4615SOL     OW15618  14.770   6.900   3.237
 4615SOL    HW115619  14.765   6.821   3.184
 4615SOL    HW215620  14.862   6.904   3.266
 4616SOL     OW15621   9.453   8.639  11.015
 4616SOL    HW115622   9.469   8.683  10.931
 4616SOL    HW215623   9.461   8.546  10.995
 4617SOL     OW15624  10.417   3.604   1.352
 4617SOL    HW115625  10.506   3.636   1.365
 4617SOL    HW215626  10.362   3.681   1.364
 4618SOL     OW15627  14.813   9.750  11.182
 4618SOL    HW115628  14.855   9.772  11.265
 4618SOL    HW215629  14.763   9.670  11.200
 4619SOL     OW15630   5.675   2.904   7.145
 4619SOL    HW115631   5.603   2.924   7.205
 4619SOL    HW215632   5.695   2.812   7.161
 4620SOL     OW15633   4.560   3.179  11.381
 4620SOL    HW115634   4.592   3.103  11.430
 4620SOL    HW215635   4.609   3.177  11.299
 4621SOL     OW15636   9.303  10.658   4.462
 4621SOL    HW115637   9.253  10.624   4.535
 4621SOL    HW215638   9.251  10.733   4.430
 4622SOL     OW15639  11.381   3.536  12.178
 4622SOL    HW115640  11.349   3.447  12.188
 4622SOL    HW215641  11.378   3.573  12.266
 4623SOL     OW15642  11.715  10.432  13.174
 4623SOL    HW115643  11.726  10.402  13.084
 4623SOL    HW215644  11.766  10.370  13.226
 4624SOL     OW15645   6.179   9.676   3.482
 4624SOL    HW115646   6.111   9.670   3.550
 4624SOL    HW215647   6.195   9.769   3.473
 4625SOL     OW15648   1.361   7.577  13.904
 4625SOL    HW115649   1.440   7.591  13.956
 4625SOL    HW215650   1.373   7.490  13.865
 4626SOL     OW15651   8.024   1.992   2.734
 4626SOL    HW115652   7.976   1.968   2.813
 4626SOL    HW215653   7.975   2.066   2.698
 4627SOL     OW15654  11.913   0.926   8.692
 4627SOL    HW115655  11.860   1.005   8.688
 4627SOL    HW215656  11.855   0.860   8.730
 4628SOL     OW15657  10.870   7.210   3.909
 4628SOL    HW115658  10.883   7.117   3.889
 4628SOL    HW215659  10.954   7.251   3.887
 4629SOL     OW15660  14.100   3.422  14.219
 4629SOL    HW115661  14.022   3.366  14.219
 4629SOL    HW215662  14.065   3.511  14.214
 4630SOL     OW15663  10.350  11.234  10.409
 4630SOL    HW115664  10.341  11.162  10.347
 4630SOL    HW215665  10.321  11.312  10.361
 4631SOL     OW15666  14.427  11.791   0.947
 4631SOL    HW115667  14.515  11.771   0.979
 4631SOL    HW215668  14.441  11.839   0.866
 4632SOL     OW15669  13.157  11.290   3.604
 4632SOL    HW115670  13.236  11.291   3.550
 4632SOL    HW215671  13.092  11.246   3.550
 4633SOL     OW15672   6.071  10.446   8.206
 4633SOL    HW115673   5.984  10.475   8.234
 4633SOL    HW215674   6.130  10.515   8.235
 4634SOL     OW15675   0.900   4.843   6.250
 4634SOL    HW115676   0.857   4.866   6.333
 4634SOL    HW215677   0.839   4.873   6.182
 4635SOL     OW15678   1.406  13.251   6.418
 4635SOL    HW115679   1.346  13.194   6.466
 4635SOL    HW215680   1.392  13.338   6.455
 4636SOL     OW15681   1.084  11.443   2.158
 4636SOL    HW115682   1.085  11.380   2.086
 4636SOL    HW215683   1.161  11.421   2.210
 4637SOL     OW15684  13.202   9.638  13.910
 4637SOL    HW115685  13.140   9.706  13.884
 4637SOL    HW215686  13.243   9.671  13.990
 4638SOL     OW15687  14.041   6.874   6.340
 4638SOL    HW115688  14.050   6.800   6.400
 4638SOL    HW215689  14.054   6.951   6.395
 4639SOL     OW15690  11.262   4.070   7.169
 4639SOL    HW115691  11.287   3.980   7.190
 4639SOL    HW215692  11.342   4.110   7.135
 4640SOL     OW15693   9.965  10.416   8.923
 4640SOL    HW115694  10.006  10.412   8.837
 4640SOL    HW215695   9.922  10.501   8.925
 4641SOL     OW15696   8.937   0.037   1.933
 4641SOL    HW115697   8.934  14.861   1.857
 4641SOL    HW215698   8.882   0.111   1.909
 4642SOL     OW15699   7.382   2.147   1.154
 4642SOL    HW115700   7.304   2.199   1.139
 4642SOL    HW215701   7.363   2.062   1.114
 4643SOL     OW15702   0.922   5.201  11.422
 4643SOL    HW115703   0.836   5.170  11.393
 4643SOL    HW215704   0.938   5.278  11.368
 4644SOL     OW15705  11.914   6.618   3.574
 4644SOL    HW115706  11.853   6.627   3.501
 4644SOL    HW215707  11.950   6.706   3.586
 4645SOL     OW15708   4.121   8.982   2.477
 4645SOL    HW115709   4.081   9.063   2.446
 4645SOL    HW215710   4.213   9.003   2.490
 4646SOL     OW15711  11.411  11.510   0.412
 4646SOL    HW115712  11.384  11.528   0.503
 4646SOL    HW215713  11.343  11.451   0.379
 4647SOL     OW15714   6.505  12.286  11.074
 4647SOL    HW115715   6.412  12.299  11.056
 4647SOL    HW215716   6.506  12.211  11.134
 4648SOL     OW15717  13.478   7.288   2.187
 4648SOL    HW115718  13.433   7.207   2.208
 4648SOL    HW215719  13.525   7.270   2.105
 4649SOL     OW15720   0.964   0.688  12.674
 4649SOL    HW115721   1.025   0.761  12.669
 4649SOL    HW215722   0.983   0.634  12.597
 4650SOL     OW15723  14.151   8.118   8.242
 4650SOL    HW115724  14.092   8.055   8.199
 4650SOL    HW215725  14.238   8.087   8.219
 4651SOL     OW15726  12.759   0.039   1.102
 4651SOL    HW115727  12.705   0.081   1.169
 4651SOL    HW215728  12.731  14.829   1.103
 4652SOL     OW15729   2.905  13.430   0.327
 4652SOL    HW115730   2.954  13.393   0.401
 4652SOL    HW215731   2.813  13.419   0.352
 4653SOL     OW15732   2.778   5.821   9.163
 4653SOL    HW115733   2.781   5.916   9.151
 4653SOL    HW215734   2.816   5.806   9.249
 4654SOL     OW15735   5.987   2.308   5.521
 4654SOL    HW115736   5.933   2.374   5.478
 4654SOL    HW215737   5.927   2.265   5.582
 4655SOL     OW15738  14.548   2.749  12.656
 4655SOL    HW115739  14.498   2.731  12.736
 4655SOL    HW215740  14.593   2.831  12.674
 4656SOL     OW15741  12.341   5.076   6.200
 4656SOL    HW115742  12.343   5.038   6.288
 4656SOL    HW215743  12.392   5.016   6.146
 4657SOL     OW15744   2.502  10.260   5.106
 4657SOL    HW115745   2.469  10.288   5.021
 4657SOL    HW215746   2.578  10.205   5.085
 4658SOL     OW15747   5.118   7.250   9.783
 4658SOL    HW115748   5.146   7.274   9.871
 4658SOL    HW215749   5.051   7.314   9.762
 4659SOL     OW15750   1.435  10.644   6.861
 4659SOL    HW115751   1.445  10.585   6.786
 4659SOL    HW215752   1.446  10.588   6.937
 4660SOL     OW15753   0.128   9.927   8.418
 4660SOL    HW115754   0.224   9.923   8.417
 4660SOL    HW215755   0.104   9.897   8.506
 4661SOL     OW15756  13.375   3.796   5.553
 4661SOL    HW115757  13.309   3.803   5.621
 4661SOL    HW215758  13.349   3.859   5.486
 4662SOL     OW15759  14.195  10.894   1.708
 4662SOL    HW115760  14.244  10.813   1.701
 4662SOL    HW215761  14.146  10.900   1.626
 4663SOL     OW15762  12.955   5.942   3.580
 4663SOL    HW115763  12.863   5.942   3.555
 4663SOL    HW215764  12.996   6.006   3.521
 4664SOL     OW15765   7.591   0.397   2.413
 4664SOL    HW115766   7.516   0.358   2.458
 4664SOL    HW215767   7.552   0.458   2.351
 4665SOL     OW15768  11.314   0.309   9.088
 4665SOL    HW115769  11.281   0.327   9.176
 4665SOL    HW215770  11.403   0.345   9.088
 4666SOL     OW15771   4.990   4.752  14.234
 4666SOL    HW115772   4.986   4.819  14.165
 4666SOL    HW215773   5.067   4.700  14.212
 4667SOL     OW15774   6.286   8.157  14.108
 4667SOL    HW115775   6.260   8.169  14.199
 4667SOL    HW215776   6.213   8.109  14.069
 4668SOL     OW15777  11.655  10.200  11.045
 4668SOL    HW115778  11.588  10.198  11.114
 4668SOL    HW215779  11.690  10.112  11.043
 4669SOL     OW15780  12.488  10.412   0.413
 4669SOL    HW115781  12.501  10.406   0.508
 4669SOL    HW215782  12.528  10.333   0.378
 4670SOL     OW15783  11.755   4.471   1.978
 4670SOL    HW115784  11.792   4.540   1.923
 4670SOL    HW215785  11.726   4.404   1.916
 4671SOL     OW15786   2.417   9.313  14.877
 4671SOL    HW115787   2.377   9.396   0.021
 4671SOL    HW215788   2.489   9.302   0.058
 4672SOL     OW15789   7.347   8.771  13.788
 4672SOL    HW115790   7.310   8.783  13.700
 4672SOL    HW215791   7.270   8.769  13.846
 4673SOL     OW15792  12.825   4.981   6.440
 4673SOL    HW115793  12.738   4.955   6.469
 4673SOL    HW215794  12.809   5.030   6.359
 4674SOL     OW15795   1.172  14.318  13.020
 4674SOL    HW115796   1.100  14.257  13.003
 4674SOL    HW215797   1.243  14.289  12.963
 4675SOL     OW15798   6.344  11.671   0.209
 4675SOL    HW115799   6.424  11.618   0.208
 4675SOL    HW215800   6.331  11.698   0.118
 4676SOL     OW15801   8.098   7.418   4.873
 4676SOL    HW115802   8.162   7.427   4.943
 4676SOL    HW215803   8.013   7.424   4.917
 4677SOL     OW15804   5.822   1.043   3.801
 4677SOL    HW115805   5.729   1.049   3.778
 4677SOL    HW215806   5.829   1.092   3.883
 4678SOL     OW15807  11.597  13.655   1.051
 4678SOL    HW115808  11.619  13.575   1.003
 4678SOL    HW215809  11.590  13.626   1.142
 4679SOL     OW15810  13.392  14.415   8.868
 4679SOL    HW115811  13.390  14.477   8.795
 4679SOL    HW215812  13.461  14.447   8.925
 4680SOL     OW15813   0.888  13.827  13.719
 4680SOL    HW115814   0.982  13.839  13.716
 4680SOL    HW215815   0.863  13.807  13.628
 4681SOL     OW15816  11.007  14.665   9.329
 4681SOL    HW115817  11.033  14.718   9.253
 4681SOL    HW215818  10.922  14.628   9.304
 4682SOL     OW15819   0.517   2.445   6.667
 4682SOL    HW115820   0.565   2.362   6.667
 4682SOL    HW215821   0.452   2.435   6.597
 4683SOL     OW15822   2.531  10.050   5.448
 4683SOL    HW115823   2.510   9.996   5.372
 4683SOL    HW215824   2.611  10.097   5.424
 4684SOL     OW15825  11.830  13.209  14.803
 4684SOL    HW115826  11.802  13.209  14.712
 4684SOL    HW215827  11.923  13.186  14.799
 4685SOL     OW15828  10.309   0.091   4.031
 4685SOL    HW115829  10.345   0.004   4.014
 4685SOL    HW215830  10.296   0.093   4.126
 4686SOL     OW15831  11.435   8.701   5.467
 4686SOL    HW115832  11.479   8.724   5.549
 4686SOL    HW215833  11.350   8.667   5.495
 4687SOL     OW15834   0.040   9.180   4.160
 4687SOL    HW115835  14.860   9.112   4.133
 4687SOL    HW215836   0.098   9.137   4.222
 4688SOL     OW15837   8.581   4.301   4.799
 4688SOL    HW115838   8.605   4.239   4.730
 4688SOL    HW215839   8.533   4.248   4.863
 4689SOL     OW15840   1.952   5.610   2.652
 4689SOL    HW115841   1.872   5.657   2.673
 4689SOL    HW215842   2.020   5.678   2.650
 4690SOL     OW15843   2.165   5.749   7.914
 4690SOL    HW115844   2.151   5.663   7.876
 4690SOL    HW215845   2.200   5.802   7.842
 4691SOL     OW15846  12.820   1.905   6.514
 4691SOL    HW115847  12.829   1.810   6.508
 4691SOL    HW215848  12.901   1.934   6.556
 4692SOL     OW15849  12.410   5.201  13.703
 4692SOL    HW115850  12.416   5.253  13.783
 4692SOL    HW215851  12.316   5.197  13.684
 4693SOL     OW15852  12.978   6.191   2.577
 4693SOL    HW115853  13.033   6.253   2.625
 4693SOL    HW215854  12.913   6.162   2.640
 4694SOL     OW15855   4.265   0.662   5.979
 4694SOL    HW115856   4.230   0.649   6.067
 4694SOL    HW215857   4.310   0.580   5.959
 4695SOL     OW15858  10.611   9.339   0.197
 4695SOL    HW115859  10.647   9.398   0.263
 4695SOL    HW215860  10.664   9.260   0.203
 4696SOL     OW15861   8.384   2.651   4.397
 4696SOL    HW115862   8.420   2.734   4.426
 4696SOL    HW215863   8.315   2.675   4.335
 4697SOL     OW15864   4.277   9.907  14.352
 4697SOL    HW115865   4.350   9.848  14.332
 4697SOL    HW215866   4.276   9.969  14.279
 4698SOL     OW15867   7.013   1.937  12.991
 4698SOL    HW115868   6.990   2.016  12.942
 4698SOL    HW215869   7.096   1.959  13.033
 4699SOL     OW15870  14.181   7.949  13.825
 4699SOL    HW115871  14.193   8.044  13.831
 4699SOL    HW215872  14.086   7.936  13.830
 4700SOL     OW15873   3.204   9.526   2.776
 4700SOL    HW115874   3.143   9.600   2.781
 4700SOL    HW215875   3.262   9.537   2.851
 4701SOL     OW15876  12.434   8.564   0.167
 4701SOL    HW115877  12.352   8.517   0.153
 4701SOL    HW215878  12.437   8.630   0.099
 4702SOL     OW15879  14.230   3.972   2.318
 4702SOL    HW115880  14.145   3.955   2.278
 4702SOL    HW215881  14.285   4.002   2.246
 4703SOL     OW15882   2.361   4.558   5.062
 4703SOL    HW115883   2.313   4.497   5.117
 4703SOL    HW215884   2.441   4.578   5.111
 4704SOL     OW15885   5.108   8.551   7.725
 4704SOL    HW115886   5.041   8.605   7.768
 4704SOL    HW215887   5.124   8.480   7.788
 4705SOL     OW15888   0.530   9.819   3.093
 4705SOL    HW115889   0.513   9.725   3.101
 4705SOL    HW215890   0.619   9.830   3.126
 4706SOL     OW15891  12.970  12.820   3.875
 4706SOL    HW115892  12.922  12.772   3.807
 4706SOL    HW215893  13.062  12.798   3.860
 4707SOL     OW15894   7.732  10.577   4.588
 4707SOL    HW115895   7.769  10.600   4.503
 4707SOL    HW215896   7.803  10.590   4.650
 4708SOL     OW15897  14.149  10.671   4.019
 4708SOL    HW115898  14.238  10.638   4.003
 4708SOL    HW215899  14.153  10.706   4.108
 4709SOL     OW15900   4.508  11.229   8.684
 4709SOL    HW115901   4.518  11.178   8.604
 4709SOL    HW215902   4.444  11.180   8.736
 4710SOL     OW15903   5.692   5.221   7.238
 4710SOL    HW115904   5.624   5.170   7.282
 4710SOL    HW215905   5.746   5.255   7.310
 4711SOL     OW15906   7.764   4.986   0.612
 4711SOL    HW115907   7.724   5.002   0.698
 4711SOL    HW215908   7.828   5.057   0.603
 4712SOL     OW15909   8.340  11.450   7.891
 4712SOL    HW115910   8.352  11.469   7.984
 4712SOL    HW215911   8.276  11.514   7.861
 4713SOL     OW15912  13.092   5.913   3.798
 4713SOL    HW115913  13.048   5.900   3.714
 4713SOL    HW215914  13.031   5.968   3.849
 4714SOL     OW15915   9.737  14.803  14.039
 4714SOL    HW115916   9.815  14.848  14.074
 4714SOL    HW215917   9.666  14.866  14.051
 4715SOL     OW15918  10.211   3.519  10.362
 4715SOL    HW115919  10.306   3.531  10.357
 4715SOL    HW215920  10.198   3.464  10.439
 4716SOL     OW15921  14.644  13.727  10.905
 4716SOL    HW115922  14.646  13.665  10.832
 4716SOL    HW215923  14.556  13.717  10.942
 4717SOL     OW15924  10.551  13.400   1.577
 4717SOL    HW115925  10.484  13.456   1.538
 4717SOL    HW215926  10.633  13.429   1.537
 4718SOL     OW15927  10.730   0.408  10.961
 4718SOL    HW115928  10.742   0.318  10.992
 4718SOL    HW215929  10.690   0.398  10.875
 4719SOL     OW15930  13.900  14.509   8.857
 4719SOL    HW115931  13.817  14.556   8.855
 4719SOL    HW215932  13.887  14.436   8.796
 4720SOL     OW15933  14.186  14.415   8.160
 4720SOL    HW115934  14.245  14.471   8.108
 4720SOL    HW215935  14.125  14.477   8.202
 4721SOL     OW15936   2.628   7.383  13.372
 4721SOL    HW115937   2.551   7.340  13.335
 4721SOL    HW215938   2.596   7.426  13.452
 4722SOL     OW15939  10.798  11.925   9.278
 4722SOL    HW115940  10.857  11.939   9.204
 4722SOL    HW215941  10.847  11.868   9.338
 4723SOL     OW15942   0.343   4.768   0.547
 4723SOL    HW115943   0.259   4.802   0.516
 4723SOL    HW215944   0.340   4.779   0.642
 4724SOL     OW15945   7.269  13.800   5.905
 4724SOL    HW115946   7.219  13.747   5.843
 4724SOL    HW215947   7.288  13.741   5.978
 4725SOL     OW15948   6.789  10.884   7.887
 4725SOL    HW115949   6.822  10.849   7.804
 4725SOL    HW215950   6.809  10.977   7.883
 4726SOL     OW15951   6.414  13.428   6.861
 4726SOL    HW115952   6.339  13.486   6.847
 4726SOL    HW215953   6.479  13.457   6.797
 4727SOL     OW15954   5.262  10.013  14.245
 4727SOL    HW115955   5.177  10.057  14.243
 4727SOL    HW215956   5.241   9.920  14.243
 4728SOL     OW15957  10.915  10.380   5.600
 4728SOL    HW115958  10.828  10.403   5.569
 4728SOL    HW215959  10.945  10.458   5.647
 4729SOL     OW15960  12.321   9.943  10.922
 4729SOL    HW115961  12.386   9.987  10.867
 4729SOL    HW215962  12.263   9.899  10.860
 4730SOL     OW15963   7.904   2.690   9.534
 4730SOL    HW115964   7.941   2.764   9.487
 4730SOL    HW215965   7.865   2.729   9.613
 4731SOL     OW15966   3.134   9.589   0.832
 4731SOL    HW115967   3.200   9.543   0.780
 4731SOL    HW215968   3.086   9.643   0.768
 4732SOL     OW15969   0.160   4.078   9.131
 4732SOL    HW115970   0.179   4.119   9.046
 4732SOL    HW215971   0.097   4.009   9.111
 4733SOL     OW15972   6.803  11.601  11.383
 4733SOL    HW115973   6.750  11.529  11.417
 4733SOL    HW215974   6.838  11.644  11.461
 4734SOL     OW15975   0.634  10.753   1.005
 4734SOL    HW115976   0.675  10.798   1.079
 4734SOL    HW215977   0.567  10.697   1.045
 4735SOL     OW15978   0.645  10.962  11.755
 4735SOL    HW115979   0.666  10.937  11.665
 4735SOL    HW215980   0.701  11.038  11.773
 4736SOL     OW15981   0.663  10.789   9.265
 4736SOL    HW115982   0.577  10.758   9.294
 4736SOL    HW215983   0.703  10.827   9.344
 4737SOL     OW15984   4.421  10.941   7.357
 4737SOL    HW115985   4.389  10.854   7.336
 4737SOL    HW215986   4.516  10.930   7.366
 4738SOL     OW15987  13.086   8.784   1.716
 4738SOL    HW115988  13.078   8.828   1.801
 4738SOL    HW215989  13.092   8.856   1.653
 4739SOL     OW15990  10.640   7.836  13.169
 4739SOL    HW115991  10.698   7.809  13.098
 4739SOL    HW215992  10.567   7.880  13.123
 4740SOL     OW15993   4.701   9.134  13.980
 4740SOL    HW115994   4.785   9.177  13.993
 4740SOL    HW215995   4.669   9.114  14.068
 4741SOL     OW15996   8.104   1.339   2.850
 4741SOL    HW115997   8.020   1.323   2.807
 4741SOL    HW215998   8.156   1.261   2.832
 4742SOL     OW15999   0.700  10.883  10.087
 4742SOL    HW116000   0.732  10.795  10.107
 4742SOL    HW216001   0.668  10.917  10.170
 4743SOL     OW16002   9.216   1.546   3.561
 4743SOL    HW116003   9.262   1.462   3.566
 4743SOL    HW216004   9.234   1.579   3.473
 4744SOL     OW16005   7.430   4.912  13.234
 4744SOL    HW116006   7.378   4.978  13.281
 4744SOL    HW216007   7.368   4.872  13.174
 4745SOL     OW16008   4.858   4.589  11.447
 4745SOL    HW116009   4.828   4.569  11.358
 4745SOL    HW216010   4.890   4.506  11.481
 4746SOL     OW16011  13.804   4.258  13.790
 4746SOL    HW116012  13.765   4.176  13.762
 4746SOL    HW216013  13.897   4.250  13.767
 4747SOL     OW16014  10.444   1.691  14.062
 4747SOL    HW116015  10.538   1.682  14.046
 4747SOL    HW216016  10.433   1.781  14.092
 4748SOL     OW16017  12.421   0.890  12.621
 4748SOL    HW116018  12.423   0.813  12.678
 4748SOL    HW216019  12.460   0.861  12.539
 4749SOL     OW16020   8.705   9.518   8.933
 4749SOL    HW116021   8.639   9.586   8.920
 4749SOL    HW216022   8.749   9.511   8.848
 4750SOL     OW16023   4.450   2.136  10.974
 4750SOL    HW116024   4.444   2.052  11.018
 4750SOL    HW216025   4.366   2.145  10.928
 4751SOL     OW16026   2.387   7.482   7.650
 4751SOL    HW116027   2.478   7.453   7.658
 4751SOL    HW216028   2.335   7.401   7.653
 4752SOL     OW16029  14.130   6.683   4.276
 4752SOL    HW116030  14.140   6.725   4.191
 4752SOL    HW216031  14.196   6.613   4.276
 4753SOL     OW16032  13.968   9.973  10.637
 4753SOL    HW116033  13.891   9.948  10.586
 4753SOL    HW216034  14.012   9.890  10.656
 4754SOL     OW16035   9.766   5.245   9.870
 4754SOL    HW116036   9.703   5.294   9.817
 4754SOL    HW216037   9.765   5.289   9.955
 4755SOL     OW16038   4.514   4.704   7.625
 4755SOL    HW116039   4.564   4.638   7.672
 4755SOL    HW216040   4.527   4.683   7.533
 4756SOL     OW16041  14.050   8.553  11.306
 4756SOL    HW116042  14.129   8.526  11.259
 4756SOL    HW216043  13.981   8.497  11.271
 4757SOL     OW16044  13.882   0.700   1.745
 4757SOL    HW116045  13.859   0.793   1.745
 4757SOL    HW216046  13.824   0.661   1.680
 4758SOL     OW16047   8.306   9.222   8.624
 4758SOL    HW116048   8.336   9.298   8.674
 4758SOL    HW216049   8.314   9.249   8.532
 4759SOL     OW16050   0.227   6.994   0.114
 4759SOL    HW116051   0.194   7.080   0.085
 4759SOL    HW216052   0.281   7.014   0.190
 4760SOL     OW16053  11.475   5.056  10.894
 4760SOL    HW116054  11.502   4.967  10.874
 4760SOL    HW216055  11.511   5.073  10.981
 4761SOL     OW16056   3.345   3.538   6.583
 4761SOL    HW116057   3.414   3.474   6.566
 4761SOL    HW216058   3.269   3.505   6.535
 4762SOL     OW16059   7.797   7.242   9.580
 4762SOL    HW116060   7.725   7.236   9.643
 4762SOL    HW216061   7.843   7.322   9.604
 4763SOL     OW16062  12.180   6.037   6.939
 4763SOL    HW116063  12.269   6.005   6.955
 4763SOL    HW216064  12.157   6.086   7.018
 4764SOL     OW16065   3.774   0.600   8.529
 4764SOL    HW116066   3.847   0.559   8.483
 4764SOL    HW216067   3.753   0.678   8.477
 4765SOL     OW16068   5.259   4.820   5.414
 4765SOL    HW116069   5.298   4.795   5.330
 4765SOL    HW216070   5.320   4.885   5.450
 4766SOL     OW16071   5.261   0.288   1.249
 4766SOL    HW116072   5.214   0.332   1.179
 4766SOL    HW216073   5.265   0.353   1.320
 4767SOL     OW16074  13.538  13.059   0.669
 4767SOL    HW116075  13.530  13.143   0.713
 4767SOL    HW216076  13.566  12.998   0.738
 4768SOL     OW16077  14.008   7.577   9.165
 4768SOL    HW116078  14.053   7.569   9.081
 4768SOL    HW216079  13.941   7.509   9.163
 4769SOL     OW16080   2.043   9.318   2.266
 4769SOL    HW116081   2.021   9.409   2.245
 4769SOL    HW216082   2.096   9.325   2.346
 4770SOL     OW16083   8.210  12.886  12.738
 4770SOL    HW116084   8.248  12.962  12.781
 4770SOL    HW216085   8.247  12.811  12.785
 4771SOL     OW16086   5.005   7.368   1.590
 4771SOL    HW116087   4.999   7.382   1.684
 4771SOL    HW216088   4.921   7.398   1.556
 4772SOL     OW16089   1.971  10.891  13.277
 4772SOL    HW116090   1.955  10.985  13.271
 4772SOL    HW216091   2.056  10.884  13.322
 4773SOL     OW16092   5.854   0.831   4.065
 4773SOL    HW116093   5.779   0.888   4.078
 4773SOL    HW216094   5.846   0.802   3.974
 4774SOL     OW16095   3.954   8.436   1.746
 4774SOL    HW116096   3.875   8.480   1.715
 4774SOL    HW216097   3.922   8.354   1.784
 4775SOL     OW16098   3.112  10.117   7.725
 4775SOL    HW116099   3.168  10.113   7.647
 4775SOL    HW216100   3.165  10.162   7.790
 4776SOL     OW16101  14.461   6.607   7.934
 4776SOL    HW116102  14.555   6.600   7.918
 4776SOL    HW216103  14.445   6.551   8.011
 4777SOL     OW16104   5.629   5.342  14.337
 4777SOL    HW116105   5.547   5.297  14.317
 4777SOL    HW216106   5.617   5.376  14.426
 4778SOL     OW16107   1.538   1.090  13.213
 4778SOL    HW116108   1.535   1.003  13.253
 4778SOL    HW216109   1.631   1.110  13.203
 4779SOL     OW16110  10.232  10.985   6.258
 4779SOL    HW116111  10.159  10.927   6.236
 4779SOL    HW216112  10.201  11.072   6.233
 4780SOL     OW16113  14.193  14.287  11.164
 4780SOL    HW116114  14.281  14.269  11.130
 4780SOL    HW216115  14.188  14.234  11.244
 4781SOL     OW16116   4.258   6.954   7.937
 4781SOL    HW116117   4.343   6.996   7.950
 4781SOL    HW216118   4.278   6.863   7.918
 4782SOL     OW16119   3.730  13.408  11.977
 4782SOL    HW116120   3.691  13.427  11.892
 4782SOL    HW216121   3.819  13.442  11.971
 4783SOL     OW16122  13.749   7.075   2.043
 4783SOL    HW116123  13.804   7.073   1.964
 4783SOL    HW216124  13.684   7.142   2.024
 4784SOL     OW16125   7.789   5.939   5.277
 4784SOL    HW116126   7.763   5.977   5.361
 4784SOL    HW216127   7.872   5.895   5.296
 4785SOL     OW16128   4.301   2.393  11.873
 4785SOL    HW116129   4.221   2.367  11.920
 4785SOL    HW216130   4.274   2.396  11.781
 4786SOL     OW16131   3.348   3.438   0.752
 4786SOL    HW116132   3.362   3.526   0.715
 4786SOL    HW216133   3.272   3.448   0.810
 4787SOL     OW16134   6.366   6.035   4.369
 4787SOL    HW116135   6.285   6.057   4.415
 4787SOL    HW216136   6.340   6.028   4.277
 4788SOL     OW16137   9.583  10.797   2.468
 4788SOL    HW116138   9.521  10.762   2.405
 4788SOL    HW216139   9.668  10.763   2.440
 4789SOL     OW16140  11.758  10.861  12.638
 4789SOL    HW116141  11.774  10.841  12.730
 4789SOL    HW216142  11.811  10.798  12.590
 4790SOL     OW16143  14.669   2.623   8.528
 4790SOL    HW116144  14.576   2.648   8.533
 4790SOL    HW216145  14.715   2.701   8.560
 4791SOL     OW16146   2.701   6.797   2.814
 4791SOL    HW116147   2.709   6.706   2.844
 4791SOL    HW216148   2.621   6.799   2.762
 4792SOL     OW16149   1.595   2.192  12.579
 4792SOL    HW116150   1.626   2.256  12.515
 4792SOL    HW216151   1.501   2.208  12.586
 4793SOL     OW16152  10.559   5.131   3.057
 4793SOL    HW116153  10.509   5.058   3.021
 4793SOL    HW216154  10.542   5.127   3.151
 4794SOL     OW16155   1.021  13.382   1.102
 4794SOL    HW116156   0.968  13.359   1.178
 4794SOL    HW216157   1.070  13.460   1.130
 4795SOL     OW16158   2.329   1.384  10.480
 4795SOL    HW116159   2.242   1.366  10.444
 4795SOL    HW216160   2.341   1.318  10.549
 4796SOL     OW16161   3.417   8.755  11.659
 4796SOL    HW116162   3.465   8.679  11.627
 4796SOL    HW216163   3.481   8.826  11.656
 4797SOL     OW16164   4.309  12.694   5.153
 4797SOL    HW116165   4.304  12.703   5.248
 4797SOL    HW216166   4.338  12.604   5.139
 4798SOL     OW16167   5.010   5.147   3.959
 4798SOL    HW116168   5.066   5.116   3.887
 4798SOL    HW216169   5.006   5.242   3.947
 4799SOL     OW16170  11.272   1.934  11.842
 4799SOL    HW116171  11.311   1.942  11.755
 4799SOL    HW216172  11.248   2.023  11.866
 4800SOL     OW16173  11.226  14.483   2.922
 4800SOL    HW116174  11.215  14.484   2.827
 4800SOL    HW216175  11.177  14.407   2.951
 4801SOL     OW16176   6.823   1.440  10.234
 4801SOL    HW116177   6.900   1.484  10.198
 4801SOL    HW216178   6.755   1.508  10.235
 4802SOL     OW16179   8.038   6.098   5.007
 4802SOL    HW116180   8.061   6.046   4.930
 4802SOL    HW216181   8.077   6.050   5.080
 4803SOL     OW16182   0.209   3.820  13.079
 4803SOL    HW116183   0.258   3.824  12.998
 4803SOL    HW216184   0.165   3.905  13.086
 4804SOL     OW16185   1.974  11.240   9.069
 4804SOL    HW116186   2.033  11.240   8.993
 4804SOL    HW216187   2.018  11.183   9.133
 4805SOL     OW16188   4.224   6.340  13.715
 4805SOL    HW116189   4.188   6.359  13.629
 4805SOL    HW216190   4.319   6.337  13.701
 4806SOL     OW16191   6.643   2.933  14.455
 4806SOL    HW116192   6.579   2.907  14.389
 4806SOL    HW216193   6.727   2.926  14.410
 4807SOL     OW16194  10.492   9.614   8.453
 4807SOL    HW116195  10.422   9.549   8.461
 4807SOL    HW216196  10.477   9.655   8.368
 4808SOL     OW16197   4.144   3.018  12.095
 4808SOL    HW116198   4.062   3.065  12.110
 4808SOL    HW216199   4.119   2.942  12.042
 4809SOL     OW16200   4.120   7.578   9.356
 4809SOL    HW116201   4.075   7.654   9.319
 4809SOL    HW216202   4.143   7.605   9.445
 4810SOL     OW16203   7.876   7.247   0.900
 4810SOL    HW116204   7.945   7.197   0.944
 4810SOL    HW216205   7.866   7.204   0.815
 4811SOL     OW16206  10.097  14.437   7.216
 4811SOL    HW116207  10.165  14.502   7.199
 4811SOL    HW216208  10.086  14.438   7.312
 4812SOL     OW16209  14.555  11.566   8.957
 4812SOL    HW116210  14.547  11.661   8.963
 4812SOL    HW216211  14.464  11.535   8.951
 4813SOL     OW16212   6.935   5.988   6.140
 4813SOL    HW116213   7.007   5.974   6.079
 4813SOL    HW216214   6.973   5.969   6.226
 4814SOL     OW16215   9.639   1.123   1.441
 4814SOL    HW116216   9.569   1.087   1.388
 4814SOL    HW216217   9.602   1.203   1.480
 4815SOL     OW16218  12.222   0.912   9.643
 4815SOL    HW116219  12.192   0.940   9.556
 4815SOL    HW216220  12.299   0.966   9.660
 4816SOL     OW16221   1.479   8.563  13.274
 4816SOL    HW116222   1.454   8.493  13.334
 4816SOL    HW216223   1.562   8.535  13.237
 4817SOL     OW16224  12.489  11.508   6.311
 4817SOL    HW116225  12.575  11.549   6.305
 4817SOL    HW216226  12.507  11.414   6.318
 4818SOL     OW16227   9.456   7.165   4.569
 4818SOL    HW116228   9.480   7.113   4.646
 4818SOL    HW216229   9.383   7.118   4.530
 4819SOL     OW16230   0.922  13.599   5.876
 4819SOL    HW116231   0.961  13.679   5.841
 4819SOL    HW216232   0.931  13.608   5.971
 4820SOL     OW16233   9.461   1.402   6.439
 4820SOL    HW116234   9.536   1.423   6.384
 4820SOL    HW216235   9.460   1.306   6.443
 4821SOL     OW16236   3.324  13.252   4.714
 4821SOL    HW116237   3.233  13.281   4.715
 4821SOL    HW216238   3.342  13.233   4.622
 4822SOL     OW16239  13.936   2.469   1.126
 4822SOL    HW116240  13.877   2.403   1.089
 4822SOL    HW216241  13.989   2.499   1.052
 4823SOL     OW16242   8.982   7.664   6.074
 4823SOL    HW116243   8.919   7.733   6.054
 4823SOL    HW216244   8.940   7.583   6.044
 4824SOL     OW16245   1.342   1.165  14.849
 4824SOL    HW116246   1.273   1.222  14.815
 4824SOL    HW216247   1.423   1.208  14.824
 4825SOL     OW16248  14.302   2.593   8.222
 4825SOL    HW116249  14.274   2.599   8.314
 4825SOL    HW216250  14.397   2.593   8.226
 4826SOL     OW16251  11.306   8.198   1.538
 4826SOL    HW116252  11.366   8.123   1.542
 4826SOL    HW216253  11.229   8.163   1.492
 4827SOL     OW16254   2.711   3.869   7.864
 4827SOL    HW116255   2.784   3.910   7.817
 4827SOL    HW216256   2.690   3.791   7.813
 4828SOL     OW16257   3.105  13.422  12.406
 4828SOL    HW116258   3.111  13.444  12.314
 4828SOL    HW216259   3.166  13.480  12.450
 4829SOL     OW16260   2.210   4.815   5.940
 4829SOL    HW116261   2.293   4.853   5.969
 4829SOL    HW216262   2.222   4.801   5.846
 4830SOL     OW16263  11.372  11.646   9.152
 4830SOL    HW116264  11.286  11.685   9.168
 4830SOL    HW216265  11.425  11.718   9.119
 4831SOL     OW16266   6.577   6.148  13.190
 4831SOL    HW116267   6.617   6.188  13.113
 4831SOL    HW216268   6.649   6.104  13.235
 4832SOL     OW16269   6.683  10.167  10.061
 4832SOL    HW116270   6.597  10.144  10.096
 4832SOL    HW216271   6.722  10.083  10.036
 4833SOL     OW16272   1.150   6.490  13.297
 4833SOL    HW116273   1.068   6.455  13.261
 4833SOL    HW216274   1.218   6.435  13.258
 4834SOL     OW16275   3.578   6.905  13.083
 4834SOL    HW116276   3.614   6.817  13.071
 4834SOL    HW216277   3.547   6.906  13.174
 4835SOL     OW16278  12.869   3.496   9.340
 4835SOL    HW116279  12.846   3.587   9.357
 4835SOL    HW216280  12.828   3.447   9.412
 4836SOL     OW16281   4.539   8.161  12.369
 4836SOL    HW116282   4.595   8.169  12.446
 4836SOL    HW216283   4.455   8.199  12.395
 4837SOL     OW16284   3.581  13.330  10.675
 4837SOL    HW116285   3.509  13.293  10.624
 4837SOL    HW216286   3.654  13.270  10.661
 4838SOL     OW16287   6.736   3.505   5.956
 4838SOL    HW116288   6.703   3.562   5.886
 4838SOL    HW216289   6.772   3.566   6.021
 4839SOL     OW16290   5.370  10.482   1.800
 4839SOL    HW116291   5.274  10.483   1.804
 4839SOL    HW216292   5.394  10.391   1.816
 4840SOL     OW16293  14.039   9.483  11.708
 4840SOL    HW116294  14.065   9.448  11.622
 4840SOL    HW216295  14.023   9.405  11.761
 4841SOL     OW16296  12.837   2.487  14.365
 4841SOL    HW116297  12.916   2.542  14.367
 4841SOL    HW216298  12.800   2.496  14.452
 4842SOL     OW16299   1.498   4.808   0.242
 4842SOL    HW116300   1.481   4.779   0.331
 4842SOL    HW216301   1.589   4.784   0.225
 4843SOL     OW16302   4.185   4.061   3.436
 4843SOL    HW116303   4.192   4.064   3.341
 4843SOL    HW216304   4.260   4.111   3.467
 4844SOL     OW16305   4.871   9.508   0.203
 4844SOL    HW116306   4.965   9.517   0.189
 4844SOL    HW216307   4.847   9.583   0.258
 4845SOL     OW16308   9.987  13.805  10.992
 4845SOL    HW116309  10.029  13.848  11.066
 4845SOL    HW216310   9.907  13.856  10.977
 4846SOL     OW16311   9.906   5.392   5.279
 4846SOL    HW116312   9.982   5.429   5.324
 4846SOL    HW216313   9.832   5.415   5.334
 4847SOL     OW16314   6.597   4.420  10.374
 4847SOL    HW116315   6.508   4.390  10.356
 4847SOL    HW216316   6.587   4.497  10.429
 4848SOL     OW16317  12.218   8.108  14.198
 4848SOL    HW116318  12.260   8.077  14.118
 4848SOL    HW216319  12.174   8.189  14.172
 4849SOL     OW16320  14.241  14.157  13.546
 4849SOL    HW116321  14.269  14.238  13.589
 4849SOL    HW216322  14.318  14.101  13.545
 4850SOL     OW16323   4.992  11.919   1.229
 4850SOL    HW116324   5.048  11.952   1.298
 4850SOL    HW216325   5.014  11.826   1.222
 4851SOL     OW16326   5.183   1.969   8.866
 4851SOL    HW116327   5.097   1.929   8.856
 4851SOL    HW216328   5.199   2.013   8.783
 4852SOL     OW16329  10.119   8.808   1.668
 4852SOL    HW116330  10.161   8.870   1.728
 4852SOL    HW216331  10.183   8.795   1.598
 4853SOL     OW16332   3.515   7.779  14.815
 4853SOL    HW116333   3.456   7.728  14.870
 4853SOL    HW216334   3.516   7.731  14.731
 4854SOL     OW16335  11.730   4.571  13.349
 4854SOL    HW116336  11.648   4.573  13.300
 4854SOL    HW216337  11.703   4.560  13.441
 4855SOL     OW16338   8.838  12.341   6.824
 4855SOL    HW116339   8.864  12.423   6.781
 4855SOL    HW216340   8.823  12.367   6.915
 4856SOL     OW16341   4.486   6.041   4.438
 4856SOL    HW116342   4.536   6.072   4.362
 4856SOL    HW216343   4.457   5.953   4.413
 4857SOL     OW16344  10.287   7.342  10.205
 4857SOL    HW116345  10.348   7.284  10.161
 4857SOL    HW216346  10.223   7.364  10.137
 4858SOL     OW16347   1.881   2.428  13.104
 4858SOL    HW116348   1.868   2.428  13.009
 4858SOL    HW216349   1.806   2.475  13.138
 4859SOL     OW16350  10.438   5.027   5.725
 4859SOL    HW116351  10.497   4.997   5.656
 4859SOL    HW216352  10.358   4.977   5.710
 4860SOL     OW16353  14.158   8.496   5.402
 4860SOL    HW116354  14.110   8.537   5.474
 4860SOL    HW216355  14.193   8.415   5.441
 4861SOL     OW16356  14.637   7.575  10.066
 4861SOL    HW116357  14.619   7.653  10.118
 4861SOL    HW216358  14.551   7.534  10.055
 4862SOL     OW16359  14.461  11.181  10.328
 4862SOL    HW116360  14.407  11.253  10.361
 4862SOL    HW216361  14.475  11.201  10.236
 4863SOL     OW16362   3.369  10.445   1.077
 4863SOL    HW116363   3.322  10.498   1.142
 4863SOL    HW216364   3.301  10.418   1.015
 4864SOL     OW16365   6.027  10.384  11.554
 4864SOL    HW116366   5.937  10.352  11.552
 4864SOL    HW216367   6.076  10.321  11.501
 4865SOL     OW16368   1.822  11.730  10.310
 4865SOL    HW116369   1.733  11.710  10.281
 4865SOL    HW216370   1.824  11.703  10.402
 4866SOL     OW16371  12.393   7.301   3.955
 4866SOL    HW116372  12.427   7.270   3.871
 4866SOL    HW216373  12.385   7.222   4.009
 4867SOL     OW16374   8.662   2.439   5.407
 4867SOL    HW116375   8.753   2.409   5.405
 4867SOL    HW216376   8.668   2.535   5.399
 4868SOL     OW16377  13.830   4.055  14.477
 4868SOL    HW116378  13.922   4.051  14.506
 4868SOL    HW216379  13.828   4.130  14.417
 4869SOL     OW16380   4.458   2.202   1.215
 4869SOL    HW116381   4.478   2.201   1.122
 4869SOL    HW216382   4.412   2.285   1.229
 4870SOL     OW16383   7.311   0.649  12.070
 4870SOL    HW116384   7.379   0.717  12.065
 4870SOL    HW216385   7.229   0.696  12.058
 4871SOL     OW16386  14.272   3.838  13.936
 4871SOL    HW116387  14.292   3.752  13.897
 4871SOL    HW216388  14.203   3.820  13.999
 4872SOL     OW16389  11.796  12.701   6.833
 4872SOL    HW116390  11.724  12.760   6.856
 4872SOL    HW216391  11.861  12.716   6.901
 4873SOL     OW16392  10.110  11.347   7.814
 4873SOL    HW116393  10.156  11.380   7.737
 4873SOL    HW216394  10.025  11.319   7.781
 4874SOL     OW16395   8.426   0.134   9.713
 4874SOL    HW116396   8.359   0.200   9.697
 4874SOL    HW216397   8.378   0.055   9.738
 4875SOL     OW16398  11.493  11.741   3.330
 4875SOL    HW116399  11.511  11.731   3.424
 4875SOL    HW216400  11.536  11.823   3.306
 4876SOL     OW16401   9.215   6.189   6.348
 4876SOL    HW116402   9.221   6.119   6.413
 4876SOL    HW216403   9.292   6.243   6.364
 4877SOL     OW16404   2.502   1.987   2.240
 4877SOL    HW116405   2.511   2.082   2.239
 4877SOL    HW216406   2.519   1.960   2.150
 4878SOL     OW16407   4.500   0.290   5.092
 4878SOL    HW116408   4.447   0.335   5.026
 4878SOL    HW216409   4.550   0.225   5.043
 4879SOL     OW16410  11.663   7.331   2.995
 4879SOL    HW116411  11.720   7.264   2.958
 4879SOL    HW216412  11.579   7.319   2.950
 4880SOL     OW16413   1.688   9.416   9.409
 4880SOL    HW116414   1.635   9.423   9.489
 4880SOL    HW216415   1.699   9.507   9.380
 4881SOL     OW16416   4.134   3.112   6.297
 4881SOL    HW116417   4.202   3.161   6.251
 4881SOL    HW216418   4.099   3.173   6.362
 4882SOL     OW16419   7.554   5.534   3.096
 4882SOL    HW116420   7.582   5.541   3.187
 4882SOL    HW216421   7.527   5.622   3.072
 4883SOL     OW16422  13.762  13.241   6.209
 4883SOL    HW116423  13.830  13.304   6.186
 4883SOL    HW216424  13.683  13.293   6.221
 4884SOL     OW16425   8.549   1.839   7.690
 4884SOL    HW116426   8.563   1.887   7.608
 4884SOL    HW216427   8.508   1.903   7.748
 4885SOL     OW16428   6.658   6.383   1.059
 4885SOL    HW116429   6.704   6.463   1.080
 4885SOL    HW216430   6.571   6.412   1.031
 4886SOL     OW16431  13.174   5.708   2.969
 4886SOL    HW116432  13.127   5.749   2.897
 4886SOL    HW216433  13.117   5.638   2.998
 4887SOL     OW16434  13.744  13.113   0.465
 4887SOL    HW116435  13.710  13.088   0.551
 4887SOL    HW216436  13.666  13.127   0.412
 4888SOL     OW16437  10.975   3.675   0.982
 4888SOL    HW116438  11.034   3.704   1.051
 4888SOL    HW216439  10.983   3.579   0.983
 4889SOL     OW16440   2.487   9.782  14.256
 4889SOL    HW116441   2.542   9.713  14.292
 4889SOL    HW216442   2.411   9.735  14.221
 4890SOL     OW16443   1.953   7.224   7.403
 4890SOL    HW116444   1.887   7.277   7.448
 4890SOL    HW216445   2.006   7.288   7.354
 4891SOL     OW16446  13.388  13.255   3.767
 4891SOL    HW116447  13.447  13.273   3.694
 4891SOL    HW216448  13.354  13.341   3.793
 4892SOL     OW16449   5.124   6.982  13.126
 4892SOL    HW116450   5.074   6.907  13.095
 4892SOL    HW216451   5.070   7.018  13.197
 4893SOL     OW16452   2.456  12.605  11.284
 4893SOL    HW116453   2.429  12.579  11.196
 4893SOL    HW216454   2.507  12.685  11.271
 4894SOL     OW16455   1.405   5.508   7.957
 4894SOL    HW116456   1.410   5.516   8.052
 4894SOL    HW216457   1.489   5.541   7.925
 4895SOL     OW16458   2.786   4.403   5.924
 4895SOL    HW116459   2.824   4.431   5.841
 4895SOL    HW216460   2.856   4.414   5.988
 4896SOL     OW16461   9.803  10.566   4.427
 4896SOL    HW116462   9.779  10.481   4.463
 4896SOL    HW216463   9.719  10.604   4.399
 4897SOL     OW16464   2.515   5.280  14.328
 4897SOL    HW116465   2.555   5.193  14.332
 4897SOL    HW216466   2.477   5.292  14.416
 4898SOL     OW16467   6.480   5.816   2.063
 4898SOL    HW116468   6.423   5.812   2.140
 4898SOL    HW216469   6.439   5.756   2.000
 4899SOL     OW16470   3.239   4.738   2.204
 4899SOL    HW116471   3.258   4.798   2.275
 4899SOL    HW216472   3.237   4.651   2.245
 4900SOL     OW16473   4.748   7.696   6.194
 4900SOL    HW116474   4.831   7.663   6.159
 4900SOL    HW216475   4.696   7.617   6.211
 4901SOL     OW16476   2.079   8.213   7.159
 4901SOL    HW116477   2.132   8.214   7.079
 4901SOL    HW216478   2.105   8.293   7.205
 4902SOL     OW16479  13.808   1.641  11.620
 4902SOL    HW116480  13.778   1.698  11.550
 4902SOL    HW216481  13.752   1.663  11.695
 4903SOL     OW16482  14.785   6.800   9.492
 4903SOL    HW116483  14.800   6.869   9.557
 4903SOL    HW216484  14.857   6.808   9.430
 4904SOL     OW16485   5.743   9.241   4.295
 4904SOL    HW116486   5.699   9.207   4.217
 4904SOL    HW216487   5.702   9.194   4.368
 4905SOL     OW16488  14.758  14.479   7.267
 4905SOL    HW116489  14.845  14.467   7.305
 4905SOL    HW216490  14.775  14.496   7.174
 4906SOL     OW16491   5.280   8.169   4.089
 4906SOL    HW116492   5.353   8.165   4.151
 4906SOL    HW216493   5.279   8.260   4.059
 4907SOL     OW16494   0.858  14.621   4.105
 4907SOL    HW116495   0.949  14.591   4.114
 4907SOL    HW216496   0.813  14.547   4.064
 4908SOL     OW16497   0.966  13.638   6.922
 4908SOL    HW116498   1.011  13.661   7.004
 4908SOL    HW216499   0.874  13.635   6.946
 4909SOL     OW16500   9.911   6.690   7.925
 4909SOL    HW116501   9.900   6.638   8.004
 4909SOL    HW216502   9.891   6.780   7.952
 4910SOL     OW16503   0.891   8.084  12.664
 4910SOL    HW116504   0.881   8.118  12.753
 4910SOL    HW216505   0.870   8.158  12.607
 4911SOL     OW16506  11.105   6.575   2.075
 4911SOL    HW116507  11.092   6.572   1.981
 4911SOL    HW216508  11.149   6.658   2.091
 4912SOL     OW16509   6.809  11.092   2.194
 4912SOL    HW116510   6.897  11.123   2.217
 4912SOL    HW216511   6.751  11.162   2.222
 4913SOL     OW16512   4.337  14.417   0.680
 4913SOL    HW116513   4.351  14.506   0.713
 4913SOL    HW216514   4.331  14.427   0.585
 4914SOL     OW16515   9.123  12.242   8.418
 4914SOL    HW116516   9.031  12.225   8.441
 4914SOL    HW216517   9.166  12.158   8.429
 4915SOL     OW16518   9.989   1.580  10.546
 4915SOL    HW116519  10.074   1.553  10.511
 4915SOL    HW216520   9.992   1.554  10.638
 4916SOL     OW16521   0.489  12.747   7.631
 4916SOL    HW116522   0.486  12.688   7.555
 4916SOL    HW216523   0.399  12.748   7.663
 4917SOL     OW16524   1.310   6.106  12.968
 4917SOL    HW116525   1.398   6.092  12.931
 4917SOL    HW216526   1.286   6.021  13.004
 4918SOL     OW16527   2.648   0.937   1.620
 4918SOL    HW116528   2.688   1.023   1.626
 4918SOL    HW216529   2.561   0.953   1.583
 4919SOL     OW16530   3.802   5.800  14.378
 4919SOL    HW116531   3.722   5.784  14.429
 4919SOL    HW216532   3.806   5.895  14.369
 4920SOL     OW16533  11.336   1.610   4.883
 4920SOL    HW116534  11.380   1.682   4.839
 4920SOL    HW216535  11.337   1.538   4.819
 4921SOL     OW16536   6.991   0.005   1.354
 4921SOL    HW116537   6.973   0.070   1.286
 4921SOL    HW216538   6.905  14.854   1.379
 4922SOL     OW16539   7.559   2.008   7.973
 4922SOL    HW116540   7.543   1.967   7.888
 4922SOL    HW216541   7.536   1.941   8.037
 4923SOL     OW16542   7.115  10.580   9.222
 4923SOL    HW116543   7.058  10.641   9.269
 4923SOL    HW216544   7.166  10.538   9.291
 4924SOL     OW16545   9.831   5.297  13.603
 4924SOL    HW116546   9.899   5.358  13.573
 4924SOL    HW216547   9.828   5.230  13.534
 4925SOL     OW16548  10.601   0.204   2.988
 4925SOL    HW116549  10.665   0.158   3.043
 4925SOL    HW216550  10.589   0.289   3.031
 4926SOL     OW16551   3.313  12.208   7.979
 4926SOL    HW116552   3.312  12.284   8.038
 4926SOL    HW216553   3.353  12.241   7.898
 4927SOL     OW16554   3.939  12.139   8.920
 4927SOL    HW116555   3.992  12.059   8.922
 4927SOL    HW216556   3.848  12.108   8.924
 4928SOL     OW16557   2.867  11.386   3.865
 4928SOL    HW116558   2.922  11.433   3.803
 4928SOL    HW216559   2.779  11.389   3.827
 4929SOL     OW16560  11.129  11.202   7.220
 4929SOL    HW116561  11.064  11.156   7.167
 4929SOL    HW216562  11.146  11.282   7.171
 4930SOL     OW16563   5.520   6.459  12.459
 4930SOL    HW116564   5.427   6.445  12.478
 4930SOL    HW216565   5.541   6.541  12.505
 4931SOL     OW16566  13.245   7.174   3.131
 4931SOL    HW116567  13.287   7.136   3.054
 4931SOL    HW216568  13.179   7.110   3.157
 4932SOL     OW16569  10.497   0.944  12.990
 4932SOL    HW116570  10.412   0.950  13.034
 4932SOL    HW216571  10.549   0.886  13.046
 4933SOL     OW16572   1.977  13.312   2.494
 4933SOL    HW116573   2.024  13.244   2.541
 4933SOL    HW216574   2.016  13.394   2.525
 4934SOL     OW16575  11.705  10.447   5.801
 4934SOL    HW116576  11.655  10.405   5.731
 4934SOL    HW216577  11.638  10.484   5.858
 4935SOL     OW16578   5.168   4.366   2.926
 4935SOL    HW116579   5.235   4.421   2.967
 4935SOL    HW216580   5.090   4.378   2.981
 4936SOL     OW16581   9.805  10.204   2.582
 4936SOL    HW116582   9.861  10.175   2.510
 4936SOL    HW216583   9.833  10.151   2.657
 4937SOL     OW16584  12.115   3.221   9.121
 4937SOL    HW116585  12.073   3.307   9.114
 4937SOL    HW216586  12.105   3.182   9.034
 4938SOL     OW16587   8.510   2.460   9.810
 4938SOL    HW116588   8.451   2.389   9.836
 4938SOL    HW216589   8.529   2.507   9.891
 4939SOL     OW16590   0.383   0.054  14.384
 4939SOL    HW116591   0.459   0.024  14.333
 4939SOL    HW216592   0.403   0.024  14.473
 4940SOL     OW16593   0.667   5.291   8.772
 4940SOL    HW116594   0.617   5.360   8.728
 4940SOL    HW216595   0.741   5.336   8.813
 4941SOL     OW16596  11.116   9.420   4.367
 4941SOL    HW116597  11.045   9.452   4.423
 4941SOL    HW216598  11.117   9.326   4.383
 4942SOL     OW16599   0.776   9.999  12.683
 4942SOL    HW116600   0.691   9.972  12.718
 4942SOL    HW216601   0.756  10.067  12.619
 4943SOL     OW16602   6.674   8.985   8.598
 4943SOL    HW116603   6.737   8.931   8.645
 4943SOL    HW216604   6.725   9.026   8.528
 4944SOL     OW16605   9.559  14.022   5.673
 4944SOL    HW116606   9.584  14.033   5.765
 4944SOL    HW216607   9.496  14.092   5.656
 4945SOL     OW16608  10.353   2.960  12.678
 4945SOL    HW116609  10.330   3.033  12.736
 4945SOL    HW216610  10.449   2.957  12.681
 4946SOL     OW16611   1.116   8.392   8.193
 4946SOL    HW116612   1.119   8.297   8.188
 4946SOL    HW216613   1.070   8.411   8.275
 4947SOL     OW16614  12.832  13.437  11.943
 4947SOL    HW116615  12.877  13.427  12.027
 4947SOL    HW216616  12.796  13.526  11.946
 4948SOL     OW16617   0.659   9.326  13.307
 4948SOL    HW116618   0.681   9.281  13.225
 4948SOL    HW216619   0.737   9.378  13.327
 4949SOL     OW16620  11.435   8.916  12.601
 4949SOL    HW116621  11.409   8.864  12.676
 4949SOL    HW216622  11.372   8.988  12.598
 4950SOL     OW16623   1.828   8.565  12.415
 4950SOL    HW116624   1.898   8.510  12.379
 4950SOL    HW216625   1.817   8.635  12.351
 4951SOL     OW16626  11.030   9.451   7.688
 4951SOL    HW116627  11.065   9.370   7.650
 4951SOL    HW216628  10.939   9.454   7.659
 4952SOL     OW16629   8.188   4.586   4.485
 4952SOL    HW116630   8.126   4.659   4.489
 4952SOL    HW216631   8.186   4.558   4.393
 4953SOL     OW16632   5.716   7.640   3.390
 4953SOL    HW116633   5.809   7.649   3.410
 4953SOL    HW216634   5.713   7.598   3.305
 4954SOL     OW16635  12.462  14.148   7.859
 4954SOL    HW116636  12.536  14.131   7.801
 4954SOL    HW216637  12.418  14.064   7.867
 4955SOL     OW16638   5.122   6.642   4.097
 4955SOL    HW116639   5.109   6.632   4.191
 4955SOL    HW216640   5.165   6.727   4.087
 4956SOL     OW16641   1.838   2.226   2.675
 4956SOL    HW116642   1.743   2.223   2.667
 4956SOL    HW216643   1.870   2.171   2.604
 4957SOL     OW16644   9.671   6.196   6.218
 4957SOL    HW116645   9.749   6.214   6.166
 4957SOL    HW216646   9.598   6.223   6.162
 4958SOL     OW16647   6.180   8.800   3.987
 4958SOL    HW116648   6.170   8.792   4.082
 4958SOL    HW216649   6.090   8.801   3.954
 4959SOL     OW16650   2.580   9.781  12.879
 4959SOL    HW116651   2.622   9.776  12.965
 4959SOL    HW216652   2.646   9.748  12.818
 4960SOL     OW16653  12.014  14.003   9.930
 4960SOL    HW116654  11.932  14.051   9.937
 4960SOL    HW216655  12.020  13.952  10.011
 4961SOL     OW16656   5.410   8.884   3.502
 4961SOL    HW116657   5.483   8.829   3.474
 4961SOL    HW216658   5.449   8.947   3.562
 4962SOL     OW16659   4.099   0.676  14.167
 4962SOL    HW116660   4.117   0.761  14.207
 4962SOL    HW216661   4.153   0.615  14.216
 4963SOL     OW16662   7.316   7.222  14.406
 4963SOL    HW116663   7.396   7.254  14.448
 4963SOL    HW216664   7.261   7.192  14.478
 4964SOL     OW16665  10.133   2.851   8.834
 4964SOL    HW116666  10.056   2.867   8.781
 4964SOL    HW216667  10.102   2.796   8.906
 4965SOL     OW16668  14.194   3.095   8.192
 4965SOL    HW116669  14.215   3.173   8.244
 4965SOL    HW216670  14.258   3.097   8.121
 4966SOL     OW16671  13.043  11.875   1.602
 4966SOL    HW116672  13.077  11.817   1.534
 4966SOL    HW216673  13.114  11.883   1.665
 4967SOL     OW16674  13.230   7.106  12.633
 4967SOL    HW116675  13.143   7.134  12.606
 4967SOL    HW216676  13.216   7.060  12.716
 4968SOL     OW16677   3.213  12.464   0.789
 4968SOL    HW116678   3.267  12.506   0.722
 4968SOL    HW216679   3.258  12.484   0.871
 4969SOL     OW16680   5.448   6.390   2.994
 4969SOL    HW116681   5.387   6.317   2.992
 4969SOL    HW216682   5.460   6.414   2.902
 4970SOL     OW16683  14.814   5.763  10.831
 4970SOL    HW116684  14.835   5.846  10.874
 4970SOL    HW216685  14.748   5.786  10.765
 4971SOL     OW16686  12.412   5.720   1.538
 4971SOL    HW116687  12.476   5.737   1.607
 4971SOL    HW216688  12.399   5.806   1.497
 4972SOL     OW16689  13.801   6.767   8.194
 4972SOL    HW116690  13.874   6.725   8.148
 4972SOL    HW216691  13.842   6.806   8.271
 4973SOL     OW16692   3.099  12.270   9.026
 4973SOL    HW116693   3.071  12.318   8.948
 4973SOL    HW216694   3.054  12.185   9.019
 4974SOL     OW16695   2.619   3.318  11.347
 4974SOL    HW116696   2.634   3.384  11.279
 4974SOL    HW216697   2.601   3.238  11.298
 4975SOL     OW16698   7.535   5.242   8.344
 4975SOL    HW116699   7.454   5.292   8.336
 4975SOL    HW216700   7.591   5.295   8.400
 4976SOL     OW16701   2.456   2.839   9.331
 4976SOL    HW116702   2.478   2.805   9.418
 4976SOL    HW216703   2.477   2.767   9.271
 4977SOL     OW16704  14.314   0.108   5.685
 4977SOL    HW116705  14.399   0.110   5.643
 4977SOL    HW216706  14.252   0.095   5.613
 4978SOL     OW16707   2.453   4.363   8.389
 4978SOL    HW116708   2.458   4.456   8.366
 4978SOL    HW216709   2.449   4.363   8.485
 4979SOL     OW16710   9.765  11.553   3.773
 4979SOL    HW116711   9.768  11.648   3.782
 4979SOL    HW216712   9.691  11.536   3.716
 4980SOL     OW16713   1.170   0.406   5.551
 4980SOL    HW116714   1.235   0.465   5.515
 4980SOL    HW216715   1.165   0.334   5.489
 4981SOL     OW16716   2.189   2.911  11.211
 4981SOL    HW116717   2.139   2.939  11.288
 4981SOL    HW216718   2.269   2.872  11.247
 4982SOL     OW16719   4.238  12.678   5.694
 4982SOL    HW116720   4.256  12.709   5.782
 4982SOL    HW216721   4.242  12.583   5.700
 4983SOL     OW16722   9.097   7.149  13.114
 4983SOL    HW116723   9.069   7.151  13.206
 4983SOL    HW216724   9.123   7.058  13.099
 4984SOL     OW16725   6.055   2.301  13.327
 4984SOL    HW116726   6.074   2.264  13.240
 4984SOL    HW216727   6.007   2.381  13.308
 4985SOL     OW16728  11.734  11.968  11.551
 4985SOL    HW116729  11.693  11.987  11.635
 4985SOL    HW216730  11.710  12.042  11.495
 4986SOL     OW16731   0.968   3.590  14.646
 4986SOL    HW116732   0.964   3.522  14.580
 4986SOL    HW216733   0.930   3.550  14.724
 4987SOL     OW16734   9.952   0.092  14.117
 4987SOL    HW116735  10.041   0.060  14.104
 4987SOL    HW216736   9.925   0.124  14.031
 4988SOL     OW16737  11.831   7.447   2.530
 4988SOL    HW116738  11.791   7.496   2.603
 4988SOL    HW216739  11.887   7.383   2.573
 4989SOL     OW16740   6.159   7.424  12.313
 4989SOL    HW116741   6.128   7.511  12.286
 4989SOL    HW216742   6.240   7.442  12.362
 4990SOL     OW16743  10.904  11.162   5.097
 4990SOL    HW116744  10.946  11.247   5.086
 4990SOL    HW216745  10.860  11.146   5.014
 4991SOL     OW16746  11.320   2.928   4.084
 4991SOL    HW116747  11.342   2.868   4.012
 4991SOL    HW216748  11.318   2.873   4.162
 4992SOL     OW16749  14.146   3.770   8.905
 4992SOL    HW116750  14.071   3.724   8.943
 4992SOL    HW216751  14.193   3.806   8.980
 4993SOL     OW16752   2.280   5.848   6.962
 4993SOL    HW116753   2.266   5.760   6.927
 4993SOL    HW216754   2.268   5.838   7.056
 4994SOL     OW16755   5.873   0.406   2.009
 4994SOL    HW116756   5.887   0.498   2.030
 4994SOL    HW216757   5.792   0.382   2.054
 4995SOL     OW16758   1.003   3.468   4.285
 4995SOL    HW116759   1.004   3.415   4.364
 4995SOL    HW216760   1.058   3.420   4.223
 4996SOL     OW16761  12.042   5.375   2.878
 4996SOL    HW116762  11.974   5.397   2.943
 4996SOL    HW216763  12.093   5.456   2.870
 4997SOL     OW16764   2.543  14.845   6.828
 4997SOL    HW116765   2.555   0.005   6.914
 4997SOL    HW216766   2.631  14.823   6.799
 4998SOL     OW16767   9.201   4.731   1.854
 4998SOL    HW116768   9.181   4.821   1.830
 4998SOL    HW216769   9.153   4.716   1.935
 4999SOL     OW16770  10.643   0.739  11.781
 4999SOL    HW116771  10.737   0.752  11.790
 4999SOL    HW216772  10.634   0.666  11.720
 5000SOL     OW16773  14.273  13.540  12.331
 5000SOL    HW116774  14.187  13.520  12.294
 5000SOL    HW216775  14.320  13.584  12.259
 5001SOL     OW16776   7.788   1.979  11.919
 5001SOL    HW116777   7.820   1.893  11.946
 5001SOL    HW216778   7.693   1.972  11.923
 5002SOL     OW16779   5.410   9.417   5.128
 5002SOL    HW116780   5.402   9.402   5.222
 5002SOL    HW216781   5.320   9.419   5.096
 5003SOL     OW16782   9.246  14.103   7.339
 5003SOL    HW116783   9.297  14.035   7.384
 5003SOL    HW216784   9.229  14.169   7.407
 5004SOL     OW16785   6.708   9.262   9.528
 5004SOL    HW116786   6.770   9.190   9.526
 5004SOL    HW216787   6.641   9.234   9.590
 5005SOL     OW16788  10.523  11.879   9.302
 5005SOL    HW116789  10.616  11.895   9.290
 5005SOL    HW216790  10.518  11.809   9.367
 5006SOL     OW16791   4.988  14.068   1.022
 5006SOL    HW116792   4.994  14.130   0.950
 5006SOL    HW216793   5.048  14.102   1.089
 5007SOL     OW16794   1.349   9.952   6.690
 5007SOL    HW116795   1.419   9.979   6.750
 5007SOL    HW216796   1.269   9.983   6.732
 5008SOL     OW16797   7.334  13.106   0.741
 5008SOL    HW116798   7.252  13.057   0.737
 5008SOL    HW216799   7.387  13.060   0.806
 5009SOL     OW16800   3.438   2.009  11.787
 5009SOL    HW116801   3.357   2.058  11.801
 5009SOL    HW216802   3.476   2.046  11.708
 5010SOL     OW16803   6.332   8.073  11.364
 5010SOL    HW116804   6.331   8.137  11.293
 5010SOL    HW216805   6.258   8.097  11.420
 5011SOL     OW16806   8.983   5.943   4.579
 5011SOL    HW116807   8.909   5.934   4.519
 5011SOL    HW216808   9.032   5.861   4.569
 5012SOL     OW16809   0.582   9.230   0.423
 5012SOL    HW116810   0.542   9.316   0.414
 5012SOL    HW216811   0.655   9.230   0.361
 5013SOL     OW16812  13.184   9.904   9.612
 5013SOL    HW116813  13.217   9.907   9.523
 5013SOL    HW216814  13.133   9.984   9.623
 5014SOL     OW16815   2.923   9.389  10.542
 5014SOL    HW116816   2.892   9.462  10.596
 5014SOL    HW216817   3.007   9.364  10.581
 5015SOL     OW16818   2.489   9.377   6.441
 5015SOL    HW116819   2.413   9.435   6.429
 5015SOL    HW216820   2.548   9.400   6.369
 5016SOL     OW16821   6.388   2.251   6.484
 5016SOL    HW116822   6.334   2.177   6.514
 5016SOL    HW216823   6.425   2.287   6.565
 5017SOL     OW16824   0.716   1.991   4.717
 5017SOL    HW116825   0.679   1.986   4.805
 5017SOL    HW216826   0.768   2.072   4.718
 5018SOL     OW16827  10.779  14.367  12.664
 5018SOL    HW116828  10.718  14.332  12.600
 5018SOL    HW216829  10.773  14.307  12.738
 5019SOL     OW16830  11.601   9.857   4.302
 5019SOL    HW116831  11.511   9.887   4.317
 5019SOL    HW216832  11.625   9.813   4.383
 5020SOL     OW16833  13.508  11.651  12.475
 5020SOL    HW116834  13.473  11.689  12.555
 5020SOL    HW216835  13.603  11.661  12.483
 5021SOL     OW16836  10.216  10.035   3.496
 5021SOL    HW116837  10.185  10.047   3.406
 5021SOL    HW216838  10.214  10.124   3.533
 5022SOL     OW16839   0.479  11.269   0.028
 5022SOL    HW116840   0.388  11.259   0.002
 5022SOL    HW216841   0.500  11.186   0.072
 5023SOL     OW16842   7.695   7.178   5.893
 5023SOL    HW116843   7.713   7.170   5.800
 5023SOL    HW216844   7.683   7.088   5.924
 5024SOL     OW16845  10.330   1.087   6.532
 5024SOL    HW116846  10.235   1.097   6.530
 5024SOL    HW216847  10.347   1.025   6.603
 5025SOL     OW16848   1.747  12.675   7.305
 5025SOL    HW116849   1.651  12.674   7.302
 5025SOL    HW216850   1.768  12.649   7.395
 5026SOL     OW16851   1.659   6.393   9.969
 5026SOL    HW116852   1.597   6.368   9.901
 5026SOL    HW216853   1.744   6.365   9.935
 5027SOL     OW16854   8.023   7.640  13.743
 5027SOL    HW116855   7.937   7.633  13.701
 5027SOL    HW216856   8.050   7.549  13.757
 5028SOL     OW16857  10.104   2.977   5.290
 5028SOL    HW116858  10.054   2.904   5.254
 5028SOL    HW216859  10.151   3.014   5.215
 5029SOL     OW16860  14.337   5.877   5.235
 5029SOL    HW116861  14.410   5.900   5.293
 5029SOL    HW216862  14.309   5.961   5.198
 5030SOL     OW16863   3.347   9.499   7.530
 5030SOL    HW116864   3.405   9.436   7.573
 5030SOL    HW216865   3.332   9.566   7.596
 5031SOL     OW16866   9.923   1.175   9.631
 5031SOL    HW116867   9.977   1.132   9.697
 5031SOL    HW216868   9.885   1.103   9.580
 5032SOL     OW16869   7.723   2.742   5.829
 5032SOL    HW116870   7.700   2.705   5.914
 5032SOL    HW216871   7.640   2.745   5.781
 5033SOL     OW16872  10.192   4.699   3.622
 5033SOL    HW116873  10.152   4.690   3.536
 5033SOL    HW216874  10.125   4.741   3.676
 5034SOL     OW16875  10.703   7.714   3.125
 5034SOL    HW116876  10.632   7.679   3.072
 5034SOL    HW216877  10.713   7.652   3.197
 5035SOL     OW16878   9.313  12.016  12.666
 5035SOL    HW116879   9.271  11.949  12.612
 5035SOL    HW216880   9.243  12.075  12.692
 5036SOL     OW16881  10.546   1.264   0.708
 5036SOL    HW116882  10.615   1.256   0.774
 5036SOL    HW216883  10.540   1.177   0.669
 5037SOL     OW16884  14.210   4.345   9.174
 5037SOL    HW116885  14.126   4.302   9.154
 5037SOL    HW216886  14.275   4.292   9.129
 5038SOL     OW16887   2.790   7.726  13.797
 5038SOL    HW116888   2.819   7.813  13.824
 5038SOL    HW216889   2.698   7.737  13.773
 5039SOL     OW16890   8.598  11.523   6.288
 5039SOL    HW116891   8.687  11.541   6.258
 5039SOL    HW216892   8.547  11.514   6.207
 5040SOL     OW16893   5.204   1.174   1.241
 5040SOL    HW116894   5.296   1.157   1.261
 5040SOL    HW216895   5.163   1.192   1.326
 5041SOL     OW16896   7.663  11.841  11.346
 5041SOL    HW116897   7.736  11.783  11.369
 5041SOL    HW216898   7.621  11.799  11.271
 5042SOL     OW16899  12.469   9.025  13.109
 5042SOL    HW116900  12.557   8.989  13.098
 5042SOL    HW216901  12.448   9.011  13.201
 5043SOL     OW16902   2.747   0.801   1.914
 5043SOL    HW116903   2.715   0.845   1.836
 5043SOL    HW216904   2.704   0.846   1.987
 5044SOL     OW16905  10.386   8.736   2.319
 5044SOL    HW116906  10.392   8.725   2.413
 5044SOL    HW216907  10.306   8.787   2.305
 5045SOL     OW16908   2.087   0.477   9.189
 5045SOL    HW116909   2.110   0.412   9.121
 5045SOL    HW216910   2.162   0.536   9.192
 5046SOL     OW16911  11.940   0.564  12.205
 5046SOL    HW116912  11.931   0.504  12.279
 5046SOL    HW216913  11.949   0.507  12.129
 5047SOL     OW16914   8.568  14.783   1.385
 5047SOL    HW116915   8.589  14.734   1.306
 5047SOL    HW216916   8.580  14.875   1.360
 5048SOL     OW16917   8.548   7.089  11.882
 5048SOL    HW116918   8.585   7.164  11.929
 5048SOL    HW216919   8.552   7.115  11.790
 5049SOL     OW16920  10.521   2.421   9.730
 5049SOL    HW116921  10.509   2.330   9.759
 5049SOL    HW216922  10.505   2.418   9.635
 5050SOL     OW16923   7.677   6.117  13.395
 5050SOL    HW116924   7.620   6.144  13.324
 5050SOL    HW216925   7.765   6.142  13.367
 5051SOL     OW16926   1.713  11.275   6.261
 5051SOL    HW116927   1.679  11.187   6.273
 5051SOL    HW216928   1.659  11.330   6.319
 5052SOL     OW16929  11.310   7.946   9.698
 5052SOL    HW116930  11.228   7.919   9.656
 5052SOL    HW216931  11.348   7.865   9.732
 5053SOL     OW16932  10.993   0.093  10.429
 5053SOL    HW116933  10.927   0.161  10.422
 5053SOL    HW216934  11.014   0.088  10.522
 5054SOL     OW16935   2.779   0.971   1.109
 5054SOL    HW116936   2.752   0.910   1.040
 5054SOL    HW216937   2.825   0.916   1.172
 5055SOL     OW16938   6.488  14.427   1.830
 5055SOL    HW116939   6.562  14.485   1.809
 5055SOL    HW216940   6.516  14.341   1.799
 5056SOL     OW16941  13.798   7.877  10.371
 5056SOL    HW116942  13.867   7.874  10.437
 5056SOL    HW216943  13.724   7.830  10.410
 5057SOL     OW16944  11.699  14.875  11.676
 5057SOL    HW116945  11.611  14.854  11.647
 5057SOL    HW216946  11.754  14.863  11.598
 5058SOL     OW16947  13.222  12.842  11.890
 5058SOL    HW116948  13.222  12.762  11.942
 5058SOL    HW216949  13.176  12.819  11.810
 5059SOL     OW16950   1.158  11.917   3.106
 5059SOL    HW116951   1.192  11.832   3.080
 5059SOL    HW216952   1.082  11.931   3.050
 5060SOL     OW16953   5.571   8.794  14.356
 5060SOL    HW116954   5.624   8.735  14.411
 5060SOL    HW216955   5.536   8.737  14.288
 5061SOL     OW16956   5.241  10.158   7.269
 5061SOL    HW116957   5.230  10.187   7.359
 5061SOL    HW216958   5.175  10.090   7.257
 5062SOL     OW16959  10.112  14.714  10.783
 5062SOL    HW116960  10.163  14.678  10.855
 5062SOL    HW216961  10.100  14.640  10.723
 5063SOL     OW16962  11.288   7.142  14.390
 5063SOL    HW116963  11.375   7.134  14.351
 5063SOL    HW216964  11.234   7.081  14.340
 5064SOL     OW16965   4.901   7.756   8.377
 5064SOL    HW116966   4.971   7.746   8.312
 5064SOL    HW216967   4.940   7.727   8.459
 5065SOL     OW16968  14.009   3.047  12.515
 5065SOL    HW116969  14.023   3.078  12.604
 5065SOL    HW216970  14.080   2.984  12.500
 5066SOL     OW16971   2.985   0.881   9.767
 5066SOL    HW116972   2.982   0.914   9.678
 5066SOL    HW216973   3.015   0.956   9.820
 5067SOL     OW16974   4.548   6.271   4.903
 5067SOL    HW116975   4.567   6.274   4.809
 5067SOL    HW216976   4.526   6.179   4.921
 5068SOL     OW16977   0.902  14.194  13.299
 5068SOL    HW116978   0.956  14.124  13.261
 5068SOL    HW216979   0.911  14.267  13.238
 5069SOL     OW16980   5.146   8.577  12.323
 5069SOL    HW116981   5.158   8.665  12.358
 5069SOL    HW216982   5.168   8.585  12.230
 5070SOL     OW16983   8.303   0.399   9.544
 5070SOL    HW116984   8.232   0.362   9.596
 5070SOL    HW216985   8.335   0.473   9.596
 5071SOL     OW16986   9.484   1.197  12.798
 5071SOL    HW116987   9.500   1.164  12.709
 5071SOL    HW216988   9.555   1.162  12.851
 5072SOL     OW16989   8.747   3.757  11.053
 5072SOL    HW116990   8.787   3.678  11.090
 5072SOL    HW216991   8.693   3.724  10.981
 5073SOL     OW16992   6.095  11.629   7.788
 5073SOL    HW116993   6.166  11.687   7.762
 5073SOL    HW216994   6.130  11.541   7.776
 5074SOL     OW16995   4.396   8.307  13.562
 5074SOL    HW116996   4.400   8.211  13.564
 5074SOL    HW216997   4.426   8.334  13.649
 5075SOL     OW16998  12.342   7.448   1.177
 5075SOL    HW116999  12.267   7.429   1.120
 5075SOL    HW217000  12.398   7.371   1.170
 5076SOL     OW17001  12.424   2.010   5.912
 5076SOL    HW117002  12.495   2.051   5.961
 5076SOL    HW217003  12.463   1.985   5.829
 5077SOL     OW17004   6.742   4.198   2.950
 5077SOL    HW117005   6.827   4.239   2.970
 5077SOL    HW217006   6.728   4.218   2.857
 5078SOL     OW17007   6.587  11.802   4.234
 5078SOL    HW117008   6.576  11.743   4.309
 5078SOL    HW217009   6.679  11.795   4.211
 5079SOL     OW17010   6.993  12.039   4.711
 5079SOL    HW117011   7.004  12.093   4.789
 5079SOL    HW217012   6.979  12.102   4.640
 5080SOL     OW17013  12.742  13.036   2.563
 5080SOL    HW117014  12.823  12.988   2.548
 5080SOL    HW217015  12.723  13.079   2.480
 5081SOL     OW17016  14.558   7.963   4.081
 5081SOL    HW117017  14.613   7.975   4.004
 5081SOL    HW217018  14.471   7.946   4.046
 5082SOL     OW17019   6.350   0.129   4.855
 5082SOL    HW117020   6.400   0.065   4.805
 5082SOL    HW217021   6.260   0.117   4.826
 5083SOL     OW17022   9.133   6.970  11.376
 5083SOL    HW117023   9.191   6.917  11.321
 5083SOL    HW217024   9.138   6.930  11.463
 5084SOL     OW17025  14.757   7.234   9.044
 5084SOL    HW117026  14.696   7.239   8.970
 5084SOL    HW217027  14.829   7.178   9.013
 5085SOL     OW17028   8.461  11.037   7.003
 5085SOL    HW117029   8.375  11.036   6.961
 5085SOL    HW217030   8.456  11.108   7.068
 5086SOL     OW17031   3.346  14.325   3.416
 5086SOL    HW117032   3.387  14.245   3.384
 5086SOL    HW217033   3.419  14.379   3.445
 5087SOL     OW17034   4.498  10.175  10.110
 5087SOL    HW117035   4.465  10.247  10.163
 5087SOL    HW217036   4.553  10.125  10.170
 5088SOL     OW17037   5.209   0.981   9.141
 5088SOL    HW117038   5.148   0.969   9.068
 5088SOL    HW217039   5.162   0.947   9.217
 5089SOL     OW17040   4.354   3.346  11.443
 5089SOL    HW117041   4.348   3.370  11.535
 5089SOL    HW217042   4.427   3.284  11.440
 5090SOL     OW17043  14.092   8.214   2.988
 5090SOL    HW117044  14.106   8.247   3.077
 5090SOL    HW217045  14.176   8.227   2.945
 5091SOL     OW17046   8.441   8.317   9.274
 5091SOL    HW117047   8.474   8.362   9.196
 5091SOL    HW217048   8.439   8.224   9.249
 5092SOL     OW17049   6.438   3.721   7.306
 5092SOL    HW117050   6.455   3.627   7.308
 5092SOL    HW217051   6.473   3.755   7.388
 5093SOL     OW17052   9.746   1.458   5.010
 5093SOL    HW117053   9.753   1.370   4.975
 5093SOL    HW217054   9.747   1.515   4.933
 5094SOL     OW17055   1.000   5.944  11.395
 5094SOL    HW117056   1.038   5.978  11.476
 5094SOL    HW217057   0.939   6.012  11.366
 5095SOL     OW17058  10.737   8.791   7.703
 5095SOL    HW117059  10.712   8.699   7.716
 5095SOL    HW217060  10.658   8.841   7.724
 5096SOL     OW17061  14.186   8.337  10.360
 5096SOL    HW117062  14.119   8.286  10.404
 5096SOL    HW217063  14.252   8.273  10.333
 5097SOL     OW17064  12.767   4.712   2.120
 5097SOL    HW117065  12.723   4.795   2.141
 5097SOL    HW217066  12.762   4.705   2.025
 5098SOL     OW17067  11.611   0.189   3.148
 5098SOL    HW117068  11.694   0.231   3.171
 5098SOL    HW217069  11.555   0.260   3.117
 5099SOL     OW17070   0.656   2.687   4.789
 5099SOL    HW117071   0.645   2.702   4.695
 5099SOL    HW217072   0.569   2.661   4.819
 5100SOL     OW17073   8.635  12.436  14.050
 5100SOL    HW117074   8.698  12.399  13.988
 5100SOL    HW217075   8.581  12.362  14.076
 5101SOL     OW17076   9.168   4.851   9.980
 5101SOL    HW117077   9.130   4.769  10.013
 5101SOL    HW217078   9.116   4.872   9.903
 5102SOL     OW17079  14.577   1.267   9.447
 5102SOL    HW117080  14.482   1.264   9.452
 5102SOL    HW217081  14.597   1.250   9.354
 5103SOL     OW17082   4.311   5.369   5.728
 5103SOL    HW117083   4.331   5.457   5.759
 5103SOL    HW217084   4.269   5.327   5.803
 5104SOL     OW17085   4.122  14.770  11.648
 5104SOL    HW117086   4.174  14.691  11.662
 5104SOL    HW217087   4.136  14.823  11.727
 5105SOL     OW17088   6.468  10.789  11.677
 5105SOL    HW117089   6.487  10.724  11.744
 5105SOL    HW217090   6.400  10.749  11.623
 5106SOL     OW17091  14.590  12.583  12.275
 5106SOL    HW117092  14.637  12.573  12.358
 5106SOL    HW217093  14.635  12.523  12.215
 5107SOL     OW17094   5.717   9.954   4.054
 5107SOL    HW117095   5.696  10.035   4.008
 5107SOL    HW217096   5.769   9.982   4.129
 5108SOL     OW17097  14.778  14.285   5.711
 5108SOL    HW117098  14.843  14.262   5.645
 5108SOL    HW217099  14.725  14.353   5.669
 5109SOL     OW17100  10.198   3.744  13.347
 5109SOL    HW117101  10.140   3.672  13.322
 5109SOL    HW217102  10.142   3.804  13.397
 5110SOL     OW17103  14.289  13.002  12.981
 5110SOL    HW117104  14.357  12.983  12.916
 5110SOL    HW217105  14.330  12.982  13.065
 5111SOL     OW17106   0.800   5.565   0.746
 5111SOL    HW117107   0.738   5.513   0.797
 5111SOL    HW217108   0.753   5.589   0.666
 5112SOL     OW17109   3.956   4.535  10.889
 5112SOL    HW117110   3.898   4.610  10.880
 5112SOL    HW217111   4.044   4.570  10.872
 5113SOL     OW17112  12.315   4.277   8.007
 5113SOL    HW117113  12.228   4.283   8.047
 5113SOL    HW217114  12.343   4.368   7.999
 5114SOL     OW17115   1.091   2.920  11.184
 5114SOL    HW117116   1.059   2.995  11.133
 5114SOL    HW217117   1.014   2.891  11.234
 5115SOL     OW17118   6.792  13.750   2.766
 5115SOL    HW117119   6.738  13.766   2.843
 5115SOL    HW217120   6.869  13.805   2.780
 5116SOL     OW17121   1.229   8.791   3.472
 5116SOL    HW117122   1.207   8.819   3.383
 5116SOL    HW217123   1.293   8.856   3.502
 5117SOL     OW17124  13.812   2.299   9.001
 5117SOL    HW117125  13.862   2.222   9.029
 5117SOL    HW217126  13.752   2.266   8.935
 5118SOL     OW17127   5.136   4.987  12.462
 5118SOL    HW117128   5.076   4.943  12.402
 5118SOL    HW217129   5.141   5.077  12.429
 5119SOL     OW17130   5.350   6.456   0.691
 5119SOL    HW117131   5.360   6.361   0.687
 5119SOL    HW217132   5.355   6.477   0.784
 5120SOL     OW17133   0.056   7.416  14.236
 5120SOL    HW117134   0.142   7.442  14.268
 5120SOL    HW217135   0.059   7.320  14.235
 5121SOL     OW17136   8.420   6.723  12.669
 5121SOL    HW117137   8.502   6.674  12.675
 5121SOL    HW217138   8.447   6.815  12.667
 5122SOL     OW17139   6.601  12.923   6.514
 5122SOL    HW117140   6.656  12.941   6.438
 5122SOL    HW217141   6.644  12.969   6.586
 5123SOL     OW17142   2.346   9.296   5.817
 5123SOL    HW117143   2.253   9.283   5.798
 5123SOL    HW217144   2.352   9.386   5.849
 5124SOL     OW17145  10.524  12.948   5.327
 5124SOL    HW117146  10.564  12.876   5.376
 5124SOL    HW217147  10.436  12.917   5.306
 5125SOL     OW17148  10.115  12.933  14.650
 5125SOL    HW117149  10.098  12.875  14.724
 5125SOL    HW217150  10.051  13.003  14.659
 5126SOL     OW17151   2.140   6.923   4.759
 5126SOL    HW117152   2.146   6.829   4.745
 5126SOL    HW217153   2.180   6.962   4.681
 5127SOL     OW17154   9.110   6.085  12.877
 5127SOL    HW117155   9.022   6.088  12.916
 5127SOL    HW217156   9.150   6.168  12.902
 5128SOL     OW17157  12.665  12.064  10.597
 5128SOL    HW117158  12.606  12.099  10.663
 5128SOL    HW217159  12.639  12.107  10.515
 5129SOL     OW17160   8.969   4.795   7.152
 5129SOL    HW117161   8.899   4.754   7.101
 5129SOL    HW217162   8.925   4.861   7.205
 5130SOL     OW17163   0.903   1.273   0.160
 5130SOL    HW117164   0.988   1.265   0.205
 5130SOL    HW217165   0.850   1.327   0.219
 5131SOL     OW17166   5.914   4.284   3.410
 5131SOL    HW117167   5.981   4.349   3.431
 5131SOL    HW217168   5.839   4.309   3.464
 5132SOL     OW17169   4.544   4.075   6.657
 5132SOL    HW117170   4.630   4.099   6.690
 5132SOL    HW217171   4.493   4.156   6.659
 5133SOL     OW17172  12.002   2.147   3.620
 5133SOL    HW117173  11.916   2.188   3.616
 5133SOL    HW217174  11.986   2.056   3.595
 5134SOL     OW17175   2.358   5.351   5.787
 5134SOL    HW117176   2.368   5.319   5.877
 5134SOL    HW217177   2.330   5.275   5.737
 5135SOL     OW17178  11.417   4.139  14.600
 5135SOL    HW117179  11.437   4.081  14.674
 5135SOL    HW217180  11.332   4.110  14.569
 5136SOL     OW17181   2.685   0.636   5.745
 5136SOL    HW117182   2.628   0.712   5.731
 5136SOL    HW217183   2.754   0.646   5.680
 5137SOL     OW17184  14.740   4.548   8.742
 5137SOL    HW117185  14.816   4.544   8.684
 5137SOL    HW217186  14.775   4.537   8.830
 5138SOL     OW17187   1.693   9.693  13.222
 5138SOL    HW117188   1.702   9.611  13.270
 5138SOL    HW217189   1.621   9.738  13.266
 5139SOL     OW17190   4.605   9.637   8.380
 5139SOL    HW117191   4.582   9.717   8.427
 5139SOL    HW217192   4.605   9.569   8.447
 5140SOL     OW17193  13.328   2.627  14.231
 5140SOL    HW117194  13.251   2.632  14.288
 5140SOL    HW217195  13.294   2.650  14.144
 5141SOL     OW17196   3.934  12.968   8.425
 5141SOL    HW117197   3.848  12.947   8.460
 5141SOL    HW217198   3.939  12.919   8.343
 5142SOL     OW17199   3.480   3.241  11.315
 5142SOL    HW117200   3.545   3.224  11.247
 5142SOL    HW217201   3.432   3.159  11.323
 5143SOL     OW17202   8.377   0.549  13.826
 5143SOL    HW117203   8.456   0.599  13.804
 5143SOL    HW217204   8.378   0.542  13.921
 5144SOL     OW17205   4.740   4.638   8.754
 5144SOL    HW117206   4.671   4.665   8.815
 5144SOL    HW217207   4.694   4.620   8.672
 5145SOL     OW17208   7.689   9.552   2.647
 5145SOL    HW117209   7.635   9.629   2.629
 5145SOL    HW217210   7.628   9.478   2.642
 5146SOL     OW17211  11.841   9.460  11.063
 5146SOL    HW117212  11.906   9.393  11.080
 5146SOL    HW217213  11.826   9.456  10.968
 5147SOL     OW17214   3.980   4.222   7.707
 5147SOL    HW117215   4.058   4.231   7.761
 5147SOL    HW217216   3.982   4.298   7.649
 5148SOL     OW17217  11.743   8.454   2.064
 5148SOL    HW117218  11.665   8.439   2.011
 5148SOL    HW217219  11.812   8.405   2.018
 5149SOL     OW17220   1.955   0.843   3.026
 5149SOL    HW117221   2.010   0.868   2.952
 5149SOL    HW217222   1.928   0.926   3.065
 5150SOL     OW17223   8.740  14.717   3.700
 5150SOL    HW117224   8.722  14.678   3.615
 5150SOL    HW217225   8.779  14.802   3.680
 5151SOL     OW17226   7.742   1.995   7.108
 5151SOL    HW117227   7.687   1.981   7.031
 5151SOL    HW217228   7.766   1.907   7.136
 5152SOL     OW17229   7.050   0.023   7.611
 5152SOL    HW117230   7.006  14.870   7.689
 5152SOL    HW217231   7.035  14.838   7.544
 5153SOL     OW17232   9.469   1.748   9.638
 5153SOL    HW117233   9.483   1.795   9.555
 5153SOL    HW217234   9.384   1.705   9.626
 5154SOL     OW17235   5.516   2.464   8.467
 5154SOL    HW117236   5.588   2.488   8.525
 5154SOL    HW217237   5.535   2.508   8.385
 5155SOL     OW17238   9.320   0.794   1.950
 5155SOL    HW117239   9.305   0.803   2.044
 5155SOL    HW217240   9.250   0.736   1.920
 5156SOL     OW17241  14.421   0.090   8.219
 5156SOL    HW117242  14.476   0.166   8.199
 5156SOL    HW217243  14.455   0.019   8.165
 5157SOL     OW17244   3.390   7.331   3.748
 5157SOL    HW117245   3.355   7.418   3.731
 5157SOL    HW217246   3.360   7.310   3.836
 5158SOL     OW17247  10.885  13.203  11.448
 5158SOL    HW117248  10.904  13.154  11.368
 5158SOL    HW217249  10.864  13.291  11.418
 5159SOL     OW17250   9.160   5.599   4.969
 5159SOL    HW117251   9.075   5.579   5.008
 5159SOL    HW217252   9.194   5.673   5.021
 5160SOL     OW17253   0.245  14.501   1.822
 5160SOL    HW117254   0.237  14.452   1.904
 5160SOL    HW217255   0.200  14.447   1.757
 5161SOL     OW17256   9.038   2.480   2.510
 5161SOL    HW117257   9.095   2.521   2.446
 5161SOL    HW217258   8.956   2.463   2.462
 5162SOL     OW17259  10.543   0.790   0.920
 5162SOL    HW117260  10.463   0.738   0.928
 5162SOL    HW217261  10.583   0.759   0.838
 5163SOL     OW17262   4.243   1.865   6.259
 5163SOL    HW117263   4.311   1.843   6.195
 5163SOL    HW217264   4.188   1.787   6.262
 5164SOL     OW17265   0.535   2.971   4.647
 5164SOL    HW117266   0.556   2.999   4.736
 5164SOL    HW217267   0.486   3.044   4.609
 5165SOL     OW17268  11.371   2.696   9.511
 5165SOL    HW117269  11.284   2.727   9.532
 5165SOL    HW217270  11.410   2.765   9.457
 5166SOL     OW17271  14.879   7.485   3.062
 5166SOL    HW117272   0.074   7.447   3.106
 5166SOL    HW217273  14.844   7.413   3.010
 5167SOL     OW17274   0.613   1.138   5.549
 5167SOL    HW117275   0.518   1.123   5.550
 5167SOL    HW217276   0.640   1.115   5.461
 5168SOL     OW17277  10.355   4.572  10.684
 5168SOL    HW117278  10.268   4.554  10.721
 5168SOL    HW217279  10.352   4.664  10.660
 5169SOL     OW17280   9.070  14.058  11.991
 5169SOL    HW117281   9.045  13.981  12.042
 5169SOL    HW217282   9.136  14.103  12.043
 5170SOL     OW17283  10.322   8.616   2.827
 5170SOL    HW117284  10.352   8.633   2.738
 5170SOL    HW217285  10.294   8.524   2.826
 5171SOL     OW17286  12.759   3.291   9.913
 5171SOL    HW117287  12.694   3.347   9.956
 5171SOL    HW217288  12.708   3.225   9.868
 5172SOL     OW17289   7.585   8.654   5.542
 5172SOL    HW117290   7.492   8.651   5.520
 5172SOL    HW217291   7.610   8.746   5.530
 5173SOL     OW17292   5.978  10.805  11.820
 5173SOL    HW117293   5.946  10.749  11.891
 5173SOL    HW217294   5.903  10.861  11.799
 5174SOL     OW17295   5.005  12.828  10.653
 5174SOL    HW117296   4.910  12.827  10.644
 5174SOL    HW217297   5.035  12.890  10.586
 5175SOL     OW17298   4.459   6.199   3.992
 5175SOL    HW117299   4.549   6.172   4.009
 5175SOL    HW217300   4.438   6.262   4.060
 5176SOL     OW17301   8.616   4.543   4.142
 5176SOL    HW117302   8.542   4.483   4.136
 5176SOL    HW217303   8.642   4.557   4.051
 5177SOL     OW17304   3.430  10.105   8.531
 5177SOL    HW117305   3.457  10.092   8.621
 5177SOL    HW217306   3.447  10.022   8.487
 5178SOL     OW17307   3.158   8.962   2.563
 5178SOL    HW117308   3.244   9.003   2.555
 5178SOL    HW217309   3.113   9.014   2.629
 5179SOL     OW17310   8.945   0.434  11.647
 5179SOL    HW117311   8.881   0.407  11.713
 5179SOL    HW217312   9.019   0.375  11.660
 5180SOL     OW17313   4.739  14.437   0.908
 5180SOL    HW117314   4.835  14.437   0.898
 5180SOL    HW217315   4.718  14.349   0.939
 5181SOL     OW17316   4.931  11.855  10.583
 5181SOL    HW117317   4.913  11.861  10.489
 5181SOL    HW217318   4.978  11.935  10.604
 5182SOL     OW17319   3.329   9.709   2.471
 5182SOL    HW117320   3.325   9.733   2.564
 5182SOL    HW217321   3.262   9.641   2.461
 5183SOL     OW17322   0.508  11.294   6.191
 5183SOL    HW117323   0.497  11.368   6.249
 5183SOL    HW217324   0.443  11.230   6.219
 5184SOL     OW17325  13.866   7.879  14.269
 5184SOL    HW117326  13.932   7.828  14.223
 5184SOL    HW217327  13.915   7.935  14.329
 5185SOL     OW17328  11.408  13.844   6.952
 5185SOL    HW117329  11.407  13.899   6.873
 5185SOL    HW217330  11.494  13.859   6.991
 5186SOL     OW17331  10.768  13.840   4.752
 5186SOL    HW117332  10.703  13.906   4.776
 5186SOL    HW217333  10.729  13.757   4.781
 5187SOL     OW17334   9.004  13.513  14.019
 5187SOL    HW117335   8.966  13.539  14.103
 5187SOL    HW217336   9.098  13.503  14.037
 5188SOL     OW17337   1.524  12.871   8.627
 5188SOL    HW117338   1.507  12.923   8.706
 5188SOL    HW217339   1.575  12.929   8.571
 5189SOL     OW17340   4.845   7.018   4.839
 5189SOL    HW117341   4.755   6.985   4.832
 5189SOL    HW217342   4.888   6.958   4.900
 5190SOL     OW17343  10.260   2.491  13.397
 5190SOL    HW117344  10.289   2.557  13.335
 5190SOL    HW217345  10.305   2.513  13.479
 5191SOL     OW17346  14.541   3.489   8.370
 5191SOL    HW117347  14.476   3.492   8.441
 5191SOL    HW217348  14.623   3.468   8.413
 5192SOL     OW17349  10.738   2.258  14.820
 5192SOL    HW117350  10.796   2.187  14.848
 5192SOL    HW217351  10.796   2.321  14.777
 5193SOL     OW17352  13.209  11.480   0.848
 5193SOL    HW117353  13.121  11.462   0.814
 5193SOL    HW217354  13.245  11.546   0.789
 5194SOL     OW17355  12.102   5.794   8.537
 5194SOL    HW117356  12.045   5.870   8.523
 5194SOL    HW217357  12.115   5.758   8.449
 5195SOL     OW17358   9.505   5.823   2.750
 5195SOL    HW117359   9.474   5.805   2.839
 5195SOL    HW217360   9.600   5.817   2.756
 5196SOL     OW17361   0.136  11.539   1.123
 5196SOL    HW117362   0.169  11.623   1.155
 5196SOL    HW217363   0.066  11.515   1.184
 5197SOL     OW17364  13.259  11.276  12.926
 5197SOL    HW117365  13.304  11.243  13.004
 5197SOL    HW217366  13.290  11.366  12.917
 5198SOL     OW17367   4.045   3.537   3.813
 5198SOL    HW117368   3.997   3.618   3.826
 5198SOL    HW217369   4.046   3.495   3.899
 5199SOL     OW17370  14.085  11.678  11.509
 5199SOL    HW117371  14.161  11.736  11.513
 5199SOL    HW217372  14.108  11.605  11.565
 5200SOL     OW17373  14.262   5.227   5.913
 5200SOL    HW117374  14.332   5.166   5.889
 5200SOL    HW217375  14.283   5.254   6.002
 5201SOL     OW17376   7.949   2.800   8.735
 5201SOL    HW117377   7.981   2.711   8.726
 5201SOL    HW217378   7.867   2.801   8.686
 5202SOL     OW17379   0.339   3.575   8.406
 5202SOL    HW117380   0.339   3.584   8.501
 5202SOL    HW217381   0.420   3.527   8.386
 5203SOL     OW17382  11.813   8.722   4.905
 5203SOL    HW117383  11.838   8.810   4.933
 5203SOL    HW217384  11.895   8.672   4.907
 5204SOL     OW17385   9.734   8.887   7.078
 5204SOL    HW117386   9.826   8.910   7.074
 5204SOL    HW217387   9.697   8.922   6.997
 5205SOL     OW17388   7.009   7.892   9.837
 5205SOL    HW117389   7.063   7.955   9.884
 5205SOL    HW217390   6.948   7.859   9.904
 5206SOL     OW17391   5.991   8.737  14.684
 5206SOL    HW117392   5.936   8.812  14.662
 5206SOL    HW217393   5.963   8.669  14.623
 5207SOL     OW17394  14.545   2.023   8.149
 5207SOL    HW117395  14.506   1.958   8.090
 5207SOL    HW217396  14.559   2.100   8.095
 5208SOL     OW17397   7.710  14.513   4.264
 5208SOL    HW117398   7.761  14.593   4.274
 5208SOL    HW217399   7.619  14.540   4.279
 5209SOL     OW17400   7.601  12.319   8.740
 5209SOL    HW117401   7.528  12.305   8.679
 5209SOL    HW217402   7.668  12.257   8.712
 5210SOL     OW17403   5.181   9.705   9.908
 5210SOL    HW117404   5.220   9.633   9.859
 5210SOL    HW217405   5.086   9.689   9.901
 5211SOL     OW17406   4.516   3.675   4.164
 5211SOL    HW117407   4.505   3.727   4.243
 5211SOL    HW217408   4.472   3.592   4.184
 5212SOL     OW17409   7.226  11.419   1.138
 5212SOL    HW117410   7.176  11.442   1.216
 5212SOL    HW217411   7.226  11.498   1.085
 5213SOL     OW17412   6.570   5.520   4.486
 5213SOL    HW117413   6.611   5.433   4.480
 5213SOL    HW217414   6.636   5.575   4.528
 5214SOL     OW17415   3.168   5.668   7.586
 5214SOL    HW117416   3.129   5.657   7.499
 5214SOL    HW217417   3.117   5.739   7.625
 5215SOL     OW17418  13.404  14.831   2.051
 5215SOL    HW117419  13.486  14.826   2.099
 5215SOL    HW217420  13.377  14.740   2.041
 5216SOL     OW17421  10.629   5.784   8.156
 5216SOL    HW117422  10.582   5.745   8.230
 5216SOL    HW217423  10.574   5.857   8.128
 5217SOL     OW17424   7.069  10.432   6.925
 5217SOL    HW117425   7.096  10.341   6.937
 5217SOL    HW217426   7.035  10.459   7.010
 5218SOL     OW17427   0.995   5.661   5.008
 5218SOL    HW117428   1.075   5.658   5.061
 5218SOL    HW217429   1.026   5.673   4.918
 5219SOL     OW17430   7.481   3.001  11.779
 5219SOL    HW117431   7.401   2.986  11.730
 5219SOL    HW217432   7.510   3.088  11.750
 5220SOL     OW17433  13.809  10.126  14.018
 5220SOL    HW117434  13.804  10.034  13.993
 5220SOL    HW217435  13.804  10.124  14.114
 5221SOL     OW17436  12.188   2.916   6.795
 5221SOL    HW117437  12.273   2.910   6.840
 5221SOL    HW217438  12.205   2.974   6.720
 5222SOL     OW17439   9.582  11.607  14.081
 5222SOL    HW117440   9.547  11.621  13.993
 5222SOL    HW217441   9.641  11.532  14.072
 5223SOL     OW17442  14.609  12.353  14.705
 5223SOL    HW117443  14.519  12.328  14.686
 5223SOL    HW217444  14.643  12.282  14.760
 5224SOL     OW17445   9.951   3.125   7.825
 5224SOL    HW117446  10.007   3.058   7.785
 5224SOL    HW217447   9.999   3.154   7.902
 5225SOL     OW17448   0.374   3.800   5.429
 5225SOL    HW117449   0.282   3.811   5.453
 5225SOL    HW217450   0.380   3.709   5.398
 5226SOL     OW17451   9.934  13.546   8.603
 5226SOL    HW117452   9.945  13.467   8.655
 5226SOL    HW217453   9.921  13.514   8.513
 5227SOL     OW17454  12.390  14.746   9.493
 5227SOL    HW117455  12.479  14.732   9.523
 5227SOL    HW217456  12.376  14.678   9.426
 5228SOL     OW17457  13.830   2.226   6.712
 5228SOL    HW117458  13.924   2.219   6.728
 5228SOL    HW217459  13.799   2.136   6.710
 5229SOL     OW17460  14.560   4.058   0.522
 5229SOL    HW117461  14.601   4.009   0.593
 5229SOL    HW217462  14.632   4.079   0.463
 5230SOL     OW17463   5.554   1.713  13.274
 5230SOL    HW117464   5.628   1.652  13.278
 5230SOL    HW217465   5.571   1.777  13.343
 5231SOL     OW17466   9.964   3.492   8.742
 5231SOL    HW117467   9.874   3.496   8.775
 5231SOL    HW217468  10.002   3.577   8.765
 5232SOL     OW17469   9.651  14.813   3.182
 5232SOL    HW117470   9.635  14.822   3.276
 5232SOL    HW217471   9.712   0.003   3.162
 5233SOL     OW17472   9.393   8.057   8.471
 5233SOL    HW117473   9.459   7.999   8.509
 5233SOL    HW217474   9.324   7.998   8.441
 5234SOL     OW17475   1.165   1.225  13.868
 5234SOL    HW117476   1.190   1.259  13.781
 5234SOL    HW217477   1.201   1.137  13.871
 5235SOL     OW17478   7.938  13.121   5.803
 5235SOL    HW117479   7.991  13.175   5.862
 5235SOL    HW217480   7.860  13.174   5.786
 5236SOL     OW17481  13.505   6.823  12.738
 5236SOL    HW117482  13.458   6.815  12.655
 5236SOL    HW217483  13.484   6.911  12.769
 5237SOL     OW17484  10.095   1.670   9.686
 5237SOL    HW117485  10.106   1.690   9.779
 5237SOL    HW217486  10.067   1.579   9.684
 5238SOL     OW17487   2.734   0.035   2.025
 5238SOL    HW117488   2.671  14.866   1.974
 5238SOL    HW217489   2.754   0.111   1.972
 5239SOL     OW17490   6.884  14.392   8.731
 5239SOL    HW117491   6.842  14.348   8.657
 5239SOL    HW217492   6.941  14.327   8.770
 5240SOL     OW17493   5.694  12.971   3.849
 5240SOL    HW117494   5.703  13.065   3.861
 5240SOL    HW217495   5.649  12.941   3.928
 5241SOL     OW17496   1.704   6.633   2.951
 5241SOL    HW117497   1.668   6.637   2.862
 5241SOL    HW217498   1.781   6.691   2.947
 5242SOL     OW17499   0.637  13.849   1.372
 5242SOL    HW117500   0.633  13.837   1.467
 5242SOL    HW217501   0.594  13.933   1.357
 5243SOL     OW17502   6.231   0.737   2.432
 5243SOL    HW117503   6.221   0.819   2.384
 5243SOL    HW217504   6.147   0.723   2.475
 5244SOL     OW17505   9.118  12.337  14.061
 5244SOL    HW117506   9.092  12.286  14.138
 5244SOL    HW217507   9.143  12.271  13.996
 5245SOL     OW17508  12.337  14.722   7.268
 5245SOL    HW117509  12.330  14.738   7.362
 5245SOL    HW217510  12.249  14.734   7.234
 5246SOL     OW17511  14.135   8.361   4.046
 5246SOL    HW117512  14.096   8.445   4.021
 5246SOL    HW217513  14.126   8.307   3.967
 5247SOL     OW17514  13.709  11.286  10.899
 5247SOL    HW117515  13.800  11.285  10.930
 5247SOL    HW217516  13.682  11.377  10.907
 5248SOL     OW17517  13.690   7.086   7.179
 5248SOL    HW117518  13.774   7.127   7.201
 5248SOL    HW217519  13.694   7.073   7.084
 5249SOL     OW17520   3.912  12.600   2.524
 5249SOL    HW117521   3.839  12.539   2.515
 5249SOL    HW217522   3.960  12.592   2.442
 5250SOL     OW17523   3.951   3.478  14.243
 5250SOL    HW117524   3.930   3.409  14.180
 5250SOL    HW217525   4.044   3.467  14.262
 5251SOL     OW17526  13.592   7.049  12.867
 5251SOL    HW117527  13.648   7.002  12.929
 5251SOL    HW217528  13.561   7.125  12.915
 5252SOL     OW17529   9.232   8.046  11.719
 5252SOL    HW117530   9.325   8.023  11.723
 5252SOL    HW217531   9.222   8.088  11.633
 5253SOL     OW17532  10.798  10.296   3.142
 5253SOL    HW117533  10.797  10.386   3.109
 5253SOL    HW217534  10.837  10.302   3.229
 5254SOL     OW17535  11.109   4.549   3.944
 5254SOL    HW117536  11.052   4.595   4.005
 5254SOL    HW217537  11.050   4.501   3.887
 5255SOL     OW17538   1.332  14.289   0.834
 5255SOL    HW117539   1.406  14.349   0.841
 5255SOL    HW217540   1.337  14.236   0.914
 5256SOL     OW17541  12.977  11.966  13.208
 5256SOL    HW117542  12.976  12.037  13.273
 5256SOL    HW217543  13.064  11.971  13.168
 5257SOL     OW17544  12.422   5.189   1.096
 5257SOL    HW117545  12.398   5.236   1.177
 5257SOL    HW217546  12.393   5.100   1.111
 5258SOL     OW17547   8.106   3.051   2.948
 5258SOL    HW117548   8.086   3.134   2.905
 5258SOL    HW217549   8.178   3.014   2.898
 5259SOL     OW17550  11.824  13.103  12.185
 5259SOL    HW117551  11.898  13.096  12.125
 5259SOL    HW217552  11.774  13.177  12.152
 5260SOL     OW17553   6.661  13.598   7.209
 5260SOL    HW117554   6.731  13.536   7.190
 5260SOL    HW217555   6.676  13.671   7.148
 5261SOL     OW17556   7.644  10.949  14.430
 5261SOL    HW117557   7.710  10.880  14.438
 5261SOL    HW217558   7.572  10.920  14.485
 5262SOL     OW17559  14.480   9.976   5.776
 5262SOL    HW117560  14.471   9.958   5.870
 5262SOL    HW217561  14.406  10.034   5.756
 5263SOL     OW17562   4.925   3.067  12.456
 5263SOL    HW117563   4.873   3.032  12.384
 5263SOL    HW217564   4.954   2.990  12.505
 5264SOL     OW17565   3.678   8.779  10.126
 5264SOL    HW117566   3.619   8.797  10.198
 5264SOL    HW217567   3.765   8.778  10.166
 5265SOL     OW17568   0.976  10.121   8.830
 5265SOL    HW117569   1.045  10.184   8.852
 5265SOL    HW217570   1.004  10.039   8.872
 5266SOL     OW17571   8.173  10.641   1.372
 5266SOL    HW117572   8.185  10.697   1.295
 5266SOL    HW217573   8.260  10.639   1.413
 5267SOL     OW17574   2.431  13.869  10.030
 5267SOL    HW117575   2.438  13.828  10.116
 5267SOL    HW217576   2.514  13.916  10.019
 5268SOL     OW17577   2.110  11.345   3.575
 5268SOL    HW117578   2.144  11.386   3.655
 5268SOL    HW217579   2.166  11.269   3.562
 5269SOL     OW17580   7.394  11.136  11.157
 5269SOL    HW117581   7.309  11.123  11.115
 5269SOL    HW217582   7.447  11.061  11.130
 5270SOL     OW17583   9.727   3.809  10.105
 5270SOL    HW117584   9.731   3.824  10.199
 5270SOL    HW217585   9.647   3.854  10.077
 5271SOL     OW17586   7.545   7.415   7.019
 5271SOL    HW117587   7.626   7.413   6.968
 5271SOL    HW217588   7.507   7.328   7.007
 5272SOL     OW17589   2.387   6.938  13.437
 5272SOL    HW117590   2.338   7.010  13.476
 5272SOL    HW217591   2.465   6.930  13.492
 5273SOL     OW17592   8.696  12.554  13.203
 5273SOL    HW117593   8.787  12.562  13.174
 5273SOL    HW217594   8.682  12.630  13.259
 5274SOL     OW17595  11.744   7.668  13.335
 5274SOL    HW117596  11.820   7.615  13.358
 5274SOL    HW217597  11.684   7.607  13.294
 5275SOL     OW17598  13.739   5.785   5.922
 5275SOL    HW117599  13.802   5.764   5.853
 5275SOL    HW217600  13.725   5.879   5.913
 5276SOL     OW17601   6.331   7.395  10.674
 5276SOL    HW117602   6.360   7.305  10.689
 5276SOL    HW217603   6.245   7.401  10.716
 5277SOL     OW17604   6.826  10.627   2.359
 5277SOL    HW117605   6.884  10.656   2.429
 5277SOL    HW217606   6.856  10.539   2.338
 5278SOL     OW17607   2.047   7.180   6.888
 5278SOL    HW117608   2.014   7.095   6.916
 5278SOL    HW217609   2.070   7.225   6.969
 5279SOL     OW17610  11.453  12.706   4.904
 5279SOL    HW117611  11.484  12.623   4.870
 5279SOL    HW217612  11.533  12.758   4.918
 5280SOL     OW17613   0.919   1.535   6.189
 5280SOL    HW117614   0.962   1.559   6.271
 5280SOL    HW217615   0.973   1.465   6.153
 5281SOL     OW17616   0.727  12.390   3.128
 5281SOL    HW117617   0.817  12.395   3.097
 5281SOL    HW217618   0.695  12.306   3.096
 5282SOL     OW17619   9.575   5.563  13.598
 5282SOL    HW117620   9.505   5.573  13.663
 5282SOL    HW217621   9.652   5.600  13.641
 5283SOL     OW17622   0.586   5.623   2.501
 5283SOL    HW117623   0.588   5.570   2.421
 5283SOL    HW217624   0.493   5.637   2.518
 5284SOL     OW17625   0.411   6.797   3.226
 5284SOL    HW117626   0.477   6.841   3.279
 5284SOL    HW217627   0.460   6.763   3.150
 5285SOL     OW17628  12.226   0.778  10.898
 5285SOL    HW117629  12.311   0.803  10.862
 5285SOL    HW217630  12.173   0.858  10.894
 5286SOL     OW17631   1.275   0.094  11.108
 5286SOL    HW117632   1.314   0.008  11.118
 5286SOL    HW217633   1.192   0.089  11.156
 5287SOL     OW17634  11.128  12.122  12.472
 5287SOL    HW117635  11.100  12.095  12.384
 5287SOL    HW217636  11.098  12.052  12.529
 5288SOL     OW17637  12.413   4.493   5.114
 5288SOL    HW117638  12.423   4.578   5.156
 5288SOL    HW217639  12.466   4.433   5.167
 5289SOL     OW17640  10.186  12.882   0.431
 5289SOL    HW117641  10.102  12.910   0.467
 5289SOL    HW217642  10.209  12.950   0.368
 5290SOL     OW17643   5.215   5.630   8.930
 5290SOL    HW117644   5.289   5.569   8.937
 5290SOL    HW217645   5.237   5.686   8.856
 5291SOL     OW17646   5.220   6.287   9.908
 5291SOL    HW117647   5.278   6.354   9.944
 5291SOL    HW217648   5.216   6.220   9.976
 5292SOL     OW17649  13.885   6.281  12.052
 5292SOL    HW117650  13.947   6.238  11.994
 5292SOL    HW217651  13.939   6.343  12.102
 5293SOL     OW17652  11.299   0.369  10.289
 5293SOL    HW117653  11.309   0.274  10.302
 5293SOL    HW217654  11.382   0.406  10.318
 5294SOL     OW17655   6.686   7.512   6.547
 5294SOL    HW117656   6.712   7.562   6.624
 5294SOL    HW217657   6.755   7.530   6.483
 5295SOL     OW17658  11.565  14.496  12.998
 5295SOL    HW117659  11.479  14.454  12.997
 5295SOL    HW217660  11.627  14.424  13.000
 5296SOL     OW17661  14.697   7.278   9.571
 5296SOL    HW117662  14.724   7.220   9.642
 5296SOL    HW217663  14.689   7.221   9.495
 5297SOL     OW17664  12.817   1.333  14.511
 5297SOL    HW117665  12.790   1.348  14.420
 5297SOL    HW217666  12.743   1.286  14.550
 5298SOL     OW17667   1.581   8.901   2.582
 5298SOL    HW117668   1.651   8.865   2.528
 5298SOL    HW217669   1.581   8.995   2.563
 5299SOL     OW17670   8.719   7.478  12.165
 5299SOL    HW117671   8.687   7.567  12.177
 5299SOL    HW217672   8.814   7.485  12.170
 5300SOL     OW17673  14.453  14.365   9.192
 5300SOL    HW117674  14.500  14.310   9.129
 5300SOL    HW217675  14.361  14.341   9.181
 5301SOL     OW17676   1.082   8.102   3.362
 5301SOL    HW117677   1.170   8.113   3.397
 5301SOL    HW217678   1.083   8.151   3.280
 5302SOL     OW17679  13.572   2.460   0.994
 5302SOL    HW117680  13.522   2.459   0.912
 5302SOL    HW217681  13.625   2.540   0.989
 5303SOL     OW17682  13.097  10.407   3.419
 5303SOL    HW117683  13.029  10.433   3.481
 5303SOL    HW217684  13.115  10.315   3.440
 5304SOL     OW17685   0.808   7.203   6.319
 5304SOL    HW117686   0.791   7.275   6.379
 5304SOL    HW217687   0.762   7.227   6.239
 5305SOL     OW17688   3.514   7.092   1.685
 5305SOL    HW117689   3.451   7.093   1.613
 5305SOL    HW217690   3.472   7.144   1.754
 5306SOL     OW17691   3.742   5.532   4.482
 5306SOL    HW117692   3.734   5.443   4.448
 5306SOL    HW217693   3.821   5.530   4.536
 5307SOL     OW17694   3.145  14.646   4.686
 5307SOL    HW117695   3.146  14.715   4.619
 5307SOL    HW217696   3.061  14.659   4.731
 5308SOL     OW17697   2.973  10.182  11.387
 5308SOL    HW117698   2.903  10.244  11.369
 5308SOL    HW217699   3.048  10.236  11.414
 5309SOL     OW17700   6.205   9.159   6.705
 5309SOL    HW117701   6.120   9.197   6.724
 5309SOL    HW217702   6.245   9.220   6.643
 5310SOL     OW17703   3.662   9.396   2.528
 5310SOL    HW117704   3.613   9.375   2.608
 5310SOL    HW217705   3.677   9.312   2.486
 5311SOL     OW17706   6.311   3.849  14.101
 5311SOL    HW117707   6.362   3.772  14.125
 5311SOL    HW217708   6.277   3.830  14.014
 5312SOL     OW17709  13.435  13.249   8.206
 5312SOL    HW117710  13.481  13.291   8.133
 5312SOL    HW217711  13.393  13.172   8.167
 5313SOL     OW17712  10.931   5.005   9.935
 5313SOL    HW117713  10.843   4.969   9.923
 5313SOL    HW217714  10.919   5.099   9.932
 5314SOL     OW17715   6.727   9.493   7.549
 5314SOL    HW117716   6.659   9.501   7.482
 5314SOL    HW217717   6.706   9.412   7.595
 5315SOL     OW17718   5.296   2.666   1.990
 5315SOL    HW117719   5.316   2.752   2.027
 5315SOL    HW217720   5.287   2.682   1.896
 5316SOL     OW17721   5.353   1.844  14.306
 5316SOL    HW117722   5.436   1.807  14.276
 5316SOL    HW217723   5.369   1.939  14.309
 5317SOL     OW17724   4.485   5.575  11.044
 5317SOL    HW117725   4.432   5.575  11.123
 5317SOL    HW217726   4.508   5.666  11.030
 5318SOL     OW17727   4.765   6.031  10.458
 5318SOL    HW117728   4.718   5.966  10.511
 5318SOL    HW217729   4.823   5.978  10.403
 5319SOL     OW17730  11.217   4.562  13.633
 5319SOL    HW117731  11.128   4.592  13.615
 5319SOL    HW217732  11.208   4.466  13.639
 5320SOL     OW17733  13.237  10.611   3.253
 5320SOL    HW117734  13.185  10.563   3.317
 5320SOL    HW217735  13.325  10.573   3.261
 5321SOL     OW17736  13.384  13.319  11.692
 5321SOL    HW117737  13.477  13.337  11.707
 5321SOL    HW217738  13.349  13.401  11.659
 5322SOL     OW17739   8.662   0.127  13.634
 5322SOL    HW117740   8.592   0.086  13.583
 5322SOL    HW217741   8.622   0.147  13.718
 5323SOL     OW17742   1.475   0.218   1.093
 5323SOL    HW117743   1.405   0.282   1.108
 5323SOL    HW217744   1.430   0.143   1.055
 5324SOL     OW17745   7.099  14.719  12.009
 5324SOL    HW117746   7.113  14.649  11.946
 5324SOL    HW217747   7.137  14.797  11.967
 5325SOL     OW17748   6.441   4.392   8.509
 5325SOL    HW117749   6.393   4.393   8.427
 5325SOL    HW217750   6.489   4.309   8.509
 5326SOL     OW17751  11.549   0.654   2.680
 5326SOL    HW117752  11.597   0.721   2.631
 5326SOL    HW217753  11.468   0.698   2.707
 5327SOL     OW17754   4.586  12.990  14.145
 5327SOL    HW117755   4.557  12.989  14.054
 5327SOL    HW217756   4.538  12.918  14.187
 5328SOL     OW17757   9.936   6.028   0.855
 5328SOL    HW117758   9.845   6.058   0.849
 5328SOL    HW217759   9.964   6.020   0.763
 5329SOL     OW17760  13.038  10.157   4.091
 5329SOL    HW117761  13.032  10.105   4.011
 5329SOL    HW217762  13.000  10.101   4.159
 5330SOL     OW17763   2.284   1.602  14.097
 5330SOL    HW117764   2.188   1.597  14.090
 5330SOL    HW217765   2.304   1.552  14.176
 5331SOL     OW17766   7.823   7.453   1.836
 5331SOL    HW117767   7.786   7.365   1.835
 5331SOL    HW217768   7.845   7.470   1.745
 5332SOL     OW17769   9.576   6.022   5.996
 5332SOL    HW117770   9.526   5.984   5.923
 5332SOL    HW217771   9.651   6.063   5.955
 5333SOL     OW17772   0.538  14.466   5.987
 5333SOL    HW117773   0.450  14.462   6.024
 5333SOL    HW217774   0.596  14.466   6.063
 5334SOL     OW17775  10.268   1.365   3.241
 5334SOL    HW117776  10.275   1.271   3.224
 5334SOL    HW217777  10.174   1.380   3.252
 5335SOL     OW17778   7.941  11.860   1.321
 5335SOL    HW117779   7.891  11.819   1.251
 5335SOL    HW217780   8.031  11.830   1.308
 5336SOL     OW17781   1.848   6.446   7.202
 5336SOL    HW117782   1.781   6.507   7.169
 5336SOL    HW217783   1.826   6.436   7.295
 5337SOL     OW17784   0.628  12.449   0.243
 5337SOL    HW117785   0.666  12.411   0.164
 5337SOL    HW217786   0.550  12.495   0.212
 5338SOL     OW17787   4.123   4.319  12.699
 5338SOL    HW117788   4.063   4.388  12.727
 5338SOL    HW217789   4.154   4.280  12.781
 5339SOL     OW17790   8.980   8.122   6.790
 5339SOL    HW117791   9.038   8.135   6.865
 5339SOL    HW217792   9.033   8.073   6.727
 5340SOL     OW17793  13.399  12.853   3.698
 5340SOL    HW117794  13.472  12.908   3.725
 5340SOL    HW217795  13.378  12.881   3.609
 5341SOL     OW17796  11.537   9.419  10.484
 5341SOL    HW117797  11.563   9.507  10.512
 5341SOL    HW217798  11.531   9.369  10.566
 5342SOL     OW17799   0.604   3.741  12.465
 5342SOL    HW117800   0.609   3.831  12.432
 5342SOL    HW217801   0.511   3.719  12.458
 5343SOL     OW17802  11.926   5.705   2.904
 5343SOL    HW117803  11.851   5.661   2.865
 5343SOL    HW217804  11.987   5.718   2.832
 5344SOL     OW17805  10.035   4.329  12.384
 5344SOL    HW117806   9.966   4.263  12.378
 5344SOL    HW217807   9.994   4.409  12.350
 5345SOL     OW17808  11.671   9.086   5.106
 5345SOL    HW117809  11.754   9.061   5.065
 5345SOL    HW217810  11.606   9.031   5.064
 5346SOL     OW17811   3.833   1.498  14.541
 5346SOL    HW117812   3.855   1.584  14.576
 5346SOL    HW217813   3.759   1.516  14.482
 5347SOL     OW17814  14.790  11.926   3.268
 5347SOL    HW117815  14.803  11.938   3.362
 5347SOL    HW217816  14.744  12.006   3.240
 5348SOL     OW17817   0.141   3.113  13.925
 5348SOL    HW117818   0.165   3.156  14.007
 5348SOL    HW217819   0.051   3.142  13.909
 5349SOL     OW17820  11.833  14.733  10.338
 5349SOL    HW117821  11.879  14.733  10.422
 5349SOL    HW217822  11.869  14.658  10.291
 5350SOL     OW17823  12.902   1.195   1.462
 5350SOL    HW117824  12.909   1.113   1.412
 5350SOL    HW217825  12.820   1.187   1.510
 5351SOL     OW17826   6.285   1.060  14.144
 5351SOL    HW117827   6.251   1.043  14.056
 5351SOL    HW217828   6.380   1.056  14.134
 5352SOL     OW17829   0.482   6.817   9.894
 5352SOL    HW117830   0.466   6.726   9.916
 5352SOL    HW217831   0.400   6.848   9.857
 5353SOL     OW17832   5.004  10.825  13.890
 5353SOL    HW117833   4.962  10.836  13.804
 5353SOL    HW217834   4.995  10.732  13.910
 5354SOL     OW17835   8.135   8.432   6.588
 5354SOL    HW117836   8.046   8.404   6.567
 5354SOL    HW217837   8.135   8.441   6.683
 5355SOL     OW17838   3.340   0.826   0.765
 5355SOL    HW117839   3.288   0.746   0.754
 5355SOL    HW217840   3.376   0.842   0.678
 5356SOL     OW17841   5.434   5.448   8.193
 5356SOL    HW117842   5.339   5.447   8.203
 5356SOL    HW217843   5.461   5.360   8.219
 5357SOL     OW17844   1.530  11.264   9.526
 5357SOL    HW117845   1.566  11.317   9.597
 5357SOL    HW217846   1.445  11.235   9.557
 5358SOL     OW17847  12.367   6.639   9.945
 5358SOL    HW117848  12.361   6.716   9.889
 5358SOL    HW217849  12.440   6.657  10.004
 5359SOL     OW17850  11.831   7.918   7.287
 5359SOL    HW117851  11.767   7.949   7.351
 5359SOL    HW217852  11.915   7.920   7.333
 5360SOL     OW17853   3.180   9.759   9.403
 5360SOL    HW117854   3.249   9.797   9.457
 5360SOL    HW217855   3.226   9.705   9.338
 5361SOL     OW17856  12.414  12.742  12.757
 5361SOL    HW117857  12.348  12.781  12.700
 5361SOL    HW217858  12.487  12.721  12.699
 5362SOL     OW17859   7.204   2.272   6.134
 5362SOL    HW117860   7.172   2.185   6.157
 5362SOL    HW217861   7.298   2.260   6.120
 5363SOL     OW17862  11.090   0.047   0.451
 5363SOL    HW117863  11.110  14.841   0.484
 5363SOL    HW217864  11.125   0.106   0.518
 5364SOL     OW17865   6.737   3.157  14.605
 5364SOL    HW117866   6.833   3.160  14.601
 5364SOL    HW217867   6.714   3.077  14.558
 5365SOL     OW17868  11.038   3.924   6.295
 5365SOL    HW117869  11.087   3.849   6.261
 5365SOL    HW217870  10.970   3.940   6.229
 5366SOL     OW17871   5.618   5.876   0.180
 5366SOL    HW117872   5.546   5.849   0.123
 5366SOL    HW217873   5.695   5.832   0.144
 5367SOL     OW17874  12.447   0.208   0.357
 5367SOL    HW117875  12.420   0.120   0.328
 5367SOL    HW217876  12.443   0.261   0.278
 5368SOL     OW17877  11.622  12.038   8.426
 5368SOL    HW117878  11.638  11.980   8.500
 5368SOL    HW217879  11.569  11.987   8.365
 5369SOL     OW17880   7.540   4.965   9.478
 5369SOL    HW117881   7.622   5.015   9.476
 5369SOL    HW217882   7.498   4.984   9.395
 5370SOL     OW17883  12.753  13.042  10.151
 5370SOL    HW117884  12.713  13.126  10.171
 5370SOL    HW217885  12.846  13.061  10.138
 5371SOL     OW17886   9.547  11.094   3.634
 5371SOL    HW117887   9.499  11.013   3.619
 5371SOL    HW217888   9.499  11.160   3.584
 5372SOL     OW17889   8.004  14.419  13.416
 5372SOL    HW117890   7.952  14.469  13.479
 5372SOL    HW217891   8.028  14.484  13.350
 5373SOL     OW17892   7.482   6.257   5.427
 5373SOL    HW117893   7.445   6.343   5.445
 5373SOL    HW217894   7.559   6.275   5.373
 5374SOL     OW17895  14.798   8.224   3.042
 5374SOL    HW117896  14.863   8.155   3.044
 5374SOL    HW217897  14.815   8.272   2.961
 5375SOL     OW17898  10.865   1.105   1.749
 5375SOL    HW117899  10.866   1.149   1.833
 5375SOL    HW217900  10.850   1.175   1.685
 5376SOL     OW17901  14.233  11.479   1.748
 5376SOL    HW117902  14.311  11.471   1.694
 5376SOL    HW217903  14.174  11.536   1.697
 5377SOL     OW17904  14.388   6.428   8.130
 5377SOL    HW117905  14.313   6.375   8.102
 5377SOL    HW217906  14.444   6.368   8.179
 5378SOL     OW17907   1.205   9.202  11.175
 5378SOL    HW117908   1.252   9.262  11.234
 5378SOL    HW217909   1.117   9.196  11.212
 5379SOL     OW17910   5.497   4.200  12.880
 5379SOL    HW117911   5.589   4.181  12.899
 5379SOL    HW217912   5.454   4.115  12.885
 5380SOL     OW17913   0.844  13.894   4.388
 5380SOL    HW117914   0.824  13.888   4.295
 5380SOL    HW217915   0.775  13.951   4.423
 5381SOL     OW17916   3.176   4.545  14.134
 5381SOL    HW117917   3.255   4.498  14.106
 5381SOL    HW217918   3.151   4.598  14.059
 5382SOL     OW17919   4.446   3.774  12.836
 5382SOL    HW117920   4.389   3.805  12.766
 5382SOL    HW217921   4.445   3.679  12.828
 5383SOL     OW17922   4.395  14.313  12.611
 5383SOL    HW117923   4.406  14.364  12.692
 5383SOL    HW217924   4.380  14.379  12.543
 5384SOL     OW17925   4.890   8.991   7.977
 5384SOL    HW117926   4.946   9.054   7.932
 5384SOL    HW217927   4.806   9.036   7.986
 5385SOL     OW17928   1.994   0.133   9.295
 5385SOL    HW117929   1.971   0.171   9.210
 5385SOL    HW217930   2.084   0.105   9.285
 5386SOL     OW17931  10.265   1.761   4.395
 5386SOL    HW117932  10.348   1.797   4.427
 5386SOL    HW217933  10.235   1.824   4.329
 5387SOL     OW17934  11.542  11.319  14.526
 5387SOL    HW117935  11.635  11.293  14.521
 5387SOL    HW217936  11.545  11.412  14.548
 5388SOL     OW17937   5.194  14.338   2.760
 5388SOL    HW117938   5.175  14.245   2.753
 5388SOL    HW217939   5.119  14.382   2.721
 5389SOL     OW17940  10.245   4.989   1.095
 5389SOL    HW117941  10.176   5.021   1.153
 5389SOL    HW217942  10.198   4.942   1.025
 5390SOL     OW17943   4.274   9.517  14.293
 5390SOL    HW117944   4.307   9.428  14.286
 5390SOL    HW217945   4.225   9.532  14.213
 5391SOL     OW17946   5.172   0.816  12.701
 5391SOL    HW117947   5.104   0.859  12.752
 5391SOL    HW217948   5.137   0.728  12.683
 5392SOL     OW17949   2.129  12.372   3.462
 5392SOL    HW117950   2.125  12.439   3.530
 5392SOL    HW217951   2.074  12.301   3.495
 5393SOL     OW17952   6.600  10.660   4.168
 5393SOL    HW117953   6.666  10.727   4.186
 5393SOL    HW217954   6.585  10.618   4.252
 5394SOL     OW17955   5.643   5.591   5.067
 5394SOL    HW117956   5.698   5.541   5.006
 5394SOL    HW217957   5.658   5.550   5.152
 5395SOL     OW17958   9.795   2.697   6.704
 5395SOL    HW117959   9.890   2.705   6.711
 5395SOL    HW217960   9.780   2.607   6.674
 5396SOL     OW17961  12.916   5.086  12.440
 5396SOL    HW117962  12.865   5.077  12.521
 5396SOL    HW217963  12.885   5.014  12.384
 5397SOL     OW17964   6.018   7.553  12.916
 5397SOL    HW117965   6.073   7.615  12.964
 5397SOL    HW217966   5.955   7.522  12.980
 5398SOL     OW17967   2.482   5.240  12.989
 5398SOL    HW117968   2.441   5.300  12.928
 5398SOL    HW217969   2.463   5.276  13.076
 5399SOL     OW17970   2.360   0.827   6.049
 5399SOL    HW117971   2.392   0.868   6.129
 5399SOL    HW217972   2.371   0.734   6.064
 5400SOL     OW17973  13.091   6.811  11.089
 5400SOL    HW117974  13.066   6.861  11.167
 5400SOL    HW217975  13.048   6.857  11.017
 5401SOL     OW17976  11.549  14.452  10.653
 5401SOL    HW117977  11.489  14.443  10.579
 5401SOL    HW217978  11.611  14.380  10.643
 5402SOL     OW17979   2.430   7.080   5.563
 5402SOL    HW117980   2.457   7.011   5.502
 5402SOL    HW217981   2.356   7.123   5.520
 5403SOL     OW17982  13.208  10.256   2.611
 5403SOL    HW117983  13.262  10.331   2.586
 5403SOL    HW217984  13.203  10.262   2.707
 5404SOL     OW17985   6.069   7.427   8.216
 5404SOL    HW117986   6.015   7.496   8.255
 5404SOL    HW217987   6.133   7.474   8.162
 5405SOL     OW17988  11.437  11.942  12.007
 5405SOL    HW117989  11.407  11.858  11.974
 5405SOL    HW217990  11.367  12.004  11.984
 5406SOL     OW17991   6.007   3.468   3.989
 5406SOL    HW117992   5.962   3.535   3.938
 5406SOL    HW217993   6.041   3.515   4.065
 5407SOL     OW17994   5.895   0.498  10.729
 5407SOL    HW117995   5.901   0.413  10.684
 5407SOL    HW217996   5.801   0.519  10.728
 5408SOL     OW17997  12.577   2.225   1.480
 5408SOL    HW117998  12.585   2.253   1.388
 5408SOL    HW217999  12.652   2.167   1.493
 5409SOL     OW18000  14.377  12.051   7.996
 5409SOL    HW118001  14.445  11.984   7.993
 5409SOL    HW218002  14.313  12.018   8.059
 5410SOL     OW18003  13.458   2.824   8.464
 5410SOL    HW118004  13.526   2.822   8.397
 5410SOL    HW218005  13.400   2.752   8.441
 5411SOL     OW18006  10.489  10.921   6.244
 5411SOL    HW118007  10.397  10.950   6.249
 5411SOL    HW218008  10.532  10.987   6.191
 5412SOL     OW18009  10.122   8.923   1.075
 5412SOL    HW118010  10.047   8.920   1.135
 5412SOL    HW218011  10.112   9.005   1.028
 5413SOL     OW18012  12.885   0.512   2.249
 5413SOL    HW118013  12.812   0.510   2.311
 5413SOL    HW218014  12.867   0.438   2.189
 5414SOL     OW18015  13.364   4.240   3.243
 5414SOL    HW118016  13.287   4.186   3.226
 5414SOL    HW218017  13.338   4.299   3.313
 5415SOL     OW18018  12.578   6.164   6.102
 5415SOL    HW118019  12.512   6.150   6.034
 5415SOL    HW218020  12.647   6.101   6.081
 5416SOL     OW18021   3.492   8.522   7.335
 5416SOL    HW118022   3.400   8.513   7.359
 5416SOL    HW218023   3.528   8.583   7.399
 5417SOL     OW18024   0.737   5.956   5.992
 5417SOL    HW118025   0.731   5.962   6.087
 5417SOL    HW218026   0.768   6.043   5.965
 5418SOL     OW18027   3.978   8.737   8.907
 5418SOL    HW118028   4.019   8.721   8.822
 5418SOL    HW218029   3.902   8.679   8.909
 5419SOL     OW18030  13.822  13.468  10.635
 5419SOL    HW118031  13.840  13.379  10.605
 5419SOL    HW218032  13.801  13.458  10.728
 5420SOL     OW18033   4.615   2.404  10.923
 5420SOL    HW118034   4.592   2.318  10.958
 5420SOL    HW218035   4.580   2.404  10.834
 5421SOL     OW18036   9.853   7.106  13.027
 5421SOL    HW118037   9.899   7.029  12.992
 5421SOL    HW218038   9.824   7.153  12.949
 5422SOL     OW18039  10.210   9.460   5.473
 5422SOL    HW118040  10.292   9.423   5.441
 5422SOL    HW218041  10.232   9.495   5.559
 5423SOL     OW18042  11.945  14.513   4.002
 5423SOL    HW118043  11.998  14.587   3.973
 5423SOL    HW218044  11.864  14.553   4.035
 5424SOL     OW18045   6.568   7.354   0.506
 5424SOL    HW118046   6.605   7.365   0.418
 5424SOL    HW218047   6.528   7.439   0.527
 5425SOL     OW18048  10.209  11.162   3.436
 5425SOL    HW118049  10.139  11.160   3.500
 5425SOL    HW218050  10.214  11.073   3.402
 5426SOL     OW18051   5.722   0.638   8.395
 5426SOL    HW118052   5.748   0.642   8.303
 5426SOL    HW218053   5.804   0.628   8.443
 5427SOL     OW18054   8.047   9.660  10.908
 5427SOL    HW118055   8.096   9.631  10.831
 5427SOL    HW218056   7.970   9.602  10.911
 5428SOL     OW18057   0.930   3.104   2.278
 5428SOL    HW118058   0.850   3.088   2.329
 5428SOL    HW218059   0.963   3.187   2.312
 5429SOL     OW18060   3.707   0.511   5.433
 5429SOL    HW118061   3.784   0.507   5.375
 5429SOL    HW218062   3.678   0.420   5.441
 5430SOL     OW18063   9.780   5.038   5.330
 5430SOL    HW118064   9.850   5.041   5.396
 5430SOL    HW218065   9.811   5.096   5.260
 5431SOL     OW18066   6.710  11.235   4.597
 5431SOL    HW118067   6.636  11.262   4.652
 5431SOL    HW218068   6.783  11.287   4.629
 5432SOL     OW18069   8.383   5.661   9.390
 5432SOL    HW118070   8.456   5.723   9.404
 5432SOL    HW218071   8.368   5.663   9.296
 5433SOL     OW18072   3.092   5.987   7.069
 5433SOL    HW118073   3.135   6.046   7.007
 5433SOL    HW218074   3.155   5.977   7.140
 5434SOL     OW18075   3.252   9.045  11.349
 5434SOL    HW118076   3.286   8.956  11.338
 5434SOL    HW218077   3.178   9.050  11.288
 5435SOL     OW18078  11.448   2.169  13.749
 5435SOL    HW118079  11.468   2.160  13.843
 5435SOL    HW218080  11.515   2.115  13.705
 5436SOL     OW18081   7.473  11.136   8.916
 5436SOL    HW118082   7.510  11.063   8.966
 5436SOL    HW218083   7.382  11.111   8.901
 5437SOL     OW18084   1.546   1.709  11.607
 5437SOL    HW118085   1.537   1.707  11.702
 5437SOL    HW218086   1.506   1.793  11.581
 5438SOL     OW18087   4.326   5.467   9.133
 5438SOL    HW118088   4.405   5.502   9.092
 5438SOL    HW218089   4.344   5.471   9.227
 5439SOL     OW18090   3.749  12.520   0.177
 5439SOL    HW118091   3.796  12.591   0.132
 5439SOL    HW218092   3.780  12.525   0.267
 5440SOL     OW18093   6.387   6.693   5.684
 5440SOL    HW118094   6.343   6.609   5.665
 5440SOL    HW218095   6.415   6.685   5.775
 5441SOL     OW18096  14.393   2.402   3.230
 5441SOL    HW118097  14.459   2.466   3.201
 5441SOL    HW218098  14.343   2.448   3.297
 5442SOL     OW18099   0.916   3.101   4.267
 5442SOL    HW118100   0.914   3.139   4.180
 5442SOL    HW218101   0.999   3.054   4.271
 5443SOL     OW18102  13.172  14.070   1.032
 5443SOL    HW118103  13.241  14.021   1.077
 5443SOL    HW218104  13.142  14.133   1.098
 5444SOL     OW18105   6.987   0.657   0.939
 5444SOL    HW118106   7.042   0.580   0.950
 5444SOL    HW218107   7.043   0.721   0.895
 5445SOL     OW18108  13.262   0.687   8.869
 5445SOL    HW118109  13.217   0.718   8.790
 5445SOL    HW218110  13.198   0.630   8.913
 5446SOL     OW18111   6.225  12.992   8.778
 5446SOL    HW118112   6.130  12.991   8.784
 5446SOL    HW218113   6.251  13.074   8.819
 5447SOL     OW18114  10.046   7.054   0.714
 5447SOL    HW118115  10.108   7.122   0.743
 5447SOL    HW218116   9.965   7.075   0.759
 5448SOL     OW18117   0.627   5.070   1.202
 5448SOL    HW118118   0.613   5.152   1.155
 5448SOL    HW218119   0.540   5.032   1.210
 5449SOL     OW18120   2.290   8.407   9.993
 5449SOL    HW118121   2.209   8.459   9.987
 5449SOL    HW218122   2.309   8.381   9.903
 5450SOL     OW18123   7.542   8.375  12.819
 5450SOL    HW118124   7.616   8.352  12.875
 5450SOL    HW218125   7.575   8.446  12.764
 5451SOL     OW18126   7.792  14.707   5.079
 5451SOL    HW118127   7.811  14.632   5.135
 5451SOL    HW218128   7.764  14.776   5.139
 5452SOL     OW18129   7.258  13.490  10.273
 5452SOL    HW118130   7.266  13.399  10.301
 5452SOL    HW218131   7.292  13.491  10.183
 5453SOL     OW18132   7.162  12.844   7.902
 5453SOL    HW118133   7.113  12.887   7.972
 5453SOL    HW218134   7.221  12.912   7.870
 5454SOL     OW18135   2.655  12.756   0.468
 5454SOL    HW118136   2.667  12.676   0.416
 5454SOL    HW218137   2.680  12.731   0.556
 5455SOL     OW18138   5.832   7.335   9.080
 5455SOL    HW118139   5.844   7.430   9.079
 5455SOL    HW218140   5.789   7.317   9.163
 5456SOL     OW18141  10.474  11.257   1.868
 5456SOL    HW118142  10.481  11.349   1.895
 5456SOL    HW218143  10.497  11.258   1.775
 5457SOL     OW18144  12.967   1.174   3.096
 5457SOL    HW118145  12.948   1.101   3.156
 5457SOL    HW218146  12.882   1.197   3.059
 5458SOL     OW18147   8.698   9.255  13.515
 5458SOL    HW118148   8.698   9.235  13.608
 5458SOL    HW218149   8.655   9.341  13.508
 5459SOL     OW18150   3.015   0.412  12.450
 5459SOL    HW118151   2.939   0.470  12.444
 5459SOL    HW218152   3.065   0.447  12.524
 5460SOL     OW18153   8.624  11.954   3.187
 5460SOL    HW118154   8.677  11.881   3.156
 5460SOL    HW218155   8.535  11.933   3.158
 5461SOL     OW18156  12.545   1.932   8.599
 5461SOL    HW118157  12.476   1.996   8.581
 5461SOL    HW218158  12.606   1.942   8.526
 5462SOL     OW18159   9.328   8.029   8.950
 5462SOL    HW118160   9.285   7.964   8.895
 5462SOL    HW218161   9.260   8.058   9.011
 5463SOL     OW18162   2.451   7.577   8.723
 5463SOL    HW118163   2.492   7.492   8.704
 5463SOL    HW218164   2.422   7.608   8.637
 5464SOL     OW18165   5.664  11.854   8.727
 5464SOL    HW118166   5.616  11.918   8.675
 5464SOL    HW218167   5.607  11.776   8.727
 5465SOL     OW18168   5.722   1.517  12.091
 5465SOL    HW118169   5.789   1.470  12.141
 5465SOL    HW218170   5.719   1.604  12.130
 5466SOL     OW18171  11.238  13.321  14.471
 5466SOL    HW118172  11.201  13.281  14.392
 5466SOL    HW218173  11.282  13.248  14.516
 5467SOL     OW18174   7.848  14.068   8.479
 5467SOL    HW118175   7.813  14.022   8.555
 5467SOL    HW218176   7.878  14.152   8.515
 5468SOL     OW18177   0.307  11.058   6.710
 5468SOL    HW118178   0.260  11.013   6.640
 5468SOL    HW218179   0.267  11.026   6.791
 5469SOL     OW18180  14.787  12.627  10.292
 5469SOL    HW118181  14.743  12.711  10.279
 5469SOL    HW218182  14.874  12.650  10.322
 5470SOL     OW18183  14.700   5.474  10.926
 5470SOL    HW118184  14.733   5.558  10.893
 5470SOL    HW218185  14.647   5.440  10.855
 5471SOL     OW18186  14.042   4.201  10.363
 5471SOL    HW118187  13.965   4.162  10.323
 5471SOL    HW218188  14.021   4.294  10.369
 5472SOL     OW18189   8.558  10.239   4.738
 5472SOL    HW118190   8.651  10.253   4.756
 5472SOL    HW218191   8.520  10.215   4.822
 5473SOL     OW18192   8.077  13.886   6.535
 5473SOL    HW118193   8.127  13.804   6.538
 5473SOL    HW218194   8.006  13.873   6.597
 5474SOL     OW18195  10.402   2.652  14.259
 5474SOL    HW118196  10.373   2.563  14.277
 5474SOL    HW218197  10.325   2.694  14.219
 5475SOL     OW18198   6.682  13.263   8.040
 5475SOL    HW118199   6.621  13.211   7.988
 5475SOL    HW218200   6.713  13.202   8.108
 5476SOL     OW18201   8.821  13.210  10.752
 5476SOL    HW118202   8.746  13.150  10.759
 5476SOL    HW218203   8.881  13.165  10.692
 5477SOL     OW18204   1.777   7.850   5.910
 5477SOL    HW118205   1.712   7.878   5.847
 5477SOL    HW218206   1.728   7.799   5.975
 5478SOL     OW18207  14.246   1.332   3.783
 5478SOL    HW118208  14.229   1.296   3.696
 5478SOL    HW218209  14.190   1.281   3.842
 5479SOL     OW18210   8.999  12.908   3.705
 5479SOL    HW118211   9.041  12.869   3.782
 5479SOL    HW218212   9.027  13.000   3.707
 5480SOL     OW18213   0.097   3.669   2.875
 5480SOL    HW118214   0.013   3.624   2.868
 5480SOL    HW218215   0.096   3.708   2.963
 5481SOL     OW18216   9.847   4.775   5.940
 5481SOL    HW118217   9.804   4.785   6.025
 5481SOL    HW218218   9.933   4.815   5.951
 5482SOL     OW18219  13.294  11.739   8.150
 5482SOL    HW118220  13.353  11.787   8.208
 5482SOL    HW218221  13.239  11.687   8.209
 5483SOL     OW18222   8.664  11.948   5.383
 5483SOL    HW118223   8.608  11.928   5.458
 5483SOL    HW218224   8.613  11.919   5.307
 5484SOL     OW18225   8.579  11.843   2.757
 5484SOL    HW118226   8.550  11.809   2.672
 5484SOL    HW218227   8.593  11.764   2.810
 5485SOL     OW18228   3.823   7.051   7.135
 5485SOL    HW118229   3.823   7.115   7.206
 5485SOL    HW218230   3.873   7.094   7.065
 5486SOL     OW18231   8.959  13.209   6.904
 5486SOL    HW118232   8.985  13.151   6.976
 5486SOL    HW218233   8.873  13.242   6.930
 5487SOL     OW18234   9.010  11.574   7.872
 5487SOL    HW118235   8.937  11.610   7.820
 5487SOL    HW218236   8.974  11.495   7.912
 5488SOL     OW18237   2.483  13.853  11.463
 5488SOL    HW118238   2.466  13.851  11.369
 5488SOL    HW218239   2.469  13.944  11.489
 5489SOL     OW18240  13.135   6.277   8.352
 5489SOL    HW118241  13.178   6.197   8.384
 5489SOL    HW218242  13.072   6.299   8.421
 5490SOL     OW18243  12.930   4.070   8.881
 5490SOL    HW118244  12.844   4.105   8.906
 5490SOL    HW218245  12.958   4.019   8.956
 5491SOL     OW18246   6.973   2.114   6.741
 5491SOL    HW118247   6.983   2.182   6.675
 5491SOL    HW218248   7.045   2.129   6.802
 5492SOL     OW18249  13.492   5.698   5.962
 5492SOL    HW118250  13.576   5.743   5.952
 5492SOL    HW218251  13.450   5.742   6.036
 5493SOL     OW18252   8.575   6.647   5.511
 5493SOL    HW118253   8.513   6.689   5.452
 5493SOL    HW218254   8.549   6.678   5.598
 5494SOL     OW18255   9.024   5.985   1.520
 5494SOL    HW118256   9.062   6.052   1.577
 5494SOL    HW218257   8.969   5.934   1.579
 5495SOL     OW18258  11.039   1.450  11.073
 5495SOL    HW118259  11.133   1.460  11.064
 5495SOL    HW218260  11.016   1.504  11.149
 5496SOL     OW18261   7.903   7.534   4.534
 5496SOL    HW118262   7.871   7.487   4.611
 5496SOL    HW218263   7.883   7.626   4.552
 5497SOL     OW18264  13.034   0.280  10.468
 5497SOL    HW118265  12.983   0.295  10.547
 5497SOL    HW218266  12.983   0.216  10.418
 5498SOL     OW18267   2.144  14.040   7.859
 5498SOL    HW118268   2.124  14.132   7.879
 5498SOL    HW218269   2.129  13.994   7.941
 5499SOL     OW18270   6.303  12.358   7.650
 5499SOL    HW118271   6.226  12.315   7.612
 5499SOL    HW218272   6.376  12.331   7.594
 5500SOL     OW18273  14.870   3.618  11.654
 5500SOL    HW118274   0.028   3.545  11.606
 5500SOL    HW218275  14.785   3.584  11.683
 5501SOL     OW18276  10.384   9.070  11.631
 5501SOL    HW118277  10.398   9.019  11.711
 5501SOL    HW218278  10.352   9.155  11.663
 5502SOL     OW18279   8.726   2.838  12.107
 5502SOL    HW118280   8.764   2.768  12.159
 5502SOL    HW218281   8.762   2.827  12.019
 5503SOL     OW18282   0.729  14.075  14.834
 5503SOL    HW118283   0.811  14.025  14.829
 5503SOL    HW218284   0.680  14.034   0.024
 5504SOL     OW18285   5.549   3.117   9.205
 5504SOL    HW118286   5.487   3.135   9.275
 5504SOL    HW218287   5.617   3.063   9.246
 5505SOL     OW18288  11.688  11.039  14.315
 5505SOL    HW118289  11.669  11.077  14.230
 5505SOL    HW218290  11.731  11.110  14.364
 5506SOL     OW18291  10.818   1.201  14.859
 5506SOL    HW118292  10.817   1.143  14.782
 5506SOL    HW218293  10.814   1.142   0.052
 5507SOL     OW18294  14.075   4.883  13.964
 5507SOL    HW118295  14.048   4.811  13.908
 5507SOL    HW218296  14.158   4.854  14.002
 5508SOL     OW18297   7.684   3.919   6.196
 5508SOL    HW118298   7.624   3.952   6.264
 5508SOL    HW218299   7.672   3.824   6.199
 5509SOL     OW18300   0.177   5.718   4.275
 5509SOL    HW118301   0.188   5.791   4.214
 5509SOL    HW218302   0.083   5.714   4.290
 5510SOL     OW18303   9.085   4.452  14.830
 5510SOL    HW118304   9.045   4.472   0.033
 5510SOL    HW218305   9.080   4.535  14.781
 5511SOL     OW18306   6.059   2.448  11.343
 5511SOL    HW118307   6.074   2.420  11.434
 5511SOL    HW218308   6.001   2.382  11.307
 5512SOL     OW18309   1.709   5.800   4.786
 5512SOL    HW118310   1.722   5.871   4.722
 5512SOL    HW218311   1.616   5.782   4.783
 5513SOL     OW18312   8.889  10.119   5.290
 5513SOL    HW118313   8.849  10.152   5.209
 5513SOL    HW218314   8.931  10.038   5.264
 5514SOL     OW18315   6.138  11.858   2.802
 5514SOL    HW118316   6.214  11.833   2.749
 5514SOL    HW218317   6.089  11.777   2.813
 5515SOL     OW18318   8.508  10.028  10.594
 5515SOL    HW118319   8.594  10.014  10.635
 5515SOL    HW218320   8.449  10.042  10.668
 5516SOL     OW18321  12.730   2.925   1.654
 5516SOL    HW118322  12.742   2.921   1.559
 5516SOL    HW218323  12.693   2.840   1.677
 5517SOL     OW18324   2.610   3.174  12.688
 5517SOL    HW118325   2.531   3.125  12.665
 5517SOL    HW218326   2.671   3.107  12.719
 5518SOL     OW18327   7.842   1.665   0.435
 5518SOL    HW118328   7.763   1.699   0.477
 5518SOL    HW218329   7.828   1.570   0.430
 5519SOL     OW18330   1.351  13.177  11.115
 5519SOL    HW118331   1.443  13.152  11.115
 5519SOL    HW218332   1.350  13.265  11.077
 5520SOL     OW18333  13.323  10.548  10.408
 5520SOL    HW118334  13.296  10.533  10.317
 5520SOL    HW218335  13.286  10.634  10.429
 5521SOL     OW18336   2.473   9.591   3.355
 5521SOL    HW118337   2.540   9.580   3.422
 5521SOL    HW218338   2.412   9.655   3.392
 5522SOL     OW18339  12.275  10.412  10.087
 5522SOL    HW118340  12.217  10.371  10.151
 5522SOL    HW218341  12.249  10.504  10.087
 5523SOL     OW18342   7.784   2.761   7.176
 5523SOL    HW118343   7.789   2.678   7.224
 5523SOL    HW218344   7.873   2.796   7.180
 5524SOL     OW18345   7.419  12.691   7.350
 5524SOL    HW118346   7.366  12.615   7.322
 5524SOL    HW218347   7.429  12.679   7.444
 5525SOL     OW18348   0.837   5.357  10.633
 5525SOL    HW118349   0.787   5.284  10.672
 5525SOL    HW218350   0.770   5.420  10.607
 5526SOL     OW18351  10.175  11.981   5.631
 5526SOL    HW118352  10.228  12.018   5.560
 5526SOL    HW218353  10.103  11.936   5.586
 5527SOL     OW18354  12.548   4.240   4.804
 5527SOL    HW118355  12.476   4.298   4.829
 5527SOL    HW218356  12.583   4.278   4.724
 5528SOL     OW18357   3.581   1.805   9.405
 5528SOL    HW118358   3.578   1.877   9.341
 5528SOL    HW218359   3.660   1.822   9.456
 5529SOL     OW18360  10.682  12.135   6.825
 5529SOL    HW118361  10.706  12.166   6.738
 5529SOL    HW218362  10.762  12.094   6.859
 5530SOL     OW18363   1.579   8.210   3.987
 5530SOL    HW118364   1.653   8.213   3.926
 5530SOL    HW218365   1.521   8.144   3.950
 5531SOL     OW18366   2.813   9.320   3.491
 5531SOL    HW118367   2.884   9.283   3.439
 5531SOL    HW218368   2.750   9.248   3.501
 5532SOL     OW18369   1.626  12.865  12.470
 5532SOL    HW118370   1.693  12.921  12.508
 5532SOL    HW218371   1.642  12.779  12.509
 5533SOL     OW18372   5.961   7.004   2.978
 5533SOL    HW118373   6.041   6.951   2.979
 5533SOL    HW218374   5.976   7.072   3.044
 5534SOL     OW18375  14.648  13.262   9.308
 5534SOL    HW118376  14.617  13.268   9.398
 5534SOL    HW218377  14.743  13.250   9.316
 5535SOL     OW18378   9.276   0.245   8.991
 5535SOL    HW118379   9.266   0.157   8.954
 5535SOL    HW218380   9.215   0.298   8.940
 5536SOL     OW18381   8.299  12.879  13.800
 5536SOL    HW118382   8.249  12.847  13.876
 5536SOL    HW218383   8.232  12.900  13.735
 5537SOL     OW18384  10.747   3.864   7.206
 5537SOL    HW118385  10.783   3.907   7.129
 5537SOL    HW218386  10.663   3.829   7.177
 5538SOL     OW18387   4.445  13.286   2.021
 5538SOL    HW118388   4.396  13.212   1.987
 5538SOL    HW218389   4.401  13.308   2.104
 5539SOL     OW18390   2.709  10.579   3.903
 5539SOL    HW118391   2.713  10.483   3.910
 5539SOL    HW218392   2.705  10.609   3.994
 5540SOL     OW18393  11.971   0.056   0.006
 5540SOL    HW118394  12.019   0.016  14.815
 5540SOL    HW218395  11.884   0.015   0.003
 5541SOL     OW18396  11.669   6.380   3.163
 5541SOL    HW118397  11.639   6.351   3.076
 5541SOL    HW218398  11.598   6.354   3.222
 5542SOL     OW18399   7.607   7.369  13.198
 5542SOL    HW118400   7.680   7.310  13.181
 5542SOL    HW218401   7.567   7.335  13.278
 5543SOL     OW18402   2.676   9.434  14.196
 5543SOL    HW118403   2.623   9.362  14.230
 5543SOL    HW218404   2.733   9.393  14.130
 5544SOL     OW18405  14.588   0.846   1.944
 5544SOL    HW118406  14.521   0.897   1.899
 5544SOL    HW218407  14.660   0.908   1.957
 5545SOL     OW18408  12.851   0.553   8.589
 5545SOL    HW118409  12.897   0.623   8.635
 5545SOL    HW218410  12.777   0.531   8.646
 5546SOL     OW18411   8.222   2.317   6.037
 5546SOL    HW118412   8.173   2.266   5.973
 5546SOL    HW218413   8.228   2.405   5.998
 5547SOL     OW18414   3.710   8.343   7.382
 5547SOL    HW118415   3.647   8.415   7.386
 5547SOL    HW218416   3.657   8.264   7.385
 5548SOL     OW18417   8.648  13.586   7.794
 5548SOL    HW118418   8.609  13.664   7.834
 5548SOL    HW218419   8.592  13.567   7.719
 5549SOL     OW18420  13.361   1.142  11.820
 5549SOL    HW118421  13.393   1.144  11.730
 5549SOL    HW218422  13.338   1.233  11.840
 5550SOL     OW18423   7.884  14.046   0.789
 5550SOL    HW118424   7.915  13.971   0.839
 5550SOL    HW218425   7.944  14.051   0.715
 5551SOL     OW18426  10.623   7.109   5.411
 5551SOL    HW118427  10.663   7.075   5.331
 5551SOL    HW218428  10.536   7.068   5.414
 5552SOL     OW18429  13.267   1.793  10.825
 5552SOL    HW118430  13.347   1.751  10.792
 5552SOL    HW218431  13.246   1.859  10.759
 5553SOL     OW18432   5.719  12.139  10.643
 5553SOL    HW118433   5.718  12.125  10.549
 5553SOL    HW218434   5.699  12.232  10.654
 5554SOL     OW18435   8.343  12.840  11.588
 5554SOL    HW118436   8.312  12.776  11.653
 5554SOL    HW218437   8.290  12.822  11.510
 5555SOL     OW18438   9.514   8.068   6.504
 5555SOL    HW118439   9.510   8.105   6.592
 5555SOL    HW218440   9.441   8.006   6.501
 5556SOL     OW18441   1.289  10.272  12.631
 5556SOL    HW118442   1.370  10.229  12.602
 5556SOL    HW218443   1.223  10.244  12.568
 5557SOL     OW18444  14.577   8.386  12.252
 5557SOL    HW118445  14.631   8.380  12.173
 5557SOL    HW218446  14.606   8.312  12.306
 5558SOL     OW18447   2.958   2.332  11.050
 5558SOL    HW118448   2.992   2.420  11.031
 5558SOL    HW218449   3.032   2.274  11.034
 5559SOL     OW18450  10.082   1.494   6.316
 5559SOL    HW118451  10.163   1.445   6.325
 5559SOL    HW218452  10.068   1.501   6.222
 5560SOL     OW18453   5.747   9.631   2.215
 5560SOL    HW118454   5.662   9.653   2.251
 5560SOL    HW218455   5.733   9.628   2.120
 5561SOL     OW18456   7.978   5.100   7.344
 5561SOL    HW118457   8.014   5.121   7.429
 5561SOL    HW218458   7.985   5.181   7.293
 5562SOL     OW18459  11.488   0.365   5.667
 5562SOL    HW118460  11.565   0.420   5.684
 5562SOL    HW218461  11.416   0.409   5.712
 5563SOL     OW18462   9.826   3.501  10.915
 5563SOL    HW118463   9.748   3.463  10.874
 5563SOL    HW218464   9.832   3.589  10.879
 5564SOL     OW18465   2.496   9.201   9.260
 5564SOL    HW118466   2.587   9.219   9.283
 5564SOL    HW218467   2.484   9.108   9.281
 5565SOL     OW18468  13.282  12.211  10.646
 5565SOL    HW118469  13.214  12.203  10.579
 5565SOL    HW218470  13.257  12.149  10.714
 5566SOL     OW18471   8.757  12.744  10.757
 5566SOL    HW118472   8.747  12.732  10.662
 5566SOL    HW218473   8.849  12.771  10.767
 5567SOL     OW18474   4.997   7.042   4.617
 5567SOL    HW118475   4.947   6.981   4.564
 5567SOL    HW218476   4.950   7.046   4.700
 5568SOL     OW18477  13.937  12.606   3.420
 5568SOL    HW118478  13.998  12.534   3.408
 5568SOL    HW218479  13.851  12.564   3.429
 5569SOL     OW18480   4.911   3.073  13.972
 5569SOL    HW118481   4.859   3.052  13.894
 5569SOL    HW218482   4.882   3.009  14.037
 5570SOL     OW18483   0.922  12.828   7.143
 5570SOL    HW118484   0.914  12.861   7.053
 5570SOL    HW218485   0.950  12.904   7.194
 5571SOL     OW18486  14.618   3.382   9.997
 5571SOL    HW118487  14.620   3.327   9.918
 5571SOL    HW218488  14.681   3.452   9.979
 5572SOL     OW18489   0.341   0.703   4.355
 5572SOL    HW118490   0.317   0.610   4.351
 5572SOL    HW218491   0.384   0.713   4.440
 5573SOL     OW18492   3.727   9.622   1.861
 5573SOL    HW118493   3.808   9.657   1.898
 5573SOL    HW218494   3.688   9.574   1.933
 5574SOL     OW18495  14.354   8.446  11.644
 5574SOL    HW118496  14.269   8.488  11.632
 5574SOL    HW218497  14.361   8.431  11.738
 5575SOL     OW18498   5.891   3.826   9.630
 5575SOL    HW118499   5.917   3.918   9.620
 5575SOL    HW218500   5.824   3.826   9.698
 5576SOL     OW18501   6.206  11.107  12.618
 5576SOL    HW118502   6.200  11.138  12.527
 5576SOL    HW218503   6.155  11.026  12.619
 5577SOL     OW18504  11.970  14.378   3.745
 5577SOL    HW118505  11.943  14.412   3.830
 5577SOL    HW218506  12.030  14.307   3.765
 5578SOL     OW18507  10.128  12.093   2.626
 5578SOL    HW118508  10.217  12.103   2.659
 5578SOL    HW218509  10.110  12.173   2.578
 5579SOL     OW18510   8.081   6.469  12.045
 5579SOL    HW118511   8.135   6.518  12.107
 5579SOL    HW218512   8.059   6.388  12.091
 5580SOL     OW18513  12.351  10.900   3.891
 5580SOL    HW118514  12.366  10.813   3.854
 5580SOL    HW218515  12.426  10.913   3.950
 5581SOL     OW18516   7.490  10.164  10.632
 5581SOL    HW118517   7.482  10.240  10.574
 5581SOL    HW218518   7.464  10.089  10.579
 5582SOL     OW18519   3.662  13.736   6.687
 5582SOL    HW118520   3.593  13.707   6.747
 5582SOL    HW218521   3.641  13.828   6.670
 5583SOL     OW18522   5.397  12.415   6.530
 5583SOL    HW118523   5.368  12.324   6.537
 5583SOL    HW218524   5.350  12.461   6.601
 5584SOL     OW18525   8.029   6.198  14.102
 5584SOL    HW118526   8.124   6.184  14.103
 5584SOL    HW218527   8.013   6.266  14.168
 5585SOL     OW18528  10.085   1.492   6.048
 5585SOL    HW118529  10.114   1.582   6.064
 5585SOL    HW218530  10.164   1.446   6.020
 5586SOL     OW18531  14.663   6.790  14.320
 5586SOL    HW118532  14.573   6.774  14.292
 5586SOL    HW218533  14.684   6.717  14.377
 5587SOL     OW18534   4.656  11.449   9.270
 5587SOL    HW118535   4.726  11.476   9.210
 5587SOL    HW218536   4.592  11.406   9.213
 5588SOL     OW18537   8.582   7.267  12.638
 5588SOL    HW118538   8.488   7.252  12.642
 5588SOL    HW218539   8.616   7.197  12.583
 5589SOL     OW18540   3.368   0.908   7.099
 5589SOL    HW118541   3.405   0.961   7.169
 5589SOL    HW218542   3.275   0.903   7.119
 5590SOL     OW18543   6.930   6.904  13.723
 5590SOL    HW118544   6.940   6.982  13.667
 5590SOL    HW218545   6.837   6.900  13.743
 5591SOL     OW18546   1.074   5.421   8.997
 5591SOL    HW118547   0.981   5.401   9.013
 5591SOL    HW218548   1.100   5.357   8.931
 5592SOL     OW18549   6.024   2.452   8.491
 5592SOL    HW118550   5.996   2.361   8.496
 5592SOL    HW218551   6.010   2.486   8.579
 5593SOL     OW18552   5.634   8.279   0.201
 5593SOL    HW118553   5.670   8.219   0.136
 5593SOL    HW218554   5.658   8.366   0.168
 5594SOL     OW18555   4.400  13.945   2.311
 5594SOL    HW118556   4.354  13.861   2.304
 5594SOL    HW218557   4.386  13.972   2.402
 5595SOL     OW18558   3.013   0.378   7.054
 5595SOL    HW118559   3.018   0.299   7.107
 5595SOL    HW218560   2.967   0.350   6.974
 5596SOL     OW18561  12.018  10.769   4.993
 5596SOL    HW118562  11.964  10.847   4.983
 5596SOL    HW218563  12.095  10.787   4.938
 5597SOL     OW18564   9.022   9.981   1.881
 5597SOL    HW118565   8.950   9.971   1.943
 5597SOL    HW218566   8.986  10.036   1.811
 5598SOL     OW18567   7.808   8.632   1.822
 5598SOL    HW118568   7.891   8.676   1.836
 5598SOL    HW218569   7.762   8.639   1.906
 5599SOL     OW18570   5.378  13.146   9.783
 5599SOL    HW118571   5.399  13.072   9.725
 5599SOL    HW218572   5.366  13.106   9.869
 5600SOL     OW18573   3.792   8.404   2.697
 5600SOL    HW118574   3.780   8.383   2.605
 5600SOL    HW218575   3.705   8.397   2.736
 5601SOL     OW18576  14.792  12.915  13.213
 5601SOL    HW118577  14.836  12.876  13.289
 5601SOL    HW218578  14.851  12.986  13.186
 5602SOL     OW18579   4.103   0.595   2.952
 5602SOL    HW118580   4.081   0.503   2.970
 5602SOL    HW218581   4.023   0.643   2.973
 5603SOL     OW18582  12.024   8.061   2.055
 5603SOL    HW118583  12.003   8.016   1.973
 5603SOL    HW218584  12.112   8.030   2.077
 5604SOL     OW18585   6.273   3.292  12.899
 5604SOL    HW118586   6.242   3.218  12.952
 5604SOL    HW218587   6.364   3.271  12.880
 5605SOL     OW18588  13.126  13.819   7.520
 5605SOL    HW118589  13.058  13.848   7.581
 5605SOL    HW218590  13.092  13.844   7.434
 5606SOL     OW18591   0.966   7.564  14.544
 5606SOL    HW118592   1.032   7.496  14.529
 5606SOL    HW218593   0.995   7.639  14.492
 5607SOL     OW18594   1.711   1.623   7.668
 5607SOL    HW118595   1.643   1.689   7.679
 5607SOL    HW218596   1.664   1.539   7.673
 5608SOL     OW18597   4.298  12.816   5.981
 5608SOL    HW118598   4.207  12.811   6.011
 5608SOL    HW218599   4.330  12.900   6.015
 5609SOL     OW18600   7.371   7.649  13.446
 5609SOL    HW118601   7.453   7.632  13.494
 5609SOL    HW218602   7.395   7.640  13.354
 5610SOL     OW18603   6.277   8.328  12.271
 5610SOL    HW118604   6.288   8.342  12.177
 5610SOL    HW218605   6.193   8.283  12.279
 5611SOL     OW18606   4.734  12.734   3.594
 5611SOL    HW118607   4.689  12.810   3.631
 5611SOL    HW218608   4.701  12.660   3.646
 5612SOL     OW18609   1.713   9.202   0.482
 5612SOL    HW118610   1.787   9.262   0.490
 5612SOL    HW218611   1.709   9.157   0.566
 5613SOL     OW18612   8.104   7.650   5.852
 5613SOL    HW118613   8.199   7.655   5.846
 5613SOL    HW218614   8.087   7.587   5.922
 5614SOL     OW18615   4.571   9.407   5.912
 5614SOL    HW118616   4.637   9.476   5.918
 5614SOL    HW218617   4.603   9.349   5.843
 5615SOL     OW18618  13.119   8.048  13.011
 5615SOL    HW118619  13.092   8.042  13.103
 5615SOL    HW218620  13.114   7.958  12.979
 5616SOL     OW18621  14.394  13.839  11.555
 5616SOL    HW118622  14.342  13.842  11.475
 5616SOL    HW218623  14.337  13.797  11.620
 5617SOL     OW18624   8.930   1.214  11.451
 5617SOL    HW118625   8.970   1.146  11.397
 5617SOL    HW218626   8.997   1.239  11.514
 5618SOL     OW18627   4.101  10.165   0.628
 5618SOL    HW118628   4.009  10.191   0.639
 5618SOL    HW218629   4.099  10.069   0.637
 5619SOL     OW18630  10.478   1.067   1.752
 5619SOL    HW118631  10.483   1.112   1.835
 5619SOL    HW218632  10.414   1.117   1.701
 5620SOL     OW18633   3.611  11.177  10.412
 5620SOL    HW118634   3.523  11.179  10.449
 5620SOL    HW218635   3.666  11.223  10.476
 5621SOL     OW18636   1.853   6.636   6.630
 5621SOL    HW118637   1.837   6.595   6.545
 5621SOL    HW218638   1.773   6.686   6.648
 5622SOL     OW18639   2.967   9.849  12.256
 5622SOL    HW118640   2.921   9.880  12.333
 5622SOL    HW218641   2.942   9.757  12.248
 5623SOL     OW18642   7.107   1.635  14.324
 5623SOL    HW118643   7.023   1.659  14.285
 5623SOL    HW218644   7.091   1.551  14.367
 5624SOL     OW18645   9.457   5.831   1.308
 5624SOL    HW118646   9.541   5.847   1.352
 5624SOL    HW218647   9.481   5.785   1.227
 5625SOL     OW18648  10.909   2.318  14.179
 5625SOL    HW118649  10.995   2.351  14.206
 5625SOL    HW218650  10.847   2.376  14.223
 5626SOL     OW18651   4.166   9.473   7.982
 5626SOL    HW118652   4.110   9.551   7.978
 5626SOL    HW218653   4.238   9.498   8.040
 5627SOL     OW18654  13.149   0.266   9.546
 5627SOL    HW118655  13.158   0.254   9.640
 5627SOL    HW218656  13.148   0.176   9.511
 5628SOL     OW18657   9.329   7.287  13.133
 5628SOL    HW118658   9.241   7.255  13.113
 5628SOL    HW218659   9.387   7.226  13.087
 5629SOL     OW18660   8.629   0.058   8.910
 5629SOL    HW118661   8.539   0.086   8.894
 5629SOL    HW218662   8.645  14.870   8.846
 5630SOL     OW18663   8.352   3.875  10.108
 5630SOL    HW118664   8.361   3.948  10.170
 5630SOL    HW218665   8.322   3.802  10.162
 5631SOL     OW18666   2.962  11.883   0.583
 5631SOL    HW118667   2.959  11.961   0.527
 5631SOL    HW218668   3.033  11.900   0.644
 5632SOL     OW18669   3.186  10.359   6.046
 5632SOL    HW118670   3.203  10.269   6.075
 5632SOL    HW218671   3.109  10.387   6.097
 5633SOL     OW18672   5.217  13.418   6.455
 5633SOL    HW118673   5.262  13.483   6.508
 5633SOL    HW218674   5.127  13.418   6.488
 5634SOL     OW18675   5.786  11.564   7.545
 5634SOL    HW118676   5.813  11.580   7.455
 5634SOL    HW218677   5.750  11.648   7.575
 5635SOL     OW18678   1.581  11.439   3.651
 5635SOL    HW118679   1.660  11.400   3.615
 5635SOL    HW218680   1.538  11.480   3.576
 5636SOL     OW18681  12.795   1.042   0.888
 5636SOL    HW118682  12.865   1.091   0.844
 5636SOL    HW218683  12.840   0.996   0.960
 5637SOL     OW18684   4.742   1.666   3.376
 5637SOL    HW118685   4.805   1.597   3.352
 5637SOL    HW218686   4.661   1.619   3.396
 5638SOL     OW18687   2.176   0.230   2.153
 5638SOL    HW118688   2.098   0.270   2.115
 5638SOL    HW218689   2.169   0.137   2.133
 5639SOL     OW18690   1.970   9.376  11.742
 5639SOL    HW118691   2.050   9.365  11.792
 5639SOL    HW218692   1.997   9.425  11.664
 5640SOL     OW18693   9.820   1.098   4.433
 5640SOL    HW118694   9.825   1.002   4.430
 5640SOL    HW218695   9.863   1.122   4.515
 5641SOL     OW18696  13.141   7.926   0.128
 5641SOL    HW118697  13.195   7.860   0.084
 5641SOL    HW218698  13.051   7.904   0.104
 5642SOL     OW18699  12.371  14.544  10.368
 5642SOL    HW118700  12.441  14.512  10.311
 5642SOL    HW218701  12.385  14.499  10.451
 5643SOL     OW18702   4.246   5.144   6.240
 5643SOL    HW118703   4.231   5.052   6.219
 5643SOL    HW218704   4.169   5.171   6.290
 5644SOL     OW18705  11.815   0.509   5.100
 5644SOL    HW118706  11.730   0.536   5.134
 5644SOL    HW218707  11.841   0.435   5.154
 5645SOL     OW18708  12.576  11.126  10.781
 5645SOL    HW118709  12.484  11.136  10.755
 5645SOL    HW218710  12.619  11.090  10.704
 5646SOL     OW18711   0.243   5.206   1.350
 5646SOL    HW118712   0.218   5.147   1.422
 5646SOL    HW218713   0.338   5.216   1.360
 5647SOL     OW18714   1.498   0.975   5.052
 5647SOL    HW118715   1.520   0.914   4.981
 5647SOL    HW218716   1.578   0.981   5.104
 5648SOL     OW18717  12.758  10.050  13.302
 5648SOL    HW118718  12.692   9.994  13.261
 5648SOL    HW218719  12.842  10.014  13.275
 5649SOL     OW18720  12.824   4.946   7.877
 5649SOL    HW118721  12.871   4.862   7.878
 5649SOL    HW218722  12.799   4.958   7.786
 5650SOL     OW18723  10.017   3.689   1.522
 5650SOL    HW118724  10.087   3.749   1.547
 5650SOL    HW218725   9.990   3.718   1.434
 5651SOL     OW18726   2.225   5.899   9.721
 5651SOL    HW118727   2.311   5.861   9.739
 5651SOL    HW218728   2.163   5.832   9.749
 5652SOL     OW18729   7.569   7.940   1.453
 5652SOL    HW118730   7.586   7.924   1.360
 5652SOL    HW218731   7.518   8.022   1.454
 5653SOL     OW18732  13.905  12.937   3.054
 5653SOL    HW118733  13.975  12.960   3.115
 5653SOL    HW218734  13.859  13.019   3.038
 5654SOL     OW18735  10.033  10.322   2.163
 5654SOL    HW118736  10.089  10.369   2.100
 5654SOL    HW218737   9.965  10.282   2.110
 5655SOL     OW18738  13.594   3.645   5.204
 5655SOL    HW118739  13.522   3.702   5.231
 5655SOL    HW218740  13.550   3.570   5.163
 5656SOL     OW18741   4.824  12.152   3.205
 5656SOL    HW118742   4.778  12.232   3.231
 5656SOL    HW218743   4.794  12.135   3.116
 5657SOL     OW18744   7.019  12.339   7.710
 5657SOL    HW118745   7.001  12.265   7.653
 5657SOL    HW218746   6.944  12.343   7.769
 5658SOL     OW18747  13.088   6.925  12.000
 5658SOL    HW118748  13.181   6.940  12.014
 5658SOL    HW218749  13.085   6.854  11.935
 5659SOL     OW18750   4.191  10.139  11.352
 5659SOL    HW118751   4.272  10.168  11.310
 5659SOL    HW218752   4.192  10.181  11.438
 5660SOL     OW18753  13.070  10.675   8.457
 5660SOL    HW118754  13.149  10.623   8.468
 5660SOL    HW218755  13.009  10.639   8.521
 5661SOL     OW18756   8.669   9.230   7.393
 5661SOL    HW118757   8.695   9.154   7.444
 5661SOL    HW218758   8.705   9.305   7.442
 5662SOL     OW18759   1.363   1.825   5.767
 5662SOL    HW118760   1.337   1.758   5.704
 5662SOL    HW218761   1.337   1.791   5.852
 5663SOL     OW18762   3.885   5.380  13.443
 5663SOL    HW118763   3.834   5.378  13.362
 5663SOL    HW218764   3.941   5.302  13.440
 5664SOL     OW18765  10.102  12.277   4.474
 5664SOL    HW118766  10.106  12.185   4.449
 5664SOL    HW218767  10.194  12.304   4.481
 5665SOL     OW18768  13.867  14.315   0.333
 5665SOL    HW118769  13.866  14.397   0.283
 5665SOL    HW218770  13.777  14.304   0.363
 5666SOL     OW18771  13.834  14.712   6.596
 5666SOL    HW118772  13.795  14.797   6.575
 5666SOL    HW218773  13.904  14.702   6.531
 5667SOL     OW18774   1.917  13.330  11.121
 5667SOL    HW118775   1.838  13.300  11.167
 5667SOL    HW218776   1.896  13.420  11.095
 5668SOL     OW18777  11.886   1.912   0.379
 5668SOL    HW118778  11.878   1.847   0.449
 5668SOL    HW218779  11.949   1.976   0.413
 5669SOL     OW18780   3.250  11.200   5.659
 5669SOL    HW118781   3.213  11.173   5.575
 5669SOL    HW218782   3.288  11.120   5.695
 5670SOL     OW18783   2.230  11.283  11.586
 5670SOL    HW118784   2.287  11.337  11.531
 5670SOL    HW218785   2.249  11.194  11.558
 5671SOL     OW18786   8.947   2.335   8.018
 5671SOL    HW118787   8.933   2.302   7.929
 5671SOL    HW218788   8.925   2.428   8.013
 5672SOL     OW18789   3.236  10.563   6.853
 5672SOL    HW118790   3.144  10.589   6.847
 5672SOL    HW218791   3.272  10.620   6.921
 5673SOL     OW18792   1.345   1.618   5.210
 5673SOL    HW118793   1.423   1.623   5.154
 5673SOL    HW218794   1.289   1.553   5.167
 5674SOL     OW18795  12.299   7.313   0.546
 5674SOL    HW118796  12.321   7.367   0.470
 5674SOL    HW218797  12.294   7.224   0.510
 5675SOL     OW18798   5.404   3.760   2.276
 5675SOL    HW118799   5.454   3.751   2.195
 5675SOL    HW218800   5.412   3.852   2.299
 5676SOL     OW18801  11.434   9.809  11.346
 5676SOL    HW118802  11.424   9.861  11.425
 5676SOL    HW218803  11.529   9.805  11.332
 5677SOL     OW18804  13.640   4.363   2.967
 5677SOL    HW118805  13.619   4.406   2.884
 5677SOL    HW218806  13.558   4.365   3.016
 5678SOL     OW18807   3.593   0.571   2.264
 5678SOL    HW118808   3.611   0.494   2.210
 5678SOL    HW218809   3.676   0.619   2.266
 5679SOL     OW18810  10.413   7.304   8.376
 5679SOL    HW118811  10.476   7.307   8.303
 5679SOL    HW218812  10.340   7.253   8.342
 5680SOL     OW18813   1.616   9.903  12.173
 5680SOL    HW118814   1.656   9.958  12.104
 5680SOL    HW218815   1.691   9.869  12.222
 5681SOL     OW18816   8.230   0.754  11.944
 5681SOL    HW118817   8.196   0.843  11.938
 5681SOL    HW218818   8.163   0.706  11.994
 5682SOL     OW18819  10.107   6.386  11.286
 5682SOL    HW118820  10.071   6.459  11.338
 5682SOL    HW218821  10.175   6.427  11.232
 5683SOL     OW18822   1.690  11.357  13.724
 5683SOL    HW118823   1.743  11.285  13.757
 5683SOL    HW218824   1.676  11.337  13.632
 5684SOL     OW18825  10.865   6.396   1.680
 5684SOL    HW118826  10.898   6.323   1.628
 5684SOL    HW218827  10.772   6.400   1.660
 5685SOL     OW18828  14.097   9.501   4.639
 5685SOL    HW118829  14.131   9.412   4.649
 5685SOL    HW218830  14.129   9.547   4.717
 5686SOL     OW18831   0.593   0.822   2.013
 5686SOL    HW118832   0.521   0.846   1.954
 5686SOL    HW218833   0.576   0.730   2.034
 5687SOL     OW18834   2.509   9.884  11.379
 5687SOL    HW118835   2.513   9.960  11.320
 5687SOL    HW218836   2.561   9.911  11.455
 5688SOL     OW18837   1.320   2.962  10.918
 5688SOL    HW118838   1.226   2.949  10.935
 5688SOL    HW218839   1.348   3.024  10.985
 5689SOL     OW18840  11.105   6.802   0.083
 5689SOL    HW118841  11.104   6.851   0.002
 5689SOL    HW218842  11.014   6.805   0.114
 5690SOL     OW18843  14.700   5.546  14.215
 5690SOL    HW118844  14.653   5.586  14.288
 5690SOL    HW218845  14.667   5.456  14.211
 5691SOL     OW18846   9.618  12.370   6.596
 5691SOL    HW118847   9.597  12.422   6.674
 5691SOL    HW218848   9.538  12.374   6.543
 5692SOL     OW18849   2.824   5.398   2.237
 5692SOL    HW118850   2.803   5.490   2.250
 5692SOL    HW218851   2.748   5.351   2.270
 5693SOL     OW18852  10.496   7.128  11.325
 5693SOL    HW118853  10.518   7.066  11.256
 5693SOL    HW218854  10.533   7.211  11.296
 5694SOL     OW18855  12.426   1.956   6.202
 5694SOL    HW118856  12.487   1.912   6.143
 5694SOL    HW218857  12.341   1.916   6.184
 5695SOL     OW18858  11.058   8.167   9.619
 5695SOL    HW118859  11.115   8.244   9.611
 5695SOL    HW218860  11.089   8.122   9.698
 5696SOL     OW18861   9.117   8.297  13.922
 5696SOL    HW118862   9.191   8.238  13.905
 5696SOL    HW218863   9.158   8.380  13.943
 5697SOL     OW18864  11.071   6.690  10.541
 5697SOL    HW118865  11.011   6.616  10.543
 5697SOL    HW218866  11.036   6.747  10.472
 5698SOL     OW18867  13.160   1.888   8.645
 5698SOL    HW118868  13.241   1.848   8.612
 5698SOL    HW218869  13.187   1.934   8.724
 5699SOL     OW18870   9.521   3.313   3.823
 5699SOL    HW118871   9.492   3.233   3.780
 5699SOL    HW218872   9.567   3.283   3.902
 5700SOL     OW18873  10.294  12.594   4.780
 5700SOL    HW118874  10.315  12.687   4.785
 5700SOL    HW218875  10.327  12.567   4.694
 5701SOL     OW18876  11.757  12.018   3.725
 5701SOL    HW118877  11.793  11.932   3.705
 5701SOL    HW218878  11.783  12.073   3.651
 5702SOL     OW18879   4.286  13.749   0.066
 5702SOL    HW118880   4.306  13.737   0.158
 5702SOL    HW218881   4.308  13.665   0.025
 5703SOL     OW18882   3.733   7.442  12.600
 5703SOL    HW118883   3.782   7.505  12.653
 5703SOL    HW218884   3.733   7.480  12.512
 5704SOL     OW18885   0.543   1.493   2.434
 5704SOL    HW118886   0.545   1.399   2.450
 5704SOL    HW218887   0.592   1.531   2.508
 5705SOL     OW18888   4.432   6.863  10.886
 5705SOL    HW118889   4.526   6.884  10.880
 5705SOL    HW218890   4.401   6.916  10.960
 5706SOL     OW18891  12.374   0.604   1.038
 5706SOL    HW118892  12.379   0.588   1.132
 5706SOL    HW218893  12.395   0.519   0.999
 5707SOL     OW18894   0.072   1.467  13.868
 5707SOL    HW118895   0.152   1.519  13.869
 5707SOL    HW218896   0.050   1.458  13.775
 5708SOL     OW18897  14.494  10.148   3.685
 5708SOL    HW118898  14.553  10.103   3.746
 5708SOL    HW218899  14.428  10.082   3.663
 5709SOL     OW18900   8.975   2.371  11.494
 5709SOL    HW118901   8.975   2.275  11.505
 5709SOL    HW218902   8.963   2.405  11.582
 5710SOL     OW18903  10.730  13.267  12.193
 5710SOL    HW118904  10.753  13.174  12.191
 5710SOL    HW218905  10.644  13.271  12.151
 5711SOL     OW18906  11.187   6.320  13.816
 5711SOL    HW118907  11.243   6.282  13.883
 5711SOL    HW218908  11.236   6.309  13.734
 5712SOL     OW18909   6.742  12.745   1.919
 5712SOL    HW118910   6.834  12.770   1.912
 5712SOL    HW218911   6.743  12.656   1.952
 5713SOL     OW18912  11.947   8.074   4.372
 5713SOL    HW118913  11.915   8.126   4.299
 5713SOL    HW218914  11.872   8.022   4.400
 5714SOL     OW18915   4.257  10.018   8.951
 5714SOL    HW118916   4.257  10.034   9.046
 5714SOL    HW218917   4.347  10.037   8.924
 5715SOL     OW18918   9.092   1.492   7.440
 5715SOL    HW118919   9.023   1.545   7.402
 5715SOL    HW218920   9.124   1.542   7.515
 5716SOL     OW18921   3.817   6.323   8.879
 5716SOL    HW118922   3.850   6.398   8.930
 5716SOL    HW218923   3.755   6.362   8.817
 5717SOL     OW18924   5.066   7.827  13.302
 5717SOL    HW118925   5.012   7.888  13.251
 5717SOL    HW218926   5.071   7.748  13.248
 5718SOL     OW18927   8.065   8.325   7.200
 5718SOL    HW118928   8.052   8.273   7.120
 5718SOL    HW218929   8.160   8.327   7.212
 5719SOL     OW18930   9.947  12.946  11.819
 5719SOL    HW118931  10.033  12.988  11.811
 5719SOL    HW218932   9.957  12.886  11.893
 5720SOL     OW18933  12.359   8.860   5.012
 5720SOL    HW118934  12.425   8.929   5.007
 5720SOL    HW218935  12.371   8.821   5.098
 5721SOL     OW18936  14.270  14.601   5.332
 5721SOL    HW118937  14.335  14.618   5.400
 5721SOL    HW218938  14.254  14.687   5.293
 5722SOL     OW18939  14.821   3.877  14.391
 5722SOL    HW118940  14.810   3.831  14.474
 5722SOL    HW218941   0.017   3.932  14.403
 5723SOL     OW18942   2.890  13.767   6.258
 5723SOL    HW118943   2.915  13.775   6.166
 5723SOL    HW218944   2.897  13.673   6.276
 5724SOL     OW18945   4.347   5.872  11.781
 5724SOL    HW118946   4.391   5.808  11.725
 5724SOL    HW218947   4.369   5.957  11.742
 5725SOL     OW18948   2.392  14.694  14.309
 5725SOL    HW118949   2.420  14.730  14.393
 5725SOL    HW218950   2.383  14.600  14.325
 5726SOL     OW18951  11.888   0.385  12.402
 5726SOL    HW118952  11.979   0.400  12.427
 5726SOL    HW218953  11.842   0.371  12.485
 5727SOL     OW18954   6.798   7.126   1.132
 5727SOL    HW118955   6.869   7.170   1.178
 5727SOL    HW218956   6.720   7.146   1.183
 5728SOL     OW18957   5.043   0.882  13.686
 5728SOL    HW118958   5.100   0.951  13.651
 5728SOL    HW218959   4.954   0.912  13.666
 5729SOL     OW18960  11.454   9.274   2.703
 5729SOL    HW118961  11.391   9.202   2.700
 5729SOL    HW218962  11.539   9.231   2.693
 5730SOL     OW18963   7.273  12.085   4.156
 5730SOL    HW118964   7.336  12.156   4.148
 5730SOL    HW218965   7.308  12.015   4.102
 5731SOL     OW18966  13.651   2.241  10.885
 5731SOL    HW118967  13.693   2.169  10.933
 5731SOL    HW218968  13.572   2.260  10.936
 5732SOL     OW18969  14.819  13.707  11.815
 5732SOL    HW118970  14.775  13.732  11.734
 5732SOL    HW218971  14.826  13.611  11.809
 5733SOL     OW18972   2.431   9.395   0.636
 5733SOL    HW118973   2.487   9.346   0.577
 5733SOL    HW218974   2.345   9.354   0.628
 5734SOL     OW18975   8.205   6.647   8.147
 5734SOL    HW118976   8.267   6.575   8.157
 5734SOL    HW218977   8.223   6.704   8.223
 5735SOL     OW18978   8.473  14.054   9.661
 5735SOL    HW118979   8.508  14.011   9.739
 5735SOL    HW218980   8.419  14.125   9.694
 5736SOL     OW18981   1.480  11.003   3.033
 5736SOL    HW118982   1.446  10.919   3.001
 5736SOL    HW218983   1.548  10.978   3.097
 5737SOL     OW18984   4.532   6.431   9.445
 5737SOL    HW118985   4.482   6.511   9.461
 5737SOL    HW218986   4.466   6.364   9.428
 5738SOL     OW18987   4.034  14.230   6.231
 5738SOL    HW118988   4.072  14.317   6.241
 5738SOL    HW218989   4.109  14.171   6.224
 5739SOL     OW18990   2.635   9.588   9.004
 5739SOL    HW118991   2.693   9.663   8.985
 5739SOL    HW218992   2.695   9.515   9.019
 5740SOL     OW18993  11.926   4.411  12.290
 5740SOL    HW118994  11.985   4.434  12.218
 5740SOL    HW218995  11.959   4.327  12.322
 5741SOL     OW18996  14.596   1.790   6.537
 5741SOL    HW118997  14.538   1.826   6.604
 5741SOL    HW218998  14.538   1.753   6.471
 5742SOL     OW18999  10.790   2.421   7.347
 5742SOL    HW119000  10.730   2.358   7.308
 5742SOL    HW219001  10.793   2.493   7.284
 5743SOL     OW19002   4.227   3.399   5.189
 5743SOL    HW119003   4.266   3.331   5.133
 5743SOL    HW219004   4.141   3.415   5.150
 5744SOL     OW19005  11.728   7.450   4.920
 5744SOL    HW119006  11.727   7.503   4.841
 5744SOL    HW219007  11.640   7.460   4.956
 5745SOL     OW19008   3.578   4.603   3.792
 5745SOL    HW119009   3.539   4.531   3.842
 5745SOL    HW219010   3.672   4.582   3.791
 5746SOL     OW19011   4.663   4.396   4.898
 5746SOL    HW119012   4.744   4.445   4.913
 5746SOL    HW219013   4.596   4.446   4.946
 5747SOL     OW19014   4.190  11.958   9.164
 5747SOL    HW119015   4.279  11.973   9.195
 5747SOL    HW219016   4.135  12.014   9.219
 5748SOL     OW19017   6.974  13.170   3.738
 5748SOL    HW119018   7.024  13.152   3.659
 5748SOL    HW219019   6.941  13.085   3.766
 5749SOL     OW19020   5.612   4.435  11.914
 5749SOL    HW119021   5.594   4.514  11.862
 5749SOL    HW219022   5.572   4.453  11.999
 5750SOL     OW19023  13.199  11.623  13.821
 5750SOL    HW119024  13.144  11.597  13.747
 5750SOL    HW219025  13.158  11.703  13.854
 5751SOL     OW19026   3.846   2.938   5.928
 5751SOL    HW119027   3.840   2.844   5.945
 5751SOL    HW219028   3.801   2.951   5.845
 5752SOL     OW19029  11.370   8.666   9.897
 5752SOL    HW119030  11.442   8.717   9.935
 5752SOL    HW219031  11.299   8.728   9.887
 5753SOL     OW19032   3.412  13.487   3.454
 5753SOL    HW119033   3.414  13.486   3.358
 5753SOL    HW219034   3.503  13.504   3.480
 5754SOL     OW19035   6.733   8.385   4.007
 5754SOL    HW119036   6.703   8.340   4.086
 5754SOL    HW219037   6.706   8.328   3.935
 5755SOL     OW19038  12.013   9.694   9.680
 5755SOL    HW119039  11.934   9.719   9.632
 5755SOL    HW219040  12.017   9.756   9.754
 5756SOL     OW19041   0.047   5.041   3.887
 5756SOL    HW119042   0.026   4.972   3.949
 5756SOL    HW219043   0.142   5.049   3.890
 5757SOL     OW19044   5.878   9.018   1.842
 5757SOL    HW119045   5.938   8.945   1.828
 5757SOL    HW219046   5.930   9.082   1.891
 5758SOL     OW19047   8.621  14.645   1.654
 5758SOL    HW119048   8.625  14.705   1.579
 5758SOL    HW219049   8.687  14.579   1.635
 5759SOL     OW19050   8.786  12.156   2.145
 5759SOL    HW119051   8.703  12.176   2.190
 5759SOL    HW219052   8.780  12.202   2.062
 5760SOL     OW19053   4.771  13.464   1.227
 5760SOL    HW119054   4.678  13.462   1.205
 5760SOL    HW219055   4.794  13.373   1.245
 5761SOL     OW19056   8.823  13.932   6.197
 5761SOL    HW119057   8.914  13.907   6.213
 5761SOL    HW219058   8.797  13.980   6.275
 5762SOL     OW19059   1.189   4.773  12.895
 5762SOL    HW119060   1.128   4.707  12.930
 5762SOL    HW219061   1.268   4.723  12.874
 5763SOL     OW19062   7.910   6.087  11.676
 5763SOL    HW119063   7.849   6.160  11.666
 5763SOL    HW219064   7.982   6.122  11.728
 5764SOL     OW19065   1.923   7.480   5.832
 5764SOL    HW119066   1.948   7.391   5.805
 5764SOL    HW219067   1.964   7.491   5.918
 5765SOL     OW19068  14.670  10.611   8.119
 5765SOL    HW119069  14.713  10.547   8.177
 5765SOL    HW219070  14.696  10.696   8.154
 5766SOL     OW19071   2.442   8.667   0.691
 5766SOL    HW119072   2.477   8.677   0.780
 5766SOL    HW219073   2.439   8.572   0.677
 5767SOL     OW19074  12.908  13.638  12.349
 5767SOL    HW119075  12.895  13.571  12.282
 5767SOL    HW219076  12.913  13.721  12.301
 5768SOL     OW19077   9.089  11.957   3.714
 5768SOL    HW119078   9.093  12.014   3.638
 5768SOL    HW219079   9.040  12.008   3.780
 5769SOL     OW19080  12.150   7.593   5.448
 5769SOL    HW119081  12.133   7.568   5.357
 5769SOL    HW219082  12.195   7.677   5.442
 5770SOL     OW19083   0.225   8.328  13.133
 5770SOL    HW119084   0.137   8.311  13.166
 5770SOL    HW219085   0.229   8.423  13.123
 5771SOL     OW19086  11.953  12.744   9.129
 5771SOL    HW119087  12.014  12.785   9.067
 5771SOL    HW219088  12.008  12.684   9.180
 5772SOL     OW19089   3.911   0.008  13.114
 5772SOL    HW119090   3.932   0.101  13.119
 5772SOL    HW219091   3.967  14.849  13.180
 5773SOL     OW19092   8.239   4.838   8.056
 5773SOL    HW119093   8.329   4.805   8.051
 5773SOL    HW219094   8.241   4.920   8.007
 5774SOL     OW19095   9.414  14.115  10.825
 5774SOL    HW119096   9.439  14.205  10.804
 5774SOL    HW219097   9.324  14.122  10.857
 5775SOL     OW19098  10.001   9.910   8.596
 5775SOL    HW119099  10.027   9.834   8.543
 5775SOL    HW219100   9.933   9.876   8.655
 5776SOL     OW19101   3.336   8.931  13.591
 5776SOL    HW119102   3.388   8.854  13.572
 5776SOL    HW219103   3.320   8.927  13.685
 5777SOL     OW19104   9.590   8.907   2.292
 5777SOL    HW119105   9.507   8.888   2.248
 5777SOL    HW219106   9.642   8.827   2.281
 5778SOL     OW19107  10.548   0.904   9.027
 5778SOL    HW119108  10.580   0.873   8.943
 5778SOL    HW219109  10.597   0.984   9.044
 5779SOL     OW19110   0.658  14.653   3.166
 5779SOL    HW119111   0.679  14.744   3.182
 5779SOL    HW219112   0.603  14.627   3.239
 5780SOL     OW19113   7.313   3.279  12.219
 5780SOL    HW119114   7.318   3.256  12.312
 5780SOL    HW219115   7.336   3.198  12.173
 5781SOL     OW19116   0.164  12.057   0.097
 5781SOL    HW119117   0.156  12.097   0.184
 5781SOL    HW219118   0.224  12.115   0.050
 5782SOL     OW19119   0.881   3.327   0.208
 5782SOL    HW119120   0.826   3.321   0.286
 5782SOL    HW219121   0.887   3.237   0.177
 5783SOL     OW19122   8.347   1.577  14.575
 5783SOL    HW119123   8.264   1.590  14.528
 5783SOL    HW219124   8.385   1.499  14.535
 5784SOL     OW19125   7.810   0.142   5.589
 5784SOL    HW119126   7.905   0.136   5.590
 5784SOL    HW219127   7.792   0.234   5.604
 5785SOL     OW19128   4.446  13.451   0.454
 5785SOL    HW119129   4.401  13.370   0.433
 5785SOL    HW219130   4.537  13.435   0.431
 5786SOL     OW19131   6.996   8.204   9.120
 5786SOL    HW119132   6.912   8.236   9.088
 5786SOL    HW219133   7.039   8.281   9.156
 5787SOL     OW19134   3.369  10.289   3.110
 5787SOL    HW119135   3.277  10.304   3.131
 5787SOL    HW219136   3.387  10.347   3.036
 5788SOL     OW19137  10.079  11.516   6.773
 5788SOL    HW119138  10.169  11.495   6.801
 5788SOL    HW219139  10.045  11.433   6.740
 5789SOL     OW19140  14.250   5.579   5.256
 5789SOL    HW119141  14.323   5.641   5.267
 5789SOL    HW219142  14.254   5.524   5.334
 5790SOL     OW19143  10.039   2.193   2.344
 5790SOL    HW119144   9.953   2.170   2.378
 5790SOL    HW219145  10.080   2.109   2.323
 5791SOL     OW19146  12.592   3.605  11.070
 5791SOL    HW119147  12.676   3.590  11.028
 5791SOL    HW219148  12.553   3.677  11.020
 5792SOL     OW19149  10.499   8.418   9.623
 5792SOL    HW119150  10.412   8.391   9.653
 5792SOL    HW219151  10.543   8.447   9.703
 5793SOL     OW19152   5.059  11.681   1.174
 5793SOL    HW119153   5.118  11.662   1.101
 5793SOL    HW219154   5.073  11.608   1.235
 5794SOL     OW19155   1.724   8.003  14.434
 5794SOL    HW119156   1.786   8.076  14.429
 5794SOL    HW219157   1.670   8.011  14.355
 5795SOL     OW19158   9.603  14.000   2.719
 5795SOL    HW119159   9.629  14.073   2.663
 5795SOL    HW219160   9.585  14.040   2.804
 5796SOL     OW19161   7.198  12.905   0.172
 5796SOL    HW119162   7.152  12.829   0.207
 5796SOL    HW219163   7.276  12.869   0.129
 5797SOL     OW19164  14.855   1.783   0.895
 5797SOL    HW119165  14.825   1.828   0.816
 5797SOL    HW219166   0.025   1.709   0.861
 5798SOL     OW19167  13.636   6.346   9.416
 5798SOL    HW119168  13.637   6.251   9.430
 5798SOL    HW219169  13.563   6.377   9.468
 5799SOL     OW19170   6.086  10.512   6.791
 5799SOL    HW119171   6.042  10.482   6.712
 5799SOL    HW219172   6.091  10.607   6.782
 5800SOL     OW19173   7.199   8.516   4.903
 5800SOL    HW119174   7.162   8.548   4.985
 5800SOL    HW219175   7.191   8.421   4.909
 5801SOL     OW19176   7.572  11.051  13.011
 5801SOL    HW119177   7.591  10.958  13.023
 5801SOL    HW219178   7.532  11.056  12.924
 5802SOL     OW19179  10.087   6.608   3.036
 5802SOL    HW119180  10.070   6.645   3.123
 5802SOL    HW219181  10.159   6.660   3.002
 5803SOL     OW19182   1.181   5.261   8.791
 5803SOL    HW119183   1.170   5.290   8.700
 5803SOL    HW219184   1.270   5.290   8.814
 5804SOL     OW19185   1.311   0.532   3.844
 5804SOL    HW119186   1.290   0.480   3.921
 5804SOL    HW219187   1.375   0.479   3.796
 5805SOL     OW19188   0.093   2.051   0.285
 5805SOL    HW119189   0.004   2.032   0.257
 5805SOL    HW219190   0.092   2.143   0.310
 5806SOL     OW19191   6.085  12.517   2.240
 5806SOL    HW119192   6.113  12.608   2.246
 5806SOL    HW219193   6.129  12.484   2.162
 5807SOL     OW19194   2.966   6.754   8.761
 5807SOL    HW119195   3.018   6.680   8.792
 5807SOL    HW219196   2.879   6.739   8.799
 5808SOL     OW19197   9.117   2.966  12.064
 5808SOL    HW119198   9.056   2.972  12.137
 5808SOL    HW219199   9.199   3.000  12.099
 5809SOL     OW19200  10.736   2.706   6.094
 5809SOL    HW119201  10.717   2.619   6.058
 5809SOL    HW219202  10.820   2.694   6.140
 5810SOL     OW19203  12.340   3.757   0.883
 5810SOL    HW119204  12.326   3.696   0.955
 5810SOL    HW219205  12.371   3.703   0.810
 5811SOL     OW19206  10.421  12.409   1.794
 5811SOL    HW119207  10.400  12.426   1.702
 5811SOL    HW219208  10.337  12.416   1.839
 5812SOL     OW19209   0.183   1.394  10.035
 5812SOL    HW119210   0.141   1.477  10.057
 5812SOL    HW219211   0.231   1.413   9.954
 5813SOL     OW19212   0.069   0.624   9.104
 5813SOL    HW119213   0.155   0.664   9.092
 5813SOL    HW219214   0.031   0.623   9.016
 5814SOL     OW19215   0.372  12.567   0.597
 5814SOL    HW119216   0.324  12.563   0.513
 5814SOL    HW219217   0.462  12.544   0.574
 5815SOL     OW19218  14.841   0.227   1.927
 5815SOL    HW119219  14.859   0.312   1.968
 5815SOL    HW219220  14.801   0.249   1.843
 5816SOL     OW19221   3.699   3.731  12.695
 5816SOL    HW119222   3.746   3.734  12.779
 5816SOL    HW219223   3.768   3.725  12.629
 5817SOL     OW19224   9.986  11.276   2.687
 5817SOL    HW119225   9.936  11.309   2.761
 5817SOL    HW219226   9.986  11.348   2.623
 5818SOL     OW19227   6.331  13.169   3.318
 5818SOL    HW119228   6.251  13.126   3.289
 5818SOL    HW219229   6.348  13.132   3.405
 5819SOL     OW19230   3.171   5.304  13.731
 5819SOL    HW119231   3.234   5.280  13.664
 5819SOL    HW219232   3.216   5.369  13.785
 5820SOL     OW19233   8.882   4.525   8.246
 5820SOL    HW119234   8.845   4.595   8.192
 5820SOL    HW219235   8.949   4.485   8.190
 5821SOL     OW19236   1.474   7.105   0.665
 5821SOL    HW119237   1.406   7.164   0.632
 5821SOL    HW219238   1.510   7.063   0.587
 5822SOL     OW19239   7.123   6.419   8.671
 5822SOL    HW119240   7.198   6.379   8.628
 5822SOL    HW219241   7.160   6.461   8.748
 5823SOL     OW19242   3.220  14.689   2.830
 5823SOL    HW119243   3.214  14.724   2.741
 5823SOL    HW219244   3.130  14.677   2.857
 5824SOL     OW19245  11.451   4.763  14.626
 5824SOL    HW119246  11.382   4.715  14.580
 5824SOL    HW219247  11.533   4.725  14.592
 5825SOL     OW19248   6.303  12.937  13.947
 5825SOL    HW119249   6.214  12.910  13.972
 5825SOL    HW219250   6.333  12.990  14.021
 5826SOL     OW19251  10.666   6.030   7.169
 5826SOL    HW119252  10.757   6.061   7.166
 5826SOL    HW219253  10.614   6.110   7.177
 5827SOL     OW19254   7.635   8.703   6.185
 5827SOL    HW119255   7.713   8.654   6.211
 5827SOL    HW219256   7.616   8.760   6.260
 5828SOL     OW19257   6.744   0.957  13.856
 5828SOL    HW119258   6.736   0.863  13.877
 5828SOL    HW219259   6.709   0.965  13.768
 5829SOL     OW19260  10.792   9.645  13.235
 5829SOL    HW119261  10.784   9.715  13.300
 5829SOL    HW219262  10.786   9.690  13.151
 5830SOL     OW19263   6.931   5.667  10.222
 5830SOL    HW119264   7.019   5.698  10.243
 5830SOL    HW219265   6.910   5.606  10.293
 5831SOL     OW19266  13.690  10.207   2.965
 5831SOL    HW119267  13.764  10.205   2.904
 5831SOL    HW219268  13.616  10.174   2.913
 5832SOL     OW19269  12.407   6.861   9.007
 5832SOL    HW119270  12.363   6.827   9.085
 5832SOL    HW219271  12.382   6.954   9.005
 5833SOL     OW19272   9.478   9.501   5.337
 5833SOL    HW119273   9.453   9.465   5.422
 5833SOL    HW219274   9.573   9.497   5.335
 5834SOL     OW19275  13.523  11.878   5.532
 5834SOL    HW119276  13.543  11.790   5.500
 5834SOL    HW219277  13.444  11.867   5.585
 5835SOL     OW19278   3.765   6.030   0.514
 5835SOL    HW119279   3.848   6.034   0.466
 5835SOL    HW219280   3.715   6.106   0.483
 5836SOL     OW19281   4.746   1.345   8.376
 5836SOL    HW119282   4.720   1.334   8.467
 5836SOL    HW219283   4.683   1.408   8.340
 5837SOL     OW19284   9.661   2.624   0.166
 5837SOL    HW119285   9.672   2.688   0.096
 5837SOL    HW219286   9.611   2.670   0.234
 5838SOL     OW19287   6.535  10.433  13.021
 5838SOL    HW119288   6.624  10.446  13.053
 5838SOL    HW219289   6.513  10.514  12.975
 5839SOL     OW19290   6.477   6.467  11.085
 5839SOL    HW119291   6.433   6.384  11.103
 5839SOL    HW219292   6.522   6.452  11.002
 5840SOL     OW19293   0.777  14.713  14.761
 5840SOL    HW119294   0.871  14.696  14.749
 5840SOL    HW219295   0.734  14.637  14.723
 5841SOL     OW19296  13.618   7.669   0.681
 5841SOL    HW119297  13.627   7.588   0.629
 5841SOL    HW219298  13.688   7.726   0.649
 5842SOL     OW19299  14.391  11.222  11.761
 5842SOL    HW119300  14.365  11.275  11.836
 5842SOL    HW219301  14.380  11.280  11.685
 5843SOL     OW19302   2.775  11.703  10.941
 5843SOL    HW119303   2.722  11.624  10.944
 5843SOL    HW219304   2.861  11.676  10.974
 5844SOL     OW19305   2.207   4.044   7.814
 5844SOL    HW119306   2.280   4.020   7.871
 5844SOL    HW219307   2.157   3.962   7.804
 5845SOL     OW19308   1.390   2.756  12.512
 5845SOL    HW119309   1.364   2.755  12.604
 5845SOL    HW219310   1.477   2.794  12.512
 5846SOL     OW19311   6.506   7.401   7.930
 5846SOL    HW119312   6.523   7.324   7.985
 5846SOL    HW219313   6.561   7.470   7.967
 5847SOL     OW19314  11.852   8.908   2.380
 5847SOL    HW119315  11.772   8.855   2.383
 5847SOL    HW219316  11.893   8.884   2.297
 5848SOL     OW19317  12.078   3.225  13.103
 5848SOL    HW119318  12.094   3.310  13.145
 5848SOL    HW219319  12.046   3.247  13.016
 5849SOL     OW19320   3.018   3.677   3.946
 5849SOL    HW119321   2.970   3.630   4.014
 5849SOL    HW219322   3.047   3.609   3.885
 5850SOL     OW19323  13.679   3.552   3.839
 5850SOL    HW119324  13.693   3.468   3.883
 5850SOL    HW219325  13.760   3.566   3.790
 5851SOL     OW19326  13.345  14.118  14.859
 5851SOL    HW119327  13.313  14.201  14.823
 5851SOL    HW219328  13.344  14.058  14.784
 5852SOL     OW19329   4.575   5.050   3.347
 5852SOL    HW119330   4.555   5.004   3.266
 5852SOL    HW219331   4.547   5.140   3.332
 5853SOL     OW19332   4.416   1.420  14.671
 5853SOL    HW119333   4.320   1.418  14.665
 5853SOL    HW219334   4.446   1.412  14.581
 5854SOL     OW19335  12.507   7.013  10.328
 5854SOL    HW119336  12.544   7.081  10.272
 5854SOL    HW219337  12.414   7.033  10.333
 5855SOL     OW19338   6.961  10.271   9.980
 5855SOL    HW119339   6.878  10.240  10.015
 5855SOL    HW219340   7.023  10.200   9.997
 5856SOL     OW19341   0.595  10.063   7.780
 5856SOL    HW119342   0.595   9.967   7.781
 5856SOL    HW219343   0.686  10.086   7.798
 5857SOL     OW19344  10.933  12.828   0.915
 5857SOL    HW119345  10.880  12.859   0.842
 5857SOL    HW219346  11.023  12.850   0.890
 5858SOL     OW19347   8.419   5.526   2.678
 5858SOL    HW119348   8.333   5.560   2.703
 5858SOL    HW219349   8.439   5.461   2.746
 5859SOL     OW19350   2.855  12.722   7.588
 5859SOL    HW119351   2.840  12.653   7.523
 5859SOL    HW219352   2.946  12.711   7.615
 5860SOL     OW19353   8.219   9.833  13.941
 5860SOL    HW119354   8.163   9.816  14.017
 5860SOL    HW219355   8.158   9.843  13.868
 5861SOL     OW19356  11.657   1.950   8.161
 5861SOL    HW119357  11.621   1.861   8.152
 5861SOL    HW219358  11.715   1.960   8.086
 5862SOL     OW19359  12.872  10.878   9.075
 5862SOL    HW119360  12.920  10.924   9.005
 5862SOL    HW219361  12.878  10.785   9.050
 5863SOL     OW19362   6.624   6.385   4.128
 5863SOL    HW119363   6.594   6.437   4.202
 5863SOL    HW219364   6.555   6.319   4.116
 5864SOL     OW19365  11.813   8.922  13.362
 5864SOL    HW119366  11.732   8.973  13.366
 5864SOL    HW219367  11.882   8.986  13.381
 5865SOL     OW19368   1.573   2.028   2.015
 5865SOL    HW119369   1.532   2.025   2.102
 5865SOL    HW219370   1.621   1.946   2.008
 5866SOL     OW19371   1.329   3.836   3.731
 5866SOL    HW119372   1.298   3.777   3.800
 5866SOL    HW219373   1.357   3.915   3.778
 5867SOL     OW19374   3.411   0.140   5.997
 5867SOL    HW119375   3.328   0.172   6.032
 5867SOL    HW219376   3.443   0.079   6.064
 5868SOL     OW19377   2.414   9.157   5.491
 5868SOL    HW119378   2.478   9.196   5.551
 5868SOL    HW219379   2.450   9.175   5.404
 5869SOL     OW19380   4.681  10.937   0.626
 5869SOL    HW119381   4.634  10.923   0.544
 5869SOL    HW219382   4.663  10.859   0.678
 5870SOL     OW19383  14.051   2.341   4.040
 5870SOL    HW119384  13.964   2.376   4.018
 5870SOL    HW219385  14.032   2.255   4.077
 5871SOL     OW19386   9.999  13.031   2.349
 5871SOL    HW119387   9.926  13.048   2.289
 5871SOL    HW219388   9.960  13.037   2.436
 5872SOL     OW19389   0.505   6.401   8.080
 5872SOL    HW119390   0.417   6.428   8.054
 5872SOL    HW219391   0.561   6.476   8.058
 5873SOL     OW19392   2.410  13.731   8.446
 5873SOL    HW119393   2.408  13.741   8.351
 5873SOL    HW219394   2.451  13.645   8.460
 5874SOL     OW19395  10.587   9.711  12.162
 5874SOL    HW119396  10.533   9.767  12.107
 5874SOL    HW219397  10.641   9.661  12.101
 5875SOL     OW19398   8.872   0.809  12.515
 5875SOL    HW119399   8.908   0.898  12.519
 5875SOL    HW219400   8.777   0.822  12.516
 5876SOL     OW19401  12.175  10.741   3.288
 5876SOL    HW119402  12.265  10.724   3.261
 5876SOL    HW219403  12.172  10.717   3.380
 5877SOL     OW19404   3.917   8.740   9.906
 5877SOL    HW119405   3.946   8.831   9.893
 5877SOL    HW219406   3.838   8.747   9.960
 5878SOL     OW19407   0.178   8.354  10.598
 5878SOL    HW119408   0.116   8.289  10.631
 5878SOL    HW219409   0.222   8.311  10.525
 5879SOL     OW19410   2.590   8.747   2.592
 5879SOL    HW119411   2.589   8.655   2.616
 5879SOL    HW219412   2.676   8.778   2.619
 5880SOL     OW19413   1.918   2.994   1.318
 5880SOL    HW119414   1.900   2.939   1.394
 5880SOL    HW219415   2.012   2.982   1.302
 5881SOL     OW19416   9.506  10.307   8.702
 5881SOL    HW119417   9.576  10.348   8.753
 5881SOL    HW219418   9.426  10.328   8.750
 5882SOL     OW19419   3.124   2.168   1.643
 5882SOL    HW119420   3.083   2.184   1.558
 5882SOL    HW219421   3.187   2.240   1.653
 5883SOL     OW19422  10.934   7.515  11.432
 5883SOL    HW119423  10.864   7.568  11.468
 5883SOL    HW219424  10.890   7.449  11.379
 5884SOL     OW19425   5.994   1.336   5.422
 5884SOL    HW119426   6.088   1.320   5.425
 5884SOL    HW219427   5.985   1.430   5.434
 5885SOL     OW19428   6.497  11.891  10.847
 5885SOL    HW119429   6.459  11.907  10.934
 5885SOL    HW219430   6.468  11.802  10.825
 5886SOL     OW19431   0.724   5.176   0.694
 5886SOL    HW119432   0.673   5.199   0.616
 5886SOL    HW219433   0.662   5.130   0.750
 5887SOL     OW19434  11.804  13.623   3.586
 5887SOL    HW119435  11.720  13.664   3.564
 5887SOL    HW219436  11.862  13.696   3.606
 5888SOL     OW19437   7.510   8.240   5.675
 5888SOL    HW119438   7.450   8.221   5.602
 5888SOL    HW219439   7.583   8.180   5.660
 5889SOL     OW19440   7.785  14.372   2.389
 5889SOL    HW119441   7.751  14.323   2.465
 5889SOL    HW219442   7.714  14.431   2.366
 5890SOL     OW19443   1.233   2.175  12.024
 5890SOL    HW119444   1.152   2.226  12.020
 5890SOL    HW219445   1.286   2.220  12.090
 5891SOL     OW19446  10.531   0.838   4.037
 5891SOL    HW119447  10.530   0.892   4.116
 5891SOL    HW219448  10.613   0.859   3.994
 5892SOL     OW19449   3.513  12.497   1.351
 5892SOL    HW119450   3.575  12.424   1.363
 5892SOL    HW219451   3.435  12.456   1.314
 5893SOL     OW19452   3.239  10.184   6.260
 5893SOL    HW119453   3.270  10.183   6.351
 5893SOL    HW219454   3.194  10.101   6.250
 5894SOL     OW19455   6.159   0.346  10.210
 5894SOL    HW119456   6.211   0.368  10.133
 5894SOL    HW219457   6.172   0.420  10.269
 5895SOL     OW19458   7.590   1.413   1.289
 5895SOL    HW119459   7.638   1.450   1.363
 5895SOL    HW219460   7.648   1.345   1.254
 5896SOL     OW19461   8.591   6.073  13.470
 5896SOL    HW119462   8.577   5.999  13.411
 5896SOL    HW219463   8.546   6.146  13.429
 5897SOL     OW19464   2.778   1.232   7.001
 5897SOL    HW119465   2.872   1.238   6.982
 5897SOL    HW219466   2.747   1.158   6.948
 5898SOL     OW19467   1.103  12.235  13.119
 5898SOL    HW119468   1.176  12.247  13.181
 5898SOL    HW219469   1.090  12.322  13.080
 5899SOL     OW19470   0.934   1.400  13.387
 5899SOL    HW119471   0.924   1.306  13.401
 5899SOL    HW219472   0.859   1.439  13.432
 5900SOL     OW19473   7.734   6.872  12.684
 5900SOL    HW119474   7.810   6.891  12.629
 5900SOL    HW219475   7.745   6.928  12.761
 5901SOL     OW19476   3.407   6.974   8.075
 5901SOL    HW119477   3.369   6.965   8.162
 5901SOL    HW219478   3.478   6.909   8.072
 5902SOL     OW19479   6.106   9.096   8.031
 5902SOL    HW119480   6.032   9.076   7.974
 5902SOL    HW219481   6.087   9.050   8.113
 5903SOL     OW19482   5.864   2.501   5.921
 5903SOL    HW119483   5.902   2.441   5.984
 5903SOL    HW219484   5.776   2.467   5.905
 5904SOL     OW19485   1.787   0.825  11.799
 5904SOL    HW119486   1.774   0.916  11.773
 5904SOL    HW219487   1.871   0.801  11.759
 5905SOL     OW19488   3.416  14.624   5.953
 5905SOL    HW119489   3.394  14.593   6.041
 5905SOL    HW219490   3.498  14.672   5.964
 5906SOL     OW19491   1.149   6.573   0.335
 5906SOL    HW119492   1.061   6.610   0.327
 5906SOL    HW219493   1.169   6.540   0.248
 5907SOL     OW19494   5.848  11.185   4.474
 5907SOL    HW119495   5.781  11.252   4.460
 5907SOL    HW219496   5.844  11.166   4.568
 5908SOL     OW19497   8.032   9.934   8.377
 5908SOL    HW119498   7.965   9.875   8.411
 5908SOL    HW219499   8.107   9.919   8.435
 5909SOL     OW19500   5.211   4.010   6.993
 5909SOL    HW119501   5.213   4.001   6.898
 5909SOL    HW219502   5.301   4.028   7.018
 5910SOL     OW19503  10.933  11.710   6.342
 5910SOL    HW119504  10.966  11.620   6.335
 5910SOL    HW219505  10.885  11.711   6.424
 5911SOL     OW19506   0.776  11.977  11.518
 5911SOL    HW119507   0.810  12.064  11.500
 5911SOL    HW219508   0.683  11.990  11.537
 5912SOL     OW19509   5.777   1.792   5.039
 5912SOL    HW119510   5.692   1.812   5.077
 5912SOL    HW219511   5.838   1.801   5.113
 5913SOL     OW19512   6.187   9.963   3.850
 5913SOL    HW119513   6.143   9.882   3.824
 5913SOL    HW219514   6.121  10.031   3.837
 5914SOL     OW19515   3.259  13.642   3.189
 5914SOL    HW119516   3.335  13.584   3.177
 5914SOL    HW219517   3.293  13.730   3.171
 5915SOL     OW19518  11.000   8.733   2.397
 5915SOL    HW119519  10.962   8.746   2.310
 5915SOL    HW219520  10.926   8.741   2.456
 5916SOL     OW19521  13.417   6.253  14.185
 5916SOL    HW119522  13.484   6.188  14.208
 5916SOL    HW219523  13.446   6.289  14.101
 5917SOL     OW19524   3.342   0.674  13.367
 5917SOL    HW119525   3.382   0.590  13.389
 5917SOL    HW219526   3.403   0.715  13.306
 5918SOL     OW19527   5.461   6.398   5.428
 5918SOL    HW119528   5.421   6.315   5.403
 5918SOL    HW219529   5.442   6.405   5.522
 5919SOL     OW19530  12.509   0.016  13.046
 5919SOL    HW119531  12.560  14.851  12.979
 5919SOL    HW219532  12.517   0.108  13.023
 5920SOL     OW19533   2.915   1.926   7.532
 5920SOL    HW119534   3.003   1.941   7.495
 5920SOL    HW219535   2.899   1.833   7.516
 5921SOL     OW19536   7.128   0.028   5.055
 5921SOL    HW119537   7.068  14.853   5.104
 5921SOL    HW219538   7.141   0.104   5.112
 5922SOL     OW19539   4.560   4.972  12.901
 5922SOL    HW119540   4.652   4.961  12.923
 5922SOL    HW219541   4.542   5.064  12.919
 5923SOL     OW19542   2.153  14.323   4.682
 5923SOL    HW119543   2.125  14.385   4.615
 5923SOL    HW219544   2.096  14.247   4.671
 5924SOL     OW19545   1.382   4.787  14.827
 5924SOL    HW119546   1.438   4.715  14.799
 5924SOL    HW219547   1.399   4.797   0.039
 5925SOL     OW19548   1.928  10.226   1.115
 5925SOL    HW119549   2.019  10.217   1.087
 5925SOL    HW219550   1.918  10.163   1.187
 5926SOL     OW19551   3.983   9.736   7.617
 5926SOL    HW119552   4.027   9.821   7.624
 5926SOL    HW219553   4.031   9.690   7.548
 5927SOL     OW19554   2.235  12.933   1.800
 5927SOL    HW119555   2.287  12.981   1.736
 5927SOL    HW219556   2.295  12.869   1.838
 5928SOL     OW19557   0.122   1.688  10.500
 5928SOL    HW119558   0.106   1.750  10.571
 5928SOL    HW219559   0.095   1.735  10.421
 5929SOL     OW19560   6.580   5.482   9.191
 5929SOL    HW119561   6.512   5.547   9.209
 5929SOL    HW219562   6.533   5.406   9.158
 5930SOL     OW19563  11.267   7.727   1.112
 5930SOL    HW119564  11.181   7.734   1.155
 5930SOL    HW219565  11.273   7.635   1.087
 5931SOL     OW19566   2.476  10.170   6.795
 5931SOL    HW119567   2.481  10.212   6.881
 5931SOL    HW219568   2.567  10.150   6.773
 5932SOL     OW19569   2.276   4.378  13.976
 5932SOL    HW119570   2.201   4.435  13.955
 5932SOL    HW219571   2.247   4.290  13.951
 5933SOL     OW19572   2.895   8.211   0.344
 5933SOL    HW119573   2.833   8.154   0.390
 5933SOL    HW219574   2.979   8.165   0.351
 5934SOL     OW19575  12.401   8.005   9.220
 5934SOL    HW119576  12.435   8.024   9.133
 5934SOL    HW219577  12.311   7.976   9.206
 5935SOL     OW19578   7.037   3.696  10.935
 5935SOL    HW119579   6.981   3.658  11.003
 5935SOL    HW219580   7.126   3.685  10.967
 5936SOL     OW19581   3.689   9.161  11.253
 5936SOL    HW119582   3.741   9.081  11.263
 5936SOL    HW219583   3.742   9.230  11.291
 5937SOL     OW19584  12.635   3.639  11.344
 5937SOL    HW119585  12.619   3.665  11.253
 5937SOL    HW219586  12.716   3.588  11.340
 5938SOL     OW19587   1.206  11.951   9.469
 5938SOL    HW119588   1.113  11.972   9.459
 5938SOL    HW219589   1.209  11.888   9.541
 5939SOL     OW19590   7.405   3.005   3.462
 5939SOL    HW119591   7.345   2.988   3.534
 5939SOL    HW219592   7.434   3.095   3.475
 5940SOL     OW19593  11.682   1.426   9.532
 5940SOL    HW119594  11.721   1.490   9.592
 5940SOL    HW219595  11.689   1.342   9.579
 5941SOL     OW19596  13.112   5.346   5.357
 5941SOL    HW119597  13.170   5.379   5.426
 5941SOL    HW219598  13.053   5.419   5.339
 5942SOL     OW19599   8.635   7.588  12.523
 5942SOL    HW119600   8.639   7.492  12.522
 5942SOL    HW219601   8.547   7.607  12.555
 5943SOL     OW19602   1.822  13.195  10.142
 5943SOL    HW119603   1.886  13.215  10.074
 5943SOL    HW219604   1.789  13.281  10.169
 5944SOL     OW19605  11.114  11.807   9.712
 5944SOL    HW119606  11.021  11.827   9.722
 5944SOL    HW219607  11.159  11.879   9.757
 5945SOL     OW19608   6.015   0.458   1.135
 5945SOL    HW119609   6.010   0.362   1.139
 5945SOL    HW219610   6.096   0.479   1.180
 5946SOL     OW19611   2.441  12.004  11.046
 5946SOL    HW119612   2.468  12.035  10.959
 5946SOL    HW219613   2.523  11.988  11.092
 5947SOL     OW19614  13.508  12.292  11.156
 5947SOL    HW119615  13.585  12.348  11.164
 5947SOL    HW219616  13.520  12.224  11.222
 5948SOL     OW19617   3.995   2.713   0.910
 5948SOL    HW119618   4.064   2.648   0.923
 5948SOL    HW219619   3.916   2.661   0.896
 5949SOL     OW19620   3.022  13.343   3.043
 5949SOL    HW119621   3.012  13.346   3.138
 5949SOL    HW219622   2.960  13.408   3.010
 5950SOL     OW19623   7.088   6.319   0.937
 5950SOL    HW119624   7.049   6.406   0.930
 5950SOL    HW219625   7.160   6.329   1.000
 5951SOL     OW19626  13.623   2.824   5.486
 5951SOL    HW119627  13.636   2.731   5.473
 5951SOL    HW219628  13.608   2.834   5.580
 5952SOL     OW19629  10.650   0.413   0.801
 5952SOL    HW119630  10.662   0.491   0.747
 5952SOL    HW219631  10.598   0.354   0.746
 5953SOL     OW19632  13.284   1.288  12.798
 5953SOL    HW119633  13.216   1.314  12.860
 5953SOL    HW219634  13.261   1.334  12.717
 5954SOL     OW19635  12.162   9.532  11.454
 5954SOL    HW119636  12.227   9.595  11.484
 5954SOL    HW219637  12.213   9.455  11.427
 5955SOL     OW19638   0.667   4.986   3.111
 5955SOL    HW119639   0.666   4.945   3.198
 5955SOL    HW219640   0.631   5.073   3.125
 5956SOL     OW19641   4.381  11.638   3.130
 5956SOL    HW119642   4.476  11.636   3.124
 5956SOL    HW219643   4.357  11.728   3.110
 5957SOL     OW19644   8.913  12.694   8.352
 5957SOL    HW119645   9.007  12.708   8.339
 5957SOL    HW219646   8.906  12.660   8.441
 5958SOL     OW19647  14.388   5.019   4.889
 5958SOL    HW119648  14.365   4.936   4.848
 5958SOL    HW219649  14.484   5.022   4.886
 5959SOL     OW19650   1.413   3.715  11.951
 5959SOL    HW119651   1.499   3.753  11.932
 5959SOL    HW219652   1.429   3.621  11.956
 5960SOL     OW19653   2.554  13.513   2.381
 5960SOL    HW119654   2.483  13.579   2.380
 5960SOL    HW219655   2.626  13.557   2.426
 5961SOL     OW19656   5.890   0.884   6.030
 5961SOL    HW119657   5.825   0.822   5.998
 5961SOL    HW219658   5.840   0.964   6.048
 5962SOL     OW19659   8.970   8.528   5.306
 5962SOL    HW119660   8.902   8.515   5.240
 5962SOL    HW219661   8.923   8.564   5.382
 5963SOL     OW19662   9.927   3.488   6.904
 5963SOL    HW119663   9.851   3.537   6.936
 5963SOL    HW219664   9.959   3.540   6.830
 5964SOL     OW19665   8.045  13.162   1.077
 5964SOL    HW119666   8.050  13.175   1.172
 5964SOL    HW219667   8.078  13.073   1.064
 5965SOL     OW19668   0.697   0.565   1.301
 5965SOL    HW119669   0.632   0.552   1.232
 5965SOL    HW219670   0.731   0.477   1.319
 5966SOL     OW19671   8.582   5.967   2.782
 5966SOL    HW119672   8.627   6.018   2.850
 5966SOL    HW219673   8.589   5.877   2.812
 5967SOL     OW19674  13.775   4.778  12.626
 5967SOL    HW119675  13.699   4.788  12.569
 5967SOL    HW219676  13.850   4.775  12.567
 5968SOL     OW19677   5.766  10.070   7.182
 5968SOL    HW119678   5.672  10.086   7.194
 5968SOL    HW219679   5.772   9.977   7.164
 5969SOL     OW19680  10.338   9.351  11.719
 5969SOL    HW119681  10.413   9.346  11.779
 5969SOL    HW219682  10.322   9.445  11.709
 5970SOL     OW19683   1.272   1.605   8.508
 5970SOL    HW119684   1.289   1.658   8.430
 5970SOL    HW219685   1.181   1.623   8.530
 5971SOL     OW19686  10.546   8.489   3.330
 5971SOL    HW119687  10.477   8.538   3.374
 5971SOL    HW219688  10.622   8.548   3.332
 5972SOL     OW19689   7.378   6.123   5.182
 5972SOL    HW119690   7.435   6.100   5.109
 5972SOL    HW219691   7.437   6.154   5.251
 5973SOL     OW19692   3.869   8.524   4.300
 5973SOL    HW119693   3.888   8.537   4.207
 5973SOL    HW219694   3.839   8.610   4.330
 5974SOL     OW19695  14.586   4.480  10.048
 5974SOL    HW119696  14.537   4.400  10.034
 5974SOL    HW219697  14.628   4.498   9.964
 5975SOL     OW19698   7.250  11.263   2.613
 5975SOL    HW119699   7.321  11.199   2.621
 5975SOL    HW219700   7.253  11.313   2.694
 5976SOL     OW19701   8.401  14.729   9.681
 5976SOL    HW119702   8.493  14.756   9.686
 5976SOL    HW219703   8.387  14.676   9.760
 5977SOL     OW19704  12.312  13.213   3.482
 5977SOL    HW119705  12.252  13.288   3.474
 5977SOL    HW219706  12.285  13.154   3.411
 5978SOL     OW19707   6.345   3.038  13.908
 5978SOL    HW119708   6.379   3.123  13.938
 5978SOL    HW219709   6.415   2.976  13.931
 5979SOL     OW19710   7.558  14.287   8.577
 5979SOL    HW119711   7.597  14.342   8.510
 5979SOL    HW219712   7.625  14.284   8.647
 5980SOL     OW19713   1.156   5.848   7.340
 5980SOL    HW119714   1.244   5.885   7.339
 5980SOL    HW219715   1.167   5.760   7.375
 5981SOL     OW19716   7.085   9.526   8.855
 5981SOL    HW119717   7.091   9.548   8.948
 5981SOL    HW219718   7.061   9.609   8.812
 5982SOL     OW19719  12.011   3.002   6.416
 5982SOL    HW119720  11.948   3.045   6.475
 5982SOL    HW219721  11.957   2.966   6.345
 5983SOL     OW19722   7.427   2.288   2.593
 5983SOL    HW119723   7.457   2.366   2.641
 5983SOL    HW219724   7.346   2.316   2.551
 5984SOL     OW19725   0.667   7.198   1.557
 5984SOL    HW119726   0.619   7.206   1.640
 5984SOL    HW219727   0.638   7.114   1.521
 5985SOL     OW19728   1.083   1.613  12.379
 5985SOL    HW119729   1.104   1.680  12.315
 5985SOL    HW219730   1.036   1.545  12.330
 5986SOL     OW19731   5.935  10.151   6.371
 5986SOL    HW119732   5.913  10.095   6.296
 5986SOL    HW219733   5.855  10.151   6.424
 5987SOL     OW19734   1.639  10.497  14.040
 5987SOL    HW119735   1.720  10.547  14.038
 5987SOL    HW219736   1.665  10.408  14.013
 5988SOL     OW19737   9.617  10.268  13.285
 5988SOL    HW119738   9.621  10.175  13.262
 5988SOL    HW219739   9.529  10.296  13.257
 5989SOL     OW19740  14.517   3.848  10.920
 5989SOL    HW119741  14.507   3.892  10.836
 5989SOL    HW219742  14.577   3.775  10.903
 5990SOL     OW19743   3.676   2.899   7.728
 5990SOL    HW119744   3.759   2.929   7.691
 5990SOL    HW219745   3.657   2.961   7.798
 5991SOL     OW19746  12.102   7.311   9.871
 5991SOL    HW119747  12.194   7.285   9.864
 5991SOL    HW219748  12.085   7.311   9.965
 5992SOL     OW19749   1.880   4.565   6.151
 5992SOL    HW119750   1.819   4.514   6.204
 5992SOL    HW219751   1.962   4.516   6.155
 5993SOL     OW19752  13.406   3.793  13.903
 5993SOL    HW119753  13.452   3.760  13.980
 5993SOL    HW219754  13.374   3.714  13.859
 5994SOL     OW19755   5.998   1.619   4.261
 5994SOL    HW119756   6.059   1.692   4.272
 5994SOL    HW219757   5.949   1.617   4.343
 5995SOL     OW19758   0.371  12.515  14.445
 5995SOL    HW119759   0.297  12.550  14.494
 5995SOL    HW219760   0.384  12.427  14.481
 5996SOL     OW19761   9.537   4.480  10.644
 5996SOL    HW119762   9.611   4.540  10.650
 5996SOL    HW219763   9.576   4.392  10.651
 5997SOL     OW19764   9.659   0.777   8.066
 5997SOL    HW119765   9.731   0.717   8.085
 5997SOL    HW219766   9.626   0.747   7.981
 5998SOL     OW19767  13.586   8.349   4.370
 5998SOL    HW119768  13.548   8.274   4.323
 5998SOL    HW219769  13.582   8.421   4.307
 5999SOL     OW19770  11.274  14.348   3.721
 5999SOL    HW119771  11.209  14.385   3.661
 5999SOL    HW219772  11.236  14.361   3.808
 6000SOL     OW19773  14.805  10.428  10.779
 6000SOL    HW119774  14.795  10.392  10.691
 6000SOL    HW219775  14.874  10.494  10.770
 6001SOL     OW19776   2.534   4.912  12.375
 6001SOL    HW119777   2.456   4.903  12.429
 6001SOL    HW219778   2.597   4.959  12.430
 6002SOL     OW19779   5.307  13.974   2.385
 6002SOL    HW119780   5.218  13.993   2.414
 6002SOL    HW219781   5.358  14.050   2.415
 6003SOL     OW19782  11.153   1.271   9.360
 6003SOL    HW119783  11.147   1.367   9.354
 6003SOL    HW219784  11.236   1.250   9.318
 6004SOL     OW19785   4.003   6.618   3.702
 6004SOL    HW119786   4.066   6.679   3.742
 6004SOL    HW219787   3.961   6.669   3.633
 6005SOL     OW19788   8.100   7.617  12.687
 6005SOL    HW119789   8.049   7.695  12.709
 6005SOL    HW219790   8.064   7.589  12.603
 6006SOL     OW19791  10.093  14.513   0.525
 6006SOL    HW119792  10.185  14.488   0.524
 6006SOL    HW219793  10.062  14.489   0.612
 6007SOL     OW19794  11.455  11.980   9.705
 6007SOL    HW119795  11.427  12.009   9.618
 6007SOL    HW219796  11.374  11.973   9.755
 6008SOL     OW19797  13.208   0.033  13.400
 6008SOL    HW119798  13.154   0.099  13.444
 6008SOL    HW219799  13.272   0.084  13.351
 6009SOL     OW19800  11.344  14.678   9.996
 6009SOL    HW119801  11.355  14.587   9.971
 6009SOL    HW219802  11.419  14.723   9.956
 6010SOL     OW19803   7.649  10.170  12.358
 6010SOL    HW119804   7.614  10.187  12.445
 6010SOL    HW219805   7.715  10.102  12.371
 6011SOL     OW19806   7.173   4.741  14.683
 6011SOL    HW119807   7.097   4.682  14.681
 6011SOL    HW219808   7.136   4.827  14.665
 6012SOL     OW19809   2.763   2.055  14.806
 6012SOL    HW119810   2.683   2.002  14.801
 6012SOL    HW219811   2.743   2.133  14.754
 6013SOL     OW19812   3.377   9.257   0.138
 6013SOL    HW119813   3.391   9.348   0.163
 6013SOL    HW219814   3.308   9.226   0.197
 6014SOL     OW19815   4.053   3.339   7.321
 6014SOL    HW119816   4.103   3.298   7.251
 6014SOL    HW219817   3.982   3.386   7.276
 6015SOL     OW19818   0.771   1.435   8.479
 6015SOL    HW119819   0.723   1.367   8.433
 6015SOL    HW219820   0.825   1.388   8.542
 6016SOL     OW19821   6.332  10.476  14.397
 6016SOL    HW119822   6.347  10.472  14.303
 6016SOL    HW219823   6.352  10.388  14.428
 6017SOL     OW19824   8.423  12.905   7.754
 6017SOL    HW119825   8.328  12.915   7.759
 6017SOL    HW219826   8.446  12.856   7.832
 6018SOL     OW19827   9.696  11.453  10.671
 6018SOL    HW119828   9.701  11.361  10.699
 6018SOL    HW219829   9.770  11.464  10.612
 6019SOL     OW19830   4.479   1.642   5.697
 6019SOL    HW119831   4.409   1.635   5.632
 6019SOL    HW219832   4.461   1.571   5.758
 6020SOL     OW19833   4.704   1.261   4.920
 6020SOL    HW119834   4.688   1.173   4.886
 6020SOL    HW219835   4.624   1.309   4.899
 6021SOL     OW19836  10.176   0.854  14.774
 6021SOL    HW119837  10.256   0.873  14.725
 6021SOL    HW219838  10.137   0.940  14.791
 6022SOL     OW19839   3.724  11.649   0.474
 6022SOL    HW119840   3.664  11.668   0.403
 6022SOL    HW219841   3.671  11.605   0.540
 6023SOL     OW19842   4.244   4.644   6.572
 6023SOL    HW119843   4.313   4.588   6.535
 6023SOL    HW219844   4.188   4.583   6.621
 6024SOL     OW19845   5.557   4.461  11.489
 6024SOL    HW119846   5.539   4.368  11.486
 6024SOL    HW219847   5.557   4.489  11.397
 6025SOL     OW19848   5.223   3.460   8.293
 6025SOL    HW119849   5.313   3.474   8.266
 6025SOL    HW219850   5.189   3.393   8.234
 6026SOL     OW19851   8.134   9.065  14.007
 6026SOL    HW119852   8.134   8.996  13.940
 6026SOL    HW219853   8.102   9.022  14.086
 6027SOL     OW19854   2.332  13.509   7.304
 6027SOL    HW119855   2.279  13.452   7.360
 6027SOL    HW219856   2.294  13.500   7.217
 6028SOL     OW19857  10.580  14.797  11.359
 6028SOL    HW119858  10.573  14.717  11.307
 6028SOL    HW219859  10.674  14.807  11.376
 6029SOL     OW19860   9.670   9.847   7.644
 6029SOL    HW119861   9.735   9.845   7.573
 6029SOL    HW219862   9.631   9.934   7.638
 6030SOL     OW19863  11.023   6.637  11.509
 6030SOL    HW119864  11.049   6.552  11.473
 6030SOL    HW219865  11.093   6.696  11.484
 6031SOL     OW19866  13.427   4.246   1.567
 6031SOL    HW119867  13.412   4.311   1.498
 6031SOL    HW219868  13.404   4.292   1.648
 6032SOL     OW19869   8.438   2.534   5.846
 6032SOL    HW119870   8.413   2.498   5.761
 6032SOL    HW219871   8.395   2.620   5.849
 6033SOL     OW19872  10.965   2.031  10.651
 6033SOL    HW119873  11.000   2.115  10.622
 6033SOL    HW219874  10.874   2.030  10.621
 6034SOL     OW19875   1.085   5.286   8.080
 6034SOL    HW119876   1.132   5.275   8.163
 6034SOL    HW219877   1.120   5.218   8.023
 6035SOL     OW19878   7.814   3.779   8.723
 6035SOL    HW119879   7.824   3.684   8.725
 6035SOL    HW219880   7.894   3.811   8.680
 6036SOL     OW19881  11.274  12.660  10.928
 6036SOL    HW119882  11.184  12.689  10.942
 6036SOL    HW219883  11.316  12.668  11.014
 6037SOL     OW19884  13.461   3.545   0.954
 6037SOL    HW119885  13.412   3.590   1.023
 6037SOL    HW219886  13.394   3.503   0.900
 6038SOL     OW19887   3.904  13.476  13.018
 6038SOL    HW119888   3.829  13.474  13.078
 6038SOL    HW219889   3.949  13.393  13.033
 6039SOL     OW19890   9.961   2.083   1.246
 6039SOL    HW119891   9.922   2.048   1.326
 6039SOL    HW219892   9.984   2.173   1.268
 6040SOL     OW19893  12.482   7.752  14.863
 6040SOL    HW119894  12.417   7.781   0.046
 6040SOL    HW219895  12.431   7.734  14.785
 6041SOL     OW19896  13.920   5.175   5.402
 6041SOL    HW119897  13.917   5.113   5.475
 6041SOL    HW219898  14.013   5.195   5.391
 6042SOL     OW19899  12.175   9.112   4.130
 6042SOL    HW119900  12.170   9.063   4.212
 6042SOL    HW219901  12.265   9.144   4.127
 6043SOL     OW19902   8.537   9.342   1.192
 6043SOL    HW119903   8.496   9.373   1.272
 6043SOL    HW219904   8.563   9.421   1.146
 6044SOL     OW19905   0.070   7.196   3.907
 6044SOL    HW119906   0.044   7.107   3.929
 6044SOL    HW219907   0.126   7.186   3.830
 6045SOL     OW19908   5.381  14.082   2.756
 6045SOL    HW119909   5.293  14.071   2.720
 6045SOL    HW219910   5.439  14.083   2.680
 6046SOL     OW19911  14.821   1.368   8.230
 6046SOL    HW119912  14.809   1.326   8.144
 6046SOL    HW219913   0.029   1.347   8.255
 6047SOL     OW19914  14.055  10.355   1.553
 6047SOL    HW119915  14.082  10.312   1.472
 6047SOL    HW219916  14.007  10.432   1.525
 6048SOL     OW19917   7.376  12.235   8.591
 6048SOL    HW119918   7.339  12.173   8.653
 6048SOL    HW219919   7.309  12.302   8.581
 6049SOL     OW19920  11.201   6.371   6.261
 6049SOL    HW119921  11.216   6.283   6.227
 6049SOL    HW219922  11.138   6.360   6.332
 6050SOL     OW19923   5.814  10.053  12.176
 6050SOL    HW119924   5.831  10.062  12.270
 6050SOL    HW219925   5.820  10.142  12.142
 6051SOL     OW19926  13.883  13.835   6.668
 6051SOL    HW119927  13.962  13.886   6.685
 6051SOL    HW219928  13.829  13.847   6.747
 6052SOL     OW19929  12.768  12.729   9.646
 6052SOL    HW119930  12.761  12.798   9.580
 6052SOL    HW219931  12.680  12.721   9.683
 6053SOL     OW19932   9.946   2.694   9.801
 6053SOL    HW119933   9.966   2.776   9.756
 6053SOL    HW219934   9.883   2.650   9.745
 6054SOL     OW19935  14.560   0.589  14.864
 6054SOL    HW119936  14.478   0.586   0.031
 6054SOL    HW219937  14.547   0.530  14.790
 6055SOL     OW19938   8.571  12.910   4.706
 6055SOL    HW119939   8.496  12.927   4.763
 6055SOL    HW219940   8.624  12.847   4.755
 6056SOL     OW19941  13.532   0.275   1.008
 6056SOL    HW119942  13.502   0.284   1.099
 6056SOL    HW219943  13.627   0.285   1.013
 6057SOL     OW19944   9.418   5.310   3.030
 6057SOL    HW119945   9.334   5.341   3.065
 6057SOL    HW219946   9.441   5.374   2.963
 6058SOL     OW19947   9.902   3.843   0.945
 6058SOL    HW119948   9.893   3.862   0.852
 6058SOL    HW219949   9.812   3.835   0.977
 6059SOL     OW19950   6.738  12.661   6.322
 6059SOL    HW119951   6.676  12.596   6.288
 6059SOL    HW219952   6.689  12.743   6.323
 6060SOL     OW19953   4.064  10.625   8.750
 6060SOL    HW119954   4.001  10.612   8.821
 6060SOL    HW219955   4.094  10.716   8.761
 6061SOL     OW19956  10.092   1.945  12.972
 6061SOL    HW119957  10.070   2.037  12.986
 6061SOL    HW219958  10.178   1.934  13.013
 6062SOL     OW19959   6.311   5.801   7.413
 6062SOL    HW119960   6.394   5.849   7.409
 6062SOL    HW219961   6.276   5.806   7.324
 6063SOL     OW19962   2.314  13.917  11.086
 6063SOL    HW119963   2.354  13.836  11.118
 6063SOL    HW219964   2.388  13.976  11.071
 6064SOL     OW19965   6.127   8.705   8.581
 6064SOL    HW119966   6.132   8.780   8.522
 6064SOL    HW219967   6.183   8.638   8.540
 6065SOL     OW19968   1.356  11.187   6.583
 6065SOL    HW119969   1.263  11.207   6.598
 6065SOL    HW219970   1.382  11.134   6.658
 6066SOL     OW19971   8.108  13.723  11.768
 6066SOL    HW119972   8.049  13.678  11.829
 6066SOL    HW219973   8.050  13.757  11.700
 6067SOL     OW19974   1.912   7.127   9.773
 6067SOL    HW119975   1.947   7.216   9.786
 6067SOL    HW219976   1.988   7.070   9.783
 6068SOL     OW19977   5.260   4.304   9.411
 6068SOL    HW119978   5.247   4.255   9.492
 6068SOL    HW219979   5.283   4.237   9.346
 6069SOL     OW19980   9.109   1.075   8.817
 6069SOL    HW119981   9.045   1.131   8.861
 6069SOL    HW219982   9.061   0.994   8.798
 6070SOL     OW19983   9.201  11.655   5.295
 6070SOL    HW119984   9.194  11.750   5.303
 6070SOL    HW219985   9.118  11.629   5.255
 6071SOL     OW19986   0.683   6.756  11.542
 6071SOL    HW119987   0.683   6.707  11.460
 6071SOL    HW219988   0.736   6.703  11.601
 6072SOL     OW19989   5.608   9.214   7.277
 6072SOL    HW119990   5.584   9.298   7.238
 6072SOL    HW219991   5.662   9.170   7.211
 6073SOL     OW19992   0.913  14.708   1.442
 6073SOL    HW119993   0.885  14.635   1.387
 6073SOL    HW219994   0.837  14.728   1.496
 6074SOL     OW19995  10.257   9.077  13.119
 6074SOL    HW119996  10.212   9.073  13.035
 6074SOL    HW219997  10.210   9.014  13.174
 6075SOL     OW19998  12.851   4.348   5.818
 6075SOL    HW119999  12.802   4.355   5.736
 6075SOL    HW220000  12.940   4.324   5.790
 6076SOL     OW20001   0.276   7.409   5.263
 6076SOL    HW120002   0.332   7.408   5.185
 6076SOL    HW220003   0.286   7.497   5.299
 6077SOL     OW20004   2.188   7.770  13.357
 6077SOL    HW120005   2.253   7.815  13.304
 6077SOL    HW220006   2.233   7.692  13.389
 6078SOL     OW20007   7.020   7.250   1.572
 6078SOL    HW120008   7.080   7.213   1.637
 6078SOL    HW220009   6.941   7.196   1.579
 6079SOL     OW20010  13.635   6.328   5.908
 6079SOL    HW120011  13.675   6.377   5.836
 6079SOL    HW220012  13.677   6.364   5.986
 6080SOL     OW20013  12.542   9.461   4.375
 6080SOL    HW120014  12.628   9.451   4.417
 6080SOL    HW220015  12.543   9.549   4.339
 6081SOL     OW20016  14.679   4.478   5.797
 6081SOL    HW120017  14.612   4.541   5.770
 6081SOL    HW220018  14.680   4.413   5.728
 6082SOL     OW20019   4.254   4.621   5.327
 6082SOL    HW120020   4.240   4.566   5.250
 6082SOL    HW220021   4.190   4.588   5.391
 6083SOL     OW20022   3.058   9.571   4.720
 6083SOL    HW120023   3.001   9.620   4.779
 6083SOL    HW220024   2.999   9.514   4.671
 6084SOL     OW20025   2.008   9.105  10.292
 6084SOL    HW120026   1.916   9.079  10.287
 6084SOL    HW220027   2.006   9.197  10.316
 6085SOL     OW20028  12.180   4.215  14.698
 6085SOL    HW120029  12.238   4.291  14.695
 6085SOL    HW220030  12.178   4.183  14.608
 6086SOL     OW20031   0.570   6.922   7.686
 6086SOL    HW120032   0.546   7.002   7.734
 6086SOL    HW220033   0.662   6.908   7.708
 6087SOL     OW20034   4.445   7.424   8.368
 6087SOL    HW120035   4.474   7.339   8.399
 6087SOL    HW220036   4.523   7.465   8.332
 6088SOL     OW20037   5.364  12.564   7.086
 6088SOL    HW120038   5.349  12.628   7.017
 6088SOL    HW220039   5.443  12.517   7.059
 6089SOL     OW20040   3.874  12.015   5.984
 6089SOL    HW120041   3.940  11.962   6.029
 6089SOL    HW220042   3.838  11.957   5.917
 6090SOL     OW20043   6.483  13.583  10.781
 6090SOL    HW120044   6.456  13.674  10.768
 6090SOL    HW220045   6.503  13.577  10.875
 6091SOL     OW20046   2.714   5.684   0.516
 6091SOL    HW120047   2.683   5.688   0.426
 6091SOL    HW220048   2.651   5.736   0.566
 6092SOL     OW20049   7.084  13.474   6.507
 6092SOL    HW120050   7.063  13.421   6.430
 6092SOL    HW220051   7.002  13.517   6.530
 6093SOL     OW20052  13.994   2.545  14.193
 6093SOL    HW120053  13.936   2.474  14.168
 6093SOL    HW220054  14.052   2.556  14.118
 6094SOL     OW20055   5.842   3.613   3.810
 6094SOL    HW120056   5.841   3.665   3.730
 6094SOL    HW220057   5.806   3.528   3.785
 6095SOL     OW20058   7.016  11.698   5.833
 6095SOL    HW120059   7.086  11.744   5.786
 6095SOL    HW220060   6.969  11.649   5.765
 6096SOL     OW20061  10.208   0.827   5.032
 6096SOL    HW120062  10.287   0.784   5.064
 6096SOL    HW220063  10.172   0.766   4.968
 6097SOL     OW20064   1.678   2.968  13.788
 6097SOL    HW120065   1.732   3.036  13.829
 6097SOL    HW220066   1.651   2.912  13.860
 6098SOL     OW20067  12.822  12.898   8.518
 6098SOL    HW120068  12.862  12.976   8.478
 6098SOL    HW220069  12.806  12.839   8.445
 6099SOL     OW20070   3.720   5.237  13.018
 6099SOL    HW120071   3.797   5.201  13.061
 6099SOL    HW220072   3.723   5.331  13.038
 6100SOL     OW20073   2.626   6.801   2.400
 6100SOL    HW120074   2.654   6.882   2.357
 6100SOL    HW220075   2.592   6.747   2.328
 6101SOL     OW20076   6.655   6.872   3.767
 6101SOL    HW120077   6.594   6.941   3.742
 6101SOL    HW220078   6.609   6.823   3.835
 6102SOL     OW20079   3.710  12.857   3.399
 6102SOL    HW120080   3.700  12.835   3.492
 6102SOL    HW220081   3.656  12.793   3.353
 6103SOL     OW20082   8.878   0.721  10.123
 6103SOL    HW120083   8.834   0.639  10.145
 6103SOL    HW220084   8.927   0.744  10.202
 6104SOL     OW20085   2.625  12.077  12.783
 6104SOL    HW120086   2.656  12.001  12.833
 6104SOL    HW220087   2.703  12.130  12.770
 6105SOL     OW20088  14.819   3.521   6.795
 6105SOL    HW120089  14.724   3.530   6.794
 6105SOL    HW220090  14.852   3.609   6.813
 6106SOL     OW20091   2.514  11.227  13.607
 6106SOL    HW120092   2.454  11.216  13.534
 6106SOL    HW220093   2.514  11.322  13.624
 6107SOL     OW20094  10.318  12.870   7.961
 6107SOL    HW120095  10.354  12.909   8.041
 6107SOL    HW220096  10.233  12.913   7.950
 6108SOL     OW20097  10.499  12.598   2.399
 6108SOL    HW120098  10.495  12.663   2.329
 6108SOL    HW220099  10.590  12.598   2.428
 6109SOL     OW20100   3.526   3.281   3.685
 6109SOL    HW120101   3.475   3.200   3.690
 6109SOL    HW220102   3.468   3.345   3.645
 6110SOL     OW20103  11.191   8.822   5.723
 6110SOL    HW120104  11.213   8.913   5.706
 6110SOL    HW220105  11.276   8.778   5.731
 6111SOL     OW20106   4.972   6.565   2.702
 6111SOL    HW120107   5.002   6.596   2.788
 6111SOL    HW220108   4.944   6.644   2.656
 6112SOL     OW20109   0.997   3.622   7.376
 6112SOL    HW120110   0.903   3.632   7.360
 6112SOL    HW220111   1.026   3.558   7.311
 6113SOL     OW20112   8.066   6.251   3.499
 6113SOL    HW120113   8.011   6.198   3.441
 6113SOL    HW220114   8.154   6.216   3.487
 6114SOL     OW20115   7.671   1.678   5.626
 6114SOL    HW120116   7.689   1.600   5.574
 6114SOL    HW220117   7.743   1.680   5.690
 6115SOL     OW20118  10.086   9.386  12.456
 6115SOL    HW120119   9.998   9.389  12.418
 6115SOL    HW220120  10.136   9.330  12.397
 6116SOL     OW20121  12.731  10.401   4.422
 6116SOL    HW120122  12.695  10.439   4.502
 6116SOL    HW220123  12.654  10.381   4.368
 6117SOL     OW20124  14.312   6.037   7.805
 6117SOL    HW120125  14.343   6.124   7.831
 6117SOL    HW220126  14.219   6.049   7.787
 6118SOL     OW20127   0.442  11.980  11.050
 6118SOL    HW120128   0.369  12.001  10.992
 6118SOL    HW220129   0.401  11.954  11.133
 6119SOL     OW20130   4.104   8.368  12.371
 6119SOL    HW120131   4.161   8.443  12.354
 6119SOL    HW220132   4.020   8.407  12.395
 6120SOL     OW20133   3.682   0.902   1.914
 6120SOL    HW120134   3.720   0.984   1.944
 6120SOL    HW220135   3.630   0.925   1.838
 6121SOL     OW20136   0.474   2.960   8.192
 6121SOL    HW120137   0.423   2.882   8.216
 6121SOL    HW220138   0.425   2.998   8.119
 6122SOL     OW20139  14.066   4.350   0.665
 6122SOL    HW120140  14.122   4.364   0.741
 6122SOL    HW220141  13.978   4.371   0.696
 6123SOL     OW20142   7.776   6.049   5.547
 6123SOL    HW120143   7.841   6.017   5.609
 6123SOL    HW220144   7.772   6.144   5.562
 6124SOL     OW20145  11.448   0.399   2.687
 6124SOL    HW120146  11.375   0.405   2.624
 6124SOL    HW220147  11.473   0.490   2.704
 6125SOL     OW20148  13.418   5.367  11.242
 6125SOL    HW120149  13.491   5.327  11.195
 6125SOL    HW220150  13.451   5.380  11.331
 6126SOL     OW20151   5.250   4.490   7.251
 6126SOL    HW120152   5.236   4.532   7.167
 6126SOL    HW220153   5.165   4.497   7.296
 6127SOL     OW20154  14.688   3.018  13.410
 6127SOL    HW120155  14.716   3.017  13.319
 6127SOL    HW220156  14.747   3.079  13.454
 6128SOL     OW20157   4.853  13.952   9.920
 6128SOL    HW120158   4.759  13.952   9.905
 6128SOL    HW220159   4.878  14.044   9.922
 6129SOL     OW20160   2.223  14.598  12.591
 6129SOL    HW120161   2.142  14.605  12.540
 6129SOL    HW220162   2.196  14.614  12.681
 6130SOL     OW20163   7.374   7.690   0.555
 6130SOL    HW120164   7.289   7.721   0.525
 6130SOL    HW220165   7.373   7.596   0.540
 6131SOL     OW20166  12.484   1.010  13.214
 6131SOL    HW120167  12.566   1.041  13.252
 6131SOL    HW220168  12.499   0.916  13.198
 6132SOL     OW20169   9.291  14.705  10.119
 6132SOL    HW120170   9.295  14.800  10.130
 6132SOL    HW220171   9.229  14.675  10.185
 6133SOL     OW20172  14.555  11.042   4.834
 6133SOL    HW120173  14.486  11.058   4.898
 6133SOL    HW220174  14.633  11.085   4.871
 6134SOL     OW20175  12.910  11.532   0.538
 6134SOL    HW120176  12.971  11.564   0.471
 6134SOL    HW220177  12.960  11.468   0.587
 6135SOL     OW20178  10.382   9.122   0.850
 6135SOL    HW120179  10.415   9.065   0.781
 6135SOL    HW220180  10.452   9.122   0.916
 6136SOL     OW20181  10.318   9.743   3.296
 6136SOL    HW120182  10.272   9.748   3.380
 6136SOL    HW220183  10.272   9.805   3.240
 6137SOL     OW20184   4.637   3.093  12.589
 6137SOL    HW120185   4.708   3.150  12.618
 6137SOL    HW220186   4.610   3.130  12.505
 6138SOL     OW20187   9.456   9.078   3.751
 6138SOL    HW120188   9.444   9.086   3.845
 6138SOL    HW220189   9.367   9.087   3.715
 6139SOL     OW20190   3.094  13.030  14.182
 6139SOL    HW120191   3.153  13.104  14.198
 6139SOL    HW220192   3.115  13.001  14.093
 6140SOL     OW20193  12.674   9.331   5.055
 6140SOL    HW120194  12.654   9.368   5.141
 6140SOL    HW220195  12.617   9.378   4.994
 6141SOL     OW20196   3.666  12.127  10.911
 6141SOL    HW120197   3.682  12.219  10.931
 6141SOL    HW220198   3.713  12.112  10.828
 6142SOL     OW20199   3.088   1.719   3.400
 6142SOL    HW120200   3.099   1.636   3.354
 6142SOL    HW220201   3.055   1.779   3.333
 6143SOL     OW20202   2.867   8.538  10.681
 6143SOL    HW120203   2.841   8.631  10.682
 6143SOL    HW220204   2.951   8.536  10.727
 6144SOL     OW20205  13.280   4.953   3.846
 6144SOL    HW120206  13.293   4.864   3.878
 6144SOL    HW220207  13.186   4.961   3.831
 6145SOL     OW20208   7.907  11.466  13.448
 6145SOL    HW120209   7.908  11.387  13.501
 6145SOL    HW220210   7.855  11.443  13.371
 6146SOL     OW20211   0.775   1.428  12.373
 6146SOL    HW120212   0.708   1.392  12.316
 6146SOL    HW220213   0.858   1.404  12.332
 6147SOL     OW20214   4.730  13.092   2.959
 6147SOL    HW120215   4.686  13.119   3.039
 6147SOL    HW220216   4.812  13.143   2.958
 6148SOL     OW20217  14.010   3.303   6.917
 6148SOL    HW120218  14.056   3.337   6.993
 6148SOL    HW220219  14.019   3.208   6.923
 6149SOL     OW20220  10.009   6.192   8.317
 6149SOL    HW120221   9.983   6.256   8.384
 6149SOL    HW220222   9.927   6.171   8.271
 6150SOL     OW20223   9.902   6.070   5.614
 6150SOL    HW120224   9.828   6.128   5.630
 6150SOL    HW220225   9.977   6.128   5.606
 6151SOL     OW20226   8.148   9.935   4.369
 6151SOL    HW120227   8.175   9.876   4.298
 6151SOL    HW220228   8.206  10.010   4.360
 6152SOL     OW20229   0.814   0.611   6.716
 6152SOL    HW120230   0.794   0.699   6.748
 6152SOL    HW220231   0.843   0.625   6.626
 6153SOL     OW20232   3.812   9.208   9.521
 6153SOL    HW120233   3.823   9.240   9.432
 6153SOL    HW220234   3.870   9.132   9.526
 6154SOL     OW20235   5.645   4.771  12.877
 6154SOL    HW120236   5.645   4.809  12.964
 6154SOL    HW220237   5.629   4.677  12.891
 6155SOL     OW20238  12.296   2.487   1.351
 6155SOL    HW120239  12.296   2.391   1.350
 6155SOL    HW220240  12.374   2.511   1.300
 6156SOL     OW20241   1.791  13.679   3.771
 6156SOL    HW120242   1.855  13.655   3.838
 6156SOL    HW220243   1.711  13.633   3.797
 6157SOL     OW20244   4.602  14.376   0.648
 6157SOL    HW120245   4.508  14.378   0.665
 6157SOL    HW220246   4.642  14.396   0.733
 6158SOL     OW20247   3.313   6.656   6.053
 6158SOL    HW120248   3.309   6.737   6.104
 6158SOL    HW220249   3.331   6.684   5.964
 6159SOL     OW20250   5.047   2.480   4.949
 6159SOL    HW120251   5.053   2.487   5.044
 6159SOL    HW220252   4.997   2.557   4.922
 6160SOL     OW20253   3.507   5.517   3.127
 6160SOL    HW120254   3.554   5.513   3.210
 6160SOL    HW220255   3.484   5.609   3.117
 6161SOL     OW20256   5.871  14.834   3.079
 6161SOL    HW120257   5.793   0.002   3.056
 6161SOL    HW220258   5.907  14.805   2.995
 6162SOL     OW20259   4.816  13.202   1.355
 6162SOL    HW120260   4.726  13.170   1.361
 6162SOL    HW220261   4.852  13.159   1.278
 6163SOL     OW20262   1.300  12.303   8.496
 6163SOL    HW120263   1.268  12.239   8.559
 6163SOL    HW220264   1.392  12.317   8.521
 6164SOL     OW20265   5.683   0.406   3.488
 6164SOL    HW120266   5.732   0.460   3.550
 6164SOL    HW220267   5.735   0.326   3.480
 6165SOL     OW20268   1.563   4.021   4.889
 6165SOL    HW120269   1.565   4.106   4.845
 6165SOL    HW220270   1.655   4.001   4.906
 6166SOL     OW20271   5.055  11.225   6.905
 6166SOL    HW120272   4.987  11.194   6.845
 6166SOL    HW220273   5.006  11.271   6.973
 6167SOL     OW20274  10.936  11.975   6.205
 6167SOL    HW120275  10.919  11.891   6.248
 6167SOL    HW220276  11.025  11.966   6.171
 6168SOL     OW20277   8.025   0.971   9.459
 6168SOL    HW120278   8.012   0.913   9.534
 6168SOL    HW220279   8.070   0.917   9.395
 6169SOL     OW20280   2.143  12.335   0.906
 6169SOL    HW120281   2.125  12.393   0.832
 6169SOL    HW220282   2.234  12.351   0.929
 6170SOL     OW20283   2.097   9.749   6.204
 6170SOL    HW120284   2.122   9.685   6.137
 6170SOL    HW220285   2.150   9.826   6.183
 6171SOL     OW20286  14.205  14.639   3.855
 6171SOL    HW120287  14.112  14.618   3.842
 6171SOL    HW220288  14.208  14.691   3.934
 6172SOL     OW20289   2.246   0.646   6.569
 6172SOL    HW120290   2.160   0.641   6.529
 6172SOL    HW220291   2.232   0.621   6.660
 6173SOL     OW20292   5.934  11.845   0.267
 6173SOL    HW120293   5.881  11.793   0.206
 6173SOL    HW220294   5.986  11.781   0.315
 6174SOL     OW20295   9.059   2.818   9.906
 6174SOL    HW120296   9.098   2.811   9.819
 6174SOL    HW220297   9.134   2.824   9.966
 6175SOL     OW20298   4.248   6.457   3.929
 6175SOL    HW120299   4.317   6.448   3.863
 6175SOL    HW220300   4.295   6.473   4.011
 6176SOL     OW20301   9.875  11.885   5.574
 6176SOL    HW120302   9.925  11.814   5.613
 6176SOL    HW220303   9.787  11.875   5.610
 6177SOL     OW20304  10.651  11.189   2.396
 6177SOL    HW120305  10.692  11.112   2.356
 6177SOL    HW220306  10.577  11.155   2.445
 6178SOL     OW20307  11.476   5.625   2.528
 6178SOL    HW120308  11.556   5.609   2.578
 6178SOL    HW220309  11.423   5.680   2.585
 6179SOL     OW20310  13.902   0.339   9.493
 6179SOL    HW120311  13.993   0.326   9.465
 6179SOL    HW220312  13.879   0.258   9.538
 6180SOL     OW20313  14.758   7.546   2.504
 6180SOL    HW120314  14.787   7.554   2.595
 6180SOL    HW220315  14.831   7.581   2.453
 6181SOL     OW20316   5.742   1.523   2.254
 6181SOL    HW120317   5.817   1.467   2.237
 6181SOL    HW220318   5.776   1.594   2.309
 6182SOL     OW20319  13.417   3.418  10.226
 6182SOL    HW120320  13.376   3.501  10.249
 6182SOL    HW220321  13.510   3.431  10.246
 6183SOL     OW20322   6.211  12.408   5.083
 6183SOL    HW120323   6.197  12.485   5.137
 6183SOL    HW220324   6.278  12.358   5.128
 6184SOL     OW20325   8.028   6.175  12.074
 6184SOL    HW120326   8.011   6.100  12.018
 6184SOL    HW220327   7.942   6.212  12.091
 6185SOL     OW20328   5.613  10.520   3.025
 6185SOL    HW120329   5.646  10.604   2.994
 6185SOL    HW220330   5.571  10.540   3.109
 6186SOL     OW20331   3.837   3.464  13.824
 6186SOL    HW120332   3.773   3.533  13.841
 6186SOL    HW220333   3.835   3.410  13.903
 6187SOL     OW20334  14.719   8.985   4.086
 6187SOL    HW120335  14.642   9.037   4.061
 6187SOL    HW220336  14.695   8.895   4.062
 6188SOL     OW20337   4.175   6.184   2.032
 6188SOL    HW120338   4.208   6.274   2.040
 6188SOL    HW220339   4.142   6.163   2.120
 6189SOL     OW20340   5.084  13.536   0.130
 6189SOL    HW120341   5.074  13.442   0.113
 6189SOL    HW220342   5.139  13.541   0.208
 6190SOL     OW20343   9.783   9.368   1.902
 6190SOL    HW120344   9.838   9.428   1.954
 6190SOL    HW220345   9.843   9.330   1.838
 6191SOL     OW20346  12.060  12.954  14.346
 6191SOL    HW120347  11.977  12.961  14.299
 6191SOL    HW220348  12.047  12.879  14.405
 6192SOL     OW20349  12.126  14.344   1.771
 6192SOL    HW120350  12.173  14.404   1.829
 6192SOL    HW220351  12.185  14.270   1.759
 6193SOL     OW20352   4.453  12.552  10.918
 6193SOL    HW120353   4.381  12.503  10.878
 6193SOL    HW220354   4.519  12.485  10.937
 6194SOL     OW20355  12.183   8.196   5.601
 6194SOL    HW120356  12.168   8.120   5.657
 6194SOL    HW220357  12.211   8.265   5.662
 6195SOL     OW20358   8.747  10.114   6.325
 6195SOL    HW120359   8.807  10.098   6.398
 6195SOL    HW220360   8.795  10.173   6.267
 6196SOL     OW20361   9.429   9.070   0.323
 6196SOL    HW120362   9.464   9.004   0.383
 6196SOL    HW220363   9.392   9.018   0.251
 6197SOL     OW20364   0.056  11.563   9.103
 6197SOL    HW120365   0.139  11.578   9.058
 6197SOL    HW220366   0.002  11.639   9.081
 6198SOL     OW20367   3.172   0.162   9.948
 6198SOL    HW120368   3.173   0.098   9.877
 6198SOL    HW220369   3.194   0.245   9.905
 6199SOL     OW20370   9.566   8.159   4.767
 6199SOL    HW120371   9.594   8.246   4.798
 6199SOL    HW220372   9.630   8.135   4.702
 6200SOL     OW20373   0.933   9.934   3.359
 6200SOL    HW120374   0.968  10.012   3.402
 6200SOL    HW220375   1.010   9.882   3.335
 6201SOL     OW20376   7.250   8.053  14.527
 6201SOL    HW120377   7.236   7.963  14.496
 6201SOL    HW220378   7.288   8.099  14.453
 6202SOL     OW20379   1.174   7.303   1.729
 6202SOL    HW120380   1.219   7.254   1.798
 6202SOL    HW220381   1.081   7.288   1.746
 6203SOL     OW20382   0.156   6.752   0.036
 6203SOL    HW120383   0.181   6.840   0.064
 6203SOL    HW220384   0.061   6.757   0.023
 6204SOL     OW20385  14.275   7.208   5.384
 6204SOL    HW120386  14.214   7.253   5.325
 6204SOL    HW220387  14.271   7.116   5.357
 6205SOL     OW20388  13.621   1.902   5.779
 6205SOL    HW120389  13.686   1.935   5.717
 6205SOL    HW220390  13.631   1.958   5.856
 6206SOL     OW20391  11.712   9.189  12.680
 6206SOL    HW120392  11.773   9.245  12.632
 6206SOL    HW220393  11.625   9.223  12.656
 6207SOL     OW20394  14.007   8.437   9.243
 6207SOL    HW120395  14.058   8.368   9.285
 6207SOL    HW220396  14.071   8.506   9.223
 6208SOL     OW20397  10.378   0.638   5.590
 6208SOL    HW120398  10.334   0.557   5.565
 6208SOL    HW220399  10.332   0.706   5.539
 6209SOL     OW20400   2.302   0.154   7.197
 6209SOL    HW120401   2.293   0.163   7.292
 6209SOL    HW220402   2.386   0.110   7.185
 6210SOL     OW20403  13.161   9.556   6.508
 6210SOL    HW120404  13.176   9.461   6.504
 6210SOL    HW220405  13.072   9.567   6.473
 6211SOL     OW20406   3.735   8.671  13.072
 6211SOL    HW120407   3.659   8.708  13.027
 6211SOL    HW220408   3.795   8.647  13.001
 6212SOL     OW20409  13.647  14.533   6.431
 6212SOL    HW120410  13.718  14.531   6.496
 6212SOL    HW220411  13.567  14.532   6.483
 6213SOL     OW20412   2.214   7.332   5.691
 6213SOL    HW120413   2.136   7.279   5.707
 6213SOL    HW220414   2.210   7.355   5.599
 6214SOL     OW20415   8.404   1.606   6.427
 6214SOL    HW120416   8.401   1.542   6.355
 6214SOL    HW220417   8.495   1.607   6.455
 6215SOL     OW20418  13.841  10.347   3.644
 6215SOL    HW120419  13.902  10.411   3.680
 6215SOL    HW220420  13.771  10.400   3.605
 6216SOL     OW20421  10.427  10.088  14.802
 6216SOL    HW120422  10.464  10.005  14.771
 6216SOL    HW220423  10.470  10.103   0.005
 6217SOL     OW20424   2.292   2.531  10.009
 6217SOL    HW120425   2.247   2.561  10.088
 6217SOL    HW220426   2.302   2.609   9.955
 6218SOL     OW20427   7.125   4.868  10.833
 6218SOL    HW120428   7.033   4.893  10.826
 6218SOL    HW220429   7.171   4.951  10.846
 6219SOL     OW20430   6.393  13.419   8.953
 6219SOL    HW120431   6.324  13.374   8.903
 6219SOL    HW220432   6.473  13.399   8.906
 6220SOL     OW20433   0.114   1.587   6.584
 6220SOL    HW120434   0.168   1.517   6.550
 6220SOL    HW220435   0.087   1.556   6.671
 6221SOL     OW20436   5.466   1.487  11.414
 6221SOL    HW120437   5.550   1.519  11.445
 6221SOL    HW220438   5.480   1.394  11.396
 6222SOL     OW20439   3.524  11.626  13.143
 6222SOL    HW120440   3.552  11.536  13.124
 6222SOL    HW220441   3.436  11.632  13.105
 6223SOL     OW20442   5.459   8.150   8.300
 6223SOL    HW120443   5.536   8.166   8.247
 6223SOL    HW220444   5.387   8.192   8.253
 6224SOL     OW20445   2.257   3.204   8.109
 6224SOL    HW120446   2.238   3.119   8.070
 6224SOL    HW220447   2.243   3.267   8.039
 6225SOL     OW20448   6.676   7.496   8.893
 6225SOL    HW120449   6.742   7.562   8.914
 6225SOL    HW220450   6.630   7.482   8.976
 6226SOL     OW20451   7.750  10.826  12.645
 6226SOL    HW120452   7.671  10.852  12.599
 6226SOL    HW220453   7.819  10.830  12.578
 6227SOL     OW20454   6.580  11.751  12.667
 6227SOL    HW120455   6.547  11.710  12.747
 6227SOL    HW220456   6.514  11.817  12.646
 6228SOL     OW20457   4.182   8.066  11.545
 6228SOL    HW120458   4.163   8.159  11.551
 6228SOL    HW220459   4.275   8.062  11.523
 6229SOL     OW20460   6.666  10.055   0.158
 6229SOL    HW120461   6.658   9.980   0.216
 6229SOL    HW220462   6.576  10.071   0.128
 6230SOL     OW20463  12.997  11.322   4.330
 6230SOL    HW120464  13.074  11.284   4.288
 6230SOL    HW220465  13.032  11.387   4.391
 6231SOL     OW20466   1.620  14.697   0.240
 6231SOL    HW120467   1.704  14.688   0.284
 6231SOL    HW220468   1.564  14.630   0.278
 6232SOL     OW20469   2.387   3.078  11.795
 6232SOL    HW120470   2.337   3.000  11.819
 6232SOL    HW220471   2.386   3.079  11.700
 6233SOL     OW20472   2.899  14.696  12.235
 6233SOL    HW120473   2.988  14.684  12.200
 6233SOL    HW220474   2.910  14.761  12.304
 6234SOL     OW20475   9.192   9.966  13.182
 6234SOL    HW120476   9.142  10.002  13.108
 6234SOL    HW220477   9.265   9.919  13.140
 6235SOL     OW20478   0.348   6.894   4.624
 6235SOL    HW120479   0.405   6.838   4.572
 6235SOL    HW220480   0.391   6.902   4.709
 6236SOL     OW20481  12.923  14.214  12.373
 6236SOL    HW120482  12.872  14.176  12.302
 6236SOL    HW220483  13.003  14.162  12.376
 6237SOL     OW20484   9.976   4.509  14.655
 6237SOL    HW120485  10.060   4.477  14.624
 6237SOL    HW220486   9.912   4.471  14.596
 6238SOL     OW20487  12.137   1.938   8.797
 6238SOL    HW120488  12.142   1.940   8.701
 6238SOL    HW220489  12.165   1.850   8.821
 6239SOL     OW20490   4.204  11.854   8.683
 6239SOL    HW120491   4.191  11.759   8.677
 6239SOL    HW220492   4.156  11.879   8.762
 6240SOL     OW20493   8.953  10.699   6.005
 6240SOL    HW120494   8.865  10.696   6.044
 6240SOL    HW220495   8.995  10.618   6.033
 6241SOL     OW20496   7.087  12.380  12.730
 6241SOL    HW120497   7.054  12.455  12.681
 6241SOL    HW220498   7.035  12.306  12.700
 6242SOL     OW20499  13.058  12.477   4.473
 6242SOL    HW120500  13.150  12.473   4.445
 6242SOL    HW220501  13.029  12.386   4.471
 6243SOL     OW20502   0.933  12.432   6.944
 6243SOL    HW120503   0.869  12.498   6.918
 6243SOL    HW220504   0.893  12.349   6.920
 6244SOL     OW20505   7.171   6.764  11.872
 6244SOL    HW120506   7.200   6.766  11.963
 6244SOL    HW220507   7.249   6.788  11.821
 6245SOL     OW20508   4.370   4.278   1.336
 6245SOL    HW120509   4.386   4.338   1.409
 6245SOL    HW220510   4.344   4.196   1.379
 6246SOL     OW20511  13.714   8.617   2.014
 6246SOL    HW120512  13.771   8.614   2.091
 6246SOL    HW220513  13.639   8.669   2.041
 6247SOL     OW20514   9.378  10.339  13.148
 6247SOL    HW120515   9.390  10.313  13.057
 6247SOL    HW220516   9.310  10.407  13.145
 6248SOL     OW20517   3.535   6.332   0.827
 6248SOL    HW120518   3.581   6.409   0.861
 6248SOL    HW220519   3.539   6.342   0.732
 6249SOL     OW20520   3.001   1.953   9.224
 6249SOL    HW120521   3.056   2.024   9.257
 6249SOL    HW220522   2.974   1.982   9.137
 6250SOL     OW20523   0.969   4.140  14.331
 6250SOL    HW120524   1.011   4.214  14.287
 6250SOL    HW220525   1.013   4.063  14.296
 6251SOL     OW20526   6.997   3.065   2.139
 6251SOL    HW120527   6.950   3.141   2.173
 6251SOL    HW220528   7.022   3.016   2.217
 6252SOL     OW20529   3.264  12.958   4.738
 6252SOL    HW120530   3.235  13.046   4.716
 6252SOL    HW220531   3.312  12.928   4.660
 6253SOL     OW20532  10.174   9.640  12.471
 6253SOL    HW120533  10.145   9.549  12.458
 6253SOL    HW220534  10.266   9.639  12.447
 6254SOL     OW20535   0.721   1.450   3.165
 6254SOL    HW120536   0.694   1.360   3.184
 6254SOL    HW220537   0.782   1.442   3.092
 6255SOL     OW20538   0.988  14.735   2.147
 6255SOL    HW120539   0.930  14.664   2.172
 6255SOL    HW220540   1.072  14.692   2.128
 6256SOL     OW20541  12.631   5.949  12.112
 6256SOL    HW120542  12.608   5.865  12.151
 6256SOL    HW220543  12.636   5.932  12.018
 6257SOL     OW20544  12.284  14.566   3.095
 6257SOL    HW120545  12.228  14.639   3.069
 6257SOL    HW220546  12.313  14.527   3.013
 6258SOL     OW20547  14.288   9.870   8.412
 6258SOL    HW120548  14.198   9.878   8.379
 6258SOL    HW220549  14.318   9.785   8.378
 6259SOL     OW20550   8.592  12.477   8.822
 6259SOL    HW120551   8.579  12.467   8.728
 6259SOL    HW220552   8.636  12.396   8.849
 6260SOL     OW20553   5.294  14.349   5.781
 6260SOL    HW120554   5.288  14.434   5.738
 6260SOL    HW220555   5.377  14.313   5.752
 6261SOL     OW20556  14.840   7.021   2.492
 6261SOL    HW120557   0.038   7.067   2.520
 6261SOL    HW220558  14.781   7.090   2.464
 6262SOL     OW20559   8.268  14.864   6.727
 6262SOL    HW120560   8.212  14.871   6.804
 6262SOL    HW220561   8.208  14.851   6.654
 6263SOL     OW20562  10.394  10.749   0.030
 6263SOL    HW120563  10.425  10.725   0.117
 6263SOL    HW220564  10.411  10.671  14.858
 6264SOL     OW20565  14.420   6.962   5.876
 6264SOL    HW120566  14.409   7.038   5.819
 6264SOL    HW220567  14.331   6.932   5.895
 6265SOL     OW20568  14.772  13.864   4.205
 6265SOL    HW120569  14.838  13.802   4.235
 6265SOL    HW220570  14.821  13.932   4.160
 6266SOL     OW20571   4.472  12.105   7.380
 6266SOL    HW120572   4.431  12.124   7.464
 6266SOL    HW220573   4.493  12.011   7.383
 6267SOL     OW20574   0.268   5.337  11.468
 6267SOL    HW120575   0.317   5.258  11.492
 6267SOL    HW220576   0.265   5.389  11.549
 6268SOL     OW20577   0.558   3.017   0.562
 6268SOL    HW120578   0.603   3.036   0.645
 6268SOL    HW220579   0.553   2.921   0.559
 6269SOL     OW20580  13.604   4.081   6.051
 6269SOL    HW120581  13.599   4.175   6.070
 6269SOL    HW220582  13.629   4.041   6.135
 6270SOL     OW20583  11.321  10.890  11.705
 6270SOL    HW120584  11.306  10.799  11.733
 6270SOL    HW220585  11.361  10.882  11.618
 6271SOL     OW20586   4.845  13.227   3.228
 6271SOL    HW120587   4.895  13.155   3.190
 6271SOL    HW220588   4.909  13.274   3.282
 6272SOL     OW20589   6.992   1.121  10.610
 6272SOL    HW120590   6.975   1.161  10.695
 6272SOL    HW220591   6.906   1.112  10.570
 6273SOL     OW20592   8.659   5.995  14.557
 6273SOL    HW120593   8.737   6.038  14.594
 6273SOL    HW220594   8.597   5.990  14.630
 6274SOL     OW20595   2.578   7.357   6.481
 6274SOL    HW120596   2.550   7.303   6.556
 6274SOL    HW220597   2.514   7.337   6.413
 6275SOL     OW20598   7.930  12.584  12.535
 6275SOL    HW120599   7.964  12.561  12.621
 6275SOL    HW220600   7.846  12.538  12.530
 6276SOL     OW20601   4.191  12.286   9.860
 6276SOL    HW120602   4.274  12.283   9.909
 6276SOL    HW220603   4.129  12.239   9.915
 6277SOL     OW20604   0.838  14.250   9.898
 6277SOL    HW120605   0.918  14.198   9.908
 6277SOL    HW220606   0.811  14.235   9.808
 6278SOL     OW20607   8.040   7.612  13.102
 6278SOL    HW120608   7.948   7.597  13.126
 6278SOL    HW220609   8.043   7.703  13.073
 6279SOL     OW20610  12.719   6.170  10.969
 6279SOL    HW120611  12.647   6.128  10.921
 6279SOL    HW220612  12.774   6.097  10.998
 6280SOL     OW20613   9.240  14.610   2.753
 6280SOL    HW120614   9.182  14.685   2.739
 6280SOL    HW220615   9.327  14.643   2.729
 6281SOL     OW20616  11.382   7.163   0.074
 6281SOL    HW120617  11.441   7.091   0.094
 6281SOL    HW220618  11.378   7.166  14.860
 6282SOL     OW20619   9.110  10.869   5.297
 6282SOL    HW120620   9.177  10.921   5.255
 6282SOL    HW220621   9.157  10.814   5.360
 6283SOL     OW20622  14.029   9.423   8.745
 6283SOL    HW120623  14.014   9.494   8.682
 6283SOL    HW220624  13.972   9.352   8.716
 6284SOL     OW20625   0.669  11.602   1.812
 6284SOL    HW120626   0.664  11.681   1.866
 6284SOL    HW220627   0.578  11.587   1.785
 6285SOL     OW20628  13.342   8.117   4.747
 6285SOL    HW120629  13.427   8.074   4.739
 6285SOL    HW220630  13.321   8.111   4.840
 6286SOL     OW20631   4.734   8.323   7.395
 6286SOL    HW120632   4.805   8.369   7.349
 6286SOL    HW220633   4.743   8.231   7.368
 6287SOL     OW20634   6.391  12.587  14.716
 6287SOL    HW120635   6.349  12.504  14.692
 6287SOL    HW220636   6.436  12.569  14.798
 6288SOL     OW20637   2.890  14.005   6.824
 6288SOL    HW120638   2.836  13.956   6.886
 6288SOL    HW220639   2.979  13.973   6.839
 6289SOL     OW20640  10.070  11.248   2.219
 6289SOL    HW120641  10.143  11.246   2.281
 6289SOL    HW220642  10.090  11.321   2.161
 6290SOL     OW20643   9.956  10.168  13.280
 6290SOL    HW120644   9.908  10.164  13.198
 6290SOL    HW220645   9.903  10.117  13.341
 6291SOL     OW20646   0.578   4.148   3.539
 6291SOL    HW120647   0.630   4.219   3.576
 6291SOL    HW220648   0.506   4.137   3.601
 6292SOL     OW20649   0.560   9.096  12.238
 6292SOL    HW120650   0.632   9.081  12.177
 6292SOL    HW220651   0.483   9.108  12.181
 6293SOL     OW20652  12.988   8.571  13.380
 6293SOL    HW120653  13.072   8.585  13.336
 6293SOL    HW220654  12.962   8.657  13.411
 6294SOL     OW20655  12.129   3.403   4.133
 6294SOL    HW120656  12.122   3.403   4.228
 6294SOL    HW220657  12.065   3.337   4.104
 6295SOL     OW20658  11.735   4.318   1.743
 6295SOL    HW120659  11.809   4.330   1.684
 6295SOL    HW220660  11.721   4.223   1.745
 6296SOL     OW20661   1.743   1.692   5.508
 6296SOL    HW120662   1.653   1.697   5.475
 6296SOL    HW220663   1.780   1.614   5.465
 6297SOL     OW20664   7.402   3.253   4.012
 6297SOL    HW120665   7.486   3.237   4.055
 6297SOL    HW220666   7.339   3.257   4.083
 6298SOL     OW20667   9.942   0.634  14.252
 6298SOL    HW120668   9.985   0.551  14.232
 6298SOL    HW220669  10.002   0.678  14.312
 6299SOL     OW20670  11.091   2.060   8.876
 6299SOL    HW120671  11.181   2.066   8.847
 6299SOL    HW220672  11.095   2.078   8.970
 6300SOL     OW20673  12.637  10.864  12.268
 6300SOL    HW120674  12.602  10.796  12.211
 6300SOL    HW220675  12.574  10.936  12.261
 6301SOL     OW20676  14.560   0.523   9.498
 6301SOL    HW120677  14.576   0.439   9.542
 6301SOL    HW220678  14.624   0.583   9.536
 6302SOL     OW20679   8.124  11.388   7.397
 6302SOL    HW120680   8.063  11.366   7.467
 6302SOL    HW220681   8.082  11.354   7.318
 6303SOL     OW20682  14.057   7.119   0.709
 6303SOL    HW120683  13.976   7.163   0.681
 6303SOL    HW220684  14.030   7.068   0.786
 6304SOL     OW20685   4.296   4.456   5.107
 6304SOL    HW120686   4.383   4.415   5.109
 6304SOL    HW220687   4.290   4.493   5.019
 6305SOL     OW20688   8.815   1.031  11.807
 6305SOL    HW120689   8.791   0.940  11.820
 6305SOL    HW220690   8.760   1.060  11.734
 6306SOL     OW20691   8.100  13.200   1.339
 6306SOL    HW120692   8.167  13.267   1.329
 6306SOL    HW220693   8.133  13.144   1.410
 6307SOL     OW20694   8.502   0.294   5.078
 6307SOL    HW120695   8.575   0.244   5.042
 6307SOL    HW220696   8.518   0.384   5.049
 6308SOL     OW20697   6.446  14.248  13.485
 6308SOL    HW120698   6.520  14.290  13.529
 6308SOL    HW220699   6.458  14.155  13.502
 6309SOL     OW20700   6.479   4.465  10.053
 6309SOL    HW120701   6.409   4.513  10.097
 6309SOL    HW220702   6.442   4.380  10.032
 6310SOL     OW20703  14.086   8.304   7.287
 6310SOL    HW120704  14.135   8.383   7.267
 6310SOL    HW220705  14.124   8.237   7.231
 6311SOL     OW20706   2.549  12.556   4.301
 6311SOL    HW120707   2.483  12.548   4.370
 6311SOL    HW220708   2.633  12.546   4.347
 6312SOL     OW20709  11.028   0.625  11.706
 6312SOL    HW120710  10.987   0.698  11.753
 6312SOL    HW220711  10.987   0.627  11.619
 6313SOL     OW20712   7.074   0.608  13.449
 6313SOL    HW120713   7.046   0.586  13.537
 6313SOL    HW220714   7.047   0.533  13.395
 6314SOL     OW20715  11.017   0.027  11.084
 6314SOL    HW120716  11.056   0.094  11.028
 6314SOL    HW220717  11.083  14.839  11.087
 6315SOL     OW20718   3.658  12.218   3.052
 6315SOL    HW120719   3.629  12.128   3.036
 6315SOL    HW220720   3.630  12.267   2.974
 6316SOL     OW20721  11.328   3.228   3.095
 6316SOL    HW120722  11.315   3.294   3.163
 6316SOL    HW220723  11.368   3.275   3.023
 6317SOL     OW20724   5.214   6.416   2.276
 6317SOL    HW120725   5.232   6.439   2.367
 6317SOL    HW220726   5.225   6.321   2.273
 6318SOL     OW20727   4.760   6.112   1.942
 6318SOL    HW120728   4.706   6.072   1.874
 6318SOL    HW220729   4.850   6.098   1.913
 6319SOL     OW20730   1.793   5.702   8.625
 6319SOL    HW120731   1.748   5.671   8.704
 6319SOL    HW220732   1.858   5.765   8.657
 6320SOL     OW20733  14.716  11.866   9.835
 6320SOL    HW120734  14.721  11.955   9.870
 6320SOL    HW220735  14.666  11.817   9.899
 6321SOL     OW20736  14.234   5.805   5.729
 6321SOL    HW120737  14.226   5.844   5.641
 6321SOL    HW220738  14.232   5.880   5.788
 6322SOL     OW20739   2.940  11.204   7.756
 6322SOL    HW120740   2.969  11.240   7.839
 6322SOL    HW220741   3.004  11.136   7.735
 6323SOL     OW20742   6.325   1.719   1.186
 6323SOL    HW120743   6.364   1.771   1.115
 6323SOL    HW220744   6.359   1.759   1.266
 6324SOL     OW20745   6.139   9.592   3.975
 6324SOL    HW120746   6.115   9.527   3.908
 6324SOL    HW220747   6.060   9.644   3.988
 6325SOL     OW20748   4.712   8.413   0.704
 6325SOL    HW120749   4.697   8.368   0.787
 6325SOL    HW220750   4.795   8.377   0.672
 6326SOL     OW20751  10.622   7.750   7.940
 6326SOL    HW120752  10.718   7.749   7.940
 6326SOL    HW220753  10.600   7.842   7.924
 6327SOL     OW20754   2.442   3.356   8.253
 6327SOL    HW120755   2.353   3.329   8.232
 6327SOL    HW220756   2.481   3.376   8.168
 6328SOL     OW20757   5.294   1.300   4.735
 6328SOL    HW120758   5.252   1.386   4.724
 6328SOL    HW220759   5.314   1.295   4.828
 6329SOL     OW20760   4.980   7.482   2.295
 6329SOL    HW120761   5.036   7.433   2.237
 6329SOL    HW220762   4.974   7.569   2.255
 6330SOL     OW20763   1.122   2.924  12.039
 6330SOL    HW120764   1.074   2.980  12.100
 6330SOL    HW220765   1.082   2.837  12.051
 6331SOL     OW20766  12.450   7.645   5.783
 6331SOL    HW120767  12.450   7.550   5.770
 6331SOL    HW220768  12.540   7.671   5.761
 6332SOL     OW20769   6.276  10.111  13.744
 6332SOL    HW120770   6.196  10.162  13.760
 6332SOL    HW220771   6.292  10.120  13.650
 6333SOL     OW20772   2.171  12.070   1.892
 6333SOL    HW120773   2.155  12.039   1.803
 6333SOL    HW220774   2.108  12.141   1.905
 6334SOL     OW20775   4.843   4.942   0.855
 6334SOL    HW120776   4.804   4.931   0.942
 6334SOL    HW220777   4.915   4.879   0.853
 6335SOL     OW20778   9.021  12.885   4.749
 6335SOL    HW120779   9.074  12.933   4.686
 6335SOL    HW220780   9.072  12.807   4.770
 6336SOL     OW20781   8.005  10.681  12.151
 6336SOL    HW120782   8.089  10.640  12.172
 6336SOL    HW220783   8.028  10.757  12.098
 6337SOL     OW20784  14.601   4.916   7.211
 6337SOL    HW120785  14.542   4.949   7.279
 6337SOL    HW220786  14.688   4.941   7.242
 6338SOL     OW20787  10.892  11.476   8.655
 6338SOL    HW120788  10.831  11.540   8.693
 6338SOL    HW220789  10.855  11.455   8.570
 6339SOL     OW20790   9.455   4.041   3.244
 6339SOL    HW120791   9.442   4.120   3.192
 6339SOL    HW220792   9.366   4.013   3.267
 6340SOL     OW20793  14.058  14.397  12.842
 6340SOL    HW120794  13.993  14.456  12.805
 6340SOL    HW220795  14.142  14.428  12.808
 6341SOL     OW20796  11.188   9.021  11.897
 6341SOL    HW120797  11.099   9.024  11.933
 6341SOL    HW220798  11.245   9.013  11.973
 6342SOL     OW20799   9.956   8.406   6.658
 6342SOL    HW120800   9.926   8.455   6.734
 6342SOL    HW220801  10.012   8.468   6.611
 6343SOL     OW20802   2.500  12.183   4.287
 6343SOL    HW120803   2.570  12.237   4.323
 6343SOL    HW220804   2.420  12.214   4.330
 6344SOL     OW20805   7.844   8.503   6.757
 6344SOL    HW120806   7.764   8.450   6.751
 6344SOL    HW220807   7.816   8.592   6.736
 6345SOL     OW20808  12.062  10.568  11.806
 6345SOL    HW120809  12.034  10.481  11.832
 6345SOL    HW220810  12.134  10.553  11.745
 6346SOL     OW20811  13.470   2.975   6.402
 6346SOL    HW120812  13.541   2.963   6.464
 6346SOL    HW220813  13.471   2.896   6.349
 6347SOL     OW20814  14.268  11.498   0.474
 6347SOL    HW120815  14.316  11.548   0.408
 6347SOL    HW220816  14.263  11.409   0.439
 6348SOL     OW20817  11.642   0.836   2.501
 6348SOL    HW120818  11.707   0.841   2.431
 6348SOL    HW220819  11.623   0.928   2.523
 6349SOL     OW20820  12.321  13.599  11.741
 6349SOL    HW120821  12.326  13.519  11.690
 6349SOL    HW220822  12.398  13.597  11.799
 6350SOL     OW20823  13.948   8.218   4.217
 6350SOL    HW120824  13.988   8.269   4.147
 6350SOL    HW220825  13.933   8.281   4.288
 6351SOL     OW20826   3.305   2.628   9.310
 6351SOL    HW120827   3.379   2.571   9.332
 6351SOL    HW220828   3.251   2.575   9.252
 6352SOL     OW20829  11.262   6.701  14.250
 6352SOL    HW120830  11.293   6.748  14.328
 6352SOL    HW220831  11.342   6.669  14.208
 6353SOL     OW20832   9.890  13.038   0.919
 6353SOL    HW120833   9.971  13.084   0.895
 6353SOL    HW220834   9.882  13.053   1.013
 6354SOL     OW20835   7.343  11.098  13.182
 6354SOL    HW120836   7.422  11.091  13.129
 6354SOL    HW220837   7.369  11.154  13.256
 6355SOL     OW20838  14.873   0.149   0.550
 6355SOL    HW120839  14.879   0.143   0.455
 6355SOL    HW220840  14.820   0.227   0.566
 6356SOL     OW20841   0.645   2.640   8.184
 6356SOL    HW120842   0.687   2.633   8.270
 6356SOL    HW220843   0.718   2.651   8.122
 6357SOL     OW20844  12.690   8.975  14.694
 6357SOL    HW120845  12.604   8.935  14.706
 6357SOL    HW220846  12.724   8.985  14.783
 6358SOL     OW20847   9.860   6.020   4.144
 6358SOL    HW120848   9.912   6.096   4.120
 6358SOL    HW220849   9.910   5.977   4.213
 6359SOL     OW20850  10.439  13.533  14.834
 6359SOL    HW120851  10.498  13.476  14.786
 6359SOL    HW220852  10.462  13.521   0.044
 6360SOL     OW20853   7.632   8.813  14.444
 6360SOL    HW120854   7.563   8.751  14.420
 6360SOL    HW220855   7.655   8.790  14.534
 6361SOL     OW20856  13.804   7.475  10.708
 6361SOL    HW120857  13.806   7.380  10.692
 6361SOL    HW220858  13.837   7.513  10.627
 6362SOL     OW20859  12.890  11.483   8.724
 6362SOL    HW120860  12.894  11.414   8.791
 6362SOL    HW220861  12.973  11.530   8.733
 6363SOL     OW20862  11.640   1.335   5.526
 6363SOL    HW120863  11.607   1.356   5.614
 6363SOL    HW220864  11.703   1.265   5.540
 6364SOL     OW20865  13.534   3.384   5.130
 6364SOL    HW120866  13.602   3.338   5.081
 6364SOL    HW220867  13.546   3.354   5.220
 6365SOL     OW20868   1.558  13.759   2.010
 6365SOL    HW120869   1.487  13.822   1.998
 6365SOL    HW220870   1.601  13.786   2.091
 6366SOL     OW20871   7.104   6.109  14.652
 6366SOL    HW120872   7.086   6.018  14.677
 6366SOL    HW220873   7.195   6.108  14.624
 6367SOL     OW20874   4.778   1.749  14.538
 6367SOL    HW120875   4.815   1.830  14.504
 6367SOL    HW220876   4.781   1.689  14.464
 6368SOL     OW20877  14.650  10.823  11.880
 6368SOL    HW120878  14.735  10.799  11.917
 6368SOL    HW220879  14.603  10.740  11.871
 6369SOL     OW20880   9.833   9.756  13.620
 6369SOL    HW120881   9.875   9.737  13.704
 6369SOL    HW220882   9.818   9.851  13.621
 6370SOL     OW20883  12.787  13.731   5.161
 6370SOL    HW120884  12.830  13.761   5.242
 6370SOL    HW220885  12.859  13.698   5.107
 6371SOL     OW20886   1.042   6.602   3.373
 6371SOL    HW120887   1.013   6.688   3.341
 6371SOL    HW220888   1.074   6.620   3.462
 6372SOL     OW20889   9.621   6.544  14.312
 6372SOL    HW120890   9.581   6.469  14.355
 6372SOL    HW220891   9.623   6.612  14.379
 6373SOL     OW20892   2.120   2.906   0.523
 6373SOL    HW120893   2.186   2.967   0.555
 6373SOL    HW220894   2.148   2.821   0.557
 6374SOL     OW20895  13.099   2.188   0.630
 6374SOL    HW120896  13.116   2.253   0.699
 6374SOL    HW220897  13.103   2.104   0.676
 6375SOL     OW20898   3.764   2.301   1.346
 6375SOL    HW120899   3.685   2.291   1.399
 6375SOL    HW220900   3.754   2.386   1.304
 6376SOL     OW20901   3.073   7.565   9.913
 6376SOL    HW120902   3.074   7.652   9.954
 6376SOL    HW220903   3.157   7.559   9.867
 6377SOL     OW20904  13.773   6.096   7.218
 6377SOL    HW120905  13.744   6.142   7.297
 6377SOL    HW220906  13.833   6.158   7.176
 6378SOL     OW20907   1.343  11.184   1.962
 6378SOL    HW120908   1.362  11.263   1.910
 6378SOL    HW220909   1.288  11.131   1.905
 6379SOL     OW20910  12.558   8.478  14.567
 6379SOL    HW120911  12.489   8.490  14.632
 6379SOL    HW220912  12.639   8.477  14.619
 6380SOL     OW20913   9.094   4.283   6.120
 6380SOL    HW120914   9.039   4.266   6.044
 6380SOL    HW220915   9.034   4.283   6.194
 6381SOL     OW20916   9.522   5.251  13.799
 6381SOL    HW120917   9.566   5.300  13.729
 6381SOL    HW220918   9.430   5.278  13.792
 6382SOL     OW20919  11.856   8.328   2.726
 6382SOL    HW120920  11.911   8.253   2.748
 6382SOL    HW220921  11.882   8.396   2.789
 6383SOL     OW20922   7.085   9.845   2.009
 6383SOL    HW120923   7.022   9.776   2.026
 6383SOL    HW220924   7.146   9.807   1.945
 6384SOL     OW20925   6.949   2.964   5.717
 6384SOL    HW120926   6.882   2.921   5.663
 6384SOL    HW220927   6.902   3.035   5.761
 6385SOL     OW20928   1.930   2.656   9.071
 6385SOL    HW120929   1.914   2.663   8.977
 6385SOL    HW220930   1.950   2.746   9.099
 6386SOL     OW20931   0.141  11.622   4.412
 6386SOL    HW120932   0.098  11.596   4.494
 6386SOL    HW220933   0.133  11.717   4.410
 6387SOL     OW20934   1.097  11.478   5.979
 6387SOL    HW120935   1.174  11.475   5.922
 6387SOL    HW220936   1.055  11.393   5.968
 6388SOL     OW20937   1.873   9.424   5.083
 6388SOL    HW120938   1.899   9.380   5.002
 6388SOL    HW220939   1.942   9.401   5.146
 6389SOL     OW20940   0.499   0.288  10.219
 6389SOL    HW120941   0.589   0.255  10.218
 6389SOL    HW220942   0.508   0.383  10.214
 6390SOL     OW20943   6.109   0.964  11.458
 6390SOL    HW120944   6.016   0.984  11.447
 6390SOL    HW220945   6.147   0.974  11.371
 6391SOL     OW20946   5.580   5.296   7.516
 6391SOL    HW120947   5.562   5.226   7.453
 6391SOL    HW220948   5.502   5.301   7.570
 6392SOL     OW20949   7.465   9.285   2.124
 6392SOL    HW120950   7.533   9.234   2.079
 6392SOL    HW220951   7.474   9.373   2.088
 6393SOL     OW20952   2.410   4.202  11.318
 6393SOL    HW120953   2.493   4.192  11.272
 6393SOL    HW220954   2.423   4.279  11.375
 6394SOL     OW20955   1.766  13.769   6.642
 6394SOL    HW120956   1.857  13.794   6.624
 6394SOL    HW220957   1.749  13.696   6.581
 6395SOL     OW20958   6.702  14.157   8.896
 6395SOL    HW120959   6.661  14.095   8.956
 6395SOL    HW220960   6.768  14.202   8.949
 6396SOL     OW20961   3.995   1.380   1.310
 6396SOL    HW120962   4.040   1.313   1.258
 6396SOL    HW220963   3.923   1.410   1.254
 6397SOL     OW20964  12.401  13.274   3.044
 6397SOL    HW120965  12.330  13.257   3.106
 6397SOL    HW220966  12.480  13.252   3.092
 6398SOL     OW20967  10.562   5.989   3.533
 6398SOL    HW120968  10.494   5.996   3.466
 6398SOL    HW220969  10.566   5.896   3.553
 6399SOL     OW20970  11.616  11.445   8.190
 6399SOL    HW120971  11.622  11.446   8.285
 6399SOL    HW220972  11.590  11.356   8.168
 6400SOL     OW20973   7.196  14.560   4.576
 6400SOL    HW120974   7.239  14.644   4.588
 6400SOL    HW220975   7.267  14.501   4.550
 6401SOL     OW20976   4.052  11.946  14.214
 6401SOL    HW120977   4.010  12.015  14.266
 6401SOL    HW220978   4.080  11.881  14.279
 6402SOL     OW20979   9.757   0.289  10.604
 6402SOL    HW120980   9.826   0.224  10.591
 6402SOL    HW220981   9.681   0.237  10.631
 6403SOL     OW20982  11.098   9.883   1.739
 6403SOL    HW120983  11.145   9.813   1.785
 6403SOL    HW220984  11.072   9.943   1.809
 6404SOL     OW20985   3.090   4.834   6.557
 6404SOL    HW120986   3.037   4.805   6.631
 6404SOL    HW220987   3.044   4.802   6.480
 6405SOL     OW20988   7.777   5.558   3.767
 6405SOL    HW120989   7.732   5.630   3.812
 6405SOL    HW220990   7.708   5.494   3.750
 6406SOL     OW20991   3.148   4.953   4.662
 6406SOL    HW120992   3.054   4.962   4.676
 6406SOL    HW220993   3.184   4.936   4.749
 6407SOL     OW20994   8.307   0.662   6.880
 6407SOL    HW120995   8.333   0.631   6.793
 6407SOL    HW220996   8.219   0.698   6.867
 6408SOL     OW20997  12.608   3.564   7.509
 6408SOL    HW120998  12.595   3.473   7.481
 6408SOL    HW220999  12.696   3.586   7.481
 6409SOL     OW21000   8.525   5.515   5.738
 6409SOL    HW121001   8.470   5.452   5.692
 6409SOL    HW221002   8.542   5.583   5.673
 6410SOL     OW21003   4.976   5.307  14.004
 6410SOL    HW121004   4.946   5.383  13.956
 6410SOL    HW221005   4.897   5.255  14.018
 6411SOL     OW21006   5.963  11.193  12.414
 6411SOL    HW121007   5.925  11.280  12.428
 6411SOL    HW221008   6.047  11.210  12.372
 6412SOL     OW21009  12.455   2.636   7.996
 6412SOL    HW121010  12.507   2.690   8.055
 6412SOL    HW221011  12.512   2.618   7.921
 6413SOL     OW21012   6.639  11.353  10.327
 6413SOL    HW121013   6.587  11.427  10.359
 6413SOL    HW221014   6.719  11.393  10.293
 6414SOL     OW21015  11.425   9.968  13.495
 6414SOL    HW121016  11.416   9.904  13.565
 6414SOL    HW221017  11.350   9.952  13.438
 6415SOL     OW21018   0.366  12.695  10.002
 6415SOL    HW121019   0.395  12.605   9.989
 6415SOL    HW221020   0.290  12.704   9.945
 6416SOL     OW21021  11.381   1.786  12.659
 6416SOL    HW121022  11.420   1.708  12.699
 6416SOL    HW221023  11.369   1.846  12.733
 6417SOL     OW21024   9.816   9.033  12.912
 6417SOL    HW121025   9.794   9.009  13.002
 6417SOL    HW221026   9.801   8.954  12.861
 6418SOL     OW21027   4.835   2.913   9.736
 6418SOL    HW121028   4.884   2.990   9.707
 6418SOL    HW221029   4.787   2.943   9.814
 6419SOL     OW21030   0.680  14.103   1.905
 6419SOL    HW121031   0.643  14.015   1.897
 6419SOL    HW221032   0.770  14.093   1.875
 6420SOL     OW21033  10.038   3.539  13.179
 6420SOL    HW121034  10.090   3.511  13.104
 6420SOL    HW221035   9.971   3.596  13.142
 6421SOL     OW21036   5.083   6.393   4.952
 6421SOL    HW121037   5.169   6.403   4.994
 6421SOL    HW221038   5.049   6.310   4.985
 6422SOL     OW21039   3.733   5.259   4.405
 6422SOL    HW121040   3.700   5.187   4.352
 6422SOL    HW221041   3.826   5.265   4.384
 6423SOL     OW21042  11.929   0.411   4.286
 6423SOL    HW121043  11.935   0.448   4.198
 6423SOL    HW221044  11.946   0.318   4.274
 6424SOL     OW21045   4.568   4.136  13.190
 6424SOL    HW121046   4.522   4.217  13.168
 6424SOL    HW221047   4.593   4.099  13.106
 6425SOL     OW21048   0.963   3.214   7.806
 6425SOL    HW121049   0.985   3.184   7.894
 6425SOL    HW221050   0.964   3.310   7.813
 6426SOL     OW21051   8.467   6.088   9.338
 6426SOL    HW121052   8.488   6.133   9.420
 6426SOL    HW221053   8.391   6.134   9.304
 6427SOL     OW21054  10.289  13.331   6.230
 6427SOL    HW121055  10.211  13.362   6.276
 6427SOL    HW221056  10.361  13.385   6.264
 6428SOL     OW21057   7.838  11.074   2.929
 6428SOL    HW121058   7.900  11.147   2.924
 6428SOL    HW221059   7.868  11.014   2.860
 6429SOL     OW21060  10.771   4.475   9.636
 6429SOL    HW121061  10.752   4.557   9.591
 6429SOL    HW221062  10.832   4.500   9.706
 6430SOL     OW21063   6.447   9.358   8.011
 6430SOL    HW121064   6.456   9.442   7.967
 6430SOL    HW221065   6.429   9.380   8.102
 6431SOL     OW21066   6.959   8.957  12.010
 6431SOL    HW121067   7.050   8.960  12.039
 6431SOL    HW221068   6.961   8.904  11.931
 6432SOL     OW21069  13.232   1.828  14.655
 6432SOL    HW121070  13.313   1.818  14.705
 6432SOL    HW221071  13.213   1.922  14.659
 6433SOL     OW21072  10.169   0.205   9.584
 6433SOL    HW121073  10.241   0.155   9.623
 6433SOL    HW221074  10.113   0.139   9.543
 6434SOL     OW21075   0.120   9.904   2.864
 6434SOL    HW121076   0.108   9.997   2.885
 6434SOL    HW221077   0.043   9.861   2.901
 6435SOL     OW21078   0.504   9.062   9.520
 6435SOL    HW121079   0.475   9.128   9.457
 6435SOL    HW221080   0.529   8.987   9.466
 6436SOL     OW21081   3.605   2.639   6.231
 6436SOL    HW121082   3.611   2.728   6.267
 6436SOL    HW221083   3.512   2.629   6.209
 6437SOL     OW21084   9.117  14.698  14.330
 6437SOL    HW121085   9.161  14.650  14.401
 6437SOL    HW221086   9.074  14.629  14.279
 6438SOL     OW21087   2.597  14.193   6.157
 6438SOL    HW121088   2.581  14.284   6.131
 6438SOL    HW221089   2.601  14.195   6.252
 6439SOL     OW21090   0.620  11.525  11.610
 6439SOL    HW121091   0.682  11.577  11.559
 6439SOL    HW221092   0.618  11.568  11.696
 6440SOL     OW21093   6.848   7.386  12.131
 6440SOL    HW121094   6.845   7.433  12.214
 6440SOL    HW221095   6.935   7.345  12.130
 6441SOL     OW21096  10.777   5.472   2.097
 6441SOL    HW121097  10.859   5.510   2.129
 6441SOL    HW221098  10.729   5.545   2.059
 6442SOL     OW21099   9.727   7.848  10.245
 6442SOL    HW121100   9.796   7.788  10.274
 6442SOL    HW221101   9.661   7.791  10.205
 6443SOL     OW21102  12.319   2.238  14.702
 6443SOL    HW121103  12.406   2.276  14.716
 6443SOL    HW221104  12.329   2.184  14.624
 6444SOL     OW21105   7.561  10.160  10.023
 6444SOL    HW121106   7.530  10.201  10.104
 6444SOL    HW221107   7.643  10.117  10.048
 6445SOL     OW21108   3.977   1.743   0.953
 6445SOL    HW121109   3.906   1.724   1.015
 6445SOL    HW221110   4.054   1.757   1.009
 6446SOL     OW21111   2.445   5.754  14.466
 6446SOL    HW121112   2.376   5.699  14.502
 6446SOL    HW221113   2.420   5.767  14.374
 6447SOL     OW21114   0.815   4.188  10.264
 6447SOL    HW121115   0.733   4.215  10.223
 6447SOL    HW221116   0.846   4.265  10.312
 6448SOL     OW21117   7.202   0.918  13.749
 6448SOL    HW121118   7.216   0.941  13.841
 6448SOL    HW221119   7.108   0.898  13.743
 6449SOL     OW21120   0.633   8.206   5.578
 6449SOL    HW121121   0.687   8.270   5.532
 6449SOL    HW221122   0.544   8.228   5.553
 6450SOL     OW21123  11.560   9.040   1.978
 6450SOL    HW121124  11.628   8.972   1.978
 6450SOL    HW221125  11.500   9.013   2.047
 6451SOL     OW21126   3.038  10.429   7.245
 6451SOL    HW121127   2.983  10.492   7.199
 6451SOL    HW221128   3.077  10.376   7.176
 6452SOL     OW21129   8.058   3.622  14.367
 6452SOL    HW121130   7.973   3.598  14.403
 6452SOL    HW221131   8.070   3.714  14.391
 6453SOL     OW21132  11.082   1.981   8.117
 6453SOL    HW121133  11.057   2.071   8.095
 6453SOL    HW221134  11.006   1.928   8.093
 6454SOL     OW21135   1.343   8.056   0.337
 6454SOL    HW121136   1.255   8.020   0.347
 6454SOL    HW221137   1.387   8.033   0.419
 6455SOL     OW21138   5.557  12.282  14.709
 6455SOL    HW121139   5.539  12.250  14.798
 6455SOL    HW221140   5.620  12.220  14.673
 6456SOL     OW21141  10.605  12.030  12.472
 6456SOL    HW121142  10.533  12.054  12.413
 6456SOL    HW221143  10.684  12.051  12.423
 6457SOL     OW21144   5.184  12.557  12.439
 6457SOL    HW121145   5.110  12.501  12.464
 6457SOL    HW221146   5.246  12.547  12.511
 6458SOL     OW21147   6.938   4.365  10.264
 6458SOL    HW121148   6.906   4.455  10.261
 6458SOL    HW221149   6.962   4.351  10.355
 6459SOL     OW21150  10.494  10.296  12.241
 6459SOL    HW121151  10.486  10.389  12.261
 6459SOL    HW221152  10.515  10.294  12.147
 6460SOL     OW21153   5.593   9.653   0.877
 6460SOL    HW121154   5.542   9.728   0.847
 6460SOL    HW221155   5.547   9.622   0.955
 6461SOL     OW21156   3.523  13.474   7.885
 6461SOL    HW121157   3.511  13.397   7.940
 6461SOL    HW221158   3.551  13.440   7.800
 6462SOL     OW21159   9.769   8.570  14.600
 6462SOL    HW121160   9.781   8.645  14.658
 6462SOL    HW221161   9.675   8.553  14.601
 6463SOL     OW21162  13.975   1.320   0.697
 6463SOL    HW121163  13.975   1.259   0.624
 6463SOL    HW221164  14.036   1.282   0.760
 6464SOL     OW21165  12.785   3.163   6.597
 6464SOL    HW121166  12.841   3.183   6.522
 6464SOL    HW221167  12.844   3.159   6.672
 6465SOL     OW21168   5.647   5.766  13.968
 6465SOL    HW121169   5.678   5.705  14.035
 6465SOL    HW221170   5.727   5.808  13.936
 6466SOL     OW21171   3.437   5.314   3.795
 6466SOL    HW121172   3.418   5.408   3.795
 6466SOL    HW221173   3.517   5.306   3.846
 6467SOL     OW21174   6.380  10.011  11.988
 6467SOL    HW121175   6.409  10.102  11.994
 6467SOL    HW221176   6.294  10.016  11.946
 6468SOL     OW21177  11.101   2.398   4.119
 6468SOL    HW121178  11.188   2.412   4.156
 6468SOL    HW221179  11.109   2.425   4.028
 6469SOL     OW21180  12.850  10.494  10.921
 6469SOL    HW121181  12.797  10.489  10.841
 6469SOL    HW221182  12.789  10.473  10.992
 6470SOL     OW21183  12.225  11.606  12.716
 6470SOL    HW121184  12.268  11.610  12.802
 6470SOL    HW221185  12.198  11.696  12.699
 6471SOL     OW21186   9.759   4.480   0.268
 6471SOL    HW121187   9.811   4.428   0.330
 6471SOL    HW221188   9.668   4.465   0.295
 6472SOL     OW21189   5.413   0.015   8.228
 6472SOL    HW121190   5.467   0.038   8.152
 6472SOL    HW221191   5.408   0.096   8.279
 6473SOL     OW21192  14.831  13.720  12.083
 6473SOL    HW121193  14.832  13.719  11.987
 6473SOL    HW221194  14.752  13.673  12.107
 6474SOL     OW21195   3.186   8.839  10.792
 6474SOL    HW121196   3.180   8.745  10.772
 6474SOL    HW221197   3.275   8.863  10.767
 6475SOL     OW21198   2.328   7.528  10.849
 6475SOL    HW121199   2.269   7.462  10.812
 6475SOL    HW221200   2.406   7.479  10.874
 6476SOL     OW21201  10.372   2.906  10.580
 6476SOL    HW121202  10.447   2.861  10.542
 6476SOL    HW221203  10.406   2.990  10.609
 6477SOL     OW21204   7.409  12.990   6.607
 6477SOL    HW121205   7.490  12.951   6.573
 6477SOL    HW221206   7.339  12.940   6.564
 6478SOL     OW21207   7.338   2.436   9.512
 6478SOL    HW121208   7.298   2.395   9.436
 6478SOL    HW221209   7.408   2.491   9.477
 6479SOL     OW21210  11.015   3.960  12.846
 6479SOL    HW121211  10.997   3.891  12.782
 6479SOL    HW221212  10.936   4.015  12.845
 6480SOL     OW21213  10.486   7.446   0.957
 6480SOL    HW121214  10.519   7.468   0.870
 6480SOL    HW221215  10.560   7.404   1.001
 6481SOL     OW21216   6.734  11.901   8.992
 6481SOL    HW121217   6.804  11.962   8.970
 6481SOL    HW221218   6.656  11.956   9.002
 6482SOL     OW21219   2.797   1.702   2.501
 6482SOL    HW121220   2.760   1.789   2.488
 6482SOL    HW221221   2.836   1.679   2.417
 6483SOL     OW21222  11.542  12.770   6.983
 6483SOL    HW121223  11.496  12.781   6.900
 6483SOL    HW221224  11.505  12.690   7.020
 6484SOL     OW21225   5.072   7.677   4.294
 6484SOL    HW121226   5.040   7.587   4.293
 6484SOL    HW221227   5.009   7.724   4.349
 6485SOL     OW21228  14.294  12.047   0.863
 6485SOL    HW121229  14.260  11.975   0.810
 6485SOL    HW221230  14.297  12.013   0.952
 6486SOL     OW21231   9.789  13.825  11.480
 6486SOL    HW121232   9.842  13.787  11.550
 6486SOL    HW221233   9.778  13.917  11.504
 6487SOL     OW21234   5.166   1.760   8.039
 6487SOL    HW121235   5.182   1.840   7.988
 6487SOL    HW221236   5.143   1.694   7.974
 6488SOL     OW21237   5.421  10.222  14.823
 6488SOL    HW121238   5.446  10.218  14.731
 6488SOL    HW221239   5.338  10.269  14.824
 6489SOL     OW21240   2.913   9.666  14.023
 6489SOL    HW121241   3.006   9.685  14.033
 6489SOL    HW221242   2.871   9.708  14.099
 6490SOL     OW21243   1.414   6.339   2.738
 6490SOL    HW121244   1.364   6.419   2.717
 6490SOL    HW221245   1.491   6.344   2.682
 6491SOL     OW21246   1.558  11.825  14.258
 6491SOL    HW121247   1.567  11.917  14.236
 6491SOL    HW221248   1.607  11.779  14.191
 6492SOL     OW21249  13.403   1.807   7.155
 6492SOL    HW121250  13.405   1.750   7.078
 6492SOL    HW221251  13.399   1.746   7.229
 6493SOL     OW21252   3.214   0.638  11.235
 6493SOL    HW121253   3.198   0.723  11.274
 6493SOL    HW221254   3.274   0.594  11.295
 6494SOL     OW21255  10.794   9.912   1.824
 6494SOL    HW121256  10.860   9.978   1.843
 6494SOL    HW221257  10.836   9.829   1.848
 6495SOL     OW21258  12.035   3.539   0.846
 6495SOL    HW121259  12.030   3.631   0.873
 6495SOL    HW221260  12.034   3.490   0.928
 6496SOL     OW21261   5.552   6.822   8.169
 6496SOL    HW121262   5.512   6.899   8.129
 6496SOL    HW221263   5.621   6.857   8.225
 6497SOL     OW21264   5.222   7.824   1.683
 6497SOL    HW121265   5.229   7.779   1.600
 6497SOL    HW221266   5.148   7.884   1.673
 6498SOL     OW21267  11.795   0.082   9.262
 6498SOL    HW121268  11.791   0.131   9.179
 6498SOL    HW221269  11.805   0.149   9.329
 6499SOL     OW21270   8.852   7.622   2.366
 6499SOL    HW121271   8.938   7.654   2.340
 6499SOL    HW221272   8.797   7.635   2.288
 6500SOL     OW21273  12.062   8.737   0.652
 6500SOL    HW121274  12.053   8.758   0.745
 6500SOL    HW221275  12.050   8.821   0.608
 6501SOL     OW21276   0.385   6.575  14.021
 6501SOL    HW121277   0.327   6.649  14.003
 6501SOL    HW221278   0.460   6.613  14.066
 6502SOL     OW21279  11.538  12.211   3.514
 6502SOL    HW121280  11.571  12.246   3.597
 6502SOL    HW221281  11.532  12.287   3.457
 6503SOL     OW21282  11.603   2.134  13.343
 6503SOL    HW121283  11.538   2.204  13.355
 6503SOL    HW221284  11.686   2.175  13.369
 6504SOL     OW21285   5.217  12.334  13.164
 6504SOL    HW121286   5.177  12.330  13.251
 6504SOL    HW221287   5.148  12.306  13.105
 6505SOL     OW21288   6.370   3.530   3.830
 6505SOL    HW121289   6.357   3.620   3.800
 6505SOL    HW221290   6.345   3.476   3.754
 6506SOL     OW21291   8.192   1.515   3.524
 6506SOL    HW121292   8.251   1.493   3.597
 6506SOL    HW221293   8.120   1.562   3.566
 6507SOL     OW21294   5.528   2.562  12.547
 6507SOL    HW121295   5.586   2.487  12.560
 6507SOL    HW221296   5.579   2.624  12.494
 6508SOL     OW21297   7.604  13.828  12.721
 6508SOL    HW121298   7.610  13.889  12.794
 6508SOL    HW221299   7.535  13.767  12.747
 6509SOL     OW21300  12.885  14.025   9.383
 6509SOL    HW121301  12.819  14.025   9.314
 6509SOL    HW221302  12.835  14.004   9.463
 6510SOL     OW21303   2.608   5.565   4.739
 6510SOL    HW121304   2.518   5.537   4.755
 6510SOL    HW221305   2.603   5.661   4.735
 6511SOL     OW21306   2.077   4.906   3.001
 6511SOL    HW121307   2.031   4.967   3.058
 6511SOL    HW221308   2.073   4.822   3.047
 6512SOL     OW21309   7.813  11.731   4.726
 6512SOL    HW121310   7.800  11.644   4.690
 6512SOL    HW221311   7.737  11.781   4.696
 6513SOL     OW21312   6.980   0.970  11.886
 6513SOL    HW121313   7.032   0.997  11.811
 6513SOL    HW221314   6.923   1.044  11.904
 6514SOL     OW21315   3.793   3.152   3.317
 6514SOL    HW121316   3.770   3.163   3.409
 6514SOL    HW221317   3.751   3.070   3.292
 6515SOL     OW21318  10.356   6.143  13.538
 6515SOL    HW121319  10.355   6.111  13.628
 6515SOL    HW221320  10.425   6.092  13.495
 6516SOL     OW21321   0.882  13.558  12.054
 6516SOL    HW121322   0.944  13.580  11.985
 6516SOL    HW221323   0.813  13.624  12.047
 6517SOL     OW21324   0.236   7.380   5.560
 6517SOL    HW121325   0.250   7.323   5.483
 6517SOL    HW221326   0.223   7.319   5.632
 6518SOL     OW21327   8.522  11.248   9.149
 6518SOL    HW121328   8.512  11.327   9.202
 6518SOL    HW221329   8.448  11.193   9.174
 6519SOL     OW21330   6.877   2.946   4.925
 6519SOL    HW121331   6.858   3.034   4.957
 6519SOL    HW221332   6.935   2.908   4.990
 6520SOL     OW21333  13.182   7.791   8.614
 6520SOL    HW121334  13.232   7.873   8.606
 6520SOL    HW221335  13.188   7.751   8.527
 6521SOL     OW21336  12.648  12.308   0.981
 6521SOL    HW121337  12.588  12.240   1.013
 6521SOL    HW221338  12.735  12.273   0.999
 6522SOL     OW21339   5.515   5.079   2.961
 6522SOL    HW121340   5.506   4.989   2.932
 6522SOL    HW221341   5.474   5.080   3.048
 6523SOL     OW21342   3.215   6.151  13.738
 6523SOL    HW121343   3.223   6.098  13.659
 6523SOL    HW221344   3.125   6.139  13.767
 6524SOL     OW21345   9.325   9.200  14.148
 6524SOL    HW121346   9.302   9.247  14.068
 6524SOL    HW221347   9.240   9.178  14.188
 6525SOL     OW21348   9.874   7.499   0.152
 6525SOL    HW121349   9.966   7.511   0.176
 6525SOL    HW221350   9.827   7.564   0.204
 6526SOL     OW21351   4.178   4.304  12.980
 6526SOL    HW121352   4.250   4.300  13.043
 6526SOL    HW221353   4.107   4.254  13.021
 6527SOL     OW21354   0.846   6.057   4.936
 6527SOL    HW121355   0.815   6.012   5.014
 6527SOL    HW221356   0.861   6.147   4.965
 6528SOL     OW21357   7.967   3.187  12.020
 6528SOL    HW121358   7.976   3.218  12.110
 6528SOL    HW221359   8.056   3.188  11.985
 6529SOL     OW21360   0.668   8.486   6.049
 6529SOL    HW121361   0.573   8.478   6.038
 6529SOL    HW221362   0.684   8.457   6.139
 6530SOL     OW21363   3.418  11.969   8.117
 6530SOL    HW121364   3.420  12.040   8.053
 6530SOL    HW221365   3.457  11.894   8.071
 6531SOL     OW21366   5.493  11.610   0.442
 6531SOL    HW121367   5.537  11.543   0.493
 6531SOL    HW221368   5.531  11.604   0.355
 6532SOL     OW21369   7.786   5.821  12.574
 6532SOL    HW121370   7.712   5.761  12.584
 6532SOL    HW221371   7.829   5.819  12.660
 6533SOL     OW21372   7.368   6.665   7.324
 6533SOL    HW121373   7.459   6.638   7.329
 6533SOL    HW221374   7.370   6.759   7.339
 6534SOL     OW21375   5.639   7.623   8.376
 6534SOL    HW121376   5.669   7.617   8.286
 6534SOL    HW221377   5.617   7.715   8.388
 6535SOL     OW21378   5.275  12.269  11.658
 6535SOL    HW121379   5.351  12.213  11.645
 6535SOL    HW221380   5.249  12.253  11.749
 6536SOL     OW21381  12.903   4.515  10.205
 6536SOL    HW121382  12.929   4.594  10.252
 6536SOL    HW221383  12.959   4.446  10.242
 6537SOL     OW21384   9.323   8.520  11.739
 6537SOL    HW121385   9.323   8.613  11.720
 6537SOL    HW221386   9.232   8.493  11.732
 6538SOL     OW21387  10.208  13.606   1.219
 6538SOL    HW121388  10.114  13.623   1.221
 6538SOL    HW221389  10.216  13.511   1.213
 6539SOL     OW21390   4.032   5.054   0.232
 6539SOL    HW121391   3.949   5.059   0.184
 6539SOL    HW221392   4.082   5.130   0.202
 6540SOL     OW21393  11.555   3.060   9.325
 6540SOL    HW121394  11.618   3.079   9.255
 6540SOL    HW221395  11.589   3.108   9.401
 6541SOL     OW21396   2.968   6.344   9.772
 6541SOL    HW121397   2.968   6.248   9.776
 6541SOL    HW221398   2.922   6.365   9.691
 6542SOL     OW21399   4.378   3.884   5.541
 6542SOL    HW121400   4.432   3.959   5.565
 6542SOL    HW221401   4.289   3.910   5.565
 6543SOL     OW21402   1.284   6.250   1.862
 6543SOL    HW121403   1.372   6.223   1.888
 6543SOL    HW221404   1.298   6.310   1.789
 6544SOL     OW21405  10.463   4.730  12.371
 6544SOL    HW121406  10.425   4.784  12.441
 6544SOL    HW221407  10.399   4.735  12.300
 6545SOL     OW21408  12.652   0.879  11.195
 6545SOL    HW121409  12.580   0.868  11.134
 6545SOL    HW221410  12.627   0.954  11.250
 6546SOL     OW21411  10.650   0.307   6.836
 6546SOL    HW121412  10.676   0.244   6.769
 6546SOL    HW221413  10.728   0.318   6.890
 6547SOL     OW21414   1.283   9.268   5.412
 6547SOL    HW121415   1.304   9.337   5.349
 6547SOL    HW221416   1.207   9.223   5.375
 6548SOL     OW21417   1.824  13.154  11.993
 6548SOL    HW121418   1.874  13.072  11.993
 6548SOL    HW221419   1.771  13.149  12.073
 6549SOL     OW21420  10.973   6.638   8.580
 6549SOL    HW121421  10.989   6.549   8.549
 6549SOL    HW221422  11.060   6.676   8.590
 6550SOL     OW21423   2.106  14.050  12.212
 6550SOL    HW121424   2.196  14.044  12.179
 6550SOL    HW221425   2.095  14.142  12.235
 6551SOL     OW21426   1.791   9.564   4.168
 6551SOL    HW121427   1.700   9.590   4.181
 6551SOL    HW221428   1.836   9.645   4.144
 6552SOL     OW21429   8.232   2.084   6.791
 6552SOL    HW121430   8.253   2.080   6.698
 6552SOL    HW221431   8.151   2.033   6.798
 6553SOL     OW21432   5.885   5.106   0.610
 6553SOL    HW121433   5.845   5.108   0.523
 6553SOL    HW221434   5.944   5.030   0.607
 6554SOL     OW21435  12.610   8.376   0.879
 6554SOL    HW121436  12.657   8.449   0.838
 6554SOL    HW221437  12.619   8.304   0.817
 6555SOL     OW21438   7.397   1.772   4.208
 6555SOL    HW121439   7.349   1.694   4.235
 6555SOL    HW221440   7.377   1.837   4.276
 6556SOL     OW21441   1.872  12.218  10.003
 6556SOL    HW121442   1.941  12.196   9.940
 6556SOL    HW221443   1.791  12.211   9.953
 6557SOL     OW21444  12.562   8.629  10.552
 6557SOL    HW121445  12.502   8.625  10.477
 6557SOL    HW221446  12.507   8.608  10.628
 6558SOL     OW21447   1.336   1.546   8.004
 6558SOL    HW121448   1.322   1.588   7.919
 6558SOL    HW221449   1.291   1.602   8.066
 6559SOL     OW21450   8.663  14.641   0.027
 6559SOL    HW121451   8.753  14.673   0.020
 6559SOL    HW221452   8.632  14.675   0.111
 6560SOL     OW21453   5.047   1.429  13.314
 6560SOL    HW121454   5.005   1.491  13.254
 6560SOL    HW221455   5.073   1.482  13.389
 6561SOL     OW21456  11.775   1.743   7.872
 6561SOL    HW121457  11.700   1.748   7.813
 6561SOL    HW221458  11.813   1.831   7.872
 6562SOL     OW21459   3.197  12.027  12.274
 6562SOL    HW121460   3.189  12.080  12.195
 6562SOL    HW221461   3.254  11.954  12.248
 6563SOL     OW21462  13.412   2.948   2.241
 6563SOL    HW121463  13.469   3.014   2.281
 6563SOL    HW221464  13.468   2.870   2.233
 6564SOL     OW21465   2.838  10.262   9.174
 6564SOL    HW121466   2.751  10.223   9.159
 6564SOL    HW221467   2.892  10.225   9.104
 6565SOL     OW21468  11.366   1.864   5.453
 6565SOL    HW121469  11.320   1.781   5.461
 6565SOL    HW221470  11.445   1.843   5.403
 6566SOL     OW21471   8.486   2.671  12.132
 6566SOL    HW121472   8.559   2.732  12.129
 6566SOL    HW221473   8.450   2.672  12.043
 6567SOL     OW21474   9.629   0.266  12.028
 6567SOL    HW121475   9.723   0.264  12.007
 6567SOL    HW221476   9.598   0.178  12.006
 6568SOL     OW21477  12.379  11.651  14.116
 6568SOL    HW121478  12.465  11.614  14.137
 6568SOL    HW221479  12.398  11.725  14.059
 6569SOL     OW21480   1.908  12.107   5.416
 6569SOL    HW121481   1.938  12.165   5.485
 6569SOL    HW221482   1.989  12.069   5.381
 6570SOL     OW21483   9.907   2.788   5.220
 6570SOL    HW121484   9.832   2.847   5.222
 6570SOL    HW221485   9.871   2.703   5.246
 6571SOL     OW21486   5.700   1.437  12.965
 6571SOL    HW121487   5.755   1.420  12.889
 6571SOL    HW221488   5.614   1.404  12.940
 6572SOL     OW21489  10.162  11.809   3.316
 6572SOL    HW121490  10.088  11.782   3.371
 6572SOL    HW221491  10.214  11.730   3.305
 6573SOL     OW21492   7.928   7.674   9.722
 6573SOL    HW121493   7.925   7.608   9.791
 6573SOL    HW221494   7.901   7.755   9.765
 6574SOL     OW21495   3.464   8.862   8.694
 6574SOL    HW121496   3.559   8.855   8.703
 6574SOL    HW221497   3.442   8.801   8.624
 6575SOL     OW21498   3.307  12.079  14.673
 6575SOL    HW121499   3.298  12.005  14.613
 6575SOL    HW221500   3.392  12.118  14.651
 6576SOL     OW21501   2.221   1.562  12.575
 6576SOL    HW121502   2.228   1.639  12.632
 6576SOL    HW221503   2.257   1.590  12.491
 6577SOL     OW21504   3.718   6.090   4.705
 6577SOL    HW121505   3.637   6.049   4.737
 6577SOL    HW221506   3.761   6.021   4.654
 6578SOL     OW21507  13.771  10.592   7.086
 6578SOL    HW121508  13.816  10.510   7.064
 6578SOL    HW221509  13.835  10.642   7.136
 6579SOL     OW21510   5.760  12.830   1.632
 6579SOL    HW121511   5.837  12.849   1.686
 6579SOL    HW221512   5.692  12.809   1.695
 6580SOL     OW21513   7.853   5.329   8.761
 6580SOL    HW121514   7.889   5.409   8.723
 6580SOL    HW221515   7.896   5.322   8.847
 6581SOL     OW21516   5.085  14.181   5.723
 6581SOL    HW121517   4.998  14.187   5.764
 6581SOL    HW221518   5.130  14.261   5.750
 6582SOL     OW21519   4.589   6.968  11.332
 6582SOL    HW121520   4.672   6.926  11.355
 6582SOL    HW221521   4.524   6.899  11.343
 6583SOL     OW21522   5.300   4.700   1.661
 6583SOL    HW121523   5.265   4.719   1.748
 6583SOL    HW221524   5.249   4.755   1.601
 6584SOL     OW21525   1.892   2.462   8.403
 6584SOL    HW121526   1.870   2.371   8.382
 6584SOL    HW221527   1.927   2.498   8.322
 6585SOL     OW21528  13.150   8.167  10.224
 6585SOL    HW121529  13.086   8.115  10.273
 6585SOL    HW221530  13.099   8.240  10.190
 6586SOL     OW21531   8.800   5.001   6.252
 6586SOL    HW121532   8.851   4.955   6.185
 6586SOL    HW221533   8.821   4.956   6.333
 6587SOL     OW21534   4.986   4.636   1.831
 6587SOL    HW121535   4.972   4.699   1.760
 6587SOL    HW221536   5.011   4.555   1.787
 6588SOL     OW21537  14.537  11.872   6.597
 6588SOL    HW121538  14.473  11.838   6.534
 6588SOL    HW221539  14.519  11.824   6.678
 6589SOL     OW21540  14.223  11.347   3.549
 6589SOL    HW121541  14.271  11.274   3.588
 6589SOL    HW221542  14.132  11.331   3.571
 6590SOL     OW21543   7.814  11.857   7.077
 6590SOL    HW121544   7.841  11.766   7.089
 6590SOL    HW221545   7.890  11.899   7.038
 6591SOL     OW21546   1.611   0.568   7.560
 6591SOL    HW121547   1.535   0.609   7.519
 6591SOL    HW221548   1.682   0.631   7.545
 6592SOL     OW21549   0.084   8.837   7.274
 6592SOL    HW121550  14.875   8.815   7.294
 6592SOL    HW221551   0.112   8.893   7.345
 6593SOL     OW21552   0.547   3.192   0.107
 6593SOL    HW121553   0.631   3.184   0.061
 6593SOL    HW221554   0.536   3.287   0.119
 6594SOL     OW21555   6.223   6.672   7.243
 6594SOL    HW121556   6.163   6.705   7.177
 6594SOL    HW221557   6.280   6.747   7.264
 6595SOL     OW21558  12.517   4.049   7.969
 6595SOL    HW121559  12.524   4.142   7.948
 6595SOL    HW221560  12.608   4.019   7.978
 6596SOL     OW21561  13.056   4.293   4.693
 6596SOL    HW121562  13.088   4.296   4.603
 6596SOL    HW221563  12.960   4.291   4.684
 6597SOL     OW21564   0.509   1.085  10.470
 6597SOL    HW121565   0.416   1.067  10.462
 6597SOL    HW221566   0.537   1.037  10.548
 6598SOL     OW21567   7.316   1.819   6.745
 6598SOL    HW121568   7.235   1.836   6.698
 6598SOL    HW221569   7.326   1.724   6.741
 6599SOL     OW21570   4.113   1.279   7.343
 6599SOL    HW121571   4.075   1.231   7.270
 6599SOL    HW221572   4.174   1.341   7.303
 6600SOL     OW21573   7.185   2.565  11.713
 6600SOL    HW121574   7.205   2.502  11.643
 6600SOL    HW221575   7.268   2.575  11.760
 6601SOL     OW21576   3.939  12.248  13.715
 6601SOL    HW121577   3.993  12.170  13.701
 6601SOL    HW221578   3.997  12.321  13.693
 6602SOL     OW21579   9.734   9.768   6.319
 6602SOL    HW121580   9.765   9.732   6.236
 6602SOL    HW221581   9.639   9.755   6.316
 6603SOL     OW21582   8.535   5.859   2.352
 6603SOL    HW121583   8.563   5.935   2.403
 6603SOL    HW221584   8.449   5.836   2.388
 6604SOL     OW21585   0.365  14.534  14.280
 6604SOL    HW121586   0.276  14.500  14.288
 6604SOL    HW221587   0.392  14.553  14.369
 6605SOL     OW21588  10.294  12.599   9.964
 6605SOL    HW121589  10.221  12.661   9.968
 6605SOL    HW221590  10.286  12.557   9.879
 6606SOL     OW21591   9.767   3.382   7.636
 6606SOL    HW121592   9.688   3.434   7.652
 6606SOL    HW221593   9.839   3.444   7.645
 6607SOL     OW21594   2.599   3.532   8.786
 6607SOL    HW121595   2.656   3.593   8.833
 6607SOL    HW221596   2.621   3.446   8.822
 6608SOL     OW21597   3.451  14.421   2.183
 6608SOL    HW121598   3.464  14.444   2.091
 6608SOL    HW221599   3.430  14.327   2.181
 6609SOL     OW21600  10.152   5.190   8.912
 6609SOL    HW121601  10.077   5.149   8.870
 6609SOL    HW221602  10.136   5.180   9.006
 6610SOL     OW21603   9.459   2.222   8.127
 6610SOL    HW121604   9.488   2.280   8.056
 6610SOL    HW221605   9.505   2.140   8.110
 6611SOL     OW21606   6.474  12.563   5.975
 6611SOL    HW121607   6.499  12.512   6.053
 6611SOL    HW221608   6.516  12.648   5.988
 6612SOL     OW21609   4.197   8.211  10.033
 6612SOL    HW121610   4.182   8.131  10.083
 6612SOL    HW221611   4.281   8.197   9.990
 6613SOL     OW21612  14.245   1.593  10.979
 6613SOL    HW121613  14.194   1.660  10.933
 6613SOL    HW221614  14.310   1.565  10.915
 6614SOL     OW21615   7.824   2.286  11.001
 6614SOL    HW121616   7.894   2.351  11.001
 6614SOL    HW221617   7.809   2.267  11.094
 6615SOL     OW21618   3.886   9.002   3.498
 6615SOL    HW121619   3.935   9.078   3.531
 6615SOL    HW221620   3.942   8.927   3.519
 6616SOL     OW21621   3.810   8.597   6.339
 6616SOL    HW121622   3.760   8.678   6.336
 6616SOL    HW221623   3.900   8.625   6.359
 6617SOL     OW21624   4.314   3.112   4.096
 6617SOL    HW121625   4.357   3.121   4.181
 6617SOL    HW221626   4.348   3.031   4.060
 6618SOL     OW21627   9.038  10.030   7.225
 6618SOL    HW121628   9.121   9.994   7.193
 6618SOL    HW221629   8.971   9.985   7.174
 6619SOL     OW21630   3.530  14.108   5.641
 6619SOL    HW121631   3.517  14.017   5.667
 6619SOL    HW221632   3.621  14.113   5.614
 6620SOL     OW21633  12.798   1.791  11.873
 6620SOL    HW121634  12.717   1.796  11.923
 6620SOL    HW221635  12.863   1.834  11.929
 6621SOL     OW21636  13.077  13.260   8.215
 6621SOL    HW121637  13.000  13.284   8.163
 6621SOL    HW221638  13.122  13.193   8.162
 6622SOL     OW21639   7.771   8.242   6.994
 6622SOL    HW121640   7.853   8.218   6.952
 6622SOL    HW221641   7.722   8.161   7.000
 6623SOL     OW21642   5.513   6.293   7.449
 6623SOL    HW121643   5.588   6.308   7.505
 6623SOL    HW221644   5.547   6.300   7.360
 6624SOL     OW21645   3.082  12.155  12.743
 6624SOL    HW121646   3.146  12.124  12.680
 6624SOL    HW221647   3.002  12.168  12.692
 6625SOL     OW21648  10.504  14.204   1.583
 6625SOL    HW121649  10.424  14.254   1.602
 6625SOL    HW221650  10.546  14.253   1.512
 6626SOL     OW21651   0.499  13.809   0.476
 6626SOL    HW121652   0.553  13.731   0.468
 6626SOL    HW221653   0.412  13.776   0.498
 6627SOL     OW21654  13.228   2.758  14.852
 6627SOL    HW121655  13.276   2.679  14.827
 6627SOL    HW221656  13.263   2.826  14.794
 6628SOL     OW21657  14.744  12.212   4.693
 6628SOL    HW121658  14.776  12.289   4.741
 6628SOL    HW221659  14.702  12.158   4.760
 6629SOL     OW21660  12.370   4.541  11.360
 6629SOL    HW121661  12.323   4.557  11.278
 6629SOL    HW221662  12.355   4.448  11.378
 6630SOL     OW21663   1.442  12.508   2.130
 6630SOL    HW121664   1.362  12.554   2.104
 6630SOL    HW221665   1.465  12.547   2.214
 6631SOL     OW21666   0.565   9.246  14.812
 6631SOL    HW121667   0.535   9.335  14.829
 6631SOL    HW221668   0.528   9.223  14.726
 6632SOL     OW21669   1.110   6.069  11.626
 6632SOL    HW121670   1.143   6.082  11.715
 6632SOL    HW221671   1.175   6.112  11.570
 6633SOL     OW21672   0.210   4.289  14.862
 6633SOL    HW121673   0.264   4.275   0.058
 6633SOL    HW221674   0.251   4.362  14.817
 6634SOL     OW21675   2.696   0.623   2.957
 6634SOL    HW121676   2.765   0.597   3.018
 6634SOL    HW221677   2.700   0.719   2.956
 6635SOL     OW21678  13.271   2.340   5.552
 6635SOL    HW121679  13.205   2.274   5.531
 6635SOL    HW221680  13.240   2.379   5.634
 6636SOL     OW21681   1.643   6.137   1.448
 6636SOL    HW121682   1.683   6.162   1.364
 6636SOL    HW221683   1.688   6.191   1.513
 6637SOL     OW21684  11.946   6.366  10.790
 6637SOL    HW121685  11.927   6.314  10.712
 6637SOL    HW221686  12.009   6.432  10.760
 6638SOL     OW21687  13.162  14.694  14.181
 6638SOL    HW121688  13.202  14.658  14.103
 6638SOL    HW221689  13.226  14.678  14.251
 6639SOL     OW21690  10.666   6.676  13.029
 6639SOL    HW121691  10.743   6.654  13.081
 6639SOL    HW221692  10.646   6.767  13.054
 6640SOL     OW21693  14.504   4.305   2.030
 6640SOL    HW121694  14.416   4.327   2.059
 6640SOL    HW221695  14.559   4.377   2.062
 6641SOL     OW21696   1.270   7.898  13.356
 6641SOL    HW121697   1.231   7.818  13.390
 6641SOL    HW221698   1.211   7.926  13.286
 6642SOL     OW21699  14.840   0.933   1.985
 6642SOL    HW121700  14.869   0.961   1.898
 6642SOL    HW221701   0.002   0.849   1.999
 6643SOL     OW21702   1.844  13.284   4.907
 6643SOL    HW121703   1.827  13.377   4.921
 6643SOL    HW221704   1.762  13.249   4.873
 6644SOL     OW21705   1.253   5.804   1.606
 6644SOL    HW121706   1.330   5.786   1.552
 6644SOL    HW221707   1.195   5.854   1.548
 6645SOL     OW21708   6.814  13.350  11.289
 6645SOL    HW121709   6.894  13.319  11.331
 6645SOL    HW221710   6.756  13.373  11.362
 6646SOL     OW21711   5.349   7.860  13.756
 6646SOL    HW121712   5.444   7.861  13.761
 6646SOL    HW221713   5.321   7.816  13.837
 6647SOL     OW21714   2.885   2.479  12.521
 6647SOL    HW121715   2.876   2.390  12.488
 6647SOL    HW221716   2.846   2.534  12.452
 6648SOL     OW21717  11.546  10.394   8.710
 6648SOL    HW121718  11.594  10.475   8.697
 6648SOL    HW221719  11.604  10.326   8.675
 6649SOL     OW21720  10.231   5.134   5.192
 6649SOL    HW121721  10.255   5.178   5.274
 6649SOL    HW221722  10.314   5.127   5.145
 6650SOL     OW21723  14.789   5.321  11.793
 6650SOL    HW121724  14.719   5.315  11.859
 6650SOL    HW221725  14.782   5.240  11.743
 6651SOL     OW21726   9.089   3.926  13.968
 6651SOL    HW121727   9.037   3.989  13.918
 6651SOL    HW221728   9.025   3.863  14.001
 6652SOL     OW21729  12.624  11.031  14.162
 6652SOL    HW121730  12.552  11.021  14.225
 6652SOL    HW221731  12.581  11.026  14.077
 6653SOL     OW21732   0.018   7.644  11.056
 6653SOL    HW121733   0.060   7.631  11.141
 6653SOL    HW221734   0.062   7.721  11.020
 6654SOL     OW21735   1.411   6.533   9.740
 6654SOL    HW121736   1.403   6.439   9.754
 6654SOL    HW221737   1.345   6.553   9.673
 6655SOL     OW21738  11.792   3.763   8.577
 6655SOL    HW121739  11.724   3.763   8.645
 6655SOL    HW221740  11.755   3.711   8.506
 6656SOL     OW21741  10.417   7.083   2.872
 6656SOL    HW121742  10.338   7.086   2.818
 6656SOL    HW221743  10.457   6.999   2.852
 6657SOL     OW21744   0.239  14.337   4.026
 6657SOL    HW121745   0.310  14.297   4.076
 6657SOL    HW221746   0.217  14.271   3.960
 6658SOL     OW21747   6.163  10.181  12.889
 6658SOL    HW121748   6.238  10.173  12.829
 6658SOL    HW221749   6.115  10.099  12.877
 6659SOL     OW21750  10.093   5.888   3.623
 6659SOL    HW121751  10.011   5.893   3.574
 6659SOL    HW221752  10.105   5.795   3.641
 6660SOL     OW21753   9.675   5.676   3.533
 6660SOL    HW121754   9.591   5.722   3.535
 6660SOL    HW221755   9.652   5.583   3.535
 6661SOL     OW21756   2.435   9.624   9.524
 6661SOL    HW121757   2.480   9.654   9.603
 6661SOL    HW221758   2.475   9.676   9.453
 6662SOL     OW21759  12.877  13.055   5.519
 6662SOL    HW121760  12.824  13.066   5.598
 6662SOL    HW221761  12.940  13.128   5.523
 6663SOL     OW21762   8.851   5.709   3.618
 6663SOL    HW121763   8.849   5.651   3.541
 6663SOL    HW221764   8.867   5.650   3.691
 6664SOL     OW21765  11.686  14.085   6.688
 6664SOL    HW121766  11.671  14.145   6.615
 6664SOL    HW221767  11.756  14.126   6.739
 6665SOL     OW21768  13.776  14.409  12.532
 6665SOL    HW121769  13.866  14.378  12.526
 6665SOL    HW221770  13.779  14.480  12.595
 6666SOL     OW21771   6.822   8.194   7.835
 6666SOL    HW121772   6.911   8.189   7.801
 6666SOL    HW221773   6.824   8.143   7.916
 6667SOL     OW21774   0.944   4.152  13.440
 6667SOL    HW121775   0.875   4.098  13.478
 6667SOL    HW221776   0.921   4.241  13.464
 6668SOL     OW21777  12.219  14.076   8.208
 6668SOL    HW121778  12.310  14.072   8.238
 6668SOL    HW221779  12.169  14.094   8.288
 6669SOL     OW21780   6.758   1.766   8.131
 6669SOL    HW121781   6.759   1.738   8.223
 6669SOL    HW221782   6.847   1.748   8.100
 6670SOL     OW21783   0.902   2.886   3.132
 6670SOL    HW121784   0.957   2.955   3.171
 6670SOL    HW221785   0.819   2.894   3.178
 6671SOL     OW21786   4.641  14.232   6.441
 6671SOL    HW121787   4.662  14.170   6.371
 6671SOL    HW221788   4.583  14.184   6.500
 6672SOL     OW21789   7.432  10.448  11.627
 6672SOL    HW121790   7.499  10.445  11.559
 6672SOL    HW221791   7.396  10.537  11.622
 6673SOL     OW21792   7.877   2.110   8.909
 6673SOL    HW121793   7.968   2.116   8.881
 6673SOL    HW221794   7.863   2.017   8.927
 6674SOL     OW21795   2.575   8.090   7.883
 6674SOL    HW121796   2.614   8.154   7.943
 6674SOL    HW221797   2.487   8.124   7.866
 6675SOL     OW21798  12.496   2.522  12.459
 6675SOL    HW121799  12.441   2.493  12.387
 6675SOL    HW221800  12.501   2.617  12.448
 6676SOL     OW21801   9.803   2.307  10.061
 6676SOL    HW121802   9.842   2.264  10.137
 6676SOL    HW221803   9.732   2.360  10.097
 6677SOL     OW21804   7.003   0.539  12.342
 6677SOL    HW121805   7.002   0.465  12.281
 6677SOL    HW221806   6.959   0.610  12.294
 6678SOL     OW21807  13.875   7.867   7.234
 6678SOL    HW121808  13.962   7.839   7.263
 6678SOL    HW221809  13.880   7.869   7.139
 6679SOL     OW21810   3.602   6.181   0.309
 6679SOL    HW121811   3.512   6.176   0.341
 6679SOL    HW221812   3.620   6.275   0.302
 6680SOL     OW21813   0.652  10.416  14.787
 6680SOL    HW121814   0.729  10.463  14.819
 6680SOL    HW221815   0.684  10.329  14.764
 6681SOL     OW21816  13.062   9.173  10.261
 6681SOL    HW121817  13.016   9.182  10.178
 6681SOL    HW221818  13.010   9.109  10.311
 6682SOL     OW21819   9.024   3.910  11.429
 6682SOL    HW121820   8.970   3.974  11.474
 6682SOL    HW221821   8.965   3.837  11.410
 6683SOL     OW21822   7.497   4.342   4.550
 6683SOL    HW121823   7.574   4.288   4.565
 6683SOL    HW221824   7.499   4.362   4.457
 6684SOL     OW21825   1.381   4.739   9.301
 6684SOL    HW121826   1.326   4.781   9.367
 6684SOL    HW221827   1.442   4.807   9.273
 6685SOL     OW21828   3.645  14.699   6.661
 6685SOL    HW121829   3.585  14.707   6.586
 6685SOL    HW221830   3.667  14.789   6.683
 6686SOL     OW21831   0.560   7.587   4.580
 6686SOL    HW121832   0.514   7.503   4.573
 6686SOL    HW221833   0.500   7.650   4.540
 6687SOL     OW21834   0.624  11.776   7.278
 6687SOL    HW121835   0.608  11.752   7.187
 6687SOL    HW221836   0.709  11.821   7.277
 6688SOL     OW21837   7.590  12.283   8.397
 6688SOL    HW121838   7.560  12.215   8.457
 6688SOL    HW221839   7.680  12.300   8.423
 6689SOL     OW21840   8.581   7.245   5.526
 6689SOL    HW121841   8.532   7.232   5.607
 6689SOL    HW221842   8.616   7.334   5.533
 6690SOL     OW21843  13.292  14.030   1.966
 6690SOL    HW121844  13.290  14.088   1.890
 6690SOL    HW221845  13.220  14.060   2.021
 6691SOL     OW21846   4.861   3.676   8.099
 6691SOL    HW121847   4.845   3.644   8.188
 6691SOL    HW221848   4.796   3.745   8.086
 6692SOL     OW21849  11.692   6.195  11.589
 6692SOL    HW121850  11.705   6.290  11.588
 6692SOL    HW221851  11.617   6.181  11.646
 6693SOL     OW21852  14.210   9.900   1.666
 6693SOL    HW121853  14.207   9.989   1.700
 6693SOL    HW221854  14.256   9.908   1.582
 6694SOL     OW21855  12.648  10.039   5.664
 6694SOL    HW121856  12.736  10.065   5.692
 6694SOL    HW221857  12.596  10.119   5.670
 6695SOL     OW21858   0.175  11.340   2.800
 6695SOL    HW121859   0.085  11.365   2.776
 6695SOL    HW221860   0.211  11.417   2.842
 6696SOL     OW21861   3.233   2.370   7.239
 6696SOL    HW121862   3.151   2.421   7.234
 6696SOL    HW221863   3.232   2.316   7.160
 6697SOL     OW21864   6.729  10.180   3.153
 6697SOL    HW121865   6.741  10.085   3.159
 6697SOL    HW221866   6.635  10.192   3.141
 6698SOL     OW21867  14.431   7.154   6.483
 6698SOL    HW121868  14.387   7.237   6.500
 6698SOL    HW221869  14.500   7.149   6.549
 6699SOL     OW21870   6.471   4.381  11.865
 6699SOL    HW121871   6.448   4.363  11.774
 6699SOL    HW221872   6.438   4.306  11.914
 6700SOL     OW21873   6.084   9.583   2.057
 6700SOL    HW121874   6.166   9.631   2.047
 6700SOL    HW221875   6.048   9.577   1.968
 6701SOL     OW21876  13.852   1.987  12.061
 6701SOL    HW121877  13.871   1.897  12.034
 6701SOL    HW221878  13.933   2.035  12.042
 6702SOL     OW21879   2.965   8.275  11.834
 6702SOL    HW121880   2.958   8.318  11.919
 6702SOL    HW221881   2.966   8.348  11.771
 6703SOL     OW21882   5.437   7.963   5.911
 6703SOL    HW121883   5.445   7.993   5.821
 6703SOL    HW221884   5.362   8.012   5.945
 6704SOL     OW21885  12.168  14.033  11.734
 6704SOL    HW121886  12.093  13.995  11.688
 6704SOL    HW221887  12.133  14.055  11.821
 6705SOL     OW21888   8.771   7.453  11.836
 6705SOL    HW121889   8.750   7.364  11.808
 6705SOL    HW221890   8.743   7.457  11.928
 6706SOL     OW21891   7.460   2.739   1.986
 6706SOL    HW121892   7.411   2.766   2.064
 6706SOL    HW221893   7.535   2.798   1.983
 6707SOL     OW21894  11.956   1.355   7.728
 6707SOL    HW121895  11.934   1.271   7.767
 6707SOL    HW221896  12.052   1.358   7.730
 6708SOL     OW21897   0.828   1.703  14.828
 6708SOL    HW121898   0.757   1.762  14.851
 6708SOL    HW221899   0.864   1.674   0.031
 6709SOL     OW21900  11.068   8.183   3.824
 6709SOL    HW121901  10.986   8.164   3.779
 6709SOL    HW221902  11.112   8.247   3.768
 6710SOL     OW21903   9.598   8.624   0.845
 6710SOL    HW121904   9.660   8.632   0.917
 6710SOL    HW221905   9.572   8.532   0.846
 6711SOL     OW21906   2.155   0.946   5.404
 6711SOL    HW121907   2.069   0.988   5.399
 6711SOL    HW221908   2.186   0.944   5.314
 6712SOL     OW21909   3.243   6.271   8.772
 6712SOL    HW121910   3.197   6.204   8.822
 6712SOL    HW221911   3.321   6.226   8.739
 6713SOL     OW21912   9.474  14.387   5.690
 6713SOL    HW121913   9.410  14.327   5.653
 6713SOL    HW221914   9.429  14.471   5.696
 6714SOL     OW21915   3.271   8.108   9.629
 6714SOL    HW121916   3.333   8.139   9.694
 6714SOL    HW221917   3.311   8.028   9.593
 6715SOL     OW21918  11.443   1.394   8.903
 6715SOL    HW121919  11.384   1.407   8.829
 6715SOL    HW221920  11.391   1.417   8.980
 6716SOL     OW21921  11.642  14.586   8.816
 6716SOL    HW121922  11.704  14.531   8.769
 6716SOL    HW221923  11.595  14.526   8.873
 6717SOL     OW21924  13.192   7.221  13.950
 6717SOL    HW121925  13.116   7.259  13.995
 6717SOL    HW221926  13.154   7.177  13.874
 6718SOL     OW21927  13.777   2.756  11.119
 6718SOL    HW121928  13.759   2.699  11.194
 6718SOL    HW221929  13.872   2.755  11.110
 6719SOL     OW21930   9.129   7.570   0.798
 6719SOL    HW121931   9.207   7.524   0.766
 6719SOL    HW221932   9.158   7.612   0.879
 6720SOL     OW21933  11.684   6.596  11.301
 6720SOL    HW121934  11.607   6.552  11.337
 6720SOL    HW221935  11.747   6.525  11.287
 6721SOL     OW21936   8.799   5.354   3.507
 6721SOL    HW121937   8.711   5.389   3.519
 6721SOL    HW221938   8.839   5.412   3.442
 6722SOL     OW21939   2.379   4.378   1.479
 6722SOL    HW121940   2.319   4.445   1.510
 6722SOL    HW221941   2.442   4.425   1.424
 6723SOL     OW21942   4.550  10.384   9.599
 6723SOL    HW121943   4.550  10.371   9.694
 6723SOL    HW221944   4.522  10.299   9.564
 6724SOL     OW21945  12.655   1.222  10.195
 6724SOL    HW121946  12.676   1.148  10.138
 6724SOL    HW221947  12.589   1.272  10.147
 6725SOL     OW21948   2.452  10.350   5.999
 6725SOL    HW121949   2.519  10.414   5.975
 6725SOL    HW221950   2.407  10.330   5.917
 6726SOL     OW21951  10.175   4.687   8.443
 6726SOL    HW121952  10.156   4.661   8.533
 6726SOL    HW221953  10.268   4.711   8.444
 6727SOL     OW21954  14.252  10.027  13.787
 6727SOL    HW121955  14.190  10.086  13.745
 6727SOL    HW221956  14.239  10.039  13.881
 6728SOL     OW21957   9.832  13.397  13.426
 6728SOL    HW121958   9.746  13.425  13.393
 6728SOL    HW221959   9.823  13.302  13.436
 6729SOL     OW21960   9.914  11.906   2.304
 6729SOL    HW121961   9.984  11.932   2.245
 6729SOL    HW221962   9.955  11.844   2.364
 6730SOL     OW21963   8.849   0.600  12.868
 6730SOL    HW121964   8.899   0.612  12.787
 6730SOL    HW221965   8.887   0.662  12.929
 6731SOL     OW21966   5.309   4.816   6.136
 6731SOL    HW121967   5.250   4.872   6.087
 6731SOL    HW221968   5.337   4.869   6.211
 6732SOL     OW21969   9.223   4.736   7.092
 6732SOL    HW121970   9.133   4.766   7.101
 6732SOL    HW221971   9.260   4.741   7.180
 6733SOL     OW21972   0.818   5.737  11.329
 6733SOL    HW121973   0.878   5.808  11.349
 6733SOL    HW221974   0.761   5.772  11.260
 6734SOL     OW21975  13.652  14.353  11.916
 6734SOL    HW121976  13.560  14.344  11.944
 6734SOL    HW221977  13.649  14.345  11.821
 6735SOL     OW21978  11.689  10.355   3.264
 6735SOL    HW121979  11.609  10.357   3.211
 6735SOL    HW221980  11.690  10.268   3.303
 6736SOL     OW21981  13.055  10.585   9.412
 6736SOL    HW121982  13.038  10.605   9.505
 6736SOL    HW221983  13.045  10.669   9.368
 6737SOL     OW21984   1.293  12.837   2.151
 6737SOL    HW121985   1.356  12.894   2.107
 6737SOL    HW221986   1.341  12.800   2.225
 6738SOL     OW21987  11.765   6.010   3.297
 6738SOL    HW121988  11.676   5.987   3.273
 6738SOL    HW221989  11.803   5.929   3.330
 6739SOL     OW21990   1.615  14.656   6.716
 6739SOL    HW121991   1.658  14.579   6.681
 6739SOL    HW221992   1.655  14.669   6.802
 6740SOL     OW21993   9.621   0.935   4.950
 6740SOL    HW121994   9.579   1.001   5.006
 6740SOL    HW221995   9.608   0.853   4.997
 6741SOL     OW21996   5.720   1.655  12.787
 6741SOL    HW121997   5.666   1.655  12.866
 6741SOL    HW221998   5.669   1.604  12.723
 6742SOL     OW21999  10.389   4.692   4.521
 6742SOL    HW122000  10.339   4.754   4.468
 6742SOL    HW222001  10.404   4.738   4.604
 6743SOL     OW22002  13.856   0.339   5.908
 6743SOL    HW122003  13.890   0.253   5.935
 6743SOL    HW222004  13.891   0.400   5.973
 6744SOL     OW22005  12.415  14.625   1.080
 6744SOL    HW122006  12.332  14.602   1.037
 6744SOL    HW222007  12.475  14.555   1.056
 6745SOL     OW22008   0.984   4.677   8.042
 6745SOL    HW122009   0.931   4.601   8.017
 6745SOL    HW222010   0.985   4.733   7.964
 6746SOL     OW22011   3.677   4.265   0.424
 6746SOL    HW122012   3.591   4.235   0.453
 6746SOL    HW222013   3.671   4.266   0.328
 6747SOL     OW22014   0.116   2.500   8.260
 6747SOL    HW122015   0.062   2.441   8.208
 6747SOL    HW222016   0.065   2.517   8.339
 6748SOL     OW22017  12.802  13.089   7.799
 6748SOL    HW122018  12.828  13.035   7.725
 6748SOL    HW222019  12.712  13.062   7.818
 6749SOL     OW22020   7.269   0.770   3.267
 6749SOL    HW122021   7.245   0.844   3.210
 6749SOL    HW222022   7.323   0.714   3.213
 6750SOL     OW22023   1.979   8.878  13.543
 6750SOL    HW122024   1.985   8.785  13.521
 6750SOL    HW222025   1.899   8.908  13.500
 6751SOL     OW22026  11.756   5.779   3.994
 6751SOL    HW122027  11.791   5.769   4.082
 6751SOL    HW222028  11.709   5.698   3.977
 6752SOL     OW22029  13.226   2.127  13.217
 6752SOL    HW122030  13.245   2.219  13.231
 6752SOL    HW222031  13.133   2.118  13.239
 6753SOL     OW22032   8.049   2.945   5.980
 6753SOL    HW122033   7.962   2.908   5.999
 6753SOL    HW222034   8.041   3.037   6.004
 6754SOL     OW22035  11.732   5.885   4.769
 6754SOL    HW122036  11.790   5.821   4.728
 6754SOL    HW222037  11.789   5.960   4.787
 6755SOL     OW22038   1.874   2.617   5.351
 6755SOL    HW122039   1.863   2.522   5.360
 6755SOL    HW222040   1.784   2.650   5.345
 6756SOL     OW22041   4.602  11.653  11.298
 6756SOL    HW122042   4.624  11.646  11.205
 6756SOL    HW222043   4.680  11.619  11.344
 6757SOL     OW22044   2.873   7.601   0.269
 6757SOL    HW122045   2.929   7.557   0.333
 6757SOL    HW222046   2.848   7.532   0.208
 6758SOL     OW22047   6.099   5.318   5.870
 6758SOL    HW122048   6.031   5.256   5.894
 6758SOL    HW222049   6.053   5.402   5.863
 6759SOL     OW22050  13.853   7.528   1.196
 6759SOL    HW122051  13.930   7.551   1.144
 6759SOL    HW222052  13.804   7.610   1.205
 6760SOL     OW22053   6.923   0.735  13.048
 6760SOL    HW122054   7.018   0.731  13.048
 6760SOL    HW222055   6.898   0.700  12.962
 6761SOL     OW22056   3.687  12.867  11.079
 6761SOL    HW122057   3.655  12.863  11.169
 6761SOL    HW222058   3.612  12.895  11.028
 6762SOL     OW22059   2.940   9.306   6.881
 6762SOL    HW122060   2.864   9.330   6.933
 6762SOL    HW222061   2.993   9.251   6.939
 6763SOL     OW22062  13.984   2.337   5.885
 6763SOL    HW122063  14.068   2.383   5.885
 6763SOL    HW222064  13.999   2.258   5.834
 6764SOL     OW22065   4.036   1.714   5.456
 6764SOL    HW122066   3.999   1.789   5.503
 6764SOL    HW222067   4.037   1.742   5.364
 6765SOL     OW22068  13.231  14.440  13.504
 6765SOL    HW122069  13.248  14.359  13.457
 6765SOL    HW222070  13.306  14.450  13.562
 6766SOL     OW22071  11.887  12.049   9.835
 6766SOL    HW122072  11.982  12.051   9.843
 6766SOL    HW222073  11.870  12.069   9.743
 6767SOL     OW22074   6.120   8.762   1.961
 6767SOL    HW122075   6.194   8.807   2.001
 6767SOL    HW222076   6.108   8.805   1.877
 6768SOL     OW22077  12.059  12.297  14.339
 6768SOL    HW122078  12.088  12.378  14.298
 6768SOL    HW222079  12.120  12.284  14.412
 6769SOL     OW22080  13.383   3.397   5.722
 6769SOL    HW122081  13.397   3.401   5.817
 6769SOL    HW222082  13.289   3.390   5.712
 6770SOL     OW22083   4.467   6.001  12.560
 6770SOL    HW122084   4.453   6.055  12.483
 6770SOL    HW222085   4.560   5.982  12.560
 6771SOL     OW22086  14.341  10.414   8.967
 6771SOL    HW122087  14.278  10.465   8.915
 6771SOL    HW222088  14.383  10.479   9.024
 6772SOL     OW22089   8.324  10.130   6.504
 6772SOL    HW122090   8.370  10.150   6.586
 6772SOL    HW222091   8.363  10.191   6.440
 6773SOL     OW22092   8.780   3.461   5.700
 6773SOL    HW122093   8.873   3.464   5.675
 6773SOL    HW222094   8.781   3.425   5.789
 6774SOL     OW22095   0.006   1.186  14.578
 6774SOL    HW122096  14.855   1.182  14.668
 6774SOL    HW222097   0.086   1.237  14.583
 6775SOL     OW22098   3.763  14.319  10.831
 6775SOL    HW122099   3.742  14.412  10.839
 6775SOL    HW222100   3.761  14.285  10.920
 6776SOL     OW22101   4.300   0.866  13.803
 6776SOL    HW122102   4.270   0.807  13.734
 6776SOL    HW222103   4.220   0.909  13.833
 6777SOL     OW22104   7.406   2.865   1.047
 6777SOL    HW122105   7.438   2.807   1.116
 6777SOL    HW222106   7.393   2.807   0.972
 6778SOL     OW22107  13.708   9.880   4.201
 6778SOL    HW122108  13.651   9.846   4.270
 6778SOL    HW222109  13.762   9.806   4.174
 6779SOL     OW22110   5.981   2.068   0.783
 6779SOL    HW122111   6.068   2.037   0.758
 6779SOL    HW222112   5.921   2.021   0.725
 6780SOL     OW22113   2.387   7.361   1.174
 6780SOL    HW122114   2.416   7.444   1.211
 6780SOL    HW222115   2.292   7.363   1.180
 6781SOL     OW22116   4.576   7.249  10.692
 6781SOL    HW122117   4.505   7.275  10.634
 6781SOL    HW222118   4.640   7.208  10.634
 6782SOL     OW22119   8.644   0.790   3.235
 6782SOL    HW122120   8.735   0.818   3.224
 6782SOL    HW222121   8.597   0.834   3.164
 6783SOL     OW22122   0.039   6.202   5.306
 6783SOL    HW122123   0.004   6.276   5.355
 6783SOL    HW222124   0.134   6.215   5.308
 6784SOL     OW22125  10.864   0.512   9.011
 6784SOL    HW122126  10.935   0.479   8.955
 6784SOL    HW222127  10.787   0.461   8.985
 6785SOL     OW22128  12.934  13.078   4.945
 6785SOL    HW122129  12.885  13.089   4.864
 6785SOL    HW222130  12.992  13.003   4.928
 6786SOL     OW22131  11.807   1.029   0.650
 6786SOL    HW122132  11.718   1.035   0.685
 6786SOL    HW222133  11.801   0.965   0.579
 6787SOL     OW22134   5.236   9.510   2.115
 6787SOL    HW122135   5.186   9.587   2.086
 6787SOL    HW222136   5.262   9.530   2.204
 6788SOL     OW22137  12.721  12.563  11.430
 6788SOL    HW122138  12.647  12.572  11.369
 6788SOL    HW222139  12.778  12.498  11.389
 6789SOL     OW22140   2.270   7.052   1.767
 6789SOL    HW122141   2.238   7.076   1.680
 6789SOL    HW222142   2.342   7.114   1.783
 6790SOL     OW22143  14.229  11.224   6.267
 6790SOL    HW122144  14.187  11.309   6.284
 6790SOL    HW222145  14.205  11.170   6.343
 6791SOL     OW22146   6.257   5.817   7.146
 6791SOL    HW122147   6.326   5.771   7.097
 6791SOL    HW222148   6.176   5.780   7.112
 6792SOL     OW22149   9.459   7.097   8.762
 6792SOL    HW122150   9.462   7.178   8.713
 6792SOL    HW222151   9.481   7.122   8.852
 6793SOL     OW22152   9.127   3.414   2.689
 6793SOL    HW122153   9.147   3.347   2.624
 6793SOL    HW222154   9.188   3.485   2.670
 6794SOL     OW22155   5.316   1.362  13.711
 6794SOL    HW122156   5.323   1.280  13.762
 6794SOL    HW222157   5.357   1.428  13.767
 6795SOL     OW22158  12.492  14.438  14.828
 6795SOL    HW122159  12.469  14.472  14.741
 6795SOL    HW222160  12.548  14.505  14.866
 6796SOL     OW22161   7.242   5.120   8.628
 6796SOL    HW122162   7.248   5.166   8.712
 6796SOL    HW222163   7.287   5.036   8.644
 6797SOL     OW22164   6.428   5.596  12.514
 6797SOL    HW122165   6.453   5.645  12.436
 6797SOL    HW222166   6.499   5.612  12.576
 6798SOL     OW22167   6.241  14.107   7.376
 6798SOL    HW122168   6.268  14.049   7.447
 6798SOL    HW222169   6.198  14.180   7.420
 6799SOL     OW22170   2.658  12.400  11.569
 6799SOL    HW122171   2.586  12.422  11.627
 6799SOL    HW222172   2.617  12.368  11.489
 6800SOL     OW22173  12.783   7.763   2.862
 6800SOL    HW122174  12.720   7.788   2.930
 6800SOL    HW222175  12.819   7.680   2.891
 6801SOL     OW22176  10.181   8.083  14.644
 6801SOL    HW122177  10.184   8.171  14.605
 6801SOL    HW222178  10.148   8.028  14.573
 6802SOL     OW22179   8.485  11.240   6.578
 6802SOL    HW122180   8.403  11.213   6.619
 6802SOL    HW222181   8.473  11.333   6.558
 6803SOL     OW22182  12.973   7.331  14.101
 6803SOL    HW122183  12.989   7.417  14.062
 6803SOL    HW222184  13.023   7.332  14.182
 6804SOL     OW22185   0.786   6.819   6.740
 6804SOL    HW122186   0.719   6.885   6.756
 6804SOL    HW222187   0.748   6.761   6.674
 6805SOL     OW22188   3.760   0.956  11.996
 6805SOL    HW122189   3.717   1.042  12.002
 6805SOL    HW222190   3.689   0.893  12.003
 6806SOL     OW22191   2.753   7.714   1.340
 6806SOL    HW122192   2.692   7.668   1.399
 6806SOL    HW222193   2.763   7.800   1.380
 6807SOL     OW22194  11.532   0.722   9.726
 6807SOL    HW122195  11.623   0.712   9.700
 6807SOL    HW222196  11.516   0.648   9.785
 6808SOL     OW22197  13.132   8.219  11.955
 6808SOL    HW122198  13.049   8.174  11.935
 6808SOL    HW222199  13.130   8.297  11.900
 6809SOL     OW22200   0.583  14.613   3.903
 6809SOL    HW122201   0.677  14.609   3.888
 6809SOL    HW222202   0.550  14.673   3.836
 6810SOL     OW22203   7.941  12.829   6.553
 6810SOL    HW122204   8.023  12.828   6.603
 6810SOL    HW222205   7.872  12.835   6.619
 6811SOL     OW22206   8.118   1.323  14.156
 6811SOL    HW122207   8.026   1.330  14.184
 6811SOL    HW222208   8.166   1.309  14.237
 6812SOL     OW22209   2.185  13.982  10.588
 6812SOL    HW122210   2.216  13.992  10.678
 6812SOL    HW222211   2.241  13.914  10.550
 6813SOL     OW22212   0.046   4.610   6.469
 6813SOL    HW122213  14.864   4.667   6.428
 6813SOL    HW222214   0.024   4.522   6.438
 6814SOL     OW22215   2.561  13.532   6.387
 6814SOL    HW122216   2.653  13.540   6.362
 6814SOL    HW222217   2.517  13.511   6.305
 6815SOL     OW22218   6.023   9.203   9.214
 6815SOL    HW122219   6.058   9.281   9.257
 6815SOL    HW222220   6.055   9.130   9.267
 6816SOL     OW22221   4.165   9.708  12.750
 6816SOL    HW122222   4.206   9.792  12.768
 6816SOL    HW222223   4.208   9.647  12.810
 6817SOL     OW22224   7.483   7.210   4.443
 6817SOL    HW122225   7.562   7.158   4.453
 6817SOL    HW222226   7.493   7.253   4.358
 6818SOL     OW22227  12.323   9.403   8.824
 6818SOL    HW122228  12.394   9.433   8.881
 6818SOL    HW222229  12.273   9.482   8.806
 6819SOL     OW22230  12.486  14.799   3.045
 6819SOL    HW122231  12.474   0.010   3.026
 6819SOL    HW222232  12.402  14.772   3.084
 6820SOL     OW22233  13.170   3.636   4.406
 6820SOL    HW122234  13.136   3.548   4.419
 6820SOL    HW222235  13.223   3.630   4.327
 6821SOL     OW22236   3.489   7.958   9.542
 6821SOL    HW122237   3.522   7.934   9.455
 6821SOL    HW222238   3.491   7.876   9.591
 6822SOL     OW22239  11.335  12.544  14.696
 6822SOL    HW122240  11.389  12.609  14.650
 6822SOL    HW222241  11.376  12.460  14.674
 6823SOL     OW22242   4.960   4.538   4.230
 6823SOL    HW122243   4.918   4.460   4.192
 6823SOL    HW222244   4.909   4.556   4.309
 6824SOL     OW22245   1.204  13.553   9.784
 6824SOL    HW122246   1.165  13.639   9.800
 6824SOL    HW222247   1.209  13.547   9.688
 6825SOL     OW22248   4.646   4.802  13.434
 6825SOL    HW122249   4.631   4.844  13.349
 6825SOL    HW222250   4.625   4.869  13.499
 6826SOL     OW22251   8.627   7.849   5.732
 6826SOL    HW122252   8.556   7.900   5.693
 6826SOL    HW222253   8.691   7.840   5.662
 6827SOL     OW22254   0.009   5.618  12.078
 6827SOL    HW122255   0.013   5.612  11.982
 6827SOL    HW222256   0.022   5.711  12.096
 6828SOL     OW22257  14.439   5.320   7.896
 6828SOL    HW122258  14.490   5.354   7.969
 6828SOL    HW222259  14.500   5.267   7.845
 6829SOL     OW22260  14.611   5.243   9.977
 6829SOL    HW122261  14.551   5.252   9.904
 6829SOL    HW222262  14.564   5.282  10.051
 6830SOL     OW22263  14.672   1.975  11.195
 6830SOL    HW122264  14.767   1.990  11.191
 6830SOL    HW222265  14.640   2.002  11.109
 6831SOL     OW22266   1.084   9.342   3.646
 6831SOL    HW122267   1.046   9.352   3.559
 6831SOL    HW222268   1.177   9.326   3.630
 6832SOL     OW22269   6.374   6.344   4.859
 6832SOL    HW122270   6.410   6.432   4.873
 6832SOL    HW222271   6.447   6.285   4.876
 6833SOL     OW22272  10.442   6.370   9.181
 6833SOL    HW122273  10.438   6.461   9.150
 6833SOL    HW222274  10.426   6.317   9.104
 6834SOL     OW22275   0.858   7.972  10.451
 6834SOL    HW122276   0.869   8.018  10.534
 6834SOL    HW222277   0.929   7.908  10.449
 6835SOL     OW22278   6.683  14.329  12.475
 6835SOL    HW122279   6.631  14.284  12.408
 6835SOL    HW222280   6.618  14.381  12.523
 6836SOL     OW22281   1.089  14.697  14.804
 6836SOL    HW122282   1.065  14.634  14.872
 6836SOL    HW222283   1.086  14.782  14.848
 6837SOL     OW22284  11.090   9.239   8.779
 6837SOL    HW122285  10.996   9.252   8.788
 6837SOL    HW222286  11.107   9.153   8.818
 6838SOL     OW22287  10.671   1.842  13.860
 6838SOL    HW122288  10.601   1.900  13.829
 6838SOL    HW222289  10.749   1.897  13.863
 6839SOL     OW22290   4.668  13.826   4.235
 6839SOL    HW122291   4.682  13.776   4.155
 6839SOL    HW222292   4.637  13.912   4.205
 6840SOL     OW22293   5.536   3.355  12.735
 6840SOL    HW122294   5.504   3.412  12.665
 6840SOL    HW222295   5.587   3.288  12.689
 6841SOL     OW22296   5.327   4.242  10.317
 6841SOL    HW122297   5.374   4.293  10.384
 6841SOL    HW222298   5.236   4.271  10.325
 6842SOL     OW22299   3.124   8.057   4.165
 6842SOL    HW122300   3.193   8.070   4.230
 6842SOL    HW222301   3.068   8.135   4.175
 6843SOL     OW22302   7.423  11.647   9.563
 6843SOL    HW122303   7.373  11.609   9.490
 6843SOL    HW222304   7.511  11.659   9.528
 6844SOL     OW22305  11.806   9.755   2.107
 6844SOL    HW122306  11.789   9.734   2.016
 6844SOL    HW222307  11.792   9.673   2.154
 6845SOL     OW22308   0.059  11.879  11.567
 6845SOL    HW122309   0.021  11.891  11.654
 6845SOL    HW222310  14.879  11.820  11.522
 6846SOL     OW22311   7.230   3.897   0.476
 6846SOL    HW122312   7.279   3.848   0.411
 6846SOL    HW222313   7.296   3.923   0.541
 6847SOL     OW22314  10.075  13.962   8.507
 6847SOL    HW122315  10.058  14.031   8.571
 6847SOL    HW222316  10.091  14.008   8.425
 6848SOL     OW22317   0.937   7.991  10.996
 6848SOL    HW122318   0.846   7.971  11.018
 6848SOL    HW222319   0.983   7.907  11.004
 6849SOL     OW22320  11.101   0.283   5.653
 6849SOL    HW122321  11.098   0.248   5.742
 6849SOL    HW222322  11.025   0.245   5.609
 6850SOL     OW22323   8.156   6.858  11.457
 6850SOL    HW122324   8.094   6.893  11.521
 6850SOL    HW222325   8.127   6.768  11.442
 6851SOL     OW22326  13.585   1.439  12.916
 6851SOL    HW122327  13.565   1.439  12.822
 6851SOL    HW222328  13.637   1.360  12.929
 6852SOL     OW22329   2.126   0.742   2.811
 6852SOL    HW122330   2.104   0.819   2.760
 6852SOL    HW222331   2.170   0.776   2.889
 6853SOL     OW22332   2.780   8.964   4.811
 6853SOL    HW122333   2.874   8.981   4.815
 6853SOL    HW222334   2.773   8.877   4.772
 6854SOL     OW22335   7.802  12.961  13.579
 6854SOL    HW122336   7.832  12.998  13.496
 6854SOL    HW222337   7.864  12.891  13.598
 6855SOL     OW22338   7.961   4.517   9.803
 6855SOL    HW122339   7.867   4.500   9.797
 6855SOL    HW222340   7.999   4.461   9.735
 6856SOL     OW22341   4.205   8.259  14.168
 6856SOL    HW122342   4.196   8.190  14.102
 6856SOL    HW222343   4.132   8.245  14.227
 6857SOL     OW22344  10.934   2.999  11.715
 6857SOL    HW122345  10.939   3.083  11.670
 6857SOL    HW222346  10.937   2.934  11.645
 6858SOL     OW22347   0.541   1.017   9.876
 6858SOL    HW122348   0.514   0.980   9.960
 6858SOL    HW222349   0.535   1.112   9.888
 6859SOL     OW22350   5.853   5.298   9.809
 6859SOL    HW122351   5.843   5.264   9.720
 6859SOL    HW222352   5.830   5.225   9.866
 6860SOL     OW22353  11.151  14.817   8.775
 6860SOL    HW122354  11.187  14.866   8.849
 6860SOL    HW222355  11.067  14.859   8.757
 6861SOL     OW22356  13.170   6.867   6.422
 6861SOL    HW122357  13.147   6.914   6.503
 6861SOL    HW222358  13.184   6.937   6.358
 6862SOL     OW22359   0.332   7.040   1.130
 6862SOL    HW122360   0.391   6.965   1.123
 6862SOL    HW222361   0.348   7.090   1.049
 6863SOL     OW22362   3.983   8.721   4.547
 6863SOL    HW122363   4.079   8.723   4.551
 6863SOL    HW222364   3.961   8.628   4.554
 6864SOL     OW22365  13.711   1.285  12.348
 6864SOL    HW122366  13.691   1.216  12.285
 6864SOL    HW222367  13.800   1.264  12.379
 6865SOL     OW22368   1.036   3.510   7.836
 6865SOL    HW122369   1.060   3.566   7.762
 6865SOL    HW222370   1.119   3.494   7.882
 6866SOL     OW22371   7.675   3.085  11.512
 6866SOL    HW122372   7.765   3.088  11.546
 6866SOL    HW222373   7.685   3.100  11.418
 6867SOL     OW22374   3.917   2.704  13.553
 6867SOL    HW122375   3.861   2.735  13.482
 6867SOL    HW222376   3.874   2.624  13.585
 6868SOL     OW22377   8.200  11.011  13.133
 6868SOL    HW122378   8.275  11.043  13.083
 6868SOL    HW222379   8.126  11.059  13.098
 6869SOL     OW22380   1.140  14.450   2.666
 6869SOL    HW122381   1.051  14.416   2.677
 6869SOL    HW222382   1.162  14.429   2.576
 6870SOL     OW22383   2.714  14.832  10.035
 6870SOL    HW122384   2.793   0.003  10.049
 6870SOL    HW222385   2.746  14.750   9.997
 6871SOL     OW22386   5.324   6.091   6.860
 6871SOL    HW122387   5.358   6.177   6.835
 6871SOL    HW222388   5.251   6.076   6.800
 6872SOL     OW22389  10.370  13.628   2.735
 6872SOL    HW122390  10.331  13.541   2.738
 6872SOL    HW222391  10.373  13.650   2.642
 6873SOL     OW22392   1.859  11.510  12.014
 6873SOL    HW122393   1.874  11.416  12.000
 6873SOL    HW222394   1.785  11.531  11.957
 6874SOL     OW22395   3.363   7.691   9.374
 6874SOL    HW122396   3.435   7.750   9.351
 6874SOL    HW222397   3.406   7.610   9.401
 6875SOL     OW22398  11.141   2.299   8.584
 6875SOL    HW122399  11.116   2.346   8.664
 6875SOL    HW222400  11.136   2.206   8.608
 6876SOL     OW22401   5.410   1.763  12.597
 6876SOL    HW122402   5.395   1.810  12.679
 6876SOL    HW222403   5.460   1.685  12.622
 6877SOL     OW22404   2.350   2.778   0.762
 6877SOL    HW122405   2.403   2.820   0.694
 6877SOL    HW222406   2.404   2.705   0.792
 6878SOL     OW22407   7.505   4.796  12.846
 6878SOL    HW122408   7.476   4.709  12.874
 6878SOL    HW222409   7.482   4.801  12.753
 6879SOL     OW22410   7.639  11.966  12.467
 6879SOL    HW122411   7.711  11.944  12.407
 6879SOL    HW222412   7.683  11.989  12.549
 6880SOL     OW22413  10.983   4.781   3.784
 6880SOL    HW122414  11.033   4.706   3.754
 6880SOL    HW222415  10.947   4.754   3.869
 6881SOL     OW22416   8.773   6.204  13.165
 6881SOL    HW122417   8.683   6.234  13.153
 6881SOL    HW222418   8.798   6.235  13.252
 6882SOL     OW22419   4.971   6.665   1.497
 6882SOL    HW122420   4.996   6.574   1.482
 6882SOL    HW222421   5.026   6.715   1.436
 6883SOL     OW22422   6.173   8.995   9.346
 6883SOL    HW122423   6.104   8.931   9.327
 6883SOL    HW222424   6.225   8.955   9.415
 6884SOL     OW22425   3.791  14.053   5.613
 6884SOL    HW122426   3.876  14.096   5.610
 6884SOL    HW222427   3.787  14.013   5.700
 6885SOL     OW22428   4.867   4.017   8.915
 6885SOL    HW122429   4.799   4.043   8.976
 6885SOL    HW222430   4.925   3.960   8.965
 6886SOL     OW22431   2.684   9.461   9.760
 6886SOL    HW122432   2.766   9.415   9.777
 6886SOL    HW222433   2.700   9.551   9.788
 6887SOL     OW22434   2.741   0.463   7.579
 6887SOL    HW122435   2.653   0.443   7.545
 6887SOL    HW222436   2.730   0.547   7.624
 6888SOL     OW22437   7.285   5.152   0.452
 6888SOL    HW122438   7.245   5.067   0.472
 6888SOL    HW222439   7.363   5.155   0.507
 6889SOL     OW22440  12.617  10.265  13.209
 6889SOL    HW122441  12.673  10.188  13.219
 6889SOL    HW222442  12.648  10.307  13.130
 6890SOL     OW22443  12.112   0.181   7.579
 6890SOL    HW122444  12.189   0.237   7.566
 6890SOL    HW222445  12.056   0.199   7.504
 6891SOL     OW22446   6.973   2.969  13.223
 6891SOL    HW122447   7.008   2.976  13.312
 6891SOL    HW222448   6.908   3.039  13.217
 6892SOL     OW22449   0.058   5.806   6.577
 6892SOL    HW122450   0.137   5.812   6.630
 6892SOL    HW222451  14.877   5.757   6.631
 6893SOL     OW22452   7.705  13.949   7.282
 6893SOL    HW122453   7.723  14.038   7.312
 6893SOL    HW222454   7.688  13.958   7.189
 6894SOL     OW22455   7.247   9.790   7.753
 6894SOL    HW122456   7.275   9.805   7.844
 6894SOL    HW222457   7.245   9.695   7.745
 6895SOL     OW22458  13.674  13.519   4.429
 6895SOL    HW122459  13.729  13.595   4.407
 6895SOL    HW222460  13.597  13.558   4.473
 6896SOL     OW22461  11.691  12.788   6.575
 6896SOL    HW122462  11.747  12.760   6.647
 6896SOL    HW222463  11.717  12.732   6.502
 6897SOL     OW22464   8.921  11.043   4.670
 6897SOL    HW122465   8.885  11.129   4.693
 6897SOL    HW222466   8.880  11.021   4.587
 6898SOL     OW22467   7.195  12.603   2.327
 6898SOL    HW122468   7.260  12.673   2.317
 6898SOL    HW222469   7.111  12.649   2.325
 6899SOL     OW22470  12.515  14.796   1.498
 6899SOL    HW122471  12.452  14.867   1.485
 6899SOL    HW222472  12.487  14.754   1.580
 6900SOL     OW22473  14.397  10.611   2.375
 6900SOL    HW122474  14.400  10.679   2.443
 6900SOL    HW222475  14.403  10.659   2.293
 6901SOL     OW22476  12.542   9.595  13.650
 6901SOL    HW122477  12.513   9.644  13.727
 6901SOL    HW222478  12.579   9.662  13.592
 6902SOL     OW22479  11.984   4.933   5.429
 6902SOL    HW122480  12.058   4.874   5.441
 6902SOL    HW222481  11.932   4.922   5.509
 6903SOL     OW22482  12.916  14.278   8.044
 6903SOL    HW122483  12.990  14.218   8.046
 6903SOL    HW222484  12.903  14.297   7.951
 6904SOL     OW22485  11.131   3.687  13.251
 6904SOL    HW122486  11.195   3.741  13.204
 6904SOL    HW222487  11.113   3.736  13.331
 6905SOL     OW22488   8.552   3.080   4.219
 6905SOL    HW122489   8.546   3.043   4.131
 6905SOL    HW222490   8.633   3.130   4.218
 6906SOL     OW22491  12.746   5.328   9.571
 6906SOL    HW122492  12.753   5.412   9.617
 6906SOL    HW222493  12.772   5.263   9.636
 6907SOL     OW22494  13.679   7.418  13.691
 6907SOL    HW122495  13.612   7.361  13.728
 6907SOL    HW222496  13.673   7.404  13.596
 6908SOL     OW22497   1.559   0.129  12.053
 6908SOL    HW122498   1.594   0.066  12.116
 6908SOL    HW222499   1.464   0.126  12.066
 6909SOL     OW22500   6.461   7.044  11.125
 6909SOL    HW122501   6.519   7.096  11.069
 6909SOL    HW222502   6.501   7.052  11.212
 6910SOL     OW22503   5.250  11.706  14.687
 6910SOL    HW122504   5.212  11.681  14.771
 6910SOL    HW222505   5.317  11.771  14.709
 6911SOL     OW22506  10.512   3.334   5.344
 6911SOL    HW122507  10.422   3.305   5.360
 6911SOL    HW222508  10.520   3.414   5.396
 6912SOL     OW22509   2.566   0.008  12.810
 6912SOL    HW122510   2.552  14.836  12.731
 6912SOL    HW222511   2.625   0.078  12.782
 6913SOL     OW22512  12.282   8.334  12.866
 6913SOL    HW122513  12.376   8.330  12.881
 6913SOL    HW222514  12.268   8.420  12.826
 6914SOL     OW22515  11.275   4.957   2.291
 6914SOL    HW122516  11.192   4.993   2.263
 6914SOL    HW222517  11.254   4.868   2.320
 6915SOL     OW22518   6.302   0.831   4.413
 6915SOL    HW122519   6.329   0.923   4.413
 6915SOL    HW222520   6.377   0.784   4.376
 6916SOL     OW22521   9.549   0.071   9.605
 6916SOL    HW122522   9.529   0.117   9.524
 6916SOL    HW222523   9.643   0.084   9.618
 6917SOL     OW22524   4.782   5.104   3.805
 6917SOL    HW122525   4.851   5.097   3.871
 6917SOL    HW222526   4.785   5.020   3.759
 6918SOL     OW22527  12.764  13.115   6.842
 6918SOL    HW122528  12.708  13.165   6.782
 6918SOL    HW222529  12.728  13.026   6.839
 6919SOL     OW22530  14.155  13.618   6.732
 6919SOL    HW122531  14.213  13.577   6.796
 6919SOL    HW222532  14.093  13.668   6.784
 6920SOL     OW22533  13.821   9.354  12.665
 6920SOL    HW122534  13.899   9.351  12.721
 6920SOL    HW222535  13.839   9.424  12.602
 6921SOL     OW22536   0.162   4.051   1.981
 6921SOL    HW122537   0.102   4.030   2.053
 6921SOL    HW222538   0.111   4.038   1.902
 6922SOL     OW22539  13.212   1.271   2.704
 6922SOL    HW122540  13.179   1.360   2.707
 6922SOL    HW222541  13.307   1.281   2.695
 6923SOL     OW22542   4.320   4.618   9.699
 6923SOL    HW122543   4.242   4.661   9.734
 6923SOL    HW222544   4.343   4.553   9.765
 6924SOL     OW22545  13.362   0.317   3.734
 6924SOL    HW122546  13.424   0.325   3.662
 6924SOL    HW222547  13.294   0.257   3.701
 6925SOL     OW22548   4.891  12.456  13.885
 6925SOL    HW122549   4.979  12.480  13.857
 6925SOL    HW222550   4.892  12.360  13.885
 6926SOL     OW22551  13.439   9.023   2.038
 6926SOL    HW122552  13.428   9.037   2.132
 6926SOL    HW222553  13.355   9.047   1.999
 6927SOL     OW22554   2.890   6.378   9.363
 6927SOL    HW122555   2.814   6.334   9.400
 6927SOL    HW222556   2.855   6.460   9.326
 6928SOL     OW22557  10.395  10.428   0.252
 6928SOL    HW122558  10.419  10.384   0.171
 6928SOL    HW222559  10.476  10.430   0.304
 6929SOL     OW22560  14.704  12.482   4.814
 6929SOL    HW122561  14.766  12.554   4.827
 6929SOL    HW222562  14.668  12.498   4.727
 6930SOL     OW22563   0.052   8.610   8.782
 6930SOL    HW122564   0.122   8.595   8.847
 6930SOL    HW222565   0.019   8.698   8.802
 6931SOL     OW22566  14.232   5.293  10.178
 6931SOL    HW122567  14.255   5.229  10.112
 6931SOL    HW222568  14.155   5.338  10.142
 6932SOL     OW22569   1.719   7.933  12.420
 6932SOL    HW122570   1.782   8.004  12.419
 6932SOL    HW222571   1.699   7.919  12.512
 6933SOL     OW22572   4.204   7.210   8.503
 6933SOL    HW122573   4.137   7.240   8.441
 6933SOL    HW222574   4.221   7.286   8.557
 6934SOL     OW22575  10.944   0.752   5.301
 6934SOL    HW122576  10.999   0.781   5.373
 6934SOL    HW222577  10.932   0.658   5.315
 6935SOL     OW22578  12.016  13.526   9.584
 6935SOL    HW122579  11.976  13.523   9.497
 6935SOL    HW222580  11.977  13.602   9.626
 6936SOL     OW22581   8.010   4.400  12.836
 6936SOL    HW122582   7.945   4.334  12.858
 6936SOL    HW222583   8.082   4.384  12.898
 6937SOL     OW22584   8.088  13.623   2.044
 6937SOL    HW122585   8.166  13.624   1.989
 6937SOL    HW222586   8.016  13.648   1.985
 6938SOL     OW22587  13.035  10.772   5.838
 6938SOL    HW122588  13.020  10.713   5.912
 6938SOL    HW222589  12.951  10.774   5.791
 6939SOL     OW22590  12.465   9.734   6.280
 6939SOL    HW122591  12.555   9.768   6.277
 6939SOL    HW222592  12.419   9.793   6.338
 6940SOL     OW22593   7.671   3.295   8.660
 6940SOL    HW122594   7.701   3.213   8.699
 6940SOL    HW222595   7.718   3.301   8.577
 6941SOL     OW22596   6.666  11.623   5.588
 6941SOL    HW122597   6.629  11.614   5.676
 6941SOL    HW222598   6.747  11.573   5.591
 6942SOL     OW22599   7.672   5.058  13.688
 6942SOL    HW122600   7.601   5.043  13.751
 6942SOL    HW222601   7.710   5.142  13.713
 6943SOL     OW22602  12.548   5.892  12.425
 6943SOL    HW122603  12.517   5.976  12.459
 6943SOL    HW222604  12.468   5.841  12.410
 6944SOL     OW22605   1.838   9.093   6.115
 6944SOL    HW122606   1.912   9.050   6.074
 6944SOL    HW222607   1.818   9.167   6.058
 6945SOL     OW22608   9.149   1.456  13.092
 6945SOL    HW122609   9.200   1.401  13.033
 6945SOL    HW222610   9.213   1.516  13.131
 6946SOL     OW22611   0.630   3.939   9.512
 6946SOL    HW122612   0.535   3.939   9.527
 6946SOL    HW222613   0.639   3.952   9.418
 6947SOL     OW22614   0.017  12.425   0.340
 6947SOL    HW122615  14.831  12.489   0.319
 6947SOL    HW222616  14.871  12.388   0.424
 6948SOL     OW22617   3.630   2.193  12.826
 6948SOL    HW122618   3.544   2.174  12.788
 6948SOL    HW222619   3.671   2.107  12.837
 6949SOL     OW22620   4.952   5.677  13.094
 6949SOL    HW122621   4.908   5.636  13.020
 6949SOL    HW222622   4.957   5.770  13.071
 6950SOL     OW22623  11.669   5.499   2.700
 6950SOL    HW122624  11.720   5.420   2.720
 6950SOL    HW222625  11.606   5.506   2.772
 6951SOL     OW22626   0.613  10.803   3.307
 6951SOL    HW122627   0.663  10.733   3.350
 6951SOL    HW222628   0.525  10.795   3.344
 6952SOL     OW22629   8.165  14.285   0.109
 6952SOL    HW122630   8.204  14.320   0.029
 6952SOL    HW222631   8.072  14.274   0.088
 6953SOL     OW22632  10.422   8.980   5.753
 6953SOL    HW122633  10.386   8.891   5.756
 6953SOL    HW222634  10.460   8.993   5.840
 6954SOL     OW22635   2.593   2.683   8.489
 6954SOL    HW122636   2.589   2.591   8.464
 6954SOL    HW222637   2.539   2.728   8.424
 6955SOL     OW22638  10.099   5.776   1.285
 6955SOL    HW122639  10.060   5.711   1.227
 6955SOL    HW222640  10.166   5.729   1.334
 6956SOL     OW22641  11.815   4.484   7.586
 6956SOL    HW122642  11.753   4.528   7.643
 6956SOL    HW222643  11.901   4.503   7.624
 6957SOL     OW22644   7.420   1.699   2.410
 6957SOL    HW122645   7.460   1.784   2.428
 6957SOL    HW222646   7.403   1.662   2.496
 6958SOL     OW22647  10.810   3.119  11.177
 6958SOL    HW122648  10.715   3.130  11.179
 6958SOL    HW222649  10.823   3.024  11.175
 6959SOL     OW22650  12.424   9.681   3.862
 6959SOL    HW122651  12.355   9.678   3.929
 6959SOL    HW222652  12.376   9.675   3.779
 6960SOL     OW22653   2.927   3.548   3.646
 6960SOL    HW122654   3.004   3.547   3.703
 6960SOL    HW222655   2.961   3.524   3.560
 6961SOL     OW22656   3.457   6.870  10.486
 6961SOL    HW122657   3.534   6.820  10.512
 6961SOL    HW222658   3.448   6.853  10.392
 6962SOL     OW22659   7.372   1.389  10.732
 6962SOL    HW122660   7.340   1.380  10.822
 6962SOL    HW222661   7.298   1.427  10.684
 6963SOL     OW22662  12.720  11.857  11.577
 6963SOL    HW122663  12.814  11.845  11.566
 6963SOL    HW222664  12.688  11.773  11.608
 6964SOL     OW22665   7.088   2.069   9.404
 6964SOL    HW122666   7.161   2.019   9.366
 6964SOL    HW222667   7.011   2.041   9.354
 6965SOL     OW22668   5.992   7.996   5.575
 6965SOL    HW122669   6.030   8.082   5.590
 6965SOL    HW222670   6.022   7.944   5.651
 6966SOL     OW22671   4.127   2.780  11.951
 6966SOL    HW122672   4.063   2.728  11.999
 6966SOL    HW222673   4.210   2.733  11.962
 6967SOL     OW22674  10.847  12.520  10.624
 6967SOL    HW122675  10.867  12.430  10.597
 6967SOL    HW222676  10.904  12.574  10.569
 6968SOL     OW22677   7.878  11.098  12.685
 6968SOL    HW122678   7.842  11.017  12.721
 6968SOL    HW222679   7.825  11.116  12.608
 6969SOL     OW22680   7.946   6.344   2.844
 6969SOL    HW122681   7.978   6.398   2.916
 6969SOL    HW222682   7.944   6.255   2.880
 6970SOL     OW22683   7.392   5.290   7.890
 6970SOL    HW122684   7.405   5.229   7.818
 6970SOL    HW222685   7.392   5.235   7.969
 6971SOL     OW22686   4.922   2.054  13.210
 6971SOL    HW122687   4.982   1.992  13.251
 6971SOL    HW222688   4.927   2.035  13.116
 6972SOL     OW22689  14.137   4.293  12.584
 6972SOL    HW122690  14.162   4.214  12.537
 6972SOL    HW222691  14.201   4.300  12.655
 6973SOL     OW22692   2.327  11.796  13.171
 6973SOL    HW122693   2.317  11.702  13.187
 6973SOL    HW222694   2.419  11.806  13.146
 6974SOL     OW22695   6.316  13.617  13.022
 6974SOL    HW122696   6.258  13.693  13.034
 6974SOL    HW222697   6.302  13.592  12.930
 6975SOL     OW22698   8.656  10.624   3.451
 6975SOL    HW122699   8.716  10.691   3.483
 6975SOL    HW222700   8.711  10.548   3.434
 6976SOL     OW22701   3.057   7.927   5.198
 6976SOL    HW122702   3.040   7.987   5.271
 6976SOL    HW222703   3.133   7.965   5.154
 6977SOL     OW22704   7.711   6.430  13.201
 6977SOL    HW122705   7.681   6.485  13.273
 6977SOL    HW222706   7.740   6.491  13.133
 6978SOL     OW22707   4.026  14.207  11.551
 6978SOL    HW122708   4.107  14.247  11.518
 6978SOL    HW222709   4.016  14.243  11.639
 6979SOL     OW22710   6.690   5.812  10.206
 6979SOL    HW122711   6.774   5.767  10.198
 6979SOL    HW222712   6.677   5.820  10.301
 6980SOL     OW22713  13.278   1.523  12.144
 6980SOL    HW122714  13.361   1.496  12.184
 6980SOL    HW222715  13.233   1.441  12.125
 6981SOL     OW22716   6.109   8.564   3.514
 6981SOL    HW122717   6.123   8.629   3.583
 6981SOL    HW222718   6.039   8.508   3.547
 6982SOL     OW22719   3.758   8.380   0.713
 6982SOL    HW122720   3.680   8.431   0.731
 6982SOL    HW222721   3.736   8.291   0.743
 6983SOL     OW22722   6.117  10.984   8.892
 6983SOL    HW122723   6.023  10.972   8.903
 6983SOL    HW222724   6.128  10.999   8.798
 6984SOL     OW22725   5.547   4.869  13.537
 6984SOL    HW122726   5.599   4.799  13.496
 6984SOL    HW222727   5.554   4.852  13.631
 6985SOL     OW22728   8.791   3.230   4.234
 6985SOL    HW122729   8.821   3.319   4.252
 6985SOL    HW222730   8.863   3.189   4.187
 6986SOL     OW22731   4.614   7.893   5.523
 6986SOL    HW122732   4.611   7.832   5.449
 6986SOL    HW222733   4.625   7.837   5.600
 6987SOL     OW22734   5.332   3.155  14.562
 6987SOL    HW122735   5.330   3.251  14.551
 6987SOL    HW222736   5.351   3.122  14.474
 6988SOL     OW22737   8.223   7.699   6.977
 6988SOL    HW122738   8.196   7.791   6.967
 6988SOL    HW222739   8.197   7.657   6.895
 6989SOL     OW22740   4.280   3.044  12.612
 6989SOL    HW122741   4.207   3.073  12.666
 6989SOL    HW222742   4.298   2.955  12.641
 6990SOL     OW22743   4.057   8.809   0.504
 6990SOL    HW122744   4.026   8.793   0.415
 6990SOL    HW222745   4.142   8.851   0.493
 6991SOL     OW22746   7.624   4.331   8.454
 6991SOL    HW122747   7.627   4.367   8.543
 6991SOL    HW222748   7.538   4.289   8.448
 6992SOL     OW22749   8.845  10.044   2.518
 6992SOL    HW122750   8.781  10.113   2.533
 6992SOL    HW222751   8.898  10.076   2.445
 6993SOL     OW22752  12.676   4.150   8.870
 6993SOL    HW122753  12.614   4.141   8.943
 6993SOL    HW222754  12.638   4.098   8.799
 6994SOL     OW22755  10.442  10.963   7.464
 6994SOL    HW122756  10.386  10.905   7.516
 6994SOL    HW222757  10.511  10.906   7.430
 6995SOL     OW22758   7.854  13.354   1.380
 6995SOL    HW122759   7.916  13.281   1.385
 6995SOL    HW222760   7.899  13.427   1.422
 6996SOL     OW22761   7.126   4.321   9.052
 6996SOL    HW122762   7.153   4.338   9.142
 6996SOL    HW222763   7.056   4.384   9.036
 6997SOL     OW22764  11.971   7.676   9.131
 6997SOL    HW122765  11.964   7.598   9.076
 6997SOL    HW222766  11.881   7.708   9.140
 6998SOL     OW22767   9.753   7.828   1.188
 6998SOL    HW122768   9.676   7.875   1.223
 6998SOL    HW222769   9.824   7.892   1.194
 6999SOL     OW22770   7.515  10.820   6.835
 6999SOL    HW122771   7.457  10.800   6.761
 6999SOL    HW222772   7.463  10.877   6.891
 7000SOL     OW22773   6.875   5.099   7.051
 7000SOL    HW122774   6.820   5.031   7.088
 7000SOL    HW222775   6.960   5.086   7.091
 7001SOL     OW22776   7.948   4.518   4.036
 7001SOL    HW122777   8.037   4.485   4.027
 7001SOL    HW222778   7.917   4.529   3.946
 7002SOL     OW22779   0.653   1.765  13.558
 7002SOL    HW122780   0.722   1.718  13.604
 7002SOL    HW222781   0.680   1.763  13.466
 7003SOL     OW22782   5.968  12.437   0.843
 7003SOL    HW122783   6.007  12.433   0.755
 7003SOL    HW222784   5.975  12.348   0.877
 7004SOL     OW22785  12.585   3.068  12.294
 7004SOL    HW122786  12.678   3.065  12.317
 7004SOL    HW222787  12.579   3.135  12.226
 7005SOL     OW22788   1.406   4.770   1.795
 7005SOL    HW122789   1.457   4.699   1.833
 7005SOL    HW222790   1.321   4.767   1.839
 7006SOL     OW22791   6.124   6.866  13.830
 7006SOL    HW122792   6.102   6.842  13.740
 7006SOL    HW222793   6.140   6.782  13.874
 7007SOL     OW22794  11.107   8.019   8.312
 7007SOL    HW122795  11.053   7.940   8.320
 7007SOL    HW222796  11.197   7.987   8.322
 7008SOL     OW22797  10.991  10.877   2.117
 7008SOL    HW122798  10.920  10.885   2.181
 7008SOL    HW222799  10.946  10.869   2.032
 7009SOL     OW22800  12.843  13.829   7.936
 7009SOL    HW122801  12.772  13.846   7.998
 7009SOL    HW222802  12.888  13.752   7.972
 7010SOL     OW22803   2.681   0.725  12.832
 7010SOL    HW122804   2.628   0.787  12.882
 7010SOL    HW222805   2.772   0.746  12.856
 7011SOL     OW22806   3.912   3.102   0.831
 7011SOL    HW122807   3.839   3.133   0.778
 7011SOL    HW222808   3.990   3.126   0.781
 7012SOL     OW22809  12.116   5.794  12.137
 7012SOL    HW122810  12.076   5.881  12.143
 7012SOL    HW222811  12.072   5.753  12.063
 7013SOL     OW22812   7.960   4.508   6.988
 7013SOL    HW122813   8.035   4.527   6.932
 7013SOL    HW222814   7.907   4.447   6.937
 7014SOL     OW22815  13.129  14.771   0.787
 7014SOL    HW122816  13.151  14.742   0.876
 7014SOL    HW222817  13.106  14.690   0.740
 7015SOL     OW22818   5.349   8.167  12.603
 7015SOL    HW122819   5.380   8.121  12.525
 7015SOL    HW222820   5.292   8.235  12.569
 7016SOL     OW22821   5.099  11.548  12.962
 7016SOL    HW122822   5.165  11.543  13.031
 7016SOL    HW222823   5.032  11.484  12.987
 7017SOL     OW22824   5.420   5.871  13.857
 7017SOL    HW122825   5.496   5.825  13.891
 7017SOL    HW222826   5.439   5.883  13.764
 7018SOL     OW22827  10.190   4.090  11.530
 7018SOL    HW122828  10.269   4.121  11.486
 7018SOL    HW222829  10.176   4.153  11.601
 7019SOL     OW22830   0.263  14.506   7.298
 7019SOL    HW122831   0.311  14.571   7.348
 7019SOL    HW222832   0.325  14.433   7.286
 7020SOL     OW22833   1.728   8.609   3.848
 7020SOL    HW122834   1.802   8.660   3.813
 7020SOL    HW222835   1.768   8.528   3.879
 7021SOL     OW22836  11.109   3.633   9.147
 7021SOL    HW122837  11.103   3.556   9.205
 7021SOL    HW222838  11.105   3.708   9.207
 7022SOL     OW22839  10.121   8.499   8.919
 7022SOL    HW122840  10.179   8.566   8.883
 7022SOL    HW222841  10.036   8.517   8.880
 7023SOL     OW22842   1.270   0.351   8.021
 7023SOL    HW122843   1.316   0.416   8.075
 7023SOL    HW222844   1.224   0.403   7.955
 7024SOL     OW22845  14.863  12.294   3.373
 7024SOL    HW122846   0.070  12.286   3.410
 7024SOL    HW222847  14.878  12.300   3.278
 7025SOL     OW22848  14.350   4.801  13.258
 7025SOL    HW122849  14.379   4.840  13.340
 7025SOL    HW222850  14.430   4.770  13.216
 7026SOL     OW22851   0.926   8.869  13.067
 7026SOL    HW122852   0.853   8.872  13.129
 7026SOL    HW222853   0.898   8.927  12.995
 7027SOL     OW22854   4.515   3.927  10.693
 7027SOL    HW122855   4.464   4.000  10.657
 7027SOL    HW222856   4.457   3.885  10.756
 7028SOL     OW22857   1.511   0.709   1.021
 7028SOL    HW122858   1.447   0.766   1.062
 7028SOL    HW222859   1.594   0.730   1.064
 7029SOL     OW22860   8.503  13.193   2.638
 7029SOL    HW122861   8.549  13.241   2.569
 7029SOL    HW222862   8.420  13.168   2.598
 7030SOL     OW22863   5.451   5.097   7.383
 7030SOL    HW122864   5.495   5.011   7.380
 7030SOL    HW222865   5.364   5.078   7.419
 7031SOL     OW22866  11.702   0.223  13.469
 7031SOL    HW122867  11.734   0.313  13.455
 7031SOL    HW222868  11.637   0.231  13.539
 7032SOL     OW22869   7.948  14.587   0.036
 7032SOL    HW122870   7.910  14.658  14.865
 7032SOL    HW222871   8.032  14.568  14.874
 7033SOL     OW22872  12.253  12.363   1.554
 7033SOL    HW122873  12.303  12.418   1.615
 7033SOL    HW222874  12.289  12.275   1.567
 7034SOL     OW22875   5.863   9.936   9.498
 7034SOL    HW122876   5.958   9.934   9.499
 7034SOL    HW222877   5.841   9.994   9.425
 7035SOL     OW22878   1.778  10.360  10.883
 7035SOL    HW122879   1.688  10.389  10.871
 7035SOL    HW222880   1.772  10.265  10.893
 7036SOL     OW22881   9.157  10.347   3.301
 7036SOL    HW122882   9.169  10.265   3.349
 7036SOL    HW222883   9.235  10.354   3.246
 7037SOL     OW22884   7.304   3.111   2.503
 7037SOL    HW122885   7.297   3.144   2.592
 7037SOL    HW222886   7.398   3.107   2.486
 7038SOL     OW22887   8.301   4.398  12.940
 7038SOL    HW122888   8.253   4.471  12.980
 7038SOL    HW222889   8.381   4.438  12.904
 7039SOL     OW22890   2.684   5.637   7.898
 7039SOL    HW122891   2.693   5.729   7.875
 7039SOL    HW222892   2.664   5.636   7.991
 7040SOL     OW22893   2.867  13.133  10.074
 7040SOL    HW122894   2.825  13.173   9.998
 7040SOL    HW222895   2.957  13.116  10.046
 7041SOL     OW22896  14.606  12.762   8.191
 7041SOL    HW122897  14.635  12.804   8.110
 7041SOL    HW222898  14.662  12.685   8.200
 7042SOL     OW22899   3.044   3.353  12.219
 7042SOL    HW122900   3.102   3.385  12.151
 7042SOL    HW222901   3.039   3.424  12.283
 7043SOL     OW22902   0.796  12.269  11.916
 7043SOL    HW122903   0.724  12.260  11.853
 7043SOL    HW222904   0.777  12.205  11.984
 7044SOL     OW22905   2.316  12.845  13.295
 7044SOL    HW122906   2.234  12.813  13.258
 7044SOL    HW222907   2.307  12.940  13.294
 7045SOL     OW22908   4.754   2.385  14.430
 7045SOL    HW122909   4.737   2.443  14.355
 7045SOL    HW222910   4.828   2.426  14.475
 7046SOL     OW22911   8.729   8.874  12.949
 7046SOL    HW122912   8.786   8.809  12.991
 7046SOL    HW222913   8.774   8.957  12.961
 7047SOL     OW22914   2.627   4.051  10.848
 7047SOL    HW122915   2.593   4.013  10.929
 7047SOL    HW222916   2.577   4.008  10.778
 7048SOL     OW22917   9.028   3.313   4.033
 7048SOL    HW122918   9.103   3.283   4.084
 7048SOL    HW222919   9.064   3.377   3.972
 7049SOL     OW22920   5.958   2.092  10.576
 7049SOL    HW122921   5.991   2.019  10.627
 7049SOL    HW222922   6.020   2.163  10.593
 7050SOL     OW22923   4.951  13.815   3.239
 7050SOL    HW122924   4.913  13.874   3.304
 7050SOL    HW222925   4.896  13.736   3.243
 7051SOL     OW22926  11.802   5.623   4.986
 7051SOL    HW122927  11.828   5.637   4.895
 7051SOL    HW222928  11.776   5.531   4.989
 7052SOL     OW22929  11.569   3.497   2.682
 7052SOL    HW122930  11.581   3.590   2.667
 7052SOL    HW222931  11.508   3.469   2.613
 7053SOL     OW22932  12.403   5.803   7.751
 7053SOL    HW122933  12.441   5.870   7.808
 7053SOL    HW222934  12.309   5.821   7.752
 7054SOL     OW22935  13.013  12.843   8.218
 7054SOL    HW122936  12.934  12.798   8.190
 7054SOL    HW222937  13.043  12.890   8.139
 7055SOL     OW22938   2.399  14.018  11.883
 7055SOL    HW122939   2.474  13.969  11.851
 7055SOL    HW222940   2.409  14.105  11.844
 7056SOL     OW22941   7.041   0.133   5.732
 7056SOL    HW122942   7.009   0.222   5.713
 7056SOL    HW222943   6.984   0.076   5.682
 7057SOL     OW22944  12.249   3.774   1.979
 7057SOL    HW122945  12.307   3.823   1.922
 7057SOL    HW222946  12.165   3.818   1.972
 7058SOL     OW22947   1.858   0.411   2.535
 7058SOL    HW122948   1.857   0.440   2.626
 7058SOL    HW222949   1.880   0.318   2.539
 7059SOL     OW22950   9.492   6.738  12.995
 7059SOL    HW122951   9.443   6.760  13.074
 7059SOL    HW222952   9.450   6.790  12.925
 7060SOL     OW22953   0.518   2.153   7.019
 7060SOL    HW122954   0.562   2.086   6.967
 7060SOL    HW222955   0.584   2.183   7.081
 7061SOL     OW22956   9.290   1.221  11.335
 7061SOL    HW122957   9.379   1.187  11.332
 7061SOL    HW222958   9.237   1.147  11.366
 7062SOL     OW22959  13.162  14.215  10.405
 7062SOL    HW122960  13.230  14.250  10.463
 7062SOL    HW222961  13.158  14.276  10.331
 7063SOL     OW22962   0.005   2.914   2.369
 7063SOL    HW122963  14.848   2.834   2.405
 7063SOL    HW222964  14.827   2.984   2.395
 7064SOL     OW22965   1.194  13.235  13.563
 7064SOL    HW122966   1.107  13.204  13.588
 7064SOL    HW222967   1.215  13.303  13.627
 7065SOL     OW22968  12.123   0.341  14.224
 7065SOL    HW122969  12.074   0.354  14.143
 7065SOL    HW222970  12.213   0.328  14.196
 7066SOL     OW22971   4.072   3.115   3.997
 7066SOL    HW122972   4.167   3.124   4.006
 7066SOL    HW222973   4.056   3.020   4.001
 7067SOL     OW22974   5.278   1.737   3.118
 7067SOL    HW122975   5.294   1.683   3.195
 7067SOL    HW222976   5.203   1.695   3.075
 7068SOL     OW22977  11.775   6.420   6.030
 7068SOL    HW122978  11.832   6.490   5.998
 7068SOL    HW222979  11.790   6.348   5.969
 7069SOL     OW22980  13.150   4.794   2.714
 7069SOL    HW122981  13.126   4.824   2.802
 7069SOL    HW222982  13.246   4.790   2.715
 7070SOL     OW22983   0.191   1.984   9.519
 7070SOL    HW122984   0.198   1.943   9.433
 7070SOL    HW222985   0.195   1.911   9.581
 7071SOL     OW22986  11.229   8.594   0.884
 7071SOL    HW122987  11.167   8.615   0.814
 7071SOL    HW222988  11.302   8.655   0.870
 7072SOL     OW22989   5.121   6.851   8.521
 7072SOL    HW122990   5.046   6.796   8.501
 7072SOL    HW222991   5.103   6.934   8.476
 7073SOL     OW22992   0.835   6.467  13.988
 7073SOL    HW122993   0.914   6.463  13.935
 7073SOL    HW222994   0.859   6.520  14.063
 7074SOL     OW22995  11.089  10.321   9.180
 7074SOL    HW122996  11.085  10.410   9.216
 7074SOL    HW222997  11.120  10.268   9.253
 7075SOL     OW22998   6.995  13.992   5.080
 7075SOL    HW122999   6.955  13.962   4.998
 7075SOL    HW223000   7.036  14.076   5.057
 7076SOL     OW23001   4.053   9.337   5.799
 7076SOL    HW123002   4.001   9.281   5.742
 7076SOL    HW223003   4.101   9.395   5.740
 7077SOL     OW23004   4.222   7.485   5.623
 7077SOL    HW123005   4.186   7.558   5.573
 7077SOL    HW223006   4.205   7.507   5.714
 7078SOL     OW23007   2.616  13.270   8.102
 7078SOL    HW123008   2.688  13.331   8.118
 7078SOL    HW223009   2.595  13.234   8.188
 7079SOL     OW23010   2.544   8.835   5.517
 7079SOL    HW123011   2.587   8.898   5.459
 7079SOL    HW223012   2.587   8.752   5.500
 7080SOL     OW23013   0.788  14.217   4.225
 7080SOL    HW123014   0.820  14.256   4.144
 7080SOL    HW223015   0.739  14.140   4.196
 7081SOL     OW23016   2.474  10.802   9.701
 7081SOL    HW123017   2.389  10.776   9.735
 7081SOL    HW223018   2.533  10.730   9.726
 7082SOL     OW23019   1.401   4.166   3.217
 7082SOL    HW123020   1.469   4.099   3.210
 7082SOL    HW223021   1.352   4.143   3.297
 7083SOL     OW23022   3.818   1.618   0.493
 7083SOL    HW123023   3.884   1.686   0.483
 7083SOL    HW223024   3.867   1.540   0.517
 7084SOL     OW23025   9.177   4.608   0.690
 7084SOL    HW123026   9.158   4.644   0.603
 7084SOL    HW223027   9.223   4.526   0.672
 7085SOL     OW23028  11.703  14.561  14.129
 7085SOL    HW123029  11.789  14.595  14.153
 7085SOL    HW223030  11.658  14.635  14.089
 7086SOL     OW23031   0.048  11.380   1.495
 7086SOL    HW123032  14.879  11.306   1.527
 7086SOL    HW223033   0.101  11.343   1.424
 7087SOL     OW23034  12.110  10.269  12.101
 7087SOL    HW123035  12.052  10.313  12.164
 7087SOL    HW223036  12.194  10.263  12.146
 7088SOL     OW23037   9.596  11.069   4.912
 7088SOL    HW123038   9.672  11.126   4.900
 7088SOL    HW223039   9.627  10.982   4.886
 7089SOL     OW23040   7.015  12.554  12.547
 7089SOL    HW123041   6.922  12.569  12.528
 7089SOL    HW223042   7.060  12.584  12.469
 7090SOL     OW23043  11.293  12.489   6.727
 7090SOL    HW123044  11.244  12.544   6.788
 7090SOL    HW223045  11.306  12.545   6.650
 7091SOL     OW23046   6.773   0.321   0.726
 7091SOL    HW123047   6.866   0.324   0.700
 7091SOL    HW223048   6.735   0.399   0.687
 7092SOL     OW23049   5.523  11.590   3.246
 7092SOL    HW123050   5.561  11.618   3.162
 7092SOL    HW223051   5.470  11.513   3.224
 7093SOL     OW23052   2.663  13.056   9.567
 7093SOL    HW123053   2.702  12.980   9.523
 7093SOL    HW223054   2.574  13.061   9.532
 7094SOL     OW23055   0.739   7.723   4.693
 7094SOL    HW123056   0.673   7.674   4.644
 7094SOL    HW223057   0.786   7.773   4.626
 7095SOL     OW23058  10.462   6.890  14.483
 7095SOL    HW123059  10.446   6.822  14.548
 7095SOL    HW223060  10.379   6.937  14.477
 7096SOL     OW23061  10.187   3.589   7.847
 7096SOL    HW123062  10.093   3.602   7.835
 7096SOL    HW223063  10.227   3.665   7.803
 7097SOL     OW23064   6.527   2.272  10.573
 7097SOL    HW123065   6.536   2.228  10.658
 7097SOL    HW223066   6.554   2.362  10.589
 7098SOL     OW23067   0.089  10.929   5.370
 7098SOL    HW123068   0.170  10.973   5.394
 7098SOL    HW223069   0.115  10.840   5.348
 7099SOL     OW23070   9.039   0.486   4.505
 7099SOL    HW123071   9.005   0.546   4.571
 7099SOL    HW223072   9.129   0.517   4.489
 7100SOL     OW23073   4.222   3.360   6.920
 7100SOL    HW123074   4.262   3.299   6.982
 7100SOL    HW223075   4.159   3.307   6.872
 7101SOL     OW23076  12.755   0.075   5.424
 7101SOL    HW123077  12.716   0.136   5.361
 7101SOL    HW223078  12.694   0.001   5.427
 7102SOL     OW23079   4.781   4.382  10.877
 7102SOL    HW123080   4.752   4.291  10.882
 7102SOL    HW223081   4.876   4.376  10.863
 7103SOL     OW23082   6.496   8.172  13.938
 7103SOL    HW123083   6.482   8.085  13.898
 7103SOL    HW223084   6.430   8.177  14.007
 7104SOL     OW23085   2.143   9.190  11.154
 7104SOL    HW123086   2.187   9.192  11.069
 7104SOL    HW223087   2.053   9.163  11.135
 7105SOL     OW23088  11.354   3.975   5.808
 7105SOL    HW123089  11.333   4.068   5.820
 7105SOL    HW223090  11.446   3.975   5.784
 7106SOL     OW23091   8.227  10.694   7.811
 7106SOL    HW123092   8.171  10.632   7.764
 7106SOL    HW223093   8.199  10.687   7.903
 7107SOL     OW23094   9.953  12.565  11.500
 7107SOL    HW123095   9.910  12.637  11.545
 7107SOL    HW223096  10.047  12.584  11.508
 7108SOL     OW23097   8.978   1.601   2.829
 7108SOL    HW123098   8.954   1.632   2.742
 7108SOL    HW223099   9.063   1.559   2.817
 7109SOL     OW23100   1.733  13.910   8.265
 7109SOL    HW123101   1.730  13.897   8.170
 7109SOL    HW223102   1.717  13.823   8.301
 7110SOL     OW23103  14.151   7.086   3.971
 7110SOL    HW123104  14.073   7.056   3.925
 7110SOL    HW223105  14.201   7.134   3.905
 7111SOL     OW23106   4.969   6.745  13.101
 7111SOL    HW123107   4.969   6.702  13.187
 7111SOL    HW223108   4.877   6.755  13.079
 7112SOL     OW23109   6.056   4.216  13.327
 7112SOL    HW123110   6.014   4.215  13.414
 7112SOL    HW223111   5.983   4.202  13.266
 7113SOL     OW23112   5.212   8.022   7.319
 7113SOL    HW123113   5.220   8.057   7.230
 7113SOL    HW223114   5.205   7.928   7.308
 7114SOL     OW23115   3.718   7.738   3.762
 7114SOL    HW123116   3.776   7.662   3.759
 7114SOL    HW223117   3.763   7.805   3.711
 7115SOL     OW23118  10.953   7.856   0.657
 7115SOL    HW123119  10.957   7.945   0.692
 7115SOL    HW223120  10.959   7.867   0.562
 7116SOL     OW23121   8.293  12.110   6.567
 7116SOL    HW123122   8.382  12.102   6.533
 7116SOL    HW223123   8.299  12.081   6.658
 7117SOL     OW23124  10.868   8.393   3.521
 7117SOL    HW123125  10.840   8.342   3.445
 7117SOL    HW223126  10.835   8.345   3.597
 7118SOL     OW23127   7.868  12.793   1.565
 7118SOL    HW123128   7.830  12.751   1.643
 7118SOL    HW223129   7.871  12.723   1.500
 7119SOL     OW23130   0.277  10.417   6.996
 7119SOL    HW123131   0.201  10.374   6.956
 7119SOL    HW223132   0.279  10.386   7.086
 7120SOL     OW23133  13.485  14.004   8.159
 7120SOL    HW123134  13.467  14.098   8.152
 7120SOL    HW223135  13.465  13.970   8.072
 7121SOL     OW23136   8.936  10.904   8.380
 7121SOL    HW123137   8.964  10.884   8.291
 7121SOL    HW223138   9.013  10.887   8.435
 7122SOL     OW23139   5.248  13.941  12.064
 7122SOL    HW123140   5.260  13.980  11.977
 7122SOL    HW223141   5.154  13.949  12.081
 7123SOL     OW23142  13.639   7.249  14.130
 7123SOL    HW123143  13.721   7.211  14.096
 7123SOL    HW223144  13.597   7.287  14.053
 7124SOL     OW23145   5.097  13.551   5.728
 7124SOL    HW123146   5.153  13.531   5.803
 7124SOL    HW223147   5.146  13.518   5.653
 7125SOL     OW23148   9.672   1.069  13.689
 7125SOL    HW123149   9.669   0.974  13.692
 7125SOL    HW223150   9.740   1.089  13.625
 7126SOL     OW23151  11.622   4.208   1.501
 7126SOL    HW123152  11.561   4.162   1.444
 7126SOL    HW223153  11.568   4.234   1.577
 7127SOL     OW23154   3.152   7.408   8.581
 7127SOL    HW123155   3.151   7.336   8.643
 7127SOL    HW223156   3.246   7.426   8.568
 7128SOL     OW23157   0.591   9.914  10.625
 7128SOL    HW123158   0.521   9.874  10.678
 7128SOL    HW223159   0.546   9.950  10.549
 7129SOL     OW23160   0.615   1.156   9.070
 7129SOL    HW123161   0.563   1.212   9.127
 7129SOL    HW223162   0.628   1.208   8.991
 7130SOL     OW23163   2.083   7.359   6.518
 7130SOL    HW123164   2.155   7.389   6.573
 7130SOL    HW223165   2.005   7.367   6.573
 7131SOL     OW23166   2.907   8.844   4.085
 7131SOL    HW123167   2.984   8.813   4.131
 7131SOL    HW223168   2.856   8.891   4.151
 7132SOL     OW23169   7.073   2.371  14.058
 7132SOL    HW123170   7.136   2.389  14.128
 7132SOL    HW223171   7.051   2.279  14.069
 7133SOL     OW23172  13.142   9.298   7.182
 7133SOL    HW123173  13.081   9.369   7.201
 7133SOL    HW223174  13.142   9.244   7.261
 7134SOL     OW23175   6.111  13.999   9.545
 7134SOL    HW123176   6.098  13.977   9.452
 7134SOL    HW223177   6.074  14.087   9.554
 7135SOL     OW23178   7.293   1.056   0.665
 7135SOL    HW123179   7.371   1.008   0.639
 7135SOL    HW223180   7.304   1.143   0.627
 7136SOL     OW23181   7.254   2.486   5.697
 7136SOL    HW123182   7.291   2.428   5.631
 7136SOL    HW223183   7.206   2.552   5.647
 7137SOL     OW23184   6.733  11.037   5.652
 7137SOL    HW123185   6.801  11.009   5.714
 7137SOL    HW223186   6.778  11.094   5.590
 7138SOL     OW23187   0.089   5.405   8.354
 7138SOL    HW123188   0.173   5.381   8.394
 7138SOL    HW223189   0.113   5.452   8.274
 7139SOL     OW23190   0.819   3.856   6.851
 7139SOL    HW123191   0.874   3.925   6.815
 7139SOL    HW223192   0.870   3.776   6.838
 7140SOL     OW23193  11.615   6.671   6.588
 7140SOL    HW123194  11.649   6.611   6.522
 7140SOL    HW223195  11.637   6.630   6.672
 7141SOL     OW23196  13.508   7.435  14.813
 7141SOL    HW123197  13.567   7.382  14.867
 7141SOL    HW223198  13.553   7.445  14.730
 7142SOL     OW23199   7.076   7.042   2.255
 7142SOL    HW123200   7.023   6.963   2.250
 7142SOL    HW223201   7.161   7.017   2.217
 7143SOL     OW23202   3.936  13.242   7.126
 7143SOL    HW123203   3.992  13.318   7.140
 7143SOL    HW223204   3.945  13.223   7.032
 7144SOL     OW23205   5.729   0.541   2.770
 7144SOL    HW123206   5.750   0.634   2.780
 7144SOL    HW223207   5.661   0.538   2.703
 7145SOL     OW23208   3.231  12.851   2.910
 7145SOL    HW123209   3.141  12.820   2.902
 7145SOL    HW223210   3.244  12.909   2.835
 7146SOL     OW23211   3.188   1.578   4.841
 7146SOL    HW123212   3.224   1.589   4.929
 7146SOL    HW223213   3.096   1.556   4.854
 7147SOL     OW23214   1.242  12.726   9.486
 7147SOL    HW123215   1.237  12.747   9.393
 7147SOL    HW223216   1.219  12.807   9.531
 7148SOL     OW23217   8.637  13.746   6.417
 7148SOL    HW123218   8.564  13.755   6.355
 7148SOL    HW223219   8.674  13.834   6.423
 7149SOL     OW23220   6.205   2.020   0.583
 7149SOL    HW123221   6.209   1.936   0.628
 7149SOL    HW223222   6.250   2.006   0.500
 7150SOL     OW23223   0.488   2.943   1.275
 7150SOL    HW123224   0.491   2.995   1.195
 7150SOL    HW223225   0.494   2.852   1.246
 7151SOL     OW23226  12.394   1.206   0.991
 7151SOL    HW123227  12.401   1.116   1.022
 7151SOL    HW223228  12.308   1.210   0.950
 7152SOL     OW23229   2.799  12.123   5.089
 7152SOL    HW123230   2.734  12.149   5.154
 7152SOL    HW223231   2.754  12.133   5.005
 7153SOL     OW23232   3.038   0.072   3.861
 7153SOL    HW123233   3.118   0.020   3.869
 7153SOL    HW223234   3.069   0.163   3.867
 7154SOL     OW23235   0.193  10.654   5.262
 7154SOL    HW123236   0.241  10.576   5.291
 7154SOL    HW223237   0.108  10.621   5.234
 7155SOL     OW23238   5.072  11.171   6.469
 7155SOL    HW123239   4.979  11.195   6.472
 7155SOL    HW223240   5.119  11.253   6.483
 7156SOL     OW23241  11.703   0.003   0.025
 7156SOL    HW123242  11.633   0.011  14.841
 7156SOL    HW223243  11.674   0.057   0.098
 7157SOL     OW23244  10.914  13.598   3.581
 7157SOL    HW123245  10.859  13.650   3.640
 7157SOL    HW223246  10.906  13.508   3.614
 7158SOL     OW23247   3.272  13.942  11.925
 7158SOL    HW123248   3.231  13.856  11.929
 7158SOL    HW223249   3.366  13.923  11.933
 7159SOL     OW23250  12.964   3.311   5.615
 7159SOL    HW123251  12.881   3.315   5.568
 7159SOL    HW223252  13.006   3.231   5.585
 7160SOL     OW23253   3.600   9.589  11.367
 7160SOL    HW123254   3.607   9.501  11.404
 7160SOL    HW223255   3.689   9.608  11.335
 7161SOL     OW23256   0.486  14.175   2.582
 7161SOL    HW123257   0.393  14.180   2.559
 7161SOL    HW223258   0.531  14.163   2.498
 7162SOL     OW23259   8.406   8.300  10.717
 7162SOL    HW123260   8.348   8.374  10.695
 7162SOL    HW223261   8.351   8.223  10.707
 7163SOL     OW23262   7.643   1.444   0.681
 7163SOL    HW123263   7.654   1.484   0.768
 7163SOL    HW223264   7.651   1.350   0.697
 7164SOL     OW23265  11.261   8.956   4.579
 7164SOL    HW123266  11.217   8.878   4.610
 7164SOL    HW223267  11.303   8.929   4.497
 7165SOL     OW23268   6.602  13.912   9.001
 7165SOL    HW123269   6.676  13.854   9.019
 7165SOL    HW223270   6.558  13.872   8.926
 7166SOL     OW23271   3.304  12.348   1.279
 7166SOL    HW123272   3.209  12.350   1.281
 7166SOL    HW223273   3.328  12.266   1.321
 7167SOL     OW23274   1.061  13.939   4.611
 7167SOL    HW123275   1.062  13.954   4.706
 7167SOL    HW223276   0.969  13.921   4.591
 7168SOL     OW23277  10.983  11.901  14.378
 7168SOL    HW123278  11.021  11.839  14.440
 7168SOL    HW223279  11.035  11.981  14.388
 7169SOL     OW23280   8.142  11.600   5.446
 7169SOL    HW123281   8.100  11.686   5.448
 7169SOL    HW223282   8.123  11.566   5.359
 7170SOL     OW23283  13.907   2.234  12.914
 7170SOL    HW123284  13.991   2.276  12.899
 7170SOL    HW223285  13.852   2.264  12.841
 7171SOL     OW23286   8.065   8.528   5.087
 7171SOL    HW123287   8.102   8.495   5.005
 7171SOL    HW223288   7.989   8.473   5.103
 7172SOL     OW23289   5.881   7.992   5.038
 7172SOL    HW123290   5.820   7.930   4.998
 7172SOL    HW223291   5.920   7.943   5.111
 7173SOL     OW23292  14.128  10.042   4.056
 7173SOL    HW123293  14.075  10.113   4.091
 7173SOL    HW223294  14.067   9.989   4.005
 7174SOL     OW23295   0.716   0.054   5.060
 7174SOL    HW123296   0.681   0.023   5.144
 7174SOL    HW223297   0.799   0.007   5.051
 7175SOL     OW23298   4.493  10.087  13.943
 7175SOL    HW123299   4.525  10.176  13.932
 7175SOL    HW223300   4.529  10.039  13.868
 7176SOL     OW23301   0.860   9.849  10.242
 7176SOL    HW123302   0.839   9.790  10.314
 7176SOL    HW223303   0.897   9.926  10.284
 7177SOL     OW23304   8.355   9.593   3.210
 7177SOL    HW123305   8.322   9.653   3.277
 7177SOL    HW223306   8.391   9.649   3.142
 7178SOL     OW23307   7.225   2.433  13.857
 7178SOL    HW123308   7.165   2.380  13.910
 7178SOL    HW223309   7.218   2.521  13.894
 7179SOL     OW23310   9.556  11.331   1.346
 7179SOL    HW123311   9.482  11.377   1.386
 7179SOL    HW223312   9.578  11.383   1.269
 7180SOL     OW23313  12.647   2.483  10.054
 7180SOL    HW123314  12.737   2.479  10.086
 7180SOL    HW223315  12.654   2.463   9.961
 7181SOL     OW23316  10.207   3.541  14.872
 7181SOL    HW123317  10.231   3.566   0.080
 7181SOL    HW223318  10.193   3.446  14.877
 7182SOL     OW23319  12.759   5.421   3.926
 7182SOL    HW123320  12.754   5.423   3.831
 7182SOL    HW223321  12.668   5.422   3.956
 7183SOL     OW23322   7.890   7.818   9.489
 7183SOL    HW123323   7.879   7.753   9.559
 7183SOL    HW223324   7.924   7.895   9.533
 7184SOL     OW23325   8.244   8.627  11.586
 7184SOL    HW123326   8.153   8.602  11.593
 7184SOL    HW223327   8.264   8.670  11.670
 7185SOL     OW23328   0.071   7.418  11.762
 7185SOL    HW123329   0.037   7.400  11.849
 7185SOL    HW223330   0.161   7.447  11.778
 7186SOL     OW23331   7.740  13.204   3.236
 7186SOL    HW123332   7.697  13.176   3.155
 7186SOL    HW223333   7.822  13.155   3.237
 7187SOL     OW23334  10.534   3.797   4.469
 7187SOL    HW123335  10.515   3.735   4.540
 7187SOL    HW223336  10.453   3.847   4.459
 7188SOL     OW23337   1.706   6.273   9.101
 7188SOL    HW123338   1.751   6.194   9.069
 7188SOL    HW223339   1.668   6.247   9.185
 7189SOL     OW23340   2.177   4.435   2.157
 7189SOL    HW123341   2.145   4.417   2.246
 7189SOL    HW223342   2.272   4.436   2.166
 7190SOL     OW23343   8.275  14.603   4.484
 7190SOL    HW123344   8.312  14.641   4.563
 7190SOL    HW223345   8.325  14.522   4.470
 7191SOL     OW23346   1.571   5.491   6.349
 7191SOL    HW123347   1.619   5.541   6.284
 7191SOL    HW223348   1.484   5.479   6.311
 7192SOL     OW23349   3.116   0.314   9.123
 7192SOL    HW123350   3.051   0.252   9.158
 7192SOL    HW223351   3.106   0.392   9.179
 7193SOL     OW23352  12.339   1.725  11.631
 7193SOL    HW123353  12.256   1.747  11.673
 7193SOL    HW223354  12.383   1.667  11.693
 7194SOL     OW23355   7.881  11.279   5.104
 7194SOL    HW123356   7.818  11.206   5.110
 7194SOL    HW223357   7.966  11.236   5.110
 7195SOL     OW23358   4.590   5.739   8.206
 7195SOL    HW123359   4.597   5.652   8.169
 7195SOL    HW223360   4.657   5.742   8.275
 7196SOL     OW23361   8.435  12.221   3.991
 7196SOL    HW123362   8.444  12.133   4.027
 7196SOL    HW223363   8.525  12.250   3.976
 7197SOL     OW23364  14.298   3.953   9.363
 7197SOL    HW123365  14.219   3.936   9.414
 7197SOL    HW223366  14.353   4.005   9.421
 7198SOL     OW23367  11.732   7.125   3.337
 7198SOL    HW123368  11.720   7.035   3.307
 7198SOL    HW223369  11.823   7.129   3.366
 7199SOL     OW23370  10.448   3.836   3.934
 7199SOL    HW123371  10.441   3.765   3.870
 7199SOL    HW223372  10.385   3.813   4.002
 7200SOL     OW23373   6.919   3.493   0.334
 7200SOL    HW123374   6.942   3.542   0.413
 7200SOL    HW223375   6.898   3.559   0.269
 7201SOL     OW23376   5.132  10.639   0.290
 7201SOL    HW123377   5.162  10.665   0.203
 7201SOL    HW223378   5.046  10.681   0.300
 7202SOL     OW23379   0.168   5.970  13.718
 7202SOL    HW123380   0.260   5.946  13.708
 7202SOL    HW223381   0.159   6.051  13.668
 7203SOL     OW23382   3.019  10.999  10.474
 7203SOL    HW123383   3.108  10.966  10.484
 7203SOL    HW223384   3.005  11.053  10.553
 7204SOL     OW23385  11.868   5.724   1.464
 7204SOL    HW123386  11.952   5.712   1.508
 7204SOL    HW223387  11.806   5.673   1.516
 7205SOL     OW23388   7.020   2.601   8.192
 7205SOL    HW123389   7.031   2.507   8.179
 7205SOL    HW223390   7.011   2.611   8.287
 7206SOL     OW23391  14.659   9.810  12.999
 7206SOL    HW123392  14.672   9.718  13.022
 7206SOL    HW223393  14.739   9.854  13.027
 7207SOL     OW23394   3.123   5.651  11.199
 7207SOL    HW123395   3.073   5.727  11.230
 7207SOL    HW223396   3.200   5.689  11.156
 7208SOL     OW23397   3.442   7.849  13.765
 7208SOL    HW123398   3.367   7.844  13.705
 7208SOL    HW223399   3.513   7.803  13.719
 7209SOL     OW23400  14.829   9.405  10.855
 7209SOL    HW123401   0.015   9.469  10.875
 7209SOL    HW223402  14.866   9.352  10.785
 7210SOL     OW23403   3.101  11.872   6.684
 7210SOL    HW123404   3.183  11.911   6.716
 7210SOL    HW223405   3.035  11.939   6.699
 7211SOL     OW23406   2.405  14.668  13.731
 7211SOL    HW123407   2.500  14.657  13.724
 7211SOL    HW223408   2.376  14.689  13.642
 7212SOL     OW23409   1.166   4.688   1.932
 7212SOL    HW123410   1.120   4.721   2.009
 7212SOL    HW223411   1.107   4.623   1.895
 7213SOL     OW23412   9.305   1.868  11.097
 7213SOL    HW123413   9.332   1.959  11.110
 7213SOL    HW223414   9.385   1.817  11.105
 7214SOL     OW23415   4.327   6.056   5.111
 7214SOL    HW123416   4.329   5.984   5.048
 7214SOL    HW223417   4.252   6.109   5.085
 7215SOL     OW23418   1.693   0.892  10.799
 7215SOL    HW123419   1.705   0.797  10.802
 7215SOL    HW223420   1.605   0.904  10.764
 7216SOL     OW23421  12.761   5.310   4.874
 7216SOL    HW123422  12.709   5.373   4.922
 7216SOL    HW223423  12.700   5.271   4.811
 7217SOL     OW23424   2.415   7.530  14.859
 7217SOL    HW123425   2.354   7.595  14.825
 7217SOL    HW223426   2.417   7.461  14.793
 7218SOL     OW23427  14.150   1.933   7.635
 7218SOL    HW123428  14.111   1.919   7.722
 7218SOL    HW223429  14.127   1.854   7.586
 7219SOL     OW23430   0.728   1.275   9.615
 7219SOL    HW123431   0.789   1.290   9.543
 7219SOL    HW223432   0.714   1.181   9.617
 7220SOL     OW23433   3.877   2.109  12.303
 7220SOL    HW123434   3.814   2.180  12.314
 7220SOL    HW223435   3.909   2.119  12.213
 7221SOL     OW23436  11.596  13.823   3.580
 7221SOL    HW123437  11.500  13.820   3.585
 7221SOL    HW223438  11.616  13.915   3.562
 7222SOL     OW23439   2.554   6.871  11.798
 7222SOL    HW123440   2.507   6.852  11.717
 7222SOL    HW223441   2.587   6.786  11.827
 7223SOL     OW23442  14.027   6.962  12.446
 7223SOL    HW123443  13.954   6.939  12.502
 7223SOL    HW223444  14.042   6.885  12.391
 7224SOL     OW23445   5.643   8.955   8.458
 7224SOL    HW123446   5.574   8.964   8.393
 7224SOL    HW223447   5.647   8.861   8.476
 7225SOL     OW23448   4.744  13.727   4.855
 7225SOL    HW123449   4.732  13.811   4.900
 7225SOL    HW223450   4.660  13.710   4.813
 7226SOL     OW23451  13.906   5.314   1.389
 7226SOL    HW123452  13.825   5.285   1.429
 7226SOL    HW223453  13.884   5.328   1.297
 7227SOL     OW23454   1.965  10.662   1.487
 7227SOL    HW123455   1.986  10.745   1.531
 7227SOL    HW223456   1.874  10.671   1.460
 7228SOL     OW23457  13.524  11.692   1.467
 7228SOL    HW123458  13.435  11.669   1.494
 7228SOL    HW223459  13.537  11.646   1.384
 7229SOL     OW23460   3.336  10.548   8.655
 7229SOL    HW123461   3.397  10.603   8.606
 7229SOL    HW223462   3.274  10.610   8.693
 7230SOL     OW23463  11.179   7.259  10.836
 7230SOL    HW123464  11.227   7.181  10.864
 7230SOL    HW223465  11.154   7.240  10.745
 7231SOL     OW23466   5.639   0.976   7.179
 7231SOL    HW123467   5.599   0.953   7.095
 7231SOL    HW223468   5.699   1.048   7.157
 7232SOL     OW23469  11.207  12.282   1.455
 7232SOL    HW123470  11.290  12.291   1.503
 7232SOL    HW223471  11.232  12.285   1.363
 7233SOL     OW23472   0.390  12.671   7.157
 7233SOL    HW123473   0.349  12.603   7.104
 7233SOL    HW223474   0.331  12.681   7.232
 7234SOL     OW23475   0.239   6.695   1.673
 7234SOL    HW123476   0.242   6.748   1.593
 7234SOL    HW223477   0.150   6.659   1.675
 7235SOL     OW23478  10.804   8.077   5.263
 7235SOL    HW123479  10.768   8.110   5.345
 7235SOL    HW223480  10.855   8.000   5.288
 7236SOL     OW23481   8.671   9.237   5.023
 7236SOL    HW123482   8.599   9.249   4.961
 7236SOL    HW223483   8.635   9.264   5.108
 7237SOL     OW23484   3.347   4.816   2.844
 7237SOL    HW123485   3.307   4.886   2.793
 7237SOL    HW223486   3.403   4.861   2.908
 7238SOL     OW23487   1.100   3.643   8.928
 7238SOL    HW123488   1.156   3.685   8.993
 7238SOL    HW223489   1.017   3.690   8.933
 7239SOL     OW23490   1.200   7.511   9.614
 7239SOL    HW123491   1.169   7.600   9.634
 7239SOL    HW223492   1.126   7.470   9.569
 7240SOL     OW23493   7.058   6.417  10.296
 7240SOL    HW123494   7.056   6.479  10.222
 7240SOL    HW223495   7.003   6.458  10.363
 7241SOL     OW23496   2.193   7.110  14.132
 7241SOL    HW123497   2.280   7.149  14.134
 7241SOL    HW223498   2.170   7.099  14.225
 7242SOL     OW23499   9.801   6.167   7.626
 7242SOL    HW123500   9.873   6.140   7.568
 7242SOL    HW223501   9.731   6.104   7.608
 7243SOL     OW23502  14.440   3.294  13.082
 7243SOL    HW123503  14.466   3.329  13.167
 7243SOL    HW223504  14.508   3.229  13.061
 7244SOL     OW23505  11.574   8.428   1.821
 7244SOL    HW123506  11.496   8.400   1.773
 7244SOL    HW223507  11.647   8.391   1.773
 7245SOL     OW23508  13.533   9.295   3.093
 7245SOL    HW123509  13.584   9.340   3.026
 7245SOL    HW223510  13.460   9.255   3.046
 7246SOL     OW23511   9.432  12.631   6.049
 7246SOL    HW123512   9.478  12.548   6.036
 7246SOL    HW223513   9.440  12.677   5.965
 7247SOL     OW23514   2.367  11.881   8.525
 7247SOL    HW123515   2.356  11.960   8.472
 7247SOL    HW223516   2.453  11.847   8.499
 7248SOL     OW23517  10.903   8.800  10.564
 7248SOL    HW123518  10.867   8.718  10.530
 7248SOL    HW223519  10.993   8.778  10.590
 7249SOL     OW23520   9.224   4.143  13.303
 7249SOL    HW123521   9.289   4.127  13.372
 7249SOL    HW223522   9.142   4.157  13.351
 7250SOL     OW23523  12.849   8.943  11.067
 7250SOL    HW123524  12.859   8.914  10.976
 7250SOL    HW223525  12.755   8.957  11.078
 7251SOL     OW23526   7.986  11.295  13.071
 7251SOL    HW123527   7.893  11.314  13.054
 7251SOL    HW223528   8.019  11.373  13.115
 7252SOL     OW23529   3.212   4.242  12.392
 7252SOL    HW123530   3.244   4.331  12.408
 7252SOL    HW223531   3.201   4.206  12.480
 7253SOL     OW23532   3.161   2.006   9.717
 7253SOL    HW123533   3.107   2.035   9.643
 7253SOL    HW223534   3.201   1.925   9.687
 7254SOL     OW23535  11.783   2.692  10.239
 7254SOL    HW123536  11.734   2.769  10.269
 7254SOL    HW223537  11.730   2.657  10.167
 7255SOL     OW23538  12.724  14.648   4.359
 7255SOL    HW123539  12.784  14.699   4.305
 7255SOL    HW223540  12.725  14.561   4.321
 7256SOL     OW23541   4.477   2.902   5.899
 7256SOL    HW123542   4.480   2.832   5.834
 7256SOL    HW223543   4.559   2.950   5.888
 7257SOL     OW23544  10.520  11.286   8.709
 7257SOL    HW123545  10.546  11.350   8.775
 7257SOL    HW223546  10.456  11.230   8.754
 7258SOL     OW23547   6.456   7.443   3.551
 7258SOL    HW123548   6.408   7.360   3.545
 7258SOL    HW223549   6.465   7.472   3.460
 7259SOL     OW23550   7.808  10.777   2.149
 7259SOL    HW123551   7.828  10.865   2.116
 7259SOL    HW223552   7.858  10.770   2.230
 7260SOL     OW23553   6.457  10.454  13.581
 7260SOL    HW123554   6.538  10.438  13.629
 7260SOL    HW223555   6.417  10.367  13.573
 7261SOL     OW23556  14.059   6.462  14.680
 7261SOL    HW123557  14.135   6.459  14.739
 7261SOL    HW223558  14.058   6.377  14.636
 7262SOL     OW23559   2.662   8.105  11.037
 7262SOL    HW123560   2.671   8.017  11.002
 7262SOL    HW223561   2.748   8.145  11.025
 7263SOL     OW23562   6.111   0.895   4.108
 7263SOL    HW123563   6.020   0.874   4.089
 7263SOL    HW223564   6.115   0.990   4.108
 7264SOL     OW23565  13.161  11.491   4.493
 7264SOL    HW123566  13.233  11.428   4.498
 7264SOL    HW223567  13.193  11.568   4.540
 7265SOL     OW23568   3.843   0.136   3.465
 7265SOL    HW123569   3.838   0.201   3.536
 7265SOL    HW223570   3.814   0.183   3.387
 7266SOL     OW23571  12.262  11.800   6.099
 7266SOL    HW123572  12.338  11.849   6.129
 7266SOL    HW223573  12.187  11.849   6.133
 7267SOL     OW23574   1.093  11.580   7.767
 7267SOL    HW123575   1.096  11.553   7.675
 7267SOL    HW223576   1.161  11.526   7.809
 7268SOL     OW23577   5.597   6.671   4.438
 7268SOL    HW123578   5.680   6.717   4.455
 7268SOL    HW223579   5.567   6.643   4.525
 7269SOL     OW23580  10.204   1.651   3.788
 7269SOL    HW123581  10.278   1.623   3.733
 7269SOL    HW223582  10.243   1.663   3.875
 7270SOL     OW23583   0.834   8.581   7.067
 7270SOL    HW123584   0.811   8.638   7.140
 7270SOL    HW223585   0.928   8.566   7.076
 7271SOL     OW23586   7.266   7.548  11.367
 7271SOL    HW123587   7.226   7.585  11.288
 7271SOL    HW223588   7.269   7.621  11.429
 7272SOL     OW23589   6.508  12.901  13.615
 7272SOL    HW123590   6.599  12.873  13.602
 7272SOL    HW223591   6.464  12.821  13.645
 7273SOL     OW23592   9.576  10.880  13.655
 7273SOL    HW123593   9.509  10.883  13.587
 7273SOL    HW223594   9.540  10.822  13.722
 7274SOL     OW23595   1.333   6.068   7.145
 7274SOL    HW123596   1.381   6.117   7.078
 7274SOL    HW223597   1.402   6.030   7.200
 7275SOL     OW23598   8.679   1.638   0.995
 7275SOL    HW123599   8.659   1.549   1.022
 7275SOL    HW223600   8.775   1.639   0.985
 7276SOL     OW23601  11.502  10.858   2.417
 7276SOL    HW123602  11.568  10.848   2.485
 7276SOL    HW223603  11.423  10.885   2.464
 7277SOL     OW23604  13.558   2.949  13.055
 7277SOL    HW123605  13.522   2.929  13.142
 7277SOL    HW223606  13.643   2.905  13.054
 7278SOL     OW23607   0.569   6.040   8.901
 7278SOL    HW123608   0.503   6.025   8.833
 7278SOL    HW223609   0.651   6.049   8.852
 7279SOL     OW23610   7.166   0.705   7.720
 7279SOL    HW123611   7.215   0.632   7.758
 7279SOL    HW223612   7.077   0.694   7.755
 7280SOL     OW23613  14.119   1.280   5.666
 7280SOL    HW123614  14.197   1.321   5.702
 7280SOL    HW223615  14.143   1.188   5.653
 7281SOL     OW23616  13.648  12.529  14.754
 7281SOL    HW123617  13.719  12.492  14.806
 7281SOL    HW223618  13.621  12.457  14.696
 7282SOL     OW23619  11.914   8.448  14.788
 7282SOL    HW123620  11.822   8.448  14.811
 7282SOL    HW223621  11.925   8.372  14.731
 7283SOL     OW23622   6.508   0.471  13.591
 7283SOL    HW123623   6.479   0.443  13.505
 7283SOL    HW223624   6.493   0.566  13.593
 7284SOL     OW23625   8.463   8.601  14.055
 7284SOL    HW123626   8.468   8.639  13.967
 7284SOL    HW223627   8.541   8.635  14.100
 7285SOL     OW23628   1.528   9.238   2.200
 7285SOL    HW123629   1.524   9.148   2.168
 7285SOL    HW223630   1.583   9.284   2.136
 7286SOL     OW23631   8.541  11.234  12.697
 7286SOL    HW123632   8.490  11.313  12.717
 7286SOL    HW223633   8.478  11.163  12.701
 7287SOL     OW23634  13.942  12.665   9.011
 7287SOL    HW123635  13.968  12.752   9.043
 7287SOL    HW223636  13.915  12.618   9.090
 7288SOL     OW23637  12.102   0.984   0.212
 7288SOL    HW123638  12.123   0.991   0.306
 7288SOL    HW223639  12.009   1.004   0.207
 7289SOL     OW23640   1.339  11.744   5.795
 7289SOL    HW123641   1.287  11.768   5.872
 7289SOL    HW223642   1.331  11.819   5.737
 7290SOL     OW23643   9.515  13.356   9.132
 7290SOL    HW123644   9.603  13.379   9.162
 7290SOL    HW223645   9.522  13.354   9.037
 7291SOL     OW23646  12.525   8.322   3.439
 7291SOL    HW123647  12.553   8.333   3.530
 7291SOL    HW223648  12.558   8.236   3.414
 7292SOL     OW23649   7.721   7.967  13.589
 7292SOL    HW123650   7.670   8.018  13.526
 7292SOL    HW223651   7.753   7.892  13.539
 7293SOL     OW23652   8.606   0.672  13.770
 7293SOL    HW123653   8.695   0.693  13.796
 7293SOL    HW223654   8.611   0.657  13.675
 7294SOL     OW23655   4.471   9.595  10.631
 7294SOL    HW123656   4.439   9.517  10.587
 7294SOL    HW223657   4.452   9.580  10.724
 7295SOL     OW23658  10.839   5.868  11.327
 7295SOL    HW123659  10.836   5.907  11.415
 7295SOL    HW223660  10.914   5.910  11.285
 7296SOL     OW23661   3.731   1.984   9.208
 7296SOL    HW123662   3.798   1.932   9.163
 7296SOL    HW223663   3.694   2.040   9.140
 7297SOL     OW23664   4.646   5.981   4.093
 7297SOL    HW123665   4.576   5.920   4.068
 7297SOL    HW223666   4.673   5.953   4.180
 7298SOL     OW23667   5.652  10.823  11.098
 7298SOL    HW123668   5.717  10.884  11.133
 7298SOL    HW223669   5.649  10.842  11.004
 7299SOL     OW23670   4.780   4.312   3.653
 7299SOL    HW123671   4.711   4.245   3.662
 7299SOL    HW223672   4.761   4.374   3.723
 7300SOL     OW23673   4.903  14.133  13.069
 7300SOL    HW123674   4.847  14.150  12.993
 7300SOL    HW223675   4.940  14.219  13.091
 7301SOL     OW23676  14.326  11.406   1.978
 7301SOL    HW123677  14.401  11.357   1.947
 7301SOL    HW223678  14.286  11.442   1.899
 7302SOL     OW23679   6.742  13.337  10.754
 7302SOL    HW123680   6.814  13.308  10.810
 7302SOL    HW223681   6.774  13.417  10.712
 7303SOL     OW23682   9.783   9.142  14.302
 7303SOL    HW123683   9.868   9.098  14.309
 7303SOL    HW223684   9.779   9.199  14.379
 7304SOL     OW23685   3.053   1.133   7.368
 7304SOL    HW123686   3.042   1.115   7.461
 7304SOL    HW223687   3.063   1.228   7.362
 7305SOL     OW23688  11.300   8.245   4.328
 7305SOL    HW123689  11.235   8.175   4.333
 7305SOL    HW223690  11.253   8.323   4.357
 7306SOL     OW23691  11.096  11.591   0.548
 7306SOL    HW123692  11.089  11.659   0.615
 7306SOL    HW223693  11.045  11.624   0.474
 7307SOL     OW23694  12.315  11.246   7.792
 7307SOL    HW123695  12.361  11.191   7.728
 7307SOL    HW223696  12.232  11.201   7.807
 7308SOL     OW23697   7.935   1.545  13.343
 7308SOL    HW123698   7.901   1.461  13.373
 7308SOL    HW223699   7.874   1.609  13.379
 7309SOL     OW23700  14.717  14.277  11.447
 7309SOL    HW123701  14.713  14.286  11.542
 7309SOL    HW223702  14.632  14.240  11.423
 7310SOL     OW23703   9.406   1.234   6.854
 7310SOL    HW123704   9.492   1.274   6.869
 7310SOL    HW223705   9.350   1.306   6.827
 7311SOL     OW23706   9.590  11.730   8.177
 7311SOL    HW123707   9.599  11.768   8.264
 7311SOL    HW223708   9.664  11.766   8.127
 7312SOL     OW23709   5.459   8.252   5.541
 7312SOL    HW123710   5.434   8.163   5.567
 7312SOL    HW223711   5.379   8.290   5.504
 7313SOL     OW23712   0.012  14.212   3.253
 7313SOL    HW123713  14.852  14.262   3.324
 7313SOL    HW223714  14.824  14.156   3.219
 7314SOL     OW23715  11.638  14.724   2.821
 7314SOL    HW123716  11.700  14.795   2.834
 7314SOL    HW223717  11.689  14.644   2.833
 7315SOL     OW23718   6.938   4.143   4.796
 7315SOL    HW123719   6.847   4.139   4.766
 7315SOL    HW223720   6.990   4.143   4.716
 7316SOL     OW23721  12.288   4.537   2.492
 7316SOL    HW123722  12.353   4.466   2.490
 7316SOL    HW223723  12.204   4.491   2.496
 7317SOL     OW23724  10.083   4.500  13.430
 7317SOL    HW123725  10.145   4.479  13.499
 7317SOL    HW223726  10.022   4.561  13.471
 7318SOL     OW23727   8.757   8.636   2.634
 7318SOL    HW123728   8.744   8.616   2.726
 7318SOL    HW223729   8.782   8.553   2.594
 7319SOL     OW23730   7.834  14.843   8.655
 7319SOL    HW123731   7.850   0.051   8.624
 7319SOL    HW223732   7.921  14.811   8.680
 7320SOL     OW23733   0.934   5.090  13.674
 7320SOL    HW123734   0.939   5.090  13.578
 7320SOL    HW223735   1.022   5.067  13.702
 7321SOL     OW23736   1.969  11.748   3.988
 7321SOL    HW123737   1.944  11.815   4.052
 7321SOL    HW223738   1.967  11.666   4.036
 7322SOL     OW23739  10.239   5.380   6.843
 7322SOL    HW123740  10.212   5.386   6.934
 7322SOL    HW223741  10.157   5.389   6.793
 7323SOL     OW23742  13.822   6.660  14.279
 7323SOL    HW123743  13.845   6.567  14.284
 7323SOL    HW223744  13.726   6.661  14.285
 7324SOL     OW23745  14.079   0.430  12.360
 7324SOL    HW123746  14.025   0.454  12.285
 7324SOL    HW223747  14.039   0.476  12.434
 7325SOL     OW23748  11.568   5.021   3.120
 7325SOL    HW123749  11.603   4.994   3.205
 7325SOL    HW223750  11.592   4.950   3.061
 7326SOL     OW23751   4.996  13.000   9.605
 7326SOL    HW123752   4.957  12.939   9.543
 7326SOL    HW223753   4.994  13.084   9.561
 7327SOL     OW23754   2.202   3.967   6.278
 7327SOL    HW123755   2.276   4.026   6.293
 7327SOL    HW223756   2.203   3.907   6.352
 7328SOL     OW23757   0.860   2.787  11.302
 7328SOL    HW123758   0.804   2.752  11.371
 7328SOL    HW223759   0.801   2.800  11.228
 7329SOL     OW23760   6.534   4.776  11.198
 7329SOL    HW123761   6.500   4.774  11.287
 7329SOL    HW223762   6.550   4.868  11.180
 7330SOL     OW23763  12.604   7.831   1.128
 7330SOL    HW123764  12.654   7.892   1.074
 7330SOL    HW223765  12.537   7.885   1.170
 7331SOL     OW23766   9.977   4.835   1.723
 7331SOL    HW123767  10.002   4.910   1.776
 7331SOL    HW223768   9.910   4.868   1.664
 7332SOL     OW23769   1.394  10.093   0.318
 7332SOL    HW123770   1.394  10.187   0.302
 7332SOL    HW223771   1.447  10.083   0.398
 7333SOL     OW23772  13.317  10.099   4.274
 7333SOL    HW123773  13.244  10.070   4.329
 7333SOL    HW223774  13.287  10.183   4.239
 7334SOL     OW23775   7.112   1.000   1.178
 7334SOL    HW123776   7.089   0.942   1.250
 7334SOL    HW223777   7.192   1.045   1.208
 7335SOL     OW23778  12.753  12.834   1.602
 7335SOL    HW123779  12.698  12.852   1.526
 7335SOL    HW223780  12.842  12.855   1.574
 7336SOL     OW23781  13.178  10.509   6.240
 7336SOL    HW123782  13.258  10.495   6.189
 7336SOL    HW223783  13.187  10.449   6.314
 7337SOL     OW23784  10.590   3.162   5.123
 7337SOL    HW123785  10.577   3.201   5.209
 7337SOL    HW223786  10.523   3.093   5.118
 7338SOL     OW23787   0.961  12.728   8.913
 7338SOL    HW123788   0.941  12.791   8.983
 7338SOL    HW223789   0.966  12.782   8.834
 7339SOL     OW23790  11.575   9.496   1.820
 7339SOL    HW123791  11.563   9.556   1.894
 7339SOL    HW223792  11.528   9.417   1.845
 7340SOL     OW23793   0.810   1.601   2.294
 7340SOL    HW123794   0.730   1.569   2.336
 7340SOL    HW223795   0.821   1.544   2.218
 7341SOL     OW23796   9.425  13.970  13.621
 7341SOL    HW123797   9.347  13.951  13.569
 7341SOL    HW223798   9.467  13.885  13.634
 7342SOL     OW23799   3.157   6.000  13.162
 7342SOL    HW123800   3.118   5.940  13.226
 7342SOL    HW223801   3.104   5.989  13.083
 7343SOL     OW23802  12.861  13.270   2.106
 7343SOL    HW123803  12.814  13.187   2.113
 7343SOL    HW223804  12.920  13.257   2.032
 7344SOL     OW23805  13.640   3.169  12.513
 7344SOL    HW123806  13.692   3.140  12.588
 7344SOL    HW223807  13.703   3.207  12.452
 7345SOL     OW23808   7.607   1.944  12.329
 7345SOL    HW123809   7.655   2.010  12.379
 7345SOL    HW223810   7.536   1.916  12.387
 7346SOL     OW23811  12.083  12.852   8.502
 7346SOL    HW123812  12.095  12.802   8.583
 7346SOL    HW223813  12.084  12.944   8.530
 7347SOL     OW23814   5.068  13.732   4.639
 7347SOL    HW123815   5.068  13.827   4.634
 7347SOL    HW223816   4.976  13.708   4.640
 7348SOL     OW23817   7.921   1.808   4.837
 7348SOL    HW123818   7.956   1.775   4.920
 7348SOL    HW223819   7.951   1.899   4.832
 7349SOL     OW23820  10.784   7.593   6.274
 7349SOL    HW123821  10.719   7.611   6.206
 7349SOL    HW223822  10.749   7.517   6.321
 7350SOL     OW23823   6.484   1.670  11.973
 7350SOL    HW123824   6.425   1.623  12.032
 7350SOL    HW223825   6.458   1.761  11.979
 7351SOL     OW23826  12.051   5.808   9.204
 7351SOL    HW123827  11.964   5.836   9.176
 7351SOL    HW223828  12.041   5.715   9.225
 7352SOL     OW23829  14.419   8.530  12.862
 7352SOL    HW123830  14.452   8.512  12.774
 7352SOL    HW223831  14.458   8.615  12.884
 7353SOL     OW23832  10.899   4.193   3.274
 7353SOL    HW123833  10.961   4.231   3.212
 7353SOL    HW223834  10.934   4.216   3.360
 7354SOL     OW23835   3.520   2.163   0.618
 7354SOL    HW123836   3.463   2.109   0.672
 7354SOL    HW223837   3.607   2.150   0.654
 7355SOL     OW23838   1.942   2.330  11.336
 7355SOL    HW123839   1.853   2.348  11.368
 7355SOL    HW223840   1.987   2.415  11.341
 7356SOL     OW23841  11.537   4.876   4.325
 7356SOL    HW123842  11.567   4.801   4.376
 7356SOL    HW223843  11.459   4.907   4.371
 7357SOL     OW23844  12.250   4.548   5.783
 7357SOL    HW123845  12.286   4.633   5.808
 7357SOL    HW223846  12.156   4.562   5.776
 7358SOL     OW23847   3.815   2.259   5.943
 7358SOL    HW123848   3.787   2.260   6.035
 7358SOL    HW223849   3.784   2.343   5.908
 7359SOL     OW23850   2.734   9.039   7.685
 7359SOL    HW123851   2.799   9.009   7.622
 7359SOL    HW223852   2.697   8.958   7.722
 7360SOL     OW23853   4.777   0.905  11.981
 7360SOL    HW123854   4.705   0.948  11.935
 7360SOL    HW223855   4.764   0.811  11.964
 7361SOL     OW23856   0.046   6.643  12.722
 7361SOL    HW123857   0.029   6.551  12.702
 7361SOL    HW223858   0.067   6.643  12.816
 7362SOL     OW23859   1.465  13.057   9.941
 7362SOL    HW123860   1.416  13.139   9.950
 7362SOL    HW223861   1.489  13.053   9.849
 7363SOL     OW23862  11.718   3.998   2.093
 7363SOL    HW123863  11.624   3.990   2.076
 7363SOL    HW223864  11.725   3.995   2.189
 7364SOL     OW23865  10.930   9.917   5.720
 7364SOL    HW123866  10.969   9.834   5.748
 7364SOL    HW223867  10.886   9.950   5.799
 7365SOL     OW23868   4.574   2.062   3.752
 7365SOL    HW123869   4.595   2.146   3.713
 7365SOL    HW223870   4.659   2.023   3.772
 7366SOL     OW23871  11.183  10.096  14.326
 7366SOL    HW123872  11.230  10.148  14.261
 7366SOL    HW223873  11.130  10.035  14.274
 7367SOL     OW23874  14.148   2.170   8.632
 7367SOL    HW123875  14.122   2.089   8.589
 7367SOL    HW223876  14.154   2.234   8.561
 7368SOL     OW23877   6.225   5.734  11.850
 7368SOL    HW123878   6.156   5.667  11.848
 7368SOL    HW223879   6.291   5.701  11.789
 7369SOL     OW23880   0.299  13.901   3.299
 7369SOL    HW123881   0.261  13.879   3.384
 7369SOL    HW223882   0.393  13.911   3.316
 7370SOL     OW23883   4.220  11.563   2.584
 7370SOL    HW123884   4.312  11.579   2.606
 7370SOL    HW223885   4.215  11.581   2.490
 7371SOL     OW23886  12.715  10.250   8.832
 7371SOL    HW123887  12.647  10.310   8.802
 7371SOL    HW223888  12.668  10.181   8.878
 7372SOL     OW23889   4.456   2.327   4.103
 7372SOL    HW123890   4.490   2.407   4.065
 7372SOL    HW223891   4.476   2.334   4.196
 7373SOL     OW23892  12.474   4.265  13.888
 7373SOL    HW123893  12.532   4.341  13.897
 7373SOL    HW223894  12.413   4.272  13.962
 7374SOL     OW23895  13.654   9.325   7.938
 7374SOL    HW123896  13.563   9.339   7.964
 7374SOL    HW223897  13.682   9.250   7.990
 7375SOL     OW23898   3.709   3.781  11.032
 7375SOL    HW123899   3.726   3.728  10.954
 7375SOL    HW223900   3.630   3.743  11.070
 7376SOL     OW23901   3.098   8.312  12.880
 7376SOL    HW123902   3.092   8.351  12.793
 7376SOL    HW223903   3.140   8.378  12.933
 7377SOL     OW23904   2.869   2.254   3.030
 7377SOL    HW123905   2.862   2.298   3.114
 7377SOL    HW223906   2.923   2.313   2.977
 7378SOL     OW23907   7.843   4.063   1.495
 7378SOL    HW123908   7.860   3.995   1.561
 7378SOL    HW223909   7.906   4.045   1.426
 7379SOL     OW23910   3.274   2.049   6.230
 7379SOL    HW123911   3.247   2.102   6.156
 7379SOL    HW223912   3.342   2.100   6.273
 7380SOL     OW23913  11.300   6.448  11.719
 7380SOL    HW123914  11.319   6.369  11.770
 7380SOL    HW223915  11.205   6.444  11.706
 7381SOL     OW23916  13.827  10.531  10.356
 7381SOL    HW123917  13.864  10.579  10.282
 7381SOL    HW223918  13.903  10.487  10.396
 7382SOL     OW23919   7.957   3.795   2.941
 7382SOL    HW123920   7.964   3.852   3.018
 7382SOL    HW223921   7.876   3.746   2.955
 7383SOL     OW23922   0.893   2.905  10.052
 7383SOL    HW123923   0.966   2.958  10.084
 7383SOL    HW223924   0.883   2.835  10.117
 7384SOL     OW23925   8.433   0.649   0.752
 7384SOL    HW123926   8.340   0.671   0.748
 7384SOL    HW223927   8.470   0.689   0.673
 7385SOL     OW23928  12.542   1.675  13.485
 7385SOL    HW123929  12.460   1.697  13.442
 7385SOL    HW223930  12.601   1.748  13.463
 7386SOL     OW23931   1.754  13.629   1.853
 7386SOL    HW123932   1.712  13.543   1.853
 7386SOL    HW223933   1.686  13.689   1.884
 7387SOL     OW23934  11.813  11.992   6.290
 7387SOL    HW123935  11.773  12.069   6.249
 7387SOL    HW223936  11.777  11.918   6.241
 7388SOL     OW23937   9.783  10.315   9.152
 7388SOL    HW123938   9.774  10.378   9.081
 7388SOL    HW223939   9.780  10.229   9.110
 7389SOL     OW23940   9.472   1.815   1.886
 7389SOL    HW123941   9.423   1.896   1.899
 7389SOL    HW223942   9.432   1.775   1.809
 7390SOL     OW23943   8.590   3.066  11.736
 7390SOL    HW123944   8.639   3.038  11.659
 7390SOL    HW223945   8.657   3.103  11.795
 7391SOL     OW23946   9.686  10.573   8.591
 7391SOL    HW123947   9.637  10.491   8.588
 7391SOL    HW223948   9.629  10.634   8.638
 7392SOL     OW23949   2.484  13.698  10.736
 7392SOL    HW123950   2.485  13.793  10.749
 7392SOL    HW223951   2.556  13.681  10.675
 7393SOL     OW23952  10.684   7.570   3.343
 7393SOL    HW123953  10.701   7.626   3.419
 7393SOL    HW223954  10.651   7.489   3.381
 7394SOL     OW23955   6.488  14.418  14.427
 7394SOL    HW123956   6.507  14.510  14.444
 7394SOL    HW223957   6.520  14.403  14.339
 7395SOL     OW23958   0.718   6.608  12.886
 7395SOL    HW123959   0.726   6.613  12.791
 7395SOL    HW223960   0.629   6.573  12.900
 7396SOL     OW23961  13.866   7.594  11.858
 7396SOL    HW123962  13.849   7.567  11.768
 7396SOL    HW223963  13.938   7.656  11.852
 7397SOL     OW23964   9.800   6.478   2.512
 7397SOL    HW123965   9.753   6.459   2.431
 7397SOL    HW223966   9.744   6.539   2.560
 7398SOL     OW23967  12.631  12.008   0.820
 7398SOL    HW123968  12.720  12.014   0.854
 7398SOL    HW223969  12.642  11.999   0.725
 7399SOL     OW23970   2.879  13.058   6.840
 7399SOL    HW123971   2.841  13.073   6.926
 7399SOL    HW223972   2.862  13.138   6.791
 7400SOL     OW23973   4.979  12.993   9.216
 7400SOL    HW123974   4.959  12.922   9.277
 7400SOL    HW223975   4.970  13.073   9.268
 7401SOL     OW23976   6.407  13.951  12.958
 7401SOL    HW123977   6.324  13.905  12.942
 7401SOL    HW223978   6.411  13.959  13.053
 7402SOL     OW23979   5.735   8.885   4.168
 7402SOL    HW123980   5.662   8.875   4.229
 7402SOL    HW223981   5.802   8.825   4.200
 7403SOL     OW23982  14.530   7.625   6.341
 7403SOL    HW123983  14.457   7.608   6.401
 7403SOL    HW223984  14.499   7.592   6.256
 7404SOL     OW23985   4.788  11.094  13.292
 7404SOL    HW123986   4.878  11.110  13.317
 7404SOL    HW223987   4.775  11.146  13.213
 7405SOL     OW23988   2.530  13.829   3.444
 7405SOL    HW123989   2.468  13.875   3.501
 7405SOL    HW223990   2.512  13.863   3.356
 7406SOL     OW23991   7.094   3.023   4.661
 7406SOL    HW123992   7.010   3.015   4.708
 7406SOL    HW223993   7.134   2.936   4.669
 7407SOL     OW23994   9.988  13.801  12.940
 7407SOL    HW123995   9.942  13.759  12.867
 7407SOL    HW223996  10.059  13.741  12.961
 7408SOL     OW23997   8.241  10.091  14.043
 7408SOL    HW123998   8.304  10.124  14.107
 7408SOL    HW223999   8.278  10.007  14.015
 7409SOL     OW24000  12.379   0.848   5.679
 7409SOL    HW124001  12.383   0.753   5.671
 7409SOL    HW224002  12.330   0.876   5.602
 7410SOL     OW24003   6.700   6.835  13.862
 7410SOL    HW124004   6.611   6.807  13.842
 7410SOL    HW224005   6.689   6.908  13.923
 7411SOL     OW24006   9.602   4.324  13.152
 7411SOL    HW124007   9.622   4.417  13.165
 7411SOL    HW224008   9.635   4.280  13.230
 7412SOL     OW24009   1.393   5.182   4.231
 7412SOL    HW124010   1.342   5.125   4.174
 7412SOL    HW224011   1.331   5.212   4.297
 7413SOL     OW24012   7.105   3.813   1.906
 7413SOL    HW124013   7.071   3.836   1.993
 7413SOL    HW224014   7.051   3.740   1.878
 7414SOL     OW24015  11.951   1.385  10.551
 7414SOL    HW124016  12.042   1.354  10.552
 7414SOL    HW224017  11.940   1.430  10.635
 7415SOL     OW24018   9.617  10.766   3.523
 7415SOL    HW124019   9.577  10.706   3.460
 7415SOL    HW224020   9.634  10.846   3.473
 7416SOL     OW24021  12.355   6.670   3.444
 7416SOL    HW124022  12.393   6.584   3.457
 7416SOL    HW224023  12.289   6.658   3.375
 7417SOL     OW24024   8.073   6.368   6.470
 7417SOL    HW124025   8.140   6.429   6.439
 7417SOL    HW224026   8.111   6.282   6.458
 7418SOL     OW24027   7.244   7.970   5.818
 7418SOL    HW124028   7.152   7.951   5.799
 7418SOL    HW224029   7.287   7.967   5.733
 7419SOL     OW24030   1.639  14.034  14.769
 7419SOL    HW124031   1.711  14.065  14.714
 7419SOL    HW224032   1.662  14.065  14.857
 7420SOL     OW24033   6.554  12.085  14.069
 7420SOL    HW124034   6.619  12.023  14.103
 7420SOL    HW224035   6.600  12.169  14.067
 7421SOL     OW24036   2.845  11.925   9.649
 7421SOL    HW124037   2.814  11.861   9.713
 7421SOL    HW224038   2.766  11.973   9.624
 7422SOL     OW24039   6.027   7.856   3.813
 7422SOL    HW124040   6.062   7.941   3.840
 7422SOL    HW224041   5.972   7.828   3.887
 7423SOL     OW24042  12.176  10.962   5.358
 7423SOL    HW124043  12.166  11.035   5.297
 7423SOL    HW224044  12.089  10.949   5.395
 7424SOL     OW24045  10.929  14.232   5.584
 7424SOL    HW124046  10.893  14.230   5.495
 7424SOL    HW224047  11.012  14.185   5.577
 7425SOL     OW24048   1.178   4.698   0.477
 7425SOL    HW124049   1.264   4.667   0.507
 7425SOL    HW224050   1.173   4.787   0.510
 7426SOL     OW24051   0.328   9.537  14.498
 7426SOL    HW124052   0.387   9.585  14.557
 7426SOL    HW224053   0.336   9.446  14.525
 7427SOL     OW24054  10.549   4.859   9.543
 7427SOL    HW124055  10.463   4.818   9.550
 7427SOL    HW224056  10.541   4.941   9.593
 7428SOL     OW24057   4.646   3.617  10.493
 7428SOL    HW124058   4.687   3.536  10.521
 7428SOL    HW224059   4.587   3.641  10.565
 7429SOL     OW24060   7.955   9.222  14.631
 7429SOL    HW124061   8.029   9.249  14.577
 7429SOL    HW224062   7.951   9.127  14.621
 7430SOL     OW24063   3.800   6.654   5.860
 7430SOL    HW124064   3.815   6.616   5.773
 7430SOL    HW224065   3.873   6.716   5.871
 7431SOL     OW24066   1.216   5.680   0.574
 7431SOL    HW124067   1.200   5.653   0.664
 7431SOL    HW224068   1.153   5.629   0.522
 7432SOL     OW24069   4.108   3.232  13.594
 7432SOL    HW124070   4.096   3.142  13.625
 7432SOL    HW224071   4.137   3.222  13.503
 7433SOL     OW24072   2.943   8.741   6.425
 7433SOL    HW124073   2.880   8.739   6.354
 7433SOL    HW224074   2.902   8.797   6.492
 7434SOL     OW24075  10.593  10.224  12.590
 7434SOL    HW124076  10.555  10.143  12.623
 7434SOL    HW224077  10.678  10.231  12.634
 7435SOL     OW24078   1.587  12.881  14.738
 7435SOL    HW124079   1.504  12.895  14.693
 7435SOL    HW224080   1.647  12.852  14.669
 7436SOL     OW24081  10.452  13.330  13.628
 7436SOL    HW124082  10.360  13.353  13.612
 7436SOL    HW224083  10.459  13.239  13.600
 7437SOL     OW24084   5.231  14.437   8.956
 7437SOL    HW124085   5.303  14.456   9.016
 7437SOL    HW224086   5.269  14.376   8.893
 7438SOL     OW24087   0.188   0.105  10.543
 7438SOL    HW124088   0.247   0.177  10.564
 7438SOL    HW224089   0.102   0.134  10.575
 7439SOL     OW24090   6.521  14.418   0.350
 7439SOL    HW124091   6.547  14.454   0.265
 7439SOL    HW224092   6.603  14.399   0.394
 7440SOL     OW24093  11.465   7.722   1.295
 7440SOL    HW124094  11.382   7.734   1.248
 7440SOL    HW224095  11.495   7.811   1.314
 7441SOL     OW24096   7.639  10.030  14.232
 7441SOL    HW124097   7.632   9.942  14.195
 7441SOL    HW224098   7.602  10.023  14.320
 7442SOL     OW24099   8.203  10.956   4.053
 7442SOL    HW124100   8.198  11.049   4.033
 7442SOL    HW224101   8.166  10.912   3.976
 7443SOL     OW24102  11.734   7.236   2.302
 7443SOL    HW124103  11.792   7.191   2.364
 7443SOL    HW224104  11.788   7.247   2.224
 7444SOL     OW24105   6.152  11.346   0.037
 7444SOL    HW124106   6.114  11.260   0.017
 7444SOL    HW224107   6.246  11.329   0.044
 7445SOL     OW24108  12.489  13.820  11.602
 7445SOL    HW124109  12.576  13.783  11.613
 7445SOL    HW224110  12.439  13.788  11.677
 7446SOL     OW24111   9.873  10.937   8.896
 7446SOL    HW124112   9.858  10.922   8.802
 7446SOL    HW224113   9.796  10.986   8.925
 7447SOL     OW24114  14.095  14.407  13.779
 7447SOL    HW124115  14.182  14.379  13.810
 7447SOL    HW224116  14.045  14.326  13.771
 7448SOL     OW24117   0.313  10.163   5.386
 7448SOL    HW124118   0.236  10.122   5.426
 7448SOL    HW224119   0.385  10.143   5.447
 7449SOL     OW24120  12.339  13.577   1.580
 7449SOL    HW124121  12.309  13.506   1.635
 7449SOL    HW224122  12.404  13.623   1.633
 7450SOL     OW24123   7.469  14.718   4.842
 7450SOL    HW124124   7.441  14.782   4.907
 7450SOL    HW224125   7.443  14.755   4.758
 7451SOL     OW24126   1.280  14.873   1.906
 7451SOL    HW124127   1.259   0.083   1.926
 7451SOL    HW224128   1.323  14.876   1.821
 7452SOL     OW24129   2.259   1.027   8.670
 7452SOL    HW124130   2.180   0.973   8.662
 7452SOL    HW224131   2.331   0.963   8.678
 7453SOL     OW24132  11.679   3.931  13.082
 7453SOL    HW124133  11.763   3.906  13.044
 7453SOL    HW224134  11.672   4.025  13.064
 7454SOL     OW24135   1.804  11.685   3.523
 7454SOL    HW124136   1.788  11.699   3.617
 7454SOL    HW224137   1.774  11.596   3.506
 7455SOL     OW24138  14.271   7.584   4.659
 7455SOL    HW124139  14.341   7.631   4.613
 7455SOL    HW224140  14.281   7.608   4.751
 7456SOL     OW24141   6.549   1.591   3.265
 7456SOL    HW124142   6.484   1.569   3.198
 7456SOL    HW224143   6.521   1.677   3.298
 7457SOL     OW24144   7.326   1.718   5.286
 7457SOL    HW124145   7.291   1.799   5.249
 7457SOL    HW224146   7.348   1.740   5.377
 7458SOL     OW24147   3.604   9.246   5.806
 7458SOL    HW124148   3.665   9.236   5.880
 7458SOL    HW224149   3.520   9.215   5.840
 7459SOL     OW24150  14.149   0.337   3.487
 7459SOL    HW124151  14.212   0.269   3.461
 7459SOL    HW224152  14.190   0.380   3.562
 7460SOL     OW24153   8.377   7.653   5.840
 7460SOL    HW124154   8.360   7.654   5.746
 7460SOL    HW224155   8.472   7.657   5.848
 7461SOL     OW24156  11.475  14.227   5.746
 7461SOL    HW124157  11.388  14.209   5.782
 7461SOL    HW224158  11.485  14.165   5.674
 7462SOL     OW24159  13.551   1.029   6.874
 7462SOL    HW124160  13.557   1.034   6.969
 7462SOL    HW224161  13.628   1.077   6.843
 7463SOL     OW24162   1.510   3.161  10.122
 7463SOL    HW124163   1.533   3.070  10.140
 7463SOL    HW224164   1.592   3.202  10.096
 7464SOL     OW24165   9.880   0.589   9.058
 7464SOL    HW124166   9.867   0.645   9.135
 7464SOL    HW224167   9.971   0.605   9.032
 7465SOL     OW24168   4.638  10.393   3.505
 7465SOL    HW124169   4.623  10.300   3.486
 7465SOL    HW224170   4.564  10.418   3.561
 7466SOL     OW24171  13.891   7.201  13.996
 7466SOL    HW124172  13.922   7.114  13.972
 7466SOL    HW224173  13.935   7.260  13.934
 7467SOL     OW24174  14.515   2.593   2.841
 7467SOL    HW124175  14.437   2.637   2.806
 7467SOL    HW224176  14.514   2.507   2.798
 7468SOL     OW24177   5.063  13.385   7.440
 7468SOL    HW124178   5.036  13.332   7.364
 7468SOL    HW224179   5.003  13.359   7.509
 7469SOL     OW24180   0.173  10.208   2.940
 7469SOL    HW124181   0.163  10.241   3.029
 7469SOL    HW224182   0.084  10.213   2.903
 7470SOL     OW24183   0.208   3.332  12.860
 7470SOL    HW124184   0.293   3.289  12.859
 7470SOL    HW224185   0.185   3.337  12.953
 7471SOL     OW24186  12.466   6.782   1.468
 7471SOL    HW124187  12.384   6.763   1.422
 7471SOL    HW224188  12.459   6.734   1.551
 7472SOL     OW24189   3.856   7.720   5.594
 7472SOL    HW124190   3.830   7.682   5.678
 7472SOL    HW224191   3.782   7.776   5.570
 7473SOL     OW24192   2.951   8.960   2.792
 7473SOL    HW124193   2.973   8.898   2.862
 7473SOL    HW224194   2.980   9.045   2.825
 7474SOL     OW24195   6.251   9.278   7.492
 7474SOL    HW124196   6.168   9.276   7.445
 7474SOL    HW224197   6.240   9.217   7.565
 7475SOL     OW24198  10.978  13.277   0.797
 7475SOL    HW124199  10.890  13.283   0.760
 7475SOL    HW224200  11.000  13.184   0.792
 7476SOL     OW24201  13.586  12.760   1.531
 7476SOL    HW124202  13.589  12.665   1.539
 7476SOL    HW224203  13.498  12.778   1.497
 7477SOL     OW24204   9.741   3.544  11.628
 7477SOL    HW124205   9.722   3.624  11.678
 7477SOL    HW224206   9.703   3.474  11.681
 7478SOL     OW24207   3.266   2.515   3.226
 7478SOL    HW124208   3.205   2.442   3.218
 7478SOL    HW224209   3.353   2.475   3.225
 7479SOL     OW24210  10.578   9.576   7.722
 7479SOL    HW124211  10.563   9.625   7.641
 7479SOL    HW224212  10.490   9.548   7.749
 7480SOL     OW24213  13.642   1.731  14.454
 7480SOL    HW124214  13.587   1.795  14.500
 7480SOL    HW224215  13.580   1.676  14.407
 7481SOL     OW24216   3.925   6.044   7.373
 7481SOL    HW124217   3.976   6.045   7.293
 7481SOL    HW224218   3.942   5.958   7.412
 7482SOL     OW24219  12.341   1.632   6.521
 7482SOL    HW124220  12.406   1.697   6.495
 7482SOL    HW224221  12.345   1.631   6.617
 7483SOL     OW24222   0.842   3.713  11.594
 7483SOL    HW124223   0.794   3.771  11.653
 7483SOL    HW224224   0.877   3.771  11.526
 7484SOL     OW24225   3.917   2.681  11.061
 7484SOL    HW124226   3.994   2.724  11.098
 7484SOL    HW224227   3.843   2.720  11.108
 7485SOL     OW24228   3.546   8.372  12.400
 7485SOL    HW124229   3.466   8.372  12.452
 7485SOL    HW224230   3.587   8.288  12.419
 7486SOL     OW24231   6.150   3.550   7.627
 7486SOL    HW124232   6.074   3.607   7.628
 7486SOL    HW224233   6.171   3.540   7.534
 7487SOL     OW24234  10.322  10.284   7.722
 7487SOL    HW124235  10.405  10.318   7.689
 7487SOL    HW224236  10.261  10.296   7.649
 7488SOL     OW24237   8.255   6.796  13.149
 7488SOL    HW124238   8.285   6.848  13.223
 7488SOL    HW224239   8.199   6.856  13.098
 7489SOL     OW24240  13.439   9.249  11.412
 7489SOL    HW124241  13.520   9.199  11.420
 7489SOL    HW224242  13.456   9.311  11.341
 7490SOL     OW24243  11.086   7.788   9.606
 7490SOL    HW124244  11.010   7.846   9.605
 7490SOL    HW224245  11.054   7.706   9.569
 7491SOL     OW24246   9.259  12.316   1.377
 7491SOL    HW124247   9.212  12.298   1.459
 7491SOL    HW224248   9.216  12.261   1.312
 7492SOL     OW24249   6.386  10.614  12.741
 7492SOL    HW124250   6.400  10.684  12.803
 7492SOL    HW224251   6.304  10.572  12.769
 7493SOL     OW24252   2.238   7.951  10.313
 7493SOL    HW124253   2.272   8.018  10.372
 7493SOL    HW224254   2.251   7.987  10.225
 7494SOL     OW24255   7.530   2.519   5.098
 7494SOL    HW124256   7.519   2.514   5.003
 7494SOL    HW224257   7.566   2.606   5.113
 7495SOL     OW24258   0.412   3.962   5.192
 7495SOL    HW124259   0.456   3.905   5.130
 7495SOL    HW224260   0.435   3.926   5.278
 7496SOL     OW24261  13.737   4.703   8.347
 7496SOL    HW124262  13.744   4.625   8.292
 7496SOL    HW224263  13.681   4.676   8.420
 7497SOL     OW24264   3.961   4.670   2.553
 7497SOL    HW124265   4.047   4.640   2.525
 7497SOL    HW224266   3.948   4.629   2.639
 7498SOL     OW24267   9.839   1.330   6.045
 7498SOL    HW124268   9.921   1.380   6.043
 7498SOL    HW224269   9.864   1.246   6.084
 7499SOL     OW24270   2.408   6.676   3.545
 7499SOL    HW124271   2.492   6.668   3.500
 7499SOL    HW224272   2.344   6.646   3.481
 7500SOL     OW24273  13.201   7.616   4.146
 7500SOL    HW124274  13.243   7.596   4.229
 7500SOL    HW224275  13.162   7.533   4.118
 7501SOL     OW24276  10.316  13.035   7.311
 7501SOL    HW124277  10.349  12.984   7.385
 7501SOL    HW224278  10.349  13.124   7.327
 7502SOL     OW24279  10.804   9.900  14.786
 7502SOL    HW124280  10.753   9.855  14.719
 7502SOL    HW224281  10.894   9.891  14.757
 7503SOL     OW24282  11.224   0.071   8.145
 7503SOL    HW124283  11.176   0.152   8.127
 7503SOL    HW224284  11.224   0.024   8.062
 7504SOL     OW24285   5.325   5.677   8.427
 7504SOL    HW124286   5.315   5.712   8.515
 7504SOL    HW224287   5.297   5.586   8.434
 7505SOL     OW24288   7.543   9.273   1.372
 7505SOL    HW124289   7.456   9.304   1.347
 7505SOL    HW224290   7.583   9.245   1.291
 7506SOL     OW24291   8.409   1.677   2.171
 7506SOL    HW124292   8.331   1.660   2.119
 7506SOL    HW224293   8.448   1.591   2.185
 7507SOL     OW24294   6.467   8.606  13.384
 7507SOL    HW124295   6.525   8.681  13.371
 7507SOL    HW224296   6.379   8.643  13.383
 7508SOL     OW24297  12.978  11.503   6.823
 7508SOL    HW124298  12.990  11.538   6.735
 7508SOL    HW224299  13.041  11.550   6.877
 7509SOL     OW24300   3.552   4.775   5.583
 7509SOL    HW124301   3.523   4.710   5.646
 7509SOL    HW224302   3.616   4.729   5.528
 7510SOL     OW24303   4.337   7.388   7.695
 7510SOL    HW124304   4.417   7.435   7.719
 7510SOL    HW224305   4.354   7.298   7.722
 7511SOL     OW24306   0.860   4.473   7.940
 7511SOL    HW124307   0.885   4.380   7.944
 7511SOL    HW224308   0.800   4.479   7.866
 7512SOL     OW24309   1.987   6.756  13.882
 7512SOL    HW124310   1.984   6.664  13.858
 7512SOL    HW224311   2.062   6.763  13.941
 7513SOL     OW24312   1.100   5.712   2.627
 7513SOL    HW124313   1.048   5.639   2.661
 7513SOL    HW224314   1.057   5.790   2.661
 7514SOL     OW24315   0.777   1.208   5.739
 7514SOL    HW124316   0.768   1.302   5.724
 7514SOL    HW224317   0.722   1.168   5.671
 7515SOL     OW24318   7.717   5.161   4.332
 7515SOL    HW124319   7.649   5.226   4.349
 7515SOL    HW224320   7.761   5.149   4.417
 7516SOL     OW24321  14.221   9.811   3.765
 7516SOL    HW124322  14.248   9.776   3.849
 7516SOL    HW224323  14.140   9.764   3.744
 7517SOL     OW24324  12.494   6.187   6.366
 7517SOL    HW124325  12.427   6.256   6.362
 7517SOL    HW224326  12.531   6.185   6.278
 7518SOL     OW24327  10.428   4.876   6.710
 7518SOL    HW124328  10.392   4.965   6.715
 7518SOL    HW224329  10.404   4.836   6.793
 7519SOL     OW24330   2.537   5.057   2.112
 7519SOL    HW124331   2.625   5.029   2.137
 7519SOL    HW224332   2.479   4.989   2.147
 7520SOL     OW24333   1.551   9.457  10.613
 7520SOL    HW124334   1.591   9.511  10.545
 7520SOL    HW224335   1.467   9.500  10.630
 7521SOL     OW24336   1.828  14.083   0.999
 7521SOL    HW124337   1.827  14.047   0.910
 7521SOL    HW224338   1.880  14.021   1.050
 7522SOL     OW24339   9.455   1.566   5.460
 7522SOL    HW124340   9.363   1.539   5.464
 7522SOL    HW224341   9.480   1.555   5.368
 7523SOL     OW24342   6.883  10.282   3.385
 7523SOL    HW124343   6.796  10.280   3.345
 7523SOL    HW224344   6.908  10.190   3.392
 7524SOL     OW24345   6.276   1.917   2.778
 7524SOL    HW124346   6.307   1.984   2.840
 7524SOL    HW224347   6.333   1.928   2.702
 7525SOL     OW24348  12.629  13.515   2.872
 7525SOL    HW124349  12.600  13.424   2.869
 7525SOL    HW224350  12.718  13.511   2.907
 7526SOL     OW24351  11.503  11.082  11.108
 7526SOL    HW124352  11.473  11.122  11.189
 7526SOL    HW224353  11.481  11.146  11.040
 7527SOL     OW24354  12.447   3.814  12.893
 7527SOL    HW124355  12.480   3.762  12.966
 7527SOL    HW224356  12.520   3.818  12.832
 7528SOL     OW24357   6.780  12.570   3.374
 7528SOL    HW124358   6.719  12.623   3.323
 7528SOL    HW224359   6.803  12.497   3.317
 7529SOL     OW24360   2.073   1.499   5.891
 7529SOL    HW124361   2.161   1.466   5.875
 7529SOL    HW224362   2.059   1.485   5.984
 7530SOL     OW24363  10.040   2.336  13.607
 7530SOL    HW124364  10.018   2.405  13.669
 7530SOL    HW224365  10.098   2.277  13.656
 7531SOL     OW24366   6.161   5.182   0.477
 7531SOL    HW124367   6.147   5.087   0.476
 7531SOL    HW224368   6.083   5.217   0.433
 7532SOL     OW24369  13.624   4.589  13.531
 7532SOL    HW124370  13.678   4.647  13.584
 7532SOL    HW224371  13.686   4.544  13.473
 7533SOL     OW24372   6.632   1.024   3.817
 7533SOL    HW124373   6.694   0.974   3.869
 7533SOL    HW224374   6.591   1.084   3.879
 7534SOL     OW24375   0.746   8.681   5.760
 7534SOL    HW124376   0.692   8.659   5.684
 7534SOL    HW224377   0.822   8.726   5.723
 7535SOL     OW24378   4.114  14.491   6.182
 7535SOL    HW124379   4.152  14.563   6.232
 7535SOL    HW224380   4.036  14.529   6.141
 7536SOL     OW24381   5.075  11.161  13.731
 7536SOL    HW124382   5.058  11.079  13.686
 7536SOL    HW224383   4.988  11.191  13.759
 7537SOL     OW24384   7.822   3.383   1.310
 7537SOL    HW124385   7.871   3.432   1.375
 7537SOL    HW224386   7.752   3.443   1.282
 7538SOL     OW24387   0.089   6.128   4.990
 7538SOL    HW124388   0.178   6.092   4.993
 7538SOL    HW224389   0.054   6.112   5.078
 7539SOL     OW24390   9.239   0.852   9.389
 7539SOL    HW124391   9.319   0.804   9.406
 7539SOL    HW224392   9.177   0.785   9.357
 7540SOL     OW24393   7.045   7.869   4.356
 7540SOL    HW124394   7.034   7.787   4.308
 7540SOL    HW224395   7.055   7.936   4.288
 7541SOL     OW24396  11.865  11.166  13.134
 7541SOL    HW124397  11.887  11.181  13.042
 7541SOL    HW224398  11.852  11.254  13.170
 7542SOL     OW24399   2.331   8.331   0.931
 7542SOL    HW124400   2.293   8.274   0.997
 7542SOL    HW224401   2.256   8.375   0.891
 7543SOL     OW24402   5.530   8.584  12.958
 7543SOL    HW124403   5.549   8.615  13.047
 7543SOL    HW224404   5.582   8.642  12.902
 7544SOL     OW24405  11.632   4.215  11.975
 7544SOL    HW124406  11.694   4.228  11.904
 7544SOL    HW224407  11.683   4.176  12.046
 7545SOL     OW24408   4.060   6.503   3.289
 7545SOL    HW124409   4.133   6.468   3.340
 7545SOL    HW224410   4.055   6.445   3.213
 7546SOL     OW24411  12.698   4.318   3.676
 7546SOL    HW124412  12.698   4.353   3.765
 7546SOL    HW224413  12.643   4.379   3.627
 7547SOL     OW24414   6.989   7.979   8.387
 7547SOL    HW124415   7.047   7.957   8.313
 7547SOL    HW224416   6.901   7.969   8.351
 7548SOL     OW24417  14.100   2.079   1.818
 7548SOL    HW124418  14.079   2.121   1.901
 7548SOL    HW224419  14.055   2.132   1.752
 7549SOL     OW24420  10.644   2.495  10.996
 7549SOL    HW124421  10.684   2.501  11.082
 7549SOL    HW224422  10.690   2.561  10.943
 7550SOL     OW24423  13.401  12.950   5.104
 7550SOL    HW124424  13.424  12.857   5.103
 7550SOL    HW224425  13.403  12.976   5.012
 7551SOL     OW24426  14.690   2.908   1.467
 7551SOL    HW124427  14.658   2.820   1.447
 7551SOL    HW224428  14.747   2.897   1.542
 7552SOL     OW24429   0.976  13.791   5.419
 7552SOL    HW124430   1.070  13.787   5.431
 7552SOL    HW224431   0.940  13.798   5.507
 7553SOL     OW24432   2.747  14.314  14.460
 7553SOL    HW124433   2.669  14.347  14.417
 7553SOL    HW224434   2.772  14.237  14.409
 7554SOL     OW24435   4.515  12.194   5.868
 7554SOL    HW124436   4.425  12.202   5.837
 7554SOL    HW224437   4.507  12.190   5.964
 7555SOL     OW24438   5.015   2.316  14.165
 7555SOL    HW124439   5.078   2.312  14.093
 7555SOL    HW224440   4.942   2.261  14.137
 7556SOL     OW24441  13.288  13.427   0.087
 7556SOL    HW124442  13.343  13.393   0.158
 7556SOL    HW224443  13.270  13.351   0.031
 7557SOL     OW24444   6.785  13.491   5.519
 7557SOL    HW124445   6.832  13.415   5.553
 7557SOL    HW224446   6.810  13.495   5.426
 7558SOL     OW24447  14.323  12.424   9.942
 7558SOL    HW124448  14.331  12.333   9.912
 7558SOL    HW224449  14.256  12.462   9.886
 7559SOL     OW24450   4.067   5.206  10.924
 7559SOL    HW124451   4.069   5.116  10.955
 7559SOL    HW224452   4.113   5.204  10.841
 7560SOL     OW24453   7.723   7.025   0.432
 7560SOL    HW124454   7.650   7.073   0.392
 7560SOL    HW224455   7.767   6.982   0.359
 7561SOL     OW24456  11.796  14.539   5.225
 7561SOL    HW124457  11.757  14.460   5.263
 7561SOL    HW224458  11.840  14.508   5.146
 7562SOL     OW24459   6.606   5.385   1.142
 7562SOL    HW124460   6.671   5.415   1.078
 7562SOL    HW224461   6.596   5.459   1.202
 7563SOL     OW24462   6.219   9.615   4.828
 7563SOL    HW124463   6.170   9.598   4.909
 7563SOL    HW224464   6.278   9.687   4.850
 7564SOL     OW24465   7.651   3.150   4.159
 7564SOL    HW124466   7.660   3.112   4.247
 7564SOL    HW224467   7.637   3.075   4.102
 7565SOL     OW24468   9.501   1.814   4.183
 7565SOL    HW124469   9.566   1.814   4.112
 7565SOL    HW224470   9.425   1.858   4.146
 7566SOL     OW24471   2.550   4.895   4.960
 7566SOL    HW124472   2.469   4.869   5.003
 7566SOL    HW224473   2.586   4.813   4.924
 7567SOL     OW24474  11.556   0.156   5.420
 7567SOL    HW124475  11.557   0.172   5.514
 7567SOL    HW224476  11.465   0.136   5.399
 7568SOL     OW24477  13.508   8.952  12.735
 7568SOL    HW124478  13.421   8.954  12.774
 7568SOL    HW224479  13.499   8.896  12.658
 7569SOL     OW24480   3.691   2.338   8.793
 7569SOL    HW124481   3.754   2.401   8.829
 7569SOL    HW224482   3.732   2.307   8.712
 7570SOL     OW24483   1.315  10.023  11.844
 7570SOL    HW124484   1.365  10.079  11.902
 7570SOL    HW224485   1.381   9.972  11.796
 7571SOL     OW24486   1.664   9.744  10.146
 7571SOL    HW124487   1.751   9.702  10.143
 7571SOL    HW224488   1.644   9.764  10.054
 7572SOL     OW24489   3.830   9.377  13.632
 7572SOL    HW124490   3.919   9.358  13.602
 7572SOL    HW224491   3.794   9.292  13.655
 7573SOL     OW24492   0.992  13.798  10.992
 7573SOL    HW124493   1.034  13.737  10.932
 7573SOL    HW224494   0.955  13.866  10.936
 7574SOL     OW24495  11.052   9.804  14.680
 7574SOL    HW124496  11.140   9.802  14.643
 7574SOL    HW224497  10.998   9.755  14.618
 7575SOL     OW24498   7.075  12.657  11.468
 7575SOL    HW124499   7.014  12.588  11.443
 7575SOL    HW224500   7.138  12.662  11.396
 7576SOL     OW24501   8.135   2.781  11.323
 7576SOL    HW124502   8.187   2.860  11.310
 7576SOL    HW224503   8.189   2.711  11.287
 7577SOL     OW24504   6.446   9.809   3.128
 7577SOL    HW124505   6.509   9.846   3.190
 7577SOL    HW224506   6.446   9.869   3.054
 7578SOL     OW24507   8.714   2.584   5.785
 7578SOL    HW124508   8.635   2.543   5.820
 7578SOL    HW224509   8.766   2.511   5.751
 7579SOL     OW24510   1.455   5.059  11.699
 7579SOL    HW124511   1.433   4.993  11.632
 7579SOL    HW224512   1.412   5.139  11.668
 7580SOL     OW24513   1.961  13.161   5.169
 7580SOL    HW124514   1.868  13.175   5.153
 7580SOL    HW224515   1.964  13.111   5.251
 7581SOL     OW24516   5.141   0.670  10.509
 7581SOL    HW124517   5.052   0.635  10.512
 7581SOL    HW224518   5.195   0.602  10.549
 7582SOL     OW24519   8.988   5.432   0.217
 7582SOL    HW124520   9.034   5.355   0.250
 7582SOL    HW224521   8.947   5.401   0.136
 7583SOL     OW24522  13.127  10.048   3.185
 7583SOL    HW124523  13.100   9.964   3.221
 7583SOL    HW224524  13.174  10.025   3.105
 7584SOL     OW24525   7.251   0.782   6.194
 7584SOL    HW124526   7.342   0.806   6.212
 7584SOL    HW224527   7.245   0.780   6.098
 7585SOL     OW24528   6.297  11.618   2.667
 7585SOL    HW124529   6.357  11.580   2.732
 7585SOL    HW224530   6.355  11.657   2.602
 7586SOL     OW24531   7.305   9.979   8.325
 7586SOL    HW124532   7.275  10.042   8.391
 7586SOL    HW224533   7.291  10.023   8.241
 7587SOL     OW24534  10.833   3.732   2.438
 7587SOL    HW124535  10.794   3.687   2.513
 7587SOL    HW224536  10.824   3.825   2.459
 7588SOL     OW24537   9.453   2.587   2.905
 7588SOL    HW124538   9.517   2.569   2.974
 7588SOL    HW224539   9.505   2.612   2.829
 7589SOL     OW24540   8.023   3.311   0.732
 7589SOL    HW124541   8.047   3.243   0.670
 7589SOL    HW224542   8.032   3.270   0.818
 7590SOL     OW24543   7.199  12.907   2.949
 7590SOL    HW124544   7.160  12.833   2.994
 7590SOL    HW224545   7.252  12.951   3.015
 7591SOL     OW24546   0.637  11.174   1.187
 7591SOL    HW124547   0.578  11.116   1.138
 7591SOL    HW224548   0.605  11.262   1.165
 7592SOL     OW24549  11.257  11.123  11.443
 7592SOL    HW124550  11.182  11.067  11.422
 7592SOL    HW224551  11.249  11.139  11.537
 7593SOL     OW24552   1.417   9.221   4.434
 7593SOL    HW124553   1.505   9.239   4.466
 7593SOL    HW224554   1.430   9.162   4.360
 7594SOL     OW24555   3.148   4.546   0.059
 7594SOL    HW124556   3.153   4.473   0.120
 7594SOL    HW224557   3.056   4.552   0.035
 7595SOL     OW24558   5.365  11.135  13.677
 7595SOL    HW124559   5.278  11.158  13.711
 7595SOL    HW224560   5.357  11.043  13.651
 7596SOL     OW24561  13.741   4.003   4.421
 7596SOL    HW124562  13.717   3.913   4.402
 7596SOL    HW224563  13.740   4.047   4.336
 7597SOL     OW24564  10.095   7.028  13.948
 7597SOL    HW124565  10.079   6.986  13.864
 7597SOL    HW224566  10.117   7.119  13.925
 7598SOL     OW24567  10.812   0.899  14.198
 7598SOL    HW124568  10.826   0.812  14.160
 7598SOL    HW224569  10.766   0.947  14.129
 7599SOL     OW24570   9.922  10.958   9.504
 7599SOL    HW124571   9.873  11.029   9.464
 7599SOL    HW224572   9.864  10.882   9.499
 7600SOL     OW24573   5.400   3.220   4.222
 7600SOL    HW124574   5.343   3.146   4.243
 7600SOL    HW224575   5.412   3.265   4.306
 7601SOL     OW24576   9.341   0.054   6.458
 7601SOL    HW124577   9.366  14.854   6.502
 7601SOL    HW224578   9.262   0.032   6.410
 7602SOL     OW24579   6.453   7.868   9.530
 7602SOL    HW124580   6.482   7.958   9.513
 7602SOL    HW224581   6.390   7.877   9.601
 7603SOL     OW24582  11.527   1.103  11.303
 7603SOL    HW124583  11.539   1.023  11.251
 7603SOL    HW224584  11.608   1.153  11.288
 7604SOL     OW24585   5.037   3.615  11.841
 7604SOL    HW124586   5.092   3.573  11.774
 7604SOL    HW224587   5.098   3.639  11.911
 7605SOL     OW24588  10.819   6.028  12.959
 7605SOL    HW124589  10.735   6.047  12.999
 7605SOL    HW224590  10.879   6.093  12.995
 7606SOL     OW24591   0.910  14.626   6.575
 7606SOL    HW124592   0.971  14.655   6.507
 7606SOL    HW224593   0.860  14.705   6.598
 7607SOL     OW24594  11.343  11.639  10.398
 7607SOL    HW124595  11.346  11.710  10.334
 7607SOL    HW224596  11.322  11.682  10.481
 7608SOL     OW24597  10.469   2.001  13.760
 7608SOL    HW124598  10.393   2.036  13.807
 7608SOL    HW224599  10.433   1.973  13.675
 7609SOL     OW24600   1.700  13.169  11.729
 7609SOL    HW124601   1.710  13.263  11.717
 7609SOL    HW224602   1.762  13.147  11.799
 7610SOL     OW24603   2.700   3.542  14.064
 7610SOL    HW124604   2.639   3.610  14.095
 7610SOL    HW224605   2.697   3.549  13.969
 7611SOL     OW24606   0.602   6.264   5.877
 7611SOL    HW124607   0.614   6.341   5.820
 7611SOL    HW224608   0.688   6.248   5.915
 7612SOL     OW24609  10.236   4.039   7.418
 7612SOL    HW124610  10.209   4.073   7.332
 7612SOL    HW224611  10.188   4.092   7.481
 7613SOL     OW24612   9.928   3.625  13.837
 7613SOL    HW124613   9.916   3.699  13.778
 7613SOL    HW224614   9.934   3.549  13.779
 7614SOL     OW24615  11.660   9.998   2.201
 7614SOL    HW124616  11.715   9.922   2.183
 7614SOL    HW224617  11.713  10.053   2.258
 7615SOL     OW24618  12.431   9.498   9.291
 7615SOL    HW124619  12.350   9.496   9.342
 7615SOL    HW224620  12.501   9.495   9.356
 7616SOL     OW24621   9.931  12.684   2.171
 7616SOL    HW124622   9.850  12.693   2.220
 7616SOL    HW224623   9.995  12.654   2.235
 7617SOL     OW24624   1.159   2.495  12.500
 7617SOL    HW124625   1.151   2.568  12.561
 7617SOL    HW224626   1.156   2.536  12.414
 7618SOL     OW24627   6.082   5.685   5.428
 7618SOL    HW124628   6.139   5.753   5.463
 7618SOL    HW224629   5.993   5.717   5.445
 7619SOL     OW24630   8.300   6.984   0.109
 7619SOL    HW124631   8.384   6.993   0.064
 7619SOL    HW224632   8.300   7.055   0.173
 7620SOL     OW24633   7.199  10.156  11.885
 7620SOL    HW124634   7.283  10.122  11.917
 7620SOL    HW224635   7.151  10.181  11.964
 7621SOL     OW24636   5.652  14.694   7.859
 7621SOL    HW124637   5.636  14.744   7.939
 7621SOL    HW224638   5.580  14.630   7.857
 7622SOL     OW24639   9.929  10.432  14.656
 7622SOL    HW124640   9.992  10.457  14.588
 7622SOL    HW224641   9.951  10.487  14.731
 7623SOL     OW24642   2.227   4.702  13.335
 7623SOL    HW124643   2.220   4.609  13.316
 7623SOL    HW224644   2.224   4.707  13.431
 7624SOL     OW24645   0.566   5.988   9.173
 7624SOL    HW124646   0.590   6.010   9.083
 7624SOL    HW224647   0.543   6.071   9.214
 7625SOL     OW24648   9.222  14.568  13.324
 7625SOL    HW124649   9.157  14.504  13.294
 7625SOL    HW224650   9.307  14.526  13.306
 7626SOL     OW24651  11.693   8.957  11.506
 7626SOL    HW124652  11.731   8.873  11.483
 7626SOL    HW224653  11.757   9.022  11.477
 7627SOL     OW24654   4.260  13.582   3.674
 7627SOL    HW124655   4.175  13.549   3.647
 7627SOL    HW224656   4.241  13.663   3.721
 7628SOL     OW24657   5.472   8.806   6.512
 7628SOL    HW124658   5.547   8.768   6.467
 7628SOL    HW224659   5.411   8.830   6.442
 7629SOL     OW24660  13.332   9.775   9.812
 7629SOL    HW124661  13.276   9.806   9.741
 7629SOL    HW224662  13.393   9.847   9.827
 7630SOL     OW24663  12.270   7.859  12.814
 7630SOL    HW124664  12.341   7.795  12.821
 7630SOL    HW224665  12.202   7.828  12.874
 7631SOL     OW24666   2.343   2.298  11.520
 7631SOL    HW124667   2.311   2.324  11.434
 7631SOL    HW224668   2.264   2.287  11.573
 7632SOL     OW24669   6.264   6.664  14.488
 7632SOL    HW124670   6.209   6.598  14.530
 7632SOL    HW224671   6.208   6.742  14.481
 7633SOL     OW24672   7.292  13.192  10.319
 7633SOL    HW124673   7.387  13.191  10.331
 7633SOL    HW224674   7.257  13.168  10.405
 7634SOL     OW24675   7.810   8.517  14.780
 7634SOL    HW124676   7.764   8.433  14.781
 7634SOL    HW224677   7.867   8.514  14.857
 7635SOL     OW24678   4.710   1.474   1.260
 7635SOL    HW124679   4.753   1.549   1.299
 7635SOL    HW224680   4.714   1.406   1.327
 7636SOL     OW24681   7.515   5.255  10.301
 7636SOL    HW124682   7.496   5.332  10.248
 7636SOL    HW224683   7.543   5.290  10.386
 7637SOL     OW24684   6.483   7.917   5.389
 7637SOL    HW124685   6.557   7.976   5.405
 7637SOL    HW224686   6.498   7.883   5.301
 7638SOL     OW24687  14.729   1.683   8.943
 7638SOL    HW124688  14.769   1.735   8.873
 7638SOL    HW224689  14.674   1.620   8.896
 7639SOL     OW24690  13.966   4.570   0.303
 7639SOL    HW124691  13.899   4.599   0.364
 7639SOL    HW224692  14.016   4.505   0.351
 7640SOL     OW24693   3.213   6.570   9.067
 7640SOL    HW124694   3.245   6.581   9.156
 7640SOL    HW224695   3.248   6.645   9.019
 7641SOL     OW24696  14.111  13.397   5.423
 7641SOL    HW124697  14.017  13.402   5.404
 7641SOL    HW224698  14.130  13.303   5.429
 7642SOL     OW24699  10.730  12.163   5.721
 7642SOL    HW124700  10.768  12.081   5.692
 7642SOL    HW224701  10.694  12.144   5.808
 7643SOL     OW24702  10.570   4.291   4.287
 7643SOL    HW124703  10.551   4.306   4.194
 7643SOL    HW224704  10.576   4.379   4.324
 7644SOL     OW24705   5.399  10.925   9.796
 7644SOL    HW124706   5.416  10.893   9.884
 7644SOL    HW224707   5.404  11.021   9.803
 7645SOL     OW24708   1.294   5.849  13.099
 7645SOL    HW124709   1.318   5.920  13.158
 7645SOL    HW224710   1.362   5.783  13.111
 7646SOL     OW24711   1.734  10.269  11.888
 7646SOL    HW124712   1.784  10.346  11.862
 7646SOL    HW224713   1.701  10.233  11.805
 7647SOL     OW24714   1.408   6.969  10.166
 7647SOL    HW124715   1.411   7.020  10.085
 7647SOL    HW224716   1.490   6.919  10.167
 7648SOL     OW24717   3.210  13.239  11.151
 7648SOL    HW124718   3.295  13.217  11.191
 7648SOL    HW224719   3.148  13.237  11.224
 7649SOL     OW24720  13.670   5.045   5.983
 7649SOL    HW124721  13.679   5.140   5.983
 7649SOL    HW224722  13.590   5.029   5.932
 7650SOL     OW24723  11.084   9.422   3.615
 7650SOL    HW124724  11.066   9.423   3.521
 7650SOL    HW224725  11.001   9.396   3.655
 7651SOL     OW24726   6.268   8.608   6.403
 7651SOL    HW124727   6.340   8.647   6.451
 7651SOL    HW224728   6.293   8.617   6.311
 7652SOL     OW24729   3.174   3.194  13.811
 7652SOL    HW124730   3.210   3.161  13.894
 7652SOL    HW224731   3.170   3.289  13.821
 7653SOL     OW24732   1.855   0.440   9.827
 7653SOL    HW124733   1.944   0.420   9.800
 7653SOL    HW224734   1.857   0.437   9.922
 7654SOL     OW24735  10.966   8.956   6.011
 7654SOL    HW124736  11.003   9.022   5.953
 7654SOL    HW224737  10.983   8.989   6.099
 7655SOL     OW24738   5.987  13.372  10.353
 7655SOL    HW124739   5.939  13.315  10.293
 7655SOL    HW224740   6.072  13.385  10.310
 7656SOL     OW24741   8.423   3.936   2.874
 7656SOL    HW124742   8.352   3.978   2.824
 7656SOL    HW224743   8.462   3.875   2.811
 7657SOL     OW24744   8.667  12.020   0.191
 7657SOL    HW124745   8.731  11.971   0.242
 7657SOL    HW224746   8.712  12.043   0.110
 7658SOL     OW24747  14.562   1.505   8.756
 7658SOL    HW124748  14.470   1.518   8.781
 7658SOL    HW224749  14.557   1.458   8.673
 7659SOL     OW24750   1.926  13.281   8.491
 7659SOL    HW124751   1.922  13.364   8.538
 7659SOL    HW224752   1.835  13.260   8.472
 7660SOL     OW24753   6.788   3.729   6.148
 7660SOL    HW124754   6.876   3.730   6.184
 7660SOL    HW224755   6.738   3.671   6.206
 7661SOL     OW24756   4.719   2.108   2.043
 7661SOL    HW124757   4.724   2.108   2.138
 7661SOL    HW224758   4.755   2.024   2.017
 7662SOL     OW24759  11.538   8.431   0.294
 7662SOL    HW124760  11.495   8.478   0.223
 7662SOL    HW224761  11.631   8.452   0.283
 7663SOL     OW24762   7.233  12.938   8.831
 7663SOL    HW124763   7.308  12.921   8.774
 7663SOL    HW224764   7.168  12.978   8.774
 7664SOL     OW24765  13.214   4.505   9.551
 7664SOL    HW124766  13.245   4.596   9.550
 7664SOL    HW224767  13.287   4.454   9.516
 7665SOL     OW24768   7.176  10.588   2.000
 7665SOL    HW124769   7.186  10.498   1.968
 7665SOL    HW224770   7.201  10.584   2.092
 7666SOL     OW24771   6.940   7.447   8.367
 7666SOL    HW124772   6.945   7.380   8.436
 7666SOL    HW224773   6.862   7.424   8.317
 7667SOL     OW24774   7.013   3.874   1.281
 7667SOL    HW124775   7.095   3.832   1.255
 7667SOL    HW224776   7.037   3.929   1.356
 7668SOL     OW24777  10.889  11.983  14.078
 7668SOL    HW124778  10.925  11.920  14.016
 7668SOL    HW224779  10.862  12.058  14.024
 7669SOL     OW24780   3.379  12.068   4.669
 7669SOL    HW124781   3.444  12.003   4.642
 7669SOL    HW224782   3.335  12.093   4.588
 7670SOL     OW24783  14.508  13.183   7.263
 7670SOL    HW124784  14.461  13.258   7.302
 7670SOL    HW224785  14.519  13.208   7.171
 7671SOL     OW24786   1.821   5.820   7.155
 7671SOL    HW124787   1.842   5.815   7.248
 7671SOL    HW224788   1.751   5.885   7.150
 7672SOL     OW24789   4.539   6.414   6.752
 7672SOL    HW124790   4.482   6.391   6.678
 7672SOL    HW224791   4.617   6.361   6.738
 7673SOL     OW24792  12.186  10.958  12.819
 7673SOL    HW124793  12.095  10.988  12.819
 7673SOL    HW224794  12.233  11.023  12.767
 7674SOL     OW24795  10.652   7.344   5.249
 7674SOL    HW124796  10.634   7.271   5.307
 7674SOL    HW224797  10.597   7.328   5.172
 7675SOL     OW24798   2.259   3.197   0.864
 7675SOL    HW124799   2.204   3.131   0.907
 7675SOL    HW224800   2.342   3.192   0.911
 7676SOL     OW24801   1.950   5.921  10.926
 7676SOL    HW124802   2.014   5.949  10.861
 7676SOL    HW224803   2.001   5.873  10.991
 7677SOL     OW24804   9.246   4.801   2.401
 7677SOL    HW124805   9.301   4.855   2.344
 7677SOL    HW224806   9.270   4.711   2.378
 7678SOL     OW24807   9.367   8.132  11.377
 7678SOL    HW124808   9.287   8.108  11.422
 7678SOL    HW224809   9.434   8.074  11.413
 7679SOL     OW24810  12.718  14.229   3.075
 7679SOL    HW124811  12.634  14.183   3.085
 7679SOL    HW224812  12.782  14.159   3.064
 7680SOL     OW24813   6.843   4.267  14.194
 7680SOL    HW124814   6.818   4.325  14.265
 7680SOL    HW224815   6.852   4.324  14.118
 7681SOL     OW24816   0.977  12.297   8.623
 7681SOL    HW124817   1.017  12.379   8.593
 7681SOL    HW224818   1.002  12.232   8.558
 7682SOL     OW24819   5.225  11.430  11.860
 7682SOL    HW124820   5.167  11.403  11.931
 7682SOL    HW224821   5.169  11.430  11.782
 7683SOL     OW24822   0.238  10.845   4.584
 7683SOL    HW124823   0.206  10.856   4.495
 7683SOL    HW224824   0.158  10.833   4.636
 7684SOL     OW24825   7.647  12.583  12.802
 7684SOL    HW124826   7.622  12.529  12.727
 7684SOL    HW224827   7.564  12.617  12.836
 7685SOL     OW24828   8.533  13.291   1.797
 7685SOL    HW124829   8.521  13.319   1.706
 7685SOL    HW224830   8.446  13.296   1.835
 7686SOL     OW24831  11.909   4.765   8.805
 7686SOL    HW124832  11.859   4.731   8.731
 7686SOL    HW224833  11.894   4.859   8.804
 7687SOL     OW24834   2.830  13.976   0.438
 7687SOL    HW124835   2.763  14.020   0.491
 7687SOL    HW224836   2.887  13.934   0.501
 7688SOL     OW24837   9.233  10.993   9.939
 7688SOL    HW124838   9.168  10.924   9.954
 7688SOL    HW224839   9.222  11.053  10.012
 7689SOL     OW24840   2.037   5.231  13.500
 7689SOL    HW124841   2.012   5.301  13.439
 7689SOL    HW224842   2.050   5.154  13.444
 7690SOL     OW24843  14.500   8.731  10.312
 7690SOL    HW124844  14.584   8.686  10.320
 7690SOL    HW224845  14.440   8.678  10.364
 7691SOL     OW24846   2.050   4.074   8.831
 7691SOL    HW124847   2.086   4.108   8.750
 7691SOL    HW224848   1.955   4.075   8.819
 7692SOL     OW24849  12.450   9.202   4.481
 7692SOL    HW124850  12.369   9.246   4.507
 7692SOL    HW224851  12.498   9.267   4.430
 7693SOL     OW24852   2.830   1.663  11.410
 7693SOL    HW124853   2.874   1.664  11.325
 7693SOL    HW224854   2.843   1.575  11.443
 7694SOL     OW24855   1.779  11.053   0.987
 7694SOL    HW124856   1.864  11.083   1.020
 7694SOL    HW224857   1.773  11.091   0.899
 7695SOL     OW24858  14.351   4.301  14.160
 7695SOL    HW124859  14.384   4.299  14.250
 7695SOL    HW224860  14.301   4.382  14.155
 7696SOL     OW24861   7.420   9.874   3.643
 7696SOL    HW124862   7.453   9.938   3.707
 7696SOL    HW224863   7.355   9.823   3.691
 7697SOL     OW24864   2.280   7.605   6.876
 7697SOL    HW124865   2.225   7.684   6.876
 7697SOL    HW224866   2.363   7.634   6.916
 7698SOL     OW24867   2.321   6.897   5.379
 7698SOL    HW124868   2.379   6.821   5.387
 7698SOL    HW224869   2.329   6.924   5.288
 7699SOL     OW24870   7.433  14.024   8.437
 7699SOL    HW124871   7.472  14.110   8.425
 7699SOL    HW224872   7.340  14.042   8.454
 7700SOL     OW24873   3.506   4.073   2.044
 7700SOL    HW124874   3.464   3.995   2.007
 7700SOL    HW224875   3.586   4.083   1.993
 7701SOL     OW24876   0.529   7.466  13.943
 7701SOL    HW124877   0.593   7.497  13.879
 7701SOL    HW224878   0.452   7.520  13.928
 7702SOL     OW24879  11.434   5.460   2.862
 7702SOL    HW124880  11.365   5.519   2.894
 7702SOL    HW224881  11.459   5.409   2.938
 7703SOL     OW24882  11.775   2.273   2.195
 7703SOL    HW124883  11.693   2.310   2.227
 7703SOL    HW224884  11.840   2.296   2.262
 7704SOL     OW24885   4.388   5.562  12.418
 7704SOL    HW124886   4.407   5.635  12.359
 7704SOL    HW224887   4.465   5.505  12.411
 7705SOL     OW24888  14.090   3.021   6.934
 7705SOL    HW124889  14.097   3.074   7.013
 7705SOL    HW224890  14.068   2.933   6.966
 7706SOL     OW24891   9.219  11.838  14.506
 7706SOL    HW124892   9.301  11.838  14.456
 7706SOL    HW224893   9.242  11.874  14.591
 7707SOL     OW24894   2.359   7.129   2.310
 7707SOL    HW124895   2.328   7.047   2.348
 7707SOL    HW224896   2.280   7.175   2.282
 7708SOL     OW24897   9.347   9.742   0.436
 7708SOL    HW124898   9.313   9.803   0.371
 7708SOL    HW224899   9.371   9.664   0.385
 7709SOL     OW24900   6.130  12.041   6.086
 7709SOL    HW124901   6.086  12.112   6.133
 7709SOL    HW224902   6.064  11.971   6.081
 7710SOL     OW24903  13.257   0.549   7.207
 7710SOL    HW124904  13.258   0.640   7.177
 7710SOL    HW224905  13.250   0.556   7.303
 7711SOL     OW24906  11.179   5.545  11.951
 7711SOL    HW124907  11.240   5.521  12.021
 7711SOL    HW224908  11.099   5.496  11.971
 7712SOL     OW24909   9.478   8.373  10.960
 7712SOL    HW124910   9.409   8.336  10.906
 7712SOL    HW224911   9.484   8.313  11.035
 7713SOL     OW24912   2.639  12.244   4.557
 7713SOL    HW124913   2.612  12.302   4.629
 7713SOL    HW224914   2.728  12.217   4.581
 7714SOL     OW24915   4.554   5.309  13.529
 7714SOL    HW124916   4.478   5.366  13.520
 7714SOL    HW224917   4.577   5.315  13.622
 7715SOL     OW24918   3.657   4.050  14.657
 7715SOL    HW124919   3.564   4.030  14.662
 7715SOL    HW224920   3.678   4.043  14.564
 7716SOL     OW24921   2.712  10.707  14.756
 7716SOL    HW124922   2.702  10.663  14.841
 7716SOL    HW224923   2.625  10.742  14.737
 7717SOL     OW24924   4.054  10.002   5.818
 7717SOL    HW124925   4.091   9.953   5.891
 7717SOL    HW224926   3.960   9.989   5.825
 7718SOL     OW24927  14.559   0.043   6.655
 7718SOL    HW124928  14.509  14.861   6.706
 7718SOL    HW224929  14.588  14.876   6.578
 7719SOL     OW24930   5.865   8.600   8.614
 7719SOL    HW124931   5.843   8.597   8.708
 7719SOL    HW224932   5.952   8.639   8.612
 7720SOL     OW24933   8.280   2.843   2.298
 7720SOL    HW124934   8.348   2.852   2.231
 7720SOL    HW224935   8.228   2.768   2.269
 7721SOL     OW24936   3.755   8.614   2.339
 7721SOL    HW124937   3.704   8.632   2.418
 7721SOL    HW224938   3.832   8.565   2.370
 7722SOL     OW24939   3.350  13.044  14.527
 7722SOL    HW124940   3.441  13.073  14.525
 7722SOL    HW224941   3.299  13.126  14.529
 7723SOL     OW24942   9.243   6.215   5.739
 7723SOL    HW124943   9.270   6.305   5.757
 7723SOL    HW224944   9.149   6.215   5.756
 7724SOL     OW24945   4.518  14.155  13.255
 7724SOL    HW124946   4.542  14.182  13.166
 7724SOL    HW224947   4.600  14.127  13.295
 7725SOL     OW24948   4.723   3.583   6.221
 7725SOL    HW124949   4.773   3.533   6.156
 7725SOL    HW224950   4.772   3.574   6.302
 7726SOL     OW24951  13.727   2.033   1.890
 7726SOL    HW124952  13.799   1.996   1.840
 7726SOL    HW224953  13.726   2.126   1.867
 7727SOL     OW24954  13.467   7.834  10.932
 7727SOL    HW124955  13.517   7.821  10.852
 7727SOL    HW224956  13.511   7.780  10.997
 7728SOL     OW24957  10.822   2.979   9.169
 7728SOL    HW124958  10.780   2.991   9.254
 7728SOL    HW224959  10.766   3.029   9.108
 7729SOL     OW24960   2.670  13.823   8.864
 7729SOL    HW124961   2.629  13.739   8.845
 7729SOL    HW224962   2.657  13.875   8.784
 7730SOL     OW24963  10.727   3.632   2.107
 7730SOL    HW124964  10.723   3.580   2.027
 7730SOL    HW224965  10.669   3.587   2.169
 7731SOL     OW24966  13.534   9.338   1.111
 7731SOL    HW124967  13.524   9.402   1.040
 7731SOL    HW224968  13.483   9.375   1.183
 7732SOL     OW24969   7.369   1.799  11.139
 7732SOL    HW124970   7.408   1.769  11.221
 7732SOL    HW224971   7.414   1.881  11.120
 7733SOL     OW24972   2.095  14.768  11.715
 7733SOL    HW124973   2.157  14.776  11.788
 7733SOL    HW224974   2.148  14.786  11.638
 7734SOL     OW24975   9.289  14.439  11.049
 7734SOL    HW124976   9.262  14.530  11.058
 7734SOL    HW224977   9.343  14.422  11.127
 7735SOL     OW24978   4.159   1.566   0.818
 7735SOL    HW124979   4.129   1.500   0.755
 7735SOL    HW224980   4.079   1.597   0.859
 7736SOL     OW24981   6.741  11.598   4.417
 7736SOL    HW124982   6.657  11.578   4.457
 7736SOL    HW224983   6.804  11.540   4.460
 7737SOL     OW24984   4.394   2.495   3.427
 7737SOL    HW124985   4.377   2.445   3.507
 7737SOL    HW224986   4.381   2.586   3.454
 7738SOL     OW24987   7.023  13.549   4.001
 7738SOL    HW124988   6.974  13.603   3.939
 7738SOL    HW224989   7.025  13.600   4.082
 7739SOL     OW24990  11.674   5.675   7.775
 7739SOL    HW124991  11.592   5.655   7.731
 7739SOL    HW224992  11.686   5.769   7.763
 7740SOL     OW24993  11.405  11.369  11.596
 7740SOL    HW124994  11.453  11.288  11.581
 7740SOL    HW224995  11.436  11.400  11.681
 7741SOL     OW24996   2.040   0.416  11.093
 7741SOL    HW124997   2.035   0.475  11.018
 7741SOL    HW224998   1.954   0.375  11.097
 7742SOL     OW24999   7.051  11.392  11.718
 7742SOL    HW125000   7.033  11.427  11.805
 7742SOL    HW225001   7.069  11.469  11.664
 7743SOL     OW25002  13.414   7.548   2.163
 7743SOL    HW125003  13.398   7.458   2.133
 7743SOL    HW225004  13.442   7.595   2.085
 7744SOL     OW25005   0.850   8.500   9.680
 7744SOL    HW125006   0.798   8.475   9.757
 7744SOL    HW225007   0.910   8.567   9.713
 7745SOL     OW25008  13.890   9.627  11.249
 7745SOL    HW125009  13.850   9.671  11.174
 7745SOL    HW225010  13.860   9.676  11.325
 7746SOL     OW25011   6.197   3.285   1.359
 7746SOL    HW125012   6.275   3.297   1.306
 7746SOL    HW225013   6.188   3.367   1.408
 7747SOL     OW25014   4.485   2.165   1.475
 7747SOL    HW125015   4.564   2.216   1.495
 7747SOL    HW225016   4.471   2.179   1.381
 7748SOL     OW25017   3.638  14.562   8.626
 7748SOL    HW125018   3.646  14.573   8.721
 7748SOL    HW225019   3.684  14.637   8.589
 7749SOL     OW25020   3.005   4.310   9.378
 7749SOL    HW125021   2.931   4.367   9.355
 7749SOL    HW225022   2.981   4.274   9.464
 7750SOL     OW25023   1.659   7.925   7.837
 7750SOL    HW125024   1.598   7.950   7.768
 7750SOL    HW225025   1.744   7.957   7.807
 7751SOL     OW25026  11.183   9.119   5.925
 7751SOL    HW125027  11.111   9.138   5.865
 7751SOL    HW225028  11.259   9.160   5.885
 7752SOL     OW25029   5.494   3.507   1.996
 7752SOL    HW125030   5.464   3.519   2.086
 7752SOL    HW225031   5.590   3.511   2.002
 7753SOL     OW25032  13.748  13.697   2.301
 7753SOL    HW125033  13.771  13.679   2.392
 7753SOL    HW225034  13.673  13.639   2.284
 7754SOL     OW25035   5.591   0.499   9.550
 7754SOL    HW125036   5.496   0.500   9.537
 7754SOL    HW225037   5.604   0.531   9.640
 7755SOL     OW25038   0.564   1.318   7.676
 7755SOL    HW125039   0.587   1.308   7.769
 7755SOL    HW225040   0.470   1.302   7.673
 7756SOL     OW25041   6.509   6.799  10.650
 7756SOL    HW125042   6.503   6.780  10.557
 7756SOL    HW225043   6.602   6.790  10.671
 7757SOL     OW25044   6.422   0.412   0.919
 7757SOL    HW125045   6.394   0.356   0.991
 7757SOL    HW225046   6.347   0.414   0.859
 7758SOL     OW25047   4.717   2.082   6.707
 7758SOL    HW125048   4.655   2.141   6.751
 7758SOL    HW225049   4.678   2.066   6.621
 7759SOL     OW25050   5.944   2.663   4.570
 7759SOL    HW125051   5.871   2.720   4.545
 7759SOL    HW225052   5.918   2.576   4.537
 7760SOL     OW25053   0.609  13.239   2.511
 7760SOL    HW125054   0.692  13.195   2.491
 7760SOL    HW225055   0.565  13.181   2.572
 7761SOL     OW25056   4.289   3.218   2.083
 7761SOL    HW125057   4.206   3.262   2.098
 7761SOL    HW225058   4.271   3.153   2.015
 7762SOL     OW25059   3.203   3.919  11.188
 7762SOL    HW125060   3.179   3.897  11.278
 7762SOL    HW225061   3.126   3.962  11.152
 7763SOL     OW25062   3.720   6.062   8.935
 7763SOL    HW125063   3.726   6.144   8.885
 7763SOL    HW225064   3.741   5.993   8.872
 7764SOL     OW25065   4.596   4.095  10.372
 7764SOL    HW125066   4.659   4.035  10.333
 7764SOL    HW225067   4.557   4.141  10.297
 7765SOL     OW25068   8.462   1.374  11.313
 7765SOL    HW125069   8.405   1.409  11.381
 7765SOL    HW225070   8.459   1.440  11.243
 7766SOL     OW25071   1.176   0.711   0.357
 7766SOL    HW125072   1.250   0.767   0.334
 7766SOL    HW225073   1.213   0.623   0.363
 7767SOL     OW25074   2.075  13.880  10.874
 7767SOL    HW125075   2.071  13.974  10.856
 7767SOL    HW225076   2.141  13.872  10.942
 7768SOL     OW25077   7.278   3.584  14.320
 7768SOL    HW125078   7.195   3.579  14.368
 7768SOL    HW225079   7.288   3.676  14.298
 7769SOL     OW25080   0.279   5.065   5.499
 7769SOL    HW125081   0.313   5.111   5.576
 7769SOL    HW225082   0.352   5.067   5.437
 7770SOL     OW25083  12.557  11.124   8.425
 7770SOL    HW125084  12.471  11.146   8.461
 7770SOL    HW225085  12.538  11.062   8.354
 7771SOL     OW25086  14.153   4.311   1.157
 7771SOL    HW125087  14.083   4.351   1.209
 7771SOL    HW225088  14.108   4.247   1.102
 7772SOL     OW25089   7.734   2.331   2.875
 7772SOL    HW125090   7.737   2.270   2.801
 7772SOL    HW225091   7.818   2.376   2.873
 7773SOL     OW25092  14.233   8.813   8.465
 7773SOL    HW125093  14.193   8.749   8.523
 7773SOL    HW225094  14.323   8.782   8.453
 7774SOL     OW25095  13.036   3.553  11.167
 7774SOL    HW125096  13.072   3.474  11.125
 7774SOL    HW225097  12.976   3.519  11.233
 7775SOL     OW25098   8.772   5.602  14.826
 7775SOL    HW125099   8.844   5.642  14.777
 7775SOL    HW225100   8.698   5.605  14.765
 7776SOL     OW25101   5.788   8.733   3.501
 7776SOL    HW125102   5.794   8.704   3.592
 7776SOL    HW225103   5.694   8.735   3.482
 7777SOL     OW25104  12.468   7.725   4.423
 7777SOL    HW125105  12.547   7.669   4.420
 7777SOL    HW225106  12.404   7.678   4.370
 7778SOL     OW25107   7.143  10.638   6.064
 7778SOL    HW125108   7.112  10.643   6.155
 7778SOL    HW225109   7.065  10.658   6.012
 7779SOL     OW25110   0.084   4.689  14.365
 7779SOL    HW125111   0.166   4.668  14.409
 7779SOL    HW225112   0.109   4.733  14.285
 7780SOL     OW25113   7.405  12.718  13.263
 7780SOL    HW125114   7.359  12.787  13.215
 7780SOL    HW225115   7.392  12.640  13.210
 7781SOL     OW25116  12.378  14.685   5.018
 7781SOL    HW125117  12.400  14.659   4.929
 7781SOL    HW225118  12.293  14.644   5.034
 7782SOL     OW25119   5.322   2.733   3.667
 7782SOL    HW125120   5.374   2.658   3.640
 7782SOL    HW225121   5.382   2.787   3.718
 7783SOL     OW25122   8.895   0.062  11.567
 7783SOL    HW125123   8.973   0.107  11.534
 7783SOL    HW225124   8.848   0.035  11.488
 7784SOL     OW25125   9.854  11.827   5.304
 7784SOL    HW125126   9.884  11.847   5.393
 7784SOL    HW225127   9.847  11.731   5.302
 7785SOL     OW25128   4.056   6.081  11.968
 7785SOL    HW125129   4.146   6.085  11.998
 7785SOL    HW225130   4.016   6.162  12.000
 7786SOL     OW25131   4.717   2.811   0.872
 7786SOL    HW125132   4.794   2.867   0.859
 7786SOL    HW225133   4.731   2.737   0.813
 7787SOL     OW25134  13.720   6.410   3.529
 7787SOL    HW125135  13.676   6.417   3.614
 7787SOL    HW225136  13.666   6.464   3.470
 7788SOL     OW25137   7.851   3.292  12.811
 7788SOL    HW125138   7.807   3.231  12.870
 7788SOL    HW225139   7.912   3.340  12.868
 7789SOL     OW25140   6.310   2.046  10.613
 7789SOL    HW125141   6.392   2.072  10.655
 7789SOL    HW225142   6.249   2.117  10.631
 7790SOL     OW25143   0.034   1.921  10.027
 7790SOL    HW125144  14.844   1.904   9.965
 7790SOL    HW225145   0.098   1.970   9.977
 7791SOL     OW25146   6.967  12.938  12.847
 7791SOL    HW125147   6.969  12.951  12.942
 7791SOL    HW225148   6.874  12.939  12.825
 7792SOL     OW25149   3.752   5.344   2.834
 7792SOL    HW125150   3.816   5.347   2.764
 7792SOL    HW225151   3.757   5.430   2.875
 7793SOL     OW25152   0.657  11.835  13.081
 7793SOL    HW125153   0.583  11.823  13.023
 7793SOL    HW225154   0.701  11.914  13.049
 7794SOL     OW25155   6.515   1.917   9.041
 7794SOL    HW125156   6.449   1.893   8.976
 7794SOL    HW225157   6.599   1.904   8.996
 7795SOL     OW25158   2.205   2.599   6.051
 7795SOL    HW125159   2.289   2.645   6.053
 7795SOL    HW225160   2.145   2.659   6.095
 7796SOL     OW25161   2.404  12.290   0.541
 7796SOL    HW125162   2.432  12.242   0.619
 7796SOL    HW225163   2.391  12.222   0.475
 7797SOL     OW25164   0.943  13.101   6.968
 7797SOL    HW125165   0.859  13.144   6.949
 7797SOL    HW225166   0.941  13.020   6.917
 7798SOL     OW25167   6.793   1.255  12.356
 7798SOL    HW125168   6.791   1.169  12.399
 7798SOL    HW225169   6.701   1.279  12.345
 7799SOL     OW25170   6.761   3.201   4.992
 7799SOL    HW125171   6.667   3.203   4.974
 7799SOL    HW225172   6.786   3.294   4.992
 7800SOL     OW25173   1.940  14.486   2.107
 7800SOL    HW125174   1.962  14.564   2.056
 7800SOL    HW225175   1.997  14.418   2.070
 7801SOL     OW25176  14.484   1.152   0.528
 7801SOL    HW125177  14.440   1.077   0.567
 7801SOL    HW225178  14.577   1.133   0.536
 7802SOL     OW25179  13.326   0.503   6.671
 7802SOL    HW125180  13.412   0.502   6.713
 7802SOL    HW225181  13.342   0.541   6.584
 7803SOL     OW25182  14.654  11.989   8.366
 7803SOL    HW125183  14.681  12.000   8.457
 7803SOL    HW225184  14.615  12.072   8.342
 7804SOL     OW25185  13.343   3.285   5.993
 7804SOL    HW125186  13.434   3.311   5.983
 7804SOL    HW225187  13.332   3.271   6.087
 7805SOL     OW25188   2.351  11.850  14.180
 7805SOL    HW125189   2.343  11.933  14.132
 7805SOL    HW225190   2.264  11.834  14.215
 7806SOL     OW25191  12.756   6.140   7.993
 7806SOL    HW125192  12.840   6.160   8.034
 7806SOL    HW225193  12.779   6.102   7.908
 7807SOL     OW25194   5.071   6.140   2.848
 7807SOL    HW125195   5.085   6.050   2.820
 7807SOL    HW225196   4.991   6.168   2.803
 7808SOL     OW25197   3.358   7.113   4.743
 7808SOL    HW125198   3.323   7.202   4.737
 7808SOL    HW225199   3.281   7.057   4.750
 7809SOL     OW25200   4.368  11.849   1.714
 7809SOL    HW125201   4.272  11.845   1.723
 7809SOL    HW225202   4.383  11.923   1.654
 7810SOL     OW25203   9.071   7.417   4.686
 7810SOL    HW125204   9.032   7.387   4.769
 7810SOL    HW225205   9.073   7.338   4.631
 7811SOL     OW25206   7.921   1.437  12.849
 7811SOL    HW125207   7.990   1.435  12.915
 7811SOL    HW225208   7.840   1.422  12.899
 7812SOL     OW25209   1.153   9.568   7.574
 7812SOL    HW125210   1.086   9.635   7.591
 7812SOL    HW225211   1.110   9.486   7.597
 7813SOL     OW25212  12.839  10.863   1.267
 7813SOL    HW125213  12.819  10.955   1.286
 7813SOL    HW225214  12.768  10.834   1.210
 7814SOL     OW25215   1.146   8.560   1.024
 7814SOL    HW125216   1.183   8.625   1.083
 7814SOL    HW225217   1.125   8.485   1.080
 7815SOL     OW25218   6.350   7.130   7.092
 7815SOL    HW125219   6.280   7.187   7.061
 7815SOL    HW225220   6.400   7.108   7.014
 7816SOL     OW25221   0.161  11.937   8.989
 7816SOL    HW125222   0.199  11.851   9.004
 7816SOL    HW225223   0.112  11.956   9.069
 7817SOL     OW25224   6.203   5.925   5.491
 7817SOL    HW125225   6.170   6.014   5.478
 7817SOL    HW225226   6.262   5.932   5.566
 7818SOL     OW25227  10.025   6.395   4.316
 7818SOL    HW125228  10.061   6.484   4.314
 7818SOL    HW225229   9.951   6.400   4.376
 7819SOL     OW25230  12.821  10.037   9.837
 7819SOL    HW125231  12.784  10.125   9.844
 7819SOL    HW225232  12.888  10.034   9.905
 7820SOL     OW25233   8.470   5.150  12.266
 7820SOL    HW125234   8.451   5.109  12.182
 7820SOL    HW225235   8.399   5.214  12.278
 7821SOL     OW25236  13.693   8.351   8.161
 7821SOL    HW125237  13.727   8.384   8.078
 7821SOL    HW225238  13.763   8.367   8.224
 7822SOL     OW25239  14.390  11.752   1.912
 7822SOL    HW125240  14.385  11.690   1.985
 7822SOL    HW225241  14.320  11.815   1.931
 7823SOL     OW25242  11.308   0.013   8.542
 7823SOL    HW125243  11.318  14.812   8.494
 7823SOL    HW225244  11.253  14.873   8.617
 7824SOL     OW25245   3.110   6.927   6.364
 7824SOL    HW125246   3.184   6.987   6.369
 7824SOL    HW225247   3.123   6.868   6.438
 7825SOL     OW25248  11.720  10.205   7.342
 7825SOL    HW125249  11.654  10.194   7.411
 7825SOL    HW225250  11.803  10.190   7.386
 7826SOL     OW25251   7.200  13.784   7.342
 7826SOL    HW125252   7.198  13.729   7.420
 7826SOL    HW225253   7.273  13.844   7.356
 7827SOL     OW25254   3.542  11.808   6.598
 7827SOL    HW125255   3.473  11.834   6.660
 7827SOL    HW225256   3.593  11.742   6.645
 7828SOL     OW25257   3.778   7.000  11.083
 7828SOL    HW125258   3.720   7.014  11.158
 7828SOL    HW225259   3.799   6.906  11.087
 7829SOL     OW25260   6.729   9.959   4.652
 7829SOL    HW125261   6.813   9.914   4.660
 7829SOL    HW225262   6.751  10.042   4.610
 7830SOL     OW25263   0.102   8.511  12.500
 7830SOL    HW125264   0.091   8.449  12.428
 7830SOL    HW225265   0.015   8.550  12.511
 7831SOL     OW25266   8.210   9.781   4.153
 7831SOL    HW125267   8.215   9.803   4.060
 7831SOL    HW225268   8.296   9.744   4.173
 7832SOL     OW25269   8.468   3.694   2.710
 7832SOL    HW125270   8.523   3.628   2.668
 7832SOL    HW225271   8.383   3.686   2.667
 7833SOL     OW25272   7.285   6.259   8.408
 7833SOL    HW125273   7.273   6.321   8.335
 7833SOL    HW225274   7.376   6.232   8.401
 7834SOL     OW25275   3.432   4.267   0.531
 7834SOL    HW125276   3.377   4.334   0.570
 7834SOL    HW225277   3.426   4.192   0.590
 7835SOL     OW25278   5.975   6.536   6.649
 7835SOL    HW125279   5.942   6.614   6.605
 7835SOL    HW225280   6.041   6.500   6.589
 7836SOL     OW25281  13.390   1.414   7.179
 7836SOL    HW125282  13.482   1.388   7.175
 7836SOL    HW225283  13.354   1.391   7.093
 7837SOL     OW25284   5.110  13.129  11.800
 7837SOL    HW125285   5.109  13.214  11.756
 7837SOL    HW225286   5.020  13.117  11.830
 7838SOL     OW25287   2.782  11.773   9.862
 7838SOL    HW125288   2.833  11.771   9.943
 7838SOL    HW225289   2.724  11.697   9.869
 7839SOL     OW25290  10.124  14.278   5.091
 7839SOL    HW125291  10.030  14.258   5.084
 7839SOL    HW225292  10.137  14.350   5.028
 7840SOL     OW25293  14.514   6.830   9.539
 7840SOL    HW125294  14.495   6.897   9.605
 7840SOL    HW225295  14.610   6.832   9.530
 7841SOL     OW25296   5.844  14.006   5.115
 7841SOL    HW125297   5.808  13.947   5.182
 7841SOL    HW225298   5.838  13.957   5.034
 7842SOL     OW25299   5.829   0.870  12.352
 7842SOL    HW125300   5.867   0.931  12.415
 7842SOL    HW225301   5.838   0.913  12.267
 7843SOL     OW25302  14.697   9.530  13.544
 7843SOL    HW125303  14.766   9.482  13.590
 7843SOL    HW225304  14.625   9.535  13.607
 7844SOL     OW25305   9.023  12.533   3.616
 7844SOL    HW125306   9.006  12.593   3.543
 7844SOL    HW225307   9.016  12.446   3.578
 7845SOL     OW25308   6.343   8.926  10.152
 7845SOL    HW125309   6.280   8.891  10.215
 7845SOL    HW225310   6.292   8.984  10.096
 7846SOL     OW25311  12.656   9.792  13.507
 7846SOL    HW125312  12.606   9.873  13.497
 7846SOL    HW225313  12.677   9.765  13.417
 7847SOL     OW25314   7.470  11.733   1.527
 7847SOL    HW125315   7.477  11.690   1.612
 7847SOL    HW225316   7.525  11.811   1.535
 7848SOL     OW25317   8.410   4.955   2.618
 7848SOL    HW125318   8.392   4.864   2.641
 7848SOL    HW225319   8.341   5.005   2.663
 7849SOL     OW25320  12.010   0.846   6.033
 7849SOL    HW125321  12.101   0.858   6.006
 7849SOL    HW225322  12.011   0.768   6.089
 7850SOL     OW25323   9.999   6.119   7.819
 7850SOL    HW125324   9.938   6.139   7.749
 7850SOL    HW225325   9.974   6.031   7.848
 7851SOL     OW25326   3.645   9.170   2.044
 7851SOL    HW125327   3.720   9.226   2.025
 7851SOL    HW225328   3.586   9.226   2.095
 7852SOL     OW25329  14.799   2.766  11.907
 7852SOL    HW125330  14.710   2.739  11.881
 7852SOL    HW225331  14.843   2.684  11.929
 7853SOL     OW25332  11.807  12.715   9.388
 7853SOL    HW125333  11.865  12.767   9.332
 7853SOL    HW225334  11.865  12.652   9.430
 7854SOL     OW25335   3.146   3.744   0.328
 7854SOL    HW125336   3.079   3.686   0.363
 7854SOL    HW225337   3.226   3.692   0.328
 7855SOL     OW25338  11.860   9.458   6.982
 7855SOL    HW125339  11.810   9.377   6.994
 7855SOL    HW225340  11.794   9.525   6.963
 7856SOL     OW25341   0.985   5.087   7.705
 7856SOL    HW125342   0.917   5.147   7.678
 7856SOL    HW225343   1.067   5.129   7.679
 7857SOL     OW25344  12.586   5.810  12.793
 7857SOL    HW125345  12.613   5.733  12.743
 7857SOL    HW225346  12.669   5.847  12.826
 7858SOL     OW25347   6.169  11.491  11.897
 7858SOL    HW125348   6.172  11.396  11.883
 7858SOL    HW225349   6.181  11.529  11.810
 7859SOL     OW25350   4.701   8.633   0.869
 7859SOL    HW125351   4.707   8.560   0.808
 7859SOL    HW225352   4.611   8.632   0.900
 7860SOL     OW25353   6.337   3.190   0.007
 7860SOL    HW125354   6.373   3.191  14.799
 7860SOL    HW225355   6.278   3.265   0.009
 7861SOL     OW25356   6.390   6.874   2.783
 7861SOL    HW125357   6.371   6.930   2.707
 7861SOL    HW225358   6.455   6.923   2.833
 7862SOL     OW25359  11.513   7.799   3.344
 7862SOL    HW125360  11.420   7.821   3.347
 7862SOL    HW225361  11.525   7.736   3.415
 7863SOL     OW25362  13.239   8.526  14.035
 7863SOL    HW125363  13.144   8.515  14.033
 7863SOL    HW225364  13.253   8.604  14.088
 7864SOL     OW25365   4.351   1.780   6.883
 7864SOL    HW125366   4.439   1.785   6.844
 7864SOL    HW225367   4.292   1.774   6.809
 7865SOL     OW25368   5.313   1.438   7.264
 7865SOL    HW125369   5.285   1.417   7.175
 7865SOL    HW225370   5.306   1.356   7.312
 7866SOL     OW25371   0.706   3.132  10.513
 7866SOL    HW125372   0.669   3.046  10.529
 7866SOL    HW225373   0.800   3.116  10.504
 7867SOL     OW25374   5.213  12.229   7.430
 7867SOL    HW125375   5.134  12.280   7.412
 7867SOL    HW225376   5.182  12.154   7.480
 7868SOL     OW25377   6.807   1.261   6.810
 7868SOL    HW125378   6.785   1.249   6.902
 7868SOL    HW225379   6.722   1.266   6.766
 7869SOL     OW25380   3.650   7.627   2.021
 7869SOL    HW125381   3.715   7.697   2.030
 7869SOL    HW225382   3.602   7.629   2.104
 7870SOL     OW25383  14.034   9.269  13.645
 7870SOL    HW125384  14.109   9.325  13.624
 7870SOL    HW225385  13.957   9.324  13.631
 7871SOL     OW25386   8.075  12.201   7.204
 7871SOL    HW125387   8.166  12.179   7.226
 7871SOL    HW225388   8.048  12.134   7.142
 7872SOL     OW25389  12.643   8.678  14.390
 7872SOL    HW125390  12.557   8.706  14.359
 7872SOL    HW225391  12.625   8.600  14.443
 7873SOL     OW25392  11.835   8.741   6.243
 7873SOL    HW125393  11.793   8.756   6.327
 7873SOL    HW225394  11.764   8.713   6.185
 7874SOL     OW25395   6.695   3.666   3.827
 7874SOL    HW125396   6.613   3.620   3.843
 7874SOL    HW225397   6.726   3.631   3.743
 7875SOL     OW25398   3.515   6.634   2.913
 7875SOL    HW125399   3.556   6.626   3.000
 7875SOL    HW225400   3.589   6.647   2.853
 7876SOL     OW25401   6.641  12.948  10.795
 7876SOL    HW125402   6.623  12.873  10.739
 7876SOL    HW225403   6.555  12.987  10.813
 7877SOL     OW25404   6.820   9.192   4.349
 7877SOL    HW125405   6.911   9.196   4.320
 7877SOL    HW225406   6.782   9.275   4.321
 7878SOL     OW25407  13.910  12.779  12.770
 7878SOL    HW125408  13.942  12.863  12.735
 7878SOL    HW225409  13.942  12.777  12.860
 7879SOL     OW25410   8.775   7.148   0.563
 7879SOL    HW125411   8.685   7.126   0.541
 7879SOL    HW225412   8.823   7.067   0.552
 7880SOL     OW25413   5.692   3.492   1.623
 7880SOL    HW125414   5.645   3.561   1.577
 7880SOL    HW225415   5.782   3.498   1.590
 7881SOL     OW25416   2.841   3.229   3.922
 7881SOL    HW125417   2.825   3.278   3.842
 7881SOL    HW225418   2.808   3.286   3.992
 7882SOL     OW25419  10.336   1.161   8.311
 7882SOL    HW125420  10.342   1.092   8.244
 7882SOL    HW225421  10.348   1.115   8.394
 7883SOL     OW25422  10.556  13.457   4.242
 7883SOL    HW125423  10.576  13.371   4.205
 7883SOL    HW225424  10.636  13.508   4.227
 7884SOL     OW25425   8.837   0.736   0.309
 7884SOL    HW125426   8.869   0.816   0.350
 7884SOL    HW225427   8.914   0.698   0.266
 7885SOL     OW25428   3.675   5.164   1.501
 7885SOL    HW125429   3.728   5.240   1.525
 7885SOL    HW225430   3.637   5.134   1.584
 7886SOL     OW25431  14.788   0.860   3.493
 7886SOL    HW125432  14.717   0.804   3.523
 7886SOL    HW225433  14.861   0.800   3.474
 7887SOL     OW25434   3.507   1.979   2.256
 7887SOL    HW125435   3.592   1.942   2.232
 7887SOL    HW225436   3.465   1.999   2.172
 7888SOL     OW25437   5.342   4.641   2.207
 7888SOL    HW125438   5.255   4.631   2.170
 7888SOL    HW225439   5.373   4.726   2.175
 7889SOL     OW25440   5.946   8.254   3.888
 7889SOL    HW125441   5.879   8.185   3.891
 7889SOL    HW225442   6.029   8.207   3.878
 7890SOL     OW25443  10.996   6.675   3.776
 7890SOL    HW125444  11.029   6.742   3.715
 7890SOL    HW225445  11.075   6.640   3.817
 7891SOL     OW25446   7.331   9.070   2.025
 7891SOL    HW125447   7.363   8.995   2.075
 7891SOL    HW225448   7.379   9.144   2.061
 7892SOL     OW25449   4.859   8.119   7.262
 7892SOL    HW125450   4.952   8.137   7.253
 7892SOL    HW225451   4.826   8.118   7.172
 7893SOL     OW25452   7.796   6.227   4.837
 7893SOL    HW125453   7.877   6.273   4.859
 7893SOL    HW225454   7.760   6.276   4.763
 7894SOL     OW25455  14.588   7.393  14.305
 7894SOL    HW125456  14.628   7.387  14.218
 7894SOL    HW225457  14.494   7.396  14.287
 7895SOL     OW25458  11.098  14.319  13.901
 7895SOL    HW125459  11.098  14.321  13.997
 7895SOL    HW225460  11.076  14.409  13.876
 7896SOL     OW25461   0.686   2.744   7.368
 7896SOL    HW125462   0.603   2.769   7.409
 7896SOL    HW225463   0.742   2.821   7.379
 7897SOL     OW25464   3.019  11.406  10.446
 7897SOL    HW125465   2.977  11.381  10.364
 7897SOL    HW225466   3.027  11.501  10.441
 7898SOL     OW25467  12.749   8.900  10.483
 7898SOL    HW125468  12.770   8.991  10.508
 7898SOL    HW225469  12.704   8.864  10.559
 7899SOL     OW25470   7.033  14.400   3.156
 7899SOL    HW125471   7.074  14.436   3.234
 7899SOL    HW225472   6.962  14.461   3.135
 7900SOL     OW25473   6.026   4.915  14.612
 7900SOL    HW125474   5.952   4.951  14.660
 7900SOL    HW225475   6.052   4.984  14.552
 7901SOL     OW25476  10.404  10.185  13.751
 7901SOL    HW125477  10.397  10.190  13.846
 7901SOL    HW225478  10.329  10.236  13.719
 7902SOL     OW25479   2.081  12.664   6.419
 7902SOL    HW125480   2.166  12.693   6.452
 7902SOL    HW225481   2.060  12.727   6.351
 7903SOL     OW25482   3.729   5.950   2.059
 7903SOL    HW125483   3.707   6.015   1.992
 7903SOL    HW225484   3.746   6.003   2.138
 7904SOL     OW25485   7.973   7.226   6.069
 7904SOL    HW125486   7.991   7.132   6.080
 7904SOL    HW225487   7.890   7.240   6.113
 7905SOL     OW25488  14.148   3.187   7.137
 7905SOL    HW125489  14.095   3.207   7.214
 7905SOL    HW225490  14.233   3.225   7.156
 7906SOL     OW25491   4.718   1.859   9.361
 7906SOL    HW125492   4.797   1.866   9.308
 7906SOL    HW225493   4.725   1.931   9.424
 7907SOL     OW25494  12.740  11.279  14.836
 7907SOL    HW125495  12.670  11.248   0.012
 7907SOL    HW225496  12.791  11.339   0.009
 7908SOL     OW25497   7.434   1.258  14.406
 7908SOL    HW125498   7.456   1.172  14.371
 7908SOL    HW225499   7.495   1.318  14.363
 7909SOL     OW25500   9.132   2.761   5.049
 7909SOL    HW125501   9.196   2.712   4.997
 7909SOL    HW225502   9.096   2.826   4.989
 7910SOL     OW25503  13.899   0.286   0.473
 7910SOL    HW125504  13.975   0.339   0.496
 7910SOL    HW225505  13.824   0.332   0.511
 7911SOL     OW25506   5.350  12.384   8.279
 7911SOL    HW125507   5.415  12.401   8.210
 7911SOL    HW225508   5.360  12.458   8.339
 7912SOL     OW25509   6.415  11.808  12.920
 7912SOL    HW125510   6.357  11.758  12.862
 7912SOL    HW225511   6.368  11.810  13.003
 7913SOL     OW25512   4.370   8.689   7.231
 7913SOL    HW125513   4.450   8.637   7.227
 7913SOL    HW225514   4.379   8.754   7.162
 7914SOL     OW25515  13.468   5.958   8.028
 7914SOL    HW125516  13.478   5.955   8.123
 7914SOL    HW225517  13.373   5.955   8.013
 7915SOL     OW25518  10.916  14.326   0.936
 7915SOL    HW125519  10.880  14.412   0.914
 7915SOL    HW225520  10.921  14.326   1.032
 7916SOL     OW25521  10.056   2.983  12.747
 7916SOL    HW125522  10.080   2.906  12.800
 7916SOL    HW225523  10.138   3.031  12.737
 7917SOL     OW25524   9.890  13.868   0.948
 7917SOL    HW125525   9.938  13.787   0.934
 7917SOL    HW225526   9.879  13.905   0.861
 7918SOL     OW25527   6.130   2.122   8.085
 7918SOL    HW125528   6.180   2.120   8.003
 7918SOL    HW225529   6.161   2.201   8.130
 7919SOL     OW25530   0.853   0.060   4.714
 7919SOL    HW125531   0.821   0.150   4.714
 7919SOL    HW225532   0.859   0.036   4.807
 7920SOL     OW25533   3.607   7.909  11.424
 7920SOL    HW125534   3.520   7.902  11.464
 7920SOL    HW225535   3.612   7.999  11.394
 7921SOL     OW25536   1.708  14.106   9.856
 7921SOL    HW125537   1.685  14.142   9.770
 7921SOL    HW225538   1.626  14.110   9.905
 7922SOL     OW25539   4.327  12.625   0.286
 7922SOL    HW125540   4.346  12.712   0.250
 7922SOL    HW225541   4.366  12.564   0.224
 7923SOL     OW25542  14.518   3.517   5.250
 7923SOL    HW125543  14.568   3.564   5.183
 7923SOL    HW225544  14.488   3.586   5.310
 7924SOL     OW25545   9.631   2.713   2.733
 7924SOL    HW125546   9.572   2.768   2.682
 7924SOL    HW225547   9.710   2.705   2.679
 7925SOL     OW25548   1.791   5.154   8.645
 7925SOL    HW125549   1.821   5.171   8.734
 7925SOL    HW225550   1.760   5.238   8.613
 7926SOL     OW25551   8.780  13.517  12.762
 7926SOL    HW125552   8.804  13.588  12.821
 7926SOL    HW225553   8.787  13.554  12.675
 7927SOL     OW25554  13.672   0.805   2.907
 7927SOL    HW125555  13.670   0.731   2.968
 7927SOL    HW225556  13.613   0.870   2.946
 7928SOL     OW25557   1.618  10.917  13.627
 7928SOL    HW125558   1.610  10.951  13.717
 7928SOL    HW225559   1.700  10.952  13.595
 7929SOL     OW25560   0.745   8.386   8.651
 7929SOL    HW125561   0.790   8.311   8.689
 7929SOL    HW225562   0.663   8.350   8.617
 7930SOL     OW25563   6.202  12.784  14.669
 7930SOL    HW125564   6.207  12.797  14.574
 7930SOL    HW225565   6.265  12.713  14.687
 7931SOL     OW25566   2.154  14.511   1.154
 7931SOL    HW125567   2.201  14.553   1.227
 7931SOL    HW225568   2.220  14.458   1.110
 7932SOL     OW25569  11.479   7.237   4.322
 7932SOL    HW125570  11.541   7.218   4.392
 7932SOL    HW225571  11.448   7.150   4.294
 7933SOL     OW25572   5.508   7.375   9.048
 7933SOL    HW125573   5.552   7.360   9.132
 7933SOL    HW225574   5.527   7.466   9.027
 7934SOL     OW25575  13.440   8.238   4.106
 7934SOL    HW125576  13.402   8.154   4.133
 7934SOL    HW225577  13.516   8.214   4.054
 7935SOL     OW25578   7.901   3.875   5.410
 7935SOL    HW125579   7.962   3.947   5.423
 7935SOL    HW225580   7.915   3.848   5.319
 7936SOL     OW25581  13.066   3.101  12.927
 7936SOL    HW125582  12.995   3.138  12.875
 7936SOL    HW225583  13.024   3.041  12.988
 7937SOL     OW25584  10.539   8.080   6.239
 7937SOL    HW125585  10.619   8.041   6.274
 7937SOL    HW225586  10.469   8.024   6.272
 7938SOL     OW25587   0.166   0.119   2.846
 7938SOL    HW125588   0.112   0.110   2.924
 7938SOL    HW225589   0.253   0.143   2.879
 7939SOL     OW25590   1.723  11.678   5.413
 7939SOL    HW125591   1.750  11.741   5.480
 7939SOL    HW225592   1.627  11.682   5.414
 7940SOL     OW25593  11.076  14.109   7.016
 7940SOL    HW125594  11.146  14.153   7.064
 7940SOL    HW225595  11.111  14.098   6.927
 7941SOL     OW25596  13.979  13.306   4.662
 7941SOL    HW125597  13.982  13.303   4.566
 7941SOL    HW225598  14.066  13.338   4.688
 7942SOL     OW25599  13.355   4.594  10.755
 7942SOL    HW125600  13.265   4.581  10.785
 7942SOL    HW225601  13.409   4.578  10.833
 7943SOL     OW25602  10.688  10.814   7.837
 7943SOL    HW125603  10.612  10.872   7.846
 7943SOL    HW225604  10.666  10.738   7.892
 7944SOL     OW25605   3.555   1.967   7.640
 7944SOL    HW125606   3.613   2.021   7.586
 7944SOL    HW225607   3.612   1.933   7.710
 7945SOL     OW25608   3.831   9.286   5.595
 7945SOL    HW125609   3.748   9.285   5.643
 7945SOL    HW225610   3.848   9.379   5.579
 7946SOL     OW25611   6.580   1.025   1.259
 7946SOL    HW125612   6.506   0.971   1.286
 7946SOL    HW225613   6.594   1.001   1.167
 7947SOL     OW25614   6.779   0.712   5.087
 7947SOL    HW125615   6.764   0.617   5.087
 7947SOL    HW225616   6.718   0.745   5.022
 7948SOL     OW25617   6.595   7.024   2.881
 7948SOL    HW125618   6.648   7.033   2.801
 7948SOL    HW225619   6.659   7.027   2.952
 7949SOL     OW25620  11.565   3.880   0.339
 7949SOL    HW125621  11.633   3.843   0.394
 7949SOL    HW225622  11.607   3.954   0.295
 7950SOL     OW25623   4.151   4.868   6.848
 7950SOL    HW125624   4.225   4.818   6.814
 7950SOL    HW225625   4.082   4.803   6.864
 7951SOL     OW25626   5.868   4.827  11.330
 7951SOL    HW125627   5.835   4.757  11.386
 7951SOL    HW225628   5.963   4.815  11.330
 7952SOL     OW25629  11.019   7.457   3.978
 7952SOL    HW125630  11.096   7.484   4.027
 7952SOL    HW225631  10.945   7.494   4.027
 7953SOL     OW25632   6.236  10.304   2.441
 7953SOL    HW125633   6.277  10.352   2.513
 7953SOL    HW225634   6.188  10.232   2.483
 7954SOL     OW25635   4.794  12.948   9.785
 7954SOL    HW125636   4.870  12.950   9.727
 7954SOL    HW225637   4.794  13.035   9.826
 7955SOL     OW25638  12.205  11.606  12.438
 7955SOL    HW125639  12.295  11.575  12.440
 7955SOL    HW225640  12.212  11.700  12.421
 7956SOL     OW25641  13.821   0.060   4.514
 7956SOL    HW125642  13.782   0.096   4.435
 7956SOL    HW225643  13.893   0.120   4.535
 7957SOL     OW25644   7.862   0.957  14.562
 7957SOL    HW125645   7.919   0.944  14.638
 7957SOL    HW225646   7.896   0.896  14.496
 7958SOL     OW25647   0.444   7.417   7.980
 7958SOL    HW125648   0.485   7.459   8.056
 7958SOL    HW225649   0.401   7.339   8.016
 7959SOL     OW25650   6.148   2.213   0.197
 7959SOL    HW125651   6.232   2.252   0.222
 7959SOL    HW225652   6.170   2.158   0.122
 7960SOL     OW25653   8.832   4.680   5.362
 7960SOL    HW125654   8.855   4.765   5.325
 7960SOL    HW225655   8.853   4.688   5.455
 7961SOL     OW25656  12.598   6.741   4.919
 7961SOL    HW125657  12.540   6.750   4.843
 7961SOL    HW225658  12.674   6.796   4.899
 7962SOL     OW25659   2.477   6.532  10.800
 7962SOL    HW125660   2.555   6.583  10.782
 7962SOL    HW225661   2.503   6.441  10.783
 7963SOL     OW25662   7.110  14.047   8.461
 7963SOL    HW125663   7.034  14.005   8.420
 7963SOL    HW225664   7.096  14.141   8.449
 7964SOL     OW25665   7.184   9.100   1.200
 7964SOL    HW125666   7.132   9.126   1.276
 7964SOL    HW225667   7.207   9.009   1.217
 7965SOL     OW25668   5.881   4.247   6.762
 7965SOL    HW125669   5.837   4.313   6.707
 7965SOL    HW225670   5.809   4.199   6.803
 7966SOL     OW25671   9.190   4.480   5.975
 7966SOL    HW125672   9.153   4.426   6.044
 7966SOL    HW225673   9.243   4.419   5.923
 7967SOL     OW25674   6.325  10.434   2.655
 7967SOL    HW125675   6.395  10.403   2.712
 7967SOL    HW225676   6.253  10.454   2.715
 7968SOL     OW25677   7.502   6.848   8.509
 7968SOL    HW125678   7.478   6.940   8.504
 7968SOL    HW225679   7.419   6.802   8.525
 7969SOL     OW25680  13.171  11.001   9.120
 7969SOL    HW125681  13.262  11.023   9.102
 7969SOL    HW225682  13.123  11.083   9.107
 7970SOL     OW25683  13.311   3.489  12.606
 7970SOL    HW125684  13.403   3.488  12.578
 7970SOL    HW225685  13.314   3.458  12.696
 7971NA      NA25686   7.827   7.935  10.427
 7972NA      NA25687  10.952   3.560   7.357
 7973NA      NA25688   3.641   9.857  12.194
 7974NA      NA25689   8.354   8.423  11.590
 7975NA      NA25690   6.959  13.360   7.013
 7976NA      NA25691  12.225   5.453  13.004
 7977NA      NA25692   8.653   6.958  11.235
 7978NA      NA25693  12.366   8.658   8.826
 7979NA      NA25694   7.058   4.098   9.077
 7980NA      NA25695   5.371   8.133  10.370
 7981NA      NA25696   4.873  10.960  11.141
 7982NA      NA25697   4.714   7.534  11.152
 7983NA      NA25698   1.271   7.479  12.657
 7984NA      NA25699   4.665   8.747  12.864
 7985NA      NA25700   1.362   8.905   8.279
 7986NA      NA25701   6.313   7.538  10.977
 7987NA      NA25702   1.670  10.679  13.535
 7988NA      NA25703   1.193  14.647   3.065
 7989NA      NA25704   4.416   5.154   9.521
 7990NA      NA25705   3.274   9.107  13.465
 7991NA      NA25706   9.760   8.869  11.857
 7992NA      NA25707   7.872  12.196  10.728
 7993NA      NA25708   7.404   6.680  10.783
 7994NA      NA25709   9.421  11.130   9.468
 7995NA      NA25710   5.772   3.206   0.055
 7996NA      NA25711   7.266   5.515  13.254
 7997NA      NA25712   0.013  14.265  11.314
 7998NA      NA25713  10.457   5.879  11.150
 7999NA      NA25714  10.337   9.309   4.234
 8000NA      NA25715   9.202   5.802  11.239
 8001NA      NA25716  11.866  11.060   9.437
 8002NA      NA25717   0.966   9.716  12.390
 8003NA      NA25718   3.561   7.792   4.910
 8004NA      NA25719   6.754   8.180   9.422
 8005NA      NA25720   8.614   9.442  12.980
 8006NA      NA25721  10.743   5.794   9.913
 8007NA      NA25722   8.713   5.958  10.357
 8008NA      NA25723  12.985  12.550   4.678
 8009NA      NA25724   5.533   5.815   9.166
 8010NA      NA25725   5.157   9.464  10.878
 8011NA      NA25726   8.367   7.834  10.353
 8012NA      NA25727   5.085  10.025  12.607
 8013NA      NA25728   7.492   7.564  12.050
 8014NA      NA25729   7.230   7.256  10.053
 8015NA      NA25730   4.219  12.055  11.788
 8016NA      NA25731   3.541  11.876  11.334
 8017NA      NA25732  11.095   6.764  11.045
 8018NA      NA25733   6.899   9.190  12.016
 8019NA      NA25734   7.051  10.323  11.503
 8020NA      NA25735   3.577  11.606  13.369
 8021NA      NA25736  13.092   8.376   7.240
 8022NA      NA25737   5.628   7.559  10.733
 8023NA      NA25738   7.694   5.840   7.854
 8024NA      NA25739   2.875   9.443   8.520
 8025NA      NA25740   5.048   4.131   4.459
 8026NA      NA25741   3.759  10.548  11.555
 8027NA      NA25742   5.006  11.789  13.224
 8028NA      NA25743  11.732   8.123   3.659
 8029NA      NA25744   8.233   8.614  14.139
  14.88147  14.88147  14.88147
